/*--------------------------------*- C++ -*----------------------------------*\
  =========                 |
  \\      /  F ield         | OpenFOAM: The Open Source CFD Toolbox
   \\    /   O peration     | Website:  https://openfoam.org
    \\  /    A nd           | Version:  10
     \\/     M anipulation  |
\*---------------------------------------------------------------------------*/
FoamFile
{
    format      ascii;
    class       surfaceScalarField;
    location    "2.2";
    object      phi;
}
// * * * * * * * * * * * * * * * * * * * * * * * * * * * * * * * * * * * * * //

dimensions      [0 3 -1 0 0 0 0];

internalField   nonuniform List<scalar> 
24170
(
-1.52821e-12
1.52821e-12
-3.45944e-12
1.93123e-12
-6.26139e-12
2.80195e-12
-1.04903e-11
4.22892e-12
-1.68602e-11
6.36988e-12
-2.63028e-11
9.44256e-12
-4.00179e-11
1.37152e-11
-5.95085e-11
1.94906e-11
-8.65895e-11
2.7081e-11
-1.23364e-10
3.67745e-11
-1.72169e-10
4.88053e-11
-2.35534e-10
6.33643e-11
-3.16269e-10
8.0735e-11
-4.18031e-10
1.01763e-10
-5.47294e-10
1.29263e-10
-7.2007e-10
1.72776e-10
-9.90002e-10
2.69932e-10
6.24128e-10
-1.61413e-09
-1.61568e-12
3.14389e-12
-3.65849e-12
3.97404e-12
-6.62406e-12
5.76752e-12
-1.1102e-11
8.70684e-12
-1.78496e-11
1.31174e-11
-2.78559e-11
1.94489e-11
-4.23963e-11
2.82556e-11
-6.30704e-11
4.01647e-11
-9.18137e-11
5.58243e-11
-1.30872e-10
7.58326e-11
-1.8274e-10
1.00674e-10
-2.50102e-10
1.30726e-10
-3.35879e-10
1.66512e-10
-4.43672e-10
2.09556e-10
-5.79275e-10
2.64866e-10
-7.54821e-10
3.48322e-10
-9.9663e-10
5.11741e-10
9.32524e-10
-1.30503e-09
-1.67907e-12
4.82296e-12
-3.80458e-12
6.09954e-12
-6.89427e-12
8.85721e-12
-1.15646e-11
1.33771e-11
-1.86082e-11
2.01611e-11
-2.90627e-11
2.99034e-11
-4.42695e-11
4.34624e-11
-6.59168e-11
6.1812e-11
-9.60549e-11
8.59624e-11
-1.37071e-10
1.16849e-10
-1.9162e-10
1.55222e-10
-2.62522e-10
2.01628e-10
-3.52714e-10
2.56704e-10
-4.65405e-10
3.22247e-10
-6.04653e-10
4.04114e-10
-7.75854e-10
5.19523e-10
-9.78692e-10
7.14579e-10
1.09267e-09
-1.13884e-09
-1.70676e-12
6.52972e-12
-3.87191e-12
8.26469e-12
-7.02662e-12
1.20119e-11
-1.18041e-11
1.81546e-11
-1.90204e-11
2.73774e-11
-2.97473e-11
4.06304e-11
-4.53769e-11
5.9092e-11
-6.76715e-11
8.41065e-11
-9.87856e-11
1.17077e-10
-1.41245e-10
1.59308e-10
-1.97861e-10
2.11838e-10
-2.71582e-10
2.7535e-10
-3.65287e-10
3.50409e-10
-4.8153e-10
4.3849e-10
-6.2202e-10
5.44604e-10
-7.85208e-10
6.82711e-10
-9.54219e-10
8.8359e-10
1.18968e-09
-1.05123e-09
-1.68441e-12
8.21413e-12
-3.82875e-12
1.0409e-11
-6.96518e-12
1.51484e-11
-1.17292e-11
2.29186e-11
-1.89427e-11
3.45909e-11
-2.96909e-11
5.13785e-11
-4.53932e-11
7.47942e-11
-6.78624e-11
1.06576e-10
-9.93391e-11
1.48553e-10
-1.42478e-10
2.02447e-10
-2.00256e-10
2.69616e-10
-2.75759e-10
3.50853e-10
-3.71794e-10
4.46445e-10
-4.9019e-10
5.56885e-10
-6.30328e-10
6.84742e-10
-7.853e-10
8.37683e-10
-9.31362e-10
1.02965e-09
1.26625e-09
-1.00793e-09
-1.59497e-12
9.8091e-12
-3.63728e-12
1.24513e-11
-6.64319e-12
1.81543e-11
-1.12308e-11
2.75062e-11
-1.82034e-11
4.15636e-11
-2.86299e-11
6.1805e-11
-4.39232e-11
9.00875e-11
-6.59118e-11
1.28564e-10
-9.68923e-11
1.79534e-10
-1.39634e-10
2.45189e-10
-1.97292e-10
3.27273e-10
-2.73143e-10
4.26704e-10
-3.70027e-10
5.43329e-10
-4.8925e-10
6.76108e-10
-6.28493e-10
8.23985e-10
-7.77802e-10
9.86993e-10
-9.12848e-10
1.1647e-09
1.34446e-09
-9.91055e-10
-1.41889e-12
1.1228e-11
-3.25413e-12
1.42866e-11
-5.98403e-12
2.08842e-11
-1.01832e-11
3.17053e-11
-1.66037e-11
4.79841e-11
-2.62575e-11
7.14589e-11
-4.05033e-11
1.04333e-10
-6.11341e-11
1.49195e-10
-9.04556e-11
2.08855e-10
-1.31327e-10
2.8606e-10
-1.87101e-10
3.83048e-10
-2.61357e-10
5.0096e-10
-3.57224e-10
6.39196e-10
-4.7602e-10
7.94904e-10
-6.14839e-10
9.62805e-10
-7.62971e-10
1.13512e-09
-8.98474e-10
1.3002e-09
1.43744e-09
-9.91455e-10
-1.13493e-12
1.23629e-11
-2.63216e-12
1.57838e-11
-4.90428e-12
2.31563e-11
-8.44911e-12
3.52502e-11
-1.3925e-11
5.34599e-11
-2.22333e-11
7.97672e-11
-3.4613e-11
1.16713e-10
-5.27473e-11
1.6733e-10
-7.88789e-11
2.34987e-10
-1.15908e-10
3.23089e-10
-1.67408e-10
4.34548e-10
-2.37426e-10
5.70978e-10
-3.29818e-10
7.31587e-10
-4.46785e-10
9.11871e-10
-5.86349e-10
1.10237e-09
-7.39076e-10
1.28785e-09
-8.86237e-10
1.44736e-09
1.55574e-09
-1.00454e-09
-7.2172e-13
1.30846e-11
-1.7239e-12
1.6786e-11
-3.3198e-12
2.47522e-11
-5.88956e-12
3.78199e-11
-9.94427e-12
5.75146e-11
-1.62052e-11
8.60281e-11
-2.57037e-11
1.26212e-10
-3.99087e-11
1.81534e-10
-6.08872e-11
2.55965e-10
-9.14891e-11
3.5369e-10
-1.35501e-10
4.7856e-10
-1.97632e-10
6.33109e-10
-2.83053e-10
8.17009e-10
-3.96079e-10
1.0249e-09
-5.37598e-10
1.24389e-09
-7.01541e-10
1.4518e-09
-8.72417e-10
1.61824e-09
1.71153e-09
-1.0282e-09
-1.60398e-13
1.3245e-11
-4.87508e-13
1.71131e-11
-1.15635e-12
2.5421e-11
-2.38122e-12
3.90448e-11
-4.461e-12
5.95944e-11
-7.8496e-12
8.94167e-11
-1.32567e-11
1.31619e-10
-2.17909e-11
1.90069e-10
-3.51715e-11
2.69346e-10
-5.60251e-11
3.74544e-10
-8.82511e-11
5.10786e-10
-1.37355e-10
6.82214e-10
-2.10481e-10
8.90134e-10
-3.15595e-10
1.13001e-09
-4.59078e-10
1.38737e-09
-6.41193e-10
1.63391e-09
-8.50514e-10
1.82756e-09
1.92276e-09
-1.06175e-09
5.61247e-13
1.26838e-11
1.10406e-12
1.65703e-11
1.63388e-12
2.48912e-11
2.15594e-12
3.85227e-11
2.65889e-12
5.90915e-11
3.06098e-12
8.90146e-11
3.11819e-12
1.31561e-10
2.27802e-12
1.90909e-10
-5.72871e-13
2.72197e-10
-7.52655e-12
3.81498e-10
-2.22921e-11
5.25551e-10
-5.10573e-11
7.10979e-10
-1.034e-10
9.42477e-10
-1.9265e-10
1.21926e-09
-3.34341e-10
1.52906e-09
-5.40517e-10
1.84009e-09
-8.08152e-10
2.09519e-09
2.2201e-09
-1.10549e-09
1.15353e-12
1.15303e-11
2.43207e-12
1.52918e-11
4.01142e-12
2.33119e-11
6.10726e-12
3.64269e-11
8.99474e-12
5.6204e-11
1.29832e-11
8.50262e-11
1.83565e-11
1.26188e-10
2.527e-11
1.83995e-10
3.35331e-11
2.63934e-10
4.21912e-11
3.7284e-10
4.87769e-11
5.18966e-10
4.80814e-11
7.11674e-10
3.03601e-11
9.60198e-10
-2.0727e-11
1.27035e-09
-1.29025e-10
1.63736e-09
-3.21835e-10
2.0329e-09
-6.14064e-10
2.38742e-09
2.58243e-09
-9.76396e-10
2.20458e-12
9.32568e-12
4.73552e-12
1.27608e-11
8.01666e-12
2.00307e-11
1.25727e-11
3.18709e-11
1.91053e-11
4.96713e-11
2.84944e-11
7.56371e-11
4.17624e-11
1.1292e-10
6.00161e-11
1.65742e-10
8.42483e-11
2.39701e-10
1.14864e-10
3.42224e-10
1.50687e-10
4.83143e-10
1.87043e-10
6.75318e-10
2.12353e-10
9.34887e-10
2.02777e-10
1.27992e-09
1.15716e-10
1.72442e-09
-1.12326e-10
2.26094e-09
-5.46101e-10
2.8212e-09
3.21142e-09
-1.17509e-09
3.75737e-12
5.56831e-12
8.1445e-12
8.37369e-12
1.39536e-11
1.42216e-11
2.21715e-11
2.3653e-11
3.41727e-11
3.76701e-11
5.17621e-11
5.80478e-11
7.71877e-11
8.74944e-11
1.13233e-10
1.29696e-10
1.63182e-10
1.89752e-10
2.30517e-10
2.7489e-10
3.18004e-10
3.95656e-10
4.25465e-10
5.67857e-10
5.44748e-10
8.15605e-10
6.49223e-10
1.17545e-09
6.73867e-10
1.69978e-09
4.84289e-10
2.45052e-09
-1.44669e-10
3.45016e-09
4.48139e-09
-1.41464e-09
5.84461e-12
-2.76301e-13
1.27292e-11
1.48912e-12
2.19247e-11
5.02608e-12
3.50066e-11
1.05711e-11
5.43185e-11
1.83581e-11
8.30402e-11
2.9326e-11
1.25218e-10
4.5317e-11
1.86241e-10
6.86727e-11
2.7326e-10
1.02733e-10
3.95608e-10
1.52542e-10
5.65092e-10
2.26171e-10
7.95567e-10
3.37383e-10
1.10004e-09
5.11137e-10
1.48003e-09
7.95453e-10
1.89207e-09
1.28774e-09
2.14766e-09
2.19493e-09
1.62339e-09
3.97442e-09
7.67084e-09
-1.56605e-09
8.21324e-12
-8.48954e-12
1.79382e-11
-8.23588e-12
3.09234e-11
-7.95911e-12
4.91791e-11
-7.68458e-12
7.62759e-11
-8.73864e-12
1.17238e-10
-1.16356e-11
1.78113e-10
-1.55588e-11
2.67446e-10
-2.06601e-11
3.9734e-10
-2.71603e-11
5.85306e-10
-3.54246e-11
8.57498e-10
-4.60205e-11
1.25471e-09
-5.98249e-11
1.84405e-09
-7.82098e-11
2.74287e-09
-1.03361e-10
4.16944e-09
-1.38838e-10
6.55495e-09
-1.90582e-10
1.07982e-08
-2.68808e-10
-3.9187e-10
1.88609e-08
3.01788e-07
1.97763e-07
2.38996e-07
6.27838e-08
2.17411e-07
2.15772e-08
2.1104e-07
6.36307e-09
2.11322e-07
-2.90691e-10
2.1342e-07
-2.10972e-09
2.17007e-07
-3.60246e-09
2.21874e-07
-4.88714e-09
2.27918e-07
-6.07193e-09
2.35138e-07
-7.25533e-09
2.43618e-07
-8.5253e-09
2.53528e-07
-9.96984e-09
2.6514e-07
-1.16907e-08
2.78857e-07
-1.38198e-08
2.95258e-07
-1.65406e-08
3.15182e-07
-2.01142e-08
3.39821e-07
-2.49076e-08
-3.14015e-08
3.7083e-07
1.00271e-07
9.7492e-08
1.06375e-07
5.66799e-08
9.72732e-08
3.06793e-08
8.7659e-08
1.59773e-08
7.97654e-08
7.60297e-09
7.49538e-08
2.70185e-09
7.18314e-08
-4.80066e-10
6.95418e-08
-2.59759e-09
6.78304e-08
-4.36052e-09
6.65147e-08
-5.93961e-09
6.54284e-08
-7.43902e-09
6.43815e-08
-8.92286e-09
6.31149e-08
-1.04241e-08
6.12377e-08
-1.19426e-08
5.81299e-08
-1.34328e-08
5.27968e-08
-1.4781e-08
4.36572e-08
-1.5768e-08
-1.60179e-08
2.82735e-08
4.6822e-08
5.067e-08
6.66027e-08
3.68992e-08
7.27178e-08
2.45643e-08
7.32364e-08
1.54586e-08
7.17501e-08
9.08923e-09
6.98163e-08
4.6357e-09
6.79238e-08
1.41244e-09
6.62515e-08
-9.25258e-10
6.4572e-08
-2.68104e-09
6.27774e-08
-4.14501e-09
6.07362e-08
-5.39788e-09
5.82947e-08
-6.4813e-09
5.52784e-08
-7.40789e-09
5.15031e-08
-8.16724e-09
4.68007e-08
-8.73043e-09
4.10753e-08
-9.05566e-09
3.4405e-08
-9.09766e-09
-8.82441e-09
2.72115e-08
1.84453e-08
3.22246e-08
2.98444e-08
2.55001e-08
3.58868e-08
1.85219e-08
3.87049e-08
1.26405e-08
3.97355e-08
8.05869e-09
3.97969e-08
4.5743e-09
3.92967e-08
1.91263e-09
3.85106e-08
-1.39146e-10
3.74562e-08
-1.62664e-09
3.61508e-08
-2.83969e-09
3.45876e-08
-3.8346e-09
3.27492e-08
-4.64292e-09
3.062e-08
-5.27869e-09
2.81971e-08
-5.74436e-09
2.55031e-08
-6.03641e-09
2.25985e-08
-6.15106e-09
1.95911e-08
-6.09031e-09
-5.86781e-09
1.66345e-08
1.05187e-08
2.17059e-08
1.80889e-08
1.79299e-08
2.29243e-08
1.36865e-08
2.57555e-08
9.80937e-09
2.72421e-08
6.57202e-09
2.78455e-08
3.97099e-09
2.78519e-08
1.90618e-09
2.74465e-08
2.66239e-10
2.67662e-08
-9.46362e-10
2.58319e-08
-1.90538e-09
2.46729e-08
-2.67556e-09
2.33115e-08
-3.28157e-09
2.17709e-08
-3.73806e-09
2.00805e-08
-4.05393e-09
1.82802e-08
-4.23613e-09
1.6422e-08
-4.29289e-09
1.45679e-08
-4.23622e-09
-4.08321e-09
1.27834e-08
6.63891e-09
1.5067e-08
1.18071e-08
1.27617e-08
1.54475e-08
1.00461e-08
1.78229e-08
7.43401e-09
1.92447e-08
5.1502e-09
1.99705e-08
3.24524e-09
2.01857e-08
1.69091e-09
2.00169e-08
4.3503e-10
1.9594e-08
-5.23421e-10
1.89528e-08
-1.26421e-09
1.81311e-08
-1.85386e-09
1.71606e-08
-2.31105e-09
1.60715e-08
-2.64891e-09
1.48951e-08
-2.87759e-09
1.36655e-08
-3.00648e-09
1.24184e-08
-3.04582e-09
1.11898e-08
-3.00767e-09
-2.90607e-09
1.00127e-08
4.47926e-09
1.05877e-08
8.12899e-09
9.11194e-09
1.08544e-08
7.32065e-09
1.27505e-08
5.53792e-09
1.39713e-08
3.92941e-09
1.46646e-08
2.55192e-09
1.49505e-08
1.40505e-09
1.49201e-08
4.65439e-10
1.46667e-08
-2.70075e-10
1.42334e-08
-8.30886e-10
1.3656e-08
-1.27646e-09
1.29653e-08
-1.62039e-09
1.21896e-08
-1.87318e-09
1.13558e-08
-2.04376e-09
1.049e-08
-2.1407e-09
9.61724e-09
-2.17306e-09
8.76027e-09
-2.15069e-09
-2.08419e-09
7.93839e-09
3.1633e-09
7.42444e-09
5.81618e-09
6.45906e-09
7.87343e-09
5.26339e-09
9.36604e-09
4.04532e-09
1.03737e-08
2.92171e-09
1.09847e-08
1.94099e-09
1.12778e-08
1.11189e-09
1.13185e-08
4.24809e-10
1.11727e-08
-1.24341e-10
1.08812e-08
-5.39394e-10
1.04746e-08
-8.69801e-10
9.97921e-09
-1.12504e-09
9.41895e-09
-1.31292e-09
8.81559e-09
-1.4404e-09
8.18918e-09
-1.51429e-09
7.55779e-09
-1.54167e-09
6.9371e-09
-1.52999e-09
-1.48696e-09
6.33987e-09
2.30484e-09
5.11961e-09
4.27563e-09
4.48828e-09
5.8439e-09
3.69512e-09
7.01554e-09
2.87368e-09
7.83346e-09
2.10379e-09
8.35224e-09
1.42222e-09
8.62498e-09
8.39141e-10
8.6985e-09
3.51291e-10
8.61967e-09
-4.55101e-11
8.42357e-09
-3.43292e-10
8.13505e-09
-5.81284e-10
7.77579e-09
-7.6578e-10
7.36507e-09
-9.02196e-10
6.92021e-09
-9.95536e-10
6.45669e-09
-1.05077e-09
5.98806e-09
-1.07304e-09
5.52577e-09
-1.06771e-09
-1.04023e-09
5.07903e-09
1.71334e-09
3.40626e-09
3.19853e-09
3.00309e-09
4.40236e-09
2.49128e-09
5.32116e-09
1.95488e-09
5.97876e-09
1.44619e-09
6.41e-09
9.90972e-10
6.65132e-09
5.97826e-10
6.73642e-09
2.66189e-10
6.69854e-09
-7.62837e-12
6.56669e-09
-2.11448e-10
6.36054e-09
-3.75129e-10
6.09734e-09
-5.02578e-10
5.79242e-09
-5.97284e-10
5.45946e-09
-6.6257e-10
5.1105e-09
-7.01807e-10
4.75599e-09
-7.18526e-10
4.40469e-09
-7.16408e-10
-6.99184e-10
4.06365e-09
1.28615e-09
2.12011e-09
2.41223e-09
1.87701e-09
3.33753e-09
1.56599e-09
4.05527e-09
1.23714e-09
4.57896e-09
9.22494e-10
4.9314e-09
6.38532e-10
5.13785e-09
3.91376e-10
5.22266e-09
1.81383e-10
5.20893e-09
6.09554e-12
5.12076e-09
-1.23273e-10
4.97279e-09
-2.27162e-10
4.77857e-09
-3.08354e-10
4.55014e-09
-3.6886e-10
4.29828e-09
-4.10705e-10
4.03249e-09
-4.36019e-10
3.76104e-09
-4.47075e-10
3.49089e-09
-4.46254e-10
-4.35957e-10
3.22766e-09
9.63065e-10
1.15705e-09
1.81264e-09
1.02744e-09
2.51802e-09
8.6061e-10
3.07212e-09
6.83037e-10
3.48267e-09
5.11953e-10
3.7647e-09
3.56502e-10
3.93575e-09
2.20323e-10
4.01321e-09
1.03921e-10
4.01317e-09
6.13522e-12
3.95416e-09
-6.42645e-11
3.84741e-09
-1.20414e-10
3.70331e-09
-1.64249e-10
3.53131e-09
-1.96863e-10
3.34001e-09
-2.194e-10
3.13707e-09
-2.33081e-10
2.92918e-09
-2.39185e-10
2.72195e-09
-2.39027e-10
-2.33902e-10
2.5199e-09
7.03031e-10
4.54015e-10
1.32674e-09
4.03735e-10
1.84866e-09
3.38688e-10
2.2626e-09
2.69094e-10
2.57287e-09
2.01684e-10
2.78926e-09
1.40112e-10
2.92367e-09
8.59068e-11
2.9882e-09
3.93971e-11
2.99363e-09
7.00127e-13
2.95246e-09
-2.30936e-11
2.87435e-09
-4.23e-11
2.76767e-09
-5.75701e-11
2.64008e-09
-6.92749e-11
2.49844e-09
-7.77585e-11
2.34872e-09
-8.33607e-11
2.19597e-09
-8.64317e-11
2.04428e-09
-8.73367e-11
-8.64516e-11
1.89683e-09
4.54015e-10
8.5775e-10
1.19644e-09
1.46553e-09
1.66722e-09
1.80733e-09
1.89324e-09
1.93263e-09
1.93333e-09
1.91024e-09
1.86794e-09
1.81037e-09
1.74109e-09
1.66334e-09
1.57997e-09
1.49354e-09
1.40621e-09
1.31975e-09
-2.42872e-11
2.42872e-11
-4.86998e-11
2.44127e-11
-7.31951e-11
2.44953e-11
-9.77287e-11
2.45336e-11
-1.22255e-10
2.45264e-11
-1.46728e-10
2.44727e-11
-1.711e-10
2.43718e-11
-1.95323e-10
2.42233e-11
-2.1935e-10
2.40271e-11
-2.43133e-10
2.37834e-11
-2.66626e-10
2.34926e-11
-2.89782e-10
2.31556e-11
-3.12555e-10
2.27733e-11
-3.34902e-10
2.23471e-11
-3.56781e-10
2.18786e-11
-3.7815e-10
2.13696e-11
-3.98972e-10
2.08222e-11
-4.19211e-10
2.02386e-11
-4.38832e-10
1.96213e-11
-4.57805e-10
1.8973e-11
-4.76101e-10
1.82962e-11
-4.93695e-10
1.75939e-11
-5.10564e-10
1.6869e-11
-5.26689e-10
1.61243e-11
-5.42051e-10
1.53628e-11
-5.56639e-10
1.45875e-11
-5.7044e-10
1.38012e-11
-5.83447e-10
1.3007e-11
-5.95654e-10
1.22075e-11
-6.0706e-10
1.14054e-11
-6.17663e-10
1.06035e-11
-6.27467e-10
9.8041e-12
-6.36477e-10
9.00966e-12
-6.44699e-10
8.22238e-12
-6.52144e-10
7.44434e-12
-6.58821e-10
6.67748e-12
-6.64745e-10
5.92358e-12
-6.69929e-10
5.18427e-12
-6.7439e-10
4.461e-12
-6.78145e-10
3.75511e-12
-6.81213e-10
3.06776e-12
-6.83613e-10
2.39994e-12
-6.85366e-10
1.75255e-12
-6.86492e-10
1.12632e-12
-6.87014e-10
5.21823e-13
-6.86953e-10
-6.04377e-14
-6.86333e-10
-6.20122e-13
-6.85176e-10
-1.157e-12
-6.83505e-10
-1.67093e-12
-6.81343e-10
-2.16187e-12
-6.78713e-10
-2.62989e-12
-6.75638e-10
-3.07511e-12
-6.72141e-10
-3.49778e-12
-6.68242e-10
-3.89814e-12
-6.63966e-10
-4.27657e-12
-6.59332e-10
-4.63345e-12
-6.54363e-10
-4.96924e-12
-6.49079e-10
-5.28443e-12
-6.43499e-10
-5.57955e-12
-6.37644e-10
-5.85515e-12
-6.31532e-10
-6.11183e-12
-6.25182e-10
-6.35018e-12
-6.18611e-10
-6.57082e-12
-6.11837e-10
-6.7744e-12
-6.04875e-10
-6.96154e-12
-5.97742e-10
-7.1329e-12
-5.90453e-10
-7.28913e-12
-5.83022e-10
-7.43086e-12
-5.75464e-10
-7.55873e-12
-5.6779e-10
-7.6734e-12
-5.60015e-10
-7.77546e-12
-5.52149e-10
-7.86554e-12
-5.44205e-10
-7.94425e-12
-5.36193e-10
-8.01216e-12
-5.28123e-10
-8.06985e-12
-5.20005e-10
-8.11787e-12
-5.11848e-10
-8.15677e-12
-5.03661e-10
-8.18705e-12
-4.95452e-10
-8.20923e-12
-4.87228e-10
-8.22379e-12
-4.78997e-10
-8.23117e-12
-4.70765e-10
-8.23184e-12
-4.62539e-10
-8.2262e-12
-4.54324e-10
-8.21466e-12
-4.46127e-10
-8.19759e-12
-4.37951e-10
-8.17536e-12
-4.29803e-10
-8.14829e-12
-4.21686e-10
-8.11672e-12
-4.13605e-10
-8.08091e-12
-4.05564e-10
-8.04116e-12
-3.97567e-10
-7.9977e-12
-3.89616e-10
-7.95077e-12
-3.81715e-10
-7.90056e-12
-3.73868e-10
-7.84726e-12
-3.66077e-10
-7.79104e-12
-3.58345e-10
-7.73201e-12
-3.50675e-10
-7.6703e-12
-3.43069e-10
-7.60599e-12
-3.3553e-10
-7.53915e-12
-3.2806e-10
-7.46981e-12
-3.20662e-10
-7.39799e-12
-3.13338e-10
-7.32367e-12
-3.06091e-10
-7.24681e-12
-2.98924e-10
-7.16735e-12
-2.91839e-10
-7.08519e-12
-2.84839e-10
-7.00022e-12
-2.77926e-10
-6.91228e-12
-2.71105e-10
-6.82121e-12
-2.64378e-10
-6.7268e-12
-2.57749e-10
-6.62884e-12
-2.51222e-10
-6.52709e-12
-2.44801e-10
-6.42129e-12
-2.3849e-10
-6.31116e-12
-2.32293e-10
-6.19642e-12
-2.26217e-10
-6.07679e-12
-2.20265e-10
-5.95199e-12
-2.14443e-10
-5.82175e-12
-2.08757e-10
-5.68584e-12
-2.03213e-10
-5.54404e-12
-1.97817e-10
-5.39621e-12
-1.92575e-10
-5.24225e-12
-1.87492e-10
-5.08215e-12
-1.82576e-10
-4.91599e-12
-1.77832e-10
-4.74397e-12
-1.73266e-10
-4.56642e-12
-1.68882e-10
-4.3838e-12
-1.64685e-10
-4.19675e-12
-1.60679e-10
-4.00607e-12
-1.56867e-10
-3.81276e-12
-1.53249e-10
-3.61803e-12
-1.49825e-10
-3.42328e-12
-1.46595e-10
-3.23016e-12
-1.43555e-10
-3.04053e-12
-1.40698e-10
-2.85652e-12
-1.38018e-10
-2.68049e-12
-1.35503e-10
-2.51511e-12
-1.33139e-10
-2.3633e-12
-1.30911e-10
-2.22834e-12
-1.28797e-10
-2.11383e-12
-1.26773e-10
-2.02377e-12
-1.24811e-10
-1.9626e-12
-1.22875e-10
-1.93528e-12
-1.20928e-10
-1.9473e-12
-1.18923e-10
-2.00482e-12
-1.16809e-10
-2.11477e-12
-1.14524e-10
-2.28488e-12
-1.12e-10
-2.5239e-12
-1.09158e-10
-2.84165e-12
-1.05909e-10
-3.24923e-12
-1.0215e-10
-3.75908e-12
-9.77646e-11
-4.38523e-12
-9.26212e-11
-5.14342e-12
-8.657e-11
-6.05121e-12
-7.94418e-11
-7.12819e-12
-7.10457e-11
-8.39605e-12
-6.11671e-11
-9.87862e-12
-4.95652e-11
-1.16019e-11
-3.59713e-11
-1.35939e-11
-2.00869e-11
-1.58844e-11
-1.5824e-12
-1.85045e-11
1.99035e-11
-2.14859e-11
4.47633e-11
-2.48598e-11
7.34184e-11
-2.86551e-11
1.06316e-10
-3.28971e-11
1.4392e-10
-3.7604e-11
1.86703e-10
-4.27838e-11
2.35133e-10
-4.843e-11
2.8965e-10
-5.45163e-11
3.50641e-10
-6.09909e-11
4.18409e-10
-6.77687e-11
4.93134e-10
-7.47244e-11
5.74816e-10
-8.16827e-11
6.63225e-10
-8.84087e-11
7.57817e-10
-9.45919e-11
8.57638e-10
-9.98209e-11
9.61162e-10
-1.03524e-10
1.06597e-09
-1.0481e-10
1.16792e-09
-1.01948e-10
1.25811e-09
-9.01894e-11
-4.92435e-11
1.30735e-09
-2.44775e-11
4.87647e-11
-4.90803e-11
4.90155e-11
-7.37646e-11
4.91795e-11
-9.84848e-11
4.92538e-11
-1.23194e-10
4.92358e-11
-1.47845e-10
4.91238e-11
-1.7239e-10
4.89163e-11
-1.96779e-10
4.86126e-11
-2.20965e-10
4.82125e-11
-2.44898e-10
4.77165e-11
-2.68531e-10
4.71255e-11
-2.91816e-10
4.64411e-11
-3.14709e-10
4.56657e-11
-3.37163e-10
4.4802e-11
-3.59138e-10
4.38532e-11
-3.80592e-10
4.28233e-11
-4.01486e-10
4.17163e-11
-4.21784e-10
4.0537e-11
-4.41454e-10
3.92904e-11
-4.60462e-10
3.79818e-11
-4.78783e-10
3.66166e-11
-4.9639e-10
3.52008e-11
-5.13261e-10
3.374e-11
-5.29377e-10
3.22402e-11
-5.44721e-10
3.07075e-11
-5.59282e-10
2.91478e-11
-5.73047e-10
2.75668e-11
-5.86011e-10
2.59705e-11
-5.98168e-10
2.43645e-11
-6.09516e-10
2.2754e-11
-6.20057e-10
2.11445e-11
-6.29794e-10
1.95408e-11
-6.38732e-10
1.79476e-11
-6.46879e-10
1.63695e-11
-6.54245e-10
1.48105e-11
-6.60842e-10
1.32744e-11
-6.66683e-10
1.17649e-11
-6.71784e-10
1.02851e-11
-6.76161e-10
8.83789e-12
-6.79832e-10
7.4259e-12
-6.82816e-10
6.05142e-12
-6.85132e-10
4.71643e-12
-6.86802e-10
3.42264e-12
-6.87847e-10
2.17147e-12
-6.8829e-10
9.64088e-13
-6.88151e-10
-1.9861e-13
-6.87456e-10
-1.31594e-12
-6.86225e-10
-2.38746e-12
-6.84483e-10
-3.41293e-12
-6.82253e-10
-4.39233e-12
-6.79557e-10
-5.32577e-12
-6.76418e-10
-6.21356e-12
-6.7286e-10
-7.05618e-12
-6.68904e-10
-7.85418e-12
-6.64572e-10
-8.6083e-12
-6.59886e-10
-9.31933e-12
-6.54867e-10
-9.98821e-12
-6.49536e-10
-1.06159e-11
-6.43912e-10
-1.12035e-11
-6.38015e-10
-1.17522e-11
-6.31864e-10
-1.2263e-11
-6.25477e-10
-1.27373e-11
-6.18871e-10
-1.31762e-11
-6.12064e-10
-1.35811e-11
-6.05073e-10
-1.39532e-11
-5.97912e-10
-1.42938e-11
-5.90597e-10
-1.46043e-11
-5.83142e-10
-1.48858e-11
-5.75561e-10
-1.51397e-11
-5.67867e-10
-1.53673e-11
-5.60072e-10
-1.55698e-11
-5.5219e-10
-1.57484e-11
-5.44229e-10
-1.59044e-11
-5.36203e-10
-1.60388e-11
-5.2812e-10
-1.61529e-11
-5.1999e-10
-1.62477e-11
-5.11822e-10
-1.63244e-11
-5.03625e-10
-1.63839e-11
-4.95407e-10
-1.64272e-11
-4.87176e-10
-1.64554e-11
-4.78938e-10
-1.64693e-11
-4.707e-10
-1.64699e-11
-4.62468e-10
-1.64579e-11
-4.54249e-10
-1.64341e-11
-4.46047e-10
-1.63994e-11
-4.37868e-10
-1.63543e-11
-4.29716e-10
-1.62997e-11
-4.21597e-10
-1.62361e-11
-4.13514e-10
-1.6164e-11
-4.05471e-10
-1.60841e-11
-3.97472e-10
-1.59969e-11
-3.8952e-10
-1.59027e-11
-3.81618e-10
-1.5802e-11
-3.7377e-10
-1.56952e-11
-3.65979e-10
-1.55826e-11
-3.58247e-10
-1.54643e-11
-3.50576e-10
-1.53408e-11
-3.4297e-10
-1.52121e-11
-3.35431e-10
-1.50783e-11
-3.27961e-10
-1.49396e-11
-3.20563e-10
-1.47959e-11
-3.1324e-10
-1.46473e-11
-3.05993e-10
-1.44936e-11
-2.98825e-10
-1.43347e-11
-2.9174e-10
-1.41704e-11
-2.8474e-10
-1.40005e-11
-2.77828e-10
-1.38247e-11
-2.71006e-10
-1.36427e-11
-2.64279e-10
-1.3454e-11
-2.5765e-10
-1.32582e-11
-2.51122e-10
-1.30548e-11
-2.447e-10
-1.28433e-11
-2.38388e-10
-1.26232e-11
-2.3219e-10
-1.23938e-11
-2.26113e-10
-1.21546e-11
-2.20159e-10
-1.19051e-11
-2.14336e-10
-1.16447e-11
-2.08649e-10
-1.13729e-11
-2.03104e-10
-1.10893e-11
-1.97707e-10
-1.07936e-11
-1.92463e-10
-1.04856e-11
-1.8738e-10
-1.01653e-11
-1.82463e-10
-9.83276e-12
-1.77719e-10
-9.48846e-12
-1.73152e-10
-9.13303e-12
-1.68769e-10
-8.76739e-12
-1.64573e-10
-8.39282e-12
-1.60568e-10
-8.01092e-12
-1.56757e-10
-7.6237e-12
-1.53141e-10
-7.23355e-12
-1.49721e-10
-6.84331e-12
-1.46495e-10
-6.45624e-12
-1.4346e-10
-6.0761e-12
-1.40609e-10
-5.70713e-12
-1.37936e-10
-5.35407e-12
-1.35428e-10
-5.02222e-12
-1.33074e-10
-4.71747e-12
-1.30856e-10
-4.44632e-12
-1.28754e-10
-4.21599e-12
-1.26743e-10
-4.03447e-12
-1.24795e-10
-3.91064e-12
-1.22876e-10
-3.85436e-12
-1.20947e-10
-3.87662e-12
-1.18962e-10
-3.98973e-12
-1.16869e-10
-4.20748e-12
-1.14609e-10
-4.54537e-12
-1.12112e-10
-5.02083e-12
-1.093e-10
-5.65349e-12
-1.06084e-10
-6.4655e-12
-1.02361e-10
-7.48175e-12
-9.80161e-11
-8.73027e-12
-9.2917e-11
-1.02425e-11
-8.69146e-11
-1.20536e-11
-7.98401e-11
-1.42027e-11
-7.15029e-11
-1.67332e-11
-6.16886e-11
-1.96929e-11
-5.01568e-11
-2.31338e-11
-3.66387e-11
-2.7112e-11
-2.08358e-11
-3.16873e-11
-2.41832e-12
-3.6922e-11
1.89757e-11
-4.288e-11
4.37396e-11
-4.96237e-11
7.22965e-11
-5.7212e-11
1.05095e-10
-6.56956e-11
1.42603e-10
-7.51118e-11
1.85297e-10
-8.54776e-11
2.33648e-10
-9.67809e-11
2.88102e-10
-1.0897e-10
3.49054e-10
-1.21943e-10
4.16816e-10
-1.35531e-10
4.91576e-10
-1.49484e-10
5.73347e-10
-1.63454e-10
6.61911e-10
-1.76972e-10
7.56743e-10
-1.89424e-10
8.56918e-10
-1.99996e-10
9.6097e-10
-2.07576e-10
1.06665e-09
-2.10487e-10
1.17039e-09
-2.05693e-10
1.26636e-09
-1.86154e-10
-1.31066e-10
1.34818e-09
-2.48631e-11
7.36278e-11
-4.98512e-11
7.40035e-11
-7.49181e-11
7.42464e-11
-1.00016e-10
7.43517e-11
-1.25096e-10
7.43158e-11
-1.50108e-10
7.4136e-11
-1.75002e-10
7.38101e-11
-1.99727e-10
7.33373e-11
-2.24231e-10
7.27174e-11
-2.48466e-10
7.19512e-11
-2.72381e-10
7.10405e-11
-2.95928e-10
6.99881e-11
-3.1906e-10
6.87975e-11
-3.41731e-10
6.74731e-11
-3.63898e-10
6.60202e-11
-3.8552e-10
6.44449e-11
-4.06557e-10
6.27537e-11
-4.26974e-10
6.0954e-11
-4.46737e-10
5.90535e-11
-4.65816e-10
5.70604e-11
-4.84182e-10
5.49834e-11
-5.01813e-10
5.28311e-11
-5.18686e-10
5.06127e-11
-5.34783e-10
4.83372e-11
-5.50089e-10
4.60137e-11
-5.64592e-10
4.36512e-11
-5.78284e-10
4.12587e-11
-5.91158e-10
3.88448e-11
-6.03212e-10
3.6418e-11
-6.14444e-10
3.39866e-11
-6.24858e-10
3.15582e-11
-6.34458e-10
2.91404e-11
-6.4325e-10
2.67402e-11
-6.51245e-10
2.43641e-11
-6.58453e-10
2.20184e-11
-6.64887e-10
1.97087e-11
-6.70563e-10
1.74402e-11
-6.75495e-10
1.52177e-11
-6.79703e-10
1.30453e-11
-6.83204e-10
1.0927e-11
-6.86018e-10
8.866e-12
-6.88167e-10
6.86523e-12
-6.89672e-10
4.92712e-12
-6.90554e-10
3.05376e-12
-6.90837e-10
1.24675e-12
-6.90543e-10
-4.92605e-13
-6.89695e-10
-2.16339e-12
-6.88317e-10
-3.76503e-12
-6.86433e-10
-5.29724e-12
-6.84065e-10
-6.76002e-12
-6.81238e-10
-8.15366e-12
-6.77972e-10
-9.47867e-12
-6.74293e-10
-1.07358e-11
-6.70221e-10
-1.19259e-11
-6.65779e-10
-1.30502e-11
-6.60989e-10
-1.41099e-11
-6.5587e-10
-1.51064e-11
-6.50445e-10
-1.60413e-11
-6.44732e-10
-1.69161e-11
-6.38752e-10
-1.77327e-11
-6.32522e-10
-1.84927e-11
-6.26062e-10
-1.9198e-11
-6.19387e-10
-1.98505e-11
-6.12516e-10
-2.04522e-11
-6.05464e-10
-2.10049e-11
-5.98248e-10
-2.15106e-11
-5.90881e-10
-2.19712e-11
-5.83378e-10
-2.23888e-11
-5.75752e-10
-2.27651e-11
-5.68018e-10
-2.31022e-11
-5.60186e-10
-2.34018e-11
-5.52268e-10
-2.36658e-11
-5.44276e-10
-2.38961e-11
-5.36221e-10
-2.40943e-11
-5.28112e-10
-2.42622e-11
-5.19958e-10
-2.44014e-11
-5.11769e-10
-2.45135e-11
-5.03553e-10
-2.46001e-11
-4.95317e-10
-2.46627e-11
-4.8707e-10
-2.47027e-11
-4.78818e-10
-2.47214e-11
-4.70568e-10
-2.47202e-11
-4.62325e-10
-2.47004e-11
-4.54096e-10
-2.46631e-11
-4.45886e-10
-2.46094e-11
-4.377e-10
-2.45404e-11
-4.29542e-10
-2.44572e-11
-4.21418e-10
-2.43606e-11
-4.1333e-10
-2.42515e-11
-4.05284e-10
-2.41307e-11
-3.97282e-10
-2.3999e-11
-3.89328e-10
-2.3857e-11
-3.81424e-10
-2.37053e-11
-3.73575e-10
-2.35445e-11
-3.65782e-10
-2.3375e-11
-3.5805e-10
-2.31973e-11
-3.50379e-10
-2.30116e-11
-3.42772e-10
-2.28183e-11
-3.35233e-10
-2.26175e-11
-3.27764e-10
-2.24092e-11
-3.20366e-10
-2.21936e-11
-3.13042e-10
-2.19707e-11
-3.05796e-10
-2.17402e-11
-2.98629e-10
-2.15019e-11
-2.91543e-10
-2.12556e-11
-2.84543e-10
-2.1001e-11
-2.7763e-10
-2.07375e-11
-2.70808e-10
-2.04647e-11
-2.6408e-10
-2.01819e-11
-2.5745e-10
-1.98885e-11
-2.50921e-10
-1.95837e-11
-2.44497e-10
-1.92668e-11
-2.38184e-10
-1.89369e-11
-2.31984e-10
-1.85931e-11
-2.25904e-10
-1.82346e-11
-2.19949e-10
-1.78606e-11
-2.14124e-10
-1.74701e-11
-2.08434e-10
-1.70625e-11
-2.02886e-10
-1.66371e-11
-1.97486e-10
-1.61934e-11
-1.92241e-10
-1.57312e-11
-1.87156e-10
-1.52504e-11
-1.82237e-10
-1.47511e-11
-1.77492e-10
-1.4234e-11
-1.72925e-10
-1.37e-11
-1.68542e-10
-1.31506e-11
-1.64347e-10
-1.25876e-11
-1.60344e-10
-1.20134e-11
-1.56537e-10
-1.1431e-11
-1.52927e-10
-1.08441e-11
-1.49513e-10
-1.02568e-11
-1.46295e-10
-9.6742e-12
-1.43269e-10
-9.10179e-12
-1.40431e-10
-8.54597e-12
-1.37771e-10
-8.01385e-12
-1.3528e-10
-7.51339e-12
-1.32944e-10
-7.05339e-12
-1.30746e-10
-6.64362e-12
-1.28667e-10
-6.29486e-12
-1.26683e-10
-6.0191e-12
-1.24764e-10
-5.82958e-12
-1.22877e-10
-5.74108e-12
-1.20984e-10
-5.77004e-12
-1.19039e-10
-5.93486e-12
-1.1699e-10
-6.25617e-12
-1.14778e-10
-6.75715e-12
-1.12335e-10
-7.46389e-12
-1.09583e-10
-8.40578e-12
-1.06432e-10
-9.61595e-12
-1.02782e-10
-1.11317e-11
-9.85177e-11
-1.2995e-11
-9.35071e-11
-1.5253e-11
-8.76023e-11
-1.79584e-11
-8.06351e-11
-2.117e-11
-7.24155e-11
-2.49528e-11
-6.27299e-11
-2.93786e-11
-5.1338e-11
-3.45256e-11
-3.79716e-11
-4.04784e-11
-2.2332e-11
-4.73269e-11
-4.08869e-12
-5.51653e-11
1.71213e-11
-6.40899e-11
4.16932e-11
-7.41956e-11
7.00529e-11
-8.55718e-11
1.02653e-10
-9.82961e-11
1.39968e-10
-1.12426e-10
1.82481e-10
-1.2799e-10
2.30672e-10
-1.44972e-10
2.85e-10
-1.63298e-10
3.45873e-10
-1.82817e-10
4.1362e-10
-2.03278e-10
4.88448e-10
-2.24312e-10
5.70394e-10
-2.45399e-10
6.59264e-10
-2.65843e-10
7.54569e-10
-2.84729e-10
8.55439e-10
-3.00866e-10
9.60515e-10
-3.12652e-10
1.0678e-09
-3.17774e-10
1.17452e-09
-3.12414e-10
1.27749e-09
-2.89117e-10
-2.31789e-10
1.37821e-09
-2.54541e-11
9.90819e-11
-5.10324e-11
9.95819e-11
-7.66855e-11
9.98994e-11
-1.02362e-10
1.00028e-10
-1.28009e-10
9.99627e-11
-1.53573e-10
9.96999e-11
-1.79e-10
9.92372e-11
-2.04236e-10
9.85733e-11
-2.29227e-10
9.77086e-11
-2.5392e-10
9.66445e-11
-2.78264e-10
9.53839e-11
-3.02206e-10
9.39308e-11
-3.25699e-10
9.22905e-11
-3.48696e-10
9.04696e-11
-3.71151e-10
8.84756e-11
-3.93023e-10
8.63172e-11
-4.14273e-10
8.40038e-11
-4.34865e-10
8.15456e-11
-4.54765e-10
7.89536e-11
-4.73944e-10
7.62393e-11
-4.92375e-10
7.34144e-11
-5.10035e-10
7.04912e-11
-5.26905e-10
6.74821e-11
-5.42967e-10
6.43994e-11
-5.58209e-10
6.12556e-11
-5.7262e-10
5.80629e-11
-5.86195e-10
5.48334e-11
-5.98929e-10
5.15787e-11
-6.10821e-10
4.83103e-11
-6.21874e-10
4.50391e-11
-6.32091e-10
4.17754e-11
-6.4148e-10
3.85291e-11
-6.50049e-10
3.53096e-11
-6.5781e-10
3.21254e-11
-6.64777e-10
2.89848e-11
-6.70963e-10
2.5895e-11
-6.76386e-10
2.2863e-11
-6.81063e-10
1.98947e-11
-6.85013e-10
1.69958e-11
-6.88258e-10
1.41711e-11
-6.90816e-10
1.14248e-11
-6.92712e-10
8.7606e-12
-6.93966e-10
6.18163e-12
-6.94603e-10
3.6904e-12
-6.94645e-10
1.28894e-12
-6.94116e-10
-1.02119e-12
-6.93041e-10
-3.23897e-12
-6.91442e-10
-5.36375e-12
-6.89344e-10
-7.39529e-12
-6.8677e-10
-9.33375e-12
-6.83744e-10
-1.11796e-11
-6.80289e-10
-1.29337e-11
-6.76428e-10
-1.4597e-11
-6.72183e-10
-1.61709e-11
-6.67576e-10
-1.76571e-11
-6.62629e-10
-1.90571e-11
-6.57362e-10
-2.03731e-11
-6.51797e-10
-2.16071e-11
-6.45952e-10
-2.27612e-11
-6.39846e-10
-2.38379e-11
-6.33499e-10
-2.48395e-11
-6.26929e-10
-2.57686e-11
-6.20152e-10
-2.66277e-11
-6.13185e-10
-2.74193e-11
-6.06043e-10
-2.8146e-11
-5.98743e-10
-2.88106e-11
-5.91299e-10
-2.94154e-11
-5.83725e-10
-2.99632e-11
-5.76033e-10
-3.04565e-11
-5.68238e-10
-3.08979e-11
-5.6035e-10
-3.12898e-11
-5.52381e-10
-3.16346e-11
-5.44342e-10
-3.19348e-11
-5.36244e-10
-3.21927e-11
-5.28096e-10
-3.24105e-11
-5.19906e-10
-3.25904e-11
-5.11685e-10
-3.27346e-11
-5.0344e-10
-3.28452e-11
-4.95179e-10
-3.2924e-11
-4.86909e-10
-3.2973e-11
-4.78636e-10
-3.2994e-11
-4.70367e-10
-3.29888e-11
-4.62109e-10
-3.2959e-11
-4.53866e-10
-3.29061e-11
-4.45643e-10
-3.28317e-11
-4.37447e-10
-3.27371e-11
-4.2928e-10
-3.26237e-11
-4.21148e-10
-3.24928e-11
-4.13054e-10
-3.23453e-11
-4.05002e-10
-3.21825e-11
-3.96996e-10
-3.20053e-11
-3.89038e-10
-3.18146e-11
-3.81133e-10
-3.16112e-11
-3.73281e-10
-3.13957e-11
-3.65487e-10
-3.11689e-11
-3.57754e-10
-3.09311e-11
-3.50082e-10
-3.0683e-11
-3.42476e-10
-3.04247e-11
-3.34937e-10
-3.01565e-11
-3.27467e-10
-2.98787e-11
-3.2007e-10
-2.95911e-11
-3.12747e-10
-2.92938e-11
-3.05501e-10
-2.89865e-11
-2.98333e-10