/*--------------------------------*- C++ -*----------------------------------*\
  =========                 |
  \\      /  F ield         | OpenFOAM: The Open Source CFD Toolbox
   \\    /   O peration     | Website:  https://openfoam.org
    \\  /    A nd           | Version:  10
     \\/     M anipulation  |
\*---------------------------------------------------------------------------*/
FoamFile
{
    format      ascii;
    class       surfaceScalarField;
    location    "9700";
    object      phi;
}
// * * * * * * * * * * * * * * * * * * * * * * * * * * * * * * * * * * * * * //

dimensions      [0 3 -1 0 0 0 0];

internalField   nonuniform List<scalar> 
12640
(
-1.39051e-08
1.39051e-08
-2.7879e-08
1.3974e-08
-4.19922e-08
1.41131e-08
-5.63175e-08
1.43253e-08
-7.09324e-08
1.46149e-08
-8.59204e-08
1.4988e-08
-1.01373e-07
1.54527e-08
-1.17393e-07
1.60198e-08
-1.34096e-07
1.67027e-08
-1.51615e-07
1.75192e-08
-1.70106e-07
1.84916e-08
-1.89755e-07
1.9649e-08
-2.10785e-07
2.10292e-08
-2.33466e-07
2.26818e-08
-2.5814e-07
2.46733e-08
-2.85234e-07
2.70939e-08
-3.15303e-07
3.00693e-08
-3.49081e-07
3.37784e-08
-3.87565e-07
3.84841e-08
-4.32152e-07
4.4587e-08
-4.84877e-07
5.27248e-08
-5.48844e-07
6.39664e-08
-6.29058e-07
8.02145e-08
-7.34098e-07
1.0504e-07
-8.78711e-07
1.44613e-07
-1.06668e-06
1.87967e-07
-5.62599e-07
-5.04078e-07
-7.07779e-06
6.51519e-06
-6.94661e-06
-1.31181e-07
-6.38696e-06
-5.59648e-07
-6.11145e-06
-2.75509e-07
-5.85559e-06
-2.55868e-07
-5.67742e-06
-1.78162e-07
-5.45308e-06
-2.24347e-07
-5.12836e-06
-3.24719e-07
-4.61149e-06
-5.1687e-07
-3.83001e-06
-7.81483e-07
-2.75841e-06
-1.07159e-06
-1.44554e-06
-1.31287e-06
-2.18262e-18
-1.44554e-06
1.44554e-06
-1.44554e-06
2.75841e-06
-1.31287e-06
3.83001e-06
-1.07159e-06
4.61149e-06
-7.81483e-07
5.12836e-06
-5.1687e-07
5.45308e-06
-3.24719e-07
5.67742e-06
-2.24347e-07
5.85559e-06
-1.78162e-07
6.11145e-06
-2.55868e-07
6.38696e-06
-2.75509e-07
6.94661e-06
-5.59648e-07
7.07779e-06
-1.31181e-07
5.62599e-07
6.51519e-06
1.06668e-06
-5.04078e-07
8.78711e-07
1.87967e-07
7.34098e-07
1.44613e-07
6.29058e-07
1.0504e-07
5.48844e-07
8.02145e-08
4.84877e-07
6.39664e-08
4.32152e-07
5.27248e-08
3.87565e-07
4.4587e-08
3.49081e-07
3.84841e-08
3.15303e-07
3.37784e-08
2.85234e-07
3.00693e-08
2.5814e-07
2.70939e-08
2.33466e-07
2.46733e-08
2.10785e-07
2.26818e-08
1.89755e-07
2.10292e-08
1.70106e-07
1.9649e-08
1.51615e-07
1.84916e-08
1.34096e-07
1.75192e-08
1.17393e-07
1.67027e-08
1.01373e-07
1.60198e-08
8.59204e-08
1.54527e-08
7.09324e-08
1.4988e-08
5.63175e-08
1.46149e-08
4.19922e-08
1.43253e-08
2.7879e-08
1.41131e-08
1.39051e-08
1.3974e-08
1.39051e-08
-1.52482e-08
2.91532e-08
-3.05718e-08
2.92976e-08
-4.6048e-08
2.95893e-08
-6.17567e-08
3.0034e-08
-7.77827e-08
3.06409e-08
-9.42176e-08
3.14229e-08
-1.11162e-07
3.23968e-08
-1.28727e-07
3.35851e-08
-1.47041e-07
3.50163e-08
-1.66249e-07
3.67272e-08
-1.86522e-07
3.87649e-08
-2.08063e-07
4.119e-08
-2.31115e-07
4.40816e-08
-2.55977e-07
4.75437e-08
-2.83019e-07
5.17151e-08
-3.1271e-07
5.67849e-08
-3.45656e-07
6.30152e-08
-3.82657e-07
7.078e-08
-4.24801e-07
8.0628e-08
-4.73609e-07
9.33945e-08
-5.31291e-07
1.10407e-07
-6.01213e-07
1.33889e-07
-6.88787e-07
1.67788e-07
-8.03296e-07
2.19549e-07
-9.61732e-07
3.03048e-07
-1.20291e-06
4.29143e-07
-2.12993e-06
4.22941e-07
-2.04444e-06
6.42971e-06
-7.12383e-06
4.94821e-06
-6.64313e-06
-1.04034e-06
-6.41294e-06
-5.05707e-07
-6.17352e-06
-4.95286e-07
-5.99455e-06
-3.57135e-07
-5.77578e-06
-4.43115e-07
-5.45811e-06
-6.4239e-07
-4.93102e-06
-1.04396e-06
-4.11212e-06
-1.60039e-06
-2.96908e-06
-2.21463e-06
-1.55726e-06
-2.72469e-06
-8.34836e-18
-3.00281e-06
1.55726e-06
-3.00281e-06
2.96908e-06
-2.72469e-06
4.11212e-06
-2.21463e-06
4.93102e-06
-1.60039e-06
5.45811e-06
-1.04396e-06
5.77578e-06
-6.4239e-07
5.99455e-06
-4.43115e-07
6.17352e-06
-3.57135e-07
6.41294e-06
-4.95286e-07
6.64313e-06
-5.05707e-07
7.12383e-06
-1.04034e-06
2.04444e-06
4.94821e-06
2.12993e-06
6.42971e-06
1.20291e-06
4.22941e-07
9.61732e-07
4.29143e-07
8.03296e-07
3.03048e-07
6.88787e-07
2.19549e-07
6.01213e-07
1.67788e-07
5.31291e-07
1.33889e-07
4.73609e-07
1.10407e-07
4.24801e-07
9.33945e-08
3.82657e-07
8.0628e-08
3.45656e-07
7.078e-08
3.1271e-07
6.30152e-08
2.83019e-07
5.67849e-08
2.55977e-07
5.17151e-08
2.31115e-07
4.75437e-08
2.08063e-07
4.40816e-08
1.86522e-07
4.119e-08
1.66249e-07
3.87649e-08
1.47041e-07
3.67272e-08
1.28727e-07
3.50163e-08
1.11162e-07
3.35851e-08
9.42176e-08
3.23968e-08
7.77827e-08
3.14229e-08
6.17567e-08
3.06409e-08
4.6048e-08
3.0034e-08
3.05718e-08
2.95893e-08
1.52482e-08
2.92976e-08
2.91532e-08
-1.67163e-08
4.58695e-08
-3.35153e-08
4.60966e-08
-5.04811e-08
4.65551e-08
-6.77016e-08
4.72544e-08
-8.52693e-08
4.82087e-08
-1.03284e-07
4.94381e-08
-1.21857e-07
5.09693e-08
-1.41109e-07
5.28373e-08
-1.6118e-07
5.50872e-08
-1.82229e-07
5.77764e-08
-2.04443e-07
6.09789e-08
-2.28043e-07
6.479e-08
-2.53295e-07
6.93334e-08
-2.80524e-07
7.47722e-08
-3.10133e-07
8.1324e-08
-3.42632e-07
8.92843e-08
-3.7868e-07
9.90634e-08
-4.19145e-07
1.11245e-07
-4.65203e-07
1.26686e-07
-5.18494e-07
1.46685e-07
-5.81391e-07
1.73305e-07
-6.57488e-07
2.09985e-07
-7.5252e-07
2.6282e-07
-8.76303e-07
3.43331e-07
-1.04764e-06
4.7439e-07
-1.31973e-06
7.01234e-07
-2.08312e-06
1.18633e-06
-1.2498e-06
5.59638e-06
-4.27853e-06
7.97694e-06
-6.87418e-06
1.55531e-06
-6.77986e-06
-6.00028e-07
-6.57996e-06
-6.95183e-07
-6.39917e-06
-5.37925e-07
-6.20423e-06
-6.38057e-07
-5.92668e-06
-9.19937e-07
-5.41002e-06
-1.56062e-06
-4.55367e-06
-2.45673e-06
-3.30622e-06
-3.46208e-06
-1.73651e-06
-4.2944e-06
-8.54362e-18
-4.73932e-06
1.73651e-06
-4.73932e-06
3.30622e-06
-4.2944e-06
4.55367e-06
-3.46208e-06
5.41002e-06
-2.45673e-06
5.92668e-06
-1.56062e-06
6.20423e-06
-9.19937e-07
6.39917e-06
-6.38057e-07
6.57996e-06
-5.37925e-07
6.77986e-06
-6.95183e-07
6.87418e-06
-6.00028e-07
4.27853e-06
1.55531e-06
1.2498e-06
7.97694e-06
2.08312e-06
5.59638e-06
1.31973e-06
1.18633e-06
1.04764e-06
7.01234e-07
8.76303e-07
4.7439e-07
7.5252e-07
3.43331e-07
6.57488e-07
2.6282e-07
5.81391e-07
2.09985e-07
5.18494e-07
1.73305e-07
4.65203e-07
1.46685e-07
4.19145e-07
1.26686e-07
3.7868e-07
1.11245e-07
3.42632e-07
9.90634e-08
3.10133e-07
8.92843e-08
2.80524e-07
8.1324e-08
2.53295e-07
7.47722e-08
2.28043e-07
6.93334e-08
2.04443e-07
6.479e-08
1.82229e-07
6.09789e-08
1.6118e-07
5.77764e-08
1.41109e-07
5.50872e-08
1.21857e-07
5.28373e-08
1.03284e-07
5.09693e-08
8.52693e-08
4.94381e-08
6.77016e-08
4.82087e-08
5.04811e-08
4.72544e-08
3.35153e-08
4.65551e-08
1.67163e-08
4.60966e-08
4.58695e-08
-1.83193e-08
6.41888e-08
-3.67288e-08
6.45062e-08
-5.53209e-08
6.51472e-08
-7.41911e-08
6.61247e-08
-9.3441e-08
6.74585e-08
-1.1318e-07
6.91768e-08
-1.33527e-07
7.13168e-08
-1.54617e-07
7.39274e-08
-1.76601e-07
7.70712e-08
-1.99653e-07
8.08284e-08
-2.23976e-07
8.5302e-08
-2.49811e-07
9.06247e-08
-2.77446e-07
9.69687e-08
-3.07235e-07
1.04561e-07
-3.39614e-07
1.13703e-07
-3.75135e-07
1.24805e-07
-4.14508e-07
1.38437e-07
-4.58667e-07
1.55404e-07
-5.08871e-07
1.76889e-07
-5.66866e-07
2.0468e-07
-6.35162e-07
2.41601e-07
-7.17516e-07
2.92339e-07
-8.19847e-07
3.65151e-07
-9.52139e-07
4.75623e-07
-1.13348e-06
6.55735e-07
-1.41416e-06
9.81911e-07
-1.98157e-06
1.75373e-06
-1.51878e-06
5.13359e-06
-5.83134e-07
7.0413e-06
-5.2912e-06
6.26337e-06
-7.10701e-06
1.21579e-06
-7.0375e-06
-7.64696e-07
-6.85419e-06
-7.21233e-07
-6.72047e-06
-7.71785e-07
-6.55298e-06
-1.08742e-06
-6.08965e-06
-2.02395e-06
-5.21112e-06
-3.33526e-06
-3.8178e-06
-4.85541e-06
-2.0068e-06
-6.10539e-06
-2.59415e-18
-6.74612e-06
2.0068e-06
-6.74612e-06
3.8178e-06
-6.10539e-06
5.21112e-06
-4.85541e-06
6.08965e-06
-3.33526e-06
6.55298e-06
-2.02395e-06
6.72047e-06
-1.08742e-06
6.85419e-06
-7.71785e-07
7.0375e-06
-7.21233e-07
7.10701e-06
-7.64696e-07
5.2912e-06
1.21579e-06
5.83134e-07
6.26337e-06
1.51878e-06
7.0413e-06
1.98157e-06
5.13359e-06
1.41416e-06
1.75373e-06
1.13348e-06
9.81911e-07
9.52139e-07
6.55735e-07
8.19847e-07
4.75623e-07
7.17516e-07
3.65151e-07
6.35162e-07
2.92339e-07
5.66866e-07
2.41601e-07
5.08871e-07
2.0468e-07
4.58667e-07
1.76889e-07
4.14508e-07
1.55404e-07
3.75135e-07
1.38437e-07
3.39614e-07
1.24805e-07
3.07235e-07
1.13703e-07
2.77446e-07
1.04561e-07
2.49811e-07
9.69687e-08
2.23976e-07
9.06247e-08
1.99653e-07
8.5302e-08
1.76601e-07
8.08284e-08
1.54617e-07
7.70712e-08
1.33527e-07
7.39274e-08
1.1318e-07
7.13168e-08
9.3441e-08
6.91768e-08
7.41911e-08
6.74585e-08
5.53209e-08
6.61247e-08
3.67288e-08
6.51472e-08
1.83193e-08
6.45062e-08
6.41888e-08
-2.00668e-08
8.42555e-08
-4.02321e-08
8.46715e-08
-6.05965e-08
8.55116e-08
-8.12643e-08
8.67925e-08
-1.02346e-07
8.85404e-08
-1.23961e-07
9.07919e-08
-1.4624e-07
9.35956e-08
-1.69328e-07
9.70154e-08
-1.9339e-07
1.01133e-07
-2.18615e-07
1.06053e-07
-2.45223e-07
1.1191e-07
-2.73474e-07
1.18876e-07
-3.03682e-07
1.27176e-07
-3.36227e-07
1.37105e-07
-3.71578e-07
1.49055e-07
-4.1033e-07
1.63557e-07
-4.53239e-07
1.81346e-07
-5.013e-07
2.03466e-07
-5.55843e-07
2.31432e-07
-6.18699e-07
2.67535e-07
-6.92465e-07
3.15367e-07
-7.80966e-07
3.80841e-07
-8.9009e-07
4.74274e-07
-1.02943e-06
6.14963e-07
-1.21625e-06
8.42555e-07
-1.48724e-06
1.2529e-06
-1.89383e-06
2.16033e-06
-1.50802e-06
4.74777e-06
-7.88847e-07
6.32213e-06
-5.25285e-07
5.99981e-06
-5.15059e-06
5.84109e-06
-7.3606e-06
1.44531e-06
-7.2547e-06
-8.27135e-07
-7.28123e-06
-7.45251e-07
-7.38662e-06
-9.82029e-07
-7.05551e-06
-2.35506e-06
-6.20418e-06
-4.18659e-06
-4.60137e-06
-6.45822e-06
-2.41043e-06
-8.29633e-06
-2.88441e-18
-9.15655e-06
2.41043e-06
-9.15655e-06
4.60137e-06
-8.29633e-06
6.20418e-06
-6.45822e-06
7.05551e-06
-4.18659e-06
7.38662e-06
-2.35506e-06
7.28123e-06
-9.82029e-07
7.2547e-06
-7.45251e-07
7.3606e-06
-8.27135e-07
5.15059e-06
1.44531e-06
5.25285e-07
5.84109e-06
7.88847e-07
5.99981e-06
1.50802e-06
6.32213e-06
1.89383e-06
4.74777e-06
1.48724e-06
2.16033e-06
1.21625e-06
1.2529e-06
1.02943e-06
8.42555e-07
8.9009e-07
6.14963e-07
7.80966e-07
4.74274e-07
6.92465e-07
3.80841e-07
6.18699e-07
3.15367e-07
5.55843e-07
2.67535e-07
5.013e-07
2.31432e-07
4.53239e-07
2.03466e-07
4.1033e-07
1.81346e-07
3.71578e-07
1.63557e-07
3.36227e-07
1.49055e-07
3.03682e-07
1.37105e-07
2.73474e-07
1.27176e-07
2.45223e-07
1.18876e-07
2.18615e-07
1.1191e-07
1.9339e-07
1.06053e-07
1.69328e-07
1.01133e-07
1.4624e-07
9.70154e-08
1.23961e-07
9.35956e-08
1.02346e-07
9.07919e-08
8.12643e-08
8.85404e-08
6.05965e-08
8.67925e-08
4.02321e-08
8.55116e-08
2.00668e-08
8.46715e-08
8.42555e-08
-2.19683e-08
1.06224e-07
-4.40439e-08
1.06747e-07
-6.63362e-08
1.07804e-07
-8.89588e-08
1.09415e-07
-1.12032e-07
1.11613e-07
-1.35685e-07
1.14445e-07
-1.60059e-07
1.1797e-07
-1.85314e-07
1.22269e-07
-2.11625e-07
1.27445e-07
-2.39199e-07
1.33627e-07
-2.68273e-07
1.40984e-07
-2.99127e-07
1.49731e-07
-3.32098e-07
1.60147e-07
-3.67592e-07
1.726e-07
-4.06113e-07
1.87575e-07
-4.48289e-07
2.05733e-07
-4.94923e-07
2.2798e-07
-5.47056e-07
2.55598e-07
-6.0607e-07
2.90447e-07
-6.73844e-07
3.35309e-07
-7.52996e-07
3.94519e-07
-8.47285e-07
4.7513e-07
-9.62271e-07
5.8926e-07
-1.10645e-06
7.59146e-07
-1.29318e-06
1.02928e-06
-1.54093e-06
1.50065e-06
-1.8197e-06
2.4391e-06
-1.49735e-06
4.42542e-06
-8.97304e-07
5.72208e-06
-5.89075e-07
5.69158e-06
-2.52749e-07
5.50477e-06
-3.1126e-06
4.30516e-06
-6.33677e-06
2.39704e-06
-7.42565e-06
3.43626e-07
-8.4188e-06
1.11194e-08
-8.40345e-06
-2.37041e-06
-7.75156e-06
-4.83848e-06
-5.83304e-06
-8.37674e-06
-3.00381e-06
-1.11256e-05
-6.48658e-18
-1.21604e-05
3.00381e-06
-1.21604e-05
5.83304e-06
-1.11256e-05
7.75156e-06
-8.37674e-06
8.40345e-06
-4.83848e-06
8.4188e-06
-2.37041e-06
7.42565e-06
1.11194e-08
6.33677e-06
3.43626e-07
3.1126e-06
2.39704e-06
2.52749e-07
4.30516e-06
5.89075e-07
5.50477e-06
8.97304e-07
5.69158e-06
1.49735e-06
5.72208e-06
1.8197e-06
4.42542e-06
1.54093e-06
2.4391e-06
1.29318e-06
1.50065e-06
1.10645e-06
1.02928e-06
9.62271e-07
7.59146e-07
8.47285e-07
5.8926e-07
7.52996e-07
4.7513e-07
6.73844e-07
3.94519e-07
6.0607e-07
3.35309e-07
5.47056e-07
2.90447e-07
4.94923e-07
2.55598e-07
4.48289e-07
2.2798e-07
4.06113e-07
2.05733e-07
3.67592e-07
1.87575e-07
3.32098e-07
1.726e-07
2.99127e-07
1.60147e-07
2.68273e-07
1.49731e-07
2.39199e-07
1.40984e-07
2.11625e-07
1.33627e-07
1.85314e-07
1.27445e-07
1.60059e-07
1.22269e-07
1.35685e-07
1.1797e-07
1.12032e-07
1.14445e-07
8.89588e-08
1.11613e-07
6.63362e-08
1.09415e-07
4.40439e-08
1.07804e-07
2.19683e-08
1.06747e-07
1.06224e-07
-2.40328e-08
1.30257e-07
-4.8182e-08
1.30896e-07
-7.25663e-08
1.32188e-07
-9.7309e-08
1.34158e-07
-1.2254e-07
1.36845e-07
-1.484e-07
1.40305e-07
-1.75042e-07
1.44612e-07
-2.02637e-07
1.49864e-07
-2.31376e-07
1.56184e-07
-2.61479e-07
1.6373e-07
-2.93201e-07
1.72706e-07
-3.26843e-07
1.83373e-07
-3.62763e-07
1.96066e-07
-4.01392e-07
2.11229e-07
-4.43261e-07
2.29445e-07
-4.89031e-07
2.51503e-07
-5.39537e-07
2.78486e-07
-5.95852e-07
3.11913e-07
-6.59382e-07
3.53976e-07
-7.32e-07
4.07928e-07
-8.16254e-07
4.78773e-07
-9.15659e-07
5.74535e-07
-1.0351e-06
7.08705e-07
-1.18125e-06
9.05288e-07
-1.36195e-06
1.20998e-06
-1.57778e-06
1.71648e-06
-1.75808e-06
2.6194e-06
-1.48709e-06
4.15443e-06
-9.87838e-07
5.22283e-06
-6.68478e-07
5.37222e-06
-4.09152e-07
5.24544e-06
-7.3106e-07
4.62707e-06
-6.43102e-07
2.30908e-06
-2.63301e-06
2.33353e-06
-6.70588e-06
4.08399e-06
-9.48891e-06
4.12628e-07
-1.00725e-05
-4.25485e-06
-7.79419e-06
-1.06551e-05
-3.80741e-06
-1.51123e-05
3.23571e-18
-1.59678e-05
3.80741e-06
-1.59678e-05
7.79419e-06
-1.51123e-05
1.00725e-05
-1.06551e-05
9.48891e-06
-4.25485e-06
6.70588e-06
4.12628e-07
2.63301e-06
4.08399e-06
6.43102e-07
2.33353e-06
7.3106e-07
2.30908e-06
4.09152e-07
4.62707e-06
6.68478e-07
5.24544e-06
9.87838e-07
5.37222e-06
1.48709e-06
5.22283e-06
1.75808e-06
4.15443e-06
1.57778e-06
2.6194e-06
1.36195e-06
1.71648e-06
1.18125e-06
1.20998e-06
1.0351e-06
9.05288e-07
9.15659e-07
7.08705e-07
8.16254e-07
5.74535e-07
7.32e-07
4.78773e-07
6.59382e-07
4.07928e-07
5.95852e-07
3.53976e-07
5.39537e-07
3.11913e-07
4.89031e-07
2.78486e-07
4.43261e-07
2.51503e-07
4.01392e-07
2.29445e-07
3.62763e-07
2.11229e-07
3.26843e-07
1.96066e-07
2.93201e-07
1.83373e-07
2.61479e-07
1.72706e-07
2.31376e-07
1.6373e-07
2.02637e-07
1.56184e-07
1.75042e-07
1.49864e-07
1.484e-07
1.44612e-07
1.2254e-07
1.40305e-07
9.7309e-08
1.36845e-07
7.25663e-08
1.34158e-07
4.8182e-08
1.32188e-07
2.40328e-08
1.30896e-07
1.30257e-07
-2.62676e-08
1.56524e-07
-5.26611e-08
1.5729e-07
-7.93089e-08
1.58836e-07
-1.06344e-07
1.61193e-07
-1.33907e-07
1.64408e-07
-1.62149e-07
1.68547e-07
-1.91235e-07
1.73698e-07
-2.21347e-07
1.79976e-07
-2.52692e-07
1.87528e-07
-2.85504e-07
1.96542e-07
-3.20054e-07
2.07257e-07
-3.56662e-07
2.1998e-07
-3.95703e-07
2.35108e-07
-4.37633e-07
2.53158e-07
-4.83003e-07
2.74815e-07
-5.32495e-07
3.00996e-07
-5.86963e-07
3.32954e-07
-6.47487e-07
3.72437e-07
-7.15455e-07
4.21945e-07
-7.92672e-07
4.85144e-07
-8.81495e-07
5.67596e-07
-9.84993e-07
6.78033e-07
-1.10701e-06
8.30725e-07
-1.25173e-06
1.05001e-06
-1.42087e-06
1.37912e-06
-1.60049e-06
1.8961e-06
-1.70721e-06
2.72612e-06
-1.47719e-06
3.92441e-06
-1.06197e-06
4.8076e-06
-7.51464e-07
5.06172e-06
-5.37834e-07
5.03181e-06
-6.88499e-07
4.77774e-06
-6.87217e-07
2.30779e-06
-8.19185e-07
2.4655e-06
3.70418e-07
2.89439e-06
-1.46114e-06
2.24419e-06
-7.20448e-06
1.48848e-06
-1.01128e-05
-7.7468e-06
-4.49166e-06
-2.07334e-05
-5.86566e-18
-2.04594e-05
4.49166e-06
-2.04594e-05
1.01128e-05
-2.07334e-05
7.20448e-06
-7.7468e-06
1.46114e-06
1.48848e-06
-3.70418e-07
2.24419e-06
8.19185e-07
2.89439e-06
6.87217e-07
2.4655e-06
6.88499e-07
2.30779e-06
5.37834e-07
4.77774e-06
7.51464e-07
5.03181e-06
1.06197e-06
5.06172e-06
1.47719e-06
4.8076e-06
1.70721e-06
3.92441e-06
1.60049e-06
2.72612e-06
1.42087e-06
1.8961e-06
1.25173e-06
1.37912e-06
1.10701e-06
1.05001e-06
9.84993e-07
8.30725e-07
8.81495e-07
6.78033e-07
7.92672e-07
5.67596e-07
7.15455e-07
4.85144e-07
6.47487e-07
4.21945e-07
5.86963e-07
3.72437e-07
5.32495e-07
3.32954e-07
4.83003e-07
3.00996e-07
4.37633e-07
2.74815e-07
3.95703e-07
2.53158e-07
3.56662e-07
2.35108e-07
3.20054e-07
2.1998e-07
2.85504e-07
2.07257e-07
2.52692e-07
1.96542e-07
2.21347e-07
1.87528e-07
1.91235e-07
1.79976e-07
1.62149e-07
1.73698e-07
1.33907e-07
1.68547e-07
1.06344e-07
1.64408e-07
7.93089e-08
1.61193e-07
5.26611e-08
1.58836e-07
2.62676e-08
1.5729e-07
1.56524e-07
-2.86783e-08
1.85203e-07
-5.74921e-08
1.86104e-07
-8.65796e-08
1.87923e-07
-1.16084e-07
1.90697e-07
-1.46155e-07
1.94479e-07
-1.76956e-07
1.99348e-07
-2.08663e-07
2.05405e-07
-2.4147e-07
2.12784e-07
-2.75597e-07
2.21655e-07
-3.11291e-07
2.32236e-07
-3.48839e-07
2.44805e-07
-3.88574e-07
2.59715e-07
-4.30889e-07
2.77423e-07
-4.76254e-07
2.98523e-07
-5.25233e-07
3.23794e-07
-5.78517e-07
3.54279e-07
-6.36954e-07
3.91391e-07
-7.01602e-07
4.37085e-07
-7.73778e-07
4.94122e-07
-8.55136e-07
5.66501e-07
-9.4771e-07
6.60171e-07
-1.05391e-06
7.8423e-07
-1.1762e-06
9.5302e-07
-1.31591e-06
1.18971e-06
-1.46887e-06
1.53208e-06
-1.61164e-06
2.03888e-06
-1.66488e-06
2.77937e-06
-1.46719e-06
3.72672e-06
-1.12076e-06
4.46118e-06
-8.29407e-07
4.77036e-06
-6.33933e-07
4.83634e-06
-6.55645e-07
4.79945e-06
-6.15418e-07
2.26757e-06
-5.22282e-07
2.37236e-06
-1.08818e-07
2.48092e-06
-1.79283e-07
2.31465e-06
-7.78833e-07
2.08803e-06
-5.908e-06
-2.61764e-06
-3.38013e-06
-2.32613e-05
5.8818e-18
-2.38396e-05
3.38013e-06
-2.38396e-05
5.908e-06
-2.32613e-05
7.78833e-07
-2.61764e-06
1.79283e-07
2.08803e-06
1.08818e-07
2.31465e-06
5.22282e-07
2.48092e-06
6.15418e-07
2.37236e-06
6.55645e-07
2.26757e-06
6.33933e-07
4.79945e-06
8.29407e-07
4.83634e-06
1.12076e-06
4.77036e-06
1.46719e-06
4.46118e-06
1.66488e-06
3.72672e-06
1.61164e-06
2.77937e-06
1.46887e-06
2.03888e-06
1.31591e-06
1.53208e-06
1.1762e-06
1.18971e-06
1.05391e-06
9.5302e-07
9.4771e-07
7.8423e-07
8.55136e-07
6.60171e-07
7.73778e-07
5.66501e-07
7.01602e-07
4.94122e-07
6.36954e-07
4.37085e-07
5.78517e-07
3.91391e-07
5.25233e-07
3.54279e-07
4.76254e-07
3.23794e-07
4.30889e-07
2.98523e-07
3.88574e-07
2.77423e-07
3.48839e-07
2.59715e-07
3.11291e-07
2.44805e-07
2.75597e-07
2.32236e-07
2.4147e-07
2.21655e-07
2.08663e-07
2.12784e-07
1.76956e-07
2.05405e-07
1.46155e-07
1.99348e-07
1.16084e-07
1.94479e-07
8.65796e-08
1.90697e-07
5.74921e-08
1.87923e-07
2.86783e-08
1.86104e-07
1.85203e-07
-3.12672e-08
2.1647e-07
-6.26795e-08
2.17516e-07
-9.43845e-08
2.19628e-07
-1.26535e-07
2.22848e-07
-1.59292e-07
2.27236e-07
-1.92828e-07
2.32883e-07
-2.27329e-07
2.39906e-07
-2.63001e-07
2.48456e-07
-3.00076e-07
2.58729e-07
-3.38812e-07
2.70972e-07
-3.79507e-07
2.855e-07
-4.22506e-07
3.02714e-07
-4.68212e-07
3.23129e-07
-5.17099e-07
3.4741e-07
-5.69734e-07
3.76429e-07
-6.26796e-07
4.11341e-07
-6.89102e-07
4.53698e-07
-7.57645e-07
5.05627e-07
-8.33612e-07
5.70089e-07
-9.18408e-07
6.51298e-07
-1.01361e-06
7.55374e-07
-1.12077e-06
8.91386e-07
-1.24075e-06
1.073e-06
-1.37195e-06
1.32091e-06
-1.50545e-06
1.66558e-06
-1.61333e-06
2.14676e-06
-1.62861e-06
2.79464e-06
-1.45615e-06
3.55425e-06
-1.16483e-06
4.16986e-06
-8.95961e-07
4.50149e-06
-7.03003e-07
4.64338e-06
-6.31795e-07
4.72824e-06
-5.64415e-07
2.20019e-06
-4.5829e-07
2.26624e-06
-2.94816e-07
2.31745e-06
-2.89998e-07
2.30984e-06
-5.26841e-07
2.32488e-06
-1.8409e-06
-1.30358e-06
-1.54363e-06
-2.35586e-05
1.64494e-17
-2.53832e-05
1.54363e-06
-2.53832e-05
1.8409e-06
-2.35586e-05
5.26841e-07
-1.30358e-06
2.89998e-07
2.32488e-06
2.94816e-07
2.30984e-06
4.5829e-07
2.31745e-06
5.64415e-07
2.26624e-06
6.31795e-07
2.20019e-06
7.03003e-07
4.72824e-06
8.95961e-07
4.64338e-06
1.16483e-06
4.50149e-06
1.45615e-06
4.16986e-06
1.62861e-06
3.55425e-06
1.61333e-06
2.79464e-06
1.50545e-06
2.14676e-06
1.37195e-06
1.66558e-06
1.24075e-06
1.32091e-06
1.12077e-06
1.073e-06
1.01361e-06
8.91386e-07
9.18408e-07
7.55374e-07
8.33612e-07
6.51298e-07
7.57645e-07
5.70089e-07
6.89102e-07
5.05627e-07
6.26796e-07
4.53698e-07
5.69734e-07
4.11341e-07
5.17099e-07
3.76429e-07
4.68212e-07
3.4741e-07
4.22506e-07
3.23129e-07
3.79507e-07
3.02714e-07
3.38812e-07
2.855e-07
3.00076e-07
2.70972e-07
2.63001e-07
2.58729e-07
2.27329e-07
2.48456e-07
1.92828e-07
2.39906e-07
1.59292e-07
2.32883e-07
1.26535e-07
2.27236e-07
9.43845e-08
2.22848e-07
6.26795e-08
2.19628e-07
3.12672e-08
2.17516e-07
2.1647e-07
-3.40323e-08
2.50502e-07
-6.82187e-08
2.51702e-07
-1.02716e-07
2.54126e-07
-1.37686e-07
2.57818e-07
-1.73299e-07
2.6285e-07
-2.09737e-07
2.69321e-07
-2.47196e-07
2.77364e-07
-2.8589e-07
2.87151e-07
-3.2606e-07
2.98899e-07
-3.67974e-07
3.12886e-07
-4.11936e-07
3.29462e-07
-4.58296e-07
3.49074e-07
-5.07458e-07
3.7229e-07
-5.5989e-07
3.99843e-07
-6.16144e-07
4.32683e-07
-6.76863e-07
4.7206e-07
-7.42802e-07
5.19637e-07
-8.14838e-07
5.77662e-07
-8.93961e-07
6.49212e-07
-9.81234e-07
7.38571e-07
-1.07765e-06
8.51785e-07
-1.18374e-06
9.97481e-07
-1.29872e-06
1.18798e-06
-1.41836e-06
1.44055e-06
-1.53054e-06
1.77776e-06
-1.60707e-06
2.22329e-06
-1.5958e-06
2.78337e-06
-1.44276e-06
3.40121e-06
-1.19445e-06
3.92155e-06
-9.47131e-07
4.25418e-06
-7.4979e-07
4.44604e-06
-6.15822e-07
4.59427e-06
-5.35212e-07
2.11958e-06
-4.37649e-07
2.16867e-06
-3.33024e-07
2.21282e-06
-2.73825e-07
2.25064e-06
-2.58152e-07
2.3092e-06
-8.02645e-07
-7.59082e-07
-8.09436e-07
-2.35518e-05
8.56401e-18
-2.61926e-05
8.09436e-07
-2.61926e-05
8.02645e-07
-2.35518e-05
2.58152e-07
-7.59082e-07
2.73825e-07
2.3092e-06
3.33024e-07
2.25064e-06
4.37649e-07
2.21282e-06
5.35212e-07
2.16867e-06
6.15822e-07
2.11958e-06
7.4979e-07
4.59427e-06
9.47131e-07
4.44604e-06
1.19445e-06
4.25418e-06
1.44276e-06
3.92155e-06
1.5958e-06
3.40121e-06
1.60707e-06
2.78337e-06
1.53054e-06
2.22329e-06
1.41836e-06
1.77776e-06
1.29872e-06
1.44055e-06
1.18374e-06
1.18798e-06
1.07765e-06
9.97481e-07
9.81234e-07
8.51785e-07
8.93961e-07
7.38571e-07
8.14838e-07
6.49212e-07
7.42802e-07
5.77662e-07
6.76863e-07
5.19637e-07
6.16144e-07
4.7206e-07
5.5989e-07
4.32683e-07
5.07458e-07
3.99843e-07
4.58296e-07
3.7229e-07
4.11936e-07
3.49074e-07
3.67974e-07
3.29462e-07
3.2606e-07
3.12886e-07
2.8589e-07
2.98899e-07
2.47196e-07
2.87151e-07
2.09737e-07
2.77364e-07
1.73299e-07
2.69321e-07
1.37686e-07
2.6285e-07
1.02716e-07
2.57818e-07
6.82187e-08
2.54126e-07
3.40323e-08
2.51702e-07
2.50502e-07
-3.69653e-08
2.87467e-07
-7.40929e-08
2.8883e-07
-1.11548e-07
2.9158e-07
-1.49499e-07
2.9577e-07
-1.88127e-07
3.01477e-07
-2.27618e-07
3.08813e-07
-2.68178e-07
3.17924e-07
-3.10027e-07
3.29e-07
-3.53411e-07
3.42283e-07
-3.98602e-07
3.58077e-07
-4.45905e-07
3.76766e-07
-4.95667e-07
3.98836e-07
-5.4828e-07
4.24904e-07
-6.04194e-07
4.55757e-07
-6.63922e-07
4.92411e-07
-7.28046e-07
5.36184e-07
-7.97219e-07
5.8881e-07
-8.72149e-07
6.52592e-07
-9.5356e-07
7.30623e-07
-1.04209e-06
8.27097e-07
-1.13803e-06
9.47733e-07
-1.24088e-06
1.10033e-06
-1.34827e-06
1.29536e-06
-1.45395e-06
1.54623e-06
-1.54432e-06
1.86814e-06
-1.59371e-06
2.27268e-06
-1.56392e-06
2.75359e-06
-1.42547e-06
3.26276e-06
-1.20975e-06
3.70583e-06
-9.80955e-07
4.02538e-06
-7.77667e-07
4.24275e-06
-6.02441e-07
4.41905e-06
-5.12049e-07
2.02919e-06
-4.12594e-07
2.06922e-06
-3.07516e-07
2.10775e-06
-2.02723e-07
2.14584e-06
-8.10071e-08
2.18749e-06
-3.55209e-07
-4.8488e-07
-5.06051e-07
-2.34009e-05
6.64012e-18
-2.66987e-05
5.06051e-07
-2.66987e-05
3.55209e-07
-2.34009e-05
8.10071e-08
-4.8488e-07
2.02723e-07
2.18749e-06
3.07516e-07
2.14584e-06
4.12594e-07
2.10775e-06
5.12049e-07
2.06922e-06
6.02441e-07
2.02919e-06
7.77667e-07
4.41905e-06
9.80955e-07
4.24275e-06
1.20975e-06
4.02538e-06
1.42547e-06
3.70583e-06
1.56392e-06
3.26276e-06
1.59371e-06
2.75359e-06
1.54432e-06
2.27268e-06
1.45395e-06
1.86814e-06
1.34827e-06
1.54623e-06
1.24088e-06
1.29536e-06
1.13803e-06
1.10033e-06
1.04209e-06
9.47733e-07
9.5356e-07
8.27097e-07
8.72149e-07
7.30623e-07
7.97219e-07
6.52592e-07
7.28046e-07
5.8881e-07
6.63922e-07
5.36184e-07
6.04194e-07
4.92411e-07
5.4828e-07
4.55757e-07
4.95667e-07
4.24904e-07
4.45905e-07
3.98836e-07
3.98602e-07
3.76766e-07
3.53411e-07
3.58077e-07
3.10027e-07
3.42283e-07
2.68178e-07
3.29e-07
2.27618e-07
3.17924e-07
1.88127e-07
3.08813e-07
1.49499e-07
3.01477e-07
1.11548e-07
2.9577e-07
7.40929e-08
2.9158e-07
3.69653e-08
2.8883e-07
2.87467e-07
-4.00499e-08
3.27517e-07
-8.02687e-08
3.29049e-07
-1.20828e-07
3.32139e-07
-1.61903e-07
3.36845e-07
-2.0368e-07
3.43253e-07
-2.4635e-07
3.51484e-07
-2.90124e-07
3.61698e-07
-3.35225e-07
3.74101e-07
-3.81898e-07
3.88956e-07
-4.30414e-07
4.06592e-07
-4.8107e-07
4.27422e-07
-5.34198e-07
4.51964e-07
-5.90169e-07
4.80874e-07
-6.49392e-07
5.1498e-07
-7.1232e-07
5.55338e-07
-7.79439e-07
6.03304e-07
-8.5126e-07
6.60631e-07
-9.28274e-07
7.29606e-07
-1.01087e-06
8.13224e-07
-1.0992e-06
9.15424e-07
-1.19284e-06
1.04137e-06
-1.29025e-06
1.19774e-06
-1.38776e-06
1.39288e-06
-1.4779e-06
1.63637e-06
-1.54703e-06
1.93726e-06
-1.57348e-06
2.29912e-06
-1.53055e-06
2.71067e-06
-1.40269e-06
3.13489e-06
-1.21091e-06
3.51406e-06
-9.97044e-07
3.81151e-06
-7.88979e-07
4.03468e-06
-5.8709e-07
4.21716e-06
-4.88071e-07
1.93017e-06
-3.81758e-07
1.96291e-06
-2.67289e-07
1.99328e-06
-1.42186e-07
2.02074e-06
1.95181e-09
2.04335e-06
-1.24239e-07
-3.58689e-07
-3.49598e-07
-2.31756e-05
1.12085e-17
-2.70483e-05
3.49598e-07
-2.70483e-05
1.24239e-07
-2.31756e-05
-1.95181e-09
-3.58689e-07
1.42186e-07
2.04335e-06
2.67289e-07
2.02074e-06
3.81758e-07
1.99328e-06
4.88071e-07
1.96291e-06
5.8709e-07
1.93017e-06
7.88979e-07
4.21716e-06
9.97044e-07
4.03468e-06
1.21091e-06
3.81151e-06
1.40269e-06
3.51406e-06
1.53055e-06
3.13489e-06
1.57348e-06
2.71067e-06
1.54703e-06
2.29912e-06
1.4779e-06
1.93726e-06
1.38776e-06
1.63637e-06
1.29025e-06
1.39288e-06
1.19284e-06
1.19774e-06
1.0992e-06
1.04137e-06
1.01087e-06
9.15424e-07
9.28274e-07
8.13224e-07
8.5126e-07
7.29606e-07
7.79439e-07
6.60631e-07
7.1232e-07
6.03304e-07
6.49392e-07
5.55338e-07
5.90169e-07
5.1498e-07
5.34198e-07
4.80874e-07
4.8107e-07
4.51964e-07
4.30414e-07
4.27422e-07
3.81898e-07
4.06592e-07
3.35225e-07
3.88956e-07
2.90124e-07
3.74101e-07
2.4635e-07
3.61698e-07
2.0368e-07
3.51484e-07
1.61903e-07
3.43253e-07
1.20828e-07
3.36845e-07
8.02687e-08
3.32139e-07
4.00499e-08
3.29049e-07
3.27517e-07
-4.3259e-08
3.70776e-07
-8.66913e-08
3.72481e-07
-1.30472e-07
3.7592e-07
-1.74782e-07
3.81155e-07
-2.19807e-07
3.88278e-07
-2.65744e-07
3.9742e-07
-3.128e-07
4.08754e-07
-3.61197e-07
4.22499e-07
-4.11175e-07
4.38935e-07
-4.62994e-07
4.5841e-07
-5.16933e-07
4.81361e-07
-5.73299e-07
5.0833e-07
-6.32421e-07
5.39996e-07
-6.94648e-07
5.77208e-07
-7.60347e-07
6.21036e-07
-8.29878e-07
6.72835e-07
-9.03568e-07
7.34321e-07
-9.81644e-07
8.07683e-07
-1.06413e-06
8.95709e-07
-1.15064e-06
1.00194e-06
-1.24006e-06
1.13079e-06
-1.32998e-06
1.28766e-06
-1.41582e-06
1.47871e-06
-1.48962e-06
1.71018e-06
-1.53882e-06
1.98646e-06
-1.54614e-06
2.30644e-06
-1.49352e-06
2.65805e-06
-1.37295e-06
3.01432e-06
-1.19828e-06
3.33939e-06
-9.9614e-07
3.60937e-06
-7.85698e-07
3.82424e-06
-5.67932e-07
3.99939e-06
-4.62958e-07
1.82519e-06
-3.51593e-07
1.85154e-06
-2.32459e-07
1.87414e-06
-1.03491e-07
1.89177e-06
3.83967e-08
1.90146e-06
-1.81017e-08
-3.02191e-07
-2.78461e-07
-2.29152e-05
4.55734e-18
-2.73267e-05
2.78461e-07
-2.73267e-05
1.81017e-08
-2.29152e-05
-3.83967e-08
-3.02191e-07
1.03491e-07
1.90146e-06
2.32459e-07
1.89177e-06
3.51593e-07
1.87414e-06
4.62958e-07
1.85154e-06
5.67932e-07
1.82519e-06
7.85698e-07
3.99939e-06
9.9614e-07
3.82424e-06
1.19828e-06
3.60937e-06
1.37295e-06
3.33939e-06
1.49352e-06
3.01432e-06
1.54614e-06
2.65805e-06
1.53882e-06
2.30644e-06
1.48962e-06
1.98646e-06
1.41582e-06
1.71018e-06
1.32998e-06
1.47871e-06
1.24006e-06
1.28766e-06
1.15064e-06
1.13079e-06
1.06413e-06
1.00194e-06
9.81644e-07
8.95709e-07
9.03568e-07
8.07683e-07
8.29878e-07
7.34321e-07
7.60347e-07
6.72835e-07
6.94648e-07
6.21036e-07
6.32421e-07
5.77208e-07
5.73299e-07
5.39996e-07
5.16933e-07
5.0833e-07
4.62994e-07
4.81361e-07
4.11175e-07
4.5841e-07
3.61197e-07
4.38935e-07
3.128e-07
4.22499e-07
2.65744e-07
4.08754e-07
2.19807e-07
3.9742e-07
1.74782e-07
3.88278e-07
1.30472e-07
3.81155e-07
8.66913e-08
3.7592e-07
4.3259e-08
3.72481e-07
3.70776e-07
-4.65521e-08
4.17328e-07
-9.32786e-08
4.19208e-07
-1.40356e-07
4.22998e-07
-1.87964e-07
4.28763e-07
-2.36288e-07
4.36602e-07
-2.85521e-07
4.46654e-07
-3.35866e-07
4.59099e-07
-3.87537e-07
4.74169e-07
-4.40757e-07
4.92156e-07
-4.95768e-07
5.13421e-07
-5.52819e-07
5.38413e-07
-6.12176e-07
5.67687e-07
-6.74109e-07
6.01928e-07
-7.38886e-07
6.41985e-07
-8.06759e-07
6.8891e-07
-8.77934e-07
7.44009e-07
-9.52521e-07
8.08907e-07
-1.03045e-06
8.85617e-07
-1.11137e-06
9.76621e-07
-1.19437e-06
1.08494e-06
-1.27773e-06
1.21415e-06
-1.3584e-06
1.36832e-06
-1.43132e-06
1.55164e-06
-1.48873e-06
1.7676e-06
-1.51975e-06
2.01747e-06
-1.51116e-06
2.29785e-06
-1.451e-06
2.59789e-06
-1.33513e-06
2.89845e-06
-1.17249e-06
3.17675e-06
-9.79726e-07
3.4166e-06
-7.69771e-07
3.61429e-06
-5.44892e-07
3.77451e-06
-4.37711e-07
1.71801e-06
-3.25541e-07
1.73937e-06
-2.08083e-07
1.75668e-06
-8.55446e-08
1.76923e-06
4.03915e-08
1.77553e-06
1.16036e-08
-2.73403e-07
-2.48441e-07
-2.26552e-05
3.96431e-18
-2.75752e-05
2.48441e-07
-2.75752e-05
-1.16036e-08
-2.26552e-05
-4.03915e-08
-2.73403e-07
8.55446e-08
1.77553e-06
2.08083e-07
1.76923e-06
3.25541e-07
1.75668e-06
4.37711e-07
1.73937e-06
5.44892e-07
1.71801e-06
7.69771e-07
3.77451e-06
9.79726e-07
3.61429e-06
1.17249e-06
3.4166e-06
1.33513e-06
3.17675e-06
1.451e-06
2.89845e-06
1.51116e-06
2.59789e-06
1.51975e-06
2.29785e-06
1.48873e-06
2.01747e-06
1.43132e-06
1.7676e-06
1.3584e-06
1.55164e-06
1.27773e-06
1.36832e-06
1.19437e-06
1.21415e-06
1.11137e-06
1.08494e-06
1.03045e-06
9.76621e-07
9.52521e-07
8.85617e-07
8.77934e-07
8.08907e-07
8.06759e-07
7.44009e-07
7.38886e-07
6.8891e-07
6.74109e-07
6.41985e-07
6.12176e-07
6.01928e-07
5.52819e-07
5.67687e-07
4.95768e-07
5.38413e-07
4.40757e-07
5.13421e-07
3.87537e-07
4.92156e-07
3.35866e-07
4.74169e-07
2.85521e-07
4.59099e-07
2.36288e-07
4.46654e-07
1.87964e-07
4.36602e-07
1.40356e-07
4.28763e-07
9.32786e-08
4.22998e-07
4.65521e-08
4.19208e-07
4.17328e-07
-4.9872e-08
4.672e-07
-9.99154e-08
4.69251e-07
-1.50303e-07
4.73385e-07
-2.01209e-07
4.79669e-07
-2.52815e-07
4.88207e-07
-3.05303e-07
4.99142e-07
-3.58864e-07
5.1266e-07
-4.13694e-07
5.28999e-07
-4.69996e-07