/*--------------------------------*- C++ -*----------------------------------*\
  =========                 |
  \\      /  F ield         | OpenFOAM: The Open Source CFD Toolbox
   \\    /   O peration     | Website:  https://openfoam.org
    \\  /    A nd           | Version:  10
     \\/     M anipulation  |
\*---------------------------------------------------------------------------*/
FoamFile
{
    format      ascii;
    class       volScalarField;
    location    "18300";
    object      p;
}
// * * * * * * * * * * * * * * * * * * * * * * * * * * * * * * * * * * * * * //

dimensions      [1 -1 -2 0 0 0 0];

internalField   nonuniform List<scalar> 
6400
(
111.786
111.814
111.873
111.966
112.096
112.276
112.525
113.009
266.262
423.271
655.06
880.258
1080.09
1275.09
1465.49
1653.15
1837.08
2017.88
2192.78
2364.97
2536.97
2707.73
2877.48
3047.03
3215.47
3382.43
3547.4
3709.36
3868.84
4026.2
4180.8
4330.5
4431.89
4491.12
4546.09
4595.48
4637.8
4671.45
4694.91
4706.97
4706.97
4694.91
4671.45
4637.8
4595.48
4546.09
4491.12
4431.89
4330.5
4180.8
4026.2
3868.84
3709.36
3547.4
3382.43
3215.47
3047.03
2877.48
2707.73
2536.97
2364.97
2192.78
2017.88
1837.08
1653.15
1465.49
1275.09
1080.09
880.258
655.06
423.271
266.262
113.009
112.525
112.276
112.096
111.966
111.873
111.814
111.786
111.49
111.519
111.578
111.67
111.8
111.979
112.227
112.628
112.865
125.726
361.217
587.342
786.254
981.264
1171.59
1359.3
1543.21
1724.13
1898.89
2070.98
2243.03
2413.77
2583.49
2753.08
2921.54
3088.52
3253.54
3415.48
3574.94
3732.33
3887.02
4036.92
4138.61
4198.08
4253.34
4303.08
4345.76
4379.74
4403.47
4415.68
4415.68
4403.47
4379.74
4345.76
4303.08
4253.34
4198.08
4138.61
4036.92
3887.02
3732.33
3574.94
3415.48
3253.54
3088.52
2921.54
2753.08
2583.49
2413.77
2243.03
2070.98
1898.89
1724.13
1543.21
1359.3
1171.59
981.264
786.254
587.342
361.217
125.726
112.865
112.628
112.227
111.979
111.8
111.67
111.578
111.519
111.49
111.165
111.194
111.252
111.344
111.473
111.65
111.892
112.248
112.518
113.129
113.124
268.011
464.087
659.173
849.314
1037.17
1221.01
1402.25
1576.67
1748.5
1920.67
2091.4
2261.03
2430.72
2599.22
2766.26
2931.38
3093.27
3252.69
3410.14
3565.06
3715.4
3817.79
3877.8
3933.76
3984.28
4027.79
4062.57
4086.94
4099.51
4099.51
4086.94
4062.57
4027.79
3984.28
3933.76
3877.8
3817.79
3715.4
3565.06
3410.14
3252.69
3093.27
2931.38
2766.26
2599.22
2430.72
2261.03
2091.4
1920.67
1748.5
1576.67
1402.25
1221.01
1037.17
849.314
659.173
464.087
268.011
113.124
113.129
112.518
112.248
111.892
111.65
111.473
111.344
111.252
111.194
111.165
110.806
110.835
110.893
110.983
111.111
111.284
111.518
111.836
112.116
112.587
112.574
112.462
113.106
306.162
495.898
684.04
867.733
1049.62
1223.4
1394.75
1567.18
1737.86
1907.33
2077.21
2245.78
2412.9
2578.24
2740.01
2899.36
3056.92
3212.22
3363.3
3466.88
3527.86
3585.02
3636.93
3681.93
3718.13
3743.65
3756.88
3756.88
3743.65
3718.13
3681.93
3636.93
3585.02
3527.86
3466.88
3363.3
3212.22
3056.92
2899.36
2740.01
2578.24
2412.9
2245.78
2077.21
1907.33
1737.86
1567.18
1394.75
1223.4
1049.62
867.733
684.04
495.898
306.162
113.106
112.462
112.574
112.587
112.116
111.836
111.518
111.284
111.111
110.983
110.893
110.835
110.806
110.411
110.439
110.496
110.585
110.71
110.879
111.102
111.387
111.661
112.029
112.066
112.024
112.221
112.058
112.632
297.086
480.323
663.455
836.06
1006.63
1179.57
1350.16
1519.32
1689.56
1858.21
2025.46
2191.17
2352.74
2511.96
2669.68
2825.54
2977.72
3083.1
3145.57
3204.6
3258.72
3306.09
3344.61
3372.03
3386.33
3386.33
3372.03
3344.61
3306.09
3258.72
3204.6
3145.57
3083.1
2977.72
2825.54
2669.68
2511.96
2352.74
2191.17
2025.46
1858.21
1689.56
1519.32
1350.16
1179.57
1006.63
836.06
663.455
480.323
297.086
112.632
112.058
112.221
112.024
112.066
112.029
111.661
111.387
111.102
110.879
110.71
110.585
110.496
110.439
110.411
109.975
110.002
110.058
110.146
110.267
110.429
110.639
110.896
111.154
111.446
111.518
111.522
111.651
111.578
111.734
111.528
111.696
242.011
411.375
580.618
754.594
925.015
1093.62
1264.49
1433.23
1600.64
1766.99
1928.18
2087.18
2245.11
2401.77
2555.42
2663.32
2727.94
2789.75
2847.15
2898.13
2940.27
2970.74
2986.8
2986.8
2970.74
2940.27
2898.13
2847.15
2789.75
2727.94
2663.32
2555.42
2401.77
2245.11
2087.18
1928.18
1766.99
1600.64
1433.23
1264.49
1093.62
925.015
754.594
580.618
411.375
242.011
111.696
111.528
111.734
111.578
111.651
111.522
111.518
111.446
111.154
110.896
110.639
110.429
110.267
110.146
110.058
110.002
109.975
109.493
109.52
109.575
109.659
109.777
109.931
110.126
110.358
110.593
110.832
110.923
110.958
111.048
111.027
111.112
110.999
111.051
110.94
110.918
112.435
288.882
458.843
626.373
798.469
967.221
1134.78
1302.32
1462.75
1621.39
1779.58
1937.33
2092.73
2203.95
2271.55
2337.33
2399.49
2455.85
2503.59
2538.96
2557.92
2557.92
2538.96
2503.59
2455.85
2399.49
2337.33
2271.55
2203.95
2092.73
1937.33
1779.58
1621.39
1462.75
1302.32
1134.78
967.221
798.469
626.373
458.843
288.882
112.435
110.918
110.94
111.051
110.999
111.112
111.027
111.048
110.958
110.923
110.832
110.593
110.358
110.126
109.931
109.777
109.659
109.575
109.52
109.493
108.961
108.987
109.04
109.122
109.234
109.379
109.559
109.767
109.978
110.177
110.278
110.332
110.401
110.408
110.456
110.398
110.414
110.35
110.354
110.565
110.273
110.257
112.873
287.838
456.227
623.789
793.643
952.485
1110.55
1269.03
1428.24
1585.48
1700.78
1772.32
1843.74
1912.66
1976.85
2033.36
2076.89
2100.75
2100.75
2076.89
2033.36
1976.85
1912.66
1843.74
1772.32
1700.78
1585.48
1428.24
1269.03
1110.55
952.485
793.643
623.789
456.227
287.838
112.873
110.257
110.273
110.565
110.354
110.35
110.414
110.398
110.456
110.408
110.401
110.332
110.278
110.177
109.978
109.767
109.559
109.379
109.234
109.122
109.04
108.987
108.961
108.374
108.399
108.45
108.528
108.633
108.769
108.933
109.118
109.305
109.475
109.578
109.642
109.702
109.724
109.753
109.726
109.727
109.693
109.702
109.801
109.645
109.634
109.816
109.464
109.378
109.833
239.453
393.097
550.2
708.942
870.232
1028.8
1148.54
1225.06
1304.65
1382.87
1458.16
1528.67
1586.7
1619.4
1619.4
1586.7
1528.67
1458.16
1382.87
1304.65
1225.06
1148.54
1028.8
870.232
708.942
550.2
393.097
239.453
109.833
109.378
109.464
109.816
109.634
109.645
109.801
109.702
109.693
109.727
109.726
109.753
109.724
109.702
109.642
109.578
109.475
109.305
109.118
108.933
108.769
108.633
108.528
108.45
108.399
108.374
107.725
107.749
107.797
107.87
107.969
108.094
108.242
108.405
108.57
108.717
108.818
108.887
108.942
108.971
108.993
108.984
108.981
108.964
108.971
109.011
108.929
108.914
108.974
108.774
108.697
108.747
108.502
108.391
108.434
110.836
259.861
417.293
540.618
622.558
715.727
805.637
894.841
988.289
1074.87
1124.62
1124.62
1074.87
988.289
894.841
805.637
715.727
622.558
540.618
417.293
259.861
110.836
108.434
108.391
108.502
108.747
108.697
108.774
108.974
108.914
108.929
109.011
108.971
108.964
108.981
108.984
108.993
108.971
108.942
108.887
108.818
108.717
108.57
108.405
108.242
108.094
107.969
107.87
107.797
107.749
107.725
107.008
107.03
107.075
107.143
107.234
107.348
107.48
107.624
107.767
107.896
107.992
108.062
108.114
108.147
108.167
108.168
108.166
108.158
108.161
108.173
108.127
108.108
108.11
107.99
107.92
107.9
107.751
107.667
107.689
107.827
107.537
107.434
107.478
107.584
128.508
189.142
281.344
411.278
561.203
643.939
643.939
561.203
411.278
281.344
189.142
128.508
107.584
107.478
107.434
107.537
107.827
107.689
107.667
107.751
107.9
107.92
107.99
108.11
108.108
108.127
108.173
108.161
108.158
108.166
108.168
108.167
108.147
108.114
108.062
107.992
107.896
107.767
107.624
107.48
107.348
107.234
107.143
107.075
107.03
107.008
106.215
106.236
106.277
106.34
106.423
106.524
106.641
106.767
106.892
107.004
107.094
107.161
107.212
107.246
107.267
107.273
107.274
107.271
107.271
107.269
107.241
107.218
107.196
107.117
107.053
107.007
106.908
106.844
106.841
106.871
106.718
106.635
106.639
106.644
106.61
106.571
106.569
107.892
163.4
257.713
257.713
163.4
107.892
106.569
106.571
106.61
106.644
106.639
106.635
106.718
106.871
106.841
106.844
106.908
107.007
107.053
107.117
107.196
107.218
107.241
107.269
107.271
107.271
107.274
107.273
107.267
107.246
107.212
107.161
107.094
107.004
106.892
106.767
106.641
106.524
106.423
106.34
106.277
106.236
106.215
105.338
105.357
105.395
105.452
105.526
105.616
105.718
105.828
105.935
106.034
106.115
106.179
106.228
106.262
106.284
106.294
106.298
106.297
106.295
106.288
106.266
106.242
106.211
106.153
106.097
106.045
105.973
105.92
105.899
105.885
105.795
105.731
105.715
105.706
105.69
105.675
105.671
105.698
106.476
125.265
125.265
106.476
105.698
105.671
105.675
105.69
105.706
105.715
105.731
105.795
105.885
105.899
105.92
105.973
106.045
106.097
106.153
106.211
106.242
106.266
106.288
106.295
106.297
106.298
106.294
106.284
106.262
106.228
106.179
106.115
106.034
105.935
105.828
105.718
105.616
105.526
105.452
105.395
105.357
105.338
104.369
104.386
104.42
104.471
104.536
104.615
104.704
104.798
104.89
104.976
105.049
105.108
105.154
105.188
105.21
105.223
105.229
105.229
105.226
105.217
105.198
105.174
105.142
105.096
105.047
104.997
104.941
104.894
104.863
104.832
104.773
104.723
104.701
104.689
104.678
104.669
104.664
104.664
104.71
109.55
109.55
104.71
104.664
104.664
104.669
104.678
104.689
104.701
104.723
104.773
104.832
104.863
104.894
104.941
104.997
105.047
105.096
105.142
105.174
105.198
105.217
105.226
105.229
105.229
105.223
105.21
105.188
105.154
105.108
105.049
104.976
104.89
104.798
104.704
104.615
104.536
104.471
104.42
104.386
104.369
103.298
103.313
103.343
103.387
103.444
103.512
103.588
103.668
103.748
103.821
103.886
103.94
103.983
104.015
104.038
104.051
104.058
104.059
104.056
104.046
104.03
104.007
103.977
103.938
103.895
103.85
103.804
103.762
103.727
103.692
103.647
103.606
103.585
103.574
103.564
103.555
103.549
103.544
103.534
106.062
106.062
103.534
103.544
103.549
103.555
103.564
103.574
103.585
103.606
103.647
103.692
103.727
103.762
103.804
103.85
103.895
103.938
103.977
104.007
104.03
104.046
104.056
104.059
104.058
104.051
104.038
104.015
103.983
103.94
103.886
103.821
103.748
103.668
103.588
103.512
103.444
103.387
103.343
103.313
103.298
102.114
102.127
102.153
102.191
102.24
102.298
102.363
102.43
102.497
102.561
102.617
102.665
102.704
102.734
102.756
102.77
102.778
102.78
102.776
102.767
102.752
102.731
102.703
102.67
102.633
102.593
102.553
102.516
102.481
102.447
102.41
102.376
102.356
102.346
102.336
102.328
102.322
102.316
102.304
104.309
104.309
102.304
102.316
102.322
102.328
102.336
102.346
102.356
102.376
102.41
102.447
102.481
102.516
102.553
102.593
102.633
102.67
102.703
102.731
102.752
102.767
102.776
102.78
102.778
102.77
102.756
102.734
102.704
102.665
102.617
102.561
102.497
102.43
102.363
102.298
102.24
102.191
102.153
102.127
102.114
100.724
100.735
100.757
100.789
100.829
100.877
100.931
100.986
101.042
101.095
101.143
101.185
101.219
101.247
101.267
101.281
101.288
101.291
101.287
101.279
101.265
101.246
101.222
101.194
101.162
101.128
101.094
101.06
101.027
100.996
100.964
100.936
100.918
100.908
100.9
100.892
100.885
100.88
100.867
102.794
102.794
100.867
100.88
100.885
100.892
100.9
100.908
100.918
100.936
100.964
100.996
101.027
101.06
101.094
101.128
101.162
101.194
101.222
101.246
101.265
101.279
101.287
101.291
101.288
101.281
101.267
101.247
101.219
101.185
101.143
101.095
101.042
100.986
100.931
100.877
100.829
100.789
100.757
100.735
100.724
99.1793
99.1884
99.2064
99.2325
99.2658
99.3049
99.3481
99.3936
99.4391
99.4828
99.5231
99.5586
99.5887
99.6129
99.6312
99.6439
99.6511
99.6533
99.6506
99.6431
99.6309
99.6143
99.5935
99.569
99.5416
99.5125
99.4825
99.4527
99.4234
99.3949
99.3676
99.3425
99.3268
99.3178
99.3096
99.3022
99.2956
99.2898
99.2777
101.24
101.24
99.2777
99.2898
99.2956
99.3022
99.3096
99.3178
99.3268
99.3425
99.3676
99.3949
99.4234
99.4527
99.4825
99.5125
99.5416
99.569
99.5935
99.6143
99.6309
99.6431
99.6506
99.6533
99.6511
99.6439
99.6312
99.6129
99.5887
99.5586
99.5231
99.4828
99.4391
99.3936
99.3481
99.3049
99.2658
99.2325
99.2064
99.1884
99.1793
97.6254
97.633
97.6477
97.6691
97.6963
97.7283
97.7636
97.8007
97.8381
97.8743
97.908
97.938
97.9638
97.9848
98.001
98.0123
98.0189
98.0209
98.0185
98.0118
98.001
97.9864
97.9681
97.9468
97.9231
97.8977
97.8714
97.8448
97.8185
97.793
97.7686
97.7461
97.7316
97.7233
97.7155
97.7084
97.7019
97.6961
97.6839
99.7049
99.7049
97.6839
97.6961
97.7019
97.7084
97.7155
97.7233
97.7316
97.7461
97.7686
97.793
97.8185
97.8448
97.8714
97.8977
97.9231
97.9468
97.9681
97.9864
98.001
98.0118
98.0185
98.0209
98.0189
98.0123
98.001
97.9848
97.9638
97.938
97.908
97.8743
97.8381
97.8007
97.7636
97.7283
97.6963
97.6691
97.6477
97.633
97.6254
96.0641
96.0703
96.0823
96.0999
96.1221
96.1483
96.1771
96.2076
96.2384
96.2683
96.2964
96.3217
96.3436
96.3616
96.3756
96.3855
96.3912
96.3929
96.3907
96.3847
96.375
96.362
96.3459
96.3271
96.3063
96.2838
96.2604
96.2366
96.213
96.1898
96.1677
96.1471
96.1336
96.1257
96.1183
96.1114
96.105
96.0991
96.0868
98.1737
98.1737
96.0868
96.0991
96.105
96.1114
96.1183
96.1257
96.1336
96.1471
96.1677
96.1898
96.213
96.2366
96.2604
96.2838
96.3063
96.3271
96.3459
96.362
96.375
96.3847
96.3907
96.3929
96.3912
96.3855
96.3756
96.3616
96.3436
96.3217
96.2964
96.2683
96.2384
96.2076
96.1771
96.1483
96.1221
96.0999
96.0823
96.0703
96.0641
94.4966
94.5017
94.5115
94.5259
94.5441
94.5655
94.5891
94.6141
94.6395
94.6643
94.6876
94.7088
94.7272
94.7425
94.7544
94.7628
94.7676
94.7689
94.7667
94.7611
94.7524
94.7407
94.7263
94.7096
94.691
94.6709
94.6499
94.6284
94.6069
94.5857
94.5653
94.5461
94.5333
94.5258
94.5186
94.5119
94.5055
94.4995
94.4872
96.646
96.646
94.4872
94.4995
94.5055
94.5119
94.5186
94.5258
94.5333
94.5461
94.5653
94.5857
94.6069
94.6284
94.6499
94.6709
94.691
94.7096
94.7263
94.7407
94.7524
94.7611
94.7667
94.7689
94.7676
94.7628
94.7544
94.7425
94.7272
94.7088
94.6876
94.6643
94.6395
94.6141
94.5891
94.5655
94.5441
94.5259
94.5115
94.5017
94.4966
92.9241
92.9282
92.9363
92.948
92.9629
92.9804
92.9998
93.0203
93.0412
93.0616
93.081
93.0986
93.114
93.1268
93.1367
93.1437
93.1475
93.1483
93.146
93.1408
93.1327
93.1221
93.109
93.0939
93.0771
93.0589
93.0398
93.0202
93.0004
92.9808
92.9617
92.9436
92.9313
92.9241
92.9171
92.9104
92.904
92.8979
92.8855
95.1227
95.1227
92.8855
92.8979
92.904
92.9104
92.9171
92.9241
92.9313
92.9436
92.9617
92.9808
93.0004
93.0202
93.0398
93.0589
93.0771
93.0939
93.109
93.1221
93.1327
93.1408
93.146
93.1483
93.1475
93.1437
93.1367
93.1268
93.114
93.0986
93.081
93.0616
93.0412
93.0203
92.9998
92.9804
92.9629
92.948
92.9363
92.9282
92.9241
91.3474
91.3508
91.3574
91.367
91.3792
91.3935
91.4094
91.4262
91.4433
91.4601
91.4761
91.4906
91.5033
91.5139
91.5221
91.5277
91.5306
91.5308
91.5283
91.5233
91.5157
91.5058
91.4938
91.48
91.4646
91.4479
91.4303
91.4121
91.3937
91.3753
91.3573
91.3399
91.328
91.3209
91.314
91.3073
91.3009
91.2947
91.2822
93.6052
93.6052
91.2822
91.2947
91.3009
91.3073
91.314
91.3209
91.328
91.3399
91.3573
91.3753
91.3937
91.4121
91.4303
91.4479
91.4646
91.48
91.4938
91.5058
91.5157
91.5233
91.5283
91.5308
91.5306
91.5277
91.5221
91.5139
91.5033
91.4906
91.4761
91.4601
91.4433
91.4262
91.4094
91.3935
91.3792
91.367
91.3574
91.3508
91.3474
89.7674
89.7701
89.7755
89.7833
89.7933
89.805
89.818
89.8317
89.8457
89.8595
89.8726
89.8845
89.8949
89.9034
89.91
89.9143
89.9163
89.9159
89.9132
89.9082
89.901
89.8917
89.8805
89.8676
89.8533
89.8378
89.8213
89.8043
89.7869
89.7695
89.7522
89.7354
89.7237
89.7166
89.7098
89.7031
89.6965
89.6902
89.6777
92.095
92.095
89.6777
89.6902
89.6965
89.7031
89.7098
89.7166
89.7237
89.7354
89.7522
89.7695
89.7869
89.8043
89.8213
89.8378
89.8533
89.8676
89.8805
89.8917
89.901
89.9082
89.9132
89.9159
89.9163
89.9143
89.91
89.9034
89.8949
89.8845
89.8726
89.8595
89.8457
89.8317
89.818
89.805
89.7933
89.7833
89.7755
89.7701
89.7674
88.1846
88.1868
88.1912
88.1976
88.2057
88.2152
88.2258
88.237
88.2484
88.2596
88.2702
88.2798
88.2882
88.295
88.3001
88.3032
88.3044
88.3034
88.3004
88.2954
88.2883
88.2795
88.2689
88.2567
88.2432
88.2286
88.213
88.1968
88.1802
88.1634
88.1467
88.1302
88.1186
88.1115
88.1046
88.0979
88.0912
88.0848
88.0722
90.5938
90.5938
88.0722
88.0848
88.0912
88.0979
88.1046
88.1115
88.1186
88.1302
88.1467
88.1634
88.1802
88.1968
88.213
88.2286
88.2432
88.2567
88.2689
88.2795
88.2883
88.2954
88.3004
88.3034
88.3044
88.3032
88.3001
88.295
88.2882
88.2798
88.2702
88.2596
88.2484
88.237
88.2258
88.2152
88.2057
88.1976
88.1912
88.1868
88.1846
86.5995
86.6014
86.6049
86.6101
86.6167
86.6244
86.6329
86.642
86.6512
86.6603
86.6688
86.6765
86.6831
86.6883
86.6921
86.6942
86.6945
86.693
86.6897
86.6845
86.6776
86.6689
86.6588
86.6471
86.6342
86.6203
86.6054
86.5898
86.5737
86.5573
86.5409
86.5245
86.5129
86.5058
86.4989
86.492
86.4852
86.4785
86.4658
89.1034
89.1034
86.4658
86.4785
86.4852
86.492
86.4989
86.5058
86.5129
86.5245
86.5409
86.5573
86.5737
86.5898
86.6054
86.6203
86.6342
86.6471
86.6588
86.6689
86.6776
86.6845
86.6897
86.693
86.6945
86.6942
86.6921
86.6883
86.6831
86.6765
86.6688
86.6603
86.6512
86.642
86.6329
86.6244
86.6167
86.6101
86.6049
86.6014
86.5995
85.0127
85.0142
85.017
85.0212
85.0265
85.0327
85.0396
85.0469
85.0543
85.0615
85.0682
85.0742
85.0793
85.0832
85.0858
85.0869
85.0865
85.0844
85.0807
85.0754
85.0685
85.06
85.0501
85.0388
85.0264
85.0128
84.9984
84.9832
84.9675
84.9514
84.935
84.9186
84.9069
84.8997
84.8926
84.8855
84.8785
84.8717
84.8588
87.6261
87.6261
84.8588
84.8717
84.8785
84.8855
84.8926
84.8997
84.9069
84.9186
84.935
84.9514
84.9675
84.9832
84.9984
85.0128
85.0264
85.0388
85.0501
85.06
85.0685
85.0754
85.0807
85.0844
85.0865
85.0869
85.0858
85.0832
85.0793
85.0742
85.0682
85.0615
85.0543
85.0469
85.0396
85.0327
85.0265
85.0212
85.017
85.0142
85.0127
83.4244
83.4255
83.4278
83.4312
83.4354
83.4404
83.4459
83.4516
83.4575
83.4631
83.4683
83.4729
83.4767
83.4794
83.4809
83.4812
83.48
83.4775
83.4734
83.4679
83.4609
83.4525
83.4428
83.4317
83.4196
83.4063
83.3922
83.3773
83.3617
83.3456
83.3292
83.3126
83.3006
83.2932
83.2859
83.2786
83.2714
83.2643
83.2512
86.1648
86.1648
83.2512
83.2643
83.2714
83.2786
83.2859
83.2932
83.3006
83.3126
83.3292
83.3456
83.3617
83.3773
83.3922
83.4063
83.4196
83.4317
83.4428
83.4525
83.4609
83.4679
83.4734
83.4775
83.48
83.4812
83.4809
83.4794
83.4767
83.4729
83.4683
83.4631
83.4575
83.4516
83.4459
83.4404
83.4354
83.4312
83.4278
83.4255
83.4244
81.8349
81.8358
81.8376
81.8403
81.8436
81.8475
81.8519
81.8564
81.8609
81.8652
81.8691
81.8725
81.8751
81.8767
81.8774
81.8768
81.8751
81.872
81.8676
81.8619
81.8548
81.8464
81.8367
81.8258
81.8138
81.8008
81.7868
81.7719
81.7564
81.7402
81.7235
81.7065
81.6941
81.6865
81.6789
81.6713
81.6638
81.6564
81.6431
84.7228
84.7228
81.6431
81.6564
81.6638
81.6713
81.6789
81.6865
81.6941
81.7065
81.7235
81.7402
81.7564
81.7719
81.7868
81.8008
81.8138
81.8258
81.8367
81.8464
81.8548
81.8619
81.8676
81.872
81.8751
81.8768
81.8774
81.8767
81.8751
81.8725
81.8691
81.8652
81.8609
81.8564
81.8519
81.8475
81.8436
81.8403
81.8376
81.8358
81.8349
80.2444
80.2452
80.2466
80.2487
80.2513
80.2543
80.2576
80.2611
80.2645
80.2677
80.2705
80.2728
80.2744
80.2751
80.275
80.2737
80.2714
80.2679
80.2631
80.2572
80.2499
80.2415
80.2318
80.221
80.2091
80.1961
80.1822
80.1673
80.1516
80.1352
80.1182
80.1006
80.0877
80.0797
80.0718
80.0638
80.0559
80.048
80.0343
83.3043
83.3043
80.0343
80.048
80.0559
80.0638
80.0718
80.0797
80.0877
80.1006
80.1182
80.1352
80.1516
80.1673
80.1822
80.1961
80.2091
80.221
80.2318
80.2415
80.2499
80.2572
80.2631
80.2679
80.2714
80.2737
80.275
80.2751
80.2744
80.2728
80.2705
80.2677
80.2645
80.2611
80.2576
80.2543
80.2513
80.2487
80.2466
80.2452
80.2444
78.6532
78.6538
78.6549
78.6565
78.6585
78.6608
78.6633
78.6658
78.6683
78.6705
78.6724
78.6738
78.6745
78.6745
78.6736
78.6718
78.6689
78.665
78.6599
78.6537
78.6463
78.6378
78.6281
78.6173
78.6055
78.5925
78.5785
78.5636
78.5477
78.5309
78.5133
78.495
78.4815
78.473
78.4645
78.4561
78.4476
78.4392
78.4248
81.9139
81.9139
78.4248
78.4392
78.4476
78.4561
78.4645
78.473
78.4815
78.495
78.5133
78.5309
78.5477
78.5636
78.5785
78.5925
78.6055
78.6173
78.6281
78.6378
78.6463
78.6537
78.6599
78.665
78.6689
78.6718
78.6736
78.6745
78.6745
78.6738
78.6724
78.6705
78.6683
78.6658
78.6633
78.6608
78.6585
78.6565
78.6549
78.6538
78.6532
77.0615
77.0619
77.0628
77.0639
77.0654
77.0671
77.0689
77.0706
77.0723
77.0737
77.0748
77.0754
77.0754
77.0747
77.0732
77.0708
77.0675
77.0632
77.0578
77.0514
77.0439
77.0353
77.0256
77.0148
77.0029
76.9899
76.9758
76.9607
76.9446
76.9274
76.9092
76.89
76.8756
76.8665
76.8574
76.8482
76.839
76.8298
76.8145
80.5569
80.5569
76.8145
76.8298
76.839
76.8482
76.8574
76.8665
76.8756
76.89
76.9092
76.9274
76.9446
76.9607
76.9758
76.9899
77.0029
77.0148
77.0256
77.0353
77.0439
77.0514
77.0578
77.0632
77.0675
77.0708
77.0732
77.0747
77.0754
77.0754
77.0748
77.0737
77.0723
77.0706
77.0689
77.0671
77.0654
77.0639
77.0628
77.0619
77.0615
75.4694
75.4697
75.4702
75.4711
75.4721
75.4733
75.4745
75.4756
75.4766
75.4773
75.4777
75.4776
75.477
75.4757
75.4736
75.4708
75.4671
75.4624
75.4568
75.4502
75.4425
75.4338
75.4241
75.4133
75.4013
75.3883
75.3742
75.3589
75.3425
75.3249
75.306
75.2858
75.2703
75.2606
75.2506
75.2405
75.2302
75.2199
75.2032
79.2352
79.2352
75.2032
75.2199
75.2302
75.2405
75.2506
75.2606
75.2703
75.2858
75.306
75.3249
75.3425
75.3589
75.3742
75.3883
75.4013
75.4133
75.4241
75.4338
75.4425
75.4502
75.4568
75.4624
75.4671
75.4708
75.4736
75.4757
75.477
75.4776
75.4777
75.4773
75.4766
75.4756
75.4745
75.4733
75.4721
75.4711
75.4702
75.4697
75.4694
73.8769
73.8771
73.8775
73.878
73.8787
73.8794
73.8801
73.8807
73.8811
73.8813
73.881
73.8804
73.8792
73.8774
73.8749
73.8716
73.8676
73.8627
73.8568
73.85
73.8422
73.8335
73.8237
73.8128
73.8009
73.7879
73.7737
73.7583
73.7417
73.7237
73.7041
73.6829
73.6662
73.6556
73.6446
73.6333
73.6217
73.6098
73.5909
77.9315
77.9315
73.5909
73.6098
73.6217
73.6333
73.6446
73.6556
73.6662
73.6829
73.7041
73.7237
73.7417
73.7583
73.7737
73.7879
73.8009
73.8128
73.8237
73.8335
73.8422
73.85
73.8568
73.8627
73.8676
73.8716
73.8749
73.8774
73.8792
73.8804
73.881
73.8813
73.8811
73.8807
73.8801
73.8794
73.8787
73.878
73.8775
73.8771
73.8769
72.2842
72.2843
72.2846
72.2849
72.2852
72.2856
72.2858
72.286
72.2859
72.2856
72.2848
72.2837
72.282
72.2798
72.2769
72.2733
72.269
72.2638
72.2577
72.2508
72.243
72.2341
72.2243
72.2135
72.2016
72.1886
72.1744
72.159
72.1422
72.1239
72.1039
72.0818
72.0641
72.0526
72.0405
72.0277
72.0142
72.0001
71.9779
76.5381
76.5381
71.9779
72.0001
72.0142
72.0277
72.0405
72.0526
72.0641
72.0818
72.1039
72.1239
72.1422
72.159
72.1744
72.1886
72.2016
72.2135
72.2243
72.2341
72.243
72.2508
72.2577
72.2638
72.269
72.2733
72.2769
72.2798
72.282
72.2837
72.2848
72.2856
72.2859
72.286
72.2858
72.2856
72.2852
72.2849
72.2846
72.2843
72.2842
70.6914
70.6915
70.6916
70.6917
70.6918
70.6918
70.6917
70.6915
70.691
70.6902
70.6891
70.6875
70.6855
70.6829
70.6797
70.6758
70.6712
70.6658
70.6596
70.6525
70.6446
70.6358
70.626
70.6152
70.6034
70.5905
70.5764
70.561
70.5443
70.5259
70.5057
70.4832
70.4648
70.4527
70.4396
70.4255
70.4101
70.3931
70.3664
74.58
74.58
70.3664
70.3931
70.4101
70.4255
70.4396
70.4527
70.4648
70.4832
70.5057
70.5259
70.5443
70.561
70.5764
70.5905
70.6034
70.6152
70.626
70.6358
70.6446
70.6525
70.6596
70.6658
70.6712
70.6758
70.6797
70.6829
70.6855
70.6875
70.6891
70.6902
70.691
70.6915
70.6917
70.6918
70.6918
70.6917
70.6916
70.6915
70.6914
69.0986
69.0986
69.0986
69.0985
69.0984
69.0981
69.0977
69.0972
69.0963
69.0952
69.0937
69.0918
69.0895
69.0866
69.0831
69.0789
69.0741
69.0686
69.0623
69.0552
69.0472
69.0384
69.0286
69.0179
69.0063
68.9935
68.9796
68.9644
68.9479
68.9298
68.9099
68.8876
68.8694
68.8573
68.8443
68.83
68.814
68.7953
68.7655
70.6076
70.6076
68.7655
68.7953
68.814
68.83
68.8443
68.8573
68.8694
68.8876
68.9099
68.9298
68.9479
68.9644
68.9796
68.9935
69.0063
69.0179
69.0286
69.0384
69.0472
69.0552
69.0623
69.0686
69.0741
69.0789
69.0831
69.0866
69.0895
69.0918
69.0937
69.0952
69.0963
69.0972
69.0977
69.0981
69.0984
69.0985
69.0986
69.0986
69.0986
67.5058
67.5057
67.5056
67.5054
67.5051
67.5046
67.504
67.5031
67.502
67.5006
67.4988
67.4966
67.494
67.4908
67.4871
67.4828
67.4778
67.4721
67.4658
67.4586
67.4507
67.4419
67.4323
67.4217
67.4102
67.3977
67.384
67.3692
67.3531
67.3356
67.3163
67.295
67.278
67.267
67.2555
67.2435
67.231
67.2182
67.2033
67.198
67.198
67.2033
67.2182
67.231
67.2435
67.2555
67.267
67.278
67.295
67.3163
67.3356
67.3531
67.3692
67.384
67.3977
67.4102
67.4217
67.4323
67.4419
67.4507
67.4586
67.4658
67.4721
67.4778
67.4828
67.4871
67.4908
67.494
67.4966
67.4988
67.5006
67.502
67.5031
67.504
67.5046
67.5051
67.5054
67.5056
67.5057
67.5058
65.913
65.9129
65.9127
65.9124
65.9119
65.9113
65.9104
65.9093
65.908
65.9063
65.9043
65.9019
65.899
65.8956
65.8917
65.8873
65.8822
65.8764
65.87
65.8629
65.855
65.8463
65.8368
65.8264
65.8152
65.8029
65.7897
65.7754
65.7598
65.743
65.7247
65.7048
65.6892
65.6794
65.6693
65.6593
65.6495
65.6404
65.6336
65.6293
65.6293
65.6336
65.6404
65.6495
65.6593
65.6693
65.6794
65.6892
65.7048
65.7247
65.743
65.7598
65.7754
65.7897
65.8029
65.8152
65.8264
65.8368
65.8463
65.855
65.8629
65.87
65.8764
65.8822
65.8873
65.8917
65.8956
65.899
65.9019
65.9043
65.9063
65.908
65.9093
65.9104
65.9113
65.9119
65.9124
65.9127
65.9129
65.913
64.3203
64.3202
64.3199
64.3195
64.3189
64.3181
64.3171
64.3158
64.3143
64.3124
64.3102
64.3076
64.3045
64.301
64.297
64.2924
64.2872
64.2814
64.275
64.2679
64.26
64.2515
64.2422
64.232
64.2211
64.2092
64.1964
64.1827
64.1678
64.1519
64.1347
64.1161
64.1017
64.0926
64.0833
64.0738
64.0642
64.0551
64.0495
64.0454
64.0454
64.0495
64.0551
64.0642
64.0738
64.0833
64.0926
64.1017
64.1161
64.1347
64.1519
64.1678
64.1827
64.1964
64.2092
64.2211
64.232
64.2422
64.2515
64.26
64.2679
64.275
64.2814
64.2872
64.2924
64.297
64.301
64.3045
64.3076
64.3102
64.3124
64.3143
64.3158
64.3171
64.3181
64.3189
64.3195
64.3199
64.3202
64.3203
62.7278
62.7276
62.7273
62.7268
62.7261
62.7252
62.724
62.7226
62.7209
62.7189
62.7165
62.7137
62.7105
62.7069
62.7027
62.6981
62.6928
62.687
62.6806
62.6736
62.6659
62.6575
62.6483
62.6385
62.6279
62.6164
62.6042
62.591
62.577
62.562
62.546
62.5289
62.5156
62.5071
62.4981
62.4883
62.4772
62.4639
62.4516
62.449
62.449
62.4516
62.4639
62.4772
62.4883
62.4981
62.5071
62.5156
62.5289
62.546
62.562
62.577
62.591
62.6042
62.6164
62.6279
62.6385
62.6483
62.6575
62.6659
62.6736
62.6806
62.687
62.6928
62.6981
62.7027
62.7069
62.7105
62.7137
62.7165
62.7189
62.7209
62.7226
62.724
62.7252
62.7261
62.7268
62.7273
62.7276
62.7278
61.1357
61.1355
61.1351
61.1345
61.1337
61.1327
61.1314
61.1299
61.1281
61.1259
61.1234
61.1205
61.1172
61.1135
61.1092
61.1045
61.0993
61.0935
61.0871
61.0802
61.0726
61.0644
61.0555
61.0459
61.0357
61.0247
61.013
61.0005
60.9873
60.9733
60.9586
60.9432
60.9315
60.9242
60.9168
60.9094
60.9021
60.8953
60.89
60.8876
60.8876
60.89
60.8953
60.9021
60.9094
60.9168
60.9242
60.9315
60.9432
60.9586
60.9733
60.9873
61.0005
61.013
61.0247
61.0357
61.0459
61.0555
61.0644
61.0726
61.0802
61.0871
61.0935
61.0993
61.1045
61.1092
61.1135
61.1172
61.1205
61.1234
61.1259
61.1281
61.1299
61.1314
61.1327
61.1337
61.1345
61.1351
61.1355
61.1357
59.5437
59.5435
59.5431
59.5424
59.5416
59.5405
59.5391
59.5375
59.5355
59.5333
59.5307
59.5277
59.5243
59.5205
59.5162
59.5115
59.5063
59.5005
59.4942
59.4874
59.48
59.4719
59.4633
59.4541
59.4442
59.4337
59.4225
59.4108
59.3984
59.3854
59.372
59.3582
59.348
59.3418
59.3358
59.3298
59.3243
59.3192
59.3148
59.3124
59.3124
59.3148
59.3192
59.3243
59.3298
59.3358
59.3418
59.348
59.3582
59.372
59.3854
59.3984
59.4108
59.4225
59.4337
59.4442
59.4541
59.4633
59.4719
59.48
59.4874
59.4942
59.5005
59.5063
59.5115
59.5162
59.5205
59.5243
59.5277
59.5307
59.5333
59.5355
59.5375
59.5391
59.5405
59.5416
59.5424
59.5431
59.5435
59.5437
57.9519
57.9517
57.9513
57.9506
57.9497
57.9485
57.9471
57.9454
57.9433
57.941
57.9383
57.9353
57.9318
57.928
57.9237
57.919
57.9138
57.9081
57.9019
57.8952
57.8879
57.8801
57.8717
57.8628
57.8533
57.8433
57.8327
57.8216
57.81
57.7981
57.7857
57.7733
57.7644
57.759
57.7537
57.7487
57.7439
57.7394
57.7353
57.733
57.733
57.7353
57.7394
57.7439
57.7487
57.7537
57.759
57.7644
57.7733
57.7857
57.7981
57.81
57.8216
57.8327
57.8433
57.8533
57.8628
57.8717
57.8801
57.8879
57.8952
57.9019
57.9081
57.9138
57.919
57.9237
57.928
57.9318
57.9353
57.9383
57.941
57.9433
57.9454
57.9471
57.9485
57.9497
57.9506
57.9513
57.9517
57.9519
56.3604
56.3601
56.3597
56.359
56.358
56.3568
56.3553
56.3535
56.3515
56.3491
56.3463
56.3433
56.3398
56.3359
56.3316
56.3269
56.3218
56.3162
56.3101
56.3035
56.2964
56.2888
56.2807
56.2721
56.263
56.2535
56.2434
56.233
56.2221
56.211
56.1996
56.1883
56.1803
56.1754
56.1707
56.1661
56.1617
56.1576
56.1536
56.1513
56.1513
56.1536
56.1576
56.1617
56.1661
56.1707
56.1754
56.1803
56.1883
56.1996
56.211
56.2221
56.233
56.2434
56.2535
56.263
56.2721
56.2807
56.2888
56.2964
56.3035
56.3101
56.3162
56.3218
56.3269
56.3316
56.3359
56.3398
56.3433
56.3463
56.3491
56.3515
56.3535
56.3553
56.3568
56.358
56.359
56.3597
56.3601
56.3604
54.7691
54.7688
54.7683
54.7676
54.7666
54.7654
54.7638
54.762
54.7599
54.7575
54.7547
54.7516
54.7481
54.7443
54.74
54.7353
54.7303
54.7247
54.7187
54.7123
54.7054
54.6981
54.6902
54.682
54.6732
54.6641
54.6546
54.6447
54.6345
54.6241
54.6136
54.6031
54.5957
54.5912
54.5869
54.5826
54.5785
54.5745
54.5706
54.5684
54.5684
54.5706
54.5745
54.5785
54.5826
54.5869
54.5912
54.5957
54.6031
54.6136
54.6241
54.6345
54.6447
54.6546
54.6641
54.6732
54.682
54.6902
54.6981
54.7054
54.7123
54.7187
54.7247
54.7303
54.7353
54.74
54.7443
54.7481
54.7516
54.7547
54.7575
54.7599
54.762
54.7638
54.7654
54.7666
54.7676
54.7683
54.7688
54.7691
53.178
53.1777
53.1773
53.1765
53.1755
53.1742
53.1727
53.1708
53.1687
53.1662
53.1634
53.1603
53.1568
53.153
53.1488
53.1442
53.1392
53.1337
53.1279
53.1216
53.1149
53.1078
53.1002
53.0922
53.0839
53.0751
53.0661
53.0567
53.0471
53.0373
53.0275
53.0177
53.0107
53.0066