/*--------------------------------*- C++ -*----------------------------------*\
  =========                 |
  \\      /  F ield         | OpenFOAM: The Open Source CFD Toolbox
   \\    /   O peration     | Website:  https://openfoam.org
    \\  /    A nd           | Version:  10
     \\/     M anipulation  |
\*---------------------------------------------------------------------------*/
FoamFile
{
    format      ascii;
    class       volVectorField;
    location    "20600";
    object      Ub;
}
// * * * * * * * * * * * * * * * * * * * * * * * * * * * * * * * * * * * * * //

dimensions      [0 1 -1 0 0 0 0];

internalField   nonuniform List<vector> 
6400
(
(-2.15455e-20 -9.87897e-16 0)
(-6.99249e-20 -9.87896e-16 0)
(-7.53402e-13 -9.87893e-16 0)
(-2.83722e-05 -3.23704e-09 0)
(-7.34812e-05 -6.85147e-06 0)
(-9.79251e-05 1.04141e-06 0)
(-0.000105143 -2.80267e-07 0)
(-0.000110392 1.06446e-06 0)
(-0.000115589 -1.78865e-07 0)
(-0.000113661 -3.32972e-07 0)
(-0.000111716 -1.54008e-07 0)
(-0.000113272 3.96831e-07 0)
(-0.000115114 -8.34969e-08 0)
(-0.000114097 -1.75318e-07 0)
(-0.000111175 -4.64099e-07 0)
(-0.000108007 -2.19912e-07 0)
(-0.000106469 -1.28803e-07 0)
(-0.000105176 -1.66689e-07 0)
(-0.000103873 -1.28191e-07 0)
(-0.000102732 -1.31325e-07 0)
(-0.000101191 -2.07427e-07 0)
(-9.96045e-05 -1.39094e-07 0)
(-9.86756e-05 -7.22598e-08 0)
(-9.82547e-05 -3.45799e-08 0)
(-9.79119e-05 -5.53005e-08 0)
(-9.74114e-05 -6.56935e-08 0)
(-9.68112e-05 -7.47324e-08 0)
(-9.6042e-05 -9.93087e-08 0)
(-9.49752e-05 -1.34571e-07 0)
(-9.34834e-05 -1.85132e-07 0)
(-9.10893e-05 -3.17483e-07 0)
(-8.65242e-05 -6.25967e-07 0)
(-8.12093e-05 -1.04702e-06 0)
(-7.59658e-05 -1.36596e-06 0)
(-6.91924e-05 -1.74665e-06 0)
(-6.06343e-05 -2.18203e-06 0)
(-5.01099e-05 -2.64586e-06 0)
(-3.76055e-05 -3.08751e-06 0)
(-2.33669e-05 -3.43894e-06 0)
(-7.93171e-06 -3.63476e-06 0)
(7.93171e-06 -3.63476e-06 0)
(2.33669e-05 -3.43894e-06 0)
(3.76055e-05 -3.08751e-06 0)
(5.01099e-05 -2.64586e-06 0)
(6.06343e-05 -2.18203e-06 0)
(6.91924e-05 -1.74665e-06 0)
(7.59658e-05 -1.36596e-06 0)
(8.12093e-05 -1.04702e-06 0)
(8.65242e-05 -6.25967e-07 0)
(9.10893e-05 -3.17483e-07 0)
(9.34834e-05 -1.85132e-07 0)
(9.49752e-05 -1.34571e-07 0)
(9.6042e-05 -9.93087e-08 0)
(9.68112e-05 -7.47324e-08 0)
(9.74114e-05 -6.56935e-08 0)
(9.79119e-05 -5.53005e-08 0)
(9.82547e-05 -3.45799e-08 0)
(9.86756e-05 -7.22598e-08 0)
(9.96045e-05 -1.39094e-07 0)
(0.000101191 -2.07427e-07 0)
(0.000102732 -1.31325e-07 0)
(0.000103873 -1.28191e-07 0)
(0.000105176 -1.66689e-07 0)
(0.000106469 -1.28803e-07 0)
(0.000108007 -2.19912e-07 0)
(0.000111175 -4.64099e-07 0)
(0.000114097 -1.75318e-07 0)
(0.000115114 -8.34969e-08 0)
(0.000113272 3.96831e-07 0)
(0.000111716 -1.54008e-07 0)
(0.000113661 -3.32972e-07 0)
(0.000115589 -1.78865e-07 0)
(0.000110392 1.06446e-06 0)
(0.000105143 -2.80267e-07 0)
(9.79251e-05 1.04141e-06 0)
(7.34812e-05 -6.85147e-06 0)
(2.83722e-05 -3.23704e-09 0)
(7.53402e-13 -9.87893e-16 0)
(6.99249e-20 -9.87896e-16 0)
(2.15455e-20 -9.87897e-16 0)
(-2.13163e-20 -9.87885e-16 0)
(-6.88929e-20 -9.87882e-16 0)
(-1.41976e-19 -9.8787e-16 0)
(-1.5162e-19 -9.87715e-16 0)
(-1.21505e-08 -7.70311e-16 0)
(-4.57475e-05 1.30162e-06 0)
(-9.45579e-05 -1.90384e-07 0)
(-0.000104645 3.63467e-06 0)
(-0.000111329 -4.29829e-07 0)
(-0.000109829 -9.22938e-07 0)
(-0.000108169 -4.05942e-07 0)
(-0.000110065 1.33062e-06 0)
(-0.000112169 -2.19446e-07 0)
(-0.000111279 -4.82416e-07 0)
(-0.000108468 -1.41034e-06 0)
(-0.000105385 -6.33174e-07 0)
(-0.000104017 -3.58517e-07 0)
(-0.000102826 -4.87894e-07 0)
(-0.000101598 -3.66635e-07 0)
(-0.000100552 -3.76982e-07 0)
(-9.90689e-05 -6.23108e-07 0)
(-9.752e-05 -4.07721e-07 0)
(-9.66479e-05 -2.0231e-07 0)
(-9.62819e-05 -8.62219e-08 0)
(-9.59809e-05 -1.54209e-07 0)
(-9.551e-05 -1.86642e-07 0)
(-9.49444e-05 -2.14434e-07 0)
(-9.42134e-05 -2.90978e-07 0)
(-9.31884e-05 -3.99858e-07 0)
(-9.17596e-05 -5.52832e-07 0)
(-8.94773e-05 -9.5613e-07 0)
(-8.51026e-05 -1.90115e-06 0)
(-7.99788e-05 -3.19573e-06 0)
(-7.48927e-05 -4.17684e-06 0)
(-6.83015e-05 -5.35006e-06 0)
(-5.9942e-05 -6.69608e-06 0)
(-4.96153e-05 -8.13535e-06 0)
(-3.72884e-05 -9.51044e-06 0)
(-2.31958e-05 -1.06073e-05 0)
(-7.87841e-06 -1.12194e-05 0)
(7.87841e-06 -1.12194e-05 0)
(2.31958e-05 -1.06073e-05 0)
(3.72884e-05 -9.51044e-06 0)
(4.96153e-05 -8.13535e-06 0)
(5.9942e-05 -6.69608e-06 0)
(6.83015e-05 -5.35006e-06 0)
(7.48927e-05 -4.17684e-06 0)
(7.99788e-05 -3.19573e-06 0)
(8.51026e-05 -1.90115e-06 0)
(8.94773e-05 -9.5613e-07 0)
(9.17596e-05 -5.52832e-07 0)
(9.31884e-05 -3.99858e-07 0)
(9.42134e-05 -2.90978e-07 0)
(9.49444e-05 -2.14434e-07 0)
(9.551e-05 -1.86642e-07 0)
(9.59809e-05 -1.54209e-07 0)
(9.62819e-05 -8.62219e-08 0)
(9.66479e-05 -2.0231e-07 0)
(9.752e-05 -4.07721e-07 0)
(9.90689e-05 -6.23108e-07 0)
(0.000100552 -3.76982e-07 0)
(0.000101598 -3.66635e-07 0)
(0.000102826 -4.87894e-07 0)
(0.000104017 -3.58517e-07 0)
(0.000105385 -6.33174e-07 0)
(0.000108468 -1.41034e-06 0)
(0.000111279 -4.82416e-07 0)
(0.000112169 -2.19446e-07 0)
(0.000110065 1.33062e-06 0)
(0.000108169 -4.05942e-07 0)
(0.000109829 -9.22938e-07 0)
(0.000111329 -4.29829e-07 0)
(0.000104645 3.63467e-06 0)
(9.45579e-05 -1.90384e-07 0)
(4.57475e-05 1.30162e-06 0)
(1.21505e-08 -7.70311e-16 0)
(1.5162e-19 -9.87715e-16 0)
(1.41976e-19 -9.8787e-16 0)
(6.88929e-20 -9.87882e-16 0)
(2.13163e-20 -9.87885e-16 0)
(-2.08074e-20 -9.87875e-16 0)
(-6.64321e-20 -9.8787e-16 0)
(-1.26542e-19 -9.87851e-16 0)
(-1.39872e-19 -9.87749e-16 0)
(-1.67981e-19 -9.87768e-16 0)
(-7.45191e-20 -9.8618e-16 0)
(-2.23589e-06 -1.60641e-14 0)
(-5.22911e-05 2.51949e-06 0)
(-0.000102841 -2.85281e-07 0)
(-0.000105187 -1.46159e-06 0)
(-0.000104515 -6.79749e-07 0)
(-0.000107251 2.53201e-06 0)
(-0.000109926 -4.16265e-07 0)
(-0.000109157 -7.65544e-07 0)
(-0.000106371 -2.51278e-06 0)
(-0.000103254 -1.04699e-06 0)
(-0.000102133 -5.826e-07 0)
(-0.000101047 -8.47135e-07 0)
(-9.98679e-05 -6.17004e-07 0)
(-9.89397e-05 -6.30125e-07 0)
(-9.74797e-05 -1.09765e-06 0)
(-9.59134e-05 -6.98785e-07 0)
(-9.50972e-05 -3.40191e-07 0)
(-9.48031e-05 -1.34753e-07 0)
(-9.45502e-05 -2.65775e-07 0)
(-9.40973e-05 -3.20458e-07 0)
(-9.35628e-05 -3.65756e-07 0)
(-9.28691e-05 -4.99424e-07 0)
(-9.18829e-05 -6.87256e-07 0)
(-9.05313e-05 -9.39781e-07 0)
(-8.84149e-05 -1.62003e-06 0)
(-8.43275e-05 -3.23586e-06 0)
(-7.94783e-05 -5.46888e-06 0)
(-7.45985e-05 -7.16281e-06 0)
(-6.82306e-05 -9.19678e-06 0)
(-6.00845e-05 -1.15473e-05 0)
(-4.99148e-05 -1.40821e-05 0)
(-3.7641e-05 -1.65227e-05 0)
(-2.34763e-05 -1.84802e-05 0)
(-7.98496e-06 -1.9576e-05 0)
(7.98496e-06 -1.9576e-05 0)
(2.34763e-05 -1.84802e-05 0)
(3.7641e-05 -1.65227e-05 0)
(4.99148e-05 -1.40821e-05 0)
(6.00845e-05 -1.15473e-05 0)
(6.82306e-05 -9.19678e-06 0)
(7.45985e-05 -7.16281e-06 0)
(7.94783e-05 -5.46888e-06 0)
(8.43275e-05 -3.23586e-06 0)
(8.84149e-05 -1.62003e-06 0)
(9.05313e-05 -9.39781e-07 0)
(9.18829e-05 -6.87256e-07 0)
(9.28691e-05 -4.99424e-07 0)
(9.35628e-05 -3.65756e-07 0)
(9.40973e-05 -3.20458e-07 0)
(9.45502e-05 -2.65775e-07 0)
(9.48031e-05 -1.34753e-07 0)
(9.50972e-05 -3.40191e-07 0)
(9.59134e-05 -6.98785e-07 0)
(9.74797e-05 -1.09765e-06 0)
(9.89397e-05 -6.30125e-07 0)
(9.98679e-05 -6.17004e-07 0)
(0.000101047 -8.47135e-07 0)
(0.000102133 -5.826e-07 0)
(0.000103254 -1.04699e-06 0)
(0.000106371 -2.51278e-06 0)
(0.000109157 -7.65544e-07 0)
(0.000109926 -4.16265e-07 0)
(0.000107251 2.53201e-06 0)
(0.000104515 -6.79749e-07 0)
(0.000105187 -1.46159e-06 0)
(0.000102841 -2.85281e-07 0)
(5.22911e-05 2.51949e-06 0)
(2.23589e-06 -1.60641e-14 0)
(7.45191e-20 -9.8618e-16 0)
(1.67981e-19 -9.87768e-16 0)
(1.39872e-19 -9.87749e-16 0)
(1.26542e-19 -9.87851e-16 0)
(6.64321e-20 -9.8787e-16 0)
(2.08074e-20 -9.87875e-16 0)
(-1.99978e-20 -9.87865e-16 0)
(-6.2825e-20 -9.87858e-16 0)
(-1.12546e-19 -9.87835e-16 0)
(-1.2886e-19 -9.87757e-16 0)
(-1.44927e-19 -9.87749e-16 0)
(-8.15312e-20 -9.87599e-16 0)
(-1.02094e-19 -9.87781e-16 0)
(-3.36659e-20 -9.53525e-16 0)
(-5.89218e-06 -8.04262e-13 0)
(-5.18233e-05 -8.46101e-07 0)
(-9.48593e-05 -4.07692e-07 0)
(-0.000102788 4.39237e-06 0)
(-0.000107368 -6.97181e-07 0)
(-0.000107049 -9.2718e-07 0)
(-0.000104353 -3.87547e-06 0)
(-0.000101126 -1.40705e-06 0)
(-0.000100432 -7.62769e-07 0)
(-9.94829e-05 -1.25612e-06 0)
(-9.83429e-05 -8.6335e-07 0)
(-9.75915e-05 -8.67669e-07 0)
(-9.6125e-05 -1.66112e-06 0)
(-9.44796e-05 -1.00644e-06 0)
(-9.37332e-05 -4.75957e-07 0)
(-9.35434e-05 -1.62767e-07 0)
(-9.33539e-05 -3.89148e-07 0)
(-9.29087e-05 -4.63971e-07 0)
(-9.2408e-05 -5.22317e-07 0)
(-9.1758e-05 -7.20402e-07 0)
(-9.08123e-05 -9.93394e-07 0)
(-8.9562e-05 -1.33071e-06 0)
(-8.76909e-05 -2.2787e-06 0)
(-8.4035e-05 -4.58659e-06 0)
(-7.95899e-05 -7.82703e-06 0)
(-7.50021e-05 -1.02864e-05 0)
(-6.89454e-05 -1.32599e-05 0)
(-6.10799e-05 -1.67408e-05 0)
(-5.10713e-05 -2.05518e-05 0)
(-3.87463e-05 -2.42718e-05 0)
(-2.42778e-05 -2.72837e-05 0)
(-8.27821e-06 -2.89789e-05 0)
(8.27821e-06 -2.89789e-05 0)
(2.42778e-05 -2.72837e-05 0)
(3.87463e-05 -2.42718e-05 0)
(5.10713e-05 -2.05518e-05 0)
(6.10799e-05 -1.67408e-05 0)
(6.89454e-05 -1.32599e-05 0)
(7.50021e-05 -1.02864e-05 0)
(7.95899e-05 -7.82703e-06 0)
(8.4035e-05 -4.58659e-06 0)
(8.76909e-05 -2.2787e-06 0)
(8.9562e-05 -1.33071e-06 0)
(9.08123e-05 -9.93394e-07 0)
(9.1758e-05 -7.20402e-07 0)
(9.2408e-05 -5.22317e-07 0)
(9.29087e-05 -4.63971e-07 0)
(9.33539e-05 -3.89148e-07 0)
(9.35434e-05 -1.62767e-07 0)
(9.37332e-05 -4.75957e-07 0)
(9.44796e-05 -1.00644e-06 0)
(9.6125e-05 -1.66112e-06 0)
(9.75915e-05 -8.67669e-07 0)
(9.83429e-05 -8.6335e-07 0)
(9.94829e-05 -1.25612e-06 0)
(0.000100432 -7.62769e-07 0)
(0.000101126 -1.40705e-06 0)
(0.000104353 -3.87547e-06 0)
(0.000107049 -9.2718e-07 0)
(0.000107368 -6.97181e-07 0)
(0.000102788 4.39237e-06 0)
(9.48593e-05 -4.07692e-07 0)
(5.18233e-05 -8.46101e-07 0)
(5.89218e-06 -8.04262e-13 0)
(3.36659e-20 -9.53525e-16 0)
(1.02094e-19 -9.87781e-16 0)
(8.15312e-20 -9.87599e-16 0)
(1.44927e-19 -9.87749e-16 0)
(1.2886e-19 -9.87757e-16 0)
(1.12546e-19 -9.87835e-16 0)
(6.2825e-20 -9.87858e-16 0)
(1.99978e-20 -9.87865e-16 0)
(-1.88963e-20 -9.87854e-16 0)
(-5.83486e-20 -9.87845e-16 0)
(-9.97154e-20 -9.87821e-16 0)
(-1.16799e-19 -9.87761e-16 0)
(-1.25634e-19 -9.87738e-16 0)
(-8.29839e-20 -9.87639e-16 0)
(-8.62932e-20 -9.87735e-16 0)
(-3.44079e-20 -9.87543e-16 0)
(2.29563e-21 -9.87738e-16 0)
(1.78756e-20 -9.27807e-16 0)
(-1.29065e-07 -8.33101e-16 0)
(-4.66483e-05 2.77764e-06 0)
(-9.64379e-05 -4.30821e-07 0)
(-0.000102048 -5.2874e-07 0)
(-0.000101232 -5.62109e-06 0)
(-9.83172e-05 -1.58393e-06 0)
(-9.85693e-05 -8.30976e-07 0)
(-9.78941e-05 -1.74287e-06 0)
(-9.68185e-05 -1.0829e-06 0)
(-9.63769e-05 -1.05223e-06 0)
(-9.48794e-05 -2.37506e-06 0)
(-9.30742e-05 -1.3235e-06 0)
(-9.24335e-05 -6.01589e-07 0)
(-9.24011e-05 -1.47828e-07 0)
(-9.23e-05 -5.31863e-07 0)
(-9.1847e-05 -6.18535e-07 0)
(-9.13881e-05 -6.79494e-07 0)
(-9.07939e-05 -9.5293e-07 0)
(-8.98893e-05 -1.3196e-06 0)
(-8.87683e-05 -1.70724e-06 0)
(-8.72449e-05 -2.88855e-06 0)
(-8.4213e-05 -5.88456e-06 0)
(-8.03465e-05 -1.02046e-05 0)
(-7.61712e-05 -1.34751e-05 0)
(-7.0567e-05 -1.74695e-05 0)
(-6.31145e-05 -2.22444e-05 0)
(-5.33237e-05 -2.76023e-05 0)
(-4.08493e-05 -3.29497e-05 0)
(-2.5785e-05 -3.73422e-05 0)
(-8.82705e-06 -3.98342e-05 0)
(8.82705e-06 -3.98342e-05 0)
(2.5785e-05 -3.73422e-05 0)
(4.08493e-05 -3.29497e-05 0)
(5.33237e-05 -2.76023e-05 0)
(6.31145e-05 -2.22444e-05 0)
(7.0567e-05 -1.74695e-05 0)
(7.61712e-05 -1.34751e-05 0)
(8.03465e-05 -1.02046e-05 0)
(8.4213e-05 -5.88456e-06 0)
(8.72449e-05 -2.88855e-06 0)
(8.87683e-05 -1.70724e-06 0)
(8.98893e-05 -1.3196e-06 0)
(9.07939e-05 -9.5293e-07 0)
(9.13881e-05 -6.79494e-07 0)
(9.1847e-05 -6.18535e-07 0)
(9.23e-05 -5.31863e-07 0)
(9.24011e-05 -1.47828e-07 0)
(9.24335e-05 -6.01589e-07 0)
(9.30742e-05 -1.3235e-06 0)
(9.48794e-05 -2.37506e-06 0)
(9.63769e-05 -1.05223e-06 0)
(9.68185e-05 -1.0829e-06 0)
(9.78941e-05 -1.74287e-06 0)
(9.85693e-05 -8.30976e-07 0)
(9.83172e-05 -1.58393e-06 0)
(0.000101232 -5.62109e-06 0)
(0.000102048 -5.2874e-07 0)
(9.64379e-05 -4.30821e-07 0)
(4.66483e-05 2.77764e-06 0)
(1.29065e-07 -8.33101e-16 0)
(-1.78756e-20 -9.27807e-16 0)
(-2.29563e-21 -9.87738e-16 0)
(3.44079e-20 -9.87543e-16 0)
(8.62932e-20 -9.87735e-16 0)
(8.29839e-20 -9.87639e-16 0)
(1.25634e-19 -9.87738e-16 0)
(1.16799e-19 -9.87761e-16 0)
(9.97154e-20 -9.87821e-16 0)
(5.83486e-20 -9.87845e-16 0)
(1.88963e-20 -9.87854e-16 0)
(-1.75376e-20 -9.87843e-16 0)
(-5.3265e-20 -9.87834e-16 0)
(-8.78452e-20 -9.8781e-16 0)
(-1.0432e-19 -9.87762e-16 0)
(-1.09144e-19 -9.87733e-16 0)
(-8.04071e-20 -9.87666e-16 0)
(-7.39707e-20 -9.87709e-16 0)
(-3.44516e-20 -9.87597e-16 0)
(-3.88019e-21 -9.87706e-16 0)
(5.70701e-21 -9.8763e-16 0)
(-5.25215e-20 -9.87763e-16 0)
(4.89784e-20 -9.82354e-16 0)
(-5.90398e-11 -7.65154e-16 0)
(-2.79154e-05 -4.79423e-08 0)
(-7.08573e-05 -3.30155e-06 0)
(-8.9461e-05 -8.01138e-07 0)
(-9.45665e-05 -4.99502e-07 0)
(-9.54099e-05 -2.30409e-06 0)
(-9.47962e-05 -1.20316e-06 0)
(-9.50677e-05 -1.09183e-06 0)
(-9.35822e-05 -3.34829e-06 0)
(-9.15315e-05 -1.62164e-06 0)
(-9.10904e-05 -7.03634e-07 0)
(-9.13102e-05 -4.72025e-08 0)
(-9.13419e-05 -7.09902e-07 0)
(-9.08545e-05 -7.85112e-07 0)
(-9.04553e-05 -8.27778e-07 0)
(-8.99379e-05 -1.19491e-06 0)
(-8.90682e-05 -1.67082e-06 0)
(-8.81021e-05 -2.04224e-06 0)
(-8.70529e-05 -3.38342e-06 0)
(-8.48977e-05 -7.01894e-06 0)
(-8.18347e-05 -1.25019e-05 0)
(-7.82285e-05 -1.65998e-05 0)
(-7.32974e-05 -2.16743e-05 0)
(-6.65044e-05 -2.79442e-05 0)
(-5.70913e-05 -3.52572e-05 0)
(-4.43904e-05 -4.28127e-05 0)
(-2.83343e-05 -4.91474e-05 0)
(-9.75732e-06 -5.2781e-05 0)
(9.75732e-06 -5.2781e-05 0)
(2.83343e-05 -4.91474e-05 0)
(4.43904e-05 -4.28127e-05 0)
(5.70913e-05 -3.52572e-05 0)
(6.65044e-05 -2.79442e-05 0)
(7.32974e-05 -2.16743e-05 0)
(7.82285e-05 -1.65998e-05 0)
(8.18347e-05 -1.25019e-05 0)
(8.48977e-05 -7.01894e-06 0)
(8.70529e-05 -3.38342e-06 0)
(8.81021e-05 -2.04224e-06 0)
(8.90682e-05 -1.67082e-06 0)
(8.99379e-05 -1.19491e-06 0)
(9.04553e-05 -8.27778e-07 0)
(9.08545e-05 -7.85112e-07 0)
(9.13419e-05 -7.09902e-07 0)
(9.13102e-05 -4.72025e-08 0)
(9.10904e-05 -7.03634e-07 0)
(9.15315e-05 -1.62164e-06 0)
(9.35822e-05 -3.34829e-06 0)
(9.50677e-05 -1.09183e-06 0)
(9.47962e-05 -1.20316e-06 0)
(9.54099e-05 -2.30409e-06 0)
(9.45665e-05 -4.99502e-07 0)
(8.9461e-05 -8.01138e-07 0)
(7.08573e-05 -3.30155e-06 0)
(2.79154e-05 -4.79423e-08 0)
(5.90398e-11 -7.65154e-16 0)
(-4.89784e-20 -9.82354e-16 0)
(5.25215e-20 -9.87763e-16 0)
(-5.70701e-21 -9.8763e-16 0)
(3.88019e-21 -9.87706e-16 0)
(3.44516e-20 -9.87597e-16 0)
(7.39707e-20 -9.87709e-16 0)
(8.04071e-20 -9.87666e-16 0)
(1.09144e-19 -9.87733e-16 0)
(1.0432e-19 -9.87762e-16 0)
(8.78452e-20 -9.8781e-16 0)
(5.3265e-20 -9.87834e-16 0)
(1.75376e-20 -9.87843e-16 0)
(-1.59761e-20 -9.87831e-16 0)
(-4.78145e-20 -9.87822e-16 0)
(-7.6802e-20 -9.878e-16 0)
(-9.19036e-20 -9.87762e-16 0)
(-9.47212e-20 -9.87731e-16 0)
(-7.51466e-20 -9.87684e-16 0)
(-6.40664e-20 -9.87697e-16 0)
(-3.35229e-20 -9.87633e-16 0)
(-8.36341e-21 -9.87689e-16 0)
(-2.46185e-22 -9.87653e-16 0)
(-2.57036e-20 -9.87713e-16 0)
(4.23911e-20 -9.87528e-16 0)
(8.90018e-20 -9.87744e-16 0)
(1.01816e-19 -9.8745e-16 0)
(1.17167e-19 -8.4915e-16 0)
(-2.89644e-09 -6.79732e-16 0)
(-3.55605e-05 -8.69508e-08 0)
(-7.78382e-05 -1.2992e-06 0)
(-8.71779e-05 -6.12208e-07 0)
(-9.15865e-05 -5.82811e-07 0)
(-9.1313e-05 -4.72216e-06 0)
(-8.92938e-05 -1.78809e-06 0)
(-8.94186e-05 -7.50023e-07 0)
(-9.01294e-05 2.3084e-07 0)
(-9.04085e-05 -9.56126e-07 0)
(-8.98544e-05 -9.60847e-07 0)
(-8.95629e-05 -9.46846e-07 0)
(-8.91655e-05 -1.44202e-06 0)
(-8.83107e-05 -2.06229e-06 0)
(-8.75131e-05 -2.29772e-06 0)
(-8.70903e-05 -3.66707e-06 0)
(-8.6148e-05 -7.81351e-06 0)
(-8.41645e-05 -1.45957e-05 0)
(-8.13058e-05 -1.94479e-05 0)
(-7.73943e-05 -2.55681e-05 0)
(-7.17264e-05 -3.35425e-05 0)
(-6.30786e-05 -4.34263e-05 0)
(-5.01515e-05 -5.42057e-05 0)
(-3.25352e-05 -6.34867e-05 0)
(-1.12994e-05 -6.88866e-05 0)
(1.12994e-05 -6.88866e-05 0)
(3.25352e-05 -6.34867e-05 0)
(5.01515e-05 -5.42057e-05 0)
(6.30786e-05 -4.34263e-05 0)
(7.17264e-05 -3.35425e-05 0)
(7.73943e-05 -2.55681e-05 0)
(8.13058e-05 -1.94479e-05 0)
(8.41645e-05 -1.45957e-05 0)
(8.6148e-05 -7.81351e-06 0)
(8.70903e-05 -3.66707e-06 0)
(8.75131e-05 -2.29772e-06 0)
(8.83107e-05 -2.06229e-06 0)
(8.91655e-05 -1.44202e-06 0)
(8.95629e-05 -9.46846e-07 0)
(8.98544e-05 -9.60847e-07 0)
(9.04085e-05 -9.56126e-07 0)
(9.01294e-05 2.3084e-07 0)
(8.94186e-05 -7.50023e-07 0)
(8.92938e-05 -1.78809e-06 0)
(9.1313e-05 -4.72216e-06 0)
(9.15865e-05 -5.82811e-07 0)
(8.71779e-05 -6.12208e-07 0)
(7.78382e-05 -1.2992e-06 0)
(3.55605e-05 -8.69508e-08 0)
(2.89644e-09 -6.79732e-16 0)
(-1.17167e-19 -8.4915e-16 0)
(-1.01816e-19 -9.8745e-16 0)
(-8.90018e-20 -9.87744e-16 0)
(-4.23911e-20 -9.87528e-16 0)
(2.57036e-20 -9.87713e-16 0)
(2.46185e-22 -9.87653e-16 0)
(8.36341e-21 -9.87689e-16 0)
(3.35229e-20 -9.87633e-16 0)
(6.40664e-20 -9.87697e-16 0)
(7.51466e-20 -9.87684e-16 0)
(9.47212e-20 -9.87731e-16 0)
(9.19036e-20 -9.87762e-16 0)
(7.6802e-20 -9.878e-16 0)
(4.78145e-20 -9.87822e-16 0)
(1.59761e-20 -9.87831e-16 0)
(-1.42783e-20 -9.8782e-16 0)
(-4.22106e-20 -9.87811e-16 0)
(-6.6513e-20 -9.87791e-16 0)
(-7.98984e-20 -9.8776e-16 0)
(-8.18423e-20 -9.87731e-16 0)
(-6.82613e-20 -9.87697e-16 0)
(-5.57589e-20 -9.87693e-16 0)
(-3.17971e-20 -9.87656e-16 0)
(-1.10428e-20 -9.87683e-16 0)
(-2.36685e-21 -9.87666e-16 0)
(-8.57413e-21 -9.87689e-16 0)
(3.79871e-20 -9.87594e-16 0)
(7.48906e-20 -9.87709e-16 0)
(8.77985e-20 -9.87661e-16 0)
(8.68306e-20 -9.87779e-16 0)
(-1.40656e-20 -9.87786e-16 0)
(6.98331e-20 -9.86893e-16 0)
(1.35283e-19 -8.35079e-16 0)
(-2.53515e-10 -6.81821e-16 0)
(-2.69957e-05 -5.33856e-08 0)
(-6.51742e-05 -2.7636e-06 0)
(-7.96514e-05 -9.07866e-07 0)
(-8.43702e-05 -3.76699e-07 0)
(-8.75198e-05 9.98168e-07 0)
(-8.88855e-05 -1.29402e-06 0)
(-8.84737e-05 -1.10526e-06 0)
(-8.85267e-05 -9.80408e-07 0)
(-8.83982e-05 -1.67841e-06 0)
(-8.75398e-05 -2.53185e-06 0)
(-8.69083e-05 -2.42013e-06 0)
(-8.72959e-05 -3.60467e-06 0)
(-8.80428e-05 -7.97765e-06 0)
(-8.74387e-05 -1.64255e-05 0)
(-8.5446e-05 -2.16903e-05 0)
(-8.31051e-05 -2.85401e-05 0)
(-7.94654e-05 -3.8318e-05 0)
(-7.25023e-05 -5.16742e-05 0)
(-5.95874e-05 -6.75875e-05 0)
(-3.95453e-05 -8.16941e-05 0)
(-1.38952e-05 -9.00489e-05 0)
(1.38952e-05 -9.00489e-05 0)
(3.95453e-05 -8.16941e-05 0)
(5.95874e-05 -6.75875e-05 0)
(7.25023e-05 -5.16742e-05 0)
(7.94654e-05 -3.8318e-05 0)
(8.31051e-05 -2.85401e-05 0)
(8.5446e-05 -2.16903e-05 0)
(8.74387e-05 -1.64255e-05 0)
(8.80428e-05 -7.97765e-06 0)
(8.72959e-05 -3.60467e-06 0)
(8.69083e-05 -2.42013e-06 0)
(8.75398e-05 -2.53185e-06 0)
(8.83982e-05 -1.67841e-06 0)
(8.85267e-05 -9.80408e-07 0)
(8.84737e-05 -1.10526e-06 0)
(8.88855e-05 -1.29402e-06 0)
(8.75198e-05 9.98168e-07 0)
(8.43702e-05 -3.76699e-07 0)
(7.96514e-05 -9.07866e-07 0)
(6.51742e-05 -2.7636e-06 0)
(2.69957e-05 -5.33856e-08 0)
(2.53515e-10 -6.81821e-16 0)
(-1.35283e-19 -8.35079e-16 0)
(-6.98331e-20 -9.86893e-16 0)
(1.40656e-20 -9.87786e-16 0)
(-8.68306e-20 -9.87779e-16 0)
(-8.77985e-20 -9.87661e-16 0)
(-7.48906e-20 -9.87709e-16 0)
(-3.79871e-20 -9.87594e-16 0)
(8.57413e-21 -9.87689e-16 0)
(2.36685e-21 -9.87666e-16 0)
(1.10428e-20 -9.87683e-16 0)
(3.17971e-20 -9.87656e-16 0)
(5.57589e-20 -9.87693e-16 0)
(6.82613e-20 -9.87697e-16 0)
(8.18423e-20 -9.87731e-16 0)
(7.98984e-20 -9.8776e-16 0)
(6.6513e-20 -9.87791e-16 0)
(4.22106e-20 -9.87811e-16 0)
(1.42783e-20 -9.8782e-16 0)
(-1.25148e-20 -9.87809e-16 0)
(-3.66376e-20 -9.87801e-16 0)
(-5.69524e-20 -9.87783e-16 0)
(-6.85383e-20 -9.87758e-16 0)
(-7.01691e-20 -9.87732e-16 0)
(-6.05389e-20 -9.87705e-16 0)
(-4.84573e-20 -9.87695e-16 0)
(-2.93976e-20 -9.87672e-16 0)
(-1.20735e-20 -9.87682e-16 0)
(-2.34163e-21 -9.87674e-16 0)
(1.87764e-21 -9.8768e-16 0)
(3.46825e-20 -9.87635e-16 0)
(6.32038e-20 -9.87694e-16 0)
(7.46156e-20 -9.87685e-16 0)
(6.93431e-20 -9.87752e-16 0)
(1.77202e-20 -9.87751e-16 0)
(6.24841e-20 -9.87637e-16 0)
(9.41981e-20 -9.87782e-16 0)
(7.60762e-21 -9.87788e-16 0)
(6.97646e-20 -9.87373e-16 0)
(1.27104e-19 -8.73611e-16 0)
(-2.15553e-19 -7.4373e-16 0)
(-6.29588e-07 -2.21396e-15 0)
(-3.69096e-05 7.83123e-07 0)
(-7.58675e-05 -7.43132e-07 0)
(-8.11325e-05 -5.8015e-07 0)
(-8.4551e-05 -4.82614e-07 0)
(-8.63758e-05 -1.72357e-06 0)
(-8.61058e-05 -3.11029e-06 0)
(-8.58724e-05 -2.30112e-06 0)
(-8.74102e-05 -3.0071e-06 0)
(-9.06807e-05 -6.96851e-06 0)
(-9.16636e-05 -1.83958e-05 0)
(-9.02903e-05 -2.28423e-05 0)
(-9.04225e-05 -2.93715e-05 0)
(-9.06065e-05 -4.05543e-05 0)
(-8.75714e-05 -5.84924e-05 0)
(-7.56008e-05 -8.35829e-05 0)
(-5.16917e-05 -0.000106175 0)
(-1.84447e-05 -0.000119888 0)
(1.84447e-05 -0.000119888 0)
(5.16917e-05 -0.000106175 0)
(7.56008e-05 -8.35829e-05 0)
(8.75714e-05 -5.84924e-05 0)
(9.06065e-05 -4.05543e-05 0)
(9.04225e-05 -2.93715e-05 0)
(9.02903e-05 -2.28423e-05 0)
(9.16636e-05 -1.83958e-05 0)
(9.06807e-05 -6.96851e-06 0)
(8.74102e-05 -3.0071e-06 0)
(8.58724e-05 -2.30112e-06 0)
(8.61058e-05 -3.11029e-06 0)
(8.63758e-05 -1.72357e-06 0)
(8.4551e-05 -4.82614e-07 0)
(8.11325e-05 -5.8015e-07 0)
(7.58675e-05 -7.43132e-07 0)
(3.69096e-05 7.83123e-07 0)
(6.29588e-07 -2.21396e-15 0)
(2.15553e-19 -7.4373e-16 0)
(-1.27104e-19 -8.73611e-16 0)
(-6.97646e-20 -9.87373e-16 0)
(-7.60762e-21 -9.87788e-16 0)
(-9.41981e-20 -9.87782e-16 0)
(-6.24841e-20 -9.87637e-16 0)
(-1.77202e-20 -9.87751e-16 0)
(-6.93431e-20 -9.87752e-16 0)
(-7.46156e-20 -9.87685e-16 0)
(-6.32038e-20 -9.87694e-16 0)
(-3.46825e-20 -9.87635e-16 0)
(-1.87764e-21 -9.8768e-16 0)
(2.34163e-21 -9.87674e-16 0)
(1.20735e-20 -9.87682e-16 0)
(2.93976e-20 -9.87672e-16 0)
(4.84573e-20 -9.87695e-16 0)
(6.05389e-20 -9.87705e-16 0)
(7.01691e-20 -9.87732e-16 0)
(6.85383e-20 -9.87758e-16 0)
(5.69524e-20 -9.87783e-16 0)
(3.66376e-20 -9.87801e-16 0)
(1.25148e-20 -9.87809e-16 0)
(-1.07528e-20 -9.87799e-16 0)
(-3.12487e-20 -9.87791e-16 0)
(-4.8125e-20 -9.87776e-16 0)
(-5.79702e-20 -9.87755e-16 0)
(-5.95057e-20 -9.87733e-16 0)
(-5.25348e-20 -9.87711e-16 0)
(-4.1775e-20 -9.87699e-16 0)
(-2.64359e-20 -9.87684e-16 0)
(-1.1761e-20 -9.87685e-16 0)
(-1.26629e-21 -9.8768e-16 0)
(7.90865e-21 -9.8768e-16 0)
(3.1872e-20 -9.8766e-16 0)
(5.36372e-20 -9.87691e-16 0)
(6.33271e-20 -9.87697e-16 0)
(5.89714e-20 -9.87735e-16 0)
(3.42652e-20 -9.87734e-16 0)
(5.69037e-20 -9.87683e-16 0)
(7.16191e-20 -9.87756e-16 0)
(3.19452e-20 -9.87759e-16 0)
(6.26682e-20 -9.87679e-16 0)
(8.7071e-20 -9.87788e-16 0)
(2.03872e-20 -9.87816e-16 0)
(-6.71512e-20 -9.87779e-16 0)
(6.65026e-20 -9.77441e-16 0)
(1.69967e-19 -8.53424e-16 0)
(-7.66323e-21 -7.33837e-16 0)
(-2.87901e-07 -1.19761e-15 0)
(-3.25775e-05 -8.28216e-07 0)
(-6.97283e-05 -1.7139e-06 0)
(-7.77432e-05 -1.08103e-06 0)
(-8.36347e-05 -1.27338e-06 0)
(-9.27459e-05 -3.3276e-06 0)
(-9.55622e-05 -2.30099e-05 0)
(-9.3465e-05 -2.18859e-05 0)
(-9.7971e-05 -2.55795e-05 0)
(-0.000105638 -3.62101e-05 0)
(-0.000112476 -5.86456e-05 0)
(-0.000104478 -0.000103383 0)
(-7.38952e-05 -0.000141495 0)
(-2.69074e-05 -0.000165871 0)
(2.69074e-05 -0.000165871 0)
(7.38952e-05 -0.000141495 0)
(0.000104478 -0.000103383 0)
(0.000112476 -5.86456e-05 0)
(0.000105638 -3.62101e-05 0)
(9.7971e-05 -2.55795e-05 0)
(9.3465e-05 -2.18859e-05 0)
(9.55622e-05 -2.30099e-05 0)
(9.27459e-05 -3.3276e-06 0)
(8.36347e-05 -1.27338e-06 0)
(7.77432e-05 -1.08103e-06 0)
(6.97283e-05 -1.7139e-06 0)
(3.25775e-05 -8.28216e-07 0)
(2.87901e-07 -1.19761e-15 0)
(7.66323e-21 -7.33837e-16 0)
(-1.69967e-19 -8.53424e-16 0)
(-6.65026e-20 -9.77441e-16 0)
(6.71512e-20 -9.87779e-16 0)
(-2.03872e-20 -9.87816e-16 0)
(-8.7071e-20 -9.87788e-16 0)
(-6.26682e-20 -9.87679e-16 0)
(-3.19452e-20 -9.87759e-16 0)
(-7.16191e-20 -9.87756e-16 0)
(-5.69037e-20 -9.87683e-16 0)
(-3.42652e-20 -9.87734e-16 0)
(-5.89714e-20 -9.87735e-16 0)
(-6.33271e-20 -9.87697e-16 0)
(-5.36372e-20 -9.87691e-16 0)
(-3.1872e-20 -9.8766e-16 0)
(-7.90865e-21 -9.8768e-16 0)
(1.26629e-21 -9.8768e-16 0)
(1.1761e-20 -9.87685e-16 0)
(2.64359e-20 -9.87684e-16 0)
(4.1775e-20 -9.87699e-16 0)
(5.25348e-20 -9.87711e-16 0)
(5.95057e-20 -9.87733e-16 0)
(5.79702e-20 -9.87755e-16 0)
(4.8125e-20 -9.87776e-16 0)
(3.12487e-20 -9.87791e-16 0)
(1.07528e-20 -9.87799e-16 0)
(-9.05102e-21 -9.87789e-16 0)
(-2.61655e-20 -9.87783e-16 0)
(-4.00506e-20 -9.8777e-16 0)
(-4.82788e-20 -9.87753e-16 0)
(-4.97547e-20 -9.87734e-16 0)
(-4.46218e-20 -9.87716e-16 0)
(-3.54926e-20 -9.87704e-16 0)
(-2.30357e-20 -9.87692e-16 0)
(-1.04625e-20 -9.8769e-16 0)
(2.14915e-22 -9.87686e-16 0)
(1.11424e-20 -9.87684e-16 0)
(2.9292e-20 -9.87676e-16 0)
(4.59052e-20 -9.87694e-16 0)
(5.4157e-20 -9.87704e-16 0)
(5.22483e-20 -9.87726e-16 0)
(4.15874e-20 -9.87727e-16 0)
(5.25944e-20 -9.87707e-16 0)
(5.92894e-20 -9.87742e-16 0)
(4.25438e-20 -9.87745e-16 0)
(5.63298e-20 -9.87714e-16 0)
(6.39877e-20 -9.87768e-16 0)
(2.4984e-20 -9.87785e-16 0)
(-1.42007e-20 -9.87749e-16 0)
(5.56926e-20 -9.87624e-16 0)
(1.07953e-19 -9.87784e-16 0)
(3.76173e-20 -9.87815e-16 0)
(-3.65382e-20 -9.8778e-16 0)
(7.39011e-20 -9.8196e-16 0)
(1.56201e-19 -8.78899e-16 0)
(4.6897e-20 -7.74361e-16 0)
(-1.06251e-09 -6.69786e-16 0)
(-1.85578e-05 -2.87358e-07 0)
(-4.95704e-05 -1.32518e-05 0)
(-7.14285e-05 -1.0349e-05 0)
(-9.06637e-05 -1.1055e-05 0)
(-0.000114395 -1.58422e-05 0)
(-0.000150874 -3.01286e-05 0)
(-0.0001585 -0.00013175 0)
(-0.000115467 -0.000195013 0)
(-4.36946e-05 -0.000244556 0)
(4.36946e-05 -0.000244556 0)
(0.000115467 -0.000195013 0)
(0.0001585 -0.00013175 0)
(0.000150874 -3.01286e-05 0)
(0.000114395 -1.58422e-05 0)
(9.06637e-05 -1.1055e-05 0)
(7.14285e-05 -1.0349e-05 0)
(4.95704e-05 -1.32518e-05 0)
(1.85578e-05 -2.87358e-07 0)
(1.06251e-09 -6.69786e-16 0)
(-4.6897e-20 -7.74361e-16 0)
(-1.56201e-19 -8.78899e-16 0)
(-7.39011e-20 -9.8196e-16 0)
(3.65382e-20 -9.8778e-16 0)
(-3.76173e-20 -9.87815e-16 0)
(-1.07953e-19 -9.87784e-16 0)
(-5.56926e-20 -9.87624e-16 0)
(1.42007e-20 -9.87749e-16 0)
(-2.4984e-20 -9.87785e-16 0)
(-6.39877e-20 -9.87768e-16 0)
(-5.63298e-20 -9.87714e-16 0)
(-4.25438e-20 -9.87745e-16 0)
(-5.92894e-20 -9.87742e-16 0)
(-5.25944e-20 -9.87707e-16 0)
(-4.15874e-20 -9.87727e-16 0)
(-5.22483e-20 -9.87726e-16 0)
(-5.4157e-20 -9.87704e-16 0)
(-4.59052e-20 -9.87694e-16 0)
(-2.9292e-20 -9.87676e-16 0)
(-1.11424e-20 -9.87684e-16 0)
(-2.14915e-22 -9.87686e-16 0)
(1.04625e-20 -9.8769e-16 0)
(2.30357e-20 -9.87692e-16 0)
(3.54926e-20 -9.87704e-16 0)
(4.46218e-20 -9.87716e-16 0)
(4.97547e-20 -9.87734e-16 0)
(4.82788e-20 -9.87753e-16 0)
(4.00506e-20 -9.8777e-16 0)
(2.61655e-20 -9.87783e-16 0)
(9.05102e-21 -9.87789e-16 0)
(-7.45613e-21 -9.8778e-16 0)
(-2.14785e-20 -9.87775e-16 0)
(-3.27502e-20 -9.87764e-16 0)
(-3.95062e-20 -9.8775e-16 0)
(-4.08774e-20 -9.87735e-16 0)
(-3.7042e-20 -9.8772e-16 0)
(-2.95173e-20 -9.87709e-16 0)
(-1.93381e-20 -9.87699e-16 0)
(-8.51689e-21 -9.87695e-16 0)
(1.77075e-21 -9.87692e-16 0)
(1.27029e-20 -9.8769e-16 0)
(2.68847e-20 -9.87688e-16 0)
(3.97243e-20 -9.87698e-16 0)
(4.68937e-20 -9.87708e-16 0)
(4.72816e-20 -9.87721e-16 0)
(4.36588e-20 -9.87724e-16 0)
(4.90539e-20 -9.87719e-16 0)
(5.22132e-20 -9.87736e-16 0)
(4.57709e-20 -9.8774e-16 0)
(5.10631e-20 -9.8773e-16 0)
(5.1504e-20 -9.87756e-16 0)
(3.00757e-20 -9.87765e-16 0)
(1.3874e-20 -9.8774e-16 0)
(4.86858e-20 -9.87689e-16 0)
(7.3656e-20 -9.87761e-16 0)
(3.94076e-20 -9.87783e-16 0)
(7.85561e-21 -9.87756e-16 0)
(6.14424e-20 -9.87666e-16 0)
(9.98594e-20 -9.87794e-16 0)
(4.47061e-20 -9.87823e-16 0)
(-1.01095e-20 -9.87802e-16 0)
(4.74549e-20 -9.87358e-16 0)
(1.02558e-19 -9.42436e-16 0)
(5.09271e-20 -9.02996e-16 0)
(-2.08025e-21 -8.555e-16 0)
(-2.10716e-09 -8.251e-16 0)
(-6.39072e-06 -2.10979e-06 0)
(-7.05177e-05 -7.69691e-05 0)
(-0.000136502 -0.000217157 0)
(-7.23734e-05 -0.000386506 0)
(7.23734e-05 -0.000386506 0)
(0.000136502 -0.000217157 0)
(7.05177e-05 -7.69691e-05 0)
(6.39072e-06 -2.10979e-06 0)
(2.10716e-09 -8.251e-16 0)
(2.08025e-21 -8.555e-16 0)
(-5.09271e-20 -9.02996e-16 0)
(-1.02558e-19 -9.42436e-16 0)
(-4.74549e-20 -9.87358e-16 0)
(1.01095e-20 -9.87802e-16 0)
(-4.47061e-20 -9.87823e-16 0)
(-9.98594e-20 -9.87794e-16 0)
(-6.14424e-20 -9.87666e-16 0)
(-7.85561e-21 -9.87756e-16 0)
(-3.94076e-20 -9.87783e-16 0)
(-7.3656e-20 -9.87761e-16 0)
(-4.86858e-20 -9.87689e-16 0)
(-1.3874e-20 -9.8774e-16 0)
(-3.00757e-20 -9.87765e-16 0)
(-5.1504e-20 -9.87756e-16 0)
(-5.10631e-20 -9.8773e-16 0)
(-4.57709e-20 -9.8774e-16 0)
(-5.22132e-20 -9.87736e-16 0)
(-4.90539e-20 -9.87719e-16 0)
(-4.36588e-20 -9.87724e-16 0)
(-4.72816e-20 -9.87721e-16 0)
(-4.68937e-20 -9.87708e-16 0)
(-3.97243e-20 -9.87698e-16 0)
(-2.68847e-20 -9.87688e-16 0)
(-1.27029e-20 -9.8769e-16 0)
(-1.77075e-21 -9.87692e-16 0)
(8.51689e-21 -9.87695e-16 0)
(1.93381e-20 -9.87699e-16 0)
(2.95173e-20 -9.87709e-16 0)
(3.7042e-20 -9.8772e-16 0)
(4.08774e-20 -9.87735e-16 0)
(3.95062e-20 -9.8775e-16 0)
(3.27502e-20 -9.87764e-16 0)
(2.14785e-20 -9.87775e-16 0)
(7.45613e-21 -9.8778e-16 0)
(-6.00129e-21 -9.87772e-16 0)
(-1.72478e-20 -9.87768e-16 0)
(-2.62373e-20 -9.87759e-16 0)
(-3.16661e-20 -9.87748e-16 0)
(-3.28635e-20 -9.87735e-16 0)
(-2.99489e-20 -9.87723e-16 0)
(-2.38417e-20 -9.87713e-16 0)
(-1.5495e-20 -9.87706e-16 0)
(-6.20631e-21 -9.87701e-16 0)
(3.26398e-21 -9.87698e-16 0)
(1.3339e-20 -9.87696e-16 0)
(2.46885e-20 -9.87696e-16 0)
(3.48212e-20 -9.87703e-16 0)
(4.11712e-20 -9.87711e-16 0)
(4.31611e-20 -9.8772e-16 0)
(4.29466e-20 -9.87723e-16 0)
(4.59104e-20 -9.87724e-16 0)
(4.76292e-20 -9.87733e-16 0)
(4.54274e-20 -9.87737e-16 0)
(4.68919e-20 -9.87737e-16 0)
(4.50481e-20 -9.87749e-16 0)
(3.39309e-20 -9.87753e-16 0)
(2.77868e-20 -9.87739e-16 0)
(4.42572e-20 -9.8772e-16 0)
(5.56331e-20 -9.87751e-16 0)
(4.04791e-20 -9.87764e-16 0)
(2.83755e-20 -9.87749e-16 0)
(5.27969e-20 -9.87717e-16 0)
(6.90244e-20 -9.87774e-16 0)
(4.2191e-20 -9.87795e-16 0)
(1.5713e-20 -9.87782e-16 0)
(3.4757e-20 -9.87736e-16 0)
(5.62735e-20 -9.8779e-16 0)
(3.9326e-20 -9.87806e-16 0)
(2.06187e-20 -9.87806e-16 0)
(1.27426e-20 -9.87788e-16 0)
(1.99731e-20 -1.70401e-15 0)
(-2.66082e-08 -4.63542e-06 0)
(-1.70104e-05 -0.000183162 0)
(-1.69838e-05 -0.000501794 0)
(1.69838e-05 -0.000501794 0)
(1.70104e-05 -0.000183162 0)