/*--------------------------------*- C++ -*----------------------------------*\
  =========                 |
  \\      /  F ield         | OpenFOAM: The Open Source CFD Toolbox
   \\    /   O peration     | Website:  https://openfoam.org
    \\  /    A nd           | Version:  10
     \\/     M anipulation  |
\*---------------------------------------------------------------------------*/
FoamFile
{
    format      ascii;
    class       volScalarField;
    location    "4600";
    object      p;
}
// * * * * * * * * * * * * * * * * * * * * * * * * * * * * * * * * * * * * * //

dimensions      [1 -1 -2 0 0 0 0];

internalField   nonuniform List<scalar> 
6400
(
109.65
109.655
109.665
109.681
109.701
109.726
109.757
109.792
109.832
109.876
109.925
109.978
110.035
110.097
110.161
110.229
110.3
110.373
110.448
110.525
110.603
110.681
110.759
110.836
110.911
110.984
111.053
111.118
111.178
111.232
111.279
111.319
111.342
111.355
111.365
111.375
111.382
111.387
111.391
111.393
111.393
111.391
111.387
111.382
111.375
111.365
111.355
111.342
111.319
111.279
111.232
111.178
111.118
111.053
110.984
110.911
110.836
110.759
110.681
110.603
110.525
110.448
110.373
110.3
110.229
110.161
110.097
110.035
109.978
109.925
109.876
109.832
109.792
109.757
109.726
109.701
109.681
109.665
109.655
109.65
109.356
109.361
109.371
109.386
109.407
109.432
109.462
109.498
109.537
109.582
109.631
109.684
109.741
109.802
109.867
109.935
110.006
110.079
110.154
110.231
110.309
110.387
110.465
110.542
110.617
110.69
110.759
110.824
110.884
110.938
110.986
111.026
111.049
111.061
111.072
111.081
111.088
111.094
111.097
111.099
111.099
111.097
111.094
111.088
111.081
111.072
111.061
111.049
111.026
110.986
110.938
110.884
110.824
110.759
110.69
110.617
110.542
110.465
110.387
110.309
110.231
110.154
110.079
110.006
109.935
109.867
109.802
109.741
109.684
109.631
109.582
109.537
109.498
109.462
109.432
109.407
109.386
109.371
109.361
109.356
109.033
109.038
109.048
109.063
109.084
109.109
109.14
109.175
109.215
109.259
109.308
109.361
109.419
109.48
109.544
109.612
109.683
109.756
109.832
109.908
109.986
110.065
110.143
110.22
110.295
110.368
110.437
110.502
110.562
110.616
110.664
110.704
110.727
110.739
110.75
110.759
110.767
110.772
110.776
110.778
110.778
110.776
110.772
110.767
110.759
110.75
110.739
110.727
110.704
110.664
110.616
110.562
110.502
110.437
110.368
110.295
110.22
110.143
110.065
109.986
109.908
109.832
109.756
109.683
109.612
109.544
109.48
109.419
109.361
109.308
109.259
109.215
109.175
109.14
109.109
109.084
109.063
109.048
109.038
109.033
108.678
108.683
108.693
108.709
108.729
108.755
108.785
108.82
108.86
108.905
108.954
109.007
109.064
109.125
109.19
109.258
109.329
109.402
109.478
109.555
109.633
109.711
109.789
109.866
109.942
110.015
110.084
110.149
110.21
110.264
110.311
110.352
110.375
110.387
110.398
110.407
110.415
110.42
110.424
110.426
110.426
110.424
110.42
110.415
110.407
110.398
110.387
110.375
110.352
110.311
110.264
110.21
110.149
110.084
110.015
109.942
109.866
109.789
109.711
109.633
109.555
109.478
109.402
109.329
109.258
109.19
109.125
109.064
109.007
108.954
108.905
108.86
108.82
108.785
108.755
108.729
108.709
108.693
108.683
108.678
108.289
108.294
108.304
108.32
108.34
108.365
108.396
108.431
108.471
108.516
108.565
108.618
108.675
108.736
108.801
108.869
108.94
109.014
109.089
109.166
109.245
109.323
109.401
109.479
109.554
109.627
109.697
109.763
109.823
109.878
109.925
109.966
109.989
110.002
110.013
110.022
110.029
110.035
110.038
110.04
110.04
110.038
110.035
110.029
110.022
110.013
110.002
109.989
109.966
109.925
109.878
109.823
109.763
109.697
109.627
109.554
109.479
109.401
109.323
109.245
109.166
109.089
109.014
108.94
108.869
108.801
108.736
108.675
108.618
108.565
108.516
108.471
108.431
108.396
108.365
108.34
108.32
108.304
108.294
108.289
107.861
107.867
107.877
107.892
107.913
107.938
107.968
108.004
108.044
108.088
108.137
108.191
108.248
108.31
108.375
108.443
108.514
108.587
108.663
108.741
108.819
108.898
108.976
109.054
109.13
109.203
109.273
109.339
109.4
109.455
109.503
109.543
109.567
109.579
109.59
109.6
109.607
109.613
109.616
109.618
109.618
109.616
109.613
109.607
109.6
109.59
109.579
109.567
109.543
109.503
109.455
109.4
109.339
109.273
109.203
109.13
109.054
108.976
108.898
108.819
108.741
108.663
108.587
108.514
108.443
108.375
108.31
108.248
108.191
108.137
108.088
108.044
108.004
107.968
107.938
107.913
107.892
107.877
107.867
107.861
107.392
107.397
107.407
107.423
107.443
107.469
107.499
107.535
107.575
107.619
107.668
107.722
107.78
107.841
107.906
107.975
108.046
108.12
108.196
108.273
108.352
108.431
108.51
108.588
108.665
108.738
108.809
108.875
108.936
108.992
109.04
109.081
109.105
109.117
109.128
109.138
109.145
109.151
109.155
109.156
109.156
109.155
109.151
109.145
109.138
109.128
109.117
109.105
109.081
109.04
108.992
108.936
108.875
108.809
108.738
108.665
108.588
108.51
108.431
108.352
108.273
108.196
108.12
108.046
107.975
107.906
107.841
107.78
107.722
107.668
107.619
107.575
107.535
107.499
107.469
107.443
107.423
107.407
107.397
107.392
106.876
106.882
106.892
106.907
106.928
106.953
106.984
107.019
107.059
107.104
107.154
107.207
107.265
107.327
107.392
107.461
107.532
107.606
107.683
107.761
107.84
107.919
107.999
108.078
108.154
108.229
108.3
108.367
108.429
108.484
108.533
108.575
108.599
108.612
108.623
108.632
108.64
108.646
108.649
108.651
108.651
108.649
108.646
108.64
108.632
108.623
108.612
108.599
108.575
108.533
108.484
108.429
108.367
108.3
108.229
108.154
108.078
107.999
107.919
107.84
107.761
107.683
107.606
107.532
107.461
107.392
107.327
107.265
107.207
107.154
107.104
107.059
107.019
106.984
106.953
106.928
106.907
106.892
106.882
106.876
106.31
106.315
106.326
106.341
106.362
106.387
106.418
106.453
106.494
106.539
106.588
106.642
106.7
106.762
106.827
106.896
106.968
107.043
107.12
107.198
107.278
107.358
107.438
107.518
107.595
107.671
107.743
107.81
107.873
107.929
107.979
108.021
108.045
108.058
108.07
108.079
108.087
108.093
108.097
108.099
108.099
108.097
108.093
108.087
108.079
108.07
108.058
108.045
108.021
107.979
107.929
107.873
107.81
107.743
107.671
107.595
107.518
107.438
107.358
107.278
107.198
107.12
107.043
106.968
106.896
106.827
106.762
106.7
106.642
106.588
106.539
106.494
106.453
106.418
106.387
106.362
106.341
106.326
106.315
106.31
105.688
105.693
105.704
105.719
105.74
105.766
105.796
105.832
105.872
105.917
105.967
106.021
106.079
106.142
106.208
106.277
106.35
106.425
106.502
106.581
106.662
106.743
106.824
106.904
106.983
107.059
107.132
107.201
107.264
107.322
107.372
107.415
107.44
107.453
107.465
107.475
107.483
107.488
107.492
107.494
107.494
107.492
107.488
107.483
107.475
107.465
107.453
107.44
107.415
107.372
107.322
107.264
107.201
107.132
107.059
106.983
106.904
106.824
106.743
106.662
106.581
106.502
106.425
106.35
106.277
106.208
106.142
106.079
106.021
105.967
105.917
105.872
105.832
105.796
105.766
105.74
105.719
105.704
105.693
105.688
105.005
105.01
105.02
105.036
105.057
105.082
105.113
105.149
105.19
105.235
105.285
105.339
105.398
105.461
105.527
105.597
105.67
105.746
105.824
105.904
105.986
106.068
106.15
106.231
106.311
106.389
106.463
106.533
106.598
106.657
106.709
106.753
106.778
106.792
106.804
106.814
106.822
106.828
106.832
106.834
106.834
106.832
106.828
106.822
106.814
106.804
106.792
106.778
106.753
106.709
106.657
106.598
106.533
106.463
106.389
106.311
106.231
106.15
106.068
105.986
105.904
105.824
105.746
105.67
105.597
105.527
105.461
105.398
105.339
105.285
105.235
105.19
105.149
105.113
105.082
105.057
105.036
105.02
105.01
105.005
104.254
104.259
104.269
104.285
104.306
104.332
104.363
104.399
104.44
104.485
104.536
104.59
104.649
104.713
104.78
104.85
104.924
105.001
105.08
105.161
105.244
105.327
105.411
105.494
105.575
105.654
105.731
105.803
105.869
105.93
105.983
106.028
106.055
106.069
106.081
106.091
106.1
106.106
106.11
106.112
106.112
106.11
106.106
106.1
106.091
106.081
106.069
106.055
106.028
105.983
105.93
105.869
105.803
105.731
105.654
105.575
105.494
105.411
105.327
105.244
105.161
105.08
105.001
104.924
104.85
104.78
104.713
104.649
104.59
104.536
104.485
104.44
104.399
104.363
104.332
104.306
104.285
104.269
104.259
104.254
103.428
103.433
103.444
103.46
103.481
103.507
103.538
103.574
103.615
103.661
103.712
103.767
103.827
103.891
103.959
104.03
104.105
104.183
104.263
104.346
104.43
104.515
104.6
104.685
104.769
104.85
104.929
105.003
105.072
105.135
105.19
105.237
105.264
105.279
105.292
105.303
105.311
105.318
105.322
105.324
105.324
105.322
105.318
105.311
105.303
105.292
105.279
105.264
105.237
105.19
105.135
105.072
105.003
104.929
104.85
104.769
104.685
104.6
104.515
104.43
104.346
104.263
104.183
104.105
104.03
103.959
103.891
103.827
103.767
103.712
103.661
103.615
103.574
103.538
103.507
103.481
103.46
103.444
103.433
103.428
102.521
102.526
102.536
102.552
102.573
102.6
102.631
102.668
102.709
102.756
102.807
102.863
102.923
102.988
103.057
103.129
103.205
103.285
103.366
103.451
103.537
103.624
103.712
103.799
103.885
103.969
104.051
104.128
104.2
104.265
104.323
104.372
104.401
104.417
104.43
104.442
104.451
104.458
104.462
104.465
104.465
104.462
104.458
104.451
104.442
104.43
104.417
104.401
104.372
104.323
104.265
104.2
104.128
104.051
103.969
103.885
103.799
103.712
103.624
103.537
103.451
103.366
103.285
103.205
103.129
103.057
102.988
102.923
102.863
102.807
102.756
102.709
102.668
102.631
102.6
102.573
102.552
102.536
102.526
102.521
101.523
101.528
101.539
101.555
101.576
101.603
101.634
101.671
101.713
101.76
101.812
101.869
101.93
101.996
102.066
102.139
102.217
102.298
102.382
102.468
102.557
102.646
102.737
102.827
102.917
103.005
103.09
103.171
103.246
103.315
103.377
103.429
103.46
103.476
103.491
103.503
103.512
103.52
103.525
103.527
103.527
103.525
103.52
103.512
103.503
103.491
103.476
103.46
103.429
103.377
103.315
103.246
103.171
103.09
103.005
102.917
102.827
102.737
102.646
102.557
102.468
102.382
102.298
102.217
102.139
102.066
101.996
101.93
101.869
101.812
101.76
101.713
101.671
101.634
101.603
101.576
101.555
101.539
101.528
101.523
100.425
100.43
100.441
100.457
100.479
100.506
100.538
100.575
100.618
100.666
100.718
100.776
100.838
100.905
100.976
101.052
101.131
101.214
101.3
101.389
101.481
101.574
101.668
101.762
101.856
101.948
102.038
102.124
102.204
102.278
102.344
102.4
102.433
102.451
102.467
102.48
102.49
102.498
102.504
102.506
102.506
102.504
102.498
102.49
102.48
102.467
102.451
102.433
102.4
102.344
102.278
102.204
102.124
102.038
101.948
101.856
101.762
101.668
101.574
101.481
101.389
101.3
101.214
101.131
101.052
100.976
100.905
100.838
100.776
100.718
100.666
100.618
100.575
100.538
100.506
100.479
100.457
100.441
100.43
100.425
99.1405
99.146
99.1569
99.1734
99.1952
99.2225
99.2551
99.2931
99.3364
99.3849
99.4386
99.4973
99.561
99.6295
99.7026
99.7801
99.8619
99.9475
100.037
100.129
100.224
100.322
100.421
100.52
100.62
100.718
100.814
100.906
100.993
101.074
101.146
101.208
101.244
101.264
101.281
101.296
101.308
101.316
101.322
101.325
101.325
101.322
101.316
101.308
101.296
101.281
101.264
101.244
101.208
101.146
101.074
100.993
100.906
100.814
100.718
100.62
100.52
100.421
100.322
100.224
100.129
100.037
99.9475
99.8619
99.7801
99.7026
99.6295
99.561
99.4973
99.4386
99.3849
99.3364
99.2931
99.2551
99.2225
99.1952
99.1734
99.1569
99.146
99.1405
97.7183
97.7238
97.7349
97.7516
97.7738
97.8016
97.8348
97.8735
97.9176
97.9672
98.022
98.0821
98.1474
98.2178
98.2931
98.3731
98.4578
98.5468
98.6398
98.7366
98.8366
98.9393
99.0442
99.1505
99.2572
99.3633
99.4676
99.5686
99.6646
99.7538
99.8344
99.9041
99.9453
99.9679
99.9875
100.004
100.017
100.028
100.034
100.038
100.038
100.034
100.028
100.017
100.004
99.9875
99.9679
99.9453
99.9041
99.8344
99.7538
99.6646
99.5686
99.4676
99.3633
99.2572
99.1505
99.0442
98.9393
98.8366
98.7366
98.6398
98.5468
98.4578
98.3731
98.2931
98.2178
98.1474
98.0821
98.022
97.9672
97.9176
97.8735
97.8348
97.8016
97.7738
97.7516
97.7349
97.7238
97.7183
96.2904
96.2961
96.3074
96.3243
96.3469
96.3751
96.409
96.4484
96.4935
96.544
96.6002
96.6618
96.7288
96.8012
96.8788
96.9616
97.0494
97.142
97.2392
97.3406
97.446
97.5547
97.6664
97.7802
97.8952
98.0104
98.1245
98.2358
98.3426
98.4427
98.5337
98.6133
98.6605
98.6865
98.7092
98.7284
98.744
98.7557
98.7637
98.7676
98.7676
98.7637
98.7557
98.744
98.7284
98.7092
98.6865
98.6605
98.6133
98.5337
98.4427
98.3426
98.2358
98.1245
98.0104
97.8952
97.7802
97.6664
97.5547
97.446
97.3406
97.2392
97.142
97.0494
96.9616
96.8788
96.8012
96.7288
96.6618
96.6002
96.544
96.4935
96.4484
96.409
96.3751
96.3469
96.3243
96.3074
96.2961
96.2904
94.857
94.8627
94.8742
94.8914
94.9144
94.9431
94.9776
95.0178
95.0637
95.1154
95.1728
95.236
95.3048
95.3793
95.4594
95.5451
95.6362
95.7326
95.8342
95.9407
96.0519
96.1673
96.2864
96.4086
96.5331
96.6587
96.7841
96.9076
97.0272
97.1405
97.2446
97.3365
97.3916
97.422
97.4486
97.4712
97.4895
97.5034
97.5128
97.5175
97.5175
97.5128
97.5034
97.4895
97.4712
97.4486
97.422
97.3916
97.3365
97.2446
97.1405
97.0272
96.9076
96.7841
96.6587
96.5331
96.4086
96.2864
96.1673
96.0519
95.9407
95.8342
95.7326
95.6362
95.5451
95.4594
95.3793
95.3048
95.236
95.1728
95.1154
95.0637
95.0178
94.9776
94.9431
94.9144
94.8914
94.8742
94.8627
94.857
93.4178
93.4236
93.4352
93.4527
93.4761
93.5053
93.5404
93.5814
93.6282
93.681
93.7398
93.8045
93.8752
93.9518
94.0345
94.1231
94.2176
94.3181
94.4243
94.5362
94.6536
94.7761
94.9034
95.0349
95.1698
95.3071
95.4456
95.5834
95.7183
95.8475
95.9678
96.0752
96.1404
96.1765
96.2083
96.2354
96.2574
96.2742
96.2856
96.2912
96.2912
96.2856
96.2742
96.2574
96.2354
96.2083
96.1765
96.1404
96.0752
95.9678
95.8475
95.7183
95.5834
95.4456
95.3071
95.1698
95.0349
94.9034
94.7761
94.6536
94.5362
94.4243
94.3181
94.2176
94.1231
94.0345
93.9518
93.8752
93.8045
93.7398
93.681
93.6282
93.5814
93.5404
93.5053
93.4761
93.4527
93.4352
93.4236
93.4178
91.9727
91.9786
91.9905
92.0082
92.032
92.0616
92.0973
92.139
92.1868
92.2407
92.3008
92.367
92.4395
92.5184
92.6035
92.6951
92.7932
92.8977
93.0088
93.1262
93.2501
93.3801
93.5161
93.6576
93.8041
93.9545
94.1077
94.262
94.4149
94.5635
94.7038
94.8311
94.9095
94.9532
94.9918
95.0249
95.0521
95.0728
95.0868
95.0938
95.0938
95.0868
95.0728
95.0521
95.0249
94.9918
94.9532
94.9095
94.8311
94.7038
94.5635
94.4149
94.262
94.1077
93.9545
93.8041
93.6576
93.5161
93.3801
93.2501
93.1262
93.0088
92.8977
92.7932
92.6951
92.6035
92.5184
92.4395
92.367
92.3008
92.2407
92.1868
92.139
92.0973
92.0616
92.032
92.0082
91.9905
91.9786
91.9727
90.5217
90.5277
90.5397
90.5578
90.5818
90.612
90.6482
90.6907
90.7393
90.7943
90.8556
90.9233
90.9976
91.0785
91.1662
91.2608
91.3623
91.4709
91.5868
91.7099
91.8404
91.9782
92.1233
92.2755
92.4343
92.5991
92.7688
92.9419
93.1159
93.2878
93.453
93.6056
93.7015
93.7554
93.8035
93.8449
93.8791
93.9053
93.9231
93.9321
93.9321
93.9231
93.9053
93.8791
93.8449
93.8035
93.7554
93.7015
93.6056
93.453
93.2878
93.1159
92.9419
92.7688
92.5991
92.4343
92.2755
92.1233
91.9782
91.8404
91.7099
91.5868
91.4709
91.3623
91.2608
91.1662
91.0785
90.9976
90.9233
90.8556
90.7943
90.7393
90.6907
90.6482
90.612
90.5818
90.5578
90.5397
90.5277
90.5217
89.0648
89.0709
89.083
89.1013
89.1257
89.1562
89.193
89.2361
89.2855
89.3414
89.4039
89.473
89.549
89.6319
89.722
89.8194
89.9243
90.0369
90.1575
90.2862
90.4234
90.5691
90.7235
90.8867
91.0586
91.2388
91.4266
91.6207
91.8192
92.0188
92.2146
92.4
92.5194
92.5873
92.6485
92.7018
92.7462
92.7805
92.8039
92.8158
92.8158
92.8039
92.7805
92.7462
92.7018
92.6485
92.5873
92.5194
92.4
92.2146
92.0188
91.8192
91.6207
91.4266
91.2388
91.0586
90.8867
90.7235
90.5691
90.4234
90.2862
90.1575
90.0369
89.9243
89.8194
89.722
89.6319
89.549
89.473
89.4039
89.3414
89.2855
89.2361
89.193
89.1562
89.1257
89.1013
89.083
89.0709
89.0648
87.6018
87.6079
87.6202
87.6386
87.6633
87.6942
87.7315
87.7751
87.8253
87.882
87.9455
88.016
88.0934
88.1782
88.2705
88.3705
88.4785
88.5949
88.72
88.8541
88.9977
89.1512
89.3149
89.4893
89.6745
89.8708
90.078
90.2953
90.5213
90.7534
90.9869
91.2142
91.3658
91.4533
91.5333
91.6042
91.664
91.7109
91.7433
91.7598
91.7598
91.7433
91.7109
91.664
91.6042
91.5333
91.4533
91.3658
91.2142
90.9869
90.7534
90.5213
90.2953
90.078
89.8708
89.6745
89.4893
89.3149
89.1512
88.9977
88.8541
88.72
88.5949
88.4785
88.3705
88.2705
88.1782
88.0934
88.016
87.9455
87.882
87.8253
87.7751
87.7315
87.6942
87.6633
87.6386
87.6202
87.6079
87.6018
86.1326
86.1388
86.1512
86.1698
86.1947
86.2259
86.2635
86.3076
86.3584
86.4159
86.4803
86.5518
86.6306
86.717
86.8112
86.9136
87.0244
87.1443
87.2735
87.4126
87.5623
87.7231
87.8957
88.0809
88.2794
88.492
88.7192
88.9611
89.2175
89.4867
89.7652
90.046
90.2415
90.3568
90.4647
90.5625
90.6471
90.7149
90.7627
90.7875
90.7875
90.7627
90.7149
90.6471
90.5625
90.4647
90.3568
90.2415
90.046
89.7652
89.4867
89.2175
88.9611
88.7192
88.492
88.2794
88.0809
87.8957
87.7231
87.5623
87.4126
87.2735
87.1443
87.0244
86.9136
86.8112
86.717
86.6306
86.5518
86.4803
86.4159
86.3584
86.3076
86.2635
86.2259
86.1947
86.1698
86.1512
86.1388
86.1326
84.6573
84.6635
84.6759
84.6947
84.7197
84.7511
84.7891
84.8335
84.8847
84.9428
85.0079
85.0803
85.1602
85.2479
85.3438
85.4481
85.5614
85.6842
85.817
85.9606
86.1156
86.2831
86.4639
86.6592
86.8703
87.0986
87.3456
87.6126
87.9007
88.2106
88.5411
88.888
89.1428
89.2974
89.447
89.5878
89.7146
89.8208
89.8988
89.9405
89.9405
89.8988
89.8208
89.7146
89.5878
89.447
89.2974
89.1428
88.888
88.5411
88.2106
87.9007
87.6126
87.3456
87.0986
86.8703
86.6592
86.4639
86.2831
86.1156
85.9606
85.817
85.6842
85.5614
85.4481
85.3438
85.2479
85.1602
85.0803
85.0079
84.9428
84.8847
84.8335
84.7891
84.7511
84.7197
84.6947
84.6759
84.6635
84.6573
83.1757
83.1819
83.1944
83.2132
83.2384
83.2699
83.308
83.3527
83.4042
83.4627
83.5283
83.6014
83.6821
83.7707
83.8678
83.9737
84.0889
84.2141
84.3499
84.4971
84.6566
84.8297
85.0175
85.2217
85.4441
85.6866
85.9519
86.2428
86.5623
86.9139
87.3007
87.7242
88.0549
88.2633
88.4743
88.684
88.8861
89.0699
89.2183
89.3046
89.3046
89.2183
89.0699
88.8861
88.684
88.4743
88.2633
88.0549
87.7242
87.3007
86.9139
86.5623
86.2428
85.9519
85.6866
85.4441
85.2217
85.0175
84.8297
84.6566
84.4971
84.3499
84.2141
84.0889
83.9737
83.8678
83.7707
83.6821
83.6014
83.5283
83.4627
83.4042
83.3527
83.308
83.2699
83.2384
83.2132
83.1944
83.1819
83.1757
81.6879
81.6941
81.7066
81.7254
81.7506
81.7822
81.8203
81.8652
81.9168
81.9754
82.0413
82.1147
82.1959
82.2852
82.3831
82.49
82.6065
82.7334
82.8713
83.0211
83.1841
83.3615
83.5549
83.7661
83.9975
84.2519
84.5327
84.8443
85.1919
85.5822
86.0234
86.526
86.9426
87.216
87.5077
87.819
88.1502
88.4983
88.8516
89.2013
89.2013
88.8516
88.4983
88.1502
87.819
87.5077
87.216
86.9426
86.526
86.0234
85.5822
85.1919
84.8443
84.5327
84.2519
83.9975
83.7661
83.5549
83.3615
83.1841
83.0211
82.8713
82.7334
82.6065
82.49
82.3831
82.2852
82.1959
82.1147
82.0413
81.9754
81.9168
81.8652
81.8203
81.7822
81.7506
81.7254
81.7066
81.6941
81.6879
80.1938
80.2001
80.2125
80.2313
80.2564
80.2879
80.326
80.3707
80.4223
80.4809
80.5468
80.6203
80.7015
80.7911
80.8893
80.9966
81.1138
81.2416
81.3807
81.5321
81.6972
81.8774
82.0744
82.2903
82.528
82.7908
83.0828
83.4098
83.7787
84.1994
84.6848
85.2535
85.7445
86.0756
86.4419
86.8537
87.3286
87.9004
88.6386
107.041
107.041
88.6386
87.9004
87.3286
86.8537
86.4419
86.0756
85.7445
85.2535
84.6848
84.1994
83.7787
83.4098
83.0828
82.7908
82.528
82.2903
82.0744
81.8774
81.6972
81.5321
81.3807
81.2416
81.1138
80.9966
80.8893
80.7911
80.7015
80.6203
80.5468
80.4809
80.4223
80.3707
80.326
80.2879
80.2564
80.2313
80.2125
80.2001
80.1938
78.6936
78.6998
78.7122
78.7308
78.7558
78.7871
78.825
78.8695
78.9208
78.9792
79.0448
79.1179
79.199
79.2882
79.3862
79.4935
79.6106
79.7384
79.8777
80.0296
80.1953
80.3764
80.5748
80.7928
81.0334
81.3003
81.5981
81.9332
82.314
82.7518
83.2629
83.8698
84.4001
84.7567
85.1462
85.5684
86.0167
86.4697
86.9788
111.413
111.413
86.9788
86.4697
86.0167
85.5684
85.1462
84.7567
84.4001
83.8698
83.2629
82.7518
82.314
81.9332
81.5981
81.3003
81.0334
80.7928
80.5748
80.3764
80.1953
80.0296
79.8777
79.7384
79.6106
79.4935
79.3862
79.2882
79.199
79.1179
79.0448
78.9792
78.9208
78.8695
78.825
78.7871
78.7558
78.7308
78.7122
78.6998
78.6936
77.1871
77.1933
77.2055
77.224
77.2487
77.2798
77.3173
77.3614
77.4123
77.4702
77.5352
77.6078
77.6881
77.7767
77.874
77.9805
78.0968
78.2237
78.3621
78.5131
78.6779
78.8581
79.0556
79.2728
79.5126
79.7787
80.0761
80.411
80.792
81.2311
81.7451
82.3589
82.9018
83.2719
83.6851
84.1506
84.681
85.2944
86.8396
106.644
106.644
86.8396
85.2944
84.681
84.1506
83.6851
83.2719
82.9018
82.3589
81.7451
81.2311
80.792
80.411
80.0761
79.7787
79.5126
79.2728
79.0556
78.8581
78.6779
78.5131
78.3621
78.2237
78.0968
77.9805
77.874
77.7767
77.6881
77.6078
77.5352
77.4702
77.4123
77.3614
77.3173
77.2798
77.2487
77.224
77.2055
77.1933
77.1871
75.6745
75.6806
75.6927
75.7109
75.7353
75.766
75.8031
75.8466
75.8968
75.9539
76.0181
76.0898
76.1691
76.2565
76.3525
76.4576
76.5723
76.6975
76.834
76.9828
77.1452
77.3226
77.5168
77.7302
77.9654
78.226
78.5165
78.8426
79.2121
79.6355
80.1276
80.71
81.2209
81.5691
81.9594
82.4043
82.9248
83.5615
106.365
116.87
116.87
106.365
83.5615
82.9248
82.4043
81.9594
81.5691
81.2209
80.71
80.1276
79.6355
79.2121
78.8426
78.5165
78.226
77.9654
77.7302
77.5168
77.3226
77.1452
76.9828
76.834
76.6975
76.5723
76.4576
76.3525
76.2565
76.1691
76.0898
76.0181
75.9539
75.8968
75.8466
75.8031
75.766
75.7353
75.7109
75.6927
75.6806
75.6745
74.1559
74.1619
74.1738
74.1917
74.2157
74.2459
74.2823
74.3251
74.3745
74.4306
74.4937
74.564
74.6419
74.7278
74.822
74.925
75.0375
75.16
75.2936
75.4389
75.5974
75.7701
75.9589
76.1657
76.3929
76.6435
76.9212
77.2308
77.5783
77.9712
78.4197
78.9361
79.369
79.6535
79.9565
80.276
80.6058
80.9842
105.878
116.205
116.205
105.878
80.9842
80.6058
80.276
79.9565
79.6535
79.369
78.9361
78.4197
77.9712
77.5783
77.2308
76.9212
76.6435
76.3929
76.1657
75.9589
75.7701
75.5974
75.4389
75.2936
75.16
75.0375
74.925
74.822
74.7278
74.6419
74.564
74.4937
74.4306
74.3745
74.3251
74.2823
74.2459
74.2157
74.1917
74.1738
74.1619
74.1559
72.6313
72.6371
72.6488
72.6664
72.6899
72.7194
72.7551
72.797
72.8454
72.9003
72.962
73.0308
73.1069
73.1907
73.2825
73.383
73.4925
73.6116
73.7412
73.8821
74.0352
74.2017
74.383
74.5808
74.7969
75.0338
75.2941
75.5812
75.8989
76.2515
76.6438
77.0793
77.4251
77.6449
77.8696
78.0958
78.3181
78.6072
97.2321
109.088
109.088
97.2321
78.6072
78.3181
78.0958
77.8696
77.6449
77.4251
77.0793
76.6438
76.2515
75.8989
75.5812
75.2941
75.0338
74.7969
74.5808
74.383
74.2017
74.0352
73.8821
73.7412
73.6116
73.4925
73.383
73.2825
73.1907
73.1069
73.0308
72.962
72.9003
72.8454
72.797
72.7551
72.7194
72.6899
72.6664
72.6488
72.6371
72.6313
71.1009
71.1066
71.118
71.1351
71.1581
71.1869
71.2217
71.2626
71.3097
71.3631
71.4232
71.4901
71.5641
71.6455
71.7346
71.8319
71.9378
72.0528
72.1776
72.313
72.4596
72.6185
72.7907
72.9775
73.1802
73.4006
73.6402
73.9009
74.1845
74.4923
74.8246
75.1791
75.4462
75.6112
75.775
75.9351
76.0886
76.3046
90.011
102.577
102.577
90.011
76.3046
76.0886
75.9351
75.775
75.6112
75.4462
75.1791
74.8246
74.4923
74.1845
73.9009
73.6402
73.4006
73.1802
72.9775
72.7907
72.6185
72.4596
72.313
72.1776
72.0528
71.9378
71.8319
71.7346
71.6455
71.5641
71.4901
71.4232
71.3631
71.3097
71.2626
71.2217
71.1869
71.1581
71.1351
71.118
71.1066
71.1009
69.5648
69.5703
69.5814
69.5981
69.6204
69.6484
69.6822
69.7219
69.7676
69.8194
69.8776
69.9424
70.014
70.0926
70.1785
70.2722
70.3739
70.4842
70.6036
70.7325
70.8717
71.0219
71.1838
71.3582
71.546
71.7481
71.9652
72.1978
72.4459
72.7086
72.9831
73.2638
73.4638
73.5838
73.6991
73.8079
73.9084
74.0477
82.9959
96.7594
96.7594
82.9959
74.0477
73.9084
73.8079
73.6991
73.5838
73.4638
73.2638
72.9831
72.7086
72.4459
72.1978
71.9652
71.7481
71.546
71.3582
71.1838
71.0219
70.8717
70.7325
70.6036
70.4842
70.3739
70.2722
70.1785
70.0926
70.014
69.9424
69.8776
69.8194
69.7676
69.7219
69.6822
69.6484
69.6204
69.5981
69.5814
69.5703
69.5648
68.0232
68.0285
68.0393
68.0554
68.077
68.1041
68.1368
68.1751
68.2193
68.2694
68.3255
68.3879
68.4568
68.5323
68.6147
68.7044
68.8015
68.9066
69.0199
69.1419
69.2729
69.4136
69.5643
69.7255
69.8975
70.0806
70.2747
70.4792
70.6928
70.913
71.1353
71.3523
71.4969
71.5802
71.656
71.7226
71.7778
71.839
75.5344
91.5891
91.5891
75.5344
71.839
71.7778
71.7226
71.656
71.5802
71.4969
71.3523
71.1353
70.913
70.6928
70.4792
70.2747
70.0806
69.8975
69.7255
69.5643
69.4136
69.2729
69.1419
69.0199
68.9066
68.8015
68.7044
68.6147
68.5323
68.4568
68.3879
68.3255
68.2694
68.2193
68.1751
68.1368
68.1041
68.077
68.0554
68.0393
68.0285
68.0232
66.4762
66.4813
66.4917
66.5073
66.5281
66.5542
66.5857
66.6226
66.6651
66.7132
66.7672
66.827
66.8929
66.9651
67.0437
67.129
67.2213
67.3207
67.4275
67.5421
67.6646
67.7953
67.9344
68.082
68.238
68.4021
68.5737
68.7514
68.9331
69.1154
69.2929
69.4576
69.5589
69.614
69.66
69.695
69.7161
69.7212
69.7151
88.7189
88.7189
69.7151
69.7212
69.7161
69.695
69.66
69.614
69.5589
69.4576
69.2929
69.1154
68.9331
68.7514
68.5737
68.4021
68.238
68.082
67.9344
67.7953
67.6646
67.5421
67.4275
67.3207
67.2213
67.129
67.0437
66.9651
66.8929
66.827
66.7672
66.7132
66.6651
66.6226
66.5857
66.5542
66.5281
66.5073
66.4917
66.4813
66.4762
64.924
64.929
64.9389
64.9539
64.9739
64.999
65.0292
65.0646
65.1053
65.1513
65.2029
65.26
65.3228
65.3914
65.466
65.5468
65.6338
65.7273
65.8275
65.9343
66.048
66.1686
66.296
66.43
66.5703
66.7162
66.8666
67.0197
67.1729
67.3226
67.4632
67.5874
67.6576
67.6934
67.7205
67.7372
67.7417
67.7322
67.7185
87.3555
87.3555
67.7185
67.7322
67.7417
67.7372
67.7205
67.6934
67.6576
67.5874
67.4632
67.3226
67.1729
67.0197
66.8666
66.7162
66.5703
66.43
66.296
66.1686
66.048
65.9343
65.8275
65.7273
65.6338
65.5468
65.466
65.3914
65.3228
65.26
65.2029
65.1513
65.1053
65.0646
65.0292
64.999
64.9739
64.9539
64.9389
64.929
64.924
63.3668
63.3716
63.3811
63.3955
63.4146
63.4386
63.4675
63.5013
63.5401
63.584
63.633
63.6872
63.7468
63.8117
63.8822
63.9582
64.0399
64.1274
64.2207
64.3197
64.4245
64.535
64.6509
64.7718
64.8971
65.0259
65.1567
65.2878
65.4163
65.5387
65.6501
65.744
65.7934
65.8172
65.8335
65.8411
65.8385
65.824
65.8091
67.5666
67.5666
65.8091
65.824
65.8385
65.8411
65.8335
65.8172
65.7934
65.744
65.6501
65.5387
65.4163
65.2878
65.1567
65.0259
64.8971
64.7718
64.6509
64.535
64.4245
64.3197
64.2207
64.1274
64.0399
63.9582
63.8822
63.8117
63.7468
63.6872
63.633
63.584
63.5401
63.5013
63.4675
63.4386
63.4146
63.3955
63.3811
63.3716
63.3668
61.8051
61.8096
61.8187
61.8324
61.8506
61.8735
61.901
61.9331
61.97
62.0116
62.0581
62.1094
62.1656
62.2268
62.293
62.3642
62.4405
62.5219
62.6083
62.6996
62.7957
62.8963
63.0011
63.1095
63.2207
63.3337
63.447
63.5587
63.6662
63.7663
63.8548
63.9268
63.9628
63.9798
63.9912
63.9967
63.9963
63.9906
63.9809
65.7888
65.7888
63.9809
63.9906
63.9963
63.9967
63.9912
63.9798
63.9628
63.9268
63.8548
63.7663
63.6662
63.5587
63.447
63.3337
63.2207
63.1095
63.0011
62.8963
62.7957
62.6996
62.6083
62.5219
62.4405
62.3642
62.293
62.2268
62.1656
62.1094
62.0581
62.0116
61.97
61.9331
61.901
61.8735
61.8506
61.8324
61.8187
61.8096
61.8051
60.2388
60.2431
60.2518
60.2648
60.2821
60.3038
60.3298
60.3603
60.3952
60.4345
60.4783
60.5266
60.5795
60.6368
60.6987
60.7651
60.836
60.9113
60.9909
61.0747
61.1623
61.2535
61.3477
61.4443
61.5426
61.6413
61.7389
61.8338
61.9236
62.0054
62.076
62.1317
62.1584
62.1708
62.1788
62.1823
62.1813
62.176
62.1664
64.0032
64.0032
62.1664
62.176
62.1813
62.1823
62.1788
62.1708
62.1584
62.1317
62.076
62.0054
61.9236
61.8338
61.7389
61.6413
61.5426
61.4443
61.3477
61.2535
61.1623
61.0747
60.9909
60.9113
60.836
60.7651
60.6987
60.6368
60.5795
60.5266
60.4783
60.4345
60.3952
60.3603
60.3298
60.3038
60.2821
60.2648
60.2518
60.2431
60.2388
58.6682
58.6723
58.6805
58.6928
58.7092
58.7297
58.7543
58.783
58.8159
58.8529
58.894
58.9393
58.9888
59.0423
59.0999
59.1616
59.2271
59.2965
59.3695
59.4459
59.5254
59.6075
59.6919
59.7776
59.864
59.9498
60.0337
60.114
60.1888
60.2557
60.3121
60.3553
60.375
60.3837
60.3889
60.3905
60.3883
60.3825
60.3729
62.2309
62.2309
60.3729
60.3825
60.3883
60.3905
60.3889
60.3837
60.375
60.3553
60.3121
60.2557
60.1888
60.114
60.0337
59.9498
59.864
59.7776
59.6919
59.6075
59.5254
59.4459
59.3695
59.2965
59.2271
59.1616
59.0999
59.0423
58.9888
58.9393
58.894
58.8529
58.8159
58.783
58.7543
58.7297
58.7092
58.6928
58.6805
58.6723
58.6682
57.0935
57.0974
57.1051
57.1167
57.1321
57.1514
57.1746
57.2016
57.2324
57.2671
57.3056
57.3479
57.394
57.4438
57.4972
57.5541
57.6144
57.678
57.7447
57.814
57.8858
57.9595
58.0346
58.1103
58.1859
58.2602
58.332
58.3999
58.462
58.5165
58.5614
58.5946
58.6088
58.6147
58.6175
58.6173
58.614
58.6076
58.598
60.4804
60.4804
58.598
58.6076
58.614
58.6173
58.6175
58.6147
58.6088
58.5946
58.5614
58.5165
58.462
58.3999
58.332
58.2602
58.1859
58.1103
58.0346
57.9595
57.8858
57.814
57.7447
57.678
57.6144
57.5541
57.4972
57.4438
57.394
57.3479
57.3056
57.2671
57.2324
57.2016
57.1746
57.1514
57.1321
57.1167
57.1051
57.0974
57.0935
55.515
55.5186
55.5259
55.5368
55.5512
55.5693
55.591
55.6163
55.6452
55.6775
55.7134
55.7528
55.7955
55.8416
55.8908
55.9432
55.9985
56.0565
56.1171
56.1797
56.2442
56.31
56.3766
56.4432
56.509
56.5731
56.6343
56.6914
56.7428
56.787
56.8225
56.8475
56.8572
56.8607
56.8616
56.8599
56.8556
56.8486
56.8389
58.7504
58.7504
56.8389
56.8486
56.8556
56.8599
56.8616
56.8607
56.8572
56.8475
56.8225
56.787
56.7428
56.6914
56.6343
56.5731
56.509
56.4432
56.3766
56.31
56.2442
56.1797
56.1171
56.0565
55.9985
55.9432
55.8908
55.8416
55.7955
55.7528
55.7134
55.6775
55.6452
55.6163
55.591
55.5693
55.5512
55.5368
55.5259
55.5186
55.515
53.9328
53.9362
53.943
53.9532
53.9667
53.9837
54.0039
54.0275
54.0544
54.0845
54.1178
54.1542
54.1937
54.2361
54.2814
54.3294
54.3798
54.4326
54.4873
54.5437
54.6014
54.6598
54.7185
54.7768
54.8339
54.8889
54.9408
54.9885
55.0307
55.0663
55.0938
55.1122
55.1181
55.1196
55.1189
55.1159
55.1107
55.1032
55.0933