/*--------------------------------*- C++ -*----------------------------------*\
  =========                 |
  \\      /  F ield         | OpenFOAM: The Open Source CFD Toolbox
   \\    /   O peration     | Website:  https://openfoam.org
    \\  /    A nd           | Version:  10
     \\/     M anipulation  |
\*---------------------------------------------------------------------------*/
FoamFile
{
    format      ascii;
    class       surfaceScalarField;
    location    "4600";
    object      phi;
}
// * * * * * * * * * * * * * * * * * * * * * * * * * * * * * * * * * * * * * //

dimensions      [0 3 -1 0 0 0 0];

internalField   nonuniform List<scalar> 
12640
(
-5.90377e-09
5.90377e-09
-1.17923e-08
5.88851e-09
-1.765e-08
5.85769e-09
-2.34606e-08
5.81068e-09
-2.92072e-08
5.74654e-09
-3.48712e-08
5.66403e-09
-4.04328e-08
5.56154e-09
-4.58699e-08
5.43716e-09
-5.11586e-08
5.28865e-09
-5.6272e-08
5.11339e-09
-6.11804e-08
4.90847e-09
-6.58511e-08
4.67066e-09
-7.02475e-08
4.39643e-09
-7.43295e-08
4.08202e-09
-7.80531e-08
3.72351e-09
-8.137e-08
3.3169e-09
-8.42282e-08
2.85829e-09
-8.65723e-08
2.34403e-09
-8.83433e-08
1.77099e-09
-8.94801e-08
1.13682e-09
-8.99204e-08
4.40338e-10
-8.96024e-08
-3.18056e-10
-8.84664e-08
-1.13594e-09
-8.64581e-08
-2.00835e-09
-8.35307e-08
-2.92737e-09
-7.96491e-08
-3.88163e-09
-7.4793e-08
-4.8561e-09
-6.8961e-08
-5.83198e-09
-6.21741e-08
-6.78693e-09
-5.44784e-08
-7.69565e-09
-4.59476e-08
-8.53085e-09
-3.66829e-08
-9.26468e-09
-3.23708e-08
-4.31207e-09
-2.79518e-08
-4.41899e-09
-2.34395e-08
-4.51232e-09
-1.88482e-08
-4.59132e-09
-1.41929e-08
-4.65532e-09
-9.48907e-09
-4.70381e-09
-4.75271e-09
-4.73636e-09
-5.42541e-20
-4.75271e-09
4.75271e-09
-4.75271e-09
9.48907e-09
-4.73636e-09
1.41929e-08
-4.70381e-09
1.88482e-08
-4.65532e-09
2.34395e-08
-4.59132e-09
2.79518e-08
-4.51232e-09
3.23708e-08
-4.41899e-09
3.66829e-08
-4.31207e-09
4.59476e-08
-9.26468e-09
5.44784e-08
-8.53085e-09
6.21741e-08
-7.69565e-09
6.8961e-08
-6.78693e-09
7.4793e-08
-5.83198e-09
7.96491e-08
-4.8561e-09
8.35307e-08
-3.88163e-09
8.64581e-08
-2.92737e-09
8.84664e-08
-2.00835e-09
8.96024e-08
-1.13594e-09
8.99204e-08
-3.18056e-10
8.94801e-08
4.40338e-10
8.83433e-08
1.13682e-09
8.65723e-08
1.77099e-09
8.42282e-08
2.34403e-09
8.137e-08
2.85829e-09
7.80531e-08
3.3169e-09
7.43295e-08
3.72351e-09
7.02475e-08
4.08202e-09
6.58511e-08
4.39643e-09
6.11804e-08
4.67066e-09
5.6272e-08
4.90847e-09
5.11586e-08
5.11339e-09
4.58699e-08
5.28865e-09
4.04328e-08
5.43716e-09
3.48712e-08
5.56154e-09
2.92072e-08
5.66403e-09
2.34606e-08
5.74654e-09
1.765e-08
5.81068e-09
1.17923e-08
5.85769e-09
5.90377e-09
5.88851e-09
5.90377e-09
-6.47612e-09
1.23799e-08
-1.29355e-08
1.23479e-08
-1.93612e-08
1.22833e-08
-2.57353e-08
1.21848e-08
-3.20391e-08
1.20504e-08
-3.82525e-08
1.18774e-08
-4.43536e-08
1.16626e-08
-5.03183e-08
1.14019e-08
-5.61203e-08
1.10906e-08
-6.17302e-08
1.07233e-08
-6.71155e-08
1.02938e-08
-7.22402e-08
9.79529e-09
-7.70642e-08
9.22046e-09
-8.15435e-08
8.56138e-09
-8.56299e-08
7.80983e-09
-8.92704e-08
6.95743e-09
-9.24081e-08
5.99598e-09
-9.49819e-08
4.91782e-09
-9.69272e-08
3.71636e-09
-9.81771e-08
2.38667e-09
-9.8663e-08
9.26253e-10
-9.8317e-08
-6.6408e-10
-9.70736e-08
-2.37927e-09
-9.4873e-08
-4.20895e-09
-9.16639e-08
-6.1365e-09
-8.74074e-08
-8.13813e-09
-8.20812e-08
-1.01823e-08
-7.56835e-08
-1.22296e-08
-6.82373e-08
-1.42332e-08
-5.9793e-08
-1.61399e-08
-5.04313e-08
-1.78925e-08
-4.02635e-08
-1.94325e-08
-3.55308e-08
-9.04473e-09
-3.06807e-08
-9.26912e-09
-2.5728e-08
-9.465e-09
-2.06886e-08
-9.63079e-09
-1.55788e-08
-9.76513e-09
-1.04157e-08
-9.86689e-09
-5.21682e-09
-9.93522e-09
3.03577e-18
-9.96953e-09
5.21682e-09
-9.96953e-09
1.04157e-08
-9.93522e-09
1.55788e-08
-9.86689e-09
2.06886e-08
-9.76513e-09
2.5728e-08
-9.63079e-09
3.06807e-08
-9.465e-09
3.55308e-08
-9.26912e-09
4.02635e-08
-9.04473e-09
5.04313e-08
-1.94325e-08
5.9793e-08
-1.78925e-08
6.82373e-08
-1.61399e-08
7.56835e-08
-1.42332e-08
8.20812e-08
-1.22296e-08
8.74074e-08
-1.01823e-08
9.16639e-08
-8.13813e-09
9.4873e-08
-6.1365e-09
9.70736e-08
-4.20895e-09
9.8317e-08
-2.37927e-09
9.8663e-08
-6.6408e-10
9.81771e-08
9.26253e-10
9.69272e-08
2.38667e-09
9.49819e-08
3.71636e-09
9.24081e-08
4.91782e-09
8.92704e-08
5.99598e-09
8.56299e-08
6.95743e-09
8.15435e-08
7.80983e-09
7.70642e-08
8.56138e-09
7.22402e-08
9.22046e-09
6.71155e-08
9.79529e-09
6.17302e-08
1.02938e-08
5.61203e-08
1.07233e-08
5.03183e-08
1.10906e-08
4.43536e-08
1.14019e-08
3.82525e-08
1.16626e-08
3.20391e-08
1.18774e-08
2.57353e-08
1.20504e-08
1.93612e-08
1.21848e-08
1.29355e-08
1.22833e-08
6.47612e-09
1.23479e-08
1.23799e-08
-7.105e-09
1.94849e-08
-1.41917e-08
1.94346e-08
-2.12414e-08
1.9333e-08
-2.82348e-08
1.91781e-08
-3.51512e-08
1.89668e-08
-4.19686e-08
1.86948e-08
-4.8663e-08
1.83571e-08
-5.52082e-08
1.79471e-08
-6.15752e-08
1.74576e-08
-6.77318e-08
1.68799e-08
-7.36425e-08
1.62044e-08
-7.92677e-08
1.54205e-08
-8.45636e-08
1.45164e-08
-8.94819e-08
1.34797e-08
-9.39697e-08
1.22976e-08
-9.79689e-08
1.09567e-08
-1.01417e-07
9.44414e-09
-1.04247e-07
7.74786e-09
-1.06388e-07
5.85742e-09
-1.07767e-07
3.76501e-09
-1.08307e-07
1.46664e-09
-1.07935e-07
-1.03647e-09
-1.06577e-07
-3.73644e-09
-1.04169e-07
-6.61703e-09
-1.00654e-07
-9.65212e-09
-9.59875e-08
-1.28043e-08
-9.01457e-08
-1.60241e-08
-8.31261e-08
-1.92492e-08
-7.49533e-08
-2.2406e-08
-6.56826e-08
-2.54106e-08
-5.54023e-08
-2.81728e-08
-4.42347e-08
-3.06002e-08
-3.90361e-08
-1.42434e-08
-3.37081e-08
-1.45971e-08
-2.82671e-08
-1.49059e-08
-2.27306e-08
-1.51673e-08
-1.71166e-08
-1.53791e-08
-1.14439e-08
-1.55396e-08
-5.73187e-09
-1.56473e-08
6.77584e-18
-1.57014e-08
5.73187e-09
-1.57014e-08
1.14439e-08
-1.56473e-08
1.71166e-08
-1.55396e-08
2.27306e-08
-1.53791e-08
2.82671e-08
-1.51673e-08
3.37081e-08
-1.49059e-08
3.90361e-08
-1.45971e-08
4.42347e-08
-1.42434e-08
5.54023e-08
-3.06002e-08
6.56826e-08
-2.81728e-08
7.49533e-08
-2.54106e-08
8.31261e-08
-2.2406e-08
9.01457e-08
-1.92492e-08
9.59875e-08
-1.60241e-08
1.00654e-07
-1.28043e-08
1.04169e-07
-9.65212e-09
1.06577e-07
-6.61703e-09
1.07935e-07
-3.73644e-09
1.08307e-07
-1.03647e-09
1.07767e-07
1.46664e-09
1.06388e-07
3.76501e-09
1.04247e-07
5.85742e-09
1.01417e-07
7.74786e-09
9.79689e-08
9.44414e-09
9.39697e-08
1.09567e-08
8.94819e-08
1.22976e-08
8.45636e-08
1.34797e-08
7.92677e-08
1.45164e-08
7.36425e-08
1.54205e-08
6.77318e-08
1.62044e-08
6.15752e-08
1.68799e-08
5.52082e-08
1.74576e-08
4.8663e-08
1.79471e-08
4.19686e-08
1.83571e-08
3.51512e-08
1.86948e-08
2.82348e-08
1.89668e-08
2.12414e-08
1.91781e-08
1.41917e-08
1.9333e-08
7.105e-09
1.94346e-08
1.94849e-08
-7.7964e-09
2.72813e-08
-1.55728e-08
2.7211e-08
-2.33088e-08
2.7069e-08
-3.09831e-08
2.68525e-08
-3.85734e-08
2.6557e-08
-4.60554e-08
2.61768e-08
-5.3403e-08
2.57046e-08
-6.05874e-08
2.51315e-08
-6.75769e-08
2.44471e-08
-7.43364e-08
2.36394e-08
-8.08268e-08
2.26949e-08
-8.70049e-08
2.15986e-08
-9.28227e-08
2.03342e-08
-9.82273e-08
1.88843e-08
-1.03161e-07
1.72308e-08
-1.07559e-07
1.5355e-08
-1.11353e-07
1.32388e-08
-1.14471e-07
1.08653e-08
-1.16833e-07
8.21967e-09
-1.18359e-07
5.29096e-09
-1.18966e-07
2.07344e-09
-1.18571e-07
-1.43139e-09
-1.17095e-07
-5.2126e-09
-1.14464e-07
-9.24764e-09
-1.10616e-07
-1.35001e-08
-1.05503e-07
-1.79177e-08
-9.90959e-08
-2.24311e-08
-9.13919e-08
-2.69532e-08
-8.24173e-08
-3.13806e-08
-7.22323e-08
-3.55956e-08
-6.09336e-08
-3.94714e-08
-4.86555e-08
-4.28782e-08
-4.29389e-08
-1.996e-08
-3.70793e-08
-2.04566e-08
-3.10951e-08
-2.08902e-08
-2.50052e-08
-2.12572e-08
-1.88298e-08
-2.15546e-08
-1.25895e-08
-2.17798e-08
-6.30569e-09
-2.19311e-08
9.4321e-18
-2.20071e-08
6.30569e-09
-2.20071e-08
1.25895e-08
-2.19311e-08
1.88298e-08
-2.17798e-08
2.50052e-08
-2.15546e-08
3.10951e-08
-2.12572e-08
3.70793e-08
-2.08902e-08
4.29389e-08
-2.04566e-08
4.86555e-08
-1.996e-08
6.09336e-08
-4.28782e-08
7.22323e-08
-3.94714e-08
8.24173e-08
-3.55956e-08
9.13919e-08
-3.13806e-08
9.90959e-08
-2.69532e-08
1.05503e-07
-2.24311e-08
1.10616e-07
-1.79177e-08
1.14464e-07
-1.35001e-08
1.17095e-07
-9.24764e-09
1.18571e-07
-5.2126e-09
1.18966e-07
-1.43139e-09
1.18359e-07
2.07344e-09
1.16833e-07
5.29096e-09
1.14471e-07
8.21967e-09
1.11353e-07
1.08653e-08
1.07559e-07
1.32388e-08
1.03161e-07
1.5355e-08
9.82273e-08
1.72308e-08
9.28227e-08
1.88843e-08
8.70049e-08
2.03342e-08
8.08268e-08
2.15986e-08
7.43364e-08
2.26949e-08
6.75769e-08
2.36394e-08
6.05874e-08
2.44471e-08
5.3403e-08
2.51315e-08
4.60554e-08
2.57046e-08
3.85734e-08
2.61768e-08
3.09831e-08
2.6557e-08
2.33088e-08
2.68525e-08
1.55728e-08
2.7069e-08
7.7964e-09
2.7211e-08
2.72813e-08
-8.5571e-09
3.58384e-08
-1.70924e-08
3.57463e-08
-2.55836e-08
3.55602e-08
-3.40075e-08
3.52764e-08
-4.23397e-08
3.48892e-08
-5.05538e-08
3.43909e-08
-5.86211e-08
3.3772e-08
-6.65104e-08
3.30208e-08
-7.41869e-08
3.21236e-08
-8.16121e-08
3.10647e-08
-8.87436e-08
2.98263e-08
-9.55338e-08
2.83888e-08
-1.0193e-07
2.67307e-08
-1.07875e-07
2.48291e-08
-1.13304e-07
2.266e-08
-1.18148e-07
2.0199e-08
-1.22332e-07
1.74222e-08
-1.25773e-07
1.4307e-08
-1.28388e-07
1.08341e-08
-1.30085e-07
6.98857e-09
-1.30775e-07
2.76275e-09
-1.30364e-07
-1.84167e-09
-1.28766e-07
-6.81069e-09
-1.25899e-07
-1.2115e-08
-1.21692e-07
-1.7707e-08
-1.16092e-07
-2.35183e-08
-1.09065e-07
-2.94577e-08
-1.00607e-07
-3.5411e-08
-9.0746e-08
-4.12417e-08
-7.95468e-08
-4.67949e-08
-6.71153e-08
-5.19029e-08
-5.35993e-08
-5.63942e-08
-4.73044e-08
-2.62549e-08
-4.08511e-08
-2.69099e-08
-3.42596e-08
-2.74817e-08
-2.75509e-08
-2.79658e-08
-2.07473e-08
-2.83581e-08
-1.38718e-08
-2.86553e-08
-6.94805e-09
-2.88549e-08
7.53419e-18
-2.89551e-08
6.94805e-09
-2.89551e-08
1.38718e-08
-2.88549e-08
2.07473e-08
-2.86553e-08
2.75509e-08
-2.83581e-08
3.42596e-08
-2.79658e-08
4.08511e-08
-2.74817e-08
4.73044e-08
-2.69099e-08
5.35993e-08
-2.62549e-08
6.71153e-08
-5.63942e-08
7.95468e-08
-5.19029e-08
9.0746e-08
-4.67949e-08
1.00607e-07
-4.12417e-08
1.09065e-07
-3.5411e-08
1.16092e-07
-2.94577e-08
1.21692e-07
-2.35183e-08
1.25899e-07
-1.7707e-08
1.28766e-07
-1.2115e-08
1.30364e-07
-6.81069e-09
1.30775e-07
-1.84167e-09
1.30085e-07
2.76275e-09
1.28388e-07
6.98857e-09
1.25773e-07
1.08341e-08
1.22332e-07
1.4307e-08
1.18148e-07
1.74222e-08
1.13304e-07
2.0199e-08
1.07875e-07
2.266e-08
1.0193e-07
2.48291e-08
9.55338e-08
2.67307e-08
8.87436e-08
2.83888e-08
8.16121e-08
2.98263e-08
7.41869e-08
3.10647e-08
6.65104e-08
3.21236e-08
5.86211e-08
3.30208e-08
5.05538e-08
3.3772e-08
4.23397e-08
3.43909e-08
3.40075e-08
3.48892e-08
2.55836e-08
3.52764e-08
1.70924e-08
3.55602e-08
8.5571e-09
3.57463e-08
3.58384e-08
-9.39481e-09
4.52332e-08
-1.87659e-08
4.51174e-08
-2.80889e-08
4.48833e-08
-3.73388e-08
4.45263e-08
-4.64888e-08
4.40392e-08
-5.55102e-08
4.34123e-08
-6.43719e-08
4.26336e-08
-7.30395e-08
4.16884e-08
-8.14754e-08
4.05594e-08
-8.96375e-08
3.92268e-08
-9.74792e-08
3.76681e-08
-1.04949e-07
3.58584e-08
-1.11989e-07
3.37707e-08
-1.18536e-07
3.1376e-08
-1.2452e-07
2.86439e-08
-1.29864e-07
2.55435e-08
-1.34486e-07
2.20443e-08
-1.38297e-07
1.81177e-08
-1.41202e-07
1.37387e-08
-1.43101e-07
8.88839e-09
-1.43895e-07
3.55648e-09
-1.43481e-07
-2.2554e-09
-1.41762e-07
-8.53015e-09
-1.38646e-07
-1.52313e-08
-1.34053e-07
-2.22994e-08
-1.27923e-07
-2.96483e-08
-1.20218e-07
-3.71633e-08
-1.10929e-07
-4.46999e-08
-1.00085e-07
-5.20853e-08
-8.77572e-08
-5.91228e-08
-7.40607e-08
-6.55994e-08
-5.91583e-08
-7.12967e-08
-5.22146e-08
-3.31986e-08
-4.50946e-08
-3.40298e-08
-3.78206e-08
-3.47557e-08
-3.04162e-08
-3.53703e-08
-2.29059e-08
-3.58684e-08
-1.53155e-08
-3.62457e-08
-7.67129e-09
-3.64992e-08
1.02778e-18
-3.66264e-08
7.67129e-09
-3.66264e-08
1.53155e-08
-3.64992e-08
2.29059e-08
-3.62457e-08
3.04162e-08
-3.58684e-08
3.78206e-08
-3.53703e-08
4.50946e-08
-3.47557e-08
5.22146e-08
-3.40298e-08
5.91583e-08
-3.31986e-08
7.40607e-08
-7.12967e-08
8.77572e-08
-6.55994e-08
1.00085e-07
-5.91228e-08
1.10929e-07
-5.20853e-08
1.20218e-07
-4.46999e-08
1.27923e-07
-3.71633e-08
1.34053e-07
-2.96483e-08
1.38646e-07
-2.22994e-08
1.41762e-07
-1.52313e-08
1.43481e-07
-8.53015e-09
1.43895e-07
-2.2554e-09
1.43101e-07
3.55648e-09
1.41202e-07
8.88839e-09
1.38297e-07
1.37387e-08
1.34486e-07
1.81177e-08
1.29864e-07
2.20443e-08
1.2452e-07
2.55435e-08
1.18536e-07
2.86439e-08
1.11989e-07
3.1376e-08
1.04949e-07
3.37707e-08
9.74792e-08
3.58584e-08
8.96375e-08
3.76681e-08
8.14754e-08
3.92268e-08
7.30395e-08
4.05594e-08
6.43719e-08
4.16884e-08
5.55102e-08
4.26336e-08
4.64888e-08
4.34123e-08
3.73388e-08
4.40392e-08
2.80889e-08
4.45263e-08
1.87659e-08
4.48833e-08
9.39481e-09
4.51174e-08
4.52332e-08
-1.03183e-08
5.55515e-08
-2.06109e-08
5.54099e-08
-3.08514e-08
5.51238e-08
-4.10125e-08
5.46874e-08
-5.10651e-08
5.40919e-08
-6.09782e-08
5.33254e-08
-7.07179e-08
5.23733e-08
-8.02468e-08
5.12173e-08
-8.95238e-08
4.98364e-08
-9.85032e-08
4.82062e-08
-1.07134e-07
4.62991e-08
-1.1536e-07
4.40846e-08
-1.23119e-07
4.15292e-08
-1.3034e-07
3.85973e-08
-1.36948e-07
3.52514e-08
-1.42857e-07
3.14532e-08
-1.47978e-07
2.71651e-08
-1.52212e-07
2.23514e-08
-1.55454e-07
1.6981e-08
-1.57596e-07
1.10298e-08
-1.58524e-07
4.48454e-09
-1.58125e-07
-2.65377e-09
-1.5629e-07
-1.0365e-08
-1.52916e-07
-1.86055e-08
-1.47913e-07
-2.73028e-08
-1.41209e-07
-3.6352e-08
-1.3276e-07
-4.56125e-08
-1.22554e-07
-5.49063e-08
-1.10618e-07
-6.40204e-08
-9.70298e-08
-7.27115e-08
-8.19138e-08
-8.07154e-08
-6.54499e-08
-8.77606e-08
-5.77741e-08
-4.08744e-08
-4.99009e-08
-4.19031e-08
-4.18551e-08
-4.28015e-08
-3.36631e-08
-4.35623e-08
-2.53525e-08
-4.4179e-08
-1.69521e-08
-4.46462e-08
-8.4912e-09
-4.496e-08
-2.93098e-18
-4.51176e-08
8.4912e-09
-4.51176e-08
1.69521e-08
-4.496e-08
2.53525e-08
-4.46462e-08
3.36631e-08
-4.4179e-08
4.18551e-08
-4.35623e-08
4.99009e-08
-4.28015e-08
5.77741e-08
-4.19031e-08
6.54499e-08
-4.08744e-08
8.19138e-08
-8.77606e-08
9.70298e-08
-8.07154e-08
1.10618e-07
-7.27115e-08
1.22554e-07
-6.40204e-08
1.3276e-07
-5.49063e-08
1.41209e-07
-4.56125e-08
1.47913e-07
-3.6352e-08
1.52916e-07
-2.73028e-08
1.5629e-07
-1.86055e-08
1.58125e-07
-1.0365e-08
1.58524e-07
-2.65377e-09
1.57596e-07
4.48454e-09
1.55454e-07
1.10298e-08
1.52212e-07
1.6981e-08
1.47978e-07
2.23514e-08
1.42857e-07
2.71651e-08
1.36948e-07
3.14532e-08
1.3034e-07
3.52514e-08
1.23119e-07
3.85973e-08
1.1536e-07
4.15292e-08
1.07134e-07
4.40846e-08
9.85032e-08
4.62991e-08
8.95238e-08
4.82062e-08
8.02468e-08
4.98364e-08
7.07179e-08
5.12173e-08
6.09782e-08
5.23733e-08
5.10651e-08
5.33254e-08
4.10125e-08
5.40919e-08
3.08514e-08
5.46874e-08
2.06109e-08
5.51238e-08
1.03183e-08
5.54099e-08
5.55515e-08
-1.13378e-08
6.68893e-08
-2.26477e-08
6.67199e-08
-3.39014e-08
6.63775e-08
-4.50693e-08
6.58552e-08
-5.61199e-08
6.51425e-08
-6.70196e-08
6.42251e-08
-7.77316e-08
6.30853e-08
-8.82155e-08
6.17013e-08
-9.84267e-08
6.00476e-08
-1.08315e-07
5.8095e-08
-1.17827e-07
5.58102e-08
-1.26898e-07
5.31563e-08
-1.35462e-07
5.00931e-08
-1.43442e-07
4.65773e-08
-1.50755e-07
4.25637e-08
-1.57307e-07
3.80057e-08
-1.62999e-07
3.28574e-08
-1.67723e-07
2.70753e-08
-1.71363e-07
2.06208e-08
-1.73798e-07
1.34642e-08
-1.74901e-07
5.58786e-09
-1.74546e-07
-3.00819e-09
-1.7261e-07
-1.23014e-08
-1.68975e-07
-2.22405e-08
-1.63538e-07
-3.274e-08
-1.56215e-07
-4.36745e-08
-1.46953e-07
-5.48749e-08
-1.35733e-07
-6.61268e-08
-1.22581e-07
-7.71721e-08
-1.07577e-07
-8.77149e-08
-9.08598e-08
-9.7433e-08
-7.26261e-08
-1.05994e-07
-6.41182e-08
-4.93823e-08
-5.53877e-08
-5.06336e-08
-4.64625e-08
-5.17267e-08
-3.73722e-08
-5.26525e-08
-2.8148e-08
-5.34031e-08
-1.88223e-08
-5.3972e-08
-9.42828e-09
-5.4354e-08
-6.61098e-18
-5.45459e-08
9.42828e-09
-5.45459e-08
1.88223e-08
-5.4354e-08
2.8148e-08
-5.3972e-08
3.73722e-08
-5.34031e-08
4.64625e-08
-5.26525e-08
5.53877e-08
-5.17267e-08
6.41182e-08
-5.06336e-08
7.26261e-08
-4.93823e-08
9.08598e-08
-1.05994e-07
1.07577e-07
-9.7433e-08
1.22581e-07
-8.77149e-08
1.35733e-07
-7.71721e-08
1.46953e-07
-6.61268e-08
1.56215e-07
-5.48749e-08
1.63538e-07
-4.36745e-08
1.68975e-07
-3.274e-08
1.7261e-07
-2.22405e-08
1.74546e-07
-1.23014e-08
1.74901e-07
-3.00819e-09
1.73798e-07
5.58786e-09
1.71363e-07
1.34642e-08
1.67723e-07
2.06208e-08
1.62999e-07
2.70753e-08
1.57307e-07
3.28574e-08
1.50755e-07
3.80057e-08
1.43442e-07
4.25637e-08
1.35462e-07
4.65773e-08
1.26898e-07
5.00931e-08
1.17827e-07
5.31563e-08
1.08315e-07
5.58102e-08
9.84267e-08
5.8095e-08
8.82155e-08
6.00476e-08
7.77316e-08
6.17013e-08
6.70196e-08
6.30853e-08
5.61199e-08
6.42251e-08
4.50693e-08
6.51425e-08
3.39014e-08
6.58552e-08
2.26477e-08
6.63775e-08
1.13378e-08
6.67199e-08
6.68893e-08
-1.24649e-08
7.93543e-08
-2.48999e-08
7.91549e-08
-3.72744e-08
7.8752e-08
-4.95566e-08
7.81374e-08
-6.17127e-08
7.72985e-08
-7.37063e-08
7.62187e-08
-8.54978e-08
7.48768e-08
-9.70435e-08
7.3247e-08
-1.08295e-07
7.12993e-08
-1.19199e-07
6.89988e-08
-1.29695e-07
6.63061e-08
-1.39716e-07
6.31773e-08
-1.49187e-07
5.95646e-08
-1.58027e-07
5.54164e-08
-1.66141e-07
5.06784e-08
-1.7343e-07
4.5295e-08
-1.79784e-07
3.92108e-08
-1.85082e-07
3.2373e-08
-1.89195e-07
2.47348e-08
-1.9199e-07
1.62589e-08
-1.93325e-07
6.92274e-09
-1.93057e-07
-3.27613e-09
-1.91045e-07
-1.43133e-08
-1.87155e-07
-2.61304e-08
-1.81267e-07
-3.86282e-08
-1.73282e-07
-5.16598e-08
-1.63131e-07
-6.50252e-08
-1.50789e-07
-7.84695e-08
-1.36277e-07
-9.16842e-08
-1.19678e-07
-1.04314e-07
-1.01141e-07
-1.1597e-07
-8.08854e-08
-1.2625e-07
-7.14241e-08
-5.88437e-08
-6.17095e-08
-6.03481e-08
-5.17733e-08
-6.16629e-08
-4.16492e-08
-6.27767e-08
-3.13724e-08
-6.36799e-08
-2.09799e-08
-6.43645e-08
-1.05095e-08
-6.48244e-08
-1.77809e-17
-6.50554e-08
1.05095e-08
-6.50554e-08
2.09799e-08
-6.48244e-08
3.13724e-08
-6.43645e-08
4.16492e-08
-6.36799e-08
5.17733e-08
-6.27767e-08
6.17095e-08
-6.16629e-08
7.14241e-08
-6.03481e-08
8.08854e-08
-5.88437e-08
1.01141e-07
-1.2625e-07
1.19678e-07
-1.1597e-07
1.36277e-07
-1.04314e-07
1.50789e-07
-9.16842e-08
1.63131e-07
-7.84695e-08
1.73282e-07
-6.50252e-08
1.81267e-07
-5.16598e-08
1.87155e-07
-3.86282e-08
1.91045e-07
-2.61304e-08
1.93057e-07
-1.43133e-08
1.93325e-07
-3.27613e-09
1.9199e-07
6.92274e-09
1.89195e-07
1.62589e-08
1.85082e-07
2.47348e-08
1.79784e-07
3.2373e-08
1.7343e-07
3.92108e-08
1.66141e-07
4.5295e-08
1.58027e-07
5.06784e-08
1.49187e-07
5.54164e-08
1.39716e-07
5.95646e-08
1.29695e-07
6.31773e-08
1.19199e-07
6.63061e-08
1.08295e-07
6.89988e-08
9.70435e-08
7.12993e-08
8.54978e-08
7.3247e-08
7.37063e-08
7.48768e-08
6.17127e-08
7.62187e-08
4.95566e-08
7.72985e-08
3.72744e-08
7.81374e-08
2.48999e-08
7.8752e-08
1.24649e-08
7.91549e-08
7.93543e-08
-1.37134e-08
9.30677e-08
-2.73949e-08
9.28363e-08
-4.10117e-08
9.23688e-08
-5.45298e-08
9.16555e-08
-6.79131e-08
9.06819e-08
-8.11226e-08
8.94282e-08
-9.41158e-08
8.787e-08
-1.06846e-07
8.5977e-08
-1.1926e-07
8.3714e-08
-1.31302e-07
8.10401e-08
-1.42905e-07
7.79092e-08
-1.53997e-07
7.42695e-08
-1.64497e-07
7.00648e-08
-1.74315e-07
6.52342e-08
-1.8335e-07
5.97133e-08
-1.91491e-07
5.34361e-08
-1.98617e-07
4.63363e-08
-2.04594e-07
3.83506e-08
-2.09281e-07
2.94217e-08
-2.12526e-07
1.95036e-08
-2.1417e-07
8.56669e-09
-2.14051e-07
-3.39527e-09
-2.12007e-07
-1.63574e-08
-2.07882e-07
-3.02551e-08
-2.01535e-07
-4.49754e-08
-1.92846e-07
-6.03486e-08
-1.81729e-07
-7.61419e-08
-1.68143e-07
-9.20552e-08
-1.52104e-07
-1.07723e-07
-1.33695e-07
-1.22723e-07
-1.13077e-07
-1.36588e-07
-9.04918e-08
-1.48834e-07
-7.99273e-08
-6.94081e-08
-6.9072e-08
-7.12035e-08
-5.79617e-08
-7.27731e-08
-4.6635e-08
-7.41034e-08
-3.51325e-08
-7.51824e-08
-2.34966e-08
-7.60005e-08
-1.17708e-08
-7.65501e-08
-2.13588e-17
-7.68262e-08
1.17708e-08
-7.68262e-08
2.34966e-08
-7.65501e-08
3.51325e-08
-7.60005e-08
4.6635e-08
-7.51824e-08
5.79617e-08
-7.41034e-08
6.9072e-08
-7.27731e-08
7.99273e-08
-7.12035e-08
9.04918e-08
-6.94081e-08
1.13077e-07
-1.48834e-07
1.33695e-07
-1.36588e-07
1.52104e-07
-1.22723e-07
1.68143e-07
-1.07723e-07
1.81729e-07
-9.20552e-08
1.92846e-07
-7.61419e-08
2.01535e-07
-6.03486e-08
2.07882e-07
-4.49754e-08
2.12007e-07
-3.02551e-08
2.14051e-07
-1.63574e-08
2.1417e-07
-3.39527e-09
2.12526e-07
8.56669e-09
2.09281e-07
1.95036e-08
2.04594e-07
2.94217e-08
1.98617e-07
3.83506e-08
1.91491e-07
4.63363e-08
1.8335e-07
5.34361e-08
1.74315e-07
5.97133e-08
1.64497e-07
6.52342e-08
1.53997e-07
7.00648e-08
1.42905e-07
7.42695e-08
1.31302e-07
7.79092e-08
1.1926e-07
8.10401e-08
1.06846e-07
8.3714e-08
9.41158e-08
8.5977e-08
8.11226e-08
8.787e-08
6.79131e-08
8.94282e-08
5.45298e-08
9.06819e-08
4.10117e-08
9.16555e-08
2.73949e-08
9.23688e-08
1.37134e-08
9.28363e-08
9.30677e-08
-1.50992e-08
1.08167e-07
-3.01646e-08
1.07902e-07
-4.51615e-08
1.07366e-07
-6.00538e-08
1.06548e-07
-7.48032e-08
1.05431e-07
-8.93681e-08
1.03993e-07
-1.03703e-07
1.02205e-07
-1.17759e-07
1.00032e-07
-1.31478e-07
9.74338e-08
-1.448e-07
9.4362e-08
-1.57654e-07
9.07632e-08
-1.69962e-07
8.65775e-08
-1.81636e-07
8.17387e-08
-1.92578e-07
7.61756e-08
-2.02677e-07
6.98127e-08
-2.11813e-07
6.25718e-08
-2.1985e-07
5.4374e-08
-2.26643e-07
4.51434e-08
-2.32032e-07
3.48105e-08
-2.35846e-07
2.3318e-08
-2.37907e-07
1.06269e-08
-2.38027e-07
-3.27514e-09
-2.36019e-07
-1.83648e-08
-2.31702e-07
-3.45728e-08
-2.24904e-07
-5.17734e-08
-2.15479e-07
-6.97735e-08
-2.03316e-07
-8.83048e-08
-1.88353e-07
-1.07018e-07
-1.70593e-07
-1.25483e-07
-1.50117e-07
-1.43199e-07
-1.27096e-07
-1.59609e-07
-1.018e-07
-1.7413e-07
-8.99456e-08
-8.12628e-08
-7.77526e-08
-8.33965e-08
-6.52627e-08
-8.5263e-08
-5.25204e-08
-8.68457e-08
-3.95728e-08
-8.81299e-08
-2.64694e-08
-8.91039e-08
-1.32611e-08
-8.97585e-08
-2.06345e-18
-9.00873e-08
1.32611e-08
-9.00873e-08
2.64694e-08
-8.97585e-08
3.95728e-08
-8.91039e-08
5.25204e-08
-8.81299e-08
6.52627e-08
-8.68457e-08
7.77526e-08
-8.5263e-08
8.99456e-08
-8.33965e-08
1.018e-07
-8.12628e-08
1.27096e-07
-1.7413e-07
1.50117e-07
-1.59609e-07
1.70593e-07
-1.43199e-07
1.88353e-07
-1.25483e-07
2.03316e-07
-1.07018e-07
2.15479e-07
-8.83048e-08
2.24904e-07
-6.97735e-08
2.31702e-07
-5.17734e-08
2.36019e-07
-3.45728e-08
2.38027e-07
-1.83648e-08
2.37907e-07
-3.27514e-09
2.35846e-07
1.06269e-08
2.32032e-07
2.3318e-08
2.26643e-07
3.48105e-08
2.1985e-07
4.51434e-08
2.11813e-07
5.4374e-08
2.02677e-07
6.25718e-08
1.92578e-07
6.98127e-08
1.81636e-07
7.61756e-08
1.69962e-07
8.17387e-08
1.57654e-07
8.65775e-08
1.448e-07
9.07632e-08
1.31478e-07
9.4362e-08
1.17759e-07
9.74338e-08
1.03703e-07
1.00032e-07
8.93681e-08
1.02205e-07
7.48032e-08
1.03993e-07
6.00538e-08
1.05431e-07
4.51615e-08
1.06548e-07
3.01646e-08
1.07366e-07
1.50992e-08
1.07902e-07
1.08167e-07
-1.66412e-08
1.24808e-07
-3.3247e-08
1.24507e-07
-4.9781e-08
1.239e-07
-6.62054e-08
1.22972e-07
-8.24798e-08
1.21706e-07
-9.85606e-08
1.20074e-07
-1.144e-07
1.18044e-07
-1.29945e-07
1.15577e-07
-1.45136e-07
1.12625e-07
-1.59906e-07
1.09133e-07
-1.74182e-07
1.05039e-07
-1.87879e-07
1.00274e-07
-2.00901e-07
9.47614e-08
-2.13144e-07
8.84178e-08
-2.24486e-07
8.11549e-08
-2.34795e-07
7.28806e-08
-2.43922e-07
6.35015e-08
-2.51705e-07
5.29265e-08
-2.57966e-07
4.10709e-08
-2.62511e-07
2.78632e-08
-2.65136e-07
1.32519e-08
-2.65626e-07
-2.78508e-09
-2.63762e-07
-2.02291e-08
-2.59325e-07
-3.90092e-08
-2.5211e-07
-5.89883e-08
-2.41933e-07
-7.99507e-08
-2.28647e-07
-1.0159e-07
-2.12161e-07
-1.23504e-07
-1.92456e-07
-1.45189e-07
-1.69603e-07
-1.66052e-07
-1.43783e-07
-1.85429e-07
-1.15296e-07
-2.02618e-07
-1.01913e-07
-9.4645e-08
-8.81317e-08
-9.71783e-08
-7.39988e-08
-9.93959e-08
-5.95671e-08
-1.01277e-07
-4.48921e-08
-1.02805e-07
-3.0032e-08
-1.03964e-07
-1.50473e-08
-1.04743e-07
3.26018e-18
-1.05135e-07
1.50473e-08
-1.05135e-07
3.0032e-08
-1.04743e-07
4.48921e-08
-1.03964e-07
5.95671e-08
-1.02805e-07
7.39988e-08
-1.01277e-07
8.81317e-08
-9.93959e-08
1.01913e-07
-9.71783e-08
1.15296e-07
-9.4645e-08
1.43783e-07
-2.02618e-07
1.69603e-07
-1.85429e-07
1.92456e-07
-1.66052e-07
2.12161e-07
-1.45189e-07
2.28647e-07
-1.23504e-07
2.41933e-07
-1.0159e-07
2.5211e-07
-7.99507e-08
2.59325e-07
-5.89883e-08
2.63762e-07
-3.90092e-08
2.65626e-07
-2.02291e-08
2.65136e-07
-2.78508e-09
2.62511e-07
1.32519e-08
2.57966e-07
2.78632e-08
2.51705e-07
4.10709e-08
2.43922e-07
5.29265e-08
2.34795e-07
6.35015e-08
2.24486e-07
7.28806e-08
2.13144e-07
8.11549e-08
2.00901e-07
8.84178e-08
1.87879e-07
9.47614e-08
1.74182e-07
1.00274e-07
1.59906e-07
1.05039e-07
1.45136e-07
1.09133e-07
1.29945e-07
1.12625e-07
1.144e-07
1.15577e-07
9.85606e-08
1.18044e-07
8.24798e-08
1.20074e-07
6.62054e-08
1.21706e-07
4.9781e-08
1.22972e-07
3.3247e-08
1.239e-07
1.66412e-08
1.24507e-07
1.24808e-07
-1.83616e-08
1.4317e-07
-3.66867e-08
1.42832e-07
-5.49377e-08
1.42151e-07
-7.30754e-08
1.4111e-07
-9.10581e-08
1.39688e-07
-1.0884e-07
1.37856e-07
-1.26372e-07
1.35576e-07
-1.43598e-07
1.32803e-07
-1.60456e-07
1.29482e-07
-1.76875e-07
1.25552e-07
-1.92777e-07
1.20941e-07
-2.08071e-07
1.15568e-07
-2.22656e-07
1.09347e-07
-2.36417e-07
1.02179e-07
-2.49225e-07
9.39624e-08
-2.60933e-07
8.45886e-08
-2.71378e-07
7.39469e-08
-2.80379e-07
6.19279e-08
-2.87737e-07
4.84283e-08
-2.93232e-07
3.3358e-08
-2.96628e-07
1.66484e-08
-2.97676e-07
-1.73686e-09
-2.96116e-07
-2.17891e-08
-2.91686e-07
-4.344e-08
-2.84129e-07
-6.6545e-08
-2.73212e-07
-9.08675e-08
-2.58739e-07
-1.16063e-07
-2.40574e-07
-1.41669e-07
-2.18662e-07
-1.67101e-07
-1.93057e-07
-1.91657e-07
-1.63944e-07
-2.14543e-07
-1.31652e-07
-2.3491e-07
-1.16436e-07
-1.09861e-07
-1.0074e-07
-1.12874e-07
-8.46208e-08
-1.15515e-07
-6.81415e-08
-1.17757e-07
-5.13683e-08
-1.19578e-07
-3.43713e-08
-1.20961e-07
-1.72236e-08
-1.21891e-07
-2.99157e-17
-1.22358e-07
1.72236e-08
-1.22358e-07
3.43713e-08
-1.21891e-07
5.13683e-08
-1.20961e-07
6.81415e-08
-1.19578e-07
8.46208e-08
-1.17757e-07
1.0074e-07
-1.15515e-07
1.16436e-07
-1.12874e-07
1.31652e-07
-1.09861e-07
1.63944e-07
-2.3491e-07
1.93057e-07
-2.14543e-07
2.18662e-07
-1.91657e-07
2.40574e-07
-1.67101e-07
2.58739e-07
-1.41669e-07
2.73212e-07
-1.16063e-07
2.84129e-07
-9.08675e-08
2.91686e-07
-6.6545e-08
2.96116e-07
-4.344e-08
2.97676e-07
-2.17891e-08
2.96628e-07
-1.73686e-09
2.93232e-07
1.66484e-08
2.87737e-07
3.3358e-08
2.80379e-07
4.84283e-08
2.71378e-07
6.19279e-08
2.60933e-07
7.39469e-08
2.49225e-07
8.45886e-08
2.36417e-07
9.39624e-08
2.22656e-07
1.02179e-07
2.08071e-07
1.09347e-07
1.92777e-07
1.15568e-07
1.76875e-07
1.20941e-07
1.60456e-07
1.25552e-07
1.43598e-07
1.29482e-07
1.26372e-07
1.32803e-07
1.0884e-07
1.35576e-07
9.10581e-08
1.37856e-07
7.30754e-08
1.39688e-07
5.49377e-08
1.4111e-07
3.66867e-08
1.42151e-07
1.83616e-08
1.42832e-07
1.4317e-07
-2.02868e-08
1.63457e-07
-4.05365e-08
1.63082e-07
-6.07114e-08
1.62326e-07
-8.07717e-08
1.6117e-07
-1.00675e-07
1.59591e-07
-1.20374e-07
1.57556e-07
-1.39819e-07
1.55021e-07
-1.58952e-07
1.51936e-07
-1.77708e-07
1.48238e-07
-1.96014e-07
1.43858e-07
-2.13788e-07
1.38714e-07
-2.30934e-07
1.32714e-07
-2.47344e-07
1.25757e-07
-2.62896e-07
1.17731e-07
-2.77449e-07
1.08515e-07
-2.90844e-07
9.79839e-08
-3.02902e-07
8.60051e-08
-3.13421e-07
7.24473e-08
-3.22177e-07
5.71838e-08
-3.2892e-07
4.01006e-08
-3.33377e-07
2.11055e-08
-3.35254e-07
1.40703e-10
-3.34241e-07
-2.28022e-08
-3.30016e-07
-4.76648e-08
-3.22259e-07
-7.43018e-08
-3.10667e-07
-1.0246e-07
-2.94972e-07
-1.31758e-07
-2.74972e-07
-1.6167e-07
-2.50556e-07
-1.91516e-07
-2.21743e-07
-2.2047e-07
-1.8871e-07
-2.47575e-07
-1.51822e-07
-2.71798e-07
-1.3437e-07
-1.27313e-07
-1.1633e-07
-1.30915e-07
-9.77698e-08
-1.34075e-07
-7.87656e-08
-1.36761e-07
-5.93985e-08
-1.38945e-07
-3.97547e-08
-1.40605e-07
-1.99244e-08
-1.41721e-07
-1.80972e-17
-1.42283e-07
1.99244e-08
-1.42283e-07
3.97547e-08
-1.41721e-07
5.93985e-08
-1.40605e-07
7.87656e-08
-1.38945e-07
9.77698e-08
-1.36761e-07
1.1633e-07
-1.34075e-07
1.3437e-07
-1.30915e-07
1.51822e-07
-1.27313e-07
1.8871e-07
-2.71798e-07
2.21743e-07
-2.47575e-07
2.50556e-07
-2.2047e-07
2.74972e-07
-1.91516e-07
2.94972e-07
-1.6167e-07
3.10667e-07
-1.31758e-07
3.22259e-07
-1.0246e-07
3.30016e-07
-7.43018e-08
3.34241e-07
-4.76648e-08
3.35254e-07
-2.28022e-08
3.33377e-07
1.40703e-10
3.2892e-07
2.11055e-08
3.22177e-07
4.01006e-08
3.13421e-07
5.71838e-08
3.02902e-07
7.24473e-08
2.90844e-07
8.60051e-08
2.77449e-07
9.79839e-08
2.62896e-07
1.08515e-07
2.47344e-07
1.17731e-07
2.30934e-07
1.25757e-07
2.13788e-07
1.32714e-07
1.96014e-07
1.38714e-07
1.77708e-07
1.43858e-07
1.58952e-07
1.48238e-07
1.39819e-07
1.51936e-07
1.20374e-07
1.55021e-07
1.00675e-07
1.57556e-07
8.07717e-08
1.59591e-07
6.07114e-08
1.6117e-07
4.05365e-08
1.62326e-07
2.02868e-08
1.63082e-07
1.63457e-07
-2.24476e-08
1.85904e-07
-4.48589e-08
1.85494e-07
-6.71967e-08
1.84663e-07
-8.94217e-08
1.83395e-07
-1.11492e-07
1.81662e-07
-1.33361e-07
1.79425e-07
-1.54978e-07
1.76638e-07
-1.76284e-07
1.73242e-07
-1.97215e-07
1.69169e-07
-2.17695e-07
1.64339e-07
-2.37639e-07
1.58658e-07
-2.56948e-07
1.52023e-07
-2.75509e-07
1.44318e-07
-2.93191e-07
1.35413e-07
-3.09844e-07
1.25168e-07
-3.25297e-07
1.13436e-07
-3.39352e-07
1.0006e-07
-3.51786e-07
8.48811e-08
-3.62345e-07
6.7743e-08
-3.70745e-07
4.85002e-08
-3.76668e-07
2.70287e-08
-3.79766e-07
3.23913e-09
-3.79664e-07
-2.2905e-08
-3.75962e-07
-5.13667e-08
-3.68253e-07
-8.20106e-08
-3.56137e-07
-1.14576e-07
-3.39245e-07
-1.4865e-07
-3.17273e-07
-1.83641e-07
-2.90024e-07
-2.18765e-07
-2.57451e-07
-2.53043e-07
-2.19706e-07
-2.8532e-07
-1.77181e-07
-3.14323e-07
-1.56959e-07
-1.47535e-07
-1.35996e-07
-1.51877e-07
-1.14379e-07
-1.55692e-07
-9.22008e-08
-1.58939e-07
-6.95624e-08
-1.61584e-07
-4.65729e-08
-1.63594e-07
-2.33462e-08
-1.64948e-07
-4.9775e-18
-1.65629e-07
2.33462e-08
-1.65629e-07
4.65729e-08
-1.64948e-07
6.95624e-08
-1.63594e-07
9.22008e-08
-1.61584e-07
1.14379e-07
-1.58939e-07
1.35996e-07
-1.55692e-07
1.56959e-07
-1.51877e-07
1.77181e-07
-1.47535e-07
2.19706e-07
-3.14323e-07
2.57451e-07
-2.8532e-07
2.90024e-07
-2.53043e-07
3.17273e-07
-2.18765e-07
3.39245e-07
-1.83641e-07
3.56137e-07
-1.4865e-07
3.68253e-07
-1.14576e-07
3.75962e-07
-8.20106e-08
3.79664e-07
-5.13667e-08
3.79766e-07
-2.2905e-08
3.76668e-07
3.23913e-09
3.70745e-07
2.70287e-08
3.62345e-07
4.85002e-08
3.51786e-07
6.7743e-08
3.39352e-07
8.48811e-08
3.25297e-07
1.0006e-07
3.09844e-07
1.13436e-07
2.93191e-07
1.25168e-07
2.75509e-07
1.35413e-07
2.56948e-07
1.44318e-07
2.37639e-07
1.52023e-07
2.17695e-07
1.58658e-07
1.97215e-07
1.64339e-07