/*--------------------------------*- C++ -*----------------------------------*\
  =========                 |
  \\      /  F ield         | OpenFOAM: The Open Source CFD Toolbox
   \\    /   O peration     | Website:  https://openfoam.org
    \\  /    A nd           | Version:  10
     \\/     M anipulation  |
\*---------------------------------------------------------------------------*/
FoamFile
{
    format      ascii;
    class       surfaceScalarField;
    location    "1.18";
    object      phi;
}
// * * * * * * * * * * * * * * * * * * * * * * * * * * * * * * * * * * * * * //

dimensions      [0 3 -1 0 0 0 0];

internalField   nonuniform List<scalar> 
24170
(
1.41974e-09
-1.41974e-09
2.63601e-09
-1.21627e-09
3.60066e-09
-9.64644e-10
4.33218e-09
-7.31527e-10
4.87794e-09
-5.45756e-10
5.28903e-09
-4.11094e-10
5.60955e-09
-3.20514e-10
5.87426e-09
-2.64715e-10
6.11008e-09
-2.35817e-10
6.33863e-09
-2.28552e-10
6.57921e-09
-2.40575e-10
6.8521e-09
-2.72889e-10
7.18331e-09
-3.31215e-10
7.61337e-09
-4.30056e-10
8.21827e-09
-6.04901e-10
9.17404e-09
-9.55775e-10
1.10261e-08
-1.85203e-09
-5.28427e-09
1.63103e-08
1.6199e-09
-3.03964e-09
3.00131e-09
-2.59769e-09
4.08986e-09
-2.05319e-09
4.90925e-09
-1.55091e-09
5.51582e-09
-1.15233e-09
5.96925e-09
-8.64533e-10
6.3204e-09
-6.71662e-10
6.60896e-09
-5.53275e-10
6.86535e-09
-4.92203e-10
7.11377e-09
-4.76972e-10
7.37555e-09
-5.02357e-10
7.67278e-09
-5.70114e-10
8.03315e-09
-6.91592e-10
8.49843e-09
-8.9533e-10
9.14222e-09
-1.2487e-09
1.01123e-08
-1.92588e-09
1.17106e-08
-3.45029e-09
-7.58537e-09
1.40117e-08
1.8175e-09
-4.85714e-09
3.35796e-09
-4.13815e-09
4.56153e-09
-3.25676e-09
5.45916e-09
-2.44853e-09
6.11761e-09
-1.81079e-09
6.6057e-09
-1.35262e-09
6.98096e-09
-1.04692e-09
7.28768e-09
-8.59991e-10
7.55932e-09
-7.63847e-10
7.82213e-09
-7.39783e-10
8.09875e-09
-7.78973e-10
8.41189e-09
-8.83258e-10
8.78877e-09
-1.06847e-09
9.26738e-09
-1.37394e-09
9.90612e-09
-1.88744e-09
1.07909e-08
-2.81064e-09
1.19657e-08
-4.62509e-09
-8.36898e-09
1.27493e-08
2.03694e-09
-6.89407e-09
3.7488e-09
-5.85001e-09
5.07079e-09
-4.57876e-09
6.04474e-09
-3.42248e-09
6.75098e-09
-2.51703e-09
7.26916e-09
-1.8708e-09
7.66422e-09
-1.44198e-09
7.98514e-09
-1.18091e-09
8.26824e-09
-1.04695e-09
8.54137e-09
-1.01291e-09
8.82781e-09
-1.06542e-09
9.14979e-09
-1.20523e-09
9.53182e-09
-1.45051e-09
1.00038e-08
-1.84595e-09
1.06008e-08
-2.48439e-09
1.13413e-08
-3.55119e-09
1.21057e-08
-5.38949e-09
-8.43322e-09
1.217e-08
2.29205e-09
-9.18612e-09
4.19594e-09
-7.7539e-09
5.64303e-09
-6.02585e-09
6.69181e-09
-4.47126e-09
7.4409e-09
-3.26612e-09
7.98341e-09
-2.41331e-09
8.39277e-09
-1.85133e-09
8.72283e-09
-1.51098e-09
9.01256e-09
-1.33668e-09
9.29094e-09
-1.29129e-09
9.58111e-09
-1.35559e-09
9.90359e-09
-1.52771e-09
1.02782e-08
-1.82515e-09
1.07238e-08
-2.29153e-09
1.12496e-08
-3.01021e-09
1.18209e-08
-4.12249e-09
1.22515e-08
-5.82006e-09
-8.17564e-09
1.19939e-08
2.59806e-09
-1.17842e-08
4.72205e-09
-9.87789e-09
6.30208e-09
-7.60587e-09
7.42231e-09
-5.5915e-09
8.20659e-09
-4.0504e-09
8.76506e-09
-2.97178e-09
9.18094e-09
-2.26721e-09
9.51321e-09
-1.84324e-09
9.80309e-09
-1.62656e-09
1.00801e-08
-1.56829e-09
1.03664e-08
-1.64189e-09
1.06796e-08
-1.84093e-09
1.10334e-08
-2.17899e-09
1.14344e-08
-2.69248e-09
1.18692e-08
-3.44502e-09
1.22712e-08
-4.52452e-09
1.24535e-08
-6.00233e-09
-7.78452e-09
1.20624e-08
2.97543e-09
-1.47596e-08
5.35591e-09
-1.22584e-08
7.07618e-09
-9.32614e-09
8.26047e-09
-6.77579e-09
9.06772e-09
-4.85764e-09
9.62979e-09
-3.53386e-09
1.00412e-08
-2.67866e-09
1.03662e-08
-2.1682e-09
1.06477e-08
-1.90802e-09
1.09148e-08
-1.83548e-09
1.11881e-08
-1.91512e-09
1.14811e-08
-2.13394e-09
1.18007e-08
-2.49857e-09
1.21419e-08
-3.03368e-09
1.24754e-08
-3.77853e-09
1.27231e-08
-4.77225e-09
1.27298e-08
-6.00905e-09
-7.34495e-09
1.22903e-08
3.45395e-09
-1.82136e-08
6.13718e-09
-1.49416e-08
8.00198e-09
-1.11909e-08
9.23573e-09
-8.00954e-09
1.00467e-08
-5.66863e-09
1.05944e-08
-4.08155e-09
1.09862e-08
-3.07046e-09
1.12911e-08
-2.47311e-09
1.1553e-08
-2.16994e-09
1.18e-08
-2.08241e-09
1.20494e-08
-2.16454e-09
1.23105e-08
-2.39504e-09
1.25832e-08
-2.77131e-09
1.28536e-08
-3.30402e-09
1.30836e-08
-4.00859e-09
1.31987e-08
-4.8873e-09
1.30845e-08
-5.89481e-09
-6.89329e-09
1.26328e-08
4.07937e-09
-2.22929e-08
7.12295e-09
-1.79852e-08
9.12876e-09
-1.31967e-08
1.03853e-08
-9.26606e-09
1.11702e-08
-6.4536e-09
1.16778e-08
-4.58907e-09
1.20291e-08
-3.42183e-09
1.22973e-08
-2.74128e-09
1.25257e-08
-2.39834e-09
1.27398e-08
-2.29653e-09
1.29534e-08
-2.3781e-09
1.31707e-08
-2.61229e-09
1.33855e-08
-2.9862e-09
1.3578e-08
-3.49649e-09
1.37082e-08
-4.13884e-09
1.37131e-08
-4.89219e-09
1.3516e-08
-5.69763e-09
-6.44364e-09
1.30663e-08
4.92504e-09
-2.7218e-08
8.39793e-09
-2.14581e-08
1.05242e-08
-1.5323e-08
1.17565e-08
-1.04984e-08
1.247e-08
-7.16718e-09
1.29009e-08
-5.01997e-09
1.31841e-08
-3.70499e-09
1.33942e-08
-2.95134e-09
1.35719e-08
-2.57606e-09
1.37386e-08
-2.46324e-09
1.39032e-08
-2.54275e-09
1.4065e-08
-2.77407e-09
1.4213e-08
-3.1342e-09
1.43242e-08
-3.60771e-09
1.43617e-08
-4.17629e-09
1.42766e-08
-4.80713e-09
1.40216e-08
-5.44265e-09
-6.00021e-09
1.35782e-08
6.11429e-09
-3.33323e-08
1.00911e-08
-2.54349e-08
1.22817e-08
-1.75135e-08
1.34092e-08
-1.16259e-08
1.39831e-08
-7.74106e-09
1.42868e-08
-5.3237e-09
1.44654e-08
-3.88355e-09
1.45906e-08
-3.07664e-09
1.46973e-08
-2.68269e-09
1.48001e-08
-2.56609e-09
1.49023e-08
-2.64486e-09
1.49977e-08
-2.86949e-09
1.50719e-08
-3.20841e-09
1.51013e-08
-3.63717e-09
1.50543e-08
-4.12928e-09
1.48958e-08
-4.64864e-09
1.45991e-08
-5.14588e-09
-5.5629e-09
1.41618e-08
6.52738e-09
-3.98597e-08
1.03253e-08
-2.92329e-08
1.21282e-08
-1.93164e-08
1.28947e-08
-1.23924e-08
1.31928e-08
-8.03919e-09
1.32973e-08
-5.42811e-09
1.33307e-08
-3.91697e-09
1.33454e-08
-3.09134e-09
1.33617e-08
-2.69902e-09
1.33848e-08
-2.5892e-09
1.34115e-08
-2.67158e-09
1.34327e-08
-2.89068e-09
1.3434e-08
-3.20966e-09
1.33961e-08
-3.59929e-09
1.32968e-08
-4.03002e-09
1.31152e-08
-4.46706e-09
1.28389e-08
-4.86957e-09
-5.19574e-09
1.24718e-08
9.70362e-09
-4.95633e-08
1.45219e-08
-3.40511e-08
1.63335e-08
-2.11281e-08
1.68363e-08
-1.28951e-08
1.68597e-08
-8.06259e-09
1.67415e-08
-5.30992e-09
1.6606e-08
-3.78156e-09
1.64932e-08
-2.97853e-09
1.64103e-08
-2.61609e-09
1.63517e-08
-2.53055e-09
1.63057e-08
-2.62562e-09
1.62571e-08
-2.84202e-09
1.61872e-08
-3.13981e-09
1.60754e-08
-3.48754e-09
1.59012e-08
-3.85574e-09
1.5648e-08
-4.21389e-09
1.53092e-08
-4.53079e-09
-4.77852e-09
1.4892e-08
1.56692e-08
-6.52325e-08
2.14419e-08
-3.98238e-08
2.26242e-08
-2.23104e-08
2.23428e-08
-1.26137e-08
2.17491e-08
-7.46889e-09
2.11904e-08
-4.75114e-09
2.07438e-08
-3.33499e-09
2.04059e-08
-2.64063e-09
2.01527e-08
-2.36288e-09
1.99573e-08
-2.33513e-09
1.97938e-08
-2.46213e-09
1.96376e-08
-2.68582e-09
1.9465e-08
-2.96722e-09
1.92539e-08
-3.27647e-09
1.89858e-08
-3.58759e-09
1.86484e-08
-3.87652e-09
1.82393e-08
-4.1217e-09
-4.30625e-09
1.7767e-08
2.86656e-08
-9.38981e-08
3.37156e-08
-4.48738e-08
3.23341e-08
-2.09289e-08
3.01136e-08
-1.03932e-08
2.82692e-08
-5.62452e-09
2.69121e-08
-3.39407e-09
2.59391e-08
-2.36194e-09
2.52365e-08
-1.93803e-09
2.47157e-08
-1.84206e-09
2.43111e-08
-1.93062e-09
2.39738e-08
-2.12475e-09
2.36651e-08
-2.37717e-09
2.33544e-08
-2.65648e-09
2.30172e-08
-2.93929e-09
2.26362e-08
-3.20654e-09
2.22019e-08
-3.44224e-09
2.17139e-08
-3.63373e-09
-3.77257e-09
2.11802e-08
6.32624e-08
-1.57161e-07
5.6792e-08
-3.84034e-08
4.72597e-08
-1.13966e-08
4.07968e-08
-3.93025e-09
3.6708e-08
-1.53573e-09
3.40736e-08
-7.59722e-10
3.23136e-08
-6.0191e-10
3.10881e-08
-7.12569e-10
3.01941e-08
-9.48036e-10
2.95043e-08
-1.24086e-09
2.89351e-08
-1.55555e-09
2.84289e-08
-1.8709e-09
2.7945e-08
-2.1726e-09
2.74555e-08
-2.44976e-09
2.69426e-08
-2.69363e-09
2.63977e-08
-2.8974e-09
2.58205e-08
-3.05654e-09
-3.16908e-09
2.5217e-08
1.83411e-07
1.59192e-07
9.73324e-08
4.76756e-08
6.70951e-08
1.88407e-08
5.37208e-08
9.44404e-09
4.66883e-08
5.4968e-09
4.25222e-08
3.40633e-09
3.98375e-08
2.08281e-09
3.79897e-08
1.13528e-09
3.66411e-08
4.00526e-10
3.55961e-08
-1.95889e-10
3.4733e-08
-6.92401e-10
3.39771e-08
-1.11498e-09
3.32792e-08
-1.47473e-09
3.26072e-08
-1.7778e-09
3.19416e-08
-2.02797e-09
3.12722e-08
-2.22805e-09
3.05965e-08
-2.38079e-09
-2.4894e-09
2.99168e-08
7.72678e-08
8.19244e-08
7.55459e-08
4.93975e-08
6.55816e-08
2.88051e-08
5.76306e-08
1.73951e-08
5.21614e-08
1.0966e-08
4.84374e-08
7.13034e-09
4.58346e-08
4.6856e-09
4.3943e-08
3.02692e-09
4.25038e-08
1.83965e-09
4.13552e-08
9.52735e-10
4.03943e-08
2.68558e-10
3.95448e-08
-2.65489e-10
3.87578e-08
-6.87768e-10
3.80059e-08
-1.02592e-09
3.72728e-08
-1.29478e-09
3.65498e-08
-1.50506e-09
3.5834e-08
-1.66506e-09
-1.78173e-09
3.51264e-08
3.59966e-08
4.59278e-08
5.01974e-08
3.51967e-08
5.39144e-08
2.5088e-08
5.37762e-08
1.75332e-08
5.24923e-08
1.22499e-08
5.10295e-08
8.59314e-09
4.9684e-08
6.03107e-09
4.8513e-08
4.19797e-09
4.74968e-08
2.85586e-09
4.65978e-08
1.85167e-09
4.578e-08
1.08638e-09
4.50195e-08
4.94994e-10
4.42982e-08
3.35622e-11
4.3595e-08
-3.22763e-10
4.29018e-08
-6.01514e-10
4.22149e-08
-8.18229e-10
4.15342e-08
-9.84274e-10
-1.1086e-09
4.0861e-08
1.43479e-08
3.15799e-08
2.33426e-08
2.62019e-08
2.81571e-08
2.02736e-08
3.05163e-08
1.5174e-08
3.15751e-08
1.11911e-08
3.1972e-08
8.19624e-09
3.20345e-08
5.96858e-09
3.1925e-08
4.30747e-09
3.17228e-08
3.0581e-09
3.14662e-08
2.10823e-09
3.11742e-08
1.37839e-09
3.08566e-08
8.12628e-10
3.05188e-08
3.71303e-10
3.017e-08
2.60653e-11
2.98087e-08
-2.40254e-10
2.94381e-08
-4.47604e-10
2.90615e-08
-6.07697e-10
-7.29376e-10
2.86823e-08
8.5928e-09
2.29871e-08
1.49913e-08
1.98034e-08
1.92364e-08
1.60285e-08
2.19023e-08
1.25081e-08
2.35336e-08
9.55979e-09
2.45148e-08
7.21499e-09
2.50897e-08
5.3937e-09
2.54061e-08
3.99105e-09
2.5553e-08
2.91126e-09
2.55842e-08
2.07696e-09
2.55336e-08
1.42898e-09
2.54231e-08
9.23155e-10
2.52676e-08
5.26777e-10
2.50781e-08
2.1559e-10
2.4866e-08
-2.81068e-11
2.46345e-08
-2.16141e-10
2.43892e-08
-3.62391e-10
-4.74811e-10
2.41346e-08
5.79461e-09
1.71925e-08
1.04828e-08
1.51152e-08
1.39479e-08
1.25634e-08
1.63891e-08
1.00669e-08
1.80689e-08
7.87999e-09
1.92106e-08
6.07332e-09
1.9978e-08
4.62625e-09
2.04843e-08
3.48478e-09
2.08057e-08
2.58991e-09
2.09935e-08
1.88908e-09
2.10831e-08
1.33938e-09
2.10991e-08
9.07182e-10
2.10592e-08
5.66677e-10
2.09766e-08
2.98178e-10
2.08619e-08
8.66566e-11
2.07241e-08
-7.83657e-11
2.0568e-08
-2.06314e-10
-3.0544e-10
2.03986e-08
4.21279e-09
1.29797e-08
7.77842e-09
1.15496e-08
1.05814e-08
9.76044e-09
1.26906e-08
7.95766e-09
1.42392e-08
6.33141e-09
1.536e-08
4.95255e-09
1.61623e-08
3.82395e-09
1.6729e-08
2.91803e-09
1.71209e-08
2.19799e-09
1.7382e-08
1.62807e-09
1.75439e-08
1.17739e-09
1.76303e-08
8.20825e-10
1.76585e-08
5.38501e-10
1.76417e-08
3.14932e-10
1.75903e-08
1.38095e-10
1.75132e-08
-1.33266e-12
1.74161e-08
-1.09207e-10
-1.93356e-10
1.73041e-08
3.21828e-09
9.76146e-09
6.01564e-09
8.75222e-09
8.29925e-09
7.47682e-09
1.00895e-08
6.16745e-09
1.14579e-08
4.96296e-09
1.24871e-08
3.92333e-09
1.32518e-08
3.05932e-09
1.38128e-08
2.35697e-09
1.42178e-08
1.79302e-09
1.45028e-08
1.34301e-09
1.46954e-08
9.84854e-10
1.48162e-08
7.00016e-10
1.48812e-08
4.73518e-10
1.49026e-08
2.93479e-10
1.48902e-08
1.50556e-10
1.48514e-08
3.74038e-11
1.47932e-08
-5.09913e-11
-1.19798e-10
1.47196e-08
2.54214e-09
7.21932e-09
4.78883e-09
6.50553e-09
6.66765e-09
5.59801e-09
8.18019e-09
4.65491e-09
9.36729e-09
3.77586e-09
1.02829e-08
3.00776e-09
1.09797e-08
2.3625e-09
1.15034e-08
1.83321e-09
1.18915e-08
1.40501e-09
1.21733e-08
1.06122e-09
1.23719e-08
7.86214e-10
1.25053e-08
5.66593e-10
1.25875e-08
3.91327e-10
1.26294e-08
2.51561e-10
1.26397e-08
1.40261e-10
1.26253e-08
5.18579e-11
1.25921e-08
-1.77719e-11
-7.18457e-11
1.25441e-08
2.0541e-09
5.16522e-09
3.88913e-09
4.6705e-09
5.44811e-09
4.03903e-09
6.72553e-09
3.37749e-09
7.74602e-09
2.75537e-09
8.54663e-09
2.20714e-09
9.16602e-09
1.74311e-09
9.63926e-09
1.35997e-09
9.99596e-09
1.04831e-09
1.02603e-08
7.96903e-10
1.04515e-08
5.95014e-10
1.05848e-08
4.33235e-10
1.06724e-08
3.03742e-10
1.07238e-08
2.00191e-10
1.07465e-08
1.17508e-10
1.07467e-08
5.16564e-11
1.07295e-08
-5.49741e-13
-4.10404e-11
1.06987e-08
1.6846e-09
3.48061e-09
3.20031e-09
3.15479e-09
4.5016e-09
2.73775e-09
5.58061e-09
2.29849e-09
6.45308e-09
1.8829e-09
7.1457e-09
1.51453e-09
7.68773e-09
1.20107e-09
8.10667e-09
9.4104e-10
8.42633e-09
7.28646e-10
8.66652e-09
5.56711e-10
8.84333e-09
4.18206e-10
8.96966e-09
3.06908e-10
9.0558e-09
2.17594e-10
9.11e-09
1.45999e-10
9.13881e-09
8.86942e-11
9.14753e-09
4.29398e-11
9.14043e-09
6.54575e-12
-2.18043e-11
9.12119e-09
1.39317e-09
2.08745e-09
2.65269e-09
1.89527e-09
3.74166e-09
1.64878e-09
4.65194e-09
1.38821e-09
5.39417e-09
1.14067e-09
5.98833e-09
9.2037e-10
6.45719e-09
7.32202e-10
6.82266e-09
5.75572e-10
7.10407e-09
4.47237e-10
7.31772e-09
3.43058e-10
7.47701e-09
2.5892e-10
7.59277e-09
1.9115e-10
7.67372e-09
1.36643e-10
7.72686e-09
9.28547e-11
7.75783e-09
5.77293e-11
7.77115e-09
2.9618e-11
7.7705e-09
7.19549e-12
-1.03162e-11
7.75901e-09
1.15315e-09
9.34294e-10
2.19911e-09
8.49308e-10
3.10777e-09
7.4012e-10
3.87157e-09
6.24402e-10
4.49808e-09
5.14164e-10
5.00267e-09
4.15779e-10
5.40336e-09
3.31515e-10
5.71773e-09
2.61193e-10
5.96153e-09
2.03437e-10
6.14815e-09
1.56446e-10
6.28865e-09
1.18413e-10
6.39209e-09
8.77172e-11
6.46575e-09
6.29803e-11
6.51553e-09
4.30692e-11
6.5462e-09
2.70662e-11
6.56158e-09
1.42327e-11
6.56481e-09
3.9713e-12
-3.96966e-12
6.55846e-09
9.34294e-10
1.7836e-09
2.52372e-09
3.14812e-09
3.66229e-09
4.07807e-09
4.40958e-09
4.67077e-09
4.87421e-09
5.03066e-09
5.14907e-09
5.23679e-09
5.29977e-09
5.34284e-09
5.3699e-09
5.38414e-09
5.38811e-09
5.38414e-09
3.56807e-10
-3.56807e-10
7.15244e-10
-3.58436e-10
1.07446e-09
-3.59221e-10
1.43362e-09
-3.59152e-10
1.79185e-09
-3.58238e-10
2.14835e-09
-3.56499e-10
2.50233e-09
-3.53972e-10
2.85302e-09
-3.50695e-10
3.19973e-09
-3.46706e-10
3.54176e-09
-3.42036e-10
3.87846e-09
-3.36702e-10
4.20918e-09
-3.30716e-10
4.53326e-09
-3.24085e-10
4.85008e-09
-3.16819e-10
5.15902e-09
-3.08933e-10
5.45947e-09
-3.00449e-10
5.75086e-09
-2.91397e-10
6.03268e-09
-2.81817e-10
6.30444e-09
-2.71757e-10
6.56571e-09
-2.61278e-10
6.81617e-09
-2.50451e-10
7.05552e-09
-2.39355e-10
7.2836e-09
-2.28078e-10
7.50031e-09
-2.16711e-10
7.70565e-09
-2.05345e-10
7.89972e-09
-1.9407e-10
8.08269e-09
-1.82966e-10
8.2548e-09
-1.7211e-10
8.41637e-09
-1.61566e-10
8.56775e-09
-1.51387e-10
8.70937e-09
-1.41615e-10
8.84165e-09
-1.32283e-10
8.96506e-09
-1.23411e-10
9.08007e-09
-1.15011e-10
9.18716e-09
-1.07085e-10
9.28679e-09
-9.96313e-11
9.37943e-09
-9.26394e-11
9.46553e-09
-8.60956e-11
9.54551e-09
-7.99825e-11
9.61979e-09
-7.42804e-11
9.68876e-09
-6.8968e-11
9.75278e-09
-6.40227e-11
9.8122e-09
-5.94221e-11
9.86735e-09
-5.5144e-11
9.91851e-09
-5.11659e-11
9.96598e-09
-4.74671e-11
1.001e-08
-4.40272e-11
1.00508e-08
-4.08268e-11
1.00887e-08
-3.78479e-11
1.01238e-08
-3.50738e-11
1.01562e-08
-3.24882e-11
1.01863e-08
-3.00769e-11
1.02141e-08
-2.7826e-11
1.02399e-08
-2.57232e-11
1.02636e-08
-2.37567e-11
1.02855e-08
-2.19158e-11
1.03057e-08
-2.01911e-11
1.03243e-08
-1.85731e-11
1.03414e-08
-1.70541e-11
1.0357e-08
-1.56261e-11
1.03713e-08
-1.42824e-11
1.03843e-08
-1.30166e-11
1.03961e-08
-1.18231e-11
1.04068e-08
-1.06963e-11
1.04164e-08
-9.63163e-12
1.04251e-08
-8.62447e-12
1.04327e-08
-7.67081e-12
1.04395e-08
-6.76693e-12
1.04454e-08
-5.90964e-12
1.04505e-08
-5.09533e-12
1.04548e-08
-4.32174e-12
1.04584e-08
-3.58586e-12
1.04613e-08
-2.88529e-12
1.04635e-08
-2.21802e-12
1.04651e-08
-1.58182e-12
1.04661e-08
-9.75014e-13
1.04665e-08
-3.95682e-13
1.04663e-08
1.57578e-13
1.04656e-08
6.86533e-13
1.04644e-08
1.19226e-12
1.04628e-08
1.67622e-12
1.04606e-08
2.1396e-12
1.0458e-08
2.58331e-12
1.0455e-08
3.00857e-12
1.04516e-08
3.41623e-12
1.04478e-08
3.80741e-12
1.04436e-08
4.18266e-12
1.04391e-08
4.54306e-12
1.04342e-08
4.88917e-12
1.0429e-08
5.2217e-12
1.04234e-08
5.54152e-12
1.04176e-08
5.84907e-12
1.04114e-08
6.14514e-12
1.0405e-08
6.43002e-12
1.03983e-08
6.70463e-12
1.03913e-08
6.96921e-12
1.03841e-08
7.22426e-12
1.03766e-08
7.47052e-12
1.03689e-08
7.70817e-12
1.0361e-08
7.93784e-12
1.03528e-08
8.15972e-12
1.03444e-08
8.37452e-12
1.03359e-08
8.58222e-12
1.03271e-08
8.78367e-12
1.03181e-08
8.97873e-12
1.03089e-08
9.16811e-12
1.02996e-08
9.35195e-12
1.02901e-08
9.53065e-12
1.02803e-08
9.70439e-12
1.02705e-08
9.87355e-12
1.02604e-08
1.00384e-11
1.02502e-08
1.01992e-11
1.02399e-08
1.03561e-11
1.02294e-08
1.05095e-11
1.02187e-08
1.06594e-11
1.02079e-08
1.08064e-11
1.0197e-08
1.09502e-11
1.01859e-08
1.10916e-11
1.01746e-08
1.12302e-11
1.01633e-08
1.13667e-11
1.01518e-08
1.15008e-11
1.01401e-08
1.16331e-11
1.01284e-08
1.17635e-11
1.01165e-08
1.18923e-11
1.01045e-08
1.20195e-11
1.00923e-08
1.21452e-11
1.008e-08
1.22699e-11
1.00676e-08
1.23933e-11
1.00551e-08
1.25157e-11
1.00425e-08
1.26374e-11
1.00297e-08
1.27582e-11
1.00169e-08
1.28785e-11
1.00039e-08
1.29981e-11
9.99074e-09
1.31173e-11
9.97751e-09
1.32362e-11
9.96415e-09
1.3355e-11
9.95068e-09
1.34734e-11
9.93709e-09
1.35922e-11
9.92338e-09
1.37108e-11
9.90955e-09
1.38297e-11
9.8956e-09
1.39489e-11
9.88153e-09
1.40685e-11
9.86734e-09
1.41889e-11
9.85303e-09
1.431e-11
9.8386e-09
1.44321e-11
9.82404e-09
1.45553e-11
9.80936e-09
1.46799e-11
9.79456e-09
1.48063e-11
9.77962e-09
1.49349e-11
9.76455e-09
1.50662e-11
9.74935e-09
1.52005e-11
9.73402e-09
1.53389e-11
9.71853e-09
1.54821e-11
9.7029e-09
1.56312e-11
9.68711e-09
1.57877e-11
9.67116e-09
1.59534e-11
9.65503e-09
1.61309e-11
9.63871e-09
1.6323e-11
9.62217e-09
1.65335e-11
9.60541e-09
1.67673e-11
9.58838e-09
1.7031e-11
9.57104e-09
1.73328e-11
9.55336e-09
1.76837e-11
9.53526e-09
1.80977e-11
9.51667e-09
1.8594e-11
9.49747e-09
1.91977e-11
9.47753e-09
1.99423e-11
9.45665e-09
2.08741e-11
9.4346e-09
2.20564e-11
9.41102e-09
2.35783e-11
9.38545e-09
2.5568e-11
9.35724e-09
2.82147e-11
9.32543e-09
3.18085e-11
9.28861e-09
3.6816e-11
9.24458e-09
4.40342e-11
9.18963e-09
5.49456e-11
9.11698e-09
7.26514e-11
9.01213e-09
1.04853e-10
8.83585e-09
1.76276e-10
4.00996e-10
8.43486e-09
3.60573e-10
-7.1738e-10
7.22731e-10
-7.20594e-10
1.08557e-09
-7.22056e-10
1.44816e-09
-7.21745e-10
1.8096e-09
-7.1968e-10
2.16903e-09
-7.15928e-10
2.52565e-09
-7.10587e-10
2.87872e-09
-7.0377e-10
3.22759e-09
-6.95573e-10
3.57162e-09
-6.86063e-10
3.91018e-09
-6.75265e-10
4.24264e-09
-6.63179e-10
4.56836e-09
-6.498e-10
4.88667e-09
-6.35136e-10
5.19695e-09
-6.19211e-10
5.49857e-09
-6.02068e-10
5.79094e-09
-5.83767e-10
6.07351e-09
-5.64385e-10
6.34577e-09
-5.44018e-10
6.60728e-09
-5.22791e-10
6.85768e-09
-5.00849e-10
7.09669e-09
-4.78364e-10
7.32413e-09
-4.55521e-10
7.53993e-09
-4.32512e-10
7.74412e-09
-4.0953e-10
7.93681e-09
-3.86761e-10
8.11822e-09
-3.64374e-10
8.28863e-09
-3.42521e-10
8.44839e-09
-3.21332e-10
8.59792e-09
-3.00912e-10
8.73765e-09
-2.81343e-10
8.86805e-09
-2.62683e-10
8.98961e-09
-2.44971e-10
9.10282e-09
-2.28223e-10
9.20818e-09
-2.12443e-10
9.30616e-09
-1.97618e-10
9.39725e-09
-1.83725e-10
9.48188e-09
-1.70733e-10
9.56051e-09
-1.58605e-10
9.63352e-09
-1.47298e-10
9.70133e-09
-1.36769e-10
9.76427e-09
-1.26971e-10
9.82271e-09
-1.17858e-10
9.87695e-09
-1.09384e-10
9.92729e-09
-1.01506e-10
9.974e-09
-9.41804e-11
1.00173e-08
-8.73672e-11
1.00575e-08
-8.10278e-11
1.00948e-08
-7.51266e-11
1.01294e-08
-6.96295e-11
1.01614e-08
-6.45055e-11
1.0191e-08
-5.97256e-11
1.02185e-08
-5.52626e-11
1.02438e-08
-5.1092e-11
1.02673e-08
-4.71908e-11
1.02889e-08
-4.35383e-11
1.03088e-08
-4.01147e-11
1.03272e-08
-3.69027e-11
1.0344e-08
-3.38858e-11
1.03594e-08
-3.10492e-11
1.03735e-08
-2.83794e-11
1.03864e-08
-2.58638e-11
1.0398e-08
-2.34909e-11
1.04086e-08
-2.12505e-11
1.04181e-08
-1.91327e-11
1.04266e-08
-1.71291e-11
1.04341e-08
-1.52315e-11
1.04408e-08
-1.34327e-11
1.04466e-08
-1.17257e-11
1.04516e-08
-1.01047e-11
1.04559e-08
-8.56388e-12
1.04594e-08
-7.09814e-12
1.04622e-08
-5.70269e-12
1.04644e-08
-4.37298e-12
1.04659e-08
-3.10536e-12
1.04668e-08
-1.89586e-12
1.04672e-08
-7.41156e-13
1.04669e-08
3.62109e-13
1.04662e-08
1.41646e-12
1.0465e-08
2.42511e-12
1.04633e-08
3.39016e-12
1.04611e-08
4.31427e-12
1.04585e-08
5.19931e-12
1.04554e-08
6.04772e-12
1.0452e-08
6.86112e-12
1.04482e-08
7.6415e-12
1.0444e-08
8.39023e-12
1.04394e-08
9.10939e-12
1.04345e-08
9.79999e-12
1.04292e-08
1.04638e-11
1.04237e-08
1.1102e-11
1.04178e-08
1.1716e-11
1.04116e-08
1.23068e-11
1.04052e-08
1.28756e-11
1.03985e-08
1.34237e-11
1.03915e-08
1.39519e-11
1.03843e-08
1.44614e-11
1.03768e-08
1.49528e-11
1.03691e-08
1.54275e-11
1.03611e-08
1.58859e-11
1.03529e-08
1.63292e-11
1.03446e-08
1.67578e-11
1.0336e-08
1.71729e-11
1.03272e-08
1.75751e-11
1.03182e-08
1.79648e-11
1.0309e-08
1.8343e-11
1.02997e-08
1.87102e-11
1.02901e-08
1.90672e-11
1.02804e-08
1.94142e-11
1.02705e-08
1.97523e-11
1.02605e-08
2.00816e-11
1.02503e-08
2.04027e-11
1.02399e-08
2.07162e-11
1.02294e-08
2.10228e-11
1.02188e-08
2.13224e-11
1.02079e-08
2.1616e-11
1.0197e-08
2.19037e-11
1.01859e-08
2.21859e-11
1.01747e-08
2.24631e-11
1.01633e-08
2.27357e-11
1.01518e-08
2.3004e-11
1.01402e-08
2.32683e-11
1.01284e-08
2.35289e-11
1.01165e-08
2.37862e-11
1.01045e-08
2.40405e-11
1.00923e-08
2.42921e-11
1.00801e-08
2.4541e-11
1.00677e-08
2.47878e-11
1.00551e-08
2.50327e-11
1.00425e-08
2.52758e-11
1.00297e-08
2.55174e-11
1.00169e-08
2.57577e-11
1.00039e-08
2.59969e-11
9.99075e-09
2.62353e-11
9.97751e-09
2.64732e-11
9.96416e-09
2.67104e-11
9.95068e-09
2.69476e-11
9.93709e-09
2.71847e-11
9.92338e-09
2.74219e-11
9.90955e-09
2.76597e-11
9.8956e-09
2.78981e-11
9.88153e-09
2.81373e-11
9.86734e-09
2.83779e-11
9.85303e-09
2.86199e-11
9.8386e-09
2.8864e-11
9.82405e-09
2.91104e-11
9.80937e-09
2.93597e-11
9.79456e-09
2.96124e-11
9.77963e-09
2.98694e-11
9.76456e-09
3.01316e-11
9.74936e-09
3.04002e-11
9.73402e-09
3.06767e-11
9.71854e-09
3.09625e-11
9.70291e-09
3.12604e-11
9.68713e-09
3.1573e-11
9.67118e-09
3.19041e-11
9.65505e-09
3.22581e-11
9.63873e-09
3.26412e-11
9.6222e-09
3.30608e-11
9.60545e-09
3.35269e-11
9.58842e-09
3.40524e-11
9.5711e-09
3.46533e-11
9.55344e-09
3.53517e-11
9.53536e-09
3.61756e-11
9.51679e-09
3.71624e-11
9.49762e-09
3.83621e-11
9.47773e-09
3.98413e-11
9.45691e-09
4.16911e-11
9.43493e-09
4.40363e-11
9.41145e-09
4.7053e-11
9.38603e-09
5.09927e-11
9.35802e-09
5.62256e-11
9.32651e-09
6.33175e-11
9.29016e-09
7.31695e-11
9.24688e-09
8.73052e-11
9.19333e-09
1.08503e-10
9.12361e-09
1.42373e-10
9.0266e-09
2.01862e-10
8.88062e-09
3.22257e-10
6.16402e-10
8.66521e-09
3.68382e-10
-1.08576e-09
7.38269e-10
-1.09048e-09
1.10861e-09
-1.0924e-09
1.47833e-09
-1.09146e-09
1.84633e-09
-1.08768e-09
2.21163e-09
-1.08123e-09
2.57342e-09
-1.07238e-09
2.93106e-09
-1.0614e-09
3.28402e-09
-1.04854e-09
3.63187e-09
-1.03391e-09
3.97408e-09
-1.01747e-09
4.31003e-09
-9.99137e-10
4.63906e-09
-9.78823e-10
4.96043e-09
-9.56511e-10
5.27347e-09
-9.32244e-10
5.57749e-09
-9.06096e-10
5.87188e-09
-8.78156e-10
6.15602e-09
-8.48526e-10
6.42935e-09
-8.17346e-10
6.69137e-09
-7.84806e-10
6.94166e-09
-7.51146e-10
7.17995e-09
-7.16649e-10
7.40606e-09
-6.81627e-10
7.61994e-09
-6.46399e-10
7.82169e-09
-6.11281e-10
8.0115e-09
-5.7657e-10
8.18966e-09
-5.42535e-10
8.35655e-09
-5.09407e-10
8.5126e-09
-4.77382e-10
8.6583e-09
-4.46611e-10
8.79416e-09
-4.17207e-10
8.92073e-09
-3.89246e-10
9.03853e-09
-3.62772e-10
9.1481e-09
-3.37799e-10
9.24998e-09
-3.14317e-10
9.34466e-09
-2.92297e-10
9.43263e-09
-2.71694e-10
9.51435e-09
-2.52454e-10
9.59026e-09
-2.34512e-10
9.66076e-09
-2.17801e-10
9.72624e-09
-2.02249e-10
9.78705e-09
-1.87784e-10
9.84353e-09
-1.74335e-10
9.89598e-09
-1.61833e-10
9.94468e-09
-1.50209e-10
9.9899e-09
-1.39401e-10
1.00319e-08
-1.29347e-10
1.00708e-08
-1.19991e-10
1.0107e-08
-1.11279e-10
1.01405e-08
-1.03161e-10
1.01716e-08
-9.55912e-11
1.02004e-08
-8.85268e-11
1.02271e-08
-8.19286e-11
1.02517e-08
-7.57599e-11
1.02745e-08
-6.99872e-11
1.02956e-08
-6.45796e-11
1.0315e-08
-5.95091e-11
1.03328e-08
-5.47496e-11
1.03492e-08
-5.02772e-11
1.03642e-08
-4.60704e-11
1.0378e-08
-4.2109e-11
1.03905e-08
-3.83748e-11
1.04018e-08
-3.4851e-11
1.04121e-08
-3.15225e-11
1.04214e-08
-2.83751e-11
1.04296e-08
-2.53961e-11
1.0437e-08
-2.25736e-11
1.04434e-08
-1.98971e-11
1.04491e-08
-1.73566e-11
1.04539e-08
-1.49429e-11
1.0458e-08
-1.26481e-11
1.04613e-08
-1.04645e-11
1.0464e-08
-8.38474e-12
1.04661e-08
-6.40292e-12
1.04675e-08
-4.51271e-12
1.04683e-08
-2.70895e-12
1.04685e-08
-9.86429e-13
1.04682e-08
6.59513e-13
1.04674e-08
2.23309e-12
1.04661e-08
3.73848e-12
1.04643e-08
5.17922e-12
1.04621e-08
6.55896e-12
1.04594e-08
7.88082e-12
1.04563e-08
9.14783e-12
1.04528e-08
1.03628e-11
1.04489e-08
1.15286e-11
1.04446e-08
1.26475e-11
1.044e-08
1.3722e-11
1.04351e-08
1.47544e-11
1.04298e-08
1.57464e-11
1.04242e-08
1.67005e-11
1.04183e-08
1.76182e-11
1.04121e-08
1.85015e-11
1.04056e-08
1.93522e-11
1.03989e-08
2.01717e-11
1.03919e-08
2.09617e-11
1.03846e-08
2.17235e-11
1.03771e-08
2.24588e-11
1.03693e-08
2.31687e-11
1.03614e-08
2.38546e-11
1.03532e-08
2.45177e-11
1.03448e-08
2.51593e-11
1.03362e-08
2.57804e-11
1.03274e-08
2.6382e-11
1.03184e-08
2.69654e-11
1.03092e-08
2.75315e-11
1.02998e-08
2.80811e-11
1.02903e-08
2.86155e-11
1.02805e-08
2.91351e-11
1.02707e-08
2.9641e-11
1.02606e-08
3.01341e-11
1.02504e-08
3.06151e-11
1.024e-08
3.10846e-11
1.02295e-08
3.15435e-11
1.02188e-08
3.19925e-11
1.0208e-08
3.24321e-11
1.01971e-08
3.2863e-11
1.0186e-08
3.32859e-11
1.01747e-08
3.37012e-11
1.01633e-08
3.41095e-11
1.01518e-08
3.45115e-11
1.01402e-08
3.49076e-11
1.01284e-08
3.5298e-11
1.01165e-08
3.56838e-11
1.01045e-08
3.60647e-11
1.00924e-08
3.64417e-11
1.00801e-08
3.6815e-11
1.00677e-08
3.71848e-11
1.00552e-08
3.75518e-11
1.00425e-08
3.79163e-11
1.00298e-08
3.82784e-11
1.00169e-08
3.86387e-11
1.00039e-08
3.89974e-11
9.99077e-09
3.93549e-11
9.97753e-09
3.97112e-11
9.96417e-09
4.00671e-11
9.9507e-09
4.04226e-11
9.9371e-09
4.07782e-11
9.92339e-09
4.11339e-11
9.90956e-09
4.14903e-11
9.89561e-09
4.18477e-11
9.88154e-09
4.22066e-11
9.86735e-09
4.25672e-11
9.85304e-09
4.29301e-11
9.83861e-09
4.3296e-11
9.82405e-09
4.36653e-11
9.80938e-09
4.40388e-11
9.79457e-09
4.44177e-11
9.77964e-09
4.48029e-11
9.76457e-09
4.51958e-11
9.74937e-09
4.55981e-11
9.73404e-09
4.6012e-11
9.71856e-09
4.64402e-11
9.70294e-09
4.6886e-11
9.68716e-09
4.73536e-11
9.67121e-09
4.78486e-11
9.65509e-09
4.83778e-11
9.63878e-09
4.89499e-11
9.62227e-09
4.95763e-11
9.60552e-09
5.02716e-11
9.58852e-09
5.10546e-11
9.57122e-09
5.19497e-11
9.55359e-09
5.29889e-11
9.53555e-09
5.42139e-11
9.51703e-09
5.56801e-11
9.49793e-09
5.74607e-11
9.47812e-09
5.96544e-11
9.45742e-09
6.23948e-11
9.43559e-09
6.58655e-11
9.41232e-09
7.03235e-11
9.38717e-09
7.61353e-11
9.35956e-09
8.38375e-11
9.32864e-09
9.42419e-11
9.29318e-09
1.08628e-10
9.25136e-09
1.29119e-10
9.20039e-09
1.59478e-10
9.13583e-09
2.06934e-10
9.05094e-09
2.86747e-10
8.93905e-09
4.3415e-10
7.3174e-10
8.82371e-09
3.8077e-10
-1.46653e-09
7.63005e-10
-1.47272e-09
1.14547e-09
-1.47487e-09
1.52671e-09
-1.47269e-09
1.90505e-09
-1.46603e-09
2.2792e-09
-1.45538e-09
2.64829e-09
-1.44146e-09
3.01195e-09
-1.42507e-09
3.37025e-09
-1.40684e-09
3.72327e-09
-1.38693e-09
4.07079e-09
-1.36499e-09
4.41213e-09
-1.34047e-09
4.74635e-09
-1.31304e-09
5.07252e-09
-1.28268e-09
5.38985e-09
-1.24957e-09
5.69765e-09
-1.2139e-09
5.99526e-09
-1.17576e-09
6.28197e-09
-1.13524e-09
6.55709e-09
-1.09246e-09
6.81998e-09
-1.04769e-09
7.07014e-09
-1.00131e-09
7.30725e-09
-9.53761e-10
7.53117e-09
-9.05544e-10
7.74192e-09
-8.57155e-10
7.93971e-09
-8.09068e-10
8.12486e-09
-7.61718e-10
8.29781e-09
-7.15483e-10
8.45908e-09
-6.7068e-10
8.60926e-09
-6.27559e-10
8.74895e-09
-5.86308e-10
8.8788e-09
-5.47055e-10
8.99943e-09
-5.09876e-10
9.11146e-09
-4.74801e-10
9.21548e-09
-4.41823e-10
9.31207e-09
-4.10903e-10
9.40175e-09
-3.81981e-10
9.48504e-09
-3.54978e-10
9.56239e-09
-3.29806e-10
9.63424e-09
-3.06367e-10
9.701e-09
-2.8456e-10
9.76303e-09
-2.64282e-10
9.82068e-09
-2.45434e-10
9.87427e-09
-2.27917e-10
9.92407e-09
-2.11634e-10
9.97036e-09
-1.96497e-10
1.00134e-08
-1.82421e-10
1.00534e-08
-1.69323e-10
1.00905e-08
-1.5713e-10
1.0125e-08
-1.45772e-10
1.0157e-08
-1.35184e-10
1.01867e-08
-1.25305e-10
1.02143e-08
-1.16081e-10
1.02398e-08
-1.0746e-10
1.02634e-08
-9.93952e-11
1.02853e-08
-9.18434e-11
1.03055e-08
-8.47649e-11
1.03241e-08
-7.81231e-11
1.03412e-08
-7.18847e-11
1.0357e-08
-6.60191e-11
1.03714e-08
-6.0498e-11
1.03846e-08
-5.52958e-11
1.03966e-08
-5.03891e-11
1.04075e-08
-4.57562e-11
1.04174e-08
-4.13773e-11
1.04262e-08
-3.72345e-11
1.04341e-08
-3.3311e-11
1.04412e-08
-2.9592e-11
1.04473e-08
-2.60633e-11
1.04527e-08
-2.27124e-11
1.04573e-08
-1.95275e-11
1.04611e-08
-1.6498e-11
1.04643e-08
-1.36138e-11
1.04667e-08
-1.08662e-11
1.04686e-08
-8.24672e-12
1.04698e-08
-5.74756e-12
1.04705e-08
-3.36171e-12
1.04706e-08
-1.08289e-12
1.04701e-08
1.0955e-12
1.04692e-08
3.1786e-12
1.04678e-08
5.17199e-12
1.04659e-08
7.08015e-12
1.04635e-08
8.90797e-12
1.04607e-08
1.06596e-11
1.04575e-08
1.23387e-11
1.0454e-08
1.39495e-11
1.045e-08
1.5495e-11
1.04457e-08
1.69789e-11
1.0441e-08
1.84038e-11
1.0436e-08
1.97732e-11
1.04306e-08
2.10895e-11
1.0425e-08
2.23554e-11
1.0419e-08
2.35733e-11
1.04128e-08
2.47458e-11
1.04062e-08
2.5875e-11
1.03994e-08
2.69629e-11
1.03924e-08
2.80117e-11
1.03851e-08
2.90235e-11
1.03775e-08
3e-11
1.03698e-08
3.09428e-11
1.03618e-08
3.18541e-11
1.03536e-08
3.2735e-11
1.03451e-08
3.35874e-11
1.03365e-08
3.44128e-11
1.03277e-08
3.52123e-11
1.03186e-08
3.59878e-11
1.03094e-08
3.67402e-11
1.03e-08
3.7471e-11
1.02905e-08
3.81812e-11
1.02807e-08
3.88723e-11
1.02708e-08
3.95451e-11
1.02608e-08
4.02008e-11
1.02505e-08
4.08405e-11
1.02402e-08
4.14652e-11
1.02296e-08
4.20756e-11
1.0219e-08
4.2673e-11
1.02081e-08
4.3258e-11
1.01972e-08
4.38314e-11
1.01861e-08
4.43941e-11
1.01748e-08
4.4947e-11
1.01634e-08
4.54906e-11
1.01519e-08
4.60255e-11
1.01403e-08
4.65529e-11
1.01285e-08
4.70728e-11
1.01166e-08
4.75863e-11
1.01046e-08
4.80938e-11
1.00924e-08
4.85957e-11
1.00801e-08
4.9093e-11
1.00677e-08
4.95856e-11
1.00552e-08
5.00745e-11
1.00426e-08
5.05599e-11
1.00298e-08
5.10424e-11
1.00169e-08
5.15223e-11
1.00039e-08
5.20002e-11
9.99079e-09
5.24765e-11
9.97755e-09