/*--------------------------------*- C++ -*----------------------------------*\
| =========                 |                                                 |
| \\      /  F ield         | foam-extend: Open Source CFD                    |
|  \\    /   O peration     | Version:     5.0                                |
|   \\  /    A nd           | Web:         http://www.foam-extend.org         |
|    \\/     M anipulation  |                                                 |
\*---------------------------------------------------------------------------*/
FoamFile
{
    version     2.0;
    format      ascii;
    class       volScalarField;
    location    "9";
    object      CO2.gas;
}
// * * * * * * * * * * * * * * * * * * * * * * * * * * * * * * * * * * * * * //

dimensions      [0 0 0 0 0 0 0];

internalField   nonuniform List<scalar> 
100
(
0.0919432
0.0908151
0.0894983
0.0883096
0.086959
0.0857675
0.0846619
0.0835495
0.0824201
0.0813215
0.0803973
0.0793413
0.0781161
0.0772134
0.0763915
0.0754648
0.0745621
0.0738807
0.0728762
0.0720599
0.0711799
0.0703192
0.0694977
0.0688
0.0679962
0.0673227
0.0665976
0.0660048
0.065261
0.064644
0.0639584
0.0632465
0.0627171
0.0620889
0.061408
0.0609084
0.0603274
0.0598621
0.0594047
0.0588304
0.058288
0.0577195
0.0573267
0.0568177
0.056303
0.0558737
0.0554366
0.0550899
0.0546308
0.0541633
0.053714
0.0533066
0.0530413
0.0526257
0.0522497
0.0519308
0.0515474
0.051104
0.0507957
0.0504678
0.0500971
0.0498046
0.049466
0.049111
0.0487601
0.0484528
0.0481343
0.0478008
0.0475283
0.0472028
0.0469458
0.0466849
0.0463844
0.0461557
0.0457771
0.0455548
0.0452308
0.044968
0.0447328
0.0444763
0.0442507
0.0440091
0.0437549
0.0435295
0.0432509
0.0430103
0.0428318
0.0426182
0.0423522
0.0421242
0.0419308
0.0417159
0.0414989
0.0412689
0.0411272
0.0409245
0.0407427
0.0406173
0.0404814
0.0403975
)
;

boundaryField
{
    inlet
    {
        type            fixedValue;
        value           uniform 0.2;
    }
    outlet
    {
        type            zeroGradient;
    }
    yzfaces
    {
        type            empty;
    }
}


// ************************************************************************* //
