/*--------------------------------*- C++ -*----------------------------------*\
  =========                 |
  \\      /  F ield         | OpenFOAM: The Open Source CFD Toolbox
   \\    /   O peration     | Website:  https://openfoam.org
    \\  /    A nd           | Version:  10
     \\/     M anipulation  |
\*---------------------------------------------------------------------------*/
FoamFile
{
    format      ascii;
    class       volVectorField;
    location    "0.54";
    object      Ua;
}
// * * * * * * * * * * * * * * * * * * * * * * * * * * * * * * * * * * * * * //

dimensions      [0 1 -1 0 0 0 0];

internalField   nonuniform List<vector> 
12225
(
(9.00037e-05 -1.09032e-05 0)
(0.000263451 -1.01721e-05 0)
(0.000421608 -8.83508e-06 0)
(0.000562214 -7.31455e-06 0)
(0.000686274 -5.89143e-06 0)
(0.000796397 -4.70144e-06 0)
(0.000895593 -3.78615e-06 0)
(0.00098666 -3.14242e-06 0)
(0.001072 -2.7557e-06 0)
(0.00115364 -2.62062e-06 0)
(0.00123342 -2.75627e-06 0)
(0.0013132 -3.22559e-06 0)
(0.00139526 -4.17326e-06 0)
(0.001483 -5.91809e-06 0)
(0.0015825 -9.21747e-06 0)
(0.00170699 -1.61989e-05 0)
(0.00189432 -3.47309e-05 0)
(0.00230352 -0.000107256 0)
(5.86382e-05 -2.86753e-05 0)
(0.000172529 -2.69266e-05 0)
(0.000278135 -2.3556e-05 0)
(0.000373577 -1.96447e-05 0)
(0.000458886 -1.5936e-05 0)
(0.000535222 -1.28057e-05 0)
(0.000604204 -1.03826e-05 0)
(0.000667503 -8.67345e-06 0)
(0.000726685 -7.65107e-06 0)
(0.000783196 -7.31039e-06 0)
(0.000838444 -7.71186e-06 0)
(0.000893962 -9.03599e-06 0)
(0.000951668 -1.16885e-05 0)
(0.00101434 -1.65502e-05 0)
(0.00108662 -2.56676e-05 0)
(0.00117722 -4.45155e-05 0)
(0.00130283 -9.11803e-05 0)
(0.00146765 -0.000243418 0)
(4.63846e-05 -4.02744e-05 0)
(0.000137318 -3.81764e-05 0)
(0.000223438 -3.37304e-05 0)
(0.000303142 -2.83995e-05 0)
(0.000376057 -2.32405e-05 0)
(0.000442679 -1.8822e-05 0)
(0.000503961 -1.53662e-05 0)
(0.000561026 -1.29152e-05 0)
(0.000615027 -1.14547e-05 0)
(0.000667107 -1.09973e-05 0)
(0.000718446 -1.16497e-05 0)
(0.000770357 -1.36959e-05 0)
(0.000824464 -1.77519e-05 0)
(0.000882989 -2.51169e-05 0)
(0.000949206 -3.86759e-05 0)
(0.00102776 -6.54913e-05 0)
(0.00112143 -0.000124951 0)
(0.00119966 -0.000273406 0)
(3.84483e-05 -4.83109e-05 0)
(0.000114501 -4.62396e-05 0)
(0.000187987 -4.12549e-05 0)
(0.000257544 -3.5052e-05 0)
(0.000322597 -2.8916e-05 0)
(0.000383244 -2.35792e-05 0)
(0.000440006 -1.93595e-05 0)
(0.000493631 -1.63477e-05 0)
(0.000544969 -1.4557e-05 0)
(0.000594924 -1.40277e-05 0)
(0.000644469 -1.49134e-05 0)
(0.000694699 -1.7586e-05 0)
(0.000746922 -2.28203e-05 0)
(0.000802767 -3.21846e-05 0)
(0.000864167 -4.89442e-05 0)
(0.000932466 -8.0231e-05 0)
(0.00100323 -0.000141951 0)
(0.00104539 -0.00026515 0)
(3.25833e-05 -5.36654e-05 0)
(9.75951e-05 -5.18798e-05 0)
(0.000161618 -4.67324e-05 0)
(0.000223503 -4.00505e-05 0)
(0.000282586 -3.32863e-05 0)
(0.000338712 -2.73096e-05 0)
(0.000392107 -2.25311e-05 0)
(0.00044324 -1.90976e-05 0)
(0.000492719 -1.70581e-05 0)
(0.000541244 -1.6485e-05 0)
(0.000589596 -1.75746e-05 0)
(0.000638648 -2.07644e-05 0)
(0.000689383 -2.6925e-05 0)
(0.000742851 -3.77297e-05 0)
(0.000799836 -5.63948e-05 0)
(0.000859507 -8.90818e-05 0)
(0.000914989 -0.000146764 0)
(0.000943283 -0.000242959 0)
(2.7972e-05 -5.68012e-05 0)
(8.42577e-05 -5.54906e-05 0)
(0.000140704 -5.04604e-05 0)
(0.00019635 -4.36029e-05 0)
(0.000250512 -3.64886e-05 0)
(0.000302884 -3.0101e-05 0)
(0.000353481 -2.49362e-05 0)
(0.000402559 -2.11989e-05 0)
(0.000450526 -1.89777e-05 0)
(0.000497902 -1.83774e-05 0)
(0.000545283 -1.96281e-05 0)
(0.000593324 -2.32051e-05 0)
(0.000642695 -3.0007e-05 0)
(0.000693933 -4.16563e-05 0)
(0.000746975 -6.09969e-05 0)
(0.000799877 -9.27355e-05 0)
(0.000845972 -0.000143384 0)
(0.000870413 -0.000216778 0)
(2.42145e-05 -5.80095e-05 0)
(7.33482e-05 -5.73121e-05 0)
(0.000123489 -5.26095e-05 0)
(0.000173847 -4.58151e-05 0)
(0.000223765 -3.85804e-05 0)
(0.000272851 -3.1978e-05 0)
(0.000320979 -2.65788e-05 0)
(0.000368234 -2.26426e-05 0)
(0.000414861 -2.02975e-05 0)
(0.000461213 -1.96775e-05 0)
(0.000507712 -2.10346e-05 0)
(0.000554806 -2.48514e-05 0)
(0.000602883 -3.19897e-05 0)
(0.000652075 -4.3898e-05 0)
(0.000701791 -6.28642e-05 0)
(0.000749777 -9.2101e-05 0)
(0.000790671 -0.000134848 0)
(0.000815689 -0.000190516 0)
(2.10818e-05 -5.74991e-05 0)
(6.42145e-05 -5.75108e-05 0)
(0.000108978 -5.32883e-05 0)
(0.000154733 -4.67436e-05 0)
(0.000200884 -3.9579e-05 0)
(0.000247005 -3.29325e-05 0)
(0.000292873 -2.74355e-05 0)
(0.000338445 -2.33964e-05 0)
(0.000383821 -2.09788e-05 0)
(0.000429207 -2.03401e-05 0)
(0.000474864 -2.17399e-05 0)
(0.000521052 -2.56397e-05 0)
(0.000567923 -3.28113e-05 0)
(0.000615323 -4.44516e-05 0)
(0.000662421 -6.22416e-05 0)
(0.00070713 -8.8124e-05 0)
(0.000745608 -0.00012327 0)
(0.00077303 -0.000165553 0)
(1.8428e-05 -5.54399e-05 0)
(5.64419e-05 -5.62161e-05 0)
(9.65387e-05 -5.2574e-05 0)
(0.000138215 -4.64192e-05 0)
(0.00018096 -3.94814e-05 0)
(0.000224354 -3.29397e-05 0)
(0.000268113 -2.74688e-05 0)
(0.000312092 -2.34154e-05 0)
(0.000356273 -2.09719e-05 0)
(0.000400727 -2.03111e-05 0)
(0.000445571 -2.16866e-05 0)
(0.000490903 -2.55142e-05 0)
(0.000536692 -3.24405e-05 0)
(0.000582617 -4.33808e-05 0)
(0.000627806 -5.94556e-05 0)
(0.000670569 -8.16619e-05 0)
(0.000708384 -0.000110032 0)
(0.000738829 -0.000142243 0)
(1.61525e-05 -5.19875e-05 0)
(4.97429e-05 -5.35412e-05 0)
(8.57321e-05 -5.05284e-05 0)
(0.000123746 -4.48603e-05 0)
(0.000163377 -3.82751e-05 0)
(0.000204237 -3.19673e-05 0)
(0.000246008 -2.66347e-05 0)
(0.000288468 -2.26493e-05 0)
(0.000331496 -2.02232e-05 0)
(0.000375049 -1.95356e-05 0)
(0.000419117 -2.08216e-05 0)
(0.000463662 -2.44347e-05 0)
(0.000508531 -3.08803e-05 0)
(0.000553323 -4.08013e-05 0)
(0.000597254 -5.48592e-05 0)
(0.000639076 -7.34211e-05 0)
(0.000677274 -9.59904e-05 0)
(0.000710814 -0.000120554 0)
(1.41796e-05 -4.73011e-05 0)
(4.39003e-05 -4.95957e-05 0)
(7.62281e-05 -4.72088e-05 0)
(0.000110919 -4.20828e-05 0)
(0.000147683 -3.59466e-05 0)
(0.000186179 -2.99828e-05 0)
(0.000226074 -2.48895e-05 0)
(0.000267087 -2.10482e-05 0)
(0.000309011 -1.86801e-05 0)
(0.000351701 -1.79618e-05 0)
(0.000395044 -1.91007e-05 0)
(0.000438897 -2.23789e-05 0)
(0.000483026 -2.8162e-05 0)
(0.000527021 -3.68564e-05 0)
(0.000570238 -4.87831e-05 0)
(0.000611831 -6.3935e-05 0)
(0.000650987 -8.16414e-05 0)
(0.000687452 -0.000100318 0)
(1.22977e-05 -4.20019e-05 0)
(3.83485e-05 -4.49132e-05 0)
(6.72533e-05 -4.30743e-05 0)
(9.88853e-05 -3.84767e-05 0)
(0.000133038 -3.28226e-05 0)
(0.000169399 -2.72598e-05 0)
(0.000207611 -2.24666e-05 0)
(0.000247337 -1.88193e-05 0)
(0.000288295 -1.65389e-05 0)
(0.000330257 -1.57928e-05 0)
(0.000373023 -1.6758e-05 0)
(0.00041638 -1.96504e-05 0)
(0.000460052 -2.47188e-05 0)
(0.000503657 -3.21933e-05 0)
(0.000546699 -4.21759e-05 0)
(0.000588635 -5.44709e-05 0)
(0.000629078 -6.84049e-05 0)
(0.000668159 -8.27616e-05 0)
(1.10485e-05 -3.59988e-05 0)
(3.45803e-05 -3.93763e-05 0)
(6.09887e-05 -3.7993e-05 0)
(9.02801e-05 -3.39059e-05 0)
(0.000122358 -2.87661e-05 0)
(0.000156968 -2.36624e-05 0)
(0.000193764 -1.92308e-05 0)
(0.000232382 -1.58277e-05 0)
(0.000272492 -1.36632e-05 0)
(0.000313801 -1.28909e-05 0)
(0.000356039 -1.36563e-05 0)
(0.000398937 -1.61151e-05 0)
(0.000442213 -2.04202e-05 0)
(0.000485544 -2.66742e-05 0)
(0.000528575 -3.48455e-05 0)
(0.000570986 -4.466e-05 0)
(0.000612667 -5.55141e-05 0)
(0.000653964 -6.64848e-05 0)
(9.77236e-06 -2.8657e-05 0)
(3.06725e-05 -3.22678e-05 0)
(5.4417e-05 -3.12264e-05 0)
(8.12232e-05 -2.76582e-05 0)
(0.000111112 -2.31088e-05 0)
(0.000143877 -1.85703e-05 0)
(0.000179177 -1.46036e-05 0)
(0.000216616 -1.15195e-05 0)
(0.000255797 -9.51267e-06 0)
(0.000296336 -8.71864e-06 0)
(0.000337917 -9.24124e-06 0)
(0.000380295 -1.11712e-05 0)
(0.00042324 -1.45757e-05 0)
(0.000466497 -1.94599e-05 0)
(0.000509807 -2.57097e-05 0)
(0.000553008 -3.30336e-05 0)
(0.000596169 -4.09347e-05 0)
(0.000639754 -4.87483e-05 0)
(8.39858e-06 -2.00676e-05 0)
(2.64238e-05 -2.33529e-05 0)
(4.72756e-05 -2.24167e-05 0)
(7.14943e-05 -1.93496e-05 0)
(9.91636e-05 -1.54551e-05 0)
(0.000130063 -1.15763e-05 0)
(0.000163841 -8.19335e-06 0)
(0.00019996 -5.54616e-06 0)
(0.000237896 -3.77555e-06 0)
(0.000277384 -2.96117e-06 0)
(0.000318282 -3.19635e-06 0)
(0.000360364 -4.51043e-06 0)
(0.00040333 -6.89779e-06 0)
(0.000446892 -1.03093e-05 0)
(0.000490851 -1.45942e-05 0)
(0.000535161 -1.94863e-05 0)
(0.000580009 -2.46057e-05 0)
(0.000625928 -2.94975e-05 0)
(6.62044e-06 -1.04796e-05 0)
(2.10553e-05 -1.23706e-05 0)
(3.86255e-05 -1.1213e-05 0)
(6.02869e-05 -8.66179e-06 0)
(8.58698e-05 -5.61965e-06 0)
(0.000114634 -2.33634e-06 0)
(0.000146241 4.68193e-07 0)
(0.000180672 2.66448e-06 0)
(0.000217722 4.18934e-06 0)
(0.00025698 5.01276e-06 0)
(0.000297971 5.08155e-06 0)
(0.000340294 4.41269e-06 0)
(0.000383653 3.06269e-06 0)
(0.000427838 1.12135e-06 0)
(0.000472746 -1.25138e-06 0)
(0.000518424 -3.83198e-06 0)
(0.000565132 -6.34644e-06 0)
(0.00061344 -8.49903e-06 0)
(3.32102e-06 1.01358e-07 0)
(1.15972e-05 1.0772e-06 0)
(2.42077e-05 2.63119e-06 0)
(4.21804e-05 4.59806e-06 0)
(6.5333e-05 6.80103e-06 0)
(9.32086e-05 9.28641e-06 0)
(0.000125003 1.1443e-05 0)
(0.000159911 1.31889e-05 0)
(0.00019738 1.44885e-05 0)
(0.000236976 1.53302e-05 0)
(0.00027834 1.57347e-05 0)
(0.000321175 1.57549e-05 0)
(0.000365255 1.54764e-05 0)
(0.000410433 1.50196e-05 0)
(0.000456673 1.45394e-05 0)
(0.000504082 1.42192e-05 0)
(0.000552967 1.42586e-05 0)
(0.000603916 1.48539e-05 0)
(7.7467e-06 1.28234e-05 0)
(2.36963e-05 1.75487e-05 0)
(4.12453e-05 2.0179e-05 0)
(6.15148e-05 2.19266e-05 0)
(8.51372e-05 2.34098e-05 0)
(0.000112277 2.47545e-05 0)
(0.000142748 2.59301e-05 0)
(0.000176217 2.69257e-05 0)
(0.000212325 2.77527e-05 0)
(0.000250732 2.8447e-05 0)
(0.000291135 2.90694e-05 0)
(0.000333283 2.97051e-05 0)
(0.000376993 3.04621e-05 0)
(0.000422162 3.1471e-05 0)
(0.000468798 3.28823e-05 0)
(0.000517049 3.48646e-05 0)
(0.000567253 3.76043e-05 0)
(0.000620018 4.13114e-05 0)
(1.06822e-05 3.03419e-05 0)
(3.27953e-05 3.75514e-05 0)
(5.65066e-05 4.14738e-05 0)
(8.21044e-05 4.33519e-05 0)
(0.000109924 4.41271e-05 0)
(0.000140166 4.43499e-05 0)
(0.000172862 4.43333e-05 0)
(0.000207919 4.42718e-05 0)
(0.000245182 4.43058e-05 0)
(0.000284473 4.4556e-05 0)
(0.00032563 4.51408e-05 0)
(0.000368524 4.61856e-05 0)
(0.000413085 4.78261e-05 0)
(0.000459324 5.02093e-05 0)
(0.000507372 5.34925e-05 0)
(0.000557524 5.78437e-05 0)
(0.000610335 6.3444e-05 0)
(0.000666776 7.05005e-05 0)
(1.20266e-05 4.92431e-05 0)
(3.72176e-05 5.65167e-05 0)
(6.45731e-05 6.04942e-05 0)
(9.39755e-05 6.2028e-05 0)
(0.000125435 6.2037e-05 0)
(0.000158964 6.12364e-05 0)
(0.000194532 6.01321e-05 0)
(0.000232065 5.90766e-05 0)
(0.000271467 5.83257e-05 0)
(0.000312648 5.80808e-05 0)
(0.000355543 5.85181e-05 0)
(0.000400128 5.9807e-05 0)
(0.000446442 6.21203e-05 0)
(0.000494606 6.56407e-05 0)
(0.000544863 7.0565e-05 0)
(0.000597624 7.71108e-05 0)
(0.000653565 8.55322e-05 0)
(0.000713809 9.6157e-05 0)
(1.41392e-05 6.46717e-05 0)
(4.35474e-05 7.07063e-05 0)
(7.50957e-05 7.3708e-05 0)
(0.000108583 7.43054e-05 0)
(0.00014388 7.33423e-05 0)
(0.000180896 7.15606e-05 0)
(0.000219559 6.95303e-05 0)
(0.000259806 6.76695e-05 0)
(0.000301592 6.62871e-05 0)
(0.000344907 6.56262e-05 0)
(0.000389781 6.58971e-05 0)
(0.000436301 6.73025e-05 0)
(0.000484633 7.00538e-05 0)
(0.000535041 7.43849e-05 0)
(0.000587939 8.05641e-05 0)
(0.000643969 8.89137e-05 0)
(0.000704176 9.98498e-05 0)
(0.000770333 0.000113968 0)
(1.67089e-05 7.63913e-05 0)
(5.11176e-05 8.09237e-05 0)
(8.7408e-05 8.26265e-05 0)
(0.000125366 8.20729e-05 0)
(0.00016479 8.00639e-05 0)
(0.000205531 7.73377e-05 0)
(0.00024749 7.44804e-05 0)
(0.000290626 7.19301e-05 0)
(0.000334948 7.00137e-05 0)
(0.000380527 6.89894e-05 0)
(0.000427501 6.90839e-05 0)
(0.000476083 7.05222e-05 0)
(0.000526584 7.35505e-05 0)
(0.000579438 7.84555e-05 0)
(0.000635264 8.55837e-05 0)
(0.000694985 9.5368e-05 0)
(0.000760071 0.000108377 0)
(0.00083303 0.000125411 0)
(1.97789e-05 8.38083e-05 0)
(6.01096e-05 8.68838e-05 0)
(0.000101886 8.72678e-05 0)
(0.000144873 8.55706e-05 0)
(0.000188827 8.25834e-05 0)
(0.000233572 7.90315e-05 0)
(0.000279014 7.5491e-05 0)
(0.000325148 7.23913e-05 0)
(0.000372054 7.00512e-05 0)
(0.000419901 6.87226e-05 0)
(0.000468946 6.86315e-05 0)
(0.000519545 7.00119e-05 0)
(0.000572174 7.31353e-05 0)
(0.000627462 7.83378e-05 0)
(0.000686265 8.60494e-05 0)
(0.000749824 9.68354e-05 0)
(0.00082007 0.000111467 0)
(0.000900282 0.000131073 0)
(2.34151e-05 8.67991e-05 0)
(7.07338e-05 8.85855e-05 0)
(0.000118897 8.78007e-05 0)
(0.000167617 8.51209e-05 0)
(0.000216619 8.13387e-05 0)
(0.000265722 7.71587e-05 0)
(0.000314866 7.31294e-05 0)
(0.000364106 6.9652e-05 0)
(0.000413617 6.70188e-05 0)
(0.00046368 6.54597e-05 0)
(0.000514689 6.51848e-05 0)
(0.000567158 6.64228e-05 0)
(0.000621747 6.94561e-05 0)
(0.000679305 7.46578e-05 0)
(0.00074097 8.25371e-05 0)
(0.00080837 9.38023e-05 0)
(0.000884033 0.000109462 0)
(0.000972371 0.000131038 0)
(2.77328e-05 8.54774e-05 0)
(8.33281e-05 8.61947e-05 0)
(0.000138986 8.44869e-05 0)
(0.000194328 8.10846e-05 0)
(0.000249048 7.67732e-05 0)
(0.000302985 7.22231e-05 0)
(0.000356137 6.79409e-05 0)
(0.000408653 6.42856e-05 0)
(0.000460822 6.15113e-05 0)
(0.00051306 5.98145e-05 0)
(0.000565913 5.93779e-05 0)
(0.000620063 6.04104e-05 0)
(0.000676368 6.31872e-05 0)
(0.000735916 6.80963e-05 0)
(0.000800161 7.57028e-05 0)
(0.000871162 8.6843e-05 0)
(0.000952084 0.000102771 0)
(0.00104847 0.000125422 0)
(3.29361e-05 8.00402e-05 0)
(9.84841e-05 7.99352e-05 0)
(0.000163093 7.76067e-05 0)
(0.00022625 7.38059e-05 0)
(0.00028762 6.92865e-05 0)
(0.000347085 6.46667e-05 0)
(0.000404734 6.03971e-05 0)
(0.000460842 5.67849e-05 0)
(0.000515839 5.40389e-05 0)
(0.000570299 5.23162e-05 0)
(0.00062493 5.17644e-05 0)
(0.000680597 5.25608e-05 0)
(0.000738358 5.49541e-05 0)
(0.000799554 5.93175e-05 0)
(0.000865983 6.62304e-05 0)
(0.000940185 7.66129e-05 0)
(0.00102605 9.19722e-05 0)
(0.00113025 0.000114905 0)
(3.94187e-05 7.0653e-05 0)
(0.000117346 6.99902e-05 0)
(0.000193033 6.73821e-05 0)
(0.000265794 6.3551e-05 0)
(0.000335265 5.91844e-05 0)
(0.000401398 5.48253e-05 0)
(0.000464413 5.08548e-05 0)
(0.000524746 4.75217e-05 0)
(0.000583005 4.49867e-05 0)
(0.000639939 4.33657e-05 0)
(0.000696438 4.27681e-05 0)
(0.00075355 4.33323e-05 0)
(0.000812537 4.52641e-05 0)
(0.000874993 4.88903e-05 0)
(0.000943063 5.47464e-05 0)
(0.00101984 6.37398e-05 0)
(0.00111018 7.7495e-05 0)
(0.00122279 9.9189e-05 0)
(4.80876e-05 5.73237e-05 0)
(0.000142558 5.63875e-05 0)
(0.000233027 5.38769e-05 0)
(0.000318584 5.04243e-05 0)
(0.000398841 4.66077e-05 0)
(0.000473854 4.28679e-05 0)
(0.000544021 3.95032e-05 0)
(0.000609985 3.66993e-05 0)
(0.000672566 3.45692e-05 0)
(0.000732719 3.31901e-05 0)
(0.000791532 3.26347e-05 0)
(0.000850248 3.29995e-05 0)
(0.00091033 3.44369e-05 0)
(0.000973607 3.72008e-05 0)
(0.00104255 4.17242e-05 0)
(0.00112078 4.87734e-05 0)
(0.00121422 5.97966e-05 0)
(0.00133406 7.78083e-05 0)
(6.20042e-05 3.96596e-05 0)
(0.000183068 3.87675e-05 0)
(0.000297412 3.67852e-05 0)
(0.000403811 3.41803e-05 0)
(0.000501843 3.13667e-05 0)
(0.000591709 2.86508e-05 0)
(0.000674034 2.62327e-05 0)
(0.000749717 2.42316e-05 0)
(0.000819828 2.27159e-05 0)
(0.000885562 2.17296e-05 0)
(0.000948232 2.13135e-05 0)
(0.0010093 2.15254e-05 0)
(0.00107045 2.24604e-05 0)
(0.00113375 2.42828e-05 0)
(0.00120199 2.72799e-05 0)
(0.00127923 3.19719e-05 0)
(0.00137229 3.93625e-05 0)
(0.00149443 5.15571e-05 0)
(0.000114656 1.48595e-05 0)
(0.000337643 1.44672e-05 0)
(0.000546786 1.36667e-05 0)
(0.000740395 1.26403e-05 0)
(0.000917994 1.15461e-05 0)
(0.00107994 1.04991e-05 0)
(0.00122704 9.57272e-06 0)
(0.00136027 8.80963e-06 0)
(0.00148066 8.23325e-06 0)
(0.00158916 7.85805e-06 0)
(0.00168673 7.69758e-06 0)
(0.00177434 7.77142e-06 0)
(0.00185315 8.1129e-06 0)
(0.0019247 8.78045e-06 0)
(0.00199128 9.87725e-06 0)
(0.00205669 1.15915e-05 0)
(0.00212784 1.42881e-05 0)
(0.00221922 1.87249e-05 0)
(9.37694e-05 -0.000200428 -2.58936e-30)
(0.000282088 -0.000200182 2.58396e-30)
(0.000471641 -0.000199774 0)
(0.000662282 -0.0001992 0)
(0.000853855 -0.000198458 0)
(0.0010462 -0.000197547 -2.54089e-30)
(0.00123915 -0.000196466 0)
(0.00143254 -0.000195214 0)
(0.00162618 -0.000193791 0)
(0.00181991 -0.000192199 0)
(0.00201354 -0.000190438 2.43758e-30)
(0.00220688 -0.000188511 0)
(0.00239974 -0.000186421 0)
(0.00259195 -0.000184171 0)
(0.00278331 -0.000181767 0)
(0.00297364 -0.000179213 2.28118e-30)
(0.00316274 -0.000176517 0)
(0.00335045 -0.000173683 0)
(0.00353658 -0.000170721 0)
(0.00372095 -0.000167637 0)
(0.00390339 -0.000164441 0)
(0.00408376 -0.000161142 0)
(0.00426187 -0.000157749 0)
(0.0044376 -0.000154272 1.94154e-30)
(0.00461079 -0.000150721 -1.8936e-30)
(0.00478131 -0.000147106 1.84486e-30)
(0.00494905 -0.000143437 1.79546e-30)
(0.00511388 -0.000139725 0)
(0.0052757 -0.000135979 0)
(0.00543442 -0.000132209 -1.64461e-30)
(0.00558996 -0.000128426 -1.59387e-30)
(0.00574223 -0.000124637 0)
(0.00589118 -0.000120852 0)
(0.00603674 -0.00011708 -1.44196e-30)
(0.00617888 -0.000113328 0)
(0.00631755 -0.000109604 0)
(0.00645273 -0.000105915 1.29274e-30)
(0.0065844 -0.000102268 0)
(0.00671255 -9.86678e-05 1.19601e-30)
(0.00683717 -9.51211e-05 2.2974e-30)
(0.00695828 -9.16324e-05 0)
(0.00707588 -8.82062e-05 0)
(0.00718998 -8.48464e-05 0)
(0.00730063 -8.15564e-05 0)
(0.00740783 -7.83394e-05 0)
(0.00751164 -7.51977e-05 1.76647e-30)
(0.00761209 -7.21336e-05 1.68489e-30)
(0.00770923 -6.91487e-05 1.60544e-30)
(0.0078031 -6.62445e-05 0)
(0.00789375 -6.34219e-05 -1.45305e-30)
(0.00798125 -6.06817e-05 0)
(0.00806564 -5.80241e-05 1.30946e-30)
(0.008147 -5.54493e-05 1.24098e-30)
(0.00822538 -5.29571e-05 0)
(0.00830084 -5.05472e-05 0)
(0.00837346 -4.82189e-05 0)
(0.0084433 -4.59715e-05 9.88997e-31)
(0.00851043 -4.3804e-05 0)
(0.00857492 -4.17152e-05 0)
(0.00863684 -3.97039e-05 0)
(0.00869626 -3.77689e-05 0)
(0.00875324 -3.59085e-05 0)
(0.00880786 -3.41213e-05 0)
(0.0088602 -3.24055e-05 0)
(0.00891031 -3.07596e-05 0)
(0.00895826 -2.91818e-05 -5.42834e-31)
(0.00900413 -2.76703e-05 0)
(0.00904799 -2.62232e-05 0)
(0.0090899 -2.48388e-05 4.27464e-31)
(0.00912992 -2.35152e-05 3.923e-31)
(0.00916812 -2.22505e-05 0)
(0.00920457 -2.10428e-05 -3.26632e-31)
(0.00923932 -1.98904e-05 2.9602e-31)
(0.00927245 -1.87913e-05 0)
(0.009304 -1.77437e-05 -2.39002e-31)
(0.00933405 -1.67459e-05 0)
(0.00936264 -1.57959e-05 0)
(0.00938983 -1.48921e-05 1.63266e-31)
(0.00941568 -1.40327e-05 0)
(0.00944024 -1.3216e-05 -1.18749e-31)
(0.00946357 -1.24404e-05 0)
(0.00948571 -1.17041e-05 7.8592e-32)
(0.00950672 -1.10057e-05 6.00432e-32)
(0.00952663 -1.03435e-05 4.24556e-32)
(0.00954551 -9.716e-06 5.15827e-32)
(0.00956339 -9.12176e-06 -2.00126e-32)
(0.00958031 -8.55932e-06 0)
(0.00959633 -8.02727e-06 0)
(0.00961147 -7.52428e-06 0)
(0.00962579 -7.04901e-06 9.00888e-32)
(0.00963932 -6.6002e-06 1.13933e-31)
(0.00965209 -6.17662e-06 -1.36433e-31)
(0.00966414 -5.77707e-06 0)
(0.00967551 -5.40041e-06 1.77666e-31)
(0.00968622 -5.04553e-06 1.96524e-31)
(0.00969632 -4.71137e-06 2.14276e-31)
(0.00970583 -4.39689e-06 0)
(0.00971478 -4.10111e-06 0)
(0.00972319 -3.82308e-06 0)
(0.00973111 -3.56188e-06 2.75346e-31)
(0.00973854 -3.31664e-06 0)
(0.00974552 -3.08651e-06 0)
(0.00975207 -2.8707e-06 -3.12065e-31)
(0.00975822 -2.66843e-06 0)
(0.00976398 -2.47897e-06 0)
(0.00976938 -2.30161e-06 -3.42306e-31)
(0.00977444 -2.13568e-06 0)
(0.00977917 -1.98053e-06 0)
(0.00978359 -1.83555e-06 3.67071e-31)
(0.00978773 -1.70016e-06 3.74266e-31)
(0.00979159 -1.5738e-06 0)
(0.0097952 -1.45594e-06 -3.87247e-31)
(0.00979856 -1.34608e-06 0)
(0.0098017 -1.24374e-06 3.98522e-31)
(0.00980463 -1.14846e-06 0)
(0.00980735 -1.05982e-06 4.083e-31)
(0.00980988 -9.77391e-07 4.12676e-31)
(0.00981224 -9.00802e-07 0)
(0.00981443 -8.29679e-07 0)
(0.00981647 -7.63675e-07 0)
(0.00981836 -7.02461e-07 0)
(0.00982011 -6.45726e-07 0)
(0.00982174 -5.93177e-07 0)
(0.00982325 -5.44535e-07 0)
(0.00982464 -4.9954e-07 4.38082e-31)
(0.00982593 -4.57945e-07 -4.40289e-31)
(0.00982713 -4.19517e-07 0)
(0.00982823 -3.84037e-07 0)
(0.00982925 -3.513e-07 0)
(0.00983019 -3.2111e-07 0)
(0.00983106 -2.93285e-07 -8.98089e-31)
(0.00983186 -2.67654e-07 0)
(0.00983259 -2.44054e-07 9.03326e-31)
(0.00983327 -2.22333e-07 -9.05636e-31)
(0.00983389 -2.02347e-07 0)
(0.00983446 -1.83959e-07 0)
(0.00983498 -1.67042e-07 0)
(0.00983546 -1.51471e-07 9.13174e-31)
(0.0098359 -1.37132e-07 9.14698e-31)
(0.0098363 -1.23912e-07 0)
(0.00983666 -1.11702e-07 9.17396e-31)
(0.00983699 -1.00396e-07 9.18592e-31)
(0.00983729 -8.9889e-08 -9.19712e-31)
(0.00983756 -8.00761e-08 0)
(0.0098378 -7.08496e-08 0)
(0.00983802 -6.20971e-08 -9.22654e-31)
(0.00983821 -5.36992e-08 0)
(0.00983837 -4.55257e-08 0)
(0.00983851 -3.74316e-08 0)
(0.00983862 -2.92518e-08 0)
(0.0098387 -2.07949e-08 9.26988e-31)
(0.00983876 -1.18343e-08 9.2792e-31)
(0.00983878 -2.09804e-09 0)
(0.00983877 8.74429e-09 9.3005e-31)
(0.00983872 2.10994e-08 0)
(0.00983862 3.54716e-08 0)
(0.00983846 5.24922e-08 9.34544e-31)
(0.00983823 7.29557e-08 0)
(0.00983792 9.7869e-08 9.39187e-31)
(0.00983751 1.28515e-07 0)
(0.00983696 1.66534e-07 0)
(0.00983624 2.14043e-07 9.51038e-31)
(0.00983532 2.73778e-07 0)
(0.00983412 3.49307e-07 9.64822e-31)
(0.00983259 4.45311e-07 0)
(0.00983061 5.67983e-07 0)
(0.00982806 7.25602e-07 0)
(0.00982477 9.29365e-07 -1.02392e-30)
(0.0098205 1.19464e-06 0)
(0.00981495 1.54291e-06 1.08643e-30)
(0.00980768 2.00492e-06 0)
(0.00979811 2.62592e-06 0)
(0.00978537 3.47506e-06 0)
(0.00976822 4.66314e-06 0)
(0.00974471 6.37918e-06 0)
(0.00971172 8.97412e-06 0)
(0.00966363 1.3181e-05 0)
(0.00958911 2.08182e-05 -6.11624e-30)
(0.00945952 3.77153e-05 0)
(0.00917231 9.06975e-05 0)
(9.41079e-05 -0.000602008 7.77741e-30)
(0.000283104 -0.000601267 -7.76114e-30)
(0.000473337 -0.000600036 0)
(0.000664657 -0.000598307 1.54345e-29)
(0.000856905 -0.000596073 0)
(0.00104992 -0.000593329 -7.6562e-30)
(0.00124353 -0.000590071 -1.51942e-29)
(0.00143757 -0.000586299 -1.50876e-29)
(0.00163186 -0.000582012 0)
(0.00182621 -0.000577214 -1.48344e-29)
(0.00202044 -0.000571908 7.36788e-30)
(0.00221437 -0.000566101 0)
(0.0024078 -0.000559803 0)
(0.00260055 -0.000553025 0)
(0.00279242 -0.000545781 0)
(0.00298322 -0.000538088 6.9194e-30)
(0.00317278 -0.000529963 0)
(0.0033609 -0.000521427 1.33199e-29)
(0.0035474 -0.000512504 0)
(0.00373212 -0.000503216 0)
(0.00391487 -0.000493592 -1.25742e-29)
(0.00409549 -0.000483657 0)
(0.00427383 -0.000473442 1.20364e-29)
(0.00444974 -0.000462975 5.93128e-30)
(0.00462308 -0.000452286 -5.79109e-30)
(0.00479371 -0.000441407 5.64847e-30)
(0.00496152 -0.000430368 5.50381e-30)
(0.00512638 -0.0004192 0)
(0.0052882 -0.000407933 0)
(0.00544689 -0.000396597 -5.06159e-30)
(0.00560236 -0.00038522 -1.46059e-29)
(0.00575454 -0.00037383 0)
(0.00590336 -0.000362455 0)
(0.00604878 -0.000351118 -4.46669e-30)
(0.00619074 -0.000339845 0)
(0.00632922 -0.000328658 0)
(0.00646419 -0.000317579 4.0283e-30)
(0.00659563 -0.000306625 0)
(0.00672353 -0.000295817 1.10732e-29)
(0.00684789 -0.000285169 7.20976e-30)
(0.00696873 -0.000274696 0)
(0.00708605 -0.000264413 0)
(0.00719987 -0.00025433 -1.24686e-29)
(0.00731022 -0.000244458 -1.19478e-29)
(0.00741714 -0.000234806 -1.14387e-29)
(0.00752065 -0.000225381 1.65901e-29)
(0.0076208 -0.00021619 5.40845e-30)
(0.00771763 -0.000207237 -4.81031e-30)
(0.0078112 -0.000198527 9.52591e-30)
(0.00790156 -0.000190062 -4.72644e-30)
(0.00798876 -0.000181845 0)
(0.00807287 -0.000173877 4.30401e-30)
(0.00815393 -0.000166157 1.19226e-29)
(0.00823203 -0.000158685 0)
(0.00830722 -0.000151461 0)
(0.00837957 -0.000144482 0)
(0.00844915 -0.000137745 3.36115e-30)
(0.00851602 -0.000131248 0)
(0.00858026 -0.000124988 5.6514e-30)
(0.00864194 -0.00011896 0)
(0.00870112 -0.00011316 5.02854e-30)
(0.00875787 -0.000107585 0)
(0.00881227 -0.000102229 -4.45291e-30)
(0.00886439 -9.70877e-05 0)
(0.0089143 -9.21556e-05 3.92248e-30)
(0.00896205 -8.74277e-05 -5.72191e-30)
(0.00900773 -8.28985e-05 0)
(0.00905141 -7.85626e-05 -3.2068e-30)
(0.00909314 -7.44145e-05 1.70889e-30)
(0.00913299 -7.04486e-05 1.60543e-30)
(0.00917103 -6.66593e-05 0)
(0.00920732 -6.3041e-05 -3.80182e-30)
(0.00924193 -5.95882e-05 1.32212e-30)
(0.00927491 -5.62952e-05 0)
(0.00930633 -5.31567e-05 -1.15435e-30)
(0.00933624 -5.01671e-05 -1.71189e-30)
(0.00936471 -4.73211e-05 0)
(0.00939179 -4.46134e-05 9.31497e-31)
(0.00941752 -4.20387e-05 0)
(0.00944198 -3.95921e-05 3.54671e-31)
(0.0094652 -3.72684e-05 0)
(0.00948725 -3.50627e-05 -2.34386e-31)
(0.00950816 -3.29703e-05 6.2778e-31)
(0.00952799 -3.09865e-05 1.2782e-30)
(0.00954678 -2.91067e-05 2.26041e-30)
(0.00956458 -2.73264e-05 -1.98009e-30)
(0.00958143 -2.56415e-05 0)
(0.00959738 -2.40476e-05 0)
(0.00961246 -2.25408e-05 0)
(0.00962671 -2.1117e-05 -2.71958e-31)
(0.00964018 -1.97725e-05 -5.67019e-31)
(0.0096529 -1.85036e-05 5.00818e-31)
(0.00966489 -1.73067e-05 0)
(0.00967621 -1.61783e-05 -2.24712e-31)
(0.00968688 -1.51152e-05 -3.24034e-31)
(0.00969693 -1.41141e-05 -2.71806e-31)
(0.0097064 -1.3172e-05 0)
(0.00971531 -1.2286e-05 0)
(0.00972369 -1.14531e-05 0)
(0.00973157 -1.06706e-05 -9.21437e-32)
(0.00973897 -9.93592e-06 0)
(0.00974592 -9.24653e-06 8.8468e-31)
(0.00975245 -8.60003e-06 9.36879e-31)
(0.00975857 -7.99409e-06 -1.01658e-30)
(0.0097643 -7.42652e-06 0)
(0.00976968 -6.89519e-06 -1.23713e-30)
(0.00977471 -6.3981e-06 0)
(0.00977942 -5.93331e-06 -1.23359e-30)
(0.00978383 -5.499e-06 1.45701e-30)
(0.00978795 -5.09341e-06 1.5209e-30)
(0.00979179 -4.71487e-06 0)
(0.00979538 -4.36179e-06 1.16207e-30)
(0.00979874 -4.03268e-06 -1.43375e-30)
(0.00980186 -3.72609e-06 2.70195e-31)
(0.00980477 -3.44065e-06 0)
(0.00980748 -3.17509e-06 2.98949e-31)
(0.00981001 -2.92816e-06 -1.23827e-30)
(0.00981236 -2.69871e-06 0)
(0.00981454 -2.48564e-06 -1.5967e-30)
(0.00981657 -2.28791e-06 -1.61753e-30)
(0.00981845 -2.10452e-06 -1.63685e-30)
(0.0098202 -1.93456e-06 0)
(0.00982182 -1.77713e-06 0)
(0.00982332 -1.6314e-06 0)
(0.00982471 -1.49661e-06 2.08743e-30)
(0.00982599 -1.37199e-06 -3.93037e-31)
(0.00982718 -1.25687e-06 0)
(0.00982828 -1.15058e-06 1.73734e-30)
(0.0098293 -1.0525e-06 1.74767e-30)
(0.00983023 -9.62054e-07 0)
(0.00983109 -8.78695e-07 -8.37562e-31)
(0.00983189 -8.01907e-07 3.54815e-30)
(0.00983262 -7.31205e-07 8.52958e-31)
(0.00983329 -6.66131e-07 -4.4365e-30)
(0.00983391 -6.06255e-07 0)
(0.00983448 -5.51168e-07 0)
(0.009835 -5.00486e-07 0)
(0.00983548 -4.53842e-07 8.81912e-31)
(0.00983591 -4.10886e-07 4.51692e-30)
(0.00983631 -3.71282e-07 3.63887e-30)
(0.00983668 -3.34706e-07 8.94339e-31)
(0.00983701 -3.0084e-07 4.55156e-30)
(0.0098373 -2.69369e-07 -9.01156e-31)
(0.00983757 -2.3998e-07 0)
(0.00983781 -2.12349e-07 0)
(0.00983803 -1.86142e-07 -4.58764e-30)
(0.00983822 -1.60999e-07 0)
(0.00983838 -1.36534e-07 0)
(0.00983852 -1.12312e-07 3.69326e-30)
(0.00983863 -8.78393e-08 0)
(0.00983871 -6.25445e-08 4.62629e-30)
(0.00983877 -3.57508e-08 9.25448e-31)
(0.0098388 -6.64616e-09 0)
(0.00983879 2.57566e-08 4.65372e-30)
(0.00983874 6.26714e-08 0)
(0.00983864 1.05605e-07 0)
(0.00983848 1.5644e-07 9.45294e-31)
(0.00983826 2.17551e-07 3.76137e-30)
(0.00983795 2.9194e-07 9.59256e-31)
(0.00983754 3.83437e-07 0)
(0.009837 4.96941e-07 0)
(0.0098363 6.38761e-07 4.84269e-30)
(0.00983539 8.17064e-07 0)
(0.00983421 1.04249e-06 4.96694e-30)
(0.0098327 1.32898e-06 0)
(0.00983075 1.69501e-06 0)
(0.00982824 2.16522e-06 0)
(0.009825 2.77293e-06 -1.21456e-30)
(0.00982081 3.56383e-06 0)
(0.00981535 4.60172e-06 1.40274e-30)
(0.00980821 5.97769e-06 0)
(0.00979882 7.82555e-06 0)
(0.00978635 1.0349e-05 5.8369e-30)
(0.0097696 1.38729e-05 -6.55929e-30)
(0.00974674 1.89471e-05 0)
(0.00971488 2.65793e-05 0)
(0.00966908 3.8826e-05 0)
(0.00960026 6.05543e-05 1.7962e-29)
(0.00949091 0.000105879 0)
(0.00931838 0.000227977 -1.01329e-28)
(9.47893e-05 -0.00100577 5.19857e-29)
(0.000285151 -0.00100452 -6.78619e-33)
(0.000476752 -0.00100245 0)
(0.000669436 -0.000999548 1.58586e-32)
(0.000863045 -0.000995793 0)
(0.00105741 -0.000991181 0)
(0.00125236 -0.000985705 -5.08118e-29)
(0.00144771 -0.000979364 -2.52476e-29)
(0.00164328 -0.000972158 2.50132e-29)
(0.00183889 -0.00096409 -2.48343e-29)
(0.00203435 -0.000955169 0)
(0.00222946 -0.000945406 0)
(0.00242402 -0.000934817 -2.39927e-29)
(0.00261785 -0.000923421 -4.73688e-29)
(0.00281075 -0.000911243 4.67118e-29)
(0.00300252 -0.000898309 0)
(0.00319298 -0.000884652 4.5283e-29)
(0.00338193 -0.000870307 2.23372e-29)
(0.00356919 -0.000855312 0)
(0.00375459 -0.000839709 4.28799e-29)
(0.00393794 -0.000823543 -2.11021e-29)
(0.00411909 -0.000806862 -4.11301e-29)
(0.00429788 -0.000789712 2.02106e-29)
(0.00447415 -0.000772146 0)
(0.00464778 -0.000754215 3.83335e-29)
(0.00481862 -0.00073597 3.7366e-29)
(0.00498656 -0.000717463 0)
(0.00515149 -0.000698746 3.53944e-29)
(0.00531331 -0.00067987 0)
(0.00547192 -0.000660885 3.33917e-29)
(0.00562725 -0.000641839 -1.63254e-29)
(0.00577923 -0.000622778 0)
(0.00592779 -0.000603748 0)
(0.0060729 -0.00058479 0)
(0.00621452 -0.000565945 0)
(0.0063526 -0.00054725 0)
(0.00648713 -0.00052874 0)
(0.00661811 -0.000510447 2.54519e-29)
(0.00674551 -0.000492401 -1.20912e-29)
(0.00686936 -0.000474629 0)
(0.00698965 -0.000457154 0)
(0.00710641 -0.00044 0)
(0.00721966 -0.000423184 -4.20516e-29)
(0.00732942 -0.000406724 -2.03349e-29)
(0.00743574 -0.000390634 -3.51148e-31)
(0.00753865 -0.000374926 3.56003e-31)
(0.0076382 -0.00035961 -1.75094e-29)
(0.00773443 -0.000344696 -1.70899e-29)
(0.0078274 -0.000330187 3.22925e-29)
(0.00791717 -0.000316091 1.52199e-29)
(0.00800378 -0.000302408 0)
(0.0080873 -0.000289142 1.38026e-29)
(0.0081678 -0.000276291 2.66394e-29)
(0.00824533 -0.000263856 0)
(0.00831997 -0.000251832 0)
(0.00839178 -0.000240218 -1.12302e-29)
(0.00846083 -0.00022901 0)
(0.00852719 -0.000218201 0)
(0.00859092 -0.000207786 2.89815e-29)
(0.00865211 -0.000197759 1.79965e-29)
(0.00871082 -0.000188113 8.90258e-30)
(0.00876712 -0.00017884 0)
(0.00882108 -0.000169933 -7.9523e-30)
(0.00887277 -0.000161383 0)
(0.00892226 -0.000153182 2.03875e-29)
(0.00896963 -0.000145321 -6.66582e-30)
(0.00901492 -0.00013779 -1.16931e-29)
(0.00905823 -0.000130581 -1.68309e-29)