/*--------------------------------*- C++ -*----------------------------------*\
  =========                 |
  \\      /  F ield         | OpenFOAM: The Open Source CFD Toolbox
   \\    /   O peration     | Website:  https://openfoam.org
    \\  /    A nd           | Version:  10
     \\/     M anipulation  |
\*---------------------------------------------------------------------------*/
FoamFile
{
    format      ascii;
    class       surfaceScalarField;
    location    "0.086";
    object      phi;
}
// * * * * * * * * * * * * * * * * * * * * * * * * * * * * * * * * * * * * * //

dimensions      [0 3 -1 0 0 0 0];

internalField   nonuniform List<scalar> 
7780
(
2.50004e-09
-3.68198e-14
2.50015e-09
-1.10272e-13
2.50033e-09
-1.83865e-13
2.50059e-09
-2.57574e-13
2.50092e-09
-3.31438e-13
2.50133e-09
-4.05537e-13
2.50181e-09
-4.79929e-13
2.50236e-09
-5.54704e-13
2.50299e-09
-6.2991e-13
2.5037e-09
-7.05653e-13
2.50448e-09
-7.81994e-13
2.50534e-09
-8.59067e-13
2.50628e-09
-9.36952e-13
2.50729e-09
-1.01582e-12
2.50839e-09
-1.09576e-12
2.50957e-09
-1.177e-12
2.51083e-09
-1.25963e-12
2.51217e-09
-1.3439e-12
2.5136e-09
-1.42992e-12
2.51512e-09
-1.51798e-12
2.51673e-09
-1.60817e-12
2.51843e-09
-1.70083e-12
2.52023e-09
-1.79606e-12
2.52212e-09
-1.89421e-12
2.52412e-09
-1.9954e-12
2.52622e-09
-2.10001e-12
2.52843e-09
-2.20816e-12
2.53075e-09
-2.32026e-12
2.53319e-09
-2.43644e-12
2.53574e-09
-2.55714e-12
2.53843e-09
-2.68248e-12
2.54124e-09
-2.81292e-12
2.54419e-09
-2.9486e-12
2.54728e-09
-3.09e-12
2.55052e-09
-3.23726e-12
2.55391e-09
-3.39087e-12
2.55747e-09
-3.55097e-12
2.56118e-09
-3.71807e-12
2.56508e-09
-3.89231e-12
2.56915e-09
-4.07421e-12
2.57342e-09
-4.26391e-12
2.57788e-09
-4.46193e-12
2.58255e-09
-4.66842e-12
2.58744e-09
-4.88388e-12
2.59255e-09
-5.10846e-12
2.59789e-09
-5.34266e-12
2.60348e-09
-5.5866e-12
2.60933e-09
-5.84077e-12
2.61544e-09
-6.10527e-12
2.62182e-09
-6.38055e-12
2.62849e-09
-6.66666e-12
2.63545e-09
-6.96402e-12
2.64273e-09
-7.27259e-12
2.65033e-09
-7.59274e-12
2.65825e-09
-7.92432e-12
2.66652e-09
-8.26761e-12
2.67515e-09
-8.62233e-12
2.68414e-09
-8.9886e-12
2.69351e-09
-9.36597e-12
2.70327e-09
-9.75437e-12
2.71343e-09
-1.01531e-11
2.72399e-09
-1.05619e-11
2.73498e-09
-1.09797e-11
2.74639e-09
-1.14058e-11
2.75823e-09
-1.1839e-11
2.77051e-09
-1.22782e-11
2.78324e-09
-1.27217e-11
2.79641e-09
-1.31678e-11
2.81003e-09
-1.36144e-11
2.8241e-09
-1.40595e-11
2.8386e-09
-1.45003e-11
2.85354e-09
-1.49344e-11
2.86891e-09
-1.53585e-11
2.88468e-09
-1.57698e-11
2.90085e-09
-1.61646e-11
2.9174e-09
-1.65398e-11
2.9343e-09
-1.68916e-11
2.95152e-09
-1.72168e-11
2.96904e-09
-1.75116e-11
2.98682e-09
-1.77731e-11
3.00482e-09
-1.79979e-11
3.02301e-09
-1.81835e-11
3.04135e-09
-1.83273e-11
3.05978e-09
-1.84277e-11
3.07828e-09
-1.8483e-11
3.09678e-09
-1.84927e-11
3.11524e-09
-1.84563e-11
3.13362e-09
-1.83742e-11
3.15188e-09
-1.82472e-11
3.16996e-09
-1.80767e-11
3.18784e-09
-1.78646e-11
3.20546e-09
-1.76131e-11
3.22279e-09
-1.7325e-11
3.23981e-09
-1.70031e-11
3.25647e-09
-1.66505e-11
3.27275e-09
-1.62707e-11
3.28862e-09
-1.58668e-11
3.30408e-09
-1.54425e-11
3.31909e-09
-1.5001e-11
3.33364e-09
-1.45456e-11
3.34773e-09
-1.40795e-11
3.36135e-09
-1.36056e-11
3.37448e-09
-1.3127e-11
3.38714e-09
-1.2646e-11
3.39932e-09
-1.21653e-11
3.41102e-09
-1.1687e-11
3.42224e-09
-1.12131e-11
3.433e-09
-1.07453e-11
3.44329e-09
-1.02854e-11
3.45314e-09
-9.83467e-12
3.46254e-09
-9.39432e-12
3.47152e-09
-8.96528e-12
3.48008e-09
-8.54851e-12
3.48824e-09
-8.14455e-12
3.496e-09
-7.75405e-12
3.50339e-09
-7.37723e-12
3.51042e-09
-7.01447e-12
3.5171e-09
-6.66576e-12
3.52344e-09
-6.33124e-12
3.52946e-09
-6.0107e-12
3.53518e-09
-5.70412e-12
3.5406e-09
-5.41114e-12
3.54574e-09
-5.13163e-12
3.55063e-09
-4.86513e-12
3.55524e-09
-4.61142e-12
3.55963e-09
-4.37002e-12
3.56378e-09
-4.14063e-12
3.56772e-09
-3.92274e-12
3.57144e-09
-3.71605e-12
3.57498e-09
-3.52005e-12
3.57832e-09
-3.33442e-12
3.5815e-09
-3.15865e-12
3.5845e-09
-2.99243e-12
3.58736e-09
-2.83529e-12
3.59005e-09
-2.6869e-12
3.59262e-09
-2.54682e-12
3.59504e-09
-2.41476e-12
3.59736e-09
-2.29028e-12
3.59954e-09
-2.17313e-12
3.60162e-09
-2.06286e-12
3.60359e-09
-1.95926e-12
3.60548e-09
-1.8619e-12
3.60725e-09
-1.77061e-12
3.60897e-09
-1.68494e-12
3.61058e-09
-1.60481e-12
3.61214e-09
-1.52973e-12
3.6136e-09
-1.45974e-12
3.61503e-09
-1.39429e-12
3.61637e-09
-1.33358e-12
3.61768e-09
-1.27697e-12
3.61891e-09
-1.22487e-12
3.62013e-09
-1.17651e-12
3.62126e-09
-1.13254e-12
3.6224e-09
-1.09204e-12
3.62345e-09
-1.05592e-12
3.62453e-09
-1.02307e-12
3.62552e-09
-9.94717e-13
3.62654e-09
-9.69485e-13
3.62749e-09
-9.4895e-13
3.62848e-09
-9.31419e-13
3.62939e-09
-9.18859e-13
3.63037e-09
-9.09184e-13
3.63126e-09
-9.04778e-13
3.63224e-09
-9.03095e-13
3.63313e-09
-9.06959e-13
3.63413e-09
-9.13308e-13
3.63503e-09
-9.25411e-13
3.63606e-09
-9.39649e-13
3.637e-09
-9.59747e-13
3.63807e-09
-9.81511e-13
3.63905e-09
-1.00913e-12
3.64019e-09
-1.03783e-12
3.64123e-09
-1.07229e-12
3.64245e-09
-1.10719e-12
3.64355e-09
-1.1477e-12
3.64486e-09
-1.18799e-12
3.64604e-09
-1.23376e-12
3.64745e-09
-1.27872e-12
3.64872e-09
-1.32909e-12
3.65023e-09
-1.37814e-12
3.6516e-09
-1.43261e-12
3.65322e-09
-1.48536e-12
3.65469e-09
-1.54362e-12
3.65643e-09
-1.5998e-12
3.65801e-09
-1.66158e-12
3.65988e-09
-1.72092e-12
3.66158e-09
-1.78585e-12
3.66357e-09
-1.84788e-12
3.66539e-09
-1.91535e-12
3.66752e-09
-1.97937e-12
3.66946e-09
-2.04845e-12
3.67172e-09
-2.11329e-12
3.67379e-09
-2.1825e-12
3.67618e-09
-2.24655e-12
3.67838e-09
-2.31395e-12
3.68088e-09
-2.37579e-12
3.68326e-09
-2.43878e-12
3.68572e-09
-2.49983e-12
3.68826e-09
-2.54559e-12
-2.64059e-12
2.50004e-09
-7.34969e-14
2.50015e-09
-2.20257e-13
2.50033e-09
-3.67246e-13
2.50059e-09
-5.14483e-13
2.50092e-09
-6.62038e-13
2.50132e-09
-8.10017e-13
2.5018e-09
-9.58536e-13
2.50236e-09
-1.10774e-12
2.50298e-09
-1.25778e-12
2.50369e-09
-1.40882e-12
2.50447e-09
-1.56105e-12
2.50532e-09
-1.71469e-12
2.50626e-09
-1.86996e-12
2.50727e-09
-2.02714e-12
2.50836e-09
-2.18649e-12
2.50953e-09
-2.34833e-12
2.51079e-09
-2.51297e-12
2.51212e-09
-2.68078e-12
2.51354e-09
-2.85211e-12
2.51505e-09
-3.02737e-12
2.51665e-09
-3.20696e-12
2.51834e-09
-3.39132e-12
2.52013e-09
-3.58089e-12
2.52201e-09
-3.77615e-12
2.524e-09
-3.97757e-12
2.52608e-09
-4.18568e-12
2.52827e-09
-4.40096e-12
2.53058e-09
-4.62399e-12
2.533e-09
-4.85529e-12
2.53554e-09
-5.09545e-12
2.5382e-09
-5.34502e-12
2.54099e-09
-5.60463e-12
2.54392e-09
-5.87485e-12
2.54699e-09
-6.15633e-12
2.5502e-09
-6.44966e-12
2.55357e-09
-6.75552e-12
2.5571e-09
-7.07451e-12
2.56079e-09
-7.40733e-12
2.56465e-09
-7.75458e-12
2.56869e-09
-8.11699e-12
2.57293e-09
-8.49517e-12
2.57736e-09
-8.88984e-12
2.58199e-09
-9.30161e-12
2.58684e-09
-9.7312e-12
2.59192e-09
-1.01792e-11
2.59722e-09
-1.06463e-11
2.60277e-09
-1.11332e-11
2.60857e-09
-1.16404e-11
2.61464e-09
-1.21684e-11
2.62098e-09
-1.2718e-11
2.62761e-09
-1.32895e-11
2.63453e-09
-1.38835e-11
2.64176e-09
-1.45002e-11
2.64931e-09
-1.51401e-11
2.65719e-09
-1.58034e-11
2.66542e-09
-1.64901e-11
2.674e-09
-1.72002e-11
2.68295e-09
-1.79335e-11
2.69228e-09
-1.86898e-11
2.70199e-09
-1.94683e-11
2.71211e-09
-2.02683e-11
2.72264e-09
-2.10888e-11
2.7336e-09
-2.19282e-11
2.74498e-09
-2.27849e-11
2.7568e-09
-2.36568e-11
2.76907e-09
-2.45412e-11
2.78179e-09
-2.54353e-11
2.79496e-09
-2.63355e-11
2.80859e-09
-2.72379e-11
2.82268e-09
-2.81379e-11
2.83721e-09
-2.90306e-11
2.85219e-09
-2.99104e-11
2.86761e-09
-3.07713e-11
2.88346e-09
-3.16068e-11
2.89971e-09
-3.24102e-11
2.91635e-09
-3.31742e-11
2.93336e-09
-3.38917e-11
2.9507e-09
-3.45554e-11
2.96836e-09
-3.51579e-11
2.98628e-09
-3.56926e-11
3.00444e-09
-3.61529e-11
3.0228e-09
-3.6533e-11
3.04131e-09
-3.68281e-11
3.05993e-09
-3.7034e-11
3.0786e-09
-3.7148e-11
3.09728e-09
-3.71682e-11
3.11593e-09
-3.70941e-11
3.13449e-09
-3.69264e-11
3.15292e-09
-3.66669e-11
3.17117e-09
-3.63187e-11
3.1892e-09
-3.58855e-11
3.20697e-09
-3.53724e-11
3.22444e-09
-3.47848e-11
3.24157e-09
-3.41288e-11
3.25834e-09
-3.34109e-11
3.27472e-09
-3.2638e-11
3.29068e-09
-3.18171e-11
3.30621e-09
-3.09551e-11
3.32127e-09
-3.0059e-11
3.33588e-09
-2.91355e-11
3.35e-09
-2.8191e-11
3.36364e-09
-2.72318e-11
3.37678e-09
-2.62636e-11
3.38944e-09
-2.52918e-11
3.40161e-09
-2.43212e-11
3.41329e-09
-2.33564e-11
3.42449e-09
-2.24013e-11
3.43522e-09
-2.14596e-11
3.44547e-09
-2.05343e-11
3.45528e-09
-1.96283e-11
3.46464e-09
-1.87436e-11
3.47357e-09
-1.78825e-11
3.48208e-09
-1.70463e-11
3.49019e-09
-1.62365e-11
3.4979e-09
-1.54539e-11
3.50523e-09
-1.46992e-11
3.5122e-09
-1.39729e-11
3.51883e-09
-1.32751e-11
3.52511e-09
-1.26059e-11
3.53108e-09
-1.19652e-11
3.53674e-09
-1.13524e-11
3.54211e-09
-1.07673e-11
3.5472e-09
-1.02091e-11
3.55203e-09
-9.67738e-12
3.5566e-09
-9.17119e-12
3.56093e-09
-8.68989e-12
3.56503e-09
-8.23254e-12
3.56893e-09
-7.79843e-12
3.57261e-09
-7.38658e-12
3.5761e-09
-6.99628e-12
3.5794e-09
-6.62652e-12
3.58254e-09
-6.27663e-12
3.5855e-09
-5.94562e-12
3.58832e-09
-5.63284e-12
3.59098e-09
-5.33735e-12
3.59351e-09
-5.05855e-12
3.5959e-09
-4.79554e-12
3.59818e-09
-4.54778e-12
3.60033e-09
-4.3144e-12
3.60239e-09
-4.09493e-12
3.60433e-09
-3.88853e-12
3.60618e-09
-3.6948e-12
3.60793e-09
-3.51293e-12
3.60962e-09
-3.34257e-12
3.61121e-09
-3.18295e-12
3.61274e-09
-3.03377e-12
3.61418e-09
-2.89431e-12
3.61558e-09
-2.76434e-12
3.6169e-09
-2.64323e-12
3.61819e-09
-2.5308e-12
3.6194e-09
-2.42656e-12
3.62059e-09
-2.33039e-12
3.62171e-09
-2.24195e-12
3.62282e-09
-2.16122e-12
3.62385e-09
-2.08799e-12
3.6249e-09
-2.02233e-12
3.62587e-09
-1.96414e-12
3.62687e-09
-1.9136e-12
3.62779e-09
-1.87066e-12
3.62875e-09
-1.83559e-12
3.62964e-09
-1.80835e-12
3.63058e-09
-1.78923e-12
3.63146e-09
-1.77817e-12
3.6324e-09
-1.77545e-12
3.63327e-09
-1.78092e-12
3.63422e-09
-1.79477e-12
3.63511e-09
-1.81675e-12
3.63609e-09
-1.84693e-12
3.63701e-09
-1.88492e-12
3.63804e-09
-1.93063e-12
3.639e-09
-1.98357e-12
3.6401e-09
-2.04353e-12
3.64112e-09
-2.10992e-12
3.64229e-09
-2.18246e-12
3.64338e-09
-2.26055e-12
3.64463e-09
-2.3439e-12
3.6458e-09
-2.43197e-12
3.64715e-09
-2.52457e-12
3.64841e-09
-2.62122e-12
3.64987e-09
-2.7219e-12
3.65122e-09
-2.82622e-12
3.65278e-09
-2.93433e-12
3.65424e-09
-3.04584e-12
3.65592e-09
-3.16106e-12
3.65749e-09
-3.27951e-12
3.65929e-09
-3.40154e-12
3.66097e-09
-3.52646e-12
3.6629e-09
-3.6546e-12
3.6647e-09
-3.78494e-12
3.66676e-09
-3.91772e-12
3.66868e-09
-4.05154e-12
3.67088e-09
-4.18652e-12
3.67294e-09
-4.32092e-12
3.67526e-09
-4.45481e-12
3.67744e-09
-4.58608e-12
3.67988e-09
-4.71547e-12
3.68224e-09
-4.83881e-12
3.68466e-09
-4.96437e-12
3.68717e-09
-5.06062e-12
-5.24022e-12
2.50004e-09
-1.10035e-13
2.50015e-09
-3.29768e-13
2.50033e-09
-5.498e-13
2.50059e-09
-7.70163e-13
2.50092e-09
-9.90957e-13
2.50132e-09
-1.21232e-12
2.50179e-09
-1.43443e-12
2.50234e-09
-1.65747e-12
2.50297e-09
-1.88167e-12
2.50367e-09
-2.10727e-12
2.50444e-09
-2.33456e-12
2.50529e-09
-2.56385e-12
2.50622e-09
-2.7955e-12
2.50722e-09
-3.02989e-12
2.5083e-09
-3.26743e-12
2.50946e-09
-3.50859e-12
2.5107e-09
-3.75385e-12
2.51203e-09
-4.00374e-12
2.51343e-09
-4.25882e-12
2.51493e-09
-4.51968e-12
2.51651e-09
-4.78693e-12
2.51818e-09
-5.06124e-12
2.51994e-09
-5.34328e-12
2.5218e-09
-5.63375e-12
2.52375e-09
-5.9334e-12
2.52581e-09
-6.24298e-12
2.52797e-09
-6.56327e-12
2.53025e-09
-6.89509e-12
2.53263e-09
-7.23926e-12
2.53513e-09
-7.59664e-12
2.53776e-09
-7.9681e-12
2.54051e-09
-8.35453e-12
2.54339e-09
-8.75684e-12
2.54641e-09
-9.17596e-12
2.54958e-09
-9.61284e-12
2.55289e-09
-1.00684e-11
2.55636e-09
-1.05437e-11
2.56e-09
-1.10397e-11
2.5638e-09
-1.15573e-11
2.56778e-09
-1.20977e-11
2.57195e-09
-1.26617e-11
2.57631e-09
-1.32504e-11
2.58088e-09
-1.38648e-11
2.58566e-09
-1.4506e-11
2.59066e-09
-1.51749e-11
2.59588e-09
-1.58725e-11
2.60135e-09
-1.65998e-11
2.60707e-09
-1.73578e-11
2.61305e-09
-1.81473e-11
2.61931e-09
-1.89692e-11
2.62585e-09
-1.98244e-11
2.63268e-09
-2.07136e-11
2.63982e-09
-2.16374e-11
2.64728e-09
-2.25964e-11
2.65507e-09
-2.3591e-11
2.6632e-09
-2.46214e-11
2.6717e-09
-2.56878e-11
2.68056e-09
-2.679e-11
2.6898e-09
-2.79275e-11
2.69943e-09
-2.90998e-11
2.70948e-09
-3.03056e-11
2.71993e-09
-3.15437e-11
2.73082e-09
-3.2812e-11
2.74215e-09
-3.4108e-11
2.75393e-09
-3.54289e-11
2.76616e-09
-3.67709e-11
2.77886e-09
-3.81297e-11
2.79203e-09
-3.95002e-11
2.80568e-09
-4.08764e-11
2.81979e-09
-4.22516e-11
2.83439e-09
-4.36183e-11
2.84945e-09
-4.49679e-11
2.86498e-09
-4.62911e-11
2.88095e-09
-4.7578e-11
2.89737e-09
-4.88179e-11
2.9142e-09
-4.99995e-11
2.93143e-09
-5.11112e-11
2.94902e-09
-5.21414e-11
2.96695e-09
-5.30785e-11
2.98517e-09
-5.39112e-11
3.00366e-09
-5.46293e-11
3.02236e-09
-5.52232e-11
3.04122e-09
-5.56848e-11
3.0602e-09
-5.60076e-11
3.07925e-09
-5.61868e-11
3.09831e-09
-5.62196e-11
3.11733e-09
-5.61052e-11
3.13626e-09
-5.58447e-11
3.15504e-09
-5.54412e-11
3.17363e-09
-5.48998e-11
3.19198e-09
-5.42269e-11
3.21005e-09
-5.34303e-11
3.22779e-09
-5.25192e-11
3.24518e-09
-5.15035e-11
3.26217e-09
-5.03936e-11
3.27874e-09
-4.92004e-11
3.29487e-09
-4.7935e-11
3.31053e-09
-4.66084e-11
3.32572e-09
-4.52314e-11
3.34041e-09
-4.38144e-11
3.35459e-09
-4.23675e-11
3.36827e-09
-4.09001e-11
3.38144e-09
-3.9421e-11
3.3941e-09
-3.79385e-11
3.40625e-09
-3.646e-11
3.4179e-09
-3.49923e-11
3.42905e-09
-3.35414e-11
3.43972e-09
-3.21127e-11
3.4499e-09
-3.07109e-11
3.45963e-09
-2.93398e-11
3.4689e-09
-2.80029e-11
3.47773e-09
-2.6703e-11
3.48614e-09
-2.54423e-11
3.49414e-09
-2.42226e-11
3.50174e-09
-2.30451e-11
3.50896e-09
-2.19107e-11
3.51582e-09
-2.08199e-11
3.52233e-09
-1.9773e-11
3.52851e-09
-1.87697e-11
3.53437e-09
-1.78098e-11
3.53992e-09
-1.68926e-11
3.54518e-09
-1.60174e-11
3.55017e-09
-1.51831e-11
3.5549e-09
-1.43888e-11
3.55937e-09
-1.36331e-11
3.56361e-09
-1.2915e-11
3.56762e-09
-1.2233e-11
3.57142e-09
-1.1586e-11
3.57502e-09
-1.09724e-11
3.57843e-09
-1.0391e-11
3.58165e-09
-9.84056e-12
3.58472e-09
-9.31972e-12
3.58761e-09
-8.82722e-12
3.59036e-09
-8.36187e-12
3.59295e-09
-7.92246e-12
3.59542e-09
-7.50785e-12
3.59775e-09
-7.11693e-12
3.59997e-09
-6.74861e-12
3.60207e-09
-6.40185e-12
3.60407e-09
-6.07564e-12
3.60596e-09
-5.76904e-12
3.60777e-09
-5.48109e-12
3.60948e-09
-5.21094e-12
3.61112e-09
-4.95771e-12
3.61267e-09
-4.72062e-12
3.61416e-09
-4.49884e-12
3.61557e-09
-4.29172e-12
3.61693e-09
-4.09847e-12
3.61821e-09
-3.91855e-12
3.61947e-09
-3.75127e-12
3.62065e-09
-3.59624e-12
3.6218e-09
-3.45289e-12
3.62289e-09
-3.32104e-12
3.62397e-09
-3.20026e-12
3.62498e-09
-3.0906e-12
3.62599e-09
-2.99179e-12
3.62694e-09
-2.90409e-12
3.6279e-09
-2.82739e-12
3.6288e-09
-2.7621e-12
3.62972e-09
-2.70827e-12
3.63059e-09
-2.66631e-12
3.63149e-09
-2.63639e-12
3.63233e-09
-2.61883e-12
3.63324e-09
-2.61384e-12
3.63408e-09
-2.62151e-12
3.63499e-09
-2.642e-12
3.63585e-09
-2.67513e-12
3.6368e-09
-2.72089e-12
3.63769e-09
-2.77877e-12
3.63869e-09
-2.8486e-12
3.63962e-09
-2.92955e-12
3.64069e-09
-3.02127e-12
3.64169e-09
-3.12274e-12
3.64283e-09
-3.23348e-12
3.6439e-09
-3.35243e-12
3.64513e-09
-3.47911e-12
3.64629e-09
-3.61258e-12
3.64762e-09
-3.75249e-12
3.64887e-09
-3.89816e-12
3.6503e-09
-4.04946e-12
3.65165e-09
-4.20597e-12
3.65319e-09
-4.36783e-12
3.65464e-09
-4.5348e-12
3.6563e-09
-4.70721e-12
3.65786e-09
-4.88478e-12
3.65964e-09
-5.06788e-12
3.66132e-09
-5.25594e-12
3.66323e-09
-5.4492e-12
3.66503e-09
-5.64661e-12
3.66708e-09
-5.84812e-12
3.66901e-09
-6.05211e-12
3.6712e-09
-6.25819e-12
3.67327e-09
-6.46418e-12
3.6756e-09
-6.6695e-12
3.6778e-09
-6.87156e-12
3.68024e-09
-7.0703e-12
3.68263e-09
-7.26061e-12
3.68508e-09
-7.45242e-12
3.68761e-09
-7.60108e-12
-7.87495e-12
2.50004e-09
-1.46324e-13
2.50015e-09
-4.38579e-13
2.50033e-09
-7.31185e-13
2.50058e-09
-1.02415e-12
2.50091e-09
-1.3176e-12
2.50131e-09
-1.61169e-12
2.50178e-09
-1.90663e-12
2.50233e-09
-2.20264e-12
2.50295e-09
-2.50002e-12
2.50364e-09
-2.79908e-12
2.5044e-09
-3.10019e-12
2.50524e-09
-3.40376e-12
2.50616e-09
-3.71026e-12
2.50715e-09
-4.0202e-12
2.50822e-09
-4.33413e-12
2.50936e-09
-4.65268e-12
2.51058e-09
-4.97649e-12
2.51189e-09
-5.30626e-12
2.51327e-09
-5.64276e-12
2.51474e-09
-5.98676e-12
2.51629e-09
-6.33911e-12
2.51793e-09
-6.70068e-12
2.51966e-09
-7.07238e-12
2.52148e-09
-7.45516e-12
2.5234e-09
-7.85001e-12
2.52541e-09
-8.25795e-12
2.52753e-09
-8.68003e-12
2.52976e-09
-9.11735e-12
2.53209e-09
-9.571e-12
2.53453e-09
-1.00421e-11
2.5371e-09
-1.05319e-11
2.53979e-09
-1.10416e-11
2.54261e-09
-1.15723e-11
2.54556e-09
-1.21254e-11
2.54865e-09
-1.2702e-11
2.55188e-09
-1.33035e-11
2.55527e-09
-1.39313e-11
2.55882e-09
-1.45865e-11
2.56254e-09
-1.52706e-11
2.56642e-09
-1.59849e-11
2.5705e-09
-1.67307e-11
2.57476e-09
-1.75096e-11
2.57922e-09
-1.83227e-11
2.58388e-09
-1.91716e-11
2.58877e-09
-2.00575e-11
2.59388e-09
-2.09818e-11
2.59923e-09
-2.1946e-11
2.60483e-09
-2.29512e-11
2.61068e-09
-2.39989e-11
2.6168e-09
-2.50902e-11
2.62321e-09
-2.62262e-11
2.62991e-09
-2.74082e-11
2.63691e-09
-2.86371e-11
2.64423e-09
-2.99137e-11
2.65188e-09
-3.12389e-11
2.65987e-09
-3.26131e-11
2.66823e-09
-3.40366e-11
2.67695e-09
-3.55095e-11
2.68606e-09
-3.70316e-11
2.69557e-09
-3.86022e-11
2.70548e-09
-4.02202e-11
2.71583e-09
-4.18839e-11
2.72661e-09
-4.35912e-11
2.73785e-09
-4.53392e-11
2.74955e-09
-4.71241e-11
2.76172e-09
-4.89416e-11
2.77439e-09
-5.07859e-11
2.78754e-09
-5.26507e-11
2.8012e-09
-5.4528e-11
2.81536e-09
-5.6409e-11
2.83003e-09
-5.82835e-11
2.84521e-09
-6.01399e-11
2.86089e-09
-6.19655e-11
2.87706e-09
-6.37461e-11
2.89372e-09
-6.54668e-11
2.91084e-09
-6.71114e-11
2.9284e-09
-6.86631e-11
2.94637e-09
-7.0105e-11
2.96472e-09
-7.14199e-11
2.9834e-09
-7.25913e-11
3.00239e-09
-7.36035e-11
3.02161e-09
-7.44422e-11
3.04103e-09
-7.50954e-11
3.06058e-09
-7.55531e-11
3.08021e-09
-7.58083e-11
3.09986e-09
-7.58567e-11
3.11946e-09
-7.56973e-11
3.13896e-09
-7.53321e-11
3.15829e-09
-7.47659e-11
3.17741e-09
-7.40063e-11
3.19625e-09
-7.30631e-11
3.21478e-09
-7.19482e-11
3.23294e-09
-7.06751e-11
3.25071e-09
-6.92584e-11
3.26804e-09
-6.77135e-11
3.2849e-09
-6.60563e-11
3.30128e-09
-6.43028e-11
3.31715e-09
-6.24687e-11
3.3325e-09
-6.05693e-11
3.34732e-09
-5.86194e-11
3.36159e-09
-5.66327e-11
3.37533e-09
-5.46222e-11
3.38852e-09
-5.26001e-11
3.40117e-09
-5.05775e-11
3.41328e-09
-4.85643e-11
3.42487e-09
-4.65695e-11
3.43594e-09
-4.46013e-11
3.44651e-09
-4.26667e-11
3.45658e-09
-4.07717e-11
3.46618e-09
-3.89216e-11
3.4753e-09
-3.71207e-11
3.48399e-09
-3.53724e-11
3.49223e-09
-3.36796e-11
3.50007e-09
-3.20443e-11
3.5075e-09
-3.0468e-11
3.51456e-09
-2.89516e-11
3.52124e-09
-2.74956e-11
3.52759e-09
-2.60998e-11
3.53359e-09
-2.4764e-11
3.53928e-09
-2.34873e-11
3.54467e-09
-2.22687e-11
3.54977e-09
-2.11071e-11
3.5546e-09
-2.00008e-11
3.55918e-09
-1.89484e-11
3.5635e-09
-1.79481e-11
3.5676e-09
-1.69981e-11
3.57147e-09
-1.60966e-11
3.57515e-09
-1.52417e-11
3.57861e-09
-1.44315e-11
3.58191e-09
-1.36642e-11
3.58501e-09
-1.2938e-11
3.58796e-09
-1.2251e-11
3.59075e-09
-1.16017e-11
3.59339e-09
-1.09882e-11
3.59589e-09
-1.04093e-11
3.59826e-09
-9.86312e-12
3.6005e-09
-9.34841e-12
3.60264e-09
-8.86368e-12
3.60465e-09
-8.4076e-12
3.60658e-09
-7.97874e-12
3.60839e-09
-7.5759e-12
3.61013e-09
-7.19765e-12
3.61178e-09
-6.84295e-12
3.61335e-09
-6.51039e-12
3.61484e-09
-6.1991e-12
3.61628e-09
-5.90771e-12
3.61763e-09
-5.63555e-12
3.61894e-09
-5.38133e-12
3.62018e-09
-5.14456e-12
3.62138e-09
-4.92408e-12
3.62251e-09
-4.71962e-12
3.62363e-09
-4.53018e-12
3.62467e-09
-4.35571e-12
3.6257e-09
-4.19547e-12
3.62667e-09
-4.04967e-12
3.62764e-09
-3.91782e-12
3.62854e-09
-3.80041e-12
3.62946e-09
-3.69723e-12
3.63031e-09
-3.60898e-12
3.63119e-09
-3.53571e-12
3.63201e-09
-3.4782e-12
3.63287e-09
-3.43669e-12
3.63366e-09
-3.41188e-12
3.63452e-09
-3.40405e-12
3.63531e-09
-3.41362e-12
3.63618e-09
-3.44078e-12
3.63699e-09
-3.4855e-12
3.63789e-09
-3.54775e-12
3.63874e-09
-3.62694e-12
3.63969e-09
-3.72273e-12
3.64059e-09
-3.83401e-12
3.64162e-09
-3.96011e-12
3.64258e-09
-4.09954e-12
3.64369e-09
-4.25142e-12
3.64474e-09
-4.41418e-12
3.64594e-09
-4.58687e-12
3.64707e-09
-4.76817e-12
3.64838e-09
-4.95733e-12
3.64961e-09
-5.15352e-12
3.65102e-09
-5.35637e-12
3.65235e-09
-5.56562e-12
3.65387e-09
-5.78134e-12
3.6553e-09
-6.00371e-12
3.65694e-09
-6.23312e-12
3.65848e-09
-6.46985e-12
3.66025e-09
-6.71435e-12
3.66191e-09
-6.96653e-12
3.66381e-09
-7.22658e-12
3.66559e-09
-7.49362e-12
3.66764e-09
-7.76734e-12
3.66956e-09
-8.04585e-12
3.67176e-09
-8.32822e-12
3.67383e-09
-8.61163e-12
3.67617e-09
-8.8947e-12
3.67839e-09
-9.1739e-12
3.68087e-09
-9.44854e-12
3.68328e-09
-9.71185e-12
3.68576e-09
-9.97669e-12
3.68834e-09
-1.01819e-11
-1.05614e-11
2.50004e-09
-1.82354e-13
2.50015e-09
-5.46655e-13
2.50033e-09
-9.11314e-13
2.50058e-09
-1.2763e-12
2.5009e-09
-1.64172e-12
2.5013e-09
-2.00774e-12
2.50177e-09
-2.37455e-12
2.50231e-09
-2.74245e-12
2.50292e-09
-3.11173e-12
2.5036e-09
-3.4828e-12
2.50436e-09
-3.85609e-12
2.50519e-09
-4.23211e-12
2.50609e-09
-4.61143e-12
2.50706e-09
-4.9947e-12
2.50811e-09
-5.38262e-12
2.50924e-09
-5.77596e-12
2.51044e-09
-6.17555e-12
2.51171e-09
-6.58227e-12
2.51307e-09
-6.99708e-12
2.5145e-09
-7.42097e-12
2.51602e-09
-7.85499e-12
2.51762e-09
-8.30025e-12
2.5193e-09
-8.7579e-12
2.52108e-09
-9.22913e-12
2.52294e-09
-9.7152e-12
2.5249e-09
-1.02174e-11
2.52696e-09
-1.0737e-11
2.52912e-09
-1.12754e-11
2.53139e-09
-1.1834e-11
2.53376e-09
-1.24143e-11
2.53625e-09
-1.30177e-11
2.53885e-09
-1.36458e-11
2.54158e-09
-1.43e-11
2.54444e-09
-1.49819e-11
2.54743e-09
-1.56932e-11
2.55056e-09
-1.64355e-11
2.55384e-09
-1.72104e-11
2.55728e-09
-1.80196e-11
2.56087e-09
-1.88647e-11
2.56464e-09
-1.97476e-11
2.56858e-09
-2.06699e-11
2.57271e-09
-2.16335e-11
2.57703e-09
-2.26399e-11
2.58155e-09
-2.3691e-11
2.58628e-09
-2.47887e-11
2.59124e-09
-2.59345e-11
2.59642e-09
-2.71304e-11
2.60185e-09
-2.83779e-11
2.60753e-09
-2.96789e-11
2.61348e-09
-3.1035e-11
2.61971e-09
-3.24477e-11
2.62622e-09
-3.39188e-11
2.63304e-09
-3.54494e-11
2.64017e-09
-3.70411e-11
2.64763e-09
-3.8695e-11
2.65543e-09
-4.0412e-11
2.66359e-09
-4.21929e-11
2.67212e-09
-4.40382e-11
2.68104e-09
-4.59479e-11
2.69036e-09
-4.79217e-11
2.70011e-09
-4.99587e-11
2.71028e-09
-5.20576e-11
2.72091e-09
-5.42162e-11
2.73201e-09
-5.64314e-11
2.74359e-09
-5.86994e-11
2.75567e-09
-6.1015e-11
2.76826e-09
-6.33719e-11
2.78138e-09
-6.57625e-11
2.79503e-09
-6.81773e-11
2.80923e-09
-7.06054e-11
2.82399e-09
-7.30341e-11
2.8393e-09
-7.54486e-11
2.85518e-09
-7.78323e-11
2.8716e-09
-8.01668e-11
2.88858e-09
-8.24316e-11
2.90608e-09
-8.4605e-11
2.92408e-09
-8.66637e-11
2.94257e-09
-8.85838e-11
2.9615e-09
-9.03409e-11
2.98082e-09
-9.19112e-11
3.0005e-09
-9.3272e-11
3.02047e-09
-9.44026e-11
3.04066e-09
-9.5285e-11
3.06102e-09
-9.59047e-11
3.08148e-09
-9.62513e-11
3.10195e-09
-9.63191e-11
3.12236e-09
-9.61068e-11
3.14266e-09
-9.56177e-11
3.16276e-09
-9.48595e-11
3.18261e-09
-9.38435e-11
3.20214e-09
-9.25843e-11
3.2213e-09
-9.10993e-11
3.24004e-09
-8.94078e-11
3.25832e-09
-8.75305e-11
3.27611e-09
-8.54891e-11
3.29337e-09
-8.33056e-11
3.31008e-09
-8.10021e-11
3.32622e-09
-7.85999e-11
3.34178e-09
-7.61197e-11
3.35675e-09
-7.35812e-11
3.37113e-09
-7.10025e-11
3.38492e-09
-6.84008e-11
3.39812e-09
-6.57915e-11
3.41075e-09
-6.31887e-11
3.4228e-09
-6.06049e-11
3.43429e-09
-5.80515e-11
3.44524e-09
-5.55383e-11
3.45566e-09
-5.30737e-11
3.46556e-09
-5.0665e-11
3.47498e-09
-4.83185e-11
3.4839e-09
-4.60392e-11
3.49238e-09
-4.3831e-11
3.5004e-09
-4.16972e-11
3.50801e-09
-3.96398e-11
3.51522e-09
-3.76605e-11
3.52204e-09
-3.57598e-11
3.52849e-09
-3.3938e-11
3.5346e-09
-3.21946e-11
3.54037e-09
-3.05287e-11
3.54584e-09
-2.8939e-11
3.55101e-09
-2.74238e-11
3.55589e-09
-2.59813e-11
3.56051e-09
-2.46092e-11
3.56489e-09
-2.33052e-11
3.56901e-09
-2.20671e-11
3.57292e-09
-2.08923e-11
3.57662e-09
-1.97784e-11
3.58011e-09
-1.87229e-11
3.58341e-09
-1.77232e-11
3.58654e-09
-1.67771e-11
3.5895e-09
-1.58821e-11
3.5923e-09
-1.50359e-11
3.59494e-09
-1.42363e-11
3.59745e-09
-1.34813e-11
3.59982e-09
-1.27687e-11
3.60208e-09
-1.20968e-11
3.6042e-09
-1.14636e-11
3.60622e-09
-1.08676e-11
3.60813e-09
-1.0307e-11
3.60996e-09
-9.78025e-12
3.61167e-09
-9.28581e-12
3.61332e-09
-8.82203e-12
3.61487e-09
-8.38749e-12
3.61637e-09
-7.98045e-12
3.61778e-09
-7.59963e-12
3.61914e-09
-7.24323e-12
3.62042e-09
-6.91024e-12
3.62167e-09
-6.59889e-12
3.62284e-09
-6.30851e-12
3.62398e-09
-6.03749e-12
3.62506e-09
-5.78553e-12
3.62611e-09
-5.55127e-12
3.6271e-09
-5.33482e-12
3.62808e-09
-5.13513e-12
3.62899e-09
-4.95268e-12
3.6299e-09
-4.78682e-12
3.63074e-09
-4.63838e-12
3.6316e-09
-4.5071e-12
3.63239e-09
-4.39414e-12
3.6332e-09
-4.29958e-12
3.63396e-09
-4.22475e-12
3.63475e-09
-4.17001e-12
3.63548e-09
-4.13659e-12
3.63626e-09
-4.12498e-12
3.63699e-09
-4.13602e-12
3.63779e-09
-4.1701e-12
3.63853e-09
-4.22738e-12
3.63937e-09
-4.30793e-12
3.64015e-09
-4.41102e-12
3.64104e-09
-4.5362e-12
3.64189e-09
-4.68186e-12
3.64286e-09
-4.84699e-12
3.64378e-09
-5.02931e-12
3.64485e-09
-5.22739e-12
3.64586e-09
-5.43876e-12
3.64703e-09
-5.66189e-12
3.64813e-09
-5.89469e-12
3.64941e-09
-6.13596e-12
3.65061e-09
-6.38449e-12
3.652e-09
-6.63975e-12
3.65331e-09
-6.90164e-12
3.65481e-09
-7.17038e-12
3.65621e-09
-7.44683e-12
3.65783e-09
-7.73177e-12
3.65934e-09
-8.02642e-12
3.66109e-09
-8.33169e-12
3.66272e-09
-8.64831e-12
3.6646e-09
-8.97679e-12
3.66637e-09
-9.3166e-12
3.6684e-09
-9.66734e-12
3.67031e-09
-1.00267e-11
3.67251e-09
-1.03933e-11
3.67459e-09
-1.07632e-11
3.67696e-09
-1.1134e-11
3.6792e-09
-1.15005e-11
3.68172e-09
-1.18615e-11
3.68418e-09
-1.22074e-11
3.68671e-09
-1.25547e-11
3.68935e-09
-1.28253e-11
-1.33214e-11
2.50004e-09
-2.18155e-13
2.50014e-09
-6.54096e-13
2.50032e-09
-1.09035e-12
2.50057e-09
-1.5268e-12
2.5009e-09
-1.96349e-12
2.50129e-09
-2.40056e-12
2.50175e-09
-2.83821e-12
2.50229e-09
-3.27671e-12
2.50289e-09
-3.71641e-12
2.50357e-09
-4.15773e-12
2.50431e-09
-4.6012e-12
2.50513e-09
-5.04742e-12
2.50602e-09
-5.49705e-12
2.50697e-09
-5.95089e-12
2.508e-09
-6.40976e-12
2.5091e-09
-6.87462e-12
2.51027e-09
-7.34646e-12
2.51151e-09
-7.82636e-12
2.51283e-09
-8.31549e-12
2.51423e-09
-8.81505e-12
2.5157e-09
-9.32633e-12
2.51725e-09
-9.85068e-12
2.51888e-09
-1.03895e-11
2.5206e-09
-1.09442e-11
2.5224e-09
-1.15164e-11
2.52429e-09
-1.21076e-11
2.52627e-09
-1.27193e-11
2.52835e-09
-1.33533e-11
2.53053e-09
-1.40112e-11
2.53281e-09
-1.46949e-11
2.5352e-09
-1.54059e-11
2.5377e-09
-1.61463e-11
2.54032e-09
-1.69178e-11
2.54306e-09
-1.77224e-11
2.54593e-09
-1.8562e-11
2.54894e-09
-1.94386e-11
2.55208e-09
-2.03541e-11
2.55538e-09
-2.13106e-11
2.55882e-09
-2.23101e-11
2.56243e-09
-2.33548e-11
2.56621e-09
-2.44467e-11
2.57017e-09
-2.55881e-11
2.57431e-09
-2.67809e-11
2.57865e-09
-2.80275e-11
2.58319e-09
-2.933e-11
2.58795e-09
-3.06905e-11
2.59294e-09
-3.21113e-11
2.59815e-09
-3.35946e-11
2.60362e-09
-3.51425e-11
2.60934e-09
-3.67572e-11
2.61534e-09
-3.84408e-11
2.62162e-09
-4.01954e-11
2.6282e-09
-4.2023e-11
2.63508e-09
-4.39254e-11
2.6423e-09
-4.59045e-11
2.64985e-09
-4.79618e-11
2.65776e-09
-5.00988e-11
2.66604e-09
-5.23165e-11
2.67471e-09
-5.46156e-11
2.68379e-09
-5.69967e-11
2.6933e-09
-5.94594e-11
2.70325e-09
-6.20028e-11
2.71366e-09
-6.46255e-11
2.72456e-09
-6.73247e-11
2.73596e-09
-7.00969e-11
2.74789e-09
-7.2937e-11
2.76036e-09
-7.58384e-11
2.77339e-09
-7.87928e-11
2.78701e-09
-8.17899e-11
2.80123e-09
-8.48171e-11
2.81606e-09
-8.78593e-11
2.83152e-09
-9.08986e-11
2.8476e-09
-9.39145e-11
2.86433e-09
-9.68835e-11
2.88168e-09
-9.97792e-11
2.89965e-09
-1.02572e-10
2.91823e-09
-1.05232e-10
2.93738e-09
-1.07724e-10
2.95706e-09
-1.10016e-10
2.97723e-09
-1.12072e-10
2.99782e-09
-1.13861e-10
3.01878e-09
-1.15351e-10
3.04002e-09
-1.16518e-10
3.06146e-09
-1.17338e-10
3.08302e-09
-1.17799e-10
3.1046e-09
-1.17891e-10
3.12611e-09
-1.17613e-10
3.14747e-09
-1.16971e-10
3.1686e-09
-1.15977e-10
3.18941e-09
-1.14648e-10
3.20985e-09
-1.13006e-10
3.22983e-09
-1.11076e-10
3.24932e-09
-1.08886e-10
3.26826e-09
-1.06465e-10
3.28663e-09
-1.03843e-10
3.30438e-09
-1.01049e-10
3.3215e-09
-9.81134e-11
3.33798e-09
-9.50636e-11
3.3538e-09
-9.19267e-11
3.36895e-09
-8.87279e-11
3.38345e-09
-8.54904e-11
3.3973e-09
-8.22355e-11
3.4105e-09
-7.89824e-11
3.42307e-09
-7.57484e-11
3.43503e-09
-7.25487e-11
3.44638e-09
-6.93965e-11
3.45716e-09
-6.63034e-11
3.46738e-09
-6.3279e-11
3.47705e-09
-6.03317e-11
3.48622e-09
-5.7468e-11
3.49488e-09
-5.46935e-11
3.50308e-09
-5.20123e-11
3.51081e-09
-4.94275e-11
3.51813e-09
-4.69411e-11
3.52503e-09
-4.45544e-11
3.53156e-09
-4.22676e-11
3.53771e-09
-4.00803e-11
3.54352e-09
-3.79915e-11
3.549e-09
-3.59994e-11
3.55418e-09
-3.4102e-11
3.55906e-09
-3.22968e-11
3.56367e-09
-3.05809e-11
3.56803e-09
-2.89514e-11
3.57214e-09
-2.74049e-11
3.57602e-09
-2.59382e-11
3.57969e-09
-2.45479e-11
3.58315e-09
-2.32308e-11
3.58643e-09
-2.19836e-11
3.58952e-09
-2.08033e-11
3.59245e-09
-1.96869e-11
3.59521e-09
-1.86315e-11
3.59782e-09
-1.76343e-11
3.60029e-09
-1.66926e-11
3.60263e-09
-1.58038e-11
3.60483e-09
-1.49656e-11
3.60693e-09
-1.41755e-11
3.60891e-09
-1.34314e-11
3.61079e-09
-1.2731e-11
3.61256e-09
-1.20725e-11
3.61426e-09
-1.14539e-11
3.61586e-09
-1.08735e-11
3.61739e-09
-1.03295e-11
3.61883e-09
-9.82021e-12
3.62021e-09
-9.34384e-12
3.62152e-09
-8.89868e-12
3.62279e-09
-8.48269e-12
3.62398e-09
-8.09428e-12
3.62514e-09
-7.73127e-12
3.62623e-09
-7.39239e-12
3.62729e-09
-7.0755e-12
3.6283e-09
-6.77995e-12
3.62928e-09
-6.50389e-12
3.6302e-09
-6.24737e-12
3.63111e-09
-6.00901e-12
3.63195e-09
-5.78957e-12
3.6328e-09
-5.58827e-12
3.63357e-09
-5.40643e-12
3.63435e-09
-5.24394e-12
3.63507e-09
-5.10257e-12
3.6358e-09
-4.98277e-12
3.63647e-09
-4.88652e-12
3.63718e-09
-4.8147e-12
3.63782e-09
-4.7692e-12
3.63851e-09
-4.75104e-12
3.63914e-09
-4.76165e-12
3.63984e-09
-4.80183e-12
3.64049e-09
-4.87214e-12
3.64124e-09
-4.97276e-12
3.64193e-09
-5.10303e-12
3.64274e-09
-5.26215e-12
3.6435e-09
-5.4481e-12
3.6444e-09
-5.65898e-12
3.64526e-09
-5.89171e-12
3.64627e-09
-6.1435e-12
3.64723e-09
-6.4109e-12
3.64835e-09
-6.6909e-12
3.64942e-09
-6.98059e-12
3.65066e-09
-7.27759e-12
3.65183e-09
-7.58043e-12
3.65318e-09
-7.88806e-12
3.65445e-09
-8.20086e-12
3.65591e-09
-8.51943e-12
3.65728e-09
-8.84573e-12
3.65885e-09
-9.18166e-12
3.66032e-09
-9.52982e-12
3.66201e-09
-9.89259e-12
3.66359e-09
-1.02718e-11