/*--------------------------------*- C++ -*----------------------------------*\
  =========                 |
  \\      /  F ield         | OpenFOAM: The Open Source CFD Toolbox
   \\    /   O peration     | Website:  https://openfoam.org
    \\  /    A nd           | Version:  11
     \\/     M anipulation  |
\*---------------------------------------------------------------------------*/
FoamFile
{
    format      ascii;
    class       surfaceScalarField;
    location    "59";
    object      phi;
}
// * * * * * * * * * * * * * * * * * * * * * * * * * * * * * * * * * * * * * //

dimensions      [0 3 -1 0 0 0 0];

internalField   nonuniform List<scalar> 
4000
(
0.025032
-3.19702e-05
0.0251278
-9.5815e-05
0.0252878
-0.000160033
0.0255132
-0.000225391
0.0258055
-0.000292283
0.0261662
-0.000360726
0.0265964
-0.000430227
0.0270961
-0.000499693
0.0276635
-0.000567367
0.0282943
-0.000630787
0.0289811
-0.0006868
0.0297128
-0.000731735
0.0304745
-0.000761717
0.0312477
-0.000773123
0.0320108
-0.00076316
0.0327412
-0.00073039
0.0334164
-0.000675209
0.0340165
-0.000600119
0.0345258
-0.000509282
0.0349333
-0.000407438
0.0352323
-0.000299057
0.0354204
-0.000188114
0.0354988
-7.83754e-05
0.0354721
2.67379e-05
0.0353514
0.00012071
0.0351501
0.000201218
0.0348869
0.000263225
0.0345845
0.000302459
0.034269
0.000315448
0.0339688
0.00030022
0.0337124
0.000256414
0.0335275
0.000184919
0.0334373
9.01925e-05
0.0334608
-2.35379e-05
0.0336104
-0.000149604
0.0338902
-0.000279773
0.0342943
-0.000404156
0.0348065
-0.000512178
0.0353996
-0.000593106
0.0360374
-0.000637796
0.0366762
-0.000638808
0.0372677
-0.000591448
0.0377645
-0.000496815
0.0381228
-0.000358358
0.038307
-0.000184125
0.0382964
1.05589e-05
0.0380813
0.000215109
0.0376668
0.000414496
0.0370709
0.000595891
0.0363212
0.000749672
0.0354512
0.000870087
0.0344967
0.000954422
0.0334926
0.00100418
0.0324722
0.00102035
0.0314624
0.0010098
0.0304917
0.000970661
0.0295749
0.000916849
0.0287412
0.000833668
0.027988
0.000753191
0.0273604
0.000627654
0.0268204
0.000540024
0.0264647
0.000355616
0.0261683
0.000296479
3.47895e-06
0.0250317
-6.36663e-05
0.0251265
-0.000190666
0.0252851
-0.000318578
0.0255088
-0.000449086
0.0257996
-0.000583068
0.0261595
-0.000720652
0.0265902
-0.000860957
0.0270924
-0.00100186
0.0276649
-0.00113987
0.0283041
-0.00127002
0.0290032
-0.00138582
0.0297511
-0.00147963
0.0305325
-0.00154316
0.0313279
-0.00156851
0.0321143
-0.00154957
0.032867
-0.00148312
0.0335619
-0.00137006
0.0341779
-0.0012161
0.0346989
-0.00103034
0.0351141
-0.000822637
0.035417
-0.000601881
0.0356048
-0.000375941
0.0356787
-0.000152308
0.0356428
6.26484e-05
0.0355086
0.000254961
0.0352892
0.000420547
0.0350039
0.000548593
0.0346762
0.000630069
0.034334
0.000657681
0.034007
0.000627231
0.0337257
0.000537723
0.0335188
0.000391779
0.0334126
0.000196459
0.0334269
-3.78402e-05
0.0335758
-0.000298501
0.0338646
-0.000568565
0.034288
-0.000827562
0.034829
-0.00105325
0.0354597
-0.00122372
0.0361408
-0.00131897
0.0368261
-0.00132405
0.0374634
-0.00122876
0.0379995
-0.00103297
0.0383884
-0.000747256
0.0385907
-0.000386375
0.0385838
1.74285e-05
0.0383583
0.000440659
0.0379209
0.000851842
0.0372928
0.00122399
0.0365051
0.00153741
0.0355945
0.00178065
0.0346
0.00194892
0.0335583
0.00204586
0.0325041
0.00207457
0.0314648
0.00204916
0.0304684
0.00196703
0.0295298
0.00185549
0.0286766
0.00168679
0.0279077
0.00152215
0.0272642
0.00127108
0.0267142
0.00109003
0.0263448
0.00072507
0.0260452
0.000596075
1.01813e-05
0.025031
-9.46176e-05
0.0251237
-0.000283405
0.025279
-0.000473892
0.0254989
-0.00066897
0.0257861
-0.000870272
0.0261437
-0.00107828
0.0265748
-0.00129199
0.0270813
-0.00150837
0.0276637
-0.00172226
0.0283196
-0.001926
0.0290432
-0.00210942
0.029824
-0.00226038
0.0306459
-0.00236504
0.0314873
-0.00240994
0.032322
-0.00238427
0.0331208
-0.00228195
0.0338556
-0.00210489
0.0345034
-0.00186389
0.0350478
-0.00157476
0.0354783
-0.00125309
0.0357884
-0.000912043
0.0359755
-0.000563013
0.0360399
-0.00021665
0.0359862
0.000116322
0.0358243
0.00041686
0.0355679
0.000676962
0.035237
0.000879471
0.0348577
0.0010094
0.0344602
0.00105514
0.0340777
0.00100975
0.0337442
0.000871212
0.0334922
0.000643726
0.033352
0.00033673
0.0333461
-3.19557e-05
0.0334924
-0.000444856
0.0337988
-0.000874954
0.0342611
-0.0012898
0.0348614
-0.00165363
0.0355692
-0.00193145
0.0363406
-0.0020904
0.0371218
-0.00210529
0.0378535
-0.00196038
0.0384719
-0.00165139
0.0389239
-0.00119922
0.0391639
-0.000626399
0.039165
1.6321e-05
0.038918
0.000687625
0.0384334
0.0013365
0.0377384
0.00191898
0.0368718
0.00240397
0.0358781
0.00277438
0.0348022
0.00302484
0.0336849
0.00316309
0.0325631
0.00319636
0.0314649
0.00314744
0.0304178
0.0030141
0.0294354
0.00283787
0.0285449
0.00257727
0.0277427
0.00232434
0.0270695
0.00194433
0.0264952
0.0016643
0.0261
0.00112032
0.0257991
0.000896973
3.2144e-05
0.0250297
-0.000124327
0.0251188
-0.000372525
0.0252685
-0.000623586
0.0254816
-0.00088205
0.025762
-0.00115066
0.0261144
-0.00143067
0.0265438
-0.00172146
0.0270548
-0.00201937
0.0276505
-0.00231792
0.0283308
-0.00260626
0.0290914
-0.00287001
0.0299225
-0.00309153
0.0308071
-0.00324967
0.031721
-0.00332381
0.0326323
-0.00329551
0.0335035
-0.00315319
0.0342999
-0.00290133
0.034996
-0.00255997
0.0355757
-0.00215439
0.036029
-0.00170641
0.03635
-0.00123312
0.0365361
-0.000749108
0.0365872
-0.000267736
0.0365064
0.000197162
0.0363024
0.000620808
0.0359885
0.000990867
0.0355866
0.00128143
0.0351258
0.00147015
0.0346412
0.00153973
0.034171
0.00148002
0.0337546
0.0012876
0.0334303
0.000967964
0.0332344
0.00053265
0.0331938
8.62192e-06
0.0333329
-0.000583876
0.0336635
-0.00120561
0.0341836
-0.00180986
0.0348748
-0.00234483
0.0357015
-0.00275819
0.0366139
-0.00300281
0.0375458
-0.00303711
0.0384247
-0.00283929
0.0391756
-0.00240232
0.0397265
-0.00175013
0.0400283
-0.000928154
0.0400444
2.24739e-07
0.0397651
0.00096688
0.039207
0.00189464
0.0384078
0.00271817
0.0374184
0.00339333
0.0362954
0.00389735
0.0350938
0.00422651
0.0338613
0.0043956
0.0326377
0.00441994
0.0314521
0.00433304
0.0303304
0.00413578
0.0292842
0.00388403
0.02834
0.00352152
0.0274871
0.00317719
0.0267722
0.0026593
0.0261538
0.00228267
0.0257316
0.00154257
0.0254221
0.00120647
0.000109335
0.0250278
-0.000152082
0.0251112
-0.000455964
0.0252519
-0.000764332
0.0254539
-0.00108403
0.0257225
-0.00141926
0.0260645
-0.00177267
0.0264878
-0.00214476
0.0270003
-0.00253184
0.0276097
-0.00292734
0.0283199
-0.00331643
0.0291302
-0.00368035
0.0300317
-0.00399303
0.0310052
-0.00422318
0.0320233
-0.00434188
0.0330445
-0.0043167
0.0340172
-0.00412587
0.0348976
-0.00378173
0.0356585
-0.00332086
0.0362852
-0.00278115
0.0367693
-0.00219044
0.0371053
-0.0015692
0.0372908
-0.000934547
0.0373248
-0.000301771
0.0372095
0.000312517
0.0369482
0.000882095
0.0365547
0.00138429
0.0360531
0.00178303
0.0354772
0.00204608
0.0348677
0.00214925
0.034271
0.00207672
0.0337359
0.0018227
0.033307
0.00139686
0.0330257
0.000813938
0.0329315
0.000102838
0.0330526
-0.000704968
0.0334092
-0.00156219
0.0340018
-0.00240245
0.0348085
-0.00315157
0.0357874
-0.0037371
0.0368763
-0.00409165
0.0379997
-0.00416051
0.0390694
-0.00390904
0.0400001
-0.00333301
0.0406997
-0.00244969
0.0411065
-0.00133504
0.0411679
-6.11198e-05
0.0408657
0.00126912
0.0402199
0.00254037
0.0392831
0.00365498
0.0381267
0.00454974
0.0368276
0.00519649
0.0354557
0.00559836
0.0340688
0.00578252
0.0327104
0.00577831
0.031411
0.00563248
0.0301925
0.00535428
0.0290659
0.00501061
0.0280513
0.00453615
0.0271333
0.00409514
0.0263635
0.00342916
0.025687
0.00295908
0.0252493
0.00198032
0.0248595
0.00159622
0.000306362
0.0250248
-0.000176901
0.0250998
-0.000530959
0.025227
-0.000891506
0.0254118
-0.00126889
0.0256612
-0.00166861
0.0259849
-0.00209633
0.0263938
-0.00255366
0.0269002
-0.00303826
0.0275186
-0.00354578
0.0282588
-0.00405659
0.02913
-0.00455156
0.0301248
-0.00498779
0.0312211
-0.00531953
0.0323868
-0.00550759
0.0335599
-0.00548979
0.0346661
-0.00523204
0.0356531
-0.00476879
0.0364952
-0.00416296
0.0371807
-0.00346664
0.037703
-0.00271276
0.0380591
-0.00192524
0.0382461
-0.00112154
0.0382621
-0.000317816
0.0381046
0.000470011
0.0377706
0.00121616
0.0372724
0.00188239
0.0366381
0.00241739
0.035907
0.00277722
0.0351288
0.00292741
0.0343599
0.00284567
0.0336567
0.00252582
0.0330766
0.00197701
0.0326717
0.00121885
0.0324882
0.000286284
0.0325662
-0.000782901
0.0329282
-0.00192423
0.0335732
-0.00304749
0.0344678
-0.00404614
0.0355563
-0.00482561
0.0367721
-0.00530741
0.0380412
-0.00542964
0.0392847
-0.00515255
0.0404117
-0.00445994
0.0413348
-0.00337281
0.0419494
-0.00194963
0.0421819
-0.000293712
0.0419665
0.00148459
0.0413113
0.00319553
0.0402689
0.00469734
0.0389372
0.0058815
0.0374303
0.00670333
0.0358504
0.00717834
0.0342746
0.00735828
0.0327534
0.00729956
0.0313181
0.00706777
0.0299856
0.00668673
0.0287668
0.00622948
0.0276653
0.00563761
0.0266721
0.0050884
0.0258345
0.00426668
0.0251058
0.00368781
0.0246091
0.00247698
0.0240117
0.0021937
0.000639355
0.0250206
-0.000197495
0.0250836
-0.000594007
0.025191
-0.000998843
0.0253505
-0.00142842
0.0255695
-0.0018876
0.0258633
-0.00239009
0.0262445
-0.00293485
0.026733
-0.00352679
0.0273494
-0.0041622
0.0281098
-0.00481703
0.0290458
-0.00548756
0.0301531
-0.00609506
0.0314178
-0.00658418
0.0327969
-0.00688667
0.0341808
-0.00687373
0.0354622
-0.00651345
0.0365852
-0.00589174
0.0375273
-0.00510514
0.0382797
-0.00421895
0.0388399
-0.00327297
0.0392133
-0.0022987
0.0394025
-0.00131073
0.0394011
-0.000316429
0.0391926
0.000678502
0.0387662
0.00164261
0.0381358
0.00251276
0.0373302
0.00322305
0.036395
0.00371236
0.0353929
0.00392948
0.0343941
0.00384448
0.033467
0.00345299
0.0326705
0.00277343
0.0320609
0.00182853
0.0316978
0.000649296
0.0316403
-0.000725399
0.0318958
-0.00217967
0.0324273
-0.00357906
0.0331732
-0.00479199
0.0340912
-0.00574361
0.0351662
-0.00638244
0.0363862
-0.00664962
0.0377127
-0.00647909
0.0390588
-0.00580597
0.040321
-0.00463504
0.0413474
-0.00297602
0.0420539
-0.00100025
0.0422376
0.00130095
0.0418764
0.00355667
0.0409692
0.0056046
0.0396133
0.0072374
0.0379664
0.00835022
0.0361918
0.00895292
0.0344173
0.00913276
0.0327195
0.00899736
0.031138
0.00864933
0.0296859
0.00813876
0.0283675
0.00754793
0.0271708
0.00683431
0.026103
0.0061562
0.0251941
0.00517556
0.0243857
0.00449618
0.0237226
0.00314013
0.0228808
0.00303549
0.00101046
0.0250148
-0.000212336
0.0250618
-0.000641005
0.0251414
-0.00107843
0.0252652
-0.00155221
0.0254375
-0.00205985
0.0256847
-0.00263734
0.0260149
-0.00326499
0.0264705
-0.00398246
0.027066
-0.00475773
0.0278338
-0.00558479
0.0288319
-0.00648566
0.0300437
-0.00730689
0.0315397
-0.00808016
0.033244
-0.00859096
0.0349328
-0.00856259
0.0364461
-0.00802672
0.037724
-0.00716963
0.0387488
-0.00612996
0.0395219
-0.004992
0.0400603
-0.0038114
0.0403954
-0.0026338
0.0405564
-0.00147168
0.0405374
-0.000297438
0.0402687
0.000947127
0.0397426
0.00216873
0.0389678
0.00328755
0.0379649
0.00422599
0.0367825
0.00489473
0.0354949
0.00521705
0.0341893
0.00515016
0.0329535
0.00468876
0.0318559
0.00387101
0.0309284
0.00275605
0.0301934
0.0013843
0.0297279
-0.000259926
0.0294866
-0.00193831
0.0293765
-0.00346903
0.0293905
-0.00480593
0.0296484
-0.00600158
0.0302938
-0.00702779
0.0313913
-0.0077471
0.0328809
-0.00796875
0.0346181
-0.00754313
0.0364186
-0.00643556
0.0381024
-0.00465984
0.0394837
-0.00238157
0.0404564
0.000328298
0.0408323
0.00318071
0.0405256
0.00591132
0.0395548
0.00820824
0.0380656
0.00983944
0.0362739
0.0107446
0.0343865
0.0110201
0.0325463
0.0108376
0.0308316
0.010364
0.029266
0.0097044
0.0278487
0.00896521
0.0265623
0.0081207
0.025427
0.00729152
0.0244274
0.00617514
0.0234849
0.00543868
0.0226058
0.00401922
0.0216271
0.00401416
0.00129944
0.0250076
-0.000219917
0.025034
-0.000667413
0.0250772
-0.00112165
0.0251529
-0.00162792
0.0252575
-0.0021644
0.0254345
-0.00281437
0.0256715
-0.00350205
0.0260707
-0.00438156
0.0265974
-0.00528445
0.0273886
-0.00637601
0.028442
-0.00753911
0.0297202
-0.00858506
0.0315939
-0.00995388
0.0338062
-0.0108032
0.0358499
-0.0106063
0.0375043
-0.00968109
0.0387344
-0.00839976
0.0395705
-0.00696604
0.0400854
-0.00550687
0.0403586
-0.0040846
0.0404809
-0.00275619
0.0405112
-0.00150195
0.040484
-0.000270238
0.040193
0.00123819
0.039659
0.00270265
0.0388394
0.00410721
0.0377217
0.00534371
0.0363477
0.00626872
0.0347956
0.00676916
0.0331503
0.0067954
0.0314867
0.00635236
0.0298864
0.00547135
0.0284421
0.00420035
0.0271465
0.00267992
0.0257181
0.00116842
0.0241827
-0.000402847
0.0227342
-0.00202052
0.0217647
-0.00383643
0.0216271
-0.00586397
0.0224119
-0.00781258
0.0239814
-0.00931668
0.0260935
-0.0100808
0.0284834
-0.00993302
0.0309001
-0.00885223
0.0331764
-0.00693621
0.0351617
-0.0043668
0.0368113
-0.00132134
0.0379467
0.00204529
0.0384299
0.00542811
0.0381649
0.00847325
0.0371954
0.010809
0.035703
0.012237
0.0339298
0.0127933
0.0320883
0.0126792
0.0303199
0.0121324
0.0286827
0.0113417
0.0271913
0.0104566
0.0258389
0.00947311
0.0246402
0.00849017
0.0235219
0.00729341
0.0224157
0.00654494
0.0213602
0.00507468
0.0203751
0.00499925
0.00146068
0.0249993
-0.000219184
0.0250002
-0.000668344
0.0249999
-0.00112139
0.0250134
-0.0016414
0.025031
-0.002182
0.0251043
-0.00288768
0.0251946
-0.00359235
0.0254753
-0.00466227
0.0258136
-0.00562273
0.0266695
-0.00723184
0.0276707
-0.00854036
0.0292143
-0.0101287
0.0317656
-0.0125051
0.034356
-0.0133936
0.0361787
-0.0124291
0.0371871
-0.0106895
0.0375349
-0.00874752
0.0374113
-0.00684246
0.0370533
-0.00514889
0.0366299
-0.00366115
0.0363367
-0.00246306
0.0362133
-0.00137847
0.0361843
-0.000241307
0.0361257
0.00129683
0.0359047
0.00292362
0.0353922
0.00461975
0.0345085
0.00622735
0.0332377
0.00753958
0.0316408
0.00836605
0.0298455
0.00859069
0.0279684
0.00822946
0.0259828
0.00745693
0.0236562
0.006527
0.0207921
0.00554396
0.0176545
0.00430603
0.0148255
0.00242618
0.0130677
-0.000262704
0.012673
-0.00344177
0.0134742
-0.00666514
0.0151668
-0.00950521
0.0174812
-0.0116311
0.0201933
-0.0127929
0.0230909
-0.0128306
0.0259549
-0.0117163
0.0286007
-0.00958197
0.0309102
-0.00667627
0.0328331
-0.0032443
0.0343482
0.000530169
0.035344
0.00443232
0.0356892
0.0081281
0.0353203
0.0111779
0.0343148
0.0132424
0.0328674
0.0142408
0.0312049
0.0143417
0.0295116
0.0138256
0.0278866
0.0129667
0.0263787
0.0119645
0.0249979
0.0108539
0.0237373
0.00975079
0.0224872
0.00854349
0.0212351
0.00779703
0.0200777
0.0062321
0.0191628
0.00591423
0.00151546
0.0249904
-0.000209627
0.0249615
-0.000639386
0.0249137
-0.0010736
0.0248508
-0.00157846
0.0247715
-0.00210269
0.0246994
-0.00281567
0.0246124
-0.00350527
0.0246449
-0.00469484
0.0246504
-0.0056282
0.0253357
-0.00791714
0.0259343
-0.00913897
0.028644
-0.0128383
0.0313863
-0.0152475
0.0326721
-0.0146793
0.0324203
-0.0121774
0.0312452
-0.00951433
0.0295828
-0.00708516
0.0277976
-0.00505725
0.0262007
-0.00355194
0.024922
-0.00238246
0.0243653
-0.00190638
0.0243968
-0.00140996
0.0247628
-0.000607289
0.025395
0.000664645
0.0259858
0.00233276
0.0262986
0.00430693
0.0261663
0.00635966
0.0255005
0.00820539
0.0242684
0.0095982
0.0224326
0.0104264
0.0199341
0.010728
0.0167742
0.0106168
0.0131895
0.0101117
0.00972777
0.00900568
0.00707073
0.00696307
0.00562298
0.00387393
0.00530939
5.08882e-05
0.00595026
-0.00408263
0.00736197
-0.00807686
0.00938155
-0.0115248
0.0118895
-0.0141391
0.0147791
-0.0156825
0.017915
-0.0159665
0.0211024
-0.0149037
0.0241122
-0.0125917
0.0267585
-0.0093226
0.0289366
-0.00542236
0.0306609
-0.00119414
0.0319178
0.00317543
0.0326434
0.00740248
0.0327531
0.0110681
0.0322399
0.0137556
0.0312149
0.0152658
0.0298636
0.0156929
0.0283693
0.0153198
0.0268566
0.0144794
0.0254073
0.0134138
0.024041
0.0122202
0.0227282
0.0110636
0.021364
0.00990776
0.0200141
0.0091469
0.0188176
0.00742862
0.0179896
0.00674221
0.00151833
0.0249811
-0.000190756
0.0249206
-0.000578892
0.0248231
-0.000976044
0.0246766
-0.00143197
0.0244955
-0.0019216
0.0242501
-0.00257031
0.0239832
-0.00323832
0.0236389
-0.00435053
0.0232854
-0.00527472
0.0230676
-0.00769934
0.0228049
-0.00887628
0.0260706
-0.0161041
0.0263406
-0.0155175
0.0230674
-0.0114061
0.0193872
-0.0084972
0.0159651
-0.00609218
0.0130665
-0.00418658
0.0108928
-0.00288353
0.00936957
-0.00202872
0.00821775
-0.00123064
0.00870434
-0.00239297
0.00976428
-0.00246989
0.0110383
-0.00188128
0.0123084
-0.000605455
0.0135253
0.00111586
0.0143964
0.00343583
0.0147198
0.00603619
0.0143539
0.00857135
0.0132286
0.0107234
0.011332
0.0123231
0.0087832
0.0132768
0.00585876
0.0135412
0.00302289
0.0129476
0.000779483
0.0112491
-0.00051683
0.00825938
-0.000697065
0.00405416
-0.000111012
-0.000535165
0.00114617
-0.00533982
0.00290816
-0.00983884
0.00503264
-0.0136493
0.00745723
-0.0165637
0.0101795
-0.0184047
0.0131884
-0.0189754
0.0163821
-0.0180974
0.0195588
-0.0157684
0.0224582
-0.0122221
0.0249206
-0.00788472
0.0268771
-0.00315065
0.0283443
0.00170819
0.0293288
0.006418
0.0297915
0.0106055
0.0297029
0.0138442
0.0291094
0.0158593
0.0281345
0.0166678
0.0269277
0.0165267
0.0256164
0.0157907
0.0242978
0.0147324
0.0229888
0.0135292
0.0216497
0.0124027
0.0202135
0.011344
0.0188204
0.01054
0.0176246
0.00862433
0.016866
0.00750082
0.0015361
0.0249714
-0.000162163
0.0248818
-0.000489286
0.0247334
-0.00082764
0.0245092
-0.00120778
0.0242194
-0.00163175
0.0238126
-0.00216358
0.0233448
-0.00277054
0.0226468
-0.00365252
0.0219551
-0.00458296
0.0206209
-0.00636517
0.0192364
-0.00749176
0.0154812
-0.0123489
0.00861979
-0.00865605
0.0044069
-0.0071932
0.00218205
-0.00627235
0.00114349
-0.00505363
0.00070122
-0.0037443
0.000508604
-0.00269092
0.000420824
-0.00194094
0.000602589
-0.0014124
0.00161305
-0.00340344
0.00243862
-0.00329546
0.00308519
-0.00252785
0.00366313
-0.00118339
0.00410305
0.000675933
0.00436636
0.00317253
0.00431703
0.00608551
0.00382941
0.00905897
0.00281037
0.0117425
0.00128859
0.0138449
-0.000605603
0.015171
-0.00255187
0.0154875
-0.00413461
0.0145303
-0.00495116
0.0120656
-0.00480396
0.00811219
-0.00379352
0.00304372
-0.00232526
-0.00200343
-0.000503415
-0.00716166
0.00147722
-0.0118195
0.00347532
-0.0156474
0.00547205
-0.0185604
0.00757859
-0.0205113
0.00995211
-0.0213489
0.0126522
-0.0207975
0.0155499
-0.0186661
0.0184015
-0.0150736
0.0209605
-0.0104437
0.0230781
-0.00526823
0.0247231
6.31371e-05
0.0259133
0.00522784
0.0266508
0.00986791
0.0269184
0.0135766
0.0267282
0.0160495
0.0261461
0.0172499
0.0252763
0.0173965
0.0242312
0.0168358
0.0231003
0.0158632
0.0218882
0.0147413
0.0205611
0.0137297
0.0191092
0.0127959
0.0177227
0.0119266
0.0165534
0.00979367
0.0158308
0.00822342
0.00163553
0.0249626
-0.000124763
0.0248484
-0.000375097
0.0246536
-0.000632832
0.0243646
-0.000918826
0.0239705
-0.00123764
0.023437
-0.00163007
0.0227523
-0.00208577
0.0218156
-0.00271588
0.0206472
-0.00341457
0.0188399
-0.00455784
0.0167363
-0.00538815
0.0125013
-0.00811389
0.00908471
-0.00523949
0.00644586
-0.00455435
0.00433434
-0.00416082
0.00275989
-0.00347918
0.00172482
-0.00270923
0.00109661
-0.0020627
0.000748153
-0.00159249
0.00060679
-0.00127104
0.000169156
-0.00296581
-0.000389883
-0.00273642
-0.000863962
-0.00205377
-0.0012746
-0.000772754
-0.00168872
0.00109005
-0.00213596
0.00361977
-0.00265009
0.00659964
-0.00330501
0.00971389
-0.00416218
0.0125996
-0.00521897
0.0149017
-0.00631633
0.0162683
-0.00714464
0.0163158
-0.00735364
0.0147393
-0.00674068
0.0114527
-0.00540239
0.00677389
-0.00363991
0.00128124
-0.0016155
-0.00402783
0.000528057
-0.00930522
0.00254135
-0.0138328
0.00431235
-0.0174184
0.00577852
-0.0200266
0.00706352
-0.0217963
0.00846159
-0.022747
0.0102471
-0.022583
0.0124643
-0.0208832
0.0149161
-0.0175255
0.0173143
-0.0128419
0.0194353
-0.00738917
0.0211782
-0.00167982
0.0225283
0.00387776
0.0234942
0.00890198
0.0240691
0.0130018
0.0242465
0.0158721
0.024048
0.0174483
0.0235356
0.017909
0.0227945
0.0175769
0.021889
0.0167688
0.0208087
0.0158216
0.0195405
0.014998
0.0181332
0.0142032
0.0167985
0.0132613
0.015675
0.0109171
0.0149521
0.00894631
0.00187487
0.0249563
-8.10704e-05
0.0248229
-0.000241707
0.0245942
-0.000404111
0.024254
-0.000578658
0.0237846
-0.000768175
0.0231475
-0.000992993
0.0223104
-0.00124864
0.0211844
-0.00158996
0.0197303
-0.00196044
0.0177169
-0.00254442
0.0152822
-0.00295346
0.0114475
-0.00427924
0.00880144
-0.0025934
0.00650945
-0.00226236
0.00452035
-0.00217172
0.00298748
-0.00194631
0.00193169
-0.00165344
0.00126001
-0.00139103
0.000864676
-0.00119715
0.000621561
-0.00102793
-0.000273642
-0.0020706
-0.0013174
-0.00169266
-0.0023802
-0.000990974
-0.00337293
0.000219969
-0.00432364
0.00204077
-0.00517963
0.00447576
-0.0059467
0.00736671
-0.00665658
0.0104238
-0.00732154
0.0132646
-0.00786912
0.0154492
-0.00811154
0.0165108
-0.00780428
0.0160086
-0.00679594
0.013731
-0.00518144
0.00983818
-0.00321818
0.00481063
-0.00122871
-0.000708241
0.000981258
-0.0062378
0.00309235
-0.0114163
0.00504878
-0.0157892
0.00665648
-0.0190261
0.00774908
-0.0211192
0.00832875
-0.022376
0.00869504
-0.0231133
0.00932361
-0.0232116
0.0105248
-0.0220844
0.0122512
-0.0192519
0.014223
-0.0148137
0.0161562
-0.0093224
0.0178778
-0.00340137
0.0193227
0.00243281
0.0204743
0.00775037
0.021317
0.0121591
0.021826
0.0153631
0.0219896
0.0172847
0.0218343
0.0180643
0.0214112
0.0179999
0.0207499
0.0174301
0.0198313
0.0167402
0.0186727
0.0161565
0.0173708
0.0155051
0.0161303
0.0145018
0.0150727
0.0119747
0.0143212
0.00969787
0.00229523
0.0249527
-3.37995e-05
0.0248084
-9.74256e-05
0.0245607
-0.000156324
0.0241914
-0.000209386
0.0236802
-0.000256977
0.0229842
-0.000297014
0.0220682
-0.000332581
0.020837
-0.000358847
0.0192615
-0.000384926
0.0171175
-0.000400433
0.0145804
-0.000416329
0.0107668
-0.00046565
0.0084197
-0.000246279
0.00643504
-0.000277697
0.00463703
-0.000373715
0.00316571
-0.000474988
0.00208883
-0.000576563
0.00137161
-0.000673809
0.000937226
-0.000762762
0.000705198
-0.000795899
-0.000155579
-0.00120983
-0.00133273
-0.000515509
-0.0025507
0.000226997
-0.00371318
0.00138245
-0.00478642
0.00311401
-0.00571298
0.00540233
-0.00645432
0.00810805
-0.00698066
0.0109501
-0.00723801
0.013522
-0.00712278
0.015334
-0.00647408
0.0158621
-0.0052079
0.0147424
-0.0034513
0.0119744
-0.00140721
0.0077941
0.000675971
0.00272746
0.00263464
-0.00266691
0.00456997
-0.00817313
0.00644471
-0.0132911
0.00816843
-0.0175129
0.00958291
-0.0204405
0.0104692
-0.0220055
0.0106547
-0.0225614
0.010253
-0.0227116
0.00977276
-0.0227314
0.00979766
-0.0221093
0.0105563
-0.0200106
0.0118715
-0.0161289
0.0134326
-0.0108835
0.015002
-0.00497079
0.0164596
0.000975208
0.017744
0.006466
0.0188107
0.0110924
0.0196107
0.0145631
0.0201056
0.0167899
0.0202911
0.0178789
0.0201797
0.0181113
0.0197671
0.0178428
0.0190375
0.0174697
0.0180395
0.0171545
0.0169002
0.0166445
0.0157931
0.0156089
0.0148263
0.0129414
0.0140366
0.0104876
0.0029112
0.0249522
1.39602e-05
0.0248065
4.82751e-05
0.0245564
9.37808e-05
0.0241839
0.000163132
0.0236687
0.000258201
0.0229678
0.000403889
0.0220462
0.000589024
0.0208087
0.000878723
0.0192257
0.00119804
0.0170749
0.00175035
0.0145273
0.00213128
0.0107098
0.00335186
0.0083671
0.00209641
0.00638197
0.00170744
0.00458138
0.00142688
0.003108
0.000998388
0.00203054
0.000500899
0.00131569
4.10384e-05
0.00088347
-0.000330539
0.000689602
-0.000602031
6.25942e-05
-0.000582817
-0.000926947
0.000474032
-0.0019584
0.00125845
-0.00293505
0.0023591
-0.00379944
0.0039784
-0.00447598
0.00607886
-0.00488992
0.00852199
-0.00496157
0.0110218
-0.00460958
0.01317
-0.00376926
0.0144937
-0.0023869
0.0144797
-0.000539076
0.0128946
0.00162462
0.0098107
0.00372861
0.00569011
0.00562567
0.000830394
0.00738343
-0.00442466
0.00900821
-0.00979791
0.0105168
-0.0147997
0.0118317
-0.0188277
0.0128421
-0.021451
0.0134144
-0.0225778
0.0133559
-0.0225029
0.0125461
-0.0219018
0.0112641
-0.0214494
0.0101926
-0.0210379
0.00987985
-0.0196978
0.0103795
-0.0166285
0.0114188
-0.0119228
0.0127172
-0.00626923
0.0140976
-0.000405188
0.0154491
0.00511453
0.0166835
0.00985797
0.0177249
0.0135217
0.0185106
0.0160041
0.0190052
0.0173843
0.0191826
0.0179339
0.0190147
0.0180106
0.0184987
0.0179857
0.0177102
0.017943
0.0167876
0.0175671
0.0158527
0.0165438
0.0150092
0.013785
0.0141962
0.0113006
0.00370653
0.0249549
5.90908e-05
0.0248172
0.000185935
0.0245816
0.000329403
0.0242319
0.000512806
0.0237505
0.000739582
0.0230991
0.00105529
0.0222452
0.00144298
0.0211006
0.0020233
0.0196243
0.00267437
0.0175901
0.00378458
0.0151255
0.00459588
0.0112767
0.00720061
0.00864118
0.00473193
0.00634629
0.00400232
0.00434992
0.00342324
0.00281482
0.00253349
0.00176211
0.00155361
0.00109231
0.000710838
0.000696837
6.49385e-05
0.000546265
-0.000451459
0.000187691
-0.000224244
-0.00034359
0.00100531
-0.000904133
0.001819
-0.00143023
0.0028852
-0.00181778
0.00436595
-0.00199034
0.00625141
-0.00184972
0.00838137
-0.00130888
0.0104809
-0.000295659
0.0121567
0.00125911
0.0129389
0.00323282
0.012506
0.00543757
0.0106898
0.00759419
0.00765408
0.00956684
0.00371745
0.0112962
-0.000898937
0.0128169
-0.00594535
0.0141696
-0.0111507
0.0153165
-0.0159465
0.0161478
-0.019659
0.0165629
-0.0218661
0.0165539
-0.0225687
0.0161041
-0.0220531
0.015052
-0.0208496
0.0133518
-0.0197492
0.0114731
-0.0191591
0.0101526
-0.0183773
0.00977145
-0.0162474
0.0101938
-0.0123452
0.0111293
-0.0072047
0.0123426
-0.0016185
0.0136922
0.00376492
0.0150314
0.00851876
0.016258
0.0122951
0.0172843
0.0149778
0.0180431
0.0166256
0.0184758
0.0175012
0.0185444
0.017942
0.0182652
0.0182649
0.0177298
0.0184784
0.0170727
0.0182241
0.0163558
0.0172607
0.0156743
0.0144665
0.0148803
0.0120946
0.00463406
0.0249602
9.8853e-05
0.0248391
0.000307054
0.0246331
0.000535409
0.0243288
0.00081715
0.0239154
0.00115294
0.0233586
0.00161206
0.022647
0.00215467
0.0216794
0.00299084
0.0204756
0.0038782
0.0186324
0.00562772
0.016482
0.00674629
0.0122144
0.0114682
0.00881092
0.00813546
0.00616926
0.00664398
0.00404504
0.00554746
0.00246792
0.00411061
0.00143966
0.00258187
0.000816108
0.00133439
0.000454839
0.000426207
0.000311471
-0.000308092
0.000235248
-0.000148021
0.000318952
0.00092161
0.000362886
0.00177506
0.000466991
0.00278109
0.000718424
0.00411452
0.00121262
0.00575722
0.00204226
0.00755173
0.00327875
0.00924442
0.00494386
0.0104916
0.00696969
0.0109131
0.00923552
0.0102401
0.0115328
0.00839251
0.0136713
0.00551558
0.0154805
0.00190828
0.0170617
-0.00248019
0.0184236
-0.00730726
0.0195657
-0.0122928
0.0203743
-0.0167551
0.0207112
-0.0199959
0.0205025
-0.0216575
0.0198024
-0.0218686
0.0187761
-0.0210268
0.0174432
-0.0195167
0.0155991
-0.0179051
0.0133121
-0.0168721
0.0112191
-0.0162843
0.00997207
-0.0150004
0.00974247
-0.0121156
0.010276
-0.00773824
0.0112778
-0.00262025
0.0125373
0.00250538
0.013911
0.00714502
0.0152607
0.0109454
0.016469
0.0137695
0.0174374
0.0156573
0.0180868
0.0168518
0.0183825
0.0176463
0.0183601
0.0182872
0.0181131
0.0187254
0.0177641
0.0185732
0.0173087
0.0177161
0.0168338
0.0149414
0.0161277
0.0128008
0.00562033
0.0249682
0.000130623
0.0248693
0.00040597
0.0247059
0.000698788
0.0244611
0.00106199
0.0241456
0.00146845
0.0237077
0.00204997
0.0232039
0.00265845
0.0224649
0.00372984
0.0217232
0.00461988
0.0203405
0.00701043
0.0188815
0.00820524
0.0150766
0.0152731
0.00832177
0.0148903
0.00416859
0.0107972
0.00195333
0.00776273
0.000910389
0.00515355
0.000462991
0.00302926
0.000248875
0.00154851
9.63767e-05
0.000578705
2.66402e-05
-0.000238355
0.000234401
-0.000355782
0.000857555
0.000298456
0.00163115
0.00100147
0.00249935
0.00191289
0.00349715
0.00311671
0.00469508
0.0045593
0.00616855
0.00607826
0.00796869
0.00744428
0.0100848
0.00837548
0.0124231
0.0085748
0.0148304
0.00783286
0.01712
0.00610293
0.0191486
0.003487
0.0209567
0.000100174
0.0225018
-0.0040253
0.0238433
-0.00864877
0.0248298
-0.0132792
0.0252618
-0.0171872
0.025029
-0.0197631
0.0241705
-0.020799
0.022825
-0.0205232
0.0212173
-0.0194191
0.0195432
-0.0178426
0.017677
-0.0160388
0.0153627
-0.0145578
0.0128629
-0.0137846
0.0109286
-0.0130661
0.0100363
-0.0112233
0.0101067
-0.00780857
0.0108334
-0.00334702
0.0119634
0.00137538
0.0133147
0.00579374
0.0147266
0.00953352
0.0160551
0.012441
0.0171784
0.0145339
0.0180103
0.0160199
0.0185265
0.01713
0.0187775
0.0180362
0.0188445
0.0186585
0.0188344
0.0185832
0.0186795
0.017871
0.018456
0.0151649
0.0179191
0.0133376
0.0065679
0.0249773
0.000153331
0.0249055
0.0004778
0.0247898
0.000814491
0.0246182
0.00123353
0.024406
0.00168071
0.0241231
0.00233279
0.0238121
0.00296948
0.0234189
0.00412308
0.0230054
0.00503338
0.0227249
0.0072909
0.0223845
0.00854566
0.0254884
0.0121692
0.0257087
0.01467
0.0223247
0.0141812
0.018387
0.0117004
0.0145387
0.00900191
0.0110658
0.00650216
0.00819604
0.00441823
0.00593711
0.00283764
0.00416236
0.00153639
0.0031395
0.000667087
0.00310676
0.000331191
0.00374338
0.000364848
0.00478754
0.00086873
0.00612856
0.0017757
0.0077596
0.00292826
0.00968972
0.00414814
0.0119036
0.00523043
0.0143398
0.00593929
0.0168834
0.00603122
0.0193894
0.0053268
0.0217595
0.00373282
0.0239321
0.00131441
0.0259259
-0.00189364
0.0276991
-0.00579846
0.0290846
-0.0100342
0.0298199
-0.0140145
0.0297157
-0.017083
0.0287779
-0.0188254
0.0272132
-0.0192343
0.0252949
-0.0186048
0.0232469
-0.0173711
0.0212792
-0.0158749
0.0194178
-0.0141774
0.0173363
-0.0124763
0.0148543
-0.0113026
0.0124774
-0.0106892
0.0109427
-0.00968856
0.0105099
-0.00737573
0.0109427
-0.00377979
0.0119146
0.000403416
0.0131973
0.00451103
0.0146099
0.00812099
0.0159939
0.011057
0.0172194
0.0133084
0.0182041
0.0150352
0.0189356
0.0163985
0.0194717
0.0175002
0.0198695
0.0182607
0.0202177
0.018235
0.020398
0.0176908
0.0204643
0.0150986
0.0201804
0.0136215
0.00737063
0.0249861
0.000167275
0.0249442
0.000519622
0.0248757
0.000883062
0.0247845
0.00132471
0.0246695
0.00179572
0.0245556
0.00244668
0.0244183
0.00310676
0.0243955
0.00414584
0.024335
0.00509393
0.0249389
0.00668696
0.0254547
0.0080299
0.0280021
0.00962186
0.030615
0.012057
0.0317448
0.0130513
0.0312448
0.0122005
0.0296799
0.0105668
0.0274565
0.00872557
0.0249429
0.00693187
0.0224362
0.0053443
0.0199684
0.00400417
0.0176404
0.00299513
0.0156313
0.00234025
0.0140699
0.00192623
0.013142
0.00179668
0.0129619
0.00195574
0.0135416
0.00234862
0.014814
0.00287574
0.0166612
0.00338325
0.0189308
0.0036696