/*--------------------------------*- C++ -*----------------------------------*\
  =========                 |
  \\      /  F ield         | OpenFOAM: The Open Source CFD Toolbox
   \\    /   O peration     | Website:  https://openfoam.org
    \\  /    A nd           | Version:  10
     \\/     M anipulation  |
\*---------------------------------------------------------------------------*/
FoamFile
{
    format      ascii;
    class       surfaceScalarField;
    location    "0.05";
    object      phi;
}
// * * * * * * * * * * * * * * * * * * * * * * * * * * * * * * * * * * * * * //

dimensions      [0 3 -1 0 0 0 0];

internalField   nonuniform List<scalar> 
24170
(
2.55174e-09
-2.55174e-09
4.65719e-09
-2.10544e-09
6.09911e-09
-1.44192e-09
6.9601e-09
-8.60998e-10
7.42084e-09
-4.60735e-10
7.64557e-09
-2.24729e-10
7.74914e-09
-1.03572e-10
7.80242e-09
-5.32784e-11
7.84704e-09
-4.4623e-11
7.90824e-09
-6.12038e-11
8.00387e-09
-9.56206e-11
8.1508e-09
-1.46934e-10
8.3711e-09
-2.20299e-10
8.70112e-09
-3.30021e-10
9.2121e-09
-5.10979e-10
1.00727e-08
-8.60591e-10
1.18089e-08
-1.73618e-09
-5.04871e-09
1.68576e-08
2.75138e-09
-5.30312e-09
5.02155e-09
-4.37562e-09
6.56636e-09
-2.98673e-09
7.48203e-09
-1.77667e-09
7.9679e-09
-9.46602e-10
8.20239e-09
-4.59225e-10
8.30893e-09
-2.10107e-10
8.36298e-09
-1.07329e-10
8.40856e-09
-9.02075e-11
8.47217e-09
-1.24812e-10
8.57236e-09
-1.95814e-10
8.72651e-09
-3.01076e-10
8.95682e-09
-4.50614e-10
9.2988e-09
-6.71995e-10
9.81779e-09
-1.02998e-09
1.06476e-08
-1.69039e-09
1.20594e-08
-3.14803e-09
-7.05837e-09
1.40691e-08
2.98821e-09
-8.29134e-09
5.45441e-09
-6.84181e-09
7.10826e-09
-4.64058e-09
8.07236e-09
-2.74077e-09
8.57404e-09
-1.44828e-09
8.81019e-09
-6.95372e-10
8.91375e-09
-3.13674e-10
8.96447e-09
-1.58041e-10
9.00804e-09
-1.33779e-10
9.07154e-09
-1.88313e-10
9.17357e-09
-2.97848e-10
9.33105e-09
-4.58549e-10
9.56465e-09
-6.84221e-10
9.9051e-09
-1.01244e-09
1.04016e-08
-1.52648e-09
1.11268e-08
-2.41554e-09
1.21066e-08
-4.12784e-09
-7.62172e-09
1.26699e-08
3.27334e-09
-1.15647e-08
5.97804e-09
-9.54652e-09
7.74595e-09
-6.40848e-09
8.7472e-09
-3.74202e-09
9.25028e-09
-1.95136e-09
9.47614e-09
-9.21236e-10
9.56827e-09
-4.05806e-10
9.60988e-09
-1.99652e-10
9.64731e-09
-1.71208e-10
9.70723e-09
-2.4823e-10
9.80735e-09
-3.97965e-10
9.96297e-09
-6.14169e-10
1.01914e-08
-9.1263e-10
1.05149e-08
-1.33597e-09
1.09602e-08
-1.97175e-09
1.1537e-08
-2.9924e-09
1.21233e-08
-4.71408e-09
-7.53106e-09
1.20326e-08
3.62121e-09
-1.51859e-08
6.62416e-09
-1.25495e-08
8.50783e-09
-8.29214e-09
9.52713e-09
-4.76132e-09
1.001e-08
-2.43419e-09
1.02085e-08
-1.11978e-09
1.02775e-08
-4.74813e-10
1.03022e-08
-2.24393e-10
1.0328e-08
-1.97009e-10
1.03798e-08
-2.99995e-10
1.04732e-08
-4.91332e-10
1.06206e-08
-7.61547e-10
1.08341e-08
-1.12613e-09
1.11252e-08
-1.62713e-09
1.14969e-08
-2.34345e-09
1.1911e-08
-3.4065e-09
1.21893e-08
-4.99235e-09
-7.16506e-09
1.18233e-08
4.05032e-09
-1.92362e-08
7.43932e-09
-1.59385e-08
9.43244e-09
-1.02853e-08
1.04384e-08
-5.76732e-09
1.0869e-08
-2.86475e-09
1.10164e-08
-1.2672e-09
1.10466e-08
-5.05018e-10
1.10444e-08
-2.22155e-10
1.10516e-08
-2.04199e-10
1.10895e-08
-3.37909e-10
1.11703e-08
-5.72097e-10
1.13021e-08
-8.93364e-10
1.14906e-08
-1.31461e-09
1.17357e-08
-1.87225e-09
1.20201e-08
-2.62786e-09
1.22781e-08
-3.66453e-09
1.23351e-08
-5.0493e-09
-6.69716e-09
1.18672e-08
4.58323e-09
-2.38194e-08
8.49446e-09
-1.98497e-08
1.05724e-08
-1.23632e-08
1.15145e-08
-6.70937e-09
1.18459e-08
-3.1962e-09
1.19096e-08
-1.33084e-09
1.18805e-08
-4.75982e-10
1.18386e-08
-1.80263e-10
1.18187e-08
-1.84281e-10
1.1836e-08
-3.55218e-10
1.18975e-08
-6.33588e-10
1.2006e-08
-1.00182e-09
1.21598e-08
-1.46846e-09
1.23484e-08
-2.06089e-09
1.25404e-08
-2.81982e-09
1.26611e-08
-3.78524e-09
1.25674e-08
-4.95558e-09
-6.20302e-09
1.20733e-08
5.24417e-09
-2.90636e-08
9.90298e-09
-2.45085e-08
1.19994e-08
-1.44596e-08
1.27968e-08
-7.5068e-09
1.2961e-08
-3.36041e-09
1.28969e-08
-1.26677e-09
1.27829e-08
-3.61929e-10
1.26861e-08
-8.3532e-11
1.26293e-08
-1.27458e-10
1.26185e-08
-3.44386e-10
1.26536e-08
-6.68689e-10
1.2731e-08
-1.07923e-09
1.2842e-08
-1.57946e-09
1.29676e-08
-2.18648e-09
1.30691e-08
-2.92129e-09
1.30759e-08
-3.79205e-09
1.28832e-08
-4.76294e-09
-5.71349e-09
1.23937e-08
6.04923e-09
-3.51128e-08
1.18572e-08
-3.03164e-08
1.38088e-08
-1.64113e-08
1.4336e-08
-8.03397e-09
1.42343e-08
-3.25872e-09
1.39849e-08
-1.01731e-09
1.37547e-08
-1.31813e-10
1.35861e-08
8.51099e-11
1.34819e-08
-2.32586e-11
1.34352e-08
-2.97654e-10
1.34369e-08
-6.70417e-10
1.34764e-08
-1.11872e-09
1.35384e-08
-1.6415e-09
1.35984e-08
-2.24648e-09
1.36163e-08
-2.93913e-09
1.35324e-08
-3.70821e-09
1.32764e-08
-4.50694e-09
-5.23967e-09
1.28026e-08
5.98576e-09
-4.10986e-08
1.47034e-08
-3.90341e-08
1.61193e-08
-1.78272e-08
1.61907e-08
-8.10537e-09
1.56806e-08
-2.74864e-09
1.5173e-08
-5.09673e-10
1.47921e-08
2.49067e-10
1.45343e-08
3.4293e-10
1.43728e-08
1.38188e-10
1.42831e-08
-2.07989e-10
1.42454e-08
-6.32717e-10
1.42416e-08
-1.11492e-09
1.42512e-08
-1.65103e-09
1.42466e-08
-2.24194e-09
1.41906e-08
-2.88308e-09
1.40367e-08
-3.55433e-09
1.37409e-08
-4.21112e-09
-4.78442e-09
1.32856e-08
6.34907e-09
-4.74477e-08
1.03531e-08
-4.30381e-08
1.9042e-08
-2.65161e-08
1.84244e-08
-7.4878e-09
1.7298e-08
-1.62215e-09
1.64471e-08
3.41218e-10
1.5882e-08
8.14135e-10
1.55211e-08
7.03859e-10
1.52953e-08
3.63908e-10
1.51579e-08
-7.05346e-11
1.50766e-08
-5.51479e-10
1.50264e-08
-1.06468e-09
1.49826e-08
-1.60725e-09
1.49175e-08
-2.17676e-09
1.47984e-08
-2.76403e-09
1.45916e-08
-3.3475e-09
1.42713e-08
-3.8908e-09
-4.34736e-09
1.38342e-08
6.2352e-09
-5.36829e-08
7.21876e-09
-4.40216e-08
1.64071e-08
-3.57045e-08
1.76359e-08
-8.71656e-09
1.5961e-08
5.27675e-11
1.49147e-08
1.3875e-09
1.42793e-08
1.4495e-09
1.38917e-08
1.09151e-09
1.36509e-08
6.04656e-10
1.34974e-08
8.29492e-11
1.33945e-08
-4.48542e-10
1.33161e-08
-9.8623e-10
1.32396e-08
-1.53076e-09
1.31425e-08
-2.07969e-09
1.30018e-08
-2.62336e-09
1.27968e-08
-3.14251e-09
1.2515e-08
-3.60897e-09
-3.99097e-09
1.21586e-08
8.85857e-09
-6.25414e-08
1.18567e-08
-4.70197e-08
8.30695e-09
-3.21547e-08
2.31415e-08
-2.35511e-08
1.98069e-08
3.3873e-09
1.82146e-08
2.97985e-09
1.73141e-08
2.34995e-09
1.67858e-08
1.61983e-09
1.646e-08
9.30452e-10
1.62455e-08
2.97463e-10
1.60906e-08
-2.93659e-10
1.59617e-08
-8.57293e-10
1.58323e-08
-1.40135e-09
1.56788e-08
-1.92619e-09
1.54799e-08
-2.42447e-09
1.52191e-08
-2.88177e-09
1.48891e-08
-3.27896e-09
-3.59696e-09
1.44951e-08
1.41787e-08
-7.67201e-08
1.80204e-08
-5.08614e-08
1.83051e-08
-3.24395e-08
2.23026e-08
-2.75485e-08
2.40374e-08
1.6525e-09
2.1988e-08
5.02923e-09
2.08145e-08
3.52343e-09
2.01515e-08
2.28289e-09
1.97435e-08
1.33843e-09
1.94644e-08
5.76566e-10
1.92492e-08
-7.85031e-11
1.9059e-08
-6.67042e-10
1.88655e-08
-1.20785e-09
1.8646e-08
-1.70671e-09
1.83825e-08
-2.16094e-09
1.80631e-08
-2.56241e-09
1.76849e-08
-2.90073e-09
-3.16667e-09
1.72546e-08
2.63526e-08
-1.03073e-07
2.91811e-08
-5.36899e-08
2.58759e-08
-2.91343e-08
1.55387e-08
-1.72113e-08
2.94759e-08
-1.22847e-08
2.59845e-08
8.52056e-09
2.46242e-08
4.88381e-09
2.39344e-08
2.97264e-09
2.34996e-08
1.77319e-09
2.31776e-08
8.98631e-10
2.29067e-08
1.92398e-10
2.26521e-08
-4.12477e-10
2.23895e-08
-9.45188e-10
2.21e-08
-1.4173e-09
2.17705e-08
-1.83144e-09
2.13939e-08
-2.18577e-09
2.09703e-08
-2.47713e-09
-2.70337e-09
2.0507e-08
5.99822e-08
-1.63055e-07
5.11845e-08
-4.48922e-08
3.92573e-08
-1.72071e-08
2.99353e-08
-7.88934e-09
2.93156e-08
-1.1665e-08
2.8597e-08
9.23918e-09
2.82803e-08
5.20047e-09
2.79897e-08
3.26332e-09
2.76888e-08
2.07403e-09
2.73873e-08
1.20017e-09
2.7086e-08
4.93672e-10
2.67776e-08
-1.04033e-10
2.64513e-08
-6.18899e-10
2.60971e-08
-1.06307e-09
2.57078e-08
-1.44219e-09
2.5281e-08
-1.75897e-09
2.48191e-08
-2.01525e-09
-2.21337e-09
2.43291e-08
1.82693e-07
1.54242e-07
9.37899e-08
4.4011e-08
6.02338e-08
1.6349e-08
4.48533e-08
7.49111e-09
2.18814e-08
1.1307e-08
2.96332e-08
1.48734e-09
3.18732e-08
2.96051e-09
3.23919e-08
2.7446e-09
3.23527e-08
2.11324e-09
3.21205e-08
1.43231e-09
3.18137e-08
8.00505e-10
3.14687e-08
2.40995e-10
3.10942e-08
-2.44412e-10
3.06905e-08
-6.59407e-10
3.0257e-08
-1.00864e-09
2.97947e-08
-1.29671e-09
2.93076e-08
-1.52817e-09
-1.70776e-09
2.8802e-08
7.31403e-08
8.11018e-08
6.77736e-08
4.93777e-08
5.48303e-08
2.92923e-08
4.20514e-08
2.02699e-08
4.20745e-08
1.12839e-08
3.9438e-08
4.1238e-09
3.86356e-08
3.76291e-09
3.82211e-08
3.15911e-09
3.78691e-08
2.46529e-09
3.75153e-08
1.78608e-09
3.71476e-08
1.16817e-09
3.67621e-08
6.26514e-10
3.63558e-08
1.61929e-10
3.59266e-08
-2.30284e-10
3.54745e-08
-5.56535e-10
3.50013e-08
-8.235e-10
3.45108e-08
-1.03765e-09
-1.20515e-09
3.40082e-08
3.39271e-08
4.71747e-08
4.13003e-08
4.20044e-08
4.83396e-08
2.22531e-08
5.10464e-08
1.75631e-08
5.11041e-08
1.12263e-08
4.74772e-08
7.75071e-09
4.55913e-08
5.64872e-09
4.45468e-08
4.20367e-09
4.38927e-08
3.11943e-09
4.34134e-08
2.26535e-09
4.30056e-08
1.57597e-09
4.26188e-08
1.01327e-09
4.22285e-08
5.52226e-10
4.18235e-08
1.74783e-10
4.13998e-08
-1.32828e-10
4.09578e-08
-3.81562e-10
4.05006e-08
-5.80411e-10
-7.3694e-10
4.00324e-08
2.1757e-08
2.54177e-08
3.31576e-08
3.06037e-08
3.10535e-08
2.43572e-08
3.18703e-08
1.67463e-08
3.14634e-08
1.16332e-08
3.09349e-08
8.27925e-09
3.05551e-08
6.02851e-09
3.03114e-08
4.4473e-09
3.01459e-08
3.28491e-09
3.00121e-08
2.39918e-09
2.98811e-08
1.70701e-09
2.97371e-08
1.15719e-09
2.95731e-08
7.16255e-10
2.93868e-08
3.61097e-10
2.9179e-08
7.49922e-11
2.89521e-08
-1.54677e-10
2.87094e-08
-3.37754e-10
-4.82129e-10
2.84546e-08
4.84609e-09
2.05716e-08
1.34466e-08
2.20032e-08
1.94371e-08
1.83667e-08
2.22048e-08
1.39786e-08
2.34826e-08
1.03554e-08
2.41128e-08
7.64901e-09
2.44656e-08
5.67568e-09
2.46866e-08
4.22637e-09
2.48295e-08
3.142e-09
2.49145e-08
2.31419e-09
2.49504e-08
1.67109e-09
2.49429e-08
1.16472e-09
2.48968e-08
7.62296e-10
2.48172e-08
4.40758e-10
2.47088e-08
1.83365e-10
2.45765e-08
-2.23928e-11
2.44249e-08
-1.86125e-10
-3.15391e-10
2.42581e-08
3.82511e-09
1.67465e-08
9.48332e-09
1.6345e-08
1.37388e-08
1.41112e-08
1.64348e-08
1.12826e-08
1.80926e-08
8.69765e-09
1.91366e-08
6.60499e-09
1.98234e-08
4.98893e-09
2.02923e-08
3.75741e-09
2.06178e-08
2.81655e-09
2.08407e-08
2.09127e-09
2.09855e-08
1.52625e-09
2.10684e-08
1.08185e-09
2.1101e-08
7.29682e-10
2.10926e-08
4.49237e-10
2.10505e-08
2.25407e-10
2.09813e-08
4.68517e-11
2.08903e-08
-9.51218e-11
-2.07307e-10
2.07822e-08
3.47991e-09
1.32666e-08
7.29421e-09
1.25307e-08
1.04657e-08
1.09398e-08
1.27792e-08
8.9691e-09
1.43948e-08
7.08208e-09
1.55197e-08
5.48006e-09
1.63133e-08
4.19532e-09
1.6881e-08
3.18978e-09
1.72892e-08
2.40829e-09
1.75806e-08
1.79991e-09
1.77831e-08
1.32371e-09
1.79164e-08
9.48577e-10
1.79947e-08
6.51386e-10
1.80289e-08
4.14976e-10
1.80278e-08
2.26523e-10
1.79984e-08
7.63262e-11
1.79463e-08
-4.30689e-11
-1.37479e-10
1.78765e-08
2.94196e-09
1.03247e-08
5.84737e-09
9.62529e-09
8.34389e-09
8.44323e-09
1.02954e-08
7.01756e-09
1.17548e-08
5.62271e-09
1.28299e-08
4.40496e-09
1.36209e-08
3.40436e-09
1.42039e-08
2.6067e-09
1.46333e-08
1.97891e-09
1.49469e-08
1.4863e-09
1.51716e-08
1.099e-09
1.5327e-08
7.9326e-10
1.54274e-08
5.50894e-10
1.54843e-08
3.58121e-10
1.55063e-08
2.04518e-10
1.55005e-08
8.21367e-11
1.54726e-08
-1.5147e-11
-9.21164e-11
1.54272e-08
2.46875e-09
7.85591e-09
4.81182e-09
7.28222e-09
6.85125e-09
6.4038e-09
8.50437e-09
5.36444e-09
9.79003e-09
4.33705e-09
1.07699e-08
3.42511e-09
1.15101e-08
2.66411e-09
1.20668e-08
2.04999e-09
1.24834e-08
1.56239e-09
1.27921e-08
1.17757e-09
1.30171e-08
8.7396e-10
1.31765e-08
6.33847e-10
1.32841e-08
4.43352e-10
1.33504e-08
2.91807e-10
1.33838e-08
1.71063e-10
1.33911e-08
7.48705e-11
1.33776e-08
-1.60236e-12
-6.21321e-11
1.33476e-08
2.08577e-09
5.77014e-09
4.03339e-09
5.3346e-09
5.73929e-09
4.6979e-09
7.15008e-09
3.95365e-09
8.27294e-09
3.21418e-09
9.14674e-09
2.55131e-09
9.81807e-09
1.99278e-09
1.03296e-08
1.53847e-09
1.07163e-08
1.17565e-09
1.10057e-08
8.88174e-10
1.12189e-08
6.60803e-10
1.1372e-08
4.80736e-10
1.14776e-08
3.37781e-10
1.15453e-08
2.24028e-10
1.1583e-08
1.3339e-10
1.15967e-08
6.11824e-11
1.15913e-08
3.7712e-12
-4.16845e-11
1.15709e-08
1.77786e-09
3.99228e-09
3.42628e-09
3.68618e-09
4.87518e-09
3.24901e-09
6.08715e-09
2.74168e-09
7.06505e-09
2.23628e-09
7.83575e-09
1.78062e-09
8.4341e-09
1.39442e-09
8.8938e-09
1.07876e-09
9.24371e-09
8.25746e-10
9.50712e-09
6.24763e-10
9.70237e-09
4.65545e-10
9.84378e-09
3.39333e-10
9.94247e-09
2.39085e-10
1.00072e-08
1.59299e-10
1.00449e-08
9.57229e-11
1.0061e-08
4.50715e-11
1.006e-08
4.79644e-12
-2.7098e-11
1.00454e-08
1.52717e-09
2.46512e-09
2.93867e-09
2.27468e-09
4.1818e-09
2.00587e-09
5.22831e-09
1.69518e-09
6.07934e-09
1.38524e-09
6.75503e-09
1.10493e-09
7.28288e-09
8.66573e-10
7.69044e-09
6.71204e-10
8.0019e-09
5.14278e-10
8.23722e-09
3.89442e-10
8.41232e-09
2.90453e-10
8.53971e-09
2.1194e-10
8.62923e-09
1.49561e-10
8.68863e-09
9.99072e-11
8.72401e-09
6.03392e-11
8.74027e-09
2.88147e-11
8.74132e-09
3.74678e-12
-1.61072e-11
8.73033e-09
1.31971e-09
1.14541e-09
2.53775e-09
1.05663e-09
3.61164e-09
9.31978e-10
4.51865e-09
7.88172e-10
5.25926e-09
6.44631e-10
5.84958e-09
5.14617e-10
6.31226e-09
4.03889e-10
6.67045e-09
3.13011e-10
6.94479e-09
2.39942e-10
7.15246e-09
1.81774e-10
7.30728e-09
1.35628e-10
7.42021e-09
9.90179e-11
7.49984e-09
6.99262e-11
7.55298e-09
4.67679e-11
7.58501e-09
2.83129e-11
7.60021e-09
1.36093e-11
7.60204e-09
1.91686e-12
-7.34426e-12
7.59328e-09
1.14541e-09
2.20204e-09
3.13402e-09
3.92219e-09
4.56682e-09
5.08144e-09
5.48533e-09
5.79834e-09
6.03828e-09
6.22006e-09
6.35568e-09
6.4547e-09
6.52463e-09
6.5714e-09
6.59971e-09
6.61332e-09
6.61524e-09
6.60789e-09
2.44034e-10
-2.44034e-10
4.89454e-10
-2.45421e-10
7.35962e-10
-2.46508e-10
9.83248e-10
-2.47286e-10
1.23099e-09
-2.47745e-10
1.47887e-09
-2.47881e-10
1.72656e-09
-2.47687e-10
1.97372e-09
-2.47163e-10
2.22003e-09
-2.46308e-10
2.46516e-09
-2.45123e-10
2.70877e-09
-2.43614e-10
2.95056e-09
-2.41786e-10
3.1902e-09
-2.39648e-10
3.42741e-09
-2.37209e-10
3.66189e-09
-2.34481e-10
3.89337e-09
-2.31478e-10
4.12158e-09
-2.28214e-10
4.34629e-09
-2.24705e-10
4.56726e-09
-2.20969e-10
4.78428e-09
-2.17022e-10
4.99717e-09
-2.12885e-10
5.20574e-09
-2.08573e-10
5.40985e-09
-2.04108e-10
5.60936e-09
-1.99508e-10
5.80415e-09
-1.94792e-10
5.99413e-09
-1.89977e-10
6.17921e-09
-1.85083e-10
6.35933e-09
-1.80126e-10
6.53446e-09
-1.75123e-10
6.70455e-09
-1.7009e-10
6.86959e-09
-1.65042e-10
7.02958e-09
-1.59993e-10
7.18454e-09
-1.54956e-10
7.33448e-09
-1.49944e-10
7.47945e-09
-1.44968e-10
7.61949e-09
-1.40038e-10
7.75465e-09
-1.35164e-10
7.88501e-09
-1.30353e-10
8.01062e-09
-1.25614e-10
8.13157e-09
-1.20953e-10
8.24795e-09
-1.16376e-10
8.35984e-09
-1.11887e-10
8.46733e-09
-1.07491e-10
8.57052e-09
-1.03193e-10
8.66951e-09
-9.89932e-11
8.76441e-09
-9.48958e-11
8.85531e-09
-9.09021e-11
8.94232e-09
-8.70133e-11
9.02555e-09
-8.32301e-11
9.10511e-09
-7.95532e-11
9.18109e-09
-7.59824e-11
9.25361e-09
-7.25174e-11
9.32276e-09
-6.91576e-11
9.38867e-09
-6.59022e-11
9.45142e-09
-6.27499e-11
9.51112e-09
-5.96993e-11
9.56787e-09
-5.67494e-11
9.62176e-09
-5.38979e-11
9.67291e-09
-5.11434e-11
9.72139e-09
-4.84839e-11
9.76731e-09
-4.59174e-11
9.81075e-09
-4.34419e-11
9.85181e-09
-4.10552e-11
9.89056e-09
-3.87551e-11
9.9271e-09
-3.65395e-11
9.96151e-09
-3.44061e-11
9.99386e-09
-3.23527e-11
1.00242e-08
-3.0377e-11
1.00527e-08
-2.84769e-11
1.00794e-08
-2.66499e-11
1.01043e-08
-2.48942e-11
1.01275e-08
-2.32073e-11
1.01491e-08
-2.15871e-11
1.01691e-08
-2.00315e-11
1.01876e-08
-1.85383e-11
1.02047e-08
-1.71056e-11
1.02205e-08
-1.57312e-11
1.02349e-08
-1.44133e-11
1.0248e-08
-1.31497e-11
1.026e-08
-1.19386e-11
1.02707e-08
-1.07782e-11
1.02804e-08
-9.66643e-12
1.0289e-08
-8.60183e-12
1.02966e-08
-7.58243e-12
1.03032e-08
-6.60663e-12
1.03089e-08
-5.67259e-12
1.03136e-08
-4.77898e-12
1.03176e-08
-3.92394e-12
1.03207e-08
-3.10614e-12
1.0323e-08
-2.32409e-12
1.03246e-08
-1.57615e-12
1.03254e-08
-8.61134e-13
1.03256e-08
-1.77471e-13
1.03251e-08
4.75862e-13
1.0324e-08
1.10053e-12
1.03223e-08
1.69749e-12
1.03201e-08
2.26793e-12
1.03173e-08
2.81331e-12
1.03139e-08
3.33446e-12
1.03101e-08
3.83266e-12
1.03058e-08
4.30878e-12
1.0301e-08
4.76412e-12
1.02958e-08
5.19927e-12
1.02902e-08
5.61567e-12
1.02842e-08
6.01374e-12
1.02778e-08
6.39476e-12
1.0271e-08
6.75937e-12
1.02639e-08
7.1085e-12
1.02565e-08
7.44283e-12
1.02487e-08
7.76322e-12
1.02407e-08
8.07039e-12
1.02323e-08
8.36506e-12
1.02236e-08
8.64778e-12
1.02147e-08
8.9193e-12
1.02055e-08
9.18024e-12
1.01961e-08
9.4313e-12
1.01864e-08
9.67274e-12
1.01765e-08
9.90561e-12
1.01664e-08
1.01298e-11
1.01561e-08
1.03465e-11
1.01455e-08
1.05556e-11
1.01347e-08
1.07579e-11
1.01238e-08
1.09537e-11
1.01126e-08
1.11436e-11
1.01013e-08
1.13278e-11
1.00898e-08
1.15066e-11
1.00781e-08
1.16808e-11
1.00663e-08
1.18502e-11
1.00543e-08
1.20155e-11
1.00421e-08
1.2177e-11
1.00298e-08
1.23348e-11
1.00173e-08
1.24894e-11
1.00046e-08
1.26409e-11
9.99183e-09
1.27897e-11
9.97889e-09
1.29359e-11
9.96581e-09
1.30801e-11
9.95259e-09
1.32219e-11
9.93923e-09
1.33623e-11
9.92573e-09
1.3501e-11
9.91209e-09
1.36383e-11
9.89832e-09
1.37746e-11
9.88441e-09
1.39099e-11
9.87036e-09
1.40447e-11
9.85618e-09
1.41791e-11
9.84187e-09
1.43135e-11
9.82742e-09
1.44479e-11
9.81284e-09
1.45829e-11
9.79812e-09
1.47188e-11
9.78326e-09
1.48561e-11
9.76827e-09
1.49953e-11
9.75313e-09
1.51369e-11
9.73785e-09
1.52819e-11
9.72242e-09
1.54313e-11
9.70683e-09
1.55859e-11
9.69108e-09
1.57476e-11
9.67517e-09
1.5918e-11
9.65907e-09
1.60997e-11
9.64277e-09
1.62956e-11
9.62626e-09
1.65096e-11
9.60952e-09
1.67467e-11
9.5925e-09
1.70134e-11
9.57518e-09
1.73179e-11
9.55751e-09
1.76712e-11
9.53943e-09
1.80876e-11
9.52084e-09
1.8586e-11
9.50165e-09
1.91917e-11
9.48171e-09
1.99382e-11
9.46084e-09
2.08718e-11
9.43878e-09
2.20559e-11
9.4152e-09
2.35796e-11
9.38963e-09
2.55712e-11
9.36141e-09
2.822e-11
9.32959e-09
3.18163e-11
9.29277e-09
3.68267e-11
9.24872e-09
4.40488e-11
9.19375e-09
5.49658e-11
9.12107e-09
7.26801e-11
9.01618e-09
1.04897e-10
8.83982e-09
1.76352e-10
4.01173e-10
8.43865e-09
2.45378e-10
-4.89412e-10
4.92141e-10
-4.92184e-10
7.39983e-10
-4.94349e-10
9.88584e-10
-4.95887e-10
1.23762e-09
-4.96779e-10
1.48675e-09
-4.97015e-10
1.73565e-09
-4.96586e-10
1.98398e-09
-4.95487e-10
2.23139e-09
-4.9372e-10
2.47755e-09
-4.91288e-10
2.72214e-09
-4.882e-10
2.96482e-09
-4.8447e-10
3.20529e-09
-4.80115e-10
3.44324e-09
-4.75156e-10
3.67837e-09
-4.69617e-10
3.91042e-09
-4.63527e-10
4.13912e-09
-4.56914e-10
4.36423e-09
-4.49813e-10
4.58552e-09
-4.42258e-10
4.80278e-09
-4.34285e-10
5.01583e-09
-4.25931e-10
5.22449e-09
-4.17235e-10
5.42861e-09
-4.08234e-10
5.62807e-09
-3.98967e-10
5.82275e-09
-3.89473e-10
6.01256e-09
-3.79787e-10
6.19743e-09
-3.69946e-10
6.37728e-09
-3.59984e-10
6.5521e-09
-3.49936e-10
6.72184e-09
-3.39833e-10
6.8865e-09
-3.29704e-10
7.04609e-09
-3.19579e-10
7.20061e-09
-3.09482e-10
7.35011e-09
-2.99439e-10
7.49461e-09
-2.89471e-10
7.63417e-09
-2.796e-10
7.76885e-09
-2.69842e-10
7.89871e-09
-2.60216e-10
8.02384e-09
-2.50735e-10
8.1443e-09
-2.41413e-10
8.26018e-09
-2.3226e-10
8.37158e-09
-2.23287e-10
8.47859e-09
-2.14503e-10
8.58131e-09
-2.05913e-10
8.67984e-09
-1.97523e-10
8.77428e-09
-1.89338e-10
8.86474e-09
-1.81362e-10
8.95133e-09
-1.73596e-10
9.03414e-09
-1.66042e-10
9.11329e-09
-1.58701e-10
9.18888e-09
-1.51572e-10
9.26101e-09
-1.44656e-10
9.32981e-09
-1.3795e-10
9.39536e-09
-1.31452e-10
9.45777e-09
-1.25161e-10
9.51714e-09
-1.19074e-10
9.57358e-09
-1.13187e-10
9.62718e-09
-1.07497e-10
9.67804e-09
-1.02001e-10
9.72625e-09
-9.66943e-11
9.7719e-09
-9.15736e-11
9.8151e-09
-8.66344e-11
9.85591e-09
-8.18724e-11
9.89444e-09
-7.72834e-11
9.93076e-09
-7.28629e-11
9.96496e-09
-6.86065e-11
9.99712e-09
-6.45097e-11
1.00273e-08
-6.05681e-11
1.00556e-08
-5.6777e-11
1.00821e-08
-5.31323e-11
1.01068e-08
-4.96292e-11
1.01299e-08
-4.62636e-11
1.01513e-08
-4.30311e-11
1.01712e-08
-3.99273e-11
1.01896e-08
-3.69483e-11
1.02066e-08
-3.40897e-11
1.02222e-08
-3.13475e-11
1.02365e-08
-2.87177e-11
1.02496e-08
-2.61966e-11
1.02614e-08
-2.378e-11
1.02721e-08
-2.14646e-11
1.02817e-08
-1.92464e-11
1.02902e-08
-1.7122e-11
1.02977e-08
-1.50878e-11
1.03043e-08
-1.31405e-11
1.03099e-08
-1.12767e-11
1.03146e-08
-9.4935e-12
1.03184e-08
-7.78719e-12
1.03215e-08
-6.15526e-12
1.03238e-08
-4.59437e-12
1.03253e-08
-3.10182e-12
1.03261e-08
-1.67472e-12
1.03262e-08
-3.10476e-13
1.03257e-08
9.93656e-13
1.03246e-08
2.24022e-12
1.03228e-08
3.43169e-12
1.03205e-08
4.57056e-12
1.03177e-08
5.65885e-12
1.03143e-08
6.69929e-12
1.03105e-08
7.69357e-12
1.03061e-08
8.64418e-12
1.03013e-08
9.55284e-12
1.02961e-08
1.04218e-11
1.02905e-08
1.12529e-11
1.02844e-08
1.20478e-11
1.0278e-08
1.28084e-11
1.02713e-08
1.35363e-11
1.02641e-08
1.42334e-11
1.02567e-08
1.49009e-11
1.02489e-08
1.55407e-11
1.02408e-08
1.6154e-11
1.02324e-08
1.67423e-11
1.02238e-08
1.73069e-11
1.02148e-08
1.78493e-11
1.02057e-08
1.83703e-11
1.01962e-08
1.88716e-11
1.01865e-08
1.93541e-11
1.01766e-08
1.98189e-11
1.01665e-08
2.0267e-11
1.01561e-08
2.06996e-11
1.01456e-08
2.11174e-11
1.01348e-08
2.15216e-11
1.01238e-08
2.19128e-11
1.01127e-08
2.22919e-11
1.01014e-08
2.266e-11
1.00899e-08
2.30175e-11
1.00782e-08
2.33652e-11
1.00663e-08
2.37039e-11
1.00543e-08
2.40343e-11
1.00421e-08
2.43569e-11
1.00298e-08
2.46723e-11
1.00173e-08
2.49812e-11
1.00046e-08
2.5284e-11
9.99185e-09
2.55814e-11
9.97891e-09
2.58739e-11
9.96583e-09
2.61616e-11
9.95261e-09
2.64456e-11
9.93925e-09
2.67259e-11
9.92574e-09
2.70031e-11
9.9121e-09
2.72777e-11
9.89833e-09
2.75502e-11
9.88442e-09
2.78207e-11
9.87037e-09
2.80902e-11
9.85619e-09
2.83588e-11
9.84188e-09
2.86273e-11
9.82743e-09
2.88961e-11
9.81285e-09
2.9166e-11
9.79813e-09
2.94376e-11
9.78327e-09
2.9712e-11
9.76828e-09
2.99901e-11
9.75314e-09
3.02733e-11
9.73786e-09
3.05631e-11
9.72243e-09
3.08611e-11
9.70685e-09
3.11702e-11
9.6911e-09
3.14929e-11
9.67518e-09
3.18333e-11
9.65909e-09
3.21958e-11
9.6428e-09
3.25866e-11
9.62629e-09
3.30133e-11
9.60956e-09
3.34859e-11
9.59255e-09
3.40172e-11
9.57525e-09
3.46236e-11
9.55759e-09
3.53269e-11
9.53952e-09
3.61554e-11
9.52096e-09
3.71465e-11
9.5018e-09
3.83501e-11
9.48191e-09
3.98331e-11
9.46109e-09
4.16865e-11
9.43911e-09
4.40353e-11
9.41564e-09
4.70556e-11
9.39021e-09
5.09991e-11
9.36219e-09
5.62362e-11
9.33068e-09
6.33329e-11
9.29431e-09
7.31908e-11
9.25103e-09
8.73342e-11
9.19745e-09
1.08543e-10
9.1277e-09
1.42429e-10
9.03065e-09
2.01945e-10
8.88461e-09
3.22396e-10
6.16674e-10
8.66911e-09
2.48104e-10
-7.37516e-10
4.97589e-10
-7.41669e-10
7.48132e-10
-7.44892e-10
9.99397e-10
-7.47152e-10
1.25104e-09
-7.48423e-10
1.50271e-09
-7.48688e-10
1.75406e-09
-7.47934e-10
2.00473e-09
-7.46158e-10
2.25437e-09
-7.4336e-10
2.50263e-09
-7.39549e-10
2.74917e-09
-7.34741e-10
2.99366e-09
-7.28957e-10
3.23577e-09
-7.22226e-10
3.4752e-09
-7.14582e-10
3.71164e-09
-7.06063e-10
3.94483e-09
-6.96713e-10
4.17449e-09
-6.8658e-10
4.4004e-09
-6.75716e-10
4.62231e-09
-6.64175e-10
4.84004e-09
-6.52012e-10
5.0534e-09
-6.39285e-10
5.26221e-09
-6.26054e-10
5.46636e-09
-6.12376e-10
5.6657e-09
-5.9831e-10
5.86014e-09
-5.83913e-10
6.04959e-09
-5.69242e-10
6.234e-09
-5.5435e-10
6.4133e-09
-5.39291e-10
6.58748e-09
-5.24114e-10
6.75652e-09
-5.08867e-10
6.92041e-09
-4.93594e-10
7.07916e-09
-4.78336e-10
7.23282e-09
-4.63134e-10
7.3814e-09
-4.48022e-10
7.52496e-09
-4.33033e-10
7.66356e-09
-4.18198e-10
7.79726e-09
-4.03542e-10
7.92613e-09
-3.8909e-10
8.05026e-09
-3.74864e-10
8.16973e-09
-3.60881e-10
8.28463e-09
-3.47159e-10
8.39505e-09
-3.33712e-10
8.5011e-09
-3.2055e-10
8.60287e-09
-3.07685e-10
8.70047e-09
-2.95124e-10
8.79401e-09
-2.82872e-10
8.88358e-09
-2.70935e-10
8.9693e-09
-2.59316e-10
9.05128e-09
-2.48017e-10
9.12961e-09
-2.37038e-10
9.20442e-09
-2.26378e-10
9.2758e-09
-2.16037e-10
9.34386e-09
-2.06012e-10
9.40871e-09
-1.96299e-10
9.47044e-09
-1.86897e-10
9.52917e-09
-1.77799e-10
9.58498e-09
-1.69002e-10
9.63799e-09
-1.605e-10
9.68827e-09
-1.52287e-10
9.73594e-09
-1.44359e-10
9.78107e-09
-1.36708e-10
9.82376e-09
-1.29329e-10
9.86411e-09
-1.22215e-10
9.90218e-09
-1.15359e-10
9.93808e-09
-1.08755e-10
9.97187e-09
-1.02397e-10
1.00036e-08
-9.62765e-11
1.00335e-08
-9.03882e-11
1.00614e-08
-8.47248e-11
1.00875e-08
-7.92798e-11
1.0112e-08
-7.40467e-11
1.01347e-08
-6.90188e-11
1.01559e-08
-6.41895e-11
1.01755e-08
-5.95528e-11
1.01937e-08
-5.5102e-11
1.02104e-08
-5.08313e-11
1.02258e-08
-4.67343e-11
1.02399e-08
-4.28053e-11
1.02527e-08
-3.90384e-11
1.02644e-08
-3.54278e-11
1.02749e-08
-3.1968e-11
1.02843e-08
-2.86535e-11
1.02926e-08
-2.54791e-11
1.03e-08
-2.24395e-11
1.03064e-08
-1.95296e-11
1.03118e-08
-1.67444e-11
1.03164e-08
-1.40793e-11
1.03202e-08
-1.15295e-11
1.03231e-08
-9.09026e-12
1.03253e-08
-6.75758e-12
1.03267e-08
-4.52673e-12
1.03274e-08
-2.39374e-12
1.03275e-08
-3.54562e-13
1.03269e-08
1.59493e-12
1.03256e-08
3.45833e-12
1.03238e-08
5.23945e-12
1.03215e-08
6.94186e-12
1.03185e-08
8.56911e-12
1.03151e-08
1.01244e-11
1.03112e-08
1.16111e-11
1.03068e-08
1.30324e-11
1.0302e-08
1.43912e-11
1.02967e-08
1.56906e-11
1.0291e-08
1.69333e-11
1.0285e-08
1.8122e-11
1.02785e-08
1.92596e-11
1.02717e-08
2.03483e-11
1.02645e-08
2.13909e-11
1.0257e-08
2.23895e-11
1.02492e-08
2.33464e-11
1.02411e-08
2.4264e-11
1.02327e-08
2.51441e-11
1.0224e-08
2.59888e-11
1.02151e-08
2.68002e-11
1.02059e-08
2.75801e-11
1.01964e-08
2.83303e-11
1.01867e-08
2.90522e-11
1.01768e-08
2.97479e-11
1.01666e-08
3.04186e-11
1.01563e-08
3.10661e-11
1.01457e-08
3.16916e-11
1.01349e-08
3.22967e-11
1.0124e-08
3.28823e-11
1.01128e-08
3.34502e-11
1.01015e-08
3.40011e-11
1.00899e-08
3.45365e-11
1.00782e-08
3.50574e-11
1.00664e-08
3.55646e-11
1.00544e-08
3.60594e-11
1.00422e-08
3.65427e-11
1.00298e-08
3.70152e-11
1.00173e-08
3.7478e-11
1.00047e-08
3.79318e-11
9.99189e-09
3.83773e-11
9.97895e-09
3.88153e-11
9.96587e-09
3.92468e-11
9.95264e-09
3.96722e-11
9.93927e-09
4.00924e-11
9.92577e-09
4.05079e-11
9.91213e-09
4.09193e-11
9.89835e-09
4.13276e-11
9.88444e-09
4.17333e-11
9.87039e-09
4.21371e-11
9.85621e-09
4.25397e-11
9.8419e-09
4.29422e-11
9.82745e-09
4.3345e-11
9.81286e-09
4.37493e-11
9.79814e-09
4.41565e-11
9.78329e-09
4.45676e-11
9.76829e-09
4.49844e-11
9.75316e-09
4.54085e-11
9.73788e-09
4.58422e-11
9.72245e-09
4.62886e-11
9.70687e-09
4.67511e-11
9.69113e-09
4.7234e-11
9.67522e-09
4.77428e-11
9.65913e-09
4.82846e-11
9.64285e-09
4.88684e-11
9.62636e-09
4.95053e-11
9.60963e-09
5.02103e-11
9.59265e-09
5.10021e-11
9.57537e-09
5.19052e-11
9.55774e-09
5.29519e-11
9.53971e-09
5.41837e-11
9.5212e-09
5.56563e-11
9.50211e-09
5.74428e-11
9.4823e-09
5.96421e-11
9.4616e-09
6.23879e-11
9.43977e-09
6.58639e-11
9.4165e-09
7.03274e-11
9.39136e-09
7.61448e-11
9.36374e-09
8.38533e-11
9.33281e-09
9.42647e-11
9.29734e-09
1.0866e-10
9.25551e-09
1.29162e-10
9.20452e-09
1.59536e-10
9.13993e-09
2.07015e-10
9.05501e-09
2.86866e-10
8.94307e-09
4.34336e-10
7.32062e-10
8.82768e-09
2.52287e-10
-9.89803e-10
5.05948e-10
-9.9533e-10
7.60634e-10
-9.99579e-10
1.01598e-09
-1.0025e-09
1.27162e-09
-1.00406e-09
1.52718e-09
-1.00424e-09
1.78227e-09
-1.00302e-09
2.03651e-09
-1.00041e-09
2.28955e-09
-9.96392e-10
2.54099e-09
-9.90996e-10
2.7905e-09
-9.84245e-10
3.03771e-09
-9.7617e-10
3.2823e-09
-9.66814e-10
3.52394e-09
-9.56226e-10
3.76234e-09
-9.44464e-10
3.99722e-09
-9.3159e-10
4.22831e-09
-9.17671e-10
4.45538e-09
-9.02782e-10
4.6782e-09
-8.86998e-10
4.89659e-09
-8.70397e-10
5.11036e-09
-8.53059e-10
5.31937e-09
-8.35065e-10
5.52349e-09
-8.16495e-10
5.72261e-09
-7.9743e-10
5.91664e-09
-7.77945e-10
6.10552e-09
-7.58119e-10
6.28919e-09
-7.38022e-10
6.46763e-09
-7.17726e-10
6.64081e-09
-6.97297e-10
6.80874e-09
-6.76798e-10
6.97144e-09
-6.56287e-10
7.12892e-09
-6.35819e-10
7.28123e-09
-6.15444e-10
7.42842e-09
-5.9521e-10
7.57054e-09
-5.75158e-10
7.70767e-09
-5.55328e-10
7.83988e-09
-5.35753e-10
7.96726e-09
-5.16464e-10
8.08988e-09
-4.97488e-10
8.20785e-09
-4.7885e-10
8.32126e-09
-4.60568e-10
8.43021e-09
-4.42662e-10
8.53481e-09
-4.25146e-10
8.63515e-09
-4.0803e-10
8.73135e-09
-3.91326e-10
8.82352e-09
-3.7504e-10
8.91176e-09
-3.59178e-10
8.99619e-09
-3.43742e-10
9.07691e-09
-3.28736e-10
9.15403e-09
-3.14158e-10
9.22766e-09
-3.00007e-10
9.2979e-09
-2.86282e-10
9.36487e-09
-2.72979e-10
9.42866e-09
-2.60093e-10
9.48939e-09
-2.4762e-10
9.54714e-09
-2.35552e-10
9.60202e-09
-2.23885e-10
9.65413e-09
-2.1261e-10
9.70357e-09
-2.0172e-10
9.75041e-09
-1.91207e-10
9.79477e-09
-1.81062e-10
9.83672e-09
-1.71279e-10
9.87635e-09
-1.61847e-10
9.91375e-09
-1.52758e-10
9.949e-09
-1.44003e-10
9.98218e-09
-1.35573e-10
1.00134e-08
-1.2746e-10
1.00426e-08
-1.19654e-10
1.007e-08
-1.12146e-10
1.00957e-08
-1.04928e-10
1.01196e-08
-9.79898e-11
1.01419e-08
-9.13239e-11
1.01627e-08
-8.49215e-11
1.01819e-08
-7.8774e-11
1.01997e-08
-7.28731e-11
1.0216e-08
-6.72105e-11
1.02311e-08
-6.17785e-11
1.02449e-08
-5.65687e-11
1.02574e-08
-5.15738e-11
1.02687e-08
-4.67859e-11
1.0279e-08
-4.21981e-11
1.02881e-08
-3.78027e-11
1.02962e-08
-3.35927e-11
1.03034e-08
-2.95615e-11
1.03095e-08
-2.5702e-11
1.03148e-08
-2.20081e-11
1.03192e-08
-1.8473e-11
1.03228e-08
-1.50908e-11
1.03255e-08
-1.18552e-11
1.03275e-08
-8.76058e-12
1.03288e-08
-5.80112e-12
1.03294e-08
-2.97131e-12
1.03293e-08
-2.65696e-13
1.03286e-08
2.32092e-12
1.03272e-08
4.79339e-12
1.03253e-08
7.15689e-12
1.03228e-08
9.41615e-12
1.03198e-08
1.15757e-11
1.03163e-08
1.36398e-11
1.03123e-08
1.56132e-11
1.03078e-08
1.74996e-11
1.03029e-08
1.93034e-11
1.02976e-08
2.10284e-11
1.02918e-08
2.26782e-11
1.02857e-08
2.42566e-11
1.02792e-08
2.5767e-11
1.02723e-08
2.72128e-11
1.02651e-08
2.85972e-11
1.02576e-08
2.99235e-11
1.02497e-08
3.11946e-11
1.02416e-08
3.24132e-11
1.02332e-08
3.35825e-11
1.02244e-08
3.47049e-11
1.02155e-08
3.57829e-11
1.02062e-08
3.68192e-11
1.01967e-08
3.78161e-11
1.0187e-08
3.87756e-11
1.01771e-08
3.97002e-11
1.01669e-08
4.05919e-11
1.01565e-08
4.14526e-11
1.01459e-08
4.22842e-11
1.01351e-08
4.30888e-11
1.01241e-08
4.38677e-11
1.0113e-08
4.46229e-11
1.01016e-08
4.53558e-11
1.00901e-08
4.60679e-11
1.00784e-08
4.67609e-11
1.00665e-08
4.74358e-11
1.00545e-08
4.80943e-11
1.00423e-08
4.87373e-11
1.00299e-08
4.93663e-11
1.00174e-08
4.99821e-11
1.00048e-08
5.05862e-11