/*--------------------------------*- C++ -*----------------------------------*\
  =========                 |
  \\      /  F ield         | OpenFOAM: The Open Source CFD Toolbox
   \\    /   O peration     | Website:  https://openfoam.org
    \\  /    A nd           | Version:  10
     \\/     M anipulation  |
\*---------------------------------------------------------------------------*/
FoamFile
{
    format      ascii;
    class       volVectorField;
    location    "1.61";
    object      Ua;
}
// * * * * * * * * * * * * * * * * * * * * * * * * * * * * * * * * * * * * * //

dimensions      [0 1 -1 0 0 0 0];

internalField   nonuniform List<vector> 
12225
(
(2.56651e-05 -3.30359e-06 0)
(7.50328e-05 -3.09409e-06 0)
(0.000119802 -2.70919e-06 0)
(0.000159265 -2.27579e-06 0)
(0.000193726 -1.87965e-06 0)
(0.000224003 -1.56339e-06 0)
(0.000251065 -1.34161e-06 0)
(0.000275839 -1.21583e-06 0)
(0.000299157 -1.18503e-06 0)
(0.000321766 -1.25242e-06 0)
(0.000344384 -1.43117e-06 0)
(0.000367783 -1.75216e-06 0)
(0.000392931 -2.27913e-06 0)
(0.000421258 -3.14494e-06 0)
(0.000455244 -4.65265e-06 0)
(0.000500111 -7.62271e-06 0)
(0.000570169 -1.49756e-05 0)
(0.000722864 -4.17758e-05 0)
(1.74422e-05 -8.55071e-06 0)
(5.13781e-05 -8.05858e-06 0)
(8.30053e-05 -7.10513e-06 0)
(0.000111815 -6.00979e-06 0)
(0.00013783 -4.99596e-06 0)
(0.000161397 -4.18016e-06 0)
(0.000183001 -3.60672e-06 0)
(0.000203156 -3.28506e-06 0)
(0.000222356 -3.21675e-06 0)
(0.000241069 -3.41391e-06 0)
(0.000259767 -3.91489e-06 0)
(0.000278975 -4.80538e-06 0)
(0.000299355 -6.25904e-06 0)
(0.000321861 -8.63213e-06 0)
(0.000348064 -1.27181e-05 0)
(0.000380834 -2.05611e-05 0)
(0.000425287 -3.86655e-05 0)
(0.000479909 -9.38907e-05 0)
(1.35037e-05 -1.17457e-05 0)
(4.00263e-05 -1.1171e-05 0)
(6.52935e-05 -9.94478e-06 0)
(8.8903e-05 -8.48934e-06 0)
(0.000110765 -7.11577e-06 0)
(0.000131017 -5.99715e-06 0)
(0.000149926 -5.20805e-06 0)
(0.000167805 -4.77255e-06 0)
(0.000184983 -4.7016e-06 0)
(0.000201789 -5.01957e-06 0)
(0.000218566 -5.78752e-06 0)
(0.000235697 -7.13384e-06 0)
(0.000253659 -9.31122e-06 0)
(0.000273099 -1.28229e-05 0)
(0.000294939 -1.87379e-05 0)
(0.000320355 -2.95719e-05 0)
(0.000349321 -5.19572e-05 0)
(0.000369341 -0.000104279 0)
(1.09582e-05 -1.38168e-05 0)
(3.2669e-05 -1.32649e-05 0)
(5.37619e-05 -1.19219e-05 0)
(7.39101e-05 -1.02679e-05 0)
(9.29685e-05 -8.67474e-06 0)
(0.000110958 -7.36172e-06 0)
(0.000128008 -6.43276e-06 0)
(0.000144312 -5.92953e-06 0)
(0.000160086 -5.87532e-06 0)
(0.000175563 -6.30772e-06 0)
(0.000190993 -7.30734e-06 0)
(0.000206653 -9.03467e-06 0)
(0.00022287 -1.17946e-05 0)
(0.000240031 -1.61697e-05 0)
(0.000258532 -2.3319e-05 0)
(0.000278372 -3.56694e-05 0)
(0.000297262 -5.83935e-05 0)
(0.000303762 -0.000100964 0)
(9.11085e-06 -1.50892e-05 0)
(2.73129e-05 -1.46293e-05 0)
(4.53238e-05 -1.32731e-05 0)
(6.2875e-05 -1.15303e-05 0)
(7.97958e-05 -9.8152e-06 0)
(9.60345e-05 -8.38492e-06 0)
(0.000111634 -7.37096e-06 0)
(0.000126696 -6.8336e-06 0)
(0.00014136 -6.80968e-06 0)
(0.000155782 -7.34952e-06 0)
(0.000170137 -8.54922e-06 0)
(0.000184612 -1.059e-05 0)
(0.000199403 -1.38021e-05 0)
(0.000214681 -1.87843e-05 0)
(0.000230443 -2.66341e-05 0)
(0.000246018 -3.93595e-05 0)
(0.000258581 -6.0345e-05 0)
(0.000260108 -9.33096e-05 0)
(7.68623e-06 -1.57296e-05 0)
(2.31686e-05 -1.54108e-05 0)
(3.87581e-05 -1.41156e-05 0)
(5.42332e-05 -1.2365e-05 0)
(6.94153e-05 -1.06023e-05 0)
(8.42086e-05 -9.1153e-06 0)
(9.85947e-05 -8.06038e-06 0)
(0.000112612 -7.51602e-06 0)
(0.000126336 -7.53257e-06 0)
(0.000139863 -8.17156e-06 0)
(0.000153301 -9.53963e-06 0)
(0.00016676 -1.18269e-05 0)
(0.000180325 -1.53636e-05 0)
(0.000193997 -2.07112e-05 0)
(0.000207517 -2.88059e-05 0)
(0.000219934 -4.11174e-05 0)
(0.000228725 -5.95299e-05 0)
(0.000228889 -8.47919e-05 0)
(6.54676e-06 -1.5842e-05 0)
(1.9842e-05 -1.56988e-05 0)
(3.34564e-05 -1.45183e-05 0)
(4.72069e-05 -1.28212e-05 0)
(6.09183e-05 -1.10699e-05 0)
(7.44699e-05 -9.57597e-06 0)
(8.78016e-05 -8.51724e-06 0)
(0.000100903 -7.98893e-06 0)
(0.000113799 -8.05382e-06 0)
(0.000126535 -8.78232e-06 0)
(0.000139163 -1.02862e-05 0)
(0.000151726 -1.27532e-05 0)
(0.00016422 -1.64914e-05 0)
(0.000176526 -2.19877e-05 0)
(0.000188252 -2.99703e-05 0)
(0.000198431 -4.13973e-05 0)
(0.000205119 -5.71176e-05 0)
(0.000205412 -7.66373e-05 0)
(5.61354e-06 -1.55005e-05 0)
(1.71073e-05 -1.55559e-05 0)
(2.90702e-05 -1.45272e-05 0)
(4.13514e-05 -1.29296e-05 0)
(5.37871e-05 -1.12367e-05 0)
(6.62449e-05 -9.7776e-06 0)
(7.86368e-05 -8.7472e-06 0)
(9.09157e-05 -8.25509e-06 0)
(0.000103065 -8.37449e-06 0)
(0.000115088 -9.18185e-06 0)
(0.000126988 -1.07886e-05 0)
(0.000138753 -1.33704e-05 0)
(0.000150313 -1.71969e-05 0)
(0.000161477 -2.26605e-05 0)
(0.000171813 -3.02787e-05 0)
(0.00018048 -4.05996e-05 0)
(0.000186105 -5.38557e-05 0)
(0.00018709 -6.91984e-05 0)
(4.83675e-06 -1.47647e-05 0)
(1.48216e-05 -1.50306e-05 0)
(2.53793e-05 -1.41764e-05 0)
(3.63867e-05 -1.2711e-05 0)
(4.76968e-05 -1.11137e-05 0)
(5.91757e-05 -9.72445e-06 0)
(7.07174e-05 -8.75051e-06 0)
(8.22469e-05 -8.31246e-06 0)
(9.37148e-05 -8.49137e-06 0)
(0.000105087 -9.36659e-06 0)
(0.000116328 -1.10444e-05 0)
(0.000127383 -1.36805e-05 0)
(0.000138138 -1.74973e-05 0)
(0.000148369 -2.27882e-05 0)
(0.000157668 -2.98868e-05 0)
(0.000165364 -3.90509e-05 0)
(0.000170549 -5.01976e-05 0)
(0.000172379 -6.25043e-05 0)
(4.18248e-06 -1.36879e-05 0)
(1.28874e-05 -1.41645e-05 0)
(2.22333e-05 -1.34933e-05 0)
(3.2122e-05 -1.21811e-05 0)
(4.24281e-05 -1.07078e-05 0)
(5.30226e-05 -9.41775e-06 0)
(6.37888e-05 -8.52492e-06 0)
(7.46309e-05 -8.15694e-06 0)
(8.54727e-05 -8.39966e-06 0)
(9.625e-05 -9.33218e-06 0)
(0.000106897 -1.10516e-05 0)
(0.000117326 -1.36893e-05 0)
(0.000127398 -1.74175e-05 0)
(0.000136887 -2.24386e-05 0)
(0.000145438 -2.89419e-05 0)
(0.000152551 -3.70014e-05 0)
(0.000157651 -4.64048e-05 0)
(0.000160308 -5.64783e-05 0)
(3.62594e-06 -1.23218e-05 0)
(1.1233e-05 -1.29959e-05 0)
(1.95212e-05 -1.25025e-05 0)
(2.84181e-05 -1.13533e-05 0)
(3.78226e-05 -1.00247e-05 0)
(4.76148e-05 -8.85798e-06 0)
(5.76724e-05 -8.06781e-06 0)
(6.78835e-05 -7.78432e-06 0)
(7.81508e-05 -8.09485e-06 0)
(8.8386e-05 -9.0754e-06 0)
(9.84993e-05 -1.08113e-05 0)
(0.000108382 -1.34077e-05 0)
(0.000117887 -1.69893e-05 0)
(0.000126802 -2.16828e-05 0)
(0.000134837 -2.75743e-05 0)
(0.000141633 -3.46344e-05 0)
(0.000146837 -4.26215e-05 0)
(0.000150241 -5.1023e-05 0)
(3.10909e-06 -1.08429e-05 0)
(9.70233e-06 -1.16783e-05 0)
(1.70278e-05 -1.13375e-05 0)
(2.50357e-05 -1.03423e-05 0)
(3.36419e-05 -9.16158e-06 0)
(4.2729e-05 -8.12711e-06 0)
(5.2167e-05 -7.44871e-06 0)
(6.183e-05 -7.25513e-06 0)
(7.16033e-05 -7.63253e-06 0)
(8.13817e-05 -8.65228e-06 0)
(9.10601e-05 -1.03878e-05 0)
(0.00010052 -1.29209e-05 0)
(0.000109616 -1.63377e-05 0)
(0.000118159 -2.07097e-05 0)
(0.000125914 -2.60585e-05 0)
(0.000132624 -3.23055e-05 0)
(0.000138061 -3.92222e-05 0)
(0.000142115 -4.64222e-05 0)
(2.77168e-06 -9.22124e-06 0)
(8.68045e-06 -1.01748e-05 0)
(1.53156e-05 -9.95863e-06 0)
(2.26564e-05 -9.10944e-06 0)
(3.06432e-05 -8.0824e-06 0)
(3.91699e-05 -7.19253e-06 0)
(4.81063e-05 -6.63876e-06 0)
(5.73189e-05 -6.54445e-06 0)
(6.6682e-05 -6.99206e-06 0)
(7.60781e-05 -8.04693e-06 0)
(8.53913e-05 -9.77055e-06 0)
(9.44976e-05 -1.22242e-05 0)
(0.000103255 -1.54628e-05 0)
(0.000111495 -1.95186e-05 0)
(0.000119032 -2.43748e-05 0)
(0.000125679 -2.9934e-05 0)
(0.00013129 -3.59968e-05 0)
(0.000135814 -4.22713e-05 0)
(2.43344e-06 -7.28191e-06 0)
(7.64042e-06 -8.28892e-06 0)
(1.35524e-05 -8.16423e-06 0)
(2.0198e-05 -7.46178e-06 0)
(2.75453e-05 -6.61043e-06 0)
(3.5497e-05 -5.89544e-06 0)
(4.39198e-05 -5.49576e-06 0)
(5.26711e-05 -5.52381e-06 0)
(6.16145e-05 -6.05494e-06 0)
(7.06214e-05 -7.14618e-06 0)
(7.95679e-05 -8.84576e-06 0)
(8.83279e-05 -1.11946e-05 0)
(9.67676e-05 -1.42205e-05 0)
(0.000104745 -1.79258e-05 0)
(0.000112116 -2.22702e-05 0)
(0.000118755 -2.71556e-05 0)
(0.000124575 -3.24201e-05 0)
(0.000129559 -3.78523e-05 0)
(2.0782e-06 -5.06209e-06 0)
(6.53636e-06 -5.97344e-06 0)
(1.16793e-05 -5.87345e-06 0)
(1.76122e-05 -5.30887e-06 0)
(2.43255e-05 -4.65538e-06 0)
(3.17184e-05 -4.14821e-06 0)
(3.96449e-05 -3.93454e-06 0)
(4.79491e-05 -4.10948e-06 0)
(5.64827e-05 -4.73769e-06 0)
(6.51082e-05 -5.86592e-06 0)
(7.36974e-05 -7.52919e-06 0)
(8.21273e-05 -9.75126e-06 0)
(9.02795e-05 -1.25402e-05 0)
(9.80405e-05 -1.58807e-05 0)
(0.000105309 -1.97246e-05 0)
(0.000112003 -2.39855e-05 0)
(0.000118079 -2.85394e-05 0)
(0.000123531 -3.32375e-05 0)
(1.63204e-06 -2.64074e-06 0)
(5.18107e-06 -3.17876e-06 0)
(9.47057e-06 -3.01421e-06 0)
(1.46974e-05 -2.58232e-06 0)
(2.08355e-05 -2.15325e-06 0)
(2.77441e-05 -1.88535e-06 0)
(3.52403e-05 -1.88287e-06 0)
(4.31428e-05 -2.21976e-06 0)
(5.12898e-05 -2.94928e-06 0)
(5.95429e-05 -4.11076e-06 0)
(6.77854e-05 -5.73188e-06 0)
(7.59169e-05 -7.8264e-06 0)
(8.38483e-05 -1.03919e-05 0)
(9.15001e-05 -1.34054e-05 0)
(9.88033e-05 -1.68196e-05 0)
(0.000105704 -2.05616e-05 0)
(0.000112168 -2.45372e-05 0)
(0.000118185 -2.86393e-05 0)
(8.2944e-07 7.20747e-09 0)
(2.87689e-06 1.92516e-07 0)
(5.97841e-06 4.47943e-07 0)
(1.03648e-05 7.01001e-07 0)
(1.58663e-05 8.72078e-07 0)
(2.2245e-05 8.78654e-07 0)
(2.92922e-05 6.48735e-07 0)
(3.68327e-05 1.26438e-07 0)
(4.47135e-05 -7.28499e-07 0)
(5.28265e-05 -1.99612e-06 0)
(6.10944e-05 -3.67748e-06 0)
(6.94154e-05 -5.74399e-06 0)
(7.76756e-05 -8.1874e-06 0)
(8.57755e-05 -1.09812e-05 0)
(9.36304e-05 -1.40806e-05 0)
(0.000101173 -1.74248e-05 0)
(0.000108357 -2.09406e-05 0)
(0.000115154 -2.45493e-05 0)
(1.95131e-06 3.16175e-06 0)
(5.9757e-06 4.28002e-06 0)
(1.03947e-05 4.77416e-06 0)
(1.54373e-05 4.90503e-06 0)
(2.11923e-05 4.79795e-06 0)
(2.76346e-05 4.47422e-06 0)
(3.46692e-05 3.91697e-06 0)
(4.21721e-05 3.10318e-06 0)
(5.00145e-05 2.01446e-06 0)
(5.80492e-05 5.87511e-07 0)
(6.61214e-05 -1.16179e-06 0)
(7.4187e-05 -3.34399e-06 0)
(8.22367e-05 -5.81575e-06 0)
(9.01886e-05 -8.51831e-06 0)
(9.796e-05 -1.14139e-05 0)
(0.000105486 -1.44553e-05 0)
(0.000112721 -1.75898e-05 0)
(0.000119633 -2.07632e-05 0)
(2.73333e-06 7.51318e-06 0)
(8.387e-06 9.24766e-06 0)
(1.44214e-05 1.00259e-05 0)
(2.08636e-05 1.01218e-05 0)
(2.77419e-05 9.75235e-06 0)
(3.50516e-05 9.04697e-06 0)
(4.27486e-05 8.0728e-06 0)
(5.076e-05 6.86248e-06 0)
(5.89976e-05 5.43252e-06 0)
(6.73686e-05 3.79307e-06 0)
(7.57839e-05 1.95721e-06 0)
(8.41028e-05 -2.11789e-07 0)
(9.2205e-05 -2.61148e-06 0)
(0.00010009 -5.24062e-06 0)
(0.000107758 -7.95461e-06 0)
(0.000115168 -1.07223e-05 0)
(0.000122292 -1.35104e-05 0)
(0.000129115 -1.62858e-05 0)
(3.12596e-06 1.23654e-05 0)
(9.65085e-06 1.40952e-05 0)
(1.66813e-05 1.48453e-05 0)
(2.41531e-05 1.47974e-05 0)
(3.20207e-05 1.41664e-05 0)
(4.02338e-05 1.3123e-05 0)
(4.87291e-05 1.17844e-05 0)
(5.7431e-05 1.02256e-05 0)
(6.62577e-05 8.49363e-06 0)
(7.51273e-05 6.61903e-06 0)
(8.39627e-05 4.62414e-06 0)
(9.26937e-05 2.52705e-06 0)
(0.00010124 3.01236e-07 0)
(0.000109502 -2.14281e-06 0)
(0.000117464 -4.69125e-06 0)
(0.000125149 -7.22902e-06 0)
(0.000132536 -9.73674e-06 0)
(0.000139612 -1.21955e-05 0)
(3.73549e-06 1.65643e-05 0)
(1.14691e-05 1.79603e-05 0)
(1.96899e-05 1.84304e-05 0)
(2.83214e-05 1.81056e-05 0)
(3.72877e-05 1.71849e-05 0)
(4.65135e-05 1.58473e-05 0)
(5.59205e-05 1.42278e-05 0)
(6.54283e-05 1.24193e-05 0)
(7.49576e-05 1.04827e-05 0)
(8.4433e-05 8.45762e-06 0)
(9.37864e-05 6.37085e-06 0)
(0.000102958 4.24223e-06 0)
(0.000111899 2.0882e-06 0)
(0.000120542 -1.30707e-07 0)
(0.000128828 -2.50809e-06 0)
(0.000136763 -4.87732e-06 0)
(0.000144363 -7.18298e-06 0)
(0.000151622 -9.41454e-06 0)
(4.48495e-06 1.99878e-05 0)
(1.36762e-05 2.09864e-05 0)
(2.32823e-05 2.11009e-05 0)
(3.32309e-05 2.04546e-05 0)
(4.34316e-05 1.92398e-05 0)
(5.3792e-05 1.76375e-05 0)
(6.42223e-05 1.57891e-05 0)
(7.46376e-05 1.37943e-05 0)
(8.49603e-05 1.17194e-05 0)
(9.51212e-05 9.60648e-06 0)
(0.000105061 7.48254e-06 0)
(0.000114731 5.3655e-06 0)
(0.000124092 3.26847e-06 0)
(0.000133114 1.20206e-06 0)
(0.00014173 -9.23938e-07 0)
(0.000149928 -3.12134e-06 0)
(0.000157749 -5.23279e-06 0)
(0.000165195 -7.25394e-06 0)
(5.39615e-06 2.2416e-05 0)
(1.63499e-05 2.30336e-05 0)
(2.76034e-05 2.2794e-05 0)
(3.9087e-05 2.18375e-05 0)
(5.07015e-05 2.03597e-05 0)
(6.23445e-05 1.85422e-05 0)
(7.39205e-05 1.65272e-05 0)
(8.53444e-05 1.44146e-05 0)
(9.65434e-05 1.22699e-05 0)
(0.000107457 1.01334e-05 0)
(0.000118037 8.02903e-06 0)
(0.000128246 5.97091e-06 0)
(0.000138058 3.96774e-06 0)
(0.000147455 2.02542e-06 0)
(0.000156422 1.3411e-07 0)
(0.000164924 -1.84767e-06 0)
(0.000172966 -3.7619e-06 0)
(0.000180584 -5.57674e-06 0)
(6.4996e-06 2.37435e-05 0)
(1.95836e-05 2.40278e-05 0)
(3.28109e-05 2.34793e-05 0)
(4.61049e-05 2.22638e-05 0)
(5.93593e-05 2.05838e-05 0)
(7.24673e-05 1.86208e-05 0)
(8.5334e-05 1.65137e-05 0)
(9.78807e-05 1.43584e-05 0)
(0.000110045 1.22156e-05 0)
(0.00012178 1.01207e-05 0)
(0.000133053 8.09291e-06 0)
(0.000143841 6.14142e-06 0)
(0.000154133 4.27024e-06 0)
(0.000163925 2.48073e-06 0)
(0.000173219 7.73154e-07 0)
(0.000181991 -9.5037e-07 0)
(0.000190252 -2.66065e-06 0)
(0.000198045 -4.26849e-06 0)
(7.84186e-06 2.39261e-05 0)
(2.35137e-05 2.39379e-05 0)
(3.91235e-05 2.31509e-05 0)
(5.45757e-05 2.17541e-05 0)
(6.9756e-05 1.99554e-05 0)
(8.45586e-05 1.79329e-05 0)
(9.88974e-05 1.5819e-05 0)
(0.000112708 1.3702e-05 0)
(0.000125947 1.16351e-05 0)
(0.000138588 9.64748e-06 0)
(0.000150617 7.75233e-06 0)
(0.000162031 5.954e-06 0)
(0.000172838 4.25198e-06 0)
(0.000183049 2.64366e-06 0)
(0.000192681 1.12566e-06 0)
(0.000201733 -3.4091e-07 0)
(0.000210224 -1.83914e-06 0)
(0.000218199 -3.23718e-06 0)
(9.49773e-06 2.29421e-05 0)
(2.83578e-05 2.2749e-05 0)
(4.68859e-05 2.18102e-05 0)
(6.49542e-05 2.03289e-05 0)
(8.2439e-05 1.85119e-05 0)
(9.92418e-05 1.65291e-05 0)
(0.000115295 1.45022e-05 0)
(0.000130561 1.2509e-05 0)
(0.000145023 1.05942e-05 0)
(0.000158684 8.77926e-06 0)
(0.000171558 7.07191e-06 0)
(0.000183668 5.47182e-06 0)
(0.000195043 3.97481e-06 0)
(0.000205714 2.57519e-06 0)
(0.000215715 1.26706e-06 0)
(0.000225079 3.96797e-08 0)
(0.000233822 -1.22745e-06 0)
(0.000241974 -2.41255e-06 0)
(1.15989e-05 2.07577e-05 0)
(3.44987e-05 2.0433e-05 0)
(5.67054e-05 1.94421e-05 0)
(7.8042e-05 1.79889e-05 0)
(9.83741e-05 1.6269e-05 0)
(0.000117619 1.44369e-05 0)
(0.000135743 1.2599e-05 0)
(0.000152747 1.08207e-05 0)
(0.000168658 9.1365e-06 0)
(0.000183518 7.56094e-06 0)
(0.000197379 6.09655e-06 0)
(0.000210297 4.73945e-06 0)
(0.000222328 3.48291e-06 0)
(0.00023353 2.31933e-06 0)
(0.000243956 1.24141e-06 0)
(0.00025366 2.42526e-07 0)
(0.00026267 -7.74119e-07 0)
(0.000271029 -1.74205e-06 0)
(1.44127e-05 1.72782e-05 0)
(4.27147e-05 1.69025e-05 0)
(6.98187e-05 1.59748e-05 0)
(9.54744e-05 1.4681e-05 0)
(0.000119536 1.31916e-05 0)
(0.000141952 1.16366e-05 0)
(0.000162739 1.01023e-05 0)
(0.000181962 8.63877e-06 0)
(0.00019971 7.27059e-06 0)
(0.000216083 6.00581e-06 0)
(0.000231186 4.84318e-06 0)
(0.000245119 3.77673e-06 0)
(0.000257975 2.79865e-06 0)
(0.000269845 1.90089e-06 0)
(0.000280808 1.07593e-06 0)
(0.000290941 3.1703e-07 0)
(0.000300293 -4.42063e-07 0)
(0.000308923 -1.18629e-06 0)
(1.86279e-05 1.22319e-05 0)
(5.50152e-05 1.19014e-05 0)
(8.94258e-05 1.11799e-05 0)
(0.000121494 1.02101e-05 0)
(0.000151062 9.11837e-06 0)
(0.000178131 7.99788e-06 0)
(0.000202811 6.90823e-06 0)
(0.000225266 5.88222e-06 0)
(0.000245687 4.93428e-06 0)
(0.000264264 4.06749e-06 0)
(0.00028118 3.27875e-06 0)
(0.000296602 2.56207e-06 0)
(0.000310682 1.91054e-06 0)
(0.000323553 1.31738e-06 0)
(0.000335337 7.76413e-07 0)
(0.000346139 2.82149e-07 0)
(0.00035604 -2.09035e-07 0)
(0.000365132 -7.22076e-07 0)
(2.75087e-05 4.64318e-06 0)
(8.09517e-05 4.50273e-06 0)
(0.000130824 4.21394e-06 0)
(0.000176525 3.83366e-06 0)
(0.000217882 3.41122e-06 0)
(0.000255021 2.98224e-06 0)
(0.000288245 2.56889e-06 0)
(0.000317934 2.18293e-06 0)
(0.000344484 1.82909e-06 0)
(0.000368271 1.50788e-06 0)
(0.000389635 1.21758e-06 0)
(0.000408876 9.55477e-07 0)
(0.000426256 7.18624e-07 0)
(0.000441997 5.04193e-07 0)
(0.000456295 3.09643e-07 0)
(0.000469315 1.32725e-07 0)
(0.000481177 -4.36882e-08 0)
(0.000491914 -2.41256e-07 0)
(0.000604423 -0.00129193 -1.66906e-29)
(0.00180251 -0.00125688 1.62235e-29)
(0.00296589 -0.00119803 0)
(0.0040784 -0.00113046 0)
(0.00511279 -0.00101704 0)
(0.00606362 -0.000940805 -1.2088e-29)
(0.00692785 -0.000824366 0)
(0.00765353 -0.000646008 0)
(0.00824274 -0.000537975 0)
(0.00876126 -0.000495279 0)
(0.00926835 -0.000506749 6.44017e-30)
(0.00980862 -0.000552016 0)
(0.0103942 -0.000586232 0)
(0.010996 -0.000574091 0)
(0.0115688 -0.00052132 0)
(0.0120846 -0.000457343 5.76836e-30)
(0.0125406 -0.00040061 0)
(0.0129466 -0.000356841 0)
(0.0133133 -0.000321868 0)
(0.0136445 -0.000286041 0)
(0.013937 -0.000246393 0)
(0.0141886 -0.000207896 0)
(0.0144014 -0.000173211 0)
(0.0145788 -0.000142013 1.66338e-30)
(0.0147232 -0.000112386 -1.27875e-30)
(0.0148349 -8.27208e-05 8.94022e-31)
(0.0149132 -5.30039e-05 5.09014e-31)
(0.0149579 -2.38916e-05 0)
(0.0149696 3.82361e-06 0)
(0.01495 2.92671e-05 5.5475e-31)
(0.0149016 5.16768e-05 8.43815e-31)
(0.014828 7.06497e-05 0)
(0.0147328 8.61254e-05 0)
(0.01462 9.82812e-05 1.44284e-30)
(0.0144931 0.000107429 0)
(0.0143553 0.00011394 0)
(0.0142097 0.000118196 -1.69538e-30)
(0.0140587 0.000120561 0)
(0.0139044 0.000121366 -1.73276e-30)
(0.0137486 0.000120906 -3.44995e-30)
(0.0135927 0.000119435 0)
(0.013438 0.000117169 0)
(0.0132854 0.000114294 0)
(0.0131356 0.000110962 0)
(0.0129893 0.000107302 0)
(0.0128468 0.000103417 -2.97658e-30)
(0.0127085 9.9394e-05 -2.86931e-30)
(0.0125746 9.52999e-05 -2.76032e-30)
(0.0124454 9.11893e-05 0)
(0.0123207 8.71048e-05 2.54249e-30)
(0.0122007 8.30792e-05 0)
(0.0120854 7.91374e-05 -2.33098e-30)
(0.0119747 7.52982e-05 -2.22913e-30)
(0.0118685 7.15749e-05 0)
(0.0117667 6.79769e-05 0)
(0.0116693 6.45099e-05 0)
(0.0115761 6.11776e-05 -1.8547e-30)
(0.011487 5.79811e-05 0)
(0.0114019 5.49202e-05 0)
(0.0113206 5.19935e-05 0)
(0.011243 4.91986e-05 0)
(0.0111689 4.65323e-05 0)
(0.0110983 4.39912e-05 0)
(0.011031 4.15714e-05 0)
(0.0109669 3.92687e-05 0)
(0.0109058 3.70788e-05 1.21594e-30)
(0.0108477 3.49975e-05 0)
(0.0107923 3.30205e-05 0)
(0.0107396 3.11434e-05 -1.05859e-30)
(0.0106896 2.9362e-05 -1.01137e-30)
(0.010642 2.76722e-05 0)
(0.0105967 2.60699e-05 9.24071e-31)
(0.0105537 2.45513e-05 -8.83802e-31)
(0.0105129 2.31124e-05 0)
(0.0104742 2.17497e-05 8.09506e-31)
(0.0104374 2.04596e-05 0)
(0.0104025 1.92387e-05 0)
(0.0103694 1.80836e-05 -7.12264e-31)
(0.0103381 1.69913e-05 0)
(0.0103084 1.59587e-05 6.55896e-31)
(0.0102803 1.49829e-05 0)
(0.0102536 1.4061e-05 -6.05552e-31)
(0.0102284 1.31905e-05 -5.82454e-31)
(0.0102046 1.23688e-05 -5.6065e-31)
(0.010182 1.15935e-05 -1.08015e-30)
(0.0101607 1.08621e-05 1.04133e-30)
(0.0101406 1.01725e-05 0)
(0.0101216 9.52254e-06 0)
(0.0101036 8.91019e-06 0)
(0.0100867 8.33349e-06 9.07108e-31)
(0.0100707 7.79059e-06 8.78288e-31)
(0.0100556 7.27972e-06 -8.51164e-31)
(0.0100414 6.7992e-06 0)
(0.0100281 6.3474e-06 8.01662e-31)
(0.0100155 5.92281e-06 7.79121e-31)
(0.0100036 5.52395e-06 7.57941e-31)
(0.0099925 5.14943e-06 0)
(0.00998203 4.79793e-06 0)
(0.00997218 4.46819e-06 0)
(0.00996294 4.15899e-06 6.85452e-31)
(0.00995426 3.86921e-06 0)
(0.00994612 3.59775e-06 0)
(0.00993849 3.34357e-06 -6.42137e-31)
(0.00993133 3.1057e-06 0)
(0.00992463 2.88321e-06 0)
(0.00991835 2.67519e-06 -6.06634e-31)
(0.00991248 2.48083e-06 0)
(0.00990698 2.2993e-06 0)
(0.00990185 2.12986e-06 5.77662e-31)
(0.00989705 1.97179e-06 5.69263e-31)
(0.00989257 1.8244e-06 0)
(0.00988839 1.68706e-06 -5.54136e-31)
(0.00988449 1.55913e-06 0)
(0.00988086 1.44006e-06 5.41009e-31)
(0.00987747 1.32929e-06 0)
(0.00987432 1.2263e-06 5.29651e-31)
(0.00987139 1.1306e-06 5.2456e-31)
(0.00986866 1.04173e-06 0)
(0.00986612 9.59254e-07 0)
(0.00986377 8.82756e-07 0)
(0.00986158 8.11848e-07 0)
(0.00985956 7.46163e-07 0)
(0.00985768 6.85356e-07 0)
(0.00985594 6.29101e-07 0)
(0.00985432 5.77092e-07 4.95144e-31)
(0.00985283 5.29042e-07 -4.92585e-31)
(0.00985145 4.84679e-07 0)
(0.00985018 4.4375e-07 0)
(0.009849 4.06018e-07 0)
(0.00984792 3.71258e-07 0)
(0.00984691 3.39264e-07 -9.6499e-31)
(0.00984599 3.09839e-07 0)
(0.00984514 2.82802e-07 9.58986e-31)
(0.00984435 2.57984e-07 -9.56347e-31)
(0.00984363 2.35228e-07 0)
(0.00984297 2.14388e-07 0)
(0.00984236 1.9533e-07 0)
(0.0098418 1.7793e-07 9.47832e-31)
(0.00984128 1.62078e-07 9.46144e-31)
(0.00984081 1.47671e-07 0)
(0.00984037 1.34619e-07 9.43215e-31)
(0.00983997 1.22843e-07 9.41956e-31)
(0.0098396 1.12276e-07 -9.40834e-31)
(0.00983926 1.02862e-07 0)
(0.00983894 9.45625e-08 0)
(0.00983865 8.73504e-08 -9.38166e-31)
(0.00983837 8.12176e-08 0)
(0.00983811 7.6176e-08 0)
(0.00983787 7.22609e-08 0)
(0.00983763 6.95361e-08 0)
(0.0098374 6.80994e-08 9.36056e-31)
(0.00983716 6.80908e-08 9.36033e-31)
(0.00983692 6.97024e-08 0)
(0.00983668 7.31909e-08 9.36516e-31)
(0.00983641 7.88952e-08 0)
(0.00983611 8.72572e-08 0)
(0.00983578 9.88505e-08 9.39084e-31)
(0.00983539 1.14417e-07 0)
(0.00983494 1.34914e-07 9.42735e-31)
(0.00983439 1.6158e-07 0)
(0.00983373 1.96016e-07 0)
(0.00983291 2.40297e-07 9.53437e-31)
(0.00983189 2.97127e-07 0)
(0.00983061 3.7004e-07 9.66634e-31)
(0.009829 4.63687e-07 0)
(0.00982695 5.84234e-07 0)
(0.00982434 7.3993e-07 0)
(0.009821 9.41948e-07 -1.02486e-30)
(0.00981668 1.20563e-06 0)
(0.00981109 1.55243e-06 1.08705e-30)
(0.00980379 2.01307e-06 0)
(0.00979418 2.63276e-06 0)
(0.00978142 3.4806e-06 0)
(0.00976425 4.66735e-06 0)
(0.00974073 6.38193e-06 0)
(0.00970772 8.97512e-06 0)
(0.00965964 1.31797e-05 0)
(0.00958513 2.08131e-05 -6.11444e-30)
(0.00945558 3.77027e-05 0)
(0.00916848 9.06621e-05 0)
(0.000637862 -0.00368184 4.75639e-29)
(0.00191254 -0.00361609 -4.6669e-29)
(0.00314212 -0.00343002 0)
(0.00437394 -0.00345407 8.9079e-29)
(0.00544675 -0.00283573 0)
(0.00643447 -0.00301767 -3.89265e-29)
(0.00752068 -0.00273179 -7.02599e-29)
(0.00823034 -0.00164983 -4.22583e-29)
(0.00854447 -0.00135026 0)
(0.00882324 -0.00127197 -3.2463e-29)
(0.00915625 -0.00138977 1.78543e-29)
(0.00965221 -0.00169884 0)
(0.0103496 -0.0019326 0)
(0.0111189 -0.00187139 0)
(0.0117898 -0.00160337 0)
(0.0123118 -0.00134483 1.72362e-29)
(0.0127283 -0.00115517 0)
(0.0130923 -0.0010392 2.62445e-29)
(0.0134432 -0.000967662 0)
(0.0137819 -0.000870051 0)
(0.0140782 -0.000734563 -1.83232e-29)
(0.0143198 -0.00061058 0)
(0.0145186 -0.000507838 1.24417e-29)
(0.0146862 -0.000420478 5.26119e-30)
(0.014827 -0.000336659 -4.17619e-30)
(0.014938 -0.000247719 3.02536e-30)
(0.0150146 -0.000156632 1.84718e-30)
(0.0150551 -6.70379e-05 0)
(0.0150599 1.85127e-05 0)
(0.0150306 9.68358e-05 1.42901e-30)
(0.0149709 0.000164981 7.2806e-30)
(0.0148852 0.00022184 0)
(0.0147784 0.000267567 0)
(0.0146549 0.000303002 4.0892e-30)
(0.0145186 0.000329295 0)
(0.0143728 0.000347692 0)
(0.0142205 0.00035941 -4.81313e-30)
(0.0140639 0.000365575 0)
(0.0139052 0.00036719 -1.50581e-29)
(0.0137458 0.00036513 -9.76293e-30)
(0.0135872 0.000360149 0)
(0.0134304 0.000352885 0)
(0.0132762 0.000343877 1.90318e-29)
(0.0131253 0.000333573 1.84848e-29)
(0.0129782 0.000322346 1.78905e-29)
(0.0128353 0.000310498 -2.55937e-29)
(0.0126968 0.000298277 -8.01004e-30)
(0.0125629 0.000285879 8.27958e-30)
(0.0124338 0.00027346 -1.53117e-29)
(0.0123093 0.000261142 7.04097e-30)
(0.0121896 0.000249019 0)
(0.0120746 0.000237162 -6.41557e-30)
(0.0119643 0.000225624 -1.89091e-29)
(0.0118585 0.000214443 0)
(0.0117572 0.000203644 0)
(0.0116602 0.000193243 0)
(0.0115675 0.00018325 -5.01e-30)
(0.0114788 0.000173667 0)
(0.0113941 0.000164494 -9.58012e-30)
(0.0113132 0.000155723 0)
(0.011236 0.00014735 -8.67887e-30)
(0.0111623 0.000139362 0)
(0.0110921 0.000131751 7.85884e-30)
(0.0110251 0.000124503 0)
(0.0109613 0.000117606 -7.11523e-30)
(0.0109006 0.000111048 9.89829e-30)
(0.0108427 0.000104814 0)
(0.0107876 9.88937e-05 6.13143e-30)
(0.0107353 9.32724e-05 -2.66448e-30)
(0.0106854 8.79378e-05 -2.52542e-30)
(0.0106381 8.28774e-05 0)
(0.0105931 7.80792e-05 7.30537e-30)
(0.0105503 7.35315e-05 -2.14983e-30)
(0.0105097 6.92227e-05 0)
(0.0104711 6.51419e-05 1.93109e-30)
(0.0104346 6.12784e-05 4.15342e-30)
(0.0103999 5.76221e-05 0)
(0.010367 5.4163e-05 -1.64484e-30)
(0.0103358 5.08918e-05 0)
(0.0103062 4.77993e-05 -1.96555e-30)
(0.0102782 4.48769e-05 0)
(0.0102517 4.21161e-05 1.81478e-30)
(0.0102266 3.95091e-05 -1.26273e-30)
(0.0102029 3.70482e-05 -4.07743e-30)
(0.0101805 3.4726e-05 -7.7894e-30)
(0.0101593 3.25356e-05 7.44468e-30)
(0.0101392 3.04703e-05 0)
(0.0101203 2.85236e-05 0)
(0.0101024 2.66896e-05 0)
(0.0100856 2.49623e-05 -2.7192e-30)
(0.0100697 2.33363e-05 1.68193e-30)
(0.0100547 2.18061e-05 -1.60212e-30)
(0.0100405 2.03669e-05 0)
(0.0100272 1.90137e-05 5.3163e-30)
(0.0100147 1.77419e-05 1.39012e-30)
(0.0100029 1.65472e-05 1.3278e-30)
(0.00999182 1.54254e-05 0)
(0.00998139 1.43726e-05 0)
(0.00997159 1.33849e-05 0)
(0.00996239 1.24587e-05 1.11451e-30)
(0.00995375 1.15907e-05 0)
(0.00994565 1.07776e-05 2.99284e-30)
(0.00993805 1.00162e-05 1.9256e-30)
(0.00993092 9.30367e-06 -2.83767e-30)
(0.00992425 8.63719e-06 0)
(0.009918 8.01409e-06 -3.58452e-30)
(0.00991215 7.43186e-06 0)
(0.00990668 6.88809e-06 -2.58333e-30)
(0.00990157 6.38053e-06 3.32728e-30)
(0.00989679 5.90701e-06 3.25272e-30)
(0.00989233 5.4655e-06 0)
(0.00988817 5.05405e-06 1.662e-30)
(0.00988429 4.67085e-06 -2.34983e-30)
(0.00988067 4.31415e-06 6.89587e-31)
(0.0098773 3.98232e-06 0)
(0.00987416 3.67379e-06 6.56176e-31)
(0.00987124 3.38711e-06 -1.57343e-30)
(0.00986852 3.12088e-06 0)
(0.009866 2.8738e-06 -2.16057e-30)
(0.00986366 2.64463e-06 -2.13644e-30)
(0.00986148 2.43221e-06 -2.11406e-30)
(0.00985946 2.23544e-06 0)
(0.00985759 2.05327e-06 0)
(0.00985586 1.88474e-06 0)
(0.00985425 1.72893e-06 2.59467e-30)
(0.00985277 1.58498e-06 -5.47173e-31)
(0.00985139 1.45208e-06 0)
(0.00985012 1.32946e-06 1.99789e-30)
(0.00984895 1.21642e-06 1.98599e-30)
(0.00984787 1.11229e-06 0)
(0.00984687 1.01643e-06 -1.035e-30)
(0.00984595 9.28277e-07 3.91126e-30)
(0.0098451 8.47276e-07 1.01735e-30)
(0.00984432 7.72922e-07 -4.88809e-30)
(0.0098436 7.04744e-07 0)
(0.00984294 6.42306e-07 0)
(0.00984233 5.85207e-07 0)
(0.00984178 5.33077e-07 9.84551e-31)
(0.00984126 4.85579e-07 4.79752e-30)
(0.00984079 4.42411e-07 3.80883e-30)
(0.00984036 4.03302e-07 9.70995e-31)
(0.00983996 3.68014e-07 4.76043e-30)
(0.00983959 3.36345e-07 -9.64001e-31)
(0.00983925 3.08133e-07 0)
(0.00983893 2.83254e-07 0)
(0.00983864 2.6163e-07 -4.72682e-30)
(0.00983837 2.43237e-07 0)
(0.00983811 2.28109e-07 0)
(0.00983786 2.16351e-07 3.76097e-30)
(0.00983763 2.08152e-07 0)
(0.00983739 2.03804e-07 4.70829e-30)
(0.00983716 2.03725e-07 9.50058e-31)
(0.00983693 2.08487e-07 0)
(0.00983668 2.18857e-07 4.71262e-30)
(0.00983642 2.35845e-07 0)
(0.00983612 2.6077e-07 0)
(0.00983579 2.95345e-07 9.59403e-31)
(0.00983541 3.41782e-07 3.78599e-30)
(0.00983496 4.02941e-07 9.70451e-31)
(0.00983442 4.82514e-07 0)
(0.00983377 5.85279e-07 0)
(0.00983296 7.1743e-07 4.86552e-30)
(0.00983196 8.87027e-07 0)
(0.0098307 1.10461e-06 4.98455e-30)
(0.00982911 1.38405e-06 0)
(0.00982709 1.74371e-06 0)
(0.00982452 2.20816e-06 0)
(0.00982123 2.81064e-06 -1.2181e-30)
(0.00981699 3.59677e-06 0)
(0.00981149 4.63026e-06 1.40533e-30)
(0.00980432 6.00212e-06 0)
(0.00979489 7.84604e-06 0)
(0.0097824 1.03656e-05 5.83884e-30)
(0.00976562 1.38856e-05 -6.5604e-30)
(0.00974275 1.89554e-05 0)
(0.00971088 2.65824e-05 0)
(0.00966508 3.88223e-05 0)
(0.00959628 6.05398e-05 1.79568e-29)
(0.00948695 0.000105844 0)
(0.00931449 0.000227889 -1.0129e-28)
(0.000255962 -0.00277791 1.43584e-28)
(0.000805901 -0.00275172 -1.91746e-32)
(0.00150184 -0.00263416 0)
(0.00239505 -0.00275938 5.66936e-32)
(0.00369602 -0.00228635 0)
(0.00558044 -0.00252768 0)
(0.0079807 -0.00231977 -1.18987e-28)
(0.00900908 -0.00140364 -3.58578e-29)
(0.00854479 -0.00129037 3.27498e-29)
(0.00827825 -0.00135474 -3.46283e-29)
(0.00813413 -0.00167671 0)
(0.0085963 -0.00328159 0)
(0.0100107 -0.00444932 -1.14303e-28)
(0.0116166 -0.00393594 -2.01837e-28)
(0.0125679 -0.00264676 1.35054e-28)
(0.0129298 -0.00198192 0)
(0.0131125 -0.00164737 8.33094e-29)
(0.0132938 -0.00156531 3.98345e-29)
(0.0136228 -0.00169953 0)
(0.0140683 -0.00157823 7.95996e-29)
(0.0144061 -0.00118243 -2.98848e-29)
(0.0145954 -0.000942172 -4.66415e-29)
(0.0147397 -0.000791431 1.9762e-29)
(0.0148808 -0.000685957 0)
(0.0150255 -0.000574865 2.75913e-29)
(0.0151475 -0.000417418 1.94342e-29)
(0.0152246 -0.000254054 0)
(0.0152575 -9.66823e-05 2.83703e-30)
(0.0152478 5.5531e-05 0)
(0.0151968 0.000194568 -1.22116e-29)
(0.0151108 0.000310859 8.74901e-30)
(0.0149984 0.000404453 0)
(0.0148668 0.00047747 0)
(0.0147212 0.000532499 0)
(0.014566 0.000572139 0)
(0.0144043 0.000598831 0)
(0.0142389 0.000614785 0)
(0.0140717 0.000621942 -3.41469e-29)
(0.0139045 0.000621977 1.73907e-29)
(0.0137384 0.000616314 0)
(0.0135746 0.000606159 0)
(0.0134139 0.000592529 0)
(0.0132569 0.000576275 6.27151e-29)
(0.013104 0.000558103 3.00907e-29)
(0.0129556 0.000538595 -6.11688e-31)
(0.0128119 0.000518223 6.04901e-31)
(0.0126731 0.000497369 2.75085e-29)
(0.0125392 0.000476334 2.581e-29)
(0.0124103 0.000455358 -5.00127e-29)
(0.0122864 0.000434624 -2.42099e-29)
(0.0121673 0.000414274 0)
(0.0120531 0.000394414 -2.2098e-29)
(0.0119435 0.000375122 -4.16064e-29)
(0.0118386 0.000356452 0)
(0.0117381 0.00033844 0)
(0.011642 0.000321109 1.82501e-29)
(0.0115502 0.00030447 0)
(0.0114624 0.000288523 0)
(0.0113785 0.000273263 -4.66802e-29)
(0.0112984 0.000258681 -2.99478e-29)
(0.011222 0.000244761 -1.37136e-29)
(0.0111491 0.000231488 0)
(0.0110796 0.00021884 1.23601e-29)
(0.0110133 0.000206799 0)
(0.0109502 0.000195343 -3.44333e-29)
(0.0108901 0.00018445 1.05642e-29)
(0.0108328 0.000174098 2.10703e-29)
(0.0107784 0.000164264 2.95482e-29)
(0.0107265 0.000154929 0)
(0.0106772 0.00014607 -1.81282e-29)
(0.0106303 0.000137666 0)
(0.0105858 0.000129698 -8.70454e-30)
(0.0105435 0.000122145 -1.56166e-29)
(0.0105033 0.00011499 -1.48653e-29)
(0.0104651 0.000108212 1.41538e-29)
(0.0104289 0.000101796 -7.23246e-30)
(0.0103946 9.57239e-05 0)
(0.010362 8.99791e-05 0)
(0.0103311 8.45462e-05 1.16687e-29)
(0.0103018 7.941e-05 6.05112e-30)
(0.0102741 7.45562e-05 0)