/*--------------------------------*- C++ -*----------------------------------*\
  =========                 |
  \\      /  F ield         | OpenFOAM: The Open Source CFD Toolbox
   \\    /   O peration     | Website:  https://openfoam.org
    \\  /    A nd           | Version:  10
     \\/     M anipulation  |
\*---------------------------------------------------------------------------*/
FoamFile
{
    format      ascii;
    class       volScalarField;
    location    "2.4";
    object      p;
}
// * * * * * * * * * * * * * * * * * * * * * * * * * * * * * * * * * * * * * //

dimensions      [1 -1 -2 0 0 0 0];

internalField   nonuniform List<scalar> 
12225
(
1.76911e+07
1.76383e+07
1.75438e+07
1.74194e+07
1.72751e+07
1.71185e+07
1.6955e+07
1.67879e+07
1.66195e+07
1.6451e+07
1.6283e+07
1.61153e+07
1.59477e+07
1.57791e+07
1.56079e+07
1.54311e+07
1.52427e+07
1.50276e+07
1.76933e+07
1.76402e+07
1.75454e+07
1.74207e+07
1.72761e+07
1.71193e+07
1.69556e+07
1.67885e+07
1.662e+07
1.64515e+07
1.62835e+07
1.6116e+07
1.59485e+07
1.57802e+07
1.56095e+07
1.54337e+07
1.5248e+07
1.50434e+07
1.76981e+07
1.76445e+07
1.75489e+07
1.74234e+07
1.72782e+07
1.7121e+07
1.69569e+07
1.67896e+07
1.66211e+07
1.64526e+07
1.62846e+07
1.61173e+07
1.59502e+07
1.57826e+07
1.56129e+07
1.54393e+07
1.52584e+07
1.50671e+07
1.7706e+07
1.76516e+07
1.75548e+07
1.7428e+07
1.72818e+07
1.71237e+07
1.69591e+07
1.67915e+07
1.66228e+07
1.64543e+07
1.62865e+07
1.61195e+07
1.59531e+07
1.57864e+07
1.56184e+07
1.54478e+07
1.52731e+07
1.50948e+07
1.77178e+07
1.76621e+07
1.75634e+07
1.74348e+07
1.72869e+07
1.71277e+07
1.69623e+07
1.67941e+07
1.66252e+07
1.64568e+07
1.62892e+07
1.61228e+07
1.59571e+07
1.57918e+07
1.5626e+07
1.54592e+07
1.52912e+07
1.51243e+07
1.77342e+07
1.76767e+07
1.75753e+07
1.7444e+07
1.7294e+07
1.71331e+07
1.69666e+07
1.67978e+07
1.66286e+07
1.64601e+07
1.62929e+07
1.61271e+07
1.59625e+07
1.57989e+07
1.56358e+07
1.54733e+07
1.53119e+07
1.51548e+07
1.77564e+07
1.76962e+07
1.75911e+07
1.74562e+07
1.73032e+07
1.71402e+07
1.69722e+07
1.68025e+07
1.66329e+07
1.64644e+07
1.62976e+07
1.61326e+07
1.59693e+07
1.58077e+07
1.56477e+07
1.54896e+07
1.53346e+07
1.51855e+07
1.77855e+07
1.77217e+07
1.76115e+07
1.74718e+07
1.7315e+07
1.71491e+07
1.69792e+07
1.68084e+07
1.66382e+07
1.64698e+07
1.63034e+07
1.61394e+07
1.59777e+07
1.58183e+07
1.56616e+07
1.5508e+07
1.53588e+07
1.52164e+07
1.78232e+07
1.77543e+07
1.76373e+07
1.74912e+07
1.73294e+07
1.71599e+07
1.69877e+07
1.68155e+07
1.66447e+07
1.64762e+07
1.63104e+07
1.61475e+07
1.59875e+07
1.58306e+07
1.56772e+07
1.55279e+07
1.5384e+07
1.52473e+07
1.78716e+07
1.77956e+07
1.76693e+07
1.7515e+07
1.73467e+07
1.71728e+07
1.69977e+07
1.68238e+07
1.66522e+07
1.64837e+07
1.63185e+07
1.61568e+07
1.59987e+07
1.58445e+07
1.56944e+07
1.55492e+07
1.541e+07
1.52781e+07
1.79336e+07
1.78474e+07
1.77085e+07
1.75433e+07
1.73671e+07
1.71878e+07
1.70092e+07
1.68333e+07
1.66608e+07
1.64923e+07
1.63278e+07
1.61674e+07
1.60113e+07
1.58596e+07
1.57129e+07
1.55715e+07
1.54365e+07
1.53087e+07
1.80066e+07
1.79066e+07
1.77518e+07
1.75737e+07
1.73884e+07
1.72032e+07
1.70209e+07
1.68429e+07
1.66696e+07
1.6501e+07
1.63372e+07
1.61781e+07
1.60238e+07
1.58746e+07
1.57307e+07
1.55926e+07
1.5461e+07
1.53365e+07
1.80966e+07
1.79768e+07
1.78012e+07
1.76073e+07
1.74115e+07
1.72195e+07
1.70332e+07
1.6853e+07
1.66787e+07
1.65101e+07
1.63471e+07
1.61893e+07
1.6037e+07
1.58901e+07
1.57489e+07
1.56139e+07
1.54853e+07
1.53637e+07
1.82297e+07
1.80746e+07
1.78659e+07
1.76494e+07
1.74392e+07
1.72387e+07
1.70475e+07
1.68647e+07
1.66894e+07
1.65209e+07
1.63588e+07
1.62027e+07
1.60525e+07
1.59083e+07
1.57701e+07
1.56382e+07
1.55128e+07
1.53941e+07
1.84373e+07
1.82108e+07
1.79477e+07
1.76986e+07
1.74701e+07
1.72593e+07
1.70626e+07
1.68771e+07
1.6701e+07
1.65329e+07
1.63721e+07
1.6218e+07
1.60704e+07
1.5929e+07
1.5794e+07
1.56654e+07
1.55432e+07
1.54274e+07
1.87887e+07
1.83925e+07
1.8039e+07
1.77471e+07
1.74979e+07
1.72768e+07
1.70752e+07
1.68879e+07
1.67117e+07
1.65448e+07
1.63859e+07
1.62343e+07
1.60897e+07
1.59516e+07
1.582e+07
1.56947e+07
1.55758e+07
1.5463e+07
1.94716e+07
1.8575e+07
1.80977e+07
1.77687e+07
1.75066e+07
1.72811e+07
1.70785e+07
1.68921e+07
1.67179e+07
1.65536e+07
1.63979e+07
1.62498e+07
1.61087e+07
1.59744e+07
1.58465e+07
1.57248e+07
1.56092e+07
1.54995e+07
1.86299e+07
1.82995e+07
1.79793e+07
1.77045e+07
1.74662e+07
1.7254e+07
1.70606e+07
1.68813e+07
1.67132e+07
1.65545e+07
1.6404e+07
1.62608e+07
1.61245e+07
1.59947e+07
1.5871e+07
1.57533e+07
1.56413e+07
1.55349e+07
1.80678e+07
1.79336e+07
1.77497e+07
1.75557e+07
1.73659e+07
1.71844e+07
1.70117e+07
1.68476e+07
1.66912e+07
1.6542e+07
1.63995e+07
1.62634e+07
1.61333e+07
1.6009e+07
1.58904e+07
1.57772e+07
1.56692e+07
1.55663e+07
1.77483e+07
1.76719e+07
1.75505e+07
1.74073e+07
1.72555e+07
1.71021e+07
1.69505e+07
1.68023e+07
1.66585e+07
1.65195e+07
1.63853e+07
1.62562e+07
1.61322e+07
1.60131e+07
1.5899e+07
1.57897e+07
1.56852e+07
1.55853e+07
1.75661e+07
1.75115e+07
1.74187e+07
1.73025e+07
1.71736e+07
1.70386e+07
1.69015e+07
1.6765e+07
1.66305e+07
1.6499e+07
1.63712e+07
1.62474e+07
1.61278e+07
1.60125e+07
1.59017e+07
1.57953e+07
1.56932e+07
1.55955e+07
1.74458e+07
1.74019e+07
1.73248e+07
1.72251e+07
1.7111e+07
1.69886e+07
1.68621e+07
1.67342e+07
1.66069e+07
1.64813e+07
1.63583e+07
1.62386e+07
1.61225e+07
1.60102e+07
1.59019e+07
1.57977e+07
1.56975e+07
1.56014e+07
1.73645e+07
1.73266e+07
1.72588e+07
1.71692e+07
1.70649e+07
1.69512e+07
1.68321e+07
1.67104e+07
1.65882e+07
1.6467e+07
1.63477e+07
1.6231e+07
1.61175e+07
1.60074e+07
1.59011e+07
1.57985e+07
1.56998e+07
1.56049e+07
1.73093e+07
1.72749e+07
1.72128e+07
1.71297e+07
1.70318e+07
1.69239e+07
1.681e+07
1.66927e+07
1.65742e+07
1.64561e+07
1.63394e+07
1.6225e+07
1.61134e+07
1.60049e+07
1.58999e+07
1.57985e+07
1.57008e+07
1.56068e+07
1.72719e+07
1.72397e+07
1.71812e+07
1.71023e+07
1.70086e+07
1.69047e+07
1.67942e+07
1.668e+07
1.65641e+07
1.64481e+07
1.63333e+07
1.62205e+07
1.61102e+07
1.60029e+07
1.58989e+07
1.57983e+07
1.57013e+07
1.5608e+07
1.72471e+07
1.72163e+07
1.716e+07
1.70839e+07
1.69929e+07
1.68916e+07
1.67834e+07
1.66712e+07
1.6557e+07
1.64426e+07
1.6329e+07
1.62172e+07
1.61078e+07
1.60013e+07
1.5898e+07
1.5798e+07
1.57015e+07
1.56086e+07
1.72312e+07
1.72012e+07
1.71464e+07
1.70719e+07
1.69827e+07
1.6883e+07
1.67763e+07
1.66654e+07
1.65523e+07
1.64388e+07
1.63261e+07
1.6215e+07
1.61062e+07
1.60002e+07
1.58973e+07
1.57977e+07
1.57015e+07
1.56089e+07
1.72215e+07
1.71921e+07
1.71381e+07
1.70646e+07
1.69764e+07
1.68777e+07
1.67719e+07
1.66618e+07
1.65494e+07
1.64365e+07
1.63243e+07
1.62136e+07
1.61052e+07
1.59995e+07
1.58969e+07
1.57975e+07
1.57015e+07
1.5609e+07
1.72163e+07
1.71871e+07
1.71336e+07
1.70606e+07
1.6973e+07
1.68748e+07
1.67695e+07
1.66598e+07
1.65478e+07
1.64352e+07
1.63233e+07
1.62128e+07
1.61046e+07
1.59991e+07
1.58966e+07
1.57974e+07
1.57015e+07
1.56091e+07
1.72142e+07
1.71851e+07
1.71317e+07
1.7059e+07
1.69716e+07
1.68736e+07
1.67685e+07
1.6659e+07
1.65472e+07
1.64347e+07
1.63228e+07
1.62125e+07
1.61044e+07
1.59989e+07
1.58965e+07
1.57973e+07
1.57015e+07
1.56091e+07
1.30399e+07
1.30388e+07
1.30366e+07
1.30333e+07
1.30288e+07
1.30231e+07
1.30162e+07
1.30081e+07
1.29987e+07
1.29881e+07
1.29762e+07
1.29629e+07
1.29484e+07
1.29325e+07
1.29153e+07
1.28967e+07
1.28768e+07
1.28555e+07
1.28328e+07
1.28086e+07
1.27831e+07
1.27562e+07
1.27278e+07
1.2698e+07
1.26667e+07
1.2634e+07
1.25998e+07
1.25641e+07
1.25269e+07
1.24881e+07
1.24478e+07
1.24059e+07
1.23624e+07
1.23172e+07
1.22704e+07
1.22219e+07
1.21717e+07
1.21197e+07
1.20659e+07
1.20103e+07
1.19527e+07
1.18931e+07
1.18315e+07
1.17676e+07
1.17014e+07
1.16327e+07
1.15613e+07
1.1487e+07
1.14095e+07
1.13284e+07
1.12432e+07
1.11532e+07
1.10573e+07
1.09538e+07
1.08391e+07
1.07045e+07
1.06907e+07
1.06872e+07
1.06839e+07
1.06807e+07
1.06776e+07
1.06746e+07
1.06716e+07
1.06686e+07
1.06657e+07
1.06629e+07
1.066e+07
1.06572e+07
1.06544e+07
1.06516e+07
1.06488e+07
1.0646e+07
1.06432e+07
1.06405e+07
1.06378e+07
1.0635e+07
1.06323e+07
1.06295e+07
1.06268e+07
1.06241e+07
1.06214e+07
1.06186e+07
1.06159e+07
1.06132e+07
1.06104e+07
1.06077e+07
1.06049e+07
1.06022e+07
1.05994e+07
1.05966e+07
1.05939e+07
1.05911e+07
1.05883e+07
1.05854e+07
1.05826e+07
1.05798e+07
1.05769e+07
1.05741e+07
1.05712e+07
1.05683e+07
1.05654e+07
1.05625e+07
1.05595e+07
1.05566e+07
1.05536e+07
1.05506e+07
1.05476e+07
1.05446e+07
1.05415e+07
1.05385e+07
1.05354e+07
1.05323e+07
1.05292e+07
1.0526e+07
1.05228e+07
1.05196e+07
1.05164e+07
1.05132e+07
1.05099e+07
1.05067e+07
1.05034e+07
1.05e+07
1.04967e+07
1.04933e+07
1.04899e+07
1.04865e+07
1.0483e+07
1.04796e+07
1.04761e+07
1.04725e+07
1.0469e+07
1.04654e+07
1.04618e+07
1.04582e+07
1.04545e+07
1.04508e+07
1.04471e+07
1.04434e+07
1.04396e+07
1.04358e+07
1.0432e+07
1.04281e+07
1.04242e+07
1.04203e+07
1.04163e+07
1.04123e+07
1.04083e+07
1.04043e+07
1.04002e+07
1.03961e+07
1.0392e+07
1.03878e+07
1.03836e+07
1.03794e+07
1.03751e+07
1.03708e+07
1.03665e+07
1.03621e+07
1.03577e+07
1.03533e+07
1.03488e+07
1.03443e+07
1.03398e+07
1.03352e+07
1.03306e+07
1.0326e+07
1.03213e+07
1.03166e+07
1.03118e+07
1.03071e+07
1.03022e+07
1.02974e+07
1.02925e+07
1.02876e+07
1.02827e+07
1.02777e+07
1.02727e+07
1.02677e+07
1.02628e+07
1.02578e+07
1.30442e+07
1.30431e+07
1.30409e+07
1.30376e+07
1.30331e+07
1.30273e+07
1.30204e+07
1.30123e+07
1.30029e+07
1.29922e+07
1.29802e+07
1.2967e+07
1.29524e+07
1.29364e+07
1.29192e+07
1.29005e+07
1.28805e+07
1.28591e+07
1.28363e+07
1.28122e+07
1.27866e+07
1.27596e+07
1.27312e+07
1.27013e+07
1.267e+07
1.26373e+07
1.2603e+07
1.25673e+07
1.25301e+07
1.24913e+07
1.2451e+07
1.24092e+07
1.23657e+07
1.23206e+07
1.22739e+07
1.22254e+07
1.21753e+07
1.21234e+07
1.20697e+07
1.20141e+07
1.19566e+07
1.18971e+07
1.18356e+07
1.17719e+07
1.17058e+07
1.16374e+07
1.15663e+07
1.14924e+07
1.14154e+07
1.1335e+07
1.12508e+07
1.11622e+07
1.10684e+07
1.09681e+07
1.08587e+07
1.07331e+07
1.069e+07
1.06868e+07
1.06836e+07
1.06805e+07
1.06774e+07
1.06744e+07
1.06715e+07
1.06685e+07
1.06656e+07
1.06628e+07
1.06599e+07
1.06571e+07
1.06543e+07
1.06515e+07
1.06487e+07
1.0646e+07
1.06432e+07
1.06405e+07
1.06377e+07
1.0635e+07
1.06322e+07
1.06295e+07
1.06268e+07
1.06241e+07
1.06213e+07
1.06186e+07
1.06159e+07
1.06131e+07
1.06104e+07
1.06077e+07
1.06049e+07
1.06022e+07
1.05994e+07
1.05966e+07
1.05938e+07
1.05911e+07
1.05882e+07
1.05854e+07
1.05826e+07
1.05798e+07
1.05769e+07
1.05741e+07
1.05712e+07
1.05683e+07
1.05654e+07
1.05625e+07
1.05595e+07
1.05566e+07
1.05536e+07
1.05506e+07
1.05476e+07
1.05446e+07
1.05415e+07
1.05385e+07
1.05354e+07
1.05323e+07
1.05291e+07
1.0526e+07
1.05228e+07
1.05196e+07
1.05164e+07
1.05132e+07
1.05099e+07
1.05067e+07
1.05034e+07
1.05e+07
1.04967e+07
1.04933e+07
1.04899e+07
1.04865e+07
1.0483e+07
1.04796e+07
1.04761e+07
1.04725e+07
1.0469e+07
1.04654e+07
1.04618e+07
1.04582e+07
1.04545e+07
1.04508e+07
1.04471e+07
1.04434e+07
1.04396e+07
1.04358e+07
1.04319e+07
1.04281e+07
1.04242e+07
1.04203e+07
1.04163e+07
1.04123e+07
1.04083e+07
1.04043e+07
1.04002e+07
1.03961e+07
1.0392e+07
1.03878e+07
1.03836e+07
1.03794e+07
1.03751e+07
1.03708e+07
1.03665e+07
1.03621e+07
1.03577e+07
1.03533e+07
1.03488e+07
1.03443e+07
1.03398e+07
1.03352e+07
1.03306e+07
1.0326e+07
1.03213e+07
1.03166e+07
1.03118e+07
1.03071e+07
1.03022e+07
1.02974e+07
1.02925e+07
1.02876e+07
1.02827e+07
1.02777e+07
1.02727e+07
1.02677e+07
1.02627e+07
1.02578e+07
1.30531e+07
1.3052e+07
1.30498e+07
1.30464e+07
1.30419e+07
1.30361e+07
1.30291e+07
1.30209e+07
1.30115e+07
1.30007e+07
1.29887e+07
1.29753e+07
1.29606e+07
1.29446e+07
1.29272e+07
1.29085e+07
1.28884e+07
1.28669e+07
1.2844e+07
1.28197e+07
1.2794e+07
1.27669e+07
1.27383e+07
1.27084e+07
1.2677e+07
1.26441e+07
1.26098e+07
1.2574e+07
1.25367e+07
1.24979e+07
1.24576e+07
1.24157e+07
1.23722e+07
1.23271e+07
1.22804e+07
1.2232e+07
1.21819e+07
1.21301e+07
1.20764e+07
1.2021e+07
1.19636e+07
1.19043e+07
1.1843e+07
1.17796e+07
1.17139e+07
1.16459e+07
1.15754e+07
1.15022e+07
1.14262e+07
1.13471e+07
1.12646e+07
1.11784e+07
1.1088e+07
1.09933e+07
1.0894e+07
1.07908e+07
1.06906e+07
1.06863e+07
1.06832e+07
1.06802e+07
1.06772e+07
1.06742e+07
1.06713e+07
1.06684e+07
1.06655e+07
1.06626e+07
1.06598e+07
1.0657e+07
1.06542e+07
1.06514e+07
1.06486e+07
1.06459e+07
1.06431e+07
1.06404e+07
1.06376e+07
1.06349e+07
1.06322e+07
1.06295e+07
1.06267e+07
1.0624e+07
1.06213e+07
1.06186e+07
1.06158e+07
1.06131e+07
1.06104e+07
1.06076e+07
1.06049e+07
1.06021e+07
1.05994e+07
1.05966e+07
1.05938e+07
1.0591e+07
1.05882e+07
1.05854e+07
1.05826e+07
1.05798e+07
1.05769e+07
1.0574e+07
1.05712e+07
1.05683e+07
1.05654e+07
1.05625e+07
1.05595e+07
1.05566e+07
1.05536e+07
1.05506e+07
1.05476e+07
1.05446e+07
1.05415e+07
1.05385e+07
1.05354e+07
1.05323e+07
1.05291e+07
1.0526e+07
1.05228e+07
1.05196e+07
1.05164e+07
1.05132e+07
1.05099e+07
1.05067e+07
1.05034e+07
1.05e+07
1.04967e+07
1.04933e+07
1.04899e+07
1.04865e+07
1.0483e+07
1.04796e+07
1.04761e+07
1.04725e+07
1.0469e+07
1.04654e+07
1.04618e+07
1.04582e+07
1.04545e+07
1.04508e+07
1.04471e+07
1.04434e+07
1.04396e+07
1.04358e+07
1.04319e+07
1.04281e+07
1.04242e+07
1.04203e+07
1.04163e+07
1.04123e+07
1.04083e+07
1.04043e+07
1.04002e+07
1.03961e+07
1.0392e+07
1.03878e+07
1.03836e+07
1.03794e+07
1.03751e+07
1.03708e+07
1.03665e+07
1.03621e+07
1.03577e+07
1.03533e+07
1.03488e+07
1.03443e+07
1.03398e+07
1.03352e+07
1.03306e+07
1.0326e+07
1.03213e+07
1.03166e+07
1.03118e+07
1.03071e+07
1.03022e+07
1.02974e+07
1.02925e+07
1.02876e+07
1.02827e+07
1.02777e+07
1.02727e+07
1.02677e+07
1.02627e+07
1.02577e+07
1.30667e+07
1.30656e+07
1.30633e+07
1.30599e+07
1.30552e+07
1.30494e+07
1.30424e+07
1.30341e+07
1.30245e+07
1.30137e+07
1.30015e+07
1.2988e+07
1.29732e+07
1.2957e+07
1.29395e+07
1.29206e+07
1.29004e+07
1.28787e+07
1.28556e+07
1.28312e+07
1.28053e+07
1.27781e+07
1.27494e+07
1.27192e+07
1.26877e+07
1.26547e+07
1.26202e+07
1.25842e+07
1.25468e+07
1.25079e+07
1.24674e+07
1.24254e+07
1.23819e+07
1.23367e+07
1.229e+07
1.22416e+07
1.21915e+07
1.21397e+07
1.20862e+07
1.20308e+07
1.19737e+07
1.19146e+07
1.18536e+07
1.17905e+07
1.17253e+07
1.16579e+07
1.15882e+07
1.1516e+07
1.14412e+07
1.13637e+07
1.12832e+07
1.11995e+07
1.11125e+07
1.10217e+07
1.09265e+07
1.08244e+07
1.0705e+07
1.06857e+07
1.06827e+07
1.06798e+07
1.06768e+07
1.06739e+07
1.0671e+07
1.06681e+07
1.06653e+07
1.06624e+07
1.06596e+07
1.06568e+07
1.0654e+07
1.06512e+07
1.06485e+07
1.06457e+07
1.0643e+07
1.06403e+07
1.06375e+07
1.06348e+07
1.06321e+07
1.06294e+07
1.06266e+07
1.06239e+07
1.06212e+07
1.06185e+07
1.06158e+07
1.0613e+07
1.06103e+07
1.06076e+07
1.06048e+07
1.06021e+07
1.05993e+07
1.05966e+07
1.05938e+07
1.0591e+07
1.05882e+07
1.05854e+07
1.05826e+07
1.05797e+07
1.05769e+07
1.0574e+07
1.05711e+07
1.05683e+07
1.05654e+07
1.05624e+07
1.05595e+07
1.05565e+07
1.05536e+07
1.05506e+07
1.05476e+07
1.05446e+07
1.05415e+07
1.05384e+07
1.05354e+07
1.05323e+07
1.05291e+07
1.0526e+07
1.05228e+07
1.05196e+07
1.05164e+07
1.05132e+07
1.05099e+07
1.05067e+07
1.05034e+07
1.05e+07
1.04967e+07
1.04933e+07
1.04899e+07
1.04865e+07
1.0483e+07
1.04796e+07
1.04761e+07
1.04725e+07
1.0469e+07
1.04654e+07
1.04618e+07
1.04582e+07
1.04545e+07
1.04508e+07
1.04471e+07
1.04433e+07
1.04396e+07
1.04358e+07
1.04319e+07
1.04281e+07
1.04242e+07
1.04203e+07
1.04163e+07
1.04123e+07
1.04083e+07
1.04043e+07
1.04002e+07
1.03961e+07
1.0392e+07
1.03878e+07
1.03836e+07
1.03794e+07
1.03751e+07
1.03708e+07
1.03665e+07
1.03621e+07
1.03577e+07
1.03533e+07
1.03488e+07
1.03443e+07
1.03398e+07
1.03352e+07
1.03306e+07
1.0326e+07
1.03213e+07
1.03166e+07
1.03118e+07
1.0307e+07
1.03022e+07
1.02974e+07
1.02925e+07
1.02876e+07
1.02826e+07
1.02777e+07
1.02727e+07
1.02677e+07
1.02627e+07
1.02576e+07
1.30849e+07
1.30838e+07
1.30814e+07
1.3078e+07
1.30733e+07
1.30673e+07
1.30602e+07
1.30518e+07
1.3042e+07
1.3031e+07
1.30187e+07
1.30051e+07
1.29901e+07
1.29737e+07
1.2956e+07
1.29369e+07
1.29164e+07
1.28945e+07
1.28713e+07
1.28466e+07
1.28205e+07
1.2793e+07
1.2764e+07
1.27337e+07
1.27019e+07
1.26686e+07
1.26339e+07
1.25978e+07
1.25602e+07
1.2521e+07
1.24804e+07
1.24382e+07
1.23946e+07
1.23493e+07
1.23025e+07
1.2254e+07
1.22039e+07
1.21522e+07
1.20987e+07
1.20436e+07
1.19866e+07
1.19278e+07
1.18671e+07
1.18045e+07
1.17399e+07
1.16732e+07
1.16044e+07
1.15333e+07
1.14599e+07
1.1384e+07
1.13056e+07
1.12246e+07
1.11408e+07
1.10541e+07
1.09646e+07
1.08721e+07
1.07772e+07
1.06863e+07
1.06822e+07
1.06793e+07
1.06764e+07
1.06735e+07
1.06706e+07
1.06678e+07
1.06649e+07
1.06621e+07
1.06593e+07
1.06566e+07
1.06538e+07
1.0651e+07
1.06483e+07
1.06456e+07
1.06428e+07
1.06401e+07
1.06374e+07
1.06347e+07
1.0632e+07
1.06292e+07
1.06265e+07
1.06238e+07
1.06211e+07
1.06184e+07
1.06157e+07
1.0613e+07
1.06102e+07
1.06075e+07
1.06048e+07
1.0602e+07
1.05993e+07
1.05965e+07
1.05937e+07
1.05909e+07
1.05881e+07
1.05853e+07
1.05825e+07
1.05797e+07
1.05768e+07
1.0574e+07
1.05711e+07
1.05682e+07
1.05653e+07
1.05624e+07
1.05595e+07
1.05565e+07
1.05536e+07
1.05506e+07
1.05476e+07
1.05445e+07
1.05415e+07
1.05384e+07
1.05353e+07
1.05322e+07
1.05291e+07
1.0526e+07
1.05228e+07
1.05196e+07
1.05164e+07
1.05132e+07
1.05099e+07
1.05066e+07
1.05033e+07
1.05e+07
1.04967e+07
1.04933e+07
1.04899e+07
1.04865e+07
1.0483e+07
1.04796e+07
1.04761e+07
1.04725e+07
1.0469e+07
1.04654e+07
1.04618e+07
1.04582e+07
1.04545e+07
1.04508e+07
1.04471e+07
1.04433e+07
1.04396e+07
1.04358e+07
1.04319e+07
1.04281e+07
1.04242e+07
1.04203e+07
1.04163e+07
1.04123e+07
1.04083e+07
1.04043e+07
1.04002e+07
1.03961e+07
1.0392e+07
1.03878e+07
1.03836e+07
1.03794e+07
1.03751e+07
1.03708e+07
1.03665e+07
1.03621e+07
1.03577e+07
1.03533e+07
1.03488e+07
1.03443e+07
1.03398e+07
1.03352e+07
1.03306e+07
1.0326e+07
1.03213e+07
1.03166e+07
1.03118e+07
1.0307e+07
1.03022e+07
1.02974e+07
1.02925e+07
1.02876e+07
1.02826e+07
1.02777e+07
1.02727e+07
1.02676e+07
1.02626e+07
1.02576e+07
1.31079e+07
1.31067e+07
1.31043e+07
1.31007e+07
1.30959e+07
1.30899e+07
1.30826e+07
1.3074e+07
1.30641e+07
1.30529e+07
1.30404e+07
1.30265e+07
1.30112e+07
1.29946e+07
1.29766e+07
1.29572e+07
1.29365e+07
1.29143e+07
1.28907e+07
1.28657e+07
1.28393e+07
1.28115e+07
1.27822e+07
1.27516e+07
1.27195e+07
1.26859e+07
1.26509e+07
1.26145e+07
1.25766e+07
1.25372e+07
1.24964e+07
1.2454e+07
1.24102e+07
1.23647e+07
1.23178e+07
1.22693e+07
1.22192e+07
1.21674e+07
1.21141e+07
1.2059e+07
1.20022e+07
1.19437e+07
1.18834e+07
1.18213e+07
1.17573e+07
1.16914e+07
1.16235e+07
1.15535e+07
1.14815e+07
1.14073e+07
1.13309e+07
1.12523e+07
1.11714e+07
1.10882e+07
1.10026e+07
1.09143e+07
1.08219e+07
1.07192e+07
1.06817e+07
1.06787e+07
1.06759e+07
1.0673e+07
1.06702e+07
1.06674e+07
1.06646e+07
1.06618e+07
1.0659e+07
1.06563e+07
1.06535e+07
1.06508e+07
1.06481e+07
1.06453e+07
1.06426e+07
1.06399e+07
1.06372e+07
1.06345e+07
1.06318e+07
1.06291e+07
1.06264e+07
1.06237e+07
1.0621e+07
1.06183e+07
1.06156e+07
1.06129e+07
1.06101e+07
1.06074e+07
1.06047e+07
1.06019e+07
1.05992e+07
1.05964e+07
1.05937e+07
1.05909e+07
1.05881e+07
1.05853e+07
1.05825e+07
1.05796e+07
1.05768e+07
1.0574e+07
1.05711e+07
1.05682e+07
1.05653e+07
1.05624e+07
1.05594e+07
1.05565e+07
1.05535e+07
1.05505e+07
1.05475e+07
1.05445e+07
1.05415e+07
1.05384e+07
1.05353e+07
1.05322e+07
1.05291e+07
1.0526e+07
1.05228e+07
1.05196e+07
1.05164e+07
1.05132e+07
1.05099e+07
1.05066e+07
1.05033e+07
1.05e+07
1.04967e+07
1.04933e+07
1.04899e+07
1.04865e+07
1.0483e+07
1.04795e+07
1.0476e+07
1.04725e+07
1.0469e+07
1.04654e+07
1.04618e+07
1.04581e+07
1.04545e+07
1.04508e+07
1.04471e+07
1.04433e+07
1.04396e+07
1.04358e+07
1.04319e+07
1.04281e+07
1.04242e+07
1.04203e+07
1.04163e+07
1.04123e+07
1.04083e+07
1.04043e+07
1.04002e+07
1.03961e+07
1.0392e+07
1.03878e+07
1.03836e+07
1.03794e+07
1.03751e+07
1.03708e+07
1.03665e+07
1.03621e+07
1.03577e+07
1.03533e+07
1.03488e+07
1.03443e+07
1.03398e+07
1.03352e+07
1.03306e+07
1.03259e+07
1.03213e+07
1.03166e+07
1.03118e+07
1.0307e+07
1.03022e+07
1.02974e+07
1.02925e+07
1.02876e+07
1.02826e+07
1.02776e+07
1.02726e+07
1.02676e+07
1.02625e+07
1.02575e+07
1.31357e+07
1.31345e+07
1.3132e+07
1.31283e+07
1.31234e+07
1.31172e+07
1.31097e+07
1.31009e+07
1.30907e+07
1.30792e+07
1.30664e+07
1.30522e+07
1.30367e+07
1.30197e+07
1.30013e+07
1.29816e+07
1.29605e+07
1.29379e+07
1.29139e+07
1.28885e+07
1.28617e+07
1.28335e+07
1.28039e+07
1.27728e+07
1.27404e+07
1.27064e+07
1.26711e+07
1.26343e+07
1.25961e+07
1.25564e+07
1.25152e+07
1.24726e+07
1.24285e+07
1.23829e+07
1.23358e+07
1.22872e+07
1.2237e+07
1.21853e+07
1.21319e+07
1.2077e+07
1.20204e+07
1.19622e+07
1.19023e+07
1.18406e+07
1.17772e+07
1.17121e+07
1.16451e+07
1.15762e+07
1.15055e+07
1.14329e+07
1.13584e+07
1.1282e+07
1.12036e+07
1.11235e+07
1.10414e+07
1.09574e+07
1.0871e+07
1.07813e+07
1.06846e+07
1.0678e+07
1.06753e+07
1.06725e+07
1.06697e+07
1.06669e+07
1.06642e+07
1.06614e+07
1.06587e+07
1.06559e+07
1.06532e+07
1.06505e+07
1.06478e+07
1.06451e+07
1.06424e+07
1.06397e+07
1.0637e+07
1.06343e+07
1.06316e+07
1.06289e+07
1.06262e+07
1.06236e+07
1.06209e+07
1.06182e+07
1.06155e+07
1.06128e+07
1.061e+07
1.06073e+07
1.06046e+07
1.06019e+07
1.05991e+07
1.05964e+07
1.05936e+07
1.05908e+07
1.0588e+07
1.05852e+07
1.05824e+07
1.05796e+07
1.05768e+07
1.05739e+07
1.0571e+07
1.05682e+07
1.05653e+07
1.05623e+07
1.05594e+07
1.05565e+07
1.05535e+07
1.05505e+07
1.05475e+07
1.05445e+07
1.05415e+07
1.05384e+07
1.05353e+07
1.05322e+07
1.05291e+07
1.05259e+07
1.05228e+07
1.05196e+07
1.05164e+07
1.05132e+07
1.05099e+07
1.05066e+07
1.05033e+07
1.05e+07
1.04967e+07
1.04933e+07
1.04899e+07
1.04865e+07
1.0483e+07
1.04795e+07
1.0476e+07
1.04725e+07
1.0469e+07
1.04654e+07
1.04618e+07
1.04581e+07
1.04545e+07
1.04508e+07
1.04471e+07
1.04433e+07
1.04396e+07
1.04358e+07
1.04319e+07
1.04281e+07
1.04242e+07
1.04203e+07
1.04163e+07
1.04123e+07
1.04083e+07
1.04043e+07
1.04002e+07
1.03961e+07
1.0392e+07
1.03878e+07
1.03836e+07
1.03794e+07
1.03751e+07
1.03708e+07
1.03665e+07
1.03621e+07
1.03577e+07
1.03533e+07
1.03488e+07
1.03443e+07
1.03398e+07
1.03352e+07
1.03306e+07
1.03259e+07
1.03213e+07
1.03166e+07
1.03118e+07
1.0307e+07
1.03022e+07
1.02974e+07
1.02925e+07
1.02876e+07
1.02826e+07
1.02776e+07
1.02726e+07
1.02676e+07
1.02625e+07
1.02574e+07
1.31685e+07
1.31671e+07
1.31646e+07
1.31607e+07
1.31556e+07
1.31492e+07
1.31415e+07
1.31324e+07
1.31219e+07
1.31101e+07
1.30969e+07
1.30824e+07
1.30664e+07
1.3049e+07
1.30302e+07
1.301e+07
1.29884e+07
1.29653e+07
1.29409e+07
1.2915e+07
1.28877e+07
1.2859e+07
1.28289e+07
1.27974e+07
1.27644e+07
1.273e+07
1.26943e+07
1.26571e+07
1.26184e+07
1.25784e+07
1.25369e+07
1.24939e+07
1.24495e+07
1.24037e+07
1.23564e+07
1.23076e+07
1.22573e+07
1.22055e+07
1.21522e+07
1.20973e+07
1.20409e+07
1.1983e+07
1.19234e+07
1.18622e+07
1.17994e+07
1.17349e+07
1.16688e+07
1.1601e+07
1.15315e+07
1.14603e+07
1.13874e+07
1.1313e+07
1.12369e+07
1.11593e+07
1.10802e+07
1.09997e+07
1.09179e+07
1.08351e+07
1.07516e+07
1.0678e+07
1.06747e+07
1.06719e+07
1.06692e+07
1.06664e+07
1.06637e+07
1.0661e+07
1.06583e+07
1.06556e+07
1.06529e+07
1.06502e+07
1.06475e+07
1.06448e+07
1.06421e+07
1.06394e+07
1.06368e+07
1.06341e+07
1.06314e+07
1.06287e+07
1.06261e+07
1.06234e+07
1.06207e+07
1.0618e+07
1.06153e+07
1.06126e+07
1.06099e+07
1.06072e+07
1.06045e+07
1.06018e+07
1.0599e+07
1.05963e+07
1.05935e+07
1.05907e+07
1.0588e+07
1.05852e+07
1.05824e+07
1.05795e+07
1.05767e+07
1.05739e+07
1.0571e+07
1.05681e+07
1.05652e+07
1.05623e+07
1.05594e+07
1.05564e+07
1.05535e+07
1.05505e+07
1.05475e+07
1.05445e+07
1.05414e+07
1.05384e+07
1.05353e+07
1.05322e+07
1.05291e+07
1.05259e+07
1.05228e+07
1.05196e+07
1.05164e+07
1.05131e+07
1.05099e+07
1.05066e+07
1.05033e+07
1.05e+07
1.04966e+07
1.04933e+07
1.04899e+07
1.04865e+07
1.0483e+07
1.04795e+07
1.0476e+07
1.04725e+07
1.0469e+07
1.04654e+07
1.04618e+07
1.04581e+07
1.04545e+07
1.04508e+07
1.04471e+07
1.04433e+07
1.04396e+07
1.04358e+07
1.04319e+07
1.04281e+07
1.04242e+07
1.04203e+07
1.04163e+07
1.04123e+07
1.04083e+07
1.04043e+07
1.04002e+07
1.03961e+07
1.0392e+07
1.03878e+07
1.03836e+07
1.03794e+07
1.03751e+07
1.03708e+07
1.03665e+07
1.03621e+07
1.03577e+07
1.03533e+07
1.03488e+07
1.03443e+07
1.03398e+07
1.03352e+07
1.03306e+07
1.03259e+07
1.03213e+07
1.03166e+07
1.03118e+07
1.0307e+07
1.03022e+07
1.02973e+07
1.02925e+07
1.02875e+07
1.02826e+07
1.02776e+07
1.02726e+07
1.02675e+07
1.02624e+07
1.02573e+07
1.32062e+07
1.32048e+07
1.32021e+07
1.31981e+07
1.31928e+07
1.31861e+07
1.31781e+07
1.31687e+07
1.31579e+07
1.31456e+07
1.3132e+07
1.31169e+07
1.31004e+07
1.30825e+07
1.30632e+07
1.30424e+07
1.30202e+07
1.29966e+07
1.29716e+07
1.29451e+07
1.29172e+07
1.28879e+07
1.28572e+07
1.28251e+07
1.27916e+07
1.27567e+07
1.27204e+07
1.26826e+07
1.26435e+07
1.2603e+07
1.25611e+07
1.25178e+07
1.2473e+07
1.24269e+07
1.23793e+07
1.23303e+07
1.22799e+07
1.2228e+07
1.21746e+07
1.21198e+07
1.20635e+07
1.20058e+07
1.19465e+07
1.18857e+07
1.18234e+07
1.17596e+07
1.16942e+07
1.16273e+07
1.15589e+07
1.1489e+07
1.14177e+07
1.13449e+07
1.12707e+07
1.11952e+07
1.11184e+07
1.10404e+07
1.09611e+07
1.088e+07
1.07953e+07
1.06988e+07
1.06741e+07
1.06713e+07
1.06686e+07
1.06659e+07
1.06632e+07
1.06605e+07
1.06578e+07
1.06551e+07
1.06525e+07
1.06498e+07
1.06471e+07
1.06445e+07
1.06418e+07
1.06392e+07
1.06365e+07
1.06338e+07
1.06312e+07
1.06285e+07
1.06259e+07
1.06232e+07
1.06205e+07
1.06178e+07
1.06152e+07
1.06125e+07
1.06098e+07
1.06071e+07
1.06044e+07
1.06016e+07
1.05989e+07
1.05962e+07
1.05934e+07
1.05907e+07
1.05879e+07
1.05851e+07
1.05823e+07
1.05795e+07
1.05766e+07
1.05738e+07
1.05709e+07
1.05681e+07
1.05652e+07
1.05623e+07
1.05593e+07
1.05564e+07
1.05534e+07
1.05505e+07
1.05475e+07
1.05444e+07
1.05414e+07
1.05383e+07
1.05353e+07
1.05322e+07
1.0529e+07
1.05259e+07
1.05227e+07
1.05196e+07
1.05164e+07
1.05131e+07
1.05099e+07
1.05066e+07
1.05033e+07
1.05e+07
1.04966e+07
1.04933e+07
1.04899e+07
1.04864e+07
1.0483e+07
1.04795e+07
1.0476e+07
1.04725e+07
1.04689e+07
1.04654e+07
1.04618e+07
1.04581e+07
1.04545e+07
1.04508e+07
1.04471e+07
1.04433e+07
1.04396e+07
1.04358e+07
1.04319e+07
1.04281e+07
1.04242e+07
1.04203e+07
1.04163e+07
1.04123e+07
1.04083e+07
1.04043e+07
1.04002e+07
1.03961e+07
1.0392e+07
1.03878e+07
1.03836e+07
1.03794e+07
1.03751e+07
1.03708e+07
1.03665e+07
1.03621e+07
1.03577e+07
1.03533e+07
1.03488e+07
1.03443e+07
1.03398e+07
1.03352e+07
1.03306e+07
1.03259e+07
1.03213e+07
1.03165e+07
1.03118e+07
1.0307e+07
1.03022e+07
1.02973e+07
1.02924e+07
1.02875e+07
1.02826e+07
1.02776e+07
1.02725e+07
1.02675e+07
1.02624e+07
1.02572e+07
1.32492e+07
1.32477e+07
1.32449e+07
1.32407e+07
1.32351e+07
1.32281e+07
1.32197e+07
1.32098e+07
1.31985e+07
1.31858e+07
1.31716e+07
1.3156e+07
1.31389e+07
1.31203e+07
1.31003e+07
1.30789e+07
1.3056e+07
1.30316e+07
1.30059e+07
1.29787e+07
1.29501e+07
1.29201e+07
1.28887e+07
1.28559e+07
1.28217e+07
1.27862e+07
1.27492e+07
1.27109e+07
1.26713e+07
1.26302e+07
1.25878e+07
1.2544e+07
1.24989e+07
1.24523e+07
1.24045e+07
1.23552e+07
1.23045e+07
1.22525e+07
1.21991e+07
1.21442e+07
1.2088e+07
1.20304e+07
1.19714e+07
1.19109e+07
1.1849e+07
1.17858e+07
1.17211e+07
1.1655e+07
1.15876e+07
1.15188e+07
1.14487e+07
1.13773e+07
1.13047e+07
1.12309e+07
1.11561e+07
1.10802e+07
1.10032e+07
1.0925e+07
1.08451e+07
1.07626e+07
1.06761e+07
1.06705e+07
1.06679e+07
1.06653e+07
1.06626e+07
1.066e+07
1.06573e+07
1.06547e+07
1.0652e+07
1.06494e+07
1.06467e+07
1.06441e+07
1.06415e+07
1.06388e+07
1.06362e+07
1.06336e+07
1.06309e+07
1.06283e+07
1.06256e+07
1.0623e+07
1.06203e+07
1.06177e+07
1.0615e+07
1.06123e+07
1.06096e+07
1.06069e+07
1.06042e+07
1.06015e+07
1.05988e+07
1.05961e+07
1.05933e+07
1.05906e+07
1.05878e+07
1.0585e+07
1.05822e+07
1.05794e+07
1.05766e+07
1.05737e+07
1.05709e+07
1.0568e+07
1.05651e+07
1.05622e+07
1.05593e+07
1.05563e+07
1.05534e+07
1.05504e+07
1.05474e+07
1.05444e+07
1.05414e+07
1.05383e+07
1.05352e+07
1.05321e+07
1.0529e+07
1.05259e+07
1.05227e+07
1.05195e+07
1.05163e+07
1.05131e+07
1.05099e+07
1.05066e+07
1.05033e+07
1.05e+07
1.04966e+07
1.04932e+07
1.04899e+07
1.04864e+07
1.0483e+07
1.04795e+07
1.0476e+07
1.04725e+07
1.04689e+07
1.04654e+07
1.04618e+07
1.04581e+07
1.04545e+07
1.04508e+07
1.04471e+07
1.04433e+07
1.04395e+07
1.04357e+07
1.04319e+07
1.04281e+07
1.04242e+07
1.04202e+07
1.04163e+07
1.04123e+07
1.04083e+07
1.04043e+07
1.04002e+07
1.03961e+07
1.0392e+07
1.03878e+07
1.03836e+07
1.03794e+07
1.03751e+07
1.03708e+07
1.03665e+07
1.03621e+07
1.03577e+07
1.03533e+07
1.03488e+07
1.03443e+07
1.03398e+07
1.03352e+07
1.03306e+07
1.03259e+07
1.03213e+07
1.03165e+07
1.03118e+07
1.0307e+07
1.03022e+07
1.02973e+07
1.02924e+07
1.02875e+07
1.02825e+07
1.02775e+07
1.02725e+07
1.02674e+07
1.02623e+07
1.02571e+07
1.32976e+07
1.3296e+07
1.3293e+07
1.32885e+07
1.32826e+07
1.32752e+07
1.32664e+07
1.3256e+07
1.32441e+07
1.32308e+07
1.32159e+07
1.31996e+07
1.31817e+07
1.31624e+07
1.31416e+07
1.31193e+07
1.30956e+07
1.30704e+07
1.30438e+07
1.30158e+07
1.29863e+07
1.29555e+07
1.29233e+07
1.28897e+07
1.28548e+07
1.28185e+07
1.27808e+07
1.27418e+07
1.27015e+07
1.26598e+07
1.26168e+07
1.25725e+07
1.25269e+07
1.24799e+07
1.24316e+07
1.2382e+07
1.23311e+07
1.22789e+07
1.22253e+07
1.21704e+07
1.21142e+07
1.20566e+07
1.19978e+07
1.19376e+07
1.18761e+07
1.18132e+07
1.17491e+07
1.16838e+07
1.16171e+07
1.15493e+07
1.14802e+07
1.14101e+07
1.13388e+07
1.12665e+07
1.11932e+07
1.11191e+07
1.1044e+07
1.09681e+07
1.08915e+07
1.08141e+07
1.0736e+07
1.06704e+07
1.06673e+07
1.06646e+07
1.0662e+07
1.06594e+07
1.06568e+07
1.06542e+07
1.06516e+07
1.06489e+07
1.06463e+07
1.06437e+07
1.06411e+07
1.06385e+07
1.06359e+07
1.06333e+07
1.06306e+07
1.0628e+07
1.06254e+07
1.06227e+07
1.06201e+07
1.06174e+07
1.06148e+07
1.06121e+07
1.06095e+07
1.06068e+07
1.06041e+07
1.06014e+07
1.05987e+07
1.05959e+07
1.05932e+07
1.05904e+07
1.05877e+07
1.05849e+07
1.05821e+07
1.05793e+07
1.05765e+07
1.05737e+07
1.05708e+07
1.05679e+07
1.05651e+07
1.05622e+07
1.05592e+07
1.05563e+07
1.05533e+07
1.05504e+07
1.05474e+07
1.05444e+07
1.05413e+07
1.05383e+07
1.05352e+07
1.05321e+07
1.0529e+07
1.05259e+07
1.05227e+07
1.05195e+07
1.05163e+07
1.05131e+07
1.05098e+07
1.05066e+07
1.05033e+07
1.05e+07
1.04966e+07
1.04932e+07
1.04898e+07
1.04864e+07