/*--------------------------------*- C++ -*----------------------------------*\
  =========                 |
  \\      /  F ield         | OpenFOAM: The Open Source CFD Toolbox
   \\    /   O peration     | Website:  https://openfoam.org
    \\  /    A nd           | Version:  10
     \\/     M anipulation  |
\*---------------------------------------------------------------------------*/
FoamFile
{
    format      ascii;
    class       volVectorField;
    location    "2.4";
    object      Ub;
}
// * * * * * * * * * * * * * * * * * * * * * * * * * * * * * * * * * * * * * //

dimensions      [0 1 -1 0 0 0 0];

internalField   nonuniform List<vector> 
12225
(
(0.00228594 -0.000461621 0)
(0.0065261 -0.000411186 0)
(0.0100227 -0.000338247 0)
(0.0127254 -0.000265326 0)
(0.0147417 -0.000204144 0)
(0.0162329 -0.000158096 0)
(0.0173548 -0.000126395 0)
(0.0182359 -0.000106928 0)
(0.0189762 -9.77147e-05 0)
(0.0196532 -9.75387e-05 0)
(0.0203314 -0.000106287 0)
(0.0210719 -0.000125378 0)
(0.0219449 -0.000158742 0)
(0.02305 -0.000215373 0)
(0.024561 -0.000316798 0)
(0.0268533 -0.000523667 0)
(0.0310025 -0.00106184 0)
(0.0416097 -0.00316973 0)
(0.00242003 -0.00144683 0)
(0.00690061 -0.00128688 0)
(0.010578 -0.00105637 0)
(0.0134032 -0.000826618 0)
(0.0154965 -0.000634368 0)
(0.0170337 -0.000490012 0)
(0.0181823 -0.000390833 0)
(0.019079 -0.000330037 0)
(0.0198292 -0.0003013 0)
(0.0205142 -0.000300723 0)
(0.0212008 -0.000327843 0)
(0.0219513 -0.000386906 0)
(0.0228361 -0.000489752 0)
(0.0239523 -0.000663218 0)
(0.0254601 -0.000970027 0)
(0.0276668 -0.00157757 0)
(0.0311961 -0.00303684 0)
(0.0365656 -0.00770921 0)
(0.00252427 -0.00255566 0)
(0.00718585 -0.00226767 0)
(0.0109872 -0.00185518 0)
(0.0138843 -0.00144623 0)
(0.0160132 -0.00110565 0)
(0.0175641 -0.000850926 0)
(0.0187146 -0.000676501 0)
(0.0196076 -0.000569857 0)
(0.0203517 -0.000519505 0)
(0.0210295 -0.000518302 0)
(0.0217078 -0.000565083 0)
(0.0224475 -0.000666657 0)
(0.0233145 -0.000842296 0)
(0.0243939 -0.00113486 0)
(0.0258106 -0.00164006 0)
(0.027751 -0.0025906 0)
(0.0303821 -0.00461867 0)
(0.0328717 -0.00953715 0)
(0.00263136 -0.00379463 0)
(0.00747286 -0.00335606 0)
(0.0113848 -0.00273319 0)
(0.0143332 -0.00212047 0)
(0.0164756 -0.00161359 0)
(0.0180204 -0.00123661 0)
(0.0191562 -0.000979599 0)
(0.0200317 -0.000822969 0)
(0.0207575 -0.000749037 0)
(0.0214166 -0.000746695 0)
(0.0220739 -0.000813482 0)
(0.0227866 -0.000958015 0)
(0.0236123 -0.00120537 0)
(0.0246174 -0.00160983 0)
(0.0258805 -0.00228508 0)
(0.027466 -0.00347648 0)
(0.0292503 -0.00571981 0)
(0.0302095 -0.0100233 0)
(0.00275496 -0.00518181 0)
(0.00779787 -0.00456281 0)
(0.0118206 -0.00369378 0)
(0.014806 -0.00284803 0)
(0.0169426 -0.00215479 0)
(0.0184622 -0.00164305 0)
(0.0195667 -0.00129622 0)
(0.0204106 -0.0010857 0)
(0.0211059 -0.000986293 0)
(0.0217343 -0.000981977 0)
(0.0223578 -0.00106812 0)
(0.0230276 -0.00125387 0)
(0.0237904 -0.00156747 0)
(0.0246903 -0.00206812 0)
(0.0257591 -0.0028704 0)
(0.026968 -0.00418947 0)
(0.0280671 -0.00639327 0)
(0.0282275 -0.00988828 0)
(0.00290638 -0.00674443 0)
(0.00818912 -0.00590384 0)
(0.0123295 -0.00474177 0)
(0.0153383 -0.00362702 0)
(0.0174475 -0.00272444 0)
(0.0189203 -0.00206475 0)
(0.0199747 -0.00162104 0)
(0.0207711 -0.0013531 0)
(0.0214222 -0.00122649 0)
(0.0220071 -0.00121907 0)
(0.0225834 -0.00132285 0)
(0.0231947 -0.00154581 0)
(0.0238751 -0.00191606 0)
(0.0246464 -0.00249059 0)
(0.0255019 -0.00337026 0)
(0.0263576 -0.00471632 0)
(0.0269465 -0.0067334 0)
(0.0266998 -0.00948454 0)
(0.00309871 -0.00852095 0)
(0.00867754 -0.00740024 0)
(0.0129466 -0.00588218 0)
(0.0159614 -0.00445342 0)
(0.0180166 -0.00331505 0)
(0.0194164 -0.00249363 0)
(0.0203983 -0.00194655 0)
(0.0211288 -0.00161837 0)
(0.0217201 -0.00146325 0)
(0.0222476 -0.00145141 0)
(0.0227627 -0.00157013 0)
(0.0233007 -0.00182422 0)
(0.0238826 -0.00223815 0)
(0.024511 -0.00286055 0)
(0.0251525 -0.00376905 0)
(0.0257022 -0.00506582 0)
(0.0259312 -0.00683195 0)
(0.0254864 -0.00897594 0)
(0.00334962 -0.0105657 0)
(0.009303 -0.00907907 0)
(0.0137131 -0.00711876 0)
(0.0167092 -0.00531916 0)
(0.0186748 -0.00391477 0)
(0.0199685 -0.00291789 0)
(0.0208509 -0.00226222 0)
(0.021494 -0.00187231 0)
(0.0220081 -0.00168819 0)
(0.0224632 -0.00167075 0)
(0.0229033 -0.001801 0)
(0.0233545 -0.00207856 0)
(0.0238261 -0.00252122 0)
(0.0243058 -0.00316488 0)
(0.0247466 -0.0040605 0)
(0.0250457 -0.00525858 0)
(0.0250305 -0.00676251 0)
(0.0244983 -0.00843493 0)
(0.00368507 -0.0129568 0)
(0.0101215 -0.0109743 0)
(0.0146827 -0.0084515 0)
(0.017621 -0.00620924 0)
(0.0194485 -0.00450521 0)
(0.0205938 -0.00332053 0)
(0.0213436 -0.00255364 0)
(0.0218744 -0.00210277 0)
(0.022292 -0.00189065 0)
(0.0226587 -0.00186704 0)
(0.0230104 -0.00200519 0)
(0.0233636 -0.00229784 0)
(0.0237177 -0.0027539 0)
(0.0240508 -0.0033946 0)
(0.0243122 -0.00424569 0)
(0.0244145 -0.00531925 0)
(0.0242387 -0.00657843 0)
(0.0236769 -0.00789128 0)
(0.00414543 -0.0158101 0)
(0.0112161 -0.0131275 0)
(0.0159283 -0.00987179 0)
(0.0187454 -0.00709702 0)
(0.0203662 -0.00505825 0)
(0.0213081 -0.00367743 0)
(0.0218853 -0.00280133 0)
(0.0222751 -0.002294 0)
(0.022575 -0.00205737 0)
(0.0228374 -0.00202837 0)
(0.0230883 -0.00217137 0)
(0.023335 -0.00247109 0)
(0.0235687 -0.00292654 0)
(0.023763 -0.00354463 0)
(0.0238703 -0.00433045 0)
(0.0238227 -0.00527153 0)
(0.0235439 -0.006316 0)
(0.0229818 -0.00735553 0)
(0.00479686 -0.0193035 0)
(0.0127154 -0.0155856 0)
(0.0175514 -0.0113528 0)
(0.020142 -0.00793655 0)
(0.0214581 -0.00553143 0)
(0.0221254 -0.00395493 0)
(0.0224819 -0.00297961 0)
(0.0226983 -0.00242616 0)
(0.0228583 -0.00217234 0)
(0.0230007 -0.00214113 0)
(0.02314 -0.00228748 0)
(0.0232746 -0.00258778 0)
(0.0233895 -0.00303147 0)
(0.0234566 -0.00361312 0)
(0.0234352 -0.00432303 0)
(0.0232757 -0.00513574 0)
(0.0229325 -0.00599873 0)
(0.0223843 -0.00682978 0)
(0.00568274 -0.0232995 0)
(0.0146728 -0.0181476 0)
(0.0195435 -0.0127202 0)
(0.0217644 -0.00860782 0)
(0.0226708 -0.00584938 0)
(0.0230006 -0.00410631 0)
(0.023101 -0.00305836 0)
(0.0231245 -0.00247815 0)
(0.0231341 -0.00221922 0)
(0.0231521 -0.00219158 0)
(0.0231803 -0.00234188 0)
(0.0232086 -0.00263942 0)
(0.0232176 -0.00306596 0)
(0.0231796 -0.00360727 0)
(0.0230604 -0.00424492 0)
(0.0228243 -0.00494857 0)
(0.0224439 -0.00567114 0)
(0.0219123 -0.00635154 0)
(0.00692877 -0.0284264 0)
(0.0172965 -0.0209833 0)
(0.0220194 -0.013954 0)
(0.02365 -0.00905343 0)
(0.0240019 -0.00596144 0)
(0.0239129 -0.00409436 0)
(0.0237137 -0.0030115 0)
(0.0235211 -0.0024319 0)
(0.0233681 -0.00218559 0)
(0.0232555 -0.00217146 0)
(0.0231712 -0.00232964 0)
(0.0230964 -0.00262409 0)
(0.0230078 -0.00303111 0)
(0.0228785 -0.00353093 0)
(0.0226806 -0.00410095 0)
(0.0223887 -0.00471087 0)
(0.0219872 -0.00532118 0)
(0.0214764 -0.00588705 0)
(0.00917889 -0.0364395 0)
(0.021733 -0.0244648 0)
(0.0257853 -0.014969 0)
(0.0262822 -0.00912025 0)
(0.0257419 -0.00573936 0)
(0.0250456 -0.00382484 0)
(0.0244411 -0.00277164 0)
(0.0239703 -0.00223911 0)
(0.0236158 -0.00203639 0)
(0.0233472 -0.00205483 0)
(0.0231335 -0.00223092 0)
(0.0229455 -0.00252563 0)
(0.0227555 -0.00291209 0)
(0.0225376 -0.00336777 0)
(0.0222687 -0.00386919 0)
(0.0219315 -0.00438922 0)
(0.0215177 -0.00489715 0)
(0.0210305 -0.00536198 0)
(0.0137785 -0.050442 0)
(0.0299671 -0.0280122 0)
(0.0316896 -0.0148785 0)
(0.0299166 -0.00820849 0)
(0.027933 -0.00482063 0)
(0.0263758 -0.00307612 0)
(0.0252452 -0.0021962 0)
(0.0244343 -0.001802 0)
(0.0238442 -0.00169993 0)
(0.0234001 -0.00178573 0)
(0.0230467 -0.00199981 0)
(0.0227421 -0.00230533 0)
(0.0224534 -0.00267645 0)
(0.0221546 -0.00309166 0)
(0.0218262 -0.0035301 0)
(0.0214553 -0.00397017 0)
(0.0210371 -0.00439006 0)
(0.0205749 -0.00476992 0)
(0.0249424 -0.0794735 0)
(0.047293 -0.027503 0)
(0.0409116 -0.0110995 0)
(0.0345577 -0.00508632 0)
(0.0303749 -0.00260503 0)
(0.0277158 -0.00152875 0)
(0.025982 -0.00109697 0)
(0.0248074 -0.000998442 0)
(0.0239767 -0.00109004 0)
(0.0233596 -0.00129911 0)
(0.022873 -0.00158476 0)
(0.0224615 -0.00192143 0)
(0.0220864 -0.00229057 0)
(0.0217207 -0.00267647 0)
(0.0213464 -0.0030643 0)
(0.0209529 -0.0034397 0)
(0.0205364 -0.00378933 0)
(0.0200986 -0.00410203 0)
(0.0591947 0.000548566 0)
(0.0904968 0.00302003 0)
(0.0528223 0.00255054 0)
(0.0387256 0.00198991 0)
(0.0321496 0.00151408 0)
(0.028554 0.00108395 0)
(0.0263642 0.000672384 0)
(0.0249235 0.000267484 0)
(0.0239139 -0.000135489 0)
(0.0231633 -0.00053733 0)
(0.0225689 -0.000935609 0)
(0.0220674 -0.0013308 0)
(0.0216193 -0.00171865 0)
(0.0211986 -0.00209381 0)
(0.020789 -0.00245023 0)
(0.020381 -0.00278171 0)
(0.0199704 -0.00308255 0)
(0.0195571 -0.00334835 0)
(0.0204966 0.0761525 0)
(0.0405059 0.031984 0)
(0.037344 0.0163601 0)
(0.0325401 0.00960766 0)
(0.0289506 0.00615194 0)
(0.0264994 0.00411917 0)
(0.0248198 0.00277821 0)
(0.0236333 0.00180695 0)
(0.0227599 0.00104934 0)
(0.0220865 0.000424691 0)
(0.0215418 -0.000109848 0)
(0.0210785 -0.000580303 0)
(0.0206627 -0.000999885 0)
(0.0202737 -0.00137892 0)
(0.0198998 -0.00172073 0)
(0.0195341 -0.00202673 0)
(0.0191736 -0.00229758 0)
(0.0188175 -0.00253386 0)
(0.00782266 0.0404038 0)
(0.0187319 0.0279165 0)
(0.0226181 0.018547 0)
(0.0233774 0.0125288 0)
(0.0230492 0.00868001 0)
(0.0224379 0.00613057 0)
(0.0218191 0.00436196 0)
(0.0212691 0.00307577 0)
(0.0207951 0.00209851 0)
(0.0203837 0.00132694 0)
(0.0200181 0.000698115 0)
(0.0196848 0.000174488 0)
(0.0193739 -0.000268674 0)
(0.0190772 -0.000648294 0)
(0.0187878 -0.000977251 0)
(0.0185026 -0.00126315 0)
(0.0182207 -0.00151098 0)
(0.017942 -0.00172465 0)
(0.00425174 0.0245319 0)
(0.0111745 0.0202894 0)
(0.0152742 0.0156337 0)
(0.0174005 0.0117486 0)
(0.0184097 0.00877263 0)
(0.0188364 0.00654594 0)
(0.0189691 0.00487514 0)
(0.0189537 0.00360292 0)
(0.0188621 0.00261502 0)
(0.0187288 0.0018318 0)
(0.0185707 0.00119851 0)
(0.0183957 0.000677509 0)
(0.0182084 0.000242789 0)
(0.0180127 -0.000121464 0)
(0.0178107 -0.000428746 0)
(0.0176029 -0.000691035 0)
(0.017391 -0.000915581 0)
(0.0171766 -0.00110768 0)
(0.0029254 0.0173048 0)
(0.00803422 0.0152247 0)
(0.011667 0.0125263 0)
(0.0140259 0.00995292 0)
(0.0154912 0.00777048 0)
(0.0163809 0.00600884 0)
(0.0169101 0.00461237 0)
(0.0172132 0.00350768 0)
(0.0173712 0.00262829 0)
(0.017433 0.00192096 0)
(0.0174285 0.00134526 0)
(0.0173765 0.000871197 0)
(0.0172895 0.000476746 0)
(0.0171762 0.000145705 0)
(0.017044 -0.000131825 0)
(0.016898 -0.000365669 0)
(0.0167411 -0.000564957 0)
(0.0165766 -0.000734945 0)
(0.00226858 0.0127676 0)
(0.00637638 0.0115733 0)
(0.00957603 0.00987742 0)
(0.0118948 0.00812369 0)
(0.0135119 0.00653391 0)
(0.0146181 0.00518136 0)
(0.0153656 0.00406512 0)
(0.0158637 0.00315537 0)
(0.016187 0.00241562 0)
(0.0163859 0.00181207 0)
(0.0164943 0.00131649 0)
(0.0165358 0.000906506 0)
(0.0165271 0.000564771 0)
(0.0164802 0.000278001 0)
(0.0164044 3.62121e-05 0)
(0.0163073 -0.000166406 0)
(0.0161942 -0.000338168 0)
(0.0160691 -0.000484554 0)
(0.00189764 0.00960585 0)
(0.00540407 0.00885085 0)
(0.00827841 0.00772084 0)
(0.0104961 0.00649144 0)
(0.0121466 0.00532679 0)
(0.0133498 0.00429934 0)
(0.0142152 0.00342663 0)
(0.0148299 0.0026994 0)
(0.0152593 0.0020982 0)
(0.0155507 0.00160181 0)
(0.0157385 0.00119091 0)
(0.0158479 0.000849197 0)
(0.0158973 0.000563498 0)
(0.0159006 0.000323368 0)
(0.0158683 0.000120593 0)
(0.0158092 -5.04325e-05 0)
(0.0157299 -0.000194286 0)
(0.015635 -0.000316928 0)
(0.00166837 0.00725279 0)
(0.0047887 0.00674832 0)
(0.0074264 0.00596807 0)
(0.00954129 0.00509094 0)
(0.0111798 0.00423515 0)
(0.0124217 0.00346109 0)
(0.0133489 0.00279008 0)
(0.014032 0.00222182 0)
(0.014528 0.00174617 0)
(0.0148804 0.0013498 0)
(0.0151227 0.00101947 0)
(0.01528 0.000743482 0)
(0.0153713 0.000512004 0)
(0.0154115 0.000317051 0)
(0.0154119 0.00015221 0)
(0.0153815 1.24409e-05 0)
(0.0153277 -0.000104901 0)
(0.0152561 -0.000204782 0)
(0.00151681 0.00542438 0)
(0.00437523 0.00507837 0)
(0.00683878 0.00453151 0)
(0.00886319 0.00390333 0)
(0.0104728 0.00327814 0)
(0.011724 0.00270285 0)
(0.0126809 0.00219695 0)
(0.0134025 0.00176354 0)
(0.0139391 0.00139745 0)
(0.0143309 0.00109022 0)
(0.0146095 0.000832831 0)
(0.0147997 0.000616942 0)
(0.0149208 0.000435363 0)
(0.0149876 0.000282123 0)
(0.0150119 0.000152353 0)
(0.0150031 4.21104e-05 0)
(0.0149686 -5.08899e-05 0)
(0.0149146 -0.000129696 0)
(0.00141056 0.00396201 0)
(0.00408176 0.00372439 0)
(0.00641296 0.00334323 0)
(0.00835961 0.00289903 0)
(0.00993412 0.00245098 0)
(0.0111788 0.00203379 0)
(0.0121461 0.00166325 0)
(0.0128872 0.00134319 0)
(0.013447 0.00107105 0)
(0.0138629 0.000841479 0)
(0.014165 0.000648367 0)
(0.0143775 0.000485884 0)
(0.0145191 0.000348896 0)
(0.0146049 0.000233072 0)
(0.0146467 0.000134841 0)
(0.0146539 5.12929e-05 0)
(0.0146342 -1.95737e-05 0)
(0.0145937 -7.93552e-05 0)
(0.00133118 0.00276981 0)
(0.00386012 0.00261084 0)
(0.00608532 0.00235318 0)
(0.00796324 0.00204999 0)
(0.00949958 0.00174141 0)
(0.010728 0.00145177 0)
(0.0116932 0.00119275 0)
(0.0124407 0.000967716 0)
(0.0130117 0.000775468 0)
(0.013441 0.000612665 0)
(0.0137575 0.000475294 0)
(0.0139842 0.000359422 0)
(0.0141399 0.000261535 0)
(0.0142391 0.000178633 0)
(0.0142936 0.000108224 0)
(0.0143129 4.82646e-05 0)
(0.0143044 -2.83124e-06 0)
(0.0142745 -4.57553e-05 0)
(0.00126648 0.00178636 0)
(0.00367755 0.00168702 0)
(0.00581049 0.00152481 0)
(0.00762317 0.0013327 0)
(0.00911755 0.00113601 0)
(0.0103218 0.000950394 0)
(0.0112753 0.000783617 0)
(0.0120195 0.000638146 0)
(0.0125925 0.000513446 0)
(0.0130273 0.000407543 0)
(0.0133512 0.000317969 0)
(0.0135866 0.000242262 0)
(0.0137513 0.000178194 0)
(0.0138599 0.000123853 0)
(0.0139238 7.7638e-05 0)
(0.0139523 3.82309e-05 0)
(0.0139527 4.54801e-06 0)
(0.0139313 -2.37019e-05 0)
(0.00120556 0.000971291 0)
(0.00350386 0.000918483 0)
(0.00554428 0.000831807 0)
(0.00728647 0.000728727 0)
(0.00873031 0.000622773 0)
(0.00990026 0.000522436 0)
(0.010832 0.000431996 0)
(0.0115635 0.000352891 0)
(0.0121303 0.000284914 0)
(0.0125635 0.00022706 0)
(0.0128891 0.000178034 0)
(0.0131284 0.000136527 0)
(0.0132985 0.000101349 0)
(0.0134135 7.14688e-05 0)
(0.0134845 4.60235e-05 0)
(0.0135204 2.42984e-05 0)
(0.0135284 5.70439e-06 0)
(0.0135146 -9.88791e-06 0)
(0.00112703 0.000300914 0)
(0.00327769 0.000284778 0)
(0.00519179 0.000258209 0)
(0.00683159 0.000226538 0)
(0.00819588 0.000193915 0)
(0.00930614 0.00016296 0)
(0.0101945 0.000135009 0)
(0.0108955 0.00011052 0)
(0.0114418 8.94445e-05 0)
(0.0118621 7.1483e-05 0)
(0.0121804 5.62429e-05 0)
(0.0124168 4.33252e-05 0)
(0.0125873 3.23647e-05 0)
(0.0127049 2.30453e-05 0)
(0.0127802 1.5101e-05 0)
(0.0128217 8.3113e-06 0)
(0.0128362 2.49451e-06 0)
(0.0128295 -2.37231e-06 0)
(7.79422e-05 -0.000184715 -2.38646e-30)
(0.000234495 -0.000184494 2.38176e-30)
(0.000392097 -0.00018412 0)
(0.000550621 -0.000183587 0)
(0.000709926 -0.00018289 0)
(0.00086987 -0.000182028 -2.34238e-30)
(0.0010303 -0.000180997 0)
(0.00119107 -0.000179797 0)
(0.00135201 -0.00017843 0)
(0.00151299 -0.000176899 0)
(0.00167383 -0.000175209 2.24477e-30)
(0.00183441 -0.00017337 0)
(0.00199458 -0.000171392 0)
(0.00215422 -0.000169291 0)
(0.00231323 -0.000167087 0)
(0.00247153 -0.000164805 2.10087e-30)
(0.00262907 -0.000162475 0)
(0.00278586 -0.000160135 0)
(0.00294193 -0.000157826 0)
(0.00309739 -0.000155597 0)
(0.00325241 -0.000153495 0)
(0.00340721 -0.00015157 0)
(0.0035621 -0.000149864 0)
(0.00371745 -0.000148417 1.87436e-30)
(0.00387369 -0.000147262 -1.85758e-30)
(0.0040313 -0.000146424 1.84489e-30)
(0.00419083 -0.000145924 1.83655e-30)
(0.00435287 -0.000145777 0)
(0.00451804 -0.000145998 0)
(0.00468701 -0.000146595 -1.83937e-30)
(0.00486047 -0.000147576 -1.85e-30)
(0.00503911 -0.000148944 0)
(0.0052236 -0.000150693 0)
(0.00541453 -0.000152805 -1.91104e-30)
(0.00561238 -0.000155245 0)
(0.00581745 -0.000157963 0)
(0.00602979 -0.000160899 2.00839e-30)
(0.00624924 -0.000163993 0)
(0.00647542 -0.000167211 2.08471e-30)
(0.00670787 -0.000170565 4.25062e-30)
(0.00694618 -0.000174139 0)
(0.00719018 -0.000178105 0)
(0.00744013 -0.000182729 0)
(0.00769686 -0.000188374 0)
(0.0079619 -0.000195506 0)
(0.00823761 -0.000204715 5.09728e-30)
(0.00852734 -0.000216762 5.40183e-30)
(0.0088356 -0.000232668 5.80572e-30)
(0.00916844 -0.000253881 0)
(0.00953393 -0.000282553 -7.07874e-30)
(0.0099428 -0.000322011 0)
(0.0104086 -0.000377483 9.51195e-30)
(0.0109441 -0.000456859 1.15511e-29)
(0.0115274 -0.000569151 0)
(0.0116212 -0.000698119 0)
(0.00572581 -0.000207727 0)
(1.49088e-05 -6.80835e-09 -1.75992e-34)
(1.47316e-18 -6.72749e-22 0)
(8.90965e-32 2.57952e-33 0)
(8.55169e-32 1.80645e-33 0)
(8.28321e-32 1.37213e-33 0)
(8.06684e-32 1.10279e-33 0)
(7.88384e-32 9.20484e-34 0)
(7.72405e-32 7.87855e-34 0)
(7.58152e-32 6.85734e-34 0)
(7.45251e-32 6.03592e-34 1.7362e-59)
(7.33454e-32 5.35281e-34 0)
(7.22587e-32 4.77006e-34 0)
(7.12521e-32 4.26313e-34 -1.27021e-59)
(7.03159e-32 3.81546e-34 -1.15228e-59)
(6.94424e-32 3.4155e-34 0)
(6.86256e-32 3.0549e-34 9.51691e-60)
(6.78601e-32 2.72745e-34 -8.65241e-60)
(6.71418e-32 2.42839e-34 0)
(6.64668e-32 2.15399e-34 7.13718e-60)
(6.58319e-32 1.90127e-34 0)
(6.52343e-32 1.66777e-34 0)
(6.46715e-32 1.45146e-34 -5.27878e-60)
(6.41411e-32 1.25063e-34 0)
(6.3641e-32 1.06379e-34 4.25236e-60)
(6.31695e-32 8.89705e-35 0)
(6.27248e-32 7.27261e-35 -3.36082e-60)
(6.23053e-32 5.755e-35 -2.95862e-60)
(6.19096e-32 4.33576e-35 -2.58241e-60)
(6.15363e-32 3.00738e-35 -4.46042e-60)
(6.11842e-32 1.76317e-35 3.80058e-60)
(6.08521e-32 5.97124e-36 0)
(6.0539e-32 -4.96152e-36 0)
(6.02438e-32 -1.52155e-35 0)
(5.99655e-32 -2.48351e-35 1.54753e-60)
(5.97033e-32 -3.38609e-35 1.06854e-60)
(5.94563e-32 -4.23303e-35 -6.19009e-61)
(5.92238e-32 -5.02775e-35 0)
(5.90048e-32 -5.77342e-35 -1.9868e-61)
(5.87988e-32 -6.47299e-35 -5.70047e-61)
(5.8605e-32 -7.12918e-35 -9.18443e-61)
(5.84228e-32 -7.74456e-35 0)
(5.82516e-32 -8.32151e-35 0)
(5.80907e-32 -8.86228e-35 0)
(5.79396e-32 -9.36896e-35 -2.1078e-60)
(5.77979e-32 -9.84353e-35 0)
(5.76649e-32 -1.02879e-34 0)
(5.75402e-32 -1.07037e-34 2.81674e-60)
(5.74233e-32 -1.10927e-34 0)
(5.73138e-32 -1.14565e-34 0)
(5.72114e-32 -1.17965e-34 3.39721e-60)
(5.71155e-32 -1.21141e-34 0)
(5.70258e-32 -1.24107e-34 0)
(5.69419e-32 -1.26875e-34 -3.87058e-60)
(5.68636e-32 -1.29457e-34 -4.00776e-60)
(5.67905e-32 -1.31864e-34 0)
(5.67223e-32 -1.34107e-34 4.25481e-60)
(5.66586e-32 -1.36196e-34 0)
(5.65993e-32 -1.3814e-34 -4.46913e-60)
(5.65441e-32 -1.39949e-34 0)
(5.64926e-32 -1.4163e-34 -4.65458e-60)
(5.64448e-32 -1.43192e-34 -4.73764e-60)
(5.64003e-32 -1.44643e-34 0)
(5.63589e-32 -1.45989e-34 0)
(5.63205e-32 -1.47238e-34 0)
(5.62848e-32 -1.48396e-34 0)
(5.62517e-32 -1.49468e-34 0)
(5.62211e-32 -1.5046e-34 0)
(5.61927e-32 -1.51379e-34 0)
(5.61664e-32 -1.52228e-34 -5.21788e-60)
(5.6142e-32 -1.53012e-34 5.25961e-60)
(5.61195e-32 -1.53737e-34 0)
(5.60987e-32 -1.54405e-34 0)
(5.60795e-32 -1.55021e-34 0)
(5.60618e-32 -1.55589e-34 0)
(5.60455e-32 -1.56112e-34 1.08488e-59)
(5.60304e-32 -1.56593e-34 0)
(5.60165e-32 -1.57035e-34 -1.0947e-59)
(5.60038e-32 -1.57441e-34 1.09902e-59)
(5.5992e-32 -1.57814e-34 0)
(5.59812e-32 -1.58156e-34 0)
(5.59713e-32 -1.58469e-34 0)
(5.59622e-32 -1.58756e-34 -1.11301e-59)
(5.59538e-32 -1.59018e-34 -1.1158e-59)
(5.59462e-32 -1.59258e-34 0)
(5.59391e-32 -1.59476e-34 -1.12067e-59)
(5.59327e-32 -1.59674e-34 -1.12278e-59)
(5.59268e-32 -1.59854e-34 1.12469e-59)
(5.59213e-32 -1.60017e-34 0)
(5.59164e-32 -1.60164e-34 0)
(5.59118e-32 -1.60296e-34 1.12941e-59)
(5.59076e-32 -1.60414e-34 0)
(5.59037e-32 -1.60517e-34 0)
(5.59001e-32 -1.60608e-34 0)
(5.58968e-32 -1.60686e-34 0)
(5.58936e-32 -1.6075e-34 -1.13427e-59)
(5.58907e-32 -1.60801e-34 -1.13483e-59)
(5.58878e-32 -1.60838e-34 0)
(5.5885e-32 -1.6086e-34 -1.1355e-59)
(5.58823e-32 -1.60866e-34 0)
(5.58795e-32 -1.60853e-34 0)
(5.58766e-32 -1.60818e-34 -1.13513e-59)
(5.58735e-32 -1.60757e-34 0)
(5.58701e-32 -1.60666e-34 -1.13362e-59)
(5.58663e-32 -1.60537e-34 0)
(5.58618e-32 -1.60362e-34 0)
(5.58566e-32 -1.60128e-34 -1.12819e-59)
(5.58502e-32 -1.59822e-34 0)
(5.58425e-32 -1.59423e-34 -1.12103e-59)
(5.58329e-32 -1.58904e-34 0)
(5.58209e-32 -1.58231e-34 0)
(5.58057e-32 -1.57357e-34 0)
(5.57864e-32 -1.56219e-34 1.08844e-59)
(5.57616e-32 -1.5473e-34 0)
(5.57296e-32 -1.52767e-34 -1.05328e-59)
(5.56879e-32 -1.50158e-34 0)
(5.56332e-32 -1.46644e-34 0)
(5.55605e-32 -1.41833e-34 0)
(5.54628e-32 -1.35097e-34 0)
(5.53291e-32 -1.25362e-34 0)
(5.51415e-32 -1.10637e-34 0)
(5.48682e-32 -8.67576e-35 0)
(5.44449e-32 -4.34015e-35 -1.30802e-60)
(5.3709e-32 5.25301e-35 0)
(5.20781e-32 3.53343e-34 0)
(9.88011e-05 -0.00058648 7.57656e-30)
(0.000297261 -0.000585873 -7.56168e-30)
(0.000497095 -0.000584779 0)
(0.000698154 -0.000583188 1.50421e-29)
(0.000900283 -0.000581093 0)
(0.00110333 -0.000578491 -7.46379e-30)
(0.00130715 -0.000575392 -1.48118e-29)
(0.00151161 -0.000571811 -1.47096e-29)
(0.00171663 -0.000567771 0)
(0.00192212 -0.000563297 -1.44701e-29)
(0.00212803 -0.00055842 7.19229e-30)
(0.00233433 -0.000553174 0)
(0.002541 -0.000547595 0)
(0.00274805 -0.000541727 0)
(0.00295546 -0.000535616 0)
(0.00316324 -0.000529314 6.80388e-30)
(0.00337135 -0.000522877 0)
(0.00357975 -0.000516369 1.31788e-29)
(0.00378835 -0.000509855 0)
(0.00399699 -0.000503406 0)
(0.00420548 -0.000497095 -1.2651e-29)
(0.00441355 -0.000490993 0)
(0.00462089 -0.00048517 1.23231e-29)
(0.00482716 -0.000479694 6.14291e-30)
(0.00503202 -0.00047463 -6.07504e-30)
(0.0052351 -0.00047004 6.01333e-30)
(0.00543609 -0.000465989 5.9586e-30)
(0.00563471 -0.00046254 0)
(0.00583072 -0.000459758 0)
(0.00602396 -0.00045771 -5.84465e-30)
(0.00621435 -0.00045646 -1.7332e-29)
(0.00640187 -0.000456068 0)
(0.0065866 -0.000456579 0)
(0.0067687 -0.000458023 -5.83991e-30)
(0.00694842 -0.00046041 0)
(0.00712614 -0.00046373 0)
(0.00730237 -0.00046797 5.96217e-30)
(0.00747777 -0.000473139 0)
(0.00765319 -0.000479298 1.81326e-29)
(0.00782968 -0.000486613 1.23938e-29)
(0.00800846 -0.000495385 0)
(0.00819097 -0.000506092 0)
(0.00837885 -0.00051941 -2.60615e-29)
(0.00857397 -0.000536235 -2.69129e-29)
(0.00877845 -0.00055772 -2.80044e-29)
(0.0089948 -0.000585345 4.43306e-29)
(0.00922592 -0.000621041 1.58357e-29)
(0.00947533 -0.000667422 -1.65813e-29)
(0.00974726 -0.000728171 3.6725e-29)
(0.0100468 -0.000808722 -2.06678e-29)
(0.0103802 -0.000917452 0)
(0.0107545 -0.00106788 2.73501e-29)
(0.0111768 -0.00128258 9.81423e-29)
(0.0116461 -0.00159863 0)
(0.01203 -0.00204763 0)
(0.00650673 -0.00171863 0)
(0.000420898 -5.79709e-07 5.04812e-33)
(5.62702e-12 -7.70908e-15 0)
(8.60611e-32 6.7493e-33 -3.57058e-58)
(8.39359e-32 5.15458e-33 0)
(8.19195e-32 4.1575e-33 -2.22673e-58)
(8.00883e-32 3.4849e-33 0)
(7.84378e-32 3.00208e-33 1.62611e-58)
(7.69448e-32 2.63675e-33 0)
(7.55853e-32 2.34808e-33 -1.28531e-58)
(7.43391e-32 2.1119e-33 1.72549e-58)
(7.31904e-32 1.91323e-33 0)
(7.21264e-32 1.74244e-33 9.68932e-59)
(7.11373e-32 1.59306e-33 -4.2859e-59)
(7.02148e-32 1.46063e-33 -3.94142e-59)
(6.93526e-32 1.342e-33 0)
(6.8545e-32 1.23482e-33 1.03849e-58)
(6.77874e-32 1.13735e-33 -3.10001e-59)
(6.70758e-32 1.04823e-33 0)
(6.64067e-32 9.66387e-34 2.65483e-59)
(6.5777e-32 8.9096e-34 5.22732e-59)
(6.51839e-32 8.21233e-34 0)
(6.46252e-32 7.5661e-34 -2.10837e-59)
(6.40984e-32 6.96589e-34 0)
(6.36016e-32 6.40736e-34 -2.10674e-59)
(6.31331e-32 5.88678e-34 0)
(6.26911e-32 5.40093e-34 1.84013e-59)
(6.22741e-32 4.94693e-34 -1.42578e-59)
(6.18806e-32 4.5223e-34 -4.23743e-59)
(6.15094e-32 4.12479e-34 -7.84958e-59)
(6.11592e-32 3.75241e-34 7.26378e-59)
(6.08289e-32 3.4034e-34 0)
(6.05174e-32 3.07613e-34 0)
(6.02237e-32 2.76915e-34 0)
(5.99469e-32 2.48114e-34 -2.1319e-59)
(5.9686e-32 2.21089e-34 1.42483e-59)
(5.94402e-32 1.95729e-34 -1.29256e-59)
(5.92087e-32 1.71931e-34 0)
(5.89909e-32 1.49601e-34 3.71299e-59)
(5.87858e-32 1.28651e-34 9.42689e-60)
(5.85929e-32 1.08999e-34 8.40179e-60)
(5.84116e-32 9.05686e-35 0)
(5.82411e-32 7.32886e-35 0)
(5.8081e-32 5.70921e-35 0)
(5.79307e-32 4.19162e-35 4.90243e-60)
(5.77895e-32 2.77016e-35 0)
(5.76571e-32 1.43926e-35 1.23781e-59)
(5.7533e-32 1.93648e-36 8.24998e-60)
(5.74167e-32 -9.71631e-36 -9.83989e-60)
(5.73077e-32 -2.06128e-35 0)
(5.72056e-32 -3.07972e-35 -8.7293e-60)
(5.71102e-32 -4.03116e-35 0)
(5.70209e-32 -4.91958e-35 -5.68306e-60)
(5.69374e-32 -5.74871e-35 4.52645e-60)
(5.68594e-32 -6.52213e-35 3.30855e-60)
(5.67866e-32 -7.24319e-35 0)
(5.67187e-32 -7.91507e-35 3.94252e-60)
(5.66553e-32 -8.54079e-35 -1.86974e-60)
(5.65963e-32 -9.12319e-35 -2.04418e-60)
(5.65413e-32 -9.66496e-35 0)
(5.649e-32 -1.01686e-34 -2.58968e-60)
(5.64424e-32 -1.06367e-34 -2.4964e-60)
(5.63981e-32 -1.10713e-34 0)
(5.63569e-32 -1.14746e-34 1.22009e-60)
(5.63186e-32 -1.18487e-34 1.61409e-60)
(5.62831e-32 -1.21954e-34 1.97933e-60)
(5.62502e-32 -1.25166e-34 0)
(5.62196e-32 -1.2814e-34 0)
(5.61914e-32 -1.30891e-34 0)
(5.61652e-32 -1.33435e-34 -7.43501e-60)
(5.61409e-32 -1.35785e-34 4.36903e-60)
(5.61185e-32 -1.37955e-34 0)
(5.60978e-32 -1.39957e-34 -3.87578e-60)
(5.60787e-32 -1.41803e-34 -4.07027e-60)
(5.6061e-32 -1.43504e-34 0)
(5.60448e-32 -1.45071e-34 9.70727e-60)
(5.60298e-32 -1.46512e-34 -9.13274e-60)
(5.6016e-32 -1.47837e-34 -9.99599e-60)
(5.60032e-32 -1.49054e-34 1.97915e-59)
(5.59915e-32 -1.50171e-34 0)
(5.59808e-32 -1.51196e-34 0)
(5.59709e-32 -1.52134e-34 0)
(5.59618e-32 -1.52993e-34 -1.05342e-59)
(5.59535e-32 -1.53778e-34 -2.12805e-59)
(5.59459e-32 -1.54495e-34 -1.08154e-59)
(5.59389e-32 -1.55149e-34 -1.07593e-59)
(5.59324e-32 -1.55743e-34 -2.18999e-59)
(5.59265e-32 -1.56283e-34 1.08777e-59)
(5.59211e-32 -1.56771e-34 0)
(5.59162e-32 -1.57212e-34 0)
(5.59116e-32 -1.57607e-34 2.24878e-59)
(5.59074e-32 -1.57959e-34 0)
(5.59036e-32 -1.58271e-34 0)
(5.59e-32 -1.58542e-34 -1.16696e-59)
(5.58967e-32 -1.58775e-34 0)
(5.58936e-32 -1.58969e-34 -2.29188e-59)
(5.58906e-32 -1.59122e-34 -1.11747e-59)
(5.58878e-32 -1.59234e-34 0)
(5.5885e-32 -1.593e-34 -2.30256e-59)
(5.58823e-32 -1.59317e-34 0)
(5.58795e-32 -1.59278e-34 0)
(5.58767e-32 -1.59174e-34 -1.11814e-59)
(5.58736e-32 -1.58994e-34 -1.17729e-59)
(5.58702e-32 -1.58722e-34 -1.11352e-59)
(5.58664e-32 -1.58337e-34 0)
(5.58621e-32 -1.57815e-34 0)
(5.58569e-32 -1.57119e-34 -2.23622e-59)
(5.58506e-32 -1.56204e-34 0)
(5.5843e-32 -1.55013e-34 -2.17155e-59)
(5.58335e-32 -1.53465e-34 0)
(5.58217e-32 -1.51457e-34 0)
(5.58068e-32 -1.48851e-34 0)
(5.57877e-32 -1.45457e-34 9.77148e-60)
(5.57634e-32 -1.41017e-34 0)
(5.57319e-32 -1.35169e-34 -8.71302e-60)
(5.56909e-32 -1.27397e-34 0)
(5.56372e-32 -1.16941e-34 0)
(5.5566e-32 -1.02646e-34 -2.36649e-61)
(5.54706e-32 -8.26665e-35 -3.8589e-60)
(5.53406e-32 -5.3882e-35 0)
(5.51594e-32 -1.05709e-35 0)
(5.48991e-32 5.89428e-35 0)
(5.45082e-32 1.82292e-34 6.85825e-59)
(5.38872e-32 4.39615e-34 0)
(5.29075e-32 1.13284e-33 -5.08502e-58)
(0.000105379 -0.00103326 5.34057e-29)
(0.000317066 -0.00103229 -7.54114e-33)
(0.000530227 -0.00103044 0)
(0.000744667 -0.00102769 1.76363e-32)
(0.000960187 -0.00102403 0)
(0.00117659 -0.00101949 0)
(0.00139368 -0.00101408 -5.2262e-29)
(0.00161128 -0.00100786 -2.59764e-29)
(0.00182925 -0.00100088 2.57424e-29)
(0.00204744 -0.000993205 -2.5577e-29)
(0.00226575 -0.000984902 0)
(0.00248408 -0.000976037 0)
(0.00270234 -0.000966676 -2.47965e-29)
(0.00292048 -0.000956882 -4.90558e-29)
(0.00313842 -0.000946719 4.84994e-29)
(0.00335611 -0.00093624 0)
(0.00357346 -0.000925493 4.73405e-29)
(0.00379036 -0.000914519 2.34608e-29)
(0.00400667 -0.000903348 0)
(0.00422219 -0.000892006 4.55173e-29)
(0.00443666 -0.000880516 -2.25513e-29)
(0.00464975 -0.000868909 -4.42627e-29)
(0.00486112 -0.000857226 2.19292e-29)
(0.00507037 -0.00084553 0)
(0.00527711 -0.000833903 4.23641e-29)
(0.00548098 -0.000822455 4.17433e-29)
(0.00568166 -0.000811315 0)
(0.0058789 -0.000800635 4.05589e-29)
(0.00607252 -0.00079058 0)
(0.00626246 -0.000781324 3.95063e-29)
(0.00644873 -0.000773045 -1.96782e-29)
(0.00663142 -0.000765917 0)
(0.00681073 -0.000760106 0)
(0.00698695 -0.000755771 0)
(0.00716048 -0.000753066 0)
(0.0073318 -0.000752148 0)
(0.00750151 -0.000753192 0)
(0.00767034 -0.000756415 3.80191e-29)
(0.00783914 -0.000762102 -1.89595e-29)
(0.00800891 -0.000770638 0)
(0.00818076 -0.000782546 0)
(0.00835594 -0.000798519 0)
(0.00853582 -0.000819459 -8.27146e-29)
(0.00872191 -0.000846523 -4.29405e-29)
(0.00891585 -0.000881191 -4.2109e-31)
(0.00911941 -0.00092536 4.30703e-31)
(0.00933447 -0.0009815 -4.94199e-29)
(0.00956298 -0.00105289 -5.35301e-29)
(0.00980674 -0.00114399 1.1597e-28)
(0.0100669 -0.00126099 6.37651e-29)
(0.0103425 -0.00141261 0)
(0.0106269 -0.00161127 8.17949e-29)
(0.010897 -0.00187423 1.91218e-28)
(0.0110806 -0.00222232 0)
(0.0109368 -0.00265519 0)
(0.0089087 -0.00268909 -1.3776e-28)
(0.00354171 -4.57733e-05 0)
(7.07278e-07 -1.61496e-09 0)
(4.48251e-25 -1.0235e-27 -1.05846e-53)
(8.21369e-32 7.47604e-33 -7.96271e-58)
(8.06682e-32 6.38577e-33 -3.37754e-58)
(7.91852e-32 5.54579e-33 0)
(7.776e-32 4.88755e-33 2.60023e-58)
(7.64168e-32 4.35931e-33 0)
(7.51604e-32 3.92502e-33 -6.37146e-58)
(7.39876e-32 3.55991e-33 1.9103e-58)
(7.28929e-32 3.24694e-33 3.56376e-58)
(7.18701e-32 2.97428e-33 4.88447e-58)
(7.09132e-32 2.73352e-33 0)
(7.00166e-32 2.51863e-33 -2.80255e-58)
(6.91757e-32 2.32513e-33 0)
(6.8386e-32 2.14967e-33 -1.24051e-58)
(6.76436e-32 1.98966e-33 -2.2489e-58)
(6.69451e-32 1.84306e-33 -2.09533e-58)
(6.62875e-32 1.7082e-33 1.95403e-58)
(6.56679e-32 1.58376e-33 -9.42808e-59)
(6.50838e-32 1.4686e-33 0)
(6.45331e-32 1.36178e-33 0)
(6.40135e-32 1.2625e-33 1.48674e-58)
(6.35233e-32 1.17006e-33 7.2488e-59)
(6.30606e-32 1.08385e-33 0)
(6.2624e-32 1.00336e-33 5.77867e-59)
(6.22119e-32 9.28125e-34 0)
(6.18229e-32 8.57728e-34 5.60199e-59)
(6.14558e-32 7.91808e-34 -1.9276e-58)
(6.11095e-32 7.30041e-34 1.79824e-58)
(6.07827e-32 6.72135e-34 -8.67173e-59)
(6.04744e-32 6.17827e-34 0)
(6.01837e-32 5.66877e-34 7.56643e-59)
(5.99097e-32 5.19069e-34 -1.35629e-58)
(5.96514e-32 4.74202e-34 0)
(5.9408e-32 4.32094e-34 0)
(5.91788e-32 3.92576e-34 0)
(5.8963e-32 3.55492e-34 4.78935e-59)
(5.87599e-32 3.20697e-34 0)
(5.85689e-32 2.88055e-34 0)
(5.83892e-32 2.57441e-34 0)
(5.82203e-32 2.28736e-34 0)
(5.80617e-32 2.0183e-34 0)
(5.79127e-32 1.76618e-34 -3.46691e-59)
(5.77729e-32 1.53003e-34 0)