/*--------------------------------*- C++ -*----------------------------------*\
  =========                 |
  \\      /  F ield         | OpenFOAM: The Open Source CFD Toolbox
   \\    /   O peration     | Website:  https://openfoam.org
    \\  /    A nd           | Version:  11
     \\/     M anipulation  |
\*---------------------------------------------------------------------------*/
FoamFile
{
    format      ascii;
    class       volScalarField;
    location    "88";
    object      p;
}
// * * * * * * * * * * * * * * * * * * * * * * * * * * * * * * * * * * * * * //

dimensions      [0 2 -2 0 0 0 0];

internalField   nonuniform List<scalar> 
2048
(
0.422175
0.420263
0.416415
0.410457
0.402253
0.391668
0.378537
0.362677
0.343913
0.322117
0.297247
0.269384
0.238768
0.205825
0.171171
0.135597
0.100007
0.0653373
0.0324623
0.0021114
-0.0251527
-0.0488972
-0.0687569
-0.0843768
-0.0953925
-0.10146
-0.102312
-0.0978071
-0.0880188
-0.0733583
-0.0546005
-0.032796
-0.00912766
0.0152388
0.0392808
0.0622102
0.0835149
0.102954
0.120521
0.136394
0.150877
0.164335
0.177134
0.189546
0.201727
0.213587
0.224817
0.234814
0.242711
0.24744
0.247855
0.24287
0.231709
0.214079
0.190517
0.162301
0.131739
0.101244
0.0737901
0.0505967
0.0335001
0.0202449
0.011889
0.00225593
0.424144
0.422258
0.41846
0.412569
0.40444
0.393919
0.380819
0.364931
0.346053
0.324031
0.298799
0.270424
0.239148
0.205422
0.16992
0.133505
0.0971669
0.0619102
0.0286305
-0.00197103
-0.0293933
-0.0532695
-0.0732868
-0.0891179
-0.100397
-0.106754
-0.107865
-0.103515
-0.0937066
-0.0788214
-0.0596554
-0.0373048
-0.0130041
0.0120262
0.0367127
0.0602303
0.0820481
0.101922
0.11985
0.136018
0.150734
0.16437
0.177287
0.189756
0.20193
0.213729
0.224825
0.234612
0.242227
0.246614
0.246638
0.241216
0.229565
0.211382
0.187206
0.158333
0.127138
0.0961254
0.0684232
0.0453579
0.0288723
0.0166111
0.00970294
0.00138839
0.42806
0.42623
0.422538
0.416796
0.408833
0.398461
0.385447
0.369524
0.350433
0.32796
0.301992
0.272567
0.239928
0.204578
0.167299
0.129122
0.0912307
0.0547818
0.0207133
-0.0103517
-0.0380538
-0.0621662
-0.0824849
-0.0987529
-0.110604
-0.117608
-0.119309
-0.115329
-0.105516
-0.0901876
-0.0701737
-0.0466732
-0.021045
0.00536789
0.0313873
0.0561151
0.078984
0.0997408
0.118393
0.135141
0.150312
0.16429
0.177435
0.190015
0.202178
0.213833
0.224633
0.233972
0.241008
0.244707
0.243946
0.237633
0.224956
0.205579
0.18004
0.149696
0.117084
0.0849184
0.0566382
0.033837
0.018652
0.00858893
0.00475885
-0.000455446
0.43386
0.432124
0.428611
0.423123
0.415454
0.405359
0.392534
0.376622
0.357261
0.334131
0.307029
0.275945
0.241129
0.203171
0.163027
0.122013
0.0816642
0.0434096
0.00823208
-0.0234142
-0.0514296
-0.0758287
-0.0965899
-0.11357
-0.126423
-0.13461
-0.137406
-0.134128
-0.124375
-0.108377
-0.0870217
-0.0616542
-0.0338509
-0.00519407
0.022948
0.0495686
0.0740595
0.0961656
0.11591
0.133519
0.149348
0.163807
0.177264
0.189993
0.202116
0.213514
0.223833
0.232496
0.238696
0.241419
0.239543
0.231945
0.217767
0.196621
0.169032
0.136409
0.10149
0.0673213
0.0378566
0.0151605
0.00178261
-0.00486878
-0.00380468
-0.00353263
0.44144
0.439848
0.436614
0.431525
0.424329
0.414705
0.402252
0.386485
0.366886
0.342949
0.314303
0.280824
0.242774
0.200914
0.156495
0.11131
0.0674975
0.0268815
-0.00957484
-0.0417355
-0.0699072
-0.0944923
-0.115799
-0.133897
-0.148448
-0.158656
-0.163379
-0.161415
-0.15189
-0.134938
-0.11162
-0.0835073
-0.0524635
-0.0204469
0.0108329
0.0401753
0.0669196
0.0908402
0.11202
0.130737
0.147386
0.162399
0.176204
0.189087
0.20106
0.212024
0.221611
0.2293
0.234311
0.235652
0.232234
0.222974
0.20702
0.183928
0.154146
0.119061
0.0815356
0.0449277
0.0137478
-0.00930333
-0.0209693
-0.0235632
-0.0162146
-0.00797721
0.45064
0.449261
0.446441
0.441949
0.435474
0.426606
0.414811
0.399443
0.379776
0.355018
0.324501
0.287787
0.245078
0.197413
0.146597
0.0954032
0.0470186
0.00368882
-0.0339141
-0.0662265
-0.0941066
-0.118484
-0.140241
-0.15995
-0.177339
-0.191018
-0.199024
-0.199399
-0.190587
-0.172425
-0.146214
-0.114042
-0.0783343
-0.0415797
-0.00592448
0.0271679
0.056948
0.0832194
0.106166
0.126182
0.143725
0.159291
0.173404
0.186292
0.19779
0.2079
0.216188
0.222201
0.225262
0.224583
0.21925
0.208209
0.190523
0.165617
0.133842
0.0965691
0.0567972
0.0181484
-0.0144193
-0.0376654
-0.0476085
-0.0458409
-0.0314629
-0.0135198
0.461228
0.460152
0.457917
0.454288
0.448879
0.441179
0.430469
0.415904
0.396476
0.37105
0.338552
0.297865
0.248853
0.192616
0.131977
0.0719904
0.017764
-0.0282642
-0.0663501
-0.0979539
-0.124689
-0.148192
-0.170259
-0.192152
-0.213821
-0.233376
-0.24733
-0.251517
-0.24401
-0.224633
-0.19455
-0.156313
-0.113523
-0.0698598
-0.0281689
0.00984425
0.0434437
0.0725839
0.0975924
0.118952
0.137307
0.153394
0.167615
0.179975
0.190366
0.198489
0.204399
0.208001
0.209021
0.206653
0.19975
0.187113
0.167743
0.141007
0.10722
0.0678181
0.0260521
-0.0141042
-0.0472526
-0.0697071
-0.0770632
-0.0702951
-0.0483359
-0.0197672
0.472881
0.472216
0.470773
0.468343
0.464454
0.458525
0.449549
0.436457
0.417708
0.391812
0.357207
0.311918
0.25527
0.186939
0.111349
0.0385618
-0.0230337
-0.0713761
-0.108499
-0.137467
-0.161153
-0.182496
-0.204938
-0.230764
-0.259444
-0.287876
-0.312053
-0.323235
-0.317814
-0.296578
-0.261239
-0.21465
-0.161722
-0.108009
-0.0576898
-0.0129579
0.0255425
0.0581005
0.0853284
0.107981
0.127038
0.143313
0.156934
0.167564
0.175154
0.18034
0.184039
0.186358
0.186448
0.18302
0.174838
0.160792
0.139936
0.111588
0.0759895
0.0346123
-0.00900245
-0.0503894
-0.0836459
-0.104505
-0.1083
-0.0958192
-0.0658634
-0.0263608
0.485169
0.485031
0.484605
0.483763
0.48194
0.478612
0.472358
0.462005
0.444787
0.418845
0.381105
0.329431
0.263283
0.177721
0.0802908
-0.00970435
-0.079891
-0.129586
-0.163003
-0.185059
-0.20066
-0.215938
-0.237591
-0.269731
-0.310974
-0.355937
-0.39358
-0.418102
-0.419651
-0.397366
-0.353834
-0.294058
-0.22595
-0.157915
-0.0958475
-0.0423877
0.00221033
0.038726
0.0681906
0.0920086
0.11156
0.127186
0.138397
0.145383
0.149661
0.153
0.156136
0.158323
0.158086
0.154021
0.145038
0.13018
0.108529
0.0792996
0.0425922
-0.00012326
-0.045071
-0.0872716
-0.12023
-0.139119
-0.139047
-0.120675
-0.0827771
-0.0327564
0.497558
0.498053
0.498853
0.49998
0.500796
0.501039
0.498833
0.493403
0.479857
0.456259
0.413625
0.350986
0.265449
0.149083
0.0219169
-0.0848396
-0.160008
-0.206682
-0.230908
-0.238673
-0.236044
-0.236192
-0.251827
-0.288261
-0.343502
-0.409272
-0.472851
-0.517946
-0.537155
-0.524403
-0.477751
-0.402902
-0.313306
-0.223853
-0.144597
-0.0791818
-0.0270496
0.0137068
0.0453138
0.0699813
0.0888144
0.101649
0.108678
0.111843
0.113952
0.116771
0.120305
0.123116
0.123422
0.119765
0.111109
0.0965666
0.0752231
0.0461866
0.00940974
-0.033656
-0.0790456
-0.121329
-0.153496
-0.170245
-0.166622
-0.142447
-0.0974457
-0.038288
0.509418
0.510612
0.512805
0.516181
0.520129
0.524781
0.528055
0.530193
0.524365
0.510177
0.466559
0.392136
0.257555
0.0787529
-0.0807171
-0.189047
-0.253949
-0.286359
-0.294203
-0.283005
-0.256355
-0.235643
-0.243361
-0.283538
-0.349473
-0.430716
-0.513922
-0.583776
-0.628793
-0.63898
-0.604874
-0.526688
-0.419808
-0.306912
-0.206054
-0.124945
-0.0633196
-0.0176874
0.0159065
0.0402876
0.0564949
0.064914
0.0672342
0.0669457
0.0675279
0.070502
0.0754489
0.0803326
0.0828789
0.081333
0.0745877
0.0618233
0.0421782
0.0147028
-0.0207835
-0.0628853
-0.107519
-0.148902
-0.179696
-0.194236
-0.187671
-0.15856
-0.108192
-0.0422862
0.52005
0.521956
0.525619
0.531343
0.538721
0.54817
0.558036
0.569437
0.576031
0.580451
0.554558
0.498958
0.297289
0.00491514
-0.182716
-0.272579
-0.313698
-0.328263
-0.3241
-0.30285
-0.271825
-0.255348
-0.262027
-0.299216
-0.366968
-0.455917
-0.550073
-0.633225
-0.693967
-0.721987
-0.704163
-0.634559
-0.522939
-0.394145
-0.274117
-0.177272
-0.105714
-0.0551799
-0.0203767
0.00222731
0.0142374
0.0170654
0.0140401
0.0101441
0.00971743
0.0138439
0.0219071
0.0309215
0.0378319
0.0404029
0.0373822
0.0280378
0.011636
-0.0127463
-0.0453832
-0.0849689
-0.127414
-0.166742
-0.195461
-0.207651
-0.198455
-0.166682
-0.113554
-0.0441784
0.528733
0.531306
0.536381
0.544339
0.555092
0.569195
0.585913
0.606514
0.627622
0.653021
0.666874
0.685557
0.559415
0.06806
-0.18178
-0.292552
-0.336175
-0.346373
-0.341603
-0.323847
-0.298361
-0.289487
-0.298613
-0.336412
-0.40782
-0.504215
-0.606935
-0.696881
-0.761857
-0.79287
-0.781006
-0.717584
-0.606665
-0.470336
-0.338014
-0.229633
-0.150473
-0.0966848
-0.0623361
-0.0431967
-0.037039
-0.0412063
-0.0503905
-0.0579453
-0.0588292
-0.0516135
-0.0383146
-0.0229069
-0.00939043
-0.000635062
0.00188553
-0.00245481
-0.0141682
-0.0340302
-0.0623324
-0.0978738
-0.136685
-0.172799
-0.198806
-0.208754
-0.198009
-0.1656
-0.112664
-0.0436401
0.534782
0.537922
0.544189
0.554056
0.567675
0.585843
0.608447
0.63716
0.670568
0.712254
0.753758
0.800771
0.758763
0.308911
0.0237809
-0.150981
-0.258431
-0.318757
-0.347064
-0.361554
-0.339846
-0.331986
-0.341864
-0.37887
-0.450999
-0.549578
-0.655741
-0.748832
-0.814654
-0.844905
-0.832855
-0.770773
-0.660965
-0.523089
-0.386512
-0.273506
-0.191692
-0.138184
-0.106983
-0.0935612
-0.0951933
-0.107603
-0.123283
-0.133905
-0.133932
-0.121963
-0.101444
-0.0775827
-0.0555094
-0.038836
-0.0292995
-0.0273962
-0.0333234
-0.0475778
-0.0703742
-0.100612
-0.134557
-0.166478
-0.189314
-0.197321
-0.186262
-0.155214
-0.105436
-0.040653
0.537647
0.541158
0.548268
0.559494
0.575114
0.596227
0.622888
0.657451
0.698272
0.750312
0.802488
0.865249
0.841343
0.381407
0.0749297
-0.123109
-0.252978
-0.33255
-0.377059
-0.399154
-0.390628
-0.380515
-0.390574
-0.422418
-0.488256
-0.577578
-0.676022
-0.764521
-0.827371
-0.855427
-0.841617
-0.7803
-0.674029
-0.541123
-0.409146
-0.300086
-0.222509
-0.174311
-0.14982
-0.144785
-0.155989
-0.177392
-0.199356
-0.212013
-0.209609
-0.191611
-0.162399
-0.128653
-0.0967724
-0.0711396
-0.0537485
-0.0449406
-0.0445318
-0.0526255
-0.0692622
-0.0934219
-0.1217
-0.148793
-0.168208
-0.17465
-0.164379
-0.136591
-0.092599
-0.0355135
0.53697
0.540718
0.548123
0.559924
0.576461
0.598885
0.627454
0.664505
0.70871
0.764365
0.821077
0.887215
0.870577
0.419363
0.104535
-0.111264
-0.260577
-0.357587
-0.416252
-0.446352
-0.451816
-0.447634
-0.456783
-0.480056
-0.524309
-0.588088
-0.662759
-0.734191
-0.78559
-0.807453
-0.791664
-0.733218
-0.635659
-0.515737
-0.397963
-0.302233
-0.236591
-0.199198
-0.185181
-0.191145
-0.213374
-0.244049
-0.271631
-0.285291
-0.279395
-0.254267
-0.215545
-0.171411
-0.129468
-0.0947867
-0.0695495
-0.053907
-0.0472658
-0.0492732
-0.0597138
-0.0776175
-0.0999776
-0.122064
-0.138095
-0.143401
-0.134836
-0.111784
-0.0755502
-0.0287672
0.532486
0.536132
0.543414
0.554988
0.571192
0.593176
0.621168
0.657511
0.700813
0.755434
0.810836
0.875585
0.856399
0.399087
0.0778376
-0.144537
-0.300979
-0.405669
-0.473284
-0.5117
-0.532207
-0.538337
-0.549881
-0.559435
-0.57071
-0.590212
-0.621119
-0.657272
-0.686121
-0.69581
-0.678053
-0.625306
-0.542717
-0.444248
-0.350069
-0.276401
-0.22947
-0.207555
-0.20732
-0.226523
-0.2608
-0.300549
-0.332767
-0.346333
-0.336214
-0.303642
-0.255616
-0.2017
-0.150565
-0.107804
-0.0756468
-0.0539994
-0.0418695
-0.0384552
-0.0432512
-0.0553066
-0.0720367
-0.0893844
-0.10237
-0.107019
-0.100816
-0.0834062
-0.0560688
-0.0210919
0.524312
0.527641
0.534276
0.544801
0.559437
0.579247
0.604205
0.636662
0.674808
0.723751
0.771983
0.830446
0.798916
0.321365
-0.00453236
-0.222762
-0.374047
-0.476527
-0.547441
-0.599014
-0.629964
-0.647189
-0.662541
-0.655666
-0.626534
-0.588057
-0.557498
-0.542745
-0.538111
-0.530724
-0.509559
-0.466639
-0.404615
-0.334124
-0.270078
-0.22391
-0.199588
-0.196082
-0.212069
-0.246127
-0.292788
-0.340749
-0.376284
-0.388857
-0.374262
-0.33476
-0.27862
-0.216611
-0.158233
-0.109339
-0.0720087
-0.0458419
-0.0294898
-0.0217717
-0.0219203
-0.0289992
-0.0408409
-0.0540682
-0.064553
-0.0690406
-0.0655832
-0.054143
-0.0359841
-0.0131692
0.512773
0.515572
0.521123
0.529877
0.541916
0.557992
0.577858
0.603158
0.632223
0.668758
0.703726
0.743312
0.687536
0.208755
-0.106742
-0.313233
-0.454859
-0.552198
-0.623469
-0.689162
-0.723879
-0.746539
-0.763966
-0.736032
-0.664766
-0.567693
-0.472762
-0.401607
-0.3587
-0.332765
-0.308823
-0.280993
-0.241716
-0.201213
-0.168426
-0.150175
-0.148937
-0.164987
-0.198593
-0.248115
-0.306435
-0.36098
-0.398307
-0.409058
-0.390101
-0.344776
-0.282497
-0.214982
-0.152177
-0.0998294
-0.0596494
-0.0308774
-0.0118847
-0.00123173
0.00202829
-0.00120868
-0.00918674
-0.0191652
-0.0277952
-0.0325416
-0.0319626
-0.0263321
-0.0168946
-0.00558598
0.498389
0.500509
0.504645
0.511133
0.519789
0.531135
0.544207
0.56031
0.575519
0.593977
0.598314
0.606821
0.462221
-0.0687372
-0.362941
-0.521671
-0.61574
-0.67648
-0.724938
-0.787317
-0.799358
-0.81655
-0.81149
-0.757918
-0.6507
-0.508645
-0.364671
-0.248684
-0.172415
-0.129547
-0.105807
-0.091839
-0.0734191
-0.0604657
-0.0555607
-0.0622684
-0.0827466
-0.118458
-0.169961
-0.234158
-0.302126
-0.360869
-0.398158
-0.406204
-0.383034
-0.33328
-0.267363
-0.197556
-0.133688
-0.0809462
-0.0404682
-0.0111337
0.00885477
0.0210429
0.0264382
0.0258456
0.0206394
0.0129633
0.00549531
0.000143088
-0.00206152
-0.00169302
1.34499e-05
0.00122135
0.481841
0.483202
0.485743
0.489709
0.494583
0.500743
0.506275
0.51232
0.511891
0.507869
0.47019
0.399319
0.171945
-0.157833
-0.391112
-0.531528
-0.624743
-0.693748
-0.747116
-0.785904
-0.802256
-0.808387
-0.781196
-0.703102
-0.574799
-0.414025
-0.249337
-0.109971
-0.0118751
0.0460836
0.0756718
0.0874331
0.0850198
0.0753886
0.0576141
0.0295552
-0.0109737
-0.0655304
-0.133431
-0.209421
-0.283339
-0.34294
-0.377844
-0.381945
-0.354662
-0.30206
-0.235393
-0.16687
-0.105455
-0.055322
-0.0169291
0.0111098
0.0306162
0.0430927
0.0494864
0.0504515
0.0470048
0.0407576
0.0338225
0.0276063
0.0228534
0.0187467
0.0140085
0.00697506
0.463905
0.464483
0.465422
0.466823
0.467989
0.468962
0.467476
0.463643
0.450196
0.42651
0.370365
0.279711
0.12302
-0.0836791
-0.277528
-0.426073
-0.535256
-0.616116
-0.673974
-0.712678
-0.72788
-0.716739
-0.669911
-0.581594
-0.456572
-0.309073
-0.157856
-0.0214099
0.0863141
0.159573
0.201252
0.215217
0.206447
0.184894
0.152338
0.108179
0.0512845
-0.018334
-0.0977191
-0.17973
-0.25416
-0.310494
-0.340201
-0.339143
-0.308074
-0.254657
-0.190535
-0.126929
-0.0711749
-0.0261331
0.00833492
0.0336781
0.0515663
0.0633424
0.0698202
0.0714688
0.0689602
0.0634295
0.0565275
0.0493002
0.0423043
0.0346036
0.0247805
0.011536
0.445374
0.445204
0.444666
0.443678
0.441545
0.437884
0.430705
0.41902
0.397696
0.364471
0.309903
0.232785
0.129478
-0.00789232
-0.159761
-0.295197
-0.401711
-0.480764
-0.535818
-0.570011
-0.583193
-0.569443
-0.523924
-0.446754
-0.34288
-0.222902
-0.100672
0.0121891
0.109662
0.190505
0.252065
0.274336
0.269445
0.245589
0.207313
0.155358
0.0901624
0.0139026
-0.0684239
-0.148854
-0.217973
-0.267015
-0.28907
-0.281669
-0.247803
-0.196312
-0.138223
-0.0827018
-0.0349495
0.00343554
0.0329294
0.0547909
0.0703643
0.0807532
0.0866297
0.088302
0.0861334
0.0808277
0.0736264
0.0653504
0.0564264
0.0459939
0.0323653
0.0148826
0.42699
0.426165
0.424354
0.421335
0.416489
0.409188
0.397923
0.381352
0.356555
0.321512
0.272924
0.208643
0.127785
0.0255123
-0.0904167
-0.200525
-0.291406
-0.360266
-0.408775
-0.438516
-0.448973
-0.436744
-0.399538
-0.338726
-0.259094
-0.167631
-0.0719868
0.0204502
0.103456
0.173382
0.218895
0.254313
0.264241
0.250754
0.216944
0.166066
0.101746
0.0283409
-0.0480719
-0.119593
-0.177793
-0.215003
-0.227113
-0.213547
-0.179442
-0.133517
-0.0846624
-0.0392697
-0.000535421
0.0307543
0.0550499
0.0732302
0.0862211
0.0948455
0.0996473
0.100847
0.0985858
0.093217
0.085571
0.0763385
0.0658007
0.0533821
0.0370499
0.0170758
0.409411
0.408055
0.405217
0.400606
0.393698
0.383845
0.369966
0.350896
0.324992
0.290719
0.246412
0.19017
0.121328
0.0397832
-0.0495343
-0.135975
-0.210162
-0.268249
-0.309988
-0.335555
-0.344326
-0.334959
-0.30657
-0.260394
-0.199668
-0.128924
-0.0538543
0.019273
0.085376
0.14096
0.18758
0.21815
0.228446
0.219743
0.193691
0.151812
0.0971902
0.0348925
-0.0284431
-0.0854073
-0.129124
-0.152828
-0.156094
-0.140313
-0.110713
-0.0739604
-0.0360297
-0.000938346
0.0293154
0.0541412
0.0736881
0.0884129
0.0988561
0.105582
0.109029
0.109404
0.106731
0.101128
0.0930156
0.0830213
0.0712662
0.057449
0.0393152
0.0182525
0.39318
0.391423
0.387809
0.382035
0.373672
0.362171
0.346761
0.326551
0.300487
0.267446
0.226374
0.176301
0.117318
0.0508854
-0.0196065
-0.0883887
-0.149428
-0.198898
-0.235242
-0.257836
-0.266176
-0.259768
-0.238413
-0.203137
-0.156294
-0.10143
-0.042856
0.0151945
0.0691951
0.116232
0.154314
0.1797
0.190336
0.185989
0.167397
0.13596
0.0944769
0.0474028
0.000361219
-0.040788
-0.0705169
-0.0866419
-0.0870019
-0.0741872
-0.052099
-0.0249995
0.00325742
0.0299206
0.0534095
0.0730268
0.0886188
0.100332
0.10843
0.113277
0.115221
0.114521
0.11119
0.105252
0.0967277
0.086138
0.0731554
0.0588457
0.0397025
0.0185935
0.378719
0.376677
0.372513
0.365937
0.35661
0.344101
0.327853
0.307206
0.281438
0.249818
0.211788
0.167115
0.116317
0.0608558
0.00311764
-0.0533988
-0.10464
-0.147261
-0.179244
-0.1996
-0.207839
-0.203909
-0.187866
-0.160723
-0.124341
-0.0813743
-0.0349265
0.0118399
0.0559529
0.0948485
0.126474
0.148781
0.160132
0.159858
0.148316
0.126729
0.0973883
0.0637316
0.0299624
0.000317249
-0.0213722
-0.0330177
-0.0335608
-0.0245827
-0.00861271
0.0114509
0.0328658
0.0535221
0.0720472
0.0876872
0.100119
0.109311
0.11536
0.118482
0.118921
0.116978
0.112733
0.10631
0.097469
0.086658
0.0732103
0.0584783
0.0388409
0.0182796
0.366337
0.364103
0.359569
0.352469
0.342534
0.329442
0.312787
0.2921
0.266907
0.236797
0.201563
0.161326
0.116696
0.0688865
0.0197311
-0.0282778
-0.0722063
-0.109339
-0.137737
-0.156291
-0.164371
-0.162512
-0.15051
-0.129392
-0.100653
-0.0663334
-0.028847
0.00928442
0.0456829
0.0784055
0.105567
0.125601
0.137203
0.139748
0.133414
0.119129
0.0986394
0.0745275
0.0499744
0.0282848
0.0122757
0.00371187
0.00316075
0.00984571
0.0220163
0.0375562
0.0544287
0.0709611
0.0859514
0.0986485
0.108645
0.115808
0.120137
0.121775
0.120867
0.117708
0.112399
0.10525
0.0959595
0.0850463
0.0714713
0.0568224
0.0373371
0.0175023
0.356247
0.35389
0.34912
0.341692
0.331395
0.317993
0.301197
0.280685
0.256166
0.227444
0.194509
0.157621
0.117398
0.0748972
0.0316475
-0.0103804
-0.0489409
-0.08188
-0.107522
-0.124811
-0.133271
-0.132503
-0.123378
-0.106569
-0.0832813
-0.0551792
-0.0242028
0.00761218
0.0382937
0.0664721
0.0902652
0.108416
0.119892
0.124138
0.121213
0.111816
0.0973312
0.0797934
0.0616999
0.0456594
0.0338024
0.0275699
0.0274091
0.0329191
0.0428603
0.0556251
0.0696035
0.0834021
0.0959527
0.106537
0.114719
0.120314
0.123266
0.123682
0.121648
0.117455
0.111171
0.103231
0.0933232
0.082188
0.0685842
0.0541556
0.0353806
0.0163157
0.348586
0.346154
0.341242
0.333623
0.323126
0.309581
0.292783
0.272517
0.24861
0.220994
0.189765
0.155251
0.118074
0.0792048
0.0399783
0.00203735
-0.0328029
-0.0627792
-0.0864316
-0.10275
-0.111203
-0.111557
-0.104459
-0.0906061
-0.0710712
-0.0472611
-0.0207727
0.00673634
0.0337025
0.0583033
0.0795948
0.0963314
0.107595
0.112877
0.112159
0.105979
0.0954598
0.082266
0.068436
0.0560867
0.04699
0.0424295
0.042785
0.0477933
0.0565083
0.0676306
0.079813
0.0918509
0.102779
0.111915
0.118817
0.123274
0.125197
0.124675
0.121766
0.116768
0.109713
0.101107
0.0906441
0.0792221
0.0654694
0.0511671
0.0331169
0.0148526
0.34344
0.340966
0.335976
0.328253
0.317657
0.304058
0.287307
0.267254
0.243796
0.216935
0.186828
0.153842
0.1186
0.0820199
0.0453067
0.00990368
-0.0226193
-0.0507253
-0.0730947
-0.0887662
-0.0972165
-0.0982928
-0.0924706
-0.0804668
-0.0632834
-0.0421626
-0.0185044
0.00622789
0.0305966
0.0531655
0.0728842
0.0887006
0.0997919
0.105668
0.106262
0.102006
0.0938541
0.0832534
0.0719837
0.0618835
0.0545283
0.0510587
0.0518387
0.0566554
0.0647238
0.0749275
0.0860734
0.0970675
0.107009
0.115242
0.121327
0.125043
0.126283
0.125129
0.121624
0.116072
0.108479
0.0994059
0.0885388
0.0768031
0.0629953
0.0487988
0.0312305
0.0137203
0.340861
0.338367
0.333342
0.325576
0.31494
0.301326
0.284611
0.264677
0.241453
0.214974
0.185424
0.153188
0.11889
0.083416
0.0479083
0.0137163
-0.0176991
-0.0449024
-0.066643
-0.0819925
-0.0904347
-0.0918542
-0.0866562
-0.0755491
-0.0594961
-0.039665
-0.0173714
0.00600174
0.0291174
0.0506955
0.0696542
0.0850167
0.0960079
0.102149
0.103349
0.0999898
0.0929524
0.0835754
0.073514
0.0644831
0.0579621
0.0550195
0.0560226
0.0607807
0.0685754
0.0783706
0.0890431
0.0995508
0.109025
0.116825
0.122512
0.125863
0.126763
0.125291
0.121482
0.115645
0.107787
0.0984759
0.0873871
0.0754444
0.0616527
0.0475223
0.0302448
0.0131931
)
;

boundaryField
{
    inlet
    {
        type            zeroGradient;
    }
    outlet
    {
        type            fixedValue;
        value           uniform 0;
    }
    top
    {
        type            symmetryPlane;
    }
    bottom
    {
        type            symmetryPlane;
    }
    frontAndBack
    {
        type            empty;
    }
}


// ************************************************************************* //
