/*--------------------------------*- C++ -*----------------------------------*\
  =========                 |
  \\      /  F ield         | OpenFOAM: The Open Source CFD Toolbox
   \\    /   O peration     | Website:  https://openfoam.org
    \\  /    A nd           | Version:  10
     \\/     M anipulation  |
\*---------------------------------------------------------------------------*/
FoamFile
{
    format      ascii;
    class       volVectorField;
    location    "22750";
    object      Ub;
}
// * * * * * * * * * * * * * * * * * * * * * * * * * * * * * * * * * * * * * //

dimensions      [0 1 -1 0 0 0 0];

internalField   nonuniform List<vector> 
3200
(
(-1.51296e-20 -9.87877e-16 0)
(-4.68007e-20 -9.87875e-16 0)
(-8.33538e-20 -9.87869e-16 0)
(-1.30017e-19 -9.87858e-16 0)
(-1.95586e-19 -9.87839e-16 0)
(-2.96579e-19 -9.87801e-16 0)
(-6.92572e-18 -9.87726e-16 0)
(-9.20494e-07 -1.2052e-14 0)
(-3.65464e-05 -4.10178e-05 0)
(-7.33078e-05 -1.3146e-05 0)
(-7.61979e-05 -5.12227e-06 0)
(-7.75542e-05 -2.8189e-06 0)
(-7.84522e-05 -1.78335e-06 0)
(-7.91166e-05 -1.22391e-06 0)
(-7.96368e-05 -8.87892e-07 0)
(-8.00587e-05 -6.71101e-07 0)
(-8.04096e-05 -5.2366e-07 0)
(-8.07071e-05 -4.19199e-07 0)
(-8.0963e-05 -3.42719e-07 0)
(-8.11859e-05 -2.85188e-07 0)
(-8.1382e-05 -2.40911e-07 0)
(-8.15562e-05 -2.06167e-07 0)
(-8.1712e-05 -1.78441e-07 0)
(-8.18522e-05 -1.55989e-07 0)
(-8.05204e-05 -3.36529e-06 0)
(-7.52718e-05 -8.91781e-06 0)
(-6.87809e-05 -6.27763e-06 0)
(-6.44226e-05 -4.21388e-06 0)
(-6.15726e-05 -2.87962e-06 0)
(-5.96549e-05 -2.07585e-06 0)
(-5.82686e-05 -1.64501e-06 0)
(-5.71303e-05 -1.50211e-06 0)
(-5.60122e-05 -1.62933e-06 0)
(-5.46864e-05 -2.07467e-06 0)
(-5.28709e-05 -2.96314e-06 0)
(-5.01662e-05 -4.52451e-06 0)
(-4.59677e-05 -7.1445e-06 0)
(-3.93364e-05 -1.14542e-05 0)
(-2.87897e-05 -1.84973e-05 0)
(-1.27172e-05 -2.78127e-05 0)
(-1.15345e-20 -9.87838e-16 0)
(-3.48574e-20 -9.87833e-16 0)
(-5.89252e-20 -9.8782e-16 0)
(-8.35888e-20 -9.87798e-16 0)
(-1.06366e-19 -9.87762e-16 0)
(-1.18445e-19 -9.877e-16 0)
(-9.4197e-20 -9.87594e-16 0)
(3.55407e-20 -9.87411e-16 0)
(2.3487e-19 -9.80892e-16 0)
(2.92713e-19 -9.40012e-16 0)
(2.30262e-19 -9.03425e-16 0)
(1.88323e-19 -8.693e-16 0)
(1.58304e-19 -8.36929e-16 0)
(1.35106e-19 -8.0594e-16 0)
(1.15789e-19 -7.76104e-16 0)
(9.84677e-20 -7.47266e-16 0)
(8.17024e-20 -7.19315e-16 0)
(6.41263e-20 -6.92167e-16 0)
(4.4113e-20 -6.65755e-16 0)
(1.9365e-20 -6.40027e-16 0)
(-1.37398e-20 -6.14939e-16 0)
(-6.12959e-20 -5.90453e-16 0)
(-2.21906e-17 -5.66534e-16 0)
(-5.45063e-07 -1.2611e-14 0)
(-1.2128e-05 -3.2277e-06 0)
(-2.75922e-05 -8.79484e-06 0)
(-3.49514e-05 -6.16611e-06 0)
(-3.98182e-05 -4.11168e-06 0)
(-4.30587e-05 -2.78515e-06 0)
(-4.52965e-05 -1.98788e-06 0)
(-4.69532e-05 -1.56256e-06 0)
(-4.8324e-05 -1.4244e-06 0)
(-4.96447e-05 -1.55571e-06 0)
(-5.11487e-05 -2.00463e-06 0)
(-5.31218e-05 -2.89629e-06 0)
(-5.59664e-05 -4.46057e-06 0)
(-6.02887e-05 -7.0833e-06 0)
(-6.70252e-05 -1.14056e-05 0)
(-7.16867e-05 -3.53881e-05 0)
(-3.77765e-05 -0.000155102 0)
(-6.96009e-21 -9.87811e-16 0)
(-2.03848e-20 -9.87806e-16 0)
(-3.22073e-20 -9.87794e-16 0)
(-4.06484e-20 -9.87775e-16 0)
(-4.24145e-20 -9.87748e-16 0)
(-3.19494e-20 -9.87712e-16 0)
(-1.56178e-21 -9.8767e-16 0)
(5.39818e-20 -9.87638e-16 0)
(1.16775e-19 -9.8766e-16 0)
(1.503e-19 -9.87732e-16 0)
(1.52087e-19 -9.87776e-16 0)
(1.43003e-19 -9.87804e-16 0)
(1.30798e-19 -9.87822e-16 0)
(1.18186e-19 -9.87833e-16 0)
(1.05995e-19 -9.87841e-16 0)
(9.43705e-20 -9.87845e-16 0)
(8.32558e-20 -9.87846e-16 0)
(7.26325e-20 -9.87844e-16 0)
(6.27343e-20 -9.87838e-16 0)
(5.43879e-20 -9.87828e-16 0)
(4.96896e-20 -9.87811e-16 0)
(5.33953e-20 -9.87784e-16 0)
(7.57729e-20 -9.87741e-16 0)
(1.37768e-19 -9.87675e-16 0)
(1.93869e-19 -9.85434e-16 0)
(1.93908e-19 -9.75074e-16 0)
(1.74367e-19 -9.62862e-16 0)
(1.61215e-19 -9.49621e-16 0)
(1.5242e-19 -9.35936e-16 0)
(1.46717e-19 -9.22139e-16 0)
(1.43457e-19 -9.08399e-16 0)
(1.42399e-19 -8.94788e-16 0)
(1.43622e-19 -8.81315e-16 0)
(1.47517e-19 -8.67939e-16 0)
(1.54853e-19 -8.54568e-16 0)
(1.66935e-19 -8.41048e-16 0)
(1.85874e-19 -8.27151e-16 0)
(4.93626e-12 -9.94327e-09 0)
(5.96595e-08 -2.64178e-05 0)
(-1.0369e-07 -0.000241557 0)
(-3.18441e-21 -9.87797e-16 0)
(-8.9141e-21 -9.87792e-16 0)
(-1.2707e-20 -9.87784e-16 0)
(-1.30781e-20 -9.87772e-16 0)
(-8.21197e-21 -9.87756e-16 0)
(3.80495e-21 -9.87739e-16 0)
(2.40988e-20 -9.87724e-16 0)
(5.11102e-20 -9.87718e-16 0)
(7.83193e-20 -9.87728e-16 0)
(9.73935e-20 -9.87751e-16 0)
(1.06161e-19 -9.87774e-16 0)
(1.07784e-19 -9.87792e-16 0)
(1.0526e-19 -9.87807e-16 0)
(1.0059e-19 -9.87817e-16 0)
(9.4984e-20 -9.87824e-16 0)
(8.9182e-20 -9.87829e-16 0)
(8.37083e-20 -9.8783e-16 0)
(7.90526e-20 -9.87829e-16 0)
(7.58147e-20 -9.87826e-16 0)
(7.48243e-20 -9.87821e-16 0)
(7.72145e-20 -9.87813e-16 0)
(8.43437e-20 -9.87804e-16 0)
(9.7275e-20 -9.87796e-16 0)
(1.15104e-19 -9.87795e-16 0)
(1.30639e-19 -9.87812e-16 0)
(1.37561e-19 -9.87833e-16 0)
(1.38132e-19 -9.87848e-16 0)
(1.36207e-19 -9.87859e-16 0)
(1.33523e-19 -9.87868e-16 0)
(1.30828e-19 -9.87875e-16 0)
(1.28398e-19 -9.87882e-16 0)
(1.26258e-19 -9.87888e-16 0)
(1.24252e-19 -9.87895e-16 0)
(1.22014e-19 -9.87902e-16 0)
(1.18854e-19 -9.87912e-16 0)
(1.13535e-19 -9.87924e-16 0)
(1.03862e-19 -9.87939e-16 0)
(9.43529e-20 -1.32557e-15 0)
(4.26466e-09 -1.91887e-05 0)
(5.95412e-08 -0.000223492 0)
(-6.57515e-22 -9.87791e-16 0)
(-1.47265e-21 -9.87788e-16 0)
(-8.21681e-22 -9.87783e-16 0)
(2.20281e-21 -9.87776e-16 0)
(8.39244e-21 -9.87768e-16 0)
(1.82083e-20 -9.87761e-16 0)
(3.1409e-20 -9.87756e-16 0)
(4.66465e-20 -9.87755e-16 0)
(6.14542e-20 -9.87761e-16 0)
(7.33126e-20 -9.87771e-16 0)
(8.11369e-20 -9.87783e-16 0)
(8.53091e-20 -9.87794e-16 0)
(8.67441e-20 -9.87803e-16 0)
(8.63728e-20 -9.87811e-16 0)
(8.4974e-20 -9.87817e-16 0)
(8.31677e-20 -9.87821e-16 0)
(8.14619e-20 -9.87824e-16 0)
(8.03045e-20 -9.87825e-16 0)
(8.01185e-20 -9.87824e-16 0)
(8.13052e-20 -9.87823e-16 0)
(8.41983e-20 -9.87821e-16 0)
(8.89446e-20 -9.8782e-16 0)
(9.52982e-20 -9.87821e-16 0)
(1.02377e-19 -9.87824e-16 0)
(1.08636e-19 -9.87831e-16 0)
(1.12859e-19 -9.87839e-16 0)
(1.14975e-19 -9.87848e-16 0)
(1.15498e-19 -9.87856e-16 0)
(1.14939e-19 -9.87863e-16 0)
(1.13651e-19 -9.8787e-16 0)
(1.11828e-19 -9.87876e-16 0)
(1.09521e-19 -9.87882e-16 0)
(1.06666e-19 -9.87888e-16 0)
(1.03099e-19 -9.87894e-16 0)
(9.85717e-20 -9.879e-16 0)
(9.27951e-20 -9.87906e-16 0)
(8.55304e-20 -9.87911e-16 0)
(9.33636e-20 -1.53646e-15 0)
(4.23617e-09 -1.90667e-05 0)
(4.74635e-08 -0.000213638 0)
(8.23475e-22 -9.87791e-16 0)
(2.78469e-21 -9.8779e-16 0)
(5.65631e-21 -9.87787e-16 0)
(9.93284e-21 -9.87783e-16 0)
(1.59289e-20 -9.8778e-16 0)
(2.36824e-20 -9.87777e-16 0)
(3.28529e-20 -9.87775e-16 0)
(4.26881e-20 -9.87776e-16 0)
(5.21611e-20 -9.8778e-16 0)
(6.03205e-20 -9.87785e-16 0)
(6.66445e-20 -9.87792e-16 0)
(7.10965e-20 -9.87799e-16 0)
(7.39459e-20 -9.87806e-16 0)
(7.55896e-20 -9.87811e-16 0)
(7.64433e-20 -9.87816e-16 0)
(7.68921e-20 -9.8782e-16 0)
(7.72745e-20 -9.87823e-16 0)
(7.78798e-20 -9.87825e-16 0)
(7.89431e-20 -9.87826e-16 0)
(8.06326e-20 -9.87827e-16 0)
(8.30224e-20 -9.87828e-16 0)
(8.60573e-20 -9.8783e-16 0)
(8.95216e-20 -9.87832e-16 0)
(9.30418e-20 -9.87835e-16 0)
(9.61675e-20 -9.8784e-16 0)
(9.85452e-20 -9.87845e-16 0)
(1.00036e-19 -9.87851e-16 0)
(1.0067e-19 -9.87856e-16 0)
(1.00545e-19 -9.87862e-16 0)
(9.97654e-20 -9.87867e-16 0)
(9.84086e-20 -9.87872e-16 0)
(9.65171e-20 -9.87876e-16 0)
(9.41025e-20 -9.87881e-16 0)
(9.11576e-20 -9.87885e-16 0)
(8.76756e-20 -9.87888e-16 0)
(8.36777e-20 -9.87891e-16 0)
(7.92474e-20 -9.87894e-16 0)
(9.81232e-20 -1.70447e-15 0)
(3.91409e-09 -1.81711e-05 0)
(3.99608e-08 -0.000203864 0)
(1.60029e-21 -9.87795e-16 0)
(4.97027e-21 -9.87794e-16 0)
(8.8366e-21 -9.87793e-16 0)
(1.34557e-20 -9.87791e-16 0)
(1.89477e-20 -9.8779e-16 0)
(2.52627e-20 -9.87789e-16 0)
(3.21664e-20 -9.87789e-16 0)
(3.92662e-20 -9.8779e-16 0)
(4.60952e-20 -9.87793e-16 0)
(5.22376e-20 -9.87796e-16 0)
(5.74352e-20 -9.87801e-16 0)
(6.16171e-20 -9.87805e-16 0)
(6.48616e-20 -9.8781e-16 0)
(6.73373e-20 -9.87814e-16 0)
(6.92515e-20 -9.87818e-16 0)
(7.08161e-20 -9.87822e-16 0)
(7.22252e-20 -9.87824e-16 0)
(7.36423e-20 -9.87827e-16 0)
(7.51899e-20 -9.87829e-16 0)
(7.69401e-20 -9.87831e-16 0)
(7.89063e-20 -9.87833e-16 0)
(8.10382e-20 -9.87836e-16 0)
(8.32245e-20 -9.87838e-16 0)
(8.53112e-20 -9.87841e-16 0)
(8.71335e-20 -9.87845e-16 0)
(8.85568e-20 -9.87849e-16 0)
(8.9502e-20 -9.87853e-16 0)
(8.99424e-20 -9.87857e-16 0)
(8.98872e-20 -9.87861e-16 0)
(8.93634e-20 -9.87865e-16 0)
(8.84033e-20 -9.87868e-16 0)
(8.70386e-20 -9.87872e-16 0)
(8.53005e-20 -9.87875e-16 0)
(8.32222e-20 -9.87878e-16 0)
(8.08451e-20 -9.8788e-16 0)
(7.82246e-20 -9.87882e-16 0)
(7.54352e-20 -9.87883e-16 0)
(1.01031e-19 -1.88358e-15 0)
(3.51622e-09 -1.71034e-05 0)
(3.46805e-08 -0.000194214 0)
(1.95389e-21 -9.878e-16 0)
(5.93781e-21 -9.878e-16 0)
(1.01579e-20 -9.87799e-16 0)
(1.47432e-20 -9.87799e-16 0)
(1.97377e-20 -9.87798e-16 0)
(2.50908e-20 -9.87798e-16 0)
(3.06627e-20 -9.87799e-16 0)
(3.62488e-20 -9.878e-16 0)
(4.16222e-20 -9.87803e-16 0)
(4.65837e-20 -9.87805e-16 0)
(5.10007e-20 -9.87808e-16 0)
(5.48215e-20 -9.87812e-16 0)
(5.80668e-20 -9.87815e-16 0)
(6.08086e-20 -9.87819e-16 0)
(6.31475e-20 -9.87822e-16 0)
(6.51931e-20 -9.87825e-16 0)
(6.70491e-20 -9.87827e-16 0)
(6.88029e-20 -9.8783e-16 0)
(7.05175e-20 -9.87832e-16 0)
(7.22274e-20 -9.87835e-16 0)
(7.39355e-20 -9.87837e-16 0)
(7.56155e-20 -9.8784e-16 0)
(7.72162e-20 -9.87842e-16 0)
(7.86722e-20 -9.87845e-16 0)
(7.9916e-20 -9.87848e-16 0)
(8.08905e-20 -9.87851e-16 0)
(8.15565e-20 -9.87854e-16 0)
(8.18946e-20 -9.87857e-16 0)
(8.19022e-20 -9.8786e-16 0)
(8.15888e-20 -9.87863e-16 0)
(8.09726e-20 -9.87866e-16 0)
(8.00771e-20 -9.87868e-16 0)
(7.89306e-20 -9.87871e-16 0)
(7.75658e-20 -9.87873e-16 0)
(7.60205e-20 -9.87875e-16 0)
(7.43373e-20 -9.87876e-16 0)
(7.25633e-20 -9.87877e-16 0)
(1.06222e-19 -2.13615e-15 0)
(3.13851e-09 -1.60417e-05 0)
(3.04629e-08 -0.000184698 0)
(2.0707e-21 -9.87806e-16 0)
(6.23404e-21 -9.87806e-16 0)
(1.04841e-20 -9.87806e-16 0)
(1.48834e-20 -9.87806e-16 0)
(1.94461e-20 -9.87806e-16 0)
(2.41356e-20 -9.87806e-16 0)
(2.88715e-20 -9.87807e-16 0)
(3.35453e-20 -9.87809e-16 0)
(3.8041e-20 -9.87811e-16 0)
(4.22572e-20 -9.87813e-16 0)
(4.61231e-20 -9.87815e-16 0)
(4.96059e-20 -9.87818e-16 0)
(5.27086e-20 -9.87821e-16 0)
(5.54617e-20 -9.87823e-16 0)
(5.7913e-20 -9.87826e-16 0)
(6.01176e-20 -9.87829e-16 0)
(6.21291e-20 -9.87831e-16 0)
(6.39933e-20 -9.87833e-16 0)
(6.57433e-20 -9.87836e-16 0)
(6.73974e-20 -9.87838e-16 0)
(6.89584e-20 -9.8784e-16 0)
(7.04154e-20 -9.87843e-16 0)
(7.17468e-20 -9.87845e-16 0)
(7.29254e-20 -9.87848e-16 0)
(7.39232e-20 -9.8785e-16 0)
(7.47164e-20 -9.87853e-16 0)
(7.52882e-20 -9.87855e-16 0)
(7.56304e-20 -9.87858e-16 0)
(7.5743e-20 -9.8786e-16 0)
(7.56333e-20 -9.87862e-16 0)
(7.53142e-20 -9.87864e-16 0)
(7.48038e-20 -9.87866e-16 0)
(7.41238e-20 -9.87868e-16 0)
(7.3299e-20 -9.8787e-16 0)
(7.23567e-20 -9.87871e-16 0)
(7.13261e-20 -9.87872e-16 0)
(7.02371e-20 -9.87873e-16 0)
(1.14116e-19 -2.43673e-15 0)
(2.79712e-09 -1.50231e-05 0)
(2.68738e-08 -0.00017532 0)
(2.06234e-21 -9.87812e-16 0)
(6.17966e-21 -9.87812e-16 0)
(1.03028e-20 -9.87812e-16 0)
(1.446e-20 -9.87812e-16 0)
(1.86533e-20 -9.87813e-16 0)
(2.28579e-20 -9.87814e-16 0)
(2.70277e-20 -9.87814e-16 0)
(3.11032e-20 -9.87816e-16 0)
(3.50226e-20 -9.87817e-16 0)
(3.87318e-20 -9.87819e-16 0)
(4.21917e-20 -9.87821e-16 0)
(4.5382e-20 -9.87823e-16 0)
(4.83004e-20 -9.87826e-16 0)
(5.09593e-20 -9.87828e-16 0)
(5.33813e-20 -9.8783e-16 0)
(5.55937e-20 -9.87832e-16 0)
(5.7624e-20 -9.87835e-16 0)
(5.94962e-20 -9.87837e-16 0)
(6.12286e-20 -9.87839e-16 0)
(6.28319e-20 -9.87841e-16 0)
(6.43099e-20 -9.87843e-16 0)
(6.56597e-20 -9.87846e-16 0)
(6.68739e-20 -9.87848e-16 0)
(6.79425e-20 -9.8785e-16 0)
(6.88555e-20 -9.87852e-16 0)
(6.96045e-20 -9.87854e-16 0)
(7.01845e-20 -9.87856e-16 0)
(7.05947e-20 -9.87858e-16 0)
(7.08384e-20 -9.8786e-16 0)
(7.09229e-20 -9.87862e-16 0)
(7.08592e-20 -9.87864e-16 0)
(7.0661e-20 -9.87865e-16 0)
(7.03447e-20 -9.87867e-16 0)
(6.99281e-20 -9.87868e-16 0)
(6.94306e-20 -9.87869e-16 0)
(6.88719e-20 -9.8787e-16 0)
(6.82717e-20 -9.87871e-16 0)
(1.22385e-19 -2.73955e-15 0)
(2.4909e-09 -1.40517e-05 0)
(2.37077e-08 -0.000166079 0)
(1.99196e-21 -9.87818e-16 0)
(5.9537e-21 -9.87818e-16 0)
(9.87984e-21 -9.87818e-16 0)
(1.37812e-20 -9.87819e-16 0)
(1.76545e-20 -9.87819e-16 0)
(2.14831e-20 -9.8782e-16 0)
(2.52395e-20 -9.87821e-16 0)
(2.889e-20 -9.87822e-16 0)
(3.24003e-20 -9.87823e-16 0)
(3.57402e-20 -9.87825e-16 0)
(3.88875e-20 -9.87827e-16 0)
(4.18292e-20 -9.87829e-16 0)
(4.45623e-20 -9.8783e-16 0)
(4.70913e-20 -9.87832e-16 0)
(4.94269e-20 -9.87834e-16 0)
(5.15826e-20 -9.87836e-16 0)
(5.35727e-20 -9.87838e-16 0)
(5.54105e-20 -9.8784e-16 0)
(5.71065e-20 -9.87842e-16 0)
(5.86681e-20 -9.87844e-16 0)
(6.00992e-20 -9.87846e-16 0)
(6.1401e-20 -9.87848e-16 0)
(6.25728e-20 -9.8785e-16 0)
(6.36125e-20 -9.87852e-16 0)
(6.45185e-20 -9.87854e-16 0)
(6.52898e-20 -9.87856e-16 0)
(6.59274e-20 -9.87857e-16 0)
(6.64341e-20 -9.87859e-16 0)
(6.68153e-20 -9.87861e-16 0)
(6.70781e-20 -9.87862e-16 0)
(6.72321e-20 -9.87864e-16 0)
(6.72882e-20 -9.87865e-16 0)
(6.72587e-20 -9.87866e-16 0)
(6.71568e-20 -9.87867e-16 0)
(6.69964e-20 -9.87868e-16 0)
(6.67913e-20 -9.87869e-16 0)
(6.65552e-20 -9.8787e-16 0)
(1.30064e-19 -3.02725e-15 0)
(2.21588e-09 -1.31242e-05 0)
(2.08591e-08 -0.000156976 0)
(1.89394e-21 -9.87823e-16 0)
(5.65287e-21 -9.87824e-16 0)
(9.35662e-21 -9.87824e-16 0)
(1.30071e-20 -9.87824e-16 0)
(1.65992e-20 -9.87825e-16 0)
(2.01211e-20 -9.87826e-16 0)
(2.35554e-20 -9.87826e-16 0)
(2.68825e-20 -9.87828e-16 0)
(3.00822e-20 -9.87829e-16 0)
(3.31371e-20 -9.8783e-16 0)
(3.6034e-20 -9.87832e-16 0)
(3.87648e-20 -9.87833e-16 0)
(4.13264e-20 -9.87835e-16 0)
(4.37206e-20 -9.87837e-16 0)
(4.59523e-20 -9.87838e-16 0)
(4.80286e-20 -9.8784e-16 0)
(4.99572e-20 -9.87842e-16 0)
(5.1746e-20 -9.87844e-16 0)
(5.34017e-20 -9.87846e-16 0)
(5.49298e-20 -9.87847e-16 0)
(5.63343e-20 -9.87849e-16 0)
(5.76184e-20 -9.87851e-16 0)
(5.87841e-20 -9.87853e-16 0)
(5.98332e-20 -9.87854e-16 0)
(6.07677e-20 -9.87856e-16 0)
(6.15903e-20 -9.87857e-16 0)
(6.23043e-20 -9.87859e-16 0)
(6.29146e-20 -9.8786e-16 0)
(6.34268e-20 -9.87862e-16 0)
(6.38481e-20 -9.87863e-16 0)
(6.41863e-20 -9.87864e-16 0)
(6.44505e-20 -9.87865e-16 0)
(6.46502e-20 -9.87866e-16 0)
(6.47954e-20 -9.87867e-16 0)
(6.48962e-20 -9.87868e-16 0)
(6.49629e-20 -9.87869e-16 0)
(6.50051e-20 -9.87869e-16 0)
(1.36898e-19 -3.30058e-15 0)
(1.96776e-09 -1.22358e-05 0)
(1.82724e-08 -0.000148011 0)
(1.78642e-21 -9.87829e-16 0)
(5.32791e-21 -9.87829e-16 0)
(8.80635e-21 -9.87829e-16 0)
(1.22194e-20 -9.8783e-16 0)
(1.55614e-20 -9.8783e-16 0)
(1.88233e-20 -9.87831e-16 0)
(2.1994e-20 -9.87832e-16 0)
(2.50609e-20 -9.87833e-16 0)
(2.80119e-20 -9.87834e-16 0)
(3.08365e-20 -9.87835e-16 0)
(3.35265e-20 -9.87836e-16 0)
(3.60767e-20 -9.87838e-16 0)
(3.8485e-20 -9.87839e-16 0)
(4.07518e-20 -9.87841e-16 0)
(4.28796e-20 -9.87842e-16 0)
(4.48725e-20 -9.87844e-16 0)
(4.67351e-20 -9.87846e-16 0)
(4.84725e-20 -9.87847e-16 0)
(5.00896e-20 -9.87849e-16 0)
(5.15907e-20 -9.8785e-16 0)
(5.29799e-20 -9.87852e-16 0)
(5.42609e-20 -9.87853e-16 0)
(5.54371e-20 -9.87855e-16 0)
(5.65118e-20 -9.87856e-16 0)
(5.74886e-20 -9.87858e-16 0)
(5.83715e-20 -9.87859e-16 0)
(5.91651e-20 -9.8786e-16 0)
(5.98743e-20 -9.87862e-16 0)
(6.0505e-20 -9.87863e-16 0)
(6.10634e-20 -9.87864e-16 0)
(6.15564e-20 -9.87865e-16 0)
(6.19914e-20 -9.87866e-16 0)
(6.23758e-20 -9.87867e-16 0)
(6.27174e-20 -9.87868e-16 0)
(6.30239e-20 -9.87868e-16 0)
(6.3303e-20 -9.87869e-16 0)
(6.3562e-20 -9.8787e-16 0)
(1.43145e-19 -3.56508e-15 0)
(1.74326e-09 -1.13836e-05 0)
(1.59145e-08 -0.000139184 0)
(1.67865e-21 -9.87834e-16 0)
(5.00443e-21 -9.87834e-16 0)
(8.26545e-21 -9.87834e-16 0)
(1.14575e-20 -9.87835e-16 0)
(1.4575e-20 -9.87835e-16 0)
(1.7611e-20 -9.87836e-16 0)
(2.05576e-20 -9.87837e-16 0)
(2.34065e-20 -9.87837e-16 0)
(2.61502e-20 -9.87838e-16 0)
(2.87818e-20 -9.8784e-16 0)
(3.12964e-20 -9.87841e-16 0)
(3.36907e-20 -9.87842e-16 0)
(3.59631e-20 -9.87843e-16 0)
(3.81138e-20 -9.87845e-16 0)
(4.01444e-20 -9.87846e-16 0)
(4.20575e-20 -9.87848e-16 0)
(4.38564e-20 -9.87849e-16 0)
(4.55447e-20 -9.8785e-16 0)
(4.71262e-20 -9.87852e-16 0)
(4.86049e-20 -9.87853e-16 0)
(4.99844e-20 -9.87855e-16 0)
(5.12687e-20 -9.87856e-16 0)
(5.24614e-20 -9.87857e-16 0)
(5.35666e-20 -9.87859e-16 0)
(5.45882e-20 -9.8786e-16 0)
(5.55307e-20 -9.87861e-16 0)
(5.63985e-20 -9.87862e-16 0)
(5.71968e-20 -9.87863e-16 0)
(5.79308e-20 -9.87864e-16 0)
(5.8606e-20 -9.87865e-16 0)
(5.92283e-20 -9.87866e-16 0)
(5.98035e-20 -9.87867e-16 0)
(6.03377e-20 -9.87868e-16 0)
(6.08368e-20 -9.87869e-16 0)
(6.13067e-20 -9.87869e-16 0)
(6.1753e-20 -9.8787e-16 0)
(6.21809e-20 -9.87871e-16 0)
(1.48842e-19 -3.82857e-15 0)
(1.53988e-09 -1.05667e-05 0)
(1.37652e-08 -0.000130497 0)
(1.57502e-21 -9.87838e-16 0)
(4.69452e-21 -9.87839e-16 0)
(7.75068e-21 -9.87839e-16 0)
(1.07387e-20 -9.87839e-16 0)
(1.36534e-20 -9.8784e-16 0)
(1.64893e-20 -9.8784e-16 0)
(1.92404e-20 -9.87841e-16 0)
(2.19012e-20 -9.87842e-16 0)
(2.44666e-20 -9.87843e-16 0)
(2.69323e-20 -9.87844e-16 0)
(2.92949e-20 -9.87845e-16 0)
(3.15526e-20 -9.87846e-16 0)
(3.37043e-20 -9.87847e-16 0)
(3.57504e-20 -9.87848e-16 0)
(3.76921e-20 -9.8785e-16 0)
(3.95314e-20 -9.87851e-16 0)
(4.12708e-20 -9.87852e-16 0)
(4.29133e-20 -9.87854e-16 0)
(4.44622e-20 -9.87855e-16 0)
(4.59209e-20 -9.87856e-16 0)
(4.7293e-20 -9.87857e-16 0)
(4.85821e-20 -9.87859e-16 0)
(4.9792e-20 -9.8786e-16 0)
(5.09266e-20 -9.87861e-16 0)
(5.19899e-20 -9.87862e-16 0)
(5.29862e-20 -9.87863e-16 0)
(5.39198e-20 -9.87864e-16 0)
(5.47953e-20 -9.87865e-16 0)
(5.56174e-20 -9.87866e-16 0)
(5.63908e-20 -9.87867e-16 0)
(5.71204e-20 -9.87868e-16 0)
(5.78111e-20 -9.87869e-16 0)
(5.84677e-20 -9.8787e-16 0)
(5.90949e-20 -9.8787e-16 0)
(5.96972e-20 -9.87871e-16 0)
(6.0279e-20 -9.87871e-16 0)
(6.08442e-20 -9.87872e-16 0)
(1.54426e-19 -4.09588e-15 0)
(1.35596e-09 -9.78351e-06 0)
(1.18058e-08 -0.00012195 0)
(1.47736e-21 -9.87843e-16 0)
(4.40304e-21 -9.87843e-16 0)
(7.2683e-21 -9.87843e-16 0)
(1.00684e-20 -9.87844e-16 0)
(1.27988e-20 -9.87844e-16 0)
(1.54549e-20 -9.87845e-16 0)
(1.80324e-20 -9.87845e-16 0)
(2.05272e-20 -9.87846e-16 0)
(2.29358e-20 -9.87847e-16 0)
(2.52554e-20 -9.87848e-16 0)
(2.74839e-20 -9.87849e-16 0)
(2.96202e-20 -9.8785e-16 0)
(3.16639e-20 -9.87851e-16 0)
(3.36154e-20 -9.87852e-16 0)
(3.54759e-20 -9.87853e-16 0)
(3.72472e-20 -9.87854e-16 0)
(3.89313e-20 -9.87855e-16 0)
(4.05311e-20 -9.87857e-16 0)
(4.20492e-20 -9.87858e-16 0)
(4.34889e-20 -9.87859e-16 0)
(4.48534e-20 -9.8786e-16 0)
(4.61462e-20 -9.87861e-16 0)
(4.73707e-20 -9.87862e-16 0)
(4.85308e-20 -9.87863e-16 0)
(4.96301e-20 -9.87864e-16 0)
(5.06724e-20 -9.87865e-16 0)
(5.16619e-20 -9.87866e-16 0)
(5.26025e-20 -9.87867e-16 0)
(5.34983e-20 -9.87868e-16 0)
(5.43533e-20 -9.87869e-16 0)
(5.51717e-20 -9.8787e-16 0)
(5.59574e-20 -9.87871e-16 0)
(5.67144e-20 -9.87871e-16 0)
(5.74466e-20 -9.87872e-16 0)
(5.81575e-20 -9.87873e-16 0)
(5.88507e-20 -9.87873e-16 0)
(5.95297e-20 -9.87874e-16 0)
(1.59754e-19 -4.36729e-15 0)
(1.18912e-09 -9.02962e-06 0)
(1.00285e-08 -0.000113546 0)
(1.38612e-21 -9.87847e-16 0)
(4.13106e-21 -9.87847e-16 0)
(6.81914e-21 -9.87847e-16 0)
(9.44607e-21 -9.87848e-16 0)
(1.20079e-20 -9.87848e-16 0)
(1.45008e-20 -9.87849e-16 0)
(1.69216e-20 -9.87849e-16 0)
(1.92673e-20 -9.8785e-16 0)
(2.15354e-20 -9.87851e-16 0)
(2.37241e-20 -9.87852e-16 0)
(2.58321e-20 -9.87852e-16 0)
(2.78589e-20 -9.87853e-16 0)
(2.98046e-20 -9.87854e-16 0)
(3.16696e-20 -9.87855e-16 0)
(3.34553e-20 -9.87856e-16 0)
(3.51632e-20 -9.87857e-16 0)
(3.67955e-20 -9.87859e-16 0)
(3.83544e-20 -9.8786e-16 0)
(3.98425e-20 -9.87861e-16 0)
(4.12628e-20 -9.87862e-16 0)
(4.26182e-20 -9.87863e-16 0)
(4.39119e-20 -9.87864e-16 0)
(4.5147e-20 -9.87865e-16 0)
(4.63271e-20 -9.87866e-16 0)
(4.74554e-20 -9.87867e-16 0)
(4.85354e-20 -9.87868e-16 0)
(4.95707e-20 -9.87869e-16 0)
(5.05648e-20 -9.8787e-16 0)
(5.15211e-20 -9.8787e-16 0)
(5.2443e-20 -9.87871e-16 0)
(5.33341e-20 -9.87872e-16 0)
(5.41977e-20 -9.87873e-16 0)
(5.50368e-20 -9.87873e-16 0)
(5.58546e-20 -9.87874e-16 0)
(5.66539e-20 -9.87875e-16 0)
(5.74375e-20 -9.87875e-16 0)
(5.82077e-20 -9.87876e-16 0)
(1.64842e-19 -4.65413e-15 0)
(1.03739e-09 -8.30319e-06 0)
(8.43048e-09 -0.00010529 0)
(1.30109e-21 -9.87851e-16 0)
(3.87772e-21 -9.87851e-16 0)
(6.40126e-21 -9.87851e-16 0)
(8.86797e-21 -9.87851e-16 0)
(1.12745e-20 -9.87852e-16 0)
(1.36178e-20 -9.87852e-16 0)
(1.58955e-20 -9.87853e-16 0)
(1.81052e-20 -9.87854e-16 0)
(2.02454e-20 -9.87854e-16 0)
(2.23148e-20 -9.87855e-16 0)
(2.43128e-20 -9.87856e-16 0)
(2.62392e-20 -9.87857e-16 0)
(2.80945e-20 -9.87858e-16 0)
(2.98793e-20 -9.87859e-16 0)
(3.15949e-20 -9.8786e-16 0)
(3.32429e-20 -9.87861e-16 0)
(3.48253e-20 -9.87862e-16 0)
(3.63442e-20 -9.87863e-16 0)
(3.7802e-20 -9.87864e-16 0)
(3.92014e-20 -9.87865e-16 0)
(4.05451e-20 -9.87866e-16 0)
(4.18359e-20 -9.87867e-16 0)
(4.30768e-20 -9.87867e-16 0)
(4.42707e-20 -9.87868e-16 0)
(4.54208e-20 -9.87869e-16 0)
(4.653e-20 -9.8787e-16 0)
(4.76015e-20 -9.87871e-16 0)
(4.86382e-20 -9.87872e-16 0)
(4.96431e-20 -9.87873e-16 0)
(5.06191e-20 -9.87873e-16 0)
(5.15691e-20 -9.87874e-16 0)
(5.24959e-20 -9.87875e-16 0)
(5.3402e-20 -9.87875e-16 0)
(5.42899e-20 -9.87876e-16 0)
(5.51621e-20 -9.87877e-16 0)
(5.60207e-20 -9.87877e-16 0)
(5.68678e-20 -9.87878e-16 0)
(1.70233e-19 -4.99099e-15 0)
(8.99779e-10 -7.60265e-06 0)
(7.00302e-09 -9.71843e-05 0)
(1.22169e-21 -9.87854e-16 0)
(3.64124e-21 -9.87855e-16 0)
(6.01145e-21 -9.87855e-16 0)
(8.32916e-21 -9.87855e-16 0)
(1.05916e-20 -9.87855e-16 0)
(1.27964e-20 -9.87856e-16 0)
(1.49417e-20 -9.87856e-16 0)
(1.70259e-20 -9.87857e-16 0)
(1.90478e-20 -9.87858e-16 0)
(2.10068e-20 -9.87858e-16 0)
(2.29027e-20 -9.87859e-16 0)
(2.47356e-20 -9.8786e-16 0)
(2.6506e-20 -9.87861e-16 0)
(2.8215e-20 -9.87862e-16 0)
(2.98638e-20 -9.87863e-16 0)
(3.1454e-20 -9.87864e-16 0)
(3.29874e-20 -9.87865e-16 0)
(3.44661e-20 -9.87865e-16 0)
(3.58923e-20 -9.87866e-16 0)
(3.72684e-20 -9.87867e-16 0)
(3.8597e-20 -9.87868e-16 0)
(3.98805e-20 -9.87869e-16 0)
(4.11217e-20 -9.8787e-16 0)
(4.23232e-20 -9.87871e-16 0)
(4.34877e-20 -9.87872e-16 0)
(4.46179e-20 -9.87873e-16 0)
(4.57163e-20 -9.87873e-16 0)
(4.67857e-20 -9.87874e-16 0)
(4.78285e-20 -9.87875e-16 0)
(4.88471e-20 -9.87876e-16 0)
(4.9844e-20 -9.87877e-16 0)
(5.08214e-20 -9.87877e-16 0)
(5.17814e-20 -9.87878e-16 0)
(5.27261e-20 -9.87878e-16 0)
(5.36574e-20 -9.87879e-16 0)
(5.45769e-20 -9.8788e-16 0)
(5.54862e-20 -9.8788e-16 0)
(1.7723e-19 -5.33444e-15 0)
(7.74841e-10 -6.92656e-06 0)
(5.74245e-09 -8.92357e-05 0)
(1.14722e-21 -9.87858e-16 0)
(3.41948e-21 -9.87858e-16 0)
(5.646e-21 -9.87858e-16 0)
(7.82421e-21 -9.87858e-16 0)
(9.95188e-21 -9.87859e-16 0)
(1.20272e-20 -9.87859e-16 0)
(1.40487e-20 -9.8786e-16 0)
(1.60154e-20 -9.8786e-16 0)
(1.79266e-20 -9.87861e-16 0)
(1.97819e-20 -9.87862e-16 0)
(2.15815e-20 -9.87862e-16 0)
(2.33257e-20 -9.87863e-16 0)
(2.50153e-20 -9.87864e-16 0)
(2.66513e-20 -9.87865e-16 0)
(2.82351e-20 -9.87866e-16 0)
(2.97682e-20 -9.87866e-16 0)
(3.12524e-20 -9.87867e-16 0)
(3.26897e-20 -9.87868e-16 0)
(3.40821e-20 -9.87869e-16 0)
(3.54319e-20 -9.8787e-16 0)
(3.67414e-20 -9.87871e-16 0)
(3.80128e-20 -9.87872e-16 0)
(3.92486e-20 -9.87873e-16 0)
(4.04512e-20 -9.87874e-16 0)
(4.16229e-20 -9.87874e-16 0)
(4.2766e-20 -9.87875e-16 0)
(4.38828e-20 -9.87876e-16 0)
(4.49756e-20 -9.87877e-16 0)
(4.60465e-20 -9.87878e-16 0)
(4.70975e-20 -9.87878e-16 0)
(4.81307e-20 -9.87879e-16 0)
(4.91477e-20 -9.8788e-16 0)
(5.01505e-20 -9.8788e-16 0)
(5.11406e-20 -9.87881e-16 0)
(5.21197e-20 -9.87882e-16 0)
(5.30893e-20 -9.87882e-16 0)
(5.40511e-20 -9.87883e-16 0)
(1.81782e-19 -5.69173e-15 0)
(6.61894e-10 -6.27419e-06 0)
(4.64021e-09 -8.14503e-05 0)
(1.07695e-21 -9.87861e-16 0)
(3.21023e-21 -9.87861e-16 0)
(5.3012e-21 -9.87861e-16 0)
(7.34778e-21 -9.87862e-16 0)
(9.34827e-21 -9.87862e-16 0)
(1.13013e-20 -9.87862e-16 0)
(1.32059e-20 -9.87863e-16 0)
(1.50614e-20 -9.87863e-16 0)
(1.68674e-20 -9.87864e-16 0)
(1.86239e-20 -9.87865e-16 0)
(2.03313e-20 -9.87865e-16 0)
(2.19901e-20 -9.87866e-16 0)
(2.36012e-20 -9.87867e-16 0)
(2.51658e-20 -9.87868e-16 0)
(2.66851e-20 -9.87868e-16 0)
(2.81608e-20 -9.87869e-16 0)
(2.95947e-20 -9.8787e-16 0)
(3.09884e-20 -9.87871e-16 0)
(3.23441e-20 -9.87872e-16 0)
(3.36638e-20 -9.87873e-16 0)
(3.49497e-20 -9.87874e-16 0)
(3.62037e-20 -9.87874e-16 0)
(3.74282e-20 -9.87875e-16 0)
(3.86253e-20 -9.87876e-16 0)
(3.9797e-20 -9.87877e-16 0)
(4.09454e-20 -9.87878e-16 0)
(4.20725e-20 -9.87879e-16 0)
(4.31801e-20 -9.87879e-16 0)
(4.42702e-20 -9.8788e-16 0)
(4.53443e-20 -9.87881e-16 0)
(4.64041e-20 -9.87882e-16 0)
(4.7451e-20 -9.87882e-16 0)
(4.84864e-20 -9.87883e-16 0)
(4.95114e-20 -9.87884e-16 0)
(5.0527e-20 -9.87884e-16 0)
(5.15341e-20 -9.87885e-16 0)
(5.25334e-20 -9.87885e-16 0)
(1.8799e-19 -6.06867e-15 0)
(5.59984e-10 -5.64754e-06 0)
(3.69047e-09 -7.3836e-05 0)
(1.01017e-21 -9.87864e-16 0)
(3.01139e-21 -9.87864e-16 0)
(4.97349e-21 -9.87864e-16 0)
(6.89489e-21 -9.87865e-16 0)
(8.77431e-21 -9.87865e-16 0)
(1.06108e-20 -9.87865e-16 0)
(1.24037e-20 -9.87866e-16 0)
(1.41527e-20 -9.87866e-16 0)
(1.58576e-20 -9.87867e-16 0)
(1.75188e-20 -9.87868e-16 0)
(1.91366e-20 -9.87868e-16 0)
(2.0712e-20 -9.87869e-16 0)
(2.22457e-20 -9.8787e-16 0)
(2.37391e-20 -9.8787e-16 0)
(2.51935e-20 -9.87871e-16 0)
(2.66105e-20 -9.87872e-16 0)
(2.79918e-20 -9.87873e-16 0)
(2.93392e-20 -9.87874e-16 0)
(3.06545e-20 -9.87874e-16 0)
(3.19397e-20 -9.87875e-16 0)
(3.31968e-20 -9.87876e-16 0)
(3.44279e-20 -9.87877e-16 0)
(3.56348e-20 -9.87878e-16 0)
(3.68196e-20 -9.87879e-16 0)
(3.79841e-20 -9.87879e-16 0)
(3.91302e-20 -9.8788e-16 0)
(4.02597e-20 -9.87881e-16 0)
(4.13741e-20 -9.87882e-16 0)
(4.24751e-20 -9.87883e-16 0)
(4.3564e-20 -9.87883e-16 0)
(4.46422e-20 -9.87884e-16 0)
(4.57107e-20 -9.87885e-16 0)
(4.67707e-20 -9.87886e-16 0)
(4.78228e-20 -9.87886e-16 0)
(4.88679e-20 -9.87887e-16 0)
(4.99064e-20 -9.87888e-16 0)
(5.09382e-20 -9.87888e-16 0)
(1.91957e-19 -6.45771e-15 0)
(4.69143e-10 -5.04818e-06 0)
(2.87863e-09 -6.64016e-05 0)
(9.4626e-22 -9.87867e-16 0)
(2.82104e-21 -9.87867e-16 0)
(4.65969e-21 -9.87867e-16 0)
(6.46106e-21 -9.87867e-16 0)
(8.22423e-21 -9.87868e-16 0)
(9.94857e-21 -9.87868e-16 0)
(1.16337e-20 -9.87869e-16 0)
(1.32796e-20 -9.87869e-16 0)
(1.48863e-20 -9.8787e-16 0)
(1.64543e-20 -9.8787e-16 0)
(1.79841e-20 -9.87871e-16 0)
(1.94768e-20 -9.87872e-16 0)
(2.09332e-20 -9.87872e-16 0)
(2.23548e-20 -9.87873e-16 0)
(2.37428e-20 -9.87874e-16 0)
(2.50988e-20 -9.87875e-16 0)
(2.64246e-20 -9.87875e-16 0)
(2.77218e-20 -9.87876e-16 0)
(2.89923e-20 -9.87877e-16 0)
(3.02381e-20 -9.87878e-16 0)
(3.14609e-20 -9.87879e-16 0)
(3.26627e-20 -9.8788e-16 0)
(3.38454e-20 -9.8788e-16 0)
(3.50109e-20 -9.87881e-16 0)
(3.61608e-20 -9.87882e-16 0)
(3.7297e-20 -9.87883e-16 0)
(3.8421e-20 -9.87884e-16 0)
(3.95343e-20 -9.87884e-16 0)
(4.06382e-20 -9.87885e-16 0)
(4.1734e-20 -9.87886e-16 0)
(4.28228e-20 -9.87887e-16 0)
(4.39056e-20 -9.87888e-16 0)
(4.49832e-20 -9.87888e-16 0)
(4.60565e-20 -9.87889e-16 0)
(4.71261e-20 -9.8789e-16 0)
(4.81929e-20 -9.8789e-16 0)
(4.92579e-20 -9.87891e-16 0)
(1.9701e-19 -6.80378e-15 0)
(3.88262e-10 -4.47068e-06 0)
(2.19385e-09 -5.91576e-05 0)
(8.84638e-22 -9.8787e-16 0)
(2.63748e-21 -9.8787e-16 0)
(4.357e-21 -9.8787e-16 0)
(6.04238e-21 -9.8787e-16 0)
(7.693e-21 -9.8787e-16 0)
(9.30852e-21 -9.87871e-16 0)
(1.08888e-20 -9.87871e-16 0)
(1.24339e-20 -9.87872e-16 0)
(1.39442e-20 -9.87872e-16 0)
(1.54201e-20 -9.87873e-16 0)
(1.68625e-20 -9.87873e-16 0)
(1.82723e-20 -9.87874e-16 0)
(1.96506e-20 -9.87875e-16 0)
(2.09987e-20 -9.87875e-16 0)
(2.2318e-20 -9.87876e-16 0)
(2.361e-20 -9.87877e-16 0)
(2.48765e-20 -9.87878e-16 0)
(2.61192e-20 -9.87879e-16 0)
(2.73398e-20 -9.87879e-16 0)
(2.85403e-20 -9.8788e-16 0)
(2.97225e-20 -9.87881e-16 0)
(3.08883e-20 -9.87882e-16 0)
(3.20396e-20 -9.87883e-16 0)
(3.31781e-20 -9.87884e-16 0)
(3.43056e-20 -9.87885e-16 0)
(3.54237e-20 -9.87885e-16 0)
(3.6534e-20 -9.87886e-16 0)
(3.76379e-20 -9.87887e-16 0)
(3.87366e-20 -9.87888e-16 0)
(3.98313e-20 -9.87889e-16 0)
(4.09229e-20 -9.87889e-16 0)
(4.20122e-20 -9.8789e-16 0)
(4.30998e-20 -9.87891e-16 0)
(4.41862e-20 -9.87892e-16 0)
(4.52715e-20 -9.87893e-16 0)
(4.63561e-20 -9.87893e-16 0)
(4.74399e-20 -9.87894e-16 0)
(1.96674e-19 -7.01612e-15 0)
(3.16038e-10 -3.91632e-06 0)
(1.63312e-09 -5.21158e-05 0)
(8.2483e-22 -9.87872e-16 0)
(2.4593e-21 -9.87872e-16 0)
(4.06306e-21 -9.87872e-16 0)
(5.63556e-21 -9.87873e-16 0)
(7.17645e-21 -9.87873e-16 0)
(8.68555e-21 -9.87873e-16 0)
(1.01629e-20 -9.87874e-16 0)
(1.16088e-20 -9.87874e-16 0)
(1.30235e-20 -9.87875e-16 0)
(1.44079e-20 -9.87875e-16 0)
(1.57626e-20 -9.87876e-16 0)
(1.70886e-20 -9.87876e-16 0)
(1.83871e-20 -9.87877e-16 0)
(1.96595e-20 -9.87878e-16 0)
(2.0907e-20 -9.87879e-16 0)
(2.21313e-20 -9.87879e-16 0)
(2.33341e-20 -9.8788e-16 0)
(2.4517e-20 -9.87881e-16 0)
(2.56819e-20 -9.87882e-16 0)
(2.68307e-20 -9.87883e-16 0)
(2.79652e-20 -9.87883e-16 0)
(2.90873e-20 -9.87884e-16 0)
(3.0199e-20 -9.87885e-16 0)
(3.13021e-20 -9.87886e-16 0)
(3.23984e-20 -9.87887e-16 0)
(3.34896e-20 -9.87888e-16 0)
(3.45773e-20 -9.87889e-16 0)
(3.56629e-20 -9.8789e-16 0)
(3.67478e-20 -9.8789e-16 0)
(3.78331e-20 -9.87891e-16 0)
(3.89196e-20 -9.87892e-16 0)
(4.00081e-20 -9.87893e-16 0)
(4.10989e-20 -9.87894e-16 0)
(4.21922e-20 -9.87895e-16 0)
(4.32878e-20 -9.87895e-16 0)
(4.4385e-20 -9.87896e-16 0)
(4.54828e-20 -9.87897e-16 0)
(1.92683e-19 -7.0377e-15 0)
(2.53001e-10 -3.39077e-06 0)
(1.17913e-09 -4.52903e-05 0)
(7.66442e-22 -9.87874e-16 0)
(2.28531e-21 -9.87874e-16 0)
(3.77591e-21 -9.87875e-16 0)
(5.23793e-21 -9.87875e-16 0)
(6.67115e-21 -9.87875e-16 0)
(8.07557e-21 -9.87875e-16 0)
(9.45133e-21 -9.87876e-16 0)
(1.07988e-20 -9.87876e-16 0)
(1.21184e-20 -9.87877e-16 0)
(1.34108e-20 -9.87877e-16 0)
(1.4677e-20 -9.87878e-16 0)
(1.59178e-20 -9.87879e-16 0)
(1.71344e-20 -9.87879e-16 0)
(1.83281e-20 -9.8788e-16 0)
(1.95003e-20 -9.87881e-16 0)