/*--------------------------------*- C++ -*----------------------------------*\
  =========                 |
  \\      /  F ield         | OpenFOAM: The Open Source CFD Toolbox
   \\    /   O peration     | Website:  https://openfoam.org
    \\  /    A nd           | Version:  10
     \\/     M anipulation  |
\*---------------------------------------------------------------------------*/
FoamFile
{
    format      ascii;
    class       volScalarField;
    location    "6900";
    object      p;
}
// * * * * * * * * * * * * * * * * * * * * * * * * * * * * * * * * * * * * * //

dimensions      [1 -1 -2 0 0 0 0];

internalField   nonuniform List<scalar> 
6400
(
111.516
111.527
111.548
111.58
111.623
111.677
111.741
111.818
111.905
112.005
112.116
112.24
112.377
112.527
112.691
112.87
113.063
113.271
113.496
113.738
113.997
114.274
114.57
114.884
115.218
115.57
115.938
116.321
116.714
117.109
117.497
117.862
118.096
118.228
118.347
118.45
118.535
118.6
118.645
118.667
118.667
118.645
118.6
118.535
118.45
118.347
118.228
118.096
117.862
117.497
117.109
116.714
116.321
115.938
115.57
115.218
114.884
114.57
114.274
113.997
113.738
113.496
113.271
113.063
112.87
112.691
112.527
112.377
112.24
112.116
112.005
111.905
111.818
111.741
111.677
111.623
111.58
111.548
111.527
111.516
111.222
111.232
111.254
111.286
111.328
111.382
111.447
111.523
111.611
111.71
111.822
111.946
112.082
112.233
112.397
112.575
112.768
112.977
113.202
113.443
113.702
113.979
114.275
114.59
114.923
115.275
115.643
116.026
116.419
116.815
117.204
117.57
117.805
117.937
118.056
118.159
118.245
118.311
118.355
118.378
118.378
118.355
118.311
118.245
118.159
118.056
117.937
117.805
117.57
117.204
116.815
116.419
116.026
115.643
115.275
114.923
114.59
114.275
113.979
113.702
113.443
113.202
112.977
112.768
112.575
112.397
112.233
112.082
111.946
111.822
111.71
111.611
111.523
111.447
111.382
111.328
111.286
111.254
111.232
111.222
110.898
110.909
110.93
110.962
111.005
111.059
111.123
111.199
111.287
111.386
111.498
111.622
111.759
111.909
112.073
112.251
112.444
112.653
112.877
113.119
113.378
113.655
113.951
114.265
114.599
114.951
115.32
115.703
116.097
116.494
116.884
117.252
117.488
117.622
117.742
117.846
117.932
117.999
118.044
118.067
118.067
118.044
117.999
117.932
117.846
117.742
117.622
117.488
117.252
116.884
116.494
116.097
115.703
115.32
114.951
114.599
114.265
113.951
113.655
113.378
113.119
112.877
112.653
112.444
112.251
112.073
111.909
111.759
111.622
111.498
111.386
111.287
111.199
111.123
111.059
111.005
110.962
110.93
110.909
110.898
110.543
110.553
110.575
110.607
110.649
110.703
110.768
110.844
110.931
111.031
111.142
111.266
111.403
111.553
111.717
111.895
112.088
112.296
112.521
112.762
113.021
113.298
113.594
113.908
114.242
114.594
114.963
115.348
115.742
116.141
116.534
116.905
117.144
117.28
117.402
117.508
117.596
117.663
117.71
117.733
117.733
117.71
117.663
117.596
117.508
117.402
117.28
117.144
116.905
116.534
116.141
115.742
115.348
114.963
114.594
114.242
113.908
113.594
113.298
113.021
112.762
112.521
112.296
112.088
111.895
111.717
111.553
111.403
111.266
111.142
111.031
110.931
110.844
110.768
110.703
110.649
110.607
110.575
110.553
110.543
110.152
110.163
110.184
110.216
110.259
110.312
110.377
110.453
110.54
110.64
110.751
110.875
111.011
111.161
111.325
111.503
111.696
111.904
112.128
112.37
112.629
112.905
113.201
113.515
113.849
114.202
114.572
114.957
115.354
115.755
116.152
116.528
116.772
116.91
117.035
117.144
117.234
117.304
117.352
117.376
117.376
117.352
117.304
117.234
117.144
117.035
116.91
116.772
116.528
116.152
115.755
115.354
114.957
114.572
114.202
113.849
113.515
113.201
112.905
112.629
112.37
112.128
111.904
111.696
111.503
111.325
111.161
111.011
110.875
110.751
110.64
110.54
110.453
110.377
110.312
110.259
110.216
110.184
110.163
110.152
109.723
109.733
109.754
109.786
109.829
109.882
109.947
110.023
110.11
110.209
110.321
110.444
110.581
110.73
110.894
111.072
111.264
111.472
111.697
111.938
112.196
112.473
112.768
113.083
113.417
113.77
114.141
114.528
114.927
115.332
115.734
116.118
116.369
116.511
116.64
116.753
116.847
116.92
116.97
116.995
116.995
116.97
116.92
116.847
116.753
116.64
116.511
116.369
116.118
115.734
115.332
114.927
114.528
114.141
113.77
113.417
113.083
112.768
112.473
112.196
111.938
111.697
111.472
111.264
111.072
110.894
110.73
110.581
110.444
110.321
110.209
110.11
110.023
109.947
109.882
109.829
109.786
109.754
109.733
109.723
109.25
109.261
109.282
109.314
109.356
109.41
109.474
109.55
109.637
109.736
109.847
109.971
110.107
110.257
110.42
110.597
110.789
110.997
111.221
111.462
111.72
111.996
112.292
112.606
112.94
113.294
113.666
114.055
114.458
114.869
115.278
115.673
115.932
116.081
116.216
116.335
116.434
116.511
116.564
116.591
116.591
116.564
116.511
116.434
116.335
116.216
116.081
115.932
115.673
115.278
114.869
114.458
114.055
113.666
113.294
112.94
112.606
112.292
111.996
111.72
111.462
111.221
110.997
110.789
110.597
110.42
110.257
110.107
109.971
109.847
109.736
109.637
109.55
109.474
109.41
109.356
109.314
109.282
109.261
109.25
108.731
108.741
108.763
108.794
108.837
108.89
108.955
109.03
109.117
109.216
109.327
109.45
109.586
109.735
109.898
110.075
110.267
110.474
110.697
110.938
111.195
111.471
111.766
112.081
112.415
112.769
113.143
113.535
113.943
114.36
114.78
115.189
115.461
115.618
115.762
115.889
115.996
116.079
116.137
116.166
116.166
116.137
116.079
115.996
115.889
115.762
115.618
115.461
115.189
114.78
114.36
113.943
113.535
113.143
112.769
112.415
112.081
111.766
111.471
111.195
110.938
110.697
110.474
110.267
110.075
109.898
109.735
109.586
109.45
109.327
109.216
109.117
109.03
108.955
108.89
108.837
108.794
108.763
108.741
108.731
108.16
108.17
108.191
108.223
108.265
108.318
108.383
108.458
108.545
108.643
108.754
108.876
109.012
109.161
109.323
109.499
109.691
109.897
110.12
110.36
110.617
110.892
111.187
111.501
111.836
112.191
112.567
112.963
113.376
113.803
114.236
114.663
114.953
115.121
115.277
115.416
115.533
115.626
115.691
115.724
115.724
115.691
115.626
115.533
115.416
115.277
115.121
114.953
114.663
114.236
113.803
113.376
112.963
112.567
112.191
111.836
111.501
111.187
110.892
110.617
110.36
110.12
109.897
109.691
109.499
109.323
109.161
109.012
108.876
108.754
108.643
108.545
108.458
108.383
108.318
108.265
108.223
108.191
108.17
108.16
107.531
107.541
107.562
107.594
107.636
107.689
107.753
107.828
107.915
108.013
108.123
108.245
108.38
108.528
108.69
108.866
109.056
109.262
109.484
109.723
109.979
110.254
110.548
110.862
111.197
111.553
111.931
112.331
112.751
113.189
113.64
114.092
114.405
114.589
114.761
114.917
115.05
115.157
115.232
115.27
115.27
115.232
115.157
115.05
114.917
114.761
114.589
114.405
114.092
113.64
113.189
112.751
112.331
111.931
111.553
111.197
110.862
110.548
110.254
109.979
109.723
109.484
109.262
109.056
108.866
108.69
108.528
108.38
108.245
108.123
108.013
107.915
107.828
107.753
107.689
107.636
107.594
107.562
107.541
107.531
106.839
106.849
106.87
106.902
106.944
106.997
107.06
107.135
107.221
107.319
107.428
107.55
107.684
107.831
107.992
108.167
108.357
108.561
108.782
109.02
109.275
109.549
109.842
110.156
110.491
110.848
111.229
111.634
112.062
112.514
112.986
113.469
113.813
114.019
114.215
114.394
114.552
114.68
114.77
114.817
114.817
114.77
114.68
114.552
114.394
114.215
114.019
113.813
113.469
112.986
112.514
112.062
111.634
111.229
110.848
110.491
110.156
109.842
109.549
109.275
109.02
108.782
108.561
108.357
108.167
107.992
107.831
107.684
107.55
107.428
107.319
107.221
107.135
107.06
106.997
106.944
106.902
106.87
106.849
106.839
106.077
106.088
106.108
106.14
106.181
106.234
106.297
106.371
106.457
106.554
106.663
106.783
106.917
107.063
107.223
107.397
107.585
107.789
108.008
108.244
108.498
108.77
109.063
109.375
109.71
110.069
110.452
110.862
111.301
111.768
112.265
112.787
113.173
113.409
113.637
113.853
114.046
114.207
114.324
114.386
114.386
114.324
114.207
114.046
113.853
113.637
113.409
113.173
112.787
112.265
111.768
111.301
110.862
110.452
110.069
109.71
109.375
109.063
108.77
108.498
108.244
108.008
107.789
107.585
107.397
107.223
107.063
106.917
106.783
106.663
106.554
106.457
106.371
106.297
106.234
106.181
106.14
106.108
106.088
106.077
105.238
105.249
105.269
105.3
105.342
105.394
105.456
105.53
105.615
105.711
105.819
105.939
106.071
106.216
106.375
106.547
106.734
106.936
107.153
107.388
107.64
107.91
108.201
108.512
108.847
109.206
109.591
110.007
110.455
110.94
111.466
112.035
112.475
112.751
113.026
113.295
113.546
113.764
113.928
114.016
114.016
113.928
113.764
113.546
113.295
113.026
112.751
112.475
112.035
111.466
110.94
110.455
110.007
109.591
109.206
108.847
108.512
108.201
107.91
107.64
107.388
107.153
106.936
106.734
106.547
106.375
106.216
106.071
105.939
105.819
105.711
105.615
105.53
105.456
105.394
105.342
105.3
105.269
105.249
105.238
104.314
104.324
104.345
104.375
104.416
104.468
104.53
104.603
104.687
104.782
104.889
105.008
105.139
105.282
105.439
105.609
105.794
105.994
106.209
106.441
106.691
106.959
107.247
107.556
107.889
108.248
108.635
109.055
109.513
110.016
110.572
111.195
111.701
112.028
112.369
112.718
113.065
113.386
113.645
113.789
113.789
113.645
113.386
113.065
112.718
112.369
112.028
111.701
111.195
110.572
110.016
109.513
109.055
108.635
108.248
107.889
107.556
107.247
106.959
106.691
106.441
106.209
105.994
105.794
105.609
105.439
105.282
105.139
105.008
104.889
104.782
104.687
104.603
104.53
104.468
104.416
104.375
104.345
104.324
104.314
103.295
103.305
103.326
103.356
103.396
103.447
103.509
103.581
103.664
103.758
103.863
103.98
104.11
104.251
104.406
104.574
104.756
104.953
105.166
105.394
105.641
105.905
106.19
106.497
106.827
107.184
107.571
107.994
108.459
108.976
109.56
110.236
110.814
111.203
111.628
112.093
112.597
113.122
113.614
113.934
113.934
113.614
113.122
112.597
112.093
111.628
111.203
110.814
110.236
109.56
108.976
108.459
107.994
107.571
107.184
106.827
106.497
106.19
105.905
105.641
105.394
105.166
104.953
104.756
104.574
104.406
104.251
104.11
103.98
103.863
103.758
103.664
103.581
103.509
103.447
103.396
103.356
103.326
103.305
103.295
102.172
102.182
102.202
102.232
102.272
102.322
102.383
102.453
102.535
102.628
102.731
102.847
102.974
103.113
103.265
103.431
103.61
103.803
104.012
104.237
104.478
104.739
105.019
105.321
105.647
106
106.384
106.805
107.272
107.797
108.398
109.111
109.747
110.19
110.699
111.297
112.021
112.931
114.178
126.984
126.984
114.178
112.931
112.021
111.297
110.699
110.19
109.747
109.111
108.398
107.797
107.272
106.805
106.384
106
105.647
105.321
105.019
104.739
104.478
104.237
104.012
103.803
103.61
103.431
103.265
103.113
102.974
102.847
102.731
102.628
102.535
102.453
102.383
102.322
102.272
102.232
102.202
102.182
102.172
100.855
100.865
100.884
100.913
100.953
101.002
101.061
101.131
101.211
101.301
101.403
101.516
101.64
101.776
101.925
102.086
102.261
102.45
102.654
102.873
103.109
103.363
103.637
103.931
104.25
104.595
104.972
105.385
105.845
106.364
106.962
107.673
108.314
108.762
109.281
109.897
110.652
111.62
124.688
147.608
147.608
124.688
111.62
110.652
109.897
109.281
108.762
108.314
107.673
106.962
106.364
105.845
105.385
104.972
104.595
104.25
103.931
103.637
103.363
103.109
102.873
102.654
102.45
102.261
102.086
101.925
101.776
101.64
101.516
101.403
101.301
101.211
101.131
101.061
101.002
100.953
100.913
100.884
100.865
100.855
99.392
99.4015
99.4206
99.4491
99.4873
99.5353
99.5931
99.6609
99.7388
99.8271
99.926
100.036
100.157
100.289
100.434
100.59
100.76
100.943
101.14
101.353
101.581
101.826
102.09
102.375
102.682
103.014
103.376
103.773
104.212
104.704
105.263
105.911
106.463
106.83
107.225
107.644
108.075
108.573
136.368
145.916
145.916
136.368
108.573
108.075
107.644
107.225
106.83
106.463
105.911
105.263
104.704
104.212
103.773
103.376
103.014
102.682
102.375
102.09
101.826
101.581
101.353
101.14
100.943
100.76
100.59
100.434
100.289
100.157
100.036
99.926
99.8271
99.7388
99.6609
99.5931
99.5353
99.4873
99.4491
99.4206
99.4015
99.392
97.9197
97.9289
97.9474
97.9752
98.0123
98.0589
98.1151
98.181
98.2566
98.3424
98.4383
98.5447
98.6619
98.7902
98.9298
99.0814
99.2452
99.4218
99.6119
99.8163
100.036
100.271
100.524
100.796
101.088
101.404
101.746
102.119
102.527
102.977
103.476
104.032
104.476
104.757
105.044
105.33
105.605
106.013
126.053
134.35
134.35
126.053
106.013
105.605
105.33
105.044
104.757
104.476
104.032
103.476
102.977
102.527
102.119
101.746
101.404
101.088
100.796
100.524
100.271
100.036
99.8163
99.6119
99.4218
99.2452
99.0814
98.9298
98.7902
98.6619
98.5447
98.4383
98.3424
98.2566
98.181
98.1151
98.0589
98.0123
97.9752
97.9474
97.9289
97.9197
96.438
96.447
96.4649
96.4919
96.5279
96.5731
96.6275
96.6912
96.7645
96.8474
96.9401
97.0429
97.156
97.2797
97.4143
97.5601
97.7175
97.8871
98.0693
98.2647
98.4742
98.6984
98.9385
99.1957
99.4714
99.7674
100.086
100.429
100.8
101.201
101.633
102.095
102.444
102.658
102.869
103.071
103.26
103.605
117.689
124.564
124.564
117.689
103.605
103.26
103.071
102.869
102.658
102.444
102.095
101.633
101.201
100.8
100.429
100.086
99.7674
99.4714
99.1957
98.9385
98.6984
98.4742
98.2647
98.0693
97.8871
97.7175
97.5601
97.4143
97.2797
97.156
97.0429
96.9401
96.8474
96.7645
96.6912
96.6275
96.5731
96.5279
96.4919
96.4649
96.447
96.438
94.9475
94.9561
94.9735
94.9995
95.0343
95.0779
95.1304
95.192
95.2626
95.3425
95.4319
95.5308
95.6396
95.7584
95.8875
96.0271
96.1778
96.3397
96.5133
96.6992
96.8979
97.1099
97.3361
97.5772
97.8343
98.1083
98.4004
98.7115
99.0423
99.3926
99.7601
100.139
100.412
100.576
100.734
100.883
101.02
101.321
111.826
117.621
117.621
111.826
101.321
101.02
100.883
100.734
100.576
100.412
100.139
99.7601
99.3926
99.0423
98.7115
98.4004
98.1083
97.8343
97.5772
97.3361
97.1099
96.8979
96.6992
96.5133
96.3397
96.1778
96.0271
95.8875
95.7584
95.6396
95.5308
95.4319
95.3425
95.2626
95.192
95.1304
95.0779
95.0343
94.9995
94.9735
94.9561
94.9475
93.4482
93.4566
93.4733
93.4984
93.5319
93.5739
93.6244
93.6836
93.7515
93.8283
93.914
94.0089
94.1131
94.2267
94.35
94.4833
94.6267
94.7806
94.9452
95.1209
95.3081
95.5072
95.7187
95.9429
96.1803
96.4313
96.696
96.9743
97.2654
97.5672
97.8757
98.1837
98.3975
98.5243
98.6448
98.7572
98.8599
99.1254
107.24
112.385
112.385
107.24
99.1254
98.8599
98.7572
98.6448
98.5243
98.3975
98.1837
97.8757
97.5672
97.2654
96.9743
96.696
96.4313
96.1803
95.9429
95.7187
95.5072
95.3081
95.1209
94.9452
94.7806
94.6267
94.4833
94.35
94.2267
94.1131
94.0089
93.914
93.8283
93.7515
93.6836
93.6244
93.5739
93.5319
93.4984
93.4733
93.4566
93.4482
91.9407
91.9487
91.9647
91.9888
92.021
92.0613
92.1098
92.1665
92.2316
92.3051
92.3871
92.4777
92.5771
92.6854
92.8027
92.9293
93.0652
93.2107
93.3659
93.5312
93.7065
93.8923
94.0885
94.2953
94.5127
94.7404
94.978
95.2244
95.4778
95.7352
95.9917
96.2404
96.4074
96.5051
96.5966
96.6809
96.7572
96.9804
103.141
107.933
107.933
103.141
96.9804
96.7572
96.6809
96.5966
96.5051
96.4074
96.2404
95.9917
95.7352
95.4778
95.2244
94.978
94.7404
94.5127
94.2953
94.0885
93.8923
93.7065
93.5312
93.3659
93.2107
93.0652
92.9293
92.8027
92.6854
92.5771
92.4777
92.3871
92.3051
92.2316
92.1665
92.1098
92.0613
92.021
91.9888
91.9647
91.9487
91.9407
90.4251
90.4328
90.4481
90.4712
90.502
90.5405
90.5869
90.6411
90.7032
90.7733
90.8515
90.9377
91.0322
91.135
91.2462
91.3658
91.4941
91.631
91.7767
91.9312
92.0946
92.2668
92.4477
92.6371
92.8347
93.0398
93.2513
93.4676
93.6863
93.904
94.1156
94.3147
94.4434
94.5171
94.5845
94.645
94.6978
94.8589
99.0894
103.737
103.737
99.0894
94.8589
94.6978
94.645
94.5845
94.5171
94.4434
94.3147
94.1156
93.904
93.6863
93.4676
93.2513
93.0398
92.8347
92.6371
92.4477
92.2668
92.0946
91.9312
91.7767
91.631
91.4941
91.3658
91.2462
91.135
91.0322
90.9377
90.8515
90.7733
90.7032
90.6411
90.5869
90.5405
90.502
90.4712
90.4481
90.4328
90.4251
88.9018
88.9091
88.9238
88.9458
88.9752
89.012
89.0561
89.1078
89.1669
89.2335
89.3077
89.3895
89.479
89.5762
89.6811
89.7938
89.9143
90.0426
90.1787
90.3225
90.4738
90.6326
90.7984
90.9709
91.1493
91.3327
91.5196
91.7083
91.8958
92.0787
92.2521
92.4098
92.5069
92.5608
92.608
92.6477
92.679
92.7605
94.9431
99.6413
99.6413
94.9431
92.7605
92.679
92.6477
92.608
92.5608
92.5069
92.4098
92.2521
92.0787
91.8958
91.7083
91.5196
91.3327
91.1493
90.9709
90.7984
90.6326
90.4738
90.3225
90.1787
90.0426
89.9143
89.7938
89.6811
89.5762
89.479
89.3895
89.3077
89.2335
89.1669
89.1078
89.0561
89.012
88.9752
88.9458
88.9238
88.9091
88.9018
87.3712
87.3782
87.3921
87.4131
87.441
87.476
87.5179
87.5669
87.623
87.6861
87.7564
87.8337
87.9181
88.0097
88.1083
88.214
88.3268
88.4465
88.573
88.7061
88.8457
88.9913
89.1425
89.2986
89.4589
89.622
89.7864
89.95
90.1101
90.263
90.4043
90.5282
90.6001
90.6383
90.6697
90.6931
90.7074
90.7209
91.0269
95.9686
95.9686
91.0269
90.7209
90.7074
90.6931
90.6697
90.6383
90.6001
90.5282
90.4043
90.263
90.1101
89.95
89.7864
89.622
89.4589
89.2986
89.1425
88.9913
88.8457
88.7061
88.573
88.4465
88.3268
88.214
88.1083
88.0097
87.9181
87.8337
87.7564
87.6861
87.623
87.5669
87.5179
87.476
87.441
87.4131
87.3921
87.3782
87.3712
85.8336
85.8403
85.8535
85.8734
85.8998
85.933
85.9727
86.0191
86.0721
86.1317
86.1979
86.2707
86.3501
86.4361
86.5285
86.6272
86.7323
86.8435
86.9606
87.0833
87.2114
87.3444
87.4816
87.6223
87.7655
87.91
88.0539
88.1953
88.3314
88.4589
88.5738
88.6709
88.7239
88.7509
88.7713
88.7845
88.7894
88.7849
88.7751
93.6479
93.6479
88.7751
88.7849
88.7894
88.7845
88.7713
88.7509
88.7239
88.6709
88.5738
88.4589
88.3314
88.1953
88.0539
87.91
87.7655
87.6223
87.4816
87.3444
87.2114
87.0833
86.9606
86.8435
86.7323
86.6272
86.5285
86.4361
86.3501
86.2707
86.1979
86.1317
86.0721
86.0191
85.9727
85.933
85.8998
85.8734
85.8535
85.8403
85.8336
84.2895
84.2957
84.3082
84.327
84.352
84.3833
84.4208
84.4646
84.5145
84.5706
84.6329
84.7012
84.7756
84.856
84.9422
85.0341
85.1317
85.2345
85.3425
85.4553
85.5723
85.6932
85.8172
85.9435
86.071
86.1984
86.324
86.4458
86.5614
86.6676
86.761
86.8373
86.8768
86.8961
86.9098
86.9176
86.9189
86.9136
86.9056
91.8369
91.8369
86.9056
86.9136
86.9189
86.9176
86.9098
86.8961
86.8768
86.8373
86.761
86.6676
86.5614
86.4458
86.324
86.1984
86.071
85.9435
85.8172
85.6932
85.5723
85.4553
85.3425
85.2345
85.1317
85.0341
84.9422
84.856
84.7756
84.7012
84.6329
84.5706
84.5145
84.4646
84.4208
84.3833
84.352
84.327
84.3082
84.2957
84.2895
82.739
82.7449
82.7567
82.7744
82.798
82.8274
82.8627
82.9039
82.9508
83.0034
83.0617
83.1257
83.1951
83.27
83.3502
83.4355
83.5257
83.6205
83.7197
83.8228
83.9294
84.0389
84.1506
84.2635
84.3766
84.4887
84.598
84.7027
84.8006
84.8891
84.9651
85.0255
85.0552
85.0692
85.0785
85.0831
85.0826
85.0769
85.069
90.1662
90.1662
85.069
85.0769
85.0826
85.0831
85.0785
85.0692
85.0552
85.0255
84.9651
84.8891
84.8006
84.7027
84.598
84.4887
84.3766
84.2635
84.1506
84.0389
83.9294
83.8228
83.7197
83.6205
83.5257
83.4355
83.3502
83.27
83.1951
83.1257
83.0617
83.0034
82.9508
82.9039
82.8627
82.8274
82.798
82.7744
82.7567
82.7449
82.739
81.1826
81.1882
81.1993
81.2159
81.2381
81.2657
81.2988
81.3374
81.3813
81.4305
81.485
81.5446
81.6092
81.6788
81.7531
81.8319
81.915
82.0022
82.0929
82.1869
82.2837
82.3825
82.4827
82.5833
82.6834
82.7816
82.8765
82.9664
83.0493
83.123
83.185
83.2329
83.2553
83.2655
83.2718
83.2742
83.2724
83.2665
83.2585
88.5799
88.5799
83.2585
83.2665
83.2724
83.2742
83.2718
83.2655
83.2553
83.2329
83.185
83.123
83.0493
82.9664
82.8765
82.7816
82.6834
82.5833
82.4827
82.3825
82.2837
82.1869
82.0929
82.0022
81.915
81.8319
81.7531
81.6788
81.6092
81.5446
81.485
81.4305
81.3813
81.3374
81.2988
81.2657
81.2381
81.2159
81.1993
81.1882
81.1826
79.6207
79.6259
79.6363
79.6519
79.6727
79.6985
79.7295
79.7655
79.8065
79.8524
79.9031
79.9585
80.0184
80.0828
80.1514
80.224
80.3004
80.3802
80.463
80.5483
80.6358
80.7247
80.8143
80.9037
80.9919
81.0778
81.16
81.237
81.3071
81.3685
81.4191
81.457
81.4739
81.4812
81.4852
81.486
81.4833
81.4772
81.4692
87.0708
87.0708
81.4692
81.4772
81.4833
81.486
81.4852
81.4812
81.4739
81.457
81.4191
81.3685
81.3071
81.237
81.16
81.0778
80.9919
80.9037
80.8143
80.7247
80.6358
80.5483
80.463
80.3802
80.3004
80.224
80.1514
80.0828
80.0184
79.9585
79.9031
79.8524
79.8065
79.7655
79.7295
79.6985
79.6727
79.6519
79.6363
79.6259
79.6207
78.0536
78.0585
78.0682
78.0828
78.1021
78.1263
78.1551
78.1887
78.2268
78.2694
78.3165
78.3678
78.4232
78.4826
78.5458
78.6125
78.6823
78.7551
78.8304
78.9077
78.9865
79.0662
79.146
79.2252
79.3028
79.3778
79.4488
79.5146
79.5738
79.6247
79.6659
79.6958
79.7082
79.7132
79.7155
79.7149
79.7115
79.7053
79.6973
85.6424
85.6424
79.6973
79.7053
79.7115
79.7149
79.7155
79.7132
79.7082
79.6958
79.6659
79.6247
79.5738
79.5146
79.4488
79.3778
79.3028
79.2252
79.146
79.0662
78.9865
78.9077
78.8304
78.7551
78.6823
78.6125
78.5458
78.4826
78.4232
78.3678
78.3165
78.2694
78.2268
78.1887
78.1551
78.1263
78.1021
78.0828
78.0682
78.0585
78.0536
76.4816
76.4862
76.4952
76.5088
76.5268
76.5492
76.5761
76.6072
76.6426
76.6821
76.7256
76.773
76.8241
76.8787
76.9366
76.9976
77.0614
77.1276
77.1957
77.2655
77.3363
77.4075
77.4785
77.5484
77.6164
77.6816
77.7428
77.7988
77.8486
77.8907
77.924
77.9472
77.956
77.9591
77.9599
77.9582
77.9542
77.9478
77.9399
84.3055
84.3055
77.9399
77.9478
77.9542
77.9582
77.9599
77.9591
77.956
77.9472
77.924
77.8907
77.8486
77.7988
77.7428
77.6816
77.6164
77.5484
77.4785
77.4075
77.3363
77.2655
77.1957
77.1276
77.0614
76.9976
76.9366
76.8787
76.8241
76.773
76.7256
76.6821
76.6426
76.6072
76.5761
76.5492
76.5268
76.5088
76.4952
76.4862
76.4816
74.9051
74.9093
74.9177
74.9303
74.9471
74.9679
74.9927
75.0215
75.0542
75.0907
75.1308
75.1744
75.2214
75.2714
75.3244
75.3801
75.438
75.498
75.5596
75.6223
75.6856
75.7491
75.8119
75.8735
75.9329
75.9893
76.0418
76.0894
76.131
76.1656
76.1921
76.2097
76.2154
76.2169
76.2163
76.2138
76.2091
76.2025
76.1946
83.0815
83.0815
76.1946
76.2025
76.2091
76.2138
76.2163
76.2169
76.2154
76.2097
76.1921
76.1656
76.131
76.0894
76.0418
75.9893
75.9329
75.8735
75.8119
75.7491
75.6856
75.6223
75.5596
75.498
75.438
75.3801
75.3244
75.2714
75.2214
75.1744
75.1308
75.0907
75.0542
75.0215
74.9927
74.9679
74.9471
74.9303
74.9177
74.9093
74.9051
73.3244
73.3283
73.3361
73.3477
73.3632
73.3824
73.4054
73.432
73.4621
73.4957
73.5325
73.5726
73.6155
73.6613
73.7096
73.7601
73.8127
73.8668
73.9222
73.9784
74.035
74.0912
74.1467
74.2006
74.2523
74.301
74.3459
74.386
74.4205
74.4485
74.4692
74.4819
74.4848
74.4849
74.4832
74.4797
74.4744
74.4674
74.4597
82.0018
82.0018
74.4597
74.4674
74.4744
74.4797
74.4832
74.4849
74.4848
74.4819
74.4692
74.4485
74.4205
74.386
74.3459
74.301
74.2523
74.2006
74.1467
74.0912
74.035
73.9784
73.9222
73.8668
73.8127
73.7601
73.7096
73.6613
73.6155
73.5726
73.5325
73.4957
73.4621
73.432
73.4054
73.3824
73.3632
73.3477
73.3361
73.3283
73.3244
71.7398
71.7434
71.7506
71.7613
71.7756
71.7933
71.8145
71.8389
71.8666
71.8974
71.9311
71.9677
72.0069
72.0486
72.0925
72.1382
72.1857
72.2344
72.2841
72.3343
72.3845
72.4342
72.483
72.53
72.5748
72.6166
72.6546
72.6882
72.7164
72.7387
72.7543
72.7627
72.7631
72.7618
72.759
72.7546
72.7487
72.7412
72.7337
81.118
81.118
72.7337
72.7412
72.7487
72.7546
72.759
72.7618
72.7631
72.7627
72.7543
72.7387
72.7164
72.6882
72.6546
72.6166
72.5748
72.53
72.483
72.4342
72.3845
72.3343
72.2841
72.2344
72.1857
72.1382
72.0925
72.0486
72.0069
71.9677
71.9311
71.8974
71.8666
71.8389
71.8145
71.7933
71.7756
71.7613
71.7506
71.7434
71.7398
70.1516
70.1549
70.1615
70.1714
70.1845
70.2008
70.2202
70.2426
70.2679
70.2961
70.3269
70.3602
70.3959
70.4337
70.4734
70.5147
70.5574
70.6011
70.6454
70.6901
70.7345
70.7783
70.8209
70.8617
70.9003
70.9359
70.9679
70.9956
71.0184
71.0356
71.0467
71.0511
71.0493
71.0467
71.0428
71.0374
71.0307
71.0225
71.0152
80.5183
80.5183
71.0152
71.0225
71.0307
71.0374
71.0428
71.0467
71.0493
71.0511
71.0467
71.0356
71.0184
70.9956
70.9679
70.9359
70.9003
70.8617
70.8209
70.7783
70.7345
70.6901
70.6454
70.6011
70.5574
70.5147
70.4734
70.4337
70.3959
70.3602
70.3269
70.2961
70.2679
70.2426
70.2202
70.2008
70.1845
70.1714
70.1615
70.1549
70.1516
68.5601
68.5631
68.5692
68.5782
68.5902
68.6051
68.6229
68.6434
68.6665
68.6921
68.7202
68.7504
68.7827
68.8169
68.8527
68.8898
68.9281
68.9671
69.0065
69.046
69.0851
69.1235
69.1605
69.1958
69.2287
69.2588
69.2854
69.3079
69.3259
69.3386
69.3457
69.3466
69.3426
69.3388
69.3336
69.3272
69.3195
69.3106
69.3034
80.3554
80.3554
69.3034
69.3106
69.3195
69.3272
69.3336
69.3388
69.3426
69.3466
69.3457
69.3386
69.3259
69.3079
69.2854
69.2588
69.2287
69.1958
69.1605
69.1235
69.0851
69.046
69.0065
68.9671
68.9281
68.8898
68.8527
68.8169
68.7827
68.7504
68.7202
68.6921
68.6665
68.6434
68.6229
68.6051
68.5902
68.5782
68.5692
68.5631
68.5601
66.9655
66.9683
66.9738
66.9821
66.9931
67.0067
67.0228
67.0415
67.0625
67.0858
67.1112
67.1386
67.1677
67.1985
67.2306
67.2639
67.298
67.3327
67.3676
67.4023
67.4366
67.47
67.502
67.5321
67.56
67.5851
67.6069
67.6249
67.6386
67.6474
67.6509
67.6486
67.6425
67.6374
67.6311
67.6235
67.6146
67.6046
67.5974
80.804
80.804
67.5974
67.6046
67.6146
67.6235
67.6311
67.6374
67.6425
67.6486
67.6509
67.6474
67.6386
67.6249
67.6069
67.5851
67.56
67.5321
67.502
67.47
67.4366
67.4023
67.3676
67.3327
67.298
67.2639
67.2306
67.1985
67.1677
67.1386
67.1112
67.0858
67.0625
67.0415
67.0228
67.0067
66.9931
66.9821
66.9738
66.9683
66.9655
65.3682
65.3707
65.3758
65.3833
65.3933
65.4056
65.4203
65.4372
65.4563
65.4773
65.5002
65.5249
65.5511
65.5787
65.6074
65.6371
65.6674
65.698
65.7287
65.7592
65.789
65.8178
65.8452
65.8708
65.8941
65.9148
65.9323
65.9462
65.9561
65.9614
65.9619
65.9568
65.9488
65.9426
65.935
65.926
65.9155
65.9037
65.8959
80.6704
80.6704
65.8959
65.9037
65.9155
65.926
65.935
65.9426
65.9488
65.9568
65.9619
65.9614
65.9561
65.9462
65.9323
65.9148
65.8941
65.8708
65.8452
65.8178
65.789
65.7592
65.7287
65.698
65.6674
65.6371
65.6074
65.5787
65.5511
65.5249
65.5002
65.4773
65.4563
65.4372
65.4203
65.4056
65.3933
65.3833
65.3758
65.3707
65.3682
63.7684
63.7707
63.7752
63.7821
63.7911
63.8023
63.8155
63.8308
63.848
63.867
63.8876
63.9097
63.9332
63.9578
63.9833
64.0096
64.0363
64.0633
64.0902
64.1166
64.1424
64.167
64.1903
64.2117
64.231
64.2476
64.2613
64.2716
64.2781
64.2805
64.2783
64.2711
64.2618
64.2548
64.2463
64.2359
64.2233
64.2071
64.1938
65.7353
65.7353
64.1938
64.2071
64.2233
64.2359
64.2463
64.2548
64.2618
64.2711
64.2783
64.2805
64.2781
64.2716
64.2613
64.2476
64.231
64.2117
64.1903
64.167
64.1424
64.1166
64.0902
64.0633
64.0363
64.0096
63.9833
63.9578
63.9332
63.9097
63.8876
63.867
63.848
63.8308
63.8155
63.8023
63.7911
63.7821
63.7752
63.7707
63.7684
62.1664
62.1685
62.1726
62.1788
62.187
62.197
62.209
62.2227
62.2382
62.2552
62.2736
62.2934
62.3143
62.3361
62.3588
62.3819
62.4054
62.4289
62.4522
62.4751
62.4971
62.518
62.5374
62.5551
62.5706
62.5837
62.5939
62.601
62.6045
62.6043
62.6
62.5913
62.5816
62.5747
62.5669
62.5582
62.5488
62.5392
62.5303
63.9422
63.9422
62.5303
62.5392
62.5488
62.5582
62.5669
62.5747
62.5816
62.5913
62.6
62.6043
62.6045
62.601
62.5939
62.5837
62.5706
62.5551
62.5374
62.518
62.4971
62.4751
62.4522
62.4289
62.4054
62.3819
62.3588
62.3361
62.3143
62.2934
62.2736
62.2552
62.2382
62.2227
62.209
62.197
62.187
62.1788
62.1726
62.1685
62.1664
60.5625
60.5643
60.568
60.5736
60.5809
60.59
60.6007
60.613
60.6268
60.642
60.6584
60.6759
60.6945
60.7137
60.7336
60.7539
60.7744
60.7948
60.8148
60.8343
60.8529
60.8704
60.8864
60.9006
60.9128
60.9226
60.9297
60.9339
60.9348
60.9323
60.9261
60.9162
60.9063
60.8994
60.892
60.8839
60.8754
60.8667
60.8577
62.279
62.279
60.8577
60.8667
60.8754
60.8839
60.892
60.8994
60.9063
60.9162
60.9261
60.9323
60.9348
60.9339
60.9297
60.9226
60.9128
60.9006
60.8864
60.8704
60.8529
60.8343
60.8148
60.7948
60.7744
60.7539
60.7336
60.7137
60.6945
60.6759
60.6584
60.642
60.6268
60.613
60.6007
60.59
60.5809
60.5736
60.568
60.5643
60.5625
58.9566
58.9583
58.9616
58.9666
58.9731
58.9812
58.9908
59.0017
59.014
59.0275
59.042
59.0575
59.0738
59.0908
59.1081
59.1257
59.1434
59.1609
59.178
59.1944
59.2099
59.2242
59.2371
59.2482
59.2573
59.2641
59.2684
59.27
59.2685
59.2639
59.256
59.2449
59.2345
59.2275
59.22
59.2119
59.2035
59.1946
59.1854
60.6331
60.6331
59.1854
59.1946
59.2035
59.2119
59.22
59.2275
59.2345
59.2449
59.256
59.2639
59.2685
59.27
59.2684
59.2641
59.2573
59.2482
59.2371
59.2242
59.2099
59.1944
59.178
59.1609
59.1434
59.1257
59.1081
59.0908
59.0738
59.0575
59.042
59.0275
59.014
59.0017
58.9908
58.9812
58.9731
58.9666
58.9616
58.9583
58.9566
57.3491
57.3506
57.3535
57.3579
57.3638
57.371
57.3795
57.3892
57.4
57.4119
57.4247
57.4383
57.4526
57.4673
57.4824
57.4975
57.5126
57.5275
57.5418
57.5554
57.5681
57.5795
57.5895
57.5978
57.6041
57.6082
57.61
57.6091
57.6054
57.5988
57.5892
57.5767
57.5657
57.5583
57.5505
57.5422
57.5334
57.5243
57.5146
58.9928
58.9928
57.5146
57.5243
57.5334
57.5422
57.5505
57.5583
57.5657
57.5767
57.5892
57.5988
57.6054
57.6091
57.61
57.6082
57.6041
57.5978
57.5895
57.5795
57.5681
57.5554
57.5418
57.5275
57.5126
57.4975
57.4824
57.4673
57.4526
57.4383
57.4247
57.4119
57.4
57.3892
57.3795
57.371
57.3638
57.3579
57.3535
57.3506
57.3491
55.7401
55.7414
55.744
55.7479
55.7531
55.7594
55.7669
55.7755
55.785
55.7955
55.8067
55.8185
55.8308
55.8436
55.8565
55.8694
55.8821
55.8945
55.9064
55.9174
55.9275
55.9363
55.9437
55.9493
55.9531
55.9548
55.9541
55.9509
55.9451
55.9367
55.9254
55.9115
55.8995
55.8917
55.8834
55.8746
55.8654
55.8559
55.8458
57.3565
57.3565
55.8458
55.8559
55.8654
55.8746
55.8834
55.8917
55.8995
55.9115
55.9254
55.9367
55.9451
55.9509
55.9541
55.9548
55.9531
55.9493
55.9437
55.9363
55.9275
55.9174
55.9064
55.8945
55.8821
55.8694
55.8565
55.8436
55.8308
55.8185
55.8067
55.7955
55.785
55.7755
55.7669
55.7594
55.7531
55.7479
55.744
55.7414
55.7401
54.1297
54.1309
54.1332
54.1366
54.1412
54.1468
54.1533
54.1608
54.1692
54.1782
54.1879
54.1981
54.2087
54.2196
54.2305
54.2414
54.252
54.2622
54.2717
54.2804
54.2881
54.2945
54.2995
54.3028
54.3042
54.3036
54.3007
54.2954
54.2876
54.2773
54.2643
54.2488
54.2358
54.2273
54.2185
54.2092
54.1995
54.1894