/*--------------------------------*- C++ -*----------------------------------*\
  =========                 |
  \\      /  F ield         | OpenFOAM: The Open Source CFD Toolbox
   \\    /   O peration     | Website:  https://openfoam.org
    \\  /    A nd           | Version:  10
     \\/     M anipulation  |
\*---------------------------------------------------------------------------*/
FoamFile
{
    format      ascii;
    class       surfaceScalarField;
    location    "13300";
    object      phi;
}
// * * * * * * * * * * * * * * * * * * * * * * * * * * * * * * * * * * * * * //

dimensions      [0 3 -1 0 0 0 0];

internalField   nonuniform List<scalar> 
12640
(
-1.66509e-08
1.66509e-08
-3.34583e-08
1.68075e-08
-5.0586e-08
1.71276e-08
-6.8212e-08
1.7626e-08
-8.65385e-08
1.83265e-08
-1.05804e-07
1.92653e-08
-1.26299e-07
2.04956e-08
-1.48395e-07
2.20955e-08
-1.72577e-07
2.41817e-08
-1.9951e-07
2.69337e-08
-2.3015e-07
3.06394e-08
-2.65936e-07
3.5786e-08
-3.09196e-07
4.32603e-08
-3.64023e-07
5.48274e-08
-4.38318e-07
7.42949e-08
-5.45454e-07
1.07136e-07
-5.64123e-07
1.86692e-08
-3.63734e-06
3.07322e-06
-4.12362e-06
4.86275e-07
-3.99078e-06
-1.32834e-07
-4.07326e-06
8.24784e-08
-4.56731e-06
4.94045e-07
-4.54715e-06
-2.01617e-08
-4.32797e-06
-2.19173e-07
-4.23757e-06
-9.04009e-08
-4.12517e-06
-1.12404e-07
-4.05722e-06
-6.79488e-08
-3.96607e-06
-9.11466e-08
-3.89197e-06
-7.41035e-08
-3.79344e-06
-9.85314e-08
-3.6955e-06
-9.79336e-08
-3.53582e-06
-1.59684e-07
-3.39707e-06
-1.38747e-07
-3.19961e-06
-1.97462e-07
-2.92288e-06
-2.76735e-07
-2.54582e-06
-3.7706e-07
-2.05426e-06
-4.91556e-07
-1.44904e-06
-6.05221e-07
-7.50825e-07
-6.98213e-07
-4.52724e-18
-7.50825e-07
7.50825e-07
-7.50825e-07
1.44904e-06
-6.98213e-07
2.05426e-06
-6.05221e-07
2.54582e-06
-4.91556e-07
2.92288e-06
-3.7706e-07
3.19961e-06
-2.76735e-07
3.39707e-06
-1.97462e-07
3.53582e-06
-1.38747e-07
3.6955e-06
-1.59684e-07
3.79344e-06
-9.79336e-08
3.89197e-06
-9.85314e-08
3.96607e-06
-7.41035e-08
4.05722e-06
-9.11466e-08
4.12517e-06
-6.79488e-08
4.23757e-06
-1.12404e-07
4.32797e-06
-9.04009e-08
4.54715e-06
-2.19173e-07
4.56731e-06
-2.01617e-08
4.07326e-06
4.94045e-07
3.99078e-06
8.24784e-08
4.12362e-06
-1.32834e-07
3.63734e-06
4.86275e-07
5.64123e-07
3.07322e-06
5.45454e-07
1.86692e-08
4.38318e-07
1.07136e-07
3.64023e-07
7.42949e-08
3.09196e-07
5.48274e-08
2.65936e-07
4.32603e-08
2.3015e-07
3.5786e-08
1.9951e-07
3.06394e-08
1.72577e-07
2.69337e-08
1.48395e-07
2.41817e-08
1.26299e-07
2.20955e-08
1.05804e-07
2.04956e-08
8.65385e-08
1.92653e-08
6.8212e-08
1.83265e-08
5.0586e-08
1.7626e-08
3.34583e-08
1.71276e-08
1.66509e-08
1.68075e-08
1.66509e-08
-1.82556e-08
3.49065e-08
-3.66827e-08
3.52346e-08
-5.54603e-08
3.59052e-08
-7.47833e-08
3.69491e-08
-9.4873e-08
3.84162e-08
-1.1599e-07
4.03822e-08
-1.38452e-07
4.29581e-08
-1.62664e-07
4.63072e-08
-1.89156e-07
5.06731e-08
-2.18652e-07
5.643e-08
-2.52189e-07
6.4177e-08
-2.9133e-07
7.49264e-08
-3.38584e-07
9.05148e-08
-3.98345e-07
1.14588e-07
-4.79198e-07
1.55148e-07
-6.02471e-07
2.30409e-07
-9.64309e-07
3.80507e-07
-4.84525e-07
2.59344e-06
-3.09475e-06
3.0965e-06
-4.06771e-06
8.40124e-07
-4.24164e-06
2.56406e-07
-4.8395e-06
1.09191e-06
-4.82393e-06
-3.57385e-08
-4.58793e-06
-4.55175e-07
-4.50722e-06
-1.71103e-07
-4.39043e-06
-2.29197e-07
-4.32585e-06
-1.32529e-07
-4.23037e-06
-1.86631e-07
-4.15618e-06
-1.48287e-07
-4.05217e-06
-2.02546e-07
-3.95242e-06
-1.97679e-07
-3.79021e-06
-3.21898e-07
-3.64642e-06
-2.8254e-07
-3.44053e-06
-4.03352e-07
-3.14981e-06
-5.67445e-07
-2.75002e-06
-7.76858e-07
-2.2241e-06
-1.01747e-06
-1.57188e-06
-1.25744e-06
-8.15517e-07
-1.45457e-06
-2.6563e-18
-1.56634e-06
8.15517e-07
-1.56634e-06
1.57188e-06
-1.45457e-06
2.2241e-06
-1.25744e-06
2.75002e-06
-1.01747e-06
3.14981e-06
-7.76858e-07
3.44053e-06
-5.67445e-07
3.64642e-06
-4.03352e-07
3.79021e-06
-2.8254e-07
3.95242e-06
-3.21898e-07
4.05217e-06
-1.97679e-07
4.15618e-06
-2.02546e-07
4.23037e-06
-1.48287e-07
4.32585e-06
-1.86631e-07
4.39043e-06
-1.32529e-07
4.50722e-06
-2.29197e-07
4.58793e-06
-1.71103e-07
4.82393e-06
-4.55175e-07
4.8395e-06
-3.57385e-08
4.24164e-06
1.09191e-06
4.06771e-06
2.56406e-07
3.09475e-06
8.40124e-07
4.84525e-07
3.0965e-06
9.64309e-07
2.59344e-06
6.02471e-07
3.80507e-07
4.79198e-07
2.30409e-07
3.98345e-07
1.55148e-07
3.38584e-07
1.14588e-07
2.9133e-07
9.05148e-08
2.52189e-07
7.49264e-08
2.18652e-07
6.4177e-08
1.89156e-07
5.643e-08
1.62664e-07
5.06731e-08
1.38452e-07
4.63072e-08
1.1599e-07
4.29581e-08
9.4873e-08
4.03822e-08
7.47833e-08
3.84162e-08
5.54603e-08
3.69491e-08
3.66827e-08
3.59052e-08
1.82556e-08
3.52346e-08
3.49065e-08
-2.00045e-08
5.4911e-08
-4.01962e-08
5.54263e-08
-6.07706e-08
5.64796e-08
-8.19404e-08
5.81189e-08
-1.03947e-07
6.04225e-08
-1.27073e-07
6.35088e-08
-1.51667e-07
6.75514e-08
-1.78165e-07
7.28052e-08
-2.07141e-07
7.965e-08
-2.3938e-07
8.86685e-08
-2.75993e-07
1.0079e-07
-3.18647e-07
1.1758e-07
-3.69992e-07
1.4186e-07
-4.34596e-07
1.79193e-07
-5.21295e-07
2.41846e-07
-6.52226e-07
3.61341e-07
-9.31189e-07
6.59469e-07
-6.79565e-07
2.34181e-06
-3.98518e-07
2.81546e-06
-1.65425e-06
2.09585e-06
-4.24551e-06
2.84766e-06
-5.15429e-06
2.00069e-06
-5.15117e-06
-3.88538e-08
-4.88144e-06
-7.24913e-07
-4.82682e-06
-2.25713e-07
-4.70027e-06
-3.5575e-07
-4.6447e-06
-1.881e-07
-4.54054e-06
-2.90789e-07
-4.4689e-06
-2.19928e-07
-4.35585e-06
-3.156e-07
-4.25759e-06
-2.95932e-07
-4.1019e-06
-4.77593e-07
-3.95763e-06
-4.26805e-07
-3.74877e-06
-6.12216e-07
-3.44908e-06
-8.67139e-07
-3.02783e-06
-1.19811e-06
-2.46171e-06
-1.5836e-06
-1.74765e-06
-1.97151e-06
-9.09385e-07
-2.29283e-06
5.35887e-19
-2.47573e-06
9.09385e-07
-2.47573e-06
1.74765e-06
-2.29283e-06
2.46171e-06
-1.97151e-06
3.02783e-06
-1.5836e-06
3.44908e-06
-1.19811e-06
3.74877e-06
-8.67139e-07
3.95763e-06
-6.12216e-07
4.1019e-06
-4.26805e-07
4.25759e-06
-4.77593e-07
4.35585e-06
-2.95932e-07
4.4689e-06
-3.156e-07
4.54054e-06
-2.19928e-07
4.6447e-06
-2.90789e-07
4.70027e-06
-1.881e-07
4.82682e-06
-3.5575e-07
4.88144e-06
-2.25713e-07
5.15117e-06
-7.24913e-07
5.15429e-06
-3.88538e-08
4.24551e-06
2.00069e-06
1.65425e-06
2.84766e-06
3.98518e-07
2.09585e-06
6.79565e-07
2.81546e-06
9.31189e-07
2.34181e-06
6.52226e-07
6.59469e-07
5.21295e-07
3.61341e-07
4.34596e-07
2.41846e-07
3.69992e-07
1.79193e-07
3.18647e-07
1.4186e-07
2.75993e-07
1.1758e-07
2.3938e-07
1.0079e-07
2.07141e-07
8.86685e-08
1.78165e-07
7.965e-08
1.51667e-07
7.28052e-08
1.27073e-07
6.75514e-08
1.03947e-07
6.35088e-08
8.19404e-08
6.04225e-08
6.07706e-08
5.81189e-08
4.01962e-08
5.64796e-08
2.00045e-08
5.54263e-08
5.4911e-08
-2.1906e-08
7.68169e-08
-4.40157e-08
7.7536e-08
-6.65419e-08
7.90058e-08
-8.97158e-08
8.12928e-08
-1.13799e-07
8.45058e-08
-1.39099e-07
8.88089e-08
-1.6599e-07
9.44426e-08
-1.94945e-07
1.01759e-07
-2.26578e-07
1.11283e-07
-2.61724e-07
1.23815e-07
-3.01562e-07
1.40628e-07
-3.4783e-07
1.63848e-07
-4.03249e-07
1.97278e-07
-4.72368e-07
2.48312e-07
-5.63552e-07
3.3303e-07
-6.94877e-07
4.92666e-07
-9.05666e-07
8.70258e-07
-7.12794e-07
2.14894e-06
-5.0621e-07
2.60887e-06
-6.72081e-07
2.26172e-06
-5.68664e-07
2.74425e-06
-5.06686e-06
6.49889e-06
-5.43124e-06
3.25531e-07
-5.1567e-06
-9.99452e-07
-5.17575e-06
-2.06665e-07
-5.03509e-06
-4.9641e-07
-5.00265e-06
-2.20541e-07
-4.8839e-06
-4.09542e-07
-4.82172e-06
-2.82104e-07
-4.69434e-06
-4.42976e-07
-4.60392e-06
-3.86351e-07
-4.4704e-06
-6.11117e-07
-4.33357e-06
-5.6363e-07
-4.13243e-06
-8.13361e-07
-3.83538e-06
-1.16419e-06
-3.39964e-06
-1.63385e-06
-2.78959e-06
-2.19364e-06
-1.99622e-06
-2.76487e-06
-1.04406e-06
-3.24499e-06
3.97788e-18
-3.51979e-06
1.04406e-06
-3.51979e-06
1.99622e-06
-3.24499e-06
2.78959e-06
-2.76487e-06
3.39964e-06
-2.19364e-06
3.83538e-06
-1.63385e-06
4.13243e-06
-1.16419e-06
4.33357e-06
-8.13361e-07
4.4704e-06
-5.6363e-07
4.60392e-06
-6.11117e-07
4.69434e-06
-3.86351e-07
4.82172e-06
-4.42976e-07
4.8839e-06
-2.82104e-07
5.00265e-06
-4.09542e-07
5.03509e-06
-2.20541e-07
5.17575e-06
-4.9641e-07
5.1567e-06
-2.06665e-07
5.43124e-06
-9.99452e-07
5.06686e-06
3.25531e-07
5.68664e-07
6.49889e-06
6.72081e-07
2.74425e-06
5.0621e-07
2.26172e-06
7.12794e-07
2.60887e-06
9.05666e-07
2.14894e-06
6.94877e-07
8.70258e-07
5.63552e-07
4.92666e-07
4.72368e-07
3.3303e-07
4.03249e-07
2.48312e-07
3.4783e-07
1.97278e-07
3.01562e-07
1.63848e-07
2.61724e-07
1.40628e-07
2.26578e-07
1.23815e-07
1.94945e-07
1.11283e-07
1.6599e-07
1.01759e-07
1.39099e-07
9.44426e-08
1.13799e-07
8.88089e-08
8.97158e-08
8.45058e-08
6.65419e-08
8.12928e-08
4.40157e-08
7.90058e-08
2.1906e-08
7.7536e-08
7.68169e-08
-2.39675e-08
1.00784e-07
-4.8156e-08
1.01724e-07
-7.27957e-08
1.03645e-07
-9.81368e-08
1.06634e-07
-1.24462e-07
1.10831e-07
-1.52101e-07
1.16449e-07
-1.81457e-07
1.23798e-07
-2.13032e-07
1.33334e-07
-2.47479e-07
1.4573e-07
-2.85675e-07
1.62011e-07
-3.2884e-07
1.83792e-07
-3.78743e-07
2.13752e-07
-4.38072e-07
2.56607e-07
-5.11097e-07
3.21336e-07
-6.04912e-07
4.26846e-07
-7.30923e-07
6.18677e-07
-8.87579e-07
1.02691e-06
-7.43762e-07
2.00512e-06
-5.83942e-07
2.44905e-06
-6.97265e-07
2.37505e-06
-9.04306e-07
2.95129e-06
2.69486e-07
5.32509e-06
-2.44532e-06
3.04034e-06
-5.06442e-06
1.61965e-06
-5.49064e-06
2.19547e-07
-5.3622e-06
-6.24847e-07
-5.39246e-06
-1.90278e-07
-5.25075e-06
-5.51251e-07
-5.21442e-06
-3.18438e-07
-5.06286e-06
-5.9454e-07
-4.99085e-06
-4.58353e-07
-4.90436e-06
-6.9761e-07
-4.78608e-06
-6.81917e-07
-4.61095e-06
-9.88482e-07
-4.33941e-06
-1.43573e-06
-3.90593e-06
-2.06734e-06
-3.25143e-06
-2.84814e-06
-2.35635e-06
-3.65996e-06
-1.24216e-06
-4.35918e-06
2.99485e-18
-4.76195e-06
1.24216e-06
-4.76195e-06
2.35635e-06
-4.35918e-06
3.25143e-06
-3.65996e-06
3.90593e-06
-2.84814e-06
4.33941e-06
-2.06734e-06
4.61095e-06
-1.43573e-06
4.78608e-06
-9.88482e-07
4.90436e-06
-6.81917e-07
4.99085e-06
-6.9761e-07
5.06286e-06
-4.58353e-07
5.21442e-06
-5.9454e-07
5.25075e-06
-3.18438e-07
5.39246e-06
-5.51251e-07
5.3622e-06
-1.90278e-07
5.49064e-06
-6.24847e-07
5.06442e-06
2.19547e-07
2.44532e-06
1.61965e-06
-2.69486e-07
3.04034e-06
9.04306e-07
5.32509e-06
6.97265e-07
2.95129e-06
5.83942e-07
2.37505e-06
7.43762e-07
2.44905e-06
8.87579e-07
2.00512e-06
7.30923e-07
1.02691e-06
6.04912e-07
6.18677e-07
5.11097e-07
4.26846e-07
4.38072e-07
3.21336e-07
3.78743e-07
2.56607e-07
3.2884e-07
2.13752e-07
2.85675e-07
1.83792e-07
2.47479e-07
1.62011e-07
2.13032e-07
1.4573e-07
1.81457e-07
1.33334e-07
1.52101e-07
1.23798e-07
1.24462e-07
1.16449e-07
9.81368e-08
1.10831e-07
7.27957e-08
1.06634e-07
4.8156e-08
1.03645e-07
2.39675e-08
1.01724e-07
1.00784e-07
-2.61946e-08
1.26979e-07
-5.26275e-08
1.28157e-07
-7.95467e-08
1.30565e-07
-1.07221e-07
1.34308e-07
-1.35954e-07
1.39563e-07
-1.66097e-07
1.46592e-07
-1.98078e-07
1.55779e-07
-2.32426e-07
1.67682e-07
-2.69821e-07
1.83126e-07
-3.11168e-07
2.03357e-07
-3.57698e-07
2.30322e-07
-4.1115e-07
2.67205e-07
-4.74046e-07
3.19503e-07
-5.50083e-07
3.97373e-07
-6.44392e-07
5.21154e-07
-7.61066e-07
7.35351e-07
-8.76167e-07
1.14202e-06
-7.71596e-07
1.90055e-06
-6.47848e-07
2.32531e-06
-7.0743e-07
2.43463e-06
-7.55625e-07
2.99948e-06
1.29711e-07
4.43976e-06
1.20325e-07
3.04972e-06
-4.15437e-07
2.15541e-06
-4.00707e-06
3.81118e-06
-5.36935e-06
7.37429e-07
-5.75062e-06
1.90991e-07
-5.60759e-06
-6.94284e-07
-5.64529e-06
-2.80737e-07
-5.45191e-06
-7.87913e-07
-5.41708e-06
-4.93185e-07
-5.41721e-06
-6.97481e-07
-5.32895e-06
-7.70175e-07
-5.21037e-06
-1.10706e-06
-5.00914e-06
-1.63696e-06
-4.61497e-06
-2.4615e-06
-3.92264e-06
-3.54047e-06
-2.89841e-06
-4.68419e-06
-1.54492e-06
-5.71268e-06
-3.68806e-18
-6.30686e-06
1.54492e-06
-6.30686e-06
2.89841e-06
-5.71268e-06
3.92264e-06
-4.68419e-06
4.61497e-06
-3.54047e-06
5.00914e-06
-2.4615e-06
5.21037e-06
-1.63696e-06
5.32895e-06
-1.10706e-06
5.41721e-06
-7.70175e-07
5.41708e-06
-6.97481e-07
5.45191e-06
-4.93185e-07
5.64529e-06
-7.87913e-07
5.60759e-06
-2.80737e-07
5.75062e-06
-6.94284e-07
5.36935e-06
1.90991e-07
4.00707e-06
7.37429e-07
4.15437e-07
3.81118e-06
-1.20325e-07
2.15541e-06
-1.29711e-07
3.04972e-06
7.55625e-07
4.43976e-06
7.0743e-07
2.99948e-06
6.47848e-07
2.43463e-06
7.71596e-07
2.32531e-06
8.76167e-07
1.90055e-06
7.61066e-07
1.14202e-06
6.44392e-07
7.35351e-07
5.50083e-07
5.21154e-07
4.74046e-07
3.97373e-07
4.1115e-07
3.19503e-07
3.57698e-07
2.67205e-07
3.11168e-07
2.30322e-07
2.69821e-07
2.03357e-07
2.32426e-07
1.83126e-07
1.98078e-07
1.67682e-07
1.66097e-07
1.55779e-07
1.35954e-07
1.46592e-07
1.07221e-07
1.39563e-07
7.95467e-08
1.34308e-07
5.26275e-08
1.30565e-07
2.61946e-08
1.28157e-07
1.26979e-07
-2.85899e-08
1.55569e-07
-5.74349e-08
1.57002e-07
-8.68006e-08
1.5993e-07
-1.16974e-07
1.64481e-07
-1.48276e-07
1.70865e-07
-1.8108e-07
1.79396e-07
-2.15832e-07
1.90531e-07
-2.53081e-07
2.04932e-07
-2.93525e-07
2.2357e-07
-3.38068e-07
2.479e-07
-3.87916e-07
2.8017e-07
-4.44699e-07
3.23987e-07
-5.10623e-07
3.85427e-07
-5.88525e-07
4.75275e-07
-6.8114e-07
6.13769e-07
-7.86069e-07
8.4028e-07
-8.70186e-07
1.22613e-06
-7.95452e-07
1.82582e-06
-6.97487e-07
2.22734e-06
-7.083e-07
2.44544e-06
-6.56351e-07
2.94753e-06
-2.41514e-08
3.80756e-06
2.49035e-08
3.00067e-06
-2.56789e-07
2.43711e-06
3.66027e-07
3.18837e-06
-5.12731e-07
1.61619e-06
-4.08452e-06
3.76278e-06
-5.54111e-06
7.62308e-07
-6.02535e-06
2.03503e-07
-5.81284e-06
-1.00042e-06
-5.86741e-06
-4.38612e-07
-6.02504e-06
-5.39853e-07
-5.96508e-06
-8.3014e-07
-5.95517e-06
-1.11697e-06
-5.91622e-06
-1.67592e-06
-5.64363e-06
-2.73409e-06
-4.9339e-06
-4.25021e-06
-3.75672e-06
-5.86136e-06
-2.0302e-06
-7.4392e-06
6.4198e-18
-8.33706e-06
2.0302e-06
-8.33706e-06
3.75672e-06
-7.4392e-06
4.9339e-06
-5.86136e-06
5.64363e-06
-4.25021e-06
5.91622e-06
-2.73409e-06
5.95517e-06
-1.67592e-06
5.96508e-06
-1.11697e-06
6.02504e-06
-8.3014e-07
5.86741e-06
-5.39853e-07
5.81284e-06
-4.38612e-07
6.02535e-06
-1.00042e-06
5.54111e-06
2.03503e-07
4.08452e-06
7.62308e-07
5.12731e-07
3.76278e-06
-3.66027e-07
1.61619e-06
2.56789e-07
3.18837e-06
-2.49035e-08
2.43711e-06
2.41514e-08
3.00067e-06
6.56351e-07
3.80756e-06
7.083e-07
2.94753e-06
6.97487e-07
2.44544e-06
7.95452e-07
2.22734e-06
8.70186e-07
1.82582e-06
7.86069e-07
1.22613e-06
6.8114e-07
8.4028e-07
5.88525e-07
6.13769e-07
5.10623e-07
4.75275e-07
4.44699e-07
3.85427e-07
3.87916e-07
3.23987e-07
3.38068e-07
2.8017e-07
2.93525e-07
2.479e-07
2.53081e-07
2.2357e-07
2.15832e-07
2.04932e-07
1.8108e-07
1.90531e-07
1.48276e-07
1.79396e-07
1.16974e-07
1.70865e-07
8.68006e-08
1.64481e-07
5.74349e-08
1.5993e-07
2.85899e-08
1.57002e-07
1.55569e-07
-3.11517e-08
1.86721e-07
-6.25744e-08
1.88425e-07
-9.45495e-08
1.91905e-07
-1.2738e-07
1.97312e-07
-1.61404e-07
2.04889e-07
-1.97009e-07
2.15001e-07
-2.34655e-07
2.28177e-07
-2.74901e-07
2.45178e-07
-3.18441e-07
2.6711e-07
-3.66154e-07
2.95613e-07
-4.19165e-07
3.33181e-07
-4.78907e-07
3.8373e-07
-5.47123e-07
4.53643e-07
-6.25561e-07
5.53714e-07
-7.14467e-07
7.02674e-07
-8.06604e-07
9.32418e-07
-8.68068e-07
1.2876e-06
-8.14639e-07
1.77239e-06
-7.33607e-07
2.14631e-06
-7.04564e-07
2.4164e-06
-5.96031e-07
2.839e-06
-1.42708e-07
3.35423e-06
-5.38566e-08
2.91182e-06
-1.73447e-07
2.5567e-06
1.75023e-07
2.8399e-06
-2.72995e-07
2.06421e-06
4.80144e-07
3.00964e-06
-2.52096e-07
1.49455e-06
-2.44266e-06
2.39407e-06
-5.42989e-06
1.98681e-06
-6.11297e-06
2.4446e-07
-6.68853e-06
3.57129e-08
-6.6088e-06
-9.09869e-07
-6.82136e-06
-9.04407e-07
-7.15631e-06
-1.34097e-06
-7.20122e-06
-2.68918e-06
-6.50624e-06
-4.94519e-06
-5.21133e-06
-7.15627e-06
-2.84998e-06
-9.80055e-06
1.45991e-17
-1.1187e-05
2.84998e-06
-1.1187e-05
5.21133e-06
-9.80055e-06
6.50624e-06
-7.15627e-06
7.20122e-06
-4.94519e-06
7.15631e-06
-2.68918e-06
6.82136e-06
-1.34097e-06
6.6088e-06
-9.04407e-07
6.68853e-06
-9.09869e-07
6.11297e-06
3.57129e-08
5.42989e-06
2.4446e-07
2.44266e-06
1.98681e-06
2.52096e-07
2.39407e-06
-4.80144e-07
1.49455e-06
2.72995e-07
3.00964e-06
-1.75023e-07
2.06421e-06
1.73447e-07
2.8399e-06
5.38566e-08
2.5567e-06
1.42708e-07
2.91182e-06
5.96031e-07
3.35423e-06
7.04564e-07
2.839e-06
7.33607e-07
2.4164e-06
8.14639e-07
2.14631e-06
8.68068e-07
1.77239e-06
8.06604e-07
1.2876e-06
7.14467e-07
9.32418e-07
6.25561e-07
7.02674e-07
5.47123e-07
5.53714e-07
4.78907e-07
4.53643e-07
4.19165e-07
3.8373e-07
3.66154e-07
3.33181e-07
3.18441e-07
2.95613e-07
2.74901e-07
2.6711e-07
2.34655e-07
2.45178e-07
1.97009e-07
2.28177e-07
1.61404e-07
2.15001e-07
1.2738e-07
2.04889e-07
9.45495e-08
1.97312e-07
6.25744e-08
1.91905e-07
3.11517e-08
1.88425e-07
1.86721e-07
-3.38726e-08
2.20593e-07
-6.80301e-08
2.22583e-07
-1.02767e-07
2.26643e-07
-1.38401e-07
2.32946e-07
-1.7528e-07
2.41768e-07
-2.13801e-07
2.53523e-07
-2.5443e-07
2.68805e-07
-2.97718e-07
2.88466e-07
-3.44335e-07
3.13727e-07
-3.95097e-07
3.46375e-07
-4.50992e-07
3.89076e-07
-5.13163e-07
4.45901e-07
-5.82758e-07
5.23238e-07
-6.6032e-07
6.31276e-07
-7.43836e-07
7.8619e-07
-8.2316e-07
1.01174e-06
-8.68117e-07
1.33255e-06
-8.28726e-07
1.733e-06
-7.57839e-07
2.07542e-06
-6.99557e-07
2.35812e-06
-5.64465e-07
2.70391e-06
-2.33185e-07
3.02295e-06
-1.20605e-07
2.79924e-06
-1.4117e-07
2.57726e-06
5.75622e-08
2.64117e-06
-1.35609e-07
2.25738e-06
2.64108e-07
2.60992e-06
-9.79163e-08
1.85657e-06
9.60362e-08
2.20012e-06
1.51605e-07
1.93124e-06
-8.4523e-07
1.2413e-06
-5.02401e-06
4.2145e-06
-6.0987e-06
1.64818e-07
-7.10338e-06
1.00275e-07
-8.51845e-06
7.41027e-08
-9.5594e-06
-1.64823e-06
-8.88343e-06
-5.62116e-06
-7.92164e-06
-8.11806e-06
-4.29099e-06
-1.34312e-05
-6.31277e-17
-1.5478e-05
4.29099e-06
-1.5478e-05
7.92164e-06
-1.34312e-05
8.88343e-06
-8.11806e-06
9.5594e-06
-5.62116e-06
8.51845e-06
-1.64823e-06
7.10338e-06
7.41027e-08
6.0987e-06
1.00275e-07
5.02401e-06
1.64818e-07
8.4523e-07
4.2145e-06
-1.51605e-07
1.2413e-06
-9.60362e-08
1.93124e-06
9.79163e-08
2.20012e-06
-2.64108e-07
1.85657e-06
1.35609e-07
2.60992e-06
-5.75622e-08
2.25738e-06
1.4117e-07
2.64117e-06
1.20605e-07
2.57726e-06
2.33185e-07
2.79924e-06
5.64465e-07
3.02295e-06
6.99557e-07
2.70391e-06
7.57839e-07
2.35812e-06
8.28726e-07
2.07542e-06
8.68117e-07
1.733e-06
8.2316e-07
1.33255e-06
7.43836e-07
1.01174e-06
6.6032e-07
7.8619e-07
5.82758e-07
6.31276e-07
5.13163e-07
5.23238e-07
4.50992e-07
4.45901e-07
3.95097e-07
3.89076e-07
3.44335e-07
3.46375e-07
2.97718e-07
3.13727e-07
2.5443e-07
2.88466e-07
2.13801e-07
2.68805e-07
1.7528e-07
2.53523e-07
1.38401e-07
2.41768e-07
1.02767e-07
2.32946e-07
6.80301e-08
2.26643e-07
3.38726e-08
2.22583e-07
2.20593e-07
-3.67376e-08
2.57331e-07
-7.37707e-08
2.59616e-07
-1.11404e-07
2.64276e-07
-1.49962e-07
2.71504e-07
-1.89801e-07
2.81606e-07
-2.31317e-07
2.95039e-07
-2.74967e-07
3.12455e-07
-3.21279e-07
3.34778e-07
-3.7087e-07
3.63318e-07
-4.24451e-07
3.99957e-07
-4.82813e-07
4.47438e-07
-5.46729e-07
5.09817e-07
-6.16663e-07
5.93171e-07
-6.91963e-07
7.06576e-07
-7.68841e-07
8.63068e-07
-8.35989e-07
1.07889e-06
-8.68698e-07
1.36526e-06
-8.37588e-07
1.70189e-06
-7.72287e-07
2.01012e-06
-6.9521e-07
2.28104e-06
-5.52613e-07
2.56131e-06
-3.02397e-07
2.77274e-06
-1.78554e-07
2.6754e-06
-1.41517e-07
2.54022e-06
-1.68665e-08
2.51651e-06
-7.52505e-08
2.31576e-06
1.32642e-07
2.40203e-06
-3.57835e-08
2.025e-06
4.92863e-08
2.11505e-06
2.24712e-08
1.95806e-06
-4.95032e-07
1.7588e-06
7.22456e-07
2.99701e-06
1.77912e-07
7.09362e-07
-3.87476e-07
6.65663e-07
-1.28418e-06
9.7081e-07
-4.02262e-06
1.0902e-06
-9.78214e-06
1.38368e-07
-1.32403e-05
-4.65989e-06
-6.61541e-06
-2.00561e-05
-1.08027e-16
-2.20934e-05
6.61541e-06
-2.20934e-05
1.32403e-05
-2.00561e-05
9.78214e-06
-4.65989e-06
4.02262e-06
1.38368e-07
1.28418e-06
1.0902e-06
3.87476e-07
9.7081e-07
-1.77912e-07
6.65663e-07
-7.22456e-07
7.09362e-07
4.95032e-07
2.99701e-06
-2.24712e-08
1.7588e-06
-4.92863e-08
1.95806e-06
3.57835e-08
2.11505e-06
-1.32642e-07
2.025e-06
7.52505e-08
2.40203e-06
1.68665e-08
2.31576e-06
1.41517e-07
2.51651e-06
1.78554e-07
2.54022e-06
3.02397e-07
2.6754e-06
5.52613e-07
2.77274e-06
6.9521e-07
2.56131e-06
7.72287e-07
2.28104e-06
8.37588e-07
2.01012e-06
8.68698e-07
1.70189e-06
8.35989e-07
1.36526e-06
7.68841e-07
1.07889e-06
6.91963e-07
8.63068e-07
6.16663e-07
7.06576e-07
5.46729e-07
5.93171e-07
4.82813e-07
5.09817e-07
4.24451e-07
4.47438e-07
3.7087e-07
3.99957e-07
3.21279e-07
3.63318e-07
2.74967e-07
3.34778e-07
2.31317e-07
3.12455e-07
1.89801e-07
2.95039e-07
1.49962e-07
2.81606e-07
1.11404e-07
2.71504e-07
7.37707e-08
2.64276e-07
3.67376e-08
2.59616e-07
2.57331e-07
-3.97218e-08
2.97053e-07
-7.97447e-08
2.99639e-07
-1.20378e-07
3.0491e-07
-1.61949e-07
3.13075e-07
-2.0481e-07
3.24466e-07
-2.49347e-07
3.39577e-07
-2.95993e-07
3.59101e-07
-3.4523e-07
3.84015e-07
-3.97591e-07
4.15679e-07
-4.53642e-07
4.56008e-07
-5.13919e-07
5.07715e-07
-5.78763e-07
5.74662e-07
-6.47932e-07
6.6234e-07
-7.19718e-07
7.78362e-07
-7.89162e-07
9.32511e-07
-8.45118e-07
1.13485e-06
-8.68393e-07
1.38854e-06
-8.4139e-07
1.67488e-06
-7.79123e-07
1.94785e-06
-6.92239e-07
2.19416e-06
-5.531e-07
2.42217e-06
-3.56088e-07
2.57573e-06
-2.29741e-07
2.54905e-06
-1.61165e-07
2.47165e-06
-6.88436e-08
2.42419e-06
-6.09032e-08
2.30782e-06
5.09353e-08
2.29019e-06
-1.66655e-08
2.0926e-06
1.46886e-08
2.08369e-06
-2.53215e-08
1.99807e-06
-2.32453e-07
1.96593e-06
3.05963e-07
2.45859e-06
1.3966e-07
8.75665e-07
-3.21254e-08
8.37449e-07
4.93672e-08
8.89317e-07
2.5565e-07
8.83921e-07
-3.25454e-07
7.19472e-07
-4.57112e-06
-4.14227e-07
-5.99977e-06
-1.86274e-05
-3.88347e-17
-2.80932e-05
5.99977e-06
-2.80932e-05
4.57112e-06
-1.86274e-05
3.25454e-07
-4.14227e-07
-2.5565e-07
7.19472e-07
-4.93672e-08
8.83921e-07
3.21254e-08
8.89317e-07
-1.3966e-07
8.37449e-07
-3.05963e-07
8.75665e-07
2.32453e-07
2.45859e-06
2.53215e-08
1.96593e-06
-1.46886e-08
1.99807e-06
1.66655e-08
2.08369e-06
-5.09353e-08
2.0926e-06
6.09032e-08
2.29019e-06
6.88436e-08
2.30782e-06
1.61165e-07
2.42419e-06
2.29741e-07
2.47165e-06
3.56088e-07
2.54905e-06
5.531e-07
2.57573e-06
6.92239e-07
2.42217e-06
7.79123e-07
2.19416e-06
8.4139e-07
1.94785e-06
8.68393e-07
1.67488e-06
8.45118e-07
1.38854e-06
7.89162e-07
1.13485e-06
7.19718e-07
9.32511e-07
6.47932e-07
7.78362e-07
5.78763e-07
6.6234e-07
5.13919e-07
5.74662e-07
4.53642e-07
5.07715e-07
3.97591e-07
4.56008e-07
3.4523e-07
4.15679e-07
2.95993e-07
3.84015e-07
2.49347e-07
3.59101e-07
2.0481e-07
3.39577e-07
1.61949e-07
3.24466e-07
1.20378e-07
3.13075e-07
7.97447e-08
3.0491e-07
3.97218e-08
2.99639e-07
2.97053e-07
-4.27877e-08
3.3984e-07
-8.58756e-08
3.42727e-07
-1.29571e-07
3.48605e-07
-1.74193e-07
3.57697e-07
-2.20082e-07
3.70355e-07
-2.67599e-07
3.87094e-07
-3.17136e-07
4.08638e-07
-3.69104e-07
4.35982e-07
-4.23921e-07
4.70496e-07
-4.81967e-07
5.14054e-07
-5.43482e-07
5.6923e-07
-6.0835e-07
6.39531e-07
-6.75666e-07
7.29655e-07
-7.429e-07
8.45597e-07
-8.0453e-07
9.94141e-07
-8.50411e-07
1.18073e-06
-8.66088e-07
1.40422e-06
-8.40505e-07
1.6493e-06
-7.80255e-07
1.8876e-06
-6.90476e-07
2.10438e-06
-5.60329e-07
2.29203e-06
-3.98614e-07
2.41401e-06
-2.75336e-07
2.42577e-06
-1.91086e-07
2.3874e-06
-1.10618e-07
2.34372e-06
-7.21193e-08
2.26932e-06
-3.74362e-09
2.22181e-06
-2.09653e-08
2.10982e-06
-9.72247e-09
2.07245e-06
-3.74681e-08
2.02581e-06
-1.0633e-07
2.03479e-06
1.31596e-07
2.22067e-06
9.48149e-08
9.12446e-07
4.39829e-08
8.88281e-07
4.59051e-08
8.87395e-07
4.94725e-08
8.80353e-07
-9.25986e-08
8.61543e-07
-2.31178e-07
-2.75648e-07
-1.42505e-06
-1.74336e-05
8.99582e-18
-2.95183e-05
1.42505e-06
-2.95183e-05
2.31178e-07
-1.74336e-05
9.25986e-08
-2.75648e-07
-4.94725e-08
8.61543e-07
-4.59051e-08
8.80353e-07
-4.39829e-08
8.87395e-07
-9.48149e-08
8.88281e-07
-1.31596e-07
9.12446e-07
1.0633e-07
2.22067e-06
3.74681e-08
2.03479e-06
9.72247e-09
2.02581e-06
2.09653e-08
2.07245e-06
3.74362e-09
2.10982e-06
7.21193e-08
2.22181e-06
1.10618e-07
2.26932e-06
1.91086e-07
2.34372e-06
2.75336e-07
2.3874e-06
3.98614e-07
2.42577e-06
5.60329e-07
2.41401e-06
6.90476e-07
2.29203e-06
7.80255e-07
2.10438e-06
8.40505e-07
1.8876e-06
8.66088e-07
1.6493e-06
8.50411e-07
1.40422e-06
8.0453e-07
1.18073e-06
7.429e-07
9.94141e-07
6.75666e-07
8.45597e-07
6.0835e-07
7.29655e-07
5.43482e-07
6.39531e-07
4.81967e-07
5.6923e-07
4.23921e-07
5.14054e-07
3.69104e-07
4.70496e-07
3.17136e-07
4.35982e-07
2.67599e-07
4.08638e-07
2.20082e-07
3.87094e-07
1.74193e-07
3.70355e-07
1.29571e-07
3.57697e-07
8.58756e-08
3.48605e-07
4.27877e-08
3.42727e-07
3.3984e-07
-4.5883e-08
3.85723e-07
-9.20569e-08
3.889e-07
-1.38817e-07
3.95365e-07
-1.86465e-07
4.05346e-07
-2.35316e-07
4.19205e-07
-2.85691e-07
4.37469e-07
-3.37918e-07
4.60865e-07
-3.92316e-07
4.9038e-07
-4.49158e-07
5.27338e-07
-5.08608e-07
5.73504e-07
-5.70589e-07
6.31211e-07
-6.34544e-07
7.03485e-07
-6.99007e-07
7.94119e-07
-7.60919e-07
9.07509e-07
-8.14709e-07
1.04793e-06
-8.5164e-07
1.21766e-06
-8.60997e-07
1.41357e-06
-8.35397e-07
1.6237e-06
-7.77128e-07
1.82934e-06
-6.89227e-07
2.01648e-06
-5.70309e-07
2.17311e-06
-4.32943e-07
2.27664e-06
-3.15922e-07
2.30875e-06
-2.25439e-07
2.29691e-06
-1.48332e-07
2.26662e-06
-9.6345e-08
2.21734e-06
-4.47528e-08
2.17022e-06
-3.65575e-08
2.10162e-06
-2.75915e-08
2.06349e-06
-3.78364e-08
2.03606e-06
-4.91649e-08
2.04612e-06
6.00819e-08
2.11142e-06
5.95948e-08
9.12933e-07
4.66146e-08
9.01261e-07
3.74114e-08
8.96598e-07
2.18486e-08
8.95916e-07
-1.77047e-08
9.01096e-07
-4.91474e-08
-2.44205e-07
-4.51274e-07
-1.70314e-05
1.69536e-17
-2.99695e-05
4.51274e-07
-2.99695e-05
4.91474e-08
-1.70314e-05
1.77047e-08
-2.44205e-07
-2.18486e-08
9.01096e-07
-3.74114e-08
8.95916e-07
-4.66146e-08
8.96598e-07
-5.95948e-08
9.01261e-07
-6.00819e-08
9.12933e-07
4.91649e-08
2.11142e-06
3.78364e-08
2.04612e-06
2.75915e-08
2.03606e-06
3.65575e-08
2.06349e-06
4.47528e-08
2.10162e-06
9.6345e-08
2.17022e-06
1.48332e-07
2.21734e-06
2.25439e-07
2.26662e-06
3.15922e-07
2.29691e-06
4.32943e-07
2.30875e-06
5.70309e-07
2.27664e-06
6.89227e-07
2.17311e-06
7.77128e-07
2.01648e-06
8.35397e-07
1.82934e-06
8.60997e-07
1.6237e-06
8.5164e-07
1.41357e-06
8.14709e-07
1.21766e-06
7.60919e-07
1.04793e-06
6.99007e-07
9.07509e-07
6.34544e-07
7.94119e-07
5.70589e-07
7.03485e-07
5.08608e-07
6.31211e-07
4.49158e-07
5.73504e-07
3.92316e-07
5.27338e-07
3.37918e-07
4.9038e-07
2.85691e-07
4.60865e-07
2.35316e-07
4.37469e-07
1.86465e-07
4.19205e-07
1.38817e-07
4.05346e-07
9.20569e-08
3.95365e-07
4.5883e-08
3.889e-07
3.85723e-07
-4.89384e-08
4.34662e-07
-9.81478e-08
4.3811e-07
-1.479e-07
4.45117e-07
-1.98468e-07
4.55914e-07
-2.50126e-07
4.70862e-07
-3.03137e-07
4.90481e-07
-3.5775e-07
5.15478e-07
-4.14165e-07
5.46795e-07
-4.7249e-07
5.85663e-07
-5.32658e-07
6.33672e-07
-5.9428e-07
6.92833e-07
-6.56411e-07
7.65617e-07
-7.1718e-07
8.54887e-07
-7.73284e-07
9.63614e-07
-8.19486e-07
1.09413e-06
-8.48558e-07
1.24673e-06
-8.52617e-07
1.41763e-06
-8.26498e-07
1.59758e-06
-7.70662e-07
1.7735e-06
-6.87572e-07
1.93339e-06
-5.80323e-07
2.06586e-06
-4.60845e-07
2.15717e-06
-3.51679e-07
2.19958e-06
-2.60496e-07
2.20573e-06
-1.84212e-07
2.19033e-06
-1.26245e-07
2.15937e-06
-7.90367e-08
2.12301e-06
-5.67495e-08
2.07934e-06
-4.22395e-08
2.04898e-06
-3.71056e-08
2.03092e-06
-2.54147e-08
2.03443e-06
3.12461e-08
2.05476e-06
3.95652e-08
9.04614e-07
4.08218e-08
9.00004e-07
3.95261e-08
8.97894e-07
3.65835e-08
8.98859e-07
3.42416e-08
9.03438e-07
1.61818e-08
-2.26146e-07
-2.63351e-07
-1.67519e-05
4.54042e-18
-3.02329e-05
2.63351e-07
-3.02329e-05
-1.61818e-08
-1.67519e-05
-3.42416e-08
-2.26146e-07
-3.65835e-08
9.03438e-07
-3.95261e-08
8.98859e-07
-4.08218e-08
8.97894e-07
-3.95652e-08
9.00004e-07
-3.12461e-08
9.04614e-07
2.54147e-08
2.05476e-06
3.71056e-08
2.03443e-06
4.22395e-08
2.03092e-06
5.67495e-08
2.04898e-06
7.90367e-08
2.07934e-06
1.26245e-07
2.12301e-06
1.84212e-07
2.15937e-06
2.60496e-07
2.19033e-06
3.51679e-07
2.20573e-06
4.60845e-07
2.19958e-06
5.80323e-07
2.15717e-06
6.87572e-07
2.06586e-06
7.70662e-07
1.93339e-06
8.26498e-07
1.7735e-06
8.52617e-07
1.59758e-06
8.48558e-07
1.41763e-06
8.19486e-07
1.24673e-06
7.73284e-07
1.09413e-06
7.1718e-07
9.63614e-07
6.56411e-07
8.54887e-07
5.9428e-07
7.65617e-07
5.32658e-07
6.92833e-07
4.7249e-07
6.33672e-07
4.14165e-07
5.85663e-07
3.5775e-07
5.46795e-07
3.03137e-07
5.15478e-07
2.50126e-07
4.90481e-07
1.98468e-07
4.70862e-07
1.479e-07
4.55914e-07
9.81478e-08
4.45117e-07
4.89384e-08
4.3811e-07
4.34662e-07
-5.18657e-08
4.86527e-07
-1.0397e-07
4.90214e-07
-1.56549e-07
4.97697e-07
-2.09833e-07
5.09198e-07
-2.64039e-07
5.25068e-07
-3.19359e-07
5.45801e-07
-3.7594e-07
5.72059e-07
-4.3385e-07
6.04705e-07
-4.93021e-07
6.44834e-07
-5.53156e-07
6.93807e-07
-6.1359e-07
7.53267e-07
-6.73077e-07
8.25104e-07
-7.29509e-07
9.11319e-07
-7.79599e-07
1.0137e-06
-8.18679e-07
1.13321e-06
-8.40951e-07
1.269e-06
-8.40649e-07
1.41733e-06
-8.14118e-07
1.57105e-06
-7.61298e-07
1.72068e-06
-6.84562e-07
1.85665e-06
-5.88553e-07
1.96985e-06
-4.83185e-07
2.0518e-06
-3.825e-07
2.0989e-06
-2.93808e-07
2.11704e-06
-2.18313e-07
2.11484e-06
-1.57565e-07
2.09862e-06
-1.09631e-07
2.07508e-06
-7.81922e-08
2.0479e-06
-5.58123e-08
2.0266e-06
-3.8856e-08
2.01397e-06
-1.7198e-08
2.01277e-06
2.01786e-08
2.01738e-06
3.11388e-08
8.93653e-07
3.91628e-08
8.9198e-07
4.59191e-08
8.91138e-07
5.33576e-08
8.9142e-07
6.4427e-08
8.92369e-07
4.25338e-08
-2.04252e-07
-2.11333e-07
-1.6498e-05
-1.0071e-17
-3.04442e-05
2.11333e-07
-3.04442e-05
-4.25338e-08
-1.6498e-05
-6.4427e-08
-2.04252e-07
-5.33576e-08
8.92369e-07
-4.59191e-08
8.9142e-07
-3.91628e-08
8.91138e-07
-3.11388e-08
8.9198e-07
-2.01786e-08
8.93653e-07
1.7198e-08
2.01738e-06
3.8856e-08
2.01277e-06
5.58123e-08
2.01397e-06
7.81922e-08
2.0266e-06
1.09631e-07
2.0479e-06
1.57565e-07
2.07508e-06
2.18313e-07
2.09862e-06
2.93808e-07
2.11484e-06
3.825e-07
2.11704e-06
4.83185e-07
2.0989e-06
5.88553e-07
2.0518e-06
6.84562e-07
1.96985e-06
7.61298e-07
1.85665e-06
8.14118e-07
1.72068e-06
8.40649e-07
1.57105e-06
8.40951e-07
1.41733e-06
8.18679e-07
1.269e-06
7.79599e-07
1.13321e-06
7.29509e-07
1.0137e-06
6.73077e-07
9.11319e-07
6.1359e-07
8.25104e-07
5.53156e-07
7.53267e-07
4.93021e-07
6.93807e-07
4.3385e-07
6.44834e-07
3.7594e-07
6.04705e-07
3.19359e-07
5.72059e-07
2.64039e-07
5.45801e-07
2.09833e-07
5.25068e-07
1.56549e-07
5.09198e-07
1.0397e-07
4.97697e-07
5.18657e-08
4.90214e-07
4.86527e-07
-5.45579e-08
5.41085e-07
-1.09309e-07
5.44965e-07
-1.64439e-07
5.52827e-07
-2.20122e-07
5.6488e-07
-2.76503e-07
5.81449e-07
-3.33688e-07