/*--------------------------------*- C++ -*----------------------------------*\
  =========                 |
  \\      /  F ield         | OpenFOAM: The Open Source CFD Toolbox
   \\    /   O peration     | Website:  https://openfoam.org
    \\  /    A nd           | Version:  10
     \\/     M anipulation  |
\*---------------------------------------------------------------------------*/
FoamFile
{
    format      ascii;
    class       volVectorField;
    location    "0.075";
    object      UMean;
}
// * * * * * * * * * * * * * * * * * * * * * * * * * * * * * * * * * * * * * //

dimensions      [0 1 -1 0 0 0 0];

internalField   nonuniform List<vector> 
12225
(
(9.84116 0.0458112 0)
(9.55395 0.0614279 0)
(9.2585 0.0591852 0)
(8.95723 0.0575333 0)
(8.66213 0.0566074 0)
(8.37883 0.0556761 0)
(8.10778 0.0542074 0)
(7.84787 0.0532361 0)
(7.59739 0.0515098 0)
(7.35605 0.0513905 0)
(7.12115 0.0492482 0)
(6.8945 0.0513832 0)
(6.66747 0.0479029 0)
(6.4502 0.0557306 0)
(6.21495 0.0479285 0)
(6.002 0.0699932 0)
(5.72985 0.0477286 0)
(5.52195 0.100254 0)
(10.0173 0.0511662 0)
(10.0835 0.0735247 0)
(10.1246 0.0725598 0)
(10.1384 0.0733913 0)
(10.1354 0.0763642 0)
(10.1233 0.0788574 0)
(10.1037 0.0809445 0)
(10.0781 0.0824265 0)
(10.0451 0.0845625 0)
(10.0075 0.0859724 0)
(9.96207 0.0891749 0)
(9.91439 0.0907603 0)
(9.85654 0.0967468 0)
(9.79927 0.0990614 0)
(9.72596 0.111239 0)
(9.65746 0.114871 0)
(9.56321 0.135559 0)
(9.47616 0.134386 0)
(10.0053 0.0318477 0)
(10.0445 0.0539712 0)
(10.0757 0.055887 0)
(10.0931 0.0576232 0)
(10.1037 0.0616624 0)
(10.113 0.0658864 0)
(10.1224 0.0690178 0)
(10.1312 0.0722007 0)
(10.139 0.0747533 0)
(10.1449 0.0785957 0)
(10.1497 0.0814193 0)
(10.1522 0.0871682 0)
(10.1545 0.0910739 0)
(10.1541 0.100898 0)
(10.1557 0.107822 0)
(10.1548 0.1238 0)
(10.1611 0.135308 0)
(10.1651 0.146682 0)
(9.99187 0.0274159 0)
(10.0211 0.0563887 0)
(10.0466 0.0615927 0)
(10.0615 0.0629711 0)
(10.0699 0.0663953 0)
(10.0769 0.0702303 0)
(10.0843 0.0734447 0)
(10.0918 0.0759635 0)
(10.0988 0.0786915 0)
(10.1049 0.0814877 0)
(10.1104 0.0852717 0)
(10.1154 0.0894 0)
(10.1206 0.0953274 0)
(10.1263 0.102185 0)
(10.134 0.111604 0)
(10.1448 0.122553 0)
(10.1609 0.133201 0)
(10.1834 0.141092 0)
(9.99532 0.0229826 0)
(10.0181 0.0468245 0)
(10.0396 0.053612 0)
(10.0535 0.0553731 0)
(10.062 0.0583798 0)
(10.0688 0.0624335 0)
(10.0756 0.0660707 0)
(10.0823 0.0693262 0)
(10.0885 0.0723641 0)
(10.0937 0.0758505 0)
(10.0983 0.0796457 0)
(10.1026 0.0843518 0)
(10.107 0.0898326 0)
(10.1123 0.0966545 0)
(10.1192 0.104722 0)
(10.1292 0.113282 0)
(10.1425 0.121122 0)
(10.1599 0.123441 0)
(9.97555 0.0178756 0)
(9.99595 0.0430125 0)
(10.0156 0.05279 0)
(10.0295 0.0558763 0)
(10.0386 0.0588447 0)
(10.0456 0.0627496 0)
(10.0523 0.0666118 0)
(10.059 0.0700088 0)
(10.0655 0.0732227 0)
(10.0715 0.0766314 0)
(10.0771 0.080449 0)
(10.0827 0.0849071 0)
(10.0885 0.0900673 0)
(10.0952 0.0961506 0)
(10.1033 0.102792 0)
(10.1135 0.109459 0)
(10.1259 0.114314 0)
(10.1404 0.115274 0)
(9.99205 0.0153768 0)
(10.0071 0.0370983 0)
(10.0224 0.0475276 0)
(10.0343 0.0514786 0)
(10.0427 0.0543508 0)
(10.0491 0.0580045 0)
(10.055 0.0618858 0)
(10.061 0.0654277 0)
(10.0667 0.0687229 0)
(10.0721 0.0721465 0)
(10.0773 0.0759645 0)
(10.0824 0.0803175 0)
(10.088 0.0852578 0)
(10.0944 0.0907223 0)
(10.102 0.096387 0)
(10.1112 0.101574 0)
(10.1218 0.105078 0)
(10.1336 0.105849 0)
(9.99986 0.0139166 0)
(10.0137 0.033225 0)
(10.0273 0.0446634 0)
(10.0383 0.0499227 0)
(10.0468 0.0532194 0)
(10.0536 0.0568191 0)
(10.0595 0.0607819 0)
(10.0653 0.0646295 0)
(10.0708 0.0682128 0)
(10.0761 0.0717467 0)
(10.0811 0.0754551 0)
(10.0862 0.0795054 0)
(10.0916 0.083905 0)
(10.0978 0.0885701 0)
(10.1048 0.0931467 0)
(10.1129 0.0971329 0)
(10.1219 0.0997031 0)
(10.1312 0.100279 0)
(9.9944 0.0111472 0)
(10.0064 0.0286746 0)
(10.0179 0.0398383 0)
(10.028 0.0457537 0)
(10.0366 0.0493697 0)
(10.0437 0.0528615 0)
(10.05 0.0566824 0)
(10.0561 0.0605234 0)
(10.0621 0.0641787 0)
(10.0681 0.0677397 0)
(10.074 0.0713988 0)
(10.0799 0.0752794 0)
(10.0859 0.079357 0)
(10.0925 0.0835112 0)
(10.0995 0.0874219 0)
(10.1074 0.0907449 0)
(10.1154 0.0928853 0)
(10.1239 0.0935868 0)
(9.98885 0.0110876 0)
(9.99983 0.0258661 0)
(10.01 0.0365305 0)
(10.0188 0.0431762 0)
(10.0268 0.0474821 0)
(10.0339 0.0511582 0)
(10.0401 0.0549009 0)
(10.046 0.0586639 0)
(10.0517 0.062286 0)
(10.0575 0.0657921 0)
(10.0632 0.0692861 0)
(10.0691 0.0728741 0)
(10.0751 0.0765163 0)
(10.0816 0.0801309 0)
(10.0883 0.0834157 0)
(10.0958 0.0861711 0)
(10.1032 0.0879269 0)
(10.1109 0.0887048 0)
(9.98004 0.00850768 0)
(9.99021 0.0222215 0)
(9.99898 0.0320468 0)
(10.0067 0.0387556 0)
(10.0141 0.043424 0)
(10.021 0.047188 0)
(10.0275 0.050825 0)
(10.0337 0.0545347 0)
(10.0397 0.0581934 0)
(10.0456 0.061731 0)
(10.0514 0.0651616 0)
(10.0573 0.0685696 0)
(10.0632 0.0719019 0)
(10.0693 0.0751257 0)
(10.0757 0.0779867 0)
(10.0824 0.0804073 0)
(10.0891 0.0820229 0)
(10.0957 0.0829843 0)
(9.99259 0.00881393 0)
(10.001 0.0205935 0)
(10.0082 0.0297807 0)
(10.0151 0.0364886 0)
(10.0224 0.0412789 0)
(10.0296 0.0450869 0)
(10.0362 0.048648 0)
(10.0423 0.0522452 0)
(10.0481 0.0558182 0)
(10.054 0.0592642 0)
(10.06 0.062541 0)
(10.0661 0.065707 0)
(10.0722 0.0687216 0)
(10.0785 0.0715885 0)
(10.0848 0.0741051 0)
(10.0911 0.0762772 0)
(10.0973 0.0777987 0)
(10.1031 0.0789178 0)
(9.99354 0.0076573 0)
(10.0012 0.0164998 0)
(10.0075 0.0252672 0)
(10.0132 0.0320572 0)
(10.0196 0.0368829 0)
(10.026 0.0407354 0)
(10.0323 0.044368 0)
(10.0383 0.0480001 0)
(10.0443 0.0515258 0)
(10.0503 0.0548562 0)
(10.0563 0.0579651 0)
(10.0625 0.060934 0)
(10.0687 0.0637637 0)
(10.0749 0.0664705 0)
(10.0812 0.0688904 0)
(10.0873 0.0710317 0)
(10.0934 0.072643 0)
(10.099 0.0739641 0)
(10.0075 0.00967017 0)
(10.0167 0.0167327 0)
(10.0232 0.0245574 0)
(10.0281 0.0308587 0)
(10.0335 0.0354032 0)
(10.0395 0.0389756 0)
(10.0456 0.0422562 0)
(10.0516 0.0455035 0)
(10.0574 0.0486863 0)
(10.0633 0.0517433 0)
(10.0693 0.0546321 0)
(10.0754 0.0573773 0)
(10.0815 0.0599339 0)
(10.0876 0.0623429 0)
(10.0937 0.0644621 0)
(10.0996 0.0664041 0)
(10.1054 0.0679236 0)
(10.1108 0.069368 0)
(9.99976 0.00333664 0)
(10.0089 0.0117943 0)
(10.0149 0.0188159 0)
(10.0194 0.0242952 0)
(10.0246 0.0286879 0)
(10.0307 0.0324912 0)
(10.037 0.0359891 0)
(10.0432 0.0392832 0)
(10.0492 0.0423559 0)
(10.0552 0.0451973 0)
(10.0613 0.0478149 0)
(10.0675 0.0502908 0)
(10.0737 0.0526292 0)
(10.0799 0.0548867 0)
(10.0859 0.0569462 0)
(10.0919 0.0589041 0)
(10.0976 0.0605429 0)
(10.1032 0.0621722 0)
(10.0126 0.00539134 0)
(10.0213 0.0125696 0)
(10.0269 0.0177736 0)
(10.0309 0.0220618 0)
(10.0358 0.0258386 0)
(10.0417 0.0292408 0)
(10.0481 0.0323299 0)
(10.0546 0.0351658 0)
(10.061 0.037794 0)
(10.0672 0.0402711 0)
(10.0734 0.0426007 0)
(10.0796 0.0448263 0)
(10.0856 0.0468974 0)
(10.0916 0.0488821 0)
(10.0974 0.0506697 0)
(10.1032 0.0524291 0)
(10.1086 0.0539397 0)
(10.114 0.0555886 0)
(9.99253 -6.55896e-06 0)
(9.99866 0.00554853 0)
(10.0025 0.0102452 0)
(10.0057 0.0143124 0)
(10.01 0.0177381 0)
(10.0154 0.0206507 0)
(10.0212 0.0232514 0)
(10.0273 0.0256951 0)
(10.0334 0.0280312 0)
(10.0396 0.0302838 0)
(10.0458 0.032417 0)
(10.052 0.0344561 0)
(10.0582 0.036348 0)
(10.0643 0.0381774 0)
(10.0702 0.03985 0)
(10.076 0.0415409 0)
(10.0815 0.0430411 0)
(10.0871 0.0447015 0)
(9.99366 0.00855872 0)
(9.99999 0.00853118 0)
(10.0038 0.00997395 0)
(10.0067 0.0121574 0)
(10.0108 0.0144005 0)
(10.0162 0.0164463 0)
(10.0221 0.0182615 0)
(10.0282 0.0198982 0)
(10.0343 0.021425 0)
(10.0404 0.0229415 0)
(10.0465 0.0244707 0)
(10.0526 0.0260635 0)
(10.0586 0.0276554 0)
(10.0645 0.0292963 0)
(10.0703 0.0308465 0)
(10.076 0.0324367 0)
(10.0815 0.0338342 0)
(10.0868 0.035353 0)
(9.99545 -0.000626493 0)
(10.0059 -0.000115149 0)
(10.0128 0.000490435 0)
(10.0172 0.0013332 0)
(10.0216 0.00241985 0)
(10.0269 0.00361159 0)
(10.0327 0.00479147 0)
(10.0388 0.00595133 0)
(10.0449 0.00711419 0)
(10.0509 0.00832621 0)
(10.0569 0.00957746 0)
(10.0627 0.0108772 0)
(10.0686 0.0121527 0)
(10.0744 0.013434 0)
(10.0801 0.0146224 0)
(10.0858 0.0158384 0)
(10.0914 0.0169142 0)
(10.0968 0.018113 0)
(9.99183 -0.00287528 0)
(9.9995 -0.00268757 0)
(10.0043 -0.00288329 0)
(10.008 -0.00290655 0)
(10.0127 -0.00251402 0)
(10.0184 -0.00188888 0)
(10.0244 -0.0012584 0)
(10.0305 -0.000660965 0)
(10.0365 -3.32878e-05 0)
(10.0425 0.000691525 0)
(10.0485 0.00149677 0)
(10.0546 0.00237483 0)
(10.0607 0.00325875 0)
(10.0667 0.00417606 0)
(10.0726 0.0050443 0)
(10.0785 0.00595547 0)
(10.0843 0.00675626 0)
(10.09 0.00764951 0)
(9.99589 -0.00293046 0)
(10.0035 -0.00609166 0)
(10.0088 -0.00891072 0)
(10.0132 -0.0105928 0)
(10.0186 -0.0112188 0)
(10.0247 -0.0112393 0)
(10.0311 -0.011084 0)
(10.0374 -0.0109456 0)
(10.0435 -0.0108111 0)
(10.0495 -0.0105876 0)
(10.0555 -0.0102513 0)
(10.0614 -0.00980039 0)
(10.0674 -0.0092977 0)
(10.0732 -0.00874327 0)
(10.079 -0.00820477 0)
(10.0846 -0.00761198 0)
(10.0903 -0.00707533 0)
(10.0957 -0.00643663 0)
(9.99917 -0.00470588 0)
(10.0063 -0.010354 0)
(10.0116 -0.0131869 0)
(10.0163 -0.0146109 0)
(10.0218 -0.0154357 0)
(10.0282 -0.0158906 0)
(10.0348 -0.0160616 0)
(10.0415 -0.0160305 0)
(10.0481 -0.0158796 0)
(10.0547 -0.0156492 0)
(10.0612 -0.0153703 0)
(10.0677 -0.0150375 0)
(10.074 -0.0146849 0)
(10.0803 -0.014295 0)
(10.0864 -0.0139226 0)
(10.0924 -0.0135113 0)
(10.0983 -0.0131594 0)
(10.1041 -0.0127343 0)
(9.98799 -0.00163388 0)
(10.0005 -0.0120155 0)
(10.0092 -0.0179561 0)
(10.0151 -0.0209327 0)
(10.0209 -0.0224407 0)
(10.0272 -0.0234928 0)
(10.0336 -0.0244446 0)
(10.0399 -0.0252498 0)
(10.0462 -0.0258061 0)
(10.0523 -0.0260909 0)
(10.0585 -0.0261735 0)
(10.0646 -0.026127 0)
(10.0706 -0.0260264 0)
(10.0765 -0.0258722 0)
(10.0824 -0.0257001 0)
(10.0881 -0.0254615 0)
(10.0937 -0.0252299 0)
(10.0991 -0.0249173 0)
(9.99332 -0.0127034 0)
(10.0065 -0.0167398 0)
(10.0172 -0.0217114 0)
(10.0252 -0.0245548 0)
(10.0324 -0.0255905 0)
(10.0395 -0.0260756 0)
(10.0463 -0.0265844 0)
(10.0529 -0.0270934 0)
(10.0594 -0.0274742 0)
(10.0658 -0.0276974 0)
(10.0721 -0.027823 0)
(10.0783 -0.0278851 0)
(10.0844 -0.0279027 0)
(10.0903 -0.0278521 0)
(10.0962 -0.0277631 0)
(10.1019 -0.0276106 0)
(10.1075 -0.0274781 0)
(10.113 -0.0273097 0)
(9.9907 -0.013355 0)
(9.99977 -0.023847 0)
(10.0095 -0.0301637 0)
(10.0185 -0.033136 0)
(10.0265 -0.0344409 0)
(10.0335 -0.0353912 0)
(10.0402 -0.0363548 0)
(10.0469 -0.0372126 0)
(10.0535 -0.0378503 0)
(10.0601 -0.0382835 0)
(10.0666 -0.0385853 0)
(10.0728 -0.0387997 0)
(10.079 -0.0389573 0)
(10.0851 -0.0390518 0)
(10.0911 -0.0391034 0)
(10.0969 -0.0391002 0)
(10.1027 -0.0390953 0)
(10.1084 -0.0390504 0)
(10.0048 -0.0103703 0)
(10.0207 -0.0251163 0)
(10.0349 -0.0301626 0)
(10.0456 -0.0313456 0)
(10.054 -0.0321036 0)
(10.0613 -0.033233 0)
(10.0685 -0.034403 0)
(10.0758 -0.0353048 0)
(10.083 -0.035935 0)
(10.0899 -0.0364259 0)
(10.0964 -0.03687 0)
(10.1027 -0.0372769 0)
(10.1086 -0.0376292 0)
(10.1145 -0.0378949 0)
(10.1201 -0.038095 0)
(10.1257 -0.0382381 0)
(10.1312 -0.0383885 0)
(10.1365 -0.0385353 0)
(9.98518 -0.023836 0)
(10.004 -0.0383189 0)
(10.0201 -0.0430946 0)
(10.0309 -0.0438405 0)
(10.0386 -0.0446719 0)
(10.0454 -0.0460021 0)
(10.0524 -0.0470858 0)
(10.0598 -0.047668 0)
(10.0671 -0.04794 0)
(10.074 -0.0481161 0)
(10.0805 -0.0482881 0)
(10.0867 -0.0484609 0)
(10.0928 -0.0486204 0)
(10.0989 -0.0487629 0)
(10.1048 -0.0489131 0)
(10.1108 -0.0490771 0)
(10.1166 -0.0492854 0)
(10.1223 -0.0495075 0)
(9.99152 -0.0192013 0)
(10.0144 -0.0320344 0)
(10.0345 -0.0353422 0)
(10.047 -0.0361453 0)
(10.0553 -0.0376939 0)
(10.0626 -0.0395738 0)
(10.0704 -0.0410187 0)
(10.0785 -0.0419748 0)
(10.0866 -0.0426719 0)
(10.0945 -0.0432893 0)
(10.1022 -0.0438819 0)
(10.1097 -0.0444855 0)
(10.1171 -0.0450666 0)
(10.1242 -0.0456315 0)
(10.1311 -0.0461251 0)
(10.1376 -0.0465994 0)
(10.144 -0.0470279 0)
(10.1499 -0.0475016 0)
(9.99816 -0.0382126 0)
(10.04 -0.0547597 0)
(10.0723 -0.0534803 0)
(10.0913 -0.0527772 0)
(10.1027 -0.0539638 0)
(10.1108 -0.0551323 0)
(10.1166 -0.055765 0)
(10.1203 -0.056131 0)
(10.1219 -0.0564428 0)
(10.1215 -0.0567614 0)
(10.1194 -0.0570422 0)
(10.116 -0.0572915 0)
(10.1112 -0.0574594 0)
(10.1056 -0.0575997 0)
(10.0987 -0.0576594 0)
(10.0915 -0.0577572 0)
(10.083 -0.0578379 0)
(10.0748 -0.058077 0)
(9.90443 -0.0329878 0)
(9.74634 -0.0471436 0)
(9.58157 -0.0459843 0)
(9.4117 -0.0448712 0)
(9.24513 -0.0447868 0)
(9.08581 -0.0445806 0)
(8.93426 -0.0440423 0)
(8.78987 -0.0433541 0)
(8.65194 -0.0426463 0)
(8.52013 -0.0419745 0)
(8.39398 -0.0413371 0)
(8.27356 -0.0407358 0)
(8.15828 -0.0401279 0)
(8.04859 -0.0395231 0)
(7.94337 -0.0388843 0)
(7.84386 -0.0382839 0)
(7.74759 -0.0376925 0)
(7.65763 -0.0372456 0)
(-0.174026 0.364156 1.73073e-21)
(-0.400501 0.157753 -1.69708e-21)
(-0.486943 -0.0153145 0)
(-0.44413 -0.17295 0)
(-0.255115 -0.309961 0)
(0.033819 -0.403805 1.65608e-21)
(0.391598 -0.449501 0)
(0.778923 -0.449107 0)
(1.16126 -0.418497 0)
(1.51304 -0.367971 0)
(1.82055 -0.307123 -1.45579e-21)
(2.07811 -0.246307 0)
(2.28416 -0.188127 0)
(2.43752 -0.128726 0)
(2.53986 -0.0682456 0)
(2.5919 -0.0070633 -1.04007e-21)
(2.59149 0.0299123 0)
(2.56096 0.0425965 0)
(2.50084 0.0671659 0)
(2.41377 0.0975866 0)
(2.29031 0.127609 0)
(2.13041 0.151035 0)
(1.92645 0.176468 0)
(1.70142 0.204809 -9.89503e-22)
(1.43422 0.247887 1.00274e-21)
(1.16114 0.224881 -1.00787e-21)
(0.891149 0.169902 -1.00226e-21)
(0.611565 0.0964579 0)
(0.361004 0.0473569 0)
(0.10208 0.107076 9.30406e-22)
(-0.18076 0.170095 8.91378e-22)
(-0.485309 0.205831 0)
(-0.798261 0.212819 0)
(-1.09099 0.192934 7.24059e-22)
(-1.34268 0.155222 0)
(-1.54749 0.114513 0)
(-1.70152 0.0773667 -5.55262e-22)
(-1.81551 0.053617 0)
(-1.91502 0.0476875 -4.31074e-22)
(-2.03221 0.0670216 -7.09629e-22)
(-2.1905 0.105941 0)
(-2.39143 0.133335 0)
(-2.61928 0.143743 0)
(-2.84735 0.101775 0)
(-3.00906 0.0519965 0)
(-3.13716 0.0353646 -8.80866e-23)
(-3.24446 -0.0425898 -4.48499e-25)
(-3.35689 -0.0561982 9.08855e-23)
(-3.46317 0.0691814 0)
(-3.6458 0.126909 -1.72744e-22)
(-3.78293 0.102242 0)
(-3.89598 0.0899697 2.49166e-22)
(-3.99336 0.0798292 2.84124e-22)
(-4.07513 0.0666568 0)
(-4.13464 0.0462556 0)
(-4.18484 0.000804855 0)
(-4.22382 0.0149226 3.65265e-22)
(-4.29822 0.0458651 0)
(-4.35531 0.032099 0)
(-4.39138 0.0160565 0)
(-4.38979 -0.00454038 0)
(-4.37044 -0.053617 0)
(-4.3331 -0.0536288 0)
(-4.33849 -0.0100486 0)
(-4.35455 -0.00506387 0)
(-4.36225 -0.0027885 -5.07214e-22)
(-4.37133 -0.00812601 0)
(-4.37099 -0.0133389 0)
(-4.36975 -0.0171989 5.32578e-22)
(-4.36264 -0.0201037 5.26687e-22)
(-4.34847 -0.0237855 0)
(-4.32368 -0.0273516 -4.85912e-22)
(-4.28461 -0.033094 4.527e-22)
(-4.23082 -0.0382205 0)
(-4.17234 -0.0389414 -3.71564e-22)
(-4.11425 -0.0362248 0)
(-4.05876 -0.0328778 0)
(-4.00916 -0.0286804 2.05877e-22)
(-3.96996 -0.0224923 0)
(-3.94591 -0.0145971 -2.46749e-23)
(-3.93745 -0.00815432 0)
(-3.942 -0.00919744 -2.07212e-22)
(-3.93874 -0.0153469 -3.33096e-22)
(-3.93837 -0.0254103 -4.62302e-22)
(-3.90937 -0.0484634 -1.19055e-21)
(-3.89109 -0.0618046 1.44998e-21)
(-3.87222 -0.0613845 0)
(-3.91228 -0.0120507 0)
(-4.02209 0.0799242 0)
(-4.16921 0.0882034 2.33722e-21)
(-4.2396 0.052273 2.4011e-21)
(-4.25655 0.022373 -2.43908e-21)
(-4.22458 -0.00519573 0)
(-4.15061 -0.0275137 2.56474e-21)
(-4.04115 -0.0462757 2.6797e-21)
(-3.90064 -0.061542 2.83456e-21)
(-3.73356 -0.0742809 0)
(-3.54292 -0.0848205 0)
(-3.33194 -0.0936645 0)
(-3.10277 -0.101072 3.83418e-21)
(-2.85777 -0.107463 0)
(-2.5986 -0.112649 0)
(-2.32697 -0.116823 -4.91276e-21)
(-2.04479 -0.119937 0)
(-1.75425 -0.122041 0)
(-1.45732 -0.123133 -6.13214e-21)
(-1.15604 -0.123245 0)
(-0.852683 -0.122387 0)
(-0.549546 -0.120581 7.28846e-21)
(-0.24894 -0.117801 7.6236e-21)
(0.0469295 -0.114086 0)
(0.335811 -0.109518 -8.18334e-21)
(0.61555 -0.104236 0)
(0.884758 -0.0985643 8.57731e-21)
(1.14249 -0.0930334 0)
(1.38829 -0.0874232 8.81055e-21)
(1.62253 -0.0819809 8.87408e-21)
(1.84547 -0.0767898 0)
(2.05743 -0.0718301 0)
(2.25874 -0.0670329 0)
(2.4497 -0.0623643 0)
(2.63046 -0.0577731 0)
(2.80104 -0.0533598 0)
(2.96124 -0.0491552 0)
(3.11148 -0.0450828 8.46922e-21)
(3.25174 -0.0409674 -8.33796e-21)
(3.38225 -0.0369786 0)
(3.50315 -0.0331494 0)
(3.61462 -0.0294898 0)
(3.71692 -0.0260188 0)
(3.81038 -0.0227529 -1.51572e-20)
(3.89539 -0.0197215 0)
(3.97247 -0.0169517 1.4524e-20)
(4.04218 -0.0144234 -1.42134e-20)
(4.10505 -0.0120741 0)
(4.16144 -0.00983494 0)
(4.21157 -0.00766401 0)
(4.25562 -0.00553889 1.30545e-20)
(4.29367 -0.00344494 1.27918e-20)
(4.32574 -0.00137105 0)
(4.35188 0.000693912 1.23041e-20)
(4.37203 0.00274642 1.20798e-20)
(4.38618 0.0047775 -1.18685e-20)
(4.39433 0.00678224 0)
(4.3964 0.00876031 0)
(4.39233 0.0107181 -1.1312e-20)
(4.38192 0.0126745 0)
(4.36502 0.0146283 0)
(4.34144 0.0165651 0)
(4.31096 0.0184694 0)
(4.27336 0.0203264 1.0615e-20)
(4.22838 0.0221092 1.05047e-20)
(4.17573 0.023804 0)
(4.11505 0.0254414 1.03067e-20)
(4.04581 0.0269663 0)
(3.96754 0.0281177 0)
(3.88012 0.0285258 1.00393e-20)
(3.78415 0.0277688 0)
(3.68184 0.0250786 9.85113e-21)
(3.57847 0.0205511 0)
(3.48088 0.0157331 0)
(3.39485 0.0133884 9.54764e-21)
(3.32296 0.014196 0)
(3.25836 0.0197336 9.35397e-21)
(3.18999 0.0239408 0)
(3.11724 0.0237869 0)
(3.04086 0.0210835 0)
(2.96373 0.0162273 -8.94382e-21)
(2.8905 0.0120855 0)
(2.82476 0.00884114 8.73614e-21)
(2.76477 0.00779051 0)
(2.70892 0.00982823 0)
(2.64901 0.0130965 0)
(2.58535 0.0153156 0)
(2.51038 0.0192071 0)
(2.42068 0.0151441 0)
(2.35061 0.0173629 0)
(2.24325 0.0137641 -1.61459e-20)
(2.21181 0.0464286 0)
(1.9402 0.0246539 0)
(-0.00171198 0.732312 -5.12044e-21)
(0.0416375 0.443383 5.03294e-21)
(0.121589 0.0699581 0)
(0.316455 -0.306732 -3.19574e-21)
(0.588763 -0.695089 0)
(0.925752 -0.985167 -1.66058e-21)
(1.27411 -1.13523 3.04191e-21)
(1.60386 -1.16581 2.95041e-21)
(1.89857 -1.10656 0)
(2.15097 -0.987329 2.65996e-21)
(2.35652 -0.837306 1.45904e-21)
(2.51472 -0.676329 0)
(2.62804 -0.517723 0)
(2.70013 -0.369243 0)
(2.73719 -0.231877 0)
(2.74635 -0.0976125 1.04325e-21)
(2.72957 0.0229876 0)
(2.68164 0.119034 -1.63842e-21)
(2.60571 0.195021 0)
(2.50606 0.266871 0)
(2.3703 0.370632 1.63786e-21)
(2.20258 0.4857 0)
(2.00813 0.572665 -1.70248e-21)
(1.79846 0.643665 9.95316e-22)
(1.58772 0.675211 -1.00898e-21)
(1.34954 0.680718 1.01439e-21)
(1.06171 0.740406 1.009e-21)
(0.717159 0.790897 0)
(0.328532 0.798877 0)
(-0.0923477 0.786684 -9.36041e-22)
(-0.488745 0.772691 6.36166e-22)
(-0.837134 0.75667 0)
(-1.15736 0.723204 0)
(-1.42849 0.648009 -7.28237e-22)
(-1.66603 0.536741 0)
(-1.8687 0.411335 0)
(-2.03346 0.284433 5.60371e-22)
(-2.18061 0.207734 0)
(-2.33474 0.229037 -6.30224e-23)
(-2.5066 0.322661 7.2007e-22)
(-2.68887 0.416756 0)
(-2.877 0.486232 0)
(-3.06109 0.491674 1.07139e-22)
(-3.26746 0.420841 -2.85099e-23)
(-3.49061 0.350717 -1.97372e-22)
(-3.68022 0.295363 4.59724e-22)
(-3.89705 0.328817 7.38651e-24)
(-4.1245 0.346649 -8.1926e-22)
(-4.24644 0.316119 8.7679e-22)
(-4.35746 0.273501 1.64718e-22)
(-4.4228 0.213691 0)
(-4.47528 0.17336 -2.41561e-22)
(-4.49742 0.131947 8.67283e-22)
(-4.51291 0.0959028 0)
(-4.5193 0.078785 0)
(-4.55951 0.100105 0)
(-4.58743 0.11236 -3.60222e-22)
(-4.60722 0.0961177 0)
(-4.60414 0.0603577 1.20011e-21)
(-4.59643 0.00804875 0)
(-4.56858 -0.0457237 1.24702e-21)
(-4.5893 -0.0280835 0)
(-4.61741 -0.00123749 -1.31795e-21)
(-4.63611 0.0128946 0)
(-4.64312 0.00794995 1.38595e-21)
(-4.63908 0.00485445 -9.18699e-22)
(-4.63218 -0.000309409 0)
(-4.62039 -0.00401804 -1.47013e-21)
(-4.6075 -0.010973 -5.30934e-22)
(-4.58901 -0.0228443 -5.2471e-22)
(-4.56343 -0.0419658 0)
(-4.52796 -0.0666963 -8.2968e-22)
(-4.47383 -0.0949545 -4.49995e-22)
(-4.40923 -0.112284 0)
(-4.33716 -0.113434 3.68874e-22)
(-4.26029 -0.108997 -9.33223e-22)
(-4.18897 -0.100443 0)
(-4.13085 -0.0832537 -2.03345e-22)
(-4.0867 -0.0599645 0)
(-4.05611 -0.034796 2.9918e-22)
(-4.03563 -0.0127486 0)
(-4.03049 -0.00193126 4.24447e-22)
(-4.02799 -0.00135913 3.34296e-22)
(-4.03901 -0.0127466 -2.8901e-22)
(-4.05865 -0.0131979 -8.45474e-22)
(-4.13361 0.0180471 1.08484e-21)
(-4.2164 0.0731037 0)
(-4.34516 0.153245 0)
(-4.38781 0.149528 0)
(-4.38726 0.0890083 -6.28903e-21)
(-4.32751 0.014091 -2.40314e-21)
(-4.23931 -0.0534655 2.44147e-21)
(-4.1181 -0.113936 0)
(-3.97433 -0.164551 2.08921e-21)
(-3.80774 -0.207653 -2.68058e-21)
(-3.62302 -0.243778 -2.83461e-21)
(-3.4208 -0.274532 0)
(-3.20338 -0.300697 0)
(-2.97122 -0.323229 0)
(-2.72577 -0.342738 -3.83195e-21)
(-2.46758 -0.359644 0)
(-2.19786 -0.373976 8.81594e-21)
(-1.91748 -0.385818 1.45092e-20)
(-1.62779 -0.395018 -1.04154e-20)
(-1.32996 -0.401473 0)
(-1.02578 -0.405035 -5.95719e-21)
(-0.71725 -0.405671 0)
(-0.406509 -0.403384 -1.37009e-20)
(-0.0958077 -0.398204 7.15838e-21)
(0.21263 -0.390062 7.50727e-21)
(0.51658 -0.379005 0)
(0.813842 -0.365362 2.44553e-20)
(1.10211 -0.349617 -1.67189e-20)
(1.37979 -0.332701 -8.57546e-21)
(1.64604 -0.315578 0)
(1.90066 -0.298569 -8.80817e-21)
(2.14397 -0.282137 -2.65541e-20)
(2.37632 -0.266452 0)
(2.59817 -0.251516 -1.77615e-20)
(2.80988 -0.237151 -1.77212e-20)
(3.01172 -0.223164 -1.76336e-20)
(3.20391 -0.209452 0)
(3.38637 -0.196393 0)
(3.55891 -0.183486 0)
(3.72208 -0.170839 8.42438e-21)
(3.87584 -0.158428 8.33357e-21)
(4.02036 -0.14636 0)
(4.15577 -0.134712 1.60543e-20)
(4.28226 -0.123533 1.57487e-20)
(4.40005 -0.112873 0)
(4.5094 -0.102785 1.51496e-20)
(4.61067 -0.0933363 2.9609e-20)
(4.70416 -0.0845855 -1.45168e-20)
(4.79024 -0.0765356 -1.41568e-20)
(4.86933 -0.0691136 0)
(4.94199 -0.0621907 0)
(5.00879 -0.0556298 0)
(5.07019 -0.0493251 -1.30481e-20)
(5.12651 -0.0432097 1.27435e-20)
(5.17797 -0.0372439 2.50293e-20)
(5.22467 -0.0314046 -1.22979e-20)
(5.26671 -0.0256598 1.20331e-20)
(5.30408 -0.0199885 1.18624e-20)
(5.33676 -0.0143706 0)
(5.36469 -0.00877904 0)
(5.38778 -0.00317661 -1.1265e-20)
(5.40603 0.00248027 0)
(5.41937 0.00822316 0)
(5.42772 0.014069 2.1669e-20)
(5.43098 0.0200328 0)
(5.429 0.0261365 1.05615e-20)
(5.42157 0.0324212 -1.04981e-20)
(5.40841 0.0389378 0)
(5.38914 0.0457792 1.02427e-20)
(5.36331 0.0530217 0)
(5.33026 0.0605999 0)
(5.28925 0.0681131 -1.00322e-20)
(5.23935 0.0748731 1.9802e-20)
(5.17981 0.0795245 -9.84395e-21)
(5.11008 0.0805357 0)
(5.02962 0.0761935 0)
(4.93811 0.0669614 9.47495e-21)
(4.83823 0.0555837 0)
(4.74351 0.0469769 9.28786e-21)
(4.66771 0.0454123 0)
(4.61088 0.0484285 0)
(4.56537 0.0529702 0)
(4.51724 0.0554689 8.9363e-21)
(4.46191 0.0540548 0)
(4.40223 0.0498787 -8.7286e-21)
(4.3408 0.045936 0)
(4.28019 0.0428292 0)
(4.22529 0.0442553 1.68491e-20)
(4.17186 0.0461049 -1.66775e-20)
(4.12495 0.0546154 0)
(4.06279 0.0539596 0)
(4.01207 0.0626722 0)
(3.91588 0.0486512 4.83212e-20)
(3.87729 0.0854374 0)
(3.72392 0.0759399 -3.1799e-20)
(0.06728 0.402854 -2.76374e-23)
(0.258907 0.0332347 -6.71553e-21)
(0.54204 -0.49375 0)
(0.90518 -1.03972 6.36746e-21)
(1.27156 -1.47646 0)
(1.58558 -1.73177 0)
(1.82509 -1.79782 -3.47505e-22)
(1.99901 -1.7181 -2.95584e-21)
(2.12078 -1.5382 -2.34316e-21)
(2.20684 -1.29992 -2.66333e-21)
(2.26065 -1.04453 0)
(2.29079 -0.797255 0)
(2.29808 -0.565311 1.656e-21)
(2.28413 -0.353503 3.05963e-21)
(2.24922 -0.166642 -2.85899e-21)
(2.19594 -0.00188559 0)
(2.13077 0.146765 -2.61277e-21)
(2.0461 0.278125 1.63836e-21)
(1.94526 0.392875 0)
(1.81225 0.535172 -2.56933e-21)
(1.66132 0.679588 -1.64017e-21)
(1.50436 0.799688 2.67563e-21)
(1.34018 0.900925 1.7065e-21)
(1.17402 0.964975 0)
(0.991835 1.025 -2.8601e-21)
(0.753895 1.14407 -2.88444e-21)
(0.494745 1.25918 0)
(0.207161 1.37062 -2.84312e-21)
(-0.102878 1.44736 0)
(-0.42721 1.46862 -2.63863e-21)
(-0.761569 1.42819 -1.54455e-21)
(-1.07426 1.34167 0)
(-1.36166 1.21873 0)
(-1.60852 1.06305 0)
(-1.837 0.902926 0)
(-2.03951 0.738921 0)
(-2.24653 0.613682 0)
(-2.45513 0.550495 -5.96352e-22)
(-2.67109 0.567121 7.87591e-22)
(-2.89572 0.639342 0)
(-3.10245 0.707299 0)
(-3.31257 0.735226 0)
(-3.48133 0.765897 -7.16674e-22)
(-3.67788 0.747915 1.78468e-23)
(-3.85667 0.688861 1.07404e-21)
(-4.02693 0.636751 -1.42385e-21)
(-4.18201 0.585911 -1.2509e-21)
(-4.30542 0.519365 7.27865e-22)
(-4.37579 0.446673 7.14139e-22)
(-4.43163 0.368954 1.69747e-21)
(-4.46039 0.288331 0)
(-4.48499 0.213254 1.81673e-21)
(-4.49537 0.15236 6.85157e-22)
(-4.52201 0.124791 0)
(-4.54417 0.117484 0)
(-4.5607 0.115416 -1.79251e-21)
(-4.55186 0.0963998 0)
(-4.53808 0.0683654 0)
(-4.5168 0.0278167 2.26053e-21)
(-4.50389 -0.0111257 3.44049e-21)
(-4.52774 -0.00413004 -1.24995e-21)
(-4.57814 0.0239692 0)
(-4.61266 0.0319545 1.32057e-21)
(-4.62671 0.0215695 0)
(-4.62623 0.00364812 2.44988e-21)
(-4.61441 -0.0117455 1.42559e-21)
(-4.5942 -0.0252825 -4.0149e-21)
(-4.56723 -0.0360597 -2.56443e-21)
(-4.53409 -0.0480951 0)
(-4.49506 -0.0654521 3.89571e-21)
(-4.45111 -0.0916495 0)
(-4.40055 -0.127016 4.85633e-21)
(-4.33965 -0.165328 3.32241e-21)
(-4.27126 -0.192992 3.10249e-21)
(-4.19144 -0.208708 -2.878e-21)
(-4.11166 -0.203485 3.5785e-21)
(-4.04101 -0.174493 0)
(-3.97941 -0.135303 0)
(-3.92971 -0.0984636 -1.63516e-21)
(-3.89598 -0.063209 -1.45649e-21)
(-3.87544 -0.0293289 0)
(-3.87566 -0.00603404 -2.0995e-22)
(-3.88923 0.00539362 0)
(-3.92288 0.0173136 1.73836e-21)
(-3.98806 0.0593319 5.2762e-22)
(-4.06977 0.108319 -5.90411e-22)
(-4.15674 0.171856 -2.28796e-21)
(-4.18351 0.176595 0)
(-4.12523 0.108505 2.83058e-21)
(-4.04042 0.0136747 8.88393e-22)
(-3.92839 -0.0845086 0)
(-3.80822 -0.173488 0)
(-3.67044 -0.252238 0)
(-3.52077 -0.319468 -4.64807e-21)
(-3.35395 -0.377584 0)
(-3.17278 -0.427326 0)
(-2.97574 -0.470408 0)
(-2.76475 -0.507753 0)
(-2.53978 -0.540661 0)
(-2.30217 -0.56972 -6.97301e-21)
(-2.05215 -0.595392 0)
(-1.79077 -0.617674 -8.80814e-21)
(-1.51871 -0.636481 -9.59219e-21)
(-1.23733 -0.651477 1.04096e-20)
(-0.947908 -0.662322 0)
(-0.652239 -0.668556 1.20835e-20)
(-0.352196 -0.669992 0)
(-0.0498571 -0.666598 1.36984e-20)
(0.25271 -0.658314 -1.44432e-20)
(0.553425 -0.645138 -4.50029e-20)
(0.850073 -0.627123 0)
(1.1403 -0.604593 -4.85091e-20)
(1.42175 -0.578533 -1.64414e-20)
(1.69259 -0.55051 0)
(1.95185 -0.521786 -3.44667e-20)
(2.19946 -0.49341 -3.48789e-20)
(2.43587 -0.466181 5.28303e-20)
(2.66158 -0.44034 0)
(2.8771 -0.415819 1.77588e-20)
(3.0829 -0.392281 1.77184e-20)
(3.27915 -0.369388 5.27209e-20)
(3.46591 -0.347204 0)
(3.64306 -0.325637 0)
(3.81078 -0.30441 0)
(3.96917 -0.283668 1.67445e-20)
(4.11828 -0.263451 0)
(4.25825 -0.243831 0)
(4.38924 -0.224901 -1.60492e-20)
(4.51142 -0.20674 -1.5744e-20)
(4.62505 -0.189417 0)
(4.73039 -0.172991 0)
(4.82778 -0.157507 -2.96018e-20)
(4.91753 -0.142993 0)
(4.99995 -0.129466 2.83573e-20)
(5.07534 -0.116948 2.76718e-20)
(5.14404 -0.105405 0)
(5.20647 -0.0947236 0)
(5.26316 -0.0847414 -2.59763e-20)
(5.31462 -0.0752822 -7.06446e-23)
(5.36131 -0.0661932 -6.90587e-23)
(5.40359 -0.0573674 0)
(5.44167 -0.0487353 -4.81402e-20)
(5.4757 -0.0402535 0)
(5.50577 -0.0318877 0)
(5.53193 -0.023603 0)
(5.55426 -0.0153773 2.25682e-20)
(5.57281 -0.00720298 0)
(5.58759 0.00092409 -4.37575e-20)
(5.59862 0.00902827 -2.16664e-20)
(5.60592 0.017157 0)
(5.60952 0.0253785 -2.11673e-20)
(5.60945 0.0337859 0)
(5.60575 0.0424993 0)
(5.59845 0.0516731 -6.14604e-20)
(5.58752 0.0614332 4.05396e-20)
(5.57285 0.0717468 0)
(5.55414 0.0822371 3.97971e-20)
(5.53099 0.0922927 -1.9799e-20)
(5.50279 0.100968 0)
(5.46872 0.107448 0)
(5.42683 0.111139 0)
(5.37499 0.112079 -5.68719e-20)
(5.30998 0.110702 0)
(5.22985 0.104206 -1.86305e-20)
(5.13887 0.0911546 0)
(5.04535 0.0778532 0)
(4.96335 0.0707557 0)
(4.90047 0.0703511 0)
(4.84614 0.0712039 0)
(4.78828 0.0694553 0)
(4.72693 0.0676279 -3.42834e-20)
(4.66369 0.065963 0)
(4.60494 0.0659786 -1.68447e-20)
(4.54854 0.0637615 4.99017e-20)
(4.50458 0.0693107 0)
(4.45958 0.0692597 0)
(4.42778 0.0808782 -3.23249e-20)
(4.37135 0.079426 -3.21808e-20)
(4.33502 0.115212 3.18505e-20)
(4.24925 0.117097 3.17894e-20)
(0.0391156 -0.0225461 1.01783e-20)
(0.360233 -0.644186 1.00122e-20)
(0.788978 -1.36252 6.36247e-21)
(1.16425 -1.86044 2.82101e-21)
(1.44442 -2.13588 0)
(1.60715 -2.17059 -5.10953e-21)
(1.67523 -2.02173 1.95877e-21)
(1.68896 -1.78485 0)
(1.67313 -1.51205 2.34217e-21)
(1.65355 -1.22946 0)
(1.63173 -0.958047 -3.05378e-21)
(1.60912 -0.69923 0)
(1.57952 -0.453532 -1.65288e-21)
(1.53946 -0.224058 -3.05303e-21)
(1.48356 -0.0157943 2.8525e-21)
(1.41084 0.169001 0)
(1.32318 0.338312 2.60742e-21)
(1.22132 0.490378 0)
(1.09816 0.644781 0)
(0.954147 0.808358 2.56796e-21)
(0.809138 0.954501 0)
(0.659828 1.08216 -7.28553e-22)
(0.512951 1.17833 0)
(0.347321 1.28061 0)
(0.146276 1.42201 7.97229e-22)
(-0.0682657 1.5644 2.89287e-21)
(-0.290077 1.69937 2.05654e-21)
(-0.512411 1.81212 2.85557e-21)
(-0.733279 1.88594 0)
(-0.954542 1.91233 4.50778e-21)
(-1.18664 1.87802 0)
(-1.42256 1.77988 1.5762e-21)
(-1.66052 1.6339 0)
(-1.88962 1.45987 0)
(-2.1171 1.2812 -9.23131e-22)
(-2.3417 1.11213 0)
(-2.58077 0.991808 3.58479e-22)
(-2.81889 0.934491 5.83479e-22)
(-3.06301 0.958681 4.43009e-23)
(-3.30523 1.02646 -1.33127e-21)
(-3.52936 1.08484 0)
(-3.72387 1.0794 0)
(-3.87843 1.04221 -2.08709e-21)
(-4.00957 0.965626 0)
(-4.11461 0.883774 -8.79248e-22)
(-4.20437 0.811666 1.06348e-21)
(-4.26373 0.722166 1.24656e-21)
(-4.29805 0.618612 0)
(-4.31177 0.513151 -1.58417e-21)
(-4.31943 0.407465 -1.69824e-21)
(-4.32028 0.311527 5.0922e-21)
(-4.33139 0.238197 -1.81885e-21)
(-4.35147 0.195398 -1.8316e-21)
(-4.38489 0.170041 0)
(-4.40672 0.143978 0)
(-4.41706 0.1169 1.79622e-21)
(-4.41442 0.0859334 0)
(-4.41743 0.056356 0)
(-4.41986 0.0235768 -3.4696e-21)
(-4.44629 0.0228371 -3.44593e-21)
(-4.50484 0.0549107 0)
(-4.56193 0.0718885 0)
(-4.59269 0.0558629 0)
(-4.60897 0.0272785 0)
(-4.6106 -0.00489454 -3.83835e-21)
(-4.59798 -0.0342359 5.17051e-21)
(-4.57171 -0.0592533 4.01745e-21)
(-4.53302 -0.080549 9.28292e-21)
(-4.48405 -0.101515 0)
(-4.42476 -0.125854 1.11627e-21)
(-4.35944 -0.161128 0)
(-4.28665 -0.208838 -3.54647e-21)
(-4.20635 -0.258964 9.27924e-22)
(-4.11833 -0.298105 -3.11842e-21)
(-4.0231 -0.306791 2.89632e-21)
(-3.92812 -0.289746 8.04171e-22)
(-3.82992 -0.262697 0)
(-3.73977 -0.217769 2.79383e-21)
(-3.66951 -0.161203 1.65393e-21)
(-3.62603 -0.101701 3.04636e-21)
(-3.60565 -0.044182 0)
(-3.60966 0.000880739 -7.35453e-22)
(-3.6317 0.0362399 0)