/*--------------------------------*- C++ -*----------------------------------*\
  =========                 |
  \\      /  F ield         | OpenFOAM: The Open Source CFD Toolbox
   \\    /   O peration     | Website:  https://openfoam.org
    \\  /    A nd           | Version:  10
     \\/     M anipulation  |
\*---------------------------------------------------------------------------*/
FoamFile
{
    format      ascii;
    class       surfaceScalarField;
    location    "0.7";
    object      phi;
}
// * * * * * * * * * * * * * * * * * * * * * * * * * * * * * * * * * * * * * //

dimensions      [0 3 -1 0 0 0 0];

internalField   nonuniform List<scalar> 
24170
(
5.01989e-10
-5.01989e-10
9.32945e-10
-4.30956e-10
1.28051e-09
-3.47569e-10
1.55237e-09
-2.71857e-10
1.76435e-09
-2.11984e-10
1.93321e-09
-1.68852e-10
2.07358e-09
-1.40376e-10
2.19751e-09
-1.23924e-10
2.31491e-09
-1.17401e-10
2.43456e-09
-1.19654e-10
2.56529e-09
-1.30725e-10
2.71757e-09
-1.5228e-10
2.90626e-09
-1.88696e-10
3.15625e-09
-2.49984e-10
3.51676e-09
-3.60513e-10
4.10795e-09
-5.91196e-10
5.32798e-09
-1.22003e-09
-3.87972e-09
9.20771e-09
8.31983e-10
-1.33397e-09
1.55075e-09
-1.14972e-09
2.13836e-09
-9.35175e-10
2.60768e-09
-7.41183e-10
2.98371e-09
-5.88014e-10
3.29242e-09
-4.77556e-10
3.55636e-09
-4.04323e-10
3.79404e-09
-3.61601e-10
4.02075e-09
-3.44112e-10
4.2501e-09
-3.48999e-10
4.49577e-09
-3.76401e-10
4.77396e-09
-4.30465e-10
5.10714e-09
-5.21883e-10
5.53162e-09
-6.7446e-10
6.11465e-09
-9.43538e-10
6.99867e-09
-1.47522e-09
8.5057e-09
-2.72706e-09
-6.33319e-09
1.09592e-08
1.07602e-09
-2.40999e-09
1.99846e-09
-2.07217e-09
2.74638e-09
-1.68309e-09
3.33941e-09
-1.33421e-09
3.81187e-09
-1.06047e-09
4.19817e-09
-8.6386e-10
4.52751e-09
-7.33658e-10
4.8233e-09
-6.57397e-10
5.10459e-09
-6.254e-10
5.38795e-09
-6.32357e-10
5.68968e-09
-6.78138e-10
6.02849e-09
-7.69274e-10
6.42931e-09
-9.22697e-10
6.92982e-09
-1.17498e-09
7.59217e-09
-1.60589e-09
8.51852e-09
-2.40156e-09
9.81363e-09
-4.02217e-09
-7.51733e-09
1.09978e-08
1.32799e-09
-3.73798e-09
2.45331e-09
-3.19749e-09
3.3533e-09
-2.58308e-09
4.05733e-09
-2.03824e-09
4.61151e-09
-1.61465e-09
5.06011e-09
-1.31247e-09
5.4396e-09
-1.11315e-09
5.7785e-09
-9.96296e-10
6.09941e-09
-9.46307e-10
6.42145e-09
-9.54399e-10
6.76277e-09
-1.01945e-09
7.14314e-09
-1.14965e-09
7.58716e-09
-1.36671e-09
8.12805e-09
-1.71587e-09
8.81029e-09
-2.28813e-09
9.67587e-09
-3.26714e-09
1.06585e-08
-5.00479e-09
-7.98474e-09
1.11259e-08
1.61406e-09
-5.35204e-09
2.96152e-09
-4.54495e-09
4.02012e-09
-3.64167e-09
4.83381e-09
-2.85193e-09
5.46433e-09
-2.24517e-09
5.96816e-09
-1.8163e-09
6.39012e-09
-1.53511e-09
6.76423e-09
-1.3704e-09
7.11659e-09
-1.29867e-09
7.46851e-09
-1.30631e-09
7.83915e-09
-1.39009e-09
8.24795e-09
-1.55845e-09
8.71649e-09
-1.83525e-09
9.26885e-09
-2.26824e-09
9.92535e-09
-2.94463e-09
1.06715e-08
-4.01329e-09
1.13519e-08
-5.68513e-09
-8.07226e-09
1.14394e-08
1.95345e-09
-7.30549e-09
3.55366e-09
-6.14517e-09
4.78271e-09
-4.87072e-09
5.70678e-09
-3.776e-09
6.40903e-09
-2.94743e-09
6.96133e-09
-2.36859e-09
7.41834e-09
-1.99212e-09
7.82002e-09
-1.77209e-09
8.19592e-09
-1.67457e-09
8.56899e-09
-1.67938e-09
8.95854e-09
-1.77964e-09
9.38216e-09
-1.98207e-09
9.85615e-09
-2.30925e-09
1.03926e-08
-2.80469e-09
1.09874e-08
-3.53947e-09
1.15865e-08
-4.61234e-09
1.20127e-08
-6.11131e-09
-7.96044e-09
1.19009e-08
2.36886e-09
-9.67434e-09
4.26303e-09
-8.03934e-09
5.67658e-09
-6.28427e-09
6.71021e-09
-4.80964e-09
7.47693e-09
-3.71415e-09
8.0683e-09
-2.95996e-09
8.55059e-09
-2.47441e-09
8.9702e-09
-2.19169e-09
9.35983e-09
-2.0642e-09
9.74348e-09
-2.06303e-09
1.01396e-08
-2.17578e-09
1.05626e-08
-2.40508e-09
1.1022e-08
-2.76864e-09
1.15173e-08
-3.29998e-09
1.20248e-08
-4.04694e-09
1.24706e-08
-5.05813e-09
1.26962e-08
-6.33691e-09
-7.74078e-09
1.24765e-08
2.8918e-09
-1.25661e-08
5.13298e-09
-1.02805e-08
6.74478e-09
-7.89606e-09
7.88229e-09
-5.94716e-09
8.70062e-09
-4.53248e-09
9.31667e-09
-3.57601e-09
9.81035e-09
-2.96809e-09
1.02347e-08
-2.61605e-09
1.06252e-08
-2.45472e-09
1.10061e-08
-2.44394e-09
1.1394e-08
-2.56368e-09
1.17991e-08
-2.81017e-09
1.22235e-08
-3.19305e-09
1.26558e-08
-3.73228e-09
1.30598e-08
-4.45094e-09
1.3359e-08
-5.35728e-09
1.343e-08
-6.40792e-09
-7.45798e-09
1.31472e-08
3.56954e-09
-1.61357e-08
6.2245e-09
-1.29355e-08
8.04385e-09
-9.71541e-09
9.26994e-09
-7.17324e-09
1.01177e-08
-5.3802e-09
1.07363e-08
-4.19469e-09
1.12214e-08
-3.45316e-09
1.16325e-08
-3.02717e-09
1.20071e-08
-2.82929e-09
1.23686e-08
-2.80542e-09
1.27308e-08
-2.92587e-09
1.3099e-08
-3.17843e-09
1.34687e-08
-3.56268e-09
1.38203e-08
-4.08387e-09
1.41127e-08
-4.74335e-09
1.42777e-08
-5.52233e-09
1.4229e-08
-6.35923e-09
-7.1331e-09
1.39041e-08
4.47681e-09
-2.06125e-08
7.62709e-09
-1.60858e-08
9.65095e-09
-1.17393e-08
1.09329e-08
-8.45523e-09
1.1773e-08
-6.2203e-09
1.23611e-08
-4.78275e-09
1.28093e-08
-3.90139e-09
1.3183e-08
-3.40082e-09
1.35199e-08
-3.16627e-09
1.38416e-08
-3.12708e-09
1.4158e-08
-3.24229e-09
1.44696e-08
-3.49e-09
1.4766e-08
-3.85906e-09
1.50233e-08
-4.34123e-09
1.52016e-08
-4.92164e-09
1.52464e-08
-5.56711e-09
1.51026e-08
-6.21541e-09
-6.77546e-09
1.47449e-08
5.73816e-09
-2.63507e-08
9.47687e-09
-1.98245e-08
1.16736e-08
-1.39361e-08
1.29485e-08
-9.73012e-09
1.37211e-08
-6.99283e-09
1.42294e-08
-5.29105e-09
1.46015e-08
-4.27357e-09
1.49058e-08
-3.70506e-09
1.51779e-08
-3.43842e-09
1.54355e-08
-3.38461e-09
1.56838e-08
-3.49059e-09
1.59184e-08
-3.72458e-09
1.61248e-08
-4.06553e-09
1.62781e-08
-4.49452e-09
1.63432e-08
-4.9867e-09
1.62802e-08
-5.50417e-09
1.60577e-08
-5.99285e-09
-6.38848e-09
1.56707e-08
6.31198e-09
-3.26626e-08
1.00133e-08
-2.35258e-08
1.19364e-08
-1.58591e-08
1.29178e-08
-1.07115e-08
1.34418e-08
-7.51678e-09
1.37508e-08
-5.60008e-09
1.39616e-08
-4.48438e-09
1.41297e-08
-3.87314e-09
1.42805e-08
-3.58926e-09
1.44238e-08
-3.52787e-09
1.45593e-08
-3.62618e-09
1.46797e-08
-3.84495e-09
1.47706e-08
-4.15637e-09
1.48114e-08
-4.53533e-09
1.47775e-08
-4.95287e-09
1.46454e-08
-5.37203e-09
1.44006e-08
-5.74806e-09
-6.03501e-09
1.40471e-08
9.5267e-09
-4.21893e-08
1.43576e-08
-2.83566e-08
1.64587e-08
-1.79603e-08
1.73218e-08
-1.15747e-08
1.76713e-08
-7.86627e-09
1.78198e-08
-5.7486e-09
1.78974e-08
-4.56197e-09
1.79564e-08
-3.93212e-09
1.80152e-08
-3.6481e-09
1.80764e-08
-3.589e-09
1.81332e-08
-3.68306e-09
1.8173e-08
-3.88473e-09
1.81778e-08
-4.1611e-09
1.81259e-08
-4.48343e-09
1.79951e-08
-4.82207e-09
1.77674e-08
-5.14441e-09
1.74358e-08
-5.41647e-09
-5.60805e-09
1.70089e-08
1.5541e-08
-5.77303e-08
2.1578e-08
-3.43937e-08
2.33584e-08
-1.97406e-08
2.3657e-08
-1.18732e-08
2.35149e-08
-7.72424e-09
2.32842e-08
-5.51787e-09
2.30734e-08
-4.35118e-09
2.29078e-08
-3.76646e-09
2.27837e-08
-3.52404e-09
2.26874e-08
-3.49273e-09
2.26008e-08
-3.59637e-09
2.25029e-08
-3.78684e-09
2.23715e-08
-4.02971e-09
2.21844e-08
-4.29632e-09
2.19222e-08
-4.55993e-09
2.15726e-08
-4.7948e-09
2.11338e-08
-4.97768e-09
-5.09091e-09
2.06167e-08
2.85784e-08
-8.63088e-08
3.45313e-08
-4.03466e-08
3.43011e-08
-1.95104e-08
3.29501e-08
-1.05223e-08
3.16691e-08
-6.44319e-09
3.06588e-08
-4.50761e-09
2.9896e-08
-3.58841e-09
2.93201e-08
-3.19055e-09
2.88742e-08
-3.07806e-09
2.85109e-08
-3.12946e-09
2.81909e-08
-3.27634e-09
2.78802e-08
-3.47618e-09
2.75496e-08
-3.69914e-09
2.71749e-08
-3.92156e-09
2.67383e-08
-4.12334e-09
2.62309e-08
-4.28741e-09
2.56539e-08
-4.40068e-09
-4.45524e-09
2.50182e-08
6.35954e-08
-1.49904e-07
5.97426e-08
-3.64938e-08
5.21226e-08
-1.18904e-08
4.66661e-08
-5.0658e-09
4.30455e-08
-2.8226e-09
4.06006e-08
-2.06266e-09
3.8889e-08
-1.87683e-09
3.76404e-08
-1.94193e-09
3.66848e-08
-2.12243e-09
3.59099e-08
-2.35463e-09
3.52375e-08
-2.60394e-09
3.46109e-08
-2.8495e-09
3.39887e-08
-3.07693e-09
3.33423e-08
-3.27515e-09
3.26544e-08
-3.43549e-09
3.19187e-08
-3.55169e-09
3.11383e-08
-3.62032e-09
-3.6411e-09
3.03242e-08
1.93838e-07
1.56118e-07
1.1158e-07
4.57642e-08
8.15036e-08
1.81863e-08
6.74589e-08
8.97886e-09
5.96753e-08
4.96106e-09
5.4823e-08
2.78959e-09
5.15281e-08
1.41812e-09
4.9134e-08
4.52078e-10
4.72659e-08
-2.54337e-10
4.56948e-08
-7.83468e-10
4.43097e-08
-1.2189e-09
4.30387e-08
-1.57842e-09
4.18346e-08
-1.87289e-09
4.06683e-08
-2.10886e-09
3.95236e-08
-2.29073e-09
3.83941e-08
-2.42219e-09
3.72808e-08
-2.50706e-09
-2.54976e-09
3.61895e-08
7.77392e-08
7.83785e-08
7.86746e-08
4.48287e-08
7.11984e-08
2.56625e-08
6.47781e-08
1.53991e-08
6.00856e-08
9.6536e-09
5.66653e-08
6.20993e-09
5.40831e-08
4.00033e-09
5.20398e-08
2.49537e-09
5.03651e-08
1.42036e-09
4.89591e-08
6.22518e-10
4.77275e-08
1.26756e-11
4.65641e-08
-4.14967e-10
4.54422e-08
-7.51069e-10
4.43474e-08
-1.01398e-09
4.32725e-08
-1.2159e-09
4.22164e-08
-1.36606e-09
4.11814e-08
-1.47203e-09
-1.54037e-09
4.0172e-08
3.6659e-08
4.17196e-08
5.11036e-08
3.03841e-08
5.56515e-08
2.11145e-08
5.64524e-08
1.45983e-08
5.59327e-08
1.01732e-08
5.49919e-08
7.15076e-09
5.3949e-08
5.04323e-09
5.29077e-08
3.53667e-09
5.18945e-08
2.43353e-09
5.09083e-08
1.60877e-09
4.99388e-08
9.82143e-10
4.90221e-08
5.01717e-10
4.81409e-08
1.301e-10
4.72737e-08
-1.46724e-10
4.64111e-08
-3.53272e-10
4.55557e-08
-5.10679e-10
4.47116e-08
-6.27974e-10
-7.12313e-10
4.38836e-08
1.47803e-08
2.69393e-08
2.36948e-08
2.14697e-08
2.85571e-08
1.62523e-08
3.10963e-08
1.2059e-08
3.23701e-08
8.89939e-09
3.29534e-08
6.56748e-09
3.31489e-08
4.84779e-09
3.31165e-08
3.56906e-09
3.29429e-08
2.6071e-09
3.26769e-08
1.87482e-09
3.23473e-08
1.3117e-09
3.19736e-08
8.75465e-10
3.15676e-08
5.36091e-10
3.11486e-08
2.72217e-10
3.07282e-08
6.71528e-11
3.03032e-08
-8.56275e-11
2.98743e-08
-1.99127e-10
-2.84253e-10
2.94462e-08
8.61665e-09
1.83226e-08
1.47739e-08
1.53124e-08
1.8837e-08
1.21893e-08
2.14315e-08
9.46443e-09
2.30659e-08
7.26502e-09
2.40828e-08
5.55065e-09
2.46985e-08
4.232e-09
2.50478e-08
3.21976e-09
2.5215e-08
2.43997e-09
2.52541e-08
1.83575e-09
2.5201e-08
1.36478e-09
2.50806e-08
9.95879e-10
2.49106e-08
7.06068e-10
2.47045e-08
4.78268e-10
2.44721e-08
2.99554e-10
2.42263e-08
1.60221e-10
2.3975e-08
5.21387e-11
-2.91537e-11
2.37199e-08
5.55207e-09
1.27705e-08
9.88574e-09
1.09787e-08
1.30514e-08
9.02359e-09
1.52909e-08
7.2249e-09
1.68526e-08
5.70339e-09
1.79328e-08
4.47046e-09
1.86727e-08
3.49207e-09
1.91701e-08
2.72233e-09
1.94923e-08
2.11781e-09
1.96858e-08
1.64227e-09
1.97835e-08
1.26706e-09
1.98092e-08
9.70133e-10
1.97806e-08
7.34688e-10
1.9711e-08
5.47894e-10
1.96106e-08
3.99885e-10
1.94879e-08
2.83006e-10
1.93488e-08
1.91167e-10
1.19572e-10
1.92001e-08
3.81049e-09
8.96006e-09
6.94354e-09
7.84563e-09
9.3778e-09
6.58934e-09
1.12112e-08
5.39153e-09
1.25698e-08
4.34472e-09
1.35678e-08
3.4725e-09
1.42956e-08
2.76427e-09
1.48213e-08
2.19659e-09
1.51951e-08
1.74401e-09
1.54538e-08
1.38363e-09
1.56245e-08
1.09639e-09
1.57275e-08
8.67077e-10
1.57784e-08
6.83784e-10
1.57891e-08
5.37217e-10
1.57688e-08
4.20129e-10
1.5725e-08
3.26828e-10
1.56634e-08
2.52807e-10
1.94493e-10
1.55885e-08
2.72446e-09
6.2356e-09
5.0404e-09
5.52969e-09
6.9139e-09
4.71584e-09
8.38496e-09
3.92047e-09
9.52046e-09
3.20921e-09
1.03883e-08
2.60465e-09
1.10471e-08
2.10548e-09
1.15439e-08
1.69982e-09
1.19151e-08
1.37274e-09
1.21889e-08
1.10984e-09
1.23867e-08
8.98633e-10
1.25249e-08
7.28837e-10
1.26165e-08
5.92226e-10
1.26714e-08
4.82284e-10
1.26977e-08
3.9387e-10
1.27016e-08
3.22917e-10
1.26882e-08
2.66183e-10
2.21057e-10
1.26616e-08
1.9994e-09
4.2362e-09
3.73791e-09
3.79118e-09
5.18396e-09
3.2698e-09
6.35306e-09
2.75137e-09
7.28198e-09
2.28029e-09
8.01238e-09
1.87425e-09
8.5828e-09
1.53506e-09
9.02585e-09
1.25676e-09
9.36799e-09
1.03061e-09
9.63018e-09
8.4765e-10
9.82897e-09
6.99843e-10
9.97738e-09
5.80424e-10
1.00857e-08
4.83883e-10
1.01622e-08
4.05811e-10
1.02134e-08
3.42706e-10
1.02445e-08
2.91789e-10
1.02598e-08
2.50847e-10
2.18081e-10
1.02628e-08
1.4887e-09
2.7475e-09
2.80414e-09
2.47574e-09
3.92031e-09
2.15362e-09
4.84212e-09
1.82957e-09
5.59043e-09
1.53199e-09
6.19145e-09
1.27323e-09
6.67095e-09
1.05556e-09
7.05171e-09
8.76005e-10
7.35281e-09
7.29508e-10
7.58983e-09
6.10633e-10
7.7753e-09
5.14367e-10
7.91931e-09
4.36421e-10
8.02993e-09
3.73262e-10
8.11369e-09
3.22049e-10
8.17587e-09
2.80521e-10
8.22077e-09
2.46895e-10
8.25184e-09
2.19777e-10
1.98059e-10
8.27186e-09
1.11144e-09
1.63605e-09
2.1052e-09
1.48198e-09
2.96086e-09
1.29796e-09
3.67883e-09
1.1116e-09
4.27121e-09
9.39607e-10
4.75485e-09
7.89592e-10
5.14717e-09
6.63244e-10
5.46409e-09
5.59079e-10
5.71934e-09
4.74259e-10
5.92434e-09
4.05636e-10
6.08845e-09
3.50256e-10
6.2193e-09
3.05569e-10
6.3231e-09
2.69463e-10
6.40491e-09
2.40239e-10
6.46888e-09
2.16553e-10
6.51841e-09
1.97365e-10
6.55628e-09
1.81903e-10
1.69654e-10
6.58469e-09
8.16278e-10
8.19775e-10
1.55248e-09
7.45786e-10
2.19315e-09
6.57281e-10
2.737e-09
5.67749e-10
3.19115e-09
4.85461e-10
3.56651e-09
4.14227e-10
3.87486e-09
3.54896e-10
4.12725e-09
3.06693e-10
4.33337e-09
2.68137e-10
4.50143e-09
2.37577e-10
4.63822e-09
2.1346e-10
4.74935e-09
1.94443e-10
4.8394e-09
1.79418e-10
4.91213e-09
1.67502e-10
4.97068e-09
1.58007e-10
5.01763e-09
1.50417e-10
5.05514e-09
1.44385e-10
1.39841e-10
5.08496e-09
5.55389e-10
2.64386e-10
1.05884e-09
2.42336e-10
1.49947e-09
2.16646e-10
1.87575e-09
1.91477e-10
2.19187e-09
1.69342e-10
2.45478e-09
1.51316e-10
2.67216e-09
1.37515e-10
2.85132e-09
1.27534e-10
2.9987e-09
1.20749e-10
3.11978e-09
1.16497e-10
3.21908e-09
1.14169e-10
3.30027e-09
1.13244e-10
3.36639e-09
1.13302e-10
3.41987e-09
1.14017e-10
3.46274e-09
1.15142e-10
3.49665e-09
1.16506e-10
3.52304e-09
1.17994e-10
1.19623e-10
3.54326e-09
2.64386e-10
5.06722e-10
7.23367e-10
9.14844e-10
1.08419e-09
1.2355e-09
1.37302e-09
1.50055e-09
1.6213e-09
1.7378e-09
1.85197e-09
1.96521e-09
2.07851e-09
2.19253e-09
2.30767e-09
2.42418e-09
2.54217e-09
2.66179e-09
2.66199e-10
-2.66199e-10
5.33812e-10
-2.67613e-10
8.02417e-10
-2.68605e-10
1.0716e-09
-2.69179e-10
1.34094e-09
-2.69344e-10
1.61006e-09
-2.69118e-10
1.87858e-09
-2.68518e-10
2.14614e-09
-2.67561e-10
2.4124e-09
-2.66261e-10
2.67703e-09
-2.6463e-10
2.9397e-09
-2.62674e-10
3.2001e-09
-2.60396e-10
3.45789e-09
-2.57797e-10
3.71277e-09
-2.54877e-10
3.96441e-09
-2.51635e-10
4.21248e-09
-2.48069e-10
4.45666e-09
-2.44182e-10
4.69663e-09
-2.39977e-10
4.9321e-09
-2.35465e-10
5.16276e-09
-2.30656e-10
5.38832e-09
-2.25569e-10
5.60855e-09
-2.20225e-10
5.8232e-09
-2.14648e-10
6.03206e-09
-2.08866e-10
6.23497e-09
-2.02909e-10
6.43178e-09
-1.96806e-10
6.62237e-09
-1.9059e-10
6.80666e-09
-1.84291e-10
6.9846e-09
-1.77941e-10
7.15617e-09
-1.71568e-10
7.32137e-09
-1.652e-10
7.48023e-09
-1.58865e-10
7.63282e-09
-1.52586e-10
7.7792e-09
-1.46385e-10
7.91949e-09
-1.40282e-10
8.05378e-09
-1.34295e-10
8.18222e-09
-1.28438e-10
8.30494e-09
-1.22724e-10
8.42211e-09
-1.17165e-10
8.53387e-09
-1.11768e-10
8.64041e-09
-1.06539e-10
8.7419e-09
-1.01484e-10
8.8385e-09
-9.66064e-11
8.93041e-09
-9.19067e-11
9.0178e-09
-8.73852e-11
9.10084e-09
-8.30415e-11
9.17971e-09
-7.88733e-11
9.25459e-09
-7.48776e-11
9.32564e-09
-7.1051e-11
9.39303e-09
-6.73892e-11
9.45692e-09
-6.38871e-11
9.51746e-09
-6.05398e-11
9.5748e-09
-5.73414e-11
9.62908e-09
-5.42866e-11
9.68045e-09
-5.13691e-11
9.72904e-09
-4.8583e-11
9.77496e-09
-4.59226e-11
9.81834e-09
-4.33816e-11
9.8593e-09
-4.09546e-11
9.89793e-09
-3.86358e-11
9.93435e-09
-3.64198e-11
9.96865e-09
-3.43014e-11
1.00009e-08
-3.22757e-11
1.00313e-08
-3.03378e-11
1.00597e-08
-2.84834e-11
1.00865e-08
-2.6708e-11
1.01115e-08
-2.50079e-11
1.01348e-08
-2.33792e-11
1.01567e-08
-2.18185e-11
1.0177e-08
-2.03223e-11
1.01959e-08
-1.88879e-11
1.02134e-08
-1.75121e-11
1.02296e-08
-1.61922e-11
1.02445e-08
-1.4926e-11
1.02582e-08
-1.37109e-11
1.02708e-08
-1.25449e-11
1.02822e-08
-1.14257e-11
1.02925e-08
-1.03517e-11
1.03019e-08
-9.32058e-12
1.03102e-08
-8.33106e-12
1.03176e-08
-7.38127e-12
1.0324e-08
-6.46967e-12
1.03296e-08
-5.59496e-12
1.03344e-08
-4.75557e-12
1.03383e-08
-3.95023e-12
1.03415e-08
-3.17746e-12
1.0344e-08
-2.43632e-12
1.03457e-08
-1.72532e-12
1.03467e-08
-1.04351e-12
1.03471e-08
-3.89772e-13
1.03469e-08
2.37161e-13
1.0346e-08
8.38137e-13
1.03446e-08
1.41436e-12
1.03427e-08
1.96652e-12
1.03402e-08
2.49595e-12
1.03372e-08
3.00329e-12
1.03337e-08
3.48944e-12
1.03297e-08
3.95556e-12
1.03253e-08
4.40221e-12
1.03205e-08
4.83041e-12
1.03152e-08
5.24076e-12
1.03096e-08
5.63433e-12
1.03036e-08
6.01149e-12
1.02972e-08
6.37345e-12
1.02905e-08
6.72045e-12
1.02834e-08
7.05355e-12
1.02761e-08
7.37323e-12
1.02684e-08
7.68024e-12
1.02604e-08
7.97509e-12
1.02522e-08
8.25849e-12
1.02436e-08
8.53103e-12
1.02348e-08
8.79325e-12
1.02258e-08
9.04562e-12
1.02165e-08
9.28874e-12
1.0207e-08
9.52313e-12
1.01972e-08
9.74935e-12
1.01873e-08
9.96759e-12
1.01771e-08
1.01788e-11
1.01667e-08
1.03828e-11
1.01561e-08
1.05805e-11
1.01453e-08
1.0772e-11
1.01344e-08
1.09579e-11
1.01232e-08
1.11384e-11
1.01119e-08
1.1314e-11
1.01004e-08
1.14849e-11
1.00888e-08
1.16514e-11
1.0077e-08
1.1814e-11
1.0065e-08
1.19728e-11
1.00529e-08
1.21282e-11
1.00406e-08
1.22805e-11
1.00282e-08
1.24297e-11
1.00156e-08
1.25764e-11
1.00029e-08
1.27205e-11
9.99001e-09
1.28625e-11
9.97701e-09
1.30025e-11
9.96387e-09
1.31408e-11
9.95059e-09
1.32772e-11
9.93718e-09
1.34126e-11
9.92363e-09
1.35467e-11
9.90995e-09
1.36798e-11
9.89614e-09
1.38121e-11
9.8822e-09
1.39439e-11
9.86812e-09
1.40754e-11
9.85392e-09
1.42067e-11
9.83958e-09
1.43382e-11
9.82511e-09
1.44701e-11
9.81051e-09
1.46027e-11
9.79577e-09
1.47364e-11
9.7809e-09
1.48717e-11
9.76589e-09
1.50091e-11
9.75074e-09
1.51491e-11
9.73545e-09
1.52925e-11
9.72001e-09
1.54405e-11
9.70441e-09
1.55938e-11
9.68866e-09
1.57543e-11
9.67273e-09
1.59236e-11
9.65663e-09
1.61044e-11
9.64033e-09
1.62994e-11
9.62382e-09
1.65126e-11
9.60707e-09
1.67488e-11
9.59005e-09
1.70148e-11
9.57274e-09
1.73187e-11
9.55506e-09
1.76715e-11
9.53698e-09
1.80873e-11
9.51839e-09
1.85852e-11
9.4992e-09
1.91903e-11
9.47926e-09
1.99363e-11
9.4584e-09
2.08693e-11
9.43634e-09
2.20529e-11
9.41277e-09
2.3576e-11
9.3872e-09
2.55669e-11
9.35898e-09
2.82149e-11
9.32717e-09
3.18101e-11
9.29036e-09
3.68192e-11
9.24632e-09
4.40394e-11
9.19136e-09
5.49536e-11
9.1187e-09
7.26634e-11
9.01383e-09
1.04872e-10
8.83752e-09
1.7631e-10
4.01077e-10
8.43644e-09
2.68114e-10
-5.34314e-10
5.37601e-10
-5.37099e-10
8.07994e-10
-5.38998e-10
1.07884e-09
-5.40027e-10
1.34972e-09
-5.40223e-10
1.62024e-09
-5.39633e-10
1.89002e-09
-5.38304e-10
2.15874e-09
-5.36277e-10
2.42606e-09
-5.33586e-10
2.69168e-09
-5.3025e-10
2.95529e-09
-5.2628e-10
3.21657e-09
-5.21679e-10
3.47522e-09
-5.16444e-10
3.73091e-09
-5.10568e-10
3.98332e-09
-5.04045e-10
4.23212e-09
-4.9687e-10
4.47698e-09
-4.89043e-10
4.71758e-09
-4.80571e-10
4.95358e-09
-4.7147e-10
5.18469e-09
-4.61767e-10
5.41062e-09
-4.51497e-10
5.6311e-09
-4.40707e-10
5.8459e-09
-4.29447e-10
6.05481e-09
-4.17777e-10
6.25766e-09
-4.05758e-10
6.45431e-09
-3.93452e-10
6.64464e-09
-3.80925e-10
6.82859e-09
-3.6824e-10
7.00611e-09
-3.55459e-10
7.17718e-09
-3.42642e-10
7.34183e-09
-3.29845e-10
7.50008e-09
-3.17122e-10
7.65202e-09
-3.04521e-10
7.79772e-09
-2.92085e-10
7.93729e-09
-2.79853e-10
8.07086e-09
-2.67861e-10
8.19856e-09
-2.56137e-10
8.32054e-09
-2.44706e-10
8.43696e-09
-2.33589e-10
8.548e-09
-2.22802e-10
8.65381e-09
-2.12357e-10
8.75459e-09
-2.02263e-10
8.85051e-09
-1.92526e-10
8.94175e-09
-1.83148e-10
9.0285e-09
-1.74129e-10
9.11092e-09
-1.65466e-10
9.1892e-09
-1.57156e-10
9.26352e-09
-1.49191e-10
9.33403e-09
-1.41565e-10
9.40091e-09
-1.34269e-10
9.46432e-09
-1.27292e-10
9.5244e-09
-1.20624e-10
9.58131e-09
-1.14253e-10
9.63519e-09
-1.08168e-10
9.68618e-09
-1.02358e-10
9.73441e-09
-9.68092e-11
9.78e-09
-9.15103e-11
9.82306e-09
-8.64498e-11
9.86372e-09
-8.16158e-11
9.90209e-09
-7.6997e-11
9.93825e-09
-7.25829e-11
9.97231e-09
-6.83628e-11
1.00044e-08
-6.43268e-11
1.00345e-08
-6.04655e-11
1.00628e-08
-5.67701e-11
1.00893e-08
-5.32321e-11
1.01141e-08
-4.98435e-11
1.01374e-08
-4.65971e-11
1.0159e-08
-4.34856e-11
1.01792e-08
-4.05028e-11
1.0198e-08
-3.76424e-11
1.02153e-08
-3.48989e-11
1.02314e-08
-3.2267e-11
1.02462e-08
-2.97414e-11
1.02598e-08
-2.73179e-11
1.02723e-08
-2.49918e-11
1.02836e-08
-2.27593e-11
1.02939e-08
-2.06162e-11
1.03031e-08
-1.85593e-11
1.03114e-08
-1.65848e-11
1.03187e-08
-1.46897e-11
1.03251e-08
-1.28707e-11
1.03306e-08
-1.11252e-11
1.03353e-08
-9.44998e-12
1.03392e-08
-7.84268e-12
1.03423e-08
-6.30052e-12
1.03447e-08
-4.82133e-12
1.03464e-08
-3.40226e-12
1.03474e-08
-2.04151e-12
1.03477e-08
-7.36465e-13
1.03475e-08
5.14816e-13
1.03466e-08
1.71451e-12
1.03451e-08
2.86452e-12
1.03431e-08
3.96692e-12
1.03406e-08
5.02358e-12
1.03376e-08
6.03636e-12
1.03341e-08
7.00715e-12
1.03301e-08
7.93739e-12
1.03256e-08
8.82927e-12
1.03208e-08
9.68393e-12
1.03155e-08
1.05034e-11
1.03099e-08
1.12889e-11
1.03038e-08
1.20422e-11
1.02974e-08
1.27647e-11
1.02907e-08
1.34577e-11
1.02836e-08
1.41227e-11
1.02763e-08
1.47611e-11
1.02686e-08
1.53741e-11
1.02606e-08
1.59629e-11
1.02523e-08
1.65289e-11
1.02438e-08
1.70731e-11
1.0235e-08
1.75967e-11
1.02259e-08
1.81007e-11
1.02166e-08
1.85865e-11
1.02071e-08
1.90545e-11
1.01973e-08
1.95063e-11
1.01873e-08
1.99425e-11
1.01772e-08
2.0364e-11
1.01668e-08
2.07717e-11
1.01562e-08
2.11666e-11
1.01454e-08
2.15493e-11
1.01344e-08
2.19207e-11
1.01233e-08
2.22813e-11
1.0112e-08
2.2632e-11
1.01005e-08
2.29736e-11
1.00888e-08
2.33065e-11
1.0077e-08
2.36312e-11
1.0065e-08
2.39486e-11
1.00529e-08
2.42592e-11
1.00406e-08
2.45634e-11
1.00282e-08
2.48618e-11
1.00156e-08
2.51548e-11
1.00029e-08
2.54429e-11
9.99003e-09
2.57267e-11
9.97703e-09
2.60066e-11
9.96389e-09
2.62828e-11
9.95061e-09
2.6556e-11
9.93719e-09
2.68263e-11
9.92365e-09
2.70944e-11
9.90996e-09
2.73605e-11
9.89615e-09
2.76252e-11
9.88221e-09
2.78885e-11
9.86813e-09
2.81514e-11
9.85392e-09
2.84138e-11
9.83959e-09
2.86767e-11
9.82512e-09
2.89404e-11
9.81051e-09
2.92056e-11
9.79578e-09
2.94728e-11
9.7809e-09
2.97432e-11
9.7659e-09
3.00177e-11
9.75075e-09
3.02975e-11
9.73546e-09
3.05842e-11
9.72002e-09
3.08794e-11
9.70442e-09
3.11859e-11
9.68867e-09
3.15063e-11
9.67275e-09
3.18445e-11
9.65665e-09
3.22051e-11
9.64036e-09
3.25941e-11
9.62385e-09
3.30191e-11
9.60711e-09
3.34902e-11
9.5901e-09
3.40201e-11
9.5728e-09
3.46252e-11
9.55514e-09
3.53273e-11
9.53707e-09
3.61547e-11
9.51851e-09
3.71447e-11
9.49936e-09
3.83473e-11
9.47946e-09
3.98292e-11
9.45865e-09
4.16816e-11
9.43668e-09
4.40293e-11
9.4132e-09
4.70484e-11
9.38778e-09
5.09905e-11
9.35977e-09
5.6226e-11
9.32826e-09
6.33207e-11
9.2919e-09
7.31759e-11
9.24862e-09
8.73156e-11
9.19506e-09
1.08519e-10
9.12533e-09
1.42397e-10
9.0283e-09
2.01898e-10
8.88229e-09
3.22319e-10
6.16524e-10
8.66684e-09
2.72173e-10
-8.06487e-10
5.456e-10
-8.10526e-10
8.19702e-10
-8.131e-10
1.09395e-09
-8.14277e-10
1.3679e-09
-8.14167e-10
1.64115e-09
-8.12889e-10
1.91339e-09
-8.10546e-10
2.18434e-09
-8.07218e-10
2.4537e-09
-8.02956e-10
2.72124e-09
-7.97782e-10
2.98666e-09
-7.91702e-10
3.24968e-09
-7.84705e-10
3.51002e-09
-7.76775e-10
3.76734e-09
-7.67888e-10
4.02132e-09
-7.58024e-10
4.27161e-09
-7.47164e-10
4.51786e-09
-7.35298e-10
4.75973e-09
-7.22432e-10
4.99684e-09
-7.08589e-10
5.22889e-09
-6.9381e-10
5.45555e-09
-6.78157e-10
5.67655e-09
-6.61706e-10
5.89164e-09
-6.44544e-10
6.10063e-09
-6.26765e-10
6.30334e-09
-6.08468e-10
6.49964e-09
-5.89754e-10
6.68944e-09
-5.70723e-10
6.87267e-09
-5.51474e-10
7.04932e-09
-5.32103e-10
7.21938e-09
-5.127e-10
7.38288e-09
-4.93351e-10
7.5399e-09
-4.74137e-10
7.6905e-09
-4.55128e-10
7.83481e-09
-4.3639e-10
7.97294e-09
-4.17981e-10
8.10503e-09
-3.9995e-10
8.23123e-09
-3.82341e-10
8.35171e-09
-3.65188e-10
8.46664e-09
-3.4852e-10
8.5762e-09
-3.3236e-10
8.68057e-09
-3.16724e-10
8.77993e-09
-3.01625e-10
8.87447e-09
-2.87067e-10
8.96438e-09
-2.73055e-10
9.04984e-09
-2.59586e-10
9.13103e-09
-2.46656e-10
9.20813e-09
-2.34256e-10
9.28131e-09
-2.22377e-10
9.35075e-09
-2.11007e-10
9.41662e-09
-2.00131e-10
9.47906e-09
-1.89733e-10
9.53823e-09
-1.79798e-10
9.59429e-09
-1.70307e-10
9.64736e-09
-1.61244e-10
9.69759e-09
-1.52589e-10
9.74511e-09
-1.44324e-10
9.79003e-09
-1.36432e-10
9.83247e-09
-1.28894e-10
9.87255e-09
-1.21693e-10
9.91036e-09
-1.14812e-10
9.94602e-09
-1.08235e-10
9.9796e-09
-1.01946e-10
1.00112e-08
-9.59309e-11
1.00409e-08
-9.01752e-11
1.00688e-08
-8.46658e-11
1.0095e-08
-7.93901e-11
1.01195e-08
-7.43363e-11
1.01424e-08
-6.94936e-11
1.01637e-08
-6.48516e-11
1.01836e-08
-6.04006e-11
1.02021e-08
-5.61318e-11
1.02192e-08
-5.20367e-11
1.02351e-08
-4.81073e-11
1.02497e-08
-4.43366e-11
1.02631e-08
-4.07174e-11
1.02753e-08
-3.72435e-11
1.02865e-08
-3.39088e-11
1.02966e-08
-3.07076e-11
1.03057e-08
-2.76346e-11
1.03138e-08
-2.46845e-11
1.03209e-08
-2.18528e-11
1.03272e-08
-1.91347e-11
1.03326e-08
-1.65259e-11
1.03372e-08
-1.40224e-11
1.03409e-08
-1.16201e-11
1.03439e-08
-9.31512e-12
1.03462e-08
-7.10387e-12
1.03478e-08
-4.98277e-12
1.03487e-08
-2.94831e-12
1.0349e-08
-9.97487e-13
1.03486e-08
8.73277e-13
1.03477e-08
2.66688e-12
1.03461e-08
4.38633e-12
1.03441e-08
6.03473e-12
1.03415e-08
7.61472e-12
1.03384e-08
9.12915e-12
1.03348e-08
1.05807e-11
1.03308e-08
1.1972e-11
1.03263e-08
1.33055e-11
1.03214e-08
1.45839e-11
1.03161e-08
1.58093e-11
1.03104e-08
1.69843e-11
1.03043e-08
1.8111e-11
1.02979e-08
1.91916e-11
1.02911e-08
2.02282e-11
1.0284e-08
2.12231e-11
1.02766e-08
2.2178e-11
1.02689e-08
2.30952e-11
1.02609e-08
2.39762e-11
1.02526e-08
2.48228e-11
1.0244e-08
2.56372e-11
1.02352e-08
2.64207e-11
1.02261e-08
2.7175e-11
1.02168e-08
2.79018e-11
1.02073e-08
2.86025e-11
1.01975e-08
2.92786e-11
1.01875e-08
2.99314e-11
1.01773e-08
3.05625e-11
1.01669e-08
3.11729e-11
1.01563e-08
3.1764e-11
1.01455e-08
3.2337e-11
1.01345e-08
3.28931e-11
1.01234e-08
3.34331e-11
1.01121e-08
3.39585e-11
1.01006e-08
3.44698e-11
1.00889e-08
3.49684e-11
1.00771e-08
3.5455e-11
1.00651e-08
3.59304e-11
1.0053e-08
3.63956e-11
1.00407e-08
3.68514e-11
1.00282e-08
3.72983e-11
1.00157e-08
3.77375e-11
1.00029e-08
3.81693e-11
9.99007e-09
3.85946e-11
9.97706e-09
3.90138e-11
9.96392e-09
3.94279e-11
9.95063e-09
3.98372e-11
9.93722e-09
4.02425e-11
9.92367e-09
4.06443e-11
9.90999e-09
4.10431e-11
9.89617e-09
4.14397e-11
9.88223e-09
4.18346e-11
9.86815e-09
4.22285e-11
9.85394e-09
4.2622e-11
9.8396e-09
4.3016e-11
9.82513e-09
4.34112e-11
9.81053e-09
4.38084e-11
9.79579e-09
4.42091e-11
9.78092e-09
4.46143e-11
9.76591e-09
4.50255e-11
9.75076e-09
4.54446e-11
9.73548e-09
4.58738e-11
9.72004e-09
4.6316e-11
9.70445e-09
4.67746e-11
9.6887e-09
4.72539e-11
9.67279e-09
4.77596e-11
9.65669e-09
4.82985e-11
9.64041e-09
4.88795e-11
9.62391e-09
4.9514e-11
9.60719e-09
5.02167e-11
9.5902e-09
5.10064e-11
9.57292e-09
5.19076e-11
9.55529e-09
5.29525e-11
9.53727e-09
5.41827e-11
9.51876e-09
5.56536e-11
9.49967e-09
5.74385e-11
9.47986e-09
5.96363e-11
9.45916e-09
6.23806e-11
9.43733e-09
6.5855e-11
9.41407e-09
7.03166e-11
9.38892e-09
7.6132e-11
9.36131e-09
8.38381e-11
9.33039e-09
9.42466e-11
9.29492e-09
1.08637e-10
9.25311e-09
1.29135e-10
9.20212e-09
1.59501e-10
9.13755e-09
2.06968e-10
9.05265e-09
2.86798e-10
8.94074e-09
4.34232e-10
7.31883e-10
8.82538e-09
2.78994e-10
-1.08548e-09
5.58929e-10
-1.09046e-09
8.38966e-10
-1.09314e-09
1.11844e-09
-1.09375e-09
1.3969e-09
-1.09263e-09
1.67405e-09
-1.09004e-09
1.9497e-09
-1.08619e-09
2.2237e-09
-1.08121e-09
2.49589e-09
-1.07515e-09
2.7661e-09
-1.06799e-09
3.03412e-09
-1.05972e-09
3.29969e-09
-1.05027e-09
3.56252e-09
-1.03961e-09
3.8223e-09
-1.02767e-09
4.07869e-09
-1.01441e-09
4.33131e-09
-9.99784e-10
4.57976e-09
-9.83749e-10
4.82363e-09
-9.66301e-10
5.06251e-09
-9.47468e-10
5.29602e-09
-9.27317e-10
5.52381e-09
-9.05949e-10
5.74559e-09
-8.83488e-10
5.96112e-09
-8.60068e-10
6.17018e-09
-8.3583e-10
6.37263e-09
-8.10918e-10
6.56836e-09
-7.85477e-10
6.75728e-09
-7.59646e-10
6.93937e-09
-7.33563e-10
7.11462e-09
-7.07358e-10
7.28308e-09
-6.81157e-10
7.4448e-09
-6.55075e-10
7.59988e-09
-6.29216e-10
7.74843e-09
-6.03678e-10
7.89059e-09
-5.78544e-10
8.0265e-09
-5.53889e-10
8.15632e-09
-5.29777e-10
8.28024e-09
-5.06261e-10
8.39844e-09
-4.83384e-10
8.5111e-09
-4.61181e-10
8.61842e-09
-4.39679e-10
8.72059e-09
-4.18896e-10
8.81781e-09
-3.98845e-10
8.91027e-09
-3.7953e-10
8.99817e-09
-3.60953e-10
9.08169e-09
-3.43109e-10
9.16103e-09
-3.2599e-10
9.23636e-09
-3.09583e-10
9.30785e-09
-2.93873e-10
9.37569e-09
-2.78842e-10
9.44003e-09
-2.6447e-10
9.50103e-09
-2.50735e-10
9.55885e-09
-2.37614e-10
9.61362e-09
-2.25083e-10
9.66549e-09
-2.13116e-10
9.71459e-09
-2.0169e-10
9.76105e-09
-1.9078e-10
9.80498e-09
-1.80361e-10
9.84649e-09
-1.70409e-10
9.8857e-09
-1.609e-10
9.9227e-09
-1.51814e-10
9.9576e-09
-1.43126e-10
9.99047e-09
-1.34819e-10
1.00214e-08
-1.2687e-10
1.00505e-08
-1.19263e-10
1.00778e-08
-1.1198e-10
1.01034e-08
-1.05003e-10
1.01274e-08
-9.83189e-11
1.01498e-08
-9.19119e-11
1.01707e-08
-8.57691e-11
1.01902e-08
-7.98777e-11
1.02083e-08
-7.4226e-11
1.02251e-08
-6.8803e-11
1.02406e-08
-6.35987e-11
1.02548e-08
-5.86033e-11
1.02679e-08
-5.38079e-11
1.02799e-08
-4.9204e-11
1.02908e-08
-4.47842e-11
1.03006e-08
-4.05404e-11
1.03094e-08
-3.64661e-11
1.03173e-08
-3.25542e-11
1.03242e-08
-2.8799e-11
1.03303e-08
-2.5194e-11
1.03355e-08
-2.17337e-11
1.03399e-08
-1.84128e-11
1.03435e-08
-1.52256e-11
1.03464e-08
-1.21676e-11
1.03485e-08
-9.23347e-12
1.03499e-08
-6.41905e-12
1.03507e-08
-3.71933e-12
1.03508e-08
-1.13025e-12
1.03503e-08
1.35249e-12
1.03493e-08
3.73299e-12
1.03477e-08
6.01531e-12
1.03455e-08
8.20331e-12
1.03428e-08
1.03005e-11
1.03396e-08
1.23109e-11
1.0336e-08
1.4238e-11
1.03318e-08
1.60852e-11
1.03273e-08
1.78557e-11
1.03223e-08
1.95531e-11
1.0317e-08
2.11802e-11
1.03112e-08
2.27404e-11
1.03051e-08
2.42367e-11
1.02986e-08
2.56718e-11
1.02918e-08
2.70487e-11
1.02846e-08
2.83701e-11
1.02772e-08
2.96386e-11
1.02694e-08
3.08568e-11
1.02614e-08
3.20273e-11
1.0253e-08
3.31523e-11
1.02444e-08
3.42342e-11
1.02356e-08
3.52754e-11
1.02265e-08
3.62779e-11
1.02171e-08
3.72437e-11
1.02076e-08
3.8175e-11
1.01978e-08
3.90739e-11
1.01877e-08
3.99417e-11
1.01775e-08
4.07806e-11
1.01671e-08
4.15924e-11
1.01565e-08
4.23784e-11
1.01457e-08
4.31403e-11
1.01347e-08
4.388e-11
1.01235e-08
4.45983e-11
1.01122e-08
4.52971e-11
1.01007e-08
4.59775e-11
1.0089e-08
4.66408e-11
1.00772e-08
4.72884e-11
1.00652e-08
4.7921e-11
1.00531e-08
4.85402e-11
1.00408e-08
4.91468e-11
1.00283e-08
4.97419e-11
1.00157e-08
5.03264e-11
1.0003e-08
5.09013e-11