/*--------------------------------*- C++ -*----------------------------------*\
  =========                 |
  \\      /  F ield         | OpenFOAM: The Open Source CFD Toolbox
   \\    /   O peration     | Website:  https://openfoam.org
    \\  /    A nd           | Version:  10
     \\/     M anipulation  |
\*---------------------------------------------------------------------------*/
FoamFile
{
    format      ascii;
    class       volScalarField;
    location    "1.39";
    object      p;
}
// * * * * * * * * * * * * * * * * * * * * * * * * * * * * * * * * * * * * * //

dimensions      [1 -1 -2 0 0 0 0];

internalField   nonuniform List<scalar> 
12225
(
1.63332e+07
1.6277e+07
1.61764e+07
1.60437e+07
1.58894e+07
1.57216e+07
1.55458e+07
1.53658e+07
1.51837e+07
1.5001e+07
1.48182e+07
1.46352e+07
1.44515e+07
1.4266e+07
1.40768e+07
1.38803e+07
1.36698e+07
1.34276e+07
1.63355e+07
1.62791e+07
1.61781e+07
1.6045e+07
1.58905e+07
1.57224e+07
1.55465e+07
1.53664e+07
1.51843e+07
1.50016e+07
1.48188e+07
1.46359e+07
1.44524e+07
1.42673e+07
1.40786e+07
1.38834e+07
1.3676e+07
1.34459e+07
1.63405e+07
1.62836e+07
1.61818e+07
1.6048e+07
1.58928e+07
1.57243e+07
1.5548e+07
1.53677e+07
1.51855e+07
1.50028e+07
1.48201e+07
1.46375e+07
1.44545e+07
1.42701e+07
1.40827e+07
1.389e+07
1.36882e+07
1.34736e+07
1.63489e+07
1.62911e+07
1.6188e+07
1.60529e+07
1.58966e+07
1.57273e+07
1.55504e+07
1.53698e+07
1.51875e+07
1.50048e+07
1.48224e+07
1.46402e+07
1.44578e+07
1.42746e+07
1.40892e+07
1.39e+07
1.37054e+07
1.3506e+07
1.63613e+07
1.63022e+07
1.61972e+07
1.60601e+07
1.59022e+07
1.57316e+07
1.5554e+07
1.53728e+07
1.51903e+07
1.50077e+07
1.48256e+07
1.4644e+07
1.44626e+07
1.4281e+07
1.40982e+07
1.39135e+07
1.37267e+07
1.35406e+07
1.63787e+07
1.63176e+07
1.62098e+07
1.607e+07
1.59098e+07
1.57376e+07
1.55588e+07
1.5377e+07
1.51942e+07
1.50116e+07
1.48299e+07
1.46491e+07
1.44691e+07
1.42894e+07
1.41098e+07
1.39301e+07
1.37511e+07
1.35764e+07
1.64019e+07
1.63381e+07
1.62265e+07
1.6083e+07
1.59197e+07
1.57453e+07
1.5565e+07
1.53823e+07
1.51991e+07
1.50167e+07
1.48355e+07
1.46557e+07
1.44772e+07
1.43e+07
1.41239e+07
1.39494e+07
1.37779e+07
1.36127e+07
1.64325e+07
1.63649e+07
1.62481e+07
1.60996e+07
1.59323e+07
1.57549e+07
1.55727e+07
1.53889e+07
1.52053e+07
1.50229e+07
1.48423e+07
1.46637e+07
1.44871e+07
1.43126e+07
1.41404e+07
1.39712e+07
1.38066e+07
1.36493e+07
1.6472e+07
1.63992e+07
1.62753e+07
1.61202e+07
1.59478e+07
1.57668e+07
1.55821e+07
1.53969e+07
1.52127e+07
1.50305e+07
1.48506e+07
1.46733e+07
1.44988e+07
1.43272e+07
1.41589e+07
1.39949e+07
1.38365e+07
1.36859e+07
1.65227e+07
1.64426e+07
1.63091e+07
1.61454e+07
1.59664e+07
1.57808e+07
1.55932e+07
1.54063e+07
1.52214e+07
1.50393e+07
1.48602e+07
1.46845e+07
1.45122e+07
1.43437e+07
1.41794e+07
1.40202e+07
1.38674e+07
1.37225e+07
1.65875e+07
1.64968e+07
1.63503e+07
1.61755e+07
1.59883e+07
1.5797e+07
1.56059e+07
1.54171e+07
1.52314e+07
1.50493e+07
1.48712e+07
1.46971e+07
1.45271e+07
1.43618e+07
1.42014e+07
1.40468e+07
1.38989e+07
1.37589e+07
1.66636e+07
1.65587e+07
1.63958e+07
1.62077e+07
1.60111e+07
1.58137e+07
1.56189e+07
1.5428e+07
1.52415e+07
1.50595e+07
1.48823e+07
1.47098e+07
1.45421e+07
1.43796e+07
1.42227e+07
1.40719e+07
1.39281e+07
1.37921e+07
1.67572e+07
1.6632e+07
1.64477e+07
1.62432e+07
1.60357e+07
1.58315e+07
1.56325e+07
1.54394e+07
1.52521e+07
1.50703e+07
1.48941e+07
1.47232e+07
1.45578e+07
1.43981e+07
1.42445e+07
1.40973e+07
1.39572e+07
1.38246e+07
1.68953e+07
1.67338e+07
1.65155e+07
1.62876e+07
1.60654e+07
1.58524e+07
1.56484e+07
1.54527e+07
1.52645e+07
1.50831e+07
1.49081e+07
1.47392e+07
1.45765e+07
1.442e+07
1.42698e+07
1.41264e+07
1.39901e+07
1.3861e+07
1.71097e+07
1.68751e+07
1.66009e+07
1.63396e+07
1.60985e+07
1.58749e+07
1.56653e+07
1.54671e+07
1.52782e+07
1.50974e+07
1.49241e+07
1.47577e+07
1.4598e+07
1.44449e+07
1.42986e+07
1.41591e+07
1.40265e+07
1.39011e+07
1.74708e+07
1.7063e+07
1.66961e+07
1.63908e+07
1.61284e+07
1.58944e+07
1.56799e+07
1.54799e+07
1.52912e+07
1.51119e+07
1.49409e+07
1.47775e+07
1.46214e+07
1.44722e+07
1.43299e+07
1.41944e+07
1.40658e+07
1.39439e+07
1.81665e+07
1.72507e+07
1.67574e+07
1.64141e+07
1.61385e+07
1.58999e+07
1.56847e+07
1.54859e+07
1.52996e+07
1.51234e+07
1.49561e+07
1.47967e+07
1.46448e+07
1.45e+07
1.43621e+07
1.42309e+07
1.41062e+07
1.3988e+07
1.73088e+07
1.69679e+07
1.66352e+07
1.63477e+07
1.6097e+07
1.58726e+07
1.56671e+07
1.54761e+07
1.52965e+07
1.51266e+07
1.49651e+07
1.48114e+07
1.46649e+07
1.45253e+07
1.43924e+07
1.42658e+07
1.41454e+07
1.4031e+07
1.67297e+07
1.65897e+07
1.63971e+07
1.61931e+07
1.59927e+07
1.58003e+07
1.56169e+07
1.54419e+07
1.5275e+07
1.51154e+07
1.49629e+07
1.4817e+07
1.46775e+07
1.45442e+07
1.4417e+07
1.42956e+07
1.41798e+07
1.40696e+07
1.63977e+07
1.63174e+07
1.61895e+07
1.60382e+07
1.58774e+07
1.57145e+07
1.55531e+07
1.53952e+07
1.52417e+07
1.5093e+07
1.49496e+07
1.48114e+07
1.46786e+07
1.45511e+07
1.44289e+07
1.4312e+07
1.42002e+07
1.40934e+07
1.62074e+07
1.61497e+07
1.60515e+07
1.59284e+07
1.57915e+07
1.56479e+07
1.55019e+07
1.53563e+07
1.52127e+07
1.50723e+07
1.49356e+07
1.48031e+07
1.46752e+07
1.4552e+07
1.44335e+07
1.43197e+07
1.42107e+07
1.41063e+07
1.60813e+07
1.60348e+07
1.5953e+07
1.5847e+07
1.57257e+07
1.55954e+07
1.54606e+07
1.53241e+07
1.51881e+07
1.5054e+07
1.49226e+07
1.47946e+07
1.46705e+07
1.45505e+07
1.44348e+07
1.43235e+07
1.42166e+07
1.41141e+07
1.59959e+07
1.59556e+07
1.58835e+07
1.57882e+07
1.56771e+07
1.55559e+07
1.54289e+07
1.52991e+07
1.51687e+07
1.50392e+07
1.49117e+07
1.4787e+07
1.46658e+07
1.45482e+07
1.44346e+07
1.43251e+07
1.42198e+07
1.41186e+07
1.59376e+07
1.59011e+07
1.5835e+07
1.57465e+07
1.56422e+07
1.55272e+07
1.54056e+07
1.52804e+07
1.5154e+07
1.50278e+07
1.49032e+07
1.47809e+07
1.46617e+07
1.45459e+07
1.44339e+07
1.43257e+07
1.42215e+07
1.41214e+07
1.58982e+07
1.5864e+07
1.58016e+07
1.57176e+07
1.56177e+07
1.55069e+07
1.5389e+07
1.5267e+07
1.51433e+07
1.50195e+07
1.48968e+07
1.47763e+07
1.46585e+07
1.4544e+07
1.4433e+07
1.43258e+07
1.42224e+07
1.41229e+07
1.5872e+07
1.58392e+07
1.57792e+07
1.5698e+07
1.56011e+07
1.5493e+07
1.53775e+07
1.52577e+07
1.51358e+07
1.50136e+07
1.48923e+07
1.4773e+07
1.46562e+07
1.45425e+07
1.44323e+07
1.43257e+07
1.42228e+07
1.41238e+07
1.58551e+07
1.58232e+07
1.57648e+07
1.56854e+07
1.55902e+07
1.54839e+07
1.537e+07
1.52516e+07
1.51309e+07
1.50097e+07
1.48893e+07
1.47707e+07
1.46546e+07
1.45414e+07
1.44317e+07
1.43255e+07
1.4223e+07
1.41244e+07
1.58449e+07
1.58136e+07
1.5756e+07
1.56776e+07
1.55836e+07
1.54783e+07
1.53653e+07
1.52478e+07
1.51278e+07
1.50073e+07
1.48874e+07
1.47693e+07
1.46535e+07
1.45408e+07
1.44313e+07
1.43253e+07
1.42231e+07
1.41246e+07
1.58394e+07
1.58083e+07
1.57512e+07
1.56734e+07
1.558e+07
1.54752e+07
1.53628e+07
1.52457e+07
1.51261e+07
1.50059e+07
1.48864e+07
1.47685e+07
1.46529e+07
1.45403e+07
1.4431e+07
1.43252e+07
1.42231e+07
1.41247e+07
1.58372e+07
1.58062e+07
1.57493e+07
1.56717e+07
1.55785e+07
1.5474e+07
1.53618e+07
1.52448e+07
1.51254e+07
1.50054e+07
1.48859e+07
1.47681e+07
1.46527e+07
1.45402e+07
1.44309e+07
1.43252e+07
1.42231e+07
1.41248e+07
1.07502e+07
1.07501e+07
1.075e+07
1.07498e+07
1.07495e+07
1.07492e+07
1.07488e+07
1.07483e+07
1.07478e+07
1.07472e+07
1.07465e+07
1.07458e+07
1.0745e+07
1.07441e+07
1.07432e+07
1.07422e+07
1.07411e+07
1.074e+07
1.07389e+07
1.07376e+07
1.07364e+07
1.0735e+07
1.07337e+07
1.07322e+07
1.07308e+07
1.07293e+07
1.07277e+07
1.07261e+07
1.07245e+07
1.07229e+07
1.07212e+07
1.07195e+07
1.07177e+07
1.0716e+07
1.07142e+07
1.07124e+07
1.07106e+07
1.07087e+07
1.07069e+07
1.0705e+07
1.07031e+07
1.07012e+07
1.06993e+07
1.06974e+07
1.06954e+07
1.06935e+07
1.06915e+07
1.06895e+07
1.06876e+07
1.06856e+07
1.06835e+07
1.06815e+07
1.06795e+07
1.06774e+07
1.06754e+07
1.06733e+07
1.06712e+07
1.06691e+07
1.0667e+07
1.06649e+07
1.06627e+07
1.06606e+07
1.06584e+07
1.06562e+07
1.0654e+07
1.06518e+07
1.06496e+07
1.06474e+07
1.06451e+07
1.06429e+07
1.06406e+07
1.06383e+07
1.0636e+07
1.06337e+07
1.06314e+07
1.0629e+07
1.06266e+07
1.06242e+07
1.06218e+07
1.06194e+07
1.0617e+07
1.06145e+07
1.06121e+07
1.06096e+07
1.06071e+07
1.06045e+07
1.0602e+07
1.05994e+07
1.05969e+07
1.05943e+07
1.05916e+07
1.0589e+07
1.05864e+07
1.05837e+07
1.0581e+07
1.05783e+07
1.05755e+07
1.05728e+07
1.057e+07
1.05672e+07
1.05644e+07
1.05616e+07
1.05587e+07
1.05558e+07
1.05529e+07
1.055e+07
1.0547e+07
1.05441e+07
1.05411e+07
1.0538e+07
1.0535e+07
1.05319e+07
1.05289e+07
1.05258e+07
1.05226e+07
1.05195e+07
1.05163e+07
1.05131e+07
1.05098e+07
1.05066e+07
1.05033e+07
1.05e+07
1.04967e+07
1.04933e+07
1.04899e+07
1.04865e+07
1.04831e+07
1.04796e+07
1.04761e+07
1.04726e+07
1.04691e+07
1.04655e+07
1.04619e+07
1.04583e+07
1.04546e+07
1.04509e+07
1.04472e+07
1.04435e+07
1.04397e+07
1.04359e+07
1.04321e+07
1.04282e+07
1.04243e+07
1.04204e+07
1.04165e+07
1.04125e+07
1.04085e+07
1.04044e+07
1.04004e+07
1.03963e+07
1.03921e+07
1.0388e+07
1.03838e+07
1.03795e+07
1.03753e+07
1.0371e+07
1.03666e+07
1.03623e+07
1.03579e+07
1.03534e+07
1.0349e+07
1.03445e+07
1.03399e+07
1.03353e+07
1.03307e+07
1.03261e+07
1.03214e+07
1.03167e+07
1.0312e+07
1.03072e+07
1.03024e+07
1.02975e+07
1.02926e+07
1.02877e+07
1.02828e+07
1.02778e+07
1.02728e+07
1.02678e+07
1.02629e+07
1.02579e+07
1.07504e+07
1.07504e+07
1.07502e+07
1.075e+07
1.07498e+07
1.07494e+07
1.0749e+07
1.07486e+07
1.0748e+07
1.07474e+07
1.07467e+07
1.0746e+07
1.07452e+07
1.07443e+07
1.07434e+07
1.07424e+07
1.07413e+07
1.07402e+07
1.0739e+07
1.07378e+07
1.07365e+07
1.07352e+07
1.07338e+07
1.07323e+07
1.07309e+07
1.07293e+07
1.07278e+07
1.07262e+07
1.07246e+07
1.07229e+07
1.07212e+07
1.07195e+07
1.07177e+07
1.0716e+07
1.07142e+07
1.07124e+07
1.07106e+07
1.07087e+07
1.07069e+07
1.0705e+07
1.07031e+07
1.07012e+07
1.06993e+07
1.06974e+07
1.06954e+07
1.06935e+07
1.06915e+07
1.06895e+07
1.06875e+07
1.06855e+07
1.06835e+07
1.06815e+07
1.06795e+07
1.06774e+07
1.06754e+07
1.06733e+07
1.06712e+07
1.06691e+07
1.0667e+07
1.06649e+07
1.06627e+07
1.06606e+07
1.06584e+07
1.06562e+07
1.0654e+07
1.06518e+07
1.06496e+07
1.06474e+07
1.06451e+07
1.06429e+07
1.06406e+07
1.06383e+07
1.0636e+07
1.06337e+07
1.06313e+07
1.0629e+07
1.06266e+07
1.06242e+07
1.06218e+07
1.06194e+07
1.0617e+07
1.06145e+07
1.06121e+07
1.06096e+07
1.06071e+07
1.06045e+07
1.0602e+07
1.05994e+07
1.05969e+07
1.05943e+07
1.05916e+07
1.0589e+07
1.05864e+07
1.05837e+07
1.0581e+07
1.05783e+07
1.05755e+07
1.05728e+07
1.057e+07
1.05672e+07
1.05644e+07
1.05615e+07
1.05587e+07
1.05558e+07
1.05529e+07
1.055e+07
1.0547e+07
1.05441e+07
1.05411e+07
1.0538e+07
1.0535e+07
1.05319e+07
1.05289e+07
1.05257e+07
1.05226e+07
1.05195e+07
1.05163e+07
1.05131e+07
1.05098e+07
1.05066e+07
1.05033e+07
1.05e+07
1.04967e+07
1.04933e+07
1.04899e+07
1.04865e+07
1.04831e+07
1.04796e+07
1.04761e+07
1.04726e+07
1.04691e+07
1.04655e+07
1.04619e+07
1.04583e+07
1.04546e+07
1.04509e+07
1.04472e+07
1.04435e+07
1.04397e+07
1.04359e+07
1.04321e+07
1.04282e+07
1.04243e+07
1.04204e+07
1.04165e+07
1.04125e+07
1.04085e+07
1.04044e+07
1.04004e+07
1.03963e+07
1.03921e+07
1.0388e+07
1.03838e+07
1.03795e+07
1.03753e+07
1.0371e+07
1.03666e+07
1.03623e+07
1.03579e+07
1.03534e+07
1.0349e+07
1.03445e+07
1.03399e+07
1.03353e+07
1.03307e+07
1.03261e+07
1.03214e+07
1.03167e+07
1.0312e+07
1.03072e+07
1.03024e+07
1.02975e+07
1.02926e+07
1.02877e+07
1.02828e+07
1.02778e+07
1.02728e+07
1.02678e+07
1.02628e+07
1.02579e+07
1.0751e+07
1.0751e+07
1.07508e+07
1.07506e+07
1.07503e+07
1.075e+07
1.07496e+07
1.07491e+07
1.07485e+07
1.07479e+07
1.07472e+07
1.07464e+07
1.07456e+07
1.07447e+07
1.07438e+07
1.07427e+07
1.07417e+07
1.07405e+07
1.07393e+07
1.07381e+07
1.07368e+07
1.07354e+07
1.0734e+07
1.07325e+07
1.0731e+07
1.07295e+07
1.07279e+07
1.07263e+07
1.07247e+07
1.0723e+07
1.07213e+07
1.07196e+07
1.07178e+07
1.0716e+07
1.07142e+07
1.07124e+07
1.07106e+07
1.07087e+07
1.07069e+07
1.0705e+07
1.07031e+07
1.07012e+07
1.06993e+07
1.06974e+07
1.06954e+07
1.06935e+07
1.06915e+07
1.06895e+07
1.06875e+07
1.06855e+07
1.06835e+07
1.06815e+07
1.06794e+07
1.06774e+07
1.06753e+07
1.06733e+07
1.06712e+07
1.06691e+07
1.0667e+07
1.06648e+07
1.06627e+07
1.06606e+07
1.06584e+07
1.06562e+07
1.0654e+07
1.06518e+07
1.06496e+07
1.06474e+07
1.06451e+07
1.06429e+07
1.06406e+07
1.06383e+07
1.0636e+07
1.06337e+07
1.06313e+07
1.0629e+07
1.06266e+07
1.06242e+07
1.06218e+07
1.06194e+07
1.0617e+07
1.06145e+07
1.06121e+07
1.06096e+07
1.06071e+07
1.06045e+07
1.0602e+07
1.05994e+07
1.05969e+07
1.05943e+07
1.05916e+07
1.0589e+07
1.05863e+07
1.05837e+07
1.0581e+07
1.05783e+07
1.05755e+07
1.05728e+07
1.057e+07
1.05672e+07
1.05644e+07
1.05615e+07
1.05587e+07
1.05558e+07
1.05529e+07
1.055e+07
1.0547e+07
1.05441e+07
1.05411e+07
1.0538e+07
1.0535e+07
1.05319e+07
1.05289e+07
1.05257e+07
1.05226e+07
1.05195e+07
1.05163e+07
1.05131e+07
1.05098e+07
1.05066e+07
1.05033e+07
1.05e+07
1.04967e+07
1.04933e+07
1.04899e+07
1.04865e+07
1.04831e+07
1.04796e+07
1.04761e+07
1.04726e+07
1.04691e+07
1.04655e+07
1.04619e+07
1.04583e+07
1.04546e+07
1.04509e+07
1.04472e+07
1.04435e+07
1.04397e+07
1.04359e+07
1.04321e+07
1.04282e+07
1.04243e+07
1.04204e+07
1.04165e+07
1.04125e+07
1.04085e+07
1.04044e+07
1.04004e+07
1.03963e+07
1.03921e+07
1.0388e+07
1.03837e+07
1.03795e+07
1.03753e+07
1.0371e+07
1.03666e+07
1.03623e+07
1.03579e+07
1.03534e+07
1.0349e+07
1.03444e+07
1.03399e+07
1.03353e+07
1.03307e+07
1.03261e+07
1.03214e+07
1.03167e+07
1.0312e+07
1.03072e+07
1.03024e+07
1.02975e+07
1.02926e+07
1.02877e+07
1.02828e+07
1.02778e+07
1.02728e+07
1.02678e+07
1.02628e+07
1.02578e+07
1.07519e+07
1.07519e+07
1.07517e+07
1.07515e+07
1.07512e+07
1.07508e+07
1.07504e+07
1.07498e+07
1.07492e+07
1.07486e+07
1.07479e+07
1.07471e+07
1.07463e+07
1.07453e+07
1.07444e+07
1.07433e+07
1.07422e+07
1.0741e+07
1.07398e+07
1.07385e+07
1.07372e+07
1.07358e+07
1.07343e+07
1.07328e+07
1.07313e+07
1.07297e+07
1.07281e+07
1.07265e+07
1.07248e+07
1.07231e+07
1.07214e+07
1.07196e+07
1.07179e+07
1.07161e+07
1.07143e+07
1.07124e+07
1.07106e+07
1.07088e+07
1.07069e+07
1.0705e+07
1.07031e+07
1.07012e+07
1.06993e+07
1.06973e+07
1.06954e+07
1.06934e+07
1.06915e+07
1.06895e+07
1.06875e+07
1.06855e+07
1.06835e+07
1.06815e+07
1.06794e+07
1.06774e+07
1.06753e+07
1.06732e+07
1.06712e+07
1.06691e+07
1.06669e+07
1.06648e+07
1.06627e+07
1.06605e+07
1.06584e+07
1.06562e+07
1.0654e+07
1.06518e+07
1.06496e+07
1.06474e+07
1.06451e+07
1.06429e+07
1.06406e+07
1.06383e+07
1.0636e+07
1.06337e+07
1.06313e+07
1.0629e+07
1.06266e+07
1.06242e+07
1.06218e+07
1.06194e+07
1.0617e+07
1.06145e+07
1.0612e+07
1.06096e+07
1.06071e+07
1.06045e+07
1.0602e+07
1.05994e+07
1.05968e+07
1.05942e+07
1.05916e+07
1.0589e+07
1.05863e+07
1.05837e+07
1.0581e+07
1.05783e+07
1.05755e+07
1.05728e+07
1.057e+07
1.05672e+07
1.05644e+07
1.05615e+07
1.05587e+07
1.05558e+07
1.05529e+07
1.055e+07
1.0547e+07
1.0544e+07
1.05411e+07
1.0538e+07
1.0535e+07
1.05319e+07
1.05289e+07
1.05257e+07
1.05226e+07
1.05195e+07
1.05163e+07
1.05131e+07
1.05098e+07
1.05066e+07
1.05033e+07
1.05e+07
1.04967e+07
1.04933e+07
1.04899e+07
1.04865e+07
1.04831e+07
1.04796e+07
1.04761e+07
1.04726e+07
1.04691e+07
1.04655e+07
1.04619e+07
1.04583e+07
1.04546e+07
1.04509e+07
1.04472e+07
1.04435e+07
1.04397e+07
1.04359e+07
1.04321e+07
1.04282e+07
1.04243e+07
1.04204e+07
1.04165e+07
1.04125e+07
1.04085e+07
1.04044e+07
1.04004e+07
1.03963e+07
1.03921e+07
1.03879e+07
1.03837e+07
1.03795e+07
1.03752e+07
1.03709e+07
1.03666e+07
1.03622e+07
1.03578e+07
1.03534e+07
1.03489e+07
1.03444e+07
1.03399e+07
1.03353e+07
1.03307e+07
1.03261e+07
1.03214e+07
1.03167e+07
1.03119e+07
1.03072e+07
1.03024e+07
1.02975e+07
1.02926e+07
1.02877e+07
1.02828e+07
1.02778e+07
1.02728e+07
1.02678e+07
1.02628e+07
1.02577e+07
1.07532e+07
1.07531e+07
1.07529e+07
1.07528e+07
1.07524e+07
1.07519e+07
1.07515e+07
1.07509e+07
1.07502e+07
1.07495e+07
1.07488e+07
1.0748e+07
1.07472e+07
1.07462e+07
1.07452e+07
1.07441e+07
1.07429e+07
1.07417e+07
1.07404e+07
1.07391e+07
1.07377e+07
1.07363e+07
1.07348e+07
1.07332e+07
1.07317e+07
1.07301e+07
1.07284e+07
1.07267e+07
1.0725e+07
1.07233e+07
1.07215e+07
1.07197e+07
1.0718e+07
1.07161e+07
1.07143e+07
1.07125e+07
1.07106e+07
1.07088e+07
1.07069e+07
1.0705e+07
1.07031e+07
1.07012e+07
1.06993e+07
1.06973e+07
1.06954e+07
1.06934e+07
1.06914e+07
1.06895e+07
1.06875e+07
1.06855e+07
1.06835e+07
1.06814e+07
1.06794e+07
1.06773e+07
1.06753e+07
1.06732e+07
1.06711e+07
1.0669e+07
1.06669e+07
1.06648e+07
1.06627e+07
1.06605e+07
1.06584e+07
1.06562e+07
1.0654e+07
1.06518e+07
1.06496e+07
1.06473e+07
1.06451e+07
1.06428e+07
1.06406e+07
1.06383e+07
1.0636e+07
1.06336e+07
1.06313e+07
1.0629e+07
1.06266e+07
1.06242e+07
1.06218e+07
1.06194e+07
1.0617e+07
1.06145e+07
1.0612e+07
1.06095e+07
1.0607e+07
1.06045e+07
1.0602e+07
1.05994e+07
1.05968e+07
1.05942e+07
1.05916e+07
1.0589e+07
1.05863e+07
1.05837e+07
1.0581e+07
1.05783e+07
1.05755e+07
1.05728e+07
1.057e+07
1.05672e+07
1.05644e+07
1.05615e+07
1.05587e+07
1.05558e+07
1.05529e+07
1.055e+07
1.0547e+07
1.0544e+07
1.05411e+07
1.0538e+07
1.0535e+07
1.05319e+07
1.05288e+07
1.05257e+07
1.05226e+07
1.05194e+07
1.05163e+07
1.05131e+07
1.05098e+07
1.05066e+07
1.05033e+07
1.05e+07
1.04967e+07
1.04933e+07
1.04899e+07
1.04865e+07
1.04831e+07
1.04796e+07
1.04761e+07
1.04726e+07
1.04691e+07
1.04655e+07
1.04619e+07
1.04583e+07
1.04546e+07
1.04509e+07
1.04472e+07
1.04435e+07
1.04397e+07
1.04359e+07
1.04321e+07
1.04282e+07
1.04243e+07
1.04204e+07
1.04165e+07
1.04125e+07
1.04085e+07
1.04044e+07
1.04004e+07
1.03962e+07
1.03921e+07
1.03879e+07
1.03837e+07
1.03795e+07
1.03752e+07
1.03709e+07
1.03666e+07
1.03622e+07
1.03578e+07
1.03534e+07
1.03489e+07
1.03444e+07
1.03399e+07
1.03353e+07
1.03307e+07
1.03261e+07
1.03214e+07
1.03167e+07
1.03119e+07
1.03072e+07
1.03023e+07
1.02975e+07
1.02926e+07
1.02877e+07
1.02827e+07
1.02778e+07
1.02728e+07
1.02677e+07
1.02627e+07
1.02577e+07
1.07817e+07
1.07795e+07
1.0775e+07
1.07674e+07
1.07651e+07
1.07579e+07
1.07541e+07
1.07522e+07
1.07512e+07
1.07504e+07
1.07498e+07
1.07492e+07
1.07485e+07
1.07474e+07
1.07462e+07
1.0745e+07
1.07438e+07
1.07425e+07
1.07412e+07
1.07399e+07
1.07384e+07
1.07369e+07
1.07353e+07
1.07337e+07
1.07321e+07
1.07304e+07
1.07287e+07
1.0727e+07
1.07252e+07
1.07235e+07
1.07217e+07
1.07199e+07
1.0718e+07
1.07162e+07
1.07144e+07
1.07125e+07
1.07106e+07
1.07088e+07
1.07069e+07
1.0705e+07
1.07031e+07
1.07012e+07
1.06992e+07
1.06973e+07
1.06953e+07
1.06934e+07
1.06914e+07
1.06894e+07
1.06874e+07
1.06854e+07
1.06834e+07
1.06814e+07
1.06793e+07
1.06773e+07
1.06752e+07
1.06732e+07
1.06711e+07
1.0669e+07
1.06669e+07
1.06648e+07
1.06626e+07
1.06605e+07
1.06583e+07
1.06561e+07
1.0654e+07
1.06518e+07
1.06495e+07
1.06473e+07
1.06451e+07
1.06428e+07
1.06405e+07
1.06383e+07
1.06359e+07
1.06336e+07
1.06313e+07
1.06289e+07
1.06266e+07
1.06242e+07
1.06218e+07
1.06194e+07
1.06169e+07
1.06145e+07
1.0612e+07
1.06095e+07
1.0607e+07
1.06045e+07
1.0602e+07
1.05994e+07
1.05968e+07
1.05942e+07
1.05916e+07
1.0589e+07
1.05863e+07
1.05837e+07
1.0581e+07
1.05782e+07
1.05755e+07
1.05728e+07
1.057e+07
1.05672e+07
1.05644e+07
1.05615e+07
1.05587e+07
1.05558e+07
1.05529e+07
1.055e+07
1.0547e+07
1.0544e+07
1.0541e+07
1.0538e+07
1.0535e+07
1.05319e+07
1.05288e+07
1.05257e+07
1.05226e+07
1.05194e+07
1.05163e+07
1.05131e+07
1.05098e+07
1.05066e+07
1.05033e+07
1.05e+07
1.04967e+07
1.04933e+07
1.04899e+07
1.04865e+07
1.04831e+07
1.04796e+07
1.04761e+07
1.04726e+07
1.04691e+07
1.04655e+07
1.04619e+07
1.04583e+07
1.04546e+07
1.04509e+07
1.04472e+07
1.04435e+07
1.04397e+07
1.04359e+07
1.04321e+07
1.04282e+07
1.04243e+07
1.04204e+07
1.04165e+07
1.04125e+07
1.04085e+07
1.04044e+07
1.04004e+07
1.03962e+07
1.03921e+07
1.03879e+07
1.03837e+07
1.03795e+07
1.03752e+07
1.03709e+07
1.03666e+07
1.03622e+07
1.03578e+07
1.03534e+07
1.03489e+07
1.03444e+07
1.03399e+07
1.03353e+07
1.03307e+07
1.03261e+07
1.03214e+07
1.03167e+07
1.03119e+07
1.03072e+07
1.03023e+07
1.02975e+07
1.02926e+07
1.02877e+07
1.02827e+07
1.02777e+07
1.02727e+07
1.02677e+07
1.02627e+07
1.02576e+07
1.087e+07
1.08687e+07
1.08665e+07
1.08637e+07
1.08617e+07
1.08604e+07
1.08619e+07
1.08696e+07
1.0863e+07
1.08419e+07
1.08028e+07
1.07581e+07
1.07514e+07
1.0749e+07
1.07473e+07
1.07459e+07
1.07446e+07
1.07436e+07
1.07423e+07
1.07408e+07
1.07392e+07
1.07376e+07
1.0736e+07
1.07343e+07
1.07326e+07
1.07309e+07
1.07291e+07
1.07273e+07
1.07255e+07
1.07237e+07
1.07218e+07
1.072e+07
1.07181e+07
1.07163e+07
1.07144e+07
1.07125e+07
1.07107e+07
1.07088e+07
1.07069e+07
1.0705e+07
1.0703e+07
1.07011e+07
1.06992e+07
1.06972e+07
1.06953e+07
1.06933e+07
1.06913e+07
1.06894e+07
1.06874e+07
1.06854e+07
1.06834e+07
1.06813e+07
1.06793e+07
1.06773e+07
1.06752e+07
1.06731e+07
1.0671e+07
1.06689e+07
1.06668e+07
1.06647e+07
1.06626e+07
1.06604e+07
1.06583e+07
1.06561e+07
1.06539e+07
1.06517e+07
1.06495e+07
1.06473e+07
1.0645e+07
1.06428e+07
1.06405e+07
1.06382e+07
1.06359e+07
1.06336e+07
1.06313e+07
1.06289e+07
1.06266e+07
1.06242e+07
1.06218e+07
1.06194e+07
1.06169e+07
1.06145e+07
1.0612e+07
1.06095e+07
1.0607e+07
1.06045e+07
1.0602e+07
1.05994e+07
1.05968e+07
1.05942e+07
1.05916e+07
1.0589e+07
1.05863e+07
1.05836e+07
1.0581e+07
1.05782e+07
1.05755e+07
1.05728e+07
1.057e+07
1.05672e+07
1.05644e+07
1.05615e+07
1.05587e+07
1.05558e+07
1.05529e+07
1.055e+07
1.0547e+07
1.0544e+07
1.0541e+07
1.0538e+07
1.0535e+07
1.05319e+07
1.05288e+07
1.05257e+07
1.05226e+07
1.05194e+07
1.05163e+07
1.05131e+07
1.05098e+07
1.05066e+07
1.05033e+07
1.05e+07
1.04966e+07
1.04933e+07
1.04899e+07
1.04865e+07
1.04831e+07
1.04796e+07
1.04761e+07
1.04726e+07
1.0469e+07
1.04655e+07
1.04619e+07
1.04583e+07
1.04546e+07
1.04509e+07
1.04472e+07
1.04435e+07
1.04397e+07
1.04359e+07
1.04321e+07
1.04282e+07
1.04243e+07
1.04204e+07
1.04165e+07
1.04125e+07
1.04085e+07
1.04044e+07
1.04003e+07
1.03962e+07
1.03921e+07
1.03879e+07
1.03837e+07
1.03795e+07
1.03752e+07
1.03709e+07
1.03666e+07
1.03622e+07
1.03578e+07
1.03534e+07
1.03489e+07
1.03444e+07
1.03399e+07
1.03353e+07
1.03307e+07
1.03261e+07
1.03214e+07
1.03167e+07
1.03119e+07
1.03071e+07
1.03023e+07
1.02975e+07
1.02926e+07
1.02877e+07
1.02827e+07
1.02777e+07
1.02727e+07
1.02677e+07
1.02626e+07
1.02575e+07
1.09558e+07
1.09547e+07
1.09529e+07
1.09504e+07
1.09475e+07
1.09441e+07
1.09401e+07
1.09348e+07
1.09257e+07
1.09124e+07
1.08963e+07
1.08823e+07
1.08781e+07
1.08865e+07
1.08794e+07
1.08577e+07
1.08184e+07
1.07557e+07
1.07448e+07
1.0742e+07
1.07401e+07
1.07384e+07
1.07368e+07
1.0735e+07
1.07332e+07
1.07314e+07
1.07295e+07
1.07276e+07
1.07257e+07
1.07239e+07
1.0722e+07
1.07201e+07
1.07182e+07
1.07163e+07
1.07144e+07
1.07125e+07
1.07106e+07
1.07087e+07
1.07068e+07
1.07049e+07
1.0703e+07
1.07011e+07
1.06991e+07
1.06972e+07
1.06952e+07
1.06933e+07
1.06913e+07
1.06893e+07
1.06873e+07
1.06853e+07
1.06833e+07
1.06813e+07
1.06792e+07
1.06772e+07
1.06751e+07
1.06731e+07
1.0671e+07
1.06689e+07
1.06668e+07
1.06647e+07
1.06625e+07
1.06604e+07
1.06582e+07
1.06561e+07
1.06539e+07
1.06517e+07
1.06495e+07
1.06473e+07
1.0645e+07
1.06428e+07
1.06405e+07
1.06382e+07
1.06359e+07
1.06336e+07
1.06312e+07
1.06289e+07
1.06265e+07
1.06242e+07
1.06218e+07
1.06193e+07
1.06169e+07
1.06145e+07
1.0612e+07
1.06095e+07
1.0607e+07
1.06045e+07
1.06019e+07
1.05994e+07
1.05968e+07
1.05942e+07
1.05916e+07
1.0589e+07
1.05863e+07
1.05836e+07
1.05809e+07
1.05782e+07
1.05755e+07
1.05727e+07
1.057e+07
1.05672e+07
1.05644e+07
1.05615e+07
1.05587e+07
1.05558e+07
1.05529e+07
1.05499e+07
1.0547e+07
1.0544e+07
1.0541e+07
1.0538e+07
1.0535e+07
1.05319e+07
1.05288e+07
1.05257e+07
1.05226e+07
1.05194e+07
1.05163e+07
1.0513e+07
1.05098e+07
1.05066e+07
1.05033e+07
1.05e+07
1.04966e+07
1.04933e+07
1.04899e+07
1.04865e+07
1.04831e+07
1.04796e+07
1.04761e+07
1.04726e+07
1.0469e+07
1.04655e+07
1.04619e+07
1.04582e+07
1.04546e+07
1.04509e+07
1.04472e+07
1.04435e+07
1.04397e+07
1.04359e+07
1.04321e+07
1.04282e+07
1.04243e+07
1.04204e+07
1.04164e+07
1.04125e+07
1.04085e+07
1.04044e+07
1.04003e+07
1.03962e+07
1.03921e+07
1.03879e+07
1.03837e+07
1.03795e+07
1.03752e+07
1.03709e+07
1.03666e+07
1.03622e+07
1.03578e+07
1.03534e+07
1.03489e+07
1.03444e+07
1.03399e+07
1.03353e+07
1.03307e+07
1.03261e+07
1.03214e+07
1.03167e+07
1.03119e+07
1.03071e+07
1.03023e+07
1.02975e+07
1.02926e+07
1.02876e+07
1.02827e+07
1.02777e+07
1.02727e+07
1.02676e+07
1.02625e+07
1.02574e+07
1.10416e+07
1.10405e+07
1.10384e+07
1.10354e+07
1.10316e+07
1.10267e+07
1.10207e+07
1.10133e+07
1.10041e+07
1.09933e+07
1.09815e+07
1.09699e+07
1.09594e+07
1.09493e+07
1.09357e+07
1.09174e+07
1.08947e+07
1.08715e+07
1.0858e+07
1.08553e+07
1.08358e+07
1.07983e+07
1.07419e+07
1.0736e+07
1.07338e+07
1.07319e+07
1.07299e+07
1.07279e+07
1.07259e+07
1.0724e+07
1.07221e+07
1.07202e+07
1.07182e+07
1.07163e+07
1.07144e+07
1.07125e+07
1.07106e+07
1.07087e+07
1.07068e+07
1.07049e+07
1.07029e+07
1.0701e+07
1.06991e+07
1.06971e+07
1.06952e+07
1.06932e+07
1.06912e+07
1.06892e+07
1.06872e+07
1.06852e+07
1.06832e+07
1.06812e+07
1.06792e+07
1.06771e+07
1.06751e+07
1.0673e+07
1.06709e+07
1.06688e+07
1.06667e+07
1.06646e+07
1.06625e+07
1.06604e+07
1.06582e+07
1.0656e+07
1.06538e+07
1.06516e+07
1.06494e+07
1.06472e+07
1.0645e+07
1.06427e+07
1.06405e+07
1.06382e+07
1.06359e+07
1.06336e+07
1.06312e+07
1.06289e+07
1.06265e+07
1.06241e+07
1.06217e+07
1.06193e+07
1.06169e+07
1.06144e+07
1.0612e+07
1.06095e+07
1.0607e+07
1.06045e+07
1.06019e+07
1.05994e+07
1.05968e+07
1.05942e+07
1.05916e+07
1.0589e+07
1.05863e+07
1.05836e+07
1.05809e+07
1.05782e+07
1.05755e+07
1.05727e+07
1.057e+07
1.05672e+07
1.05643e+07
1.05615e+07
1.05587e+07
1.05558e+07
1.05529e+07
1.05499e+07
1.0547e+07
1.0544e+07
1.0541e+07
1.0538e+07
1.0535e+07
1.05319e+07
1.05288e+07
1.05257e+07
1.05226e+07
1.05194e+07
1.05163e+07
1.0513e+07
1.05098e+07
1.05066e+07
1.05033e+07
1.05e+07
1.04966e+07
1.04933e+07
1.04899e+07
1.04865e+07
1.04831e+07
1.04796e+07
1.04761e+07
1.04726e+07
1.0469e+07
1.04655e+07
1.04619e+07
1.04582e+07
1.04546e+07
1.04509e+07
1.04472e+07
1.04435e+07
1.04397e+07
1.04359e+07
1.04321e+07
1.04282e+07
1.04243e+07
1.04204e+07
1.04164e+07
1.04125e+07
1.04085e+07
1.04044e+07
1.04003e+07
1.03962e+07
1.03921e+07
1.03879e+07
1.03837e+07
1.03795e+07
1.03752e+07
1.03709e+07
1.03666e+07
1.03622e+07
1.03578e+07
1.03534e+07
1.03489e+07
1.03444e+07
1.03399e+07
1.03353e+07
1.03307e+07
1.03261e+07
1.03214e+07
1.03167e+07
1.03119e+07
1.03071e+07
1.03023e+07
1.02975e+07
1.02926e+07
1.02876e+07
1.02827e+07
1.02777e+07
1.02726e+07
1.02676e+07
1.02625e+07
1.02573e+07
1.11291e+07
1.11277e+07
1.11254e+07
1.11219e+07
1.11174e+07
1.11118e+07
1.11049e+07
1.10967e+07
1.10872e+07
1.10765e+07
1.10648e+07
1.10523e+07
1.10391e+07
1.10249e+07
1.10092e+07
1.09916e+07
1.09725e+07
1.09529e+07
1.09342e+07
1.09156e+07
1.08933e+07
1.08665e+07
1.08376e+07
1.0814e+07
1.07907e+07
1.07441e+07
1.07304e+07
1.0728e+07
1.07261e+07
1.07241e+07
1.07221e+07
1.07202e+07
1.07182e+07
1.07163e+07
1.07144e+07
1.07125e+07
1.07106e+07
1.07086e+07
1.07067e+07
1.07048e+07
1.07028e+07
1.07009e+07
1.0699e+07
1.0697e+07
1.06951e+07
1.06931e+07
1.06911e+07
1.06891e+07
1.06872e+07
1.06852e+07
1.06831e+07
1.06811e+07
1.06791e+07
1.06771e+07
1.0675e+07
1.06729e+07
1.06709e+07
1.06688e+07
1.06667e+07
1.06646e+07
1.06624e+07
1.06603e+07
1.06581e+07
1.0656e+07
1.06538e+07
1.06516e+07
1.06494e+07
1.06472e+07
1.06449e+07
1.06427e+07
1.06404e+07
1.06381e+07
1.06358e+07
1.06335e+07
1.06312e+07
1.06288e+07
1.06265e+07
1.06241e+07
1.06217e+07
1.06193e+07
1.06169e+07
1.06144e+07
1.0612e+07
1.06095e+07
1.0607e+07
1.06044e+07
1.06019e+07
1.05994e+07
1.05968e+07
1.05942e+07
1.05916e+07
1.05889e+07
1.05863e+07
1.05836e+07
1.05809e+07
1.05782e+07
1.05755e+07
1.05727e+07
1.057e+07
1.05672e+07
1.05643e+07
1.05615e+07
1.05586e+07
1.05558e+07
1.05529e+07
1.05499e+07
1.0547e+07
1.0544e+07
1.0541e+07
1.0538e+07
1.0535e+07
1.05319e+07
1.05288e+07
1.05257e+07
1.05226e+07
1.05194e+07
1.05162e+07
1.0513e+07
1.05098e+07
1.05066e+07
1.05033e+07
1.05e+07
1.04966e+07
1.04933e+07
1.04899e+07
1.04865e+07
1.04831e+07
1.04796e+07
1.04761e+07
1.04726e+07
1.0469e+07
1.04655e+07
1.04619e+07
1.04582e+07
1.04546e+07
1.04509e+07
1.04472e+07
1.04435e+07
1.04397e+07
1.04359e+07
1.04321e+07
1.04282e+07
1.04243e+07
1.04204e+07
1.04164e+07
1.04125e+07
1.04085e+07
1.04044e+07
1.04003e+07
1.03962e+07
1.03921e+07
1.03879e+07
1.03837e+07
1.03795e+07
1.03752e+07
1.03709e+07
1.03666e+07
1.03622e+07
1.03578e+07
1.03534e+07
1.03489e+07
1.03444e+07
1.03399e+07
1.03353e+07
1.03307e+07
1.03261e+07
1.03214e+07
1.03167e+07
1.03119e+07
1.03071e+07
1.03023e+07
1.02974e+07
1.02925e+07
1.02876e+07
1.02826e+07
1.02776e+07
1.02726e+07
1.02675e+07
1.02624e+07
1.02572e+07
1.12192e+07
1.12177e+07
1.1215e+07
1.12112e+07
1.12061e+07
1.11998e+07
1.11923e+07
1.11834e+07
1.11733e+07
1.1162e+07
1.11495e+07
1.11359e+07
1.11212e+07
1.11053e+07
1.10882e+07
1.10698e+07
1.10504e+07
1.103e+07
1.10089e+07
1.09868e+07
1.09632e+07
1.09379e+07
1.09114e+07
1.08847e+07
1.0857e+07
1.08268e+07
1.07986e+07
1.07673e+07
1.07268e+07
1.07239e+07
1.0722e+07
1.07201e+07
1.07182e+07
1.07163e+07
1.07143e+07
1.07124e+07
1.07105e+07
1.07085e+07
1.07066e+07
1.07047e+07
1.07027e+07
1.07008e+07
1.06989e+07
1.06969e+07
1.0695e+07
1.0693e+07
1.0691e+07
1.0689e+07
1.06871e+07
1.06851e+07
1.06831e+07
1.0681e+07
1.0679e+07
1.0677e+07
1.06749e+07
1.06729e+07
1.06708e+07
1.06687e+07
1.06666e+07
1.06645e+07
1.06624e+07
1.06602e+07
1.06581e+07
1.06559e+07
1.06537e+07
1.06516e+07
1.06493e+07
1.06471e+07
1.06449e+07
1.06426e+07
1.06404e+07
1.06381e+07
1.06358e+07
1.06335e+07
1.06312e+07
1.06288e+07
1.06265e+07
1.06241e+07
1.06217e+07
1.06193e+07
1.06168e+07
1.06144e+07
1.06119e+07
1.06095e+07
1.0607e+07
1.06044e+07
1.06019e+07
1.05993e+07
1.05968e+07
1.05942e+07
1.05916e+07
1.05889e+07
1.05863e+07
1.05836e+07
1.05809e+07
1.05782e+07
1.05755e+07
1.05727e+07
1.05699e+07
1.05671e+07
1.05643e+07
1.05615e+07
1.05586e+07
1.05558e+07
1.05529e+07
1.05499e+07
1.0547e+07
1.0544e+07
1.0541e+07
1.0538e+07
1.0535e+07
1.05319e+07
1.05288e+07
1.05257e+07
1.05226e+07
1.05194e+07
1.05162e+07
1.0513e+07
1.05098e+07
1.05066e+07
1.05033e+07
1.05e+07
1.04966e+07
1.04933e+07
1.04899e+07
1.04865e+07
1.0483e+07
1.04796e+07
1.04761e+07
1.04726e+07
1.0469e+07
1.04655e+07
1.04619e+07