/*--------------------------------*- C++ -*----------------------------------*\
  =========                 |
  \\      /  F ield         | OpenFOAM: The Open Source CFD Toolbox
   \\    /   O peration     | Website:  https://openfoam.org
    \\  /    A nd           | Version:  10
     \\/     M anipulation  |
\*---------------------------------------------------------------------------*/
FoamFile
{
    format      ascii;
    class       volVectorField;
    location    "40";
    object      Ub;
}
// * * * * * * * * * * * * * * * * * * * * * * * * * * * * * * * * * * * * * //

dimensions      [0 1 -1 0 0 0 0];

internalField   nonuniform List<vector> 
100
(
(3.79904e-07 0 0)
(1.14796e-06 0 0)
(1.93001e-06 0 0)
(2.7207e-06 0 0)
(3.51595e-06 0 0)
(4.31399e-06 0 0)
(5.11392e-06 0 0)
(5.91528e-06 0 0)
(6.7178e-06 0 0)
(7.52136e-06 0 0)
(8.3259e-06 0 0)
(9.1314e-06 0 0)
(9.93787e-06 0 0)
(1.07454e-05 0 0)
(1.15539e-05 0 0)
(1.23636e-05 0 0)
(1.31744e-05 0 0)
(1.39865e-05 0 0)
(1.47999e-05 0 0)
(1.56147e-05 0 0)
(1.6431e-05 0 0)
(1.72488e-05 0 0)
(1.80683e-05 0 0)
(1.88894e-05 0 0)
(1.97124e-05 0 0)
(2.05373e-05 0 0)
(2.13641e-05 0 0)
(2.2193e-05 0 0)
(2.3024e-05 0 0)
(2.38574e-05 0 0)
(2.46931e-05 0 0)
(2.55312e-05 0 0)
(2.6372e-05 0 0)
(2.72154e-05 0 0)
(2.80617e-05 0 0)
(2.8911e-05 0 0)
(2.97633e-05 0 0)
(3.0619e-05 0 0)
(3.1478e-05 0 0)
(3.23406e-05 0 0)
(3.3207e-05 0 0)
(3.40773e-05 0 0)
(3.49519e-05 0 0)
(3.58309e-05 0 0)
(3.67146e-05 0 0)
(3.76033e-05 0 0)
(3.84973e-05 0 0)
(3.9397e-05 0 0)
(4.03028e-05 0 0)
(4.12151e-05 0 0)
(4.21346e-05 0 0)
(4.30617e-05 0 0)
(4.39973e-05 0 0)
(4.4942e-05 0 0)
(4.58968e-05 0 0)
(4.68628e-05 0 0)
(4.78412e-05 0 0)
(4.88336e-05 0 0)
(4.98418e-05 0 0)
(5.0868e-05 0 0)
(5.19148e-05 0 0)
(5.29856e-05 0 0)
(5.40844e-05 0 0)
(5.52167e-05 0 0)
(5.63892e-05 0 0)
(5.7611e-05 0 0)
(5.88943e-05 0 0)
(6.02556e-05 0 0)
(6.17185e-05 0 0)
(6.33167e-05 0 0)
(6.51018e-05 0 0)
(6.71555e-05 0 0)
(6.96179e-05 0 0)
(7.27514e-05 0 0)
(7.71139e-05 0 0)
(8.41461e-05 0 0)
(9.90969e-05 0 0)
(0.000162207 0 0)
(0.00030818 0 0)
(0.000401593 0 0)
(0.000401639 0 0)
(0.000401639 0 0)
(0.000401639 0 0)
(0.000401639 0 0)
(0.000401639 0 0)
(0.000401639 0 0)
(0.000401639 0 0)
(0.000401639 0 0)
(0.000401639 0 0)
(0.000401639 0 0)
(0.000401639 0 0)
(0.000401639 0 0)
(0.000401639 0 0)
(0.000401639 0 0)
(0.000401639 0 0)
(0.000401639 0 0)
(0.000401639 0 0)
(0.000401639 0 0)
(0.000401639 0 0)
(0.000401639 0 0)
)
;

boundaryField
{
    inlet
    {
        type            fixedValue;
        value           uniform (0 0 0);
    }
    outlet
    {
        type            zeroGradient;
    }
    yzfaces
    {
        type            empty;
    }
}


// ************************************************************************* //
