/*--------------------------------*- C++ -*----------------------------------*\
  =========                 |
  \\      /  F ield         | OpenFOAM: The Open Source CFD Toolbox
   \\    /   O peration     | Website:  https://openfoam.org
    \\  /    A nd           | Version:  10
     \\/     M anipulation  |
\*---------------------------------------------------------------------------*/
FoamFile
{
    format      ascii;
    class       volScalarField;
    location    "10300";
    object      p;
}
// * * * * * * * * * * * * * * * * * * * * * * * * * * * * * * * * * * * * * //

dimensions      [1 -1 -2 0 0 0 0];

internalField   nonuniform List<scalar> 
6400
(
111.403
111.416
111.44
111.477
111.527
111.59
111.666
111.756
111.861
111.98
112.115
112.267
112.437
112.626
112.837
113.07
113.329
113.617
113.938
114.297
114.703
115.165
115.699
116.327
117.068
119.203
426.85
785.433
1132.51
1479.83
1820.96
2152.35
2377.67
2510.57
2636.19
2752.05
2854.25
2937.85
2997.5
3028.61
3028.61
2997.5
2937.85
2854.25
2752.05
2636.19
2510.57
2377.67
2152.35
1820.96
1479.83
1132.51
785.433
426.85
119.203
117.068
116.327
115.699
115.165
114.703
114.297
113.938
113.617
113.329
113.07
112.837
112.626
112.437
112.267
112.115
111.98
111.861
111.756
111.666
111.59
111.527
111.477
111.44
111.416
111.403
111.109
111.121
111.146
111.183
111.233
111.296
111.372
111.462
111.566
111.685
111.821
111.972
112.142
112.331
112.542
112.775
113.034
113.321
113.642
114.001
114.407
114.868
115.401
116.028
116.789
118.039
129.978
491.643
838.327
1186
1527.32
1859.18
2084.95
2218.21
2344.4
2461.15
2564.48
2649.32
2710.01
2741.71
2741.71
2710.01
2649.32
2564.48
2461.15
2344.4
2218.21
2084.95
1859.18
1527.32
1186
838.327
491.643
129.978
118.039
116.789
116.028
115.401
114.868
114.407
114.001
113.642
113.321
113.034
112.775
112.542
112.331
112.142
111.972
111.821
111.685
111.566
111.462
111.372
111.296
111.233
111.183
111.146
111.121
111.109
110.785
110.797
110.822
110.859
110.909
110.972
111.048
111.138
111.242
111.361
111.496
111.648
111.818
112.007
112.217
112.45
112.708
112.996
113.316
113.674
114.079
114.538
115.069
115.693
116.458
117.592
118.766
169.603
515.295
863.876
1205.65
1538.62
1765.41
1899.46
2026.96
2145.82
2251.81
2339.58
2402.77
2435.87
2435.87
2402.77
2339.58
2251.81
2145.82
2026.96
1899.46
1765.41
1538.62
1205.65
863.876
515.295
169.603
118.766
117.592
116.458
115.693
115.069
114.538
114.079
113.674
113.316
112.996
112.708
112.45
112.217
112.007
111.818
111.648
111.496
111.361
111.242
111.138
111.048
110.972
110.909
110.859
110.822
110.797
110.785
110.429
110.442
110.466
110.503
110.553
110.616
110.692
110.782
110.886
111.005
111.14
111.291
111.461
111.65
111.859
112.092
112.35
112.636
112.956
113.313
113.715
114.172
114.699
115.317
116.072
117.1
118.143
118.808
160.104
510.706
853.238
1188.2
1416.72
1552.03
1681.7
1804.32
1915.08
2008.23
2076.03
2111.69
2111.69
2076.03
2008.23
1915.08
1804.32
1681.7
1552.03
1416.72
1188.2
853.238
510.706
160.104
118.808
118.143
117.1
116.072
115.317
114.699
114.172
113.715
113.313
112.956
112.636
112.35
112.092
111.859
111.65
111.461
111.291
111.14
111.005
110.886
110.782
110.692
110.616
110.553
110.503
110.466
110.442
110.429
110.038
110.05
110.075
110.112
110.162
110.224
110.3
110.39
110.494
110.613
110.748
110.899
111.068
111.256
111.465
111.697
111.954
112.24
112.558
112.913
113.313
113.766
114.286
114.894
115.628
116.56
117.492
118.151
118.744
125.833
467.098
805.26
1036.38
1173.25
1305.96
1434.73
1553.1
1655.34
1730.99
1770.92
1770.92
1730.99
1655.34
1553.1
1434.73
1305.96
1173.25
1036.38
805.26
467.098
125.833
118.744
118.151
117.492
116.56
115.628
114.894
114.286
113.766
113.313
112.913
112.558
112.24
111.954
111.697
111.465
111.256
111.068
110.899
110.748
110.613
110.494
110.39
110.3
110.224
110.162
110.112
110.075
110.05
110.038
109.608
109.62
109.645
109.682
109.731
109.794
109.87
109.959
110.063
110.181
110.316
110.467
110.635
110.823
111.031
111.262
111.518
111.802
112.118
112.47
112.866
113.314
113.826
114.419
115.123
115.967
116.802
117.439
117.974
118.284
119.065
387.801
622.003
760.012
896.05
1034.78
1164.44
1281.82
1370.6
1417.34
1417.34
1370.6
1281.82
1164.44
1034.78
896.05
760.012
622.003
387.801
119.065
118.284
117.974
117.439
116.802
115.967
115.123
114.419
113.826
113.314
112.866
112.47
112.118
111.802
111.518
111.262
111.031
110.823
110.635
110.467
110.316
110.181
110.063
109.959
109.87
109.794
109.731
109.682
109.645
109.62
109.608
109.135
109.147
109.171
109.208
109.258
109.32
109.396
109.485
109.588
109.706
109.84
109.99
110.158
110.345
110.552
110.782
111.036
111.318
111.631
111.98
112.371
112.811
113.312
113.886
114.553
115.318
116.067
116.669
117.153
117.434
117.408
117.177
191.079
310.618
446.529
603.097
746.726
890.194
1001.33
1058.47
1058.47
1001.33
890.194
746.726
603.097
446.529
310.618
191.079
117.177
117.408
117.434
117.153
116.669
116.067
115.318
114.553
113.886
113.312
112.811
112.371
111.98
111.631
111.318
111.036
110.782
110.552
110.345
110.158
109.99
109.84
109.706
109.588
109.485
109.396
109.32
109.258
109.208
109.171
109.147
109.135
108.614
108.626
108.651
108.687
108.737
108.799
108.874
108.963
109.066
109.183
109.317
109.466
109.633
109.818
110.024
110.252
110.504
110.783
111.093
111.437
111.821
112.252
112.738
113.29
113.916
114.607
115.28
115.84
116.28
116.541
116.567
116.455
116.533
116.454
116.679
173.184
299.386
489.353
638.369
709.36
709.36
638.369
489.353
299.386
173.184
116.679
116.454
116.533
116.455
116.567
116.541
116.28
115.84
115.28
114.607
113.916
113.29
112.738
112.252
111.821
111.437
111.093
110.783
110.504
110.252
110.024
109.818
109.633
109.466
109.317
109.183
109.066
108.963
108.874
108.799
108.737
108.687
108.651
108.626
108.614
108.041
108.053
108.078
108.114
108.163
108.225
108.3
108.388
108.49
108.607
108.74
108.888
109.054
109.238
109.441
109.667
109.916
110.192
110.497
110.835
111.21
111.629
112.098
112.623
113.207
113.832
114.436
114.949
115.351
115.599
115.667
115.635
115.668
115.661
115.69
115.687
116.211
164.518
325.87
403.114
403.114
325.87
164.518
116.211
115.687
115.69
115.661
115.668
115.635
115.667
115.599
115.351
114.949
114.436
113.832
113.207
112.623
112.098
111.629
111.21
110.835
110.497
110.192
109.916
109.667
109.441
109.238
109.054
108.888
108.74
108.607
108.49
108.388
108.3
108.225
108.163
108.114
108.078
108.053
108.041
107.411
107.423
107.447
107.483
107.532
107.593
107.667
107.755
107.857
107.973
108.104
108.251
108.415
108.597
108.798
109.021
109.267
109.538
109.837
110.167
110.533
110.937
111.386
111.882
112.421
112.985
113.526
113.994
114.361
114.599
114.7
114.719
114.746
114.757
114.775
114.789
114.815
115.893
165.315
208.69
208.69
165.315
115.893
114.815
114.789
114.775
114.757
114.746
114.719
114.7
114.599
114.361
113.994
113.526
112.985
112.421
111.882
111.386
110.937
110.533
110.167
109.837
109.538
109.267
109.021
108.798
108.597
108.415
108.251
108.104
107.973
107.857
107.755
107.667
107.593
107.532
107.483
107.447
107.423
107.411
106.716
106.728
106.752
106.788
106.836
106.897
106.971
107.058
107.158
107.273
107.403
107.548
107.71
107.889
108.088
108.307
108.548
108.814
109.106
109.427
109.78
110.169
110.594
111.058
111.553
112.061
112.545
112.969
113.305
113.535
113.657
113.711
113.742
113.759
113.775
113.79
113.809
114
126.998
143.749
143.749
126.998
114
113.809
113.79
113.775
113.759
113.742
113.711
113.657
113.535
113.305
112.969
112.545
112.061
111.553
111.058
110.594
110.169
109.78
109.427
109.106
108.814
108.548
108.307
108.088
107.889
107.71
107.548
107.403
107.273
107.158
107.058
106.971
106.897
106.836
106.788
106.752
106.728
106.716
105.951
105.963
105.987
106.022
106.07
106.13
106.203
106.289
106.388
106.501
106.629
106.772
106.932
107.108
107.303
107.518
107.754
108.012
108.296
108.606
108.945
109.315
109.716
110.146
110.597
111.053
111.487
111.868
112.176
112.397
112.532
112.608
112.645
112.663
112.679
112.691
112.701
112.73
117.327
125.502
125.502
117.327
112.73
112.701
112.691
112.679
112.663
112.645
112.608
112.532
112.397
112.176
111.868
111.487
111.053
110.597
110.146
109.716
109.315
108.945
108.606
108.296
108.012
107.754
107.518
107.303
107.108
106.932
106.772
106.629
106.501
106.388
106.289
106.203
106.13
106.07
106.022
105.987
105.963
105.951
105.108
105.12
105.143
105.178
105.225
105.285
105.357
105.441
105.539
105.65
105.776
105.917
106.073
106.246
106.436
106.645
106.875
107.125
107.398
107.696
108.019
108.368
108.742
109.138
109.548
109.956
110.343
110.685
110.966
111.177
111.318
111.407
111.447
111.467
111.482
111.491
111.495
111.491
112.745
117.565
117.565
112.745
111.491
111.495
111.491
111.482
111.467
111.447
111.407
111.318
111.177
110.966
110.685
110.343
109.956
109.548
109.138
108.742
108.368
108.019
107.696
107.398
107.125
106.875
106.645
106.436
106.246
106.073
105.917
105.776
105.65
105.539
105.441
105.357
105.285
105.225
105.178
105.143
105.12
105.108
104.179
104.19
104.213
104.248
104.294
104.353
104.423
104.506
104.602
104.711
104.834
104.972
105.124
105.293
105.478
105.681
105.902
106.143
106.405
106.688
106.993
107.32
107.666
108.028
108.397
108.762
109.106
109.412
109.668
109.866
110.008
110.102
110.144
110.165
110.179
110.187
110.188
110.183
110.183
113.584
113.584
110.183
110.183
110.188
110.187
110.179
110.165
110.144
110.102
110.008
109.866
109.668
109.412
109.106
108.762
108.397
108.028
107.666
107.32
106.993
106.688
106.405
106.143
105.902
105.681
105.478
105.293
105.124
104.972
104.834
104.711
104.602
104.506
104.423
104.353
104.294
104.248
104.213
104.19
104.179
103.154
103.166
103.188
103.222
103.267
103.324
103.393
103.474
103.568
103.674
103.794
103.928
104.076
104.239
104.418
104.613
104.826
105.056
105.304
105.572
105.857
106.16
106.478
106.806
107.138
107.462
107.767
108.04
108.271
108.456
108.593
108.688
108.731
108.751
108.764
108.772
108.773
108.767
108.757
111.459
111.459
108.757
108.767
108.773
108.772
108.764
108.751
108.731
108.688
108.593
108.456
108.271
108.04
107.767
107.462
107.138
106.806
106.478
106.16
105.857
105.572
105.304
105.056
104.826
104.613
104.418
104.239
104.076
103.928
103.794
103.674
103.568
103.474
103.393
103.324
103.267
103.222
103.188
103.166
103.154
102.024
102.035
102.057
102.09
102.134
102.19
102.257
102.335
102.426
102.53
102.646
102.775
102.918
103.075
103.246
103.433
103.635
103.853
104.087
104.337
104.602
104.88
105.169
105.465
105.76
106.047
106.316
106.559
106.767
106.936
107.065
107.157
107.199
107.218
107.231
107.238
107.239
107.234
107.223
109.78
109.78
107.223
107.234
107.239
107.238
107.231
107.218
107.199
107.157
107.065
106.936
106.767
106.559
106.316
106.047
105.76
105.465
105.169
104.88
104.602
104.337
104.087
103.853
103.635
103.433
103.246
103.075
102.918
102.775
102.646
102.53
102.426
102.335
102.257
102.19
102.134
102.09
102.057
102.035
102.024
100.697
100.708
100.729
100.761
100.804
100.857
100.922
100.998
101.086
101.185
101.296
101.42
101.556
101.705
101.868
102.044
102.234
102.438
102.655
102.885
103.127
103.379
103.638
103.9
104.159
104.41
104.645
104.857
105.04
105.192
105.311
105.396
105.436
105.454
105.466
105.472
105.473
105.468
105.456
108.015
108.015
105.456
105.468
105.473
105.472
105.466
105.454
105.436
105.396
105.311
105.192
105.04
104.857
104.645
104.41
104.159
103.9
103.638
103.379
103.127
102.885
102.655
102.438
102.234
102.044
101.868
101.705
101.556
101.42
101.296
101.185
101.086
100.998
100.922
100.857
100.804
100.761
100.729
100.708
100.697
99.2235
99.2336
99.254
99.2846
99.3255
99.3769
99.4388
99.5114
99.5949
99.6894
99.7951
99.9123
100.041
100.182
100.334
100.499
100.675
100.863
101.063
101.272
101.491
101.716
101.945
102.176
102.402
102.62
102.823
103.007
103.168
103.302
103.408
103.486
103.521
103.538
103.549
103.554
103.554
103.549
103.537
106.145
106.145
103.537
103.549
103.554
103.554
103.549
103.538
103.521
103.486
103.408
103.302
103.168
103.007
102.823
102.62
102.402
102.176
101.945
101.716
101.491
101.272
101.063
100.863
100.675
100.499
100.334
100.182
100.041
99.9123
99.7951
99.6894
99.5949
99.5114
99.4388
99.3769
99.3255
99.2846
99.254
99.2336
99.2235
97.7394
97.7491
97.7685
97.7978
97.8368
97.8858
97.9448
98.0139
98.0931
98.1827
98.2827
98.3933
98.5145
98.6463
98.7888
98.9417
99.1049
99.2779
99.4601
99.6503
99.8471
100.049
100.253
100.455
100.654
100.844
101.021
101.182
101.322
101.44
101.534
101.603
101.635
101.649
101.659
101.663
101.663
101.657
101.646
104.316
104.316
101.646
101.657
101.663
101.663
101.659
101.649
101.635
101.603
101.534
101.44
101.322
101.182
101.021
100.844
100.654
100.455
100.253
100.049
99.8471
99.6503
99.4601
99.2779
99.1049
98.9417
98.7888
98.6463
98.5145
98.3933
98.2827
98.1827
98.0931
98.0139
97.9448
97.8858
97.8368
97.7978
97.7685
97.7491
97.7394
96.2456
96.2548
96.2733
96.3011
96.3383
96.3848
96.4407
96.5061
96.581
96.6656
96.7598
96.8636
96.9771
97.1002
97.2326
97.3743
97.5247
97.6833
97.8493
98.0217
98.199
98.3793
98.5605
98.7398
98.9143
99.0806
99.2356
99.376
99.4991
99.6027
99.6854
99.7461
99.7737
99.7862
99.7942
99.7977
99.7966
99.7911
99.78
102.519
102.519
99.78
99.7911
99.7966
99.7977
99.7942
99.7862
99.7737
99.7461
99.6854
99.6027
99.4991
99.376
99.2356
99.0806
98.9143
98.7398
98.5605
98.3793
98.199
98.0217
97.8493
97.6833
97.5247
97.3743
97.2326
97.1002
96.9771
96.8636
96.7598
96.6656
96.581
96.5061
96.4407
96.3848
96.3383
96.3011
96.2733
96.2548
96.2456
94.7425
94.7513
94.7688
94.7951
94.8303
94.8743
94.9271
94.9888
95.0594
95.1389
95.2272
95.3243
95.4302
95.5446
95.6673
95.798
95.9362
96.0813
96.2323
96.3882
96.5477
96.709
96.8702
97.0289
97.1827
97.3288
97.4646
97.5875
97.6953
97.7861
97.8584
97.9114
97.9352
97.9458
97.9524
97.9549
97.9534
97.9478
97.9367
100.754
100.754
97.9367
97.9478
97.9534
97.9549
97.9524
97.9458
97.9352
97.9114
97.8584
97.7861
97.6953
97.5875
97.4646
97.3288
97.1827
97.0289
96.8702
96.709
96.5477
96.3882
96.2323
96.0813
95.9362
95.798
95.6673
95.5446
95.4302
95.3243
95.2272
95.1389
95.0594
94.9888
94.9271
94.8743
94.8303
94.7951
94.7688
94.7513
94.7425
93.2307
93.2389
93.2555
93.2804
93.3135
93.3549
93.4046
93.4626
93.5288
93.6032
93.6858
93.7763
93.8747
93.9807
94.0941
94.2143
94.3409
94.4732
94.6104
94.7513
94.8946
95.0389
95.1824
95.3231
95.4588
95.5873
95.7065
95.8142
95.9085
95.9878
96.0509
96.0967
96.117
96.1258
96.1311
96.1327
96.1307
96.125
96.114
99.0188
99.0188
96.114
96.125
96.1307
96.1327
96.1311
96.1258
96.117
96.0967
96.0509
95.9878
95.9085
95.8142
95.7065
95.5873
95.4588
95.3231
95.1824
95.0389
94.8946
94.7513
94.6104
94.4732
94.3409
94.2143
94.0941
93.9807
93.8747
93.7763
93.6858
93.6032
93.5288
93.4626
93.4046
93.3549
93.3135
93.2804
93.2555
93.2389
93.2307
91.7106
91.7183
91.7339
91.7573
91.7884
91.8273
91.8739
91.9282
91.9901
92.0595
92.1364
92.2205
92.3116
92.4095
92.5139
92.6242
92.7399
92.8604
92.9847
93.1118
93.2406
93.3696
93.4974
93.6221
93.742
93.8552
93.9599
94.0542
94.1366
94.2058
94.2605
94.2999
94.3169
94.3242
94.3282
94.329
94.3265
94.3207
94.3097
97.3118
97.3118
94.3097
94.3207
94.3265
94.329
94.3282
94.3242
94.3169
94.2999
94.2605
94.2058
94.1366
94.0542
93.9599
93.8552
93.742
93.6221
93.4974
93.3696
93.2406
93.1118
92.9847
92.8604
92.7399
92.6242
92.5139
92.4095
92.3116
92.2205
92.1364
92.0595
91.9901
91.9282
91.8739
91.8273
91.7884
91.7573
91.7339
91.7183
91.7106
90.1826
90.19
90.2046
90.2264
90.2556
90.2919
90.3355
90.3861
90.4438
90.5084
90.5797
90.6575
90.7417
90.8319
90.9277
91.0287
91.1342
91.2436
91.3561
91.4707
91.5863
91.7016
91.8154
91.926
92.032
92.1317
92.2236
92.3062
92.3781
92.4382
92.4854
92.5191
92.5331
92.5389
92.5418
92.5417
92.5388
92.533
92.522
95.6325
95.6325
92.522
92.533
92.5388
92.5417
92.5418
92.5389
92.5331
92.5191
92.4854
92.4382
92.3781
92.3062
92.2236
92.1317
92.032
91.926
91.8154
91.7016
91.5863
91.4707
91.3561
91.2436
91.1342
91.0287
90.9277
90.8319
90.7417
90.6575
90.5797
90.5084
90.4438
90.3861
90.3355
90.2919
90.2556
90.2264
90.2046
90.19
90.1826
88.6474
88.6543
88.6679
88.6883
88.7155
88.7494
88.79
88.8371
88.8906
88.9505
89.0164
89.0883
89.1658
89.2487
89.3364
89.4286
89.5246
89.6238
89.7255
89.8286
89.9322
90.0353
90.1365
90.2346
90.3282
90.416
90.4966
90.5688
90.6314
90.6834
90.724
90.7524
90.7637
90.7682
90.77
90.7693
90.766
90.76
90.7491
93.9807
93.9807
90.7491
90.76
90.766
90.7693
90.77
90.7682
90.7637
90.7524
90.724
90.6834
90.6314
90.5688
90.4966
90.416
90.3282
90.2346
90.1365
90.0353
89.9322
89.8286
89.7255
89.6238
89.5246
89.4286
89.3364
89.2487
89.1658
89.0883
89.0164
88.9505
88.8906
88.8371
88.79
88.7494
88.7155
88.6883
88.6679
88.6543
88.6474
87.1054
87.1118
87.1245
87.1435
87.1688
87.2003
87.2379
87.2816
87.3311
87.3864
87.4473
87.5135
87.5847
87.6605
87.7407
87.8246
87.9118
88.0016
88.0933
88.186
88.2788
88.3707
88.4607
88.5476
88.6302
88.7074
88.778
88.841
88.8953
88.9401
88.9747
88.9984
89.0073
89.0105
89.0114
89.01
89.0063
89.0003
88.9894
92.3569
92.3569
88.9894
89.0003
89.0063
89.01
89.0114
89.0105
89.0073
88.9984
88.9747
88.9401
88.8953
88.841
88.778
88.7074
88.6302
88.5476
88.4607
88.3707
88.2788
88.186
88.0933
88.0016
87.9118
87.8246
87.7407
87.6605
87.5847
87.5135
87.4473
87.3864
87.3311
87.2816
87.2379
87.2003
87.1688
87.1435
87.1245
87.1118
87.1054
85.557
85.5629
85.5747
85.5923
85.6158
85.645
85.6798
85.7201
85.7659
85.8169
85.8728
85.9336
85.9988
86.0681
86.1412
86.2175
86.2965
86.3776
86.4601
86.5433
86.6263
86.7082
86.788
86.8649
86.9377
87.0054
87.0671
87.1218
87.1688
87.2071
87.2362
87.2557
87.2624
87.2645
87.2645
87.2625
87.2584
87.2523
87.2415
90.762
90.762
87.2415
87.2523
87.2584
87.2625
87.2645
87.2645
87.2624
87.2557
87.2362
87.2071
87.1688
87.1218
87.0671
87.0054
86.9377
86.8649
86.788
86.7082
86.6263
86.5433
86.4601
86.3776
86.2965
86.2175
86.1412
86.0681
85.9988
85.9336
85.8728
85.8169
85.7659
85.7201
85.6798
85.645
85.6158
85.5923
85.5747
85.5629
85.557
84.0027
84.0082
84.0191
84.0354
84.0571
84.084
84.1162
84.1533
84.1954
84.2423
84.2936
84.3492
84.4088
84.472
84.5384
84.6076
84.679
84.7521
84.8262
84.9007
84.9748
85.0476
85.1184
85.1862
85.2502
85.3094
85.3632
85.4105
85.4508
85.4833
85.5075
85.5231
85.5278
85.5288
85.5281
85.5255
85.521
85.5148
85.504
89.1979
89.1979
85.504
85.5148
85.521
85.5255
85.5281
85.5288
85.5278
85.5231
85.5075
85.4833
85.4508
85.4105
85.3632
85.3094
85.2502
85.1862
85.1184
85.0476
84.9748
84.9007
84.8262
84.7521
84.679
84.6076
84.5384
84.472
84.4088
84.3492
84.2936
84.2423
84.1954
84.1533
84.1162
84.084
84.0571
84.0354
84.0191
84.0082
84.0027
82.443
82.448
82.4581
82.4731
82.4931
82.5179
82.5475
82.5816
82.6203
82.6632
82.7101
82.7609
82.8152
82.8726
82.9328
82.9954
83.0598
83.1256
83.192
83.2586
83.3245
83.3892
83.4517
83.5114
83.5674
83.6191
83.6656
83.7062
83.7405
83.7677
83.7875
83.7995
83.8023
83.8024
83.8009
83.7978
83.793
83.7866
83.7759
87.6675
87.6675
83.7759
83.7866
83.793
83.7978
83.8009
83.8024
83.8023
83.7995
83.7875
83.7677
83.7405
83.7062
83.6656
83.6191
83.5674
83.5114
83.4517
83.3892
83.3245
83.2586
83.192
83.1256
83.0598
82.9954
82.9328
82.8726
82.8152
82.7609
82.7101
82.6632
82.6203
82.5816
82.5475
82.5179
82.4931
82.4731
82.4581
82.448
82.443
80.8782
80.8828
80.8921
80.9059
80.9242
80.947
80.9741
81.0055
81.0408
81.08
81.1229
81.1691
81.2184
81.2705
81.3249
81.3814
81.4394
81.4983
81.5578
81.6171
81.6756
81.7328
81.7879
81.8402
81.889
81.9338
81.9738
82.0084
82.0372
82.0596
82.0753
82.084
82.0851
82.0843
82.0821
82.0784
82.0732
82.0666
82.056
86.1753
86.1753
82.056
82.0666
82.0732
82.0784
82.0821
82.0843
82.0851
82.084
82.0753
82.0596
82.0372
82.0084
81.9738
81.9338
81.889
81.8402
81.7879
81.7328
81.6756
81.6171
81.5578
81.4983
81.4394
81.3814
81.3249
81.2705
81.2184
81.1691
81.1229
81.08
81.0408
81.0055
80.9741
80.947
80.9242
80.9059
80.8921
80.8828
80.8782
79.3087
79.313
79.3215
79.3342
79.351
79.3718
79.3966
79.4252
79.4575
79.4932
79.5322
79.5742
79.6189
79.6659
79.7151
79.7659
79.8179
79.8706
79.9236
79.9763
80.0281
80.0785
80.1268
80.1724
80.2148
80.2533
80.2874
80.3165
80.3403
80.3583
80.3702
80.3758
80.3752
80.3735
80.3705
80.3663
80.3608
80.354
80.3434
84.7273
84.7273
80.3434
80.354
80.3608
80.3663
80.3705
80.3735
80.3752
80.3758
80.3702
80.3583
80.3403
80.3165
80.2874
80.2533
80.2148
80.1724
80.1268
80.0785
80.0281
79.9763
79.9236
79.8706
79.8179
79.7659
79.7151
79.6659
79.6189
79.5742
79.5322
79.4932
79.4575
79.4252
79.3966
79.3718
79.351
79.3342
79.3215
79.313
79.3087
77.735
77.7389
77.7467
77.7583
77.7736
77.7927
77.8153
77.8414
77.8707
77.9032
77.9385
77.9765
78.0169
78.0594
78.1036
78.1491
78.1956
78.2427
78.2897
78.3364
78.3821
78.4262
78.4684
78.508
78.5444
78.5772
78.6059
78.63
78.6491
78.663
78.6713
78.674
78.6717
78.6692
78.6655
78.6607
78.6548
78.6478
78.6373
83.3322
83.3322
78.6373
78.6478
78.6548
78.6607
78.6655
78.6692
78.6717
78.674
78.6713
78.663
78.6491
78.63
78.6059
78.5772
78.5444
78.508
78.4684
78.4262
78.3821
78.3364
78.2897
78.2427
78.1956
78.1491
78.1036
78.0594
78.0169
77.9765
77.9385
77.9032
77.8707
77.8414
77.8153
77.7927
77.7736
77.7583
77.7467
77.7389
77.735
76.1575
76.161
76.1681
76.1787
76.1926
76.21
76.2305
76.2542
76.2809
76.3103
76.3422
76.3765
76.4129
76.4511
76.4907
76.5314
76.5729
76.6147
76.6563
76.6974
76.7375
76.7761
76.8126
76.8466
76.8776
76.9052
76.9289
76.9484
76.9632
76.9732
76.9782
76.978
76.9741
76.9707
76.9663
76.9609
76.9545
76.9471
76.9366
82.0042
82.0042
76.9366
76.9471
76.9545
76.9609
76.9663
76.9707
76.9741
76.978
76.9782
76.9732
76.9632
76.9484
76.9289
76.9052
76.8776
76.8466
76.8126
76.7761
76.7375
76.6974
76.6563
76.6147
76.5729
76.5314
76.4907
76.4511
76.4129
76.3765
76.3422
76.3103
76.2809
76.2542
76.2305
76.21
76.1926
76.1787
76.1681
76.161
76.1575
74.5763
74.5796
74.586
74.5956
74.6083
74.624
74.6427
74.6641
74.6882
74.7148
74.7436
74.7744
74.8071
74.8413
74.8767
74.913
74.9498
74.9868
75.0235
75.0595
75.0945
75.1279
75.1593
75.1882
75.2143
75.2371
75.2563
75.2714
75.2822
75.2885
75.2902
75.2871
75.2815
75.2772
75.272
75.2659
75.259
75.2513
75.2408
80.7637
80.7637
75.2408
75.2513
75.259
75.2659
75.272
75.2772
75.2815
75.2871
75.2902
75.2885
75.2822
75.2714
75.2563
75.2371
75.2143
75.1882
75.1593
75.1279
75.0945
75.0595
75.0235
74.9868
74.9498
74.913
74.8767
74.8413
74.8071
74.7744
74.7436
74.7148
74.6882
74.6641
74.6427
74.624
74.6083
74.5956
74.586
74.5796
74.5763
72.992
72.9949
73.0007
73.0094
73.0209
73.0352
73.052
73.0714
73.0931
73.117
73.1429
73.1706
73.1998
73.2303
73.2618
73.294
73.3266
73.3591
73.3913
73.4227
73.453
73.4817
73.5084
73.5327
73.5543
73.5727
73.5876
73.5987
73.6057
73.6085
73.6069
73.6009
73.5936
73.5882
73.5821
73.5752
73.5677
73.5594
73.5489
79.6428
79.6428
73.5489
73.5594
73.5677
73.5752
73.5821
73.5882
73.5936
73.6009
73.6069
73.6085
73.6057
73.5987
73.5876
73.5727
73.5543
73.5327
73.5084
73.4817
73.453
73.4227
73.3913
73.3591
73.3266
73.294
73.2618
73.2303
73.1998
73.1706
73.1429
73.117
73.0931
73.0714
73.052
73.0352
73.0209
73.0094
73.0007
72.9949
72.992
71.4047
71.4073
71.4126
71.4205
71.4308
71.4437
71.4588
71.4763
71.4958
71.5172
71.5404
71.5651
71.5912
71.6183
71.6463
71.6747
71.7033
71.7318
71.7599
71.7871
71.8131
71.8375
71.8599
71.88
71.8974
71.9118
71.9227
71.9301
71.9335
71.9328
71.9279
71.919
71.9096
71.9032
71.896
71.8882
71.8798
71.8708
71.8602
78.6948
78.6948
71.8602
71.8708
71.8798
71.8882
71.896
71.9032
71.9096
71.919
71.9279
71.9328
71.9335
71.9301
71.9227
71.9118
71.8974
71.88
71.8599
71.8375
71.8131
71.7871
71.7599
71.7318
71.7033
71.6747
71.6463
71.6183
71.5912
71.5651
71.5404
71.5172
71.4958
71.4763
71.4588
71.4437
71.4308
71.4205
71.4126
71.4073
71.4047
69.8148
69.8172
69.8219
69.829
69.8383
69.8498
69.8635
69.8791
69.8965
69.9157
69.9364
69.9584
69.9815
70.0055
70.0302
70.0552
70.0802
70.105
70.1293
70.1526
70.1747
70.1952
70.2138
70.23
70.2436
70.2542
70.2616
70.2653
70.2653
70.2613
70.2532
70.241
70.2294
70.2216
70.2132
70.2042
70.1946
70.1847
70.174
78.0137
78.0137
70.174
70.1847
70.1946
70.2042
70.2132
70.2216
70.2294
70.241
70.2532
70.2613
70.2653
70.2653
70.2616
70.2542
70.2436
70.23
70.2138
70.1952
70.1747
70.1526
70.1293
70.105
70.0802
70.0552
70.0302
70.0055
69.9815
69.9584
69.9364
69.9157
69.8965
69.8791
69.8635
69.8498
69.8383
69.829
69.8219
69.8172
69.8148
68.2225
68.2246
68.2289
68.2352
68.2436
68.2539
68.2661
68.28
68.2956
68.3126
68.331
68.3505
68.371
68.3921
68.4138
68.4356
68.4574
68.4788
68.4996
68.5194
68.538
68.5549
68.5699
68.5827
68.5928
68.6
68.6039
68.6044
68.6011
68.5938
68.5824
68.5669
68.5528
68.5434
68.5333
68.5227
68.5116
68.5003
68.4893
77.7684
77.7684
68.4893
68.5003
68.5116
68.5227
68.5333
68.5434
68.5528
68.5669
68.5824
68.5938
68.6011
68.6044
68.6039
68.6
68.5928
68.5827
68.5699
68.5549
68.538
68.5194
68.4996
68.4788
68.4574
68.4356
68.4138
68.3921
68.371
68.3505
68.331
68.3126
68.2956
68.28
68.2661
68.2539
68.2436
68.2352
68.2289
68.2246
68.2225
66.628
66.6299
66.6337
66.6394
66.6469
66.6561
66.6669
66.6793
66.6932
66.7083
66.7245
66.7417
66.7597
66.7783
66.7971
66.8161
66.8349
66.8532
66.8709
66.8875
66.9029
66.9166
66.9284
66.9379
66.9449
66.9489
66.9498
66.9473
66.9409
66.9305
66.9158
66.8967
66.8797
66.8684
66.8563
66.8435
66.8303
66.8167
66.8051
78.1829
78.1829
66.8051
66.8167
66.8303
66.8435
66.8563
66.8684
66.8797
66.8967
66.9158
66.9305
66.9409
66.9473
66.9498
66.9489
66.9449
66.9379
66.9284
66.9166
66.9029
66.8875
66.8709
66.8532
66.8349
66.8161
66.7971
66.7783
66.7597
66.7417
66.7245
66.7083
66.6932
66.6793
66.6669
66.6561
66.6469
66.6394
66.6337
66.6299
66.628
65.0317
65.0334
65.0368
65.0418
65.0484
65.0566
65.0662
65.0772
65.0895
65.1028
65.1171
65.1322
65.1479
65.164
65.1804
65.1967
65.2128
65.2284
65.2432
65.2569
65.2694
65.2802
65.289
65.2957
65.2998
65.3011
65.2992
65.2939
65.2847
65.2714
65.2536
65.231
65.2108
65.1973
65.1827
65.167
65.1502
65.1329
65.1193
78.2881
78.2881
65.1193
65.1329
65.1502
65.167
65.1827
65.1973
65.2108
65.231
65.2536
65.2714
65.2847
65.2939
65.2992
65.3011
65.2998
65.2957
65.289
65.2802
65.2694
65.2569
65.2432
65.2284
65.2128
65.1967
65.1804
65.164
65.1479
65.1322
65.1171
65.1028
65.0895
65.0772
65.0662
65.0566
65.0484
65.0418
65.0368
65.0334
65.0317
63.4336
63.4351
63.4381
63.4426
63.4485
63.4557
63.4642
63.4739
63.4846
63.4963
63.5088
63.522
63.5357
63.5496
63.5637
63.5776
63.5912
63.6043
63.6165
63.6277
63.6375
63.6457
63.6519
63.656
63.6576
63.6564
63.6521
63.6443
63.6327
63.6168
63.5963
63.5705
63.5476
63.532
63.5147
63.4954
63.4733
63.447
63.4214
64.6588
64.6588
63.4214
63.447
63.4733
63.4954
63.5147
63.532
63.5476
63.5705
63.5963
63.6168
63.6327
63.6443
63.6521
63.6564
63.6576
63.656
63.6519
63.6457
63.6375
63.6277
63.6165
63.6043
63.5912
63.5776
63.5637
63.5496
63.5357
63.522
63.5088
63.4963
63.4846
63.4739
63.4642
63.4557
63.4485
63.4426
63.4381
63.4351
63.4336
61.8343
61.8356
61.8383
61.8422
61.8474
61.8537
61.8612
61.8697
61.8791
61.8893
61.9002
61.9116
61.9233
61.9353
61.9473
61.9591
61.9705
61.9812
61.9911
62
62.0074
62.0133
62.0173
62.0191
62.0185
62.0152
62.0087
61.9988
61.9851
61.9672
61.9445
61.9165
61.8918
61.8754
61.8575
61.8384
61.8181
61.7972
61.7766
62.8705
62.8705
61.7766
61.7972
61.8181
61.8384
61.8575
61.8754
61.8918
61.9165
61.9445
61.9672
61.9851
61.9988
62.0087
62.0152
62.0185
62.0191
62.0173
62.0133
62.0074
62
61.9911
61.9812
61.9705
61.9591
61.9473
61.9353
61.9233
61.9116
61.9002
61.8893
61.8791
61.8697
61.8612
61.8537
61.8474
61.8422
61.8383
61.8356
61.8343
60.2336
60.2348
60.2371
60.2406
60.2451
60.2506
60.2572
60.2646
60.2727
60.2816
60.291
60.3008
60.3108
60.321
60.3311
60.3409
60.3503
60.359
60.3669
60.3736
60.379
60.3829
60.3848
60.3847
60.3822
60.3769
60.3687
60.3572
60.3418
60.3223
60.2981
60.2684
60.2427
60.2255
60.207
60.1872
60.1661
60.1439
60.1204
61.1236
61.1236
60.1204
60.1439
60.1661
60.1872
60.207
60.2255
60.2427
60.2684
60.2981
60.3223
60.3418
60.3572
60.3687
60.3769
60.3822
60.3847
60.3848
60.3829
60.379
60.3736
60.3669
60.359
60.3503
60.3409
60.3311
60.321
60.3108
60.3008
60.291
60.2816
60.2727
60.2646
60.2572
60.2506
60.2451
60.2406
60.2371
60.2348
60.2336
58.6318
58.6328
58.6348
58.6378
58.6418
58.6466
58.6523
58.6587
58.6657
58.6733
58.6814
58.6897
58.6982
58.7068
58.7152
58.7233
58.7308
58.7377
58.7437
58.7486
58.7522
58.7542
58.7545
58.7526
58.7485
58.7418
58.7321
58.7192
58.7027
58.6821
58.657
58.6265
58.6001
58.5824
58.5633
58.5425
58.5199
58.4953
58.4679
59.2147
59.2147
58.4679
58.4953
58.5199
58.5425
58.5633
58.5824
58.6001
58.6265
58.657
58.6821
58.7027
58.7192
58.7321
58.7418
58.7485
58.7526
58.7545
58.7542
58.7522
58.7486
58.7437
58.7377
58.7308
58.7233
58.7152
58.7068
58.6982
58.6897
58.6814
58.6733
58.6657
58.6587
58.6523
58.6466
58.6418
58.6378
58.6348
58.6328
58.6318
57.0289
57.0298
57.0316
57.0342
57.0376
57.0417
57.0466
57.0521
57.0581
57.0646
57.0715
57.0785
57.0856
57.0927
57.0996
57.1061
57.1121
57.1173
57.1217
57.125
57.1269
57.1274
57.1261
57.1229
57.1174
57.1095
57.0987
57.0849
57.0677
57.0466
57.0211
56.9907
56.9644
56.9469
56.9278
56.907
56.8841
56.8586
56.8293
56.9786
56.9786
56.8293
56.8586
56.8841
56.907
56.9278
56.9469
56.9644
56.9907
57.0211
57.0466
57.0677
57.0849
57.0987
57.1095
57.1174
57.1229
57.1261
57.1274
57.1269
57.125
57.1217
57.1173
57.1121
57.1061
57.0996
57.0927
57.0856
57.0785
57.0715
57.0646
57.0581
57.0521
57.0466
57.0417
57.0376
57.0342
57.0316
57.0298
57.0289
55.4252
55.426
55.4275
55.4297
55.4326
55.4362
55.4403
55.445
55.4501
55.4556
55.4613
55.4672
55.473
55.4788
55.4843
55.4894
55.494
55.4978
55.5007
55.5026
55.5032
55.5023
55.4998
55.4953
55.4888
55.4799
55.4684
55.4541
55.4365
55.4154
55.3903
55.3608
55.3357
55.3191
55.3013
55.2821
55.2614
55.2391
55.2146
55.2105
55.2105
55.2146
55.2391
55.2614
55.2821
55.3013
55.3191
55.3357
55.3608
55.3903
55.4154
55.4365
55.4541
55.4684
55.4799
55.4888
55.4953
55.4998
55.5023
55.5032
55.5026
55.5007
55.4978
55.494
55.4894
55.4843
55.4788
55.473
55.4672
55.4613
55.4556
55.4501
55.445
55.4403
55.4362
55.4326
55.4297
55.4275
55.426
55.4252
53.8207
53.8213
53.8226
53.8245
53.827
53.83
53.8335
53.8375
53.8418
53.8463
53.851
53.8558
53.8606
53.8652
53.8695
53.8733
53.8766
53.8792
53.8809
53.8815
53.8809
53.8789
53.8753
53.8699
53.8626
53.853
53.841
53.8264
53.8089
53.7882
53.764
53.736
53.7128
53.6977
53.6817
53.6648
53.647