/*--------------------------------*- C++ -*----------------------------------*\
  =========                 |
  \\      /  F ield         | OpenFOAM: The Open Source CFD Toolbox
   \\    /   O peration     | Website:  https://openfoam.org
    \\  /    A nd           | Version:  10
     \\/     M anipulation  |
\*---------------------------------------------------------------------------*/
FoamFile
{
    format      ascii;
    class       volVectorField;
    location    "10300";
    object      Ub;
}
// * * * * * * * * * * * * * * * * * * * * * * * * * * * * * * * * * * * * * //

dimensions      [0 1 -1 0 0 0 0];

internalField   nonuniform List<vector> 
6400
(
(-4.4108e-21 -9.87899e-16 0)
(-1.32559e-20 -9.87899e-16 0)
(-2.21722e-20 -9.87899e-16 0)
(-3.12087e-20 -9.87899e-16 0)
(-4.04172e-20 -9.87899e-16 0)
(-4.98537e-20 -9.87899e-16 0)
(-5.95795e-20 -9.87899e-16 0)
(-6.9663e-20 -9.87899e-16 0)
(-8.01823e-20 -9.87899e-16 0)
(-9.12279e-20 -9.87899e-16 0)
(-1.02906e-19 -9.87899e-16 0)
(-1.15345e-19 -9.87899e-16 0)
(-1.287e-19 -9.87899e-16 0)
(-1.43164e-19 -9.87898e-16 0)
(-1.58981e-19 -9.87898e-16 0)
(-1.76467e-19 -9.87898e-16 0)
(-1.9604e-19 -9.87898e-16 0)
(-2.18268e-19 -9.87898e-16 0)
(-2.43949e-19 -9.87897e-16 0)
(-2.74247e-19 -9.87897e-16 0)
(-3.10938e-19 -9.87896e-16 0)
(-3.56843e-19 -9.87895e-16 0)
(-4.16377e-19 -9.87893e-16 0)
(-4.98634e-19 -9.87892e-16 0)
(-1.12755e-08 -1.0028e-15 0)
(-8.04039e-05 -7.26737e-06 0)
(-0.000182455 2.69421e-06 0)
(-0.000203998 -5.08539e-07 0)
(-0.000205811 1.281e-07 0)
(-0.000207146 -3.02718e-07 0)
(-0.000204484 -5.53054e-07 0)
(-0.000197093 -1.19235e-06 0)
(-0.000187993 -1.81383e-06 0)
(-0.000179358 -2.31299e-06 0)
(-0.000167847 -3.11878e-06 0)
(-0.000151802 -4.37775e-06 0)
(-0.000129509 -5.97e-06 0)
(-9.99346e-05 -7.70216e-06 0)
(-6.3348e-05 -9.17376e-06 0)
(-2.17222e-05 -1.00044e-05 0)
(2.17222e-05 -1.00044e-05 0)
(6.3348e-05 -9.17376e-06 0)
(9.99346e-05 -7.70216e-06 0)
(0.000129509 -5.97e-06 0)
(0.000151802 -4.37775e-06 0)
(0.000167847 -3.11878e-06 0)
(0.000179358 -2.31299e-06 0)
(0.000187993 -1.81383e-06 0)
(0.000197093 -1.19235e-06 0)
(0.000204484 -5.53054e-07 0)
(0.000207146 -3.02718e-07 0)
(0.000205811 1.281e-07 0)
(0.000203998 -5.08539e-07 0)
(0.000182455 2.69421e-06 0)
(8.04039e-05 -7.26737e-06 0)
(1.12755e-08 -1.0028e-15 0)
(4.98634e-19 -9.87892e-16 0)
(4.16377e-19 -9.87893e-16 0)
(3.56843e-19 -9.87895e-16 0)
(3.10938e-19 -9.87896e-16 0)
(2.74247e-19 -9.87897e-16 0)
(2.43949e-19 -9.87897e-16 0)
(2.18268e-19 -9.87898e-16 0)
(1.9604e-19 -9.87898e-16 0)
(1.76467e-19 -9.87898e-16 0)
(1.58981e-19 -9.87898e-16 0)
(1.43164e-19 -9.87898e-16 0)
(1.287e-19 -9.87899e-16 0)
(1.15345e-19 -9.87899e-16 0)
(1.02906e-19 -9.87899e-16 0)
(9.12279e-20 -9.87899e-16 0)
(8.01823e-20 -9.87899e-16 0)
(6.9663e-20 -9.87899e-16 0)
(5.95795e-20 -9.87899e-16 0)
(4.98537e-20 -9.87899e-16 0)
(4.04172e-20 -9.87899e-16 0)
(3.12087e-20 -9.87899e-16 0)
(2.21722e-20 -9.87899e-16 0)
(1.32559e-20 -9.87899e-16 0)
(4.4108e-21 -9.87899e-16 0)
(-4.40977e-21 -9.87896e-16 0)
(-1.32528e-20 -9.87896e-16 0)
(-2.21669e-20 -9.87896e-16 0)
(-3.12011e-20 -9.87896e-16 0)
(-4.04072e-20 -9.87896e-16 0)
(-4.98411e-20 -9.87895e-16 0)
(-5.95638e-20 -9.87895e-16 0)
(-6.96439e-20 -9.87895e-16 0)
(-8.01593e-20 -9.87895e-16 0)
(-9.12002e-20 -9.87895e-16 0)
(-1.02873e-19 -9.87895e-16 0)
(-1.15305e-19 -9.87894e-16 0)
(-1.28652e-19 -9.87894e-16 0)
(-1.43105e-19 -9.87894e-16 0)
(-1.58908e-19 -9.87893e-16 0)
(-1.76377e-19 -9.87893e-16 0)
(-1.95925e-19 -9.87892e-16 0)
(-2.18118e-19 -9.87891e-16 0)
(-2.43748e-19 -9.8789e-16 0)
(-2.7397e-19 -9.87888e-16 0)
(-3.10537e-19 -9.87886e-16 0)
(-3.56252e-19 -9.87882e-16 0)
(-4.15739e-19 -9.87877e-16 0)
(-4.9762e-19 -9.87871e-16 0)
(-1.47589e-18 -9.87911e-16 0)
(-5.50366e-07 -1.81655e-15 0)
(-9.54275e-05 3.53166e-06 0)
(-0.000191501 -7.38189e-07 0)
(-0.000196117 9.45471e-07 0)
(-0.000198777 -6.03924e-07 0)
(-0.000196928 -1.432e-06 0)
(-0.000190339 -3.45454e-06 0)
(-0.000181865 -5.36756e-06 0)
(-0.000173821 -6.86536e-06 0)
(-0.000163126 -9.31043e-06 0)
(-0.00014803 -1.32047e-05 0)
(-0.000126722 -1.81322e-05 0)
(-9.80848e-05 -2.35316e-05 0)
(-6.23015e-05 -2.81263e-05 0)
(-2.13822e-05 -3.07137e-05 0)
(2.13822e-05 -3.07137e-05 0)
(6.23015e-05 -2.81263e-05 0)
(9.80848e-05 -2.35316e-05 0)
(0.000126722 -1.81322e-05 0)
(0.00014803 -1.32047e-05 0)
(0.000163126 -9.31043e-06 0)
(0.000173821 -6.86536e-06 0)
(0.000181865 -5.36756e-06 0)
(0.000190339 -3.45454e-06 0)
(0.000196928 -1.432e-06 0)
(0.000198777 -6.03924e-07 0)
(0.000196117 9.45471e-07 0)
(0.000191501 -7.38189e-07 0)
(9.54275e-05 3.53166e-06 0)
(5.50366e-07 -1.81655e-15 0)
(1.47589e-18 -9.87911e-16 0)
(4.9762e-19 -9.87871e-16 0)
(4.15739e-19 -9.87877e-16 0)
(3.56252e-19 -9.87882e-16 0)
(3.10537e-19 -9.87886e-16 0)
(2.7397e-19 -9.87888e-16 0)
(2.43748e-19 -9.8789e-16 0)
(2.18118e-19 -9.87891e-16 0)
(1.95925e-19 -9.87892e-16 0)
(1.76377e-19 -9.87893e-16 0)
(1.58908e-19 -9.87893e-16 0)
(1.43105e-19 -9.87894e-16 0)
(1.28652e-19 -9.87894e-16 0)
(1.15305e-19 -9.87894e-16 0)
(1.02873e-19 -9.87895e-16 0)
(9.12002e-20 -9.87895e-16 0)
(8.01593e-20 -9.87895e-16 0)
(6.96439e-20 -9.87895e-16 0)
(5.95638e-20 -9.87895e-16 0)
(4.98411e-20 -9.87895e-16 0)
(4.04072e-20 -9.87896e-16 0)
(3.12011e-20 -9.87896e-16 0)
(2.21669e-20 -9.87896e-16 0)
(1.32528e-20 -9.87896e-16 0)
(4.40977e-21 -9.87896e-16 0)
(-4.40742e-21 -9.87894e-16 0)
(-1.32457e-20 -9.87894e-16 0)
(-2.21549e-20 -9.87894e-16 0)
(-3.1184e-20 -9.87894e-16 0)
(-4.03846e-20 -9.87893e-16 0)
(-4.98123e-20 -9.87893e-16 0)
(-5.95282e-20 -9.87893e-16 0)
(-6.96005e-20 -9.87893e-16 0)
(-8.01069e-20 -9.87893e-16 0)
(-9.11372e-20 -9.87892e-16 0)
(-1.02797e-19 -9.87892e-16 0)
(-1.15214e-19 -9.87891e-16 0)
(-1.28541e-19 -9.87891e-16 0)
(-1.4297e-19 -9.8789e-16 0)
(-1.58742e-19 -9.87889e-16 0)
(-1.76169e-19 -9.87888e-16 0)
(-1.95661e-19 -9.87887e-16 0)
(-2.17775e-19 -9.87886e-16 0)
(-2.4329e-19 -9.87883e-16 0)
(-2.73335e-19 -9.8788e-16 0)
(-3.09623e-19 -9.87876e-16 0)
(-3.54887e-19 -9.8787e-16 0)
(-4.13872e-19 -9.87861e-16 0)
(-4.97948e-19 -9.87848e-16 0)
(-6.80531e-19 -9.8784e-16 0)
(-8.73536e-17 -9.87515e-16 0)
(-5.24571e-06 -9.91016e-14 0)
(-9.54819e-05 -4.68126e-07 0)
(-0.000186178 2.22436e-06 0)
(-0.000192223 -9.00758e-07 0)
(-0.000191451 -2.29207e-06 0)
(-0.000185762 -5.84725e-06 0)
(-0.000177909 -9.08088e-06 0)
(-0.000170598 -1.14845e-05 0)
(-0.000161081 -1.55506e-05 0)
(-0.000147275 -2.23773e-05 0)
(-0.00012705 -3.10118e-05 0)
(-9.90392e-05 -4.06577e-05 0)
(-6.31931e-05 -4.88985e-05 0)
(-2.17279e-05 -5.35056e-05 0)
(2.17279e-05 -5.35056e-05 0)
(6.31931e-05 -4.88985e-05 0)
(9.90392e-05 -4.06577e-05 0)
(0.00012705 -3.10118e-05 0)
(0.000147275 -2.23773e-05 0)
(0.000161081 -1.55506e-05 0)
(0.000170598 -1.14845e-05 0)
(0.000177909 -9.08088e-06 0)
(0.000185762 -5.84725e-06 0)
(0.000191451 -2.29207e-06 0)
(0.000192223 -9.00758e-07 0)
(0.000186178 2.22436e-06 0)
(9.54819e-05 -4.68126e-07 0)
(5.24571e-06 -9.91016e-14 0)
(8.73536e-17 -9.87515e-16 0)
(6.80531e-19 -9.8784e-16 0)
(4.97948e-19 -9.87848e-16 0)
(4.13872e-19 -9.87861e-16 0)
(3.54887e-19 -9.8787e-16 0)
(3.09623e-19 -9.87876e-16 0)
(2.73335e-19 -9.8788e-16 0)
(2.4329e-19 -9.87883e-16 0)
(2.17775e-19 -9.87886e-16 0)
(1.95661e-19 -9.87887e-16 0)
(1.76169e-19 -9.87888e-16 0)
(1.58742e-19 -9.87889e-16 0)
(1.4297e-19 -9.8789e-16 0)
(1.28541e-19 -9.87891e-16 0)
(1.15214e-19 -9.87891e-16 0)
(1.02797e-19 -9.87892e-16 0)
(9.11372e-20 -9.87892e-16 0)
(8.01069e-20 -9.87893e-16 0)
(6.96005e-20 -9.87893e-16 0)
(5.95282e-20 -9.87893e-16 0)
(4.98123e-20 -9.87893e-16 0)
(4.03846e-20 -9.87893e-16 0)
(3.1184e-20 -9.87894e-16 0)
(2.21549e-20 -9.87894e-16 0)
(1.32457e-20 -9.87894e-16 0)
(4.40742e-21 -9.87894e-16 0)
(-4.40338e-21 -9.87891e-16 0)
(-1.32335e-20 -9.87891e-16 0)
(-2.21343e-20 -9.87891e-16 0)
(-3.11544e-20 -9.87891e-16 0)
(-4.03454e-20 -9.87891e-16 0)
(-4.97626e-20 -9.87891e-16 0)
(-5.94668e-20 -9.87891e-16 0)
(-6.95257e-20 -9.8789e-16 0)
(-8.00165e-20 -9.8789e-16 0)
(-9.10286e-20 -9.87889e-16 0)
(-1.02667e-19 -9.87889e-16 0)
(-1.15057e-19 -9.87888e-16 0)
(-1.28351e-19 -9.87887e-16 0)
(-1.42738e-19 -9.87886e-16 0)
(-1.58457e-19 -9.87885e-16 0)
(-1.75812e-19 -9.87884e-16 0)
(-1.95207e-19 -9.87882e-16 0)
(-2.17185e-19 -9.87879e-16 0)
(-2.42503e-19 -9.87876e-16 0)
(-2.72248e-19 -9.87872e-16 0)
(-3.08057e-19 -9.87866e-16 0)
(-3.52529e-19 -9.87858e-16 0)
(-4.10253e-19 -9.87844e-16 0)
(-4.92132e-19 -9.87823e-16 0)
(-6.39053e-19 -9.87782e-16 0)
(-7.42245e-19 -9.87511e-16 0)
(-1.46839e-17 -9.87186e-16 0)
(-3.52596e-06 -2.59087e-14 0)
(-9.34789e-05 1.53889e-06 0)
(-0.000183195 -8.06521e-07 0)
(-0.000186442 -2.91184e-06 0)
(-0.000182285 -8.295e-06 0)
(-0.000175161 -1.28802e-05 0)
(-0.000168834 -1.58738e-05 0)
(-0.000161181 -2.13386e-05 0)
(-0.00014934 -3.16365e-05 0)
(-0.000130579 -4.44959e-05 0)
(-0.000103088 -5.94624e-05 0)
(-6.627e-05 -7.23208e-05 0)
(-2.28443e-05 -7.93878e-05 0)
(2.28443e-05 -7.93878e-05 0)
(6.627e-05 -7.23208e-05 0)
(0.000103088 -5.94624e-05 0)
(0.000130579 -4.44959e-05 0)
(0.00014934 -3.16365e-05 0)
(0.000161181 -2.13386e-05 0)
(0.000168834 -1.58738e-05 0)
(0.000175161 -1.28802e-05 0)
(0.000182285 -8.295e-06 0)
(0.000186442 -2.91184e-06 0)
(0.000183195 -8.06521e-07 0)
(9.34789e-05 1.53889e-06 0)
(3.52596e-06 -2.59087e-14 0)
(1.46839e-17 -9.87186e-16 0)
(7.42245e-19 -9.87511e-16 0)
(6.39053e-19 -9.87782e-16 0)
(4.92132e-19 -9.87823e-16 0)
(4.10253e-19 -9.87844e-16 0)
(3.52529e-19 -9.87858e-16 0)
(3.08057e-19 -9.87866e-16 0)
(2.72248e-19 -9.87872e-16 0)
(2.42503e-19 -9.87876e-16 0)
(2.17185e-19 -9.87879e-16 0)
(1.95207e-19 -9.87882e-16 0)
(1.75812e-19 -9.87884e-16 0)
(1.58457e-19 -9.87885e-16 0)
(1.42738e-19 -9.87886e-16 0)
(1.28351e-19 -9.87887e-16 0)
(1.15057e-19 -9.87888e-16 0)
(1.02667e-19 -9.87889e-16 0)
(9.10286e-20 -9.87889e-16 0)
(8.00165e-20 -9.8789e-16 0)
(6.95257e-20 -9.8789e-16 0)
(5.94668e-20 -9.87891e-16 0)
(4.97626e-20 -9.87891e-16 0)
(4.03454e-20 -9.87891e-16 0)
(3.11544e-20 -9.87891e-16 0)
(2.21343e-20 -9.87891e-16 0)
(1.32335e-20 -9.87891e-16 0)
(4.40338e-21 -9.87891e-16 0)
(-4.39719e-21 -9.87889e-16 0)
(-1.32148e-20 -9.87889e-16 0)
(-2.21026e-20 -9.87889e-16 0)
(-3.11091e-20 -9.87889e-16 0)
(-4.02854e-20 -9.87888e-16 0)
(-4.96865e-20 -9.87888e-16 0)
(-5.93726e-20 -9.87888e-16 0)
(-6.9411e-20 -9.87887e-16 0)
(-7.98782e-20 -9.87887e-16 0)
(-9.08623e-20 -9.87886e-16 0)
(-1.02467e-19 -9.87885e-16 0)
(-1.14816e-19 -9.87885e-16 0)
(-1.2806e-19 -9.87884e-16 0)
(-1.42383e-19 -9.87882e-16 0)
(-1.5802e-19 -9.87881e-16 0)
(-1.75266e-19 -9.87879e-16 0)
(-1.94514e-19 -9.87876e-16 0)
(-2.16287e-19 -9.87873e-16 0)
(-2.41305e-19 -9.87869e-16 0)
(-2.70598e-19 -9.87863e-16 0)
(-3.05686e-19 -9.87855e-16 0)
(-3.48944e-19 -9.87844e-16 0)
(-4.0446e-19 -9.87826e-16 0)
(-4.80847e-19 -9.87797e-16 0)
(-5.96857e-19 -9.87734e-16 0)
(-6.67994e-19 -9.8751e-16 0)
(-5.70463e-19 -9.87256e-16 0)
(-5.71423e-19 -9.87223e-16 0)
(-1.93597e-07 -1.18955e-15 0)
(-8.44195e-05 -2.9633e-07 0)
(-0.000175043 -2.10346e-06 0)
(-0.000178624 -1.06582e-05 0)
(-0.000172866 -1.67618e-05 0)
(-0.000167892 -1.95673e-05 0)
(-0.000163399 -2.56481e-05 0)
(-0.000154702 -4.06096e-05 0)
(-0.000138147 -5.81652e-05 0)
(-0.000111349 -8.04765e-05 0)
(-7.23194e-05 -9.97152e-05 0)
(-2.49829e-05 -0.000109888 0)
(2.49829e-05 -0.000109888 0)
(7.23194e-05 -9.97152e-05 0)
(0.000111349 -8.04765e-05 0)
(0.000138147 -5.81652e-05 0)
(0.000154702 -4.06096e-05 0)
(0.000163399 -2.56481e-05 0)
(0.000167892 -1.95673e-05 0)
(0.000172866 -1.67618e-05 0)
(0.000178624 -1.06582e-05 0)
(0.000175043 -2.10346e-06 0)
(8.44195e-05 -2.9633e-07 0)
(1.93597e-07 -1.18955e-15 0)
(5.71423e-19 -9.87223e-16 0)
(5.70463e-19 -9.87256e-16 0)
(6.67994e-19 -9.8751e-16 0)
(5.96857e-19 -9.87734e-16 0)
(4.80847e-19 -9.87797e-16 0)
(4.0446e-19 -9.87826e-16 0)
(3.48944e-19 -9.87844e-16 0)
(3.05686e-19 -9.87855e-16 0)
(2.70598e-19 -9.87863e-16 0)
(2.41305e-19 -9.87869e-16 0)
(2.16287e-19 -9.87873e-16 0)
(1.94514e-19 -9.87876e-16 0)
(1.75266e-19 -9.87879e-16 0)
(1.5802e-19 -9.87881e-16 0)
(1.42383e-19 -9.87882e-16 0)
(1.2806e-19 -9.87884e-16 0)
(1.14816e-19 -9.87885e-16 0)
(1.02467e-19 -9.87885e-16 0)
(9.08623e-20 -9.87886e-16 0)
(7.98782e-20 -9.87887e-16 0)
(6.9411e-20 -9.87887e-16 0)
(5.93726e-20 -9.87888e-16 0)
(4.96865e-20 -9.87888e-16 0)
(4.02854e-20 -9.87888e-16 0)
(3.11091e-20 -9.87889e-16 0)
(2.21026e-20 -9.87889e-16 0)
(1.32148e-20 -9.87889e-16 0)
(4.39719e-21 -9.87889e-16 0)
(-4.38829e-21 -9.87886e-16 0)
(-1.31879e-20 -9.87886e-16 0)
(-2.20571e-20 -9.87886e-16 0)
(-3.1044e-20 -9.87886e-16 0)
(-4.01993e-20 -9.87886e-16 0)
(-4.95772e-20 -9.87885e-16 0)
(-5.92374e-20 -9.87885e-16 0)
(-6.92464e-20 -9.87884e-16 0)
(-7.96795e-20 -9.87884e-16 0)
(-9.06236e-20 -9.87883e-16 0)
(-1.0218e-19 -9.87882e-16 0)
(-1.14471e-19 -9.87881e-16 0)
(-1.27643e-19 -9.87879e-16 0)
(-1.41875e-19 -9.87878e-16 0)
(-1.57394e-19 -9.87876e-16 0)
(-1.74486e-19 -9.87873e-16 0)
(-1.93525e-19 -9.8787e-16 0)
(-2.15006e-19 -9.87866e-16 0)
(-2.39605e-19 -9.87861e-16 0)
(-2.68263e-19 -9.87854e-16 0)
(-3.02344e-19 -9.87844e-16 0)
(-3.43899e-19 -9.87829e-16 0)
(-3.96213e-19 -9.87808e-16 0)
(-4.64875e-19 -9.87771e-16 0)
(-5.54647e-19 -9.87697e-16 0)
(-6.01858e-19 -9.87511e-16 0)
(-5.27664e-19 -9.87307e-16 0)
(-4.20052e-19 -9.87244e-16 0)
(-3.03306e-19 -9.87123e-16 0)
(-1.67245e-09 -9.81103e-16 0)
(-6.08691e-05 -5.37608e-07 0)
(-0.000145171 -5.89442e-06 0)
(-0.000167056 -2.03042e-05 0)
(-0.000165374 -2.1528e-05 0)
(-0.000167383 -2.58818e-05 0)
(-0.000164131 -4.90271e-05 0)
(-0.000151175 -7.05828e-05 0)
(-0.000126046 -0.000104489 0)
(-8.27815e-05 -0.000133393 0)
(-2.8541e-05 -0.00014737 0)
(2.8541e-05 -0.00014737 0)
(8.27815e-05 -0.000133393 0)
(0.000126046 -0.000104489 0)
(0.000151175 -7.05828e-05 0)
(0.000164131 -4.90271e-05 0)
(0.000167383 -2.58818e-05 0)
(0.000165374 -2.1528e-05 0)
(0.000167056 -2.03042e-05 0)
(0.000145171 -5.89442e-06 0)
(6.08691e-05 -5.37608e-07 0)
(1.67245e-09 -9.81103e-16 0)
(3.03306e-19 -9.87123e-16 0)
(4.20052e-19 -9.87244e-16 0)
(5.27664e-19 -9.87307e-16 0)
(6.01858e-19 -9.87511e-16 0)
(5.54647e-19 -9.87697e-16 0)
(4.64875e-19 -9.87771e-16 0)
(3.96213e-19 -9.87808e-16 0)
(3.43899e-19 -9.87829e-16 0)
(3.02344e-19 -9.87844e-16 0)
(2.68263e-19 -9.87854e-16 0)
(2.39605e-19 -9.87861e-16 0)
(2.15006e-19 -9.87866e-16 0)
(1.93525e-19 -9.8787e-16 0)
(1.74486e-19 -9.87873e-16 0)
(1.57394e-19 -9.87876e-16 0)
(1.41875e-19 -9.87878e-16 0)
(1.27643e-19 -9.87879e-16 0)
(1.14471e-19 -9.87881e-16 0)
(1.0218e-19 -9.87882e-16 0)
(9.06236e-20 -9.87883e-16 0)
(7.96795e-20 -9.87884e-16 0)
(6.92464e-20 -9.87884e-16 0)
(5.92374e-20 -9.87885e-16 0)
(4.95772e-20 -9.87885e-16 0)
(4.01993e-20 -9.87886e-16 0)
(3.1044e-20 -9.87886e-16 0)
(2.20571e-20 -9.87886e-16 0)
(1.31879e-20 -9.87886e-16 0)
(4.38829e-21 -9.87886e-16 0)
(-4.37601e-21 -9.87883e-16 0)
(-1.31508e-20 -9.87883e-16 0)
(-2.19944e-20 -9.87883e-16 0)
(-3.09543e-20 -9.87883e-16 0)
(-4.00804e-20 -9.87882e-16 0)
(-4.94265e-20 -9.87882e-16 0)
(-5.90511e-20 -9.87881e-16 0)
(-6.90196e-20 -9.87881e-16 0)
(-7.94058e-20 -9.8788e-16 0)
(-9.02948e-20 -9.87879e-16 0)
(-1.01786e-19 -9.87878e-16 0)
(-1.13997e-19 -9.87876e-16 0)
(-1.2707e-19 -9.87875e-16 0)
(-1.41177e-19 -9.87873e-16 0)
(-1.56536e-19 -9.8787e-16 0)
(-1.73418e-19 -9.87867e-16 0)
(-1.92174e-19 -9.87863e-16 0)
(-2.13262e-19 -9.87858e-16 0)
(-2.37296e-19 -9.87852e-16 0)
(-2.65109e-19 -9.87843e-16 0)
(-2.97863e-19 -9.87831e-16 0)
(-3.37192e-19 -9.87814e-16 0)
(-3.85383e-19 -9.87789e-16 0)
(-4.45052e-19 -9.87746e-16 0)
(-5.12996e-19 -9.87668e-16 0)
(-5.4257e-19 -9.87514e-16 0)
(-4.84368e-19 -9.87349e-16 0)
(-3.89362e-19 -9.87271e-16 0)
(-2.74018e-19 -9.87175e-16 0)
(-9.11104e-20 -9.87124e-16 0)
(9.19345e-20 -9.86319e-16 0)
(-1.05916e-05 -4.8092e-13 0)
(-6.81959e-05 -1.09411e-05 0)
(-0.000131469 -1.09452e-05 0)
(-0.000164244 -1.22635e-05 0)
(-0.000175445 -5.78025e-05 0)
(-0.000170442 -7.61952e-05 0)
(-0.000151447 -0.000132917 0)
(-0.000100003 -0.000177938 0)
(-3.39321e-05 -0.000195406 0)
(3.39321e-05 -0.000195406 0)
(0.000100003 -0.000177938 0)
(0.000151447 -0.000132917 0)
(0.000170442 -7.61952e-05 0)
(0.000175445 -5.78025e-05 0)
(0.000164244 -1.22635e-05 0)
(0.000131469 -1.09452e-05 0)
(6.81959e-05 -1.09411e-05 0)
(1.05916e-05 -4.8092e-13 0)
(-9.19345e-20 -9.86319e-16 0)
(9.11104e-20 -9.87124e-16 0)
(2.74018e-19 -9.87175e-16 0)
(3.89362e-19 -9.87271e-16 0)
(4.84368e-19 -9.87349e-16 0)
(5.4257e-19 -9.87514e-16 0)
(5.12996e-19 -9.87668e-16 0)
(4.45052e-19 -9.87746e-16 0)
(3.85383e-19 -9.87789e-16 0)
(3.37192e-19 -9.87814e-16 0)
(2.97863e-19 -9.87831e-16 0)
(2.65109e-19 -9.87843e-16 0)
(2.37296e-19 -9.87852e-16 0)
(2.13262e-19 -9.87858e-16 0)
(1.92174e-19 -9.87863e-16 0)
(1.73418e-19 -9.87867e-16 0)
(1.56536e-19 -9.8787e-16 0)
(1.41177e-19 -9.87873e-16 0)
(1.2707e-19 -9.87875e-16 0)
(1.13997e-19 -9.87876e-16 0)
(1.01786e-19 -9.87878e-16 0)
(9.02948e-20 -9.87879e-16 0)
(7.94058e-20 -9.8788e-16 0)
(6.90196e-20 -9.87881e-16 0)
(5.90511e-20 -9.87881e-16 0)
(4.94265e-20 -9.87882e-16 0)
(4.00804e-20 -9.87882e-16 0)
(3.09543e-20 -9.87883e-16 0)
(2.19944e-20 -9.87883e-16 0)
(1.31508e-20 -9.87883e-16 0)
(4.37601e-21 -9.87883e-16 0)
(-4.35955e-21 -9.8788e-16 0)
(-1.31011e-20 -9.8788e-16 0)
(-2.19103e-20 -9.8788e-16 0)
(-3.0834e-20 -9.87879e-16 0)
(-3.99212e-20 -9.87879e-16 0)
(-4.92246e-20 -9.87878e-16 0)
(-5.88015e-20 -9.87878e-16 0)
(-6.87159e-20 -9.87877e-16 0)
(-7.90396e-20 -9.87876e-16 0)
(-8.98552e-20 -9.87875e-16 0)
(-1.01259e-19 -9.87873e-16 0)
(-1.13363e-19 -9.87872e-16 0)
(-1.26305e-19 -9.8787e-16 0)
(-1.40248e-19 -9.87867e-16 0)
(-1.55395e-19 -9.87864e-16 0)
(-1.72001e-19 -9.87861e-16 0)
(-1.90386e-19 -9.87856e-16 0)
(-2.10962e-19 -9.8785e-16 0)
(-2.34267e-19 -9.87842e-16 0)
(-2.61002e-19 -9.87832e-16 0)
(-2.92085e-19 -9.87819e-16 0)
(-3.28671e-19 -9.87799e-16 0)
(-3.71997e-19 -9.8777e-16 0)
(-4.22223e-19 -9.87724e-16 0)
(-4.7235e-19 -9.87647e-16 0)
(-4.89068e-19 -9.87518e-16 0)
(-4.41714e-19 -9.87384e-16 0)
(-3.58372e-19 -9.87302e-16 0)
(-2.51241e-19 -9.87226e-16 0)
(-1.02859e-19 -9.87195e-16 0)
(3.06417e-20 -9.87283e-16 0)
(1.50521e-21 -9.87467e-16 0)
(2.50313e-20 -9.16118e-16 0)
(-1.00334e-11 -8.00643e-16 0)
(-1.79932e-05 -9.73429e-09 0)
(-8.01913e-05 -3.12603e-05 0)
(-0.000168236 -3.91986e-05 0)
(-0.000191127 -0.000167244 0)
(-0.000125617 -0.000242898 0)
(-4.05277e-05 -0.000258259 0)
(4.05277e-05 -0.000258259 0)
(0.000125617 -0.000242898 0)
(0.000191127 -0.000167244 0)
(0.000168236 -3.91986e-05 0)
(8.01913e-05 -3.12603e-05 0)
(1.79932e-05 -9.73429e-09 0)
(1.00334e-11 -8.00643e-16 0)
(-2.50313e-20 -9.16118e-16 0)
(-1.50521e-21 -9.87467e-16 0)
(-3.06417e-20 -9.87283e-16 0)
(1.02859e-19 -9.87195e-16 0)
(2.51241e-19 -9.87226e-16 0)
(3.58372e-19 -9.87302e-16 0)
(4.41714e-19 -9.87384e-16 0)
(4.89068e-19 -9.87518e-16 0)
(4.7235e-19 -9.87647e-16 0)
(4.22223e-19 -9.87724e-16 0)
(3.71997e-19 -9.8777e-16 0)
(3.28671e-19 -9.87799e-16 0)
(2.92085e-19 -9.87819e-16 0)
(2.61002e-19 -9.87832e-16 0)
(2.34267e-19 -9.87842e-16 0)
(2.10962e-19 -9.8785e-16 0)
(1.90386e-19 -9.87856e-16 0)
(1.72001e-19 -9.87861e-16 0)
(1.55395e-19 -9.87864e-16 0)
(1.40248e-19 -9.87867e-16 0)
(1.26305e-19 -9.8787e-16 0)
(1.13363e-19 -9.87872e-16 0)
(1.01259e-19 -9.87873e-16 0)
(8.98552e-20 -9.87875e-16 0)
(7.90396e-20 -9.87876e-16 0)
(6.87159e-20 -9.87877e-16 0)
(5.88015e-20 -9.87878e-16 0)
(4.92246e-20 -9.87878e-16 0)
(3.99212e-20 -9.87879e-16 0)
(3.0834e-20 -9.87879e-16 0)
(2.19103e-20 -9.8788e-16 0)
(1.31011e-20 -9.8788e-16 0)
(4.35955e-21 -9.8788e-16 0)
(-4.33795e-21 -9.87876e-16 0)
(-1.30358e-20 -9.87876e-16 0)
(-2.18e-20 -9.87876e-16 0)
(-3.06762e-20 -9.87876e-16 0)
(-3.97124e-20 -9.87875e-16 0)
(-4.89599e-20 -9.87875e-16 0)
(-5.84745e-20 -9.87874e-16 0)
(-6.83181e-20 -9.87873e-16 0)
(-7.85602e-20 -9.87872e-16 0)
(-8.92801e-20 -9.8787e-16 0)
(-1.0057e-19 -9.87869e-16 0)
(-1.12536e-19 -9.87867e-16 0)
(-1.25308e-19 -9.87864e-16 0)
(-1.39038e-19 -9.87861e-16 0)
(-1.53914e-19 -9.87858e-16 0)
(-1.70165e-19 -9.87854e-16 0)
(-1.88078e-19 -9.87848e-16 0)
(-2.08009e-19 -9.87841e-16 0)
(-2.30403e-19 -9.87833e-16 0)
(-2.5581e-19 -9.87821e-16 0)
(-2.84878e-19 -9.87805e-16 0)
(-3.1826e-19 -9.87784e-16 0)
(-3.56225e-19 -9.87752e-16 0)
(-3.97199e-19 -9.87705e-16 0)
(-4.33048e-19 -9.87632e-16 0)
(-4.40508e-19 -9.87524e-16 0)
(-4.00615e-19 -9.87413e-16 0)
(-3.28139e-19 -9.87336e-16 0)
(-2.32775e-19 -9.87274e-16 0)
(-1.13395e-19 -9.87255e-16 0)
(-1.28388e-20 -9.87318e-16 0)
(-4.93712e-21 -9.8743e-16 0)
(-1.10241e-20 -9.87386e-16 0)
(-1.71294e-20 -9.87463e-16 0)
(-2.11566e-20 -9.87281e-16 0)
(-1.40009e-09 -9.42565e-16 0)
(-1.73906e-05 -1.10442e-06 0)
(-0.000101105 -0.000125408 0)
(-0.00012445 -0.000323867 0)
(-4.07345e-05 -0.000333458 0)
(4.07345e-05 -0.000333458 0)
(0.00012445 -0.000323867 0)
(0.000101105 -0.000125408 0)
(1.73906e-05 -1.10442e-06 0)
(1.40009e-09 -9.42565e-16 0)
(2.11566e-20 -9.87281e-16 0)
(1.71294e-20 -9.87463e-16 0)
(1.10241e-20 -9.87386e-16 0)
(4.93712e-21 -9.8743e-16 0)
(1.28388e-20 -9.87318e-16 0)
(1.13395e-19 -9.87255e-16 0)
(2.32775e-19 -9.87274e-16 0)
(3.28139e-19 -9.87336e-16 0)
(4.00615e-19 -9.87413e-16 0)
(4.40508e-19 -9.87524e-16 0)
(4.33048e-19 -9.87632e-16 0)
(3.97199e-19 -9.87705e-16 0)
(3.56225e-19 -9.87752e-16 0)
(3.1826e-19 -9.87784e-16 0)
(2.84878e-19 -9.87805e-16 0)
(2.5581e-19 -9.87821e-16 0)
(2.30403e-19 -9.87833e-16 0)
(2.08009e-19 -9.87841e-16 0)
(1.88078e-19 -9.87848e-16 0)
(1.70165e-19 -9.87854e-16 0)
(1.53914e-19 -9.87858e-16 0)
(1.39038e-19 -9.87861e-16 0)
(1.25308e-19 -9.87864e-16 0)
(1.12536e-19 -9.87867e-16 0)
(1.0057e-19 -9.87869e-16 0)
(8.92801e-20 -9.8787e-16 0)
(7.85602e-20 -9.87872e-16 0)
(6.83181e-20 -9.87873e-16 0)
(5.84745e-20 -9.87874e-16 0)
(4.89599e-20 -9.87875e-16 0)
(3.97124e-20 -9.87875e-16 0)
(3.06762e-20 -9.87876e-16 0)
(2.18e-20 -9.87876e-16 0)
(1.30358e-20 -9.87876e-16 0)
(4.33795e-21 -9.87876e-16 0)
(-4.31009e-21 -9.87873e-16 0)
(-1.29517e-20 -9.87872e-16 0)
(-2.16577e-20 -9.87872e-16 0)
(-3.04728e-20 -9.87872e-16 0)
(-3.94432e-20 -9.87871e-16 0)
(-4.86188e-20 -9.87871e-16 0)
(-5.80533e-20 -9.8787e-16 0)
(-6.78061e-20 -9.87868e-16 0)
(-7.79436e-20 -9.87867e-16 0)
(-8.85411e-20 -9.87865e-16 0)
(-9.9685e-20 -9.87864e-16 0)
(-1.11476e-19 -9.87861e-16 0)
(-1.24032e-19 -9.87858e-16 0)
(-1.37493e-19 -9.87855e-16 0)
(-1.52027e-19 -9.87851e-16 0)
(-1.67836e-19 -9.87846e-16 0)
(-1.85163e-19 -9.8784e-16 0)
(-2.04301e-19 -9.87832e-16 0)
(-2.25592e-19 -9.87822e-16 0)
(-2.4942e-19 -9.87809e-16 0)
(-2.76153e-19 -9.87792e-16 0)
(-3.0597e-19 -9.87769e-16 0)
(-3.38355e-19 -9.87736e-16 0)
(-3.70726e-19 -9.87689e-16 0)
(-3.95335e-19 -9.87621e-16 0)
(-3.96245e-19 -9.87531e-16 0)
(-3.61729e-19 -9.87439e-16 0)
(-2.99328e-19 -9.8737e-16 0)
(-2.17085e-19 -9.87319e-16 0)
(-1.21374e-19 -9.87306e-16 0)
(-4.292e-20 -9.87347e-16 0)
(-2.04498e-20 -9.87414e-16 0)
(-2.23129e-20 -9.87412e-16 0)
(-2.27597e-20 -9.8743e-16 0)
(-2.55156e-20 -9.87421e-16 0)
(-1.43978e-17 -9.87435e-16 0)
(-6.18436e-08 -3.41853e-13 0)
(-1.99957e-05 -4.56503e-05 0)
(-3.92151e-05 -0.0003672 0)
(-1.92812e-05 -0.000394058 0)
(1.92812e-05 -0.000394058 0)
(3.92151e-05 -0.0003672 0)
(1.99957e-05 -4.56503e-05 0)
(6.18436e-08 -3.41853e-13 0)
(1.43978e-17 -9.87435e-16 0)
(2.55156e-20 -9.87421e-16 0)
(2.27597e-20 -9.8743e-16 0)
(2.23129e-20 -9.87412e-16 0)
(2.04498e-20 -9.87414e-16 0)
(4.292e-20 -9.87347e-16 0)
(1.21374e-19 -9.87306e-16 0)
(2.17085e-19 -9.87319e-16 0)
(2.99328e-19 -9.8737e-16 0)
(3.61729e-19 -9.87439e-16 0)
(3.96245e-19 -9.87531e-16 0)
(3.95335e-19 -9.87621e-16 0)
(3.70726e-19 -9.87689e-16 0)
(3.38355e-19 -9.87736e-16 0)
(3.0597e-19 -9.87769e-16 0)
(2.76153e-19 -9.87792e-16 0)
(2.4942e-19 -9.87809e-16 0)
(2.25592e-19 -9.87822e-16 0)
(2.04301e-19 -9.87832e-16 0)
(1.85163e-19 -9.8784e-16 0)
(1.67836e-19 -9.87846e-16 0)
(1.52027e-19 -9.87851e-16 0)
(1.37493e-19 -9.87855e-16 0)
(1.24032e-19 -9.87858e-16 0)
(1.11476e-19 -9.87861e-16 0)
(9.9685e-20 -9.87864e-16 0)
(8.85411e-20 -9.87865e-16 0)
(7.79436e-20 -9.87867e-16 0)
(6.78061e-20 -9.87868e-16 0)
(5.80533e-20 -9.8787e-16 0)
(4.86188e-20 -9.87871e-16 0)
(3.94432e-20 -9.87871e-16 0)
(3.04728e-20 -9.87872e-16 0)
(2.16577e-20 -9.87872e-16 0)
(1.29517e-20 -9.87872e-16 0)
(4.31009e-21 -9.87873e-16 0)
(-4.27465e-21 -9.87868e-16 0)
(-1.28446e-20 -9.87868e-16 0)
(-2.14768e-20 -9.87868e-16 0)
(-3.02141e-20 -9.87867e-16 0)
(-3.91011e-20 -9.87867e-16 0)
(-4.81855e-20 -9.87866e-16 0)
(-5.75186e-20 -9.87865e-16 0)
(-6.71566e-20 -9.87864e-16 0)
(-7.71622e-20 -9.87862e-16 0)
(-8.76056e-20 -9.8786e-16 0)
(-9.85669e-20 -9.87858e-16 0)
(-1.10138e-19 -9.87855e-16 0)
(-1.22426e-19 -9.87852e-16 0)
(-1.35553e-19 -9.87848e-16 0)
(-1.49667e-19 -9.87844e-16 0)
(-1.64934e-19 -9.87838e-16 0)
(-1.81553e-19 -9.87831e-16 0)
(-1.99741e-19 -9.87823e-16 0)
(-2.19735e-19 -9.87812e-16 0)
(-2.41746e-19 -9.87798e-16 0)
(-2.65878e-19 -9.87779e-16 0)
(-2.91902e-19 -9.87755e-16 0)
(-3.18757e-19 -9.87721e-16 0)
(-3.43464e-19 -9.87676e-16 0)
(-3.59388e-19 -9.87614e-16 0)
(-3.55797e-19 -9.87539e-16 0)
(-3.25453e-19 -9.87463e-16 0)
(-2.72265e-19 -9.87402e-16 0)
(-2.02955e-19 -9.87361e-16 0)
(-1.26181e-19 -9.87348e-16 0)
(-6.31138e-20 -9.87373e-16 0)
(-3.47741e-20 -9.87413e-16 0)
(-2.86712e-20 -9.8742e-16 0)
(-2.62625e-20 -9.87425e-16 0)
(-2.56657e-20 -9.87424e-16 0)
(-1.65893e-19 -9.87423e-16 0)
(-4.15895e-09 -6.36957e-15 0)
(-4.14786e-06 -2.15368e-05 0)
(-1.04177e-05 -0.000366383 0)
(-6.27395e-06 -0.000422799 0)
(6.27395e-06 -0.000422799 0)
(1.04177e-05 -0.000366383 0)
(4.14786e-06 -2.15368e-05 0)
(4.15895e-09 -6.36957e-15 0)
(1.65893e-19 -9.87423e-16 0)
(2.56657e-20 -9.87424e-16 0)
(2.62625e-20 -9.87425e-16 0)
(2.86712e-20 -9.8742e-16 0)
(3.47741e-20 -9.87413e-16 0)
(6.31138e-20 -9.87373e-16 0)
(1.26181e-19 -9.87348e-16 0)
(2.02955e-19 -9.87361e-16 0)
(2.72265e-19 -9.87402e-16 0)
(3.25453e-19 -9.87463e-16 0)
(3.55797e-19 -9.87539e-16 0)
(3.59388e-19 -9.87614e-16 0)
(3.43464e-19 -9.87676e-16 0)
(3.18757e-19 -9.87721e-16 0)
(2.91902e-19 -9.87755e-16 0)
(2.65878e-19 -9.87779e-16 0)
(2.41746e-19 -9.87798e-16 0)
(2.19735e-19 -9.87812e-16 0)
(1.99741e-19 -9.87823e-16 0)
(1.81553e-19 -9.87831e-16 0)
(1.64934e-19 -9.87838e-16 0)
(1.49667e-19 -9.87844e-16 0)
(1.35553e-19 -9.87848e-16 0)
(1.22426e-19 -9.87852e-16 0)
(1.10138e-19 -9.87855e-16 0)
(9.85669e-20 -9.87858e-16 0)
(8.76056e-20 -9.8786e-16 0)
(7.71622e-20 -9.87862e-16 0)
(6.71566e-20 -9.87864e-16 0)
(5.75186e-20 -9.87865e-16 0)
(4.81855e-20 -9.87866e-16 0)
(3.91011e-20 -9.87867e-16 0)
(3.02141e-20 -9.87867e-16 0)
(2.14768e-20 -9.87868e-16 0)
(1.28446e-20 -9.87868e-16 0)
(4.27465e-21 -9.87868e-16 0)
(-4.2301e-21 -9.87864e-16 0)
(-1.271e-20 -9.87864e-16 0)
(-2.12494e-20 -9.87863e-16 0)
(-2.98891e-20 -9.87863e-16 0)
(-3.86716e-20 -9.87862e-16 0)
(-4.76418e-20 -9.87861e-16 0)
(-5.68481e-20 -9.8786e-16 0)
(-6.63431e-20 -9.87858e-16 0)
(-7.61846e-20 -9.87857e-16 0)
(-8.6437e-20 -9.87855e-16 0)
(-9.71728e-20 -9.87852e-16 0)
(-1.08474e-19 -9.87849e-16 0)
(-1.20433e-19 -9.87845e-16 0)
(-1.33155e-19 -9.87841e-16 0)
(-1.4676e-19 -9.87836e-16 0)
(-1.6138e-19 -9.8783e-16 0)
(-1.7716e-19 -9.87822e-16 0)
(-1.94244e-19 -9.87813e-16 0)
(-2.12756e-19 -9.87801e-16 0)
(-2.32747e-19 -9.87786e-16 0)
(-2.54087e-19 -9.87767e-16 0)
(-2.76245e-19 -9.87741e-16 0)
(-2.97852e-19 -9.87709e-16 0)
(-3.15979e-19 -9.87666e-16 0)
(-3.25329e-19 -9.87611e-16 0)
(-3.18791e-19 -9.87548e-16 0)
(-2.91948e-19 -9.87485e-16 0)
(-2.47016e-19 -9.87433e-16 0)
(-1.8951e-19 -9.87398e-16 0)
(-1.27682e-19 -9.87385e-16 0)
(-7.57109e-20 -9.87398e-16 0)
(-4.52963e-20 -9.8742e-16 0)
(-3.3136e-20 -9.87426e-16 0)
(-2.75816e-20 -9.87428e-16 0)
(-2.27931e-20 -9.87427e-16 0)
(-2.94058e-20 -9.87424e-16 0)
(-3.93746e-10 -2.05505e-15 0)
(-1.38308e-06 -1.44752e-05 0)
(-4.32504e-06 -0.000361803 0)
(-2.94235e-06 -0.000434374 0)
(2.94235e-06 -0.000434374 0)
(4.32504e-06 -0.000361803 0)
(1.38308e-06 -1.44752e-05 0)
(3.93746e-10 -2.05505e-15 0)
(2.94058e-20 -9.87424e-16 0)
(2.27931e-20 -9.87427e-16 0)
(2.75816e-20 -9.87428e-16 0)
(3.3136e-20 -9.87426e-16 0)
(4.52963e-20 -9.8742e-16 0)
(7.57109e-20 -9.87398e-16 0)
(1.27682e-19 -9.87385e-16 0)
(1.8951e-19 -9.87398e-16 0)
(2.47016e-19 -9.87433e-16 0)
(2.91948e-19 -9.87485e-16 0)
(3.18791e-19 -9.87548e-16 0)
(3.25329e-19 -9.87611e-16 0)
(3.15979e-19 -9.87666e-16 0)
(2.97852e-19 -9.87709e-16 0)
(2.76245e-19 -9.87741e-16 0)
(2.54087e-19 -9.87767e-16 0)
(2.32747e-19 -9.87786e-16 0)
(2.12756e-19 -9.87801e-16 0)
(1.94244e-19 -9.87813e-16 0)
(1.7716e-19 -9.87822e-16 0)
(1.6138e-19 -9.8783e-16 0)
(1.4676e-19 -9.87836e-16 0)
(1.33155e-19 -9.87841e-16 0)
(1.20433e-19 -9.87845e-16 0)
(1.08474e-19 -9.87849e-16 0)
(9.71728e-20 -9.87852e-16 0)
(8.6437e-20 -9.87855e-16 0)
(7.61846e-20 -9.87857e-16 0)
(6.63431e-20 -9.87858e-16 0)
(5.68481e-20 -9.8786e-16 0)
(4.76418e-20 -9.87861e-16 0)
(3.86716e-20 -9.87862e-16 0)
(2.98891e-20 -9.87863e-16 0)
(2.12494e-20 -9.87863e-16 0)
(1.271e-20 -9.87864e-16 0)
(4.2301e-21 -9.87864e-16 0)
(-4.17471e-21 -9.87859e-16 0)
(-1.25427e-20 -9.87859e-16 0)
(-2.09669e-20 -9.87858e-16 0)
(-2.94855e-20 -9.87858e-16 0)
(-3.81383e-20 -9.87857e-16 0)
(-4.69674e-20 -9.87856e-16 0)
(-5.60173e-20 -9.87854e-16 0)
(-6.53362e-20 -9.87853e-16 0)
(-7.49764e-20 -9.87851e-16 0)
(-8.49954e-20 -9.87848e-16 0)
(-9.54568e-20 -9.87846e-16 0)
(-1.0643e-19 -9.87842e-16 0)
(-1.17994e-19 -9.87838e-16 0)
(-1.30232e-19 -9.87834e-16 0)
(-1.43235e-19 -9.87828e-16 0)
(-1.57099e-19 -9.87821e-16 0)
(-1.71911e-19 -9.87813e-16 0)
(-1.87743e-19 -9.87803e-16 0)
(-2.04612e-19 -9.8779e-16 0)
(-2.2243e-19 -9.87774e-16 0)
(-2.40885e-19 -9.87755e-16 0)
(-2.59253e-19 -9.8773e-16 0)
(-2.76075e-19 -9.87698e-16 0)
(-2.88738e-19 -9.87658e-16 0)
(-2.93229e-19 -9.8761e-16 0)
(-2.8492e-19 -9.87557e-16 0)
(-2.61184e-19 -9.87505e-16 0)
(-2.23484e-19 -9.87461e-16 0)
(-1.76193e-19 -9.87431e-16 0)
(-1.26066e-19 -9.87418e-16 0)
(-8.23949e-20 -9.87421e-16 0)
(-5.18301e-20 -9.87432e-16 0)
(-3.59592e-20 -9.87436e-16 0)
(-2.77454e-20 -9.87437e-16 0)
(-1.97079e-20 -9.87436e-16 0)
(-1.30016e-20 -9.87433e-16 0)
(3.01541e-22 -1.58147e-15 0)
(-3.69877e-07 -1.153e-05 0)
(-2.10967e-06 -0.000357404 0)
(-1.73979e-06 -0.000440847 0)