/*--------------------------------*- C++ -*----------------------------------*\
  =========                 |
  \\      /  F ield         | OpenFOAM: The Open Source CFD Toolbox
   \\    /   O peration     | Website:  https://openfoam.org
    \\  /    A nd           | Version:  10
     \\/     M anipulation  |
\*---------------------------------------------------------------------------*/
FoamFile
{
    format      ascii;
    class       volScalarField;
    location    "2.59";
    object      p;
}
// * * * * * * * * * * * * * * * * * * * * * * * * * * * * * * * * * * * * * //

dimensions      [1 -1 -2 0 0 0 0];

internalField   nonuniform List<scalar> 
12225
(
1.80265e+07
1.79741e+07
1.78803e+07
1.7757e+07
1.7614e+07
1.74588e+07
1.72968e+07
1.71314e+07
1.69648e+07
1.67981e+07
1.66319e+07
1.64662e+07
1.63007e+07
1.61342e+07
1.59653e+07
1.57909e+07
1.56053e+07
1.53936e+07
1.80286e+07
1.7976e+07
1.78819e+07
1.77582e+07
1.76149e+07
1.74596e+07
1.72974e+07
1.7132e+07
1.69653e+07
1.67986e+07
1.66324e+07
1.64669e+07
1.63014e+07
1.61353e+07
1.59668e+07
1.57935e+07
1.56106e+07
1.54091e+07
1.80333e+07
1.79802e+07
1.78854e+07
1.7761e+07
1.76171e+07
1.74612e+07
1.72988e+07
1.71331e+07
1.69663e+07
1.67996e+07
1.66335e+07
1.64682e+07
1.63031e+07
1.61376e+07
1.59702e+07
1.57989e+07
1.56207e+07
1.54323e+07
1.80412e+07
1.79872e+07
1.78912e+07
1.77655e+07
1.76206e+07
1.74639e+07
1.73009e+07
1.71349e+07
1.6968e+07
1.68013e+07
1.66354e+07
1.64704e+07
1.63059e+07
1.61413e+07
1.59756e+07
1.58073e+07
1.56351e+07
1.54595e+07
1.80529e+07
1.79977e+07
1.78998e+07
1.77722e+07
1.76257e+07
1.74679e+07
1.73041e+07
1.71375e+07
1.69704e+07
1.68037e+07
1.6638e+07
1.64735e+07
1.63098e+07
1.61466e+07
1.5983e+07
1.58185e+07
1.56528e+07
1.54884e+07
1.80693e+07
1.80121e+07
1.79116e+07
1.77814e+07
1.76327e+07
1.74733e+07
1.73083e+07
1.71411e+07
1.69736e+07
1.6807e+07
1.66416e+07
1.64777e+07
1.63151e+07
1.61535e+07
1.59926e+07
1.58322e+07
1.56731e+07
1.55181e+07
1.80912e+07
1.80315e+07
1.79273e+07
1.77935e+07
1.76418e+07
1.74802e+07
1.73138e+07
1.71458e+07
1.69779e+07
1.68112e+07
1.66462e+07
1.64831e+07
1.63218e+07
1.61622e+07
1.60042e+07
1.58482e+07
1.56953e+07
1.55483e+07
1.81202e+07
1.80568e+07
1.79475e+07
1.78089e+07
1.76534e+07
1.7489e+07
1.73207e+07
1.71515e+07
1.69831e+07
1.68164e+07
1.66519e+07
1.64897e+07
1.63299e+07
1.61725e+07
1.60177e+07
1.58661e+07
1.57189e+07
1.55785e+07
1.81576e+07
1.80892e+07
1.79731e+07
1.78282e+07
1.76677e+07
1.74997e+07
1.73291e+07
1.71585e+07
1.69894e+07
1.68227e+07
1.66587e+07
1.64976e+07
1.63395e+07
1.61845e+07
1.6033e+07
1.58856e+07
1.57436e+07
1.56086e+07
1.82058e+07
1.81303e+07
1.80049e+07
1.78518e+07
1.76849e+07
1.75125e+07
1.7339e+07
1.71667e+07
1.69968e+07
1.683e+07
1.66666e+07
1.65067e+07
1.63504e+07
1.6198e+07
1.60497e+07
1.59064e+07
1.57689e+07
1.56387e+07
1.82674e+07
1.81818e+07
1.80439e+07
1.78799e+07
1.77051e+07
1.75273e+07
1.73503e+07
1.7176e+07
1.70053e+07
1.68384e+07
1.66757e+07
1.6517e+07
1.63627e+07
1.62128e+07
1.60677e+07
1.59281e+07
1.57948e+07
1.56685e+07
1.834e+07
1.82406e+07
1.80868e+07
1.79101e+07
1.77262e+07
1.75425e+07
1.73618e+07
1.71855e+07
1.70138e+07
1.68469e+07
1.66848e+07
1.65274e+07
1.63749e+07
1.62274e+07
1.60851e+07
1.59487e+07
1.58186e+07
1.56956e+07
1.84295e+07
1.83105e+07
1.81359e+07
1.79434e+07
1.7749e+07
1.75586e+07
1.73739e+07
1.71954e+07
1.70227e+07
1.68558e+07
1.66944e+07
1.65384e+07
1.63877e+07
1.62424e+07
1.61029e+07
1.59694e+07
1.58423e+07
1.57221e+07
1.8562e+07
1.84078e+07
1.82003e+07
1.79851e+07
1.77765e+07
1.75776e+07
1.7388e+07
1.72068e+07
1.70332e+07
1.68664e+07
1.67059e+07
1.65514e+07
1.64028e+07
1.62601e+07
1.61235e+07
1.59931e+07
1.58691e+07
1.57517e+07
1.87687e+07
1.85432e+07
1.82815e+07
1.8034e+07
1.78071e+07
1.75979e+07
1.74028e+07
1.7219e+07
1.70445e+07
1.6878e+07
1.67188e+07
1.65663e+07
1.64201e+07
1.62803e+07
1.61467e+07
1.60195e+07
1.58986e+07
1.57841e+07
1.91189e+07
1.87242e+07
1.83723e+07
1.80821e+07
1.78346e+07
1.76152e+07
1.74152e+07
1.72295e+07
1.70549e+07
1.68895e+07
1.67321e+07
1.65821e+07
1.64389e+07
1.63022e+07
1.61719e+07
1.6048e+07
1.59303e+07
1.58187e+07
1.98001e+07
1.8906e+07
1.84306e+07
1.81034e+07
1.78431e+07
1.76192e+07
1.74183e+07
1.72334e+07
1.70607e+07
1.68979e+07
1.67436e+07
1.65969e+07
1.64573e+07
1.63242e+07
1.61976e+07
1.60772e+07
1.59627e+07
1.58541e+07
1.89604e+07
1.86313e+07
1.83127e+07
1.80394e+07
1.78028e+07
1.75921e+07
1.74002e+07
1.72224e+07
1.70557e+07
1.68984e+07
1.67492e+07
1.66074e+07
1.64724e+07
1.63438e+07
1.62213e+07
1.61047e+07
1.59938e+07
1.58883e+07
1.84004e+07
1.82669e+07
1.80841e+07
1.78913e+07
1.77028e+07
1.75227e+07
1.73514e+07
1.71886e+07
1.70335e+07
1.68856e+07
1.67443e+07
1.66094e+07
1.64805e+07
1.63574e+07
1.62398e+07
1.61276e+07
1.60206e+07
1.59186e+07
1.80823e+07
1.80065e+07
1.78859e+07
1.77437e+07
1.7593e+07
1.74408e+07
1.72904e+07
1.71434e+07
1.70008e+07
1.68629e+07
1.67299e+07
1.66019e+07
1.6479e+07
1.63609e+07
1.62478e+07
1.61395e+07
1.60358e+07
1.59368e+07
1.79011e+07
1.78469e+07
1.77547e+07
1.76395e+07
1.75115e+07
1.73775e+07
1.72416e+07
1.71062e+07
1.69728e+07
1.68424e+07
1.67157e+07
1.65929e+07
1.64743e+07
1.636e+07
1.62501e+07
1.61446e+07
1.60434e+07
1.59464e+07
1.77815e+07
1.7738e+07
1.76614e+07
1.75624e+07
1.74493e+07
1.73279e+07
1.72024e+07
1.70756e+07
1.69492e+07
1.68247e+07
1.67027e+07
1.6584e+07
1.64688e+07
1.63575e+07
1.62501e+07
1.61467e+07
1.60474e+07
1.5952e+07
1.77007e+07
1.76631e+07
1.75958e+07
1.75069e+07
1.74034e+07
1.72906e+07
1.71725e+07
1.70518e+07
1.69307e+07
1.68104e+07
1.66921e+07
1.65764e+07
1.64638e+07
1.63546e+07
1.62491e+07
1.61473e+07
1.60494e+07
1.59552e+07
1.76458e+07
1.76117e+07
1.75501e+07
1.74677e+07
1.73705e+07
1.72635e+07
1.71505e+07
1.70342e+07
1.69167e+07
1.67995e+07
1.66838e+07
1.65703e+07
1.64596e+07
1.6352e+07
1.62479e+07
1.61473e+07
1.60503e+07
1.5957e+07
1.76087e+07
1.75768e+07
1.75187e+07
1.74405e+07
1.73475e+07
1.72444e+07
1.71348e+07
1.70215e+07
1.69066e+07
1.67916e+07
1.66777e+07
1.65658e+07
1.64564e+07
1.63499e+07
1.62467e+07
1.6147e+07
1.60507e+07
1.5958e+07
1.7584e+07
1.75535e+07
1.74977e+07
1.74221e+07
1.73319e+07
1.72314e+07
1.71241e+07
1.70128e+07
1.68996e+07
1.6786e+07
1.66734e+07
1.65625e+07
1.6454e+07
1.63483e+07
1.62458e+07
1.61466e+07
1.60508e+07
1.59586e+07
1.75682e+07
1.75385e+07
1.74841e+07
1.74102e+07
1.73217e+07
1.72228e+07
1.7117e+07
1.7007e+07
1.68949e+07
1.67823e+07
1.66705e+07
1.65603e+07
1.64524e+07
1.63472e+07
1.62451e+07
1.61463e+07
1.60508e+07
1.59589e+07
1.75586e+07
1.75294e+07
1.74759e+07
1.7403e+07
1.73155e+07
1.72176e+07
1.71127e+07
1.70034e+07
1.6892e+07
1.678e+07
1.66687e+07
1.65589e+07
1.64513e+07
1.63465e+07
1.62446e+07
1.6146e+07
1.60508e+07
1.5959e+07
1.75535e+07
1.75245e+07
1.74714e+07
1.7399e+07
1.73121e+07
1.72147e+07
1.71103e+07
1.70015e+07
1.68904e+07
1.67787e+07
1.66677e+07
1.65581e+07
1.64508e+07
1.63461e+07
1.62444e+07
1.61459e+07
1.60507e+07
1.5959e+07
1.75514e+07
1.75225e+07
1.74696e+07
1.73974e+07
1.73107e+07
1.72136e+07
1.71093e+07
1.70007e+07
1.68898e+07
1.67782e+07
1.66673e+07
1.65578e+07
1.64505e+07
1.63459e+07
1.62442e+07
1.61458e+07
1.60507e+07
1.5959e+07
1.34584e+07
1.34573e+07
1.34552e+07
1.3452e+07
1.34477e+07
1.34423e+07
1.34358e+07
1.3428e+07
1.34191e+07
1.3409e+07
1.33976e+07
1.33851e+07
1.33712e+07
1.33561e+07
1.33397e+07
1.33221e+07
1.33031e+07
1.32829e+07
1.32613e+07
1.32384e+07
1.32141e+07
1.31886e+07
1.31617e+07
1.31335e+07
1.31039e+07
1.3073e+07
1.30407e+07
1.30071e+07
1.29721e+07
1.29357e+07
1.28979e+07
1.28588e+07
1.28183e+07
1.27763e+07
1.27329e+07
1.26881e+07
1.26419e+07
1.25942e+07
1.25449e+07
1.24942e+07
1.2442e+07
1.23882e+07
1.23329e+07
1.2276e+07
1.22174e+07
1.21572e+07
1.20954e+07
1.20318e+07
1.19664e+07
1.18991e+07
1.18299e+07
1.17587e+07
1.16853e+07
1.16096e+07
1.15315e+07
1.14508e+07
1.13672e+07
1.12804e+07
1.119e+07
1.10955e+07
1.09959e+07
1.08894e+07
1.07712e+07
1.06716e+07
1.0668e+07
1.06649e+07
1.06618e+07
1.06589e+07
1.06559e+07
1.0653e+07
1.06501e+07
1.06472e+07
1.06444e+07
1.06416e+07
1.06388e+07
1.0636e+07
1.06332e+07
1.06304e+07
1.06276e+07
1.06248e+07
1.0622e+07
1.06193e+07
1.06165e+07
1.06137e+07
1.06109e+07
1.06082e+07
1.06054e+07
1.06026e+07
1.05998e+07
1.0597e+07
1.05942e+07
1.05914e+07
1.05886e+07
1.05857e+07
1.05829e+07
1.058e+07
1.05771e+07
1.05743e+07
1.05714e+07
1.05685e+07
1.05655e+07
1.05626e+07
1.05597e+07
1.05567e+07
1.05537e+07
1.05507e+07
1.05477e+07
1.05447e+07
1.05416e+07
1.05385e+07
1.05354e+07
1.05323e+07
1.05292e+07
1.0526e+07
1.05229e+07
1.05197e+07
1.05165e+07
1.05132e+07
1.051e+07
1.05067e+07
1.05034e+07
1.05e+07
1.04967e+07
1.04933e+07
1.04899e+07
1.04865e+07
1.0483e+07
1.04796e+07
1.04761e+07
1.04725e+07
1.0469e+07
1.04654e+07
1.04618e+07
1.04581e+07
1.04545e+07
1.04508e+07
1.04471e+07
1.04433e+07
1.04396e+07
1.04358e+07
1.04319e+07
1.04281e+07
1.04242e+07
1.04203e+07
1.04163e+07
1.04123e+07
1.04083e+07
1.04043e+07
1.04002e+07
1.03961e+07
1.0392e+07
1.03878e+07
1.03836e+07
1.03794e+07
1.03751e+07
1.03708e+07
1.03665e+07
1.03621e+07
1.03577e+07
1.03533e+07
1.03488e+07
1.03443e+07
1.03398e+07
1.03352e+07
1.03306e+07
1.03259e+07
1.03213e+07
1.03166e+07
1.03118e+07
1.0307e+07
1.03022e+07
1.02974e+07
1.02925e+07
1.02876e+07
1.02826e+07
1.02777e+07
1.02727e+07
1.02677e+07
1.02627e+07
1.02578e+07
1.34625e+07
1.34615e+07
1.34594e+07
1.34562e+07
1.34519e+07
1.34464e+07
1.34398e+07
1.34321e+07
1.34231e+07
1.34129e+07
1.34015e+07
1.33889e+07
1.3375e+07
1.33599e+07
1.33434e+07
1.33257e+07
1.33067e+07
1.32863e+07
1.32647e+07
1.32417e+07
1.32174e+07
1.31918e+07
1.31648e+07
1.31365e+07
1.31069e+07
1.30759e+07
1.30436e+07
1.30099e+07
1.29748e+07
1.29384e+07
1.29006e+07
1.28615e+07
1.28209e+07
1.27789e+07
1.27355e+07
1.26907e+07
1.26445e+07
1.25967e+07
1.25475e+07
1.24969e+07
1.24447e+07
1.23909e+07
1.23356e+07
1.22787e+07
1.22202e+07
1.21601e+07
1.20983e+07
1.20347e+07
1.19694e+07
1.19022e+07
1.18331e+07
1.17619e+07
1.16887e+07
1.16132e+07
1.15353e+07
1.14548e+07
1.13715e+07
1.12851e+07
1.11953e+07
1.11016e+07
1.10033e+07
1.08996e+07
1.07888e+07
1.06723e+07
1.06678e+07
1.06647e+07
1.06617e+07
1.06588e+07
1.06558e+07
1.06529e+07
1.065e+07
1.06472e+07
1.06443e+07
1.06415e+07
1.06387e+07
1.06359e+07
1.06331e+07
1.06303e+07
1.06276e+07
1.06248e+07
1.0622e+07
1.06192e+07
1.06165e+07
1.06137e+07
1.06109e+07
1.06081e+07
1.06054e+07
1.06026e+07
1.05998e+07
1.0597e+07
1.05942e+07
1.05914e+07
1.05885e+07
1.05857e+07
1.05829e+07
1.058e+07
1.05771e+07
1.05743e+07
1.05714e+07
1.05685e+07
1.05655e+07
1.05626e+07
1.05597e+07
1.05567e+07
1.05537e+07
1.05507e+07
1.05477e+07
1.05446e+07
1.05416e+07
1.05385e+07
1.05354e+07
1.05323e+07
1.05292e+07
1.0526e+07
1.05229e+07
1.05197e+07
1.05165e+07
1.05132e+07
1.051e+07
1.05067e+07
1.05034e+07
1.05e+07
1.04967e+07
1.04933e+07
1.04899e+07
1.04865e+07
1.0483e+07
1.04796e+07
1.0476e+07
1.04725e+07
1.0469e+07
1.04654e+07
1.04618e+07
1.04581e+07
1.04545e+07
1.04508e+07
1.04471e+07
1.04433e+07
1.04396e+07
1.04358e+07
1.04319e+07
1.04281e+07
1.04242e+07
1.04203e+07
1.04163e+07
1.04123e+07
1.04083e+07
1.04043e+07
1.04002e+07
1.03961e+07
1.0392e+07
1.03878e+07
1.03836e+07
1.03794e+07
1.03751e+07
1.03708e+07
1.03665e+07
1.03621e+07
1.03577e+07
1.03533e+07
1.03488e+07
1.03443e+07
1.03398e+07
1.03352e+07
1.03306e+07
1.03259e+07
1.03213e+07
1.03166e+07
1.03118e+07
1.0307e+07
1.03022e+07
1.02974e+07
1.02925e+07
1.02876e+07
1.02826e+07
1.02777e+07
1.02727e+07
1.02677e+07
1.02627e+07
1.02578e+07
1.34711e+07
1.347e+07
1.34679e+07
1.34647e+07
1.34603e+07
1.34548e+07
1.34482e+07
1.34403e+07
1.34313e+07
1.34211e+07
1.34096e+07
1.33969e+07
1.33829e+07
1.33676e+07
1.33511e+07
1.33332e+07
1.33141e+07
1.32936e+07
1.32718e+07
1.32487e+07
1.32243e+07
1.31985e+07
1.31714e+07
1.3143e+07
1.31132e+07
1.30821e+07
1.30497e+07
1.30158e+07
1.29807e+07
1.29442e+07
1.29063e+07
1.2867e+07
1.28263e+07
1.27843e+07
1.27408e+07
1.26959e+07
1.26496e+07
1.26018e+07
1.25526e+07
1.25019e+07
1.24497e+07
1.23959e+07
1.23406e+07
1.22838e+07
1.22253e+07
1.21652e+07
1.21035e+07
1.204e+07
1.19747e+07
1.19077e+07
1.18387e+07
1.17678e+07
1.16948e+07
1.16196e+07
1.15421e+07
1.14621e+07
1.13794e+07
1.12938e+07
1.12049e+07
1.11123e+07
1.10154e+07
1.0913e+07
1.08025e+07
1.0676e+07
1.06675e+07
1.06645e+07
1.06615e+07
1.06586e+07
1.06557e+07
1.06528e+07
1.06499e+07
1.06471e+07
1.06442e+07
1.06414e+07
1.06386e+07
1.06358e+07
1.0633e+07
1.06303e+07
1.06275e+07
1.06247e+07
1.06219e+07
1.06192e+07
1.06164e+07
1.06136e+07
1.06109e+07
1.06081e+07
1.06053e+07
1.06025e+07
1.05997e+07
1.05969e+07
1.05941e+07
1.05913e+07
1.05885e+07
1.05857e+07
1.05828e+07
1.058e+07
1.05771e+07
1.05742e+07
1.05713e+07
1.05684e+07
1.05655e+07
1.05626e+07
1.05596e+07
1.05567e+07
1.05537e+07
1.05507e+07
1.05477e+07
1.05446e+07
1.05416e+07
1.05385e+07
1.05354e+07
1.05323e+07
1.05292e+07
1.0526e+07
1.05229e+07
1.05197e+07
1.05164e+07
1.05132e+07
1.05099e+07
1.05067e+07
1.05034e+07
1.05e+07
1.04967e+07
1.04933e+07
1.04899e+07
1.04865e+07
1.0483e+07
1.04795e+07
1.0476e+07
1.04725e+07
1.0469e+07
1.04654e+07
1.04618e+07
1.04581e+07
1.04545e+07
1.04508e+07
1.04471e+07
1.04433e+07
1.04396e+07
1.04358e+07
1.04319e+07
1.04281e+07
1.04242e+07
1.04202e+07
1.04163e+07
1.04123e+07
1.04083e+07
1.04043e+07
1.04002e+07
1.03961e+07
1.03919e+07
1.03878e+07
1.03836e+07
1.03793e+07
1.03751e+07
1.03708e+07
1.03665e+07
1.03621e+07
1.03577e+07
1.03533e+07
1.03488e+07
1.03443e+07
1.03398e+07
1.03352e+07
1.03306e+07
1.03259e+07
1.03213e+07
1.03166e+07
1.03118e+07
1.0307e+07
1.03022e+07
1.02974e+07
1.02925e+07
1.02876e+07
1.02826e+07
1.02777e+07
1.02727e+07
1.02677e+07
1.02627e+07
1.02577e+07
1.34841e+07
1.3483e+07
1.34808e+07
1.34775e+07
1.34731e+07
1.34676e+07
1.34608e+07
1.34529e+07
1.34438e+07
1.34334e+07
1.34218e+07
1.34089e+07
1.33948e+07
1.33794e+07
1.33627e+07
1.33446e+07
1.33253e+07
1.33047e+07
1.32827e+07
1.32594e+07
1.32348e+07
1.32088e+07
1.31816e+07
1.31529e+07
1.3123e+07
1.30916e+07
1.3059e+07
1.3025e+07
1.29896e+07
1.29529e+07
1.29148e+07
1.28754e+07
1.28345e+07
1.27923e+07
1.27487e+07
1.27037e+07
1.26572e+07
1.26093e+07
1.256e+07
1.25092e+07
1.24569e+07
1.24031e+07
1.23478e+07
1.2291e+07
1.22325e+07
1.21725e+07
1.21108e+07
1.20474e+07
1.19823e+07
1.19155e+07
1.18467e+07
1.17761e+07
1.17035e+07
1.16287e+07
1.15518e+07
1.14725e+07
1.13906e+07
1.1306e+07
1.12185e+07
1.11275e+07
1.10325e+07
1.09322e+07
1.08237e+07
1.06973e+07
1.06671e+07
1.06641e+07
1.06612e+07
1.06583e+07
1.06554e+07
1.06526e+07
1.06497e+07
1.06469e+07
1.06441e+07
1.06413e+07
1.06385e+07
1.06357e+07
1.06329e+07
1.06302e+07
1.06274e+07
1.06246e+07
1.06219e+07
1.06191e+07
1.06163e+07
1.06136e+07
1.06108e+07
1.0608e+07
1.06053e+07
1.06025e+07
1.05997e+07
1.05969e+07
1.05941e+07
1.05913e+07
1.05885e+07
1.05856e+07
1.05828e+07
1.05799e+07
1.05771e+07
1.05742e+07
1.05713e+07
1.05684e+07
1.05655e+07
1.05626e+07
1.05596e+07
1.05567e+07
1.05537e+07
1.05507e+07
1.05477e+07
1.05446e+07
1.05416e+07
1.05385e+07
1.05354e+07
1.05323e+07
1.05292e+07
1.0526e+07
1.05228e+07
1.05197e+07
1.05164e+07
1.05132e+07
1.05099e+07
1.05067e+07
1.05034e+07
1.05e+07
1.04967e+07
1.04933e+07
1.04899e+07
1.04865e+07
1.0483e+07
1.04795e+07
1.0476e+07
1.04725e+07
1.0469e+07
1.04654e+07
1.04618e+07
1.04581e+07
1.04545e+07
1.04508e+07
1.04471e+07
1.04433e+07
1.04395e+07
1.04357e+07
1.04319e+07
1.04281e+07
1.04242e+07
1.04202e+07
1.04163e+07
1.04123e+07
1.04083e+07
1.04043e+07
1.04002e+07
1.03961e+07
1.03919e+07
1.03878e+07
1.03836e+07
1.03793e+07
1.03751e+07
1.03708e+07
1.03664e+07
1.03621e+07
1.03577e+07
1.03533e+07
1.03488e+07
1.03443e+07
1.03397e+07
1.03352e+07
1.03306e+07
1.03259e+07
1.03213e+07
1.03165e+07
1.03118e+07
1.0307e+07
1.03022e+07
1.02974e+07
1.02925e+07
1.02876e+07
1.02826e+07
1.02777e+07
1.02727e+07
1.02677e+07
1.02626e+07
1.02576e+07
1.35016e+07
1.35004e+07
1.34982e+07
1.34949e+07
1.34904e+07
1.34847e+07
1.34778e+07
1.34698e+07
1.34605e+07
1.345e+07
1.34382e+07
1.34251e+07
1.34108e+07
1.33951e+07
1.33782e+07
1.33599e+07
1.33404e+07
1.33195e+07
1.32973e+07
1.32737e+07
1.32488e+07
1.32226e+07
1.3195e+07
1.31661e+07
1.31359e+07
1.31043e+07
1.30714e+07
1.30371e+07
1.30015e+07
1.29645e+07
1.29262e+07
1.28865e+07
1.28454e+07
1.28029e+07
1.27591e+07
1.27139e+07
1.26672e+07
1.26192e+07
1.25697e+07
1.25188e+07
1.24664e+07
1.24125e+07
1.23572e+07
1.23003e+07
1.22419e+07
1.21819e+07
1.21203e+07
1.2057e+07
1.19921e+07
1.19254e+07
1.1857e+07
1.17867e+07
1.17145e+07
1.16403e+07
1.15641e+07
1.14856e+07
1.14047e+07
1.13214e+07
1.12354e+07
1.11465e+07
1.10544e+07
1.09588e+07
1.08595e+07
1.07573e+07
1.06673e+07
1.06637e+07
1.06608e+07
1.0658e+07
1.06551e+07
1.06523e+07
1.06495e+07
1.06467e+07
1.06439e+07
1.06411e+07
1.06383e+07
1.06355e+07
1.06328e+07
1.063e+07
1.06273e+07
1.06245e+07
1.06218e+07
1.0619e+07
1.06162e+07
1.06135e+07
1.06107e+07
1.0608e+07
1.06052e+07
1.06024e+07
1.05996e+07
1.05968e+07
1.0594e+07
1.05912e+07
1.05884e+07
1.05856e+07
1.05828e+07
1.05799e+07
1.0577e+07
1.05742e+07
1.05713e+07
1.05684e+07
1.05655e+07
1.05625e+07
1.05596e+07
1.05566e+07
1.05536e+07
1.05507e+07
1.05476e+07
1.05446e+07
1.05416e+07
1.05385e+07
1.05354e+07
1.05323e+07
1.05292e+07
1.0526e+07
1.05228e+07
1.05196e+07
1.05164e+07
1.05132e+07
1.05099e+07
1.05066e+07
1.05033e+07
1.05e+07
1.04967e+07
1.04933e+07
1.04899e+07
1.04865e+07
1.0483e+07
1.04795e+07
1.0476e+07
1.04725e+07
1.0469e+07
1.04654e+07
1.04618e+07
1.04581e+07
1.04545e+07
1.04508e+07
1.04471e+07
1.04433e+07
1.04395e+07
1.04357e+07
1.04319e+07
1.04281e+07
1.04242e+07
1.04202e+07
1.04163e+07
1.04123e+07
1.04083e+07
1.04043e+07
1.04002e+07
1.03961e+07
1.03919e+07
1.03878e+07
1.03836e+07
1.03793e+07
1.03751e+07
1.03708e+07
1.03664e+07
1.03621e+07
1.03577e+07
1.03532e+07
1.03488e+07
1.03443e+07
1.03397e+07
1.03352e+07
1.03306e+07
1.03259e+07
1.03213e+07
1.03165e+07
1.03118e+07
1.0307e+07
1.03022e+07
1.02974e+07
1.02925e+07
1.02876e+07
1.02826e+07
1.02776e+07
1.02726e+07
1.02676e+07
1.02626e+07
1.02575e+07
1.35236e+07
1.35224e+07
1.35201e+07
1.35167e+07
1.35121e+07
1.35063e+07
1.34993e+07
1.3491e+07
1.34815e+07
1.34708e+07
1.34588e+07
1.34454e+07
1.34308e+07
1.34149e+07
1.33977e+07
1.33791e+07
1.33592e+07
1.3338e+07
1.33154e+07
1.32915e+07
1.32663e+07
1.32397e+07
1.32118e+07
1.31825e+07
1.31519e+07
1.312e+07
1.30867e+07
1.30521e+07
1.30161e+07
1.29788e+07
1.29402e+07
1.29001e+07
1.28588e+07
1.2816e+07
1.27719e+07
1.27264e+07
1.26796e+07
1.26313e+07
1.25816e+07
1.25305e+07
1.2478e+07
1.24241e+07
1.23686e+07
1.23117e+07
1.22533e+07
1.21933e+07
1.21318e+07
1.20687e+07
1.20039e+07
1.19375e+07
1.18694e+07
1.17995e+07
1.17278e+07
1.16542e+07
1.15787e+07
1.15011e+07
1.14214e+07
1.13394e+07
1.12551e+07
1.11683e+07
1.10788e+07
1.09863e+07
1.08904e+07
1.0789e+07
1.06724e+07
1.06632e+07
1.06604e+07
1.06576e+07
1.06548e+07
1.0652e+07
1.06492e+07
1.06464e+07
1.06436e+07
1.06409e+07
1.06381e+07
1.06354e+07
1.06326e+07
1.06299e+07
1.06271e+07
1.06244e+07
1.06216e+07
1.06189e+07
1.06161e+07
1.06134e+07
1.06106e+07
1.06079e+07
1.06051e+07
1.06023e+07
1.05996e+07
1.05968e+07
1.0594e+07
1.05912e+07
1.05884e+07
1.05855e+07
1.05827e+07
1.05799e+07
1.0577e+07
1.05741e+07
1.05712e+07
1.05683e+07
1.05654e+07
1.05625e+07
1.05596e+07
1.05566e+07
1.05536e+07
1.05506e+07
1.05476e+07
1.05446e+07
1.05415e+07
1.05385e+07
1.05354e+07
1.05323e+07
1.05291e+07
1.0526e+07
1.05228e+07
1.05196e+07
1.05164e+07
1.05132e+07
1.05099e+07
1.05066e+07
1.05033e+07
1.05e+07
1.04967e+07
1.04933e+07
1.04899e+07
1.04865e+07
1.0483e+07
1.04795e+07
1.0476e+07
1.04725e+07
1.04689e+07
1.04654e+07
1.04618e+07
1.04581e+07
1.04545e+07
1.04508e+07
1.04471e+07
1.04433e+07
1.04395e+07
1.04357e+07
1.04319e+07
1.0428e+07
1.04242e+07
1.04202e+07
1.04163e+07
1.04123e+07
1.04083e+07
1.04043e+07
1.04002e+07
1.03961e+07
1.03919e+07
1.03878e+07
1.03836e+07
1.03793e+07
1.03751e+07
1.03708e+07
1.03664e+07
1.03621e+07
1.03577e+07
1.03532e+07
1.03488e+07
1.03443e+07
1.03397e+07
1.03352e+07
1.03306e+07
1.03259e+07
1.03212e+07
1.03165e+07
1.03118e+07
1.0307e+07
1.03022e+07
1.02973e+07
1.02925e+07
1.02875e+07
1.02826e+07
1.02776e+07
1.02726e+07
1.02676e+07
1.02625e+07
1.02574e+07
1.35503e+07
1.3549e+07
1.35467e+07
1.35431e+07
1.35384e+07
1.35324e+07
1.35252e+07
1.35167e+07
1.35069e+07
1.34959e+07
1.34836e+07
1.34699e+07
1.3455e+07
1.34387e+07
1.3421e+07
1.34021e+07
1.33818e+07
1.33601e+07
1.33372e+07
1.33128e+07
1.32872e+07
1.32601e+07
1.32318e+07
1.32021e+07
1.3171e+07
1.31387e+07
1.3105e+07
1.30699e+07
1.30335e+07
1.29958e+07
1.29567e+07
1.29163e+07
1.28746e+07
1.28315e+07
1.27871e+07
1.27413e+07
1.26941e+07
1.26456e+07
1.25957e+07
1.25444e+07
1.24917e+07
1.24376e+07
1.2382e+07
1.2325e+07
1.22666e+07
1.22066e+07
1.21452e+07
1.20822e+07
1.20176e+07
1.19515e+07
1.18837e+07
1.18142e+07
1.1743e+07
1.16701e+07
1.15953e+07
1.15187e+07
1.14401e+07
1.13595e+07
1.12768e+07
1.11919e+07
1.11048e+07
1.10152e+07
1.0923e+07
1.08273e+07
1.07258e+07
1.06629e+07
1.066e+07
1.06572e+07
1.06544e+07
1.06516e+07
1.06489e+07
1.06461e+07
1.06434e+07
1.06406e+07
1.06379e+07
1.06351e+07
1.06324e+07
1.06297e+07
1.06269e+07
1.06242e+07
1.06215e+07
1.06187e+07
1.0616e+07
1.06132e+07
1.06105e+07
1.06077e+07
1.0605e+07
1.06022e+07
1.05995e+07
1.05967e+07
1.05939e+07
1.05911e+07
1.05883e+07
1.05855e+07
1.05826e+07
1.05798e+07
1.05769e+07
1.05741e+07
1.05712e+07
1.05683e+07
1.05654e+07
1.05625e+07
1.05595e+07
1.05566e+07
1.05536e+07
1.05506e+07
1.05476e+07
1.05446e+07
1.05415e+07
1.05384e+07
1.05354e+07
1.05322e+07
1.05291e+07
1.0526e+07
1.05228e+07
1.05196e+07
1.05164e+07
1.05132e+07
1.05099e+07
1.05066e+07
1.05033e+07
1.05e+07
1.04966e+07
1.04933e+07
1.04899e+07
1.04864e+07
1.0483e+07
1.04795e+07
1.0476e+07
1.04725e+07
1.04689e+07
1.04654e+07
1.04618e+07
1.04581e+07
1.04545e+07
1.04508e+07
1.04471e+07
1.04433e+07
1.04395e+07
1.04357e+07
1.04319e+07
1.0428e+07
1.04242e+07
1.04202e+07
1.04163e+07
1.04123e+07
1.04083e+07
1.04043e+07
1.04002e+07
1.03961e+07
1.03919e+07
1.03878e+07
1.03836e+07
1.03793e+07
1.03751e+07
1.03708e+07
1.03664e+07
1.03621e+07
1.03577e+07
1.03532e+07
1.03488e+07
1.03443e+07
1.03397e+07
1.03352e+07
1.03306e+07
1.03259e+07
1.03212e+07
1.03165e+07
1.03118e+07
1.0307e+07
1.03022e+07
1.02973e+07
1.02924e+07
1.02875e+07
1.02826e+07
1.02776e+07
1.02726e+07
1.02675e+07
1.02625e+07
1.02574e+07
1.35816e+07
1.35804e+07
1.35779e+07
1.35742e+07
1.35693e+07
1.35631e+07
1.35556e+07
1.35468e+07
1.35368e+07
1.35254e+07
1.35127e+07
1.34986e+07
1.34832e+07
1.34665e+07
1.34484e+07
1.34289e+07
1.34081e+07
1.3386e+07
1.33624e+07
1.33376e+07
1.33114e+07
1.32838e+07
1.32549e+07
1.32247e+07
1.31931e+07
1.31602e+07
1.3126e+07
1.30904e+07
1.30535e+07
1.30153e+07
1.29758e+07
1.29349e+07
1.28928e+07
1.28493e+07
1.28044e+07
1.27583e+07
1.27108e+07
1.26619e+07
1.26118e+07
1.25602e+07
1.25073e+07
1.2453e+07
1.23973e+07
1.23402e+07
1.22817e+07
1.22218e+07
1.21604e+07
1.20975e+07
1.20331e+07
1.19672e+07
1.18997e+07
1.18307e+07
1.176e+07
1.16877e+07
1.16137e+07
1.15379e+07
1.14604e+07
1.13811e+07
1.12999e+07
1.12169e+07
1.11319e+07
1.10448e+07
1.09557e+07
1.0864e+07
1.07687e+07
1.06655e+07
1.06595e+07
1.06567e+07
1.0654e+07
1.06512e+07
1.06485e+07
1.06458e+07
1.0643e+07
1.06403e+07
1.06376e+07
1.06349e+07
1.06321e+07
1.06294e+07
1.06267e+07
1.0624e+07
1.06213e+07
1.06185e+07
1.06158e+07
1.06131e+07
1.06104e+07
1.06076e+07
1.06049e+07
1.06021e+07
1.05993e+07
1.05966e+07
1.05938e+07
1.0591e+07
1.05882e+07
1.05854e+07
1.05826e+07
1.05797e+07
1.05769e+07
1.0574e+07
1.05711e+07
1.05683e+07
1.05653e+07
1.05624e+07
1.05595e+07
1.05565e+07
1.05536e+07
1.05506e+07
1.05476e+07
1.05445e+07
1.05415e+07
1.05384e+07
1.05353e+07
1.05322e+07
1.05291e+07
1.0526e+07
1.05228e+07
1.05196e+07
1.05164e+07
1.05132e+07
1.05099e+07
1.05066e+07
1.05033e+07
1.05e+07
1.04966e+07
1.04933e+07
1.04899e+07
1.04864e+07
1.0483e+07
1.04795e+07
1.0476e+07
1.04725e+07
1.04689e+07
1.04654e+07
1.04618e+07
1.04581e+07
1.04545e+07
1.04508e+07
1.04471e+07
1.04433e+07
1.04395e+07
1.04357e+07
1.04319e+07
1.0428e+07
1.04241e+07
1.04202e+07
1.04163e+07
1.04123e+07
1.04083e+07
1.04042e+07
1.04002e+07
1.03961e+07
1.03919e+07
1.03878e+07
1.03836e+07
1.03793e+07
1.03751e+07
1.03708e+07
1.03664e+07
1.03621e+07
1.03577e+07
1.03532e+07
1.03488e+07
1.03443e+07
1.03397e+07
1.03352e+07
1.03306e+07
1.03259e+07
1.03212e+07
1.03165e+07
1.03118e+07
1.0307e+07
1.03022e+07
1.02973e+07
1.02924e+07
1.02875e+07
1.02826e+07
1.02776e+07
1.02725e+07
1.02675e+07
1.02624e+07
1.02573e+07
1.36179e+07
1.36166e+07
1.3614e+07
1.36101e+07
1.36049e+07
1.35985e+07
1.35907e+07
1.35816e+07
1.35711e+07
1.35593e+07
1.35461e+07
1.35316e+07
1.35156e+07
1.34983e+07
1.34797e+07
1.34596e+07
1.34382e+07
1.34154e+07
1.33913e+07
1.33657e+07
1.33389e+07
1.33107e+07
1.32811e+07
1.32503e+07
1.32181e+07
1.31845e+07
1.31497e+07
1.31135e+07
1.30761e+07
1.30373e+07
1.29972e+07
1.29558e+07
1.29132e+07
1.28692e+07
1.28239e+07
1.27773e+07
1.27294e+07
1.26802e+07
1.26297e+07
1.25779e+07
1.25247e+07
1.24702e+07
1.24143e+07
1.23571e+07
1.22985e+07
1.22386e+07
1.21772e+07
1.21144e+07
1.20502e+07
1.19845e+07
1.19173e+07
1.18487e+07
1.17785e+07
1.17068e+07
1.16335e+07
1.15586e+07
1.14821e+07
1.1404e+07
1.13242e+07
1.12428e+07
1.11596e+07
1.10747e+07
1.09878e+07
1.08986e+07
1.08057e+07
1.07037e+07
1.06591e+07
1.06562e+07
1.06535e+07
1.06508e+07
1.06481e+07
1.06454e+07
1.06427e+07
1.064e+07
1.06373e+07
1.06346e+07
1.06319e+07
1.06292e+07
1.06265e+07
1.06238e+07
1.06211e+07
1.06184e+07
1.06156e+07
1.06129e+07
1.06102e+07
1.06075e+07
1.06047e+07
1.0602e+07
1.05992e+07
1.05965e+07
1.05937e+07
1.05909e+07
1.05881e+07
1.05853e+07
1.05825e+07
1.05797e+07
1.05768e+07
1.0574e+07
1.05711e+07
1.05682e+07
1.05653e+07
1.05624e+07
1.05594e+07
1.05565e+07
1.05535e+07
1.05505e+07
1.05475e+07
1.05445e+07
1.05414e+07
1.05384e+07
1.05353e+07
1.05322e+07
1.05291e+07
1.05259e+07
1.05228e+07
1.05196e+07
1.05164e+07
1.05131e+07
1.05099e+07
1.05066e+07
1.05033e+07
1.05e+07
1.04966e+07
1.04933e+07
1.04899e+07
1.04864e+07
1.0483e+07
1.04795e+07
1.0476e+07
1.04725e+07
1.04689e+07
1.04653e+07
1.04617e+07
1.04581e+07
1.04545e+07
1.04508e+07
1.0447e+07
1.04433e+07
1.04395e+07
1.04357e+07
1.04319e+07
1.0428e+07
1.04241e+07
1.04202e+07
1.04163e+07
1.04123e+07
1.04083e+07
1.04042e+07
1.04002e+07
1.03961e+07
1.03919e+07
1.03878e+07
1.03836e+07
1.03793e+07
1.03751e+07
1.03708e+07
1.03664e+07
1.03621e+07
1.03577e+07
1.03532e+07
1.03488e+07
1.03443e+07
1.03397e+07
1.03352e+07
1.03306e+07
1.03259e+07
1.03212e+07
1.03165e+07
1.03118e+07
1.0307e+07
1.03022e+07
1.02973e+07
1.02924e+07
1.02875e+07
1.02825e+07
1.02775e+07
1.02725e+07
1.02674e+07
1.02623e+07
1.02572e+07
1.36592e+07
1.36578e+07
1.3655e+07
1.36509e+07
1.36455e+07
1.36387e+07
1.36306e+07
1.3621e+07
1.36101e+07
1.35977e+07
1.3584e+07
1.35688e+07
1.35522e+07
1.35343e+07
1.35149e+07
1.34941e+07
1.3472e+07
1.34485e+07
1.34236e+07
1.33973e+07
1.33697e+07
1.33407e+07
1.33104e+07
1.32788e+07
1.32459e+07
1.32116e+07
1.31761e+07
1.31392e+07
1.31011e+07
1.30616e+07
1.30209e+07
1.2979e+07
1.29357e+07
1.28912e+07
1.28454e+07
1.27983e+07
1.275e+07
1.27004e+07
1.26495e+07
1.25973e+07
1.25438e+07
1.2489e+07
1.2433e+07
1.23756e+07
1.23169e+07
1.22569e+07
1.21955e+07
1.21328e+07
1.20687e+07
1.20032e+07
1.19363e+07
1.1868e+07
1.17983e+07
1.17272e+07
1.16545e+07
1.15805e+07
1.15049e+07
1.14279e+07
1.13494e+07
1.12693e+07
1.11878e+07
1.11047e+07
1.10201e+07
1.09336e+07
1.08451e+07
1.07542e+07
1.06607e+07
1.06557e+07
1.0653e+07
1.06503e+07
1.06477e+07
1.0645e+07
1.06423e+07
1.06396e+07
1.06369e+07
1.06343e+07
1.06316e+07
1.06289e+07
1.06262e+07
1.06235e+07
1.06208e+07
1.06181e+07
1.06154e+07
1.06127e+07
1.061e+07
1.06073e+07
1.06046e+07
1.06018e+07
1.05991e+07
1.05963e+07
1.05936e+07
1.05908e+07
1.0588e+07
1.05852e+07
1.05824e+07
1.05796e+07
1.05767e+07
1.05739e+07
1.0571e+07
1.05681e+07
1.05652e+07
1.05623e+07
1.05594e+07
1.05564e+07
1.05535e+07
1.05505e+07
1.05475e+07
1.05445e+07
1.05414e+07
1.05384e+07
1.05353e+07
1.05322e+07
1.05291e+07
1.05259e+07
1.05227e+07
1.05196e+07
1.05163e+07
1.05131e+07
1.05099e+07
1.05066e+07
1.05033e+07
1.05e+07
1.04966e+07
1.04932e+07
1.04898e+07
1.04864e+07
1.0483e+07
1.04795e+07
1.0476e+07
1.04725e+07
1.04689e+07
1.04653e+07
1.04617e+07
1.04581e+07
1.04544e+07
1.04508e+07
1.0447e+07
1.04433e+07
1.04395e+07
1.04357e+07
1.04319e+07
1.0428e+07
1.04241e+07
1.04202e+07
1.04163e+07
1.04123e+07
1.04083e+07
1.04042e+07
1.04002e+07
1.03961e+07
1.03919e+07
1.03878e+07
1.03836e+07
1.03793e+07
1.03751e+07
1.03708e+07
1.03664e+07
1.03621e+07
1.03577e+07
1.03532e+07
1.03488e+07
1.03443e+07
1.03397e+07
1.03352e+07
1.03305e+07
1.03259e+07
1.03212e+07
1.03165e+07
1.03118e+07
1.0307e+07
1.03022e+07
1.02973e+07
1.02924e+07
1.02875e+07
1.02825e+07
1.02775e+07
1.02725e+07
1.02674e+07
1.02623e+07
1.02571e+07
1.37058e+07
1.37042e+07
1.37013e+07
1.3697e+07
1.36912e+07
1.3684e+07
1.36754e+07
1.36653e+07
1.36538e+07
1.36408e+07
1.36264e+07
1.36105e+07
1.35931e+07
1.35743e+07
1.35541e+07
1.35325e+07
1.35095e+07
1.34851e+07
1.34593e+07
1.34322e+07
1.34037e+07
1.33738e+07
1.33426e+07
1.33102e+07
1.32764e+07
1.32413e+07
1.32049e+07
1.31673e+07
1.31284e+07
1.30882e+07
1.30468e+07
1.30042e+07
1.29603e+07
1.29151e+07
1.28688e+07
1.28211e+07
1.27723e+07
1.27222e+07
1.26709e+07
1.26183e+07
1.25645e+07
1.25094e+07
1.24531e+07
1.23955e+07
1.23367e+07
1.22765e+07
1.22151e+07
1.21524e+07
1.20884e+07
1.20231e+07
1.19565e+07
1.18885e+07
1.18192e+07
1.17486e+07
1.16766e+07
1.16032e+07
1.15285e+07
1.14525e+07
1.13751e+07
1.12963e+07
1.12162e+07
1.11347e+07
1.10518e+07
1.09673e+07
1.08808e+07
1.07905e+07
1.06901e+07
1.06552e+07
1.06525e+07
1.06498e+07
1.06472e+07
1.06445e+07
1.06419e+07
1.06392e+07
1.06366e+07
1.06339e+07
1.06313e+07
1.06286e+07
1.06259e+07
1.06233e+07
1.06206e+07
1.06179e+07
1.06152e+07
1.06125e+07
1.06098e+07
1.06071e+07
1.06044e+07
1.06017e+07
1.05989e+07
1.05962e+07
1.05934e+07
1.05907e+07
1.05879e+07
1.05851e+07
1.05823e+07
1.05795e+07
1.05766e+07
1.05738e+07
1.05709e+07
1.05681e+07
1.05652e+07
1.05623e+07
1.05593e+07
1.05564e+07
1.05534e+07
1.05504e+07
1.05474e+07
1.05444e+07
1.05414e+07
1.05383e+07
1.05352e+07
1.05321e+07
1.0529e+07
1.05259e+07
1.05227e+07
1.05195e+07
1.05163e+07
1.05131e+07
1.05098e+07
1.05066e+07
1.05033e+07
1.04999e+07
1.04966e+07
1.04932e+07
1.04898e+07