/*--------------------------------*- C++ -*----------------------------------*\
  =========                 |
  \\      /  F ield         | OpenFOAM: The Open Source CFD Toolbox
   \\    /   O peration     | Website:  https://openfoam.org
    \\  /    A nd           | Version:  11
     \\/     M anipulation  |
\*---------------------------------------------------------------------------*/
FoamFile
{
    format      ascii;
    class       volScalarField;
    location    "77";
    object      p;
}
// * * * * * * * * * * * * * * * * * * * * * * * * * * * * * * * * * * * * * //

dimensions      [0 2 -2 0 0 0 0];

internalField   nonuniform List<scalar> 
2048
(
0.365819
0.363261
0.358109
0.350144
0.339225
0.325232
0.308025
0.287463
0.26345
0.235988
0.205234
0.171545
0.135525
0.0980554
0.0602896
0.023613
-0.0104516
-0.0403785
-0.0648019
-0.0826626
-0.0932915
-0.0964671
-0.092427
-0.0817306
-0.0652185
-0.0439843
-0.0192894
0.00754513
0.0352322
0.0625859
0.0885445
0.11214
0.132496
0.148782
0.160266
0.166403
0.166939
0.162033
0.15235
0.139106
0.123983
0.108914
0.0957676
0.0860207
0.080536
0.0794207
0.0821585
0.0877481
0.0949644
0.102608
0.10962
0.1152
0.118743
0.119936
0.118536
0.114608
0.108069
0.0992951
0.0881699
0.0753892
0.0606364
0.0449364
0.0277885
0.0102148
0.368462
0.365924
0.360808
0.352888
0.342011
0.328035
0.310794
0.290116
0.265872
0.238032
0.206722
0.172281
0.135312
0.096724
0.057731
0.0198091
-0.0154128
-0.0463116
-0.0714554
-0.0897582
-0.100549
-0.103599
-0.0991443
-0.0877544
-0.0702968
-0.0479132
-0.0219346
0.00623749
0.0352349
0.0637921
0.0907829
0.115212
0.136159
0.152756
0.164245
0.170079
0.170019
0.16425
0.15349
0.13903
0.122658
0.10643
0.0923324
0.0819226
0.0761008
0.0749702
0.0779625
0.0839907
0.0917459
0.0999619
0.107537
0.113643
0.11767
0.119302
0.118301
0.114735
0.108519
0.100025
0.0891206
0.076508
0.0618124
0.0459968
0.028652
0.0105385
0.373736
0.371241
0.366205
0.35839
0.347615
0.333697
0.316415
0.29553
0.270843
0.242252
0.209822
0.173851
0.134936
0.0940348
0.0524854
0.0119567
-0.0256841
-0.0585956
-0.085212
-0.104405
-0.115512
-0.118305
-0.113005
-0.100191
-0.0807795
-0.0560124
-0.0273729
0.00355758
0.0352434
0.0662731
0.0953934
0.121523
0.143665
0.160873
0.172339
0.17751
0.176174
0.168569
0.155517
0.138478
0.119466
0.100799
0.0847064
0.0729281
0.0664456
0.0653532
0.0689575
0.0759792
0.0849231
0.094377
0.103146
0.110355
0.115382
0.117911
0.11772
0.114879
0.10931
0.101376
0.0909303
0.0786642
0.0641525
0.0483881
0.0304307
0.0112605
0.381588
0.379169
0.374277
0.366657
0.356087
0.342318
0.325045
0.303922
0.278629
0.248938
0.214803
0.176451
0.134471
0.0899022
0.0442662
-0.000451436
-0.0419646
-0.0780596
-0.106973
-0.127543
-0.139132
-0.14152
-0.134893
-0.119835
-0.0973329
-0.0687866
-0.0359224
-0.000619272
0.0352854
0.0701488
0.102567
0.131323
0.155294
0.173409
0.184767
0.188804
0.185354
0.174729
0.157901
0.136595
0.113205
0.0905064
0.0711624
0.0572439
0.0498442
0.0490301
0.0538534
0.0626836
0.0737045
0.0852592
0.0960043
0.104997
0.111606
0.11553
0.116579
0.114833
0.110235
0.10314
0.0933909
0.0816452
0.0673356
0.0514309
0.0328887
0.0124949
0.391932
0.389638
0.384983
0.377695
0.367492
0.354041
0.336918
0.31563
0.289672
0.258597
0.222161
0.180443
0.134023
0.0840883
0.0324579
-0.018373
-0.0654456
-0.106018
-0.138127
-0.160628
-0.172925
-0.174776
-0.166302
-0.148043
-0.121088
-0.0870935
-0.0481598
-0.00659452
0.0353296
0.0755953
0.112557
0.144864
0.171296
0.190576
0.201619
0.203829
0.197109
0.181895
0.15938
0.131681
0.101759
0.0730611
0.0489265
0.0319785
0.0234441
0.0234247
0.030506
0.042435
0.0568498
0.0717056
0.0854511
0.0970695
0.105943
0.111815
0.114559
0.114283
0.110981
0.105004
0.0961998
0.0851261
0.0710492
0.0549678
0.0354746
0.0140377
0.404628
0.402528
0.398246
0.391487
0.381898
0.369039
0.35233
0.331092
0.304568
0.271988
0.232751
0.18657
0.133925
0.0762457
0.0158969
-0.043616
-0.0982232
-0.144597
-0.180773
-0.205777
-0.219069
-0.220324
-0.209482
-0.186927
-0.153837
-0.112272
-0.0649704
-0.014904
0.0351152
0.0826323
0.125653
0.162571
0.192121
0.212662
0.222967
0.222439
0.211022
0.189239
0.158565
0.121663
0.0823241
0.0450249
0.0141639
-0.00676792
-0.0167323
-0.0149755
-0.00400177
0.0129405
0.0326584
0.0525054
0.0706299
0.0859444
0.0978993
0.106339
0.111253
0.112819
0.111139
0.10655
0.098894
0.0885295
0.0746606
0.0583434
0.0378479
0.0155863
0.419462
0.417649
0.413921
0.407969
0.399352
0.387509
0.371644
0.350849
0.324031
0.290029
0.247745
0.196133
0.135238
0.066455
-0.00684962
-0.0788623
-0.143525
-0.197089
-0.238141
-0.266221
-0.280857
-0.281534
-0.267767
-0.239645
-0.1984
-0.146577
-0.08784
-0.0263479
0.0341225
0.0906993
0.141335
0.184163
0.218258
0.24033
0.249386
0.245487
0.228641
0.199173
0.15864
0.11013
0.0582483
0.00874306
-0.0323151
-0.0591008
-0.0729136
-0.0692344
-0.0526693
-0.0282896
-0.000727193
0.0263523
0.0506298
0.07096
0.0869468
0.0986297
0.106199
0.109978
0.110213
0.107192
0.100744
0.0910453
0.0774455
0.0610386
0.0399601
0.0169636
0.436123
0.434714
0.431766
0.426985
0.41983
0.409645
0.395312
0.37566
0.348981
0.313729
0.268174
0.210344
0.139542
0.0554953
-0.0368831
-0.12681
-0.204887
-0.267448
-0.31443
-0.346375
-0.363037
-0.363539
-0.346322
-0.310984
-0.258884
-0.193403
-0.119481
-0.0427251
0.0315936
0.0994548
0.15865
0.207376
0.247204
0.271865
0.279247
0.271377
0.248923
0.212116
0.162593
0.103416
0.0391284
-0.0241744
-0.0793962
-0.120423
-0.138021
-0.135323
-0.114463
-0.0817709
-0.0443202
-0.00770196
0.0247304
0.0515823
0.0726453
0.0882667
0.098954
0.105257
0.107589
0.106195
0.100955
0.091978
0.0788993
0.0627165
0.0416209
0.0180044
0.454186
0.453312
0.451396
0.448219
0.443133
0.435517
0.423794
0.406648
0.38102
0.344954
0.294962
0.228961
0.146023
0.040954
-0.0783342
-0.192069
-0.286923
-0.360478
-0.414667
-0.451426
-0.47118
-0.473173
-0.452962
-0.408818
-0.342061
-0.257735
-0.163529
-0.0674297
0.0239007
0.105971
0.176565
0.234489
0.269874
0.296016
0.300028
0.285228
0.255304
0.212644
0.158439
0.0940008
0.0224738
-0.0504591
-0.117018
-0.168662
-0.197519
-0.20109
-0.180453
-0.142164
-0.0954554
-0.0485652
-0.00673166
0.0278249
0.0548527
0.0749992
0.0891615
0.098186
0.10268
0.102907
0.0988743
0.0907195
0.0784503
0.0628555
0.0423745
0.0185405
0.473104
0.47289
0.472254
0.471121
0.468761
0.464807
0.457172
0.444934
0.422703
0.388417
0.332098
0.252987
0.14694
0.00595475
-0.149545
-0.28824
-0.398064
-0.481002
-0.541156
-0.582438
-0.605599
-0.612268
-0.593179
-0.541521
-0.457206
-0.347818
-0.225763
-0.10411
0.00732818
0.103555
0.183268
0.245898
0.287969
0.296429
0.283835
0.260454
0.228054
0.186036
0.13349
0.0701388
-0.00232842
-0.0790569
-0.152004
-0.211682
-0.249385
-0.259838
-0.242188
-0.201759
-0.148457
-0.0926125
-0.041662
0.000805218
0.0340996
0.059001
0.0767565
0.0885147
0.0950861
0.0968138
0.093903
0.086631
0.0754175
0.0608211
0.0416501
0.0183232
0.492216
0.492754
0.493605
0.494876
0.495836
0.496538
0.494626
0.490262
0.475898
0.451121
0.39287
0.299866
0.138808
-0.0724987
-0.269388
-0.419811
-0.530662
-0.612643
-0.671441
-0.712513
-0.737881
-0.754276
-0.748358
-0.699847
-0.602672
-0.467872
-0.314991
-0.163886
-0.0290037
0.0818394
0.163562
0.213649
0.235335
0.237
0.218435
0.195988
0.167863
0.132065
0.0868155
0.0306501
-0.036407
-0.110951
-0.185303
-0.249192
-0.292636
-0.3085
-0.294463
-0.254269
-0.197367
-0.135117
-0.0767418
-0.0273266
0.0117049
0.041033
0.0621088
0.0763137
0.0846452
0.0875858
0.0855835
0.0791496
0.0691136
0.0559032
0.0387692
0.0170439
0.510774
0.512099
0.514566
0.518416
0.523116
0.529024
0.534194
0.539717
0.538498
0.533335
0.493621
0.420005
0.186991
-0.146889
-0.381068
-0.521865
-0.616554
-0.686584
-0.739349
-0.773346
-0.789523
-0.827365
-0.851034
-0.826399
-0.737276
-0.594014
-0.421958
-0.249117
-0.0987254
0.0131291
0.0809512
0.113096
0.121714
0.115431
0.1114
0.101147
0.084898
0.0608427
0.0272428
-0.0175269
-0.0744934
-0.141851
-0.212982
-0.277286
-0.323549
-0.343233
-0.332756
-0.29436
-0.236652
-0.171123
-0.108029
-0.0536805
-0.0103171
0.02244
0.0460629
0.0620608
0.0715711
0.0752232
0.0737099
0.0678553
0.0589176
0.0474256
0.0331729
0.0144266
0.527978
0.530069
0.534145
0.540537
0.549051
0.560177
0.572949
0.588574
0.603143
0.620512
0.623281
0.629116
0.479202
-0.0553213
-0.349873
-0.508597
-0.604173
-0.667401
-0.718422
-0.775893
-0.784717
-0.82574
-0.875225
-0.877671
-0.813411
-0.685902
-0.520188
-0.350851
-0.209367
-0.113327
-0.0634604
-0.0408878
-0.0313372
-0.0269934
-0.0173633
-0.00929331
-0.00752585
-0.0154641
-0.0345989
-0.0658089
-0.110168
-0.167071
-0.231298
-0.292617
-0.339045
-0.360912
-0.353492
-0.317944
-0.261852
-0.196246
-0.131652
-0.0751089
-0.0295443
0.00502209
0.029936
0.0467152
0.0565391
0.0601285
0.058407
0.0526007
0.0444586
0.0348837
0.0242583
0.010235
0.543045
0.545822
0.55133
0.560013
0.571942
0.58785
0.607463
0.632391
0.660898
0.696617
0.730419
0.768402
0.710292
0.228953
-0.0883968
-0.296501
-0.440648
-0.54205
-0.619482
-0.699096
-0.738523
-0.784775
-0.840591
-0.85823
-0.818574
-0.719889
-0.584323
-0.445968
-0.336938
-0.269263
-0.237096
-0.221595
-0.203818
-0.188045
-0.159021
-0.126882
-0.101286
-0.0884086
-0.0900838
-0.10604
-0.136419
-0.181011
-0.235874
-0.291664
-0.336154
-0.358813
-0.354102
-0.322324
-0.269964
-0.207266
-0.14445
-0.0887517
-0.0435295
-0.00918214
0.0154173
0.0316677
0.0406665
0.0431482
0.0402587
0.0337147
0.0258557
0.0182267
0.0118202
0.00439432
0.555286
0.558603
0.565214
0.575695
0.59026
0.609955
0.634733
0.666932
0.704676
0.753102
0.800538
0.858214
0.825126
0.345429
0.0179444
-0.202075
-0.356434
-0.46432
-0.544476
-0.617013
-0.659163
-0.69688
-0.743681
-0.766336
-0.746804
-0.683257
-0.594261
-0.507977
-0.447805
-0.41909
-0.411118
-0.406798
-0.394692
-0.354706
-0.300881
-0.24103
-0.18792
-0.150969
-0.133028
-0.132753
-0.14869
-0.180175
-0.224185
-0.27256
-0.313434
-0.335854
-0.333667
-0.30646
-0.259638
-0.202455
-0.144404
-0.0924744
-0.0501746
-0.018189
0.00434534
0.0185911
0.0254447
0.0255884
0.020397
0.0121555
0.00391523
-0.00188941
-0.0035145
-0.00289145
0.564173
0.567814
0.5751
0.586663
0.602842
0.62476
0.652665
0.68888
0.731988
0.786351
0.841379
0.905787
0.885851
0.427748
0.10559
-0.118347
-0.277681
-0.387538
-0.464356
-0.521502
-0.554797
-0.577497
-0.605363
-0.622716
-0.616932
-0.589793
-0.555831
-0.532383
-0.529412
-0.542914
-0.559607
-0.564303
-0.546179
-0.495908
-0.42106
-0.335403
-0.25615
-0.195883
-0.158755
-0.14283
-0.145038
-0.163701
-0.196298
-0.236026
-0.271995
-0.293325
-0.293459
-0.27134
-0.231432
-0.18179
-0.130896
-0.0851807
-0.048056
-0.0203774
-0.00155806
0.00923419
0.0126087
0.00915945
0.000502201
-0.0104467
-0.0198289
-0.0241546
-0.0208764
-0.0111841
0.569378
0.573099
0.580553
0.592386
0.608986
0.631369
0.659944
0.697011
0.741231
0.79691
0.85363
0.91979
0.903296
0.452453
0.137574
-0.0789958
-0.230253
-0.330878
-0.395907
-0.43553
-0.452693
-0.457125
-0.46545
-0.472282
-0.476868
-0.483911
-0.50213
-0.536335
-0.58238
-0.629614
-0.66426
-0.674872
-0.652732
-0.593325
-0.502379
-0.396669
-0.296934
-0.218091
-0.165167
-0.135957
-0.126269
-0.133365
-0.154888
-0.185355
-0.215382
-0.234847
-0.237068
-0.220074
-0.187806
-0.146948
-0.104772
-0.0669579
-0.0366376
-0.014737
-0.000942668
0.00518713
0.00393651
-0.00419445
-0.0173152
-0.0318533
-0.0431359
-0.0465374
-0.0386709
-0.0197436
0.570818
0.574367
0.581457
0.592695
0.60832
0.629564
0.65635
0.691072
0.732144
0.784483
0.837162
0.900343
0.877471
0.419589
0.114158
-0.0836576
-0.213875
-0.295124
-0.341769
-0.364406
-0.365947
-0.357605
-0.34994
-0.349297
-0.363407
-0.39773
-0.454503
-0.528958
-0.605787
-0.671944
-0.715665
-0.728369
-0.704258
-0.638887
-0.537836
-0.41945
-0.3069
-0.216461
-0.153206
-0.114513
-0.0955833
-0.0929992
-0.104488
-0.125801
-0.149239
-0.165866
-0.169144
-0.157352
-0.132817
-0.101069
-0.0682023
-0.0390477
-0.0163474
-0.00102902
0.00695218
0.00763798
0.00100295
-0.0125132
-0.0307275
-0.0494666
-0.0633213
-0.0665293
-0.0548954
-0.0276245
0.568653
0.571812
0.578104
0.588027
0.601736
0.620056
0.642866
0.671869
0.705716
0.748035
0.790471
0.838751
0.798782
0.351937
0.0689781
-0.104284
-0.210282
-0.269358
-0.299409
-0.307828
-0.298111
-0.283413
-0.265265
-0.261827
-0.284044
-0.335647
-0.413993
-0.507093
-0.597367
-0.669985
-0.716695
-0.729235
-0.703723
-0.63524
-0.529352
-0.405552
-0.288287
-0.193829
-0.126394
-0.0826853
-0.057614
-0.0475364
-0.0503952
-0.0631471
-0.0798505
-0.0930078
-0.0966241
-0.089054
-0.0714748
-0.048248
-0.0243047
-0.00361528
0.0115137
0.0201816
0.0221808
0.0171937
0.00495038
-0.0141244
-0.0375867
-0.0607658
-0.0776607
-0.0815102
-0.0674703
-0.0338966
0.563286
0.565886
0.571014
0.579059
0.589942
0.604244
0.621233
0.642247
0.663917
0.690258
0.705532
0.726608
0.605564
0.118678
-0.129494
-0.23847
-0.278287
-0.283783
-0.275334
-0.255713
-0.243053
-0.223803
-0.205742
-0.204023
-0.230171
-0.288494
-0.373363
-0.470055
-0.560683
-0.631727
-0.675636
-0.688857
-0.66227
-0.59178
-0.484527
-0.361737
-0.247513
-0.15611
-0.0900308
-0.0453897
-0.0171692
-0.00185359
0.00230513
-0.00280324
-0.0129944
-0.02233
-0.0256546
-0.0209167
-0.00891293
0.00712752
0.0233484
0.036593
0.0449703
0.0476049
0.0440699
0.0337642
0.0162663
-0.00797883
-0.0363328
-0.0637653
-0.0839174
-0.0893269
-0.0746672
-0.0377078
0.555263
0.557203
0.560936
0.566773
0.574319
0.584008
0.594217
0.606098
0.61343
0.618893
0.594952
0.542024
0.346152
0.058797
-0.126084
-0.212795
-0.249268
-0.259633
-0.253244
-0.234136
-0.208692
-0.179555
-0.160306
-0.162052
-0.191946
-0.250787
-0.33227
-0.423037
-0.507525
-0.573919
-0.615966
-0.625839
-0.594556
-0.519943
-0.413431
-0.29759
-0.193302
-0.110638
-0.0499596
-0.00729071
0.0217957
0.0403514
0.0497873
0.0511096
0.0468994
0.0415491
0.0393422
0.0424314
0.0504488
0.0610519
0.0712866
0.0786803
0.0816829
0.0794278
0.0713161
0.0565545
0.0346638
0.00612857
-0.0263096
-0.0574501
-0.0808521
-0.0887285
-0.0754568
-0.038537
0.545256
0.546491
0.548769
0.552278
0.55643
0.56135
0.565039
0.567688
0.562743
0.549611
0.508072
0.43607
0.306036
0.132406
-0.0228321
-0.127615
-0.189019
-0.218862
-0.22484
-0.211956
-0.182935
-0.148238
-0.130597
-0.139382
-0.174185
-0.232005
-0.307103
-0.38885
-0.464079
-0.52154
-0.55221
-0.549283
-0.506279
-0.426561
-0.325697
-0.223657
-0.134835
-0.064401
-0.0112358
0.0279313
0.056457
0.0767765
0.0899369
0.0963272
0.0972733
0.0957775
0.0952571
0.0977797
0.103367
0.110381
0.11657
0.119972
0.11927
0.113578
0.102174
0.0841595
0.0590721
0.0274412
-0.00798804
-0.0420665
-0.0685238
-0.0796536
-0.0697713
-0.036324
0.533981
0.534521
0.53542
0.536695
0.537741
0.538279
0.536525
0.531643
0.51899
0.496451
0.45557
0.395002
0.312347
0.199898
0.0769368
-0.0258263
-0.0970483
-0.139726
-0.159615
-0.161951
-0.152154
-0.139576
-0.134923
-0.146054
-0.177761
-0.229505
-0.294978
-0.363517
-0.421795
-0.45861
-0.468514
-0.447417
-0.395277
-0.319656
-0.234114
-0.151828
-0.0806712
-0.0228215
0.0228044
0.058169
0.0853411
0.106221
0.121798
0.1321
0.137407
0.13943
0.140823
0.143568
0.14806
0.153162
0.157119
0.158319
0.155575
0.147957
0.134652
0.114722
0.0877629
0.0543357
0.0170949
-0.0190821
-0.0482766
-0.0632375
-0.0584879
-0.0314519
0.522128
0.522041
0.521721
0.521042
0.519464
0.516455
0.510661
0.500882
0.484491
0.459573
0.423243
0.373329
0.309339
0.226698
0.132831
0.0467108
-0.0193359
-0.064397
-0.0925726
-0.108336
-0.116117
-0.120857
-0.128515
-0.145423
-0.175503
-0.217656
-0.266235
-0.314248
-0.348058
-0.365215
-0.359491
-0.331158
-0.283373
-0.22227
-0.156212
-0.0927098
-0.0362553
0.0115683
0.0509895
0.0829137
0.108416
0.12883
0.145355
0.158303
0.167365
0.172871
0.176404
0.179822
0.184122
0.188567
0.191776
0.192295
0.188957
0.180761
0.166834
0.146238
0.118638
0.0845946
0.0466027
0.00909289
-0.0224696
-0.0415822
-0.0432346
-0.0246706
0.510324
0.509713
0.508382
0.506127
0.50249
0.496897
0.488376
0.475865
0.457883
0.432957
0.399588
0.35588
0.301188
0.235352
0.162817
0.0935083
0.0357409
-0.00831581
-0.0406375
-0.064126
-0.0815114
-0.0956015
-0.110029
-0.128689
-0.153683
-0.183805
-0.215574
-0.243707
-0.265849
-0.271748
-0.260971
-0.23529
-0.196848
-0.149273
-0.097757
-0.0472525
-0.00102668
0.0394111
0.0737921
0.102541
0.126296
0.14583
0.162135
0.175996
0.187499
0.196351
0.202733
0.207467
0.212398
0.216845
0.220141
0.221004
0.218165
0.21047
0.196966
0.17671
0.149435
0.115672
0.0777426
0.0395116
0.00593345
-0.0173493
-0.0259786
-0.0168667
0.499101
0.498082
0.495962
0.492514
0.487362
0.480006
0.469747
0.455759
0.437067
0.412573
0.381246
0.342041
0.294865
0.240875
0.182913
0.125981
0.0751233
0.0327867
-0.00127926
-0.0285323
-0.0506451
-0.0694299
-0.0870546
-0.10565
-0.126352
-0.148646
-0.170639
-0.189116
-0.200529
-0.200812
-0.189294
-0.166601
-0.134359
-0.0954671
-0.0536008
-0.0121311
0.0265992
0.0613302
0.0916148
0.117555
0.139554
0.158139
0.173983
0.1878
0.200023
0.210782
0.220054
0.227884
0.233851
0.238971
0.242789
0.244378
0.242531
0.235956
0.223565
0.204369
0.178123
0.14528
0.107978
0.0694727
0.0342089
0.00696254
-0.00859672
-0.00893589
0.488883
0.487563
0.48486
0.480553
0.47434
0.46582
0.454475
0.439679
0.420734
0.396886
0.367503
0.332194
0.291196
0.24557
0.197132
0.148631
0.103199
0.0630372
0.0287672
-0.000130221
-0.0246501
-0.0459562
-0.0652951
-0.0837989
-0.102086
-0.119837
-0.135622
-0.14731
-0.152657
-0.149735
-0.137596
-0.116768
-0.0888856
-0.0561498
-0.0210098
0.0141904
0.0476162
0.078129
0.10521
0.128802
0.149172
0.166726
0.181946
0.195416
0.207689
0.219075
0.229821
0.239187
0.247509
0.254554
0.259828
0.262621
0.261991
0.256728
0.245706
0.227888
0.203003
0.171373
0.134942
0.0963707
0.059694
0.0289134
0.00716373
-0.0017807
0.479994
0.478461
0.475347
0.470445
0.463513
0.45424
0.442237
0.42704
0.408157
0.385111
0.357564
0.325424
0.288978
0.249
0.206744
0.163979
0.122787
0.0849207
0.0512496
0.0217836
-0.00395996
-0.0266362
-0.0469057
-0.0653067
-0.0820541
-0.0967834
-0.108452
-0.116038
-0.117892
-0.112866
-0.100449
-0.0812147
-0.0564328
-0.0277368
0.00299806
0.0339127
0.0635106
0.0908239
0.115371
0.137036
0.155967
0.17249
0.187034
0.200076
0.212112
0.223477
0.234226
0.244887
0.254646
0.263329
0.270388
0.274922
0.275888
0.272101
0.262485
0.24603
0.222464
0.192006
0.156445
0.117992
0.0804194
0.0469702
0.0204512
0.00416478
0.472664
0.470987
0.467595
0.462295
0.454893
0.44515
0.432777
0.417434
0.398782
0.376528
0.350496
0.320702
0.287413
0.251228
0.213098
0.174303
0.136317
0.100479
0.0676539
0.038142
0.0118473
-0.0114976
-0.0321714
-0.0503587
-0.0660442
-0.0789089
-0.0883042
-0.0932656
-0.0929794
-0.0867152
-0.0742712
-0.0561431
-0.0333768
-0.00736991
0.0203192
0.0481996
0.0750556
0.100048
0.122706
0.142872
0.160635
0.176274
0.19018
0.202788
0.214541
0.225835
0.236842
0.247741
0.258167
0.267773
0.275939
0.28175
0.284111
0.281752
0.273533
0.258425
0.236165
0.206926
0.17241
0.134499
0.0967393
0.0615875
0.0316465
0.00907073
0.467051
0.465282
0.46171
0.456158
0.448463
0.438445
0.425882
0.410528
0.392141
0.370533
0.345615
0.317446
0.286284
0.252633
0.21726
0.181156
0.145435
0.111151
0.0791113
0.0497726
0.0232961
-0.000322792
-0.0211273
-0.0391106
-0.0541509
-0.0659297
-0.0739384
-0.0773451
-0.0758027
-0.068846
-0.0564256
-0.0390351
-0.017627
0.00657167
0.0322381
0.0581079
0.0831162
0.106494
0.12779
0.146841
0.163717
0.178663
0.192041
0.204271
0.21578
0.226957
0.238029
0.249081
0.259908
0.270092
0.278965
0.285588
0.288859
0.287505
0.280382
0.266456
0.245448
0.217474
0.18412
0.14699
0.109342
0.0730317
0.0404251
0.0127411
0.46326
0.461435
0.457758
0.452058
0.444198
0.434031
0.421384
0.406063
0.387886
0.366722
0.342527
0.315387
0.285555
0.25348
0.219814
0.185375
0.151078
0.117821
0.0863597
0.057227
0.0307288
0.0070151
-0.0138227
-0.0316701
-0.0463281
-0.0574582
-0.0646102
-0.0672298
-0.065007
-0.0576748
-0.045298
-0.0283848
-0.00781886
0.0152858
0.0397294
0.0643614
0.0882064
0.110551
0.130967
0.149289
0.165575
0.18005
0.193059
0.205019
0.216353
0.227429
0.238501
0.249658
0.260731
0.271293
0.28065
0.287839
0.291732
0.291054
0.284668
0.271555
0.251426
0.224352
0.191798
0.155193
0.117511
0.0803423
0.0457814
0.0148515
0.461354
0.459503
0.455776
0.450009
0.442074
0.431844
0.419165
0.403872
0.385808
0.364867
0.341029
0.314391
0.285203
0.253885
0.221033
0.187386
0.153773
0.121022
0.0898636
0.0608588
0.0343755
0.0106352
-0.0102057
-0.0279781
-0.0424446
-0.0532701
-0.0600484
-0.0623216
-0.0597958
-0.0522994
-0.0399568
-0.023277
-0.00310857
0.0194805
0.0433412
0.0673774
0.090661
0.112506
0.132493
0.150456
0.166445
0.180678
0.1935
0.205321
0.216561
0.227584
0.238653
0.249861
0.261049
0.271792
0.281392
0.288873
0.293093
0.292765
0.286746
0.274023
0.254293
0.227615
0.195385
0.15898
0.121194
0.0835791
0.0480382
0.0157387
)
;

boundaryField
{
    inlet
    {
        type            zeroGradient;
    }
    outlet
    {
        type            fixedValue;
        value           uniform 0;
    }
    top
    {
        type            symmetryPlane;
    }
    bottom
    {
        type            symmetryPlane;
    }
    frontAndBack
    {
        type            empty;
    }
}


// ************************************************************************* //
