/*--------------------------------*- C++ -*----------------------------------*\
  =========                 |
  \\      /  F ield         | OpenFOAM: The Open Source CFD Toolbox
   \\    /   O peration     | Website:  https://openfoam.org
    \\  /    A nd           | Version:  10
     \\/     M anipulation  |
\*---------------------------------------------------------------------------*/
FoamFile
{
    format      ascii;
    class       volScalarField;
    location    "3.7";
    object      p;
}
// * * * * * * * * * * * * * * * * * * * * * * * * * * * * * * * * * * * * * //

dimensions      [1 -1 -2 0 0 0 0];

internalField   nonuniform List<scalar> 
12225
(
2.40112e+07
2.40024e+07
2.39863e+07
2.39648e+07
2.39391e+07
2.39106e+07
2.388e+07
2.38479e+07
2.38147e+07
2.37807e+07
2.37461e+07
2.37109e+07
2.3675e+07
2.36383e+07
2.36005e+07
2.3561e+07
2.35183e+07
2.34691e+07
2.40116e+07
2.40027e+07
2.39866e+07
2.3965e+07
2.39393e+07
2.39107e+07
2.38801e+07
2.3848e+07
2.38148e+07
2.37808e+07
2.37462e+07
2.3711e+07
2.36752e+07
2.36386e+07
2.36009e+07
2.35616e+07
2.35196e+07
2.34727e+07
2.40122e+07
2.40033e+07
2.39871e+07
2.39654e+07
2.39397e+07
2.3911e+07
2.38804e+07
2.38482e+07
2.38151e+07
2.37811e+07
2.37465e+07
2.37114e+07
2.36756e+07
2.36392e+07
2.36017e+07
2.35629e+07
2.3522e+07
2.34782e+07
2.40134e+07
2.40043e+07
2.3988e+07
2.39662e+07
2.39403e+07
2.39116e+07
2.38808e+07
2.38486e+07
2.38155e+07
2.37815e+07
2.3747e+07
2.37119e+07
2.36763e+07
2.36401e+07
2.36031e+07
2.35649e+07
2.35254e+07
2.34847e+07
2.4015e+07
2.40058e+07
2.39893e+07
2.39672e+07
2.39412e+07
2.39123e+07
2.38815e+07
2.38492e+07
2.38161e+07
2.37821e+07
2.37477e+07
2.37127e+07
2.36773e+07
2.36414e+07
2.36049e+07
2.35676e+07
2.35296e+07
2.34915e+07
2.40173e+07
2.40079e+07
2.3991e+07
2.39687e+07
2.39424e+07
2.39133e+07
2.38823e+07
2.38501e+07
2.38168e+07
2.3783e+07
2.37486e+07
2.37138e+07
2.36787e+07
2.36431e+07
2.36072e+07
2.35709e+07
2.35345e+07
2.34986e+07
2.40203e+07
2.40106e+07
2.39933e+07
2.39705e+07
2.39439e+07
2.39146e+07
2.38835e+07
2.38511e+07
2.38179e+07
2.3784e+07
2.37498e+07
2.37152e+07
2.36804e+07
2.36453e+07
2.36101e+07
2.35748e+07
2.35398e+07
2.35058e+07
2.40242e+07
2.40141e+07
2.39962e+07
2.39729e+07
2.39458e+07
2.39162e+07
2.38848e+07
2.38524e+07
2.38191e+07
2.37853e+07
2.37512e+07
2.37169e+07
2.36824e+07
2.36479e+07
2.36134e+07
2.35791e+07
2.35455e+07
2.3513e+07
2.40291e+07
2.40184e+07
2.39998e+07
2.39758e+07
2.39481e+07
2.39181e+07
2.38865e+07
2.38539e+07
2.38206e+07
2.37869e+07
2.3753e+07
2.37189e+07
2.36848e+07
2.36508e+07
2.36171e+07
2.35839e+07
2.35514e+07
2.35203e+07
2.40353e+07
2.40238e+07
2.40042e+07
2.39793e+07
2.39509e+07
2.39204e+07
2.38885e+07
2.38557e+07
2.38223e+07
2.37887e+07
2.3755e+07
2.37212e+07
2.36876e+07
2.36542e+07
2.36212e+07
2.35889e+07
2.35576e+07
2.35275e+07
2.4043e+07
2.40305e+07
2.40095e+07
2.39834e+07
2.39541e+07
2.3923e+07
2.38907e+07
2.38577e+07
2.38243e+07
2.37908e+07
2.37573e+07
2.37238e+07
2.36907e+07
2.36579e+07
2.36257e+07
2.35942e+07
2.35638e+07
2.35347e+07
2.40518e+07
2.40379e+07
2.40153e+07
2.39877e+07
2.39575e+07
2.39257e+07
2.3893e+07
2.38598e+07
2.38264e+07
2.37929e+07
2.37596e+07
2.37265e+07
2.36938e+07
2.36615e+07
2.363e+07
2.35993e+07
2.35696e+07
2.35412e+07
2.40623e+07
2.40464e+07
2.40217e+07
2.39925e+07
2.3961e+07
2.39285e+07
2.38953e+07
2.38619e+07
2.38285e+07
2.37952e+07
2.3762e+07
2.37293e+07
2.3697e+07
2.36653e+07
2.36344e+07
2.36043e+07
2.35754e+07
2.35476e+07
2.40773e+07
2.40579e+07
2.40299e+07
2.39983e+07
2.39653e+07
2.39318e+07
2.38982e+07
2.38645e+07
2.3831e+07
2.37978e+07
2.3765e+07
2.37326e+07
2.37008e+07
2.36697e+07
2.36395e+07
2.36101e+07
2.35819e+07
2.35548e+07
2.40992e+07
2.40733e+07
2.40399e+07
2.4005e+07
2.39701e+07
2.39355e+07
2.39012e+07
2.38674e+07
2.38339e+07
2.38009e+07
2.37684e+07
2.37365e+07
2.37053e+07
2.36748e+07
2.36452e+07
2.36166e+07
2.35891e+07
2.35626e+07
2.41333e+07
2.40926e+07
2.40508e+07
2.40116e+07
2.39745e+07
2.39388e+07
2.39041e+07
2.38701e+07
2.38368e+07
2.38041e+07
2.3772e+07
2.37407e+07
2.37101e+07
2.36803e+07
2.36515e+07
2.36236e+07
2.35967e+07
2.35709e+07
2.41906e+07
2.41105e+07
2.40578e+07
2.4015e+07
2.39765e+07
2.39404e+07
2.39057e+07
2.38719e+07
2.3839e+07
2.38069e+07
2.37754e+07
2.37448e+07
2.3715e+07
2.3686e+07
2.36579e+07
2.36307e+07
2.36046e+07
2.35794e+07
2.4119e+07
2.40836e+07
2.40448e+07
2.40075e+07
2.39718e+07
2.39373e+07
2.39039e+07
2.38713e+07
2.38394e+07
2.38082e+07
2.37777e+07
2.3748e+07
2.37191e+07
2.3691e+07
2.36638e+07
2.36374e+07
2.3612e+07
2.35875e+07
2.4061e+07
2.40436e+07
2.4018e+07
2.39891e+07
2.39588e+07
2.39281e+07
2.38974e+07
2.38669e+07
2.38367e+07
2.38071e+07
2.3778e+07
2.37495e+07
2.37217e+07
2.36946e+07
2.36684e+07
2.36429e+07
2.36183e+07
2.35945e+07
2.4023e+07
2.40115e+07
2.39927e+07
2.39695e+07
2.39437e+07
2.39165e+07
2.38885e+07
2.38603e+07
2.3832e+07
2.38039e+07
2.37761e+07
2.37488e+07
2.3722e+07
2.36959e+07
2.36704e+07
2.36457e+07
2.36217e+07
2.35985e+07
2.39994e+07
2.39905e+07
2.3975e+07
2.3955e+07
2.3932e+07
2.39072e+07
2.38812e+07
2.38545e+07
2.38276e+07
2.38006e+07
2.37739e+07
2.37474e+07
2.37214e+07
2.36959e+07
2.36711e+07
2.36469e+07
2.36233e+07
2.36005e+07
2.3983e+07
2.39754e+07
2.39618e+07
2.39438e+07
2.39228e+07
2.38996e+07
2.3875e+07
2.38496e+07
2.38237e+07
2.37977e+07
2.37717e+07
2.37459e+07
2.37205e+07
2.36955e+07
2.36711e+07
2.36473e+07
2.36241e+07
2.36016e+07
2.39714e+07
2.39645e+07
2.39521e+07
2.39355e+07
2.39157e+07
2.38937e+07
2.38702e+07
2.38457e+07
2.38206e+07
2.37952e+07
2.37697e+07
2.37445e+07
2.37195e+07
2.36949e+07
2.36708e+07
2.36473e+07
2.36244e+07
2.36021e+07
2.39632e+07
2.39569e+07
2.39452e+07
2.39294e+07
2.39105e+07
2.38894e+07
2.38666e+07
2.38427e+07
2.38181e+07
2.37932e+07
2.37682e+07
2.37433e+07
2.37186e+07
2.36943e+07
2.36705e+07
2.36472e+07
2.36244e+07
2.36023e+07
2.39576e+07
2.39515e+07
2.39403e+07
2.39251e+07
2.39068e+07
2.38862e+07
2.38639e+07
2.38404e+07
2.38163e+07
2.37917e+07
2.3767e+07
2.37423e+07
2.37179e+07
2.36938e+07
2.36702e+07
2.3647e+07
2.36244e+07
2.36024e+07
2.39538e+07
2.39479e+07
2.3937e+07
2.39222e+07
2.39043e+07
2.3884e+07
2.3862e+07
2.38389e+07
2.3815e+07
2.37906e+07
2.37661e+07
2.37417e+07
2.37174e+07
2.36934e+07
2.36699e+07
2.36468e+07
2.36243e+07
2.36024e+07
2.39512e+07
2.39455e+07
2.39348e+07
2.39202e+07
2.39025e+07
2.38825e+07
2.38608e+07
2.38378e+07
2.38141e+07
2.37899e+07
2.37655e+07
2.37412e+07
2.3717e+07
2.36931e+07
2.36697e+07
2.36467e+07
2.36242e+07
2.36024e+07
2.39497e+07
2.3944e+07
2.39335e+07
2.3919e+07
2.39015e+07
2.38816e+07
2.386e+07
2.38372e+07
2.38135e+07
2.37894e+07
2.37651e+07
2.37409e+07
2.37167e+07
2.36929e+07
2.36695e+07
2.36466e+07
2.36242e+07
2.36023e+07
2.39489e+07
2.39432e+07
2.39327e+07
2.39184e+07
2.39009e+07
2.38811e+07
2.38596e+07
2.38368e+07
2.38132e+07
2.37892e+07
2.37649e+07
2.37407e+07
2.37166e+07
2.36928e+07
2.36694e+07
2.36465e+07
2.36241e+07
2.36023e+07
2.39485e+07
2.39429e+07
2.39324e+07
2.39181e+07
2.39007e+07
2.38809e+07
2.38594e+07
2.38366e+07
2.38131e+07
2.37891e+07
2.37648e+07
2.37406e+07
2.37165e+07
2.36928e+07
2.36694e+07
2.36465e+07
2.36241e+07
2.36023e+07
2.30026e+07
2.30023e+07
2.30016e+07
2.30006e+07
2.29992e+07
2.29974e+07
2.29953e+07
2.29928e+07
2.29899e+07
2.29866e+07
2.29829e+07
2.29789e+07
2.29744e+07
2.29695e+07
2.29642e+07
2.29585e+07
2.29524e+07
2.29459e+07
2.29389e+07
2.29315e+07
2.29236e+07
2.29153e+07
2.29066e+07
2.28974e+07
2.28878e+07
2.28777e+07
2.28672e+07
2.28562e+07
2.28448e+07
2.28329e+07
2.28205e+07
2.28077e+07
2.27944e+07
2.27807e+07
2.27664e+07
2.27518e+07
2.27366e+07
2.2721e+07
2.27049e+07
2.26884e+07
2.26713e+07
2.26538e+07
2.26358e+07
2.26174e+07
2.25984e+07
2.2579e+07
2.25591e+07
2.25387e+07
2.25178e+07
2.24965e+07
2.24746e+07
2.24523e+07
2.24294e+07
2.24061e+07
2.23823e+07
2.23579e+07
2.23331e+07
2.23077e+07
2.22819e+07
2.22555e+07
2.22286e+07
2.22012e+07
2.21733e+07
2.21449e+07
2.21159e+07
2.20864e+07
2.20563e+07
2.20257e+07
2.19946e+07
2.19629e+07
2.19307e+07
2.18979e+07
2.18645e+07
2.18306e+07
2.17961e+07
2.1761e+07
2.17254e+07
2.16891e+07
2.16523e+07
2.16148e+07
2.15768e+07
2.15381e+07
2.14988e+07
2.14589e+07
2.14184e+07
2.13772e+07
2.13353e+07
2.12929e+07
2.12497e+07
2.12059e+07
2.11614e+07
2.11162e+07
2.10704e+07
2.10238e+07
2.09765e+07
2.09285e+07
2.08798e+07
2.08304e+07
2.07802e+07
2.07292e+07
2.06775e+07
2.0625e+07
2.05717e+07
2.05176e+07
2.04627e+07
2.0407e+07
2.03505e+07
2.02931e+07
2.02349e+07
2.01758e+07
2.01158e+07
2.0055e+07
1.99932e+07
1.99306e+07
1.98671e+07
1.98026e+07
1.97372e+07
1.96708e+07
1.96035e+07
1.95354e+07
1.94664e+07
1.93963e+07
1.93244e+07
1.92505e+07
1.91747e+07
1.9097e+07
1.90175e+07
1.8936e+07
1.88525e+07
1.87667e+07
1.86782e+07
1.85857e+07
1.84871e+07
1.83809e+07
1.82717e+07
1.8171e+07
1.80712e+07
1.79785e+07
1.78908e+07
1.78064e+07
1.77245e+07
1.76443e+07
1.75654e+07
1.74874e+07
1.741e+07
1.73331e+07
1.72565e+07
1.71801e+07
1.71038e+07
1.70274e+07
1.69509e+07
1.68743e+07
1.67975e+07
1.67203e+07
1.66429e+07
1.65651e+07
1.6487e+07
1.64084e+07
1.63294e+07
1.625e+07
1.617e+07
1.60896e+07
1.60087e+07
1.59272e+07
1.58452e+07
1.57627e+07
1.56796e+07
1.55959e+07
1.55117e+07
1.54269e+07
1.53416e+07
1.52557e+07
1.51692e+07
1.50822e+07
1.49948e+07
1.4907e+07
1.48188e+07
1.47305e+07
1.46424e+07
1.45552e+07
2.30035e+07
2.30031e+07
2.30024e+07
2.30014e+07
2.3e+07
2.29982e+07
2.29961e+07
2.29936e+07
2.29907e+07
2.29874e+07
2.29837e+07
2.29797e+07
2.29752e+07
2.29703e+07
2.2965e+07
2.29593e+07
2.29531e+07
2.29466e+07
2.29396e+07
2.29321e+07
2.29243e+07
2.2916e+07
2.29072e+07
2.2898e+07
2.28884e+07
2.28783e+07
2.28678e+07
2.28568e+07
2.28453e+07
2.28334e+07
2.2821e+07
2.28082e+07
2.27949e+07
2.27811e+07
2.27669e+07
2.27522e+07
2.27371e+07
2.27214e+07
2.27053e+07
2.26888e+07
2.26717e+07
2.26542e+07
2.26362e+07
2.26178e+07
2.25988e+07
2.25794e+07
2.25595e+07
2.25391e+07
2.25182e+07
2.24968e+07
2.2475e+07
2.24526e+07
2.24298e+07
2.24065e+07
2.23826e+07
2.23583e+07
2.23334e+07
2.23081e+07
2.22822e+07
2.22559e+07
2.2229e+07
2.22016e+07
2.21737e+07
2.21452e+07
2.21162e+07
2.20867e+07
2.20567e+07
2.20261e+07
2.1995e+07
2.19633e+07
2.19311e+07
2.18983e+07
2.18649e+07
2.1831e+07
2.17965e+07
2.17614e+07
2.17258e+07
2.16896e+07
2.16527e+07
2.16153e+07
2.15772e+07
2.15386e+07
2.14993e+07
2.14594e+07
2.14189e+07
2.13777e+07
2.13359e+07
2.12934e+07
2.12503e+07
2.12065e+07
2.1162e+07
2.11168e+07
2.1071e+07
2.10244e+07
2.09772e+07
2.09292e+07
2.08805e+07
2.0831e+07
2.07808e+07
2.07299e+07
2.06782e+07
2.06257e+07
2.05724e+07
2.05184e+07
2.04635e+07
2.04078e+07
2.03513e+07
2.0294e+07
2.02358e+07
2.01767e+07
2.01168e+07
2.0056e+07
1.99943e+07
1.99316e+07
1.98681e+07
1.98036e+07
1.97382e+07
1.96718e+07
1.96044e+07
1.95361e+07
1.94668e+07
1.93963e+07
1.93241e+07
1.92502e+07
1.91743e+07
1.90966e+07
1.9017e+07
1.89355e+07
1.8852e+07
1.87664e+07
1.86785e+07
1.85875e+07
1.84927e+07
1.8394e+07
1.82931e+07
1.81786e+07
1.80677e+07
1.79761e+07
1.7889e+07
1.78051e+07
1.77235e+07
1.76436e+07
1.75648e+07
1.74869e+07
1.74096e+07
1.73328e+07
1.72563e+07
1.71799e+07
1.71036e+07
1.70272e+07
1.69508e+07
1.68742e+07
1.67973e+07
1.67202e+07
1.66428e+07
1.65651e+07
1.64869e+07
1.64084e+07
1.63294e+07
1.62499e+07
1.617e+07
1.60896e+07
1.60086e+07
1.59272e+07
1.58452e+07
1.57627e+07
1.56796e+07
1.55959e+07
1.55117e+07
1.54269e+07
1.53415e+07
1.52556e+07
1.51692e+07
1.50822e+07
1.49947e+07
1.49069e+07
1.48187e+07
1.47303e+07
1.46421e+07
1.45544e+07
2.30054e+07
2.30051e+07
2.30044e+07
2.30033e+07
2.30019e+07
2.30001e+07
2.2998e+07
2.29955e+07
2.29926e+07
2.29893e+07
2.29856e+07
2.29815e+07
2.2977e+07
2.29721e+07
2.29667e+07
2.2961e+07
2.29548e+07
2.29482e+07
2.29412e+07
2.29337e+07
2.29258e+07
2.29175e+07
2.29087e+07
2.28995e+07
2.28898e+07
2.28797e+07
2.28691e+07
2.28581e+07
2.28466e+07
2.28346e+07
2.28222e+07
2.28094e+07
2.2796e+07
2.27822e+07
2.2768e+07
2.27533e+07
2.27381e+07
2.27224e+07
2.27063e+07
2.26897e+07
2.26726e+07
2.26551e+07
2.26371e+07
2.26186e+07
2.25996e+07
2.25802e+07
2.25602e+07
2.25398e+07
2.25189e+07
2.24976e+07
2.24757e+07
2.24533e+07
2.24305e+07
2.24071e+07
2.23833e+07
2.23589e+07
2.23341e+07
2.23087e+07
2.22829e+07
2.22565e+07
2.22296e+07
2.22022e+07
2.21743e+07
2.21458e+07
2.21168e+07
2.20873e+07
2.20573e+07
2.20267e+07
2.19956e+07
2.19639e+07
2.19317e+07
2.18989e+07
2.18655e+07
2.18316e+07
2.17971e+07
2.1762e+07
2.17264e+07
2.16902e+07
2.16533e+07
2.16159e+07
2.15778e+07
2.15392e+07
2.14999e+07
2.146e+07
2.14195e+07
2.13783e+07
2.13365e+07
2.1294e+07
2.12509e+07
2.12071e+07
2.11626e+07
2.11175e+07
2.10716e+07
2.10251e+07
2.09778e+07
2.09298e+07
2.08811e+07
2.08317e+07
2.07815e+07
2.07306e+07
2.06789e+07
2.06264e+07
2.05732e+07
2.05191e+07
2.04642e+07
2.04086e+07
2.03521e+07
2.02947e+07
2.02365e+07
2.01775e+07
2.01176e+07
2.00567e+07
1.9995e+07
1.99324e+07
1.98688e+07
1.98043e+07
1.97388e+07
1.96724e+07
1.96049e+07
1.95365e+07
1.94669e+07
1.93961e+07
1.93237e+07
1.92497e+07
1.91739e+07
1.90964e+07
1.90172e+07
1.89362e+07
1.88532e+07
1.87683e+07
1.86811e+07
1.85914e+07
1.84987e+07
1.84033e+07
1.83053e+07
1.82014e+07
1.8086e+07
1.79714e+07
1.78855e+07
1.78026e+07
1.77216e+07
1.7642e+07
1.75636e+07
1.74859e+07
1.74088e+07
1.73321e+07
1.72557e+07
1.71794e+07
1.71032e+07
1.70269e+07
1.69505e+07
1.68739e+07
1.67971e+07
1.672e+07
1.66426e+07
1.65649e+07
1.64868e+07
1.64082e+07
1.63293e+07
1.62498e+07
1.61699e+07
1.60895e+07
1.60086e+07
1.59271e+07
1.58451e+07
1.57626e+07
1.56795e+07
1.55958e+07
1.55116e+07
1.54268e+07
1.53415e+07
1.52555e+07
1.51691e+07
1.50821e+07
1.49946e+07
1.49067e+07
1.48185e+07
1.473e+07
1.46415e+07
1.45533e+07
2.30085e+07
2.30082e+07
2.30075e+07
2.30064e+07
2.3005e+07
2.30032e+07
2.3001e+07
2.29985e+07
2.29956e+07
2.29922e+07
2.29885e+07
2.29844e+07
2.29798e+07
2.29749e+07
2.29695e+07
2.29637e+07
2.29575e+07
2.29509e+07
2.29438e+07
2.29363e+07
2.29283e+07
2.29199e+07
2.29111e+07
2.29018e+07
2.2892e+07
2.28819e+07
2.28712e+07
2.28601e+07
2.28486e+07
2.28366e+07
2.28241e+07
2.28112e+07
2.27978e+07
2.2784e+07
2.27697e+07
2.27549e+07
2.27397e+07
2.2724e+07
2.27078e+07
2.26912e+07
2.26741e+07
2.26565e+07
2.26384e+07
2.26199e+07
2.26009e+07
2.25814e+07
2.25615e+07
2.2541e+07
2.25201e+07
2.24987e+07
2.24768e+07
2.24544e+07
2.24315e+07
2.24082e+07
2.23843e+07
2.23599e+07
2.23351e+07
2.23097e+07
2.22838e+07
2.22574e+07
2.22305e+07
2.22031e+07
2.21752e+07
2.21467e+07
2.21177e+07
2.20882e+07
2.20581e+07
2.20275e+07
2.19964e+07
2.19647e+07
2.19325e+07
2.18997e+07
2.18663e+07
2.18324e+07
2.17979e+07
2.17628e+07
2.17272e+07
2.16909e+07
2.16541e+07
2.16167e+07
2.15786e+07
2.154e+07
2.15007e+07
2.14608e+07
2.14203e+07
2.13791e+07
2.13373e+07
2.12948e+07
2.12517e+07
2.12079e+07
2.11634e+07
2.11183e+07
2.10724e+07
2.10259e+07
2.09786e+07
2.09307e+07
2.0882e+07
2.08325e+07
2.07824e+07
2.07314e+07
2.06797e+07
2.06273e+07
2.0574e+07
2.052e+07
2.04651e+07
2.04094e+07
2.03529e+07
2.02956e+07
2.02374e+07
2.01784e+07
2.01184e+07
2.00576e+07
1.99959e+07
1.99333e+07
1.98697e+07
1.98051e+07
1.97396e+07
1.96731e+07
1.96056e+07
1.9537e+07
1.94673e+07
1.93963e+07
1.93239e+07
1.92499e+07
1.91743e+07
1.9097e+07
1.90181e+07
1.89375e+07
1.8855e+07
1.87706e+07
1.86842e+07
1.85955e+07
1.85045e+07
1.84111e+07
1.83153e+07
1.82157e+07
1.81099e+07
1.79829e+07
1.78807e+07
1.7799e+07
1.77188e+07
1.76398e+07
1.75618e+07
1.74844e+07
1.74076e+07
1.73311e+07
1.72548e+07
1.71787e+07
1.71025e+07
1.70263e+07
1.695e+07
1.68735e+07
1.67968e+07
1.67197e+07
1.66424e+07
1.65647e+07
1.64866e+07
1.64081e+07
1.63291e+07
1.62497e+07
1.61698e+07
1.60894e+07
1.60085e+07
1.5927e+07
1.58451e+07
1.57625e+07
1.56794e+07
1.55958e+07
1.55115e+07
1.54267e+07
1.53414e+07
1.52554e+07
1.5169e+07
1.5082e+07
1.49944e+07
1.49065e+07
1.48181e+07
1.47295e+07
1.46407e+07
1.45519e+07
2.30128e+07
2.30125e+07
2.30118e+07
2.30107e+07
2.30092e+07
2.30074e+07
2.30052e+07
2.30027e+07
2.29997e+07
2.29963e+07
2.29925e+07
2.29884e+07
2.29838e+07
2.29788e+07
2.29733e+07
2.29675e+07
2.29612e+07
2.29545e+07
2.29473e+07
2.29397e+07
2.29317e+07
2.29232e+07
2.29143e+07
2.29049e+07
2.28951e+07
2.28849e+07
2.28741e+07
2.2863e+07
2.28513e+07
2.28393e+07
2.28267e+07
2.28137e+07
2.28003e+07
2.27864e+07
2.2772e+07
2.27572e+07
2.27419e+07
2.27261e+07
2.27099e+07
2.26932e+07
2.2676e+07
2.26584e+07
2.26403e+07
2.26217e+07
2.26026e+07
2.25831e+07
2.25631e+07
2.25426e+07
2.25217e+07
2.25002e+07
2.24783e+07
2.24559e+07
2.24329e+07
2.24095e+07
2.23856e+07
2.23612e+07
2.23363e+07
2.23109e+07
2.2285e+07
2.22586e+07
2.22317e+07
2.22043e+07
2.21763e+07
2.21478e+07
2.21188e+07
2.20893e+07
2.20592e+07
2.20286e+07
2.19975e+07
2.19658e+07
2.19335e+07
2.19007e+07
2.18673e+07
2.18334e+07
2.17989e+07
2.17638e+07
2.17282e+07
2.16919e+07
2.16551e+07
2.16176e+07
2.15796e+07
2.15409e+07
2.15017e+07
2.14618e+07
2.14212e+07
2.13801e+07
2.13382e+07
2.12958e+07
2.12526e+07
2.12088e+07
2.11644e+07
2.11192e+07
2.10734e+07
2.10268e+07
2.09796e+07
2.09316e+07
2.08829e+07
2.08335e+07
2.07833e+07
2.07324e+07
2.06807e+07
2.06282e+07
2.0575e+07
2.05209e+07
2.04661e+07
2.04104e+07
2.03539e+07
2.02966e+07
2.02384e+07
2.01794e+07
2.01194e+07
2.00586e+07
1.99969e+07
1.99342e+07
1.98706e+07
1.98061e+07
1.97406e+07
1.9674e+07
1.96065e+07
1.95378e+07
1.9468e+07
1.93969e+07
1.93244e+07
1.92505e+07
1.91751e+07
1.9098e+07
1.90194e+07
1.89391e+07
1.88571e+07
1.87733e+07
1.86876e+07
1.85999e+07
1.851e+07
1.84181e+07
1.8324e+07
1.8227e+07
1.81257e+07
1.8015e+07
1.7882e+07
1.77944e+07
1.77153e+07
1.7637e+07
1.75595e+07
1.74825e+07
1.7406e+07
1.73298e+07
1.72537e+07
1.71777e+07
1.71017e+07
1.70257e+07
1.69494e+07
1.6873e+07
1.67963e+07
1.67194e+07
1.66421e+07
1.65644e+07
1.64863e+07
1.64079e+07
1.63289e+07
1.62495e+07
1.61696e+07
1.60893e+07
1.60084e+07
1.59269e+07
1.5845e+07
1.57624e+07
1.56793e+07
1.55957e+07
1.55115e+07
1.54266e+07
1.53413e+07
1.52553e+07
1.51688e+07
1.50818e+07
1.49942e+07
1.49062e+07
1.48177e+07
1.47289e+07
1.46398e+07
1.45505e+07
2.30183e+07
2.30179e+07
2.30172e+07
2.30161e+07
2.30146e+07
2.30128e+07
2.30106e+07
2.30079e+07
2.30049e+07
2.30015e+07
2.29977e+07
2.29934e+07
2.29887e+07
2.29837e+07
2.29781e+07
2.29722e+07
2.29658e+07
2.2959e+07
2.29518e+07
2.29441e+07
2.2936e+07
2.29274e+07
2.29184e+07
2.29089e+07
2.2899e+07
2.28886e+07
2.28778e+07
2.28665e+07
2.28548e+07
2.28427e+07
2.283e+07
2.28169e+07
2.28034e+07
2.27894e+07
2.27749e+07
2.276e+07
2.27446e+07
2.27288e+07
2.27125e+07
2.26957e+07
2.26785e+07
2.26608e+07
2.26426e+07
2.26239e+07
2.26048e+07
2.25852e+07
2.25652e+07
2.25446e+07
2.25236e+07
2.25021e+07
2.24801e+07
2.24576e+07
2.24347e+07
2.24112e+07
2.23873e+07
2.23629e+07
2.23379e+07
2.23125e+07
2.22866e+07
2.22601e+07
2.22332e+07
2.22057e+07
2.21777e+07
2.21492e+07
2.21202e+07
2.20906e+07
2.20605e+07
2.20299e+07
2.19987e+07
2.1967e+07
2.19348e+07
2.19019e+07
2.18686e+07
2.18346e+07
2.18001e+07
2.1765e+07
2.17293e+07
2.16931e+07
2.16562e+07
2.16188e+07
2.15807e+07
2.1542e+07
2.15028e+07
2.14629e+07
2.14223e+07
2.13811e+07
2.13393e+07
2.12969e+07
2.12537e+07
2.12099e+07
2.11654e+07
2.11203e+07
2.10744e+07
2.10279e+07
2.09806e+07
2.09327e+07
2.0884e+07
2.08345e+07
2.07844e+07
2.07334e+07
2.06818e+07
2.06293e+07
2.0576e+07
2.0522e+07
2.04672e+07
2.04115e+07
2.0355e+07
2.02977e+07
2.02395e+07
2.01804e+07
2.01205e+07
2.00597e+07
1.9998e+07
1.99353e+07
1.98717e+07
1.98072e+07
1.97416e+07
1.96751e+07
1.96074e+07
1.95387e+07
1.94689e+07
1.93977e+07
1.93253e+07
1.92515e+07
1.91762e+07
1.90994e+07
1.9021e+07
1.89411e+07
1.88595e+07
1.87762e+07
1.86911e+07
1.86042e+07
1.85154e+07
1.84246e+07
1.83319e+07
1.82366e+07
1.81378e+07
1.80327e+07
1.79088e+07
1.77901e+07
1.77111e+07
1.76336e+07
1.75567e+07
1.74803e+07
1.74041e+07
1.73282e+07
1.72524e+07
1.71766e+07
1.71008e+07
1.70248e+07
1.69487e+07
1.68724e+07
1.67958e+07
1.67189e+07
1.66417e+07
1.6564e+07
1.6486e+07
1.64076e+07
1.63287e+07
1.62493e+07
1.61695e+07
1.60891e+07
1.60082e+07
1.59268e+07
1.58448e+07
1.57623e+07
1.56792e+07
1.55956e+07
1.55113e+07
1.54265e+07
1.53411e+07
1.52552e+07
1.51686e+07
1.50816e+07
1.49939e+07
1.49058e+07
1.48172e+07
1.47282e+07
1.46388e+07
1.4549e+07
2.3025e+07
2.30246e+07
2.30238e+07
2.30227e+07
2.30212e+07
2.30193e+07
2.3017e+07
2.30144e+07
2.30113e+07
2.30078e+07
2.30039e+07
2.29995e+07
2.29948e+07
2.29896e+07
2.2984e+07
2.29779e+07
2.29714e+07
2.29645e+07
2.29572e+07
2.29493e+07
2.29411e+07
2.29324e+07
2.29233e+07
2.29137e+07
2.29036e+07
2.28932e+07
2.28822e+07
2.28708e+07
2.2859e+07
2.28467e+07
2.2834e+07
2.28208e+07
2.28071e+07
2.2793e+07
2.27784e+07
2.27634e+07
2.27479e+07
2.2732e+07
2.27156e+07
2.26987e+07
2.26814e+07
2.26636e+07
2.26453e+07
2.26266e+07
2.26074e+07
2.25877e+07
2.25676e+07
2.2547e+07
2.25259e+07
2.25043e+07
2.24823e+07
2.24598e+07
2.24368e+07
2.24133e+07
2.23893e+07
2.23648e+07
2.23398e+07
2.23143e+07
2.22884e+07
2.22619e+07
2.22349e+07
2.22074e+07
2.21794e+07
2.21508e+07
2.21218e+07
2.20922e+07
2.2062e+07
2.20314e+07
2.20002e+07
2.19685e+07
2.19362e+07
2.19033e+07
2.18699e+07
2.1836e+07
2.18014e+07
2.17663e+07
2.17306e+07
2.16944e+07
2.16575e+07
2.162e+07
2.1582e+07
2.15433e+07
2.1504e+07
2.14641e+07
2.14235e+07
2.13824e+07
2.13405e+07
2.1298e+07
2.12549e+07
2.12111e+07
2.11666e+07
2.11215e+07
2.10756e+07
2.10291e+07
2.09818e+07
2.09338e+07
2.08851e+07
2.08357e+07
2.07855e+07
2.07346e+07
2.06829e+07
2.06305e+07
2.05772e+07
2.05232e+07
2.04683e+07
2.04127e+07
2.03562e+07
2.02989e+07
2.02407e+07
2.01816e+07
2.01217e+07
2.00609e+07
1.99992e+07
1.99365e+07
1.98729e+07
1.98083e+07
1.97428e+07
1.96762e+07
1.96086e+07
1.95398e+07
1.94699e+07
1.93988e+07
1.93264e+07
1.92527e+07
1.91775e+07
1.91009e+07
1.90228e+07
1.89432e+07
1.8862e+07
1.87792e+07
1.86947e+07
1.86085e+07
1.85205e+07
1.84307e+07
1.8339e+07
1.82451e+07
1.81481e+07
1.80464e+07
1.79348e+07
1.77963e+07
1.77063e+07
1.76298e+07
1.75535e+07
1.74776e+07
1.74019e+07
1.73263e+07
1.72508e+07
1.71752e+07
1.70996e+07
1.70238e+07
1.69479e+07
1.68717e+07
1.67952e+07
1.67183e+07
1.66412e+07
1.65636e+07
1.64857e+07
1.64073e+07
1.63284e+07
1.62491e+07
1.61692e+07
1.60889e+07
1.6008e+07
1.59266e+07
1.58447e+07
1.57622e+07
1.56791e+07
1.55954e+07
1.55112e+07
1.54264e+07
1.5341e+07
1.5255e+07
1.51684e+07
1.50813e+07
1.49936e+07
1.49054e+07
1.48167e+07
1.47275e+07
1.46378e+07
1.45475e+07
2.30328e+07
2.30324e+07
2.30316e+07
2.30305e+07
2.30289e+07
2.3027e+07
2.30247e+07
2.30219e+07
2.30187e+07
2.30151e+07
2.30111e+07
2.30067e+07
2.30018e+07
2.29965e+07
2.29908e+07
2.29846e+07
2.2978e+07
2.29709e+07
2.29634e+07
2.29555e+07
2.29471e+07
2.29383e+07
2.2929e+07
2.29192e+07
2.29091e+07
2.28984e+07
2.28873e+07
2.28758e+07
2.28638e+07
2.28514e+07
2.28385e+07
2.28252e+07
2.28114e+07
2.27972e+07
2.27825e+07
2.27673e+07
2.27517e+07
2.27357e+07
2.27191e+07
2.27022e+07
2.26847e+07
2.26668e+07
2.26485e+07
2.26297e+07
2.26104e+07
2.25906e+07
2.25704e+07
2.25497e+07
2.25285e+07
2.25069e+07
2.24848e+07
2.24622e+07
2.24391e+07
2.24156e+07
2.23915e+07
2.2367e+07
2.23419e+07
2.23164e+07
2.22904e+07
2.22638e+07
2.22368e+07
2.22093e+07
2.21812e+07
2.21526e+07
2.21235e+07
2.20939e+07
2.20637e+07
2.20331e+07
2.20018e+07
2.19701e+07
2.19378e+07
2.19049e+07
2.18715e+07
2.18375e+07
2.18029e+07
2.17678e+07
2.17321e+07
2.16958e+07
2.16589e+07
2.16214e+07
2.15833e+07
2.15447e+07
2.15053e+07
2.14654e+07
2.14249e+07
2.13837e+07
2.13418e+07
2.12993e+07
2.12562e+07
2.12124e+07
2.11679e+07
2.11227e+07
2.10769e+07
2.10303e+07
2.09831e+07
2.09351e+07
2.08864e+07
2.0837e+07
2.07868e+07
2.07358e+07
2.06842e+07
2.06317e+07
2.05785e+07
2.05244e+07
2.04696e+07
2.04139e+07
2.03574e+07
2.03001e+07
2.02419e+07
2.01829e+07
2.0123e+07
2.00621e+07
2.00004e+07
1.99378e+07
1.98741e+07
1.98096e+07
1.9744e+07
1.96774e+07
1.96098e+07
1.9541e+07
1.94711e+07
1.94001e+07
1.93277e+07
1.92541e+07
1.91791e+07
1.91027e+07
1.90248e+07
1.89455e+07
1.88647e+07
1.87823e+07
1.86983e+07
1.86127e+07
1.85254e+07
1.84365e+07
1.83456e+07
1.82527e+07
1.81572e+07
1.80577e+07
1.7951e+07
1.78236e+07
1.77022e+07
1.76256e+07
1.755e+07
1.74746e+07
1.73994e+07
1.73242e+07
1.7249e+07
1.71737e+07
1.70983e+07
1.70227e+07
1.69469e+07
1.68708e+07
1.67944e+07
1.67177e+07
1.66406e+07
1.65632e+07
1.64852e+07
1.64069e+07
1.63281e+07
1.62488e+07
1.6169e+07
1.60887e+07
1.60078e+07
1.59265e+07
1.58445e+07
1.5762e+07
1.56789e+07
1.55953e+07
1.55111e+07
1.54262e+07
1.53408e+07
1.52548e+07
1.51682e+07
1.5081e+07
1.49933e+07
1.4905e+07
1.48161e+07
1.47267e+07
1.46367e+07
1.45461e+07
2.30419e+07
2.30415e+07
2.30406e+07
2.30395e+07
2.30379e+07
2.30358e+07
2.30334e+07
2.30306e+07
2.30273e+07
2.30236e+07
2.30195e+07
2.30149e+07
2.30099e+07
2.30045e+07
2.29986e+07
2.29923e+07
2.29855e+07
2.29783e+07
2.29706e+07
2.29625e+07
2.29539e+07
2.29449e+07
2.29354e+07
2.29255e+07
2.29152e+07
2.29044e+07
2.28931e+07
2.28814e+07
2.28693e+07
2.28567e+07
2.28437e+07
2.28302e+07
2.28162e+07
2.28018e+07
2.2787e+07
2.27717e+07
2.2756e+07
2.27398e+07
2.27231e+07
2.2706e+07
2.26885e+07
2.26705e+07
2.2652e+07
2.26331e+07
2.26137e+07
2.25938e+07
2.25735e+07
2.25527e+07
2.25315e+07
2.25098e+07
2.24876e+07
2.24649e+07
2.24417e+07
2.24181e+07
2.2394e+07
2.23694e+07
2.23443e+07
2.23187e+07
2.22926e+07
2.2266e+07
2.22389e+07
2.22113e+07
2.21832e+07
2.21546e+07
2.21255e+07
2.20958e+07
2.20656e+07
2.20349e+07
2.20036e+07
2.19718e+07
2.19395e+07
2.19066e+07
2.18731e+07
2.18391e+07
2.18045e+07
2.17694e+07
2.17336e+07
2.16973e+07
2.16604e+07
2.16229e+07
2.15848e+07
2.15461e+07
2.15068e+07
2.14668e+07
2.14263e+07
2.13851e+07
2.13432e+07
2.13007e+07
2.12576e+07
2.12137e+07
2.11692e+07
2.11241e+07
2.10782e+07
2.10316e+07
2.09844e+07
2.09364e+07
2.08877e+07
2.08383e+07
2.07881e+07
2.07371e+07
2.06855e+07
2.0633e+07
2.05797e+07
2.05257e+07
2.04709e+07
2.04152e+07
2.03587e+07
2.03014e+07
2.02432e+07
2.01842e+07
2.01243e+07
2.00634e+07
2.00017e+07
1.99391e+07
1.98754e+07
1.98109e+07
1.97453e+07
1.96787e+07
1.96111e+07
1.95423e+07
1.94725e+07
1.94014e+07
1.93292e+07
1.92556e+07
1.91807e+07
1.91045e+07
1.90269e+07
1.89479e+07
1.88674e+07
1.87854e+07
1.87019e+07
1.86168e+07
1.85302e+07
1.84419e+07
1.83518e+07
1.82598e+07
1.81653e+07
1.80674e+07
1.79641e+07
1.78495e+07
1.7707e+07
1.76209e+07
1.75461e+07
1.74714e+07
1.73966e+07
1.73218e+07
1.7247e+07
1.7172e+07
1.70968e+07
1.70214e+07
1.69458e+07
1.68699e+07
1.67936e+07
1.6717e+07
1.664e+07
1.65626e+07
1.64848e+07
1.64065e+07
1.63277e+07
1.62485e+07
1.61687e+07
1.60884e+07
1.60076e+07
1.59263e+07
1.58443e+07
1.57618e+07
1.56788e+07
1.55951e+07
1.55109e+07
1.54261e+07
1.53406e+07
1.52546e+07
1.5168e+07
1.50807e+07
1.49929e+07
1.49045e+07
1.48155e+07
1.47259e+07
1.46357e+07
1.45447e+07
2.30522e+07
2.30517e+07
2.30509e+07
2.30496e+07
2.3048e+07
2.30459e+07
2.30434e+07
2.30404e+07
2.3037e+07
2.30332e+07
2.30289e+07
2.30242e+07
2.30191e+07
2.30134e+07
2.30074e+07
2.30009e+07
2.29939e+07
2.29865e+07
2.29786e+07
2.29703e+07
2.29615e+07
2.29523e+07
2.29427e+07
2.29326e+07
2.2922e+07
2.2911e+07
2.28996e+07
2.28877e+07
2.28754e+07
2.28626e+07
2.28494e+07
2.28357e+07
2.28216e+07
2.2807e+07
2.2792e+07
2.27766e+07
2.27607e+07
2.27444e+07
2.27276e+07
2.27103e+07
2.26926e+07
2.26745e+07
2.26559e+07
2.26369e+07
2.26173e+07
2.25974e+07
2.2577e+07
2.25561e+07
2.25347e+07
2.25129e+07
2.24906e+07
2.24678e+07
2.24446e+07
2.24209e+07
2.23967e+07
2.2372e+07
2.23468e+07
2.23212e+07
2.2295e+07
2.22684e+07
2.22412e+07
2.22136e+07
2.21854e+07
2.21567e+07
2.21275e+07
2.20978e+07
2.20676e+07
2.20368e+07
2.20055e+07
2.19737e+07
2.19413e+07
2.19084e+07
2.18749e+07
2.18408e+07
2.18062e+07
2.1771e+07
2.17353e+07
2.1699e+07
2.1662e+07
2.16245e+07
2.15864e+07
2.15476e+07
2.15083e+07
2.14683e+07
2.14278e+07
2.13865e+07
2.13447e+07
2.13022e+07
2.1259e+07
2.12151e+07
2.11706e+07
2.11255e+07
2.10796e+07
2.1033e+07
2.09857e+07
2.09378e+07
2.0889e+07
2.08396e+07
2.07894e+07
2.07385e+07
2.06868e+07
2.06343e+07
2.05811e+07
2.0527e+07
2.04722e+07
2.04165e+07
2.036e+07
2.03027e+07
2.02445e+07
2.01855e+07
2.01256e+07
2.00648e+07
2.0003e+07
1.99404e+07
1.98768e+07
1.98122e+07
1.97467e+07
1.96801e+07
1.96124e+07
1.95437e+07
1.94739e+07
1.94029e+07
1.93307e+07
1.92573e+07
1.91825e+07
1.91065e+07
1.90291e+07
1.89503e+07
1.88702e+07
1.87885e+07
1.87055e+07
1.86209e+07
1.85347e+07
1.8447e+07
1.83576e+07
1.82663e+07
1.81727e+07
1.80761e+07
1.7975e+07
1.78651e+07
1.77277e+07
1.76161e+07
1.7542e+07
1.74679e+07
1.73936e+07
1.73193e+07
1.72448e+07
1.71701e+07
1.70952e+07
1.70201e+07
1.69446e+07
1.68688e+07
1.67927e+07
1.67162e+07
1.66393e+07
1.6562e+07
1.64843e+07
1.6406e+07
1.63273e+07
1.62481e+07
1.61684e+07
1.60882e+07
1.60074e+07
1.5926e+07
1.58441e+07
1.57617e+07
1.56786e+07
1.55949e+07
1.55107e+07
1.54259e+07
1.53404e+07
1.52544e+07
1.51677e+07
1.50804e+07
1.49925e+07
1.4904e+07
1.48149e+07
1.47251e+07
1.46346e+07
1.45433e+07
2.30638e+07
2.30633e+07
2.30624e+07
2.30611e+07
2.30594e+07
2.30572e+07
2.30545e+07
2.30515e+07
2.30479e+07
2.30439e+07
2.30395e+07
2.30346e+07
2.30292e+07
2.30234e+07
2.30171e+07
2.30104e+07
2.30032e+07
2.29956e+07
2.29875e+07
2.2979e+07
2.297e+07
2.29605e+07
2.29506e+07
2.29403e+07
2.29295e+07
2.29183e+07
2.29067e+07
2.28945e+07
2.2882e+07
2.2869e+07
2.28556e+07
2.28417e+07
2.28274e+07
2.28127e+07
2.27975e+07
2.27819e+07
2.27658e+07
2.27493e+07
2.27324e+07
2.2715e+07
2.26971e+07
2.26788e+07
2.26601e+07
2.26409e+07
2.26213e+07
2.26012e+07
2.25806e+07
2.25596e+07
2.25382e+07
2.25162e+07
2.24939e+07
2.2471e+07
2.24477e+07
2.24239e+07
2.23996e+07
2.23748e+07
2.23496e+07
2.23238e+07
2.22976e+07
2.22709e+07
2.22437e+07
2.2216e+07
2.21877e+07
2.2159e+07
2.21298e+07
2.21e+07
2.20697e+07
2.20389e+07
2.20075e+07
2.19757e+07
2.19432e+07
2.19103e+07
2.18767e+07
2.18427e+07
2.1808e+07
2.17728e+07
2.1737e+07
2.17006e+07
2.16637e+07
2.16261e+07
2.1588e+07
2.15492e+07
2.15099e+07
2.14699e+07
2.14293e+07
2.1388e+07
2.13462e+07
2.13036e+07
2.12604e+07
2.12166e+07
2.11721e+07
2.11269e+07
2.1081e+07
2.10344e+07
2.09871e+07
2.09391e+07
2.08904e+07
2.0841e+07
2.07908e+07
2.07398e+07
2.06881e+07
2.06357e+07
2.05824e+07
2.05284e+07
2.04735e+07
2.04179e+07
2.03614e+07
2.03041e+07
2.02459e+07
2.01869e+07
2.01269e+07
2.00661e+07
2.00044e+07
1.99418e+07
1.98782e+07
1.98136e+07
1.97481e+07
1.96815e+07
1.96139e+07
1.95452e+07
1.94754e+07
1.94045e+07
1.93323e+07
1.9259e+07
1.91844e+07
1.91085e+07