/*--------------------------------*- C++ -*----------------------------------*\
  =========                 |
  \\      /  F ield         | OpenFOAM: The Open Source CFD Toolbox
   \\    /   O peration     | Website:  https://openfoam.org
    \\  /    A nd           | Version:  10
     \\/     M anipulation  |
\*---------------------------------------------------------------------------*/
FoamFile
{
    format      ascii;
    class       volScalarField;
    location    "0.106";
    object      p;
}
// * * * * * * * * * * * * * * * * * * * * * * * * * * * * * * * * * * * * * //

dimensions      [0 2 -2 0 0 0 0];

internalField   nonuniform List<scalar> 
4000
(
13.7828
13.7822
13.7808
13.7786
13.7756
13.7719
13.7675
13.7623
13.7564
13.7497
13.7423
13.7341
13.7251
13.7153
13.7047
13.6934
13.6812
13.6681
13.6542
13.6394
13.6237
13.6071
13.5895
13.571
13.5514
13.5308
13.5091
13.4862
13.4622
13.437
13.4104
13.3826
13.3534
13.3227
13.2906
13.2568
13.2215
13.1844
13.1455
13.1047
13.062
13.0172
12.9702
12.921
12.8693
12.8153
12.7586
12.6992
12.637
12.5718
12.5035
12.432
12.3571
12.2787
12.1966
12.1106
12.0207
11.9266
11.8282
11.7254
11.6179
11.5056
11.3884
11.2661
11.1386
11.0057
10.8673
10.7233
10.5736
10.4182
10.257
10.09
9.91719
9.73866
9.55446
9.36477
9.16972
8.96957
8.76455
8.55501
8.34129
8.12382
7.90301
7.6794
7.45345
7.22576
6.99686
6.76735
6.5378
6.30882
6.08095
5.85479
5.63085
5.40968
5.19171
4.97745
4.76725
4.56154
4.36058
4.16472
3.97415
3.78913
3.60976
3.43622
3.26855
3.10686
2.9511
2.80133
2.65746
2.51948
2.38724
2.26072
2.13973
2.02421
1.91394
1.80885
1.70871
1.61342
1.52274
1.43659
1.3547
1.27699
1.20321
1.13327
1.06692
1.00408
0.944506
0.888137
0.834733
0.784243
0.736433
0.69127
0.648524
0.608179
0.570007
0.534012
0.499966
0.467893
0.437563
0.40902
0.382032
0.356666
0.332684
0.310174
0.28889
0.268946
0.250085
0.232443
0.215753
0.200175
0.185429
0.171699
0.158692
0.146618
0.135166
0.124574
0.114513
0.105249
0.0964319
0.0883568
0.0806521
0.0736416
0.066929
0.0608708
0.0550428
0.049836
0.0447956
0.0403499
0.0360102
0.0322447
0.028527
0.0253685
0.0222015
0.0195834
0.0169014
0.0147622
0.0125051
0.0107888
0.00890116
0.00755664
0.0059897
0.00497248
0.00368383
0.00295506
0.00191024
0.00143877
0.000606767
0.00035852
-0.000297305
-0.000363828
-0.000880874
-0.000803355
-0.00120337
-0.000996241
-0.00122787
-0.000845268
-0.000925995
-0.000476901
-0.000569366
0.00131738
13.7857
13.7851
13.7837
13.7815
13.7785
13.7749
13.7705
13.7653
13.7594
13.7527
13.7453
13.7372
13.7282
13.7185
13.708
13.6966
13.6845
13.6715
13.6577
13.643
13.6273
13.6108
13.5934
13.5749
13.5555
13.535
13.5134
13.4908
13.4669
13.4418
13.4155
13.3879
13.3589
13.3285
13.2966
13.2631
13.228
13.1912
13.1526
13.1121
13.0697
13.0252
12.9786
12.9297
12.8785
12.8248
12.7685
12.7095
12.6477
12.5829
12.5151
12.444
12.3695
12.2916
12.2099
12.1244
12.0349
11.9413
11.8433
11.7408
11.6337
11.5218
11.4049
11.2828
11.1555
11.0227
10.8844
10.7404
10.5906
10.4349
10.2734
10.1059
9.93243
9.75312
9.56799
9.37719
9.18088
8.97931
8.77271
8.56144
8.34585
8.1264
7.90351
7.67772
7.44956
7.21963
6.98848
6.75676
6.52505
6.29398
6.06414
5.83613
5.61047
5.38773
5.16836
4.95286
4.7416
4.535
4.33333
4.13692
3.94597
3.76071
3.58124
3.40774
3.24022
3.07879
2.92339
2.77406
2.63072
2.49332
2.36175
2.23593
2.11569
2.00094
1.89148
1.78721
1.68789
1.59343
1.50358
1.41822
1.33714
1.2602
1.18718
1.11796
1.05233
0.990178
0.931283
0.875558
0.822784
0.77289
0.725662
0.681046
0.638833
0.598985
0.561298
0.525752
0.492145
0.460476
0.430543
0.402363
0.375734
0.350692
0.327031
0.304808
0.283814
0.264125
0.245525
0.228112
0.211662
0.196292
0.181769
0.16823
0.15543
0.143527
0.132264
0.121821
0.111927
0.102787
0.094114
0.0861372
0.0785561
0.0716233
0.0650203
0.0590265
0.0533021
0.0481537
0.0432171
0.0388285
0.0345961
0.0308873
0.0272798
0.0241753
0.0211184
0.0185475
0.0159715
0.0138688
0.0117105
0.0100177
0.00822057
0.00688598
0.00540213
0.004383
0.00317255
0.00243305
0.00146474
0.000977209
0.000223867
-4.20449e-05
-0.000614617
-0.000699376
-0.00113068
-0.00107523
-0.00139161
-0.00121268
-0.00136463
-0.00100559
-0.00101424
-0.000588036
-0.000692638
0.00137482
13.7916
13.791
13.7896
13.7874
13.7845
13.7808
13.7764
13.7713
13.7654
13.7588
13.7514
13.7433
13.7345
13.7248
13.7144
13.7032
13.6911
13.6783
13.6646
13.65
13.6346
13.6183
13.601
13.5828
13.5636
13.5434
13.5222
13.4998
13.4763
13.4516
13.4256
13.3984
13.3699
13.3399
13.3084
13.2755
13.2409
13.2046
13.1666
13.1268
13.085
13.0412
12.9952
12.9471
12.8966
12.8437
12.7882
12.73
12.669
12.6051
12.5381
12.4679
12.3944
12.3173
12.2365
12.1519
12.0633
11.9706
11.8734
11.7718
11.6655
11.5542
11.438
11.3165
11.1896
11.0571
10.9189
10.7749
10.6249
10.4688
10.3065
10.1381
9.96341
9.78255
9.59555
9.40255
9.2037
8.99924
8.78944
8.57465
8.35526
8.13174
7.90458
7.67436
7.44166
7.20713
6.97139
6.73514
6.49902
6.26372
6.02985
5.79807
5.56894
5.34305
5.12086
4.90289
4.68951
4.48113
4.27805
4.08056
3.88886
3.70316
3.52355
3.35017
3.18303
3.02218
2.86758
2.71921
2.57698
2.44083
2.31061
2.18623
2.06751
1.95433
1.84649
1.74386
1.64621
1.5534
1.46521
1.38149
1.30202
1.22665
1.15517
1.08745
1.02326
0.962506
0.90496
0.850532
0.799007
0.750309
0.704229
0.660708
0.619543
0.580691
0.543953
0.509308
0.476559
0.445702
0.416544
0.389099
0.363172
0.338797
0.315775
0.294157
0.273742
0.254598
0.236518
0.219592
0.203607
0.188671
0.174565
0.161416
0.148994
0.137446
0.126529
0.116412
0.106836
0.0979907
0.0896055
0.0818914
0.0745643
0.0678591
0.0614759
0.0556759
0.0501405
0.0451576
0.0403864
0.0361426
0.0320597
0.0284819
0.0250133
0.0220297
0.019103
0.016643
0.0141872
0.0121833
0.010133
0.00852448
0.00682111
0.00555553
0.00415153
0.00318777
0.00204608
0.00135273
0.000447059
1.85114e-06
-0.000689131
-0.000910098
-0.00141537
-0.00144946
-0.00180711
-0.00169471
-0.00193041
-0.00168733
-0.0017498
-0.00131772
-0.00123365
-0.000734296
-0.000770985
0.00138218
13.8004
13.7998
13.7984
13.7962
13.7933
13.7897
13.7853
13.7802
13.7744
13.7678
13.7606
13.7525
13.7438
13.7342
13.7239
13.7129
13.701
13.6883
13.6749
13.6606
13.6454
13.6294
13.6124
13.5946
13.5758
13.556
13.5351
13.5132
13.4902
13.4661
13.4407
13.4141
13.3862
13.3569
13.3262
13.294
13.2602
13.2248
13.1877
13.1487
13.1079
13.0651
13.0202
12.9731
12.9237
12.872
12.8177
12.7607
12.701
12.6384
12.5727
12.5039
12.4316
12.3559
12.2766
12.1934
12.1061
12.0147
11.9189
11.8186
11.7134
11.6033
11.4881
11.3675
11.2413
11.1094
10.9715
10.8275
10.6773
10.5206
10.3575
10.1877
10.0112
9.82803
9.63824
9.44192
9.23921
9.03035
8.81561
8.59538
8.37008
8.14025
7.90644
7.6693
7.4295
7.18779
6.94489
6.70158
6.45861
6.21673
5.97665
5.73909
5.50464
5.27394
5.0475
4.82582
4.6093
4.39833
4.1932
3.99418
3.80145
3.61519
3.43547
3.26239
3.09592
2.93609
2.7828
2.63601
2.49558
2.36141
2.23334
2.11123
1.99488
1.88415
1.7788
1.6787
1.58359
1.49333
1.40766
1.32644
1.24942
1.17646
1.10732
1.04187
0.979876
0.921235
0.865722
0.813244
0.763588
0.716678
0.67231
0.630424
0.590822
0.553459
0.518143
0.484847
0.453381
0.423739
0.395732
0.369375
0.34448
0.321082
0.29899
0.278256
0.258684
0.240344
0.223031
0.206833
0.191538
0.177253
0.163759
0.151184
0.139301
0.12826
0.117823
0.108159
0.0990175
0.0905872
0.0826018
0.0752701
0.0683105
0.0619538
0.0559028
0.0504132
0.0451715
0.0404605
0.0359464
0.0319411
0.0280865
0.0247236
0.0214649
0.0186822
0.0159546
0.0136866
0.0114214
0.00959975
0.00772747
0.00628549
0.00474078
0.00361908
0.00234778
0.0015008
0.000463712
-0.000139289
-0.000965892
-0.00134169
-0.00197143
-0.00213391
-0.00258473
-0.00255931
-0.00285732
-0.0026725
-0.00283233
-0.00249419
-0.00245494
-0.0018984
-0.00168467
-0.00103958
-0.000935566
0.00136496
13.8121
13.8115
13.8102
13.808
13.8051
13.8015
13.7971
13.7921
13.7863
13.7798
13.7726
13.7647
13.7561
13.7467
13.7366
13.7257
13.7141
13.7016
13.6884
13.6745
13.6596
13.644
13.6275
13.6101
13.5918
13.5725
13.5522
13.531
13.5086
13.4852
13.4606
13.4348
13.4077
13.3793
13.3496
13.3184
13.2857
13.2514
13.2154
13.1777
13.1381
13.0966
13.0531
13.0075
12.9596
12.9094
12.8567
12.8014
12.7434
12.6825
12.6186
12.5515
12.4812
12.4074
12.3299
12.2486
12.1633
12.0737
11.9798
11.8812
11.7778
11.6694
11.5556
11.4363
11.3113
11.1803
11.043
10.8994
10.749
10.5918
10.4275
10.2561
10.0773
9.89122
9.69775
9.49699
9.28905
9.07417
8.85262
8.62484
8.39129
8.1526
7.90941
7.66251
7.41269
7.16085
6.90785
6.65462
6.40204
6.151
5.90229
5.65672
5.41498
5.17775
4.94555
4.71894
4.4983
4.284
4.07631
3.87547
3.6816
3.49484
3.31522
3.14277
2.97744
2.81918
2.66786
2.52339
2.38558
2.25429
2.12928
2.01041
1.89741
1.79011
1.68826
1.59166
1.50007
1.41329
1.33108
1.25325
1.17956
1.10984
1.04386
0.981467
0.922433
0.866636
0.813855
0.763992
0.716837
0.672312
0.630219
0.5905
0.552963
0.517571
0.484134
0.452631
0.422875
0.394861
0.368401
0.34351
0.320002
0.297912
0.277053
0.257484
0.239014
0.221722
0.205411
0.190173
0.175799
0.162399
0.14975
0.137979
0.126856
0.116528
0.106756
0.0977102
0.0891443
0.0812491
0.0737654
0.0669037
0.0603899
0.0544536
0.0488048
0.0436942
0.0388154
0.0344439
0.0302545
0.0265509
0.0229856
0.0198923
0.0168957
0.0143611
0.0118794
0.00984877
0.00782176
0.00623215
0.00459158
0.00337368
0.00204778
0.00113343
5.77279e-05
-0.000608393
-0.00148155
-0.00193592
-0.00263359
-0.00289311
-0.00342642
-0.00349957
-0.00387858
-0.00378086
-0.00401976
-0.00376722
-0.00386741
-0.00345383
-0.00334121
-0.00268921
-0.00237539
-0.0016021
-0.00133202
0.00122054
13.8267
13.8261
13.8248
13.8226
13.8197
13.8161
13.8118
13.8068
13.8011
13.7947
13.7876
13.7798
13.7713
13.7621
13.7522
13.7415
13.7302
13.718
13.7052
13.6916
13.6772
13.662
13.646
13.6292
13.6115
13.5929
13.5733
13.5528
13.5313
13.5088
13.4851
13.4604
13.4344
13.4071
13.3786
13.3486
13.3172
13.2843
13.2498
13.2137
13.1757
13.1359
13.0941
13.0503
13.0043
12.956
12.9053
12.8521
12.7962
12.7375
12.6759
12.6111
12.5431
12.4717
12.3967
12.3178
12.235
12.1479
12.0564
11.9603
11.8592
11.753
11.6413
11.524
11.4006
11.271
11.1349
10.9918
10.8416
10.684
10.5187
10.3455
10.1642
9.97457
9.7766
9.57029
9.3557
9.13304
8.90261
8.66486
8.42035
8.1698
7.91402
7.65397
7.39064
7.12514
6.85856
6.59204
6.32665
6.06346
5.80341
5.54741
5.29625
5.05065
4.8112
4.57844
4.35274
4.13448
3.92386
3.72107
3.52616
3.33921
3.16016
2.98897
2.8255
2.66964
2.5212
2.38001
2.24583
2.11846
1.99761
1.88308
1.77457
1.67184
1.5746
1.48262
1.39562
1.31338
1.23562
1.16216
1.09272
1.02713
0.965138
0.906603
0.851283
0.799057
0.749701
0.703117
0.659096
0.617559
0.57831
0.541292
0.506317
0.473351
0.442213
0.412889
0.385203
0.359157
0.334574
0.31147
0.289666
0.269193
0.249869
0.231745
0.214636
0.198621
0.183511
0.16941
0.156118
0.143757
0.132111
0.121311
0.111127
0.101701
0.0927904
0.0845579
0.0767532
0.0695625
0.0627297
0.056465
0.0505037
0.0450773
0.0399086
0.0352492
0.0308052
0.0268484
0.0230647
0.0197484
0.0165622
0.0138269
0.0111781
0.00896746
0.00679875
0.00505778
0.00331069
0.00198035
0.000591018
-0.000393639
-0.00149381
-0.00219869
-0.00307325
-0.00355242
-0.00424752
-0.00453361
-0.00507109
-0.00517309
-0.00555502
-0.00547065
-0.00569629
-0.00543004
-0.00550375
-0.00506389
-0.00498192
-0.00436018
-0.00404605
-0.00316822
-0.00264639
-0.00167204
-0.00126358
0.00134413
13.8441
13.8436
13.8422
13.84
13.8372
13.8336
13.8293
13.8244
13.8187
13.8124
13.8054
13.7977
13.7894
13.7803
13.7706
13.7602
13.7492
13.7374
13.7249
13.7117
13.6978
13.6832
13.6678
13.6516
13.6346
13.6168
13.5981
13.5785
13.558
13.5365
13.5139
13.4903
13.4656
13.4397
13.4126
13.3841
13.3543
13.3231
13.2903
13.256
13.22
13.1821
13.1424
13.1008
13.057
13.0111
12.9628
12.9121
12.8588
12.8028
12.7439
12.6821
12.617
12.5485
12.4765
12.4007
12.321
12.2371
12.1487
12.0557
11.9577
11.8544
11.7456
11.631
11.5101
11.3827
11.2483
11.1066
10.9572
10.7996
10.6336
10.4588
10.2748
10.0813
9.87819
9.6653
9.44262
9.21031
8.96864
8.71811
8.45937
8.19331
7.92094
7.64351
7.36232
7.0788
6.79437
6.51048
6.22846
5.94962
5.67511
5.40599
5.14314
4.88735
4.6392
4.39922
4.16777
3.94513
3.73146
3.52686
3.33131
3.14476
2.96705
2.79805
2.6375
2.4852
2.34085
2.20421
2.07495
1.9528
1.83742
1.72854
1.62579
1.52891
1.43754
1.35141
1.27021
1.19367
1.1215
1.05347
0.989298
0.9288
0.871712
0.817881
0.76707
0.719153
0.673916
0.63126
0.590989
0.553028
0.517191
0.483423
0.451542
0.421509
0.393151
0.366449
0.341237
0.31752
0.295135
0.274111
0.254284
0.235697
0.218176
0.201778
0.186317
0.171865
0.158231
0.145511
0.133511
0.12236
0.111853
0.102139
0.0929964
0.0845802
0.0766493
0.0693636
0.062467
0.0561326
0.0500999
0.0445645
0.0392677
0.0344331
0.0298014
0.0256235
0.0216311
0.018098
0.0147353
0.0118357
0.00908026
0.0067804
0.00458154
0.00281827
0.00109877
-0.000212142
-0.0015446
-0.00249619
-0.00353656
-0.0042187
-0.00505342
-0.00554118
-0.0062359
-0.00657803
-0.00716894
-0.00738254
-0.00787275
-0.00794268
-0.00830717
-0.00820006
-0.00840513
-0.00809203
-0.00811063
-0.00757372
-0.00738076
-0.00659934
-0.00611176
-0.00500667
-0.00423722
-0.00294937
-0.00212907
0.00104205
13.8645
13.8639
13.8625
13.8603
13.8575
13.8539
13.8496
13.8447
13.8391
13.8328
13.8259
13.8183
13.8101
13.8013
13.7918
13.7817
13.7709
13.7595
13.7475
13.7348
13.7214
13.7074
13.6927
13.6773
13.6611
13.6442
13.6265
13.608
13.5886
13.5684
13.5471
13.5249
13.5017
13.4774
13.4519
13.4252
13.3973
13.368
13.3373
13.305
13.2712
13.2358
13.1985
13.1594
13.1183
13.075
13.0296
12.9819
12.9316
12.8788
12.8232
12.7646
12.703
12.6381
12.5697
12.4976
12.4217
12.3416
12.2571
12.168
12.0739
11.9745
11.8695
11.7585
11.641
11.5168
11.3852
11.2458
11.0981
10.9415
10.7755
10.5996
10.4132
10.2159
10.0072
9.7869
9.55472
9.31075
9.0552
8.78858
8.51166
8.22554
7.93153
7.63129
7.32659
7.01939
6.7116
6.40514
6.10172
5.80299
5.51033
5.225
4.94797
4.68009
4.42193
4.17394
3.93638
3.70943
3.49308
3.28733
3.09199
2.90691
2.73179
2.56635
2.41021
2.26304
2.12442
1.99399
1.87132
1.75606
1.64777
1.54612
1.45068
1.36113
1.27706
1.19817
1.12408
1.05452
0.98912
0.927656
0.869815
0.815397
0.764133
0.715865
0.670358
0.62749
0.587052
0.548949
0.512993
0.479118
0.447153
0.417059
0.388672
0.361966
0.336778
0.31309
0.290739
0.269723
0.249884
0.231244
0.213651
0.197159
0.181616
0.167099
0.153446
0.140742
0.128801
0.117714
0.107276
0.0975997
0.0884755
0.0800505
0.0721117
0.0648308
0.0579804
0.0517372
0.04585
0.0404907
0.0353916
0.0307302
0.0262413
0.0221265
0.0181341
0.0145014
0.0109861
0.00786056
0.00487565
0.0023309
-5.16355e-05
-0.00195597
-0.00370685
-0.00497692
-0.00614574
-0.00687194
-0.00758896
-0.00793004
-0.00837332
-0.00850851
-0.00884793
-0.00891859
-0.00926357
-0.00933509
-0.00971577
-0.00977804
-0.0101589
-0.0101476
-0.0104508
-0.0102755
-0.0104121
-0.00999091
-0.00988805
-0.00916721
-0.0087808
-0.0077444
-0.00701013
-0.00562679
-0.00464362
-0.00314311
-0.00230222
0.00137189
13.8876
13.887
13.8857
13.8835
13.8805
13.8769
13.8727
13.8677
13.8621
13.8559
13.849
13.8415
13.8334
13.8247
13.8154
13.8056
13.7951
13.7841
13.7725
13.7603
13.7475
13.7342
13.7202
13.7056
13.6903
13.6744
13.6577
13.6404
13.6222
13.6033
13.5835
13.5629
13.5413
13.5188
13.4951
13.4705
13.4446
13.4175
13.3891
13.3593
13.3281
13.2953
13.2608
13.2246
13.1865
13.1465
13.1043
13.06
13.0133
12.9641
12.9123
12.8577
12.8001
12.7393
12.6753
12.6076
12.5362
12.4608
12.3811
12.2968
12.2076
12.1132
12.0131
11.9069
11.7942
11.6745
11.5471
11.4115
11.2669
11.1127
10.9482
10.7724
10.5846
10.384
10.1699
9.94169
9.69879
9.44102
9.16845
8.88156
8.58128
8.26905
7.94673
7.61659
7.28113
6.94303
6.60492
6.26939
5.93873
5.61503
5.29996
4.99499
4.70118
4.41937
4.15007
3.89364
3.65013
3.41951
3.20158
2.99607
2.8026
2.6208
2.45019
2.29033
2.14068
2.00075
1.86998
1.74788
1.6339
1.52758
1.42839
1.33591
1.24964
1.1692
1.09414
1.02409
0.958632
0.897456
0.840178
0.786524
0.736163
0.688876
0.644389
0.602548
0.563132
0.526038
0.491079
0.458176
0.427153
0.397946
0.370392
0.344449
0.319974
0.296953
0.27525
0.254865
0.235658
0.217632
0.20064
0.184696
0.169649
0.155535
0.142205
0.129736
0.117991
0.107084
0.0968693
0.0874709
0.0786975
0.0706651
0.0631431
0.0562588
0.0497731
0.0438475
0.0382482
0.0331651
0.0283577
0.0240178
0.0198853
0.016142
0.0125184
0.00920142
0.00593437
0.00293177
-3.99541e-05
-0.00272491
-0.00534186
-0.00759211
-0.00970537
-0.0113547
-0.0128147
-0.0137469
-0.0144952
-0.0147232
-0.0148559
-0.0145602
-0.0143305
-0.0138147
-0.0135481
-0.0131212
-0.0130812
-0.0129245
-0.0132082
-0.0133166
-0.01384
-0.0140477
-0.0146011
-0.0146605
-0.0149956
-0.0146674
-0.0145744
-0.0136925
-0.0130478
-0.0115651
-0.0103188
-0.00827487
-0.00663187
-0.00437577
-0.00307813
0.00186084
13.9137
13.9131
13.9117
13.9094
13.9064
13.9027
13.8984
13.8933
13.8877
13.8814
13.8745
13.8671
13.8591
13.8506
13.8415
13.8319
13.8218
13.8112
13.8001
13.7886
13.7765
13.7639
13.7507
13.7371
13.7228
13.708
13.6926
13.6766
13.6599
13.6425
13.6244
13.6055
13.5858
13.5652
13.5437
13.5212
13.4977
13.4731
13.4472
13.4202
13.3918
13.3619
13.3306
13.2976
13.2629
13.2264
13.1879
13.1473
13.1046
13.0595
13.0119
12.9618
12.9088
12.8528
12.7936
12.7311
12.665
12.595
12.5209
12.4424
12.3592
12.2709
12.177
12.0771
11.9707
11.8572
11.7359
11.606
11.4667
11.3171
11.1561
10.9826
10.7954
10.5932
10.3749
10.1391
9.88499
9.61171
9.31889
9.00674
8.67617
8.32903
7.96811
7.59704
7.21983
6.8405
6.46273
6.08993
5.72508
5.37081
5.02913
4.7016
4.38923
4.09271
3.81234
3.54821
3.3001
3.06768
2.8504
2.64767
2.45881
2.28313
2.11991
1.96848
1.82808
1.69808
1.57776
1.46648
1.36358
1.26847
1.18053
1.09925
1.02407
0.954536
0.890143
0.830491
0.775125
0.723687
0.675766
0.631056
0.589205
0.549977
0.513095
0.478405
0.445709
0.414923
0.385896
0.358588
0.332864
0.308693
0.285934
0.264548
0.244388
0.225433
0.207552
0.190752
0.174915
0.160062
0.146073
0.132979
0.120653
0.109137
0.0982875
0.0881556
0.0785904
0.0696896
0.0613222
0.0536505
0.0465329
0.0401407
0.0342681
0.0290605
0.0242542
0.0199875
0.0159764
0.0123798
0.00892318
0.00579452
0.0027372
-4.54246e-05
-0.00280027
-0.00532515
-0.00785696
-0.0101871
-0.0125301
-0.0146494
-0.0167359
-0.0185109
-0.0201629
-0.0213743
-0.0223692
-0.0228061
-0.0229858
-0.0225702
-0.0219664
-0.0208545
-0.0197352
-0.0182953
-0.0170946
-0.0157975
-0.0149792
-0.0142257
-0.0140933
-0.0140333
-0.0145883
-0.0150425
-0.0159819
-0.0165296
-0.0173832
-0.0175407
-0.0178708
-0.0172801
-0.0168388
-0.0153991
-0.0141893
-0.0120509
-0.0103092
-0.00772225
-0.00556855
0.000476492
13.9428
13.9421
13.9406
13.9383
13.9351
13.9313
13.9267
13.9215
13.9157
13.9093
13.9023
13.8948
13.8867
13.8782
13.8692
13.8598
13.8499
13.8396
13.8289
13.8178
13.8063
13.7944
13.782
13.7693
13.7561
13.7424
13.7283
13.7136
13.6984
13.6827
13.6663
13.6493
13.6317
13.6133
13.5941
13.5741
13.5532
13.5313
13.5084
13.4844
13.4592
13.4327
13.4048
13.3755
13.3446
13.3121
13.2777
13.2415
13.2032
13.1628
13.1201
13.0749
13.0271
12.9765
12.923
12.8664
12.8063
12.7427
12.6752
12.6036
12.5275
12.4466
12.3604
12.2686
12.1704
12.0652
11.9524
11.831
11.6999
11.5581
11.404
11.2363
11.053
10.8524
10.6324
10.3909
10.126
9.83617
9.52024
9.17799
8.81013
8.41861
8.00689
7.58033
7.14562
6.70961
6.27816
5.85616
5.44756
5.05556
4.68238
4.32942
3.99736
3.68637
3.39616
3.12624
2.87586
2.64421
2.43033
2.23324
2.05189
1.8853
1.73242
1.59232
1.46406
1.34678
1.23963
1.14182
1.05257
0.97118
0.896935
0.829227
0.767424
0.711
0.659401
0.61217
0.568807
0.528904
0.492004
0.457753
0.425762
0.395774
0.367531
0.340924
0.315819
0.292168
0.269846
0.24882
0.228992
0.210372
0.192875
0.176501
0.161135
0.146752
0.133219
0.120513
0.10852
0.0972453
0.0865906
0.0765837
0.0671351
0.0583096
0.0500281
0.0423753
0.0352292
0.0286605
0.0225056
0.0168892
0.011668
0.00705077
0.0028774
-0.00063079
-0.00370828
-0.00617506
-0.00834808
-0.010106
-0.0118138
-0.0133641
-0.0150801
-0.0168011
-0.0187602
-0.0207453
-0.0229246
-0.0250634
-0.0272878
-0.0293361
-0.0313056
-0.0329137
-0.0342815
-0.0351112
-0.0355679
-0.0353357
-0.034673
-0.033303
-0.0316244
-0.0294213
-0.027209
-0.0247947
-0.0227224
-0.0207466
-0.019391
-0.01833
-0.0180477
-0.0180537
-0.0188047
-0.0195852
-0.0208872
-0.0217733
-0.0228772
-0.0230684
-0.0231988
-0.0220559
-0.020822
-0.0183226
-0.0160224
-0.0128368
-0.0103728
-0.00773578
-0.00478312
-0.00214463
13.975
13.9743
13.9727
13.9701
13.9667
13.9626
13.9577
13.9523
13.9462
13.9396
13.9325
13.925
13.917
13.9086
13.8998
13.8907
13.8812
13.8714
13.8613
13.8509
13.8401
13.8291
13.8177
13.806
13.794
13.7816
13.7689
13.7557
13.7422
13.7282
13.7138
13.6988
13.6833
13.6672
13.6505
13.6331
13.6149
13.5959
13.5761
13.5553
13.5334
13.5105
13.4863
13.4609
13.4341
13.4058
13.3758
13.3442
13.3107
13.2753
13.2377
13.198
13.1558
13.1112
13.0638
13.0136
12.9603
12.9037
12.8437
12.7799
12.7121
12.6399
12.5629
12.4808
12.3929
12.2985
12.197
12.0874
11.9684
11.8387
11.6967
11.5402
11.3668
11.1737
10.9577
10.715
10.4416
10.1338
9.78851
9.40428
8.9825
8.5279
8.0472
7.54842
7.04053
6.53252
6.03242
5.54738
5.08315
4.64379
4.23164
3.84785
3.49257
3.16531
2.86495
2.5901
2.33919
2.11066
1.90294
1.71456
1.54402
1.38995
1.251
1.12594
1.01356
0.912794
0.822599
0.742053
0.670223
0.6063
0.549459
0.498997
0.454196
0.414454
0.379147
0.347751
0.319701
0.294512
0.271657
0.250681
0.231104
0.212565
0.194785
0.177761
0.161538
0.146207
0.131732
0.118123
0.105308
0.0933013
0.0820399
0.0715611
0.0618093
0.0527982
0.0444264
0.0366514
0.0293469
0.0224718
0.0159373
0.00973838
0.00380548
-0.00183701
-0.00722916
-0.0122511
-0.0168983
-0.0210142
-0.0246896
-0.0278192
-0.0305861
-0.032825
-0.0347093
-0.0359851
-0.0368613
-0.0370803
-0.036942
-0.0362942
-0.0355591
-0.0347021
-0.0341687
-0.0339415
-0.0343494
-0.0352851
-0.036894
-0.0389527
-0.0414467
-0.0440327
-0.0465835
-0.0487056
-0.0503346
-0.0511141
-0.0510951
-0.0499389
-0.0478744
-0.0446555
-0.0407273
-0.0360022
-0.0311442
-0.0262444
-0.0220508
-0.0186268
-0.0164806
-0.015485
-0.0158973
-0.0173017
-0.0197839
-0.0226096
-0.0258268
-0.0284916
-0.0310828
-0.0325049
-0.0334674
-0.0326048
-0.0312024
-0.0279846
-0.0244677
-0.0191749
-0.0136781
-0.00797819
-0.000964885
-0.00321917
14.0107
14.0099
14.008
14.0051
14.0012
13.9966
13.9912
13.9851
13.9784
13.9712
13.9635
13.9554
13.9469
13.9382
13.9291
13.9198
13.9104
13.9007
13.8908
13.8808
13.8706
13.8603
13.8498
13.8391
13.8282
13.8172
13.806
13.7945
13.7828
13.7708
13.7585
13.7459
13.7328
13.7194
13.7055
13.6911
13.6761
13.6604
13.6441
13.627
13.609
13.5901
13.5702
13.5492
13.5269
13.5034
13.4784
13.4519
13.4238
13.3939
13.3621
13.3284
13.2924
13.2542
13.2136
13.1705
13.1246
13.0759
13.0241
12.969
12.9105
12.8483
12.782
12.7114
12.6359
12.555
12.4679
12.3739
12.2716
12.1598
12.0364
11.8992
11.745
11.5704
11.3706
11.1401
10.8722
10.5589
10.1912
9.76007
9.25999
8.69608
8.08802
7.46188
6.83723
6.22404
5.62916
5.06074
4.52614
4.02966
3.57271
3.15525
2.7763
2.43432
2.12715
1.85241
1.60757
1.39015
1.19775
1.02816
0.879212
0.748933
0.635403
0.536893
0.451753
0.378537
0.315876
0.262589
0.217546
0.179781
0.148361
0.1225
0.101432
0.0845159
0.0711079
0.0606513
0.0525467
0.0462333
0.0410776
0.0364776
0.0318363
0.026712
0.0209282
0.0147516
0.00847075
0.00227604
-0.00375991
-0.00950223
-0.0149039
-0.0199113
-0.0245757
-0.0288676
-0.0328206
-0.0363845
-0.0396108
-0.0425033
-0.045167
-0.0476639
-0.0501056
-0.0525273
-0.0549671
-0.0574281
-0.0599464
-0.0624812
-0.0649826
-0.0672377
-0.0691422
-0.0704703
-0.0713061
-0.0715083
-0.0712501
-0.0703117
-0.0689168
-0.0668219
-0.0643699
-0.0614223
-0.0584454
-0.055386
-0.0527481
-0.0505737
-0.0493134
-0.0490325
-0.0499792
-0.0520711
-0.0552136
-0.059058
-0.0632137
-0.0671436
-0.0703985
-0.0724034
-0.072894
-0.0714576
-0.0682245
-0.0629959
-0.056305
-0.048197
-0.0395555
-0.0306817
-0.0226373
-0.0160586
-0.0118071
-0.0100522
-0.0109942
-0.0142802
-0.0195469
-0.0257354
-0.032254
-0.0375849
-0.0417777
-0.0438139
-0.0445273
-0.0430594
-0.0408803
-0.0376324
-0.0356049
-0.0332283
-0.03052
-0.0255193
-0.0144419
-0.0094813
14.0502
14.0493
14.047
14.0436
14.0391
14.034
14.0281
14.0217
14.0147
14.0073
13.9995
13.9914
13.983
13.9744
13.9656
13.9566
13.9474
13.9382
13.9288
13.9194
13.9099
13.9003
13.8907
13.881
13.8713
13.8615
13.8516
13.8416
13.8316
13.8214
13.811
13.8005
13.7898
13.7789
13.7676
13.756
13.7441
13.7316
13.7187
13.7052
13.6911
13.6763
13.6606
13.644
13.6264
13.6077
13.5879
13.5667
13.544
13.5199
13.4941
13.4665
13.4371
13.4057
13.3721
13.3364
13.2983
13.2577
13.2147
13.1689
13.1204
13.0689
13.0144
12.9565
12.895
12.8296
12.7598
12.685
12.6041
12.5159
12.4186
12.3097
12.1857
12.042
11.8725
11.6692
11.4229
11.1227
10.7574
10.3111
9.76545
9.09132
8.29662
7.44673
6.60134
5.78665
5.01652
4.30451
3.65963
3.08456
2.57767
2.13524
1.75213
1.42249
1.14024
0.899643
0.695348
0.522676
0.377454
0.256139
0.155569
0.0730291
0.00603045
-0.0475666
-0.0897265
-0.122099
-0.146195
-0.16325
-0.174406
-0.180574
-0.182605
-0.181154
-0.176851
-0.170163
-0.161571
-0.151445
-0.140232
-0.128385
-0.116617
-0.105884
-0.0977157
-0.0932262
-0.0914911
-0.0909007
-0.0907323
-0.0908784
-0.0912828
-0.0917417
-0.092122
-0.0923298
-0.0923811
-0.092256
-0.0919864
-0.0915626
-0.0910406
-0.0904606
-0.0899
-0.0894184
-0.0890967
-0.0890128
-0.0892075
-0.0896961
-0.0904373
-0.0913969
-0.0925218
-0.093683
-0.0947094
-0.0953003
-0.0953607
-0.0946511
-0.0932564
-0.0909212
-0.0877666
-0.0835948
-0.0788378
-0.0735499
-0.0682593
-0.0630667
-0.05848
-0.0546774
-0.0521097
-0.050961
-0.0514849
-0.0537347
-0.0574995
-0.0625133
-0.0682645
-0.0743613
-0.0800097
-0.0844094
-0.0866906
-0.0862272
-0.082745
-0.0760145
-0.0664887
-0.0545569
-0.0413595
-0.0279761
-0.0154656
-0.00494918
0.00210987
0.00513822
0.00397438
-0.001551
-0.0102375
-0.0209218
-0.0326458
-0.0438144
-0.0531542
-0.057906
-0.0582096
-0.053995
-0.0468722
-0.0363893
-0.0263222
-0.0185097
-0.0168935
-0.0188768
-0.018406
-0.0110177
14.0945
14.0933
14.0904
14.0856
14.0794
14.0722
14.0642
14.0557
14.0467
14.0375
14.028
14.0186
14.0091
13.9996
13.9902
13.9809
13.9717
13.9626
13.9536
13.9448
13.9362
13.9276
13.9193
13.911
13.9029
13.8949
13.887
13.8791
13.8714
13.8637
13.8561
13.8484
13.8407
13.833
13.8252
13.8172
13.809
13.8006
13.7919
13.7828
13.7732
13.7631
13.7524
13.7409
13.7287
13.7155
13.7013
13.686
13.6694
13.6515
13.6322
13.6112
13.5886
13.5642
13.538
13.5098
13.4796
13.4474
13.4131
13.3767
13.3381
13.2976
13.2549
13.2102
13.1636
13.115
13.0644
13.0118
12.957
12.8994
12.8382
12.7716
12.6965
12.6077
12.4962
12.3475
12.1375
11.8344
11.3948
10.7865
9.99917
9.10184
8.09932
7.05107
5.99614
4.96583
4.01169
3.17528
2.46972
1.88937
1.42116
1.04897
0.755736
0.525231
0.343612
0.199748
0.0851447
-0.00659134
-0.0800709
-0.138704
-0.184942
-0.220738
-0.247592
-0.266844
-0.279566
-0.286778
-0.289283
-0.287876
-0.283152
-0.275719
-0.265995
-0.254433
-0.241308
-0.226949
-0.211522
-0.195264
-0.178257
-0.160673
-0.142675
-0.124788
-0.109683
-0.102667
-0.100708
-0.100097
-0.0998414
-0.0999858
-0.100401
-0.100837
-0.101148
-0.101267
-0.101171
-0.100837
-0.100273
-0.0994873
-0.0985309
-0.0974634
-0.0964008
-0.0954707
-0.0947601
-0.0943444
-0.0942816
-0.0946391
-0.0953692
-0.096414
-0.0976672
-0.099016
-0.100221
-0.101107
-0.101469
-0.101066
-0.0999096
-0.0978277
-0.0946332
-0.0901115
-0.084653
-0.0784947
-0.0722073
-0.0660123
-0.0604047
-0.0557348
-0.0525265
-0.0511674
-0.0519851
-0.0550338
-0.0599473
-0.0662412
-0.073286
-0.0807578
-0.087912
-0.0940019
-0.0979208
-0.098872
-0.0960445
-0.0890529
-0.0780729
-0.0636572
-0.0468066
-0.0292128
-0.013355
-0.000531884
0.0082737
0.0117917
0.00936575
0.00196744
-0.00926507
-0.0224828
-0.0357518
-0.0486515
-0.0616506
-0.0710254
-0.0749855
-0.0728387
-0.0681362
-0.0611433
-0.0476152
-0.027959
-0.010313
-0.00205898
-0.00107483
8.88408e-05
14.1446
14.1431
14.1397
14.1348
14.1287
14.1217
14.1139
14.1054
14.0962
14.0867
14.077
14.067
14.0571
14.0471
14.0371
14.0273
14.0177
14.0082
13.9989
13.9899
13.9812
13.9727
13.9646
13.9567
13.9491
13.9418
13.9348
13.9281
13.9217
13.9156
13.9097
13.904
13.8986
13.8933
13.8882
13.8831
13.8782
13.8732
13.8682
13.863
13.8577
13.852
13.846
13.8396
13.8325
13.8248
13.8164
13.807
13.7965
13.785
13.7722
13.758
13.7423
13.7251
13.7063
13.6858
13.6635
13.6396
13.614
13.5868
13.5583
13.5285
13.4978
13.4666
13.4353
13.4046
13.3752
13.3481
13.3245
13.3062
13.2951
13.2936
13.3041
13.3289
13.3675
13.4152
13.4464
13.4186
13.169
12.5532
10.9519
8.874
7.15214
5.87742
4.78946
3.8105
2.97258
2.28796
1.74088
1.30783
0.966288
0.696966
0.483536
0.313163
0.175963
0.0648655
-0.0253913
-0.0984926
-0.157314
-0.203932
-0.240157
-0.267377
-0.286935
-0.299882
-0.307273
-0.30991
-0.308614
-0.303972
-0.296606
-0.286925
-0.27539
-0.262271
-0.247911
-0.232477
-0.216233
-0.199288
-0.181862
-0.164089
-0.146289
-0.12897
-0.115664
-0.110708
-0.109458
-0.108707
-0.108004
-0.107501
-0.107145
-0.106797
-0.106384
-0.105841
-0.105139
-0.104232
-0.103123
-0.101824
-0.100409
-0.0989489
-0.0975304
-0.0962732
-0.095295
-0.0946942
-0.094558
-0.0949141
-0.095756
-0.0969608
-0.0985227
-0.100173
-0.101776
-0.102984
-0.103653
-0.103306
-0.102139
-0.0998662
-0.0964026
-0.0914883
-0.0853576
-0.078187
-0.0705936
-0.063034
-0.0561475
-0.0504123
-0.0463295
-0.0443232
-0.0448407
-0.0481422
-0.054106
-0.0619141
-0.0709914
-0.0802734
-0.0893096
-0.096631
-0.101958
-0.103683
-0.101674
-0.0943729
-0.0824224
-0.0655635
-0.0453889
-0.0231797
-0.00241309
0.0143151
0.0256117
0.0294711
0.0253359
0.0150365
-0.000639936
-0.0190287
-0.0363134
-0.05087
-0.0635945
-0.0701639
-0.0720732
-0.0685984
-0.0632656
-0.059661
-0.0581236
-0.0498993
-0.0399885
-0.0292531
-0.0186831
-0.00660752
14.2034
14.1996
14.1898
14.176
14.1618
14.1486
14.1358
14.1232
14.1108
14.0991
14.0879
14.0772
14.067
14.0572
14.0479
14.0391
14.0306
14.0226
14.015
14.0078
14.001
13.9946
13.9887
13.9831
13.978
13.9733
13.969
13.9652
13.9617
13.9587
13.9561
13.9538
13.952
13.9505
13.9493
13.9484
13.9478
13.9474
13.9471
13.9469
13.9467
13.9464
13.946
13.9452
13.9441
13.9425
13.9403
13.9373
13.9335
13.9287
13.9228
13.9157
13.9074
13.8977
13.8867
13.8743
13.8607
13.8457
13.8298
13.8129
13.7955
13.7779
13.7605
13.744
13.7291
13.7166
13.7077
13.7038
13.7067
13.7192
13.7452
13.7913
13.8677
13.9901
14.1806
14.4726
14.8992
15.5383
16.3381
17.5643
17.4497
13.1814
9.70082
7.3433
5.46404
4.02544
2.98131
2.22256
1.66956
1.26233
0.955842
0.718623
0.529322