/*--------------------------------*- C++ -*----------------------------------*\
  =========                 |
  \\      /  F ield         | OpenFOAM: The Open Source CFD Toolbox
   \\    /   O peration     | Website:  https://openfoam.org
    \\  /    A nd           | Version:  10
     \\/     M anipulation  |
\*---------------------------------------------------------------------------*/
FoamFile
{
    format      ascii;
    class       volVectorField;
    location    "23900";
    object      Ub;
}
// * * * * * * * * * * * * * * * * * * * * * * * * * * * * * * * * * * * * * //

dimensions      [0 1 -1 0 0 0 0];

internalField   nonuniform List<vector> 
6400
(
(-3.83601e-06 5.24568e-07 0)
(-3.3123e-05 5.02676e-06 0)
(-6.92344e-05 2.08148e-06 0)
(-8.08045e-05 1.26262e-07 0)
(-9.11842e-05 1.88107e-06 0)
(-0.000101028 4.1072e-08 0)
(-0.000100873 -1.36012e-07 0)
(-9.82031e-05 -4.59554e-07 0)
(-9.52224e-05 -1.91489e-07 0)
(-9.38559e-05 -1.25638e-07 0)
(-9.20827e-05 -2.69593e-07 0)
(-9.01556e-05 -1.5331e-07 0)
(-8.88531e-05 -1.39658e-07 0)
(-8.68948e-05 -2.84193e-07 0)
(-8.47491e-05 -1.75688e-07 0)
(-8.34361e-05 -1.13205e-07 0)
(-8.22593e-05 -1.46515e-07 0)
(-8.02826e-05 -2.74515e-07 0)
(-7.81043e-05 -1.86355e-07 0)
(-7.65738e-05 -1.41872e-07 0)
(-7.49457e-05 -2.05332e-07 0)
(-7.22486e-05 -3.58391e-07 0)
(-6.92366e-05 -2.68668e-07 0)
(-6.71717e-05 -1.65261e-07 0)
(-6.57348e-05 -1.40492e-07 0)
(-6.40728e-05 -2.10524e-07 0)
(-6.13146e-05 -3.62887e-07 0)
(-5.74218e-05 -4.40761e-07 0)
(-5.37143e-05 -3.24871e-07 0)
(-5.10674e-05 -2.24875e-07 0)
(-4.89206e-05 -2.22933e-07 0)
(-4.62078e-05 -3.39664e-07 0)
(-4.34085e-05 -5.33842e-07 0)
(-4.07493e-05 -6.93186e-07 0)
(-3.7298e-05 -8.96e-07 0)
(-3.28712e-05 -1.13928e-06 0)
(-2.73247e-05 -1.40803e-06 0)
(-2.06147e-05 -1.67137e-06 0)
(-1.28609e-05 -1.88542e-06 0)
(-4.37495e-06 -2.00615e-06 0)
(4.37495e-06 -2.00615e-06 0)
(1.28609e-05 -1.88542e-06 0)
(2.06147e-05 -1.67137e-06 0)
(2.73247e-05 -1.40803e-06 0)
(3.28712e-05 -1.13928e-06 0)
(3.7298e-05 -8.96e-07 0)
(4.07493e-05 -6.93186e-07 0)
(4.34085e-05 -5.33842e-07 0)
(4.62078e-05 -3.39664e-07 0)
(4.89206e-05 -2.22933e-07 0)
(5.10674e-05 -2.24875e-07 0)
(5.37143e-05 -3.24871e-07 0)
(5.74218e-05 -4.40761e-07 0)
(6.13146e-05 -3.62887e-07 0)
(6.40728e-05 -2.10524e-07 0)
(6.57348e-05 -1.40492e-07 0)
(6.71717e-05 -1.65261e-07 0)
(6.92366e-05 -2.68668e-07 0)
(7.22486e-05 -3.58391e-07 0)
(7.49457e-05 -2.05332e-07 0)
(7.65738e-05 -1.41872e-07 0)
(7.81043e-05 -1.86355e-07 0)
(8.02826e-05 -2.74515e-07 0)
(8.22593e-05 -1.46515e-07 0)
(8.34361e-05 -1.13205e-07 0)
(8.47491e-05 -1.75688e-07 0)
(8.68948e-05 -2.84193e-07 0)
(8.88531e-05 -1.39658e-07 0)
(9.01556e-05 -1.5331e-07 0)
(9.20827e-05 -2.69593e-07 0)
(9.38559e-05 -1.25638e-07 0)
(9.52224e-05 -1.91489e-07 0)
(9.82031e-05 -4.59554e-07 0)
(0.000100873 -1.36012e-07 0)
(0.000101028 4.1072e-08 0)
(9.11842e-05 1.88107e-06 0)
(8.08045e-05 1.26262e-07 0)
(6.92344e-05 2.08148e-06 0)
(3.3123e-05 5.02676e-06 0)
(3.83601e-06 5.24568e-07 0)
(-2.6107e-06 6.52101e-07 0)
(-3.07321e-05 1.54691e-05 0)
(-6.67373e-05 6.45111e-06 0)
(-7.76661e-05 3.43631e-07 0)
(-8.81928e-05 6.01623e-06 0)
(-9.84371e-05 1.22336e-07 0)
(-9.82007e-05 -3.52117e-07 0)
(-9.56681e-05 -1.39097e-06 0)
(-9.28009e-05 -5.38477e-07 0)
(-9.16491e-05 -3.41654e-07 0)
(-8.99815e-05 -8.10585e-07 0)
(-8.81265e-05 -4.39583e-07 0)
(-8.69608e-05 -3.97779e-07 0)
(-8.50687e-05 -8.63907e-07 0)
(-8.29626e-05 -5.18111e-07 0)
(-8.17407e-05 -3.25278e-07 0)
(-8.0658e-05 -4.29157e-07 0)
(-7.87206e-05 -8.38808e-07 0)
(-7.65713e-05 -5.56425e-07 0)
(-7.51231e-05 -4.175e-07 0)
(-7.35861e-05 -6.14426e-07 0)
(-7.09228e-05 -1.10187e-06 0)
(-6.79261e-05 -8.15654e-07 0)
(-6.59255e-05 -4.93709e-07 0)
(-6.45627e-05 -4.17254e-07 0)
(-6.29782e-05 -6.33835e-07 0)
(-6.02793e-05 -1.11061e-06 0)
(-5.64056e-05 -1.35638e-06 0)
(-5.27316e-05 -9.90141e-07 0)
(-5.01606e-05 -6.78816e-07 0)
(-4.81016e-05 -6.72188e-07 0)
(-4.54966e-05 -1.03021e-06 0)
(-4.27988e-05 -1.62581e-06 0)
(-4.02257e-05 -2.11557e-06 0)
(-3.68741e-05 -2.7407e-06 0)
(-3.25546e-05 -3.49327e-06 0)
(-2.71125e-05 -4.32798e-06 0)
(-2.04909e-05 -5.14912e-06 0)
(-1.28013e-05 -5.81855e-06 0)
(-4.35795e-06 -6.19676e-06 0)
(4.35795e-06 -6.19676e-06 0)
(1.28013e-05 -5.81855e-06 0)
(2.04909e-05 -5.14912e-06 0)
(2.71125e-05 -4.32798e-06 0)
(3.25546e-05 -3.49327e-06 0)
(3.68741e-05 -2.7407e-06 0)
(4.02257e-05 -2.11557e-06 0)
(4.27988e-05 -1.62581e-06 0)
(4.54966e-05 -1.03021e-06 0)
(4.81016e-05 -6.72188e-07 0)
(5.01606e-05 -6.78816e-07 0)
(5.27316e-05 -9.90141e-07 0)
(5.64056e-05 -1.35638e-06 0)
(6.02793e-05 -1.11061e-06 0)
(6.29782e-05 -6.33835e-07 0)
(6.45627e-05 -4.17254e-07 0)
(6.59255e-05 -4.93709e-07 0)
(6.79261e-05 -8.15654e-07 0)
(7.09228e-05 -1.10187e-06 0)
(7.35861e-05 -6.14426e-07 0)
(7.51231e-05 -4.175e-07 0)
(7.65713e-05 -5.56425e-07 0)
(7.87206e-05 -8.38808e-07 0)
(8.0658e-05 -4.29157e-07 0)
(8.17407e-05 -3.25278e-07 0)
(8.29626e-05 -5.18111e-07 0)
(8.50687e-05 -8.63907e-07 0)
(8.69608e-05 -3.97779e-07 0)
(8.81265e-05 -4.39583e-07 0)
(8.99815e-05 -8.10585e-07 0)
(9.16491e-05 -3.41654e-07 0)
(9.28009e-05 -5.38477e-07 0)
(9.56681e-05 -1.39097e-06 0)
(9.82007e-05 -3.52117e-07 0)
(9.84371e-05 1.22336e-07 0)
(8.81928e-05 6.01623e-06 0)
(7.76661e-05 3.43631e-07 0)
(6.67373e-05 6.45111e-06 0)
(3.07321e-05 1.54691e-05 0)
(2.6107e-06 6.52101e-07 0)
(-2.60502e-12 -4.94266e-16 0)
(-1.65302e-05 1.03693e-05 0)
(-5.11762e-05 4.32702e-06 0)
(-7.05169e-05 1.88142e-07 0)
(-8.41313e-05 1.10911e-05 0)
(-9.62331e-05 -9.58912e-09 0)
(-9.58705e-05 -5.19493e-07 0)
(-9.35133e-05 -2.47388e-06 0)
(-9.07062e-05 -8.65798e-07 0)
(-8.9921e-05 -5.3261e-07 0)
(-8.83487e-05 -1.43507e-06 0)
(-8.65149e-05 -7.28694e-07 0)
(-8.55592e-05 -6.48161e-07 0)
(-8.36936e-05 -1.53293e-06 0)
(-8.15523e-05 -8.79969e-07 0)
(-8.04525e-05 -5.39479e-07 0)
(-7.95089e-05 -7.19256e-07 0)
(-7.75612e-05 -1.48692e-06 0)
(-7.53754e-05 -9.50138e-07 0)
(-7.40422e-05 -6.9923e-07 0)
(-7.26425e-05 -1.04277e-06 0)
(-6.99529e-05 -1.9489e-06 0)
(-6.68805e-05 -1.41087e-06 0)
(-6.49518e-05 -8.38046e-07 0)
(-6.3702e-05 -7.0337e-07 0)
(-6.22346e-05 -1.08006e-06 0)
(-5.95839e-05 -1.93387e-06 0)
(-5.56334e-05 -2.38178e-06 0)
(-5.19247e-05 -1.7092e-06 0)
(-4.94492e-05 -1.15627e-06 0)
(-4.75263e-05 -1.14152e-06 0)
(-4.50886e-05 -1.75489e-06 0)
(-4.25444e-05 -2.77587e-06 0)
(-4.00971e-05 -3.61942e-06 0)
(-3.6883e-05 -4.70312e-06 0)
(-3.2695e-05 -6.01836e-06 0)
(-2.73489e-05 -7.4907e-06 0)
(-2.07554e-05 -8.95219e-06 0)
(-1.30083e-05 -1.01517e-05 0)
(-4.43616e-06 -1.08318e-05 0)
(4.43616e-06 -1.08318e-05 0)
(1.30083e-05 -1.01517e-05 0)
(2.07554e-05 -8.95219e-06 0)
(2.73489e-05 -7.4907e-06 0)
(3.2695e-05 -6.01836e-06 0)
(3.6883e-05 -4.70312e-06 0)
(4.00971e-05 -3.61942e-06 0)
(4.25444e-05 -2.77587e-06 0)
(4.50886e-05 -1.75489e-06 0)
(4.75263e-05 -1.14152e-06 0)
(4.94492e-05 -1.15627e-06 0)
(5.19247e-05 -1.7092e-06 0)
(5.56334e-05 -2.38178e-06 0)
(5.95839e-05 -1.93387e-06 0)
(6.22346e-05 -1.08006e-06 0)
(6.3702e-05 -7.0337e-07 0)
(6.49518e-05 -8.38046e-07 0)
(6.68805e-05 -1.41087e-06 0)
(6.99529e-05 -1.9489e-06 0)
(7.26425e-05 -1.04277e-06 0)
(7.40422e-05 -6.9923e-07 0)
(7.53754e-05 -9.50138e-07 0)
(7.75612e-05 -1.48692e-06 0)
(7.95089e-05 -7.19256e-07 0)
(8.04525e-05 -5.39479e-07 0)
(8.15523e-05 -8.79969e-07 0)
(8.36936e-05 -1.53293e-06 0)
(8.55592e-05 -6.48161e-07 0)
(8.65149e-05 -7.28694e-07 0)
(8.83487e-05 -1.43507e-06 0)
(8.9921e-05 -5.3261e-07 0)
(9.07062e-05 -8.65798e-07 0)
(9.35133e-05 -2.47388e-06 0)
(9.58705e-05 -5.19493e-07 0)
(9.62331e-05 -9.58912e-09 0)
(8.41313e-05 1.10911e-05 0)
(7.05169e-05 1.88142e-07 0)
(5.11762e-05 4.32702e-06 0)
(1.65302e-05 1.03693e-05 0)
(2.60502e-12 -4.94266e-16 0)
(-9.19117e-20 -9.87765e-16 0)
(-3.2022e-20 -9.87377e-16 0)
(1.44598e-19 -8.43782e-16 0)
(-1.46546e-08 -6.64085e-16 0)
(-4.15382e-05 6.97785e-06 0)
(-8.5923e-05 -7.34846e-08 0)
(-9.07107e-05 -2.90264e-07 0)
(-9.04023e-05 -3.74347e-06 0)
(-8.81352e-05 -1.0764e-06 0)
(-8.81683e-05 -6.25244e-07 0)
(-8.67765e-05 -2.19073e-06 0)
(-8.49484e-05 -9.85371e-07 0)
(-8.43603e-05 -8.45566e-07 0)
(-8.24942e-05 -2.34707e-06 0)
(-8.02342e-05 -1.24462e-06 0)
(-7.93224e-05 -7.32834e-07 0)
(-7.86001e-05 -9.91243e-07 0)
(-7.65864e-05 -2.26915e-06 0)
(-7.42846e-05 -1.35507e-06 0)
(-7.31274e-05 -9.63856e-07 0)
(-7.19465e-05 -1.46846e-06 0)
(-6.91607e-05 -2.95778e-06 0)
(-6.58989e-05 -2.05644e-06 0)
(-6.40691e-05 -1.182e-06 0)
(-6.2992e-05 -9.79904e-07 0)
(-6.17057e-05 -1.53239e-06 0)
(-5.91043e-05 -2.85165e-06 0)
(-5.49603e-05 -3.5649e-06 0)
(-5.11388e-05 -2.48068e-06 0)
(-4.88007e-05 -1.63938e-06 0)
(-4.7085e-05 -1.6104e-06 0)
(-4.48986e-05 -2.48969e-06 0)
(-4.25838e-05 -3.95323e-06 0)
(-4.03252e-05 -5.1722e-06 0)
(-3.73153e-05 -6.75562e-06 0)
(-3.33148e-05 -8.70473e-06 0)
(-2.80845e-05 -1.09225e-05 0)
(-2.14712e-05 -1.31595e-05 0)
(-1.35339e-05 -1.50173e-05 0)
(-4.62959e-06 -1.60767e-05 0)
(4.62959e-06 -1.60767e-05 0)
(1.35339e-05 -1.50173e-05 0)
(2.14712e-05 -1.31595e-05 0)
(2.80845e-05 -1.09225e-05 0)
(3.33148e-05 -8.70473e-06 0)
(3.73153e-05 -6.75562e-06 0)
(4.03252e-05 -5.1722e-06 0)
(4.25838e-05 -3.95323e-06 0)
(4.48986e-05 -2.48969e-06 0)
(4.7085e-05 -1.6104e-06 0)
(4.88007e-05 -1.63938e-06 0)
(5.11388e-05 -2.48068e-06 0)
(5.49603e-05 -3.5649e-06 0)
(5.91043e-05 -2.85165e-06 0)
(6.17057e-05 -1.53239e-06 0)
(6.2992e-05 -9.79904e-07 0)
(6.40691e-05 -1.182e-06 0)
(6.58989e-05 -2.05644e-06 0)
(6.91607e-05 -2.95778e-06 0)
(7.19465e-05 -1.46846e-06 0)
(7.31274e-05 -9.63856e-07 0)
(7.42846e-05 -1.35507e-06 0)
(7.65864e-05 -2.26915e-06 0)
(7.86001e-05 -9.91243e-07 0)
(7.93224e-05 -7.32834e-07 0)
(8.02342e-05 -1.24462e-06 0)
(8.24942e-05 -2.34707e-06 0)
(8.43603e-05 -8.45566e-07 0)
(8.49484e-05 -9.85371e-07 0)
(8.67765e-05 -2.19073e-06 0)
(8.81683e-05 -6.25244e-07 0)
(8.81352e-05 -1.0764e-06 0)
(9.04023e-05 -3.74347e-06 0)
(9.07107e-05 -2.90264e-07 0)
(8.5923e-05 -7.34846e-08 0)
(4.15382e-05 6.97785e-06 0)
(1.46546e-08 -6.64085e-16 0)
(-1.44598e-19 -8.43782e-16 0)
(3.2022e-20 -9.87377e-16 0)
(9.19117e-20 -9.87765e-16 0)
(-5.67265e-20 -9.87724e-16 0)
(-1.38832e-20 -9.8752e-16 0)
(1.03276e-19 -9.87617e-16 0)
(6.45811e-21 -9.87751e-16 0)
(1.34701e-19 -9.85502e-16 0)
(2.18362e-19 -7.69164e-16 0)
(-2.00596e-05 -1.17042e-09 0)
(-5.82361e-05 -2.2131e-06 0)
(-7.95695e-05 -5.68043e-07 0)
(-8.43651e-05 -3.30905e-07 0)
(-8.44182e-05 -3.12555e-06 0)
(-8.29188e-05 -1.13244e-06 0)
(-8.3111e-05 -9.04003e-07 0)
(-8.12739e-05 -3.41125e-06 0)
(-7.88064e-05 -1.58067e-06 0)
(-7.82162e-05 -8.7422e-07 0)
(-7.78624e-05 -1.20048e-06 0)
(-7.57083e-05 -3.28164e-06 0)
(-7.31745e-05 -1.74942e-06 0)
(-7.22974e-05 -1.17887e-06 0)
(-7.14719e-05 -1.85145e-06 0)
(-6.8491e-05 -4.23514e-06 0)
(-6.48728e-05 -2.75273e-06 0)
(-6.31973e-05 -1.50225e-06 0)
(-6.23772e-05 -1.22121e-06 0)
(-6.13671e-05 -1.96349e-06 0)
(-5.88298e-05 -3.89385e-06 0)
(-5.43254e-05 -4.98746e-06 0)
(-5.02853e-05 -3.29894e-06 0)
(-4.81555e-05 -2.10145e-06 0)
(-4.67427e-05 -2.05013e-06 0)
(-4.49134e-05 -3.20001e-06 0)
(-4.2926e-05 -5.10823e-06 0)
(-4.09444e-05 -6.71668e-06 0)
(-3.82408e-05 -8.84174e-06 0)
(-3.45263e-05 -1.15161e-05 0)
(-2.94689e-05 -1.46397e-05 0)
(-2.27978e-05 -1.78735e-05 0)
(-1.45014e-05 -2.06095e-05 0)
(-4.98445e-06 -2.21822e-05 0)
(4.98445e-06 -2.21822e-05 0)
(1.45014e-05 -2.06095e-05 0)
(2.27978e-05 -1.78735e-05 0)
(2.94689e-05 -1.46397e-05 0)
(3.45263e-05 -1.15161e-05 0)
(3.82408e-05 -8.84174e-06 0)
(4.09444e-05 -6.71668e-06 0)
(4.2926e-05 -5.10823e-06 0)
(4.49134e-05 -3.20001e-06 0)
(4.67427e-05 -2.05013e-06 0)
(4.81555e-05 -2.10145e-06 0)
(5.02853e-05 -3.29894e-06 0)
(5.43254e-05 -4.98746e-06 0)
(5.88298e-05 -3.89385e-06 0)
(6.13671e-05 -1.96349e-06 0)
(6.23772e-05 -1.22121e-06 0)
(6.31973e-05 -1.50225e-06 0)
(6.48728e-05 -2.75273e-06 0)
(6.8491e-05 -4.23514e-06 0)
(7.14719e-05 -1.85145e-06 0)
(7.22974e-05 -1.17887e-06 0)
(7.31745e-05 -1.74942e-06 0)
(7.57083e-05 -3.28164e-06 0)
(7.78624e-05 -1.20048e-06 0)
(7.82162e-05 -8.7422e-07 0)
(7.88064e-05 -1.58067e-06 0)
(8.12739e-05 -3.41125e-06 0)
(8.3111e-05 -9.04003e-07 0)
(8.29188e-05 -1.13244e-06 0)
(8.44182e-05 -3.12555e-06 0)
(8.43651e-05 -3.30905e-07 0)
(7.95695e-05 -5.68043e-07 0)
(5.82361e-05 -2.2131e-06 0)
(2.00596e-05 -1.17042e-09 0)
(-2.18362e-19 -7.69164e-16 0)
(-1.34701e-19 -9.85502e-16 0)
(-6.45811e-21 -9.87751e-16 0)
(-1.03276e-19 -9.87617e-16 0)
(1.38832e-20 -9.8752e-16 0)
(5.67265e-20 -9.87724e-16 0)
(-3.23159e-20 -9.87697e-16 0)
(-7.31269e-22 -9.87569e-16 0)
(7.73685e-20 -9.87626e-16 0)
(3.53357e-20 -9.87699e-16 0)
(1.25308e-19 -9.87482e-16 0)
(1.96348e-19 -9.87754e-16 0)
(1.69904e-19 -9.8763e-16 0)
(1.91098e-19 -8.64973e-16 0)
(-1.7707e-11 -6.96081e-16 0)
(-2.51548e-05 -1.30624e-08 0)
(-6.13756e-05 -1.82071e-06 0)
(-7.52073e-05 -5.82105e-07 0)
(-7.97773e-05 -4.41983e-07 0)
(-7.91995e-05 -4.8582e-06 0)
(-7.67706e-05 -1.78958e-06 0)
(-7.68782e-05 -9.04616e-07 0)
(-7.72097e-05 -1.24619e-06 0)
(-7.48293e-05 -4.70409e-06 0)
(-7.18907e-05 -2.07862e-06 0)
(-7.14826e-05 -1.29167e-06 0)
(-7.12535e-05 -2.10335e-06 0)
(-6.79254e-05 -5.97851e-06 0)
(-6.36853e-05 -3.48367e-06 0)
(-6.22759e-05 -1.75857e-06 0)
(-6.18298e-05 -1.38779e-06 0)
(-6.12394e-05 -2.32069e-06 0)
(-5.88074e-05 -5.10256e-06 0)
(-5.36835e-05 -6.79064e-06 0)
(-4.92682e-05 -4.14142e-06 0)
(-4.74691e-05 -2.49765e-06 0)
(-4.64853e-05 -2.41782e-06 0)
(-4.51384e-05 -3.8353e-06 0)
(-4.35977e-05 -6.16136e-06 0)
(-4.20143e-05 -8.15418e-06 0)
(-3.97714e-05 -1.08515e-05 0)
(-3.65137e-05 -1.43595e-05 0)
(-3.176e-05 -1.86246e-05 0)
(-2.50211e-05 -2.32262e-05 0)
(-1.61354e-05 -2.7229e-05 0)
(-5.58526e-06 -2.95512e-05 0)
(5.58526e-06 -2.95512e-05 0)
(1.61354e-05 -2.7229e-05 0)
(2.50211e-05 -2.32262e-05 0)
(3.176e-05 -1.86246e-05 0)
(3.65137e-05 -1.43595e-05 0)
(3.97714e-05 -1.08515e-05 0)
(4.20143e-05 -8.15418e-06 0)
(4.35977e-05 -6.16136e-06 0)
(4.51384e-05 -3.8353e-06 0)
(4.64853e-05 -2.41782e-06 0)
(4.74691e-05 -2.49765e-06 0)
(4.92682e-05 -4.14142e-06 0)
(5.36835e-05 -6.79064e-06 0)
(5.88074e-05 -5.10256e-06 0)
(6.12394e-05 -2.32069e-06 0)
(6.18298e-05 -1.38779e-06 0)
(6.22759e-05 -1.75857e-06 0)
(6.36853e-05 -3.48367e-06 0)
(6.79254e-05 -5.97851e-06 0)
(7.12535e-05 -2.10335e-06 0)
(7.14826e-05 -1.29167e-06 0)
(7.18907e-05 -2.07862e-06 0)
(7.48293e-05 -4.70409e-06 0)
(7.72097e-05 -1.24619e-06 0)
(7.68782e-05 -9.04616e-07 0)
(7.67706e-05 -1.78958e-06 0)
(7.91995e-05 -4.8582e-06 0)
(7.97773e-05 -4.41983e-07 0)
(7.52073e-05 -5.82105e-07 0)
(6.13756e-05 -1.82071e-06 0)
(2.51548e-05 -1.30624e-08 0)
(1.7707e-11 -6.96081e-16 0)
(-1.91098e-19 -8.64973e-16 0)
(-1.69904e-19 -9.8763e-16 0)
(-1.96348e-19 -9.87754e-16 0)
(-1.25308e-19 -9.87482e-16 0)
(-3.53357e-20 -9.87699e-16 0)
(-7.73685e-20 -9.87626e-16 0)
(7.31269e-22 -9.87569e-16 0)
(3.23159e-20 -9.87697e-16 0)
(-1.60444e-20 -9.87681e-16 0)
(8.61672e-21 -9.87605e-16 0)
(6.20655e-20 -9.87636e-16 0)
(5.26001e-20 -9.87673e-16 0)
(1.17073e-19 -9.8756e-16 0)
(1.70447e-19 -9.87717e-16 0)
(1.62433e-19 -9.87691e-16 0)
(1.68841e-19 -9.87767e-16 0)
(1.04919e-19 -9.87798e-16 0)
(1.5456e-19 -9.87525e-16 0)
(2.08037e-19 -8.5987e-16 0)
(9.81686e-20 -7.14875e-16 0)
(-1.20813e-05 -2.22809e-10 0)
(-4.37744e-05 -2.84697e-06 0)
(-6.69997e-05 -9.21669e-07 0)
(-7.22721e-05 -4.41122e-07 0)
(-7.54578e-05 -7.531e-07 0)
(-7.34172e-05 -6.85539e-06 0)
(-7.0004e-05 -2.19245e-06 0)
(-7.04974e-05 -1.21706e-06 0)
(-7.13451e-05 -2.01981e-06 0)
(-6.74396e-05 -8.57713e-06 0)
(-6.2137e-05 -4.18295e-06 0)
(-6.12343e-05 -1.88253e-06 0)
(-6.13231e-05 -1.42217e-06 0)
(-6.1378e-05 -2.50074e-06 0)
(-5.91523e-05 -6.53628e-06 0)
(-5.2979e-05 -9.23461e-06 0)
(-4.79428e-05 -4.94278e-06 0)
(-4.66978e-05 -2.75462e-06 0)
(-4.63076e-05 -2.65265e-06 0)
(-4.55803e-05 -4.328e-06 0)
(-4.46205e-05 -6.9927e-06 0)
(-4.35967e-05 -9.32228e-06 0)
(-4.20473e-05 -1.25802e-05 0)
(-3.95475e-05 -1.70211e-05 0)
(-3.53877e-05 -2.27615e-05 0)
(-2.86556e-05 -2.93776e-05 0)
(-1.88518e-05 -3.53706e-05 0)
(-6.58818e-06 -3.887e-05 0)
(6.58818e-06 -3.887e-05 0)
(1.88518e-05 -3.53706e-05 0)
(2.86556e-05 -2.93776e-05 0)
(3.53877e-05 -2.27615e-05 0)
(3.95475e-05 -1.70211e-05 0)
(4.20473e-05 -1.25802e-05 0)
(4.35967e-05 -9.32228e-06 0)
(4.46205e-05 -6.9927e-06 0)
(4.55803e-05 -4.328e-06 0)
(4.63076e-05 -2.65265e-06 0)
(4.66978e-05 -2.75462e-06 0)
(4.79428e-05 -4.94278e-06 0)
(5.2979e-05 -9.23461e-06 0)
(5.91523e-05 -6.53628e-06 0)
(6.1378e-05 -2.50074e-06 0)
(6.13231e-05 -1.42217e-06 0)
(6.12343e-05 -1.88253e-06 0)
(6.2137e-05 -4.18295e-06 0)
(6.74396e-05 -8.57713e-06 0)
(7.13451e-05 -2.01981e-06 0)
(7.04974e-05 -1.21706e-06 0)
(7.0004e-05 -2.19245e-06 0)
(7.34172e-05 -6.85539e-06 0)
(7.54578e-05 -7.531e-07 0)
(7.22721e-05 -4.41122e-07 0)
(6.69997e-05 -9.21669e-07 0)
(4.37744e-05 -2.84697e-06 0)
(1.20813e-05 -2.22809e-10 0)
(-9.81686e-20 -7.14875e-16 0)
(-2.08037e-19 -8.5987e-16 0)
(-1.5456e-19 -9.87525e-16 0)
(-1.04919e-19 -9.87798e-16 0)
(-1.68841e-19 -9.87767e-16 0)
(-1.62433e-19 -9.87691e-16 0)
(-1.70447e-19 -9.87717e-16 0)
(-1.17073e-19 -9.8756e-16 0)
(-5.26001e-20 -9.87673e-16 0)
(-6.20655e-20 -9.87636e-16 0)
(-8.61672e-21 -9.87605e-16 0)
(1.60444e-20 -9.87681e-16 0)
(-5.64964e-21 -9.87673e-16 0)
(1.50895e-20 -9.87629e-16 0)
(5.35425e-20 -9.87645e-16 0)
(6.18269e-20 -9.87663e-16 0)
(1.09497e-19 -9.8761e-16 0)
(1.50099e-19 -9.87701e-16 0)
(1.52346e-19 -9.87705e-16 0)
(1.53664e-19 -9.87755e-16 0)
(1.20169e-19 -9.87773e-16 0)
(1.4963e-19 -9.87698e-16 0)
(1.78671e-19 -9.878e-16 0)
(1.22556e-19 -9.87823e-16 0)
(1.3291e-19 -9.87711e-16 0)
(1.95242e-19 -9.16635e-16 0)
(1.69322e-19 -7.96564e-16 0)
(-1.4409e-10 -6.741e-16 0)
(-1.64611e-05 -1.47808e-07 0)
(-4.56084e-05 -4.08176e-06 0)
(-6.15846e-05 -1.08385e-06 0)
(-6.65594e-05 -5.59845e-07 0)
(-7.07857e-05 -9.29279e-07 0)
(-6.66155e-05 -1.28001e-05 0)
(-5.96898e-05 -4.62154e-06 0)
(-5.99041e-05 -1.75496e-06 0)
(-6.07683e-05 -1.24605e-06 0)
(-6.18524e-05 -2.2927e-06 0)
(-6.00869e-05 -8.26866e-06 0)
(-5.21106e-05 -1.28311e-05 0)
(-4.60527e-05 -5.5257e-06 0)
(-4.5798e-05 -2.75507e-06 0)
(-4.62106e-05 -2.67273e-06 0)
(-4.62315e-05 -4.59876e-06 0)
(-4.598e-05 -7.43415e-06 0)
(-4.57155e-05 -9.9677e-06 0)
(-4.52004e-05 -1.36591e-05 0)
(-4.39928e-05 -1.90283e-05 0)
(-4.10802e-05 -2.66518e-05 0)
(-3.46803e-05 -3.64791e-05 0)
(-2.34613e-05 -4.59162e-05 0)
(-8.29282e-06 -5.13802e-05 0)
(8.29282e-06 -5.13802e-05 0)
(2.34613e-05 -4.59162e-05 0)
(3.46803e-05 -3.64791e-05 0)
(4.10802e-05 -2.66518e-05 0)
(4.39928e-05 -1.90283e-05 0)
(4.52004e-05 -1.36591e-05 0)
(4.57155e-05 -9.9677e-06 0)
(4.598e-05 -7.43415e-06 0)
(4.62315e-05 -4.59876e-06 0)
(4.62106e-05 -2.67273e-06 0)
(4.5798e-05 -2.75507e-06 0)
(4.60527e-05 -5.5257e-06 0)
(5.21106e-05 -1.28311e-05 0)
(6.00869e-05 -8.26866e-06 0)
(6.18524e-05 -2.2927e-06 0)
(6.07683e-05 -1.24605e-06 0)
(5.99041e-05 -1.75496e-06 0)
(5.96898e-05 -4.62154e-06 0)
(6.66155e-05 -1.28001e-05 0)
(7.07857e-05 -9.29279e-07 0)
(6.65594e-05 -5.59845e-07 0)
(6.15846e-05 -1.08385e-06 0)
(4.56084e-05 -4.08176e-06 0)
(1.64611e-05 -1.47808e-07 0)
(1.4409e-10 -6.741e-16 0)
(-1.69322e-19 -7.96564e-16 0)
(-1.95242e-19 -9.16635e-16 0)
(-1.3291e-19 -9.87711e-16 0)
(-1.22556e-19 -9.87823e-16 0)
(-1.78671e-19 -9.878e-16 0)
(-1.4963e-19 -9.87698e-16 0)
(-1.20169e-19 -9.87773e-16 0)
(-1.53664e-19 -9.87755e-16 0)
(-1.52346e-19 -9.87705e-16 0)
(-1.50099e-19 -9.87701e-16 0)
(-1.09497e-19 -9.8761e-16 0)
(-6.18269e-20 -9.87663e-16 0)
(-5.35425e-20 -9.87645e-16 0)
(-1.50895e-20 -9.87629e-16 0)
(5.64964e-21 -9.87673e-16 0)
(6.90203e-22 -9.87671e-16 0)
(1.93906e-20 -9.87647e-16 0)
(4.89602e-20 -9.87654e-16 0)
(6.57249e-20 -9.87664e-16 0)
(1.02305e-19 -9.87644e-16 0)
(1.3384e-19 -9.87697e-16 0)
(1.41428e-19 -9.87713e-16 0)
(1.42518e-19 -9.87748e-16 0)
(1.26949e-19 -9.87761e-16 0)
(1.44289e-19 -9.87729e-16 0)
(1.59915e-19 -9.87787e-16 0)
(1.3192e-19 -9.87803e-16 0)
(1.39302e-19 -9.87756e-16 0)
(1.74069e-19 -9.87783e-16 0)
(1.59526e-19 -9.87839e-16 0)
(1.19289e-19 -9.8782e-16 0)
(1.80568e-19 -9.87522e-16 0)
(2.31325e-19 -9.18888e-16 0)
(1.86954e-19 -8.2101e-16 0)
(1.4541e-19 -7.19086e-16 0)
(-1.04769e-06 -1.18929e-10 0)
(-2.16529e-05 -7.72247e-06 0)
(-4.70403e-05 -2.3657e-06 0)
(-5.48904e-05 -8.04626e-07 0)
(-5.82714e-05 -5.47109e-07 0)
(-6.19729e-05 -1.08007e-06 0)
(-6.17983e-05 -1.03052e-05 0)
(-5.07706e-05 -1.86472e-05 0)
(-4.30622e-05 -5.40503e-06 0)
(-4.47297e-05 -2.32056e-06 0)
(-4.61985e-05 -2.37372e-06 0)
(-4.70463e-05 -4.57821e-06 0)
(-4.75672e-05 -7.27959e-06 0)
(-4.82631e-05 -9.73429e-06 0)
(-4.92257e-05 -1.34679e-05 0)
(-5.02318e-05 -1.93582e-05 0)
(-5.00974e-05 -2.90428e-05 0)
(-4.51183e-05 -4.44965e-05 0)
(-3.16562e-05 -6.06433e-05 0)
(-1.12889e-05 -6.94627e-05 0)
(1.12889e-05 -6.94627e-05 0)
(3.16562e-05 -6.06433e-05 0)
(4.51183e-05 -4.44965e-05 0)
(5.00974e-05 -2.90428e-05 0)
(5.02318e-05 -1.93582e-05 0)
(4.92257e-05 -1.34679e-05 0)
(4.82631e-05 -9.73429e-06 0)
(4.75672e-05 -7.27959e-06 0)
(4.70463e-05 -4.57821e-06 0)
(4.61985e-05 -2.37372e-06 0)
(4.47297e-05 -2.32056e-06 0)
(4.30622e-05 -5.40503e-06 0)
(5.07706e-05 -1.86472e-05 0)
(6.17983e-05 -1.03052e-05 0)
(6.19729e-05 -1.08007e-06 0)
(5.82714e-05 -5.47109e-07 0)
(5.48904e-05 -8.04626e-07 0)
(4.70403e-05 -2.3657e-06 0)
(2.16529e-05 -7.72247e-06 0)
(1.04769e-06 -1.18929e-10 0)
(-1.4541e-19 -7.19086e-16 0)
(-1.86954e-19 -8.2101e-16 0)
(-2.31325e-19 -9.18888e-16 0)
(-1.80568e-19 -9.87522e-16 0)
(-1.19289e-19 -9.8782e-16 0)
(-1.59526e-19 -9.87839e-16 0)
(-1.74069e-19 -9.87783e-16 0)
(-1.39302e-19 -9.87756e-16 0)
(-1.3192e-19 -9.87803e-16 0)
(-1.59915e-19 -9.87787e-16 0)
(-1.44289e-19 -9.87729e-16 0)
(-1.26949e-19 -9.87761e-16 0)
(-1.42518e-19 -9.87748e-16 0)
(-1.41428e-19 -9.87713e-16 0)
(-1.3384e-19 -9.87697e-16 0)
(-1.02305e-19 -9.87644e-16 0)
(-6.57249e-20 -9.87664e-16 0)
(-4.89602e-20 -9.87654e-16 0)
(-1.93906e-20 -9.87647e-16 0)
(-6.90203e-22 -9.87671e-16 0)
(4.35221e-21 -9.87673e-16 0)
(2.20424e-20 -9.87661e-16 0)
(4.63679e-20 -9.87664e-16 0)
(6.62344e-20 -9.87671e-16 0)
(9.53747e-20 -9.87666e-16 0)
(1.20559e-19 -9.877e-16 0)
(1.30688e-19 -9.87719e-16 0)
(1.33458e-19 -9.87744e-16 0)
(1.28132e-19 -9.87756e-16 0)
(1.38758e-19 -9.87747e-16 0)
(1.47633e-19 -9.8778e-16 0)
(1.35467e-19 -9.87792e-16 0)
(1.41107e-19 -9.87772e-16 0)
(1.60217e-19 -9.8779e-16 0)
(1.53665e-19 -9.87822e-16 0)
(1.37365e-19 -9.87812e-16 0)
(1.73174e-19 -9.87766e-16 0)
(2.03124e-19 -9.87842e-16 0)
(1.81036e-19 -9.87868e-16 0)
(1.59094e-19 -9.87869e-16 0)
(1.73026e-19 -9.87828e-16 0)
(1.93101e-19 -9.81689e-16 0)
(1.85845e-19 -9.16049e-16 0)
(1.82155e-19 -8.38744e-16 0)
(1.84575e-19 -7.58803e-16 0)
(4.32332e-11 -5.20381e-08 0)
(5.26331e-09 -5.69542e-06 0)
(-1.45415e-05 -1.11457e-05 0)
(-3.44554e-05 -2.53991e-06 0)
(-4.18727e-05 -9.83967e-07 0)
(-4.53435e-05 -1.44842e-06 0)
(-4.73963e-05 -4.17167e-06 0)
(-4.87473e-05 -6.26015e-06 0)
(-5.05662e-05 -8.17237e-06 0)
(-5.34295e-05 -1.11009e-05 0)
(-5.80429e-05 -1.59224e-05 0)
(-6.45385e-05 -2.57998e-05 0)
(-6.46353e-05 -5.24392e-05 0)
(-4.72314e-05 -8.39333e-05 0)
(-1.66854e-05 -9.7839e-05 0)
(1.66854e-05 -9.7839e-05 0)
(4.72314e-05 -8.39333e-05 0)
(6.46353e-05 -5.24392e-05 0)
(6.45385e-05 -2.57998e-05 0)
(5.80429e-05 -1.59224e-05 0)
(5.34295e-05 -1.11009e-05 0)
(5.05662e-05 -8.17237e-06 0)
(4.87473e-05 -6.26015e-06 0)
(4.73963e-05 -4.17167e-06 0)
(4.53435e-05 -1.44842e-06 0)
(4.18727e-05 -9.83967e-07 0)
(3.44554e-05 -2.53991e-06 0)
(1.45415e-05 -1.11457e-05 0)
(-5.26331e-09 -5.69542e-06 0)
(-4.32332e-11 -5.20381e-08 0)
(-1.84575e-19 -7.58803e-16 0)
(-1.82155e-19 -8.38744e-16 0)
(-1.85845e-19 -9.16049e-16 0)
(-1.93101e-19 -9.81689e-16 0)
(-1.73026e-19 -9.87828e-16 0)
(-1.59094e-19 -9.87869e-16 0)
(-1.81036e-19 -9.87868e-16 0)
(-2.03124e-19 -9.87842e-16 0)
(-1.73174e-19 -9.87766e-16 0)
(-1.37365e-19 -9.87812e-16 0)
(-1.53665e-19 -9.87822e-16 0)
(-1.60217e-19 -9.8779e-16 0)
(-1.41107e-19 -9.87772e-16 0)
(-1.35467e-19 -9.87792e-16 0)
(-1.47633e-19 -9.8778e-16 0)
(-1.38758e-19 -9.87747e-16 0)
(-1.28132e-19 -9.87756e-16 0)
(-1.33458e-19 -9.87744e-16 0)
(-1.30688e-19 -9.87719e-16 0)
(-1.20559e-19 -9.877e-16 0)
(-9.53747e-20 -9.87666e-16 0)
(-6.62344e-20 -9.87671e-16 0)
(-4.63679e-20 -9.87664e-16 0)
(-2.20424e-20 -9.87661e-16 0)
(-4.35221e-21 -9.87673e-16 0)
(6.3143e-21 -9.87678e-16 0)
(2.3434e-20 -9.87673e-16 0)
(4.4544e-20 -9.87675e-16 0)
(6.4673e-20 -9.8768e-16 0)
(8.86782e-20 -9.87683e-16 0)
(1.09434e-19 -9.87705e-16 0)
(1.20591e-19 -9.87724e-16 0)
(1.25372e-19 -9.87743e-16 0)
(1.25782e-19 -9.87754e-16 0)
(1.3309e-19 -9.87756e-16 0)
(1.38972e-19 -9.87777e-16 0)
(1.35286e-19 -9.87787e-16 0)
(1.40008e-19 -9.87782e-16 0)
(1.5089e-19 -9.87795e-16 0)
(1.49465e-19 -9.87814e-16 0)
(1.45277e-19 -9.8781e-16 0)
(1.66403e-19 -9.87794e-16 0)
(1.84091e-19 -9.87836e-16 0)
(1.74511e-19 -9.87858e-16 0)
(1.63433e-19 -9.87862e-16 0)
(1.70812e-19 -9.8785e-16 0)
(1.82236e-19 -9.87873e-16 0)
(1.80693e-19 -9.87888e-16 0)
(1.80042e-19 -9.87895e-16 0)
(1.86377e-19 -9.879e-16 0)
(2.1481e-19 -9.87901e-16 0)
(2.01677e-19 -9.88004e-16 0)
(1.18883e-19 -9.88021e-16 0)
(9.90725e-20 -9.49018e-16 0)
(1.38313e-19 -8.97676e-16 0)
(1.41899e-10 -3.83434e-07 0)
(1.12071e-09 -1.92762e-06 0)
(2.79731e-09 -2.74718e-06 0)
(4.76371e-09 -3.49883e-06 0)
(8.78352e-09 -4.62158e-06 0)
(2.76888e-08 -6.45763e-06 0)
(1.22975e-07 -1.174e-05 0)
(-3.5996e-06 -3.05009e-05 0)
(-2.86055e-05 -7.3993e-05 0)
(-2.49047e-05 -0.000144034 0)
(2.49047e-05 -0.000144034 0)
(2.86055e-05 -7.3993e-05 0)
(3.5996e-06 -3.05009e-05 0)
(-1.22975e-07 -1.174e-05 0)
(-2.76888e-08 -6.45763e-06 0)
(-8.78352e-09 -4.62158e-06 0)
(-4.76371e-09 -3.49883e-06 0)
(-2.79731e-09 -2.74718e-06 0)
(-1.12071e-09 -1.92762e-06 0)
(-1.41899e-10 -3.83434e-07 0)
(-1.38313e-19 -8.97676e-16 0)
(-9.90725e-20 -9.49018e-16 0)
(-1.18883e-19 -9.88021e-16 0)
(-2.01677e-19 -9.88004e-16 0)
(-2.1481e-19 -9.87901e-16 0)
(-1.86377e-19 -9.879e-16 0)
(-1.80042e-19 -9.87895e-16 0)
(-1.80693e-19 -9.87888e-16 0)
(-1.82236e-19 -9.87873e-16 0)
(-1.70812e-19 -9.8785e-16 0)
(-1.63433e-19 -9.87862e-16 0)
(-1.74511e-19 -9.87858e-16 0)
(-1.84091e-19 -9.87836e-16 0)
(-1.66403e-19 -9.87794e-16 0)
(-1.45277e-19 -9.8781e-16 0)
(-1.49465e-19 -9.87814e-16 0)
(-1.5089e-19 -9.87795e-16 0)
(-1.40008e-19 -9.87782e-16 0)
(-1.35286e-19 -9.87787e-16 0)
(-1.38972e-19 -9.87777e-16 0)
(-1.3309e-19 -9.87756e-16 0)
(-1.25782e-19 -9.87754e-16 0)
(-1.25372e-19 -9.87743e-16 0)
(-1.20591e-19 -9.87724e-16 0)
(-1.09434e-19 -9.87705e-16 0)
(-8.86782e-20 -9.87683e-16 0)
(-6.4673e-20 -9.8768e-16 0)
(-4.4544e-20 -9.87675e-16 0)
(-2.3434e-20 -9.87673e-16 0)
(-6.3143e-21 -9.87678e-16 0)
(7.23106e-21 -9.87686e-16 0)
(2.38627e-20 -9.87684e-16 0)
(4.28134e-20 -9.87685e-16 0)
(6.18941e-20 -9.8769e-16 0)
(8.2227e-20 -9.87697e-16 0)
(9.98715e-20 -9.87713e-16 0)
(1.1127e-19 -9.87729e-16 0)
(1.17706e-19 -9.87745e-16 0)
(1.21306e-19 -9.87756e-16 0)
(1.27267e-19 -9.87763e-16 0)
(1.32105e-19 -9.87777e-16 0)
(1.32775e-19 -9.87786e-16 0)
(1.37109e-19 -9.87788e-16 0)
(1.44046e-19 -9.87798e-16 0)
(1.45619e-19 -9.87811e-16 0)
(1.46993e-19 -9.87812e-16 0)
(1.59921e-19 -9.87811e-16 0)
(1.70715e-19 -9.87835e-16 0)
(1.67766e-19 -9.87853e-16 0)
(1.63115e-19 -9.87859e-16 0)
(1.67271e-19 -9.87859e-16 0)
(1.73887e-19 -9.87874e-16 0)
(1.74798e-19 -9.87887e-16 0)
(1.75802e-19 -9.87896e-16 0)
(1.80951e-19 -9.87905e-16 0)
(1.9255e-19 -9.8792e-16 0)
(1.79702e-19 -9.87974e-16 0)
(1.35206e-19 -9.87984e-16 0)
(1.22597e-19 -9.87931e-16 0)
(1.48919e-19 -9.87918e-16 0)
(1.94591e-19 -9.87906e-16 0)
(2.45584e-19 -9.87957e-16 0)
(2.77252e-19 -9.87999e-16 0)
(3.02012e-19 -9.88034e-16 0)
(3.30863e-19 -9.88082e-16 0)
(8.78861e-16 -2.39528e-12 0)
(6.2034e-10 -7.53442e-07 0)
(9.15061e-10 -4.32084e-06 0)
(1.64438e-08 -4.82602e-05 0)
(1.61491e-08 -0.000170503 0)
(-1.61491e-08 -0.000170503 0)
(-1.64438e-08 -4.82602e-05 0)
(-9.15061e-10 -4.32084e-06 0)
(-6.2034e-10 -7.53442e-07 0)
(-8.78861e-16 -2.39528e-12 0)
(-3.30863e-19 -9.88082e-16 0)
(-3.02012e-19 -9.88034e-16 0)
(-2.77252e-19 -9.87999e-16 0)
(-2.45584e-19 -9.87957e-16 0)
(-1.94591e-19 -9.87906e-16 0)
(-1.48919e-19 -9.87918e-16 0)
(-1.22597e-19 -9.87931e-16 0)
(-1.35206e-19 -9.87984e-16 0)
(-1.79702e-19 -9.87974e-16 0)
(-1.9255e-19 -9.8792e-16 0)
(-1.80951e-19 -9.87905e-16 0)
(-1.75802e-19 -9.87896e-16 0)
(-1.74798e-19 -9.87887e-16 0)
(-1.73887e-19 -9.87874e-16 0)
(-1.67271e-19 -9.87859e-16 0)
(-1.63115e-19 -9.87859e-16 0)
(-1.67766e-19 -9.87853e-16 0)
(-1.70715e-19 -9.87835e-16 0)
(-1.59921e-19 -9.87811e-16 0)
(-1.46993e-19 -9.87812e-16 0)
(-1.45619e-19 -9.87811e-16 0)
(-1.44046e-19 -9.87798e-16 0)
(-1.37109e-19 -9.87788e-16 0)
(-1.32775e-19 -9.87786e-16 0)
(-1.32105e-19 -9.87777e-16 0)
(-1.27267e-19 -9.87763e-16 0)
(-1.21306e-19 -9.87756e-16 0)
(-1.17706e-19 -9.87745e-16 0)
(-1.1127e-19 -9.87729e-16 0)
(-9.98715e-20 -9.87713e-16 0)
(-8.2227e-20 -9.87697e-16 0)
(-6.18941e-20 -9.8769e-16 0)
(-4.28134e-20 -9.87685e-16 0)
(-2.38627e-20 -9.87684e-16 0)
(-7.23106e-21 -9.87686e-16 0)
(7.51869e-21 -9.87694e-16 0)
(2.35656e-20 -9.87694e-16 0)
(4.08722e-20 -9.87696e-16 0)
(5.84319e-20 -9.87701e-16 0)
(7.60409e-20 -9.87708e-16 0)
(9.14498e-20 -9.8772e-16 0)
(1.02689e-19 -9.87734e-16 0)
(1.10237e-19 -9.87747e-16 0)
(1.15616e-19 -9.87758e-16 0)
(1.2125e-19 -9.87767e-16 0)
(1.25952e-19 -9.87778e-16 0)
(1.28809e-19 -9.87787e-16 0)
(1.33067e-19 -9.87792e-16 0)
(1.38314e-19 -9.87801e-16 0)
(1.41465e-19 -9.8781e-16 0)
(1.45052e-19 -9.87815e-16 0)
(1.53519e-19 -9.8782e-16 0)
(1.60591e-19 -9.87836e-16 0)
(1.60931e-19 -9.8785e-16 0)
(1.59853e-19 -9.87859e-16 0)
(1.62574e-19 -9.87864e-16 0)
(1.66616e-19 -9.87875e-16 0)
(1.68301e-19 -9.87887e-16 0)
(1.69781e-19 -9.87897e-16 0)
(1.72866e-19 -9.87908e-16 0)
(1.76225e-19 -9.87925e-16 0)
(1.66073e-19 -9.87955e-16 0)
(1.42557e-19 -9.87963e-16 0)
(1.35518e-19 -9.87941e-16 0)
(1.51996e-19 -9.87933e-16 0)
(1.82211e-19 -9.87939e-16 0)
(2.15038e-19 -9.87977e-16 0)
(2.34358e-19 -9.88021e-16 0)
(2.43358e-19 -9.88056e-16 0)
(2.47228e-19 -9.88102e-16 0)
(2.39077e-19 -9.88165e-16 0)
(2.95031e-19 -1.70933e-15 0)
(4.66764e-10 -3.72501e-06 0)
(1.13631e-08 -4.62428e-05 0)
(1.08963e-08 -0.000167075 0)
(-1.08963e-08 -0.000167075 0)
(-1.13631e-08 -4.62428e-05 0)
(-4.66764e-10 -3.72501e-06 0)