/*--------------------------------*- C++ -*----------------------------------*\
  =========                 |
  \\      /  F ield         | OpenFOAM: The Open Source CFD Toolbox
   \\    /   O peration     | Website:  https://openfoam.org
    \\  /    A nd           | Version:  10
     \\/     M anipulation  |
\*---------------------------------------------------------------------------*/
FoamFile
{
    format      ascii;
    class       volScalarField;
    location    "0.084";
    object      T;
}
// * * * * * * * * * * * * * * * * * * * * * * * * * * * * * * * * * * * * * //

dimensions      [0 0 0 1 0 0 0];

internalField   nonuniform List<scalar> 
12225
(
1.00078
0.99983
1.00012
1.00011
1.00018
1.00045
1.00048
1.00029
1.00024
1.00036
1.00044
1.00036
1.0002
0.99996
0.999722
0.999308
0.998103
0.996661
1.00003
0.999827
1.00006
1.00005
1.00011
1.00041
1.0005
1.00033
1.00023
1.00031
1.00039
1.00034
1.00018
0.999941
0.999659
0.99923
0.998243
0.996863
0.999764
1.00012
1.00024
1.00008
1.0001
1.00037
1.00045
1.00029
1.0002
1.00027
1.00032
1.00026
1.00015
0.999982
0.99975
0.999373
0.998509
0.997342
1.00007
1.00003
1.00016
1.0001
1.00011
1.00032
1.0004
1.00028
1.00022
1.0003
1.00037
1.00033
1.00021
1.00003
0.999753
0.999363
0.998674
0.997829
1.00009
1.00028
1.00054
1.00023
1.00008
1.00033
1.00048
1.00036
1.00024
1.00025
1.00028
1.00023
1.00012
0.999979
0.999783
0.999522
0.999061
0.998461
0.999792
1.00009
1.00049
1.00028
1.00011
1.00027
1.00034
1.00022
1.00017
1.00024
1.00031
1.00028
1.00019
1.00006
0.999886
0.99965
0.999298
0.998851
0.999775
1.00037
1.00097
1.00049
1.00007
1.00026
1.00043
1.00036
1.00027
1.00025
1.00024
1.00018
1.00009
0.99999
0.999861
0.999689
0.999448
0.999119
1.00009
1.00051
1.00094
1.00043
1.00008
1.00025
1.00031
1.00018
1.00011
1.00017
1.00023
1.00023
1.00017
1.00009
0.999985
0.999844
0.999661
0.999415
0.998855
1.00088
1.00126
1.00046
0.999973
1.00016
1.00035
1.00032
1.00025
1.00023
1.0002
1.00013
1.00006
0.999996
0.999927
0.99983
0.999704
0.999519
0.999599
1.00093
1.00109
1.00044
1.00005
1.00017
1.00024
1.0001
1.00002
1.00007
1.00014
1.00015
1.00013
1.00011
1.00007
1
0.999906
0.999777
0.998572
1.0006
1.00111
1.00033
0.999871
1.00008
1.00029
1.00025
1.00019
1.0002
1.00018
1.00011
1.00003
0.999977
0.999931
0.999877
0.999801
0.999715
1.00011
1.00078
1.00092
1.00036
0.999945
1.00006
1.00014
1.00001
0.999938
0.999983
1.00006
1.00009
1.0001
1.0001
1.00009
1.00006
1.00002
0.999954
0.998767
1.00066
1.00065
1.00025
0.999877
1.00001
1.00019
1.00015
1.0001
1.00011
1.0001
1.00005
0.999995
0.999965
0.999953
0.999929
0.999898
0.99985
1.00051
1.00017
0.999747
0.999892
0.999828
0.999884
0.999944
0.999884
0.999844
0.999892
0.999967
1.00002
1.00004
1.00005
1.00006
1.00006
1.00004
1.00004
0.999766
0.999123
0.99988
1.00044
1.00028
1.00009
1.00006
1.00008
1.00009
1.00008
1.00006
1.00004
1
0.99997
0.999942
0.999932
0.999903
0.999892
1.00358
1.00016
0.999478
0.999135
0.999199
0.999423
0.999583
0.999723
0.999825
0.999862
0.999896
0.999959
1.00003
1.00008
1.00011
1.00013
1.00014
1.00015
0.998925
0.998094
0.998226
0.999189
0.999912
1.00019
1.00014
1.00005
1.00001
0.999986
0.999978
0.999984
0.999975
0.99996
0.999952
0.999957
0.999962
0.999973
1.00101
1.00005
0.999707
0.999502
0.99937
0.999427
0.999517
0.999607
0.999723
0.999868
0.999985
1.00004
1.00005
1.00008
1.00012
1.00017
1.0002
1.00023
0.998494
0.999983
1.00047
1.00037
1.00058
1.00076
1.00072
1.00065
1.0006
1.00057
1.00057
1.00057
1.00056
1.00054
1.00052
1.00049
1.00045
1.00041
1.00062
1.00247
1.00239
1.0013
1.00084
1.00062
1.00051
1.00048
1.00044
1.00037
1.00033
1.00029
1.00027
1.00028
1.0003
1.00033
1.00036
1.0004
0.998269
1.00068
1.00172
1.00135
1.00105
1.0009
1.00092
1.00096
1.0009
1.00081
1.00078
1.00078
1.00077
1.00074
1.0007
1.00066
1.00062
1.00058
0.998786
1.00001
1.00127
1.00127
1.00067
1.00056
1.00073
1.00068
1.00053
1.00052
1.00055
1.00053
1.0005
1.00048
1.00048
1.0005
1.00051
1.00052
1.00022
0.999391
1.00003
1.00066
1.00056
1.00055
1.0007
1.00072
1.0007
1.00075
1.0008
1.00075
1.00068
1.00066
1.00066
1.00065
1.00061
1.00058
0.999903
0.9998
1.00049
1.0009
1.00068
1.00055
1.00061
1.00063
1.00057
1.00052
1.0005
1.00048
1.00049
1.00052
1.00054
1.00056
1.00057
1.00058
0.999794
1.00045
1.0005
1.00049
1.00033
1.00028
1.00045
1.00062
1.00068
1.00069
1.00069
1.00067
1.00066
1.00067
1.00065
1.00062
1.00059
1.00057
0.998757
1.00083
1.00083
1.0007
1.00059
1.00055
1.00064
1.00065
1.00058
1.00054
1.00056
1.00058
1.00056
1.00056
1.00057
1.0006
1.00063
1.00065
0.99936
1.00107
1.00082
1.00038
1.0003
1.00037
1.00054
1.00062
1.00059
1.00058
1.00065
1.00072
1.00072
1.00068
1.00063
1.00059
1.00056
1.00055
0.999242
1.00085
1.00085
1.00061
1.0006
1.0006
1.00064
1.00063
1.00055
1.00049
1.00051
1.00055
1.00057
1.00057
1.00058
1.00059
1.0006
1.00061
0.998611
1.00033
1.00053
1.00047
1.00051
1.00054
1.00059
1.0006
1.00056
1.00055
1.00062
1.00068
1.0007
1.00066
1.00061
1.00055
1.00052
1.00052
0.999703
1.00021
1.00065
1.00068
1.00061
1.00057
1.0006
1.0006
1.00054
1.00053
1.0006
1.00068
1.00071
1.00067
1.00061
1.00057
1.00054
1.00058
0.932783
0.932869
0.932636
0.932127
0.932234
0.932962
0.933648
0.934461
0.935099
0.935163
0.934818
0.934346
0.933868
0.933405
0.932943
0.932469
0.931971
0.931447
0.9309
0.930333
0.92976
0.929173
0.928584
0.927992
0.927431
0.927008
0.926751
0.926634
0.926709
0.927049
0.927738
0.928779
0.929762
0.929444
0.92734
0.924416
0.921381
0.919488
0.917909
0.917106
0.916588
0.914774
0.914848
0.914632
0.913604
0.912951
0.91291
0.913554
0.912478
0.910316
0.909315
0.909923
0.914434
0.918247
0.918806
0.917605
0.916162
0.915199
0.914688
0.914526
0.914587
0.914783
0.915053
0.91537
0.915714
0.916081
0.916466
0.916868
0.917281
0.917706
0.918138
0.918576
0.919015
0.919451
0.919892
0.92036
0.920826
0.921273
0.921712
0.922144
0.92257
0.92299
0.923405
0.923816
0.924225
0.924637
0.925056
0.925487
0.92594
0.926426
0.926955
0.927534
0.928165
0.92886
0.929626
0.930446
0.931273
0.932068
0.932843
0.933635
0.934403
0.935009
0.935421
0.935829
0.936222
0.936167
0.935834
0.935598
0.935439
0.935512
0.936314
0.938835
0.943038
0.943539
0.936367
0.931179
0.932669
0.931861
0.929866
0.92889
0.926335
0.923264
0.920125
0.916
0.911042
0.906133
0.901942
0.898559
0.895938
0.894101
0.892938
0.892262
0.891924
0.891846
0.892052
0.892645
0.893762
0.895504
0.897835
0.900583
0.903724
0.907118
0.910335
0.912791
0.913934
0.913767
0.912685
0.911219
0.910082
0.910113
0.911182
0.911557
0.911126
0.910472
0.909804
0.909261
0.908904
0.908699
0.908588
0.908541
0.908441
0.908255
0.908134
0.907829
0.907228
0.906959
0.906492
0.905439
0.905539
0.905972
0.905175
0.905828
0.908265
0.906856
0.90268
0.905454
0.913449
0.910223
0.900331
0.899996
0.931501
0.931526
0.931493
0.930933
0.930825
0.931405
0.932333
0.932948
0.933046
0.932733
0.932252
0.931789
0.931397
0.931058
0.930735
0.930397
0.93003
0.929629
0.929198
0.928755
0.928309
0.927879
0.927457
0.927037
0.926587
0.92603
0.925429
0.924895
0.924519
0.924389
0.924607
0.925204
0.92606
0.926229
0.925273
0.924233
0.922408
0.919758
0.917859
0.917424
0.916029
0.914471
0.913963
0.913725
0.912388
0.910421
0.910507
0.90692
0.907377
0.909928
0.908037
0.905708
0.910231
0.914809
0.915262
0.91403
0.912828
0.912099
0.911832
0.91191
0.912225
0.912669
0.913179
0.91371
0.914241
0.914768
0.91529
0.915811
0.916333
0.916858
0.917386
0.917923
0.91847
0.919028
0.919577
0.920086
0.920567
0.92104
0.9215
0.921954
0.922404
0.92285
0.92329
0.923723
0.924147
0.924561
0.924965
0.925365
0.925766
0.926184
0.926635
0.927137
0.927708
0.928365
0.92912
0.929961
0.930844
0.931721
0.932587
0.933467
0.934331
0.935053
0.935569
0.936045
0.936603
0.936877
0.936673
0.936223
0.935547
0.934855
0.93529
0.937528
0.94105
0.94146
0.934774
0.928967
0.930029
0.931458
0.930729
0.928986
0.926086
0.923514
0.920902
0.916971
0.912068
0.907131
0.902702
0.899048
0.896219
0.894186
0.892811
0.891903
0.891313
0.890986
0.890975
0.89141
0.892457
0.894245
0.89679
0.899913
0.903276
0.906787
0.910228
0.912955
0.914255
0.914088
0.912963
0.911529
0.910527
0.910741
0.911912
0.912212
0.911712
0.911003
0.910291
0.909714
0.909326
0.90909
0.908959
0.908881
0.908733
0.908541
0.908448
0.908091
0.907434
0.907229
0.906728
0.905499
0.905679
0.906258
0.905231
0.905898
0.908706
0.907474
0.903328
0.905276
0.911448
0.907601
0.900664
0.901092
0.933627
0.933762
0.933617
0.933623
0.933336
0.932967
0.932486
0.931838
0.931194
0.930723
0.930464
0.930346
0.930271
0.930174
0.930025
0.929815
0.929538
0.929186
0.928755
0.928248
0.92768
0.927081
0.926498
0.925983
0.925547
0.925138
0.924659
0.924046
0.923323
0.922627
0.922085
0.921776
0.921814
0.922011
0.922209
0.922436
0.922035
0.921115
0.920015
0.918768
0.917399
0.915631
0.914779
0.915427
0.913716
0.913462
0.912752
0.911477
0.907377
0.909445
0.910114
0.909351
0.909801
0.909977
0.909339
0.908801
0.908807
0.909301
0.910106
0.910992
0.911841
0.912592
0.913246
0.913825
0.91435
0.914844
0.915318
0.915785
0.916247
0.916708
0.917167
0.917626
0.918089
0.918567
0.919051
0.919533
0.920015
0.920495
0.920969
0.921437
0.921898
0.922352
0.922799
0.923239
0.923671
0.924098
0.924522
0.924949
0.925388
0.92585
0.926344
0.926886
0.92749
0.928174
0.928953
0.929821
0.930744
0.931679
0.9326
0.933502
0.934367
0.935163
0.935874
0.936513
0.937063
0.937459
0.937624
0.937354
0.936392
0.935074
0.93494
0.936911
0.939956
0.939698
0.93345
0.928064
0.929454
0.932943
0.932804
0.929932
0.926451
0.923226
0.919655
0.915163
0.910171
0.905342
0.901146
0.897726
0.895075
0.893156
0.891868
0.891062
0.890618
0.89049
0.890698
0.891311
0.892445
0.894189
0.896544
0.8994
0.902639
0.906272
0.910035
0.913177
0.914679
0.914434
0.913163
0.911757
0.911034
0.911635
0.912925
0.913261
0.912776
0.912042
0.911281
0.910641
0.910198
0.909927
0.909741
0.90961
0.909455
0.909187
0.908971
0.908656
0.907967
0.907502
0.90706
0.905957
0.905625
0.906275
0.905984
0.906173
0.908542
0.90838
0.905451
0.906596
0.911689
0.910137
0.904496
0.902682
0.933214
0.933473
0.933948
0.933431
0.932506
0.931925
0.931862
0.9321
0.932378
0.932606
0.932792
0.932937
0.933006
0.932966
0.932807
0.93254
0.932177
0.931732
0.931216
0.930637
0.929999
0.929308
0.928572
0.927803
0.927055
0.926438
0.925937
0.92544
0.924856
0.924119
0.923269
0.922378
0.921547
0.920951
0.920699
0.92075
0.920891
0.921192
0.921129
0.920456
0.91986
0.918184
0.917814
0.916983
0.915639
0.916664
0.914811
0.914158
0.913178
0.911899
0.910328
0.909382
0.909348
0.909557
0.909569
0.909581
0.909769
0.910158
0.910676
0.911232
0.911773
0.912276
0.912732
0.913163
0.913583
0.914012
0.914452
0.914909
0.915378
0.91585
0.916319
0.916782
0.917242
0.917716
0.918208
0.918694
0.919171
0.919647
0.920125
0.920608
0.921094
0.921579
0.922059
0.922528
0.922979
0.923409
0.92382
0.924216
0.924611
0.92502
0.925457
0.925943
0.926498
0.927151
0.927921
0.928809
0.929785
0.930791
0.931766
0.932675
0.933504
0.934294
0.93511
0.935972
0.936713
0.937235
0.937799
0.938428
0.938107
0.936649
0.935607
0.936685
0.93916
0.938403
0.931961
0.926885
0.92854
0.932309
0.932745
0.93017
0.926304
0.922442
0.918445
0.913837
0.908881
0.904195
0.900228
0.897042
0.89463
0.892939
0.891858
0.891235
0.89095
0.890949
0.891228
0.891824
0.892795
0.89418
0.896025
0.898473
0.901467
0.904894
0.90881
0.912502
0.91447
0.914331
0.912984
0.9117
0.911454
0.912594
0.913945
0.914381
0.913987
0.913317
0.912621
0.912022
0.91157
0.91125
0.910988
0.910752
0.910487
0.910121
0.909784
0.909377
0.908634
0.908037
0.907542
0.906501
0.90604
0.906695
0.906792
0.906975
0.909283
0.90971
0.907266
0.90811
0.912287
0.911119
0.905779
0.903863
0.93511
0.935564
0.934707
0.933791
0.933696
0.933936
0.934144
0.934453
0.934852
0.935172
0.935289
0.935183
0.934884
0.934436
0.933872
0.93321
0.932451
0.931591
0.930634
0.929608
0.928564
0.927567
0.926688
0.92603
0.925659
0.925515
0.925561
0.925754
0.925908
0.925757
0.925152
0.924154
0.922874
0.921554
0.920547
0.920106
0.920192
0.920696
0.921072
0.921352
0.921545
0.920839
0.921046
0.919787
0.91969
0.919652
0.920358
0.916508
0.913837
0.911605
0.910189
0.909823
0.910218
0.91077
0.910998
0.910924
0.910678
0.910453
0.910342
0.910393
0.910575
0.910864
0.911223
0.911642
0.912102
0.912599
0.913117
0.913648
0.914176
0.914693
0.915192
0.915678
0.916154
0.916628
0.917097
0.917553
0.918005
0.918472
0.918964
0.919482
0.920025
0.920585
0.921152
0.921711
0.922246
0.922744
0.923197
0.923608
0.923985
0.924347
0.924718
0.925131
0.925623
0.92624
0.927022
0.927988
0.929117
0.930326
0.931494
0.932524
0.933375
0.934106
0.934808
0.935576
0.936264
0.936729
0.936895
0.93745
0.937781
0.936723
0.935459
0.93625
0.938608
0.938097
0.932211
0.927368
0.928615
0.932112
0.932895
0.930084
0.925615
0.921544
0.917543
0.912884
0.907917
0.903396
0.899715
0.896905
0.894878
0.89352
0.892697
0.892231
0.891975
0.891873
0.891923
0.892095
0.892357
0.892801
0.893704
0.89536
0.897613
0.900319
0.904293
0.90907
0.912266
0.912783
0.911603
0.910607
0.91105
0.91294
0.914643
0.915275
0.91491
0.91419
0.913492
0.912955
0.912599
0.91236
0.912123
0.911851
0.911545
0.91114
0.910711
0.910266
0.909598
0.908939
0.908403
0.907498
0.906951
0.907537
0.908026
0.908473
0.910717
0.911625
0.909912
0.910754
0.913683
0.912077
0.907351
0.90445
0.937589
0.936939
0.935266
0.93496
0.935115
0.935404
0.935642
0.935682
0.935547
0.935339
0.935098
0.934805
0.934422
0.933926
0.933302
0.932543
0.931638
0.930589
0.929418
0.928163
0.926886
0.92567
0.924641
0.923915
0.923629
0.923729
0.923967
0.924173
0.924358
0.924516
0.924412
0.923853
0.92291
0.921752
0.920537
0.91964
0.919375
0.919695
0.920315
0.921069
0.921198
0.921116
0.92094
0.919851
0.919272
0.919249
0.917823
0.914597
0.912626
0.911031
0.910337
0.910334
0.910569
0.910698
0.910515
0.910097
0.909599
0.909216
0.909045
0.909123
0.909393
0.909797
0.910262
0.910749
0.911229
0.911696
0.912147
0.912588
0.913026
0.913475
0.913941
0.914424
0.914896
0.915314
0.915695
0.916107
0.916568
0.917077
0.917632
0.918228
0.91886
0.919522
0.920197
0.920861
0.92149
0.922061
0.922558
0.922975
0.923318
0.923606
0.923882
0.924207
0.924641
0.925241
0.926047
0.927082
0.92834
0.929743
0.93113
0.932371
0.933378
0.934206
0.934923
0.935682
0.936468
0.937161
0.937192
0.936981
0.937398
0.936922
0.935619
0.936124
0.938355
0.938044
0.932758
0.928017
0.928906
0.931976
0.932571
0.929368
0.924721
0.920787
0.916797
0.912034
0.907222
0.903121
0.899865
0.897485
0.895789
0.894627
0.893855
0.89329
0.892789
0.892287
0.8917
0.890914
0.890028
0.889572
0.890066
0.891286
0.89254
0.894384
0.89857
0.904918
0.909792
0.911326
0.910414
0.909559
0.910341
0.912757
0.915189
0.916374
0.916258
0.915555
0.914785
0.914167
0.913755
0.913491
0.913247
0.912951
0.912619
0.912226
0.911793
0.911358
0.910768
0.910062
0.909421
0.908532
0.90785
0.908505
0.909626
0.910359
0.912645
0.914376
0.913339
0.913567
0.916036
0.914523
0.910271
0.905917
0.934949
0.934228
0.934039
0.934753
0.935287
0.935199
0.934917
0.934722
0.934604
0.934519
0.934333
0.933877
0.933049
0.931869
0.930438
0.928878
0.927277
0.925693
0.924183
0.922817
0.921648
0.920778
0.92028
0.920072
0.920255
0.920848
0.921528
0.922025
0.922376
0.922731
0.922917
0.92251
0.921458
0.920233
0.919147
0.918393
0.918212
0.918506
0.919023
0.919465
0.919563
0.919874
0.919216
0.918635
0.918068
0.917994
0.915278
0.912824
0.911579
0.910515
0.910048
0.909848
0.909615
0.909337
0.908978
0.908671
0.908505
0.908532
0.908721
0.909018
0.909349
0.909662
0.909919
0.910126
0.910301
0.91048
0.910697
0.910984
0.911358
0.911823
0.912369
0.912953
0.913492
0.913962
0.914452
0.914989
0.91555
0.91612
0.916691
0.917266
0.91785
0.918446
0.919054
0.919664
0.920261
0.920824
0.92134
0.921811
0.92225
0.922675
0.923105
0.92357
0.924097
0.924711
0.925458
0.92639
0.927573
0.928977
0.930416
0.931711
0.932737
0.933559
0.934223
0.934997
0.936103
0.937253
0.938053
0.937668
0.937694
0.937808
0.936555
0.936477
0.938332
0.937924
0.933062
0.928393
0.928861
0.931582
0.931867
0.928381
0.923812
0.920129
0.916117
0.911367
0.907072
0.903593
0.900663
0.898431
0.89682
0.895644
0.894781
0.89403
0.893152
0.891928
0.890214
0.888108
0.886192
0.885401
0.886264
0.887881
0.88878
0.890211
0.89477
0.902385
0.908546
0.911062
0.910423
0.909593
0.910477
0.913024
0.915855
0.917442
0.917613
0.917129
0.916535
0.916007
0.915587
0.915245
0.914886
0.914469
0.914037
0.913593
0.91312
0.912613
0.911966
0.911156
0.910347
0.909472
0.908947
0.909753
0.911467
0.912781
0.915126
0.917253
0.917185
0.916872
0.91888
0.917589
0.913756
0.908694
0.935568
0.935436
0.935479
0.935552
0.935249
0.934833
0.934653
0.934593
0.934425
0.933968
0.932998
0.931449
0.929472
0.927304
0.92513
0.92304
0.921046
0.919152
0.917423
0.915966
0.914915
0.914449
0.91465
0.915237
0.915886
0.916612
0.917358
0.91797
0.918512
0.919177
0.919747
0.919806
0.91933
0.918592
0.917805
0.917266
0.917187
0.917371
0.917679
0.918011
0.918259
0.918227
0.917298
0.916765
0.916617
0.916379
0.913563
0.911802
0.910789
0.909798
0.909245
0.908821
0.908472
0.9083
0.908245
0.908352
0.908542
0.90875
0.908897
0.908955
0.908922
0.908837
0.908742
0.908687
0.908715
0.908865
0.90916
0.909612
0.910209
0.910915
0.911659
0.912383
0.913105
0.913826
0.914488
0.915075
0.915595
0.916056
0.916477
0.916873
0.917258
0.917647
0.91807
0.91855
0.919083
0.919646
0.920217
0.920801
0.92142
0.922062
0.92267
0.9232
0.923647
0.924062
0.924572
0.925312
0.926441
0.927995
0.929731
0.931331
0.932523
0.933312
0.933892
0.934698
0.93629
0.937755
0.938893
0.938931
0.938448
0.938856
0.938138
0.937632
0.939143
0.938664
0.933549
0.928163
0.927531
0.92985
0.93019
0.927004
0.922929
0.919653
0.915684
0.91112
0.907441
0.904491
0.901733
0.899301
0.897577
0.89638
0.895493
0.894515
0.892964
0.890535
0.887402
0.884289
0.882134
0.881671
0.883227
0.885895
0.887379
0.888122
0.892174
0.900111
0.907535
0.911203
0.910733
0.909825
0.91109
0.914458
0.91784
0.919341
0.9192
0.918606
0.918127
0.917778
0.917522
0.917272
0.916905
0.916393
0.915828
0.915266
0.914664
0.914005
0.913275
0.912429
0.911529
0.91067
0.910326
0.911293
0.913497
0.915478
0.917895
0.920065
0.920893
0.920447
0.92178
0.921008
0.917792
0.912647
0.937078
0.936633
0.936436
0.936353
0.936122
0.935893
0.935644
0.935204
0.934528
0.933478
0.931948
0.930107
0.928172
0.926292
0.924513
0.922775
0.920989
0.919137
0.917315
0.915648
0.914251
0.913404
0.913308
0.913584
0.913721
0.913928
0.914455
0.915115
0.915862
0.916734
0.917322
0.917274
0.916773
0.916151
0.915581
0.91525
0.915234
0.915388
0.91572
0.916131
0.916278
0.915819
0.91548
0.915285
0.915492
0.914511
0.912261
0.910971
0.909986
0.908974
0.908413
0.90799
0.907813
0.90787
0.908011
0.908187
0.908272
0.908251
0.908132
0.907971
0.907824
0.907746
0.907766
0.907897
0.908137
0.908484
0.908932
0.909475
0.910097
0.910764
0.911433
0.912095
0.912767
0.913415
0.913972
0.914429
0.914826
0.915201
0.915588
0.916007
0.916466
0.91697
0.917534
0.918167
0.918847
0.919523
0.92014
0.920663
0.921089
0.921412
0.921626
0.921787
0.921974
0.922266
0.922803
0.923716
0.925094
0.926963
0.929111
0.9311
0.932583
0.93351
0.934224
0.935204
0.93728
0.939439
0.940549
0.940861
0.940156
0.940292
0.94021
0.939486
0.94078
0.94096
0.936044
0.9296
0.92695
0.928204
0.928565
0.925854
0.922519
0.919663
0.915735
0.911378
0.908111
0.905436
0.902722
0.900084
0.898145
0.896971
0.896048
0.894616
0.892012
0.888149
0.883906
0.880636
0.879124
0.879398
0.881475
0.884974
0.886486
0.885457
0.888153
0.896239
0.905581
0.910607
0.910508
0.90966
0.91129
0.91558
0.920335
0.922246
0.921678
0.920599
0.919963
0.919601
0.919341
0.919096
0.918708
0.918142
0.917505
0.916871
0.916204
0.915494
0.914779
0.913961
0.912912
0.911913
0.911711
0.913
0.915644
0.918152
0.920673
0.922807
0.924071
0.923827
0.924231
0.923939
0.921755
0.91719
0.93922
0.939076
0.939035
0.93882
0.938343
0.937877
0.937376
0.936837
0.936149
0.935057
0.933657
0.932229
0.930805
0.92942
0.928065
0.926597
0.924902
0.923
0.921021
0.919118
0.917435
0.916197
0.915552
0.915417
0.915453
0.915424
0.915426
0.915376
0.915365
0.915535
0.915516
0.915037
0.914255
0.913443
0.912843
0.912627
0.912789
0.913204
0.913787
0.914329
0.914554
0.914483
0.914729
0.914769
0.914462
0.912844
0.911182
0.910037
0.909041
0.908102
0.907614
0.907255
0.9072
0.907293
0.907406
0.907501
0.907526
0.907538
0.907573
0.907665
0.907813
0.908
0.908195
0.908365
0.908487
0.908567
0.90865
0.9088
0.909061
0.90945
0.909942
0.910458
0.91094
0.911443
0.911965
0.912472
0.912958
0.913451
0.913997
0.914639
0.915395
0.916261
0.917208
0.918192
0.919153
0.920019
0.920701
0.921124
0.921264
0.921217
0.921156
0.921253
0.921638
0.922356
0.923408
0.924874
0.926638
0.928566
0.930578
0.932394
0.933904
0.935002
0.935616
0.936355
0.937935
0.940257
0.941798
0.942368
0.941996
0.941975
0.94228
0.941602
0.942587
0.943701
0.940133
0.933914
0.930196
0.929905
0.929169
0.926208
0.923293
0.920516
0.916383
0.912057
0.908944
0.906342
0.903612
0.900885
0.898698
0.897469
0.896353
0.894242
0.890463
0.885389
0.880741
0.878184
0.877804
0.878271
0.879603
0.883246
0.884943
0.882635
0.884232
0.892842
0.903759
0.909447
0.909933
0.909505
0.911318
0.91612
0.922409
0.925038
0.924198
0.922875
0.922117
0.921732
0.921412
0.921042
0.920487
0.919768
0.91904
0.918385
0.917732
0.91705
0.916399
0.915545
0.914167
0.913003
0.913149
0.914917
0.917896
0.920803
0.923488
0.925765
0.927246
0.927413
0.927127
0.926675
0.925099
0.921352
0.942192
0.941902
0.941721
0.941362
0.940887
0.940666
0.940436
0.940058
0.939377
0.938238
0.936899
0.935579
0.934307
0.933097
0.931863
0.930435
0.928713
0.926741
0.924685
0.922713
0.920916
0.91945
0.918504
0.918154
0.918137
0.918103
0.917981
0.917699
0.91725
0.916695
0.916056
0.915388
0.914806
0.914427
0.914333
0.914544
0.914976
0.915431
0.915783
0.915865
0.91551
0.915103
0.914592
0.913967
0.913089
0.911507
0.910001
0.908881
0.90789
0.907098
0.906685
0.906408
0.906447
0.906593
0.906812
0.907083
0.907388
0.90774
0.908099
0.908423
0.908651
0.90873
0.908626
0.908342
0.907934
0.907522
0.907248
0.907221
0.907465
0.907955
0.908629
0.909351
0.910015
0.910699
0.911374
0.911958
0.912437
0.912857
0.9133
0.913849
0.914554
0.915426
0.91644
0.917537
0.918647
0.919681
0.920542
0.921159
0.921537
0.921816
0.922218
0.922864
0.923772
0.924928
0.926172
0.927471
0.928786
0.930096
0.931567
0.933448
0.935597
0.937106
0.937227
0.937186
0.938045
0.939908
0.942071
0.943283
0.943341
0.943383
0.943995
0.94367
0.944177
0.945796
0.943993
0.9391
0.935473
0.933817
0.931476
0.928018
0.925223
0.922197
0.917604
0.913094
0.909962
0.907329
0.904524
0.90171
0.899366
0.897885
0.896389
0.893544
0.888771
0.88297
0.878546
0.877135
0.877629
0.877413
0.877456
0.881144
0.884191
0.881657
0.882167
0.891313
0.903148
0.908952
0.909825
0.91017
0.911857
0.916445
0.92383
0.927834
0.926341
0.924797
0.924133
0.923754
0.923429
0.923046
0.922411
0.921575
0.920758
0.920058
0.919401
0.91875
0.918112
0.917036
0.9153
0.914153
0.914759
0.91699
0.92022
0.923492
0.926397
0.928818
0.930363
0.930848
0.930314
0.929462
0.928061
0.924879
0.945284
0.945042
0.944951
0.944632
0.94413
0.943756
0.943345
0.942787
0.941918
0.940717
0.939386
0.938024
0.936698
0.935465
0.934297
0.933071
0.931658
0.930034
0.928279
0.926475
0.924693
0.923102
0.921898
0.921134
0.920735
0.92061
0.920592
0.920561
0.920453
0.920229
0.919918
0.919587
0.919304
0.919161
0.919148
0.919096
0.918882
0.91838
0.917536
0.91635
0.914982
0.913676
0.912349
0.911451
0.91084
0.909729
0.908351
0.907396
0.906524
0.905948
0.90565
0.905545
0.905764
0.906107
0.906597
0.907176
0.907782
0.908324
0.908702
0.908863
0.908795
0.908515
0.90806
0.907512
0.907011
0.906701
0.906643
0.906822
0.907201
0.90775
0.908448
0.909315
0.910344
0.911262
0.911936
0.912361
0.912581
0.912695
0.912839
0.913127
0.913627
0.914353
0.915271
0.916326
0.917449
0.918555
0.91956
0.920447
0.921266
0.922012
0.922806
0.923708
0.924596
0.925412
0.926089
0.9266
0.927152
0.928136
0.930009
0.933115
0.936634
0.938565
0.93818
0.937523
0.938439
0.940414
0.943013
0.944841
0.945135
0.944751
0.945117
0.945158
0.945185
0.946615
0.946336
0.943309
0.94012
0.937107
0.933561
0.930126
0.927562
0.924308
0.919256
0.914468
0.911232
0.908514
0.905559
0.902604
0.900131
0.898263
0.896244
0.892806
0.887383
0.881371
0.87756
0.877195
0.877914
0.876842
0.87582
0.879905
0.884594
0.881722
0.88125
0.890974
0.90354
0.909737
0.910948
0.912007
0.91356
0.917356
0.924861
0.930327
0.928346
0.92619
0.925921
0.925707
0.925313
0.924918
0.924282
0.923397
0.922511
0.921777
0.921131
0.920503
0.919841
0.918484
0.916471
0.915418
0.916442
0.919136
0.922651
0.926184
0.929229
0.931705
0.933223
0.933752
0.933068
0.93181
0.930447
0.927758
0.948428
0.948191
0.947972
0.947518
0.946915
0.946453
0.945962
0.945259
0.944181
0.942688
0.940914
0.939024
0.937177
0.935507
0.934053
0.932732
0.931413
0.930011
0.928521
0.927017
0.925591
0.924305
0.923198
0.92232
0.921718
0.921387
0.921225
0.921038
0.920635
0.920002
0.919225
0.918409
0.917582
0.916775
0.91597
0.915118
0.914145
0.912954
0.911611
0.910259
0.908911
0.907752
0.90738
0.907823
0.908055
0.907359
0.906392
0.905739
0.905118
0.904794
0.904666
0.904791
0.905212
0.905774
0.906501
0.907275
0.907972
0.908435
0.908602
0.908527
0.908325
0.908099
0.907898
0.907743
0.907643
0.907578
0.907509
0.907428
0.907383
0.907484
0.907917
0.908726
0.909705
0.910549
0.91113
0.911439
0.911509
0.91145
0.91144
0.91165
0.912171
0.913012
0.914099
0.915345
0.916644
0.917909
0.919077
0.920132
0.921102
0.921918
0.922601
0.923241
0.923866
0.924468
0.925033
0.925594
0.926415
0.92792
0.930464
0.934181
0.938142
0.940216
0.939753
0.939019
0.940168
0.942343
0.944703
0.94667
0.947186
0.946479
0.946136
0.946157
0.945805
0.946553
0.947267
0.94572
0.942723
0.938916
0.935006
0.931968
0.929788
0.926528
0.921218
0.916168
0.912787
0.909954
0.906812
0.903673
0.901033
0.898776
0.896179
0.892319
0.88658
0.880757
0.877656
0.87775
0.87832
0.876593
0.874488
0.879482
0.885473
0.882318
0.881501
0.891819
0.904668
0.911268
0.912782
0.914174
0.916149
0.919563
0.926461
0.932062
0.930228
0.927043
0.927366
0.927725
0.927297
0.926796
0.926058
0.925055
0.924118
0.923407
0.922787
0.922195
0.921485
0.919879
0.917667
0.916775
0.918247
0.921375
0.925148
0.928845
0.931949
0.934396
0.935837
0.936208
0.935312
0.933684
0.932146
0.929871
0.951512
0.951286
0.951018
0.950573
0.949952
0.949332
0.948639
0.947716
0.946404
0.944681
0.942633
0.940357
0.937957
0.93555
0.933242
0.931103
0.929132
0.927294
0.925567
0.923951
0.922503
0.921304
0.920381
0.919713
0.919265
0.918919
0.918496
0.917843
0.916881
0.915597
0.914016
0.912253
0.910428
0.908659
0.907033
0.905625
0.904397
0.903357
0.902616
0.90225
0.90233
0.903097
0.904459
0.905678
0.90596
0.905404
0.90483
0.90438
0.903983
0.903827
0.903825
0.904108
0.904638
0.905328
0.906182
0.907033
0.907708
0.908053
0.908119
0.908111
0.90822
0.908478
0.908734
0.908773
0.908443
0.907722
0.906747
0.905756
0.904992
0.904632
0.904815
0.905475
0.906288
0.907171
0.908062
0.908816
0.90931
0.90955
0.909705
0.910023
0.910651
0.911625
0.912897
0.914382
0.915974
0.917619
0.919267
0.920809
0.922101
0.923147
0.924
0.924772
0.925603
0.926541
0.927558
0.928664
0.930046
0.931925
0.934408
0.937413
0.940203
0.941596
0.941453
0.941442
0.942856
0.944861
0.946378
0.947629
0.948174
0.947861
0.947211
0.947004
0.94666
0.946776
0.947723
0.947079
0.944157
0.940092
0.936271
0.933629
0.931814
0.928755
0.923427
0.918171
0.91461
0.911657
0.908341
0.905011
0.90221
0.899688
0.896632
0.892331
0.886504
0.88097
0.878379
0.878471
0.879013
0.876731
0.873816
0.879593
0.88648
0.88367
0.883142
0.893709
0.906279
0.912865
0.914518
0.915863
0.91858
0.922615
0.928797
0.933144
0.931301
0.927525
0.928449
0.929728
0.929367
0.928692
0.927805
0.926679
0.92572
0.925043
0.924441
0.923887
0.923058
0.921218
0.918929
0.918323
0.920246
0.923725
0.927684
0.931463
0.934555
0.936863
0.938097
0.938159
0.936921
0.934951
0.933157
0.931209
0.954408
0.954234
0.953933
0.953411
0.952686
0.951958
0.951176
0.950202
0.948914
0.94727
0.945282
0.943006
0.940511
0.937894
0.93526
0.932719
0.930348
0.928167
0.92616
0.924331
0.922762
0.921568
0.920779
0.920296
0.919923
0.919465
0.918807
0.917908
0.916753
0.915354
0.913716
0.911834
0.909764
0.907664
0.905707
0.904029
0.902707
0.901874
0.901642
0.902014
0.902919
0.904139
0.905195
0.905604
0.905277
0.904658
0.904142
0.903679
0.903341
0.903201
0.903229
0.903546
0.904076
0.904789
0.90567
0.906534
0.907173
0.907468
0.907573
0.90776
0.908172
0.908622
0.908701
0.908102
0.906774
0.904935
0.903005
0.901435
0.900531
0.900356
0.900702
0.901299
0.902063
0.903133
0.90454
0.906053
0.907374
0.908318
0.908977
0.909602
0.910423
0.911516
0.912843
0.9143
0.91581
0.91743
0.919221
0.921106
0.92289
0.924452
0.925791
0.927017
0.928259
0.92954
0.930793
0.931992
0.933268
0.934781
0.936588
0.938674
0.940624
0.941622
0.941657
0.942347
0.944409
0.946594
0.947844
0.94854
0.94885
0.948754
0.948302
0.947933
0.947734
0.947658
0.948353
0.948202
0.945625
0.941636
0.937868
0.935333
0.933722
0.930992
0.925861
0.92046
0.916683
0.913632
0.910212
0.906746
0.903829
0.901135
0.897787
0.893134
0.887232
0.881765
0.879373
0.879376
0.880217
0.877631
0.874385
0.880447
0.887665
0.885461
0.88573
0.896328
0.908119
0.914222
0.916054
0.917442
0.92064
0.925397
0.931144
0.93414
0.931462
0.92766
0.92912
0.931622
0.931521
0.930542
0.929492
0.928319
0.927389
0.926739
0.92617
0.925639
0.92463
0.922533
0.920285
0.920073
0.922411
0.926161
0.930255
0.934032
0.937005
0.939066
0.939955
0.939567
0.937825
0.935446
0.93334
0.931694
0.957319
0.957149
0.956747
0.956176
0.955434
0.954619
0.95376
0.952779
0.95157
0.950091
0.948363
0.946415
0.944248
0.941912
0.939522
0.93721
0.935082
0.933167
0.931402
0.929727
0.928165
0.926783
0.925616
0.924629
0.923799
0.923107
0.922501
0.92197
0.921436
0.920713
0.919631
0.918151
0.916384
0.914497
0.912667
0.911031
0.909695
0.908754
0.90823
0.908031
0.907989
0.907874
0.907476
0.906753
0.905868
0.905049
0.904352
0.903762
0.90335
0.903116
0.903086
0.903319
0.903741
0.904334
0.905092
0.905883
0.90644
0.906659
0.906726
0.906907
0.907285
0.907474
0.90699
0.905627
0.903511
0.901052
0.898857
0.897447
0.896981
0.897309
0.898041
0.898786
0.899653
0.900808
0.902396
0.904424
0.906411
0.907906
0.908941
0.909822
0.910862
0.912206
0.913792
0.915445
0.917046
0.918554
0.919995
0.921408
0.922796
0.924102
0.925298
0.926455
0.927684
0.929006
0.930327
0.931594
0.932919
0.934475
0.936248
0.938187
0.940253
0.941776
0.942232
0.942858
0.944839