/*--------------------------------*- C++ -*----------------------------------*\
  =========                 |
  \\      /  F ield         | OpenFOAM: The Open Source CFD Toolbox
   \\    /   O peration     | Website:  https://openfoam.org
    \\  /    A nd           | Version:  10
     \\/     M anipulation  |
\*---------------------------------------------------------------------------*/
FoamFile
{
    format      ascii;
    class       volVectorField;
    location    "11800";
    object      Ub;
}
// * * * * * * * * * * * * * * * * * * * * * * * * * * * * * * * * * * * * * //

dimensions      [0 1 -1 0 0 0 0];

internalField   nonuniform List<vector> 
6400
(
(-4.70405e-21 -9.87899e-16 0)
(-1.41444e-20 -9.87899e-16 0)
(-2.36824e-20 -9.87899e-16 0)
(-3.33864e-20 -9.87899e-16 0)
(-4.33303e-20 -9.87899e-16 0)
(-5.35955e-20 -9.87899e-16 0)
(-6.42747e-20 -9.87899e-16 0)
(-7.5476e-20 -9.87899e-16 0)
(-8.73285e-20 -9.87899e-16 0)
(-9.99904e-20 -9.87899e-16 0)
(-1.1366e-19 -9.87899e-16 0)
(-1.28593e-19 -9.87899e-16 0)
(-1.45128e-19 -9.87898e-16 0)
(-1.63728e-19 -9.87898e-16 0)
(-1.85049e-19 -9.87898e-16 0)
(-2.10061e-19 -9.87897e-16 0)
(-2.40273e-19 -9.87897e-16 0)
(-2.78151e-19 -9.87896e-16 0)
(-3.27685e-19 -9.87894e-16 0)
(-4.71715e-19 -9.87893e-16 0)
(-1.12408e-07 -1.17829e-15 0)
(-8.14214e-05 -3.54924e-05 0)
(-0.000172866 9.93554e-07 0)
(-0.000183372 -2.97445e-07 0)
(-0.000182203 -4.85305e-07 0)
(-0.000176579 -9.85715e-07 0)
(-0.000166546 -1.28579e-06 0)
(-0.00015888 -4.52032e-07 0)
(-0.000155861 -3.08165e-07 0)
(-0.000154714 -4.92189e-08 0)
(-0.000153915 -2.21089e-07 0)
(-0.000150741 -5.20021e-07 0)
(-0.000146003 -1.1401e-06 0)
(-0.000139944 -1.7123e-06 0)
(-0.000130857 -2.52256e-06 0)
(-0.00011771 -3.56656e-06 0)
(-9.96551e-05 -4.76569e-06 0)
(-7.63146e-05 -5.98231e-06 0)
(-4.81089e-05 -6.98973e-06 0)
(-1.64522e-05 -7.55998e-06 0)
(1.64522e-05 -7.55998e-06 0)
(4.81089e-05 -6.98973e-06 0)
(7.63146e-05 -5.98231e-06 0)
(9.96551e-05 -4.76569e-06 0)
(0.00011771 -3.56656e-06 0)
(0.000130857 -2.52256e-06 0)
(0.000139944 -1.7123e-06 0)
(0.000146003 -1.1401e-06 0)
(0.000150741 -5.20021e-07 0)
(0.000153915 -2.21089e-07 0)
(0.000154714 -4.92189e-08 0)
(0.000155861 -3.08165e-07 0)
(0.00015888 -4.52032e-07 0)
(0.000166546 -1.28579e-06 0)
(0.000176579 -9.85715e-07 0)
(0.000182203 -4.85305e-07 0)
(0.000183372 -2.97445e-07 0)
(0.000172866 9.93554e-07 0)
(8.14214e-05 -3.54924e-05 0)
(1.12408e-07 -1.17829e-15 0)
(4.71715e-19 -9.87893e-16 0)
(3.27685e-19 -9.87894e-16 0)
(2.78151e-19 -9.87896e-16 0)
(2.40273e-19 -9.87897e-16 0)
(2.10061e-19 -9.87897e-16 0)
(1.85049e-19 -9.87898e-16 0)
(1.63728e-19 -9.87898e-16 0)
(1.45128e-19 -9.87898e-16 0)
(1.28593e-19 -9.87899e-16 0)
(1.1366e-19 -9.87899e-16 0)
(9.99904e-20 -9.87899e-16 0)
(8.73285e-20 -9.87899e-16 0)
(7.5476e-20 -9.87899e-16 0)
(6.42747e-20 -9.87899e-16 0)
(5.35955e-20 -9.87899e-16 0)
(4.33303e-20 -9.87899e-16 0)
(3.33864e-20 -9.87899e-16 0)
(2.36824e-20 -9.87899e-16 0)
(1.41444e-20 -9.87899e-16 0)
(4.70405e-21 -9.87899e-16 0)
(-4.70264e-21 -9.87896e-16 0)
(-1.41401e-20 -9.87896e-16 0)
(-2.36751e-20 -9.87895e-16 0)
(-3.33759e-20 -9.87895e-16 0)
(-4.33162e-20 -9.87895e-16 0)
(-5.35774e-20 -9.87895e-16 0)
(-6.42518e-20 -9.87895e-16 0)
(-7.54475e-20 -9.87895e-16 0)
(-8.72932e-20 -9.87895e-16 0)
(-9.99465e-20 -9.87894e-16 0)
(-1.13605e-19 -9.87894e-16 0)
(-1.28523e-19 -9.87894e-16 0)
(-1.45038e-19 -9.87893e-16 0)
(-1.6361e-19 -9.87892e-16 0)
(-1.84888e-19 -9.87891e-16 0)
(-2.09835e-19 -9.8789e-16 0)
(-2.39941e-19 -9.87888e-16 0)
(-2.77645e-19 -9.87885e-16 0)
(-3.27133e-19 -9.87881e-16 0)
(-3.96858e-19 -9.87875e-16 0)
(-1.14913e-18 -9.87913e-16 0)
(-4.033e-07 -1.66004e-15 0)
(-8.42657e-05 1.52901e-06 0)
(-0.000170992 -1.0039e-07 0)
(-0.000173839 -1.0482e-06 0)
(-0.000169751 -2.75984e-06 0)
(-0.000160446 -3.80124e-06 0)
(-0.000153339 -1.20835e-06 0)
(-0.000150803 -8.33525e-07 0)
(-0.000149952 -3.26832e-08 0)
(-0.000149445 -5.87179e-07 0)
(-0.00014662 -1.49457e-06 0)
(-0.000142291 -3.38394e-06 0)
(-0.000136637 -5.13126e-06 0)
(-0.00012805 -7.62093e-06 0)
(-0.000115467 -1.08446e-05 0)
(-9.80036e-05 -1.45568e-05 0)
(-7.52265e-05 -1.83421e-05 0)
(-4.75054e-05 -2.14854e-05 0)
(-1.62601e-05 -2.32656e-05 0)
(1.62601e-05 -2.32656e-05 0)
(4.75054e-05 -2.14854e-05 0)
(7.52265e-05 -1.83421e-05 0)
(9.80036e-05 -1.45568e-05 0)
(0.000115467 -1.08446e-05 0)
(0.00012805 -7.62093e-06 0)
(0.000136637 -5.13126e-06 0)
(0.000142291 -3.38394e-06 0)
(0.00014662 -1.49457e-06 0)
(0.000149445 -5.87179e-07 0)
(0.000149952 -3.26832e-08 0)
(0.000150803 -8.33525e-07 0)
(0.000153339 -1.20835e-06 0)
(0.000160446 -3.80124e-06 0)
(0.000169751 -2.75984e-06 0)
(0.000173839 -1.0482e-06 0)
(0.000170992 -1.0039e-07 0)
(8.42657e-05 1.52901e-06 0)
(4.033e-07 -1.66004e-15 0)
(1.14913e-18 -9.87913e-16 0)
(3.96858e-19 -9.87875e-16 0)
(3.27133e-19 -9.87881e-16 0)
(2.77645e-19 -9.87885e-16 0)
(2.39941e-19 -9.87888e-16 0)
(2.09835e-19 -9.8789e-16 0)
(1.84888e-19 -9.87891e-16 0)
(1.6361e-19 -9.87892e-16 0)
(1.45038e-19 -9.87893e-16 0)
(1.28523e-19 -9.87894e-16 0)
(1.13605e-19 -9.87894e-16 0)
(9.99465e-20 -9.87894e-16 0)
(8.72932e-20 -9.87895e-16 0)
(7.54475e-20 -9.87895e-16 0)
(6.42518e-20 -9.87895e-16 0)
(5.35774e-20 -9.87895e-16 0)
(4.33162e-20 -9.87895e-16 0)
(3.33759e-20 -9.87895e-16 0)
(2.36751e-20 -9.87895e-16 0)
(1.41401e-20 -9.87896e-16 0)
(4.70264e-21 -9.87896e-16 0)
(-4.69943e-21 -9.87893e-16 0)
(-1.41304e-20 -9.87893e-16 0)
(-2.36586e-20 -9.87893e-16 0)
(-3.33521e-20 -9.87893e-16 0)
(-4.32843e-20 -9.87893e-16 0)
(-5.35362e-20 -9.87893e-16 0)
(-6.41999e-20 -9.87893e-16 0)
(-7.53827e-20 -9.87892e-16 0)
(-8.72126e-20 -9.87892e-16 0)
(-9.98462e-20 -9.87891e-16 0)
(-1.13479e-19 -9.87891e-16 0)
(-1.28364e-19 -9.8789e-16 0)
(-1.44833e-19 -9.87889e-16 0)
(-1.63339e-19 -9.87888e-16 0)
(-1.84522e-19 -9.87886e-16 0)
(-2.09319e-19 -9.87884e-16 0)
(-2.3918e-19 -9.8788e-16 0)
(-2.76477e-19 -9.87875e-16 0)
(-3.25474e-19 -9.87867e-16 0)
(-3.96987e-19 -9.87856e-16 0)
(-5.62785e-19 -9.87846e-16 0)
(-6.7749e-19 -9.87487e-16 0)
(-5.85062e-08 -1.05437e-15 0)
(-7.89336e-05 2.40379e-08 0)
(-0.000162019 -1.03842e-06 0)
(-0.000163647 -4.529e-06 0)
(-0.000155323 -6.62903e-06 0)
(-0.000148755 -1.88516e-06 0)
(-0.000146871 -1.42237e-06 0)
(-0.000146373 4.80223e-08 0)
(-0.000146276 -9.7277e-07 0)
(-0.000143923 -2.46206e-06 0)
(-0.000140209 -5.64311e-06 0)
(-0.000135166 -8.60838e-06 0)
(-0.000127298 -1.29013e-05 0)
(-0.000115423 -1.85277e-05 0)
(-9.85337e-05 -2.50421e-05 0)
(-7.60475e-05 -3.17682e-05 0)
(-4.8216e-05 -3.73911e-05 0)
(-1.6536e-05 -4.05764e-05 0)
(1.6536e-05 -4.05764e-05 0)
(4.8216e-05 -3.73911e-05 0)
(7.60475e-05 -3.17682e-05 0)
(9.85337e-05 -2.50421e-05 0)
(0.000115423 -1.85277e-05 0)
(0.000127298 -1.29013e-05 0)
(0.000135166 -8.60838e-06 0)
(0.000140209 -5.64311e-06 0)
(0.000143923 -2.46206e-06 0)
(0.000146276 -9.7277e-07 0)
(0.000146373 4.80223e-08 0)
(0.000146871 -1.42237e-06 0)
(0.000148755 -1.88516e-06 0)
(0.000155323 -6.62903e-06 0)
(0.000163647 -4.529e-06 0)
(0.000162019 -1.03842e-06 0)
(7.89336e-05 2.40379e-08 0)
(5.85062e-08 -1.05437e-15 0)
(6.7749e-19 -9.87487e-16 0)
(5.62785e-19 -9.87846e-16 0)
(3.96987e-19 -9.87856e-16 0)
(3.25474e-19 -9.87867e-16 0)
(2.76477e-19 -9.87875e-16 0)
(2.3918e-19 -9.8788e-16 0)
(2.09319e-19 -9.87884e-16 0)
(1.84522e-19 -9.87886e-16 0)
(1.63339e-19 -9.87888e-16 0)
(1.44833e-19 -9.87889e-16 0)
(1.28364e-19 -9.8789e-16 0)
(1.13479e-19 -9.87891e-16 0)
(9.98462e-20 -9.87891e-16 0)
(8.72126e-20 -9.87892e-16 0)
(7.53827e-20 -9.87892e-16 0)
(6.41999e-20 -9.87893e-16 0)
(5.35362e-20 -9.87893e-16 0)
(4.32843e-20 -9.87893e-16 0)
(3.33521e-20 -9.87893e-16 0)
(2.36586e-20 -9.87893e-16 0)
(1.41304e-20 -9.87893e-16 0)
(4.69943e-21 -9.87893e-16 0)
(-4.6939e-21 -9.87891e-16 0)
(-1.41136e-20 -9.87891e-16 0)
(-2.363e-20 -9.87891e-16 0)
(-3.33109e-20 -9.87891e-16 0)
(-4.32291e-20 -9.8789e-16 0)
(-5.34651e-20 -9.8789e-16 0)
(-6.41103e-20 -9.8789e-16 0)
(-7.5271e-20 -9.87889e-16 0)
(-8.70739e-20 -9.87889e-16 0)
(-9.96735e-20 -9.87888e-16 0)
(-1.13263e-19 -9.87887e-16 0)
(-1.2809e-19 -9.87886e-16 0)
(-1.4448e-19 -9.87885e-16 0)
(-1.62875e-19 -9.87883e-16 0)
(-1.83893e-19 -9.8788e-16 0)
(-2.08436e-19 -9.87877e-16 0)
(-2.3788e-19 -9.87872e-16 0)
(-2.74462e-19 -9.87865e-16 0)
(-3.22243e-19 -9.87853e-16 0)
(-3.91217e-19 -9.87834e-16 0)
(-5.186e-19 -9.87793e-16 0)
(-5.6309e-19 -9.87511e-16 0)
(-4.29328e-19 -9.87319e-16 0)
(-1.88489e-09 -9.85621e-16 0)
(-6.21429e-05 -3.78563e-07 0)
(-0.000139021 -2.69338e-06 0)
(-0.000148638 -9.77903e-06 0)
(-0.000143835 -2.21946e-06 0)
(-0.000143196 -2.0686e-06 0)
(-0.000143236 3.22717e-07 0)
(-0.000143769 -1.34222e-06 0)
(-0.00014207 -3.30887e-06 0)
(-0.000139274 -7.74268e-06 0)
(-0.000135164 -1.19186e-05 0)
(-0.000128397 -1.81538e-05 0)
(-0.000117532 -2.65118e-05 0)
(-0.000101355 -3.6256e-05 0)
(-7.89893e-05 -4.65656e-05 0)
(-5.04286e-05 -5.52839e-05 0)
(-1.73516e-05 -6.02164e-05 0)
(1.73516e-05 -6.02164e-05 0)
(5.04286e-05 -5.52839e-05 0)
(7.89893e-05 -4.65656e-05 0)
(0.000101355 -3.6256e-05 0)
(0.000117532 -2.65118e-05 0)
(0.000128397 -1.81538e-05 0)
(0.000135164 -1.19186e-05 0)
(0.000139274 -7.74268e-06 0)
(0.00014207 -3.30887e-06 0)
(0.000143769 -1.34222e-06 0)
(0.000143236 3.22717e-07 0)
(0.000143196 -2.0686e-06 0)
(0.000143835 -2.21946e-06 0)
(0.000148638 -9.77903e-06 0)
(0.000139021 -2.69338e-06 0)
(6.21429e-05 -3.78563e-07 0)
(1.88489e-09 -9.85621e-16 0)
(4.29328e-19 -9.87319e-16 0)
(5.6309e-19 -9.87511e-16 0)
(5.186e-19 -9.87793e-16 0)
(3.91217e-19 -9.87834e-16 0)
(3.22243e-19 -9.87853e-16 0)
(2.74462e-19 -9.87865e-16 0)
(2.3788e-19 -9.87872e-16 0)
(2.08436e-19 -9.87877e-16 0)
(1.83893e-19 -9.8788e-16 0)
(1.62875e-19 -9.87883e-16 0)
(1.4448e-19 -9.87885e-16 0)
(1.2809e-19 -9.87886e-16 0)
(1.13263e-19 -9.87887e-16 0)
(9.96735e-20 -9.87888e-16 0)
(8.70739e-20 -9.87889e-16 0)
(7.5271e-20 -9.87889e-16 0)
(6.41103e-20 -9.8789e-16 0)
(5.34651e-20 -9.8789e-16 0)
(4.32291e-20 -9.8789e-16 0)
(3.33109e-20 -9.87891e-16 0)
(2.363e-20 -9.87891e-16 0)
(1.41136e-20 -9.87891e-16 0)
(4.6939e-21 -9.87891e-16 0)
(-4.68542e-21 -9.87888e-16 0)
(-1.40879e-20 -9.87888e-16 0)
(-2.35864e-20 -9.87888e-16 0)
(-3.32479e-20 -9.87888e-16 0)
(-4.31447e-20 -9.87888e-16 0)
(-5.33564e-20 -9.87887e-16 0)
(-6.39732e-20 -9.87887e-16 0)
(-7.51001e-20 -9.87886e-16 0)
(-8.68617e-20 -9.87885e-16 0)
(-9.94095e-20 -9.87884e-16 0)
(-1.12933e-19 -9.87883e-16 0)
(-1.27672e-19 -9.87882e-16 0)
(-1.43942e-19 -9.8788e-16 0)
(-1.62168e-19 -9.87877e-16 0)
(-1.82938e-19 -9.87874e-16 0)
(-2.07097e-19 -9.87869e-16 0)
(-2.35916e-19 -9.87863e-16 0)
(-2.71408e-19 -9.87853e-16 0)
(-3.17101e-19 -9.87838e-16 0)
(-3.80484e-19 -9.87812e-16 0)
(-4.76388e-19 -9.87752e-16 0)
(-5.03318e-19 -9.87532e-16 0)
(-3.94025e-19 -9.87367e-16 0)
(-2.28094e-19 -9.87303e-16 0)
(-2.41499e-13 -9.86531e-16 0)
(-3.23783e-05 -4.41655e-09 0)
(-9.7138e-05 -5.71511e-06 0)
(-0.000134443 -1.37537e-06 0)
(-0.000138714 -2.77259e-06 0)
(-0.000140008 9.99498e-07 0)
(-0.000141632 -1.68801e-06 0)
(-0.000140823 -3.89076e-06 0)
(-0.000139341 -9.43923e-06 0)
(-0.000136626 -1.46878e-05 0)
(-0.000131568 -2.29984e-05 0)
(-0.000122214 -3.45923e-05 0)
(-0.000107083 -4.81271e-05 0)
(-8.47741e-05 -6.31317e-05 0)
(-5.4695e-05 -7.6037e-05 0)
(-1.89051e-05 -8.32882e-05 0)
(1.89051e-05 -8.32882e-05 0)
(5.4695e-05 -7.6037e-05 0)
(8.47741e-05 -6.31317e-05 0)
(0.000107083 -4.81271e-05 0)
(0.000122214 -3.45923e-05 0)
(0.000131568 -2.29984e-05 0)
(0.000136626 -1.46878e-05 0)
(0.000139341 -9.43923e-06 0)
(0.000140823 -3.89076e-06 0)
(0.000141632 -1.68801e-06 0)
(0.000140008 9.99498e-07 0)
(0.000138714 -2.77259e-06 0)
(0.000134443 -1.37537e-06 0)
(9.7138e-05 -5.71511e-06 0)
(3.23783e-05 -4.41655e-09 0)
(2.41499e-13 -9.86531e-16 0)
(2.28094e-19 -9.87303e-16 0)
(3.94025e-19 -9.87367e-16 0)
(5.03318e-19 -9.87532e-16 0)
(4.76388e-19 -9.87752e-16 0)
(3.80484e-19 -9.87812e-16 0)
(3.17101e-19 -9.87838e-16 0)
(2.71408e-19 -9.87853e-16 0)
(2.35916e-19 -9.87863e-16 0)
(2.07097e-19 -9.87869e-16 0)
(1.82938e-19 -9.87874e-16 0)
(1.62168e-19 -9.87877e-16 0)
(1.43942e-19 -9.8788e-16 0)
(1.27672e-19 -9.87882e-16 0)
(1.12933e-19 -9.87883e-16 0)
(9.94095e-20 -9.87884e-16 0)
(8.68617e-20 -9.87885e-16 0)
(7.51001e-20 -9.87886e-16 0)
(6.39732e-20 -9.87887e-16 0)
(5.33564e-20 -9.87887e-16 0)
(4.31447e-20 -9.87888e-16 0)
(3.32479e-20 -9.87888e-16 0)
(2.35864e-20 -9.87888e-16 0)
(1.40879e-20 -9.87888e-16 0)
(4.68542e-21 -9.87888e-16 0)
(-4.67325e-21 -9.87885e-16 0)
(-1.40511e-20 -9.87885e-16 0)
(-2.35237e-20 -9.87885e-16 0)
(-3.31574e-20 -9.87885e-16 0)
(-4.30235e-20 -9.87884e-16 0)
(-5.32003e-20 -9.87884e-16 0)
(-6.37766e-20 -9.87883e-16 0)
(-7.48551e-20 -9.87883e-16 0)
(-8.65575e-20 -9.87882e-16 0)
(-9.90314e-20 -9.8788e-16 0)
(-1.1246e-19 -9.87879e-16 0)
(-1.27074e-19 -9.87877e-16 0)
(-1.43174e-19 -9.87874e-16 0)
(-1.61161e-19 -9.87871e-16 0)
(-1.81582e-19 -9.87867e-16 0)
(-2.05207e-19 -9.87861e-16 0)
(-2.33157e-19 -9.87853e-16 0)
(-2.67132e-19 -9.87842e-16 0)
(-3.09855e-19 -9.87823e-16 0)
(-3.6576e-19 -9.8779e-16 0)
(-4.36348e-19 -9.87723e-16 0)
(-4.50118e-19 -9.87549e-16 0)
(-3.61315e-19 -9.87411e-16 0)
(-2.23024e-19 -9.87353e-16 0)
(-8.28701e-20 -9.87379e-16 0)
(1.83585e-21 -9.87432e-16 0)
(-1.07805e-08 -8.05682e-16 0)
(-5.63263e-05 -2.44971e-07 0)
(-0.000121117 -1.56771e-06 0)
(-0.000134409 2.68276e-06 0)
(-0.000139218 -1.98571e-06 0)
(-0.000139842 -3.97708e-06 0)
(-0.000140219 -1.0395e-05 0)
(-0.000139567 -1.62365e-05 0)
(-0.000137258 -2.66961e-05 0)
(-0.000130199 -4.24249e-05 0)
(-0.000116805 -6.02438e-05 0)
(-9.47791e-05 -8.19827e-05 0)
(-6.20472e-05 -0.000101071 0)
(-2.15531e-05 -0.000111556 0)
(2.15531e-05 -0.000111556 0)
(6.20472e-05 -0.000101071 0)
(9.47791e-05 -8.19827e-05 0)
(0.000116805 -6.02438e-05 0)
(0.000130199 -4.24249e-05 0)
(0.000137258 -2.66961e-05 0)
(0.000139567 -1.62365e-05 0)
(0.000140219 -1.0395e-05 0)
(0.000139842 -3.97708e-06 0)
(0.000139218 -1.98571e-06 0)
(0.000134409 2.68276e-06 0)
(0.000121117 -1.56771e-06 0)
(5.63263e-05 -2.44971e-07 0)
(1.07805e-08 -8.05682e-16 0)
(-1.83585e-21 -9.87432e-16 0)
(8.28701e-20 -9.87379e-16 0)
(2.23024e-19 -9.87353e-16 0)
(3.61315e-19 -9.87411e-16 0)
(4.50118e-19 -9.87549e-16 0)
(4.36348e-19 -9.87723e-16 0)
(3.6576e-19 -9.8779e-16 0)
(3.09855e-19 -9.87823e-16 0)
(2.67132e-19 -9.87842e-16 0)
(2.33157e-19 -9.87853e-16 0)
(2.05207e-19 -9.87861e-16 0)
(1.81582e-19 -9.87867e-16 0)
(1.61161e-19 -9.87871e-16 0)
(1.43174e-19 -9.87874e-16 0)
(1.27074e-19 -9.87877e-16 0)
(1.1246e-19 -9.87879e-16 0)
(9.90314e-20 -9.8788e-16 0)
(8.65575e-20 -9.87882e-16 0)
(7.48551e-20 -9.87883e-16 0)
(6.37766e-20 -9.87883e-16 0)
(5.32003e-20 -9.87884e-16 0)
(4.30235e-20 -9.87884e-16 0)
(3.31574e-20 -9.87885e-16 0)
(2.35237e-20 -9.87885e-16 0)
(1.40511e-20 -9.87885e-16 0)
(4.67325e-21 -9.87885e-16 0)
(-4.65649e-21 -9.87882e-16 0)
(-1.40003e-20 -9.87882e-16 0)
(-2.34373e-20 -9.87882e-16 0)
(-3.30329e-20 -9.87882e-16 0)
(-4.28567e-20 -9.87881e-16 0)
(-5.29855e-20 -9.8788e-16 0)
(-6.35061e-20 -9.8788e-16 0)
(-7.45182e-20 -9.87879e-16 0)
(-8.61397e-20 -9.87877e-16 0)
(-9.85126e-20 -9.87876e-16 0)
(-1.11811e-19 -9.87874e-16 0)
(-1.26256e-19 -9.87872e-16 0)
(-1.42126e-19 -9.87869e-16 0)
(-1.59792e-19 -9.87865e-16 0)
(-1.79746e-19 -9.8786e-16 0)
(-2.0266e-19 -9.87853e-16 0)
(-2.29472e-19 -9.87843e-16 0)
(-2.61488e-19 -9.87829e-16 0)
(-3.00469e-19 -9.87808e-16 0)
(-3.48008e-19 -9.87771e-16 0)
(-3.98633e-19 -9.87702e-16 0)
(-4.02963e-19 -9.87564e-16 0)
(-3.30839e-19 -9.8745e-16 0)
(-2.17667e-19 -9.87399e-16 0)
(-1.04971e-19 -9.87418e-16 0)
(-4.47791e-20 -9.87511e-16 0)
(-1.36046e-19 -9.8764e-16 0)
(-6.97737e-20 -9.85913e-16 0)
(-7.49867e-07 -2.06198e-15 0)
(-6.21896e-05 1.94584e-06 0)
(-0.000128146 -1.05844e-06 0)
(-0.000136673 -2.99804e-06 0)
(-0.000140713 -1.01573e-05 0)
(-0.000143399 -1.51781e-05 0)
(-0.000146014 -2.76572e-05 0)
(-0.000142424 -4.97227e-05 0)
(-0.000132216 -7.10589e-05 0)
(-0.000111635 -0.000103805 0)
(-7.43756e-05 -0.000132941 0)
(-2.58929e-05 -0.000147954 0)
(2.58929e-05 -0.000147954 0)
(7.43756e-05 -0.000132941 0)
(0.000111635 -0.000103805 0)
(0.000132216 -7.10589e-05 0)
(0.000142424 -4.97227e-05 0)
(0.000146014 -2.76572e-05 0)
(0.000143399 -1.51781e-05 0)
(0.000140713 -1.01573e-05 0)
(0.000136673 -2.99804e-06 0)
(0.000128146 -1.05844e-06 0)
(6.21896e-05 1.94584e-06 0)
(7.49867e-07 -2.06198e-15 0)
(6.97737e-20 -9.85913e-16 0)
(1.36046e-19 -9.8764e-16 0)
(4.47791e-20 -9.87511e-16 0)
(1.04971e-19 -9.87418e-16 0)
(2.17667e-19 -9.87399e-16 0)
(3.30839e-19 -9.8745e-16 0)
(4.02963e-19 -9.87564e-16 0)
(3.98633e-19 -9.87702e-16 0)
(3.48008e-19 -9.87771e-16 0)
(3.00469e-19 -9.87808e-16 0)
(2.61488e-19 -9.87829e-16 0)
(2.29472e-19 -9.87843e-16 0)
(2.0266e-19 -9.87853e-16 0)
(1.79746e-19 -9.8786e-16 0)
(1.59792e-19 -9.87865e-16 0)
(1.42126e-19 -9.87869e-16 0)
(1.26256e-19 -9.87872e-16 0)
(1.11811e-19 -9.87874e-16 0)
(9.85126e-20 -9.87876e-16 0)
(8.61397e-20 -9.87877e-16 0)
(7.45182e-20 -9.87879e-16 0)
(6.35061e-20 -9.8788e-16 0)
(5.29855e-20 -9.8788e-16 0)
(4.28567e-20 -9.87881e-16 0)
(3.30329e-20 -9.87882e-16 0)
(2.34373e-20 -9.87882e-16 0)
(1.40003e-20 -9.87882e-16 0)
(4.65649e-21 -9.87882e-16 0)
(-4.63406e-21 -9.87879e-16 0)
(-1.39323e-20 -9.87879e-16 0)
(-2.33218e-20 -9.87878e-16 0)
(-3.28662e-20 -9.87878e-16 0)
(-4.26336e-20 -9.87877e-16 0)
(-5.26985e-20 -9.87877e-16 0)
(-6.31449e-20 -9.87876e-16 0)
(-7.40687e-20 -9.87875e-16 0)
(-8.55828e-20 -9.87873e-16 0)
(-9.78219e-20 -9.87871e-16 0)
(-1.1095e-19 -9.87869e-16 0)
(-1.25171e-19 -9.87866e-16 0)
(-1.40741e-19 -9.87863e-16 0)
(-1.57989e-19 -9.87858e-16 0)
(-1.77342e-19 -9.87852e-16 0)
(-1.99356e-19 -9.87844e-16 0)
(-2.24747e-19 -9.87833e-16 0)
(-2.54382e-19 -9.87817e-16 0)
(-2.89051e-19 -9.87793e-16 0)
(-3.28131e-19 -9.87754e-16 0)
(-3.63345e-19 -9.87687e-16 0)
(-3.61283e-19 -9.87578e-16 0)
(-3.02803e-19 -9.87484e-16 0)
(-2.11728e-19 -9.8744e-16 0)
(-1.22318e-19 -9.87452e-16 0)
(-7.60198e-20 -9.87516e-16 0)
(-1.18061e-19 -9.87586e-16 0)
(-8.78122e-20 -9.87447e-16 0)
(-1.4377e-19 -9.8765e-16 0)
(-3.78939e-20 -9.72444e-16 0)
(-7.17939e-07 -2.45169e-15 0)
(-5.93164e-05 -1.06777e-06 0)
(-0.000123723 -4.83741e-06 0)
(-0.000138696 -6.88033e-06 0)
(-0.000154895 -2.07417e-05 0)
(-0.000157917 -5.75535e-05 0)
(-0.000154937 -7.44325e-05 0)
(-0.000140665 -0.00012965 0)
(-9.51047e-05 -0.000176896 0)
(-3.27831e-05 -0.000197374 0)
(3.27831e-05 -0.000197374 0)
(9.51047e-05 -0.000176896 0)
(0.000140665 -0.00012965 0)
(0.000154937 -7.44325e-05 0)
(0.000157917 -5.75535e-05 0)
(0.000154895 -2.07417e-05 0)
(0.000138696 -6.88033e-06 0)
(0.000123723 -4.83741e-06 0)
(5.93164e-05 -1.06777e-06 0)
(7.17939e-07 -2.45169e-15 0)
(3.78939e-20 -9.72444e-16 0)
(1.4377e-19 -9.8765e-16 0)
(8.78122e-20 -9.87447e-16 0)
(1.18061e-19 -9.87586e-16 0)
(7.60198e-20 -9.87516e-16 0)
(1.22318e-19 -9.87452e-16 0)
(2.11728e-19 -9.8744e-16 0)
(3.02803e-19 -9.87484e-16 0)
(3.61283e-19 -9.87578e-16 0)
(3.63345e-19 -9.87687e-16 0)
(3.28131e-19 -9.87754e-16 0)
(2.89051e-19 -9.87793e-16 0)
(2.54382e-19 -9.87817e-16 0)
(2.24747e-19 -9.87833e-16 0)
(1.99356e-19 -9.87844e-16 0)
(1.77342e-19 -9.87852e-16 0)
(1.57989e-19 -9.87858e-16 0)
(1.40741e-19 -9.87863e-16 0)
(1.25171e-19 -9.87866e-16 0)
(1.1095e-19 -9.87869e-16 0)
(9.78219e-20 -9.87871e-16 0)
(8.55828e-20 -9.87873e-16 0)
(7.40687e-20 -9.87875e-16 0)
(6.31449e-20 -9.87876e-16 0)
(5.26985e-20 -9.87877e-16 0)
(4.26336e-20 -9.87877e-16 0)
(3.28662e-20 -9.87878e-16 0)
(2.33218e-20 -9.87878e-16 0)
(1.39323e-20 -9.87879e-16 0)
(4.63406e-21 -9.87879e-16 0)
(-4.6047e-21 -9.87875e-16 0)
(-1.38434e-20 -9.87875e-16 0)
(-2.31707e-20 -9.87875e-16 0)
(-3.26482e-20 -9.87874e-16 0)
(-4.23419e-20 -9.87873e-16 0)
(-5.23235e-20 -9.87873e-16 0)
(-6.26732e-20 -9.87871e-16 0)
(-7.34824e-20 -9.8787e-16 0)
(-8.48574e-20 -9.87868e-16 0)
(-9.69238e-20 -9.87866e-16 0)
(-1.09833e-19 -9.87864e-16 0)
(-1.23768e-19 -9.8786e-16 0)
(-1.38957e-19 -9.87856e-16 0)
(-1.5568e-19 -9.87851e-16 0)
(-1.74286e-19 -9.87844e-16 0)
(-1.95198e-19 -9.87835e-16 0)
(-2.18894e-19 -9.87822e-16 0)
(-2.45794e-19 -9.87805e-16 0)
(-2.7583e-19 -9.87779e-16 0)
(-3.06942e-19 -9.87739e-16 0)
(-3.30529e-19 -9.87678e-16 0)
(-3.2448e-19 -9.87591e-16 0)
(-2.77202e-19 -9.87515e-16 0)
(-2.04951e-19 -9.87475e-16 0)
(-1.34533e-19 -9.8748e-16 0)
(-9.63297e-20 -9.87522e-16 0)
(-1.09754e-19 -9.87558e-16 0)
(-9.40756e-20 -9.87493e-16 0)
(-1.12841e-19 -9.87574e-16 0)
(-5.11901e-20 -9.87376e-16 0)
(-4.66133e-20 -9.87616e-16 0)
(3.35517e-20 -9.74154e-16 0)
(-2.00915e-20 -8.13867e-16 0)
(-2.18877e-07 -1.58928e-15 0)
(-3.09886e-05 -7.15241e-06 0)
(-9.56198e-05 -3.09444e-05 0)
(-0.000168037 -3.69091e-05 0)
(-0.000189009 -0.000160667 0)
(-0.00012825 -0.000244517 0)
(-4.24278e-05 -0.000266894 0)
(4.24278e-05 -0.000266894 0)
(0.00012825 -0.000244517 0)
(0.000189009 -0.000160667 0)
(0.000168037 -3.69091e-05 0)
(9.56198e-05 -3.09444e-05 0)
(3.09886e-05 -7.15241e-06 0)
(2.18877e-07 -1.58928e-15 0)
(2.00915e-20 -8.13867e-16 0)
(-3.35517e-20 -9.74154e-16 0)
(4.66133e-20 -9.87616e-16 0)
(5.11901e-20 -9.87376e-16 0)
(1.12841e-19 -9.87574e-16 0)
(9.40756e-20 -9.87493e-16 0)
(1.09754e-19 -9.87558e-16 0)
(9.63297e-20 -9.87522e-16 0)
(1.34533e-19 -9.8748e-16 0)
(2.04951e-19 -9.87475e-16 0)
(2.77202e-19 -9.87515e-16 0)
(3.2448e-19 -9.87591e-16 0)
(3.30529e-19 -9.87678e-16 0)
(3.06942e-19 -9.87739e-16 0)
(2.7583e-19 -9.87779e-16 0)
(2.45794e-19 -9.87805e-16 0)
(2.18894e-19 -9.87822e-16 0)
(1.95198e-19 -9.87835e-16 0)
(1.74286e-19 -9.87844e-16 0)
(1.5568e-19 -9.87851e-16 0)
(1.38957e-19 -9.87856e-16 0)
(1.23768e-19 -9.8786e-16 0)
(1.09833e-19 -9.87864e-16 0)
(9.69238e-20 -9.87866e-16 0)
(8.48574e-20 -9.87868e-16 0)
(7.34824e-20 -9.8787e-16 0)
(6.26732e-20 -9.87871e-16 0)
(5.23235e-20 -9.87873e-16 0)
(4.23419e-20 -9.87873e-16 0)
(3.26482e-20 -9.87874e-16 0)
(2.31707e-20 -9.87875e-16 0)
(1.38434e-20 -9.87875e-16 0)
(4.6047e-21 -9.87875e-16 0)
(-4.56692e-21 -9.87871e-16 0)
(-1.3729e-20 -9.87871e-16 0)
(-2.29763e-20 -9.8787e-16 0)
(-3.23681e-20 -9.8787e-16 0)
(-4.19673e-20 -9.87869e-16 0)
(-5.18422e-20 -9.87868e-16 0)
(-6.20685e-20 -9.87867e-16 0)
(-7.27318e-20 -9.87865e-16 0)
(-8.39304e-20 -9.87863e-16 0)
(-9.57788e-20 -9.87861e-16 0)
(-1.08412e-19 -9.87858e-16 0)
(-1.21991e-19 -9.87854e-16 0)
(-1.36708e-19 -9.87849e-16 0)
(-1.52789e-19 -9.87843e-16 0)
(-1.70496e-19 -9.87835e-16 0)
(-1.90109e-19 -9.87825e-16 0)
(-2.11865e-19 -9.87812e-16 0)
(-2.35777e-19 -9.87793e-16 0)
(-2.61125e-19 -9.87766e-16 0)
(-2.8513e-19 -9.87728e-16 0)
(-3.00168e-19 -9.87673e-16 0)
(-2.91948e-19 -9.87602e-16 0)
(-2.53869e-19 -9.87541e-16 0)
(-1.9717e-19 -9.87506e-16 0)
(-1.41808e-19 -9.87505e-16 0)
(-1.08794e-19 -9.87529e-16 0)
(-1.06174e-19 -9.87547e-16 0)
(-9.43993e-20 -9.87517e-16 0)
(-9.42019e-20 -9.87543e-16 0)
(-5.50746e-20 -9.87452e-16 0)
(-3.67173e-20 -9.87551e-16 0)
(8.97825e-21 -9.8742e-16 0)
(6.35569e-20 -9.87565e-16 0)
(4.4142e-20 -9.8752e-16 0)
(9.4595e-20 -9.8406e-16 0)
(-1.371e-10 -9.27945e-16 0)
(-7.60422e-06 -3.95433e-07 0)
(-8.70762e-05 -0.000103796 0)
(-0.00012558 -0.000321693 0)
(-4.6108e-05 -0.000356438 0)
(4.6108e-05 -0.000356438 0)
(0.00012558 -0.000321693 0)
(8.70762e-05 -0.000103796 0)
(7.60422e-06 -3.95433e-07 0)
(1.371e-10 -9.27945e-16 0)
(-9.4595e-20 -9.8406e-16 0)
(-4.4142e-20 -9.8752e-16 0)
(-6.35569e-20 -9.87565e-16 0)
(-8.97825e-21 -9.8742e-16 0)
(3.67173e-20 -9.87551e-16 0)
(5.50746e-20 -9.87452e-16 0)
(9.42019e-20 -9.87543e-16 0)
(9.43993e-20 -9.87517e-16 0)
(1.06174e-19 -9.87547e-16 0)
(1.08794e-19 -9.87529e-16 0)
(1.41808e-19 -9.87505e-16 0)
(1.9717e-19 -9.87506e-16 0)
(2.53869e-19 -9.87541e-16 0)
(2.91948e-19 -9.87602e-16 0)
(3.00168e-19 -9.87673e-16 0)
(2.8513e-19 -9.87728e-16 0)
(2.61125e-19 -9.87766e-16 0)
(2.35777e-19 -9.87793e-16 0)
(2.11865e-19 -9.87812e-16 0)
(1.90109e-19 -9.87825e-16 0)
(1.70496e-19 -9.87835e-16 0)
(1.52789e-19 -9.87843e-16 0)
(1.36708e-19 -9.87849e-16 0)
(1.21991e-19 -9.87854e-16 0)
(1.08412e-19 -9.87858e-16 0)
(9.57788e-20 -9.87861e-16 0)
(8.39304e-20 -9.87863e-16 0)
(7.27318e-20 -9.87865e-16 0)
(6.20685e-20 -9.87867e-16 0)
(5.18422e-20 -9.87868e-16 0)
(4.19673e-20 -9.87869e-16 0)
(3.23681e-20 -9.8787e-16 0)
(2.29763e-20 -9.8787e-16 0)
(1.3729e-20 -9.87871e-16 0)
(4.56692e-21 -9.87871e-16 0)
(-4.51905e-21 -9.87867e-16 0)
(-1.3584e-20 -9.87866e-16 0)
(-2.273e-20 -9.87866e-16 0)
(-3.20134e-20 -9.87865e-16 0)
(-4.14934e-20 -9.87864e-16 0)
(-5.12339e-20 -9.87863e-16 0)
(-6.13054e-20 -9.87862e-16 0)
(-7.17862e-20 -9.8786e-16 0)
(-8.2765e-20 -9.87858e-16 0)
(-9.43433e-20 -9.87855e-16 0)
(-1.06638e-19 -9.87851e-16 0)
(-1.19782e-19 -9.87847e-16 0)
(-1.33929e-19 -9.87842e-16 0)
(-1.49246e-19 -9.87835e-16 0)
(-1.65903e-19 -9.87827e-16 0)
(-1.84037e-19 -9.87816e-16 0)
(-2.03663e-19 -9.87801e-16 0)
(-2.24463e-19 -9.87782e-16 0)
(-2.45303e-19 -9.87755e-16 0)
(-2.63257e-19 -9.87718e-16 0)
(-2.72185e-19 -9.8767e-16 0)
(-2.63094e-19 -9.87613e-16 0)
(-2.32533e-19 -9.87563e-16 0)
(-1.8833e-19 -9.87533e-16 0)
(-1.44678e-19 -9.87527e-16 0)
(-1.15517e-19 -9.87537e-16 0)
(-1.04341e-19 -9.87545e-16 0)
(-9.21074e-20 -9.8753e-16 0)
(-8.26585e-20 -9.87534e-16 0)
(-5.45864e-20 -9.87493e-16 0)
(-3.21136e-20 -9.87529e-16 0)
(1.50783e-21 -9.8748e-16 0)
(4.03052e-20 -9.87533e-16 0)
(4.36563e-20 -9.87536e-16 0)
(5.67601e-20 -9.87545e-16 0)
(5.57629e-20 -9.87588e-16 0)
(-1.16792e-09 -1.5874e-14 0)
(-6.89241e-06 -2.14094e-05 0)
(-2.50987e-05 -0.000344474 0)
(-1.82075e-05 -0.00042667 0)
(1.82075e-05 -0.00042667 0)
(2.50987e-05 -0.000344474 0)
(6.89241e-06 -2.14094e-05 0)
(1.16792e-09 -1.5874e-14 0)
(-5.57629e-20 -9.87588e-16 0)
(-5.67601e-20 -9.87545e-16 0)
(-4.36563e-20 -9.87536e-16 0)
(-4.03052e-20 -9.87533e-16 0)
(-1.50783e-21 -9.8748e-16 0)
(3.21136e-20 -9.87529e-16 0)
(5.45864e-20 -9.87493e-16 0)
(8.26585e-20 -9.87534e-16 0)
(9.21074e-20 -9.8753e-16 0)
(1.04341e-19 -9.87545e-16 0)
(1.15517e-19 -9.87537e-16 0)
(1.44678e-19 -9.87527e-16 0)
(1.8833e-19 -9.87533e-16 0)
(2.32533e-19 -9.87563e-16 0)
(2.63094e-19 -9.87613e-16 0)
(2.72185e-19 -9.8767e-16 0)
(2.63257e-19 -9.87718e-16 0)
(2.45303e-19 -9.87755e-16 0)
(2.24463e-19 -9.87782e-16 0)
(2.03663e-19 -9.87801e-16 0)
(1.84037e-19 -9.87816e-16 0)
(1.65903e-19 -9.87827e-16 0)
(1.49246e-19 -9.87835e-16 0)
(1.33929e-19 -9.87842e-16 0)
(1.19782e-19 -9.87847e-16 0)
(1.06638e-19 -9.87851e-16 0)
(9.43433e-20 -9.87855e-16 0)
(8.2765e-20 -9.87858e-16 0)
(7.17862e-20 -9.8786e-16 0)
(6.13054e-20 -9.87862e-16 0)
(5.12339e-20 -9.87863e-16 0)
(4.14934e-20 -9.87864e-16 0)
(3.20134e-20 -9.87865e-16 0)
(2.273e-20 -9.87866e-16 0)
(1.3584e-20 -9.87866e-16 0)
(4.51905e-21 -9.87867e-16 0)
(-4.45915e-21 -9.87862e-16 0)
(-1.34026e-20 -9.87861e-16 0)
(-2.24222e-20 -9.87861e-16 0)
(-3.15703e-20 -9.8786e-16 0)
(-4.09019e-20 -9.87859e-16 0)
(-5.04758e-20 -9.87858e-16 0)
(-6.03558e-20 -9.87856e-16 0)
(-7.0612e-20 -9.87854e-16 0)
(-8.1322e-20 -9.87852e-16 0)
(-9.2572e-20 -9.87848e-16 0)
(-1.04458e-19 -9.87845e-16 0)
(-1.17084e-19 -9.8784e-16 0)
(-1.3056e-19 -9.87834e-16 0)
(-1.44991e-19 -9.87827e-16 0)
(-1.60459e-19 -9.87818e-16 0)
(-1.76966e-19 -9.87806e-16 0)
(-1.94345e-19 -9.87791e-16 0)
(-2.12042e-19 -9.87771e-16 0)
(-2.28742e-19 -9.87745e-16 0)
(-2.41748e-19 -9.87712e-16 0)
(-2.46449e-19 -9.8767e-16 0)
(-2.37352e-19 -9.87623e-16 0)
(-2.12883e-19 -9.87582e-16 0)
(-1.78483e-19 -9.87556e-16 0)
(-1.43841e-19 -9.87546e-16 0)
(-1.17943e-19 -9.87548e-16 0)
(-1.02621e-19 -9.87549e-16 0)
(-8.88275e-20 -9.87541e-16 0)
(-7.51197e-20 -9.87537e-16 0)
(-5.25108e-20 -9.87517e-16 0)
(-3.01307e-20 -9.87529e-16 0)
(-2.99809e-21 -9.87513e-16 0)
(2.26459e-20 -9.87536e-16 0)
(2.95433e-20 -9.87545e-16 0)
(3.48964e-20 -9.87557e-16 0)
(3.45064e-20 -9.87574e-16 0)
(4.9465e-20 -2.26246e-15 0)
(-6.2035e-07 -1.13006e-05 0)
(-4.72954e-06 -0.000327023 0)
(-4.10919e-06 -0.000453559 0)
(4.10919e-06 -0.000453559 0)
(4.72954e-06 -0.000327023 0)
(6.2035e-07 -1.13006e-05 0)
(-4.9465e-20 -2.26246e-15 0)
(-3.45064e-20 -9.87574e-16 0)
(-3.48964e-20 -9.87557e-16 0)
(-2.95433e-20 -9.87545e-16 0)
(-2.26459e-20 -9.87536e-16 0)
(2.99809e-21 -9.87513e-16 0)
(3.01307e-20 -9.87529e-16 0)
(5.25108e-20 -9.87517e-16 0)
(7.51197e-20 -9.87537e-16 0)
(8.88275e-20 -9.87541e-16 0)
(1.02621e-19 -9.87549e-16 0)
(1.17943e-19 -9.87548e-16 0)
(1.43841e-19 -9.87546e-16 0)
(1.78483e-19 -9.87556e-16 0)
(2.12883e-19 -9.87582e-16 0)
(2.37352e-19 -9.87623e-16 0)
(2.46449e-19 -9.8767e-16 0)
(2.41748e-19 -9.87712e-16 0)
(2.28742e-19 -9.87745e-16 0)
(2.12042e-19 -9.87771e-16 0)
(1.94345e-19 -9.87791e-16 0)
(1.76966e-19 -9.87806e-16 0)
(1.60459e-19 -9.87818e-16 0)
(1.44991e-19 -9.87827e-16 0)
(1.3056e-19 -9.87834e-16 0)
(1.17084e-19 -9.8784e-16 0)
(1.04458e-19 -9.87845e-16 0)
(9.2572e-20 -9.87848e-16 0)
(8.1322e-20 -9.87852e-16 0)
(7.0612e-20 -9.87854e-16 0)
(6.03558e-20 -9.87856e-16 0)
(5.04758e-20 -9.87858e-16 0)
(4.09019e-20 -9.87859e-16 0)
(3.15703e-20 -9.8786e-16 0)
(2.24222e-20 -9.87861e-16 0)
(1.34026e-20 -9.87861e-16 0)
(4.45915e-21 -9.87862e-16 0)
(-4.38513e-21 -9.87856e-16 0)
(-1.31786e-20 -9.87856e-16 0)
(-2.2042e-20 -9.87856e-16 0)
(-3.10235e-20 -9.87855e-16 0)
(-4.01729e-20 -9.87854e-16 0)
(-4.95429e-20 -9.87852e-16 0)
(-5.91898e-20 -9.8785e-16 0)
(-6.9174e-20 -9.87848e-16 0)
(-7.95605e-20 -9.87845e-16 0)
(-9.04187e-20 -9.87842e-16 0)
(-1.01822e-19 -9.87838e-16 0)
(-1.13842e-19 -9.87832e-16 0)
(-1.26548e-19 -9.87826e-16 0)
(-1.39982e-19 -9.87818e-16 0)
(-1.54143e-19 -9.87809e-16 0)
(-1.68923e-19 -9.87797e-16 0)
(-1.84018e-19 -9.87781e-16 0)
(-1.98748e-19 -9.87762e-16 0)
(-2.118e-19 -9.87737e-16 0)
(-2.20904e-19 -9.87707e-16 0)
(-2.22788e-19 -9.87671e-16 0)
(-2.14204e-19 -9.87633e-16 0)
(-1.94616e-19 -9.87599e-16 0)
(-1.67763e-19 -9.87575e-16 0)
(-1.40029e-19 -9.87563e-16 0)
(-1.17104e-19 -9.87559e-16 0)
(-1.00229e-19 -9.87557e-16 0)
(-8.52018e-20 -9.8755e-16 0)
(-6.97964e-20 -9.87544e-16 0)
(-5.01585e-20 -9.87535e-16 0)
(-2.95284e-20 -9.87537e-16 0)
(-7.21817e-21 -9.87534e-16 0)
(1.02983e-20 -9.87545e-16 0)
(1.66507e-20 -9.87553e-16 0)
(2.05368e-20 -9.87562e-16 0)
(2.12339e-20 -9.8757e-16 0)
(2.46338e-20 -1.59118e-15 0)
(-5.05923e-08 -9.30131e-06 0)
(-1.88449e-06 -0.00031937 0)
(-1.83389e-06 -0.000461631 0)
(1.83389e-06 -0.000461631 0)