/*--------------------------------*- C++ -*----------------------------------*\
  =========                 |
  \\      /  F ield         | OpenFOAM: The Open Source CFD Toolbox
   \\    /   O peration     | Website:  https://openfoam.org
    \\  /    A nd           | Version:  10
     \\/     M anipulation  |
\*---------------------------------------------------------------------------*/
FoamFile
{
    format      ascii;
    class       volScalarField;
    location    "400";
    object      p;
}
// * * * * * * * * * * * * * * * * * * * * * * * * * * * * * * * * * * * * * //

dimensions      [1 -1 -2 0 0 0 0];

internalField   nonuniform List<scalar> 
6400
(
102.168
102.169
102.169
102.17
102.172
102.173
102.175
102.178
102.18
102.183
102.186
102.189
102.193
102.197
102.2
102.204
102.208
102.212
102.216
102.22
102.224
102.228
102.232
102.235
102.239
102.242
102.245
102.248
102.25
102.253
102.255
102.256
102.257
102.258
102.258
102.258
102.259
102.259
102.259
102.259
102.259
102.259
102.259
102.259
102.258
102.258
102.258
102.257
102.256
102.255
102.253
102.25
102.248
102.245
102.242
102.239
102.235
102.232
102.228
102.224
102.22
102.216
102.212
102.208
102.204
102.2
102.197
102.193
102.189
102.186
102.183
102.18
102.178
102.175
102.173
102.172
102.17
102.169
102.169
102.168
101.874
101.875
101.875
101.876
101.878
101.879
101.881
101.884
101.886
101.889
101.892
101.895
101.899
101.903
101.906
101.91
101.914
101.918
101.922
101.926
101.93
101.934
101.938
101.941
101.945
101.948
101.951
101.954
101.956
101.959
101.961
101.962
101.963
101.964
101.964
101.964
101.965
101.965
101.965
101.965
101.965
101.965
101.965
101.965
101.964
101.964
101.964
101.963
101.962
101.961
101.959
101.956
101.954
101.951
101.948
101.945
101.941
101.938
101.934
101.93
101.926
101.922
101.918
101.914
101.91
101.906
101.903
101.899
101.895
101.892
101.889
101.886
101.884
101.881
101.879
101.878
101.876
101.875
101.875
101.874
101.552
101.552
101.553
101.554
101.555
101.557
101.559
101.561
101.564
101.567
101.57
101.573
101.576
101.58
101.584
101.588
101.592
101.596
101.6
101.604
101.608
101.612
101.615
101.619
101.622
101.626
101.629
101.631
101.634
101.636
101.638
101.64
101.641
101.641
101.642
101.642
101.642
101.642
101.643
101.643
101.643
101.643
101.642
101.642
101.642
101.642
101.641
101.641
101.64
101.638
101.636
101.634
101.631
101.629
101.626
101.622
101.619
101.615
101.612
101.608
101.604
101.6
101.596
101.592
101.588
101.584
101.58
101.576
101.573
101.57
101.567
101.564
101.561
101.559
101.557
101.555
101.554
101.553
101.552
101.552
101.198
101.198
101.199
101.2
101.201
101.203
101.205
101.207
101.21
101.213
101.216
101.219
101.223
101.226
101.23
101.234
101.238
101.242
101.246
101.25
101.254
101.258
101.262
101.265
101.269
101.272
101.275
101.278
101.28
101.283
101.285
101.286
101.287
101.288
101.288
101.288
101.289
101.289
101.289
101.289
101.289
101.289
101.289
101.289
101.288
101.288
101.288
101.287
101.286
101.285
101.283
101.28
101.278
101.275
101.272
101.269
101.265
101.262
101.258
101.254
101.25
101.246
101.242
101.238
101.234
101.23
101.226
101.223
101.219
101.216
101.213
101.21
101.207
101.205
101.203
101.201
101.2
101.199
101.198
101.198
100.81
100.81
100.811
100.812
100.813
100.815
100.817
100.819
100.822
100.825
100.828
100.831
100.835
100.838
100.842
100.846
100.85
100.854
100.858
100.862
100.866
100.87
100.874
100.877
100.881
100.884
100.887
100.89
100.893
100.895
100.897
100.898
100.899
100.9
100.9
100.901
100.901
100.901
100.901
100.901
100.901
100.901
100.901
100.901
100.901
100.9
100.9
100.899
100.898
100.897
100.895
100.893
100.89
100.887
100.884
100.881
100.877
100.874
100.87
100.866
100.862
100.858
100.854
100.85
100.846
100.842
100.838
100.835
100.831
100.828
100.825
100.822
100.819
100.817
100.815
100.813
100.812
100.811
100.81
100.81
100.384
100.385
100.385
100.386
100.388
100.39
100.392
100.394
100.396
100.399
100.402
100.406
100.409
100.413
100.417
100.421
100.425
100.429
100.433
100.437
100.441
100.445
100.448
100.452
100.455
100.459
100.462
100.465
100.467
100.469
100.471
100.473
100.474
100.474
100.475
100.475
100.475
100.476
100.476
100.476
100.476
100.476
100.476
100.475
100.475
100.475
100.474
100.474
100.473
100.471
100.469
100.467
100.465
100.462
100.459
100.455
100.452
100.448
100.445
100.441
100.437
100.433
100.429
100.425
100.421
100.417
100.413
100.409
100.406
100.402
100.399
100.396
100.394
100.392
100.39
100.388
100.386
100.385
100.385
100.384
99.9175
99.9178
99.9185
99.9196
99.921
99.9227
99.9247
99.927
99.9296
99.9325
99.9356
99.9389
99.9424
99.9461
99.9499
99.9538
99.9578
99.9619
99.9659
99.97
99.974
99.9779
99.9817
99.9854
99.9889
99.9922
99.9953
99.9981
100.001
100.003
100.005
100.006
100.007
100.008
100.008
100.009
100.009
100.009
100.009
100.009
100.009
100.009
100.009
100.009
100.009
100.008
100.008
100.007
100.006
100.005
100.003
100.001
99.9981
99.9953
99.9922
99.9889
99.9854
99.9817
99.9779
99.974
99.97
99.9659
99.9619
99.9578
99.9538
99.9499
99.9461
99.9424
99.9389
99.9356
99.9325
99.9296
99.927
99.9247
99.9227
99.921
99.9196
99.9185
99.9178
99.9175
99.4054
99.4057
99.4064
99.4075
99.4089
99.4106
99.4126
99.4149
99.4176
99.4204
99.4236
99.4269
99.4304
99.4341
99.438
99.4419
99.4459
99.45
99.4541
99.4582
99.4622
99.4661
99.4699
99.4736
99.4772
99.4805
99.4836
99.4864
99.489
99.4912
99.4932
99.4948
99.4958
99.4963
99.4967
99.497
99.4973
99.4976
99.4977
99.4978
99.4978
99.4977
99.4976
99.4973
99.497
99.4967
99.4963
99.4958
99.4948
99.4932
99.4912
99.489
99.4864
99.4836
99.4805
99.4772
99.4736
99.4699
99.4661
99.4622
99.4582
99.4541
99.45
99.4459
99.4419
99.438
99.4341
99.4304
99.4269
99.4236
99.4204
99.4176
99.4149
99.4126
99.4106
99.4089
99.4075
99.4064
99.4057
99.4054
98.8436
98.844
98.8447
98.8457
98.8471
98.8489
98.8509
98.8533
98.8559
98.8588
98.8619
98.8653
98.8688
98.8726
98.8764
98.8804
98.8845
98.8886
98.8927
98.8968
98.9008
98.9048
98.9086
98.9124
98.9159
98.9192
98.9224
98.9252
98.9278
98.9301
98.9321
98.9337
98.9346
98.9352
98.9356
98.936
98.9362
98.9365
98.9366
98.9367
98.9367
98.9366
98.9365
98.9362
98.936
98.9356
98.9352
98.9346
98.9337
98.9321
98.9301
98.9278
98.9252
98.9224
98.9192
98.9159
98.9124
98.9086
98.9048
98.9008
98.8968
98.8927
98.8886
98.8845
98.8804
98.8764
98.8726
98.8688
98.8653
98.8619
98.8588
98.8559
98.8533
98.8509
98.8489
98.8471
98.8457
98.8447
98.844
98.8436
98.2274
98.2277
98.2285
98.2295
98.2309
98.2327
98.2347
98.2371
98.2398
98.2427
98.2459
98.2493
98.2529
98.2566
98.2605
98.2645
98.2686
98.2727
98.2769
98.281
98.2851
98.2891
98.293
98.2968
98.3004
98.3037
98.3069
98.3098
98.3124
98.3147
98.3167
98.3183
98.3193
98.3198
98.3202
98.3206
98.3209
98.3211
98.3213
98.3213
98.3213
98.3213
98.3211
98.3209
98.3206
98.3202
98.3198
98.3193
98.3183
98.3167
98.3147
98.3124
98.3098
98.3069
98.3037
98.3004
98.2968
98.293
98.2891
98.2851
98.281
98.2769
98.2727
98.2686
98.2645
98.2605
98.2566
98.2529
98.2493
98.2459
98.2427
98.2398
98.2371
98.2347
98.2327
98.2309
98.2295
98.2285
98.2277
98.2274
97.5514
97.5518
97.5525
97.5536
97.555
97.5568
97.5589
97.5613
97.5639
97.5669
97.5701
97.5735
97.5772
97.581
97.5849
97.589
97.5931
97.5973
97.6015
97.6057
97.6098
97.6139
97.6178
97.6216
97.6253
97.6287
97.6319
97.6348
97.6374
97.6398
97.6418
97.6435
97.6444
97.6449
97.6454
97.6457
97.646
97.6463
97.6464
97.6465
97.6465
97.6464
97.6463
97.646
97.6457
97.6454
97.6449
97.6444
97.6435
97.6418
97.6398
97.6374
97.6348
97.6319
97.6287
97.6253
97.6216
97.6178
97.6139
97.6098
97.6057
97.6015
97.5973
97.5931
97.589
97.5849
97.581
97.5772
97.5735
97.5701
97.5669
97.5639
97.5613
97.5589
97.5568
97.555
97.5536
97.5525
97.5518
97.5514
96.8099
96.8103
96.811
96.8121
96.8135
96.8153
96.8175
96.8199
96.8226
96.8256
96.8289
96.8324
96.836
96.8399
96.8439
96.848
96.8522
96.8565
96.8607
96.865
96.8692
96.8733
96.8773
96.8812
96.8848
96.8883
96.8915
96.8945
96.8972
96.8996
96.9016
96.9033
96.9043
96.9048
96.9053
96.9056
96.906
96.9062
96.9063
96.9064
96.9064
96.9063
96.9062
96.906
96.9056
96.9053
96.9048
96.9043
96.9033
96.9016
96.8996
96.8972
96.8945
96.8915
96.8883
96.8848
96.8812
96.8773
96.8733
96.8692
96.865
96.8607
96.8565
96.8522
96.848
96.8439
96.8399
96.836
96.8324
96.8289
96.8256
96.8226
96.8199
96.8175
96.8153
96.8135
96.8121
96.811
96.8103
96.8099
95.9965
95.9968
95.9976
95.9987
96.0002
96.002
96.0042
96.0066
96.0094
96.0125
96.0158
96.0193
96.0231
96.027
96.0311
96.0353
96.0395
96.0439
96.0482
96.0526
96.0568
96.061
96.0651
96.069
96.0728
96.0763
96.0796
96.0827
96.0854
96.0878
96.0899
96.0916
96.0926
96.0932
96.0936
96.094
96.0943
96.0946
96.0947
96.0948
96.0948
96.0947
96.0946
96.0943
96.094
96.0936
96.0932
96.0926
96.0916
96.0899
96.0878
96.0854
96.0827
96.0796
96.0763
96.0728
96.069
96.0651
96.061
96.0568
96.0526
96.0482
96.0439
96.0395
96.0353
96.0311
96.027
96.0231
96.0193
96.0158
96.0125
96.0094
96.0066
96.0042
96.002
96.0002
95.9987
95.9976
95.9968
95.9965
95.1041
95.1045
95.1053
95.1064
95.1079
95.1098
95.112
95.1145
95.1173
95.1205
95.1239
95.1275
95.1313
95.1353
95.1395
95.1438
95.1482
95.1526
95.1571
95.1615
95.1659
95.1702
95.1744
95.1784
95.1822
95.1858
95.1892
95.1923
95.1951
95.1976
95.1998
95.2015
95.2025
95.2031
95.2036
95.204
95.2043
95.2045
95.2047
95.2048
95.2048
95.2047
95.2045
95.2043
95.204
95.2036
95.2031
95.2025
95.2015
95.1998
95.1976
95.1951
95.1923
95.1892
95.1858
95.1822
95.1784
95.1744
95.1702
95.1659
95.1615
95.1571
95.1526
95.1482
95.1438
95.1395
95.1353
95.1313
95.1275
95.1239
95.1205
95.1173
95.1145
95.112
95.1098
95.1079
95.1064
95.1053
95.1045
95.1041
94.1252
94.1256
94.1264
94.1275
94.1291
94.131
94.1333
94.1359
94.1388
94.142
94.1455
94.1492
94.1531
94.1573
94.1616
94.166
94.1705
94.175
94.1796
94.1842
94.1887
94.1931
94.1974
94.2016
94.2055
94.2092
94.2127
94.2159
94.2188
94.2214
94.2236
94.2254
94.2265
94.227
94.2275
94.2279
94.2282
94.2285
94.2286
94.2287
94.2287
94.2286
94.2285
94.2282
94.2279
94.2275
94.227
94.2265
94.2254
94.2236
94.2214
94.2188
94.2159
94.2127
94.2092
94.2055
94.2016
94.1974
94.1931
94.1887
94.1842
94.1796
94.175
94.1705
94.166
94.1616
94.1573
94.1531
94.1492
94.1455
94.142
94.1388
94.1359
94.1333
94.131
94.1291
94.1275
94.1264
94.1256
94.1252
93.0512
93.0517
93.0525
93.0537
93.0553
93.0573
93.0596
93.0623
93.0653
93.0686
93.0722
93.0761
93.0801
93.0844
93.0889
93.0934
93.0981
93.1028
93.1075
93.1123
93.1169
93.1215
93.126
93.1303
93.1344
93.1382
93.1418
93.1452
93.1481
93.1508
93.1531
93.155
93.1561
93.1567
93.1572
93.1576
93.1579
93.1582
93.1584
93.1584
93.1584
93.1584
93.1582
93.1579
93.1576
93.1572
93.1567
93.1561
93.155
93.1531
93.1508
93.1481
93.1452
93.1418
93.1382
93.1344
93.1303
93.126
93.1215
93.1169
93.1123
93.1075
93.1028
93.0981
93.0934
93.0889
93.0844
93.0801
93.0761
93.0722
93.0686
93.0653
93.0623
93.0596
93.0573
93.0553
93.0537
93.0525
93.0517
93.0512
91.7983
91.7987
91.7995
91.8008
91.8025
91.8045
91.807
91.8098
91.8129
91.8164
91.8201
91.8242
91.8284
91.8329
91.8375
91.8423
91.8472
91.8521
91.857
91.862
91.8669
91.8717
91.8763
91.8808
91.8851
91.8892
91.8929
91.8964
91.8995
91.9023
91.9047
91.9067
91.9079
91.9085
91.909
91.9094
91.9098
91.9101
91.9102
91.9103
91.9103
91.9102
91.9101
91.9098
91.9094
91.909
91.9085
91.9079
91.9067
91.9047
91.9023
91.8995
91.8964
91.8929
91.8892
91.8851
91.8808
91.8763
91.8717
91.8669
91.862
91.857
91.8521
91.8472
91.8423
91.8375
91.8329
91.8284
91.8242
91.8201
91.8164
91.8129
91.8098
91.807
91.8045
91.8025
91.8008
91.7995
91.7987
91.7983
90.4157
90.4161
90.417
90.4183
90.4201
90.4223
90.4248
90.4278
90.4311
90.4348
90.4387
90.443
90.4474
90.4522
90.457
90.4621
90.4672
90.4724
90.4776
90.4829
90.488
90.4931
90.498
90.5028
90.5073
90.5116
90.5156
90.5193
90.5226
90.5255
90.5281
90.5302
90.5314
90.532
90.5326
90.5331
90.5334
90.5337
90.5339
90.534
90.534
90.5339
90.5337
90.5334
90.5331
90.5326
90.532
90.5314
90.5302
90.5281
90.5255
90.5226
90.5193
90.5156
90.5116
90.5073
90.5028
90.498
90.4931
90.488
90.4829
90.4776
90.4724
90.4672
90.4621
90.457
90.4522
90.4474
90.443
90.4387
90.4348
90.4311
90.4278
90.4248
90.4223
90.4201
90.4183
90.417
90.4161
90.4157
89.0326
89.0331
89.0341
89.0355
89.0373
89.0396
89.0423
89.0455
89.049
89.0528
89.057
89.0615
89.0662
89.0712
89.0764
89.0817
89.0872
89.0927
89.0983
89.1038
89.1093
89.1146
89.1199
89.1249
89.1297
89.1343
89.1386
89.1425
89.146
89.1491
89.1518
89.1541
89.1554
89.156
89.1566
89.1571
89.1575
89.1578
89.158
89.1581
89.1581
89.158
89.1578
89.1575
89.1571
89.1566
89.156
89.1554
89.1541
89.1518
89.1491
89.146
89.1425
89.1386
89.1343
89.1297
89.1249
89.1199
89.1146
89.1093
89.1038
89.0983
89.0927
89.0872
89.0817
89.0764
89.0712
89.0662
89.0615
89.057
89.0528
89.049
89.0455
89.0423
89.0396
89.0373
89.0355
89.0341
89.0331
89.0326
87.6491
87.6496
87.6506
87.6521
87.6541
87.6565
87.6594
87.6627
87.6665
87.6706
87.675
87.6798
87.6848
87.6901
87.6956
87.7013
87.7071
87.713
87.7189
87.7248
87.7306
87.7364
87.7419
87.7473
87.7525
87.7573
87.7619
87.766
87.7698
87.7732
87.776
87.7784
87.7798
87.7806
87.7812
87.7817
87.7822
87.7825
87.7827
87.7828
87.7828
87.7827
87.7825
87.7822
87.7817
87.7812
87.7806
87.7798
87.7784
87.776
87.7732
87.7698
87.766
87.7619
87.7573
87.7525
87.7473
87.7419
87.7364
87.7306
87.7248
87.7189
87.713
87.7071
87.7013
87.6956
87.6901
87.6848
87.6798
87.675
87.6706
87.6665
87.6627
87.6594
87.6565
87.6541
87.6521
87.6506
87.6496
87.6491
86.2651
86.2657
86.2667
86.2683
86.2704
86.273
86.2761
86.2796
86.2836
86.2879
86.2927
86.2978
86.3032
86.3088
86.3147
86.3207
86.3269
86.3332
86.3395
86.3458
86.3521
86.3582
86.3642
86.3699
86.3755
86.3807
86.3855
86.39
86.3941
86.3976
86.4007
86.4033
86.4048
86.4056
86.4063
86.4068
86.4073
86.4076
86.4079
86.408
86.408
86.4079
86.4076
86.4073
86.4068
86.4063
86.4056
86.4048
86.4033
86.4007
86.3976
86.3941
86.39
86.3855
86.3807
86.3755
86.3699
86.3642
86.3582
86.3521
86.3458
86.3395
86.3332
86.3269
86.3207
86.3147
86.3088
86.3032
86.2978
86.2927
86.2879
86.2836
86.2796
86.2761
86.273
86.2704
86.2683
86.2667
86.2657
86.2651
84.8806
84.8812
84.8823
84.884
84.8862
84.889
84.8923
84.896
84.9003
84.9049
84.91
84.9154
84.9212
84.9273
84.9336
84.94
84.9467
84.9534
84.9602
84.9669
84.9736
84.9802
84.9866
84.9928
84.9988
85.0044
85.0096
85.0144
85.0188
85.0226
85.026
85.0287
85.0303
85.0312
85.0319
85.0325
85.033
85.0334
85.0336
85.0338
85.0338
85.0336
85.0334
85.033
85.0325
85.0319
85.0312
85.0303
85.0287
85.026
85.0226
85.0188
85.0144
85.0096
85.0044
84.9988
84.9928
84.9866
84.9802
84.9736
84.9669
84.9602
84.9534
84.9467
84.94
84.9336
84.9273
84.9212
84.9154
84.91
84.9049
84.9003
84.896
84.8923
84.889
84.8862
84.884
84.8823
84.8812
84.8806
83.4955
83.4961
83.4973
83.4991
83.5015
83.5045
83.508
83.512
83.5165
83.5216
83.527
83.5328
83.539
83.5455
83.5522
83.5592
83.5663
83.5735
83.5808
83.5881
83.5953
83.6024
83.6093
83.616
83.6224
83.6284
83.6341
83.6393
83.644
83.6481
83.6517
83.6547
83.6564
83.6574
83.6582
83.6588
83.6594
83.6598
83.66
83.6602
83.6602
83.66
83.6598
83.6594
83.6588
83.6582
83.6574
83.6564
83.6547
83.6517
83.6481
83.644
83.6393
83.6341
83.6284
83.6224
83.616
83.6093
83.6024
83.5953
83.5881
83.5808
83.5735
83.5663
83.5592
83.5522
83.5455
83.539
83.5328
83.527
83.5216
83.5165
83.512
83.508
83.5045
83.5015
83.4991
83.4973
83.4961
83.4955
82.1098
82.1104
82.1117
82.1137
82.1162
82.1194
82.1232
82.1275
82.1324
82.1377
82.1436
82.1498
82.1565
82.1634
82.1707
82.1782
82.1859
82.1936
82.2015
82.2093
82.2171
82.2248
82.2322
82.2394
82.2463
82.2529
82.259
82.2646
82.2697
82.2742
82.2781
82.2814
82.2832
82.2842
82.2851
82.2858
82.2864
82.2868
82.2871
82.2873
82.2873
82.2871
82.2868
82.2864
82.2858
82.2851
82.2842
82.2832
82.2814
82.2781
82.2742
82.2697
82.2646
82.259
82.2529
82.2463
82.2394
82.2322
82.2248
82.2171
82.2093
82.2015
82.1936
82.1859
82.1782
82.1707
82.1634
82.1565
82.1498
82.1436
82.1377
82.1324
82.1275
82.1232
82.1194
82.1162
82.1137
82.1117
82.1104
82.1098
80.7234
80.7241
80.7255
80.7276
80.7303
80.7337
80.7378
80.7424
80.7477
80.7534
80.7597
80.7664
80.7736
80.7811
80.7889
80.797
80.8053
80.8137
80.8222
80.8306
80.839
80.8473
80.8554
80.8632
80.8707
80.8778
80.8844
80.8905
80.896
80.9009
80.9052
80.9087
80.9107
80.9118
80.9127
80.9135
80.9141
80.9146
80.9149
80.9151
80.9151
80.9149
80.9146
80.9141
80.9135
80.9127
80.9118
80.9107
80.9087
80.9052
80.9009
80.896
80.8905
80.8844
80.8778
80.8707
80.8632
80.8554
80.8473
80.839
80.8306
80.8222
80.8137
80.8053
80.797
80.7889
80.7811
80.7736
80.7664
80.7597
80.7534
80.7477
80.7424
80.7378
80.7337
80.7303
80.7276
80.7255
80.7241
80.7234
79.3363
79.3371
79.3386
79.3408
79.3438
79.3474
79.3518
79.3568
79.3624
79.3686
79.3754
79.3827
79.3904
79.3985
79.4069
79.4156
79.4246
79.4336
79.4428
79.452
79.4611
79.4701
79.4788
79.4873
79.4954
79.5031
79.5103
79.5169
79.5229
79.5283
79.5329
79.5367
79.5389
79.5401
79.5411
79.542
79.5427
79.5432
79.5435
79.5437
79.5437
79.5435
79.5432
79.5427
79.542
79.5411
79.5401
79.5389
79.5367
79.5329
79.5283
79.5229
79.5169
79.5103
79.5031
79.4954
79.4873
79.4788
79.4701
79.4611
79.452
79.4428
79.4336
79.4246
79.4156
79.4069
79.3985
79.3904
79.3827
79.3754
79.3686
79.3624
79.3568
79.3518
79.3474
79.3438
79.3408
79.3386
79.3371
79.3363
77.9485
77.9493
77.9509
77.9533
77.9565
77.9605
77.9652
77.9705
77.9766
77.9833
77.9906
77.9984
78.0067
78.0155
78.0246
78.034
78.0437
78.0535
78.0635
78.0734
78.0833
78.093
78.1025
78.1117
78.1206
78.1289
78.1368
78.144
78.1505
78.1564
78.1614
78.1656
78.168
78.1693
78.1704
78.1713
78.1721
78.1726
78.173
78.1732
78.1732
78.173
78.1726
78.1721
78.1713
78.1704
78.1693
78.168
78.1656
78.1614
78.1564
78.1505
78.144
78.1368
78.1289
78.1206
78.1117
78.1025
78.093
78.0833
78.0734
78.0635
78.0535
78.0437
78.034
78.0246
78.0155
78.0067
77.9984
77.9906
77.9833
77.9766
77.9705
77.9652
77.9605
77.9565
77.9533
77.9509
77.9493
77.9485
76.5599
76.5607
76.5625
76.5651
76.5685
76.5728
76.5778
76.5836
76.5902
76.5974
76.6052
76.6137
76.6227
76.6321
76.642
76.6522
76.6627
76.6733
76.6841
76.6949
76.7056
76.7162
76.7266
76.7366
76.7462
76.7553
76.7638
76.7717
76.7789
76.7852
76.7907
76.7953
76.7979
76.7994
76.8006
76.8016
76.8024
76.803
76.8035
76.8037
76.8037
76.8035
76.803
76.8024
76.8016
76.8006
76.7994
76.7979
76.7953
76.7907
76.7852
76.7789
76.7717
76.7638
76.7553
76.7462
76.7366
76.7266
76.7162
76.7056
76.6949
76.6841
76.6733
76.6627
76.6522
76.642
76.6321
76.6227
76.6137
76.6052
76.5974
76.5902
76.5836
76.5778
76.5728
76.5685
76.5651
76.5625
76.5607
76.5599
75.1704
75.1713
75.1732
75.176
75.1797
75.1843
75.1897
75.196
75.203
75.2108
75.2193
75.2284
75.2381
75.2484
75.2591
75.2701
75.2815
75.293
75.3047
75.3164
75.3281
75.3396
75.3509
75.3618
75.3723
75.3823
75.3916
75.4002
75.408
75.415
75.421
75.426
75.4289
75.4304
75.4318
75.4329
75.4338
75.4345
75.4349
75.4351
75.4351
75.4349
75.4345
75.4338
75.4329
75.4318
75.4304
75.4289
75.426
75.421
75.415
75.408
75.4002
75.3916
75.3823
75.3723
75.3618
75.3509
75.3396
75.3281
75.3164
75.3047
75.293
75.2815
75.2701
75.2591
75.2484
75.2381
75.2284
75.2193
75.2108
75.203
75.196
75.1897
75.1843
75.1797
75.176
75.1732
75.1713
75.1704
73.7799
73.7809
73.783
73.786
73.7899
73.7949
73.8008
73.8075
73.8151
73.8235
73.8327
73.8426
73.8531
73.8642
73.8757
73.8877
73.9
73.9126
73.9253
73.938
73.9507
73.9633
73.9756
73.9875
73.999
74.0098
74.02
74.0295
74.038
74.0457
74.0523
74.0578
74.0609
74.0626
74.0641
74.0653
74.0663
74.067
74.0675
74.0678
74.0678
74.0675
74.067
74.0663
74.0653
74.0641
74.0626
74.0609
74.0578
74.0523
74.0457
74.038
74.0295
74.02
74.0098
73.999
73.9875
73.9756
73.9633
73.9507
73.938
73.9253
73.9126
73.9
73.8877
73.8757
73.8642
73.8531
73.8426
73.8327
73.8235
73.8151
73.8075
73.8008
73.7949
73.7899
73.786
73.783
73.7809
73.7799
72.3885
72.3896
72.3917
72.395
72.3993
72.4046
72.4109
72.4182
72.4264
72.4355
72.4454
72.4561
72.4675
72.4795
72.492
72.505
72.5184
72.532
72.5458
72.5597
72.5735
72.5872
72.6006
72.6137
72.6262
72.6381
72.6493
72.6596
72.669
72.6774
72.6846
72.6907
72.6941
72.696
72.6976
72.699
72.7
72.7009
72.7014
72.7017
72.7017
72.7014
72.7009
72.7
72.699
72.6976
72.696
72.6941
72.6907
72.6846
72.6774
72.669
72.6596
72.6493
72.6381
72.6262
72.6137
72.6006
72.5872
72.5735
72.5597
72.5458
72.532
72.5184
72.505
72.492
72.4795
72.4675
72.4561
72.4454
72.4355
72.4264
72.4182
72.4109
72.4046
72.3993
72.395
72.3917
72.3896
72.3885
70.9959
70.9971
70.9994
71.0029
71.0076
71.0133
71.0201
71.028
71.0369
71.0467
71.0574
71.0689
71.0812
71.0942
71.1078
71.1219
71.1364
71.1513
71.1663
71.1814
71.1965
71.2114
71.2261
71.2403
71.254
71.2671
71.2793
71.2907
71.301
71.3102
71.3181
71.3248
71.3286
71.3307
71.3325
71.3339
71.3351
71.336
71.3366
71.3369
71.3369
71.3366
71.336
71.3351
71.3339
71.3325
71.3307
71.3286
71.3248
71.3181
71.3102
71.301
71.2907
71.2793
71.2671
71.254
71.2403
71.2261
71.2114
71.1965
71.1814
71.1663
71.1513
71.1364
71.1219
71.1078
71.0942
71.0812
71.0689
71.0574
71.0467
71.0369
71.028
71.0201
71.0133
71.0076
71.0029
70.9994
70.9971
70.9959
69.6022
69.6035
69.606
69.6098
69.6148
69.6209
69.6283
69.6368
69.6463
69.6569
69.6685
69.681
69.6943
69.7084
69.7231
69.7384
69.7542
69.7703
69.7867
69.8031
69.8196
69.8359
69.8519
69.8675
69.8825
69.8968
69.9103
69.9227
69.9341
69.9442
69.953
69.9603
69.9645
69.9668
69.9688
69.9704
69.9717
69.9727
69.9734
69.9737
69.9737
69.9734
69.9727
69.9717
69.9704
69.9688
69.9668
69.9645
69.9603
69.953
69.9442
69.9341
69.9227
69.9103
69.8968
69.8825
69.8675
69.8519
69.8359
69.8196
69.8031
69.7867
69.7703
69.7542
69.7384
69.7231
69.7084
69.6943
69.681
69.6685
69.6569
69.6463
69.6368
69.6283
69.6209
69.6148
69.6098
69.606
69.6035
69.6022
68.2073
68.2086
68.2113
68.2154
68.2207
68.2274
68.2353
68.2445
68.2548
68.2662
68.2787
68.2922
68.3066
68.3219
68.3378
68.3545
68.3716
68.3891
68.4069
68.4249
68.4428
68.4607
68.4782
68.4953
68.5117
68.5274
68.5422
68.5559
68.5685
68.5796
68.5893
68.5974
68.602
68.6045
68.6067
68.6085
68.61
68.6111
68.6118
68.6122
68.6122
68.6118
68.6111
68.61
68.6085
68.6067
68.6045
68.602
68.5974
68.5893
68.5796
68.5685
68.5559
68.5422
68.5274
68.5117
68.4953
68.4782
68.4607
68.4428
68.4249
68.4069
68.3891
68.3716
68.3545
68.3378
68.3219
68.3066
68.2922
68.2787
68.2662
68.2548
68.2445
68.2353
68.2274
68.2207
68.2154
68.2113
68.2086
68.2073
66.8109
66.8124
66.8153
66.8197
66.8254
66.8326
66.8411
66.851
66.8621
66.8745
66.888
66.9025
66.9181
66.9346
66.9519
66.97
66.9886
67.0076
67.027
67.0466
67.0662
67.0857
67.1049
67.1236
67.1417
67.159
67.1752
67.1904
67.2042
67.2165
67.2272
67.2361
67.2413
67.244
67.2464
67.2484
67.2501
67.2513
67.2521
67.2525
67.2525
67.2521
67.2513
67.2501
67.2484
67.2464
67.244
67.2413
67.2361
67.2272
67.2165
67.2042
67.1904
67.1752
67.159
67.1417
67.1236
67.1049
67.0857
67.0662
67.0466
67.027
67.0076
66.9886
66.97
66.9519
66.9346
66.9181
66.9025
66.888
66.8745
66.8621
66.851
66.8411
66.8326
66.8254
66.8197
66.8153
66.8124
66.8109
65.4131
65.4147
65.4178
65.4225
65.4287
65.4364
65.4456
65.4562
65.4682
65.4815
65.4961
65.5119
65.5287
65.5466
65.5653
65.5849
65.6051
65.6258
65.647
65.6683
65.6898
65.7111
65.7321
65.7526
65.7725
65.7915
65.8094
65.8261
65.8413
65.8549
65.8668
65.8767
65.8824
65.8855
65.8881
65.8904
65.8922
65.8935
65.8944
65.8948
65.8948
65.8944
65.8935
65.8922
65.8904
65.8881
65.8855
65.8824
65.8767
65.8668
65.8549
65.8413
65.8261
65.8094
65.7915
65.7725
65.7526
65.7321
65.7111
65.6898
65.6683
65.647
65.6258
65.6051
65.5849
65.5653
65.5466
65.5287
65.5119
65.4961
65.4815
65.4682
65.4562
65.4456
65.4364
65.4287
65.4225
65.4178
65.4147
65.4131
64.0138
64.0155
64.0188
64.0238
64.0305
64.0388
64.0487
64.0601
64.073
64.0873
64.1031
64.1201
64.1383
64.1576
64.1779
64.1991
64.2211
64.2437
64.2667
64.29
64.3134
64.3367
64.3598
64.3823
64.4042
64.4251
64.4449
64.4633
64.4801
64.4952
64.5083
64.5193
64.5257
64.5291
64.532
64.5345
64.5365
64.538
64.539
64.5395
64.5395
64.539
64.538
64.5365
64.5345
64.532
64.5291
64.5257
64.5193
64.5083
64.4952
64.4801
64.4633
64.4449
64.4251
64.4042
64.3823
64.3598
64.3367
64.3134
64.29
64.2667
64.2437
64.2211
64.1991
64.1779
64.1576
64.1383
64.1201
64.1031
64.0873
64.073
64.0601
64.0487
64.0388
64.0305
64.0238
64.0188
64.0155
64.0138
62.6127
62.6145
62.6181
62.6235
62.6307
62.6396
62.6502
62.6625
62.6764
62.6918
62.7087
62.7271
62.7467
62.7676
62.7896
62.8126
62.8365
62.861
62.8861
62.9115
62.9371
62.9627
62.9879
63.0127
63.0367
63.0598
63.0817
63.102
63.1207
63.1374
63.152
63.1642
63.1713
63.1751
63.1783
63.1811
63.1833
63.185
63.1861
63.1866
63.1866
63.1861
63.185
63.1833
63.1811
63.1783
63.1751
63.1713
63.1642
63.152
63.1374
63.1207
63.102
63.0817
63.0598
63.0367
63.0127
62.9879
62.9627
62.9371
62.9115
62.8861
62.861
62.8365
62.8126
62.7896
62.7676
62.7467
62.7271
62.7087
62.6918
62.6764
62.6625
62.6502
62.6396
62.6307
62.6235
62.6181
62.6145
62.6127
61.2099
61.2118
61.2157
61.2215
61.2291
61.2387
61.25
61.2632
61.2781
61.2948
61.313
61.3328
61.354
61.3766
61.4004
61.4253
61.4512
61.4779
61.5052
61.5329
61.5609
61.5889
61.6166
61.6438
61.6703
61.6958
61.7199
61.7425
61.7632
61.7818
61.798
61.8116
61.8195
61.8237
61.8274
61.8304
61.8329
61.8348
61.836
61.8366
61.8366
61.836
61.8348
61.8329
61.8304
61.8274
61.8237
61.8195
61.8116
61.798
61.7818
61.7632
61.7425
61.7199
61.6958
61.6703
61.6438
61.6166
61.5889
61.5609
61.5329
61.5052
61.4779
61.4512
61.4253
61.4004
61.3766
61.354
61.3328
61.313
61.2948
61.2781
61.2632
61.25
61.2387
61.2291
61.2215
61.2157
61.2118
61.2099
59.8051
59.8072
59.8113
59.8175
59.8257
59.8359
59.8481
59.8622
59.8782
59.8961
59.9157
59.937
59.9599
59.9842
60.01
60.037
60.0651
60.0941
60.1238
60.1541
60.1846
60.2153
60.2457
60.2757
60.3049
60.333
60.3598
60.3848
60.4078
60.4285
60.4466
60.4618
60.4705
60.4753
60.4794
60.4828
60.4856
60.4877
60.4891
60.4898
60.4898
60.4891
60.4877
60.4856
60.4828
60.4794
60.4753
60.4705
60.4618
60.4466
60.4285
60.4078
60.3848
60.3598
60.333
60.3049
60.2757
60.2457
60.2153
60.1846
60.1541
60.1238
60.0941
60.0651
60.037
60.01
59.9842
59.9599
59.937
59.9157
59.8961
59.8782
59.8622
59.8481
59.8359
59.8257
59.8175
59.8113
59.8072
59.8051
58.3982
58.4005
58.4049
58.4115
58.4202
58.4312
58.4442
58.4594
58.4765
58.4957
58.5167
58.5396
58.5643
58.5906
58.6184
58.6476
58.678
58.7095
58.7419
58.7749
58.8083
58.8419
58.8754
58.9083
58.9406
58.9717
59.0013
59.0291
59.0547
59.0778
59.098
59.115
59.1248
59.1302
59.1348
59.1386
59.1417
59.144
59.1456
59.1464
59.1464
59.1456
59.144
59.1417
59.1386
59.1348
59.1302
59.1248
59.115
59.098
59.0778
59.0547
59.0291
59.0013
58.9717
58.9406
58.9083
58.8754
58.8419
58.8083
58.7749
58.7419
58.7095
58.678
58.6476
58.6184
58.5906
58.5643
58.5396
58.5167
58.4957
58.4765
58.4594
58.4442
58.4312
58.4202
58.4115
58.4049
58.4005
58.3982
56.9892
56.9916
56.9963
57.0033
57.0127
57.0243
57.0383
57.0545
57.0728
57.0933
57.1159
57.1405
57.167
57.1954
57.2254
57.257
57.2899
57.3241
57.3594
57.3954
57.4319
57.4687
57.5054
57.5418
57.5773
57.6118
57.6447
57.6756
57.7042
57.73
57.7526
57.7717
57.7827
57.7887
57.7939
57.7982
57.8017
57.8043
57.8061
57.807
57.807
57.8061
57.8043
57.8017
57.7982
57.7939
57.7887
57.7827
57.7717
57.7526
57.73
57.7042
57.6756
57.6447
57.6118
57.5773
57.5418
57.5054
57.4687
57.4319
57.3954
57.3594
57.3241
57.2899
57.257
57.2254
57.1954
57.167
57.1405
57.1159
57.0933
57.0728
57.0545
57.0383
57.0243
57.0127
57.0033
56.9963
56.9916
56.9892
55.5778
55.5803
55.5853
55.5928
55.6028
55.6152
55.6301
55.6474
55.667
55.6889
55.7131
55.7395
55.768
55.7985
55.8308
55.8649
55.9006
55.9377
55.976
56.0153
56.0552
56.0955
56.1359
56.1759
56.2153
56.2534
56.29
56.3245
56.3564
56.3853
56.4107
56.4322
56.4446
56.4514
56.4572
56.4621
56.4661
56.469
56.471
56.472
56.472
56.471
56.469
56.4661
56.4621
56.4572
56.4514
56.4446
56.4322
56.4107
56.3853
56.3564
56.3245
56.29
56.2534
56.2153
56.1759
56.1359
56.0955
56.0552
56.0153
55.976
55.9377
55.9006
55.8649
55.8308
55.7985
55.768
55.7395
55.7131
55.6889
55.667
55.6474
55.6301
55.6152
55.6028
55.5928
55.5853
55.5803
55.5778
54.1639
54.1666
54.1719
54.1799
54.1905
54.2037
54.2195
54.2379
54.2589
54.2823
54.3082
54.3364
54.367
54.3997
54.4345
54.4713
54.5099
54.5501
54.5917
54.6345
54.6781
54.7223
54.7667
54.8108
54.8543
54.8967
54.9374
54.9759
55.0117
55.0441
55.0727
55.097
55.1111
55.1187
55.1253
55.1309
55.1353
55.1387
55.1409
55.1421
55.1421
55.1409
55.1387
55.1353
55.1309
55.1253
55.1187
55.1111
55.097
55.0727
55.0441
55.0117
54.9759
54.9374
54.8967
54.8543
54.8108
54.7667
54.7223
54.6781
54.6345
54.5917
54.5501
54.5099
54.4713
54.4345
54.3997
54.367
54.3364
54.3082
54.2823
54.2589
54.2379
54.2195
54.2037
54.1905
54.1799
54.1719
54.1666
54.1639
52.7474
52.7502
52.7558
52.7643
52.7755
52.7896
52.8064
52.826
52.8482
52.8732
52.9008
52.931
52.9637
52.9988
53.0363
53.0759
53.1176
53.1611
53.2063
53.2528
53.3005
53.3489
53.3977
53.4464
53.4945
53.5416
53.587
53.6301
53.6702
53.7068
53.7391
53.7666
53.7826
53.7913
53.7988
53.8051
53.8102
53.814
53.8166
53.8179
53.8179
53.8166
53.814
53.8102
53.8051
53.7988
53.7913
53.7826
53.7666
53.7391
53.7068
53.6702
53.6301
53.587
53.5416
53.4945
53.4464
53.3977
53.3489
53.3005
53.2528
53.2063
53.1611
53.1176
53.0759
53.0363
52.9988
52.9637
52.931
52.9008
52.8732
52.8482
52.826
52.8064
52.7896
52.7755
52.7643
52.7558
52.7502
52.7474
51.328
51.331
51.337
51.3459
51.3578
51.3727
51.3905
51.4113
51.4349
51.4615
51.4909
51.5231
51.558
51.5957
51.6358
51.6785
51.7234
51.7705
51.8194
51.8701
51.9221
51.9751
52.0287
52.0825
52.1358
52.1882
52.2389
52.2872
52.3324
52.3737
52.4104
52.4416
52.4598
52.4697
52.4783
52.4855
52.4914
52.4957
52.4987
52.5002
52.5002
52.4987
52.4957
52.4914
52.4855
52.4783
52.4697
52.4598
52.4416
52.4104
52.3737
52.3324
52.2872
52.2389
52.1882
52.1358
52.0825
52.0287
51.9751
51.9221
51.8701
51.8194
51.7705
51.7234
51.6785
51.6358
51.5957
51.558
51.5231
51.4909
51.4615
51.4349
51.4113
51.3905
51.3727
51.3578
51.3459
51.337
51.331
51.328
49.9057
49.9088
49.9151
49.9245
49.9371
49.9528
49.9717
49.9936
50.0187
50.0469
50.0782
50.1124
50.1497
50.1899
50.2329
50.2787
50.3271
50.3779
50.4309
50.486
50.5427
50.6007
50.6597
50.719
50.7781
50.8364
50.8931
50.9474
50.9984
51.0453
51.087
51.1227
51.1435
51.1549
51.1648
51.1731
51.1798
51.1848
51.1882
51.1899