/*--------------------------------*- C++ -*----------------------------------*\
  =========                 |
  \\      /  F ield         | OpenFOAM: The Open Source CFD Toolbox
   \\    /   O peration     | Website:  https://openfoam.org
    \\  /    A nd           | Version:  10
     \\/     M anipulation  |
\*---------------------------------------------------------------------------*/
FoamFile
{
    format      ascii;
    class       volScalarField;
    location    "2.3";
    object      p;
}
// * * * * * * * * * * * * * * * * * * * * * * * * * * * * * * * * * * * * * //

dimensions      [1 -1 -2 0 0 0 0];

internalField   nonuniform List<scalar> 
12225
(
2.42675e+07
2.42571e+07
2.42381e+07
2.42127e+07
2.41823e+07
2.41483e+07
2.41118e+07
2.40734e+07
2.40337e+07
2.39928e+07
2.39511e+07
2.39086e+07
2.38652e+07
2.38207e+07
2.37748e+07
2.37266e+07
2.36746e+07
2.36145e+07
2.42678e+07
2.42574e+07
2.42384e+07
2.42129e+07
2.41825e+07
2.41485e+07
2.4112e+07
2.40736e+07
2.40338e+07
2.3993e+07
2.39513e+07
2.39088e+07
2.38654e+07
2.3821e+07
2.37753e+07
2.37274e+07
2.36761e+07
2.36189e+07
2.42686e+07
2.42581e+07
2.42391e+07
2.42134e+07
2.41829e+07
2.41489e+07
2.41123e+07
2.40739e+07
2.40341e+07
2.39933e+07
2.39517e+07
2.39092e+07
2.3866e+07
2.38218e+07
2.37763e+07
2.3729e+07
2.36791e+07
2.36257e+07
2.42699e+07
2.42593e+07
2.42401e+07
2.42143e+07
2.41836e+07
2.41495e+07
2.41129e+07
2.40744e+07
2.40346e+07
2.39938e+07
2.39522e+07
2.39099e+07
2.38668e+07
2.38229e+07
2.37779e+07
2.37315e+07
2.36833e+07
2.36336e+07
2.42718e+07
2.4261e+07
2.42415e+07
2.42155e+07
2.41847e+07
2.41504e+07
2.41136e+07
2.40751e+07
2.40354e+07
2.39946e+07
2.39531e+07
2.39109e+07
2.38681e+07
2.38245e+07
2.37801e+07
2.37348e+07
2.36885e+07
2.3642e+07
2.42744e+07
2.42634e+07
2.42436e+07
2.42172e+07
2.41861e+07
2.41516e+07
2.41147e+07
2.40761e+07
2.40363e+07
2.39956e+07
2.39542e+07
2.39122e+07
2.38697e+07
2.38267e+07
2.3783e+07
2.37389e+07
2.36945e+07
2.36507e+07
2.42779e+07
2.42665e+07
2.42462e+07
2.42194e+07
2.41879e+07
2.41531e+07
2.4116e+07
2.40774e+07
2.40376e+07
2.39969e+07
2.39557e+07
2.39139e+07
2.38718e+07
2.38293e+07
2.37865e+07
2.37436e+07
2.3701e+07
2.36596e+07
2.42823e+07
2.42705e+07
2.42496e+07
2.42221e+07
2.41901e+07
2.4155e+07
2.41177e+07
2.40789e+07
2.40391e+07
2.39985e+07
2.39575e+07
2.3916e+07
2.38743e+07
2.38325e+07
2.37906e+07
2.3749e+07
2.37081e+07
2.36685e+07
2.42879e+07
2.42755e+07
2.42537e+07
2.42255e+07
2.41929e+07
2.41573e+07
2.41197e+07
2.40808e+07
2.40409e+07
2.40005e+07
2.39596e+07
2.39185e+07
2.38773e+07
2.38362e+07
2.37953e+07
2.37549e+07
2.37154e+07
2.36775e+07
2.4295e+07
2.42817e+07
2.42588e+07
2.42295e+07
2.41961e+07
2.416e+07
2.4122e+07
2.40829e+07
2.40431e+07
2.40027e+07
2.39621e+07
2.39214e+07
2.38807e+07
2.38403e+07
2.38004e+07
2.37611e+07
2.3723e+07
2.36864e+07
2.43037e+07
2.42892e+07
2.42649e+07
2.42343e+07
2.41999e+07
2.41631e+07
2.41247e+07
2.40854e+07
2.40455e+07
2.40053e+07
2.39649e+07
2.39246e+07
2.38846e+07
2.38449e+07
2.38058e+07
2.37677e+07
2.37307e+07
2.36953e+07
2.43137e+07
2.42976e+07
2.42714e+07
2.42393e+07
2.42038e+07
2.41662e+07
2.41275e+07
2.40879e+07
2.4048e+07
2.40079e+07
2.39678e+07
2.39279e+07
2.38884e+07
2.38494e+07
2.38112e+07
2.37739e+07
2.37379e+07
2.37033e+07
2.43255e+07
2.43073e+07
2.42788e+07
2.42448e+07
2.4208e+07
2.41696e+07
2.41303e+07
2.40906e+07
2.40506e+07
2.40107e+07
2.39709e+07
2.39314e+07
2.38924e+07
2.38541e+07
2.38166e+07
2.37802e+07
2.3745e+07
2.37113e+07
2.43422e+07
2.43203e+07
2.42881e+07
2.42515e+07
2.4213e+07
2.41736e+07
2.41337e+07
2.40937e+07
2.40537e+07
2.4014e+07
2.39745e+07
2.39355e+07
2.38972e+07
2.38596e+07
2.38229e+07
2.37873e+07
2.3753e+07
2.37201e+07
2.43666e+07
2.43375e+07
2.42995e+07
2.42593e+07
2.42186e+07
2.41779e+07
2.41374e+07
2.40972e+07
2.40573e+07
2.40177e+07
2.39787e+07
2.39403e+07
2.39027e+07
2.38659e+07
2.38301e+07
2.37954e+07
2.37619e+07
2.37298e+07
2.44039e+07
2.4359e+07
2.43118e+07
2.42669e+07
2.42238e+07
2.41819e+07
2.41409e+07
2.41006e+07
2.40608e+07
2.40217e+07
2.39833e+07
2.39455e+07
2.39087e+07
2.38727e+07
2.38378e+07
2.3804e+07
2.37714e+07
2.37401e+07
2.44654e+07
2.43786e+07
2.43196e+07
2.42708e+07
2.42262e+07
2.41839e+07
2.41429e+07
2.41029e+07
2.40637e+07
2.40252e+07
2.39875e+07
2.39507e+07
2.39147e+07
2.38797e+07
2.38457e+07
2.38128e+07
2.37811e+07
2.37505e+07
2.43884e+07
2.43491e+07
2.43052e+07
2.42623e+07
2.42208e+07
2.41805e+07
2.4141e+07
2.41023e+07
2.40643e+07
2.40269e+07
2.39904e+07
2.39547e+07
2.39198e+07
2.38859e+07
2.38529e+07
2.3821e+07
2.37902e+07
2.37605e+07
2.43244e+07
2.43044e+07
2.4275e+07
2.42414e+07
2.4206e+07
2.41699e+07
2.41335e+07
2.40973e+07
2.40613e+07
2.40258e+07
2.39909e+07
2.39566e+07
2.39231e+07
2.38904e+07
2.38586e+07
2.38278e+07
2.37979e+07
2.3769e+07
2.42814e+07
2.42682e+07
2.42462e+07
2.4219e+07
2.41887e+07
2.41565e+07
2.41233e+07
2.40896e+07
2.40558e+07
2.40221e+07
2.39887e+07
2.39558e+07
2.39235e+07
2.3892e+07
2.38612e+07
2.38312e+07
2.38021e+07
2.37739e+07
2.42546e+07
2.42442e+07
2.42259e+07
2.42024e+07
2.41752e+07
2.41457e+07
2.41147e+07
2.40829e+07
2.40507e+07
2.40183e+07
2.39861e+07
2.39542e+07
2.39228e+07
2.3892e+07
2.3862e+07
2.38326e+07
2.38041e+07
2.37763e+07
2.42358e+07
2.42268e+07
2.42107e+07
2.41895e+07
2.41645e+07
2.41369e+07
2.41076e+07
2.40772e+07
2.40461e+07
2.40148e+07
2.39835e+07
2.39524e+07
2.39217e+07
2.38915e+07
2.3862e+07
2.38331e+07
2.3805e+07
2.37776e+07
2.42224e+07
2.42143e+07
2.41996e+07
2.41798e+07
2.41563e+07
2.41301e+07
2.41019e+07
2.40725e+07
2.40424e+07
2.40118e+07
2.39812e+07
2.39507e+07
2.39205e+07
2.38908e+07
2.38616e+07
2.38331e+07
2.38053e+07
2.37782e+07
2.4213e+07
2.42054e+07
2.41916e+07
2.41728e+07
2.41502e+07
2.41249e+07
2.40976e+07
2.4069e+07
2.40395e+07
2.40095e+07
2.39794e+07
2.39493e+07
2.39195e+07
2.38901e+07
2.38612e+07
2.3833e+07
2.38054e+07
2.37785e+07
2.42064e+07
2.41992e+07
2.41859e+07
2.41678e+07
2.41459e+07
2.41212e+07
2.40945e+07
2.40664e+07
2.40373e+07
2.40077e+07
2.3978e+07
2.39482e+07
2.39187e+07
2.38895e+07
2.38608e+07
2.38327e+07
2.38053e+07
2.37786e+07
2.4202e+07
2.4195e+07
2.4182e+07
2.41643e+07
2.41429e+07
2.41187e+07
2.40923e+07
2.40645e+07
2.40358e+07
2.40065e+07
2.39769e+07
2.39474e+07
2.3918e+07
2.3889e+07
2.38605e+07
2.38325e+07
2.38052e+07
2.37786e+07
2.41991e+07
2.41922e+07
2.41795e+07
2.41621e+07
2.41409e+07
2.41169e+07
2.40909e+07
2.40633e+07
2.40348e+07
2.40056e+07
2.39762e+07
2.39468e+07
2.39176e+07
2.38887e+07
2.38603e+07
2.38324e+07
2.38051e+07
2.37785e+07
2.41973e+07
2.41905e+07
2.41779e+07
2.41607e+07
2.41397e+07
2.41159e+07
2.409e+07
2.40625e+07
2.40341e+07
2.40051e+07
2.39758e+07
2.39465e+07
2.39173e+07
2.38885e+07
2.38601e+07
2.38323e+07
2.38051e+07
2.37785e+07
2.41964e+07
2.41896e+07
2.41771e+07
2.41599e+07
2.4139e+07
2.41153e+07
2.40895e+07
2.40621e+07
2.40338e+07
2.40048e+07
2.39755e+07
2.39463e+07
2.39171e+07
2.38883e+07
2.386e+07
2.38322e+07
2.3805e+07
2.37785e+07
2.4196e+07
2.41892e+07
2.41767e+07
2.41596e+07
2.41388e+07
2.41151e+07
2.40893e+07
2.40619e+07
2.40336e+07
2.40047e+07
2.39754e+07
2.39462e+07
2.39171e+07
2.38883e+07
2.386e+07
2.38322e+07
2.3805e+07
2.37785e+07
2.30295e+07
2.30292e+07
2.30285e+07
2.30273e+07
2.30257e+07
2.30235e+07
2.30209e+07
2.30178e+07
2.30143e+07
2.30102e+07
2.30056e+07
2.30005e+07
2.29949e+07
2.29887e+07
2.2982e+07
2.29748e+07
2.29671e+07
2.29588e+07
2.295e+07
2.29406e+07
2.29307e+07
2.29202e+07
2.29092e+07
2.28976e+07
2.28854e+07
2.28726e+07
2.28593e+07
2.28454e+07
2.2831e+07
2.28159e+07
2.28003e+07
2.27841e+07
2.27673e+07
2.27499e+07
2.2732e+07
2.27134e+07
2.26943e+07
2.26746e+07
2.26542e+07
2.26333e+07
2.26118e+07
2.25897e+07
2.2567e+07
2.25437e+07
2.25198e+07
2.24952e+07
2.24701e+07
2.24444e+07
2.2418e+07
2.23911e+07
2.23635e+07
2.23353e+07
2.23065e+07
2.2277e+07
2.2247e+07
2.22162e+07
2.21848e+07
2.21528e+07
2.21201e+07
2.20866e+07
2.20525e+07
2.20177e+07
2.19821e+07
2.19458e+07
2.19088e+07
2.18709e+07
2.18323e+07
2.17928e+07
2.17526e+07
2.17114e+07
2.16694e+07
2.16266e+07
2.15828e+07
2.1538e+07
2.14923e+07
2.14457e+07
2.1398e+07
2.13494e+07
2.12997e+07
2.12492e+07
2.11978e+07
2.11455e+07
2.10924e+07
2.10386e+07
2.09838e+07
2.0928e+07
2.08712e+07
2.08139e+07
2.07562e+07
2.06984e+07
2.06402e+07
2.05819e+07
2.05236e+07
2.04653e+07
2.04071e+07
2.03491e+07
2.02912e+07
2.02335e+07
2.01759e+07
2.01184e+07
2.00611e+07
2.00039e+07
1.99469e+07
1.98899e+07
1.98329e+07
1.9776e+07
1.97191e+07
1.96621e+07
1.96051e+07
1.95481e+07
1.94909e+07
1.94336e+07
1.93761e+07
1.93184e+07
1.92606e+07
1.92025e+07
1.91442e+07
1.90857e+07
1.90268e+07
1.89677e+07
1.89082e+07
1.88485e+07
1.87884e+07
1.87279e+07
1.86671e+07
1.86059e+07
1.85444e+07
1.84824e+07
1.842e+07
1.83572e+07
1.8294e+07
1.82304e+07
1.81663e+07
1.81017e+07
1.80367e+07
1.79713e+07
1.79053e+07
1.78389e+07
1.7772e+07
1.77046e+07
1.76367e+07
1.75683e+07
1.74994e+07
1.743e+07
1.73601e+07
1.72896e+07
1.72186e+07
1.71471e+07
1.7075e+07
1.70023e+07
1.69292e+07
1.68554e+07
1.67811e+07
1.67062e+07
1.66308e+07
1.65548e+07
1.64782e+07
1.6401e+07
1.63232e+07
1.62448e+07
1.61658e+07
1.60862e+07
1.6006e+07
1.59252e+07
1.58437e+07
1.57617e+07
1.5679e+07
1.55958e+07
1.55119e+07
1.54274e+07
1.53423e+07
1.52566e+07
1.51703e+07
1.50835e+07
1.49962e+07
1.49085e+07
1.48204e+07
1.47322e+07
1.46442e+07
1.4557e+07
2.30324e+07
2.3032e+07
2.30311e+07
2.30298e+07
2.3028e+07
2.30258e+07
2.30232e+07
2.30201e+07
2.30164e+07
2.30123e+07
2.30077e+07
2.30026e+07
2.2997e+07
2.29908e+07
2.29842e+07
2.29769e+07
2.29692e+07
2.29609e+07
2.29521e+07
2.29427e+07
2.29328e+07
2.29223e+07
2.29113e+07
2.28997e+07
2.28875e+07
2.28748e+07
2.28615e+07
2.28476e+07
2.28332e+07
2.28182e+07
2.28026e+07
2.27864e+07
2.27696e+07
2.27523e+07
2.27344e+07
2.27159e+07
2.26968e+07
2.26771e+07
2.26568e+07
2.26359e+07
2.26145e+07
2.25924e+07
2.25698e+07
2.25465e+07
2.25227e+07
2.24982e+07
2.24731e+07
2.24475e+07
2.24212e+07
2.23943e+07
2.23667e+07
2.23386e+07
2.23098e+07
2.22804e+07
2.22503e+07
2.22195e+07
2.21881e+07
2.2156e+07
2.21233e+07
2.20898e+07
2.20556e+07
2.20207e+07
2.1985e+07
2.19486e+07
2.19114e+07
2.18735e+07
2.18347e+07
2.17952e+07
2.17548e+07
2.17136e+07
2.16715e+07
2.16285e+07
2.15846e+07
2.15398e+07
2.1494e+07
2.14472e+07
2.13994e+07
2.13506e+07
2.13008e+07
2.125e+07
2.11984e+07
2.1146e+07
2.10929e+07
2.10392e+07
2.09845e+07
2.09285e+07
2.08713e+07
2.08137e+07
2.0756e+07
2.06982e+07
2.06398e+07
2.05814e+07
2.05231e+07
2.04648e+07
2.04066e+07
2.03486e+07
2.02907e+07
2.02329e+07
2.01753e+07
2.01179e+07
2.00606e+07
2.00035e+07
1.99464e+07
1.98895e+07
1.98325e+07
1.97756e+07
1.97188e+07
1.96618e+07
1.96049e+07
1.95478e+07
1.94906e+07
1.94333e+07
1.93759e+07
1.93183e+07
1.92604e+07
1.92024e+07
1.91441e+07
1.90855e+07
1.90267e+07
1.89676e+07
1.89082e+07
1.88484e+07
1.87883e+07
1.87279e+07
1.86671e+07
1.86059e+07
1.85443e+07
1.84823e+07
1.842e+07
1.83572e+07
1.8294e+07
1.82303e+07
1.81662e+07
1.81017e+07
1.80367e+07
1.79712e+07
1.79053e+07
1.78389e+07
1.7772e+07
1.77046e+07
1.76367e+07
1.75683e+07
1.74994e+07
1.743e+07
1.736e+07
1.72896e+07
1.72186e+07
1.7147e+07
1.7075e+07
1.70023e+07
1.69291e+07
1.68554e+07
1.67811e+07
1.67062e+07
1.66308e+07
1.65547e+07
1.64781e+07
1.64009e+07
1.63231e+07
1.62448e+07
1.61658e+07
1.60862e+07
1.6006e+07
1.59252e+07
1.58437e+07
1.57617e+07
1.5679e+07
1.55957e+07
1.55118e+07
1.54273e+07
1.53422e+07
1.52565e+07
1.51703e+07
1.50835e+07
1.49962e+07
1.49084e+07
1.48203e+07
1.47321e+07
1.46439e+07
1.45562e+07
2.30356e+07
2.30351e+07
2.30342e+07
2.30329e+07
2.30311e+07
2.30289e+07
2.30262e+07
2.3023e+07
2.30194e+07
2.30152e+07
2.30106e+07
2.30055e+07
2.29998e+07
2.29936e+07
2.29869e+07
2.29797e+07
2.29719e+07
2.29636e+07
2.29548e+07
2.29454e+07
2.29354e+07
2.29249e+07
2.29139e+07
2.29023e+07
2.28901e+07
2.28773e+07
2.2864e+07
2.28501e+07
2.28357e+07
2.28206e+07
2.2805e+07
2.27888e+07
2.2772e+07
2.27547e+07
2.27368e+07
2.27182e+07
2.26991e+07
2.26794e+07
2.26592e+07
2.26383e+07
2.26168e+07
2.25948e+07
2.25721e+07
2.25489e+07
2.2525e+07
2.25005e+07
2.24755e+07
2.24498e+07
2.24235e+07
2.23966e+07
2.2369e+07
2.23408e+07
2.2312e+07
2.22826e+07
2.22525e+07
2.22217e+07
2.21903e+07
2.21582e+07
2.21255e+07
2.2092e+07
2.20578e+07
2.20229e+07
2.19873e+07
2.19509e+07
2.19138e+07
2.18759e+07
2.18373e+07
2.17979e+07
2.17576e+07
2.17166e+07
2.16747e+07
2.1632e+07
2.15884e+07
2.1544e+07
2.14987e+07
2.14525e+07
2.14054e+07
2.13574e+07
2.13087e+07
2.12591e+07
2.12088e+07
2.11577e+07
2.11054e+07
2.1051e+07
2.0993e+07
2.09319e+07
2.08716e+07
2.0813e+07
2.07556e+07
2.06981e+07
2.0639e+07
2.05805e+07
2.05221e+07
2.04637e+07
2.04055e+07
2.03474e+07
2.02896e+07
2.02318e+07
2.01743e+07
2.01169e+07
2.00597e+07
2.00026e+07
1.99456e+07
1.98886e+07
1.98318e+07
1.9775e+07
1.97181e+07
1.96612e+07
1.96043e+07
1.95473e+07
1.94902e+07
1.94329e+07
1.93755e+07
1.93179e+07
1.92601e+07
1.92021e+07
1.91438e+07
1.90853e+07
1.90265e+07
1.89674e+07
1.8908e+07
1.88482e+07
1.87882e+07
1.87277e+07
1.86669e+07
1.86058e+07
1.85442e+07
1.84823e+07
1.84199e+07
1.83571e+07
1.82939e+07
1.82303e+07
1.81662e+07
1.81016e+07
1.80366e+07
1.79712e+07
1.79053e+07
1.78388e+07
1.77719e+07
1.77046e+07
1.76367e+07
1.75683e+07
1.74994e+07
1.743e+07
1.736e+07
1.72896e+07
1.72186e+07
1.7147e+07
1.70749e+07
1.70023e+07
1.69291e+07
1.68554e+07
1.67811e+07
1.67062e+07
1.66308e+07
1.65547e+07
1.64781e+07
1.64009e+07
1.63231e+07
1.62447e+07
1.61658e+07
1.60862e+07
1.6006e+07
1.59251e+07
1.58437e+07
1.57617e+07
1.5679e+07
1.55957e+07
1.55118e+07
1.54273e+07
1.53422e+07
1.52565e+07
1.51702e+07
1.50834e+07
1.49961e+07
1.49083e+07
1.48201e+07
1.47317e+07
1.46433e+07
1.45551e+07
2.30399e+07
2.30395e+07
2.30386e+07
2.30373e+07
2.30355e+07
2.30332e+07
2.30305e+07
2.30273e+07
2.30236e+07
2.30194e+07
2.30147e+07
2.30095e+07
2.30038e+07
2.29976e+07
2.29909e+07
2.29836e+07
2.29758e+07
2.29674e+07
2.29585e+07
2.2949e+07
2.2939e+07
2.29285e+07
2.29174e+07
2.29057e+07
2.28935e+07
2.28807e+07
2.28673e+07
2.28534e+07
2.28389e+07
2.28238e+07
2.28081e+07
2.27919e+07
2.27751e+07
2.27577e+07
2.27397e+07
2.27212e+07
2.2702e+07
2.26823e+07
2.2662e+07
2.26411e+07
2.26196e+07
2.25975e+07
2.25748e+07
2.25515e+07
2.25277e+07
2.25032e+07
2.24781e+07
2.24524e+07
2.2426e+07
2.23991e+07
2.23715e+07
2.23433e+07
2.23145e+07
2.2285e+07
2.22549e+07
2.22241e+07
2.21927e+07
2.21606e+07
2.21278e+07
2.20943e+07
2.20602e+07
2.20253e+07
2.19897e+07
2.19533e+07
2.19163e+07
2.18785e+07
2.18399e+07
2.18005e+07
2.17604e+07
2.17195e+07
2.16777e+07
2.16352e+07
2.15918e+07
2.15476e+07
2.15025e+07
2.14566e+07
2.14098e+07
2.13623e+07
2.13139e+07
2.12646e+07
2.12146e+07
2.11636e+07
2.11115e+07
2.10579e+07
2.10026e+07
2.0946e+07
2.08894e+07
2.08329e+07
2.07735e+07
2.07032e+07
2.0637e+07
2.05792e+07
2.05206e+07
2.0462e+07
2.04038e+07
2.03458e+07
2.02879e+07
2.02302e+07
2.01727e+07
2.01153e+07
2.00582e+07
2.00012e+07
1.99443e+07
1.98874e+07
1.98307e+07
1.97739e+07
1.97172e+07
1.96604e+07
1.96035e+07
1.95466e+07
1.94895e+07
1.94323e+07
1.93749e+07
1.93174e+07
1.92597e+07
1.92017e+07
1.91434e+07
1.9085e+07
1.90262e+07
1.89671e+07
1.89077e+07
1.8848e+07
1.8788e+07
1.87275e+07
1.86668e+07
1.86056e+07
1.85441e+07
1.84821e+07
1.84198e+07
1.8357e+07
1.82938e+07
1.82302e+07
1.81661e+07
1.81016e+07
1.80366e+07
1.79711e+07
1.79052e+07
1.78388e+07
1.77719e+07
1.77045e+07
1.76366e+07
1.75682e+07
1.74993e+07
1.74299e+07
1.736e+07
1.72895e+07
1.72185e+07
1.7147e+07
1.70749e+07
1.70023e+07
1.69291e+07
1.68554e+07
1.67811e+07
1.67062e+07
1.66307e+07
1.65547e+07
1.64781e+07
1.64009e+07
1.63231e+07
1.62447e+07
1.61657e+07
1.60861e+07
1.60059e+07
1.59251e+07
1.58437e+07
1.57616e+07
1.5679e+07
1.55957e+07
1.55118e+07
1.54273e+07
1.53421e+07
1.52564e+07
1.51701e+07
1.50833e+07
1.49959e+07
1.4908e+07
1.48198e+07
1.47312e+07
1.46425e+07
1.45537e+07
2.30457e+07
2.30453e+07
2.30444e+07
2.3043e+07
2.30412e+07
2.30389e+07
2.30361e+07
2.30329e+07
2.30292e+07
2.30249e+07
2.30202e+07
2.30149e+07
2.30092e+07
2.30029e+07
2.2996e+07
2.29887e+07
2.29808e+07
2.29724e+07
2.29634e+07
2.29538e+07
2.29438e+07
2.29331e+07
2.29219e+07
2.29102e+07
2.28979e+07
2.2885e+07
2.28715e+07
2.28575e+07
2.2843e+07
2.28278e+07
2.28121e+07
2.27958e+07
2.27789e+07
2.27614e+07
2.27434e+07
2.27248e+07
2.27056e+07
2.26858e+07
2.26654e+07
2.26445e+07
2.26229e+07
2.26008e+07
2.25781e+07
2.25547e+07
2.25308e+07
2.25063e+07
2.24811e+07
2.24554e+07
2.2429e+07
2.2402e+07
2.23744e+07
2.23462e+07
2.23173e+07
2.22878e+07
2.22577e+07
2.22269e+07
2.21954e+07
2.21633e+07
2.21305e+07
2.2097e+07
2.20628e+07
2.2028e+07
2.19924e+07
2.19561e+07
2.1919e+07
2.18812e+07
2.18427e+07
2.18034e+07
2.17634e+07
2.17226e+07
2.16809e+07
2.16385e+07
2.15953e+07
2.15512e+07
2.15064e+07
2.14607e+07
2.14141e+07
2.13668e+07
2.13186e+07
2.12696e+07
2.12198e+07
2.1169e+07
2.11172e+07
2.10642e+07
2.101e+07
2.09549e+07
2.08991e+07
2.08427e+07
2.07844e+07
2.07233e+07
2.06626e+07
2.05979e+07
2.05191e+07
2.04597e+07
2.04013e+07
2.03436e+07
2.02857e+07
2.0228e+07
2.01705e+07
2.01133e+07
2.00562e+07
1.99993e+07
1.99425e+07
1.98858e+07
1.98292e+07
1.97725e+07
1.97159e+07
1.96592e+07
1.96024e+07
1.95456e+07
1.94886e+07
1.94315e+07
1.93742e+07
1.93167e+07
1.9259e+07
1.92011e+07
1.91429e+07
1.90845e+07
1.90258e+07
1.89667e+07
1.89074e+07
1.88477e+07
1.87877e+07
1.87273e+07
1.86665e+07
1.86054e+07
1.85439e+07
1.8482e+07
1.84196e+07
1.83569e+07
1.82937e+07
1.82301e+07
1.8166e+07
1.81015e+07
1.80365e+07
1.7971e+07
1.79051e+07
1.78387e+07
1.77718e+07
1.77045e+07
1.76366e+07
1.75682e+07
1.74993e+07
1.74299e+07
1.736e+07
1.72895e+07
1.72185e+07
1.7147e+07
1.70749e+07
1.70023e+07
1.69291e+07
1.68553e+07
1.6781e+07
1.67062e+07
1.66307e+07
1.65547e+07
1.64781e+07
1.64009e+07
1.63231e+07
1.62447e+07
1.61657e+07
1.60861e+07
1.60059e+07
1.59251e+07
1.58437e+07
1.57616e+07
1.56789e+07
1.55956e+07
1.55117e+07
1.54272e+07
1.53421e+07
1.52563e+07
1.517e+07
1.50831e+07
1.49957e+07
1.49078e+07
1.48194e+07
1.47307e+07
1.46416e+07
1.45523e+07
2.30529e+07
2.30525e+07
2.30516e+07
2.30502e+07
2.30483e+07
2.3046e+07
2.30432e+07
2.30399e+07
2.30361e+07
2.30318e+07
2.3027e+07
2.30217e+07
2.30158e+07
2.30094e+07
2.30025e+07
2.2995e+07
2.2987e+07
2.29785e+07
2.29694e+07
2.29598e+07
2.29496e+07
2.29389e+07
2.29276e+07
2.29157e+07
2.29033e+07
2.28903e+07
2.28767e+07
2.28626e+07
2.28479e+07
2.28327e+07
2.28169e+07
2.28005e+07
2.27835e+07
2.27659e+07
2.27478e+07
2.27291e+07
2.27098e+07
2.269e+07
2.26695e+07
2.26485e+07
2.26269e+07
2.26047e+07
2.25819e+07
2.25585e+07
2.25345e+07
2.25099e+07
2.24847e+07
2.24589e+07
2.24324e+07
2.24054e+07
2.23778e+07
2.23495e+07
2.23206e+07
2.2291e+07
2.22608e+07
2.223e+07
2.21985e+07
2.21664e+07
2.21335e+07
2.21e+07
2.20659e+07
2.2031e+07
2.19954e+07
2.19591e+07
2.19221e+07
2.18843e+07
2.18459e+07
2.18066e+07
2.17666e+07
2.17259e+07
2.16844e+07
2.1642e+07
2.15989e+07
2.1555e+07
2.15103e+07
2.14648e+07
2.14185e+07
2.13713e+07
2.13234e+07
2.12745e+07
2.12249e+07
2.11743e+07
2.11228e+07
2.10702e+07
2.10167e+07
2.09623e+07
2.09071e+07
2.08509e+07
2.07935e+07
2.07347e+07
2.06749e+07
2.06133e+07
2.05482e+07
2.04803e+07
2.0398e+07
2.03413e+07
2.0283e+07
2.02251e+07
2.01677e+07
2.01106e+07
2.00538e+07
1.9997e+07
1.99404e+07
1.98839e+07
1.98273e+07
1.97708e+07
1.97143e+07
1.96578e+07
1.96011e+07
1.95444e+07
1.94875e+07
1.94305e+07
1.93733e+07
1.93159e+07
1.92583e+07
1.92004e+07
1.91423e+07
1.90839e+07
1.90253e+07
1.89663e+07
1.8907e+07
1.88473e+07
1.87873e+07
1.8727e+07
1.86663e+07
1.86052e+07
1.85437e+07
1.84818e+07
1.84194e+07
1.83567e+07
1.82935e+07
1.82299e+07
1.81659e+07
1.81014e+07
1.80364e+07
1.7971e+07
1.7905e+07
1.78387e+07
1.77718e+07
1.77044e+07
1.76365e+07
1.75681e+07
1.74993e+07
1.74298e+07
1.73599e+07
1.72895e+07
1.72185e+07
1.71469e+07
1.70749e+07
1.70022e+07
1.69291e+07
1.68553e+07
1.6781e+07
1.67061e+07
1.66307e+07
1.65547e+07
1.64781e+07
1.64009e+07
1.63231e+07
1.62447e+07
1.61657e+07
1.60861e+07
1.60059e+07
1.59251e+07
1.58436e+07
1.57616e+07
1.56789e+07
1.55956e+07
1.55117e+07
1.54271e+07
1.5342e+07
1.52562e+07
1.51699e+07
1.50829e+07
1.49954e+07
1.49074e+07
1.48189e+07
1.473e+07
1.46407e+07
1.45509e+07
2.30616e+07
2.30612e+07
2.30602e+07
2.30588e+07
2.30569e+07
2.30546e+07
2.30517e+07
2.30483e+07
2.30444e+07
2.30401e+07
2.30351e+07
2.30297e+07
2.30237e+07
2.30172e+07
2.30102e+07
2.30026e+07
2.29945e+07
2.29859e+07
2.29766e+07
2.29669e+07
2.29565e+07
2.29457e+07
2.29342e+07
2.29222e+07
2.29097e+07
2.28965e+07
2.28829e+07
2.28686e+07
2.28538e+07
2.28384e+07
2.28224e+07
2.28059e+07
2.27888e+07
2.27712e+07
2.27529e+07
2.27341e+07
2.27147e+07
2.26948e+07
2.26742e+07
2.26531e+07
2.26314e+07
2.26091e+07
2.25862e+07
2.25627e+07
2.25386e+07
2.25139e+07
2.24887e+07
2.24628e+07
2.24363e+07
2.24092e+07
2.23815e+07
2.23532e+07
2.23242e+07
2.22946e+07
2.22644e+07
2.22335e+07
2.2202e+07
2.21698e+07
2.21369e+07
2.21034e+07
2.20692e+07
2.20343e+07
2.19987e+07
2.19624e+07
2.19254e+07
2.18877e+07
2.18493e+07
2.18101e+07
2.17701e+07
2.17295e+07
2.1688e+07
2.16458e+07
2.16028e+07
2.1559e+07
2.15144e+07
2.1469e+07
2.14229e+07
2.13759e+07
2.13281e+07
2.12794e+07
2.123e+07
2.11796e+07
2.11283e+07
2.10762e+07
2.10231e+07
2.09691e+07
2.09142e+07
2.08584e+07
2.08016e+07
2.07437e+07
2.06847e+07
2.06243e+07
2.05621e+07
2.04979e+07
2.04292e+07
2.03483e+07
2.02794e+07
2.02215e+07
2.01643e+07
2.01075e+07
2.00508e+07
1.99943e+07
1.99378e+07
1.98815e+07
1.98251e+07
1.97688e+07
1.97125e+07
1.9656e+07
1.95996e+07
1.95429e+07
1.94862e+07
1.94293e+07
1.93722e+07
1.93149e+07
1.92574e+07
1.91996e+07
1.91416e+07
1.90833e+07
1.90247e+07
1.89657e+07
1.89065e+07
1.88469e+07
1.87869e+07
1.87266e+07
1.86659e+07
1.86049e+07
1.85434e+07
1.84815e+07
1.84192e+07
1.83565e+07
1.82934e+07
1.82298e+07
1.81657e+07
1.81012e+07
1.80363e+07
1.79708e+07
1.79049e+07
1.78386e+07
1.77717e+07
1.77043e+07
1.76365e+07
1.75681e+07
1.74992e+07
1.74298e+07
1.73599e+07
1.72894e+07
1.72184e+07
1.71469e+07
1.70748e+07
1.70022e+07
1.6929e+07
1.68553e+07
1.6781e+07
1.67061e+07
1.66307e+07
1.65547e+07
1.6478e+07
1.64008e+07
1.63231e+07
1.62447e+07
1.61657e+07
1.60861e+07
1.60059e+07
1.5925e+07
1.58436e+07
1.57615e+07
1.56788e+07
1.55955e+07
1.55116e+07
1.5427e+07
1.53419e+07
1.52561e+07
1.51697e+07
1.50827e+07
1.49951e+07
1.4907e+07
1.48184e+07
1.47293e+07
1.46396e+07
1.45494e+07
2.30718e+07
2.30713e+07
2.30704e+07
2.30689e+07
2.3067e+07
2.30645e+07
2.30616e+07
2.30581e+07
2.30542e+07
2.30497e+07
2.30446e+07
2.30391e+07
2.3033e+07
2.30264e+07
2.30192e+07
2.30115e+07
2.30032e+07
2.29944e+07
2.2985e+07
2.2975e+07
2.29645e+07
2.29535e+07
2.29419e+07
2.29297e+07
2.2917e+07
2.29037e+07
2.28899e+07
2.28754e+07
2.28605e+07
2.28449e+07
2.28288e+07
2.28122e+07
2.27949e+07
2.27771e+07
2.27587e+07
2.27398e+07
2.27203e+07
2.27002e+07
2.26795e+07
2.26582e+07
2.26364e+07
2.2614e+07
2.2591e+07
2.25674e+07
2.25433e+07
2.25185e+07
2.24931e+07
2.24672e+07
2.24406e+07
2.24134e+07
2.23856e+07
2.23572e+07
2.23282e+07
2.22985e+07
2.22682e+07
2.22373e+07
2.22057e+07
2.21735e+07
2.21406e+07
2.2107e+07
2.20728e+07
2.20379e+07
2.20023e+07
2.1966e+07
2.1929e+07
2.18913e+07
2.18529e+07
2.18137e+07
2.17738e+07
2.17332e+07
2.16918e+07
2.16497e+07
2.16068e+07
2.15631e+07
2.15186e+07
2.14734e+07
2.14273e+07
2.13805e+07
2.13328e+07
2.12843e+07
2.1235e+07
2.11849e+07
2.11338e+07
2.10819e+07
2.10292e+07
2.09755e+07
2.0921e+07
2.08655e+07
2.08091e+07
2.07517e+07
2.06933e+07
2.06337e+07
2.05726e+07
2.051e+07
2.04449e+07
2.0376e+07
2.03004e+07
2.02171e+07
2.01602e+07
2.01037e+07
2.00473e+07
1.99911e+07
1.99349e+07
1.98787e+07
1.98226e+07
1.97665e+07
1.97103e+07
1.96541e+07
1.95977e+07
1.95413e+07
1.94847e+07
1.94279e+07
1.9371e+07
1.93138e+07
1.92564e+07
1.91987e+07
1.91408e+07
1.90825e+07
1.9024e+07
1.89651e+07
1.89059e+07
1.88464e+07
1.87865e+07
1.87262e+07
1.86656e+07
1.86045e+07
1.85431e+07
1.84812e+07
1.8419e+07
1.83563e+07
1.82932e+07
1.82296e+07
1.81656e+07
1.81011e+07
1.80361e+07
1.79707e+07
1.79048e+07
1.78385e+07
1.77716e+07
1.77042e+07
1.76364e+07
1.7568e+07
1.74991e+07
1.74297e+07
1.73598e+07
1.72894e+07
1.72184e+07
1.71469e+07
1.70748e+07
1.70022e+07
1.6929e+07
1.68553e+07
1.6781e+07
1.67061e+07
1.66307e+07
1.65546e+07
1.6478e+07
1.64008e+07
1.6323e+07
1.62446e+07
1.61656e+07
1.6086e+07
1.60058e+07
1.5925e+07
1.58436e+07
1.57615e+07
1.56788e+07
1.55955e+07
1.55115e+07
1.5427e+07
1.53418e+07
1.52559e+07
1.51695e+07
1.50825e+07
1.49948e+07
1.49066e+07
1.48179e+07
1.47285e+07
1.46386e+07
1.4548e+07
2.30835e+07
2.3083e+07
2.3082e+07
2.30805e+07
2.30785e+07
2.3076e+07
2.30729e+07
2.30694e+07
2.30653e+07
2.30607e+07
2.30555e+07
2.30498e+07
2.30435e+07
2.30367e+07
2.30294e+07
2.30215e+07
2.3013e+07
2.3004e+07
2.29944e+07
2.29843e+07
2.29736e+07
2.29623e+07
2.29505e+07
2.29382e+07
2.29252e+07
2.29118e+07
2.28977e+07
2.28831e+07
2.2868e+07
2.28522e+07
2.28359e+07
2.28191e+07
2.28017e+07
2.27837e+07
2.27652e+07
2.27461e+07
2.27264e+07
2.27061e+07
2.26853e+07
2.26639e+07
2.2642e+07
2.26194e+07
2.25963e+07
2.25726e+07
2.25483e+07
2.25234e+07
2.2498e+07
2.24719e+07
2.24452e+07
2.2418e+07
2.23901e+07
2.23616e+07
2.23325e+07
2.23028e+07
2.22724e+07
2.22414e+07
2.22098e+07
2.21775e+07
2.21445e+07
2.2111e+07
2.20767e+07
2.20418e+07
2.20061e+07
2.19698e+07
2.19328e+07
2.18951e+07
2.18567e+07
2.18176e+07
2.17777e+07
2.17371e+07
2.16958e+07
2.16537e+07
2.16109e+07
2.15673e+07
2.15229e+07
2.14777e+07
2.14318e+07
2.13851e+07
2.13375e+07
2.12892e+07
2.12401e+07
2.11901e+07
2.11392e+07
2.10876e+07
2.1035e+07
2.09817e+07
2.09274e+07
2.08722e+07
2.08162e+07
2.07592e+07
2.07011e+07
2.0642e+07
2.05817e+07
2.05201e+07
2.04567e+07
2.03911e+07
2.03225e+07
2.02465e+07
2.01563e+07
2.00995e+07
2.00434e+07
1.99874e+07
1.99315e+07
1.98756e+07
1.98197e+07
1.97638e+07
1.97079e+07
1.96518e+07
1.95957e+07
1.95394e+07
1.9483e+07
1.94264e+07
1.93696e+07
1.93125e+07
1.92552e+07
1.91977e+07
1.91398e+07
1.90817e+07
1.90232e+07
1.89644e+07
1.89053e+07
1.88458e+07
1.8786e+07
1.87258e+07
1.86652e+07
1.86042e+07
1.85428e+07
1.84809e+07
1.84187e+07
1.8356e+07
1.82929e+07
1.82294e+07
1.81654e+07
1.81009e+07
1.8036e+07
1.79706e+07
1.79047e+07
1.78383e+07
1.77715e+07
1.77041e+07
1.76363e+07
1.75679e+07
1.74991e+07
1.74297e+07
1.73598e+07
1.72893e+07
1.72183e+07
1.71468e+07
1.70747e+07
1.70021e+07
1.6929e+07
1.68552e+07
1.67809e+07
1.67061e+07
1.66306e+07
1.65546e+07
1.6478e+07
1.64008e+07
1.6323e+07
1.62446e+07
1.61656e+07
1.6086e+07
1.60058e+07
1.5925e+07
1.58435e+07
1.57614e+07
1.56787e+07
1.55954e+07
1.55114e+07
1.54269e+07
1.53416e+07
1.52558e+07
1.51693e+07
1.50822e+07
1.49945e+07
1.49062e+07
1.48173e+07
1.47277e+07
1.46375e+07
1.45466e+07
2.30968e+07
2.30962e+07
2.30951e+07
2.30936e+07
2.30915e+07
2.30889e+07
2.30857e+07
2.30821e+07
2.30778e+07
2.3073e+07
2.30677e+07
2.30618e+07
2.30554e+07
2.30484e+07
2.30408e+07
2.30327e+07
2.3024e+07
2.30147e+07
2.30049e+07
2.29946e+07
2.29836e+07
2.29722e+07
2.29601e+07
2.29475e+07
2.29344e+07
2.29207e+07
2.29064e+07
2.28916e+07
2.28762e+07
2.28602e+07
2.28438e+07
2.28267e+07
2.28091e+07
2.27909e+07
2.27722e+07
2.27529e+07
2.27331e+07
2.27127e+07
2.26917e+07
2.26701e+07
2.2648e+07
2.26253e+07
2.26021e+07
2.25782e+07
2.25538e+07
2.25288e+07
2.25032e+07
2.2477e+07
2.24502e+07
2.24229e+07
2.23949e+07
2.23663e+07
2.23371e+07
2.23073e+07
2.22768e+07
2.22458e+07
2.22141e+07
2.21817e+07
2.21487e+07
2.21151e+07
2.20808e+07
2.20458e+07
2.20102e+07
2.19738e+07
2.19368e+07
2.18991e+07
2.18607e+07
2.18216e+07
2.17817e+07
2.17412e+07
2.16999e+07
2.16578e+07
2.16151e+07
2.15715e+07
2.15272e+07
2.14822e+07
2.14363e+07
2.13897e+07
2.13423e+07
2.12941e+07
2.12451e+07
2.11952e+07
2.11446e+07
2.10931e+07
2.10408e+07
2.09876e+07
2.09336e+07
2.08787e+07
2.08229e+07
2.07661e+07
2.07085e+07
2.06498e+07
2.059e+07
2.05289e+07
2.04665e+07
2.04024e+07
2.03362e+07
2.02663e+07
2.01878e+07
2.00959e+07
2.00391e+07
1.99834e+07
1.99277e+07
1.98721e+07
1.98165e+07
1.97608e+07
1.97051e+07
1.96493e+07
1.95934e+07
1.95374e+07
1.94811e+07
1.94247e+07
1.9368e+07
1.93111e+07
1.92539e+07
1.91965e+07
1.91388e+07
1.90807e+07
1.90224e+07
1.89637e+07
1.89046e+07
1.88452e+07
1.87854e+07
1.87253e+07
1.86647e+07
1.86037e+07
1.85424e+07
1.84806e+07
1.84184e+07
1.83558e+07
1.82927e+07
1.82292e+07
1.81652e+07
1.81007e+07
1.80358e+07
1.79704e+07
1.79046e+07
1.78382e+07
1.77714e+07
1.7704e+07
1.76362e+07
1.75679e+07
1.7499e+07
1.74296e+07
1.73597e+07
1.72893e+07
1.72183e+07
1.71468e+07
1.70747e+07
1.70021e+07
1.69289e+07
1.68552e+07
1.67809e+07
1.6706e+07
1.66306e+07
1.65546e+07
1.6478e+07
1.64008e+07
1.6323e+07
1.62446e+07
1.61656e+07
1.6086e+07
1.60058e+07
1.59249e+07
1.58435e+07
1.57614e+07
1.56787e+07
1.55953e+07
1.55114e+07
1.54267e+07
1.53415e+07
1.52556e+07
1.51691e+07
1.50819e+07
1.49942e+07
1.49057e+07
1.48167e+07
1.4727e+07
1.46365e+07
1.45453e+07
2.31116e+07
2.3111e+07
2.31099e+07
2.31082e+07
2.3106e+07
2.31033e+07
2.31e+07
2.30962e+07
2.30918e+07
2.30868e+07
2.30813e+07
2.30752e+07
2.30685e+07
2.30612e+07
2.30534e+07
2.3045e+07
2.30361e+07
2.30266e+07
2.30165e+07
2.30059e+07
2.29947e+07
2.29829e+07
2.29706e+07
2.29577e+07
2.29443e+07
2.29304e+07
2.29158e+07
2.29008e+07
2.28851e+07
2.28689e+07
2.28522e+07
2.28349e+07
2.28171e+07
2.27987e+07
2.27798e+07
2.27603e+07
2.27402e+07
2.27196e+07
2.26985e+07
2.26767e+07
2.26545e+07
2.26316e+07
2.26082e+07
2.25842e+07
2.25596e+07
2.25345e+07
2.25087e+07
2.24824e+07
2.24555e+07
2.2428e+07
2.23999e+07
2.23713e+07
2.2342e+07
2.2312e+07
2.22815e+07
2.22504e+07
2.22186e+07
2.21862e+07
2.21531e+07
2.21194e+07
2.20851e+07
2.205e+07
2.20144e+07
2.1978e+07
2.1941e+07
2.19032e+07
2.18648e+07
2.18257e+07
2.17859e+07
2.17453e+07
2.17041e+07
2.16621e+07
2.16193e+07
2.15758e+07
2.15316e+07
2.14866e+07
2.14408e+07
2.13943e+07
2.1347e+07
2.12989e+07
2.125e+07
2.12003e+07
2.11498e+07
2.10985e+07
2.10463e+07
2.09933e+07
2.09395e+07
2.08848e+07
2.08292e+07
2.07727e+07
2.07153e+07
2.0657e+07
2.05975e+07
2.0537e+07
2.04752e+07
2.04119e+07
2.03469e+07
2.02793e+07
2.02072e+07
2.01245e+07
2.00351e+07
1.9979e+07
1.99236e+07
1.98683e+07
1.98129e+07
1.97576e+07
1.97022e+07
1.96466e+07
1.95909e+07
1.95351e+07
1.94791e+07
1.94228e+07
1.93663e+07
1.93096e+07
1.92526e+07
1.91953e+07
1.91376e+07
1.90797e+07
1.90214e+07
1.89628e+07
1.89039e+07
1.88445e+07
1.87848e+07
1.87247e+07
1.86642e+07
1.86033e+07
1.8542e+07
1.84802e+07