/*--------------------------------*- C++ -*----------------------------------*\
  =========                 |
  \\      /  F ield         | OpenFOAM: The Open Source CFD Toolbox
   \\    /   O peration     | Website:  https://openfoam.org
    \\  /    A nd           | Version:  10
     \\/     M anipulation  |
\*---------------------------------------------------------------------------*/
FoamFile
{
    format      ascii;
    class       volVectorField;
    location    "0.054";
    object      UMean;
}
// * * * * * * * * * * * * * * * * * * * * * * * * * * * * * * * * * * * * * //

dimensions      [0 1 -1 0 0 0 0];

internalField   nonuniform List<vector> 
12225
(
(9.8464 0.0450602 0)
(9.56155 0.0605251 0)
(9.26804 0.0581021 0)
(8.96866 0.0563695 0)
(8.67629 0.0553452 0)
(8.39664 0.054359 0)
(8.1301 0.0527546 0)
(7.87516 0.0518159 0)
(7.63008 0.0498961 0)
(7.39448 0.0499427 0)
(7.1658 0.0472794 0)
(6.94644 0.0498277 0)
(6.72687 0.0451243 0)
(6.5198 0.0542858 0)
(6.29269 0.0438349 0)
(6.09472 0.0693923 0)
(5.83147 0.0402902 0)
(5.6474 0.0990786 0)
(10.0054 0.051679 0)
(10.0744 0.0738768 0)
(10.1164 0.0728884 0)
(10.1301 0.0733708 0)
(10.1276 0.075967 0)
(10.1169 0.0780969 0)
(10.0993 0.0799254 0)
(10.0762 0.0810596 0)
(10.0461 0.0829953 0)
(10.0121 0.0839508 0)
(9.97084 0.0869783 0)
(9.92803 0.0877967 0)
(9.87551 0.0936837 0)
(9.82462 0.0946772 0)
(9.75822 0.107014 0)
(9.6982 0.108094 0)
(9.61391 0.127749 0)
(9.53738 0.118257 0)
(10.0021 0.031576 0)
(10.0433 0.0529981 0)
(10.075 0.0550459 0)
(10.0918 0.056483 0)
(10.1022 0.0600149 0)
(10.1119 0.0638338 0)
(10.1224 0.0665422 0)
(10.1324 0.0693928 0)
(10.1416 0.0713873 0)
(10.149 0.074834 0)
(10.1561 0.0767936 0)
(10.161 0.0821028 0)
(10.167 0.0847461 0)
(10.17 0.0941795 0)
(10.1772 0.0991878 0)
(10.1813 0.114139 0)
(10.1955 0.121272 0)
(10.2058 0.124563 0)
(9.99835 0.0277301 0)
(10.0304 0.0565119 0)
(10.0569 0.0616676 0)
(10.0716 0.0625841 0)
(10.0797 0.0654033 0)
(10.0867 0.0686774 0)
(10.0944 0.071465 0)
(10.1026 0.0735322 0)
(10.1107 0.0758259 0)
(10.1184 0.077987 0)
(10.126 0.0811095 0)
(10.1336 0.0842465 0)
(10.1418 0.0891813 0)
(10.151 0.094577 0)
(10.163 0.102382 0)
(10.1786 0.110638 0)
(10.2003 0.116784 0)
(10.2276 0.117262 0)
(9.98944 0.0225822 0)
(10.0156 0.0465695 0)
(10.0389 0.0529784 0)
(10.0535 0.0543397 0)
(10.0625 0.0569536 0)
(10.0695 0.0605947 0)
(10.0767 0.0636936 0)
(10.0841 0.0662707 0)
(10.0914 0.0684347 0)
(10.0985 0.0709509 0)
(10.1055 0.0736383 0)
(10.1127 0.0771682 0)
(10.1206 0.0812839 0)
(10.1298 0.0865054 0)
(10.1411 0.0925386 0)
(10.156 0.0980175 0)
(10.1744 0.101466 0)
(10.196 0.0967919 0)
(9.98259 0.0175931 0)
(10.0048 0.0429715 0)
(10.0248 0.0522207 0)
(10.0382 0.0547876 0)
(10.0469 0.0573618 0)
(10.054 0.0608567 0)
(10.0612 0.0641755 0)
(10.0687 0.066823 0)
(10.0763 0.0690987 0)
(10.0837 0.0714037 0)
(10.0911 0.0739824 0)
(10.0987 0.0770521 0)
(10.1071 0.0806343 0)
(10.1166 0.0848049 0)
(10.1279 0.0890006 0)
(10.1416 0.0923246 0)
(10.1573 0.0926616 0)
(10.1745 0.0875577 0)
(9.98336 0.0156988 0)
(10.002 0.0372101 0)
(10.0192 0.0469414 0)
(10.0318 0.0503246 0)
(10.0407 0.0527568 0)
(10.048 0.0559047 0)
(10.0551 0.0590947 0)
(10.0626 0.0617261 0)
(10.0702 0.0639138 0)
(10.0775 0.0660587 0)
(10.0847 0.0684408 0)
(10.0922 0.0711803 0)
(10.1002 0.0743141 0)
(10.1094 0.077626 0)
(10.1199 0.0806681 0)
(10.1322 0.0824551 0)
(10.1457 0.0817034 0)
(10.1597 0.0772359 0)
(9.9952 0.0124825 0)
(10.0109 0.0323108 0)
(10.0256 0.0434438 0)
(10.0372 0.0482472 0)
(10.0463 0.0510835 0)
(10.0539 0.0540913 0)
(10.0609 0.0572235 0)
(10.0681 0.0600049 0)
(10.0754 0.0623643 0)
(10.0827 0.0645622 0)
(10.09 0.0668116 0)
(10.0973 0.0692046 0)
(10.1052 0.0716774 0)
(10.1139 0.0740244 0)
(10.1236 0.0758008 0)
(10.1343 0.0763416 0)
(10.1457 0.0748475 0)
(10.1568 0.0707299 0)
(9.98994 0.0121527 0)
(10.0037 0.0286459 0)
(10.0164 0.0390521 0)
(10.0271 0.0442541 0)
(10.0366 0.0473227 0)
(10.045 0.0502232 0)
(10.0528 0.0531482 0)
(10.0606 0.0557453 0)
(10.0684 0.0579246 0)
(10.0761 0.0598756 0)
(10.0838 0.0618298 0)
(10.0917 0.0638602 0)
(10.0999 0.0658591 0)
(10.1088 0.0675771 0)
(10.1183 0.0686272 0)
(10.1286 0.0685765 0)
(10.139 0.0668824 0)
(10.1493 0.0633831 0)
(9.98133 0.0109614 0)
(9.99537 0.0245095 0)
(10.0069 0.0345419 0)
(10.0162 0.0405274 0)
(10.0248 0.0441288 0)
(10.033 0.0469887 0)
(10.0405 0.0497005 0)
(10.0478 0.0522509 0)
(10.0552 0.0545384 0)
(10.0626 0.0565935 0)
(10.0701 0.0584601 0)
(10.0779 0.0601594 0)
(10.0861 0.0615838 0)
(10.0949 0.0626014 0)
(10.104 0.0628929 0)
(10.1138 0.062267 0)
(10.123 0.0603151 0)
(10.1325 0.0571896 0)
(9.96543 0.00872161 0)
(9.9775 0.0218032 0)
(9.98649 0.0305371 0)
(9.9939 0.0364519 0)
(10.0017 0.0404922 0)
(10.0097 0.0434826 0)
(10.0174 0.0460505 0)
(10.0249 0.0483616 0)
(10.0324 0.0503661 0)
(10.04 0.0520719 0)
(10.0477 0.0535106 0)
(10.0555 0.0547418 0)
(10.0634 0.0556628 0)
(10.0716 0.0562236 0)
(10.08 0.0561379 0)
(10.0885 0.0553539 0)
(10.0968 0.0535172 0)
(10.1048 0.0508957 0)
(9.99169 0.00915329 0)
(10.0011 0.0199313 0)
(10.0085 0.027873 0)
(10.0149 0.0335772 0)
(10.0218 0.0373471 0)
(10.0292 0.0400242 0)
(10.0366 0.0423316 0)
(10.0441 0.0445117 0)
(10.0517 0.0464883 0)
(10.0594 0.0481729 0)
(10.0671 0.0495242 0)
(10.0748 0.0505767 0)
(10.0824 0.0512351 0)
(10.09 0.051469 0)
(10.0978 0.0510451 0)
(10.1053 0.0500097 0)
(10.1129 0.0480749 0)
(10.1197 0.0456146 0)
(9.98947 0.00900564 0)
(9.99891 0.0157693 0)
(10.0058 0.0237556 0)
(10.0112 0.0299596 0)
(10.0173 0.0338916 0)
(10.024 0.0364195 0)
(10.031 0.0383332 0)
(10.0382 0.0400371 0)
(10.0455 0.041593 0)
(10.0531 0.0429849 0)
(10.0607 0.0441228 0)
(10.0683 0.0449729 0)
(10.076 0.0454298 0)
(10.0837 0.0454665 0)
(10.0913 0.0449134 0)
(10.0987 0.0438441 0)
(10.106 0.0420612 0)
(10.1126 0.039893 0)
(10.0129 0.0104185 0)
(10.0251 0.0158017 0)
(10.0329 0.0227137 0)
(10.0379 0.0280412 0)
(10.0435 0.0313945 0)
(10.0501 0.0334978 0)
(10.0571 0.035098 0)
(10.064 0.0365378 0)
(10.0706 0.037868 0)
(10.0771 0.0390381 0)
(10.0836 0.0399549 0)
(10.0902 0.040566 0)
(10.0969 0.0407612 0)
(10.1035 0.0405472 0)
(10.1102 0.0397822 0)
(10.1166 0.0385985 0)
(10.1231 0.0367829 0)
(10.1289 0.034744 0)
(9.99933 0.00350717 0)
(10.0115 0.0108878 0)
(10.019 0.0167831 0)
(10.0236 0.0211744 0)
(10.0292 0.024323 0)
(10.036 0.0265816 0)
(10.0432 0.0282745 0)
(10.0503 0.0296636 0)
(10.0572 0.030864 0)
(10.0641 0.0318577 0)
(10.0712 0.0325406 0)
(10.0784 0.0328485 0)
(10.0858 0.0327072 0)
(10.0932 0.032158 0)
(10.1004 0.0311514 0)
(10.1076 0.0298532 0)
(10.1144 0.028122 0)
(10.1211 0.0263103 0)
(10.0035 0.00633675 0)
(10.0146 0.0121922 0)
(10.0208 0.016157 0)
(10.0244 0.0191622 0)
(10.0289 0.021562 0)
(10.0347 0.0233929 0)
(10.041 0.0247101 0)
(10.0474 0.0256561 0)
(10.0537 0.0263072 0)
(10.06 0.0266933 0)
(10.0663 0.0267699 0)
(10.0728 0.0265599 0)
(10.0793 0.0260083 0)
(10.0857 0.0252088 0)
(10.0919 0.0240645 0)
(10.098 0.0227701 0)
(10.1037 0.0210995 0)
(10.1092 0.0194454 0)
(9.99167 -0.00120791 0)
(10.0012 0.00335782 0)
(10.0065 0.0072462 0)
(10.0097 0.0102925 0)
(10.014 0.0124041 0)
(10.0195 0.0137697 0)
(10.0257 0.0146832 0)
(10.0321 0.0153382 0)
(10.0383 0.0157494 0)
(10.0445 0.0158818 0)
(10.0507 0.015678 0)
(10.0568 0.0151778 0)
(10.0629 0.0143769 0)
(10.069 0.0133927 0)
(10.0749 0.0121738 0)
(10.0807 0.0108743 0)
(10.0862 0.00930749 0)
(10.0915 0.00775467 0)
(10.007 0.0083675 0)
(10.0165 0.00804881 0)
(10.0217 0.00861918 0)
(10.0245 0.0094013 0)
(10.0283 0.00998729 0)
(10.0334 0.0103775 0)
(10.0392 0.0106352 0)
(10.0451 0.0107514 0)
(10.051 0.0106679 0)
(10.0567 0.0103446 0)
(10.0623 0.00973696 0)
(10.0679 0.00888376 0)
(10.0735 0.00779451 0)
(10.0788 0.00657682 0)
(10.084 0.00519516 0)
(10.089 0.00379693 0)
(10.0939 0.00222169 0)
(10.0984 0.00072611 0)
(9.99415 -0.00459479 0)
(10.007 -0.00350978 0)
(10.0146 -0.00325754 0)
(10.0185 -0.00330096 0)
(10.0227 -0.00334421 0)
(10.0279 -0.00338476 0)
(10.0337 -0.00357222 0)
(10.0396 -0.00398072 0)
(10.0454 -0.00459715 0)
(10.0511 -0.00535681 0)
(10.0565 -0.00623669 0)
(10.0619 -0.00721515 0)
(10.067 -0.00833068 0)
(10.0719 -0.00954874 0)
(10.0767 -0.0109223 0)
(10.0812 -0.0123524 0)
(10.0855 -0.0139442 0)
(10.0896 -0.0155049 0)
(9.98812 -0.00367001 0)
(9.99654 -0.00335216 0)
(10.001 -0.00458739 0)
(10.0037 -0.00618079 0)
(10.0077 -0.00732273 0)
(10.0129 -0.00799223 0)
(10.0186 -0.00845778 0)
(10.0243 -0.0089565 0)
(10.0297 -0.00960698 0)
(10.0351 -0.0103995 0)
(10.0403 -0.0113029 0)
(10.0454 -0.0122754 0)
(10.0503 -0.0133391 0)
(10.055 -0.0144671 0)
(10.0594 -0.0157103 0)
(10.0636 -0.0169981 0)
(10.0675 -0.0184192 0)
(10.0713 -0.0198342 0)
(9.97535 -0.00195129 0)
(9.98401 -0.0069934 0)
(9.98919 -0.0108712 0)
(9.99283 -0.0135121 0)
(9.99724 -0.0153543 0)
(10.0024 -0.0167509 0)
(10.0078 -0.0179483 0)
(10.0131 -0.0191416 0)
(10.0183 -0.0203949 0)
(10.0234 -0.0216441 0)
(10.0284 -0.0228285 0)
(10.0333 -0.0239125 0)
(10.038 -0.0249445 0)
(10.0425 -0.0259597 0)
(10.0469 -0.0270474 0)
(10.0511 -0.0281975 0)
(10.0551 -0.0294911 0)
(10.0587 -0.0308327 0)
(9.99411 -0.00268703 0)
(10.004 -0.0106182 0)
(10.0105 -0.0145954 0)
(10.0149 -0.0167907 0)
(10.0199 -0.0184248 0)
(10.0255 -0.0198058 0)
(10.0313 -0.0210273 0)
(10.0369 -0.0221522 0)
(10.0422 -0.0232326 0)
(10.0473 -0.0242986 0)
(10.0523 -0.0253787 0)
(10.057 -0.0264762 0)
(10.0616 -0.0276034 0)
(10.066 -0.028742 0)
(10.0702 -0.0299143 0)
(10.0742 -0.0310895 0)
(10.078 -0.0323231 0)
(10.0815 -0.0335464 0)
(9.98227 -0.00147937 0)
(9.99761 -0.0130424 0)
(10.0073 -0.0199055 0)
(10.0126 -0.0236411 0)
(10.0177 -0.0258574 0)
(10.0236 -0.0275715 0)
(10.0298 -0.0291884 0)
(10.0357 -0.0307387 0)
(10.0414 -0.0321741 0)
(10.0468 -0.0334832 0)
(10.0518 -0.0346867 0)
(10.0565 -0.035806 0)
(10.0608 -0.0368702 0)
(10.0648 -0.0378873 0)
(10.0686 -0.0388968 0)
(10.0721 -0.039895 0)
(10.0754 -0.0409383 0)
(10.0785 -0.0419923 0)
(9.99518 -0.0120166 0)
(10.0105 -0.0170266 0)
(10.0217 -0.0228738 0)
(10.0289 -0.0265976 0)
(10.035 -0.028497 0)
(10.041 -0.0297906 0)
(10.0468 -0.0310675 0)
(10.0524 -0.0323389 0)
(10.0576 -0.0334737 0)
(10.0624 -0.0344239 0)
(10.0669 -0.035239 0)
(10.071 -0.0359912 0)
(10.0748 -0.0367554 0)
(10.0784 -0.0375764 0)
(10.0818 -0.0385068 0)
(10.085 -0.0395342 0)
(10.0882 -0.0406883 0)
(10.0911 -0.0419014 0)
(9.98923 -0.0133906 0)
(10.0017 -0.0243063 0)
(10.0125 -0.0307941 0)
(10.0205 -0.0342872 0)
(10.027 -0.0362713 0)
(10.0328 -0.0378123 0)
(10.0385 -0.0392403 0)
(10.0441 -0.040521 0)
(10.0496 -0.0416121 0)
(10.0548 -0.0425563 0)
(10.0597 -0.0434206 0)
(10.0645 -0.04425 0)
(10.069 -0.0450773 0)
(10.0734 -0.045922 0)
(10.0776 -0.0468141 0)
(10.0816 -0.0477584 0)
(10.0854 -0.0487703 0)
(10.089 -0.0498112 0)
(10.0047 -0.0104368 0)
(10.0238 -0.0253481 0)
(10.0385 -0.0309491 0)
(10.0479 -0.032784 0)
(10.0547 -0.0341982 0)
(10.0604 -0.0359195 0)
(10.0657 -0.0376122 0)
(10.0709 -0.0389896 0)
(10.0758 -0.0400632 0)
(10.0804 -0.0409697 0)
(10.0847 -0.0418235 0)
(10.0888 -0.0426771 0)
(10.0927 -0.0435511 0)
(10.0964 -0.0444491 0)
(10.0999 -0.045391 0)
(10.1032 -0.046368 0)
(10.1062 -0.0473916 0)
(10.1089 -0.0484154 0)
(9.98271 -0.0259722 0)
(10.0037 -0.0378675 0)
(10.0204 -0.0426471 0)
(10.0302 -0.0439855 0)
(10.0364 -0.0450584 0)
(10.0416 -0.0463785 0)
(10.0469 -0.0474889 0)
(10.0524 -0.0482641 0)
(10.0578 -0.048904 0)
(10.063 -0.049577 0)
(10.0679 -0.0503079 0)
(10.0725 -0.0510504 0)
(10.0769 -0.0517638 0)
(10.0811 -0.0524516 0)
(10.0849 -0.0531409 0)
(10.0884 -0.0538508 0)
(10.0916 -0.054597 0)
(10.0945 -0.0553616 0)
(9.97808 -0.0200338 0)
(10.003 -0.0324525 0)
(10.0236 -0.0358924 0)
(10.0358 -0.037056 0)
(10.0436 -0.0387651 0)
(10.0506 -0.0407069 0)
(10.0579 -0.0423142 0)
(10.0654 -0.0435779 0)
(10.0727 -0.0446751 0)
(10.0795 -0.0457228 0)
(10.0858 -0.0467076 0)
(10.0915 -0.047623 0)
(10.0968 -0.0484448 0)
(10.1016 -0.0492375 0)
(10.106 -0.0500012 0)
(10.1097 -0.050819 0)
(10.1132 -0.0516486 0)
(10.1161 -0.0525555 0)
(9.98491 -0.0376622 0)
(10.0289 -0.0534926 0)
(10.061 -0.0527461 0)
(10.0791 -0.0524049 0)
(10.0897 -0.0536608 0)
(10.0968 -0.0548038 0)
(10.1017 -0.0554665 0)
(10.1043 -0.0559512 0)
(10.1046 -0.056447 0)
(10.1028 -0.0569804 0)
(10.0991 -0.0574668 0)
(10.0938 -0.057882 0)
(10.0869 -0.0581731 0)
(10.0789 -0.0584272 0)
(10.0696 -0.0586263 0)
(10.0597 -0.058912 0)
(10.0486 -0.0592208 0)
(10.0375 -0.0597241 0)
(9.89998 -0.0363657 0)
(9.74249 -0.0480789 0)
(9.57818 -0.0468054 0)
(9.40811 -0.0457578 0)
(9.24104 -0.0456063 0)
(9.08128 -0.0452773 0)
(8.92937 -0.0446889 0)
(8.78447 -0.0440794 0)
(8.64561 -0.0435365 0)
(8.51234 -0.0430238 0)
(8.38434 -0.0424683 0)
(8.26187 -0.041857 0)
(8.14454 -0.0411876 0)
(8.03285 -0.0405386 0)
(7.9256 -0.0399234 0)
(7.82388 -0.0394232 0)
(7.72516 -0.0389871 0)
(7.63239 -0.0387074 0)
(-0.161099 0.3206 2.89673e-21)
(-0.364507 0.155956 -2.85484e-21)
(-0.467864 0.0145643 0)
(-0.472169 -0.114268 0)
(-0.340313 -0.246937 0)
(-0.105862 -0.347037 2.76918e-21)
(0.208486 -0.405802 0)
(0.566276 -0.420679 0)
(0.93196 -0.403641 0)
(1.27918 -0.36424 0)
(1.59147 -0.309883 -2.57454e-21)
(1.86042 -0.249836 0)
(2.07925 -0.188522 0)
(2.24398 -0.128975 0)
(2.35435 -0.0735075 0)
(2.4128 -0.0232117 -2.11611e-21)
(2.42107 0.023437 0)
(2.38155 0.0679168 0)
(2.29457 0.111422 0)
(2.16479 0.15246 0)
(1.99082 0.190422 0)
(1.7858 0.219375 0)
(1.54363 0.24147 0)
(1.29345 0.238061 -2.06537e-21)
(1.01649 0.247712 2.07212e-21)
(0.756006 0.198339 -2.06894e-21)
(0.506591 0.118204 -2.05455e-21)
(0.255454 0.0244257 0)
(0.0382722 -0.0143948 0)
(-0.205009 0.088636 1.95923e-21)
(-0.492632 0.173449 1.91014e-21)
(-0.822989 0.218326 0)
(-1.17196 0.229475 0)
(-1.49958 0.207208 1.69503e-21)
(-1.77767 0.165231 0)
(-2.00065 0.117252 0)
(-2.16079 0.071134 -1.48453e-21)
(-2.26946 0.0445636 0)
(-2.35557 0.0442767 -1.32986e-21)
(-2.45638 0.0774686 -2.4611e-21)
(-2.6014 0.116938 0)
(-2.78921 0.12868 0)
(-3.0043 0.130591 0)
(-3.22547 0.0800969 0)
(-3.37385 0.0381533 0)
(-3.50272 0.0462298 -1.71031e-21)
(-3.62676 -0.0468107 -1.61585e-21)
(-3.77586 -0.0626893 -1.51223e-21)
(-3.93218 0.111141 0)
(-4.20577 0.18923 1.43088e-21)
(-4.42388 0.151748 0)
(-4.6106 0.130236 -1.32507e-21)
(-4.77221 0.111835 -1.26199e-21)
(-4.90496 0.0934917 0)
(-5.00068 0.0679491 0)
(-5.07589 0.00706935 0)
(-5.13047 0.0255475 -9.99317e-22)
(-5.22976 0.0636642 0)
(-5.31137 0.0473475 0)
(-5.3693 0.040617 0)
(-5.41433 0.028065 0)
(-5.43513 0.0166086 0)
(-5.44081 0.00448809 0)
(-5.42829 -0.00502703 0)
(-5.40497 -0.0126301 0)
(-5.37144 -0.018526 3.87269e-22)
(-5.33147 -0.0235675 0)
(-5.28382 -0.0268953 0)
(-5.22889 -0.0296963 -5.13287e-22)
(-5.16354 -0.0354088 -6.01343e-22)
(-5.0863 -0.043621 0)
(-4.9982 -0.0495446 8.27741e-22)
(-4.90128 -0.0517095 -9.60539e-22)
(-4.79619 -0.0526974 0)
(-4.68252 -0.055316 1.25384e-21)
(-4.55938 -0.0597662 0)
(-4.42712 -0.0644602 0)
(-4.28736 -0.0682937 -1.72588e-21)
(-4.14184 -0.0710732 0)
(-3.992 -0.0729713 2.0389e-21)
(-3.83884 -0.0742406 0)
(-3.68286 -0.075181 -2.34064e-21)
(-3.52409 -0.0760875 -2.48695e-21)
(-3.36216 -0.0771979 -2.63079e-21)
(-3.19635 -0.0786745 -5.54574e-21)
(-3.02579 -0.0806608 5.82782e-21)
(-2.84948 -0.0831554 0)
(-2.66643 -0.0860982 0)
(-2.47579 -0.0893641 0)
(-2.27703 -0.092745 6.95014e-21)
(-2.07015 -0.0960573 7.22727e-21)
(-1.85554 -0.0990494 -7.49919e-21)
(-1.6341 -0.101467 0)
(-1.40712 -0.103137 8.01371e-21)
(-1.17624 -0.103926 8.2493e-21)
(-0.943162 -0.103817 8.46669e-21)
(-0.709508 -0.102877 0)
(-0.476663 -0.101249 0)
(-0.245815 -0.0990876 0)
(-0.017857 -0.0965471 9.14492e-21)
(0.20642 -0.0939835 0)
(0.426475 -0.0910732 0)
(0.642141 -0.0880656 -9.49271e-21)
(0.852947 -0.0849148 0)
(1.05864 -0.0816737 0)
(1.25884 -0.0782994 -9.75102e-21)
(1.45317 -0.0748228 0)
(1.64121 -0.0712596 0)
(1.82259 -0.0676704 9.9226e-21)
(1.99707 -0.0640522 9.95746e-21)
(2.16459 -0.060449 0)
(2.3251 -0.0568781 -9.99085e-21)
(2.47861 -0.0533809 0)
(2.62518 -0.0499704 9.97467e-21)
(2.76494 -0.0466623 0)
(2.89791 -0.0435205 9.90929e-21)
(3.02417 -0.0403969 9.85866e-21)
(3.14389 -0.0373698 0)
(3.25701 -0.0344043 0)
(3.36352 -0.031474 0)
(3.46344 -0.0285996 0)
(3.55672 -0.0257495 0)
(3.64335 -0.0229381 0)
(3.72329 -0.0201758 0)
(3.79654 -0.0174471 9.11001e-21)
(3.86311 -0.0147611 -8.98835e-21)
(3.92301 -0.0121291 0)
(3.97626 -0.0095578 0)
(4.0229 -0.00705648 0)
(4.063 -0.0046337 0)
(4.09666 -0.00230088 -1.67213e-20)
(4.12402 -6.75895e-05 0)
(4.14525 0.00205325 1.62313e-20)
(4.16056 0.00405006 -1.59939e-20)
(4.17019 0.00591403 0)
(4.17445 0.00763158 0)
(4.17362 0.00919284 0)
(4.16805 0.0106131 1.51104e-20)
(4.15806 0.0118867 1.49077e-20)
(4.1441 0.0129634 0)
(4.12665 0.0138276 1.45237e-20)
(4.10618 0.0144991 1.43422e-20)
(4.08313 0.0150103 -1.41673e-20)
(4.05791 0.0153913 0)
(4.03082 0.0156664 0)
(4.00214 0.0158569 -1.36787e-20)
(3.97213 0.0159776 0)
(3.94099 0.0160357 0)
(3.9089 0.0160493 0)
(3.87601 0.0160346 0)
(3.84241 0.0159788 1.29626e-20)
(3.80822 0.0158653 1.28303e-20)
(3.7735 0.015725 0)
(3.73824 0.0155992 1.25726e-20)
(3.70238 0.0154491 0)
(3.66594 0.015186 0)
(3.62905 0.0148163 1.21944e-20)
(3.59182 0.0144251 0)
(3.55428 0.0139208 1.19429e-20)
(3.51695 0.0129215 0)
(3.48115 0.0111297 0)
(3.44877 0.0088511 1.15646e-20)
(3.42073 0.00677679 0)
(3.39692 0.00536161 1.13171e-20)
(3.37586 0.00462187 0)
(3.35648 0.00435899 0)
(3.33696 0.00451711 0)
(3.31738 0.00489772 -1.08335e-20)
(3.29611 0.00541018 0)
(3.27474 0.00574141 1.05943e-20)
(3.25102 0.00613573 0)
(3.22783 0.00601507 0)
(3.20162 0.00690525 0)
(3.17415 0.00691586 0)
(3.14303 0.010564 0)
(3.09854 0.0104271 0)
(3.05933 0.021328 0)
(2.95767 0.0178648 -1.95622e-20)
(2.92066 0.0535637 0)
(2.62161 0.0424479 0)
(-0.00540831 0.682221 -8.62145e-21)
(0.0048344 0.428858 8.50963e-21)
(0.0141064 0.159868 0)
(0.133463 -0.140532 -5.491e-21)
(0.350941 -0.515225 0)
(0.649206 -0.830808 -2.77323e-21)
(0.977088 -1.02092 5.32935e-21)
(1.29761 -1.09538 5.23802e-21)
(1.59157 -1.07596 0)
(1.84958 -0.988511 4.92754e-21)
(2.065 -0.861937 2.57771e-21)
(2.23709 -0.714352 0)
(2.36769 -0.557495 0)
(2.45798 -0.399307 0)
(2.50819 -0.245433 0)
(2.51966 -0.0990897 2.1197e-21)
(2.49398 0.0378849 0)
(2.43413 0.165321 -3.74289e-21)
(2.34174 0.282208 0)
(2.21978 0.389586 0)
(2.07043 0.484152 3.75977e-21)
(1.8955 0.566602 0)
(1.70342 0.624364 -3.8401e-21)
(1.49206 0.67163 2.07173e-21)
(1.2821 0.673428 -2.07887e-21)
(1.04193 0.65263 2.076e-21)
(0.740625 0.711147 2.06184e-21)
(0.374149 0.767174 0)
(-0.0442887 0.780421 0)
(-0.494309 0.785411 -1.96484e-21)
(-0.903762 0.807397 1.61818e-21)
(-1.26088 0.827772 0)
(-1.59443 0.805331 0)
(-1.88235 0.723983 -1.69855e-21)
(-2.13711 0.595088 0)
(-2.35222 0.441376 0)
(-2.51614 0.281225 1.48967e-21)
(-2.64507 0.17076 0)
(-2.76755 0.164128 -8.84215e-22)
(-2.9001 0.254782 2.4716e-21)
(-3.05304 0.360575 0)
(-3.2282 0.452183 0)
(-3.41258 0.476307 3.33483e-21)
(-3.64452 0.406849 3.18888e-21)
(-3.9131 0.345821 3.00474e-21)
(-4.14585 0.312098 -1.10365e-21)
(-4.424 0.403766 1.62411e-21)
(-4.72863 0.472144 3.91005e-21)
(-4.90394 0.467213 -2.22815e-21)
(-5.07908 0.43575 -1.44042e-21)
(-5.2048 0.369026 0)
(-5.32218 0.315829 1.33404e-21)
(-5.40405 0.248281 -5.86381e-22)
(-5.47687 0.18032 0)
(-5.53335 0.135574 0)
(-5.62464 0.146615 0)
(-5.68775 0.149334 1.00534e-21)
(-5.7262 0.128289 0)
(-5.73998 0.0938807 -1.23814e-21)
(-5.73898 0.0643347 0)
(-5.72486 0.0295449 -9.4322e-22)
(-5.69855 -0.00180737 0)
(-5.66351 -0.0303281 6.8218e-22)
(-5.61999 -0.0514785 0)
(-5.57153 -0.0668017 -5.36196e-22)
(-5.51907 -0.0776969 1.41458e-22)
(-5.46424 -0.0883583 0)
(-5.40586 -0.10164 6.73824e-22)
(-5.34099 -0.11877 5.13703e-22)
(-5.26747 -0.1378 6.01673e-22)
(-5.18528 -0.15518 0)
(-5.09209 -0.170495 6.52171e-22)
(-4.98432 -0.186417 9.60787e-22)
(-4.86085 -0.20351 0)
(-4.72376 -0.220287 -1.25428e-21)
(-4.57583 -0.23513 2.69379e-21)
(-4.41989 -0.24701 0)
(-4.25826 -0.255691 1.72652e-21)
(-4.09276 -0.261517 0)
(-3.92459 -0.265195 -6.02993e-21)
(-3.7545 -0.267524 0)
(-3.5827 -0.269347 6.93978e-21)
(-3.40893 -0.271435 2.48735e-21)
(-3.23258 -0.274415 -2.5452e-21)
(-3.05271 -0.278687 -5.36913e-21)
(-2.86819 -0.284485 5.64535e-21)
(-2.67791 -0.291762 0)
(-2.48089 -0.300275 0)
(-2.27635 -0.309615 0)
(-2.06383 -0.319226 -2.0658e-20)
(-1.84328 -0.328466 -7.22702e-21)
(-1.61528 -0.3366 7.49877e-21)
(-1.38088 -0.342943 0)
(-1.14163 -0.346981 7.85123e-21)
(-0.899349 -0.348409 -8.2483e-21)
(-0.65591 -0.347207 -8.4655e-21)
(-0.412985 -0.343619 0)
(-0.171903 -0.338074 0)
(0.0663026 -0.331108 0)
(0.300876 -0.323318 -9.14289e-21)
(0.531388 -0.31507 0)
(0.757646 -0.30643 1.86726e-20)
(0.979637 -0.297576 2.83785e-20)
(1.19717 -0.288428 -1.90851e-20)
(1.40997 -0.278975 0)
(1.6177 -0.269131 -9.67708e-21)
(1.81998 -0.258928 0)
(2.01633 -0.248435 -1.96893e-20)
(2.2064 -0.237782 9.86745e-21)
(2.38998 -0.227 9.90742e-21)
(2.56701 -0.216206 0)
(2.73747 -0.205529 2.99265e-20)
(2.90137 -0.195074 -1.99376e-20)
(3.05877 -0.184903 -9.97243e-21)
(3.20977 -0.175019 0)
(3.35449 -0.165475 -9.90687e-21)
(3.49299 -0.156121 -2.95433e-20)
(3.62537 -0.146958 0)
(3.75165 -0.137972 -1.94206e-20)
(3.87179 -0.129121 -1.92561e-20)
(3.98579 -0.12039 -1.9073e-20)
(4.09367 -0.111777 0)
(4.19537 -0.103264 0)
(4.29088 -0.0949177 0)
(4.38022 -0.0866869 9.09175e-21)
(4.46339 -0.0785992 8.98545e-21)
(4.5404 -0.0706765 0)
(4.61127 -0.0629369 1.74584e-20)
(4.67605 -0.0554002 1.72065e-20)
(4.73479 -0.0480889 0)
(4.78759 -0.0410299 1.67156e-20)
(4.83457 -0.0342537 3.29177e-20)
(4.87589 -0.0277947 -1.62256e-20)
(4.91174 -0.0216853 -1.59714e-20)
(4.94241 -0.0159529 0)
(4.96818 -0.0106187 0)
(4.98945 -0.00569771 0)
(5.0066 -0.00119269 -1.51045e-20)
(5.02004 0.00287577 1.48888e-20)
(5.03012 0.00647284 2.94e-20)
(5.03711 0.0095875 -1.45176e-20)
(5.04127 0.0122448 1.43255e-20)
(5.04291 0.0144869 1.4161e-20)
(5.04237 0.016358 0)
(5.03998 0.017901 0)
(5.03609 0.0191538 -1.36648e-20)
(5.03104 0.0201546 0)
(5.02514 0.0209433 0)
(5.01866 0.02156 2.64547e-20)
(5.01181 0.0220425 0)
(5.00474 0.022425 1.2952e-20)
(4.99748 0.0227462 -1.28233e-20)
(4.98999 0.0230536 0)
(4.98217 0.0233913 1.25637e-20)
(4.97395 0.0237718 0)
(4.96519 0.0241663 0)
(4.95578 0.0245282 -1.21869e-20)
(4.9458 0.0248277 2.41227e-20)
(4.93546 0.0249789 -1.19353e-20)
(4.92476 0.024692 0)
(4.91346 0.0235555 0)
(4.90152 0.0214387 1.15593e-20)
(4.88921 0.0187538 0)
(4.87697 0.0162338 1.13116e-20)
(4.86497 0.0145418 0)
(4.8532 0.013761 0)
(4.84134 0.013696 0)
(4.82901 0.0138361 1.08261e-20)
(4.81583 0.0143216 0)
(4.80158 0.0145382 -1.0587e-20)
(4.7866 0.0154506 0)
(4.76988 0.0154949 0)
(4.75311 0.0177221 2.04795e-20)
(4.73138 0.0176621 -2.02615e-20)
(4.71223 0.0242479 0)
(4.67797 0.0241869 0)
(4.65674 0.0429881 0)
(4.58862 0.0420237 5.85751e-20)
(4.57119 0.0973287 0)
(4.41624 0.101508 -3.84633e-20)
(0.0635795 0.433542 -3.68785e-23)
(0.154755 0.240096 -1.13711e-20)
(0.340377 -0.176186 0)
(0.645374 -0.709771 1.10151e-20)
(0.990979 -1.20208 0)
(1.30599 -1.53713 0)
(1.55402 -1.68111 -2.90842e-22)
(1.73781 -1.66893 -5.2445e-21)
(1.86839 -1.5405 -4.64556e-21)
(1.96242 -1.33639 -4.93239e-21)
(2.02106 -1.10459 0)
(2.05441 -0.872595 0)
(2.06333 -0.644067 3.8139e-21)
(2.05079 -0.42204 7.30581e-21)
(2.01625 -0.211313 -7.04659e-21)
(1.95968 -0.0130325 0)
(1.88184 0.172354 -6.72932e-21)
(1.78384 0.344468 3.74494e-21)
(1.66824 0.502002 0)
(1.53851 0.643969 -6.69818e-21)
(1.39896 0.768281 -3.76364e-21)
(1.24838 0.868899 6.85544e-21)
(1.0912 0.950163 3.84556e-21)
(0.930753 0.982573 0)
(0.752224 1.01501 -7.08201e-21)
(0.501109 1.13698 -7.09544e-21)
(0.226171 1.25926 0)
(-0.0798289 1.38538 -6.99187e-21)
(-0.408663 1.47625 0)
(-0.746214 1.50736 -6.6677e-21)
(-1.08578 1.47357 -3.54608e-21)
(-1.39331 1.39642 0)
(-1.67133 1.28583 0)
(-1.90702 1.13344 0)
(-2.12592 0.957853 0)
(-2.31063 0.755626 0)
(-2.48791 0.56691 0)
(-2.65386 0.442608 -4.00442e-21)
(-2.83719 0.438528 5.84705e-21)
(-3.04792 0.530132 0)
(-3.25645 0.63699 0)
(-3.49078 0.704604 0)
(-3.68428 0.789801 -7.45223e-22)
(-3.92911 0.815548 -3.19528e-21)
(-4.15964 0.789472 -5.29446e-21)
(-4.38707 0.776187 4.90173e-21)
(-4.59999 0.762735 1.8599e-21)
(-4.7757 0.722194 -2.39444e-21)
(-4.88522 0.667122 7.70868e-22)
(-4.98193 0.597038 -1.3239e-21)
(-5.04718 0.513647 0)
(-5.11172 0.426027 -1.15515e-21)
(-5.16321 0.344407 7.43052e-22)
(-5.24244 0.297252 0)
(-5.32097 0.267817 0)
(-5.39072 0.237638 9.59547e-22)
(-5.42283 0.186672 0)
(-5.43831 0.132148 0)
(-5.44031 0.0816907 -1.28666e-22)
(-5.43562 0.0359833 -1.13997e-21)
(-5.42286 -0.00926589 9.34952e-22)
(-5.40529 -0.0500769 0)
(-5.38132 -0.0858371 -6.72393e-22)
(-5.3514 -0.112955 0)
(-5.31538 -0.132771 1.89155e-22)
(-5.27294 -0.147403 -5.18623e-22)
(-5.22286 -0.16171 4.70529e-22)
(-5.16381 -0.179781 2.49409e-23)
(-5.09358 -0.203444 0)
(-5.01032 -0.231751 -1.39497e-21)
(-4.91138 -0.263668 0)
(-4.79498 -0.298043 -3.87702e-21)
(-4.66224 -0.332588 -3.00255e-21)
(-4.51628 -0.364565 -3.64265e-21)
(-4.36062 -0.392094 4.3143e-21)
(-4.19845 -0.414139 -7.69012e-21)
(-4.03251 -0.430428 0)
(-3.86492 -0.441344 0)
(-3.69718 -0.447856 7.05848e-21)
(-3.53017 -0.451269 1.16936e-20)
(-3.36413 -0.452992 0)
(-3.19884 -0.45442 -4.59373e-21)
(-3.03355 -0.456765 0)
(-2.86716 -0.460973 1.5253e-20)
(-2.69828 -0.467625 2.73759e-22)
(-2.52541 -0.476928 -2.84762e-22)
(-2.34704 -0.488743 -1.17291e-20)
(-2.16182 -0.502604 0)
(-1.9686 -0.517806 1.28356e-20)
(-1.7666 -0.533414 3.06371e-22)
(-1.55553 -0.548322 0)
(-1.33578 -0.561294 0)
(-1.1085 -0.571168 0)
(-0.875438 -0.577043 -1.58605e-20)
(-0.638788 -0.578444 0)
(-0.400855 -0.575331 0)
(-0.163644 -0.568136 0)
(0.0713188 -0.557661 0)
(0.302842 -0.545116 0)
(0.530262 -0.531391 -1.79897e-20)
(0.753408 -0.517171 0)
(0.972222 -0.502726 -1.86681e-20)
(1.18681 -0.488151 -1.8884e-20)
(1.39704 -0.473306 1.90814e-20)
(1.60276 -0.458078 0)
(1.80363 -0.442254 1.94229e-20)
(1.99923 -0.425828 0)
(2.18913 -0.408897 1.96868e-20)
(2.37291 -0.39152 -1.97856e-20)
(2.55045 -0.373886 -5.9423e-20)
(2.72159 -0.356247 0)
(2.88635 -0.338848 -5.96758e-20)
(3.04482 -0.321873 -1.98156e-20)
(3.19706 -0.305397 0)
(3.34324 -0.289442 -3.96177e-20)
(3.48347 -0.273944 -3.94754e-20)
(3.61783 -0.25883 5.89689e-20)
(3.74636 -0.244028 0)
(3.86909 -0.229502 1.94184e-20)
(3.98598 -0.215204 1.92538e-20)
(4.09702 -0.201106 5.71461e-20)
(4.20218 -0.187185 0)
(4.3014 -0.173498 0)
(4.39467 -0.160023 0)
(4.48202 -0.146765 1.81435e-20)
(4.56342 -0.133753 0)
(4.63889 -0.12101 0)
(4.70842 -0.108564 -1.74567e-20)
(4.77204 -0.0964416 -1.7205e-20)
(4.82981 -0.0846785 0)
(4.88179 -0.0733181 0)
(4.92807 -0.0624165 -3.29153e-20)
(4.96877 -0.0520393 0)
(5.00405 -0.0422578 3.19575e-20)
(5.03414 -0.0331449 3.14692e-20)
(5.0593 -0.0247675 0)
(5.07993 -0.0171519 0)
(5.09648 -0.0103066 -3.01718e-20)
(5.10949 -0.00419569 -2.06482e-23)
(5.11948 0.00122577 -1.9319e-23)
(5.12687 0.00596308 0)
(5.13203 0.0100408 -5.73033e-20)
(5.13524 0.0134902 0)
(5.13678 0.0163447 0)
(5.13692 0.0186393 0)
(5.13596 0.0204188 2.73355e-20)
(5.13422 0.0217282 0)
(5.132 0.0226239 -5.34582e-20)
(5.12958 0.0231787 -2.64531e-20)
(5.1272 0.0234831 0)
(5.12503 0.0236282 -2.59059e-20)
(5.12312 0.0237111 0)
(5.12147 0.0238412 0)
(5.12002 0.0240926 -7.53776e-20)
(5.11866 0.0244473 4.97463e-20)
(5.11719 0.0248008 0)
(5.11536 0.0250214 4.87439e-20)
(5.11304 0.0250225 -2.41205e-20)
(5.11046 0.0247945 0)
(5.10806 0.0242647 0)
(5.10589 0.0231986 0)
(5.10334 0.0213922 -6.93472e-20)
(5.09984 0.0191131 0)
(5.09521 0.0169424 -2.26186e-20)
(5.08989 0.0154839 0)
(5.0843 0.014875 0)
(5.07893 0.0151758 0)
(5.07357 0.0159314 0)
(5.06827 0.0173 0)
(5.06168 0.0182544 0)
(5.05433 0.0198419 -4.18626e-20)
(5.04426 0.0203394 0)
(5.03405 0.0233241 -2.04764e-20)
(5.01923 0.0243046 6.07595e-20)
(5.00603 0.0322341 0)
(4.98322 0.034873 0)
(4.96643 0.0551368 -3.92952e-20)
(4.92934 0.0624597 -3.90204e-20)
(4.91096 0.115235 3.86057e-20)
(4.85571 0.141432 3.84544e-20)
(-0.0102517 0.158878 1.73069e-20)
(0.217357 -0.205374 1.71395e-20)
(0.611274 -0.923972 1.1178e-20)
(0.986413 -1.51509 5.29236e-21)
(1.28373 -1.9097 0)
(1.45816 -2.04176 -9.89071e-21)
(1.52853 -1.9609 4.34185e-21)
(1.53721 -1.77494 0)
(1.50891 -1.53717 4.64741e-21)
(1.47324 -1.27329 0)
(1.43247 -1.01016 -7.47461e-21)
(1.38907 -0.75174 0)
(1.33849 -0.499165 -3.81237e-21)
(1.2788 -0.25431 -7.30213e-21)
(1.20602 -0.0197749 7.04273e-21)
(1.11855 0.201763 0)
(1.01746 0.4073 6.72607e-21)
(0.904163 0.594276 0)
(0.781513 0.761733 0)
(0.652217 0.909051 6.69725e-21)
(0.521368 1.03728 0)
(0.386762 1.1438 -7.90695e-22)
(0.259062 1.21025 0)
(0.106824 1.29158 0)
(-0.0908219 1.43303 8.50643e-22)
(-0.304568 1.58182 7.10457e-21)
(-0.525639 1.72615 6.19746e-21)
(-0.744562 1.84661 7.00501e-21)
(-0.95783 1.92327 0)
(-1.16657 1.9491 1.25409e-20)
(-1.38342 1.91498 0)
(-1.60126 1.82378 5.43633e-21)
(-1.81897 1.68868 0)
(-2.02331 1.51471 0)
(-2.22558 1.31361 -4.56565e-21)
(-2.41279 1.08424 0)
(-2.61119 0.895907 3.88596e-21)
(-2.8188 0.80213 5.21658e-22)
(-3.05767 0.843452 -6.69223e-21)
(-3.31774 0.965366 5.34901e-21)
(-3.57416 1.09011 0)
(-3.80591 1.1368 0)
(-3.99535 1.14726 1.23055e-21)
(-4.16239 1.1067 0)
(-4.30247 1.06029 2.28714e-21)
(-4.42844 1.02717 -2.07404e-21)
(-4.51706 0.967318 -1.85984e-21)
(-4.57445 0.883133 0)
(-4.60609 0.789541 1.45691e-21)
(-4.63143 0.687274 1.31852e-21)
(-4.64947 0.58855 -9.19449e-22)
(-4.68263 0.508713 1.14893e-21)
(-4.73126 0.456171 1.10456e-21)
(-4.80105 0.415557 0)
(-4.85903 0.361341 0)
(-4.90185 0.29485 -9.50631e-22)
(-4.92569 0.224252 0)
(-4.94924 0.162507 0)
(-4.96581 0.105016 1.33972e-21)
(-4.97744 0.0500762 1.11884e-21)
(-4.98196 -0.00374171 0)
(-4.98172 -0.0542382 0)
(-4.97404 -0.0993529 0)
(-4.95874 -0.136127 0)
(-4.93451 -0.166294 3.09869e-22)
(-4.89968 -0.193979 4.96065e-22)
(-4.85057 -0.224725 -4.4265e-22)
(-4.78475 -0.261679 -5.35109e-22)
(-4.70058 -0.305908 0)
(-4.59742 -0.355942 7.31153e-22)
(-4.47523 -0.408932 0)
(-4.33593 -0.461216 2.38271e-21)
(-4.18287 -0.509379 5.94916e-22)
(-4.01993 -0.550796 3.62023e-21)
(-3.85071 -0.583938 -4.29266e-21)
(-3.67847 -0.608236 4.36577e-22)
(-3.506 -0.624053 0)
(-3.33555 -0.63248 -6.01123e-21)
(-3.16877 -0.635182 -7.04078e-21)
(-3.00661 -0.634196 -1.50718e-20)
(-2.84933 -0.631653 0)
(-2.6966 -0.629571 8.6152e-21)
(-2.5474 -0.629679 0)
(-2.40016 -0.63328 -1.98087e-20)