/*--------------------------------*- C++ -*----------------------------------*\
  =========                 |
  \\      /  F ield         | OpenFOAM: The Open Source CFD Toolbox
   \\    /   O peration     | Website:  https://openfoam.org
    \\  /    A nd           | Version:  10
     \\/     M anipulation  |
\*---------------------------------------------------------------------------*/
FoamFile
{
    format      ascii;
    class       volScalarField;
    location    "0.051";
    object      T;
}
// * * * * * * * * * * * * * * * * * * * * * * * * * * * * * * * * * * * * * //

dimensions      [0 0 0 1 0 0 0];

internalField   nonuniform List<scalar> 
12225
(
1.00078
0.99983
1.00012
1.00011
1.00018
1.00045
1.00048
1.00029
1.00024
1.00036
1.00043
1.00034
1.00013
0.999783
0.999283
0.99824
0.995527
0.990332
1.00003
0.999827
1.00006
1.00005
1.00011
1.00041
1.0005
1.00033
1.00023
1.00031
1.00038
1.00031
1.00011
0.999772
0.999244
0.998229
0.995868
0.991311
0.999764
1.00012
1.00024
1.00008
1.0001
1.00037
1.00045
1.00029
1.0002
1.00026
1.00031
1.00024
1.00009
0.999825
0.999366
0.998461
0.996406
0.992702
1.00007
1.00003
1.00016
1.0001
1.00011
1.00032
1.0004
1.00028
1.00022
1.00029
1.00036
1.00031
1.00016
0.999885
0.999404
0.998552
0.996868
0.994053
1.00009
1.00028
1.00054
1.00023
1.00008
1.00033
1.00048
1.00036
1.00024
1.00025
1.00027
1.00021
1.00007
0.999848
0.999473
0.99882
0.99755
0.995447
0.999792
1.00009
1.00049
1.00028
1.00011
1.00027
1.00034
1.00022
1.00017
1.00024
1.0003
1.00027
1.00014
0.999949
0.999619
0.999059
0.998067
0.996491
0.999775
1.00037
1.00097
1.00049
1.00007
1.00026
1.00043
1.00036
1.00027
1.00025
1.00023
1.00016
1.00005
0.999891
0.999636
0.999204
0.998469
0.997303
1.00009
1.00051
1.00094
1.00043
1.00008
1.00025
1.00031
1.00018
1.00011
1.00017
1.00023
1.00021
1.00013
1.00001
0.9998
0.999456
0.998901
0.998041
0.998855
1.00088
1.00126
1.00046
0.999973
1.00016
1.00035
1.00032
1.00025
1.00023
1.0002
1.00012
1.00003
0.999928
0.999779
0.999527
0.999126
0.998499
0.999599
1.00093
1.00109
1.00044
1.00005
1.00017
1.00024
1.0001
1.00002
1.00007
1.00013
1.00014
1.00011
1.00006
0.999956
0.999773
0.999477
0.999034
0.998572
1.0006
1.00111
1.00033
0.999871
1.00008
1.00029
1.00025
1.00019
1.00019
1.00017
1.0001
1.00001
0.999935
0.999843
0.999706
0.99949
0.999184
1.00011
1.00078
1.00092
1.00036
0.999945
1.00006
1.00014
1.00001
0.999937
0.999982
1.00005
1.00009
1.00008
1.00007
1.00002
0.999935
0.999793
0.99957
0.998767
1.00066
1.00065
1.00025
0.999877
1.00001
1.00019
1.00015
1.0001
1.00011
1.00009
1.00004
0.999983
0.999941
0.999903
0.999836
0.999735
0.999578
1.00051
1.00017
0.999747
0.999892
0.999828
0.999884
0.999944
0.999884
0.999843
0.999892
0.999965
1.00002
1.00003
1.00004
1.00002
1
0.999929
0.999861
0.999766
0.999123
0.99988
1.00044
1.00028
1.00009
1.00006
1.00008
1.00009
1.00008
1.00006
1.00004
0.999998
0.999959
0.999921
0.999893
0.999836
0.999783
1.00358
1.00016
0.999478
0.999135
0.999199
0.999423
0.999583
0.999723
0.999825
0.999862
0.999895
0.999957
1.00002
1.00007
1.0001
1.00011
1.0001
1.00009
0.998925
0.998094
0.998226
0.999189
0.999912
1.00019
1.00014
1.00005
1.00001
0.999986
0.999978
0.999983
0.999973
0.999957
0.999946
0.999946
0.999944
0.999945
1.00101
1.00005
0.999707
0.999502
0.99937
0.999427
0.999517
0.999607
0.999723
0.999868
0.999985
1.00004
1.00005
1.00008
1.00012
1.00016
1.00019
1.00021
0.998494
0.999983
1.00047
1.00037
1.00058
1.00076
1.00072
1.00065
1.0006
1.00057
1.00057
1.00057
1.00056
1.00054
1.00052
1.00049
1.00045
1.00041
1.00062
1.00247
1.00239
1.0013
1.00084
1.00062
1.00051
1.00048
1.00044
1.00037
1.00033
1.00029
1.00027
1.00028
1.0003
1.00033
1.00036
1.00039
0.998269
1.00068
1.00172
1.00135
1.00105
1.0009
1.00092
1.00096
1.0009
1.00081
1.00078
1.00078
1.00077
1.00074
1.0007
1.00066
1.00062
1.00058
0.998786
1.00001
1.00127
1.00127
1.00067
1.00056
1.00073
1.00068
1.00053
1.00052
1.00055
1.00053
1.0005
1.00048
1.00048
1.0005
1.00051
1.00052
1.00022
0.999391
1.00003
1.00066
1.00056
1.00055
1.0007
1.00072
1.0007
1.00075
1.0008
1.00075
1.00068
1.00066
1.00066
1.00065
1.00061
1.00058
0.999903
0.9998
1.00049
1.0009
1.00068
1.00055
1.00061
1.00063
1.00057
1.00052
1.0005
1.00048
1.00049
1.00052
1.00054
1.00056
1.00057
1.00058
0.999794
1.00045
1.0005
1.00049
1.00033
1.00028
1.00045
1.00062
1.00068
1.00069
1.00069
1.00067
1.00066
1.00067
1.00065
1.00062
1.00059
1.00057
0.998757
1.00083
1.00083
1.0007
1.00059
1.00055
1.00064
1.00065
1.00058
1.00054
1.00056
1.00058
1.00056
1.00056
1.00057
1.0006
1.00063
1.00065
0.99936
1.00107
1.00082
1.00038
1.0003
1.00037
1.00054
1.00062
1.00059
1.00058
1.00065
1.00072
1.00072
1.00068
1.00063
1.00059
1.00056
1.00055
0.999242
1.00085
1.00085
1.00061
1.0006
1.0006
1.00064
1.00063
1.00055
1.00049
1.00051
1.00055
1.00057
1.00057
1.00058
1.00059
1.0006
1.00061
0.998611
1.00033
1.00053
1.00047
1.00051
1.00054
1.00059
1.0006
1.00056
1.00055
1.00062
1.00068
1.0007
1.00066
1.00061
1.00055
1.00052
1.00052
0.999703
1.00021
1.00065
1.00068
1.00061
1.00057
1.0006
1.0006
1.00054
1.00053
1.0006
1.00068
1.00071
1.00067
1.00061
1.00057
1.00054
1.00058
0.797326
0.797388
0.797167
0.796695
0.79673
0.797271
0.797747
0.798299
0.798668
0.798512
0.797974
0.797293
0.796576
0.795839
0.795072
0.794265
0.793407
0.792498
0.79154
0.790536
0.789495
0.788411
0.787292
0.786131
0.784954
0.783845
0.782814
0.781828
0.78091
0.780096
0.779424
0.778859
0.778024
0.775852
0.771946
0.767142
0.762082
0.757864
0.753864
0.750521
0.747485
0.743518
0.741256
0.738964
0.736254
0.734114
0.732759
0.732256
0.730691
0.728592
0.727781
0.728628
0.732964
0.737067
0.738796
0.739237
0.73951
0.740133
0.741047
0.742162
0.743381
0.744645
0.745917
0.74719
0.748457
0.749724
0.750994
0.75227
0.753553
0.754846
0.756148
0.75746
0.758778
0.760103
0.761439
0.762806
0.764183
0.765552
0.766925
0.768301
0.76968
0.771062
0.772445
0.773831
0.775219
0.776611
0.778008
0.779413
0.780832
0.782272
0.783739
0.785237
0.786768
0.788338
0.789951
0.791591
0.793217
0.794791
0.796322
0.797838
0.799299
0.800583
0.801657
0.802678
0.803631
0.804136
0.804335
0.804545
0.804742
0.805055
0.805898
0.808099
0.811584
0.811649
0.804786
0.799154
0.798571
0.79512
0.789601
0.783757
0.775193
0.764603
0.752303
0.737811
0.721907
0.706235
0.692335
0.68115
0.673189
0.668566
0.666869
0.667345
0.669176
0.671693
0.674503
0.677477
0.680663
0.684158
0.687981
0.692044
0.696364
0.700854
0.705194
0.708935
0.711645
0.713314
0.714234
0.7148
0.71555
0.71712
0.719384
0.720949
0.721706
0.722104
0.722306
0.722427
0.722524
0.72258
0.72256
0.722451
0.722171
0.721703
0.72118
0.720416
0.719338
0.71847
0.717425
0.715955
0.71551
0.715523
0.71483
0.715586
0.718029
0.717641
0.715191
0.718254
0.725318
0.723221
0.715496
0.714935
0.796893
0.796911
0.796872
0.796372
0.796236
0.796656
0.797335
0.797703
0.797584
0.797072
0.796378
0.79566
0.794969
0.794288
0.793588
0.792846
0.792048
0.791193
0.790285
0.789338
0.788361
0.787368
0.786351
0.785303
0.784191
0.782945
0.78161
0.780269
0.778983
0.777806
0.776798
0.775954
0.775137
0.77353
0.770746
0.767655
0.7637
0.758898
0.754617
0.751512
0.747665
0.743799
0.740955
0.738544
0.735493
0.732216
0.730893
0.726947
0.726594
0.728302
0.726859
0.725454
0.729878
0.734617
0.736227
0.736572
0.736953
0.737674
0.738705
0.739944
0.741309
0.742724
0.744147
0.745554
0.746937
0.748302
0.749654
0.751
0.752347
0.753699
0.755059
0.756434
0.757827
0.75924
0.760658
0.762055
0.763442
0.764836
0.766233
0.767638
0.769051
0.770472
0.771897
0.773323
0.774748
0.776167
0.77758
0.778988
0.780394
0.781809
0.783244
0.784714
0.786231
0.787809
0.789455
0.791158
0.792878
0.794572
0.796232
0.797876
0.799473
0.800911
0.802128
0.803259
0.8044
0.805229
0.805571
0.80562
0.805391
0.805061
0.805605
0.807578
0.810483
0.810444
0.803917
0.797639
0.796597
0.795009
0.790511
0.783882
0.7748
0.764345
0.752218
0.737707
0.721793
0.706162
0.692236
0.681047
0.673123
0.668503
0.66674
0.66708
0.668716
0.671012
0.67361
0.676414
0.679498
0.682988
0.686949
0.691293
0.695799
0.700422
0.705003
0.709048
0.711992
0.713784
0.714796
0.715512
0.716484
0.718299
0.720724
0.722284
0.723014
0.723374
0.723528
0.723598
0.723639
0.723638
0.723568
0.723404
0.723055
0.722555
0.722029
0.721202
0.720059
0.719222
0.718134
0.716517
0.716145
0.716303
0.715484
0.716334
0.719165
0.718995
0.716624
0.719058
0.72463
0.721942
0.716478
0.71646
0.80003
0.800154
0.80004
0.800037
0.799744
0.79933
0.798764
0.797998
0.797182
0.796462
0.795878
0.795372
0.794863
0.794298
0.793654
0.792926
0.79211
0.791202
0.790202
0.789112
0.787946
0.786732
0.785505
0.78431
0.783151
0.781979
0.780705
0.779267
0.777674
0.776027
0.774414
0.77288
0.771492
0.77006
0.768426
0.766589
0.763998
0.760766
0.757219
0.753451
0.74956
0.745403
0.742121
0.740251
0.736732
0.734693
0.732625
0.730482
0.726504
0.727909
0.728614
0.72854
0.729729
0.730908
0.731564
0.73236
0.7336
0.735201
0.737002
0.73881
0.740535
0.742133
0.743613
0.745004
0.746332
0.74762
0.748886
0.750143
0.7514
0.752661
0.753931
0.755212
0.756512
0.757839
0.75919
0.760558
0.761947
0.763355
0.764778
0.766215
0.767666
0.769129
0.7706
0.772078
0.773559
0.775042
0.776527
0.778017
0.779516
0.78103
0.782568
0.784139
0.785756
0.787433
0.78918
0.790991
0.792836
0.794674
0.796479
0.798245
0.799948
0.801555
0.803043
0.804414
0.805642
0.806658
0.807386
0.807642
0.807201
0.806356
0.806429
0.808189
0.810678
0.81
0.803695
0.797553
0.796561
0.796541
0.792357
0.784517
0.774611
0.763279
0.750144
0.735135
0.719273
0.703966
0.690496
0.679726
0.672099
0.667643
0.665957
0.666343
0.668038
0.670425
0.673124
0.675996
0.67908
0.68248
0.686255
0.690386
0.694828
0.699624
0.704586
0.709132
0.712451
0.714425
0.715574
0.716559
0.717983
0.720311
0.722998
0.724702
0.725506
0.72586
0.725955
0.72593
0.725869
0.725775
0.725597
0.725326
0.724911
0.724295
0.72362
0.722778
0.721565
0.720483
0.719409
0.717876
0.717118
0.717403
0.717292
0.717936
0.720614
0.721461
0.720166
0.722004
0.726673
0.725653
0.721006
0.719012
0.801583
0.801833
0.802256
0.801778
0.800887
0.800222
0.799933
0.799838
0.799718
0.799498
0.79919
0.798797
0.798293
0.797652
0.796871
0.795961
0.794938
0.79382
0.792618
0.791346
0.790006
0.788608
0.787157
0.78566
0.784159
0.782742
0.78139
0.779998
0.778481
0.776772
0.774893
0.77289
0.770828
0.76883
0.766954
0.765137
0.763176
0.761122
0.75856
0.755333
0.752078
0.747933
0.744931
0.741722
0.73835
0.737204
0.734126
0.732465
0.731026
0.729814
0.728778
0.728575
0.729355
0.730504
0.731598
0.732738
0.73402
0.735435
0.736908
0.73836
0.739751
0.741068
0.742312
0.74351
0.744681
0.745849
0.747021
0.748209
0.749411
0.750628
0.751857
0.753098
0.754359
0.755656
0.756995
0.758358
0.759743
0.761159
0.762608
0.76409
0.765603
0.767142
0.7687
0.770267
0.771836
0.773398
0.774952
0.776498
0.778045
0.779603
0.781184
0.782804
0.784479
0.786233
0.788083
0.790029
0.792043
0.794073
0.796062
0.797976
0.799797
0.801547
0.803274
0.80498
0.806508
0.807755
0.808933
0.810048
0.810218
0.809281
0.808583
0.809571
0.81154
0.810329
0.803643
0.79747
0.796392
0.796329
0.792365
0.784478
0.77394
0.761846
0.748279
0.73326
0.717637
0.70271
0.689654
0.679208
0.671797
0.667462
0.665842
0.666272
0.668003
0.670406
0.673078
0.675843
0.678705
0.681737
0.685052
0.688842
0.693127
0.697868
0.703127
0.708353
0.712348
0.714753
0.716207
0.71765
0.7198
0.722874
0.725874
0.727844
0.728827
0.729267
0.729395
0.729346
0.7292
0.728979
0.728649
0.728202
0.727613
0.726836
0.725987
0.724999
0.723674
0.722423
0.721256
0.719748
0.718924
0.719331
0.719729
0.720638
0.72356
0.725124
0.724376
0.726027
0.72991
0.729019
0.724309
0.721902
0.805594
0.806009
0.805243
0.804347
0.804079
0.804023
0.803867
0.803728
0.803599
0.803333
0.80283
0.802073
0.801093
0.799934
0.798631
0.797207
0.795671
0.794029
0.792294
0.790494
0.78868
0.786906
0.785235
0.783748
0.782494
0.781415
0.780471
0.779614
0.778678
0.777428
0.775729
0.773625
0.771198
0.768634
0.766205
0.764088
0.762218
0.76048
0.758417
0.756081
0.753531
0.750181
0.747604
0.743972
0.74152
0.739447
0.738393
0.734173
0.7314
0.729443
0.72853
0.728767
0.729841
0.731195
0.732376
0.73335
0.734181
0.734997
0.73586
0.736805
0.737811
0.738863
0.73994
0.741041
0.74216
0.743299
0.744455
0.745624
0.746802
0.747986
0.749177
0.750384
0.751613
0.752875
0.754173
0.7555
0.756867
0.758292
0.759781
0.761334
0.762949
0.764614
0.766319
0.768044
0.769772
0.771485
0.773173
0.774833
0.77647
0.778097
0.779734
0.781408
0.783151
0.785003
0.786998
0.789153
0.791449
0.793814
0.796136
0.79833
0.800349
0.802233
0.804047
0.805854
0.807508
0.808863
0.809832
0.810997
0.811814
0.811267
0.81038
0.811098
0.812906
0.81177
0.805313
0.799007
0.797226
0.7966
0.79262
0.784246
0.772984
0.76062
0.747095
0.732203
0.716815
0.702258
0.689578
0.679439
0.672216
0.66796
0.666355
0.666754
0.66839
0.670613
0.672994
0.675301
0.677473
0.679642
0.682119
0.68524
0.688976
0.69328
0.698803
0.705183
0.710524
0.713878
0.715916
0.718046
0.721195
0.725291
0.728936
0.731334
0.732505
0.732974
0.733094
0.733038
0.732881
0.73262
0.732199
0.731613
0.730879
0.729964
0.72894
0.727824
0.726465
0.725074
0.723805
0.72238
0.721548
0.722079
0.723078
0.724559
0.727808
0.730068
0.730097
0.73181
0.734621
0.733178
0.728624
0.725002
0.810413
0.809834
0.808281
0.807818
0.80767
0.807552
0.807306
0.806803
0.806063
0.805175
0.804178
0.803059
0.801792
0.800367
0.798783
0.797048
0.795167
0.793159
0.791053
0.788894
0.78674
0.784666
0.782773
0.781155
0.779915
0.778998
0.778181
0.777309
0.776378
0.775371
0.77408
0.772336
0.770192
0.76778
0.765218
0.762793
0.760729
0.758957
0.757222
0.755393
0.752886
0.750113
0.747265
0.743788
0.740949
0.738893
0.736141
0.732434
0.730225
0.728761
0.728392
0.728868
0.729745
0.730676
0.731431
0.732025
0.732544
0.733126
0.733835
0.7347
0.735678
0.736726
0.737793
0.738856
0.739896
0.740919
0.741928
0.742935
0.743954
0.745003
0.746096
0.747238
0.748413
0.749592
0.750795
0.752078
0.753461
0.754943
0.756522
0.758193
0.759948
0.761775
0.763656
0.765564
0.767471
0.769352
0.771188
0.772967
0.774691
0.776376
0.778055
0.779782
0.78161
0.783587
0.785753
0.788127
0.790704
0.793415
0.796117
0.79869
0.801048
0.803226
0.805264
0.807275
0.809215
0.810953
0.811963
0.812593
0.813586
0.813602
0.812685
0.813113
0.814724
0.8136
0.807402
0.800844
0.798397
0.797059
0.792609
0.783667
0.772143
0.759918
0.746545
0.731791
0.716776
0.702739
0.690443
0.680527
0.673325
0.668939
0.667119
0.667242
0.668537
0.670309
0.672041
0.673427
0.674514
0.675793
0.677798
0.680503
0.683503
0.687298
0.693262
0.701243
0.708357
0.713013
0.715776
0.718533
0.722471
0.727493
0.73217
0.73536
0.736956
0.737552
0.737636
0.737471
0.737184
0.736795
0.736247
0.735513
0.73463
0.733596
0.732446
0.731219
0.729807
0.72827
0.726834
0.725405
0.724563
0.725399
0.727282
0.729435
0.733157
0.736428
0.737195
0.738472
0.740824
0.739221
0.734704
0.729457
0.810946
0.810251
0.809904
0.810236
0.810312
0.809742
0.808896
0.808017
0.807098
0.806101
0.804915
0.803397
0.801475
0.799179
0.796619
0.793922
0.791189
0.788488
0.78589
0.783466
0.781266
0.779378
0.777857
0.776623
0.775744
0.775222
0.774765
0.774132
0.773339
0.772501
0.771459
0.769851
0.767629
0.765183
0.762764
0.76051
0.758591
0.756895
0.755189
0.753227
0.750822
0.748488
0.745349
0.742367
0.739609
0.737571
0.733824
0.730753
0.729115
0.728042
0.7278
0.728046
0.728464
0.728971
0.729481
0.730055
0.730734
0.731539
0.732436
0.733378
0.734307
0.735184
0.735985
0.73672
0.737412
0.7381
0.738818
0.739604
0.740479
0.741458
0.742541
0.743703
0.744885
0.746074
0.74735
0.748736
0.75022
0.751787
0.75343
0.755147
0.756938
0.758797
0.760718
0.762682
0.764669
0.766653
0.768617
0.770556
0.772478
0.774396
0.776327
0.778299
0.78034
0.782475
0.784748
0.787206
0.789906
0.792818
0.795774
0.798612
0.801209
0.803605
0.805826
0.808077
0.810516
0.812853
0.814707
0.815326
0.816087
0.816684
0.815819
0.81569
0.81687
0.815489
0.809401
0.80258
0.79942
0.797443
0.792443
0.783096
0.771627
0.759738
0.746561
0.732074
0.717707
0.704292
0.692206
0.682184
0.674712
0.669952
0.667737
0.667461
0.668259
0.669285
0.66994
0.670074
0.670119
0.670909
0.673026
0.67597
0.678774
0.682476
0.689088
0.698531
0.707207
0.713207
0.716736
0.720048
0.724606
0.730263
0.735738
0.739633
0.741722
0.74264
0.742916
0.742801
0.742436
0.741882
0.74112
0.740154
0.739049
0.737834
0.736515
0.735101
0.733514
0.731772
0.730113
0.728692
0.728121
0.729404
0.732226
0.735353
0.739587
0.743533
0.745263
0.74612
0.747989
0.746302
0.741766
0.735507
0.814372
0.814143
0.813927
0.813609
0.812836
0.81183
0.810894
0.809928
0.808733
0.807152
0.804996
0.80222
0.798978
0.795499
0.791976
0.788519
0.785171
0.781961
0.778967
0.776294
0.774061
0.772415
0.771417
0.770811
0.770304
0.769887
0.76949
0.768966
0.768351
0.767793
0.767096
0.765903
0.764192
0.762186
0.760058
0.758038
0.756276
0.754581
0.752817
0.750898
0.748756
0.746283
0.743062
0.74025
0.737947
0.735869
0.732101
0.729607
0.72814
0.727082
0.726705
0.726689
0.726916
0.727404
0.72805
0.728849
0.729709
0.730559
0.731325
0.731977
0.732515
0.732972
0.733387
0.733807
0.734277
0.734837
0.735518
0.736341
0.737309
0.738403
0.73958
0.740803
0.742096
0.74347
0.744882
0.746325
0.747805
0.749329
0.750908
0.75255
0.754257
0.756034
0.757895
0.75985
0.761886
0.763974
0.766089
0.76823
0.770411
0.772623
0.774821
0.776973
0.779081
0.781197
0.783438
0.785922
0.788786
0.792052
0.795498
0.798834
0.801805
0.804402
0.806778
0.809285
0.812372
0.815193
0.817517
0.818644
0.819067
0.819995
0.819615
0.819062
0.819832
0.818217
0.811665
0.803916
0.799469
0.796826
0.791638
0.782466
0.771504
0.76016
0.747283
0.73322
0.719562
0.706634
0.694559
0.684078
0.676102
0.670883
0.668248
0.667471
0.667486
0.667344
0.666653
0.665733
0.66532
0.666138
0.668651
0.672385
0.675773
0.679246
0.685914
0.696181
0.706492
0.714039
0.718289
0.722091
0.7275
0.734341
0.74071
0.744867
0.746929
0.747895
0.748324
0.74835
0.748065
0.747499
0.746616
0.74544
0.744085
0.742633
0.741074
0.739405
0.737618
0.735715
0.733886
0.732493
0.732276
0.734098
0.737845
0.742048
0.7468
0.751099
0.753694
0.7544
0.755564
0.754016
0.749613
0.742874
0.81866
0.818116
0.817619
0.817065
0.816217
0.815205
0.814009
0.812479
0.810574
0.808175
0.805203
0.801825
0.798264
0.794685
0.79117
0.787707
0.784255
0.780831
0.77754
0.774503
0.771826
0.769738
0.768399
0.767467
0.76649
0.765615
0.765027
0.764547
0.764116
0.76375
0.763094
0.761847
0.760157
0.758297
0.756405
0.754622
0.752989
0.751363
0.74973
0.748005
0.745924
0.743264
0.740692
0.738318
0.736443
0.733876
0.730631
0.728539
0.727082
0.725962
0.725506
0.725401
0.725664
0.726228
0.726925
0.727675
0.728352
0.728922
0.729378
0.729761
0.730112
0.730477
0.730887
0.731358
0.731899
0.732521
0.733232
0.73404
0.734947
0.735939
0.736998
0.738127
0.739352
0.740654
0.741986
0.743344
0.744761
0.746264
0.747877
0.749609
0.751455
0.753411
0.755477
0.75765
0.7599
0.762177
0.764427
0.766617
0.768741
0.770795
0.772782
0.774755
0.776794
0.778979
0.781438
0.78429
0.787607
0.791398
0.795456
0.799373
0.802826
0.805754
0.80845
0.811315
0.815035
0.818668
0.821144
0.822632
0.822943
0.823698
0.823902
0.823117
0.823595
0.822395
0.815793
0.806838
0.800321
0.796468
0.791129
0.782374
0.772205
0.76147
0.748915
0.735292
0.722151
0.709462
0.697235
0.686228
0.677601
0.671877
0.668731
0.667202
0.666082
0.664543
0.662702
0.661365
0.661188
0.662396
0.665239
0.669651
0.673248
0.675715
0.681837
0.692853
0.705369
0.714673
0.719834
0.724248
0.730526
0.738691
0.746629
0.751361
0.753168
0.753782
0.754109
0.754121
0.753796
0.753163
0.752163
0.75082
0.74927
0.747623
0.745886
0.744053
0.742143
0.740115
0.738066
0.736617
0.7368
0.739365
0.744038
0.749203
0.754454
0.758966
0.761969
0.762714
0.762891
0.761438
0.757519
0.750878
0.823638
0.823315
0.822882
0.822103
0.820895
0.819497
0.817869
0.816005
0.813809
0.811064
0.807877
0.804524
0.801076
0.797607
0.794153
0.790634
0.78699
0.783273
0.77962
0.776179
0.773079
0.770505
0.768571
0.767183
0.766033
0.764893
0.763818
0.762713
0.761632
0.760678
0.759526
0.757943
0.756053
0.754077
0.75221
0.750578
0.749161
0.747834
0.746514
0.745027
0.743172
0.74101
0.739096
0.73708
0.734932
0.731963
0.729261
0.727317
0.725842
0.724735
0.724265
0.724119
0.724378
0.724867
0.725438
0.726025
0.726558
0.727063
0.727554
0.728052
0.728552
0.729042
0.729501
0.729912
0.730267
0.730584
0.730914
0.731323
0.731864
0.732567
0.73343
0.734402
0.735448
0.736625
0.737937
0.739358
0.740886
0.742538
0.744345
0.746332
0.748504
0.750843
0.753316
0.75587
0.758449
0.760979
0.763384
0.765595
0.767595
0.769466
0.771363
0.773442
0.77583
0.778578
0.7817
0.785267
0.789174
0.793281
0.797487
0.801504
0.805196
0.808457
0.811228
0.814045
0.81751
0.82148
0.824518
0.826361
0.827024
0.827676
0.828243
0.827474
0.827599
0.827087
0.821483
0.812481
0.804748
0.799315
0.792931
0.784036
0.774423
0.764019
0.751577
0.738233
0.72537
0.712719
0.700256
0.688768
0.679408
0.673042
0.669177
0.666639
0.664217
0.661403
0.65893
0.657855
0.658337
0.659596
0.661881
0.666502
0.670464
0.672331
0.67814
0.690231
0.704711
0.715242
0.721479
0.72676
0.733741
0.742969
0.752753
0.758348
0.759887
0.760168
0.760308
0.76026
0.759849
0.759057
0.757835
0.756253
0.754505
0.752724
0.750893
0.748972
0.74697
0.744755
0.742357
0.740895
0.741725
0.745213
0.750734
0.756717
0.762431
0.767186
0.770293
0.771139
0.770427
0.768513
0.764767
0.75848
0.829554
0.829062
0.828433
0.827418
0.826068
0.824708
0.823111
0.821151
0.818699
0.815636
0.812218
0.808679
0.805087
0.8015
0.797889
0.79415
0.790239
0.78623
0.782292
0.778584
0.775192
0.772245
0.76989
0.768168
0.766835
0.76557
0.764288
0.762904
0.761389
0.759778
0.758073
0.75631
0.754576
0.752962
0.751527
0.750278
0.74913
0.747908
0.746499
0.74477
0.742599
0.74033
0.737963
0.735555
0.733076
0.730242
0.72774
0.725851
0.724375
0.723344
0.722865
0.722697
0.722934
0.723365
0.723922
0.724556
0.725225
0.725918
0.726589
0.727194
0.727678
0.728001
0.728138
0.728101
0.727946
0.727783
0.727745
0.727935
0.728394
0.729119
0.730081
0.731186
0.732362
0.733685
0.735137
0.736656
0.738229
0.739887
0.741689
0.743688
0.745914
0.748362
0.750995
0.753753
0.756567
0.759353
0.762026
0.764525
0.766859
0.769151
0.771598
0.774318
0.777342
0.780671
0.784177
0.787829
0.791583
0.795393
0.799363
0.803656
0.8081
0.811883
0.814361
0.816617
0.819578
0.8233
0.82707
0.829645
0.830769
0.831494
0.83234
0.83187
0.831522
0.831374
0.827209
0.819217
0.811373
0.804598
0.796791
0.787564
0.778239
0.76786
0.755284
0.742011
0.729256
0.716537
0.70377
0.691776
0.681706
0.674476
0.669658
0.665977
0.662315
0.65855
0.655925
0.655481
0.656492
0.657213
0.658595
0.663406
0.66866
0.670762
0.676295
0.689488
0.705412
0.716713
0.723844
0.730237
0.737581
0.747217
0.758609
0.765825
0.766812
0.766623
0.766582
0.766399
0.765919
0.765063
0.7637
0.761923
0.759996
0.758088
0.756173
0.754173
0.75203
0.749477
0.746751
0.745498
0.747132
0.751555
0.757826
0.764519
0.770617
0.775459
0.778371
0.779095
0.777748
0.775126
0.771235
0.765196
0.835874
0.835386
0.834765
0.833682
0.832173
0.830518
0.828576
0.826253
0.823416
0.820073
0.816436
0.812637
0.808777
0.804953
0.801186
0.797413
0.793566
0.789656
0.785778
0.782022
0.778454
0.775215
0.772458
0.770209
0.768384
0.766878
0.765527
0.764208
0.762845
0.761391
0.759855
0.758286
0.75673
0.755259
0.753858
0.75238
0.750716
0.748752
0.746438
0.743771
0.740888
0.738005
0.735097
0.732593
0.730453
0.728106
0.725785
0.724069
0.722688
0.721794
0.721343
0.721229
0.721519
0.722013
0.722695
0.723488
0.724317
0.725088
0.725702
0.726107
0.726283
0.726245
0.726025
0.7257
0.725393
0.725237
0.725299
0.725587
0.726094
0.726818
0.727762
0.728962
0.730428
0.731954
0.73344
0.734882
0.736315
0.737811
0.739468
0.741365
0.743543
0.745996
0.74868
0.751537
0.754497
0.757481
0.760414
0.763284
0.766135
0.768974
0.771915
0.775022
0.778206
0.781426
0.784629
0.787786
0.791061
0.794768
0.799267
0.804804
0.810617
0.814928
0.817088
0.8189
0.821997
0.825917
0.830212
0.833509
0.834976
0.835367
0.836
0.835851
0.835061
0.834724
0.831882
0.825505
0.818001
0.81001
0.801183
0.792066
0.783086
0.772703
0.75995
0.746631
0.733891
0.721053
0.707924
0.695379
0.684589
0.676329
0.670359
0.665544
0.660827
0.656469
0.653996
0.654153
0.655267
0.655384
0.656097
0.66143
0.668247
0.670525
0.675867
0.690172
0.707347
0.719563
0.727494
0.73494
0.742594
0.752026
0.764154
0.773245
0.774019
0.773028
0.772909
0.772586
0.771914
0.770978
0.769544
0.767642
0.76558
0.763585
0.76162
0.759536
0.75722
0.754305
0.751373
0.750462
0.75291
0.758261
0.765247
0.772448
0.778697
0.783348
0.785778
0.785963
0.783929
0.780534
0.776422
0.770698
0.842631
0.842112
0.841313
0.840018
0.838301
0.836428
0.834258
0.831637
0.828438
0.824657
0.820451
0.816011
0.811523
0.807149
0.80297
0.798956
0.795034
0.791162
0.787363
0.783713
0.780296
0.777159
0.774324
0.771816
0.76965
0.767798
0.766149
0.764519
0.762733
0.760765
0.758677
0.756549
0.754403
0.75226
0.750106
0.747893
0.745556
0.743007
0.740291
0.737518
0.734704
0.732021
0.729993
0.7287
0.727369
0.725468
0.723559
0.722127
0.72095
0.720225
0.719852
0.719846
0.720211
0.720792
0.721577
0.722446
0.723273
0.723913
0.724294
0.724446
0.724451
0.72439
0.724307
0.72423
0.724178
0.724152
0.724143
0.724166
0.724283
0.724609
0.725315
0.726459
0.727894
0.729388
0.730847
0.732265
0.733665
0.735124
0.736775
0.73874
0.741075
0.743771
0.746749
0.749921
0.753186
0.756461
0.759689
0.762856
0.765989
0.769042
0.772045
0.775087
0.778204
0.781398
0.78466
0.788017
0.791687
0.796014
0.801273
0.807529
0.813908
0.818491
0.820678
0.822475
0.825814
0.829952
0.834108
0.837653
0.83946
0.839641
0.839662
0.839507
0.838396
0.837487
0.835591
0.830618
0.823393
0.8148
0.805738
0.797053
0.788521
0.778284
0.765479
0.752097
0.739328
0.726358
0.712862
0.699749
0.688204
0.67887
0.671626
0.665714
0.660118
0.655433
0.653195
0.653553
0.654538
0.654254
0.654348
0.660656
0.668829
0.671337
0.67696
0.692344
0.710349
0.723401
0.732013
0.740162
0.748585
0.758087
0.770184
0.780016
0.781297
0.779281
0.779205
0.778959
0.778029
0.776892
0.775297
0.773229
0.771075
0.769068
0.767078
0.764924
0.762429
0.75922
0.756211
0.755752
0.759059
0.76528
0.772862
0.780336
0.786456
0.7906
0.792249
0.791497
0.78857
0.784369
0.7799
0.774565
0.849825
0.849282
0.848384
0.847017
0.845182
0.84305
0.840568
0.83761
0.834058
0.829922
0.82532
0.820385
0.815255
0.810083
0.805011
0.800149
0.795537
0.791178
0.787074
0.783238
0.779714
0.776564
0.773792
0.771355
0.769198
0.767192
0.765163
0.762961
0.760503
0.757772
0.754781
0.75163
0.748421
0.74526
0.742221
0.73937
0.736673
0.734131
0.73183
0.729828
0.72819
0.727131
0.72661
0.726068
0.724903
0.72322
0.721699
0.720466
0.719467
0.718844
0.718515
0.718561
0.71893
0.719527
0.720331
0.721184
0.721924
0.722404
0.722644
0.722789
0.722984
0.723253
0.72348
0.723503
0.723214
0.722611
0.721825
0.721072
0.720573
0.720499
0.720988
0.722014
0.723337
0.724906
0.726679
0.728539
0.730384
0.732205
0.734127
0.736328
0.738911
0.741885
0.74519
0.748739
0.752427
0.756198
0.760003
0.763749
0.767319
0.770727
0.774031
0.777341
0.780792
0.784435
0.788252
0.792253
0.796589
0.80143
0.806834
0.812677
0.818234
0.822371
0.824899
0.827313
0.830839
0.834792
0.838196
0.841151
0.843081
0.843694
0.843474
0.843141
0.84208
0.840682
0.839125
0.835144
0.828207
0.819582
0.810739
0.802509
0.794408
0.784476
0.771802
0.758388
0.745569
0.732497
0.718693
0.705052
0.692781
0.682453
0.673969
0.666862
0.660484
0.655507
0.653353
0.653589
0.654569
0.654002
0.653734
0.660978
0.670239
0.673466
0.67983
0.695961
0.714264
0.727742
0.736821
0.745283
0.754708
0.765108
0.77697
0.786204
0.787886
0.785359
0.785396
0.78546
0.784261
0.782809
0.780999
0.778771
0.776572
0.774581
0.772568
0.770357
0.767652
0.764215
0.761289
0.761427
0.765592
0.772551
0.780538
0.788023
0.793707
0.796956
0.797418
0.795348
0.791246
0.786203
0.781355
0.776484
0.857445
0.856919
0.855944
0.854444
0.852431
0.850103
0.847433
0.844314
0.840658
0.836461
0.831772
0.826688
0.821319
0.815802
0.810287
0.804926
0.799838
0.795079
0.790659
0.78659
0.782936
0.779777
0.777111
0.774819
0.772696
0.770539
0.768215
0.765663
0.762849
0.75977
0.756436
0.752849
0.749077
0.745273
0.741602
0.738193
0.735123
0.732507
0.730439
0.728924
0.727911
0.727235
0.726527
0.725415
0.72384
0.722169
0.720733
0.719499
0.718527
0.717872
0.7175
0.717492
0.717771
0.718296
0.719032
0.719813
0.72045
0.720822
0.721031
0.721276
0.721661
0.722036
0.72208
0.721552
0.720425
0.718887
0.717298
0.716042
0.715399
0.715452
0.716068
0.717061
0.718388
0.720174
0.722448
0.725028
0.727665
0.730199
0.732685
0.735305
0.738223
0.741478
0.745016
0.74873
0.752538
0.756476
0.760583
0.764796
0.768952
0.772961
0.776838
0.780695
0.784658
0.788761
0.792955
0.797214
0.801635
0.806332
0.81132
0.816536
0.821544
0.825505
0.828284
0.831294
0.835285
0.839275
0.842352
0.844782
0.846539
0.847411
0.847406
0.846961
0.846092
0.844625
0.843014
0.839717
0.83337
0.825076
0.816479
0.808495
0.800715
0.791216
0.778856
0.765467
0.752596
0.739494
0.725513
0.711464
0.698563
0.687336
0.677718
0.669423
0.662203
0.65672
0.654395
0.654446
0.655684
0.655049
0.654811
0.66266
0.672608
0.676747
0.684211
0.700842
0.718938
0.732376
0.741896
0.750663
0.76079
0.772133
0.783938
0.792324
0.793603
0.791125
0.791331
0.791977
0.790618
0.788683
0.78662
0.784303
0.782115
0.780146
0.778133
0.775871
0.772946
0.769313
0.766619
0.767468
0.772435
0.779971
0.788161
0.795354
0.800217
0.802147
0.800976
0.797197
0.791614
0.78562
0.780409
0.776136
0.86597
0.865422
0.864316
0.862719
0.860623
0.858136
0.855304
0.852078
0.848388
0.844223
0.839641
0.834714
0.829491
0.82407
0.818615
0.813308
0.808308
0.803694
0.799447
0.795528
0.79195
0.788745
0.785907
0.783351
0.780996
0.778761
0.776543
0.774281
0.771874
0.769144
0.765951
0.762283
0.758272
0.754105
0.74998
0.746059
0.742469
0.739318
0.736643
0.734381
0.732402
0.730519
0.728562
0.726492
0.724434
0.72257
0.720947
0.719557
0.718455
0.717636
0.717115
0.716929
0.717007
0.71732
0.717848
0.718467
0.718946
0.719177
0.719285
0.719466
0.719774
0.719899
0.719457
0.718288
0.716501
0.714438
0.712606
0.711454
0.711143
0.711597
0.712542
0.713703
0.715189
0.717147
0.719696
0.722838
0.726178
0.729335
0.732317
0.735346
0.73865
0.742321
0.746276
0.750348
0.754414
0.758425
0.762399
0.766368
0.770338
0.774273
0.778166
0.782099
0.78619
0.790473
0.794873
0.79934
0.803953
0.808834
0.813926
0.819139
0.824381
0.82896
0.832258
0.835277
0.839141
0.843137