/*--------------------------------*- C++ -*----------------------------------*\
  =========                 |
  \\      /  F ield         | OpenFOAM: The Open Source CFD Toolbox
   \\    /   O peration     | Website:  https://openfoam.org
    \\  /    A nd           | Version:  10
     \\/     M anipulation  |
\*---------------------------------------------------------------------------*/
FoamFile
{
    format      ascii;
    class       volScalarField;
    location    "2.45";
    object      Sb;
}
// * * * * * * * * * * * * * * * * * * * * * * * * * * * * * * * * * * * * * //

dimensions      [0 0 0 0 0 0 0];

internalField   nonuniform List<scalar> 
12225
(
0.877379
0.876408
0.875196
0.873871
0.872517
0.871191
0.869927
0.868747
0.867663
0.866687
0.865825
0.865091
0.864499
0.864079
0.863888
0.86405
0.864905
0.867488
0.88896
0.887732
0.886217
0.884575
0.882915
0.881302
0.879778
0.878365
0.877075
0.875919
0.874903
0.874037
0.873339
0.872837
0.872586
0.872698
0.873405
0.875108
0.896225
0.894784
0.893021
0.891127
0.889225
0.887392
0.885669
0.88408
0.882635
0.881344
0.88021
0.879244
0.878458
0.87788
0.877553
0.87756
0.878028
0.879076
0.901988
0.900341
0.898342
0.896212
0.894088
0.892053
0.890151
0.888403
0.88682
0.885407
0.884167
0.883107
0.882235
0.881573
0.881152
0.881021
0.881234
0.881788
0.90703
0.905169
0.902931
0.900564
0.898221
0.895989
0.893912
0.892011
0.890295
0.888764
0.887419
0.886263
0.885302
0.884546
0.884014
0.883727
0.883691
0.883861
0.911688
0.909597
0.907107
0.904494
0.901925
0.899493
0.89724
0.895186
0.893334
0.891684
0.890233
0.888977
0.887918
0.887058
0.886402
0.88595
0.885683
0.885543
0.916145
0.913801
0.911038
0.908164
0.905359
0.902717
0.900282
0.89807
0.89608
0.894307
0.892743
0.891381
0.890216
0.889242
0.888452
0.887834
0.887354
0.886957
0.92052
0.917891
0.914828
0.911671
0.908613
0.905751
0.903125
0.900747
0.898611
0.896709
0.895026
0.893551
0.892271
0.891175
0.890247
0.889463
0.88879
0.888176
0.924902
0.921946
0.918547
0.915079
0.911748
0.908649
0.90582
0.903267
0.900978
0.898938
0.897129
0.895533
0.894132
0.892907
0.891836
0.890894
0.890043
0.889242
0.929363
0.926024
0.922244
0.918432
0.914802
0.911448
0.908402
0.905662
0.90321
0.901025
0.899082
0.897357
0.895827
0.894469
0.893257
0.892161
0.891147
0.890182
0.933971
0.930175
0.925957
0.921759
0.917799
0.914169
0.910889
0.90795
0.905326
0.902987
0.900902
0.899042
0.897378
0.895884
0.894531
0.893288
0.892125
0.891014
0.938794
0.934445
0.929716
0.92508
0.920755
0.916822
0.913292
0.910141
0.907334
0.904833
0.902599
0.900597
0.898796
0.897164
0.895672
0.894289
0.892988
0.891744
0.943143
0.938206
0.93296
0.927895
0.923221
0.919006
0.915244
0.9119
0.908927
0.906279
0.903911
0.901785
0.899863
0.898113
0.896505
0.895009
0.8936
0.892256
0.948414
0.942656
0.936721
0.931101
0.925988
0.921425
0.917383
0.913808
0.910639
0.907819
0.905297
0.903028
0.900971
0.899092
0.897358
0.895743
0.89422
0.89277
0.95489
0.947946
0.941066
0.934717
0.929047
0.924056
0.919677
0.91583
0.912434
0.909419
0.906724
0.904297
0.902093
0.900074
0.898207
0.896462
0.894815
0.893247
0.963069
0.954332
0.946098
0.938757
0.932369
0.926849
0.922073
0.917917
0.914273
0.91105
0.908171
0.905574
0.903205
0.901022
0.898991
0.897085
0.895281
0.893565
0.974511
0.963062
0.952755
0.943995
0.936658
0.930468
0.925182
0.920608
0.916603
0.913044
0.90982
0.906881
0.904184
0.901695
0.899383
0.897224
0.8952
0.893293
0.959526
0.951602
0.944158
0.937412
0.931405
0.926091
0.921386
0.917202
0.913458
0.910095
0.907077
0.904318
0.901749
0.899352
0.897109
0.895008
0.893034
0.891176
0.944768
0.939384
0.933913
0.928696
0.923861
0.919435
0.915406
0.911738
0.908392
0.90533
0.902514
0.899933
0.89758
0.895393
0.893345
0.891424
0.889616
0.887911
0.934151
0.930216
0.925946
0.921694
0.917623
0.913803
0.910254
0.90697
0.903934
0.901123
0.898517
0.896093
0.893833
0.891754
0.889809
0.887978
0.886252
0.884621
0.92504
0.922027
0.918599
0.915066
0.911595
0.90827
0.90513
0.902184
0.899431
0.896859
0.894456
0.892207
0.8901
0.888123
0.88629
0.884564
0.882936
0.881398
0.916992
0.914597
0.911778
0.908795
0.905801
0.902886
0.900093
0.897444
0.894945
0.892593
0.89038
0.888299
0.88634
0.884495
0.882759
0.881137
0.879604
0.878153
0.909688
0.90773
0.905368
0.902815
0.900209
0.897635
0.895142
0.892754
0.890483
0.88833
0.886295
0.884371
0.882553
0.880834
0.879208
0.877682
0.876238
0.874871
0.902885
0.901251
0.899243
0.897035
0.894751
0.892468
0.890234
0.888077
0.886011
0.884042
0.88217
0.880393
0.878707
0.877109
0.875592
0.874156
0.872802
0.871518
0.896372
0.89499
0.893264
0.891342
0.889329
0.887298
0.885293
0.883344
0.881465
0.879664
0.877945
0.876306
0.874746
0.873262
0.87185
0.870507
0.869237
0.868031
0.889937
0.888758
0.887267
0.885587
0.88381
0.882001
0.880203
0.878443
0.876737
0.875094
0.873518
0.872011
0.870571
0.869197
0.867886
0.866637
0.865451
0.864322
0.883317
0.882309
0.881019
0.879551
0.877986
0.87638
0.874772
0.87319
0.871648
0.870156
0.868719
0.867339
0.866016
0.864751
0.86354
0.862383
0.86128
0.860229
0.876097
0.875239
0.87413
0.872857
0.871488
0.870074
0.86865
0.86724
0.865859
0.864516
0.863218
0.861967
0.860764
0.859609
0.858501
0.857438
0.856421
0.855451
0.867374
0.866658
0.865723
0.864641
0.863468
0.862249
0.861013
0.859782
0.85857
0.857387
0.856237
0.855124
0.85405
0.853015
0.852019
0.851061
0.850141
0.849261
0.853754
0.853189
0.852443
0.85157
0.850615
0.849614
0.848591
0.847565
0.846547
0.845546
0.844567
0.843614
0.842688
0.841792
0.840924
0.840086
0.839276
0.838501
0.76344
0.763456
0.76347
0.763482
0.76349
0.763495
0.763498
0.763499
0.763499
0.763501
0.763504
0.763512
0.763526
0.763548
0.763579
0.763623
0.763681
0.763756
0.763852
0.763972
0.764118
0.764297
0.764512
0.764769
0.765074
0.765433
0.765852
0.766341
0.766907
0.76756
0.768308
0.769162
0.770129
0.771218
0.772433
0.773772
0.775227
0.776782
0.778408
0.780071
0.781726
0.783329
0.784838
0.786216
0.787437
0.788486
0.789355
0.790039
0.790534
0.790826
0.790884
0.790639
0.789945
0.788468
0.785349
0.777679
0.747171
0.329052
0.000324061
1.1e-06
1.1e-06
1.1e-06
1.1e-06
1.1e-06
1.1e-06
1.1e-06
1.1e-06
1.1e-06
1.1e-06
1.1e-06
1.1e-06
1.1e-06
1.1e-06
1.1e-06
1.1e-06
1.1e-06
1.1e-06
1.1e-06
1.1e-06
1.1e-06
1.1e-06
1.1e-06
1.1e-06
1.1e-06
1.1e-06
1.1e-06
1.1e-06
1.1e-06
1.1e-06
1.1e-06
1.1e-06
1.1e-06
1.1e-06
1.1e-06
1.1e-06
1.1e-06
1.1e-06
1.1e-06
1.1e-06
1.1e-06
1.1e-06
1.1e-06
1.1e-06
1.1e-06
1.1e-06
1.1e-06
1.1e-06
1.1e-06
1.1e-06
1.1e-06
1.1e-06
1.1e-06
1.1e-06
1.1e-06
1.1e-06
1.1e-06
1.1e-06
1.1e-06
1.1e-06
1.1e-06
1.1e-06
1.1e-06
1.1e-06
1.1e-06
1.1e-06
1.1e-06
1.1e-06
1.1e-06
1.1e-06
1.1e-06
1.1e-06
1.1e-06
1.1e-06
1.1e-06
1.1e-06
1.1e-06
1.1e-06
1.1e-06
1.1e-06
1.1e-06
1.1e-06
1.1e-06
1.1e-06
1.1e-06
1.1e-06
1.1e-06
1.1e-06
1.1e-06
1.1e-06
1.1e-06
1.1e-06
1.1e-06
1.1e-06
1.1e-06
1.1e-06
1.1e-06
1.1e-06
1.1e-06
1.1e-06
1.1e-06
1.1e-06
1.1e-06
1.1e-06
1.1e-06
1.1e-06
1.1e-06
1.1e-06
1.1e-06
1.1e-06
1.1e-06
1.1e-06
1.1e-06
1.1e-06
1.1e-06
1.1e-06
1.1e-06
1.1e-06
1.1e-06
1.1e-06
1.1e-06
0.807161
0.807197
0.807237
0.807281
0.807327
0.807376
0.807434
0.807507
0.807601
0.807723
0.807881
0.808082
0.80833
0.808632
0.80899
0.809406
0.80988
0.810409
0.810987
0.811605
0.812248
0.812902
0.813549
0.814169
0.814745
0.81526
0.8157
0.816054
0.816313
0.816475
0.816536
0.8165
0.816369
0.816148
0.815844
0.815461
0.815008
0.814489
0.81391
0.813278
0.812597
0.811873
0.811109
0.81031
0.809478
0.808612
0.80771
0.806765
0.80576
0.804671
0.80345
0.802019
0.800232
0.797799
0.794044
0.78699
0.767367
0.54755
0.00550869
1.10004e-06
1.1e-06
1.1e-06
1.1e-06
1.1e-06
1.1e-06
1.1e-06
1.1e-06
1.1e-06
1.1e-06
1.1e-06
1.1e-06
1.1e-06
1.1e-06
1.1e-06
1.1e-06
1.1e-06
1.1e-06
1.1e-06
1.1e-06
1.1e-06
1.1e-06
1.1e-06
1.1e-06
1.1e-06
1.1e-06
1.1e-06
1.1e-06
1.1e-06
1.1e-06
1.1e-06
1.1e-06
1.1e-06
1.1e-06
1.1e-06
1.1e-06
1.1e-06
1.1e-06
1.1e-06
1.1e-06
1.1e-06
1.1e-06
1.1e-06
1.1e-06
1.1e-06
1.1e-06
1.1e-06
1.1e-06
1.1e-06
1.1e-06
1.1e-06
1.1e-06
1.1e-06
1.1e-06
1.1e-06
1.1e-06
1.1e-06
1.1e-06
1.1e-06
1.1e-06
1.1e-06
1.1e-06
1.1e-06
1.1e-06
1.1e-06
1.1e-06
1.1e-06
1.1e-06
1.1e-06
1.1e-06
1.1e-06
1.1e-06
1.1e-06
1.1e-06
1.1e-06
1.1e-06
1.1e-06
1.1e-06
1.1e-06
1.1e-06
1.1e-06
1.1e-06
1.1e-06
1.1e-06
1.1e-06
1.1e-06
1.1e-06
1.1e-06
1.1e-06
1.1e-06
1.1e-06
1.1e-06
1.1e-06
1.1e-06
1.1e-06
1.1e-06
1.1e-06
1.1e-06
1.1e-06
1.1e-06
1.1e-06
1.1e-06
1.1e-06
1.1e-06
1.1e-06
1.1e-06
1.1e-06
1.1e-06
1.1e-06
1.1e-06
1.1e-06
1.1e-06
1.1e-06
1.1e-06
1.1e-06
1.1e-06
1.1e-06
1.1e-06
1.1e-06
1.1e-06
1.1e-06
0.818678
0.818729
0.818777
0.818821
0.818861
0.818897
0.818932
0.818973
0.819025
0.819095
0.81919
0.819314
0.819474
0.819673
0.819915
0.8202
0.820529
0.820897
0.821301
0.821729
0.822169
0.822605
0.82302
0.823396
0.823714
0.82396
0.82412
0.824187
0.824156
0.824023
0.823792
0.823465
0.823049
0.822551
0.821978
0.821339
0.820642
0.819894
0.819104
0.818278
0.817421
0.81654
0.815639
0.81472
0.813784
0.812829
0.81185
0.810838
0.809773
0.80863
0.807363
0.805901
0.804118
0.801779
0.79838
0.792596
0.779434
0.708635
0.0878506
6.74502e-06
1.1e-06
1.1e-06
1.1e-06
1.1e-06
1.1e-06
1.1e-06
1.1e-06
1.1e-06
1.1e-06
1.1e-06
1.1e-06
1.1e-06
1.1e-06
1.1e-06
1.1e-06
1.1e-06
1.1e-06
1.1e-06
1.1e-06
1.1e-06
1.1e-06
1.1e-06
1.1e-06
1.1e-06
1.1e-06
1.1e-06
1.1e-06
1.1e-06
1.1e-06
1.1e-06
1.1e-06
1.1e-06
1.1e-06
1.1e-06
1.1e-06
1.1e-06
1.1e-06
1.1e-06
1.1e-06
1.1e-06
1.1e-06
1.1e-06
1.1e-06
1.1e-06
1.1e-06
1.1e-06
1.1e-06
1.1e-06
1.1e-06
1.1e-06
1.1e-06
1.1e-06
1.1e-06
1.1e-06
1.1e-06
1.1e-06
1.1e-06
1.1e-06
1.1e-06
1.1e-06
1.1e-06
1.1e-06
1.1e-06
1.1e-06
1.1e-06
1.1e-06
1.1e-06
1.1e-06
1.1e-06
1.1e-06
1.1e-06
1.1e-06
1.1e-06
1.1e-06
1.1e-06
1.1e-06
1.1e-06
1.1e-06
1.1e-06
1.1e-06
1.1e-06
1.1e-06
1.1e-06
1.1e-06
1.1e-06
1.1e-06
1.1e-06
1.1e-06
1.1e-06
1.1e-06
1.1e-06
1.1e-06
1.1e-06
1.1e-06
1.1e-06
1.1e-06
1.1e-06
1.1e-06
1.1e-06
1.1e-06
1.1e-06
1.1e-06
1.1e-06
1.1e-06
1.1e-06
1.1e-06
1.1e-06
1.1e-06
1.1e-06
1.1e-06
1.1e-06
1.1e-06
1.1e-06
1.1e-06
1.1e-06
1.1e-06
1.1e-06
1.1e-06
1.1e-06
1.1e-06
0.825369
0.825446
0.825513
0.825571
0.825619
0.825656
0.825682
0.8257
0.825714
0.825725
0.825737
0.825752
0.825772
0.825799
0.825834
0.825876
0.825926
0.82598
0.826036
0.826091
0.826139
0.826175
0.826191
0.826182
0.826141
0.826063
0.825941
0.825772
0.825553
0.825281
0.824956
0.824578
0.824148
0.823668
0.823142
0.822573
0.821965
0.821321
0.820646
0.819944
0.819217
0.818467
0.817696
0.816904
0.816088
0.815244
0.814364
0.813438
0.812447
0.811366
0.810157
0.808757
0.807067
0.804904
0.801908
0.797213
0.788117
0.759204
0.352586
0.000343609
1.1e-06
1.1e-06
1.1e-06
1.1e-06
1.1e-06
1.1e-06
1.1e-06
1.1e-06
1.1e-06
1.1e-06
1.1e-06
1.1e-06
1.1e-06
1.1e-06
1.1e-06
1.1e-06
1.1e-06
1.1e-06
1.1e-06
1.1e-06
1.1e-06
1.1e-06
1.1e-06
1.1e-06
1.1e-06
1.1e-06
1.1e-06
1.1e-06
1.1e-06
1.1e-06
1.1e-06
1.1e-06
1.1e-06
1.1e-06
1.1e-06
1.1e-06
1.1e-06
1.1e-06
1.1e-06
1.1e-06
1.1e-06
1.1e-06
1.1e-06
1.1e-06
1.1e-06
1.1e-06
1.1e-06
1.1e-06
1.1e-06
1.1e-06
1.1e-06
1.1e-06
1.1e-06
1.1e-06
1.1e-06
1.1e-06
1.1e-06
1.1e-06
1.1e-06
1.1e-06
1.1e-06
1.1e-06
1.1e-06
1.1e-06
1.1e-06
1.1e-06
1.1e-06
1.1e-06
1.1e-06
1.1e-06
1.1e-06
1.1e-06
1.1e-06
1.1e-06
1.1e-06
1.1e-06
1.1e-06
1.1e-06
1.1e-06
1.1e-06
1.1e-06
1.1e-06
1.1e-06
1.1e-06
1.1e-06
1.1e-06
1.1e-06
1.1e-06
1.1e-06
1.1e-06
1.1e-06
1.1e-06
1.1e-06
1.1e-06
1.1e-06
1.1e-06
1.1e-06
1.1e-06
1.1e-06
1.1e-06
1.1e-06
1.1e-06
1.1e-06
1.1e-06
1.1e-06
1.1e-06
1.1e-06
1.1e-06
1.1e-06
1.1e-06
1.1e-06
1.1e-06
1.1e-06
1.1e-06
1.1e-06
1.1e-06
1.1e-06
1.1e-06
1.1e-06
1.1e-06
0.830292
0.830401
0.830495
0.830573
0.830636
0.830682
0.83071
0.830723
0.83072
0.830702
0.830673
0.830632
0.83058
0.830518
0.830448
0.830368
0.830278
0.830179
0.830068
0.829944
0.829806
0.829651
0.829477
0.829281
0.829061
0.828815
0.828541
0.828236
0.827899
0.827529
0.827125
0.826688
0.826217
0.825714
0.82518
0.824616
0.824025
0.823407
0.822765
0.822099
0.821412
0.820702
0.81997
0.819213
0.818429
0.817611
0.816752
0.815842
0.814863
0.813793
0.8126
0.811235
0.809616
0.807609
0.804957
0.801102
0.794559
0.779514
0.686743
0.0516837
2.52141e-06
1.1e-06
1.1e-06
1.1e-06
1.1e-06
1.1e-06
1.1e-06
1.1e-06
1.1e-06
1.1e-06
1.1e-06
1.1e-06
1.1e-06
1.1e-06
1.1e-06
1.1e-06
1.1e-06
1.1e-06
1.1e-06
1.1e-06
1.1e-06
1.1e-06
1.1e-06
1.1e-06
1.1e-06
1.1e-06
1.1e-06
1.1e-06
1.1e-06
1.1e-06
1.1e-06
1.1e-06
1.1e-06
1.1e-06
1.1e-06
1.1e-06
1.1e-06
1.1e-06
1.1e-06
1.1e-06
1.1e-06
1.1e-06
1.1e-06
1.1e-06
1.1e-06
1.1e-06
1.1e-06
1.1e-06
1.1e-06
1.1e-06
1.1e-06
1.1e-06
1.1e-06
1.1e-06
1.1e-06
1.1e-06
1.1e-06
1.1e-06
1.1e-06
1.1e-06
1.1e-06
1.1e-06
1.1e-06
1.1e-06
1.1e-06
1.1e-06
1.1e-06
1.1e-06
1.1e-06
1.1e-06
1.1e-06
1.1e-06
1.1e-06
1.1e-06
1.1e-06
1.1e-06
1.1e-06
1.1e-06
1.1e-06
1.1e-06
1.1e-06
1.1e-06
1.1e-06
1.1e-06
1.1e-06
1.1e-06
1.1e-06
1.1e-06
1.1e-06
1.1e-06
1.1e-06
1.1e-06
1.1e-06
1.1e-06
1.1e-06
1.1e-06
1.1e-06
1.1e-06
1.1e-06
1.1e-06
1.1e-06
1.1e-06
1.1e-06
1.1e-06
1.1e-06
1.1e-06
1.1e-06
1.1e-06
1.1e-06
1.1e-06
1.1e-06
1.1e-06
1.1e-06
1.1e-06
1.1e-06
1.1e-06
1.1e-06
1.1e-06
1.1e-06
1.1e-06
0.834322
0.834466
0.83459
0.834694
0.834776
0.834836
0.834873
0.834888
0.83488
0.83485
0.834799
0.834727
0.834634
0.834522
0.834391
0.83424
0.834071
0.833883
0.833677
0.833451
0.833206
0.832941
0.832655
0.832349
0.83202
0.831669
0.831296
0.830898
0.830476
0.83003
0.82956
0.829065
0.828546
0.828004
0.827438
0.826851
0.826241
0.825611
0.82496
0.824289
0.823598
0.822884
0.822148
0.821386
0.820595
0.819769
0.8189
0.817979
0.816992
0.815919
0.814734
0.813395
0.811842
0.809972
0.807603
0.804371
0.799415
0.790076
0.761662
0.369831
0.000419554
1.1e-06
1.1e-06
1.1e-06
1.1e-06
1.1e-06
1.1e-06
1.1e-06
1.1e-06
1.1e-06
1.1e-06
1.1e-06
1.1e-06
1.1e-06
1.1e-06
1.1e-06
1.1e-06
1.1e-06
1.1e-06
1.1e-06
1.1e-06
1.1e-06
1.1e-06
1.1e-06
1.1e-06
1.1e-06
1.1e-06
1.1e-06
1.1e-06
1.1e-06
1.1e-06
1.1e-06
1.1e-06
1.1e-06
1.1e-06
1.1e-06
1.1e-06
1.1e-06
1.1e-06
1.1e-06
1.1e-06
1.1e-06
1.1e-06
1.1e-06
1.1e-06
1.1e-06
1.1e-06
1.1e-06
1.1e-06
1.1e-06
1.1e-06
1.1e-06
1.1e-06
1.1e-06
1.1e-06
1.1e-06
1.1e-06
1.1e-06
1.1e-06
1.1e-06
1.1e-06
1.1e-06
1.1e-06
1.1e-06
1.1e-06
1.1e-06
1.1e-06
1.1e-06
1.1e-06
1.1e-06
1.1e-06
1.1e-06
1.1e-06
1.1e-06
1.1e-06
1.1e-06
1.1e-06
1.1e-06
1.1e-06
1.1e-06
1.1e-06
1.1e-06
1.1e-06
1.1e-06
1.1e-06
1.1e-06
1.1e-06
1.1e-06
1.1e-06
1.1e-06
1.1e-06
1.1e-06
1.1e-06
1.1e-06
1.1e-06
1.1e-06
1.1e-06
1.1e-06
1.1e-06
1.1e-06
1.1e-06
1.1e-06
1.1e-06
1.1e-06
1.1e-06
1.1e-06
1.1e-06
1.1e-06
1.1e-06
1.1e-06
1.1e-06
1.1e-06
1.1e-06
1.1e-06
1.1e-06
1.1e-06
1.1e-06
1.1e-06
1.1e-06
1.1e-06
0.837828
0.838008
0.838164
0.838295
0.8384
0.838477
0.838527
0.838548
0.838541
0.838505
0.838442
0.83835
0.838232
0.838086
0.837914
0.837717
0.837495
0.837248
0.836977
0.836683
0.836366
0.836026
0.835664
0.83528
0.834875
0.834448
0.834
0.833531
0.833041
0.832531
0.832
0.83145
0.830881
0.830292
0.829685
0.829059
0.828415
0.827754
0.827074
0.826376
0.825658
0.82492
0.82416
0.823374
0.822559
0.82171
0.82082
0.81988
0.818879
0.817799
0.816618
0.815305
0.813811
0.812059
0.809918
0.807145
0.803218
0.796786
0.782823
0.71169
0.0863874
6.89117e-06
1.1e-06
1.1e-06
1.1e-06
1.1e-06
1.1e-06
1.1e-06
1.1e-06
1.1e-06
1.1e-06
1.1e-06
1.1e-06
1.1e-06
1.1e-06
1.1e-06
1.1e-06
1.1e-06
1.1e-06
1.1e-06
1.1e-06
1.1e-06
1.1e-06
1.1e-06
1.1e-06
1.1e-06
1.1e-06
1.1e-06
1.1e-06
1.1e-06
1.1e-06
1.1e-06
1.1e-06
1.1e-06
1.1e-06
1.1e-06
1.1e-06
1.1e-06
1.1e-06
1.1e-06
1.1e-06
1.1e-06
1.1e-06
1.1e-06
1.1e-06
1.1e-06
1.1e-06
1.1e-06
1.1e-06
1.1e-06
1.1e-06
1.1e-06
1.1e-06
1.1e-06
1.1e-06
1.1e-06
1.1e-06
1.1e-06
1.1e-06
1.1e-06
1.1e-06
1.1e-06
1.1e-06
1.1e-06
1.1e-06
1.1e-06
1.1e-06
1.1e-06
1.1e-06
1.1e-06
1.1e-06
1.1e-06
1.1e-06
1.1e-06
1.1e-06
1.1e-06
1.1e-06
1.1e-06
1.1e-06
1.1e-06
1.1e-06
1.1e-06
1.1e-06
1.1e-06
1.1e-06
1.1e-06
1.1e-06
1.1e-06
1.1e-06
1.1e-06
1.1e-06
1.1e-06
1.1e-06
1.1e-06
1.1e-06
1.1e-06
1.1e-06
1.1e-06
1.1e-06
1.1e-06
1.1e-06
1.1e-06
1.1e-06
1.1e-06
1.1e-06
1.1e-06
1.1e-06
1.1e-06
1.1e-06
1.1e-06
1.1e-06
1.1e-06
1.1e-06
1.1e-06
1.1e-06
1.1e-06
1.1e-06
1.1e-06
1.1e-06
1.1e-06
0.840995
0.841213
0.841403
0.841563
0.841692
0.841789
0.841853
0.841883
0.841878
0.84184
0.841768
0.841662
0.841523
0.841352
0.841148
0.840914
0.840651
0.840358
0.840037
0.839689
0.839315
0.838917
0.838494
0.838048
0.83758
0.83709
0.836579
0.836049
0.835499
0.834931
0.834344
0.83374
0.833119
0.832481
0.831828
0.831158
0.830472
0.82977
0.829052
0.828317
0.827564
0.826792
0.825999
0.825181
0.824336
0.823459
0.822544
0.821583
0.820566
0.819479
0.818304
0.817014
0.815572
0.813919
0.811959
0.809526
0.806289
0.801497
0.792957
0.770244
0.505087
0.0026003
1.1e-06
1.1e-06
1.1e-06
1.1e-06
1.1e-06
1.1e-06
1.1e-06
1.1e-06
1.1e-06
1.1e-06
1.1e-06
1.1e-06
1.1e-06
1.1e-06
1.1e-06
1.1e-06
1.1e-06
1.1e-06
1.1e-06
1.1e-06
1.1e-06
1.1e-06
1.1e-06
1.1e-06
1.1e-06
1.1e-06
1.1e-06
1.1e-06
1.1e-06
1.1e-06
1.1e-06
1.1e-06
1.1e-06
1.1e-06
1.1e-06
1.1e-06
1.1e-06
1.1e-06
1.1e-06
1.1e-06
1.1e-06
1.1e-06
1.1e-06
1.1e-06
1.1e-06
1.1e-06
1.1e-06
1.1e-06
1.1e-06
1.1e-06
1.1e-06
1.1e-06
1.1e-06
1.1e-06
1.1e-06
1.1e-06
1.1e-06
1.1e-06
1.1e-06
1.1e-06
1.1e-06
1.1e-06
1.1e-06
1.1e-06
1.1e-06
1.1e-06
1.1e-06
1.1e-06
1.1e-06
1.1e-06
1.1e-06
1.1e-06
1.1e-06
1.1e-06
1.1e-06
1.1e-06
1.1e-06
1.1e-06
1.1e-06
1.1e-06
1.1e-06
1.1e-06
1.1e-06
1.1e-06
1.1e-06
1.1e-06
1.1e-06
1.1e-06
1.1e-06
1.1e-06
1.1e-06
1.1e-06
1.1e-06
1.1e-06
1.1e-06
1.1e-06
1.1e-06
1.1e-06
1.1e-06
1.1e-06
1.1e-06
1.1e-06
1.1e-06
1.1e-06
1.1e-06
1.1e-06
1.1e-06
1.1e-06
1.1e-06
1.1e-06
1.1e-06
1.1e-06
1.1e-06
1.1e-06
1.1e-06
1.1e-06
1.1e-06
1.1e-06
0.843929
0.844187
0.844412
0.844603
0.844757
0.844875
0.844953
0.844993
0.844993
0.844953
0.844873
0.844754
0.844597
0.844402
0.84417
0.843903
0.843602
0.843268
0.842902
0.842507
0.842083
0.841632
0.841155
0.840654
0.840129
0.839583
0.839015
0.838428
0.837823
0.837199
0.836559
0.835902
0.83523
0.834542
0.83384
0.833123
0.832392
0.831647
0.830887
0.830111
0.829319
0.82851
0.82768
0.826829
0.825952
0.825046
0.824105
0.823123
0.822091
0.820998
0.819827
0.818558
0.817161
0.815589
0.813774
0.811594
0.808833
0.805039
0.799091
0.787173
0.741193
0.182148
4.28974e-05
1.1e-06
1.1e-06
1.1e-06
1.1e-06
1.1e-06
1.1e-06
1.1e-06
1.1e-06
1.1e-06
1.1e-06
1.1e-06
1.1e-06
1.1e-06
1.1e-06
1.1e-06
1.1e-06
1.1e-06
1.1e-06
1.1e-06
1.1e-06
1.1e-06
1.1e-06
1.1e-06
1.1e-06
1.1e-06
1.1e-06
1.1e-06
1.1e-06
1.1e-06
1.1e-06
1.1e-06
1.1e-06
1.1e-06
1.1e-06
1.1e-06
1.1e-06
1.1e-06
1.1e-06
1.1e-06
1.1e-06
1.1e-06
1.1e-06
1.1e-06
1.1e-06
1.1e-06
1.1e-06
1.1e-06
1.1e-06
1.1e-06
1.1e-06
1.1e-06
1.1e-06
1.1e-06
1.1e-06
1.1e-06
1.1e-06
1.1e-06
1.1e-06
1.1e-06
1.1e-06
1.1e-06
1.1e-06
1.1e-06
1.1e-06
1.1e-06
1.1e-06
1.1e-06
1.1e-06
1.1e-06
1.1e-06
1.1e-06
1.1e-06
1.1e-06
1.1e-06
1.1e-06
1.1e-06
1.1e-06
1.1e-06
1.1e-06
1.1e-06
1.1e-06
1.1e-06
1.1e-06
1.1e-06
1.1e-06
1.1e-06
1.1e-06
1.1e-06
1.1e-06
1.1e-06
1.1e-06
1.1e-06
1.1e-06
1.1e-06
1.1e-06
1.1e-06
1.1e-06
1.1e-06
1.1e-06
1.1e-06
1.1e-06
1.1e-06
1.1e-06
1.1e-06
1.1e-06
1.1e-06
1.1e-06
1.1e-06
1.1e-06
1.1e-06
1.1e-06
1.1e-06
1.1e-06
1.1e-06
1.1e-06
1.1e-06
1.1e-06
0.846691
0.84699
0.847252
0.847475
0.847657
0.847795
0.84789
0.84794
0.847944
0.847902
0.847815
0.847683
0.847507
0.847288
0.847028
0.846729
0.846391
0.846016
0.845608
0.845166
0.844694
0.844193
0.843664
0.84311
0.842532
0.841931
0.84131
0.840668
0.840009
0.839332
0.838639
0.83793
0.837207
0.83647
0.83572
0.834956
0.834179
0.833389
0.832586
0.831769
0.830937
0.830089
0.829223
0.828337
0.827429
0.826495
0.825529
0.824527
0.823481
0.822381
0.821214
0.819963
0.818604
0.8171
0.815398
0.813411
0.81099
0.807846
0.803346
0.795762
0.777954
0.643085
0.0230955
1.21288e-06
1.1e-06
1.1e-06
1.1e-06
1.1e-06
1.1e-06
1.1e-06
1.1e-06
1.1e-06
1.1e-06
1.1e-06
1.1e-06
1.1e-06
1.1e-06
1.1e-06
1.1e-06
1.1e-06
1.1e-06
1.1e-06
1.1e-06
1.1e-06
1.1e-06
1.1e-06
1.1e-06
1.1e-06
1.1e-06
1.1e-06
1.1e-06
1.1e-06
1.1e-06
1.1e-06
1.1e-06
1.1e-06
1.1e-06
1.1e-06
1.1e-06
1.1e-06
1.1e-06
1.1e-06
1.1e-06
1.1e-06
1.1e-06
1.1e-06
1.1e-06
1.1e-06
1.1e-06
1.1e-06
1.1e-06
1.1e-06
1.1e-06
1.1e-06
1.1e-06
1.1e-06
1.1e-06
1.1e-06
1.1e-06
1.1e-06
1.1e-06
1.1e-06
1.1e-06
1.1e-06
1.1e-06
1.1e-06
1.1e-06
1.1e-06
1.1e-06
1.1e-06
1.1e-06
1.1e-06
1.1e-06
1.1e-06
1.1e-06
1.1e-06
1.1e-06
1.1e-06
1.1e-06
1.1e-06
1.1e-06
1.1e-06
1.1e-06
1.1e-06
1.1e-06
1.1e-06
1.1e-06
1.1e-06
1.1e-06
1.1e-06
1.1e-06
1.1e-06
1.1e-06
1.1e-06
1.1e-06
1.1e-06
1.1e-06
1.1e-06
1.1e-06
1.1e-06
1.1e-06
1.1e-06
1.1e-06
1.1e-06
1.1e-06
1.1e-06
1.1e-06
1.1e-06
1.1e-06
1.1e-06
1.1e-06
1.1e-06
1.1e-06
1.1e-06
1.1e-06
1.1e-06
1.1e-06
1.1e-06
1.1e-06
1.1e-06
0.849315
0.849657
0.849959
0.850216
0.850427
0.850589
0.8507
0.850761
0.850769
0.850725
0.850629
0.850483
0.850287
0.850044
0.849754
0.84942
0.849045
0.848629
0.848176
0.847688
0.847167
0.846616
0.846036
0.845429
0.844798
0.844145
0.84347
0.842776
0.842063
0.841334
0.840589
0.83983
0.839057
0.838271
0.837473
0.836663
0.835841
0.835007
0.834161
0.833303
0.832431
0.831546
0.830644
0.829725
0.828787
0.827825
0.826836
0.825815
0.824756
0.823649
0.822486
0.82125
0.819922
0.818473
0.816862
0.815024
0.812851
0.81015
0.806532
0.801078
0.790913
0.759556
0.332674
0.00028203
1.1e-06
1.1e-06
1.1e-06
1.1e-06
1.1e-06
1.1e-06
1.1e-06
1.1e-06
1.1e-06
1.1e-06
1.1e-06
1.1e-06
1.1e-06
1.1e-06
1.1e-06
1.1e-06
1.1e-06
1.1e-06
1.1e-06
1.1e-06
1.1e-06
1.1e-06
1.1e-06
1.1e-06
1.1e-06
1.1e-06
1.1e-06
1.1e-06
1.1e-06
1.1e-06
1.1e-06
1.1e-06
1.1e-06
1.1e-06
1.1e-06
1.1e-06
1.1e-06
1.1e-06
1.1e-06
1.1e-06
1.1e-06
1.1e-06
1.1e-06
1.1e-06
1.1e-06
1.1e-06
1.1e-06
1.1e-06
1.1e-06
1.1e-06
1.1e-06
1.1e-06
1.1e-06
1.1e-06
1.1e-06
1.1e-06
1.1e-06
1.1e-06
1.1e-06
1.1e-06
1.1e-06
1.1e-06
1.1e-06
1.1e-06
1.1e-06
1.1e-06
1.1e-06
1.1e-06
1.1e-06
1.1e-06
1.1e-06
1.1e-06
1.1e-06
1.1e-06
1.1e-06
1.1e-06
1.1e-06
1.1e-06
1.1e-06
1.1e-06
1.1e-06
1.1e-06
1.1e-06
1.1e-06
1.1e-06
1.1e-06
1.1e-06
1.1e-06
1.1e-06
1.1e-06
1.1e-06
1.1e-06
1.1e-06
1.1e-06
1.1e-06
1.1e-06
1.1e-06
1.1e-06
1.1e-06
1.1e-06
1.1e-06
1.1e-06
1.1e-06
1.1e-06
1.1e-06
1.1e-06
1.1e-06
1.1e-06
1.1e-06
1.1e-06
1.1e-06
1.1e-06
1.1e-06
1.1e-06
1.1e-06
1.1e-06
0.851821
0.852211
0.852555
0.852849
0.853091
0.853278
0.853407
0.853478
0.85349
0.853443
0.853338
0.853176
0.852959
0.852688
0.852366
0.851996
0.851581
0.851122
0.850623
0.850087
0.849517
0.848914
0.848282
0.847623
0.846939
0.846232
0.845505
0.844758
0.843994
0.843213
0.842418
0.841609
0.840788
0.839954
0.839109
0.838254
0.837387
0.836511
0.835624
0.834726
0.833816
0.832894
0.831959
0.831008
0.83004
0.829052
0.828041
0.827002
0.82593
0.824818
0.823656
0.822432
0.821131
0.819728
0.81819
0.816468
0.814481
0.812095
0.809054
0.804819
0.797984
0.783306
0.707739
0.0795361
6.0933e-06
1.1e-06
1.1e-06
1.1e-06
1.1e-06
1.1e-06
1.1e-06
1.1e-06
1.1e-06
1.1e-06
1.1e-06
1.1e-06
1.1e-06
1.1e-06
1.1e-06
1.1e-06
1.1e-06
1.1e-06
1.1e-06
1.1e-06
1.1e-06
1.1e-06
1.1e-06
1.1e-06
1.1e-06
1.1e-06
1.1e-06
1.1e-06
1.1e-06
1.1e-06
1.1e-06
1.1e-06
1.1e-06
1.1e-06
1.1e-06
1.1e-06
1.1e-06
1.1e-06
1.1e-06
1.1e-06
1.1e-06
1.1e-06
1.1e-06
1.1e-06
1.1e-06
1.1e-06
1.1e-06
1.1e-06
1.1e-06
1.1e-06
1.1e-06
1.1e-06
1.1e-06
1.1e-06
1.1e-06
1.1e-06
1.1e-06
1.1e-06
1.1e-06
1.1e-06
1.1e-06
1.1e-06
1.1e-06
1.1e-06
1.1e-06
1.1e-06
1.1e-06
1.1e-06
1.1e-06
1.1e-06
1.1e-06
1.1e-06
1.1e-06
1.1e-06
1.1e-06
1.1e-06
1.1e-06
1.1e-06
1.1e-06
1.1e-06
1.1e-06
1.1e-06
1.1e-06
1.1e-06
1.1e-06
1.1e-06
1.1e-06
1.1e-06
1.1e-06
1.1e-06
1.1e-06
1.1e-06
1.1e-06
1.1e-06
1.1e-06
1.1e-06
1.1e-06
1.1e-06
1.1e-06
1.1e-06
1.1e-06
1.1e-06
1.1e-06
1.1e-06
1.1e-06
1.1e-06
1.1e-06
1.1e-06
1.1e-06
1.1e-06
1.1e-06
1.1e-06
1.1e-06
1.1e-06
1.1e-06
1.1e-06
0.854221
0.854662
0.855052
0.855387
0.855662
0.855875
0.856024
0.856106
0.856122
0.856071
0.855955
0.855775
0.855534
0.855233
0.854877
0.854467
0.854009
0.853504
0.852957
0.852371
0.851749
0.851094
0.850409
0.849697
0.84896
0.8482
0.84742
0.846621
0.845806
0.844976
0.844131
0.843274
0.842406
0.841526
0.840637
0.839737
0.838829
0.837911
0.836985
0.836049
0.835103
0.834147
0.833179
0.832198
0.831202
0.83019
0.829157
0.828101
0.827017
0.825898
0.824737
0.823523
0.822243
0.820877
0.819399
0.817769
0.815926
0.813771
0.81113
0.807657
0.802571
0.793576
0.76957
0.483064
0.00197893
1.1e-06
1.1e-06
1.1e-06
1.1e-06
1.1e-06
1.1e-06
1.1e-06
1.1e-06
1.1e-06
1.1e-06
1.1e-06
1.1e-06
1.1e-06
1.1e-06
1.1e-06
1.1e-06
1.1e-06
1.1e-06
1.1e-06
1.1e-06
1.1e-06
1.1e-06
1.1e-06
1.1e-06
1.1e-06
1.1e-06
1.1e-06
1.1e-06
1.1e-06
1.1e-06
1.1e-06
1.1e-06
1.1e-06
1.1e-06
1.1e-06
1.1e-06
1.1e-06
1.1e-06
1.1e-06
1.1e-06
1.1e-06
1.1e-06
1.1e-06
1.1e-06
1.1e-06
1.1e-06
1.1e-06
1.1e-06
1.1e-06
1.1e-06
1.1e-06
1.1e-06
1.1e-06
1.1e-06
1.1e-06
1.1e-06
1.1e-06
1.1e-06
1.1e-06
1.1e-06
1.1e-06
1.1e-06
1.1e-06
1.1e-06
1.1e-06
1.1e-06
1.1e-06
1.1e-06
1.1e-06
1.1e-06
1.1e-06
1.1e-06
1.1e-06
1.1e-06
1.1e-06
1.1e-06
1.1e-06
1.1e-06
1.1e-06
1.1e-06
1.1e-06
1.1e-06
1.1e-06
1.1e-06
1.1e-06
1.1e-06
1.1e-06
1.1e-06
1.1e-06
1.1e-06
1.1e-06
1.1e-06
1.1e-06
1.1e-06
1.1e-06
1.1e-06
1.1e-06
1.1e-06
1.1e-06
1.1e-06
1.1e-06
1.1e-06
1.1e-06
1.1e-06
1.1e-06
1.1e-06
1.1e-06
1.1e-06
1.1e-06
1.1e-06
1.1e-06
1.1e-06
1.1e-06
1.1e-06
1.1e-06
0.856519
0.857016
0.857457
0.857836
0.858149
0.858391
0.85856
0.858654
0.858673
0.858617
0.858488
0.858287
0.858018
0.857685
0.85729
0.856838
0.856334
0.85578
0.855183
0.854544
0.853869
0.85316
0.852421
0.851654
0.850864
0.850052
0.84922
0.84837
0.847505
0.846626
0.845734
0.844831
0.843917
0.842994
0.842062
0.841121
0.840173
0.839217
0.838253
0.837281
0.836301
0.835312
0.834314
0.833304
0.832283
0.831247
0.830194
0.829122
0.828025
0.826899
0.825737
0.824531
0.823268
0.821933
0.820504
0.818948
0.817219
0.81524
0.812886
0.809924
0.805872
0.799524
0.78669
0.734079
0.147615
2.67844e-05
1.1e-06
1.1e-06
1.1e-06
1.1e-06
1.1e-06
1.1e-06
1.1e-06
1.1e-06
1.1e-06
1.1e-06
1.1e-06
1.1e-06
1.1e-06
1.1e-06
1.1e-06
1.1e-06
1.1e-06
1.1e-06
1.1e-06
1.1e-06
1.1e-06
1.1e-06
1.1e-06
1.1e-06
1.1e-06
1.1e-06
1.1e-06
1.1e-06
1.1e-06
1.1e-06
1.1e-06
1.1e-06
1.1e-06
1.1e-06
1.1e-06
1.1e-06
1.1e-06
1.1e-06
1.1e-06
1.1e-06
1.1e-06
1.1e-06
1.1e-06
1.1e-06
1.1e-06
1.1e-06
1.1e-06
1.1e-06
1.1e-06
1.1e-06
1.1e-06
1.1e-06
1.1e-06
1.1e-06
1.1e-06
1.1e-06
1.1e-06
1.1e-06
1.1e-06
1.1e-06
1.1e-06
1.1e-06
1.1e-06
1.1e-06
1.1e-06
1.1e-06
1.1e-06
1.1e-06
1.1e-06
1.1e-06
1.1e-06
1.1e-06
1.1e-06
1.1e-06
1.1e-06
1.1e-06
1.1e-06
1.1e-06
1.1e-06
1.1e-06
1.1e-06
1.1e-06
1.1e-06
1.1e-06
1.1e-06
1.1e-06
1.1e-06
1.1e-06
1.1e-06
1.1e-06
1.1e-06
1.1e-06
1.1e-06
1.1e-06
1.1e-06
1.1e-06
1.1e-06
1.1e-06
1.1e-06
1.1e-06
1.1e-06
1.1e-06
1.1e-06
1.1e-06
1.1e-06
1.1e-06
1.1e-06
1.1e-06
1.1e-06
1.1e-06
1.1e-06
1.1e-06
1.1e-06
1.1e-06
0.858716
0.859276
0.859773
0.860202
0.860555
0.860829
0.861021
0.861127
0.861149
0.861086
0.860941
0.860716
0.860416
0.860045
0.859608
0.85911
0.858555
0.85795
0.857298
0.856605
0.855874
0.85511
0.854316
0.853496
0.852652
0.851788
0.850905
0.850006
0.849093
0.848167
0.84723
0.846282
0.845326
0.844361
0.843389
0.84241
0.841424
0.840432
0.839434
0.838429
0.837417
0.836398
0.835372
0.834336
0.83329
0.832232
0.83116
0.830072
0.828963
0.827829
0.826666
0.825464
0.824215
0.822905
0.821516
0.820021
0.818382
0.816542
0.814403
0.811802
0.80842
0.803547
0.795195
0.774603
0.57731
0.00806785
1.10054e-06
1.1e-06
1.1e-06
1.1e-06
1.1e-06
1.1e-06
1.1e-06
1.1e-06
1.1e-06
1.1e-06
1.1e-06
1.1e-06
1.1e-06
1.1e-06
1.1e-06
1.1e-06
1.1e-06
1.1e-06
1.1e-06
1.1e-06
1.1e-06
1.1e-06
1.1e-06
1.1e-06
1.1e-06
1.1e-06
1.1e-06
1.1e-06
1.1e-06
1.1e-06
1.1e-06
1.1e-06
1.1e-06
1.1e-06
1.1e-06
1.1e-06
1.1e-06
1.1e-06
1.1e-06
1.1e-06
1.1e-06
1.1e-06
1.1e-06
1.1e-06
1.1e-06
1.1e-06
1.1e-06
1.1e-06
1.1e-06
1.1e-06
1.1e-06
1.1e-06
1.1e-06
1.1e-06
1.1e-06
1.1e-06
1.1e-06
1.1e-06
1.1e-06
1.1e-06
1.1e-06
1.1e-06
1.1e-06
1.1e-06
1.1e-06
1.1e-06
1.1e-06
1.1e-06
1.1e-06
1.1e-06
1.1e-06
1.1e-06
1.1e-06
1.1e-06
1.1e-06
1.1e-06
1.1e-06
1.1e-06
1.1e-06
1.1e-06
1.1e-06
1.1e-06
1.1e-06
1.1e-06
1.1e-06
1.1e-06
1.1e-06
1.1e-06
1.1e-06
1.1e-06
1.1e-06
1.1e-06
1.1e-06
1.1e-06
1.1e-06
1.1e-06
1.1e-06
1.1e-06
1.1e-06
1.1e-06
1.1e-06
1.1e-06
1.1e-06
1.1e-06
1.1e-06
1.1e-06
1.1e-06
1.1e-06
1.1e-06
1.1e-06
1.1e-06
1.1e-06
1.1e-06
1.1e-06
0.860807
0.861438
0.862
0.862484
0.862883
0.863193
0.863409
0.863529
0.863552
0.86348
0.863315
0.863062
0.862727
0.862313
0.861829
0.861279
0.860671
0.860009
0.859301
0.85855
0.857763
0.856943
0.856094
0.855219
0.854323
0.853408
0.852476
0.851529
0.85057
0.849599
0.848619
0.84763
0.846634
0.845631
0.844622
0.843607
0.842587
0.841562
0.840532
0.839497
0.838457
0.83741
0.836358
0.835298
0.834229
0.833151
0.832061
0.830958
0.829837
0.828696
0.827529
0.82633
0.825091
0.823801
0.822444
0.820999
0.819434
0.817703
0.815733
0.813401
0.810482
0.806519
0.800395
0.788388
0.744463
0.202552
6.23438e-05
1.1e-06
1.1e-06
1.1e-06
1.1e-06
1.1e-06
1.1e-06
1.1e-06
1.1e-06
1.1e-06
1.1e-06
1.1e-06
1.1e-06
1.1e-06
1.1e-06
1.1e-06
1.1e-06
1.1e-06
1.1e-06
1.1e-06
1.1e-06
1.1e-06
1.1e-06
1.1e-06
1.1e-06
1.1e-06
1.1e-06
1.1e-06
1.1e-06
1.1e-06
1.1e-06
1.1e-06
1.1e-06
1.1e-06
1.1e-06
1.1e-06
1.1e-06
1.1e-06
1.1e-06
1.1e-06
1.1e-06
1.1e-06
1.1e-06
1.1e-06
1.1e-06
1.1e-06
1.1e-06
1.1e-06
1.1e-06
1.1e-06
1.1e-06
1.1e-06
1.1e-06
1.1e-06
1.1e-06
1.1e-06
1.1e-06
1.1e-06
1.1e-06
1.1e-06
1.1e-06
1.1e-06
1.1e-06
1.1e-06
1.1e-06
1.1e-06
1.1e-06
1.1e-06
1.1e-06
1.1e-06
1.1e-06
1.1e-06
1.1e-06
1.1e-06
1.1e-06
1.1e-06
1.1e-06
1.1e-06
1.1e-06
1.1e-06
1.1e-06
1.1e-06
1.1e-06
1.1e-06
1.1e-06
1.1e-06
1.1e-06
1.1e-06
1.1e-06
1.1e-06
1.1e-06
1.1e-06
1.1e-06
1.1e-06
1.1e-06
1.1e-06
1.1e-06
1.1e-06
1.1e-06
1.1e-06
1.1e-06
1.1e-06
1.1e-06
1.1e-06
1.1e-06
1.1e-06
1.1e-06
1.1e-06
1.1e-06
1.1e-06
1.1e-06
1.1e-06
1.1e-06
1.1e-06
0.862897
0.863616
0.864257
0.86481
0.865267
0.86562
0.865865
0.865999
0.866023
0.865937
0.865747
0.865458
0.865078
0.864613
0.864071
0.863461
0.862791
0.862066
0.861294
0.86048
0.859631
0.85875
0.857843
0.856912
0.855962
0.854994
0.854012
0.853017
0.852012
0.850997
0.849975
0.848946
0.847911
0.846871
0.845826
0.844777
0.843724
0.842668
0.841608
0.840544
0.839476
0.838404
0.837326
0.836244
0.835154
0.834056
0.83295
0.831831
0.830699
0.829549
0.828378
0.82718
0.825949
0.824675
0.823345
0.821942
0.820441
0.818804
0.816976
0.814864
0.812308
0.809002
0.804275