/*--------------------------------*- C++ -*----------------------------------*\
  =========                 |
  \\      /  F ield         | OpenFOAM: The Open Source CFD Toolbox
   \\    /   O peration     | Website:  https://openfoam.org
    \\  /    A nd           | Version:  10
     \\/     M anipulation  |
\*---------------------------------------------------------------------------*/
FoamFile
{
    format      ascii;
    class       volVectorField;
    location    "2.45";
    object      Ub;
}
// * * * * * * * * * * * * * * * * * * * * * * * * * * * * * * * * * * * * * //

dimensions      [0 1 -1 0 0 0 0];

internalField   nonuniform List<vector> 
12225
(
(0.00228824 -0.000462056 0)
(0.00653257 -0.000411552 0)
(0.0100323 -0.000338501 0)
(0.012737 -0.000265461 0)
(0.0147543 -0.000204172 0)
(0.0162456 -0.000158035 0)
(0.017367 -0.00012626 0)
(0.0182471 -0.000106731 0)
(0.0189859 -9.74587e-05 0)
(0.0196611 -9.72222e-05 0)
(0.0203372 -0.000105901 0)
(0.0210751 -0.000124905 0)
(0.021945 -0.000158151 0)
(0.0230463 -0.000214608 0)
(0.0245522 -0.000315748 0)
(0.0268374 -0.000522074 0)
(0.0309749 -0.00105891 0)
(0.0415549 -0.00316177 0)
(0.00242174 -0.00144804 0)
(0.00690542 -0.00128789 0)
(0.0105851 -0.00105706 0)
(0.0134117 -0.000826965 0)
(0.0155055 -0.000634405 0)
(0.0170424 -0.000489787 0)
(0.0181902 -0.00039039 0)
(0.0190856 -0.000329404 0)
(0.0198342 -0.000300487 0)
(0.0205172 -0.000299722 0)
(0.0212014 -0.000326625 0)
(0.0219491 -0.000385414 0)
(0.0228306 -0.000487885 0)
(0.0239426 -0.0006608 0)
(0.025445 -0.000966717 0)
(0.0276441 -0.0015726 0)
(0.0311621 -0.0030281 0)
(0.0365146 -0.00768887 0)
(0.0025256 -0.00255749 0)
(0.00718959 -0.0022692 0)
(0.0109927 -0.0018562 0)
(0.0138908 -0.0014467 0)
(0.0160199 -0.00110561 0)
(0.0175704 -0.000850469 0)
(0.01872 -0.000675683 0)
(0.0196116 -0.00056872 0)
(0.0203539 -0.00051806 0)
(0.0210297 -0.00051653 0)
(0.0217056 -0.000562929 0)
(0.0224425 -0.000664019 0)
(0.023306 -0.000839 0)
(0.0243812 -0.0011306 0)
(0.0257924 -0.00163427 0)
(0.0277258 -0.0025821 0)
(0.0303476 -0.00460466 0)
(0.032827 -0.00951014 0)
(0.0026324 -0.00379696 0)
(0.00747577 -0.003358 0)
(0.011389 -0.00273446 0)
(0.0143381 -0.002121 0)
(0.0164805 -0.00161343 0)
(0.0180247 -0.00123586 0)
(0.0191596 -0.000978357 0)
(0.0200336 -0.000821276 0)
(0.0207578 -0.000746904 0)
(0.0214147 -0.000744088 0)
(0.0220696 -0.000810319 0)
(0.0227795 -0.000954146 0)
(0.0236018 -0.00120055 0)
(0.0246028 -0.00160363 0)
(0.0258609 -0.00227677 0)
(0.0274401 -0.00346463 0)
(0.0292172 -0.00570155 0)
(0.0301705 -0.00999297 0)
(0.00275574 -0.00518455 0)
(0.00780007 -0.00456508 0)
(0.0118237 -0.00369523 0)
(0.0148096 -0.00284855 0)
(0.016946 -0.00215445 0)
(0.0184649 -0.00164198 0)
(0.0195684 -0.00129451 0)
(0.0204109 -0.0010834 0)
(0.0211045 -0.000983423 0)
(0.0217308 -0.000978482 0)
(0.022352 -0.00106389 0)
(0.023019 -0.0012487 0)
(0.0237785 -0.00156107 0)
(0.0246745 -0.00205996 0)
(0.0257388 -0.00285964 0)
(0.0269426 -0.00417464 0)
(0.0280364 -0.00637184 0)
(0.0281935 -0.00985652 0)
(0.00290694 -0.00674748 0)
(0.0081907 -0.00590637 0)
(0.0123318 -0.00474332 0)
(0.0153407 -0.00362747 0)
(0.0174496 -0.00272388 0)
(0.0189216 -0.0020633 0)
(0.019975 -0.00161882 0)
(0.0207699 -0.00135016 0)
(0.0214193 -0.00122285 0)
(0.0220023 -0.00121465 0)
(0.0225763 -0.00131751 0)
(0.0231849 -0.00153933 0)
(0.0238623 -0.00190806 0)
(0.0246302 -0.00248052 0)
(0.0254817 -0.00335724 0)
(0.0263333 -0.00469898 0)
(0.0269185 -0.00670974 0)
(0.0266701 -0.00945227 0)
(0.00309907 -0.0085242 0)
(0.00867857 -0.00740294 0)
(0.012948 -0.00588376 0)
(0.0159628 -0.00445374 0)
(0.0180175 -0.0033142 0)
(0.0194164 -0.00249176 0)
(0.0203972 -0.00194377 0)
(0.0211263 -0.00161476 0)
(0.021716 -0.00145879 0)
(0.0222416 -0.00144603 0)
(0.0227546 -0.00156367 0)
(0.0232901 -0.00181641 0)
(0.0238693 -0.00222861 0)
(0.0244946 -0.00284868 0)
(0.025133 -0.00375402 0)
(0.0256795 -0.00504646 0)
(0.0259061 -0.0068068 0)
(0.0254606 -0.00894369 0)
(0.00334981 -0.010569 0)
(0.00930354 -0.00908185 0)
(0.0137138 -0.00712029 0)
(0.0167096 -0.00531929 0)
(0.0186747 -0.00391358 0)
(0.0199675 -0.00291555 0)
(0.0208487 -0.00225887 0)
(0.0214905 -0.001868 0)
(0.022003 -0.00168291 0)
(0.0224563 -0.00166441 0)
(0.0228945 -0.00179342 0)
(0.0233435 -0.00206947 0)
(0.0238127 -0.00251021 0)
(0.0242898 -0.00315138 0)
(0.0247281 -0.00404377 0)
(0.0250249 -0.00523769 0)
(0.0250083 -0.00673644 0)
(0.024476 -0.00840299 0)
(0.0036851 -0.0129602 0)
(0.0101216 -0.0109771 0)
(0.0146827 -0.00845291 0)
(0.0176206 -0.0062091 0)
(0.0194474 -0.00450362 0)
(0.0205917 -0.00331768 0)
(0.0213404 -0.00254967 0)
(0.0218699 -0.00209774 0)
(0.022286 -0.00188454 0)
(0.0226512 -0.00185975 0)
(0.0230011 -0.00199653 0)
(0.0233524 -0.00228753 0)
(0.0237044 -0.00274154 0)
(0.0240355 -0.00337969 0)
(0.024295 -0.00422759 0)
(0.0243958 -0.00529725 0)
(0.0242193 -0.0065519 0)
(0.0236578 -0.00785987 0)
(0.00414532 -0.0158133 0)
(0.0112158 -0.0131302 0)
(0.0159277 -0.00987299 0)
(0.0187442 -0.00709653 0)
(0.0203641 -0.00505621 0)
(0.0213051 -0.00367404 0)
(0.0218812 -0.00279673 0)
(0.0222698 -0.00228825 0)
(0.0225684 -0.00205044 0)
(0.0228294 -0.00202016 0)
(0.0230787 -0.00216169 0)
(0.0233238 -0.00245966 0)
(0.0235559 -0.00291301 0)
(0.0237487 -0.00352855 0)
(0.0238547 -0.00431131 0)
(0.0238061 -0.00524883 0)
(0.0235271 -0.00628934 0)
(0.0229657 -0.0073248 0)
(0.00479661 -0.0193065 0)
(0.0127147 -0.0155881 0)
(0.0175502 -0.0113537 0)
(0.02014 -0.00793563 0)
(0.0214552 -0.00552887 0)
(0.0221216 -0.00395095 0)
(0.0224771 -0.00297436 0)
(0.0226923 -0.0024197 0)
(0.0228511 -0.00216463 0)
(0.0229924 -0.00213207 0)
(0.0231304 -0.00227688 0)
(0.0232637 -0.00257538 0)
(0.0233774 -0.00301696 0)
(0.0234434 -0.00359612 0)
(0.0234212 -0.00430317 0)
(0.0232613 -0.00511267 0)
(0.0229183 -0.00597223 0)
(0.022371 -0.00679985 0)
(0.00568235 -0.0233023 0)
(0.0146717 -0.0181498 0)
(0.0195417 -0.0127207 0)
(0.0217617 -0.00860643 0)
(0.0226671 -0.0058463 0)
(0.0229959 -0.00410178 0)
(0.0230953 -0.00305253 0)
(0.0231178 -0.00247106 0)
(0.0231265 -0.00221084 0)
(0.0231435 -0.00218181 0)
(0.0231707 -0.00233053 0)
(0.0231981 -0.00262626 0)
(0.0232063 -0.00305073 0)
(0.0231676 -0.00358966 0)
(0.0230479 -0.00422465 0)
(0.0228118 -0.00492542 0)
(0.0224319 -0.00564499 0)
(0.0219013 -0.00632246 0)
(0.00692832 -0.0284288 0)
(0.0172952 -0.0209852 0)
(0.0220172 -0.013954 0)
(0.0236468 -0.0090515 0)
(0.0239976 -0.00595781 0)
(0.0239076 -0.00408928 0)
(0.0237076 -0.00300512 0)
(0.0235142 -0.00242426 0)
(0.0233603 -0.00217664 0)
(0.023247 -0.00216109 0)
(0.023162 -0.00231769 0)
(0.0230865 -0.00261037 0)
(0.0229974 -0.00301539 0)
(0.0228678 -0.00351297 0)
(0.0226698 -0.00408055 0)
(0.0223782 -0.00468789 0)
(0.0219774 -0.00529558 0)
(0.0214677 -0.0058589 0)
(0.0091784 -0.0364413 0)
(0.0217315 -0.0244662 0)
(0.0257827 -0.0149683 0)
(0.0262784 -0.00911759 0)
(0.025737 -0.00573506 0)
(0.0250398 -0.00381915 0)
(0.0244346 -0.00276468 0)
(0.0239631 -0.00223091 0)
(0.023608 -0.0020269 0)
(0.0233389 -0.00204394 0)
(0.0231248 -0.00221848 0)
(0.0229365 -0.00251147 0)
(0.0227464 -0.00289605 0)
(0.0225285 -0.00334967 0)
(0.0222598 -0.00384891 0)
(0.0219233 -0.00436668 0)
(0.0215104 -0.00487235 0)
(0.0210244 -0.00533501 0)
(0.013778 -0.0504431 0)
(0.0299654 -0.0280127 0)
(0.0316863 -0.0148768 0)
(0.0299119 -0.0082049 0)
(0.0279273 -0.00481557 0)
(0.0263693 -0.0030698 0)
(0.0252382 -0.00218871 0)
(0.024427 -0.00179332 0)
(0.0238366 -0.00169 0)
(0.0233923 -0.00177445 0)
(0.0230388 -0.00198706 0)
(0.0227342 -0.00229098 0)
(0.0224457 -0.00266038 0)
(0.0221474 -0.00307375 0)
(0.0218195 -0.00351028 0)
(0.0214494 -0.00394841 0)
(0.0210324 -0.00436641 0)
(0.0205714 -0.00474444 0)
(0.0249417 -0.0794737 0)
(0.0472904 -0.0275019 0)
(0.0409068 -0.0110963 0)
(0.0345514 -0.00508168 0)
(0.0303679 -0.00259926 0)
(0.0277084 -0.00152195 0)
(0.0259745 -0.00108913 0)
(0.0247999 -0.000989505 0)
(0.0239693 -0.00107993 0)
(0.0233524 -0.00128773 0)
(0.0228661 -0.00157204 0)
(0.022455 -0.00190726 0)
(0.0220805 -0.00227488 0)
(0.0217155 -0.00265919 0)
(0.0213421 -0.00304541 0)
(0.0209497 -0.00341921 0)
(0.0205345 -0.00376728 0)
(0.0200981 -0.00407848 0)
(0.0591902 0.000550227 0)
(0.0904869 0.00302327 0)
(0.0528113 0.00255466 0)
(0.0387149 0.00199484 0)
(0.0321395 0.00151986 0)
(0.0285445 0.00109062 0)
(0.0263555 0.000680013 0)
(0.0249154 0.000276128 0)
(0.0239065 -0.000125759 0)
(0.0231567 -0.000526515 0)
(0.0225632 -0.000923578 0)
(0.0220627 -0.00131749 0)
(0.0216156 -0.00170402 0)
(0.0211961 -0.00207784 0)
(0.0207877 -0.00243293 0)
(0.020381 -0.00276309 0)
(0.0199719 -0.00306266 0)
(0.01956 -0.00332724 0)
(0.0204962 0.076156 0)
(0.0405043 0.0319893 0)
(0.0373408 0.0163653 0)
(0.0325358 0.00961304 0)
(0.0289456 0.00615776 0)
(0.0264944 0.0041256 0)
(0.0248149 0.00278538 0)
(0.0236288 0.00181495 0)
(0.0227561 0.00105825 0)
(0.0220833 0.000434503 0)
(0.0215395 -9.90099e-05 0)
(0.0210771 -0.000568508 0)
(0.0206625 -0.000987008 0)
(0.0202747 -0.00136494 0)
(0.019902 -0.00170566 0)
(0.0195378 -0.00201059 0)
(0.0191787 -0.00228041 0)
(0.018824 -0.00251569 0)
(0.00782237 0.0404084 0)
(0.0187313 0.027923 0)
(0.0226174 0.0185536 0)
(0.0233765 0.0125352 0)
(0.0230483 0.00868632 0)
(0.022437 0.00613706 0)
(0.0218185 0.0043688 0)
(0.0212689 0.0030831 0)
(0.0207955 0.00210644 0)
(0.0203848 0.00133556 0)
(0.0200202 0.000707483 0)
(0.0196878 0.000184524 0)
(0.0193779 -0.00025784 0)
(0.0190823 -0.00063673 0)
(0.0187941 -0.000964863 0)
(0.0185102 -0.00124994 0)
(0.0182296 -0.00149698 0)
(0.0179522 -0.00170987 0)
(0.00425156 0.0245373 0)
(0.0111743 0.020296 0)
(0.0152742 0.0156404 0)
(0.0174009 0.0117551 0)
(0.0184104 0.00877896 0)
(0.0188376 0.0065522 0)
(0.0189709 0.00488149 0)
(0.0189562 0.00360949 0)
(0.0188653 0.00262193 0)
(0.0187329 0.00183914 0)
(0.0185757 0.00120634 0)
(0.0184018 0.00068588 0)
(0.0182156 0.000251732 0)
(0.018021 -0.000112028 0)
(0.0178202 -0.000418799 0)
(0.0176137 -0.000680495 0)
(0.017403 -0.000904447 0)
(0.0171899 -0.00109596 0)
(0.00292545 0.0173105 0)
(0.00803458 0.0152311 0)
(0.0116679 0.0125327 0)
(0.0140275 0.00995909 0)
(0.0154935 0.0077764 0)
(0.0163838 0.00601459 0)
(0.0169137 0.00461807 0)
(0.0172176 0.00351345 0)
(0.0173765 0.00263423 0)
(0.0174393 0.00192716 0)
(0.0174358 0.00135179 0)
(0.0173848 0.000878117 0)
(0.0172989 0.000484085 0)
(0.0171868 0.000153484 0)
(0.0170558 -0.000123737 0)
(0.016911 -0.000357139 0)
(0.0167553 -0.000555977 0)
(0.016592 -0.000725515 0)
(0.00226883 0.0127732 0)
(0.00637727 0.0115792 0)
(0.00957774 0.00988329 0)
(0.0118973 0.00812931 0)
(0.0135154 0.00653925 0)
(0.0146224 0.00518646 0)
(0.0153708 0.0040701 0)
(0.0158698 0.00316032 0)
(0.0161941 0.00242064 0)
(0.0163939 0.00181724 0)
(0.0165034 0.00132188 0)
(0.016546 0.000912153 0)
(0.0165384 0.000570722 0)
(0.0164926 0.000284282 0)
(0.0164179 4.27774e-05 0)
(0.0163219 -0.000159551 0)
(0.0162101 -0.000330975 0)
(0.0160861 -0.000477019 0)
(0.00189807 0.00961112 0)
(0.00540544 0.00885623 0)
(0.00828081 0.00772609 0)
(0.0104995 0.00649642 0)
(0.0121511 0.00533146 0)
(0.0133553 0.00430376 0)
(0.0142217 0.00343088 0)
(0.0148374 0.00270356 0)
(0.0152677 0.00210235 0)
(0.0155602 0.00160604 0)
(0.0157491 0.00119527 0)
(0.0158596 0.00085374 0)
(0.0159101 0.000568257 0)
(0.0159145 0.000328369 0)
(0.0158833 0.000125853 0)
(0.0158254 -4.49976e-05 0)
(0.0157472 -0.00018859 0)
(0.0156535 -0.000310968 0)
(0.00166896 0.00725753 0)
(0.00479051 0.00675307 0)
(0.00742946 0.00597265 0)
(0.00954557 0.00509523 0)
(0.0111853 0.00423915 0)
(0.0124283 0.00346483 0)
(0.0133565 0.00279362 0)
(0.0140408 0.00222524 0)
(0.0145377 0.00174955 0)
(0.0148913 0.0013532 0)
(0.0151346 0.00102295 0)
(0.0152929 0.000747074 0)
(0.0153854 0.000515747 0)
(0.0154267 0.000320969 0)
(0.0154282 0.00015632 0)
(0.0153988 1.67136e-05 0)
(0.0153461 -0.00010046 0)
(0.0152757 -0.000200138 0)
(0.00151755 0.00542849 0)
(0.00437745 0.00508244 0)
(0.00684247 0.00453539 0)
(0.00886827 0.00390693 0)
(0.0104792 0.00328146 0)
(0.0117317 0.00270592 0)
(0.0126897 0.00219982 0)
(0.0134124 0.00176629 0)
(0.0139501 0.00140013 0)
(0.0143429 0.00109289 0)
(0.0146226 0.000835534 0)
(0.0148139 0.000619719 0)
(0.014936 0.000438243 0)
(0.0150039 0.000285127 0)
(0.0150294 0.000155497 0)
(0.0150216 4.54056e-05 0)
(0.0149882 -4.75005e-05 0)
(0.0149353 -0.000126155 0)
(0.00141145 0.00396544 0)
(0.0040844 0.00372775 0)
(0.00641727 0.0033464 0)
(0.00836549 0.00290195 0)
(0.00994145 0.00245364 0)
(0.0111875 0.00203623 0)
(0.012156 0.00166551 0)
(0.0128983 0.00134533 0)
(0.0134591 0.00107311 0)
(0.0138761 0.000843509 0)
(0.0141793 0.000650407 0)
(0.0143928 0.000487966 0)
(0.0145355 0.000351045 0)
(0.0146224 0.000235306 0)
(0.0146653 0.000137174 0)
(0.0146735 5.37346e-05 0)
(0.0146549 -1.70649e-05 0)
(0.0146154 -7.67328e-05 0)
(0.00133222 0.00277252 0)
(0.00386318 0.00261347 0)
(0.00609028 0.00235565 0)
(0.00796994 0.00205225 0)
(0.00950787 0.00174345 0)
(0.0107377 0.00145362 0)
(0.0117043 0.00119444 0)
(0.012453 0.000969298 0)
(0.013025 0.000776979 0)
(0.0134555 0.00061414 0)
(0.013773 0.000476764 0)
(0.0140008 0.000360913 0)
(0.0141575 0.000263066 0)
(0.0142577 0.000180219 0)
(0.0143133 0.000109876 0)
(0.0143335 4.99903e-05 0)
(0.0143261 -1.04877e-06 0)
(0.0142972 -4.39115e-05 0)
(0.00126767 0.00178833 0)
(0.00368106 0.00168892 0)
(0.00581614 0.00152658 0)
(0.00763077 0.00133431 0)
(0.00912689 0.00113745 0)
(0.0103327 0.000951692 0)
(0.0112876 0.000784795 0)
(0.0120331 0.000639234 0)
(0.0126072 0.000514473 0)
(0.0130431 0.000408536 0)
(0.0133681 0.000318951 0)
(0.0136044 0.00024325 0)
(0.0137702 0.000179203 0)
(0.0138798 0.000124894 0)
(0.0139447 7.87194e-05 0)
(0.0139741 3.93582e-05 0)
(0.0139756 5.72429e-06 0)
(0.0139551 -2.25067e-05 0)
(0.00120694 0.000972506 0)
(0.00350791 0.000919652 0)
(0.00555078 0.000832891 0)
(0.00729516 0.000729706 0)
(0.00874093 0.000623646 0)
(0.00991256 0.000523214 0)
(0.0108458 0.000432696 0)
(0.0115786 0.000353531 0)
(0.0121466 0.000285513 0)
(0.012581 0.000227633 0)
(0.0129076 0.000178595 0)
(0.0131479 0.000137088 0)
(0.0133191 0.000101917 0)
(0.013435 7.20522e-05 0)
(0.013507 4.6627e-05 0)
(0.0135438 2.49258e-05 0)
(0.0135528 6.35897e-06 0)
(0.0135399 -9.2315e-06 0)
(0.00112875 0.000301331 0)
(0.00328271 0.000285178 0)
(0.00519984 0.000258579 0)
(0.0068423 0.000226871 0)
(0.00820891 0.000194211 0)
(0.00932118 0.000163223 0)
(0.0102112 0.000135243 0)
(0.0109138 0.000110733 0)
(0.0114615 8.96427e-05 0)
(0.011883 7.16714e-05 0)
(0.0122026 5.64262e-05 0)
(0.01244 4.3507e-05 0)
(0.0126115 3.25481e-05 0)
(0.0127302 2.32327e-05 0)
(0.0128066 1.5294e-05 0)
(0.0128491 8.51134e-06 0)
(0.0128645 2.70266e-06 0)
(0.0128588 -2.16778e-06 0)
(7.80617e-05 -0.00018347 -2.37037e-30)
(0.000234847 -0.000183243 2.36559e-30)
(0.000392666 -0.000182856 0)
(0.00055138 -0.000182302 0)
(0.000710841 -0.00018158 0)
(0.000870895 -0.000180686 -2.32503e-30)
(0.00103138 -0.000179619 0)
(0.00119214 -0.000178378 0)
(0.00135301 -0.000176967 0)
(0.00151383 -0.000175386 0)
(0.00167442 -0.000173643 2.22451e-30)
(0.00183463 -0.000171744 0)
(0.00199432 -0.000169699 0)
(0.00215334 -0.000167521 0)
(0.00231156 -0.000165227 0)
(0.00246888 -0.000162836 2.07546e-30)
(0.00262522 -0.000160374 0)
(0.00278052 -0.00015787 0)
(0.00293477 -0.00015536 0)
(0.00308801 -0.000152883 0)
(0.00324032 -0.000150482 0)
(0.00339185 -0.0001482 0)
(0.00354279 -0.00014608 0)
(0.00369342 -0.00014416 1.81962e-30)
(0.00384404 -0.000142473 -1.79604e-30)
(0.00399504 -0.000141046 1.77581e-30)
(0.00414682 -0.0001399 1.75921e-30)
(0.00429986 -0.000139051 0)
(0.00445466 -0.000138511 0)
(0.00461176 -0.000138291 -1.73293e-30)
(0.00477173 -0.000138401 -1.73246e-30)
(0.0049352 -0.000138849 0)
(0.00510277 -0.000139642 0)
(0.00527509 -0.000140783 -1.7573e-30)
(0.00545276 -0.000142267 0)
(0.00563631 -0.000144076 0)
(0.00582616 -0.000146178 1.82053e-30)
(0.00602256 -0.000148525 0)
(0.00622556 -0.000151061 1.87893e-30)
(0.00643498 -0.000153733 3.82198e-30)
(0.00665047 -0.000156512 0)
(0.00687159 -0.000159415 0)
(0.00709798 -0.000162523 0)
(0.00732951 -0.000165997 0)
(0.00756641 -0.000170085 0)
(0.00780947 -0.00017512 4.34236e-30)
(0.00806014 -0.00018153 4.50213e-30)
(0.00832061 -0.000189855 4.7112e-30)
(0.00859402 -0.0002008 0)
(0.00888458 -0.000215321 -5.35615e-30)
(0.00919803 -0.000234807 0)
(0.00954211 -0.0002614 6.53174e-30)
(0.00992754 -0.000298605 7.48438e-30)
(0.0103689 -0.000352439 0)
(0.0108837 -0.00043345 0)
(0.0114693 -0.000558833 0)
(0.0117466 -0.000735556 1.87363e-29)
(0.00589492 -0.000315259 0)
(3.4802e-05 -1.5893e-08 0)
(6.53273e-17 -2.9833e-20 0)
(8.69771e-32 2.49278e-33 0)
(8.34817e-32 1.7056e-33 0)
(8.09064e-32 1.274e-33 0)
(7.88545e-32 1.01194e-33 0)
(7.71311e-32 8.37557e-34 0)
(7.56327e-32 7.12295e-34 2.0198e-59)
(7.42997e-32 6.16669e-34 0)
(7.30953e-32 5.40177e-34 0)
(7.19955e-32 4.76792e-34 -1.40245e-59)
(7.09833e-32 4.22857e-34 -1.26065e-59)
(7.00466e-32 3.76034e-34 0)
(6.91761e-32 3.34756e-34 1.02864e-59)
(6.83644e-32 2.97933e-34 -9.31543e-60)
(6.76057e-32 2.64777e-34 0)
(6.68951e-32 2.34703e-34 7.64627e-60)
(6.62285e-32 2.0726e-34 0)
(6.56024e-32 1.82098e-34 0)
(6.50138e-32 1.58935e-34 -5.64328e-60)
(6.44599e-32 1.37541e-34 0)
(6.39384e-32 1.17727e-34 4.55272e-60)
(6.34471e-32 9.93337e-35 0)
(6.29842e-32 8.22243e-35 -3.61247e-60)
(6.25478e-32 6.62828e-35 -3.19008e-60)
(6.21364e-32 5.14084e-35 -2.79587e-60)
(6.17486e-32 3.75131e-35 -4.85504e-60)
(6.13829e-32 2.45193e-35 4.16604e-60)
(6.10381e-32 1.23586e-35 0)
(6.07131e-32 9.69977e-37 0)
(6.04067e-32 -9.70117e-36 0)
(6.0118e-32 -1.97041e-35 1.82e-60)
(5.9846e-32 -2.90833e-35 1.32227e-60)
(5.95898e-32 -3.78795e-35 -8.55414e-61)
(5.93486e-32 -4.61296e-35 0)
(5.91215e-32 -5.38678e-35 6.71505e-63)
(5.89078e-32 -6.11255e-35 -3.78561e-61)
(5.87068e-32 -6.79318e-35 -7.39927e-61)
(5.85178e-32 -7.43136e-35 0)
(5.83402e-32 -8.02962e-35 0)
(5.81733e-32 -8.59031e-35 0)
(5.80167e-32 -9.11564e-35 -1.9732e-60)
(5.78696e-32 -9.60766e-35 0)
(5.77316e-32 -1.00683e-34 0)
(5.76023e-32 -1.04995e-34 2.70822e-60)
(5.7481e-32 -1.09028e-34 0)
(5.73675e-32 -1.128e-34 0)
(5.72611e-32 -1.16325e-34 3.31009e-60)
(5.71616e-32 -1.19619e-34 0)
(5.70686e-32 -1.22695e-34 0)
(5.69816e-32 -1.25565e-34 -3.80097e-60)
(5.69003e-32 -1.28243e-34 -3.94325e-60)
(5.68244e-32 -1.30739e-34 0)
(5.67536e-32 -1.33066e-34 4.19951e-60)
(5.66876e-32 -1.35233e-34 0)
(5.6626e-32 -1.3725e-34 -4.42183e-60)
(5.65687e-32 -1.39126e-34 0)
(5.65153e-32 -1.4087e-34 -4.61424e-60)
(5.64656e-32 -1.42491e-34 -4.70041e-60)
(5.64194e-32 -1.43997e-34 0)
(5.63765e-32 -1.45394e-34 0)
(5.63366e-32 -1.4669e-34 0)
(5.62996e-32 -1.47891e-34 0)
(5.62652e-32 -1.49004e-34 0)
(5.62334e-32 -1.50034e-34 0)
(5.62039e-32 -1.50987e-34 0)
(5.61766e-32 -1.51868e-34 -5.1988e-60)
(5.61513e-32 -1.52682e-34 5.24212e-60)
(5.6128e-32 -1.53434e-34 0)
(5.61064e-32 -1.54128e-34 0)
(5.60864e-32 -1.54768e-34 0)
(5.6068e-32 -1.55357e-34 0)
(5.60511e-32 -1.559e-34 1.08264e-59)
(5.60354e-32 -1.564e-34 0)
(5.6021e-32 -1.56859e-34 -1.09283e-59)
(5.60078e-32 -1.5728e-34 1.09732e-59)
(5.59956e-32 -1.57668e-34 0)
(5.59844e-32 -1.58023e-34 0)
(5.59741e-32 -1.58348e-34 0)
(5.59646e-32 -1.58646e-34 -1.11184e-59)
(5.59559e-32 -1.58918e-34 -1.11474e-59)
(5.5948e-32 -1.59166e-34 0)
(5.59407e-32 -1.59393e-34 -1.1198e-59)
(5.5934e-32 -1.59599e-34 -1.12199e-59)
(5.59278e-32 -1.59786e-34 1.12398e-59)
(5.59222e-32 -1.59956e-34 0)
(5.5917e-32 -1.60109e-34 0)
(5.59123e-32 -1.60246e-34 1.12888e-59)
(5.59079e-32 -1.60368e-34 0)
(5.59039e-32 -1.60477e-34 0)
(5.59002e-32 -1.60571e-34 0)
(5.58967e-32 -1.60653e-34 0)
(5.58935e-32 -1.6072e-34 -1.13397e-59)
(5.58904e-32 -1.60774e-34 -1.13456e-59)
(5.58875e-32 -1.60814e-34 0)
(5.58846e-32 -1.60839e-34 -1.13528e-59)
(5.58818e-32 -1.60847e-34 0)
(5.5879e-32 -1.60835e-34 0)
(5.5876e-32 -1.60802e-34 -1.13498e-59)
(5.58729e-32 -1.60743e-34 0)
(5.58694e-32 -1.60653e-34 -1.1335e-59)
(5.58655e-32 -1.60526e-34 0)
(5.5861e-32 -1.60352e-34 0)
(5.58558e-32 -1.6012e-34 -1.12811e-59)
(5.58494e-32 -1.59814e-34 0)
(5.58416e-32 -1.59416e-34 -1.12097e-59)
(5.5832e-32 -1.58898e-34 0)
(5.582e-32 -1.58225e-34 0)
(5.58048e-32 -1.57352e-34 0)
(5.57854e-32 -1.56215e-34 1.0884e-59)
(5.57607e-32 -1.54726e-34 0)
(5.57286e-32 -1.52764e-34 -1.05326e-59)
(5.56869e-32 -1.50155e-34 0)
(5.56321e-32 -1.46641e-34 0)
(5.55595e-32 -1.41831e-34 0)
(5.54617e-32 -1.35096e-34 0)
(5.5328e-32 -1.25361e-34 0)
(5.51404e-32 -1.10636e-34 0)
(5.48672e-32 -8.67577e-35 0)
(5.44438e-32 -4.34026e-35 -1.30759e-60)
(5.37079e-32 5.2527e-35 0)
(5.20771e-32 3.53334e-34 0)
(9.78814e-05 -0.000581742 7.51535e-30)
(0.000294488 -0.000581112 -7.50025e-30)
(0.00049244 -0.000579973 0)
(0.000691575 -0.000578315 1.49164e-29)
(0.000891729 -0.00057613 0)
(0.00109273 -0.000573418 -7.39835e-30)
(0.00129443 -0.000570187 -1.46778e-29)
(0.00149668 -0.000566451 -1.45717e-29)
(0.00169935 -0.000562229 0)
(0.00190234 -0.000557548 -1.43224e-29)
(0.00210558 -0.000552435 7.11519e-30)
(0.00230899 -0.000546922 0)
(0.00251254 -0.000541045 0)
(0.00271619 -0.000534845 0)
(0.00291993 -0.000528363 0)
(0.00312373 -0.000521647 6.70525e-30)
(0.00332758 -0.000514749 0)
(0.00353143 -0.000507724 1.29576e-29)
(0.00373522 -0.000500631 0)
(0.00393884 -0.000493532 0)
(0.00414214 -0.000486492 -1.23799e-29)
(0.0043449 -0.000479576 0)
(0.00454688 -0.000472846 1.20081e-29)
(0.00474778 -0.000466363 5.97156e-30)
(0.00494726 -0.000460187 -5.88937e-30)
(0.005145 -0.000454372 5.81189e-30)
(0.00534065 -0.000448974 5.73981e-30)
(0.00553392 -0.000444047 0)
(0.00572454 -0.000439649 0)
(0.0059123 -0.000435837 -5.56327e-30)
(0.00609706 -0.000432675 -1.64167e-29)
(0.00627875 -0.000430224 0)
(0.00645734 -0.000428545 0)
(0.0066329 -0.00042769 -5.44947e-30)
(0.00680557 -0.000427701 0)
(0.00697555 -0.000428599 0)
(0.00714315 -0.000430387 5.4783e-30)
(0.00730877 -0.000433053 0)
(0.00747293 -0.000436581 1.64869e-29)
(0.00763632 -0.000440978 1.12187e-29)
(0.00779976 -0.000446304 0)
(0.00796428 -0.000452713 0)
(0.00813107 -0.000460484 -2.30386e-29)
(0.00830148 -0.000470057 -2.35173e-29)
(0.00847707 -0.000482047 -2.41207e-29)
(0.00865957 -0.000497271 3.75402e-29)
(0.00885096 -0.000516775 1.31494e-29)
(0.00905351 -0.000541905 -1.33666e-29)
(0.0092699 -0.000574428 2.88218e-29)
(0.00950328 -0.000616753 -1.57183e-29)
(0.00975743 -0.000672323 0)
(0.0100368 -0.000746304 1.90545e-29)
(0.0103462 -0.000846851 6.44503e-29)
(0.0106903 -0.000987485 0)
(0.0110696 -0.00119153 0)
(0.0114654 -0.0014987 0)
(0.0117152 -0.00194798 5.00775e-29)
(0.00654625 -0.00162302 0)
(0.000661321 -9.09594e-07 -1.54283e-32)
(8.67289e-11 -1.1882e-13 0)
(8.3939e-32 6.43389e-33 -3.40551e-58)
(8.19124e-32 4.8436e-33 0)
(8.00218e-32 3.86518e-33 2.07382e-58)
(7.83033e-32 3.21625e-33 0)
(7.67563e-32 2.75704e-33 -1.49784e-58)
(7.53591e-32 2.41316e-33 1.96032e-58)
(7.40885e-32 2.14332e-33 0)
(7.29253e-32 1.92352e-33 1.06331e-58)
(7.18542e-32 1.73921e-33 -4.66538e-59)
(7.08631e-32 1.58111e-33 -4.25437e-59)
(6.99425e-32 1.4431e-33 0)
(6.90846e-32 1.32098e-33 1.10595e-58)
(6.82832e-32 1.21174e-33 -3.29349e-59)
(6.75329e-32 1.11319e-33 0)
(6.68295e-32 1.02366e-33 2.80388e-59)
(6.61691e-32 9.41874e-34 5.49425e-59)
(6.55483e-32 8.6682e-34 0)
(6.49643e-32 7.97683e-34 -2.21534e-59)
(6.44145e-32 7.33792e-34 0)
(6.38967e-32 6.74594e-34 -2.19635e-59)
(6.34087e-32 6.19617e-34 0)
(6.29487e-32 5.68464e-34 1.91529e-59)
(6.25151e-32 5.2079e-34 -1.4938e-59)
(6.21061e-32 4.76297e-34 -4.42674e-59)
(6.17205e-32 4.34725e-34 -8.1996e-59)
(6.13568e-32 3.95844e-34 7.58799e-59)
(6.10139e-32 3.59451e-34 0)
(6.06906e-32 3.25363e-34 0)
(6.03859e-32 2.9342e-34 0)
(6.00986e-32 2.63474e-34 -2.21346e-59)
(5.9828e-32 2.35393e-34 1.49945e-59)
(5.9573e-32 2.09056e-34 -1.36209e-59)
(5.9333e-32 1.84352e-34 0)
(5.9107e-32 1.6118e-34 3.89531e-59)
(5.88943e-32 1.39446e-34 9.9901e-60)
(5.86943e-32 1.19063e-34 8.92686e-60)
(5.85062e-32 9.99498e-35 0)
(5.83294e-32 8.20319e-35 0)
(5.81633e-32 6.52388e-35 0)
(5.80073e-32 4.95046e-35 5.29836e-60)
(5.78609e-32 3.47675e-35 0)
(5.77236e-32 2.09692e-35 1.30706e-59)
(5.75948e-32 8.05509e-36 8.57506e-60)
(5.74741e-32 -4.02655e-36 -1.04391e-59)
(5.73611e-32 -1.53244e-35 0)
(5.72552e-32 -2.58846e-35 -9.50292e-60)
(5.71561e-32 -3.57506e-35 0)
(5.70635e-32 -4.49635e-35 -6.12872e-60)
(5.69769e-32 -5.35622e-35 5.14451e-60)
(5.6896e-32 -6.15835e-35 3.88138e-60)
(5.68204e-32 -6.90623e-35 0)
(5.67499e-32 -7.60315e-35 4.1082e-60)
(5.66842e-32 -8.25223e-35 -2.17355e-60)
(5.66229e-32 -8.85641e-35 -1.905e-60)
(5.65658e-32 -9.41847e-35 0)
(5.65126e-32 -9.94106e-35 -2.47095e-60)
(5.64631e-32 -1.04267e-34 -2.60791e-60)
(5.64171e-32 -1.08776e-34 0)
(5.63744e-32 -1.12961e-34 1.03228e-60)
(5.63347e-32 -1.16843e-34 1.44115e-60)
(5.62978e-32 -1.20442e-34 1.82019e-60)
(5.62636e-32 -1.23776e-34 0)
(5.62319e-32 -1.26862e-34 0)
(5.62025e-32 -1.29717e-34 0)
(5.61754e-32 -1.32357e-34 -7.26552e-60)
(5.61502e-32 -1.34797e-34 4.31751e-60)
(5.61269e-32 -1.37049e-34 0)
(5.61054e-32 -1.39128e-34 -3.7886e-60)
(5.60856e-32 -1.41044e-34 -3.99051e-60)
(5.60673e-32 -1.4281e-34 0)
(5.60504e-32 -1.44437e-34 9.64117e-60)
(5.60348e-32 -1.45933e-34 -9.01108e-60)
(5.60204e-32 -1.47308e-34 -9.94092e-60)
(5.60072e-32 -1.48572e-34 1.96402e-59)
(5.59951e-32 -1.49732e-34 0)
(5.59839e-32 -1.50796e-34 0)
(5.59737e-32 -1.5177e-34 0)
(5.59642e-32 -1.52662e-34 -1.04998e-59)
(5.59556e-32 -1.53478e-34 -2.11863e-59)
(5.59477e-32 -1.54223e-34 -1.07583e-59)
(5.59404e-32 -1.54901e-34 -1.07336e-59)
(5.59337e-32 -1.55519e-34 -2.18297e-59)
(5.59276e-32 -1.5608e-34 1.08566e-59)
(5.5922e-32 -1.56587e-34 0)
(5.59169e-32 -1.57045e-34 0)
(5.59121e-32 -1.57457e-34 2.24409e-59)
(5.59078e-32 -1.57824e-34 0)
(5.59038e-32 -1.58148e-34 0)
(5.59001e-32 -1.58432e-34 -1.16468e-59)
(5.58966e-32 -1.58676e-34 0)
(5.58934e-32 -1.58879e-34 -2.28911e-59)
(5.58904e-32 -1.59042e-34 -1.11664e-59)
(5.58874e-32 -1.59161e-34 0)
(5.58846e-32 -1.59235e-34 -2.30057e-59)
(5.58818e-32 -1.59259e-34 0)
(5.5879e-32 -1.59226e-34 0)
(5.58761e-32 -1.59128e-34 -1.11766e-59)
(5.58729e-32 -1.58952e-34 -1.17646e-59)
(5.58695e-32 -1.58684e-34 -1.11314e-59)
(5.58657e-32 -1.58304e-34 0)
(5.58613e-32 -1.57785e-34 0)
(5.5856e-32 -1.57092e-34 -2.23544e-59)
(5.58498e-32 -1.56181e-34 0)
(5.58421e-32 -1.54992e-34 -2.17094e-59)
(5.58326e-32 -1.53446e-34 0)
(5.58208e-32 -1.51441e-34 0)
(5.58058e-32 -1.48837e-34 0)
(5.57868e-32 -1.45444e-34 9.77025e-60)
(5.57624e-32 -1.41006e-34 0)
(5.57309e-32 -1.3516e-34 -8.71211e-60)
(5.56899e-32 -1.27389e-34 0)
(5.56362e-32 -1.16934e-34 0)
(5.5565e-32 -1.0264e-34 -2.3582e-61)
(5.54696e-32 -8.26619e-35 -3.85947e-60)
(5.53395e-32 -5.38787e-35 0)
(5.51584e-32 -1.05691e-35 0)
(5.48981e-32 5.89427e-35 0)
(5.45072e-32 1.82289e-34 6.85813e-59)
(5.38861e-32 4.39606e-34 0)
(5.29064e-32 1.13282e-33 -5.08492e-58)
(0.000104296 -0.00102379 5.29162e-29)
(0.000313801 -0.00102278 -7.46355e-33)
(0.000524751 -0.00102085 0)
(0.000736943 -0.00101799 1.74534e-32)
(0.000950167 -0.00101418 0)
(0.00116422 -0.00100944 0)
(0.00137888 -0.00100379 -5.17316e-29)
(0.00159398 -0.000997272 -2.57036e-29)
(0.00180933 -0.000989944 2.54612e-29)
(0.00202477 -0.000981862 -2.52849e-29)
(0.00224016 -0.000973089 0)
(0.00245539 -0.00096369 0)
(0.00267035 -0.000953731 -2.44641e-29)
(0.00288494 -0.000943279 -4.83575e-29)
(0.00309909 -0.000932398 4.77647e-29)
(0.00331271 -0.000921149 0)
(0.00352572 -0.000909585 4.65249e-29)
(0.00373802 -0.000897755 2.30299e-29)
(0.00394949 -0.000885695 0)
(0.00415995 -0.000873438 4.45662e-29)
(0.00436922 -0.000861009 -2.20502e-29)
(0.00457702 -0.000848432 -4.32144e-29)
(0.00478307 -0.00083574 2.13775e-29)
(0.00498701 -0.000822974 0)
(0.00518851 -0.000810194 4.11509e-29)
(0.00538721 -0.000797478 4.04654e-29)
(0.0055828 -0.000784927 0)
(0.00577501 -0.000772662 3.91275e-29)
(0.00596362 -0.00076082 0)
(0.0061485 -0.000749551 3.78798e-29)
(0.00632959 -0.000739015 -1.88042e-29)
(0.00650692 -0.000729369 0)
(0.00668058 -0.000720773 0)
(0.00685076 -0.000713374 0)
(0.0070177 -0.000707315 0)
(0.00718175 -0.000702726 0)
(0.00734331 -0.000699737 0)
(0.00750289 -0.000698479 3.50475e-29)
(0.0076611 -0.000699102 -1.73478e-29)
(0.00781864 -0.000701796 0)
(0.00797634 -0.000706815 0)
(0.00813513 -0.000714503 0)
(0.00829608 -0.000725331 -7.30386e-29)
(0.00846034 -0.00073992 -3.74539e-29)
(0.00862918 -0.000759082 -4.07541e-31)
(0.00880399 -0.000783857 4.15794e-31)
(0.00898625 -0.000815574 -4.08911e-29)
(0.00917756 -0.000855943 -4.33845e-29)
(0.0093796 -0.000907195 9.15871e-29)
(0.00959408 -0.000972302 4.89076e-29)
(0.0098225 -0.00105531 0)
(0.0100656 -0.00116185 5.86399e-29)
(0.0103221 -0.00129979 1.31957e-28)
(0.0105847 -0.0014801 0)
(0.0108306 -0.00171714 0)
(0.0109912 -0.00202489 -1.03127e-28)
(0.0108433 -0.00238669 0)
(0.00888635 -0.0023298 0)
(0.00356304 -2.39509e-05 2.36876e-30)
(7.27318e-07 -1.66072e-09 -3.43424e-35)
(5.4856e-25 -1.25254e-27 1.29507e-53)
(8.01883e-32 6.96613e-33 0)
(7.88325e-32 5.90991e-33 3.12979e-58)
(7.74557e-32 5.11044e-33 0)
(7.6127e-32 4.49054e-33 -7.25221e-58)
(7.48727e-32 3.99621e-33 2.13669e-58)
(7.3699e-32 3.59132e-33 3.92212e-58)
(7.26042e-32 3.25181e-33 5.31768e-58)
(7.15832e-32 2.96141e-33 0)
(7.06301e-32 2.70891e-33 -3.00104e-58)
(6.97391e-32 2.48641e-33 0)
(6.8905e-32 2.28817e-33 -1.31309e-58)
(6.81231e-32 2.10996e-33 -2.37464e-58)
(6.73892e-32 1.9486e-33 -2.20572e-58)
(6.66997e-32 1.80161e-33 2.05179e-58)
(6.60512e-32 1.66706e-33 -9.86596e-59)
(6.54408e-32 1.54337e-33 0)
(6.4866e-32 1.42929e-33 0)
(6.43244e-32 1.32375e-33 1.55096e-58)
(6.38138e-32 1.22588e-33 7.54289e-59)
(6.33323e-32 1.13493e-33 0)
(6.28782e-32 1.05025e-33 6.02344e-59)
(6.24498e-32 9.71286e-34 0)
(6.20457e-32 8.97562e-34 5.81214e-59)
(6.16645e-32 8.28652e-34 -2.00478e-58)
(6.13049e-32 7.64181e-34 1.86976e-58)
(6.09657e-32 7.03818e-34 -9.0045e-59)
(6.06459e-32 6.47266e-34 0)
(6.03443e-32 5.9426e-34 7.85411e-59)
(6.006e-32 5.44559e-34 -1.40971e-58)
(5.9792e-32 4.97946e-34 0)
(5.95396e-32 4.54221e-34 0)
(5.93019e-32 4.13202e-34 0)
(5.90781e-32 3.74723e-34 4.99037e-59)
(5.88674e-32 3.38628e-34 0)
(5.86693e-32 3.04774e-34 0)
(5.8483e-32 2.73027e-34 0)
(5.83078e-32 2.43264e-34 0)
(5.81433e-32 2.15367e-34 0)
(5.79887e-32 1.89228e-34 -3.59945e-59)
(5.78437e-32 1.64745e-34 0)