/*--------------------------------*- C++ -*----------------------------------*\
  =========                 |
  \\      /  F ield         | OpenFOAM: The Open Source CFD Toolbox
   \\    /   O peration     | Website:  https://openfoam.org
    \\  /    A nd           | Version:  10
     \\/     M anipulation  |
\*---------------------------------------------------------------------------*/
FoamFile
{
    format      ascii;
    class       volVectorField;
    location    "5900";
    object      Ub;
}
// * * * * * * * * * * * * * * * * * * * * * * * * * * * * * * * * * * * * * //

dimensions      [0 1 -1 0 0 0 0];

internalField   nonuniform List<vector> 
6400
(
(-3.01085e-21 -9.87899e-16 0)
(-9.0346e-21 -9.87899e-16 0)
(-1.50644e-20 -9.87899e-16 0)
(-2.1104e-20 -9.87899e-16 0)
(-2.71564e-20 -9.87899e-16 0)
(-3.32241e-20 -9.87899e-16 0)
(-3.93084e-20 -9.87899e-16 0)
(-4.54092e-20 -9.87899e-16 0)
(-5.15244e-20 -9.87899e-16 0)
(-5.765e-20 -9.87899e-16 0)
(-6.37786e-20 -9.87899e-16 0)
(-6.98995e-20 -9.87899e-16 0)
(-7.59973e-20 -9.87899e-16 0)
(-8.20508e-20 -9.87899e-16 0)
(-8.80323e-20 -9.87899e-16 0)
(-9.39049e-20 -9.87899e-16 0)
(-9.96218e-20 -9.87899e-16 0)
(-1.05123e-19 -9.87899e-16 0)
(-1.10334e-19 -9.87899e-16 0)
(-1.15162e-19 -9.87899e-16 0)
(-1.19492e-19 -9.87899e-16 0)
(-1.23187e-19 -9.87899e-16 0)
(-1.2608e-19 -9.87899e-16 0)
(-1.2798e-19 -9.87899e-16 0)
(-1.28663e-19 -9.87899e-16 0)
(-1.27881e-19 -9.87899e-16 0)
(-1.25368e-19 -9.879e-16 0)
(-1.20852e-19 -9.879e-16 0)
(-1.14076e-19 -9.879e-16 0)
(-1.04832e-19 -9.879e-16 0)
(-9.2992e-20 -9.87901e-16 0)
(-7.85558e-20 -9.87901e-16 0)
(-6.68355e-20 -9.87901e-16 0)
(-5.8901e-20 -9.87901e-16 0)
(-5.05679e-20 -9.87901e-16 0)
(-4.18825e-20 -9.87901e-16 0)
(-3.28982e-20 -9.87901e-16 0)
(-2.36744e-20 -9.87901e-16 0)
(-1.42757e-20 -9.87901e-16 0)
(-4.77051e-21 -9.87901e-16 0)
(4.77051e-21 -9.87901e-16 0)
(1.42757e-20 -9.87901e-16 0)
(2.36744e-20 -9.87901e-16 0)
(3.28982e-20 -9.87901e-16 0)
(4.18825e-20 -9.87901e-16 0)
(5.05679e-20 -9.87901e-16 0)
(5.8901e-20 -9.87901e-16 0)
(6.68355e-20 -9.87901e-16 0)
(7.85558e-20 -9.87901e-16 0)
(9.2992e-20 -9.87901e-16 0)
(1.04832e-19 -9.879e-16 0)
(1.14076e-19 -9.879e-16 0)
(1.20852e-19 -9.879e-16 0)
(1.25368e-19 -9.879e-16 0)
(1.27881e-19 -9.87899e-16 0)
(1.28663e-19 -9.87899e-16 0)
(1.2798e-19 -9.87899e-16 0)
(1.2608e-19 -9.87899e-16 0)
(1.23187e-19 -9.87899e-16 0)
(1.19492e-19 -9.87899e-16 0)
(1.15162e-19 -9.87899e-16 0)
(1.10334e-19 -9.87899e-16 0)
(1.05123e-19 -9.87899e-16 0)
(9.96218e-20 -9.87899e-16 0)
(9.39049e-20 -9.87899e-16 0)
(8.80323e-20 -9.87899e-16 0)
(8.20508e-20 -9.87899e-16 0)
(7.59973e-20 -9.87899e-16 0)
(6.98995e-20 -9.87899e-16 0)
(6.37786e-20 -9.87899e-16 0)
(5.765e-20 -9.87899e-16 0)
(5.15244e-20 -9.87899e-16 0)
(4.54092e-20 -9.87899e-16 0)
(3.93084e-20 -9.87899e-16 0)
(3.32241e-20 -9.87899e-16 0)
(2.71564e-20 -9.87899e-16 0)
(2.1104e-20 -9.87899e-16 0)
(1.50644e-20 -9.87899e-16 0)
(9.0346e-21 -9.87899e-16 0)
(3.01085e-21 -9.87899e-16 0)
(-3.01076e-21 -9.87897e-16 0)
(-9.03432e-21 -9.87897e-16 0)
(-1.5064e-20 -9.87897e-16 0)
(-2.11034e-20 -9.87897e-16 0)
(-2.71557e-20 -9.87897e-16 0)
(-3.32233e-20 -9.87897e-16 0)
(-3.93076e-20 -9.87897e-16 0)
(-4.54085e-20 -9.87897e-16 0)
(-5.15239e-20 -9.87897e-16 0)
(-5.76498e-20 -9.87897e-16 0)
(-6.37788e-20 -9.87897e-16 0)
(-6.99004e-20 -9.87897e-16 0)
(-7.5999e-20 -9.87897e-16 0)
(-8.20538e-20 -9.87897e-16 0)
(-8.80368e-20 -9.87897e-16 0)
(-9.39115e-20 -9.87897e-16 0)
(-9.96309e-20 -9.87897e-16 0)
(-1.05136e-19 -9.87897e-16 0)
(-1.10351e-19 -9.87897e-16 0)
(-1.15183e-19 -9.87897e-16 0)
(-1.19519e-19 -9.87897e-16 0)
(-1.23221e-19 -9.87897e-16 0)
(-1.26123e-19 -9.87898e-16 0)
(-1.28033e-19 -9.87898e-16 0)
(-1.28726e-19 -9.87899e-16 0)
(-1.27956e-19 -9.87899e-16 0)
(-1.25455e-19 -9.879e-16 0)
(-1.20949e-19 -9.879e-16 0)
(-1.14183e-19 -9.87901e-16 0)
(-1.04944e-19 -9.87902e-16 0)
(-9.31043e-20 -9.87903e-16 0)
(-7.8661e-20 -9.87903e-16 0)
(-6.69313e-20 -9.87904e-16 0)
(-5.89883e-20 -9.87904e-16 0)
(-5.06451e-20 -9.87905e-16 0)
(-4.1948e-20 -9.87905e-16 0)
(-3.29507e-20 -9.87905e-16 0)
(-2.37128e-20 -9.87905e-16 0)
(-1.42991e-20 -9.87905e-16 0)
(-4.77834e-21 -9.87905e-16 0)
(4.77834e-21 -9.87905e-16 0)
(1.42991e-20 -9.87905e-16 0)
(2.37128e-20 -9.87905e-16 0)
(3.29507e-20 -9.87905e-16 0)
(4.1948e-20 -9.87905e-16 0)
(5.06451e-20 -9.87905e-16 0)
(5.89883e-20 -9.87904e-16 0)
(6.69313e-20 -9.87904e-16 0)
(7.8661e-20 -9.87903e-16 0)
(9.31043e-20 -9.87903e-16 0)
(1.04944e-19 -9.87902e-16 0)
(1.14183e-19 -9.87901e-16 0)
(1.20949e-19 -9.879e-16 0)
(1.25455e-19 -9.879e-16 0)
(1.27956e-19 -9.87899e-16 0)
(1.28726e-19 -9.87899e-16 0)
(1.28033e-19 -9.87898e-16 0)
(1.26123e-19 -9.87898e-16 0)
(1.23221e-19 -9.87897e-16 0)
(1.19519e-19 -9.87897e-16 0)
(1.15183e-19 -9.87897e-16 0)
(1.10351e-19 -9.87897e-16 0)
(1.05136e-19 -9.87897e-16 0)
(9.96309e-20 -9.87897e-16 0)
(9.39115e-20 -9.87897e-16 0)
(8.80368e-20 -9.87897e-16 0)
(8.20538e-20 -9.87897e-16 0)
(7.5999e-20 -9.87897e-16 0)
(6.99004e-20 -9.87897e-16 0)
(6.37788e-20 -9.87897e-16 0)
(5.76498e-20 -9.87897e-16 0)
(5.15239e-20 -9.87897e-16 0)
(4.54085e-20 -9.87897e-16 0)
(3.93076e-20 -9.87897e-16 0)
(3.32233e-20 -9.87897e-16 0)
(2.71557e-20 -9.87897e-16 0)
(2.11034e-20 -9.87897e-16 0)
(1.5064e-20 -9.87897e-16 0)
(9.03432e-21 -9.87897e-16 0)
(3.01076e-21 -9.87897e-16 0)
(-3.01055e-21 -9.87895e-16 0)
(-9.03372e-21 -9.87895e-16 0)
(-1.5063e-20 -9.87895e-16 0)
(-2.11021e-20 -9.87895e-16 0)
(-2.71542e-20 -9.87895e-16 0)
(-3.32217e-20 -9.87895e-16 0)
(-3.9306e-20 -9.87895e-16 0)
(-4.5407e-20 -9.87895e-16 0)
(-5.15229e-20 -9.87895e-16 0)
(-5.76494e-20 -9.87895e-16 0)
(-6.37796e-20 -9.87895e-16 0)
(-6.99027e-20 -9.87895e-16 0)
(-7.60034e-20 -9.87895e-16 0)
(-8.2061e-20 -9.87895e-16 0)
(-8.80476e-20 -9.87895e-16 0)
(-9.3927e-20 -9.87895e-16 0)
(-9.96524e-20 -9.87895e-16 0)
(-1.05164e-19 -9.87896e-16 0)
(-1.10389e-19 -9.87896e-16 0)
(-1.15233e-19 -9.87896e-16 0)
(-1.19583e-19 -9.87896e-16 0)
(-1.23301e-19 -9.87897e-16 0)
(-1.26222e-19 -9.87897e-16 0)
(-1.28154e-19 -9.87898e-16 0)
(-1.28872e-19 -9.87898e-16 0)
(-1.28129e-19 -9.87899e-16 0)
(-1.25654e-19 -9.879e-16 0)
(-1.21175e-19 -9.87902e-16 0)
(-1.14429e-19 -9.87903e-16 0)
(-1.05203e-19 -9.87904e-16 0)
(-9.33633e-20 -9.87906e-16 0)
(-7.89037e-20 -9.87907e-16 0)
(-6.71524e-20 -9.87908e-16 0)
(-5.91898e-20 -9.87909e-16 0)
(-5.08231e-20 -9.87909e-16 0)
(-4.20992e-20 -9.87909e-16 0)
(-3.30718e-20 -9.8791e-16 0)
(-2.38012e-20 -9.8791e-16 0)
(-1.43529e-20 -9.8791e-16 0)
(-4.79644e-21 -9.8791e-16 0)
(4.79644e-21 -9.8791e-16 0)
(1.43529e-20 -9.8791e-16 0)
(2.38012e-20 -9.8791e-16 0)
(3.30718e-20 -9.8791e-16 0)
(4.20992e-20 -9.87909e-16 0)
(5.08231e-20 -9.87909e-16 0)
(5.91898e-20 -9.87909e-16 0)
(6.71524e-20 -9.87908e-16 0)
(7.89037e-20 -9.87907e-16 0)
(9.33633e-20 -9.87906e-16 0)
(1.05203e-19 -9.87904e-16 0)
(1.14429e-19 -9.87903e-16 0)
(1.21175e-19 -9.87902e-16 0)
(1.25654e-19 -9.879e-16 0)
(1.28129e-19 -9.87899e-16 0)
(1.28872e-19 -9.87898e-16 0)
(1.28154e-19 -9.87898e-16 0)
(1.26222e-19 -9.87897e-16 0)
(1.23301e-19 -9.87897e-16 0)
(1.19583e-19 -9.87896e-16 0)
(1.15233e-19 -9.87896e-16 0)
(1.10389e-19 -9.87896e-16 0)
(1.05164e-19 -9.87896e-16 0)
(9.96524e-20 -9.87895e-16 0)
(9.3927e-20 -9.87895e-16 0)
(8.80476e-20 -9.87895e-16 0)
(8.2061e-20 -9.87895e-16 0)
(7.60034e-20 -9.87895e-16 0)
(6.99027e-20 -9.87895e-16 0)
(6.37796e-20 -9.87895e-16 0)
(5.76494e-20 -9.87895e-16 0)
(5.15229e-20 -9.87895e-16 0)
(4.5407e-20 -9.87895e-16 0)
(3.9306e-20 -9.87895e-16 0)
(3.32217e-20 -9.87895e-16 0)
(2.71542e-20 -9.87895e-16 0)
(2.11021e-20 -9.87895e-16 0)
(1.5063e-20 -9.87895e-16 0)
(9.03372e-21 -9.87895e-16 0)
(3.01055e-21 -9.87895e-16 0)
(-3.0102e-21 -9.87894e-16 0)
(-9.03268e-21 -9.87894e-16 0)
(-1.50613e-20 -9.87894e-16 0)
(-2.10998e-20 -9.87894e-16 0)
(-2.71515e-20 -9.87894e-16 0)
(-3.32188e-20 -9.87894e-16 0)
(-3.93031e-20 -9.87894e-16 0)
(-4.54045e-20 -9.87894e-16 0)
(-5.15211e-20 -9.87894e-16 0)
(-5.76489e-20 -9.87894e-16 0)
(-6.37809e-20 -9.87894e-16 0)
(-6.99066e-20 -9.87894e-16 0)
(-7.60109e-20 -9.87894e-16 0)
(-8.20733e-20 -9.87894e-16 0)
(-8.80662e-20 -9.87894e-16 0)
(-9.39536e-20 -9.87894e-16 0)
(-9.96893e-20 -9.87894e-16 0)
(-1.05214e-19 -9.87894e-16 0)
(-1.10454e-19 -9.87894e-16 0)
(-1.15318e-19 -9.87895e-16 0)
(-1.19692e-19 -9.87895e-16 0)
(-1.23438e-19 -9.87896e-16 0)
(-1.26393e-19 -9.87897e-16 0)
(-1.28363e-19 -9.87897e-16 0)
(-1.29124e-19 -9.87898e-16 0)
(-1.28426e-19 -9.879e-16 0)
(-1.25999e-19 -9.87901e-16 0)
(-1.21564e-19 -9.87903e-16 0)
(-1.14855e-19 -9.87905e-16 0)
(-1.05651e-19 -9.87907e-16 0)
(-9.38117e-20 -9.87909e-16 0)
(-7.93241e-20 -9.87911e-16 0)
(-6.75356e-20 -9.87913e-16 0)
(-5.95391e-20 -9.87913e-16 0)
(-5.11319e-20 -9.87914e-16 0)
(-4.23612e-20 -9.87915e-16 0)
(-3.32818e-20 -9.87915e-16 0)
(-2.39546e-20 -9.87915e-16 0)
(-1.44464e-20 -9.87916e-16 0)
(-4.82782e-21 -9.87916e-16 0)
(4.82782e-21 -9.87916e-16 0)
(1.44464e-20 -9.87916e-16 0)
(2.39546e-20 -9.87915e-16 0)
(3.32818e-20 -9.87915e-16 0)
(4.23612e-20 -9.87915e-16 0)
(5.11319e-20 -9.87914e-16 0)
(5.95391e-20 -9.87913e-16 0)
(6.75356e-20 -9.87913e-16 0)
(7.93241e-20 -9.87911e-16 0)
(9.38117e-20 -9.87909e-16 0)
(1.05651e-19 -9.87907e-16 0)
(1.14855e-19 -9.87905e-16 0)
(1.21564e-19 -9.87903e-16 0)
(1.25999e-19 -9.87901e-16 0)
(1.28426e-19 -9.879e-16 0)
(1.29124e-19 -9.87898e-16 0)
(1.28363e-19 -9.87897e-16 0)
(1.26393e-19 -9.87897e-16 0)
(1.23438e-19 -9.87896e-16 0)
(1.19692e-19 -9.87895e-16 0)
(1.15318e-19 -9.87895e-16 0)
(1.10454e-19 -9.87894e-16 0)
(1.05214e-19 -9.87894e-16 0)
(9.96893e-20 -9.87894e-16 0)
(9.39536e-20 -9.87894e-16 0)
(8.80662e-20 -9.87894e-16 0)
(8.20733e-20 -9.87894e-16 0)
(7.60109e-20 -9.87894e-16 0)
(6.99066e-20 -9.87894e-16 0)
(6.37809e-20 -9.87894e-16 0)
(5.76489e-20 -9.87894e-16 0)
(5.15211e-20 -9.87894e-16 0)
(4.54045e-20 -9.87894e-16 0)
(3.93031e-20 -9.87894e-16 0)
(3.32188e-20 -9.87894e-16 0)
(2.71515e-20 -9.87894e-16 0)
(2.10998e-20 -9.87894e-16 0)
(1.50613e-20 -9.87894e-16 0)
(9.03268e-21 -9.87894e-16 0)
(3.0102e-21 -9.87894e-16 0)
(-3.00965e-21 -9.87892e-16 0)
(-9.03107e-21 -9.87892e-16 0)
(-1.50587e-20 -9.87892e-16 0)
(-2.10964e-20 -9.87892e-16 0)
(-2.71475e-20 -9.87892e-16 0)
(-3.32144e-20 -9.87892e-16 0)
(-3.92987e-20 -9.87892e-16 0)
(-4.54006e-20 -9.87892e-16 0)
(-5.15183e-20 -9.87892e-16 0)
(-5.76479e-20 -9.87892e-16 0)
(-6.37828e-20 -9.87892e-16 0)
(-6.99125e-20 -9.87892e-16 0)
(-7.60224e-20 -9.87892e-16 0)
(-8.20921e-20 -9.87892e-16 0)
(-8.80946e-20 -9.87892e-16 0)
(-9.39943e-20 -9.87892e-16 0)
(-9.97456e-20 -9.87892e-16 0)
(-1.0529e-19 -9.87893e-16 0)
(-1.10555e-19 -9.87893e-16 0)
(-1.15448e-19 -9.87893e-16 0)
(-1.19858e-19 -9.87894e-16 0)
(-1.23648e-19 -9.87895e-16 0)
(-1.26654e-19 -9.87896e-16 0)
(-1.28683e-19 -9.87897e-16 0)
(-1.2951e-19 -9.87898e-16 0)
(-1.28883e-19 -9.879e-16 0)
(-1.26528e-19 -9.87902e-16 0)
(-1.22162e-19 -9.87905e-16 0)
(-1.1551e-19 -9.87907e-16 0)
(-1.06341e-19 -9.8791e-16 0)
(-9.45032e-20 -9.87913e-16 0)
(-7.99731e-20 -9.87916e-16 0)
(-6.81277e-20 -9.87917e-16 0)
(-6.00789e-20 -9.87919e-16 0)
(-5.16092e-20 -9.87919e-16 0)
(-4.27666e-20 -9.8792e-16 0)
(-3.36067e-20 -9.87921e-16 0)
(-2.4192e-20 -9.87921e-16 0)
(-1.4591e-20 -9.87922e-16 0)
(-4.87639e-21 -9.87922e-16 0)
(4.87639e-21 -9.87922e-16 0)
(1.4591e-20 -9.87922e-16 0)
(2.4192e-20 -9.87921e-16 0)
(3.36067e-20 -9.87921e-16 0)
(4.27666e-20 -9.8792e-16 0)
(5.16092e-20 -9.87919e-16 0)
(6.00789e-20 -9.87919e-16 0)
(6.81277e-20 -9.87917e-16 0)
(7.99731e-20 -9.87916e-16 0)
(9.45032e-20 -9.87913e-16 0)
(1.06341e-19 -9.8791e-16 0)
(1.1551e-19 -9.87907e-16 0)
(1.22162e-19 -9.87905e-16 0)
(1.26528e-19 -9.87902e-16 0)
(1.28883e-19 -9.879e-16 0)
(1.2951e-19 -9.87898e-16 0)
(1.28683e-19 -9.87897e-16 0)
(1.26654e-19 -9.87896e-16 0)
(1.23648e-19 -9.87895e-16 0)
(1.19858e-19 -9.87894e-16 0)
(1.15448e-19 -9.87893e-16 0)
(1.10555e-19 -9.87893e-16 0)
(1.0529e-19 -9.87893e-16 0)
(9.97456e-20 -9.87892e-16 0)
(9.39943e-20 -9.87892e-16 0)
(8.80946e-20 -9.87892e-16 0)
(8.20921e-20 -9.87892e-16 0)
(7.60224e-20 -9.87892e-16 0)
(6.99125e-20 -9.87892e-16 0)
(6.37828e-20 -9.87892e-16 0)
(5.76479e-20 -9.87892e-16 0)
(5.15183e-20 -9.87892e-16 0)
(4.54006e-20 -9.87892e-16 0)
(3.92987e-20 -9.87892e-16 0)
(3.32144e-20 -9.87892e-16 0)
(2.71475e-20 -9.87892e-16 0)
(2.10964e-20 -9.87892e-16 0)
(1.50587e-20 -9.87892e-16 0)
(9.03107e-21 -9.87892e-16 0)
(3.00965e-21 -9.87892e-16 0)
(-3.00886e-21 -9.8789e-16 0)
(-9.02874e-21 -9.8789e-16 0)
(-1.5055e-20 -9.8789e-16 0)
(-2.10914e-20 -9.8789e-16 0)
(-2.71416e-20 -9.8789e-16 0)
(-3.3208e-20 -9.8789e-16 0)
(-3.92923e-20 -9.8789e-16 0)
(-4.53948e-20 -9.8789e-16 0)
(-5.15141e-20 -9.8789e-16 0)
(-5.76464e-20 -9.8789e-16 0)
(-6.37853e-20 -9.8789e-16 0)
(-6.99208e-20 -9.8789e-16 0)
(-7.60385e-20 -9.8789e-16 0)
(-8.21187e-20 -9.8789e-16 0)
(-8.8135e-20 -9.8789e-16 0)
(-9.40524e-20 -9.8789e-16 0)
(-9.98262e-20 -9.87891e-16 0)
(-1.05399e-19 -9.87891e-16 0)
(-1.10699e-19 -9.87891e-16 0)
(-1.15635e-19 -9.87892e-16 0)
(-1.20098e-19 -9.87893e-16 0)
(-1.2395e-19 -9.87894e-16 0)
(-1.2703e-19 -9.87895e-16 0)
(-1.29143e-19 -9.87897e-16 0)
(-1.30065e-19 -9.87898e-16 0)
(-1.29541e-19 -9.87901e-16 0)
(-1.27292e-19 -9.87903e-16 0)
(-1.23025e-19 -9.87906e-16 0)
(-1.16457e-19 -9.8791e-16 0)
(-1.0734e-19 -9.87913e-16 0)
(-9.5506e-20 -9.87917e-16 0)
(-8.09158e-20 -9.87921e-16 0)
(-6.89886e-20 -9.87923e-16 0)
(-6.08643e-20 -9.87924e-16 0)
(-5.23041e-20 -9.87926e-16 0)
(-4.3357e-20 -9.87927e-16 0)
(-3.408e-20 -9.87927e-16 0)
(-2.4538e-20 -9.87928e-16 0)
(-1.48018e-20 -9.87929e-16 0)
(-4.94721e-21 -9.87929e-16 0)
(4.94721e-21 -9.87929e-16 0)
(1.48018e-20 -9.87929e-16 0)
(2.4538e-20 -9.87928e-16 0)
(3.408e-20 -9.87927e-16 0)
(4.3357e-20 -9.87927e-16 0)
(5.23041e-20 -9.87926e-16 0)
(6.08643e-20 -9.87924e-16 0)
(6.89886e-20 -9.87923e-16 0)
(8.09158e-20 -9.87921e-16 0)
(9.5506e-20 -9.87917e-16 0)
(1.0734e-19 -9.87913e-16 0)
(1.16457e-19 -9.8791e-16 0)
(1.23025e-19 -9.87906e-16 0)
(1.27292e-19 -9.87903e-16 0)
(1.29541e-19 -9.87901e-16 0)
(1.30065e-19 -9.87898e-16 0)
(1.29143e-19 -9.87897e-16 0)
(1.2703e-19 -9.87895e-16 0)
(1.2395e-19 -9.87894e-16 0)
(1.20098e-19 -9.87893e-16 0)
(1.15635e-19 -9.87892e-16 0)
(1.10699e-19 -9.87891e-16 0)
(1.05399e-19 -9.87891e-16 0)
(9.98262e-20 -9.87891e-16 0)
(9.40524e-20 -9.8789e-16 0)
(8.8135e-20 -9.8789e-16 0)
(8.21187e-20 -9.8789e-16 0)
(7.60385e-20 -9.8789e-16 0)
(6.99208e-20 -9.8789e-16 0)
(6.37853e-20 -9.8789e-16 0)
(5.76464e-20 -9.8789e-16 0)
(5.15141e-20 -9.8789e-16 0)
(4.53948e-20 -9.8789e-16 0)
(3.92923e-20 -9.8789e-16 0)
(3.3208e-20 -9.8789e-16 0)
(2.71416e-20 -9.8789e-16 0)
(2.10914e-20 -9.8789e-16 0)
(1.5055e-20 -9.8789e-16 0)
(9.02874e-21 -9.8789e-16 0)
(3.00886e-21 -9.8789e-16 0)
(-3.00776e-21 -9.87888e-16 0)
(-9.02549e-21 -9.87888e-16 0)
(-1.50497e-20 -9.87888e-16 0)
(-2.10845e-20 -9.87888e-16 0)
(-2.71333e-20 -9.87888e-16 0)
(-3.3199e-20 -9.87888e-16 0)
(-3.92833e-20 -9.87888e-16 0)
(-4.53867e-20 -9.87888e-16 0)
(-5.15081e-20 -9.87888e-16 0)
(-5.7644e-20 -9.87888e-16 0)
(-6.37884e-20 -9.87888e-16 0)
(-6.99318e-20 -9.87888e-16 0)
(-7.60603e-20 -9.87888e-16 0)
(-8.2155e-20 -9.87888e-16 0)
(-8.819e-20 -9.87888e-16 0)
(-9.41318e-20 -9.87888e-16 0)
(-9.99364e-20 -9.87889e-16 0)
(-1.05548e-19 -9.87889e-16 0)
(-1.10896e-19 -9.8789e-16 0)
(-1.15892e-19 -9.8789e-16 0)
(-1.20427e-19 -9.87891e-16 0)
(-1.24366e-19 -9.87893e-16 0)
(-1.27547e-19 -9.87894e-16 0)
(-1.29778e-19 -9.87896e-16 0)
(-1.30832e-19 -9.87898e-16 0)
(-1.30451e-19 -9.87901e-16 0)
(-1.28349e-19 -9.87904e-16 0)
(-1.24223e-19 -9.87908e-16 0)
(-1.17773e-19 -9.87912e-16 0)
(-1.08732e-19 -9.87917e-16 0)
(-9.69068e-20 -9.87921e-16 0)
(-8.22357e-20 -9.87926e-16 0)
(-7.01959e-20 -9.87929e-16 0)
(-6.19667e-20 -9.87931e-16 0)
(-5.32802e-20 -9.87932e-16 0)
(-4.41867e-20 -9.87934e-16 0)
(-3.47457e-20 -9.87935e-16 0)
(-2.50247e-20 -9.87936e-16 0)
(-1.50985e-20 -9.87936e-16 0)
(-5.04688e-21 -9.87936e-16 0)
(5.04688e-21 -9.87936e-16 0)
(1.50985e-20 -9.87936e-16 0)
(2.50247e-20 -9.87936e-16 0)
(3.47457e-20 -9.87935e-16 0)
(4.41867e-20 -9.87934e-16 0)
(5.32802e-20 -9.87932e-16 0)
(6.19667e-20 -9.87931e-16 0)
(7.01959e-20 -9.87929e-16 0)
(8.22357e-20 -9.87926e-16 0)
(9.69068e-20 -9.87921e-16 0)
(1.08732e-19 -9.87917e-16 0)
(1.17773e-19 -9.87912e-16 0)
(1.24223e-19 -9.87908e-16 0)
(1.28349e-19 -9.87904e-16 0)
(1.30451e-19 -9.87901e-16 0)
(1.30832e-19 -9.87898e-16 0)
(1.29778e-19 -9.87896e-16 0)
(1.27547e-19 -9.87894e-16 0)
(1.24366e-19 -9.87893e-16 0)
(1.20427e-19 -9.87891e-16 0)
(1.15892e-19 -9.8789e-16 0)
(1.10896e-19 -9.8789e-16 0)
(1.05548e-19 -9.87889e-16 0)
(9.99364e-20 -9.87889e-16 0)
(9.41318e-20 -9.87888e-16 0)
(8.819e-20 -9.87888e-16 0)
(8.2155e-20 -9.87888e-16 0)
(7.60603e-20 -9.87888e-16 0)
(6.99318e-20 -9.87888e-16 0)
(6.37884e-20 -9.87888e-16 0)
(5.7644e-20 -9.87888e-16 0)
(5.15081e-20 -9.87888e-16 0)
(4.53867e-20 -9.87888e-16 0)
(3.92833e-20 -9.87888e-16 0)
(3.3199e-20 -9.87888e-16 0)
(2.71333e-20 -9.87888e-16 0)
(2.10845e-20 -9.87888e-16 0)
(1.50497e-20 -9.87888e-16 0)
(9.02549e-21 -9.87888e-16 0)
(3.00776e-21 -9.87888e-16 0)
(-3.00627e-21 -9.87886e-16 0)
(-9.02107e-21 -9.87886e-16 0)
(-1.50426e-20 -9.87886e-16 0)
(-2.1075e-20 -9.87886e-16 0)
(-2.7122e-20 -9.87886e-16 0)
(-3.31866e-20 -9.87886e-16 0)
(-3.92708e-20 -9.87886e-16 0)
(-4.53755e-20 -9.87886e-16 0)
(-5.14996e-20 -9.87886e-16 0)
(-5.76403e-20 -9.87886e-16 0)
(-6.3792e-20 -9.87886e-16 0)
(-6.99458e-20 -9.87886e-16 0)
(-7.60887e-20 -9.87886e-16 0)
(-8.22025e-20 -9.87886e-16 0)
(-8.82627e-20 -9.87886e-16 0)
(-9.42369e-20 -9.87886e-16 0)
(-1.00083e-19 -9.87887e-16 0)
(-1.05746e-19 -9.87887e-16 0)
(-1.11159e-19 -9.87888e-16 0)
(-1.16234e-19 -9.87889e-16 0)
(-1.20866e-19 -9.8789e-16 0)
(-1.24921e-19 -9.87891e-16 0)
(-1.2824e-19 -9.87893e-16 0)
(-1.30629e-19 -9.87895e-16 0)
(-1.31862e-19 -9.87898e-16 0)
(-1.31675e-19 -9.87901e-16 0)
(-1.29775e-19 -9.87905e-16 0)
(-1.25843e-19 -9.8791e-16 0)
(-1.19558e-19 -9.87915e-16 0)
(-1.10624e-19 -9.87921e-16 0)
(-9.88169e-20 -9.87926e-16 0)
(-8.40411e-20 -9.87932e-16 0)
(-7.1851e-20 -9.87936e-16 0)
(-6.34797e-20 -9.87938e-16 0)
(-5.46213e-20 -9.8794e-16 0)
(-4.53279e-20 -9.87941e-16 0)
(-3.56619e-20 -9.87943e-16 0)
(-2.56951e-20 -9.87944e-16 0)
(-1.55072e-20 -9.87945e-16 0)
(-5.18424e-21 -9.87945e-16 0)
(5.18424e-21 -9.87945e-16 0)
(1.55072e-20 -9.87945e-16 0)
(2.56951e-20 -9.87944e-16 0)
(3.56619e-20 -9.87943e-16 0)
(4.53279e-20 -9.87941e-16 0)
(5.46213e-20 -9.8794e-16 0)
(6.34797e-20 -9.87938e-16 0)
(7.1851e-20 -9.87936e-16 0)
(8.40411e-20 -9.87932e-16 0)
(9.88169e-20 -9.87926e-16 0)
(1.10624e-19 -9.87921e-16 0)
(1.19558e-19 -9.87915e-16 0)
(1.25843e-19 -9.8791e-16 0)
(1.29775e-19 -9.87905e-16 0)
(1.31675e-19 -9.87901e-16 0)
(1.31862e-19 -9.87898e-16 0)
(1.30629e-19 -9.87895e-16 0)
(1.2824e-19 -9.87893e-16 0)
(1.24921e-19 -9.87891e-16 0)
(1.20866e-19 -9.8789e-16 0)
(1.16234e-19 -9.87889e-16 0)
(1.11159e-19 -9.87888e-16 0)
(1.05746e-19 -9.87887e-16 0)
(1.00083e-19 -9.87887e-16 0)
(9.42369e-20 -9.87886e-16 0)
(8.82627e-20 -9.87886e-16 0)
(8.22025e-20 -9.87886e-16 0)
(7.60887e-20 -9.87886e-16 0)
(6.99458e-20 -9.87886e-16 0)
(6.3792e-20 -9.87886e-16 0)
(5.76403e-20 -9.87886e-16 0)
(5.14996e-20 -9.87886e-16 0)
(4.53755e-20 -9.87886e-16 0)
(3.92708e-20 -9.87886e-16 0)
(3.31866e-20 -9.87886e-16 0)
(2.7122e-20 -9.87886e-16 0)
(2.1075e-20 -9.87886e-16 0)
(1.50426e-20 -9.87886e-16 0)
(9.02107e-21 -9.87886e-16 0)
(3.00627e-21 -9.87886e-16 0)
(-3.00427e-21 -9.87883e-16 0)
(-9.01516e-21 -9.87883e-16 0)
(-1.50331e-20 -9.87883e-16 0)
(-2.10623e-20 -9.87883e-16 0)
(-2.71069e-20 -9.87883e-16 0)
(-3.317e-20 -9.87883e-16 0)
(-3.9254e-20 -9.87883e-16 0)
(-4.536e-20 -9.87883e-16 0)
(-5.14877e-20 -9.87883e-16 0)
(-5.76345e-20 -9.87883e-16 0)
(-6.37956e-20 -9.87883e-16 0)
(-6.99629e-20 -9.87883e-16 0)
(-7.61244e-20 -9.87883e-16 0)
(-8.22632e-20 -9.87883e-16 0)
(-8.8356e-20 -9.87883e-16 0)
(-9.43724e-20 -9.87884e-16 0)
(-1.00272e-19 -9.87884e-16 0)
(-1.06003e-19 -9.87885e-16 0)
(-1.115e-19 -9.87886e-16 0)
(-1.1668e-19 -9.87887e-16 0)
(-1.21438e-19 -9.87888e-16 0)
(-1.25646e-19 -9.8789e-16 0)
(-1.29146e-19 -9.87892e-16 0)
(-1.31745e-19 -9.87894e-16 0)
(-1.33215e-19 -9.87898e-16 0)
(-1.33289e-19 -9.87902e-16 0)
(-1.31659e-19 -9.87906e-16 0)
(-1.27991e-19 -9.87912e-16 0)
(-1.21933e-19 -9.87918e-16 0)
(-1.13153e-19 -9.87925e-16 0)
(-1.01381e-19 -9.87932e-16 0)
(-8.64749e-20 -9.87939e-16 0)
(-7.40889e-20 -9.87943e-16 0)
(-6.55288e-20 -9.87946e-16 0)
(-5.64402e-20 -9.87948e-16 0)
(-4.68776e-20 -9.8795e-16 0)
(-3.69074e-20 -9.87952e-16 0)
(-2.66071e-20 -9.87953e-16 0)
(-1.60636e-20 -9.87954e-16 0)
(-5.37127e-21 -9.87955e-16 0)
(5.37127e-21 -9.87955e-16 0)
(1.60636e-20 -9.87954e-16 0)
(2.66071e-20 -9.87953e-16 0)
(3.69074e-20 -9.87952e-16 0)
(4.68776e-20 -9.8795e-16 0)
(5.64402e-20 -9.87948e-16 0)
(6.55288e-20 -9.87946e-16 0)
(7.40889e-20 -9.87943e-16 0)
(8.64749e-20 -9.87939e-16 0)
(1.01381e-19 -9.87932e-16 0)
(1.13153e-19 -9.87925e-16 0)
(1.21933e-19 -9.87918e-16 0)
(1.27991e-19 -9.87912e-16 0)
(1.31659e-19 -9.87906e-16 0)
(1.33289e-19 -9.87902e-16 0)
(1.33215e-19 -9.87898e-16 0)
(1.31745e-19 -9.87894e-16 0)
(1.29146e-19 -9.87892e-16 0)
(1.25646e-19 -9.8789e-16 0)
(1.21438e-19 -9.87888e-16 0)
(1.1668e-19 -9.87887e-16 0)
(1.115e-19 -9.87886e-16 0)
(1.06003e-19 -9.87885e-16 0)
(1.00272e-19 -9.87884e-16 0)
(9.43724e-20 -9.87884e-16 0)
(8.8356e-20 -9.87883e-16 0)
(8.22632e-20 -9.87883e-16 0)
(7.61244e-20 -9.87883e-16 0)
(6.99629e-20 -9.87883e-16 0)
(6.37956e-20 -9.87883e-16 0)
(5.76345e-20 -9.87883e-16 0)
(5.14877e-20 -9.87883e-16 0)
(4.536e-20 -9.87883e-16 0)
(3.9254e-20 -9.87883e-16 0)
(3.317e-20 -9.87883e-16 0)
(2.71069e-20 -9.87883e-16 0)
(2.10623e-20 -9.87883e-16 0)
(1.50331e-20 -9.87883e-16 0)
(9.01516e-21 -9.87883e-16 0)
(3.00427e-21 -9.87883e-16 0)
(-3.00162e-21 -9.87881e-16 0)
(-9.00735e-21 -9.87881e-16 0)
(-1.50204e-20 -9.87881e-16 0)
(-2.10455e-20 -9.87881e-16 0)
(-2.70868e-20 -9.87881e-16 0)
(-3.31478e-20 -9.87881e-16 0)
(-3.92313e-20 -9.8788e-16 0)
(-4.5339e-20 -9.8788e-16 0)
(-5.14709e-20 -9.8788e-16 0)
(-5.76254e-20 -9.8788e-16 0)
(-6.37984e-20 -9.8788e-16 0)
(-6.99828e-20 -9.8788e-16 0)
(-7.61679e-20 -9.8788e-16 0)
(-8.23384e-20 -9.87881e-16 0)
(-8.8473e-20 -9.87881e-16 0)
(-9.45432e-20 -9.87881e-16 0)
(-1.00512e-19 -9.87882e-16 0)
(-1.0633e-19 -9.87882e-16 0)
(-1.11935e-19 -9.87883e-16 0)
(-1.17249e-19 -9.87884e-16 0)
(-1.22171e-19 -9.87886e-16 0)
(-1.26576e-19 -9.87888e-16 0)
(-1.30311e-19 -9.8789e-16 0)
(-1.33184e-19 -9.87893e-16 0)
(-1.34966e-19 -9.87897e-16 0)
(-1.35382e-19 -9.87902e-16 0)
(-1.34114e-19 -9.87907e-16 0)
(-1.30801e-19 -9.87914e-16 0)
(-1.25056e-19 -9.87921e-16 0)
(-1.16496e-19 -9.87929e-16 0)
(-1.04789e-19 -9.87938e-16 0)
(-8.97279e-20 -9.87946e-16 0)
(-7.70923e-20 -9.87952e-16 0)
(-6.82846e-20 -9.87955e-16 0)
(-5.88912e-20 -9.87958e-16 0)
(-4.89694e-20 -9.8796e-16 0)
(-3.8591e-20 -9.87962e-16 0)
(-2.78413e-20 -9.87964e-16 0)
(-1.68172e-20 -9.87965e-16 0)
(-5.62467e-21 -9.87966e-16 0)
(5.62467e-21 -9.87966e-16 0)
(1.68172e-20 -9.87965e-16 0)
(2.78413e-20 -9.87964e-16 0)
(3.8591e-20 -9.87962e-16 0)
(4.89694e-20 -9.8796e-16 0)
(5.88912e-20 -9.87958e-16 0)
(6.82846e-20 -9.87955e-16 0)
(7.70923e-20 -9.87952e-16 0)
(8.97279e-20 -9.87946e-16 0)
(1.04789e-19 -9.87938e-16 0)
(1.16496e-19 -9.87929e-16 0)
(1.25056e-19 -9.87921e-16 0)
(1.30801e-19 -9.87914e-16 0)
(1.34114e-19 -9.87907e-16 0)
(1.35382e-19 -9.87902e-16 0)
(1.34966e-19 -9.87897e-16 0)
(1.33184e-19 -9.87893e-16 0)
(1.30311e-19 -9.8789e-16 0)
(1.26576e-19 -9.87888e-16 0)
(1.22171e-19 -9.87886e-16 0)
(1.17249e-19 -9.87884e-16 0)
(1.11935e-19 -9.87883e-16 0)
(1.0633e-19 -9.87882e-16 0)
(1.00512e-19 -9.87882e-16 0)
(9.45432e-20 -9.87881e-16 0)
(8.8473e-20 -9.87881e-16 0)
(8.23384e-20 -9.87881e-16 0)
(7.61679e-20 -9.8788e-16 0)
(6.99828e-20 -9.8788e-16 0)
(6.37984e-20 -9.8788e-16 0)
(5.76254e-20 -9.8788e-16 0)
(5.14709e-20 -9.8788e-16 0)
(4.5339e-20 -9.8788e-16 0)
(3.92313e-20 -9.8788e-16 0)
(3.31478e-20 -9.87881e-16 0)
(2.70868e-20 -9.87881e-16 0)
(2.10455e-20 -9.87881e-16 0)
(1.50204e-20 -9.87881e-16 0)
(9.00735e-21 -9.87881e-16 0)
(3.00162e-21 -9.87881e-16 0)
(-2.99816e-21 -9.87878e-16 0)
(-8.9971e-21 -9.87878e-16 0)
(-1.50038e-20 -9.87878e-16 0)
(-2.10233e-20 -9.87878e-16 0)
(-2.70601e-20 -9.87878e-16 0)
(-3.31183e-20 -9.87878e-16 0)
(-3.9201e-20 -9.87878e-16 0)
(-4.53104e-20 -9.87877e-16 0)
(-5.14474e-20 -9.87877e-16 0)
(-5.76112e-20 -9.87877e-16 0)
(-6.37988e-20 -9.87877e-16 0)
(-7.00044e-20 -9.87877e-16 0)
(-7.6219e-20 -9.87877e-16 0)
(-8.24291e-20 -9.87878e-16 0)
(-8.86159e-20 -9.87878e-16 0)
(-9.47538e-20 -9.87878e-16 0)
(-1.00809e-19 -9.87879e-16 0)
(-1.06736e-19 -9.87879e-16 0)
(-1.12479e-19 -9.8788e-16 0)
(-1.17962e-19 -9.87882e-16 0)
(-1.23093e-19 -9.87884e-16 0)
(-1.2775e-19 -9.87886e-16 0)
(-1.31785e-19 -9.87889e-16 0)
(-1.35011e-19 -9.87892e-16 0)
(-1.37197e-19 -9.87897e-16 0)
(-1.38063e-19 -9.87902e-16 0)
(-1.37274e-19 -9.87908e-16 0)
(-1.34439e-19 -9.87916e-16 0)
(-1.29125e-19 -9.87925e-16 0)
(-1.20883e-19 -9.87934e-16 0)
(-1.09294e-19 -9.87944e-16 0)
(-9.40602e-20 -9.87954e-16 0)
(-8.11138e-20 -9.87961e-16 0)
(-7.19852e-20 -9.87965e-16 0)
(-6.21912e-20 -9.87969e-16 0)
(-5.17924e-20 -9.87972e-16 0)
(-4.08675e-20 -9.87974e-16 0)
(-2.95127e-20 -9.87976e-16 0)
(-1.78387e-20 -9.87978e-16 0)
(-5.96835e-21 -9.87978e-16 0)
(5.96835e-21 -9.87978e-16 0)
(1.78387e-20 -9.87978e-16 0)
(2.95127e-20 -9.87976e-16 0)
(4.08675e-20 -9.87974e-16 0)
(5.17924e-20 -9.87972e-16 0)
(6.21912e-20 -9.87969e-16 0)
(7.19852e-20 -9.87965e-16 0)
(8.11138e-20 -9.87961e-16 0)
(9.40602e-20 -9.87954e-16 0)
(1.09294e-19 -9.87944e-16 0)
(1.20883e-19 -9.87934e-16 0)
(1.29125e-19 -9.87925e-16 0)
(1.34439e-19 -9.87916e-16 0)
(1.37274e-19 -9.87908e-16 0)
(1.38063e-19 -9.87902e-16 0)
(1.37197e-19 -9.87897e-16 0)
(1.35011e-19 -9.87892e-16 0)
(1.31785e-19 -9.87889e-16 0)
(1.2775e-19 -9.87886e-16 0)
(1.23093e-19 -9.87884e-16 0)
(1.17962e-19 -9.87882e-16 0)
(1.12479e-19 -9.8788e-16 0)
(1.06736e-19 -9.87879e-16 0)
(1.00809e-19 -9.87879e-16 0)
(9.47538e-20 -9.87878e-16 0)
(8.86159e-20 -9.87878e-16 0)
(8.24291e-20 -9.87878e-16 0)
(7.6219e-20 -9.87877e-16 0)
(7.00044e-20 -9.87877e-16 0)
(6.37988e-20 -9.87877e-16 0)
(5.76112e-20 -9.87877e-16 0)
(5.14474e-20 -9.87877e-16 0)
(4.53104e-20 -9.87877e-16 0)
(3.9201e-20 -9.87878e-16 0)
(3.31183e-20 -9.87878e-16 0)
(2.70601e-20 -9.87878e-16 0)
(2.10233e-20 -9.87878e-16 0)
(1.50038e-20 -9.87878e-16 0)
(8.9971e-21 -9.87878e-16 0)
(2.99816e-21 -9.87878e-16 0)
(-2.99364e-21 -9.87875e-16 0)
(-8.98371e-21 -9.87875e-16 0)
(-1.49821e-20 -9.87875e-16 0)
(-2.09943e-20 -9.87874e-16 0)
(-2.70251e-20 -9.87874e-16 0)
(-3.30792e-20 -9.87874e-16 0)
(-3.91603e-20 -9.87874e-16 0)
(-4.52714e-20 -9.87874e-16 0)
(-5.14142e-20 -9.87874e-16 0)
(-5.75891e-20 -9.87874e-16 0)
(-6.37943e-20 -9.87874e-16 0)
(-7.00257e-20 -9.87874e-16 0)
(-7.62763e-20 -9.87874e-16 0)
(-8.2535e-20 -9.87874e-16 0)
(-8.87861e-20 -9.87874e-16 0)
(-9.50076e-20 -9.87875e-16 0)
(-1.0117e-19 -9.87875e-16 0)
(-1.07233e-19 -9.87876e-16 0)
(-1.13147e-19 -9.87877e-16 0)
(-1.18842e-19 -9.87879e-16 0)
(-1.24233e-19 -9.87881e-16 0)
(-1.29209e-19 -9.87883e-16 0)
(-1.33625e-19 -9.87887e-16 0)
(-1.37302e-19 -9.87891e-16 0)
(-1.40009e-19 -9.87896e-16 0)
(-1.4146e-19 -9.87902e-16 0)
(-1.41302e-19 -9.87909e-16 0)
(-1.39111e-19 -9.87918e-16 0)
(-1.34394e-19 -9.87928e-16 0)
(-1.26614e-19 -9.87939e-16 0)
(-1.15238e-19 -9.87951e-16 0)
(-9.98329e-20 -9.87964e-16 0)
(-8.65107e-20 -9.87972e-16 0)
(-7.69709e-20 -9.87977e-16 0)
(-6.66529e-20 -9.87981e-16 0)
(-5.5621e-20 -9.87985e-16 0)
(-4.39632e-20 -9.87988e-16 0)
(-3.17902e-20 -9.87991e-16 0)
(-1.92327e-20 -9.87993e-16 0)
(-6.43768e-21 -9.87994e-16 0)
(6.43768e-21 -9.87994e-16 0)
(1.92327e-20 -9.87993e-16 0)
(3.17902e-20 -9.87991e-16 0)
(4.39632e-20 -9.87988e-16 0)
(5.5621e-20 -9.87985e-16 0)
(6.66529e-20 -9.87981e-16 0)
(7.69709e-20 -9.87977e-16 0)
(8.65107e-20 -9.87972e-16 0)
(9.98329e-20 -9.87964e-16 0)
(1.15238e-19 -9.87951e-16 0)
(1.26614e-19 -9.87939e-16 0)
(1.34394e-19 -9.87928e-16 0)
(1.39111e-19 -9.87918e-16 0)
(1.41302e-19 -9.87909e-16 0)
(1.4146e-19 -9.87902e-16 0)
(1.40009e-19 -9.87896e-16 0)
(1.37302e-19 -9.87891e-16 0)
(1.33625e-19 -9.87887e-16 0)
(1.29209e-19 -9.87883e-16 0)
(1.24233e-19 -9.87881e-16 0)
(1.18842e-19 -9.87879e-16 0)
(1.13147e-19 -9.87877e-16 0)
(1.07233e-19 -9.87876e-16 0)
(1.0117e-19 -9.87875e-16 0)
(9.50076e-20 -9.87875e-16 0)
(8.87861e-20 -9.87874e-16 0)
(8.2535e-20 -9.87874e-16 0)
(7.62763e-20 -9.87874e-16 0)
(7.00257e-20 -9.87874e-16 0)
(6.37943e-20 -9.87874e-16 0)
(5.75891e-20 -9.87874e-16 0)
(5.14142e-20 -9.87874e-16 0)
(4.52714e-20 -9.87874e-16 0)
(3.91603e-20 -9.87874e-16 0)
(3.30792e-20 -9.87874e-16 0)
(2.70251e-20 -9.87874e-16 0)
(2.09943e-20 -9.87874e-16 0)
(1.49821e-20 -9.87875e-16 0)
(8.98371e-21 -9.87875e-16 0)
(2.99364e-21 -9.87875e-16 0)
(-2.98775e-21 -9.87871e-16 0)
(-8.96627e-21 -9.87871e-16 0)
(-1.49538e-20 -9.87871e-16 0)
(-2.09562e-20 -9.87871e-16 0)
(-2.6979e-20 -9.87871e-16 0)
(-3.30273e-20 -9.87871e-16 0)
(-3.91058e-20 -9.87871e-16 0)
(-4.52181e-20 -9.87871e-16 0)
(-5.13673e-20 -9.8787e-16 0)
(-5.75548e-20 -9.8787e-16 0)
(-6.37806e-20 -9.8787e-16 0)
(-7.00427e-20 -9.8787e-16 0)
(-7.63364e-20 -9.8787e-16 0)
(-8.26537e-20 -9.8787e-16 0)
(-8.89826e-20 -9.87871e-16 0)
(-9.53056e-20 -9.87871e-16 0)
(-1.01598e-19 -9.87872e-16 0)
(-1.07828e-19 -9.87873e-16 0)
(-1.13951e-19 -9.87874e-16 0)
(-1.19908e-19 -9.87875e-16 0)
(-1.25622e-19 -9.87878e-16 0)
(-1.30993e-19 -9.8788e-16 0)
(-1.35888e-19 -9.87884e-16 0)
(-1.40134e-19 -9.87888e-16 0)
(-1.43507e-19 -9.87894e-16 0)
(-1.45717e-19 -9.87901e-16 0)
(-1.46393e-19 -9.8791e-16 0)
(-1.45071e-19 -9.8792e-16 0)
(-1.41187e-19 -9.87931e-16 0)
(-1.3409e-19 -9.87945e-16 0)
(-1.2309e-19 -9.87959e-16 0)
(-1.07559e-19 -9.87974e-16 0)
(-9.38035e-20 -9.87984e-16 0)
(-8.3743e-20 -9.8799e-16 0)
(-7.27424e-20 -9.87996e-16 0)
(-6.08689e-20 -9.88001e-16 0)
(-4.82219e-20 -9.88005e-16 0)
(-3.49321e-20 -9.88008e-16 0)
(-2.11595e-20 -9.8801e-16 0)
(-7.08707e-21 -9.88011e-16 0)
(7.08707e-21 -9.88011e-16 0)
(2.11595e-20 -9.8801e-16 0)