/*--------------------------------*- C++ -*----------------------------------*\
  =========                 |
  \\      /  F ield         | OpenFOAM: The Open Source CFD Toolbox
   \\    /   O peration     | Website:  https://openfoam.org
    \\  /    A nd           | Version:  10
     \\/     M anipulation  |
\*---------------------------------------------------------------------------*/
FoamFile
{
    format      ascii;
    class       surfaceScalarField;
    location    "19000";
    object      phi;
}
// * * * * * * * * * * * * * * * * * * * * * * * * * * * * * * * * * * * * * //

dimensions      [0 3 -1 0 0 0 0];

internalField   nonuniform List<scalar> 
12640
(
-3.99055e-08
3.99055e-08
-8.25393e-08
4.26338e-08
-1.31652e-07
4.91127e-08
-1.93915e-07
6.22628e-08
-2.8117e-07
8.72551e-08
-3.04739e-07
2.35687e-08
-3.08446e-06
2.77972e-06
-3.35142e-06
2.66958e-07
-3.29914e-06
-5.22836e-08
-3.28174e-06
-1.74018e-08
-3.21034e-06
-7.13931e-08
-3.4285e-06
2.18161e-07
-3.40759e-06
-2.09136e-08
-3.38299e-06
-2.45985e-08
-3.33609e-06
-4.68958e-08
-3.29354e-06
-4.25538e-08
-3.19807e-06
-9.54687e-08
-3.1549e-06
-4.31695e-08
-3.14756e-06
-7.34237e-09
-3.1254e-06
-2.21588e-08
-3.10351e-06
-2.18967e-08
-3.08385e-06
-1.96541e-08
-3.0569e-06
-2.69493e-08
-3.02998e-06
-2.6926e-08
-2.99819e-06
-3.17878e-08
-2.95119e-06
-4.69965e-08
-2.91115e-06
-4.0043e-08
-2.87765e-06
-3.34938e-08
-2.83685e-06
-4.08034e-08
-2.77154e-06
-6.53076e-08
-2.67583e-06
-9.57164e-08
-2.50568e-06
-1.70146e-07
-2.37654e-06
-1.29144e-07
-2.20471e-06
-1.71831e-07
-1.98065e-06
-2.2406e-07
-1.69665e-06
-2.83995e-07
-1.34899e-06
-3.47666e-07
-9.40675e-07
-4.0831e-07
-4.83901e-07
-4.56775e-07
1.04347e-17
-4.83901e-07
4.83901e-07
-4.83901e-07
9.40675e-07
-4.56775e-07
1.34899e-06
-4.0831e-07
1.69665e-06
-3.47666e-07
1.98065e-06
-2.83995e-07
2.20471e-06
-2.2406e-07
2.37654e-06
-1.71831e-07
2.50568e-06
-1.29144e-07
2.67583e-06
-1.70146e-07
2.77154e-06
-9.57164e-08
2.83685e-06
-6.53076e-08
2.87765e-06
-4.08034e-08
2.91115e-06
-3.34938e-08
2.95119e-06
-4.0043e-08
2.99819e-06
-4.69965e-08
3.02998e-06
-3.17878e-08
3.0569e-06
-2.6926e-08
3.08385e-06
-2.69493e-08
3.10351e-06
-1.96541e-08
3.1254e-06
-2.18967e-08
3.14756e-06
-2.21588e-08
3.1549e-06
-7.34237e-09
3.19807e-06
-4.31695e-08
3.29354e-06
-9.54687e-08
3.33609e-06
-4.25538e-08
3.38299e-06
-4.68958e-08
3.40759e-06
-2.45985e-08
3.4285e-06
-2.09136e-08
3.21034e-06
2.18161e-07
3.28174e-06
-7.13931e-08
3.29914e-06
-1.74018e-08
3.35142e-06
-5.22836e-08
3.08446e-06
2.66958e-07
3.04739e-07
2.77972e-06
2.8117e-07
2.35687e-08
1.93915e-07
8.72551e-08
1.31652e-07
6.22628e-08
8.25393e-08
4.91127e-08
3.99055e-08
4.26338e-08
3.99055e-08
-4.36398e-08
8.35453e-08
-9.02234e-08
8.92174e-08
-1.43774e-07
1.02664e-07
-2.11503e-07
1.29992e-07
-3.11421e-07
1.87173e-07
-6.08736e-07
3.20883e-07
-1.52073e-07
2.32306e-06
-1.48136e-06
1.59625e-06
-3.27674e-06
1.74309e-06
-3.41698e-06
1.22835e-07
-3.36813e-06
-1.20242e-07
-3.64319e-06
4.93228e-07
-3.62225e-06
-4.18569e-08
-3.6051e-06
-4.17533e-08
-3.55971e-06
-9.228e-08
-3.52149e-06
-8.07729e-08
-3.41794e-06
-1.99025e-07
-3.37536e-06
-8.57442e-08
-3.37227e-06
-1.04363e-08
-3.34981e-06
-4.46146e-08
-3.32797e-06
-4.37379e-08
-3.30885e-06
-3.87783e-08
-3.28089e-06
-5.49066e-08
-3.25336e-06
-5.44518e-08
-3.22073e-06
-6.44212e-08
-3.17008e-06
-9.76438e-08
-3.12786e-06
-8.22644e-08
-3.09321e-06
-6.81411e-08
-3.05078e-06
-8.32366e-08
-2.98138e-06
-1.34709e-07
-2.88098e-06
-1.96111e-07
-2.70271e-06
-3.48423e-07
-2.56625e-06
-2.65599e-07
-2.3838e-06
-3.54287e-07
-2.14469e-06
-4.6317e-07
-1.84013e-06
-5.88549e-07
-1.46546e-06
-7.22339e-07
-1.02337e-06
-8.50402e-07
-5.26962e-07
-9.5318e-07
2.19551e-17
-1.01086e-06
5.26962e-07
-1.01086e-06
1.02337e-06
-9.5318e-07
1.46546e-06
-8.50402e-07
1.84013e-06
-7.22339e-07
2.14469e-06
-5.88549e-07
2.3838e-06
-4.6317e-07
2.56625e-06
-3.54287e-07
2.70271e-06
-2.65599e-07
2.88098e-06
-3.48423e-07
2.98138e-06
-1.96111e-07
3.05078e-06
-1.34709e-07
3.09321e-06
-8.32366e-08
3.12786e-06
-6.81411e-08
3.17008e-06
-8.22644e-08
3.22073e-06
-9.76438e-08
3.25336e-06
-6.44212e-08
3.28089e-06
-5.44518e-08
3.30885e-06
-5.49066e-08
3.32797e-06
-3.87783e-08
3.34981e-06
-4.37379e-08
3.37227e-06
-4.46146e-08
3.37536e-06
-1.04363e-08
3.41794e-06
-8.57442e-08
3.52149e-06
-1.99025e-07
3.55971e-06
-8.0773e-08
3.6051e-06
-9.228e-08
3.62225e-06
-4.17533e-08
3.64319e-06
-4.18569e-08
3.36813e-06
4.93228e-07
3.41698e-06
-1.20242e-07
3.27674e-06
1.22835e-07
1.48136e-06
1.74309e-06
1.52073e-07
1.59625e-06
6.08736e-07
2.32306e-06
3.11421e-07
3.20883e-07
2.11503e-07
1.87173e-07
1.43774e-07
1.29992e-07
9.02234e-08
1.02664e-07
4.36398e-08
8.92174e-08
8.35453e-08
-4.7541e-08
1.31086e-07
-9.81907e-08
1.39867e-07
-1.56133e-07
1.60606e-07
-2.28714e-07
2.02572e-07
-3.33932e-07
2.92391e-07
-5.53234e-07
5.40185e-07
-2.15898e-07
1.98573e-06
-2.4636e-07
1.62671e-06
-2.39073e-07
1.73581e-06
-2.93589e-06
2.81965e-06
-3.40504e-06
3.4891e-07
-3.87013e-06
9.58317e-07
-3.8556e-06
-5.63812e-08
-3.85782e-06
-3.95416e-08
-3.81564e-06
-1.34452e-07
-3.78848e-06
-1.07937e-07
-3.66835e-06
-3.19155e-07
-3.62801e-06
-1.26082e-07
-3.6335e-06
-4.94533e-09
-3.60937e-06
-6.87469e-08
-3.58731e-06
-6.57941e-08
-3.56934e-06
-5.67493e-08
-3.53947e-06
-8.47841e-08
-3.51141e-06
-8.25091e-08
-3.47842e-06
-9.74116e-08
-3.42174e-06
-1.5432e-07
-3.3769e-06
-1.27103e-07
-3.34175e-06
-1.03299e-07
-3.2985e-06
-1.26482e-07
-3.22452e-06
-2.08686e-07
-3.12158e-06
-2.99056e-07
-2.94016e-06
-5.29838e-07
-2.7987e-06
-4.07065e-07
-2.60738e-06
-5.45607e-07
-2.35374e-06
-7.16811e-07
-2.02702e-06
-9.15262e-07
-1.62047e-06
-1.12889e-06
-1.13544e-06
-1.33543e-06
-5.86032e-07
-1.50259e-06
2.0512e-17
-1.59689e-06
5.86032e-07
-1.59689e-06
1.13544e-06
-1.50259e-06
1.62047e-06
-1.33543e-06
2.02702e-06
-1.12889e-06
2.35374e-06
-9.15262e-07
2.60738e-06
-7.16811e-07
2.7987e-06
-5.45607e-07
2.94016e-06
-4.07065e-07
3.12158e-06
-5.29838e-07
3.22452e-06
-2.99056e-07
3.2985e-06
-2.08686e-07
3.34175e-06
-1.26482e-07
3.3769e-06
-1.03299e-07
3.42174e-06
-1.27103e-07
3.47842e-06
-1.5432e-07
3.51141e-06
-9.74116e-08
3.53947e-06
-8.25091e-08
3.56934e-06
-8.47841e-08
3.58731e-06
-5.67493e-08
3.60937e-06
-6.57941e-08
3.6335e-06
-6.87469e-08
3.62801e-06
-4.94533e-09
3.66835e-06
-1.26082e-07
3.78848e-06
-3.19155e-07
3.81564e-06
-1.07937e-07
3.85782e-06
-1.34452e-07
3.8556e-06
-3.95416e-08
3.87013e-06
-5.63812e-08
3.40504e-06
9.58317e-07
2.93589e-06
3.4891e-07
2.39073e-07
2.81965e-06
2.4636e-07
1.73581e-06
2.15898e-07
1.62671e-06
5.53234e-07
1.98573e-06
3.33932e-07
5.40185e-07
2.28714e-07
2.92391e-07
1.56133e-07
2.02572e-07
9.81907e-08
1.60606e-07
4.7541e-08
1.39867e-07
1.31086e-07
-5.15403e-08
1.82627e-07
-1.06272e-07
1.94599e-07
-1.68365e-07
2.227e-07
-2.44682e-07
2.78889e-07
-3.49225e-07
3.96934e-07
-5.07399e-07
6.98359e-07
-2.61489e-07
1.73982e-06
-2.62712e-07
1.62793e-06
-2.96082e-07
1.76918e-06
1.10237e-07
2.41333e-06
-3.93778e-07
8.52925e-07
-3.60992e-06
4.17446e-06
-3.94574e-06
2.79436e-07
-4.08603e-06
1.00748e-07
-4.07415e-06
-1.46337e-07
-4.08041e-06
-1.01676e-07
-3.93361e-06
-4.65946e-07
-3.9015e-06
-1.582e-07
-3.92439e-06
1.7944e-08
-3.89676e-06
-9.6376e-08
-3.87481e-06
-8.77456e-08
-3.85972e-06
-7.18307e-08
-3.82678e-06
-1.17731e-07
-3.7988e-06
-1.10491e-07
-3.76698e-06
-1.2923e-07
-3.70069e-06
-2.20607e-07
-3.6531e-06
-1.74691e-07
-3.61887e-06
-1.37526e-07
-3.57661e-06
-1.68741e-07
-3.49748e-06
-2.87818e-07
-3.39596e-06
-4.00583e-07
-3.22054e-06
-7.05259e-07
-3.07882e-06
-5.48783e-07
-2.88296e-06
-7.41465e-07
-2.6177e-06
-9.82072e-07
-2.26911e-06
-1.26385e-06
-1.82636e-06
-1.57165e-06
-1.28748e-06
-1.87431e-06
-6.67261e-07
-2.12281e-06
5.1972e-18
-2.26416e-06
6.67261e-07
-2.26416e-06
1.28748e-06
-2.12281e-06
1.82636e-06
-1.87431e-06
2.26911e-06
-1.57165e-06
2.6177e-06
-1.26385e-06
2.88296e-06
-9.82072e-07
3.07882e-06
-7.41465e-07
3.22054e-06
-5.48783e-07
3.39596e-06
-7.05259e-07
3.49748e-06
-4.00583e-07
3.57661e-06
-2.87818e-07
3.61887e-06
-1.68741e-07
3.6531e-06
-1.37526e-07
3.70069e-06
-1.74691e-07
3.76698e-06
-2.20607e-07
3.7988e-06
-1.2923e-07
3.82678e-06
-1.10491e-07
3.85972e-06
-1.17731e-07
3.87481e-06
-7.18307e-08
3.89676e-06
-8.77456e-08
3.92439e-06
-9.6376e-08
3.9015e-06
1.7944e-08
3.93361e-06
-1.582e-07
4.08041e-06
-4.65946e-07
4.07415e-06
-1.01676e-07
4.08603e-06
-1.46337e-07
3.94574e-06
1.00748e-07
3.60992e-06
2.79436e-07
3.93778e-07
4.17446e-06
-1.10237e-07
8.52925e-07
2.96082e-07
2.41333e-06
2.62712e-07
1.76918e-06
2.61489e-07
1.62793e-06
5.07399e-07
1.73982e-06
3.49225e-07
6.98359e-07
2.44682e-07
3.96934e-07
1.68365e-07
2.78889e-07
1.06272e-07
2.227e-07
5.15403e-08
1.94599e-07
1.82627e-07
-5.55403e-08
2.38167e-07
-1.14237e-07
2.53295e-07
-1.80019e-07
2.88482e-07
-2.58609e-07
3.57478e-07
-3.58103e-07
4.96428e-07
-4.70374e-07
8.1063e-07
-2.96063e-07
1.5655e-06
-2.76465e-07
1.60833e-06
-2.71463e-07
1.76417e-06
-8.17218e-09
2.15004e-06
-5.01526e-07
1.34628e-06
4.065e-07
3.26644e-06
-3.42962e-07
1.0289e-06
-3.57827e-06
3.33606e-06
-4.10289e-06
3.78275e-07
-4.32719e-06
1.22631e-07
-4.17504e-06
-6.181e-07
-4.17724e-06
-1.55998e-07
-4.23895e-06
7.96571e-08
-4.20641e-06
-1.28922e-07
-4.18683e-06
-1.07328e-07
-4.17884e-06
-7.98148e-08
-4.14108e-06
-1.55488e-07
-4.11465e-06
-1.36921e-07
-4.08752e-06
-1.56363e-07
-4.00538e-06
-3.02746e-07
-3.95539e-06
-2.24688e-07
-3.92464e-06
-1.68276e-07
-3.88664e-06
-2.06733e-07
-3.80076e-06
-3.73706e-07
-3.70684e-06
-4.94502e-07
-3.55218e-06
-8.59916e-07
-3.41854e-06
-6.82419e-07
-3.22617e-06
-9.33842e-07
-2.95569e-06
-1.25255e-06
-2.58855e-06
-1.63099e-06
-2.10635e-06
-2.05385e-06
-1.49951e-06
-2.48114e-06
-7.82362e-07
-2.83996e-06
4.1864e-18
-3.04652e-06
7.82362e-07
-3.04652e-06
1.49951e-06
-2.83996e-06
2.10635e-06
-2.48114e-06
2.58855e-06
-2.05385e-06
2.95569e-06
-1.63099e-06
3.22617e-06
-1.25255e-06
3.41854e-06
-9.33842e-07
3.55218e-06
-6.82419e-07
3.70684e-06
-8.59916e-07
3.80076e-06
-4.94502e-07
3.88664e-06
-3.73706e-07
3.92464e-06
-2.06733e-07
3.95539e-06
-1.68276e-07
4.00538e-06
-2.24688e-07
4.08752e-06
-3.02746e-07
4.11465e-06
-1.56363e-07
4.14108e-06
-1.36921e-07
4.17884e-06
-1.55488e-07
4.18683e-06
-7.98148e-08
4.20641e-06
-1.07328e-07
4.23895e-06
-1.28922e-07
4.17724e-06
7.96571e-08
4.17504e-06
-1.55998e-07
4.32719e-06
-6.181e-07
4.10289e-06
1.22631e-07
3.57827e-06
3.78275e-07
3.42962e-07
3.33606e-06
-4.065e-07
1.0289e-06
5.01526e-07
3.26644e-06
8.17218e-09
1.34628e-06
2.71463e-07
2.15004e-06
2.76465e-07
1.76417e-06
2.96063e-07
1.60833e-06
4.70374e-07
1.5655e-06
3.58103e-07
8.1063e-07
2.58609e-07
4.96428e-07
1.80019e-07
3.57478e-07
1.14237e-07
2.88482e-07
5.55403e-08
2.53295e-07
2.38167e-07
-5.94124e-08
2.97579e-07
-1.21796e-07
3.15679e-07
-1.90583e-07
3.57269e-07
-2.6982e-07
4.36716e-07
-3.61507e-07
5.88116e-07
-4.40793e-07
8.89915e-07
-3.20467e-07
1.44518e-06
-2.87724e-07
1.57559e-06
-2.59346e-07
1.7358e-06
-8.89537e-08
1.97965e-06
-3.58992e-07
1.61632e-06
2.2318e-07
2.68426e-06
-2.39273e-07
1.49135e-06
4.37819e-07
2.65897e-06
-2.03698e-07
1.01979e-06
-2.32583e-06
2.24476e-06
-3.97424e-06
1.03032e-06
-4.30232e-06
1.72079e-07
-4.52641e-06
3.03746e-07
-4.51095e-06
-1.44382e-07
-4.50953e-06
-1.08752e-07
-4.52212e-06
-6.72195e-08
-4.47834e-06
-1.99266e-07
-4.45758e-06
-1.57682e-07
-4.44348e-06
-1.70464e-07
-4.3339e-06
-4.12322e-07
-4.28317e-06
-2.75421e-07
-4.26024e-06
-1.91207e-07
-4.23253e-06
-2.34439e-07
-4.13526e-06
-4.70978e-07
-4.05801e-06
-5.71749e-07
-3.94697e-06
-9.70956e-07
-3.83551e-06
-7.93888e-07
-3.66052e-06
-1.10883e-06
-3.39697e-06
-1.5161e-06
-3.02087e-06
-2.00709e-06
-2.4999e-06
-2.57481e-06
-1.80715e-06
-3.1739e-06
-9.52563e-07
-3.69454e-06
-4.72087e-18
-3.99908e-06
9.52563e-07
-3.99908e-06
1.80715e-06
-3.69454e-06
2.4999e-06
-3.1739e-06
3.02087e-06
-2.57481e-06
3.39697e-06
-2.00709e-06
3.66052e-06
-1.5161e-06
3.83551e-06
-1.10883e-06
3.94697e-06
-7.93888e-07
4.05801e-06
-9.70956e-07
4.13526e-06
-5.71749e-07
4.23253e-06
-4.70978e-07
4.26024e-06
-2.34439e-07
4.28317e-06
-1.91207e-07
4.3339e-06
-2.75421e-07
4.44348e-06
-4.12322e-07
4.45758e-06
-1.70464e-07
4.47834e-06
-1.57682e-07
4.52212e-06
-1.99266e-07
4.50953e-06
-6.72195e-08
4.51095e-06
-1.08752e-07
4.52641e-06
-1.44382e-07
4.30232e-06
3.03746e-07
3.97424e-06
1.72079e-07
2.32583e-06
1.03032e-06
2.03698e-07
2.24476e-06
-4.37819e-07
1.01979e-06
2.39273e-07
2.65897e-06
-2.2318e-07
1.49135e-06
3.58992e-07
2.68426e-06
8.89537e-08
1.61632e-06
2.59346e-07
1.97965e-06
2.87724e-07
1.7358e-06
3.20467e-07
1.57559e-06
4.40793e-07
1.44518e-06
3.61507e-07
8.89915e-07
2.6982e-07
5.88116e-07
1.90583e-07
4.36716e-07
1.21796e-07
3.57269e-07
5.94124e-08
3.15679e-07
2.97579e-07
-6.29979e-08
3.60577e-07
-1.2861e-07
3.81291e-07
-1.99524e-07
4.28183e-07
-2.77819e-07
5.1501e-07
-3.60377e-07
6.70674e-07
-4.16993e-07
9.46531e-07
-3.35883e-07
1.36407e-06
-2.96402e-07
1.53611e-06
-2.55262e-07
1.69466e-06
-1.41066e-07
1.86545e-06
-2.65891e-07
1.74114e-06
1.01967e-07
2.31641e-06
-1.22647e-07
1.71596e-06
2.8396e-07
2.25236e-06
-6.24023e-08
1.36615e-06
2.65467e-07
1.91689e-06
9.71632e-08
1.19862e-06
-5.47523e-07
8.16765e-07
-3.909e-06
3.66522e-06
-4.45006e-06
3.96678e-07
-4.6918e-06
1.32993e-07
-4.83456e-06
7.55391e-08
-4.80922e-06
-2.24613e-07
-4.81389e-06
-1.53008e-07
-4.83692e-06
-1.47433e-07
-4.67884e-06
-5.704e-07
-4.63383e-06
-3.20435e-07
-4.6265e-06
-1.98533e-07
-4.62101e-06
-2.3993e-07
-4.50005e-06
-5.91941e-07
-4.45244e-06
-6.19363e-07
-4.41932e-06
-1.00407e-06
-4.35399e-06
-8.59222e-07
-4.2198e-06
-1.24302e-06
-3.98421e-06
-1.75169e-06
-3.62229e-06
-2.36901e-06
-3.07581e-06
-3.12129e-06
-2.2765e-06
-3.97321e-06
-1.21817e-06
-4.75286e-06
-4.66168e-17
-5.21726e-06
1.21817e-06
-5.21726e-06
2.2765e-06
-4.75286e-06
3.07581e-06
-3.97321e-06
3.62229e-06
-3.12129e-06
3.98421e-06
-2.36901e-06
4.2198e-06
-1.75169e-06
4.35399e-06
-1.24302e-06
4.41932e-06
-8.59222e-07
4.45244e-06
-1.00407e-06
4.50005e-06
-6.19363e-07
4.62101e-06
-5.91941e-07
4.6265e-06
-2.3993e-07
4.63383e-06
-1.98533e-07
4.67884e-06
-3.20435e-07
4.83692e-06
-5.704e-07
4.81389e-06
-1.47433e-07
4.80922e-06
-1.53008e-07
4.83456e-06
-2.24613e-07
4.6918e-06
7.55391e-08
4.45006e-06
1.32993e-07
3.909e-06
3.96678e-07
5.47523e-07
3.66522e-06
-9.71632e-08
8.16765e-07
-2.65467e-07
1.19862e-06
6.24023e-08
1.91689e-06
-2.8396e-07
1.36615e-06
1.22647e-07
2.25236e-06
-1.01967e-07
1.71596e-06
2.65891e-07
2.31641e-06
1.41066e-07
1.74114e-06
2.55262e-07
1.86545e-06
2.96402e-07
1.69466e-06
3.35883e-07
1.53611e-06
4.16993e-07
1.36407e-06
3.60377e-07
9.46531e-07
2.77819e-07
6.70674e-07
1.99524e-07
5.1501e-07
1.2861e-07
4.28183e-07
6.29979e-08
3.81291e-07
3.60577e-07
-6.61142e-08
4.26691e-07
-1.34309e-07
4.49486e-07
-2.06337e-07
5.00212e-07
-2.82298e-07
5.90971e-07
-3.55539e-07
7.43915e-07
-3.9723e-07
9.88222e-07
-3.43626e-07
1.31047e-06
-3.02266e-07
1.49475e-06
-2.55378e-07
1.64777e-06
-1.72629e-07
1.7827e-06
-2.0878e-07
1.77729e-06
2.53575e-08
2.08227e-06
-5.72641e-08
1.79859e-06
1.83812e-07
2.01128e-06
1.08794e-08
1.53909e-06
1.87717e-07
1.74005e-06
5.15723e-08
1.33476e-06
-3.68253e-07
1.23659e-06
6.40134e-07
2.65684e-06
1.05091e-07
9.31721e-07
-5.96589e-07
8.34672e-07
-4.04603e-06
3.52498e-06
-4.67821e-06
4.0757e-07
-4.9691e-06
1.37882e-07
-5.19821e-06
8.16761e-08
-4.99011e-06
-7.78497e-07
-4.98708e-06
-3.23466e-07
-5.01591e-06
-1.69708e-07
-5.06147e-06
-1.94372e-07
-4.88698e-06
-7.66424e-07
-4.88862e-06
-6.17722e-07
-4.98316e-06
-9.09536e-07
-5.00684e-06
-8.35535e-07
-4.95201e-06
-1.29786e-06
-4.77517e-06
-1.92852e-06
-4.48042e-06
-2.66377e-06
-3.95977e-06
-3.64194e-06
-3.03958e-06
-4.8934e-06
-1.66098e-06
-6.13147e-06
-5.68854e-17
-6.87824e-06
1.66098e-06
-6.87824e-06
3.03958e-06
-6.13147e-06
3.95977e-06
-4.8934e-06
4.48042e-06
-3.64194e-06
4.77517e-06
-2.66377e-06
4.95201e-06
-1.92852e-06
5.00684e-06
-1.29786e-06
4.98316e-06
-8.35535e-07
4.88862e-06
-9.09536e-07
4.88698e-06
-6.17722e-07
5.06147e-06
-7.66424e-07
5.01591e-06
-1.94372e-07
4.98708e-06
-1.69708e-07
4.99011e-06
-3.23466e-07
5.19821e-06
-7.78497e-07
4.9691e-06
8.16761e-08
4.67821e-06
1.37882e-07
4.04603e-06
4.0757e-07
5.96589e-07
3.52498e-06
-1.05091e-07
8.34672e-07
-6.40134e-07
9.31721e-07
3.68253e-07
2.65684e-06
-5.15723e-08
1.23659e-06
-1.87717e-07
1.33476e-06
-1.08794e-08
1.74005e-06
-1.83812e-07
1.53909e-06
5.72641e-08
2.01128e-06
-2.53575e-08
1.79859e-06
2.0878e-07
2.08227e-06
1.72629e-07
1.77729e-06
2.55378e-07
1.7827e-06
3.02266e-07
1.64777e-06
3.43626e-07
1.49475e-06
3.9723e-07
1.31047e-06
3.55539e-07
9.88222e-07
2.82298e-07
7.43915e-07
2.06337e-07
5.90971e-07
1.34309e-07
5.00212e-07
6.61142e-08
4.49486e-07
4.26691e-07
-6.8566e-08
4.95257e-07
-1.38524e-07
5.19443e-07
-2.10589e-07
5.72277e-07
-2.8313e-07
6.63512e-07
-3.47632e-07
8.08416e-07
-3.79855e-07
1.02045e-06
-3.44966e-07
1.27558e-06
-3.05019e-07
1.4548e-06
-2.56724e-07
1.59947e-06
-1.90281e-07
1.71626e-06
-1.7615e-07
1.76316e-06
-2.13423e-08
1.92746e-06
-2.59536e-08
1.8032e-06
1.1979e-07
1.86554e-06
4.6755e-08
1.61212e-06
1.35666e-07
1.65114e-06
3.95548e-08
1.43088e-06
-1.57816e-07
1.43396e-06
4.03197e-07
2.09582e-06
9.84511e-08
1.23647e-06
-2.97589e-07
1.23071e-06
7.4352e-07
2.48387e-06
2.44755e-07
9.06335e-07
-3.39308e-07
7.21945e-07
-2.31309e-06
2.05546e-06
-4.46553e-06
1.37394e-06
-4.98079e-06
1.91794e-07
-5.24921e-06
9.87065e-08
-5.50716e-06
6.35834e-08
-5.24243e-06
-1.03115e-06
-5.34278e-06
-5.17375e-07
-5.63616e-06
-6.16152e-07
-5.83744e-06
-6.3426e-07
-5.92713e-06
-1.20817e-06
-5.82767e-06
-2.02798e-06
-5.72115e-06
-2.77029e-06
-5.39605e-06
-3.96705e-06
-4.38603e-06
-5.90341e-06
-2.45885e-06
-8.05865e-06
-7.77644e-17
-9.33709e-06
2.45885e-06
-9.33709e-06
4.38603e-06
-8.05865e-06
5.39605e-06
-5.90341e-06
5.72115e-06
-3.96705e-06
5.82767e-06
-2.77029e-06
5.92713e-06
-2.02798e-06
5.83744e-06
-1.20817e-06
5.63616e-06
-6.3426e-07
5.34278e-06
-6.16152e-07
5.24243e-06
-5.17375e-07
5.50716e-06
-1.03115e-06
5.24921e-06
6.35834e-08
4.98079e-06
9.87065e-08
4.46553e-06
1.91794e-07
2.31309e-06
1.37394e-06
3.39308e-07
2.05546e-06
-2.44755e-07
7.21945e-07
-7.4352e-07
9.06335e-07
2.97589e-07
2.48387e-06
-9.84511e-08
1.23071e-06
-4.03197e-07
1.23647e-06
1.57816e-07
2.09582e-06
-3.95548e-08
1.43396e-06
-1.35666e-07
1.43088e-06
-4.6755e-08
1.65114e-06
-1.1979e-07
1.61212e-06
2.59536e-08
1.86554e-06
2.13423e-08
1.8032e-06
1.7615e-07
1.92746e-06
1.90281e-07
1.76316e-06
2.56724e-07
1.71626e-06
3.05019e-07
1.59947e-06
3.44966e-07
1.4548e-06
3.79855e-07
1.27558e-06
3.47632e-07
1.02045e-06
2.8313e-07
8.08416e-07
2.10589e-07
6.63512e-07
1.38524e-07
5.72277e-07
6.8566e-08
5.19443e-07
4.95257e-07
-7.01632e-08
5.6542e-07
-1.40923e-07
5.90203e-07
-2.11962e-07
6.43317e-07
-2.80338e-07
7.31889e-07
-3.37093e-07
8.65171e-07
-3.63451e-07
1.0468e-06
-3.41007e-07
1.25313e-06
-3.04395e-07
1.41819e-06
-2.57237e-07
1.55232e-06
-1.98929e-07
1.65795e-06
-1.58957e-07
1.72319e-06
-4.93119e-08
1.81782e-06
-1.54712e-08
1.76936e-06
7.85634e-08
1.77151e-06
5.94157e-08
1.63127e-06
1.02887e-07
1.60767e-06
4.40279e-08
1.48974e-06
-3.51296e-08
1.51312e-06
2.631e-07
1.79759e-06
1.06784e-07
1.39278e-06
-6.51771e-08
1.40267e-06
4.86668e-07
1.93203e-06
2.30017e-07
1.16299e-06
-8.12999e-08
1.03326e-06
3.35425e-07
1.63874e-06
4.43009e-07
1.26636e-06
2.39663e-08
6.10837e-07
-5.93429e-07
7.16102e-07
-3.02586e-06
2.49601e-06
-4.71702e-06
6.60008e-07
-5.39188e-06
1.57485e-07
-6.09724e-06
8.9216e-08
-6.76066e-06
2.91577e-08
-7.18313e-06
-7.85706e-07
-7.04206e-06
-2.16905e-06
-7.43799e-06
-2.37435e-06
-7.88335e-06
-3.52169e-06
-7.02838e-06
-6.75838e-06
-4.01775e-06
-1.10693e-05
-6.04714e-17
-1.33548e-05
4.01775e-06
-1.33548e-05
7.02838e-06
-1.10693e-05
7.88335e-06
-6.75838e-06
7.43799e-06
-3.52169e-06
7.04206e-06
-2.37435e-06
7.18313e-06
-2.16905e-06
6.76066e-06
-7.85706e-07
6.09724e-06
2.91577e-08
5.39188e-06
8.9216e-08
4.71702e-06
1.57485e-07
3.02586e-06
6.60008e-07
5.93429e-07
2.49601e-06
-2.39663e-08
7.16102e-07
-4.43009e-07
6.10837e-07
-3.35425e-07
1.26636e-06
8.12999e-08
1.63874e-06
-2.30017e-07
1.03326e-06
-4.86668e-07
1.16299e-06
6.51771e-08
1.93203e-06
-1.06784e-07
1.40267e-06
-2.631e-07
1.39278e-06
3.51296e-08
1.79759e-06
-4.40279e-08
1.51312e-06
-1.02887e-07
1.48974e-06
-5.94157e-08
1.60767e-06
-7.85634e-08
1.63127e-06
1.54712e-08
1.77151e-06
4.93119e-08
1.76936e-06
1.58957e-07
1.81782e-06
1.98929e-07
1.72319e-06
2.57237e-07
1.65795e-06
3.04395e-07
1.55232e-06
3.41007e-07
1.41819e-06
3.63451e-07
1.25313e-06
3.37093e-07
1.0468e-06
2.80338e-07
8.65171e-07
2.11962e-07
7.31889e-07
1.40923e-07
6.43317e-07
7.01632e-08
5.90203e-07
5.6542e-07
-7.0742e-08
6.36162e-07
-1.41248e-07
6.60708e-07
-2.10273e-07
7.12342e-07
-2.74058e-07
7.95674e-07
-3.24183e-07
9.15295e-07
-3.469e-07
1.06952e-06
-3.32632e-07
1.23886e-06
-3.00233e-07
1.38579e-06
-2.55653e-07
1.50774e-06
-2.0183e-07
1.60413e-06
-1.50618e-07
1.67198e-06
-6.62388e-08
1.73344e-06
-1.64304e-08
1.71955e-06
5.10028e-08
1.70407e-06
5.92504e-08
1.62302e-06
8.32739e-08
1.58365e-06
5.41552e-08
1.51885e-06
3.28079e-08
1.53447e-06
1.87059e-07
1.64334e-06
1.19604e-07
1.46024e-06
6.12605e-08
1.46102e-06
3.40934e-07
1.65235e-06
2.19757e-07
1.28416e-06
6.26661e-08
1.19035e-06
2.74519e-07
1.42688e-06
3.21515e-07
1.21936e-06
5.26847e-08
8.79667e-07
-2.23917e-07
9.92703e-07
5.32969e-07
1.73912e-06
2.92855e-07
9.00122e-07
-1.04397e-07
5.54737e-07
-7.87057e-07
7.71877e-07
-1.72531e-06
9.67412e-07
-3.68583e-06
1.17481e-06
-5.97313e-06
1.18256e-07
-8.40867e-06
6.1193e-08
-1.19698e-05
3.94212e-08
-1.26813e-05
-6.04685e-06
-7.14897e-06
-1.66016e-05
1.45983e-16
-2.05038e-05
7.14897e-06
-2.05038e-05
1.26813e-05
-1.66016e-05
1.19698e-05
-6.04685e-06
8.40867e-06
3.94212e-08
5.97313e-06
6.1193e-08
3.68583e-06
1.18256e-07
1.72531e-06
1.17481e-06
7.87057e-07
9.67412e-07
1.04397e-07
7.71877e-07
-2.92855e-07
5.54737e-07
-5.32969e-07
9.00122e-07
2.23917e-07
1.73912e-06
-5.26847e-08
9.92703e-07
-3.21515e-07
8.79667e-07
-2.74519e-07
1.21936e-06
-6.26661e-08
1.42688e-06
-2.19757e-07
1.19035e-06
-3.40934e-07
1.28416e-06
-6.12605e-08
1.65235e-06
-1.19604e-07
1.46102e-06
-1.87059e-07
1.46024e-06
-3.28079e-08
1.64334e-06
-5.41552e-08
1.53447e-06
-8.32739e-08
1.51885e-06
-5.92504e-08
1.58365e-06
-5.10028e-08
1.62302e-06
1.64304e-08
1.70407e-06
6.62388e-08
1.71955e-06
1.50618e-07
1.73344e-06
2.0183e-07
1.67198e-06
2.55653e-07
1.60413e-06
3.00233e-07
1.50774e-06
3.32632e-07
1.38579e-06
3.469e-07
1.23886e-06
3.24183e-07
1.06952e-06
2.74058e-07
9.15295e-07
2.10273e-07
7.95674e-07
1.41248e-07
7.12342e-07
7.0742e-08
6.60708e-07
6.36162e-07
-7.01863e-08
7.06349e-07
-1.39347e-07
7.29869e-07
-2.05493e-07
7.78488e-07
-2.64506e-07
8.54687e-07
-3.09044e-07
9.59833e-07
-3.294e-07
1.08988e-06
-3.20514e-07
1.22998e-06
-2.92513e-07
1.35779e-06
-2.51326e-07
1.46655e-06
-2.00902e-07
1.5537e-06
-1.4666e-07
1.61774e-06
-7.68424e-08
1.66362e-06
-2.26905e-08
1.6654e-06
3.14895e-08
1.64989e-06
5.31081e-08
1.6014e-06
7.17897e-08
1.56497e-06
6.41089e-08
1.52653e-06
6.88313e-08
1.52974e-06
1.4993e-07
1.56224e-06
1.31419e-07
1.47875e-06
1.24916e-07
1.46752e-06
2.62866e-07
1.5144e-06
2.12733e-07
1.3343e-06
1.40092e-07
1.26299e-06
2.38492e-07
1.32848e-06
2.50164e-07
1.20769e-06
9.18876e-08
1.03794e-06
-2.04107e-08
1.105e-06
3.31456e-07
1.38726e-06
2.17012e-07
1.01457e-06
-4.89962e-08
8.20745e-07
-2.75958e-07
9.98838e-07
3.53414e-08
6.56112e-07
5.47356e-07
6.62794e-07
2.34967e-07
4.30646e-07
-5.70501e-08
3.5321e-07
-3.90191e-07
3.72562e-07
-6.28249e-06
-1.54551e-07
-9.83874e-06
-1.30454e-05
8.65414e-17
-3.03426e-05
9.83874e-06
-3.03426e-05
6.28249e-06
-1.30454e-05
3.90191e-07
-1.54551e-07
5.70501e-08
3.72562e-07
-2.34967e-07
3.5321e-07
-5.47356e-07
4.30646e-07
-3.53414e-08
6.62794e-07
2.75958e-07
6.56112e-07
4.89962e-08
9.98838e-07
-2.17012e-07
8.20745e-07
-3.31456e-07
1.01457e-06
2.04107e-08
1.38726e-06
-9.18876e-08
1.105e-06
-2.50164e-07
1.03794e-06
-2.38492e-07
1.20769e-06
-1.40092e-07
1.32848e-06
-2.12733e-07
1.26299e-06
-2.62866e-07
1.3343e-06
-1.24916e-07
1.5144e-06
-1.31419e-07
1.46752e-06
-1.4993e-07
1.47875e-06
-6.88313e-08
1.56224e-06
-6.41089e-08
1.52974e-06
-7.17897e-08
1.52653e-06
-5.31081e-08
1.56497e-06
-3.14895e-08
1.6014e-06
2.26905e-08
1.64989e-06
7.68424e-08
1.6654e-06
1.4666e-07
1.66362e-06
2.00902e-07
1.61774e-06
2.51326e-07
1.5537e-06
2.92513e-07
1.46655e-06
3.20514e-07
1.35779e-06
3.294e-07
1.22998e-06
3.09044e-07
1.08988e-06
2.64506e-07
9.59833e-07
2.05493e-07
8.54687e-07
1.39347e-07
7.78488e-07
7.01863e-08
7.29869e-07
7.06349e-07
-6.84458e-08
7.74794e-07
-1.35193e-07
7.96617e-07
-1.97734e-07
8.41029e-07
-2.51955e-07
9.08907e-07
-2.91769e-07
9.99648e-07
-3.10445e-07
1.10855e-06
-3.0516e-07
1.22469e-06
-2.81363e-07
1.33399e-06
-2.44029e-07
1.42921e-06
-1.97115e-07
1.50679e-06
-1.44207e-07
1.56483e-06
-8.36379e-08
1.60305e-06
-3.05147e-08
1.61227e-06
1.69402e-08
1.60244e-06
4.50253e-08
1.57332e-06
6.47927e-08
1.5452e-06
7.14812e-08
1.51985e-06
8.72913e-08
1.51393e-06
1.34144e-07
1.51539e-06
1.40068e-07
1.47283e-06
1.54027e-07
1.45356e-06
2.22951e-07
1.44548e-06
2.07453e-07
1.34979e-06
1.77426e-07
1.29302e-06
2.17743e-07
1.28817e-06
2.12779e-07
1.21265e-06
1.25123e-07
1.1256e-06
8.00546e-08
1.15007e-06
2.28286e-07
1.23903e-06
1.6768e-07
1.07517e-06
1.08966e-08
9.77528e-07
-6.27624e-08
1.0725e-06
5.10397e-08
5.4231e-07
1.73811e-07
5.40022e-07
1.15437e-07
4.8902e-07
8.45201e-09
4.60195e-07
-8.56708e-08
4.66685e-07
-1.04415e-07
-1.35807e-07
-1.96264e-06
-1.11871e-05
-7.86064e-17
-3.23052e-05
1.96264e-06
-3.23052e-05
1.04415e-07
-1.11871e-05
8.56708e-08
-1.35807e-07
-8.45201e-09
4.66685e-07
-1.15437e-07
4.60195e-07
-1.73811e-07
4.8902e-07
-5.10397e-08
5.40022e-07
6.27624e-08
5.4231e-07
-1.08966e-08
1.0725e-06
-1.6768e-07
9.77528e-07
-2.28286e-07
1.07517e-06
-8.00546e-08
1.23903e-06
-1.25123e-07
1.15007e-06
-2.12779e-07
1.1256e-06
-2.17743e-07
1.21265e-06
-1.77426e-07
1.28817e-06
-2.07453e-07
1.29302e-06
-2.22951e-07
1.34979e-06
-1.54027e-07
1.44548e-06
-1.40068e-07
1.45356e-06
-1.34144e-07
1.47283e-06
-8.72913e-08
1.51539e-06
-7.14812e-08
1.51393e-06
-6.47927e-08
1.51985e-06
-4.50253e-08
1.5452e-06
-1.69402e-08
1.57332e-06
3.05147e-08
1.60244e-06
8.36379e-08
1.61227e-06
1.44207e-07
1.60305e-06
1.97115e-07
1.56483e-06
2.44029e-07
1.50679e-06
2.81363e-07
1.42921e-06
3.0516e-07
1.33399e-06
3.10445e-07
1.22469e-06
2.91769e-07
1.10855e-06
2.51955e-07
9.99648e-07
1.97734e-07
9.08907e-07
1.35193e-07
8.41029e-07
6.84458e-08
7.96617e-07
7.74794e-07
-6.5545e-08
8.40339e-07
-1.28892e-07
8.59964e-07
-1.87242e-07
8.99379e-07
-2.3673e-07
9.58395e-07
-2.7247e-07
1.03539e-06
-2.89793e-07
1.12588e-06
-2.86984e-07
1.22188e-06
-2.6703e-07
1.31404e-06
-2.33787e-07
1.39597e-06
-1.9086e-07
1.46386e-06
-1.4148e-07
1.51545e-06
-8.77094e-08
1.54928e-06
-3.7764e-08
1.56233e-06
5.86648e-09
1.55881e-06
3.71066e-08
1.54208e-06
5.99971e-08
1.52231e-06
7.58211e-08
1.50402e-06
9.63796e-08
1.49338e-06
1.28547e-07
1.48322e-06
1.45219e-07
1.45615e-06
1.65411e-07
1.43337e-06
2.0276e-07
1.40813e-06
2.0275e-07
1.3498e-06
1.92485e-07
1.30329e-06
2.05855e-07
1.2748e-06
1.95371e-07
1.22314e-06
1.47922e-07
1.17305e-06
1.26647e-07
1.17135e-06
1.78847e-07
1.18683e-06
1.41282e-07
1.11274e-06
5.34175e-08
1.06539e-06
2.0454e-08
1.10546e-06
5.09247e-08
5.11839e-07
7.79035e-08
5.13044e-07
6.29e-08
5.04023e-07
2.43231e-08
4.98772e-07
-1.36168e-08
5.04625e-07
-1.69655e-08
-1.32458e-07
-4.42939e-07
-1.07612e-05
2.87602e-18
-3.27481e-05
4.42939e-07
-3.27481e-05
1.69655e-08
-1.07612e-05
1.36168e-08
-1.32458e-07
-2.43231e-08
5.04625e-07
-6.29e-08
4.98772e-07
-7.79035e-08
5.04023e-07
-5.09247e-08
5.13044e-07
-2.0454e-08
5.11839e-07
-5.34175e-08
1.10546e-06
-1.41282e-07
1.06539e-06
-1.78847e-07
1.11274e-06
-1.26647e-07
1.18683e-06
-1.47922e-07
1.17135e-06
-1.95371e-07
1.17305e-06
-2.05855e-07
1.22314e-06
-1.92485e-07
1.2748e-06
-2.0275e-07
1.30329e-06
-2.0276e-07
1.3498e-06
-1.65411e-07
1.40813e-06
-1.45219e-07
1.43337e-06
-1.28547e-07
1.45615e-06
-9.63796e-08
1.48322e-06
-7.58211e-08
1.49338e-06
-5.99971e-08
1.50402e-06
-3.71066e-08
1.52231e-06
-5.86648e-09
1.54208e-06
3.7764e-08
1.55881e-06
8.77094e-08
1.56233e-06
1.4148e-07
1.54928e-06
1.9086e-07
1.51545e-06
2.33787e-07
1.46386e-06
2.6703e-07
1.39597e-06
2.86984e-07
1.31404e-06
2.89793e-07
1.22188e-06
2.7247e-07
1.12588e-06
2.3673e-07
1.03539e-06
1.87242e-07
9.58395e-07
1.28892e-07
8.99379e-07
6.5545e-08
8.59964e-07
8.40339e-07
-6.15834e-08
9.01923e-07
-1.20669e-07
9.19049e-07
-1.74372e-07
9.53082e-07
-2.1921e-07
1.00323e-06
-2.51321e-07
1.0675e-06
-2.67422e-07
1.14198e-06
-2.66365e-07
1.22083e-06
-2.49849e-07
1.29752e-06
-2.20762e-07
1.36688e-06
-1.82245e-07
1.42535e-06
-1.37406e-07
1.47061e-06
-8.93486e-08
1.50122e-06
-4.32701e-08
1.51625e-06
-2.35237e-09
1.51789e-06
3.03142e-08
1.50941e-06
5.62017e-08
1.49642e-06
7.75702e-08
1.48265e-06
1.00379e-07
1.47057e-06
1.26773e-07
1.45683e-06
1.47311e-07
1.43562e-06
1.6817e-07
1.41251e-06
1.91757e-07
1.38454e-06
1.97947e-07
1.34361e-06
1.96159e-07
1.30507e-06
1.9865e-07
1.27231e-06
1.87979e-07
1.23381e-06
1.6135e-07
1.19968e-06
1.47041e-07
1.18565e-06
1.57247e-07
1.17662e-06
1.30092e-07
1.13989e-06
7.96365e-08
1.11585e-06
5.60192e-08
1.12908e-06
5.9058e-08
5.08801e-07
6.14594e-08
5.10642e-07
5.5026e-08
5.10457e-07
4.28406e-08
5.10957e-07
3.36505e-08
5.13815e-07
2.23236e-08
-1.21131e-07
-2.42438e-07
-1.04964e-05
1.62735e-17
-3.29906e-05
2.42438e-07
-3.29906e-05
-2.23236e-08
-1.04964e-05
-3.36505e-08
-1.21131e-07
-4.28406e-08
5.13815e-07
-5.5026e-08
5.10957e-07
-6.14594e-08
5.10457e-07
-5.9058e-08
5.10642e-07
-5.60192e-08
5.08801e-07
-7.96365e-08
1.12908e-06
-1.30092e-07
1.11585e-06
-1.57247e-07
1.13989e-06
-1.47041e-07
1.17662e-06
-1.6135e-07
1.18565e-06
-1.87979e-07
1.19968e-06
-1.9865e-07
1.23381e-06
-1.96159e-07
1.27231e-06
-1.97947e-07
1.30507e-06
-1.91757e-07
1.34361e-06
-1.6817e-07
1.38454e-06
-1.47311e-07
1.41251e-06
-1.26773e-07
1.43562e-06
-1.00379e-07
1.45683e-06
-7.75702e-08
1.47057e-06
-5.62017e-08
1.48265e-06
-3.03142e-08
1.49642e-06
2.35237e-09
1.50941e-06
4.32701e-08
1.51789e-06
8.93486e-08
1.51625e-06
1.37406e-07
1.50122e-06
1.82245e-07
1.47061e-06
2.20762e-07
1.42535e-06
2.49849e-07
1.36688e-06
2.66365e-07
1.29752e-06
2.67422e-07
1.22083e-06
2.51321e-07
1.14198e-06
2.1921e-07
1.0675e-06