/*--------------------------------*- C++ -*----------------------------------*\
  =========                 |
  \\      /  F ield         | OpenFOAM: The Open Source CFD Toolbox
   \\    /   O peration     | Website:  https://openfoam.org
    \\  /    A nd           | Version:  10
     \\/     M anipulation  |
\*---------------------------------------------------------------------------*/
FoamFile
{
    format      ascii;
    class       surfaceScalarField;
    location    "19900";
    object      phi;
}
// * * * * * * * * * * * * * * * * * * * * * * * * * * * * * * * * * * * * * //

dimensions      [0 3 -1 0 0 0 0];

internalField   nonuniform List<scalar> 
12640
(
-5.06849e-08
5.06849e-08
-1.068e-07
5.61151e-08
-1.76947e-07
7.01471e-08
-2.77707e-07
1.00759e-07
-4.17765e-07
1.40059e-07
-3.43252e-06
3.01475e-06
-3.3655e-06
-6.70169e-08
-3.02246e-06
-3.43034e-07
-3.35964e-06
3.3718e-07
-3.32798e-06
-3.16681e-08
-3.29433e-06
-3.36488e-08
-3.26459e-06
-2.97399e-08
-3.35247e-06
8.78802e-08
-3.32992e-06
-2.25527e-08
-3.28612e-06
-4.3798e-08
-3.16711e-06
-1.19007e-07
-3.12022e-06
-4.68904e-08
-3.11768e-06
-2.54007e-09
-3.09718e-06
-2.05029e-08
-3.0756e-06
-2.15737e-08
-3.05416e-06
-2.14466e-08
-3.02305e-06
-3.1107e-08
-2.99399e-06
-2.90609e-08
-2.96116e-06
-3.28255e-08
-2.91325e-06
-4.79157e-08
-2.87279e-06
-4.04576e-08
-2.84039e-06
-3.23959e-08
-2.80412e-06
-3.62714e-08
-2.75165e-06
-5.24736e-08
-2.68813e-06
-6.35163e-08
-2.59453e-06
-9.36039e-08
-2.41968e-06
-1.74854e-07
-2.28917e-06
-1.30504e-07
-2.11816e-06
-1.71011e-07
-1.89858e-06
-2.19584e-07
-1.6234e-06
-2.75172e-07
-1.28895e-06
-3.34457e-07
-8.97874e-07
-3.91073e-07
-4.61576e-07
-4.36298e-07
-9.43328e-18
-4.61576e-07
4.61576e-07
-4.61576e-07
8.97874e-07
-4.36298e-07
1.28895e-06
-3.91073e-07
1.6234e-06
-3.34457e-07
1.89858e-06
-2.75172e-07
2.11816e-06
-2.19584e-07
2.28917e-06
-1.71011e-07
2.41968e-06
-1.30504e-07
2.59453e-06
-1.74854e-07
2.68813e-06
-9.36039e-08
2.75165e-06
-6.35163e-08
2.80412e-06
-5.24736e-08
2.84039e-06
-3.62714e-08
2.87279e-06
-3.23959e-08
2.91325e-06
-4.04576e-08
2.96116e-06
-4.79157e-08
2.99399e-06
-3.28255e-08
3.02305e-06
-2.90609e-08
3.05416e-06
-3.1107e-08
3.0756e-06
-2.14466e-08
3.09718e-06
-2.15737e-08
3.11768e-06
-2.05029e-08
3.12022e-06
-2.54007e-09
3.16711e-06
-4.68904e-08
3.28612e-06
-1.19007e-07
3.32992e-06
-4.3798e-08
3.35247e-06
-2.25527e-08
3.26459e-06
8.78802e-08
3.29433e-06
-2.97399e-08
3.32798e-06
-3.36488e-08
3.35964e-06
-3.16681e-08
3.02246e-06
3.3718e-07
3.3655e-06
-3.43034e-07
3.43252e-06
-6.70169e-08
4.17765e-07
3.01475e-06
2.77707e-07
1.40059e-07
1.76947e-07
1.00759e-07
1.068e-07
7.01471e-08
5.06849e-08
5.61151e-08
5.06849e-08
-5.53345e-08
1.06019e-07
-1.16474e-07
1.17255e-07
-1.92626e-07
1.46298e-07
-3.07565e-07
2.15698e-07
-6.03405e-07
4.35899e-07
-1.31323e-07
2.54267e-06
-2.52853e-06
2.33019e-06
-3.06421e-06
1.92644e-07
-3.53856e-06
8.11528e-07
-3.51755e-06
-5.26814e-08
-3.49688e-06
-5.43121e-08
-3.46954e-06
-5.70836e-08
-3.58059e-06
1.98936e-07
-3.5575e-06
-4.56441e-08
-3.51727e-06
-8.40275e-08
-3.38614e-06
-2.5014e-07
-3.33986e-06
-9.31703e-08
-3.34228e-06
-1.17882e-10
-3.32137e-06
-4.142e-08
-3.29979e-06
-4.31535e-08
-3.27865e-06
-4.25821e-08
-3.24594e-06
-6.38145e-08
-3.2161e-06
-5.8901e-08
-3.18234e-06
-6.65873e-08
-3.13063e-06
-9.96259e-08
-3.08787e-06
-8.32192e-08
-3.05428e-06
-6.59889e-08
-3.01645e-06
-7.40988e-08
-2.96029e-06
-1.08633e-07
-2.89333e-06
-1.30481e-07
-2.79542e-06
-1.91506e-07
-2.6115e-06
-3.58776e-07
-2.47308e-06
-2.68926e-07
-2.29104e-06
-3.53049e-07
-2.05645e-06
-4.54176e-07
-1.76122e-06
-5.70403e-07
-1.40065e-06
-6.95025e-07
-9.77068e-07
-8.14656e-07
-5.02771e-07
-9.10596e-07
-9.1073e-18
-9.64347e-07
5.02771e-07
-9.64347e-07
9.77068e-07
-9.10596e-07
1.40065e-06
-8.14656e-07
1.76122e-06
-6.95025e-07
2.05645e-06
-5.70403e-07
2.29104e-06
-4.54176e-07
2.47308e-06
-3.53049e-07
2.6115e-06
-2.68926e-07
2.79542e-06
-3.58776e-07
2.89333e-06
-1.91506e-07
2.96029e-06
-1.30481e-07
3.01645e-06
-1.08633e-07
3.05428e-06
-7.40988e-08
3.08787e-06
-6.59889e-08
3.13063e-06
-8.32192e-08
3.18234e-06
-9.96259e-08
3.2161e-06
-6.65873e-08
3.24594e-06
-5.8901e-08
3.27865e-06
-6.38145e-08
3.29979e-06
-4.25821e-08
3.32137e-06
-4.31535e-08
3.34228e-06
-4.142e-08
3.33986e-06
-1.17882e-10
3.38614e-06
-9.31703e-08
3.51727e-06
-2.5014e-07
3.5575e-06
-8.40275e-08
3.58059e-06
-4.56441e-08
3.46954e-06
1.98936e-07
3.49688e-06
-5.70836e-08
3.51755e-06
-5.43121e-08
3.53856e-06
-5.26814e-08
3.06421e-06
8.11528e-07
2.52853e-06
1.92644e-07
1.31323e-07
2.33019e-06
6.03405e-07
2.54267e-06
3.07565e-07
4.35899e-07
1.92626e-07
2.15698e-07
1.16474e-07
1.46298e-07
5.53345e-08
1.17255e-07
1.06019e-07
-6.005e-08
1.66069e-07
-1.26092e-07
1.83297e-07
-2.0731e-07
2.27516e-07
-3.24758e-07
3.33147e-07
-5.41411e-07
6.52553e-07
-1.90453e-07
2.19171e-06
6.30193e-08
2.07672e-06
-2.86926e-07
5.42589e-07
-3.46178e-06
3.98638e-06
-3.65749e-06
1.43034e-07
-3.70403e-06
-7.77093e-09
-3.68696e-06
-7.41532e-08
-3.84761e-06
3.59582e-07
-3.81963e-06
-7.36226e-08
-3.78933e-06
-1.14328e-07
-3.63377e-06
-4.057e-07
-3.59061e-06
-1.36334e-07
-3.60324e-06
1.25143e-08
-3.58033e-06
-6.43272e-08
-3.55853e-06
-6.49576e-08
-3.53833e-06
-6.27771e-08
-3.50271e-06
-9.94404e-08
-3.47222e-06
-8.93837e-08
-3.43809e-06
-1.00723e-07
-3.38017e-06
-1.57546e-07
-3.33459e-06
-1.28795e-07
-3.30032e-06
-1.00255e-07
-3.26147e-06
-1.12958e-07
-3.20049e-06
-1.69612e-07
-3.13072e-06
-2.00246e-07
-3.03125e-06
-2.90975e-07
-2.84254e-06
-5.47488e-07
-2.69778e-06
-4.13683e-07
-2.50591e-06
-5.44921e-07
-2.25665e-06
-7.03438e-07
-1.93988e-06
-8.87169e-07
-1.54863e-06
-1.08628e-06
-1.08388e-06
-1.2794e-06
-5.58986e-07
-1.43549e-06
-1.50499e-17
-1.52333e-06
5.58986e-07
-1.52333e-06
1.08388e-06
-1.43549e-06
1.54863e-06
-1.2794e-06
1.93988e-06
-1.08628e-06
2.25665e-06
-8.87169e-07
2.50591e-06
-7.03438e-07
2.69778e-06
-5.44921e-07
2.84254e-06
-4.13683e-07
3.03125e-06
-5.47488e-07
3.13072e-06
-2.90975e-07
3.20049e-06
-2.00246e-07
3.26147e-06
-1.69612e-07
3.30032e-06
-1.12958e-07
3.33459e-06
-1.00255e-07
3.38017e-06
-1.28795e-07
3.43809e-06
-1.57546e-07
3.47222e-06
-1.00723e-07
3.50271e-06
-8.93837e-08
3.53833e-06
-9.94404e-08
3.55853e-06
-6.27771e-08
3.58033e-06
-6.49576e-08
3.60324e-06
-6.43272e-08
3.59061e-06
1.25143e-08
3.63377e-06
-1.36334e-07
3.78933e-06
-4.057e-07
3.81963e-06
-1.14328e-07
3.84761e-06
-7.36226e-08
3.68696e-06
3.59582e-07
3.70403e-06
-7.41532e-08
3.65749e-06
-7.77093e-09
3.46178e-06
1.43034e-07
2.86926e-07
3.98638e-06
-6.30193e-08
5.42589e-07
1.90453e-07
2.07672e-06
5.41411e-07
2.19171e-06
3.24758e-07
6.52553e-07
2.0731e-07
3.33147e-07
1.26092e-07
2.27516e-07
6.005e-08
1.83297e-07
1.66069e-07
-6.46797e-08
2.30749e-07
-1.3526e-07
2.53877e-07
-2.20119e-07
3.12375e-07
-3.34239e-07
4.47267e-07
-4.87995e-07
8.06308e-07
-2.16801e-07
1.92052e-06
-3.63186e-08
1.89624e-06
-5.35826e-07
1.0421e-06
2.95447e-07
3.1551e-06
-5.05209e-07
9.4369e-07
-3.5876e-06
3.07462e-06
-3.8065e-06
1.4474e-07
-4.11582e-06
6.6891e-07
-4.09088e-06
-9.85607e-08
-4.09115e-06
-1.14062e-07
-3.89389e-06
-6.02963e-07
-3.8613e-06
-1.68927e-07
-3.89429e-06
4.55086e-08
-3.86707e-06
-9.15477e-08
-3.84544e-06
-8.65834e-08
-3.82797e-06
-8.02526e-08
-3.78759e-06
-1.3982e-07
-3.75722e-06
-1.19753e-07
-3.72435e-06
-1.33589e-07
-3.65657e-06
-2.25328e-07
-3.60794e-06
-1.77432e-07
-3.57426e-06
-1.33931e-07
-3.5357e-06
-1.51515e-07
-3.46829e-06
-2.37022e-07
-3.39721e-06
-2.71332e-07
-3.3011e-06
-3.87079e-07
-3.11565e-06
-7.32943e-07
-2.96803e-06
-5.61303e-07
-2.76963e-06
-7.43322e-07
-2.50832e-06
-9.64746e-07
-2.17046e-06
-1.22502e-06
-1.74452e-06
-1.51222e-06
-1.22823e-06
-1.7957e-06
-6.35959e-07
-2.02776e-06
-3.85233e-17
-2.15929e-06
6.35959e-07
-2.15929e-06
1.22823e-06
-2.02776e-06
1.74452e-06
-1.7957e-06
2.17046e-06
-1.51222e-06
2.50832e-06
-1.22502e-06
2.76963e-06
-9.64746e-07
2.96803e-06
-7.43322e-07
3.11565e-06
-5.61303e-07
3.3011e-06
-7.32943e-07
3.39721e-06
-3.87079e-07
3.46829e-06
-2.71332e-07
3.5357e-06
-2.37022e-07
3.57426e-06
-1.51515e-07
3.60794e-06
-1.33931e-07
3.65657e-06
-1.77432e-07
3.72435e-06
-2.25328e-07
3.75722e-06
-1.33589e-07
3.78759e-06
-1.19753e-07
3.82797e-06
-1.3982e-07
3.84544e-06
-8.02526e-08
3.86707e-06
-8.65834e-08
3.89429e-06
-9.15477e-08
3.8613e-06
4.55086e-08
3.89389e-06
-1.68927e-07
4.09115e-06
-6.02963e-07
4.09088e-06
-1.14062e-07
4.11582e-06
-9.85607e-08
3.8065e-06
6.6891e-07
3.5876e-06
1.4474e-07
5.05209e-07
3.07462e-06
-2.95447e-07
9.4369e-07
5.35826e-07
3.1551e-06
3.63186e-08
1.0421e-06
2.16801e-07
1.89624e-06
4.87995e-07
1.92052e-06
3.34239e-07
8.06308e-07
2.20119e-07
4.47267e-07
1.3526e-07
3.12375e-07
6.46797e-08
2.53877e-07
2.30749e-07
-6.90291e-08
2.99778e-07
-1.43517e-07
3.28365e-07
-2.30273e-07
3.99131e-07
-3.369e-07
5.53894e-07
-4.43072e-07
9.12481e-07
-2.39801e-07
1.71725e-06
-1.10494e-07
1.76693e-06
-4.12909e-07
1.34451e-06
1.42373e-07
2.59982e-06
-2.839e-07
1.36996e-06
2.73019e-07
2.5177e-06
-4.04482e-07
8.22241e-07
-3.91096e-06
4.17538e-06
-4.19587e-06
1.86356e-07
-4.36984e-06
5.99047e-08
-4.12962e-06
-8.43185e-07
-4.13462e-06
-1.63929e-07
-4.21066e-06
1.21549e-07
-4.17631e-06
-1.25897e-07
-4.15722e-06
-1.05671e-07
-4.14678e-06
-9.06918e-08
-4.09865e-06
-1.87949e-07
-4.07022e-06
-1.4818e-07
-4.04234e-06
-1.61473e-07
-3.95834e-06
-3.0933e-07
-3.90682e-06
-2.28949e-07
-3.87605e-06
-1.64702e-07
-3.84042e-06
-1.87141e-07
-3.76354e-06
-3.13903e-07
-3.69355e-06
-3.41327e-07
-3.60858e-06
-4.72044e-07
-3.4396e-06
-9.01923e-07
-3.29499e-06
-7.05912e-07
-3.09624e-06
-9.42081e-07
-2.829e-06
-1.23198e-06
-2.47377e-06
-1.58025e-06
-2.01025e-06
-1.97573e-06
-1.42886e-06
-2.3771e-06
-7.44568e-07
-2.71205e-06
-3.06708e-17
-2.90386e-06
7.44568e-07
-2.90386e-06
1.42886e-06
-2.71205e-06
2.01025e-06
-2.3771e-06
2.47377e-06
-1.97573e-06
2.829e-06
-1.58025e-06
3.09624e-06
-1.23198e-06
3.29499e-06
-9.42081e-07
3.4396e-06
-7.05912e-07
3.60858e-06
-9.01923e-07
3.69355e-06
-4.72044e-07
3.76354e-06
-3.41327e-07
3.84042e-06
-3.13903e-07
3.87605e-06
-1.87141e-07
3.90682e-06
-1.64702e-07
3.95834e-06
-2.28949e-07
4.04234e-06
-3.0933e-07
4.07022e-06
-1.61473e-07
4.09865e-06
-1.4818e-07
4.14678e-06
-1.87949e-07
4.15722e-06
-9.06918e-08
4.17631e-06
-1.05671e-07
4.21066e-06
-1.25897e-07
4.13462e-06
1.21549e-07
4.12962e-06
-1.63929e-07
4.36984e-06
-8.43185e-07
4.19587e-06
5.99047e-08
3.91096e-06
1.86356e-07
4.04482e-07
4.17538e-06
-2.73019e-07
8.22241e-07
2.839e-07
2.5177e-06
-1.42373e-07
1.36996e-06
4.12909e-07
2.59982e-06
1.10494e-07
1.34451e-06
2.39801e-07
1.76693e-06
4.43072e-07
1.71725e-06
3.369e-07
9.12481e-07
2.30273e-07
5.53894e-07
1.43517e-07
3.99131e-07
6.90291e-08
3.28365e-07
2.99778e-07
-7.28679e-08
3.72646e-07
-1.5037e-07
4.05867e-07
-2.37167e-07
4.85928e-07
-3.33834e-07
6.50561e-07
-4.05882e-07
9.84529e-07
-2.58075e-07
1.56944e-06
-1.63232e-07
1.67209e-06
-3.2796e-07
1.50924e-06
3.37631e-08
2.2381e-06
-1.97165e-07
1.60089e-06
1.30765e-07
2.18977e-06
-4.0885e-07
1.36186e-06
5.83807e-07
3.18273e-06
-2.47233e-07
1.0174e-06
-2.77988e-06
2.59255e-06
-3.99984e-06
3.76777e-07
-4.28636e-06
1.22585e-07
-4.51011e-06
3.45297e-07
-4.483e-06
-1.53002e-07
-4.48102e-06
-1.07656e-07
-4.49097e-06
-8.07386e-08
-4.4313e-06
-2.47619e-07
-4.40971e-06
-1.69764e-07
-4.39551e-06
-1.75681e-07
-4.2835e-06
-4.2134e-07
-4.23056e-06
-2.81886e-07
-4.2068e-06
-1.88465e-07
-4.17927e-06
-2.14668e-07
-4.08651e-06
-4.06661e-07
-4.02125e-06
-4.06588e-07
-3.95905e-06
-5.34243e-07
-3.82746e-06
-1.03351e-06
-3.69486e-06
-8.38513e-07
-3.50608e-06
-1.13086e-06
-3.24529e-06
-1.49277e-06
-2.88343e-06
-1.94212e-06
-2.38333e-06
-2.47583e-06
-1.719e-06
-3.04142e-06
-9.04413e-07
-3.52663e-06
-8.78688e-18
-3.80827e-06
9.04413e-07
-3.80827e-06
1.719e-06
-3.52663e-06
2.38333e-06
-3.04142e-06
2.88343e-06
-2.47583e-06
3.24529e-06
-1.94212e-06
3.50608e-06
-1.49277e-06
3.69486e-06
-1.13086e-06
3.82746e-06
-8.38513e-07
3.95905e-06
-1.03351e-06
4.02125e-06
-5.34243e-07
4.08651e-06
-4.06588e-07
4.17927e-06
-4.06661e-07
4.2068e-06
-2.14668e-07
4.23056e-06
-1.88465e-07
4.2835e-06
-2.81886e-07
4.39551e-06
-4.2134e-07
4.40971e-06
-1.75681e-07
4.4313e-06
-1.69764e-07
4.49097e-06
-2.47619e-07
4.48102e-06
-8.07386e-08
4.483e-06
-1.07656e-07
4.51011e-06
-1.53002e-07
4.28636e-06
3.45297e-07
3.99984e-06
1.22585e-07
2.77988e-06
3.76777e-07
2.47233e-07
2.59255e-06
-5.83807e-07
1.0174e-06
4.0885e-07
3.18273e-06
-1.30765e-07
1.36186e-06
1.97165e-07
2.18977e-06
-3.37631e-08
1.60089e-06
3.2796e-07
2.2381e-06
1.63232e-07
1.50924e-06
2.58075e-07
1.67209e-06
4.05882e-07
1.56944e-06
3.33834e-07
9.84529e-07
2.37167e-07
6.50561e-07
1.5037e-07
4.85928e-07
7.28679e-08
4.05867e-07
3.72646e-07
-7.5946e-08
4.48592e-07
-1.55345e-07
4.85266e-07
-2.4042e-07
5.71003e-07
-3.26173e-07
7.36314e-07
-3.75154e-07
1.03351e-06
-2.70773e-07
1.46506e-06
-1.98534e-07
1.59985e-06
-2.72451e-07
1.58316e-06
-3.92577e-08
2.00491e-06
-1.45752e-07
1.70739e-06
4.43041e-08
1.99972e-06
-2.30433e-07
1.63659e-06
3.8109e-07
2.5712e-06
-2.46083e-08
1.42309e-06
4.78896e-07
2.08905e-06
5.15619e-08
8.04111e-07
-5.41122e-07
7.15269e-07
-4.04872e-06
3.85289e-06
-4.46262e-06
2.60895e-07
-4.67959e-06
1.09316e-07
-4.80999e-06
4.96636e-08
-4.75566e-06
-3.01948e-07
-4.7619e-06
-1.63525e-07
-4.78586e-06
-1.51726e-07
-4.6244e-06
-5.82792e-07
-4.57624e-06
-3.30055e-07
-4.56713e-06
-1.97575e-07
-4.55862e-06
-2.2317e-07
-4.43592e-06
-5.29369e-07
-4.38102e-06
-4.61481e-07
-4.35834e-06
-5.56928e-07
-4.2971e-06
-1.09475e-06
-4.18881e-06
-9.46802e-07
-4.0258e-06
-1.29388e-06
-3.79543e-06
-1.72314e-06
-3.4535e-06
-2.28406e-06
-2.92982e-06
-2.99951e-06
-2.15998e-06
-3.81127e-06
-1.15236e-06
-4.53425e-06
-4.93549e-17
-4.96063e-06
1.15236e-06
-4.96063e-06
2.15998e-06
-4.53425e-06
2.92982e-06
-3.81127e-06
3.4535e-06
-2.99951e-06
3.79543e-06
-2.28406e-06
4.0258e-06
-1.72314e-06
4.18881e-06
-1.29388e-06
4.2971e-06
-9.46802e-07
4.35834e-06
-1.09475e-06
4.38102e-06
-5.56928e-07
4.43592e-06
-4.61481e-07
4.55862e-06
-5.29369e-07
4.56713e-06
-2.2317e-07
4.57624e-06
-1.97575e-07
4.6244e-06
-3.30055e-07
4.78586e-06
-5.82792e-07
4.7619e-06
-1.51726e-07
4.75566e-06
-1.63525e-07
4.80999e-06
-3.01948e-07
4.67959e-06
4.96636e-08
4.46262e-06
1.09316e-07
4.04872e-06
2.60895e-07
5.41122e-07
3.85289e-06
-5.15619e-08
7.15269e-07
-4.78896e-07
8.04111e-07
2.46083e-08
2.08905e-06
-3.8109e-07
1.42309e-06
2.30433e-07
2.5712e-06
-4.43041e-08
1.63659e-06
1.45752e-07
1.99972e-06
3.92577e-08
1.70739e-06
2.72451e-07
2.00491e-06
1.98534e-07
1.58316e-06
2.70773e-07
1.59985e-06
3.75154e-07
1.46506e-06
3.26173e-07
1.03351e-06
2.4042e-07
7.36314e-07
1.55345e-07
5.71003e-07
7.5946e-08
4.85266e-07
4.48592e-07
-7.80173e-08
5.26609e-07
-1.58037e-07
5.65285e-07
-2.39889e-07
6.52855e-07
-3.14949e-07
8.11375e-07
-3.49321e-07
1.06788e-06
-2.77577e-07
1.39331e-06
-2.20161e-07
1.54243e-06
-2.38086e-07
1.60108e-06
-8.59114e-08
1.85273e-06
-1.17759e-07
1.73923e-06
-3.7077e-09
1.88567e-06
-1.1813e-07
1.75102e-06
2.52624e-07
2.20045e-06
6.8928e-08
1.60679e-06
3.40193e-07
1.81778e-06
4.37686e-08
1.10054e-06
-3.93285e-07
1.15232e-06
7.20895e-07
2.73871e-06
1.27944e-07
8.53847e-07
-5.71687e-07
8.08946e-07
-4.00317e-06
3.48114e-06
-4.63009e-06
3.24981e-07
-4.91665e-06
1.23027e-07
-5.14354e-06
7.51707e-08
-4.92913e-06
-7.97201e-07
-4.92188e-06
-3.3731e-07
-4.94857e-06
-1.70886e-07
-4.98709e-06
-1.8465e-07
-4.80396e-06
-7.12495e-07
-4.77016e-06
-4.95286e-07
-4.81039e-06
-5.16695e-07
-4.87321e-06
-1.03193e-06
-4.80214e-06
-1.01786e-06
-4.68484e-06
-1.41118e-06
-4.53039e-06
-1.87758e-06
-4.27152e-06
-2.54293e-06
-3.77305e-06
-3.49798e-06
-2.8725e-06
-4.71181e-06
-1.5622e-06
-5.84456e-06
-8.69444e-17
-6.52283e-06
1.5622e-06
-6.52283e-06
2.8725e-06
-5.84456e-06
3.77305e-06
-4.71181e-06
4.27152e-06
-3.49798e-06
4.53039e-06
-2.54293e-06
4.68484e-06
-1.87758e-06
4.80214e-06
-1.41118e-06
4.87321e-06
-1.01786e-06
4.81039e-06
-1.03193e-06
4.77016e-06
-5.16695e-07
4.80396e-06
-4.95286e-07
4.98709e-06
-7.12495e-07
4.94857e-06
-1.8465e-07
4.92188e-06
-1.70886e-07
4.92913e-06
-3.3731e-07
5.14354e-06
-7.97201e-07
4.91665e-06
7.51707e-08
4.63009e-06
1.23027e-07
4.00317e-06
3.24981e-07
5.71687e-07
3.48114e-06
-1.27944e-07
8.08946e-07
-7.20895e-07
8.53847e-07
3.93285e-07
2.73871e-06
-4.37686e-08
1.15232e-06
-3.40193e-07
1.10054e-06
-6.8928e-08
1.81778e-06
-2.52624e-07
1.60679e-06
1.1813e-07
2.20045e-06
3.7077e-09
1.75102e-06
1.17759e-07
1.88567e-06
8.59114e-08
1.73923e-06
2.38086e-07
1.85273e-06
2.20161e-07
1.60108e-06
2.77577e-07
1.54243e-06
3.49321e-07
1.39331e-06
3.14949e-07
1.06788e-06
2.39889e-07
8.11375e-07
1.58037e-07
6.52855e-07
7.80173e-08
5.65285e-07
5.26609e-07
-7.88698e-08
6.05479e-07
-1.58165e-07
6.44581e-07
-2.35648e-07
7.30338e-07
-3.00998e-07
8.76724e-07
-3.26755e-07
1.09364e-06
-2.78614e-07
1.34517e-06
-2.31317e-07
1.49514e-06
-2.17533e-07
1.5873e-06
-1.13896e-07
1.7491e-06
-1.03788e-07
1.72913e-06
-2.73981e-08
1.80928e-06
-5.16927e-08
1.77531e-06
1.74218e-07
1.97454e-06
1.12162e-07
1.66885e-06
2.48851e-07
1.68109e-06
5.69799e-08
1.29241e-06
-1.56483e-07
1.36579e-06
4.64097e-07
2.11813e-06
1.32555e-07
1.18539e-06
-2.54392e-07
1.19589e-06
7.89948e-07
2.4368e-06
2.78429e-07
8.36501e-07
-2.64531e-07
6.65987e-07
-2.02466e-06
1.8353e-06
-4.36818e-06
1.54631e-06
-4.89272e-06
1.87231e-07
-5.15968e-06
9.60758e-08
-5.40937e-06
6.50415e-08
-5.13517e-06
-9.86702e-07
-5.16466e-06
-4.65788e-07
-5.30549e-06
-3.75875e-07
-5.59087e-06
-7.46553e-07
-5.55831e-06
-1.05042e-06
-5.4958e-06
-1.47369e-06
-5.50291e-06
-1.87047e-06
-5.47597e-06
-2.56987e-06
-5.16188e-06
-3.81206e-06
-4.11334e-06
-5.76036e-06
-2.29201e-06
-7.66589e-06
-6.99853e-17
-8.81484e-06
2.29201e-06
-8.81484e-06
4.11334e-06
-7.66589e-06
5.16188e-06
-5.76036e-06
5.47597e-06
-3.81206e-06
5.50291e-06
-2.56987e-06
5.4958e-06
-1.87047e-06
5.55831e-06
-1.47369e-06
5.59087e-06
-1.05042e-06
5.30549e-06
-7.46553e-07
5.16466e-06
-3.75875e-07
5.13517e-06
-4.65788e-07
5.40937e-06
-9.86702e-07
5.15968e-06
6.50415e-08
4.89272e-06
9.60758e-08
4.36818e-06
1.87231e-07
2.02466e-06
1.54631e-06
2.64531e-07
1.8353e-06
-2.78429e-07
6.65987e-07
-7.89948e-07
8.36501e-07
2.54392e-07
2.4368e-06
-1.32555e-07
1.19589e-06
-4.64097e-07
1.18539e-06
1.56483e-07
2.11813e-06
-5.69799e-08
1.36579e-06
-2.48851e-07
1.29241e-06
-1.12162e-07
1.68109e-06
-1.74218e-07
1.66885e-06
5.16927e-08
1.97454e-06
2.73981e-08
1.77531e-06
1.03788e-07
1.80928e-06
1.13896e-07
1.72913e-06
2.17533e-07
1.7491e-06
2.31317e-07
1.5873e-06
2.78614e-07
1.49514e-06
3.26755e-07
1.34517e-06
3.00998e-07
1.09364e-06
2.35648e-07
8.76724e-07
1.58165e-07
7.30338e-07
7.88698e-08
6.44581e-07
6.05479e-07
-7.83555e-08
6.83835e-07
-1.55603e-07
7.21828e-07
-2.27951e-07
8.02686e-07
-2.84925e-07
9.33698e-07
-3.05961e-07
1.11468e-06
-2.74331e-07
1.31354e-06
-2.34503e-07
1.45531e-06
-2.04869e-07
1.55766e-06
-1.29087e-07
1.67331e-06
-9.71296e-08
1.69717e-06
-3.71312e-08
1.74928e-06
-1.5168e-08
1.75335e-06
1.27364e-07
1.83201e-06
1.25575e-07
1.67064e-06
1.91923e-07
1.61475e-06
7.7793e-08
1.40654e-06
-1.48053e-08
1.45838e-06
3.14599e-07
1.78873e-06
1.4758e-07
1.35241e-06
-2.03522e-08
1.36383e-06
5.32847e-07
1.8836e-06
2.69843e-07
1.0995e-06
-3.00508e-08
9.65881e-07
2.92499e-07
1.51275e-06
5.15293e-07
1.32352e-06
1.12932e-07
5.89592e-07
-4.17235e-07
6.26243e-07
-2.28119e-06
1.929e-06
-4.47179e-06
1.2039e-06
-5.11353e-06
1.75947e-07
-5.58202e-06
9.26203e-08
-6.39316e-06
6.45831e-08
-6.3865e-06
-1.05707e-06
-6.32803e-06
-1.53216e-06
-6.68013e-06
-1.51838e-06
-7.23876e-06
-2.01125e-06
-7.65156e-06
-3.39926e-06
-6.47385e-06
-6.93807e-06
-3.70176e-06
-1.0438e-05
-1.18964e-16
-1.25166e-05
3.70176e-06
-1.25166e-05
6.47385e-06
-1.0438e-05
7.65156e-06
-6.93807e-06
7.23876e-06
-3.39926e-06
6.68013e-06
-2.01125e-06
6.32803e-06
-1.51838e-06
6.3865e-06
-1.53216e-06
6.39316e-06
-1.05707e-06
5.58202e-06
6.45831e-08
5.11353e-06
9.26203e-08
4.47179e-06
1.75947e-07
2.28119e-06
1.2039e-06
4.17235e-07
1.929e-06
-1.12932e-07
6.26243e-07
-5.15293e-07
5.89592e-07
-2.92499e-07
1.32352e-06
3.00508e-08
1.51275e-06
-2.69843e-07
9.65881e-07
-5.32847e-07
1.0995e-06
2.03522e-08
1.8836e-06
-1.4758e-07
1.36383e-06
-3.14599e-07
1.35241e-06
1.48053e-08
1.78873e-06
-7.7793e-08
1.45838e-06
-1.91923e-07
1.40654e-06
-1.25575e-07
1.61475e-06
-1.27364e-07
1.67064e-06
1.5168e-08
1.83201e-06
3.71312e-08
1.75335e-06
9.71296e-08
1.74928e-06
1.29087e-07
1.69717e-06
2.04869e-07
1.67331e-06
2.34503e-07
1.55766e-06
2.74331e-07
1.45531e-06
3.05961e-07
1.31354e-06
2.84925e-07
1.11468e-06
2.27951e-07
9.33698e-07
1.55603e-07
8.02686e-07
7.83555e-08
7.21828e-07
6.83835e-07
-7.64145e-08
7.60249e-07
-1.50392e-07
7.95806e-07
-2.17167e-07
8.69461e-07
-2.67128e-07
9.83659e-07
-2.85714e-07
1.13326e-06
-2.65341e-07
1.29317e-06
-2.3154e-07
1.42151e-06
-1.95703e-07
1.52183e-06
-1.35604e-07
1.61322e-06
-9.34664e-08
1.65503e-06
-3.97058e-08
1.69552e-06
3.0892e-09
1.71055e-06
9.92287e-08
1.73587e-06
1.23718e-07
1.64615e-06
1.58293e-07
1.58017e-06
9.83271e-08
1.4665e-06
6.66034e-08
1.49011e-06
2.35642e-07
1.61969e-06
1.64733e-07
1.42332e-06
1.08024e-07
1.42054e-06
3.87808e-07
1.60382e-06
2.62461e-07
1.22485e-06
1.04182e-07
1.12416e-06
2.73365e-07
1.34357e-06
3.81135e-07
1.21575e-06
1.33058e-07
8.37668e-07
-1.24015e-07
8.83317e-07
3.42537e-07
1.46245e-06
4.45849e-07
1.10058e-06
9.23269e-08
5.29469e-07
-3.22099e-07
5.07046e-07
-1.43993e-06
1.18242e-06
-3.63057e-06
1.13356e-06
-5.28136e-06
1.18631e-07
-6.86391e-06
6.41693e-08
-8.91813e-06
4.29798e-08
-1.23472e-05
2.9859e-08
-1.12064e-05
-8.07889e-06
-6.59075e-06
-1.50537e-05
-5.57215e-17
-1.91073e-05
6.59075e-06
-1.91073e-05
1.12064e-05
-1.50537e-05
1.23472e-05
-8.07889e-06
8.91813e-06
2.9859e-08
6.86391e-06
4.29798e-08
5.28136e-06
6.41693e-08
3.63057e-06
1.18631e-07
1.43993e-06
1.13356e-06
3.22099e-07
1.18242e-06
-9.23269e-08
5.07046e-07
-4.45849e-07
5.29469e-07
-3.42537e-07
1.10058e-06
1.24015e-07
1.46245e-06
-1.33058e-07
8.83317e-07
-3.81135e-07
8.37668e-07
-2.73365e-07
1.21575e-06
-1.04182e-07
1.34357e-06
-2.62461e-07
1.12416e-06
-3.87808e-07
1.22485e-06
-1.08024e-07
1.60382e-06
-1.64733e-07
1.42054e-06
-2.35642e-07
1.42332e-06
-6.66034e-08
1.61969e-06
-9.83271e-08
1.49011e-06
-1.58293e-07
1.4665e-06
-1.23718e-07
1.58017e-06
-9.92287e-08
1.64615e-06
-3.0892e-09
1.73587e-06
3.97058e-08
1.71055e-06
9.34664e-08
1.69552e-06
1.35604e-07
1.65503e-06
1.95703e-07
1.61322e-06
2.3154e-07
1.52183e-06
2.65341e-07
1.42151e-06
2.85714e-07
1.29317e-06
2.67128e-07
1.13326e-06
2.17167e-07
9.83659e-07
1.50392e-07
8.69461e-07
7.64145e-08
7.95806e-07
7.60249e-07
-7.30864e-08
8.33336e-07
-1.42733e-07
8.65453e-07
-2.03742e-07
9.3047e-07
-2.4786e-07
1.02778e-06
-2.65136e-07
1.15054e-06
-2.52315e-07
1.28035e-06
-2.23694e-07
1.39289e-06
-1.8708e-07
1.48521e-06
-1.36119e-07
1.56225e-06
-9.03019e-08
1.60921e-06
-3.90143e-08
1.64423e-06
1.10255e-08
1.66051e-06
8.1769e-08
1.66512e-06
1.15793e-07
1.61212e-06
1.39327e-07
1.55664e-06
1.14969e-07
1.49086e-06
1.12146e-07
1.49293e-06
1.99213e-07
1.53262e-06
1.79844e-07
1.44269e-06
1.73777e-07
1.4266e-06
3.11028e-07
1.46657e-06
2.57496e-07
1.27838e-06
1.80462e-07
1.20119e-06
2.61272e-07
1.26276e-06
3.03976e-07
1.17305e-06
1.59713e-07
9.81931e-07
3.86936e-08
1.00434e-06
2.66533e-07
1.23461e-06
3.1672e-07
1.0504e-06
9.45018e-08
7.51687e-07
-1.49457e-07
7.51005e-07
-7.73526e-08
1.11031e-06
4.63896e-07
5.92316e-07
1.91967e-07
3.9056e-07
-6.68343e-08
3.22971e-07
-3.802e-07
3.56345e-07
-7.96975e-07
4.46634e-07
-8.71142e-06
-1.64446e-07
-1.08574e-05
-1.29077e-05
3.39863e-17
-2.99647e-05
1.08574e-05
-2.99647e-05
8.71142e-06
-1.29077e-05
7.96975e-07
-1.64446e-07
3.802e-07
4.46634e-07
6.68343e-08
3.56345e-07
-1.91967e-07
3.22971e-07
-4.63896e-07
3.9056e-07
7.73526e-08
5.92316e-07
1.49457e-07
1.11031e-06
-9.45018e-08
7.51005e-07
-3.1672e-07
7.51687e-07
-2.66533e-07
1.0504e-06
-3.86936e-08
1.23461e-06
-1.59713e-07
1.00434e-06
-3.03976e-07
9.81931e-07
-2.61272e-07
1.17305e-06
-1.80462e-07
1.26276e-06
-2.57496e-07
1.20119e-06
-3.11028e-07
1.27838e-06
-1.73777e-07
1.46657e-06
-1.79844e-07
1.4266e-06
-1.99213e-07
1.44269e-06
-1.12146e-07
1.53262e-06
-1.14969e-07
1.49293e-06
-1.39327e-07
1.49086e-06
-1.15793e-07
1.55664e-06
-8.1769e-08
1.61212e-06
-1.10255e-08
1.66512e-06
3.90143e-08
1.66051e-06
9.03019e-08
1.64423e-06
1.36119e-07
1.60921e-06
1.8708e-07
1.56225e-06
2.23694e-07
1.48521e-06
2.52315e-07
1.39289e-06
2.65136e-07
1.28035e-06
2.4786e-07
1.15054e-06
2.03742e-07
1.02778e-06
1.42733e-07
9.3047e-07
7.30864e-08
8.65453e-07
8.33336e-07
-6.85065e-08
9.01842e-07
-1.32956e-07
9.29902e-07
-1.88153e-07
9.85666e-07
-2.27304e-07
1.06693e-06
-2.43696e-07
1.16693e-06
-2.35901e-07
1.27255e-06
-2.11845e-07
1.36883e-06
-1.77232e-07
1.4506e-06
-1.32255e-07
1.51728e-06
-8.63369e-08
1.5633e-06
-3.68822e-08
1.59477e-06
1.37667e-08
1.60986e-06
7.04502e-08
1.60844e-06
1.06867e-07
1.57571e-06
1.28945e-07
1.53456e-06
1.26852e-07
1.49295e-06
1.37411e-07
1.48237e-06
1.8586e-07
1.48417e-06
1.9142e-07
1.43713e-06
2.05108e-07
1.41291e-06
2.72844e-07
1.39883e-06
2.54414e-07
1.29681e-06
2.2028e-07
1.23533e-06
2.5401e-07
1.22903e-06
2.64044e-07
1.16301e-06
1.8331e-07
1.06267e-06
1.26014e-07
1.06163e-06
2.25483e-07
1.13514e-06
2.38973e-07
1.03691e-06
1.03404e-07
8.87255e-07
-3.35227e-08
8.87933e-07
2.69207e-08
1.04987e-06
1.3811e-07
4.81127e-07
8.63668e-08
4.42303e-07
-1.19831e-08
4.21321e-07
-8.82995e-08
4.32662e-07
-1.08471e-07
4.66806e-07
-1.58078e-07
-1.14839e-07
-2.58031e-06
-1.04854e-05
4.94602e-18
-3.25451e-05
2.58031e-06
-3.25451e-05
1.58078e-07
-1.04854e-05
1.08471e-07
-1.14839e-07
8.82995e-08
4.66806e-07
1.19831e-08
4.32662e-07
-8.63668e-08
4.21321e-07
-1.3811e-07
4.42303e-07
-2.69207e-08
4.81127e-07
3.35227e-08
1.04987e-06
-1.03404e-07
8.87933e-07
-2.38973e-07
8.87255e-07
-2.25483e-07
1.03691e-06
-1.26014e-07
1.13514e-06
-1.8331e-07
1.06163e-06
-2.64044e-07
1.06267e-06
-2.5401e-07
1.16301e-06
-2.2028e-07
1.22903e-06
-2.54414e-07
1.23533e-06
-2.72844e-07
1.29681e-06
-2.05108e-07
1.39883e-06
-1.9142e-07
1.41291e-06
-1.8586e-07
1.43713e-06
-1.37411e-07
1.48417e-06
-1.26852e-07
1.48237e-06
-1.28945e-07
1.49295e-06
-1.06867e-07
1.53456e-06
-7.04502e-08
1.57571e-06
-1.37667e-08
1.60844e-06
3.68822e-08
1.60986e-06
8.63369e-08
1.59477e-06
1.32255e-07
1.5633e-06
1.77232e-07
1.51728e-06
2.11845e-07
1.4506e-06
2.35901e-07
1.36883e-06
2.43696e-07
1.27255e-06
2.27304e-07
1.16693e-06
1.88153e-07
1.06693e-06
1.32956e-07
9.85666e-07
6.85065e-08
9.29902e-07
9.01842e-07
-6.28879e-08
9.6473e-07
-1.21482e-07
9.88496e-07
-1.70889e-07
1.03507e-06
-2.0565e-07
1.10169e-06
-2.21174e-07
1.18245e-06
-2.16704e-07
1.26808e-06
-1.96655e-07
1.34878e-06
-1.6528e-07
1.41922e-06
-1.24967e-07
1.47696e-06
-8.0952e-08
1.51928e-06
-3.38651e-08
1.54769e-06
1.44783e-08
1.56152e-06
6.29791e-08
1.55994e-06
9.92485e-08
1.53944e-06
1.23264e-07
1.51054e-06
1.34514e-07
1.4817e-06
1.51502e-07
1.46538e-06
1.83314e-07
1.45236e-06
1.99383e-07
1.42106e-06
2.18819e-07
1.39348e-06
2.54719e-07
1.36293e-06
2.52201e-07
1.29933e-06
2.38858e-07
1.24867e-06
2.4978e-07
1.21811e-06
2.45796e-07
1.167e-06
2.00608e-07
1.10785e-06
1.7031e-07
1.09193e-06
2.04426e-07
1.10102e-06
1.96769e-07
1.04456e-06
1.13712e-07
9.70313e-07
3.39363e-08
9.67709e-07
4.92768e-08
1.03453e-06
6.56656e-08
4.64738e-07
4.83492e-08
4.5962e-07
1.19256e-08
4.57744e-07
-2.07104e-08
4.65298e-07
-3.52145e-08
4.8131e-07
-3.66635e-08
-1.1339e-07
-4.9017e-07
-1.00319e-05
-4.85385e-17
-3.30352e-05
4.9017e-07
-3.30352e-05
3.66635e-08
-1.00319e-05
3.52145e-08
-1.1339e-07
2.07104e-08
4.8131e-07
-1.19256e-08
4.65298e-07
-4.83492e-08
4.57744e-07
-6.56656e-08
4.5962e-07
-4.92768e-08
4.64738e-07
-3.39363e-08
1.03453e-06
-1.13712e-07
9.67709e-07
-1.96769e-07
9.70313e-07
-2.04426e-07
1.04456e-06
-1.7031e-07
1.10102e-06
-2.00608e-07
1.09193e-06
-2.45796e-07
1.10785e-06
-2.4978e-07
1.167e-06
-2.38858e-07
1.21811e-06
-2.52201e-07
1.24867e-06
-2.54719e-07
1.29933e-06
-2.18819e-07
1.36293e-06
-1.99383e-07
1.39348e-06
-1.83314e-07
1.42106e-06
-1.51502e-07
1.45236e-06
-1.34514e-07
1.46538e-06
-1.23264e-07
1.4817e-06
-9.92485e-08
1.51054e-06
-6.29791e-08
1.53944e-06
-1.44783e-08
1.55994e-06
3.38651e-08
1.56152e-06
8.0952e-08
1.54769e-06
1.24967e-07
1.51928e-06
1.6528e-07
1.47696e-06
1.96655e-07
1.41922e-06
2.16704e-07
1.34878e-06
2.21174e-07
1.26808e-06
2.0565e-07
1.18245e-06
1.70889e-07
1.10169e-06
1.21482e-07
1.03507e-06
6.28879e-08
9.88496e-07
9.6473e-07
-5.64935e-08
1.02122e-06
-1.08778e-07
1.04078e-06
-1.52445e-07
1.07874e-06
-1.83139e-07
1.13238e-06
-1.97611e-07
1.19693e-06
-1.95298e-07
1.26577e-06
-1.78695e-07
1.33218e-06
-1.50954e-07
1.39148e-06
-1.14839e-07
1.44085e-06
-7.38688e-08
1.47831e-06
-2.98784e-08
1.5037e-06
1.50499e-08
1.51659e-06
5.83076e-08
1.51668e-06
9.36819e-08
1.50406e-06
1.20049e-07
1.48418e-06
1.38967e-07
1.46278e-06
1.59331e-07
1.44502e-06
1.84619e-07
1.42707e-06
2.04203e-07
1.40147e-06
2.2396e-07
1.37372e-06
2.45976e-07
1.34091e-06
2.5001e-07
1.2953e-06
2.45931e-07
1.25275e-06
2.47119e-07
1.21692e-06
2.38529e-07
1.17559e-06
2.11668e-07
1.13471e-06
1.91575e-07
1.11202e-06
1.94564e-07
1.09803e-06
1.76819e-07
1.06231e-06
1.23355e-07
1.02378e-06
7.232e-08
1.01874e-06
6.21455e-08
1.0447e-06
5.84121e-08
4.68472e-07
4.80434e-08
4.69988e-07
3.31674e-08
4.7262e-07
2.04268e-08
4.78039e-07
1.55597e-08
4.86177e-07
1.18089e-08
-1.09639e-07
-2.53074e-07
-9.76706e-06
-4.75267e-17
-3.32883e-05
2.53074e-07
-3.32883e-05
-1.18089e-08
-9.76706e-06
-1.55597e-08
-1.09639e-07
-2.04268e-08
4.86177e-07
-3.31674e-08
4.78039e-07
-4.80434e-08
4.7262e-07
-5.84121e-08
4.69988e-07
-6.21455e-08
4.68472e-07
-7.232e-08
1.0447e-06
-1.23355e-07
1.01874e-06
-1.76819e-07
1.02378e-06
-1.94564e-07
1.06231e-06
-1.91575e-07
1.09803e-06
-2.11668e-07
1.11202e-06
-2.38529e-07
1.13471e-06
-2.47119e-07
1.17559e-06
-2.45931e-07
1.21692e-06
-2.5001e-07
1.25275e-06
-2.45976e-07
1.2953e-06
-2.2396e-07
1.34091e-06
-2.04203e-07
1.37372e-06
-1.84619e-07
1.40147e-06
-1.59331e-07
1.42707e-06
-1.38967e-07
1.44502e-06
-1.20049e-07
1.46278e-06
-9.36819e-08
1.48418e-06
-5.83076e-08
1.50406e-06
-1.50499e-08
1.51668e-06
2.98784e-08
1.51659e-06
7.38688e-08
1.5037e-06
1.14839e-07
1.47831e-06
1.50954e-07
1.44085e-06
1.78695e-07
1.39148e-06
1.95298e-07
1.33218e-06
1.97611e-07
1.26577e-06
1.83139e-07