/*--------------------------------*- C++ -*----------------------------------*\
  =========                 |
  \\      /  F ield         | OpenFOAM: The Open Source CFD Toolbox
   \\    /   O peration     | Website:  https://openfoam.org
    \\  /    A nd           | Version:  10
     \\/     M anipulation  |
\*---------------------------------------------------------------------------*/
FoamFile
{
    format      ascii;
    class       volVectorField;
    location    "0.7";
    object      Ua;
}
// * * * * * * * * * * * * * * * * * * * * * * * * * * * * * * * * * * * * * //

dimensions      [0 1 -1 0 0 0 0];

internalField   nonuniform List<vector> 
12225
(
(6.75514e-05 -8.50125e-06 0)
(0.000197653 -7.95398e-06 0)
(0.000316065 -6.95043e-06 0)
(0.000421035 -5.8159e-06 0)
(0.000513373 -4.76787e-06 0)
(0.00059516 -3.91272e-06 0)
(0.000668826 -3.28495e-06 0)
(0.00073667 -2.8855e-06 0)
(0.000800718 -2.70807e-06 0)
(0.000862748 -2.75588e-06 0)
(0.000924428 -3.05526e-06 0)
(0.000987519 -3.67362e-06 0)
(0.0010542 -4.75498e-06 0)
(0.00112771 -6.60538e-06 0)
(0.00121371 -9.93372e-06 0)
(0.00132433 -1.66882e-05 0)
(0.00149356 -3.39195e-05 0)
(0.00186128 -9.8755e-05 0)
(4.53933e-05 -2.22466e-05 0)
(0.00013366 -2.09475e-05 0)
(0.000215771 -1.84338e-05 0)
(0.000290351 -1.55337e-05 0)
(0.000357465 -1.28205e-05 0)
(0.000418039 -1.05878e-05 0)
(0.000473357 -8.94197e-06 0)
(0.000524759 -7.8984e-06 0)
(0.000573509 -7.45051e-06 0)
(0.000620796 -7.61553e-06 0)
(0.000667791 -8.47226e-06 0)
(0.000715779 -1.02112e-05 0)
(0.000766375 -1.32312e-05 0)
(0.000821924 -1.83673e-05 0)
(0.000886332 -2.75091e-05 0)
(0.000966896 -4.55998e-05 0)
(0.0010772 -8.86234e-05 0)
(0.00121738 -0.000223781 0)
(3.57232e-05 -3.10158e-05 0)
(0.000105845 -2.94766e-05 0)
(0.000172504 -2.61931e-05 0)
(0.000234561 -2.22788e-05 0)
(0.000291776 -1.85434e-05 0)
(0.000344542 -1.54292e-05 0)
(0.000393593 -1.31186e-05 0)
(0.000439792 -1.16602e-05 0)
(0.000484022 -1.1066e-05 0)
(0.000527162 -1.13788e-05 0)
(0.000570116 -1.27288e-05 0)
(0.000613897 -1.54094e-05 0)
(0.000659762 -2.00156e-05 0)
(0.000709439 -2.77571e-05 0)
(0.000765456 -4.12475e-05 0)
(0.000831268 -6.67366e-05 0)
(0.00090805 -0.00012099 0)
(0.000966963 -0.000251483 0)
(2.94095e-05 -3.69458e-05 0)
(8.76524e-05 -3.54481e-05 0)
(0.000144132 -3.18027e-05 0)
(0.000197901 -2.72923e-05 0)
(0.000248565 -2.28967e-05 0)
(0.000296205 -1.91829e-05 0)
(0.000341214 -1.64093e-05 0)
(0.00038414 -1.46676e-05 0)
(0.000425602 -1.39984e-05 0)
(0.000466257 -1.44751e-05 0)
(0.000506802 -1.62765e-05 0)
(0.000548024 -1.97788e-05 0)
(0.000590854 -2.57185e-05 0)
(0.000636441 -3.55317e-05 0)
(0.000686073 -5.21247e-05 0)
(0.000740285 -8.16893e-05 0)
(0.000794213 -0.00013768 0)
(0.000819882 -0.000245449 0)
(2.47582e-05 -4.07841e-05 0)
(7.42096e-05 -3.95185e-05 0)
(0.00012307 -3.57913e-05 0)
(0.000170551 -3.09789e-05 0)
(0.000216187 -2.61839e-05 0)
(0.000259869 -2.20779e-05 0)
(0.000301753 -1.89922e-05 0)
(0.000342163 -1.7066e-05 0)
(0.000381518 -1.63734e-05 0)
(0.000420293 -1.702e-05 0)
(0.000459009 -1.92258e-05 0)
(0.000498242 -2.34264e-05 0)
(0.000538621 -3.0438e-05 0)
(0.000580763 -4.17711e-05 0)
(0.000624947 -6.02446e-05 0)
(0.000669884 -9.11122e-05 0)
(0.000708905 -0.00014344 0)
(0.000721702 -0.000227724 0)
(2.11195e-05 -4.29209e-05 0)
(6.3657e-05 -4.20248e-05 0)
(0.000106443 -3.8421e-05 0)
(0.000148825 -3.35295e-05 0)
(0.000190319 -2.85398e-05 0)
(0.000230696 -2.4209e-05 0)
(0.00026995 -2.09356e-05 0)
(0.000308236 -1.89065e-05 0)
(0.000345813 -1.82313e-05 0)
(0.000383 -1.90454e-05 0)
(0.000420159 -2.15999e-05 0)
(0.000457672 -2.63621e-05 0)
(0.000495889 -3.41653e-05 0)
(0.000534984 -4.64572e-05 0)
(0.000574523 -6.56964e-05 0)
(0.000612355 -9.58262e-05 0)
(0.00064223 -0.000142071 0)
(0.000651133 -0.000206964 0)
(1.81705e-05 -4.36006e-05 0)
(5.50719e-05 -4.31731e-05 0)
(9.28317e-05 -3.98446e-05 0)
(0.000130914 -3.50469e-05 0)
(0.000168849 -3.00283e-05 0)
(0.000206342 -2.56137e-05 0)
(0.000243275 -2.226e-05 0)
(0.000279672 -2.01992e-05 0)
(0.000315657 -1.95742e-05 0)
(0.000351419 -2.05464e-05 0)
(0.000387173 -2.3385e-05 0)
(0.000423125 -2.85608e-05 0)
(0.000459386 -3.68665e-05 0)
(0.000495792 -4.95829e-05 0)
(0.000531498 -6.86642e-05 0)
(0.000564172 -9.67526e-05 0)
(0.000588837 -0.000136329 0)
(0.000597746 -0.000186432 0)
(1.57249e-05 -4.29986e-05 0)
(4.79236e-05 -4.31071e-05 0)
(8.14218e-05 -4.01621e-05 0)
(0.000115785 -3.5591e-05 0)
(0.000150583 -3.06791e-05 0)
(0.00018549 -2.63012e-05 0)
(0.000220312 -2.29619e-05 0)
(0.000254974 -2.09326e-05 0)
(0.00028949 -2.03853e-05 0)
(0.000323929 -2.15004e-05 0)
(0.000358379 -2.45521e-05 0)
(0.000392891 -2.99883e-05 0)
(0.000427386 -3.8516e-05 0)
(0.000461477 -5.11866e-05 0)
(0.000494151 -6.94211e-05 0)
(0.000523291 -9.47821e-05 0)
(0.000545297 -0.000128063 0)
(0.000555788 -0.000167193 0)
(1.36645e-05 -4.12573e-05 0)
(4.18746e-05 -4.19391e-05 0)
(7.1697e-05 -3.94465e-05 0)
(0.000102788 -3.51994e-05 0)
(0.00013477 -3.05037e-05 0)
(0.000167319 -2.6266e-05 0)
(0.00020019 -2.30256e-05 0)
(0.000233232 -2.10845e-05 0)
(0.000266366 -2.0638e-05 0)
(0.000299559 -2.18775e-05 0)
(0.000332787 -2.50691e-05 0)
(0.000365973 -3.06164e-05 0)
(0.0003989 -3.91118e-05 0)
(0.000431061 -5.13568e-05 0)
(0.000461446 -6.829e-05 0)
(0.00048832 -9.06872e-05 0)
(0.000509238 -0.000118443 0)
(0.000521821 -0.000149449 0)
(1.19079e-05 -3.85067e-05 0)
(3.6692e-05 -3.97674e-05 0)
(6.33009e-05 -3.77577e-05 0)
(9.14741e-05 -3.38997e-05 0)
(0.000120903 -2.95059e-05 0)
(0.000151279 -2.54964e-05 0)
(0.000182332 -2.24298e-05 0)
(0.000213849 -2.06284e-05 0)
(0.000245675 -2.03027e-05 0)
(0.00027769 -2.1647e-05 0)
(0.000309775 -2.49078e-05 0)
(0.000341756 -3.04302e-05 0)
(0.000373324 -3.86797e-05 0)
(0.000403931 -5.02201e-05 0)
(0.000432667 -6.56014e-05 0)
(0.000458204 -8.50858e-05 0)
(0.000478952 -0.000108174 0)
(0.000493663 -0.000133094 0)
(1.0395e-05 -3.48777e-05 0)
(3.22025e-05 -3.6686e-05 0)
(5.59678e-05 -3.5151e-05 0)
(8.15146e-05 -3.17162e-05 0)
(0.000108611 -2.76881e-05 0)
(0.000136979 -2.39802e-05 0)
(0.000166332 -2.11533e-05 0)
(0.000196413 -1.95382e-05 0)
(0.000227003 -1.93512e-05 0)
(0.000257909 -2.07816e-05 0)
(0.000288935 -2.4048e-05 0)
(0.000319836 -2.94299e-05 0)
(0.000350252 -3.72684e-05 0)
(0.000379647 -4.79235e-05 0)
(0.000407254 -6.16602e-05 0)
(0.000432096 -7.84419e-05 0)
(0.000453174 -9.76579e-05 0)
(0.000469853 -0.00011794 0)
(8.9683e-06 -3.08495e-05 0)
(2.79847e-05 -3.31098e-05 0)
(4.91209e-05 -3.19862e-05 0)
(7.22748e-05 -2.89572e-05 0)
(9.72681e-05 -2.53106e-05 0)
(0.000123835 -2.19359e-05 0)
(0.000151669 -1.93815e-05 0)
(0.000180472 -1.79752e-05 0)
(0.000209973 -1.79318e-05 0)
(0.00023992 -1.94302e-05 0)
(0.000270063 -2.26594e-05 0)
(0.000300111 -2.78381e-05 0)
(0.000329691 -3.52042e-05 0)
(0.000358306 -4.49662e-05 0)
(0.000385324 -5.72069e-05 0)
(0.000410026 -7.1742e-05 0)
(0.000431758 -8.79777e-05 0)
(0.000450178 -0.000104873 0)
(8.02582e-06 -2.635e-05 0)
(2.5136e-05 -2.89471e-05 0)
(4.43655e-05 -2.81625e-05 0)
(6.57006e-05 -2.55218e-05 0)
(8.90356e-05 -2.22761e-05 0)
(0.000114139 -1.92714e-05 0)
(0.000140708 -1.70277e-05 0)
(0.000168424 -1.58588e-05 0)
(0.00019698 -1.59705e-05 0)
(0.000226084 -1.75263e-05 0)
(0.000255444 -2.06846e-05 0)
(0.000284741 -2.56089e-05 0)
(0.000313599 -3.24528e-05 0)
(0.000341568 -4.13154e-05 0)
(0.000368135 -5.21685e-05 0)
(0.000392774 -6.47676e-05 0)
(0.000415063 -7.85859e-05 0)
(0.000434823 -9.28323e-05 0)
(7.0711e-06 -2.09002e-05 0)
(2.22066e-05 -2.36578e-05 0)
(3.94186e-05 -2.31247e-05 0)
(5.88392e-05 -2.08773e-05 0)
(8.04412e-05 -1.80912e-05 0)
(0.000104017 -1.55349e-05 0)
(0.000129261 -1.36786e-05 0)
(0.00015583 -1.28063e-05 0)
(0.000183383 -1.31044e-05 0)
(0.000211585 -1.47148e-05 0)
(0.000240111 -1.77609e-05 0)
(0.000268627 -2.23518e-05 0)
(0.000296775 -2.85664e-05 0)
(0.000324172 -3.64188e-05 0)
(0.000350423 -4.58107e-05 0)
(0.000375162 -5.64846e-05 0)
(0.000398127 -6.80045e-05 0)
(0.000419229 -7.97922e-05 0)
(6.0555e-06 -1.45836e-05 0)
(1.90581e-05 -1.70862e-05 0)
(3.4101e-05 -1.66239e-05 0)
(5.15438e-05 -1.47525e-05 0)
(7.14098e-05 -1.24869e-05 0)
(9.34622e-05 -1.04582e-05 0)
(0.000117368 -9.0643e-06 0)
(0.000142757 -8.54999e-06 0)
(0.000169242 -9.07097e-06 0)
(0.000196456 -1.0739e-05 0)
(0.00022407 -1.36408e-05 0)
(0.000251776 -1.7837e-05 0)
(0.000279269 -2.33485e-05 0)
(0.000306237 -3.01336e-05 0)
(0.000332376 -3.80612e-05 0)
(0.000357422 -4.68937e-05 0)
(0.000381199 -5.62899e-05 0)
(0.000403648 -6.58391e-05 0)
(4.7607e-06 -7.59908e-06 0)
(1.51367e-05 -9.06329e-06 0)
(2.77431e-05 -8.42241e-06 0)
(4.32244e-05 -6.92074e-06 0)
(6.15231e-05 -5.28066e-06 0)
(8.21423e-05 -3.91103e-06 0)
(0.000104559 -3.06179e-06 0)
(0.000128477 -2.97569e-06 0)
(0.000153684 -3.74464e-06 0)
(0.000179894 -5.45703e-06 0)
(0.000206775 -8.1796e-06 0)
(0.000233993 -1.19367e-05 0)
(0.000261221 -1.6711e-05 0)
(0.000288157 -2.24317e-05 0)
(0.000314537 -2.89625e-05 0)
(0.000340155 -3.61014e-05 0)
(0.000364883 -4.35913e-05 0)
(0.000388676 -5.11449e-05 0)
(2.39091e-06 4.7229e-08 0)
(8.34297e-06 6.62877e-07 0)
(1.73919e-05 1.5766e-06 0)
(3.02237e-05 2.61594e-06 0)
(4.65348e-05 3.58961e-06 0)
(6.58615e-05 4.29331e-06 0)
(8.76911e-05 4.5624e-06 0)
(0.000111447 4.1975e-06 0)
(0.000136611 3.13851e-06 0)
(0.000162787 1.3277e-06 0)
(0.000189642 -1.26943e-06 0)
(0.000216872 -4.66537e-06 0)
(0.000244222 -8.87564e-06 0)
(0.000271464 -1.37244e-05 0)
(0.000298382 -1.90844e-05 0)
(0.000324809 -2.4795e-05 0)
(0.000350636 -3.06681e-05 0)
(0.000375814 -3.65059e-05 0)
(5.59128e-06 9.1504e-06 0)
(1.71037e-05 1.24312e-05 0)
(2.9739e-05 1.40439e-05 0)
(4.42308e-05 1.48088e-05 0)
(6.09409e-05 1.51159e-05 0)
(7.99009e-05 1.50338e-05 0)
(0.000100906 1.45101e-05 0)
(0.000123636 1.34829e-05 0)
(0.000147746 1.19152e-05 0)
(0.000172903 9.79402e-06 0)
(0.000198801 7.12875e-06 0)
(0.000225162 3.93245e-06 0)
(0.000251727 2.03632e-07 0)
(0.000278279 -3.88313e-06 0)
(0.000304666 -8.34161e-06 0)
(0.000330799 -1.29779e-05 0)
(0.000356613 -1.758e-05 0)
(0.000382051 -2.2017e-05 0)
(7.73092e-06 2.1593e-05 0)
(2.37159e-05 2.65915e-05 0)
(4.07864e-05 2.90261e-05 0)
(5.90755e-05 2.97461e-05 0)
(7.8739e-05 2.93939e-05 0)
(9.98344e-05 2.83385e-05 0)
(0.000122295 2.67675e-05 0)
(0.000145962 2.47766e-05 0)
(0.000170627 2.24212e-05 0)
(0.000196064 1.97421e-05 0)
(0.000222051 1.67804e-05 0)
(0.000248384 1.35849e-05 0)
(0.000274885 1.02143e-05 0)
(0.000301404 6.73887e-06 0)
(0.000327818 3.1182e-06 0)
(0.000354023 -4.89742e-07 0)
(0.000379963 -3.91769e-06 0)
(0.000405637 -7.08329e-06 0)
(8.73292e-06 3.50859e-05 0)
(2.69817e-05 4.00664e-05 0)
(4.66849e-05 4.24493e-05 0)
(6.76855e-05 4.28096e-05 0)
(8.99046e-05 4.17798e-05 0)
(0.000113258 3.9846e-05 0)
(0.000137621 3.73371e-05 0)
(0.000162834 3.44643e-05 0)
(0.000188716 3.13625e-05 0)
(0.000215083 2.81223e-05 0)
(0.000241763 2.48109e-05 0)
(0.000268603 2.14861e-05 0)
(0.000295475 1.82032e-05 0)
(0.000322278 1.50186e-05 0)
(0.00034894 1.19908e-05 0)
(0.000375415 9.17734e-06 0)
(0.000401681 6.63521e-06 0)
(0.000427741 4.41781e-06 0)
(1.02962e-05 4.62674e-05 0)
(3.16512e-05 5.03201e-05 0)
(5.44135e-05 5.19478e-05 0)
(7.83659e-05 5.15719e-05 0)
(0.000103326 4.97747e-05 0)
(0.000129128 4.70637e-05 0)
(0.000155605 4.38158e-05 0)
(0.000182589 4.02891e-05 0)
(0.000209914 3.66535e-05 0)
(0.000237428 3.30203e-05 0)
(0.000264997 2.94655e-05 0)
(0.000292514 2.60455e-05 0)
(0.000319892 2.28069e-05 0)
(0.000347075 1.97926e-05 0)
(0.000374028 1.70434e-05 0)
(0.000400743 1.45992e-05 0)
(0.000427229 1.24988e-05 0)
(0.000453516 1.07792e-05 0)
(1.21979e-05 5.49313e-05 0)
(3.7245e-05 5.78855e-05 0)
(6.34917e-05 5.85516e-05 0)
(9.07117e-05 5.73179e-05 0)
(0.000118666 5.47407e-05 0)
(0.000147136 5.13283e-05 0)
(0.000175924 4.74718e-05 0)
(0.000204855 4.34448e-05 0)
(0.000233779 3.94276e-05 0)
(0.000262572 3.55351e-05 0)
(0.000291139 3.18402e-05 0)
(0.000319412 2.83913e-05 0)
(0.000347349 2.52234e-05 0)
(0.000374935 2.23649e-05 0)
(0.000402175 1.98416e-05 0)
(0.000429095 1.76778e-05 0)
(0.000455738 1.58977e-05 0)
(0.000482164 1.45249e-05 0)
(1.44794e-05 6.06163e-05 0)
(4.39239e-05 6.25202e-05 0)
(7.42387e-05 6.22322e-05 0)
(0.000105183 6.01748e-05 0)
(0.000136485 5.69027e-05 0)
(0.000167895 5.29198e-05 0)
(0.0001992 4.86138e-05 0)
(0.000230234 4.42548e-05 0)
(0.00026087 4.00171e-05 0)
(0.000291019 3.60073e-05 0)
(0.000320627 3.22875e-05 0)
(0.000349671 2.88937e-05 0)
(0.000378156 2.58476e-05 0)
(0.000406108 2.31637e-05 0)
(0.000433572 2.08539e-05 0)
(0.000460612 1.89296e-05 0)
(0.000487303 1.74028e-05 0)
(0.000513732 1.62861e-05 0)
(1.72003e-05 6.31829e-05 0)
(5.18749e-05 6.41689e-05 0)
(8.69763e-05 6.30531e-05 0)
(0.000122228 6.03125e-05 0)
(0.000157331 5.65094e-05 0)
(0.00019202 5.21382e-05 0)
(0.000226094 4.75722e-05 0)
(0.000259407 4.30651e-05 0)
(0.00029187 3.87754e-05 0)
(0.000323443 3.47938e-05 0)
(0.000354121 3.11679e-05 0)
(0.000383933 2.79193e-05 0)
(0.000412931 2.50561e-05 0)
(0.000441188 2.25803e-05 0)
(0.000468793 2.0492e-05 0)
(0.000495845 1.8792e-05 0)
(0.000522455 1.74827e-05 0)
(0.000548739 1.65686e-05 0)
(2.04569e-05 6.26521e-05 0)
(6.13799e-05 6.28878e-05 0)
(0.000102159 6.11363e-05 0)
(0.000142453 5.79214e-05 0)
(0.000181938 5.38067e-05 0)
(0.000220353 4.92681e-05 0)
(0.000257523 4.46543e-05 0)
(0.00029335 4.01944e-05 0)
(0.000327802 3.60247e-05 0)
(0.000360898 3.22169e-05 0)
(0.000392697 2.8802e-05 0)
(0.000423285 2.57881e-05 0)
(0.000452772 2.31712e-05 0)
(0.000481281 2.09427e-05 0)
(0.000508944 1.90936e-05 0)
(0.000535901 1.76164e-05 0)
(0.000562299 1.65062e-05 0)
(0.000588285 1.57615e-05 0)
(2.44102e-05 5.91003e-05 0)
(7.2907e-05 5.87705e-05 0)
(0.000120528 5.66149e-05 0)
(0.000166842 5.31789e-05 0)
(0.000211496 4.90097e-05 0)
(0.000254255 4.45513e-05 0)
(0.000294995 4.01178e-05 0)
(0.000333692 3.59071e-05 0)
(0.000370392 3.203e-05 0)
(0.000405194 2.85384e-05 0)
(0.000438234 2.54481e-05 0)
(0.000469667 2.27552e-05 0)
(0.000499665 2.04466e-05 0)
(0.000528407 1.8506e-05 0)
(0.000556074 1.69179e-05 0)
(0.00058285 1.56693e-05 0)
(0.000608917 1.47502e-05 0)
(0.000634456 1.41546e-05 0)
(2.93568e-05 5.25745e-05 0)
(8.73174e-05 5.18767e-05 0)
(0.000143452 4.95767e-05 0)
(0.000197206 4.62055e-05 0)
(0.000248204 4.22678e-05 0)
(0.000296256 3.8158e-05 0)
(0.000341326 3.41451e-05 0)
(0.000383494 3.03909e-05 0)
(0.000422913 2.69797e-05 0)
(0.000459787 2.39447e-05 0)
(0.000494342 2.12892e-05 0)
(0.000526818 1.90009e-05 0)
(0.000557459 1.70609e-05 0)
(0.000586504 1.54487e-05 0)
(0.000614191 1.41456e-05 0)
(0.000640747 1.31355e-05 0)
(0.000666395 1.24061e-05 0)
(0.000691352 1.19484e-05 0)
(3.59373e-05 4.29901e-05 0)
(0.000106479 4.21369e-05 0)
(0.00017391 3.99821e-05 0)
(0.000237513 3.69959e-05 0)
(0.000296896 3.36069e-05 0)
(0.000351952 3.0139e-05 0)
(0.000402775 2.68046e-05 0)
(0.000449596 2.37256e-05 0)
(0.000492714 2.09601e-05 0)
(0.000532466 1.85257e-05 0)
(0.000569195 1.64172e-05 0)
(0.000603243 1.46182e-05 0)
(0.000634934 1.31082e-05 0)
(0.000664582 1.18666e-05 0)
(0.000692481 1.08746e-05 0)
(0.000718912 1.01166e-05 0)
(0.000744142 9.5798e-06 0)
(0.000768427 9.25455e-06 0)
(4.60741e-05 2.99095e-05 0)
(0.000136018 2.91446e-05 0)
(0.000220931 2.74759e-05 0)
(0.000299869 2.52545e-05 0)
(0.000372443 2.27897e-05 0)
(0.000438684 2.03078e-05 0)
(0.000498893 1.79521e-05 0)
(0.000553522 1.58008e-05 0)
(0.000603081 1.38873e-05 0)
(0.000648088 1.22181e-05 0)
(0.000689041 1.07846e-05 0)
(0.000726404 9.57189e-06 0)
(0.000760606 8.56282e-06 0)
(0.00079204 7.74097e-06 0)
(0.000821071 7.09173e-06 0)
(0.000848038 6.60279e-06 0)
(0.000873257 6.2642e-06 0)
(0.000897028 6.068e-06 0)
(7.57341e-05 1.12265e-05 0)
(0.000223034 1.08995e-05 0)
(0.000361071 1.02341e-05 0)
(0.000488552 9.36761e-06 0)
(0.000605164 8.41865e-06 0)
(0.00071127 7.47229e-06 0)
(0.000807614 6.58109e-06 0)
(0.000895095 5.77267e-06 0)
(0.00097463 5.05791e-06 0)
(0.00104707 4.43778e-06 0)
(0.00111317 3.90802e-06 0)
(0.0011736 3.46214e-06 0)
(0.0012289 3.09317e-06 0)
(0.00127955 2.79452e-06 0)
(0.00132596 2.56041e-06 0)
(0.00136848 2.38601e-06 0)
(0.00140741 2.2674e-06 0)
(0.00144301 2.20143e-06 0)
(9.46165e-05 -0.000202238 -2.61275e-30)
(0.000284639 -0.000201997 2.60739e-30)
(0.000475917 -0.000201597 0)
(0.000668306 -0.000201036 0)
(0.000861657 -0.000200311 0)
(0.00105581 -0.000199419 -2.56496e-30)
(0.0012506 -0.000198357 0)
(0.00144587 -0.000197124 0)
(0.00164142 -0.000195718 0)
(0.00183709 -0.000194138 0)
(0.00203268 -0.000192384 2.46251e-30)
(0.00222801 -0.000190457 0)
(0.00242287 -0.000188358 0)
(0.00261708 -0.000186089 0)
(0.00281043 -0.000183655 0)
(0.00300273 -0.00018106 2.3047e-30)
(0.00319377 -0.00017831 0)
(0.00338336 -0.000175411 0)
(0.00357131 -0.000172372 0)
(0.00375744 -0.000169201 0)
(0.00394155 -0.000165908 0)
(0.00412348 -0.000162503 0)
(0.00430305 -0.000158996 0)
(0.00448011 -0.000155399 1.9556e-30)
(0.00465451 -0.000151723 -1.90603e-30)
(0.00482611 -0.000147981 1.85564e-30)
(0.00499478 -0.000144183 1.80456e-30)
(0.0051604 -0.000140341 0)
(0.00532287 -0.000136467 0)
(0.0054821 -0.000132572 -1.64873e-30)
(0.00563799 -0.000128666 -1.59641e-30)
(0.00579048 -0.000124759 0)
(0.00593951 -0.000120863 0)
(0.00608502 -0.000116984 -1.44016e-30)
(0.00622698 -0.000113133 0)
(0.00636535 -0.000109317 0)
(0.00650012 -0.000105544 1.28739e-30)
(0.00663127 -0.00010182 0)
(0.0067588 -9.81506e-05 1.18878e-30)
(0.00688272 -9.45421e-05 2.28136e-30)
(0.00700304 -9.09991e-05 0)
(0.00711978 -8.75258e-05 0)
(0.00723296 -8.41259e-05 0)
(0.00734263 -8.08025e-05 0)
(0.0074488 -7.75582e-05 0)
(0.00755154 -7.43953e-05 1.74479e-30)
(0.00765089 -7.13155e-05 1.66283e-30)
(0.00774689 -6.832e-05 1.58313e-30)
(0.0078396 -6.54099e-05 0)
(0.00792909 -6.25856e-05 -1.4306e-30)
(0.00801541 -5.98476e-05 0)
(0.00809862 -5.71957e-05 1.28727e-30)
(0.0081788 -5.46296e-05 1.21905e-30)
(0.008256 -5.2149e-05 0)
(0.0083303 -4.97529e-05 0)
(0.00840176 -4.74406e-05 0)
(0.00847046 -4.52108e-05 9.68693e-31)
(0.00853647 -4.30625e-05 0)
(0.00859985 -4.09941e-05 0)
(0.00866069 -3.90042e-05 0)
(0.00871905 -3.70912e-05 0)
(0.008775 -3.52535e-05 0)
(0.00882862 -3.34893e-05 0)
(0.00887998 -3.17968e-05 0)
(0.00892914 -3.01743e-05 0)
(0.00897618 -2.86198e-05 -5.27883e-31)
(0.00902116 -2.71314e-05 0)
(0.00906416 -2.57073e-05 0)
(0.00910524 -2.43454e-05 4.14348e-31)
(0.00914446 -2.30439e-05 3.79775e-31)
(0.00918189 -2.18009e-05 0)
(0.0092176 -2.06144e-05 -3.15251e-31)
(0.00925165 -1.94826e-05 2.85188e-31)
(0.00928409 -1.84035e-05 0)
(0.009315 -1.73754e-05 -2.29221e-31)
(0.00934441 -1.63963e-05 0)
(0.00937241 -1.54645e-05 0)
(0.00939903 -1.45781e-05 1.54933e-31)
(0.00942433 -1.37355e-05 0)
(0.00944837 -1.2935e-05 -1.11293e-31)
(0.0094712 -1.21748e-05 0)
(0.00949287 -1.14534e-05 7.19421e-32)
(0.00951342 -1.07692e-05 5.37707e-32)
(0.00953291 -1.01205e-05 3.65435e-32)
(0.00955138 -9.50596e-06 4.04464e-32)
(0.00956887 -8.92404e-06 -9.53187e-33)
(0.00958543 -8.37334e-06 0)
(0.0096011 -7.85246e-06 0)
(0.00961591 -7.36007e-06 0)
(0.00962992 -6.89487e-06 9.82523e-32)
(0.00964315 -6.45562e-06 1.21588e-31)
(0.00965564 -6.04108e-06 -1.43607e-31)
(0.00966742 -5.6501e-06 0)
(0.00967854 -5.28155e-06 1.83955e-31)
(0.00968902 -4.93433e-06 2.02405e-31)
(0.0096989 -4.6074e-06 2.19773e-31)
(0.00970819 -4.29975e-06 0)
(0.00971694 -4.01041e-06 0)
(0.00972517 -3.73844e-06 0)
(0.00973291 -3.48294e-06 2.79512e-31)
(0.00974018 -3.24307e-06 0)
(0.00974701 -3.018e-06 0)
(0.00975342 -2.80693e-06 -3.15425e-31)
(0.00975943 -2.60911e-06 0)
(0.00976506 -2.42383e-06 0)
(0.00977034 -2.25038e-06 -3.45e-31)
(0.00977528 -2.08811e-06 0)
(0.00977991 -1.93639e-06 0)
(0.00978423 -1.79463e-06 3.69217e-31)
(0.00978827 -1.66224e-06 3.76252e-31)
(0.00979205 -1.53868e-06 0)
(0.00979558 -1.42344e-06 -3.88945e-31)
(0.00979887 -1.31602e-06 0)
(0.00980194 -1.21596e-06 3.9997e-31)
(0.0098048 -1.1228e-06 0)
(0.00980746 -1.03613e-06 4.0953e-31)
(0.00980994 -9.55538e-07 4.13808e-31)
(0.00981224 -8.80655e-07 0)
(0.00981439 -8.11119e-07 0)
(0.00981638 -7.46587e-07 0)
(0.00981822 -6.8674e-07 0)
(0.00981994 -6.31271e-07 0)
(0.00982153 -5.79896e-07 0)
(0.009823 -5.32341e-07 0)
(0.00982437 -4.88351e-07 4.38648e-31)
(0.00982563 -4.47685e-07 -4.40805e-31)
(0.0098268 -4.10116e-07 0)
(0.00982787 -3.75429e-07 0)
(0.00982887 -3.43423e-07 0)
(0.00982979 -3.13908e-07 0)
(0.00983064 -2.86704e-07 -8.98729e-31)
(0.00983142 -2.61645e-07 0)
(0.00983214 -2.38571e-07 9.0385e-31)
(0.0098328 -2.17334e-07 -9.06109e-31)
(0.0098334 -1.97792e-07 0)
(0.00983396 -1.79812e-07 0)
(0.00983447 -1.63269e-07 0)
(0.00983494 -1.48042e-07 9.1348e-31)
(0.00983537 -1.34017e-07 9.1497e-31)
(0.00983576 -1.21084e-07 0)
(0.00983611 -1.09137e-07 9.17609e-31)
(0.00983644 -9.8071e-08 9.1878e-31)
(0.00983673 -8.77836e-08 -9.19877e-31)
(0.00983699 -7.8171e-08 0)
(0.00983723 -6.9127e-08 0)
(0.00983744 -6.05408e-08 -9.2276e-31)
(0.00983762 -5.22943e-08 0)
(0.00983778 -4.42585e-08 0)
(0.00983792 -3.62896e-08 0)
(0.00983802 -2.82237e-08 0)
(0.00983811 -1.987e-08 9.27027e-31)
(0.00983816 -1.1003e-08 9.27949e-31)
(0.00983818 -1.35181e-09 0)
(0.00983817 9.41348e-09 9.30062e-31)
(0.00983811 2.16987e-08 0)
(0.00983801 3.60076e-08 0)
(0.00983785 5.29707e-08 9.34536e-31)
(0.00983762 7.33823e-08 0)
(0.00983731 9.82482e-08 9.39168e-31)
(0.00983689 1.2885e-07 0)
(0.00983634 1.66831e-07 0)
(0.00983562 2.14303e-07 9.51006e-31)
(0.00983469 2.74005e-07 0)
(0.0098335 3.49502e-07 9.64784e-31)
(0.00983196 4.45475e-07 0)
(0.00982998 5.68118e-07 0)
(0.00982743 7.25708e-07 0)
(0.00982414 9.2944e-07 -1.02386e-30)
(0.00981987 1.19468e-06 0)
(0.00981432 1.54292e-06 1.08637e-30)
(0.00980706 2.00489e-06 0)
(0.00979748 2.62584e-06 0)
(0.00978475 3.47491e-06 0)
(0.00976759 4.6629e-06 0)
(0.00974409 6.37883e-06 0)
(0.0097111 8.9736e-06 0)
(0.00966301 1.31802e-05 0)
(0.00958849 2.08169e-05 -6.11586e-30)
(0.00945892 3.77129e-05 0)
(0.00917173 9.06917e-05 0)
(9.49445e-05 -0.000607417 7.84729e-30)
(0.000285625 -0.00060669 -7.83114e-30)
(0.000477563 -0.000605488 0)
(0.000670616 -0.000603802 1.55762e-29)
(0.000864631 -0.000601622 0)
(0.00105945 -0.00059894 -7.72861e-30)
(0.0012549 -0.000595748 -1.53404e-29)
(0.00145083 -0.000592039 -1.52353e-29)
(0.00164704 -0.000587809 0)
(0.00184335 -0.000583055 -1.49846e-29)
(0.00203957 -0.000577775 7.44349e-30)
(0.00223552 -0.000571973 0)
(0.00243098 -0.000565651 0)
(0.00262577 -0.000558819 0)
(0.00281967 -0.000551486 0)
(0.00301249 -0.000543668 6.99118e-30)
(0.00320402 -0.000535382 0)
(0.00339407 -0.000526649 1.34533e-29)
(0.00358244 -0.000517492 0)
(0.00376894 -0.000507939 0)
(0.00395339 -0.000498018 -1.26868e-29)
(0.0041356 -0.00048776 0)
(0.00431542 -0.000477198 1.21315e-29)
(0.00449268 -0.000466366 5.97461e-30)
(0.00466724 -0.0004553 -5.82951e-30)
(0.00483895 -0.000444033 5.68187e-30)
(0.00500769 -0.000432602 5.53214e-30)
(0.00517334 -0.000421042 0)
(0.0053358 -0.000409387 0)
(0.00549498 -0.000397671 -5.07491e-30)
(0.00565079 -0.000385925 -1.46304e-29)
(0.00580317 -0.000374181 0)
(0.00595205 -0.000362468 0)
(0.00609739 -0.000350813 -4.46217e-30)
(0.00623915 -0.000339242 0)
(0.0063773 -0.000327779 0)
(0.00651183 -0.000316446 4.01309e-30)
(0.00664273 -0.000305262 0)
(0.00676999 -0.000294246 1.10095e-29)
(0.00689363 -0.000283413 7.1633e-30)
(0.00701365 -0.000272779 0)
(0.00713009 -0.000262355 0)
(0.00724296 -0.000252153 -1.2352e-29)
(0.00735231 -0.000242182 -1.18261e-29)
(0.00745818 -0.000232449 -1.1313e-29)
(0.0075606 -0.000222962 1.63977e-29)
(0.00765963 -0.000213724 5.3438e-30)
(0.00775532 -0.000204741 -4.74311e-30)
(0.00784772 -0.000196014 9.39255e-30)
(0.0079369 -0.000187545 -4.66055e-30)
(0.00802291 -0.000179336 0)
(0.00810583 -0.000171385 4.23884e-30)
(0.00818571 -0.000163693 1.17278e-29)
(0.00826262 -0.000156257 0)
(0.00833664 -0.000149074 0)
(0.00840783 -0.000142144 0)
(0.00847626 -0.000135461 3.30145e-30)
(0.008542 -0.000129022 0)
(0.00860514 -0.000122823 5.53713e-30)
(0.00866573 -0.000116859 0)
(0.00872385 -0.000111127 4.92125e-30)
(0.00877958 -0.00010562 0)
(0.00883297 -0.000100333 -4.35293e-30)
(0.00888412 -9.52618e-05 0)
(0.00893307 -9.03999e-05 3.82994e-30)
(0.00897991 -8.57421e-05 -5.58909e-30)
(0.00902471 -8.12825e-05 0)
(0.00906752 -7.70154e-05 -3.12529e-30)
(0.00910842 -7.29351e-05 1.67028e-30)
(0.00914748 -6.90357e-05 1.56856e-30)
(0.00918475 -6.53115e-05 0)
(0.00922031 -6.17568e-05 -3.7007e-30)
(0.00925421 -5.83658e-05 1.29024e-30)
(0.00928651 -5.5133e-05 0)
(0.00931728 -5.20527e-05 -1.12555e-30)
(0.00934657 -4.91194e-05 -1.65675e-30)
(0.00937444 -4.63278e-05 0)
(0.00940094 -4.36724e-05 9.06957e-31)
(0.00942614 -4.11482e-05 0)
(0.00945007 -3.87499e-05 3.32328e-31)
(0.0094728 -3.64726e-05 0)
(0.00949437 -3.43114e-05 -2.14461e-31)
(0.00951484 -3.22615e-05 6.09302e-31)
(0.00953424 -3.03183e-05 1.22565e-30)
(0.00955263 -2.84773e-05 2.16142e-30)
(0.00957004 -2.6734e-05 -1.88692e-30)
(0.00958653 -2.50843e-05 0)
(0.00960213 -2.35239e-05 0)
(0.00961688 -2.20488e-05 0)
(0.00963082 -2.06552e-05 -2.96415e-31)
(0.00964399 -1.93393e-05 -5.44443e-31)
(0.00965643 -1.80975e-05 4.79657e-31)
(0.00966816 -1.69263e-05 0)
(0.00967923 -1.58222e-05 -1.68767e-31)
(0.00968967 -1.4782e-05 -3.06678e-31)
(0.0096995 -1.38026e-05 -2.55581e-31)
(0.00970876 -1.2881e-05 0)
(0.00971747 -1.20142e-05 0)
(0.00972566 -1.11995e-05 0)
(0.00973337 -1.04341e-05 -7.9833e-32)
(0.0097406 -9.71552e-06 0)
(0.0097474 -9.04126e-06 9.06183e-31)
(0.00975378 -8.40897e-06 9.46945e-31)
(0.00975977 -7.81637e-06 -1.03518e-30)
(0.00976537 -7.2613e-06 0)
(0.00977063 -6.7417e-06 -1.26116e-30)
(0.00977555 -6.2556e-06 0)
(0.00978016 -5.80109e-06 -1.2474e-30)
(0.00978446 -5.3764e-06 1.47618e-30)
(0.00978849 -4.9798e-06 1.53865e-30)
(0.00979225 -4.60966e-06 0)
(0.00979576 -4.26442e-06 1.16716e-30)
(0.00979904 -3.94262e-06 -1.44312e-30)
(0.00980209 -3.64285e-06 2.7451e-31)
(0.00980494 -3.36377e-06 0)
(0.00980759 -3.10411e-06 3.02624e-31)
(0.00981006 -2.86269e-06 -1.24166e-30)
(0.00981236 -2.63836e-06 0)
(0.00981449 -2.43004e-06 -1.60244e-30)
(0.00981647 -2.23672e-06 -1.62281e-30)
(0.00981831 -2.05742e-06 -1.64169e-30)
(0.00982002 -1.89125e-06 0)
(0.0098216 -1.73734e-06 0)
(0.00982307 -1.59487e-06 0)
(0.00982443 -1.46308e-06 2.09256e-30)
(0.00982569 -1.34126e-06 -3.94611e-31)
(0.00982685 -1.2287e-06 0)
(0.00982792 -1.12479e-06 1.73994e-30)
(0.00982891 -1.0289e-06 1.75004e-30)
(0.00982983 -9.40475e-07 0)
(0.00983067 -8.58978e-07 -8.39561e-31)
(0.00983145 -7.83904e-07 3.55171e-30)
(0.00983217 -7.14778e-07 8.54614e-31)
(0.00983282 -6.51153e-07 -4.44093e-30)
(0.00983343 -5.92608e-07 0)
(0.00983398 -5.38744e-07 0)
(0.00983449 -4.89183e-07 0)
(0.00983496 -4.43566e-07 8.82925e-31)
(0.00983538 -4.01551e-07 4.51957e-30)
(0.00983577 -3.62809e-07 3.64042e-30)
(0.00983613 -3.2702e-07 8.95082e-31)
(0.00983645 -2.93874e-07 4.55346e-30)
(0.00983674 -2.63061e-07 -9.01755e-31)
(0.009837 -2.34272e-07 0)
(0.00983724 -2.07188e-07 0)
(0.00983745 -1.81479e-07 -4.58881e-30)
(0.00983763 -1.5679e-07 0)
(0.00983779 -1.32737e-07 0)
(0.00983792 -1.0889e-07 3.69374e-30)
(0.00983803 -8.47586e-08 0)
(0.00983812 -5.97732e-08 4.62687e-30)
(0.00983817 -3.32603e-08 9.25649e-31)
(0.00983819 -4.41035e-09 0)
(0.00983818 2.77616e-08 4.65405e-30)
(0.00983813 6.44672e-08 0)
(0.00983803 1.07211e-07 0)
(0.00983787 1.57874e-07 9.45384e-31)
(0.00983764 2.18829e-07 3.76141e-30)
(0.00983734 2.93077e-07 9.59315e-31)
(0.00983692 3.84444e-07 0)
(0.00983638 4.9783e-07 0)
(0.00983568 6.39541e-07 4.84264e-30)
(0.00983477 8.17742e-07 0)
(0.00983359 1.04307e-06 4.96683e-30)
(0.00983208 1.32947e-06 0)
(0.00983013 1.69541e-06 0)
(0.00982762 2.16554e-06 0)
(0.00982438 2.77316e-06 -1.21452e-30)
(0.00982018 3.56396e-06 0)
(0.00981472 4.60175e-06 1.40268e-30)
(0.00980759 5.97759e-06 0)
(0.0097982 7.82529e-06 0)
(0.00978573 1.03486e-05 5.83657e-30)
(0.00976897 1.38722e-05 -6.55891e-30)
(0.00974612 1.8946e-05 0)
(0.00971426 2.65777e-05 0)
(0.00966846 3.88237e-05 0)
(0.00959965 6.05505e-05 1.79609e-29)
(0.0094903 0.000105872 0)
(0.00931779 0.000227962 -1.01322e-28)
(9.5602e-05 -0.0010147 5.24475e-29)
(0.000287601 -0.00101348 -6.84451e-33)
(0.000480865 -0.00101148 0)
(0.000675248 -0.00100866 1.59963e-32)
(0.000870596 -0.00100501 0)
(0.00106675 -0.00100052 0)
(0.00126354 -0.000995176 -5.13001e-29)
(0.00146079 -0.000988964 -2.54951e-29)
(0.00165831 -0.000981876 2.52633e-29)
(0.00185592 -0.000973904 -2.50871e-29)
(0.00205343 -0.000965047 0)
(0.00225062 -0.000955307 0)
(0.0024473 -0.000944691 -2.42463e-29)
(0.00264325 -0.000933214 -4.78714e-29)
(0.00283827 -0.000920892 4.72068e-29)
(0.00303214 -0.000907751 0)
(0.00322466 -0.000893822 4.57525e-29)
(0.00341563 -0.00087914 2.25639e-29)
(0.00360484 -0.000863746 0)
(0.00379209 -0.000847686 4.3287e-29)
(0.00397721 -0.00083101 -2.12933e-29)
(0.00416001 -0.000813773 -4.14816e-29)
(0.00434031 -0.00079603 2.03719e-29)
(0.00451797 -0.000777839 0)
(0.00469284 -0.000759259 3.85879e-29)
(0.00486477 -0.000740353 3.75861e-29)
(0.00503364 -0.000721178 0)
(0.00519934 -0.000701794 3.55453e-29)
(0.00536178 -0.00068226 0)
(0.00552085 -0.000662631 3.34751e-29)
(0.00567648 -0.000642963 -1.63521e-29)
(0.00582862 -0.000623305 0)
(0.0059772 -0.000603707 0)
(0.00612219 -0.000584215 0)
(0.00626354 -0.000564871 0)
(0.00640125 -0.000545715 0)
(0.00653529 -0.000526783 0)
(0.00666567 -0.000508107 2.53242e-29)
(0.00679238 -0.000489717 -1.20174e-29)
(0.00691545 -0.00047164 0)
(0.00703488 -0.000453898 0)
(0.00715071 -0.000436514 0)
(0.00726297 -0.000419503 -4.16607e-29)
(0.0073717 -0.000402881 -2.01323e-29)
(0.00747693 -0.000386661 -3.53093e-31)
(0.00757872 -0.000370853 3.57894e-31)
(0.00767711 -0.000355465 -1.72895e-29)
(0.00777217 -0.000340502 -1.68695e-29)
(0.00786395 -0.00032597 3.18478e-29)
(0.00795251 -0.00031187 1.49967e-29)
(0.00803791 -0.000298204 0)
(0.00812022 -0.00028497 1.35823e-29)
(0.00819951 -0.000272168 2.62055e-29)
(0.00827585 -0.000259793 0)
(0.0083493 -0.000247843 0)
(0.00841994 -0.000236312 -1.10243e-29)
(0.00848784 -0.000225194 0)
(0.00855306 -0.000214484 0)
(0.00861569 -0.000204173 2.84118e-29)
(0.00867579 -0.000194255 1.76275e-29)
(0.00873344 -0.000184721 8.72509e-30)
(0.00878871 -0.000175564 0)
(0.00884166 -0.000166773 -7.78697e-30)
(0.00889238 -0.000158341 0)
(0.00894093 -0.000150257 1.99268e-29)
(0.00898737 -0.000142513 -6.51899e-30)
(0.00903179 -0.000135099 -1.141e-29)