/*--------------------------------*- C++ -*----------------------------------*\
  =========                 |
  \\      /  F ield         | OpenFOAM: The Open Source CFD Toolbox
   \\    /   O peration     | Website:  https://openfoam.org
    \\  /    A nd           | Version:  10
     \\/     M anipulation  |
\*---------------------------------------------------------------------------*/
FoamFile
{
    format      ascii;
    class       volVectorField;
    location    "2.57";
    object      Ub;
}
// * * * * * * * * * * * * * * * * * * * * * * * * * * * * * * * * * * * * * //

dimensions      [0 1 -1 0 0 0 0];

internalField   nonuniform List<vector> 
12225
(
(0.00229365 -0.000463081 0)
(0.00654782 -0.000412418 0)
(0.0100551 -0.000339113 0)
(0.0127647 -0.000265803 0)
(0.0147844 -0.000204274 0)
(0.0162763 -0.000157939 0)
(0.0173968 -0.000126004 0)
(0.018275 -0.000106341 0)
(0.019011 -9.69477e-05 0)
(0.0196827 -9.65901e-05 0)
(0.0203545 -0.000105134 0)
(0.0210874 -0.000123971 0)
(0.0219512 -0.000156993 0)
(0.023045 -0.000213119 0)
(0.0245412 -0.00031372 0)
(0.0268129 -0.000519019 0)
(0.0309281 -0.00105333 0)
(0.0414564 -0.00314662 0)
(0.00242579 -0.00145091 0)
(0.00691682 -0.00129031 0)
(0.0106021 -0.00105875 0)
(0.013432 -0.000827868 0)
(0.0155272 -0.000634607 0)
(0.017064 -0.000489409 0)
(0.0182102 -0.000389536 0)
(0.0191032 -0.000328147 0)
(0.0198486 -0.00029886 0)
(0.0205277 -0.000297719 0)
(0.0212072 -0.000324196 0)
(0.0219493 -0.000382456 0)
(0.022824 -0.000484212 0)
(0.0239278 -0.000656077 0)
(0.0254196 -0.000960294 0)
(0.0276042 -0.00156303 0)
(0.0311003 -0.00301135 0)
(0.0364196 -0.00764994 0)
(0.00252878 -0.00256184 0)
(0.00719855 -0.00227286 0)
(0.011006 -0.0018587 0)
(0.0139066 -0.00144796 0)
(0.0160365 -0.00110575 0)
(0.0175863 -0.000849657 0)
(0.0187341 -0.000674089 0)
(0.0196231 -0.00056645 0)
(0.0203621 -0.000515159 0)
(0.0210337 -0.000512974 0)
(0.0217048 -0.000558624 0)
(0.0224359 -0.000658777 0)
(0.0232927 -0.00083249 0)
(0.0243594 -0.00112224 0)
(0.0257601 -0.00162298 0)
(0.0276797 -0.00256562 0)
(0.030283 -0.00457758 0)
(0.0327425 -0.00945811 0)
(0.00263489 -0.00380253 0)
(0.0074828 -0.00336269 0)
(0.0113994 -0.00273761 0)
(0.0143502 -0.00212247 0)
(0.0164929 -0.00161337 0)
(0.0180362 -0.00123451 0)
(0.0191691 -0.000975917 0)
(0.0200405 -0.000817885 0)
(0.0207612 -0.000742611 0)
(0.021414 -0.000738847 0)
(0.022064 -0.000803983 0)
(0.0227682 -0.000946439 0)
(0.0235837 -0.001191 0)
(0.0245766 -0.00159143 0)
(0.0258247 -0.00226048 0)
(0.0273916 -0.00344153 0)
(0.0291544 -0.00566611 0)
(0.030096 -0.00993432 0)
(0.00275765 -0.00519111 0)
(0.00780548 -0.0045706 0)
(0.0118317 -0.00369885 0)
(0.0148187 -0.00285009 0)
(0.016955 -0.00215408 0)
(0.0184727 -0.00163998 0)
(0.0195741 -0.00129113 0)
(0.0204138 -0.0010788 0)
(0.0211039 -0.000977638 0)
(0.0217262 -0.000971448 0)
(0.0223426 -0.0010554 0)
(0.023004 -0.00123841 0)
(0.0237571 -0.00154836 0)
(0.0246455 -0.00204386 0)
(0.0257008 -0.0028385 0)
(0.0268942 -0.00414563 0)
(0.0279775 -0.00633009 0)
(0.0281279 -0.00979477 0)
(0.00290834 -0.00675481 0)
(0.00819468 -0.00591252 0)
(0.0123375 -0.00474726 0)
(0.0153471 -0.00362895 0)
(0.0174555 -0.00272308 0)
(0.0189262 -0.00206056 0)
(0.0199773 -0.00161441 0)
(0.0207695 -0.00134426 0)
(0.0214154 -0.00121549 0)
(0.0219945 -0.00120573 0)
(0.0225638 -0.0013068 0)
(0.0231672 -0.00152637 0)
(0.0238385 -0.00189217 0)
(0.0245995 -0.0024606 0)
(0.0254433 -0.00333159 0)
(0.0262865 -0.00466496 0)
(0.0268644 -0.00666349 0)
(0.0266125 -0.00938933 0)
(0.00310002 -0.00853208 0)
(0.00868127 -0.00740956 0)
(0.0129518 -0.00588785 0)
(0.0159668 -0.00445501 0)
(0.0180207 -0.00331286 0)
(0.019418 -0.00248817 0)
(0.0203966 -0.00193825 0)
(0.0211229 -0.00160748 0)
(0.0217093 -0.00144979 0)
(0.0222311 -0.00143519 0)
(0.0227398 -0.00155068 0)
(0.0232704 -0.00180079 0)
(0.0238441 -0.0022096 0)
(0.0244634 -0.00282516 0)
(0.0250953 -0.00372436 0)
(0.0256355 -0.0050084 0)
(0.0258571 -0.0067575 0)
(0.0254101 -0.00888062 0)
(0.00335035 -0.0105772 0)
(0.0093051 -0.00908874 0)
(0.0137159 -0.00712437 0)
(0.0167114 -0.0053202 0)
(0.0186754 -0.00391157 0)
(0.0199665 -0.00291102 0)
(0.0208454 -0.00225216 0)
(0.0214844 -0.0018593 0)
(0.0219939 -0.00167223 0)
(0.0224436 -0.00165161 0)
(0.0228778 -0.00177817 0)
(0.0233224 -0.00205125 0)
(0.0237868 -0.00248824 0)
(0.0242589 -0.00312459 0)
(0.0246919 -0.0040107 0)
(0.0249842 -0.00519652 0)
(0.0249646 -0.00668524 0)
(0.024432 -0.00834042 0)
(0.00368527 -0.0129685 0)
(0.0101221 -0.0109841 0)
(0.0146833 -0.0084568 0)
(0.0176204 -0.00620949 0)
(0.0194458 -0.00450082 0)
(0.0205883 -0.00331212 0)
(0.0213347 -0.00254171 0)
(0.0218616 -0.00208757 0)
(0.0222747 -0.00187217 0)
(0.0226367 -0.00184501 0)
(0.022983 -0.00197909 0)
(0.0233305 -0.00226685 0)
(0.0236785 -0.00271687 0)
(0.0240054 -0.00335004 0)
(0.0242611 -0.00419174 0)
(0.0243589 -0.00525384 0)
(0.0241807 -0.00649967 0)
(0.0236199 -0.00779821 0)
(0.00414515 -0.0158215 0)
(0.0112154 -0.0131371 0)
(0.0159268 -0.00987648 0)
(0.0187422 -0.00709624 0)
(0.0203605 -0.00505247 0)
(0.0212995 -0.00366735 0)
(0.0218733 -0.00278747 0)
(0.0222594 -0.00227661 0)
(0.0225553 -0.00203641 0)
(0.0228135 -0.00200357 0)
(0.0230598 -0.00214219 0)
(0.0233016 -0.00243673 0)
(0.0235306 -0.00288596 0)
(0.0237202 -0.00349653 0)
(0.0238235 -0.00427335 0)
(0.0237731 -0.00520395 0)
(0.0234936 -0.00623679 0)
(0.0229334 -0.00726438 0)
(0.00479615 -0.0193143 0)
(0.0127134 -0.0155946 0)
(0.017548 -0.0113566 0)
(0.0201363 -0.00793445 0)
(0.0214496 -0.00552407 0)
(0.0221139 -0.00394307 0)
(0.0224672 -0.00296378 0)
(0.0226802 -0.0024066 0)
(0.0228367 -0.00214901 0)
(0.0229755 -0.00211374 0)
(0.023111 -0.0022555 0)
(0.0232418 -0.00255048 0)
(0.023353 -0.00298792 0)
(0.0234169 -0.00356225 0)
(0.023393 -0.00426373 0)
(0.0232324 -0.00506701 0)
(0.0228897 -0.00591993 0)
(0.022344 -0.00674093 0)
(0.00568152 -0.0233094 0)
(0.0146695 -0.0181559 0)
(0.019538 -0.0127228 0)
(0.0217561 -0.00860427 0)
(0.0226594 -0.00584041 0)
(0.0229861 -0.00409275 0)
(0.0230835 -0.00304073 0)
(0.0231041 -0.00245669 0)
(0.0231108 -0.00219386 0)
(0.0231258 -0.00216203 0)
(0.0231511 -0.00230765 0)
(0.0231766 -0.00259984 0)
(0.0231831 -0.00302024 0)
(0.023143 -0.00355456 0)
(0.0230226 -0.00418439 0)
(0.0227865 -0.00487957 0)
(0.0224075 -0.00559336 0)
(0.0218789 -0.00626515 0)
(0.00692734 -0.028435 0)
(0.0172925 -0.0209905 0)
(0.0220126 -0.0139551 0)
(0.0236399 -0.00904816 0)
(0.0239885 -0.00595075 0)
(0.0238965 -0.0040791 0)
(0.0236947 -0.00299219 0)
(0.0234995 -0.00240873 0)
(0.0233441 -0.00215848 0)
(0.0232292 -0.00214012 0)
(0.0231428 -0.00229361 0)
(0.0230661 -0.0025828 0)
(0.0229759 -0.00298391 0)
(0.0228458 -0.00347715 0)
(0.0226477 -0.00404 0)
(0.0223567 -0.00464235 0)
(0.0219573 -0.00524497 0)
(0.0214497 -0.00580339 0)
(0.00917733 -0.0364464 0)
(0.0217283 -0.0244703 0)
(0.0257771 -0.0149679 0)
(0.02627 -0.00911269 0)
(0.0257263 -0.00572656 0)
(0.0250272 -0.00380767 0)
(0.0244204 -0.00275055 0)
(0.0239477 -0.00221424 0)
(0.0235915 -0.00200763 0)
(0.0233214 -0.00202189 0)
(0.0231065 -0.00219339 0)
(0.0229176 -0.00248304 0)
(0.0227272 -0.00286394 0)
(0.0225093 -0.00331357 0)
(0.0222413 -0.00380857 0)
(0.0219059 -0.00432197 0)
(0.0214948 -0.0048233 0)
(0.0210112 -0.0052818 0)
(0.0137769 -0.0504467 0)
(0.0299616 -0.028015 0)
(0.0316791 -0.014874 0)
(0.0299015 -0.00819796 0)
(0.0279146 -0.00480542 0)
(0.026355 -0.00305699 0)
(0.0252229 -0.00217347 0)
(0.0244109 -0.00177568 0)
(0.02382 -0.00166987 0)
(0.0233754 -0.00175165 0)
(0.0230218 -0.00196137 0)
(0.0227174 -0.00226216 0)
(0.0224293 -0.00262819 0)
(0.0221317 -0.003038 0)
(0.021805 -0.00347085 0)
(0.0214367 -0.00390527 0)
(0.0210218 -0.00431961 0)
(0.0205634 -0.00469417 0)
(0.0249401 -0.0794752 0)
(0.0472844 -0.0275005 0)
(0.0408959 -0.0110902 0)
(0.0345373 -0.0050724 0)
(0.0303521 -0.00258759 0)
(0.0276919 -0.00150811 0)
(0.0259577 -0.00107317 0)
(0.0247832 -0.000971358 0)
(0.0239529 -0.00105946 0)
(0.0233364 -0.00126477 0)
(0.0228508 -0.00154642 0)
(0.0224406 -0.00187884 0)
(0.0220672 -0.0022435 0)
(0.0217038 -0.00262476 0)
(0.0213323 -0.00300788 0)
(0.0209421 -0.0033786 0)
(0.0205294 -0.00372367 0)
(0.020096 -0.00403204 0)
(0.0591798 0.000552811 0)
(0.0904638 0.00302948 0)
(0.0527861 0.00256281 0)
(0.0386904 0.00200472 0)
(0.0321164 0.00153151 0)
(0.0285229 0.00110412 0)
(0.0263353 0.000695439 0)
(0.0248968 0.000293583 0)
(0.0238895 -0.000106158 0)
(0.0231415 -0.000504787 0)
(0.02255 -0.000899483 0)
(0.0220516 -0.0012909 0)
(0.0216067 -0.00167488 0)
(0.0211896 -0.00204612 0)
(0.0207838 -0.00239865 0)
(0.0203798 -0.00272629 0)
(0.0199735 -0.00302342 0)
(0.0195648 -0.00328568 0)
(0.0204951 0.0761626 0)
(0.0405004 0.0320003 0)
(0.0373334 0.0163759 0)
(0.0325257 0.00962392 0)
(0.0289341 0.0061695 0)
(0.0264825 0.00413857 0)
(0.0248035 0.0027998 0)
(0.0236183 0.00183101 0)
(0.0227468 0.00107609 0)
(0.0220755 0.000454093 0)
(0.0215333 -7.74377e-05 0)
(0.0210729 -0.000545094 0)
(0.0206606 -0.000961515 0)
(0.0202754 -0.00133734 0)
(0.0199054 -0.00167595 0)
(0.0195439 -0.00197884 0)
(0.0191877 -0.00224667 0)
(0.018836 -0.00248006 0)
(0.00782163 0.0404177 0)
(0.0187298 0.0279367 0)
(0.0226156 0.0185673 0)
(0.0233741 0.0125484 0)
(0.0230455 0.00869931 0)
(0.0224343 0.00615028 0)
(0.0218162 0.00438264 0)
(0.0212675 0.00309785 0)
(0.0207954 0.00212232 0)
(0.0203863 0.00135274 0)
(0.0200234 0.000726073 0)
(0.0196929 0.000204373 0)
(0.0193851 -0.00023648 0)
(0.0190916 -0.000613995 0)
(0.0188059 -0.000940564 0)
(0.0185246 -0.00122409 0)
(0.0182466 -0.00146959 0)
(0.017972 -0.00168101 0)
(0.00425105 0.0245487 0)
(0.0111735 0.0203099 0)
(0.015274 0.0156547 0)
(0.0174013 0.0117689 0)
(0.0184115 0.00879218 0)
(0.0188396 0.00656514 0)
(0.0189739 0.00489445 0)
(0.0189605 0.00362277 0)
(0.0188712 0.00263577 0)
(0.0187406 0.00185374 0)
(0.0185853 0.00122185 0)
(0.0184136 0.000702396 0)
(0.0182296 0.000269321 0)
(0.0180373 -9.35214e-05 0)
(0.0178388 -0.000399342 0)
(0.0176347 -0.000659928 0)
(0.0174266 -0.000882758 0)
(0.0172162 -0.00107316 0)
(0.00292547 0.0173228 0)
(0.00803513 0.0152447 0)
(0.0116696 0.0125464 0)
(0.0140304 0.00997224 0)
(0.0154977 0.00778888 0)
(0.0163894 0.00602656 0)
(0.0169209 0.00462978 0)
(0.0172264 0.00352516 0)
(0.0173871 0.00264617 0)
(0.0174517 0.00193953 0)
(0.0174503 0.00136473 0)
(0.0174015 0.000891742 0)
(0.0173178 0.000498478 0)
(0.017208 0.000168694 0)
(0.0170794 -0.000107961 0)
(0.0169369 -0.00034054 0)
(0.0167837 -0.000538534 0)
(0.0166228 -0.000707222 0)
(0.00226932 0.0127854 0)
(0.00637903 0.0115921 0)
(0.00958116 0.00989597 0)
(0.0119025 0.00814137 0)
(0.0135223 0.00655057 0)
(0.0146311 0.00519717 0)
(0.0153813 0.00408039 0)
(0.0158822 0.00317041 0)
(0.0162084 0.00243075 0)
(0.0164102 0.00182754 0)
(0.0165218 0.00133252 0)
(0.0165666 0.000923255 0)
(0.0165612 0.000582364 0)
(0.0165178 0.000296525 0)
(0.0164454 5.55432e-05 0)
(0.0163516 -0.000146246 0)
(0.0162422 -0.000317036 0)
(0.0161206 -0.000462438 0)
(0.00189896 0.00962265 0)
(0.00540828 0.00886801 0)
(0.00828583 0.00773752 0)
(0.0105067 0.00650717 0)
(0.0121605 0.00534145 0)
(0.0133667 0.00431308 0)
(0.0142352 0.0034397 0)
(0.014853 0.00271208 0)
(0.0152854 0.00211076 0)
(0.0155799 0.00161449 0)
(0.0157709 0.0012039 0)
(0.0158836 0.000862659 0)
(0.0159363 0.000577547 0)
(0.015943 0.00033809 0)
(0.0159141 0.000136046 0)
(0.0158585 -3.4451e-05 0)
(0.0157825 -0.000177599 0)
(0.0156911 -0.000299476 0)
(0.00167022 0.00726798 0)
(0.00479436 0.00676353 0)
(0.00743598 0.00598267 0)
(0.0095547 0.00510457 0)
(0.0111969 0.00424773 0)
(0.0124423 0.00347274 0)
(0.0133727 0.00280101 0)
(0.0140592 0.00223228 0)
(0.0145583 0.0017564 0)
(0.014914 0.00136 0)
(0.0151595 0.00102982 0)
(0.01532 0.000754116 0)
(0.0154146 0.000523038 0)
(0.0154581 0.000328564 0)
(0.0154618 0.000164259 0)
(0.0154346 2.49853e-05 0)
(0.0153841 -9.19178e-05 0)
(0.0153159 -0.000191214 0)
(0.00151914 0.00543761 0)
(0.00438226 0.00509145 0)
(0.00685043 0.00454393 0)
(0.00887924 0.00391481 0)
(0.010493 0.00328864 0)
(0.011748 0.00271246 0)
(0.0127085 0.00220586 0)
(0.0134336 0.00177195 0)
(0.0139735 0.00140557 0)
(0.0143685 0.00109823 0)
(0.0146503 0.000840882 0)
(0.0148438 0.000625159 0)
(0.014968 0.000443842 0)
(0.0150381 0.000290937 0)
(0.0150657 0.000161555 0)
(0.01506 5.17445e-05 0)
(0.0150288 -4.09933e-05 0)
(0.014978 -0.000119367 0)
(0.00141338 0.00397307 0)
(0.00409015 0.00373521 0)
(0.00642669 0.00335342 0)
(0.00837832 0.00290837 0)
(0.00995739 0.00245944 0)
(0.0112063 0.00204146 0)
(0.0121774 0.00167027 0)
(0.0129221 0.00134975 0)
(0.0134853 0.00107731 0)
(0.0139044 0.000847581 0)
(0.0142098 0.000654444 0)
(0.0144254 0.000492041 0)
(0.0145702 0.000355215 0)
(0.0146592 0.000239616 0)
(0.0147041 0.000141656 0)
(0.0147145 5.84134e-05 0)
(0.0146979 -1.22679e-05 0)
(0.0146605 -7.17264e-05 0)
(0.00133449 0.00277857 0)
(0.00386991 0.00261935 0)
(0.00610121 0.00236113 0)
(0.00798469 0.00205723 0)
(0.00952606 0.00174791 0)
(0.010759 0.0014576 0)
(0.0117283 0.00119803 0)
(0.0124796 0.000972591 0)
(0.013054 0.000780066 0)
(0.0134866 0.000617105 0)
(0.0138063 0.000479677 0)
(0.0140362 0.00036383 0)
(0.014195 0.000266033 0)
(0.0142972 0.000183272 0)
(0.0143548 0.000113042 0)
(0.0143771 5.32871e-05 0)
(0.0143716 2.35117e-06 0)
(0.0143446 -4.04e-05 0)
(0.00127032 0.00179275 0)
(0.00368886 0.00169318 0)
(0.00582872 0.00153053 0)
(0.00764764 0.00133788 0)
(0.00914756 0.00114062 0)
(0.0103567 0.000954498 0)
(0.0113146 0.000787299 0)
(0.0120627 0.000641507 0)
(0.0126393 0.000516581 0)
(0.0130774 0.000410538 0)
(0.0134045 0.000320898 0)
(0.013643 0.000245185 0)
(0.0138108 0.000181159 0)
(0.0139223 0.000126896 0)
(0.0139892 8.07869e-05 0)
(0.0140206 4.15062e-05 0)
(0.014024 7.96295e-06 0)
(0.0140055 -2.02355e-05 0)
(0.00121004 0.00097524 0)
(0.00351698 0.000922278 0)
(0.00556533 0.000835315 0)
(0.00731457 0.00073188 0)
(0.00876458 0.000625566 0)
(0.00993989 0.000524903 0)
(0.0108763 0.000434191 0)
(0.0116119 0.000354875 0)
(0.0121825 0.000286746 0)
(0.0126192 0.000228792 0)
(0.012948 0.000179712 0)
(0.0131903 0.000138187 0)
(0.0133635 0.00010302 0)
(0.0134814 7.31738e-05 0)
(0.0135552 4.77801e-05 0)
(0.013594 2.61195e-05 0)
(0.0136049 7.60047e-06 0)
(0.0135939 -7.98878e-06 0)
(0.00113262 0.000302272 0)
(0.00329404 0.000286079 0)
(0.00521793 0.000259408 0)
(0.00686636 0.000227613 0)
(0.00823812 0.000194864 0)
(0.0093548 0.000163795 0)
(0.0102487 0.000135747 0)
(0.0109545 0.000111183 0)
(0.0115051 9.00529e-05 0)
(0.0119292 7.20542e-05 0)
(0.0122512 5.6792e-05 0)
(0.0124909 4.38647e-05 0)
(0.0126646 3.29046e-05 0)
(0.0127853 2.35933e-05 0)
(0.0128637 1.56631e-05 0)
(0.0129081 8.89206e-06 0)
(0.0129256 3.09736e-06 0)
(0.0129218 -1.78087e-06 0)
(7.84431e-05 -0.00018148 -2.34465e-30)
(0.000235982 -0.000181241 2.3397e-30)
(0.00039453 -0.000180828 0)
(0.00055393 -0.000180238 0)
(0.000714019 -0.000179467 0)
(0.000874627 -0.000178513 -2.29691e-30)
(0.00103558 -0.000177378 0)
(0.0011967 -0.000176062 0)
(0.00135781 -0.000174567 0)
(0.00151872 -0.000172896 0)
(0.00167926 -0.000171055 2.19101e-30)
(0.00183925 -0.000169051 0)
(0.00199852 -0.000166891 0)
(0.0021569 -0.000164586 0)
(0.00231424 -0.000162148 0)
(0.00247039 -0.000159591 2.03351e-30)
(0.00262522 -0.000156932 0)
(0.00277862 -0.000154189 0)
(0.0029305 -0.000151386 0)
(0.00308078 -0.000148549 0)
(0.00322946 -0.000145708 0)
(0.00337652 -0.000142895 0)
(0.00352202 -0.000140143 0)
(0.00366604 -0.000137488 1.73372e-30)
(0.00380873 -0.000134962 -1.69938e-30)
(0.00395027 -0.000132594 1.6671e-30)
(0.00409087 -0.000130408 1.63719e-30)
(0.0042308 -0.000128425 0)
(0.00437035 -0.000126658 0)
(0.00450985 -0.000125118 -1.56388e-30)
(0.00464965 -0.000123812 -1.54535e-30)
(0.00479013 -0.000122746 0)
(0.00493169 -0.000121925 0)
(0.00507476 -0.000121357 -1.5086e-30)
(0.00521982 -0.000121051 0)
(0.00536736 -0.000121018 0)
(0.00551788 -0.000121266 1.50219e-30)
(0.00567194 -0.000121802 0)
(0.00583004 -0.000122628 1.5161e-30)
(0.00599268 -0.000123732 3.05691e-30)
(0.00616026 -0.000125092 0)
(0.00633309 -0.000126672 0)
(0.00651128 -0.000128425 0)
(0.00669479 -0.0001303 0)
(0.00688338 -0.000132259 0)
(0.0070767 -0.000134287 3.30416e-30)
(0.00727439 -0.000136413 3.35444e-30)
(0.00747614 -0.000138718 3.40926e-30)
(0.0076819 -0.000141343 0)
(0.00789192 -0.000144488 -3.54861e-30)
(0.0081069 -0.000148405 0)
(0.00832803 -0.000153396 3.76857e-30)
(0.00855701 -0.000159811 3.92899e-30)
(0.00879611 -0.000168057 0)
(0.00904812 -0.000178601 0)
(0.00931629 -0.000191961 0)
(0.00960397 -0.000208625 5.1661e-30)
(0.0099135 -0.00022879 0)
(0.0102425 -0.000251576 0)
(0.0105713 -0.000273003 0)
(0.0107989 -0.000280893 0)
(0.00962135 -0.000233773 0)
(0.00419076 -3.12831e-06 0)
(1.49306e-06 -6.81837e-10 0)
(2.41466e-23 -1.1027e-26 0)
(8.0087e-32 1.48515e-33 4.02809e-59)
(7.77422e-32 1.09872e-33 0)
(7.58862e-32 8.59433e-34 0)
(7.43411e-32 7.00336e-34 -1.98584e-59)
(7.30079e-32 5.87347e-34 -1.69062e-59)
(7.18285e-32 5.02334e-34 0)
(7.07671e-32 4.35228e-34 1.29211e-59)
(6.98003e-32 3.80191e-34 -1.14757e-59)
(6.89122e-32 3.33698e-34 0)
(6.80913e-32 2.93524e-34 9.19501e-60)
(6.73291e-32 2.58211e-34 0)
(6.6619e-32 2.26763e-34 0)
(6.59558e-32 1.98478e-34 -6.68768e-60)
(6.5335e-32 1.72837e-34 0)
(6.47531e-32 1.49451e-34 5.39197e-60)
(6.42069e-32 1.28016e-34 0)
(6.36938e-32 1.0829e-34 -4.30301e-60)
(6.32113e-32 9.00776e-35 -3.82083e-60)
(6.27574e-32 7.32156e-35 -3.37424e-60)
(6.23301e-32 5.75676e-35 -5.9193e-60)
(6.19278e-32 4.30177e-35 5.14812e-60)
(6.1549e-32 2.94665e-35 0)
(6.11921e-32 1.68278e-35 0)
(6.0856e-32 5.02642e-36 0)
(6.05393e-32 -6.00381e-36 2.54818e-60)
(6.02411e-32 -1.63214e-35 2.0007e-60)
(5.99602e-32 -2.59785e-35 -1.48817e-60)
(5.96958e-32 -3.50218e-35 0)
(5.94469e-32 -4.34935e-35 5.58421e-61)
(5.92126e-32 -5.14316e-35 1.36997e-61)
(5.89922e-32 -5.88708e-35 -2.5801e-61)
(5.87849e-32 -6.5843e-35 0)
(5.859e-32 -7.23773e-35 0)
(5.84069e-32 -7.85006e-35 0)
(5.82349e-32 -8.4238e-35 -1.60522e-60)
(5.80733e-32 -8.96126e-35 0)
(5.79218e-32 -9.4646e-35 0)
(5.77796e-32 -9.93585e-35 2.40846e-60)
(5.76462e-32 -1.03769e-34 0)
(5.75213e-32 -1.07895e-34 0)
(5.74042e-32 -1.11754e-34 3.06698e-60)
(5.72947e-32 -1.15361e-34 0)
(5.71922e-32 -1.18731e-34 0)
(5.70963e-32 -1.21878e-34 -3.60492e-60)
(5.70067e-32 -1.24815e-34 -3.76101e-60)
(5.6923e-32 -1.27555e-34 0)
(5.68449e-32 -1.3011e-34 4.04239e-60)
(5.6772e-32 -1.32491e-34 0)
(5.67041e-32 -1.34709e-34 -4.28679e-60)
(5.66407e-32 -1.36773e-34 0)
(5.65818e-32 -1.38693e-34 -4.49851e-60)
(5.65269e-32 -1.40477e-34 -4.59341e-60)
(5.64758e-32 -1.42136e-34 0)
(5.64283e-32 -1.43676e-34 0)
(5.63842e-32 -1.45105e-34 0)
(5.63433e-32 -1.4643e-34 0)
(5.63053e-32 -1.47658e-34 0)
(5.62701e-32 -1.48795e-34 0)
(5.62374e-32 -1.49848e-34 0)
(5.62072e-32 -1.50821e-34 -5.14325e-60)
(5.61792e-32 -1.51721e-34 5.19112e-60)
(5.61534e-32 -1.52553e-34 0)
(5.61294e-32 -1.5332e-34 0)
(5.61074e-32 -1.54027e-34 0)
(5.6087e-32 -1.54679e-34 0)
(5.60682e-32 -1.5528e-34 1.07607e-59)
(5.60509e-32 -1.55833e-34 0)
(5.60349e-32 -1.56341e-34 -1.08735e-59)
(5.60202e-32 -1.56808e-34 1.09232e-59)
(5.60067e-32 -1.57237e-34 0)
(5.59943e-32 -1.57631e-34 0)
(5.59828e-32 -1.57991e-34 0)
(5.59724e-32 -1.58321e-34 -1.10841e-59)
(5.59627e-32 -1.58623e-34 -1.11162e-59)
(5.59539e-32 -1.58898e-34 0)
(5.59458e-32 -1.5915e-34 -1.11723e-59)
(5.59384e-32 -1.59379e-34 -1.11967e-59)
(5.59316e-32 -1.59586e-34 1.12188e-59)
(5.59254e-32 -1.59775e-34 0)
(5.59197e-32 -1.59945e-34 0)
(5.59144e-32 -1.60098e-34 1.12733e-59)
(5.59096e-32 -1.60235e-34 0)
(5.59051e-32 -1.60356e-34 0)
(5.5901e-32 -1.60463e-34 0)
(5.58972e-32 -1.60555e-34 0)
(5.58937e-32 -1.60632e-34 -1.13306e-59)
(5.58903e-32 -1.60695e-34 -1.13374e-59)
(5.58871e-32 -1.60743e-34 0)
(5.58841e-32 -1.60775e-34 -1.13462e-59)
(5.5881e-32 -1.60789e-34 0)
(5.5878e-32 -1.60784e-34 0)
(5.58748e-32 -1.60756e-34 -1.13451e-59)
(5.58715e-32 -1.60702e-34 0)
(5.58679e-32 -1.60617e-34 -1.13313e-59)
(5.58639e-32 -1.60493e-34 0)
(5.58593e-32 -1.60322e-34 0)
(5.58539e-32 -1.60093e-34 -1.12786e-59)
(5.58475e-32 -1.59791e-34 0)
(5.58396e-32 -1.59395e-34 -1.12077e-59)
(5.58299e-32 -1.58879e-34 0)
(5.58178e-32 -1.58209e-34 0)
(5.58026e-32 -1.57338e-34 0)
(5.57832e-32 -1.56202e-34 1.08829e-59)
(5.57584e-32 -1.54715e-34 0)
(5.57263e-32 -1.52754e-34 -1.05318e-59)
(5.56845e-32 -1.50146e-34 0)
(5.56297e-32 -1.46634e-34 0)
(5.5557e-32 -1.41825e-34 0)
(5.54593e-32 -1.35091e-34 0)
(5.53255e-32 -1.25358e-34 0)
(5.51379e-32 -1.10634e-34 0)
(5.48647e-32 -8.6757e-35 0)
(5.44414e-32 -4.34045e-35 -1.30673e-60)
(5.37055e-32 5.25201e-35 0)
(5.20747e-32 3.53313e-34 0)
(9.6221e-05 -0.000573654 7.41088e-30)
(0.000289483 -0.000572983 -7.39536e-30)
(0.000484035 -0.00057176 0)
(0.000679699 -0.000569978 1.47015e-29)
(0.00087629 -0.00056763 0)
(0.00107362 -0.000564717 -7.28612e-30)
(0.0012715 -0.000561244 -1.44478e-29)
(0.00146976 -0.000557225 -1.43345e-29)
(0.00166822 -0.000552678 0)
(0.00186674 -0.000547623 -1.40676e-29)
(0.00206519 -0.000542089 6.98195e-30)
(0.00226345 -0.000536104 0)
(0.00246141 -0.000529704 0)
(0.002659 -0.000522922 0)
(0.00285614 -0.0005158 0)
(0.00305279 -0.000508379 6.5346e-30)
(0.0032489 -0.000500703 0)
(0.00344443 -0.000492818 1.25764e-29)
(0.00363933 -0.000484773 0)
(0.00383355 -0.000476619 0)
(0.00402702 -0.000468409 -1.19179e-29)
(0.00421962 -0.000460193 0)
(0.00441123 -0.000452026 1.14763e-29)
(0.00460165 -0.000443957 5.68369e-30)
(0.00479066 -0.000436036 -5.57908e-30)
(0.00497801 -0.000428309 5.477e-30)
(0.00516341 -0.000420819 5.378e-30)
(0.00534657 -0.000413607 0)
(0.00552721 -0.000406713 0)
(0.00570506 -0.000400176 -5.10481e-30)
(0.00587988 -0.000394039 -1.49314e-29)
(0.00605149 -0.000388345 0)
(0.00621976 -0.000383144 0)
(0.00638461 -0.000378485 -4.81643e-30)
(0.00654603 -0.000374423 0)
(0.00670406 -0.000371011 0)
(0.00685878 -0.000368301 4.67922e-30)
(0.00701035 -0.000366337 0)
(0.00715893 -0.000365151 1.37358e-29)
(0.00730478 -0.000364758 9.25632e-30)
(0.0074482 -0.00036516 0)
(0.00758956 -0.000366335 0)
(0.00772932 -0.000368258 -1.83085e-29)
(0.00786805 -0.000370905 -1.84323e-29)
(0.00800646 -0.000374279 -1.85936e-29)
(0.00814534 -0.000378437 2.83856e-29)
(0.00828566 -0.000383517 9.71806e-30)
(0.00842847 -0.000389756 -9.47796e-30)
(0.00857496 -0.00039751 1.9741e-29)
(0.00872643 -0.000407254 -1.03212e-29)
(0.00888428 -0.000419588 0)
(0.00905008 -0.000435247 1.10372e-29)
(0.00922558 -0.000455114 3.42042e-29)
(0.00941277 -0.000480262 0)
(0.00961394 -0.000511997 0)
(0.00983177 -0.0005519 0)
(0.0100694 -0.000601796 1.53183e-29)
(0.0103302 -0.000663448 0)
(0.0106172 -0.000737391 3.71195e-29)
(0.0109272 -0.000819073 0)
(0.0112151 -0.00088595 4.47433e-29)
(0.0109051 -0.000836058 0)
(0.00524325 -7.25478e-05 -3.25547e-30)
(8.08577e-06 -1.10776e-08 0)
(1.52672e-19 -2.09162e-22 -3.6045e-48)
(7.87702e-32 4.33148e-33 3.45196e-58)
(7.69707e-32 3.39208e-33 0)
(7.53997e-32 2.77952e-33 1.50818e-58)
(7.4012e-32 2.3551e-33 -6.26252e-59)
(7.27708e-32 2.04391e-33 -5.45518e-59)
(7.16481e-32 1.80411e-33 0)
(7.06236e-32 1.61154e-33 1.33309e-58)
(6.96822e-32 1.45167e-33 -3.917e-59)
(6.88123e-32 1.31547e-33 0)
(6.80051e-32 1.19708e-33 3.25495e-59)
(6.72535e-32 1.0926e-33 6.28371e-59)
(6.6552e-32 9.99279e-34 0)
(6.58958e-32 9.1517e-34 -2.52123e-59)
(6.5281e-32 8.38811e-34 0)
(6.47041e-32 7.6909e-34 -2.44633e-59)
(6.41623e-32 7.05132e-34 0)
(6.3653e-32 6.46237e-34 2.12132e-59)
(6.3174e-32 5.91831e-34 -1.679e-59)
(6.27231e-32 5.41438e-34 -4.93917e-59)
(6.22985e-32 4.94658e-34 -9.14277e-59)
(6.18987e-32 4.51148e-34 8.45851e-59)
(6.15221e-32 4.10614e-34 0)
(6.11672e-32 3.72802e-34 0)
(6.08329e-32 3.37489e-34 0)
(6.0518e-32 3.04478e-34 -2.43138e-59)
(6.02213e-32 2.73596e-34 1.69881e-59)
(5.99418e-32 2.44687e-34 -1.54804e-59)
(5.96787e-32 2.17613e-34 0)
(5.9431e-32 1.92248e-34 4.38482e-59)
(5.91979e-32 1.6848e-34 1.15054e-59)
(5.89785e-32 1.46203e-34 1.03434e-59)
(5.87722e-32 1.25323e-34 0)
(5.85782e-32 1.05754e-34 0)
(5.83959e-32 8.74153e-35 0)
(5.82247e-32 7.02316e-35 6.38018e-60)
(5.80639e-32 5.41339e-35 0)
(5.7913e-32 3.90576e-35 1.49767e-59)
(5.77714e-32 2.49424e-35 9.47313e-60)
(5.76387e-32 1.17315e-35 -1.20995e-59)
(5.75143e-32 -6.28128e-37 0)
(5.73977e-32 -1.21866e-35 -1.16611e-59)
(5.72887e-32 -2.29911e-35 0)
(5.71866e-32 -3.3086e-35 -7.38008e-60)
(5.70912e-32 -4.25132e-35 6.88514e-60)
(5.7002e-32 -5.13126e-35 5.49938e-60)
(5.69186e-32 -5.95215e-35 0)
(5.68408e-32 -6.71755e-35 4.57893e-60)
(5.67683e-32 -7.43079e-35 -3.03877e-60)
(5.67006e-32 -8.09507e-35 -1.50773e-60)
(5.66375e-32 -8.71338e-35 0)
(5.65788e-32 -9.28855e-35 -2.13049e-60)
(5.65241e-32 -9.82328e-35 -2.92849e-60)
(5.64733e-32 -1.03201e-34 0)
(5.6426e-32 -1.07814e-34 4.90314e-61)
(5.63821e-32 -1.12095e-34 9.41206e-61)
(5.63413e-32 -1.16065e-34 1.35937e-60)
(5.63035e-32 -1.19744e-34 0)
(5.62684e-32 -1.23151e-34 0)
(5.62359e-32 -1.26305e-34 0)
(5.62058e-32 -1.29221e-34 -6.77195e-60)
(5.6178e-32 -1.31917e-34 4.16733e-60)
(5.61522e-32 -1.34407e-34 0)
(5.61284e-32 -1.36706e-34 -3.53383e-60)
(5.61064e-32 -1.38826e-34 -3.75716e-60)
(5.60861e-32 -1.40779e-34 0)
(5.60674e-32 -1.42579e-34 9.44749e-60)
(5.60501e-32 -1.44235e-34 -8.65422e-60)
(5.60342e-32 -1.45758e-34 -9.77932e-60)
(5.60196e-32 -1.47158e-34 1.91955e-59)
(5.60061e-32 -1.48442e-34 0)
(5.59938e-32 -1.49621e-34 0)
(5.59824e-32 -1.50701e-34 0)
(5.59719e-32 -1.5169e-34 -1.03985e-59)
(5.59624e-32 -1.52594e-34 -2.09088e-59)
(5.59536e-32 -1.53419e-34 -1.059e-59)
(5.59455e-32 -1.54172e-34 -1.06577e-59)
(5.59381e-32 -1.54858e-34 -2.16227e-59)
(5.59314e-32 -1.55481e-34 1.07943e-59)
(5.59251e-32 -1.56045e-34 0)
(5.59195e-32 -1.56555e-34 0)
(5.59142e-32 -1.57014e-34 2.23025e-59)
(5.59094e-32 -1.57424e-34 0)
(5.5905e-32 -1.57787e-34 0)
(5.59009e-32 -1.58107e-34 -1.15792e-59)
(5.58971e-32 -1.58383e-34 0)
(5.58936e-32 -1.58615e-34 -2.28092e-59)
(5.58903e-32 -1.58804e-34 -1.11419e-59)
(5.58871e-32 -1.58948e-34 0)
(5.5884e-32 -1.59044e-34 -2.29466e-59)
(5.5881e-32 -1.59087e-34 0)
(5.5878e-32 -1.59072e-34 0)
(5.58749e-32 -1.5899e-34 -1.11625e-59)
(5.58716e-32 -1.58829e-34 -1.17396e-59)
(5.58681e-32 -1.58574e-34 -1.11202e-59)
(5.58641e-32 -1.58206e-34 0)
(5.58595e-32 -1.57697e-34 0)
(5.58542e-32 -1.57014e-34 -2.2331e-59)
(5.58479e-32 -1.56111e-34 0)
(5.58401e-32 -1.5493e-34 -2.16912e-59)
(5.58306e-32 -1.53392e-34 0)
(5.58186e-32 -1.51392e-34 0)
(5.58036e-32 -1.48794e-34 0)
(5.57845e-32 -1.45407e-34 9.76655e-60)
(5.57601e-32 -1.40973e-34 0)
(5.57285e-32 -1.35131e-34 -8.70933e-60)
(5.56875e-32 -1.27364e-34 0)
(5.56338e-32 -1.16913e-34 0)
(5.55626e-32 -1.02622e-34 -2.33002e-61)
(5.54671e-32 -8.26472e-35 -3.86157e-60)
(5.5337e-32 -5.38676e-35 0)
(5.51559e-32 -1.05619e-35 0)
(5.48956e-32 5.89448e-35 0)
(5.45047e-32 1.82283e-34 6.85788e-59)
(5.38836e-32 4.39587e-34 0)
(5.2904e-32 1.13276e-33 -5.08468e-58)
(0.000102307 -0.00100701 5.20491e-29)
(0.00030781 -0.00100594 -7.32121e-33)
(0.000514704 -0.00100387 0)
(0.000722772 -0.00100079 1.71179e-32)
(0.000931789 -0.000996702 0)
(0.00114153 -0.000991608 0)
(0.00135177 -0.000985527 -5.07909e-29)
(0.00156228 -0.000978494 -2.52197e-29)
(0.00177286 -0.00097055 2.49625e-29)
(0.0019833 -0.000961748 -2.47669e-29)
(0.00219343 -0.000952146 0)
(0.00240308 -0.000941805 0)
(0.00261209 -0.000930792 -2.38753e-29)
(0.00282032 -0.000919176 -4.71206e-29)
(0.00302765 -0.000907024 4.6463e-29)
(0.00323398 -0.000894407 0)
(0.00343918 -0.000881388 4.50793e-29)
(0.00364317 -0.00086803 2.2266e-29)
(0.00384583 -0.000854387 0)
(0.00404706 -0.000840507 4.28797e-29)
(0.00424672 -0.00082643 -2.11621e-29)
(0.00444464 -0.000812189 -4.13594e-29)
(0.00464066 -0.000797812 2.04038e-29)
(0.00483453 -0.000783327 0)
(0.00502603 -0.000768762 3.90319e-29)
(0.00521487 -0.000754154 3.825e-29)
(0.0054008 -0.000739551 0)
(0.00558356 -0.000725016 3.66914e-29)
(0.00576289 -0.000710627 0)
(0.00593862 -0.000696476 3.51656e-29)
(0.00611057 -0.00068267 -1.7358e-29)
(0.00627866 -0.000669325 0)
(0.00644286 -0.000656563 0)
(0.00660318 -0.000644509 0)
(0.0067597 -0.000633287 0)
(0.00691256 -0.000623016 0)
(0.00706193 -0.000613808 0)
(0.00720806 -0.000605767 3.02962e-29)
(0.00735123 -0.000598984 -1.47891e-29)
(0.00749176 -0.000593545 0)
(0.00763003 -0.000589527 0)
(0.00776651 -0.000587005 0)
(0.00790168 -0.000586061 -5.87316e-29)
(0.00803614 -0.000586797 -2.95777e-29)
(0.00817056 -0.000589351 -3.85867e-31)
(0.00830568 -0.000593912 3.92244e-31)
(0.00844233 -0.00060075 -2.9862e-29)
(0.00858141 -0.000610223 -3.07373e-29)
(0.00872391 -0.000622807 6.2337e-29)
(0.00887087 -0.00063911 3.17845e-29)
(0.00902343 -0.000659893 0)
(0.0091828 -0.000686108 3.417e-29)
(0.00935032 -0.000718947 7.21296e-29)
(0.00952746 -0.000759919 0)
(0.00971586 -0.000810976 0)
(0.00991746 -0.000874699 -4.38158e-29)
(0.0101346 -0.00095461 0)
(0.0103707 -0.00105571 0)
(0.0106313 -0.00118552 1.79853e-28)
(0.0109282 -0.00135599 1.37109e-28)
(0.0112839 -0.00158559 8.09075e-29)
(0.0116088 -0.00187171 0)
(0.00600583 -0.00125683 -6.44091e-29)
(0.000135222 -3.08759e-07 0)
(3.48154e-14 -7.94957e-17 -8.21952e-43)
(7.70125e-32 6.24826e-33 3.303e-58)
(7.58294e-32 5.17923e-33 5.57001e-58)
(7.46203e-32 4.4125e-33 7.12549e-58)
(7.34517e-32 3.83951e-33 0)
(7.23482e-32 3.39447e-33 -3.71476e-58)
(7.13158e-32 3.0367e-33 0)
(7.03531e-32 2.74052e-33 -1.54968e-58)
(6.94558e-32 2.48931e-33 -2.77066e-58)
(6.86187e-32 2.27206e-33 -2.54365e-58)
(6.78367e-32 2.08125e-33 2.34414e-58)
(6.71052e-32 1.91158e-33 -1.115e-58)
(6.642e-32 1.75926e-33 0)
(6.57773e-32 1.62145e-33 0)
(6.5174e-32 1.49599e-33 1.73146e-58)
(6.46071e-32 1.3812e-33 8.36083e-59)
(6.40739e-32 1.27573e-33 0)
(6.35722e-32 1.17848e-33 6.69296e-59)
(6.30998e-32 1.08856e-33 0)
(6.26549e-32 1.00521e-33 6.38017e-59)
(6.22357e-32 9.2778e-34 -2.21247e-58)
(6.18407e-32 8.55722e-34 2.06159e-58)
(6.14685e-32 7.88562e-34 -9.89497e-59)
(6.11176e-32 7.25886e-34 0)
(6.0787e-32 6.67331e-34 8.62217e-59)
(6.04754e-32 6.12577e-34 -1.55233e-58)
(6.01818e-32 5.6134e-34 0)
(5.99052e-32 5.13367e-34 0)
(5.96447e-32 4.68429e-34 0)
(5.93994e-32 4.26322e-34 5.52996e-59)
(5.91685e-32 3.86857e-34 0)
(5.89512e-32 3.49865e-34 0)
(5.87468e-32 3.1519e-34 0)
(5.85547e-32 2.82688e-34 0)
(5.8374e-32 2.52225e-34 0)
(5.82044e-32 2.2368e-34 -3.96178e-59)
(5.8045e-32 1.96937e-34 0)