/*--------------------------------*- C++ -*----------------------------------*\
  =========                 |
  \\      /  F ield         | OpenFOAM: The Open Source CFD Toolbox
   \\    /   O peration     | Website:  https://openfoam.org
    \\  /    A nd           | Version:  10
     \\/     M anipulation  |
\*---------------------------------------------------------------------------*/
FoamFile
{
    format      ascii;
    class       volScalarField;
    location    "7600";
    object      p;
}
// * * * * * * * * * * * * * * * * * * * * * * * * * * * * * * * * * * * * * //

dimensions      [1 -1 -2 0 0 0 0];

internalField   nonuniform List<scalar> 
6400
(
111.658
111.67
111.693
111.728
111.774
111.833
111.904
111.987
112.084
112.194
112.317
112.455
112.609
112.778
112.964
113.168
113.391
113.635
113.901
114.191
114.508
114.854
115.233
115.649
116.105
116.609
117.166
117.787
118.48
119.258
120.134
121.119
121.906
122.403
122.905
123.397
123.857
124.255
124.552
124.712
124.712
124.552
124.255
123.857
123.397
122.905
122.403
121.906
121.119
120.134
119.258
118.48
117.787
117.166
116.609
116.105
115.649
115.233
114.854
114.508
114.191
113.901
113.635
113.391
113.168
112.964
112.778
112.609
112.455
112.317
112.194
112.084
111.987
111.904
111.833
111.774
111.728
111.693
111.67
111.658
111.364
111.375
111.398
111.433
111.48
111.538
111.609
111.693
111.789
111.899
112.023
112.161
112.314
112.483
112.669
112.873
113.096
113.34
113.606
113.896
114.213
114.559
114.938
115.353
115.809
116.312
116.87
117.489
118.182
118.96
119.836
120.821
121.609
122.108
122.614
123.11
123.577
123.983
124.288
124.453
124.453
124.288
123.983
123.577
123.11
122.614
122.108
121.609
120.821
119.836
118.96
118.182
117.489
116.87
116.312
115.809
115.353
114.938
114.559
114.213
113.896
113.606
113.34
113.096
112.873
112.669
112.483
112.314
112.161
112.023
111.899
111.789
111.693
111.609
111.538
111.48
111.433
111.398
111.375
111.364
111.04
111.052
111.075
111.11
111.156
111.215
111.286
111.369
111.465
111.575
111.699
111.837
111.99
112.159
112.345
112.549
112.772
113.015
113.281
113.571
113.888
114.233
114.612
115.026
115.482
115.985
116.541
117.16
117.851
118.627
119.502
120.488
121.28
121.783
122.296
122.804
123.286
123.711
124.035
124.213
124.213
124.035
123.711
123.286
122.804
122.296
121.783
121.28
120.488
119.502
118.627
117.851
117.16
116.541
115.985
115.482
115.026
114.612
114.233
113.888
113.571
113.281
113.015
112.772
112.549
112.345
112.159
111.99
111.837
111.699
111.575
111.465
111.369
111.286
111.215
111.156
111.11
111.075
111.052
111.04
110.684
110.696
110.719
110.754
110.8
110.859
110.93
111.013
111.109
111.219
111.343
111.48
111.633
111.802
111.988
112.192
112.414
112.658
112.923
113.213
113.529
113.874
114.252
114.666
115.12
115.622
116.177
116.793
117.483
118.257
119.13
120.116
120.914
121.424
121.948
122.475
122.985
123.444
123.804
124.006
124.006
123.804
123.444
122.985
122.475
121.948
121.424
120.914
120.116
119.13
118.257
117.483
116.793
116.177
115.622
115.12
114.666
114.252
113.874
113.529
113.213
112.923
112.658
112.414
112.192
111.988
111.802
111.633
111.48
111.343
111.219
111.109
111.013
110.93
110.859
110.8
110.754
110.719
110.696
110.684
110.293
110.305
110.328
110.363
110.409
110.468
110.539
110.622
110.718
110.828
110.951
111.089
111.241
111.41
111.595
111.799
112.021
112.264
112.529
112.818
113.133
113.478
113.854
114.267
114.72
115.22
115.772
116.386
117.072
117.843
118.713
119.699
120.504
121.024
121.566
122.122
122.674
123.19
123.611
123.857
123.857
123.611
123.19
122.674
122.122
121.566
121.024
120.504
119.699
118.713
117.843
117.072
116.386
115.772
115.22
114.72
114.267
113.854
113.478
113.133
112.818
112.529
112.264
112.021
111.799
111.595
111.41
111.241
111.089
110.951
110.828
110.718
110.622
110.539
110.468
110.409
110.363
110.328
110.305
110.293
109.864
109.875
109.898
109.933
109.979
110.038
110.108
110.191
110.287
110.397
110.52
110.657
110.81
110.978
111.163
111.366
111.588
111.83
112.094
112.382
112.697
113.04
113.415
113.826
114.277
114.774
115.323
115.933
116.615
117.38
118.245
119.23
120.044
120.576
121.141
121.736
122.35
122.954
123.48
123.806
123.806
123.48
122.954
122.35
121.736
121.141
120.576
120.044
119.23
118.245
117.38
116.615
115.933
115.323
114.774
114.277
113.826
113.415
113.04
112.697
112.382
112.094
111.83
111.588
111.366
111.163
110.978
110.81
110.657
110.52
110.397
110.287
110.191
110.108
110.038
109.979
109.933
109.898
109.875
109.864
109.391
109.402
109.425
109.46
109.506
109.565
109.635
109.718
109.814
109.923
110.046
110.183
110.335
110.503
110.687
110.889
111.11
111.352
111.615
111.902
112.215
112.556
112.929
113.338
113.786
114.279
114.824
115.429
116.103
116.861
117.719
118.699
119.522
120.067
120.658
121.301
122
122.738
123.447
123.929
123.929
123.447
122.738
122
121.301
120.658
120.067
119.522
118.699
117.719
116.861
116.103
115.429
114.824
114.279
113.786
113.338
112.929
112.556
112.215
111.902
111.615
111.352
111.11
110.889
110.687
110.503
110.335
110.183
110.046
109.923
109.814
109.718
109.635
109.565
109.506
109.46
109.425
109.402
109.391
108.871
108.882
108.905
108.94
108.986
109.044
109.114
109.197
109.292
109.401
109.523
109.66
109.812
109.979
110.163
110.364
110.584
110.824
111.086
111.371
111.682
112.021
112.392
112.797
113.241
113.729
114.268
114.866
115.532
116.279
117.125
118.097
118.923
119.478
120.094
120.789
121.589
122.521
123.562
124.403
124.403
123.562
122.521
121.589
120.789
120.094
119.478
118.923
118.097
117.125
116.279
115.532
114.866
114.268
113.729
113.241
112.797
112.392
112.021
111.682
111.371
111.086
110.824
110.584
110.364
110.163
109.979
109.812
109.66
109.523
109.401
109.292
109.197
109.114
109.044
108.986
108.94
108.905
108.882
108.871
108.299
108.31
108.333
108.367
108.413
108.471
108.541
108.624
108.719
108.827
108.949
109.085
109.235
109.402
109.585
109.785
110.003
110.242
110.502
110.785
111.094
111.43
111.797
112.198
112.637
113.119
113.65
114.238
114.892
115.625
116.454
117.409
118.228
118.784
119.412
120.142
121.032
122.197
123.861
134.72
134.72
123.861
122.197
121.032
120.142
119.412
118.784
118.228
117.409
116.454
115.625
114.892
114.238
113.65
113.119
112.637
112.198
111.797
111.43
111.094
110.785
110.502
110.242
110.003
109.785
109.585
109.402
109.235
109.085
108.949
108.827
108.719
108.624
108.541
108.471
108.413
108.367
108.333
108.31
108.299
107.669
107.68
107.703
107.737
107.783
107.841
107.91
107.992
108.087
108.194
108.315
108.451
108.6
108.766
108.947
109.146
109.363
109.6
109.857
110.138
110.443
110.776
111.138
111.533
111.966
112.44
112.961
113.536
114.175
114.889
115.695
116.621
117.415
117.955
118.565
119.277
120.158
121.361
125.765
159.137
159.137
125.765
121.361
120.158
119.277
118.565
117.955
117.415
116.621
115.695
114.889
114.175
113.536
112.961
112.44
111.966
111.533
111.138
110.776
110.443
110.138
109.857
109.6
109.363
109.146
108.947
108.766
108.6
108.451
108.315
108.194
108.087
107.992
107.91
107.841
107.783
107.737
107.703
107.68
107.669
106.976
106.987
107.009
107.043
107.089
107.146
107.215
107.297
107.391
107.497
107.618
107.752
107.9
108.064
108.244
108.441
108.656
108.89
109.145
109.422
109.723
110.051
110.407
110.796
111.22
111.684
112.193
112.753
113.372
114.061
114.834
115.717
116.463
116.964
117.517
118.135
118.827
119.603
159.509
167.44
167.44
159.509
119.603
118.827
118.135
117.517
116.964
116.463
115.717
114.834
114.061
113.372
112.753
112.193
111.684
111.22
110.796
110.407
110.051
109.723
109.422
109.145
108.89
108.656
108.441
108.244
108.064
107.9
107.752
107.618
107.497
107.391
107.297
107.215
107.146
107.089
107.043
107.009
106.987
106.976
106.212
106.223
106.246
106.279
106.324
106.381
106.45
106.53
106.624
106.729
106.848
106.981
107.128
107.291
107.468
107.663
107.875
108.106
108.357
108.63
108.926
109.248
109.598
109.978
110.391
110.843
111.336
111.877
112.471
113.129
113.861
114.684
115.361
115.806
116.278
116.777
117.29
117.893
152.16
161.365
161.365
152.16
117.893
117.29
116.777
116.278
115.806
115.361
114.684
113.861
113.129
112.471
111.877
111.336
110.843
110.391
109.978
109.598
109.248
108.926
108.63
108.357
108.106
107.875
107.663
107.468
107.291
107.128
106.981
106.848
106.729
106.624
106.53
106.45
106.381
106.324
106.279
106.246
106.223
106.212
105.371
105.382
105.404
105.437
105.482
105.538
105.606
105.686
105.778
105.883
106
106.131
106.277
106.437
106.612
106.804
107.013
107.24
107.486
107.754
108.044
108.358
108.699
109.069
109.47
109.906
110.381
110.898
111.463
112.082
112.763
113.512
114.108
114.487
114.876
115.266
115.643
116.149
141.344
150.972
150.972
141.344
116.149
115.643
115.266
114.876
114.487
114.108
113.512
112.763
112.082
111.463
110.898
110.381
109.906
109.47
109.069
108.699
108.358
108.044
107.754
107.486
107.24
107.013
106.804
106.612
106.437
106.277
106.131
106
105.883
105.778
105.686
105.606
105.538
105.482
105.437
105.404
105.382
105.371
104.444
104.455
104.477
104.51
104.554
104.609
104.676
104.755
104.846
104.949
105.065
105.194
105.337
105.494
105.666
105.854
106.059
106.282
106.523
106.784
107.066
107.372
107.702
108.059
108.446
108.863
109.316
109.805
110.336
110.91
111.531
112.198
112.706
113.021
113.334
113.636
113.915
114.345
132.911
141.338
141.338
132.911
114.345
113.915
113.636
113.334
113.021
112.706
112.198
111.531
110.91
110.336
109.805
109.316
108.863
108.446
108.059
107.702
107.372
107.066
106.784
106.523
106.282
106.059
105.854
105.666
105.494
105.337
105.194
105.065
104.949
104.846
104.755
104.676
104.609
104.554
104.51
104.477
104.455
104.444
103.422
103.432
103.454
103.487
103.53
103.584
103.65
103.728
103.817
103.918
104.032
104.159
104.299
104.453
104.621
104.805
105.005
105.222
105.456
105.71
105.983
106.278
106.596
106.938
107.307
107.703
108.13
108.587
109.078
109.602
110.157
110.738
111.163
111.42
111.669
111.903
112.113
112.484
126.658
133.672
133.672
126.658
112.484
112.113
111.903
111.669
111.42
111.163
110.738
110.157
109.602
109.078
108.587
108.13
107.703
107.307
106.938
106.596
106.278
105.983
105.71
105.456
105.222
105.005
104.805
104.621
104.453
104.299
104.159
104.032
103.918
103.817
103.728
103.65
103.584
103.53
103.487
103.454
103.432
103.422
102.295
102.305
102.326
102.358
102.401
102.454
102.519
102.594
102.682
102.781
102.892
103.016
103.152
103.303
103.467
103.645
103.839
104.049
104.276
104.52
104.783
105.065
105.369
105.694
106.042
106.414
106.811
107.233
107.68
108.149
108.637
109.132
109.482
109.69
109.887
110.069
110.231
110.561
121.799
127.694
127.694
121.799
110.561
110.231
110.069
109.887
109.69
109.482
109.132
108.637
108.149
107.68
107.233
106.811
106.414
106.042
105.694
105.369
105.065
104.783
104.52
104.276
104.049
103.839
103.645
103.467
103.303
103.152
103.016
102.892
102.781
102.682
102.594
102.519
102.454
102.401
102.358
102.326
102.305
102.295
100.972
100.982
101.003
101.034
101.075
101.127
101.19
101.264
101.349
101.445
101.553
101.673
101.805
101.951
102.109
102.281
102.467
102.669
102.885
103.118
103.368
103.635
103.921
104.225
104.549
104.892
105.254
105.634
106.031
106.441
106.857
107.268
107.548
107.712
107.866
108.007
108.131
108.426
117.469
122.518
122.518
117.469
108.426
108.131
108.007
107.866
107.712
107.548
107.268
106.857
106.441
106.031
105.634
105.254
104.892
104.549
104.225
103.921
103.635
103.368
103.118
102.885
102.669
102.467
102.281
102.109
101.951
101.805
101.673
101.553
101.445
101.349
101.264
101.19
101.127
101.075
101.034
101.003
100.982
100.972
99.5027
99.5127
99.5326
99.5626
99.6028
99.6532
99.7139
99.7852
99.8671
99.96
100.064
100.179
100.307
100.446
100.597
100.762
100.939
101.131
101.336
101.556
101.79
102.04
102.305
102.586
102.882
103.193
103.518
103.855
104.201
104.551
104.899
105.233
105.455
105.584
105.704
105.813
105.91
106.183
113.414
117.9
117.9
113.414
106.183
105.91
105.813
105.704
105.584
105.455
105.233
104.899
104.551
104.201
103.855
103.518
103.193
102.882
102.586
102.305
102.04
101.79
101.556
101.336
101.131
100.939
100.762
100.597
100.446
100.307
100.179
100.064
99.96
99.8671
99.7852
99.7139
99.6532
99.6028
99.5626
99.5326
99.5127
99.5027
98.0235
98.0331
98.0524
98.0813
98.12
98.1686
98.2271
98.2957
98.3745
98.4637
98.5635
98.6741
98.7958
98.9287
99.0732
99.2294
99.3978
99.5785
99.7718
99.9778
100.197
100.429
100.674
100.931
101.2
101.481
101.77
102.066
102.366
102.664
102.953
103.225
103.402
103.503
103.597
103.681
103.756
103.993
109.67
113.81
113.81
109.67
103.993
103.756
103.681
103.597
103.503
103.402
103.225
102.953
102.664
102.366
102.066
101.77
101.481
101.2
100.931
100.674
100.429
100.197
99.9778
99.7718
99.5785
99.3978
99.2294
99.0732
98.9287
98.7958
98.6741
98.5635
98.4637
98.3745
98.2957
98.2271
98.1686
98.12
98.0813
98.0524
98.0331
98.0235
96.5346
96.5439
96.5624
96.5903
96.6275
96.6741
96.7302
96.796
96.8715
96.9569
97.0523
97.1578
97.2737
97.4
97.5371
97.685
97.8438
98.0138
98.1949
98.3872
98.5906
98.8049
99.0297
99.2643
99.5079
99.7589
100.015
100.274
100.533
100.785
101.025
101.245
101.384
101.463
101.534
101.597
101.652
101.836
105.976
109.93
109.93
105.976
101.836
101.652
101.597
101.534
101.463
101.384
101.245
101.025
100.785
100.533
100.274
100.015
99.7589
99.5079
99.2643
99.0297
98.8049
98.5906
98.3872
98.1949
98.0138
97.8438
97.685
97.5371
97.4
97.2737
97.1578
97.0523
96.9569
96.8715
96.796
96.7302
96.6741
96.6275
96.5903
96.5624
96.5439
96.5346
95.0365
95.0454
95.0631
95.0898
95.1254
95.1701
95.2238
95.2866
95.3586
95.44
95.5308
95.6311
95.7411
95.8607
95.9902
96.1295
96.2787
96.4379
96.6068
96.7854
96.9735
97.1705
97.3759
97.5888
97.8079
98.0317
98.2579
98.4836
98.7053
98.9181
99.1166
99.2939
99.4013
99.4606
99.5125
99.5562
99.5913
99.7002
102.19
106.104
106.104
102.19
99.7002
99.5913
99.5562
99.5125
99.4606
99.4013
99.2939
99.1166
98.9181
98.7053
98.4836
98.2579
98.0317
97.8079
97.5888
97.3759
97.1705
96.9735
96.7854
96.6068
96.4379
96.2787
96.1295
95.9902
95.8607
95.7411
95.6311
95.5308
95.44
95.3586
95.2866
95.2238
95.1701
95.1254
95.0898
95.0631
95.0454
95.0365
93.5295
93.538
93.555
93.5804
93.6144
93.657
93.7081
93.7679
93.8365
93.9138
93.9999
94.0949
94.1988
94.3116
94.4334
94.5642
94.7038
94.8521
95.0091
95.1743
95.3474
95.5277
95.7146
95.9069
96.1033
96.3021
96.5009
96.697
96.8867
97.0658
97.2292
97.3709
97.4525
97.496
97.5319
97.5595
97.5778
97.6106
98.4215
102.465
102.465
98.4215
97.6106
97.5778
97.5595
97.5319
97.496
97.4525
97.3709
97.2292
97.0658
96.8867
96.697
96.5009
96.3021
96.1033
95.9069
95.7146
95.5277
95.3474
95.1743
95.0091
94.8521
94.7038
94.5642
94.4334
94.3116
94.1988
94.0949
93.9999
93.9138
93.8365
93.7679
93.7081
93.657
93.6144
93.5804
93.555
93.538
93.5295
92.0141
92.0221
92.0383
92.0625
92.0948
92.1353
92.1838
92.2406
92.3055
92.3787
92.46
92.5497
92.6475
92.7535
92.8677
92.9899
93.12
93.2579
93.4031
93.5553
93.714
93.8784
94.0478
94.221
94.3964
94.5724
94.7467
94.9166
95.0787
95.2292
95.3636
95.4765
95.5381
95.5696
95.5938
95.61
95.6171
95.6138
95.6046
99.6751
99.6751
95.6046
95.6138
95.6171
95.61
95.5938
95.5696
95.5381
95.4765
95.3636
95.2292
95.0787
94.9166
94.7467
94.5724
94.3964
94.221
94.0478
93.8784
93.714
93.5553
93.4031
93.2579
93.12
92.9899
92.8677
92.7535
92.6475
92.5497
92.46
92.3787
92.3055
92.2406
92.1838
92.1353
92.0948
92.0625
92.0383
92.0221
92.0141
90.4906
90.4982
90.5135
90.5365
90.5671
90.6054
90.6514
90.705
90.7664
90.8353
90.912
90.9962
91.088
91.1873
91.294
91.4078
91.5286
91.6562
91.79
91.9298
92.0748
92.2243
92.3773
92.5327
92.689
92.8445
92.9969
93.1439
93.2823
93.4088
93.5194
93.6097
93.6566
93.6796
93.6964
93.7063
93.7089
93.7037
93.6952
97.6944
97.6944
93.6952
93.7037
93.7089
93.7063
93.6964
93.6796
93.6566
93.6097
93.5194
93.4088
93.2823
93.1439
92.9969
92.8445
92.689
92.5327
92.3773
92.2243
92.0748
91.9298
91.79
91.6562
91.5286
91.4078
91.294
91.1873
91.088
90.9962
90.912
90.8353
90.7664
90.705
90.6514
90.6054
90.5671
90.5365
90.5135
90.4982
90.4906
88.9594
88.9666
88.9811
89.0028
89.0317
89.0679
89.1113
89.1618
89.2195
89.2844
89.3563
89.4353
89.5211
89.6137
89.713
89.8187
89.9305
90.0481
90.1712
90.299
90.4311
90.5665
90.7044
90.8435
90.9824
91.1195
91.2527
91.3797
91.4979
91.6043
91.6956
91.7682
91.8043
91.8216
91.8335
91.8398
91.8403
91.8348
91.8266
95.8878
95.8878
91.8266
91.8348
91.8403
91.8398
91.8335
91.8216
91.8043
91.7682
91.6956
91.6043
91.4979
91.3797
91.2527
91.1195
90.9824
90.8435
90.7044
90.5665
90.4311
90.299
90.1712
90.0481
89.9305
89.8187
89.713
89.6137
89.5211
89.4353
89.3563
89.2844
89.2195
89.1618
89.1113
89.0679
89.0317
89.0028
88.9811
88.9666
88.9594
87.421
87.4278
87.4415
87.4619
87.4891
87.5232
87.5639
87.6114
87.6656
87.7263
87.7936
87.8674
87.9474
88.0335
88.1256
88.2234
88.3266
88.4347
88.5474
88.6641
88.784
88.9064
89.0303
89.1545
89.2778
89.3984
89.5146
89.6243
89.7253
89.815
89.8906
89.9493
89.9774
89.9904
89.999
90.003
90.0021
89.9965
89.9882
94.1557
94.1557
89.9882
89.9965
90.0021
90.003
89.999
89.9904
89.9774
89.9493
89.8906
89.815
89.7253
89.6243
89.5146
89.3984
89.2778
89.1545
89.0303
88.9064
88.784
88.6641
88.5474
88.4347
88.3266
88.2234
88.1256
88.0335
87.9474
87.8674
87.7936
87.7263
87.6656
87.6114
87.5639
87.5232
87.4891
87.4619
87.4415
87.4278
87.421
85.8758
85.8822
85.895
85.9142
85.9398
85.9717
86.0099
86.0544
86.105
86.1618
86.2245
86.2932
86.3675
86.4474
86.5326
86.6228
86.7177
86.8168
86.9197
87.0258
87.1345
87.2448
87.3559
87.4666
87.5756
87.6817
87.783
87.8777
87.964
88.0396
88.1024
88.15
88.172
88.1819
88.188
88.1902
88.1884
88.1826
88.1743
92.4795
92.4795
88.1743
88.1826
88.1884
88.1902
88.188
88.1819
88.172
88.15
88.1024
88.0396
87.964
87.8777
87.783
87.6817
87.5756
87.4666
87.3559
87.2448
87.1345
87.0258
86.9197
86.8168
86.7177
86.6228
86.5326
86.4474
86.3675
86.2932
86.2245
86.1618
86.105
86.0544
86.0099
85.9717
85.9398
85.9142
85.895
85.8822
85.8758
84.3241
84.3301
84.3421
84.3601
84.384
84.4139
84.4496
84.4911
84.5383
84.5912
84.6495
84.7132
84.7821
84.856
84.9345
85.0175
85.1045
85.1951
85.2888
85.3851
85.4832
85.5824
85.6818
85.7802
85.8766
85.9697
86.0579
86.1397
86.2134
86.2772
86.3293
86.368
86.3852
86.3926
86.3967
86.3976
86.3951
86.3892
86.3808
90.8547
90.8547
86.3808
86.3892
86.3951
86.3976
86.3967
86.3926
86.3852
86.368
86.3293
86.2772
86.2134
86.1397
86.0579
85.9697
85.8766
85.7802
85.6818
85.5824
85.4832
85.3851
85.2888
85.1951
85.1045
85.0175
84.9345
84.856
84.7821
84.7132
84.6495
84.5912
84.5383
84.4911
84.4496
84.4139
84.384
84.3601
84.3421
84.3301
84.3241
82.7665
82.7721
82.7833
82.8001
82.8224
82.8502
82.8835
82.9221
82.9661
83.0151
83.0692
83.1281
83.1918
83.2598
83.332
83.4081
83.4877
83.5703
83.6554
83.7425
83.8309
83.9199
84.0085
84.0959
84.181
84.2625
84.3392
84.4097
84.4726
84.5264
84.5697
84.601
84.6142
84.6196
84.6222
84.622
84.6189
84.6129
84.6046
89.2809
89.2809
84.6046
84.6129
84.6189
84.622
84.6222
84.6196
84.6142
84.601
84.5697
84.5264
84.4726
84.4097
84.3392
84.2625
84.181
84.0959
84.0085
83.9199
83.8309
83.7425
83.6554
83.5703
83.4877
83.4081
83.332
83.2598
83.1918
83.1281
83.0692
83.0151
82.9661
82.9221
82.8835
82.8502
82.8224
82.8001
82.7833
82.7721
82.7665
81.2032
81.2085
81.2189
81.2345
81.2553
81.2812
81.3121
81.3479
81.3886
81.434
81.484
81.5384
81.597
81.6595
81.7257
81.7953
81.8678
81.9429
82.02
82.0986
82.1781
82.2577
82.3366
82.414
82.4888
82.5601
82.6267
82.6873
82.7409
82.7862
82.8219
82.8471
82.857
82.8608
82.8621
82.8609
82.8573
82.8512
82.843
87.7603
87.7603
82.843
82.8512
82.8573
82.8609
82.8621
82.8608
82.857
82.8471
82.8219
82.7862
82.7409
82.6873
82.6267
82.5601
82.4888
82.414
82.3366
82.2577
82.1781
82.0986
82.02
81.9429
81.8678
81.7953
81.7257
81.6595
81.597
81.5384
81.484
81.434
81.3886
81.3479
81.3121
81.2812
81.2553
81.2345
81.2189
81.2085
81.2032
79.6348
79.6396
79.6493
79.6638
79.6831
79.707
79.7357
79.7688
79.8064
79.8483
79.8944
79.9444
79.9982
80.0555
80.116
80.1795
80.2454
80.3134
80.3831
80.4539
80.5251
80.5961
80.6662
80.7345
80.8003
80.8624
80.92
80.9721
81.0176
81.0555
81.0848
81.1047
81.1118
81.1141
81.1144
81.1124
81.1084
81.1022
81.094
86.2978
86.2978
81.094
81.1022
81.1084
81.1124
81.1144
81.1141
81.1118
81.1047
81.0848
81.0555
81.0176
80.9721
80.92
80.8624
80.8003
80.7345
80.6662
80.5961
80.5251
80.4539
80.3831
80.3134
80.2454
80.1795
80.116
80.0555
79.9982
79.9444
79.8944
79.8483
79.8064
79.7688
79.7357
79.707
79.6831
79.6638
79.6493
79.6396
79.6348
78.0614
78.0659
78.0749
78.0883
78.1061
78.1283
78.1547
78.1853
78.22
78.2585
78.3008
78.3467
78.396
78.4483
78.5035
78.5611
78.6209
78.6824
78.7451
78.8086
78.8723
78.9355
78.9975
79.0577
79.1153
79.1693
79.219
79.2634
79.3018
79.3333
79.357
79.3724
79.3771
79.3781
79.3774
79.3748
79.3703
79.364
79.3559
84.9012
84.9012
79.3559
79.364
79.3703
79.3748
79.3774
79.3781
79.3771
79.3724
79.357
79.3333
79.3018
79.2634
79.219
79.1693
79.1153
79.0577
78.9975
78.9355
78.8723
78.8086
78.7451
78.6824
78.6209
78.5611
78.5035
78.4483
78.396
78.3467
78.3008
78.2585
78.22
78.1853
78.1547
78.1283
78.1061
78.0883
78.0749
78.0659
78.0614
76.4836
76.4878
76.496
76.5084
76.5248
76.5453
76.5696
76.5977
76.6296
76.6649
76.7037
76.7457
76.7906
76.8383
76.8884
76.9407
76.9947
77.0501
77.1064
77.1632
77.22
77.276
77.3308
77.3836
77.4337
77.4805
77.5231
77.5609
77.593
77.6188
77.6376
77.649
77.6515
77.6514
77.6498
77.6465
77.6416
77.6351
77.6271
83.5847
83.5847
77.6271
77.6351
77.6416
77.6465
77.6498
77.6514
77.6515
77.649
77.6376
77.6188
77.593
77.5609
77.5231
77.4805
77.4337
77.3836
77.3308
77.276
77.22
77.1632
77.1064
77.0501
76.9947
76.9407
76.8884
76.8383
76.7906
76.7457
76.7037
76.6649
76.6296
76.5977
76.5696
76.5453
76.5248
76.5084
76.496
76.4878
76.4836
74.9017
74.9055
74.9131
74.9245
74.9396
74.9583
74.9807
75.0065
75.0356
75.068
75.1034
75.1416
75.1825
75.2258
75.2712
75.3184
75.3671
75.4169
75.4673
75.5179
75.5683
75.6178
75.666
75.7121
75.7556
75.7959
75.8322
75.8639
75.8905
75.9112
75.9257
75.9334
75.9339
75.9328
75.9304
75.9264
75.9211
75.9144
75.9065
82.3695
82.3695
75.9065
75.9144
75.9211
75.9264
75.9304
75.9328
75.9339
75.9334
75.9257
75.9112
75.8905
75.8639
75.8322
75.7959
75.7556
75.7121
75.666
75.6178
75.5683
75.5179
75.4673
75.4169
75.3671
75.3184
75.2712
75.2258
75.1825
75.1416
75.1034
75.068
75.0356
75.0065
74.9807
74.9583
74.9396
74.9245
74.9131
74.9055
74.9017
73.3159
73.3194
73.3264
73.3368
73.3507
73.3678
73.3883
73.4118
73.4385
73.468
73.5002
73.5349
73.572
73.6112
73.6522
73.6947
73.7384
73.783
73.8279
73.8729
73.9174
73.961
74.0031
74.0432
74.0808
74.1152
74.1458
74.1722
74.1938
74.21
74.2205
74.2249
74.2235
74.2214
74.2181
74.2135
74.2077
74.2006
74.1929
81.2873
81.2873
74.1929
74.2006
74.2077
74.2135
74.2181
74.2214
74.2235
74.2249
74.2205
74.21
74.1938
74.1722
74.1458
74.1152
74.0808
74.0432
74.0031
73.961
73.9174
73.8729
73.8279
73.783
73.7384
73.6947
73.6522
73.6112
73.572
73.5349
73.5002
73.468
73.4385
73.4118
73.3883
73.3678
73.3507
73.3368
73.3264
73.3194
73.3159
71.7266
71.7298
71.7362
71.7458
71.7584
71.7741
71.7927
71.8142
71.8384
71.8652
71.8945
71.9259
71.9595
71.9948
72.0317
72.0698
72.1089
72.1486
72.1886
72.2283
72.2675
72.3057
72.3423
72.3769
72.4091
72.4382
72.4637
72.4853
72.5024
72.5145
72.5213
72.5226
72.5194
72.5163
72.5121
72.5068
72.5003
72.4929
72.4852
80.3906
80.3906
72.4852
72.4929
72.5003
72.5068
72.5121
72.5163
72.5194
72.5226
72.5213
72.5145
72.5024
72.4853
72.4637
72.4382
72.4091
72.3769
72.3423
72.3057
72.2675
72.2283
72.1886
72.1486
72.1089
72.0698
72.0317
71.9948
71.9595
71.9259
71.8945
71.8652
71.8384
71.8142
71.7927
71.7741
71.7584
71.7458
71.7362
71.7298
71.7266
70.1342
70.1371
70.1429
70.1516
70.1631
70.1774
70.1943
70.2138
70.2358
70.26
70.2865
70.3149
70.3451
70.3768
70.4099
70.444
70.4788
70.514
70.5493
70.5843
70.6186
70.6518
70.6835
70.7132
70.7404
70.7647
70.7857
70.8029
70.8159
70.8243
70.8278
70.8261
70.8211
70.8169
70.8118
70.8056
70.7984
70.7903
70.7828
79.77
79.77
70.7828
70.7903
70.7984
70.8056
70.8118
70.8169
70.8211
70.8261
70.8278
70.8243
70.8159
70.8029
70.7857
70.7647
70.7404
70.7132
70.6835
70.6518
70.6186
70.5843
70.5493
70.514
70.4788
70.444
70.4099
70.3768
70.3451
70.3149
70.2865
70.26
70.2358
70.2138
70.1943
70.1774
70.1631
70.1516
70.1429
70.1371
70.1342
68.5388
68.5414
68.5467
68.5546
68.565
68.578
68.5933
68.611
68.6308
68.6527
68.6765
68.7021
68.7292
68.7576
68.7871
68.8174
68.8483
68.8794
68.9104
68.9411
68.9709
68.9996
69.0267
69.0518
69.0746
69.0946
69.1114
69.1247
69.134
69.139
69.1394
69.1349
69.128
69.1228
69.1166
69.1094
69.1013
69.0923
69.085
79.5853
79.5853
69.085
69.0923
69.1013
69.1094
69.1166
69.1228
69.128
69.1349
69.1394
69.139
69.134
69.1247
69.1114
69.0946
69.0746
69.0518
69.0267
68.9996
68.9709
68.9411
68.9104
68.8794
68.8483
68.8174
68.7871
68.7576
68.7292
68.7021
68.6765
68.6527
68.6308
68.611
68.5933
68.578
68.565
68.5546
68.5467
68.5414
68.5388
66.9407
66.9431
66.9479
66.955
66.9645
66.9762
66.99
67.0059
67.0238
67.0435
67.0649
67.0877
67.1119
67.1372
67.1634
67.1903
67.2175
67.2448
67.272
67.2985
67.3243
67.3488
67.3718
67.3928
67.4116
67.4277
67.4407
67.4504
67.4564
67.4583
67.4558
67.4487
67.44
67.4336
67.4262
67.4179
67.4086
67.3984
67.391
80.0321
80.0321
67.391
67.3984
67.4086
67.4179
67.4262
67.4336
67.44
67.4487
67.4558
67.4583
67.4564
67.4504
67.4407
67.4277
67.4116
67.3928
67.3718
67.3488
67.3243
67.2985
67.272
67.2448
67.2175
67.1903
67.1634
67.1372
67.1119
67.0877
67.0649
67.0435
67.0238
67.0059
66.99
66.9762
66.9645
66.955
66.9479
66.9431
66.9407
65.3403
65.3425
65.3468
65.3532
65.3617
65.3722
65.3847
65.3989
65.415
65.4326
65.4517
65.472
65.4936
65.516
65.5391
65.5628
65.5866
65.6105
65.634
65.6569
65.6789
65.6997
65.7189
65.7362
65.7512
65.7638
65.7734
65.7799
65.7828
65.782
65.777
65.7675
65.757
65.7495
65.7409
65.731
65.72
65.7079
65.6999
79.9986
79.9986
65.6999
65.7079
65.72
65.731
65.7409
65.7495
65.757
65.7675
65.777
65.782
65.7828
65.7799
65.7734
65.7638
65.7512
65.7362
65.7189
65.6997
65.6789
65.6569
65.634
65.6105
65.5866
65.5628
65.5391
65.516
65.4936
65.472
65.4517
65.4326
65.415
65.3989
65.3847
65.3722
65.3617
65.3532
65.3468
65.3425
65.3403
63.7377
63.7396
63.7435
63.7493
63.7569
63.7663
63.7775
63.7902
63.8045
63.8202
63.8372
63.8552
63.8743
63.894
63.9144
63.935
63.9558
63.9764
63.9966
64.0162
64.0347
64.0521
64.0678
64.0817
64.0935
64.1028
64.1093
64.1129
64.1131
64.1098
64.1026
64.0912
64.0795
64.0712
64.0615
64.0503
64.0368
64.02
64.0058
65.4726
65.4726
64.0058
64.02
64.0368
64.0503
64.0615
64.0712
64.0795
64.0912
64.1026
64.1098
64.1131
64.1129
64.1093
64.1028
64.0935
64.0817
64.0678
64.0521
64.0347
64.0162
63.9966
63.9764
63.9558
63.935
63.9144
63.894
63.8743
63.8552
63.8372
63.8202
63.8045
63.7902
63.7775
63.7663
63.7569
63.7493
63.7435
63.7396
63.7377
62.1334
62.1351
62.1386
62.1437
62.1505
62.1589
62.1688
62.1802
62.1929
62.2068
62.2218
62.2377
62.2545
62.2718
62.2895
62.3074
62.3254
62.343
62.3602
62.3767
62.3921
62.4063
62.4189
62.4297
62.4384
62.4448
62.4485
62.4494
62.4472
62.4417
62.4327
62.42
62.408
62.3998
62.3908
62.381
62.3708
62.3605
62.351
63.6932
63.6932
62.351
62.3605
62.3708
62.381
62.3908
62.3998
62.408
62.42
62.4327
62.4417
62.4472
62.4494
62.4485
62.4448
62.4384
62.4297
62.4189
62.4063
62.3921
62.3767
62.3602
62.343
62.3254
62.3074
62.2895
62.2718
62.2545
62.2377
62.2218
62.2068
62.1929
62.1802
62.1688
62.1589
62.1505
62.1437
62.1386
62.1351
62.1334
60.5273
60.5289
60.5319
60.5365
60.5426
60.55
60.5588
60.5689
60.5801
60.5923
60.6055
60.6195
60.634
60.6491
60.6644
60.6799
60.6952
60.7101
60.7245
60.7382
60.7507
60.762
60.7718
60.7798
60.7857
60.7894
60.7906
60.789
60.7846
60.7772
60.7666
60.7528
60.7405
60.7323
60.7237
60.7146
60.7051
60.6956
60.686
62.0374
62.0374
60.686
60.6956
60.7051
60.7146
60.7237
60.7323
60.7405
60.7528
60.7666
60.7772
60.7846
60.789
60.7906
60.7894
60.7857
60.7798
60.7718
60.762
60.7507
60.7382
60.7245
60.7101
60.6952
60.6799
60.6644
60.6491
60.634
60.6195
60.6055
60.5923
60.5801
60.5689
60.5588
60.55
60.5426
60.5365
60.5319
60.5289
60.5273
58.9197
58.9211
58.9238
58.9279
58.9332
58.9398
58.9475
58.9563
58.9662
58.9769
58.9884
59.0005
59.0132
59.0261
59.0393
59.0524
59.0653
59.0778
59.0897
59.1007
59.1107
59.1193
59.1265
59.1318
59.1353
59.1365
59.1353
59.1316
59.1251
59.1158
59.1037
59.0887
59.0759
59.0676
59.0588
59.0496
59.0402
59.0305
59.0204
60.3971
60.3971
59.0204
59.0305
59.0402
59.0496
59.0588
59.0676
59.0759
59.0887
59.1037
59.1158
59.1251
59.1316
59.1353
59.1365
59.1353
59.1318
59.1265
59.1193
59.1107
59.1007
59.0897
59.0778
59.0653
59.0524
59.0393
59.0261
59.0132
59.0005
58.9884
58.9769
58.9662
58.9563
58.9475
58.9398
58.9332
58.9279
58.9238
58.9211
58.9197
57.3108
57.312
57.3143
57.3179
57.3226
57.3284
57.3351
57.3428
57.3514
57.3607
57.3707
57.3811
57.392
57.403
57.4141
57.4251
57.4358
57.4461
57.4556
57.4643
57.4719
57.4782
57.4829
57.4859
57.487
57.486
57.4826
57.4768
57.4684
57.4574
57.4436
57.4273
57.4138
57.405
57.3958
57.3863
57.3764
57.3663
57.3557
58.7611
58.7611
57.3557
57.3663
57.3764
57.3863
57.3958
57.405
57.4138
57.4273
57.4436
57.4574
57.4684
57.4768
57.4826
57.486
57.487
57.4859
57.4829
57.4782
57.4719
57.4643
57.4556
57.4461
57.4358
57.4251
57.4141
57.403
57.392
57.3811
57.3707
57.3607
57.3514
57.3428
57.3351
57.3284
57.3226
57.3179
57.3143
57.312
57.3108
55.7006
55.7016
55.7037
55.7068
55.7109
55.7159
55.7218
55.7285
55.7359
55.7439
55.7524
55.7613
55.7705
55.7798
55.7891
55.7982
55.8069
55.8151
55.8225
55.829
55.8344
55.8385
55.8411
55.8419
55.8409
55.8378
55.8324
55.8246
55.8144
55.8016
55.7862
55.7684
55.7538
55.7444
55.7347
55.7246
55.7141
55.7034
55.6922
57.1278
57.1278
55.6922
55.7034
55.7141
55.7246
55.7347
55.7444
55.7538
55.7684
55.7862
55.8016
55.8144
55.8246
55.8324
55.8378
55.8409
55.8419
55.8411
55.8385
55.8344
55.829
55.8225
55.8151
55.8069
55.7982
55.7891
55.7798
55.7705
55.7613
55.7524
55.7439
55.7359
55.7285
55.7218
55.7159
55.7109
55.7068
55.7037
55.7016
55.7006
54.0894
54.0903
54.0921
54.0948
54.0983
54.1026
54.1077
54.1134
54.1197
54.1266
54.1338
54.1413
54.149
54.1567
54.1642
54.1716
54.1785
54.1847
54.1903
54.1948
54.1983
54.2004
54.2009
54.1998
54.1968
54.1918
54.1845
54.1749
54.1629
54.1483
54.1312
54.1117
54.096
54.0859
54.0754
54.0645
54.0533
54.0419
54.03
55.4967
55.4967
54.03
54.0419
54.0533