/*--------------------------------*- C++ -*----------------------------------*\
  =========                 |
  \\      /  F ield         | OpenFOAM: The Open Source CFD Toolbox
   \\    /   O peration     | Website:  https://openfoam.org
    \\  /    A nd           | Version:  10
     \\/     M anipulation  |
\*---------------------------------------------------------------------------*/
FoamFile
{
    format      ascii;
    class       volVectorField;
    location    "0.077";
    object      UMean;
}
// * * * * * * * * * * * * * * * * * * * * * * * * * * * * * * * * * * * * * //

dimensions      [0 1 -1 0 0 0 0];

internalField   nonuniform List<vector> 
12225
(
(9.84459 0.0452912 0)
(9.55731 0.0611848 0)
(9.26163 0.0589558 0)
(8.96017 0.0573053 0)
(8.66502 0.0563492 0)
(8.38178 0.0553598 0)
(8.11088 0.0538563 0)
(7.85106 0.0528881 0)
(7.60063 0.0512161 0)
(7.35925 0.0511403 0)
(7.12432 0.0490465 0)
(6.89781 0.0511324 0)
(6.67091 0.0476662 0)
(6.4546 0.0552851 0)
(6.21945 0.0476874 0)
(6.00876 0.0691755 0)
(5.73545 0.0480116 0)
(5.5317 0.0988993 0)
(10.0164 0.0513343 0)
(10.0831 0.0738197 0)
(10.1243 0.072842 0)
(10.1381 0.0736263 0)
(10.1352 0.0765735 0)
(10.1233 0.0790833 0)
(10.1039 0.0812085 0)
(10.0785 0.0827271 0)
(10.0457 0.0848499 0)
(10.0083 0.0862566 0)
(9.96327 0.089364 0)
(9.91599 0.0909326 0)
(9.85859 0.0967086 0)
(9.80181 0.0990284 0)
(9.72886 0.11089 0)
(9.66091 0.114676 0)
(9.56667 0.135235 0)
(9.48027 0.134803 0)
(10.0052 0.0313601 0)
(10.0443 0.0538583 0)
(10.0759 0.0558127 0)
(10.0935 0.0575139 0)
(10.1041 0.0614452 0)
(10.1133 0.0655488 0)
(10.1228 0.0686157 0)
(10.1316 0.0717701 0)
(10.1395 0.0743179 0)
(10.1455 0.0781364 0)
(10.1503 0.0809367 0)
(10.153 0.0866055 0)
(10.1554 0.0904628 0)
(10.1551 0.100153 0)
(10.1568 0.107101 0)
(10.1558 0.123006 0)
(10.1617 0.134902 0)
(10.1652 0.146855 0)
(9.99394 0.0273931 0)
(10.0229 0.0565922 0)
(10.0488 0.061649 0)
(10.0641 0.0630339 0)
(10.0727 0.0664767 0)
(10.0796 0.07033 0)
(10.0866 0.0735823 0)
(10.0936 0.0761538 0)
(10.1 0.078905 0)
(10.1057 0.0817007 0)
(10.1109 0.0854103 0)
(10.1157 0.0894393 0)
(10.1208 0.0952117 0)
(10.1263 0.101952 0)
(10.1338 0.111308 0)
(10.1443 0.122323 0)
(10.1599 0.133333 0)
(10.1818 0.14189 0)
(9.99612 0.0228708 0)
(10.0192 0.046572 0)
(10.041 0.0534667 0)
(10.0551 0.0552502 0)
(10.0636 0.0582515 0)
(10.0701 0.0623453 0)
(10.0765 0.0660386 0)
(10.0829 0.0693022 0)
(10.0888 0.0722779 0)
(10.094 0.0756537 0)
(10.0987 0.0793165 0)
(10.1031 0.0838902 0)
(10.1075 0.0892597 0)
(10.1129 0.0960195 0)
(10.1196 0.104123 0)
(10.1293 0.112878 0)
(10.1422 0.121165 0)
(10.1591 0.124337 0)
(9.97813 0.0178165 0)
(9.99811 0.0428089 0)
(10.0177 0.0527133 0)
(10.0316 0.0558811 0)
(10.0406 0.0589553 0)
(10.0474 0.062995 0)
(10.0538 0.0669529 0)
(10.0602 0.0703659 0)
(10.0663 0.073522 0)
(10.0719 0.0768345 0)
(10.077 0.0805339 0)
(10.0821 0.0848771 0)
(10.0875 0.0899453 0)
(10.0939 0.0959992 0)
(10.1015 0.10272 0)
(10.1114 0.109643 0)
(10.1234 0.115003 0)
(10.1375 0.116838 0)
(9.99377 0.01506 0)
(10.0091 0.0370536 0)
(10.0248 0.0474516 0)
(10.0369 0.0513863 0)
(10.0453 0.0543214 0)
(10.0517 0.0580909 0)
(10.0575 0.0620776 0)
(10.0635 0.0656718 0)
(10.0694 0.0689557 0)
(10.075 0.0723135 0)
(10.0803 0.076017 0)
(10.0855 0.080232 0)
(10.091 0.0850453 0)
(10.0973 0.0904486 0)
(10.1047 0.0961712 0)
(10.1138 0.101608 0)
(10.1242 0.105599 0)
(10.1358 0.107182 0)
(9.99852 0.0136406 0)
(10.0123 0.0330553 0)
(10.0261 0.0444905 0)
(10.0376 0.0498557 0)
(10.0467 0.0533431 0)
(10.0539 0.0571006 0)
(10.0602 0.0610973 0)
(10.0663 0.0648829 0)
(10.0723 0.06837 0)
(10.0781 0.0718195 0)
(10.0837 0.0754606 0)
(10.0892 0.0794612 0)
(10.095 0.0838409 0)
(10.1013 0.0885526 0)
(10.1084 0.0932774 0)
(10.1166 0.0975714 0)
(10.1255 0.100631 0)
(10.135 0.101942 0)
(9.99488 0.0106845 0)
(10.007 0.0284061 0)
(10.0184 0.0395274 0)
(10.0282 0.0452897 0)
(10.0367 0.0489561 0)
(10.0439 0.0526341 0)
(10.0504 0.0565842 0)
(10.0566 0.0604111 0)
(10.0628 0.0639568 0)
(10.0689 0.0673921 0)
(10.0748 0.0709541 0)
(10.0808 0.0747879 0)
(10.0869 0.0788675 0)
(10.0936 0.083092 0)
(10.1007 0.0871523 0)
(10.1088 0.090759 0)
(10.1172 0.0933169 0)
(10.1261 0.094644 0)
(9.98869 0.0104436 0)
(9.99957 0.0257175 0)
(10.0097 0.0365078 0)
(10.0183 0.043221 0)
(10.0262 0.0476221 0)
(10.0333 0.0513525 0)
(10.0397 0.055077 0)
(10.0458 0.0587752 0)
(10.0519 0.0623241 0)
(10.0579 0.0657735 0)
(10.0638 0.0692252 0)
(10.0699 0.0727825 0)
(10.0761 0.0764064 0)
(10.0829 0.0800445 0)
(10.09 0.0834181 0)
(10.0979 0.0863803 0)
(10.1057 0.0884513 0)
(10.1142 0.0897131 0)
(9.98143 0.00787515 0)
(9.99112 0.0221007 0)
(9.9996 0.0319144 0)
(10.0072 0.0384959 0)
(10.0145 0.0430875 0)
(10.0214 0.0468358 0)
(10.0276 0.0504523 0)
(10.0336 0.0540933 0)
(10.0396 0.0576475 0)
(10.0456 0.0610822 0)
(10.0516 0.0644235 0)
(10.0576 0.0677613 0)
(10.0637 0.0710398 0)
(10.0702 0.0742524 0)
(10.0768 0.0771524 0)
(10.0839 0.079715 0)
(10.0911 0.0815535 0)
(10.0984 0.0828809 0)
(9.99496 0.0087153 0)
(10.0029 0.0205393 0)
(10.0103 0.0297843 0)
(10.0174 0.0365874 0)
(10.0246 0.041508 0)
(10.0314 0.0454229 0)
(10.0377 0.048994 0)
(10.0436 0.0524797 0)
(10.0495 0.0558754 0)
(10.0553 0.0591526 0)
(10.0612 0.0623017 0)
(10.0671 0.065387 0)
(10.0731 0.0683439 0)
(10.0792 0.0711805 0)
(10.0855 0.0736788 0)
(10.0918 0.0758902 0)
(10.0983 0.0774781 0)
(10.1044 0.0787489 0)
(9.99544 0.00716392 0)
(10.0025 0.0162187 0)
(10.0086 0.0250014 0)
(10.0144 0.031859 0)
(10.0208 0.0368146 0)
(10.0274 0.0406963 0)
(10.0339 0.0441877 0)
(10.0401 0.0476043 0)
(10.0463 0.0509608 0)
(10.0525 0.0542192 0)
(10.0588 0.0573164 0)
(10.0651 0.060278 0)
(10.0714 0.0630637 0)
(10.0779 0.0656986 0)
(10.0844 0.0680318 0)
(10.0909 0.0701195 0)
(10.0974 0.071703 0)
(10.1036 0.0730563 0)
(10.0044 0.00992488 0)
(10.0136 0.0170019 0)
(10.0203 0.0246732 0)
(10.0255 0.03093 0)
(10.0313 0.0355273 0)
(10.0378 0.0391529 0)
(10.0445 0.0424105 0)
(10.051 0.0455574 0)
(10.0574 0.0486106 0)
(10.0637 0.0515434 0)
(10.07 0.0543151 0)
(10.0763 0.0569424 0)
(10.0827 0.0593642 0)
(10.0891 0.0616274 0)
(10.0955 0.0635953 0)
(10.1018 0.0654077 0)
(10.1081 0.0668011 0)
(10.114 0.068151 0)
(10.0007 0.0029237 0)
(10.0106 0.010997 0)
(10.0168 0.0180363 0)
(10.0211 0.023701 0)
(10.0262 0.0280874 0)
(10.0324 0.0316372 0)
(10.0391 0.0348045 0)
(10.0457 0.037871 0)
(10.0521 0.0408851 0)
(10.0585 0.0437922 0)
(10.0648 0.0465021 0)
(10.0712 0.0490129 0)
(10.0775 0.0512874 0)
(10.0839 0.0534034 0)
(10.0902 0.0552768 0)
(10.0964 0.057051 0)
(10.1024 0.0585001 0)
(10.1084 0.0599457 0)
(10.014 0.00429176 0)
(10.0224 0.0125219 0)
(10.0276 0.0182271 0)
(10.0313 0.0224987 0)
(10.0361 0.0260488 0)
(10.042 0.0291785 0)
(10.0482 0.0320428 0)
(10.0544 0.034748 0)
(10.0605 0.0373276 0)
(10.0665 0.0397938 0)
(10.0726 0.042097 0)
(10.0787 0.0442446 0)
(10.0848 0.0461681 0)
(10.0909 0.0479467 0)
(10.0968 0.0494705 0)
(10.1028 0.0509264 0)
(10.1086 0.0520675 0)
(10.1145 0.0533007 0)
(9.99447 -0.000868024 0)
(9.99982 0.00530928 0)
(10.0034 0.00996216 0)
(10.0066 0.0137635 0)
(10.0112 0.0169877 0)
(10.0168 0.0197938 0)
(10.023 0.0223226 0)
(10.0294 0.0246827 0)
(10.0358 0.026914 0)
(10.0422 0.0290453 0)
(10.0486 0.031039 0)
(10.055 0.0329013 0)
(10.0614 0.0345588 0)
(10.0677 0.0360793 0)
(10.0738 0.0373717 0)
(10.0799 0.0386268 0)
(10.0857 0.0396464 0)
(10.0916 0.0408057 0)
(9.99505 0.00863894 0)
(10.001 0.00915003 0)
(10.0044 0.010641 0)
(10.0072 0.012445 0)
(10.0113 0.0141904 0)
(10.0166 0.0157996 0)
(10.0225 0.0173388 0)
(10.0286 0.0188878 0)
(10.0346 0.0204632 0)
(10.0406 0.0220707 0)
(10.0467 0.0236512 0)
(10.0528 0.0251987 0)
(10.0589 0.0266197 0)
(10.0649 0.0279549 0)
(10.0708 0.029078 0)
(10.0765 0.0301486 0)
(10.0821 0.0309635 0)
(10.0876 0.0318689 0)
(9.99538 -0.00135034 0)
(10.0056 -0.000610718 0)
(10.0124 0.000281204 0)
(10.0167 0.00107017 0)
(10.0211 0.00188446 0)
(10.0262 0.0028462 0)
(10.0318 0.00393971 0)
(10.0378 0.00507586 0)
(10.0437 0.00615366 0)
(10.0497 0.0071519 0)
(10.0556 0.00807145 0)
(10.0616 0.00897096 0)
(10.0675 0.00983116 0)
(10.0735 0.0107039 0)
(10.0794 0.0114859 0)
(10.0852 0.0122766 0)
(10.091 0.0128908 0)
(10.0966 0.013584 0)
(9.99189 -0.00207708 0)
(9.99945 -0.00221647 0)
(10.0042 -0.00251369 0)
(10.0076 -0.00255442 0)
(10.0119 -0.00232699 0)
(10.0174 -0.00197534 0)
(10.0235 -0.00159413 0)
(10.0297 -0.00117129 0)
(10.0358 -0.000680465 0)
(10.0419 -0.000110131 0)
(10.048 0.000493252 0)
(10.054 0.00110146 0)
(10.0599 0.00163531 0)
(10.0656 0.00211838 0)
(10.0713 0.00247725 0)
(10.0769 0.00283217 0)
(10.0823 0.00305846 0)
(10.0877 0.00339435 0)
(9.99539 -0.00356042 0)
(10.0031 -0.00630077 0)
(10.0086 -0.0085491 0)
(10.0132 -0.0100654 0)
(10.0187 -0.0109631 0)
(10.0249 -0.0115002 0)
(10.0313 -0.0118475 0)
(10.0376 -0.0120467 0)
(10.0439 -0.0120825 0)
(10.0501 -0.0119275 0)
(10.0562 -0.0116217 0)
(10.0623 -0.0112098 0)
(10.0682 -0.0107923 0)
(10.074 -0.010401 0)
(10.0797 -0.0101323 0)
(10.0852 -0.00993461 0)
(10.0905 -0.00990789 0)
(10.0956 -0.00989213 0)
(9.99689 -0.00492176 0)
(10.0038 -0.0103948 0)
(10.0093 -0.0130978 0)
(10.0145 -0.0145784 0)
(10.0206 -0.0155659 0)
(10.0272 -0.0162271 0)
(10.0338 -0.0166512 0)
(10.0402 -0.0168991 0)
(10.0466 -0.0169936 0)
(10.0528 -0.0169357 0)
(10.0591 -0.0167664 0)
(10.0652 -0.0165252 0)
(10.0713 -0.0162868 0)
(10.0773 -0.0160628 0)
(10.0831 -0.0159136 0)
(10.0889 -0.0157894 0)
(10.0945 -0.0157727 0)
(10.0999 -0.0157365 0)
(9.98844 -0.00170662 0)
(10.0009 -0.0122906 0)
(10.0099 -0.018225 0)
(10.0161 -0.0211814 0)
(10.0222 -0.0227477 0)
(10.0286 -0.0238734 0)
(10.0351 -0.0248977 0)
(10.0414 -0.0257742 0)
(10.0476 -0.0263895 0)
(10.0537 -0.0267228 0)
(10.0597 -0.0268533 0)
(10.0656 -0.0268721 0)
(10.0714 -0.0268709 0)
(10.0771 -0.0268735 0)
(10.0827 -0.0269344 0)
(10.0882 -0.0270146 0)
(10.0936 -0.0271789 0)
(10.0988 -0.0273284 0)
(9.99291 -0.0129695 0)
(10.0056 -0.0171241 0)
(10.0158 -0.0222103 0)
(10.0235 -0.025096 0)
(10.0305 -0.0261296 0)
(10.0372 -0.0266766 0)
(10.0438 -0.0273374 0)
(10.0502 -0.028007 0)
(10.0566 -0.0284717 0)
(10.0629 -0.0286911 0)
(10.0691 -0.0287758 0)
(10.0753 -0.0288255 0)
(10.0814 -0.0289057 0)
(10.0874 -0.0290141 0)
(10.0933 -0.0291733 0)
(10.099 -0.0293359 0)
(10.1046 -0.0295544 0)
(10.1099 -0.0297484 0)
(9.99063 -0.0128359 0)
(9.99925 -0.0236169 0)
(10.0086 -0.029938 0)
(10.0173 -0.0328177 0)
(10.0252 -0.0341349 0)
(10.0324 -0.0352353 0)
(10.0392 -0.0364152 0)
(10.046 -0.0374737 0)
(10.0527 -0.0382671 0)
(10.0593 -0.0388255 0)
(10.0657 -0.0392406 0)
(10.0719 -0.0395701 0)
(10.0781 -0.0398518 0)
(10.084 -0.0400887 0)
(10.0899 -0.0403125 0)
(10.0956 -0.0405233 0)
(10.1012 -0.0407749 0)
(10.1066 -0.0410337 0)
(10.0027 -0.0101093 0)
(10.0186 -0.025437 0)
(10.0328 -0.0305387 0)
(10.0435 -0.0317189 0)
(10.0519 -0.0326721 0)
(10.0591 -0.0340506 0)
(10.0661 -0.0353886 0)
(10.0732 -0.0363462 0)
(10.0802 -0.0369493 0)
(10.0868 -0.0373765 0)
(10.0932 -0.037762 0)
(10.0992 -0.0381492 0)
(10.1049 -0.0385431 0)
(10.1105 -0.0389201 0)
(10.116 -0.0392927 0)
(10.1213 -0.0396496 0)
(10.1265 -0.0400309 0)
(10.1316 -0.0404034 0)
(9.9867 -0.0234295 0)
(10.005 -0.0380394 0)
(10.0207 -0.0428051 0)
(10.0312 -0.0434529 0)
(10.0388 -0.0442423 0)
(10.0454 -0.045654 0)
(10.0521 -0.046918 0)
(10.059 -0.0477062 0)
(10.066 -0.0481448 0)
(10.0727 -0.048429 0)
(10.0792 -0.048673 0)
(10.0854 -0.0489167 0)
(10.0914 -0.0491706 0)
(10.0973 -0.04944 0)
(10.1031 -0.0497401 0)
(10.1087 -0.0500682 0)
(10.1142 -0.0504404 0)
(10.1194 -0.0508302 0)
(9.9935 -0.0190051 0)
(10.0164 -0.0319728 0)
(10.0367 -0.0355105 0)
(10.0496 -0.0364902 0)
(10.0582 -0.0381408 0)
(10.0657 -0.0400785 0)
(10.0735 -0.0415707 0)
(10.0814 -0.0425845 0)
(10.0893 -0.0433474 0)
(10.0968 -0.0440224 0)
(10.1042 -0.0446484 0)
(10.1113 -0.0452608 0)
(10.1183 -0.0458401 0)
(10.1249 -0.0464189 0)
(10.1314 -0.046955 0)
(10.1375 -0.047502 0)
(10.1435 -0.0480184 0)
(10.1489 -0.0485809 0)
(9.9968 -0.0377726 0)
(10.0392 -0.0545141 0)
(10.0716 -0.0532407 0)
(10.0905 -0.0525312 0)
(10.1019 -0.0536898 0)
(10.1099 -0.0548533 0)
(10.1159 -0.0555471 0)
(10.1198 -0.0560113 0)
(10.1213 -0.0564069 0)
(10.1208 -0.0567744 0)
(10.1183 -0.0570797 0)
(10.1144 -0.0573523 0)
(10.109 -0.0575626 0)
(10.1028 -0.0577786 0)
(10.0954 -0.0579439 0)
(10.0876 -0.0581652 0)
(10.0787 -0.0583692 0)
(10.0699 -0.058719 0)
(9.90683 -0.0331371 0)
(9.74873 -0.0474662 0)
(9.58391 -0.0462596 0)
(9.41396 -0.0451931 0)
(9.24721 -0.0452237 0)
(9.08752 -0.0451241 0)
(8.93539 -0.0446494 0)
(8.79028 -0.0439675 0)
(8.65157 -0.0432018 0)
(8.51904 -0.0424192 0)
(8.39236 -0.0416517 0)
(8.27156 -0.0409429 0)
(8.15599 -0.0402823 0)
(8.04598 -0.0396921 0)
(7.9403 -0.0391205 0)
(7.84013 -0.0386107 0)
(7.74301 -0.0381035 0)
(7.65204 -0.03771 0)
(-0.176829 0.368414 1.61981e-21)
(-0.410818 0.165083 -1.58635e-21)
(-0.506128 -0.00581827 0)
(-0.471846 -0.163397 0)
(-0.289312 -0.302037 0)
(-0.00447235 -0.398441 1.54625e-21)
(0.350829 -0.446404 0)
(0.737796 -0.447948 0)
(1.12044 -0.418066 0)
(1.47308 -0.367666 0)
(1.7812 -0.30661 -1.36146e-21)
(2.03883 -0.245548 0)
(2.24473 -0.187275 0)
(2.39786 -0.12808 0)
(2.50015 -0.0681364 0)
(2.55258 -0.00783433 -9.60634e-22)
(2.55334 0.0285942 0)
(2.5244 0.0411282 0)
(2.46646 0.0650711 0)
(2.38223 0.094604 0)
(2.26261 0.123689 0)
(2.1076 0.146329 0)
(1.90982 0.170926 0)
(1.69165 0.198381 -9.26883e-22)
(1.43255 0.240225 9.42218e-22)
(1.16787 0.217733 -9.49729e-22)
(0.906288 0.164149 -9.46858e-22)
(0.635427 0.0926165 0)
(0.392867 0.0448258 0)
(0.14215 0.103097 8.84989e-22)
(-0.131934 0.164587 8.49786e-22)
(-0.427237 0.199574 0)
(-0.730909 0.206614 0)
(-1.01504 0.187441 6.9549e-22)
(-1.25944 0.151134 0)
(-1.45852 0.11173 0)
(-1.60827 0.0760986 -5.40011e-22)
(-1.71987 0.0536243 0)
(-1.81737 0.048238 -4.25063e-22)
(-1.93329 0.0688497 -7.07596e-22)
(-2.09034 0.106815 0)
(-2.28856 0.137109 0)
(-2.51952 0.148838 0)
(-2.7453 0.112573 0)
(-2.9211 0.0803724 0)
(-3.06946 0.0456894 -1.24797e-22)
(-3.18209 -0.0511812 -3.81117e-23)
(-3.29888 -0.0695148 4.9031e-23)
(-3.40726 0.0551467 0)
(-3.58897 0.117384 -1.26799e-22)
(-3.726 0.099252 0)
(-3.83903 0.091084 2.02082e-22)
(-3.9343 0.0818446 2.35573e-22)
(-4.01137 0.0671385 0)
(-4.06465 0.0439433 0)
(-4.10601 -0.00472719 0)
(-4.13284 0.00482331 2.98604e-22)
(-4.1925 0.0309411 0)
(-4.23072 0.0177973 0)
(-4.24803 0.00669799 0)
(-4.23271 -0.00916016 0)
(-4.20681 -0.0526205 0)
(-4.16686 -0.0506233 0)
(-4.16788 -0.0107386 0)
(-4.17775 -0.0105233 0)
(-4.17978 -0.010448 -4.41332e-22)
(-4.18631 -0.0139887 0)
(-4.18802 -0.0159944 0)
(-4.19324 -0.0167564 4.84285e-22)
(-4.19697 -0.0169929 4.84665e-22)
(-4.19861 -0.0188087 0)
(-4.1961 -0.0183789 -4.56901e-22)
(-4.18834 -0.0136957 4.31963e-22)
(-4.17451 -0.011996 0)
(-4.15351 -0.0150523 -3.8391e-22)
(-4.12728 -0.0158067 0)
(-4.09977 -0.0155108 0)
(-4.07412 -0.0140153 2.99139e-22)
(-4.05565 -0.0100636 0)
(-4.04936 -0.00407364 -1.75348e-22)
(-4.05615 0.000802533 0)
(-4.07373 -0.00142501 -2.3971e-24)
(-4.08199 -0.00850665 -1.0347e-22)
(-4.09141 -0.0193281 -2.09805e-22)
(-4.07134 -0.0427517 -6.44104e-22)
(-4.06013 -0.0566725 8.67062e-22)
(-4.04679 -0.0571454 0)
(-4.08934 -0.00992476 0)
(-4.19837 0.0788863 0)
(-4.34236 0.0862373 1.66357e-21)
(-4.41031 0.0505906 1.72172e-21)
(-4.42496 0.020872 -1.75961e-21)
(-4.39083 -0.00653386 0)
(-4.31465 -0.0287919 1.89811e-21)
(-4.20284 -0.0475568 2.02492e-21)
(-4.05973 -0.0628879 2.19474e-21)
(-3.88974 -0.0757249 0)
(-3.69587 -0.0863841 0)
(-3.48132 -0.0953526 0)
(-3.24825 -0.10288 3.27803e-21)
(-2.99904 -0.109376 0)
(-2.73539 -0.114658 0)
(-2.45902 -0.118914 -4.43249e-21)
(-2.17188 -0.122101 0)
(-1.87616 -0.124268 0)
(-1.57386 -0.125415 -5.72796e-21)
(-1.26706 -0.125571 0)
(-0.958031 -0.124745 0)
(-0.649105 -0.122959 6.95445e-21)
(-0.342617 -0.120185 7.31108e-21)
(-0.0408038 -0.116461 0)
(0.254053 -0.111869 -7.91047e-21)
(0.539762 -0.106544 0)
(0.814883 -0.100803 8.33941e-21)
(1.07843 -0.0951953 0)
(1.32981 -0.0894714 8.60248e-21)
(1.56937 -0.083893 8.6789e-21)
(1.7973 -0.0785539 0)
(2.01388 -0.0734307 0)
(2.21938 -0.0684606 0)
(2.41408 -0.0636113 0)
(2.59813 -0.0588397 0)
(2.77154 -0.0542522 0)
(2.93413 -0.0498855 0)
(3.08637 -0.0456705 8.33687e-21)
(3.22829 -0.0414418 -8.21019e-21)
(3.3602 -0.0373662 0)
(3.48233 -0.0334657 0)
(3.5949 -0.0297295 0)
(3.6982 -0.026162 0)
(3.79255 -0.0227767 -1.494e-20)
(3.87826 -0.0195833 0)
(3.95567 -0.0165748 1.43202e-20)
(4.02506 -0.0137318 -1.4016e-20)
(4.08673 -0.0110527 0)
(4.14094 -0.00857146 0)
(4.18807 -0.00633236 0)
(4.2286 -0.00431516 1.28786e-20)
(4.26298 -0.00242896 1.26202e-20)
(4.29155 -0.000576642 0)
(4.31452 0.00129767 1.21401e-20)
(4.33192 0.00319307 1.19191e-20)
(4.34378 0.00508099 -1.17111e-20)
(4.35007 0.00694224 0)
(4.35074 0.00877817 0)
(4.34575 0.0106005 -1.11631e-20)
(4.33493 0.0124291 0)
(4.31816 0.0142654 0)
(4.29522 0.0160953 0)
(4.26593 0.0178986 0)
(4.23002 0.0196646 1.04799e-20)
(4.18719 0.0213761 1.03724e-20)
(4.1371 0.0230109 0)
(4.07933 0.0245913 1.01799e-20)
(4.01336 0.0260813 0)
(3.93865 0.0272236 0)
(3.85508 0.0276183 9.92093e-21)
(3.76318 0.0268635 0)
(3.66493 0.0242653 9.73912e-21)
(3.56526 0.0198818 0)
(3.47076 0.0151161 0)
(3.38727 0.0126996 9.44435e-21)
(3.3175 0.0134449 0)
(3.25498 0.0187683 9.25626e-21)
(3.18949 0.0225063 0)
(3.12112 0.0219339 0)
(3.05085 0.0192514 0)
(2.98122 0.0142862 -8.86661e-21)
(2.91747 0.00943958 0)
(2.86349 0.00631973 8.67291e-21)
(2.81491 0.00597157 0)
(2.76998 0.00781624 0)
(2.72099 0.0117362 0)
(2.66321 0.0154143 0)
(2.59141 0.0192494 0)
(2.50443 0.017284 0)
(2.42391 0.0246774 0)
(2.2883 0.0212413 -1.60352e-20)
(2.22703 0.0465839 0)
(1.94055 0.0216657 0)
(-0.00519361 0.754405 -4.78268e-21)
(0.0293679 0.468546 4.69532e-21)
(0.102169 0.0951299 0)
(0.288421 -0.28462 -2.96871e-21)
(0.55383 -0.678953 0)
(0.885212 -0.976111 -1.5505e-21)
(1.23188 -1.13335 2.82816e-21)
(1.56222 -1.16834 2.74525e-21)
(1.85868 -1.1105 0)
(2.11262 -0.990723 2.47051e-21)
(2.31941 -0.839391 1.3648e-21)
(2.47841 -0.677177 0)
(2.59217 -0.517869 0)
(2.66454 -0.36933 0)
(2.70185 -0.232572 0)
(2.71129 -0.0997031 9.6378e-22)
(2.69503 0.0191426 0)
(2.64816 0.113518 -1.4947e-21)
(2.57396 0.187944 0)
(2.47668 0.258048 0)
(2.34435 0.359028 1.50635e-21)
(2.18106 0.470885 0)
(1.99194 0.555291 -1.57843e-21)
(1.78819 0.624116 9.32558e-22)
(1.58361 0.654525 -9.48304e-22)
(1.35249 0.659609 9.56096e-22)
(1.07317 0.717535 9.53428e-22)
(0.738751 0.766589 0)
(0.361506 0.774321 0)
(-0.0470659 0.762517 -8.90482e-22)
(-0.431753 0.74905 6.00508e-22)
(-0.769692 0.73371 0)
(-1.08021 0.701497 0)
(-1.34303 0.628677 -6.99562e-22)
(-1.57321 0.520885 0)
(-1.76961 0.39937 0)
(-1.92927 0.276475 5.44988e-22)
(-2.07179 0.202861 0)
(-2.2215 0.224525 -6.60758e-23)
(-2.38818 0.317576 7.17757e-22)
(-2.56574 0.411069 0)
(-2.74809 0.481411 0)
(-2.92778 0.49171 1.67916e-22)
(-3.12726 0.425578 4.4293e-23)
(-3.34276 0.368831 -1.14167e-22)
(-3.52529 0.319773 4.10057e-22)
(-3.73683 0.351841 4.49596e-23)
(-3.96796 0.366948 -6.74815e-22)
(-4.09938 0.332937 7.66537e-22)
(-4.21944 0.28417 1.18772e-22)
(-4.29176 0.217807 0)
(-4.34886 0.170475 -1.94485e-22)
(-4.37276 0.121909 8.04342e-22)
(-4.38853 0.0800759 0)
(-4.39405 0.0594434 0)
(-4.43033 0.0756844 0)
(-4.45385 0.0832747 -2.93662e-22)
(-4.46971 0.0636102 0)
(-4.45984 0.022772 1.03812e-21)
(-4.44317 -0.0279031 0)
(-4.40885 -0.0688529 1.07428e-21)
(-4.42167 -0.0402635 0)
(-4.4383 -0.0125591 -1.14985e-21)
(-4.44811 -0.000160881 0)
(-4.45533 -0.00139229 1.23277e-21)
(-4.46019 0.00258401 -8.41625e-22)
(-4.46812 0.00534668 0)
(-4.47454 0.00957706 -1.35342e-21)
(-4.48251 0.0104665 -4.82633e-22)
(-4.48864 0.00765477 -4.82781e-22)
(-4.4933 0.000763438 0)
(-4.49149 -0.0116118 -8.0834e-22)
(-4.46843 -0.0333847 -4.29285e-22)
(-4.431 -0.0527091 0)
(-4.38162 -0.0603105 3.81163e-22)
(-4.32471 -0.0625859 -1.0273e-21)
(-4.27097 -0.0604006 0)
(-4.22821 -0.0489227 -2.96361e-22)
(-4.19763 -0.030621 0)
(-4.17903 -0.00976518 7.59749e-22)
(-4.16922 0.00858083 0)
(-4.17331 0.0163163 -1.96442e-22)
(-4.1789 0.0142626 1.04864e-22)
(-4.19656 0.000662993 -3.03809e-23)
(-4.22147 -0.00221761 -2.87721e-22)
(-4.29908 0.0258354 4.92028e-22)
(-4.38314 0.0771531 0)
(-4.51081 0.152995 0)
(-4.55345 0.147271 0)
(-4.55286 0.086346 -4.2705e-21)
(-4.49351 0.0115232 -1.72366e-21)
(-4.40533 -0.0560174 1.76192e-21)
(-4.28389 -0.11656 0)
(-4.1394 -0.167417 1.42011e-21)
(-3.97164 -0.210877 -2.02583e-21)
(-3.78519 -0.247458 -2.19486e-21)
(-3.58071 -0.278713 0)
(-3.3605 -0.305394 0)
(-3.12508 -0.32842 0)
(-2.87593 -0.348377 -3.27595e-21)
(-2.61366 -0.365674 0)
(-2.33953 -0.380343 7.80001e-21)
(-2.05445 -0.39247 1.3065e-20)
(-1.7598 -0.401911 -9.50312e-21)
(-1.4568 -0.408569 0)
(-1.14725 -0.412303 -5.55035e-21)
(-0.83317 -0.413078 0)
(-0.516727 -0.410896 -1.29859e-20)
(-0.200185 -0.405782 6.82262e-21)
(0.114205 -0.397666 7.19326e-21)
(0.424193 -0.386596 0)
(0.727548 -0.372895 2.36359e-20)
(1.02193 -0.357037 -1.62087e-20)
(1.30569 -0.33993 -8.33761e-21)
(1.57791 -0.322542 0)
(1.83832 -0.305218 -8.60016e-21)
(2.08714 -0.288385 -2.59691e-20)
(2.32468 -0.272233 0)
(2.55133 -0.256779 -1.74157e-20)
(2.76739 -0.241858 -1.73937e-20)
(2.97309 -0.227297 -1.73223e-20)
(3.16863 -0.213015 0)
(3.35392 -0.199402 0)
(3.52879 -0.185992 0)
(3.69381 -0.172912 8.29313e-21)
(3.84905 -0.16016 8.20584e-21)
(3.99473 -0.147846 0)
(4.13112 -0.136038 1.5816e-20)
(4.25849 -0.124763 1.55179e-20)
(4.37718 -0.114029 0)
(4.48751 -0.103831 1.49325e-20)
(4.58982 -0.0941508 2.91891e-20)
(4.68442 -0.0849535 -1.43131e-20)
(4.77158 -0.0762025 -1.39601e-20)
(4.85157 -0.0678789 0)
(4.9247 -0.0600009 0)
(4.99122 -0.052621 0)
(5.0513 -0.0457842 -1.28721e-20)
(5.10517 -0.0394828 1.25726e-20)
(5.15319 -0.0336441 2.46946e-20)
(5.1958 -0.0281442 -1.21338e-20)
(5.2335 -0.0228381 1.18734e-20)
(5.26668 -0.0176266 1.17049e-20)
(5.29556 -0.0124631 0)
(5.32023 -0.00732936 0)
(5.34067 -0.00220682 -1.1117e-20)
(5.35691 0.00293963 0)
(5.36887 0.0081495 0)
(5.37648 0.0134622 2.13886e-20)
(5.37956 0.0189173 0)
(5.37791 0.0245576 1.04275e-20)
(5.37127 0.0304365 -1.03658e-20)
(5.35934 0.0366052 0)
(5.34172 0.0431445 1.01173e-20)
(5.31795 0.0501134 0)
(5.28746 0.0574359 0)
(5.24955 0.0647411 -9.91397e-21)
(5.20319 0.071427 1.95736e-20)
(5.14733 0.0762414 -9.73201e-21)
(5.081 0.0776804 0)
(5.00328 0.0739453 0)
(4.91371 0.0652749 9.37331e-21)
(4.81528 0.0541915 0)
(4.72205 0.0454561 9.19136e-21)
(4.64816 0.0432328 0)
(4.59392 0.0450707 0)
(4.55238 0.0480805 0)
(4.51114 0.0490634 8.85918e-21)
(4.46522 0.0461986 0)
(4.41642 0.0409984 -8.66543e-21)
(4.36801 0.0370986 0)
(4.32079 0.0345785 0)
(4.27813 0.0372792 1.67477e-20)
(4.23501 0.041751 -1.65793e-20)
(4.19535 0.0526507 0)
(4.13837 0.0554859 0)
(4.08825 0.0711855 0)
(3.98835 0.0658811 4.79717e-20)
(3.93845 0.104896 0)
(3.75487 0.0894122 -3.14447e-20)
(0.0673513 0.439024 -2.73329e-23)
(0.256607 0.0740968 -6.26159e-21)
(0.534122 -0.452528 0)
(0.888329 -0.997433 5.91567e-21)
(1.24711 -1.44163 0)
(1.55734 -1.71154 0)
(1.79654 -1.79234 -3.4013e-22)
(1.97132 -1.72162 -2.75096e-21)
(2.09366 -1.54463 -2.15416e-21)
(2.1797 -1.30561 -2.47407e-21)
(2.233 -1.04806 0)
(2.26208 -0.798665 0)
(2.26813 -0.565408 1.492e-21)
(2.25307 -0.353268 2.7429e-21)
(2.21743 -0.166978 -2.55326e-21)
(2.16394 -0.00363952 0)
(2.09902 0.142818 -2.32746e-21)
(2.01528 0.271505 1.49449e-21)
(1.91596 0.383318 0)
(1.78549 0.521488 -2.31006e-21)
(1.63774 0.661434 -1.50845e-21)
(1.48433 0.777556 2.43196e-21)
(1.32411 0.875263 1.58218e-21)
(1.1622 0.93679 0)
(0.984934 0.994477 -2.64132e-21)
(0.753612 1.10979 -2.67551e-21)
(0.501891 1.22138 0)
(0.222725 1.32955 -2.65705e-21)
(-0.0780839 1.40407 0)
(-0.39259 1.42473 -2.48072e-21)
(-0.716683 1.38545 -1.46675e-21)
(-1.01953 1.30146 0)
(-1.29763 1.18218 0)
(-1.5362 1.03111 0)
(-1.75684 0.875937 0)
(-1.9522 0.717066 0)
(-2.15208 0.596021 0)
(-2.35339 0.535745 -5.88785e-22)
(-2.56211 0.552971 7.96917e-22)
(-2.7791 0.624933 0)
(-2.97847 0.692892 0)
(-3.18101 0.721888 0)
(-3.34227 0.755482 -6.98616e-22)
(-3.52999 0.74025 -5.47166e-23)
(-3.69915 0.687929 8.88867e-22)
(-3.85836 0.639929 -1.22547e-21)
(-4.00252 0.589594 -1.1296e-21)
(-4.11739 0.524564 6.25609e-22)
(-4.18183 0.454494 6.88686e-22)
(-4.23236 0.37875 1.5594e-21)
(-4.25675 0.298359 0)
(-4.27838 0.221293 1.67719e-21)
(-4.28782 0.156818 6.54486e-22)
(-4.31497 0.124157 0)
(-4.33976 0.111258 0)
(-4.35882 0.102899 -1.63412e-21)
(-4.35407 0.0787546 0)
(-4.34595 0.0444307 0)
(-4.33054 -0.00184797 2.05875e-21)
(-4.3259 -0.0377285 3.06616e-21)
(-4.35611 -0.0253672 -1.07733e-21)
(-4.40506 0.00102171 0)
(-4.43842 0.00961084 1.15238e-21)
(-4.46121 0.0105291 0)
(-4.47878 0.0100633 2.26074e-21)
(-4.48907 0.0109974 1.28247e-21)
(-4.49099 0.00896333 -3.72414e-21)
(-4.4856 0.00715957 -2.42431e-21)
(-4.47531 0.00596553 0)
(-4.46094 0.00157382 3.71695e-21)
(-4.44161 -0.0129129 0)
(-4.41251 -0.0416173 4.72561e-21)
(-4.36829 -0.0798851 3.3042e-21)
(-4.31359 -0.113004 3.15716e-21)
(-4.24649 -0.136431 -3.01583e-21)
(-4.17936 -0.139542 3.90165e-21)
(-4.12107 -0.118752 0)
(-4.07161 -0.0869231 0)
(-4.03365 -0.0563509 -2.17045e-21)
(-4.01101 -0.0265084 -2.40875e-21)
(-4.00085 0.00251639 0)
(-4.01032 0.0214786 2.06296e-22)
(-4.03195 0.0289545 0)
(-4.07212 0.0369022 1.87638e-22)
(-4.14182 0.0741508 5.43806e-22)
(-4.22634 0.118202 -6.03992e-22)
(-4.31468 0.176488 -1.04179e-21)
(-4.34305 0.177622 0)
(-4.28729 0.107976 1.50596e-21)
(-4.20446 0.0124618 8.90516e-22)
(-4.09395 -0.0861466 0)
(-3.97439 -0.175633 0)
(-3.83661 -0.255012 0)
(-3.68621 -0.323047 -3.31212e-21)
(-3.51808 -0.382083 0)
(-3.33498 -0.432834 0)
(-3.13548 -0.47695 0)
(-2.9215 -0.515307 0)
(-2.69309 -0.549149 0)
(-2.45163 -0.579034 -5.84723e-21)
(-2.19744 -0.605413 0)
(-1.93162 -0.628288 -7.7924e-21)
(-1.6549 -0.647588 -8.6283e-21)
(-1.36865 -0.662994 9.49748e-21)
(-1.07418 -0.674177 0)
(-0.773313 -0.680694 1.12728e-20)
(-0.467913 -0.68236 0)
(-0.160071 -0.679138 1.29836e-20)
(0.14814 -0.670969 -1.37736e-20)
(0.454624 -0.657844 -4.31186e-20)
(0.757158 -0.63981 0)
(1.05336 -0.617186 -4.68659e-20)
(1.34087 -0.590945 -1.59287e-20)
(1.61777 -0.562647 0)
(1.88304 -0.533531 -3.35767e-20)
(2.13652 -0.504618 -3.40474e-20)
(2.37859 -0.476722 5.16618e-20)
(2.60966 -0.450087 0)
(2.83019 -0.424674 1.7413e-20)
(3.04057 -0.400168 1.73909e-20)
(3.2409 -0.376261 5.17901e-20)
(3.43121 -0.35305 0)
(3.61135 -0.330484 0)
(3.78146 -0.308337 0)
(3.94169 -0.286796 1.64845e-20)
(4.09214 -0.26594 0)
(4.23305 -0.245864 0)
(4.36469 -0.226655 -1.58109e-20)
(4.48739 -0.208364 -1.55132e-20)
(4.60154 -0.191003 0)
(4.70752 -0.174555 0)
(4.80572 -0.158973 -2.9182e-20)
(4.89649 -0.144196 0)
(4.98014 -0.130164 2.79633e-20)
(5.05696 -0.116854 2.72907e-20)
(5.12719 -0.10425 0)
(5.19106 -0.0923256 0)
(5.24876 -0.0810716 -2.56261e-20)
(5.30047 -0.0704996 -6.94325e-23)
(5.34635 -0.0606317 -6.776e-23)
(5.38668 -0.0514688 0)
(5.42181 -0.0429594 -4.75006e-20)
(5.45218 -0.0349857 0)
(5.47833 -0.0273855 0)
(5.50074 -0.0199978 0)
(5.51976 -0.0127125 2.22711e-20)
(5.53561 -0.00546984 0)
(5.54834 0.00176945 -4.31887e-20)
(5.55794 0.00905774 -2.13859e-20)
(5.56436 0.0164542 0)
(5.56754 0.0240241 -2.08982e-20)
(5.56742 0.0318449 0)
(5.56394 0.0400073 0)
(5.55708 0.0486343 -6.07075e-20)
(5.54683 0.0578318 4.00502e-20)
(5.53315 0.067559 0)
(5.51587 0.0774975 3.93315e-20)
(5.49461 0.0872346 -1.95706e-20)
(5.46849 0.0960838 0)
(5.43619 0.103282 0)
(5.39536 0.107947 0)
(5.34391 0.109672 -5.62612e-20)
(5.27924 0.108537 0)
(5.20018 0.101606 -1.84364e-20)
(5.11166 0.0874633 0)
(5.02235 0.0724991 0)
(4.94624 0.0631851 0)
(4.89089 0.0601211 0)
(4.84618 0.0583355 0)
(4.79976 0.0547631 0)
(4.75115 0.0526918 -3.40504e-20)
(4.70106 0.0517419 0)
(4.6545 0.0536153 -1.67432e-20)
(4.60822 0.0553146 4.96023e-20)
(4.57217 0.064548 0)
(4.53169 0.0689561 0)
(4.50279 0.0888101 -3.21046e-20)
(4.44688 0.0953374 -3.19424e-20)
(4.4141 0.136402 3.15485e-20)
(4.31775 0.139128 3.14345e-20)
(0.0427785 0.00690511 9.50774e-21)
(0.363136 -0.597233 9.34583e-21)
(0.784145 -1.30387 5.92873e-21)
(1.15351 -1.80184 2.61895e-21)
(1.4331 -2.09196 0)
(1.59888 -2.1488 -4.70593e-21)
(1.66906 -2.01826 1.77582e-21)
(1.68181 -1.79008 0)
(1.66259 -1.51782 2.15326e-21)
(1.6386 -1.23188 0)
(1.61221 -0.956653 -2.71613e-21)
(1.58563 -0.69548 0)
(1.55298 -0.449425 -1.4887e-21)
(1.5105 -0.221409 -2.73597e-21)
(1.4528 -0.0158595 2.54646e-21)
(1.37895 0.165621 0)
(1.29078 0.331266 2.32185e-21)
(1.18895 0.479614 0)
(1.06653 0.629856 0)
(0.923986 0.788719 2.30851e-21)
(0.780645 0.930338 0)
(0.633348 1.05374 -7.18231e-22)
(0.488709 1.14631 0)
(0.326145 1.24474 0)
(0.129478 1.38124 7.84257e-22)
(-0.0798852 1.51875 2.6837e-21)
(-0.29587 1.6491 1.87314e-21)
(-0.511873 1.75794 2.66917e-21)
(-0.725947 1.82904 0)
(-0.939908 1.85415 4.20727e-21)
(-1.16397 1.82036 0)
(-1.39133 1.72465 1.46658e-21)
(-1.6203 1.58258 0)
(-1.84036 1.41344 0)
(-2.05855 1.24003 -8.69418e-22)
(-2.27377 1.07617 0)
(-2.50303 0.959999 3.45221e-22)
(-2.7312 0.905377 5.67351e-22)
(-2.96532 0.930099 2.29796e-24)
(-3.19744 0.997625 -1.23052e-21)
(-3.41167 1.05605 0)
(-3.59715 1.0521 0)
(-3.74302 1.01804 -1.96523e-21)
(-3.86561 0.945085 0)
(-3.96219 0.867393 -7.77158e-22)
(-4.04257 0.799401 9.5109e-22)
(-4.09258 0.713528 1.12527e-21)
(-4.11833 0.613292 0)
(-4.1245 0.510635 -1.44885e-21)
(-4.12524 0.406791 -1.56009e-21)
(-4.11994 0.31069 4.74763e-21)
(-4.1256 0.235108 -1.67926e-21)
(-4.14138 0.1885 -1.68997e-21)
(-4.17173 0.159357 0)
(-4.1927 0.130386 0)
(-4.20425 0.100918 1.63783e-21)
(-4.20611 0.0687426 0)
(-4.21561 0.0374573 0)
(-4.22756 0.00342709 -3.1061e-21)
(-4.26525 0.00420711 -3.07141e-21)
(-4.33022 0.0368345 0)
(-4.39234 0.0561581 0)
(-4.43702 0.054227 0)
(-4.47699 0.0489692 0)
(-4.50424 0.03637 -3.49599e-21)
(-4.5131 0.0178891 4.81221e-21)
(-4.50565 0.000717197 3.72688e-21)
(-4.48604 -0.0108529 8.7408e-21)
(-4.45675 -0.0200505 0)
(-4.41634 -0.0333269 1.10586e-21)
(-4.3671 -0.0613147 0)
(-4.30679 -0.107032 -3.46597e-21)
(-4.23667 -0.159905 9.53818e-22)
(-4.15869 -0.204876 -3.17269e-21)
(-4.07424 -0.221144 3.03368e-21)
(-3.99065 -0.212378 8.38674e-22)
(-3.90445 -0.193237 0)
(-3.82653 -0.155771 3.25251e-21)
(-3.7683 -0.106083 2.18882e-21)
(-3.73633 -0.0528754 4.35622e-21)
(-3.72678 -0.00131881 0)
(-3.74048 0.0380467 -1.6128e-21)