/*--------------------------------*- C++ -*----------------------------------*\
  =========                 |
  \\      /  F ield         | OpenFOAM: The Open Source CFD Toolbox
   \\    /   O peration     | Website:  https://openfoam.org
    \\  /    A nd           | Version:  10
     \\/     M anipulation  |
\*---------------------------------------------------------------------------*/
FoamFile
{
    format      ascii;
    class       surfaceScalarField;
    location    "0.65";
    object      phi;
}
// * * * * * * * * * * * * * * * * * * * * * * * * * * * * * * * * * * * * * //

dimensions      [0 3 -1 0 0 0 0];

internalField   nonuniform List<scalar> 
24170
(
1.3555e-09
-1.3555e-09
2.51454e-09
-1.15904e-09
3.43041e-09
-9.15869e-10
4.12019e-09
-6.89772e-10
4.62849e-09
-5.0831e-10
5.00358e-09
-3.7509e-10
5.28698e-09
-2.83391e-10
5.51122e-09
-2.24249e-10
5.70119e-09
-1.89961e-10
5.87637e-09
-1.75183e-10
6.05353e-09
-1.77159e-10
6.2495e-09
-1.95976e-10
6.48506e-09
-2.35557e-10
6.79181e-09
-3.06753e-10
7.22863e-09
-4.36816e-10
7.93208e-09
-7.03453e-10
9.32779e-09
-1.39571e-09
-4.07868e-09
1.34065e-08
1.56156e-09
-2.91706e-09
2.89077e-09
-2.48825e-09
3.93481e-09
-1.95991e-09
4.71605e-09
-1.47102e-09
5.28816e-09
-1.08042e-09
5.70792e-09
-7.94849e-10
6.02353e-09
-5.99002e-10
6.27238e-09
-4.73097e-10
6.48271e-09
-4.00294e-10
6.67647e-09
-3.68942e-10
6.87226e-09
-3.72947e-10
7.08846e-09
-4.1218e-10
7.34723e-09
-4.94329e-10
7.68114e-09
-6.40655e-10
8.14704e-09
-9.02721e-10
8.85892e-09
-1.41533e-09
1.0049e-08
-2.58576e-09
-5.78826e-09
1.17585e-08
1.75679e-09
-4.67385e-09
3.24224e-09
-3.9737e-09
4.39832e-09
-3.11598e-09
5.25473e-09
-2.32743e-09
5.87555e-09
-1.70125e-09
6.32661e-09
-1.2459e-09
6.66268e-09
-9.35073e-10
6.9256e-09
-7.36018e-10
7.14653e-09
-6.21226e-10
7.34929e-09
-5.71698e-10
7.55363e-09
-5.7729e-10
7.77848e-09
-6.37026e-10
8.04552e-09
-7.61369e-10
8.38421e-09
-9.79352e-10
8.83918e-09
-1.35769e-09
9.47519e-09
-2.05134e-09
1.0321e-08
-3.43161e-09
-6.29622e-09
1.0829e-08
1.97359e-09
-6.64744e-09
3.62732e-09
-5.62743e-09
4.89846e-09
-4.38711e-09
5.82767e-09
-3.25664e-09
6.49258e-09
-2.36615e-09
6.96977e-09
-1.7231e-09
7.32138e-09
-1.28668e-09
7.59385e-09
-1.00848e-09
7.8211e-09
-8.48479e-10
8.02851e-09
-7.79107e-10
8.23648e-09
-7.85259e-10
8.46357e-09
-8.64116e-10
8.72936e-09
-1.02715e-09
9.0569e-09
-1.30689e-09
9.47239e-09
-1.77318e-09
9.98802e-09
-2.56697e-09
1.05057e-08
-3.9493e-09
-6.2438e-09
1.04533e-08
2.22617e-09
-8.87362e-09
4.06887e-09
-7.47014e-09
5.46182e-09
-5.78006e-09
6.46238e-09
-4.2572e-09
7.1664e-09
-3.07017e-09
7.6639e-09
-2.2206e-09
8.02544e-09
-1.64822e-09
8.30233e-09
-1.28538e-09
8.53114e-09
-1.07728e-09
8.7384e-09
-9.86368e-10
8.94456e-09
-9.91426e-10
9.16692e-09
-1.08647e-09
9.42141e-09
-1.28165e-09
9.72245e-09
-1.60793e-09
1.00763e-08
-2.12705e-09
1.04541e-08
-2.94476e-09
1.07082e-08
-4.20337e-09
-5.94711e-09
1.04115e-08
2.52979e-09
-1.14034e-08
4.58965e-09
-9.53e-09
6.11243e-09
-7.30284e-09
7.18115e-09
-5.32592e-09
7.91677e-09
-3.80579e-09
8.4263e-09
-2.73013e-09
8.79009e-09
-2.01202e-09
9.06461e-09
-1.5599e-09
9.28879e-09
-1.30146e-09
9.48986e-09
-1.18744e-09
9.68765e-09
-1.18921e-09
9.89725e-09
-1.29607e-09
1.01299e-08
-1.51428e-09
1.03905e-08
-1.86856e-09
1.06682e-08
-2.40474e-09
1.09102e-08
-3.18673e-09
1.09705e-08
-4.2637e-09
-5.55396e-09
1.05773e-08
2.90492e-09
-1.43083e-08
5.2185e-09
-1.18436e-08
6.87872e-09
-8.96306e-09
8.00853e-09
-6.45573e-09
8.76382e-09
-4.56108e-09
9.27327e-09
-3.23958e-09
9.62862e-09
-2.36737e-09
9.8916e-09
-1.82288e-09
1.01031e-08
-1.51295e-09
1.02904e-08
-1.37472e-09
1.04719e-08
-1.37073e-09
1.06598e-08
-1.48398e-09
1.08601e-08
-1.71453e-09
1.10689e-08
-2.07741e-09
1.12634e-08
-2.59926e-09
1.13829e-08
-3.30622e-09
1.1308e-08
-4.18878e-09
-5.12999e-09
1.0884e-08
3.38141e-09
-1.76897e-08
5.9952e-09
-1.44574e-08
7.79758e-09
-1.07654e-08
8.97439e-09
-7.63254e-09
9.73058e-09
-5.31727e-09
1.02224e-08
-3.73138e-09
1.05545e-08
-2.69948e-09
1.07937e-08
-2.06213e-09
1.09822e-08
-1.70141e-09
1.11463e-08
-1.53884e-09
1.13024e-08
-1.52683e-09
1.14591e-08
-1.64069e-09
1.16172e-08
-1.87259e-09
1.17661e-08
-2.22628e-09
1.18766e-08
-2.70986e-09
1.18918e-08
-3.32133e-09
1.1725e-08
-4.02197e-09
-4.70238e-09
1.12974e-08
4.00504e-09
-2.16948e-08
6.977e-09
-1.74293e-08
8.91868e-09
-1.27071e-08
1.01165e-08
-8.83038e-09
1.08445e-08
-6.04527e-09
1.12935e-08
-4.18033e-09
1.15822e-08
-2.98821e-09
1.17818e-08
-2.26169e-09
1.19341e-08
-1.8538e-09
1.20639e-08
-1.66856e-09
1.21842e-08
-1.64719e-09
1.23e-08
-1.75645e-09
1.24073e-08
-1.97988e-09
1.24911e-08
-2.31013e-09
1.25214e-08
-2.74013e-09
1.24505e-08
-3.25045e-09
1.22217e-08
-3.79313e-09
-4.28104e-09
1.18003e-08
4.84923e-09
-2.6544e-08
8.24884e-09
-2.08289e-08
1.03102e-08
-1.47685e-08
1.14832e-08
-1.00033e-08
1.21384e-08
-6.70056e-09
1.25089e-08
-4.55078e-09
1.27272e-08
-3.20654e-09
1.28667e-08
-2.40111e-09
1.2967e-08
-1.95413e-09
1.30492e-08
-1.75077e-09
1.31226e-08
-1.72059e-09
1.31878e-08
-1.8217e-09
1.32373e-08
-2.02934e-09
1.32539e-08
-2.32671e-09
1.32099e-08
-2.69613e-09
1.30692e-08
-3.10979e-09
1.27979e-08
-3.52176e-09
-3.86834e-09
1.23852e-08
6.03738e-09
-3.25814e-08
9.94015e-09
-2.47317e-08
1.20666e-08
-1.6895e-08
1.31354e-08
-1.10721e-08
1.36508e-08
-7.21599e-09
1.38932e-08
-4.79311e-09
1.40057e-08
-3.31907e-09
1.40594e-08
-2.45482e-09
1.40886e-08
-1.98331e-09
1.41084e-08
-1.77059e-09
1.4123e-08
-1.73518e-09
1.41287e-08
-1.8274e-09
1.41149e-08
-2.01553e-09
1.40641e-08
-2.27588e-09
1.39528e-08
-2.5848e-09
1.37555e-08
-2.91252e-09
1.34539e-08
-3.22016e-09
-3.46351e-09
1.3049e-08
6.46367e-09
-3.90451e-08
1.02003e-08
-2.84684e-08
1.19513e-08
-1.8646e-08
1.26698e-08
-1.17906e-08
1.29191e-08
-7.46521e-09
1.29713e-08
-4.84535e-09
1.29484e-08
-3.29618e-09
1.29025e-08
-2.40887e-09
1.2854e-08
-1.93491e-09
1.28091e-08
-1.72565e-09
1.27659e-08
-1.69193e-09
1.27175e-08
-1.77907e-09
1.26532e-08
-1.95121e-09
1.25585e-08
-2.18114e-09
1.24169e-08
-2.44321e-09
1.22134e-08
-2.70906e-09
1.19401e-08
-2.94686e-09
-3.12513e-09
1.16017e-08
9.62976e-09
-4.86748e-08
1.43798e-08
-3.32184e-08
1.61368e-08
-2.0403e-08
1.65886e-08
-1.22424e-08
1.65584e-08
-7.43501e-09
1.63817e-08
-4.66872e-09
1.61829e-08
-3.09734e-09
1.60022e-08
-2.22814e-09
1.58477e-08
-1.78044e-09
1.57153e-08
-1.59324e-09
1.55955e-08
-1.57212e-09
1.54758e-08
-1.65941e-09
1.53417e-08
-1.81711e-09
1.51773e-08
-2.0167e-09
1.49671e-08
-2.23305e-09
1.46996e-08
-2.44153e-09
1.43709e-08
-2.61812e-09
-2.74214e-09
1.39879e-08
1.55829e-08
-6.42577e-08
2.12856e-08
-3.89211e-08
2.24166e-08
-2.1534e-08
2.20854e-08
-1.19111e-08
2.14357e-08
-6.78534e-09
2.08136e-08
-4.0466e-09
2.02978e-08
-2.58152e-09
1.98863e-08
-1.81668e-09
1.9557e-08
-1.45116e-09
1.92853e-08
-1.32147e-09
1.90479e-08
-1.33471e-09
1.88235e-08
-1.43502e-09
1.85924e-08
-1.586e-09
1.83368e-08
-1.76113e-09
1.80424e-08
-1.93869e-09
1.77005e-08
-2.09966e-09
1.73101e-08
-2.22772e-09
-2.31075e-09
1.68788e-08
2.85631e-08
-9.28208e-08
3.35577e-08
-4.39157e-08
3.2141e-08
-2.01173e-08
2.98777e-08
-9.64789e-09
2.79783e-08
-4.88593e-09
2.65554e-08
-2.62367e-09
2.55098e-08
-1.53592e-09
2.47316e-08
-1.03851e-09
2.41351e-08
-8.54657e-10
2.36573e-08
-8.4362e-10
2.32515e-08
-9.28932e-10
2.28825e-08
-1.06605e-09
2.25233e-08
-1.22678e-09
2.21534e-08
-1.39122e-09
2.17588e-08
-1.54408e-09
2.13323e-08
-1.67318e-09
2.08739e-08
-1.76934e-09
-1.82693e-09
2.03901e-08
6.31589e-08
-1.5598e-07
5.66959e-08
-3.74528e-08
4.71567e-08
-1.0578e-08
4.06548e-08
-3.14604e-09
3.65126e-08
-7.43669e-10
3.38213e-08
6.75852e-11
3.20002e-08
2.85178e-10
3.07058e-08
2.55897e-10
2.97381e-08
1.13037e-10
2.89759e-08
-8.1369e-11
2.83417e-08
-2.9481e-10
2.7783e-08
-5.0727e-10
2.7263e-08
-7.06772e-10
2.67566e-08
-8.8485e-10
2.6248e-08
-1.03546e-09
2.5729e-08
-1.15422e-09
2.51983e-08
-1.23863e-09
-1.2882e-09
2.46595e-08
1.83743e-07
1.60148e-07
9.77376e-08
4.85522e-08
6.74296e-08
1.973e-08
5.39472e-08
1.03363e-08
4.67987e-08
6.40486e-09
4.25179e-08
4.34845e-09
3.97277e-08
3.07532e-09
3.7791e-08
2.1926e-09
3.63705e-08
1.53351e-09
3.52717e-08
1.01747e-09
3.4375e-08
6.01893e-10
3.36049e-08
2.62808e-10
3.29121e-08
-1.40114e-11
3.22636e-08
-2.36296e-10
3.16397e-08
-4.11594e-10
3.10298e-08
-5.44245e-10
3.04293e-08
-6.38165e-10
-6.97384e-10
2.98385e-08
7.72703e-08
8.28775e-08
7.56311e-08
5.01915e-08
6.5749e-08
2.9612e-08
5.784e-08
1.82453e-08
5.238e-08
1.18649e-08
4.86463e-08
8.08209e-09
4.60262e-08
5.69544e-09
4.41184e-08
4.10042e-09
4.26705e-08
2.98142e-09
4.15223e-08
2.16567e-09
4.05702e-08
1.55401e-09
3.97461e-08
1.08689e-09
3.90051e-08
7.26971e-10
3.8319e-08
4.49829e-10
3.76689e-08
2.3852e-10
3.70438e-08
8.07914e-11
3.64381e-08
-3.24087e-11
-1.08671e-10
3.58493e-08
3.61066e-08
4.67709e-08
5.0368e-08
3.59301e-08
5.41644e-08
2.58156e-08
5.41121e-08
1.82977e-08
5.29103e-08
1.30667e-08
5.15246e-08
9.46777e-09
5.02541e-08
6.96591e-09
4.91603e-08
5.19427e-09
4.82275e-08
3.91416e-09
4.74214e-08
2.97177e-09
4.67082e-08
2.26725e-09
4.60604e-08
1.73472e-09
4.54576e-08
1.32974e-09
4.48858e-08
1.02165e-09
4.43356e-08
7.88657e-10
4.38016e-08
6.14831e-10
4.3281e-08
4.88169e-10
3.99308e-10
4.2773e-08
1.44796e-08
3.22913e-08
2.35614e-08
2.68483e-08
2.84575e-08
2.09194e-08
3.09015e-08
1.58537e-08
3.20483e-08
1.19199e-08
3.2536e-08
8.97999e-09
3.2693e-08
6.8089e-09
3.2683e-08
5.20437e-09
3.25863e-08
4.01083e-09
3.24425e-08
3.11557e-09
3.2271e-08
2.43872e-09
3.20817e-08
1.92398e-09
3.18801e-08
1.53138e-09
3.16695e-08
1.23229e-09
3.14524e-08
1.00578e-09
3.12309e-08
8.36329e-10
3.10069e-08
7.12157e-10
6.24131e-10
3.0782e-08
8.71949e-09
2.35718e-08
1.52162e-08
2.03516e-08
1.95525e-08
1.65832e-08
2.23109e-08
1.30953e-08
2.40388e-08
1.0192e-08
2.51216e-08
7.89718e-09
2.58035e-08
6.12703e-09
2.62329e-08
4.77501e-09
2.64991e-08
3.7446e-09
2.66566e-08
2.95811e-09
2.6739e-08
2.35624e-09
2.67683e-08
1.8947e-09
2.6759e-08
1.54074e-09
2.67212e-08
1.27006e-09
2.66624e-08
1.06451e-09
2.65884e-08
9.10415e-10
2.65032e-08
7.97274e-10
7.16937e-10
2.64104e-08
5.90946e-09
1.76623e-08
1.06952e-08
1.55659e-08
1.42527e-08
1.30258e-08
1.67878e-08
1.05601e-08
1.85658e-08
8.41394e-09
1.98113e-08
6.65172e-09
2.06886e-08
5.24976e-09
2.1311e-08
4.1526e-09
2.17549e-08
3.30063e-09
2.20719e-08
2.64112e-09
2.22971e-08
2.13113e-09
2.24547e-08
1.73708e-09
2.25622e-08
1.43324e-09
2.26322e-08
1.20002e-09
2.26742e-08
1.02249e-09
2.26954e-08
8.89237e-10
2.27012e-08
7.91459e-10
7.22292e-10
2.26959e-08
4.31406e-09
1.33483e-08
7.97044e-09
1.19095e-08
1.08615e-08
1.01347e-08
1.3061e-08
8.3606e-09
1.47047e-08
6.77032e-09
1.59263e-08
5.43012e-09
1.68356e-08
4.34043e-09
1.75157e-08
3.47246e-09
1.80274e-08
2.78901e-09
1.84143e-08
2.25421e-09
1.87082e-08
1.83724e-09
1.89322e-08
1.51309e-09
1.91034e-08
1.26203e-09
1.92347e-08
1.06873e-09
1.93358e-08
9.2133e-10
1.94144e-08
8.10665e-10
1.94762e-08
7.29609e-10
6.72604e-10
1.95259e-08
3.30605e-09
1.00422e-08
6.18489e-09
9.03065e-09
8.54935e-09
7.77022e-09
1.04235e-08
6.48649e-09
1.18808e-08
5.31294e-09
1.30049e-08
4.30609e-09
1.38705e-08
3.47478e-09
1.45388e-08
2.8042e-09
1.5057e-08
2.27078e-09
1.54612e-08
1.85001e-09
1.57785e-08
1.51993e-09
1.60295e-08
1.26213e-09
1.62297e-08
1.0618e-09
1.63912e-08
9.07234e-10
1.65233e-08
7.89265e-10
1.66332e-08
7.00741e-10
1.67267e-08
6.36072e-10
5.9088e-10
1.68085e-08
2.61732e-09
7.42488e-09
4.93561e-09
6.71236e-09
6.88684e-09
5.81899e-09
8.47549e-09
4.89784e-09
9.74393e-09
4.0445e-09
1.07467e-08
3.30328e-09
1.15368e-08
2.6847e-09
1.21598e-08
2.18122e-09
1.26528e-08
1.77779e-09
1.30451e-08
1.45773e-09
1.33594e-08
1.20554e-09
1.36136e-08
1.00794e-09
1.38214e-08
8.54068e-10
1.39934e-08
7.35217e-10
1.41381e-08
6.44517e-10
1.42623e-08
5.76564e-10
1.43713e-08
5.27111e-10
4.92809e-10
1.44693e-08
2.11793e-09
5.30695e-09
4.01499e-09
4.8153e-09
5.63779e-09
4.1962e-09
6.98311e-09
3.55252e-09
8.07679e-09
2.95083e-09
8.95633e-09
2.42374e-09
9.66046e-09
1.98057e-09
1.02241e-08
1.61761e-09
1.06766e-08
1.3253e-09
1.10418e-08
1.09248e-09
1.13389e-08
9.085e-10
1.15827e-08
7.64075e-10
1.17853e-08
6.51505e-10
1.19559e-08
5.64574e-10
1.21021e-08
4.98333e-10
1.22298e-08
4.48869e-10
1.23438e-08
4.13087e-10
3.8853e-10
1.24481e-08
1.73836e-09
3.56859e-09
3.30724e-09
3.24642e-09
4.66407e-09
2.83936e-09
5.80287e-09
2.41372e-09
6.74031e-09
2.01339e-09
7.50339e-09
1.66066e-09
8.12136e-09
1.3626e-09
8.62153e-09
1.11744e-09
9.02747e-09
9.19357e-10
9.35875e-09
7.61201e-10
9.63122e-09
6.36032e-10
9.85757e-09
5.37721e-10
1.00479e-08
4.61134e-10
1.02104e-08
4.02102e-10
1.03515e-08
3.57284e-10
1.04763e-08
3.24028e-10
1.05892e-08
3.00223e-10
2.84175e-10
1.06935e-08
1.43786e-09
2.13073e-09
2.74229e-09
1.94199e-09
3.87889e-09
1.70277e-09
4.841e-09
1.45161e-09
5.63999e-09
1.21439e-09
6.29607e-09
1.00459e-09
6.83195e-09
8.26711e-10
7.26937e-09
6.80027e-10
7.62744e-09
5.61283e-10
7.92226e-09
4.6638e-10
8.16703e-09
3.91266e-10
8.37242e-09
3.32333e-10
8.54701e-09
2.86542e-10
8.6977e-09
2.51409e-10
8.83005e-09
2.24938e-10
8.94854e-09
2.05537e-10
9.05683e-09
1.91935e-10
1.83091e-10
9.15791e-09
1.18828e-09
9.42453e-10
2.27024e-09
8.60027e-10
3.21782e-09
7.55187e-10
4.02466e-09
6.44767e-10
4.69888e-09
5.40183e-10
5.256e-09
4.4746e-10
5.71402e-09
3.68699e-10
6.09038e-09
3.03667e-10
6.40066e-09
2.50996e-10
6.65812e-09
2.0892e-10
6.87371e-09
1.75676e-10
7.05636e-09
1.49687e-10
7.21328e-09
1.29619e-10
7.35031e-09
1.14378e-10
7.47216e-09
1.03088e-10
7.58265e-09
9.50468e-11
7.68489e-09
8.96939e-11
8.65611e-11
7.78142e-09
9.42453e-10
1.80248e-09
2.55767e-09
3.20243e-09
3.74262e-09
4.19008e-09
4.55878e-09
4.86244e-09
5.11344e-09
5.32236e-09
5.49804e-09
5.64772e-09
5.77734e-09
5.89172e-09
5.99481e-09
6.08986e-09
6.17955e-09
6.26611e-09
2.11056e-10
-2.11056e-10
4.2341e-10
-2.12354e-10
6.36903e-10
-2.13493e-10
8.51371e-10
-2.14468e-10
1.06664e-09
-2.15271e-10
1.28254e-09
-2.15895e-10
1.49887e-09
-2.16335e-10
1.71545e-09
-2.16584e-10
1.93209e-09
-2.16636e-10
2.14858e-09
-2.16488e-10
2.36471e-09
-2.16133e-10
2.58028e-09
-2.1557e-10
2.79508e-09
-2.14795e-10
3.00888e-09
-2.13807e-10
3.22149e-09
-2.12605e-10
3.43268e-09
-2.1119e-10
3.64224e-09
-2.09563e-10
3.84997e-09
-2.07728e-10
4.05566e-09
-2.05689e-10
4.25911e-09
-2.03451e-10
4.46013e-09
-2.0102e-10
4.65854e-09
-1.98404e-10
4.85415e-09
-1.95612e-10
5.0468e-09
-1.92652e-10
5.23633e-09
-1.89535e-10
5.4226e-09
-1.86271e-10
5.60548e-09
-1.82872e-10
5.78483e-09
-1.79349e-10
5.96054e-09
-1.75714e-10
6.13252e-09
-1.71978e-10
6.30067e-09
-1.68154e-10
6.46493e-09
-1.64254e-10
6.62521e-09
-1.60289e-10
6.78148e-09
-1.5627e-10
6.93369e-09
-1.5221e-10
7.08181e-09
-1.48118e-10
7.22582e-09
-1.44005e-10
7.3657e-09
-1.39881e-10
7.50145e-09
-1.35754e-10
7.63309e-09
-1.31635e-10
7.76062e-09
-1.27531e-10
7.88407e-09
-1.23449e-10
8.00346e-09
-1.19398e-10
8.11885e-09
-1.15383e-10
8.23026e-09
-1.11411e-10
8.33775e-09
-1.07488e-10
8.44136e-09
-1.03617e-10
8.54117e-09
-9.98045e-11
8.63722e-09
-9.60537e-11
8.72959e-09
-9.23685e-11
8.81834e-09
-8.87518e-11
8.90355e-09
-8.52066e-11
8.98528e-09
-8.1735e-11
9.06362e-09
-7.83392e-11
9.13864e-09
-7.50207e-11
9.21042e-09
-7.17809e-11
9.27905e-09
-6.8621e-11
9.34459e-09
-6.55413e-11
9.40713e-09
-6.25428e-11
9.46675e-09
-5.96255e-11
9.52354e-09
-5.67895e-11
9.57758e-09
-5.40346e-11
9.62894e-09
-5.13606e-11
9.67771e-09
-4.87668e-11
9.72396e-09
-4.62527e-11
9.76778e-09
-4.38174e-11
9.80924e-09
-4.146e-11
9.84842e-09
-3.91795e-11
9.88539e-09
-3.69748e-11
9.92024e-09
-3.48445e-11
9.95302e-09
-3.27876e-11
9.98383e-09
-3.08024e-11
1.00127e-08
-2.88876e-11
1.00398e-08
-2.70419e-11
1.0065e-08
-2.52634e-11
1.00886e-08
-2.35509e-11
1.01105e-08
-2.19026e-11
1.01308e-08
-2.0317e-11
1.01496e-08
-1.87922e-11
1.01669e-08
-1.73269e-11
1.01828e-08
-1.59192e-11
1.01974e-08
-1.45675e-11
1.02107e-08
-1.32703e-11
1.02227e-08
-1.20257e-11
1.02335e-08
-1.08322e-11
1.02432e-08
-9.68798e-12
1.02518e-08
-8.5917e-12
1.02593e-08
-7.54146e-12
1.02659e-08
-6.53587e-12
1.02715e-08
-5.57337e-12
1.02761e-08
-4.65223e-12
1.02799e-08
-3.77112e-12
1.02828e-08
-2.92836e-12
1.02849e-08
-2.12278e-12
1.02863e-08
-1.35256e-12
1.02869e-08
-6.16595e-13
1.02868e-08
8.64917e-14
1.02861e-08
7.58328e-13
1.02847e-08
1.39993e-12
1.02826e-08
2.01276e-12
1.028e-08
2.59787e-12
1.02769e-08
3.15675e-12
1.02732e-08
3.69018e-12
1.0269e-08
4.1998e-12
1.02643e-08
4.68621e-12
1.02592e-08
5.15087e-12
1.02536e-08
5.59463e-12
1.02475e-08
6.01859e-12
1.02411e-08
6.4236e-12
1.02343e-08
6.81071e-12
1.02271e-08
7.18082e-12
1.02196e-08
7.5348e-12
1.02117e-08
7.87339e-12
1.02035e-08
8.19748e-12
1.0195e-08
8.50787e-12
1.01862e-08
8.80538e-12
1.01771e-08
9.09045e-12
1.01678e-08
9.36424e-12
1.01581e-08
9.62684e-12
1.01482e-08
9.87945e-12
1.01381e-08
1.01222e-11
1.01278e-08
1.0356e-11
1.01172e-08
1.05812e-11
1.01064e-08
1.07986e-11
1.00954e-08
1.10085e-11
1.00842e-08
1.12113e-11
1.00728e-08
1.14077e-11
1.00612e-08
1.1598e-11
1.00494e-08
1.17826e-11
1.00374e-08
1.19621e-11
1.00253e-08
1.21366e-11
1.0013e-08
1.23068e-11
1.00005e-08
1.24726e-11
9.98787e-09
1.26348e-11
9.97508e-09
1.27934e-11
9.96213e-09
1.2949e-11
9.94903e-09
1.31015e-11
9.93578e-09
1.32516e-11
9.92238e-09
1.33993e-11
9.90883e-09
1.3545e-11
9.89514e-09
1.3689e-11
9.88131e-09
1.38314e-11
9.86734e-09
1.39728e-11
9.85322e-09
1.41132e-11
9.83897e-09
1.4253e-11
9.82458e-09
1.43925e-11
9.81005e-09
1.45321e-11
9.79537e-09
1.46723e-11
9.78056e-09
1.48135e-11
9.7656e-09
1.49563e-11
9.7505e-09
1.51012e-11
9.73525e-09
1.52492e-11
9.71985e-09
1.54012e-11
9.7043e-09
1.55583e-11
9.68857e-09
1.57222e-11
9.67268e-09
1.58947e-11
9.6566e-09
1.60783e-11
9.64032e-09
1.62759e-11
9.62383e-09
1.64914e-11
9.6071e-09
1.67298e-11
9.5901e-09
1.69977e-11
9.5728e-09
1.73033e-11
9.55514e-09
1.76577e-11
9.53707e-09
1.80749e-11
9.51849e-09
1.85741e-11
9.49931e-09
1.91804e-11
9.47939e-09
1.99274e-11
9.45853e-09
2.08614e-11
9.43648e-09
2.20458e-11
9.41291e-09
2.35697e-11
9.38735e-09
2.55612e-11
9.35914e-09
2.82098e-11
9.32733e-09
3.18056e-11
9.29052e-09
3.68152e-11
9.24648e-09
4.40359e-11
9.19153e-09
5.49505e-11
9.11887e-09
7.26607e-11
9.014e-09
1.0487e-10
8.83769e-09
1.76308e-10
4.01076e-10
8.43662e-09
2.11777e-10
-4.22833e-10
4.24853e-10
-4.2543e-10
6.39071e-10
-4.27711e-10
8.54263e-10
-4.2966e-10
1.07026e-09
-4.31264e-10
1.28687e-09
-4.3251e-10
1.50392e-09
-4.33384e-10
1.72121e-09
-4.33874e-10
1.93854e-09
-4.33969e-10
2.15572e-09
-4.33659e-10
2.37252e-09
-4.32935e-10
2.58874e-09
-4.31789e-10
2.80416e-09
-4.30217e-10
3.01857e-09
-4.28215e-10
3.23174e-09
-4.25781e-10
3.44347e-09
-4.22918e-10
3.65354e-09
-4.19629e-10
3.86173e-09
-4.15921e-10
4.06784e-09
-4.11801e-10
4.27167e-09
-4.07282e-10
4.47303e-09
-4.02376e-10
4.67172e-09
-3.97099e-10
4.86758e-09
-3.91468e-10
5.06043e-09
-3.85503e-10
5.25012e-09
-3.79223e-10
5.4365e-09
-3.7265e-10
5.61943e-09
-3.65808e-10
5.7988e-09
-3.5872e-10
5.9745e-09
-3.51409e-10
6.14642e-09
-3.43899e-10
6.31448e-09
-3.36216e-10
6.47861e-09
-3.28381e-10
6.63874e-09
-3.2042e-10
6.79482e-09
-3.12354e-10
6.94682e-09
-3.04207e-10
7.0947e-09
-2.96e-10
7.23845e-09
-2.87753e-10
7.37806e-09
-2.79487e-10
7.51352e-09
-2.71218e-10
7.64485e-09
-2.62966e-10
7.77207e-09
-2.54747e-10
7.8952e-09
-2.46575e-10
8.01427e-09
-2.38466e-10
8.12931e-09
-2.30431e-10
8.24039e-09
-2.22484e-10
8.34753e-09
-2.14635e-10
8.45081e-09
-2.06894e-10
8.55028e-09
-1.9927e-10
8.64599e-09
-1.91771e-10
8.73803e-09
-1.84403e-10
8.82645e-09
-1.77174e-10
8.91133e-09
-1.70089e-10
8.99275e-09
-1.63151e-10
9.07077e-09
-1.56366e-10
9.14549e-09
-1.49736e-10
9.21697e-09
-1.43264e-10
9.2853e-09
-1.36951e-10
9.35056e-09
-1.308e-10
9.41283e-09
-1.24811e-10
9.47219e-09
-1.18985e-10
9.52872e-09
-1.13321e-10
9.58251e-09
-1.0782e-10
9.63363e-09
-1.02481e-10
9.68216e-09
-9.73016e-11
9.72819e-09
-9.22818e-11
9.77179e-09
-8.74197e-11
9.81304e-09
-8.27133e-11
9.85203e-09
-7.81606e-11
9.88881e-09
-7.37591e-11
9.92347e-09
-6.95067e-11
9.95609e-09
-6.54004e-11
9.98672e-09
-6.14378e-11
1.00154e-08
-5.76157e-11
1.00423e-08
-5.39312e-11
1.00675e-08
-5.03815e-11
1.00909e-08
-4.69632e-11
1.01126e-08
-4.36732e-11
1.01328e-08
-4.05081e-11
1.01515e-08
-3.7465e-11
1.01687e-08
-3.45401e-11
1.01845e-08
-3.17306e-11
1.0199e-08
-2.90327e-11
1.02122e-08
-2.64435e-11
1.02241e-08
-2.39593e-11
1.02348e-08
-2.15771e-11
1.02445e-08
-1.92934e-11
1.0253e-08
-1.71053e-11
1.02604e-08
-1.50091e-11
1.02669e-08
-1.30022e-11
1.02724e-08
-1.10809e-11
1.0277e-08
-9.24242e-12
1.02807e-08
-7.48366e-12
1.02836e-08
-5.80172e-12
1.02857e-08
-4.19359e-12
1.0287e-08
-2.65642e-12
1.02875e-08
-1.1874e-12
1.02874e-08
2.16298e-13
1.02866e-08
1.55705e-12
1.02852e-08
2.83796e-12
1.02831e-08
4.06106e-12
1.02805e-08
5.22924e-12
1.02773e-08
6.34459e-12
1.02736e-08
7.40975e-12
1.02693e-08
8.4269e-12
1.02646e-08
9.39813e-12
1.02595e-08
1.03257e-11
1.02538e-08
1.12116e-11
1.02478e-08
1.2058e-11
1.02414e-08
1.28666e-11
1.02345e-08
1.36396e-11
1.02273e-08
1.43785e-11
1.02198e-08
1.50852e-11
1.02119e-08
1.57613e-11
1.02037e-08
1.64086e-11
1.01952e-08
1.70283e-11
1.01863e-08
1.76224e-11
1.01772e-08
1.81919e-11
1.01679e-08
1.87383e-11
1.01582e-08
1.92631e-11
1.01483e-08
1.97674e-11
1.01382e-08
2.02525e-11
1.01279e-08
2.07194e-11
1.01173e-08
2.11694e-11
1.01065e-08
2.16035e-11
1.00954e-08
2.20227e-11
1.00842e-08
2.24281e-11
1.00728e-08
2.28203e-11
1.00612e-08
2.32005e-11
1.00494e-08
2.35695e-11
1.00375e-08
2.39279e-11
1.00253e-08
2.42767e-11
1.0013e-08
2.46166e-11
1.00005e-08
2.49482e-11
9.9879e-09
2.52722e-11
9.9751e-09
2.55894e-11
9.96215e-09
2.59e-11
9.94905e-09
2.62051e-11
9.93579e-09
2.6505e-11
9.92239e-09
2.68002e-11
9.90885e-09
2.70915e-11
9.89516e-09
2.73793e-11
9.88132e-09
2.7664e-11
9.86735e-09
2.79465e-11
9.85324e-09
2.82271e-11
9.83898e-09
2.85066e-11
9.82459e-09
2.87855e-11
9.81006e-09
2.90647e-11
9.79538e-09
2.93448e-11
9.78057e-09
2.9627e-11
9.76561e-09
2.99123e-11
9.75051e-09
3.02019e-11
9.73527e-09
3.04976e-11
9.71987e-09
3.08011e-11
9.70431e-09
3.11151e-11
9.68859e-09
3.14424e-11
9.6727e-09
3.17868e-11
9.65662e-09
3.2153e-11
9.64035e-09
3.25471e-11
9.62387e-09
3.29769e-11
9.60714e-09
3.34522e-11
9.59015e-09
3.3986e-11
9.57286e-09
3.45946e-11
9.55522e-09
3.52998e-11
9.53717e-09
3.61301e-11
9.51862e-09
3.71226e-11
9.49947e-09
3.83275e-11
9.47959e-09
3.98116e-11
9.45878e-09
4.16658e-11
9.43681e-09
4.40152e-11
9.41335e-09
4.70358e-11
9.38793e-09
5.09793e-11
9.35992e-09
5.6216e-11
9.32842e-09
6.33117e-11
9.29206e-09
7.31679e-11
9.24879e-09
8.73085e-11
9.19523e-09
1.08513e-10
9.1255e-09
1.42391e-10
9.02847e-09
2.01894e-10
8.88247e-09
3.22316e-10
6.16523e-10
8.66702e-09
2.13223e-10
-6.36056e-10
4.2775e-10
-6.39957e-10
6.43422e-10
-6.43383e-10
8.60069e-10
-6.46307e-10
1.07752e-09
-6.48711e-10
1.29558e-09
-6.50572e-10
1.51407e-09
-6.51871e-10
1.73278e-09
-6.52589e-10
1.95152e-09
-6.52707e-10
2.17007e-09
-6.5221e-10
2.38822e-09
-6.51084e-10
2.60574e-09
-6.49317e-10
2.82243e-09
-6.46901e-10
3.03805e-09
-6.43832e-10
3.25237e-09
-6.40108e-10
3.46519e-09
-6.3573e-10
3.67626e-09
-6.30707e-10
3.88539e-09
-6.25046e-10
4.09235e-09
-6.18764e-10
4.29695e-09
-6.11876e-10
4.49897e-09
-6.04405e-10
4.69825e-09
-5.96374e-10
4.89459e-09
-5.87812e-10
5.08784e-09
-5.78747e-10
5.27783e-09
-5.69212e-10
5.46442e-09
-5.5924e-10
5.64747e-09
-5.48866e-10
5.82688e-09
-5.38127e-10
6.00253e-09
-5.27059e-10
6.17433e-09
-5.15698e-10
6.3422e-09
-5.04082e-10
6.50606e-09
-4.92246e-10
6.66587e-09
-4.80226e-10
6.82157e-09
-4.68057e-10
6.97314e-09
-4.55772e-10
7.12054e-09
-4.43403e-10
7.26377e-09
-4.30982e-10
7.40282e-09
-4.18537e-10
7.53769e-09
-4.06096e-10
7.66841e-09
-3.93685e-10
7.795e-09
-3.81329e-10
7.91747e-09
-3.6905e-10
8.03587e-09
-3.56869e-10
8.15025e-09
-3.44806e-10
8.26064e-09
-3.32877e-10
8.36711e-09
-3.211e-10
8.4697e-09
-3.09488e-10
8.56849e-09
-2.98054e-10
8.66353e-09
-2.86811e-10
8.75489e-09
-2.75769e-10
8.84265e-09
-2.64936e-10
8.92688e-09
-2.5432e-10
9.00766e-09
-2.43929e-10
9.08506e-09
-2.33767e-10
9.15917e-09
-2.23839e-10
9.23005e-09
-2.14149e-10
9.2978e-09
-2.047e-10
9.36249e-09
-1.95493e-10
9.42421e-09
-1.8653e-10
9.48304e-09
-1.77812e-10
9.53906e-09
-1.69338e-10
9.59234e-09
-1.61107e-10
9.64298e-09
-1.5312e-10
9.69105e-09
-1.45373e-10
9.73664e-09
-1.37864e-10
9.77981e-09
-1.30592e-10
9.82065e-09
-1.23554e-10
9.85923e-09
-1.16745e-10
9.89564e-09
-1.10163e-10
9.92993e-09
-1.03804e-10
9.9622e-09
-9.76646e-11
9.9925e-09
-9.17395e-11
1.00209e-08
-8.60248e-11
1.00475e-08
-8.05163e-11
1.00723e-08
-7.52091e-11
1.00955e-08
-7.00986e-11
1.0117e-08
-6.518e-11
1.01369e-08
-6.04484e-11
1.01553e-08
-5.5899e-11
1.01723e-08
-5.15266e-11
1.01879e-08
-4.73264e-11
1.02022e-08
-4.32934e-11
1.02152e-08
-3.94227e-11
1.02269e-08
-3.57092e-11
1.02375e-08
-3.21481e-11
1.02469e-08
-2.87343e-11
1.02553e-08
-2.54631e-11
1.02626e-08
-2.23297e-11
1.02689e-08
-1.93292e-11
1.02743e-08
-1.64572e-11
1.02788e-08
-1.37088e-11
1.02824e-08
-1.10796e-11
1.02851e-08
-8.56512e-12
1.02871e-08
-6.16088e-12
1.02883e-08
-3.86277e-12
1.02888e-08
-1.66652e-12
1.02886e-08
4.31969e-13
1.02877e-08
2.43679e-12
1.02862e-08
4.35163e-12
1.02841e-08
6.1806e-12
1.02814e-08
7.92718e-12
1.02781e-08
9.59508e-12
1.02743e-08
1.11878e-11
1.027e-08
1.27087e-11
1.02653e-08
1.41611e-11
1.02601e-08
1.55482e-11
1.02544e-08
1.68732e-11
1.02483e-08
1.81391e-11
1.02418e-08
1.93486e-11
1.0235e-08
2.05045e-11
1.02277e-08
2.16099e-11
1.02202e-08
2.2667e-11
1.02122e-08
2.36784e-11
1.0204e-08
2.46467e-11
1.01955e-08
2.55741e-11
1.01866e-08
2.64628e-11
1.01775e-08
2.73149e-11
1.01681e-08
2.81327e-11
1.01584e-08
2.89179e-11
1.01485e-08
2.96726e-11
1.01384e-08
3.03986e-11
1.0128e-08
3.10976e-11
1.01174e-08
3.1771e-11
1.01066e-08
3.2421e-11
1.00956e-08
3.30485e-11
1.00843e-08
3.36553e-11
1.00729e-08
3.42428e-11
1.00613e-08
3.4812e-11
1.00495e-08
3.53645e-11
1.00375e-08
3.59015e-11
1.00254e-08
3.64238e-11
1.00131e-08
3.69329e-11
1.00006e-08
3.74297e-11
9.98795e-09
3.79151e-11
9.97515e-09
3.839e-11
9.9622e-09
3.88556e-11
9.94909e-09
3.93126e-11
9.93583e-09
3.97621e-11
9.92243e-09
4.02045e-11
9.90888e-09
4.06409e-11
9.89519e-09
4.10721e-11
9.88135e-09
4.1499e-11
9.86737e-09
4.19223e-11
9.85326e-09
4.23428e-11
9.839e-09
4.27617e-11
9.82461e-09
4.31796e-11
9.81008e-09
4.35978e-11
9.7954e-09
4.40177e-11
9.78059e-09
4.44405e-11
9.76563e-09
4.48678e-11
9.75053e-09
4.53017e-11
9.73529e-09
4.57443e-11
9.71989e-09
4.61989e-11
9.70434e-09
4.66687e-11
9.68862e-09
4.71583e-11
9.67273e-09
4.76733e-11
9.65667e-09
4.82206e-11
9.6404e-09
4.88094e-11
9.62393e-09
4.94509e-11
9.60722e-09
5.01599e-11
9.59025e-09
5.09554e-11
9.57299e-09
5.18618e-11
9.55537e-09
5.29114e-11
9.53736e-09
5.41458e-11
9.51886e-09
5.56206e-11
9.49978e-09
5.7409e-11
9.47998e-09
5.96099e-11
9.45929e-09
6.2357e-11
9.43747e-09
6.58339e-11
9.41421e-09
7.02978e-11
9.38907e-09
7.61152e-11
9.36147e-09
8.3823e-11
9.33054e-09
9.42331e-11
9.29509e-09
1.08625e-10
9.25327e-09
1.29124e-10
9.20229e-09
1.59492e-10
9.13772e-09
2.0696e-10
9.05283e-09
2.86792e-10
8.94091e-09
4.34227e-10
7.31882e-10
8.82556e-09
2.15404e-10
-8.51459e-10
4.32119e-10
-8.56673e-10
6.49985e-10
-8.61248e-10
8.68829e-10
-8.65152e-10
1.08847e-09
-8.68354e-10
1.30873e-09
-8.70825e-10
1.52939e-09
-8.72538e-10
1.75027e-09
-8.73463e-10
1.97114e-09
-8.73578e-10
2.19178e-09
-8.72857e-10
2.41198e-09
-8.71282e-10
2.6315e-09
-8.68836e-10
2.85011e-09
-8.65508e-10
3.06757e-09
-8.61291e-10
3.28364e-09
-8.56184e-10
3.4981e-09
-8.50189e-10
3.71071e-09
-8.43318e-10
3.92125e-09
-8.35585e-10
4.1295e-09
-8.2701e-10
4.33524e-09
-8.17619e-10
4.53828e-09
-8.07443e-10
4.73842e-09
-7.96517e-10
4.93549e-09
-7.84879e-10
5.12931e-09
-7.72571e-10
5.31974e-09
-7.59639e-10
5.50663e-09
-7.46128e-10
5.68985e-09
-7.32088e-10
5.86929e-09
-7.17569e-10
6.04485e-09
-7.0262e-10
6.21645e-09
-6.87292e-10
6.384e-09
-6.71634e-10
6.54745e-09
-6.55695e-10
6.70674e-09
-6.39524e-10
6.86185e-09
-6.23166e-10
7.01275e-09
-6.06666e-10
7.15941e-09
-5.90068e-10
7.30184e-09
-5.73412e-10
7.44004e-09
-5.56736e-10
7.57402e-09
-5.40078e-10
7.70381e-09
-5.23471e-10
7.82943e-09
-5.06947e-10
7.95091e-09
-4.90536e-10
8.06831e-09
-4.74265e-10
8.18166e-09
-4.58159e-10
8.29103e-09
-4.42241e-10
8.39646e-09
-4.26532e-10
8.49802e-09
-4.1105e-10
8.59578e-09
-3.95812e-10
8.6898e-09
-3.80833e-10
8.78016e-09
-3.66126e-10
8.86693e-09
-3.51703e-10
8.95018e-09
-3.37574e-10
9.03e-09
-3.23746e-10
9.10646e-09
-3.10227e-10
9.17964e-09
-2.97023e-10
9.24963e-09
-2.84138e-10
9.31651e-09
-2.71575e-10
9.38035e-09
-2.59337e-10
9.44125e-09
-2.47426e-10
9.49928e-09
-2.3584e-10
9.55452e-09
-2.24582e-10
9.60706e-09
-2.13648e-10
9.65698e-09
-2.03038e-10
9.70435e-09
-1.92749e-10
9.74927e-09
-1.82778e-10
9.7918e-09
-1.73121e-10
9.83202e-09
-1.63776e-10
9.87001e-09
-1.54736e-10
9.90585e-09
-1.45998e-10
9.9396e-09
-1.37557e-10
9.97134e-09
-1.29407e-10
1.00011e-08
-1.21542e-10
1.00291e-08
-1.13957e-10
1.00552e-08
-1.06646e-10
1.00796e-08
-9.96024e-11
1.01023e-08
-9.28199e-11
1.01234e-08
-8.62926e-11
1.0143e-08
-8.00133e-11
1.01611e-08
-7.3976e-11
1.01777e-08
-6.81737e-11
1.0193e-08
-6.26002e-11
1.02069e-08
-5.72484e-11
1.02196e-08
-5.2112e-11
1.02311e-08
-4.71844e-11
1.02414e-08
-4.24587e-11
1.02506e-08
-3.79289e-11
1.02587e-08
-3.3588e-11
1.02658e-08
-2.94301e-11
1.0272e-08
-2.54485e-11
1.02771e-08
-2.16372e-11
1.02814e-08
-1.79901e-11
1.02848e-08
-1.4501e-11
1.02874e-08
-1.1164e-11
1.02893e-08
-7.97341e-12
1.02903e-08
-4.92362e-12
1.02907e-08
-2.00884e-12
1.02903e-08
7.7638e-13
1.02893e-08
3.43722e-12
1.02877e-08
5.97877e-12
1.02855e-08
8.40645e-12
1.02827e-08
1.07248e-11
1.02793e-08
1.29388e-11
1.02755e-08
1.50532e-11
1.02711e-08
1.70722e-11
1.02663e-08
1.90005e-11
1.0261e-08
2.08422e-11
1.02552e-08
2.26015e-11
1.02491e-08
2.42822e-11
1.02425e-08
2.58884e-11
1.02356e-08
2.74237e-11
1.02283e-08
2.88915e-11
1.02207e-08
3.02956e-11
1.02128e-08
3.16392e-11
1.02045e-08
3.29253e-11
1.01959e-08
3.41573e-11
1.0187e-08
3.53381e-11
1.01779e-08
3.64703e-11
1.01684e-08
3.75569e-11
1.01588e-08
3.86006e-11
1.01488e-08
3.96036e-11
1.01387e-08
4.05684e-11
1.01283e-08
4.14977e-11
1.01176e-08
4.23931e-11
1.01068e-08
4.32571e-11
1.00958e-08
4.40917e-11
1.00845e-08
4.48985e-11
1.00731e-08
4.56799e-11
1.00615e-08
4.64371e-11
1.00496e-08
4.71721e-11
1.00377e-08
4.78863e-11
1.00255e-08
4.85814e-11
1.00132e-08
4.92588e-11
1.00007e-08
4.99198e-11
9.98803e-09
5.05659e-11