/*--------------------------------*- C++ -*----------------------------------*\
  =========                 |
  \\      /  F ield         | OpenFOAM: The Open Source CFD Toolbox
   \\    /   O peration     | Website:  https://openfoam.org
    \\  /    A nd           | Version:  10
     \\/     M anipulation  |
\*---------------------------------------------------------------------------*/
FoamFile
{
    format      ascii;
    class       volVectorField;
    location    "0.65";
    object      Ua;
}
// * * * * * * * * * * * * * * * * * * * * * * * * * * * * * * * * * * * * * //

dimensions      [0 1 -1 0 0 0 0];

internalField   nonuniform List<vector> 
12225
(
(7.33759e-05 -9.15969e-06 0)
(0.000214724 -8.5652e-06 0)
(0.00034345 -7.4755e-06 0)
(0.00045767 -6.24176e-06 0)
(0.000558257 -5.09843e-06 0)
(0.000647446 -4.15986e-06 0)
(0.000727839 -3.46263e-06 0)
(0.000801894 -3.00689e-06 0)
(0.000871759 -2.78465e-06 0)
(0.000939314 -2.79768e-06 0)
(0.0010063 -3.07173e-06 0)
(0.00107456 -3.67537e-06 0)
(0.00114634 -4.75687e-06 0)
(0.00122498 -6.63331e-06 0)
(0.00131638 -1.00425e-05 0)
(0.00143317 -1.70201e-05 0)
(0.00161087 -3.49614e-05 0)
(0.00199652 -0.000102983 0)
(4.89921e-05 -2.40029e-05 0)
(0.000144237 -2.25893e-05 0)
(0.000232787 -1.98553e-05 0)
(0.000313141 -1.66966e-05 0)
(0.000385362 -1.37317e-05 0)
(0.000450447 -1.12765e-05 0)
(0.000509775 -9.44402e-06 0)
(0.000564783 -8.24836e-06 0)
(0.000616822 -7.67896e-06 0)
(0.000667157 -7.74951e-06 0)
(0.000717027 -8.53783e-06 0)
(0.000767787 -1.02381e-05 0)
(0.00082114 -1.32622e-05 0)
(0.000879554 -1.84774e-05 0)
(0.000947149 -2.78559e-05 0)
(0.00103165 -4.65772e-05 0)
(0.00114754 -9.14548e-05 0)
(0.00129565 -0.000233464 0)
(3.86174e-05 -3.3531e-05 0)
(0.000114403 -3.18513e-05 0)
(0.000186395 -2.82716e-05 0)
(0.000253343 -2.39978e-05 0)
(0.000314975 -1.99053e-05 0)
(0.000371716 -1.64708e-05 0)
(0.000424359 -1.38881e-05 0)
(0.000473836 -1.22061e-05 0)
(0.000521098 -1.14322e-05 0)
(0.000567092 -1.1605e-05 0)
(0.000612789 -1.28547e-05 0)
(0.000659274 -1.54815e-05 0)
(0.000707896 -2.01023e-05 0)
(0.000760503 -2.79786e-05 0)
(0.000819815 -4.18499e-05 0)
(0.00088958 -6.82934e-05 0)
(0.000971281 -0.000125027 0)
(0.00103495 -0.000262457 0)
(3.1851e-05 -4.00144e-05 0)
(9.49162e-05 -3.83749e-05 0)
(0.000156032 -3.43915e-05 0)
(0.000214152 -2.94553e-05 0)
(0.000268839 -2.46272e-05 0)
(0.000320181 -2.05188e-05 0)
(0.000368601 -1.74059e-05 0)
(0.000414699 -1.53825e-05 0)
(0.000459148 -1.44854e-05 0)
(0.000502661 -1.47844e-05 0)
(0.000546 -1.64595e-05 0)
(0.000590017 -1.9898e-05 0)
(0.00063573 -2.58661e-05 0)
(0.000684393 -3.58679e-05 0)
(0.000737434 -5.29624e-05 0)
(0.000795532 -8.36947e-05 0)
(0.000853742 -0.000142353 0)
(0.000882695 -0.000256029 0)
(2.68601e-05 -4.42423e-05 0)
(8.05008e-05 -4.28513e-05 0)
(0.00013347 -3.87691e-05 0)
(0.000184893 -3.34905e-05 0)
(0.000234259 -2.82106e-05 0)
(0.000281446 -2.36544e-05 0)
(0.000326626 -2.01765e-05 0)
(0.000370157 -1.79211e-05 0)
(0.000412499 -1.69603e-05 0)
(0.000454177 -1.7397e-05 0)
(0.000495765 -1.94544e-05 0)
(0.000537901 -2.35826e-05 0)
(0.000581285 -3.06341e-05 0)
(0.000626619 -4.21967e-05 0)
(0.000674265 -6.12489e-05 0)
(0.000722958 -9.33684e-05 0)
(0.000765766 -0.000148233 0)
(0.000781251 -0.000237168 0)
(2.29499e-05 -4.66277e-05 0)
(6.91674e-05 -4.56357e-05 0)
(0.000115632 -4.16791e-05 0)
(0.000161619 -3.63017e-05 0)
(0.000206597 -3.07935e-05 0)
(0.000250316 -2.5973e-05 0)
(0.000292775 -2.22668e-05 0)
(0.000334148 -1.98705e-05 0)
(0.000374723 -1.88931e-05 0)
(0.000414862 -1.94695e-05 0)
(0.000454971 -2.18554e-05 0)
(0.000495484 -2.65357e-05 0)
(0.000536809 -3.43831e-05 0)
(0.000579175 -4.69246e-05 0)
(0.000622186 -6.67675e-05 0)
(0.000663636 -9.81162e-05 0)
(0.000696977 -0.000146583 0)
(0.000708415 -0.000214987 0)
(1.97758e-05 -4.74295e-05 0)
(5.99327e-05 -4.69453e-05 0)
(0.000101006 -4.3281e-05 0)
(0.000142402 -3.79943e-05 0)
(0.000183605 -3.244e-05 0)
(0.000224295 -2.751e-05 0)
(0.000264348 -2.36944e-05 0)
(0.0003038 -2.12367e-05 0)
(0.000342796 -2.02817e-05 0)
(0.000381554 -2.09916e-05 0)
(0.000420327 -2.36422e-05 0)
(0.000459361 -2.8723e-05 0)
(0.000498808 -3.70667e-05 0)
(0.000538539 -5.00279e-05 0)
(0.000577707 -6.96861e-05 0)
(0.000613893 -9.88715e-05 0)
(0.000641856 -0.000140276 0)
(0.000653362 -0.000192956 0)
(1.71396e-05 -4.68334e-05 0)
(5.22316e-05 -4.69313e-05 0)
(8.87267e-05 -4.36786e-05 0)
(0.000126144 -3.86289e-05 0)
(0.000164011 -3.31778e-05 0)
(0.000201979 -2.82716e-05 0)
(0.000239842 -2.44516e-05 0)
(0.000277526 -2.20036e-05 0)
(0.000315059 -2.11039e-05 0)
(0.00035253 -2.19352e-05 0)
(0.000390056 -2.47791e-05 0)
(0.000427717 -3.01024e-05 0)
(0.000465461 -3.86491e-05 0)
(0.000502913 -5.15341e-05 0)
(0.00053904 -7.02745e-05 0)
(0.000571631 -9.65538e-05 0)
(0.000596883 -0.000131256 0)
(0.000610132 -0.000172223 0)
(1.49153e-05 -4.49904e-05 0)
(4.57047e-05 -4.57122e-05 0)
(7.82437e-05 -4.29473e-05 0)
(0.000112152 -3.82426e-05 0)
(0.000147022 -3.30159e-05 0)
(0.000182501 -2.82481e-05 0)
(0.000218333 -2.45177e-05 0)
(0.00025436 -2.21439e-05 0)
(0.00029051 -2.13277e-05 0)
(0.000326764 -2.22642e-05 0)
(0.000363114 -2.52273e-05 0)
(0.000399504 -3.06381e-05 0)
(0.00043573 -3.91207e-05 0)
(0.000471284 -5.15268e-05 0)
(0.000505124 -6.88619e-05 0)
(0.000535433 -9.19696e-05 0)
(0.000559626 -0.000120765 0)
(0.000575168 -0.000153026 0)
(1.30161e-05 -4.20385e-05 0)
(4.01037e-05 -4.33913e-05 0)
(6.91778e-05 -4.11491e-05 0)
(9.9953e-05 -3.68618e-05 0)
(0.000132096 -3.1955e-05 0)
(0.000165278 -2.74235e-05 0)
(0.00019921 -2.38667e-05 0)
(0.000233673 -2.16257e-05 0)
(0.000268509 -2.0918e-05 0)
(0.000303605 -2.19422e-05 0)
(0.00033885 -2.49527e-05 0)
(0.00037408 -3.03092e-05 0)
(0.00040899 -3.85025e-05 0)
(0.000443023 -5.01325e-05 0)
(0.000475235 -6.57907e-05 0)
(0.000504231 -8.57692e-05 0)
(0.000528333 -0.000109553 0)
(0.000546215 -0.000135267 0)
(1.13774e-05 -3.81175e-05 0)
(3.52428e-05 -4.00679e-05 0)
(6.12451e-05 -3.83408e-05 0)
(8.91934e-05 -3.451e-05 0)
(0.000118841 -2.99944e-05 0)
(0.000149892 -2.57814e-05 0)
(0.000182045 -2.24726e-05 0)
(0.000215029 -2.04176e-05 0)
(0.000248619 -1.98409e-05 0)
(0.00028262 -2.09365e-05 0)
(0.000316838 -2.39296e-05 0)
(0.000351027 -2.91113e-05 0)
(0.000384827 -3.68408e-05 0)
(0.000417686 -4.75012e-05 0)
(0.000448806 -6.13788e-05 0)
(0.000477162 -7.84433e-05 0)
(0.000501703 -9.80537e-05 0)
(0.000521762 -0.000118757 0)
(9.82774e-06 -3.37457e-05 0)
(3.06637e-05 -3.61905e-05 0)
(5.38178e-05 -3.49107e-05 0)
(7.91837e-05 -3.1519e-05 0)
(0.000106575 -2.7414e-05 0)
(0.000135712 -2.35565e-05 0)
(0.000166271 -2.05342e-05 0)
(0.000197938 -1.86933e-05 0)
(0.000230428 -1.8257e-05 0)
(0.000263482 -1.94086e-05 0)
(0.000296846 -2.23427e-05 0)
(0.000330222 -2.72862e-05 0)
(0.000363228 -3.44888e-05 0)
(0.000395352 -4.41718e-05 0)
(0.000425935 -5.64259e-05 0)
(0.000454227 -7.10602e-05 0)
(0.000479545 -8.7447e-05 0)
(0.000501539 -0.000104479 0)
(8.80262e-06 -2.88464e-05 0)
(2.75665e-05 -3.16606e-05 0)
(4.86519e-05 -3.07501e-05 0)
(7.20512e-05 -2.77794e-05 0)
(9.76596e-05 -2.41069e-05 0)
(0.000125237 -2.06463e-05 0)
(0.000154464 -1.7954e-05 0)
(0.000185004 -1.63607e-05 0)
(0.000216536 -1.60795e-05 0)
(0.000248754 -1.72783e-05 0)
(0.000281355 -2.01195e-05 0)
(0.00031401 -2.47718e-05 0)
(0.000346329 -3.13951e-05 0)
(0.000377849 -4.00939e-05 0)
(0.000408038 -5.08394e-05 0)
(0.000436353 -6.33738e-05 0)
(0.000462357 -7.71379e-05 0)
(0.000485877 -9.12882e-05 0)
(7.76212e-06 -2.2899e-05 0)
(2.43752e-05 -2.58911e-05 0)
(4.32675e-05 -2.52551e-05 0)
(6.45926e-05 -2.27113e-05 0)
(8.83331e-05 -1.95347e-05 0)
(0.000114277 -1.65562e-05 0)
(0.000142105 -1.42779e-05 0)
(0.000171456 -1.29965e-05 0)
(0.000201963 -1.29043e-05 0)
(0.000233276 -1.41477e-05 0)
(0.000265052 -1.68525e-05 0)
(0.000296943 -2.11297e-05 0)
(0.000328587 -2.70594e-05 0)
(0.000359591 -3.46547e-05 0)
(0.00038955 -4.38103e-05 0)
(0.000418085 -5.42522e-05 0)
(0.00044493 -6.55161e-05 0)
(0.000470005 -7.6984e-05 0)
(6.65228e-06 -1.59908e-05 0)
(2.09364e-05 -1.87076e-05 0)
(3.74654e-05 -1.81502e-05 0)
(5.66441e-05 -1.60155e-05 0)
(7.85082e-05 -1.3399e-05 0)
(0.000102815 -1.09841e-05 0)
(0.000129226 -9.20286e-06 0)
(0.00015734 -8.30524e-06 0)
(0.00018673 -8.44799e-06 0)
(0.00021701 -9.74506e-06 0)
(0.000247854 -1.2283e-05 0)
(0.000278961 -1.6121e-05 0)
(0.000310022 -2.12775e-05 0)
(0.000340708 -2.7705e-05 0)
(0.000370695 -3.52626e-05 0)
(0.000399707 -4.36959e-05 0)
(0.000427564 -5.26404e-05 0)
(0.000454224 -6.16568e-05 0)
(5.23265e-06 -8.33555e-06 0)
(1.66397e-05 -9.9194e-06 0)
(3.05083e-05 -9.16965e-06 0)
(4.75602e-05 -7.44094e-06 0)
(6.7723e-05 -5.50952e-06 0)
(9.04165e-05 -3.7924e-06 0)
(0.000115124 -2.55249e-06 0)
(0.000141615 -2.10226e-06 0)
(0.000169684 -2.53993e-06 0)
(0.000199031 -3.91103e-06 0)
(0.000229289 -6.24288e-06 0)
(0.000260073 -9.59165e-06 0)
(0.000291026 -1.39337e-05 0)
(0.000321827 -1.91887e-05 0)
(0.000352204 -2.52105e-05 0)
(0.000381952 -3.17825e-05 0)
(0.000410953 -3.86299e-05 0)
(0.000439186 -4.54466e-05 0)
(2.62648e-06 5.82291e-08 0)
(9.16748e-06 7.5566e-07 0)
(1.91178e-05 1.80884e-06 0)
(3.32453e-05 3.04075e-06 0)
(5.12599e-05 4.25511e-06 0)
(7.2705e-05 5.25985e-06 0)
(9.70044e-05 5.88594e-06 0)
(0.0001235 5.86521e-06 0)
(0.000151645 5.13169e-06 0)
(0.000181016 3.67219e-06 0)
(0.000211261 1.49458e-06 0)
(0.00024207 -1.42184e-06 0)
(0.000273158 -5.02841e-06 0)
(0.000304285 -9.3013e-06 0)
(0.000335255 -1.40166e-05 0)
(0.000365914 -1.89991e-05 0)
(0.000396169 -2.40478e-05 0)
(0.000425996 -2.89537e-05 0)
(6.13703e-06 1.0069e-05 0)
(1.87723e-05 1.36995e-05 0)
(3.26469e-05 1.55367e-05 0)
(4.85863e-05 1.64942e-05 0)
(6.70127e-05 1.70119e-05 0)
(8.79846e-05 1.71715e-05 0)
(0.000111294 1.69166e-05 0)
(0.000136605 1.6191e-05 0)
(0.000163558 1.49639e-05 0)
(0.000191807 1.32285e-05 0)
(0.00022103 1.10028e-05 0)
(0.00025094 8.32976e-06 0)
(0.000281288 5.27353e-06 0)
(0.000311855 1.8569e-06 0)
(0.000342471 -1.71616e-06 0)
(0.000373025 -5.31227e-06 0)
(0.000403458 -8.82365e-06 0)
(0.00043377 -1.21293e-05 0)
(8.47724e-06 2.37656e-05 0)
(2.60091e-05 2.9295e-05 0)
(4.4747e-05 3.20565e-05 0)
(6.48552e-05 3.29936e-05 0)
(8.65259e-05 3.2819e-05 0)
(0.000109844 3.19416e-05 0)
(0.000134755 3.05731e-05 0)
(0.000161107 2.88263e-05 0)
(0.00018869 2.67694e-05 0)
(0.000217277 2.44551e-05 0)
(0.000246645 2.19352e-05 0)
(0.00027659 1.92695e-05 0)
(0.000306936 1.65291e-05 0)
(0.000337539 1.37965e-05 0)
(0.000368292 1.11632e-05 0)
(0.000399125 8.72675e-06 0)
(0.000430008 6.55229e-06 0)
(0.000460945 4.71672e-06 0)
(9.56505e-06 3.85878e-05 0)
(2.95627e-05 4.41102e-05 0)
(5.11796e-05 4.68333e-05 0)
(7.42592e-05 4.73978e-05 0)
(9.87344e-05 4.6503e-05 0)
(0.000124534 4.46866e-05 0)
(0.000151544 4.23141e-05 0)
(0.00017961 3.96231e-05 0)
(0.000208558 3.67681e-05 0)
(0.00023821 3.38552e-05 0)
(0.000268401 3.09655e-05 0)
(0.000298987 2.81693e-05 0)
(0.000329851 2.55349e-05 0)
(0.00036091 2.31319e-05 0)
(0.000392111 2.10324e-05 0)
(0.000423432 1.93102e-05 0)
(0.000454887 1.80395e-05 0)
(0.000486519 1.72919e-05 0)
(1.1265e-05 5.08144e-05 0)
(3.46434e-05 5.53259e-05 0)
(5.95951e-05 5.72308e-05 0)
(8.58959e-05 5.69991e-05 0)
(0.000113364 5.52738e-05 0)
(0.000141839 5.26152e-05 0)
(0.000171161 4.94402e-05 0)
(0.00020117 4.60367e-05 0)
(0.000231712 4.25963e-05 0)
(0.000262647 3.92474e-05 0)
(0.000293855 3.60802e-05 0)
(0.000325246 3.31643e-05 0)
(0.000356758 3.05596e-05 0)
(0.000388359 2.83229e-05 0)
(0.000420046 2.65106e-05 0)
(0.000451846 2.51801e-05 0)
(0.000483817 2.43899e-05 0)
(0.000516042 2.41988e-05 0)
(1.3332e-05 6.02334e-05 0)
(4.07246e-05 6.3543e-05 0)
(6.94662e-05 6.43984e-05 0)
(9.93209e-05 6.32308e-05 0)
(0.000130045 6.06538e-05 0)
(0.000161419 5.72269e-05 0)
(0.000193253 5.33817e-05 0)
(0.000225381 4.94217e-05 0)
(0.000257669 4.55488e-05 0)
(0.000290011 4.18945e-05 0)
(0.000322334 3.85453e-05 0)
(0.000354599 3.5562e-05 0)
(0.000386795 3.29923e-05 0)
(0.000418943 3.08787e-05 0)
(0.000451092 2.9263e-05 0)
(0.000483316 2.81883e-05 0)
(0.000515717 2.77011e-05 0)
(0.000548424 2.78511e-05 0)
(1.58086e-05 6.6353e-05 0)
(4.79746e-05 6.85105e-05 0)
(8.11301e-05 6.83204e-05 0)
(0.000115022 6.62494e-05 0)
(0.00014937 6.29075e-05 0)
(0.00018392 5.88482e-05 0)
(0.00021847 5.44982e-05 0)
(0.000252865 5.01556e-05 0)
(0.000286998 4.60149e-05 0)
(0.000320807 4.21973e-05 0)
(0.000354268 3.87771e-05 0)
(0.000387395 3.58009e-05 0)
(0.000420234 3.33018e-05 0)
(0.000452858 3.13073e-05 0)
(0.000485367 2.9845e-05 0)
(0.000517885 2.89452e-05 0)
(0.000550562 2.86432e-05 0)
(0.000583573 2.89809e-05 0)
(1.8757e-05 6.90369e-05 0)
(5.65883e-05 7.01854e-05 0)
(9.4924e-05 6.9085e-05 0)
(0.00013347 6.62604e-05 0)
(0.000171913 6.23279e-05 0)
(0.00020999 5.78294e-05 0)
(0.000247505 5.31743e-05 0)
(0.000284333 4.86418e-05 0)
(0.000320411 4.44079e-05 0)
(0.000355731 4.05757e-05 0)
(0.000390331 3.72021e-05 0)
(0.000424282 3.43177e-05 0)
(0.000457691 3.194e-05 0)
(0.000490685 3.00822e-05 0)
(0.000523419 2.87583e-05 0)
(0.000556067 2.79867e-05 0)
(0.000588826 2.77918e-05 0)
(0.000621917 2.82062e-05 0)
(2.22784e-05 6.83264e-05 0)
(6.68635e-05 6.8648e-05 0)
(0.000111327 6.68453e-05 0)
(0.000155305 6.34921e-05 0)
(0.000198454 5.92046e-05 0)
(0.000240516 5.4503e-05 0)
(0.000281328 4.97685e-05 0)
(0.000320816 4.52525e-05 0)
(0.000358984 4.11056e-05 0)
(0.000395893 3.7409e-05 0)
(0.000431652 3.42011e-05 0)
(0.000466402 3.14962e-05 0)
(0.000500312 2.92976e-05 0)
(0.000533573 2.76059e-05 0)
(0.000566393 2.64234e-05 0)
(0.000598995 2.57575e-05 0)
(0.000631623 2.56224e-05 0)
(0.000664544 2.60401e-05 0)
(2.65451e-05 6.43239e-05 0)
(7.92999e-05 6.402e-05 0)
(0.000131133 6.17662e-05 0)
(0.000181577 5.81581e-05 0)
(0.000230262 5.37924e-05 0)
(0.000276954 4.91531e-05 0)
(0.00032155 4.45826e-05 0)
(0.000364056 4.02973e-05 0)
(0.000404564 3.64192e-05 0)
(0.000443227 3.30071e-05 0)
(0.000480237 3.00817e-05 0)
(0.000515816 2.76433e-05 0)
(0.000550206 2.56839e-05 0)
(0.000583662 2.4194e-05 0)
(0.000616448 2.31668e-05 0)
(0.000648841 2.26011e-05 0)
(0.000681131 2.25018e-05 0)
(0.000713625 2.28813e-05 0)
(3.1877e-05 5.71015e-05 0)
(9.48268e-05 5.63869e-05 0)
(0.000155817 5.39637e-05 0)
(0.000214244 5.04095e-05 0)
(0.000269713 4.62732e-05 0)
(0.00032204 4.19838e-05 0)
(0.000371217 3.78336e-05 0)
(0.000417364 3.39991e-05 0)
(0.000460692 3.05726e-05 0)
(0.000501464 2.7592e-05 0)
(0.00053998 2.50635e-05 0)
(0.000576552 2.29771e-05 0)
(0.000611504 2.13172e-05 0)
(0.000645161 2.0068e-05 0)
(0.00067785 1.92169e-05 0)
(0.000709901 1.87565e-05 0)
(0.00074165 1.86853e-05 0)
(0.000773447 1.90071e-05 0)
(3.89758e-05 4.65915e-05 0)
(0.00011549 4.5698e-05 0)
(0.000188644 4.34181e-05 0)
(0.000257656 4.02624e-05 0)
(0.000322113 3.66958e-05 0)
(0.000381919 3.30692e-05 0)
(0.000437206 2.96132e-05 0)
(0.000488254 2.64604e-05 0)
(0.00053543 2.36741e-05 0)
(0.000579143 2.1275e-05 0)
(0.000619817 1.9259e-05 0)
(0.000657875 1.76111e-05 0)
(0.000693733 1.63123e-05 0)
(0.000727795 1.5345e-05 0)
(0.000760456 1.46946e-05 0)
(0.000792105 1.4351e-05 0)
(0.000823129 1.43088e-05 0)
(0.00085392 1.45662e-05 0)
(5.00108e-05 3.2359e-05 0)
(0.000147639 3.15498e-05 0)
(0.000239804 2.97794e-05 0)
(0.000325484 2.74277e-05 0)
(0.000404262 2.48295e-05 0)
(0.000476186 2.22295e-05 0)
(0.000541601 1.97831e-05 0)
(0.000601016 1.7575e-05 0)
(0.000655015 1.56421e-05 0)
(0.000704193 1.39921e-05 0)
(0.000749131 1.26172e-05 0)
(0.000790384 1.15029e-05 0)
(0.000828474 1.06329e-05 0)
(0.000863897 9.99238e-06 0)
(0.000897126 9.56921e-06 0)
(0.000928617 9.35452e-06 0)
(0.000958818 9.34261e-06 0)
(0.000988174 9.5296e-06 0)
(8.43958e-05 1.21363e-05 0)
(0.000248557 1.17888e-05 0)
(0.000402469 1.10815e-05 0)
(0.000544754 1.01631e-05 0)
(0.000675079 9.16149e-06 0)
(0.000793828 8.16873e-06 0)
(0.000901789 7.2417e-06 0)
(0.000999911 6.41039e-06 0)
(0.00108915 5.68684e-06 0)
(0.00117041 5.07249e-06 0)
(0.00124446 4.56325e-06 0)
(0.00131198 4.15281e-06 0)
(0.00137356 3.83448e-06 0)
(0.00142968 3.60224e-06 0)
(0.00148078 3.4512e-06 0)
(0.00152721 3.37775e-06 0)
(0.00156932 3.37947e-06 0)
(0.00160742 3.45442e-06 0)
(9.34568e-05 -0.00019976 -2.58073e-30)
(0.000281151 -0.000199523 2.57546e-30)
(0.000470089 -0.000199133 0)
(0.000660131 -0.000198586 0)
(0.00085113 -0.00019788 0)
(0.00104293 -0.000197013 -2.53402e-30)
(0.00123539 -0.000195981 0)
(0.00142832 -0.000194785 0)
(0.00162157 -0.000193422 0)
(0.00181496 -0.000191893 0)
(0.00200831 -0.000190197 2.43453e-30)
(0.00220144 -0.000188336 0)
(0.00239416 -0.00018631 0)
(0.00258628 -0.000184124 0)
(0.00277763 -0.000181779 0)
(0.00296799 -0.000179281 2.28212e-30)
(0.0031572 -0.000176635 0)
(0.00334506 -0.000173847 0)
(0.00353138 -0.000170924 0)
(0.00371599 -0.000167874 0)
(0.00389872 -0.000164705 0)
(0.00407938 -0.000161427 0)
(0.00425782 -0.000158049 0)
(0.00443389 -0.000154581 1.94558e-30)
(0.00460743 -0.000151034 -1.89768e-30)
(0.00477832 -0.000147419 1.84894e-30)
(0.00494641 -0.000143745 1.79947e-30)
(0.0051116 -0.000140024 0)
(0.00527376 -0.000136267 0)
(0.00543282 -0.000132483 -1.64817e-30)
(0.00558867 -0.000128683 -1.59722e-30)
(0.00574124 -0.000124877 0)
(0.00589047 -0.000121073 0)
(0.00603629 -0.000117282 -1.44457e-30)
(0.00617867 -0.00011351 0)
(0.00631755 -0.000109767 0)
(0.00645293 -0.000106059 1.29461e-30)
(0.00658477 -0.000102393 0)
(0.00671306 -9.87761e-05 1.1974e-30)
(0.00683782 -9.52128e-05 2.29976e-30)
(0.00695903 -9.17085e-05 0)
(0.00707672 -8.82679e-05 0)
(0.0071909 -8.48948e-05 0)
(0.0073016 -8.15928e-05 0)
(0.00740885 -7.83649e-05 0)
(0.00751268 -7.52135e-05 1.76685e-30)
(0.00761315 -7.21408e-05 1.68506e-30)
(0.00771029 -6.91484e-05 1.60541e-30)
(0.00780415 -6.62377e-05 0)
(0.00789479 -6.34095e-05 -1.45271e-30)
(0.00798227 -6.06646e-05 0)
(0.00806664 -5.80031e-05 1.3089e-30)
(0.00814796 -5.54251e-05 1.24034e-30)
(0.0082263 -5.29304e-05 0)
(0.00830173 -5.05185e-05 0)
(0.0083743 -4.81889e-05 0)
(0.0084441 -4.59405e-05 9.88175e-31)
(0.00851118 -4.37724e-05 0)
(0.00857563 -4.16834e-05 0)
(0.00863749 -3.96722e-05 0)
(0.00869686 -3.77375e-05 0)
(0.0087538 -3.58776e-05 0)
(0.00880837 -3.40911e-05 0)
(0.00886066 -3.23762e-05 0)
(0.00891072 -3.07313e-05 0)
(0.00895863 -2.91545e-05 -5.42119e-31)
(0.00900446 -2.76441e-05 0)
(0.00904828 -2.61981e-05 0)
(0.00909014 -2.48149e-05 4.26839e-31)
(0.00913013 -2.34924e-05 3.91706e-31)
(0.00916829 -2.22289e-05 0)
(0.0092047 -2.10224e-05 -3.261e-31)
(0.00923943 -1.9871e-05 2.95517e-31)
(0.00927252 -1.8773e-05 0)
(0.00930404 -1.77265e-05 -2.38557e-31)
(0.00933406 -1.67297e-05 0)
(0.00936262 -1.57807e-05 0)
(0.00938979 -1.48779e-05 1.62899e-31)
(0.00941561 -1.40194e-05 0)
(0.00944015 -1.32036e-05 -1.18429e-31)
(0.00946346 -1.24287e-05 0)
(0.00948558 -1.16933e-05 7.83139e-32)
(0.00950656 -1.09955e-05 5.97844e-32)
(0.00952646 -1.0334e-05 4.2215e-32)
(0.00954532 -9.70719e-06 5.11357e-32)
(0.00956318 -9.11355e-06 -1.95978e-32)
(0.00958009 -8.55168e-06 0)
(0.00959609 -8.02017e-06 0)
(0.00961123 -7.51767e-06 0)
(0.00962553 -7.04287e-06 9.03937e-32)
(0.00963904 -6.5945e-06 1.14214e-31)
(0.0096518 -6.17133e-06 -1.36693e-31)
(0.00966385 -5.77216e-06 0)
(0.0096752 -5.39586e-06 1.77887e-31)
(0.00968591 -5.04131e-06 1.96727e-31)
(0.009696 -4.70746e-06 2.14463e-31)
(0.0097055 -4.39327e-06 0)
(0.00971444 -4.09775e-06 0)
(0.00972285 -3.81997e-06 0)
(0.00973076 -3.559e-06 2.75478e-31)
(0.00973819 -3.31397e-06 0)
(0.00974516 -3.08405e-06 0)
(0.00975171 -2.86842e-06 -3.12165e-31)
(0.00975785 -2.66633e-06 0)
(0.00976361 -2.47703e-06 0)
(0.009769 -2.29981e-06 -3.42381e-31)
(0.00977405 -2.13402e-06 0)
(0.00977878 -1.97899e-06 0)
(0.0097832 -1.83414e-06 3.67126e-31)
(0.00978733 -1.69885e-06 3.74314e-31)
(0.00979119 -1.5726e-06 0)
(0.0097948 -1.45483e-06 -3.87285e-31)
(0.00979816 -1.34506e-06 0)
(0.0098013 -1.2428e-06 3.98552e-31)
(0.00980422 -1.1476e-06 0)
(0.00980694 -1.05902e-06 4.08322e-31)
(0.00980947 -9.76657e-07 4.12694e-31)
(0.00981183 -9.00127e-07 0)
(0.00981402 -8.29058e-07 0)
(0.00981605 -7.63105e-07 0)
(0.00981794 -7.01938e-07 0)
(0.0098197 -6.45246e-07 0)
(0.00982132 -5.92737e-07 0)
(0.00982283 -5.44132e-07 0)
(0.00982422 -4.99171e-07 4.38081e-31)
(0.00982551 -4.57607e-07 -4.40286e-31)
(0.00982671 -4.19207e-07 0)
(0.00982781 -3.83754e-07 0)
(0.00982883 -3.51041e-07 0)
(0.00982976 -3.20874e-07 0)
(0.00983063 -2.9307e-07 -8.98071e-31)
(0.00983143 -2.67458e-07 0)
(0.00983216 -2.43875e-07 9.03304e-31)
(0.00983284 -2.2217e-07 -9.05613e-31)
(0.00983346 -2.02198e-07 0)
(0.00983403 -1.83824e-07 0)
(0.00983455 -1.66918e-07 0)
(0.00983503 -1.5136e-07 9.13145e-31)
(0.00983547 -1.37031e-07 9.14668e-31)
(0.00983587 -1.2382e-07 0)
(0.00983623 -1.11618e-07 9.17364e-31)
(0.00983656 -1.0032e-07 9.1856e-31)
(0.00983686 -8.98206e-08 -9.19679e-31)
(0.00983713 -8.00144e-08 0)
(0.00983737 -7.07938e-08 0)
(0.00983759 -6.20468e-08 -9.22619e-31)
(0.00983778 -5.36539e-08 0)
(0.00983794 -4.5485e-08 0)
(0.00983808 -3.7395e-08 0)
(0.00983819 -2.92191e-08 0)
(0.00983827 -2.07657e-08 9.2695e-31)
(0.00983833 -1.18083e-08 9.27882e-31)
(0.00983835 -2.0751e-09 0)
(0.00983834 8.76442e-09 9.30011e-31)
(0.00983829 2.11168e-08 0)
(0.00983819 3.54866e-08 0)
(0.00983803 5.25046e-08 9.34504e-31)
(0.0098378 7.29658e-08 0)
(0.00983749 9.78765e-08 9.39147e-31)
(0.00983707 1.28519e-07 0)
(0.00983652 1.66536e-07 0)
(0.00983581 2.14042e-07 9.50997e-31)
(0.00983488 2.73774e-07 0)
(0.00983369 3.49298e-07 9.6478e-31)
(0.00983215 4.45297e-07 0)
(0.00983018 5.67963e-07 0)
(0.00982763 7.25575e-07 0)
(0.00982433 9.29328e-07 -1.02387e-30)
(0.00982007 1.19459e-06 0)
(0.00981452 1.54285e-06 1.08638e-30)
(0.00980725 2.00484e-06 0)
(0.00979768 2.62581e-06 0)
(0.00978494 3.47491e-06 0)
(0.00976779 4.66294e-06 0)
(0.00974429 6.3789e-06 0)
(0.00971129 8.97373e-06 0)
(0.0096632 1.31804e-05 0)
(0.00958868 2.08173e-05 -6.11598e-30)
(0.0094591 3.77137e-05 0)
(0.00917191 9.06935e-05 0)
(9.37759e-05 -0.000599962 7.75098e-30)
(0.00028211 -0.00059925 -7.73511e-30)
(0.00047169 -0.000598076 0)
(0.000662375 -0.000596432 1.53861e-29)
(0.000854018 -0.000594308 0)
(0.00104646 -0.000591698 -7.63516e-30)
(0.00123955 -0.000588595 -1.51563e-29)
(0.00143312 -0.000584995 -1.50541e-29)
(0.001627 -0.000580895 0)
(0.001821 -0.000576291 -1.48108e-29)
(0.00201496 -0.000571186 7.35861e-30)
(0.00220868 -0.000565581 0)
(0.00240197 -0.000559482 0)
(0.00259464 -0.000552896 0)
(0.00278651 -0.000545834 0)
(0.00297738 -0.00053831 6.92234e-30)
(0.00316706 -0.000530339 0)
(0.00335535 -0.00052194 1.33334e-29)
(0.00354207 -0.000513135 0)
(0.00372705 -0.000503948 0)
(0.0039101 -0.000494404 -1.25954e-29)
(0.00409105 -0.000484531 0)
(0.00426974 -0.000474359 1.20603e-29)
(0.00444601 -0.000463918 5.94352e-30)
(0.00461972 -0.000453241 -5.80346e-30)
(0.00479072 -0.000442358 5.66079e-30)
(0.0049589 -0.000431303 5.51592e-30)
(0.00512413 -0.000420107 0)
(0.00528631 -0.000408804 0)
(0.00544534 -0.000397423 -5.07229e-30)
(0.00560113 -0.000385997 -1.46361e-29)
(0.00575361 -0.000374553 0)
(0.00590271 -0.00036312 0)
(0.00604839 -0.000351725 -4.47453e-30)
(0.00619059 -0.000340392 0)
(0.00632928 -0.000329147 0)
(0.00646444 -0.000318009 4.03386e-30)
(0.00659605 -0.000307001 0)
(0.0067241 -0.000296139 1.10856e-29)
(0.00684859 -0.000285441 7.21678e-30)
(0.00696953 -0.000274922 0)
(0.00708693 -0.000264595 0)
(0.00720082 -0.000254473 -1.24759e-29)
(0.00731123 -0.000244565 -1.19532e-29)
(0.00741818 -0.00023488 -1.14424e-29)
(0.00752171 -0.000225426 1.65934e-29)
(0.00762188 -0.000216209 5.40892e-30)
(0.00771871 -0.000207234 -4.81015e-30)
(0.00781227 -0.000198504 9.52465e-30)
(0.00790262 -0.000190023 -4.72541e-30)
(0.00798979 -0.000181792 0)
(0.00807387 -0.000173812 4.30232e-30)
(0.00815491 -0.000166083 1.19168e-29)
(0.00823296 -0.000158604 0)
(0.00830811 -0.000151374 0)
(0.00838042 -0.00014439 0)
(0.00844995 -0.000137651 3.3587e-30)
(0.00851677 -0.000131153 0)
(0.00858096 -0.000124892 5.64637e-30)
(0.00864259 -0.000118864 0)
(0.00870172 -0.000113066 5.02359e-30)
(0.00875843 -0.000107492 0)
(0.00881278 -0.000102138 -4.44817e-30)
(0.00886485 -9.69996e-05 0)
(0.00891471 -9.20704e-05 3.91804e-30)
(0.00896242 -8.73456e-05 -5.71551e-30)
(0.00900806 -8.28198e-05 0)
(0.00905169 -7.84873e-05 -3.20288e-30)
(0.00909338 -7.43427e-05 1.70703e-30)
(0.00913319 -7.03803e-05 1.60366e-30)
(0.0091712 -6.65945e-05 0)
(0.00920745 -6.29796e-05 -3.79705e-30)
(0.00924203 -5.95302e-05 1.32062e-30)
(0.00927498 -5.62405e-05 0)
(0.00930637 -5.31052e-05 -1.15302e-30)
(0.00933625 -5.01187e-05 -1.70938e-30)
(0.00936469 -4.72756e-05 0)
(0.00939174 -4.45708e-05 9.30396e-31)
(0.00941745 -4.19988e-05 0)
(0.00944189 -3.95547e-05 3.53712e-31)
(0.00946509 -3.72335e-05 0)
(0.00948711 -3.50301e-05 -2.33553e-31)
(0.00950801 -3.29399e-05 6.26998e-31)
(0.00952782 -3.09581e-05 1.27602e-30)
(0.00954659 -2.90803e-05 2.25636e-30)
(0.00956438 -2.73019e-05 -1.97633e-30)
(0.00958121 -2.56186e-05 0)
(0.00959714 -2.40264e-05 0)
(0.00961221 -2.2521e-05 0)
(0.00962645 -2.10986e-05 -2.72871e-31)
(0.00963991 -1.97555e-05 -5.6615e-31)
(0.00965261 -1.84877e-05 5.00012e-31)
(0.0096646 -1.7292e-05 0)
(0.00967591 -1.61647e-05 -2.2267e-31)
(0.00968657 -1.51025e-05 -3.23395e-31)
(0.00969661 -1.41024e-05 -2.71215e-31)
(0.00970607 -1.31612e-05 0)
(0.00971497 -1.22759e-05 0)
(0.00972335 -1.14438e-05 0)
(0.00973122 -1.0662e-05 -9.17145e-32)
(0.00973862 -9.92794e-06 0)
(0.00974556 -9.23915e-06 8.85374e-31)
(0.00975208 -8.5932e-06 9.3718e-31)
(0.0097582 -7.98778e-06 -1.01716e-30)
(0.00976393 -7.42068e-06 0)
(0.0097693 -6.8898e-06 -1.23788e-30)
(0.00977433 -6.39312e-06 0)
(0.00977904 -5.92872e-06 -1.23399e-30)
(0.00978344 -5.49476e-06 1.45758e-30)
(0.00978755 -5.0895e-06 1.52141e-30)
(0.0097914 -4.71126e-06 0)
(0.00979499 -4.35847e-06 1.16218e-30)
(0.00979833 -4.02961e-06 -1.43399e-30)
(0.00980146 -3.72326e-06 2.70322e-31)
(0.00980437 -3.43805e-06 0)
(0.00980708 -3.1727e-06 2.99054e-31)
(0.0098096 -2.92596e-06 -1.23832e-30)
(0.00981195 -2.69669e-06 0)
(0.00981413 -2.48379e-06 -1.59681e-30)
(0.00981615 -2.2862e-06 -1.61763e-30)
(0.00981803 -2.10296e-06 -1.63693e-30)
(0.00981978 -1.93312e-06 0)
(0.0098214 -1.77581e-06 0)
(0.0098229 -1.6302e-06 0)
(0.00982429 -1.4955e-06 2.0875e-30)
(0.00982557 -1.37098e-06 -3.93069e-31)
(0.00982676 -1.25594e-06 0)
(0.00982786 -1.14973e-06 1.73735e-30)
(0.00982887 -1.05172e-06 1.74767e-30)
(0.00982981 -9.61346e-07 0)
(0.00983067 -8.78049e-07 -8.37589e-31)
(0.00983146 -8.01318e-07 3.54811e-30)
(0.00983219 -7.30667e-07 8.52974e-31)
(0.00983287 -6.65641e-07 -4.43645e-30)
(0.00983349 -6.05809e-07 0)
(0.00983405 -5.50763e-07 0)
(0.00983457 -5.00117e-07 0)
(0.00983505 -4.53507e-07 8.81906e-31)
(0.00983549 -4.10582e-07 4.51681e-30)
(0.00983588 -3.71006e-07 3.63876e-30)
(0.00983625 -3.34456e-07 8.94324e-31)
(0.00983657 -3.00613e-07 4.55143e-30)
(0.00983687 -2.69165e-07 -9.01136e-31)
(0.00983714 -2.39795e-07 0)
(0.00983738 -2.12182e-07 0)
(0.0098376 -1.85991e-07 -4.58748e-30)
(0.00983779 -1.60864e-07 0)
(0.00983795 -1.36412e-07 0)
(0.00983809 -1.12202e-07 3.69312e-30)
(0.0098382 -8.77412e-08 0)
(0.00983828 -6.2457e-08 4.62611e-30)
(0.00983834 -3.5673e-08 9.25416e-31)
(0.00983836 -6.5774e-09 0)
(0.00983835 2.58169e-08 4.65353e-30)
(0.0098383 6.27238e-08 0)
(0.0098382 1.05649e-07 0)
(0.00983805 1.56477e-07 9.45257e-31)
(0.00983783 2.1758e-07 3.76122e-30)
(0.00983752 2.91963e-07 9.59218e-31)
(0.00983711 3.83452e-07 0)
(0.00983657 4.96948e-07 0)
(0.00983587 6.38758e-07 4.84249e-30)
(0.00983495 8.1705e-07 0)
(0.00983378 1.04246e-06 4.96673e-30)
(0.00983227 1.32894e-06 0)
(0.00983032 1.69495e-06 0)
(0.00982781 2.16514e-06 0)
(0.00982457 2.77282e-06 -1.21451e-30)
(0.00982037 3.56369e-06 0)
(0.00981492 4.60153e-06 1.40268e-30)
(0.00980778 5.97744e-06 0)
(0.00979839 7.82521e-06 0)
(0.00978592 1.03486e-05 5.83664e-30)
(0.00976917 1.38723e-05 -6.559e-30)
(0.00974631 1.89462e-05 0)
(0.00971445 2.65781e-05 0)
(0.00966865 3.88243e-05 0)
(0.00959984 6.05516e-05 1.79612e-29)
(0.00949049 0.000105874 0)
(0.00931797 0.000227967 -1.01324e-28)
(9.44164e-05 -0.00100222 5.18021e-29)
(0.000284035 -0.00100102 -6.75964e-33)
(0.000474904 -0.000999055 0)
(0.00066688 -0.000996301 1.57981e-32)
(0.000859815 -0.000992744 0)
(0.00105355 -0.000988371 0)
(0.00124793 -0.000983171 -5.06813e-29)
(0.00144277 -0.000977136 -2.51902e-29)
(0.00163791 -0.000970258 2.49645e-29)
(0.00183316 -0.000962535 -2.47944e-29)
(0.00202833 -0.000953967 0)
(0.00222324 -0.000944557 0)
(0.00241768 -0.000934314 -2.39801e-29)
(0.00261147 -0.000923252 -4.73609e-29)
(0.0028044 -0.000911388 4.67202e-29)
(0.00299627 -0.000898744 0)
(0.00318689 -0.000885349 4.53199e-29)
(0.00337606 -0.000871235 2.23615e-29)
(0.00356359 -0.000856439 0)
(0.0037493 -0.000841002 4.29475e-29)
(0.003933 -0.000824967 -2.11392e-29)
(0.00411452 -0.000808384 -4.12095e-29)
(0.0042937 -0.000791303 2.02519e-29)
(0.00447038 -0.000773775 0)
(0.00464441 -0.000755854 3.84187e-29)
(0.00481566 -0.000737597 3.74505e-29)
(0.004984 -0.000719056 0)
(0.00514932 -0.000700287 3.54744e-29)
(0.0053115 -0.000681344 0)
(0.00547047 -0.00066228 3.3464e-29)
(0.00562613 -0.000643146 -1.63592e-29)
(0.00577842 -0.00062399 0)
(0.00592727 -0.00060486 0)
(0.00607265 -0.000585801 0)
(0.00621449 -0.000566854 0)
(0.00635279 -0.000548059 0)
(0.00648751 -0.000529451 0)
(0.00661864 -0.000511064 2.54837e-29)
(0.00674619 -0.000492929 -1.21048e-29)
(0.00687015 -0.000475073 0)
(0.00699054 -0.00045752 0)
(0.00710738 -0.000440293 0)
(0.00722069 -0.000423412 -4.20749e-29)
(0.0073305 -0.000406892 -2.03435e-29)
(0.00743685 -0.000390748 -3.512e-31)
(0.00753977 -0.000374992 3.56056e-31)
(0.00763933 -0.000359635 -1.75105e-29)
(0.00773556 -0.000344683 -1.70891e-29)
(0.00782851 -0.000330143 3.22877e-29)
(0.00791825 -0.00031602 1.52161e-29)
(0.00800484 -0.000302315 0)
(0.00808833 -0.00028903 1.37967e-29)
(0.00816878 -0.000276164 2.6626e-29)
(0.00824627 -0.000263716 0)
(0.00832087 -0.000251684 0)
(0.00839263 -0.000240064 -1.12221e-29)
(0.00846163 -0.000228851 0)
(0.00852794 -0.00021804 0)
(0.00859163 -0.000207624 2.89562e-29)
(0.00865276 -0.000197598 1.79797e-29)
(0.00871142 -0.000187954 8.89432e-30)
(0.00876767 -0.000178685 0)
(0.00882158 -0.000169781 -7.9444e-30)
(0.00887323 -0.000161236 0)
(0.00892267 -0.00015304 2.03653e-29)
(0.00896999 -0.000145183 -6.6587e-30)
(0.00901525 -0.000137658 -1.16794e-29)