/*--------------------------------*- C++ -*----------------------------------*\
  =========                 |
  \\      /  F ield         | OpenFOAM: The Open Source CFD Toolbox
   \\    /   O peration     | Website:  https://openfoam.org
    \\  /    A nd           | Version:  10
     \\/     M anipulation  |
\*---------------------------------------------------------------------------*/
FoamFile
{
    format      ascii;
    class       surfaceScalarField;
    location    "18500";
    object      phi;
}
// * * * * * * * * * * * * * * * * * * * * * * * * * * * * * * * * * * * * * //

dimensions      [0 3 -1 0 0 0 0];

internalField   nonuniform List<scalar> 
12640
(
-3.42091e-08
3.42091e-08
-7.01513e-08
3.59422e-08
-1.10034e-07
3.98829e-08
-1.57331e-07
4.72968e-08
-2.18416e-07
6.10853e-08
-3.01894e-07
8.34778e-08
-2.39096e-07
-6.27977e-08
-3.37627e-06
3.13718e-06
-3.55256e-06
1.76284e-07
-3.09398e-06
-4.58582e-07
-3.21744e-06
1.23464e-07
-3.19032e-06
-2.71158e-08
-3.42628e-06
2.35951e-07
-3.41181e-06
-1.44626e-08
-3.41774e-06
5.92826e-09
-3.37818e-06
-3.95624e-08
-3.3308e-06
-4.7382e-08
-3.21467e-06
-1.16127e-07
-3.17413e-06
-4.05378e-08
-3.19093e-06
1.68016e-08
-3.17931e-06
-1.16257e-08
-3.16276e-06
-1.65455e-08
-3.14807e-06
-1.46946e-08
-3.12535e-06
-2.27194e-08
-3.10013e-06
-2.52177e-08
-3.0671e-06
-3.30287e-08
-3.01962e-06
-4.74804e-08
-2.97998e-06
-3.96398e-08
-2.94373e-06
-3.6252e-08
-2.89311e-06
-5.06233e-08
-2.80373e-06
-8.93743e-08
-2.63054e-06
-1.7319e-07
-2.49617e-06
-1.34377e-07
-2.31612e-06
-1.80046e-07
-2.08038e-06
-2.35738e-07
-1.78126e-06
-2.9912e-07
-1.41545e-06
-3.65813e-07
-9.86532e-07
-4.28916e-07
-5.0733e-07
-4.79202e-07
1.71839e-17
-5.0733e-07
5.0733e-07
-5.0733e-07
9.86532e-07
-4.79202e-07
1.41545e-06
-4.28916e-07
1.78126e-06
-3.65813e-07
2.08038e-06
-2.9912e-07
2.31612e-06
-2.35738e-07
2.49617e-06
-1.80046e-07
2.63054e-06
-1.34377e-07
2.80373e-06
-1.7319e-07
2.89311e-06
-8.93743e-08
2.94373e-06
-5.06233e-08
2.97998e-06
-3.6252e-08
3.01962e-06
-3.96398e-08
3.0671e-06
-4.74804e-08
3.10013e-06
-3.30287e-08
3.12535e-06
-2.52177e-08
3.14807e-06
-2.27194e-08
3.16276e-06
-1.46946e-08
3.17931e-06
-1.65455e-08
3.19093e-06
-1.16257e-08
3.17413e-06
1.68016e-08
3.21467e-06
-4.05378e-08
3.3308e-06
-1.16127e-07
3.37818e-06
-4.7382e-08
3.41774e-06
-3.95624e-08
3.41181e-06
5.92826e-09
3.42628e-06
-1.44626e-08
3.19032e-06
2.35951e-07
3.21744e-06
-2.71158e-08
3.09398e-06
1.23464e-07
3.55256e-06
-4.58582e-07
3.37627e-06
1.76284e-07
2.39096e-07
3.13718e-06
3.01894e-07
-6.27977e-08
2.18416e-07
8.34778e-08
1.57331e-07
6.10853e-08
1.10034e-07
4.72968e-08
7.01513e-08
3.98829e-08
3.42091e-08
3.59422e-08
3.42091e-08
-3.7439e-08
7.16481e-08
-7.67565e-08
7.52597e-08
-1.20336e-07
8.34623e-08
-1.71909e-07
9.88702e-08
-2.385e-07
1.27676e-07
-3.38084e-07
1.83062e-07
-6.82798e-07
2.81916e-07
-1.51108e-07
2.60549e-06
-2.0647e-06
2.08987e-06
-3.0859e-06
5.62615e-07
-3.36385e-06
4.01422e-07
-3.3519e-06
-3.90696e-08
-3.64322e-06
5.27271e-07
-3.62659e-06
-3.109e-08
-3.64379e-06
2.31295e-08
-3.6055e-06
-7.78599e-08
-3.56215e-06
-9.07253e-08
-3.43455e-06
-2.43736e-07
-3.39482e-06
-8.02648e-08
-3.41917e-06
4.115e-08
-3.40759e-06
-2.32055e-08
-3.39124e-06
-3.28902e-08
-3.37744e-06
-2.85012e-08
-3.35409e-06
-4.60657e-08
-3.32841e-06
-5.0896e-08
-3.29426e-06
-6.71768e-08
-3.24309e-06
-9.86552e-08
-3.20149e-06
-8.12409e-08
-3.16406e-06
-7.36804e-08
-3.1114e-06
-1.03277e-07
-3.01796e-06
-1.82814e-07
-2.83664e-06
-3.54511e-07
-2.69476e-06
-2.76257e-07
-2.50366e-06
-3.71152e-07
-2.25207e-06
-4.87325e-07
-1.93125e-06
-6.19942e-07
-1.53704e-06
-7.60016e-07
-1.07278e-06
-8.93176e-07
-5.52225e-07
-9.99762e-07
1.77538e-17
-1.05955e-06
5.52225e-07
-1.05955e-06
1.07278e-06
-9.99762e-07
1.53704e-06
-8.93176e-07
1.93125e-06
-7.60016e-07
2.25207e-06
-6.19942e-07
2.50366e-06
-4.87325e-07
2.69476e-06
-3.71152e-07
2.83664e-06
-2.76257e-07
3.01796e-06
-3.54511e-07
3.1114e-06
-1.82814e-07
3.16406e-06
-1.03277e-07
3.20149e-06
-7.36804e-08
3.24309e-06
-8.12409e-08
3.29426e-06
-9.86552e-08
3.32841e-06
-6.71768e-08
3.35409e-06
-5.0896e-08
3.37744e-06
-4.60657e-08
3.39124e-06
-2.85012e-08
3.40759e-06
-3.28902e-08
3.41917e-06
-2.32055e-08
3.39482e-06
4.115e-08
3.43455e-06
-8.02648e-08
3.56215e-06
-2.43736e-07
3.6055e-06
-9.07253e-08
3.64379e-06
-7.78599e-08
3.62659e-06
2.31295e-08
3.64322e-06
-3.109e-08
3.3519e-06
5.27271e-07
3.36385e-06
-3.90696e-08
3.0859e-06
4.01422e-07
2.0647e-06
5.62615e-07
1.51108e-07
2.08987e-06
6.82798e-07
2.60549e-06
3.38084e-07
2.81916e-07
2.385e-07
1.83062e-07
1.71909e-07
1.27676e-07
1.20336e-07
9.88702e-08
7.67565e-08
8.34623e-08
3.7439e-08
7.52597e-08
7.16481e-08
-4.08576e-08
1.12506e-07
-8.37196e-08
1.18122e-07
-1.31107e-07
1.3085e-07
-1.86908e-07
1.54671e-07
-2.58427e-07
1.99196e-07
-3.65169e-07
2.89803e-07
-6.16096e-07
5.32843e-07
-2.17991e-07
2.20738e-06
-4.6078e-08
1.91796e-06
-2.73653e-07
7.9019e-07
-3.17823e-06
3.306e-06
-3.43089e-06
2.13592e-07
-3.88248e-06
9.78855e-07
-3.86165e-06
-5.19181e-08
-3.90433e-06
6.58085e-08
-3.8673e-06
-1.1489e-07
-3.83474e-06
-1.23283e-07
-3.68362e-06
-3.94851e-07
-3.64648e-06
-1.17408e-07
-3.68572e-06
8.03904e-08
-3.67217e-06
-3.67616e-08
-3.65542e-06
-4.96328e-08
-3.6432e-06
-4.07196e-08
-3.61849e-06
-7.07819e-08
-3.59246e-06
-7.69222e-08
-3.55736e-06
-1.02276e-07
-3.50009e-06
-1.55927e-07
-3.4564e-06
-1.24929e-07
-3.41868e-06
-1.11401e-07
-3.36515e-06
-1.56807e-07
-3.26986e-06
-2.78106e-07
-3.08554e-06
-5.3883e-07
-2.93864e-06
-4.23161e-07
-2.73834e-06
-5.71453e-07
-2.47126e-06
-7.54401e-07
-2.12678e-06
-9.64429e-07
-1.69887e-06
-1.18792e-06
-1.18965e-06
-1.4024e-06
-6.13786e-07
-1.57562e-06
7.17634e-18
-1.67334e-06
6.13786e-07
-1.67334e-06
1.18965e-06
-1.57562e-06
1.69887e-06
-1.4024e-06
2.12678e-06
-1.18792e-06
2.47126e-06
-9.64429e-07
2.73834e-06
-7.54401e-07
2.93864e-06
-5.71453e-07
3.08554e-06
-4.23161e-07
3.26986e-06
-5.3883e-07
3.36515e-06
-2.78106e-07
3.41868e-06
-1.56807e-07
3.4564e-06
-1.11401e-07
3.50009e-06
-1.24929e-07
3.55736e-06
-1.55927e-07
3.59246e-06
-1.02276e-07
3.61849e-06
-7.69222e-08
3.6432e-06
-7.07819e-08
3.65542e-06
-4.07196e-08
3.67217e-06
-4.96328e-08
3.68572e-06
-3.67616e-08
3.64648e-06
8.03904e-08
3.68362e-06
-1.17408e-07
3.83474e-06
-3.94851e-07
3.8673e-06
-1.23283e-07
3.90433e-06
-1.1489e-07
3.86165e-06
6.58085e-08
3.88248e-06
-5.19181e-08
3.43089e-06
9.78855e-07
3.17823e-06
2.13592e-07
2.73653e-07
3.306e-06
4.6078e-08
7.9019e-07
2.17991e-07
1.91796e-06
6.16096e-07
2.20738e-06
3.65169e-07
5.32843e-07
2.58427e-07
2.89803e-07
1.86908e-07
1.99196e-07
1.31107e-07
1.54671e-07
8.37196e-08
1.3085e-07
4.08576e-08
1.18122e-07
1.12506e-07
-4.44275e-08
1.56933e-07
-9.09505e-08
1.64645e-07
-1.42163e-07
1.82062e-07
-2.01944e-07
2.14452e-07
-2.77219e-07
2.74472e-07
-3.83814e-07
3.96398e-07
-5.60602e-07
7.09631e-07
-2.59e-07
1.90578e-06
-1.28089e-07
1.78705e-06
-4.9173e-07
1.15383e-06
1.34935e-07
2.67934e-06
-3.64873e-07
7.134e-07
-3.76713e-06
4.38111e-06
-3.99639e-06
1.77339e-07
-4.15542e-06
2.24842e-07
-4.13767e-06
-1.32648e-07
-4.13712e-06
-1.23827e-07
-3.94581e-06
-5.86167e-07
-3.91711e-06
-1.46105e-07
-3.98484e-06
1.48122e-07
-3.96591e-06
-5.56879e-08
-3.94849e-06
-6.70559e-08
-3.93968e-06
-4.95345e-08
-3.91268e-06
-9.77764e-08
-3.88699e-06
-1.02611e-07
-3.85192e-06
-1.37346e-07
-3.78493e-06
-2.22921e-07
-3.73953e-06
-1.70327e-07
-3.70332e-06
-1.47607e-07
-3.65106e-06
-2.09075e-07
-3.55781e-06
-3.71354e-07
-3.37984e-06
-7.16798e-07
-3.23307e-06
-5.69927e-07
-3.02822e-06
-7.76301e-07
-2.74841e-06
-1.03421e-06
-2.38005e-06
-1.33279e-06
-1.91361e-06
-1.65436e-06
-1.34798e-06
-1.96803e-06
-6.98346e-07
-2.22526e-06
-4.34375e-18
-2.37169e-06
6.98346e-07
-2.37169e-06
1.34798e-06
-2.22526e-06
1.91361e-06
-1.96803e-06
2.38005e-06
-1.65436e-06
2.74841e-06
-1.33279e-06
3.02822e-06
-1.03421e-06
3.23307e-06
-7.76301e-07
3.37984e-06
-5.69927e-07
3.55781e-06
-7.16798e-07
3.65106e-06
-3.71354e-07
3.70332e-06
-2.09075e-07
3.73953e-06
-1.47607e-07
3.78493e-06
-1.70327e-07
3.85192e-06
-2.22921e-07
3.88699e-06
-1.37346e-07
3.91268e-06
-1.02611e-07
3.93968e-06
-9.77764e-08
3.94849e-06
-4.95345e-08
3.96591e-06
-6.70559e-08
3.98484e-06
-5.56879e-08
3.91711e-06
1.48122e-07
3.94581e-06
-1.46105e-07
4.13712e-06
-5.86167e-07
4.13767e-06
-1.23827e-07
4.15542e-06
-1.32648e-07
3.99639e-06
2.24842e-07
3.76713e-06
1.77339e-07
3.64873e-07
4.38111e-06
-1.34935e-07
7.134e-07
4.9173e-07
2.67934e-06
1.28089e-07
1.15383e-06
2.59e-07
1.78705e-06
5.60602e-07
1.90578e-06
3.83814e-07
7.09631e-07
2.77219e-07
3.96398e-07
2.01944e-07
2.74472e-07
1.42163e-07
2.14452e-07
9.09505e-08
1.82062e-07
4.44275e-08
1.64645e-07
1.56933e-07
-4.80912e-08
2.05024e-07
-9.83159e-08
2.14869e-07
-1.53249e-07
2.36995e-07
-2.16532e-07
2.77735e-07
-2.93975e-07
3.51915e-07
-3.95064e-07
4.97488e-07
-5.1593e-07
8.30497e-07
-2.939e-07
1.68375e-06
-1.92875e-07
1.68603e-06
-4.13144e-07
1.3741e-06
-1.45831e-08
2.28077e-06
-5.80177e-07
1.27899e-06
4.05528e-07
3.39541e-06
-3.63127e-07
9.45994e-07
-3.90641e-06
3.76812e-06
-4.24514e-06
2.06086e-07
-4.41991e-06
5.09451e-08
-4.1868e-06
-8.19285e-07
-4.1892e-06
-1.43706e-07
-4.31394e-06
2.72865e-07
-4.28416e-06
-8.54623e-08
-4.26715e-06
-8.40709e-08
-4.26596e-06
-5.07199e-08
-4.23525e-06
-1.2849e-07
-4.2115e-06
-1.26363e-07
-4.17895e-06
-1.69892e-07
-4.09591e-06
-3.05959e-07
-4.04999e-06
-2.16249e-07
-4.01835e-06
-1.79247e-07
-3.97052e-06
-2.56905e-07
-3.88491e-06
-4.56967e-07
-3.7283e-06
-8.73408e-07
-3.59083e-06
-7.074e-07
-3.39025e-06
-9.76876e-07
-3.10383e-06
-1.32064e-06
-2.71404e-06
-1.72258e-06
-2.20511e-06
-2.16329e-06
-1.56843e-06
-2.60471e-06
-8.18018e-07
-2.97567e-06
2.37021e-17
-3.1897e-06
8.18018e-07
-3.1897e-06
1.56843e-06
-2.97567e-06
2.20511e-06
-2.60471e-06
2.71404e-06
-2.16329e-06
3.10383e-06
-1.72258e-06
3.39025e-06
-1.32064e-06
3.59083e-06
-9.76876e-07
3.7283e-06
-7.074e-07
3.88491e-06
-8.73408e-07
3.97052e-06
-4.56967e-07
4.01835e-06
-2.56905e-07
4.04999e-06
-1.79247e-07
4.09591e-06
-2.16249e-07
4.17895e-06
-3.05959e-07
4.2115e-06
-1.69892e-07
4.23525e-06
-1.26363e-07
4.26596e-06
-1.2849e-07
4.26715e-06
-5.07199e-08
4.28416e-06
-8.40709e-08
4.31394e-06
-8.54623e-08
4.1892e-06
2.72865e-07
4.1868e-06
-1.43706e-07
4.41991e-06
-8.19285e-07
4.24514e-06
5.09451e-08
3.90641e-06
2.06086e-07
3.63127e-07
3.76812e-06
-4.05528e-07
9.45994e-07
5.80177e-07
3.39541e-06
1.45831e-08
1.27899e-06
4.13144e-07
2.28077e-06
1.92875e-07
1.3741e-06
2.939e-07
1.68603e-06
5.1593e-07
1.68375e-06
3.95064e-07
8.30497e-07
2.93975e-07
4.97488e-07
2.16532e-07
3.51915e-07
1.53249e-07
2.77735e-07
9.83159e-08
2.36995e-07
4.80912e-08
2.14869e-07
2.05024e-07
-5.17679e-08
2.56792e-07
-1.05633e-07
2.68735e-07
-1.64032e-07
2.95394e-07
-2.30115e-07
3.43817e-07
-3.07951e-07
4.29751e-07
-4.00175e-07
5.89712e-07
-4.80969e-07
9.11291e-07
-3.22131e-07
1.52491e-06
-2.42593e-07
1.60649e-06
-3.62915e-07
1.49442e-06
-1.15692e-07
2.03355e-06
-4.25727e-07
1.58903e-06
2.01048e-07
2.76863e-06
-3.37892e-07
1.48493e-06
4.89831e-07
2.9404e-06
-2.90431e-07
9.86348e-07
-2.92162e-06
2.68214e-06
-4.08674e-06
3.45833e-07
-4.3513e-06
1.20853e-07
-4.63945e-06
5.61014e-07
-4.60518e-06
-1.19734e-07
-4.60014e-06
-8.91132e-08
-4.61907e-06
-3.17879e-08
-4.58335e-06
-1.6421e-07
-4.56564e-06
-1.44068e-07
-4.54189e-06
-1.93644e-07
-4.43099e-06
-4.16861e-07
-4.38762e-06
-2.59613e-07
-4.36558e-06
-2.01288e-07
-4.32648e-06
-2.96006e-07
-4.2555e-06
-5.27951e-07
-4.1432e-06
-9.8571e-07
-4.0308e-06
-8.19795e-07
-3.85047e-06
-1.1572e-06
-3.56888e-06
-1.60223e-06
-3.16542e-06
-2.12603e-06
-2.61367e-06
-2.71505e-06
-1.88768e-06
-3.3307e-06
-9.94817e-07
-3.86854e-06
1.10274e-17
-4.18452e-06
9.94817e-07
-4.18452e-06
1.88768e-06
-3.86854e-06
2.61367e-06
-3.3307e-06
3.16542e-06
-2.71505e-06
3.56888e-06
-2.12603e-06
3.85047e-06
-1.60223e-06
4.0308e-06
-1.1572e-06
4.1432e-06
-8.19795e-07
4.2555e-06
-9.8571e-07
4.32648e-06
-5.27951e-07
4.36558e-06
-2.96006e-07
4.38762e-06
-2.01288e-07
4.43099e-06
-2.59613e-07
4.54189e-06
-4.16861e-07
4.56564e-06
-1.93644e-07
4.58335e-06
-1.44068e-07
4.61907e-06
-1.6421e-07
4.60014e-06
-3.17879e-08
4.60518e-06
-8.91132e-08
4.63945e-06
-1.19734e-07
4.3513e-06
5.61014e-07
4.08674e-06
1.20853e-07
2.92162e-06
3.45833e-07
2.90431e-07
2.68214e-06
-4.89831e-07
9.86348e-07
3.37892e-07
2.9404e-06
-2.01048e-07
1.48493e-06
4.25727e-07
2.76863e-06
1.15692e-07
1.58903e-06
3.62915e-07
2.03355e-06
2.42593e-07
1.49442e-06
3.22131e-07
1.60649e-06
4.80969e-07
1.52491e-06
4.00175e-07
9.11291e-07
3.07951e-07
5.89712e-07
2.30115e-07
4.29751e-07
1.64032e-07
3.43817e-07
1.05633e-07
2.95394e-07
5.17679e-08
2.68735e-07
2.56792e-07
-5.53504e-08
3.12143e-07
-1.1267e-07
3.26054e-07
-1.74117e-07
3.56842e-07
-2.42107e-07
4.11807e-07
-3.18617e-07
5.06261e-07
-4.00421e-07
6.71516e-07
-4.54073e-07
9.64942e-07
-3.43554e-07
1.41439e-06
-2.79499e-07
1.54243e-06
-3.33507e-07
1.54843e-06
-1.80115e-07
1.88016e-06
-3.2572e-07
1.73464e-06
6.68233e-08
2.37609e-06
-1.96353e-07
1.74811e-06
3.0331e-07
2.44074e-06
-1.10658e-07
1.40032e-06
4.25428e-07
2.14605e-06
-3.10445e-08
8.02306e-07
-6.266e-07
7.16408e-07
-4.33559e-06
4.27001e-06
-4.6549e-06
1.99575e-07
-4.84212e-06
9.81009e-08
-4.95976e-06
8.58545e-08
-4.93514e-06
-1.88831e-07
-4.94038e-06
-1.3883e-07
-4.94398e-06
-1.90042e-07
-4.7831e-06
-5.77736e-07
-4.75095e-06
-2.91763e-07
-4.74722e-06
-2.05024e-07
-4.72232e-06
-3.20901e-07
-4.67292e-06
-5.77352e-07
-4.63871e-06
-1.01992e-06
-4.5788e-06
-8.79706e-07
-4.44809e-06
-1.28791e-06
-4.18994e-06
-1.86038e-06
-3.79142e-06
-2.52455e-06
-3.20876e-06
-3.29771e-06
-2.37393e-06
-4.16553e-06
-1.27075e-06
-4.97171e-06
-4.29844e-17
-5.45527e-06
1.27075e-06
-5.45527e-06
2.37393e-06
-4.97171e-06
3.20876e-06
-4.16553e-06
3.79142e-06
-3.29771e-06
4.18994e-06
-2.52455e-06
4.44809e-06
-1.86038e-06
4.5788e-06
-1.28791e-06
4.63871e-06
-8.79706e-07
4.67292e-06
-1.01992e-06
4.72232e-06
-5.77352e-07
4.74722e-06
-3.20901e-07
4.75095e-06
-2.05024e-07
4.7831e-06
-2.91763e-07
4.94398e-06
-5.77736e-07
4.94038e-06
-1.90042e-07
4.93514e-06
-1.3883e-07
4.95976e-06
-1.88831e-07
4.84212e-06
8.58545e-08
4.6549e-06
9.81009e-08
4.33559e-06
1.99575e-07
6.266e-07
4.27001e-06
3.10445e-08
7.16408e-07
-4.25428e-07
8.02306e-07
1.10658e-07
2.14605e-06
-3.0331e-07
1.40032e-06
1.96353e-07
2.44074e-06
-6.68233e-08
1.74811e-06
3.2572e-07
2.37609e-06
1.80115e-07
1.73464e-06
3.33507e-07
1.88016e-06
2.79499e-07
1.54843e-06
3.43554e-07
1.54243e-06
4.54073e-07
1.41439e-06
4.00421e-07
9.64942e-07
3.18617e-07
6.71516e-07
2.42107e-07
5.06261e-07
1.74117e-07
4.11807e-07
1.1267e-07
3.56842e-07
5.53504e-08
3.26054e-07
3.12143e-07
-5.8706e-08
3.70849e-07
-1.19144e-07
3.86493e-07
-1.8306e-07
4.20757e-07
-2.51945e-07
4.80693e-07
-3.25665e-07
5.79981e-07
-3.96929e-07
7.4278e-07
-4.33303e-07
1.00132e-06
-3.58378e-07
1.33947e-06
-3.05697e-07
1.48975e-06
-3.18019e-07
1.56075e-06
-2.18514e-07
1.78066e-06
-2.64868e-07
1.78099e-06
-1.71561e-08
2.12838e-06
-1.15604e-07
1.84656e-06
1.82823e-07
2.14231e-06
-1.39618e-08
1.5971e-06
2.73078e-07
1.85901e-06
-4.62412e-08
1.12162e-06
-5.3316e-07
1.20333e-06
7.28437e-07
3.00841e-06
4.17506e-08
8.86261e-07
-7.68873e-07
9.08724e-07
-4.56289e-06
3.87987e-06
-4.94806e-06
1.96333e-07
-5.1863e-06
9.94109e-08
-5.34107e-06
-3.52724e-08
-5.11254e-06
-8.06258e-07
-5.12633e-06
-2.77977e-07
-5.16115e-06
-1.70199e-07
-5.15933e-06
-3.22727e-07
-5.13498e-06
-6.01698e-07
-5.22628e-06
-9.28622e-07
-5.26772e-06
-8.38268e-07
-5.24545e-06
-1.31018e-06
-5.03181e-06
-2.07403e-06
-4.67847e-06
-2.87789e-06
-4.11503e-06
-3.86115e-06
-3.1642e-06
-5.11635e-06
-1.73178e-06
-6.40413e-06
-7.36476e-18
-7.18705e-06
1.73178e-06
-7.18705e-06
3.1642e-06
-6.40413e-06
4.11503e-06
-5.11635e-06
4.67847e-06
-3.86115e-06
5.03181e-06
-2.87789e-06
5.24545e-06
-2.07403e-06
5.26772e-06
-1.31018e-06
5.22628e-06
-8.38268e-07
5.13498e-06
-9.28622e-07
5.15933e-06
-6.01698e-07
5.16115e-06
-3.22727e-07
5.12633e-06
-1.70199e-07
5.11254e-06
-2.77977e-07
5.34107e-06
-8.06258e-07
5.1863e-06
-3.52724e-08
4.94806e-06
9.94109e-08
4.56289e-06
1.96333e-07
7.68873e-07
3.87987e-06
-4.17506e-08
9.08724e-07
-7.28437e-07
8.86261e-07
5.3316e-07
3.00841e-06
4.62412e-08
1.20333e-06
-2.73078e-07
1.12162e-06
1.39618e-08
1.85901e-06
-1.82823e-07
1.5971e-06
1.15604e-07
2.14231e-06
1.71561e-08
1.84656e-06
2.64868e-07
2.12838e-06
2.18514e-07
1.78099e-06
3.18019e-07
1.78066e-06
3.05697e-07
1.56075e-06
3.58378e-07
1.48975e-06
4.33303e-07
1.33947e-06
3.96929e-07
1.00132e-06
3.25665e-07
7.4278e-07
2.51945e-07
5.79981e-07
1.8306e-07
4.80693e-07
1.19144e-07
4.20757e-07
5.8706e-08
3.86493e-07
3.70849e-07
-6.16795e-08
4.32528e-07
-1.24743e-07
4.49557e-07
-1.90399e-07
4.86412e-07
-2.59135e-07
5.49429e-07
-3.28989e-07
6.49835e-07
-3.90564e-07
8.04355e-07
-4.16664e-07
1.02742e-06
-3.67037e-07
1.28984e-06
-3.22994e-07
1.44571e-06
-3.10707e-07
1.54846e-06
-2.39614e-07
1.70956e-06
-2.30319e-07
1.77169e-06
-6.76497e-08
1.96571e-06
-7.55506e-08
1.85446e-06
1.06054e-07
1.96071e-06
3.00693e-08
1.67308e-06
1.71748e-07
1.71733e-06
-3.65617e-08
1.32993e-06
-2.72008e-07
1.43877e-06
4.31253e-07
2.30515e-06
5.08558e-08
1.26666e-06
-3.61529e-07
1.32111e-06
8.16051e-07
2.70229e-06
1.53058e-07
8.59325e-07
-5.93519e-07
8.45988e-07
-3.7383e-06
3.10951e-06
-4.84815e-06
3.03598e-07
-5.24861e-06
1.22481e-07
-5.49615e-06
7.73373e-08
-5.59267e-06
-2.26202e-07
-5.60753e-06
-5.86844e-07
-5.89231e-06
-6.43838e-07
-6.12579e-06
-6.04788e-07
-6.36017e-06
-1.07581e-06
-6.16471e-06
-2.26949e-06
-5.93928e-06
-3.10332e-06
-5.56685e-06
-4.23358e-06
-4.56421e-06
-6.11899e-06
-2.56711e-06
-8.40124e-06
4.49944e-17
-9.75416e-06
2.56711e-06
-9.75416e-06
4.56421e-06
-8.40124e-06
5.56685e-06
-6.11899e-06
5.93928e-06
-4.23358e-06
6.16471e-06
-3.10332e-06
6.36017e-06
-2.26949e-06
6.12579e-06
-1.07581e-06
5.89231e-06
-6.04788e-07
5.60753e-06
-6.43838e-07
5.59267e-06
-5.86844e-07
5.49615e-06
-2.26202e-07
5.24861e-06
7.73373e-08
4.84815e-06
1.22481e-07
3.7383e-06
3.03598e-07
5.93519e-07
3.10951e-06
-1.53058e-07
8.45988e-07
-8.16051e-07
8.59325e-07
3.61529e-07
2.70229e-06
-5.08558e-08
1.32111e-06
-4.31253e-07
1.26666e-06
2.72008e-07
2.30515e-06
3.65617e-08
1.43877e-06
-1.71748e-07
1.32993e-06
-3.00693e-08
1.71733e-06
-1.06054e-07
1.67308e-06
7.55506e-08
1.96071e-06
6.76497e-08
1.85446e-06
2.30319e-07
1.96571e-06
2.39614e-07
1.77169e-06
3.10707e-07
1.70956e-06
3.22994e-07
1.54846e-06
3.67037e-07
1.44571e-06
4.16664e-07
1.28984e-06
3.90564e-07
1.02742e-06
3.28989e-07
8.04355e-07
2.59135e-07
6.49835e-07
1.90399e-07
5.49429e-07
1.24743e-07
4.86412e-07
6.16795e-08
4.49557e-07
4.32528e-07
-6.4102e-08
4.9663e-07
-1.29139e-07
5.14593e-07
-1.95698e-07
5.52972e-07
-2.63296e-07
6.17027e-07
-3.28633e-07
7.15171e-07
-3.81883e-07
8.57605e-07
-4.02304e-07
1.04784e-06
-3.70085e-07
1.25762e-06
-3.32848e-07
1.40847e-06
-3.07209e-07
1.52283e-06
-2.49864e-07
1.65222e-06
-2.12177e-07
1.73401e-06
-9.73906e-08
1.85092e-06
-6.0718e-08
1.81779e-06
5.63666e-08
1.84362e-06
4.22048e-08
1.68725e-06
1.07622e-07
1.65192e-06
-1.74141e-08
1.45497e-06
-1.17746e-07
1.5391e-06
2.56532e-07
1.93087e-06
6.71301e-08
1.45606e-06
-1.0862e-07
1.49686e-06
5.10891e-07
2.08278e-06
1.65104e-07
1.20511e-06
-1.86859e-07
1.19795e-06
7.69283e-07
2.15337e-06
2.86599e-07
7.86281e-07
-1.28141e-07
5.37221e-07
-8.84099e-07
8.33295e-07
-4.69749e-06
3.58719e-06
-5.49743e-06
2.131e-07
-6.24745e-06
1.06181e-07
-6.88499e-06
3.27525e-08
-7.98686e-06
2.60618e-08
-7.46499e-06
-2.79135e-06
-7.58459e-06
-2.98372e-06
-8.00579e-06
-3.81238e-06
-7.35163e-06
-6.77315e-06
-4.21247e-06
-1.15404e-05
1.61004e-17
-1.39666e-05
4.21247e-06
-1.39666e-05
7.35163e-06
-1.15404e-05
8.00579e-06
-6.77315e-06
7.58459e-06
-3.81238e-06
7.46499e-06
-2.98372e-06
7.98686e-06
-2.79135e-06
6.88499e-06
2.60618e-08
6.24745e-06
3.27525e-08
5.49743e-06
1.06181e-07
4.69749e-06
2.131e-07
8.84099e-07
3.58719e-06
1.28141e-07
8.33295e-07
-2.86599e-07
5.37221e-07
-7.69283e-07
7.86281e-07
1.86859e-07
2.15337e-06
-1.65104e-07
1.19795e-06
-5.10891e-07
1.20511e-06
1.0862e-07
2.08278e-06
-6.71301e-08
1.49686e-06
-2.56532e-07
1.45606e-06
1.17746e-07
1.93087e-06
1.74141e-08
1.5391e-06
-1.07622e-07
1.45497e-06
-4.22048e-08
1.65192e-06
-5.63666e-08
1.68725e-06
6.0718e-08
1.84362e-06
9.73906e-08
1.81779e-06
2.12177e-07
1.85092e-06
2.49864e-07
1.73401e-06
3.07209e-07
1.65222e-06
3.32848e-07
1.52283e-06
3.70085e-07
1.40847e-06
4.02304e-07
1.25762e-06
3.81883e-07
1.04784e-06
3.28633e-07
8.57605e-07
2.63296e-07
7.15171e-07
1.95698e-07
6.17027e-07
1.29139e-07
5.52972e-07
6.4102e-08
5.14593e-07
4.9663e-07
-6.58039e-08
5.62434e-07
-1.32019e-07
5.80808e-07
-1.98583e-07
6.19537e-07
-2.64178e-07
6.82622e-07
-3.24734e-07
7.75727e-07
-3.71154e-07
9.04025e-07
-3.88647e-07
1.06533e-06
-3.6809e-07
1.23707e-06
-3.36399e-07
1.37678e-06
-3.04507e-07
1.49093e-06
-2.53546e-07
1.60126e-06
-2.03401e-07
1.68386e-06
-1.1513e-07
1.76265e-06
-6.0118e-08
1.76277e-06
2.26093e-08
1.76089e-06
3.74317e-08
1.67242e-06
6.86532e-08
1.6207e-06
1.99841e-09
1.52163e-06
-3.09008e-08
1.572e-06
1.623e-07
1.73767e-06
8.38611e-08
1.5345e-06
2.77977e-08
1.55292e-06
3.4026e-07
1.77032e-06
1.79294e-07
1.36608e-06
3.4642e-08
1.3426e-06
5.00938e-07
1.68707e-06
2.51891e-07
1.03533e-06
-6.60862e-08
8.55198e-07
-3.875e-07
1.15471e-06
8.97866e-07
2.30182e-06
3.09678e-07
8.01288e-07
-2.12177e-07
6.28036e-07
-7.32187e-07
5.52763e-07
-1.5961e-06
8.89971e-07
-4.61495e-06
2.27503e-07
-7.67558e-06
7.69018e-08
-1.15324e-05
4.44724e-08
-1.34918e-05
-4.81376e-06
-7.49851e-06
-1.75337e-05
2.44214e-18
-2.14651e-05
7.49851e-06
-2.14651e-05
1.34918e-05
-1.75337e-05
1.15324e-05
-4.81376e-06
7.67558e-06
4.44724e-08
4.61495e-06
7.69018e-08
1.5961e-06
2.27503e-07
7.32187e-07
8.89971e-07
2.12177e-07
5.52763e-07
-3.09678e-07
6.28036e-07
-8.97866e-07
8.01288e-07
3.875e-07
2.30182e-06
6.60862e-08
1.15471e-06
-2.51891e-07
8.55198e-07
-5.00938e-07
1.03533e-06
-3.4642e-08
1.68707e-06
-1.79294e-07
1.3426e-06
-3.4026e-07
1.36608e-06
-2.77977e-08
1.77032e-06
-8.38611e-08
1.55292e-06
-1.623e-07
1.5345e-06
3.09008e-08
1.73767e-06
-1.99841e-09
1.572e-06
-6.86532e-08
1.52163e-06
-3.74317e-08
1.6207e-06
-2.26093e-08
1.67242e-06
6.0118e-08
1.76089e-06
1.1513e-07
1.76277e-06
2.03401e-07
1.76265e-06
2.53546e-07
1.68386e-06
3.04507e-07
1.60126e-06
3.36399e-07
1.49093e-06
3.6809e-07
1.37678e-06
3.88647e-07
1.23707e-06
3.71154e-07
1.06533e-06
3.24734e-07
9.04025e-07
2.64178e-07
7.75727e-07
1.98583e-07
6.82622e-07
1.32019e-07
6.19537e-07
6.58039e-08
5.80808e-07
5.62434e-07
-6.66322e-08
6.29066e-07
-1.33117e-07
6.47293e-07
-1.98779e-07
6.85198e-07
-2.61668e-07
7.45512e-07
-3.1747e-07
8.31529e-07
-3.58427e-07
9.44982e-07
-3.74466e-07
1.08137e-06
-3.61581e-07
1.22418e-06
-3.34532e-07
1.34973e-06
-3.00707e-07
1.45711e-06
-2.53174e-07
1.55372e-06
-1.99326e-07
1.63001e-06
-1.26241e-07
1.68957e-06
-6.65057e-08
1.70304e-06
-1.89225e-09
1.69628e-06
2.54504e-08
1.64508e-06
4.5412e-08
1.60073e-06
1.73904e-08
1.54965e-06
1.60872e-08
1.57331e-06
1.16721e-07
1.63704e-06
9.75387e-08
1.55368e-06
9.60757e-08
1.55439e-06
2.51251e-07
1.61515e-06
1.89572e-07
1.42776e-06
1.41918e-07
1.39026e-06
3.52819e-07
1.47617e-06
2.21937e-07
1.16621e-06
1.78741e-08
1.05926e-06
-7.89486e-08
1.25153e-06
5.32108e-07
1.69077e-06
2.87395e-07
1.046e-06
2.44629e-08
8.90967e-07
8.63517e-08
4.90874e-07
4.50439e-07
5.25885e-07
2.9867e-07
3.79271e-07
7.51553e-08
3.00417e-07
-1.79344e-07
2.98972e-07
-4.75003e-06
-2.43078e-07
-9.11369e-06
-1.317e-05
-5.18026e-17
-3.05788e-05
9.11369e-06
-3.05788e-05
4.75003e-06
-1.317e-05
1.79344e-07
-2.43078e-07
-7.51553e-08
2.98972e-07
-2.9867e-07
3.00417e-07
-4.50439e-07
3.79271e-07
-8.63517e-08
5.25885e-07
-2.44629e-08
4.90874e-07
-2.87395e-07
8.90967e-07
-5.32108e-07
1.046e-06
7.89486e-08
1.69077e-06
-1.78741e-08
1.25153e-06
-2.21937e-07
1.05926e-06
-3.52819e-07
1.16621e-06
-1.41918e-07
1.47617e-06
-1.89572e-07
1.39026e-06
-2.51251e-07
1.42776e-06
-9.60757e-08
1.61515e-06
-9.75387e-08
1.55439e-06
-1.16721e-07
1.55368e-06
-1.60872e-08
1.63704e-06
-1.73904e-08
1.57331e-06
-4.5412e-08
1.54965e-06
-2.54504e-08
1.60073e-06
1.89225e-09
1.64508e-06
6.65057e-08
1.69628e-06
1.26241e-07
1.70304e-06
1.99326e-07
1.68957e-06
2.53174e-07
1.63001e-06
3.00707e-07
1.55372e-06
3.34532e-07
1.45711e-06
3.61581e-07
1.34973e-06
3.74466e-07
1.22418e-06
3.58427e-07
1.08137e-06
3.1747e-07
9.44982e-07
2.61668e-07
8.31529e-07
1.98779e-07
7.45512e-07
1.33117e-07
6.85198e-07
6.66322e-08
6.47293e-07
6.29066e-07
-6.64686e-08
6.95535e-07
-1.32249e-07
7.13074e-07
-1.96136e-07
7.49085e-07
-2.55785e-07
8.05161e-07
-3.07033e-07
8.82777e-07
-3.43632e-07
9.8158e-07
-3.58891e-07
1.09663e-06
-3.51025e-07
1.21632e-06
-3.27952e-07
1.32666e-06
-2.94757e-07
1.42391e-06
-2.49999e-07
1.50896e-06
-1.97011e-07
1.57703e-06
-1.33576e-07
1.62613e-06
-7.53973e-08
1.64486e-06
-2.0658e-08
1.64154e-06
1.18194e-08
1.6126e-06
3.12674e-08
1.58129e-06
2.76612e-08
1.55325e-06
4.07752e-08
1.56019e-06
9.77692e-08
1.58004e-06
1.07238e-07
1.54421e-06
1.2743e-07
1.53419e-06
2.07568e-07
1.53501e-06
1.94318e-07
1.44101e-06
1.86839e-07
1.39774e-06
2.74484e-07
1.38852e-06
2.04609e-07
1.23609e-06
8.93875e-08
1.17448e-06
7.28228e-08
1.2681e-06
3.49619e-07
1.41397e-06
2.58954e-07
1.13667e-06
1.34121e-07
1.0158e-06
1.5904e-07
4.65955e-07
2.24668e-07
4.60257e-07
1.82704e-07
4.21235e-07
9.20489e-08
3.91072e-07
5.63626e-09
3.85384e-07
-3.5766e-08
-2.01676e-07
-1.61682e-06
-1.1589e-05
-6.8684e-17
-3.21956e-05
1.61682e-06
-3.21956e-05
3.5766e-08
-1.1589e-05
-5.63626e-09
-2.01676e-07
-9.20489e-08
3.85384e-07
-1.82704e-07
3.91072e-07
-2.24668e-07
4.21235e-07
-1.5904e-07
4.60257e-07
-1.34121e-07
4.65955e-07
-2.58954e-07
1.0158e-06
-3.49619e-07
1.13667e-06
-7.28228e-08
1.41397e-06
-8.93875e-08
1.2681e-06
-2.04609e-07
1.17448e-06
-2.74484e-07
1.23609e-06
-1.86839e-07
1.38852e-06
-1.94318e-07
1.39774e-06
-2.07568e-07
1.44101e-06
-1.2743e-07
1.53501e-06
-1.07238e-07
1.53419e-06
-9.77692e-08
1.54421e-06
-4.07752e-08
1.58004e-06
-2.76612e-08
1.56019e-06
-3.12674e-08
1.55325e-06
-1.18194e-08
1.58129e-06
2.0658e-08
1.6126e-06
7.53973e-08
1.64154e-06
1.33576e-07
1.64486e-06
1.97011e-07
1.62613e-06
2.49999e-07
1.57703e-06
2.94757e-07
1.50896e-06
3.27952e-07
1.42391e-06
3.51025e-07
1.32666e-06
3.58891e-07
1.21632e-06
3.43632e-07
1.09663e-06
3.07033e-07
9.8158e-07
2.55785e-07
8.82777e-07
1.96136e-07
8.05161e-07
1.32249e-07
7.49085e-07
6.64686e-08
7.13074e-07
6.95535e-07
-6.52465e-08
7.60781e-07
-1.29331e-07
7.77158e-07
-1.90642e-07
8.10396e-07
-2.46663e-07
8.61182e-07
-2.93622e-07
9.29735e-07
-3.26671e-07
1.01463e-06
-3.41382e-07
1.11134e-06
-3.36836e-07
1.21177e-06
-3.17241e-07
1.30706e-06
-2.86162e-07
1.39283e-06
-2.44488e-07
1.46729e-06
-1.94645e-07
1.52718e-06
-1.38333e-07
1.56982e-06
-8.41459e-08
1.59067e-06
-3.52933e-08
1.59269e-06
-7.10101e-10
1.57802e-06
2.20548e-08
1.55852e-06
3.33695e-08
1.54194e-06
5.33907e-08
1.54017e-06
9.15913e-08
1.54184e-06
1.13246e-07
1.52256e-06
1.40124e-07
1.50732e-06
1.86623e-07
1.48851e-06
1.9424e-07
1.43339e-06
2.00907e-07
1.39107e-06
2.34503e-07
1.35493e-06
1.97523e-07
1.27306e-06
1.38917e-07
1.23309e-06
1.43566e-07
1.26345e-06
2.62393e-07
1.29514e-06
2.31253e-07
1.16781e-06
1.66815e-07
1.08024e-06
1.61845e-07
4.70926e-07
1.60168e-07
4.61933e-07
1.33721e-07
4.47683e-07
8.89651e-08
4.35828e-07
4.28768e-08
4.31473e-07
1.45032e-08
-1.73302e-07
-3.94148e-07
-1.11803e-05
8.2172e-18
-3.25898e-05
3.94148e-07
-3.25898e-05
-1.45032e-08
-1.11803e-05
-4.28768e-08
-1.73302e-07
-8.89651e-08
4.31473e-07
-1.33721e-07
4.35828e-07
-1.60168e-07
4.47683e-07
-1.61845e-07
4.61933e-07
-1.66815e-07
4.70926e-07
-2.31253e-07
1.08024e-06
-2.62393e-07
1.16781e-06
-1.43566e-07
1.29514e-06
-1.38917e-07
1.26345e-06
-1.97523e-07
1.23309e-06
-2.34503e-07
1.27306e-06
-2.00907e-07
1.35493e-06
-1.9424e-07
1.39107e-06
-1.86623e-07
1.43339e-06
-1.40124e-07
1.48851e-06
-1.13246e-07
1.50732e-06
-9.15913e-08
1.52256e-06
-5.33907e-08
1.54184e-06
-3.33695e-08
1.54017e-06
-2.20548e-08
1.54194e-06
7.10101e-10
1.55852e-06
3.52933e-08
1.57802e-06
8.41459e-08
1.59269e-06
1.38333e-07
1.59067e-06
1.94645e-07
1.56982e-06
2.44488e-07
1.52718e-06
2.86162e-07
1.46729e-06
3.17241e-07
1.39283e-06
3.36836e-07
1.30706e-06
3.41382e-07
1.21177e-06
3.26671e-07
1.11134e-06
2.93622e-07
1.01463e-06
2.46663e-07
9.29735e-07
1.90642e-07
8.61182e-07
1.29331e-07
8.10396e-07
6.52465e-08
7.77158e-07
7.60781e-07
-6.29618e-08
8.23743e-07
-1.24395e-07
8.38591e-07
-1.82425e-07
8.68426e-07
-2.34537e-07
9.13295e-07
-2.77459e-07
9.72658e-07
-3.07502e-07
1.04467e-06
-3.21682e-07
1.12552e-06
-3.19397e-07
1.20949e-06
-3.02904e-07
1.29057e-06
-2.7476e-07
1.36469e-06
-2.36701e-07
1.42923e-06
-1.91094e-07
1.48158e-06
-1.40776e-07
1.5195e-06
-9.12335e-08
1.54113e-06
-4.64156e-08
1.54787e-06
-1.10211e-08
1.54263e-06
1.54795e-08
1.53202e-06
3.56724e-08
1.52175e-06
5.94382e-08
1.51641e-06
9.03298e-08
1.51095e-06
1.16205e-07
1.49668e-06
1.43813e-07
1.47971e-06
1.75741e-07
1.45658e-06
1.90818e-07
1.41831e-06
2.01374e-07
1.38051e-06
2.14209e-07
1.34209e-06
1.9565e-07
1.29162e-06
1.68314e-07
1.26043e-06
1.74117e-07
1.25764e-06
2.20912e-07
1.24835e-06
2.07647e-07
1.18107e-06
1.67945e-07
1.11994e-06
1.53602e-07
4.85268e-07
1.37783e-07
4.77752e-07
1.15146e-07
4.70319e-07
8.6509e-08
4.64465e-07
5.66445e-08
4.61337e-07
3.24169e-08
-1.49074e-07
-2.29206e-07
-1.09187e-05
-1.97842e-18
-3.2819e-05
2.29206e-07
-3.2819e-05
-3.24169e-08
-1.09187e-05
-5.66445e-08
-1.49074e-07
-8.6509e-08
4.61337e-07
-1.15146e-07
4.64465e-07
-1.37783e-07
4.70319e-07
-1.53602e-07
4.77752e-07
-1.67945e-07
4.85268e-07
-2.07647e-07
1.11994e-06
-2.20912e-07
1.18107e-06
-1.74117e-07
1.24835e-06
-1.68314e-07
1.25764e-06
-1.9565e-07
1.26043e-06
-2.14209e-07
1.29162e-06
-2.01374e-07
1.34209e-06
-1.90818e-07
1.38051e-06
-1.75741e-07
1.41831e-06
-1.43813e-07
1.45658e-06
-1.16205e-07
1.47971e-06
-9.03298e-08
1.49668e-06
-5.94382e-08
1.51095e-06
-3.56724e-08
1.51641e-06
-1.54795e-08
1.52175e-06
1.10211e-08
1.53202e-06
4.64156e-08
1.54263e-06
9.12335e-08
1.54787e-06
1.40776e-07
1.54113e-06
1.91094e-07
1.5195e-06
2.36701e-07
1.48158e-06
2.7476e-07
1.42923e-06
3.02904e-07
1.36469e-06
3.19397e-07
1.29057e-06
3.21682e-07
1.20949e-06
3.07502e-07
1.12552e-06
2.77459e-07
1.04467e-06
2.34537e-07
9.72658e-07
1.82425e-07