/*--------------------------------*- C++ -*----------------------------------*\
  =========                 |
  \\      /  F ield         | OpenFOAM: The Open Source CFD Toolbox
   \\    /   O peration     | Website:  https://openfoam.org
    \\  /    A nd           | Version:  10
     \\/     M anipulation  |
\*---------------------------------------------------------------------------*/
FoamFile
{
    format      ascii;
    class       volScalarField;
    location    "0.004";
    object      pPrime2Mean;
}
// * * * * * * * * * * * * * * * * * * * * * * * * * * * * * * * * * * * * * //

dimensions      [0 4 -4 0 0 0 0];

internalField   nonuniform List<scalar> 
12225
(
1.0181e+08
1.00178e+08
9.85006e+07
9.68835e+07
9.53305e+07
9.3837e+07
9.23987e+07
9.10111e+07
8.96697e+07
8.83697e+07
8.71056e+07
8.58716e+07
8.46603e+07
8.34626e+07
8.22658e+07
8.10504e+07
7.97814e+07
7.83706e+07
1.01812e+08
1.00179e+08
9.85013e+07
9.68843e+07
9.53314e+07
9.3838e+07
9.23999e+07
9.10126e+07
8.96715e+07
8.83719e+07
8.71085e+07
8.58753e+07
8.46652e+07
8.34695e+07
8.22761e+07
8.1067e+07
7.98129e+07
7.84469e+07
1.01815e+08
1.0018e+08
9.85028e+07
9.6886e+07
9.53333e+07
9.38403e+07
9.24025e+07
9.10158e+07
8.96755e+07
8.83769e+07
8.71148e+07
8.58834e+07
8.46761e+07
8.34846e+07
8.22982e+07
8.11023e+07
7.98759e+07
7.8593e+07
1.01817e+08
1.00182e+08
9.85053e+07
9.68888e+07
9.53365e+07
9.3844e+07
9.2407e+07
9.10212e+07
8.96821e+07
8.83851e+07
8.71252e+07
8.58969e+07
8.4694e+07
8.35092e+07
8.23337e+07
8.11571e+07
7.99684e+07
7.87686e+07
1.0182e+08
1.00186e+08
9.8509e+07
9.68929e+07
9.53413e+07
9.38495e+07
9.24135e+07
9.10291e+07
8.96917e+07
8.83971e+07
8.71403e+07
8.59164e+07
8.47197e+07
8.35442e+07
8.23833e+07
8.12308e+07
8.00844e+07
7.89584e+07
1.01823e+08
1.0019e+08
9.85141e+07
9.68986e+07
9.53478e+07
9.38571e+07
9.24226e+07
9.10399e+07
8.9705e+07
8.84135e+07
8.7161e+07
8.59429e+07
8.47543e+07
8.35906e+07
8.24473e+07
8.13222e+07
8.02187e+07
7.9155e+07
1.01828e+08
1.00196e+08
9.85209e+07
9.69062e+07
9.53564e+07
9.38672e+07
9.24345e+07
9.10542e+07
8.97224e+07
8.8435e+07
8.71879e+07
8.5977e+07
8.47984e+07
8.36487e+07
8.25255e+07
8.14294e+07
8.03668e+07
7.93549e+07
1.01834e+08
1.00204e+08
9.85296e+07
9.6916e+07
9.53675e+07
9.38801e+07
9.24497e+07
9.10724e+07
8.97445e+07
8.84622e+07
8.72216e+07
8.60194e+07
8.48526e+07
8.37187e+07
8.26172e+07
8.15504e+07
8.05254e+07
7.95566e+07
1.01844e+08
1.00214e+08
9.85407e+07
9.69283e+07
9.53814e+07
9.38962e+07
9.24686e+07
9.10951e+07
8.97719e+07
8.84956e+07
8.72628e+07
8.60707e+07
8.4917e+07
8.38005e+07
8.27214e+07
8.16831e+07
8.06921e+07
7.97592e+07
1.01855e+08
1.00227e+08
9.85545e+07
9.69434e+07
9.53985e+07
9.39159e+07
9.24918e+07
9.11227e+07
8.9805e+07
8.85358e+07
8.73119e+07
8.61312e+07
8.49919e+07
8.38935e+07
8.2837e+07
8.18256e+07
8.08649e+07
7.99624e+07
1.01874e+08
1.00244e+08
9.85714e+07
9.69618e+07
9.54192e+07
9.39397e+07
9.25196e+07
9.11556e+07
8.98444e+07
8.85832e+07
8.73693e+07
8.6201e+07
8.50769e+07
8.39971e+07
8.29626e+07
8.19764e+07
8.10425e+07
8.01658e+07
1.01889e+08
1.00261e+08
9.85901e+07
9.6982e+07
9.54418e+07
9.39656e+07
9.25498e+07
9.11912e+07
8.98866e+07
8.86335e+07
8.74297e+07
8.62734e+07
8.51638e+07
8.41009e+07
8.30859e+07
8.21208e+07
8.12086e+07
8.03523e+07
1.01913e+08
1.00282e+08
9.86115e+07
9.70051e+07
9.54676e+07
9.3995e+07
9.25839e+07
9.12311e+07
8.99337e+07
8.86893e+07
8.74959e+07
8.63521e+07
8.5257e+07
8.42106e+07
8.32139e+07
8.22683e+07
8.13754e+07
8.0537e+07
1.01943e+08
1.00311e+08
9.86399e+07
9.70356e+07
9.55015e+07
9.40336e+07
9.26284e+07
9.12829e+07
8.99944e+07
8.87606e+07
8.75797e+07
8.64502e+07
8.53715e+07
8.43434e+07
8.33663e+07
8.24407e+07
8.15674e+07
8.07468e+07
1.01983e+08
1.00347e+08
9.86772e+07
9.70756e+07
9.55459e+07
9.40839e+07
9.26862e+07
9.13497e+07
9.00719e+07
8.88507e+07
8.76842e+07
8.6571e+07
8.55104e+07
8.45017e+07
8.35448e+07
8.26394e+07
8.17854e+07
8.09821e+07
1.02028e+08
1.00394e+08
9.87255e+07
9.71277e+07
9.56036e+07
9.41489e+07
9.27601e+07
9.14345e+07
9.01693e+07
8.89625e+07
8.78121e+07
8.67168e+07
8.56753e+07
8.46867e+07
8.375e+07
8.28644e+07
8.20289e+07
8.12422e+07
1.02086e+08
1.00452e+08
9.87868e+07
9.71941e+07
9.56769e+07
9.4231e+07
9.28529e+07
9.15397e+07
9.02888e+07
8.90979e+07
8.7965e+07
8.68884e+07
8.58664e+07
8.48976e+07
8.39805e+07
8.31137e+07
8.22955e+07
8.15242e+07
1.02148e+08
1.00522e+08
9.88623e+07
9.72763e+07
9.57674e+07
9.43317e+07
9.29655e+07
9.16661e+07
9.04305e+07
8.92564e+07
8.81413e+07
8.70834e+07
8.60804e+07
8.51304e+07
8.42317e+07
8.33821e+07
8.25796e+07
8.18222e+07
1.0223e+08
1.00607e+08
9.89535e+07
9.73744e+07
9.58744e+07
9.44494e+07
9.30959e+07
9.18106e+07
9.05905e+07
8.94329e+07
8.83352e+07
8.72948e+07
8.63093e+07
8.53765e+07
8.4494e+07
8.36596e+07
8.28708e+07
8.21256e+07
1.02319e+08
1.00689e+08
9.9035e+07
9.74597e+07
9.5966e+07
9.45491e+07
9.32049e+07
9.19301e+07
9.07212e+07
8.95754e+07
8.84897e+07
8.74614e+07
8.64878e+07
8.55663e+07
8.46945e+07
8.38699e+07
8.30901e+07
8.23527e+07
1.02371e+08
1.00744e+08
9.90912e+07
9.75189e+07
9.60294e+07
9.46177e+07
9.32796e+07
9.20115e+07
9.08097e+07
8.96712e+07
8.8593e+07
8.7572e+07
8.66056e+07
8.5691e+07
8.48255e+07
8.40068e+07
8.32323e+07
8.24995e+07
1.02418e+08
1.00785e+08
9.91324e+07
9.75624e+07
9.60762e+07
9.46684e+07
9.33347e+07
9.20713e+07
9.08745e+07
8.97411e+07
8.86679e+07
8.7652e+07
8.66904e+07
8.57804e+07
8.49193e+07
8.41044e+07
8.33334e+07
8.26038e+07
1.02436e+08
1.0081e+08
9.9161e+07
9.75935e+07
9.61099e+07
9.47051e+07
9.33745e+07
9.21144e+07
9.09211e+07
8.97912e+07
8.87216e+07
8.77091e+07
8.67508e+07
8.58439e+07
8.49857e+07
8.41735e+07
8.34049e+07
8.26773e+07
1.02453e+08
1.00828e+08
9.91805e+07
9.76152e+07
9.61337e+07
9.4731e+07
9.34027e+07
9.2145e+07
9.09541e+07
8.98266e+07
8.87594e+07
8.77492e+07
8.67932e+07
8.58884e+07
8.50322e+07
8.42218e+07
8.34547e+07
8.27286e+07
1.02462e+08
1.00838e+08
9.91935e+07
9.763e+07
9.61501e+07
9.4749e+07
9.34223e+07
9.21661e+07
9.09769e+07
8.98511e+07
8.87855e+07
8.77769e+07
8.68224e+07
8.59191e+07
8.50641e+07
8.42549e+07
8.3489e+07
8.27638e+07
1.0246e+08
1.00844e+08
9.92017e+07
9.76397e+07
9.61611e+07
9.4761e+07
9.34354e+07
9.21803e+07
9.09922e+07
8.98675e+07
8.8803e+07
8.77955e+07
8.6842e+07
8.59396e+07
8.50855e+07
8.42771e+07
8.35119e+07
8.27874e+07
1.02459e+08
1.00847e+08
9.92068e+07
9.7646e+07
9.61681e+07
9.47688e+07
9.34439e+07
9.21895e+07
9.10021e+07
8.98781e+07
8.88143e+07
8.78075e+07
8.68546e+07
8.59528e+07
8.50993e+07
8.42914e+07
8.35266e+07
8.28025e+07
1.0246e+08
1.00849e+08
9.92099e+07
9.76497e+07
9.61724e+07
9.47735e+07
9.3449e+07
9.21951e+07
9.10081e+07
8.98846e+07
8.88212e+07
8.78148e+07
8.68623e+07
8.59608e+07
8.51076e+07
8.43001e+07
8.35356e+07
8.28117e+07
1.02462e+08
1.0085e+08
9.92115e+07
9.76517e+07
9.61747e+07
9.47761e+07
9.34518e+07
9.21981e+07
9.10114e+07
8.98881e+07
8.88249e+07
8.78187e+07
8.68664e+07
8.59651e+07
8.51121e+07
8.43047e+07
8.35404e+07
8.28166e+07
1.02463e+08
1.00851e+08
9.92122e+07
9.76525e+07
9.61756e+07
9.47771e+07
9.34529e+07
9.21994e+07
9.10127e+07
8.98895e+07
8.88264e+07
8.78203e+07
8.68681e+07
8.59669e+07
8.5114e+07
8.43066e+07
8.35423e+07
8.28186e+07
6.62242e+07
6.6219e+07
6.62083e+07
6.61922e+07
6.61704e+07
6.6143e+07
6.61098e+07
6.60707e+07
6.60256e+07
6.59746e+07
6.59174e+07
6.58541e+07
6.57846e+07
6.57089e+07
6.56269e+07
6.55387e+07
6.54441e+07
6.53433e+07
6.52361e+07
6.51227e+07
6.50029e+07
6.4877e+07
6.47447e+07
6.46063e+07
6.44618e+07
6.43111e+07
6.41544e+07
6.39917e+07
6.38231e+07
6.36486e+07
6.34683e+07
6.32823e+07
6.30906e+07
6.28933e+07
6.26905e+07
6.24824e+07
6.22688e+07
6.20501e+07
6.18261e+07
6.15971e+07
6.13631e+07
6.11242e+07
6.08804e+07
6.06319e+07
6.03788e+07
6.01211e+07
5.98589e+07
5.95923e+07
5.93215e+07
5.90464e+07
5.87671e+07
5.84838e+07
5.81965e+07
5.79054e+07
5.76104e+07
5.73116e+07
5.70092e+07
5.67032e+07
5.63936e+07
5.60806e+07
5.57643e+07
5.54446e+07
5.51217e+07
5.47956e+07
5.44664e+07
5.41341e+07
5.37989e+07
5.34607e+07
5.31197e+07
5.27759e+07
5.24293e+07
5.208e+07
5.17281e+07
5.13737e+07
5.10167e+07
5.06572e+07
5.02953e+07
4.9931e+07
4.95644e+07
4.91955e+07
4.88244e+07
4.84512e+07
4.80757e+07
4.76982e+07
4.73187e+07
4.69371e+07
4.65536e+07
4.61682e+07
4.57809e+07
4.53917e+07
4.50008e+07
4.46081e+07
4.42137e+07
4.38176e+07
4.34198e+07
4.30205e+07
4.26196e+07
4.22172e+07
4.18133e+07
4.1408e+07
4.10013e+07
4.05932e+07
4.01837e+07
3.9773e+07
3.9361e+07
3.89477e+07
3.85333e+07
3.81178e+07
3.77011e+07
3.72834e+07
3.68646e+07
3.64449e+07
3.60242e+07
3.56025e+07
3.51801e+07
3.47567e+07
3.43326e+07
3.39078e+07
3.34822e+07
3.3056e+07
3.26291e+07
3.22017e+07
3.17738e+07
3.13453e+07
3.09165e+07
3.04872e+07
3.00576e+07
2.96277e+07
2.91975e+07
2.87671e+07
2.83366e+07
2.7906e+07
2.74754e+07
2.70448e+07
2.66142e+07
2.61838e+07
2.57536e+07
2.53236e+07
2.48939e+07
2.44646e+07
2.40357e+07
2.36073e+07
2.31794e+07
2.27522e+07
2.23257e+07
2.18999e+07
2.1475e+07
2.10509e+07
2.06279e+07
2.02059e+07
1.9785e+07
1.93653e+07
1.89469e+07
1.85299e+07
1.81143e+07
1.77003e+07
1.72879e+07
1.68772e+07
1.64684e+07
1.60614e+07
1.56564e+07
1.52536e+07
1.48529e+07
1.44546e+07
1.40587e+07
1.36653e+07
1.32746e+07
1.28867e+07
1.25017e+07
1.21198e+07
1.17412e+07
1.13659e+07
1.09943e+07
1.06265e+07
1.02629e+07
9.90375e+06
9.5496e+06
9.20116e+06
8.85964e+06
8.52771e+06
6.62482e+07
6.62429e+07
6.62322e+07
6.62159e+07
6.6194e+07
6.61664e+07
6.6133e+07
6.60937e+07
6.60484e+07
6.5997e+07
6.59395e+07
6.58759e+07
6.5806e+07
6.57299e+07
6.56476e+07
6.55589e+07
6.54639e+07
6.53626e+07
6.52549e+07
6.5141e+07
6.50208e+07
6.48943e+07
6.47616e+07
6.46227e+07
6.44776e+07
6.43264e+07
6.41692e+07
6.4006e+07
6.38369e+07
6.36619e+07
6.34811e+07
6.32946e+07
6.31024e+07
6.29047e+07
6.27014e+07
6.24928e+07
6.22788e+07
6.20596e+07
6.18353e+07
6.16058e+07
6.13714e+07
6.11321e+07
6.0888e+07
6.06392e+07
6.03857e+07
6.01277e+07
5.98652e+07
5.95983e+07
5.93271e+07
5.90518e+07
5.87722e+07
5.84887e+07
5.82011e+07
5.79097e+07
5.76145e+07
5.73155e+07
5.70129e+07
5.67067e+07
5.63969e+07
5.60838e+07
5.57672e+07
5.54474e+07
5.51243e+07
5.47981e+07
5.44687e+07
5.41363e+07
5.3801e+07
5.34627e+07
5.31215e+07
5.27776e+07
5.24309e+07
5.20816e+07
5.17296e+07
5.1375e+07
5.10179e+07
5.06584e+07
5.02964e+07
4.99321e+07
4.95654e+07
4.91965e+07
4.88253e+07
4.8452e+07
4.80765e+07
4.76989e+07
4.73193e+07
4.69377e+07
4.65542e+07
4.61687e+07
4.57814e+07
4.53922e+07
4.50012e+07
4.46085e+07
4.4214e+07
4.38179e+07
4.34202e+07
4.30208e+07
4.26199e+07
4.22175e+07
4.18136e+07
4.14082e+07
4.10015e+07
4.05933e+07
4.01839e+07
3.97731e+07
3.93611e+07
3.89479e+07
3.85335e+07
3.81179e+07
3.77012e+07
3.72835e+07
3.68647e+07
3.64449e+07
3.60242e+07
3.56026e+07
3.51801e+07
3.47568e+07
3.43327e+07
3.39078e+07
3.34823e+07
3.3056e+07
3.26292e+07
3.22018e+07
3.17738e+07
3.13454e+07
3.09165e+07
3.04872e+07
3.00576e+07
2.96277e+07
2.91975e+07
2.87672e+07
2.83367e+07
2.79061e+07
2.74754e+07
2.70448e+07
2.66143e+07
2.61838e+07
2.57536e+07
2.53236e+07
2.48939e+07
2.44646e+07
2.40357e+07
2.36073e+07
2.31794e+07
2.27522e+07
2.23257e+07
2.18999e+07
2.1475e+07
2.10509e+07
2.06279e+07
2.02059e+07
1.9785e+07
1.93653e+07
1.89469e+07
1.85299e+07
1.81143e+07
1.77003e+07
1.72879e+07
1.68772e+07
1.64684e+07
1.60614e+07
1.56564e+07
1.52536e+07
1.48529e+07
1.44546e+07
1.40587e+07
1.36653e+07
1.32746e+07
1.28867e+07
1.25017e+07
1.21198e+07
1.17411e+07
1.13658e+07
1.09942e+07
1.06264e+07
1.02627e+07
9.90347e+06
9.54919e+06
9.20052e+06
8.8585e+06
8.52503e+06
6.62963e+07
6.62909e+07
6.628e+07
6.62636e+07
6.62414e+07
6.62134e+07
6.61796e+07
6.61398e+07
6.6094e+07
6.6042e+07
6.59839e+07
6.59196e+07
6.5849e+07
6.57721e+07
6.56889e+07
6.55993e+07
6.55035e+07
6.54012e+07
6.52926e+07
6.51777e+07
6.50565e+07
6.4929e+07
6.47953e+07
6.46553e+07
6.45092e+07
6.4357e+07
6.41988e+07
6.40346e+07
6.38644e+07
6.36884e+07
6.35066e+07
6.33191e+07
6.3126e+07
6.29273e+07
6.27232e+07
6.25136e+07
6.22988e+07
6.20787e+07
6.18535e+07
6.16233e+07
6.13881e+07
6.11481e+07
6.09032e+07
6.06537e+07
6.03995e+07
6.01408e+07
5.98777e+07
5.96102e+07
5.93384e+07
5.90625e+07
5.87824e+07
5.84984e+07
5.82103e+07
5.79184e+07
5.76227e+07
5.73233e+07
5.70203e+07
5.67137e+07
5.64036e+07
5.609e+07
5.57731e+07
5.5453e+07
5.51296e+07
5.4803e+07
5.44734e+07
5.41408e+07
5.38051e+07
5.34666e+07
5.31252e+07
5.27811e+07
5.24342e+07
5.20846e+07
5.17325e+07
5.13777e+07
5.10205e+07
5.06608e+07
5.02986e+07
4.99342e+07
4.95674e+07
4.91983e+07
4.8827e+07
4.84536e+07
4.8078e+07
4.77004e+07
4.73207e+07
4.6939e+07
4.65553e+07
4.61698e+07
4.57824e+07
4.53931e+07
4.50021e+07
4.46093e+07
4.42148e+07
4.38186e+07
4.34208e+07
4.30214e+07
4.26205e+07
4.2218e+07
4.18141e+07
4.14087e+07
4.10019e+07
4.05937e+07
4.01842e+07
3.97734e+07
3.93614e+07
3.89481e+07
3.85337e+07
3.81181e+07
3.77014e+07
3.72837e+07
3.68649e+07
3.64451e+07
3.60244e+07
3.56027e+07
3.51802e+07
3.47569e+07
3.43328e+07
3.39079e+07
3.34823e+07
3.30561e+07
3.26293e+07
3.22018e+07
3.17739e+07
3.13454e+07
3.09165e+07
3.04873e+07
3.00576e+07
2.96277e+07
2.91976e+07
2.87672e+07
2.83367e+07
2.79061e+07
2.74754e+07
2.70448e+07
2.66143e+07
2.61838e+07
2.57536e+07
2.53236e+07
2.48939e+07
2.44646e+07
2.40357e+07
2.36073e+07
2.31794e+07
2.27522e+07
2.23257e+07
2.18999e+07
2.1475e+07
2.10509e+07
2.06279e+07
2.02059e+07
1.9785e+07
1.93653e+07
1.89469e+07
1.85299e+07
1.81143e+07
1.77003e+07
1.72879e+07
1.68772e+07
1.64684e+07
1.60614e+07
1.56564e+07
1.52536e+07
1.48529e+07
1.44545e+07
1.40586e+07
1.36652e+07
1.32745e+07
1.28866e+07
1.25016e+07
1.21197e+07
1.1741e+07
1.13657e+07
1.0994e+07
1.06261e+07
1.02623e+07
9.90292e+06
9.5484e+06
9.1993e+06
8.85642e+06
8.52081e+06
6.63689e+07
6.63633e+07
6.63522e+07
6.63354e+07
6.63128e+07
6.62843e+07
6.62498e+07
6.62093e+07
6.61626e+07
6.61098e+07
6.60507e+07
6.59853e+07
6.59136e+07
6.58355e+07
6.57511e+07
6.56602e+07
6.55629e+07
6.54593e+07
6.53493e+07
6.52329e+07
6.51101e+07
6.49811e+07
6.48458e+07
6.47043e+07
6.45567e+07
6.44029e+07
6.42431e+07
6.40774e+07
6.39057e+07
6.37281e+07
6.35449e+07
6.33559e+07
6.31613e+07
6.29612e+07
6.27557e+07
6.25448e+07
6.23286e+07
6.21073e+07
6.18809e+07
6.16494e+07
6.14131e+07
6.11719e+07
6.09259e+07
6.06753e+07
6.04201e+07
6.01604e+07
5.98964e+07
5.9628e+07
5.93553e+07
5.90785e+07
5.87977e+07
5.85128e+07
5.8224e+07
5.79314e+07
5.76351e+07
5.7335e+07
5.70313e+07
5.67241e+07
5.64135e+07
5.60994e+07
5.5782e+07
5.54613e+07
5.51375e+07
5.48105e+07
5.44804e+07
5.41474e+07
5.38114e+07
5.34725e+07
5.31308e+07
5.27863e+07
5.24391e+07
5.20892e+07
5.17368e+07
5.13818e+07
5.10243e+07
5.06643e+07
5.0302e+07
4.99373e+07
4.95703e+07
4.92011e+07
4.88296e+07
4.8456e+07
4.80803e+07
4.77025e+07
4.73226e+07
4.69408e+07
4.6557e+07
4.61714e+07
4.57838e+07
4.53945e+07
4.50033e+07
4.46105e+07
4.42159e+07
4.38196e+07
4.34218e+07
4.30223e+07
4.26213e+07
4.22188e+07
4.18148e+07
4.14093e+07
4.10025e+07
4.05943e+07
4.01847e+07
3.97739e+07
3.93618e+07
3.89485e+07
3.85341e+07
3.81185e+07
3.77017e+07
3.7284e+07
3.68651e+07
3.64453e+07
3.60246e+07
3.56029e+07
3.51804e+07
3.47571e+07
3.43329e+07
3.39081e+07
3.34825e+07
3.30562e+07
3.26294e+07
3.22019e+07
3.1774e+07
3.13455e+07
3.09166e+07
3.04873e+07
3.00577e+07
2.96278e+07
2.91976e+07
2.87672e+07
2.83367e+07
2.79061e+07
2.74755e+07
2.70448e+07
2.66143e+07
2.61839e+07
2.57536e+07
2.53236e+07
2.48939e+07
2.44646e+07
2.40357e+07
2.36073e+07
2.31795e+07
2.27522e+07
2.23257e+07
2.18999e+07
2.1475e+07
2.1051e+07
2.06279e+07
2.02059e+07
1.9785e+07
1.93653e+07
1.89469e+07
1.85299e+07
1.81143e+07
1.77003e+07
1.72879e+07
1.68772e+07
1.64683e+07
1.60614e+07
1.56564e+07
1.52535e+07
1.48529e+07
1.44545e+07
1.40586e+07
1.36652e+07
1.32745e+07
1.28865e+07
1.25015e+07
1.21195e+07
1.17408e+07
1.13654e+07
1.09936e+07
1.06256e+07
1.02617e+07
9.90212e+06
9.54726e+06
9.19758e+06
8.85366e+06
8.51591e+06
6.64663e+07
6.64605e+07
6.6449e+07
6.64317e+07
6.64085e+07
6.63793e+07
6.6344e+07
6.63025e+07
6.62548e+07
6.62007e+07
6.61403e+07
6.60734e+07
6.60002e+07
6.59205e+07
6.58343e+07
6.57416e+07
6.56425e+07
6.5537e+07
6.5425e+07
6.53066e+07
6.51818e+07
6.50507e+07
6.49133e+07
6.47697e+07
6.462e+07
6.44641e+07
6.43022e+07
6.41343e+07
6.39606e+07
6.3781e+07
6.35958e+07
6.34048e+07
6.32083e+07
6.30063e+07
6.27989e+07
6.25862e+07
6.23683e+07
6.21453e+07
6.19172e+07
6.16841e+07
6.14462e+07
6.12035e+07
6.09561e+07
6.0704e+07
6.04475e+07
6.01865e+07
5.99212e+07
5.96515e+07
5.93777e+07
5.90998e+07
5.88179e+07
5.8532e+07
5.82422e+07
5.79487e+07
5.76514e+07
5.73505e+07
5.7046e+07
5.6738e+07
5.64266e+07
5.61118e+07
5.57937e+07
5.54724e+07
5.51479e+07
5.48203e+07
5.44897e+07
5.41561e+07
5.38196e+07
5.34802e+07
5.31381e+07
5.27932e+07
5.24456e+07
5.20953e+07
5.17425e+07
5.13871e+07
5.10293e+07
5.06691e+07
5.03064e+07
4.99414e+07
4.95742e+07
4.92047e+07
4.8833e+07
4.84592e+07
4.80832e+07
4.77052e+07
4.73252e+07
4.69432e+07
4.65593e+07
4.61735e+07
4.57858e+07
4.53963e+07
4.50051e+07
4.46121e+07
4.42174e+07
4.3821e+07
4.3423e+07
4.30235e+07
4.26224e+07
4.22198e+07
4.18157e+07
4.14102e+07
4.10033e+07
4.0595e+07
4.01854e+07
3.97745e+07
3.93624e+07
3.89491e+07
3.85346e+07
3.81189e+07
3.77021e+07
3.72843e+07
3.68655e+07
3.64457e+07
3.60249e+07
3.56032e+07
3.51807e+07
3.47573e+07
3.43331e+07
3.39082e+07
3.34826e+07
3.30564e+07
3.26295e+07
3.2202e+07
3.17741e+07
3.13456e+07
3.09167e+07
3.04874e+07
3.00578e+07
2.96278e+07
2.91977e+07
2.87673e+07
2.83368e+07
2.79062e+07
2.74755e+07
2.70449e+07
2.66143e+07
2.61839e+07
2.57536e+07
2.53236e+07
2.4894e+07
2.44646e+07
2.40357e+07
2.36073e+07
2.31795e+07
2.27522e+07
2.23257e+07
2.18999e+07
2.1475e+07
2.1051e+07
2.06279e+07
2.02059e+07
1.9785e+07
1.93653e+07
1.89469e+07
1.85299e+07
1.81143e+07
1.77003e+07
1.72879e+07
1.68772e+07
1.64683e+07
1.60614e+07
1.56564e+07
1.52535e+07
1.48528e+07
1.44545e+07
1.40585e+07
1.36651e+07
1.32744e+07
1.28864e+07
1.25013e+07
1.21193e+07
1.17405e+07
1.13651e+07
1.09932e+07
1.06251e+07
1.0261e+07
9.9011e+06
9.54582e+06
9.19549e+06
8.85044e+06
8.51075e+06
6.65892e+07
6.65832e+07
6.65712e+07
6.65533e+07
6.65293e+07
6.64992e+07
6.64627e+07
6.642e+07
6.63708e+07
6.63151e+07
6.6253e+07
6.61843e+07
6.61091e+07
6.60272e+07
6.59389e+07
6.58439e+07
6.57424e+07
6.56344e+07
6.55198e+07
6.53989e+07
6.52715e+07
6.51378e+07
6.49977e+07
6.48515e+07
6.4699e+07
6.45405e+07
6.4376e+07
6.42055e+07
6.40291e+07
6.3847e+07
6.36592e+07
6.34658e+07
6.32668e+07
6.30625e+07
6.28528e+07
6.26378e+07
6.24177e+07
6.21925e+07
6.19623e+07
6.17272e+07
6.14874e+07
6.12428e+07
6.09935e+07
6.07397e+07
6.04815e+07
6.02189e+07
5.9952e+07
5.96808e+07
5.94056e+07
5.91263e+07
5.8843e+07
5.85558e+07
5.82648e+07
5.79701e+07
5.76717e+07
5.73697e+07
5.70642e+07
5.67552e+07
5.64429e+07
5.61272e+07
5.58082e+07
5.54861e+07
5.51609e+07
5.48326e+07
5.45013e+07
5.4167e+07
5.38299e+07
5.34899e+07
5.31472e+07
5.28017e+07
5.24536e+07
5.21029e+07
5.17496e+07
5.13938e+07
5.10356e+07
5.06749e+07
5.03119e+07
4.99466e+07
4.9579e+07
4.92092e+07
4.88372e+07
4.84631e+07
4.80869e+07
4.77087e+07
4.73285e+07
4.69462e+07
4.65621e+07
4.61761e+07
4.57883e+07
4.53986e+07
4.50072e+07
4.4614e+07
4.42192e+07
4.38227e+07
4.34246e+07
4.3025e+07
4.26237e+07
4.2221e+07
4.18169e+07
4.14113e+07
4.10043e+07
4.05959e+07
4.01863e+07
3.97753e+07
3.93631e+07
3.89497e+07
3.85352e+07
3.81195e+07
3.77027e+07
3.72848e+07
3.68659e+07
3.64461e+07
3.60253e+07
3.56035e+07
3.5181e+07
3.47576e+07
3.43334e+07
3.39085e+07
3.34828e+07
3.30566e+07
3.26297e+07
3.22022e+07
3.17742e+07
3.13457e+07
3.09168e+07
3.04875e+07
3.00579e+07
2.96279e+07
2.91977e+07
2.87674e+07
2.83368e+07
2.79062e+07
2.74756e+07
2.70449e+07
2.66144e+07
2.61839e+07
2.57537e+07
2.53237e+07
2.4894e+07
2.44646e+07
2.40357e+07
2.36073e+07
2.31795e+07
2.27523e+07
2.23257e+07
2.19e+07
2.1475e+07
2.1051e+07
2.06279e+07
2.02059e+07
1.9785e+07
1.93653e+07
1.89469e+07
1.85299e+07
1.81143e+07
1.77003e+07
1.72879e+07
1.68772e+07
1.64683e+07
1.60613e+07
1.56564e+07
1.52535e+07
1.48528e+07
1.44544e+07
1.40585e+07
1.3665e+07
1.32742e+07
1.28862e+07
1.25011e+07
1.21191e+07
1.17402e+07
1.13647e+07
1.09927e+07
1.06244e+07
1.02601e+07
9.89989e+06
9.54414e+06
9.1931e+06
8.84695e+06
8.50555e+06
6.67384e+07
6.6732e+07
6.67196e+07
6.67009e+07
6.66759e+07
6.66445e+07
6.66067e+07
6.65623e+07
6.65113e+07
6.64537e+07
6.63894e+07
6.63184e+07
6.62407e+07
6.61562e+07
6.60651e+07
6.59673e+07
6.58628e+07
6.57517e+07
6.56341e+07
6.551e+07
6.53794e+07
6.52424e+07
6.50991e+07
6.49496e+07
6.47939e+07
6.46321e+07
6.44643e+07
6.42906e+07
6.41111e+07
6.39259e+07
6.37351e+07
6.35386e+07
6.33368e+07
6.31296e+07
6.2917e+07
6.26994e+07
6.24766e+07
6.22488e+07
6.20162e+07
6.17787e+07
6.15364e+07
6.12896e+07
6.10382e+07
6.07823e+07
6.0522e+07
6.02574e+07
5.99886e+07
5.97157e+07
5.94387e+07
5.91577e+07
5.88729e+07
5.85842e+07
5.82917e+07
5.79956e+07
5.76959e+07
5.73926e+07
5.70858e+07
5.67757e+07
5.64622e+07
5.61455e+07
5.58256e+07
5.55025e+07
5.51763e+07
5.48471e+07
5.4515e+07
5.418e+07
5.38421e+07
5.35014e+07
5.3158e+07
5.28119e+07
5.24632e+07
5.21119e+07
5.17581e+07
5.14018e+07
5.1043e+07
5.06819e+07
5.03185e+07
4.99528e+07
4.95848e+07
4.92146e+07
4.88423e+07
4.84679e+07
4.80914e+07
4.77128e+07
4.73323e+07
4.69498e+07
4.65655e+07
4.61792e+07
4.57912e+07
4.54013e+07
4.50097e+07
4.46164e+07
4.42214e+07
4.38247e+07
4.34265e+07
4.30267e+07
4.26254e+07
4.22225e+07
4.18183e+07
4.14126e+07
4.10055e+07
4.0597e+07
4.01873e+07
3.97763e+07
3.9364e+07
3.89505e+07
3.85359e+07
3.81201e+07
3.77033e+07
3.72854e+07
3.68664e+07
3.64465e+07
3.60257e+07
3.56039e+07
3.51813e+07
3.47579e+07
3.43337e+07
3.39087e+07
3.34831e+07
3.30568e+07
3.26299e+07
3.22024e+07
3.17744e+07
3.13459e+07
3.0917e+07
3.04876e+07
3.0058e+07
2.9628e+07
2.91978e+07
2.87674e+07
2.83369e+07
2.79063e+07
2.74756e+07
2.7045e+07
2.66144e+07
2.6184e+07
2.57537e+07
2.53237e+07
2.4894e+07
2.44647e+07
2.40358e+07
2.36074e+07
2.31795e+07
2.27523e+07
2.23257e+07
2.19e+07
2.1475e+07
2.1051e+07
2.06279e+07
2.02059e+07
1.9785e+07
1.93653e+07
1.89469e+07
1.85299e+07
1.81143e+07
1.77003e+07
1.72879e+07
1.68772e+07
1.64683e+07
1.60613e+07
1.56563e+07
1.52534e+07
1.48527e+07
1.44544e+07
1.40584e+07
1.36649e+07
1.32741e+07
1.28861e+07
1.25009e+07
1.21188e+07
1.17398e+07
1.13642e+07
1.09921e+07
1.06236e+07
1.0259e+07
9.89852e+06
9.54228e+06
9.19052e+06
8.84331e+06
8.50042e+06
6.6915e+07
6.69081e+07
6.6895e+07
6.68754e+07
6.68492e+07
6.68163e+07
6.67768e+07
6.67304e+07
6.66772e+07
6.66171e+07
6.65502e+07
6.64763e+07
6.63955e+07
6.63079e+07
6.62134e+07
6.61121e+07
6.60041e+07
6.58893e+07
6.57679e+07
6.564e+07
6.55055e+07
6.53646e+07
6.52174e+07
6.5064e+07
6.49044e+07
6.47388e+07
6.45672e+07
6.43897e+07
6.42065e+07
6.40176e+07
6.38232e+07
6.36232e+07
6.34179e+07
6.32073e+07
6.29916e+07
6.27707e+07
6.25448e+07
6.23141e+07
6.20785e+07
6.18382e+07
6.15932e+07
6.13437e+07
6.10898e+07
6.08315e+07
6.05688e+07
6.0302e+07
6.0031e+07
5.9756e+07
5.9477e+07
5.91941e+07
5.89074e+07
5.86169e+07
5.83228e+07
5.8025e+07
5.77238e+07
5.7419e+07
5.71109e+07
5.67994e+07
5.64846e+07
5.61667e+07
5.58455e+07
5.55214e+07
5.51941e+07
5.48639e+07
5.45309e+07
5.41949e+07
5.38562e+07
5.35147e+07
5.31705e+07
5.28236e+07
5.24742e+07
5.21223e+07
5.17678e+07
5.14109e+07
5.10516e+07
5.069e+07
5.03261e+07
4.99599e+07
4.95914e+07
4.92208e+07
4.88481e+07
4.84733e+07
4.80964e+07
4.77176e+07
4.73367e+07
4.6954e+07
4.65693e+07
4.61828e+07
4.57945e+07
4.54044e+07
4.50126e+07
4.46191e+07
4.42239e+07
4.38271e+07
4.34287e+07
4.30287e+07
4.26272e+07
4.22243e+07
4.18199e+07
4.1414e+07
4.10068e+07
4.05983e+07
4.01885e+07
3.97773e+07
3.9365e+07
3.89514e+07
3.85367e+07
3.81209e+07
3.7704e+07
3.7286e+07
3.6867e+07
3.64471e+07
3.60262e+07
3.56044e+07
3.51818e+07
3.47583e+07
3.4334e+07
3.39091e+07
3.34834e+07
3.30571e+07
3.26301e+07
3.22026e+07
3.17746e+07
3.13461e+07
3.09171e+07
3.04878e+07
3.00581e+07
2.96281e+07
2.91979e+07
2.87675e+07
2.8337e+07
2.79064e+07
2.74757e+07
2.7045e+07
2.66145e+07
2.6184e+07
2.57538e+07
2.53238e+07
2.4894e+07
2.44647e+07
2.40358e+07
2.36074e+07
2.31795e+07
2.27523e+07
2.23258e+07
2.19e+07
2.1475e+07
2.1051e+07
2.06279e+07
2.02059e+07
1.9785e+07
1.93653e+07
1.89469e+07
1.85299e+07
1.81143e+07
1.77003e+07
1.72879e+07
1.68772e+07
1.64683e+07
1.60613e+07
1.56563e+07
1.52534e+07
1.48527e+07
1.44543e+07
1.40583e+07
1.36648e+07
1.3274e+07
1.28859e+07
1.25007e+07
1.21185e+07
1.17395e+07
1.13637e+07
1.09914e+07
1.06228e+07
1.02579e+07
9.89703e+06
9.54028e+06
9.18781e+06
8.83961e+06
8.49543e+06
6.71201e+07
6.71128e+07
6.70988e+07
6.7078e+07
6.70503e+07
6.70157e+07
6.6974e+07
6.69252e+07
6.68693e+07
6.68063e+07
6.67361e+07
6.66588e+07
6.65743e+07
6.64829e+07
6.63843e+07
6.62789e+07
6.61666e+07
6.60474e+07
6.59215e+07
6.5789e+07
6.565e+07
6.55046e+07
6.53528e+07
6.51948e+07
6.50306e+07
6.48605e+07
6.46845e+07
6.45026e+07
6.43151e+07
6.41219e+07
6.39233e+07
6.37194e+07
6.35101e+07
6.32956e+07
6.30761e+07
6.28516e+07
6.26222e+07
6.2388e+07
6.21491e+07
6.19056e+07
6.16575e+07
6.1405e+07
6.11482e+07
6.08871e+07
6.06218e+07
6.03524e+07
6.00789e+07
5.98016e+07
5.95203e+07
5.92352e+07
5.89464e+07
5.86539e+07
5.83579e+07
5.80583e+07
5.77553e+07
5.74489e+07
5.71391e+07
5.68261e+07
5.65099e+07
5.61905e+07
5.58681e+07
5.55427e+07
5.52143e+07
5.48829e+07
5.45488e+07
5.42118e+07
5.38721e+07
5.35296e+07
5.31846e+07
5.28369e+07
5.24867e+07
5.2134e+07
5.17788e+07
5.14213e+07
5.10614e+07
5.06991e+07
5.03346e+07
4.99679e+07
4.95989e+07
4.92279e+07
4.88547e+07
4.84795e+07
4.81022e+07
4.7723e+07
4.73418e+07
4.69587e+07
4.65737e+07
4.61869e+07
4.57983e+07
4.5408e+07
4.50159e+07
4.46221e+07
4.42267e+07
4.38297e+07
4.34311e+07
4.3031e+07
4.26293e+07
4.22262e+07
4.18217e+07
4.14157e+07
4.10084e+07
4.05997e+07
4.01898e+07
3.97786e+07
3.93661e+07
3.89525e+07
3.85377e+07
3.81218e+07
3.77048e+07
3.72868e+07
3.68677e+07
3.64477e+07
3.60268e+07
3.56049e+07
3.51822e+07
3.47587e+07
3.43344e+07
3.39094e+07
3.34837e+07
3.30574e+07
3.26304e+07
3.22029e+07
3.17748e+07
3.13463e+07
3.09173e+07
3.0488e+07
3.00583e+07
2.96283e+07
2.91981e+07
2.87676e+07
2.83371e+07
2.79064e+07
2.74758e+07
2.70451e+07
2.66145e+07
2.61841e+07
2.57538e+07
2.53238e+07
2.48941e+07
2.44647e+07
2.40358e+07
2.36074e+07
2.31796e+07
2.27523e+07
2.23258e+07
2.19e+07
2.14751e+07
2.1051e+07
2.0628e+07
2.02059e+07
1.9785e+07
1.93654e+07
1.8947e+07
1.85299e+07
1.81143e+07
1.77003e+07
1.72879e+07
1.68772e+07
1.64683e+07
1.60613e+07
1.56563e+07
1.52533e+07
1.48526e+07
1.44542e+07
1.40582e+07
1.36647e+07
1.32738e+07
1.28857e+07
1.25004e+07
1.21181e+07
1.1739e+07
1.13632e+07
1.09907e+07
1.06218e+07
1.02567e+07
9.89545e+06
9.5382e+06
9.18504e+06
8.83593e+06
8.49062e+06
6.73554e+07
6.73474e+07
6.73324e+07
6.73102e+07
6.72807e+07
6.72439e+07
6.71996e+07
6.71479e+07
6.70888e+07
6.70221e+07
6.69481e+07
6.68666e+07
6.67778e+07
6.66817e+07
6.65784e+07
6.6468e+07
6.63506e+07
6.62262e+07
6.60951e+07
6.59573e+07
6.5813e+07
6.56622e+07
6.55051e+07
6.53418e+07
6.51724e+07
6.49971e+07
6.48159e+07
6.4629e+07
6.44366e+07
6.42386e+07
6.40353e+07
6.38267e+07
6.36129e+07
6.33941e+07
6.31704e+07
6.29418e+07
6.27084e+07
6.24703e+07
6.22277e+07
6.19806e+07
6.17291e+07
6.14732e+07
6.12132e+07
6.09489e+07
6.06807e+07
6.04084e+07
6.01322e+07
5.98522e+07
5.95684e+07
5.92809e+07
5.89897e+07
5.8695e+07
5.83969e+07
5.80952e+07
5.77903e+07
5.7482e+07
5.71705e+07
5.68558e+07
5.6538e+07
5.62171e+07
5.58932e+07
5.55663e+07
5.52366e+07
5.4904e+07
5.45687e+07
5.42305e+07
5.38897e+07
5.35463e+07
5.32002e+07
5.28517e+07
5.25006e+07
5.2147e+07
5.17911e+07
5.14328e+07
5.10722e+07
5.07092e+07
5.03441e+07
4.99768e+07
4.96073e+07
4.92357e+07
4.8862e+07
4.84863e+07
4.81086e+07
4.77289e+07
4.73473e+07
4.69639e+07
4.65786e+07
4.61914e+07
4.58025e+07
4.54119e+07
4.50196e+07
4.46255e+07
4.42299e+07
4.38327e+07
4.34339e+07
4.30335e+07
4.26317e+07
4.22284e+07
4.18237e+07
4.14176e+07
4.10101e+07
4.06013e+07
4.01912e+07
3.97799e+07
3.93674e+07
3.89536e+07
3.85387e+07
3.81227e+07
3.77057e+07
3.72876e+07
3.68685e+07
3.64484e+07
3.60274e+07
3.56055e+07
3.51828e+07
3.47592e+07
3.43349e+07
3.39098e+07
3.34841e+07
3.30577e+07
3.26307e+07
3.22031e+07
3.17751e+07
3.13465e+07
3.09175e+07
3.04881e+07
3.00584e+07
2.96284e+07
2.91982e+07
2.87678e+07
2.83372e+07
2.79065e+07
2.74759e+07
2.70452e+07
2.66146e+07
2.61841e+07
2.57539e+07
2.53238e+07
2.48941e+07
2.44648e+07
2.40359e+07
2.36075e+07
2.31796e+07
2.27524e+07
2.23258e+07
2.19e+07
2.14751e+07
2.1051e+07
2.0628e+07
2.02059e+07
1.97851e+07
1.93654e+07
1.8947e+07
1.85299e+07
1.81143e+07
1.77003e+07
1.72879e+07
1.68772e+07
1.64683e+07
1.60612e+07
1.56562e+07
1.52533e+07
1.48526e+07
1.44541e+07
1.40581e+07
1.36645e+07
1.32736e+07
1.28854e+07
1.25001e+07
1.21178e+07
1.17386e+07
1.13626e+07
1.099e+07
1.06209e+07
1.02554e+07
9.89381e+06
9.53606e+06
9.18225e+06
8.83232e+06
8.48602e+06
6.76227e+07
6.76141e+07
6.75978e+07
6.75739e+07
6.75422e+07
6.75027e+07
6.74553e+07
6.74e+07
6.73369e+07
6.7266e+07
6.71872e+07
6.71008e+07
6.70067e+07
6.69052e+07
6.67962e+07
6.66799e+07
6.65566e+07
6.64262e+07
6.62889e+07
6.61449e+07
6.59944e+07
6.58374e+07
6.56742e+07
6.55048e+07
6.53295e+07
6.51482e+07
6.49613e+07
6.47687e+07
6.45707e+07
6.43673e+07
6.41587e+07
6.3945e+07
6.37262e+07
6.35025e+07
6.3274e+07
6.30408e+07
6.2803e+07
6.25607e+07
6.2314e+07
6.20629e+07
6.18075e+07
6.1548e+07
6.12844e+07
6.10167e+07
6.07452e+07
6.04698e+07
6.01905e+07
5.99076e+07
5.9621e+07
5.93309e+07
5.90372e+07
5.874e+07
5.84395e+07
5.81357e+07
5.78286e+07
5.75183e+07
5.72048e+07
5.68883e+07
5.65687e+07
5.62461e+07
5.59206e+07
5.55923e+07
5.52611e+07
5.49271e+07
5.45904e+07
5.42511e+07
5.39091e+07
5.35645e+07
5.32174e+07
5.28678e+07
5.25157e+07
5.21613e+07
5.18045e+07
5.14454e+07
5.1084e+07
5.07203e+07
5.03545e+07
4.99865e+07
4.96164e+07
4.92442e+07
4.887e+07
4.84938e+07
4.81156e+07
4.77355e+07
4.73535e+07
4.69696e+07
4.65839e+07
4.61964e+07
4.58072e+07
4.54162e+07
4.50236e+07
4.46293e+07
4.42334e+07
4.38359e+07
4.34368e+07
4.30363e+07
4.26343e+07
4.22308e+07
4.18259e+07
4.14196e+07
4.1012e+07
4.06031e+07
4.01928e+07
3.97814e+07
3.93687e+07
3.89549e+07
3.85399e+07
3.81238e+07
3.77067e+07
3.72885e+07
3.68693e+07
3.64491e+07
3.60281e+07
3.56061e+07
3.51833e+07
3.47597e+07
3.43354e+07
3.39103e+07
3.34845e+07
3.30581e+07
3.2631e+07
3.22034e+07
3.17753e+07
3.13467e+07
3.09177e+07
3.04883e+07