/*--------------------------------*- C++ -*----------------------------------*\
  =========                 |
  \\      /  F ield         | OpenFOAM: The Open Source CFD Toolbox
   \\    /   O peration     | Website:  https://openfoam.org
    \\  /    A nd           | Version:  11
     \\/     M anipulation  |
\*---------------------------------------------------------------------------*/
FoamFile
{
    format      ascii;
    class       volVectorField;
    location    "52";
    object      U;
}
// * * * * * * * * * * * * * * * * * * * * * * * * * * * * * * * * * * * * * //

dimensions      [0 1 -1 0 0 0 0];

internalField   nonuniform List<vector> 
2048
(
(1.00013 -0.000580236 0)
(1.00249 -0.00175751 0)
(1.00715 -0.00296643 0)
(1.01429 -0.00422097 0)
(1.02402 -0.00553141 0)
(1.03643 -0.00690075 0)
(1.05161 -0.00832195 0)
(1.06965 -0.00977609 0)
(1.09061 -0.0112315 0)
(1.11446 -0.0126436 0)
(1.14108 -0.013956 0)
(1.17021 -0.0151037 0)
(1.20148 -0.0160181 0)
(1.23437 -0.0166364 0)
(1.26824 -0.0169134 0)
(1.30239 -0.0168328 0)
(1.33609 -0.0164132 0)
(1.36868 -0.0157076 0)
(1.39959 -0.014791 0)
(1.42845 -0.0137404 0)
(1.45503 -0.0126191 0)
(1.47925 -0.0114696 0)
(1.5011 -0.0103159 0)
(1.5206 -0.00916475 0)
(1.53777 -0.00800795 0)
(1.55261 -0.006824 0)
(1.56504 -0.00558196 0)
(1.57492 -0.00424612 0)
(1.58205 -0.00278167 0)
(1.58614 -0.00115805 0)
(1.58685 0.000640441 0)
(1.58383 0.00261187 0)
(1.57673 0.0047341 0)
(1.56526 0.00695899 0)
(1.54926 0.00921292 0)
(1.52872 0.0114029 0)
(1.50385 0.0134241 0)
(1.4751 0.015168 0)
(1.44311 0.0165318 0)
(1.40875 0.0174273 0)
(1.37304 0.0177885 0)
(1.33713 0.0175726 0)
(1.30223 0.0167596 0)
(1.26956 0.0153492 0)
(1.24032 0.013358 0)
(1.21566 0.0108155 0)
(1.19668 0.00776035 0)
(1.18432 0.00424321 0)
(1.1795 0.000331507 0)
(1.18286 -0.00389047 0)
(1.19505 -0.00832736 0)
(1.21622 -0.0128413 0)
(1.24664 -0.0172999 0)
(1.28565 -0.0214872 0)
(1.33309 -0.0252919 0)
(1.38734 -0.0283806 0)
(1.44751 -0.0308269 0)
(1.51167 -0.0320733 0)
(1.57698 -0.032748 0)
(1.64462 -0.0317424 0)
(1.70441 -0.0309474 0)
(1.77247 -0.0277899 0)
(1.81147 -0.0267672 0)
(1.88961 -0.0217217 0)
(1.00013 -0.00173539 0)
(1.00246 -0.00525653 0)
(1.00707 -0.00887448 0)
(1.01414 -0.0126342 0)
(1.02379 -0.016569 0)
(1.03612 -0.0206901 0)
(1.05127 -0.024978 0)
(1.06933 -0.029377 0)
(1.09039 -0.0337912 0)
(1.11445 -0.0380842 0)
(1.1414 -0.0420822 0)
(1.171 -0.0455842 0)
(1.20288 -0.0483782 0)
(1.23648 -0.0502676 0)
(1.27113 -0.0511082 0)
(1.30605 -0.0508438 0)
(1.34045 -0.0495321 0)
(1.37361 -0.0473447 0)
(1.40493 -0.0445229 0)
(1.43405 -0.0413098 0)
(1.46078 -0.0378992 0)
(1.48507 -0.0344214 0)
(1.50696 -0.0309475 0)
(1.52649 -0.0274975 0)
(1.54372 -0.0240434 0)
(1.55865 -0.0205163 0)
(1.57124 -0.0168183 0)
(1.58135 -0.0128367 0)
(1.58876 -0.00846443 0)
(1.59316 -0.00360519 0)
(1.5942 0.00179701 0)
(1.59146 0.00774295 0)
(1.58456 0.0141679 0)
(1.57317 0.0209233 0)
(1.55706 0.0277798 0)
(1.53622 0.03445 0)
(1.51083 0.0406129 0)
(1.48133 0.0459351 0)
(1.44841 0.0501001 0)
(1.41297 0.0528381 0)
(1.37608 0.0539477 0)
(1.33893 0.0533024 0)
(1.30278 0.0508463 0)
(1.26891 0.0465828 0)
(1.23853 0.0405644 0)
(1.21283 0.0328815 0)
(1.19293 0.0236528 0)
(1.17978 0.013028 0)
(1.17435 0.00119979 0)
(1.17731 -0.011589 0)
(1.18937 -0.0250424 0)
(1.2107 -0.0387462 0)
(1.24164 -0.0522931 0)
(1.28154 -0.0650353 0)
(1.33028 -0.0766122 0)
(1.38612 -0.086018 0)
(1.44823 -0.0934351 0)
(1.51432 -0.0971803 0)
(1.5817 -0.0991235 0)
(1.65089 -0.0959228 0)
(1.71224 -0.0933186 0)
(1.78082 -0.0835276 0)
(1.82059 -0.0802776 0)
(1.89794 -0.0648819 0)
(1.00013 -0.00286807 0)
(1.0024 -0.00869016 0)
(1.00689 -0.0146821 0)
(1.0138 -0.0209272 0)
(1.02328 -0.0274895 0)
(1.03545 -0.0343947 0)
(1.05049 -0.0416188 0)
(1.06856 -0.0490734 0)
(1.0898 -0.056599 0)
(1.11426 -0.0639591 0)
(1.14187 -0.0708449 0)
(1.17242 -0.0768983 0)
(1.20553 -0.0817374 0)
(1.24059 -0.0850075 0)
(1.27685 -0.0864422 0)
(1.31338 -0.0859262 0)
(1.34922 -0.083565 0)
(1.38352 -0.0796899 0)
(1.41564 -0.0747562 0)
(1.44525 -0.069203 0)
(1.47224 -0.063369 0)
(1.49665 -0.0574773 0)
(1.51857 -0.0516493 0)
(1.53813 -0.0459147 0)
(1.55544 -0.0402169 0)
(1.57056 -0.0344272 0)
(1.58346 -0.028365 0)
(1.59402 -0.0218269 0)
(1.602 -0.0146091 0)
(1.60706 -0.00654496 0)
(1.60878 0.00247858 0)
(1.60668 0.0124855 0)
(1.60025 0.0233822 0)
(1.58905 0.0349167 0)
(1.57277 0.0466811 0)
(1.55132 0.0581642 0)
(1.52487 0.0687999 0)
(1.49387 0.0780039 0)
(1.45906 0.0852228 0)
(1.4214 0.0899899 0)
(1.38209 0.0919616 0)
(1.34242 0.0909283 0)
(1.30376 0.0868061 0)
(1.26743 0.0796145 0)
(1.23474 0.0694518 0)
(1.20692 0.0564727 0)
(1.18512 0.0408755 0)
(1.17036 0.0229043 0)
(1.16365 0.00286916 0)
(1.16575 -0.0188556 0)
(1.17747 -0.0417574 0)
(1.19903 -0.0651518 0)
(1.23095 -0.0883354 0)
(1.27251 -0.110237 0)
(1.32365 -0.130163 0)
(1.3823 -0.146391 0)
(1.44753 -0.159083 0)
(1.51648 -0.165383 0)
(1.58657 -0.168371 0)
(1.6576 -0.162433 0)
(1.72058 -0.157345 0)
(1.78932 -0.139954 0)
(1.82961 -0.133785 0)
(1.90514 -0.107163 0)
(1.00012 -0.00395573 0)
(1.00229 -0.011995 0)
(1.0066 -0.0202924 0)
(1.01324 -0.0289806 0)
(1.02239 -0.0381657 0)
(1.03427 -0.0478998 0)
(1.04908 -0.0581679 0)
(1.06709 -0.0688591 0)
(1.08852 -0.0797602 0)
(1.11352 -0.0905252 0)
(1.1421 -0.100683 0)
(1.1741 -0.109667 0)
(1.20912 -0.116856 0)
(1.2465 -0.121685 0)
(1.2853 -0.123725 0)
(1.32437 -0.122781 0)
(1.36247 -0.11905 0)
(1.3985 -0.113115 0)
(1.43178 -0.105719 0)
(1.46205 -0.097535 0)
(1.48933 -0.0890614 0)
(1.51379 -0.0806245 0)
(1.53567 -0.0724012 0)
(1.55519 -0.0644241 0)
(1.57256 -0.0565904 0)
(1.58792 -0.0486911 0)
(1.60128 -0.0404423 0)
(1.61253 -0.0315231 0)
(1.62142 -0.0216025 0)
(1.62754 -0.0103892 0)
(1.63039 0.00230667 0)
(1.62936 0.016533 0)
(1.62377 0.0321711 0)
(1.61299 0.0488777 0)
(1.59653 0.0660575 0)
(1.57421 0.0829351 0)
(1.54617 0.0986371 0)
(1.51286 0.112264 0)
(1.47511 0.122978 0)
(1.43403 0.130091 0)
(1.39097 0.133111 0)
(1.34742 0.131754 0)
(1.30487 0.125923 0)
(1.26478 0.115669 0)
(1.22856 0.101157 0)
(1.19746 0.0826223 0)
(1.17273 0.0603406 0)
(1.15544 0.0346409 0)
(1.14667 0.005958 0)
(1.14726 -0.025295 0)
(1.15821 -0.0583663 0)
(1.17989 -0.0923313 0)
(1.21283 -0.126145 0)
(1.25606 -0.15823 0)
(1.30892 -0.187314 0)
(1.36875 -0.210845 0)
(1.43415 -0.228866 0)
(1.50259 -0.237439 0)
(1.57133 -0.241001 0)
(1.64113 -0.231592 0)
(1.70234 -0.223352 0)
(1.76968 -0.19723 0)
(1.8084 -0.187446 0)
(1.88135 -0.148098 0)
(1.00011 -0.00497301 0)
(1.00213 -0.0150979 0)
(1.00613 -0.0255895 0)
(1.01235 -0.0366465 0)
(1.021 -0.0484317 0)
(1.03235 -0.0610417 0)
(1.04673 -0.0744906 0)
(1.0645 -0.0886577 0)
(1.08603 -0.103305 0)
(1.11163 -0.117975 0)
(1.14144 -0.132028 0)
(1.17542 -0.144609 0)
(1.21315 -0.154712 0)
(1.25385 -0.161437 0)
(1.29635 -0.164068 0)
(1.33909 -0.162306 0)
(1.38032 -0.156591 0)
(1.41864 -0.147954 0)
(1.45334 -0.137541 0)
(1.48432 -0.126286 0)
(1.51183 -0.114855 0)
(1.5362 -0.103691 0)
(1.55785 -0.0930345 0)
(1.57716 -0.0829036 0)
(1.59449 -0.0731182 0)
(1.61008 -0.0633578 0)
(1.62401 -0.0532067 0)
(1.6362 -0.042193 0)
(1.64638 -0.0298264 0)
(1.65407 -0.0156361 0)
(1.65861 0.000727388 0)
(1.6592 0.019429 0)
(1.65497 0.0402818 0)
(1.64499 0.0627643 0)
(1.6285 0.0860777 0)
(1.60516 0.109175 0)
(1.575 0.130812 0)
(1.53852 0.149672 0)
(1.49668 0.164545 0)
(1.45082 0.174469 0)
(1.40256 0.178793 0)
(1.35362 0.177182 0)
(1.30571 0.169569 0)
(1.26046 0.156077 0)
(1.21937 0.136954 0)
(1.18378 0.112523 0)
(1.15498 0.0831441 0)
(1.13411 0.0492165 0)
(1.12222 0.0112263 0)
(1.12026 -0.0302382 0)
(1.12955 -0.0743834 0)
(1.15032 -0.119968 0)
(1.18214 -0.165176 0)
(1.22246 -0.207412 0)
(1.26906 -0.244561 0)
(1.31979 -0.273699 0)
(1.37387 -0.29543 0)
(1.43204 -0.305303 0)
(1.49092 -0.309413 0)
(1.5549 -0.296923 0)
(1.61016 -0.286604 0)
(1.67567 -0.252263 0)
(1.71121 -0.239833 0)
(1.78219 -0.187453 0)
(1.0001 -0.00588568 0)
(1.00188 -0.0179004 0)
(1.00545 -0.0304108 0)
(1.01103 -0.0437114 0)
(1.0189 -0.0580328 0)
(1.02942 -0.0735549 0)
(1.04303 -0.090339 0)
(1.06023 -0.108272 0)
(1.08158 -0.127132 0)
(1.10764 -0.146329 0)
(1.1388 -0.165143 0)
(1.17526 -0.18234 0)
(1.21666 -0.196387 0)
(1.26204 -0.205784 0)
(1.30982 -0.209108 0)
(1.35767 -0.205885 0)
(1.40304 -0.197168 0)
(1.44416 -0.184817 0)
(1.48046 -0.170535 0)
(1.51213 -0.155545 0)
(1.53964 -0.140689 0)
(1.56357 -0.126545 0)
(1.58455 -0.113412 0)
(1.60323 -0.10126 0)
(1.62015 -0.089793 0)
(1.63568 -0.0785417 0)
(1.65002 -0.0669062 0)
(1.66314 -0.0542221 0)
(1.6748 -0.0397719 0)
(1.6845 -0.0228711 0)
(1.69144 -0.00305362 0)
(1.69454 0.0202175 0)
(1.69247 0.0469314 0)
(1.68395 0.0761943 0)
(1.66796 0.1068 0)
(1.6438 0.137345 0)
(1.61128 0.16614 0)
(1.57088 0.191351 0)
(1.52377 0.211298 0)
(1.47165 0.224676 0)
(1.41656 0.23065 0)
(1.36058 0.228846 0)
(1.30573 0.219284 0)
(1.2538 0.202253 0)
(1.20642 0.178181 0)
(1.16498 0.147499 0)
(1.13079 0.110618 0)
(1.10492 0.0680106 0)
(1.08835 0.0203897 0)
(1.08213 -0.0318395 0)
(1.08735 -0.0876491 0)
(1.10214 -0.14422 0)
(1.12223 -0.197685 0)
(1.14304 -0.244576 0)
(1.16403 -0.283874 0)
(1.18873 -0.314898 0)
(1.22041 -0.340014 0)
(1.26425 -0.353779 0)
(1.31398 -0.362543 0)
(1.3759 -0.350772 0)
(1.42899 -0.34175 0)
(1.49583 -0.301143 0)
(1.53016 -0.287702 0)
(1.59871 -0.223106 0)
(1.00008 -0.0066492 0)
(1.00154 -0.0202774 0)
(1.00448 -0.0345369 0)
(1.00914 -0.0498821 0)
(1.01586 -0.0665875 0)
(1.02508 -0.0850292 0)
(1.03743 -0.105294 0)
(1.05353 -0.127366 0)
(1.07425 -0.151048 0)
(1.10038 -0.175511 0)
(1.13267 -0.200138 0)
(1.17195 -0.223127 0)
(1.218 -0.2426 0)
(1.2698 -0.256014 0)
(1.32528 -0.260281 0)
(1.38054 -0.254719 0)
(1.43154 -0.241668 0)
(1.4761 -0.224275 0)
(1.51396 -0.204954 0)
(1.5457 -0.185279 0)
(1.57211 -0.166325 0)
(1.59407 -0.148841 0)
(1.61261 -0.133145 0)
(1.62879 -0.119103 0)
(1.64345 -0.106292 0)
(1.65722 -0.0940825 0)
(1.67049 -0.0816515 0)
(1.68341 -0.0680288 0)
(1.6959 -0.0521983 0)
(1.70741 -0.0330816 0)
(1.71723 -0.0100445 0)
(1.72432 0.0174376 0)
(1.72648 0.0501319 0)
(1.72157 0.0871456 0)
(1.70813 0.126705 0)
(1.68499 0.166705 0)
(1.65139 0.204677 0)
(1.60755 0.238011 0)
(1.55481 0.264384 0)
(1.49539 0.282097 0)
(1.43197 0.290176 0)
(1.36728 0.288315 0)
(1.30382 0.276698 0)
(1.24373 0.255796 0)
(1.18863 0.226285 0)
(1.13987 0.18889 0)
(1.0987 0.144245 0)
(1.06593 0.0929064 0)
(1.0421 0.0355152 0)
(1.02779 -0.0265239 0)
(1.02081 -0.0909558 0)
(1.0125 -0.150564 0)
(0.996081 -0.200797 0)
(0.974167 -0.243299 0)
(0.958438 -0.28379 0)
(0.961296 -0.324777 0)
(0.986374 -0.365762 0)
(1.03479 -0.395233 0)
(1.09279 -0.416198 0)
(1.16362 -0.408393 0)
(1.22225 -0.400372 0)
(1.29025 -0.351304 0)
(1.32466 -0.3342 0)
(1.38215 -0.253785 0)
(1.00005 -0.00720906 0)
(1.00108 -0.0220811 0)
(1.00314 -0.0376868 0)
(1.00656 -0.0547831 0)
(1.0116 -0.0735359 0)
(1.01892 -0.0948521 0)
(1.02923 -0.118592 0)
(1.04339 -0.145342 0)
(1.06285 -0.174691 0)
(1.08827 -0.205544 0)
(1.12143 -0.237597 0)
(1.16363 -0.267469 0)
(1.21465 -0.293677 0)
(1.27539 -0.312244 0)
(1.34314 -0.317244 0)
(1.40976 -0.30826 0)
(1.46787 -0.289582 0)
(1.51474 -0.265661 0)
(1.55087 -0.239686 0)
(1.57781 -0.213793 0)
(1.59717 -0.189579 0)
(1.61073 -0.1681 0)
(1.62032 -0.149572 0)
(1.62765 -0.133665 0)
(1.63404 -0.11987 0)
(1.64052 -0.107445 0)
(1.64794 -0.0953668 0)
(1.65684 -0.0823323 0)
(1.66756 -0.0667874 0)
(1.67986 -0.0473338 0)
(1.69276 -0.0223614 0)
(1.70596 0.00876783 0)
(1.71706 0.0464742 0)
(1.72218 0.0909607 0)
(1.71861 0.140651 0)
(1.70402 0.192622 0)
(1.67635 0.243125 0)
(1.63481 0.288098 0)
(1.58041 0.32391 0)
(1.51579 0.348007 0)
(1.44457 0.359188 0)
(1.37062 0.357415 0)
(1.29733 0.343428 0)
(1.22739 0.318374 0)
(1.16305 0.283237 0)
(1.1058 0.238707 0)
(1.05564 0.18597 0)
(1.01285 0.126168 0)
(0.978733 0.0597123 0)
(0.946489 -0.00853382 0)
(0.903657 -0.067338 0)
(0.842449 -0.112178 0)
(0.773108 -0.151568 0)
(0.720289 -0.201746 0)
(0.70252 -0.268898 0)
(0.721439 -0.343882 0)
(0.767404 -0.413605 0)
(0.833277 -0.461803 0)
(0.902861 -0.490609 0)
(0.979097 -0.481302 0)
(1.03918 -0.46686 0)
(1.10111 -0.40376 0)
(1.13278 -0.377037 0)
(1.16849 -0.274424 0)
(0.999987 -0.00750662 0)
(1.00054 -0.0231512 0)
(1.00137 -0.0395337 0)
(1.0033 -0.057978 0)
(1.0058 -0.078122 0)
(1.01072 -0.102199 0)
(1.01739 -0.128832 0)
(1.02878 -0.161103 0)
(1.04523 -0.196707 0)
(1.06891 -0.236348 0)
(1.10342 -0.279491 0)
(1.1477 -0.31773 0)
(1.20466 -0.353041 0)
(1.281 -0.378478 0)
(1.36739 -0.38327 0)
(1.44482 -0.368696 0)
(1.50169 -0.341536 0)
(1.53726 -0.307394 0)
(1.55528 -0.270811 0)
(1.56016 -0.235133 0)
(1.55581 -0.203138 0)
(1.54558 -0.176308 0)
(1.53253 -0.154379 0)
(1.51894 -0.13659 0)
(1.5064 -0.122297 0)
(1.49632 -0.110691 0)
(1.49018 -0.100608 0)
(1.48923 -0.0905621 0)
(1.49442 -0.0786127 0)
(1.50653 -0.0628426 0)
(1.52468 -0.0410557 0)
(1.54815 -0.0108289 0)
(1.57537 0.0284902 0)
(1.60194 0.077602 0)
(1.62288 0.136003 0)
(1.63348 0.200759 0)
(1.62929 0.266948 0)
(1.60716 0.328592 0)
(1.56631 0.379789 0)
(1.50862 0.41595 0)
(1.43814 0.434649 0)
(1.36009 0.435763 0)
(1.27964 0.420832 0)
(1.201 0.391736 0)
(1.12639 0.350508 0)
(1.05611 0.299973 0)
(0.992227 0.241338 0)
(0.937629 0.173591 0)
(0.883589 0.103639 0)
(0.807799 0.0491729 0)
(0.701049 0.0169339 0)
(0.590366 -0.0181432 0)
(0.515096 -0.0824654 0)
(0.487356 -0.178762 0)
(0.499325 -0.289086 0)
(0.538039 -0.394187 0)
(0.593444 -0.480483 0)
(0.660769 -0.536808 0)
(0.728461 -0.564734 0)
(0.800181 -0.550266 0)
(0.855194 -0.525015 0)
(0.9081 -0.446725 0)
(0.935045 -0.406992 0)
(0.94767 -0.278156 0)
(0.999882 -0.00749457 0)
(0.999948 -0.023317 0)
(0.999106 -0.0397684 0)
(0.999519 -0.0589828 0)
(0.998193 -0.0795224 0)
(1.00083 -0.106056 0)
(1.00049 -0.133935 0)
(1.00988 -0.172933 0)
(1.01647 -0.21281 0)
(1.0406 -0.267031 0)
(1.07178 -0.325416 0)
(1.11801 -0.377839 0)
(1.19218 -0.441417 0)
(1.2915 -0.479818 0)
(1.38343 -0.475088 0)
(1.43987 -0.440426 0)
(1.4559 -0.39031 0)
(1.4423 -0.333721 0)
(1.40877 -0.27776 0)
(1.36468 -0.226755 0)
(1.31542 -0.184527 0)
(1.26489 -0.151728 0)
(1.21769 -0.126999 0)
(1.17587 -0.108964 0)
(1.14029 -0.0965329 0)
(1.11223 -0.0886086 0)
(1.09355 -0.0839444 0)
(1.08599 -0.0810245 0)
(1.09097 -0.077841 0)
(1.10922 -0.0718329 0)
(1.14034 -0.0600602 0)
(1.18302 -0.0386515 0)
(1.23544 -0.00482955 0)
(1.29325 0.043096 0)
(1.35072 0.10561 0)
(1.4011 0.18033 0)
(1.43763 0.261833 0)
(1.45455 0.342554 0)
(1.44827 0.414094 0)
(1.41826 0.468988 0)
(1.36722 0.502386 0)
(1.30025 0.512771 0)
(1.22343 0.501482 0)
(1.14221 0.472173 0)
(1.06044 0.429641 0)
(0.981883 0.375477 0)
(0.907451 0.309042 0)
(0.824649 0.241905 0)
(0.712927 0.197302 0)
(0.574643 0.175326 0)
(0.444825 0.14019 0)
(0.358477 0.0622867 0)
(0.32196 -0.0546806 0)
(0.321723 -0.19072 0)
(0.346279 -0.325608 0)
(0.386645 -0.446078 0)
(0.438499 -0.541773 0)
(0.498656 -0.604141 0)
(0.559845 -0.630329 0)
(0.623705 -0.611804 0)
(0.671105 -0.573522 0)
(0.714277 -0.480778 0)
(0.733506 -0.424185 0)
(0.723314 -0.265493 0)
(0.999756 -0.00715274 0)
(0.999312 -0.0224005 0)
(0.996493 -0.0381963 0)
(0.995329 -0.0572526 0)
(0.989085 -0.0771869 0)
(0.989699 -0.105071 0)
(0.978389 -0.132135 0)
(0.988007 -0.177893 0)
(0.970686 -0.216082 0)
(1.0059 -0.29447 0)
(1.00031 -0.357122 0)
(1.07421 -0.456968 0)
(1.16581 -0.596474 0)
(1.25038 -0.623372 0)
(1.27802 -0.562217 0)
(1.2375 -0.467995 0)
(1.15387 -0.369429 0)
(1.05601 -0.27877 0)
(0.953544 -0.202596 0)
(0.859547 -0.140614 0)
(0.770439 -0.0961534 0)
(0.692281 -0.0662652 0)
(0.63269 -0.0482365 0)
(0.591065 -0.041195 0)
(0.565332 -0.0434647 0)
(0.554559 -0.0525223 0)
(0.558197 -0.0658192 0)
(0.575482 -0.0808665 0)
(0.605589 -0.094881 0)
(0.647469 -0.104674 0)
(0.700129 -0.106721 0)
(0.762614 -0.0969631 0)
(0.83352 -0.0708122 0)
(0.911032 -0.0254182 0)
(0.991552 0.0398814 0)
(1.06932 0.123161 0)
(1.13759 0.219247 0)
(1.18965 0.319723 0)
(1.21978 0.414228 0)
(1.22454 0.492573 0)
(1.20375 0.547065 0)
(1.16034 0.574089 0)
(1.09932 0.574435 0)
(1.02639 0.551923 0)
(0.94712 0.510023 0)
(0.863481 0.45288 0)
(0.765669 0.395447 0)
(0.636748 0.359346 0)
(0.481303 0.342712 0)
(0.336942 0.309935 0)
(0.239672 0.228015 0)
(0.196922 0.0988531 0)
(0.192673 -0.0560539 0)
(0.210125 -0.215517 0)
(0.241066 -0.365015 0)
(0.279374 -0.495201 0)
(0.323067 -0.597496 0)
(0.370721 -0.664049 0)
(0.42045 -0.688131 0)
(0.471574 -0.665693 0)
(0.508281 -0.611906 0)
(0.539829 -0.506371 0)
(0.54765 -0.42687 0)
(0.514543 -0.236971 0)
(0.999682 -0.00647595 0)
(0.998539 -0.0202737 0)
(0.993933 -0.0347534 0)
(0.990582 -0.0523118 0)
(0.979867 -0.0710119 0)
(0.976827 -0.0976489 0)
(0.954936 -0.123381 0)
(0.96152 -0.170711 0)
(0.914405 -0.204583 0)
(0.961543 -0.304 0)
(0.863369 -0.343889 0)
(1.02774 -0.563208 0)
(0.974726 -0.717666 0)
(0.951979 -0.631645 0)
(0.839871 -0.474051 0)
(0.672794 -0.32031 0)
(0.512831 -0.194085 0)
(0.385718 -0.104841 0)
(0.286588 -0.0504912 0)
(0.216886 -0.011288 0)
(0.158208 -0.00609501 0)
(0.141906 -0.0180415 0)
(0.15378 -0.0324008 0)
(0.17288 -0.0488822 0)
(0.195261 -0.0675335 0)
(0.221049 -0.0882077 0)
(0.25064 -0.110414 0)
(0.284426 -0.132947 0)
(0.322972 -0.153789 0)
(0.366869 -0.170074 0)
(0.416743 -0.178194 0)
(0.473054 -0.173796 0)
(0.53579 -0.152278 0)
(0.604683 -0.109828 0)
(0.678352 -0.0441323 0)
(0.753956 0.044297 0)
(0.826703 0.150917 0)
(0.890548 0.267649 0)
(0.939129 0.383145 0)
(0.96709 0.485149 0)
(0.971397 0.563379 0)
(0.951912 0.611689 0)
(0.911004 0.628785 0)
(0.852418 0.617174 0)
(0.777866 0.583964 0)
(0.681147 0.545228 0)
(0.551819 0.520554 0)
(0.397016 0.510056 0)
(0.251512 0.482657 0)
(0.15273 0.403876 0)
(0.110117 0.270444 0)
(0.109354 0.103343 0)
(0.130149 -0.0756416 0)
(0.16059 -0.247066 0)
(0.193838 -0.40153 0)
(0.225468 -0.533521 0)
(0.254884 -0.637497 0)
(0.283813 -0.706032 0)
(0.31547 -0.729686 0)
(0.348855 -0.704235 0)
(0.373013 -0.63575 0)
(0.392393 -0.520195 0)
(0.387562 -0.411779 0)
(0.336354 -0.193774 0)
(0.999686 -0.0054459 0)
(0.997639 -0.0169683 0)
(0.991744 -0.0293947 0)
(0.985458 -0.0441482 0)
(0.97188 -0.0608773 0)
(0.962304 -0.0832806 0)
(0.935214 -0.107925 0)
(0.928137 -0.147618 0)
(0.868764 -0.183084 0)
(0.891265 -0.270865 0)
(0.724145 -0.300419 0)
(0.909708 -0.58963 0)
(0.332188 -0.393229 0)
(0.236455 -0.236597 0)
(0.117119 -0.175866 0)
(0.0540618 -0.131582 0)
(0.028426 -0.0892674 0)
(0.0165327 -0.0561897 0)
(0.00996062 -0.031046 0)
(0.00401248 -0.0092725 0)
(0.00701435 -0.0402668 0)
(0.0206456 -0.0629771 0)
(0.0416761 -0.0732125 0)
(0.0585619 -0.0837434 0)
(0.0758078 -0.0975665 0)
(0.0940803 -0.115863 0)
(0.113834 -0.138045 0)
(0.135641 -0.16245 0)
(0.160297 -0.186735 0)
(0.188632 -0.207798 0)
(0.221605 -0.221772 0)
(0.260201 -0.223917 0)
(0.304842 -0.20895 0)
(0.355989 -0.172072 0)
(0.413075 -0.110143 0)
(0.474489 -0.0225629 0)
(0.537506 0.0871146 0)
(0.59789 0.211648 0)
(0.649681 0.340369 0)
(0.687269 0.460175 0)
(0.706143 0.558821 0)
(0.703591 0.627939 0)
(0.678458 0.6648 0)
(0.62931 0.6738 0)
(0.551527 0.667942 0)
(0.440244 0.663811 0)
(0.304247 0.663667 0)
(0.174076 0.644936 0)
(0.0847636 0.57517 0)
(0.0499153 0.444642 0)
(0.0563703 0.271498 0)
(0.0842872 0.0810251 0)
(0.121613 -0.107546 0)
(0.161149 -0.28025 0)
(0.195902 -0.431281 0)
(0.221598 -0.557917 0)
(0.236934 -0.65809 0)
(0.245159 -0.726183 0)
(0.253363 -0.75128 0)
(0.26447 -0.724636 0)
(0.27364 -0.64579 0)
(0.279955 -0.521818 0)
(0.263685 -0.381325 0)
(0.203283 -0.142263 0)
(0.999689 -0.00406214 0)
(0.996859 -0.0126705 0)
(0.989858 -0.0221449 0)
(0.980992 -0.0332931 0)
(0.965028 -0.0465292 0)
(0.949344 -0.0633917 0)
(0.91878 -0.0842483 0)
(0.896526 -0.112578 0)
(0.835965 -0.147846 0)
(0.814811 -0.20032 0)
(0.672571 -0.256141 0)
(0.73394 -0.383455 0)
(0.311422 -0.266128 0)
(0.299714 -0.252184 0)
(0.207191 -0.227197 0)
(0.128209 -0.175098 0)
(0.0776864 -0.117593 0)
(0.0460466 -0.0704307 0)
(0.0285365 -0.0362019 0)
(0.0134107 -0.009129 0)
(0.0245467 -0.038705 0)
(0.00906432 -0.0649213 0)
(0.0131336 -0.0750164 0)
(0.0120397 -0.0867346 0)
(0.0134266 -0.102718 0)
(0.016312 -0.123662 0)
(0.0209995 -0.148719 0)
(0.0277015 -0.176315 0)
(0.0368344 -0.204199 0)
(0.0488026 -0.229434 0)
(0.0643247 -0.248202 0)
(0.08437 -0.255823 0)
(0.109552 -0.246788 0)
(0.141112 -0.21567 0)
(0.179168 -0.158183 0)
(0.223186 -0.0728248 0)
(0.271311 0.0375057 0)
(0.321602 0.165113 0)
(0.368791 0.300795 0)
(0.407209 0.432284 0)
(0.431595 0.547166 0)
(0.436866 0.636265 0)
(0.418462 0.697805 0)
(0.371389 0.737485 0)
(0.293155 0.76526 0)
(0.191836 0.784422 0)
(0.092304 0.779414 0)
(0.0248191 0.724293 0)
(0.00386266 0.605979 0)
(0.0216667 0.436372 0)
(0.0604516 0.240711 0)
(0.106034 0.0413024 0)
(0.152593 -0.146978 0)
(0.197185 -0.31533 0)
(0.234188 -0.45758 0)
(0.258341 -0.572037 0)
(0.265381 -0.660588 0)
(0.256349 -0.72254 0)
(0.239863 -0.748433 0)
(0.2257 -0.724018 0)
(0.216366 -0.642141 0)
(0.208766 -0.511339 0)
(0.18498 -0.342125 0)
(0.12667 -0.0911722 0)
(0.999656 -0.00239898 0)
(0.996362 -0.00759198 0)
(0.988339 -0.0133494 0)
(0.977977 -0.0203467 0)
(0.959464 -0.0285383 0)
(0.940789 -0.0395605 0)
(0.90468 -0.0523372 0)
(0.877451 -0.0717034 0)
(0.80507 -0.0916654 0)
(0.779121 -0.128833 0)
(0.615632 -0.151542 0)
(0.684549 -0.237474 0)
(0.291237 -0.143438 0)
(0.300403 -0.110766 0)
(0.215845 -0.0938096 0)
(0.14019 -0.0742021 0)
(0.089895 -0.0523835 0)
(0.0566338 -0.0324064 0)
(0.0380697 -0.0159755 0)
(0.0199493 -0.00242252 0)
(0.0368749 -0.0302177 0)
(0.00458649 -0.0554071 0)
(-0.00362298 -0.0665434 0)
(-0.0194917 -0.0795355 0)
(-0.0310301 -0.0973759 0)
(-0.040684 -0.120204 0)
(-0.0482327 -0.147218 0)
(-0.05373 -0.176947 0)
(-0.0572098 -0.20722 0)
(-0.0587356 -0.235225 0)
(-0.0581255 -0.2573 0)
(-0.0548713 -0.268977 0)
(-0.0480259 -0.26496 0)
(-0.0359405 -0.239554 0)
(-0.0174496 -0.187862 0)
(0.00792877 -0.10735 0)
(0.0380762 0.000849994 0)
(0.0732733 0.12947 0)
(0.11079 0.269653 0)
(0.144207 0.409809 0)
(0.166927 0.538581 0)
(0.173573 0.647695 0)
(0.158895 0.735066 0)
(0.119927 0.802257 0)
(0.0627516 0.849105 0)
(0.00419972 0.865722 0)
(-0.0323642 0.833227 0)
(-0.0321735 0.737864 0)
(0.000718611 0.584743 0)
(0.0516467 0.395757 0)
(0.10638 0.193757 0)
(0.159047 -0.0062259 0)
(0.208531 -0.192112 0)
(0.254106 -0.355143 0)
(0.292899 -0.487082 0)
(0.319529 -0.585136 0)
(0.326747 -0.65389 0)
(0.310059 -0.699998 0)
(0.27486 -0.720867 0)
(0.235925 -0.700521 0)
(0.204641 -0.623525 0)
(0.182527 -0.491039 0)
(0.155723 -0.305044 0)
(0.112789 -0.0512739 0)
(0.999649 -0.000579344 0)
(0.996083 -0.00195956 0)
(0.987589 -0.00366084 0)
(0.976322 -0.0058388 0)
(0.956708 -0.00860985 0)
(0.935999 -0.0122717 0)
(0.8979 -0.0169214 0)
(0.866505 -0.0232937 0)
(0.791525 -0.0308956 0)
(0.758165 -0.0423152 0)
(0.594692 -0.0515448 0)
(0.653888 -0.0769077 0)
(0.274779 -0.0446329 0)
(0.294526 -0.0397632 0)
(0.220224 -0.0373445 0)
(0.149837 -0.0294354 0)
(0.0998753 -0.0191869 0)
(0.0648987 -0.00992236 0)
(0.0448077 -0.00272684 0)
(0.0244301 0.00181442 0)
(0.0431445 -0.0172016 0)
(-0.00125432 -0.0353914 0)
(-0.0172979 -0.0465994 0)
(-0.0424168 -0.0610151 0)
(-0.0626373 -0.0811646 0)
(-0.0805552 -0.106395 0)
(-0.0961723 -0.135675 0)
(-0.109739 -0.167448 0)
(-0.121608 -0.199558 0)
(-0.132213 -0.229236 0)
(-0.141905 -0.253036 0)
(-0.150747 -0.266816 0)
(-0.158129 -0.265806 0)
(-0.162613 -0.24474 0)
(-0.162315 -0.198799 0)
(-0.155396 -0.124913 0)
(-0.142691 -0.0228714 0)
(-0.123435 0.104258 0)
(-0.0989866 0.246404 0)
(-0.0745988 0.392486 0)
(-0.0557559 0.532361 0)
(-0.0467988 0.657617 0)
(-0.0506345 0.762279 0)
(-0.0653473 0.841586 0)
(-0.0806229 0.886736 0)
(-0.0814357 0.88372 0)
(-0.0557293 0.821243 0)
(-0.00441408 0.698152 0)
(0.0606597 0.530249 0)
(0.127548 0.338405 0)
(0.188332 0.138835 0)
(0.242755 -0.0574494 0)
(0.291572 -0.239996 0)
(0.335102 -0.397995 0)
(0.372075 -0.521072 0)
(0.399142 -0.603532 0)
(0.409758 -0.648926 0)
(0.395106 -0.669544 0)
(0.352582 -0.674246 0)
(0.294789 -0.65341 0)
(0.240565 -0.585935 0)
(0.202533 -0.461509 0)
(0.173185 -0.278586 0)
(0.155737 -0.0323684 0)
(0.99965 0.00130343 0)
(0.996095 0.00382786 0)
(0.98762 0.00636985 0)
(0.97638 0.00909496 0)
(0.956798 0.0121512 0)
(0.936129 0.0158419 0)
(0.898066 0.0203514 0)
(0.866729 0.0263638 0)
(0.79178 0.0336441 0)
(0.758524 0.0444723 0)
(0.595047 0.053675 0)
(0.654533 0.0785375 0)
(0.275243 0.0459831 0)
(0.295071 0.0433334 0)
(0.220826 0.0431664 0)
(0.150435 0.037277 0)
(0.100428 0.0288522 0)
(0.0653705 0.021071 0)
(0.0449926 0.0148946 0)
(0.0247423 0.0080308 0)
(0.0403442 0.000685897 0)
(-0.00952407 -0.00929509 0)
(-0.028484 -0.020424 0)
(-0.0571068 -0.0368647 0)
(-0.0810799 -0.0594172 0)
(-0.102699 -0.0870336 0)
(-0.121976 -0.118504 0)
(-0.139184 -0.152108 0)
(-0.154793 -0.185549 0)
(-0.169483 -0.216008 0)
(-0.183983 -0.240203 0)
(-0.198884 -0.254395 0)
(-0.214237 -0.254426 0)
(-0.229147 -0.235819 0)
(-0.241864 -0.194208 0)
(-0.249961 -0.12622 0)
(-0.251256 -0.0310034 0)
(-0.245079 0.0903275 0)
(-0.232404 0.229148 0)
(-0.215138 0.375739 0)
(-0.19649 0.5197 0)
(-0.178742 0.650957 0)
(-0.161799 0.759571 0)
(-0.141581 0.835663 0)
(-0.110057 0.867591 0)
(-0.0592776 0.843869 0)
(0.0105125 0.761173 0)
(0.0913069 0.627002 0)
(0.172657 0.459537 0)
(0.246374 0.274113 0)
(0.309861 0.0819709 0)
(0.364615 -0.107676 0)
(0.411406 -0.284496 0)
(0.45048 -0.436524 0)
(0.481088 -0.552008 0)
(0.501923 -0.622967 0)
(0.510552 -0.649206 0)
(0.500054 -0.642313 0)
(0.461149 -0.620631 0)
(0.396332 -0.588626 0)
(0.324282 -0.528589 0)
(0.268762 -0.420413 0)
(0.230472 -0.260896 0)
(0.238649 -0.0348837 0)
(0.999659 0.00311184 0)
(0.996396 0.00942884 0)
(0.988431 0.0160129 0)
(0.978147 0.0235415 0)
(0.959733 0.0320129 0)
(0.941163 0.043044 0)
(0.905186 0.0556891 0)
(0.878088 0.0746536 0)
(0.805864 0.0943394 0)
(0.78012 0.130815 0)
(0.616756 0.153605 0)
(0.686339 0.238879 0)
(0.292526 0.14476 0)
(0.302005 0.114377 0)
(0.217719 0.0996006 0)
(0.142054 0.0819631 0)
(0.0915784 0.0620063 0)
(0.0580645 0.0436643 0)
(0.0388091 0.0285514 0)
(0.020973 0.0139983 0)
(0.029516 0.0207621 0)
(-0.017966 0.0187211 0)
(-0.0348596 0.00697895 0)
(-0.0614118 -0.0117159 0)
(-0.0841559 -0.0365536 0)
(-0.10494 -0.0663478 0)
(-0.123587 -0.0999589 0)
(-0.140203 -0.135423 0)
(-0.155167 -0.170133 0)
(-0.169182 -0.201036 0)
(-0.183151 -0.224851 0)
(-0.198011 -0.238163 0)
(-0.21443 -0.237478 0)
(-0.232118 -0.219121 0)
(-0.249667 -0.179732 0)
(-0.264544 -0.116333 0)
(-0.273523 -0.0276902 0)
(-0.275293 0.0849719 0)
(-0.268859 0.215586 0)
(-0.253167 0.355631 0)
(-0.229037 0.494547 0)
(-0.196791 0.62082 0)
(-0.155305 0.722327 0)
(-0.101564 0.78698 0)
(-0.0328099 0.803869 0)
(0.051536 0.765628 0)
(0.146066 0.674189 0)
(0.241192 0.541903 0)
(0.328956 0.382775 0)
(0.405071 0.207934 0)
(0.469074 0.0260758 0)
(0.522275 -0.154462 0)
(0.565404 -0.323336 0)
(0.598606 -0.467318 0)
(0.621069 -0.573757 0)
(0.631684 -0.634709 0)
(0.630863 -0.6484 0)
(0.618081 -0.621332 0)
(0.586082 -0.572221 0)
(0.527006 -0.519112 0)
(0.449715 -0.458473 0)
(0.380291 -0.368057 0)
(0.328641 -0.245721 0)
(0.342781 -0.0533876 0)
(0.999693 0.00475349 0)
(0.996916 0.0144484 0)
(0.990005 0.0247201 0)
(0.98127 0.0363729 0)
(0.965452 0.0498693 0)
(0.949964 0.0667189 0)
(0.919566 0.0874227 0)
(0.897608 0.115338 0)
(0.837163 0.150265 0)
(0.816602 0.202122 0)
(0.674118 0.25773 0)
(0.737349 0.384926 0)
(0.313866 0.267093 0)
(0.302413 0.255117 0)
(0.210265 0.232882 0)
(0.131328 0.183526 0)
(0.0805793 0.128335 0)
(0.0486017 0.0829345 0)
(0.0303543 0.0501783 0)
(0.0154744 0.0249514 0)
(0.0177563 0.0423118 0)
(-0.018252 0.0424377 0)
(-0.0283554 0.0281336 0)
(-0.0463832 0.00810713 0)
(-0.0621987 -0.0176667 0)
(-0.0773047 -0.0489867 0)
(-0.091433 -0.0845583 0)
(-0.104304 -0.121877 0)
(-0.116015 -0.157904 0)
(-0.12694 -0.189329 0)
(-0.137561 -0.212719 0)
(-0.148562 -0.224722 0)
(-0.160522 -0.222309 0)
(-0.17389 -0.202601 0)
(-0.188346 -0.163304 0)
(-0.201954 -0.102819 0)
(-0.210918 -0.0205303 0)
(-0.213117 0.0819831 0)
(-0.206089 0.201095 0)
(-0.186484 0.329114 0)
(-0.153291 0.455865 0)
(-0.10596 0.569561 0)
(-0.0439819 0.657802 0)
(0.0333546 0.708693 0)
(0.125004 0.712813 0)
(0.226797 0.667163 0)
(0.331315 0.57664 0)
(0.430332 0.451957 0)
(0.518238 0.303954 0)
(0.59277 0.141466 0)
(0.654099 -0.0280959 0)
(0.703256 -0.197839 0)
(0.740999 -0.357115 0)
(0.767167 -0.491273 0)
(0.780841 -0.586473 0)
(0.780963 -0.635411 0)
(0.768178 -0.638576 0)
(0.745799 -0.600427 0)
(0.715191 -0.532931 0)
(0.667236 -0.456999 0)
(0.599003 -0.386255 0)
(0.525535 -0.306222 0)
(0.465376 -0.217403 0)
(0.457432 -0.0695579 0)
(0.99969 0.00610509 0)
(0.997718 0.0186631 0)
(0.991935 0.0318398 0)
(0.985837 0.0470682 0)
(0.972426 0.0640159 0)
(0.963156 0.0863987 0)
(0.936206 0.110824 0)
(0.929658 0.150126 0)
(0.870239 0.185095 0)
(0.893875 0.272339 0)
(0.726147 0.301409 0)
(0.914326 0.59033 0)
(0.335607 0.395183 0)
(0.239941 0.239991 0)
(0.120593 0.180571 0)
(0.0571132 0.137976 0)
(0.0312083 0.0972624 0)
(0.0192556 0.0657956 0)
(0.013359 0.0425128 0)
(0.00728889 0.0233436 0)
(0.0162381 0.0531782 0)
(0.0168732 0.0562819 0)
(0.0233187 0.0431348 0)
(0.0227043 0.0230394 0)
(0.0199716 -0.00489413 0)
(0.0153139 -0.0388175 0)
(0.00911365 -0.0758604 0)
(0.00151648 -0.113757 0)
(-0.00766249 -0.149884 0)
(-0.0183484 -0.181275 0)
(-0.0298819 -0.204628 0)
(-0.0415139 -0.216533 0)
(-0.0521335 -0.213642 0)
(-0.061256 -0.193476 0)
(-0.0688683 -0.154344 0)
(-0.0748118 -0.0958382 0)
(-0.0774742 -0.0186837 0)
(-0.0741346 0.0744814 0)
(-0.0611691 0.181149 0)
(-0.0348026 0.294691 0)
(0.00743257 0.405774 0)
(0.0664208 0.50336 0)
(0.141866 0.57612 0)
(0.232269 0.613888 0)
(0.334031 0.609601 0)
(0.44099 0.56215 0)
(0.545616 0.476627 0)
(0.64141 0.361763 0)
(0.724522 0.226521 0)
(0.794231 0.077851 0)
(0.850628 -0.0785303 0)
(0.894723 -0.23667 0)
(0.926839 -0.384844 0)
(0.94529 -0.507286 0)
(0.948634 -0.58974 0)
(0.93705 -0.62531 0)
(0.912509 -0.616973 0)
(0.878244 -0.571994 0)
(0.841731 -0.497786 0)
(0.800539 -0.407415 0)
(0.74907 -0.322599 0)
(0.682185 -0.242548 0)
(0.626754 -0.171838 0)
(0.58718 -0.0616349 0)
(0.999689 0.00709552 0)
(0.998629 0.0218609 0)
(0.994172 0.0370404 0)
(0.991021 0.0550214 0)
(0.980549 0.0739208 0)
(0.977795 0.100468 0)
(0.956206 0.126017 0)
(0.963168 0.172766 0)
(0.916441 0.206347 0)
(0.964126 0.304601 0)
(0.866718 0.34469 0)
(1.03201 0.562179 0)