/*--------------------------------*- C++ -*----------------------------------*\
  =========                 |
  \\      /  F ield         | OpenFOAM: The Open Source CFD Toolbox
   \\    /   O peration     | Website:  https://openfoam.org
    \\  /    A nd           | Version:  10
     \\/     M anipulation  |
\*---------------------------------------------------------------------------*/
FoamFile
{
    format      ascii;
    class       volScalarField;
    location    "2.9";
    object      p;
}
// * * * * * * * * * * * * * * * * * * * * * * * * * * * * * * * * * * * * * //

dimensions      [1 -1 -2 0 0 0 0];

internalField   nonuniform List<scalar> 
12225
(
1.02949e+07
1.02949e+07
1.0295e+07
1.02951e+07
1.02953e+07
1.02956e+07
1.02961e+07
1.02968e+07
1.02978e+07
1.02991e+07
1.03009e+07
1.03034e+07
1.03066e+07
1.03107e+07
1.0316e+07
1.03225e+07
1.03309e+07
1.03418e+07
1.02949e+07
1.02949e+07
1.0295e+07
1.02951e+07
1.02953e+07
1.02956e+07
1.02961e+07
1.02968e+07
1.02977e+07
1.0299e+07
1.03009e+07
1.03033e+07
1.03065e+07
1.03106e+07
1.03157e+07
1.03222e+07
1.03304e+07
1.03407e+07
1.02949e+07
1.02949e+07
1.0295e+07
1.02951e+07
1.02953e+07
1.02956e+07
1.0296e+07
1.02967e+07
1.02976e+07
1.02989e+07
1.03007e+07
1.03031e+07
1.03062e+07
1.03102e+07
1.03153e+07
1.03216e+07
1.03294e+07
1.03389e+07
1.02949e+07
1.02949e+07
1.0295e+07
1.02951e+07
1.02953e+07
1.02956e+07
1.0296e+07
1.02966e+07
1.02975e+07
1.02988e+07
1.03005e+07
1.03027e+07
1.03058e+07
1.03096e+07
1.03145e+07
1.03206e+07
1.0328e+07
1.03365e+07
1.02948e+07
1.02949e+07
1.02949e+07
1.0295e+07
1.02952e+07
1.02955e+07
1.02959e+07
1.02965e+07
1.02973e+07
1.02985e+07
1.03001e+07
1.03023e+07
1.03051e+07
1.03088e+07
1.03134e+07
1.03192e+07
1.0326e+07
1.03339e+07
1.02948e+07
1.02949e+07
1.02949e+07
1.0295e+07
1.02952e+07
1.02954e+07
1.02958e+07
1.02963e+07
1.02971e+07
1.02981e+07
1.02996e+07
1.03016e+07
1.03042e+07
1.03077e+07
1.0312e+07
1.03173e+07
1.03237e+07
1.03308e+07
1.02948e+07
1.02948e+07
1.02949e+07
1.0295e+07
1.02951e+07
1.02953e+07
1.02956e+07
1.02961e+07
1.02967e+07
1.02977e+07
1.0299e+07
1.03007e+07
1.03031e+07
1.03062e+07
1.03101e+07
1.0315e+07
1.03208e+07
1.03273e+07
1.02948e+07
1.02948e+07
1.02948e+07
1.02949e+07
1.0295e+07
1.02952e+07
1.02954e+07
1.02958e+07
1.02963e+07
1.02971e+07
1.02982e+07
1.02996e+07
1.03016e+07
1.03043e+07
1.03078e+07
1.03121e+07
1.03173e+07
1.03233e+07
1.02948e+07
1.02948e+07
1.02948e+07
1.02948e+07
1.02949e+07
1.0295e+07
1.02952e+07
1.02955e+07
1.02958e+07
1.02964e+07
1.02972e+07
1.02983e+07
1.02999e+07
1.0302e+07
1.03049e+07
1.03086e+07
1.03132e+07
1.03187e+07
1.02947e+07
1.02947e+07
1.02947e+07
1.02948e+07
1.02948e+07
1.02948e+07
1.02949e+07
1.02951e+07
1.02953e+07
1.02956e+07
1.0296e+07
1.02967e+07
1.02978e+07
1.02993e+07
1.03014e+07
1.03043e+07
1.03083e+07
1.03133e+07
1.02947e+07
1.02947e+07
1.02947e+07
1.02947e+07
1.02947e+07
1.02947e+07
1.02946e+07
1.02946e+07
1.02946e+07
1.02947e+07
1.02947e+07
1.02949e+07
1.02953e+07
1.0296e+07
1.02972e+07
1.02992e+07
1.03023e+07
1.03068e+07
1.02947e+07
1.02947e+07
1.02946e+07
1.02946e+07
1.02945e+07
1.02945e+07
1.02943e+07
1.02942e+07
1.0294e+07
1.02937e+07
1.02934e+07
1.02931e+07
1.02927e+07
1.02925e+07
1.02927e+07
1.02936e+07
1.02957e+07
1.02994e+07
1.02946e+07
1.02946e+07
1.02946e+07
1.02945e+07
1.02944e+07
1.02943e+07
1.0294e+07
1.02937e+07
1.02933e+07
1.02928e+07
1.0292e+07
1.02911e+07
1.029e+07
1.02888e+07
1.02877e+07
1.02871e+07
1.02877e+07
1.02904e+07
1.02946e+07
1.02946e+07
1.02945e+07
1.02944e+07
1.02943e+07
1.0294e+07
1.02937e+07
1.02933e+07
1.02926e+07
1.02917e+07
1.02904e+07
1.02888e+07
1.02867e+07
1.02841e+07
1.02812e+07
1.02782e+07
1.02762e+07
1.02768e+07
1.02946e+07
1.02945e+07
1.02945e+07
1.02943e+07
1.02941e+07
1.02938e+07
1.02934e+07
1.02928e+07
1.02919e+07
1.02906e+07
1.02889e+07
1.02865e+07
1.02832e+07
1.02789e+07
1.02734e+07
1.02665e+07
1.02591e+07
1.02538e+07
1.02946e+07
1.02945e+07
1.02944e+07
1.02943e+07
1.0294e+07
1.02937e+07
1.02932e+07
1.02925e+07
1.02914e+07
1.02899e+07
1.02877e+07
1.02847e+07
1.02805e+07
1.02746e+07
1.02661e+07
1.02538e+07
1.02352e+07
1.02059e+07
2.09423e+07
2.08551e+07
2.07898e+07
2.07333e+07
2.06812e+07
2.06309e+07
2.05816e+07
2.05326e+07
2.04837e+07
2.04345e+07
2.03847e+07
2.0334e+07
2.02821e+07
2.02284e+07
2.01723e+07
2.01131e+07
2.00495e+07
1.99801e+07
2.08786e+07
2.08336e+07
2.07817e+07
2.07305e+07
2.06809e+07
2.06329e+07
2.05859e+07
2.05394e+07
2.04933e+07
2.04474e+07
2.04016e+07
2.03559e+07
2.03104e+07
2.02653e+07
2.02211e+07
2.01788e+07
2.01398e+07
2.01072e+07
2.08073e+07
2.07844e+07
2.07502e+07
2.07111e+07
2.06699e+07
2.0628e+07
2.05861e+07
2.05443e+07
2.05029e+07
2.04621e+07
2.0422e+07
2.0383e+07
2.03452e+07
2.03091e+07
2.02753e+07
2.02443e+07
2.02169e+07
2.01937e+07
2.07604e+07
2.07454e+07
2.07205e+07
2.06897e+07
2.06556e+07
2.06197e+07
2.05829e+07
2.0546e+07
2.05093e+07
2.04732e+07
2.0438e+07
2.04041e+07
2.03717e+07
2.03412e+07
2.0313e+07
2.02872e+07
2.02642e+07
2.02441e+07
2.07316e+07
2.072e+07
2.06999e+07
2.0674e+07
2.06444e+07
2.06125e+07
2.05795e+07
2.0546e+07
2.05126e+07
2.04798e+07
2.04479e+07
2.04173e+07
2.03882e+07
2.03609e+07
2.03355e+07
2.03124e+07
2.02914e+07
2.02728e+07
2.07118e+07
2.0702e+07
2.06847e+07
2.06619e+07
2.06354e+07
2.06065e+07
2.05762e+07
2.05453e+07
2.05145e+07
2.04841e+07
2.04546e+07
2.04262e+07
2.03993e+07
2.0374e+07
2.03505e+07
2.03289e+07
2.03093e+07
2.02915e+07
2.06979e+07
2.06892e+07
2.06737e+07
2.0653e+07
2.06286e+07
2.06017e+07
2.05734e+07
2.05445e+07
2.05154e+07
2.04868e+07
2.04589e+07
2.04322e+07
2.04067e+07
2.03828e+07
2.03605e+07
2.034e+07
2.03211e+07
2.0304e+07
2.06882e+07
2.06802e+07
2.06659e+07
2.06465e+07
2.06236e+07
2.05982e+07
2.05713e+07
2.05436e+07
2.05159e+07
2.04884e+07
2.04618e+07
2.04361e+07
2.04117e+07
2.03887e+07
2.03672e+07
2.03473e+07
2.0329e+07
2.03123e+07
2.06814e+07
2.0674e+07
2.06603e+07
2.06419e+07
2.062e+07
2.05955e+07
2.05696e+07
2.05429e+07
2.0516e+07
2.04895e+07
2.04636e+07
2.04387e+07
2.0415e+07
2.03926e+07
2.03717e+07
2.03522e+07
2.03343e+07
2.03178e+07
2.06769e+07
2.06697e+07
2.06566e+07
2.06388e+07
2.06174e+07
2.05937e+07
2.05684e+07
2.05423e+07
2.05161e+07
2.04901e+07
2.04647e+07
2.04403e+07
2.04171e+07
2.03951e+07
2.03745e+07
2.03554e+07
2.03377e+07
2.03214e+07
2.06739e+07
2.06669e+07
2.06541e+07
2.06367e+07
2.06158e+07
2.05925e+07
2.05676e+07
2.05419e+07
2.05161e+07
2.04904e+07
2.04654e+07
2.04414e+07
2.04184e+07
2.03967e+07
2.03764e+07
2.03574e+07
2.03399e+07
2.03237e+07
2.06721e+07
2.06652e+07
2.06526e+07
2.06354e+07
2.06147e+07
2.05917e+07
2.05671e+07
2.05417e+07
2.0516e+07
2.04906e+07
2.04658e+07
2.0442e+07
2.04192e+07
2.03977e+07
2.03775e+07
2.03586e+07
2.03412e+07
2.03251e+07
2.06711e+07
2.06643e+07
2.06517e+07
2.06347e+07
2.06142e+07
2.05912e+07
2.05668e+07
2.05415e+07
2.0516e+07
2.04907e+07
2.0466e+07
2.04423e+07
2.04196e+07
2.03982e+07
2.0378e+07
2.03593e+07
2.03419e+07
2.03258e+07
2.06707e+07
2.06639e+07
2.06514e+07
2.06344e+07
2.06139e+07
2.05911e+07
2.05667e+07
2.05414e+07
2.0516e+07
2.04907e+07
2.04661e+07
2.04424e+07
2.04198e+07
2.03984e+07
2.03783e+07
2.03595e+07
2.03422e+07
2.03261e+07
1.04639e+07
1.04639e+07
1.0464e+07
1.04642e+07
1.04644e+07
1.04647e+07
1.0465e+07
1.04654e+07
1.04659e+07
1.04664e+07
1.0467e+07
1.04676e+07
1.04683e+07
1.0469e+07
1.04699e+07
1.04707e+07
1.04717e+07
1.04727e+07
1.04737e+07
1.04749e+07
1.0476e+07
1.04773e+07
1.04786e+07
1.04799e+07
1.04813e+07
1.04828e+07
1.04843e+07
1.04859e+07
1.04875e+07
1.04892e+07
1.04909e+07
1.04927e+07
1.04945e+07
1.04963e+07
1.04982e+07
1.05002e+07
1.05022e+07
1.05042e+07
1.05063e+07
1.05084e+07
1.05105e+07
1.05127e+07
1.05149e+07
1.05171e+07
1.05193e+07
1.05216e+07
1.05239e+07
1.05263e+07
1.05286e+07
1.0531e+07
1.05334e+07
1.05358e+07
1.05383e+07
1.05407e+07
1.05432e+07
1.05457e+07
1.05482e+07
1.05507e+07
1.05532e+07
1.05558e+07
1.05583e+07
1.05609e+07
1.05634e+07
1.0566e+07
1.05686e+07
1.05711e+07
1.05737e+07
1.05763e+07
1.05789e+07
1.05815e+07
1.05841e+07
1.05867e+07
1.05893e+07
1.05919e+07
1.05945e+07
1.05971e+07
1.05997e+07
1.06022e+07
1.06048e+07
1.06074e+07
1.061e+07
1.06126e+07
1.06152e+07
1.06177e+07
1.06203e+07
1.06229e+07
1.06254e+07
1.0628e+07
1.06305e+07
1.06331e+07
1.06356e+07
1.06381e+07
1.06406e+07
1.06432e+07
1.06457e+07
1.06482e+07
1.06507e+07
1.06532e+07
1.06557e+07
1.06581e+07
1.06606e+07
1.06631e+07
1.06655e+07
1.0668e+07
1.06704e+07
1.06729e+07
1.06753e+07
1.06777e+07
1.06802e+07
1.06826e+07
1.0685e+07
1.06874e+07
1.06898e+07
1.06922e+07
1.06946e+07
1.0697e+07
1.06993e+07
1.07017e+07
1.07041e+07
1.07065e+07
1.07088e+07
1.07112e+07
1.07136e+07
1.07159e+07
1.07183e+07
1.07207e+07
1.07231e+07
1.07254e+07
1.07278e+07
1.07302e+07
1.07326e+07
1.0735e+07
1.07374e+07
1.07398e+07
1.07422e+07
1.07447e+07
1.07471e+07
1.07495e+07
1.0752e+07
1.07545e+07
1.0757e+07
1.07594e+07
1.07619e+07
1.07645e+07
1.0767e+07
1.07695e+07
1.07721e+07
1.07746e+07
1.07771e+07
1.07797e+07
1.07822e+07
1.07848e+07
1.07873e+07
1.07898e+07
1.07922e+07
1.07946e+07
1.0797e+07
1.07993e+07
1.08015e+07
1.08036e+07
1.08056e+07
1.08074e+07
1.08091e+07
1.08106e+07
1.08118e+07
1.08127e+07
1.08133e+07
1.08136e+07
1.08134e+07
1.08127e+07
1.08114e+07
1.08096e+07
1.0807e+07
1.08037e+07
1.07996e+07
1.07945e+07
1.07886e+07
1.07817e+07
1.07738e+07
1.0765e+07
1.04636e+07
1.04637e+07
1.04638e+07
1.0464e+07
1.04642e+07
1.04645e+07
1.04648e+07
1.04652e+07
1.04656e+07
1.04662e+07
1.04667e+07
1.04674e+07
1.04681e+07
1.04688e+07
1.04697e+07
1.04705e+07
1.04715e+07
1.04725e+07
1.04735e+07
1.04747e+07
1.04759e+07
1.04771e+07
1.04784e+07
1.04798e+07
1.04812e+07
1.04826e+07
1.04842e+07
1.04857e+07
1.04874e+07
1.04891e+07
1.04908e+07
1.04926e+07
1.04944e+07
1.04962e+07
1.04982e+07
1.05001e+07
1.05021e+07
1.05041e+07
1.05062e+07
1.05083e+07
1.05104e+07
1.05126e+07
1.05148e+07
1.0517e+07
1.05193e+07
1.05216e+07
1.05239e+07
1.05263e+07
1.05286e+07
1.0531e+07
1.05334e+07
1.05358e+07
1.05383e+07
1.05407e+07
1.05432e+07
1.05457e+07
1.05482e+07
1.05507e+07
1.05532e+07
1.05558e+07
1.05583e+07
1.05609e+07
1.05634e+07
1.0566e+07
1.05686e+07
1.05712e+07
1.05737e+07
1.05763e+07
1.05789e+07
1.05815e+07
1.05841e+07
1.05867e+07
1.05893e+07
1.05919e+07
1.05945e+07
1.05971e+07
1.05997e+07
1.06023e+07
1.06049e+07
1.06074e+07
1.061e+07
1.06126e+07
1.06152e+07
1.06177e+07
1.06203e+07
1.06229e+07
1.06254e+07
1.0628e+07
1.06305e+07
1.06331e+07
1.06356e+07
1.06381e+07
1.06407e+07
1.06432e+07
1.06457e+07
1.06482e+07
1.06507e+07
1.06532e+07
1.06557e+07
1.06581e+07
1.06606e+07
1.06631e+07
1.06655e+07
1.0668e+07
1.06704e+07
1.06729e+07
1.06753e+07
1.06777e+07
1.06802e+07
1.06826e+07
1.0685e+07
1.06874e+07
1.06898e+07
1.06922e+07
1.06946e+07
1.0697e+07
1.06993e+07
1.07017e+07
1.07041e+07
1.07065e+07
1.07088e+07
1.07112e+07
1.07136e+07
1.07159e+07
1.07183e+07
1.07207e+07
1.07231e+07
1.07254e+07
1.07278e+07
1.07302e+07
1.07326e+07
1.0735e+07
1.07374e+07
1.07398e+07
1.07422e+07
1.07446e+07
1.07471e+07
1.07495e+07
1.0752e+07
1.07545e+07
1.07569e+07
1.07594e+07
1.07619e+07
1.07645e+07
1.0767e+07
1.07695e+07
1.07721e+07
1.07746e+07
1.07771e+07
1.07797e+07
1.07822e+07
1.07848e+07
1.07873e+07
1.07898e+07
1.07922e+07
1.07946e+07
1.0797e+07
1.07993e+07
1.08015e+07
1.08036e+07
1.08056e+07
1.08075e+07
1.08092e+07
1.08106e+07
1.08119e+07
1.08128e+07
1.08134e+07
1.08137e+07
1.08135e+07
1.08128e+07
1.08116e+07
1.08097e+07
1.08072e+07
1.08039e+07
1.07997e+07
1.07947e+07
1.07888e+07
1.07819e+07
1.0774e+07
1.07651e+07
1.04631e+07
1.04632e+07
1.04633e+07
1.04635e+07
1.04637e+07
1.0464e+07
1.04643e+07
1.04647e+07
1.04652e+07
1.04657e+07
1.04663e+07
1.04669e+07
1.04676e+07
1.04684e+07
1.04692e+07
1.04701e+07
1.04711e+07
1.04721e+07
1.04732e+07
1.04743e+07
1.04755e+07
1.04768e+07
1.04781e+07
1.04795e+07
1.04809e+07
1.04824e+07
1.04839e+07
1.04855e+07
1.04871e+07
1.04888e+07
1.04906e+07
1.04924e+07
1.04942e+07
1.04961e+07
1.0498e+07
1.05e+07
1.0502e+07
1.0504e+07
1.05061e+07
1.05082e+07
1.05104e+07
1.05125e+07
1.05147e+07
1.0517e+07
1.05193e+07
1.05216e+07
1.05239e+07
1.05262e+07
1.05286e+07
1.0531e+07
1.05334e+07
1.05358e+07
1.05383e+07
1.05407e+07
1.05432e+07
1.05457e+07
1.05482e+07
1.05507e+07
1.05533e+07
1.05558e+07
1.05584e+07
1.05609e+07
1.05635e+07
1.0566e+07
1.05686e+07
1.05712e+07
1.05738e+07
1.05764e+07
1.0579e+07
1.05816e+07
1.05842e+07
1.05867e+07
1.05893e+07
1.05919e+07
1.05945e+07
1.05971e+07
1.05997e+07
1.06023e+07
1.06049e+07
1.06075e+07
1.06101e+07
1.06126e+07
1.06152e+07
1.06178e+07
1.06204e+07
1.06229e+07
1.06255e+07
1.0628e+07
1.06306e+07
1.06331e+07
1.06356e+07
1.06382e+07
1.06407e+07
1.06432e+07
1.06457e+07
1.06482e+07
1.06507e+07
1.06532e+07
1.06557e+07
1.06582e+07
1.06607e+07
1.06631e+07
1.06656e+07
1.0668e+07
1.06705e+07
1.06729e+07
1.06753e+07
1.06778e+07
1.06802e+07
1.06826e+07
1.0685e+07
1.06874e+07
1.06898e+07
1.06922e+07
1.06946e+07
1.0697e+07
1.06994e+07
1.07017e+07
1.07041e+07
1.07065e+07
1.07088e+07
1.07112e+07
1.07136e+07
1.0716e+07
1.07183e+07
1.07207e+07
1.07231e+07
1.07254e+07
1.07278e+07
1.07302e+07
1.07326e+07
1.0735e+07
1.07374e+07
1.07398e+07
1.07422e+07
1.07446e+07
1.07471e+07
1.07495e+07
1.0752e+07
1.07545e+07
1.07569e+07
1.07594e+07
1.07619e+07
1.07645e+07
1.0767e+07
1.07695e+07
1.07721e+07
1.07746e+07
1.07771e+07
1.07797e+07
1.07822e+07
1.07848e+07
1.07873e+07
1.07898e+07
1.07923e+07
1.07947e+07
1.0797e+07
1.07994e+07
1.08016e+07
1.08037e+07
1.08057e+07
1.08076e+07
1.08093e+07
1.08108e+07
1.0812e+07
1.0813e+07
1.08136e+07
1.08139e+07
1.08137e+07
1.0813e+07
1.08118e+07
1.081e+07
1.08075e+07
1.08042e+07
1.08001e+07
1.07951e+07
1.07892e+07
1.07822e+07
1.07743e+07
1.07654e+07
1.04624e+07
1.04625e+07
1.04626e+07
1.04627e+07
1.0463e+07
1.04633e+07
1.04636e+07
1.0464e+07
1.04645e+07
1.0465e+07
1.04656e+07
1.04663e+07
1.0467e+07
1.04678e+07
1.04686e+07
1.04695e+07
1.04705e+07
1.04716e+07
1.04727e+07
1.04738e+07
1.0475e+07
1.04763e+07
1.04776e+07
1.0479e+07
1.04805e+07
1.0482e+07
1.04835e+07
1.04851e+07
1.04868e+07
1.04885e+07
1.04903e+07
1.04921e+07
1.04939e+07
1.04958e+07
1.04978e+07
1.04998e+07
1.05018e+07
1.05038e+07
1.05059e+07
1.05081e+07
1.05102e+07
1.05124e+07
1.05146e+07
1.05169e+07
1.05192e+07
1.05215e+07
1.05238e+07
1.05262e+07
1.05286e+07
1.0531e+07
1.05334e+07
1.05358e+07
1.05383e+07
1.05407e+07
1.05432e+07
1.05457e+07
1.05482e+07
1.05508e+07
1.05533e+07
1.05558e+07
1.05584e+07
1.0561e+07
1.05635e+07
1.05661e+07
1.05687e+07
1.05713e+07
1.05738e+07
1.05764e+07
1.0579e+07
1.05816e+07
1.05842e+07
1.05868e+07
1.05894e+07
1.0592e+07
1.05946e+07
1.05972e+07
1.05998e+07
1.06024e+07
1.0605e+07
1.06076e+07
1.06101e+07
1.06127e+07
1.06153e+07
1.06179e+07
1.06204e+07
1.0623e+07
1.06255e+07
1.06281e+07
1.06306e+07
1.06332e+07
1.06357e+07
1.06382e+07
1.06408e+07
1.06433e+07
1.06458e+07
1.06483e+07
1.06508e+07
1.06533e+07
1.06558e+07
1.06582e+07
1.06607e+07
1.06632e+07
1.06656e+07
1.06681e+07
1.06705e+07
1.0673e+07
1.06754e+07
1.06778e+07
1.06802e+07
1.06826e+07
1.06851e+07
1.06875e+07
1.06898e+07
1.06922e+07
1.06946e+07
1.0697e+07
1.06994e+07
1.07018e+07
1.07041e+07
1.07065e+07
1.07089e+07
1.07112e+07
1.07136e+07
1.0716e+07
1.07183e+07
1.07207e+07
1.07231e+07
1.07254e+07
1.07278e+07
1.07302e+07
1.07326e+07
1.0735e+07
1.07374e+07
1.07398e+07
1.07422e+07
1.07446e+07
1.07471e+07
1.07495e+07
1.0752e+07
1.07545e+07
1.07569e+07
1.07594e+07
1.07619e+07
1.07645e+07
1.0767e+07
1.07695e+07
1.07721e+07
1.07746e+07
1.07772e+07
1.07797e+07
1.07823e+07
1.07848e+07
1.07873e+07
1.07898e+07
1.07923e+07
1.07947e+07
1.07971e+07
1.07994e+07
1.08017e+07
1.08038e+07
1.08058e+07
1.08077e+07
1.08094e+07
1.08109e+07
1.08122e+07
1.08132e+07
1.08139e+07
1.08142e+07
1.0814e+07
1.08134e+07
1.08123e+07
1.08105e+07
1.0808e+07
1.08047e+07
1.08006e+07
1.07957e+07
1.07897e+07
1.07828e+07
1.07748e+07
1.07658e+07
1.04614e+07
1.04615e+07
1.04616e+07
1.04618e+07
1.0462e+07
1.04623e+07
1.04627e+07
1.04631e+07
1.04636e+07
1.04641e+07
1.04647e+07
1.04654e+07
1.04661e+07
1.0467e+07
1.04678e+07
1.04688e+07
1.04698e+07
1.04708e+07
1.04719e+07
1.04731e+07
1.04744e+07
1.04757e+07
1.0477e+07
1.04785e+07
1.04799e+07
1.04815e+07
1.0483e+07
1.04847e+07
1.04864e+07
1.04881e+07
1.04899e+07
1.04917e+07
1.04936e+07
1.04955e+07
1.04975e+07
1.04995e+07
1.05015e+07
1.05036e+07
1.05057e+07
1.05079e+07
1.05101e+07
1.05123e+07
1.05145e+07
1.05168e+07
1.05191e+07
1.05214e+07
1.05238e+07
1.05261e+07
1.05285e+07
1.05309e+07
1.05334e+07
1.05358e+07
1.05383e+07
1.05408e+07
1.05433e+07
1.05458e+07
1.05483e+07
1.05508e+07
1.05534e+07
1.05559e+07
1.05585e+07
1.0561e+07
1.05636e+07
1.05662e+07
1.05688e+07
1.05713e+07
1.05739e+07
1.05765e+07
1.05791e+07
1.05817e+07
1.05843e+07
1.05869e+07
1.05895e+07
1.05921e+07
1.05947e+07
1.05973e+07
1.05999e+07
1.06025e+07
1.06051e+07
1.06077e+07
1.06102e+07
1.06128e+07
1.06154e+07
1.0618e+07
1.06205e+07
1.06231e+07
1.06256e+07
1.06282e+07
1.06307e+07
1.06333e+07
1.06358e+07
1.06383e+07
1.06409e+07
1.06434e+07
1.06459e+07
1.06484e+07
1.06509e+07
1.06534e+07
1.06558e+07
1.06583e+07
1.06608e+07
1.06632e+07
1.06657e+07
1.06681e+07
1.06706e+07
1.0673e+07
1.06755e+07
1.06779e+07
1.06803e+07
1.06827e+07
1.06851e+07
1.06875e+07
1.06899e+07
1.06923e+07
1.06947e+07
1.06971e+07
1.06994e+07
1.07018e+07
1.07042e+07
1.07065e+07
1.07089e+07
1.07113e+07
1.07136e+07
1.0716e+07
1.07184e+07
1.07207e+07
1.07231e+07
1.07255e+07
1.07278e+07
1.07302e+07
1.07326e+07
1.0735e+07
1.07374e+07
1.07398e+07
1.07422e+07
1.07447e+07
1.07471e+07
1.07495e+07
1.0752e+07
1.07545e+07
1.07569e+07
1.07594e+07
1.07619e+07
1.07645e+07
1.0767e+07
1.07695e+07
1.07721e+07
1.07746e+07
1.07772e+07
1.07797e+07
1.07823e+07
1.07848e+07
1.07874e+07
1.07899e+07
1.07924e+07
1.07948e+07
1.07972e+07
1.07995e+07
1.08018e+07
1.0804e+07
1.0806e+07
1.08079e+07
1.08097e+07
1.08112e+07
1.08125e+07
1.08135e+07
1.08143e+07
1.08146e+07
1.08145e+07
1.08139e+07
1.08128e+07
1.08111e+07
1.08086e+07
1.08054e+07
1.08014e+07
1.07964e+07
1.07905e+07
1.07836e+07
1.07756e+07
1.07665e+07
1.04602e+07
1.04602e+07
1.04603e+07
1.04605e+07
1.04608e+07
1.04611e+07
1.04615e+07
1.04619e+07
1.04624e+07
1.0463e+07
1.04636e+07
1.04643e+07
1.04651e+07
1.04659e+07
1.04668e+07
1.04678e+07
1.04688e+07
1.04699e+07
1.0471e+07
1.04723e+07
1.04735e+07
1.04749e+07
1.04763e+07
1.04777e+07
1.04792e+07
1.04808e+07
1.04824e+07
1.04841e+07
1.04858e+07
1.04876e+07
1.04894e+07
1.04913e+07
1.04932e+07
1.04951e+07
1.04971e+07
1.04992e+07
1.05012e+07
1.05033e+07
1.05055e+07
1.05077e+07
1.05099e+07
1.05121e+07
1.05144e+07
1.05167e+07
1.0519e+07
1.05213e+07
1.05237e+07
1.05261e+07
1.05285e+07
1.05309e+07
1.05334e+07
1.05358e+07
1.05383e+07
1.05408e+07
1.05433e+07
1.05458e+07
1.05483e+07
1.05509e+07
1.05534e+07
1.0556e+07
1.05586e+07
1.05611e+07
1.05637e+07
1.05663e+07
1.05689e+07
1.05715e+07
1.05741e+07
1.05767e+07
1.05792e+07
1.05818e+07
1.05844e+07
1.0587e+07
1.05896e+07
1.05922e+07
1.05948e+07
1.05974e+07
1.06e+07
1.06026e+07
1.06052e+07
1.06078e+07
1.06104e+07
1.0613e+07
1.06155e+07
1.06181e+07
1.06207e+07
1.06232e+07
1.06258e+07
1.06283e+07
1.06309e+07
1.06334e+07
1.06359e+07
1.06384e+07
1.0641e+07
1.06435e+07
1.0646e+07
1.06485e+07
1.0651e+07
1.06535e+07
1.06559e+07
1.06584e+07
1.06609e+07
1.06633e+07
1.06658e+07
1.06682e+07
1.06707e+07
1.06731e+07
1.06755e+07
1.0678e+07
1.06804e+07
1.06828e+07
1.06852e+07
1.06876e+07
1.069e+07
1.06924e+07
1.06947e+07
1.06971e+07
1.06995e+07
1.07019e+07
1.07042e+07
1.07066e+07
1.0709e+07
1.07113e+07
1.07137e+07
1.0716e+07
1.07184e+07
1.07208e+07
1.07231e+07
1.07255e+07
1.07279e+07
1.07302e+07
1.07326e+07
1.0735e+07
1.07374e+07
1.07398e+07
1.07422e+07
1.07447e+07
1.07471e+07
1.07495e+07
1.0752e+07
1.07545e+07
1.0757e+07
1.07594e+07
1.0762e+07
1.07645e+07
1.0767e+07
1.07695e+07
1.07721e+07
1.07746e+07
1.07772e+07
1.07798e+07
1.07823e+07
1.07849e+07
1.07874e+07
1.079e+07
1.07924e+07
1.07949e+07
1.07973e+07
1.07997e+07
1.0802e+07
1.08042e+07
1.08062e+07
1.08082e+07
1.081e+07
1.08115e+07
1.08129e+07
1.0814e+07
1.08147e+07
1.08151e+07
1.08151e+07
1.08146e+07
1.08135e+07
1.08118e+07
1.08095e+07
1.08063e+07
1.08023e+07
1.07974e+07
1.07915e+07
1.07845e+07
1.07765e+07
1.07673e+07
1.04586e+07
1.04587e+07
1.04588e+07
1.0459e+07
1.04593e+07
1.04596e+07
1.046e+07
1.04605e+07
1.0461e+07
1.04616e+07
1.04622e+07
1.0463e+07
1.04638e+07
1.04646e+07
1.04656e+07
1.04666e+07
1.04676e+07
1.04688e+07
1.047e+07
1.04712e+07
1.04726e+07
1.04739e+07
1.04754e+07
1.04769e+07
1.04784e+07
1.048e+07
1.04817e+07
1.04834e+07
1.04852e+07
1.0487e+07
1.04888e+07
1.04907e+07
1.04927e+07
1.04947e+07
1.04967e+07
1.04988e+07
1.05009e+07
1.0503e+07
1.05052e+07
1.05074e+07
1.05096e+07
1.05119e+07
1.05142e+07
1.05165e+07
1.05189e+07
1.05212e+07
1.05236e+07
1.0526e+07
1.05284e+07
1.05309e+07
1.05334e+07
1.05358e+07
1.05383e+07
1.05408e+07
1.05433e+07
1.05459e+07
1.05484e+07
1.0551e+07
1.05535e+07
1.05561e+07
1.05587e+07
1.05612e+07
1.05638e+07
1.05664e+07
1.0569e+07
1.05716e+07
1.05742e+07
1.05768e+07
1.05794e+07
1.0582e+07
1.05846e+07
1.05872e+07
1.05898e+07
1.05924e+07
1.0595e+07
1.05976e+07
1.06002e+07
1.06028e+07
1.06054e+07
1.0608e+07
1.06105e+07
1.06131e+07
1.06157e+07
1.06182e+07
1.06208e+07
1.06234e+07
1.06259e+07
1.06285e+07
1.0631e+07
1.06335e+07
1.06361e+07
1.06386e+07
1.06411e+07
1.06436e+07
1.06461e+07
1.06486e+07
1.06511e+07
1.06536e+07
1.06561e+07
1.06585e+07
1.0661e+07
1.06635e+07
1.06659e+07
1.06684e+07
1.06708e+07
1.06732e+07
1.06756e+07
1.06781e+07
1.06805e+07
1.06829e+07
1.06853e+07
1.06877e+07
1.06901e+07
1.06924e+07
1.06948e+07
1.06972e+07
1.06996e+07
1.07019e+07
1.07043e+07
1.07067e+07
1.0709e+07
1.07114e+07
1.07137e+07
1.07161e+07
1.07184e+07
1.07208e+07
1.07232e+07
1.07255e+07
1.07279e+07
1.07303e+07
1.07327e+07
1.0735e+07
1.07374e+07
1.07398e+07
1.07423e+07
1.07447e+07
1.07471e+07
1.07496e+07
1.0752e+07
1.07545e+07
1.0757e+07
1.07595e+07
1.0762e+07
1.07645e+07
1.0767e+07
1.07696e+07
1.07721e+07
1.07747e+07
1.07772e+07
1.07798e+07
1.07824e+07
1.07849e+07
1.07875e+07
1.079e+07
1.07926e+07
1.0795e+07
1.07975e+07
1.07999e+07
1.08022e+07
1.08044e+07
1.08065e+07
1.08085e+07
1.08103e+07
1.08119e+07
1.08133e+07
1.08145e+07
1.08153e+07
1.08158e+07
1.08158e+07
1.08154e+07
1.08144e+07
1.08128e+07
1.08105e+07
1.08074e+07
1.08034e+07
1.07986e+07
1.07927e+07
1.07857e+07
1.07776e+07
1.07684e+07
1.04568e+07
1.04569e+07
1.0457e+07
1.04573e+07
1.04575e+07
1.04579e+07
1.04583e+07
1.04588e+07
1.04593e+07
1.046e+07
1.04606e+07
1.04614e+07
1.04623e+07
1.04632e+07
1.04641e+07
1.04652e+07
1.04663e+07
1.04675e+07
1.04687e+07
1.047e+07
1.04714e+07
1.04728e+07
1.04743e+07
1.04759e+07
1.04775e+07
1.04791e+07
1.04808e+07
1.04826e+07
1.04844e+07
1.04863e+07
1.04882e+07
1.04901e+07
1.04921e+07
1.04942e+07
1.04962e+07
1.04983e+07
1.05005e+07
1.05027e+07
1.05049e+07
1.05071e+07
1.05094e+07
1.05117e+07
1.0514e+07
1.05164e+07
1.05187e+07
1.05211e+07
1.05235e+07
1.0526e+07
1.05284e+07
1.05309e+07
1.05334e+07
1.05359e+07
1.05384e+07
1.05409e+07
1.05434e+07
1.0546e+07
1.05485e+07
1.05511e+07
1.05536e+07
1.05562e+07
1.05588e+07
1.05614e+07
1.0564e+07
1.05666e+07
1.05692e+07
1.05718e+07
1.05744e+07
1.0577e+07
1.05796e+07
1.05822e+07
1.05848e+07
1.05874e+07
1.059e+07
1.05926e+07
1.05952e+07
1.05978e+07
1.06004e+07
1.0603e+07
1.06056e+07
1.06081e+07
1.06107e+07
1.06133e+07
1.06159e+07
1.06184e+07
1.0621e+07
1.06235e+07
1.06261e+07
1.06286e+07
1.06312e+07
1.06337e+07
1.06362e+07
1.06388e+07
1.06413e+07
1.06438e+07
1.06463e+07
1.06488e+07
1.06513e+07
1.06537e+07
1.06562e+07
1.06587e+07
1.06611e+07
1.06636e+07
1.0666e+07
1.06685e+07
1.06709e+07
1.06733e+07
1.06758e+07
1.06782e+07
1.06806e+07
1.0683e+07
1.06854e+07
1.06878e+07
1.06902e+07
1.06925e+07
1.06949e+07
1.06973e+07
1.06997e+07
1.0702e+07
1.07044e+07
1.07067e+07
1.07091e+07
1.07114e+07
1.07138e+07
1.07161e+07
1.07185e+07
1.07209e+07
1.07232e+07
1.07256e+07
1.07279e+07
1.07303e+07
1.07327e+07
1.07351e+07
1.07375e+07
1.07399e+07
1.07423e+07
1.07447e+07
1.07471e+07
1.07496e+07
1.0752e+07
1.07545e+07
1.0757e+07
1.07595e+07
1.0762e+07
1.07645e+07
1.0767e+07
1.07696e+07
1.07721e+07
1.07747e+07
1.07773e+07
1.07799e+07
1.07824e+07
1.0785e+07
1.07876e+07
1.07901e+07
1.07927e+07
1.07952e+07
1.07976e+07
1.08e+07
1.08024e+07
1.08046e+07
1.08068e+07
1.08088e+07
1.08107e+07
1.08124e+07
1.08139e+07
1.08151e+07
1.0816e+07
1.08165e+07
1.08166e+07
1.08163e+07
1.08154e+07
1.08139e+07
1.08116e+07
1.08086e+07
1.08047e+07
1.07999e+07
1.07941e+07
1.07871e+07
1.0779e+07
1.07697e+07
1.04547e+07
1.04548e+07
1.0455e+07
1.04552e+07
1.04555e+07
1.04558e+07
1.04563e+07
1.04568e+07
1.04574e+07
1.04581e+07
1.04588e+07
1.04596e+07
1.04605e+07
1.04614e+07
1.04625e+07
1.04636e+07
1.04647e+07
1.0466e+07
1.04673e+07
1.04686e+07
1.04701e+07
1.04716e+07
1.04731e+07
1.04747e+07
1.04764e+07
1.04781e+07
1.04799e+07
1.04817e+07
1.04836e+07
1.04855e+07
1.04875e+07
1.04895e+07
1.04915e+07
1.04936e+07
1.04957e+07
1.04979e+07
1.05e+07
1.05023e+07
1.05045e+07
1.05068e+07
1.05091e+07
1.05114e+07
1.05138e+07
1.05162e+07
1.05186e+07
1.0521e+07
1.05234e+07
1.05259e+07
1.05284e+07
1.05309e+07
1.05334e+07
1.05359e+07
1.05384e+07
1.0541e+07
1.05435e+07
1.05461e+07
1.05486e+07
1.05512e+07
1.05538e+07
1.05564e+07
1.0559e+07
1.05616e+07
1.05641e+07
1.05668e+07
1.05694e+07
1.0572e+07
1.05746e+07
1.05772e+07
1.05798e+07
1.05824e+07
1.0585e+07
1.05876e+07
1.05902e+07
1.05928e+07
1.05954e+07
1.0598e+07
1.06006e+07
1.06032e+07
1.06058e+07
1.06084e+07
1.06109e+07
1.06135e+07
1.06161e+07
1.06186e+07
1.06212e+07
1.06238e+07
1.06263e+07
1.06288e+07
1.06314e+07
1.06339e+07
1.06364e+07
1.0639e+07
1.06415e+07
1.0644e+07
1.06465e+07
1.0649e+07
1.06514e+07
1.06539e+07
1.06564e+07
1.06589e+07
1.06613e+07
1.06638e+07
1.06662e+07
1.06686e+07
1.06711e+07
1.06735e+07
1.06759e+07
1.06783e+07
1.06807e+07
1.06831e+07
1.06855e+07
1.06879e+07
1.06903e+07
1.06927e+07
1.0695e+07
1.06974e+07
1.06998e+07
1.07021e+07
1.07045e+07
1.07068e+07
1.07092e+07
1.07115e+07
1.07139e+07
1.07162e+07
1.07186e+07
1.07209e+07
1.07233e+07
1.07256e+07
1.0728e+07
1.07304e+07
1.07327e+07
1.07351e+07
1.07375e+07
1.07399e+07
1.07423e+07
1.07447e+07
1.07471e+07
1.07496e+07
1.0752e+07
1.07545e+07
1.0757e+07
1.07595e+07
1.0762e+07
1.07645e+07
1.07671e+07
1.07696e+07
1.07722e+07
1.07747e+07
1.07773e+07
1.07799e+07
1.07825e+07
1.07851e+07
1.07877e+07
1.07902e+07
1.07928e+07
1.07953e+07
1.07978e+07
1.08003e+07
1.08026e+07
1.08049e+07
1.08071e+07
1.08092e+07
1.08112e+07
1.08129e+07
1.08144e+07
1.08157e+07
1.08167e+07
1.08173e+07
1.08176e+07
1.08173e+07
1.08165e+07
1.08151e+07
1.0813e+07
1.08101e+07
1.08063e+07
1.08015e+07
1.07957e+07
1.07887e+07
1.07806e+07
1.07712e+07
1.04523e+07
1.04524e+07
1.04526e+07
1.04528e+07
1.04531e+07
1.04535e+07
1.0454e+07
1.04545e+07
1.04552e+07
1.04559e+07
1.04567e+07
1.04575e+07
1.04585e+07
1.04595e+07
1.04606e+07
1.04617e+07
1.0463e+07
1.04643e+07
1.04657e+07
1.04671e+07
1.04686e+07
1.04702e+07
1.04718e+07
1.04735e+07
1.04752e+07
1.0477e+07
1.04788e+07
1.04807e+07
1.04826e+07
1.04846e+07
1.04866e+07
1.04887e+07
1.04908e+07
1.04929e+07
1.04951e+07
1.04973e+07
1.04996e+07
1.05018e+07
1.05041e+07
1.05065e+07
1.05088e+07
1.05112e+07
1.05136e+07
1.0516e+07
1.05184e+07
1.05209e+07
1.05234e+07
1.05258e+07
1.05283e+07
1.05309e+07
1.05334e+07
1.05359e+07
1.05385e+07
1.0541e+07
1.05436e+07
1.05462e+07
1.05488e+07
1.05513e+07
1.05539e+07
1.05565e+07
1.05591e+07
1.05617e+07
1.05644e+07
1.0567e+07
1.05696e+07
1.05722e+07
1.05748e+07
1.05774e+07
1.058e+07
1.05826e+07
1.05852e+07
1.05878e+07
1.05905e+07
1.05931e+07
1.05957e+07
1.05983e+07
1.06008e+07
1.06034e+07
1.0606e+07
1.06086e+07
1.06112e+07
1.06138e+07
1.06163e+07
1.06189e+07
1.06214e+07
1.0624e+07
1.06265e+07
1.06291e+07
1.06316e+07
1.06341e+07
1.06367e+07
1.06392e+07
1.06417e+07
1.06442e+07
1.06467e+07
1.06492e+07
1.06516e+07
1.06541e+07
1.06566e+07
1.0659e+07
1.06615e+07
1.06639e+07
1.06664e+07
1.06688e+07
1.06712e+07
1.06737e+07
1.06761e+07
1.06785e+07
1.06809e+07
1.06833e+07
1.06857e+07
1.0688e+07
1.06904e+07
1.06928e+07
1.06952e+07
1.06975e+07
1.06999e+07
1.07022e+07
1.07046e+07
1.07069e+07
1.07093e+07
1.07116e+07
1.0714e+07
1.07163e+07
1.07186e+07
1.0721e+07
1.07233e+07
1.07257e+07
1.0728e+07
1.07304e+07
1.07328e+07
1.07351e+07
1.07375e+07
1.07399e+07
1.07423e+07
1.07447e+07
1.07472e+07
1.07496e+07
1.07521e+07
1.07545e+07
1.0757e+07
1.07595e+07
1.0762e+07
1.07645e+07
1.07671e+07
1.07696e+07
1.07722e+07
1.07748e+07
1.07774e+07
1.078e+07
1.07826e+07
1.07852e+07
1.07878e+07
1.07904e+07
1.0793e+07
1.07955e+07
1.0798e+07
1.08005e+07
1.08029e+07
1.08053e+07
1.08075e+07
1.08097e+07
1.08117e+07
1.08135e+07
1.08151e+07
1.08165e+07
1.08176e+07
1.08183e+07
1.08186e+07
1.08185e+07
1.08178e+07
1.08165e+07
1.08145e+07
1.08117e+07
1.0808e+07
1.08033e+07
1.07975e+07
1.07906e+07
1.07825e+07
1.0773e+07
1.04496e+07
1.04497e+07
1.04499e+07
1.04501e+07
1.04505e+07
1.04509e+07
1.04514e+07
1.0452e+07
1.04527e+07
1.04534e+07
1.04543e+07
1.04552e+07
1.04562e+07
1.04573e+07
1.04585e+07
1.04597e+07
1.0461e+07
1.04624e+07
1.04638e+07
1.04654e+07
1.04669e+07
1.04686e+07
1.04703e+07
1.0472e+07
1.04739e+07
1.04757e+07
1.04776e+07
1.04796e+07
1.04816e+07
1.04837e+07
1.04858e+07
1.04879e+07
1.04901e+07
1.04923e+07
1.04945e+07
1.04968e+07
1.04991e+07
1.05014e+07
1.05037e+07
1.05061e+07
1.05085e+07
1.05109e+07
1.05134e+07
1.05158e+07
1.05183e+07
1.05208e+07
1.05233e+07
1.05258e+07
1.05283e+07
1.05309e+07
1.05334e+07
1.0536e+07
1.05386e+07
1.05411e+07
1.05437e+07
1.05463e+07
1.05489e+07
1.05515e+07
1.05541e+07
1.05567e+07
1.05594e+07
1.0562e+07
1.05646e+07
1.05672e+07
1.05698e+07
1.05724e+07
1.05751e+07
1.05777e+07
1.05803e+07
1.05829e+07
1.05855e+07
1.05881e+07
1.05907e+07
1.05933e+07
1.05959e+07
1.05985e+07
1.06011e+07
1.06037e+07
1.06063e+07
1.06089e+07
1.06115e+07
1.0614e+07
1.06166e+07
1.06192e+07
1.06217e+07
1.06243e+07
1.06268e+07
1.06293e+07
1.06319e+07
1.06344e+07
1.06369e+07
1.06394e+07
1.06419e+07
1.06444e+07
1.06469e+07
1.06494e+07
1.06519e+07
1.06543e+07
1.06568e+07
1.06593e+07
1.06617e+07
1.06641e+07
1.06666e+07
1.0669e+07
1.06714e+07
1.06738e+07
1.06763e+07
1.06787e+07
1.0681e+07
1.06834e+07
1.06858e+07
1.06882e+07
1.06906e+07
1.06929e+07
1.06953e+07
1.06976e+07
1.07e+07
1.07023e+07
1.07047e+07
1.0707e+07
1.07094e+07
1.07117e+07
1.0714e+07
1.07164e+07
1.07187e+07
1.07211e+07
1.07234e+07
1.07258e+07