/*--------------------------------*- C++ -*----------------------------------*\
  =========                 |
  \\      /  F ield         | OpenFOAM: The Open Source CFD Toolbox
   \\    /   O peration     | Website:  https://openfoam.org
    \\  /    A nd           | Version:  10
     \\/     M anipulation  |
\*---------------------------------------------------------------------------*/
FoamFile
{
    format      ascii;
    class       volVectorField;
    location    "0.057";
    object      UMean;
}
// * * * * * * * * * * * * * * * * * * * * * * * * * * * * * * * * * * * * * //

dimensions      [0 1 -1 0 0 0 0];

internalField   nonuniform List<vector> 
12225
(
(9.84783 0.0457834 0)
(9.5621 0.0613279 0)
(9.26747 0.0590968 0)
(8.96625 0.0574998 0)
(8.6715 0.0564811 0)
(8.38944 0.0554097 0)
(8.12047 0.0537316 0)
(7.86324 0.0527088 0)
(7.61546 0.0507895 0)
(7.37741 0.0507686 0)
(7.14531 0.048228 0)
(6.9234 0.0506882 0)
(6.6989 0.0464311 0)
(6.48902 0.0553072 0)
(6.25356 0.0460579 0)
(6.05276 0.0704447 0)
(5.77383 0.045008 0)
(5.58812 0.100713 0)
(10.0087 0.051544 0)
(10.0767 0.0734579 0)
(10.1183 0.0725471 0)
(10.1319 0.0732927 0)
(10.129 0.0760332 0)
(10.1174 0.0782675 0)
(10.0986 0.0801819 0)
(10.074 0.0815012 0)
(10.0422 0.0835697 0)
(10.0063 0.0848004 0)
(9.96249 0.0879277 0)
(9.91728 0.0891599 0)
(9.86116 0.0951634 0)
(9.80731 0.0969711 0)
(9.73558 0.109596 0)
(9.67195 0.112319 0)
(9.57922 0.133402 0)
(9.49829 0.128055 0)
(10.0048 0.0319627 0)
(10.0453 0.0537418 0)
(10.0771 0.0559587 0)
(10.0945 0.0576167 0)
(10.1051 0.0613421 0)
(10.1145 0.0653093 0)
(10.1242 0.0681415 0)
(10.1332 0.0711044 0)
(10.1414 0.0732703 0)
(10.1478 0.0769249 0)
(10.1536 0.0792299 0)
(10.157 0.0848979 0)
(10.1608 0.0881811 0)
(10.1616 0.098224 0)
(10.1656 0.104433 0)
(10.1665 0.120651 0)
(10.1765 0.130558 0)
(10.1831 0.137764 0)
(9.99558 0.0280836 0)
(10.0274 0.0562339 0)
(10.0543 0.0613706 0)
(10.0694 0.0626197 0)
(10.078 0.0658133 0)
(10.0852 0.0694151 0)
(10.093 0.0724491 0)
(10.1009 0.0747625 0)
(10.1084 0.0772962 0)
(10.1152 0.0797996 0)
(10.1217 0.0832987 0)
(10.1278 0.0869938 0)
(10.1343 0.09259 0)
(10.1415 0.098963 0)
(10.151 0.10804 0)
(10.1639 0.118166 0)
(10.1827 0.127115 0)
(10.2074 0.13137 0)
(9.9884 0.0227345 0)
(10.0143 0.0468075 0)
(10.0374 0.0533802 0)
(10.0519 0.0549526 0)
(10.0608 0.0578011 0)
(10.0679 0.0616956 0)
(10.075 0.0650824 0)
(10.0822 0.0679962 0)
(10.0891 0.0705582 0)
(10.0954 0.0735413 0)
(10.1013 0.0767867 0)
(10.1071 0.0810012 0)
(10.1133 0.0859904 0)
(10.1205 0.092351 0)
(10.1295 0.0998815 0)
(10.1419 0.107407 0)
(10.1576 0.113553 0)
(10.1768 0.112399 0)
(9.98364 0.017784 0)
(10.0055 0.043034 0)
(10.0257 0.0522406 0)
(10.0391 0.055105 0)
(10.0477 0.0580476 0)
(10.0544 0.0618499 0)
(10.0609 0.0654573 0)
(10.0677 0.0684724 0)
(10.0744 0.0712259 0)
(10.0809 0.0741186 0)
(10.0872 0.0773786 0)
(10.0936 0.0812573 0)
(10.1003 0.0858374 0)
(10.1081 0.0912968 0)
(10.1174 0.0971679 0)
(10.129 0.10267 0)
(10.1428 0.105743 0)
(10.1581 0.103953 0)
(9.98067 0.015771 0)
(9.99813 0.0373848 0)
(10.0148 0.0471561 0)
(10.0274 0.0508222 0)
(10.0369 0.0536984 0)
(10.0445 0.0573141 0)
(10.0516 0.0609306 0)
(10.0587 0.0639726 0)
(10.0657 0.0666158 0)
(10.0724 0.0693336 0)
(10.0788 0.0724503 0)
(10.0852 0.0761238 0)
(10.092 0.0804145 0)
(10.0996 0.0851654 0)
(10.1086 0.0899773 0)
(10.1192 0.093956 0)
(10.1312 0.095839 0)
(10.1438 0.0944673 0)
(9.99231 0.0132889 0)
(10.0072 0.0326056 0)
(10.0213 0.0436012 0)
(10.0323 0.0484497 0)
(10.0412 0.0515233 0)
(10.0488 0.054939 0)
(10.0561 0.0585995 0)
(10.0634 0.0619911 0)
(10.0706 0.0650348 0)
(10.0775 0.0680158 0)
(10.084 0.0711812 0)
(10.0904 0.0746585 0)
(10.0972 0.0784176 0)
(10.1048 0.0822992 0)
(10.1135 0.0859018 0)
(10.1233 0.0886252 0)
(10.1339 0.0896763 0)
(10.1444 0.0884974 0)
(9.99112 0.0125573 0)
(10.0043 0.0290664 0)
(10.0161 0.0395863 0)
(10.026 0.0450724 0)
(10.0345 0.0484154 0)
(10.0418 0.0515786 0)
(10.0485 0.054866 0)
(10.0552 0.0579943 0)
(10.0622 0.0608768 0)
(10.0692 0.0636819 0)
(10.0761 0.066617 0)
(10.0832 0.06976 0)
(10.0904 0.0730259 0)
(10.0982 0.0762279 0)
(10.1066 0.0790244 0)
(10.1158 0.0810616 0)
(10.1251 0.0817938 0)
(10.1348 0.0811007 0)
(9.98046 0.0112745 0)
(9.99343 0.0253864 0)
(10.0043 0.0353721 0)
(10.0132 0.0414653 0)
(10.0218 0.0454582 0)
(10.0298 0.0488298 0)
(10.0371 0.0520449 0)
(10.0441 0.0550957 0)
(10.0511 0.0579754 0)
(10.0582 0.0608182 0)
(10.0653 0.0637152 0)
(10.0725 0.0666942 0)
(10.0799 0.0696167 0)
(10.0877 0.0723423 0)
(10.0958 0.0745311 0)
(10.1044 0.0760231 0)
(10.1128 0.0763974 0)
(10.1215 0.0758419 0)
(9.96548 0.00957763 0)
(9.97745 0.0227304 0)
(9.98666 0.0314696 0)
(9.99417 0.0374019 0)
(10.0018 0.0416283 0)
(10.0093 0.0449836 0)
(10.0164 0.0480288 0)
(10.0233 0.0509259 0)
(10.03 0.0536631 0)
(10.0367 0.0562864 0)
(10.0434 0.0588432 0)
(10.0503 0.0613944 0)
(10.0574 0.0638226 0)
(10.0651 0.0660648 0)
(10.073 0.0678184 0)
(10.0813 0.0690587 0)
(10.0895 0.0694222 0)
(10.0977 0.0692415 0)
(9.99183 0.00956438 0)
(10.0017 0.0202513 0)
(10.0093 0.0284951 0)
(10.0154 0.0346397 0)
(10.022 0.0389841 0)
(10.0288 0.0422733 0)
(10.0356 0.0451721 0)
(10.0422 0.0479939 0)
(10.0486 0.0507532 0)
(10.055 0.053397 0)
(10.0614 0.0558615 0)
(10.0678 0.0581672 0)
(10.0745 0.0602078 0)
(10.0813 0.061977 0)
(10.0885 0.0632446 0)
(10.0957 0.0640987 0)
(10.103 0.0642332 0)
(10.1097 0.0640678 0)
(9.9929 0.0092998 0)
(10.0021 0.0166331 0)
(10.0088 0.0247927 0)
(10.0142 0.0312258 0)
(10.0203 0.0355569 0)
(10.0267 0.0386524 0)
(10.0332 0.0413045 0)
(10.0395 0.0438948 0)
(10.0459 0.0464295 0)
(10.0523 0.048847 0)
(10.0591 0.0510492 0)
(10.066 0.0530428 0)
(10.0732 0.0547647 0)
(10.0804 0.0562389 0)
(10.0879 0.0573049 0)
(10.0951 0.058064 0)
(10.1024 0.0582804 0)
(10.109 0.0583155 0)
(10.0116 0.0102596 0)
(10.0231 0.0164504 0)
(10.0307 0.0233327 0)
(10.036 0.0289569 0)
(10.0419 0.0329953 0)
(10.0485 0.0359784 0)
(10.0554 0.0385149 0)
(10.0621 0.0408966 0)
(10.0686 0.0431553 0)
(10.0749 0.045252 0)
(10.0812 0.0471269 0)
(10.0875 0.0487839 0)
(10.0938 0.0501544 0)
(10.1001 0.0512932 0)
(10.1066 0.0520575 0)
(10.1129 0.0526037 0)
(10.1193 0.0526663 0)
(10.1254 0.0526746 0)
(10.0024 0.00402095 0)
(10.0143 0.0116179 0)
(10.0218 0.0176976 0)
(10.0265 0.0223877 0)
(10.0319 0.0260749 0)
(10.0383 0.0290592 0)
(10.0453 0.0315903 0)
(10.0521 0.0339081 0)
(10.0587 0.0361273 0)
(10.0653 0.0382399 0)
(10.0719 0.0401358 0)
(10.0786 0.0417503 0)
(10.0853 0.0429846 0)
(10.0921 0.0438863 0)
(10.0989 0.0443708 0)
(10.1057 0.0446335 0)
(10.1124 0.0444856 0)
(10.1191 0.0443386 0)
(10.0025 0.00582514 0)
(10.0131 0.0120419 0)
(10.0192 0.0167028 0)
(10.0229 0.0204809 0)
(10.0274 0.0235995 0)
(10.0333 0.0261863 0)
(10.0397 0.0283638 0)
(10.0462 0.0302629 0)
(10.0527 0.031939 0)
(10.0593 0.0334197 0)
(10.0659 0.034654 0)
(10.0727 0.0356578 0)
(10.0796 0.0363529 0)
(10.0864 0.0368305 0)
(10.0931 0.0369711 0)
(10.0998 0.0369989 0)
(10.1061 0.036652 0)
(10.1125 0.0363903 0)
(9.99066 -0.000363925 0)
(9.99982 0.00449157 0)
(10.0052 0.00821875 0)
(10.0087 0.0113776 0)
(10.013 0.0140274 0)
(10.0185 0.0161794 0)
(10.0247 0.017939 0)
(10.0309 0.0194266 0)
(10.0371 0.0206925 0)
(10.0434 0.0217743 0)
(10.0496 0.0226465 0)
(10.056 0.0233386 0)
(10.0624 0.0237872 0)
(10.0689 0.024071 0)
(10.0753 0.0240737 0)
(10.0816 0.0239702 0)
(10.0878 0.0235249 0)
(10.094 0.0231074 0)
(10.004 0.00704901 0)
(10.0133 0.00752537 0)
(10.0183 0.00907345 0)
(10.0208 0.0107038 0)
(10.0243 0.0121171 0)
(10.0292 0.0133612 0)
(10.0351 0.014498 0)
(10.0413 0.0154881 0)
(10.0474 0.0162468 0)
(10.0534 0.0167588 0)
(10.0594 0.0170174 0)
(10.0655 0.0170828 0)
(10.0716 0.0169287 0)
(10.0777 0.0166376 0)
(10.0837 0.0161172 0)
(10.0896 0.0155314 0)
(10.0954 0.0146761 0)
(10.101 0.0138802 0)
(9.99187 -0.00420285 0)
(10.0038 -0.00286483 0)
(10.0108 -0.00198898 0)
(10.0146 -0.00156381 0)
(10.0187 -0.00134671 0)
(10.0239 -0.00116423 0)
(10.0299 -0.000995928 0)
(10.0361 -0.000862298 0)
(10.0424 -0.00080591 0)
(10.0485 -0.000834477 0)
(10.0547 -0.000964257 0)
(10.0608 -0.00117199 0)
(10.0668 -0.00150264 0)
(10.0727 -0.0019268 0)
(10.0783 -0.00254139 0)
(10.0839 -0.00325983 0)
(10.0891 -0.00423476 0)
(10.0943 -0.00524608 0)
(9.9913 -0.00349379 0)
(9.99881 -0.00266047 0)
(10.0028 -0.00317148 0)
(10.0052 -0.00410754 0)
(10.0087 -0.00474026 0)
(10.0134 -0.0050038 0)
(10.0186 -0.00514665 0)
(10.024 -0.00536607 0)
(10.0292 -0.00573721 0)
(10.0345 -0.0062267 0)
(10.0397 -0.00679595 0)
(10.045 -0.00738514 0)
(10.0503 -0.00800618 0)
(10.0556 -0.00862835 0)
(10.0608 -0.00932728 0)
(10.0659 -0.0100546 0)
(10.0707 -0.0109452 0)
(10.0755 -0.011863 0)
(9.979 -0.00124713 0)
(9.98725 -0.00544616 0)
(9.99242 -0.00865434 0)
(9.99643 -0.0108635 0)
(10.0014 -0.0123586 0)
(10.007 -0.0134923 0)
(10.0129 -0.014478 0)
(10.0188 -0.0154158 0)
(10.0246 -0.0163374 0)
(10.0302 -0.0172478 0)
(10.0356 -0.0181776 0)
(10.0409 -0.0191269 0)
(10.046 -0.0201109 0)
(10.0509 -0.021088 0)
(10.0556 -0.0220812 0)
(10.0601 -0.0230433 0)
(10.0645 -0.0240703 0)
(10.0687 -0.0250853 0)
(9.99358 -0.00224282 0)
(10.0034 -0.0095757 0)
(10.0099 -0.013286 0)
(10.0148 -0.0152372 0)
(10.0204 -0.0165307 0)
(10.0267 -0.0175948 0)
(10.0331 -0.0185854 0)
(10.0392 -0.0195304 0)
(10.045 -0.0204044 0)
(10.0507 -0.0211779 0)
(10.0562 -0.0218766 0)
(10.0614 -0.0225403 0)
(10.0664 -0.023231 0)
(10.0713 -0.0239582 0)
(10.0759 -0.0247663 0)
(10.0804 -0.0256276 0)
(10.0847 -0.0266115 0)
(10.0888 -0.0276435 0)
(9.98503 -0.00113501 0)
(9.99976 -0.012173 0)
(10.0095 -0.0187429 0)
(10.0153 -0.0222545 0)
(10.0209 -0.0242309 0)
(10.0269 -0.0256926 0)
(10.033 -0.0270641 0)
(10.0389 -0.0283735 0)
(10.0444 -0.0295501 0)
(10.0497 -0.0305742 0)
(10.0549 -0.0314981 0)
(10.0599 -0.032385 0)
(10.0648 -0.033289 0)
(10.0695 -0.0342171 0)
(10.0741 -0.035191 0)
(10.0784 -0.0361812 0)
(10.0824 -0.0372303 0)
(10.0862 -0.0382784 0)
(9.99479 -0.0104079 0)
(10.0105 -0.0161746 0)
(10.0221 -0.0219419 0)
(10.0297 -0.0252595 0)
(10.0362 -0.0266843 0)
(10.0426 -0.0275327 0)
(10.0489 -0.0284321 0)
(10.0551 -0.0294086 0)
(10.0609 -0.0303494 0)
(10.0664 -0.031229 0)
(10.0716 -0.032088 0)
(10.0765 -0.0329395 0)
(10.0812 -0.0337756 0)
(10.0856 -0.0345692 0)
(10.0898 -0.0353431 0)
(10.0938 -0.0361061 0)
(10.0976 -0.0369331 0)
(10.1011 -0.0378222 0)
(9.99062 -0.0134361 0)
(10.0026 -0.0244049 0)
(10.0132 -0.0306278 0)
(10.0215 -0.0336868 0)
(10.0287 -0.0353503 0)
(10.0353 -0.0367195 0)
(10.0418 -0.038045 0)
(10.0483 -0.039216 0)
(10.0546 -0.0401683 0)
(10.0606 -0.0409633 0)
(10.0662 -0.0416996 0)
(10.0713 -0.0424382 0)
(10.0761 -0.0432061 0)
(10.0807 -0.0439953 0)
(10.0851 -0.0448042 0)
(10.0895 -0.0456278 0)
(10.0938 -0.0464919 0)
(10.0979 -0.0473934 0)
(10.0085 -0.00887963 0)
(10.0276 -0.0241727 0)
(10.0427 -0.0300735 0)
(10.0526 -0.0318647 0)
(10.06 -0.0330945 0)
(10.0663 -0.0346347 0)
(10.0723 -0.0361655 0)
(10.0782 -0.0373629 0)
(10.084 -0.0382162 0)
(10.0895 -0.0388802 0)
(10.0947 -0.0395155 0)
(10.0996 -0.0402193 0)
(10.1043 -0.0410285 0)
(10.1086 -0.041923 0)
(10.1127 -0.0428732 0)
(10.1165 -0.0438322 0)
(10.12 -0.0447962 0)
(10.1232 -0.0457283 0)
(9.97843 -0.025903 0)
(10.0002 -0.03828 0)
(10.0174 -0.0428909 0)
(10.0279 -0.0438476 0)
(10.035 -0.0446987 0)
(10.0413 -0.0459532 0)
(10.0478 -0.0470779 0)
(10.0543 -0.0478742 0)
(10.0608 -0.0484769 0)
(10.0669 -0.0490353 0)
(10.0727 -0.0496053 0)
(10.0782 -0.050183 0)
(10.0834 -0.0507537 0)
(10.0884 -0.0513198 0)
(10.0931 -0.051894 0)
(10.0975 -0.0524947 0)
(10.1016 -0.0531414 0)
(10.1054 -0.0538451 0)
(9.98201 -0.019681 0)
(10.0063 -0.0318615 0)
(10.0265 -0.0355948 0)
(10.0385 -0.0368568 0)
(10.0463 -0.0385824 0)
(10.0534 -0.0405096 0)
(10.0612 -0.0420424 0)
(10.0691 -0.0431547 0)
(10.0767 -0.0440294 0)
(10.0838 -0.0448206 0)
(10.0903 -0.045583 0)
(10.0964 -0.0463693 0)
(10.1021 -0.0471678 0)
(10.1073 -0.0480087 0)
(10.1123 -0.0488334 0)
(10.1169 -0.0496798 0)
(10.1214 -0.0504914 0)
(10.1253 -0.051341 0)
(9.98878 -0.0380703 0)
(10.0322 -0.0537703 0)
(10.0647 -0.0528471 0)
(10.0833 -0.0523098 0)
(10.0942 -0.0535616 0)
(10.1016 -0.0548257 0)
(10.1068 -0.0555778 0)
(10.1096 -0.0560374 0)
(10.1102 -0.0563912 0)
(10.1086 -0.0567196 0)
(10.1051 -0.0570204 0)
(10.1002 -0.0573395 0)
(10.0939 -0.0576457 0)
(10.0865 -0.0579967 0)
(10.0779 -0.0583208 0)
(10.0687 -0.0587165 0)
(10.0582 -0.0591013 0)
(10.0478 -0.0596413 0)
(9.89895 -0.0353656 0)
(9.74144 -0.0476891 0)
(9.57719 -0.0465851 0)
(9.40744 -0.0455406 0)
(9.24077 -0.0453966 0)
(9.08122 -0.0451008 0)
(8.92932 -0.0444952 0)
(8.78452 -0.043767 0)
(8.64616 -0.0430281 0)
(8.51394 -0.0423203 0)
(8.38745 -0.0416482 0)
(8.26666 -0.0410341 0)
(8.15089 -0.0404578 0)
(8.04044 -0.0399417 0)
(7.93411 -0.0394392 0)
(7.83306 -0.0389988 0)
(7.73486 -0.0385614 0)
(7.64259 -0.0382388 0)
(-0.155223 0.316172 2.65422e-21)
(-0.35053 0.153834 -2.61474e-21)
(-0.447401 0.0131181 0)
(-0.447842 -0.114987 0)
(-0.317292 -0.245703 0)
(-0.0874621 -0.344855 2.52927e-21)
(0.220333 -0.402704 0)
(0.570729 -0.417485 0)
(0.928471 -0.400403 0)
(1.26794 -0.36027 0)
(1.57244 -0.304142 -2.34457e-21)
(1.83292 -0.240951 0)
(2.04177 -0.175078 0)
(2.19357 -0.110113 0)
(2.28782 -0.049041 0)
(2.3264 0.00435848 -1.92031e-21)
(2.31373 0.0428263 0)
(2.26056 0.0710843 0)
(2.16924 0.104321 0)
(2.04316 0.140452 0)
(1.87753 0.174871 0)
(1.68063 0.201559 0)
(1.44565 0.223854 0)
(1.19958 0.22486 -1.88133e-21)
(0.923523 0.240376 1.88796e-21)
(0.65796 0.201165 -1.88504e-21)
(0.398187 0.132426 -1.87111e-21)
(0.133591 0.0476785 0)
(-0.0995219 0.0115048 0)
(-0.356381 0.10834 1.77539e-21)
(-0.653672 0.187208 1.72617e-21)
(-0.98909 0.22726 0)
(-1.33915 0.23489 0)
(-1.66579 0.210799 1.51706e-21)
(-1.94222 0.167948 0)
(-2.16305 0.119419 0)
(-2.32076 0.0727921 -1.32355e-21)
(-2.42629 0.0446879 0)
(-2.50699 0.0414293 -1.18946e-21)
(-2.59788 0.0698761 -2.20795e-21)
(-2.72697 0.103888 0)
(-2.89247 0.111498 0)
(-3.0796 0.110828 0)
(-3.26896 0.0620593 0)
(-3.38685 0.0228568 0)
(-3.48576 0.0301975 -1.62885e-21)
(-3.57846 -0.0579311 -1.55866e-21)
(-3.69511 -0.0714022 -1.47669e-21)
(-3.81891 0.0942228 0)
(-4.05544 0.170062 1.42124e-21)
(-4.242 0.13737 0)
(-4.40318 0.120309 -1.32892e-21)
(-4.54681 0.105913 -1.26912e-21)
(-4.6699 0.0890783 0)
(-4.76271 0.0646467 0)
(-4.84042 0.00624894 0)
(-4.90084 0.0238391 -1.00485e-21)
(-5.0033 0.0616592 0)
(-5.08756 0.0479306 0)
(-5.14633 0.0416306 0)
(-5.18843 0.0268103 0)
(-5.20039 0.0098805 0)
(-5.18864 -0.00925127 0)
(-5.15256 -0.0248524 0)
(-5.10021 -0.0367618 0)
(-5.03502 -0.0440316 4.51806e-22)
(-4.96424 -0.0475024 0)
(-4.8913 -0.0476009 0)
(-4.82028 -0.0452884 -5.81844e-22)
(-4.75096 -0.0419958 -6.70093e-22)
(-4.6812 -0.0399581 0)
(-4.60772 -0.0405714 8.97228e-22)
(-4.52975 -0.0439779 -1.02839e-21)
(-4.44505 -0.0489221 0)
(-4.34703 -0.0550642 1.30968e-21)
(-4.23409 -0.0623555 0)
(-4.11212 -0.0677653 0)
(-3.98565 -0.0699335 -1.7443e-21)
(-3.85657 -0.0697011 0)
(-3.72564 -0.068279 2.02255e-21)
(-3.59353 -0.0667169 0)
(-3.46081 -0.0656396 -2.28506e-21)
(-3.32803 -0.0650796 -2.41086e-21)
(-3.19583 -0.0644907 -2.53381e-21)
(-3.06495 -0.0632359 -5.3093e-21)
(-2.93608 -0.060912 5.54773e-21)
(-2.80903 -0.0577966 0)
(-2.68246 -0.0554026 0)
(-2.55369 -0.0552582 0)
(-2.41921 -0.0573406 6.43872e-21)
(-2.27655 -0.0609067 6.63373e-21)
(-2.12476 -0.0650768 -6.81578e-21)
(-1.96393 -0.0691869 0)
(-1.79485 -0.072818 7.13881e-21)
(-1.61887 -0.0757098 7.27821e-21)
(-1.43743 -0.0778004 7.40244e-21)
(-1.25188 -0.0791661 0)
(-1.06324 -0.0799806 0)
(-0.872235 -0.0804354 0)
(-0.679235 -0.0807024 7.78975e-21)
(-0.484456 -0.0811095 0)
(-0.287898 -0.0812976 0)
(-0.089278 -0.0814163 -8.083e-21)
(0.111176 -0.0813313 0)
(0.312859 -0.0810426 0)
(0.515331 -0.0805099 -8.48055e-21)
(0.718167 -0.0797138 0)
(0.92058 -0.0786165 0)
(1.12179 -0.0772167 8.95538e-21)
(1.32092 -0.0754542 9.11169e-21)
(1.51718 -0.0733355 0)
(1.70969 -0.0708688 -9.39116e-21)
(1.89767 -0.0681298 0)
(2.08048 -0.0651954 9.59964e-21)
(2.25775 -0.0621628 0)
(2.42912 -0.0591707 9.72004e-21)
(2.59444 -0.0561311 9.74596e-21)
(2.75371 -0.0531416 0)
(2.90678 -0.0501633 0)
(3.05348 -0.0471408 0)
(3.19364 -0.0440205 0)
(3.32691 -0.0407185 0)
(3.45269 -0.0373861 0)
(3.57031 -0.0339995 0)
(3.67956 -0.0304022 9.2172e-21)
(3.78004 -0.0267065 -9.07757e-21)
(3.87135 -0.0229698 0)
(3.95323 -0.0192405 0)
(4.02556 -0.0155636 0)
(4.08833 -0.0119738 0)
(4.14165 -0.00849853 -1.65782e-20)
(4.18567 -0.00516097 0)
(4.22062 -0.00197528 1.59462e-20)
(4.24677 0.00103474 -1.56436e-20)
(4.2645 0.00385002 0)
(4.27416 0.00648788 0)
(4.27614 0.0089243 0)
(4.27104 0.0110948 1.45648e-20)
(4.25956 0.0129845 1.43315e-20)
(4.24234 0.0146213 0)
(4.22001 0.0160599 1.39078e-20)
(4.19307 0.017321 1.3716e-20)
(4.16199 0.0184055 -1.35363e-20)
(4.12724 0.0193232 0)
(4.08921 0.0200909 0)
(4.04833 0.0206871 -1.30604e-20)
(4.00506 0.0210175 0)
(3.96002 0.0209543 0)
(3.91403 0.0204541 0)
(3.86796 0.0196247 0)
(3.82255 0.018663 1.24109e-20)
(3.77821 0.0177535 1.22941e-20)
(3.73498 0.0170208 0)
(3.69267 0.0164892 1.20678e-20)
(3.65107 0.0160767 0)
(3.61006 0.0157059 0)
(3.56961 0.0153715 1.17383e-20)
(3.52975 0.0150302 0)
(3.49071 0.0145598 1.15229e-20)
(3.45288 0.0140219 0)
(3.41617 0.0136779 0)
(3.38013 0.0134132 1.12056e-20)
(3.34459 0.0124163 0)
(3.31128 0.0101262 1.09939e-20)
(3.28236 0.00720198 0)
(3.25937 0.00472203 0)
(3.24079 0.00314591 0)
(3.22535 0.00267386 -1.05737e-20)
(3.20953 0.00317846 0)
(3.19332 0.00400643 1.03632e-20)
(3.17332 0.00516358 0)
(3.15179 0.00589079 0)
(3.12514 0.00737579 0)
(3.09573 0.00755197 0)
(3.06228 0.0108304 0)
(3.01573 0.0102089 0)
(2.97605 0.0206425 0)
(2.87337 0.0170735 -1.92215e-20)
(2.84016 0.052657 0)
(2.53884 0.0413611 0)
(0.000127462 0.649405 -7.90035e-21)
(0.0240822 0.402593 7.79497e-21)
(0.0491073 0.142131 0)
(0.176132 -0.145338 -5.0177e-21)
(0.392818 -0.503634 0)
(0.685231 -0.808679 -2.53346e-21)
(1.0036 -0.99401 4.85217e-21)
(1.31322 -1.06655 4.76374e-21)
(1.59538 -1.04728 0)
(1.84115 -0.960792 4.46824e-21)
(2.04446 -0.834246 2.34774e-21)
(2.20408 -0.685419 0)
(2.32209 -0.525555 0)
(2.4003 -0.362609 0)
(2.43914 -0.203235 0)
(2.43986 -0.0526967 1.92383e-21)
(2.40334 0.0818026 0)
(2.33375 0.196624 -3.3801e-21)
(2.23402 0.292635 0)
(2.10548 0.380572 0)
(1.94739 0.470788 3.40502e-21)
(1.76089 0.558944 0)
(1.5534 0.624251 -3.48266e-21)
(1.3248 0.680132 1.88762e-21)
(1.09594 0.692735 -1.8947e-21)
(0.838644 0.68125 1.89212e-21)
(0.525637 0.740686 1.87845e-21)
(0.153481 0.793856 0)
(-0.265432 0.803922 0)
(-0.711588 0.804426 -1.7811e-21)
(-1.11645 0.819419 1.42761e-21)
(-1.46892 0.831696 0)
(-1.79636 0.802852 0)
(-2.07787 0.717919 -1.52061e-21)
(-2.32525 0.587789 0)
(-2.53239 0.434161 0)
(-2.68833 0.274538 1.32847e-21)
(-2.80827 0.162041 0)
(-2.91909 0.147808 -7.52702e-22)
(-3.03653 0.225504 2.21804e-21)
(-3.17046 0.317188 0)
(-3.32254 0.395148 0)
(-3.48042 0.409359 3.01559e-21)
(-3.68007 0.336427 2.925e-21)
(-3.91063 0.274387 2.79789e-21)
(-4.10445 0.240335 -1.03319e-21)
(-4.33874 0.325747 1.56653e-21)
(-4.59634 0.38997 3.81963e-21)
(-4.7292 0.387541 -2.20941e-21)
(-4.86243 0.3631 -1.43039e-21)
(-4.94888 0.307795 0)
(-5.03009 0.26893 1.33756e-21)
(-5.08139 0.219652 -6.17956e-22)
(-5.13034 0.1701 0)
(-5.17087 0.140639 0)
(-5.25256 0.160175 0)
(-5.31545 0.165864 1.01083e-21)
(-5.36043 0.142191 0)
(-5.38316 0.100699 -1.26762e-21)
(-5.38918 0.0608873 0)
(-5.37795 0.0143076 -9.82534e-22)
(-5.34932 -0.0305403 0)
(-5.3073 -0.0721863 7.56578e-22)
(-5.25236 -0.104033 0)
(-5.18947 -0.125414 -6.52235e-22)
(-5.12178 -0.135581 2.05606e-22)
(-5.05335 -0.137103 0)
(-4.98571 -0.133483 8.08046e-22)
(-4.91867 -0.129459 5.82162e-22)
(-4.85056 -0.129453 6.70319e-22)
(-4.77867 -0.134842 0)
(-4.69989 -0.142181 7.27537e-22)
(-4.61352 -0.150558 1.02872e-21)
(-4.51783 -0.166302 0)
(-4.41087 -0.189572 -1.3103e-21)
(-4.29732 -0.208199 2.79524e-21)
(-4.18037 -0.215878 0)
(-4.0578 -0.21867 1.7449e-21)
(-3.92857 -0.221562 0)
(-3.79363 -0.224327 -5.98514e-21)
(-3.65493 -0.225534 0)
(-3.51464 -0.2247 6.77766e-21)
(-3.37445 -0.221928 2.41118e-21)
(-3.2353 -0.217716 -2.45226e-21)
(-3.09704 -0.213046 -5.13667e-21)
(-2.9582 -0.209392 5.36171e-21)
(-2.81645 -0.208362 0)
(-2.6695 -0.211139 0)
(-2.51525 -0.217927 0)
(-2.3522 -0.22771 -1.90814e-20)
(-2.17968 -0.23911 -6.63437e-21)
(-1.99799 -0.250665 6.81648e-21)
(-1.80804 -0.261173 0)
(-1.61132 -0.269794 6.93215e-21)
(-1.40958 -0.276081 -7.27854e-21)
(-1.2046 -0.279993 -7.4025e-21)
(-0.99783 -0.281848 0)
(-0.790316 -0.28219 0)
(-0.582677 -0.281667 0)
(-0.375185 -0.280937 -7.78813e-21)
(-0.16775 -0.280356 0)
(0.0399255 -0.279889 1.58002e-20)
(0.248221 -0.279538 2.41004e-20)
(0.457312 -0.279029 -1.62671e-20)
(0.667661 -0.27815 0)
(0.879106 -0.276639 -8.36269e-21)
(1.09107 -0.274335 0)
(1.30289 -0.271114 -1.74886e-20)
(1.51371 -0.266925 8.86607e-21)
(1.72276 -0.261629 9.03157e-21)
(1.92915 -0.255224 0)
(2.13203 -0.247807 2.81053e-20)
(2.33058 -0.239576 -1.89516e-20)
(2.52414 -0.230793 -9.59749e-21)
(2.71231 -0.221702 0)
(2.89488 -0.212587 -9.71767e-21)
(3.07175 -0.203461 -2.91888e-20)
(3.24289 -0.194392 0)
(3.40825 -0.185347 -1.94199e-20)
(3.56768 -0.1762 -1.93436e-20)
(3.72098 -0.16675 -1.92273e-20)
(3.86784 -0.156892 0)
(4.00766 -0.146898 0)
(4.13979 -0.136491 0)
(4.26402 -0.125634 9.18803e-21)
(4.37992 -0.114531 9.07396e-21)
(4.48711 -0.103324 0)
(4.58538 -0.0921543 1.75182e-20)
(4.67465 -0.0811468 1.71998e-20)
(4.75492 -0.0704015 0)
(4.8263 -0.059994 1.6572e-20)
(4.88898 -0.0499825 3.2473e-20)
(4.94319 -0.0404122 -1.59402e-20)
(4.98926 -0.0313318 -1.56087e-20)
(5.02756 -0.0227937 0)
(5.0586 -0.0148411 0)
(5.08299 -0.00753214 0)
(5.10125 -0.000930964 -1.45589e-20)
(5.11385 0.00493371 1.43016e-20)
(5.12131 0.010095 2.81909e-20)
(5.12412 0.01462 -1.39018e-20)
(5.12288 0.0185893 1.36899e-20)
(5.11807 0.0220631 1.35302e-20)
(5.11012 0.0250734 0)
(5.09941 0.0276378 0)
(5.08632 0.0297641 -1.304e-20)
(5.07123 0.0314523 0)
(5.05451 0.0326671 0)
(5.03642 0.0333224 2.52886e-20)
(5.01716 0.0333607 0)
(4.99698 0.032853 1.23987e-20)
(4.97624 0.0319938 -1.22872e-20)
(4.95539 0.0310143 0)
(4.93488 0.0300887 1.20584e-20)
(4.91513 0.0292648 0)
(4.89645 0.028487 0)
(4.87911 0.0276756 -1.1731e-20)
(4.8634 0.0267519 2.3245e-20)
(4.84948 0.0256586 -1.15156e-20)
(4.83728 0.0244436 0)
(4.82667 0.0233223 0)
(4.81785 0.0224897 1.11995e-20)
(4.81063 0.0217014 0)
(4.80432 0.0202682 1.09895e-20)
(4.79797 0.0178122 0)
(4.79121 0.0147975 0)
(4.78381 0.0123821 0)
(4.77583 0.0110042 1.0566e-20)
(4.76724 0.0110582 0)
(4.7577 0.0117551 -1.03557e-20)
(4.74713 0.013719 0)
(4.7341 0.015047 0)
(4.71996 0.0184415 2.00777e-20)
(4.69971 0.0192019 -1.98744e-20)
(4.68075 0.0260803 0)
(4.64543 0.025864 0)
(4.6225 0.0440546 0)
(4.55097 0.0423671 5.75536e-20)
(4.53261 0.096364 0)
(4.37149 0.0991655 -3.78173e-20)
(0.0685406 0.374401 -3.29473e-23)
(0.177751 0.168212 -1.04156e-20)
(0.376088 -0.22846 0)
(0.683454 -0.728597 1.00601e-20)
(1.02613 -1.18877 0)
(1.33672 -1.5028 0)
(1.57885 -1.6361 -2.88149e-22)
(1.75572 -1.61848 -4.77033e-21)
(1.87768 -1.48766 -4.18758e-21)
(1.96117 -1.28282 -4.47312e-21)
(2.0081 -1.04834 0)
(2.02837 -0.812367 0)
(2.02311 -0.580855 3.40724e-21)
(1.99675 -0.356225 6.52043e-21)
(1.94992 -0.143504 -6.28746e-21)
(1.88381 0.0534705 0)
(1.79867 0.229776 -6.01379e-21)
(1.69405 0.383172 3.38192e-21)
(1.56879 0.523119 0)
(1.42083 0.661199 -6.00884e-21)
(1.25814 0.791403 -3.40926e-21)
(1.0838 0.900357 6.15715e-21)
(0.901956 0.990086 3.4886e-21)
(0.717576 1.03196 0)
(0.518093 1.07038 -6.34657e-21)
(0.253088 1.1888 -6.34614e-21)
(-0.0309351 1.30305 0)
(-0.341526 1.41771 -6.21877e-21)
(-0.6714 1.49667 0)
(-1.00721 1.51706 -5.88289e-21)
(-1.34267 1.47447 -3.17158e-21)
(-1.64565 1.38992 0)
(-1.91845 1.27318 0)
(-2.14875 1.11652 0)
(-2.36055 0.937749 0)
(-2.53718 0.733744 0)
(-2.70393 0.542582 0)
(-2.8572 0.412489 -3.39552e-21)
(-3.02419 0.39631 5.01824e-21)
(-3.21439 0.47075 0)
(-3.3999 0.559632 0)
(-3.6075 0.611443 0)
(-3.77429 0.680278 -7.5553e-22)
(-3.98727 0.693657 -2.93158e-21)
(-4.18372 0.659218 -4.87255e-21)
(-4.37396 0.638376 4.59223e-21)
(-4.54729 0.619263 1.75687e-21)
(-4.68254 0.576988 -2.33989e-21)
(-4.75241 0.523864 7.6712e-22)
(-4.80762 0.460739 -1.33752e-21)
(-4.83132 0.389295 0)
(-4.854 0.318998 -1.1971e-21)
(-4.8642 0.259835 7.34747e-22)
(-4.90262 0.235614 0)
(-4.94325 0.229077 0)
(-4.97927 0.221078 1.009e-21)
(-4.98529 0.189081 0)
(-4.9816 0.147155 0)
(-4.97121 0.100627 -2.2629e-22)
(-4.95975 0.049967 -1.28608e-21)
(-4.94444 -0.00718045 9.74343e-22)
(-4.92653 -0.0641209 0)
(-4.90409 -0.117203 -7.46873e-22)
(-4.87706 -0.159595 0)
(-4.84526 -0.188828 2.35419e-23)
(-4.80942 -0.204076 -6.47458e-22)
(-4.76913 -0.208728 7.48937e-22)
(-4.72376 -0.207689 1.58952e-22)
(-4.6716 -0.206875 0)
(-4.61099 -0.211099 -1.67039e-21)
(-4.54109 -0.223128 0)
(-4.46085 -0.240836 -4.32797e-21)
(-4.36678 -0.263638 -3.30886e-21)
(-4.26008 -0.291758 -3.93401e-21)
(-4.14794 -0.316721 4.57327e-21)
(-4.03177 -0.333486 -8.00303e-21)
(-3.90662 -0.348044 0)
(-3.77233 -0.36168 0)
(-3.63293 -0.371755 7.07948e-21)
(-3.49221 -0.37715 1.16163e-20)
(-3.35241 -0.377876 0)
(-3.21476 -0.374804 -4.48717e-21)
(-3.07947 -0.369385 0)
(-2.94571 -0.363464 1.46965e-20)
(-2.81177 -0.358971 2.66057e-22)
(-2.67532 -0.357698 -2.86842e-22)
(-2.53393 -0.36104 -1.10474e-20)
(-2.3856 -0.369645 0)
(-2.22901 -0.383082 1.18807e-20)
(-2.0635 -0.39988 3.54277e-22)
(-1.88899 -0.41811 0)
(-1.70599 -0.435771 0)
(-1.51558 -0.451168 0)
(-1.31931 -0.463096 -1.40677e-20)
(-1.11911 -0.470968 0)
(-0.916916 -0.474783 0)
(-0.714277 -0.475119 0)
(-0.512152 -0.472982 0)
(-0.311028 -0.469766 0)
(-0.110771 -0.466482 -1.51725e-20)
(0.0892721 -0.46382 0)
(0.289802 -0.461929 -1.57938e-20)
(0.491507 -0.460672 -1.60139e-20)
(0.694663 -0.459615 1.62615e-20)
(0.899384 -0.458302 0)
(1.10536 -0.456104 1.68368e-20)
(1.3121 -0.452638 0)
(1.51886 -0.447652 1.74856e-20)
(1.72482 -0.440897 -1.78167e-20)
(1.9292 -0.43227 -5.41628e-20)
(2.13103 -0.421787 0)
(2.32938 -0.409614 -5.59387e-20)
(2.52336 -0.396087 -1.87658e-20)
(2.71226 -0.381648 0)
(2.89567 -0.366737 -3.84217e-20)
(3.07342 -0.351715 -3.86317e-20)
(3.24546 -0.336798 5.8191e-20)
(3.41179 -0.322039 0)
(3.57244 -0.307336 1.9418e-20)
(3.72738 -0.292471 1.93417e-20)
(3.87636 -0.277165 5.75616e-20)
(4.019 -0.261371 0)
(4.15473 -0.245076 0)
(4.28302 -0.228002 0)
(4.4035 -0.210293 1.83086e-20)
(4.51574 -0.19219 0)
(4.61941 -0.173935 0)
(4.71428 -0.155758 -1.75151e-20)
(4.8003 -0.137865 -1.7197e-20)
(4.87749 -0.12042 0)
(4.94596 -0.103552 0)
(5.00588 -0.0873602 -3.24694e-20)
(5.05746 -0.0719529 0)
(5.10101 -0.0574307 3.12437e-20)
(5.13696 -0.0438996 3.0615e-20)
(5.16588 -0.0314321 0)
(5.18849 -0.0200419 0)
(5.20547 -0.0097567 -2.90486e-20)
(5.21739 -0.000602619 -3.9809e-23)
(5.22479 0.00746739 -3.73884e-23)
(5.22815 0.0145227 0)
(5.22796 0.0206467 -5.47643e-20)
(5.22462 0.0259187 0)
(5.21853 0.0304323 0)
(5.21007 0.0342484 0)
(5.19952 0.0373524 2.60925e-20)
(5.1871 0.0396669 0)
(5.17316 0.0411525 -5.10537e-20)
(5.15824 0.0418745 -2.5287e-20)
(5.14287 0.0419731 0)
(5.12741 0.0415763 -2.4801e-20)
(5.11198 0.040782 0)
(5.0967 0.0396867 0)
(5.0818 0.0383655 -7.23425e-20)
(5.06767 0.03683 4.77848e-20)
(5.0548 0.0350399 0)
(5.04367 0.0329637 4.69137e-20)
(5.03472 0.0306353 -2.32428e-20)
(5.02829 0.0281831 0)
(5.02447 0.0257499 0)
(5.02296 0.0234265 0)
(5.0233 0.021181 -6.71895e-20)
(5.02507 0.0189022 0)
(5.02761 0.0163169 -2.19732e-20)
(5.0301 0.0135352 0)
(5.03147 0.0110136 0)
(5.03145 0.00962103 0)
(5.02985 0.00936441 0)
(5.02756 0.0104724 0)
(5.02418 0.0119349 0)
(5.02073 0.0147009 -4.09833e-20)
(5.01532 0.0168196 0)
(5.0104 0.0215302 -2.00745e-20)
(5.00104 0.0239587 5.95977e-20)
(4.9932 0.0328773 0)
(4.97461 0.0359802 0)
(4.96148 0.0564748 -3.85953e-20)
(4.92526 0.0635733 -3.83395e-20)
(4.90866 0.115993 3.79474e-20)
(4.84927 0.140582 3.78076e-20)
(0.00223781 0.0669704 1.58378e-20)
(0.240797 -0.305403 1.56719e-20)
(0.631438 -0.97767 1.01923e-20)
(1.00044 -1.52346 4.79335e-21)
(1.29336 -1.88448 0)
(1.46559 -1.99783 -8.93199e-21)
(1.53282 -1.90765 3.87507e-21)
(1.5371 -1.71398 0)
(1.50213 -1.46963 4.18883e-21)
(1.45814 -1.20129 0)
(1.40783 -0.934209 -6.62863e-21)
(1.35497 -0.671628 0)
(1.2939 -0.416044 -3.40543e-21)
(1.22373 -0.170007 -6.5163e-21)
(1.14086 0.0631563 6.28336e-21)
(1.04459 0.279272 0)
(0.934178 0.474627 6.01098e-21)
(0.8076 0.651779 0)
(0.664196 0.818172 0)
(0.508431 0.971766 6.00978e-21)
(0.350234 1.1079 0)
(0.189 1.22192 -8.03727e-22)
(0.0355759 1.29524 0)
(-0.138204 1.37837 0)
(-0.35149 1.51314 8.82509e-22)
(-0.576636 1.65011 6.35653e-21)
(-0.806177 1.77962 5.39373e-21)
(-1.03168 1.88427 6.23279e-21)
(-1.24984 1.94544 0)
(-1.46165 1.95682 1.0915e-20)
(-1.67909 1.91019 0)
(-1.89531 1.80857 4.59297e-21)
(-2.10907 1.66466 0)
(-2.30769 1.48348 0)
(-2.50181 1.27635 -3.77181e-21)
(-2.67907 1.04233 0)
(-2.86433 0.847189 3.16404e-21)
(-3.05575 0.741706 5.85295e-22)
(-3.27438 0.76437 -5.52138e-21)
(-3.51077 0.863592 4.24222e-21)
(-3.74159 0.965774 0)
(-3.94714 0.994395 0)
(-4.11086 0.989337 8.20879e-22)
(-4.25147 0.936882 0)
(-4.36443 0.880006 2.072e-21)
(-4.46175 0.836964 -1.9169e-21)
(-4.52133 0.770116 -1.75683e-21)
(-4.54875 0.682433 0)
(-4.54911 0.589346 1.44193e-21)
(-4.54071 0.492693 1.33241e-21)
(-4.52258 0.404841 -9.64198e-22)
(-4.51774 0.341295 1.19101e-21)
(-4.52615 0.310393 1.15058e-21)
(-4.55469 0.293454 0)
(-4.57216 0.265129 0)
(-4.57549 0.225897 -1.00029e-21)
(-4.56419 0.179118 0)
(-4.55577 0.136037 0)
(-4.54613 0.0901015 1.46737e-21)
(-4.53814 0.0387976 1.26576e-21)
(-4.52999 -0.0184501 0)
(-4.5233 -0.0773092 0)
(-4.51552 -0.132704 0)
(-4.50654 -0.178555 0)
(-4.49362 -0.212367 5.93411e-22)
(-4.47372 -0.23463 1.68008e-22)
(-4.44307 -0.248798 -7.23036e-22)
(-4.40015 -0.259384 -1.08588e-21)
(-4.34413 -0.271899 0)
(-4.27553 -0.290763 7.28152e-22)
(-4.19455 -0.318083 0)
(-4.09905 -0.351607 2.68882e-21)
(-3.98834 -0.387754 5.92862e-22)
(-3.86669 -0.422917 3.91225e-21)
(-3.73558 -0.455351 -4.55202e-21)
(-3.59372 -0.48506 4.41989e-22)
(-3.44499 -0.509338 0)
(-3.29488 -0.525491 -6.10101e-21)
(-3.14741 -0.533492 -7.06229e-21)
(-3.00505 -0.53429 -1.49855e-20)
(-2.8691 -0.529422 0)
(-2.73981 -0.520957 8.43579e-21)
(-2.61636 -0.511323 0)