/*--------------------------------*- C++ -*----------------------------------*\
  =========                 |
  \\      /  F ield         | OpenFOAM: The Open Source CFD Toolbox
   \\    /   O peration     | Website:  https://openfoam.org
    \\  /    A nd           | Version:  10
     \\/     M anipulation  |
\*---------------------------------------------------------------------------*/
FoamFile
{
    format      ascii;
    class       volSymmTensorField;
    location    "0.057";
    object      UPrime2Mean;
}
// * * * * * * * * * * * * * * * * * * * * * * * * * * * * * * * * * * * * * //

dimensions      [0 2 -2 0 0 0 0];

internalField   nonuniform List<symmTensor> 
12225
(
(0.039682 0.000459917 0 0.00217465 0 0)
(0.0176383 -0.000303841 0 0.00104303 0 0)
(0.0207871 -0.000647698 0 0.000736794 0 0)
(0.0229116 -0.000788643 0 0.000597936 0 0)
(0.0298104 -0.00109159 0 0.000521991 0 0)
(0.0437342 -0.00160087 0 0.000482456 0 0)
(0.0662895 -0.00243258 0 0.000469853 0 0)
(0.097848 -0.00327306 0 0.000436101 0 0)
(0.14391 -0.00513788 0 0.000508713 0 0)
(0.203821 -0.0057974 0 0.000455464 0 0)
(0.295231 -0.0111427 0 0.000716865 0 0)
(0.407168 -0.00962065 0 0.00057207 0 0)
(0.597236 -0.0277663 0 0.00165626 0 0)
(0.819423 -0.0148789 0 0.00123389 0 0)
(1.24897 -0.0829999 0 0.0068272 0 0)
(1.78177 -0.0171746 0 0.00577312 0 0)
(2.89905 -0.325225 0 0.0511125 0 0)
(4.76984 -0.0820475 0 0.0248499 0 0)
(0.0359076 0.00109996 0 0.00266415 0 0)
(0.0146999 0.000871606 0 0.001361 0 0)
(0.0141996 0.000546214 0 0.000938208 0 0)
(0.0130223 0.000490566 0 0.000800257 0 0)
(0.0132403 0.000375741 0 0.000756768 0 0)
(0.0148088 -4.18425e-05 0 0.000786237 0 0)
(0.017932 -0.000683893 0 0.000831407 0 0)
(0.0236544 -0.00192263 0 0.0010096 0 0)
(0.0329135 -0.00331775 0 0.00112078 0 0)
(0.0489142 -0.00638622 0 0.00165721 0 0)
(0.0720642 -0.00909292 0 0.00187527 0 0)
(0.11286 -0.017143 0 0.00339461 0 0)
(0.167203 -0.0228027 0 0.00395235 0 0)
(0.271522 -0.0459611 0 0.00873241 0 0)
(0.399872 -0.0606893 0 0.010891 0 0)
(0.690489 -0.137442 0 0.0293358 0 0)
(1.01731 -0.210316 0 0.0457352 0 0)
(1.84532 -0.548977 0 0.183001 0 0)
(0.0412642 0.00126796 0 0.00323999 0 0)
(0.0167372 0.000875058 0 0.00160455 0 0)
(0.0152736 0.000278487 0 0.00112437 0 0)
(0.0136806 -8.63893e-05 0 0.000995907 0 0)
(0.0138134 -0.000421013 0 0.000995058 0 0)
(0.0153665 -0.000901367 0 0.00106502 0 0)
(0.0182925 -0.00175909 0 0.0012493 0 0)
(0.0229652 -0.00300253 0 0.00147664 0 0)
(0.0300969 -0.00506118 0 0.00202443 0 0)
(0.0406513 -0.0075695 0 0.00254493 0 0)
(0.0563438 -0.0124141 0 0.00403352 0 0)
(0.0793965 -0.0177841 0 0.00527759 0 0)
(0.11399 -0.0303172 0 0.00962347 0 0)
(0.165383 -0.0432009 0 0.0131977 0 0)
(0.244132 -0.0788217 0 0.0280844 0 0)
(0.36276 -0.120274 0 0.0437891 0 0)
(0.534695 -0.234701 0 0.111013 0 0)
(0.763697 -0.424225 0 0.253019 0 0)
(0.0387953 5.14859e-05 0 0.00331942 0 0)
(0.0155605 1.85828e-05 0 0.00194564 0 0)
(0.0147138 -0.000275949 0 0.00137679 0 0)
(0.0132274 -0.000536862 0 0.00121522 0 0)
(0.0130728 -0.000920219 0 0.00124466 0 0)
(0.0142309 -0.00159534 0 0.00141829 0 0)
(0.0168336 -0.00261408 0 0.00170432 0 0)
(0.0212641 -0.00420118 0 0.00221618 0 0)
(0.0279947 -0.00640345 0 0.00290429 0 0)
(0.0381329 -0.00992013 0 0.00413273 0 0)
(0.0527262 -0.0148052 0 0.00579733 0 0)
(0.0744263 -0.0229613 0 0.00887677 0 0)
(0.105264 -0.0347244 0 0.0134857 0 0)
(0.150678 -0.0548673 0 0.0224028 0 0)
(0.214916 -0.0863893 0 0.0380411 0 0)
(0.304482 -0.140776 0 0.0702223 0 0)
(0.421191 -0.235363 0 0.1409 0 0)
(0.54373 -0.375152 0 0.279043 0 0)
(0.0397146 0.000679932 0 0.00411719 0 0)
(0.0153816 0.000261363 0 0.00244111 0 0)
(0.0146584 -0.000270815 0 0.00173083 0 0)
(0.0131753 -0.00062768 0 0.0016103 0 0)
(0.0128716 -0.00106722 0 0.00175175 0 0)
(0.0138869 -0.0018654 0 0.0020648 0 0)
(0.016366 -0.00318561 0 0.0025708 0 0)
(0.0206449 -0.00513085 0 0.00329204 0 0)
(0.0273115 -0.00801126 0 0.00445773 0 0)
(0.0372279 -0.0121207 0 0.00613744 0 0)
(0.0516461 -0.0184127 0 0.00891144 0 0)
(0.0722337 -0.0276195 0 0.0130914 0 0)
(0.10138 -0.0420963 0 0.0203015 0 0)
(0.141692 -0.0640257 0 0.0322312 0 0)
(0.19693 -0.0988615 0 0.0538778 0 0)
(0.267248 -0.153953 0 0.0947914 0 0)
(0.351619 -0.236488 0 0.169456 0 0)
(0.428089 -0.353902 0 0.319412 0 0)
(0.0394853 -0.00028113 0 0.00477775 0 0)
(0.0166213 -4.30677e-05 0 0.00279804 0 0)
(0.0158687 -0.000790392 0 0.00193347 0 0)
(0.0136749 -0.00112854 0 0.00178693 0 0)
(0.0128339 -0.0015231 0 0.00196113 0 0)
(0.0135151 -0.00236175 0 0.00240484 0 0)
(0.0155932 -0.00380514 0 0.00312603 0 0)
(0.019254 -0.00597758 0 0.00421181 0 0)
(0.0250398 -0.00913128 0 0.0058252 0 0)
(0.033696 -0.0137319 0 0.00826088 0 0)
(0.0463121 -0.0205626 0 0.0120116 0 0)
(0.0641095 -0.0307186 0 0.0178824 0 0)
(0.089015 -0.0460807 0 0.0273908 0 0)
(0.122371 -0.0690637 0 0.0430982 0 0)
(0.166368 -0.103892 0 0.0700032 0 0)
(0.218833 -0.154837 0 0.116758 0 0)
(0.276896 -0.226527 0 0.19781 0 0)
(0.324789 -0.316552 0 0.336217 0 0)
(0.0374135 0.000840602 0 0.00477747 0 0)
(0.0157225 0.000362261 0 0.00351905 0 0)
(0.0161885 -0.00012134 0 0.00278016 0 0)
(0.0147652 -0.000622479 0 0.00269081 0 0)
(0.014479 -0.0014281 0 0.00300485 0 0)
(0.0157222 -0.00271417 0 0.00364863 0 0)
(0.0184644 -0.00461283 0 0.00465023 0 0)
(0.0227573 -0.00730758 0 0.00612084 0 0)
(0.0289373 -0.0111102 0 0.00828869 0 0)
(0.0375666 -0.0165059 0 0.0115437 0 0)
(0.0495672 -0.0242762 0 0.016484 0 0)
(0.0658991 -0.0355605 0 0.0241769 0 0)
(0.087928 -0.0519589 0 0.0362123 0 0)
(0.116195 -0.075724 0 0.055697 0 0)
(0.151458 -0.109539 0 0.0870165 0 0)
(0.190741 -0.156266 0 0.13885 0 0)
(0.230893 -0.216623 0 0.220716 0 0)
(0.260868 -0.28588 0 0.348278 0 0)
(0.0401344 0.0011666 0 0.0052378 0 0)
(0.0153527 0.000568118 0 0.00336357 0 0)
(0.0153059 -0.00010398 0 0.00263458 0 0)
(0.0144494 -0.00063524 0 0.00269715 0 0)
(0.014545 -0.00134267 0 0.00314574 0 0)
(0.0155321 -0.00254362 0 0.00398573 0 0)
(0.0173651 -0.00442132 0 0.0052949 0 0)
(0.0203065 -0.00711378 0 0.00722269 0 0)
(0.0249289 -0.0109237 0 0.01005 0 0)
(0.0318568 -0.016372 0 0.0142493 0 0)
(0.0417584 -0.0242351 0 0.0205286 0 0)
(0.0551656 -0.0355341 0 0.0300895 0 0)
(0.0727408 -0.0516024 0 0.0446787 0 0)
(0.0944576 -0.0740525 0 0.067401 0 0)
(0.120066 -0.10451 0 0.102363 0 0)
(0.146907 -0.14406 0 0.15672 0 0)
(0.172157 -0.191628 0 0.237125 0 0)
(0.189136 -0.242261 0 0.354032 0 0)
(0.0427964 0.000799551 0 0.00535323 0 0)
(0.0187049 -0.000426154 0 0.00380759 0 0)
(0.0184033 -0.00128365 0 0.00322468 0 0)
(0.0168486 -0.00181348 0 0.00338295 0 0)
(0.016318 -0.00254398 0 0.00400382 0 0)
(0.017034 -0.00386075 0 0.00507912 0 0)
(0.0190161 -0.00597675 0 0.00672998 0 0)
(0.022315 -0.0090418 0 0.00917627 0 0)
(0.0271231 -0.0133235 0 0.0127494 0 0)
(0.0337636 -0.0192699 0 0.0179908 0 0)
(0.042688 -0.0275204 0 0.0256694 0 0)
(0.054165 -0.0389294 0 0.0370736 0 0)
(0.0684386 -0.0545274 0 0.0539616 0 0)
(0.0850294 -0.0753928 0 0.0792941 0 0)
(0.103292 -0.102318 0 0.116622 0 0)
(0.12089 -0.135157 0 0.171643 0 0)
(0.135872 -0.172105 0 0.248776 0 0)
(0.144165 -0.208353 0 0.354602 0 0)
(0.0408327 0.0016084 0 0.00609141 0 0)
(0.0164169 -0.000485295 0 0.00437773 0 0)
(0.0156362 -0.00134431 0 0.00375723 0 0)
(0.0140837 -0.00164367 0 0.00406164 0 0)
(0.0137292 -0.00219942 0 0.00484055 0 0)
(0.0145672 -0.00348392 0 0.00613757 0 0)
(0.0164541 -0.00561729 0 0.0081425 0 0)
(0.0192389 -0.00864563 0 0.0111141 0 0)
(0.022952 -0.0127744 0 0.0154279 0 0)
(0.0278211 -0.0184044 0 0.0216781 0 0)
(0.0342284 -0.0261086 0 0.0306881 0 0)
(0.0423916 -0.0365479 0 0.0437889 0 0)
(0.0524196 -0.0504225 0 0.0626744 0 0)
(0.0637011 -0.0682467 0 0.0900111 0 0)
(0.0755119 -0.0901927 0 0.128639 0 0)
(0.0859612 -0.115382 0 0.182929 0 0)
(0.093875 -0.141862 0 0.255417 0 0)
(0.0970799 -0.165395 0 0.350462 0 0)
(0.0355275 0.0009904 0 0.00648128 0 0)
(0.0135515 -0.000772378 0 0.00532225 0 0)
(0.0131909 -0.00183937 0 0.00452492 0 0)
(0.0116968 -0.00229941 0 0.00470301 0 0)
(0.0112793 -0.00295911 0 0.00563848 0 0)
(0.0119226 -0.00429151 0 0.00733284 0 0)
(0.0134577 -0.00643635 0 0.00986592 0 0)
(0.01571 -0.00947169 0 0.0134599 0 0)
(0.0186913 -0.0136017 0 0.0185265 0 0)
(0.0225759 -0.0191645 0 0.025733 0 0)
(0.0276421 -0.0266036 0 0.0359465 0 0)
(0.0339611 -0.0363564 0 0.0504542 0 0)
(0.0414282 -0.0488201 0 0.0707836 0 0)
(0.0493555 -0.0640765 0 0.0992205 0 0)
(0.0570468 -0.0818634 0 0.137909 0 0)
(0.0631085 -0.10098 0 0.190105 0 0)
(0.0669902 -0.119628 0 0.257017 0 0)
(0.0675554 -0.134333 0 0.341634 0 0)
(0.0402039 0.00155947 0 0.00635711 0 0)
(0.0164822 -0.000429544 0 0.00544518 0 0)
(0.0160375 -0.00121751 0 0.00466948 0 0)
(0.0143178 -0.00127023 0 0.00488174 0 0)
(0.0132883 -0.00165851 0 0.00597113 0 0)
(0.0132361 -0.00278653 0 0.00790998 0 0)
(0.0140276 -0.00462362 0 0.0107917 0 0)
(0.0153836 -0.00714741 0 0.0148963 0 0)
(0.0171938 -0.0105364 0 0.0206608 0 0)
(0.0195264 -0.015107 0 0.0287487 0 0)
(0.0225366 -0.0212325 0 0.0399956 0 0)
(0.0262447 -0.0291989 0 0.0556002 0 0)
(0.0305503 -0.0391506 0 0.0768824 0 0)
(0.0349583 -0.0509091 0 0.105758 0 0)
(0.0390098 -0.0639704 0 0.143774 0 0)
(0.0418874 -0.0771325 0 0.193356 0 0)
(0.043363 -0.088799 0 0.254854 0 0)
(0.0430389 -0.0963574 0 0.33043 0 0)
(0.0370452 0.00071611 0 0.0076192 0 0)
(0.014532 -0.00150287 0 0.00662254 0 0)
(0.0139283 -0.00245382 0 0.00548618 0 0)
(0.012506 -0.00252915 0 0.00586463 0 0)
(0.0120547 -0.002909 0 0.00732612 0 0)
(0.0122356 -0.00405561 0 0.00963439 0 0)
(0.0127998 -0.00593461 0 0.0128857 0 0)
(0.013709 -0.00845023 0 0.0174369 0 0)
(0.0150412 -0.011685 0 0.0237901 0 0)
(0.0168484 -0.0158664 0 0.0326154 0 0)
(0.0191247 -0.0212364 0 0.0446811 0 0)
(0.0217239 -0.0279021 0 0.06105 0 0)
(0.0244583 -0.0358033 0 0.0828112 0 0)
(0.0269523 -0.0445756 0 0.111523 0 0)
(0.028922 -0.0535871 0 0.148243 0 0)
(0.0299736 -0.0616987 0 0.194802 0 0)
(0.0301677 -0.0675563 0 0.250933 0 0)
(0.0296231 -0.0690989 0 0.318366 0 0)
(0.0382297 0.000708191 0 0.00879334 0 0)
(0.015802 -0.000751287 0 0.00779115 0 0)
(0.0151915 -0.00150204 0 0.00703408 0 0)
(0.013763 -0.00144221 0 0.00750544 0 0)
(0.0130035 -0.00150656 0 0.00893463 0 0)
(0.0127161 -0.00215223 0 0.0113791 0 0)
(0.0127836 -0.00347209 0 0.0149509 0 0)
(0.0131439 -0.00539143 0 0.0199339 0 0)
(0.0137956 -0.00788647 0 0.0267714 0 0)
(0.0147117 -0.0110099 0 0.0360761 0 0)
(0.0158098 -0.0148534 0 0.0485369 0 0)
(0.0169393 -0.0193843 0 0.0650718 0 0)
(0.0179764 -0.0244512 0 0.0865318 0 0)
(0.0187028 -0.0295563 0 0.114123 0 0)
(0.0190565 -0.0340666 0 0.148442 0 0)
(0.0189685 -0.0368779 0 0.190791 0 0)
(0.0187185 -0.0370163 0 0.240473 0 0)
(0.0187352 -0.0328053 0 0.298834 0 0)
(0.0382577 0.00253873 0 0.00940704 0 0)
(0.014294 -0.000502458 0 0.00874558 0 0)
(0.013364 -0.00171883 0 0.00776185 0 0)
(0.0120386 -0.00153466 0 0.00836714 0 0)
(0.011484 -0.00149673 0 0.0102099 0 0)
(0.0113116 -0.00213522 0 0.0131294 0 0)
(0.0113758 -0.00337755 0 0.0172161 0 0)
(0.0115424 -0.0049866 0 0.0227721 0 0)
(0.0117333 -0.00686662 0 0.0302213 0 0)
(0.0119448 -0.00903623 0 0.0401121 0 0)
(0.012225 -0.0115428 0 0.0530069 0 0)
(0.012542 -0.0142631 0 0.0696317 0 0)
(0.0128606 -0.0169626 0 0.0905311 0 0)
(0.0130466 -0.0190746 0 0.116534 0 0)
(0.0130987 -0.0200739 0 0.147793 0 0)
(0.0131265 -0.0189607 0 0.18522 0 0)
(0.0134652 -0.0152431 0 0.227814 0 0)
(0.0146893 -0.00747364 0 0.276818 0 0)
(0.039192 0.00197562 0 0.0107035 0 0)
(0.0150734 -0.00104075 0 0.00999706 0 0)
(0.0138349 -0.00225365 0 0.00875893 0 0)
(0.0119409 -0.00215998 0 0.00932653 0 0)
(0.0109762 -0.00218245 0 0.0112655 0 0)
(0.0104773 -0.00274227 0 0.0142414 0 0)
(0.0102047 -0.00370554 0 0.0182967 0 0)
(0.0100686 -0.00483266 0 0.0237566 0 0)
(0.0100199 -0.00600724 0 0.0310389 0 0)
(0.0099997 -0.00717805 0 0.040616 0 0)
(0.00995893 -0.00826663 0 0.0528938 0 0)
(0.00985167 -0.00902326 0 0.0683608 0 0)
(0.00970012 -0.00914384 0 0.0873068 0 0)
(0.00959119 -0.00811122 0 0.110251 0 0)
(0.00968839 -0.00556059 0 0.137076 0 0)
(0.010316 -0.00079814 0 0.168396 0 0)
(0.0118221 0.00636817 0 0.203161 0 0)
(0.0148618 0.0169166 0 0.242379 0 0)
(0.0377675 0.00218891 0 0.0117298 0 0)
(0.0155678 -0.000249079 0 0.0110131 0 0)
(0.01477 -0.00107421 0 0.00860037 0 0)
(0.0128051 -0.000937588 0 0.00895057 0 0)
(0.0116744 -0.000831603 0 0.0111694 0 0)
(0.01088 -0.00103477 0 0.0145993 0 0)
(0.0102415 -0.00143331 0 0.0190757 0 0)
(0.00978676 -0.00178172 0 0.0247837 0 0)
(0.00954077 -0.00191439 0 0.0320534 0 0)
(0.00944586 -0.0017251 0 0.0412677 0 0)
(0.00942733 -0.00111252 0 0.052706 0 0)
(0.00948206 0.000145507 0 0.0666819 0 0)
(0.00968275 0.00228709 0 0.0832799 0 0)
(0.0102087 0.00571521 0 0.102799 0 0)
(0.01124 0.010648 0 0.124956 0 0)
(0.0131577 0.0175862 0 0.15017 0 0)
(0.0161792 0.0265121 0 0.177424 0 0)
(0.0208963 0.0381313 0 0.207628 0 0)
(0.037905 0.00237971 0 0.0121594 0 0)
(0.0149049 -0.000914178 0 0.0119171 0 0)
(0.0144128 -0.002815 0 0.00996823 0 0)
(0.0131358 -0.00273588 0 0.010205 0 0)
(0.0123463 -0.00222526 0 0.0119593 0 0)
(0.0114531 -0.00181859 0 0.0147618 0 0)
(0.0106026 -0.00151217 0 0.0185271 0 0)
(0.0100715 -0.00111336 0 0.0234056 0 0)
(0.00991312 -0.000409562 0 0.0296064 0 0)
(0.0100431 0.000796742 0 0.0373361 0 0)
(0.0103979 0.00268221 0 0.0467108 0 0)
(0.0110474 0.00546221 0 0.0578724 0 0)
(0.0121257 0.00930972 0 0.0707948 0 0)
(0.0138893 0.0144706 0 0.0856234 0 0)
(0.0164939 0.0210273 0 0.102059 0 0)
(0.0203041 0.0292555 0 0.12039 0 0)
(0.0253976 0.0390258 0 0.13983 0 0)
(0.0322969 0.0507749 0 0.16103 0 0)
(0.0381955 0.00202822 0 0.0107797 0 0)
(0.016929 0.000262101 0 0.0110659 0 0)
(0.0165343 -0.000951648 0 0.0096753 0 0)
(0.0137344 -0.000753543 0 0.00988464 0 0)
(0.0119913 2.01366e-05 0 0.011318 0 0)
(0.0110037 0.000857623 0 0.0136911 0 0)
(0.0105661 0.00175489 0 0.0169575 0 0)
(0.0106234 0.00297531 0 0.0211339 0 0)
(0.0110964 0.00476082 0 0.0262439 0 0)
(0.0118693 0.00724868 0 0.0323547 0 0)
(0.0129088 0.0104948 0 0.0395137 0 0)
(0.0143653 0.0145902 0 0.0478032 0 0)
(0.0164494 0.0196072 0 0.0571794 0 0)
(0.0194244 0.0256988 0 0.0677065 0 0)
(0.0234183 0.0328761 0 0.0791338 0 0)
(0.0287003 0.0412908 0 0.0916298 0 0)
(0.0352813 0.0507751 0 0.104624 0 0)
(0.0435067 0.0615791 0 0.11857 0 0)
(0.0398085 0.000934219 0 0.0123372 0 0)
(0.0159029 -0.000707455 0 0.0121883 0 0)
(0.0134688 -0.00123751 0 0.00967685 0 0)
(0.0111615 -0.000424958 0 0.00888946 0 0)
(0.0101632 0.000579058 0 0.00950227 0 0)
(0.00952884 0.0014014 0 0.0110793 0 0)
(0.00911691 0.00223952 0 0.0133978 0 0)
(0.009133 0.0034646 0 0.0163304 0 0)
(0.00971577 0.00531791 0 0.0198269 0 0)
(0.010916 0.00786355 0 0.023923 0 0)
(0.0127733 0.0111017 0 0.0286623 0 0)
(0.0153828 0.0150762 0 0.0340994 0 0)
(0.018867 0.0198331 0 0.040202 0 0)
(0.0233886 0.0254589 0 0.0469899 0 0)
(0.0290501 0.0319448 0 0.0542832 0 0)
(0.0360241 0.0393584 0 0.062192 0 0)
(0.0443238 0.0475664 0 0.0703647 0 0)
(0.0541184 0.0566995 0 0.0790517 0 0)
(0.0364458 0.00156983 0 0.0111284 0 0)
(0.0139952 0.000793072 0 0.0102915 0 0)
(0.0122108 0.000624073 0 0.008084 0 0)
(0.0102069 0.00160629 0 0.00761644 0 0)
(0.00988404 0.00271485 0 0.00815555 0 0)
(0.0102998 0.00377576 0 0.00935351 0 0)
(0.0110586 0.00499534 0 0.011054 0 0)
(0.012224 0.00662144 0 0.0131712 0 0)
(0.0139122 0.00880002 0 0.0156732 0 0)
(0.01618 0.0115745 0 0.0185769 0 0)
(0.0191041 0.0149345 0 0.021892 0 0)
(0.0228168 0.0188919 0 0.0256418 0 0)
(0.0274635 0.0234612 0 0.0298038 0 0)
(0.0332014 0.0287073 0 0.0344035 0 0)
(0.040096 0.0346117 0 0.0393318 0 0)
(0.0483029 0.0412393 0 0.0446627 0 0)
(0.057797 0.0484647 0 0.0501536 0 0)
(0.0687103 0.0563841 0 0.0559634 0 0)
(0.0370939 0.00105854 0 0.0116541 0 0)
(0.0151985 0.000424091 0 0.00980208 0 0)
(0.014486 0.000335832 0 0.00707543 0 0)
(0.0129167 0.000964431 0 0.00614394 0 0)
(0.0123796 0.00164335 0 0.00624516 0 0)
(0.0124737 0.00238397 0 0.00697206 0 0)
(0.0130518 0.00341807 0 0.0080878 0 0)
(0.0141387 0.00490718 0 0.00946841 0 0)
(0.0158135 0.00688959 0 0.0110948 0 0)
(0.0181502 0.00934745 0 0.0130022 0 0)
(0.0212248 0.0122625 0 0.0152154 0 0)
(0.0251709 0.0156527 0 0.0177455 0 0)
(0.0301108 0.0195353 0 0.0205616 0 0)
(0.0361745 0.0239631 0 0.0236579 0 0)
(0.043418 0.0289142 0 0.0269395 0 0)
(0.0519809 0.0344273 0 0.0304626 0 0)
(0.0618428 0.040397 0 0.034073 0 0)
(0.0731076 0.0468851 0 0.0378451 0 0)
(0.0420577 0.00089838 0 0.00951046 0 0)
(0.0165745 -0.000164811 0 0.00744531 0 0)
(0.0146539 -0.000334163 0 0.00540334 0 0)
(0.013358 0.000176157 0 0.00484391 0 0)
(0.0132645 0.00080887 0 0.00507511 0 0)
(0.0135225 0.00156421 0 0.00566784 0 0)
(0.0140716 0.0025596 0 0.00642922 0 0)
(0.0151552 0.0038783 0 0.0073252 0 0)
(0.0169431 0.00554965 0 0.00838501 0 0)
(0.0194891 0.00758473 0 0.00964323 0 0)
(0.022828 0.00999098 0 0.0111098 0 0)
(0.0270465 0.0127868 0 0.0127866 0 0)
(0.0322511 0.0159778 0 0.0146491 0 0)
(0.038582 0.0195855 0 0.0166941 0 0)
(0.0461004 0.0235846 0 0.0188588 0 0)
(0.0549309 0.0279881 0 0.0211817 0 0)
(0.0650431 0.0327342 0 0.0235591 0 0)
(0.0764615 0.0378687 0 0.0260455 0 0)
(0.0435076 4.51885e-05 0 0.00831354 0 0)
(0.017465 -0.000365615 0 0.00636841 0 0)
(0.0152301 -4.40619e-05 0 0.00444971 0 0)
(0.0140037 0.000726649 0 0.00381414 0 0)
(0.0139746 0.0014487 0 0.00385245 0 0)
(0.0144314 0.00217868 0 0.0041779 0 0)
(0.0154422 0.00308211 0 0.00463189 0 0)
(0.0172331 0.00431144 0 0.0051791 0 0)
(0.0199297 0.00590635 0 0.005828 0 0)
(0.0235291 0.00782226 0 0.00659502 0 0)
(0.0279916 0.00999786 0 0.00748465 0 0)
(0.0333432 0.0124185 0 0.00850439 0 0)
(0.0396516 0.0151016 0 0.00965378 0 0)
(0.0470303 0.018094 0 0.010932 0 0)
(0.05551 0.0214064 0 0.0122943 0 0)
(0.0651989 0.0250643 0 0.0137616 0 0)
(0.0760723 0.0290094 0 0.0152665 0 0)
(0.0881288 0.0332654 0 0.016824 0 0)
(0.0403794 0.0010556 0 0.00767629 0 0)
(0.0176257 5.41314e-05 0 0.00579843 0 0)
(0.0162601 -0.000287487 0 0.00410738 0 0)
(0.014857 -2.13937e-05 0 0.00349954 0 0)
(0.0144493 0.000345908 0 0.00336636 0 0)
(0.0143879 0.000742688 0 0.00349719 0 0)
(0.0148248 0.00125659 0 0.00376931 0 0)
(0.0160732 0.00201207 0 0.00411163 0 0)
(0.0183116 0.00306018 0 0.00451145 0 0)
(0.021538 0.00439305 0 0.00498519 0 0)
(0.0256386 0.00598405 0 0.00554522 0 0)
(0.0305329 0.00781513 0 0.00619127 0 0)
(0.0362399 0.00987108 0 0.00691299 0 0)
(0.0429009 0.0121633 0 0.00770825 0 0)
(0.0506106 0.0146852 0 0.00854763 0 0)
(0.0595501 0.0174624 0 0.00946002 0 0)
(0.0696832 0.020452 0 0.0104008 0 0)
(0.0810949 0.0236802 0 0.0113654 0 0)
(0.0390286 0.000163164 0 0.00680187 0 0)
(0.0170384 -0.000127485 0 0.00524734 0 0)
(0.0162371 -9.7645e-05 0 0.00359135 0 0)
(0.0150233 8.72277e-05 0 0.00290553 0 0)
(0.0147538 0.000240968 0 0.00272459 0 0)
(0.0149698 0.000430642 0 0.00273265 0 0)
(0.0157732 0.000745413 0 0.0028032 0 0)
(0.0172471 0.00126495 0 0.00291602 0 0)
(0.019405 0.00203216 0 0.00308009 0 0)
(0.0223034 0.00305091 0 0.00330125 0 0)
(0.0260336 0.0043065 0 0.00358185 0 0)
(0.0307111 0.00577469 0 0.00391518 0 0)
(0.0364393 0.007414 0 0.00428656 0 0)
(0.0433173 0.00919654 0 0.00468964 0 0)
(0.0513537 0.0110976 0 0.00510955 0 0)
(0.0606089 0.0131359 0 0.00557937 0 0)
(0.0710373 0.0153047 0 0.00608322 0 0)
(0.0825962 0.0176486 0 0.00661068 0 0)
(0.0363835 -0.000937115 0 0.00561542 0 0)
(0.0126533 -0.0013694 0 0.0038172 0 0)
(0.0117549 -0.00114193 0 0.00271627 0 0)
(0.0113107 -0.000762948 0 0.00224389 0 0)
(0.0118091 -0.000544029 0 0.00207253 0 0)
(0.0120964 -0.000412579 0 0.00203394 0 0)
(0.0122761 -0.000193557 0 0.00203338 0 0)
(0.0128823 0.000217667 0 0.00205342 0 0)
(0.0143544 0.000834181 0 0.00210469 0 0)
(0.0169131 0.00161897 0 0.00219491 0 0)
(0.020604 0.00253701 0 0.00232491 0 0)
(0.0254044 0.00357076 0 0.0024934 0 0)
(0.031293 0.00470896 0 0.00269738 0 0)
(0.0382974 0.00595293 0 0.002934 0 0)
(0.0464067 0.007303 0 0.00319129 0 0)
(0.0556832 0.00877544 0 0.00348186 0 0)
(0.0661042 0.0103611 0 0.00378792 0 0)
(0.0776384 0.0120868 0 0.00409977 0 0)
(0.039909 -0.000901043 0 0.00459652 0 0)
(0.017485 -0.000587197 0 0.00253691 0 0)
(0.0160324 -0.000573039 0 0.00170677 0 0)
(0.0150434 -0.000504004 0 0.00138983 0 0)
(0.0154338 -0.000369483 0 0.00125802 0 0)
(0.0160848 -0.000171664 0 0.00119857 0 0)
(0.0169957 5.95793e-05 0 0.00116318 0 0)
(0.0184793 0.000317129 0 0.00114192 0 0)
(0.0207729 0.000627769 0 0.00113728 0 0)
(0.0240021 0.0010387 0 0.00115173 0 0)
(0.0282178 0.00159244 0 0.00118439 0 0)
(0.033436 0.00229821 0 0.00123226 0 0)
(0.0396789 0.00312957 0 0.00129266 0 0)
(0.0469942 0.00405214 0 0.00136611 0 0)
(0.0553869 0.00503628 0 0.00145316 0 0)
(0.0649311 0.00608076 0 0.0015667 0 0)
(0.0756286 0.00718313 0 0.00170187 0 0)
(0.0874055 0.00835709 0 0.00184969 0 0)
(0.0361301 -0.000807578 0 0.0036791 0 0)
(0.0130325 -0.000132042 0 0.00168395 0 0)
(0.0125916 -0.000130653 0 0.00113617 0 0)
(0.012155 -0.000245721 0 0.000968574 0 0)
(0.0121419 -0.000355242 0 0.000894908 0 0)
(0.0120642 -0.000366712 0 0.000851518 0 0)
(0.0125241 -0.000262235 0 0.000823174 0 0)
(0.0139795 -8.10277e-05 0 0.000808604 0 0)
(0.0164798 0.000144529 0 0.00080609 0 0)
(0.0199271 0.000412687 0 0.000813681 0 0)
(0.0242727 0.000742388 0 0.000830636 0 0)
(0.0295789 0.00114791 0 0.000856463 0 0)
(0.0359479 0.00162694 0 0.000890774 0 0)
(0.0435081 0.00216609 0 0.000932942 0 0)
(0.0522788 0.00275296 0 0.000979324 0 0)
(0.0623728 0.00338905 0 0.00103614 0 0)
(0.0737393 0.00407591 0 0.00109963 0 0)
(0.0864435 0.00482369 0 0.0011592 0 0)
(0.0377605 -0.000415711 0 0.00268389 0 0)
(0.0163983 0.000183323 0 0.00131111 0 0)
(0.0164449 0.000298197 0 0.000971349 0 0)
(0.0150305 0.000288039 0 0.000827252 0 0)
(0.0146149 0.000358735 0 0.000735046 0 0)
(0.0153122 0.000480234 0 0.000672698 0 0)
(0.0169621 0.000558982 0 0.000626782 0 0)
(0.0192798 0.000565084 0 0.000588362 0 0)
(0.0221879 0.000546439 0 0.000553829 0 0)
(0.0258971 0.000569425 0 0.000522604 0 0)
(0.0307575 0.000673075 0 0.000495048 0 0)
(0.0370838 0.000856327 0 0.000471173 0 0)
(0.0450704 0.00108869 0 0.000450704 0 0)
(0.0547851 0.00133312 0 0.000432336 0 0)
(0.0662113 0.00157068 0 0.000416382 0 0)
(0.0793525 0.00180114 0 0.000407881 0 0)
(0.0941939 0.00203415 0 0.000401067 0 0)
(0.110679 0.00229611 0 0.000389836 0 0)
(0.0255533 -0.0534494 7.44273e-22 0.115808 -1.56502e-21 1.9757e-37)
(0.175971 -0.108724 -1.81844e-21 0.0715194 9.58742e-22 1.94803e-37)
(0.409182 -0.11489 0 0.0393312 0 0)
(0.645599 -0.0780212 0 0.023039 0 0)
(0.759077 -0.0100249 0 0.029175 0 0)
(0.774328 0.0297166 2.06294e-21 0.0556175 8.58936e-22 1.83493e-37)
(0.767666 0.0165744 0 0.0865844 0 0)
(0.825432 -0.0464098 0 0.106033 0 0)
(1.02543 -0.134977 0 0.114116 0 0)
(1.38982 -0.222077 0 0.112387 0 0)
(1.91421 -0.293828 1.82231e-21 0.103749 -5.39155e-22 1.69954e-37)
(2.55947 -0.34106 0 0.0917154 0 0)
(3.27894 -0.362522 0 0.0793236 0 0)
(4.02734 -0.36155 0 0.0685392 0 0)
(4.76504 -0.341349 0 0.0598115 0 0)
(5.46173 -0.301953 2.51945e-21 0.0517973 4.86424e-22 1.57086e-37)
(6.08667 -0.230731 0 0.0399519 0 0)
(6.58953 -0.131194 0 0.033436 0 0)
(6.9471 -0.0431426 0 0.0390359 0 0)
(7.15964 0.0250446 0 0.0481899 0 0)
(7.26137 0.07975 0 0.0590944 0 0)
(7.27269 0.125689 0 0.0712848 0 0)
(7.23261 0.15799 0 0.0850069 0 0)
(7.11439 0.181719 -5.01674e-21 0.107639 1.14815e-21 1.37881e-37)
(7.00385 0.164464 6.42542e-21 0.132842 -1.15921e-21 1.35598e-37)
(6.88636 0.112057 -7.74987e-21 0.181447 9.85466e-22 1.33341e-37)
(6.90679 0.0133166 -9.01505e-21 0.265602 7.10431e-22 1.31108e-37)
(7.08016 -0.135511 0 0.331727 0 0)
(7.45025 -0.250006 0 0.304648 0 0)
(7.91557 -0.345931 1.24238e-20 0.36422 -5.248e-22 1.24561e-37)
(8.48695 -0.434865 1.36807e-20 0.390179 -7.43138e-22 1.22428e-37)
(9.18182 -0.501125 0 0.375 0 0)
(10.0211 -0.55241 0 0.344087 0 0)
(10.9551 -0.576696 1.79217e-20 0.325777 -8.7085e-22 1.16186e-37)
(11.9332 -0.590934 0 0.325231 0 0)
(12.9743 -0.615196 0 0.355436 0 0)
(14.187 -0.716229 -2.11174e-20 0.429772 4.01621e-22 1.10178e-37)
(15.7059 -0.868332 0 0.462956 0 0)
(17.5273 -0.971029 -2.28069e-20 0.420585 4.33569e-22 1.06303e-37)
(19.3745 -0.881768 -4.74269e-20 0.319256 1.1404e-21 4.17615e-37)
(20.8146 -0.654196 0 0.257602 0 0)
(21.6836 -0.478839 0 0.23865 0 0)
(22.019 -0.348077 0 0.260151 0 0)
(22.1011 -0.485899 0 0.274496 0 0)
(22.6971 -0.591907 0 0.339415 0 0)
(23.3368 -0.5872 -6.00616e-20 0.398234 1.07012e-21 3.74148e-37)
(23.9662 -0.949935 -6.12123e-20 0.405499 3.58429e-22 3.67248e-37)
(24.3475 -0.987465 -6.20216e-20 0.50765 1.86861e-22 3.60446e-37)
(24.6339 -0.310596 0 0.276757 0 0)
(24.18 -0.145216 6.41213e-20 0.371894 -1.24533e-21 3.47128e-37)
(24.2518 -0.28864 0 0.297318 0 0)
(24.5325 -0.361653 -6.58423e-20 0.283402 1.07266e-21 3.34194e-37)
(24.9764 -0.388805 -6.66638e-20 0.256582 9.92725e-22 3.27872e-37)
(25.5207 -0.445846 0 0.218406 0 0)
(26.3509 -0.494766 0 0.180438 0 0)
(27.1326 -0.736188 0 0.188322 0 0)
(28.0372 -0.581192 -7.01571e-20 0.173216 8.44476e-22 3.03519e-37)
(28.6234 -0.500228 0 0.262985 0 0)
(29.6213 -0.598718 0 0.205113 0 0)
(30.8633 -0.630493 0 0.173993 0 0)
(32.269 -0.65023 0 0.136179 0 0)
(33.7677 -0.651515 0 0.10648 0 0)
(35.313 -0.638862 0 0.0819817 0 0)
(36.7997 -0.599478 0 0.0651907 0 0)
(38.1606 -0.536357 0 0.053374 0 0)
(39.3039 -0.450548 7.78598e-20 0.0452391 -4.29541e-22 2.53965e-37)
(40.1661 -0.34856 0 0.0397447 0 0)
(40.695 -0.236909 0 0.0366955 0 0)
(40.8866 -0.124509 -7.74351e-20 0.0356783 1.82783e-22 2.38971e-37)
(40.767 -0.0217396 -7.66723e-20 0.0354807 9.01475e-23 2.34133e-37)
(40.4035 0.0601426 0 0.034453 0 0)
(39.868 0.115032 7.42778e-20 0.0329881 6.15084e-23 2.24695e-37)
(39.2002 0.14311 -7.26998e-20 0.0319853 -9.56654e-23 2.20091e-37)
(38.4546 0.153212 0 0.0309557 0 0)
(37.7387 0.149555 6.89372e-20 0.0294714 1.71884e-22 2.11111e-37)
(37.0842 0.134453 0 0.0274279 0 0)
(36.4397 0.124577 0 0.026027 0 0)
(35.7754 0.12679 -6.2503e-20 0.0249514 -2.1777e-22 1.98197e-37)
(35.0899 0.137547 0 0.0233346 0 0)
(34.3898 0.151534 5.81524e-20 0.0213965 2.15636e-22 1.89948e-37)
(33.6783 0.163807 0 0.0199029 0 0)
(32.9558 0.171373 -5.40093e-20 0.0192502 -1.97925e-22 1.81979e-37)
(32.2207 0.174402 -5.2056e-20 0.0192988 -1.84528e-22 1.78097e-37)
(31.4697 0.175924 -5.01944e-20 0.0199459 -1.6771e-22 1.74283e-37)
(30.7012 0.178396 -9.68645e-20 0.0213341 -2.94785e-22 6.82137e-37)
(29.9215 0.181409 9.35492e-20 0.023866 2.4657e-22 6.67405e-37)
(29.1537 0.179285 0 0.0282693 0 0)
(28.4379 0.162724 0 0.0342203 0 0)
(27.8201 0.130102 0 0.0389218 0 0)
(27.3305 0.0903907 8.24591e-20 0.0406695 3.16389e-23 6.11013e-37)
(26.9736 0.0522782 8.03023e-20 0.0399295 -1.4361e-23 5.97532e-37)
(26.7381 0.0195661 -7.84234e-20 0.0377927 5.19415e-23 5.84293e-37)
(26.6096 -0.00692858 0 0.0349971 0 0)
(26.573 -0.0276126 7.54661e-20 0.0319442 -9.92488e-23 5.5852e-37)
(26.6136 -0.0428561 7.43309e-20 0.0288075 -1.07652e-22 5.4598e-37)
(26.7144 -0.0524184 7.3358e-20 0.025645 -1.04098e-22 5.33667e-37)
(26.8534 -0.0553448 0 0.0224772 0 0)
(27.002 -0.0503148 0 0.019342 0 0)
(27.1246 -0.0361626 0 0.0163033 0 0)
(27.1801 -0.012375 6.9296e-20 0.0134621 7.12307e-23 4.86599e-37)
(27.125 0.0203771 0 0.0109983 0 0)
(26.9181 0.0605229 0 0.00891046 0 0)
(26.5259 0.105329 -6.30252e-20 0.0073321 -3.44693e-22 4.53494e-37)
(25.9274 0.151797 0 0.00626698 0 0)
(25.1245 0.197274 0 0.00569706 0 0)
(24.1216 0.239807 -5.22576e-20 0.00555558 -5.73667e-22 4.22177e-37)
(22.9292 0.277252 0 0.00577067 0 0)
(21.5732 0.307829 0 0.00624927 0 0)
(20.0843 0.330247 3.86943e-20 0.00688822 6.34504e-22 3.92575e-37)
(18.5013 0.343673 3.41479e-20 0.00756796 6.13058e-22 3.83077e-37)
(16.8641 0.348089 0 0.00818872 0 0)
(15.2128 0.344147 -2.57861e-20 0.00867267 -5.2534e-22 3.64618e-37)
(13.583 0.333276 0 0.00898839 0 0)
(12.004 0.317149 1.89241e-20 0.00914021 4.1018e-22 3.46858e-37)
(10.4973 0.297484 0 0.00916268 0 0)
(9.07833 0.275843 1.37474e-20 0.00910464 2.99447e-22 3.29774e-37)
(7.75764 0.252809 1.17499e-20 0.0089832 2.50185e-22 3.21478e-37)
(6.54179 0.229166 0 0.00882259 0 0)
(5.43625 0.205122 0 0.00861604 0 0)
(4.44468 0.180778 0 0.00834364 0 0)
(3.56958 0.156264 0 0.00797512 0 0)
(2.81233 0.131804 0 0.00748004 0 0)
(2.17388 0.108623 0 0.00696488 0 0)
(1.65165 0.0870165 0 0.00639534 0 0)
(1.23749 0.0669235 5.15181e-21 0.00572602 3.90556e-23 2.60677e-37)
(0.922227 0.0490936 -4.92393e-21 0.0050164 -3.29528e-23 2.53735e-37)
(0.694848 0.0339045 0 0.00430164 0 0)
(0.542226 0.0215106 0 0.00361117 0 0)
(0.450388 0.0118881 0 0.00296832 0 0)
(0.405413 0.00487713 0 0.00238938 0 0)
(0.394113 0.000229694 -7.76103e-21 0.00188404 -3.24904e-23 8.8424e-37)
(0.404479 -0.00236609 0 0.00145873 0 0)
(0.426107 -0.00324898 6.87404e-21 0.00111429 1.1533e-23 8.356e-37)
(0.450187 -0.00281872 -6.45672e-21 0.000852629 2.30596e-24 8.12026e-37)
(0.47036 -0.00149835 0 0.000672846 0 0)
(0.481721 0.000430831 0 0.000565035 0 0)
(0.48156 0.00257531 0 0.000521177 0 0)
(0.470067 0.00438616 5.29995e-21 0.000524538 -7.12947e-23 7.22516e-37)
(0.449617 0.00561032 5.18488e-21 0.000548983 -9.0083e-23 7.01296e-37)
(0.422993 0.00629965 0 0.000577637 0 0)
(0.392893 0.00665672 5.16761e-21 0.000608056 -1.18651e-22 6.60193e-37)
(0.361158 0.00678728 5.25121e-21 0.000644278 -1.29468e-22 6.40295e-37)
(0.329317 0.00670038 -5.38566e-21 0.000688734 1.39411e-22 6.20824e-37)
(0.298684 0.00640854 0 0.000745084 0 0)
(0.270457 0.0059253 0 0.000817656 0 0)
(0.245868 0.00519458 -6.01878e-21 0.000901307 1.6257e-22 5.649e-37)
(0.22635 0.00410736 0 0.000971992 0 0)
(0.213447 0.00266559 0 0.000988969 0 0)
(0.208308 0.00112986 0 0.000924917 0 0)
(0.210915 -0.000109788 0 0.000806545 0 0)
(0.219816 -0.000841911 7.22922e-21 0.000696592 -1.25142e-22 4.79598e-37)
(0.232836 -0.00115179 7.4119e-21 0.000636825 -1.15547e-22 4.63667e-37)
(0.248177 -0.00130688 0 0.000628094 0 0)
(0.265052 -0.00155404 7.70216e-21 0.000645993 -1.00536e-22 4.32885e-37)
(0.283491 -0.00196549 0 0.000670923 0 0)
(0.303785 -0.00251806 0 0.000699644 0 0)
(0.326313 -0.00324515 8.0034e-21 0.00073272 -9.04004e-23 3.89329e-37)
(0.351462 -0.00413399 0 0.000766546 0 0)
(0.379201 -0.00501866 8.13756e-21 0.000794224 -8.716e-23 3.61973e-37)
(0.40903 -0.00596595 0 0.00081326 0 0)
(0.441707 -0.007488 0 0.000830911 0 0)
(0.480184 -0.00959084 8.24213e-21 0.000850916 -8.00601e-23 3.23354e-37)
(0.526738 -0.0108438 0 0.00082565 0 0)