/*--------------------------------*- C++ -*----------------------------------*\
  =========                 |
  \\      /  F ield         | OpenFOAM: The Open Source CFD Toolbox
   \\    /   O peration     | Website:  https://openfoam.org
    \\  /    A nd           | Version:  10
     \\/     M anipulation  |
\*---------------------------------------------------------------------------*/
FoamFile
{
    format      ascii;
    class       surfaceScalarField;
    location    "7500";
    object      phi;
}
// * * * * * * * * * * * * * * * * * * * * * * * * * * * * * * * * * * * * * //

dimensions      [0 3 -1 0 0 0 0];

internalField   nonuniform List<scalar> 
6280
(
-1.20019e-07
1.20019e-07
-2.3834e-07
1.18322e-07
-3.5538e-07
1.1704e-07
-4.71521e-07
1.16141e-07
-5.87117e-07
1.15597e-07
-7.02502e-07
1.15385e-07
-8.1799e-07
1.15487e-07
-9.33879e-07
1.15889e-07
-1.05046e-06
1.16577e-07
-1.168e-06
1.17544e-07
-1.28678e-06
1.18783e-07
-1.40707e-06
1.20291e-07
-1.52914e-06
1.22068e-07
-1.65326e-06
1.24119e-07
-1.77972e-06
1.26454e-07
-1.90881e-06
1.2909e-07
-2.04086e-06
1.32054e-07
-2.17625e-06
1.3539e-07
-2.31541e-06
1.3916e-07
-2.45887e-06
1.43461e-07
-2.6073e-06
1.48432e-07
-2.76158e-06
1.54278e-07
-2.92288e-06
1.613e-07
-3.09282e-06
1.69936e-07
-3.27364e-06
1.80826e-07
-3.46855e-06
1.94903e-07
-3.68208e-06
2.13538e-07
-3.92083e-06
2.38745e-07
-4.19433e-06
2.73503e-07
-4.51659e-06
3.22254e-07
-4.90826e-06
3.9167e-07
-5.40013e-06
4.91874e-07
-6.0385e-06
6.38373e-07
-6.89367e-06
8.55167e-07
-8.07343e-06
1.17976e-06
-9.7447e-06
1.67127e-06
-1.21683e-05
2.4236e-06
-1.5755e-05
3.58671e-06
-1.85787e-05
2.82371e-06
2.26649e-07
-1.88054e-05
-1.19125e-07
2.39144e-07
-2.36559e-07
2.35755e-07
-3.52707e-07
2.33188e-07
-4.67942e-07
2.31376e-07
-5.82612e-07
2.30266e-07
-6.9704e-07
2.29813e-07
-8.11532e-07
2.2998e-07
-9.26379e-07
2.30736e-07
-1.04186e-06
2.32057e-07
-1.15824e-06
2.33924e-07
-1.27578e-06
2.36324e-07
-1.39474e-06
2.39247e-07
-1.51536e-06
2.42689e-07
-1.63789e-06
2.46653e-07
-1.76258e-06
2.51147e-07
-1.88968e-06
2.56191e-07
-2.01944e-06
2.61815e-07
-2.15212e-06
2.68069e-07
-2.28799e-06
2.75024e-07
-2.42732e-06
2.8279e-07
-2.57041e-06
2.91522e-07
-2.71757e-06
3.01443e-07
-2.86914e-06
3.12872e-07
-3.02546e-06
3.26257e-07
-3.18686e-06
3.42224e-07
-3.3536e-06
3.61638e-07
-3.52574e-06
3.85678e-07
-3.70292e-06
4.15931e-07
-3.88391e-06
4.54489e-07
-4.06569e-06
5.04031e-07
-4.24188e-06
5.67861e-07
-4.39979e-06
6.49791e-07
-4.51514e-06
7.53722e-07
-4.54258e-06
8.82605e-07
-4.39904e-06
1.03622e-06
-3.93456e-06
1.20679e-06
-2.88165e-06
1.37069e-06
-7.68329e-07
1.47339e-06
6.52766e-07
1.40261e-06
1.07753e-06
-1.98117e-07
-1.1736e-07
3.56504e-07
-2.3304e-07
3.51435e-07
-3.47426e-07
3.47574e-07
-4.60874e-07
3.44825e-07
-5.73715e-07
3.43107e-07
-6.86256e-07
3.42355e-07
-7.98788e-07
3.42512e-07
-9.11585e-07
3.43532e-07
-1.02491e-06
3.4538e-07
-1.13901e-06
3.48024e-07
-1.25412e-06
3.5144e-07
-1.37049e-06
3.55611e-07
-1.48832e-06
3.60522e-07
-1.60783e-06
3.66166e-07
-1.72923e-06
3.72539e-07
-1.85268e-06
3.79642e-07
-1.97834e-06
3.87483e-07
-2.10635e-06
3.96076e-07
-2.23677e-06
4.05446e-07
-2.36961e-06
4.15626e-07
-2.50475e-06
4.26665e-07
-2.64194e-06
4.38629e-07
-2.78067e-06
4.51606e-07
-2.92012e-06
4.65707e-07
-3.05897e-06
4.81072e-07
-3.1952e-06
4.97863e-07
-3.32578e-06
5.16266e-07
-3.44631e-06
5.36461e-07
-3.55042e-06
5.58595e-07
-3.6291e-06
5.82712e-07
-3.66989e-06
6.08647e-07
-3.65596e-06
6.35864e-07
-3.56548e-06
6.63239e-07
-3.37164e-06
6.88772e-07
-3.04474e-06
7.09319e-07
-2.55844e-06
7.20479e-07
-1.90477e-06
7.1702e-07
-1.12602e-06
6.94649e-07
-3.78109e-07
6.54699e-07
5.51592e-07
1.47831e-07
-1.14766e-07
4.7127e-07
-2.27869e-07
4.64537e-07
-3.39667e-07
4.59372e-07
-4.50492e-07
4.5565e-07
-5.60649e-07
4.53265e-07
-6.70425e-07
4.5213e-07
-7.80086e-07
4.52173e-07
-8.89886e-07
4.53332e-07
-1.00006e-06
4.55558e-07
-1.11085e-06
4.58809e-07
-1.22246e-06
4.63049e-07
-1.3351e-06
4.6825e-07
-1.44896e-06
4.74388e-07
-1.56424e-06
4.81439e-07
-1.68108e-06
4.89384e-07
-1.79964e-06
4.982e-07
-1.92002e-06
5.07862e-07
-2.04228e-06
5.18338e-07
-2.16642e-06
5.29586e-07
-2.29234e-06
5.41545e-07
-2.41981e-06
5.5413e-07
-2.54839e-06
5.67215e-07
-2.67741e-06
5.80621e-07
-2.80579e-06
5.94088e-07
-2.93196e-06
6.07245e-07
-3.05366e-06
6.19564e-07
-3.1677e-06
6.30304e-07
-3.26968e-06
6.38438e-07
-3.35364e-06
6.42563e-07
-3.41174e-06
6.40808e-07
-3.43383e-06
6.30738e-07
-3.40726e-06
6.09296e-07
-3.31686e-06
5.72836e-07
-3.14543e-06
5.1734e-07
-2.87508e-06
4.3897e-07
-2.48982e-06
3.35219e-07
-1.97978e-06
2.06979e-07
-1.34717e-06
6.20369e-08
-6.13033e-07
-7.94335e-08
-1.68789e-07
1.07348e-07
-1.11406e-07
5.82676e-07
-2.2117e-07
5.74301e-07
-3.29618e-07
5.6782e-07
-4.37048e-07
5.63079e-07
-5.43735e-07
5.59952e-07
-6.49938e-07
5.58333e-07
-7.55896e-07
5.58131e-07
-8.61835e-07
5.59272e-07
-9.6797e-07
5.61693e-07
-1.0745e-06
5.65343e-07
-1.18163e-06
5.70178e-07
-1.28954e-06
5.76158e-07
-1.3984e-06
5.83251e-07
-1.50839e-06
5.91424e-07
-1.61965e-06
6.00645e-07
-1.73233e-06
6.10879e-07
-1.84655e-06
6.22081e-07
-1.9624e-06
6.34194e-07
-2.07996e-06
6.47142e-07
-2.19923e-06
6.60819e-07
-2.32018e-06
6.75076e-07
-2.44267e-06
6.89705e-07
-2.56647e-06
7.04418e-07
-2.69119e-06
7.18809e-07
-2.81626e-06
7.32319e-07
-2.94087e-06
7.44174e-07
-3.06388e-06
7.5331e-07
-3.18371e-06
7.58272e-07
-3.29822e-06
7.57073e-07
-3.40443e-06
7.47013e-07
-3.49811e-06
7.24419e-07
-3.57312e-06
6.84307e-07
-3.62018e-06
6.19901e-07
-3.62482e-06
5.21974e-07
-3.56376e-06
3.77919e-07
-3.39901e-06
1.70461e-07
-3.06789e-06
-1.24142e-07
-2.46732e-06
-5.38531e-07
-1.42932e-06
-1.11744e-06
-1.69843e-06
1.00327e-07
-1.07358e-07
6.90034e-07
-2.13102e-07
6.80045e-07
-3.17516e-07
6.72234e-07
-4.20862e-07
6.66425e-07
-5.23379e-07
6.62469e-07
-6.25291e-07
6.60244e-07
-7.26805e-07
6.59645e-07
-8.28119e-07
6.60585e-07
-9.29416e-07
6.62991e-07
-1.03087e-06
6.66801e-07
-1.13266e-06
6.71964e-07
-1.23494e-06
6.78437e-07
-1.33787e-06
6.86182e-07
-1.44161e-06
6.95165e-07
-1.54632e-06
7.05353e-07
-1.65215e-06
7.16712e-07
-1.75928e-06
7.29204e-07
-1.86787e-06
7.42784e-07
-1.97812e-06
7.57392e-07
-2.09025e-06
7.7295e-07
-2.20453e-06
7.89357e-07
-2.3213e-06
8.06472e-07
-2.44099e-06
8.24113e-07
-2.56422e-06
8.42037e-07
-2.69182e-06
8.59923e-07
-2.825e-06
8.77353e-07
-2.96547e-06
8.93783e-07
-3.11571e-06
9.08506e-07
-3.27924e-06
9.20601e-07
-3.46108e-06
9.28851e-07
-3.66828e-06
9.31622e-07
-3.91062e-06
9.26651e-07
-4.20141e-06
9.10689e-07
-4.55831e-06
8.78871e-07
-5.004e-06
8.23609e-07
-5.56617e-06
7.32638e-07
-6.2759e-06
5.85585e-07
-7.16243e-06
3.47998e-07
-8.23393e-06
-4.59406e-08
-1.01354e-05
2.03035e-07
-1.02715e-07
7.92749e-07
-2.0385e-07
7.8118e-07
-3.03643e-07
7.72027e-07
-4.02312e-07
7.65094e-07
-5.00058e-07
7.60215e-07
-5.97066e-07
7.57252e-07
-6.93508e-07
7.56087e-07
-7.89544e-07
7.56622e-07
-8.85327e-07
7.58774e-07
-9.81001e-07
7.62474e-07
-1.0767e-06
7.67666e-07
-1.17257e-06
7.74303e-07
-1.26873e-06
7.82348e-07
-1.36534e-06
7.91768e-07
-1.46253e-06
8.02541e-07
-1.56046e-06
8.14645e-07
-1.65932e-06
8.28065e-07
-1.75932e-06
8.42789e-07
-1.86074e-06
8.58808e-07
-1.96391e-06
8.76115e-07
-2.06926e-06
8.94712e-07
-2.1774e-06
9.14606e-07
-2.28911e-06
9.35825e-07
-2.40549e-06
9.58419e-07
-2.52806e-06
9.8249e-07
-2.65892e-06
1.00821e-06
-2.80103e-06
1.0359e-06
-2.95857e-06
1.06604e-06
-3.13745e-06
1.09949e-06
-3.34619e-06
1.13759e-06
-3.5971e-06
1.18253e-06
-3.90829e-06
1.23784e-06
-4.30679e-06
1.30919e-06
-4.83366e-06
1.40574e-06
-5.55242e-06
1.54237e-06
-6.56315e-06
1.74336e-06
-8.0261e-06
2.04854e-06
-1.02017e-05
2.52361e-06
-1.34252e-05
3.17752e-06
-2.63586e-05
2.798e-06
-9.75827e-08
8.90332e-07
-1.93624e-07
8.77221e-07
-2.88312e-07
8.66715e-07
-3.81821e-07
8.58602e-07
-4.74307e-07
8.52702e-07
-5.65916e-07
8.48861e-07
-6.5678e-07
8.46951e-07
-7.4702e-07
8.46862e-07
-8.36749e-07
8.48503e-07
-9.26072e-07
8.51798e-07
-1.01509e-06
8.56685e-07
-1.1039e-06
8.63114e-07
-1.1926e-06
8.71047e-07
-1.28129e-06
8.80457e-07
-1.37007e-06
8.91326e-07
-1.45908e-06
9.0365e-07
-1.54845e-06
9.17432e-07
-1.63835e-06
9.32692e-07
-1.72901e-06
9.49465e-07
-1.8207e-06
9.67806e-07
-1.91378e-06
9.87795e-07
-2.00873e-06
1.00955e-06
-2.10614e-06
1.03324e-06
-2.20681e-06
1.05909e-06
-2.31175e-06
1.08743e-06
-2.42223e-06
1.11869e-06
-2.53984e-06
1.15351e-06
-2.6665e-06
1.1927e-06
-2.80443e-06
1.23741e-06
-2.95599e-06
1.28915e-06
-3.12336e-06
1.3499e-06
-3.30773e-06
1.42221e-06
-3.50773e-06
1.50919e-06
-3.71649e-06
1.61449e-06
-3.91598e-06
1.74186e-06
-4.06682e-06
1.8942e-06
-4.08973e-06
2.07145e-06
-3.83247e-06
2.26634e-06
-2.71956e-06
2.06461e-06
-2.99849e-05
9.06789e-07
-9.20707e-08
9.82403e-07
-1.82644e-07
9.67794e-07
-2.71858e-07
9.5593e-07
-3.59839e-07
9.46584e-07
-4.46701e-07
9.39564e-07
-5.32545e-07
9.34705e-07
-6.17462e-07
9.31868e-07
-7.01532e-07
9.30931e-07
-7.84824e-07
9.31796e-07
-8.67403e-07
9.34376e-07
-9.49321e-07
9.38604e-07
-1.03063e-06
9.44423e-07
-1.11137e-06
9.51791e-07
-1.1916e-06
9.60679e-07
-1.27134e-06
9.71071e-07
-1.35065e-06
9.82963e-07
-1.42959e-06
9.96367e-07
-1.50821e-06
1.01131e-06
-1.58659e-06
1.02785e-06
-1.66483e-06
1.04604e-06
-1.74303e-06
1.066e-06
-1.82134e-06
1.08786e-06
-1.89989e-06
1.11179e-06
-1.97883e-06
1.13803e-06
-2.05827e-06
1.16687e-06
-2.13825e-06
1.19867e-06
-2.21862e-06
1.23388e-06
-2.29895e-06
1.27304e-06
-2.37829e-06
1.31675e-06
-2.45485e-06
1.36571e-06
-2.52555e-06
1.42061e-06
-2.58541e-06
1.48206e-06
-2.62669e-06
1.55047e-06
-2.63798e-06
1.62578e-06
-2.60326e-06
1.70714e-06
-2.50149e-06
1.79244e-06
-2.3079e-06
1.87786e-06
-1.999e-06
1.95744e-06
-1.40675e-06
1.47236e-06
-3.18259e-05
4.34287e-07
-8.6293e-08
1.0687e-06
-1.71138e-07
1.05264e-06
-2.54624e-07
1.03942e-06
-3.36832e-07
1.02879e-06
-4.1783e-07
1.02056e-06
-4.97678e-07
1.01455e-06
-5.76425e-07
1.01061e-06
-6.54109e-07
1.00862e-06
-7.30757e-07
1.00844e-06
-8.06387e-07
1.01001e-06
-8.81007e-07
1.01322e-06
-9.54613e-07
1.01803e-06
-1.02719e-06
1.02437e-06
-1.09873e-06
1.03221e-06
-1.16918e-06
1.04152e-06
-1.23851e-06
1.05229e-06
-1.30666e-06
1.06452e-06
-1.37357e-06
1.07822e-06
-1.43915e-06
1.09343e-06
-1.50329e-06
1.11018e-06
-1.56584e-06
1.12855e-06
-1.62662e-06
1.14863e-06
-1.68535e-06
1.17052e-06
-1.74168e-06
1.19435e-06
-1.79509e-06
1.22027e-06
-1.84485e-06
1.24843e-06
-1.88997e-06
1.279e-06
-1.92904e-06
1.31211e-06
-1.96016e-06
1.34788e-06
-1.98077e-06
1.38632e-06
-1.98749e-06
1.42733e-06
-1.97604e-06
1.47061e-06
-1.94114e-06
1.51557e-06
-1.87661e-06
1.56126e-06
-1.77574e-06
1.60627e-06
-1.632e-06
1.64869e-06
-1.44026e-06
1.68612e-06
-1.19861e-06
1.71579e-06
-8.63983e-07
1.13774e-06
-3.30091e-05
3.1914e-07
-8.03614e-08
1.14906e-06
-1.5933e-07
1.13161e-06
-2.36949e-07
1.11703e-06
-3.13255e-07
1.1051e-06
-3.88275e-07
1.09558e-06
-4.62031e-07
1.08831e-06
-5.3453e-07
1.08311e-06
-6.05772e-07
1.07986e-06
-6.75744e-07
1.07842e-06
-7.44423e-07
1.07868e-06
-8.11771e-07
1.08057e-06
-8.77737e-07
1.08399e-06
-9.42254e-07
1.08889e-06
-1.00524e-06
1.0952e-06
-1.0666e-06
1.10288e-06
-1.1262e-06
1.1119e-06
-1.18391e-06
1.12223e-06
-1.23953e-06
1.13385e-06
-1.29287e-06
1.14677e-06
-1.34367e-06
1.16097e-06
-1.3916e-06
1.17649e-06
-1.43628e-06
1.19332e-06
-1.47724e-06
1.21148e-06
-1.51388e-06
1.231e-06
-1.54547e-06
1.25186e-06
-1.5711e-06
1.27406e-06
-1.58965e-06
1.29754e-06
-1.59975e-06
1.32222e-06
-1.5998e-06
1.34792e-06
-1.58786e-06
1.37439e-06
-1.56178e-06
1.40125e-06
-1.51918e-06
1.42801e-06
-1.45759e-06
1.45398e-06
-1.37468e-06
1.47835e-06
-1.26851e-06
1.5001e-06
-1.13795e-06
1.51813e-06
-9.83083e-07
1.53126e-06
-8.05624e-07
1.53833e-06
-5.9438e-07
9.26491e-07
-3.39205e-05
3.17094e-07
-7.43809e-08
1.22344e-06
-1.4743e-07
1.20466e-06
-2.1915e-07
1.18875e-06
-2.89536e-07
1.17548e-06
-3.58582e-07
1.16463e-06
-4.26272e-07
1.156e-06
-4.92581e-07
1.14942e-06
-5.57474e-07
1.14475e-06
-6.20906e-07
1.14185e-06
-6.82817e-07
1.1406e-06
-7.43133e-07
1.14089e-06
-8.01766e-07
1.14263e-06
-8.58607e-07
1.14573e-06
-9.13531e-07
1.15012e-06
-9.66386e-07
1.15574e-06
-1.017e-06
1.16251e-06
-1.06516e-06
1.17039e-06
-1.11063e-06
1.17932e-06
-1.15312e-06
1.18926e-06
-1.19232e-06
1.20017e-06
-1.22784e-06
1.212e-06
-1.25922e-06
1.22471e-06
-1.28597e-06
1.23822e-06
-1.30746e-06
1.25249e-06
-1.32302e-06
1.26742e-06
-1.33187e-06
1.2829e-06
-1.33311e-06
1.29878e-06
-1.32577e-06
1.31489e-06
-1.30882e-06
1.33097e-06
-1.28117e-06
1.34673e-06
-1.24174e-06
1.36182e-06
-1.18953e-06
1.3758e-06
-1.12373e-06
1.38818e-06
-1.04381e-06
1.39842e-06
-9.49649e-07
1.40594e-06
-8.41662e-07
1.41015e-06
-7.2088e-07
1.41047e-06
-5.88976e-07
1.40642e-06
-4.43854e-07
7.81369e-07
-3.46998e-05
3.35426e-07
-6.84454e-08
1.29188e-06
-1.35627e-07
1.27184e-06
-2.01509e-07
1.25464e-06
-2.66059e-07
1.24003e-06
-3.29235e-07
1.22781e-06
-3.90996e-07
1.21776e-06
-4.51288e-07
1.20972e-06
-5.10052e-07
1.20351e-06
-5.67216e-07
1.19901e-06
-6.22696e-07
1.19608e-06
-6.76394e-07
1.19459e-06
-7.28196e-07
1.19443e-06
-7.77969e-07
1.1955e-06
-8.25562e-07
1.19772e-06
-8.708e-07
1.20097e-06
-9.1348e-07
1.20519e-06
-9.53375e-07
1.21028e-06
-9.90224e-07
1.21617e-06
-1.02373e-06
1.22277e-06
-1.05356e-06
1.23e-06
-1.07934e-06
1.23778e-06
-1.10066e-06
1.24602e-06
-1.11704e-06
1.25461e-06
-1.128e-06
1.26345e-06
-1.13298e-06
1.2724e-06
-1.13142e-06
1.28134e-06
-1.12272e-06
1.29009e-06
-1.1063e-06
1.29847e-06
-1.0816e-06
1.30627e-06
-1.04813e-06
1.31326e-06
-1.00549e-06
1.31918e-06
-9.53442e-07
1.32376e-06
-8.91959e-07
1.3267e-06
-8.21257e-07
1.32772e-06
-7.41854e-07
1.32654e-06
-6.54603e-07
1.3229e-06
-5.60708e-07
1.31658e-06
-4.6172e-07
1.30744e-06
-3.5358e-07
6.73229e-07
-3.54085e-05
3.55055e-07
-6.26349e-08
1.35452e-06
-1.24078e-07
1.33328e-06
-1.84267e-07
1.31483e-06
-2.43141e-07
1.29891e-06
-3.00638e-07
1.2853e-06
-3.56691e-07
1.27381e-06
-4.11232e-07
1.26426e-06
-4.64181e-07
1.25646e-06
-5.15452e-07
1.25028e-06
-5.64948e-07
1.24557e-06
-6.12558e-07
1.2422e-06
-6.58159e-07
1.24003e-06
-7.0161e-07
1.23896e-06
-7.42754e-07
1.23886e-06
-7.81413e-07
1.23963e-06
-8.17389e-07
1.24116e-06
-8.50459e-07
1.24335e-06
-8.80376e-07
1.24609e-06
-9.06868e-07
1.24926e-06
-9.29635e-07
1.25277e-06
-9.4835e-07
1.2565e-06
-9.62663e-07
1.26033e-06
-9.72202e-07
1.26415e-06
-9.76579e-07
1.26782e-06
-9.75399e-07
1.27122e-06
-9.68273e-07
1.27421e-06
-9.54831e-07
1.27664e-06
-9.34744e-07
1.27838e-06
-9.07745e-07
1.27927e-06
-8.73658e-07
1.27917e-06
-8.32421e-07
1.27794e-06
-7.84121e-07
1.27546e-06
-7.29014e-07
1.27159e-06
-6.67549e-07
1.26626e-06
-6.00376e-07
1.25937e-06
-5.28347e-07
1.25087e-06
-4.52496e-07
1.24073e-06
-3.74e-07
1.22894e-06
-2.88217e-07
5.87445e-07
-3.60801e-05
3.83396e-07
-5.7013e-08
1.41153e-06
-1.12912e-07
1.38918e-06
-1.67612e-07
1.36953e-06
-2.21035e-07
1.35233e-06
-2.73101e-07
1.33737e-06
-3.23732e-07
1.32444e-06
-3.72846e-07
1.31337e-06
-4.20357e-07
1.30397e-06
-4.66172e-07
1.2961e-06
-5.1019e-07
1.28959e-06
-5.52301e-07
1.28431e-06
-5.92385e-07
1.28011e-06
-6.3031e-07
1.27688e-06
-6.65928e-07
1.27448e-06
-6.99081e-07
1.27278e-06
-7.2959e-07
1.27167e-06
-7.57264e-07
1.27102e-06
-7.8189e-07
1.27071e-06
-8.03241e-07
1.27061e-06
-8.2107e-07
1.2706e-06
-8.35116e-07
1.27054e-06
-8.45101e-07
1.27032e-06
-8.5074e-07
1.26979e-06
-8.5174e-07
1.26882e-06
-8.47812e-07
1.26729e-06
-8.38679e-07
1.26508e-06
-8.24087e-07
1.26205e-06
-8.03822e-07
1.25811e-06
-7.77728e-07
1.25318e-06
-7.45723e-07
1.24717e-06
-7.07824e-07
1.24004e-06
-6.64166e-07
1.2318e-06
-6.15028e-07
1.22246e-06
-5.60843e-07
1.21207e-06
-5.02216e-07
1.20074e-06
-4.39929e-07
1.18858e-06
-3.74932e-07
1.17573e-06
-3.0832e-07
1.16233e-06
-2.33551e-07
5.12676e-07
-3.67341e-05
4.20493e-07
-5.16264e-08
1.46316e-06
-1.02219e-07
1.43977e-06
-1.5168e-07
1.41899e-06
-1.99917e-07
1.40057e-06
-2.46843e-07
1.38429e-06
-2.92372e-07
1.36997e-06
-3.36418e-07
1.35742e-06
-3.78894e-07
1.34645e-06
-4.19708e-07
1.33691e-06
-4.58768e-07
1.32865e-06
-4.95972e-07
1.32151e-06
-5.31215e-07
1.31536e-06
-5.64383e-07
1.31005e-06
-5.95355e-07
1.30545e-06
-6.24002e-07
1.30143e-06
-6.50183e-07
1.29785e-06
-6.7375e-07
1.29459e-06
-6.94542e-07
1.2915e-06
-7.12388e-07
1.28846e-06
-7.27107e-07
1.28532e-06
-7.38507e-07
1.28194e-06
-7.46385e-07
1.2782e-06
-7.5053e-07
1.27393e-06
-7.50723e-07
1.26902e-06
-7.46739e-07
1.26331e-06
-7.38354e-07
1.25669e-06
-7.25346e-07
1.24904e-06
-7.07501e-07
1.24027e-06
-6.84628e-07
1.2303e-06
-6.56566e-07
1.2191e-06
-6.23206e-07
1.20668e-06
-5.84509e-07
1.1931e-06
-5.40537e-07
1.17848e-06
-4.91484e-07
1.16302e-06
-4.37718e-07
1.14697e-06
-3.79815e-07
1.13068e-06
-3.18602e-07
1.11452e-06
-2.5518e-07
1.09891e-06
-1.84083e-07
4.41579e-07
-3.73834e-05
4.65165e-07
-4.65061e-08
1.50966e-06
-9.20607e-08
1.48533e-06
-1.36558e-07
1.46348e-06
-1.79899e-07
1.44391e-06
-2.21994e-07
1.42639e-06
-2.62754e-07
1.41073e-06
-3.02096e-07
1.39676e-06
-3.39937e-07
1.38429e-06
-3.76195e-07
1.37317e-06
-4.10788e-07
1.36324e-06
-4.43634e-07
1.35436e-06
-4.74648e-07
1.34637e-06
-5.03744e-07
1.33915e-06
-5.30835e-07
1.33254e-06
-5.55831e-07
1.32643e-06
-5.78638e-07
1.32066e-06
-5.99162e-07
1.31511e-06
-6.17302e-07
1.30964e-06
-6.32958e-07
1.30411e-06
-6.46021e-07
1.29838e-06
-6.56379e-07
1.2923e-06
-6.63909e-07
1.28573e-06
-6.68481e-07
1.2785e-06
-6.69948e-07
1.27048e-06
-6.68146e-07
1.26151e-06
-6.62884e-07
1.25143e-06
-6.53942e-07
1.2401e-06
-6.41059e-07
1.22739e-06
-6.23927e-07
1.21317e-06
-6.02192e-07
1.19737e-06
-5.75449e-07
1.17994e-06
-5.43255e-07
1.16091e-06
-5.05157e-07
1.14039e-06
-4.60737e-07
1.1186e-06
-4.09683e-07
1.09592e-06
-3.51889e-07
1.07288e-06
-2.87572e-07
1.0502e-06
-2.17364e-07
1.0287e-06
-1.40779e-07
3.64994e-07
-3.80396e-05
5.15511e-07
-4.16688e-08
1.55133e-06
-8.24687e-08
1.52613e-06
-1.2229e-07
1.50331e-06
-1.61033e-07
1.48265e-06
-1.98607e-07
1.46396e-06
-2.34928e-07
1.44705e-06
-2.69916e-07
1.43175e-06
-3.03497e-07
1.41787e-06
-3.35602e-07
1.40528e-06
-3.66166e-07
1.39381e-06
-3.95126e-07
1.38332e-06
-4.22423e-07
1.37367e-06
-4.48004e-07
1.36473e-06
-4.71817e-07
1.35636e-06
-4.93818e-07
1.34843e-06
-5.13963e-07
1.34081e-06
-5.32218e-07
1.33337e-06
-5.48552e-07
1.32598e-06
-5.62938e-07
1.3185e-06
-5.75354e-07
1.3108e-06
-5.85782e-07
1.30273e-06
-5.94202e-07
1.29415e-06
-6.0059e-07
1.28489e-06
-6.04909e-07
1.2748e-06
-6.07101e-07
1.2637e-06
-6.07069e-07
1.2514e-06
-6.04662e-07
1.23769e-06
-5.99641e-07
1.22237e-06
-5.91655e-07
1.20518e-06
-5.80191e-07
1.1859e-06
-5.64534e-07
1.16428e-06
-5.43719e-07
1.14009e-06
-5.16496e-07
1.11316e-06
-4.81325e-07
1.08343e-06
-4.36437e-07
1.05103e-06
-3.80019e-07
1.01647e-06
-3.10613e-07
9.80793e-07
-2.27856e-07
9.45943e-07
-1.31636e-07
2.68774e-07
-3.87033e-05
5.32058e-07
-3.71206e-08
1.58845e-06
-7.34532e-08
1.56246e-06
-1.08888e-07
1.53874e-06
-1.43327e-07
1.51709e-06
-1.76683e-07
1.49732e-06
-2.08874e-07
1.47924e-06
-2.3983e-07
1.4627e-06
-2.69487e-07
1.44753e-06
-2.97789e-07
1.43358e-06
-3.24686e-07
1.4207e-06
-3.50138e-07
1.40877e-06
-3.74112e-07
1.39764e-06
-3.96584e-07
1.3872e-06
-4.17538e-07
1.37731e-06
-4.36972e-07
1.36786e-06
-4.54895e-07
1.35873e-06
-4.71327e-07
1.3498e-06
-4.86307e-07
1.34096e-06
-4.99886e-07
1.33208e-06
-5.12134e-07
1.32305e-06
-5.2314e-07
1.31374e-06
-5.33007e-07
1.30401e-06
-5.41857e-07
1.29374e-06
-5.49821e-07
1.28277e-06
-5.57037e-07
1.27092e-06
-5.63634e-07
1.258e-06
-5.69711e-07
1.24377e-06
-5.75308e-07
1.22796e-06
-5.8035e-07
1.21023e-06
-5.84577e-07
1.19013e-06
-5.87425e-07
1.16713e-06
-5.87859e-07
1.14053e-06
-5.84136e-07
1.10944e-06
-5.73465e-07
1.07276e-06
-5.5156e-07
1.02913e-06
-5.12061e-07
9.76967e-07
-4.4587e-07
9.14603e-07
-3.40513e-07
8.40586e-07
-1.36514e-07
6.47753e-08
-3.93803e-05
5.40427e-07
-3.28596e-08
1.62131e-06
-6.50092e-08
1.59461e-06
-9.6341e-08
1.57007e-06
-1.2676e-07
1.54751e-06
-1.5618e-07
1.52674e-06
-1.84529e-07
1.50759e-06
-2.11742e-07
1.48991e-06
-2.37765e-07
1.47355e-06
-2.62553e-07
1.45837e-06
-2.86072e-07
1.44422e-06
-3.08299e-07
1.431e-06
-3.29222e-07
1.41856e-06
-3.48841e-07
1.40682e-06
-3.67173e-07
1.39564e-06
-3.84247e-07
1.38493e-06
-4.00112e-07
1.3746e-06
-4.14838e-07
1.36453e-06
-4.28517e-07
1.35464e-06
-4.41267e-07
1.34483e-06
-4.53238e-07
1.33502e-06
-4.64616e-07
1.32511e-06
-4.75625e-07
1.31502e-06
-4.86538e-07
1.30466e-06
-4.97682e-07
1.29391e-06
-5.09448e-07
1.28268e-06
-5.22299e-07
1.27085e-06
-5.36778e-07
1.25825e-06
-5.53521e-07
1.24471e-06
-5.73257e-07
1.22996e-06
-5.968e-07
1.21367e-06
-6.2502e-07
1.19535e-06
-6.58753e-07
1.17426e-06
-6.98623e-07
1.14931e-06
-7.4467e-07
1.1188e-06
-7.9564e-07
1.0801e-06
-8.47644e-07
1.02897e-06
-8.91695e-07
9.58653e-07
-9.09221e-07
8.58112e-07
-1.35132e-07
-7.09314e-07
-4.00762e-05
5.60759e-07
-2.88797e-08
1.65019e-06
-5.71231e-08
1.62285e-06
-8.46249e-08
1.59757e-06
-1.11292e-07
1.57418e-06
-1.37045e-07
1.55249e-06
-1.61813e-07
1.53236e-06
-1.85539e-07
1.51364e-06
-2.08175e-07
1.49619e-06
-2.29685e-07
1.47988e-06
-2.50047e-07
1.46458e-06
-2.69248e-07
1.4502e-06
-2.87291e-07
1.43661e-06
-3.04192e-07
1.42372e-06
-3.19985e-07
1.41143e-06
-3.3472e-07
1.39967e-06
-3.4847e-07
1.38835e-06
-3.61329e-07
1.37739e-06
-3.73421e-07
1.36673e-06
-3.84899e-07
1.35631e-06
-3.95954e-07
1.34607e-06
-4.06824e-07
1.33598e-06
-4.17799e-07
1.326e-06
-4.29236e-07
1.31609e-06
-4.41576e-07
1.30625e-06
-4.55368e-07
1.29648e-06
-4.71301e-07
1.28678e-06
-4.9025e-07
1.2772e-06
-5.13347e-07
1.2678e-06
-5.42081e-07
1.2587e-06
-5.78455e-07
1.25005e-06
-6.2522e-07
1.24212e-06
-6.86253e-07
1.23529e-06
-7.6715e-07
1.23021e-06
-8.76183e-07
1.22784e-06
-1.02587e-06
1.22978e-06
-1.23553e-06
1.23863e-06
-1.53557e-06
1.25869e-06
-1.97429e-06
1.29684e-06
-1.12887e-07
-2.57072e-06
-4.0788e-05
5.98904e-07
-2.51732e-08
1.67537e-06
-4.97786e-08
1.64746e-06
-7.37131e-08
1.62151e-06
-9.68864e-08
1.59735e-06
-1.1922e-07
1.57483e-06
-1.40648e-07
1.55379e-06
-1.61116e-07
1.53411e-06
-1.8058e-07
1.51565e-06
-1.9901e-07
1.49831e-06
-2.16386e-07
1.48196e-06
-2.32703e-07
1.46651e-06
-2.47968e-07
1.45187e-06
-2.62203e-07
1.43795e-06
-2.75446e-07
1.42468e-06
-2.87751e-07
1.41198e-06
-2.99193e-07
1.39979e-06
-3.09868e-07
1.38806e-06
-3.19895e-07
1.37675e-06
-3.29423e-07
1.36584e-06
-3.38633e-07
1.35528e-06
-3.47741e-07
1.34509e-06
-3.57012e-07
1.33527e-06
-3.66761e-07
1.32584e-06
-3.77371e-07
1.31686e-06
-3.89306e-07
1.30841e-06
-4.03129e-07
1.3006e-06
-4.19532e-07
1.2936e-06
-4.3937e-07
1.28764e-06
-4.63705e-07
1.28303e-06
-4.93866e-07
1.28021e-06
-5.31522e-07
1.27977e-06
-5.78763e-07
1.28254e-06
-6.38197e-07
1.28964e-06
-7.13015e-07
1.30266e-06
-8.0699e-07
1.32376e-06
-9.24295e-07
1.35594e-06
-1.06891e-06
1.4033e-06
-1.24198e-06
1.46991e-06
-1.25131e-07
-3.68757e-06
-4.15215e-05
6.08395e-07
-2.17328e-08
1.6971e-06
-4.29609e-08
1.66869e-06
-6.35824e-08
1.64213e-06
-8.35079e-08
1.61728e-06
-1.02661e-07
1.59398e-06
-1.20975e-07
1.5721e-06
-1.38397e-07
1.55153e-06
-1.54885e-07
1.53214e-06
-1.70409e-07
1.51383e-06
-1.84948e-07
1.4965e-06
-1.98496e-07
1.48006e-06
-2.11057e-07
1.46443e-06
-2.22648e-07
1.44954e-06
-2.33301e-07
1.43533e-06
-2.43059e-07
1.42173e-06
-2.51982e-07
1.40871e-06
-2.60143e-07
1.39622e-06
-2.67634e-07
1.38425e-06
-2.74562e-07
1.37276e-06
-2.81053e-07
1.36177e-06
-2.87252e-07
1.35129e-06
-2.93323e-07
1.34134e-06
-2.99451e-07
1.33197e-06
-3.05835e-07
1.32325e-06
-3.12694e-07
1.31527e-06
-3.20248e-07
1.30816e-06
-3.28717e-07
1.30207e-06
-3.38289e-07
1.29721e-06
-3.49084e-07
1.29383e-06
-3.61089e-07
1.29222e-06
-3.74052e-07
1.29273e-06
-3.87303e-07
1.29579e-06
-3.99485e-07
1.30182e-06
-4.08115e-07
1.31129e-06
-4.08912e-07
1.32455e-06
-3.94768e-07
1.34179e-06
-3.54198e-07
1.36273e-06
-2.67458e-07
1.38317e-06
-2.02799e-07
-3.75223e-06
-4.22903e-05
5.65964e-07
-1.85535e-08
1.71565e-06
-3.66596e-08
1.68679e-06
-5.42166e-08
1.65969e-06
-7.11351e-08
1.63419e-06
-8.73376e-08
1.61018e-06
-1.02758e-07
1.58752e-06
-1.17341e-07
1.56611e-06
-1.31043e-07
1.54584e-06
-1.4383e-07
1.52662e-06
-1.55678e-07
1.50835e-06
-1.66574e-07
1.49096e-06
-1.76514e-07
1.47437e-06
-1.85504e-07
1.45853e-06
-1.93559e-07
1.44339e-06
-2.00706e-07
1.42888e-06
-2.06976e-07
1.41498e-06
-2.12412e-07
1.40166e-06
-2.17062e-07
1.38889e-06
-2.20979e-07
1.37668e-06
-2.2422e-07
1.36502e-06
-2.26842e-07
1.35391e-06
-2.28898e-07
1.3434e-06
-2.3043e-07
1.3335e-06
-2.31458e-07
1.32428e-06
-2.31973e-07
1.31578e-06
-2.31914e-07
1.3081e-06
-2.31145e-07
1.3013e-06
-2.29422e-07
1.29549e-06
-2.26344e-07
1.29075e-06
-2.21297e-07
1.28717e-06
-2.13364e-07
1.2848e-06
-2.01233e-07
1.28366e-06
-1.83068e-07
1.28366e-06
-1.56378e-07
1.2846e-06
-1.17894e-07
1.28607e-06
-6.35004e-08
1.2874e-06
1.16802e-08
1.28755e-06
1.13064e-07
1.28179e-06
-2.50641e-07
-3.38852e-06
-4.30834e-05
5.42475e-07
-1.56324e-08
1.73128e-06
-3.08692e-08
1.70203e-06
-4.56079e-08
1.67443e-06
-5.97581e-08
1.64834e-06
-7.32408e-08
1.62366e-06
-8.59878e-08
1.60027e-06
-9.79411e-08
1.57807e-06
-1.09052e-07
1.55695e-06
-1.19283e-07
1.53685e-06
-1.28602e-07
1.51767e-06
-1.36987e-07
1.49934e-06
-1.44424e-07
1.48181e-06
-1.50905e-07
1.46502e-06
-1.56427e-07
1.44891e-06
-1.60995e-07
1.43345e-06
-1.64614e-07
1.4186e-06
-1.67293e-07
1.40434e-06
-1.6904e-07
1.39064e-06
-1.6986e-07
1.3775e-06
-1.69751e-07
1.36491e-06
-1.68701e-07
1.35286e-06
-1.66681e-07
1.34137e-06
-1.63637e-07
1.33046e-06
-1.59484e-07
1.32012e-06
-1.54094e-07
1.31039e-06
-1.47282e-07
1.30129e-06
-1.38796e-07
1.29282e-06
-1.28296e-07
1.28499e-06
-1.15338e-07
1.27779e-06
-9.936e-08
1.27119e-06
-7.96699e-08
1.26511e-06
-5.54423e-08
1.25943e-06
-2.57352e-08
1.25395e-06
1.0465e-08
1.2484e-06
5.41539e-08
1.24238e-06
1.06155e-07
1.2354e-06
1.66883e-07
1.22682e-06
2.35881e-07
1.21279e-06
-2.75449e-07
-2.87719e-06
-4.38911e-05
5.32269e-07
-1.29686e-08
1.74425e-06
-2.55884e-08
1.71465e-06
-3.77555e-08
1.68659e-06
-4.93779e-08
1.65997e-06
-6.03743e-08
1.63466e-06
-7.06738e-08
1.61057e-06
-8.02146e-08
1.58761e-06
-8.89438e-08
1.56568e-06
-9.68164e-08
1.54472e-06
-1.03794e-07
1.52464e-06
-1.09847e-07
1.50539e-06
-1.14947e-07
1.48691e-06
-1.19075e-07
1.46914e-06
-1.22212e-07
1.45205e-06
-1.24342e-07
1.43558e-06
-1.25451e-07
1.41971e-06
-1.25521e-07
1.40441e-06
-1.24531e-07
1.38965e-06
-1.22453e-07
1.37542e-06
-1.19251e-07
1.3617e-06
-1.14873e-07
1.34848e-06
-1.09249e-07
1.33575e-06
-1.02287e-07
1.32349e-06
-9.38669e-08
1.3117e-06
-8.38343e-08
1.30036e-06
-7.19984e-08
1.28945e-06
-5.81273e-08
1.27894e-06
-4.19484e-08
1.26881e-06
-2.31522e-08
1.259e-06
-1.40409e-09
1.24944e-06
2.36346e-08
1.24007e-06
5.22708e-08
1.23079e-06
8.47255e-08
1.22149e-06
1.21058e-07
1.21206e-06
1.61062e-07
1.20238e-06
2.04144e-07
1.19232e-06
2.49173e-07
1.18179e-06
2.94197e-07
1.16777e-06
-2.87133e-07
-2.29586e-06
-4.46915e-05
5.13275e-07
-1.05629e-08
1.75482e-06
-2.08189e-08
1.72491e-06
-3.06629e-08
1.69644e-06
-4.00012e-08
1.6693e-06
-4.87504e-08
1.64341e-06
-5.68365e-08
1.61866e-06
-6.41943e-08
1.59497e-06
-7.07661e-08
1.57225e-06
-7.65013e-08
1.55045e-06
-8.13554e-08
1.5295e-06
-8.5289e-08
1.50933e-06
-8.8267e-08
1.48989e-06
-9.02576e-08
1.47113e-06
-9.12309e-08
1.45302e-06
-9.1158e-08
1.4355e-06
-9.00091e-08
1.41856e-06
-8.77523e-08
1.40215e-06
-8.43513e-08
1.38625e-06
-7.97637e-08
1.37084e-06
-7.39383e-08
1.35588e-06
-6.68127e-08
1.34136e-06
-5.8311e-08
1.32725e-06
-4.83406e-08
1.31352e-06
-3.67905e-08
1.30015e-06
-2.35285e-08
1.2871e-06
-8.40101e-09
1.27432e-06
8.76681e-09
1.26178e-06
2.81681e-08
1.24941e-06
5.00081e-08
1.23716e-06
7.44929e-08
1.22496e-06
1.01812e-07
1.21275e-06
1.32114e-07
1.20049e-06
1.65465e-07
1.18814e-06
2.018e-07
1.17573e-06
2.40846e-07
1.16333e-06
2.82017e-07
1.15115e-06
3.2426e-07
1.13955e-06
3.65636e-07
1.12639e-06
-2.64474e-07
-1.66575e-06
-4.54174e-05
4.61448e-07
-8.4159e-09
1.76323e-06
-1.65627e-08
1.73305e-06
-2.43345e-08
1.70421e-06
-3.16363e-08
1.67661e-06
-3.8383e-08
1.65016e-06
-4.44983e-08
1.62477e-06
-4.99139e-08
1.60038e-06
-5.45684e-08
1.57691e-06
-5.84068e-08
1.55429e-06
-6.1379e-08
1.53247e-06
-6.34399e-08
1.51139e-06
-6.45476e-08
1.491e-06
-6.46629e-08
1.47125e-06
-6.37487e-08
1.4521e-06
-6.17685e-08
1.43352e-06
-5.86856e-08
1.41548e-06
-5.44622e-08
1.39793e-06
-4.9058e-08
1.38085e-06
-4.24295e-08
1.36421e-06
-3.45284e-08
1.34798e-06
-2.53005e-08
1.33213e-06
-1.4685e-08
1.31663e-06
-2.61283e-09
1.30145e-06
1.09944e-08
1.28654e-06
2.62254e-08
1.27187e-06
4.31807e-08
1.25737e-06
6.19741e-08
1.24298e-06
8.27352e-08
1.22865e-06
1.05612e-07
1.21428e-06
1.30779e-07
1.19979e-06
1.58442e-07
1.18509e-06
1.88855e-07
1.17008e-06
2.22346e-07
1.15465e-06
2.59346e-07
1.13873e-06
3.00457e-07
1.12222e-06
3.46531e-07
1.10507e-06
3.98811e-07
1.08727e-06
4.58848e-07
1.06635e-06
-1.41838e-07
-1.06507e-06
-4.58692e-05
3.0997e-07
-6.52766e-09
1.76976e-06
-1.28204e-08
1.73934e-06
-1.87722e-08
1.71016e-06
-2.42878e-08
1.68212e-06
-2.92812e-08
1.65515e-06
-3.36747e-08
1.62917e-06
-3.73981e-08
1.6041e-06
-4.03876e-08
1.5799e-06
-4.25848e-08
1.55649e-06
-4.39364e-08
1.53382e-06
-4.4393e-08
1.51185e-06
-4.39086e-08
1.49051e-06
-4.244e-08
1.46978e-06
-3.99458e-08
1.44961e-06
-3.63867e-08
1.42997e-06
-3.17239e-08
1.41081e-06
-2.59197e-08
1.39212e-06
-1.89368e-08
1.37386e-06
-1.07382e-08
1.35601e-06
-1.28726e-09
1.33853e-06
9.45181e-09
1.32139e-06
2.15139e-08
1.30457e-06
3.49325e-08
1.28803e-06
4.97391e-08
1.27174e-06
6.59631e-08
1.25564e-06
8.36324e-08
1.2397e-06
1.02775e-07
1.22384e-06
1.23422e-07
1.208e-06
1.45615e-07
1.19209e-06
1.69415e-07
1.17599e-06
1.94925e-07
1.15958e-06
2.22308e-07
1.14269e-06
2.51834e-07
1.12513e-06
2.83932e-07
1.10663e-06
3.19273e-07
1.08688e-06
3.58887e-07
1.06546e-06
4.04339e-07
1.04182e-06
4.57676e-07
1.01302e-06
2.71588e-08
-6.34552e-07
-4.5983e-05
1.40912e-07
-4.89634e-09
1.77466e-06
-9.58858e-09
1.74404e-06
-1.3972e-08
1.71454e-06
-1.79521e-08
1.6861e-06
-2.14432e-08
1.65864e-06
-2.43676e-08
1.63209e-06
-2.66543e-08
1.60639e-06
-2.82383e-08
1.58148e-06
-2.90597e-08
1.55731e-06
-2.90632e-08
1.53383e-06
-2.81973e-08
1.51098e-06
-2.64135e-08
1.48873e-06
-2.36666e-08
1.46703e-06
-1.99136e-08
1.44586e-06
-1.51138e-08
1.42517e-06
-9.22877e-09
1.40493e-06
-2.22275e-09
1.38512e-06
5.93732e-09
1.3657e-06
1.52808e-08
1.34666e-06
2.58323e-08
1.32798e-06
3.761e-08
1.30961e-06
5.06238e-08
1.29156e-06
6.48728e-08
1.27378e-06
8.03419e-08
1.25627e-06
9.69988e-08
1.23899e-06
1.1479e-07
1.22191e-06
1.33636e-07