/*--------------------------------*- C++ -*----------------------------------*\
  =========                 |
  \\      /  F ield         | OpenFOAM: The Open Source CFD Toolbox
   \\    /   O peration     | Website:  https://openfoam.org
    \\  /    A nd           | Version:  10
     \\/     M anipulation  |
\*---------------------------------------------------------------------------*/
FoamFile
{
    format      ascii;
    class       volScalarField;
    location    "0.028";
    object      pPrime2Mean;
}
// * * * * * * * * * * * * * * * * * * * * * * * * * * * * * * * * * * * * * //

dimensions      [0 4 -4 0 0 0 0];

internalField   nonuniform List<scalar> 
12225
(
1.47914e+07
1.45558e+07
1.43135e+07
1.40795e+07
1.38546e+07
1.36381e+07
1.34294e+07
1.3228e+07
1.30333e+07
1.28445e+07
1.26609e+07
1.24816e+07
1.23055e+07
1.21314e+07
1.19574e+07
1.17807e+07
1.1596e+07
1.13905e+07
1.47917e+07
1.4556e+07
1.43136e+07
1.40797e+07
1.38547e+07
1.36382e+07
1.34296e+07
1.32283e+07
1.30336e+07
1.28448e+07
1.26613e+07
1.24821e+07
1.23063e+07
1.21325e+07
1.19589e+07
1.17831e+07
1.16007e+07
1.14019e+07
1.47922e+07
1.45563e+07
1.43139e+07
1.40799e+07
1.3855e+07
1.36386e+07
1.343e+07
1.32287e+07
1.30342e+07
1.28456e+07
1.26622e+07
1.24833e+07
1.23079e+07
1.21347e+07
1.19622e+07
1.17883e+07
1.16099e+07
1.14233e+07
1.47928e+07
1.45567e+07
1.43143e+07
1.40804e+07
1.38555e+07
1.36391e+07
1.34307e+07
1.32295e+07
1.30351e+07
1.28468e+07
1.26637e+07
1.24853e+07
1.23105e+07
1.21383e+07
1.19674e+07
1.17963e+07
1.16234e+07
1.14489e+07
1.47933e+07
1.45573e+07
1.43149e+07
1.40811e+07
1.38563e+07
1.364e+07
1.34317e+07
1.32307e+07
1.30366e+07
1.28485e+07
1.2666e+07
1.24881e+07
1.23142e+07
1.21434e+07
1.19746e+07
1.18071e+07
1.16404e+07
1.14766e+07
1.47941e+07
1.45581e+07
1.43158e+07
1.4082e+07
1.38573e+07
1.36412e+07
1.3433e+07
1.32323e+07
1.30385e+07
1.28509e+07
1.2669e+07
1.2492e+07
1.23193e+07
1.21502e+07
1.1984e+07
1.18204e+07
1.166e+07
1.15053e+07
1.47951e+07
1.45592e+07
1.4317e+07
1.40832e+07
1.38587e+07
1.36427e+07
1.34348e+07
1.32345e+07
1.30411e+07
1.28541e+07
1.26729e+07
1.2497e+07
1.23257e+07
1.21586e+07
1.19954e+07
1.1836e+07
1.16816e+07
1.15344e+07
1.47963e+07
1.45607e+07
1.43184e+07
1.40848e+07
1.38604e+07
1.36447e+07
1.34371e+07
1.32372e+07
1.30444e+07
1.28581e+07
1.26779e+07
1.25032e+07
1.23337e+07
1.21689e+07
1.20088e+07
1.18537e+07
1.17047e+07
1.15638e+07
1.47982e+07
1.45625e+07
1.43203e+07
1.40868e+07
1.38626e+07
1.36471e+07
1.344e+07
1.32406e+07
1.30484e+07
1.2863e+07
1.26839e+07
1.25107e+07
1.23431e+07
1.21808e+07
1.2024e+07
1.1873e+07
1.1729e+07
1.15934e+07
1.48004e+07
1.45648e+07
1.43227e+07
1.40893e+07
1.38653e+07
1.36502e+07
1.34435e+07
1.32447e+07
1.30533e+07
1.28689e+07
1.26911e+07
1.25196e+07
1.2354e+07
1.21944e+07
1.20408e+07
1.18938e+07
1.17542e+07
1.1623e+07
1.48038e+07
1.45677e+07
1.43255e+07
1.40923e+07
1.38685e+07
1.36538e+07
1.34477e+07
1.32496e+07
1.30591e+07
1.28759e+07
1.26996e+07
1.25298e+07
1.23664e+07
1.22095e+07
1.20592e+07
1.19158e+07
1.17801e+07
1.16527e+07
1.48068e+07
1.45709e+07
1.43287e+07
1.40955e+07
1.38721e+07
1.36578e+07
1.34522e+07
1.32549e+07
1.30654e+07
1.28833e+07
1.27084e+07
1.25404e+07
1.23791e+07
1.22247e+07
1.20772e+07
1.19369e+07
1.18043e+07
1.16799e+07
1.48111e+07
1.45747e+07
1.43323e+07
1.40993e+07
1.38761e+07
1.36623e+07
1.34573e+07
1.32608e+07
1.30723e+07
1.28915e+07
1.27181e+07
1.25519e+07
1.23928e+07
1.22407e+07
1.20958e+07
1.19584e+07
1.18286e+07
1.17068e+07
1.48168e+07
1.45796e+07
1.43371e+07
1.41042e+07
1.38814e+07
1.36682e+07
1.3464e+07
1.32685e+07
1.30813e+07
1.2902e+07
1.27304e+07
1.25663e+07
1.24095e+07
1.22601e+07
1.21181e+07
1.19836e+07
1.18566e+07
1.17374e+07
1.48242e+07
1.45862e+07
1.43434e+07
1.41106e+07
1.38883e+07
1.36759e+07
1.34727e+07
1.32785e+07
1.30928e+07
1.29153e+07
1.27458e+07
1.2584e+07
1.24298e+07
1.22832e+07
1.21441e+07
1.20126e+07
1.18884e+07
1.17717e+07
1.48331e+07
1.45944e+07
1.43515e+07
1.4119e+07
1.38973e+07
1.36858e+07
1.34838e+07
1.32911e+07
1.31072e+07
1.29317e+07
1.27645e+07
1.26053e+07
1.24539e+07
1.23102e+07
1.21741e+07
1.20454e+07
1.1924e+07
1.18096e+07
1.48438e+07
1.46046e+07
1.43616e+07
1.41295e+07
1.39086e+07
1.36982e+07
1.34977e+07
1.33067e+07
1.31248e+07
1.29517e+07
1.2787e+07
1.26305e+07
1.24819e+07
1.23411e+07
1.22078e+07
1.20818e+07
1.19629e+07
1.18507e+07
1.48555e+07
1.46164e+07
1.43738e+07
1.41424e+07
1.39225e+07
1.37134e+07
1.35145e+07
1.33255e+07
1.31457e+07
1.2975e+07
1.28128e+07
1.2659e+07
1.25132e+07
1.23751e+07
1.22444e+07
1.21209e+07
1.20043e+07
1.18942e+07
1.48692e+07
1.463e+07
1.43879e+07
1.41573e+07
1.39385e+07
1.37309e+07
1.35339e+07
1.33468e+07
1.31693e+07
1.30009e+07
1.28412e+07
1.26899e+07
1.25467e+07
1.2411e+07
1.22827e+07
1.21614e+07
1.20468e+07
1.19385e+07
1.48805e+07
1.46412e+07
1.43994e+07
1.41696e+07
1.39519e+07
1.37455e+07
1.35498e+07
1.33643e+07
1.31884e+07
1.30217e+07
1.28638e+07
1.27143e+07
1.25727e+07
1.24388e+07
1.2312e+07
1.21921e+07
1.20788e+07
1.19716e+07
1.48863e+07
1.46481e+07
1.4407e+07
1.41778e+07
1.39609e+07
1.37554e+07
1.35607e+07
1.33761e+07
1.32013e+07
1.30357e+07
1.28789e+07
1.27305e+07
1.25899e+07
1.24569e+07
1.23311e+07
1.22121e+07
1.20995e+07
1.1993e+07
1.48913e+07
1.46529e+07
1.44123e+07
1.41838e+07
1.39675e+07
1.37626e+07
1.35686e+07
1.33848e+07
1.32107e+07
1.30459e+07
1.28898e+07
1.27421e+07
1.26023e+07
1.247e+07
1.23448e+07
1.22263e+07
1.21142e+07
1.20082e+07
1.48924e+07
1.46557e+07
1.44158e+07
1.41879e+07
1.39721e+07
1.37678e+07
1.35743e+07
1.3391e+07
1.32175e+07
1.30532e+07
1.28976e+07
1.27504e+07
1.26111e+07
1.24792e+07
1.23545e+07
1.22364e+07
1.21247e+07
1.20189e+07
1.48938e+07
1.46575e+07
1.44182e+07
1.41907e+07
1.39754e+07
1.37714e+07
1.35783e+07
1.33954e+07
1.32222e+07
1.30583e+07
1.29031e+07
1.27563e+07
1.26173e+07
1.24857e+07
1.23613e+07
1.22434e+07
1.21319e+07
1.20264e+07
1.48944e+07
1.46585e+07
1.44197e+07
1.41926e+07
1.39776e+07
1.37739e+07
1.35811e+07
1.33984e+07
1.32255e+07
1.30619e+07
1.29069e+07
1.27603e+07
1.26215e+07
1.24902e+07
1.23659e+07
1.22483e+07
1.21369e+07
1.20315e+07
1.48935e+07
1.46589e+07
1.44206e+07
1.41938e+07
1.39791e+07
1.37756e+07
1.35829e+07
1.34005e+07
1.32278e+07
1.30642e+07
1.29095e+07
1.2763e+07
1.26244e+07
1.24932e+07
1.2369e+07
1.22515e+07
1.21403e+07
1.20349e+07
1.48929e+07
1.4659e+07
1.44212e+07
1.41946e+07
1.398e+07
1.37767e+07
1.35841e+07
1.34018e+07
1.32292e+07
1.30658e+07
1.29111e+07
1.27647e+07
1.26262e+07
1.24951e+07
1.2371e+07
1.22536e+07
1.21424e+07
1.20371e+07
1.48927e+07
1.46591e+07
1.44215e+07
1.41951e+07
1.39806e+07
1.37773e+07
1.35849e+07
1.34026e+07
1.323e+07
1.30667e+07
1.29121e+07
1.27658e+07
1.26273e+07
1.24963e+07
1.23722e+07
1.22549e+07
1.21437e+07
1.20385e+07
1.48926e+07
1.46592e+07
1.44217e+07
1.41953e+07
1.39809e+07
1.37777e+07
1.35852e+07
1.3403e+07
1.32305e+07
1.30672e+07
1.29127e+07
1.27664e+07
1.26279e+07
1.24969e+07
1.23729e+07
1.22555e+07
1.21444e+07
1.20392e+07
1.48926e+07
1.46592e+07
1.44217e+07
1.41954e+07
1.3981e+07
1.37778e+07
1.35854e+07
1.34032e+07
1.32307e+07
1.30674e+07
1.29129e+07
1.27666e+07
1.26282e+07
1.24972e+07
1.23732e+07
1.22558e+07
1.21447e+07
1.20395e+07
9.62737e+06
9.6266e+06
9.62506e+06
9.62272e+06
9.61956e+06
9.61559e+06
9.61078e+06
9.60512e+06
9.5986e+06
9.59121e+06
9.58293e+06
9.57377e+06
9.5637e+06
9.55272e+06
9.54083e+06
9.52802e+06
9.51429e+06
9.49964e+06
9.48407e+06
9.46759e+06
9.45019e+06
9.4319e+06
9.4127e+06
9.3926e+06
9.37161e+06
9.34974e+06
9.32698e+06
9.30336e+06
9.27888e+06
9.25355e+06
9.22737e+06
9.20038e+06
9.17257e+06
9.14397e+06
9.11459e+06
9.08444e+06
9.05353e+06
9.02186e+06
8.98945e+06
8.9563e+06
8.92242e+06
8.88781e+06
8.85249e+06
8.81647e+06
8.77975e+06
8.74234e+06
8.70426e+06
8.66552e+06
8.62613e+06
8.58611e+06
8.54546e+06
8.50421e+06
8.46236e+06
8.41994e+06
8.37694e+06
8.3334e+06
8.28931e+06
8.2447e+06
8.19958e+06
8.15396e+06
8.10785e+06
8.06125e+06
8.0142e+06
7.96668e+06
7.91871e+06
7.87031e+06
7.82147e+06
7.77222e+06
7.72255e+06
7.67249e+06
7.62202e+06
7.57117e+06
7.51994e+06
7.46835e+06
7.41639e+06
7.36407e+06
7.31141e+06
7.25841e+06
7.20507e+06
7.15141e+06
7.09743e+06
7.04314e+06
6.98853e+06
6.93363e+06
6.87843e+06
6.82294e+06
6.76717e+06
6.71112e+06
6.6548e+06
6.59822e+06
6.54138e+06
6.48429e+06
6.42694e+06
6.36936e+06
6.31155e+06
6.2535e+06
6.19522e+06
6.13673e+06
6.07802e+06
6.0191e+06
5.95998e+06
5.90066e+06
5.84115e+06
5.78145e+06
5.72156e+06
5.6615e+06
5.60126e+06
5.54086e+06
5.4803e+06
5.41958e+06
5.35871e+06
5.2977e+06
5.23655e+06
5.17526e+06
5.11385e+06
5.05232e+06
4.99068e+06
4.92892e+06
4.86706e+06
4.80511e+06
4.74306e+06
4.68093e+06
4.61873e+06
4.55645e+06
4.49411e+06
4.43171e+06
4.36926e+06
4.30677e+06
4.24424e+06
4.18168e+06
4.1191e+06
4.05651e+06
3.99391e+06
3.93132e+06
3.86873e+06
3.80617e+06
3.74363e+06
3.68112e+06
3.61866e+06
3.55625e+06
3.49391e+06
3.43164e+06
3.36944e+06
3.30734e+06
3.24534e+06
3.18345e+06
3.12168e+06
3.06004e+06
2.99855e+06
2.9372e+06
2.87602e+06
2.81502e+06
2.7542e+06
2.69358e+06
2.63317e+06
2.57299e+06
2.51304e+06
2.45334e+06
2.39391e+06
2.33475e+06
2.27589e+06
2.21732e+06
2.15908e+06
2.10118e+06
2.04363e+06
1.98645e+06
1.92966e+06
1.87327e+06
1.81731e+06
1.76179e+06
1.70675e+06
1.6522e+06
1.59818e+06
1.54472e+06
1.49187e+06
1.43966e+06
1.38818e+06
1.33753e+06
1.28789e+06
1.23964e+06
9.63086e+06
9.63009e+06
9.62854e+06
9.62618e+06
9.62301e+06
9.61901e+06
9.61417e+06
9.60848e+06
9.60192e+06
9.59449e+06
9.58617e+06
9.57696e+06
9.56684e+06
9.5558e+06
9.54385e+06
9.53098e+06
9.51718e+06
9.50247e+06
9.48683e+06
9.47027e+06
9.4528e+06
9.43443e+06
9.41515e+06
9.39498e+06
9.37391e+06
9.35197e+06
9.32915e+06
9.30546e+06
9.28092e+06
9.25553e+06
9.2293e+06
9.20225e+06
9.17439e+06
9.14572e+06
9.11628e+06
9.08607e+06
9.05509e+06
9.02337e+06
8.99089e+06
8.95768e+06
8.92373e+06
8.88907e+06
8.85369e+06
8.81761e+06
8.78083e+06
8.74338e+06
8.70524e+06
8.66645e+06
8.62702e+06
8.58695e+06
8.54626e+06
8.50496e+06
8.46307e+06
8.4206e+06
8.37757e+06
8.33399e+06
8.28987e+06
8.24523e+06
8.20008e+06
8.15443e+06
8.10829e+06
8.06167e+06
8.01459e+06
7.96705e+06
7.91906e+06
7.87064e+06
7.82179e+06
7.77251e+06
7.72283e+06
7.67275e+06
7.62227e+06
7.5714e+06
7.52016e+06
7.46855e+06
7.41658e+06
7.36425e+06
7.31158e+06
7.25857e+06
7.20522e+06
7.15155e+06
7.09756e+06
7.04326e+06
6.98865e+06
6.93373e+06
6.87853e+06
6.82303e+06
6.76726e+06
6.7112e+06
6.65488e+06
6.59829e+06
6.54144e+06
6.48435e+06
6.427e+06
6.36941e+06
6.31159e+06
6.25354e+06
6.19526e+06
6.13677e+06
6.07806e+06
6.01914e+06
5.96001e+06
5.90069e+06
5.84117e+06
5.78147e+06
5.72158e+06
5.66152e+06
5.60128e+06
5.54088e+06
5.48032e+06
5.4196e+06
5.35873e+06
5.29771e+06
5.23656e+06
5.17527e+06
5.11386e+06
5.05233e+06
4.99068e+06
4.92893e+06
4.86707e+06
4.80511e+06
4.74307e+06
4.68094e+06
4.61873e+06
4.55645e+06
4.49411e+06
4.43171e+06
4.36926e+06
4.30677e+06
4.24424e+06
4.18168e+06
4.11911e+06
4.05651e+06
3.99392e+06
3.93132e+06
3.86874e+06
3.80617e+06
3.74363e+06
3.68112e+06
3.61866e+06
3.55626e+06
3.49391e+06
3.43164e+06
3.36945e+06
3.30734e+06
3.24534e+06
3.18345e+06
3.12168e+06
3.06004e+06
2.99855e+06
2.9372e+06
2.87602e+06
2.81502e+06
2.7542e+06
2.69358e+06
2.63317e+06
2.57299e+06
2.51304e+06
2.45334e+06
2.39391e+06
2.33475e+06
2.27588e+06
2.21732e+06
2.15908e+06
2.10118e+06
2.04363e+06
1.98645e+06
1.92965e+06
1.87326e+06
1.8173e+06
1.76179e+06
1.70674e+06
1.65219e+06
1.59817e+06
1.5447e+06
1.49184e+06
1.43962e+06
1.38812e+06
1.33744e+06
1.28772e+06
1.23925e+06
9.63785e+06
9.63707e+06
9.63549e+06
9.63311e+06
9.6299e+06
9.62585e+06
9.62096e+06
9.61521e+06
9.60858e+06
9.60107e+06
9.59266e+06
9.58335e+06
9.57312e+06
9.56198e+06
9.5499e+06
9.5369e+06
9.52298e+06
9.50812e+06
9.49234e+06
9.47564e+06
9.45802e+06
9.43949e+06
9.42006e+06
9.39974e+06
9.37853e+06
9.35644e+06
9.33348e+06
9.30965e+06
9.28498e+06
9.25946e+06
9.23311e+06
9.20594e+06
9.17796e+06
9.14918e+06
9.11961e+06
9.08927e+06
9.05817e+06
9.02631e+06
8.99371e+06
8.96037e+06
8.92631e+06
8.89153e+06
8.85604e+06
8.81985e+06
8.78297e+06
8.74541e+06
8.70719e+06
8.6683e+06
8.62877e+06
8.58861e+06
8.54783e+06
8.50645e+06
8.46448e+06
8.42193e+06
8.37883e+06
8.33518e+06
8.29099e+06
8.24629e+06
8.20107e+06
8.15537e+06
8.10917e+06
8.06251e+06
8.01537e+06
7.96779e+06
7.91976e+06
7.8713e+06
7.82241e+06
7.7731e+06
7.72338e+06
7.67327e+06
7.62276e+06
7.57186e+06
7.52059e+06
7.46895e+06
7.41696e+06
7.36461e+06
7.31191e+06
7.25888e+06
7.20551e+06
7.15183e+06
7.09782e+06
7.0435e+06
6.98887e+06
6.93395e+06
6.87873e+06
6.82322e+06
6.76743e+06
6.71136e+06
6.65503e+06
6.59843e+06
6.54157e+06
6.48447e+06
6.42711e+06
6.36952e+06
6.31169e+06
6.25363e+06
6.19535e+06
6.13684e+06
6.07813e+06
6.0192e+06
5.96007e+06
5.90075e+06
5.84123e+06
5.78152e+06
5.72163e+06
5.66156e+06
5.60132e+06
5.54091e+06
5.48035e+06
5.41962e+06
5.35875e+06
5.29774e+06
5.23658e+06
5.17529e+06
5.11388e+06
5.05235e+06
4.9907e+06
4.92894e+06
4.86708e+06
4.80512e+06
4.74308e+06
4.68095e+06
4.61874e+06
4.55646e+06
4.49412e+06
4.43172e+06
4.36927e+06
4.30678e+06
4.24425e+06
4.18169e+06
4.11911e+06
4.05652e+06
3.99392e+06
3.93132e+06
3.86874e+06
3.80617e+06
3.74363e+06
3.68113e+06
3.61866e+06
3.55626e+06
3.49391e+06
3.43164e+06
3.36945e+06
3.30734e+06
3.24534e+06
3.18345e+06
3.12168e+06
3.06004e+06
2.99855e+06
2.9372e+06
2.87602e+06
2.81502e+06
2.7542e+06
2.69358e+06
2.63317e+06
2.57299e+06
2.51304e+06
2.45334e+06
2.39391e+06
2.33475e+06
2.27588e+06
2.21732e+06
2.15908e+06
2.10118e+06
2.04362e+06
1.98644e+06
1.92965e+06
1.87326e+06
1.81729e+06
1.76177e+06
1.70672e+06
1.65217e+06
1.59814e+06
1.54466e+06
1.49178e+06
1.43954e+06
1.38801e+06
1.33726e+06
1.28742e+06
1.23863e+06
9.64838e+06
9.64757e+06
9.64597e+06
9.64354e+06
9.64028e+06
9.63617e+06
9.6312e+06
9.62535e+06
9.61861e+06
9.61097e+06
9.60243e+06
9.59297e+06
9.58258e+06
9.57125e+06
9.559e+06
9.5458e+06
9.53167e+06
9.51661e+06
9.50061e+06
9.48369e+06
9.46585e+06
9.4471e+06
9.42745e+06
9.4069e+06
9.38547e+06
9.36316e+06
9.33999e+06
9.31596e+06
9.29108e+06
9.26536e+06
9.23881e+06
9.21144e+06
9.18326e+06
9.15429e+06
9.12453e+06
9.094e+06
9.06271e+06
9.03067e+06
8.99789e+06
8.96437e+06
8.93014e+06
8.89519e+06
8.85954e+06
8.82319e+06
8.78616e+06
8.74845e+06
8.71008e+06
8.67105e+06
8.63138e+06
8.59108e+06
8.55017e+06
8.50867e+06
8.46657e+06
8.42391e+06
8.3807e+06
8.33694e+06
8.29266e+06
8.24786e+06
8.20256e+06
8.15676e+06
8.11049e+06
8.06375e+06
8.01655e+06
7.9689e+06
7.9208e+06
7.87228e+06
7.82333e+06
7.77397e+06
7.72421e+06
7.67404e+06
7.62349e+06
7.57255e+06
7.52124e+06
7.46956e+06
7.41753e+06
7.36514e+06
7.31241e+06
7.25935e+06
7.20595e+06
7.15224e+06
7.0982e+06
7.04386e+06
6.98921e+06
6.93426e+06
6.87902e+06
6.82349e+06
6.76768e+06
6.7116e+06
6.65525e+06
6.59864e+06
6.54177e+06
6.48464e+06
6.42728e+06
6.36967e+06
6.31183e+06
6.25376e+06
6.19547e+06
6.13696e+06
6.07823e+06
6.0193e+06
5.96016e+06
5.90083e+06
5.8413e+06
5.78159e+06
5.72169e+06
5.66162e+06
5.60137e+06
5.54096e+06
5.48039e+06
5.41967e+06
5.35879e+06
5.29777e+06
5.23661e+06
5.17532e+06
5.11391e+06
5.05237e+06
4.99072e+06
4.92896e+06
4.8671e+06
4.80514e+06
4.74309e+06
4.68096e+06
4.61875e+06
4.55647e+06
4.49413e+06
4.43173e+06
4.36928e+06
4.30678e+06
4.24425e+06
4.1817e+06
4.11912e+06
4.05652e+06
3.99392e+06
3.93133e+06
3.86874e+06
3.80617e+06
3.74363e+06
3.68113e+06
3.61867e+06
3.55626e+06
3.49391e+06
3.43164e+06
3.36945e+06
3.30735e+06
3.24534e+06
3.18345e+06
3.12168e+06
3.06004e+06
2.99855e+06
2.9372e+06
2.87602e+06
2.81502e+06
2.7542e+06
2.69358e+06
2.63317e+06
2.57299e+06
2.51304e+06
2.45334e+06
2.39391e+06
2.33475e+06
2.27588e+06
2.21732e+06
2.15908e+06
2.10117e+06
2.04362e+06
1.98643e+06
1.92964e+06
1.87324e+06
1.81727e+06
1.76175e+06
1.70669e+06
1.65213e+06
1.59809e+06
1.5446e+06
1.49169e+06
1.43942e+06
1.38784e+06
1.33701e+06
1.28702e+06
1.23792e+06
9.66252e+06
9.66169e+06
9.66004e+06
9.65756e+06
9.65422e+06
9.65001e+06
9.64493e+06
9.63894e+06
9.63205e+06
9.62424e+06
9.61551e+06
9.60584e+06
9.59523e+06
9.58367e+06
9.57116e+06
9.55769e+06
9.54329e+06
9.52793e+06
9.51165e+06
9.49444e+06
9.4763e+06
9.45725e+06
9.4373e+06
9.41646e+06
9.39474e+06
9.37214e+06
9.34868e+06
9.32436e+06
9.29919e+06
9.27319e+06
9.24636e+06
9.21872e+06
9.19028e+06
9.16104e+06
9.13102e+06
9.10024e+06
9.0687e+06
9.03641e+06
9.0034e+06
8.96965e+06
8.9352e+06
8.90003e+06
8.86417e+06
8.82762e+06
8.79038e+06
8.75248e+06
8.71391e+06
8.67469e+06
8.63484e+06
8.59436e+06
8.55328e+06
8.5116e+06
8.46935e+06
8.42653e+06
8.38317e+06
8.33928e+06
8.29486e+06
8.24994e+06
8.20452e+06
8.15861e+06
8.11223e+06
8.06539e+06
8.0181e+06
7.97036e+06
7.92218e+06
7.87358e+06
7.82456e+06
7.77513e+06
7.7253e+06
7.67507e+06
7.62445e+06
7.57346e+06
7.52209e+06
7.47036e+06
7.41828e+06
7.36585e+06
7.31307e+06
7.25997e+06
7.20653e+06
7.15278e+06
7.09871e+06
7.04433e+06
6.98965e+06
6.93468e+06
6.87941e+06
6.82386e+06
6.76802e+06
6.71192e+06
6.65555e+06
6.59891e+06
6.54202e+06
6.48488e+06
6.4275e+06
6.36988e+06
6.31202e+06
6.25394e+06
6.19563e+06
6.13711e+06
6.07837e+06
6.01943e+06
5.96028e+06
5.90094e+06
5.84141e+06
5.78168e+06
5.72178e+06
5.6617e+06
5.60145e+06
5.54103e+06
5.48045e+06
5.41972e+06
5.35884e+06
5.29782e+06
5.23666e+06
5.17536e+06
5.11394e+06
5.05241e+06
4.99075e+06
4.92899e+06
4.86712e+06
4.80516e+06
4.74311e+06
4.68098e+06
4.61877e+06
4.55649e+06
4.49414e+06
4.43174e+06
4.36929e+06
4.30679e+06
4.24426e+06
4.1817e+06
4.11912e+06
4.05653e+06
3.99393e+06
3.93133e+06
3.86875e+06
3.80618e+06
3.74364e+06
3.68113e+06
3.61867e+06
3.55626e+06
3.49392e+06
3.43164e+06
3.36945e+06
3.30735e+06
3.24535e+06
3.18346e+06
3.12168e+06
3.06005e+06
2.99855e+06
2.9372e+06
2.87602e+06
2.81502e+06
2.7542e+06
2.69358e+06
2.63317e+06
2.57299e+06
2.51304e+06
2.45334e+06
2.39391e+06
2.33475e+06
2.27588e+06
2.21731e+06
2.15907e+06
2.10116e+06
2.04361e+06
1.98642e+06
1.92962e+06
1.87322e+06
1.81725e+06
1.76172e+06
1.70666e+06
1.65208e+06
1.59803e+06
1.54452e+06
1.49158e+06
1.43927e+06
1.38763e+06
1.33671e+06
1.28655e+06
1.23717e+06
9.68038e+06
9.67952e+06
9.67781e+06
9.67524e+06
9.6718e+06
9.66746e+06
9.66222e+06
9.65605e+06
9.64896e+06
9.64093e+06
9.63196e+06
9.62202e+06
9.61112e+06
9.59925e+06
9.58641e+06
9.5726e+06
9.55784e+06
9.54213e+06
9.52548e+06
9.50789e+06
9.48939e+06
9.46996e+06
9.44964e+06
9.42842e+06
9.40632e+06
9.38335e+06
9.35952e+06
9.33483e+06
9.3093e+06
9.28294e+06
9.25576e+06
9.22777e+06
9.19898e+06
9.16941e+06
9.13906e+06
9.10796e+06
9.07611e+06
9.04353e+06
9.01022e+06
8.9762e+06
8.94147e+06
8.90604e+06
8.86992e+06
8.83311e+06
8.79563e+06
8.75748e+06
8.71867e+06
8.67922e+06
8.63913e+06
8.59843e+06
8.55713e+06
8.51525e+06
8.47279e+06
8.42978e+06
8.38624e+06
8.34217e+06
8.29759e+06
8.25251e+06
8.20695e+06
8.1609e+06
8.11439e+06
8.06743e+06
8.02001e+06
7.97217e+06
7.92389e+06
7.87519e+06
7.82608e+06
7.77656e+06
7.72665e+06
7.67634e+06
7.62565e+06
7.57459e+06
7.52315e+06
7.47136e+06
7.41921e+06
7.36672e+06
7.31389e+06
7.26073e+06
7.20725e+06
7.15345e+06
7.09934e+06
7.04492e+06
6.99021e+06
6.93519e+06
6.87989e+06
6.82431e+06
6.76845e+06
6.71231e+06
6.65591e+06
6.59925e+06
6.54234e+06
6.48518e+06
6.42777e+06
6.37013e+06
6.31226e+06
6.25416e+06
6.19584e+06
6.1373e+06
6.07855e+06
6.01959e+06
5.96043e+06
5.90108e+06
5.84153e+06
5.7818e+06
5.72189e+06
5.6618e+06
5.60154e+06
5.54111e+06
5.48053e+06
5.41979e+06
5.35891e+06
5.29788e+06
5.23671e+06
5.17541e+06
5.11399e+06
5.05245e+06
4.99079e+06
4.92902e+06
4.86716e+06
4.80519e+06
4.74314e+06
4.681e+06
4.61879e+06
4.55651e+06
4.49416e+06
4.43176e+06
4.3693e+06
4.30681e+06
4.24427e+06
4.18171e+06
4.11913e+06
4.05654e+06
3.99394e+06
3.93134e+06
3.86875e+06
3.80618e+06
3.74364e+06
3.68114e+06
3.61867e+06
3.55627e+06
3.49392e+06
3.43165e+06
3.36945e+06
3.30735e+06
3.24535e+06
3.18346e+06
3.12169e+06
3.06005e+06
2.99855e+06
2.9372e+06
2.87602e+06
2.81502e+06
2.7542e+06
2.69358e+06
2.63317e+06
2.57299e+06
2.51304e+06
2.45334e+06
2.3939e+06
2.33474e+06
2.27587e+06
2.21731e+06
2.15907e+06
2.10116e+06
2.0436e+06
1.98641e+06
1.9296e+06
1.8732e+06
1.81722e+06
1.76169e+06
1.70661e+06
1.65203e+06
1.59795e+06
1.54442e+06
1.49145e+06
1.4391e+06
1.38739e+06
1.33636e+06
1.28604e+06
1.23641e+06
9.70207e+06
9.70115e+06
9.69936e+06
9.69669e+06
9.6931e+06
9.68859e+06
9.68315e+06
9.67676e+06
9.66942e+06
9.6611e+06
9.65181e+06
9.64154e+06
9.63028e+06
9.61802e+06
9.60478e+06
9.59056e+06
9.57537e+06
9.55922e+06
9.54212e+06
9.52408e+06
9.50511e+06
9.48523e+06
9.46445e+06
9.44277e+06
9.42021e+06
9.39678e+06
9.37249e+06
9.34736e+06
9.32138e+06
9.29458e+06
9.26696e+06
9.23855e+06
9.20934e+06
9.17937e+06
9.14863e+06
9.11715e+06
9.08493e+06
9.05199e+06
9.01834e+06
8.98399e+06
8.94894e+06
8.9132e+06
8.87678e+06
8.83968e+06
8.8019e+06
8.76346e+06
8.72437e+06
8.68464e+06
8.64427e+06
8.6033e+06
8.56173e+06
8.51959e+06
8.4769e+06
8.43366e+06
8.38989e+06
8.34561e+06
8.30084e+06
8.25557e+06
8.20983e+06
8.16363e+06
8.11696e+06
8.06985e+06
8.0223e+06
7.97432e+06
7.92591e+06
7.8771e+06
7.82788e+06
7.77826e+06
7.72825e+06
7.67785e+06
7.62707e+06
7.57592e+06
7.52441e+06
7.47254e+06
7.42032e+06
7.36776e+06
7.31487e+06
7.26165e+06
7.20811e+06
7.15425e+06
7.10009e+06
7.04563e+06
6.99086e+06
6.93581e+06
6.88047e+06
6.82485e+06
6.76895e+06
6.71278e+06
6.65635e+06
6.59966e+06
6.54272e+06
6.48553e+06
6.4281e+06
6.37043e+06
6.31254e+06
6.25442e+06
6.19608e+06
6.13752e+06
6.07875e+06
6.01978e+06
5.96061e+06
5.90124e+06
5.84168e+06
5.78194e+06
5.72202e+06
5.66192e+06
5.60165e+06
5.54121e+06
5.48062e+06
5.41988e+06
5.35898e+06
5.29795e+06
5.23678e+06
5.17547e+06
5.11404e+06
5.0525e+06
4.99083e+06
4.92906e+06
4.86719e+06
4.80523e+06
4.74317e+06
4.68103e+06
4.61882e+06
4.55653e+06
4.49418e+06
4.43178e+06
4.36932e+06
4.30682e+06
4.24429e+06
4.18173e+06
4.11914e+06
4.05655e+06
3.99395e+06
3.93135e+06
3.86876e+06
3.80619e+06
3.74365e+06
3.68114e+06
3.61868e+06
3.55627e+06
3.49392e+06
3.43165e+06
3.36946e+06
3.30735e+06
3.24535e+06
3.18346e+06
3.12169e+06
3.06005e+06
2.99855e+06
2.93721e+06
2.87603e+06
2.81502e+06
2.7542e+06
2.69358e+06
2.63317e+06
2.57299e+06
2.51304e+06
2.45334e+06
2.3939e+06
2.33474e+06
2.27587e+06
2.2173e+06
2.15906e+06
2.10115e+06
2.04359e+06
1.98639e+06
1.92959e+06
1.87318e+06
1.81719e+06
1.76165e+06
1.70656e+06
1.65196e+06
1.59786e+06
1.5443e+06
1.49131e+06
1.4389e+06
1.38712e+06
1.33598e+06
1.28551e+06
1.23567e+06
9.72769e+06
9.72672e+06
9.72483e+06
9.72201e+06
9.71825e+06
9.71352e+06
9.70783e+06
9.70115e+06
9.69349e+06
9.68482e+06
9.67515e+06
9.66446e+06
9.65275e+06
9.64004e+06
9.62631e+06
9.61159e+06
9.59589e+06
9.57921e+06
9.56158e+06
9.543e+06
9.52349e+06
9.50306e+06
9.48173e+06
9.4595e+06
9.43639e+06
9.41241e+06
9.38758e+06
9.36191e+06
9.3354e+06
9.30808e+06
9.27995e+06
9.25104e+06
9.22135e+06
9.1909e+06
9.1597e+06
9.12777e+06
9.09513e+06
9.06178e+06
9.02774e+06
8.99302e+06
8.95761e+06
8.92152e+06
8.88476e+06
8.84732e+06
8.80921e+06
8.77044e+06
8.73101e+06
8.69095e+06
8.65026e+06
8.60896e+06
8.56708e+06
8.52464e+06
8.48165e+06
8.43814e+06
8.39411e+06
8.34959e+06
8.30459e+06
8.25911e+06
8.21317e+06
8.16677e+06
8.11992e+06
8.07264e+06
8.02493e+06
7.9768e+06
7.92825e+06
7.8793e+06
7.82996e+06
7.78022e+06
7.73009e+06
7.67959e+06
7.62871e+06
7.57746e+06
7.52586e+06
7.4739e+06
7.4216e+06
7.36896e+06
7.31599e+06
7.2627e+06
7.20909e+06
7.15518e+06
7.10096e+06
7.04644e+06
6.99162e+06
6.93652e+06
6.88113e+06
6.82546e+06
6.76952e+06
6.71332e+06
6.65685e+06
6.60013e+06
6.54315e+06
6.48593e+06
6.42847e+06
6.37078e+06
6.31286e+06
6.25472e+06
6.19636e+06
6.13778e+06
6.07899e+06
6.02e+06
5.96081e+06
5.90143e+06
5.84186e+06
5.7821e+06
5.72216e+06
5.66205e+06
5.60177e+06
5.54133e+06
5.48073e+06
5.41997e+06
5.35907e+06
5.29803e+06
5.23685e+06
5.17554e+06
5.11411e+06
5.05255e+06
4.99089e+06
4.92911e+06
4.86724e+06
4.80527e+06
4.74321e+06
4.68106e+06
4.61885e+06
4.55656e+06
4.4942e+06
4.4318e+06
4.36934e+06
4.30684e+06
4.2443e+06
4.18174e+06
4.11916e+06
4.05656e+06
3.99396e+06
3.93136e+06
3.86877e+06
3.8062e+06
3.74365e+06
3.68115e+06
3.61868e+06
3.55627e+06
3.49393e+06
3.43165e+06
3.36946e+06
3.30736e+06
3.24535e+06
3.18346e+06
3.12169e+06
3.06005e+06
2.99855e+06
2.93721e+06
2.87603e+06
2.81502e+06
2.7542e+06
2.69358e+06
2.63317e+06
2.57299e+06
2.51304e+06
2.45334e+06
2.3939e+06
2.33474e+06
2.27587e+06
2.2173e+06
2.15905e+06
2.10114e+06
2.04357e+06
1.98638e+06
1.92956e+06
1.87315e+06
1.81716e+06
1.7616e+06
1.7065e+06
1.65188e+06
1.59777e+06
1.54418e+06
1.49114e+06
1.43868e+06
1.38683e+06
1.33559e+06
1.28497e+06
1.23494e+06
9.75744e+06
9.75639e+06
9.75438e+06
9.75138e+06
9.7474e+06
9.74241e+06
9.7364e+06
9.72937e+06
9.72131e+06
9.71221e+06
9.70206e+06
9.69087e+06
9.67864e+06
9.66537e+06
9.65107e+06
9.63576e+06
9.61945e+06
9.60216e+06
9.5839e+06
9.56468e+06
9.54453e+06
9.52345e+06
9.50146e+06
9.47859e+06
9.45483e+06
9.43022e+06
9.40476e+06
9.37846e+06
9.35134e+06
9.32341e+06
9.2947e+06
9.2652e+06
9.23495e+06
9.20396e+06
9.17224e+06
9.13982e+06
9.1067e+06
9.07289e+06
9.03842e+06
9.00327e+06
8.96746e+06
8.93099e+06
8.89385e+06
8.85603e+06
8.81755e+06
8.7784e+06
8.73859e+06
8.69814e+06
8.65707e+06
8.6154e+06
8.57315e+06
8.53036e+06
8.48704e+06
8.44321e+06
8.39889e+06
8.35409e+06
8.30882e+06
8.2631e+06
8.21693e+06
8.17031e+06
8.12326e+06
8.07579e+06
8.0279e+06
7.9796e+06
7.93089e+06
7.88179e+06
7.8323e+06
7.78243e+06
7.73217e+06
7.68154e+06
7.63055e+06
7.5792e+06
7.52749e+06
7.47543e+06
7.42304e+06
7.37031e+06
7.31726e+06
7.26389e+06
7.21021e+06
7.15622e+06
7.10193e+06
7.04735e+06
6.99247e+06
6.93731e+06
6.88187e+06
6.82616e+06
6.77017e+06
6.71392e+06
6.65742e+06
6.60065e+06
6.54364e+06
6.48639e+06
6.4289e+06
6.37118e+06
6.31323e+06
6.25506e+06
6.19667e+06
6.13807e+06
6.07926e+06
6.02025e+06
5.96105e+06
5.90164e+06
5.84205e+06
5.78228e+06
5.72233e+06
5.66221e+06
5.60191e+06
5.54146e+06
5.48085e+06
5.42008e+06
5.35917e+06
5.29812e+06
5.23693e+06
5.17562e+06
5.11418e+06
5.05262e+06
4.99094e+06
4.92916e+06
4.86728e+06
4.80531e+06
4.74325e+06
4.6811e+06
4.61888e+06
4.55659e+06
4.49423e+06
4.43182e+06
4.36936e+06
4.30686e+06
4.24432e+06
4.18176e+06
4.11917e+06
4.05657e+06
3.99397e+06
3.93137e+06
3.86878e+06
3.8062e+06
3.74366e+06
3.68115e+06
3.61869e+06
3.55628e+06
3.49393e+06
3.43166e+06
3.36946e+06
3.30736e+06
3.24536e+06
3.18347e+06
3.12169e+06
3.06005e+06
2.99856e+06
2.93721e+06
2.87603e+06
2.81502e+06
2.7542e+06
2.69358e+06
2.63317e+06
2.57299e+06
2.51304e+06
2.45333e+06
2.3939e+06
2.33473e+06
2.27586e+06
2.21729e+06
2.15904e+06
2.10113e+06
2.04356e+06
1.98636e+06
1.92954e+06
1.87312e+06
1.81712e+06
1.76155e+06
1.70644e+06
1.6518e+06
1.59766e+06
1.54405e+06
1.49097e+06
1.43845e+06
1.38652e+06
1.33519e+06
1.28444e+06
1.23424e+06
9.79154e+06
9.79039e+06
9.78823e+06
9.78503e+06
9.78077e+06
9.77546e+06
9.76907e+06
9.7616e+06
9.75305e+06
9.74342e+06
9.73271e+06
9.72092e+06
9.70805e+06
9.69413e+06
9.67915e+06
9.66314e+06
9.64612e+06
9.6281e+06
9.6091e+06
9.58913e+06
9.56823e+06
9.54639e+06
9.52366e+06
9.50003e+06
9.47554e+06
9.45019e+06
9.424e+06
9.39698e+06
9.36916e+06
9.34055e+06
9.31116e+06
9.28102e+06
9.25014e+06
9.21854e+06
9.18624e+06
9.15325e+06
9.1196e+06
9.08529e+06
9.05033e+06
9.01472e+06
8.97847e+06
8.94156e+06
8.90399e+06
8.86575e+06
8.82684e+06
8.78727e+06
8.74703e+06
8.70616e+06
8.66466e+06
8.62258e+06
8.57992e+06
8.53674e+06
8.49304e+06
8.44886e+06
8.4042e+06
8.35909e+06
8.31353e+06
8.26753e+06
8.2211e+06
8.17424e+06
8.12697e+06
8.07929e+06
8.03119e+06
7.9827e+06
7.93382e+06
7.88455e+06
7.8349e+06
7.78488e+06
7.73448e+06
7.68372e+06
7.63259e+06
7.58112e+06
7.52929e+06
7.47713e+06
7.42463e+06
7.37181e+06
7.31867e+06
7.26521e+06
7.21144e+06
7.15738e+06
7.10302e+06
7.04836e+06
6.99342e+06
6.9382e+06
6.8827e+06
6.82693e+06
6.77089e+06
6.7146e+06
6.65804e+06
6.60124e+06
6.54419e+06
6.4869e+06
6.42937e+06
6.37162e+06
6.31364e+06
6.25544e+06
6.19702e+06
6.1384e+06
6.07956e+06
6.02053e+06
5.9613e+06
5.90188e+06
5.84227e+06
5.78248e+06
5.72252e+06
5.66238e+06
5.60207e+06
5.5416e+06
5.48098e+06
5.4202e+06
5.35928e+06
5.29822e+06
5.23703e+06
5.1757e+06
5.11425e+06
5.05269e+06
4.99101e+06
4.92922e+06
4.86734e+06
4.80536e+06
4.74329e+06
4.68114e+06
4.61891e+06
4.55662e+06
4.49426e+06
4.43185e+06
4.36939e+06
4.30688e+06
4.24434e+06
4.18177e+06
4.11919e+06
4.05659e+06
3.99398e+06
3.93138e+06
3.86879e+06
3.80621e+06
3.74367e+06
3.68116e+06
3.6187e+06
3.55629e+06
3.49394e+06
3.43166e+06
3.36947e+06
3.30737e+06
3.24536e+06
3.18347e+06
3.1217e+06
3.06006e+06
2.99856e+06
2.93721e+06
2.87603e+06
2.81502e+06
2.7542e+06
2.69358e+06
2.63317e+06
2.57299e+06
2.51303e+06
2.45333e+06
2.39389e+06
2.33473e+06
2.27585e+06
2.21728e+06
2.15903e+06
2.10111e+06
2.04354e+06
1.98634e+06
1.92951e+06
1.87309e+06
1.81708e+06
1.7615e+06
1.70637e+06
1.65172e+06
1.59755e+06
1.5439e+06
1.49078e+06
1.43822e+06
1.38621e+06
1.33478e+06
1.28391e+06
1.23358e+06
9.83027e+06
9.82902e+06
9.82667e+06
9.82321e+06
9.81863e+06
9.81292e+06
9.80607e+06
9.79808e+06
9.78895e+06
9.77868e+06
9.76728e+06
9.75477e+06
9.74115e+06
9.72644e+06
9.71066e+06
9.69383e+06
9.67596e+06
9.65708e+06
9.63722e+06
9.61638e+06
9.59461e+06
9.57191e+06
9.5483e+06
9.52382e+06
9.49848e+06
9.47229e+06
9.44528e+06
9.41746e+06
9.38885e+06
9.35946e+06
9.32933e+06
9.29846e+06
9.26688e+06
9.2346e+06
9.20166e+06
9.16805e+06
9.1338e+06
9.09891e+06
9.0634e+06
9.02727e+06
8.9905e+06
8.9531e+06
8.91506e+06
8.87635e+06
8.83697e+06
8.79693e+06
8.75623e+06
8.71489e+06
8.67294e+06
8.6304e+06
8.58732e+06
8.54371e+06
8.4996e+06
8.45503e+06
8.41001e+06
8.36456e+06
8.31868e+06
8.27238e+06
8.22566e+06
8.17855e+06
8.13103e+06
8.08311e+06
8.0348e+06
7.9861e+06
7.93702e+06
7.88757e+06
7.83775e+06
7.78756e+06
7.737e+06
7.68609e+06
7.63483e+06
7.58322e+06
7.53127e+06
7.47899e+06
7.42638e+06
7.37345e+06
7.3202e+06
7.26665e+06
7.2128e+06
7.15864e+06
7.1042e+06
7.04947e+06
6.99446e+06
6.93917e+06
6.8836e+06
6.82777e+06
6.77168e+06
6.71533e+06
6.65873e+06
6.60188e+06
6.54478e+06
6.48745e+06
6.42989e+06
6.37209e+06
6.31408e+06
6.25585e+06
6.1974e+06
6.13875e+06
6.07989e+06
6.02083e+06
5.96158e+06
5.90214e+06
5.84251e+06
5.7827e+06
5.72272e+06
5.66256e+06
5.60224e+06
5.54176e+06
5.48112e+06
5.42034e+06
5.35941e+06
5.29833e+06
5.23713e+06
5.1758e+06
5.11434e+06
5.05277e+06
4.99108e+06
4.92929e+06
4.8674e+06
4.80541e+06
4.74334e+06
4.68118e+06
4.61895e+06
4.55666e+06