/*--------------------------------*- C++ -*----------------------------------*\
  =========                 |
  \\      /  F ield         | OpenFOAM: The Open Source CFD Toolbox
   \\    /   O peration     | Website:  https://openfoam.org
    \\  /    A nd           | Version:  10
     \\/     M anipulation  |
\*---------------------------------------------------------------------------*/
FoamFile
{
    format      ascii;
    class       volSymmTensorField;
    location    "0.028";
    object      UPrime2Mean;
}
// * * * * * * * * * * * * * * * * * * * * * * * * * * * * * * * * * * * * * //

dimensions      [0 2 -2 0 0 0 0];

internalField   nonuniform List<symmTensor> 
12225
(
(0.0559769 0.0012285 0 0.00230362 0 0)
(0.0158962 2.39053e-05 0 0.00111514 0 0)
(0.0222822 -0.000640011 0 0.000790371 0 0)
(0.025976 -0.000993116 0 0.000641017 0 0)
(0.0377423 -0.0016069 0 0.000561067 0 0)
(0.0615533 -0.00255022 0 0.000530687 0 0)
(0.0987945 -0.00392951 0 0.00053186 0 0)
(0.149955 -0.00519279 0 0.000476752 0 0)
(0.220096 -0.00796586 0 0.000599829 0 0)
(0.309734 -0.00824337 0 0.000470665 0 0)
(0.436604 -0.0161283 0 0.000873957 0 0)
(0.588095 -0.0107554 0 0.000520758 0 0)
(0.825836 -0.0375798 0 0.00213287 0 0)
(1.08586 -0.00661077 0 0.00116098 0 0)
(1.57326 -0.107097 0 0.00957362 0 0)
(2.11047 0.033048 0 0.00786897 0 0)
(3.33569 -0.428667 0 0.0813634 0 0)
(5.20427 0.0946031 0 0.0331369 0 0)
(0.0544971 0.00102599 0 0.00264218 0 0)
(0.0153378 0.000460096 0 0.00129382 0 0)
(0.0154417 -0.000165775 0 0.000849469 0 0)
(0.0132269 -0.000326221 0 0.00072602 0 0)
(0.0129407 -0.00054739 0 0.000715346 0 0)
(0.0147543 -0.00116113 0 0.000816058 0 0)
(0.0184021 -0.00201805 0 0.000925251 0 0)
(0.0254181 -0.0036535 0 0.00121822 0 0)
(0.0359908 -0.00529224 0 0.00134317 0 0)
(0.0553441 -0.00907132 0 0.0020955 0 0)
(0.0805294 -0.0115593 0 0.00216191 0 0)
(0.12889 -0.0211989 0 0.00410773 0 0)
(0.184332 -0.0244665 0 0.00394939 0 0)
(0.304737 -0.0517356 0 0.00974279 0 0)
(0.426326 -0.0562247 0 0.00910119 0 0)
(0.756505 -0.148548 0 0.0320022 0 0)
(1.05904 -0.202331 0 0.0408841 0 0)
(1.961 -0.653571 0 0.247902 0 0)
(0.0651174 0.00166408 0 0.00317177 0 0)
(0.0189489 0.000861119 0 0.00167421 0 0)
(0.0168246 -8.11885e-05 0 0.00114378 0 0)
(0.0144506 -0.000467563 0 0.0010105 0 0)
(0.0146239 -0.000775647 0 0.00105965 0 0)
(0.0164406 -0.00128866 0 0.00119126 0 0)
(0.0197023 -0.00229108 0 0.00146742 0 0)
(0.024667 -0.00368309 0 0.0017331 0 0)
(0.0324691 -0.00608981 0 0.00244364 0 0)
(0.0437437 -0.00863494 0 0.00290438 0 0)
(0.0617286 -0.0143321 0 0.0046929 0 0)
(0.0869955 -0.0191286 0 0.0054798 0 0)
(0.128516 -0.0339594 0 0.0104135 0 0)
(0.186437 -0.0440625 0 0.0119852 0 0)
(0.28633 -0.0876553 0 0.0287544 0 0)
(0.428172 -0.125154 0 0.0385812 0 0)
(0.658922 -0.275438 0 0.123146 0 0)
(0.947143 -0.520041 0 0.311478 0 0)
(0.0560977 -1.35096e-05 0 0.00329967 0 0)
(0.0148977 -0.00030213 0 0.00193693 0 0)
(0.015362 -0.000976738 0 0.00142403 0 0)
(0.0132828 -0.00119152 0 0.00130945 0 0)
(0.013015 -0.00148031 0 0.00141222 0 0)
(0.0144987 -0.00223356 0 0.00168574 0 0)
(0.0176325 -0.0034628 0 0.00208408 0 0)
(0.0227184 -0.00536033 0 0.00276615 0 0)
(0.0302494 -0.00788936 0 0.00357609 0 0)
(0.0416305 -0.011973 0 0.00504915 0 0)
(0.0581633 -0.0173864 0 0.00678622 0 0)
(0.0832678 -0.0266589 0 0.0101793 0 0)
(0.119738 -0.0393219 0 0.0145862 0 0)
(0.174857 -0.062099 0 0.0237883 0 0)
(0.255933 -0.0975988 0 0.0391679 0 0)
(0.372473 -0.162617 0 0.0739164 0 0)
(0.531613 -0.284943 0 0.159941 0 0)
(0.698143 -0.467897 0 0.336838 0 0)
(0.060657 0.00220377 0 0.00406864 0 0)
(0.0187406 0.000659749 0 0.00246464 0 0)
(0.0184371 -0.000265234 0 0.00182213 0 0)
(0.0152055 -0.000562649 0 0.00169761 0 0)
(0.0140862 -0.000900311 0 0.00186655 0 0)
(0.0150103 -0.00177787 0 0.00226733 0 0)
(0.0176567 -0.00337947 0 0.00291476 0 0)
(0.0223393 -0.00570351 0 0.00377198 0 0)
(0.0298535 -0.00909045 0 0.00514181 0 0)
(0.0412509 -0.0137405 0 0.00698372 0 0)
(0.0580908 -0.0209378 0 0.010065 0 0)
(0.0823953 -0.0311944 0 0.0144378 0 0)
(0.11742 -0.0476807 0 0.0221259 0 0)
(0.166821 -0.0725258 0 0.0344724 0 0)
(0.236736 -0.113484 0 0.0578862 0 0)
(0.328247 -0.18095 0 0.104538 0 0)
(0.441462 -0.286048 0 0.194893 0 0)
(0.541947 -0.441099 0 0.395496 0 0)
(0.0569869 -0.000393227 0 0.00494508 0 0)
(0.0151697 -0.000195856 0 0.00318493 0 0)
(0.0157264 -0.00133003 0 0.00229408 0 0)
(0.0129852 -0.00161591 0 0.00217202 0 0)
(0.0120123 -0.00200614 0 0.00242468 0 0)
(0.0130864 -0.00305454 0 0.00301257 0 0)
(0.015875 -0.00487878 0 0.00394268 0 0)
(0.0204781 -0.00757386 0 0.00529438 0 0)
(0.0275495 -0.0114324 0 0.00722542 0 0)
(0.0380922 -0.0169838 0 0.01004 0 0)
(0.0535898 -0.0251237 0 0.0142597 0 0)
(0.0756185 -0.0370607 0 0.0207176 0 0)
(0.106792 -0.0551274 0 0.031139 0 0)
(0.149042 -0.0822528 0 0.0483119 0 0)
(0.206013 -0.124525 0 0.0787457 0 0)
(0.275042 -0.187762 0 0.133389 0 0)
(0.352503 -0.279928 0 0.234109 0 0)
(0.414618 -0.396493 0 0.414117 0 0)
(0.0592074 0.00133155 0 0.00442527 0 0)
(0.0187075 0.000248374 0 0.00356043 0 0)
(0.020442 -0.000461926 0 0.00279365 0 0)
(0.0183044 -0.000808232 0 0.00272705 0 0)
(0.0177383 -0.00152095 0 0.00310559 0 0)
(0.0192049 -0.00292471 0 0.00388546 0 0)
(0.0223437 -0.00518874 0 0.00512032 0 0)
(0.0271153 -0.00846468 0 0.00691355 0 0)
(0.0340508 -0.0130322 0 0.00950223 0 0)
(0.0439632 -0.019399 0 0.0132888 0 0)
(0.0580661 -0.0284835 0 0.0189021 0 0)
(0.0775983 -0.0416477 0 0.027523 0 0)
(0.104449 -0.0608883 0 0.0409509 0 0)
(0.139446 -0.0891062 0 0.0629284 0 0)
(0.183983 -0.129981 0 0.098991 0 0)
(0.233963 -0.187548 0 0.160775 0 0)
(0.285291 -0.263196 0 0.261659 0 0)
(0.321635 -0.34916 0 0.423416 0 0)
(0.0560254 0.00174186 0 0.00601527 0 0)
(0.0119831 0.000621073 0 0.00398847 0 0)
(0.0132556 -0.000569708 0 0.00321676 0 0)
(0.0119062 -0.00109915 0 0.00349606 0 0)
(0.0120212 -0.00185386 0 0.00417282 0 0)
(0.0138972 -0.00333646 0 0.00525729 0 0)
(0.0172654 -0.00574269 0 0.00688326 0 0)
(0.0219731 -0.00917575 0 0.00921663 0 0)
(0.0283289 -0.0139319 0 0.0125629 0 0)
(0.0370094 -0.020578 0 0.0174385 0 0)
(0.0490684 -0.0300387 0 0.0246432 0 0)
(0.0654768 -0.0435368 0 0.0355333 0 0)
(0.0874103 -0.0628019 0 0.0521567 0 0)
(0.11492 -0.0899422 0 0.0782655 0 0)
(0.148045 -0.127325 0 0.119096 0 0)
(0.182918 -0.176423 0 0.184049 0 0)
(0.215908 -0.235965 0 0.282141 0 0)
(0.237008 -0.298189 0 0.427277 0 0)
(0.0627099 0.00112728 0 0.00573034 0 0)
(0.0198285 -0.00069976 0 0.00427057 0 0)
(0.0206158 -0.00217391 0 0.00365098 0 0)
(0.018127 -0.00265771 0 0.00386233 0 0)
(0.0173279 -0.00330897 0 0.00461618 0 0)
(0.0185277 -0.00479574 0 0.0059132 0 0)
(0.0213858 -0.00731278 0 0.00791855 0 0)
(0.025668 -0.0109723 0 0.0108628 0 0)
(0.0315374 -0.0160688 0 0.0150873 0 0)
(0.0394204 -0.0231235 0 0.0211899 0 0)
(0.0499629 -0.0329275 0 0.0300641 0 0)
(0.063625 -0.0465221 0 0.0432312 0 0)
(0.0809565 -0.0652296 0 0.0628113 0 0)
(0.101458 -0.0904141 0 0.0924304 0 0)
(0.124629 -0.123264 0 0.136595 0 0)
(0.147138 -0.163563 0 0.202579 0 0)
(0.166663 -0.20912 0 0.296094 0 0)
(0.17724 -0.252906 0 0.425038 0 0)
(0.0609843 0.0032719 0 0.00610738 0 0)
(0.015705 -0.000709181 0 0.00446874 0 0)
(0.0153332 -0.00198049 0 0.00427144 0 0)
(0.0132146 -0.00204311 0 0.00492569 0 0)
(0.0128667 -0.00250079 0 0.00599715 0 0)
(0.0141423 -0.00403099 0 0.00764542 0 0)
(0.0167728 -0.00669871 0 0.0101354 0 0)
(0.020527 -0.010456 0 0.0137557 0 0)
(0.0254759 -0.0154978 0 0.018888 0 0)
(0.0319311 -0.0223173 0 0.0261809 0 0)
(0.0403792 -0.0316725 0 0.0365986 0 0)
(0.0510801 -0.0444324 0 0.0517262 0 0)
(0.0641761 -0.0615279 0 0.073632 0 0)
(0.0788862 -0.0836172 0 0.105593 0 0)
(0.0943386 -0.111002 0 0.151219 0 0)
(0.107956 -0.142474 0 0.215951 0 0)
(0.118299 -0.175655 0 0.302928 0 0)
(0.122177 -0.204618 0 0.416946 0 0)
(0.0518208 0.00239893 0 0.00649399 0 0)
(0.0127112 -0.00131423 0 0.00572527 0 0)
(0.0134215 -0.00341594 0 0.00498259 0 0)
(0.011189 -0.00375304 0 0.00536308 0 0)
(0.010462 -0.00424592 0 0.00665905 0 0)
(0.0113104 -0.00578372 0 0.00878892 0 0)
(0.0133883 -0.008454 0 0.0118557 0 0)
(0.0163702 -0.0121947 0 0.0161707 0 0)
(0.0202394 -0.0171947 0 0.0222262 0 0)
(0.0252298 -0.0238997 0 0.0307786 0 0)
(0.0317125 -0.0329105 0 0.0428405 0 0)
(0.0398049 -0.0448171 0 0.0599311 0 0)
(0.0493987 -0.0601319 0 0.0839067 0 0)
(0.0596621 -0.0789879 0 0.117528 0 0)
(0.0697027 -0.101078 0 0.163485 0 0)
(0.0777142 -0.124875 0 0.225674 0 0)
(0.0828798 -0.148121 0 0.305505 0 0)
(0.0837513 -0.166336 0 0.405991 0 0)
(0.0618074 0.00305776 0 0.00647258 0 0)
(0.0174032 -0.00105224 0 0.00642486 0 0)
(0.0170975 -0.00259325 0 0.00590957 0 0)
(0.0144005 -0.00245612 0 0.00628464 0 0)
(0.0131468 -0.00270077 0 0.00766672 0 0)
(0.0134705 -0.00409077 0 0.010075 0 0)
(0.0148976 -0.00651607 0 0.0135968 0 0)
(0.0169327 -0.00981247 0 0.0185319 0 0)
(0.0194483 -0.0141139 0 0.0253801 0 0)
(0.0225723 -0.0197777 0 0.0349009 0 0)
(0.0264948 -0.0272645 0 0.0480837 0 0)
(0.0311947 -0.0369137 0 0.0663496 0 0)
(0.0364965 -0.0489255 0 0.0913385 0 0)
(0.0417286 -0.0630519 0 0.12535 0 0)
(0.0463957 -0.0787273 0 0.170328 0 0)
(0.0494077 -0.0943362 0 0.229065 0 0)
(0.0505969 -0.108038 0 0.301902 0 0)
(0.0493966 -0.116341 0 0.390886 0 0)
(0.0536061 0.00216575 0 0.00738807 0 0)
(0.0152959 -0.00250885 0 0.00639959 0 0)
(0.0161167 -0.004023 0 0.0057581 0 0)
(0.0138093 -0.00397918 0 0.00665396 0 0)
(0.013023 -0.00432328 0 0.00862528 0 0)
(0.0134705 -0.00572013 0 0.0115198 0 0)
(0.0145117 -0.00806344 0 0.0155097 0 0)
(0.0158337 -0.0112163 0 0.0210035 0 0)
(0.0174988 -0.0153188 0 0.0285658 0 0)
(0.0196924 -0.0206701 0 0.0389667 0 0)
(0.0225771 -0.0275948 0 0.0531358 0 0)
(0.0260684 -0.0361992 0 0.0723466 0 0)
(0.0299435 -0.0464516 0 0.0979516 0 0)
(0.0335527 -0.0578093 0 0.131793 0 0)
(0.036409 -0.0695832 0 0.175189 0 0)
(0.0377619 -0.080143 0 0.230161 0 0)
(0.0376869 -0.0881628 0 0.296373 0 0)
(0.0360279 -0.0906095 0 0.375429 0 0)
(0.0566014 0.00222868 0 0.00914695 0 0)
(0.0154684 -0.000580383 0 0.00811527 0 0)
(0.015397 -0.00163806 0 0.00787113 0 0)
(0.0132222 -0.00110138 0 0.00891566 0 0)
(0.0121043 -0.000877389 0 0.0108555 0 0)
(0.0117944 -0.00163352 0 0.0139075 0 0)
(0.0120089 -0.00335352 0 0.0183173 0 0)
(0.012577 -0.00580709 0 0.0244341 0 0)
(0.0134918 -0.00894963 0 0.0327607 0 0)
(0.0147556 -0.0129218 0 0.0439818 0 0)
(0.0163323 -0.0179333 0 0.0588716 0 0)
(0.0180464 -0.0239616 0 0.0784659 0 0)
(0.0197229 -0.0308064 0 0.103791 0 0)
(0.020977 -0.0377929 0 0.136288 0 0)
(0.0216324 -0.0441748 0 0.17674 0 0)
(0.021432 -0.0485552 0 0.226606 0 0)
(0.0206134 -0.0499714 0 0.285038 0 0)
(0.0195948 -0.0462307 0 0.353355 0 0)
(0.0574558 0.00373385 0 0.00935129 0 0)
(0.0139052 -0.000737335 0 0.00853253 0 0)
(0.0139839 -0.0030151 0 0.00774536 0 0)
(0.0124348 -0.00277537 0 0.00904539 0 0)
(0.0118754 -0.00264772 0 0.0116585 0 0)
(0.0116958 -0.00350931 0 0.0153993 0 0)
(0.011688 -0.00521389 0 0.0204409 0 0)
(0.0117654 -0.00738843 0 0.0271646 0 0)
(0.0119754 -0.00992359 0 0.0360953 0 0)
(0.0123948 -0.0128898 0 0.0478899 0 0)
(0.0130375 -0.0163532 0 0.0632173 0 0)
(0.0137575 -0.0201517 0 0.0828984 0 0)
(0.0143792 -0.0239966 0 0.107599 0 0)
(0.01464 -0.02723 0 0.138261 0 0)
(0.0144785 -0.0292708 0 0.175143 0 0)
(0.0139959 -0.0289471 0 0.219195 0 0)
(0.0135634 -0.0257398 0 0.269354 0 0)
(0.0137772 -0.0178938 0 0.3268 0 0)
(0.0600823 0.00330328 0 0.0109486 0 0)
(0.0147955 -0.000653621 0 0.0112584 0 0)
(0.0135352 -0.00256459 0 0.0108987 0 0)
(0.0110409 -0.00203626 0 0.011983 0 0)
(0.00990346 -0.00143513 0 0.0144086 0 0)
(0.00915207 -0.00160823 0 0.0180309 0 0)
(0.00853458 -0.00247619 0 0.0230021 0 0)
(0.00810783 -0.00370717 0 0.0297316 0 0)
(0.00789916 -0.00508437 0 0.0387015 0 0)
(0.00783007 -0.0064887 0 0.0504274 0 0)
(0.00779351 -0.00779175 0 0.0653645 0 0)
(0.00770144 -0.00869001 0 0.0840534 0 0)
(0.00754771 -0.00884713 0 0.106855 0 0)
(0.00739596 -0.00768979 0 0.134358 0 0)
(0.00737906 -0.00484968 0 0.166472 0 0)
(0.00781029 0.000487269 0 0.203853 0 0)
(0.00896711 0.00847538 0 0.245326 0 0)
(0.011553 0.0203689 0 0.291914 0 0)
(0.0581894 0.00373421 0 0.012508 0 0)
(0.0178074 -0.000879053 0 0.0124156 0 0)
(0.0167545 -0.00299691 0 0.0104784 0 0)
(0.0138064 -0.00274067 0 0.0110919 0 0)
(0.0124993 -0.00231248 0 0.013702 0 0)
(0.0118197 -0.00249526 0 0.0178227 0 0)
(0.0113282 -0.00313102 0 0.0232897 0 0)
(0.0109944 -0.0037747 0 0.0302481 0 0)
(0.0108339 -0.00413069 0 0.0390457 0 0)
(0.0107602 -0.00406574 0 0.0501307 0 0)
(0.0106758 -0.00350282 0 0.063864 0 0)
(0.0106043 -0.00220865 0 0.0806268 0 0)
(0.0106682 7.26181e-05 0 0.100544 0 0)
(0.0110944 0.00384783 0 0.12393 0 0)
(0.0120578 0.00935916 0 0.150457 0 0)
(0.0139532 0.0172962 0 0.180549 0 0)
(0.0169159 0.0275313 0 0.213027 0 0)
(0.0216246 0.0411545 0 0.248922 0 0)
(0.0575852 0.0035026 0 0.0127639 0 0)
(0.01447 -0.00177641 0 0.0133698 0 0)
(0.0146754 -0.00500145 0 0.0122985 0 0)
(0.012915 -0.00480393 0 0.0130392 0 0)
(0.011931 -0.00402055 0 0.0153838 0 0)
(0.0108635 -0.00367685 0 0.0189142 0 0)
(0.00979209 -0.00371528 0 0.0235052 0 0)
(0.00907315 -0.00375325 0 0.029387 0 0)
(0.00882926 -0.00343328 0 0.0369001 0 0)
(0.00892397 -0.00249543 0 0.046352 0 0)
(0.00919806 -0.000734637 0 0.0578873 0 0)
(0.00966718 0.00211723 0 0.0716166 0 0)
(0.010474 0.00630334 0 0.0874445 0 0)
(0.0119055 0.0121451 0 0.105467 0 0)
(0.0141464 0.0197336 0 0.125309 0 0)
(0.0176285 0.0293741 0 0.147311 0 0)
(0.0224036 0.0408778 0 0.170592 0 0)
(0.0291248 0.054754 0 0.195954 0 0)
(0.0587623 0.00350548 0 0.0121859 0 0)
(0.0178263 -0.000101395 0 0.0120514 0 0)
(0.0180722 -0.00213812 0 0.0101055 0 0)
(0.0141006 -0.00181881 0 0.010527 0 0)
(0.0118641 -0.00078947 0 0.0125028 0 0)
(0.0107705 0.000149748 0 0.0154797 0 0)
(0.0103222 0.00102846 0 0.0194216 0 0)
(0.0104277 0.00225424 0 0.0244009 0 0)
(0.0110532 0.00418913 0 0.030441 0 0)
(0.0120687 0.00704298 0 0.0375766 0 0)
(0.013411 0.0109131 0 0.0458613 0 0)
(0.0152584 0.015901 0 0.0554524 0 0)
(0.0178804 0.0220647 0 0.0663951 0 0)
(0.0216175 0.0295535 0 0.0788185 0 0)
(0.0266346 0.0383658 0 0.0924504 0 0)
(0.0332636 0.0486997 0 0.107461 0 0)
(0.0414771 0.060352 0 0.123154 0 0)
(0.0516914 0.0736779 0 0.14005 0 0)
(0.0568877 0.00385923 0 0.011975 0 0)
(0.014485 -0.00159822 0 0.0122489 0 0)
(0.0122403 -0.00348723 0 0.010026 0 0)
(0.00952344 -0.00217482 0 0.00966504 0 0)
(0.00872121 -0.000355998 0 0.0108178 0 0)
(0.00833788 0.00104708 0 0.012952 0 0)
(0.00808621 0.0022519 0 0.0157931 0 0)
(0.00826133 0.00382938 0 0.019212 0 0)
(0.0090869 0.00613348 0 0.0232261 0 0)
(0.0106079 0.00923334 0 0.0279641 0 0)
(0.012836 0.0131015 0 0.0335151 0 0)
(0.0158919 0.0177837 0 0.0399389 0 0)
(0.0199578 0.0233558 0 0.0471784 0 0)
(0.0252586 0.0299639 0 0.055246 0 0)
(0.0319199 0.0376273 0 0.0639275 0 0)
(0.0401541 0.0464733 0 0.0733395 0 0)
(0.0499292 0.0563275 0 0.0830506 0 0)
(0.0615039 0.0674018 0 0.0933804 0 0)
(0.0545724 0.00328049 0 0.0105679 0 0)
(0.0145678 0.000655185 0 0.0101713 0 0)
(0.0135385 -3.34122e-05 0 0.00813582 0 0)
(0.0108489 0.00136805 0 0.007654 0 0)
(0.0103592 0.00296547 0 0.00827606 0 0)
(0.0107533 0.00442247 0 0.00971478 0 0)
(0.0115957 0.00594796 0 0.0117799 0 0)
(0.0129712 0.00784437 0 0.014338 0 0)
(0.0149789 0.0103276 0 0.0173369 0 0)
(0.0176417 0.0134809 0 0.0208001 0 0)
(0.021038 0.0173133 0 0.0247399 0 0)
(0.0253657 0.0218622 0 0.0291754 0 0)
(0.0308589 0.0271862 0 0.0340694 0 0)
(0.0377223 0.0333842 0 0.0394434 0 0)
(0.0460444 0.0404638 0 0.0451894 0 0)
(0.0559702 0.0484864 0 0.0514072 0 0)
(0.0674818 0.0573183 0 0.057824 0 0)
(0.080674 0.0670328 0 0.0646361 0 0)
(0.057021 0.00154297 0 0.0116025 0 0)
(0.0156223 0.000314049 0 0.00934235 0 0)
(0.0146752 0.000153608 0 0.00683507 0 0)
(0.0128646 0.0011757 0 0.00641833 0 0)
(0.0128176 0.00229742 0 0.00690081 0 0)
(0.0134685 0.00343575 0 0.00787564 0 0)
(0.0146431 0.00487103 0 0.0092253 0 0)
(0.016462 0.00686412 0 0.0109259 0 0)
(0.0190588 0.00949212 0 0.0129555 0 0)
(0.0225188 0.0127086 0 0.0152774 0 0)
(0.0269261 0.0164528 0 0.0178605 0 0)
(0.0324536 0.0207333 0 0.0207123 0 0)
(0.0392754 0.0255904 0 0.0238404 0 0)
(0.0475781 0.0311262 0 0.0272952 0 0)
(0.0574395 0.0373438 0 0.0310142 0 0)
(0.0690439 0.0443099 0 0.035069 0 0)
(0.0823365 0.051882 0 0.0392662 0 0)
(0.0974716 0.0601555 0 0.043704 0 0)
(0.0662193 0.00222732 0 0.00952551 0 0)
(0.0201756 0.000259354 0 0.00688353 0 0)
(0.0166751 -0.000537645 0 0.00461732 0 0)
(0.0144818 0.000120402 0 0.00418558 0 0)
(0.0146056 0.00115044 0 0.0045927 0 0)
(0.0152083 0.00220636 0 0.00535656 0 0)
(0.0160132 0.00339805 0 0.00628715 0 0)
(0.0173736 0.00494784 0 0.00736761 0 0)
(0.0196283 0.00696963 0 0.00864072 0 0)
(0.0229006 0.00947317 0 0.0101378 0 0)
(0.0271691 0.0124235 0 0.0118504 0 0)
(0.0324561 0.0158004 0 0.0137519 0 0)
(0.0388538 0.0195824 0 0.0157879 0 0)
(0.0465601 0.0238029 0 0.017955 0 0)
(0.0556836 0.0284509 0 0.0202181 0 0)
(0.0664602 0.0336061 0 0.0226627 0 0)
(0.0788555 0.0392106 0 0.0251965 0 0)
(0.0930132 0.0453817 0 0.0279212 0 0)
(0.0656109 0.00144699 0 0.00826916 0 0)
(0.0201092 -9.26687e-05 0 0.00634887 0 0)
(0.0175221 1.27951e-05 0 0.00459964 0 0)
(0.0158105 0.00106307 0 0.004151 0 0)
(0.0157328 0.00203006 0 0.00438327 0 0)
(0.015867 0.00296021 0 0.00482188 0 0)
(0.0165251 0.00406693 0 0.00533516 0 0)
(0.0182961 0.00555438 0 0.00594865 0 0)
(0.0215008 0.00748354 0 0.00668961 0 0)
(0.026132 0.0098106 0 0.00757187 0 0)
(0.0320164 0.0124622 0 0.00859283 0 0)
(0.0390437 0.0153981 0 0.00975134 0 0)
(0.0471964 0.0186079 0 0.011039 0 0)
(0.0565436 0.0221314 0 0.0124597 0 0)
(0.0670954 0.025981 0 0.0139714 0 0)
(0.0789888 0.0302148 0 0.0156015 0 0)
(0.0922334 0.0347882 0 0.0172724 0 0)
(0.106905 0.0397528 0 0.0189895 0 0)
(0.0547011 0.00175419 0 0.00703894 0 0)
(0.0149535 -0.00037425 0 0.0050401 0 0)
(0.014479 -0.00124404 0 0.00347511 0 0)
(0.0131799 -0.000828068 0 0.00306527 0 0)
(0.0128922 9.25927e-07 0 0.00310003 0 0)
(0.0126472 0.0007879 0 0.00330655 0 0)
(0.0129693 0.00145708 0 0.00361232 0 0)
(0.0144489 0.00224112 0 0.00399428 0 0)
(0.0173258 0.00334685 0 0.00444471 0 0)
(0.0215624 0.00484218 0 0.00496841 0 0)
(0.0270127 0.00670244 0 0.00556923 0 0)
(0.0336032 0.0088894 0 0.00624887 0 0)
(0.0413504 0.0113666 0 0.00699912 0 0)
(0.0503489 0.0141289 0 0.00781823 0 0)
(0.0606421 0.0171556 0 0.0086776 0 0)
(0.0723686 0.0204646 0 0.00960422 0 0)
(0.0855204 0.0240028 0 0.0105495 0 0)
(0.10017 0.0278137 0 0.0115383 0 0)
(0.0545121 -0.000969924 0 0.00654697 0 0)
(0.0151339 -0.000381307 0 0.00469208 0 0)
(0.0139837 -0.000127202 0 0.00295781 0 0)
(0.0120097 0.000133025 0 0.00227587 0 0)
(0.0120708 0.000412557 0 0.00207434 0 0)
(0.0129578 0.000743107 0 0.00208278 0 0)
(0.0145892 0.00118513 0 0.00220624 0 0)
(0.0170459 0.00184144 0 0.00239338 0 0)
(0.0203861 0.00278286 0 0.00261121 0 0)
(0.0246751 0.00402468 0 0.00285374 0 0)
(0.0299934 0.00554409 0 0.00313469 0 0)
(0.0364852 0.00731022 0 0.0034664 0 0)
(0.0443025 0.00928369 0 0.00384963 0 0)
(0.0535775 0.0114464 0 0.00428347 0 0)
(0.064337 0.0137707 0 0.00474993 0 0)
(0.0766424 0.0162655 0 0.00526337 0 0)
(0.0904175 0.0189015 0 0.00579386 0 0)
(0.10566 0.021721 0 0.00634071 0 0)
(0.0554158 1.56155e-05 0 0.00539857 0 0)
(0.0118491 -0.000580968 0 0.00339824 0 0)
(0.0110439 -0.000142247 0 0.00226527 0 0)
(0.0110246 0.000190268 0 0.00188989 0 0)
(0.0123861 0.000419742 0 0.0018097 0 0)
(0.0132222 0.000654715 0 0.00180448 0 0)
(0.0139304 0.000967559 0 0.00180715 0 0)
(0.015354 0.00142956 0 0.00181171 0 0)
(0.0180278 0.0020814 0 0.00183063 0 0)
(0.0221186 0.00292379 0 0.00188369 0 0)
(0.0275882 0.00394491 0 0.00198631 0 0)
(0.0343897 0.00513185 0 0.00213894 0 0)
(0.0425342 0.00646261 0 0.00233095 0 0)
(0.0520937 0.0079254 0 0.00255593 0 0)
(0.0630681 0.00950017 0 0.00280432 0 0)
(0.0755061 0.0111996 0 0.00308399 0 0)
(0.0893542 0.0130008 0 0.00337541 0 0)
(0.104548 0.0149329 0 0.00366974 0 0)
(0.057824 -0.000864253 0 0.00427858 0 0)
(0.0170325 4.77652e-05 0 0.00233105 0 0)
(0.0157566 -0.000126321 0 0.00155155 0 0)
(0.0142559 -0.000194512 0 0.00124691 0 0)
(0.0148007 -7.94419e-05 0 0.00111156 0 0)
(0.0159221 8.73646e-05 0 0.00105059 0 0)
(0.0175683 0.000238037 0 0.00102154 0 0)
(0.0198876 0.000413425 0 0.00101102 0 0)
(0.0229743 0.000677552 0 0.00100989 0 0)
(0.0269525 0.00107081 0 0.00101596 0 0)
(0.0320175 0.00161968 0 0.00103264 0 0)
(0.0383982 0.0023296 0 0.00106353 0 0)
(0.0462866 0.00318069 0 0.00111105 0 0)
(0.0558001 0.00414814 0 0.0011767 0 0)
(0.0669172 0.00520908 0 0.00125736 0 0)
(0.079648 0.00635557 0 0.00135809 0 0)
(0.0939323 0.00757928 0 0.00147159 0 0)
(0.109643 0.00888129 0 0.00159223 0 0)
(0.0532958 -0.00071209 0 0.00373533 0 0)
(0.0127886 5.89284e-05 0 0.00162427 0 0)
(0.012953 0.000127451 0 0.00110613 0 0)
(0.0123258 -0.000157608 0 0.00095719 0 0)
(0.0124992 -0.000469319 0 0.000897057 0 0)
(0.0125442 -0.000619718 0 0.000859015 0 0)
(0.0132306 -0.000572174 0 0.000834532 0 0)
(0.0151684 -0.000391951 0 0.000823001 0 0)
(0.0184507 -0.000159316 0 0.00081967 0 0)
(0.0229342 8.01168e-05 0 0.00082114 0 0)
(0.0284668 0.000321493 0 0.000827486 0 0)
(0.0350477 0.000580628 0 0.000840337 0 0)
(0.0427549 0.000875752 0 0.000862204 0 0)
(0.0517714 0.00121581 0 0.000893354 0 0)
(0.0621237 0.00160718 0 0.000927253 0 0)
(0.0739886 0.00206168 0 0.000971324 0 0)
(0.0872045 0.00257658 0 0.00102082 0 0)
(0.101951 0.00316749 0 0.00106047 0 0)
(0.0556048 -0.000277931 0 0.00244563 0 0)
(0.0162268 0.000210302 0 0.00132262 0 0)
(0.0173325 0.000382353 0 0.00100263 0 0)
(0.0154833 0.000409218 0 0.000871213 0 0)
(0.0152995 0.000557787 0 0.000782646 0 0)
(0.0164778 0.000712206 0 0.000716477 0 0)
(0.0183567 0.000767218 0 0.000666131 0 0)
(0.0205312 0.000731289 0 0.000621715 0 0)
(0.0231329 0.000679341 0 0.000577594 0 0)
(0.0265581 0.000684603 0 0.000533903 0 0)
(0.0311124 0.000771552 0 0.000492214 0 0)
(0.0368703 0.000916045 0 0.000454259 0 0)
(0.0437557 0.00107559 0 0.000421174 0 0)
(0.0516317 0.00121902 0 0.000392709 0 0)
(0.0604611 0.00134593 0 0.000369098 0 0)
(0.0702659 0.00146907 0 0.000353104 0 0)
(0.081165 0.00160168 0 0.000340563 0 0)
(0.093126 0.00176421 0 0.000327816 0 0)
(0.0102333 -0.0202904 6.98752e-22 0.0413671 -1.2035e-21 3.97891e-37)
(0.0737868 -0.0470088 -1.49662e-21 0.033549 4.13364e-22 3.92329e-37)
(0.162186 -0.0549514 0 0.0300955 0 0)
(0.253239 -0.062338 0 0.036026 0 0)
(0.382168 -0.0875921 0 0.0460747 0 0)
(0.577629 -0.128219 6.15332e-22 0.0525152 7.05118e-22 3.6955e-37)
(0.862287 -0.172838 0 0.0526344 0 0)
(1.23388 -0.210516 0 0.0474664 0 0)
(1.67361 -0.233807 0 0.0392792 0 0)
(2.15104 -0.239375 0 0.0304394 0 0)
(2.63173 -0.227247 6.23127e-22 0.0225334 6.86577e-23 3.42311e-37)
(3.08044 -0.199813 0 0.016413 0 0)
(3.47042 -0.16019 0 0.012393 0 0)
(3.77733 -0.112302 0 0.0105436 0 0)
(3.98189 -0.0601763 0 0.0108425 0 0)
(4.08312 -0.00851082 -3.25821e-21 0.0131153 1.33032e-21 3.16415e-37)
(4.08257 0.0373482 0 0.0170023 0 0)
(3.99899 0.0723103 0 0.0219347 0 0)
(3.84711 0.0914514 0 0.0270815 0 0)
(3.6704 0.0910685 0 0.0314525 0 0)
(3.4846 0.0692939 0 0.0340473 0 0)
(3.35958 0.0244988 0 0.0340807 0 0)
(3.28075 -0.0341074 0 0.0328733 0 0)
(3.34914 -0.128266 -1.96331e-20 0.0407099 1.45385e-21 2.77719e-37)
(3.47772 -0.191377 2.1565e-20 0.0522918 -1.31091e-21 2.73116e-37)
(3.83351 -0.347215 -2.29238e-20 0.0965312 7.44237e-22 2.68564e-37)
(4.36515 -0.55013 -2.41203e-20 0.23063 1.97103e-22 2.64063e-37)
(5.00335 -0.745179 0 0.38693 0 0)
(5.70074 -0.860736 0 0.457396 0 0)
(6.39661 -0.935212 2.89485e-20 0.532301 -5.03605e-22 2.50873e-37)
(7.0269 -0.948582 3.15455e-20 0.581079 -1.12343e-21 2.4658e-37)
(7.57707 -0.85196 0 0.537674 0 0)
(8.18266 -0.616341 0 0.363834 0 0)
(8.82136 -0.421375 4.18265e-20 0.240507 -3.34327e-21 2.34011e-37)
(9.68126 -0.4956 0 0.221952 0 0)
(10.969 -0.650365 0 0.182724 0 0)
(12.5399 -0.750008 -5.18378e-20 0.149147 2.6991e-21 2.21913e-37)
(14.2968 -0.805692 0 0.120257 0 0)
(16.1572 -0.825116 -5.71988e-20 0.0966 2.13605e-21 2.14108e-37)
(18.0522 -0.816506 -1.18985e-19 0.0773044 3.743e-21 8.4113e-37)
(19.9267 -0.786155 0 0.0617979 0 0)
(21.7341 -0.73924 0 0.04933 0 0)
(23.4372 -0.679802 0 0.0393288 0 0)
(25.0056 -0.611219 0 0.031317 0 0)
(26.4156 -0.536552 0 0.0249426 0 0)
(27.6473 -0.458665 -1.33906e-19 0.0199202 1.04282e-21 7.53587e-37)
(28.6879 -0.380213 -1.34116e-19 0.0160199 6.83899e-22 7.39694e-37)
(29.5337 -0.303299 -1.33691e-19 0.0130425 3.57194e-22 7.25998e-37)
(30.1842 -0.229141 0 0.0108056 0 0)
(30.6491 -0.158973 1.31084e-19 0.00916795 1.9905e-22 6.9919e-37)
(30.9335 -0.0937001 0 0.00800404 0 0)
(31.0515 -0.0341106 -1.26482e-19 0.00720568 -6.25735e-22 6.73151e-37)
(31.0156 0.019011 -1.23582e-19 0.00668968 -7.91157e-22 6.60418e-37)
(30.8409 0.0655378 0 0.00637181 0 0)
(30.5453 0.105372 0 0.00619418 0 0)
(30.1437 0.138813 0 0.00610698 0 0)
(29.6528 0.166259 -1.0943e-19 0.00607741 -1.17403e-21 6.11355e-37)
(29.0869 0.18824 0 0.00607948 0 0)
(28.4601 0.20526 0 0.00609509 0 0)
(27.7853 0.218065 0 0.00610451 0 0)
(27.0734 0.227283 0 0.0060974 0 0)
(26.3329 0.233768 0 0.00606393 0 0)
(25.5706 0.238276 0 0.00600821 0 0)
(24.7903 0.241587 0 0.00593912 0 0)
(23.9937 0.244304 0 0.00587499 0 0)
(23.1813 0.246929 7.4843e-20 0.00583107 1.1467e-21 5.11489e-37)
(22.3528 0.249559 0 0.0058291 0 0)
(21.5074 0.252231 0 0.00586844 0 0)
(20.6454 0.254622 -6.44286e-20 0.00595487 -1.07771e-21 4.81273e-37)
(19.7684 0.256379 -6.11137e-20 0.00606994 -1.05418e-21 4.71526e-37)
(18.879 0.257062 0 0.00619804 0 0)
(17.9817 0.256293 5.47405e-20 0.00631502 1.00152e-21 4.52511e-37)
(17.0824 0.253718 -5.16963e-20 0.00640987 -9.71005e-22 4.43238e-37)
(16.188 0.249114 0 0.00646591 0 0)
(15.3062 0.242393 4.59339e-20 0.0064753 8.99561e-22 4.25153e-37)
(14.4449 0.233644 0 0.00642207 0 0)
(13.6114 0.223204 0 0.00629982 0 0)
(12.8113 0.211609 -3.82178e-20 0.00610233 -7.7099e-22 3.99146e-37)
(12.0476 0.199561 0 0.00583296 0 0)
(11.3208 0.187853 3.37208e-20 0.00551345 6.82764e-22 3.82535e-37)
(10.6285 0.177136 0 0.00516012 0 0)
(9.96641 0.16795 -2.96937e-20 0.00480116 -6.03472e-22 3.66486e-37)
(9.32856 0.160624 -2.78326e-20 0.00446898 -5.6909e-22 3.58668e-37)
(8.70869 0.15521 -2.60604e-20 0.00418923 -5.38462e-22 3.50985e-37)
(8.10041 0.151435 -4.87373e-20 0.00397473 -1.02225e-21 1.37374e-36)
(7.49854 0.149012 4.55012e-20 0.00385019 9.7372e-22 1.34407e-36)
(6.90004 0.147237 0 0.00380698 0 0)
(6.3039 0.14546 0 0.00383613 0 0)
(5.71173 0.143063 0 0.00391989 0 0)
(5.12752 0.139332 3.39503e-20 0.0040186 8.03971e-22 1.23049e-36)
(4.55745 0.134011 3.14255e-20 0.00410467 7.60442e-22 1.20334e-36)
(4.00924 0.126867 -2.90604e-20 0.00414007 -7.1462e-22 1.17667e-36)
(3.49022 0.117901 0 0.00409249 0 0)
(3.00705 0.107557 2.48281e-20 0.00395676 6.15891e-22 1.12475e-36)
(2.56521 0.0962276 2.29626e-20 0.00372869 5.64277e-22 1.09949e-36)
(2.16811 0.0845265 2.12597e-20 0.00342817 5.12481e-22 1.07468e-36)
(1.81761 0.073005 0 0.00308026 0 0)
(1.51332 0.0621179 0 0.00271287 0 0)
(1.25214 0.0520349 0 0.00233875 0 0)
(1.03037 0.0429955 1.59045e-20 0.00198178 3.19678e-22 9.79861e-37)
(0.844242 0.0350762 0 0.00165402 0 0)
(0.689555 0.0282612 0 0.00136145 0 0)
(0.56217 0.022478 -1.31073e-20 0.00110555 -2.0283e-22 9.13201e-37)
(0.45822 0.0176259 0 0.000885039 0 0)
(0.374188 0.0135961 0 0.000697455 0 0)
(0.306935 0.0102839 -1.10767e-20 0.000540002 -1.12054e-22 8.50169e-37)
(0.253684 0.00759354 0 0.00040997 0 0)
(0.211991 0.00543714 0 0.000304716 0 0)
(0.179728 0.00373397 9.63586e-21 0.000221591 4.37992e-23 7.90597e-37)
(0.155062 0.00240872 9.26218e-21 0.000157787 2.56247e-23 7.71481e-37)
(0.136447 0.00139236 0 0.000110443 0 0)
(0.122604 0.000622248 -8.64678e-21 7.66644e-05 4.57789e-24 7.34327e-37)
(0.112497 4.4288e-05 0 5.36945e-05 0 0)
(0.1053 -0.000386659 8.17988e-21 3.91081e-05 -2.75384e-23 6.98571e-37)
(0.100366 -0.000707727 0 3.08086e-05 0 0)
(0.0971982 -0.00094799 7.83189e-21 2.71737e-05 -4.45372e-23 6.6417e-37)
(0.0954137 -0.00112961 7.69467e-21 2.69868e-05 -5.11929e-23 6.47464e-37)
(0.0947258 -0.00127139 0 2.93042e-05 0 0)
(0.0949298 -0.00138614 0 3.34731e-05 0 0)
(0.0958609 -0.00148185 0 3.89223e-05 0 0)
(0.0973995 -0.00156534 0 4.50748e-05 0 0)
(0.0994626 -0.00164064 0 5.14038e-05 0 0)
(0.101988 -0.00170927 0 5.72021e-05 0 0)
(0.104933 -0.00177226 0 6.17946e-05 0 0)
(0.108266 -0.00183035 7.17044e-21 6.49609e-05 -7.19669e-23 5.25014e-37)
(0.111964 -0.00188377 -7.14548e-21 6.68962e-05 7.09511e-23 5.11034e-37)
(0.116007 -0.00193252 0 6.79255e-05 0 0)
(0.120376 -0.00197662 0 6.83397e-05 0 0)
(0.125055 -0.00201609 0 6.83399e-05 0 0)
(0.130031 -0.00205082 0 6.80278e-05 0 0)
(0.135288 -0.00208061 -1.40983e-20 6.74378e-05 1.23131e-22 1.78092e-36)
(0.140811 -0.00210492 0 6.65516e-05 0 0)
(0.146586 -0.00212271 1.40224e-20 6.52976e-05 -1.13843e-22 1.68295e-36)
(0.152593 -0.00213227 -1.39811e-20 6.35616e-05 1.08911e-22 1.63547e-36)
(0.158807 -0.00213132 0 6.12067e-05 0 0)
(0.165196 -0.00211727 0 5.81052e-05 0 0)
(0.171722 -0.00208761 0 5.41803e-05 0 0)
(0.178335 -0.00204057 1.37755e-20 4.94521e-05 -8.65031e-23 1.45517e-36)
(0.184982 -0.00197551 1.37101e-20 4.40624e-05 -8.02842e-23 1.41243e-36)
(0.191603 -0.00189332 0 3.82675e-05 0 0)
(0.198141 -0.00179644 1.35582e-20 3.23945e-05 -6.77428e-23 1.32964e-36)
(0.204542 -0.00168851 1.34711e-20 2.67723e-05 -6.16979e-23 1.28956e-36)
(0.210758 -0.00157384 -1.33764e-20 2.16645e-05 5.597e-23 1.25034e-36)
(0.216753 -0.00145678 0 1.72335e-05 0 0)
(0.222499 -0.00134124 0 1.3538e-05 0 0)
(0.227981 -0.00123033 -1.30492e-20 1.05536e-05 4.14254e-23 1.1377e-36)
(0.233192 -0.0011263 0 8.20314e-06 0 0)
(0.238134 -0.00103047 0 6.38594e-06 0 0)
(0.242813 -0.000943476 0 4.99819e-06 0 0)
(0.24724 -0.000865361 0 3.94577e-06 0 0)
(0.25143 -0.0007958 1.23872e-20 3.14945e-06 -2.61967e-23 9.65897e-37)
(0.255398 -0.000734233 1.22419e-20 2.54569e-06 -2.42066e-23 9.3381e-37)
(0.25916 -0.000679916 0 2.08507e-06 0 0)
(0.262732 -0.000632107 1.19419e-20 1.73064e-06 -2.09603e-23 8.71814e-37)
(0.266132 -0.000590054 0 1.45519e-06 0 0)
(0.26937 -0.000553187 0 1.2393e-06 0 0)
(0.272468 -0.00052088 1.1474e-20 1.06836e-06 -1.74837e-23 7.84092e-37)
(0.275431 -0.000492682 0 9.31739e-07 0 0)
(0.278285 -0.000468036 1.11537e-20 8.21371e-07 -1.58629e-23 7.28996e-37)
(0.281026 -0.000446766 0 7.32237e-07 0 0)