/*--------------------------------*- C++ -*----------------------------------*\
  =========                 |
  \\      /  F ield         | OpenFOAM: The Open Source CFD Toolbox
   \\    /   O peration     | Website:  https://openfoam.org
    \\  /    A nd           | Version:  11
     \\/     M anipulation  |
\*---------------------------------------------------------------------------*/
FoamFile
{
    format      ascii;
    class       volVectorField;
    location    "90";
    object      U;
}
// * * * * * * * * * * * * * * * * * * * * * * * * * * * * * * * * * * * * * //

dimensions      [0 1 -1 0 0 0 0];

internalField   nonuniform List<vector> 
2048
(
(1.00015 -0.000617601 0)
(1.00262 -0.00182832 0)
(1.00742 -0.00302427 0)
(1.01463 -0.00421497 0)
(1.02425 -0.00540618 0)
(1.03624 -0.00659655 0)
(1.05059 -0.00777462 0)
(1.06725 -0.00891674 0)
(1.08613 -0.00998612 0)
(1.10705 -0.0109328 0)
(1.12972 -0.011695 0)
(1.15374 -0.012203 0)
(1.17852 -0.012386 0)
(1.20338 -0.0121829 0)
(1.22752 -0.0115561 0)
(1.25007 -0.0105051 0)
(1.27019 -0.00907514 0)
(1.28716 -0.00735786 0)
(1.30045 -0.00548128 0)
(1.30985 -0.00359149 0)
(1.31543 -0.00183635 0)
(1.3176 -0.000355169 0)
(1.31703 0.000725109 0)
(1.31465 0.00130269 0)
(1.31156 0.00131368 0)
(1.30896 0.000736919 0)
(1.30803 -0.000394677 0)
(1.30987 -0.00199112 0)
(1.31533 -0.00391162 0)
(1.32494 -0.00596649 0)
(1.33879 -0.00793161 0)
(1.35648 -0.00956399 0)
(1.37714 -0.0106314 0)
(1.3994 -0.0109329 0)
(1.42157 -0.0103364 0)
(1.44172 -0.00879222 0)
(1.4579 -0.00635011 0)
(1.46834 -0.00317099 0)
(1.4717 0.000522857 0)
(1.46718 0.0044506 0)
(1.45453 0.00833256 0)
(1.43408 0.0119233 0)
(1.40667 0.0150385 0)
(1.37346 0.0175645 0)
(1.33577 0.0194558 0)
(1.29492 0.0207234 0)
(1.25216 0.0214147 0)
(1.2086 0.0215968 0)
(1.16521 0.0213336 0)
(1.12283 0.0206893 0)
(1.0821 0.0196947 0)
(1.04385 0.0183954 0)
(1.00831 0.0167582 0)
(0.976864 0.0148292 0)
(0.948731 0.0124832 0)
(0.92742 0.00979284 0)
(0.908908 0.00661871 0)
(0.90261 0.00292489 0)
(0.894961 -0.000909386 0)
(0.910677 -0.00591962 0)
(0.911769 -0.00968381 0)
(0.960036 -0.0168166 0)
(0.961093 -0.0191393 0)
(1.05921 -0.0298483 0)
(1.00015 -0.00184945 0)
(1.0026 -0.00547438 0)
(1.00736 -0.00905705 0)
(1.01453 -0.0126293 0)
(1.0241 -0.0162111 0)
(1.03607 -0.0198004 0)
(1.05044 -0.0233648 0)
(1.06718 -0.0268343 0)
(1.08625 -0.0300976 0)
(1.10748 -0.0330017 0)
(1.13061 -0.0353559 0)
(1.15523 -0.0369447 0)
(1.18077 -0.0375468 0)
(1.20649 -0.0369681 0)
(1.23153 -0.0350843 0)
(1.25494 -0.0318839 0)
(1.2758 -0.0275028 0)
(1.29329 -0.0222284 0)
(1.30684 -0.0164621 0)
(1.31619 -0.0106556 0)
(1.32145 -0.00526124 0)
(1.32302 -0.00070069 0)
(1.32163 0.00261915 0)
(1.31827 0.0044114 0)
(1.31412 0.00445845 0)
(1.31047 0.00267426 0)
(1.30863 -0.000825221 0)
(1.30979 -0.00576166 0)
(1.3149 -0.0117086 0)
(1.32458 -0.0180824 0)
(1.33897 -0.0241889 0)
(1.35767 -0.0292759 0)
(1.37974 -0.0326184 0)
(1.40373 -0.0336093 0)
(1.42777 -0.0318271 0)
(1.44974 -0.0271276 0)
(1.46749 -0.0196555 0)
(1.47907 -0.00988874 0)
(1.48302 0.00146457 0)
(1.4785 0.0135347 0)
(1.46528 0.0254384 0)
(1.44381 0.0364004 0)
(1.41506 0.0458538 0)
(1.38035 0.0534669 0)
(1.34112 0.0591224 0)
(1.2988 0.0628719 0)
(1.25471 0.0648719 0)
(1.20998 0.0653355 0)
(1.16554 0.064467 0)
(1.12226 0.062467 0)
(1.08071 0.0594321 0)
(1.0417 0.0555022 0)
(1.00543 0.0505759 0)
(0.973253 0.0447979 0)
(0.944386 0.0377553 0)
(0.922333 0.0296887 0)
(0.903179 0.0201439 0)
(0.896054 0.00914848 0)
(0.887631 -0.00233497 0)
(0.901632 -0.0171009 0)
(0.901116 -0.0282262 0)
(0.946116 -0.0492717 0)
(0.945378 -0.0559414 0)
(1.03945 -0.0882331 0)
(1.00014 -0.00306449 0)
(1.00255 -0.0090721 0)
(1.00723 -0.0150186 0)
(1.01429 -0.0209663 0)
(1.02375 -0.0269572 0)
(1.03565 -0.0329961 0)
(1.05002 -0.0390368 0)
(1.06693 -0.0449675 0)
(1.08634 -0.0506021 0)
(1.10818 -0.0556752 0)
(1.13222 -0.0598484 0)
(1.15806 -0.0627348 0)
(1.18513 -0.0639324 0)
(1.21262 -0.0630821 0)
(1.23954 -0.0599394 0)
(1.26478 -0.0544539 0)
(1.28718 -0.0468516 0)
(1.30576 -0.0376508 0)
(1.31982 -0.0275743 0)
(1.32908 -0.0174187 0)
(1.33365 -0.00796968 0)
(1.33399 4.41636e-05 0)
(1.3309 0.0059077 0)
(1.32551 0.009106 0)
(1.31911 0.00924018 0)
(1.31324 0.00615765 0)
(1.30945 -2.67269e-05 0)
(1.30916 -0.00876955 0)
(1.31351 -0.019332 0)
(1.32329 -0.0307063 0)
(1.33876 -0.0416661 0)
(1.35951 -0.0508794 0)
(1.38452 -0.0570356 0)
(1.41209 -0.0590356 0)
(1.44002 -0.0561063 0)
(1.46581 -0.04799 0)
(1.48687 -0.0349394 0)
(1.50087 -0.0178248 0)
(1.50608 0.00203906 0)
(1.50155 0.0230975 0)
(1.48712 0.0437669 0)
(1.46347 0.0626697 0)
(1.43191 0.0788193 0)
(1.39409 0.0916616 0)
(1.35172 0.101043 0)
(1.30644 0.107118 0)
(1.25965 0.110215 0)
(1.21255 0.11074 0)
(1.16606 0.109071 0)
(1.12097 0.10556 0)
(1.07783 0.100373 0)
(1.03734 0.0937533 0)
(0.999632 0.0855274 0)
(0.965965 0.0759253 0)
(0.935672 0.0641687 0)
(0.91218 0.0506946 0)
(0.891707 0.0346972 0)
(0.882312 0.01679 0)
(0.871016 -0.00176177 0)
(0.880036 -0.0249264 0)
(0.874569 -0.0427266 0)
(0.913876 -0.0770596 0)
(0.909187 -0.0879512 0)
(1.00141 -0.144097 0)
(1.00014 -0.00424353 0)
(1.00247 -0.0125682 0)
(1.007 -0.0208298 0)
(1.01385 -0.0291329 0)
(1.0231 -0.0375541 0)
(1.03482 -0.0461176 0)
(1.04914 -0.0547776 0)
(1.06619 -0.0633911 0)
(1.08607 -0.0717049 0)
(1.10877 -0.0793297 0)
(1.13415 -0.0857479 0)
(1.16187 -0.090345 0)
(1.19132 -0.092463 0)
(1.2216 -0.0915157 0)
(1.25155 -0.0870856 0)
(1.27973 -0.0790484 0)
(1.30463 -0.0677445 0)
(1.32495 -0.0539926 0)
(1.33981 -0.0389033 0)
(1.34892 -0.0236659 0)
(1.35242 -0.00943604 0)
(1.35079 0.00265205 0)
(1.34499 0.011622 0)
(1.33631 0.0165645 0)
(1.3263 0.0168695 0)
(1.31678 0.0122895 0)
(1.30975 0.00300011 0)
(1.30703 -0.0103261 0)
(1.31004 -0.0265126 0)
(1.31986 -0.044052 0)
(1.33692 -0.0611024 0)
(1.36089 -0.0756134 0)
(1.39056 -0.0855732 0)
(1.42389 -0.0892326 0)
(1.45811 -0.0853551 0)
(1.49005 -0.0734254 0)
(1.51642 -0.0538614 0)
(1.53427 -0.0280176 0)
(1.54148 0.00199311 0)
(1.53691 0.0336531 0)
(1.52053 0.0644188 0)
(1.49338 0.0921878 0)
(1.45734 0.115551 0)
(1.41457 0.133793 0)
(1.36728 0.146803 0)
(1.31743 0.15492 0)
(1.26659 0.158727 0)
(1.21597 0.158904 0)
(1.16647 0.156064 0)
(1.11876 0.150743 0)
(1.07331 0.143207 0)
(1.03066 0.133815 0)
(0.99081 0.122317 0)
(0.95496 0.108904 0)
(0.922707 0.0923815 0)
(0.896935 0.0736129 0)
(0.873661 0.0516657 0)
(0.859014 0.0284404 0)
(0.841368 0.00415364 0)
(0.842115 -0.0256632 0)
(0.831556 -0.0513293 0)
(0.868177 -0.100326 0)
(0.864177 -0.119055 0)
(0.962737 -0.202543 0)
(1.00013 -0.00536399 0)
(1.00234 -0.0158979 0)
(1.00662 -0.0263894 0)
(1.01313 -0.0370028 0)
(1.02199 -0.0478667 0)
(1.03335 -0.0590437 0)
(1.04745 -0.0705095 0)
(1.06454 -0.0821054 0)
(1.08485 -0.0935358 0)
(1.10858 -0.104286 0)
(1.13571 -0.113641 0)
(1.16601 -0.120672 0)
(1.19884 -0.124308 0)
(1.23317 -0.123594 0)
(1.26754 -0.117802 0)
(1.30005 -0.106701 0)
(1.32859 -0.0908724 0)
(1.3514 -0.0716022 0)
(1.36742 -0.0504747 0)
(1.37632 -0.0290904 0)
(1.37825 -0.0089876 0)
(1.37384 0.0081971 0)
(1.36413 0.0211012 0)
(1.35061 0.0283327 0)
(1.33525 0.0289322 0)
(1.32038 0.0225095 0)
(1.30848 0.00935891 0)
(1.30195 -0.00965491 0)
(1.30278 -0.0329331 0)
(1.31238 -0.0583774 0)
(1.33151 -0.0833691 0)
(1.35988 -0.104895 0)
(1.39599 -0.120031 0)
(1.43725 -0.126193 0)
(1.48019 -0.121557 0)
(1.5208 -0.105284 0)
(1.55486 -0.078022 0)
(1.57858 -0.0416883 0)
(1.58909 0.000690331 0)
(1.58478 0.0453654 0)
(1.56571 0.0883472 0)
(1.53359 0.126561 0)
(1.49115 0.158007 0)
(1.44144 0.181819 0)
(1.38732 0.198127 0)
(1.3312 0.207701 0)
(1.27489 0.211567 0)
(1.21964 0.210795 0)
(1.16624 0.206279 0)
(1.11523 0.198748 0)
(1.06689 0.188611 0)
(1.02146 0.176364 0)
(0.978909 0.161594 0)
(0.940455 0.144263 0)
(0.905761 0.123013 0)
(0.876001 0.0998859 0)
(0.846797 0.074129 0)
(0.823162 0.0481183 0)
(0.798639 0.0180811 0)
(0.794289 -0.0205275 0)
(0.787183 -0.0600592 0)
(0.827259 -0.126614 0)
(0.832702 -0.158419 0)
(0.935308 -0.265733 0)
(1.00012 -0.00639367 0)
(1.00212 -0.018968 0)
(1.00603 -0.0315455 0)
(1.01199 -0.0443782 0)
(1.02021 -0.0576647 0)
(1.03093 -0.0715425 0)
(1.0445 -0.0860328 0)
(1.06135 -0.100981 0)
(1.08192 -0.116087 0)
(1.10664 -0.1307 0)
(1.13579 -0.143975 0)
(1.16937 -0.154572 0)
(1.2068 -0.160837 0)
(1.24684 -0.161142 0)
(1.28757 -0.154022 0)
(1.32622 -0.139051 0)
(1.35977 -0.117379 0)
(1.3859 -0.0911134 0)
(1.40345 -0.0624564 0)
(1.41213 -0.0334366 0)
(1.41205 -0.00585781 0)
(1.40384 0.017873 0)
(1.38871 0.0359112 0)
(1.36838 0.0463059 0)
(1.34541 0.0474888 0)
(1.32286 0.0388275 0)
(1.30397 0.0207493 0)
(1.29187 -0.00553662 0)
(1.28914 -0.0381565 0)
(1.29776 -0.0742495 0)
(1.31888 -0.110097 0)
(1.35198 -0.141384 0)
(1.39475 -0.163865 0)
(1.44388 -0.173843 0)
(1.49558 -0.16868 0)
(1.54562 -0.147212 0)
(1.5894 -0.110294 0)
(1.6223 -0.0606431 0)
(1.64009 -0.00276941 0)
(1.63946 0.0584362 0)
(1.61956 0.116592 0)
(1.58251 0.167247 0)
(1.53229 0.207892 0)
(1.47359 0.237622 0)
(1.41065 0.256933 0)
(1.34661 0.267203 0)
(1.28356 0.27015 0)
(1.22271 0.267458 0)
(1.16473 0.260437 0)
(1.10994 0.250095 0)
(1.05824 0.23709 0)
(1.00959 0.221909 0)
(0.964173 0.203665 0)
(0.922878 0.182302 0)
(0.884296 0.157405 0)
(0.847607 0.132513 0)
(0.810121 0.105225 0)
(0.778833 0.0756089 0)
(0.753805 0.0348458 0)
(0.752028 -0.018299 0)
(0.755349 -0.0769408 0)
(0.798012 -0.159517 0)
(0.81304 -0.204661 0)
(0.9078 -0.326589 0)
(1.0001 -0.00728918 0)
(1.00181 -0.0216547 0)
(1.00515 -0.0360856 0)
(1.01029 -0.0509727 0)
(1.0175 -0.0665842 0)
(1.02712 -0.0832235 0)
(1.0397 -0.100966 0)
(1.05582 -0.119734 0)
(1.07623 -0.139241 0)
(1.10166 -0.158617 0)
(1.13279 -0.177035 0)
(1.1702 -0.192583 0)
(1.21353 -0.203159 0)
(1.26149 -0.205996 0)
(1.31148 -0.197891 0)
(1.359 -0.178092 0)
(1.39943 -0.148875 0)
(1.4299 -0.113649 0)
(1.4494 -0.0754112 0)
(1.45793 -0.0366743 0)
(1.45524 0.000221483 0)
(1.44195 0.0328897 0)
(1.41957 0.0580276 0)
(1.38989 0.0729279 0)
(1.35617 0.0753616 0)
(1.32268 0.0640776 0)
(1.29363 0.0398479 0)
(1.27262 0.00473984 0)
(1.26302 -0.0394234 0)
(1.26756 -0.0894226 0)
(1.28691 -0.139737 0)
(1.31886 -0.183803 0)
(1.3601 -0.215974 0)
(1.40841 -0.231923 0)
(1.46221 -0.228575 0)
(1.51899 -0.204153 0)
(1.57424 -0.158766 0)
(1.62225 -0.0947673 0)
(1.65716 -0.0175066 0)
(1.67199 0.0652971 0)
(1.66207 0.145118 0)
(1.62814 0.213858 0)
(1.57437 0.266755 0)
(1.50758 0.303051 0)
(1.43497 0.324618 0)
(1.36181 0.334355 0)
(1.29105 0.335147 0)
(1.22401 0.329418 0)
(1.16112 0.318951 0)
(1.10228 0.30519 0)
(1.04698 0.28902 0)
(0.995114 0.27053 0)
(0.946837 0.248564 0)
(0.901741 0.224136 0)
(0.857105 0.198223 0)
(0.812298 0.173512 0)
(0.768953 0.142976 0)
(0.736081 0.104193 0)
(0.716587 0.0465399 0)
(0.719607 -0.0234475 0)
(0.731316 -0.100755 0)
(0.771284 -0.193944 0)
(0.791408 -0.250418 0)
(0.871999 -0.379492 0)
(1.00008 -0.00799608 0)
(1.00138 -0.0238072 0)
(1.00391 -0.0397308 0)
(1.00789 -0.056406 0)
(1.01356 -0.0740778 0)
(1.02147 -0.0934707 0)
(1.0323 -0.114579 0)
(1.04686 -0.137789 0)
(1.06649 -0.162697 0)
(1.09197 -0.188173 0)
(1.12489 -0.213516 0)
(1.1664 -0.235406 0)
(1.21646 -0.251982 0)
(1.2753 -0.258827 0)
(1.33937 -0.249704 0)
(1.40016 -0.22391 0)
(1.45003 -0.185524 0)
(1.48576 -0.139375 0)
(1.50704 -0.0892746 0)
(1.51441 -0.0381663 0)
(1.50821 0.0111842 0)
(1.48844 0.0557814 0)
(1.45589 0.0907358 0)
(1.4132 0.111857 0)
(1.3641 0.116504 0)
(1.31442 0.103439 0)
(1.27008 0.0724061 0)
(1.23395 0.025938 0)
(1.20907 -0.0305838 0)
(1.19779 -0.0945177 0)
(1.19763 -0.157742 0)
(1.20468 -0.21148 0)
(1.22026 -0.251631 0)
(1.25019 -0.276114 0)
(1.29802 -0.28159 0)
(1.36214 -0.263748 0)
(1.43542 -0.21968 0)
(1.50914 -0.149833 0)
(1.57407 -0.0580647 0)
(1.62162 0.0464247 0)
(1.64346 0.153596 0)
(1.63421 0.250371 0)
(1.59431 0.325716 0)
(1.53069 0.375348 0)
(1.45383 0.401671 0)
(1.37327 0.410447 0)
(1.29502 0.40749 0)
(1.22175 0.397068 0)
(1.15404 0.381949 0)
(1.0913 0.364084 0)
(1.03269 0.344221 0)
(0.978044 0.321996 0)
(0.926725 0.296953 0)
(0.876704 0.271608 0)
(0.825372 0.246515 0)
(0.774493 0.220478 0)
(0.729663 0.181903 0)
(0.699249 0.128739 0)
(0.685905 0.0521445 0)
(0.691676 -0.0332582 0)
(0.707877 -0.126548 0)
(0.742478 -0.225849 0)
(0.765492 -0.292689 0)
(0.830637 -0.423076 0)
(1.00002 -0.00845309 0)
(1.00084 -0.0252588 0)
(1.00223 -0.0421493 0)
(1.00474 -0.0602261 0)
(1.00808 -0.0793949 0)
(1.01365 -0.101423 0)
(1.02124 -0.125516 0)
(1.03325 -0.153981 0)
(1.05052 -0.185209 0)
(1.075 -0.219341 0)
(1.11011 -0.25541 0)
(1.15535 -0.285818 0)
(1.21339 -0.310916 0)
(1.28935 -0.32301 0)
(1.37453 -0.311513 0)
(1.4511 -0.277759 0)
(1.50823 -0.228467 0)
(1.54457 -0.169462 0)
(1.56269 -0.104938 0)
(1.56515 -0.0387024 0)
(1.55267 0.0271071 0)
(1.52398 0.0874358 0)
(1.47851 0.136638 0)
(1.41904 0.168024 0)
(1.35076 0.175557 0)
(1.27807 0.159652 0)
(1.20662 0.125099 0)
(1.14569 0.0719368 0)
(1.09218 0.000800393 0)
(1.03422 -0.071974 0)
(0.973293 -0.133788 0)
(0.923878 -0.188538 0)
(0.905652 -0.243261 0)
(0.929346 -0.293803 0)
(0.991414 -0.326973 0)
(1.08098 -0.32982 0)
(1.18456 -0.295994 0)
(1.29014 -0.226387 0)
(1.38734 -0.126674 0)
(1.47004 -0.00495144 0)
(1.53118 0.127803 0)
(1.56174 0.256536 0)
(1.55583 0.364057 0)
(1.51525 0.43865 0)
(1.44954 0.478805 0)
(1.37118 0.491294 0)
(1.29048 0.485656 0)
(1.21344 0.469838 0)
(1.14214 0.449068 0)
(1.07634 0.426287 0)
(1.01532 0.402101 0)
(0.958482 0.376253 0)
(0.903887 0.349619 0)
(0.848647 0.325058 0)
(0.791861 0.300304 0)
(0.73808 0.26939 0)
(0.694734 0.218648 0)
(0.66785 0.148734 0)
(0.658963 0.0539965 0)
(0.665626 -0.044946 0)
(0.683784 -0.151706 0)
(0.712588 -0.254346 0)
(0.736965 -0.330417 0)
(0.786716 -0.456915 0)
(0.999931 -0.00860543 0)
(1.00025 -0.025835 0)
(1.00004 -0.0430085 0)
(1.001 -0.0619402 0)
(1.00078 -0.0816821 0)
(1.00392 -0.106033 0)
(1.00517 -0.131719 0)
(1.01483 -0.166414 0)
(1.02358 -0.202771 0)
(1.04827 -0.250742 0)
(1.0818 -0.302913 0)
(1.13086 -0.34848 0)
(1.20714 -0.399712 0)
(1.30901 -0.423423 0)
(1.40854 -0.403506 0)
(1.47951 -0.352808 0)
(1.51844 -0.28508 0)
(1.53336 -0.207778 0)
(1.53298 -0.125524 0)
(1.52228 -0.04027 0)
(1.5028 0.0447627 0)
(1.46896 0.124664 0)
(1.41669 0.19338 0)
(1.34239 0.243944 0)
(1.24978 0.267403 0)
(1.15416 0.255163 0)
(1.06368 0.208618 0)
(0.963968 0.145536 0)
(0.832819 0.0897515 0)
(0.681169 0.0421264 0)
(0.561172 -0.028577 0)
(0.512365 -0.134865 0)
(0.531593 -0.254226 0)
(0.599697 -0.357922 0)
(0.699725 -0.426056 0)
(0.819273 -0.447114 0)
(0.947829 -0.417449 0)
(1.07477 -0.341051 0)
(1.19104 -0.227928 0)
(1.29202 -0.0878609 0)
(1.37505 0.0684903 0)
(1.434 0.227494 0)
(1.46074 0.37001 0)
(1.45091 0.477657 0)
(1.40846 0.541915 0)
(1.34407 0.566754 0)
(1.26981 0.563578 0)
(1.1947 0.544476 0)
(1.12321 0.518486 0)
(1.05659 0.490509 0)
(0.994757 0.461801 0)
(0.936501 0.433079 0)
(0.878854 0.406374 0)
(0.819307 0.3831 0)
(0.75937 0.356838 0)
(0.705446 0.317691 0)
(0.66489 0.25241 0)
(0.641142 0.165209 0)
(0.634903 0.0538347 0)
(0.641344 -0.0571761 0)
(0.65974 -0.175019 0)
(0.683249 -0.27934 0)
(0.707687 -0.362888 0)
(0.743789 -0.481566 0)
(0.999802 -0.00842336 0)
(0.999611 -0.0253556 0)
(0.997442 -0.0420716 0)
(0.996841 -0.0610135 0)
(0.991789 -0.0802844 0)
(0.992939 -0.10602 0)
(0.983559 -0.131204 0)
(0.993242 -0.172269 0)
(0.979341 -0.208325 0)
(1.01392 -0.278608 0)
(1.01437 -0.33943 0)
(1.08982 -0.429912 0)
(1.1874 -0.55819 0)
(1.28523 -0.579826 0)
(1.33895 -0.516584 0)
(1.33738 -0.4204 0)
(1.30613 -0.317953 0)
(1.26777 -0.218574 0)
(1.2368 -0.124966 0)
(1.21337 -0.0328306 0)
(1.19642 0.05809 0)
(1.17501 0.149647 0)
(1.1392 0.236207 0)
(1.08156 0.305395 0)
(0.992804 0.343964 0)
(0.860398 0.349401 0)
(0.682006 0.335895 0)
(0.485319 0.313364 0)
(0.312791 0.264705 0)
(0.207192 0.159952 0)
(0.179372 0.00268781 0)
(0.209722 -0.175379 0)
(0.27791 -0.340017 0)
(0.371183 -0.470281 0)
(0.48251 -0.554614 0)
(0.608323 -0.585106 0)
(0.744591 -0.557038 0)
(0.883159 -0.47301 0)
(1.01284 -0.344334 0)
(1.12528 -0.185606 0)
(1.21792 -0.00878704 0)
(1.28971 0.174787 0)
(1.3361 0.347867 0)
(1.35114 0.488888 0)
(1.33353 0.582523 0)
(1.28937 0.627218 0)
(1.22903 0.633235 0)
(1.16227 0.615387 0)
(1.09536 0.586545 0)
(1.0313 0.55433 0)
(0.970829 0.521848 0)
(0.912374 0.491612 0)
(0.852766 0.466078 0)
(0.790827 0.443731 0)
(0.730216 0.413784 0)
(0.678005 0.363996 0)
(0.640586 0.283233 0)
(0.619272 0.179224 0)
(0.614439 0.0529035 0)
(0.620096 -0.069017 0)
(0.637848 -0.195905 0)
(0.657003 -0.301193 0)
(0.680746 -0.390193 0)
(0.705745 -0.498422 0)
(0.999706 -0.00789975 0)
(0.998865 -0.0236739 0)
(0.99479 -0.0392464 0)
(0.992182 -0.0569477 0)
(0.982356 -0.0750015 0)
(0.980416 -0.099858 0)
(0.959682 -0.123525 0)
(0.967766 -0.16686 0)
(0.922379 -0.19847 0)
(0.971448 -0.290255 0)
(0.877815 -0.331714 0)
(1.04453 -0.536106 0)
(1.00533 -0.697657 0)
(1.00415 -0.624963 0)
(0.927233 -0.480559 0)
(0.805199 -0.338234 0)
(0.697004 -0.218023 0)
(0.621708 -0.123437 0)
(0.588756 -0.0550968 0)
(0.570546 0.0231192 0)
(0.598089 0.106872 0)
(0.623764 0.194881 0)
(0.620863 0.293357 0)
(0.578305 0.389489 0)
(0.486643 0.46378 0)
(0.344872 0.511163 0)
(0.176946 0.520473 0)
(0.0299377 0.47275 0)
(-0.0578892 0.353629 0)
(-0.0728331 0.170694 0)
(-0.0356212 -0.0441039 0)
(0.0326585 -0.256279 0)
(0.120549 -0.440224 0)
(0.219444 -0.583111 0)
(0.325264 -0.677935 0)
(0.439559 -0.718232 0)
(0.565693 -0.696567 0)
(0.701605 -0.610623 0)
(0.837085 -0.469646 0)
(0.959534 -0.291598 0)
(1.06155 -0.0936213 0)
(1.14179 0.111507 0)
(1.19955 0.309125 0)
(1.23154 0.478538 0)
(1.23491 0.600674 0)
(1.21184 0.668394 0)
(1.16939 0.688739 0)
(1.11596 0.677065 0)
(1.05824 0.648879 0)
(1.00042 0.614634 0)
(0.943872 0.580243 0)
(0.886967 0.550359 0)
(0.827224 0.526942 0)
(0.765259 0.504696 0)
(0.706332 0.469156 0)
(0.657238 0.407396 0)
(0.623036 0.311307 0)
(0.603611 0.191688 0)
(0.599555 0.0519629 0)
(0.6042 -0.0800167 0)
(0.62092 -0.21441 0)
(0.636543 -0.320511 0)
(0.659174 -0.412902 0)
(0.675797 -0.509231 0)
(0.999694 -0.00701953 0)
(0.997967 -0.0207825 0)
(0.992488 -0.034496 0)
(0.987043 -0.0496238 0)
(0.974066 -0.0657741 0)
(0.966009 -0.0867748 0)
(0.939252 -0.109108 0)
(0.93513 -0.145948 0)
(0.874762 -0.177764 0)
(0.903932 -0.261837 0)
(0.732294 -0.28818 0)
(0.932238 -0.571252 0)
(0.349837 -0.392694 0)
(0.255939 -0.243143 0)
(0.136875 -0.184826 0)
(0.0712503 -0.144909 0)
(0.0442954 -0.106624 0)
(0.0337016 -0.077963 0)
(0.0385833 -0.0583443 0)
(0.0369709 -0.0418872 0)
(0.153117 0.0446976 0)
(0.159213 0.182905 0)
(0.150747 0.336625 0)
(0.101057 0.48039 0)
(0.0130558 0.593181 0)
(-0.0975632 0.653223 0)
(-0.199852 0.636845 0)
(-0.253943 0.531491 0)
(-0.247808 0.348223 0)
(-0.19279 0.118136 0)
(-0.111821 -0.128145 0)
(-0.0169581 -0.355826 0)
(0.082977 -0.545457 0)
(0.179524 -0.688989 0)
(0.268832 -0.785372 0)
(0.355179 -0.832624 0)
(0.449753 -0.821797 0)
(0.560289 -0.74299 0)
(0.682474 -0.598443 0)
(0.802833 -0.40552 0)
(0.908845 -0.186595 0)
(0.994831 0.0402857 0)
(1.05995 0.259654 0)
(1.10335 0.452639 0)
(1.12306 0.599639 0)
(1.11921 0.689957 0)
(1.09567 0.72716 0)
(1.05843 0.72551 0)
(1.01342 0.701605 0)
(0.965073 0.66834 0)
(0.914955 0.634746 0)
(0.861725 0.607335 0)
(0.804162 0.586663 0)
(0.744704 0.563649 0)
(0.68961 0.521281 0)
(0.644837 0.447243 0)
(0.614193 0.336746 0)
(0.596472 0.203082 0)
(0.592954 0.0515806 0)
(0.596511 -0.0899173 0)
(0.612074 -0.230723 0)
(0.624698 -0.337746 0)
(0.646082 -0.431804 0)
(0.656726 -0.515747 0)
(0.999699 -0.00577396 0)
(0.997131 -0.0168437 0)
(0.990527 -0.0278299 0)
(0.98235 -0.0394964 0)
(0.967049 -0.0523944 0)
(0.952539 -0.0679047 0)
(0.922674 -0.0868585 0)
(0.902464 -0.112205 0)
(0.841985 -0.144692 0)
(0.825246 -0.193132 0)
(0.680031 -0.246549 0)
(0.754436 -0.370296 0)
(0.325337 -0.258983 0)
(0.315086 -0.253358 0)
(0.224128 -0.238165 0)
(0.144623 -0.195408 0)
(0.0922822 -0.145206 0)
(0.0584598 -0.103563 0)
(0.0381144 -0.0761668 0)
(0.0221701 -0.0673452 0)
(0.00719022 0.0301005 0)
(-0.0768761 0.206776 0)
(-0.12765 0.388999 0)
(-0.196155 0.556134 0)
(-0.272025 0.679097 0)
(-0.335177 0.721342 0)
(-0.359498 0.664506 0)
(-0.330814 0.511665 0)
(-0.260982 0.290149 0)
(-0.174198 0.035825 0)
(-0.0778948 -0.222253 0)
(0.0268042 -0.452893 0)
(0.12849 -0.638832 0)
(0.21916 -0.77212 0)
(0.291919 -0.858264 0)
(0.347721 -0.904732 0)
(0.401108 -0.905846 0)
(0.47056 -0.84397 0)
(0.562226 -0.70923 0)
(0.66603 -0.513026 0)
(0.766474 -0.280341 0)
(0.853185 -0.0352561 0)
(0.922563 0.202896 0)
(0.973982 0.415247 0)
(1.00649 0.582776 0)
(1.01938 0.693297 0)
(1.01408 0.747719 0)
(0.994113 0.758431 0)
(0.963973 0.741907 0)
(0.927467 0.712881 0)
(0.8859 0.683134 0)
(0.838491 0.660243 0)
(0.785656 0.64274 0)
(0.731326 0.61826 0)
(0.682052 0.568605 0)
(0.64276 0.482985 0)
(0.616311 0.359528 0)
(0.600756 0.213386 0)
(0.597697 0.0513454 0)
(0.599941 -0.0987737 0)
(0.614446 -0.245013 0)
(0.624282 -0.353126 0)
(0.64428 -0.447645 0)
(0.650532 -0.519373 0)
(0.999666 -0.00422082 0)
(0.996574 -0.0120763 0)
(0.988887 -0.0195217 0)
(0.979074 -0.0272114 0)
(0.961175 -0.0352266 0)
(0.94342 -0.0450677 0)
(0.908105 -0.0561461 0)
(0.882325 -0.0726347 0)
(0.810637 -0.0902719 0)
(0.78734 -0.122883 0)
(0.623415 -0.145014 0)
(0.699481 -0.223856 0)
(0.301438 -0.138814 0)
(0.312697 -0.116079 0)
(0.229343 -0.10545 0)
(0.152423 -0.0909205 0)
(0.0995763 -0.0739282 0)
(0.0627896 -0.0586872 0)
(0.0365429 -0.0474664 0)
(0.0184318 -0.0308733 0)
(-0.0333385 0.117757 0)
(-0.160424 0.274822 0)
(-0.232482 0.450444 0)
(-0.302809 0.613033 0)
(-0.351395 0.717579 0)
(-0.362768 0.726836 0)
(-0.325287 0.629239 0)
(-0.248771 0.442924 0)
(-0.157624 0.202681 0)
(-0.0666029 -0.0590982 0)
(0.0284547 -0.317247 0)
(0.126113 -0.549334 0)
(0.218944 -0.729732 0)
(0.301165 -0.846288 0)
(0.362332 -0.909192 0)
(0.3956 -0.939573 0)
(0.410842 -0.943691 0)
(0.433261 -0.901403 0)
(0.48236 -0.787802 0)
(0.556868 -0.601559 0)
(0.641664 -0.365818 0)
(0.722614 -0.109773 0)
(0.792574 0.142165 0)
(0.849393 0.369278 0)
(0.892095 0.552825 0)
(0.919407 0.6803 0)
(0.930964 0.750896 0)
(0.928144 0.774961 0)
(0.913774 0.768166 0)
(0.890463 0.746439 0)
(0.859031 0.723435 0)
(0.819466 0.706767 0)
(0.77385 0.692661 0)
(0.727177 0.666333 0)
(0.685737 0.609591 0)
(0.653146 0.513679 0)
(0.631626 0.379113 0)
(0.618675 0.222299 0)
(0.616673 0.0510726 0)
(0.61792 -0.106534 0)
(0.631078 -0.257243 0)
(0.637884 -0.366501 0)
(0.656162 -0.460785 0)
(0.658616 -0.520942 0)
(0.999652 -0.00248364 0)
(0.996237 -0.00668636 0)
(0.987972 -0.0102163 0)
(0.977147 -0.0132456 0)
(0.95797 -0.0159621 0)
(0.93808 -0.0186424 0)
(0.90051 -0.0216601 0)
(0.870552 -0.0254703 0)
(0.795818 -0.0305962 0)
(0.765264 -0.038079 0)
(0.600597 -0.0460416 0)
(0.666627 -0.0654332 0)
(0.28332 -0.0402978 0)
(0.304021 -0.0442083 0)
(0.229806 -0.0479284 0)
(0.157866 -0.0447764 0)
(0.105434 -0.0383975 0)
(0.0667724 -0.0317425 0)
(0.0387485 -0.0253317 0)
(0.019273 -0.000725517 0)
(-0.0159207 0.216499 0)
(-0.141971 0.35717 0)
(-0.207356 0.512183 0)
(-0.257541 0.649683 0)
(-0.268813 0.719672 0)
(-0.234225 0.690278 0)
(-0.159482 0.559549 0)
(-0.0665501 0.358823 0)
(0.0248902 0.117811 0)
(0.111608 -0.14282 0)
(0.193544 -0.401638 0)
(0.272579 -0.635401 0)
(0.346323 -0.81164 0)
(0.410245 -0.912539 0)
(0.456647 -0.947571 0)
(0.474409 -0.94846 0)
(0.462209 -0.940319 0)
(0.442167 -0.911587 0)
(0.444327 -0.825508 0)
(0.480611 -0.661899 0)
(0.540968 -0.435464 0)
(0.609506 -0.178062 0)
(0.675831 0.08065 0)
(0.735402 0.317053 0)
(0.78602 0.51197 0)
(0.825528 0.652875 0)
(0.852143 0.737822 0)
(0.865509 0.775257 0)
(0.866736 0.779804 0)
(0.857016 0.767939 0)
(0.836752 0.754037 0)
(0.806835 0.74474 0)
(0.770747 0.73403 0)
(0.734014 0.705796 0)
(0.702258 0.642676 0)
(0.677769 0.538229 0)
(0.662224 0.394789 0)
(0.652642 0.229527 0)
(0.652157 0.0511165 0)
(0.652529 -0.112874 0)
(0.664124 -0.267114 0)
(0.667475 -0.377353 0)
(0.683503 -0.471073 0)
(0.68175 -0.520643 0)
(0.999647 -0.000650549 0)
(0.996182 -0.00105245 0)
(0.987831 -0.000452323 0)
(0.976895 0.00130617 0)
(0.95759 0.00428497 0)
(0.937563 0.008835 0)
(0.899868 0.0148156 0)
(0.869747 0.0232857 0)
(0.794939 0.0328268 0)
(0.764087 0.0476032 0)
(0.599441 0.0577162 0)
(0.664385 0.0888946 0)
(0.281756 0.0503582 0)
(0.301813 0.0391238 0)
(0.227219 0.0335934 0)
(0.155215 0.0240491 0)
(0.102988 0.0129066 0)
(0.0648434 0.0038919 0)
(0.0402496 -0.00106897 0)
(0.0200786 0.0176252 0)
(0.0287267 0.287669 0)
(-0.0614962 0.425833 0)
(-0.0942186 0.55379 0)
(-0.109541 0.657698 0)
(-0.080009 0.690307 0)
(-0.0120763 0.626832 0)
(0.0793027 0.478745 0)
(0.176208 0.276615 0)
(0.262175 0.0436478 0)
(0.336107 -0.208803 0)
(0.403149 -0.466896 0)
(0.463705 -0.699583 0)
(0.513064 -0.869963 0)
(0.547842 -0.95818 0)
(0.567611 -0.970979 0)
(0.567103 -0.94088 0)
(0.536733 -0.908184 0)
(0.485763 -0.88028 0)
(0.445132 -0.820138 0)
(0.439774 -0.688401 0)
(0.469564 -0.483798 0)
(0.520009 -0.235921 0)
(0.578452 0.0214236 0)
(0.63781 0.260907 0)
(0.693864 0.462359 0)
(0.743163 0.613055 0)
(0.782688 0.710102 0)
(0.810605 0.760285 0)
(0.82637 0.77714 0)
(0.82985 0.776983 0)
(0.821273 0.773707 0)
(0.802471 0.772251 0)
(0.777896 0.764716 0)
(0.753006 0.734743 0)
(0.73252 0.666466 0)
(0.717453 0.555601 0)
(0.708981 0.405781 0)
(0.703614 0.234464 0)
(0.705147 0.0510018 0)
(0.704835 -0.117715 0)
(0.714626 -0.274285 0)
(0.713994 -0.384977 0)
(0.727168 -0.477894 0)
(0.720028 -0.518089 0)
(0.999648 0.0011395 0)
(0.996418 0.00448404 0)
(0.988456 0.00904615 0)
(0.978352 0.0155355 0)
(0.960012 0.0237872 0)
(0.941961 0.0356112 0)
(0.906068 0.0494741 0)
(0.880154 0.0709437 0)
(0.807655 0.0923926 0)
(0.784414 0.133261 0)
(0.61936 0.156069 0)
(0.693978 0.248534 0)
(0.297714 0.14974 0)
(0.306685 0.110658 0)
(0.221383 0.0907112 0)
(0.143987 0.0699869 0)
(0.0917466 0.047891 0)
(0.0559559 0.0285353 0)
(0.0366885 0.0138479 0)
(0.0151889 0.0186213 0)
(0.0701025 0.313989 0)
(0.0432331 0.468156 0)
(0.0549071 0.56635 0)
(0.0855075 0.635389 0)
(0.152765 0.63583 0)
(0.245764 0.548642 0)
(0.34743 0.395464 0)
(0.440243 0.201783 0)
(0.515448 -0.0182336 0)
(0.578122 -0.26105 0)
(0.634064 -0.51465 0)
(0.678734 -0.741408 0)
(0.704258 -0.89941 0)
(0.707279 -0.971483 0)
(0.692266 -0.967668 0)
(0.665314 -0.915778 0)
(0.619629 -0.857641 0)
(0.550331 -0.819061 0)
(0.477672 -0.776342 0)
(0.433373 -0.679541 0)
(0.430136 -0.507456 0)
(0.458757 -0.280212 0)
(0.505648 -0.0330443 0)
(0.561507 0.203206 0)
(0.620157 0.406337 0)
(0.676533 0.563129 0)
(0.726424 0.669784 0)
(0.766657 0.731692 0)
(0.7952 0.761225 0)
(0.810928 0.77375 0)
(0.814169 0.781631 0)
(0.807564 0.787781 0)
(0.796033 0.783011 0)
(0.784477 0.751626 0)
(0.776509 0.679644 0)
(0.771922 0.564637 0)
(0.771493 0.411111 0)
(0.771146 0.236389 0)
(0.775159 0.0503758 0)
(0.774371 -0.120959 0)
(0.782147 -0.278393 0)
(0.777016 -0.388651 0)
(0.786837 -0.480371 0)
(0.772732 -0.512489 0)
(0.999678 0.0027937 0)
(0.996866 0.00951935 0)
(0.989862 0.0177348 0)
(0.981143 0.0282946 0)
(0.965271 0.0414737 0)
(0.950041 0.0590076 0)
(0.919684 0.0808013 0)
(0.898443 0.111027 0)
(0.83804 0.147722 0)
(0.818874 0.203443 0)
(0.6761 0.259918 0)
(0.741408 0.392487 0)
(0.317169 0.272666 0)
(0.305222 0.254248 0)
(0.211916 0.226793 0)
(0.131096 0.17348 0)
(0.0786937 0.116033 0)
(0.0447735 0.06911 0)
(0.0291815 0.0350314 0)
(0.00649835 0.0066117 0)
(0.0900215 0.263336 0)
(0.154703 0.438321 0)
(0.219128 0.525602 0)
(0.293781 0.566087 0)
(0.391033 0.543728 0)
(0.500316 0.449976 0)
(0.603655 0.303632 0)
(0.686612 0.126211 0)
(0.751196 -0.075075 0)
(0.809033 -0.307678 0)
(0.860588 -0.554384 0)
(0.892388 -0.768089 0)
(0.894116 -0.904814 0)
(0.866612 -0.953368 0)
(0.817972 -0.932735 0)
(0.761456 -0.869159 0)
(0.70019 -0.794275 0)
(0.622821 -0.740382 0)
(0.532435 -0.703816 0)
(0.45747 -0.637997 0)
(0.422561 -0.503998 0)
(0.427922 -0.306931 0)
(0.460783 -0.0788564 0)
(0.510075 0.147045 0)
(0.568098 0.346687 0)
(0.628546 0.505744 0)
(0.685903 0.619364 0)
(0.735721 0.691641 0)
(0.774793 0.733543 0)
(0.801441 0.758712 0)
(0.816287 0.777272 0)
(0.822494 0.790155 0)
(0.824954 0.787599 0)
(0.827629 0.755219 0)
(0.832947 0.68106 0)
(0.839582 0.564279 0)
(0.847868 0.409884 0)
(0.853143 0.234681 0)
(0.859977 0.0488972 0)
(0.858917 -0.122605 0)
(0.864591 -0.27917 0)
(0.854571 -0.387823 0)
(0.86076 -0.477641 0)
(0.83815 -0.502901 0)
(0.999672 0.00419323 0)
(0.997601 0.0138308 0)
(0.991637 0.0249653 0)
(0.985396 0.0390624 0)
(0.971815 0.0556343 0)
(0.962554 0.0785846 0)
(0.935581 0.103986 0)
(0.929379 0.14547 0)
(0.870035 0.181992 0)
(0.894608 0.273306 0)
(0.726311 0.302406 0)
(0.916538 0.598388 0)
(0.336248 0.399401 0)
(0.238573 0.237432 0)
(0.117577 0.175252 0)
(0.0532744 0.131288 0)
(0.0264758 0.0894254 0)
(0.0129711 0.05541 0)
(0.00451949 0.0267823 0)
(-0.00712043 -0.0081655 0)
(0.034227 0.175032 0)
(0.186527 0.348775 0)
(0.325333 0.443703 0)
(0.454792 0.47706 0)
(0.582067 0.448051 0)
(0.700774 0.359285 0)
(0.799919 0.227579 0)
(0.879741 0.0662788 0)
(0.951888 -0.129729 0)
(1.02143 -0.359701 0)
(1.07576 -0.592574 0)
(1.09354 -0.779062 0)
(1.06729 -0.883842 0)
(1.00768 -0.904886 0)
(0.929718 -0.868049 0)
(0.847806 -0.800734 0)
(0.771933 -0.721571 0)
(0.693156 -0.655268 0)
(0.599545 -0.614984 0)
(0.506793 -0.570722 0)
(0.445158 -0.475186 0)
(0.426791 -0.314954 0)
(0.443419 -0.114048 0)
(0.483523 0.0951976 0)
(0.538324 0.286421 0)
(0.599916 0.443933 0)
(0.661682 0.56181 0)
(0.718177 0.642784 0)
(0.765435 0.696006 0)
(0.801602 0.732767 0)
(0.827609 0.760639 0)
(0.846761 0.778897 0)
(0.863487 0.777862 0)
(0.8806 0.744917 0)
(0.899376 0.67011 0)
(0.917438 0.553887 0)
(0.934634 0.40149 0)
(0.945814 0.228853 0)
(0.9557 0.0461834 0)
(0.954632 -0.122835 0)
(0.958332 -0.276547 0)
(0.943267 -0.382223 0)
(0.94579 -0.469086 0)
(0.913528 -0.488466 0)
(0.999658 0.00525675 0)
(0.998476 0.0172122 0)
(0.993694 0.0303719 0)
(0.990369 0.0472666 0)
(0.979427 0.0656441 0)
(0.976787 0.0928507 0)
(0.954565 0.118912 0)
(0.962443 0.168319 0)
(0.91449 0.202297 0)
(0.964682 0.306106 0)
(0.864504 0.344596 0)
(1.03359 0.570244 0)
(0.980093 0.726846 0)
(0.956052 0.637975 0)
(0.839862 0.475791 0)
(0.668527 0.318426 0)
(0.503027 0.192617 0)
(0.380818 0.104651 0)
(0.273624 0.0578746 0)
(0.21421 -0.0109435 0)
(0.143921 0.0306475 0)
(0.212435 0.142504 0)
(0.353259 0.239365 0)
(0.51177 0.290299 0)
(0.66648 0.283683 0)