/*--------------------------------*- C++ -*----------------------------------*\
  =========                 |
  \\      /  F ield         | OpenFOAM: The Open Source CFD Toolbox
   \\    /   O peration     | Website:  https://openfoam.org
    \\  /    A nd           | Version:  10
     \\/     M anipulation  |
\*---------------------------------------------------------------------------*/
FoamFile
{
    format      ascii;
    class       surfaceScalarField;
    location    "0.32";
    object      phi;
}
// * * * * * * * * * * * * * * * * * * * * * * * * * * * * * * * * * * * * * //

dimensions      [0 3 -1 0 0 0 0];

internalField   nonuniform List<scalar> 
24170
(
1.2092e-09
-1.2092e-09
2.2372e-09
-1.02799e-09
3.04091e-09
-8.03712e-10
3.63846e-09
-5.97557e-10
4.07492e-09
-4.36455e-10
4.39964e-09
-3.24717e-10
4.65683e-09
-2.57195e-10
4.88448e-09
-2.27653e-10
5.11866e-09
-2.34172e-10
5.40625e-09
-2.87598e-10
5.85049e-09
-4.4424e-10
6.83354e-09
-9.83043e-10
1.38677e-08
-7.03416e-09
9.06894e-09
4.79875e-09
8.43508e-09
6.33858e-10
8.92747e-09
-4.92391e-10
1.0413e-08
-1.48557e-09
-4.55332e-09
1.49664e-08
1.44232e-09
-2.65152e-09
2.66321e-09
-2.24889e-09
3.6127e-09
-1.7532e-09
4.31371e-09
-1.29856e-09
4.81981e-09
-9.42561e-10
5.18828e-09
-6.93177e-10
5.46897e-09
-5.37891e-10
5.703e-09
-4.61683e-10
5.9268e-09
-4.57972e-10
6.18337e-09
-5.44168e-10
6.55385e-09
-8.14717e-10
7.23833e-09
-1.66752e-09
6.60085e-09
-6.39668e-09
8.89787e-09
2.50173e-09
8.8754e-09
6.56329e-10
9.40344e-09
-1.02043e-09
1.06084e-08
-2.69054e-09
-6.3742e-09
1.24293e-08
1.62746e-09
-4.27898e-09
2.99486e-09
-3.61628e-09
4.04746e-09
-2.80581e-09
4.81533e-09
-2.06643e-09
5.36182e-09
-1.48905e-09
5.75244e-09
-1.0838e-09
6.04288e-09
-8.28336e-10
6.27777e-09
-6.96567e-10
6.49433e-09
-6.74532e-10
6.72928e-09
-7.79118e-10
7.02479e-09
-1.11023e-09
7.37059e-09
-2.01332e-09
5.90355e-09
-4.92964e-09
8.89028e-09
-4.85003e-10
9.2281e-09
3.18505e-10
9.7586e-09
-1.55092e-09
1.06011e-08
-3.533e-09
-6.89992e-09
1.11268e-08
1.82969e-09
-6.10867e-09
3.35147e-09
-5.13806e-09
4.50657e-09
-3.96091e-09
5.33597e-09
-2.89582e-09
5.91616e-09
-2.06924e-09
6.32284e-09
-1.49048e-09
6.61831e-09
-1.1238e-09
6.85056e-09
-9.2882e-10
7.05647e-09
-8.80437e-10
7.2631e-09
-9.85751e-10
7.47087e-09
-1.318e-09
7.52785e-09
-2.07031e-09
6.11523e-09
-3.51702e-09
8.98237e-09
-3.35214e-09
9.52303e-09
-2.22152e-10
1.00202e-08
-2.04808e-09
1.05448e-08
-4.05764e-09
-6.84966e-09
1.04946e-08
2.0658e-09
-8.17447e-09
3.76085e-09
-6.83311e-09
5.02341e-09
-5.22348e-09
5.91115e-09
-3.78356e-09
6.51844e-09
-2.67653e-09
6.93391e-09
-1.90595e-09
7.22755e-09
-1.41744e-09
7.45086e-09
-1.15213e-09
7.63972e-09
-1.06929e-09
7.81167e-09
-1.1577e-09
7.93835e-09
-1.44467e-09
7.83244e-09
-1.9644e-09
6.78648e-09
-2.47106e-09
9.184e-09
-5.74966e-09
9.78942e-09
-8.27568e-10
1.02236e-08
-2.48227e-09
1.05112e-08
-4.34527e-09
-6.57008e-09
1.02317e-08
2.35128e-09
-1.05258e-08
4.24616e-09
-8.72798e-09
5.62268e-09
-6.60001e-09
6.56403e-09
-4.7249e-09
7.18929e-09
-3.30179e-09
7.6036e-09
-2.32026e-09
7.88603e-09
-1.69988e-09
8.09187e-09
-1.35796e-09
8.25618e-09
-1.23361e-09
8.39021e-09
-1.29174e-09
8.4562e-09
-1.51065e-09
8.30313e-09
-1.81134e-09
7.64369e-09
-1.81161e-09
9.48988e-09
-7.59586e-09
1.00512e-08
-1.38886e-09
1.04016e-08
-2.83265e-09
1.05285e-08
-4.47224e-09
-6.22186e-09
1.01803e-08
2.70637e-09
-1.32321e-08
4.8359e-09
-1.08575e-08
6.33243e-09
-8.09653e-09
7.31873e-09
-5.7112e-09
7.94834e-09
-3.93141e-09
8.34753e-09
-2.71945e-09
8.60612e-09
-1.95847e-09
8.78358e-09
-1.53542e-09
8.91508e-09
-1.36511e-09
9.01039e-09
-1.38705e-09
9.03955e-09
-1.53981e-09
8.91551e-09
-1.6873e-09
8.57929e-09
-1.47538e-09
9.89008e-09
-8.90666e-09
1.03224e-08
-1.82114e-09
1.05778e-08
-3.08804e-09
1.06034e-08
-4.49789e-09
-5.87653e-09
1.02581e-08
3.16057e-09
-1.63927e-08
5.56925e-09
-1.32662e-08
7.18884e-09
-9.71612e-09
8.2044e-09
-6.72676e-09
8.81779e-09
-4.5448e-09
9.18229e-09
-3.08395e-09
9.40016e-09
-2.17634e-09
9.5354e-09
-1.67066e-09
9.6244e-09
-1.45411e-09
9.67999e-09
-1.44264e-09
9.69076e-09
-1.55058e-09
9.63414e-09
-1.63068e-09
9.5609e-09
-1.40214e-09
1.03398e-08
-9.68558e-09
1.06004e-08
-2.08169e-09
1.07639e-08
-3.25153e-09
1.07325e-08
-4.46649e-09
-5.56552e-09
1.04214e-08
3.75918e-09
-2.01519e-08
6.50272e-09
-1.60097e-08
8.24082e-09
-1.14542e-08
9.25798e-09
-7.74393e-09
9.82416e-09
-5.11098e-09
1.01266e-08
-3.3864e-09
1.02814e-08
-2.3311e-09
1.03567e-08
-1.74602e-09
1.03907e-08
-1.48807e-09
1.04018e-08
-1.45371e-09
1.04003e-08
-1.54912e-09
1.0418e-08
-1.64836e-09
1.05683e-08
-1.5525e-09
1.07408e-08
-9.85809e-09
1.08617e-08
-2.20252e-09
1.0959e-08
-3.34882e-09
1.09077e-08
-4.41518e-09
-5.30462e-09
1.06468e-08
4.57504e-09
-2.47269e-08
7.72047e-09
-1.91552e-08
9.55578e-09
-1.32895e-08
1.0527e-08
-8.71511e-09
1.09995e-08
-5.58347e-09
1.12019e-08
-3.58882e-09
1.1264e-08
-2.39325e-09
1.12569e-08
-1.73888e-09
1.12188e-08
-1.45002e-09
1.11732e-08
-1.40808e-09
1.11479e-08
-1.52379e-09
1.12131e-08
-1.71359e-09
1.15386e-08
-1.87799e-09
1.09733e-08
-9.29273e-09
1.10686e-08
-2.29786e-09
1.11536e-08
-3.4338e-09
1.11202e-08
-4.38178e-09
-5.10594e-09
1.09215e-08
5.73082e-09
-3.04577e-08
9.35112e-09
-2.27755e-08
1.12276e-08
-1.5166e-08
1.2072e-08
-9.55954e-09
1.23816e-08
-5.89304e-09
1.24318e-08
-3.63902e-09
1.2363e-08
-2.32447e-09
1.22447e-08
-1.62054e-09
1.21118e-08
-1.31717e-09
1.19875e-08
-1.28378e-09
1.19052e-08
-1.44144e-09
1.19461e-08
-1.7545e-09
1.2308e-08
-2.2399e-09
1.08876e-08
-7.87233e-09
1.11812e-08
-2.59149e-09
1.13393e-08
-3.59189e-09
1.13656e-08
-4.40803e-09
-4.98189e-09
1.12415e-08
6.177e-09
-3.66347e-08
9.65146e-09
-2.62499e-08
1.11715e-08
-1.6686e-08
1.1681e-08
-1.00691e-08
1.17359e-08
-5.9479e-09
1.16041e-08
-3.50723e-09
1.14052e-08
-2.1256e-09
1.11903e-08
-1.40569e-09
1.09812e-08
-1.10805e-09
1.07904e-08
-1.093e-09
1.06367e-08
-1.28772e-09
1.05629e-08
-1.68066e-09
1.06632e-08
-2.34023e-09
8.65263e-09
-5.86175e-09
9.45104e-09
-3.38989e-09
9.72723e-09
-3.86808e-09
9.82404e-09
-4.50484e-09
-4.94212e-09
9.78428e-09
9.26523e-09
-4.59e-08
1.36879e-08
-3.06725e-08
1.5159e-08
-1.81571e-08
1.53498e-08
-1.02599e-08
1.50733e-08
-5.67141e-09
1.46599e-08
-3.0938e-09
1.42313e-08
-1.69709e-09
1.38269e-08
-1.00123e-09
1.3455e-08
-7.36138e-10
1.31147e-08
-7.52754e-10
1.28043e-08
-9.77254e-10
1.25161e-08
-1.39249e-09
1.21946e-08
-2.01869e-09
9.9691e-09
-3.6363e-09
1.09101e-08
-4.33091e-09
1.13492e-08
-4.30712e-09
1.15453e-08
-4.701e-09
-4.97084e-09
1.1574e-08
1.51142e-08
-6.10142e-08
2.04119e-08
-3.59702e-08
2.11933e-08
-1.89386e-08
2.05371e-08
-9.60368e-09
1.95745e-08
-4.70881e-09
1.8646e-08
-2.16528e-09
1.78284e-08
-8.79536e-10
1.71181e-08
-2.90833e-10
1.64903e-08
-1.08417e-10
1.59161e-08
-1.78535e-10
1.53598e-08
-4.20976e-10
1.47602e-08
-7.92846e-10
1.39805e-08
-1.23899e-09
1.21364e-08
-1.79226e-09
1.27226e-08
-4.91711e-09
1.32944e-08
-4.87883e-09
1.35998e-08
-5.00642e-09
-5.08629e-09
1.37152e-08
2.79538e-08
-8.89679e-08
3.24649e-08
-4.04813e-08
3.06298e-08
-1.71035e-08
2.79619e-08
-6.93577e-09
2.56626e-08
-2.40949e-09
2.38391e-08
-3.41754e-10
2.23965e-08
5.63045e-10
2.12186e-08
8.87082e-10
2.02124e-08
8.97769e-10
1.93041e-08
7.29752e-10
1.8425e-08
4.5811e-10
1.75e-08
1.32185e-10
1.64584e-08
-1.97355e-10
1.51451e-08
-4.7899e-10
1.51113e-08
-4.88329e-09
1.57484e-08
-5.51591e-09
1.61474e-08
-5.40548e-09
-5.29102e-09
1.63521e-08
6.23906e-08
-1.51359e-07
5.54049e-08
-3.34956e-08
4.5369e-08
-7.06765e-09
3.83478e-08
8.5458e-11
3.37066e-08
2.23171e-09
3.04895e-08
2.87536e-09
2.81198e-08
2.93268e-09
2.62726e-08
2.7343e-09
2.4749e-08
2.42136e-09
2.34136e-08
2.06517e-09
2.21625e-08
1.70919e-09
2.09133e-08
1.38143e-09
1.96349e-08
1.08102e-09
1.8355e-08
8.00943e-10
1.82305e-08
-4.75885e-09
1.89657e-08
-6.25104e-09
1.94517e-08
-5.89151e-09
-5.57243e-09
1.97331e-08
1.83397e-07
1.65181e-07
9.67989e-08
5.31022e-08
6.5731e-08
2.40002e-08
5.14633e-08
1.43532e-08
4.35067e-08
1.01883e-08
3.84571e-08
7.92497e-09
3.49313e-08
6.45842e-09
3.22791e-08
5.38653e-09
3.01564e-08
4.54403e-09
2.83598e-08
3.86176e-09
2.6747e-08
3.322e-09
2.51775e-08
2.95094e-09
2.34361e-08
2.82245e-09
2.07516e-08
3.48543e-09
2.25718e-08
-6.57905e-09
2.34636e-08
-7.14287e-09
2.39964e-08
-6.42435e-09
-5.87214e-09
2.42961e-08
7.64649e-08
8.8716e-08
7.41372e-08
5.54298e-08
6.35517e-08
3.45857e-08
5.48606e-08
2.30443e-08
4.85431e-08
1.65058e-08
4.39106e-08
1.25575e-08
4.0382e-08
9.98702e-09
3.75824e-08
8.18612e-09
3.52878e-08
6.83857e-09
3.33841e-08
5.76551e-09
3.18613e-08
4.84482e-09
3.08488e-08
3.96337e-09
3.06853e-08
2.986e-09
2.90565e-08
5.11425e-09
3.04874e-08
-8.00996e-09
3.06192e-08
-7.2747e-09
3.07449e-08
-6.54999e-09
-5.93225e-09
3.0805e-08
3.55552e-08
5.31607e-08
4.91e-08
4.18851e-08
5.20894e-08
3.15963e-08
5.1113e-08
2.40207e-08
4.88677e-08
1.87512e-08
4.63489e-08
1.50763e-08
4.38988e-08
1.24371e-08
4.16138e-08
1.04711e-08
3.94891e-08
8.96332e-09
3.74641e-08
7.79049e-09
3.5438e-08
6.87096e-09
3.32826e-08
6.11868e-09
3.06711e-08
5.59756e-09
4.04005e-08
-4.61512e-09
4.04457e-08
-8.05516e-09
4.03283e-08
-7.15737e-09
4.01511e-08
-6.37274e-09
-5.70059e-09
3.99194e-08
1.44277e-08
3.8733e-08
2.32672e-08
3.30456e-08
2.77398e-08
2.71238e-08
2.9569e-08
2.21914e-08
2.99224e-08
1.83977e-08
2.94874e-08
1.55113e-08
2.86665e-08
1.32581e-08
2.76965e-08
1.14411e-08
2.67024e-08
9.95736e-09
2.57039e-08
8.78905e-09
2.46151e-08
7.95975e-09
2.33015e-08
7.43223e-09
2.7029e-08
1.87012e-09
3.21418e-08
-9.72791e-09
3.21684e-08
-8.08183e-09
3.19263e-08
-6.91523e-09
3.15765e-08
-6.02297e-09
-5.30923e-09
3.11852e-08
8.95451e-09
2.97785e-08
1.55022e-08
2.64979e-08
1.96595e-08
2.29664e-08
2.19696e-08
1.98813e-08
2.29771e-08
1.73902e-08
2.31298e-08
1.53586e-08
2.27923e-08
1.35956e-08
2.22545e-08
1.19789e-08
2.17501e-08
1.04617e-08
2.14086e-08
9.13056e-09
2.11399e-08
8.22842e-09
2.16041e-08
6.96809e-09
3.29785e-08
-9.50428e-09
3.15343e-08
-8.28372e-09
3.05836e-08
-7.13112e-09
2.98365e-08
-6.16819e-09
2.91915e-08
-5.37797e-09
-4.72784e-09
2.86102e-08
6.38349e-09
2.3395e-08
1.14767e-08
2.14047e-08
1.50948e-08
1.93484e-08
1.73562e-08
1.76199e-08
1.8475e-08
1.62714e-08
1.87292e-08
1.51045e-08
1.84506e-08
1.38742e-08
1.79435e-08
1.2486e-08
1.75818e-08
1.08234e-08
1.77758e-08
8.93653e-09
1.62058e-08
9.79849e-09
3.18677e-08
-8.69388e-09
3.04354e-08
-8.07199e-09
2.92068e-08
-7.05506e-09
2.81955e-08
-6.11982e-09
2.73411e-08
-5.31384e-09
2.65998e-08
-4.63667e-09
-4.0717e-09
2.59437e-08
4.97317e-09
1.84218e-08
9.15428e-09
1.72236e-08
1.23422e-08
1.61604e-08
1.44678e-08
1.54943e-08
1.55252e-08
1.5214e-08
1.56596e-08
1.497e-08
1.52223e-08
1.43115e-08
1.44185e-08
1.32899e-08
1.36916e-08
1.15502e-08
1.17828e-08
1.08453e-08
2.90584e-08
-7.47703e-09
2.85916e-08
-8.2271e-09
2.75314e-08
-7.0118e-09
2.64834e-08
-6.007e-09
2.55315e-08
-5.16792e-09
2.46874e-08
-4.46982e-09
2.39413e-08
-3.89056e-09
-3.4094e-09
2.3279e-08
4.08787e-09
1.4334e-08
7.66154e-09
1.36499e-08
1.05522e-08
1.32698e-08
1.25925e-08
1.3454e-08
1.35748e-08
1.42317e-08
1.34892e-08
1.50557e-08
1.28875e-08
1.49132e-08
1.16573e-08
1.45201e-08
1.00711e-08
1.31365e-08
2.47479e-08
-3.8316e-09
2.67086e-08
-9.43769e-09
2.58142e-08
-7.33273e-09
2.47867e-08
-5.98427e-09
2.37899e-08
-5.01019e-09
2.28806e-08
-4.25868e-09
2.20701e-08
-3.65934e-09
2.13524e-08
-3.17276e-09
-2.77313e-09
2.07161e-08
3.45757e-09
1.08764e-08
6.5852e-09
1.05223e-08
9.27194e-09
1.05831e-08
1.13145e-08
1.14115e-08
1.22857e-08
1.32604e-08
1.18741e-08
1.54673e-08
1.13115e-08
1.54758e-08
9.63728e-09
1.61942e-08
1.81316e-08
4.64219e-09
2.58471e-08
-1.15471e-08
2.4509e-08
-8.09962e-09
2.3306e-08
-6.12977e-09
2.22077e-08
-4.88597e-09
2.12228e-08
-4.02521e-09
2.03516e-08
-3.3875e-09
1.95856e-08
-2.89337e-09
1.89122e-08
-2.4994e-09
-2.17929e-09
1.83184e-08
2.95847e-09
7.91793e-09
5.71933e-09
7.76143e-09
8.2471e-09
8.0553e-09
1.03752e-08
9.28337e-09
1.14655e-08
1.21701e-08
1.0494e-08
1.64389e-08
1.04338e-08
1.5536e-08
1.06713e-08
1.59566e-08
2.68515e-08
-1.1538e-08
2.40221e-08
-8.71766e-09
2.22443e-08
-6.32186e-09
2.08869e-08
-4.77229e-09
1.97651e-08
-3.7642e-09
1.88114e-08
-3.07154e-09
1.79913e-08
-2.56739e-09
1.72811e-08
-2.18316e-09
1.66622e-08
-1.88052e-09
-1.63658e-09
1.61195e-08
2.53279e-09
5.38513e-09
4.96157e-09
5.33265e-09
7.3312e-09
5.68567e-09
9.5966e-09
7.01797e-09
1.10337e-08
1.07331e-08
9.0315e-09
1.84411e-08
5.71932e-09
1.88482e-08
2.75361e-08
-5.8601e-09
2.42487e-08
-8.25064e-09
2.17013e-08
-6.17022e-09
1.9907e-08
-4.52754e-09
1.85538e-08
-3.41911e-09
1.74733e-08
-2.68375e-09
1.65799e-08
-2.17814e-09
1.58255e-08
-1.81294e-09
1.51794e-08
-1.53713e-09
1.46204e-08
-1.32148e-09
-1.14857e-09
1.41324e-08
2.15176e-09
3.23337e-09
4.26056e-09
3.22386e-09
6.4388e-09
3.50743e-09
8.83186e-09
4.62491e-09
1.09877e-08
8.57719e-09
7.52221e-09
2.19066e-08
2.12091e-08
5.1613e-09
2.44061e-08
-9.0571e-09
2.15809e-08
-5.42547e-09
1.92997e-08
-3.88904e-09
1.76239e-08
-2.85166e-09
1.63578e-08
-2.15306e-09
1.536e-08
-1.68593e-09
1.45462e-08
-1.36436e-09
1.38662e-08
-1.1329e-09
1.32879e-08
-9.58895e-10
1.27899e-08
-8.23414e-10
-7.15115e-10
1.23564e-08
1.78798e-09
1.44539e-09
3.57031e-09
1.44153e-09
5.49957e-09
1.57817e-09
7.91549e-09
2.20898e-09
1.12802e-08
5.21246e-09
6.09169e-09
2.70951e-08
2.61136e-08
-1.48606e-08
2.18618e-08
-4.80533e-09
1.90564e-08
-2.6201e-09
1.69966e-08
-1.82917e-09
1.54828e-08
-1.33793e-09
1.43396e-08
-1.00979e-09
1.34435e-08
-7.89848e-10
1.27175e-08
-6.38345e-10
1.2114e-08
-5.29448e-10
1.16029e-08
-4.4776e-10
1.11638e-08
-3.84279e-10
-3.3361e-10
1.07822e-08
1.44539e-09
2.88692e-09
4.46509e-09
6.67407e-09
1.18865e-08
3.89817e-08
2.41211e-08
1.93158e-08
1.66957e-08
1.48665e-08
1.35286e-08
1.25188e-08
1.17289e-08
1.10906e-08
1.05611e-08
1.01134e-08
9.72909e-09
9.39548e-09
2.35501e-10
-2.35501e-10
4.72357e-10
-2.36857e-10
7.10298e-10
-2.37941e-10
9.49043e-10
-2.38745e-10
1.1883e-09
-2.3926e-10
1.42778e-09
-2.39481e-10
1.66719e-09
-2.39404e-10
1.90621e-09
-2.39026e-10
2.14456e-09
-2.38346e-10
2.38193e-09
-2.37366e-10
2.61801e-09
-2.36089e-10
2.85253e-09
-2.34519e-10
3.0852e-09
-2.32664e-10
3.31573e-09
-2.30533e-10
3.54386e-09
-2.28134e-10
3.76934e-09
-2.25479e-10
3.99192e-09
-2.22581e-10
4.21138e-09
-2.19453e-10
4.42749e-09
-2.1611e-10
4.64006e-09
-2.12568e-10
4.8489e-09
-2.08841e-10
5.05384e-09
-2.04947e-10
5.25474e-09
-2.00901e-10
5.45146e-09
-1.96721e-10
5.64389e-09
-1.92422e-10
5.83191e-09
-1.88021e-10
6.01544e-09
-1.83535e-10
6.19442e-09
-1.78977e-10
6.36878e-09
-1.74363e-10
6.53849e-09
-1.69708e-10
6.70352e-09
-1.65025e-10
6.86384e-09
-1.60326e-10
7.01947e-09
-1.55624e-10
7.1704e-09
-1.50931e-10
7.31665e-09
-1.46256e-10
7.45826e-09
-1.41609e-10
7.59526e-09
-1.36999e-10
7.7277e-09
-1.32435e-10
7.85562e-09
-1.27923e-10
7.97909e-09
-1.2347e-10
8.09817e-09
-1.19082e-10
8.21293e-09
-1.14765e-10
8.32346e-09
-1.10522e-10
8.42982e-09
-1.06358e-10
8.53209e-09
-1.02276e-10
8.63037e-09
-9.828e-11
8.72474e-09
-9.4371e-11
8.81529e-09
-9.05514e-11
8.90212e-09
-8.68227e-11
8.9853e-09
-8.31862e-11
9.06495e-09
-7.96424e-11
9.14114e-09
-7.61921e-11
9.21397e-09
-7.28352e-11
9.28354e-09
-6.95718e-11
9.34995e-09
-6.64014e-11
9.41327e-09
-6.33234e-11
9.47361e-09
-6.03375e-11
9.53105e-09
-5.74422e-11
9.58569e-09
-5.46369e-11
9.63761e-09
-5.19202e-11
9.6869e-09
-4.92908e-11
9.73364e-09
-4.67474e-11
9.77793e-09
-4.42885e-11
9.81985e-09
-4.19124e-11
9.85946e-09
-3.96175e-11
9.89686e-09
-3.74022e-11
9.93213e-09
-3.52647e-11
9.96533e-09
-3.32031e-11
9.99655e-09
-3.1216e-11
1.00258e-08
-2.9301e-11
1.00533e-08
-2.74569e-11
1.0079e-08
-2.56814e-11
1.0103e-08
-2.39728e-11
1.01253e-08
-2.23292e-11
1.0146e-08
-2.07488e-11
1.01653e-08
-1.92299e-11
1.0183e-08
-1.77704e-11
1.01994e-08
-1.63688e-11
1.02144e-08
-1.50229e-11
1.02282e-08
-1.37313e-11
1.02407e-08
-1.24921e-11
1.0252e-08
-1.13036e-11
1.02621e-08
-1.01641e-11
1.02712e-08
-9.07195e-12
1.02792e-08
-8.0255e-12
1.02862e-08
-7.02298e-12
1.02923e-08
-6.06309e-12
1.02974e-08
-5.144e-12
1.03017e-08
-4.26438e-12
1.03051e-08
-3.42275e-12
1.03078e-08
-2.61747e-12
1.03096e-08
-1.84731e-12
1.03107e-08
-1.1107e-12
1.03111e-08
-4.0659e-13
1.03109e-08
2.66732e-13
1.03099e-08
9.10248e-13
1.03084e-08
1.5252e-12
1.03063e-08
2.11309e-12
1.03036e-08
2.6748e-12
1.03004e-08
3.21166e-12
1.02967e-08
3.72459e-12
1.02925e-08
4.21494e-12
1.02878e-08
4.68337e-12
1.02827e-08
5.13137e-12
1.02771e-08
5.55942e-12
1.02711e-08
5.96885e-12
1.02648e-08
6.36037e-12
1.0258e-08
6.73497e-12
1.02509e-08
7.09337e-12
1.02435e-08
7.4365e-12
1.02357e-08
7.76515e-12
1.02277e-08
8.08005e-12
1.02193e-08
8.38186e-12
1.02106e-08
8.67135e-12
1.02017e-08
8.94919e-12
1.01924e-08
9.21614e-12
1.0183e-08
9.47252e-12
1.01733e-08
9.7194e-12
1.01633e-08
9.95676e-12
1.01531e-08
1.01857e-11
1.01427e-08
1.04064e-11
1.01321e-08
1.06195e-11
1.01213e-08
1.08254e-11
1.01102e-08
1.10247e-11
1.0099e-08
1.12177e-11
1.00876e-08
1.14047e-11
1.0076e-08
1.15866e-11
1.00643e-08
1.17632e-11
1.00523e-08
1.19351e-11
1.00402e-08
1.21028e-11
1.0028e-08
1.22663e-11
1.00155e-08
1.24263e-11
1.0003e-08
1.25826e-11
9.99021e-09
1.2736e-11
9.97733e-09
1.28866e-11
9.96429e-09
1.30346e-11
9.95111e-09
1.31801e-11
9.93779e-09
1.33239e-11
9.92432e-09
1.34657e-11
9.91072e-09
1.36058e-11
9.89697e-09
1.37447e-11
9.88309e-09
1.38825e-11
9.86907e-09
1.40196e-11
9.85491e-09
1.41561e-11
9.84062e-09
1.42923e-11
9.82619e-09
1.44285e-11
9.81163e-09
1.4565e-11
9.79693e-09
1.47024e-11
9.78209e-09
1.48411e-11
9.7671e-09
1.49815e-11
9.75198e-09
1.51242e-11
9.73671e-09
1.52703e-11
9.72129e-09
1.54205e-11
9.70571e-09
1.5576e-11
9.68997e-09
1.57384e-11
9.67406e-09
1.59095e-11
9.65797e-09
1.60919e-11
9.64168e-09
1.62884e-11
9.62518e-09
1.65029e-11
9.60844e-09
1.67405e-11
9.59143e-09
1.70076e-11
9.57412e-09
1.73124e-11
9.55645e-09
1.76661e-11
9.53837e-09
1.80828e-11
9.51979e-09
1.85815e-11
9.5006e-09
1.91873e-11
9.48067e-09
1.9934e-11
9.4598e-09
2.08677e-11
9.43775e-09
2.20519e-11
9.41417e-09
2.35756e-11
9.38861e-09
2.55671e-11
9.36039e-09
2.82158e-11
9.32858e-09
3.18118e-11
9.29176e-09
3.68218e-11
9.24771e-09
4.40433e-11
9.19276e-09
5.49592e-11
9.12008e-09
7.26716e-11
9.0152e-09
1.04885e-10
8.83887e-09
1.76333e-10
4.0113e-10
8.43774e-09
2.36721e-10
-4.72221e-10
4.74796e-10
-4.74932e-10
7.13947e-10
-4.77092e-10
9.53886e-10
-4.78684e-10
1.19432e-09
-4.79692e-10
1.43494e-09
-4.80104e-10
1.67545e-09
-4.79912e-10
1.91554e-09
-4.79112e-10
2.15489e-09
-4.77702e-10
2.39321e-09
-4.75686e-10
2.63019e-09
-4.73071e-10
2.86554e-09
-4.69867e-10
3.09897e-09
-4.66089e-10
3.33019e-09
-4.61755e-10
3.55894e-09
-4.56884e-10
3.78496e-09
-4.515e-10
4.00801e-09
-4.45629e-10
4.22785e-09
-4.39299e-10
4.44428e-09
-4.3254e-10
4.6571e-09
-4.25383e-10
4.86612e-09
-4.1786e-10
5.07117e-09
-4.10005e-10
5.27212e-09
-4.0185e-10
5.46883e-09
-3.9343e-10
5.66119e-09
-3.84777e-10
5.84909e-09
-3.75923e-10
6.03246e-09
-3.66902e-10
6.21122e-09
-3.57743e-10
6.38534e-09
-3.48476e-10
6.55476e-09
-3.39131e-10
6.71947e-09
-3.29733e-10
6.87945e-09
-3.20309e-10
7.03471e-09
-3.10883e-10
7.18525e-09
-3.01476e-10
7.33111e-09
-2.9211e-10
7.4723e-09
-2.82803e-10
7.60888e-09
-2.73574e-10
7.74088e-09
-2.64438e-10
7.86837e-09
-2.5541e-10
7.9914e-09
-2.46502e-10
8.11004e-09
-2.37726e-10
8.22437e-09
-2.29093e-10
8.33446e-09
-2.20611e-10
8.44039e-09
-2.12288e-10
8.54225e-09
-2.04131e-10
8.64011e-09
-1.96145e-10
8.73408e-09
-1.88335e-10
8.82423e-09
-1.80705e-10
8.91067e-09
-1.73258e-10
8.99347e-09
-1.65994e-10
9.07275e-09
-1.58918e-10
9.14858e-09
-1.52028e-10
9.22107e-09
-1.45325e-10
9.29031e-09
-1.38809e-10
9.35639e-09
-1.3248e-10
9.4194e-09
-1.26336e-10
9.47944e-09
-1.20375e-10
9.53659e-09
-1.14596e-10
9.59095e-09
-1.08996e-10
9.64261e-09
-1.03573e-10
9.69164e-09
-9.83256e-11
9.73814e-09
-9.32494e-11
9.7822e-09
-8.83417e-11
9.82388e-09
-8.35996e-11
9.86328e-09
-7.90196e-11
9.90048e-09
-7.45986e-11
9.93555e-09
-7.03328e-11
9.96857e-09
-6.62189e-11
9.9996e-09
-6.2253e-11
1.00287e-08
-5.84318e-11
1.0056e-08
-5.47514e-11
1.00816e-08
-5.12083e-11
1.01054e-08
-4.77987e-11
1.01276e-08
-4.45187e-11
1.01482e-08
-4.1365e-11
1.01673e-08
-3.83337e-11
1.01849e-08
-3.54213e-11
1.02012e-08
-3.26239e-11
1.02161e-08
-2.99384e-11
1.02297e-08
-2.73607e-11
1.02421e-08
-2.48878e-11
1.02533e-08
-2.2516e-11
1.02634e-08
-2.0242e-11
1.02724e-08
-1.80623e-11
1.02804e-08
-1.59738e-11
1.02873e-08
-1.39732e-11
1.02933e-08
-1.20575e-11
1.02984e-08
-1.02232e-11
1.03026e-08
-8.4678e-12
1.0306e-08
-6.78788e-12
1.03085e-08
-5.18077e-12
1.03103e-08
-3.64354e-12
1.03114e-08
-2.17355e-12
1.03117e-08
-7.67997e-13
1.03114e-08
5.75728e-13
1.03105e-08
1.86018e-12
1.03089e-08
3.08793e-12
1.03068e-08
4.2611e-12
1.03041e-08
5.38252e-12
1.03008e-08
6.45398e-12
1.02971e-08
7.47807e-12
1.02928e-08
8.45664e-12
1.02881e-08
9.39205e-12
1.0283e-08
1.02862e-11
1.02774e-08
1.11409e-11
1.02714e-08
1.19582e-11
1.0265e-08
1.27399e-11
1.02583e-08
1.34878e-11
1.02511e-08
1.42034e-11
1.02437e-08
1.48886e-11
1.02359e-08
1.55447e-11
1.02278e-08
1.61735e-11
1.02194e-08
1.67761e-11
1.02107e-08
1.73544e-11
1.02018e-08
1.79092e-11
1.01926e-08
1.84422e-11
1.01831e-08
1.89545e-11
1.01734e-08
1.94472e-11
1.01634e-08
1.99216e-11
1.01532e-08
2.03787e-11
1.01428e-08
2.08196e-11
1.01322e-08
2.12453e-11
1.01213e-08
2.16567e-11
1.01103e-08
2.20547e-11
1.00991e-08
2.24403e-11
1.00877e-08
2.28142e-11
1.00761e-08
2.31772e-11
1.00643e-08
2.35302e-11
1.00524e-08
2.38738e-11
1.00403e-08
2.42087e-11
1.0028e-08
2.45356e-11
1.00156e-08
2.48551e-11
1.0003e-08
2.51678e-11
9.99024e-09
2.54743e-11
9.97735e-09
2.57753e-11
9.96431e-09
2.60709e-11
9.95113e-09
2.63622e-11
9.9378e-09
2.66492e-11
9.92434e-09
2.69326e-11
9.91073e-09
2.72129e-11
9.89699e-09
2.74907e-11
9.8831e-09
2.77661e-11
9.86908e-09
2.804e-11
9.85492e-09
2.83127e-11
9.84063e-09
2.8585e-11
9.8262e-09
2.88573e-11
9.81164e-09
2.91304e-11
9.79693e-09
2.94049e-11
9.78209e-09
2.9682e-11
9.76711e-09
2.99626e-11
9.75199e-09
3.02479e-11
9.73672e-09
3.05398e-11
9.7213e-09
3.08397e-11
9.70573e-09
3.11504e-11
9.68999e-09
3.14747e-11
9.67408e-09
3.18165e-11
9.65799e-09
3.21802e-11
9.64171e-09
3.25722e-11
9.62521e-09
3.29999e-11
9.60848e-09
3.34734e-11
9.59148e-09
3.40056e-11
9.57418e-09
3.46127e-11
9.55653e-09
3.53167e-11
9.53847e-09
3.61458e-11
9.51991e-09
3.71373e-11
9.50076e-09
3.83414e-11
9.48087e-09
3.98247e-11
9.46006e-09
4.16783e-11
9.43808e-09
4.40273e-11
9.41461e-09
4.70476e-11
9.38919e-09
5.0991e-11
9.36117e-09
5.62278e-11
9.32966e-09
6.3324e-11
9.2933e-09
7.31811e-11
9.25002e-09
8.73232e-11
9.19645e-09
1.0853e-10
9.12671e-09
1.42413e-10
9.02967e-09
2.01922e-10
8.88365e-09
3.2236e-10
6.16607e-10
8.66817e-09
2.39193e-10
-7.11414e-10
4.79737e-10
-7.15475e-10
7.2134e-10
-7.18695e-10
9.63698e-10
-7.21043e-10
1.2065e-09
-7.22495e-10
1.44943e-09
-7.23036e-10
1.69217e-09
-7.22652e-10
1.9344e-09
-7.21339e-10
2.17579e-09
-7.19096e-10
2.41604e-09
-7.1593e-10
2.65482e-09
-7.11852e-10
2.89183e-09
-7.06881e-10
3.12678e-09
-7.0104e-10
3.35939e-09
-6.94356e-10
3.58937e-09
-6.86864e-10
3.81647e-09
-6.78599e-10
4.04044e-09
-6.69603e-10
4.26106e-09
-6.5992e-10
4.47812e-09
-6.49596e-10
4.69141e-09
-6.3868e-10
4.90078e-09
-6.27221e-10
5.10604e-09
-6.15271e-10
5.30707e-09
-6.0288e-10
5.50374e-09
-5.90099e-10
5.69594e-09
-5.7698e-10
5.88359e-09
-5.6357e-10
6.06661e-09
-5.49919e-10
6.24494e-09
-5.36072e-10
6.41854e-09
-5.22075e-10
6.58737e-09
-5.0797e-10
6.75144e-09
-4.93797e-10
6.91072e-09
-4.79595e-10
7.06524e-09
-4.65398e-10
7.215e-09
-4.5124e-10
7.36005e-09
-4.37152e-10
7.5004e-09
-4.23161e-10
7.63612e-09
-4.09294e-10
7.76726e-09
-3.95573e-10
7.89387e-09
-3.8202e-10
8.01602e-09
-3.68654e-10
8.13378e-09
-3.55491e-10
8.24724e-09
-3.42546e-10
8.35646e-09
-3.29832e-10
8.46153e-09
-3.17361e-10
8.56254e-09
-3.0514e-10
8.65957e-09
-2.9318e-10
8.75272e-09
-2.81486e-10
8.84208e-09
-2.70063e-10
8.92774e-09
-2.58916e-10
9.00979e-09
-2.48047e-10
9.08833e-09
-2.37458e-10
9.16346e-09
-2.2715e-10
9.23526e-09
-2.17124e-10
9.30382e-09
-2.07379e-10
9.36926e-09
-1.97913e-10
9.43165e-09
-1.88725e-10
9.49108e-09
-1.79812e-10
9.54766e-09
-1.71172e-10
9.60146e-09
-1.628e-10
9.65259e-09
-1.54694e-10
9.70111e-09
-1.46849e-10
9.74712e-09
-1.39261e-10
9.7907e-09
-1.31925e-10
9.83194e-09
-1.24837e-10
9.87091e-09
-1.17992e-10
9.9077e-09
-1.11384e-10
9.94237e-09
-1.05009e-10
9.97502e-09
-9.88601e-11
1.00057e-08
-9.29332e-11
1.00345e-08
-8.72222e-11
1.00615e-08
-8.1722e-11
1.00867e-08
-7.64269e-11
1.01102e-08
-7.13311e-11
1.01321e-08
-6.64295e-11
1.01525e-08
-6.17162e-11
1.01713e-08
-5.71861e-11
1.01887e-08
-5.28335e-11
1.02048e-08
-4.86529e-11
1.02195e-08
-4.46393e-11
1.02329e-08
-4.0787e-11
1.02451e-08
-3.70911e-11
1.02561e-08
-3.35463e-11
1.0266e-08
-3.01475e-11
1.02749e-08
-2.68899e-11
1.02827e-08
-2.37685e-11
1.02895e-08
-2.07783e-11
1.02953e-08
-1.79148e-11
1.03003e-08
-1.51733e-11
1.03043e-08
-1.25492e-11
1.03076e-08
-1.00383e-11
1.03101e-08
-7.63595e-12
1.03117e-08
-5.33812e-12
1.03127e-08
-3.14069e-12
1.0313e-08
-1.03943e-12
1.03126e-08
9.69358e-13
1.03116e-08
2.88959e-12
1.03099e-08
4.72497e-12
1.03077e-08
6.47919e-12
1.03049e-08
8.15557e-12
1.03016e-08
9.75778e-12
1.02978e-08
1.12889e-11
1.02935e-08
1.27523e-11
1.02888e-08
1.4151e-11
1.02836e-08
1.54881e-11
1.02779e-08
1.67663e-11
1.02719e-08
1.79887e-11
1.02655e-08
1.91577e-11
1.02587e-08
2.02764e-11
1.02516e-08
2.13468e-11
1.02441e-08
2.23715e-11
1.02363e-08
2.33532e-11
1.02281e-08
2.42938e-11
1.02197e-08
2.51954e-11
1.0211e-08
2.60604e-11
1.0202e-08
2.68907e-11
1.01928e-08
2.76883e-11
1.01833e-08
2.84548e-11
1.01735e-08
2.91923e-11
1.01636e-08
2.99023e-11
1.01534e-08
3.05864e-11
1.01429e-08
3.12464e-11
1.01323e-08
3.18837e-11
1.01215e-08
3.24994e-11
1.01104e-08
3.30955e-11
1.00992e-08
3.36727e-11
1.00878e-08
3.42326e-11
1.00762e-08
3.47763e-11
1.00644e-08
3.53049e-11
1.00524e-08
3.58195e-11
1.00403e-08
3.63212e-11
1.00281e-08
3.68108e-11
1.00156e-08
3.72895e-11
1.0003e-08
3.7758e-11
9.99028e-09
3.82173e-11
9.97739e-09
3.8668e-11
9.96435e-09
3.91112e-11
9.95117e-09
3.95474e-11
9.93784e-09
3.99777e-11
9.92437e-09
4.04024e-11
9.91076e-09
4.08225e-11
9.89701e-09
4.12386e-11
9.88312e-09
4.16516e-11
9.8691e-09
4.20621e-11
9.85494e-09
4.24709e-11
9.84065e-09
4.28789e-11
9.82622e-09
4.3287e-11
9.81165e-09
4.36961e-11
9.79695e-09
4.41076e-11
9.78211e-09
4.45227e-11
9.76713e-09
4.49431e-11
9.75201e-09
4.53706e-11
9.73674e-09
4.58074e-11
9.72132e-09
4.62566e-11
9.70575e-09
4.67216e-11
9.69002e-09
4.72067e-11
9.67412e-09
4.77177e-11
9.65804e-09
4.82614e-11
9.64176e-09
4.88468e-11
9.62528e-09
4.94853e-11
9.60856e-09
5.01917e-11
9.59158e-09
5.09847e-11
9.5743e-09
5.1889e-11
9.55668e-09
5.29366e-11
9.53866e-09
5.41693e-11
9.52016e-09
5.56426e-11
9.50107e-09
5.74297e-11
9.48126e-09
5.96295e-11
9.46057e-09
6.23757e-11
9.43874e-09
6.58519e-11
9.41547e-09
7.03154e-11
9.39033e-09
7.61327e-11
9.36272e-09
8.38407e-11
9.33179e-09
9.42515e-11
9.29633e-09
1.08645e-10
9.2545e-09
1.29146e-10
9.20352e-09
1.59517e-10
9.13894e-09
2.06991e-10
9.05403e-09
2.86833e-10
8.9421e-09
4.34288e-10
7.31981e-10
8.82673e-09
2.42984e-10
-9.54398e-10
4.87312e-10
-9.59804e-10
7.32672e-10
-9.64055e-10
9.78736e-10
-9.67106e-10
1.22517e-09
-9.68927e-10
1.47163e-09
-9.69497e-10
1.71778e-09
-9.688e-10
1.96327e-09
-9.6683e-10
2.20776e-09
-9.63592e-10
2.45093e-09
-9.59095e-10
2.69244e-09
-9.5336e-10
2.93197e-09
-9.46413e-10
3.16922e-09
-9.38289e-10
3.40389e-09
-9.2903e-10
3.63571e-09
-9.18684e-10
3.86442e-09
-9.07304e-10
4.08976e-09
-8.94949e-10
4.31152e-09
-8.81681e-10
4.52949e-09
-8.67564e-10
4.74348e-09
-8.52668e-10
4.95332e-09
-8.3706e-10
5.15886e-09
-8.20811e-10
5.35997e-09
-8.03991e-10
5.55654e-09
-7.8667e-10
5.74847e-09
-7.68915e-10
5.9357e-09
-7.50794e-10
6.11815e-09
-7.32371e-10
6.29578e-09
-7.13708e-10
6.46857e-09
-6.94865e-10
6.6365e-09
-6.75899e-10
6.79957e-09
-6.56861e-10
6.95778e-09
-6.37803e-10
7.11115e-09
-6.18771e-10
7.25972e-09
-5.99808e-10
7.40352e-09
-5.80953e-10
7.5426e-09
-5.62244e-10
7.67702e-09
-5.43713e-10
7.80684e-09
-5.2539e-10
7.93212e-09
-5.07302e-10
8.05294e-09
-4.89473e-10
8.16937e-09
-4.71925e-10
8.2815e-09
-4.54676e-10
8.38941e-09
-4.37743e-10
8.49319e-09
-4.21139e-10
8.59293e-09
-4.04876e-10
8.68871e-09
-3.88965e-10
8.78064e-09
-3.73412e-10
8.8688e-09
-3.58225e-10
8.95329e-09
-3.43408e-10
9.03421e-09
-3.28964e-10
9.11165e-09
-3.14896e-10
9.1857e-09
-3.01204e-10
9.25647e-09
-2.87888e-10
9.32403e-09
-2.74947e-10
9.3885e-09
-2.6238e-10
9.44996e-09
-2.50182e-10
9.5085e-09
-2.38351e-10
9.56421e-09
-2.26883e-10
9.61718e-09
-2.15773e-10
9.6675e-09
-2.05016e-10
9.71526e-09
-1.94607e-10
9.76054e-09
-1.84539e-10
9.80342e-09
-1.74806e-10
9.84399e-09
-1.65402e-10
9.88232e-09
-1.56321e-10
9.91849e-09
-1.47555e-10
9.95258e-09
-1.39098e-10
9.98466e-09
-1.30942e-10
1.00148e-08
-1.23079e-10
1.00431e-08
-1.15504e-10
1.00696e-08
-1.08208e-10
1.00943e-08
-1.01184e-10
1.01174e-08
-9.44253e-11
1.01389e-08
-8.79235e-11
1.01589e-08
-8.16717e-11
1.01773e-08
-7.56625e-11
1.01944e-08
-6.9889e-11
1.02101e-08
-6.43436e-11
1.02245e-08
-5.90195e-11
1.02376e-08
-5.39094e-11
1.02495e-08
-4.90068e-11
1.02603e-08
-4.43045e-11
1.02699e-08
-3.97958e-11
1.02785e-08
-3.54743e-11
1.02861e-08
-3.13331e-11
1.02927e-08
-2.73663e-11
1.02983e-08
-2.35673e-11
1.03031e-08
-1.99302e-11
1.0307e-08
-1.64486e-11
1.031e-08
-1.3117e-11
1.03123e-08
-9.92957e-12
1.03139e-08
-6.88065e-12
1.03147e-08
-3.9647e-12
1.03148e-08
-1.1764e-12
1.03143e-08
1.48923e-12
1.03132e-08
4.03754e-12
1.03114e-08
6.47345e-12
1.03091e-08
8.80163e-12
1.03062e-08
1.10266e-11
1.03028e-08
1.31533e-11
1.02989e-08
1.51857e-11
1.02946e-08
1.71283e-11
1.02897e-08
1.89852e-11
1.02845e-08
2.07602e-11
1.02788e-08
2.24574e-11
1.02727e-08
2.40804e-11
1.02662e-08
2.56329e-11
1.02594e-08
2.71181e-11
1.02522e-08
2.85398e-11
1.02446e-08
2.99009e-11
1.02368e-08
3.12046e-11
1.02286e-08
3.24541e-11
1.02202e-08
3.3652e-11
1.02114e-08
3.48012e-11
1.02024e-08
3.59044e-11
1.01931e-08
3.69642e-11
1.01836e-08
3.79829e-11
1.01738e-08
3.89629e-11
1.01638e-08
3.99067e-11
1.01536e-08
4.08162e-11
1.01432e-08
4.16934e-11
1.01325e-08
4.25408e-11
1.01216e-08
4.33596e-11
1.01106e-08
4.41522e-11
1.00993e-08
4.492e-11
1.00879e-08
4.56646e-11
1.00763e-08
4.63879e-11
1.00645e-08
4.70911e-11
1.00525e-08
4.77758e-11
1.00404e-08
4.84433e-11
1.00281e-08
4.9095e-11
1.00157e-08
4.9732e-11