/*--------------------------------*- C++ -*----------------------------------*\
  =========                 |
  \\      /  F ield         | OpenFOAM: The Open Source CFD Toolbox
   \\    /   O peration     | Website:  https://openfoam.org
    \\  /    A nd           | Version:  10
     \\/     M anipulation  |
\*---------------------------------------------------------------------------*/
FoamFile
{
    format      ascii;
    class       volVectorField;
    location    "0.32";
    object      Ua;
}
// * * * * * * * * * * * * * * * * * * * * * * * * * * * * * * * * * * * * * //

dimensions      [0 1 -1 0 0 0 0];

internalField   nonuniform List<vector> 
12225
(
(0.000165889 -1.63699e-05 0)
(0.000485448 -1.51777e-05 0)
(0.000776977 -1.30638e-05 0)
(0.00103637 -1.07343e-05 0)
(0.00126429 -8.67133e-06 0)
(0.00146371 -7.13399e-06 0)
(0.00163854 -6.25495e-06 0)
(0.00179398 -6.15676e-06 0)
(0.00193963 -7.12157e-06 0)
(0.00210041 -1.00734e-05 0)
(0.00236521 -1.90042e-05 0)
(0.00332035 -6.36493e-05 0)
(0.0233453 -0.00305054 0)
(0.0355173 0.0025755 0)
(0.0274495 0.00035435 0)
(0.0272276 -0.000286721 0)
(0.0303294 -0.000901049 0)
(0.0397995 -0.00287668 0)
(9.06775e-05 -4.3375e-05 0)
(0.00026604 -4.04817e-05 0)
(0.00042694 -3.50932e-05 0)
(0.000570603 -2.90373e-05 0)
(0.000698008 -2.35946e-05 0)
(0.00081275 -1.94719e-05 0)
(0.000920344 -1.70407e-05 0)
(0.00102852 -1.66416e-05 0)
(0.0011494 -1.90373e-05 0)
(0.00130671 -2.66924e-05 0)
(0.00156606 -4.99409e-05 0)
(0.00225488 -0.000159486 0)
(0.00951649 -0.00526942 0)
(0.0211475 0.00391818 0)
(0.0260052 0.000721263 0)
(0.026745 -0.000880917 0)
(0.0292806 -0.00253296 0)
(0.033708 -0.00690376 0)
(7.15947e-05 -6.18329e-05 0)
(0.000211325 -5.82657e-05 0)
(0.000342167 -5.10095e-05 0)
(0.000461763 -4.25889e-05 0)
(0.000570656 -3.48479e-05 0)
(0.000671735 -2.88509e-05 0)
(0.000769805 -2.51843e-05 0)
(0.000871842 -2.43794e-05 0)
(0.000988762 -2.75501e-05 0)
(0.00114115 -3.81319e-05 0)
(0.00138132 -6.95545e-05 0)
(0.00193536 -0.000201311 0)
(0.00659431 -0.00349065 0)
(0.0175622 0.00108238 0)
(0.0247348 0.000544968 0)
(0.0259203 -0.0014973 0)
(0.0277946 -0.0037748 0)
(0.0296625 -0.00838629 0)
(6.01146e-05 -7.55116e-05 0)
(0.000178511 -7.18671e-05 0)
(0.00029163 -6.35369e-05 0)
(0.000397385 -5.35125e-05 0)
(0.000495934 -4.40781e-05 0)
(0.000589502 -3.66167e-05 0)
(0.000682183 -3.19301e-05 0)
(0.000780199 -3.07323e-05 0)
(0.000893319 -3.43888e-05 0)
(0.00103933 -4.67704e-05 0)
(0.00125985 -8.14489e-05 0)
(0.00171434 -0.000205766 0)
(0.00491642 -0.00195143 0)
(0.0153414 -0.0020594 0)
(0.0235713 5.38651e-05 0)
(0.0248933 -0.00209571 0)
(0.0261949 -0.00460399 0)
(0.0267991 -0.00868667 0)
(5.17389e-05 -8.53521e-05 0)
(0.000154548 -8.20684e-05 0)
(0.000254701 -7.32594e-05 0)
(0.000350373 -6.22192e-05 0)
(0.000441467 -5.15743e-05 0)
(0.000529677 -4.29877e-05 0)
(0.000618464 -3.74675e-05 0)
(0.000713329 -3.58913e-05 0)
(0.000822972 -3.97684e-05 0)
(0.000962797 -5.29097e-05 0)
(0.00116672 -8.69152e-05 0)
(0.00155675 -0.000188827 0)
(0.00393648 -0.00105138 0)
(0.0139394 -0.00488492 0)
(0.0225486 -0.000586832 0)
(0.0237847 -0.00263803 0)
(0.0246425 -0.00509666 0)
(0.0246521 -0.00847829 0)
(4.51362e-05 -9.18493e-05 0)
(0.000135603 -8.92594e-05 0)
(0.000225388 -8.04343e-05 0)
(0.000312927 -6.88522e-05 0)
(0.000397985 -5.73998e-05 0)
(0.000481853 -4.7979e-05 0)
(0.000567444 -4.17862e-05 0)
(0.000659598 -3.98373e-05 0)
(0.000766068 -4.36869e-05 0)
(0.000900397 -5.6747e-05 0)
(0.00109167 -8.77489e-05 0)
(0.00144289 -0.000165063 0)
(0.00331468 -0.000591582 0)
(0.0129969 -0.00716227 0)
(0.0216672 -0.00123906 0)
(0.0226794 -0.00309489 0)
(0.0232088 -0.00534813 0)
(0.0229634 -0.00808165 0)
(3.97149e-05 -9.53082e-05 0)
(0.000119988 -9.36637e-05 0)
(0.000201082 -8.5182e-05 0)
(0.000281692 -7.34424e-05 0)
(0.000361534 -6.15231e-05 0)
(0.000441607 -5.15204e-05 0)
(0.000524364 -4.47948e-05 0)
(0.000614047 -4.24726e-05 0)
(0.000717585 -4.60872e-05 0)
(0.00084718 -5.85207e-05 0)
(0.00102922 -8.58134e-05 0)
(0.0013566 -0.000143442 0)
(0.0028785 -0.000368117 0)
(0.0123203 -0.00885506 0)
(0.0209091 -0.00179451 0)
(0.0216236 -0.00344763 0)
(0.0219143 -0.0054407 0)
(0.0215836 -0.00764348 0)
(3.51527e-05 -9.59429e-05 0)
(0.000106786 -9.5425e-05 0)
(0.000180385 -8.75548e-05 0)
(0.00025489 -7.59635e-05 0)
(0.000330044 -6.38623e-05 0)
(0.000406644 -5.34961e-05 0)
(0.000486764 -4.6358e-05 0)
(0.000574115 -4.36608e-05 0)
(0.000674917 -4.68935e-05 0)
(0.000800404 -5.84714e-05 0)
(0.000975499 -8.25835e-05 0)
(0.00128631 -0.00012798 0)
(0.00254726 -0.000267401 0)
(0.0117751 -0.00996882 0)
(0.0202071 -0.00218183 0)
(0.0206235 -0.00369154 0)
(0.020751 -0.00543721 0)
(0.0204205 -0.00722882 0)
(3.12496e-05 -9.3927e-05 0)
(9.5433e-05 -9.46489e-05 0)
(0.000162438 -8.75712e-05 0)
(0.000231446 -7.63597e-05 0)
(0.000302281 -6.43092e-05 0)
(0.000375618 -5.3764e-05 0)
(0.000453216 -4.63145e-05 0)
(0.000538322 -4.32398e-05 0)
(0.000636542 -4.59994e-05 0)
(0.00075833 -5.67359e-05 0)
(0.000927541 -7.8852e-05 0)
(0.0012242 -0.000119365 0)
(0.00228001 -0.000233183 0)
(0.0112243 -0.0104457 0)
(0.0194373 -0.00239503 0)
(0.0196535 -0.0038434 0)
(0.0196949 -0.00538705 0)
(0.0194137 -0.0068675 0)
(2.78682e-05 -8.94248e-05 0)
(8.55381e-05 -9.14271e-05 0)
(0.000146655 -8.52362e-05 0)
(0.000210635 -7.45636e-05 0)
(0.000277434 -6.27445e-05 0)
(0.00034766 -5.21703e-05 0)
(0.000422818 -4.44886e-05 0)
(0.000505739 -4.10256e-05 0)
(0.000601463 -4.32451e-05 0)
(0.000719675 -5.32446e-05 0)
(0.000882929 -7.45731e-05 0)
(0.00116446 -0.000115922 0)
(0.00205772 -0.00023622 0)
(0.0105389 -0.0101084 0)
(0.0184574 -0.00251588 0)
(0.0186748 -0.00394954 0)
(0.0187181 -0.00533567 0)
(0.0185231 -0.00657715 0)
(2.49034e-05 -8.26118e-05 0)
(7.6801e-05 -8.58502e-05 0)
(0.000132583 -8.05519e-05 0)
(0.000191915 -7.05079e-05 0)
(0.000254915 -5.90503e-05 0)
(0.000322168 -4.8561e-05 0)
(0.000394966 -4.06996e-05 0)
(0.00047576 -3.68159e-05 0)
(0.000569029 -3.84008e-05 0)
(0.000683569 -4.76637e-05 0)
(0.000839937 -6.8821e-05 0)
(0.00110259 -0.000113762 0)
(0.00185508 -0.000253744 0)
(0.00952228 -0.00868397 0)
(0.0170708 -0.00273333 0)
(0.0176581 -0.00409108 0)
(0.0178027 -0.00533133 0)
(0.017726 -0.00637326 0)
(2.19906e-05 -7.43863e-05 0)
(6.82553e-05 -7.86716e-05 0)
(0.000118923 -7.4161e-05 0)
(0.000173891 -6.47457e-05 0)
(0.000233398 -5.3712e-05 0)
(0.000297973 -4.33797e-05 0)
(0.000368698 -3.53787e-05 0)
(0.000447659 -3.10548e-05 0)
(0.000538772 -3.19175e-05 0)
(0.000649799 -4.02973e-05 0)
(0.000798596 -6.10056e-05 0)
(0.00103859 -0.000108293 0)
(0.00165497 -0.000260435 0)
(0.0078912 -0.00629543 0)
(0.0150634 -0.00334382 0)
(0.0167034 -0.00434396 0)
(0.0170282 -0.00540597 0)
(0.0170779 -0.00626977 0)
(2.00567e-05 -6.45788e-05 0)
(6.24395e-05 -6.96741e-05 0)
(0.000109337 -6.58074e-05 0)
(0.000160913 -5.69892e-05 0)
(0.000217585 -4.64092e-05 0)
(0.000279911 -3.62658e-05 0)
(0.000348849 -2.81113e-05 0)
(0.000426217 -2.3246e-05 0)
(0.000515452 -2.3147e-05 0)
(0.000623352 -3.01296e-05 0)
(0.000765184 -4.90423e-05 0)
(0.000984333 -9.38352e-05 0)
(0.00149189 -0.000233461 0)
(0.00650986 -0.00368183 0)
(0.0133737 -0.00431622 0)
(0.0159037 -0.00476044 0)
(0.0163575 -0.00558367 0)
(0.0165182 -0.00626278 0)
(1.80351e-05 -5.21248e-05 0)
(5.62605e-05 -5.76464e-05 0)
(9.90266e-05 -5.42096e-05 0)
(0.000146906 -4.59379e-05 0)
(0.000200512 -3.5827e-05 0)
(0.000260408 -2.5866e-05 0)
(0.0003274 -1.74497e-05 0)
(0.000402999 -1.17729e-05 0)
(0.000490107 -1.01713e-05 0)
(0.000594432 -1.46788e-05 0)
(0.000728534 -2.93387e-05 0)
(0.000926928 -6.46988e-05 0)
(0.00134871 -0.000165679 0)
(0.00526221 -0.00169948 0)
(0.0118946 -0.00516999 0)
(0.0152487 -0.005349 0)
(0.0157629 -0.00588789 0)
(0.0160095 -0.00635387 0)
(1.57652e-05 -3.70236e-05 0)
(4.92678e-05 -4.20225e-05 0)
(8.73977e-05 -3.85974e-05 0)
(0.000131318 -3.07421e-05 0)
(0.000181755 -2.10265e-05 0)
(0.000239202 -1.11964e-05 0)
(0.000304145 -1.99376e-06 0)
(0.00037772 5.13616e-06 0)
(0.000462526 9.05391e-06 0)
(0.000563462 8.40235e-06 0)
(0.000691097 7.90844e-07 0)
(0.000874952 -1.91182e-05 0)
(0.00125048 -7.04279e-05 0)
(0.00440596 -0.000594771 0)
(0.010914 -0.00547879 0)
(0.0148372 -0.00605289 0)
(0.0153357 -0.00631518 0)
(0.015626 -0.00655615 0)
(1.26236e-05 -1.95641e-05 0)
(3.98937e-05 -2.21944e-05 0)
(7.25935e-05 -1.8303e-05 0)
(0.00011254 -1.08634e-05 0)
(0.000159635 -4.52936e-07 0)
(0.000213961 9.92736e-06 0)
(0.000276642 2.01289e-05 0)
(0.000348777 2.91086e-05 0)
(0.000432232 3.61954e-05 0)
(0.00053109 4.09422e-05 0)
(0.000654947 4.30577e-05 0)
(0.000831261 4.27138e-05 0)
(0.00118435 4.21224e-05 0)
(0.00389567 7.60625e-05 0)
(0.0103702 -0.00539031 0)
(0.0146705 -0.00685193 0)
(0.0151526 -0.00685203 0)
(0.0154553 -0.00686328 0)
(6.38867e-06 4.70234e-07 0)
(2.22283e-05 3.26323e-06 0)
(4.62029e-05 8.28672e-06 0)
(8.04302e-05 1.5546e-05 0)
(0.00012503 2.59492e-05 0)
(0.000179291 3.70008e-05 0)
(0.000242423 4.83926e-05 0)
(0.00031487 5.98038e-05 0)
(0.000398509 7.11198e-05 0)
(0.000497696 8.28027e-05 0)
(0.000622601 9.6874e-05 0)
(0.000801781 0.000120437 0)
(0.00116253 0.000187183 0)
(0.00408262 0.00112939 0)
(0.0106782 -0.00633831 0)
(0.0148948 -0.0077993 0)
(0.0153561 -0.00747001 0)
(0.0156254 -0.00723041 0)
(1.49071e-05 2.62019e-05 0)
(4.54668e-05 3.71616e-05 0)
(7.89238e-05 4.57315e-05 0)
(0.000117653 5.45558e-05 0)
(0.000163173 6.49029e-05 0)
(0.000216314 7.68365e-05 0)
(0.000277727 9.02256e-05 0)
(0.000348626 0.000104998 0)
(0.000431706 0.000121402 0)
(0.000533111 0.000140411 0)
(0.000668459 0.000164902 0)
(0.000887393 0.00020459 0)
(0.00146677 0.000315773 0)
(0.00813665 0.00349769 0)
(0.0152757 -0.0081558 0)
(0.0162193 -0.00839538 0)
(0.0162876 -0.0078694 0)
(0.0163369 -0.00745774 0)
(2.04126e-05 6.48631e-05 0)
(6.25629e-05 8.26625e-05 0)
(0.000107669 9.65456e-05 0)
(0.000156522 0.00010927 0)
(0.000210082 0.000122762 0)
(0.00026932 0.000138035 0)
(0.00033549 0.000155637 0)
(0.000410707 0.000176178 0)
(0.000498959 0.000201004 0)
(0.000608726 0.000233429 0)
(0.000762746 0.000282508 0)
(0.00105576 0.00038543 0)
(0.00284287 0.00113661 0)
(0.0110102 8.0254e-05 0)
(0.0176022 -0.00898101 0)
(0.0175876 -0.00840383 0)
(0.0175235 -0.0078381 0)
(0.0174344 -0.00734936 0)
(2.27871e-05 0.000109253 0)
(7.05572e-05 0.000129397 0)
(0.000122596 0.000146869 0)
(0.000178815 0.0001638 0)
(0.000239423 0.000182149 0)
(0.000305086 0.00020316 0)
(0.00037749 0.000227647 0)
(0.00046035 0.000256888 0)
(0.000561514 0.000294402 0)
(0.000699622 0.000350745 0)
(0.000938771 0.000463861 0)
(0.00185391 0.000955145 0)
(0.0093359 0.00191927 0)
(0.01759 -0.00769795 0)
(0.0191278 -0.00902118 0)
(0.0190637 -0.00819451 0)
(0.0188876 -0.00751844 0)
(0.0186672 -0.00695575 0)
(2.69948e-05 0.000147979 0)
(8.33064e-05 0.000167761 0)
(0.000144089 0.000187181 0)
(0.000208925 0.000208237 0)
(0.000277484 0.0002329 0)
(0.000350264 0.000262214 0)
(0.000429918 0.00029663 0)
(0.00052355 0.000337784 0)
(0.000648928 0.000392295 0)
(0.000859945 0.000488548 0)
(0.00148866 0.000818767 0)
(0.00829012 0.00410335 0)
(0.0185674 -0.00393443 0)
(0.0220412 -0.00966688 0)
(0.021223 -0.00850461 0)
(0.0206429 -0.0076185 0)
(0.0201673 -0.00691508 0)
(0.0197483 -0.00634119 0)
(3.27438e-05 0.000179601 0)
(0.0001005 0.000198655 0)
(0.000172609 0.000220246 0)
(0.000248308 0.00024704 0)
(0.000326475 0.000281521 0)
(0.000407176 0.000324411 0)
(0.000494595 0.0003753 0)
(0.000601895 0.000437377 0)
(0.000771445 0.000524818 0)
(0.00122465 0.000742096 0)
(0.00655708 0.00476015 0)
(0.0182792 -0.000890001 0)
(0.0244515 -0.00905633 0)
(0.0234072 -0.00823235 0)
(0.0225281 -0.00740777 0)
(0.0217959 -0.00668601 0)
(0.0211697 -0.00607424 0)
(0.0206213 -0.00555935 0)
(4.03307e-05 0.000201284 0)
(0.000123222 0.000219789 0)
(0.000210413 0.000244323 0)
(0.000300704 0.000279361 0)
(0.00039154 0.000329243 0)
(0.000481819 0.000394819 0)
(0.000579005 0.000474565 0)
(0.00070792 0.000584128 0)
(0.000991386 0.000792783 0)
(0.00384508 0.00348032 0)
(0.0163461 0.000673524 0)
(0.0259896 -0.00837035 0)
(0.0253013 -0.00777206 0)
(0.0243509 -0.00701043 0)
(0.0234493 -0.00631027 0)
(0.0226396 -0.00569705 0)
(0.0219228 -0.00517206 0)
(0.0212878 -0.00472639 0)
(4.99456e-05 0.000211528 0)
(0.000152213 0.000229614 0)
(0.000259328 0.000257674 0)
(0.000369894 0.00030365 0)
(0.000478947 0.000376853 0)
(0.000582553 0.000480579 0)
(0.000699734 0.000611066 0)
(0.000897562 0.000856975 0)
(0.00218095 0.00232835 0)
(0.0144819 0.001275 0)
(0.0266464 -0.00803295 0)
(0.0271992 -0.00769703 0)
(0.0262039 -0.00669634 0)
(0.0251556 -0.00591295 0)
(0.0241685 -0.00526982 0)
(0.023278 -0.00473363 0)
(0.0224866 -0.00428416 0)
(0.0217853 -0.00390598 0)
(6.17145e-05 0.000209942 0)
(0.000187981 0.000227388 0)
(0.000320873 0.000258718 0)
(0.000460036 0.000317443 0)
(0.000597314 0.00042428 0)
(0.000721195 0.000594391 0)
(0.00089781 0.000817424 0)
(0.00154204 0.00174678 0)
(0.0118138 0.00386901 0)
(0.0261556 -0.00701171 0)
(0.0299548 -0.00832862 0)
(0.0284432 -0.00665953 0)
(0.0270743 -0.00560099 0)
(0.025835 -0.00484932 0)
(0.0247309 -0.0042745 0)
(0.023757 -0.00381566 0)
(0.0229008 -0.00344037 0)
(0.022147 -0.00312882 0)
(7.58834e-05 0.000197003 0)
(0.000231291 0.000213178 0)
(0.000396852 0.00024629 0)
(0.00057651 0.000317318 0)
(0.000760767 0.000469851 0)
(0.000917251 0.000766704 0)
(0.00134401 0.00122133 0)
(0.008057 0.00785785 0)
(0.0255525 -0.00301905 0)
(0.0347626 -0.00923939 0)
(0.0316145 -0.00684889 0)
(0.0294721 -0.00539296 0)
(0.027778 -0.00445708 0)
(0.0263598 -0.00380884 0)
(0.0251478 -0.00332901 0)
(0.0241021 -0.00295608 0)
(0.0231939 -0.00265658 0)
(0.0224002 -0.00241078 0)
(9.3318e-05 0.000173766 0)
(0.000284619 0.000187774 0)
(0.000491483 0.000219969 0)
(0.000728667 0.00029918 0)
(0.000997978 0.000508377 0)
(0.00121829 0.00109022 0)
(0.00312138 0.00493893 0)
(0.0240862 0.00416831 0)
(0.040647 -0.00866184 0)
(0.0360672 -0.0067879 0)
(0.0326592 -0.00515248 0)
(0.0301887 -0.00405206 0)
(0.0282784 -0.00332236 0)
(0.0267291 -0.00281751 0)
(0.0254357 -0.00244877 0)
(0.0243364 -0.00216633 0)
(0.0233905 -0.00194213 0)
(0.0225687 -0.0017596 0)
(0.000117174 0.000141573 0)
(0.000357133 0.000152488 0)
(0.000619416 0.000180262 0)
(0.000940561 0.000258894 0)
(0.00138252 0.000526932 0)
(0.00188278 0.0019816 0)
(0.0201824 0.00627171 0)
(0.0411265 -0.00626866 0)
(0.0414636 -0.00598629 0)
(0.0368595 -0.00458636 0)
(0.0332917 -0.00350445 0)
(0.0306391 -0.0027564 0)
(0.0285979 -0.00225152 0)
(0.0269645 -0.00190126 0)
(0.0256177 -0.00164683 0)
(0.0244831 -0.00145344 0)
(0.0235127 -0.00130095 0)
(0.0226728 -0.00117743 0)
(0.000163611 0.000102073 0)
(0.000495675 0.000108901 0)
(0.000854198 0.000128201 0)
(0.00131749 0.000192894 0)
(0.00219348 0.000496453 0)
(0.00683683 0.0103828 0)
(0.0324848 -0.00391312 0)
(0.0496886 -0.00582541 0)
(0.0423794 -0.0035217 0)
(0.0373404 -0.00260713 0)
(0.0336392 -0.00198967 0)
(0.0308873 -0.00156457 0)
(0.0287752 -0.00127567 0)
(0.0270952 -0.00107486 0)
(0.0257182 -0.000929312 0)
(0.0245638 -0.000819098 0)
(0.0235796 -0.000732509 0)
(0.0227297 -0.00066256 0)
(0.000699851 4.04409e-05 0)
(0.00205759 4.26946e-05 0)
(0.0033484 4.96807e-05 0)
(0.00488532 7.66057e-05 0)
(0.0111883 0.000232069 0)
(0.0546704 0.00905495 0)
(0.075074 -0.00599537 0)
(0.0516776 -0.00201934 0)
(0.0428434 -0.00114687 0)
(0.0375501 -0.000833981 0)
(0.0337821 -0.000635394 0)
(0.030989 -0.000499517 0)
(0.0288479 -0.000406976 0)
(0.0271488 -0.000342601 0)
(0.0257594 -0.000295981 0)
(0.0245968 -0.000260732 0)
(0.0236069 -0.000233079 0)
(0.0227528 -0.000210767 0)
(0.000104281 -0.000222896 -2.87963e-30)
(0.000313673 -0.000222546 2.87263e-30)
(0.00052433 -0.000221936 0)
(0.000736008 -0.000221066 0)
(0.000948461 -0.000219933 0)
(0.00116143 -0.000218538 -2.81083e-30)
(0.00137466 -0.000216884 0)
(0.00158788 -0.000214974 0)
(0.00180083 -0.000212813 0)
(0.00201325 -0.00021041 0)
(0.00222486 -0.000207772 2.65912e-30)
(0.00243541 -0.000204909 0)
(0.00264464 -0.000201833 0)
(0.0028523 -0.000198556 0)
(0.00305815 -0.000195092 0)
(0.00326195 -0.000191454 2.43598e-30)
(0.00346348 -0.000187658 0)
(0.00366254 -0.000183718 0)
(0.00385891 -0.000179652 0)
(0.00405242 -0.000175474 0)
(0.00424288 -0.000171201 0)
(0.00443015 -0.000166849 0)
(0.00461407 -0.000162433 0)
(0.00479451 -0.000157968 1.98509e-30)
(0.00497136 -0.000153469 -1.92486e-30)
(0.00514451 -0.000148951 1.86442e-30)
(0.00531388 -0.000144426 1.80393e-30)
(0.00547939 -0.000139907 0)
(0.00564098 -0.000135406 0)
(0.00579861 -0.000130934 -1.62383e-30)
(0.00595223 -0.000126502 -1.56473e-30)
(0.00610183 -0.000122118 0)
(0.00624739 -0.000117791 0)
(0.00638891 -0.000113529 -1.39191e-30)
(0.0065264 -0.000109339 0)
(0.00665986 -0.000105226 0)
(0.00678934 -0.000101196 1.22779e-30)
(0.00691485 -9.72537e-05 0)
(0.00703644 -9.34023e-05 1.12413e-30)
(0.00715416 -8.96452e-05 2.14837e-30)
(0.00726805 -8.59849e-05 0)
(0.00737817 -8.24234e-05 0)
(0.00748458 -7.89621e-05 0)
(0.00758735 -7.56021e-05 0)
(0.00768655 -7.23439e-05 0)
(0.00778224 -6.91876e-05 1.60472e-30)
(0.0078745 -6.6133e-05 1.52359e-30)
(0.0079634 -6.31795e-05 1.44514e-30)
(0.00804903 -6.03264e-05 0)
(0.00813146 -5.75725e-05 -1.29624e-30)
(0.00821077 -5.49165e-05 0)
(0.00828703 -5.2357e-05 1.15775e-30)
(0.00836034 -4.98922e-05 1.0923e-30)
(0.00843077 -4.75205e-05 0)
(0.0084984 -4.52397e-05 0)
(0.00856332 -4.3048e-05 0)
(0.0086256 -4.09432e-05 8.54714e-31)
(0.00868532 -3.89231e-05 0)
(0.00874256 -3.69855e-05 0)
(0.0087974 -3.51282e-05 0)
(0.00884992 -3.33488e-05 0)
(0.00890018 -3.16451e-05 0)
(0.00894828 -3.00147e-05 0)
(0.00899427 -2.84553e-05 0)
(0.00903824 -2.69647e-05 0)
(0.00908024 -2.55406e-05 -4.4583e-31)
(0.00912036 -2.41806e-05 0)
(0.00915866 -2.28826e-05 0)
(0.0091952 -2.16445e-05 3.42406e-31)
(0.00923006 -2.04639e-05 3.11063e-31)
(0.00926328 -1.93389e-05 0)
(0.00929494 -1.82674e-05 -2.52755e-31)
(0.0093251 -1.72472e-05 2.25671e-31)
(0.0093538 -1.62765e-05 0)
(0.00938112 -1.53533e-05 -1.7539e-31)
(0.00940711 -1.44756e-05 0)
(0.00943181 -1.36417e-05 0)
(0.00945528 -1.28498e-05 1.08929e-31)
(0.00947758 -1.20981e-05 0)
(0.00949875 -1.1385e-05 -7.00369e-32)
(0.00951884 -1.07087e-05 0)
(0.00953789 -1.00678e-05 3.50608e-32)
(0.00955595 -9.46055e-06 1.894e-32)
(0.00957306 -8.88562e-06 3.67447e-33)
(0.00958927 -8.34152e-06 -2.15433e-32)
(0.00960462 -7.82684e-06 4.88801e-32)
(0.00961914 -7.34026e-06 0)
(0.00963287 -6.88046e-06 0)
(0.00964585 -6.4462e-06 0)
(0.00965811 -6.03627e-06 1.43973e-31)
(0.00966969 -5.6495e-06 1.64517e-31)
(0.00968062 -5.28478e-06 -1.83887e-31)
(0.00969093 -4.94102e-06 0)
(0.00970065 -4.6172e-06 2.19345e-31)
(0.00970981 -4.31232e-06 2.35544e-31)
(0.00971844 -4.02543e-06 2.50783e-31)
(0.00972656 -3.7556e-06 0)
(0.00973421 -3.50196e-06 0)
(0.00974139 -3.26368e-06 0)
(0.00974815 -3.03993e-06 3.03134e-31)
(0.00975449 -2.82996e-06 0)
(0.00976045 -2.63302e-06 0)
(0.00976604 -2.44841e-06 -3.34556e-31)
(0.00977128 -2.27546e-06 0)
(0.00977619 -2.11351e-06 0)
(0.00978079 -1.96196e-06 -3.60404e-31)
(0.0097851 -1.82022e-06 0)
(0.00978913 -1.68774e-06 0)
(0.0097929 -1.56397e-06 3.81551e-31)
(0.00979643 -1.44842e-06 3.87691e-31)
(0.00979972 -1.34061e-06 0)
(0.00980279 -1.24007e-06 -3.98766e-31)
(0.00980566 -1.14638e-06 0)
(0.00980833 -1.05912e-06 4.0838e-31)
(0.00981082 -9.77889e-07 0)
(0.00981314 -9.02329e-07 4.16715e-31)
(0.0098153 -8.32085e-07 4.20444e-31)
(0.0098173 -7.66823e-07 0)
(0.00981917 -7.06228e-07 0)
(0.0098209 -6.50001e-07 0)
(0.00982251 -5.97861e-07 0)
(0.00982401 -5.49541e-07 0)
(0.00982539 -5.04789e-07 0)
(0.00982667 -4.6337e-07 0)
(0.00982786 -4.25058e-07 4.42085e-31)
(0.00982896 -3.89643e-07 -4.43963e-31)
(0.00982997 -3.56926e-07 0)
(0.00983091 -3.2672e-07 0)
(0.00983178 -2.98848e-07 0)
(0.00983258 -2.73146e-07 0)
(0.00983332 -2.49456e-07 -9.02834e-31)
(0.00983399 -2.27632e-07 0)
(0.00983462 -2.07535e-07 9.07293e-31)
(0.00983519 -1.89034e-07 -9.09261e-31)
(0.00983572 -1.72006e-07 0)
(0.00983621 -1.56335e-07 0)
(0.00983665 -1.41908e-07 0)
(0.00983706 -1.28622e-07 9.15688e-31)
(0.00983743 -1.16375e-07 9.16989e-31)
(0.00983777 -1.05069e-07 0)
(0.00983808 -9.46102e-08 9.19297e-31)
(0.00983836 -8.49045e-08 9.20323e-31)
(0.00983861 -7.5859e-08 -9.21287e-31)
(0.00983884 -6.73793e-08 0)
(0.00983904 -5.93683e-08 0)
(0.00983922 -5.17231e-08 -9.2384e-31)
(0.00983938 -4.43331e-08 0)
(0.00983951 -3.70761e-08 0)
(0.00983962 -2.98151e-08 0)
(0.00983971 -2.23918e-08 0)
(0.00983977 -1.46209e-08 9.27727e-31)
(0.00983981 -6.28225e-09 9.28593e-31)
(0.00983981 2.89074e-09 0)
(0.00983979 1.32235e-08 9.30609e-31)
(0.00983972 2.51179e-08 0)
(0.0098396 3.90744e-08 0)
(0.00983943 5.57199e-08 9.3497e-31)
(0.0098392 7.58455e-08 0)
(0.00983887 1.00455e-07 9.39544e-31)
(0.00983845 1.30828e-07 0)
(0.00983789 1.68603e-07 0)
(0.00983717 2.15893e-07 9.51316e-31)
(0.00983624 2.75433e-07 0)
(0.00983504 3.50789e-07 9.65062e-31)
(0.00983349 4.4664e-07 0)
(0.00983151 5.69179e-07 0)
(0.00982896 7.26683e-07 0)
(0.00982566 9.30349e-07 -1.0241e-30)
(0.00982139 1.19554e-06 0)
(0.00981584 1.54376e-06 1.0866e-30)
(0.00980857 2.00572e-06 0)
(0.00979899 2.62671e-06 0)
(0.00978625 3.47586e-06 0)
(0.00976909 4.66398e-06 0)
(0.00974559 6.38012e-06 0)
(0.00971258 8.97525e-06 0)
(0.00966449 1.31825e-05 0)
(0.00958996 2.08203e-05 -6.11684e-30)
(0.00946036 3.77189e-05 0)
(0.00917313 9.07057e-05 0)
(0.000104821 -0.000669844 8.65379e-30)
(0.000315295 -0.000668783 -8.63263e-30)
(0.000527028 -0.000666941 0)
(0.000739775 -0.000664307 1.7137e-29)
(0.000953279 -0.00066088 0)
(0.00116728 -0.000656661 -8.47337e-30)
(0.00138151 -0.000651658 -1.67797e-29)
(0.00159569 -0.000645882 -1.66203e-29)
(0.00180957 -0.000639351 0)
(0.00202286 -0.000632085 -1.62435e-29)
(0.0022353 -0.000624113 8.04008e-30)
(0.00244662 -0.000615463 0)
(0.00265656 -0.000606172 0)
(0.00286488 -0.000596276 0)
(0.00307131 -0.000585816 0)
(0.00327564 -0.000574837 7.39092e-30)
(0.00347763 -0.000563382 0)
(0.00367708 -0.0005515 1.40823e-29)
(0.00387377 -0.000539239 0)
(0.00406754 -0.000526646 0)
(0.00425821 -0.00051377 -1.30795e-29)
(0.00444561 -0.000500658 0)
(0.0046296 -0.000487359 1.23793e-29)
(0.00481007 -0.000473917 6.06845e-30)
(0.00498689 -0.000460376 -5.89136e-30)
(0.00515997 -0.00044678 5.71359e-30)
(0.00532922 -0.000433169 5.53566e-30)
(0.00549457 -0.000419579 0)
(0.00565596 -0.000406048 0)
(0.00581335 -0.000392607 -5.0057e-30)
(0.00596672 -0.000379288 -1.43543e-29)
(0.00611603 -0.000366118 0)
(0.00626128 -0.000353122 0)
(0.00640246 -0.000340324 -4.323e-30)
(0.0065396 -0.000327743 0)
(0.00667271 -0.000315397 0)
(0.00680181 -0.000303302 3.8398e-30)
(0.00692694 -0.000291472 0)
(0.00704815 -0.000279916 1.04375e-29)
(0.00716548 -0.000268645 6.77513e-30)
(0.00727898 -0.000257666 0)
(0.00738871 -0.000246984 0)
(0.00749474 -0.000236605 -1.15244e-29)
(0.00759713 -0.00022653 -1.09938e-29)
(0.00769594 -0.000216761 -1.04795e-29)
(0.00779126 -0.000207298 1.51559e-29)
(0.00788316 -0.000198142 4.93572e-30)
(0.0079717 -0.000189289 -4.32836e-30)
(0.00805698 -0.000180737 8.58299e-30)
(0.00813906 -0.000172483 -4.26643e-30)
(0.00821803 -0.000164523 0)
(0.00829398 -0.000156853 3.85874e-30)
(0.00836697 -0.000149467 1.06032e-29)
(0.00843709 -0.00014236 0)
(0.00850443 -0.000135526 0)
(0.00856906 -0.000128959 0)
(0.00863106 -0.000122653 2.96673e-30)
(0.00869052 -0.000116601 0)
(0.0087475 -0.000110796 4.9019e-30)
(0.0088021 -0.000105231 0)
(0.00885438 -9.99003e-05 4.32854e-30)
(0.00890442 -9.47962e-05 0)
(0.0089523 -8.99119e-05 -3.8029e-30)
(0.00899808 -8.52404e-05 0)
(0.00904185 -8.07749e-05 3.32207e-30)
(0.00908366 -7.65086e-05 -4.86081e-30)
(0.0091236 -7.24347e-05 0)
(0.00916172 -6.85465e-05 -2.67856e-30)
(0.0091981 -6.48374e-05 1.45885e-30)
(0.00923279 -6.13011e-05 1.36661e-30)
(0.00926587 -5.7931e-05 0)
(0.00929738 -5.47211e-05 -3.146e-30)
(0.0093274 -5.16652e-05 1.1153e-30)
(0.00935598 -4.87574e-05 0)
(0.00938317 -4.59918e-05 -9.67328e-31)
(0.00940904 -4.33628e-05 -1.35324e-30)
(0.00943363 -4.08649e-05 0)
(0.009457 -3.84927e-05 7.71742e-31)
(0.00947919 -3.6241e-05 0)
(0.00950026 -3.41048e-05 2.087e-31)
(0.00952026 -3.2079e-05 0)
(0.00953922 -3.0159e-05 -1.03947e-31)
(0.0095572 -2.83401e-05 5.06935e-31)
(0.00957424 -2.66179e-05 9.33962e-31)
(0.00959038 -2.4988e-05 1.61133e-30)
(0.00960566 -2.34463e-05 -1.3686e-30)
(0.00962011 -2.19887e-05 0)
(0.00963378 -2.06114e-05 0)
(0.0096467 -1.93105e-05 0)
(0.00965891 -1.80826e-05 -4.33396e-31)
(0.00967044 -1.6924e-05 -4.18325e-31)
(0.00968132 -1.58314e-05 3.61329e-31)
(0.00969158 -1.48017e-05 0)
(0.00970126 -1.38317e-05 1.45152e-31)
(0.00971038 -1.29184e-05 -2.09352e-31)
(0.00971897 -1.2059e-05 -1.64516e-31)
(0.00972706 -1.12507e-05 0)
(0.00973466 -1.04909e-05 0)
(0.00974182 -9.77707e-06 0)
(0.00974854 -9.10682e-06 -1.04975e-32)
(0.00975486 -8.47783e-06 0)
(0.00976079 -7.88787e-06 1.02797e-30)
(0.00976636 -7.33485e-06 1.00426e-30)
(0.00977157 -6.81673e-06 -1.14077e-30)
(0.00977647 -6.3316e-06 0)
(0.00978105 -5.87761e-06 -1.39764e-30)
(0.00978534 -5.45301e-06 0)
(0.00978935 -5.05612e-06 -1.32617e-30)
(0.00979311 -4.68536e-06 1.58539e-30)
(0.00979661 -4.33922e-06 1.63992e-30)
(0.00979989 -4.01624e-06 0)
(0.00980295 -3.71506e-06 1.19658e-30)
(0.0098058 -3.43438e-06 -1.49695e-30)
(0.00980847 -3.17295e-06 2.99104e-31)
(0.00981095 -2.92962e-06 0)
(0.00981325 -2.70326e-06 3.23614e-31)
(0.0098154 -2.49283e-06 -1.26154e-30)
(0.0098174 -2.29732e-06 0)
(0.00981926 -2.11579e-06 -1.63583e-30)
(0.00982099 -1.94734e-06 -1.65358e-30)
(0.00982259 -1.79114e-06 -1.67003e-30)
(0.00982408 -1.64639e-06 0)
(0.00982545 -1.51232e-06 0)
(0.00982673 -1.38823e-06 0)
(0.00982791 -1.27346e-06 2.12279e-30)
(0.00982901 -1.16736e-06 -4.03758e-31)
(0.00983002 -1.06934e-06 0)
(0.00983095 -9.78851e-07 1.7556e-30)
(0.00983182 -8.95353e-07 1.7644e-30)
(0.00983261 -8.18352e-07 0)
(0.00983335 -7.47381e-07 -8.51353e-31)
(0.00983402 -6.81998e-07 3.57375e-30)
(0.00983465 -6.2179e-07 8.64463e-31)
(0.00983522 -5.66364e-07 -4.46836e-30)
(0.00983574 -5.15351e-07 0)
(0.00983623 -4.68402e-07 0)
(0.00983667 -4.25185e-07 0)
(0.00983707 -3.85383e-07 8.89141e-31)
(0.00983744 -3.48695e-07 4.53693e-30)
(0.00983778 -3.14827e-07 3.6511e-30)
(0.00983809 -2.83497e-07 8.99768e-31)
(0.00983837 -2.54425e-07 4.5666e-30)
(0.00983862 -2.27333e-07 -9.05626e-31)
(0.00983885 -2.01938e-07 0)
(0.00983905 -1.77949e-07 0)
(0.00983923 -1.55059e-07 -4.59784e-30)
(0.00983939 -1.32937e-07 0)
(0.00983952 -1.11218e-07 0)
(0.00983963 -8.9491e-08 3.6984e-30)
(0.00983972 -6.72848e-08 0)
(0.00983978 -4.40458e-08 4.63253e-30)
(0.00983982 -1.91156e-08 9.27267e-31)
(0.00983982 8.30153e-09 0)
(0.0098398 3.91775e-08 4.65836e-30)
(0.00983973 7.47123e-08 0)
(0.00983962 1.16399e-07 0)
(0.00983945 1.66111e-07 9.46386e-31)
(0.00983922 2.26209e-07 3.76353e-30)
(0.0098389 2.99689e-07 9.60147e-31)
(0.00983848 3.90368e-07 0)
(0.00983794 5.03139e-07 0)
(0.00983722 6.44304e-07 4.84485e-30)
(0.00983631 8.22022e-07 0)
(0.00983513 1.04693e-06 4.96875e-30)
(0.00983361 1.33297e-06 0)
(0.00983166 1.69859e-06 0)
(0.00982914 2.16846e-06 0)
(0.0098259 2.77588e-06 -1.21495e-30)
(0.0098217 3.56654e-06 0)
(0.00981624 4.60425e-06 1.40309e-30)
(0.0098091 5.98009e-06 0)
(0.0097997 7.82789e-06 0)
(0.00978723 1.03514e-05 5.83772e-30)
(0.00977047 1.38754e-05 -6.56014e-30)
(0.00974761 1.89499e-05 0)
(0.00971575 2.65826e-05 0)
(0.00966994 3.88304e-05 0)
(0.00960112 6.05604e-05 1.79638e-29)
(0.00949175 0.000105889 0)
(0.00931921 0.000227997 -1.01338e-28)
(0.000105916 -0.00112029 5.79048e-29)
(0.00031858 -0.00111849 -7.58153e-33)
(0.000532496 -0.00111537 0)
(0.000747406 -0.00111091 1.77054e-32)
(0.00096304 -0.0011051 0)
(0.00117912 -0.00109795 0)
(0.00139537 -0.00108947 -5.61596e-29)
(0.00161151 -0.00107969 -2.78333e-29)
(0.00182725 -0.00106864 2.74941e-29)
(0.00204231 -0.00105634 -2.72093e-29)
(0.00225641 -0.00104286 0)
(0.00246929 -0.00102823 0)
(0.00268066 -0.00101253 -2.59833e-29)
(0.00289028 -0.000995818 -5.10729e-29)
(0.00309789 -0.000978163 5.01308e-29)
(0.00330326 -0.000959641 0)
(0.00350616 -0.000940331 4.81171e-29)
(0.00370638 -0.000920312 2.36145e-29)
(0.00390372 -0.000899666 0)
(0.004098 -0.000878476 4.48355e-29)
(0.00428905 -0.000856823 -2.19458e-29)
(0.00447671 -0.000834788 -4.25232e-29)
(0.00466085 -0.000812451 2.07813e-29)
(0.00484135 -0.000789889 0)
(0.00501811 -0.000767175 3.89511e-29)
(0.00519102 -0.000744382 3.77481e-29)
(0.00536001 -0.000721574 0)
(0.00552502 -0.000698817 3.53452e-29)
(0.00568601 -0.000676169 0)
(0.00584292 -0.000653684 3.29669e-29)
(0.00599575 -0.000631413 -1.60385e-29)
(0.00614447 -0.000609401 0)
(0.00628909 -0.000587691 0)
(0.0064296 -0.000566319 0)
(0.00656604 -0.000545319 0)
(0.00669842 -0.000524719 0)
(0.00682677 -0.000504544 0)
(0.00695114 -0.000484816 2.40796e-29)
(0.00707158 -0.000465553 -1.13664e-29)
(0.00718812 -0.000446769 0)
(0.00730084 -0.000428477 0)
(0.0074098 -0.000410685 0)
(0.00751505 -0.000393399 -3.89022e-29)
(0.00761666 -0.000376625 -1.87517e-29)
(0.00771472 -0.000360363 -3.64318e-31)
(0.00780929 -0.000344614 3.68779e-31)
(0.00790045 -0.000329377 -1.59092e-29)
(0.00798827 -0.000314647 -1.55124e-29)
(0.00807284 -0.00030042 2.91567e-29)
(0.00815424 -0.000286691 1.36664e-29)
(0.00823255 -0.000273452 0)
(0.00830784 -0.000260696 1.23008e-29)
(0.0083802 -0.000248414 2.37068e-29)
(0.00844972 -0.000236597 0)
(0.00851646 -0.000225235 0)
(0.00858052 -0.000214317 -9.86441e-30)
(0.00864197 -0.000203833 0)
(0.0087009 -0.000193772 0)
(0.00875737 -0.000184123 2.52486e-29)
(0.00881148 -0.000174874 1.55851e-29)
(0.00886329 -0.000166014 7.74567e-30)
(0.00891287 -0.00015753 0)
(0.00896032 -0.000149413 -6.87826e-30)
(0.00900569 -0.000141649 0)
(0.00904905 -0.000134228 1.74e-29)
(0.00909049 -0.000127138 -5.71439e-30)
(0.00913006 -0.000120368 -9.85905e-30)
(0.00916783 -0.000113906 -1.42033e-29)
(0.00920388 -0.000107743 0)
(0.00923825 -0.000101866 7.91538e-30)
(0.00927103 -9.62661e-05 0)
(0.00930225 -9.09321e-05 2.94411e-30)
(0.009332 -8.58541e-05 6.23321e-30)
(0.00936031 -8.10221e-05 5.72559e-30)
(0.00938726 -7.64266e-05 -5.24278e-30)
(0.00941289 -7.20581e-05 1.94745e-30)
(0.00943726 -6.79074e-05 0)
(0.00946041 -6.39656e-05 0)
(0.0094824 -6.0224e-05 -3.54053e-30)
(0.00950328 -5.66742e-05 -1.13505e-30)
(0.0095231 -5.3308e-05 0)
(0.00954189 -5.01176e-05 -1.6899e-30)
(0.00955971 -4.70952e-05 0)