/*--------------------------------*- C++ -*----------------------------------*\
  =========                 |
  \\      /  F ield         | OpenFOAM: The Open Source CFD Toolbox
   \\    /   O peration     | Website:  https://openfoam.org
    \\  /    A nd           | Version:  10
     \\/     M anipulation  |
\*---------------------------------------------------------------------------*/
FoamFile
{
    format      ascii;
    class       volVectorField;
    location    "0.3";
    object      Ub;
}
// * * * * * * * * * * * * * * * * * * * * * * * * * * * * * * * * * * * * * //

dimensions      [0 1 -1 0 0 0 0];

internalField   nonuniform List<vector> 
12225
(
(0.00169508 -0.000360799 0)
(0.00482006 -0.000319289 0)
(0.00735394 -0.000260377 0)
(0.00926743 -0.000202998 0)
(0.0106641 -0.000157213 0)
(0.0116953 -0.000126499 0)
(0.0125127 -0.00011151 0)
(0.0132549 -0.000113403 0)
(0.0140589 -0.000138561 0)
(0.0151084 -0.000214397 0)
(0.0166198 -0.000464187 0)
(0.00904422 -0.000535248 0)
(0.000285712 1.02697e-15 0)
(1.41642e-13 3.01056e-33 0)
(1.50268e-31 -3.07437e-34 0)
(1.5614e-31 -2.1905e-33 0)
(1.75138e-31 -5.3962e-33 0)
(2.29655e-31 -1.66724e-32 0)
(0.00200351 -0.00116359 0)
(0.00569663 -0.00102794 0)
(0.00869379 -0.000836386 0)
(0.0109625 -0.00064988 0)
(0.0126173 -0.000500302 0)
(0.0138209 -0.000398197 0)
(0.0147307 -0.000344891 0)
(0.0154833 -0.000342852 0)
(0.0162053 -0.000409457 0)
(0.0170542 -0.000620298 0)
(0.0182263 -0.00129348 0)
(0.010688 -0.0017742 0)
(0.00122863 3.67311e-13 0)
(3.94644e-10 7.36314e-33 0)
(1.4889e-31 -7.97204e-34 0)
(1.54173e-31 -6.17547e-33 0)
(1.6927e-31 -1.48516e-32 0)
(1.94678e-31 -3.97575e-32 0)
(0.00213538 -0.00210881 0)
(0.00605832 -0.00185727 0)
(0.00921529 -0.00150498 0)
(0.0115791 -0.00116312 0)
(0.0132799 -0.00088838 0)
(0.0144944 -0.000698277 0)
(0.0153884 -0.00059348 0)
(0.0161008 -0.000575662 0)
(0.0167469 -0.000668346 0)
(0.0174191 -0.000973434 0)
(0.0179953 -0.00186547 0)
(0.0115347 -0.00281753 0)
(0.00242523 3.48185e-13 0)
(1.95799e-08 8.79597e-33 0)
(1.83724e-31 -1.70923e-33 0)
(1.5046e-31 -9.84865e-33 0)
(1.60997e-31 -2.19652e-32 0)
(1.71509e-31 -4.81834e-32 0)
(0.00225514 -0.0031807 0)
(0.00637878 -0.00278936 0)
(0.00965827 -0.00224714 0)
(0.0120771 -0.0017247 0)
(0.0137877 -0.00130606 0)
(0.0149847 -0.00101486 0)
(0.0158436 -0.000849246 0)
(0.0165037 -0.000807304 0)
(0.0170641 -0.000911372 0)
(0.0175468 -0.00125777 0)
(0.0175956 -0.00212897 0)
(0.0126043 -0.00299205 0)
(0.00389111 -2.9864e-09 0)
(1.51013e-07 1.14205e-30 0)
(3.25305e-29 -3.00498e-33 0)
(1.45453e-31 -1.29551e-32 0)
(1.52088e-31 -2.65703e-32 0)
(1.55153e-31 -4.97715e-32 0)
(0.00238692 -0.00439396 0)
(0.00672448 -0.00383182 0)
(0.0101199 -0.00306342 0)
(0.0125742 -0.00233088 0)
(0.0142707 -0.00174786 0)
(0.0154276 -0.00134226 0)
(0.0162322 -0.00110676 0)
(0.016824 -0.00103201 0)
(0.0172869 -0.00113066 0)
(0.0175963 -0.00146609 0)
(0.0173486 -0.00215765 0)
(0.0137221 -0.00253332 0)
(0.00522395 -5.56818e-08 0)
(5.34744e-07 6.28586e-28 0)
(2.09259e-26 -4.51739e-33 0)
(1.39624e-31 -1.53898e-32 0)
(1.43379e-31 -2.91101e-32 0)
(1.42898e-31 -4.83898e-32 0)
(0.00254409 -0.00577408 0)
(0.0071297 -0.00499889 0)
(0.0106449 -0.00395716 0)
(0.0131186 -0.00297834 0)
(0.0147777 -0.00220746 0)
(0.0158709 -0.00167323 0)
(0.0166002 -0.00135859 0)
(0.0171068 -0.00124222 0)
(0.0174649 -0.00131975 0)
(0.0176359 -0.00160858 0)
(0.0172928 -0.00207901 0)
(0.0147594 -0.00202278 0)
(0.00629831 -5.61356e-07 0)
(1.49413e-06 1.02366e-25 0)
(5.35613e-24 -6.04548e-33 0)
(1.3336e-31 -1.71726e-32 0)
(1.35208e-31 -3.018e-32 0)
(1.33229e-31 -4.5892e-32 0)
(0.0027403 -0.00735795 0)
(0.00762699 -0.00631018 0)
(0.011271 -0.00493218 0)
(0.013746 -0.00366186 0)
(0.0153399 -0.00267591 0)
(0.016342 -0.00199787 0)
(0.0169725 -0.001595 0)
(0.0173762 -0.00142908 0)
(0.0176249 -0.00147426 0)
(0.0176933 -0.00170418 0)
(0.0173757 -0.00199565 0)
(0.0156943 -0.00171659 0)
(0.00715825 -4.0919e-06 0)
(3.84965e-06 7.31993e-24 0)
(7.92471e-22 -7.43653e-33 0)
(1.26925e-31 -1.8414e-32 0)
(1.27662e-31 -3.03296e-32 0)
(1.25267e-31 -4.31459e-32 0)
(0.00299332 -0.00919819 0)
(0.00825665 -0.00779119 0)
(0.0120404 -0.00599109 0)
(0.0144914 -0.00437227 0)
(0.0159848 -0.00313998 0)
(0.0168622 -0.00230254 0)
(0.0173663 -0.00180334 0)
(0.0176475 -0.00158203 0)
(0.017781 -0.00159013 0)
(0.0177689 -0.00177015 0)
(0.0175251 -0.00196654 0)
(0.0165106 -0.00167148 0)
(0.00785741 -2.46207e-05 0)
(1.09103e-05 3.92906e-22 0)
(1.19372e-19 -8.66696e-33 0)
(1.20464e-31 -1.92931e-32 0)
(1.20719e-31 -3.00063e-32 0)
(1.18484e-31 -4.05577e-32 0)
(0.00332904 -0.011371 0)
(0.00907464 -0.00947423 0)
(0.0130071 -0.00713282 0)
(0.0153956 -0.00509357 0)
(0.01674 -0.00357992 0)
(0.0174504 -0.00256838 0)
(0.0177953 -0.00196708 0)
(0.0179311 -0.00168782 0)
(0.0179377 -0.00166051 0)
(0.0178445 -0.00181296 0)
(0.0176594 -0.00200831 0)
(0.0171521 -0.00188788 0)
(0.00841878 -0.000131687 0)
(3.90093e-05 1.10634e-18 0)
(3.47333e-17 -9.91522e-33 0)
(1.14053e-31 -2.00489e-32 0)
(1.14322e-31 -2.95601e-32 0)
(1.12563e-31 -3.83262e-32 0)
(0.0037876 -0.0139895 0)
(0.0101637 -0.0113989 0)
(0.0142445 -0.00834785 0)
(0.016508 -0.0057983 0)
(0.0176359 -0.00396627 0)
(0.0181248 -0.00276936 0)
(0.0182707 -0.00206455 0)
(0.0182335 -0.0017291 0)
(0.0180931 -0.0016724 0)
(0.0178927 -0.001821 0)
(0.0176874 -0.0020902 0)
(0.0174597 -0.00231295 0)
(0.00883124 -0.000602618 0)
(0.000167999 -1.10059e-14 0)
(2.92758e-14 -1.15859e-32 0)
(1.07776e-31 -2.09652e-32 0)
(1.08438e-31 -2.92649e-32 0)
(1.07321e-31 -3.65596e-32 0)
(0.00443484 -0.0172288 0)
(0.0116523 -0.0136102 0)
(0.0158549 -0.00960888 0)
(0.0178904 -0.00643992 0)
(0.0187052 -0.00425533 0)
(0.018902 -0.00286983 0)
(0.0188012 -0.00206764 0)
(0.0185583 -0.00168323 0)
(0.0182436 -0.00160478 0)
(0.0178898 -0.00176127 0)
(0.017526 -0.00212069 0)
(0.0171035 -0.00269754 0)
(0.009148 -0.00163333 0)
(0.000717454 -7.16932e-12 0)
(4.69439e-11 -2.38173e-32 0)
(1.01877e-31 -2.2315e-32 0)
(1.031e-31 -2.93233e-32 0)
(1.0268e-31 -3.53197e-32 0)
(0.00531914 -0.0209725 0)
(0.0136067 -0.0159287 0)
(0.0178462 -0.0107608 0)
(0.0195123 -0.00691544 0)
(0.0199091 -0.00438706 0)
(0.01975 -0.00283771 0)
(0.0193666 -0.00196083 0)
(0.0188981 -0.00154357 0)
(0.018394 -0.00145211 0)
(0.0178587 -0.00161157 0)
(0.0172495 -0.00200569 0)
(0.0162978 -0.00268462 0)
(0.00986776 -0.00228299 0)
(0.00202866 -5.14534e-10 0)
(2.38908e-08 -6.04046e-29 0)
(1.5483e-31 -2.40567e-32 0)
(9.8805e-32 -2.97703e-32 0)
(9.89768e-32 -3.46401e-32 0)
(0.00655518 -0.0258282 0)
(0.0162098 -0.0185077 0)
(0.0203052 -0.0117712 0)
(0.0213863 -0.00715507 0)
(0.0212246 -0.00429796 0)
(0.0206325 -0.00262236 0)
(0.0199267 -0.001704 0)
(0.0192122 -0.00127667 0)
(0.0185069 -0.00118247 0)
(0.0177821 -0.00133281 0)
(0.016943 -0.00168624 0)
(0.0156662 -0.00219727 0)
(0.0108554 -0.00191022 0)
(0.00342807 -1.19813e-08 0)
(1.95699e-07 -6.48437e-26 0)
(2.54337e-28 -2.62344e-32 0)
(9.51564e-32 -3.06313e-32 0)
(9.58075e-32 -3.44437e-32 0)
(0.00878812 -0.033496 0)
(0.0206171 -0.0216779 0)
(0.0240577 -0.0125217 0)
(0.0240187 -0.00697301 0)
(0.0229629 -0.0038254 0)
(0.0217477 -0.00209317 0)
(0.0206114 -0.00119152 0)
(0.0195874 -0.000793589 0)
(0.0186438 -0.00071736 0)
(0.0177201 -0.000856943 0)
(0.0167129 -0.00113639 0)
(0.0153948 -0.00143416 0)
(0.0119372 -0.00116228 0)
(0.00462903 -1.04217e-07 0)
(7.37175e-07 -9.94786e-24 0)
(2.68832e-25 -2.89918e-32 0)
(9.1883e-32 -3.20018e-32 0)
(9.29026e-32 -3.4691e-32 0)
(0.0133614 -0.0470485 0)
(0.028823 -0.024864 0)
(0.0299789 -0.0121286 0)
(0.0276938 -0.0057617 0)
(0.0251908 -0.00259272 0)
(0.0230938 -0.00101034 0)
(0.0214026 -0.000262129 0)
(0.0200082 2.17982e-05 0)
(0.0188012 3.02268e-05 0)
(0.0176883 -0.000128731 0)
(0.0165804 -0.000371478 0)
(0.0153471 -0.000586661 0)
(0.0127686 -0.000503825 0)
(0.0054315 -3.44152e-07 0)
(1.88244e-06 -1.99585e-22 0)
(4.7915e-23 -3.22014e-32 0)
(8.93371e-32 -3.38982e-32 0)
(9.0584e-32 -3.5453e-32 0)
(0.0245189 -0.0755047 0)
(0.0462094 -0.023989 0)
(0.0393548 -0.00801111 0)
(0.0324967 -0.00226426 0)
(0.0277712 2.08942e-05 0)
(0.0245461 0.000969366 0)
(0.0222156 0.00130038 0)
(0.0204186 0.00131785 0)
(0.0189423 0.00116323 0)
(0.0176531 0.000911812 0)
(0.0164603 0.000613385 0)
(0.0152644 0.000309871 0)
(0.0130975 4.43775e-05 0)
(0.00577561 -3.6121e-07 0)
(3.28632e-06 -2.93782e-22 0)
(1.10926e-21 -3.59211e-32 0)
(8.78936e-32 -3.63338e-32 0)
(8.92597e-32 -3.67426e-32 0)
(0.059256 0.004893 0)
(0.0904102 0.00689699 0)
(0.0521762 0.00615793 0)
(0.0373512 0.0054034 0)
(0.0300153 0.00475866 0)
(0.0256731 0.00421215 0)
(0.0227685 0.00371044 0)
(0.0206357 0.00323584 0)
(0.0189436 0.00278279 0)
(0.0175049 0.00234746 0)
(0.0161961 0.00191823 0)
(0.0148797 0.00145699 0)
(0.0125197 0.00079638 0)
(0.00542318 -1.10062e-07 0)
(2.69777e-06 -1.0408e-22 0)
(4.76011e-22 -4.03185e-32 0)
(8.82518e-32 -3.92412e-32 0)
(8.95454e-32 -3.84283e-32 0)
(0.0201793 0.0808969 0)
(0.0396366 0.0363008 0)
(0.0360108 0.0205574 0)
(0.0307157 0.0137007 0)
(0.0265733 0.0101389 0)
(0.0235274 0.00800829 0)
(0.0212361 0.00658162 0)
(0.0194335 0.00554228 0)
(0.017938 0.00474175 0)
(0.0166149 0.00410436 0)
(0.0153358 0.00357862 0)
(0.0138785 0.00307784 0)
(0.00943046 0.00179095 0)
(0.00289724 -2.61098e-10 0)
(1.75028e-07 -1.56584e-28 0)
(3.41714e-28 -4.41233e-32 0)
(9.17354e-32 -4.17627e-32 0)
(9.23772e-32 -3.98556e-32 0)
(0.00760809 0.0457487 0)
(0.0180341 0.03283 0)
(0.021381 0.0233525 0)
(0.0215903 0.0173045 0)
(0.0206942 0.0134231 0)
(0.0195034 0.0108172 0)
(0.0183105 0.00896954 0)
(0.0172079 0.0075949 0)
(0.0162088 0.00654081 0)
(0.0152842 0.00572823 0)
(0.01434 0.00510001 0)
(0.012746 0.0043784 0)
(0.00583277 0.00114965 0)
(9.42267e-06 4.33848e-20 0)
(2.34204e-19 -4.99159e-32 0)
(9.80766e-32 -4.61455e-32 0)
(9.82857e-32 -4.26939e-32 0)
(9.81057e-32 -3.98913e-32 0)
(0.00414039 0.030204 0)
(0.0107517 0.0257187 0)
(0.0143943 0.0210381 0)
(0.0159657 0.0172038 0)
(0.0163551 0.0142588 0)
(0.0161362 0.0119999 0)
(0.0156387 0.0102236 0)
(0.0150471 0.00878153 0)
(0.0144619 0.00757985 0)
(0.0139097 0.00656077 0)
(0.0131318 0.00560542 0)
(0.00643481 0.00242069 0)
(0.00012304 5.64937e-07 0)
(1.52696e-14 6.10076e-20 0)
(1.11376e-31 -4.95156e-32 0)
(1.08983e-31 -4.47474e-32 0)
(1.07109e-31 -4.09116e-32 0)
(1.05484e-31 -3.77751e-32 0)
(0.00290012 0.0230248 0)
(0.0078552 0.0208988 0)
(0.0111278 0.0183496 0)
(0.012938 0.0159762 0)
(0.0137192 0.0139227 0)
(0.0138588 0.0121636 0)
(0.0136361 0.0106272 0)
(0.013238 0.00923891 0)
(0.0127781 0.00792985 0)
(0.0122143 0.00658003 0)
(0.00684989 0.0033439 0)
(0.000906892 5.27726e-05 0)
(4.3555e-10 9.00925e-15 0)
(1.23552e-31 -4.86031e-32 0)
(1.19149e-31 -4.42407e-32 0)
(1.1608e-31 -4.03269e-32 0)
(1.13404e-31 -3.69448e-32 0)
(1.11028e-31 -3.40613e-32 0)
(0.00235544 0.0183503 0)
(0.00650952 0.0173083 0)
(0.00946601 0.0160038 0)
(0.0112329 0.0146769 0)
(0.0120674 0.0133605 0)
(0.0122729 0.0120711 0)
(0.0120834 0.0107974 0)
(0.0116525 0.0094964 0)
(0.0109967 0.00807154 0)
(0.00755322 0.00506593 0)
(0.00225219 0.000595384 0)
(8.69292e-08 7.42689e-11 0)
(9.38064e-30 -4.74632e-32 0)
(1.28801e-31 -4.29618e-32 0)
(1.25034e-31 -3.89308e-32 0)
(1.21514e-31 -3.54059e-32 0)
(1.1831e-31 -3.23688e-32 0)
(1.15414e-31 -2.97703e-32 0)
(0.00212838 0.0148709 0)
(0.00593793 0.0144744 0)
(0.00871738 0.0140476 0)
(0.0103623 0.0135639 0)
(0.0110874 0.0128516 0)
(0.0112027 0.0119618 0)
(0.0109084 0.0109238 0)
(0.0102948 0.00965843 0)
(0.00818335 0.00719183 0)
(0.00322773 0.00183475 0)
(5.76851e-07 5.42192e-09 0)
(6.90129e-26 -4.81904e-32 0)
(1.39022e-31 -4.24129e-32 0)
(1.34396e-31 -3.7592e-32 0)
(1.29963e-31 -3.36606e-32 0)
(1.25876e-31 -3.03942e-32 0)
(1.22172e-31 -2.76549e-32 0)
(1.18837e-31 -2.53442e-32 0)
(0.00207148 0.0120298 0)
(0.00581434 0.0120915 0)
(0.00855401 0.0123974 0)
(0.0100467 0.0127088 0)
(0.0105535 0.0124839 0)
(0.010492 0.0119021 0)
(0.00999295 0.0110175 0)
(0.00858504 0.00910261 0)
(0.00376864 0.00313258 0)
(2.44408e-06 7.46008e-08 0)
(7.46686e-23 -4.76712e-32 0)
(1.51502e-31 -4.30347e-32 0)
(1.45084e-31 -3.66977e-32 0)
(1.3925e-31 -3.19919e-32 0)
(1.34004e-31 -2.83331e-32 0)
(1.29321e-31 -2.53984e-32 0)
(1.25154e-31 -2.29951e-32 0)
(1.21444e-31 -2.09986e-32 0)
(0.00210934 0.00956628 0)
(0.00596906 0.00997211 0)
(0.00880755 0.0109552 0)
(0.0101137 0.0121455 0)
(0.0102879 0.0122607 0)
(0.00999649 0.0118489 0)
(0.00897758 0.0106999 0)
(0.00411326 0.00425056 0)
(1.02129e-05 4.1302e-07 0)
(4.94144e-20 -2.90665e-32 0)
(1.68241e-31 -4.43379e-32 0)
(1.58235e-31 -3.6134e-32 0)
(1.50052e-31 -3.04121e-32 0)
(1.43112e-31 -2.62307e-32 0)
(1.37128e-31 -2.30476e-32 0)
(1.31924e-31 -2.0544e-32 0)
(1.27369e-31 -1.85258e-32 0)
(1.23358e-31 -1.68685e-32 0)
(0.00219034 0.00735965 0)
(0.00628575 0.00800114 0)
(0.00938307 0.00961886 0)
(0.0104428 0.0119211 0)
(0.0101217 0.0121269 0)
(0.00947437 0.0115343 0)
(0.00456731 0.00521758 0)
(5.95139e-05 2.59532e-06 0)
(7.29061e-17 2.79581e-20 0)
(1.90689e-31 -4.46674e-32 0)
(1.75026e-31 -3.5273e-32 0)
(1.63165e-31 -2.86685e-32 0)
(1.53725e-31 -2.39819e-32 0)
(1.45947e-31 -2.05581e-32 0)
(1.39395e-31 -1.79723e-32 0)
(1.33789e-31 -1.59592e-32 0)
(1.28939e-31 -1.43515e-32 0)
(1.24704e-31 -1.30413e-32 0)
(0.00226994 0.00536402 0)
(0.00665622 0.00611306 0)
(0.0102114 0.00827175 0)
(0.0109259 0.0121023 0)
(0.0098166 0.0119015 0)
(0.00516144 0.00626266 0)
(0.00044562 4.17087e-05 0)
(6.04092e-13 9.87953e-17 0)
(2.19209e-31 -4.19784e-32 0)
(1.96478e-31 -3.30278e-32 0)
(1.79482e-31 -2.62278e-32 0)
(1.66491e-31 -2.13166e-32 0)
(1.56229e-31 -1.77846e-32 0)
(1.47881e-31 -1.51963e-32 0)
(1.40932e-31 -1.32469e-32 0)
(1.35045e-31 -1.17369e-32 0)
(1.29989e-31 -1.05376e-32 0)
(1.25599e-31 -9.56487e-33 0)
(0.00230124 0.00357496 0)
(0.00694372 0.00428447 0)
(0.0111867 0.00677539 0)
(0.0114014 0.0127139 0)
(0.0066707 0.00933489 0)
(0.00181349 0.000634467 0)
(6.66427e-09 1.19644e-12 0)
(2.63862e-31 -3.55315e-32 0)
(2.23431e-31 -2.82169e-32 0)
(1.99972e-31 -2.22959e-32 0)
(1.82208e-31 -1.77671e-32 0)
(1.68556e-31 -1.44523e-32 0)
(1.57795e-31 -1.20484e-32 0)
(1.49091e-31 -1.0282e-32 0)
(1.41892e-31 -8.95273e-33 0)
(1.35827e-31 -7.92568e-33 0)
(1.30641e-31 -7.11237e-33 0)
(1.26153e-31 -6.45459e-33 0)
(0.00219565 0.00201344 0)
(0.00685308 0.002537 0)
(0.0119073 0.00496946 0)
(0.0109755 0.0129287 0)
(0.00372659 0.00346931 0)
(9.32384e-07 7.19825e-10 0)
(6.19152e-27 -2.65164e-32 0)
(2.57175e-31 -2.02063e-32 0)
(2.25752e-31 -1.59822e-32 0)
(2.01859e-31 -1.26591e-32 0)
(1.83687e-31 -1.01161e-32 0)
(1.69684e-31 -8.24323e-33 0)
(1.58654e-31 -6.87903e-33 0)
(1.49756e-31 -5.87483e-33 0)
(1.42419e-31 -5.1193e-33 0)
(1.36255e-31 -4.53625e-33 0)
(1.30997e-31 -4.07525e-33 0)
(1.26455e-31 -3.70297e-33 0)
(0.00108407 0.000646672 0)
(0.00349468 0.000844557 0)
(0.00596396 0.00198383 0)
(0.0035666 0.00636652 0)
(1.32511e-05 1.01923e-07 0)
(4.60068e-22 -1.24831e-32 0)
(3.02127e-31 -8.79577e-33 0)
(2.58533e-31 -6.56629e-33 0)
(2.26707e-31 -5.1999e-33 0)
(2.02625e-31 -4.14285e-33 0)
(1.84287e-31 -3.33452e-33 0)
(1.70143e-31 -2.73779e-33 0)
(1.59005e-31 -2.30233e-33 0)
(1.50028e-31 -1.98153e-33 0)
(1.42634e-31 -1.74017e-33 0)
(1.3643e-31 -1.55401e-33 0)
(1.31143e-31 -1.40691e-33 0)
(1.26579e-31 -1.2882e-33 0)
(5.94472e-34 -1.4323e-33 -1.8505e-59)
(1.78815e-33 -1.43029e-33 1.8465e-59)
(2.98901e-33 -1.4268e-33 0)
(4.19568e-33 -1.42181e-33 0)
(5.40673e-33 -1.41532e-33 0)
(6.62069e-33 -1.40732e-33 -1.8111e-59)
(7.83607e-33 -1.39783e-33 0)
(9.05136e-33 -1.38688e-33 0)
(1.0265e-32 -1.37449e-33 0)
(1.14756e-32 -1.36071e-33 0)
(1.26814e-32 -1.34559e-33 1.72416e-59)
(1.38811e-32 -1.32918e-33 0)
(1.50732e-32 -1.31154e-33 0)
(1.62563e-32 -1.29276e-33 0)
(1.74289e-32 -1.27291e-33 0)
(1.85897e-32 -1.25206e-33 1.5963e-59)
(1.97375e-32 -1.23031e-33 0)
(2.0871e-32 -1.20774e-33 0)
(2.1989e-32 -1.18445e-33 0)
(2.30907e-32 -1.16052e-33 0)
(2.41748e-32 -1.13605e-33 0)
(2.52405e-32 -1.11114e-33 0)
(2.62871e-32 -1.08586e-33 0)
(2.73137e-32 -1.06031e-33 1.33817e-59)
(2.83197e-32 -1.03457e-33 -1.30371e-59)
(2.93045e-32 -1.00872e-33 1.26914e-59)
(3.02676e-32 -9.82837e-34 1.23456e-59)
(3.12086e-32 -9.56998e-34 0)
(3.21271e-32 -9.31269e-34 0)
(3.3023e-32 -9.05713e-34 -1.13162e-59)
(3.38959e-32 -8.80388e-34 -1.09786e-59)
(3.47458e-32 -8.55347e-34 0)
(3.55726e-32 -8.30639e-34 0)
(3.63763e-32 -8.06308e-34 -9.99187e-60)
(3.71569e-32 -7.82392e-34 0)
(3.79145e-32 -7.58925e-34 0)
(3.86494e-32 -7.35938e-34 9.05552e-60)
(3.93616e-32 -7.13455e-34 0)
(4.00514e-32 -6.91498e-34 8.4646e-60)
(4.07191e-32 -6.70085e-34 1.63599e-59)
(4.1365e-32 -6.4923e-34 0)
(4.19894e-32 -6.28945e-34 0)
(4.25927e-32 -6.09236e-34 0)
(4.31752e-32 -5.90109e-34 0)
(4.37373e-32 -5.71567e-34 0)
(4.42795e-32 -5.5361e-34 1.32651e-59)
(4.48021e-32 -5.36237e-34 1.28037e-59)
(4.53057e-32 -5.19444e-34 1.23577e-59)
(4.57905e-32 -5.03227e-34 0)
(4.62572e-32 -4.87577e-34 -1.15115e-59)
(4.67062e-32 -4.72489e-34 0)
(4.71378e-32 -4.57952e-34 1.07249e-59)
(4.75527e-32 -4.43958e-34 1.03533e-59)
(4.79512e-32 -4.30495e-34 0)
(4.83338e-32 -4.17553e-34 0)
(4.8701e-32 -4.05118e-34 0)
(4.90532e-32 -3.9318e-34 9.00537e-60)
(4.93909e-32 -3.81726e-34 0)
(4.97145e-32 -3.70742e-34 0)
(5.00245e-32 -3.60215e-34 0)
(5.03214e-32 -3.50132e-34 0)
(5.06055e-32 -3.4048e-34 0)
(5.08773e-32 -3.31246e-34 0)
(5.11371e-32 -3.22416e-34 0)
(5.13855e-32 -3.13977e-34 0)
(5.16228e-32 -3.05916e-34 -6.68895e-60)
(5.18494e-32 -2.98219e-34 0)
(5.20657e-32 -2.90875e-34 0)
(5.22721e-32 -2.83871e-34 6.10379e-60)
(5.24689e-32 -2.77194e-34 5.92652e-60)
(5.26565e-32 -2.70832e-34 0)
(5.28353e-32 -2.64773e-34 -5.59682e-60)
(5.30055e-32 -2.59005e-34 5.44371e-60)
(5.31676e-32 -2.53518e-34 0)
(5.33217e-32 -2.48301e-34 -5.15952e-60)
(5.34684e-32 -2.43341e-34 0)
(5.36078e-32 -2.3863e-34 0)
(5.37403e-32 -2.34156e-34 4.78402e-60)
(5.38661e-32 -2.2991e-34 0)
(5.39855e-32 -2.25882e-34 -4.56434e-60)
(5.40989e-32 -2.22062e-34 0)
(5.42064e-32 -2.18443e-34 4.36683e-60)
(5.43083e-32 -2.15015e-34 4.27581e-60)
(5.44048e-32 -2.11769e-34 4.18963e-60)
(5.44963e-32 -2.08697e-34 8.21616e-60)
(5.45828e-32 -2.05792e-34 -8.06186e-60)
(5.46647e-32 -2.03046e-34 0)
(5.47422e-32 -2.00451e-34 0)
(5.48154e-32 -1.98e-34 0)
(5.48845e-32 -1.95687e-34 -7.5252e-60)
(5.49498e-32 -1.93504e-34 -7.40928e-60)
(5.50115e-32 -1.91446e-34 7.29999e-60)
(5.50696e-32 -1.89507e-34 0)
(5.51244e-32 -1.8768e-34 -7.09995e-60)
(5.51761e-32 -1.8596e-34 -7.00857e-60)
(5.52247e-32 -1.84342e-34 -6.9226e-60)
(5.52705e-32 -1.8282e-34 0)
(5.53136e-32 -1.81389e-34 0)
(5.53541e-32 -1.80045e-34 0)
(5.53922e-32 -1.78783e-34 -6.62733e-60)
(5.5428e-32 -1.77599e-34 0)
(5.54616e-32 -1.76489e-34 0)
(5.54931e-32 -1.75447e-34 6.45013e-60)
(5.55227e-32 -1.74472e-34 0)
(5.55504e-32 -1.73559e-34 0)
(5.55763e-32 -1.72704e-34 6.30437e-60)
(5.56006e-32 -1.71905e-34 0)
(5.56233e-32 -1.71158e-34 0)
(5.56446e-32 -1.7046e-34 -6.18513e-60)
(5.56644e-32 -1.69809e-34 -6.15051e-60)
(5.5683e-32 -1.69201e-34 0)
(5.57003e-32 -1.68634e-34 6.08807e-60)
(5.57165e-32 -1.68106e-34 0)
(5.57315e-32 -1.67614e-34 -6.03387e-60)
(5.57456e-32 -1.67156e-34 0)
(5.57586e-32 -1.6673e-34 -5.98688e-60)
(5.57708e-32 -1.66334e-34 -5.96586e-60)
(5.57821e-32 -1.65966e-34 0)
(5.57926e-32 -1.65624e-34 0)
(5.58024e-32 -1.65307e-34 0)
(5.58115e-32 -1.65013e-34 0)
(5.58199e-32 -1.64741e-34 0)
(5.58277e-32 -1.64489e-34 0)
(5.58349e-32 -1.64255e-34 0)
(5.58416e-32 -1.64039e-34 -5.84386e-60)
(5.58478e-32 -1.6384e-34 5.83327e-60)
(5.58535e-32 -1.63655e-34 0)
(5.58588e-32 -1.63485e-34 0)
(5.58637e-32 -1.63328e-34 0)
(5.58682e-32 -1.63183e-34 0)
(5.58724e-32 -1.63049e-34 1.15825e-59)
(5.58762e-32 -1.62926e-34 0)
(5.58797e-32 -1.62813e-34 -1.15574e-59)
(5.5883e-32 -1.62709e-34 1.15463e-59)
(5.58859e-32 -1.62613e-34 0)
(5.58887e-32 -1.62525e-34 0)
(5.58912e-32 -1.62443e-34 0)
(5.58935e-32 -1.62368e-34 -1.151e-59)
(5.58956e-32 -1.62299e-34 -1.15027e-59)
(5.58975e-32 -1.62235e-34 0)
(5.58992e-32 -1.62177e-34 -1.14897e-59)
(5.59008e-32 -1.62122e-34 -1.14839e-59)
(5.59022e-32 -1.62071e-34 1.14785e-59)
(5.59035e-32 -1.62023e-34 0)
(5.59046e-32 -1.61978e-34 0)
(5.59057e-32 -1.61935e-34 1.14641e-59)
(5.59065e-32 -1.61893e-34 0)
(5.59073e-32 -1.61852e-34 0)
(5.59079e-32 -1.61811e-34 0)
(5.59084e-32 -1.61769e-34 0)
(5.59088e-32 -1.61725e-34 -1.14421e-59)
(5.5909e-32 -1.61678e-34 -1.14372e-59)
(5.5909e-32 -1.61626e-34 0)
(5.59088e-32 -1.61567e-34 -1.14258e-59)
(5.59084e-32 -1.615e-34 0)
(5.59078e-32 -1.6142e-34 0)
(5.59068e-32 -1.61326e-34 -1.1401e-59)
(5.59055e-32 -1.61212e-34 0)
(5.59036e-32 -1.61072e-34 -1.1375e-59)
(5.59012e-32 -1.60899e-34 0)
(5.5898e-32 -1.60685e-34 0)
(5.58939e-32 -1.60416e-34 -1.13082e-59)
(5.58886e-32 -1.60078e-34 0)
(5.58818e-32 -1.5965e-34 -1.12301e-59)
(5.58731e-32 -1.59105e-34 0)
(5.58618e-32 -1.58409e-34 0)
(5.58473e-32 -1.57514e-34 0)
(5.58285e-32 -1.56357e-34 1.08946e-59)
(5.58043e-32 -1.5485e-34 0)
(5.57727e-32 -1.52872e-34 -1.05395e-59)
(5.57314e-32 -1.50247e-34 0)
(5.5677e-32 -1.46718e-34 0)
(5.56046e-32 -1.41894e-34 0)
(5.55071e-32 -1.35143e-34 0)
(5.53736e-32 -1.25392e-34 0)
(5.5186e-32 -1.10647e-34 0)
(5.49128e-32 -8.67416e-35 0)
(5.44893e-32 -4.3344e-35 -1.3283e-60)
(5.37529e-32 5.26721e-35 0)
(5.21209e-32 3.53738e-34 0)
(5.97571e-34 -3.98024e-33 5.14221e-59)
(1.79745e-33 -3.97417e-33 -5.13012e-59)
(3.00449e-33 -3.96361e-33 0)
(4.21729e-33 -3.94851e-33 1.01867e-58)
(5.43437e-33 -3.92886e-33 0)
(6.65424e-33 -3.90467e-33 -5.03882e-59)
(7.87535e-33 -3.87598e-33 -9.98198e-59)
(9.09617e-33 -3.84286e-33 -9.8906e-59)
(1.03151e-32 -3.80541e-33 0)
(1.15307e-32 -3.76375e-33 -9.67461e-59)
(1.27413e-32 -3.71804e-33 4.79042e-59)
(1.39454e-32 -3.66846e-33 0)
(1.51416e-32 -3.61519e-33 0)
(1.63284e-32 -3.55847e-33 0)
(1.75044e-32 -3.49852e-33 0)
(1.86682e-32 -3.4356e-33 4.41837e-59)
(1.98185e-32 -3.36997e-33 0)
(2.09543e-32 -3.3019e-33 8.43625e-59)
(2.20742e-32 -3.23166e-33 0)
(2.31773e-32 -3.15954e-33 0)
(2.42625e-32 -3.0858e-33 -7.86204e-59)
(2.5329e-32 -3.01074e-33 0)
(2.6376e-32 -2.93461e-33 7.46124e-59)
(2.74027e-32 -2.85768e-33 3.66112e-59)
(2.84085e-32 -2.78021e-33 -3.5598e-59)
(2.93929e-32 -2.70243e-33 3.45812e-59)
(3.03553e-32 -2.62459e-33 3.35636e-59)
(3.12953e-32 -2.54688e-33 0)
(3.22127e-32 -2.46953e-33 0)
(3.31072e-32 -2.39272e-33 -3.05343e-59)
(3.39786e-32 -2.31662e-33 -8.78191e-59)
(3.48269e-32 -2.24139e-33 0)
(3.56518e-32 -2.16718e-33 0)
(3.64536e-32 -2.09411e-33 -2.66354e-59)
(3.72322e-32 -2.02231e-33 0)
(3.79878e-32 -1.95187e-33 0)
(3.87205e-32 -1.88288e-33 2.38785e-59)
(3.94306e-32 -1.81541e-33 0)
(4.01182e-32 -1.74953e-33 6.54686e-59)
(4.07837e-32 -1.6853e-33 4.2601e-59)
(4.14273e-32 -1.62274e-33 0)
(4.20495e-32 -1.5619e-33 0)
(4.26505e-32 -1.5028e-33 -7.36651e-59)
(4.32308e-32 -1.44545e-33 -7.06454e-59)
(4.37908e-32 -1.38986e-33 -6.77185e-59)
(4.43308e-32 -1.33603e-33 9.83734e-59)
(4.48513e-32 -1.28395e-33 3.21304e-59)
(4.53528e-32 -1.23362e-33 -2.86759e-59)
(4.58357e-32 -1.18501e-33 5.69347e-59)
(4.63004e-32 -1.13811e-33 -2.83262e-59)
(4.67474e-32 -1.09289e-33 0)
(4.71773e-32 -1.04933e-33 2.60106e-59)
(4.75903e-32 -1.00739e-33 7.25034e-59)
(4.79871e-32 -9.67051e-34 0)
(4.8368e-32 -9.28271e-34 0)
(4.87335e-32 -8.91016e-34 0)
(4.90842e-32 -8.55248e-34 2.09488e-59)
(4.94204e-32 -8.20929e-34 0)
(4.97425e-32 -7.88021e-34 3.60421e-59)
(5.00512e-32 -7.56484e-34 0)
(5.03467e-32 -7.26278e-34 3.2793e-59)
(5.06295e-32 -6.97363e-34 0)
(5.09e-32 -6.69699e-34 -2.98157e-59)
(5.11587e-32 -6.43247e-34 0)
(5.1406e-32 -6.17966e-34 2.70934e-59)
(5.16422e-32 -5.93818e-34 -3.99533e-59)
(5.18678e-32 -5.70763e-34 0)
(5.20831e-32 -5.48764e-34 -2.34518e-59)
(5.22885e-32 -5.27781e-34 1.24083e-59)
(5.24844e-32 -5.07779e-34 1.18867e-59)
(5.26711e-32 -4.88722e-34 0)
(5.28491e-32 -4.70572e-34 -3.02533e-59)
(5.30185e-32 -4.53296e-34 1.04657e-59)
(5.31798e-32 -4.3686e-34 0)
(5.33333e-32 -4.2123e-34 -9.62936e-60)
(5.34793e-32 -4.06374e-34 -1.59586e-59)
(5.36181e-32 -3.9226e-34 0)
(5.375e-32 -3.78859e-34 8.52428e-60)
(5.38752e-32 -3.6614e-34 0)
(5.39941e-32 -3.54074e-34 5.32828e-60)
(5.41069e-32 -3.42634e-34 0)
(5.42139e-32 -3.31792e-34 -4.73674e-60)
(5.43154e-32 -3.21522e-34 7.0288e-60)
(5.44115e-32 -3.11799e-34 1.77563e-59)
(5.45025e-32 -3.02598e-34 3.40642e-59)
(5.45887e-32 -2.93896e-34 -3.26941e-59)
(5.46702e-32 -2.85669e-34 0)
(5.47473e-32 -2.77895e-34 0)
(5.48202e-32 -2.70554e-34 0)
(5.4889e-32 -2.63625e-34 5.8537e-60)
(5.4954e-32 -2.57088e-34 -1.06963e-59)
(5.50154e-32 -2.50923e-34 1.03747e-59)
(5.50733e-32 -2.45114e-34 0)
(5.51279e-32 -2.39641e-34 -2.41522e-59)
(5.51793e-32 -2.34489e-34 -9.5173e-60)
(5.52277e-32 -2.29641e-34 -9.26438e-60)
(5.52733e-32 -2.25082e-34 0)
(5.53162e-32 -2.20796e-34 0)
(5.53566e-32 -2.1677e-34 0)
(5.53945e-32 -2.1299e-34 -8.39567e-60)
(5.54301e-32 -2.09443e-34 0)
(5.54635e-32 -2.06116e-34 -1.08362e-59)
(5.54949e-32 -2.02997e-34 -2.63351e-60)
(5.55243e-32 -2.00075e-34 1.02001e-59)
(5.55519e-32 -1.9734e-34 0)
(5.55777e-32 -1.9478e-34 1.70881e-59)
(5.56019e-32 -1.92386e-34 0)
(5.56246e-32 -1.90148e-34 9.15473e-60)
(5.56457e-32 -1.88057e-34 -1.60294e-59)
(5.56655e-32 -1.86106e-34 -1.5722e-59)
(5.5684e-32 -1.84285e-34 0)
(5.57012e-32 -1.82586e-34 -1.5491e-60)
(5.57173e-32 -1.81004e-34 8.19182e-60)
(5.57323e-32 -1.7953e-34 -6.64989e-60)
(5.57463e-32 -1.78158e-34 0)
(5.57593e-32 -1.76882e-34 -6.5117e-60)
(5.57714e-32 -1.75696e-34 1.18287e-60)
(5.57827e-32 -1.74594e-34 0)
(5.57932e-32 -1.7357e-34 7.40884e-60)
(5.58029e-32 -1.72621e-34 7.3088e-60)
(5.58119e-32 -1.7174e-34 7.21605e-60)
(5.58203e-32 -1.70924e-34 0)
(5.58281e-32 -1.70168e-34 0)
(5.58353e-32 -1.69469e-34 0)
(5.58419e-32 -1.68822e-34 -1.29997e-59)
(5.58481e-32 -1.68224e-34 6.0599e-60)
(5.58538e-32 -1.67671e-34 0)
(5.58591e-32 -1.67161e-34 -6.73369e-60)
(5.58639e-32 -1.6669e-34 -6.68409e-60)
(5.58684e-32 -1.66256e-34 0)
(5.58726e-32 -1.65856e-34 1.18727e-59)
(5.58764e-32 -1.65488e-34 -1.31148e-59)
(5.58799e-32 -1.65148e-34 -1.17988e-59)
(5.58831e-32 -1.64836e-34 2.47436e-59)
(5.58861e-32 -1.64548e-34 0)
(5.58888e-32 -1.64283e-34 0)
(5.58913e-32 -1.6404e-34 0)
(5.58936e-32 -1.63815e-34 -1.16597e-59)
(5.58957e-32 -1.63609e-34 -2.4357e-59)
(5.58976e-32 -1.63418e-34 -1.26787e-59)
(5.58993e-32 -1.63241e-34 -1.15997e-59)
(5.59009e-32 -1.63077e-34 -2.41897e-59)
(5.59023e-32 -1.62924e-34 1.15667e-59)
(5.59036e-32 -1.62781e-34 0)
(5.59047e-32 -1.62646e-34 0)
(5.59057e-32 -1.62516e-34 2.40135e-59)
(5.59066e-32 -1.62391e-34 0)
(5.59073e-32 -1.62269e-34 0)
(5.5908e-32 -1.62146e-34 -1.24118e-59)
(5.59085e-32 -1.6202e-34 0)
(5.59088e-32 -1.61889e-34 -2.38174e-59)
(5.5909e-32 -1.61748e-34 -1.14444e-59)
(5.59091e-32 -1.61592e-34 0)
(5.59089e-32 -1.61417e-34 -2.3671e-59)
(5.59085e-32 -1.61216e-34 0)
(5.59079e-32 -1.60979e-34 0)
(5.59069e-32 -1.60697e-34 -1.1336e-59)
(5.59056e-32 -1.60356e-34 -1.20425e-59)
(5.59038e-32 -1.59939e-34 -1.12578e-59)
(5.59014e-32 -1.59424e-34 0)
(5.58983e-32 -1.58783e-34 0)
(5.58943e-32 -1.57981e-34 -2.26121e-59)
(5.5889e-32 -1.56971e-34 0)
(5.58823e-32 -1.55694e-34 -2.19082e-59)
(5.58737e-32 -1.54069e-34 0)
(5.58626e-32 -1.51991e-34 0)
(5.58483e-32 -1.49322e-34 0)
(5.58299e-32 -1.4587e-34 9.81022e-60)
(5.5806e-32 -1.41378e-34 0)
(5.5775e-32 -1.35482e-34 -8.74126e-60)
(5.57344e-32 -1.27664e-34 0)
(5.5681e-32 -1.17166e-34 0)
(5.56102e-32 -1.02827e-34 -2.57518e-61)
(5.5515e-32 -8.28042e-35 -3.84719e-60)
(5.53851e-32 -5.39715e-35 0)
(5.5204e-32 -1.06029e-35 0)
(5.49437e-32 5.89875e-35 0)
(5.45527e-32 1.82456e-34 6.86416e-59)
(5.39313e-32 4.40006e-34 0)
(5.29509e-32 1.13382e-33 -5.08939e-58)
(6.03852e-34 -6.54824e-33 3.38464e-58)
(1.81629e-33 -6.53795e-33 -4.32327e-62)
(3.03586e-33 -6.52006e-33 0)
(4.26107e-33 -6.49447e-33 1.0095e-61)
(5.49037e-33 -6.46117e-33 0)
(6.72217e-33 -6.42018e-33 0)
(7.95489e-33 -6.37158e-33 -3.28463e-58)
(9.18688e-33 -6.31548e-33 -1.62817e-58)
(1.04165e-32 -6.25208e-33 1.60874e-58)
(1.16422e-32 -6.18158e-33 -1.5924e-58)
(1.28624e-32 -6.10426e-33 0)
(1.40754e-32 -6.02041e-33 0)
(1.52798e-32 -5.9304e-33 -1.52215e-58)
(1.6474e-32 -5.8346e-33 -2.99307e-58)
(1.76567e-32 -5.73341e-33 2.93908e-58)
(1.88265e-32 -5.62726e-33 0)
(1.9982e-32 -5.51661e-33 2.8237e-58)
(2.11222e-32 -5.40192e-33 1.38639e-58)
(2.22457e-32 -5.28365e-33 0)
(2.33517e-32 -5.16228e-33 2.63575e-58)
(2.44391e-32 -5.03829e-33 -1.29083e-58)
(2.55071e-32 -4.91213e-33 -2.50337e-58)
(2.65549e-32 -4.78427e-33 1.22416e-58)
(2.75818e-32 -4.65515e-33 0)
(2.85871e-32 -4.52518e-33 2.29896e-58)
(2.95705e-32 -4.39479e-33 2.23016e-58)
(3.05314e-32 -4.26435e-33 0)
(3.14695e-32 -4.13423e-33 2.09276e-58)
(3.23845e-32 -4.00476e-33 0)
(3.32762e-32 -3.87626e-33 1.95683e-58)
(3.41445e-32 -3.74901e-33 -9.52973e-59)
(3.49893e-32 -3.62328e-33 0)
(3.58107e-32 -3.49931e-33 0)
(3.66086e-32 -3.3773e-33 0)
(3.73831e-32 -3.25745e-33 0)
(3.81345e-32 -3.13991e-33 0)
(3.88629e-32 -3.02483e-33 0)
(3.95685e-32 -2.91234e-33 1.44959e-58)
(4.02517e-32 -2.80252e-33 -6.86418e-59)
(4.09127e-32 -2.69548e-33 0)
(4.15519e-32 -2.59126e-33 0)
(4.21696e-32 -2.48992e-33 0)
(4.27661e-32 -2.3915e-33 -2.37178e-58)
(4.3342e-32 -2.29602e-33 -1.14608e-58)
(4.38976e-32 -2.20348e-33 -2.07303e-60)
(4.44334e-32 -2.11389e-33 2.0983e-60)
(4.49497e-32 -2.02723e-33 -9.84378e-59)
(4.5447e-32 -1.94349e-33 -9.61839e-59)
(4.59259e-32 -1.86263e-33 1.81748e-58)
(4.63867e-32 -1.78461e-33 8.56911e-59)
(4.68299e-32 -1.70941e-33 0)
(4.7256e-32 -1.63697e-33 7.79349e-59)
(4.76654e-32 -1.56724e-33 1.50795e-58)
(4.80587e-32 -1.50016e-33 0)
(4.84362e-32 -1.43569e-33 0)
(4.87985e-32 -1.37375e-33 -6.41086e-59)
(4.9146e-32 -1.3143e-33 0)
(4.94792e-32 -1.25725e-33 0)
(4.97985e-32 -1.20255e-33 1.67699e-58)
(5.01043e-32 -1.15013e-33 1.04725e-58)
(5.03971e-32 -1.09993e-33 5.21056e-59)
(5.06774e-32 -1.05187e-33 0)
(5.09454e-32 -1.0059e-33 -4.71926e-59)
(5.12018e-32 -9.61939e-34 0)
(5.14468e-32 -9.19926e-34 1.23243e-58)
(5.16808e-32 -8.79797e-34 -4.06038e-59)
(5.19043e-32 -8.41485e-34 -7.23021e-59)
(5.21176e-32 -8.04927e-34 -1.05154e-58)
(5.23212e-32 -7.7006e-34 0)
(5.25153e-32 -7.36822e-34 6.13072e-59)
(5.27003e-32 -7.05154e-34 0)
(5.28766e-32 -6.74995e-34 2.49093e-59)
(5.30445e-32 -6.46288e-34 5.17963e-59)
(5.32043e-32 -6.18977e-34 4.89271e-59)
(5.33564e-32 -5.93005e-34 -4.61986e-59)
(5.35011e-32 -5.6832e-34 1.92763e-59)
(5.36386e-32 -5.44868e-34 0)