/*--------------------------------*- C++ -*----------------------------------*\
  =========                 |
  \\      /  F ield         | OpenFOAM: The Open Source CFD Toolbox
   \\    /   O peration     | Website:  https://openfoam.org
    \\  /    A nd           | Version:  10
     \\/     M anipulation  |
\*---------------------------------------------------------------------------*/
FoamFile
{
    format      ascii;
    class       surfaceScalarField;
    location    "17500";
    object      phi;
}
// * * * * * * * * * * * * * * * * * * * * * * * * * * * * * * * * * * * * * //

dimensions      [0 3 -1 0 0 0 0];

internalField   nonuniform List<scalar> 
6280
(
-2.21712e-07
2.21712e-07
-4.45036e-07
2.23325e-07
-6.75576e-07
2.3054e-07
-9.19563e-07
2.43986e-07
-1.18459e-06
2.65028e-07
-1.48066e-06
2.96072e-07
-1.82183e-06
3.41169e-07
-2.22897e-06
4.07138e-07
-2.73469e-06
5.05719e-07
-3.39241e-06
6.57725e-07
-4.29369e-06
9.01279e-07
-5.60216e-06
1.30846e-06
-7.62174e-06
2.01959e-06
-1.09364e-05
3.31465e-06
-1.67001e-05
5.76372e-06
-2.27007e-05
6.00063e-06
-2.32746e-05
5.73887e-07
-2.36015e-05
3.26912e-07
-2.38471e-05
2.45516e-07
-2.40422e-05
1.9515e-07
-2.42018e-05
1.59576e-07
-2.43349e-05
1.33116e-07
-2.44477e-05
1.1282e-07
-2.45446e-05
9.6888e-08
-2.46288e-05
8.41493e-08
-2.47026e-05
7.38008e-08
-2.47678e-05
6.5279e-08
-2.4826e-05
5.8176e-08
-2.48782e-05
5.21916e-08
-2.49253e-05
4.70991e-08
-2.46964e-05
-2.28881e-07
-2.36187e-05
-1.07771e-06
-2.26157e-05
-1.00298e-06
-2.1624e-05
-9.91778e-07
-2.04926e-05
-1.13138e-06
-1.9012e-05
-1.48057e-06
-1.68823e-05
-2.12973e-06
-1.36517e-05
-3.23056e-06
-8.61194e-06
-5.03976e-06
-7.31233e-06
-1.29961e-06
-2.09891e-07
4.31603e-07
-4.20291e-07
4.33724e-07
-6.35315e-07
4.45564e-07
-8.59181e-07
4.67852e-07
-1.09641e-06
5.02258e-07
-1.35194e-06
5.51604e-07
-1.63101e-06
6.20238e-07
-1.93847e-06
7.14594e-07
-2.27666e-06
8.43913e-07
-2.63991e-06
1.02097e-06
-3.00077e-06
1.26214e-06
-3.27725e-06
1.58495e-06
-3.25553e-06
1.99787e-06
-2.4103e-06
2.46942e-06
5.08943e-07
2.84447e-06
3.87807e-06
2.6315e-06
2.72363e-06
1.72833e-06
1.83383e-06
1.21671e-06
1.15417e-06
9.25178e-07
5.92964e-07
7.56353e-07
9.06127e-08
6.61927e-07
-3.95098e-07
6.18827e-07
-9.00397e-07
6.18118e-07
-1.46417e-06
6.60666e-07
-2.13676e-06
7.56734e-07
-2.99175e-06
9.28793e-07
-4.14472e-06
1.21824e-06
-5.78477e-06
1.69823e-06
-8.2294e-06
2.49682e-06
-1.20042e-05
3.82191e-06
-1.43163e-05
2.08323e-06
-1.5586e-05
1.91947e-07
-1.674e-05
1.51045e-07
-1.78606e-05
1.28829e-07
-1.91019e-05
1.09873e-07
-2.06749e-05
9.24904e-08
-2.28805e-05
7.58798e-08
-2.61702e-05
5.91388e-08
-2.57168e-05
-5.49321e-06
-3.1959e-05
-1.07015e-06
-1.89062e-07
6.20664e-07
-3.77056e-07
6.21719e-07
-5.66009e-07
6.34517e-07
-7.57556e-07
6.59399e-07
-9.52723e-07
6.97425e-07
-1.15148e-06
7.50361e-07
-1.3519e-06
8.2066e-07
-1.54865e-06
9.11341e-07
-1.73038e-06
1.02564e-06
-1.87555e-06
1.16614e-06
-1.94629e-06
1.33288e-06
-1.88124e-06
1.5199e-06
-1.59274e-06
1.70936e-06
-9.87224e-07
1.86391e-06
-6.48336e-08
1.92208e-06
7.50224e-07
1.81644e-06
9.03545e-07
1.57501e-06
7.75174e-07
1.34508e-06
5.347e-07
1.16565e-06
2.51664e-07
1.03939e-06
-4.6481e-08
9.60072e-07
-3.49045e-07
9.21391e-07
-6.50214e-07
9.19286e-07
-9.41661e-07
9.52114e-07
-1.20484e-06
1.01992e-06
-1.39886e-06
1.12281e-06
-1.4383e-06
1.25769e-06
-1.15138e-06
1.4113e-06
-2.00744e-07
1.54619e-06
2.04896e-06
1.57221e-06
2.83878e-06
1.29341e-06
2.08978e-06
9.40951e-07
1.51714e-06
7.23681e-07
1.05838e-06
5.87596e-07
6.65412e-07
5.02838e-07
3.03857e-07
4.54046e-07
-5.4928e-08
4.34664e-07
-4.34872e-07
4.39083e-07
-5.76666e-06
-1.61416e-07
-3.98838e-05
2.1582e-06
-1.63385e-07
7.8405e-07
-3.24344e-07
7.82677e-07
-4.83084e-07
7.93257e-07
-6.39265e-07
8.1558e-07
-7.9168e-07
8.4984e-07
-9.37805e-07
8.96486e-07
-1.07317e-06
9.56029e-07
-1.19057e-06
1.02873e-06
-1.27905e-06
1.11412e-06
-1.32316e-06
1.21026e-06
-1.30299e-06
1.31271e-06
-1.19649e-06
1.4134e-06
-9.86816e-07
1.49969e-06
-6.77792e-07
1.55489e-06
-3.17719e-07
1.56201e-06
-1.43436e-08
1.51307e-06
1.38783e-07
1.42188e-06
1.64767e-07
1.3191e-06
1.05299e-07
1.22512e-06
-5.06967e-09
1.14976e-06
-1.41402e-07
1.0964e-06
-2.85218e-07
1.06521e-06
-4.20703e-07
1.05477e-06
-5.31366e-07
1.06278e-06
-5.97285e-07
1.08583e-06
-5.93319e-07
1.11885e-06
-4.89624e-07
1.15399e-06
-2.58004e-07
1.17968e-06
1.07863e-07
1.18032e-06
5.4121e-07
1.13886e-06
7.87621e-07
1.047e-06
7.95912e-07
9.3266e-07
6.93227e-07
8.26365e-07
5.43335e-07
7.37487e-07
3.78989e-07
6.67184e-07
2.19257e-07
6.13778e-07
7.92401e-08
5.74681e-07
-2.8366e-08
5.46689e-07
-1.99002e-07
9.21989e-09
-4.03359e-05
2.53082e-07
-1.36742e-07
9.20792e-07
-2.70264e-07
9.16199e-07
-3.9961e-07
9.22603e-07
-5.23391e-07
9.39361e-07
-6.3954e-07
9.65989e-07
-7.45061e-07
1.00201e-06
-8.35788e-07
1.04676e-06
-9.0622e-07
1.09916e-06
-9.49546e-07
1.15745e-06
-9.58109e-07
1.21882e-06
-9.24602e-07
1.2792e-06
-8.44381e-07
1.33318e-06
-7.19017e-07
1.37433e-06
-5.60438e-07
1.39631e-06
-3.93203e-07
1.39478e-06
-2.49933e-07
1.3698e-06
-1.55247e-07
1.32719e-06
-1.12511e-07
1.27636e-06
-1.13118e-07
1.22573e-06
-1.44359e-07
1.181e-06
-1.93222e-07
1.14527e-06
-2.4758e-07
1.11956e-06
-2.96233e-07
1.10342e-06
-3.28679e-07
1.09522e-06
-3.35188e-07
1.09234e-06
-3.07598e-07
1.09126e-06
-2.41235e-07
1.08763e-06
-1.38234e-07
1.07668e-06
-1.19096e-08
1.05399e-06
1.10091e-07
1.01686e-06
1.90988e-07
9.661e-07
2.16556e-07
9.07091e-07
1.96747e-07
8.46175e-07
1.46629e-07
7.87606e-07
8.02332e-08
7.3358e-07
9.04526e-09
6.84966e-07
-5.8345e-08
6.42071e-07
-1.17012e-07
6.05356e-07
-1.28202e-07
2.04104e-08
-4.06493e-05
1.85211e-07
-1.11837e-07
1.03263e-06
-2.20232e-07
1.02459e-06
-3.23695e-07
1.02607e-06
-4.20508e-07
1.03617e-06
-5.08589e-07
1.05407e-06
-5.85408e-07
1.07883e-06
-6.47972e-07
1.10932e-06
-6.92923e-07
1.14412e-06
-7.16826e-07
1.18135e-06
-7.16687e-07
1.21868e-06
-6.90781e-07
1.2533e-06
-6.39704e-07
1.2821e-06
-5.67455e-07
1.30208e-06
-4.82007e-07
1.31086e-06
-3.9464e-07
1.30741e-06
-3.17381e-07
1.29254e-06
-2.59075e-07
1.26889e-06
-2.22858e-07
1.24015e-06
-2.07074e-07
1.20994e-06
-2.07178e-07
1.1811e-06
-2.17326e-07
1.15541e-06
-2.31397e-07
1.13364e-06
-2.43626e-07
1.11565e-06
-2.49043e-07
1.10064e-06
-2.43929e-07
1.08723e-06
-2.26367e-07
1.07369e-06
-1.96891e-07
1.05815e-06
-1.59053e-07
1.03885e-06
-1.1952e-07
1.01446e-06
-8.7125e-08
9.84462e-07
-7.02683e-08
9.49244e-07
-7.31523e-08
9.09975e-07
-9.49299e-08
8.67952e-07
-1.31298e-07
8.23974e-07
-1.7576e-07
7.78042e-07
-2.2007e-07
7.29277e-07
-2.53926e-07
6.75927e-07
-2.63984e-07
6.15414e-07
-1.22122e-07
-1.21452e-07
-4.09594e-05
1.87891e-07
-9.00821e-08
1.12271e-06
-1.76907e-07
1.11142e-06
-2.58883e-07
1.10804e-06
-3.34368e-07
1.11166e-06
-4.01614e-07
1.12132e-06
-4.58767e-07
1.13598e-06
-5.03923e-07
1.15448e-06
-5.35274e-07
1.17547e-06
-5.51335e-07
1.19741e-06
-5.51272e-07
1.21862e-06
-5.35278e-07
1.2373e-06
-5.04927e-07
1.25175e-06
-4.63375e-07
1.26052e-06
-4.15218e-07
1.2627e-06
-3.65889e-07
1.25808e-06
-3.20607e-07
1.24726e-06
-2.83238e-07
1.23152e-06
-2.55616e-07
1.21252e-06
-2.37629e-07
1.19195e-06
-2.27727e-07
1.1712e-06
-2.23539e-07
1.15123e-06
-2.22422e-07
1.13252e-06
-2.21902e-07
1.11513e-06
-2.20034e-07
1.09877e-06
-2.15692e-07
1.08289e-06
-2.08803e-07
1.06681e-06
-2.0049e-07
1.04984e-06
-1.93068e-07
1.03142e-06
-1.89811e-07
1.01121e-06
-1.94464e-07
9.89116e-07
-2.1055e-07
9.65329e-07
-2.40727e-07
9.40152e-07
-2.86577e-07
9.13803e-07
-3.48765e-07
8.86161e-07
-4.2722e-07
8.56497e-07
-5.21081e-07
8.23138e-07
-6.28136e-07
7.82982e-07
-7.43383e-07
7.30661e-07
-1.10367e-07
-7.54468e-07
-4.12691e-05
1.99416e-07
-7.19043e-08
1.19461e-06
-1.40951e-07
1.18047e-06
-2.05679e-07
1.17277e-06
-2.6469e-07
1.17067e-06
-3.16636e-07
1.17326e-06
-3.60241e-07
1.17958e-06
-3.94365e-07
1.1886e-06
-4.18106e-07
1.19921e-06
-4.30936e-07
1.21024e-06
-4.3285e-07
1.22053e-06
-4.24509e-07
1.22896e-06
-4.07312e-07
1.23455e-06
-3.83367e-07
1.23658e-06
-3.55303e-07
1.23464e-06
-3.2594e-07
1.22872e-06
-2.9786e-07
1.21918e-06
-2.73017e-07
1.20667e-06
-2.5252e-07
1.19203e-06
-2.36636e-07
1.17607e-06
-2.24963e-07
1.15953e-06
-2.16685e-07
1.14295e-06
-2.10834e-07
1.12667e-06
-2.06532e-07
1.11083e-06
-2.03186e-07
1.09543e-06
-2.00644e-07
1.08035e-06
-1.99287e-07
1.06545e-06
-2.00075e-07
1.05063e-06
-2.04517e-07
1.03586e-06
-2.14595e-07
1.02128e-06
-2.32666e-07
1.00719e-06
-2.61394e-07
9.94057e-07
-3.03826e-07
9.82584e-07
-3.63695e-07
9.73672e-07
-4.46044e-07
9.6851e-07
-5.58265e-07
9.68719e-07
-7.11753e-07
9.76626e-07
-9.24531e-07
9.9576e-07
-1.22537e-06
1.0315e-06
-8.74306e-08
-1.8924e-06
-4.15681e-05
2.11583e-07
-5.71343e-08
1.25175e-06
-1.11879e-07
1.23521e-06
-1.62999e-07
1.22389e-06
-2.09371e-07
1.21704e-06
-2.49994e-07
1.21388e-06
-2.84007e-07
1.2136e-06
-3.1074e-07
1.21533e-06
-3.29764e-07
1.21823e-06
-3.40961e-07
1.22144e-06
-3.44576e-07
1.22415e-06
-3.41255e-07
1.22564e-06
-3.32029e-07
1.22533e-06
-3.18256e-07
1.22281e-06
-3.01485e-07
1.21787e-06
-2.83293e-07
1.21053e-06
-2.651e-07
1.20098e-06
-2.48014e-07
1.18959e-06
-2.3276e-07
1.17677e-06
-2.19675e-07
1.16298e-06
-2.08778e-07
1.14863e-06
-1.99883e-07
1.13405e-06
-1.92717e-07
1.1195e-06
-1.87039e-07
1.10515e-06
-1.82728e-07
1.09112e-06
-1.79858e-07
1.07748e-06
-1.78727e-07
1.06432e-06
-1.79864e-07
1.05176e-06
-1.84003e-07
1.04e-06
-1.92037e-07
1.02932e-06
-2.04963e-07
1.02011e-06
-2.23828e-07
1.01292e-06
-2.49692e-07
1.00845e-06
-2.83595e-07
1.00757e-06
-3.26502e-07
1.01142e-06
-3.7915e-07
1.02137e-06
-4.41689e-07
1.03917e-06
-5.12873e-07
1.06694e-06
-5.87904e-07
1.10653e-06
-8.99027e-08
-2.3904e-06
-4.18432e-05
1.8517e-07
-4.53257e-08
1.29707e-06
-8.87141e-08
1.2786e-06
-1.29165e-07
1.26434e-06
-1.65807e-07
1.25368e-06
-1.97902e-07
1.24598e-06
-2.24869e-07
1.24056e-06
-2.46302e-07
1.23677e-06
-2.62004e-07
1.23393e-06
-2.72004e-07
1.23144e-06
-2.76573e-07
1.22872e-06
-2.76221e-07
1.22529e-06
-2.71665e-07
1.22077e-06
-2.63776e-07
1.21492e-06
-2.53503e-07
1.20759e-06
-2.41784e-07
1.19881e-06
-2.29462e-07
1.18866e-06
-2.17222e-07
1.17735e-06
-2.05555e-07
1.16511e-06
-1.94761e-07
1.15219e-06
-1.84976e-07
1.13885e-06
-1.76221e-07
1.1253e-06
-1.68451e-07
1.11173e-06
-1.61607e-07
1.09831e-06
-1.55651e-07
1.08516e-06
-1.50586e-07
1.07241e-06
-1.46459e-07
1.06019e-06
-1.43343e-07
1.04865e-06
-1.41298e-07
1.03796e-06
-1.40313e-07
1.02833e-06
-1.40229e-07
1.02003e-06
-1.40647e-07
1.01334e-06
-1.40794e-07
1.0086e-06
-1.39364e-07
1.00615e-06
-1.34293e-07
1.00634e-06
-1.22443e-07
1.00952e-06
-9.91898e-08
1.01591e-06
-5.78733e-08
1.02563e-06
1.12639e-08
1.03739e-06
-8.76308e-08
-2.29151e-06
-4.20468e-05
1.15964e-07
-3.59567e-08
1.33303e-06
-7.03708e-08
1.31301e-06
-1.02455e-07
1.29642e-06
-1.31538e-07
1.28277e-06
-1.57078e-07
1.27152e-06
-1.78671e-07
1.26216e-06
-1.96059e-07
1.25416e-06
-2.09147e-07
1.24702e-06
-2.18002e-07
1.24029e-06
-2.22847e-07
1.23356e-06
-2.24054e-07
1.22649e-06
-2.22108e-07
1.21883e-06
-2.17574e-07
1.21038e-06
-2.11052e-07
1.20107e-06
-2.03125e-07
1.19088e-06
-1.9432e-07
1.17986e-06
-1.85079e-07
1.16811e-06
-1.75735e-07
1.15576e-06
-1.6652e-07
1.14298e-06
-1.57567e-07
1.12989e-06
-1.48934e-07
1.11667e-06
-1.4062e-07
1.10342e-06
-1.32586e-07
1.09027e-06
-1.2476e-07
1.07733e-06
-1.17045e-07
1.0647e-06
-1.09303e-07
1.05245e-06
-1.0134e-07
1.04069e-06
-9.28674e-08
1.02949e-06
-8.346e-08
1.01893e-06
-7.24994e-08
1.00907e-06
-5.91029e-08
9.99943e-07
-4.20402e-08
9.91532e-07
-1.96304e-08
9.83736e-07
1.0381e-08
9.76333e-07
5.09715e-08
9.68927e-07
1.06021e-07
9.60863e-07
1.80524e-07
9.51124e-07
2.80888e-07
9.37025e-07
-6.22238e-09
-2.0044e-06
-4.20669e-05
1.38723e-08
-2.85351e-08
1.36157e-06
-5.58539e-08
1.34033e-06
-8.13435e-08
1.32191e-06
-1.04491e-07
1.30591e-06
-1.24892e-07
1.29192e-06
-1.42254e-07
1.27952e-06
-1.56405e-07
1.26831e-06
-1.67289e-07
1.2579e-06
-1.74966e-07
1.24797e-06
-1.79603e-07
1.2382e-06
-1.81456e-07
1.22835e-06
-1.80853e-07
1.21822e-06
-1.78161e-07
1.20769e-06
-1.73769e-07
1.19668e-06
-1.68049e-07
1.18516e-06
-1.61341e-07
1.17315e-06
-1.53935e-07
1.1607e-06
-1.46058e-07
1.14789e-06
-1.37871e-07
1.13479e-06
-1.29475e-07
1.1215e-06
-1.20917e-07
1.10811e-06
-1.12191e-07
1.09469e-06
-1.0325e-07
1.08133e-06
-9.40029e-08
1.06809e-06
-8.43182e-08
1.05501e-06
-7.40129e-08
1.04214e-06
-6.28446e-08
1.02952e-06
-5.04978e-08
1.01714e-06
-3.65693e-08
1.005e-06
-2.05544e-08
9.93053e-07
-1.8383e-09
9.81227e-07
2.03033e-08
9.69391e-07
4.66855e-08
9.57353e-07
7.81669e-08
9.44852e-07
1.15555e-07
9.31539e-07
1.59437e-07
9.16981e-07
2.09896e-07
9.00665e-07
2.66086e-07
8.80835e-07
1.97194e-08
-1.75803e-06
-4.2039e-05
-8.2409e-09
-2.26418e-08
1.38421e-06
-4.43288e-08
1.36202e-06
-6.45856e-08
1.34217e-06
-8.30182e-08
1.32435e-06
-9.93198e-08
1.30822e-06
-1.13273e-07
1.29347e-06
-1.2475e-07
1.27978e-06
-1.33711e-07
1.26687e-06
-1.40199e-07
1.25446e-06
-1.44327e-07
1.24233e-06
-1.46269e-07
1.23029e-06
-1.46241e-07
1.2182e-06
-1.44488e-07
1.20594e-06
-1.41261e-07
1.19345e-06
-1.36806e-07
1.1807e-06
-1.31345e-07
1.16769e-06
-1.2507e-07
1.15443e-06
-1.18136e-07
1.14095e-06
-1.10653e-07
1.12731e-06
-1.02693e-07
1.11354e-06
-9.42875e-08
1.0997e-06
-8.54298e-08
1.08584e-06
-7.60792e-08
1.07198e-06
-6.61612e-08
1.05817e-06
-5.5569e-08
1.04442e-06
-4.4163e-08
1.03074e-06
-3.17712e-08
1.01713e-06
-1.81905e-08
1.00356e-06
-3.19064e-09
9.89997e-07
1.34768e-08
9.76386e-07
3.20624e-08
9.62642e-07
5.27931e-08
9.4866e-07
7.58331e-08
9.34313e-07
1.01229e-07
9.19456e-07
1.28836e-07
9.03932e-07
1.58227e-07
8.8759e-07
1.88584e-07
8.70308e-07
2.18647e-07
8.50772e-07
1.4265e-08
-1.55365e-06
-4.20071e-05
-1.75436e-08
-1.79395e-08
1.40215e-06
-3.513e-08
1.37921e-06
-5.12018e-08
1.35824e-06
-6.585e-08
1.339e-06
-7.88376e-08
1.32121e-06
-8.99968e-08
1.30463e-06
-9.92279e-08
1.28901e-06
-1.06496e-07
1.27413e-06
-1.11823e-07
1.25978e-06
-1.15285e-07
1.24579e-06
-1.16995e-07
1.232e-06
-1.17096e-07
1.2183e-06
-1.1575e-07
1.20459e-06
-1.13124e-07
1.19083e-06
-1.09381e-07
1.17696e-06
-1.0467e-07
1.16298e-06
-9.91209e-08
1.14888e-06
-9.28407e-08
1.13467e-06
-8.59087e-08
1.12037e-06
-7.83779e-08
1.10601e-06
-7.02747e-08
1.0916e-06
-6.16011e-08
1.07716e-06
-5.23359e-08
1.06272e-06
-4.2438e-08
1.04827e-06
-3.18486e-08
1.03383e-06
-2.04945e-08
1.01938e-06
-8.29299e-09
1.00492e-06
4.84241e-09
9.90422e-07
1.89936e-08
9.75846e-07
3.42271e-08
9.61153e-07
5.05794e-08
9.46289e-07
6.80402e-08
9.31199e-07
8.65318e-08
9.15822e-07
1.05889e-07
9.00099e-07
1.25838e-07
8.83983e-07
1.45986e-07
8.67442e-07
1.65824e-07
8.5047e-07
1.84806e-07
8.31789e-07
1.1741e-08
-1.38059e-06
-4.19721e-05
-2.32955e-08
-1.4165e-08
1.41631e-06
-2.77415e-08
1.39279e-06
-4.04408e-08
1.37094e-06
-5.2024e-08
1.35058e-06
-6.23051e-08
1.33149e-06
-7.1151e-08
1.31348e-06
-7.84797e-08
1.29634e-06
-8.42574e-08
1.27991e-06
-8.84925e-08
1.26402e-06
-9.12302e-08
1.24853e-06
-9.2544e-08
1.23331e-06
-9.25286e-08
1.21828e-06
-9.1291e-08
1.20336e-06
-8.89438e-08
1.18848e-06
-8.55973e-08
1.17361e-06
-8.13549e-08
1.15874e-06
-7.6308e-08
1.14383e-06
-7.05337e-08
1.1289e-06
-6.40927e-08
1.11393e-06
-5.70294e-08
1.09895e-06
-4.93722e-08
1.08394e-06
-4.1135e-08
1.06893e-06
-3.23192e-08
1.0539e-06
-2.29158e-08
1.03887e-06
-1.29095e-08
1.02382e-06
-2.28172e-09
1.00876e-06
8.98478e-09
9.93657e-07
2.09002e-08
9.78507e-07
3.34621e-08
9.63284e-07
4.66477e-08
9.47967e-07
6.04077e-08
9.32529e-07
7.46582e-08
9.16949e-07
8.92749e-08
9.01205e-07
1.04089e-07
8.85285e-07
1.18888e-07
8.69185e-07
1.33416e-07
8.52913e-07
1.47393e-07
8.36494e-07
1.60582e-07
8.186e-07
1.02911e-08
-1.2303e-06
-4.19349e-05
-2.68981e-08
-1.11161e-08
1.42743e-06
-2.17694e-08
1.40344e-06
-3.17319e-08
1.3809e-06
-4.08147e-08
1.35966e-06
-4.88693e-08
1.33955e-06
-5.57879e-08
1.3204e-06
-6.15014e-08
1.30206e-06
-6.59766e-08
1.28439e-06
-6.92119e-08
1.26725e-06
-7.12325e-08
1.25055e-06
-7.20851e-08
1.23417e-06
-7.18317e-08
1.21803e-06
-7.05448e-08
1.20207e-06
-6.83012e-08
1.18624e-06
-6.51782e-08
1.17049e-06
-6.12498e-08
1.15481e-06
-5.65833e-08
1.13917e-06
-5.12383e-08
1.12355e-06
-4.52647e-08
1.10796e-06
-3.87036e-08
1.09238e-06
-3.15871e-08
1.07682e-06
-2.39396e-08
1.06128e-06
-1.57797e-08
1.04574e-06
-7.12236e-09
1.03021e-06
2.019e-09
1.01468e-06
1.16293e-08
9.99146e-07
2.16887e-08
9.83598e-07
3.21696e-08
9.68026e-07
4.30329e-08
9.52421e-07
5.42252e-08
9.36774e-07
6.56762e-08
9.21078e-07
7.72967e-08
9.05328e-07
8.89781e-08
8.89524e-07
1.00594e-07
8.73669e-07
1.12002e-07
8.57777e-07
1.2305e-07
8.41864e-07
1.33586e-07
8.25958e-07
1.43521e-07
8.08665e-07
9.54451e-09
-1.09632e-06
-4.18962e-05
-2.9154e-08
-8.63918e-09
1.43607e-06
-1.69139e-08
1.41171e-06
-2.46426e-08
1.38863e-06
-3.16739e-08
1.36669e-06
-3.78881e-08
1.34576e-06
-4.31962e-08
1.3257e-06
-4.75393e-08
1.3064e-06
-5.08853e-08
1.28773e-06
-5.32263e-08
1.2696e-06
-5.45749e-08
1.2519e-06
-5.49599e-08
1.23455e-06
-5.44223e-08
1.21749e-06
-5.30118e-08
1.20066e-06
-5.07827e-08
1.18401e-06
-4.77908e-08
1.1675e-06
-4.40913e-08
1.15111e-06
-3.97366e-08
1.13481e-06
-3.47751e-08
1.11859e-06
-2.92505e-08
1.10243e-06
-2.32018e-08
1.08634e-06
-1.66638e-08
1.07029e-06
-9.66769e-09
1.05428e-06
-2.24263e-09
1.03832e-06
5.58323e-09
1.02238e-06
1.37809e-08
1.00648e-06
2.2319e-08
9.90608e-07
3.11617e-08
9.74755e-07
4.02675e-08
9.5892e-07
4.95878e-08
9.43101e-07
5.90656e-08
9.27297e-07
6.86353e-08
9.11509e-07
7.82227e-08
8.95741e-07
8.77464e-08
8.8e-07
9.71191e-08
8.64297e-07
1.0625e-07
8.48645e-07
1.15051e-07
8.33064e-07
1.23436e-07
8.17573e-07
1.31387e-07
8.00714e-07
9.28625e-09
-9.74218e-07
-4.18564e-05
-3.0499e-08
-6.61687e-09
1.44269e-06
-1.29469e-08
1.41804e-06
-1.88438e-08
1.39453e-06
-2.41853e-08
1.37203e-06
-2.88735e-08
1.35045e-06
-3.28346e-08
1.32966e-06
-3.60176e-08
1.30958e-06
-3.83926e-08
1.29011e-06
-3.99483e-08
1.27115e-06
-4.06893e-08
1.25264e-06
-4.06332e-08
1.23449e-06
-3.98074e-08
1.21666e-06
-3.82468e-08
1.1991e-06
-3.59909e-08
1.18175e-06
-3.30819e-08
1.16459e-06
-2.95627e-08
1.14759e-06
-2.54756e-08
1.13072e-06
-2.08617e-08
1.11398e-06
-1.576e-08
1.09733e-06
-1.02076e-08
1.08078e-06
-4.23993e-09
1.06432e-06
2.10896e-09
1.04793e-06
8.80557e-09
1.03162e-06
1.58162e-08
1.01537e-06
2.3106e-08
9.99194e-07
3.06383e-08
9.83076e-07
3.83737e-08
9.6702e-07
4.62693e-08
9.51024e-07
5.42787e-08
9.35091e-07
6.23518e-08
9.19224e-07
7.04348e-08
9.03426e-07
7.84712e-08
8.87704e-07
8.64028e-08
8.72068e-07
9.4171e-08
8.56529e-07
1.01719e-07
8.41098e-07
1.08991e-07
8.25791e-07
1.1594e-07
8.10624e-07
1.22587e-07
7.94067e-07
9.37114e-09
-8.61002e-07
-4.18159e-05
-3.11922e-08
-4.95937e-09
1.44764e-06
-9.69342e-09
1.42278e-06
-1.40834e-08
1.39892e-06
-1.80293e-08
1.37598e-06
-2.14505e-08
1.35387e-06
-2.42851e-08
1.3325e-06
-2.64892e-08
1.31179e-06
-2.80356e-08
1.29165e-06
-2.89113e-08
1.27203e-06
-2.91165e-08
1.25284e-06
-2.86616e-08
1.23404e-06
-2.75654e-08
1.21557e-06
-2.58532e-08
1.19739e-06
-2.35549e-08
1.17945e-06
-2.07034e-08
1.16174e-06
-1.73332e-08
1.14422e-06
-1.34798e-08
1.12687e-06
-9.17859e-09
1.10967e-06
-4.4647e-09
1.09262e-06
6.27254e-10
1.07569e-06
6.06314e-09
1.05888e-06
1.18091e-08
1.04219e-06
1.78313e-08
1.0256e-06
2.40955e-08
1.00911e-06
3.05667e-08
9.92722e-07
3.7209e-08
9.76434e-07
4.39852e-08
9.60244e-07
5.08566e-08
9.44153e-07
5.77832e-08
9.28165e-07
6.47242e-08
9.12283e-07
7.1638e-08
8.96512e-07
7.84828e-08
8.8086e-07
8.52177e-08
8.65333e-07
9.18035e-08
8.49943e-07
9.82036e-08
8.34698e-07
1.04385e-07
8.1961e-07
1.10318e-07
8.04691e-07
1.16057e-07
7.88328e-07
9.6894e-09
-7.54634e-07
-4.17748e-05
-3.13972e-08
-3.59734e-09
1.45124e-06
-7.01856e-09
1.4262e-06
-1.01663e-08
1.40207e-06
-1.29581e-08
1.37877e-06
-1.53269e-08
1.35624e-06
-1.72208e-08
1.33439e-06
-1.86019e-08
1.31317e-06
-1.94457e-08
1.2925e-06
-1.97392e-08
1.27232e-06
-1.948e-08
1.25258e-06
-1.86742e-08
1.23323e-06
-1.73351e-08
1.21423e-06
-1.54818e-08
1.19553e-06
-1.31376e-08
1.17711e-06
-1.0329e-08
1.15893e-06
-7.08459e-09
1.14097e-06
-3.43461e-09
1.12322e-06
5.90003e-10
1.10565e-06
4.95783e-09
1.08825e-06
9.63725e-09
1.07101e-06
1.45965e-08
1.05392e-06
1.98039e-08
1.03698e-06
2.52274e-08
1.02017e-06
3.0835e-08
1.0035e-06
3.65944e-08
9.86963e-07
4.24732e-08
9.70555e-07
4.84385e-08
9.54278e-07
5.44575e-08
9.38134e-07
6.04976e-08
9.22125e-07
6.65264e-08
9.06254e-07
7.25123e-08
8.90526e-07
7.84251e-08
8.74947e-07
8.42362e-08
8.59522e-07
8.99192e-08
8.4426e-07
9.54507e-08
8.29166e-07
1.00811e-07
8.1425e-07
1.05983e-07
7.99519e-07
1.11015e-07
7.83295e-07
1.01536e-08
-6.53772e-07
-4.17334e-05
-3.12187e-08
-2.47681e-09
1.45372e-06
-4.81703e-09
1.42854e-06
-6.94005e-09
1.40419e-06
-8.77744e-09
1.38061e-06
-1.02731e-08
1.35773e-06
-1.1383e-08
1.3355e-06
-1.20747e-08
1.31386e-06
-1.23263e-08
1.29275e-06
-1.21257e-08
1.27212e-06
-1.1469e-08
1.25193e-06
-1.03598e-08
1.23212e-06
-8.80808e-09
1.21268e-06
-6.82845e-09
1.19355e-06
-4.43977e-09
1.17472e-06
-1.66396e-09
1.15616e-06
1.4747e-09
1.13784e-06
4.95024e-09
1.11974e-06
8.73548e-09
1.10186e-06
1.28024e-08
1.08418e-06
1.71226e-08
1.06669e-06
2.16672e-08
1.04938e-06
2.64074e-08
1.03224e-06
3.13142e-08
1.01527e-06
3.63587e-08
9.98458e-07
4.15124e-08
9.81809e-07
4.6747e-08
9.6532e-07
5.20346e-08
9.48991e-07
5.7348e-08
9.32821e-07
6.26609e-08
9.16812e-07
6.79481e-08
9.00967e-07
7.31858e-08
8.85288e-07
7.83518e-08
8.69781e-07
8.34261e-08
8.54448e-07
8.83905e-08
8.39295e-07
9.32296e-08
8.24327e-07
9.79306e-08
8.09549e-07
1.02483e-07
7.94966e-07
1.06955e-07
7.78823e-07
1.06941e-08
-5.57511e-07
-4.1692e-05
-3.07252e-08
-1.55538e-09
1.45527e-06
-3.00604e-09
1.42999e-06
-4.28469e-09
1.40547e-06
-5.33399e-09
1.38166e-06
-6.10667e-09
1.35851e-06
-6.56532e-09
1.33596e-06
-6.68195e-09
1.31398e-06
-6.43732e-09
1.2925e-06
-5.82018e-09
1.2715e-06
-4.82638e-09
1.25093e-06
-3.45802e-09
1.23076e-06
-1.72251e-09
1.21094e-06
3.68274e-10
1.19146e-06
2.79875e-09
1.17229e-06
5.55041e-09
1.1534e-06
8.60238e-09
1.13478e-06
1.1932e-08
1.11641e-06
1.55154e-08
1.09828e-06
1.93276e-08
1.08037e-06
2.33432e-08
1.06268e-06
2.75362e-08
1.04519e-06
3.18808e-08
1.02789e-06
3.63512e-08
1.0108e-06
4.09218e-08
9.93887e-07
4.55677e-08
9.77163e-07
5.02644e-08
9.60624e-07
5.49885e-08
9.44267e-07
5.97177e-08
9.28091e-07
6.44307e-08
9.12099e-07
6.91078e-08
8.96289e-07
7.3731e-08
8.80665e-07
7.82839e-08
8.65228e-07
8.27522e-08
8.4998e-07
8.71238e-08
8.34924e-07
9.13886e-08
8.20062e-07
9.5539e-08
8.05399e-07
9.95699e-08
7.90936e-07
1.03541e-07
7.74852e-07
1.12629e-08
-4.65233e-07
-4.16508e-05
-2.99663e-08
-7.99548e-10
1.45607e-06
-1.52011e-09
1.43071e-06
-2.10497e-09
1.40605e-06
-2.50564e-09
1.38206e-06
-2.68199e-09
1.35868e-06
-2.60199e-09
1.33588e-06
-2.24144e-09
1.31362e-06
-1.58343e-09
1.29185e-06
-6.17738e-10
1.27054e-06
6.5982e-10
1.24965e-06
2.24808e-09
1.22917e-06
4.14124e-09
1.20905e-06
6.32949e-09
1.18927e-06
8.79971e-09
1.16982e-06
1.1536e-08
1.15067e-06
1.45201e-08
1.1318e-06
1.77322e-08
1.1132e-06
2.1151e-08
1.09486e-06
2.47543e-08
1.07677e-06
2.85191e-08
1.05891e-06
3.24222e-08
1.04128e-06
3.64402e-08
1.02388e-06
4.05502e-08
1.00669e-06
4.47294e-08
9.89708e-07
4.89557e-08
9.72937e-07
5.3208e-08
9.56371e-07
5.74664e-08
9.40008e-07
6.17119e-08
9.23846e-07
6.59273e-08
9.07883e-07
7.00968e-08
8.9212e-07
7.42065e-08
8.76556e-07
7.8244e-08
8.6119e-07
8.21991e-08
8.46025e-07
8.6063e-08
8.3106e-07
8.98291e-08
8.16296e-07
9.34921e-08
8.01736e-07
9.70484e-08
7.87379e-07
1.00569e-07
7.71331e-07
1.18454e-08
-3.76509e-07
-4.16099e-05
-2.89788e-08
-1.82726e-10
1.45626e-06
-3.07197e-10
1.43084e-06
-3.25103e-10
1.40607e-06
-1.95045e-10
1.38193e-06
1.17427e-10
1.35837e-06
6.39951e-10
1.33536e-06
1.39363e-09
1.31286e-06
2.39342e-09
1.29085e-06
3.64859e-09
1.26928e-06
5.16326e-09
1.24814e-06
6.93689e-09
1.22739e-06
8.96488e-09
1.20702e-06
1.1239e-08
1.187e-06
1.37481e-08
1.16731e-06
1.64784e-08
1.14794e-06
1.94137e-08
1.12886e-06
2.25365e-08
1.11008e-06
2.58277e-08
1.09157e-06
2.92671e-08
1.07333e-06
3.28338e-08
1.05534e-06
3.65068e-08
1.03761e-06
4.02647e-08
1.02012e-06
4.40863e-08
1.00286e-06
4.79509e-08
9.85843e-07
5.18386e-08
9.69049e-07
5.57304e-08
9.5248e-07
5.96084e-08
9.3613e-07
6.34563e-08
9.19998e-07
6.72593e-08
9.0408e-07
7.10044e-08
8.88375e-07
7.46803e-08
8.7288e-07
7.82776e-08
8.57593e-07
8.1789e-08
8.42513e-07
8.52087e-08
8.2764e-07
8.85327e-08
8.12972e-07
9.17589e-08
7.9851e-07
9.48863e-08
7.84252e-07
9.79569e-08
7.68261e-07
1.24609e-08
-2.91014e-07
-4.15697e-05
-2.77987e-08
3.16217e-10
1.45594e-06
6.74076e-10
1.43048e-06
1.11521e-09
1.40563e-06
1.67542e-09
1.38137e-06
2.38461e-09
1.35766e-06
3.26694e-09
1.33448e-06
4.34105e-09
1.31179e-06
5.62035e-09
1.28957e-06
7.11337e-09
1.26779e-06
8.82421e-09
1.24643e-06
1.07529e-08
1.22547e-06
1.28958e-08
1.20488e-06
1.52462e-08
1.18465e-06
1.77945e-08
1.16476e-06
2.05286e-08
1.1452e-06
2.34344e-08
1.12596e-06
2.6496e-08
1.10702e-06
2.96961e-08
1.08837e-06
3.30163e-08
1.07001e-06
3.64373e-08
1.05192e-06
3.99393e-08
1.03411e-06
4.35021e-08
1.01656e-06
4.71056e-08
9.99261e-07
5.07303e-08
9.82219e-07
5.43568e-08
9.65423e-07
5.79671e-08
9.48869e-07
6.15443e-08
9.32553e-07
6.50728e-08
9.16469e-07
6.8539e-08
9.00614e-07
7.19312e-08
8.84983e-07
7.52397e-08
8.69571e-07
7.84571e-08
8.54376e-07
8.1578e-08
8.39393e-07
8.45991e-08
8.24619e-07
8.75188e-08
8.10053e-07
9.03373e-08
7.95691e-07
9.30557e-08
7.81533e-07
9.56977e-08
7.65619e-07
1.31543e-08
-2.0847e-07
-4.15301e-05
-2.64588e-08
7.14039e-10
1.45523e-06
1.45653e-09
1.42974e-06
2.26384e-09
1.40482e-06
3.16735e-09
1.38047e-06
4.19341e-09
1.35664e-06
5.3635e-09
1.33331e-06
6.69436e-09
1.31046e-06
8.19827e-09
1.28806e-06
9.88332e-09
1.2661e-06
1.17538e-08
1.24456e-06
1.38102e-08
1.22341e-06
1.60502e-08
1.20264e-06
1.84683e-08
1.18223e-06
2.10564e-08
1.16217e-06
2.38042e-08
1.14246e-06
2.66993e-08
1.12306e-06
2.97275e-08
1.10399e-06
3.2873e-08
1.08523e-06
3.61187e-08
1.06676e-06
3.94465e-08
1.0486e-06
4.28373e-08
1.03072e-06
4.62716e-08
1.01312e-06
4.97293e-08
9.95803e-07
5.31905e-08
9.78757e-07
5.66355e-08
9.61978e-07
6.00454e-08
9.45459e-07
6.34024e-08
9.29196e-07
6.669e-08
9.13182e-07
6.98938e-08
8.9741e-07
7.30016e-08
8.81875e-07
7.60036e-08
8.66569e-07
7.88932e-08
8.51486e-07
8.16664e-08
8.36619e-07
8.43223e-08
8.21963e-07
8.68624e-08
8.07512e-07
8.92908e-08
7.93263e-07
9.16133e-08
7.79211e-07
9.38111e-08
7.63421e-07
1.39684e-08
-1.28627e-07
-4.14911e-05
-2.49905e-08
1.02398e-09
1.4542e-06
2.06609e-09
1.42869e-06
3.15856e-09
1.40373e-06
4.32932e-09
1.37929e-06
5.60198e-09
1.35536e-06
6.99599e-09
1.33191e-06
8.52674e-09
1.30893e-06
1.02058e-08
1.28638e-06
1.20411e-08
1.26427e-06
1.40374e-08
1.24256e-06
1.6196e-08
1.22125e-06
1.85158e-08
1.20032e-06
2.09927e-08
1.17975e-06
2.36204e-08
1.15955e-06
2.63905e-08
1.13968e-06
2.92923e-08
1.12016e-06
3.23134e-08
1.10097e-06
3.54397e-08
1.0821e-06
3.86556e-08
1.06355e-06
4.19437e-08
1.04531e-06
4.52857e-08
1.02738e-06
4.86618e-08
1.00975e-06
5.20514e-08
9.92414e-07
5.54332e-08
9.75375e-07
5.87856e-08
9.58625e-07
6.20868e-08
9.42158e-07
6.53157e-08
9.25967e-07
6.84522e-08
9.10045e-07
7.14781e-08
8.94384e-07
7.43777e-08
8.78975e-07
7.71384e-08
8.63808e-07
7.97515e-08
8.48873e-07
8.22128e-08
8.34158e-07
8.45227e-08
8.19653e-07
8.66862e-08
8.05349e-07
8.87126e-08
7.91236e-07
9.06149e-08
7.77309e-07
9.23443e-08
7.61691e-07
1.49163e-08
-5.11995e-08
-4.14528e-05
-2.3416e-08
1.25646e-09
1.45295e-06
2.52312e-09
1.42743e-06
3.82898e-09
1.40243e-06
5.19929e-09
1.37792e-06
6.65558e-09
1.35391e-06
8.21581e-09
1.33035e-06
9.89446e-09
1.30725e-06
1.17028e-08
1.28458e-06
1.36489e-08
1.26232e-06
1.57382e-08
1.24047e-06
1.79733e-08
1.21901e-06
2.03542e-08
1.19794e-06
2.2879e-08
1.17723e-06
2.55432e-08
1.15688e-06
2.83406e-08
1.13689e-06
3.12629e-08
1.11724e-06
3.43e-08
1.09793e-06
3.74399e-08
1.07896e-06
4.06687e-08
1.06032e-06
4.39707e-08
1.04201e-06
4.73283e-08
1.02402e-06
5.07221e-08
1.00635e-06
5.41304e-08
9.89005e-07
5.75301e-08
9.71976e-07
6.0896e-08
9.5526e-07
6.42019e-08
9.38852e-07
6.74204e-08
9.22749e-07
7.05239e-08
9.06942e-07
7.34858e-08
8.91423e-07
7.62811e-08
8.7618e-07
7.88886e-08
8.61201e-07
8.12918e-08
8.4647e-07
8.34811e-08
8.31969e-07
8.54546e-08
8.1768e-07
8.72194e-08
8.03584e-07
8.87919e-08
7.89664e-07
9.01964e-08
7.75904e-07
9.13628e-08
7.60525e-07
1.5965e-08
2.41983e-08
-4.14151e-05
-2.17439e-08
1.41967e-09
1.45153e-06
2.84363e-09
1.426e-06
4.29831e-09
1.40097e-06
5.80685e-09
1.37642e-06
7.38922e-09
1.35232e-06
9.0623e-09
1.32868e-06
1.084e-08
1.30547e-06
1.27336e-08
1.28268e-06
1.47518e-08
1.2603e-06
1.69006e-08
1.23832e-06
1.91843e-08
1.21673e-06
2.16046e-08
1.19552e-06
2.41617e-08
1.17467e-06
2.68537e-08
1.15419e-06
2.96771e-08
1.13406e-06
3.26267e-08
1.11429e-06
3.56955e-08
1.09486e-06
3.88746e-08
1.07578e-06
4.21534e-08
1.05704e-06
4.55188e-08
1.03864e-06
4.89558e-08
1.02058e-06
5.24462e-08
1.00286e-06
5.5969e-08
9.85483e-07
5.94998e-08
9.68445e-07
6.30105e-08
9.51749e-07
6.64689e-08
9.35394e-07
6.98393e-08
9.19378e-07
7.30823e-08
9.03699e-07
7.61559e-08
8.88349e-07
7.9017e-08
8.73319e-07
8.16238e-08
8.58594e-07
8.39388e-08
8.44155e-07
8.5933e-08
8.29975e-07
8.75898e-08
8.16023e-07
8.89097e-08
8.02264e-07
8.99135e-08
7.8866e-07
9.06431e-08
7.75174e-07
9.10163e-08
7.60152e-07
1.70528e-08
9.81618e-08
-4.1378e-05
-1.99642e-08
1.52013e-09
1.45001e-06
3.04029e-09
1.42448e-06
4.58482e-09
1.39943e-06
6.17518e-09
1.37483e-06
7.83007e-09
1.35067e-06
9.56559e-09
1.32694e-06
1.13954e-08
1.30364e-06
1.33309e-08
1.28075e-06
1.53813e-08
1.25825e-06
1.75539e-08
1.23615e-06
1.98545e-08
1.21443e-06
2.22869e-08
1.19308e-06
2.48537e-08
1.17211e-06
2.75561e-08
1.15149e-06
3.03939e-08
1.13123e-06
3.33658e-08
1.11132e-06
3.6469e-08
1.09176e-06
3.96994e-08
1.07255e-06
4.30512e-08
1.05369e-06
4.65168e-08
1.03517e-06
5.00861e-08
1.01701e-06
5.3746e-08
9.99201e-07
5.74797e-08
9.81749e-07
6.12656e-08
9.64659e-07
6.50764e-08
9.47938e-07
6.88774e-08
9.31593e-07
7.26256e-08
9.1563e-07
7.62686e-08
9.00056e-07
7.97434e-08
8.84874e-07
8.29771e-08
8.70085e-07
8.58885e-08
8.55683e-07
8.83918e-08
8.41651e-07
9.04039e-08
8.27963e-07
9.18546e-08
8.14572e-07
9.27007e-08
8.01418e-07
9.29418e-08
7.88419e-07
9.26341e-08
7.75482e-07
9.17086e-08
7.61077e-07
1.81346e-08
1.71736e-07
-4.13419e-05
-1.80474e-08
1.56315e-09
1.44844e-06
3.12344e-09
1.42292e-06
4.70338e-09