/*--------------------------------*- C++ -*----------------------------------*\
  =========                 |
  \\      /  F ield         | OpenFOAM: The Open Source CFD Toolbox
   \\    /   O peration     | Website:  https://openfoam.org
    \\  /    A nd           | Version:  10
     \\/     M anipulation  |
\*---------------------------------------------------------------------------*/
FoamFile
{
    format      ascii;
    class       volScalarField;
    location    "0.006";
    object      T;
}
// * * * * * * * * * * * * * * * * * * * * * * * * * * * * * * * * * * * * * //

dimensions      [0 0 0 1 0 0 0];

internalField   nonuniform List<scalar> 
12225
(
2.8602e-09
2.84676e-09
2.8438e-09
2.8419e-09
2.84102e-09
2.84171e-09
2.84184e-09
2.84115e-09
2.84115e-09
2.8423e-09
2.84353e-09
2.84415e-09
2.84482e-09
2.86378e-09
3.45712e-09
1.75976e-08
2.87761e-07
4.55866e-06
2.84836e-09
2.84539e-09
2.84392e-09
2.84248e-09
2.84166e-09
2.8428e-09
2.84388e-09
2.84353e-09
2.84302e-09
2.84365e-09
2.84488e-09
2.84572e-09
2.84612e-09
2.85259e-09
3.08183e-09
8.99121e-09
1.28745e-07
2.09509e-06
2.84487e-09
2.84934e-09
2.84859e-09
2.84607e-09
2.84509e-09
2.84616e-09
2.84714e-09
2.84702e-09
2.84693e-09
2.84758e-09
2.84854e-09
2.84926e-09
2.85006e-09
2.85258e-09
2.92688e-09
5.02463e-09
5.06386e-08
8.43353e-07
2.85322e-09
2.85146e-09
2.85082e-09
2.85095e-09
2.85123e-09
2.85225e-09
2.8533e-09
2.85387e-09
2.85453e-09
2.85567e-09
2.85702e-09
2.85807e-09
2.8588e-09
2.85966e-09
2.88145e-09
3.58287e-09
2.01102e-08
3.24131e-07
2.85999e-09
2.8605e-09
2.86208e-09
2.86081e-09
2.86035e-09
2.86253e-09
2.86494e-09
2.86586e-09
2.86608e-09
2.86665e-09
2.86763e-09
2.86854e-09
2.86935e-09
2.87028e-09
2.87695e-09
3.0994e-09
8.8349e-09
1.20088e-07
2.86553e-09
2.86702e-09
2.87048e-09
2.87293e-09
2.87456e-09
2.87664e-09
2.87842e-09
2.87953e-09
2.88088e-09
2.88278e-09
2.88472e-09
2.88622e-09
2.88731e-09
2.88823e-09
2.89027e-09
2.95309e-09
4.76192e-09
4.23618e-08
2.88058e-09
2.88465e-09
2.89172e-09
2.89371e-09
2.89402e-09
2.89707e-09
2.90086e-09
2.90323e-09
2.90457e-09
2.90566e-09
2.90678e-09
2.90785e-09
2.9089e-09
2.90998e-09
2.91121e-09
2.92732e-09
3.44592e-09
1.52116e-08
2.90768e-09
2.90758e-09
2.91376e-09
2.91775e-09
2.92102e-09
2.92533e-09
2.92845e-09
2.93021e-09
2.93198e-09
2.93432e-09
2.93677e-09
2.93879e-09
2.94036e-09
2.94161e-09
2.9426e-09
2.9466e-09
3.08432e-09
6.50341e-09
2.91741e-09
2.93885e-09
2.95105e-09
2.95452e-09
2.95696e-09
2.9621e-09
2.96749e-09
2.97113e-09
2.97338e-09
2.97498e-09
2.97614e-09
2.97707e-09
2.978e-09
2.97901e-09
2.97995e-09
2.98122e-09
3.01391e-09
3.91811e-09
2.97611e-09
2.98679e-09
2.99591e-09
3.00224e-09
3.00762e-09
3.01307e-09
3.01705e-09
3.01904e-09
3.02064e-09
3.0227e-09
3.02485e-09
3.02669e-09
3.02815e-09
3.0293e-09
3.0301e-09
3.03055e-09
3.03705e-09
3.2531e-09
3.0227e-09
3.04487e-09
3.0608e-09
3.06676e-09
3.07061e-09
3.07622e-09
3.0815e-09
3.08459e-09
3.08629e-09
3.08742e-09
3.08793e-09
3.08781e-09
3.08741e-09
3.08705e-09
3.08666e-09
3.08617e-09
3.08662e-09
3.13306e-09
3.13091e-09
3.13306e-09
3.13983e-09
3.1446e-09
3.14727e-09
3.15025e-09
3.15214e-09
3.15241e-09
3.15235e-09
3.1527e-09
3.15324e-09
3.15348e-09
3.15328e-09
3.15272e-09
3.15193e-09
3.15086e-09
3.14986e-09
3.15918e-09
3.20041e-09
3.22423e-09
3.23317e-09
3.23476e-09
3.23346e-09
3.23401e-09
3.23506e-09
3.23458e-09
3.23317e-09
3.23141e-09
3.22912e-09
3.22637e-09
3.22363e-09
3.22117e-09
3.21901e-09
3.21688e-09
3.21478e-09
3.21445e-09
3.36795e-09
3.36007e-09
3.34992e-09
3.34602e-09
3.34294e-09
3.34005e-09
3.33644e-09
3.33153e-09
3.32634e-09
3.32184e-09
3.31801e-09
3.31456e-09
3.31122e-09
3.30802e-09
3.3048e-09
3.30178e-09
3.29849e-09
3.29555e-09
3.50529e-09
3.49707e-09
3.49428e-09
3.49106e-09
3.48189e-09
3.4702e-09
3.45874e-09
3.44826e-09
3.43871e-09
3.43e-09
3.42215e-09
3.41505e-09
3.40848e-09
3.40242e-09
3.39677e-09
3.39166e-09
3.3867e-09
3.38198e-09
3.74345e-09
3.68312e-09
3.64021e-09
3.60567e-09
3.58025e-09
3.56183e-09
3.54725e-09
3.53534e-09
3.52524e-09
3.51608e-09
3.50777e-09
3.50042e-09
3.49388e-09
3.48786e-09
3.48222e-09
3.47688e-09
3.47185e-09
3.46692e-09
3.57386e-09
3.57515e-09
3.57512e-09
3.57813e-09
3.57984e-09
3.57821e-09
3.57311e-09
3.56642e-09
3.55943e-09
3.55238e-09
3.54559e-09
3.53924e-09
3.53317e-09
3.52741e-09
3.52199e-09
3.517e-09
3.51233e-09
3.50798e-09
3.55634e-09
3.54125e-09
3.52909e-09
3.51855e-09
3.50936e-09
3.50283e-09
3.49813e-09
3.49439e-09
3.49128e-09
3.48879e-09
3.48666e-09
3.48457e-09
3.4825e-09
3.48065e-09
3.47913e-09
3.4778e-09
3.47652e-09
3.47535e-09
3.22465e-09
3.24634e-09
3.2628e-09
3.27375e-09
3.28501e-09
3.29566e-09
3.30422e-09
3.31107e-09
3.31672e-09
3.32158e-09
3.32605e-09
3.33024e-09
3.33407e-09
3.33754e-09
3.3406e-09
3.34317e-09
3.3453e-09
3.34721e-09
3.1396e-09
3.14754e-09
3.15039e-09
3.14816e-09
3.14881e-09
3.15131e-09
3.15456e-09
3.15842e-09
3.1625e-09
3.16668e-09
3.1711e-09
3.1757e-09
3.18033e-09
3.18493e-09
3.18938e-09
3.19361e-09
3.19758e-09
3.20145e-09
2.94689e-09
2.97228e-09
2.99414e-09
3.00856e-09
3.02112e-09
3.03182e-09
3.04126e-09
3.04966e-09
3.05674e-09
3.06295e-09
3.069e-09
3.07505e-09
3.08085e-09
3.08625e-09
3.09119e-09
3.0957e-09
3.09976e-09
3.10365e-09
2.90766e-09
2.92241e-09
2.93937e-09
2.95067e-09
2.95677e-09
2.96348e-09
2.97139e-09
2.97794e-09
2.98319e-09
2.9886e-09
2.99419e-09
2.9995e-09
3.0045e-09
3.00932e-09
3.01405e-09
3.01867e-09
3.02315e-09
3.02753e-09
2.92487e-09
2.91526e-09
2.91321e-09
2.91701e-09
2.92042e-09
2.92463e-09
2.93001e-09
2.93498e-09
2.93955e-09
2.94446e-09
2.94935e-09
2.95364e-09
2.95751e-09
2.96141e-09
2.96544e-09
2.96931e-09
2.97295e-09
2.97641e-09
2.88441e-09
2.88303e-09
2.88631e-09
2.89032e-09
2.89193e-09
2.8937e-09
2.89673e-09
2.90004e-09
2.90323e-09
2.90645e-09
2.90991e-09
2.91352e-09
2.91738e-09
2.92145e-09
2.92549e-09
2.92944e-09
2.93333e-09
2.93711e-09
2.83974e-09
2.84519e-09
2.84856e-09
2.85209e-09
2.85521e-09
2.8586e-09
2.86336e-09
2.86882e-09
2.87414e-09
2.87909e-09
2.88358e-09
2.88763e-09
2.89157e-09
2.89547e-09
2.89914e-09
2.90256e-09
2.90578e-09
2.90899e-09
2.78369e-09
2.80595e-09
2.8176e-09
2.82544e-09
2.83132e-09
2.83629e-09
2.84143e-09
2.84635e-09
2.85077e-09
2.85522e-09
2.85984e-09
2.8644e-09
2.86862e-09
2.87269e-09
2.87684e-09
2.88108e-09
2.88523e-09
2.88923e-09
2.77138e-09
2.78736e-09
2.79581e-09
2.80084e-09
2.80679e-09
2.81368e-09
2.82112e-09
2.8281e-09
2.83414e-09
2.83968e-09
2.84527e-09
2.85071e-09
2.85559e-09
2.85989e-09
2.86379e-09
2.86748e-09
2.87108e-09
2.87466e-09
2.75672e-09
2.77215e-09
2.78202e-09
2.78945e-09
2.79721e-09
2.80436e-09
2.81123e-09
2.81763e-09
2.82332e-09
2.82855e-09
2.83374e-09
2.83893e-09
2.84405e-09
2.84906e-09
2.854e-09
2.8588e-09
2.86329e-09
2.86744e-09
2.74102e-09
2.75971e-09
2.77029e-09
2.77906e-09
2.78804e-09
2.79633e-09
2.80405e-09
2.81116e-09
2.81761e-09
2.82374e-09
2.8298e-09
2.83565e-09
2.84106e-09
2.84595e-09
2.8504e-09
2.85455e-09
2.85847e-09
2.86246e-09
2.75688e-09
2.75953e-09
2.76874e-09
2.77841e-09
2.78681e-09
2.79444e-09
2.80202e-09
2.80917e-09
2.81556e-09
2.82165e-09
2.82783e-09
2.83396e-09
2.83964e-09
2.8447e-09
2.84929e-09
2.85365e-09
2.85781e-09
2.86218e-09
0.000511366
0.000516875
0.000526247
0.000538327
0.000553798
0.000571074
0.000587284
0.0006026
0.000616198
0.000627008
0.000635493
0.000642535
0.000648663
0.000654104
0.000658949
0.000663232
0.000666952
0.000670103
0.000672676
0.000674651
0.000676035
0.000676787
0.000676901
0.000676322
0.000675026
0.000673213
0.000670939
0.000668032
0.000664362
0.000659809
0.00065434
0.000648102
0.000640781
0.000629688
0.000614295
0.000601656
0.000601701
0.000624249
0.000667778
0.000731878
0.000811417
0.000895702
0.000994068
0.00109332
0.00118525
0.00127071
0.00134846
0.00141977
0.00147059
0.00149882
0.00151554
0.00152923
0.00156893
0.00161854
0.00167054
0.00173604
0.00180918
0.00187987
0.00194282
0.00199844
0.00204819
0.00209337
0.00213487
0.00217333
0.00220913
0.00224261
0.00227396
0.00230335
0.00233089
0.00235669
0.00238082
0.00240335
0.00242434
0.00244388
0.0024621
0.00247913
0.0024948
0.0025091
0.00252219
0.00253409
0.00254487
0.00255458
0.00256327
0.00257096
0.00257766
0.00258334
0.00258794
0.00259137
0.00259351
0.00259422
0.00259334
0.00259069
0.00258609
0.00257945
0.00257063
0.0025594
0.00254548
0.00252875
0.00250933
0.00248722
0.00246187
0.00243243
0.00239906
0.00236275
0.0023223
0.0022746
0.00222288
0.00217173
0.00212259
0.00207863
0.0020451
0.00203233
0.00204817
0.00205849
0.00201437
0.00194694
0.00188674
0.00178866
0.00165946
0.00152916
0.00139971
0.00131359
0.00140695
0.00198996
0.00351096
0.00614763
0.00923439
0.011509
0.0123142
0.012142
0.0116759
0.0112538
0.0109387
0.010707
0.0105326
0.0103995
0.0102982
0.0102221
0.0101652
0.0101229
0.010095
0.0100769
0.0100613
0.0100431
0.0100188
0.009992
0.00996871
0.00995699
0.00997294
0.0100406
0.0101628
0.0102882
0.0104226
0.0105893
0.0107975
0.0110538
0.0113634
0.0117293
0.0121538
0.0126413
0.013193
0.0138084
0.0144977
0.0152601
0.0160821
0.0169855
0.0179639
0.0189684
0.0200466
0.0211938
0.0222976
0.0234001
0.0246056
0.0257156
0.0265738
0.027632
0.0293539
0.0311855
0.0328245
0.0351728
0.000546395
0.000552873
0.000565525
0.000581418
0.00060065
0.000621394
0.000641406
0.000658415
0.000671841
0.000682181
0.000690384
0.000697259
0.000703229
0.000708426
0.000712851
0.000716459
0.000719206
0.000721062
0.000722015
0.0007221
0.000721346
0.000719828
0.000717562
0.000714581
0.000710843
0.000706078
0.00070029
0.000693628
0.000686186
0.000678001
0.000669197
0.000659958
0.000650646
0.000639502
0.000625168
0.000612096
0.000603914
0.00060594
0.000627193
0.000673662
0.00073698
0.000814658
0.000907485
0.00101047
0.00111043
0.00120109
0.00129601
0.00135433
0.00142237
0.0014906
0.00150355
0.00151267
0.00157698
0.00164748
0.00170786
0.00177396
0.00184344
0.00190989
0.00197126
0.00202806
0.00208118
0.0021311
0.0021782
0.00222267
0.00226475
0.00230462
0.00234244
0.00237837
0.00241249
0.0024449
0.00247564
0.00250474
0.00253219
0.00255792
0.00258177
0.00260358
0.00262353
0.00264176
0.00265822
0.00267302
0.00268623
0.00269794
0.00270826
0.00271728
0.00272509
0.00273176
0.0027373
0.0027417
0.0027449
0.00274682
0.00274738
0.00274644
0.00274386
0.00273947
0.00273304
0.00272423
0.00271257
0.00269774
0.00267969
0.00265843
0.00263347
0.00260386
0.00256935
0.00253123
0.00248988
0.002442
0.00238657
0.00232717
0.00226648
0.00220887
0.00216692
0.00214813
0.00215435
0.00215524
0.00209868
0.00200466
0.00191707
0.00181874
0.00169673
0.00155836
0.00141747
0.0013437
0.00152179
0.00232377
0.00418732
0.00709024
0.0100488
0.011885
0.0123514
0.0120402
0.0115466
0.0111223
0.010799
0.0105511
0.0103571
0.0102048
0.0100874
0.00999966
0.00993574
0.00988696
0.00984373
0.00980505
0.00976809
0.00972454
0.00966934
0.00960828
0.00955182
0.0095108
0.00950125
0.00954602
0.00964671
0.00975479
0.00988277
0.0100514
0.0102672
0.0105341
0.0108545
0.0112295
0.0116609
0.0121511
0.0126998
0.0133097
0.013991
0.0147347
0.0155308
0.0164121
0.017359
0.0183166
0.0193653
0.0204887
0.021529
0.0225816
0.0237634
0.0248194
0.0256204
0.0265946
0.0280965
0.0295832
0.0312663
0.0336588
0.00062814
0.000638258
0.000655367
0.000676302
0.000696174
0.000713929
0.000729067
0.000741435
0.000751691
0.000760623
0.000768659
0.000775812
0.000781883
0.000786687
0.000790131
0.000792187
0.00079286
0.000792185
0.000790217
0.000787025
0.000782709
0.000777402
0.000771273
0.000764538
0.000757341
0.000749657
0.000741215
0.000731654
0.000720757
0.00070863
0.000695488
0.000681546
0.000667434
0.000653149
0.000638475
0.000624481
0.000611884
0.000604335
0.00060817
0.000629184
0.000670784
0.000733044
0.000821158
0.000938764
0.00105919
0.0011878
0.00130424
0.00139351
0.00143297
0.00149058
0.00152105
0.0015496
0.00160112
0.0016605
0.00172579
0.00179986
0.0018777
0.00195422
0.0020273
0.00209603
0.00216051
0.00222102
0.00227806
0.00233207
0.00238337
0.00243225
0.00247886
0.00252339
0.00256589
0.00260644
0.00264505
0.00268171
0.00271644
0.0027492
0.00277989
0.0028084
0.00283465
0.00285849
0.00287986
0.00289876
0.00291528
0.00292956
0.00294181
0.00295229
0.00296128
0.00296903
0.00297573
0.00298146
0.0029862
0.00298981
0.00299206
0.00299267
0.00299134
0.00298778
0.00298163
0.00297242
0.00295964
0.00294285
0.00292188
0.00289671
0.00286735
0.00283378
0.00279598
0.00275387
0.00270728
0.00265641
0.00260127
0.00254027
0.00247163
0.00240016
0.00234231
0.00230889
0.00229691
0.00227139
0.00219171
0.00207806
0.00197016
0.00186645
0.0017386
0.00158316
0.00143319
0.00139404
0.00171085
0.00278996
0.00497322
0.00795586
0.0106239
0.0120594
0.0122785
0.0118834
0.0113767
0.0109503
0.0106193
0.0103583
0.0101466
0.00997239
0.00982949
0.00971375
0.00962127
0.00954856
0.00949372
0.00945263
0.00941123
0.0093526
0.00926337
0.00915081
0.00903404
0.00893197
0.00886348
0.00884955
0.00888509
0.0089436
0.00903925
0.00918941
0.0093981
0.00966587
0.00999219
0.0103756
0.0108137
0.011307
0.0118562
0.0124575
0.0131169
0.0138386
0.0146053
0.0154326
0.016337
0.0172695
0.0182436
0.0193061
0.0203473
0.0213051
0.0223176
0.0232856
0.0240828
0.0249654
0.0263161
0.0278994
0.0296819
0.031817
0.000720369
0.000734219
0.000753362
0.00076874
0.000781019
0.000792639
0.000804513
0.00081623
0.000826909
0.000836036
0.000843474
0.000849147
0.00085292
0.000854699
0.00085452
0.000852544
0.000849023
0.000844255
0.000838548
0.000832185
0.000825369
0.000818223
0.00081076
0.000802861
0.000794433
0.000785605
0.000776377
0.00076645
0.00075543
0.000742874
0.000728594
0.00071257
0.000695029
0.000676645
0.000658175
0.00064027
0.000623568
0.000610618
0.000604443
0.000609704
0.00063467
0.000682565
0.0007669
0.0008857
0.00102851
0.00119409
0.00132446
0.00141891
0.00146979
0.00150108
0.00152807
0.00156871
0.00162743
0.00169841
0.00177795
0.00186306
0.00194942
0.00203379
0.00211457
0.0021912
0.00226382
0.00233272
0.00239822
0.0024607
0.00252042
0.0025776
0.00263237
0.00268484
0.00273505
0.00278302
0.00282876
0.0028723
0.00291368
0.00295292
0.00298993
0.00302438
0.00305623
0.00308538
0.00311173
0.00313517
0.00315564
0.00317317
0.00318786
0.00319989
0.00320952
0.00321706
0.00322277
0.00322685
0.00322936
0.00323022
0.00322922
0.00322606
0.00322045
0.00321211
0.00320069
0.00318575
0.00316671
0.00314302
0.00311433
0.00308065
0.00304228
0.00300009
0.00295506
0.00290756
0.00285629
0.00280129
0.0027463
0.00269347
0.00263193
0.00255735
0.00248262
0.00242521
0.00238669
0.00233203
0.00222752
0.00210335
0.00199316
0.00188521
0.0017514
0.00158901
0.00144254
0.0014568
0.00192186
0.0032321
0.00560307
0.00853575
0.0109519
0.0121378
0.0122245
0.011782
0.0112543
0.0108067
0.0104498
0.0101584
0.00991271
0.00970249
0.00952402
0.00937696
0.00926442
0.00919107
0.00915228
0.00913645
0.00912846
0.00909765
0.00900912
0.00886047
0.00867916
0.00849947
0.00834781
0.0082418
0.00816982
0.00813644
0.00815757
0.00824999
0.00841751
0.00865739
0.0089644
0.00933321
0.00975883
0.0102385
0.0107708
0.011352
0.0119849
0.0126731
0.0134068
0.0141986
0.0150677
0.0159805
0.0169343
0.0179539
0.018942
0.0198008
0.0206407
0.0214062
0.0220073
0.0227395
0.0239287
0.0254405
0.0272705
0.0295384
0.000808667
0.000820247
0.000827476
0.000833792
0.000842861
0.000852937
0.00086209
0.000870374
0.000877571
0.00088289
0.000885672
0.000885641
0.000882814
0.000877418
0.000869829
0.000860537
0.000850091
0.00083906
0.000828004
0.000817438
0.000807801
0.000799376
0.000792263
0.00078649
0.000781921
0.00077806
0.000774448
0.00077073
0.000766177
0.000759604
0.000749961
0.000736869
0.000720273
0.000700723
0.000679532
0.000658187
0.000637839
0.000620327
0.000607518
0.000604387
0.000619148
0.000659646
0.000743147
0.000868339
0.00103548
0.00121409
0.00136348
0.00143197
0.00147105
0.0014988
0.00153647
0.00159354
0.00166825
0.00175447
0.00184604
0.00193893
0.00203012
0.00211848
0.00220362
0.00228563
0.00236443
0.00244006
0.00251245
0.0025816
0.00264745
0.00271001
0.00276924
0.00282522
0.00287803
0.00292784
0.0029749
0.00301954
0.00306201
0.00310253
0.0031411
0.00317778
0.00321267
0.00324581
0.00327697
0.00330586
0.00333211
0.00335535
0.00337525
0.00339161
0.00340432
0.00341343
0.00341905
0.00342131
0.00342031
0.00341608
0.00340854
0.00339761
0.00338321
0.00336538
0.00334416
0.00331951
0.00329117
0.00325857
0.00322106
0.00317831
0.00313026
0.00307768
0.00302175
0.00296436
0.00290553
0.00284523
0.00278233
0.00272537
0.00267086
0.0026037
0.00252712
0.00245885
0.00240224
0.00232898
0.00221474
0.00209282
0.00198948
0.00188519
0.00175174
0.00158556
0.0014486
0.00151818
0.00209975
0.00354797
0.00597097
0.00880626
0.0110672
0.0121538
0.0122007
0.0117319
0.0111709
0.0106833
0.0102819
0.00994293
0.00964797
0.00938754
0.00915998
0.00897259
0.00883944
0.00877102
0.00876065
0.00879394
0.00886208
0.00891916
0.00889026
0.00874589
0.00851723
0.00826324
0.00802283
0.00781353
0.00762589
0.00747905
0.00739451
0.0073929
0.00748173
0.00765868
0.00791622
0.00824509
0.00863622
0.00908379
0.0095856
0.0101381
0.0107412
0.0114011
0.0121174
0.0128957
0.0137537
0.0146707
0.0156201
0.0165931
0.0174953
0.0182094
0.0188032
0.0192909
0.0196601
0.0202016
0.021182
0.0225126
0.0243439
0.0267422
0.000863104
0.000864703
0.000863511
0.000868763
0.000876183
0.000883595
0.000889837
0.000893907
0.000895347
0.000894057
0.00088984
0.000882442
0.000871788
0.000858164
0.000842214
0.000824814
0.000806946
0.000789603
0.000773715
0.000760052
0.00074915
0.000741265
0.000736448
0.000734483
0.0007351
0.000737782
0.000741377
0.000744704
0.00074705
0.000747817
0.000745769
0.00073963
0.00072888
0.000713535
0.00069399
0.000671859
0.000649381
0.000628682
0.000612201
0.000604838
0.000613265
0.000650403
0.000731621
0.000861131
0.00103357
0.00121743
0.00135352
0.00142029
0.00146196
0.00149929
0.00155253
0.00162507
0.00171212
0.00180728
0.001905
0.0020023
0.00209779
0.00219135
0.0022828
0.00237179
0.00245745
0.00253899
0.00261559
0.00268675
0.00275217
0.00281191
0.00286619
0.00291551
0.00296053
0.00300203
0.00304078
0.00307749
0.00311264
0.00314665
0.00318043
0.00321494
0.0032503
0.00328628
0.00332248
0.00335828
0.00339287
0.00342531
0.00345457
0.00347969
0.0034999
0.00351466
0.0035236
0.00352654
0.00352342
0.00351437
0.00349971
0.00347989
0.00345527
0.00342619
0.00339303
0.00335624
0.00331638
0.00327359
0.00322755
0.00317795
0.00312399
0.00306537
0.00300189
0.00293625
0.00287149
0.00280921
0.00274504
0.00268011
0.00262564
0.00256791
0.00249698
0.00242671
0.00236147
0.00227779
0.00216055
0.00204494
0.00195601
0.00186384
0.00173649
0.00157288
0.00145129
0.00156483
0.00221198
0.00370217
0.00607901
0.00881841
0.0110292
0.0121376
0.0122051
0.0117132
0.011099
0.0105498
0.0100877
0.00968903
0.00933332
0.00901249
0.00873547
0.00852437
0.00839585
0.00834748
0.00836861
0.00846101
0.00862287
0.00879649
0.00885958
0.00875061
0.00849439
0.00817486
0.00784484
0.00753066
0.00723923
0.00698725
0.00679958
0.00669969
0.00669794
0.00679358
0.00697956
0.00724604
0.00758304
0.00798304
0.00844259
0.00895959
0.00953366
0.0101705
0.0108738
0.0116438
0.0124926
0.013405
0.0143348
0.0152457
0.0160284
0.0165299
0.0168286
0.0170255
0.0171574
0.0174524
0.0182386
0.0194496
0.0212187
0.0236384
0.000869959
0.000869349
0.000872532
0.000880358
0.000887668
0.000891856
0.000893912
0.000894113
0.000891524
0.000885293
0.00087458
0.000858857
0.000838342
0.000814033
0.000787437
0.000760227
0.000733984
0.000710085
0.000689716
0.000673806
0.000662873
0.000657195
0.000656709
0.00066059
0.000668218
0.000678942
0.000691157
0.000702987
0.000713268
0.000721568
0.000726893
0.000727276
0.000721487
0.000710199
0.000694261
0.000674646
0.0006533
0.000632306
0.000614525
0.000604842
0.000611287
0.000648779
0.000729345
0.000862032
0.00103417
0.001214
0.00133626
0.00140611
0.00145547
0.00150446
0.00157033
0.00165311
0.00174732
0.001848
0.00195107
0.00205496
0.00215863
0.00226107
0.00236063
0.00245543
0.00254354
0.00262355
0.00269455
0.00275641
0.00280945
0.00285451
0.00289264
0.00292507
0.00295312
0.00297807
0.00300111
0.00302322
0.00304519
0.00306849
0.00309499
0.0031251
0.00315876
0.00319572
0.00323551
0.00327734
0.00332009
0.00336237
0.00340258
0.00343905
0.0034703
0.00349509
0.00351262
0.00352236
0.00352403
0.00351742
0.00350254
0.00347962
0.00344894
0.00341095
0.00336662
0.00331736
0.00326521
0.00321165
0.00315711
0.00310172
0.00304424
0.00298298
0.00291529
0.00284363
0.00277504
0.00271059
0.00265201
0.00258876
0.00253182
0.0024821
0.0024202
0.00235281
0.00228686
0.00220058
0.00208376
0.00197283
0.00189677
0.00182124
0.0017063
0.00155216
0.00144785
0.00158779
0.00224959
0.00370432
0.00598004
0.00863231
0.0108734
0.0120827
0.0122092
0.0116948
0.0110162
0.0103977
0.00986942
0.00940293
0.00897697
0.00859567
0.00828673
0.00808072
0.00798621
0.00798211
0.00804674
0.00819751
0.00844089
0.00871214
0.00885533
0.00878039
0.00850077
0.00812318
0.00771461
0.00730602
0.00692077
0.00657877
0.00630516
0.00612414
0.00604647
0.00607042
0.00618792
0.00638905
0.0066648
0.00700905
0.00741932
0.00789487
0.00843545
0.00904327
0.00971971
0.010465
0.0112917
0.0121938
0.0131095
0.013936
0.0145392
0.0147892
0.0147879
0.0146892
0.0146217
0.014736
0.0153359
0.016422
0.0180808
0.0204411
0.000873258
0.000874719
0.000878822
0.000884149
0.000887989
0.000890312
0.00089124
0.000889041
0.000881932
0.000868782
0.000848825
0.000822489
0.000791371
0.000757552
0.000723051
0.00068962
0.000658738
0.000631707
0.000609693
0.000593538
0.000583705
0.000580496
0.000583927
0.000592954
0.000606023
0.000621895
0.000639245
0.000656359
0.000672081
0.000686067
0.000697122
0.000703117
0.000702848
0.0006965
0.000684623
0.000668451
0.000649812
0.00063042
0.00061351
0.00060476
0.000613472
0.000653408
0.000735946
0.000868414
0.00103773
0.00120881
0.00132272
0.0013964
0.00145253
0.00151056
0.00158514
0.00167486
0.00177544
0.00188319
0.00199459
0.00210774
0.00221992
0.00232821
0.00242944
0.00252105
0.00260129
0.00266944
0.00272555
0.00277027
0.00280463
0.00282995
0.00284768
0.00285939
0.00286666
0.00287107
0.00287417
0.00287779
0.00288414
0.00289477
0.00291044
0.00293201
0.00296001
0.00299446
0.00303497
0.00308058
0.00312993
0.0031813
0.00323277
0.00328219
0.00332721
0.00336567
0.00339605
0.00341748
0.00342942
0.00343104
0.00342143
0.00340025
0.00336793
0.00332572
0.0032756
0.00321957
0.00316033
0.00310054
0.00304156
0.00298427
0.00292728
0.00286711
0.00279936
0.00272474
0.00265388
0.00258548
0.00252531
0.00246921
0.00241282
0.00236756
0.00231756
0.00225813
0.00219854
0.00211871
0.00200306
0.00188712
0.00181125
0.00175002
0.00165392
0.00151846
0.00143379
0.0015841
0.00221983
0.00358433
0.00572336
0.00829389
0.010605
0.0119671
0.0121887
0.0116681
0.0109301
0.0102407
0.0096382
0.00909337
0.00859663
0.00817247
0.00785771
0.00767543
0.00762678
0.00768601
0.00780823
0.00799242
0.00828231
0.00862092
0.00883334
0.00877262
0.00844986
0.00800151
0.00751684
0.00703495
0.00658156
0.00617754
0.00584516
0.00560577
0.00547043
0.00543798
0.00550037
0.0056468
0.00586811
0.00615939
0.00651999
0.00695082
0.00745057
0.0080169
0.00865103
0.00936272
0.0101749
0.0110774
0.0119646
0.01266
0.01303
0.013015
0.0127517
0.0124258
0.0122185
0.012245
0.0127176
0.0136911
0.0152178
0.0174285
0.000869841
0.000870612
0.000874761
0.000880409
0.000885089
0.000887968
0.00088732
0.000881129
0.000868395
0.00084831
0.000821057
0.00078846
0.000752612
0.000715463
0.00067873
0.000643833
0.000612118
0.000584967
0.000563625
0.000548797
0.000540574
0.000539106
0.000544328
0.000554646
0.000567885
0.000583536
0.000601355
0.000619801
0.000637644
0.000654154
0.000667326
0.000675034
0.000676868
0.000673402
0.00066508
0.000652774
0.000637736
0.000621572
0.000608038
0.000603455
0.000617339
0.000661792
0.000748597
0.000879657
0.00104528
0.00120385
0.00131386
0.00139027
0.00145136
0.00151606
0.00159724
0.00169301
0.00180055
0.00191588
0.00203473
0.00215363
0.00226823
0.00237493
0.00247063
0.00255341
0.00262222
0.00267676
0.00271713
0.00274382
0.00275763
0.00275987
0.00275224
0.00273697
0.00271661
0.00269391
0.00267178
0.00265308
0.00264015
0.00263446
0.00263697
0.00264863
0.00267009
0.00270139
0.00274204
0.00279103
0.00284688
0.00290765
0.00297109
0.00303447
0.00309461
0.0031483
0.00319274
0.00322607
0.00324734
0.00325609
0.00325245
0.00323745
0.00321224
0.00317752
0.00313423
0.00308303
0.00302467
0.00296204
0.00289932
0.00283978
0.00278449
0.00272876
0.00266553
0.00259226
0.00251953
0.00245019
0.00238588
0.00233469
0.00228568
0.00224351
0.00220371
0.00215349
0.00210352
0.00203959
0.00193464
0.00181238
0.00172116
0.00166142
0.00158285
0.00147072
0.00140702
0.00155514
0.00213627
0.00337453
0.00534931
0.00782985
0.0102239
0.0117802
0.0121399
0.011643
0.0108545
0.0100886
0.00940197
0.00877726
0.00822513
0.00778364
0.00748173
0.00732579
0.00731239
0.00742586
0.00759822
0.00780057
0.00812367
0.00852351
0.00879622
0.00872212
0.00833596
0.00780513
0.00722739
0.00664657
0.00612559
0.00569525
0.00535657
0.00510325
0.00494023
0.00486973
0.0048881
0.00498777
0.00516137
0.00540584
0.00572187
0.00611003
0.00656638
0.00708494
0.00767198
0.00835638
0.00916764
0.0100628
0.0108762
0.0113952
0.0115185
0.0112669
0.0108148
0.0103673
0.0101086
0.0101459
0.0105866
0.0114837
0.0128733
0.0148724
0.000861909
0.000864571
0.000870494
0.000876878
0.000881673
0.000884143
0.000881976
0.00087364
0.00085793
0.000833998
0.000803462
0.000768943
0.000732063
0.000694445
0.000657569
0.000622583
0.000590855
0.000563984
0.000543327
0.000529575
0.000522734
0.000522546
0.000528296
0.000538614
0.000551533
0.000565785
0.000581037
0.000596311
0.000611056
0.000624903
0.000635829
0.000642131
0.000643711
0.000641142
0.000635086
0.000626294
0.000615632
0.00060477
0.000597592
0.000600518
0.000622551
0.000673898
0.000764415
0.000895243
0.00105545
0.00120194
0.00130921
0.00138619
0.00145073
0.00152053
0.00160669
0.00170724
0.00182016
0.00194031
0.00206273
0.00218297
0.00229648
0.00239993
0.00249048
0.00256598
0.00262462
0.00266507
0.00268652
0.00268903
0.0026738
0.00264337
0.00260157
0.00255293
0.00250204
0.00245304
0.00240925
0.00237298
0.00234607
0.00233014
0.00232534
0.00233156
0.00234867
0.00237652
0.00241482
0.002463
0.00251999
0.00258425
0.00265361
0.00272532
0.00279615
0.00286252
0.0029209
0.00296829
0.00300309
0.00302557
0.00303722
0.0030394
0.00303261
0.00301595
0.00298752
0.00294684
0.00289259
0.00282694
0.00275767
0.00269255
0.00263692
0.00258548
0.00252495
0.00245273
0.00237592
0.00230383
0.00223864
0.00218817
0.00214881
0.00211453
0.00208322
0.002043
0.00200249
0.0019568
0.00187396
0.00175936
0.00165706
0.00158668
0.00151216
0.00141719
0.00137009
0.00150503
0.00201269
0.00310248
0.00489202
0.00726354
0.0097318
0.0115125
0.0120637
0.0116279
0.0107994
0.00995216
0.00917947
0.00848588
0.0079018
0.00746478
0.0071792
0.00701927
0.00699415
0.00715297
0.00741558
0.00767677
0.00804159
0.00849329
0.00877977
0.00864825
0.0081809
0.00756984
0.0069023
0.00620717
0.00557868
0.00509575
0.00477407
0.00456117
0.0044179
0.00434083
0.00433469
0.00439984
0.00453454
0.00474001
0.00501889
0.00536944
0.00578224
0.00625023
0.00679375
0.00746151
0.00826965
0.00912726
0.00982432
0.0101489
0.0100487
0.00962148
0.00907233
0.00861855
0.00843056
0.00860296
0.00915416
0.010063
0.0113164
0.0130277
0.000851708
0.000854682
0.00086162
0.000869235
0.000875624
0.0008799
0.000878653
0.000869839
0.000852447
0.000826715
0.000795268
0.000760546
0.000724153
0.000687508
0.000651637
0.00061747
0.000586301
0.000559672
0.000538959
0.000524863
0.000517346
0.000516056
0.000520329
0.000529009
0.000540235
0.000552354
0.000564661
0.00057646
0.000587229
0.000596564
0.000603784
0.000608388
0.000610321
0.000609756
0.000606977
0.000602476
0.000597094
0.000592581
0.000592775
0.00060351
0.000632239
0.000688623
0.000781355
0.000913696
0.0010687
0.00120558
0.00130753
0.00138333
0.00144973
0.00152302
0.00161202
0.00171531
0.00183111
0.00195351
0.00207767
0.00219884
0.00231251
0.0024148
0.00250163
0.00256909
0.00261364
0.00263286
0.00262617
0.00259529
0.00254436
0.00247951
0.00240761
0.00233498
0.00226658
0.00220599
0.0021554
0.00211557
0.0020869
0.00206978
0.00206325
0.00206633
0.00207866
0.00210019
0.00213104
0.00217117
0.00222022
0.00227742
0.00234148
0.00241057
0.0024823
0.00255375
0.00262166
0.00268302
0.00273567
0.00277886
0.00281297
0.00283726
0.00284981
0.00284874
0.00283062
0.00279426
0.00274066
0.00267407
0.00260356
0.00254059
0.00248988
0.00244145
0.00237966
0.00230709
0.00223282
0.00216228
0.00209961
0.00204706
0.00200869
0.00198057
0.00195724
0.00192804
0.00189633
0.00186591
0.00180971
0.001717
0.00161669
0.00153344
0.00145189
0.00136542
0.00132661
0.00143882
0.00186225
0.00279224
0.0043816
0.00661747
0.00913067
0.0111436
0.0119531
0.0116263
0.0107757
0.00985013
0.00899798
0.00825137
0.00765451
0.00723414
0.00695742
0.0067662
0.00671016
0.00691578
0.00731401
0.00766723
0.00806372
0.00853461
0.00878525
0.00856456
0.00799553
0.00730257
0.0065589
0.00577668
0.00503665
0.00446167
0.00411833
0.00395617
0.0038711
0.00382162
0.00381476
0.00386311
0.00397394
0.00415352
0.00440483
0.00472133
0.00508935
0.00550861
0.00601776
0.00667245
0.00746285
0.00825266
0.00880677
0.00894126
0.00866466
0.00813851
0.00758886
0.00724224
0.0072679
0.00773532
0.00857053
0.00963351
0.0108182
0.0121831
0.000837211
0.000841429
0.000850473
0.000860447
0.000869008
0.000874581
0.000873998
0.000865378
0.000847964
0.000822841
0.000792515
0.000759107
0.000724377
0.000689745
0.000656159
0.00062432
0.000595029
0.000569345
0.000548305
0.000532527
0.000522163
0.000517156
0.000517114
0.00052113
0.000528041
0.000536745
0.000546162
0.000555552
0.000564397
0.000572246
0.000578794
0.000583869
0.000587364
0.00058937
0.000589934
0.000589103
0.000587756
0.000587794
0.000592792
0.000608126
0.000641445
0.000702981
0.000801613
0.000937724
0.00108667
0.00121324
0.00130729
0.00138071
0.00144742
0.00152225
0.00161187
0.00171599
0.00183278
0.00195638
0.00208232
0.00220538
0.00232026
0.00242109
0.00250143
0.00255548
0.00257908
0.00257086
0.0025328
0.00247033
0.00239129
0.00230416
0.00221633
0.00213361
0.0020603
0.00199909
0.00195119
0.00191678
0.00189466
0.00188169
0.00187635
0.00187794
0.00188616
0.00190128
0.00192384
0.00195433
0.00199292
0.00203938
0.00209309
0.00215308
0.00221793
0.00228574
0.00235417
0.00242103
0.00248417
0.00254037
0.00258769
0.00262395
0.00264549
0.00265024
0.00263684
0.0026048
0.00255734
0.00250068