/*--------------------------------*- C++ -*----------------------------------*\
  =========                 |
  \\      /  F ield         | OpenFOAM: The Open Source CFD Toolbox
   \\    /   O peration     | Website:  https://openfoam.org
    \\  /    A nd           | Version:  10
     \\/     M anipulation  |
\*---------------------------------------------------------------------------*/
FoamFile
{
    format      ascii;
    class       surfaceScalarField;
    location    "24200";
    object      phi;
}
// * * * * * * * * * * * * * * * * * * * * * * * * * * * * * * * * * * * * * //

dimensions      [0 3 -1 0 0 0 0];

internalField   nonuniform List<scalar> 
12640
(
-1.11748e-06
1.11748e-06
-2.35695e-06
1.23947e-06
-2.42883e-06
7.18744e-08
-2.42615e-06
-2.67786e-09
-2.45719e-06
3.1041e-08
-2.45907e-06
1.8748e-09
-2.58607e-06
1.27004e-07
-2.5822e-06
-3.8687e-09
-2.56674e-06
-1.5459e-08
-2.56232e-06
-4.42289e-09
-2.53774e-06
-2.45759e-08
-2.51425e-06
-2.34945e-08
-2.47913e-06
-3.51208e-08
-2.39182e-06
-8.73096e-08
-2.34299e-06
-4.88317e-08
-2.31119e-06
-3.17985e-08
-2.26486e-06
-4.63252e-08
-2.19184e-06
-7.30282e-08
-2.14422e-06
-4.76154e-08
-2.10673e-06
-3.74938e-08
-2.04748e-06
-5.92437e-08
-1.94004e-06
-1.07445e-07
-1.86116e-06
-7.88823e-08
-1.81502e-06
-4.61357e-08
-1.77829e-06
-3.67264e-08
-1.72343e-06
-5.48625e-08
-1.62259e-06
-1.0084e-07
-1.48069e-06
-1.41898e-07
-1.36638e-06
-1.14312e-07
-1.29107e-06
-7.53121e-08
-1.22958e-06
-6.14858e-08
-1.149e-06
-8.05784e-08
-1.09394e-06
-5.50619e-08
-1.02207e-06
-7.18704e-08
-9.27666e-07
-9.44064e-08
-8.04801e-07
-1.22865e-07
-6.4872e-07
-1.5608e-07
-4.58124e-07
-1.90596e-07
-2.37814e-07
-2.20311e-07
-1.70834e-18
-2.37814e-07
2.37814e-07
-2.37814e-07
4.58124e-07
-2.20311e-07
6.4872e-07
-1.90596e-07
8.04801e-07
-1.5608e-07
9.27666e-07
-1.22865e-07
1.02207e-06
-9.44064e-08
1.09394e-06
-7.18704e-08
1.149e-06
-5.50619e-08
1.22958e-06
-8.05784e-08
1.29107e-06
-6.14858e-08
1.36638e-06
-7.53121e-08
1.48069e-06
-1.14312e-07
1.62259e-06
-1.41898e-07
1.72343e-06
-1.0084e-07
1.77829e-06
-5.48625e-08
1.81502e-06
-3.67264e-08
1.86116e-06
-4.61357e-08
1.94004e-06
-7.88823e-08
2.04748e-06
-1.07445e-07
2.10673e-06
-5.92437e-08
2.14422e-06
-3.74938e-08
2.19184e-06
-4.76154e-08
2.26486e-06
-7.30282e-08
2.31119e-06
-4.63252e-08
2.34299e-06
-3.17985e-08
2.39182e-06
-4.88317e-08
2.47913e-06
-8.73096e-08
2.51425e-06
-3.51208e-08
2.53774e-06
-2.34945e-08
2.56232e-06
-2.45759e-08
2.56674e-06
-4.42289e-09
2.5822e-06
-1.5459e-08
2.58607e-06
-3.8687e-09
2.45907e-06
1.27004e-07
2.45719e-06
1.8748e-09
2.42615e-06
3.1041e-08
2.42883e-06
-2.67786e-09
2.35695e-06
7.18744e-08
1.11748e-06
1.23947e-06
1.11748e-06
-1.14053e-06
2.25801e-06
-2.50881e-06
2.60776e-06
-2.56286e-06
1.25925e-07
-2.5711e-06
5.553e-09
-2.61618e-06
7.61277e-08
-2.61715e-06
2.84718e-09
-2.76912e-06
2.78973e-07
-2.76299e-06
-1.00055e-08
-2.74817e-06
-3.02794e-08
-2.7472e-06
-5.38921e-09
-2.72175e-06
-5.00233e-08
-2.69878e-06
-4.64672e-08
-2.66441e-06
-6.9492e-08
-2.56753e-06
-1.84183e-07
-2.51714e-06
-9.92259e-08
-2.48539e-06
-6.35512e-08
-2.43697e-06
-9.47416e-08
-2.35667e-06
-1.53331e-07
-2.30681e-06
-9.74769e-08
-2.26854e-06
-7.57602e-08
-2.20653e-06
-1.21254e-07
-2.08765e-06
-2.26329e-07
-2.00289e-06
-1.63637e-07
-1.95465e-06
-9.43726e-08
-1.91671e-06
-7.4674e-08
-1.85919e-06
-1.12379e-07
-1.75053e-06
-2.09499e-07
-1.59455e-06
-2.97883e-07
-1.47096e-06
-2.37895e-07
-1.39112e-06
-1.55157e-07
-1.32651e-06
-1.26094e-07
-1.24166e-06
-1.65429e-07
-1.18351e-06
-1.1321e-07
-1.10741e-06
-1.47968e-07
-1.00705e-06
-1.94765e-07
-8.75724e-07
-2.54197e-07
-7.07747e-07
-3.24057e-07
-5.01089e-07
-3.97254e-07
-2.60615e-07
-4.60784e-07
-6.61363e-18
-4.98429e-07
2.60615e-07
-4.98429e-07
5.01089e-07
-4.60784e-07
7.07747e-07
-3.97254e-07
8.75724e-07
-3.24057e-07
1.00705e-06
-2.54197e-07
1.10741e-06
-1.94765e-07
1.18351e-06
-1.47968e-07
1.24166e-06
-1.1321e-07
1.32651e-06
-1.65429e-07
1.39112e-06
-1.26094e-07
1.47096e-06
-1.55157e-07
1.59455e-06
-2.37895e-07
1.75053e-06
-2.97883e-07
1.85919e-06
-2.09499e-07
1.91671e-06
-1.12379e-07
1.95465e-06
-7.4674e-08
2.00289e-06
-9.43726e-08
2.08765e-06
-1.63637e-07
2.20653e-06
-2.26329e-07
2.26854e-06
-1.21254e-07
2.30681e-06
-7.57602e-08
2.35667e-06
-9.74769e-08
2.43697e-06
-1.53331e-07
2.48539e-06
-9.47416e-08
2.51714e-06
-6.35512e-08
2.56753e-06
-9.92259e-08
2.66441e-06
-1.84183e-07
2.69878e-06
-6.9492e-08
2.72175e-06
-4.64672e-08
2.7472e-06
-5.00233e-08
2.74817e-06
-5.38921e-09
2.76299e-06
-3.02794e-08
2.76912e-06
-1.00055e-08
2.61715e-06
2.78973e-07
2.61618e-06
2.84718e-09
2.5711e-06
7.61277e-08
2.56286e-06
5.553e-09
2.50881e-06
1.25925e-07
1.14053e-06
2.60776e-06
2.25801e-06
-7.91617e-07
3.04963e-06
-2.41041e-06
4.22654e-06
-2.58398e-06
2.99499e-07
-2.68517e-06
1.06743e-07
-2.78069e-06
1.71651e-07
-2.78017e-06
2.32635e-09
-2.98424e-06
4.83043e-07
-2.96881e-06
-2.54366e-08
-2.95456e-06
-4.4532e-08
-2.96061e-06
6.63828e-10
-2.93282e-06
-7.78147e-08
-2.91146e-06
-6.78282e-08
-2.88114e-06
-9.98084e-08
-2.76642e-06
-2.98904e-07
-2.71589e-06
-1.49757e-07
-2.68631e-06
-9.31271e-08
-2.63634e-06
-1.44719e-07
-2.54368e-06
-2.45987e-07
-2.49233e-06
-1.48833e-07
-2.45531e-06
-1.12776e-07
-2.39211e-06
-1.84456e-07
-2.25433e-06
-3.64102e-07
-2.16263e-06
-2.5534e-07
-2.11358e-06
-1.43421e-07
-2.07607e-06
-1.12187e-07
-2.01746e-06
-1.70992e-07
-1.89956e-06
-3.2739e-07
-1.72243e-06
-4.75019e-07
-1.5875e-06
-3.72818e-07
-1.50426e-06
-2.38405e-07
-1.43831e-06
-1.92044e-07
-1.35132e-06
-2.52421e-07
-1.29136e-06
-1.73164e-07
-1.21246e-06
-2.26874e-07
-1.10745e-06
-2.99772e-07
-9.6827e-07
-3.93376e-07
-7.87369e-07
-5.04958e-07
-5.6084e-07
-6.23783e-07
-2.93019e-07
-7.28606e-07
9.45297e-18
-7.91447e-07
2.93019e-07
-7.91447e-07
5.6084e-07
-7.28606e-07
7.87369e-07
-6.23783e-07
9.6827e-07
-5.04958e-07
1.10745e-06
-3.93376e-07
1.21246e-06
-2.99772e-07
1.29136e-06
-2.26874e-07
1.35132e-06
-1.73164e-07
1.43831e-06
-2.52421e-07
1.50426e-06
-1.92044e-07
1.5875e-06
-2.38405e-07
1.72243e-06
-3.72818e-07
1.89956e-06
-4.75019e-07
2.01746e-06
-3.2739e-07
2.07607e-06
-1.70992e-07
2.11358e-06
-1.12187e-07
2.16263e-06
-1.43421e-07
2.25433e-06
-2.5534e-07
2.39211e-06
-3.64102e-07
2.45531e-06
-1.84456e-07
2.49233e-06
-1.12776e-07
2.54368e-06
-1.48833e-07
2.63634e-06
-2.45987e-07
2.68631e-06
-1.44719e-07
2.71589e-06
-9.31271e-08
2.76642e-06
-1.49757e-07
2.88114e-06
-2.98904e-07
2.91146e-06
-9.98084e-08
2.93282e-06
-6.78282e-08
2.96061e-06
-7.78147e-08
2.95456e-06
6.63828e-10
2.96881e-06
-4.4532e-08
2.98424e-06
-2.54366e-08
2.78017e-06
4.83043e-07
2.78069e-06
2.32635e-09
2.68517e-06
1.71651e-07
2.58398e-06
1.06743e-07
2.41041e-06
2.99499e-07
7.91617e-07
4.22654e-06
3.04963e-06
6.92246e-08
2.9804e-06
7.52833e-07
3.54294e-06
7.19348e-08
9.80398e-07
-1.85597e-06
2.03465e-06
-2.70736e-06
1.02304e-06
-2.84578e-06
1.40749e-07
-3.19729e-06
8.34554e-07
-3.17644e-06
-4.62875e-08
-3.1706e-06
-5.03744e-08
-3.19358e-06
2.36443e-08
-3.16258e-06
-1.08815e-07
-3.14588e-06
-8.45286e-08
-3.12711e-06
-1.18581e-07
-2.98095e-06
-4.45057e-07
-2.93412e-06
-1.96593e-07
-2.9107e-06
-1.16543e-07
-2.86094e-06
-1.94485e-07
-2.74773e-06
-3.59194e-07
-2.69697e-06
-1.99587e-07
-2.66484e-06
-1.44907e-07
-2.60426e-06
-2.45041e-07
-2.43553e-06
-5.32835e-07
-2.33628e-06
-3.54583e-07
-2.28898e-06
-1.90727e-07
-2.25476e-06
-1.46402e-07
-2.19814e-06
-2.27608e-07
-2.0699e-06
-4.55632e-07
-1.8608e-06
-6.84123e-07
-1.7124e-06
-5.21215e-07
-1.62828e-06
-3.22527e-07
-1.56416e-06
-2.56165e-07
-1.47875e-06
-3.37833e-07
-1.41935e-06
-2.3256e-07
-1.34043e-06
-3.05795e-07
-1.23372e-06
-4.06482e-07
-1.08899e-06
-5.38102e-07
-8.95291e-07
-6.9866e-07
-6.44725e-07
-8.74349e-07
-3.39647e-07
-1.03368e-06
1.51716e-17
-1.13109e-06
3.39647e-07
-1.13109e-06
6.44725e-07
-1.03368e-06
8.95291e-07
-8.74349e-07
1.08899e-06
-6.9866e-07
1.23372e-06
-5.38102e-07
1.34043e-06
-4.06482e-07
1.41935e-06
-3.05795e-07
1.47875e-06
-2.3256e-07
1.56416e-06
-3.37833e-07
1.62828e-06
-2.56165e-07
1.7124e-06
-3.22527e-07
1.8608e-06
-5.21215e-07
2.0699e-06
-6.84123e-07
2.19814e-06
-4.55632e-07
2.25476e-06
-2.27608e-07
2.28898e-06
-1.46402e-07
2.33628e-06
-1.90727e-07
2.43553e-06
-3.54583e-07
2.60426e-06
-5.32835e-07
2.66484e-06
-2.45041e-07
2.69697e-06
-1.44907e-07
2.74773e-06
-1.99587e-07
2.86094e-06
-3.59194e-07
2.9107e-06
-1.94485e-07
2.93412e-06
-1.16543e-07
2.98095e-06
-1.96593e-07
3.12711e-06
-4.45057e-07
3.14588e-06
-1.18581e-07
3.16258e-06
-8.45286e-08
3.19358e-06
-1.08815e-07
3.1706e-06
2.36443e-08
3.17644e-06
-5.03744e-08
3.19729e-06
-4.62875e-08
2.84578e-06
8.34554e-07
2.70736e-06
1.40749e-07
1.85597e-06
1.02304e-06
-7.19348e-08
2.03465e-06
-7.52833e-07
9.80398e-07
-6.92246e-08
3.54294e-06
2.9804e-06
1.22463e-07
2.85794e-06
6.1374e-07
3.05166e-06
2.0831e-07
1.38583e-06
4.14444e-07
1.82852e-06
2.89947e-07
1.14754e-06
-3.08499e-07
7.39195e-07
-2.87471e-06
3.40077e-06
-3.17304e-06
2.52039e-07
-3.31146e-06
8.80408e-08
-3.41516e-06
1.27349e-07
-3.39302e-06
-1.30955e-07
-3.39199e-06
-8.55561e-08
-3.40303e-06
-1.07548e-07
-3.20195e-06
-6.46131e-07
-3.16835e-06
-2.30195e-07
-3.15825e-06
-1.26645e-07
-3.11308e-06
-2.39651e-07
-2.96476e-06
-5.07517e-07
-2.91939e-06
-2.44958e-07
-2.89811e-06
-1.66185e-07
-2.84851e-06
-2.9464e-07
-2.62739e-06
-7.53961e-07
-2.52134e-06
-4.60628e-07
-2.48026e-06
-2.31812e-07
-2.4538e-06
-1.72856e-07
-2.40473e-06
-2.76678e-07
-2.26576e-06
-5.94602e-07
-2.00655e-06
-9.43334e-07
-1.84264e-06
-6.85131e-07
-1.76236e-06
-4.028e-07
-1.70505e-06
-3.13477e-07
-1.62681e-06
-4.16077e-07
-1.57174e-06
-2.87632e-07
-1.49751e-06
-3.80021e-07
-1.39456e-06
-5.0943e-07
-1.24951e-06
-6.83155e-07
-1.04552e-06
-9.02653e-07
-7.66635e-07
-1.15323e-06
-4.09498e-07
-1.39082e-06
-2.00733e-17
-1.54059e-06
4.09498e-07
-1.54059e-06
7.66635e-07
-1.39082e-06
1.04552e-06
-1.15323e-06
1.24951e-06
-9.02653e-07
1.39456e-06
-6.83155e-07
1.49751e-06
-5.0943e-07
1.57174e-06
-3.80021e-07
1.62681e-06
-2.87632e-07
1.70505e-06
-4.16077e-07
1.76236e-06
-3.13477e-07
1.84264e-06
-4.028e-07
2.00655e-06
-6.85131e-07
2.26576e-06
-9.43334e-07
2.40473e-06
-5.94602e-07
2.4538e-06
-2.76678e-07
2.48026e-06
-1.72856e-07
2.52134e-06
-2.31812e-07
2.62739e-06
-4.60628e-07
2.84851e-06
-7.53961e-07
2.89811e-06
-2.9464e-07
2.91939e-06
-1.66185e-07
2.96476e-06
-2.44958e-07
3.11308e-06
-5.07517e-07
3.15825e-06
-2.39651e-07
3.16835e-06
-1.26645e-07
3.20195e-06
-2.30195e-07
3.40303e-06
-6.46131e-07
3.39199e-06
-1.07548e-07
3.39302e-06
-8.55561e-08
3.41516e-06
-1.30955e-07
3.31146e-06
1.27349e-07
3.17304e-06
8.80408e-08
2.87471e-06
2.52039e-07
3.08499e-07
3.40077e-06
-2.89947e-07
7.39195e-07
-4.14444e-07
1.14754e-06
-2.0831e-07
1.82852e-06
-6.1374e-07
1.38583e-06
-1.22463e-07
3.05166e-06
2.85794e-06
1.53599e-07
2.70434e-06
5.07382e-07
2.69788e-06
2.72535e-07
1.62068e-06
3.86802e-07
1.71425e-06
2.77383e-07
1.25695e-06
-7.2333e-08
1.08891e-06
7.70371e-07
2.55806e-06
3.16176e-07
7.06234e-07
-2.96305e-07
7.00523e-07
-3.04859e-06
2.87963e-06
-3.37804e-06
1.98498e-07
-3.54205e-06
7.84572e-08
-3.68213e-06
3.25264e-08
-3.39958e-06
-9.28682e-07
-3.4077e-06
-2.22075e-07
-3.42569e-06
-1.08656e-07
-3.39672e-06
-2.68616e-07
-3.18621e-06
-7.18027e-07
-3.15746e-06
-2.7371e-07
-3.15649e-06
-1.67155e-07
-3.13664e-06
-3.14489e-07
-2.82248e-06
-1.06812e-06
-2.71445e-06
-5.68653e-07
-2.68726e-06
-2.59002e-07
-2.67512e-06
-1.84998e-07
-2.64342e-06
-3.08378e-07
-2.49576e-06
-7.42257e-07
-2.15396e-06
-1.28514e-06
-1.97367e-06
-8.65423e-07
-1.9058e-06
-4.7067e-07
-1.86269e-06
-3.56584e-07
-1.79931e-06
-4.79461e-07
-1.75416e-06
-3.32782e-07
-1.69212e-06
-4.42061e-07
-1.60254e-06
-5.99008e-07
-1.46796e-06
-8.17738e-07
-1.26197e-06
-1.10864e-06
-9.52462e-07
-1.46274e-06
-5.20258e-07
-1.82303e-06
-3.25324e-17
-2.06085e-06
5.20258e-07
-2.06085e-06
9.52462e-07
-1.82303e-06
1.26197e-06
-1.46274e-06
1.46796e-06
-1.10864e-06
1.60254e-06
-8.17738e-07
1.69212e-06
-5.99008e-07
1.75416e-06
-4.42061e-07
1.79931e-06
-3.32782e-07
1.86269e-06
-4.79461e-07
1.9058e-06
-3.56584e-07
1.97367e-06
-4.7067e-07
2.15396e-06
-8.65423e-07
2.49576e-06
-1.28514e-06
2.64342e-06
-7.42257e-07
2.67512e-06
-3.08378e-07
2.68726e-06
-1.84998e-07
2.71445e-06
-2.59002e-07
2.82248e-06
-5.68653e-07
3.13664e-06
-1.06812e-06
3.15649e-06
-3.14489e-07
3.15746e-06
-1.67155e-07
3.18621e-06
-2.7371e-07
3.39672e-06
-7.18027e-07
3.42569e-06
-2.68616e-07
3.4077e-06
-1.08656e-07
3.39958e-06
-2.22075e-07
3.68213e-06
-9.28682e-07
3.54205e-06
3.25264e-08
3.37804e-06
7.84572e-08
3.04859e-06
1.98498e-07
2.96305e-07
2.87963e-06
-3.16176e-07
7.00523e-07
-7.70371e-07
7.06234e-07
7.2333e-08
2.55806e-06
-2.77383e-07
1.08891e-06
-3.86802e-07
1.25695e-06
-2.72535e-07
1.71425e-06
-5.07382e-07
1.62068e-06
-1.53599e-07
2.69788e-06
2.70434e-06
1.67697e-07
2.53665e-06
4.27542e-07
2.43803e-06
3.10127e-07
1.73809e-06
3.69504e-07
1.65487e-06
2.84122e-07
1.34234e-06
9.6558e-08
1.27648e-06
6.23251e-07
2.03137e-06
3.46111e-07
9.83374e-07
6.92378e-08
9.77396e-07
8.35191e-07
2.11368e-06
4.31422e-07
6.02267e-07
-8.92123e-08
5.99091e-07
-1.92895e-06
1.87227e-06
-3.17073e-06
3.13094e-07
-3.48039e-06
8.75931e-08
-3.63975e-06
5.06939e-08
-3.69795e-06
-2.10411e-07
-3.38314e-06
-1.03283e-06
-3.40219e-06
-2.54668e-07
-3.43708e-06
-1.32265e-07
-3.4915e-06
-2.60061e-07
-3.00268e-06
-1.55695e-06
-2.90977e-06
-6.61564e-07
-2.90953e-06
-2.59235e-07
-2.9207e-06
-1.73829e-07
-2.92391e-06
-3.05166e-07
-2.77686e-06
-8.89308e-07
-2.29041e-06
-1.77159e-06
-2.09772e-06
-1.05812e-06
-2.05773e-06
-5.10658e-07
-2.03931e-06
-3.74998e-07
-2.00033e-06
-5.18448e-07
-1.97282e-06
-3.60291e-07
-1.93421e-06
-4.80669e-07
-1.87421e-06
-6.59003e-07
-1.77161e-06
-9.20341e-07
-1.58601e-06
-1.29424e-06
-1.2534e-06
-1.79536e-06
-7.09491e-07
-2.36693e-06
-7.1012e-18
-2.77034e-06
7.09491e-07
-2.77034e-06
1.2534e-06
-2.36693e-06
1.58601e-06
-1.79536e-06
1.77161e-06
-1.29424e-06
1.87421e-06
-9.20341e-07
1.93421e-06
-6.59003e-07
1.97282e-06
-4.80669e-07
2.00033e-06
-3.60291e-07
2.03931e-06
-5.18448e-07
2.05773e-06
-3.74998e-07
2.09772e-06
-5.10658e-07
2.29041e-06
-1.05812e-06
2.77686e-06
-1.77159e-06
2.92391e-06
-8.89308e-07
2.9207e-06
-3.05166e-07
2.90953e-06
-1.73829e-07
2.90977e-06
-2.59235e-07
3.00268e-06
-6.61564e-07
3.4915e-06
-1.55695e-06
3.43708e-06
-2.60061e-07
3.40219e-06
-1.32265e-07
3.38314e-06
-2.54668e-07
3.69795e-06
-1.03283e-06
3.63975e-06
-2.10411e-07
3.48039e-06
5.06939e-08
3.17073e-06
8.75931e-08
1.92895e-06
3.13094e-07
8.92123e-08
1.87227e-06
-4.31422e-07
5.99091e-07
-8.35191e-07
6.02267e-07
-6.92378e-08
2.11368e-06
-3.46111e-07
9.77396e-07
-6.23251e-07
9.83374e-07
-9.6558e-08
2.03137e-06
-2.84122e-07
1.27648e-06
-3.69504e-07
1.34234e-06
-3.10127e-07
1.65487e-06
-4.27542e-07
1.73809e-06
-1.67697e-07
2.43803e-06
2.53665e-06
1.6973e-07
2.36692e-06
3.68125e-07
2.23964e-06
3.28168e-07
1.77805e-06
3.60266e-07
1.62277e-06
3.02146e-07
1.40046e-06
2.14637e-07
1.36398e-06
5.32652e-07
1.71336e-06
3.78763e-07
1.13726e-06
2.39603e-07
1.11656e-06
6.98366e-07
1.65491e-06
4.72737e-07
8.27896e-07
2.8921e-07
7.82618e-07
7.73758e-07
1.38772e-06
5.69048e-07
5.17804e-07
3.50978e-07
3.05663e-07
-1.80913e-07
5.82585e-07
-1.9818e-06
1.59048e-06
-3.16114e-06
1.46502e-07
-3.4755e-06
5.96957e-08
-3.6474e-06
3.96279e-08
-3.93794e-06
3.04856e-08
-3.11382e-06
-2.38107e-06
-3.09339e-06
-6.81997e-07
-3.14351e-06
-2.09115e-07
-3.18965e-06
-1.27686e-07
-3.26003e-06
-2.34794e-07
-3.14424e-06
-1.00509e-06
-2.3863e-06
-2.52953e-06
-2.20132e-06
-1.2431e-06
-2.21749e-06
-4.94484e-07
-2.2378e-06
-3.5469e-07
-2.233e-06
-5.23244e-07
-2.23257e-06
-3.60722e-07
-2.23277e-06
-4.80471e-07
-2.22796e-06
-6.63815e-07
-2.19839e-06
-9.49913e-07
-2.08934e-06
-1.40328e-06
-1.77918e-06
-2.10552e-06
-1.06536e-06
-3.08076e-06
1.38619e-17
-3.8357e-06
1.06536e-06
-3.8357e-06
1.77918e-06
-3.08076e-06
2.08934e-06
-2.10552e-06
2.19839e-06
-1.40328e-06
2.22796e-06
-9.49913e-07
2.23277e-06
-6.63815e-07
2.23257e-06
-4.80471e-07
2.233e-06
-3.60722e-07
2.2378e-06
-5.23244e-07
2.21749e-06
-3.5469e-07
2.20132e-06
-4.94484e-07
2.3863e-06
-1.2431e-06
3.14424e-06
-2.52953e-06
3.26003e-06
-1.00509e-06
3.18965e-06
-2.34794e-07
3.14351e-06
-1.27686e-07
3.09339e-06
-2.09115e-07
3.11382e-06
-6.81997e-07
3.93794e-06
-2.38107e-06
3.6474e-06
3.04856e-08
3.4755e-06
3.96279e-08
3.16114e-06
5.96957e-08
1.9818e-06
1.46502e-07
1.80913e-07
1.59048e-06
-3.50978e-07
5.82585e-07
-5.69048e-07
3.05663e-07
-7.73758e-07
5.17804e-07
-2.8921e-07
1.38772e-06
-4.72737e-07
7.82618e-07
-6.98366e-07
8.27896e-07
-2.39603e-07
1.65491e-06
-3.78763e-07
1.11656e-06
-5.32652e-07
1.13726e-06
-2.14637e-07
1.71336e-06
-3.02146e-07
1.36398e-06
-3.60266e-07
1.40046e-06
-3.28168e-07
1.62277e-06
-3.68125e-07
1.77805e-06
-1.6973e-07
2.23964e-06
2.36692e-06
1.6411e-07
2.20281e-06
3.23787e-07
2.07996e-06
3.33038e-07
1.7688e-06
3.56627e-07
1.59918e-06
3.25082e-07
1.432e-06
2.95956e-07
1.39311e-06
4.84404e-07
1.52491e-06
4.11848e-07
1.20982e-06
3.56086e-07
1.17232e-06
6.22684e-07
1.38832e-06
5.10664e-07
9.39917e-07
4.22062e-07
8.7122e-07
6.97943e-07
1.11184e-06
5.87387e-07
6.2836e-07
4.32948e-07
4.60102e-07
3.74736e-07
6.40797e-07
8.62776e-07
1.10244e-06
6.78426e-07
3.30853e-07
5.78796e-07
1.59325e-07
4.6927e-07
1.49154e-07
9.19645e-08
4.07791e-07
-2.29442e-06
5.31877e-09
-3.01525e-06
3.88305e-08
-3.25375e-06
2.93835e-08
-3.4057e-06
2.42673e-08
-3.6456e-06
5.10643e-09
-3.66995e-06
-9.80742e-07
-2.36593e-06
-3.83355e-06
-2.26134e-06
-1.34769e-06
-2.3859e-06
-3.69919e-07
-2.46206e-06
-2.7853e-07
-2.49704e-06
-4.88272e-07
-2.53249e-06
-3.25267e-07
-2.58844e-06
-4.24524e-07
-2.67322e-06
-5.79032e-07
-2.78765e-06
-8.35485e-07
-2.8873e-06
-1.30363e-06
-2.78963e-06
-2.20318e-06
-1.82052e-06
-4.04987e-06
-5.75847e-17
-5.65622e-06
1.82052e-06
-5.65622e-06
2.78963e-06
-4.04987e-06
2.8873e-06
-2.20318e-06
2.78765e-06
-1.30363e-06
2.67322e-06
-8.35485e-07
2.58844e-06
-5.79032e-07
2.53249e-06
-4.24524e-07
2.49704e-06
-3.25267e-07
2.46206e-06
-4.88272e-07
2.3859e-06
-2.7853e-07
2.26134e-06
-3.69919e-07
2.36593e-06
-1.34769e-06
3.66995e-06
-3.83355e-06
3.6456e-06
-9.80742e-07
3.4057e-06
5.10643e-09
3.25375e-06
2.42673e-08
3.01525e-06
2.93835e-08
2.29442e-06
3.88305e-08
-9.19646e-08
5.31877e-09
-4.6927e-07
4.07791e-07
-5.78796e-07
1.49154e-07
-6.78426e-07
1.59325e-07
-8.62776e-07
3.30853e-07
-3.74736e-07
1.10244e-06
-4.32948e-07
6.40797e-07
-5.87387e-07
4.60102e-07
-6.97943e-07
6.2836e-07
-4.22062e-07
1.11184e-06
-5.10664e-07
8.7122e-07
-6.22684e-07
9.39917e-07
-3.56086e-07
1.38832e-06
-4.11848e-07
1.17232e-06
-4.84404e-07
1.20982e-06
-2.95956e-07
1.52491e-06
-3.25082e-07
1.39311e-06
-3.56627e-07
1.432e-06
-3.33038e-07
1.59918e-06
-3.23787e-07
1.7688e-06
-1.6411e-07
2.07996e-06
2.20281e-06
1.54391e-07
2.04842e-06
2.90274e-07
1.94408e-06
3.29929e-07
1.72914e-06
3.56307e-07
1.57281e-06
3.48451e-07
1.43986e-06
3.52085e-07
1.38948e-06
4.65625e-07
1.41137e-06
4.43908e-07
1.23154e-06
4.3559e-07
1.18064e-06
5.89505e-07
1.2344e-06
5.45789e-07
9.83633e-07
5.13085e-07
9.03924e-07
6.64739e-07
9.60182e-07
6.09187e-07
6.83912e-07
5.12535e-07
5.56754e-07
5.07251e-07
6.46081e-07
7.85475e-07
8.24215e-07
7.08359e-07
4.07969e-07
6.32718e-07
2.34966e-07
5.81844e-07
2.00029e-07
7.05679e-07
2.83955e-07
6.41132e-07
6.98659e-08
6.41231e-07
3.87314e-08
6.576e-07
1.30143e-08
6.80132e-07
1.73548e-09
6.12479e-07
7.27593e-08
1.84464e-07
-5.52727e-07
-7.60362e-07
-2.88872e-06
-2.11214e-06
4.08377e-09
-2.49016e-06
8.10462e-09
-2.67361e-06
-9.50835e-08
-2.75479e-06
-4.07086e-07
-2.83472e-06
-2.45339e-07
-2.95924e-06
-3.00005e-07
-3.16321e-06
-3.75065e-07
-3.51441e-06
-4.84281e-07
-4.08097e-06
-7.37073e-07
-4.97705e-06
-1.3071e-06
-3.67331e-06
-5.35361e-06
-7.63211e-17
-9.32953e-06
3.67331e-06
-9.32953e-06
4.97705e-06
-5.35361e-06
4.08097e-06
-1.3071e-06
3.51441e-06
-7.37073e-07
3.16321e-06
-4.84281e-07
2.95924e-06
-3.75065e-07
2.83472e-06
-3.00005e-07
2.75479e-06
-2.45339e-07
2.67361e-06
-4.07086e-07
2.49016e-06
-9.50835e-08
2.11214e-06
8.10462e-09
7.60362e-07
4.08377e-09
-1.84464e-07
-2.88872e-06
-6.12479e-07
-5.52727e-07
-6.80132e-07
7.27593e-08
-6.576e-07
1.73548e-09
-6.41231e-07
1.30143e-08
-6.41132e-07
3.87314e-08
-7.05679e-07
6.98659e-08
-5.81844e-07
2.83955e-07
-6.32718e-07
2.00029e-07
-7.08359e-07
2.34966e-07
-7.85475e-07
4.07969e-07
-5.07251e-07
8.24215e-07
-5.12535e-07
6.46081e-07
-6.09187e-07
5.56754e-07
-6.64739e-07
6.83912e-07
-5.13085e-07
9.60182e-07
-5.45789e-07
9.03924e-07
-5.89505e-07
9.83633e-07
-4.3559e-07
1.2344e-06
-4.43908e-07
1.18064e-06
-4.65625e-07
1.23154e-06
-3.52085e-07
1.41137e-06
-3.48451e-07
1.38948e-06
-3.56307e-07
1.43986e-06
-3.29929e-07
1.57281e-06
-2.90274e-07
1.72914e-06
-1.54391e-07
1.94408e-06
2.04842e-06
1.43174e-07
1.90524e-06
2.6448e-07
1.82277e-06
3.22669e-07
1.67095e-06
3.57466e-07
1.53801e-06
3.69556e-07
1.42777e-06
3.91666e-07
1.36737e-06
4.65612e-07
1.33742e-06
4.74125e-07
1.22302e-06
4.91249e-07
1.16351e-06
5.83698e-07
1.14195e-06
5.78646e-07
9.88684e-07
5.76873e-07
9.05698e-07
6.59821e-07
8.77234e-07
6.36283e-07
7.0745e-07
5.84562e-07
6.08475e-07
6.01037e-07
6.29606e-07
7.57145e-07
6.68107e-07
7.33561e-07
4.31552e-07
6.8522e-07
2.83308e-07
6.59227e-07
2.26021e-07
7.20318e-07
2.22864e-07
6.95402e-07
9.47823e-08
6.96869e-07
3.7264e-08
7.18444e-07
-8.56053e-09
7.77143e-07
-5.6963e-08
9.92925e-07
-1.43023e-07
1.09549e-06
-6.55291e-07
-1.08152e-07
-1.68508e-06
2.93619e-07
-3.97687e-07
4.59079e-07
-1.57355e-07
3.74975e-07
-1.09797e-08
2.90587e-07
-3.22698e-07
2.78665e-07
-2.33416e-07
2.85092e-07
-3.06432e-07
3.25005e-07
-4.14978e-07
5.25321e-07
-6.84598e-07
7.48515e-07
-9.60266e-07
1.02689e-06
-1.58548e-06
-3.66769e-07
-3.95995e-06
7.32135e-17
-9.6963e-06
3.66769e-07
-9.6963e-06
-1.02689e-06
-3.95995e-06
-7.48515e-07
-1.58548e-06
-5.25321e-07
-9.60266e-07
-3.25005e-07
-6.84598e-07
-2.85092e-07
-4.14978e-07
-2.78665e-07
-3.06432e-07
-2.90587e-07
-2.33416e-07
-3.74975e-07
-3.22698e-07
-4.59079e-07
-1.09797e-08
-2.93619e-07
-1.57355e-07
1.08152e-07
-3.97687e-07
-1.09549e-06
-1.68508e-06
-9.92925e-07
-6.55291e-07
-7.77143e-07
-1.43023e-07
-7.18444e-07
-5.6963e-08
-6.96869e-07
-8.56053e-09
-6.95402e-07
3.7264e-08
-7.20318e-07
9.47823e-08
-6.59227e-07
2.22864e-07
-6.8522e-07
2.26021e-07
-7.33561e-07
2.83308e-07
-7.57145e-07
4.31552e-07
-6.01037e-07
6.68107e-07
-5.84562e-07
6.29606e-07
-6.36283e-07
6.08475e-07
-6.59821e-07
7.0745e-07
-5.76873e-07
8.77234e-07
-5.78646e-07
9.05698e-07
-5.83698e-07
9.88684e-07
-4.91249e-07
1.14195e-06
-4.74125e-07
1.16351e-06
-4.65612e-07
1.22302e-06
-3.91666e-07
1.33742e-06
-3.69556e-07
1.36737e-06
-3.57466e-07
1.42777e-06
-3.22669e-07
1.53801e-06
-2.6448e-07
1.67095e-06
-1.43174e-07
1.82277e-06
1.90524e-06
1.32157e-07
1.77308e-06
2.44287e-07
1.71064e-06
3.13805e-07
1.60143e-06
3.58818e-07
1.493e-06
3.87117e-07
1.39947e-06
4.20554e-07
1.33393e-06
4.76182e-07
1.28179e-06
5.02079e-07
1.19713e-06
5.3231e-07
1.13328e-06
5.93975e-07
1.08029e-06
6.09637e-07
9.73022e-07
6.24141e-07
8.91194e-07
6.72486e-07
8.28888e-07
6.68032e-07
7.11905e-07
6.47538e-07
6.28969e-07
6.70848e-07
6.06296e-07
7.59089e-07
5.79866e-07
7.59865e-07
4.30777e-07
7.34283e-07
3.08889e-07
7.22105e-07
2.38199e-07
7.51422e-07
1.93547e-07
7.45382e-07
1.00823e-07
7.50519e-07
3.21267e-08
7.73405e-07
-3.14466e-08
8.26426e-07
-1.09984e-07
9.34519e-07
-2.51115e-07
8.90884e-07
-6.11657e-07
2.69768e-07
-1.06397e-06
3.94554e-07
-5.22473e-07
5.47689e-07
-3.10491e-07
7.95419e-07
-2.5871e-07
9.61337e-07
-4.88616e-07
1.05992e-06
-3.32e-07
1.18258e-06
-4.29094e-07
1.33704e-06
-5.6943e-07
1.43411e-06
-7.81669e-07
1.55794e-06
-1.0841e-06
1.06838e-06
-1.09591e-06
1.32125e-07
-3.02369e-06
1.15813e-16
-9.56418e-06
-1.32125e-07
-9.56418e-06
-1.06838e-06
-3.02369e-06
-1.55794e-06
-1.09591e-06
-1.43411e-06
-1.0841e-06
-1.33704e-06
-7.81669e-07
-1.18258e-06
-5.6943e-07
-1.05992e-06
-4.29094e-07
-9.61337e-07
-3.32e-07
-7.95419e-07
-4.88616e-07
-5.47689e-07
-2.5871e-07
-3.94554e-07
-3.10491e-07
-2.69768e-07
-5.22473e-07
-8.90884e-07
-1.06397e-06
-9.34519e-07
-6.11657e-07
-8.26426e-07
-2.51115e-07
-7.73405e-07
-1.09984e-07
-7.50519e-07
-3.14466e-08
-7.45382e-07
3.21267e-08
-7.51422e-07
1.00823e-07
-7.22105e-07
1.93547e-07
-7.34283e-07
2.38199e-07
-7.59865e-07
3.08889e-07
-7.59089e-07
4.30777e-07
-6.70848e-07
5.79866e-07
-6.47538e-07
6.06296e-07
-6.68032e-07
6.28969e-07
-6.72486e-07
7.11905e-07
-6.24141e-07
8.28888e-07
-6.09637e-07
8.91194e-07
-5.93975e-07
9.73022e-07
-5.3231e-07
1.08029e-06
-5.02079e-07
1.13328e-06
-4.76182e-07
1.19713e-06
-4.20554e-07
1.28179e-06
-3.87117e-07
1.33393e-06
-3.58818e-07
1.39947e-06
-3.13805e-07
1.493e-06
-2.44287e-07
1.60143e-06
-1.32157e-07
1.71064e-06
1.77308e-06
1.22289e-07
1.65079e-06
2.28305e-07
1.60462e-06
3.04833e-07
1.52491e-06
3.59615e-07
1.43822e-06
4.00814e-07
1.35827e-06
4.42352e-07
1.29239e-06
4.9156e-07
1.23259e-06
5.2752e-07
1.16117e-06
5.64617e-07
1.09618e-06
6.12556e-07
1.03235e-06
6.38967e-07
9.4661e-07
6.6196e-07
8.68202e-07
6.95142e-07
7.95706e-07
7.02614e-07
7.04433e-07
7.02006e-07
6.29577e-07
7.2621e-07
5.82092e-07
7.78478e-07
5.27598e-07
7.89201e-07
4.20054e-07
7.79724e-07
3.18366e-07
7.75816e-07
2.42107e-07
7.90526e-07
1.78837e-07
7.92621e-07
9.87279e-08
8.00115e-07
2.46328e-08
8.19786e-07
-5.11176e-08
8.55223e-07
-1.45422e-07
8.94149e-07
-2.90041e-07
8.12983e-07
-5.3049e-07
4.92418e-07
-7.43402e-07
5.09693e-07
-5.39748e-07
6.19512e-07
-4.2031e-07
7.88994e-07
-4.28192e-07
9.24572e-07
-6.24193e-07
9.84149e-07
-3.91578e-07
1.03924e-06
-4.84183e-07
1.07653e-06
-6.06724e-07
1.06306e-06
-7.68196e-07
9.53557e-07
-9.74604e-07
4.82245e-07
-6.24602e-07
1.80863e-07
-2.72231e-06
1.29542e-16
-9.38331e-06
-1.80863e-07
-9.38331e-06
-4.82245e-07
-2.72231e-06
-9.53557e-07
-6.24602e-07
-1.06306e-06
-9.74604e-07
-1.07653e-06
-7.68196e-07
-1.03924e-06
-6.06724e-07
-9.84149e-07
-4.84183e-07
-9.24572e-07
-3.91578e-07
-7.88994e-07
-6.24193e-07
-6.19512e-07
-4.28192e-07
-5.09693e-07
-4.2031e-07
-4.92418e-07
-5.39748e-07
-8.12983e-07
-7.43402e-07
-8.94149e-07
-5.3049e-07
-8.55223e-07
-2.90041e-07
-8.19786e-07
-1.45422e-07
-8.00115e-07
-5.11176e-08
-7.92621e-07
2.46328e-08
-7.90526e-07
9.87279e-08
-7.75816e-07
1.78837e-07
-7.79724e-07
2.42107e-07
-7.89201e-07
3.18366e-07
-7.78478e-07
4.20054e-07
-7.2621e-07
5.27598e-07
-7.02006e-07
5.82092e-07
-7.02614e-07
6.29577e-07
-6.95142e-07
7.04433e-07
-6.6196e-07
7.95706e-07
-6.38967e-07
8.68202e-07
-6.12556e-07
9.4661e-07
-5.64617e-07
1.03235e-06
-5.2752e-07
1.09618e-06
-4.9156e-07
1.16117e-06
-4.42352e-07
1.23259e-06
-4.00814e-07
1.29239e-06
-3.59615e-07
1.35827e-06
-3.04833e-07
1.43822e-06
-2.28305e-07
1.52491e-06
-1.22289e-07
1.60462e-06
1.65079e-06
1.1397e-07
1.53682e-06
2.15605e-07
1.50299e-06
2.96497e-07
1.44401e-06
3.59527e-07
1.37519e-06
4.1086e-07
1.30693e-06
4.5907e-07
1.24418e-06
5.07972e-07
1.18368e-06
5.50225e-07
1.11891e-06
5.91413e-07
1.055e-06
6.34432e-07
9.89328e-07
6.666e-07
9.14442e-07
6.94401e-07
8.40401e-07
7.22597e-07
7.67509e-07
7.3796e-07
6.8907e-07
7.49245e-07
6.18291e-07
7.72732e-07
5.58606e-07
8.06897e-07
4.93433e-07
8.21216e-07
4.05735e-07
8.21924e-07
3.17658e-07
8.23309e-07
2.40722e-07
8.32091e-07
1.70056e-07
8.37014e-07
9.38041e-08
8.44511e-07
1.71359e-08
8.57986e-07
-6.45921e-08
8.74886e-07
-1.62322e-07
8.75739e-07
-2.90895e-07
7.98737e-07
-4.53488e-07
6.29016e-07
-5.73681e-07
6.11194e-07
-5.21925e-07
6.76055e-07
-4.85172e-07
7.79809e-07
-5.31946e-07
8.58808e-07
-7.03192e-07
8.74745e-07
-4.07515e-07
8.68996e-07
-4.78433e-07
8.23847e-07
-5.61575e-07
7.08773e-07
-6.53122e-07
4.74642e-07
-7.40473e-07
3.26255e-07
-4.76215e-07
1.69182e-07
-2.56524e-06
1.43989e-16
-9.21413e-06
-1.69182e-07
-9.21413e-06
-3.26255e-07
-2.56524e-06
-4.74642e-07
-4.76215e-07
-7.08773e-07
-7.40473e-07
-8.23847e-07
-6.53122e-07
-8.68996e-07
-5.61575e-07
-8.74745e-07
-4.78433e-07
-8.58808e-07
-4.07515e-07
-7.79809e-07
-7.03192e-07
-6.76055e-07
-5.31946e-07
-6.11194e-07
-4.85172e-07
-6.29016e-07
-5.21925e-07
-7.98737e-07
-5.73681e-07
-8.75739e-07
-4.53488e-07
-8.74886e-07
-2.90895e-07
-8.57986e-07
-1.62322e-07
-8.44511e-07
-6.45921e-08
-8.37014e-07
1.71359e-08
-8.32091e-07
9.38041e-08
-8.23309e-07
1.70056e-07
-8.21924e-07
2.40722e-07
-8.21216e-07
3.17658e-07
-8.06897e-07
4.05735e-07
-7.72732e-07
4.93433e-07
-7.49245e-07
5.58606e-07
-7.3796e-07
6.18291e-07
-7.22597e-07
6.8907e-07
-6.94401e-07
7.67509e-07
-6.666e-07
8.40401e-07
-6.34432e-07
9.14442e-07
-5.91413e-07
9.89328e-07
-5.50225e-07
1.055e-06
-5.07972e-07
1.11891e-06
-4.5907e-07
1.18368e-06
-4.1086e-07
1.24418e-06
-3.59527e-07
1.30693e-06
-2.96497e-07
1.37519e-06
-2.15605e-07
1.44401e-06
-1.1397e-07
1.50299e-06
1.53682e-06
1.07233e-07
1.42959e-06
2.05503e-07
1.40472e-06
2.89052e-07
1.36046e-06
3.58487e-07
1.30575e-06
4.17679e-07
1.24774e-06
4.71743e-07
1.19012e-06
5.23135e-07
1.13229e-06
5.69926e-07
1.07212e-06
6.14182e-07
1.01074e-06
6.56525e-07
9.46986e-07
6.92253e-07
8.78714e-07
7.23348e-07
8.09306e-07
7.51361e-07
7.39496e-07
7.72235e-07
6.68197e-07
7.9044e-07
6.00086e-07
8.13318e-07
5.35727e-07
8.3896e-07
4.6779e-07
8.54466e-07
3.9023e-07
8.61095e-07
3.11029e-07
8.65908e-07
2.35909e-07
8.72605e-07
1.63359e-07
8.77787e-07
8.86221e-08
8.83352e-07
1.15708e-08
8.89726e-07
-7.09661e-08
8.92061e-07
-1.64657e-07
8.75127e-07
-2.73961e-07
8.12941e-07
-3.91302e-07
7.17107e-07
-4.77848e-07
6.89678e-07
-4.94496e-07
7.16945e-07
-5.12439e-07
7.65363e-07
-5.80364e-07
7.86528e-07
-7.24357e-07
7.70857e-07
-3.91843e-07
7.32047e-07
-4.39624e-07
6.60175e-07
-4.89703e-07
5.44369e-07
-5.37315e-07
3.78179e-07
-5.74284e-07
3.03925e-07
-4.01961e-07
1.74054e-07
-2.43537e-06
1.57728e-16
-9.04008e-06
-1.74054e-07
-9.04008e-06
-3.03925e-07
-2.43537e-06
-3.78179e-07
-4.01961e-07
-5.44369e-07
-5.74284e-07
-6.60175e-07
-5.37315e-07
-7.32047e-07
-4.89703e-07
-7.70857e-07
-4.39624e-07
-7.86528e-07
-3.91843e-07
-7.65363e-07
-7.24357e-07
-7.16945e-07
-5.80364e-07
-6.89678e-07
-5.12439e-07
-7.17107e-07
-4.94496e-07
-8.12941e-07
-4.77848e-07
-8.75127e-07
-3.91302e-07
-8.92061e-07
-2.73961e-07
-8.89726e-07
-1.64657e-07
-8.83352e-07
-7.09661e-08
-8.77787e-07
1.15708e-08
-8.72605e-07
8.86221e-08
-8.65908e-07
1.63359e-07
-8.61095e-07
2.35909e-07
-8.54466e-07
3.11029e-07
-8.3896e-07
3.9023e-07
-8.13318e-07
4.6779e-07
-7.9044e-07
5.35727e-07
-7.72235e-07