/*--------------------------------*- C++ -*----------------------------------*\
  =========                 |
  \\      /  F ield         | OpenFOAM: The Open Source CFD Toolbox
   \\    /   O peration     | Website:  https://openfoam.org
    \\  /    A nd           | Version:  10
     \\/     M anipulation  |
\*---------------------------------------------------------------------------*/
FoamFile
{
    format      ascii;
    class       surfaceScalarField;
    location    "1.67";
    object      phi;
}
// * * * * * * * * * * * * * * * * * * * * * * * * * * * * * * * * * * * * * //

dimensions      [0 3 -1 0 0 0 0];

internalField   nonuniform List<scalar> 
24170
(
1.44755e-09
-1.44755e-09
2.6873e-09
-1.23975e-09
3.66971e-09
-9.82415e-10
4.41374e-09
-7.44029e-10
4.96801e-09
-5.5427e-10
5.38503e-09
-4.1702e-10
5.71008e-09
-3.25054e-10
5.97889e-09
-2.68807e-10
6.21908e-09
-2.40185e-10
6.45286e-09
-2.33788e-10
6.70011e-09
-2.47242e-10
6.98173e-09
-2.81622e-10
7.32462e-09
-3.42888e-10
7.7707e-09
-4.46081e-10
8.39865e-09
-6.27948e-10
9.39059e-09
-9.91941e-10
1.13103e-08
-1.91972e-09
-5.46666e-09
1.6777e-08
1.6451e-09
-3.09265e-09
3.04795e-09
-2.6426e-09
4.15271e-09
-2.08718e-09
4.98341e-09
-1.57473e-09
5.59759e-09
-1.16844e-09
6.05624e-09
-8.7567e-10
6.41136e-09
-6.8018e-10
6.70358e-09
-5.6103e-10
6.96404e-09
-5.00635e-10
7.21752e-09
-4.87276e-10
7.48595e-09
-5.15665e-10
7.79204e-09
-5.87718e-10
8.16441e-09
-7.15258e-10
8.64621e-09
-9.27877e-10
9.31357e-09
-1.29531e-09
1.03193e-08
-1.99767e-09
1.19754e-08
-3.57583e-09
-7.85155e-09
1.43603e-08
1.84167e-09
-4.93432e-09
3.40298e-09
-4.2039e-09
4.62253e-09
-3.30673e-09
5.5315e-09
-2.4837e-09
6.19777e-09
-1.83471e-09
6.69141e-09
-1.36931e-09
7.07109e-09
-1.05987e-09
7.38201e-09
-8.71946e-10
7.65834e-09
-7.76967e-10
7.92693e-09
-7.55864e-10
8.21099e-09
-7.99728e-10
8.53391e-09
-9.10634e-10
8.92375e-09
-1.1051e-09
9.41979e-09
-1.42392e-09
1.00825e-08
-1.95797e-09
1.10007e-08
-2.91587e-09
1.22204e-08
-4.79557e-09
-8.67108e-09
1.30399e-08
2.06019e-09
-6.99451e-09
3.79239e-09
-5.93611e-09
5.13017e-09
-4.64451e-09
6.11553e-09
-3.46905e-09
6.82983e-09
-2.54902e-09
7.35397e-09
-1.89345e-09
7.75398e-09
-1.45988e-09
8.07972e-09
-1.19768e-09
8.36821e-09
-1.06545e-09
8.64788e-09
-1.03554e-09
8.9426e-09
-1.09444e-09
9.27519e-09
-1.24322e-09
9.67095e-09
-1.50086e-09
1.01608e-08
-1.91378e-09
1.0781e-08
-2.57817e-09
1.15511e-08
-3.68594e-09
1.23479e-08
-5.59243e-09
-8.74812e-09
1.2425e-08
2.31435e-09
-9.30886e-09
4.23806e-09
-7.85982e-09
5.70071e-09
-6.10716e-09
6.76088e-09
-4.52923e-09
7.51824e-09
-3.30638e-09
8.0671e-09
-2.44231e-09
8.48192e-09
-1.8747e-09
8.81743e-09
-1.53319e-09
9.11325e-09
-1.36127e-09
9.39892e-09
-1.32121e-09
9.69812e-09
-1.39364e-09
1.00319e-08
-1.57701e-09
1.04207e-08
-1.88969e-09
1.0884e-08
-2.37709e-09
1.14316e-08
-3.12569e-09
1.20276e-08
-4.28202e-09
1.24804e-08
-6.0452e-09
-8.49252e-09
1.22248e-08
2.61934e-09
-1.19282e-08
4.76257e-09
-1.0003e-08
6.3578e-09
-7.70239e-09
7.48932e-09
-5.66075e-09
8.28198e-09
-4.09904e-09
8.84712e-09
-3.00744e-09
9.26895e-09
-2.29653e-09
9.60726e-09
-1.8715e-09
9.9039e-09
-1.65791e-09
1.01889e-08
-1.6062e-09
1.04849e-08
-1.68962e-09
1.08099e-08
-1.90202e-09
1.1178e-08
-2.25785e-09
1.15961e-08
-2.79512e-09
1.20504e-08
-3.58002e-09
1.24724e-08
-4.70403e-09
1.26692e-08
-6.24195e-09
-8.09846e-09
1.22751e-08
2.99557e-09
-1.49238e-08
5.39462e-09
-1.24021e-08
7.12961e-09
-9.43738e-09
8.3249e-09
-6.85604e-09
9.14051e-09
-4.91465e-09
9.70948e-09
-3.57641e-09
1.01273e-08
-2.71436e-09
1.04589e-08
-2.20306e-09
1.07477e-08
-1.94675e-09
1.10235e-08
-1.88199e-09
1.13069e-08
-1.97304e-09
1.1612e-08
-2.20711e-09
1.19457e-08
-2.59155e-09
1.23029e-08
-3.15235e-09
1.26535e-08
-3.93056e-09
1.29168e-08
-4.96733e-09
1.29324e-08
-6.25761e-09
-7.6538e-09
1.24878e-08
3.47283e-09
-1.83966e-08
6.17383e-09
-1.51031e-08
8.05265e-09
-1.13162e-08
9.29691e-09
-8.1003e-09
1.01161e-08
-5.73382e-09
1.06708e-08
-4.13111e-09
1.10693e-08
-3.11289e-09
1.13813e-08
-2.51507e-09
1.16512e-08
-2.21661e-09
1.19072e-08
-2.13805e-09
1.21672e-08
-2.23302e-09
1.24404e-08
-2.48032e-09
1.27268e-08
-2.87791e-09
1.30118e-08
-3.43734e-09
1.32563e-08
-4.17508e-09
1.33831e-08
-5.09415e-09
1.32739e-08
-6.14843e-09
-7.19615e-09
1.28163e-08
4.09682e-09
-2.24934e-08
7.15722e-09
-1.81635e-08
9.17608e-09
-1.33351e-08
1.04423e-08
-9.36655e-09
1.12351e-08
-6.52656e-09
1.17496e-08
-4.64559e-09
1.21079e-08
-3.47124e-09
1.23836e-08
-2.79077e-09
1.26204e-08
-2.45342e-09
1.28441e-08
-2.3617e-09
1.30684e-08
-2.45734e-09
1.32976e-08
-2.70953e-09
1.35254e-08
-3.10568e-09
1.37309e-08
-3.6429e-09
1.38732e-08
-4.31731e-09
1.38867e-08
-5.10766e-09
1.36918e-08
-5.9536e-09
-6.74016e-09
1.32358e-08
4.94089e-09
-2.74343e-08
8.42944e-09
-2.1652e-08
1.05674e-08
-1.5473e-08
1.18083e-08
-1.06074e-08
1.25289e-08
-7.24722e-09
1.29666e-08
-5.08327e-09
1.32569e-08
-3.76153e-09
1.34748e-08
-3.00869e-09
1.36613e-08
-2.63994e-09
1.38378e-08
-2.53822e-09
1.40133e-08
-2.6328e-09
1.41867e-08
-2.88291e-09
1.43466e-08
-3.26563e-09
1.44693e-08
-3.76561e-09
1.45165e-08
-4.36444e-09
1.44375e-08
-5.02866e-09
1.41829e-08
-5.69906e-09
-6.29025e-09
1.3733e-08
6.12839e-09
-3.35627e-08
1.01194e-08
-2.5643e-08
1.23197e-08
-1.76733e-08
1.34542e-08
-1.17419e-08
1.40342e-08
-7.82722e-09
1.43443e-08
-5.39339e-09
1.453e-08
-3.94727e-09
1.46635e-08
-3.14211e-09
1.47792e-08
-2.75566e-09
1.4892e-08
-2.65106e-09
1.50048e-08
-2.74561e-09
1.51114e-08
-2.98942e-09
1.51965e-08
-3.35075e-09
1.52358e-08
-3.80495e-09
1.51965e-08
-4.32509e-09
1.5042e-08
-4.87419e-09
1.47443e-08
-5.40134e-09
-5.84641e-09
1.43004e-08
6.53678e-09
-4.00995e-08
1.03447e-08
-2.94509e-08
1.21536e-08
-1.94823e-08
1.29244e-08
-1.25127e-08
1.32269e-08
-8.12967e-09
1.33364e-08
-5.50297e-09
1.3376e-08
-3.98688e-09
1.33979e-08
-3.16396e-09
1.34222e-08
-2.77996e-09
1.34539e-08
-2.68277e-09
1.34896e-08
-2.78128e-09
1.35197e-08
-3.01957e-09
1.35294e-08
-3.36046e-09
1.34988e-08
-3.77431e-09
1.34047e-08
-4.23099e-09
1.32253e-08
-4.69477e-09
1.29474e-08
-5.12348e-09
-5.47373e-09
1.25747e-08
9.71319e-09
-4.98127e-08
1.45407e-08
-3.42785e-08
1.63563e-08
-2.12978e-08
1.68615e-08
-1.30179e-08
1.68885e-08
-8.15664e-09
1.67756e-08
-5.3901e-09
1.66472e-08
-3.85842e-09
1.65426e-08
-3.05941e-09
1.64689e-08
-2.70622e-09
1.642e-08
-2.63386e-09
1.63839e-08
-2.74523e-09
1.63449e-08
-2.9805e-09
1.62836e-08
-3.29925e-09
1.61789e-08
-3.66953e-09
1.60091e-08
-4.0612e-09
1.57571e-08
-4.44283e-09
1.54158e-08
-4.78215e-09
-5.05009e-09
1.49922e-08
1.56794e-08
-6.54921e-08
2.14581e-08
-4.00571e-08
2.26391e-08
-2.24789e-08
2.23567e-08
-1.27355e-08
2.17652e-08
-7.56507e-09
2.12117e-08
-4.83662e-09
2.07729e-08
-3.41963e-09
2.04444e-08
-2.73095e-09
2.02017e-08
-2.46345e-09
2.00171e-08
-2.44929e-09
1.98643e-08
-2.59241e-09
1.9718e-08
-2.83419e-09
1.95538e-08
-3.13512e-09
1.93491e-08
-3.46477e-09
1.90844e-08
-3.7965e-09
1.8747e-08
-4.10547e-09
1.83342e-08
-4.3693e-09
-4.57031e-09
1.78544e-08
2.86777e-08
-9.41698e-08
3.37225e-08
-4.51019e-08
3.23291e-08
-2.10854e-08
3.01023e-08
-1.05087e-08
2.82585e-08
-5.72134e-09
2.69071e-08
-3.48525e-09
2.5943e-08
-2.45551e-09
2.52512e-08
-2.03915e-09
2.47421e-08
-1.95428e-09
2.43493e-08
-2.05648e-09
2.4023e-08
-2.26611e-09
2.37241e-08
-2.53533e-09
2.34212e-08
-2.83223e-09
2.30893e-08
-3.13285e-09
2.27103e-08
-3.41754e-09
2.22745e-08
-3.66968e-09
2.17813e-08
-3.87603e-09
-4.02768e-09
2.12386e-08
6.32681e-08
-1.57438e-07
5.67591e-08
-3.85929e-08
4.71999e-08
-1.15262e-08
4.07293e-08
-4.03811e-09
3.66443e-08
-1.6364e-09
3.40192e-08
-8.60111e-10
3.22705e-08
-7.0686e-10
3.10573e-08
-8.25901e-10
3.01757e-08
-1.07268e-09
2.9498e-08
-1.37884e-09
2.894e-08
-1.70806e-09
2.84432e-08
-2.03854e-09
2.79664e-08
-2.3554e-09
2.74808e-08
-2.64726e-09
2.69682e-08
-2.90494e-09
2.64198e-08
-3.12126e-09
2.58351e-08
-3.29136e-09
-3.41305e-09
2.52205e-08
1.83194e-07
1.59034e-07
9.70544e-08
4.75465e-08
6.68275e-08
1.87007e-08
5.34821e-08
9.30728e-09
4.6481e-08
5.36473e-09
4.23454e-08
3.27543e-09
3.96894e-08
1.94921e-09
3.78677e-08
9.95784e-10
3.65422e-08
2.52823e-10
3.55145e-08
-3.51201e-10
3.46649e-08
-8.58386e-10
3.39183e-08
-1.292e-09
3.32255e-08
-1.66255e-09
3.25541e-08
-1.97593e-09
3.18848e-08
-2.23565e-09
3.12078e-08
-2.44424e-09
3.05207e-08
-2.60425e-09
-2.71878e-09
2.98264e-08
7.72501e-08
8.17843e-08
7.5473e-08
4.93236e-08
6.54539e-08
2.87197e-08
5.74697e-08
1.72915e-08
5.19858e-08
1.08486e-08
4.82587e-08
7.00256e-09
4.56591e-08
4.54881e-09
4.37733e-08
2.88154e-09
4.23405e-08
1.68567e-09
4.11991e-08
7.90124e-10
4.02434e-08
9.73752e-11
3.93927e-08
-4.41372e-10
3.86018e-08
-8.71583e-10
3.78429e-08
-1.21703e-09
3.70996e-08
-1.49233e-09
3.63634e-08
-1.70808e-09
3.56317e-08
-1.87251e-09
-1.99255e-09
3.49054e-08
3.59553e-08
4.5829e-08
5.01379e-08
3.5141e-08
5.38268e-08
2.50309e-08
5.36582e-08
1.74601e-08
5.23479e-08
1.21589e-08
5.08642e-08
8.48629e-09
4.95023e-08
5.91069e-09
4.83178e-08
4.06606e-09
4.72895e-08
2.71397e-09
4.63786e-08
1.70104e-09
4.55479e-08
9.28006e-10
4.47768e-08
3.29779e-10
4.40406e-08
-1.35344e-10
4.33196e-08
-4.96096e-10
4.26062e-08
-7.78915e-10
4.18969e-08
-9.98802e-10
4.11916e-08
-1.16717e-09
-1.29301e-09
4.0492e-08
1.43104e-08
3.15186e-08
2.32882e-08
2.61632e-08
2.80874e-08
2.02317e-08
3.04301e-08
1.51174e-08
3.14721e-08
1.1117e-08
3.18527e-08
8.10572e-09
3.18995e-08
5.86381e-09
3.17749e-08
4.19071e-09
3.15576e-08
2.93132e-09
3.12855e-08
1.97307e-09
3.09773e-08
1.23625e-09
3.06424e-08
6.64677e-10
3.02884e-08
2.18615e-10
2.99208e-08
-1.28461e-10
2.95392e-08
-3.97367e-10
2.91473e-08
-6.06854e-10
2.87485e-08
-7.68334e-10
-8.90726e-10
2.83462e-08
8.56509e-09
2.29535e-08
1.49482e-08
1.978e-08
1.91806e-08
1.59993e-08
2.18332e-08
1.24648e-08
2.345e-08
9.50011e-09
2.44161e-08
7.13967e-09
2.49752e-08
5.3047e-09
2.52754e-08
3.89057e-09
2.54054e-08
2.80132e-09
2.54191e-08
1.9593e-09
2.53503e-08
1.30509e-09
2.52207e-08
7.9427e-10
2.50453e-08
3.93969e-10
2.48371e-08
7.97947e-11
2.46037e-08
-1.63995e-10
2.43505e-08
-3.53674e-10
2.4083e-08
-5.0085e-10
-6.13585e-10
2.38059e-08
5.77515e-09
1.71784e-08
1.04509e-08
1.51043e-08
1.39053e-08
1.25449e-08
1.63352e-08
1.00349e-08
1.80024e-08
7.83294e-09
1.91301e-08
6.01194e-09
1.98825e-08
4.55234e-09
2.03727e-08
3.40039e-09
2.0677e-08
2.49695e-09
2.08471e-08
1.78925e-09
2.09181e-08
1.23408e-09
2.09148e-08
7.97613e-10
2.08549e-08
4.53827e-10
2.07518e-08
1.82876e-10
2.06178e-08
-2.99323e-11
2.04588e-08
-1.9467e-10
2.02811e-08
-3.23212e-10
-4.22473e-10
2.009e-08
4.19969e-09
1.29787e-08
7.75605e-09
1.15479e-08
1.05505e-08
9.75039e-09
1.26503e-08
7.93514e-09
1.41879e-08
6.29536e-09
1.5296e-08
4.90377e-09
1.60843e-08
3.76409e-09
1.66357e-08
2.84893e-09
1.70113e-08
2.12141e-09
1.7255e-08
1.54553e-09
1.73989e-08
1.09018e-09
1.74665e-08
7.3001e-10
1.74754e-08
4.44967e-10
1.74388e-08
2.19414e-10
1.73677e-08
4.12182e-11
1.72706e-08
-9.75879e-11
1.71533e-08
-2.05907e-10
-2.90078e-10
1.70209e-08
3.21001e-09
9.76865e-09
6.00105e-09
8.75686e-09
8.27826e-09
7.47319e-09
1.00608e-08
6.15263e-09
1.14198e-08
4.93637e-09
1.24377e-08
3.88579e-09
1.31895e-08
3.01229e-09
1.37364e-08
2.30208e-09
1.4126e-08
1.7318e-09
1.43948e-08
1.27678e-09
1.45702e-08
9.14731e-10
1.46733e-08
6.26923e-10
1.472e-08
3.98207e-10
1.47229e-08
2.16569e-10
1.46916e-08
7.25581e-11
1.46346e-08
-4.05942e-11
1.45574e-08
-1.28716e-10
-1.97532e-10
1.44648e-08
2.53756e-09
7.2311e-09
4.78045e-09
6.51397e-09
6.65475e-09
5.59889e-09
8.16119e-09
4.64619e-09
9.34029e-09
3.75726e-09
1.0246e-08
2.98007e-09
1.09313e-08
2.32701e-09
1.14421e-08
1.79127e-09
1.1816e-08
1.35791e-09
1.20827e-08
1.01006e-09
1.22655e-08
7.31923e-10
1.23825e-08
5.09925e-10
1.24478e-08
3.32895e-10
1.24725e-08
1.91864e-10
1.24654e-08
7.97095e-11
1.24338e-08
-9.0532e-12
1.23832e-08
-7.80371e-11
-1.32139e-10
1.23178e-08
2.05231e-09
5.17879e-09
3.88559e-09
4.68069e-09
5.44168e-09
4.04279e-09
6.71443e-09
3.37344e-09
7.72827e-09
2.74343e-09
8.52033e-09
2.18802e-09
9.12949e-09
1.71784e-09
9.59108e-09
1.32968e-09
9.935e-09
1.01399e-09
1.01856e-08
7.59451e-10
1.03624e-08
5.55147e-10
1.04808e-08
3.91543e-10
1.0553e-08
2.60698e-10
1.05886e-08
1.56179e-10
1.05955e-08
7.2841e-11
1.05799e-08
6.59981e-12
1.05468e-08
-4.50027e-11
-8.55346e-11
1.05002e-08
1.68492e-09
3.49387e-09
3.20051e-09
3.1651e-09
4.50027e-09
2.74303e-09
5.57585e-09
2.29785e-09
6.44289e-09
1.87639e-09
7.1282e-09
1.50271e-09
7.66129e-09
1.18475e-09
8.06992e-09
9.21046e-10
8.37818e-09
7.05732e-10
8.60611e-09
5.3152e-10
8.76999e-09
3.91268e-10
8.88288e-09
2.78649e-10
8.95522e-09
1.88356e-10
8.99535e-09
1.16056e-10
9.00992e-09
5.82673e-11
9.00431e-09
1.22084e-11
8.98314e-09
-2.38349e-11
-5.21054e-11
8.94971e-09
1.39509e-09
2.09879e-09
2.65578e-09
1.90441e-09
3.74437e-09
1.65444e-09
4.65233e-09
1.38989e-09
5.39026e-09
1.13846e-09
5.97831e-09
9.14665e-10
6.43951e-09
7.23548e-10
6.79604e-09
5.64518e-10
7.06749e-09
4.3428e-10
7.27039e-09
3.28617e-10
7.41832e-09
2.43337e-10
7.52227e-09
1.747e-10
7.59108e-09
1.19545e-10
7.63186e-09
7.52828e-11
7.6503e-09
3.98228e-11
7.65102e-09
1.14886e-11
7.63795e-09
-1.07604e-11
-2.81481e-11
7.61399e-09
1.1565e-09
9.42287e-10
2.20485e-09
8.56052e-10
3.11427e-09
7.45018e-10
3.87693e-09
6.27239e-10
4.50038e-09
5.15002e-10
5.00021e-09
4.14836e-10
5.39469e-09
3.29069e-10
5.70169e-09
2.57521e-10
5.93718e-09
1.98786e-10
6.11477e-09
1.51025e-10
6.24572e-09
1.12392e-10
6.33919e-09
8.12313e-11
6.40259e-09
5.61379e-11
6.44192e-09
3.59564e-11
6.46199e-09
1.97516e-11
6.46671e-09
6.7705e-12
6.45937e-09
-3.419e-12
-1.1236e-11
6.44246e-09
9.42287e-10
1.79834e-09
2.54336e-09
3.1706e-09
3.6856e-09
4.10043e-09
4.4295e-09
4.68702e-09
4.88581e-09
5.03683e-09
5.14923e-09
5.23046e-09
5.28659e-09
5.32255e-09
5.3423e-09
5.34907e-09
5.34565e-09
5.33442e-09
2.52033e-09
-2.52033e-09
4.99848e-09
-2.47815e-09
7.32964e-09
-2.33116e-09
9.46471e-09
-2.13507e-09
1.10434e-08
-1.57865e-09
1.21014e-08
-1.05805e-09
1.20825e-08
1.8913e-11
1.23019e-08
-2.19418e-10
1.27244e-08
-4.2246e-10
1.33819e-08
-6.57554e-10
1.43e-08
-9.18028e-10
1.51593e-08
-8.59358e-10
1.57253e-08
-5.66006e-10
1.61454e-08
-4.20117e-10
1.65065e-08
-3.61069e-10
1.68645e-08
-3.5795e-10
1.72541e-08
-3.89627e-10
1.76797e-08
-4.25604e-10
1.8077e-08
-3.97309e-10
1.83951e-08
-3.18125e-10
1.86467e-08
-2.51606e-10
1.88527e-08
-2.06009e-10
1.9026e-08
-1.73218e-10
1.9166e-08
-1.40035e-10
1.92602e-08
-9.42103e-11
1.93015e-08
-4.13376e-11
1.92918e-08
9.76305e-12
1.92342e-08
5.75537e-11
1.91312e-08
1.03035e-10
1.89862e-08
1.45003e-10
1.88046e-08
1.81556e-10
1.85927e-08
2.11936e-10
1.83567e-08
2.36015e-10
1.81027e-08
2.54013e-10
1.78362e-08
2.66423e-10
1.75623e-08
2.73919e-10
1.72851e-08
2.77269e-10
1.70078e-08
2.77253e-10
1.67332e-08
2.746e-10
1.64633e-08
2.69947e-10
1.61994e-08
2.63824e-10
1.59428e-08
2.56656e-10
1.5694e-08
2.48774e-10
1.54536e-08
2.40433e-10
1.52217e-08
2.31828e-10
1.49986e-08
2.23107e-10
1.47842e-08
2.14381e-10
1.45785e-08
2.05734e-10
1.43813e-08
1.97231e-10
1.41924e-08
1.88916e-10
1.40115e-08
1.80824e-10
1.38386e-08
1.72978e-10
1.36732e-08
1.65392e-10
1.35151e-08
1.58075e-10
1.33641e-08
1.51031e-10
1.32198e-08
1.44263e-10
1.3082e-08
1.37765e-10
1.29505e-08
1.31537e-10
1.28249e-08
1.25571e-10
1.27051e-08
1.19861e-10
1.25907e-08
1.14401e-10
1.24815e-08
1.09182e-10
1.23773e-08
1.04196e-10
1.22779e-08
9.94356e-11
1.2183e-08
9.48919e-11
1.20924e-08
9.05571e-11
1.2006e-08
8.64229e-11
1.19235e-08
8.24813e-11
1.18448e-08
7.87244e-11
1.17696e-08
7.51451e-11
1.16979e-08
7.17354e-11
1.16294e-08
6.84887e-11
1.1564e-08
6.53979e-11
1.15016e-08
6.24563e-11
1.14419e-08
5.96578e-11
1.13849e-08
5.6996e-11
1.13304e-08
5.44652e-11
1.12784e-08
5.20595e-11
1.12286e-08
4.97739e-11
1.1181e-08
4.76028e-11
1.11355e-08
4.55415e-11
1.10919e-08
4.35851e-11
1.10501e-08
4.17289e-11
1.10102e-08
3.99687e-11
1.09719e-08
3.83002e-11
1.09352e-08
3.67194e-11
1.08999e-08
3.52223e-11
1.08661e-08
3.38054e-11
1.08337e-08
3.24649e-11
1.08025e-08
3.11974e-11
1.07725e-08
2.99999e-11
1.07436e-08
2.88689e-11
1.07158e-08
2.78017e-11
1.0689e-08
2.6795e-11
1.06632e-08
2.58466e-11
1.06382e-08
2.49533e-11
1.06141e-08
2.41127e-11
1.05908e-08
2.33226e-11
1.05682e-08
2.25803e-11
1.05463e-08
2.18838e-11
1.05251e-08
2.12308e-11
1.05045e-08
2.06194e-11
1.04844e-08
2.00474e-11
1.04649e-08
1.95132e-11
1.04459e-08
1.90145e-11
1.04273e-08
1.85501e-11
1.04092e-08
1.8118e-11
1.03915e-08
1.77167e-11
1.03741e-08
1.73447e-11
1.03571e-08
1.70005e-11
1.03405e-08
1.66827e-11
1.03241e-08
1.639e-11
1.0308e-08
1.61211e-11
1.02921e-08
1.58747e-11
1.02764e-08
1.56497e-11
1.0261e-08
1.54452e-11
1.02457e-08
1.52597e-11
1.02306e-08
1.50926e-11
1.02157e-08
1.49425e-11
1.02009e-08
1.48091e-11
1.01862e-08
1.46908e-11
1.01716e-08
1.45874e-11
1.01571e-08
1.44976e-11
1.01427e-08
1.44211e-11
1.01283e-08
1.43569e-11
1.0114e-08
1.43042e-11
1.00998e-08
1.42627e-11
1.00855e-08
1.42315e-11
1.00713e-08
1.42102e-11
1.00571e-08
1.41983e-11
1.00429e-08
1.41949e-11
1.00287e-08
1.42001e-11
1.00145e-08
1.42129e-11
1.00003e-08
1.42331e-11
9.98602e-09
1.42604e-11
9.97172e-09
1.42943e-11
9.95739e-09
1.43343e-11
9.94301e-09
1.43805e-11
9.92858e-09
1.44322e-11
9.91409e-09
1.44893e-11
9.89953e-09
1.45515e-11
9.88492e-09
1.46187e-11
9.87022e-09
1.46907e-11
9.85546e-09
1.47673e-11
9.84061e-09
1.48485e-11
9.82567e-09
1.49342e-11
9.81065e-09
1.50244e-11
9.79553e-09
1.51192e-11
9.78031e-09
1.52188e-11
9.76499e-09
1.53236e-11
9.74956e-09
1.54336e-11
9.73401e-09
1.55498e-11
9.71833e-09
1.56727e-11
9.70253e-09
1.58033e-11
9.68659e-09
1.5943e-11
9.67049e-09
1.60933e-11
9.65424e-09
1.62568e-11
9.6378e-09
1.64361e-11
9.62117e-09
1.6635e-11
9.60431e-09
1.68583e-11
9.58719e-09
1.71125e-11
9.56979e-09
1.74056e-11
9.55204e-09
1.77486e-11
9.53388e-09
1.81555e-11
9.51524e-09
1.86454e-11
9.496e-09
1.92432e-11
9.47601e-09
1.99825e-11
9.4551e-09
2.09093e-11
9.43302e-09
2.20872e-11
9.40941e-09
2.3605e-11
9.38382e-09
2.55909e-11
9.35559e-09
2.8234e-11
9.32376e-09
3.18244e-11
9.28693e-09
3.68285e-11
9.24289e-09
4.40431e-11
9.18794e-09
5.49505e-11
9.11529e-09
7.2651e-11
9.01044e-09
1.04845e-10
8.83419e-09
1.76253e-10
4.00928e-10
8.43326e-09
9.49608e-10
-3.46994e-09
1.98504e-09
-3.51358e-09
3.23677e-09
-3.58289e-09
4.78616e-09
-3.68446e-09
7.06601e-09
-3.8585e-09
1.02878e-08
-4.27986e-09
1.08268e-08
-5.20049e-10
1.12368e-08
-6.29424e-10
1.16162e-08
-8.01846e-10
1.22968e-08
-1.33822e-09
1.45308e-08
-3.15196e-09
1.62843e-08
-2.61286e-09
1.6281e-08
-5.62705e-10
1.63716e-08
-5.10702e-10
1.65268e-08
-5.16292e-10
1.67614e-08
-5.92569e-10
1.71381e-08
-7.66382e-10
1.77856e-08
-1.07306e-09
1.83516e-08
-9.63323e-10
1.86219e-08
-5.88397e-10
1.88004e-08
-4.30096e-10
1.89619e-08
-3.67546e-10
1.91338e-08
-3.45114e-10
1.93104e-08
-3.16672e-10
1.94228e-08
-2.06583e-10
1.94552e-08
-7.367e-11
1.94321e-08
3.27919e-11
1.93647e-08
1.25019e-10
1.92486e-08
2.1906e-10
1.90858e-08
3.0787e-10
1.88849e-08
3.82403e-10
1.86541e-08
4.42794e-10
1.84004e-08
4.89658e-10
1.81307e-08
5.23692e-10
1.7851e-08
5.46174e-10
1.75662e-08
5.58706e-10
1.72804e-08
5.63038e-10
1.69968e-08
5.60888e-10
1.67176e-08
5.53792e-10
1.64445e-08
5.43044e-10
1.61787e-08
5.29677e-10
1.59208e-08
5.14492e-10
1.56715e-08
4.98098e-10
1.5431e-08
4.80954e-10
1.51994e-08
4.63409e-10
1.49768e-08
4.45726e-10
1.47631e-08
4.28106e-10
1.45581e-08
4.107e-10
1.43617e-08
3.9362e-10
1.41737e-08
3.76949e-10
1.39937e-08
3.60747e-10
1.38217e-08
3.45052e-10
1.36572e-08
3.29891e-10
1.35e-08
3.15278e-10
1.33498e-08
3.01219e-10
1.32063e-08
2.87711e-10
1.30693e-08
2.74751e-10
1.29386e-08
2.62329e-10
1.28137e-08
2.50433e-10
1.26945e-08
2.39049e-10
1.25807e-08
2.28163e-10
1.24722e-08
2.17759e-10
1.23685e-08
2.0782e-10
1.22696e-08
1.98331e-10
1.21753e-08
1.89275e-10
1.20852e-08
1.80634e-10
1.19992e-08
1.72394e-10
1.19172e-08
1.64537e-10
1.18388e-08
1.57049e-10
1.17641e-08
1.49914e-10
1.16927e-08
1.43117e-10
1.16245e-08
1.36645e-10
1.15594e-08
1.30483e-10
1.14973e-08
1.24619e-10
1.14379e-08
1.1904e-10
1.13812e-08
1.13733e-10
1.13269e-08
1.08687e-10
1.12751e-08
1.03891e-10
1.12255e-08
9.93337e-11
1.11781e-08
9.50049e-11
1.11328e-08
9.08946e-11
1.10894e-08
8.69935e-11
1.10478e-08
8.32921e-11
1.1008e-08
7.97822e-11
1.09699e-08
7.64549e-11
1.09333e-08
7.33024e-11
1.08982e-08
7.03168e-11
1.08645e-08
6.74911e-11
1.08321e-08
6.48176e-11
1.0801e-08
6.229e-11
1.07711e-08
5.99015e-11
1.07424e-08
5.7646e-11
1.07146e-08
5.55173e-11
1.06879e-08
5.35098e-11
1.06622e-08
5.16178e-11
1.06373e-08
4.98362e-11
1.06132e-08
4.81599e-11
1.059e-08
4.65837e-11
1.05674e-08
4.51035e-11
1.05456e-08
4.37141e-11
1.05244e-08
4.24119e-11
1.05039e-08
4.11922e-11
1.04839e-08
4.00515e-11
1.04644e-08
3.89859e-11
1.04454e-08
3.79915e-11
1.04269e-08
3.70652e-11
1.04088e-08
3.62034e-11
1.03911e-08
3.54032e-11
1.03738e-08
3.46612e-11
1.03568e-08
3.39749e-11
1.03402e-08
3.33411e-11
1.03238e-08
3.27574e-11
1.03077e-08
3.22211e-11
1.02919e-08
3.17301e-11
1.02762e-08
3.12815e-11
1.02608e-08
3.08736e-11
1.02455e-08
3.0504e-11
1.02305e-08
3.01708e-11
1.02155e-08
2.9872e-11
1.02007e-08
2.96058e-11
1.01861e-08
2.93705e-11
1.01715e-08
2.91643e-11
1.0157e-08
2.89857e-11
1.01426e-08
2.88332e-11
1.01282e-08
2.87054e-11
1.01139e-08
2.8601e-11
1.00997e-08
2.85184e-11
1.00855e-08
2.84566e-11
1.00713e-08
2.84146e-11
1.00571e-08
2.8391e-11
1.00429e-08
2.8385e-11
1.00287e-08
2.83955e-11
1.00145e-08
2.84215e-11
1.00002e-08
2.84624e-11
9.98598e-09
2.85173e-11
9.97169e-09
2.85852e-11
9.95736e-09
2.86658e-11
9.94298e-09
2.87582e-11
9.92855e-09
2.88618e-11
9.91407e-09
2.89762e-11
9.89952e-09
2.9101e-11
9.8849e-09
2.92354e-11
9.87021e-09
2.93796e-11
9.85544e-09
2.95328e-11
9.8406e-09
2.96953e-11
9.82567e-09
2.98667e-11
9.81064e-09
3.00472e-11
9.79553e-09
3.02368e-11
9.78031e-09
3.04361e-11
9.76499e-09
3.06454e-11
9.74955e-09
3.08655e-11
9.73401e-09
3.10977e-11
9.71834e-09
3.13431e-11
9.70254e-09
3.16041e-11
9.6866e-09
3.1883e-11
9.67051e-09
3.21833e-11
9.65425e-09
3.25094e-11
9.63782e-09
3.2867e-11
9.62119e-09
3.32635e-11
9.60434e-09
3.37087e-11
9.58724e-09
3.4215e-11
9.56985e-09
3.47987e-11
9.55211e-09
3.54813e-11
9.53398e-09
3.6291e-11
9.51536e-09
3.72649e-11
9.49615e-09
3.84528e-11
9.47621e-09
3.99214e-11
9.45536e-09
4.17614e-11
9.43335e-09
4.40978e-11
9.40985e-09
4.71064e-11
9.3844e-09
5.10385e-11
9.35637e-09
5.62643e-11
9.32484e-09
6.33493e-11
9.28848e-09
7.31945e-11
9.2452e-09
8.73231e-11
9.19164e-09
1.08513e-10
9.12191e-09
1.42373e-10
9.02491e-09
2.01847e-10
8.87895e-09
3.22217e-10
6.16303e-10
8.66357e-09
4.47574e-11
-3.51469e-09
6.81992e-11
-3.53702e-09
3.52644e-11
-3.54996e-09
-1.13609e-10
-3.53559e-09
-5.03711e-10
-3.4684e-09
-1.48687e-09
-3.2967e-09
8.25526e-10
-2.83245e-09
3.001e-09
-2.8049e-09
5.4159e-09
-3.21674e-09
8.376e-09
-4.29831e-09
1.15343e-08
-6.31028e-09
1.60807e-08
-7.1592e-09
1.58306e-08
-3.12612e-10
1.57104e-08
-3.90544e-10
1.56806e-08
-4.86525e-10
1.57084e-08
-6.20362e-10
1.58548e-08
-9.12765e-10
1.81294e-08
-3.34767e-09
1.96295e-08
-2.46343e-09
1.91595e-08
-1.1839e-10
1.90138e-08
-2.8437e-10
1.90417e-08
-3.95412e-10
1.92299e-08
-5.33345e-10
1.96566e-08
-7.43419e-10
1.98311e-08
-3.81054e-10
1.97752e-08
-1.77198e-11
1.97028e-08
1.05197e-10
1.96343e-08
1.93502e-10
1.94972e-08
3.5609e-10
1.92887e-08
5.16382e-10
1.90443e-08
6.26879e-10
1.87731e-08
7.13981e-10
1.84825e-08
7.80257e-10
1.81806e-08
8.25571e-10
1.7874e-08
8.52772e-10
1.75678e-08
8.64862e-10
1.72658e-08
8.65066e-10
1.69703e-08
8.56366e-10
1.66829e-08
8.41237e-10
1.64043e-08
8.21604e-10
1.61351e-08
7.98895e-10
1.58755e-08
7.74145e-10
1.56254e-08
7.4811e-10
1.53851e-08
7.21345e-10
1.51542e-08
6.9427e-10
1.49327e-08
6.67206e-10
1.47204e-08
6.40399e-10
1.45171e-08
6.14037e-10
1.43224e-08
5.88259e-10
1.41362e-08
5.63166e-10
1.39581e-08
5.3883e-10
1.37879e-08
5.15296e-10
1.36252e-08
4.92591e-10
1.34698e-08
4.70728e-10
1.33213e-08
4.4971e-10
1.31794e-08
4.2953e-10
1.3044e-08
4.10175e-10
1.29147e-08
3.91631e-10
1.27913e-08
3.73876e-10
1.26734e-08
3.5689e-10
1.25609e-08
3.40649e-10
1.24536e-08
3.25129e-10
1.23511e-08
3.10304e-10
1.22533e-08
2.9615e-10
1.21599e-08
2.82642e-10
1.20708e-08
2.69754e-10
1.19857e-08
2.57463e-10
1.19045e-08
2.45745e-10
1.1827e-08
2.34575e-10
1.1753e-08
2.23932e-10
1.16823e-08
2.13793e-10
1.16148e-08
2.04138e-10
1.15503e-08
1.94946e-10
1.14888e-08
1.86197e-10
1.14299e-08
1.77873e-10
1.13737e-08
1.69954e-10
1.132e-08
1.62425e-10
1.12686e-08
1.55268e-10
1.12195e-08
1.48467e-10
1.11724e-08
1.42007e-10
1.11275e-08
1.35872e-10
1.10844e-08
1.3005e-10
1.10432e-08
1.24525e-10
1.10037e-08
1.19286e-10
1.09658e-08
1.14319e-10
1.09295e-08
1.09613e-10
1.08947e-08
1.05157e-10
1.08612e-08
1.00938e-10
1.08291e-08
9.69469e-11
1.07982e-08
9.31731e-11
1.07685e-08
8.96072e-11
1.07399e-08
8.62397e-11
1.07124e-08
8.30614e-11
1.06858e-08
8.00641e-11
1.06602e-08
7.72393e-11
1.06354e-08
7.45791e-11
1.06115e-08
7.2076e-11
1.05884e-08
6.97228e-11
1.0566e-08
6.75122e-11
1.05443e-08
6.5438e-11
1.05232e-08
6.34934e-11
1.05027e-08
6.16725e-11
1.04828e-08
5.99692e-11
1.04634e-08
5.8378e-11
1.04445e-08
5.68934e-11
1.0426e-08
5.55104e-11
1.0408e-08
5.42238e-11
1.03904e-08
5.30291e-11
1.03731e-08
5.19216e-11
1.03562e-08
5.08968e-11
1.03396e-08
4.9951e-11
1.03233e-08
4.90798e-11
1.03072e-08
4.82794e-11
1.02914e-08
4.75465e-11
1.02758e-08
4.68773e-11
1.02604e-08
4.62688e-11
1.02452e-08
4.57174e-11
1.02301e-08
4.52205e-11
1.02152e-08
4.4775e-11
1.02005e-08
4.43782e-11
1.01858e-08
4.40275e-11
1.01713e-08
4.37205e-11
1.01568e-08
4.34545e-11
1.01424e-08
4.32278e-11
1.01281e-08
4.30377e-11
1.01138e-08
4.28825e-11
1.00995e-08
4.27603e-11
1.00853e-08
4.2669e-11
1.00711e-08
4.26072e-11
1.0057e-08
4.25731e-11
1.00428e-08
4.2565e-11
1.00286e-08
4.25818e-11
1.00144e-08
4.26219e-11
1.00002e-08
4.26841e-11
9.98591e-09
4.2767e-11
9.97163e-09
4.28698e-11
9.9573e-09
4.29912e-11
9.94293e-09
4.31305e-11
9.92851e-09
4.32865e-11
9.91402e-09
4.34585e-11
9.89948e-09
4.3646e-11
9.88487e-09
4.38482e-11
9.87018e-09
4.40647e-11
9.85542e-09
4.42949e-11
9.84058e-09
4.45388e-11
9.82565e-09
4.47961e-11
9.81063e-09
4.50667e-11
9.79551e-09
4.53514e-11
9.7803e-09
4.56501e-11
9.76498e-09
4.59639e-11
9.74955e-09
4.62938e-11
9.73401e-09
4.66414e-11
9.71834e-09
4.70092e-11
9.70255e-09
4.73997e-11
9.68661e-09
4.7817e-11
9.67053e-09
4.82661e-11
9.65429e-09
4.87535e-11
9.63786e-09
4.92876e-11
9.62125e-09
4.98794e-11
9.60441e-09
5.05434e-11
9.58733e-09
5.12978e-11
9.56996e-09
5.2167e-11
9.55226e-09
5.31827e-11
9.53417e-09
5.43864e-11
9.5156e-09
5.58333e-11
9.49645e-09
5.75963e-11
9.4766e-09
5.97741e-11
9.45586e-09
6.25e-11
9.434e-09
6.59574e-11
9.41071e-09
7.04033e-11
9.38554e-09
7.62037e-11
9.35791e-09
8.38954e-11
9.32697e-09
9.42895e-11
9.2915e-09
1.08665e-10
9.24968e-09
1.29146e-10
9.1987e-09
1.59494e-10
9.13413e-09
2.06935e-10
9.04925e-09
2.86728e-10
8.93737e-09
4.34098e-10
7.31628e-10
8.82205e-09
7.18505e-11
-3.58654e-09
1.39748e-10
-3.60492e-09
2.00927e-10
-3.61114e-09
2.66485e-10
-3.60114e-09
3.67185e-10
-3.5691e-09
5.92683e-10
-3.5222e-09
1.24148e-09
-3.48124e-09
1.97565e-09
-3.53908e-09
2.4832e-09
-3.72429e-09
2.19718e-09
-4.01229e-09
1.45934e-10
-4.25904e-09
-2.95706e-09
-4.05621e-09
-1.89752e-10
-3.07992e-09
2.07029e-09
-2.65059e-09
4.18667e-09
-2.6029e-09
6.52643e-09
-2.96012e-09
9.58678e-09
-3.97312e-09
1.25421e-08
-6.30301e-09
1.75991e-08
-7.52045e-09
1.77937e-08
-3.12976e-10
1.7909e-08
-3.99665e-10
1.80371e-08
-5.23508e-10
1.83071e-08
-8.0331e-10
2.07475e-08
-3.18384e-09
2.09454e-08
-5.7893e-10
2.01453e-08
7.82343e-10
1.99601e-08
2.90407e-10
2.01004e-08
5.32194e-11
1.99472e-08
5.09324e-10
1.95891e-08
8.74466e-10
1.9273e-08
9.42913e-10
1.89401e-08
1.0469e-09
1.85897e-08
1.13062e-09
1.82378e-08
1.1775e-09
1.78908e-08
1.19976e-09
1.7554e-08
1.20166e-09
1.723e-08
1.1891e-09
1.69195e-08
1.1669e-09
1.66222e-08
1.13848e-09
1.63377e-08
1.10616e-09
1.60651e-08
1.07142e-09
1.58041e-08
1.03521e-09
1.5554e-08
9.98194e-10
1.53145e-08
9.60843e-10
1.50852e-08
9.23543e-10
1.48658e-08
8.86602e-10
1.4656e-08
8.50266e-10
1.44553e-08
8.14725e-10
1.42634e-08
7.8012e-10
1.408e-08
7.46549e-10
1.39048e-08
7.14075e-10
1.37373e-08
6.82738e-10
1.35774e-08
6.52553e-10
1.34246e-08
6.23525e-10
1.32786e-08
5.95644e-10
1.31393e-08
5.68895e-10
1.30062e-08
5.43256e-10
1.28791e-08
5.187e-10
1.27578e-08
4.95197e-10
1.2642e-08
4.72718e-10
1.25314e-08
4.51229e-10
1.24258e-08
4.30695e-10
1.23251e-08
4.11084e-10
1.22288e-08
3.92362e-10
1.2137e-08
3.74494e-10
1.20493e-08
3.57447e-10
1.19656e-08
3.41189e-10
1.18856e-08
3.25687e-10
1.18093e-08
3.10911e-10
1.17364e-08
2.96831e-10
1.16668e-08
2.83417e-10
1.16003e-08
2.70643e-10
1.15367e-08
2.58479e-10
1.1476e-08
2.46902e-10
1.1418e-08
2.35886e-10
1.13626e-08
2.25406e-10
1.13095e-08
2.1544e-10
1.12588e-08
2.05967e-10
1.12104e-08
1.96964e-10
1.11639e-08
1.88411e-10
1.11195e-08
1.8029e-10
1.1077e-08
1.7258e-10
1.10363e-08
1.65265e-10
1.09972e-08
1.58327e-10
1.09598e-08
1.5175e-10
1.09239e-08
1.45518e-10
1.08894e-08
1.39616e-10
1.08563e-08
1.34028e-10
1.08245e-08
1.28742e-10
1.0794e-08
1.23744e-10
1.07646e-08
1.1902e-10
1.07362e-08
1.1456e-10
1.07089e-08
1.1035e-10
1.06826e-08
1.06379e-10
1.06572e-08
1.02637e-10
1.06327e-08
9.91126e-11
1.0609e-08
9.57966e-11
1.0586e-08
9.26791e-11
1.05638e-08
8.97506e-11
1.05422e-08
8.70027e-11
1.05213e-08
8.44265e-11
1.05009e-08
8.20141e-11
1.04812e-08
7.97578e-11
1.04619e-08
7.76499e-11
1.04431e-08
7.56834e-11
1.04248e-08
7.38513e-11
1.04068e-08
7.21472e-11
1.03893e-08
7.05647e-11
1.03721e-08
6.90979e-11
1.03553e-08
6.77409e-11
1.03387e-08
6.64882e-11
1.03225e-08
6.53348e-11
1.03065e-08
6.42753e-11
1.02907e-08
6.3305e-11
1.02752e-08
6.24194e-11
1.02598e-08
6.16142e-11
1.02447e-08
6.08847e-11
1.02297e-08
6.02274e-11
1.02148e-08
5.96385e-11
1.02001e-08
5.91141e-11
1.01854e-08
5.86507e-11
1.01709e-08
5.82455e-11
1.01565e-08
5.78947e-11
1.01421e-08
5.75957e-11
1.01278e-08
5.73456e-11
1.01135e-08
5.71416e-11
1.00993e-08
5.69815e-11
1.00851e-08
5.68623e-11
1.0071e-08
5.67823e-11
1.00568e-08
5.6739e-11
1.00426e-08
5.67304e-11
1.00284e-08
5.67545e-11
1.00143e-08
5.68098e-11
1.00001e-08
5.68942e-11
9.98581e-09
5.70063e-11
9.97154e-09
5.71447e-11
9.95722e-09
5.73078e-11
9.94286e-09
5.74945e-11
9.92844e-09
5.77035e-11
9.91396e-09
5.7934e-11
9.89943e-09
5.81846e-11
9.88482e-09
5.8455e-11
9.87014e-09
5.87442e-11
9.85538e-09
5.90517e-11