/*--------------------------------*- C++ -*----------------------------------*\
  =========                 |
  \\      /  F ield         | OpenFOAM: The Open Source CFD Toolbox
   \\    /   O peration     | Website:  https://openfoam.org
    \\  /    A nd           | Version:  10
     \\/     M anipulation  |
\*---------------------------------------------------------------------------*/
FoamFile
{
    format      ascii;
    class       volVectorField;
    location    "2.18";
    object      Ub;
}
// * * * * * * * * * * * * * * * * * * * * * * * * * * * * * * * * * * * * * //

dimensions      [0 1 -1 0 0 0 0];

internalField   nonuniform List<vector> 
12225
(
(0.0022755 -0.00045966 0)
(0.00649676 -0.000409558 0)
(0.00997921 -0.000337155 0)
(0.0126733 -0.000264809 0)
(0.0146861 -0.000204149 0)
(0.016178 -0.000158546 0)
(0.0173037 -0.000127223 0)
(0.0181913 -0.000108095 0)
(0.0189402 -9.92122e-05 0)
(0.0196279 -9.93925e-05 0)
(0.020319 -0.000108562 0)
(0.021075 -0.000128192 0)
(0.0219668 -0.000162299 0)
(0.0230954 -0.000220034 0)
(0.0246373 -0.000323273 0)
(0.0269737 -0.000533598 0)
(0.0311965 -0.00108025 0)
(0.0419754 -0.00321999 0)
(0.00241239 -0.0014414 0)
(0.0068792 -0.00128239 0)
(0.0105466 -0.00105342 0)
(0.0133664 -0.000825341 0)
(0.0154585 -0.00063462 0)
(0.016998 -0.000491577 0)
(0.0181517 -0.000393528 0)
(0.019056 -0.000333759 0)
(0.0198158 -0.000306037 0)
(0.0205126 -0.000306566 0)
(0.0212131 -0.000335005 0)
(0.0219803 -0.000395763 0)
(0.0228854 -0.000500944 0)
(0.0240269 -0.000677872 0)
(0.0255676 -0.00099031 0)
(0.02782 -0.0016083 0)
(0.0314186 -0.00309135 0)
(0.0368926 -0.00783671 0)
(0.0025184 -0.00254751 0)
(0.00716943 -0.00226097 0)
(0.0109633 -0.00185092 0)
(0.0138569 -0.00144465 0)
(0.0159858 -0.00110654 0)
(0.0175399 -0.000853966 0)
(0.0186962 -0.000681418 0)
(0.0195972 -0.000576507 0)
(0.0203512 -0.000527897 0)
(0.021041 -0.000528615 0)
(0.0217335 -0.000577702 0)
(0.0224902 -0.000682249 0)
(0.0233777 -0.000861973 0)
(0.0244824 -0.00116054 0)
(0.0259314 -0.0016753 0)
(0.0279145 -0.00264279 0)
(0.0306024 -0.00470537 0)
(0.0331524 -0.00970483 0)
(0.00262689 -0.0037843 0)
(0.00746038 -0.0033476 0)
(0.0113668 -0.00272801 0)
(0.014313 -0.00211891 0)
(0.0164565 -0.00161541 0)
(0.0180051 -0.00124139 0)
(0.0191472 -0.000987005 0)
(0.0200308 -0.000832828 0)
(0.0207667 -0.000761395 0)
(0.0214377 -0.000761835 0)
(0.0221092 -0.000831973 0)
(0.0228387 -0.00098082 0)
(0.0236845 -0.00123406 0)
(0.0247141 -0.00164703 0)
(0.0260073 -0.00233545 0)
(0.02763 -0.00354884 0)
(0.0294575 -0.00583195 0)
(0.0304509 -0.0102101 0)
(0.00275167 -0.0051698 0)
(0.00778872 -0.00455302 0)
(0.0118076 -0.00368804 0)
(0.0147921 -0.0028468 0)
(0.0169305 -0.0021578 0)
(0.0184545 -0.00164983 0)
(0.0195655 -0.00130636 0)
(0.0204176 -0.00109901 0)
(0.0211229 -0.00100288 0)
(0.0217631 -0.00100223 0)
(0.0224004 -0.0010928 0)
(0.0230865 -0.00128421 0)
(0.0238684 -0.00160545 0)
(0.024791 -0.00211691 0)
(0.0258868 -0.00293529 0)
(0.0271266 -0.00427957 0)
(0.0282569 -0.00652412 0)
(0.0284357 -0.0100831 0)
(0.00290413 -0.00673121 0)
(0.00818287 -0.00589313 0)
(0.0123209 -0.00473582 0)
(0.0153298 -0.00362643 0)
(0.0174416 -0.00272893 0)
(0.0189192 -0.00207376 0)
(0.0199802 -0.00163413 0)
(0.0207847 -0.00137009 0)
(0.0214456 -0.00124753 0)
(0.022042 -0.00124466 0)
(0.0226315 -0.00135393 0)
(0.0232582 -0.00158385 0)
(0.0239564 -0.00196334 0)
(0.0247482 -0.00255062 0)
(0.0256267 -0.00344849 0)
(0.0265067 -0.0048212 0)
(0.027117 -0.00687722 0)
(0.0268794 -0.00968151 0)
(0.00309738 -0.008507 0)
(0.00867385 -0.00738901 0)
(0.0129418 -0.00587637 0)
(0.0159578 -0.00445379 0)
(0.0180162 -0.00332128 0)
(0.019421 -0.0025051 0)
(0.0204095 -0.00196278 0)
(0.0211481 -0.00163921 0)
(0.0217489 -0.0014889 0)
(0.0222873 -0.00148248 0)
(0.0228149 -0.00160769 0)
(0.023367 -0.00186993 0)
(0.023965 -0.00229448 0)
(0.0246111 -0.00293108 0)
(0.0252716 -0.003859 0)
(0.0258396 -0.00518242 0)
(0.0260824 -0.0069842 0)
(0.0256407 -0.00917198 0)
(0.00334912 -0.0105515 0)
(0.00930162 -0.00906772 0)
(0.0137118 -0.00711347 0)
(0.0167099 -0.00532082 0)
(0.0186793 -0.00392301 0)
(0.0199784 -0.00293204 0)
(0.0208673 -0.00228179 0)
(0.0215183 -0.00189715 0)
(0.0220413 -0.00171856 0)
(0.0225065 -0.00170734 0)
(0.0229581 -0.00184499 0)
(0.023422 -0.00213173 0)
(0.0239076 -0.00258607 0)
(0.0244022 -0.00324488 0)
(0.0248578 -0.00416029 0)
(0.0251699 -0.00538398 0)
(0.0251629 -0.00691971 0)
(0.0246301 -0.00862825 0)
(0.00368531 -0.0129429 0)
(0.0101222 -0.0109633 0)
(0.0146846 -0.00844712 0)
(0.0176256 -0.00621253 0)
(0.0194575 -0.00451574 0)
(0.0206082 -0.00333758 0)
(0.0213645 -0.00257668 0)
(0.0219028 -0.00213168 0)
(0.0223286 -0.00192574 0)
(0.0227047 -0.00190907 0)
(0.0230666 -0.0020554 0)
(0.0234309 -0.00235803 0)
(0.0237966 -0.00282649 0)
(0.0241416 -0.00348277 0)
(0.024414 -0.00435335 0)
(0.024525 -0.0054508 0)
(0.0243531 -0.00673791 0)
(0.0237883 -0.00808075 0)
(0.00414633 -0.0157969 0)
(0.0112186 -0.0131172 0)
(0.015933 -0.00986874 0)
(0.0187536 -0.00710231 0)
(0.0203791 -0.00507136 0)
(0.0213267 -0.00369756 0)
(0.0219102 -0.00282794 0)
(0.0223069 -0.00232699 0)
(0.0226143 -0.00209709 0)
(0.0228849 -0.00207563 0)
(0.0231446 -0.00222742 0)
(0.0234005 -0.00253766 0)
(0.0236437 -0.0030059 0)
(0.0238469 -0.00363952 0)
(0.0239618 -0.004444 0)
(0.0239191 -0.00540691 0)
(0.023641 -0.00647568 0)
(0.0230744 -0.0075403 0)
(0.00479833 -0.0192916 0)
(0.0127195 -0.0155764 0)
(0.0175586 -0.0113516 0)
(0.0201534 -0.00794424 0)
(0.0214747 -0.0055474 0)
(0.0221477 -0.00397829 0)
(0.0225101 -0.00300982 0)
(0.0227328 -0.00246314 0)
(0.0228993 -0.00221648 0)
(0.0230488 -0.00219325 0)
(0.0231953 -0.00234881 0)
(0.0233372 -0.00265993 0)
(0.0234591 -0.00311643 0)
(0.0235325 -0.00371316 0)
(0.0235156 -0.00444056 0)
(0.0233581 -0.00527293 0)
(0.0230133 -0.00615696 0)
(0.0224594 -0.00700915 0)
(0.00568491 -0.0232893 0)
(0.0146788 -0.0181398 0)
(0.0195536 -0.012721 0)
(0.0217795 -0.00861808 0)
(0.0226913 -0.00586819 0)
(0.0230265 -0.00413272 0)
(0.0231323 -0.00309183 0)
(0.0231613 -0.00251864 0)
(0.0231766 -0.00226714 0)
(0.0232002 -0.00224775 0)
(0.0232341 -0.00240745 0)
(0.0232679 -0.00271586 0)
(0.0232819 -0.00315498 0)
(0.0232477 -0.00371071 0)
(0.0231306 -0.00436457 0)
(0.0228942 -0.00508588 0)
(0.0225106 -0.00582684 0)
(0.0219725 -0.00652537 0)
(0.0069312 -0.0284184 0)
(0.0173034 -0.0209775 0)
(0.0220311 -0.0139574 0)
(0.0236672 -0.0090666 0)
(0.0240247 -0.00598324 0)
(0.023941 -0.00412377 0)
(0.0237467 -0.00304802 0)
(0.0235588 -0.00247554 0)
(0.0234103 -0.00223679 0)
(0.0233021 -0.002231 0)
(0.023222 -0.00239859 0)
(0.0231509 -0.00270374 0)
(0.0230653 -0.00312289 0)
(0.0229379 -0.00363629 0)
(0.02274 -0.00422118 0)
(0.0224462 -0.00484689 0)
(0.0220402 -0.00547332 0)
(0.0215224 -0.00605487 0)
(0.00918142 -0.0364343 0)
(0.0217406 -0.0244617 0)
(0.0257988 -0.0149761 0)
(0.026302 -0.00913717 0)
(0.0257674 -0.0057647 0)
(0.0250759 -0.00385757 0)
(0.0244755 -0.00281133 0)
(0.0240083 -0.00228587 0)
(0.023657 -0.00209068 0)
(0.0233913 -0.00211739 0)
(0.0231801 -0.00230271 0)
(0.0229939 -0.00260771 0)
(0.0228049 -0.0030056 0)
(0.0225867 -0.00347376 0)
(0.022316 -0.00398851 0)
(0.0219753 -0.00452237 0)
(0.021556 -0.00504415 0)
(0.0210614 -0.00552235 0)
(0.0137809 -0.0504401 0)
(0.0299756 -0.0280135 0)
(0.0317057 -0.0148908 0)
(0.0299399 -0.00823016 0)
(0.0279618 -0.00484993 0)
(0.0264084 -0.00311219 0)
(0.0252807 -0.00223884 0)
(0.0244719 -0.00185143 0)
(0.0238834 -0.00175667 0)
(0.0234405 -0.00185046 0)
(0.0230876 -0.00207334 0)
(0.0227828 -0.0023885 0)
(0.0224931 -0.00277008 0)
(0.0221922 -0.00319644 0)
(0.0218602 -0.00364651 0)
(0.0214843 -0.0040984 0)
(0.0210597 -0.00452996 0)
(0.0205895 -0.00492099 0)
(0.0249456 -0.0794763 0)
(0.0473054 -0.0275123 0)
(0.0409345 -0.0111191 0)
(0.0345877 -0.00511326 0)
(0.0304088 -0.00263796 0)
(0.0277516 -0.00156742 0)
(0.0260186 -0.00114157 0)
(0.0248441 -0.00104939 0)
(0.0240131 -0.00114789 0)
(0.0233951 -0.00136445 0)
(0.0229071 -0.0016582 0)
(0.0224934 -0.00200357 0)
(0.0221151 -0.00238193 0)
(0.0217453 -0.00277744 0)
(0.0213658 -0.0031751 0)
(0.0209659 -0.00356032 0)
(0.020542 -0.00391956 0)
(0.0200959 -0.00424142 0)
(0.0592157 0.000536334 0)
(0.0905437 0.00300025 0)
(0.0528742 0.00252632 0)
(0.0387763 0.00196141 0)
(0.0321974 0.00148094 0)
(0.0285987 0.00104575 0)
(0.0264058 0.000628723 0)
(0.0249617 0.000217901 0)
(0.0239486 -0.000191475 0)
(0.0231938 -0.00059979 0)
(0.0225947 -0.00100537 0)
(0.022088 -0.00140827 0)
(0.0216343 -0.00180407 0)
(0.0212074 -0.00218731 0)
(0.020791 -0.00255186 0)
(0.0203754 -0.00289135 0)
(0.0199568 -0.00319998 0)
(0.0195348 -0.00347323 0)
(0.0204984 0.076131 0)
(0.0405132 0.0319541 0)
(0.0373583 0.0163306 0)
(0.0325599 0.00957708 0)
(0.028973 0.00611872 0)
(0.0265222 0.00408229 0)
(0.0248414 0.00273696 0)
(0.0236525 0.00176077 0)
(0.0227758 0.000997735 0)
(0.0220986 0.000367656 0)
(0.0215497 -0.000173081 0)
(0.021081 -0.000649338 0)
(0.0206589 -0.00107549 0)
(0.020263 -0.00146117 0)
(0.0198817 -0.00180956 0)
(0.0195083 -0.00212203 0)
(0.0191397 -0.00239912 0)
(0.0187752 -0.00264137 0)
(0.00782378 0.0403777 0)
(0.018734 0.0278815 0)
(0.0226203 0.0185116 0)
(0.0233801 0.012494 0)
(0.0230521 0.00864487 0)
(0.02244 0.00609398 0)
(0.0218195 0.00432295 0)
(0.0212667 0.00303358 0)
(0.0207891 0.00205255 0)
(0.0203733 0.00127677 0)
(0.0200027 0.000643377 0)
(0.019664 0.000115635 0)
(0.0193475 -0.000332435 0)
(0.0190444 -0.000716564 0)
(0.0187479 -0.00105053 0)
(0.0184554 -0.00134134 0)
(0.0181658 -0.00159395 0)
(0.0178792 -0.00181218 0)
(0.00425229 0.0245026 0)
(0.0111747 0.0202547 0)
(0.0152724 0.015598 0)
(0.0173966 0.0117135 0)
(0.0184033 0.00873804 0)
(0.0188274 0.00651115 0)
(0.0189568 0.00483935 0)
(0.0189376 0.00356542 0)
(0.0188415 0.0025752 0)
(0.0187032 0.0017892 0)
(0.0185395 0.00115277 0)
(0.0183587 0.000628397 0)
(0.018165 0.000190156 0)
(0.0179629 -0.000177151 0)
(0.0177542 -0.000487628 0)
(0.0175392 -0.00075355 0)
(0.0173198 -0.000981663 0)
(0.0170979 -0.00117721 0)
(0.00292481 0.0172746 0)
(0.0080315 0.0151916 0)
(0.0116609 0.0124928 0)
(0.0140161 0.00992014 0)
(0.0154777 0.00773852 0)
(0.0163634 0.00597726 0)
(0.0168884 0.00458054 0)
(0.0171869 0.00347498 0)
(0.0173399 0.00259417 0)
(0.0173963 0.00188498 0)
(0.017386 0.00130708 0)
(0.0173279 0.000830555 0)
(0.0172345 0.000433466 0)
(0.0171146 9.97351e-05 0)
(0.0169758 -0.00017973 0)
(0.0168229 -0.000416302 0)
(0.016659 -0.000618315 0)
(0.0164873 -0.000790978 0)
(0.002267 0.0127384 0)
(0.00637105 0.0115427 0)
(0.00956616 0.00984691 0)
(0.0118801 0.00809413 0)
(0.0134925 0.00650539 0)
(0.0145938 0.00515355 0)
(0.0153364 0.00403754 0)
(0.0158293 0.00312748 0)
(0.0161472 0.00238694 0)
(0.0163404 0.00178218 0)
(0.0164429 0.00128507 0)
(0.0164783 0.000873309 0)
(0.0164632 0.000529618 0)
(0.0164097 0.00024077 0)
(0.0163274 -2.74206e-06 0)
(0.0162237 -0.000207117 0)
(0.0161038 -0.000380933 0)
(0.0159717 -0.000529376 0)
(0.00189521 0.00957889 0)
(0.00539646 0.00882329 0)
(0.00826517 0.00769379 0)
(0.0104771 0.00646549 0)
(0.0121221 0.00530201 0)
(0.0133197 0.00427548 0)
(0.0141796 0.00340327 0)
(0.0147888 0.00267609 0)
(0.0152124 0.00207451 0)
(0.015498 0.00157739 0)
(0.0156798 0.00116545 0)
(0.015783 0.000822475 0)
(0.0158261 0.000535345 0)
(0.0158229 0.000293676 0)
(0.0157841 8.93047e-05 0)
(0.0157184 -8.27882e-05 0)
(0.0156325 -0.000228224 0)
(0.0155311 -0.000352452 0)
(0.0016652 0.00722877 0)
(0.00477903 0.0067242 0)
(0.00741008 0.00594468 0)
(0.00951843 0.00506872 0)
(0.0111507 0.00421415 0)
(0.0123865 0.00344109 0)
(0.0133076 0.00277073 0)
(0.0139849 0.00220275 0)
(0.0144749 0.00172701 0)
(0.0148215 0.00133022 0)
(0.0150577 0.000999216 0)
(0.0152088 0.000722341 0)
(0.015294 0.00048983 0)
(0.0153278 0.000293738 0)
(0.0153218 0.000127694 0)
(0.0152851 -1.3062e-05 0)
(0.015225 -0.000131421 0)
(0.0151469 -0.000232518 0)
(0.00151295 0.00540372 0)
(0.00436362 0.00505787 0)
(0.00681953 0.00451184 0)
(0.00883661 0.00388481 0)
(0.0104393 0.00326081 0)
(0.0116839 0.00268652 0)
(0.0126344 0.00218134 0)
(0.0133499 0.00174832 0)
(0.0138805 0.0013823 0)
(0.0142662 0.00107488 0)
(0.0145388 0.000817071 0)
(0.014723 0.000600585 0)
(0.0148379 0.000418275 0)
(0.0148985 0.000264208 0)
(0.0149167 0.000133549 0)
(0.0149015 2.23875e-05 0)
(0.0148609 -7.11778e-05 0)
(0.0148007 -0.000150897 0)
(0.00140603 0.00394493 0)
(0.00406827 0.0037076 0)
(0.00639083 0.00332725 0)
(0.00832936 0.00288412 0)
(0.00989629 0.00243716 0)
(0.0111339 0.0020209 0)
(0.0120946 0.00165106 0)
(0.0128293 0.00133143 0)
(0.0133829 0.00105946 0)
(0.0137928 0.000829834 0)
(0.0140889 0.000636482 0)
(0.0142954 0.000473612 0)
(0.014431 0.000336124 0)
(0.0145108 0.000219717 0)
(0.0145465 0.000120846 0)
(0.0145476 3.66138e-05 0)
(0.0145218 -3.46591e-05 0)
(0.0144753 -9.51098e-05 0)
(0.00132597 0.00275641 0)
(0.00384471 0.00259776 0)
(0.00606025 0.00234083 0)
(0.00792921 0.00203856 0)
(0.00945735 0.0017309 0)
(0.0106783 0.00144207 0)
(0.0116365 0.00118366 0)
(0.0123775 0.000959035 0)
(0.0129421 0.000766995 0)
(0.0133654 0.000604223 0)
(0.0136759 0.000466737 0)
(0.0138968 0.000350633 0)
(0.0140465 0.000252422 0)
(0.0141398 0.000169131 0)
(0.0141884 9.82849e-05 0)
(0.0142017 3.78558e-05 0)
(0.0141874 -1.35222e-05 0)
(0.0141516 -5.68905e-05 0)
(0.00126054 0.00177668 0)
(0.00366006 0.00167762 0)
(0.00578221 0.00151599 0)
(0.00758505 0.0013246 0)
(0.00907055 0.00112862 0)
(0.0102667 0.000943634 0)
(0.011213 0.000777346 0)
(0.0119504 0.000632215 0)
(0.0125171 0.00050771 0)
(0.0129457 0.000401876 0)
(0.0132637 0.000312265 0)
(0.0134932 0.000236436 0)
(0.0136522 0.000172181 0)
(0.013755 0.000117602 0)
(0.0138131 7.11153e-05 0)
(0.0138358 3.14139e-05 0)
(0.0138306 -2.49741e-06 0)
(0.0138035 -3.09357e-05 0)
(0.00119876 0.000965345 0)
(0.00348389 0.000912739 0)
(0.00551216 0.000826445 0)
(0.00724341 0.000723829 0)
(0.00867752 0.000618339 0)
(0.00983882 0.00051841 0)
(0.0107628 0.000428295 0)
(0.0114872 0.000349422 0)
(0.0120475 0.000281592 0)
(0.0124745 0.000223806 0)
(0.0127941 0.000174785 0)
(0.0130276 0.00013323 0)
(0.0131921 9.79637e-05 0)
(0.0133014 6.7965e-05 0)
(0.0133667 4.2379e-05 0)
(0.0133969 2.04989e-05 0)
(0.0133993 1.74276e-06 0)
(0.0133799 -1.38515e-05 0)
(0.00111862 0.000298878 0)
(0.00325306 0.000282816 0)
(0.00515234 0.000256384 0)
(0.00677891 0.000224877 0)
(0.00813156 0.000192417 0)
(0.00923161 0.000161607 0)
(0.0101109 0.000133772 0)
(0.0108038 0.000109368 0)
(0.0113427 8.83491e-05 0)
(0.0117561 7.04176e-05 0)
(0.012068 5.51857e-05 0)
(0.0122981 4.22586e-05 0)
(0.0124625 3.12749e-05 0)
(0.0125741 2.19217e-05 0)
(0.0126435 1.3936e-05 0)
(0.0126791 7.09979e-06 0)
(0.0126878 1.23181e-06 0)
(0.0126754 -3.61021e-06 0)
(7.78424e-05 -0.000195611 -2.5273e-30)
(0.000234258 -0.000195437 2.5232e-30)
(0.000391887 -0.000195161 0)
(0.000550689 -0.000194775 0)
(0.000710612 -0.000194269 0)
(0.000871601 -0.000193637 -2.49241e-30)
(0.0010336 -0.000192876 0)
(0.00119654 -0.000191986 0)
(0.0013604 -0.000190975 0)
(0.00152515 -0.000189854 0)
(0.00169078 -0.000188643 2.4182e-30)
(0.00185734 -0.000187372 0)
(0.00202491 -0.000186082 0)
(0.00219365 -0.000184826 0)
(0.00236381 -0.000183672 0)
(0.00253571 -0.0001827 2.33141e-30)
(0.00270985 -0.000182003 0)
(0.00288681 -0.000181674 0)
(0.00306735 -0.000181807 0)
(0.00325235 -0.000182488 0)
(0.00344281 -0.000183796 0)
(0.00363987 -0.000185798 0)
(0.00384472 -0.00018855 0)
(0.0040586 -0.000192089 2.43478e-30)
(0.0042827 -0.000196426 -2.4882e-30)
(0.00451808 -0.00020154 2.55151e-30)
(0.00476552 -0.000207371 2.62394e-30)
(0.00502548 -0.000213832 0)
(0.00529798 -0.000220836 0)
(0.00558274 -0.000228328 -2.88517e-30)
(0.00587932 -0.000236342 -2.98525e-30)
(0.0061874 -0.00024505 0)
(0.00650717 -0.000254801 0)
(0.00683959 -0.000266147 -3.35913e-30)
(0.00718675 -0.000279867 0)
(0.00755207 -0.000297017 0)
(0.00794066 -0.000319021 4.02951e-30)
(0.00835976 -0.000347862 0)
(0.00881943 -0.000386409 4.89011e-30)
(0.00933361 -0.000438974 1.11269e-29)
(0.00992139 -0.000512233 0)
(0.0106071 -0.000616701 0)
(0.0114097 -0.000768658 0)
(0.0122279 -0.000988732 0)
(0.00841686 -0.00122422 0)
(0.00210942 -6.99136e-06 1.3092e-31)
(3.02511e-08 -1.38147e-11 -3.57101e-37)
(1.31556e-31 4.41135e-33 -1.17137e-58)
(1.02656e-31 3.18687e-33 0)
(9.84617e-32 2.49093e-33 6.67136e-59)
(9.50487e-32 2.02791e-33 0)
(9.21655e-32 1.7049e-33 -4.62467e-59)
(8.96587e-32 1.4688e-33 -4.00845e-59)
(8.74318e-32 1.28831e-33 0)
(8.54225e-32 1.14451e-33 0)
(8.35892e-32 1.0258e-33 0)
(8.19032e-32 9.24935e-34 -2.58427e-59)
(8.03437e-32 8.37349e-34 0)
(7.88954e-32 7.60079e-34 0)
(7.7546e-32 6.91143e-34 0)
(7.62856e-32 6.29146e-34 0)
(7.51058e-32 5.73055e-34 0)
(7.39995e-32 5.22062e-34 0)
(7.29605e-32 4.75514e-34 0)
(7.19834e-32 4.32867e-34 0)
(7.10635e-32 3.93662e-34 1.18537e-59)
(7.01966e-32 3.57511e-34 0)
(6.93789e-32 3.24081e-34 0)
(6.86071e-32 2.9309e-34 -9.19595e-60)
(6.78782e-32 2.64295e-34 -8.43443e-60)
(6.71895e-32 2.37486e-34 0)
(6.65385e-32 2.12484e-34 7.06351e-60)
(6.5923e-32 1.89132e-34 -6.44535e-60)
(6.53409e-32 1.67293e-34 0)
(6.47904e-32 1.46845e-34 5.32552e-60)
(6.42696e-32 1.27682e-34 0)
(6.3777e-32 1.09708e-34 0)
(6.33111e-32 9.28377e-35 -3.89452e-60)
(6.28704e-32 7.69945e-35 0)
(6.24536e-32 6.21085e-35 3.07995e-60)
(6.20595e-32 4.81167e-35 0)
(6.16868e-32 3.49612e-35 -2.36012e-60)
(6.13346e-32 2.25893e-35 -2.03199e-60)
(6.10017e-32 1.09526e-35 -1.72332e-60)
(6.06872e-32 6.15197e-39 -2.86587e-60)
(6.03901e-32 -1.02913e-35 2.3195e-60)
(6.01096e-32 -1.9978e-35 0)
(5.98449e-32 -2.90897e-35 0)
(5.9595e-32 -3.76597e-35 0)
(5.93593e-32 -4.57189e-35 4.39239e-61)
(5.91371e-32 -5.32964e-35 3.70117e-62)
(5.89276e-32 -6.04195e-35 3.41143e-61)
(5.87302e-32 -6.71137e-35 0)
(5.85444e-32 -7.34032e-35 -1.03049e-60)
(5.83694e-32 -7.93106e-35 -1.34413e-60)
(5.82047e-32 -8.48574e-35 -1.63867e-60)
(5.80498e-32 -9.00637e-35 0)
(5.79042e-32 -9.49486e-35 0)
(5.77674e-32 -9.95302e-35 0)
(5.76389e-32 -1.03826e-34 -2.64602e-60)
(5.75183e-32 -1.07851e-34 0)
(5.74051e-32 -1.11622e-34 0)
(5.72989e-32 -1.15152e-34 3.24766e-60)
(5.71994e-32 -1.18456e-34 0)
(5.71062e-32 -1.21547e-34 0)
(5.70189e-32 -1.24436e-34 3.74086e-60)
(5.69372e-32 -1.27137e-34 0)
(5.68608e-32 -1.29659e-34 0)
(5.67894e-32 -1.32013e-34 -4.14341e-60)
(5.67226e-32 -1.3421e-34 -4.26013e-60)
(5.66603e-32 -1.36258e-34 0)
(5.66021e-32 -1.38168e-34 4.47041e-60)
(5.65479e-32 -1.39946e-34 0)
(5.64973e-32 -1.41602e-34 -4.65291e-60)
(5.64502e-32 -1.43142e-34 0)
(5.64063e-32 -1.44574e-34 -4.81087e-60)
(5.63655e-32 -1.45905e-34 -4.88164e-60)
(5.63275e-32 -1.47141e-34 0)
(5.62922e-32 -1.48289e-34 0)
(5.62594e-32 -1.49353e-34 0)
(5.6229e-32 -1.5034e-34 0)
(5.62008e-32 -1.51254e-34 0)
(5.61746e-32 -1.52101e-34 0)
(5.61504e-32 -1.52884e-34 0)
(5.61279e-32 -1.53608e-34 -5.29104e-60)
(5.61072e-32 -1.54277e-34 5.32664e-60)
(5.6088e-32 -1.54895e-34 0)
(5.60702e-32 -1.55465e-34 0)
(5.60538e-32 -1.55991e-34 0)
(5.60387e-32 -1.56475e-34 0)
(5.60248e-32 -1.56921e-34 1.09345e-59)
(5.60119e-32 -1.57332e-34 0)
(5.6e-32 -1.57709e-34 -1.10182e-59)
(5.59891e-32 -1.58055e-34 1.10551e-59)
(5.59791e-32 -1.58374e-34 0)
(5.59699e-32 -1.58665e-34 0)
(5.59614e-32 -1.58933e-34 0)
(5.59536e-32 -1.59177e-34 -1.11744e-59)
(5.59465e-32 -1.59401e-34 -1.11982e-59)
(5.59399e-32 -1.59604e-34 0)
(5.59339e-32 -1.5979e-34 -1.12397e-59)
(5.59284e-32 -1.59959e-34 -1.12577e-59)
(5.59234e-32 -1.60112e-34 1.1274e-59)
(5.59187e-32 -1.60251e-34 0)
(5.59144e-32 -1.60375e-34 0)
(5.59105e-32 -1.60487e-34 1.13139e-59)
(5.59069e-32 -1.60586e-34 0)
(5.59036e-32 -1.60673e-34 0)
(5.59005e-32 -1.60748e-34 0)
(5.58976e-32 -1.60812e-34 0)
(5.58948e-32 -1.60864e-34 -1.13544e-59)
(5.58922e-32 -1.60903e-34 -1.13587e-59)
(5.58897e-32 -1.6093e-34 0)
(5.58873e-32 -1.60943e-34 -1.13632e-59)
(5.58848e-32 -1.6094e-34 0)
(5.58823e-32 -1.60919e-34 0)
(5.58796e-32 -1.60877e-34 -1.13572e-59)
(5.58767e-32 -1.6081e-34 0)
(5.58735e-32 -1.60713e-34 -1.13408e-59)
(5.58698e-32 -1.60579e-34 0)
(5.58655e-32 -1.60399e-34 0)
(5.58604e-32 -1.60162e-34 -1.12851e-59)
(5.58542e-32 -1.59852e-34 0)
(5.58465e-32 -1.59449e-34 -1.12127e-59)
(5.5837e-32 -1.58927e-34 0)
(5.58251e-32 -1.58252e-34 0)
(5.581e-32 -1.57375e-34 0)
(5.57908e-32 -1.56235e-34 1.08856e-59)
(5.57661e-32 -1.54744e-34 0)
(5.57341e-32 -1.5278e-34 -1.05337e-59)
(5.56924e-32 -1.50168e-34 0)
(5.56377e-32 -1.46653e-34 0)
(5.55651e-32 -1.4184e-34 0)
(5.54674e-32 -1.35103e-34 0)
(5.53337e-32 -1.25366e-34 0)
(5.51461e-32 -1.10638e-34 0)
(5.48729e-32 -8.67565e-35 0)
(5.44495e-32 -4.3396e-35 -1.31004e-60)
(5.37136e-32 5.25445e-35 0)
(5.20826e-32 3.53384e-34 0)
(0.000105576 -0.000624619 8.06925e-30)
(0.00031769 -0.000624182 -8.05609e-30)
(0.000531414 -0.000623438 0)
(0.000746689 -0.000622372 1.60527e-29)
(0.00096345 -0.000620962 0)
(0.00118165 -0.000619216 -7.98923e-30)
(0.0014013 -0.000617163 -1.58871e-29)
(0.00162244 -0.000614838 -1.58166e-29)
(0.0018452 -0.000612285 0)
(0.0020697 -0.000609549 -1.56587e-29)
(0.00229611 -0.000606685 7.81411e-30)
(0.00252459 -0.000603753 0)
(0.00275526 -0.000600827 0)
(0.00298823 -0.000597998 0)
(0.0032235 -0.000595371 0)
(0.00346102 -0.00059307 7.62439e-30)
(0.00370063 -0.000591233 0)
(0.00394207 -0.000590011 1.50653e-29)
(0.00418503 -0.00058956 0)
(0.00442913 -0.00059004 0)
(0.00467399 -0.000591606 -1.50719e-29)
(0.00491927 -0.000594407 0)
(0.00516465 -0.00059858 1.5229e-29)
(0.00540986 -0.000604248 7.74586e-30)
(0.00565472 -0.000611512 -7.83685e-30)
(0.00589919 -0.000620444 7.94941e-30)
(0.00614341 -0.000631093 8.08416e-30)
(0.00638777 -0.000643496 0)
(0.00663296 -0.000657718 0)
(0.00687999 -0.000673924 -8.62904e-30)
(0.00713021 -0.00069246 -2.64286e-29)
(0.00738532 -0.000713954 0)
(0.00764738 -0.000739399 0)
(0.00791884 -0.00077024 -9.86164e-30)
(0.00820263 -0.000808472 0)
(0.00850231 -0.000856793 0)
(0.00882231 -0.000918877 1.17721e-29)
(0.00916822 -0.000999835 0)
(0.00954717 -0.00110699 4.2359e-29)
(0.00996829 -0.00125119 3.21071e-29)
(0.010443 -0.00144896 0)
(0.0109846 -0.00172624 0)
(0.0116048 -0.00212415 -1.0872e-28)
(0.0122875 -0.00270352 -1.38608e-28)
(0.0126302 -0.00346395 -1.77889e-28)
(0.00633298 -0.00259079 2.00163e-28)
(2.11645e-05 -2.23356e-07 5.27395e-33)
(1.9241e-18 -2.63603e-21 6.81405e-47)
(1.00063e-31 9.08115e-33 -4.78933e-58)
(9.68132e-32 7.31566e-33 1.91391e-58)
(9.39409e-32 6.12247e-33 0)
(9.13848e-32 5.26386e-33 -1.38225e-58)
(8.90824e-32 4.61978e-33 -3.68771e-58)
(8.69874e-32 4.11657e-33 0)
(8.50661e-32 3.70843e-33 0)
(8.32938e-32 3.36663e-33 0)
(8.16519e-32 3.07305e-33 -8.13642e-59)
(8.01259e-32 2.8161e-33 0)
(7.87039e-32 2.58817e-33 -1.41238e-58)
(7.7376e-32 2.3841e-33 0)
(7.61336e-32 2.20013e-33 -1.20934e-58)
(7.49692e-32 2.03343e-33 0)
(7.38761e-32 1.88172e-33 1.04259e-58)
(7.28487e-32 1.74312e-33 0)
(7.18817e-32 1.61606e-33 -9.03363e-59)
(7.09707e-32 1.49918e-33 1.24636e-58)
(7.01116e-32 1.39134e-33 0)
(6.93009e-32 1.29158e-33 7.33173e-59)
(6.85353e-32 1.19905e-33 -3.26127e-59)
(6.7812e-32 1.11304e-33 -3.03725e-59)
(6.71284e-32 1.03294e-33 0)
(6.6482e-32 9.58221e-34 8.21562e-59)
(6.58706e-32 8.88411e-34 -2.452e-59)
(6.52923e-32 8.23106e-34 0)
(6.47453e-32 7.61951e-34 2.12246e-59)
(6.42277e-32 7.04628e-34 4.24938e-59)
(6.3738e-32 6.50855e-34 0)
(6.32748e-32 6.00376e-34 -1.70132e-59)
(6.28366e-32 5.52965e-34 0)
(6.24221e-32 5.08414e-34 -1.75634e-59)
(6.20301e-32 4.66534e-34 0)
(6.16595e-32 4.27155e-34 1.54089e-59)
(6.13091e-32 3.90118e-34 -1.15318e-59)
(6.09779e-32 3.5528e-34 -3.47495e-59)
(6.0665e-32 3.22507e-34 -6.43421e-59)
(6.03694e-32 2.91675e-34 5.94904e-59)
(6.00903e-32 2.62669e-34 0)
(5.98269e-32 2.35385e-34 0)
(5.95782e-32 2.09722e-34 0)
(5.93437e-32 1.85587e-34 -1.8001e-59)
(5.91225e-32 1.62895e-34 1.12131e-59)
(5.8914e-32 1.41562e-34 -1.01004e-59)
(5.87176e-32 1.21513e-34 0)
(5.85326e-32 1.02676e-34 2.97438e-59)
(5.83584e-32 8.49834e-35 7.14915e-60)
(5.81945e-32 6.83702e-35 6.28253e-60)
(5.80404e-32 5.27765e-35 0)
(5.78954e-32 3.81451e-35 0)
(5.77592e-32 2.44219e-35 0)
(5.76313e-32 1.15558e-35 3.3187e-60)
(5.75112e-32 -5.01547e-37 0)
(5.73985e-32 -1.17961e-35 9.62137e-60)
(5.72928e-32 -2.23713e-35 6.95928e-60)
(5.71938e-32 -3.22683e-35 -7.46598e-60)
(5.7101e-32 -4.15263e-35 0)
(5.7014e-32 -5.01821e-35 -5.67754e-60)
(5.69327e-32 -5.82709e-35 0)
(5.68566e-32 -6.5826e-35 -3.93252e-60)
(5.67855e-32 -7.28788e-35 2.10339e-60)
(5.6719e-32 -7.94593e-35 1.06714e-60)
(5.6657e-32 -8.55957e-35 0)
(5.65991e-32 -9.13149e-35 3.2967e-60)
(5.65451e-32 -9.66422e-35 -6.87305e-61)
(5.64947e-32 -1.01602e-34 -2.58509e-60)
(5.64478e-32 -1.06216e-34 0)
(5.64041e-32 -1.10507e-34 -3.04973e-60)
(5.63634e-32 -1.14494e-34 -2.06503e-60)
(5.63256e-32 -1.18198e-34 0)
(5.62905e-32 -1.21635e-34 1.94495e-60)
(5.62579e-32 -1.24824e-34 2.28079e-60)
(5.62276e-32 -1.2778e-34 2.59215e-60)
(5.61995e-32 -1.30518e-34 0)
(5.61734e-32 -1.33054e-34 0)
(5.61493e-32 -1.354e-34 0)
(5.61269e-32 -1.37569e-34 -8.08528e-60)
(5.61062e-32 -1.39574e-34 4.56654e-60)
(5.60871e-32 -1.41425e-34 0)
(5.60694e-32 -1.43133e-34 -4.2095e-60)
(5.60531e-32 -1.44708e-34 -4.37542e-60)
(5.6038e-32 -1.46159e-34 0)
(5.60242e-32 -1.47495e-34 9.95992e-60)
(5.60113e-32 -1.48725e-34 -9.59737e-60)
(5.59996e-32 -1.49856e-34 -1.02063e-59)
(5.59887e-32 -1.50894e-34 2.03691e-59)
(5.59787e-32 -1.51847e-34 0)
(5.59695e-32 -1.52721e-34 0)
(5.59611e-32 -1.53522e-34 0)
(5.59533e-32 -1.54254e-34 -1.06654e-59)
(5.59462e-32 -1.54924e-34 -2.16392e-59)
(5.59397e-32 -1.55535e-34 -1.10327e-59)
(5.59337e-32 -1.56091e-34 -1.08572e-59)
(5.59282e-32 -1.56597e-34 -2.21669e-59)
(5.59232e-32 -1.57056e-34 1.0958e-59)
(5.59185e-32 -1.57471e-34 0)
(5.59143e-32 -1.57844e-34 0)
(5.59104e-32 -1.58179e-34 2.26657e-59)
(5.59068e-32 -1.58475e-34 0)
(5.59035e-32 -1.58736e-34 0)
(5.59004e-32 -1.58962e-34 -1.17563e-59)
(5.58975e-32 -1.59153e-34 0)
(5.58948e-32 -1.59309e-34 -2.30236e-59)
(5.58922e-32 -1.59428e-34 -1.12061e-59)
(5.58897e-32 -1.59508e-34 0)
(5.58873e-32 -1.59547e-34 -2.3101e-59)
(5.58848e-32 -1.59538e-34 0)
(5.58823e-32 -1.59476e-34 0)
(5.58797e-32 -1.59351e-34 -1.11994e-59)
(5.58768e-32 -1.59152e-34 -1.18045e-59)
(5.58736e-32 -1.58863e-34 -1.11495e-59)
(5.587e-32 -1.58464e-34 0)
(5.58657e-32 -1.57927e-34 0)
(5.58607e-32 -1.57219e-34 -2.23916e-59)
(5.58545e-32 -1.56294e-34 0)
(5.5847e-32 -1.55092e-34 -2.17382e-59)
(5.58377e-32 -1.53535e-34 0)
(5.58259e-32 -1.5152e-34 0)
(5.58111e-32 -1.48906e-34 0)
(5.57921e-32 -1.45505e-34 9.77606e-60)
(5.57678e-32 -1.41059e-34 0)
(5.57363e-32 -1.35206e-34 -8.71639e-60)
(5.56954e-32 -1.27429e-34 0)
(5.56418e-32 -1.16968e-34 0)
(5.55706e-32 -1.02668e-34 -2.39401e-61)
(5.54752e-32 -8.26833e-35 -3.85717e-60)
(5.53452e-32 -5.38935e-35 0)
(5.51641e-32 -1.05761e-35 0)
(5.49038e-32 5.89458e-35 0)
(5.45129e-32 1.82307e-34 6.85884e-59)
(5.38918e-32 4.39654e-34 0)
(5.2912e-32 1.13294e-33 -5.08547e-58)
(0.000113177 -0.00110548 5.71386e-29)
(0.000340567 -0.00110482 -8.09989e-33)
(0.000569658 -0.00110358 0)
(0.000800325 -0.00110177 1.89543e-32)
(0.00103245 -0.00109937 0)
(0.00126592 -0.00109642 0)
(0.00150069 -0.00109301 -5.63299e-29)
(0.00173673 -0.00108923 -2.8074e-29)
(0.00197409 -0.0010852 2.79117e-29)
(0.00221285 -0.00108098 -2.78382e-29)
(0.0024531 -0.00107668 0)
(0.00269496 -0.00107236 0)
(0.00293853 -0.00106808 -2.74009e-29)
(0.00318389 -0.0010639 -5.45509e-29)
(0.00343105 -0.00105986 5.43073e-29)
(0.00367996 -0.00105601 0)
(0.00393041 -0.00105239 5.38501e-29)
(0.00418209 -0.00104903 2.69193e-29)
(0.00443455 -0.00104602 0)
(0.00468724 -0.00104346 5.32814e-29)
(0.00493956 -0.00104151 -2.6689e-29)
(0.00519092 -0.00104036 -5.30497e-29)
(0.00544078 -0.00104026 2.6633e-29)
(0.00568874 -0.00104148 0)
(0.00593456 -0.00104433 5.31497e-29)
(0.00617816 -0.00104916 5.33649e-29)
(0.0064197 -0.00105635 0)
(0.00665956 -0.00106632 5.41837e-29)
(0.00689837 -0.00107958 0)
(0.00713702 -0.00109677 5.56903e-29)
(0.00737669 -0.0011187 -2.85695e-29)
(0.00761878 -0.00114649 0)
(0.00786499 -0.00118162 0)
(0.00811723 -0.00122605 0)
(0.00837771 -0.00128241 0)
(0.00864886 -0.0013542 0)
(0.00893334 -0.00144608 0)
(0.00923389 -0.00156437 7.95677e-29)
(0.009553 -0.00171779 -4.35015e-29)
(0.00989215 -0.00191859 0)
(0.01025 -0.00218423 0)
(0.0106181 -0.00254001 0)
(0.010971 -0.00302262 -3.09941e-28)
(0.0112389 -0.00368288 -1.89339e-28)
(0.0112219 -0.00456691 -5.30376e-31)
(0.00980124 -0.00525626 4.63365e-31)
(0.00425176 -0.00219861 -1.13063e-28)
(2.63041e-06 -3.37048e-07 -1.71765e-32)
(1.67242e-23 -3.8187e-26 -1.44659e-56)
(9.42887e-32 1.10624e-32 -5.85265e-58)
(9.21571e-32 9.53506e-33 0)
(9.00675e-32 8.39174e-33 -4.466e-58)
(8.80718e-32 7.49142e-33 -7.95386e-58)
(8.6183e-32 6.75868e-33 0)
(8.44044e-32 6.14395e-33 0)
(8.27344e-32 5.6152e-33 3.02018e-58)
(8.11692e-32 5.15188e-33 0)
(7.9703e-32 4.74058e-33 0)
(7.83296e-32 4.37226e-33 -7.07708e-58)
(7.70422e-32 4.04043e-33 -4.39596e-58)
(7.58343e-32 3.74012e-33 -2.00521e-58)
(7.46996e-32 3.46728e-33 0)
(7.36324e-32 3.21851e-33 1.73346e-58)
(7.26275e-32 2.9909e-33 0)
(7.16803e-32 2.78197e-33 -4.58549e-58)
(7.07867e-32 2.58957e-33 1.40562e-58)
(6.99431e-32 2.41188e-33 2.69197e-58)
(6.91461e-32 2.24733e-33 3.74671e-58)
(6.83929e-32 2.09458e-33 0)
(6.76806e-32 1.95249e-33 -2.21056e-58)
(6.70069e-32 1.82006e-33 0)
(6.63695e-32 1.69645e-33 -1.0024e-58)
(6.57664e-32 1.58091e-33 -1.82094e-58)
(6.51956e-32 1.47278e-33 -1.70752e-58)
(6.46554e-32 1.37148e-33 1.60124e-58)
(6.41442e-32 1.27649e-33 -7.81077e-59)
(6.36603e-32 1.18736e-33 0)
(6.32025e-32 1.10366e-33 0)
(6.27692e-32 1.02503e-33 1.23769e-58)
(6.23593e-32 9.51136e-34 6.09503e-59)
(6.19716e-32 8.81655e-34 0)
(6.16049e-32 8.16312e-34 4.80201e-59)
(6.12582e-32 7.54847e-34 0)
(6.09305e-32 6.97022e-34 4.75431e-59)
(6.06208e-32 6.42618e-34 -1.61514e-58)
(6.03282e-32 5.91431e-34 1.50791e-58)
(6.00519e-32 5.43272e-34 -7.31862e-59)
(5.9791e-32 4.97967e-34 0)
(5.95448e-32 4.5535e-34 6.39516e-59)
(5.93125e-32 4.15269e-34 -1.13882e-58)
(5.90934e-32 3.7758e-34 0)
(5.88869e-32 3.42148e-34 0)
(5.86924e-32 3.08846e-34 0)
(5.85091e-32 2.77556e-34 3.97494e-59)
(5.83365e-32 2.48165e-34 0)
(5.81741e-32 2.20567e-34 0)
(5.80214e-32 1.94661e-34 0)
(5.78778e-32 1.70353e-34 0)
(5.77428e-32 1.47553e-34 0)
(5.76161e-32 1.26177e-34 -2.93695e-59)
(5.74971e-32 1.06143e-34 0)