/*--------------------------------*- C++ -*----------------------------------*\
  =========                 |
  \\      /  F ield         | OpenFOAM: The Open Source CFD Toolbox
   \\    /   O peration     | Website:  https://openfoam.org
    \\  /    A nd           | Version:  10
     \\/     M anipulation  |
\*---------------------------------------------------------------------------*/
FoamFile
{
    format      ascii;
    class       surfaceScalarField;
    location    "2100";
    object      phi;
}
// * * * * * * * * * * * * * * * * * * * * * * * * * * * * * * * * * * * * * //

dimensions      [0 3 -1 0 0 0 0];

internalField   nonuniform List<scalar> 
12640
(
-1.43195e-09
1.43195e-09
-2.85466e-09
1.42271e-09
-4.25891e-09
1.40425e-09
-5.63551e-09
1.3766e-09
-6.97536e-09
1.33985e-09
-8.26943e-09
1.29407e-09
-9.50883e-09
1.2394e-09
-1.06848e-08
1.17598e-09
-1.17888e-08
1.10401e-09
-1.28126e-08
1.02374e-09
-1.3748e-08
9.3544e-10
-1.45875e-08
8.39468e-10
-1.53237e-08
7.36231e-10
-1.59499e-08
6.26207e-10
-1.64599e-08
5.0995e-10
-1.6848e-08
3.88096e-10
-1.71093e-08
2.61365e-10
-1.72399e-08
1.30564e-10
-1.72365e-08
-3.40649e-12
-1.70969e-08
-1.39561e-10
-1.68201e-08
-2.76827e-10
-1.6406e-08
-4.1405e-10
-1.5856e-08
-5.50008e-10
-1.51726e-08
-6.83415e-10
-1.43597e-08
-8.12943e-10
-1.34224e-08
-9.37237e-10
-1.23675e-08
-1.05493e-09
-1.12028e-08
-1.16469e-09
-9.9376e-09
-1.26521e-09
-8.58235e-09
-1.35525e-09
-7.14866e-09
-1.43369e-09
-5.64917e-09
-1.49949e-09
-4.96594e-09
-6.83229e-10
-4.27361e-09
-6.92331e-10
-3.57343e-09
-7.00179e-10
-2.86668e-09
-7.06752e-10
-2.15465e-09
-7.12032e-10
-1.43865e-09
-7.16004e-10
-7.19988e-10
-7.18659e-10
3.0466e-17
-7.19988e-10
7.19988e-10
-7.19988e-10
1.43865e-09
-7.18659e-10
2.15465e-09
-7.16004e-10
2.86668e-09
-7.12032e-10
3.57343e-09
-7.06752e-10
4.27361e-09
-7.00179e-10
4.96594e-09
-6.92331e-10
5.64917e-09
-6.83229e-10
7.14866e-09
-1.49949e-09
8.58235e-09
-1.43369e-09
9.9376e-09
-1.35525e-09
1.12028e-08
-1.26521e-09
1.23675e-08
-1.16469e-09
1.34224e-08
-1.05493e-09
1.43597e-08
-9.37237e-10
1.51726e-08
-8.12943e-10
1.5856e-08
-6.83415e-10
1.6406e-08
-5.50008e-10
1.68201e-08
-4.1405e-10
1.70969e-08
-2.76827e-10
1.72365e-08
-1.39561e-10
1.72399e-08
-3.40652e-12
1.71093e-08
1.30564e-10
1.6848e-08
2.61365e-10
1.64599e-08
3.88096e-10
1.59499e-08
5.0995e-10
1.53237e-08
6.26207e-10
1.45875e-08
7.36231e-10
1.3748e-08
8.39468e-10
1.28126e-08
9.3544e-10
1.17888e-08
1.02374e-09
1.06848e-08
1.10401e-09
9.50883e-09
1.17598e-09
8.26943e-09
1.2394e-09
6.97536e-09
1.29407e-09
5.63551e-09
1.33985e-09
4.25891e-09
1.3766e-09
2.85466e-09
1.40425e-09
1.43195e-09
1.42271e-09
1.43195e-09
-1.57104e-09
3.00299e-09
-3.13194e-09
2.98361e-09
-4.67259e-09
2.94489e-09
-6.18292e-09
2.88693e-09
-7.65292e-09
2.80986e-09
-9.07272e-09
2.71387e-09
-1.04325e-08
2.59922e-09
-1.17228e-08
2.46623e-09
-1.29341e-08
2.31532e-09
-1.40573e-08
2.14698e-09
-1.50837e-08
1.96182e-09
-1.60048e-08
1.76056e-09
-1.68127e-08
1.54407e-09
-1.74998e-08
1.31334e-09
-1.80594e-08
1.06954e-09
-1.84853e-08
8.14001e-10
-1.87721e-08
5.48229e-10
-1.89155e-08
2.73921e-10
-1.89119e-08
-7.03908e-12
-1.87589e-08
-2.92583e-10
-1.84552e-08
-5.80459e-10
-1.8001e-08
-8.68252e-10
-1.73976e-08
-1.15339e-09
-1.66479e-08
-1.43319e-09
-1.5756e-08
-1.70485e-09
-1.47277e-08
-1.96553e-09
-1.35702e-08
-2.21239e-09
-1.22923e-08
-2.4426e-09
-1.09041e-08
-2.65342e-09
-9.41706e-09
-2.84228e-09
-7.84396e-09
-3.00679e-09
-6.19864e-09
-3.14481e-09
-5.44896e-09
-1.43291e-09
-4.68929e-09
-1.452e-09
-3.92101e-09
-1.46846e-09
-3.14552e-09
-1.48225e-09
-2.36423e-09
-1.49332e-09
-1.57858e-09
-1.50165e-09
-7.9002e-10
-1.50722e-09
3.24719e-17
-1.51001e-09
7.9002e-10
-1.51001e-09
1.57858e-09
-1.50722e-09
2.36423e-09
-1.50165e-09
3.14552e-09
-1.49332e-09
3.92101e-09
-1.48225e-09
4.68929e-09
-1.46846e-09
5.44896e-09
-1.452e-09
6.19864e-09
-1.43291e-09
7.84396e-09
-3.14481e-09
9.41706e-09
-3.00679e-09
1.09041e-08
-2.84228e-09
1.22923e-08
-2.65342e-09
1.35702e-08
-2.4426e-09
1.47277e-08
-2.21239e-09
1.5756e-08
-1.96553e-09
1.66479e-08
-1.70485e-09
1.73976e-08
-1.43319e-09
1.8001e-08
-1.15339e-09
1.84552e-08
-8.68252e-10
1.87589e-08
-5.80459e-10
1.89119e-08
-2.92583e-10
1.89155e-08
-7.03912e-12
1.87721e-08
2.73921e-10
1.84853e-08
5.48229e-10
1.80594e-08
8.14001e-10
1.74998e-08
1.06954e-09
1.68127e-08
1.31334e-09
1.60048e-08
1.54407e-09
1.50837e-08
1.76056e-09
1.40573e-08
1.96182e-09
1.29341e-08
2.14698e-09
1.17228e-08
2.31532e-09
1.04325e-08
2.46623e-09
9.07272e-09
2.59922e-09
7.65292e-09
2.71387e-09
6.18292e-09
2.80986e-09
4.67259e-09
2.88693e-09
3.13194e-09
2.94489e-09
1.57104e-09
2.98361e-09
3.00299e-09
-1.72426e-09
4.72725e-09
-3.4374e-09
4.69675e-09
-5.12832e-09
4.63582e-09
-6.78598e-09
4.54459e-09
-8.3994e-09
4.42328e-09
-9.95774e-09
4.2722e-09
-1.14503e-08
4.09175e-09
-1.28665e-08
3.88244e-09
-1.41961e-08
3.64491e-09
-1.5429e-08
3.37994e-09
-1.65557e-08
3.0885e-09
-1.75669e-08
2.77171e-09
-1.84537e-08
2.43094e-09
-1.92081e-08
2.06776e-09
-1.98226e-08
1.68399e-09
-2.02903e-08
1.28173e-09
-2.06054e-08
8.63357e-10
-2.07631e-08
4.31539e-10
-2.07593e-08
-1.07614e-11
-2.05916e-08
-4.60287e-10
-2.02586e-08
-9.13496e-10
-1.97603e-08
-1.36658e-09
-1.90982e-08
-1.8155e-09
-1.82753e-08
-2.25602e-09
-1.72964e-08
-2.68374e-09
-1.61678e-08
-3.09419e-09
-1.48973e-08
-3.48287e-09
-1.34946e-08
-3.84534e-09
-1.19707e-08
-4.1773e-09
-1.03383e-08
-4.47468e-09
-8.61134e-09
-4.73372e-09
-6.80509e-09
-4.95105e-09
-5.98208e-09
-2.25592e-09
-5.1481e-09
-2.28598e-09
-4.30465e-09
-2.3119e-09
-3.45329e-09
-2.33361e-09
-2.59556e-09
-2.35105e-09
-1.73304e-09
-2.36417e-09
-8.6732e-10
-2.37294e-09
3.25799e-17
-2.37733e-09
8.6732e-10
-2.37733e-09
1.73304e-09
-2.37294e-09
2.59556e-09
-2.36417e-09
3.45329e-09
-2.35105e-09
4.30465e-09
-2.33361e-09
5.1481e-09
-2.3119e-09
5.98208e-09
-2.28598e-09
6.80509e-09
-2.25592e-09
8.61134e-09
-4.95105e-09
1.03383e-08
-4.73372e-09
1.19707e-08
-4.47468e-09
1.34946e-08
-4.1773e-09
1.48973e-08
-3.84534e-09
1.61678e-08
-3.48287e-09
1.72964e-08
-3.09419e-09
1.82753e-08
-2.68374e-09
1.90982e-08
-2.25602e-09
1.97603e-08
-1.8155e-09
2.02586e-08
-1.36658e-09
2.05916e-08
-9.13496e-10
2.07593e-08
-4.60287e-10
2.07631e-08
-1.07615e-11
2.06054e-08
4.31539e-10
2.02903e-08
8.63357e-10
1.98226e-08
1.28173e-09
1.92081e-08
1.68399e-09
1.84537e-08
2.06776e-09
1.75669e-08
2.43094e-09
1.65557e-08
2.77171e-09
1.5429e-08
3.0885e-09
1.41961e-08
3.37994e-09
1.28665e-08
3.64491e-09
1.14503e-08
3.88244e-09
9.95774e-09
4.09175e-09
8.3994e-09
4.2722e-09
6.78598e-09
4.42328e-09
5.12832e-09
4.54459e-09
3.4374e-09
4.63582e-09
1.72426e-09
4.69675e-09
4.72725e-09
-1.89331e-09
6.62056e-09
-3.77442e-09
6.57786e-09
-5.63115e-09
6.49254e-09
-7.45138e-09
6.36481e-09
-9.22307e-09
6.19497e-09
-1.09343e-08
5.98344e-09
-1.25733e-08
5.73078e-09
-1.41286e-08
5.43771e-09
-1.55888e-08
5.10512e-09
-1.6943e-08
4.73411e-09
-1.81805e-08
4.32601e-09
-1.92912e-08
3.88242e-09
-2.02655e-08
3.40523e-09
-2.10944e-08
2.89663e-09
-2.17696e-08
2.3592e-09
-2.22837e-08
1.79585e-09
-2.26303e-08
1.20992e-09
-2.28039e-08
6.05139e-10
-2.28003e-08
-1.43474e-11
-2.26166e-08
-6.43976e-10
-2.22513e-08
-1.27879e-09
-2.17044e-08
-1.91345e-09
-2.09776e-08
-2.5423e-09
-2.00742e-08
-3.1594e-09
-1.89994e-08
-3.7586e-09
-1.77599e-08
-4.33362e-09
-1.63647e-08
-4.87816e-09
-1.4824e-08
-5.386e-09
-1.31502e-08
-5.85111e-09
-1.13571e-08
-6.26778e-09
-9.46008e-09
-6.63073e-09
-7.47588e-09
-6.93525e-09
-6.57176e-09
-3.16003e-09
-5.65559e-09
-3.20216e-09
-4.72901e-09
-3.23848e-09
-3.79372e-09
-3.2689e-09
-2.85144e-09
-3.29333e-09
-1.90389e-09
-3.31172e-09
-9.52827e-10
-3.324e-09
3.35014e-17
-3.33015e-09
9.52827e-10
-3.33015e-09
1.90389e-09
-3.324e-09
2.85144e-09
-3.31172e-09
3.79372e-09
-3.29333e-09
4.72901e-09
-3.2689e-09
5.65559e-09
-3.23848e-09
6.57176e-09
-3.20216e-09
7.47588e-09
-3.16003e-09
9.46008e-09
-6.93525e-09
1.13571e-08
-6.63073e-09
1.31502e-08
-6.26778e-09
1.4824e-08
-5.85111e-09
1.63647e-08
-5.386e-09
1.77599e-08
-4.87816e-09
1.89994e-08
-4.33362e-09
2.00742e-08
-3.7586e-09
2.09776e-08
-3.1594e-09
2.17044e-08
-2.5423e-09
2.22513e-08
-1.91345e-09
2.26166e-08
-1.27879e-09
2.28003e-08
-6.43976e-10
2.28039e-08
-1.43474e-11
2.26303e-08
6.05139e-10
2.22837e-08
1.20992e-09
2.17696e-08
1.79585e-09
2.10944e-08
2.3592e-09
2.02655e-08
2.89663e-09
1.92912e-08
3.40523e-09
1.81805e-08
3.88242e-09
1.6943e-08
4.32601e-09
1.55888e-08
4.73411e-09
1.41286e-08
5.10512e-09
1.25733e-08
5.43771e-09
1.09343e-08
5.73078e-09
9.22307e-09
5.98344e-09
7.45138e-09
6.19497e-09
5.63115e-09
6.36481e-09
3.77442e-09
6.49254e-09
1.89331e-09
6.57786e-09
6.62056e-09
-2.08016e-09
8.70073e-09
-4.14694e-09
8.64463e-09
-6.18695e-09
8.53256e-09
-8.1869e-09
8.36477e-09
-1.01336e-08
8.14166e-09
-1.20139e-08
7.86377e-09
-1.3815e-08
7.53185e-09
-1.55241e-08
7.14684e-09
-1.71289e-08
6.70989e-09
-1.86172e-08
6.22245e-09
-1.99775e-08
5.68628e-09
-2.11985e-08
5.10345e-09
-2.22698e-08
4.47644e-09
-2.31813e-08
3.80815e-09
-2.3924e-08
3.10193e-09
-2.44898e-08
2.36163e-09
-2.48715e-08
1.5916e-09
-2.50631e-08
7.96764e-10
-2.506e-08
-1.74415e-11
-2.48589e-08
-8.45022e-10
-2.44583e-08
-1.67946e-09
-2.3858e-08
-2.51375e-09
-2.30598e-08
-3.34044e-09
-2.20675e-08
-4.15173e-09
-2.08866e-08
-4.93953e-09
-1.95246e-08
-5.69558e-09
-1.79912e-08
-6.41159e-09
-1.62978e-08
-7.07938e-09
-1.44579e-08
-7.691e-09
-1.24868e-08
-8.23893e-09
-1.04012e-08
-8.71625e-09
-8.21975e-09
-9.11674e-09
-7.22571e-09
-4.15407e-09
-6.2184e-09
-4.20947e-09
-5.19964e-09
-4.25724e-09
-4.17128e-09
-4.29725e-09
-3.13523e-09
-4.32939e-09
-2.09338e-09
-4.35357e-09
-1.04766e-09
-4.36973e-09
3.50187e-17
-4.37781e-09
1.04766e-09
-4.37781e-09
2.09338e-09
-4.36973e-09
3.13523e-09
-4.35357e-09
4.17128e-09
-4.32939e-09
5.19964e-09
-4.29725e-09
6.2184e-09
-4.25724e-09
7.22571e-09
-4.20947e-09
8.21975e-09
-4.15407e-09
1.04012e-08
-9.11674e-09
1.24868e-08
-8.71625e-09
1.44579e-08
-8.23893e-09
1.62978e-08
-7.691e-09
1.79912e-08
-7.07938e-09
1.95246e-08
-6.41159e-09
2.08866e-08
-5.69558e-09
2.20675e-08
-4.93953e-09
2.30598e-08
-4.15173e-09
2.3858e-08
-3.34044e-09
2.44583e-08
-2.51375e-09
2.48589e-08
-1.67946e-09
2.506e-08
-8.45022e-10
2.50631e-08
-1.74415e-11
2.48715e-08
7.96764e-10
2.44898e-08
1.5916e-09
2.3924e-08
2.36163e-09
2.31813e-08
3.10193e-09
2.22698e-08
3.80815e-09
2.11985e-08
4.47644e-09
1.99775e-08
5.10345e-09
1.86172e-08
5.68628e-09
1.71289e-08
6.22245e-09
1.55241e-08
6.70989e-09
1.3815e-08
7.14684e-09
1.20139e-08
7.53185e-09
1.01336e-08
7.86377e-09
8.1869e-09
8.14166e-09
6.18695e-09
8.36477e-09
4.14694e-09
8.53256e-09
2.08016e-09
8.64463e-09
8.70073e-09
-2.28716e-09
1.09879e-08
-4.55962e-09
1.09171e-08
-6.8027e-09
1.07756e-08
-9.00181e-09
1.05639e-08
-1.11424e-08
1.02823e-08
-1.32102e-08
9.93155e-09
-1.51909e-08
9.5126e-09
-1.70707e-08
9.02662e-09
-1.88359e-08
8.47507e-09
-2.04732e-08
7.85976e-09
-2.19698e-08
7.1829e-09
-2.33135e-08
6.4471e-09
-2.44925e-08
5.65549e-09
-2.54961e-08
4.8117e-09
-2.63141e-08
3.91997e-09
-2.69376e-08
2.98514e-09
-2.73587e-08
2.01271e-09
-2.75708e-08
1.00887e-09
-2.75688e-08
-1.95042e-11
-2.7349e-08
-1.06485e-09
-2.69095e-08
-2.11894e-09
-2.62503e-08
-3.17293e-09
-2.53733e-08
-4.2174e-09
-2.42826e-08
-5.24249e-09
-2.29841e-08
-6.23797e-09
-2.14863e-08
-7.1934e-09
-1.97996e-08
-8.0983e-09
-1.79367e-08
-8.9423e-09
-1.59123e-08
-9.71536e-09
-1.37433e-08
-1.0408e-08
-1.14482e-08
-1.10113e-08
-9.04731e-09
-1.15176e-08
-7.95326e-09
-5.24813e-09
-6.84456e-09
-5.31817e-09
-5.72325e-09
-5.37856e-09
-4.59136e-09
-5.42914e-09
-3.45098e-09
-5.46977e-09
-2.30421e-09
-5.50034e-09
-1.15318e-09
-5.52076e-09
3.94627e-17
-5.53099e-09
1.15318e-09
-5.53099e-09
2.30421e-09
-5.52076e-09
3.45098e-09
-5.50034e-09
4.59136e-09
-5.46977e-09
5.72325e-09
-5.42914e-09
6.84456e-09
-5.37856e-09
7.95326e-09
-5.31817e-09
9.04731e-09
-5.24813e-09
1.14482e-08
-1.15176e-08
1.37433e-08
-1.10113e-08
1.59123e-08
-1.0408e-08
1.79367e-08
-9.71536e-09
1.97996e-08
-8.9423e-09
2.14863e-08
-8.0983e-09
2.29841e-08
-7.1934e-09
2.42826e-08
-6.23797e-09
2.53733e-08
-5.24249e-09
2.62503e-08
-4.2174e-09
2.69095e-08
-3.17293e-09
2.7349e-08
-2.11894e-09
2.75688e-08
-1.06485e-09
2.75708e-08
-1.95042e-11
2.73587e-08
1.00887e-09
2.69376e-08
2.01271e-09
2.63141e-08
2.98514e-09
2.54961e-08
3.91997e-09
2.44925e-08
4.8117e-09
2.33135e-08
5.65549e-09
2.19698e-08
6.4471e-09
2.04732e-08
7.1829e-09
1.88359e-08
7.85976e-09
1.70707e-08
8.47507e-09
1.51909e-08
9.02662e-09
1.32102e-08
9.5126e-09
1.11424e-08
9.93155e-09
9.00181e-09
1.02823e-08
6.8027e-09
1.05639e-08
4.55962e-09
1.07756e-08
2.28716e-09
1.09171e-08
1.09879e-08
-2.51709e-09
1.3505e-08
-5.01804e-09
1.3418e-08
-7.48673e-09
1.32443e-08
-9.90712e-09
1.29843e-08
-1.22633e-08
1.26384e-08
-1.45394e-08
1.22077e-08
-1.672e-08
1.16932e-08
-1.87896e-08
1.10963e-08
-2.07334e-08
1.04188e-08
-2.25366e-08
9.66298e-09
-2.41852e-08
8.83148e-09
-2.56656e-08
7.92754e-09
-2.6965e-08
6.95494e-09
-2.80715e-08
5.91816e-09
-2.89739e-08
4.82237e-09
-2.96623e-08
3.67352e-09
-3.01279e-08
2.47835e-09
-3.03635e-08
1.24445e-09
-3.03633e-08
-1.97345e-11
-3.01232e-08
-1.30492e-09
-2.96412e-08
-2.60099e-09
-2.8917e-08
-3.89707e-09
-2.79528e-08
-5.18159e-09
-2.67529e-08
-6.4424e-09
-2.5324e-08
-7.66692e-09
-2.36751e-08
-8.8423e-09
-2.18178e-08
-9.95561e-09
-1.9766e-08
-1.09941e-08
-1.7536e-08
-1.19454e-08
-1.51462e-08
-1.27977e-08
-1.26173e-08
-1.35403e-08
-9.9715e-09
-1.41634e-08
-8.76578e-09
-6.45385e-09
-7.54389e-09
-6.54006e-09
-6.30806e-09
-6.61439e-09
-5.06054e-09
-6.67665e-09
-3.80365e-09
-6.72666e-09
-2.5397e-09
-6.76429e-09
-1.27103e-09
-6.78943e-09
4.55328e-17
-6.80202e-09
1.27103e-09
-6.80202e-09
2.5397e-09
-6.78943e-09
3.80365e-09
-6.76429e-09
5.06054e-09
-6.72666e-09
6.30806e-09
-6.67665e-09
7.54389e-09
-6.61439e-09
8.76578e-09
-6.54006e-09
9.9715e-09
-6.45385e-09
1.26173e-08
-1.41634e-08
1.51462e-08
-1.35403e-08
1.7536e-08
-1.27977e-08
1.9766e-08
-1.19454e-08
2.18178e-08
-1.09941e-08
2.36751e-08
-9.95561e-09
2.5324e-08
-8.8423e-09
2.67529e-08
-7.66692e-09
2.79528e-08
-6.4424e-09
2.8917e-08
-5.18159e-09
2.96412e-08
-3.89707e-09
3.01232e-08
-2.60099e-09
3.03633e-08
-1.30492e-09
3.03635e-08
-1.97345e-11
3.01279e-08
1.24445e-09
2.96623e-08
2.47835e-09
2.89739e-08
3.67352e-09
2.80715e-08
4.82237e-09
2.6965e-08
5.91816e-09
2.56656e-08
6.95494e-09
2.41852e-08
7.92754e-09
2.25366e-08
8.83148e-09
2.07334e-08
9.66298e-09
1.87896e-08
1.04188e-08
1.672e-08
1.10963e-08
1.45394e-08
1.16932e-08
1.22633e-08
1.22077e-08
9.90712e-09
1.26384e-08
7.48673e-09
1.29843e-08
5.01804e-09
1.32443e-08
2.51709e-09
1.3418e-08
1.3505e-08
-2.77333e-09
1.62783e-08
-5.52892e-09
1.61736e-08
-8.24909e-09
1.59645e-08
-1.09162e-08
1.56514e-08
-1.35127e-08
1.5235e-08
-1.60213e-08
1.47163e-08
-1.84249e-08
1.40967e-08
-2.07065e-08
1.33779e-08
-2.28497e-08
1.2562e-08
-2.48384e-08
1.16517e-08
-2.66571e-08
1.06501e-08
-2.82907e-08
9.5612e-09
-2.97253e-08
8.38946e-09
-3.09474e-08
7.14025e-09
-3.19448e-08
5.8198e-09
-3.27065e-08
4.43523e-09
-3.32228e-08
2.99465e-09
-3.34855e-08
1.50721e-09
-3.34883e-08
-1.69626e-11
-3.32266e-08
-1.56666e-09
-3.26979e-08
-3.12971e-09
-3.19019e-08
-4.69299e-09
-3.0841e-08
-6.24255e-09
-2.95196e-08
-7.76372e-09
-2.79453e-08
-9.24131e-09
-2.61278e-08
-1.06598e-08
-2.40798e-08
-1.20035e-08
-2.18168e-08
-1.32571e-08
-1.93567e-08
-1.44056e-08
-1.67197e-08
-1.54347e-08
-1.39287e-08
-1.63313e-08
-1.10083e-08
-1.70838e-08
-9.67739e-09
-7.78481e-09
-8.32853e-09
-7.88892e-09
-6.96423e-09
-7.97869e-09
-5.587e-09
-8.05388e-09
-4.19938e-09
-8.11428e-09
-2.80394e-09
-8.15973e-09
-1.40328e-09
-8.19009e-09
4.69486e-17
-8.2053e-09
1.40328e-09
-8.2053e-09
2.80394e-09
-8.19009e-09
4.19938e-09
-8.15973e-09
5.587e-09
-8.11428e-09
6.96423e-09
-8.05388e-09
8.32853e-09
-7.97869e-09
9.67739e-09
-7.88892e-09
1.10083e-08
-7.78481e-09
1.39287e-08
-1.70838e-08
1.67197e-08
-1.63313e-08
1.93567e-08
-1.54347e-08
2.18168e-08
-1.44056e-08
2.40798e-08
-1.32571e-08
2.61278e-08
-1.20035e-08
2.79453e-08
-1.06598e-08
2.95196e-08
-9.24131e-09
3.0841e-08
-7.76372e-09
3.19019e-08
-6.24255e-09
3.26979e-08
-4.69299e-09
3.32266e-08
-3.12971e-09
3.34883e-08
-1.56666e-09
3.34855e-08
-1.69626e-11
3.32228e-08
1.50721e-09
3.27065e-08
2.99465e-09
3.19448e-08
4.43523e-09
3.09474e-08
5.8198e-09
2.97253e-08
7.14025e-09
2.82907e-08
8.38946e-09
2.66571e-08
9.5612e-09
2.48384e-08
1.06501e-08
2.28497e-08
1.16517e-08
2.07065e-08
1.2562e-08
1.84249e-08
1.33779e-08
1.60213e-08
1.40967e-08
1.35127e-08
1.47163e-08
1.09162e-08
1.5235e-08
8.24909e-09
1.56514e-08
5.52892e-09
1.59645e-08
2.77333e-09
1.61736e-08
1.62783e-08
-3.06e-09
1.93383e-08
-6.1005e-09
1.92141e-08
-9.10206e-09
1.89661e-08
-1.20453e-08
1.85946e-08
-1.4911e-08
1.81006e-08
-1.768e-08
1.74853e-08
-2.03334e-08
1.67502e-08
-2.28528e-08
1.58973e-08
-2.52199e-08
1.49291e-08
-2.7417e-08
1.38488e-08
-2.94268e-08
1.266e-08
-3.1233e-08
1.13674e-08
-3.28199e-08
9.97629e-09
-3.41726e-08
8.49302e-09
-3.52777e-08
6.9249e-09
-3.61229e-08
5.28039e-09
-3.66973e-08
3.56907e-09
-3.69919e-08
1.80176e-09
-3.69993e-08
-9.49815e-12
-3.67146e-08
-1.85144e-09
-3.61347e-08
-3.70959e-09
-3.52593e-08
-5.56836e-09
-3.40907e-08
-7.41116e-09
-3.26339e-08
-9.22053e-09
-3.08968e-08
-1.09784e-08
-2.88904e-08
-1.26662e-08
-2.66286e-08
-1.42654e-08
-2.41282e-08
-1.57575e-08
-2.14092e-08
-1.71246e-08
-1.8494e-08
-1.83499e-08
-1.54077e-08
-1.94175e-08
-1.21779e-08
-2.03136e-08
-1.07057e-08
-9.25696e-09
-9.21368e-09
-9.38096e-09
-7.7045e-09
-9.48788e-09
-6.18094e-09
-9.57743e-09
-4.64585e-09
-9.64937e-09
-3.10207e-09
-9.7035e-09
-1.55249e-09
-9.73968e-09
4.72712e-17
-9.75779e-09
1.55249e-09
-9.75779e-09
3.10207e-09
-9.73968e-09
4.64585e-09
-9.7035e-09
6.18094e-09
-9.64937e-09
7.7045e-09
-9.57743e-09
9.21368e-09
-9.48788e-09
1.07057e-08
-9.38096e-09
1.21779e-08
-9.25696e-09
1.54077e-08
-2.03136e-08
1.8494e-08
-1.94175e-08
2.14092e-08
-1.83499e-08
2.41282e-08
-1.71246e-08
2.66286e-08
-1.57575e-08
2.88904e-08
-1.42654e-08
3.08968e-08
-1.26662e-08
3.26339e-08
-1.09784e-08
3.40907e-08
-9.22053e-09
3.52593e-08
-7.41116e-09
3.61347e-08
-5.56836e-09
3.67146e-08
-3.70959e-09
3.69993e-08
-1.85144e-09
3.69919e-08
-9.49822e-12
3.66973e-08
1.80176e-09
3.61229e-08
3.56907e-09
3.52777e-08
5.28039e-09
3.41726e-08
6.9249e-09
3.28199e-08
8.49302e-09
3.1233e-08
9.97629e-09
2.94268e-08
1.13674e-08
2.7417e-08
1.266e-08
2.52199e-08
1.38488e-08
2.28528e-08
1.49291e-08
2.03334e-08
1.58973e-08
1.768e-08
1.67502e-08
1.4911e-08
1.74853e-08
1.20453e-08
1.81006e-08
9.10206e-09
1.85946e-08
6.1005e-09
1.89661e-08
3.06e-09
1.92141e-08
1.93383e-08
-3.38216e-09
2.27205e-08
-6.74289e-09
2.25749e-08
-1.00608e-08
2.2284e-08
-1.33146e-08
2.18484e-08
-1.6483e-08
2.12691e-08
-1.9545e-08
2.05474e-08
-2.248e-08
1.96851e-08
-2.52673e-08
1.86846e-08
-2.7887e-08
1.75488e-08
-3.03194e-08
1.62812e-08
-3.25455e-08
1.48861e-08
-3.45472e-08
1.3369e-08
-3.63068e-08
1.1736e-08
-3.78083e-08
9.99445e-09
-3.90363e-08
8.15294e-09
-3.99772e-08
6.22131e-09
-4.06189e-08
4.21078e-09
-4.09512e-08
2.134e-09
-4.09658e-08
5.08407e-12
-4.06568e-08
-2.16041e-09
-4.00209e-08
-4.34548e-09
-3.90575e-08
-6.53181e-09
-3.77687e-08
-8.69988e-09
-3.61601e-08
-1.08291e-08
-3.42403e-08
-1.28982e-08
-3.20211e-08
-1.48854e-08
-2.95179e-08
-1.67685e-08
-2.67494e-08
-1.8526e-08
-2.37375e-08
-2.01365e-08
-2.05072e-08
-2.15802e-08
-1.70864e-08
-2.28384e-08
-1.35055e-08
-2.38945e-08
-1.18732e-08
-1.08893e-08
-1.02186e-08
-1.10355e-08
-8.54499e-09
-1.11615e-08
-6.85533e-09
-1.12671e-08
-5.15281e-09
-1.13519e-08
-3.4406e-09
-1.14157e-08
-1.72192e-09
-1.14584e-08
4.8247e-17
-1.14797e-08
1.72192e-09
-1.14797e-08
3.4406e-09
-1.14584e-08
5.15281e-09
-1.14157e-08
6.85533e-09
-1.13519e-08
8.54499e-09
-1.12671e-08
1.02186e-08
-1.11615e-08
1.18732e-08
-1.10355e-08
1.35055e-08
-1.08893e-08
1.70864e-08
-2.38945e-08
2.05072e-08
-2.28384e-08
2.37375e-08
-2.15802e-08
2.67494e-08
-2.01365e-08
2.95179e-08
-1.8526e-08
3.20211e-08
-1.67685e-08
3.42403e-08
-1.48854e-08
3.61601e-08
-1.28982e-08
3.77687e-08
-1.08291e-08
3.90575e-08
-8.69988e-09
4.00209e-08
-6.53181e-09
4.06568e-08
-4.34548e-09
4.09658e-08
-2.16041e-09
4.09512e-08
5.08399e-12
4.06189e-08
2.134e-09
3.99772e-08
4.21078e-09
3.90363e-08
6.22131e-09
3.78083e-08
8.15294e-09
3.63068e-08
9.99445e-09
3.45472e-08
1.1736e-08
3.25455e-08
1.3369e-08
3.03194e-08
1.48861e-08
2.7887e-08
1.62812e-08
2.52673e-08
1.75488e-08
2.248e-08
1.86846e-08
1.9545e-08
1.96851e-08
1.6483e-08
2.05474e-08
1.33146e-08
2.12691e-08
1.00608e-08
2.18484e-08
6.74289e-09
2.2284e-08
3.38216e-09
2.25749e-08
2.27205e-08
-3.74616e-09
2.64666e-08
-7.46873e-09
2.62974e-08
-1.11442e-08
2.59594e-08
-1.4749e-08
2.54532e-08
-1.82599e-08
2.478e-08
-2.16537e-08
2.39412e-08
-2.49075e-08
2.29389e-08
-2.79987e-08
2.17758e-08
-3.09051e-08
2.04551e-08
-3.36049e-08
1.8981e-08
-3.60772e-08
1.73585e-08
-3.83017e-08
1.55935e-08
-4.0259e-08
1.36933e-08
-4.19309e-08
1.16663e-08
-4.33004e-08
9.52248e-09
-4.43522e-08
7.27312e-09
-4.50727e-08
4.93124e-09
-4.54502e-08
2.51149e-09
-4.54753e-08
3.02494e-11
-4.51414e-08
-2.49438e-09
-4.44442e-08
-5.04263e-09
-4.33829e-08
-7.59314e-09
-4.19596e-08
-1.01231e-08
-4.01802e-08
-1.26086e-08
-3.80539e-08
-1.50245e-08
-3.55938e-08
-1.73455e-08
-3.28167e-08
-1.95456e-08
-2.97433e-08
-2.15993e-08
-2.63979e-08
-2.34819e-08
-2.28083e-08
-2.51698e-08
-1.90056e-08
-2.66411e-08
-1.50238e-08
-2.78763e-08
-1.32083e-08
-1.27048e-08
-1.13681e-08
-1.28758e-08
-9.50638e-09
-1.30232e-08
-7.62677e-09
-1.31467e-08
-5.73274e-09
-1.32459e-08
-3.82787e-09
-1.33206e-08
-1.91575e-09
-1.33705e-08
5.25803e-17
-1.33955e-08
1.91575e-09
-1.33955e-08
3.82787e-09
-1.33705e-08
5.73274e-09
-1.33206e-08
7.62677e-09
-1.32459e-08
9.50638e-09
-1.31467e-08
1.13681e-08
-1.30232e-08
1.32083e-08
-1.28758e-08
1.50238e-08
-1.27048e-08
1.90056e-08
-2.78763e-08
2.28083e-08
-2.66411e-08
2.63979e-08
-2.51698e-08
2.97433e-08
-2.34819e-08
3.28167e-08
-2.15993e-08
3.55938e-08
-1.95456e-08
3.80539e-08
-1.73455e-08
4.01802e-08
-1.50245e-08
4.19596e-08
-1.26086e-08
4.33829e-08
-1.01231e-08
4.44442e-08
-7.59314e-09
4.51414e-08
-5.04263e-09
4.54753e-08
-2.49438e-09
4.54502e-08
3.02494e-11
4.50727e-08
2.51149e-09
4.43522e-08
4.93124e-09
4.33004e-08
7.27312e-09
4.19309e-08
9.52248e-09
4.0259e-08
1.16663e-08
3.83017e-08
1.36933e-08
3.60772e-08
1.55935e-08
3.36049e-08
1.73585e-08
3.09051e-08
1.8981e-08
2.79987e-08
2.04551e-08
2.49075e-08
2.17758e-08
2.16537e-08
2.29389e-08
1.82599e-08
2.39412e-08
1.4749e-08
2.478e-08
1.11442e-08
2.54532e-08
7.46873e-09
2.59594e-08
3.74616e-09
2.62974e-08
2.64666e-08
-4.15992e-09
3.06265e-08
-8.29387e-09
3.04314e-08
-1.23759e-08
3.00414e-08
-1.63802e-08
2.94575e-08
-2.0281e-08
2.86807e-08
-2.40527e-08
2.77129e-08
-2.76701e-08
2.65563e-08
-3.11081e-08
2.52138e-08
-3.43422e-08
2.36892e-08
-3.73482e-08
2.19871e-08
-4.01029e-08
2.01131e-08
-4.25835e-08
1.80741e-08
-4.47686e-08
1.58783e-08
-4.66376e-08
1.35353e-08
-4.81716e-08
1.10565e-08
-4.93531e-08
8.45469e-09
-5.01668e-08
5.74494e-09
-5.05994e-08
2.94407e-09
-5.06401e-08
7.09421e-11
-5.02809e-08
-2.85356e-09
-4.9517e-08
-5.80659e-09
-4.83467e-08
-8.76341e-09
-4.67722e-08
-1.16976e-08
-4.47995e-08
-1.45813e-08
-4.24387e-08
-1.73854e-08
-3.97039e-08
-2.00802e-08
-3.66138e-08
-2.26357e-08
-3.31912e-08
-2.50219e-08
-2.94631e-08
-2.721e-08
-2.54606e-08
-2.91723e-08
-2.12185e-08
-3.08832e-08
-1.67748e-08
-3.23199e-08
-1.47484e-08
-1.47312e-08
-1.2694e-08
-1.49302e-08
-1.06155e-08
-1.51017e-08
-8.51677e-09
-1.52454e-08
-6.40184e-09
-1.53609e-08
-4.2747e-09
-1.54477e-08
-2.13939e-09
-1.55058e-08
5.63863e-17
-1.55348e-08
2.13939e-09
-1.55348e-08
4.2747e-09
-1.55058e-08
6.40184e-09
-1.54477e-08
8.51677e-09
-1.53609e-08
1.06155e-08
-1.52454e-08
1.2694e-08
-1.51017e-08
1.47484e-08
-1.49302e-08
1.67748e-08
-1.47312e-08
2.12185e-08
-3.23199e-08
2.54606e-08
-3.08832e-08
2.94631e-08
-2.91723e-08
3.31912e-08
-2.721e-08
3.66138e-08
-2.50219e-08
3.97039e-08
-2.26357e-08
4.24387e-08
-2.00802e-08
4.47995e-08
-1.73854e-08
4.67722e-08
-1.45813e-08
4.83467e-08
-1.16976e-08
4.9517e-08
-8.76341e-09
5.02809e-08
-5.80659e-09
5.06401e-08
-2.85356e-09
5.05994e-08
7.0942e-11
5.01668e-08
2.94407e-09
4.93531e-08
5.74494e-09
4.81716e-08
8.45469e-09
4.66376e-08
1.10565e-08
4.47686e-08
1.35353e-08
4.25835e-08
1.58783e-08
4.01029e-08
1.80741e-08
3.73482e-08
2.01131e-08
3.43422e-08
2.19871e-08
3.11081e-08
2.36892e-08
2.76701e-08
2.52138e-08
2.40527e-08
2.65563e-08
2.0281e-08
2.77129e-08
1.63802e-08
2.86807e-08
1.23759e-08
2.94575e-08
8.29387e-09
3.00414e-08
4.15992e-09
3.04314e-08
3.06265e-08
-4.63354e-09
3.52601e-08
-9.23845e-09
3.50363e-08
-1.37861e-08
3.45891e-08
-1.82481e-08
3.39195e-08
-2.2596e-08
3.30286e-08
-2.68014e-08
3.19184e-08
-3.08365e-08
3.05914e-08
-3.46735e-08
2.90508e-08
-3.82851e-08
2.73008e-08
-4.16446e-08
2.53466e-08
-4.47259e-08
2.31944e-08
-4.75036e-08
2.08519e-08
-4.99537e-08
1.83284e-08
-5.2053e-08
1.56347e-08
-5.37801e-08
1.27836e-08
-5.51152e-08
9.78985e-09
-5.60408e-08
6.67051e-09
-5.65415e-08
3.44477e-09
-5.66048e-08
1.34221e-10
-5.62212e-08
-3.23718e-09
-5.53846e-08
-6.64315e-09
-5.40928e-08
-1.00552e-08
-5.23475e-08
-1.34429e-08
-5.0155e-08
-1.67738e-08
-4.75258e-08
-2.00145e-08
-4.44757e-08
-2.31304e-08
-4.1025e-08
-2.60864e-08
-3.71991e-08
-2.88479e-08
-3.30281e-08
-3.1381e-08
-2.85468e-08
-3.36536e-08
-2.37944e-08
-3.56357e-08
-1.88138e-08
-3.73005e-08
-1.65419e-08
-1.70032e-08
-1.42383e-08
-1.72337e-08
-1.19073e-08
-1.74326e-08
-9.55353e-09
-1.75992e-08
-7.18132e-09
-1.77331e-08
-4.79527e-09
-1.78338e-08
-2.39995e-09
-1.79011e-08
5.32428e-17
-1.79348e-08
2.39995e-09
-1.79348e-08
4.79527e-09
-1.79011e-08
7.18132e-09
-1.78338e-08
9.55353e-09
-1.77331e-08
1.19073e-08
-1.75992e-08
1.42383e-08
-1.74326e-08
1.65419e-08
-1.72337e-08
1.88138e-08
-1.70032e-08
2.37944e-08
-3.73005e-08
2.85468e-08
-3.56357e-08
3.30281e-08
-3.36536e-08
3.71991e-08
-3.1381e-08
4.1025e-08
-2.88479e-08
4.44757e-08
-2.60864e-08
4.75258e-08
-2.31304e-08
5.0155e-08
-2.00145e-08
5.23475e-08
-1.67738e-08
5.40928e-08
-1.34429e-08
5.53846e-08
-1.00552e-08
5.62212e-08
-6.64315e-09
5.66048e-08
-3.23718e-09
5.65415e-08
1.34221e-10
5.60408e-08
3.44477e-09
5.51152e-08
6.67051e-09
5.37801e-08
9.78985e-09
5.2053e-08
1.27836e-08
4.99537e-08
1.56347e-08
4.75036e-08
1.83284e-08
4.47259e-08
2.08519e-08
4.16446e-08
2.31944e-08
3.82851e-08
2.53466e-08
3.46735e-08
2.73008e-08
3.08365e-08
2.90508e-08
2.68014e-08
3.05914e-08
2.2596e-08
3.19184e-08
1.82481e-08
3.30286e-08
1.37861e-08
3.39195e-08
9.23845e-09
3.45891e-08
4.63354e-09
3.50363e-08
3.52601e-08
-5.17989e-09
4.044e-08
-1.03282e-08
4.01846e-08
-1.54134e-08
3.96743e-08
-2.0404e-08
3.891e-08
-2.52685e-08
3.78932e-08
-2.99759e-08
3.66257e-08
-3.44949e-08
3.51104e-08
-3.87948e-08
3.33508e-08
-4.28453e-08
3.13513e-08
-4.66165e-08
2.91178e-08
-5.00792e-08
2.6657e-08
-5.3205e-08
2.39777e-08
-5.59665e-08
2.10899e-08
-5.83379e-08
1.8006e-08
-6.02944e-08
1.47402e-08
-6.18137e-08
1.13091e-08
-6.28754e-08
7.73214e-09
-6.34616e-08
4.03097e-09
-6.35576e-08
2.30197e-10
-6.31519e-08
-3.64283e-09
-6.2237e-08
-7.55805e-09
-6.08095e-08
-1.14828e-08
-5.88705e-08
-1.53819e-08
-5.64262e-08
-1.92181e-08
-5.3488e-08
-2.29527e-08
-5.00727e-08
-2.65456e-08
-4.6203e-08
-2.99561e-08
-4.19069e-08
-3.3144e-08
-3.72183e-08
-3.60696e-08
-3.21763e-08
-3.86956e-08
-2.68252e-08
-4.09868e-08
-2.12138e-08
-4.29119e-08
-1.86532e-08
-1.95638e-08
-1.60565e-08
-1.98305e-08
-1.34285e-08
-2.00606e-08
-1.07744e-08
-2.02533e-08
-8.0993e-09
-2.04082e-08
-5.40835e-09
-2.05247e-08
-2.70683e-09
-2.06026e-08
6.25678e-17
-2.06416e-08
2.70683e-09
-2.06416e-08
5.40835e-09
-2.06026e-08
8.0993e-09
-2.05247e-08
1.07744e-08
-2.04082e-08
1.34285e-08
-2.02533e-08
1.60565e-08
-2.00606e-08
1.86532e-08
-1.98305e-08
2.12138e-08
-1.95638e-08
2.68252e-08
-4.29119e-08
3.21763e-08
-4.09868e-08
3.72183e-08
-3.86956e-08
4.19069e-08
-3.60696e-08
4.6203e-08
-3.3144e-08
5.00727e-08
-2.99561e-08
5.3488e-08
-2.65456e-08
5.64262e-08
-2.29527e-08
5.88705e-08
-1.92181e-08
6.08095e-08
-1.53819e-08
6.2237e-08
-1.14828e-08
6.31519e-08
-7.55805e-09
6.35576e-08
-3.64283e-09
6.34616e-08
2.30197e-10
6.28754e-08
4.03097e-09
6.18137e-08
7.73214e-09
6.02944e-08
1.13091e-08
5.83379e-08
1.47402e-08
5.59665e-08
1.8006e-08
5.3205e-08
2.10899e-08
5.00792e-08
2.39777e-08
4.66165e-08
2.6657e-08
4.28453e-08
2.91178e-08
3.87948e-08
3.13513e-08
3.44949e-08
3.33508e-08
2.99759e-08
3.51104e-08
2.52685e-08
3.66257e-08
2.0404e-08
3.78932e-08
1.54134e-08
3.891e-08
1.03282e-08
3.96743e-08
5.17989e-09
4.01846e-08
4.044e-08
-5.81556e-09
4.62555e-08
-1.15963e-08
4.59653e-08
-1.73073e-08
4.53853e-08
-2.29137e-08
4.45165e-08
-2.83809e-08
4.33604e-08
-3.36742e-08
4.1919e-08
-3.87591e-08
4.01953e-08
-4.36014e-08
3.8193e-08
-4.81671e-08
3.5917e-08
-5.24227e-08
3.33734e-08
-5.63355e-08
3.05698e-08
-5.98734e-08
2.75156e-08
-6.30054e-08
2.42219e-08
-6.57019e-08
2.07024e-08
-6.79347e-08
1.6973e-08
-6.96778e-08
1.30522e-08
-7.09074e-08
8.96179e-09
-7.16027e-08
4.72625e-09
-7.17459e-08
3.73422e-10
-7.13231e-08
-4.06561e-09
-7.03246e-08
-8.55655e-09
-6.87454e-08
-1.3062e-08
-6.65857e-08
-1.75416e-08
-6.38513e-08
-2.19525e-08
-6.05542e-08
-2.62499e-08
-5.67125e-08
-3.03873e-08
-5.23511e-08
-3.43176e-08
-4.75013e-08
-3.79937e-08
-4.22013e-08
-4.13697e-08
-3.64953e-08
-4.44015e-08
-3.04338e-08
-4.70483e-08
-2.40725e-08
-4.92732e-08
-2.11686e-08
-2.24677e-08
-1.82229e-08
-2.27761e-08
-1.52413e-08
-2.30422e-08
-1.22295e-08
-2.32651e-08
-9.19345e-09
-2.34442e-08
-6.13914e-09
-2.3579e-08
-3.07263e-09
-2.36691e-08
8.42527e-17
-2.37143e-08
3.07263e-09
-2.37143e-08
6.13914e-09
-2.36691e-08
9.19345e-09
-2.3579e-08
1.22295e-08
-2.34442e-08
1.52413e-08
-2.32651e-08
1.82229e-08
-2.30422e-08
2.11686e-08
-2.27761e-08
2.40725e-08
-2.24677e-08
3.04338e-08
-4.92732e-08
3.64953e-08
-4.70483e-08
4.22013e-08
-4.44015e-08
4.75013e-08
-4.13697e-08
5.23511e-08
-3.79937e-08
5.67125e-08
-3.43176e-08
6.05542e-08
-3.03873e-08
6.38513e-08
-2.62499e-08
6.65857e-08
-2.19525e-08
6.87454e-08
-1.75416e-08
7.03246e-08
-1.3062e-08
7.13231e-08
-8.55655e-09
7.17459e-08
-4.06561e-09
7.16027e-08
3.73422e-10
7.09074e-08
4.72625e-09
6.96778e-08
8.96179e-09
6.79347e-08
1.30522e-08
6.57019e-08
1.6973e-08
6.30054e-08
2.07024e-08
5.98734e-08
2.42219e-08
5.63355e-08
2.75156e-08