/*--------------------------------*- C++ -*----------------------------------*\
  =========                 |
  \\      /  F ield         | OpenFOAM: The Open Source CFD Toolbox
   \\    /   O peration     | Website:  https://openfoam.org
    \\  /    A nd           | Version:  10
     \\/     M anipulation  |
\*---------------------------------------------------------------------------*/
FoamFile
{
    format      ascii;
    class       volVectorField;
    location    "2.6";
    object      Ub;
}
// * * * * * * * * * * * * * * * * * * * * * * * * * * * * * * * * * * * * * //

dimensions      [0 1 -1 0 0 0 0];

internalField   nonuniform List<vector> 
12225
(
(0.00116293 -0.000236648 0)
(0.00333029 -0.000213146 0)
(0.00515145 -0.000180901 0)
(0.00661324 -0.000149258 0)
(0.00776637 -0.000122893 0)
(0.00868233 -0.000103169 0)
(0.00943 -8.9851e-05 0)
(0.0100676 -8.22422e-05 0)
(0.0106424 -7.97709e-05 0)
(0.011194 -8.22828e-05 0)
(0.0117586 -9.0268e-05 0)
(0.0123744 -0.000105222 0)
(0.0130898 -0.000130456 0)
(0.0139782 -0.000173149 0)
(0.0151725 -0.000250375 0)
(0.016968 -0.00041081 0)
(0.020234 -0.000840176 0)
(0.0288416 -0.00259733 0)
(0.00146331 -0.000791681 0)
(0.0041823 -0.000711139 0)
(0.00645052 -0.00060145 0)
(0.00825578 -0.000494403 0)
(0.00966774 -0.000405642 0)
(0.0107807 -0.000339518 0)
(0.0116837 -0.000295043 0)
(0.0124508 -0.000269733 0)
(0.0131414 -0.000261562 0)
(0.0138042 -0.000269925 0)
(0.0144835 -0.000296353 0)
(0.0152253 -0.000345657 0)
(0.0160867 -0.000428474 0)
(0.0171522 -0.00056762 0)
(0.0185674 -0.00081597 0)
(0.020622 -0.00131594 0)
(0.0239381 -0.00254503 0)
(0.0292757 -0.00660355 0)
(0.00168676 -0.00150279 0)
(0.00480862 -0.00134429 0)
(0.00738833 -0.00113088 0)
(0.00941886 -0.000924377 0)
(0.0109893 -0.000754385 0)
(0.0122146 -0.000628534 0)
(0.0132004 -0.000544333 0)
(0.0140328 -0.000496625 0)
(0.0147796 -0.000481253 0)
(0.0154957 -0.000496791 0)
(0.0162295 -0.000545786 0)
(0.0170301 -0.0006367 0)
(0.0179563 -0.000788179 0)
(0.0190899 -0.00103931 0)
(0.0205582 -0.00147649 0)
(0.022565 -0.00231139 0)
(0.0253482 -0.00412905 0)
(0.0283394 -0.00865214 0)
(0.00189604 -0.0023684 0)
(0.00538784 -0.00210749 0)
(0.00823917 -0.00176118 0)
(0.0104531 -0.00142975 0)
(0.0121427 -0.00115942 0)
(0.0134453 -0.000960793 0)
(0.0144831 -0.000828706 0)
(0.0153533 -0.000754157 0)
(0.0161307 -0.000729991 0)
(0.0168742 -0.000753402 0)
(0.0176345 -0.000827613 0)
(0.0184606 -0.000964437 0)
(0.0194076 -0.00118977 0)
(0.0205448 -0.00155608 0)
(0.0219622 -0.00217183 0)
(0.0237543 -0.00327252 0)
(0.0258681 -0.00538113 0)
(0.0274228 -0.00951334 0)
(0.00211232 -0.00340541 0)
(0.00597794 -0.00301047 0)
(0.0090872 -0.00249542 0)
(0.0114605 -0.0020093 0)
(0.0132421 -0.00161734 0)
(0.0145958 -0.00133203 0)
(0.015662 -0.00114362 0)
(0.0165487 -0.00103767 0)
(0.0173364 -0.00100286 0)
(0.018087 -0.0010342 0)
(0.0188512 -0.00113486 0)
(0.0196752 -0.00131907 0)
(0.0206061 -0.00161786 0)
(0.0216941 -0.00209145 0)
(0.0229852 -0.00285438 0)
(0.0244776 -0.00412266 0)
(0.0259658 -0.00627231 0)
(0.0266704 -0.00974131 0)
(0.00235034 -0.00464202 0)
(0.00661699 -0.00407013 0)
(0.00998303 -0.00334017 0)
(0.012497 -0.00266316 0)
(0.0143455 -0.00212508 0)
(0.0157253 -0.00173784 0)
(0.0167969 -0.00148426 0)
(0.0176791 -0.00134219 0)
(0.0184576 -0.00129461 0)
(0.0191955 -0.00133317 0)
(0.0199419 -0.00145994 0)
(0.0207377 -0.00168993 0)
(0.0216191 -0.00205614 0)
(0.0226146 -0.00261946 0)
(0.0237291 -0.00348497 0)
(0.024896 -0.00482106 0)
(0.0258662 -0.00684631 0)
(0.0260719 -0.0096463 0)
(0.00262509 -0.00611896 0)
(0.00734144 -0.00530975 0)
(0.0109705 -0.00430358 0)
(0.0136061 -0.00339057 0)
(0.0154937 -0.00267779 0)
(0.0168713 -0.00217197 0)
(0.0179227 -0.00184408 0)
(0.0187778 -0.00166117 0)
(0.0195262 -0.00159846 0)
(0.0202309 -0.00164276 0)
(0.0209375 -0.00179357 0)
(0.0216801 -0.00206457 0)
(0.0224822 -0.00248702 0)
(0.0233517 -0.00311552 0)
(0.0242626 -0.00403432 0)
(0.0251165 -0.00535416 0)
(0.0256849 -0.00716686 0)
(0.0255977 -0.00938819 0)
(0.00295543 -0.00789377 0)
(0.00819475 -0.00675952 0)
(0.012097 -0.00539379 0)
(0.01483 -0.00418788 0)
(0.0167214 -0.0032671 0)
(0.0180627 -0.00262485 0)
(0.0190639 -0.00221365 0)
(0.0198661 -0.00198554 0)
(0.0205614 -0.00190536 0)
(0.0212109 -0.00195326 0)
(0.0218554 -0.00212439 0)
(0.0225208 -0.0024288 0)
(0.0232186 -0.00289233 0)
(0.0239394 -0.00355792 0)
(0.0246387 -0.00448339 0)
(0.0252129 -0.00572602 0)
(0.0254808 -0.00729375 0)
(0.0252211 -0.00904539 0)
(0.00336805 -0.0100486 0)
(0.00923553 -0.00845762 0)
(0.0134214 -0.00661665 0)
(0.0162153 -0.00504567 0)
(0.0180634 -0.00387871 0)
(0.0193247 -0.00308185 0)
(0.0202395 -0.00257941 0)
(0.0209586 -0.00230281 0)
(0.0215751 -0.00220333 0)
(0.0221462 -0.00225236 0)
(0.0227063 -0.00243885 0)
(0.0232729 -0.00276694 0)
(0.0238464 -0.0032542 0)
(0.0244061 -0.0039288 0)
(0.0249 -0.00482214 0)
(0.0252356 -0.00594994 0)
(0.0252834 -0.00727449 0)
(0.0249211 -0.00865476 0)
(0.00390374 -0.0127041 0)
(0.0105489 -0.0104509 0)
(0.0150217 -0.00797134 0)
(0.0178185 -0.00594426 0)
(0.0195567 -0.00448908 0)
(0.0206813 -0.00352104 0)
(0.0214649 -0.00292223 0)
(0.022066 -0.00259617 0)
(0.0225751 -0.0024769 0)
(0.0230434 -0.00252493 0)
(0.0234974 -0.00272127 0)
(0.0239461 -0.00306241 0)
(0.0243815 -0.00355586 0)
(0.0247763 -0.00421455 0)
(0.0250798 -0.00504732 0)
(0.0252178 -0.00604233 0)
(0.0251053 -0.00714354 0)
(0.0246813 -0.00823261 0)
(0.00462866 -0.0160433 0)
(0.0122659 -0.012794 0)
(0.0170065 -0.00944173 0)
(0.0197093 -0.00684623 0)
(0.0212418 -0.00506051 0)
(0.022155 -0.00391029 0)
(0.0227527 -0.00321565 0)
(0.0231951 -0.00284341 0)
(0.0235656 -0.00270657 0)
(0.0239059 -0.00275286 0)
(0.0242335 -0.00295412 0)
(0.0245489 -0.00329821 0)
(0.0248377 -0.00378224 0)
(0.0250705 -0.00440546 0)
(0.0252029 -0.00516002 0)
(0.0251802 -0.00601893 0)
(0.0249505 -0.00692428 0)
(0.0244884 -0.00778513 0)
(0.00560681 -0.0199484 0)
(0.014491 -0.0153016 0)
(0.0194279 -0.0108588 0)
(0.0218961 -0.00762669 0)
(0.0231083 -0.00550637 0)
(0.0237317 -0.00418879 0)
(0.0240918 -0.00341454 0)
(0.024341 -0.00300834 0)
(0.024549 -0.00286093 0)
(0.0247449 -0.00290731 0)
(0.0249356 -0.00311052 0)
(0.0251141 -0.00345047 0)
(0.0252614 -0.00391549 0)
(0.0253487 -0.00449464 0)
(0.0253385 -0.00516989 0)
(0.0251914 -0.00590831 0)
(0.0248765 -0.0066575 0)
(0.0243858 -0.00734957 0)
(0.00690498 -0.0250417 0)
(0.0172911 -0.0181499 0)
(0.0222309 -0.0122188 0)
(0.0242422 -0.00824151 0)
(0.0249841 -0.00578454 0)
(0.0252294 -0.00432433 0)
(0.025301 -0.00349578 0)
(0.0253273 -0.00307469 0)
(0.0253551 -0.00292875 0)
(0.0253963 -0.00298087 0)
(0.0254458 -0.00318626 0)
(0.0254888 -0.00351815 0)
(0.0255031 -0.00395804 0)
(0.0254613 -0.0044882 0)
(0.0253333 -0.00508543 0)
(0.0250915 -0.00571651 0)
(0.024719 -0.00633738 0)
(0.0242166 -0.0068983 0)
(0.00919805 -0.03306 0)
(0.0219228 -0.0217413 0)
(0.0264102 -0.0134888 0)
(0.0274606 -0.00858098 0)
(0.0274006 -0.00579685 0)
(0.0270684 -0.00424304 0)
(0.02673 -0.00340621 0)
(0.0264552 -0.00300475 0)
(0.0262493 -0.00288341 0)
(0.0260974 -0.00295478 0)
(0.0259777 -0.00316797 0)
(0.0258657 -0.00349114 0)
(0.0257356 -0.00390095 0)
(0.0255615 -0.00437562 0)
(0.0253193 -0.00489036 0)
(0.0249909 -0.00541522 0)
(0.0245677 -0.005916 0)
(0.0240545 -0.00635865 0)
(0.0138229 -0.0471083 0)
(0.0304113 -0.0256234 0)
(0.0329247 -0.0138809 0)
(0.0319183 -0.00808589 0)
(0.030484 -0.0051865 0)
(0.0292829 -0.00371328 0)
(0.0283776 -0.0029873 0)
(0.0277103 -0.00268289 0)
(0.0272138 -0.00263511 0)
(0.0268315 -0.00275516 0)
(0.0265183 -0.00299196 0)
(0.0262368 -0.00331299 0)
(0.025956 -0.00369389 0)
(0.0256497 -0.00411272 0)
(0.0252979 -0.00454694 0)
(0.0248876 -0.00497263 0)
(0.024415 -0.00536585 0)
(0.0238853 -0.00570538 0)
(0.0251022 -0.0763043 0)
(0.0483981 -0.0260203 0)
(0.0433884 -0.0109293 0)
(0.0379411 -0.00550723 0)
(0.034238 -0.0032972 0)
(0.0318125 -0.00235745 0)
(0.0301836 -0.00199989 0)
(0.0290472 -0.00194381 0)
(0.0282187 -0.00206016 0)
(0.0275819 -0.00228226 0)
(0.027059 -0.0025726 0)
(0.0265961 -0.00290694 0)
(0.0261547 -0.00326664 0)
(0.0257077 -0.00363511 0)
(0.0252374 -0.00399634 0)
(0.0247348 -0.00433489 0)
(0.0241984 -0.0046369 0)
(0.0236334 -0.0048915 0)
(0.061545 0.00127496 0)
(0.0961703 0.00284953 0)
(0.0595696 0.00209554 0)
(0.0454608 0.00139483 0)
(0.0386284 0.00082747 0)
(0.0347546 0.000335179 0)
(0.0323072 -0.000117673 0)
(0.030632 -0.000549126 0)
(0.0293991 -0.000957334 0)
(0.0284198 -0.00134693 0)
(0.0275895 -0.00173109 0)
(0.0268506 -0.00210597 0)
(0.0261657 -0.00246651 0)
(0.0255106 -0.0028069 0)
(0.0248711 -0.00312084 0)
(0.0242399 -0.00340224 0)
(0.0236151 -0.003646 0)
(0.0229985 -0.00384876 0)
(0.0206034 0.0744349 0)
(0.0412588 0.030145 0)
(0.0391523 0.0151206 0)
(0.0351919 0.00868639 0)
(0.0321027 0.0053762 0)
(0.0298996 0.00341218 0)
(0.0283097 0.0021076 0)
(0.0271163 0.00115966 0)
(0.0261824 0.00043176 0)
(0.0254267 -0.000155221 0)
(0.0247879 -0.000650577 0)
(0.0242119 -0.00106851 0)
(0.0236671 -0.00143933 0)
(0.0231416 -0.00176839 0)
(0.0226286 -0.00205826 0)
(0.0221254 -0.00231023 0)
(0.0216316 -0.0025252 0)
(0.0211485 -0.00270431 0)
(0.00795466 0.0383542 0)
(0.0190486 0.0253155 0)
(0.0231329 0.0163981 0)
(0.0242004 0.0108866 0)
(0.0241682 0.00742052 0)
(0.0237813 0.00513829 0)
(0.0233073 0.00355641 0)
(0.0228338 0.00240496 0)
(0.0223839 0.00152995 0)
(0.0219585 0.000840176 0)
(0.0215547 0.000286345 0)
(0.0211749 -0.000158406 0)
(0.0208155 -0.000529923 0)
(0.020465 -0.000840038 0)
(0.0201182 -0.00110545 0)
(0.0197749 -0.00133169 0)
(0.0194358 -0.00152299 0)
(0.0191024 -0.00168286 0)
(0.00436727 0.0221547 0)
(0.0113953 0.0176067 0)
(0.0154966 0.0132285 0)
(0.0176744 0.00977878 0)
(0.0187687 0.0072152 0)
(0.0192799 0.00532786 0)
(0.0194768 0.00392312 0)
(0.0194993 0.0028573 0)
(0.0194207 0.00203092 0)
(0.01928 0.00137657 0)
(0.019099 0.000848788 0)
(0.0188906 0.000416549 0)
(0.0186654 6.28334e-05 0)
(0.018434 -0.000225339 0)
(0.0181981 -0.000461108 0)
(0.017956 -0.000660148 0)
(0.0177109 -0.000827726 0)
(0.0174654 -0.000968088 0)
(0.00293758 0.0147829 0)
(0.00799432 0.0126045 0)
(0.0115085 0.010151 0)
(0.013785 0.00795462 0)
(0.0152127 0.0061556 0)
(0.0160911 0.004732 0)
(0.0166185 0.00361578 0)
(0.0169189 0.00273762 0)
(0.0170691 0.00204025 0)
(0.0171168 0.00147995 0)
(0.0170928 0.00102445 0)
(0.0170174 0.000650224 0)
(0.0169048 0.000340157 0)
(0.0167656 8.25112e-05 0)
(0.0166119 -0.000126243 0)
(0.0164489 -0.000296813 0)
(0.0162769 -0.000440599 0)
(0.0160994 -0.00056149 0)
(0.00218897 0.010289 0)
(0.00609907 0.00910457 0)
(0.00907527 0.0076393 0)
(0.0112109 0.00621616 0)
(0.0126973 0.00497068 0)
(0.0137145 0.00393263 0)
(0.0144012 0.00308582 0)
(0.0148554 0.00239967 0)
(0.0151447 0.00184303 0)
(0.0153154 0.00138909 0)
(0.0153994 0.00101633 0)
(0.0154194 0.000708074 0)
(0.0153917 0.000451572 0)
(0.0153283 0.000237089 0)
(0.0152386 5.73728e-05 0)
(0.0151328 -8.81302e-05 0)
(0.0150165 -0.00020766 0)
(0.0148908 -0.000308583 0)
(0.0017393 0.00729413 0)
(0.00491576 0.00659826 0)
(0.00746677 0.00568196 0)
(0.00941254 0.00474182 0)
(0.0108528 0.00388024 0)
(0.0119001 0.00313477 0)
(0.0126517 0.00250833 0)
(0.0131835 0.00198895 0)
(0.013552 0.00156016 0)
(0.0137984 0.00120589 0)
(0.0139531 0.000912154 0)
(0.0140383 0.000667527 0)
(0.0140705 0.000462889 0)
(0.0140625 0.000291049 0)
(0.0140239 0.000146346 0)
(0.0139625 2.47921e-05 0)
(0.0138864 -7.36895e-05 0)
(0.0138 -0.000155359 0)
(0.00144065 0.00518383 0)
(0.00410929 0.00475626 0)
(0.00632686 0.00416733 0)
(0.00808625 0.00353942 0)
(0.00944183 0.00294481 0)
(0.0104669 0.00241613 0)
(0.0112315 0.00196194 0)
(0.0117948 0.00157864 0)
(0.0122033 0.00125777 0)
(0.0124931 0.000989757 0)
(0.0126914 0.00076566 0)
(0.0128192 0.000577788 0)
(0.0128925 0.000419792 0)
(0.0129235 0.000286529 0)
(0.0129219 0.000173861 0)
(0.0128952 7.84592e-05 0)
(0.0128503 -1.44968e-06 0)
(0.0127928 -6.62401e-05 0)
(0.00122561 0.00364282 0)
(0.00351767 0.00337473 0)
(0.00546635 0.00299264 0)
(0.00705418 0.00257383 0)
(0.0083116 0.00216773 0)
(0.00928841 0.00179938 0)
(0.0100367 0.00147764 0)
(0.010603 0.00120241 0)
(0.011026 0.000969471 0)
(0.0113368 0.000773166 0)
(0.0115596 0.000607845 0)
(0.0117136 0.000468431 0)
(0.0118135 0.000350609 0)
(0.0118712 0.000250804 0)
(0.0118957 0.000166094 0)
(0.0118945 9.40915e-05 0)
(0.0118733 3.28454e-05 0)
(0.0118379 -1.79167e-05 0)
(0.00105917 0.00249223 0)
(0.00305315 0.00232457 0)
(0.00477553 0.00207917 0)
(0.00620537 0.00180467 0)
(0.00735988 0.00153385 0)
(0.00827421 0.00128456 0)
(0.00898812 0.00106408 0)
(0.00953899 0.000873511 0)
(0.00995911 0.000710809 0)
(0.0102751 0.000572704 0)
(0.0105085 0.00045569 0)
(0.0106763 0.000356505 0)
(0.0107923 0.000272307 0)
(0.0108671 0.000200699 0)
(0.0109095 0.000139694 0)
(0.0109262 8.76552e-05 0)
(0.0109229 4.32262e-05 0)
(0.0109041 5.3484e-06 0)
(0.000920641 0.00162309 0)
(0.00266208 0.00152135 0)
(0.00418338 0.00136927 0)
(0.00546326 0.00119658 0)
(0.00651135 0.00102403 0)
(0.00735325 0.000863438 0)
(0.00801998 0.00072007 0)
(0.00854193 0.000595144 0)
(0.00894613 0.000487749 0)
(0.00925542 0.000396047 0)
(0.00948855 0.000317951 0)
(0.00966072 0.000251454 0)
(0.00978414 0.000194776 0)
(0.00986863 0.000146394 0)
(0.00992208 0.000105033 0)
(0.00995085 6.96287e-05 0)
(0.00996008 3.9296e-05 0)
(0.0099539 1.32825e-05 0)
(0.000795253 0.00096594 0)
(0.00230469 0.000908616 0)
(0.00363412 0.000821496 0)
(0.00476348 0.000721462 0)
(0.00569794 0.000620569 0)
(0.00645656 0.000525901 0)
(0.00706379 0.000440777 0)
(0.0075444 0.000366132 0)
(0.0079209 0.000301605 0)
(0.00821266 0.000246234 0)
(0.00843584 0.00019887 0)
(0.00860366 0.000158379 0)
(0.00872689 0.000123739 0)
(0.00881423 9.40682e-05 0)
(0.00887275 6.86182e-05 0)
(0.00890817 4.67643e-05 0)
(0.00892514 2.79837e-05 0)
(0.00892743 1.18366e-05 0)
(0.0006671 0.000476595 0)
(0.00193642 0.000449395 0)
(0.00306087 0.000407538 0)
(0.0040227 0.000359088 0)
(0.00482444 0.000309891 0)
(0.00548023 0.000263449 0)
(0.00600914 0.00022146 0)
(0.00643092 0.00018446 0)
(0.00676387 0.000152331 0)
(0.00702396 0.000124649 0)
(0.00722463 0.00010088 0)
(0.00737701 8.04891e-05 0)
(0.00749024 6.29879e-05 0)
(0.00757176 4.79501e-05 0)
(0.00762764 3.50131e-05 0)
(0.00766285 2.38722e-05 0)
(0.00768143 1.42749e-05 0)
(0.00768668 6.02619e-06 0)
(0.000493982 0.00013488 0)
(0.00143492 0.00012735 0)
(0.00227037 0.000115673 0)
(0.00298646 0.00010209 0)
(0.00358416 8.82394e-05 0)
(0.00407315 7.51149e-05 0)
(0.00446695 6.32074e-05 0)
(0.00477987 5.26803e-05 0)
(0.00502535 4.35117e-05 0)
(0.0052152 3.55897e-05 0)
(0.00535948 2.877e-05 0)
(0.0054666 2.29052e-05 0)
(0.00554347 1.78598e-05 0)
(0.00559578 1.35152e-05 0)
(0.00562821 9.76955e-06 0)
(0.00564457 6.53757e-06 0)
(0.00564802 3.74954e-06 0)
(0.0056412 1.36225e-06 0)
(1.12972e-07 -6.03809e-05 -7.80404e-31)
(1.16975e-06 -6.11408e-05 7.90212e-31)
(3.91966e-06 -6.03707e-05 0)
(7.95245e-06 -5.95904e-05 0)
(1.25395e-05 -5.90119e-05 0)
(1.73519e-05 -5.85994e-05 -7.57175e-31)
(2.22554e-05 -5.82891e-05 0)
(2.71828e-05 -5.80332e-05 0)
(3.20879e-05 -5.78025e-05 0)
(3.69313e-05 -5.75805e-05 0)
(4.16764e-05 -5.7359e-05 7.40856e-31)
(4.62891e-05 -5.71344e-05 0)
(5.07373e-05 -5.69057e-05 0)
(5.49914e-05 -5.66735e-05 0)
(5.90243e-05 -5.64393e-05 0)
(6.28115e-05 -5.62053e-05 7.25694e-31)
(6.63314e-05 -5.59737e-05 0)
(6.95652e-05 -5.57471e-05 0)
(7.24971e-05 -5.55282e-05 0)
(7.51143e-05 -5.53196e-05 0)
(7.74067e-05 -5.51238e-05 0)
(7.93675e-05 -5.49433e-05 0)
(8.09925e-05 -5.47806e-05 0)
(8.22804e-05 -5.46378e-05 7.05206e-31)
(8.32325e-05 -5.45171e-05 -7.03634e-31)
(8.38526e-05 -5.44204e-05 7.02378e-31)
(8.41469e-05 -5.43496e-05 7.01458e-31)
(8.41238e-05 -5.43061e-05 0)
(8.37938e-05 -5.42915e-05 0)
(8.31688e-05 -5.43071e-05 -7.00921e-31)
(8.22628e-05 -5.43541e-05 -7.01539e-31)
(8.10909e-05 -5.44335e-05 0)
(7.96694e-05 -5.45461e-05 0)
(7.80155e-05 -5.46929e-05 -7.05968e-31)
(7.61473e-05 -5.48747e-05 0)
(7.40833e-05 -5.5092e-05 0)
(7.18427e-05 -5.53456e-05 7.14477e-31)
(6.94444e-05 -5.56362e-05 0)
(6.69078e-05 -5.59644e-05 7.22533e-31)
(6.42521e-05 -5.6331e-05 1.45461e-30)
(6.1496e-05 -5.67367e-05 0)
(5.86583e-05 -5.71823e-05 0)
(5.5757e-05 -5.76688e-05 0)
(5.28099e-05 -5.8197e-05 0)
(4.98338e-05 -5.87679e-05 0)
(4.68454e-05 -5.93827e-05 1.5339e-30)
(4.38604e-05 -6.00422e-05 1.55102e-30)
(4.08938e-05 -6.07475e-05 1.56932e-30)
(3.796e-05 -6.14994e-05 0)
(3.50727e-05 -6.22985e-05 -1.60955e-30)
(3.22448e-05 -6.31448e-05 0)
(2.94887e-05 -6.4038e-05 1.65465e-30)
(2.68158e-05 -6.49768e-05 1.67898e-30)
(2.42372e-05 -6.59586e-05 0)
(2.17629e-05 -6.69794e-05 0)
(1.94026e-05 -6.80334e-05 0)
(1.7165e-05 -6.91118e-05 1.78609e-30)
(1.50581e-05 -7.02032e-05 0)
(1.30888e-05 -7.1292e-05 0)
(1.12634e-05 -7.23583e-05 0)
(9.58644e-06 -7.33772e-05 0)
(8.06152e-06 -7.43178e-05 0)
(6.69039e-06 -7.51434e-05 0)
(5.47298e-06 -7.58108e-05 0)
(4.40713e-06 -7.62712e-05 0)
(3.48845e-06 -7.6471e-05 -1.97665e-30)
(2.7102e-06 -7.63537e-05 0)
(2.06338e-06 -7.58625e-05 0)
(1.53694e-06 -7.49444e-05 1.93723e-30)
(1.1181e-06 -7.35545e-05 1.90131e-30)
(7.92966e-07 -7.16618e-05 0)
(5.47097e-07 -6.92543e-05 -1.79017e-30)
(3.66258e-07 -6.63448e-05 1.71496e-30)
(2.37058e-07 -6.29737e-05 0)
(1.47489e-07 -5.92106e-05 -1.53055e-30)
(8.7292e-08 -5.51519e-05 0)
(4.81072e-08 -5.09148e-05 0)
(2.34352e-08 -4.66281e-05 1.20531e-30)
(8.44571e-09 -4.24199e-05 0)
(-2.96609e-10 -3.8406e-05 -9.92772e-31)
(-5.13958e-09 -3.46786e-05 0)
(-7.62711e-09 -3.12991e-05 8.09063e-31)
(-8.73865e-09 -2.8295e-05 7.31408e-31)
(-9.07402e-09 -2.56593e-05 6.63278e-31)
(-8.98442e-09 -2.33531e-05 1.20733e-30)
(-8.66229e-09 -2.13073e-05 -1.10156e-30)
(-8.19748e-09 -1.9423e-05 0)
(-7.61347e-09 -1.75721e-05 0)
(-6.88885e-09 -1.56001e-05 0)
(-5.97818e-09 -1.33437e-05 -6.89854e-31)
(-4.84274e-09 -1.0684e-05 -5.52348e-31)
(-3.50387e-09 -7.65269e-06 3.95635e-31)
(-2.10992e-09 -4.56581e-06 0)
(-9.42163e-10 -2.02112e-06 -1.04489e-31)
(-2.53257e-10 -5.39072e-07 -2.78694e-32)
(-2.41253e-11 -5.15612e-08 -2.66565e-33)
(3.39338e-13 1.68909e-16 0)
(3.38281e-13 3.94746e-16 0)
(3.3855e-13 -1.07886e-14 0)
(3.3884e-13 3.80775e-16 3.56853e-41)
(3.36411e-13 1.94564e-15 0)
(3.32633e-13 1.60358e-15 0)
(3.28626e-13 2.11833e-15 -1.25032e-40)
(3.24045e-13 2.09502e-15 0)
(3.19307e-13 2.21927e-15 0)
(3.14415e-13 2.19646e-15 -1.28401e-40)
(3.09638e-13 2.07781e-15 0)
(3.05117e-13 1.93847e-15 0)
(3.00874e-13 1.8041e-15 1.07475e-40)
(2.96901e-13 1.67687e-15 1.0071e-40)
(2.93184e-13 1.5546e-15 0)
(2.89727e-13 1.43634e-15 -8.79378e-41)
(2.8651e-13 1.32239e-15 0)
(2.83537e-13 1.21351e-15 7.61252e-41)
(2.80798e-13 1.1105e-15 0)
(2.78279e-13 1.01381e-15 6.55524e-41)
(2.75972e-13 9.23672e-16 6.07834e-41)
(2.73864e-13 8.40128e-16 0)
(2.71937e-13 7.63126e-16 0)
(2.70183e-13 6.92405e-16 0)
(2.68584e-13 6.27729e-16 0)
(2.6714e-13 5.68772e-16 0)
(2.65824e-13 5.15182e-16 0)
(2.64636e-13 4.6663e-16 0)
(2.63557e-13 4.22725e-16 3.42991e-41)
(2.62582e-13 3.83103e-16 -3.2205e-41)
(2.617e-13 3.47426e-16 0)
(2.60904e-13 3.15352e-16 0)
(2.60188e-13 2.86544e-16 0)
(2.59537e-13 2.60717e-16 0)
(2.58953e-13 2.37573e-16 -4.90192e-41)
(2.58423e-13 2.16855e-16 0)
(2.57945e-13 1.98322e-16 4.48657e-41)
(2.57518e-13 1.81741e-16 -4.31106e-41)
(2.57124e-13 1.66927e-16 0)
(2.56777e-13 1.5368e-16 0)
(2.56458e-13 1.41843e-16 0)
(2.56174e-13 1.31268e-16 3.77653e-41)
(2.55915e-13 1.21818e-16 3.67634e-41)
(2.55684e-13 1.1337e-16 0)
(2.55473e-13 1.05823e-16 3.50677e-41)
(2.55282e-13 9.90783e-17 3.43525e-41)
(2.55112e-13 9.30457e-17 -3.37128e-41)
(2.54954e-13 8.76577e-17 0)
(2.54814e-13 8.28424e-17 0)
(2.54689e-13 7.8542e-17 -3.21731e-41)
(2.54576e-13 7.47024e-17 0)
(2.5447e-13 7.12778e-17 0)
(2.54376e-13 6.82277e-17 0)
(2.5429e-13 6.55163e-17 0)
(2.54212e-13 6.31158e-17 3.05331e-41)
(2.54146e-13 6.09982e-17 3.03076e-41)
(2.54081e-13 5.91441e-17 0)
(2.54021e-13 5.75356e-17 2.99379e-41)
(2.53969e-13 5.61617e-17 0)
(2.53917e-13 5.50156e-17 0)
(2.53872e-13 5.40932e-17 2.95677e-41)
(2.53826e-13 5.34029e-17 0)
(2.53783e-13 5.2954e-17 2.9442e-41)
(2.5374e-13 5.27651e-17 0)
(2.537e-13 5.28709e-17 0)
(2.53656e-13 5.33131e-17 2.9467e-41)
(2.5361e-13 5.41534e-17 0)
(2.53558e-13 5.54747e-17 2.96813e-41)
(2.53499e-13 5.73899e-17 0)
(2.53433e-13 6.00521e-17 0)
(2.53353e-13 6.36689e-17 0)
(2.53252e-13 6.85224e-17 -3.1002e-41)
(2.53134e-13 7.50048e-17 0)
(2.52982e-13 8.36648e-17 3.25413e-41)
(2.52784e-13 9.52895e-17 0)
(2.52531e-13 1.11043e-16 0)
(2.52194e-13 1.327e-16 0)
(2.51745e-13 1.63123e-16 0)
(2.51136e-13 2.07166e-16 0)
(2.50277e-13 2.73883e-16 0)
(2.49033e-13 3.82151e-16 0)
(2.4711e-13 5.78825e-16 -1.66371e-40)
(2.43763e-13 1.01414e-15 0)
(2.36361e-13 2.37934e-15 0)
(2.88339e-05 -0.000213901 2.76357e-30)
(9.01221e-05 -0.000216108 -2.78993e-30)
(0.000157628 -0.000216139 0)
(0.000229464 -0.000215611 5.56258e-30)
(0.000304002 -0.000214895 0)
(0.000380164 -0.000214072 -2.76233e-30)
(0.000457269 -0.000213148 -5.48813e-30)
(0.000534876 -0.000212115 -5.45777e-30)
(0.000612684 -0.000210967 0)
(0.000690472 -0.000209703 -5.38807e-30)
(0.000768063 -0.000208323 2.68345e-30)
(0.000845305 -0.000206834 0)
(0.000922065 -0.000205242 0)
(0.000998222 -0.000203556 0)
(0.00107366 -0.000201786 0)
(0.00114828 -0.000199944 2.57066e-30)
(0.00122197 -0.000198042 0)
(0.00129465 -0.000196092 5.00773e-30)
(0.00136622 -0.000194107 0)
(0.00143662 -0.0001921 0)
(0.00150576 -0.000190084 -4.84244e-30)
(0.00157358 -0.000188069 0)
(0.00164002 -0.00018607 4.73234e-30)
(0.00170503 -0.000184096 2.35925e-30)
(0.00176855 -0.000182158 -2.33346e-30)
(0.00183056 -0.000180268 2.3083e-30)
(0.00189102 -0.000178433 2.28387e-30)
(0.00194989 -0.000176663 0)
(0.00200715 -0.000174965 0)
(0.00206279 -0.000173345 -2.21608e-30)
(0.00211678 -0.000171811 -6.53688e-30)
(0.00216912 -0.000170368 0)
(0.00221979 -0.000169019 0)
(0.00226878 -0.00016777 -2.1416e-30)
(0.00231609 -0.000166624 0)
(0.00236172 -0.000165582 0)
(0.00240566 -0.000164649 2.09963e-30)
(0.00244789 -0.000163825 0)
(0.00248843 -0.000163112 6.17762e-30)
(0.00252724 -0.000162511 4.14114e-30)
(0.00256433 -0.000162024 0)
(0.00259968 -0.000161651 0)
(0.00263327 -0.000161393 -8.09512e-30)
(0.00266506 -0.00016125 -8.08475e-30)
(0.00269503 -0.000161223 -8.08054e-30)
(0.00272314 -0.000161313 1.2188e-29)
(0.00274935 -0.000161518 4.11024e-30)
(0.00277358 -0.000161839 -3.98699e-30)
(0.00279577 -0.000162276 8.12544e-30)
(0.00281585 -0.000162827 -4.14249e-30)
(0.00283371 -0.000163489 0)
(0.00284925 -0.00016426 4.17875e-30)
(0.00286233 -0.000165135 1.2468e-29)
(0.00287282 -0.000166106 0)
(0.00288054 -0.000167165 0)
(0.00288531 -0.000168298 0)
(0.00288693 -0.000169489 4.31303e-30)
(0.00288514 -0.000170715 0)
(0.00287971 -0.000171948 8.61754e-30)
(0.00287034 -0.000173154 0)
(0.00285674 -0.000174289 8.74074e-30)
(0.00283859 -0.000175304 0)
(0.00281554 -0.000176139 -8.84027e-30)
(0.00278727 -0.000176728 0)
(0.00275343 -0.000176997 8.89051e-30)
(0.00271369 -0.00017687 -1.33956e-29)
(0.00266777 -0.000176269 0)
(0.00261542 -0.000175122 -8.8066e-30)
(0.00255646 -0.000173368 4.4211e-30)
(0.00249083 -0.000170966 4.36055e-30)
(0.00241857 -0.000167901 0)
(0.00233988 -0.000164197 -1.24569e-29)
(0.00225514 -0.000159915 4.08047e-30)
(0.0021649 -0.000155165 0)
(0.00206993 -0.000150098 -3.83107e-30)
(0.00197118 -0.000144901 -7.30502e-30)
(0.00186976 -0.000139785 0)
(0.00176687 -0.000134971 3.44721e-30)
(0.00166378 -0.000130673 0)
(0.00156168 -0.000127082 3.17436e-30)
(0.00146159 -0.000124364 0)
(0.00136431 -0.00012266 -3.07404e-30)
(0.00127026 -0.000122098 3.12617e-30)
(0.00117951 -0.000122815 9.3848e-30)
(0.00109163 -0.000124979 1.91261e-29)
(0.00100576 -0.000128834 -1.97442e-29)
(0.00092056 -0.000134743 0)
(0.000834202 -0.00014327 0)
(0.000744471 -0.000155295 0)
(0.000648961 -0.000172198 8.81049e-30)
(0.000545597 -0.000196093 -1.0112e-29)
(0.000433774 -0.000229969 1.18686e-29)
(0.00031634 -0.000277232 0)
(0.000201927 -0.000339527 -5.26116e-29)
(0.000105002 -0.000411402 -2.1264e-29)
(3.97344e-05 -0.000471133 -2.43551e-29)
(9.00108e-06 -0.000468384 0)
(7.40645e-07 -0.00032287 0)
(-1.87833e-08 -6.53152e-05 0)
(4.33403e-12 -5.79558e-15 -9.49769e-41)
(3.37549e-13 7.37496e-15 0)
(3.32791e-13 4.0145e-15 4.77946e-40)
(3.29081e-13 6.71349e-15 3.93692e-40)
(3.24137e-13 6.08373e-15 -6.90263e-40)
(3.19401e-13 6.69126e-15 0)
(3.14294e-13 6.58057e-15 -1.09482e-39)
(3.09417e-13 6.1657e-15 0)
(3.04885e-13 5.72819e-15 -6.49863e-40)
(3.00654e-13 5.32341e-15 8.96624e-40)
(2.96691e-13 4.94345e-15 8.36755e-40)
(2.92984e-13 4.57747e-15 0)
(2.89531e-13 4.22253e-15 2.5931e-40)
(2.86328e-13 3.88017e-15 -4.55282e-40)
(2.83365e-13 3.55323e-15 1.97077e-40)
(2.80635e-13 3.24393e-15 0)
(2.7813e-13 2.9538e-15 1.65841e-40)
(2.75835e-13 2.68345e-15 -1.77805e-40)
(2.73738e-13 2.43306e-15 0)
(2.71826e-13 2.20222e-15 -2.79045e-40)
(2.70081e-13 1.99031e-15 -2.56803e-40)
(2.68494e-13 1.79658e-15 -2.36473e-40)
(2.67054e-13 1.61997e-15 0)
(2.65751e-13 1.45953e-15 0)
(2.64564e-13 1.31411e-15 0)
(2.63496e-13 1.18265e-15 2.45635e-40)
(2.6253e-13 1.06404e-15 -6.74063e-41)
(2.61652e-13 9.57262e-16 0)
(2.60861e-13 8.61236e-16 1.38319e-40)
(2.6015e-13 7.75032e-16 1.29272e-40)
(2.59501e-13 6.97725e-16 0)
(2.58921e-13 6.28465e-16 -8.9433e-41)
(2.58394e-13 5.66455e-16 2.14748e-40)
(2.57922e-13 5.10974e-16 7.71902e-41)
(2.57492e-13 4.61362e-16 -2.64695e-40)
(2.57107e-13 4.1701e-16 0)
(2.56762e-13 3.77363e-16 0)
(2.56442e-13 3.4194e-16 0)
(2.5616e-13 3.10295e-16 5.62747e-41)
(2.55905e-13 2.81994e-16 2.08307e-40)
(2.5567e-13 2.56712e-16 1.49667e-40)
(2.55462e-13 2.34118e-16 4.83322e-41)
(2.55277e-13 2.1392e-16 1.86894e-40)
(2.55103e-13 1.95868e-16 -4.43432e-41)
(2.54949e-13 1.79734e-16 0)
(2.54812e-13 1.65321e-16 0)
(2.54683e-13 1.52437e-16 -1.67543e-40)
(2.54572e-13 1.40936e-16 0)
(2.54467e-13 1.30692e-16 0)
(2.54373e-13 1.21553e-16 1.21226e-40)
(2.5429e-13 1.13428e-16 0)
(2.54213e-13 1.0624e-16 1.5299e-40)
(2.5414e-13 9.98991e-17 3.43294e-41)
(2.54076e-13 9.43425e-17 0)
(2.54021e-13 8.95229e-17 1.47714e-40)
(2.53965e-13 8.54063e-17 0)
(2.5392e-13 8.19623e-17 0)
(2.53868e-13 7.92061e-17 3.21644e-41)
(2.53823e-13 7.71342e-17 1.11831e-40)
(2.5378e-13 7.57823e-17 3.18025e-41)
(2.53741e-13 7.52081e-17 0)
(2.537e-13 7.5513e-17 0)
(2.53658e-13 7.68242e-17 1.43604e-40)
(2.5361e-13 7.9328e-17 0)
(2.53559e-13 8.3265e-17 1.45556e-40)
(2.53504e-13 8.8969e-17 0)
(2.5344e-13 9.6904e-17 0)
(2.53356e-13 1.07697e-16 0)
(2.53263e-13 1.22162e-16 -3.65488e-41)
(2.53145e-13 1.41477e-16 0)
(2.5299e-13 1.67282e-16 4.11885e-41)
(2.528e-13 2.01902e-16 0)
(2.52546e-13 2.48777e-16 0)
(2.52217e-13 3.13135e-16 1.60031e-40)
(2.5178e-13 4.03352e-16 -1.78521e-40)
(2.51184e-13 5.33577e-16 0)
(2.5036e-13 7.2979e-16 0)
(2.49176e-13 1.04496e-15 0)
(2.47396e-13 1.6045e-15 4.71983e-40)
(2.44577e-13 2.77209e-15 0)
(2.40127e-13 5.91814e-15 -2.6291e-39)
(5.22657e-05 -0.000430857 2.22685e-29)
(0.000157455 -0.000433417 -3.74066e-33)
(0.000263946 -0.000435055 0)
(0.000371903 -0.000435732 8.80375e-33)
(0.000481283 -0.000435569 0)
(0.000591909 -0.000434691 0)
(0.000703538 -0.000433193 -2.23124e-29)
(0.000815909 -0.000431148 -1.11064e-29)
(0.000928764 -0.000428607 1.10134e-29)
(0.00104186 -0.000425613 -1.09526e-29)
(0.00115497 -0.000422201 0)
(0.00126789 -0.000418403 0)
(0.00138042 -0.00041425 -1.06103e-29)
(0.00149238 -0.000409773 -2.09733e-29)
(0.0016036 -0.000405002 2.07109e-29)
(0.00171392 -0.000399968 0)
(0.0018232 -0.000394703 2.01473e-29)
(0.00193129 -0.000389239 9.97039e-30)
(0.00203808 -0.000383608 0)
(0.00214344 -0.000377841 1.92302e-29)
(0.00224727 -0.000371969 -9.50906e-30)
(0.00234949 -0.000366024 -1.85901e-29)
(0.00244999 -0.000360035 9.19099e-30)
(0.00254872 -0.00035403 0)
(0.00264559 -0.000348036 1.76182e-29)
(0.00274057 -0.000342077 1.72967e-29)
(0.0028336 -0.000336179 0)
(0.00292464 -0.000330361 1.66649e-29)
(0.00301367 -0.000324645 0)
(0.00310067 -0.000319048 1.60551e-29)
(0.00318562 -0.000313585 -7.95555e-30)
(0.00326851 -0.000308271 0)
(0.00334935 -0.000303119 0)
(0.00342814 -0.000298138 0)
(0.00350489 -0.000293337 0)
(0.00357962 -0.000288724 0)
(0.00365235 -0.000284305 0)
(0.0037231 -0.000280083 1.39525e-29)
(0.00379189 -0.000276063 -6.77793e-30)
(0.00385876 -0.000272247 0)
(0.00392374 -0.000268636 0)
(0.00398686 -0.00026523 0)
(0.00404816 -0.000262029 -2.61374e-29)
(0.00410766 -0.000259032 -1.30037e-29)
(0.00416541 -0.000256238 -1.96713e-31)
(0.00422144 -0.000253644 1.99357e-31)
(0.00427579 -0.000251247 -1.23834e-29)
(0.00432849 -0.000249044 -1.24665e-29)
(0.00437957 -0.000247031 2.45083e-29)
(0.00442907 -0.000245202 1.20492e-29)
(0.00447701 -0.000243552 0)
(0.00452344 -0.000242074 1.18741e-29)
(0.00456836 -0.000240759 2.38153e-29)
(0.00461182 -0.000239597 0)
(0.00465383 -0.000238577 0)
(0.00469442 -0.000237683 -1.16229e-29)
(0.00473361 -0.000236898 0)
(0.00477142 -0.000236202 0)
(0.00480789 -0.00023557 3.47198e-29)
(0.00484302 -0.000234974 2.29236e-29)
(0.00487686 -0.000234381 1.16566e-29)
(0.00490944 -0.000233756 0)
(0.0049408 -0.00023306 -1.15823e-29)
(0.00497101 -0.000232251 0)
(0.00500012 -0.000231288 3.3983e-29)
(0.00502823 -0.000230133 -1.14227e-29)
(0.00505543 -0.000228752 -2.22201e-29)
(0.00508186 -0.000227124 -3.33063e-29)
(0.00510764 -0.000225241 0)
(0.00513293 -0.000223115 2.16152e-29)
(0.00515791 -0.000220784 0)
(0.00518274 -0.000218315 1.03077e-29)
(0.00520758 -0.000215802 2.0838e-29)
(0.0052326 -0.000213372 2.05796e-29)
(0.00525793 -0.000211172 -2.0345e-29)
(0.00528365 -0.000209369 9.82612e-30)
(0.00530984 -0.000208134 0)
(0.00533651 -0.000207638 0)
(0.00536367 -0.000208043 -1.99915e-29)
(0.0053913 -0.000209502 -9.81267e-30)
(0.00541935 -0.00021217 0)
(0.00544779 -0.000216218 -1.06637e-29)
(0.00547658 -0.000221862 0)
(0.00550565 -0.0002294 -1.08198e-29)
(0.0055349 -0.000239252 4.68624e-29)
(0.00556409 -0.000252021 -4.94894e-29)
(0.00559276 -0.00026858 2.61859e-29)
(0.00562002 -0.00029018 0)
(0.0056442 -0.00031862 -3.13454e-29)
(0.00566215 -0.000356449 7.10382e-29)
(0.00566813 -0.000407112 0)
(0.00565177 -0.000474756 0)
(0.00559506 -0.000562955 0)
(0.00546877 -0.000671096 -6.83567e-29)
(0.00522971 -0.000787302 0)
(0.00482167 -0.000878457 0)
(0.00418087 -0.000882887 0)
(0.00321343 -0.000739679 0)
(0.00173534 -0.000626846 0)