/*--------------------------------*- C++ -*----------------------------------*\
  =========                 |
  \\      /  F ield         | OpenFOAM: The Open Source CFD Toolbox
   \\    /   O peration     | Website:  https://openfoam.org
    \\  /    A nd           | Version:  10
     \\/     M anipulation  |
\*---------------------------------------------------------------------------*/
FoamFile
{
    format      ascii;
    class       volScalarField;
    location    "4000";
    object      p;
}
// * * * * * * * * * * * * * * * * * * * * * * * * * * * * * * * * * * * * * //

dimensions      [1 -1 -2 0 0 0 0];

internalField   nonuniform List<scalar> 
3200
(
107.027
107.031
107.039
107.051
107.066
107.084
107.104
107.128
107.153
107.18
107.209
107.239
107.27
107.302
107.334
107.366
107.399
107.43
107.462
107.492
107.522
107.55
107.577
107.602
107.625
107.647
107.667
107.685
107.7
107.714
107.725
107.735
107.742
107.747
107.749
107.75
107.749
107.746
107.741
107.734
104.566
104.57
104.578
104.59
104.605
104.623
104.645
104.668
104.694
104.722
104.751
104.782
104.814
104.846
104.879
104.912
104.945
104.978
105.01
105.042
105.072
105.101
105.129
105.155
105.18
105.203
105.223
105.242
105.259
105.273
105.285
105.295
105.302
105.308
105.311
105.312
105.311
105.308
105.303
105.296
102.096
102.1
102.109
102.121
102.136
102.155
102.177
102.202
102.228
102.257
102.288
102.32
102.353
102.387
102.421
102.456
102.491
102.526
102.56
102.593
102.625
102.657
102.687
102.715
102.741
102.766
102.789
102.809
102.827
102.843
102.857
102.868
102.877
102.883
102.887
102.889
102.888
102.886
102.881
102.874
99.6168
99.6213
99.6301
99.6428
99.6592
99.679
99.7019
99.7276
99.7558
99.7862
99.8185
99.8524
99.8875
99.9237
99.9606
99.9979
100.035
100.073
100.11
100.146
100.181
100.216
100.249
100.28
100.31
100.338
100.363
100.387
100.408
100.426
100.442
100.455
100.466
100.474
100.48
100.482
100.483
100.48
100.476
100.469
97.1282
97.133
97.1423
97.1557
97.1731
97.1941
97.2184
97.2457
97.2757
97.3082
97.3427
97.3791
97.417
97.4561
97.4961
97.5368
97.5778
97.6188
97.6597
97.7
97.7396
97.7782
97.8155
97.8513
97.8853
97.9174
97.9473
97.9748
97.9998
98.0221
98.0415
98.0581
98.0716
98.0821
98.0896
98.094
98.0954
98.0938
98.0894
98.0823
94.6297
94.6347
94.6446
94.6589
94.6774
94.6998
94.7258
94.7551
94.7874
94.8223
94.8597
94.8991
94.9403
94.983
95.027
95.0718
95.1172
95.1629
95.2087
95.2542
95.2991
95.3432
95.3861
95.4277
95.4675
95.5054
95.5411
95.5743
95.6048
95.6323
95.6567
95.6779
95.6955
95.7097
95.7202
95.727
95.7303
95.7299
95.726
95.7188
92.1204
92.1259
92.1364
92.1517
92.1715
92.1956
92.2235
92.2551
92.2899
92.3278
92.3684
92.4114
92.4565
92.5035
92.552
92.6018
92.6525
92.7038
92.7556
92.8073
92.8588
92.9098
92.9598
93.0087
93.056
93.1014
93.1447
93.1854
93.2234
93.2581
93.2895
93.3171
93.3407
93.3601
93.3752
93.3858
93.3919
93.3934
93.3904
93.3831
89.5998
89.6056
89.6169
89.6333
89.6546
89.6805
89.7106
89.7446
89.7824
89.8235
89.8677
89.9147
89.9643
90.016
90.0698
90.1252
90.182
90.2399
90.2986
90.3578
90.4171
90.4763
90.535
90.5928
90.6495
90.7045
90.7576
90.8082
90.8561
90.9007
90.9416
90.9784
91.0106
91.0379
91.06
91.0764
91.087
91.0917
91.0904
91.0833
87.067
87.0732
87.0853
87.1029
87.1257
87.1535
87.1859
87.2227
87.2635
87.3081
87.3562
87.4076
87.4619
87.519
87.5785
87.6402
87.7038
87.769
87.8356
87.9032
87.9716
88.0404
88.1093
88.1779
88.2459
88.3128
88.3782
88.4416
88.5025
88.5603
88.6145
88.6643
88.7092
88.7485
88.7814
88.8073
88.8257
88.836
88.8381
88.8318
84.5212
84.5278
84.5407
84.5595
84.5839
84.6137
84.6484
84.688
84.732
84.7802
84.8324
84.8884
84.9478
85.0104
85.076
85.1444
85.2154
85.2885
85.3637
85.4407
85.5191
85.5988
85.6793
85.7604
85.8417
85.9228
86.0032
86.0826
86.1602
86.2355
86.3078
86.3762
86.4397
86.4974
86.5479
86.59
86.6225
86.6439
86.6532
86.6497
81.9614
81.9684
81.9821
82.0021
82.0281
82.0599
82.097
82.1393
82.1865
82.2384
82.2947
82.3553
82.4198
82.4881
82.56
82.6353
82.7138
82.7953
82.8796
82.9664
83.0556
83.1469
83.2402
83.3351
83.4314
83.5287
83.6268
83.7252
83.8234
83.9209
84.0171
84.1111
84.2017
84.2877
84.3673
84.4383
84.4981
84.5436
84.5711
84.5772
79.3869
79.3943
79.4087
79.4299
79.4574
79.491
79.5304
79.5754
79.6257
79.6811
79.7414
79.8064
79.876
79.9498
80.0279
80.11
80.196
80.2858
80.3792
80.476
80.5762
80.6795
80.7859
80.8953
81.0074
81.1222
81.2394
81.359
81.4807
81.6044
81.7297
81.8564
81.9838
82.1111
82.2371
82.3594
82.4747
82.5774
82.6588
82.7055
76.7967
76.8045
76.8197
76.8418
76.8708
76.9061
76.9476
76.995
77.0481
77.1068
77.1708
77.2399
77.3141
77.3932
77.4771
77.5656
77.6587
77.7563
77.8584
77.9648
78.0755
78.1904
78.3096
78.433
78.5607
78.6926
78.8288
78.9694
79.1147
79.265
79.4208
79.5826
79.7516
79.929
80.1165
80.3164
80.5313
80.7639
81.0167
81.2899
74.1903
74.1983
74.2141
74.2372
74.2673
74.3041
74.3474
74.3969
74.4525
74.514
74.5812
74.654
74.7323
74.8159
74.9049
74.9991
75.0986
75.2032
75.313
75.428
75.5482
75.6736
75.8043
75.9403
76.0818
76.2289
76.3818
76.5407
76.7059
76.8779
77.0576
77.2459
77.4447
77.6565
77.8855
78.1382
78.4246
78.7608
79.1724
79.7013
71.5668
71.5751
71.5913
71.6151
71.6462
71.6842
71.7289
71.7802
71.8377
71.9015
71.9713
72.047
72.1286
72.216
72.3091
72.408
72.5127
72.6231
72.7393
72.8613
72.9894
73.1234
73.2637
73.4102
73.5631
73.7226
73.8887
74.0617
74.2415
74.4282
74.6218
74.8221
75.029
75.2418
75.4596
75.6809
75.9028
76.1206
76.3252
76.5123
68.9258
68.9343
68.9509
68.9752
69.0069
69.0457
69.0915
69.1439
69.2029
69.2682
69.3399
69.4177
69.5017
69.5917
69.6878
69.7901
69.8985
70.013
70.1339
70.2612
70.395
70.5355
70.6828
70.8372
70.9988
71.1677
71.3442
71.5282
71.7197
71.9184
72.1239
72.335
72.5503
72.7673
72.9823
73.1901
73.3834
73.5529
73.6868
73.7827
66.267
66.2755
66.2923
66.3168
66.3489
66.3882
66.4344
66.4875
66.5472
66.6134
66.6861
66.765
66.8503
66.9418
67.0396
67.1437
67.2541
67.371
67.4945
67.6248
67.7619
67.9061
68.0577
68.2169
68.384
68.5593
68.7431
68.9358
69.1375
69.3485
69.5688
69.7981
70.0358
70.2804
70.5293
70.778
71.019
71.2398
71.4204
71.542
63.5901
63.5986
63.6154
63.6399
63.672
63.7113
63.7576
63.8107
63.8704
63.9367
64.0094
64.0885
64.1738
64.2655
64.3635
64.4678
64.5785
64.6958
64.8196
64.9503
65.088
65.2329
65.3853
65.5456
65.7142
65.8915
66.0781
66.2747
66.4823
66.7018
66.9347
67.1828
67.4484
67.735
68.0469
68.3905
68.7746
69.2117
69.7198
70.5495
60.8951
60.9036
60.9202
60.9445
60.9762
61.0151
61.0608
61.1134
61.1725
61.238
61.3098
61.388
61.4723
61.5628
61.6595
61.7624
61.8715
61.987
62.1089
62.2374
62.3727
62.5149
62.6644
62.8215
62.9865
63.1599
63.3425
63.5348
63.738
63.9534
64.1827
64.4283
64.6934
64.9827
65.3027
65.663
66.0776
66.5674
67.1698
93.0323
58.1823
58.1906
58.2069
58.2306
58.2617
58.2997
58.3445
58.3958
58.4536
58.5176
58.5877
58.6639
58.746
58.8341
58.9281
59.028
59.1338
59.2456
59.3634
59.4872
59.6173
59.7537
59.8966
60.0462
60.2027
60.3664
60.5376
60.7167
60.9042
61.1006
61.3065
61.5225
61.7491
61.9868
62.2352
62.4929
62.7562
63.017
63.3115
82.2717
55.4521
55.4601
55.4758
55.4989
55.5289
55.5657
55.609
55.6586
55.7144
55.7761
55.8437
55.917
55.996
56.0805
56.1705
56.2661
56.367
56.4734
56.5852
56.7024
56.825
56.953
57.0865
57.2254
57.3698
57.5196
57.6748
57.8353
58.0009
58.1714
58.3464
58.5251
58.7065
58.8893
59.0711
59.2489
59.4185
59.5746
59.7711
70.9422
52.7049
52.7126
52.7276
52.7497
52.7785
52.8137
52.8551
52.9025
52.9557
53.0145
53.0789
53.1485
53.2234
53.3035
53.3886
53.4786
53.5735
53.6732
53.7776
53.8866
54.0002
54.1182
54.2406
54.3671
54.4975
54.6318
54.7694
54.9101
55.0533
55.1983
55.3443
55.4902
55.6347
55.7762
55.9126
56.0417
56.1609
56.2676
56.4183
64.2776
49.9414
49.9487
49.963
49.9839
50.0112
50.0445
50.0837
50.1284
50.1786
50.2341
50.2946
50.36
50.4302
50.505
50.5843
50.668
50.756
50.8481
50.9442
51.0441
51.1478
51.255
51.3655
51.4791
51.5954
51.7143
51.8351
51.9575
52.0807
52.2042
52.327
52.4481
52.5664
52.6804
52.7888
52.89
52.9825
53.0648
53.1964
59.3949
47.1625
47.1694
47.1828
47.2024
47.228
47.2592
47.2958
47.3376
47.3845
47.4361
47.4923
47.553
47.6179
47.687
47.76
47.8369
47.9173
48.0013
48.0886
48.1791
48.2725
48.3687
48.4673
48.5683
48.6712
48.7757
48.8814
48.988
49.0948
49.2013
49.3069
49.4106
49.5118
49.6093
49.7022
49.7891
49.8689
49.94
50.068
55.2018
44.3692
44.3756
44.3881
44.4063
44.4299
44.4589
44.4927
44.5314
44.5746
44.6221
44.6737
44.7293
44.7887
44.8517
44.9181
44.9878
45.0605
45.1361
45.2144
45.2952
45.3784
45.4636
45.5508
45.6396
45.7299
45.8214
45.9137
46.0066
46.0999
46.1932
46.286
46.3782
46.4692
46.5586
46.6457
46.7297
46.8094
46.8831
47.0386
51.3517
41.5625
41.5684
41.5798
41.5965
41.6182
41.6447
41.6757
41.711
41.7504
41.7937
41.8406
41.8909
41.9446
42.0013
42.0609
42.1232
42.1881
42.2552
42.3246
42.3958
42.4689
42.5435
42.6195
42.6967
42.775
42.8542
42.9341
43.0146
43.0957
43.1774
43.2597
43.3428
43.4269
43.5125
43.6001
43.6907
43.7851
43.8846
44.2056
47.7781
38.7434
38.7488
38.7592
38.7743
38.7941
38.8181
38.8461
38.878
38.9135
38.9524
38.9945
39.0396
39.0875
39.1379
39.1907
39.2458
39.3028
39.3616
39.4221
39.484
39.5471
39.6113
39.6765
39.7424
39.8089
39.876
39.9436
40.0117
40.0803
40.1495
40.2198
40.2914
40.3652
40.442
40.5235
40.6117
40.71
40.8233
41.5676
44.6796
35.9131
35.9179
35.9273
35.9409
35.9586
35.9801
36.0052
36.0337
36.0654
36.1
36.1373
36.1771
36.2193
36.2636
36.3097
36.3576
36.407
36.4578
36.5096
36.5624
36.6159
36.6701
36.7246
36.7794
36.8344
36.8894
36.9443
36.9992
37.054
37.1088
37.1637
37.2188
37.2745
37.331
37.3887
37.448
37.5092
37.5724
38.2075
41.6194
33.0727
33.077
33.0853
33.0974
33.1131
33.1322
33.1544
33.1796
33.2075
33.2378
33.2705
33.3053
33.3419
33.3802
33.42
33.4611
33.5032
33.5461
33.5898
33.6339
33.6782
33.7227
33.7671
33.8112
33.8549
33.898
33.9403
33.9819
34.0224
34.0618
34.1
34.1368
34.1718
34.2049
34.2355
34.2628
34.2858
34.3028
34.3954
38.3311
30.2234
30.2271
30.2344
30.2451
30.2588
30.2755
30.295
30.3169
30.3411
30.3675
30.3957
30.4256
30.457
30.4897
30.5235
30.5581
30.5933
30.6291
30.665
30.701
30.7368
30.7723
30.8072
30.8413
30.8744
30.9064
30.9369
30.9659
30.9931
31.0182
31.041
31.0611
31.0782
31.0919
31.1014
31.1061
31.105
31.097
31.0809
35.0489
27.3661
27.3693
27.3757
27.3849
27.3969
27.4113
27.4281
27.447
27.4678
27.4903
27.5144
27.5398
27.5663
27.5937
27.6219
27.6506
27.6795
27.7086
27.7376
27.7662
27.7943
27.8216
27.848
27.8731
27.8969
27.9189
27.9391
27.9571
27.9727
27.9857
27.9957
28.0024
28.0056
28.005
28.0001
27.9907
27.9765
27.957
27.9321
31.3253
24.5019
24.5047
24.5101
24.5181
24.5283
24.5406
24.5549
24.5709
24.5885
24.6076
24.6278
24.649
24.6711
24.6937
24.7168
24.7401
24.7635
24.7866
24.8094
24.8316
24.8529
24.8732
24.8922
24.9097
24.9254
24.9392
24.9507
24.9598
24.966
24.9692
24.9691
24.9655
24.9581
24.9468
24.9314
24.9122
24.8891
24.8626
24.8328
26.7072
21.6319
21.6342
21.6388
21.6455
21.6541
21.6645
21.6764
21.6899
21.7046
21.7204
21.7371
21.7545
21.7726
21.791
21.8096
21.8282
21.8466
21.8646
21.8821
21.8987
21.9144
21.9288
21.9418
21.9531
21.9625
21.9698
21.9746
21.9768
21.9759
21.9719
21.9642
21.9527
21.9371
21.917
21.8925
21.8637
21.8313
21.797
21.7644
22.4649
18.7568
18.7588
18.7626
18.7681
18.7753
18.7838
18.7937
18.8047
18.8168
18.8297
18.8432
18.8573
18.8718
18.8865
18.9012
18.9157
18.9299
18.9436
18.9566
18.9688
18.9799
18.9897
18.998
19.0046
19.0094
19.012
19.0122
19.0099
19.0045
18.996
18.9838
18.9675
18.9466
18.9201
18.887
18.8453
18.7922
18.723
18.6299
18.5599
15.8777
15.8793
15.8824
15.8868
15.8926
15.8995
15.9075
15.9164
15.926
15.9363
15.9471
15.9583
15.9696
15.981
15.9924
16.0035
16.0142
16.0244
16.0338
16.0424
16.05
16.0563
16.0613
16.0647
16.0664
16.0661
16.0638
16.0592
16.0521
16.0424
16.0297
16.0138
15.9947
15.972
15.9456
15.9156
15.8823
15.8468
15.8116
15.7819
12.9951
12.9964
12.9988
13.0024
13.0069
13.0123
13.0186
13.0255
13.033
13.041
13.0493
13.0579
13.0666
13.0752
13.0837
13.092
13.0998
13.1072
13.1138
13.1197
13.1247
13.1286
13.1313
13.1327
13.1326
13.131
13.1278
13.1227
13.1158
13.1069
13.096
13.0831
13.0682
13.0515
13.0332
13.0136
12.9933
12.9731
12.9539
12.9368
10.11
10.1109
10.1127
10.1154
10.1188
10.1229
10.1276
10.1327
10.1383
10.1442
10.1504
10.1567
10.163
10.1693
10.1755
10.1814
10.1869
10.192
10.1965
10.2004
10.2035
10.2058
10.2071
10.2074
10.2066
10.2046
10.2014
10.197
10.1912
10.1842
10.1758
10.1663
10.1557
10.1441
10.1319
10.1192
10.1064
10.0939
10.0821
10.0711
7.22278
7.22344
7.22472
7.22656
7.22893
7.23176
7.235
7.23858
7.24244
7.24651
7.25074
7.25504
7.25935
7.26361
7.26773
7.27165
7.27529
7.27859
7.28147
7.28387
7.28572
7.28695
7.28752
7.28737
7.28645
7.28473
7.28218
7.27881
7.27461
7.26961
7.26386
7.25743
7.25042
7.24294
7.23514
7.22719
7.21926
7.21152
7.20412
7.19722
4.33421
4.3346
4.33535
4.33644
4.33784
4.3395
4.3414
4.3435
4.34576
4.34814
4.35061
4.35311
4.35561
4.35806
4.36043
4.36267
4.36473
4.36658
4.36817
4.36947
4.37043
4.37102
4.37122
4.37099
4.37031
4.36918
4.36757
4.3655
4.36298
4.36002
4.35668
4.35298
4.349
4.3448
4.34046
4.33606
4.33169
4.32742
4.32333
4.31947
1.44483
1.44496
1.4452
1.44556
1.44602
1.44657
1.4472
1.44789
1.44864
1.44942
1.45023
1.45105
1.45187
1.45267
1.45344
1.45417
1.45483
1.45543
1.45594
1.45634
1.45664
1.45682
1.45686
1.45676
1.45652
1.45612
1.45558
1.45488
1.45404
1.45307
1.45197
1.45077
1.44948
1.44812
1.44673
1.44532
1.44392
1.44255
1.44123
1.43999
107.726
107.715
107.703
107.689
107.672
107.654
107.633
107.61
107.585
107.557
107.528
107.496
107.463
107.427
107.39
107.351
107.311
107.269
107.226
107.183
107.138
107.093
107.048
107.003
106.958
106.914
106.87
106.828
106.787
106.747
106.71
106.675
106.643
106.613
106.587
106.565
106.546
106.532
106.522
106.517
105.288
105.277
105.265
105.25
105.233
105.214
105.193
105.169
105.143
105.115
105.084
105.052
105.017
104.981
104.943
104.903
104.861
104.819
104.775
104.73
104.684
104.639
104.592
104.546
104.501
104.456
104.411
104.368
104.327
104.287
104.249
104.214
104.181
104.151
104.125
104.102
104.083
104.069
104.058
104.053
102.865
102.854
102.841
102.826
102.808
102.788
102.765
102.74
102.712
102.682
102.65
102.615
102.579
102.54
102.5
102.458
102.414
102.369
102.323
102.277
102.229
102.181
102.134
102.086
102.038
101.992
101.946
101.902
101.859
101.818
101.779
101.743
101.709
101.679
101.652
101.629
101.61
101.595
101.585
101.579
100.459
100.448
100.434
100.417
100.398
100.375
100.351
100.323
100.293
100.26
100.225
100.187
100.148
100.106
100.062
100.017
99.9697
99.9216
99.8724
99.8225
99.7721
99.7214
99.6708
99.6204
99.5707
99.5218
99.474
99.4277
99.3832
99.3406
99.3004
99.2629
99.2282
99.1969
99.1691
99.1451
99.1253
99.11
99.0995
99.0941
98.0726
98.06
98.0445
98.0259
98.0042
97.9793
97.9514
97.9204
97.8864
97.8496
97.8101
97.7681
97.7237
97.6771
97.6287
97.5786
97.5271
97.4744
97.4209
97.3667
97.3123
97.2577
97.2035
97.1497
97.0968
97.0449
96.9944
96.9456
96.8988
96.8542
96.8121
96.7729
96.7368
96.7042
96.6753
96.6504
96.6299
96.6141
96.6032
96.5976
95.7083
95.6943
95.6767
95.6554
95.6304
95.6016
95.5692
95.5333
95.4939
95.4514
95.4059
95.3576
95.3069
95.2541
95.1993
95.143
95.0855
95.0269
94.9678
94.9082
94.8486
94.7893
94.7305
94.6725
94.6156
94.5602
94.5064
94.4545
94.4049
94.3578
94.3135
94.2724
94.2345
94.2004
94.1702
94.1443
94.1229
94.1064
94.0951
94.0893
93.3716
93.3557
93.3352
93.31
93.2801
93.2457
93.2068
93.1638
93.1169
93.0664
93.0126
92.956
92.897
92.8358
92.7729
92.7087
92.6435
92.5777
92.5115
92.4454
92.3797
92.3146
92.2504
92.1875
92.126
92.0664
92.0087
91.9534
91.9006
91.8507
91.8039
91.7605
91.7208
91.6849
91.6533
91.6262
91.6039
91.5867
91.5749
91.5688
91.0705
91.0517
91.0269
90.9958
90.9587
90.9159
90.8677
90.8145
90.7568
90.6953
90.6304
90.5627
90.4926
90.4208
90.3476
90.2736
90.199
90.1244
90.05
89.9762
89.9033
89.8316
89.7614
89.6928
89.6263
89.562
89.5001
89.441
89.3848
89.3318
89.2823
89.2365
89.1946
89.157
89.1239
89.0955
89.0722
89.0542
89.0419
89.0356
88.8173
88.7943
88.7625
88.7222
88.6739
88.6181
88.5558
88.4877
88.4147
88.3378
88.2578
88.1753
88.0912
88.006
87.9202
87.8343
87.7488
87.6639
87.5801
87.4977
87.4169
87.3379
87.261
87.1865
87.1145
87.0452
86.979
86.9158
86.8561
86.8
86.7476
86.6994
86.6554
86.6159
86.5812
86.5515
86.5272
86.5084
86.4956
86.489
86.6331
86.6031
86.5595
86.5034
86.436
86.3592
86.2747
86.1842
86.0892
85.991
85.8907
85.7893
85.6876
85.5861
85.4854
85.3859
85.288
85.1919
85.0979
85.0061
84.9169
84.8304
84.7467
84.666
84.5884
84.5142
84.4435
84.3764
84.3131
84.2539
84.1988
84.1481
84.102
84.0607
84.0245
83.9936
83.9683
83.9488
83.9355
83.9286
84.5592
84.5154
84.4475
84.36
84.2574
84.1441
84.0238
83.8993
83.7728
83.6459
83.5197
83.3951
83.2726
83.1527
83.0355
82.9214
82.8104
82.7026
82.5982
82.4972
82.3996
82.3057
82.2153
82.1286
82.0458
81.9668
81.8919
81.821
81.7545
81.6923
81.6346
81.5817
81.5337
81.4908
81.4532
81.4211
81.3949
81.3747
81.3609
81.3538
82.6971
82.613
82.4783
82.3166
82.1422
81.9638
81.7865
81.613
81.4449
81.2827
81.1265
80.9764
80.8321
80.6934
80.56
80.4316
80.3082
80.1896
80.0755
79.9659
79.8608
79.7601
79.6638
79.5718
79.4842
79.401
79.3223
79.2482
79.1787
79.114
79.0541
78.9992
78.9496
78.9052
78.8664
78.8334
78.8064
78.7856
78.7715
78.7642
81.6205
81.1014
80.6993
80.3458
80.033
79.7538
79.502
79.2725
79.0613
78.8654
78.6823
78.5102
78.3476
78.1934
78.0468
77.907
77.7735
77.6461
77.5242
77.4078
77.2965
77.1904
77.0892
76.9929
76.9015
76.8149
76.7332
76.6565
76.5847
76.5179
76.4563
76.3999
76.3489
76.3034
76.2637
76.2299
76.2023
76.1811
76.1667
76.1593
86.6411
79.0818
78.4906
78.0248
77.6431
77.3197
77.038
76.787
76.5594
76.3501
76.1556
75.9736
75.802
75.6398
75.4858
75.3393
75.1998
75.0668
74.9399
74.8189
74.7035
74.5936
74.4891
74.3899
74.2958
74.207
74.1232
74.0447
73.9713
73.9032
73.8403
73.7829
73.7311
73.6849
73.6446
73.6103
73.5824
73.5609
73.5462
73.5387
82.323
75.4528
75.2419
75.0172
74.7859
74.5571
74.3352
74.1219
73.9179
73.723
73.5371
73.3595
73.1899
73.0279
72.8732
72.7253
72.5839
72.4489
72.32
72.197
72.0798
71.9682
71.8621
71.7614
71.6661
71.5761
71.4914
71.412
71.3379
71.2691
71.2058
71.148
71.0958
71.0493
71.0088
70.9743
70.9462
70.9247
70.91
70.9024
75.6068
72.2618
72.1554
72.0291
71.8811
71.7187
71.5477
71.3725
71.1965
71.0218
70.8503
70.683
70.5205
70.3635
70.212
70.0664
69.9266
69.7925
69.6643
69.5417
69.4247
69.3133
69.2073
69.1068
69.0116
68.9217
68.8372
68.7579
68.684
68.6154
68.5523
68.4947
68.4427
68.3964
68.3561
68.3218
68.2938
68.2724
68.2578
68.2503
71.6531
69.3682
69.2865
69.1848
69.0604
68.9195
68.7675
68.6087
68.4464
68.2834
68.1215
67.9621
67.8064
67.6549
67.5083
67.3666
67.2303
67.0993
66.9737
66.8535
66.7386
66.6291
66.5249
66.426
66.3323
66.2438
66.1605
66.0825
66.0097
65.9421
65.8799
65.8232
65.7719
65.7263
65.6866
65.6528
65.6252
65.6041
65.5897
65.5823
70.525
66.7647
66.6346
66.4959
66.342
66.1801
66.0146
65.8484
65.6833
65.5205
65.3609
65.2053
65.054
64.9074
64.7657
64.6291
64.4975
64.371
64.2497
64.1336
64.0225
63.9165
63.8156
63.7197
63.6287
63.5428
63.4619
63.386
63.3152
63.2495
63.1889
63.1336
63.0837
63.0393
63.0005
62.9676
62.9407
62.9201
62.906
62.8988
86.619
64.6196
64.177
63.9011
63.661
63.4454
63.2472
63.0619
62.887
62.7204
62.5612
62.4085
62.2618
62.1208
61.9852
61.8548
61.7296
61.6093
61.4939
61.3834
61.2777
61.1767
61.0804
60.9888
60.9018
60.8196
60.7421
60.6693
60.6013
60.5381
60.4798
60.4266
60.3785
60.3357
60.2983
60.2666
60.2406
60.2207
60.2072
60.2002
75.8584
61.7746
61.2559
61.0038
60.774
60.5634
60.369
60.1881
60.0186
59.8587
59.7071
59.5627
59.4248
59.2928
59.1661
59.0445
58.9278
58.8156
58.708
58.6048
58.5059
58.4112
58.3209
58.2348
58.1529
58.0754
58.0021
57.9332
57.8688
57.8088
57.7535
57.7029
57.6571
57.6163
57.5807
57.5503
57.5256
57.5066
57.4936
57.4869
67.0901
58.6539
58.1077
57.9077
57.7198
57.5432
57.377
57.22
57.0713
56.93
56.7953
56.6664
56.5429
56.4242
56.3101
56.2003
56.0945
55.9926
55.8945
55.8001
55.7095
55.6225
55.5392
55.4596
55.3838
55.3117
55.2435
55.1792
55.119
55.0628
55.0109
54.9634
54.9203
54.8818
54.8482
54.8196
54.7962
54.7782
54.766
54.7597
61.0438
55.3059
54.8336
54.6949
54.5602
54.4296
54.303
54.1804
54.0617
53.9467
53.8354
53.7274
53.6226
53.521
53.4224
53.3267
53.234
53.1441
53.057
52.9728
52.8915
52.8132
52.7378
52.6656
52.5964
52.5306
52.468
52.4089
52.3533
52.3014
52.2533
52.2091
52.1691
52.1333
52.1019
52.0752
52.0534
52.0366
52.0251
52.0192
56.0453
51.7778
51.5105
51.4343
51.3543
51.2715
51.187
51.1015
51.0156
50.9297
50.8442
50.7593
50.6754
50.5926
50.5111
50.4309
50.3523
50.2753
50.2002
50.1269
50.0557
49.9866
49.9197
49.8553
49.7934
49.7341
49.6775
49.6239
49.5734
49.526
49.482
49.4415
49.4047
49.3717
49.3428
49.3182
49.2979
49.2824
49.2718
49.2663
51.403
48.2859
48.22
48.1928
48.1575
48.1154
48.0677
48.0154
47.9596
47.901
47.8401
47.7777
47.7142
47.6499
47.5853
47.5206
47.4562
47.3924
47.3292
47.267
47.206
47.1463
47.0881
47.0316
46.9771
46.9245
46.8742
46.8263
46.7809
46.7382
46.6985
46.6618
46.6283
46.5983
46.572
46.5494
46.5309
46.5167
46.507
46.502
46.9015
44.9854
45.0028
45.0088
45.005
44.9926
44.9728
44.9466
44.9151
44.879
44.8391
44.7961
44.7506
44.703
44.6538
44.6035
44.5524
44.5008
44.4491
44.3975
44.3463
44.2958
44.2461
44.1974
44.1501
44.1042
44.0601
44.0178
43.9776
43.9397
43.9042
43.8713
43.8413
43.8143
43.7905
43.7701
43.7534
43.7405
43.7316
43.7271
42.4951
41.8402
41.8751
41.8992
41.9136
41.9195
41.9178
41.9094
41.8952
41.8759
41.8521
41.8245
41.7935
41.7598
41.7238
41.6859
41.6464
41.6059
41.5645
41.5226
41.4804
41.4383
41.3966
41.3553
41.3149
41.2754
41.2372
41.2004
41.1652
41.1319
41.1005
41.0714
41.0448
41.0207
40.9995
40.9813
40.9663
40.9547
40.9468
40.9427
38.7925
38.7998
38.836
38.8644
38.8853
38.8994
38.9072
38.9091
38.9057
38.8974
38.8849
38.8684
38.8485
38.8256
38.8
38.7722
38.7425
38.7113
38.6788
38.6453
38.6112
38.5768
38.5422
38.5077
38.4736
38.4401
38.4074
38.3757
38.3453
38.3163
38.289
38.2635
38.24
38.2188
38.2001
38.1839
38.1707
38.1604
38.1533
38.1497
35.8253
35.833
35.8629
35.8883
35.909
35.925
35.9364
35.9432
35.9458
35.9442
35.9389
35.93
35.9179
35.9029
35.8853
35.8654
35.8434
35.8198
35.7946
35.7683
35.7411
35.7132
35.685
35.6565
35.6281
35.5999
35.5723
35.5453
35.5193
35.4944
35.4707
35.4487
35.4283
35.4098
35.3934
35.3792
35.3675
35.3585
35.3523
35.3491
32.8955
32.9029
32.928
32.9502
32.9692
32.9849
32.9972
33.006
33.0115
33.0136
33.0126
33.0087
33.0018
32.9924
32.9806
32.9666
32.9506
32.9329
32.9137
32.8932
32.8717
32.8494
32.8265
32.8032
32.7798
32.7564
32.7332
32.7105
32.6884
32.6672
32.647
32.6281
32.6105
32.5945
32.5803
32.568
32.5579
32.55
32.5446
32.5418
29.991
29.9977
30.0193
30.0387
30.0557
30.0703
30.0823
30.0916
30.0983
30.1023
30.1037
30.1027
30.0993
30.0936
30.0858
30.076
30.0645
30.0513
30.0367
30.0209
30.0041
29.9863
29.9679
29.949
29.9298
29.9105
29.8913
29.8723
29.8538
29.8359
29.8188
29.8027
29.7877
29.774
29.7618
29.7512
29.7425
29.7357
29.731
29.7286
27.1054
27.1115
27.1303
27.1473
27.1623
27.1754
27.1865
27.1954
27.2022
27.2069
27.2094
27.21
27.2085
27.2052
27.2001
27.1933
27.1849
27.1752
27.1641
27.1519
27.1387
27.1246
27.1099
27.0947
27.0791
27.0632
27.0474
27.0317
27.0163
27.0013
26.9869
26.9733
26.9607
26.9491
26.9387
26.9297
26.9223
26.9165
26.9125
26.9104
24.2363
24.2414
24.2576
24.2722
24.2852
24.2965
24.3061
24.3139
24.3201
24.3245
24.3273
24.3284
24.3279
24.3259
24.3224
24.3175
24.3114
24.304
24.2955
24.2861
24.2757
24.2646
24.2529
24.2406
24.228
24.2151
24.2022
24.1893
24.1765
24.1641
24.1522
24.1408
24.1302
24.1205
24.1117
24.1042
24.0979
24.093
24.0896
24.0879
21.3841
21.3862
21.3993
21.4113
21.4218
21.4308
21.4384
21.4445
21.4493
21.4527
21.4549
21.4558
21.4555
21.454
21.4514
21.4477
21.4429
21.4373
21.4307
21.4232
21.4151
21.4063
21.3969
21.3871
21.377
21.3666
21.3561
21.3455
21.3351
21.3249
21.3151
21.3057
21.2969
21.2888
21.2816
21.2753
21.27
21.2659
21.2631
21.2616
18.5295
18.5369
18.5518
18.5625
18.5704
18.5764
18.581
18.5846
18.5873
18.589
18.5899
18.5901
18.5894
18.5879
18.5856
18.5825
18.5786
18.5741
18.5689
18.563
18.5565
18.5495
18.5421
18.5343
18.5261
18.5178
18.5093
18.5009
18.4924
18.4842
18.4761
18.4685
18.4613
18.4547
18.4487
18.4436
18.4392
18.4359
18.4335
18.4323
15.7605
15.7473
15.7398
15.7356
15.7333
15.7321
15.7316
15.7312
15.7309
15.7305
15.7299
15.7289
15.7275
15.7257
15.7234
15.7207
15.7174
15.7137
15.7094
15.7047
15.6996
15.6941
15.6882
15.682
15.6756
15.669
15.6622
15.6555
15.6488
15.6422
15.6358
15.6296
15.6239
15.6186
15.6138
15.6096
15.6061
15.6034
15.6015
15.6005
12.9223
12.9104
12.901
12.8937
12.888
12.8837
12.8803
12.8776
12.8754
12.8734
12.8716
12.8698
12.8679
12.8658
12.8636
12.861
12.8582
12.8551
12.8517
12.8479
12.8439
12.8396
12.835
12.8302
12.8252
12.8201
12.8149
12.8096
12.8044
12.7993
12.7943
12.7895
12.785
12.7808
12.7771
12.7738
12.7711
12.7689
12.7675
12.7667
10.0613
10.0526
10.0449
10.0383
10.0327
10.028
10.024
10.0207
10.0178
10.0153
10.0131
10.0109
10.0089
10.0069
10.0048
10.0026
10.0002
9.99773
9.99503
9.99215
9.98906
9.98579
9.98235
9.97876
9.97503
9.97121
9.96732
9.9634
9.9595
9.95566
9.95193
9.94835
9.94498
9.94186
9.93904
9.93658
9.93453
9.93292
9.93181
9.93124
7.19083
7.18493
7.17952
7.17466
7.17033
7.16651
7.16318
7.16026
7.1577
7.15544
7.1534
7.15152
7.14976
7.14805
7.14635
7.14462
7.14284
7.14098
7.13901
7.13694
7.13476
7.13246
7.13005
7.12755
7.12496
7.12231
7.11962
7.1169
7.1142
7.11154
7.10895
7.10647
7.10413
7.10196
7.1
7.09829
7.09686
7.09575
7.09497
7.09458
4.31585
4.31245
4.30927
4.30634
4.30367
4.30127
4.29912
4.2972
4.29549
4.29396
4.29258
4.29131
4.29013
4.28899
4.28789
4.28679
4.28567
4.28451
4.28332
4.28207
4.28076
4.27939
4.27796
4.27648
4.27496
4.2734
4.27181
4.27022
4.26863
4.26706
4.26554
4.26408
4.2627
4.26143
4.26027
4.25927
4.25842
4.25777
4.25731
4.25708
1.43882
1.4377
1.43666
1.43568
1.43479
1.43397
1.43323
1.43257
1.43198
1.43144
1.43095
1.43051
1.43009
1.4297
1.42931
1.42894
1.42855
1.42816
1.42776
1.42734
1.42691
1.42645
1.42598
1.42549
1.42498
1.42447
1.42394
1.42342
1.42289
1.42238
1.42187
1.42139
1.42094
1.42052
1.42014
1.4198
1.41953
1.41931
1.41916
1.41908
)
;

boundaryField
{
    top
    {
        type            fixedValue;
        value           uniform 0;
    }
    inlet
    {
        type            darcyGradPressure;
        gradient        nonuniform List<scalar> 
80
(
9.81
9.81
9.81
9.81
9.81
9.81
9.81
9.81
9.81
9.81
9.81
9.81
9.81
9.81
9.81
9.81
9.81
9.81
9.81
9.81
9.81
9.81
9.81
9.81
9.81
9.81
9.81
9.81
9.81
9.81
9.81
9.81
9.81
9.81
9.81
9.81
9.81
9.81
9.81
9.81
9.81
9.81
9.81
9.81
9.81
9.81
9.81
9.81
9.81
9.81
9.81
9.81
9.81
9.81
9.81
9.81
9.81
9.81
9.81
9.81
9.81
9.81
9.81
9.81
9.81
9.81
9.81
9.81
9.81
9.81
9.81
9.81
9.81
9.81
9.81
9.81
9.81
9.81
9.81
9.81
)
;
        value           nonuniform List<scalar> 
80
(
108.253
108.257
108.265
108.277
108.292
108.31
108.331
108.354
108.379
108.406
108.435
108.465
108.496
108.528
108.56
108.593
108.625
108.657
108.688
108.718
108.748
108.776
108.803
108.828
108.852
108.873
108.893
108.911
108.927
108.94
108.952
108.961
108.968
108.973
108.976
108.976
108.975
108.972
108.967
108.96
108.952
108.942
108.929
108.915
108.898
108.88
108.859
108.836
108.811
108.784
108.754
108.723
108.689
108.654
108.616
108.578
108.537
108.496
108.453
108.409
108.364
108.32
108.274
108.229
108.184
108.14
108.096
108.054
108.013
107.973
107.936
107.901
107.869
107.84
107.813
107.791
107.772
107.758
107.748
107.743
)
;
    }
    axis
    {
        type            darcyGradPressure;
        gradient        uniform -0;
        value           nonuniform List<scalar> 
80
(
107.027
104.566
102.096
99.6168
97.1282
94.6297
92.1204
89.5998
87.067
84.5212
81.9614
79.3869
76.7967
74.1903
71.5668
68.9258
66.267
63.5901
60.8951
58.1823
55.4521
52.7049
49.9414
47.1625
44.3692
41.5625
38.7434
35.9131
33.0727
30.2234
27.3661
24.5019
21.6319
18.7568
15.8777
12.9951
10.11
7.22278
4.33421
1.44483
106.517
104.053
101.579
99.0941
96.5976
94.0893
91.5688
89.0356
86.489
83.9286
81.3538
78.7642
76.1593
73.5387
70.9024
68.2503
65.5823
62.8988
60.2002
57.4869
54.7597
52.0192
49.2663
46.502
43.7271
40.9427
38.1497
35.3491
32.5418
29.7286
26.9104
24.0879
21.2616
18.4323
15.6005
12.7667
9.93124
7.09458
4.25708
1.41908
)
;
    }
    frontAndBack
    {
        type            empty;
    }
}


// ************************************************************************* //
