/*--------------------------------*- C++ -*----------------------------------*\
  =========                 |
  \\      /  F ield         | OpenFOAM: The Open Source CFD Toolbox
   \\    /   O peration     | Website:  https://openfoam.org
    \\  /    A nd           | Version:  10
     \\/     M anipulation  |
\*---------------------------------------------------------------------------*/
FoamFile
{
    format      ascii;
    class       volVectorField;
    location    "4000";
    object      Ua;
}
// * * * * * * * * * * * * * * * * * * * * * * * * * * * * * * * * * * * * * //

dimensions      [0 1 -1 0 0 0 0];

internalField   nonuniform List<vector> 
3200
(
(-6.79499e-08 9.81308e-08 0)
(-2.02143e-07 9.73816e-08 0)
(-3.32483e-07 9.59155e-08 0)
(-4.5813e-07 9.37575e-08 0)
(-5.78322e-07 9.09269e-08 0)
(-6.9236e-07 8.74381e-08 0)
(-7.99605e-07 8.33026e-08 0)
(-8.99469e-07 7.85296e-08 0)
(-9.9141e-07 7.31275e-08 0)
(-1.07493e-06 6.71053e-08 0)
(-1.14959e-06 6.04734e-08 0)
(-1.21496e-06 5.32446e-08 0)
(-1.2707e-06 4.54356e-08 0)
(-1.3165e-06 3.70679e-08 0)
(-1.35208e-06 2.81684e-08 0)
(-1.37724e-06 1.87706e-08 0)
(-1.39184e-06 8.91537e-09 0)
(-1.3958e-06 -1.34886e-09 0)
(-1.38909e-06 -1.19653e-08 0)
(-1.37178e-06 -2.28688e-08 0)
(-1.34399e-06 -3.3986e-08 0)
(-1.30593e-06 -4.52355e-08 0)
(-1.25788e-06 -5.65289e-08 0)
(-1.20023e-06 -6.77711e-08 0)
(-1.1334e-06 -7.88627e-08 0)
(-1.05792e-06 -8.97006e-08 0)
(-9.74395e-07 -1.00181e-07 0)
(-8.83472e-07 -1.10199e-07 0)
(-7.85875e-07 -1.19657e-07 0)
(-6.82378e-07 -1.28457e-07 0)
(-5.7379e-07 -1.36514e-07 0)
(-4.60954e-07 -1.43751e-07 0)
(-3.44727e-07 -1.50102e-07 0)
(-2.25973e-07 -1.55515e-07 0)
(-1.05546e-07 -1.59953e-07 0)
(1.57186e-08 -1.63394e-07 0)
(1.37016e-07 -1.65832e-07 0)
(2.57585e-07 -1.67275e-07 0)
(3.76713e-07 -1.67745e-07 0)
(4.93745e-07 -1.67276e-07 0)
(-6.90415e-08 2.95969e-07 0)
(-2.05409e-07 2.93737e-07 0)
(-3.37915e-07 2.89368e-07 0)
(-4.65738e-07 2.82936e-07 0)
(-5.88129e-07 2.74498e-07 0)
(-7.04403e-07 2.64094e-07 0)
(-8.13928e-07 2.51758e-07 0)
(-9.16119e-07 2.37513e-07 0)
(-1.01044e-06 2.21383e-07 0)
(-1.09639e-06 2.0339e-07 0)
(-1.17351e-06 1.83563e-07 0)
(-1.24138e-06 1.61935e-07 0)
(-1.29963e-06 1.38552e-07 0)
(-1.34792e-06 1.13472e-07 0)
(-1.38597e-06 8.67722e-08 0)
(-1.41355e-06 5.85464e-08 0)
(-1.43046e-06 2.8911e-08 0)
(-1.4366e-06 -1.99418e-09 0)
(-1.43189e-06 -3.40043e-08 0)
(-1.41636e-06 -6.6929e-08 0)
(-1.39008e-06 -1.00552e-07 0)
(-1.35321e-06 -1.34633e-07 0)
(-1.306e-06 -1.68906e-07 0)
(-1.24877e-06 -2.03088e-07 0)
(-1.18191e-06 -2.36876e-07 0)
(-1.10593e-06 -2.69956e-07 0)
(-1.02138e-06 -3.02009e-07 0)
(-9.28908e-07 -3.32714e-07 0)
(-8.29231e-07 -3.61758e-07 0)
(-7.23124e-07 -3.88843e-07 0)
(-6.11416e-07 -4.13691e-07 0)
(-4.94977e-07 -4.36055e-07 0)
(-3.74709e-07 -4.55723e-07 0)
(-2.51526e-07 -4.72524e-07 0)
(-1.26346e-07 -4.86332e-07 0)
(-7.3512e-11 -4.97067e-07 0)
(1.26414e-07 -5.04701e-07 0)
(2.52278e-07 -5.09252e-07 0)
(3.76732e-07 -5.10784e-07 0)
(4.99047e-07 -5.09402e-07 0)
(-7.12024e-08 4.98504e-07 0)
(-2.11875e-07 4.94835e-07 0)
(-3.48672e-07 4.87654e-07 0)
(-4.80808e-07 4.77078e-07 0)
(-6.07564e-07 4.63196e-07 0)
(-7.2828e-07 4.46071e-07 0)
(-8.4234e-07 4.25748e-07 0)
(-9.49174e-07 4.02262e-07 0)
(-1.04825e-06 3.7564e-07 0)
(-1.13905e-06 3.45911e-07 0)
(-1.22113e-06 3.13106e-07 0)
(-1.29403e-06 2.7727e-07 0)
(-1.35736e-06 2.38463e-07 0)
(-1.41074e-06 1.96765e-07 0)
(-1.45383e-06 1.52285e-07 0)
(-1.48635e-06 1.0516e-07 0)
(-1.50805e-06 5.55648e-08 0)
(-1.51873e-06 3.71155e-09 0)
(-1.51824e-06 -5.01445e-08 0)
(-1.5065e-06 -1.05704e-07 0)
(-1.4835e-06 -1.62622e-07 0)
(-1.4493e-06 -2.20508e-07 0)
(-1.40404e-06 -2.78929e-07 0)
(-1.34795e-06 -3.37411e-07 0)
(-1.28133e-06 -3.95443e-07 0)
(-1.20459e-06 -4.52488e-07 0)
(-1.11824e-06 -5.0799e-07 0)
(-1.02287e-06 -5.61382e-07 0)
(-9.19163e-07 -6.12103e-07 0)
(-8.07904e-07 -6.59605e-07 0)
(-6.89944e-07 -7.03375e-07 0)
(-5.66207e-07 -7.4294e-07 0)
(-4.37674e-07 -7.77889e-07 0)
(-3.05368e-07 -8.07877e-07 0)
(-1.70334e-07 -8.32641e-07 0)
(-3.36238e-08 -8.52003e-07 0)
(1.03724e-07 -8.65878e-07 0)
(2.40705e-07 -8.74269e-07 0)
(3.76361e-07 -8.77271e-07 0)
(5.09804e-07 -8.75057e-07 0)
(-7.43869e-08 7.08759e-07 0)
(-2.21406e-07 7.03734e-07 0)
(-3.64533e-07 6.93894e-07 0)
(-5.03039e-07 6.79397e-07 0)
(-6.36254e-07 6.60353e-07 0)
(-7.63555e-07 6.36841e-07 0)
(-8.84359e-07 6.08909e-07 0)
(-9.98116e-07 5.76589e-07 0)
(-1.1043e-06 5.39899e-07 0)
(-1.20241e-06 4.98858e-07 0)
(-1.29196e-06 4.53485e-07 0)
(-1.3725e-06 4.03813e-07 0)
(-1.44358e-06 3.49895e-07 0)
(-1.50477e-06 2.91807e-07 0)
(-1.55569e-06 2.29662e-07 0)
(-1.59594e-06 1.63611e-07 0)
(-1.6252e-06 9.38552e-08 0)
(-1.64314e-06 2.06462e-08 0)
(-1.64951e-06 -5.57031e-08 0)
(-1.64407e-06 -1.34816e-07 0)
(-1.62666e-06 -2.16248e-07 0)
(-1.59718e-06 -2.99485e-07 0)
(-1.55561e-06 -3.83942e-07 0)
(-1.50199e-06 -4.68964e-07 0)
(-1.43649e-06 -5.53835e-07 0)
(-1.35936e-06 -6.37778e-07 0)
(-1.27097e-06 -7.19972e-07 0)
(-1.17181e-06 -7.99563e-07 0)
(-1.06248e-06 -8.75679e-07 0)
(-9.43741e-07 -9.47452e-07 0)
(-8.16443e-07 -1.01404e-06 0)
(-6.8157e-07 -1.07465e-06 0)
(-5.40213e-07 -1.12857e-06 0)
(-3.93551e-07 -1.17516e-06 0)
(-2.42833e-07 -1.21393e-06 0)
(-8.93539e-08 -1.24452e-06 0)
(6.5575e-08 -1.26669e-06 0)
(2.20654e-07 -1.28038e-06 0)
(3.74627e-07 -1.28569e-06 0)
(5.26305e-07 -1.28284e-06 0)
(-7.85242e-08 9.29588e-07 0)
(-2.3379e-07 9.23322e-07 0)
(-3.85153e-07 9.11049e-07 0)
(-5.31961e-07 8.92954e-07 0)
(-6.73611e-07 8.69165e-07 0)
(-8.0954e-07 8.39761e-07 0)
(-9.39209e-07 8.04782e-07 0)
(-1.0621e-06 7.64242e-07 0)
(-1.17772e-06 7.18136e-07 0)
(-1.28556e-06 6.66449e-07 0)
(-1.38515e-06 6.09169e-07 0)
(-1.476e-06 5.46291e-07 0)
(-1.55763e-06 4.77827e-07 0)
(-1.62957e-06 4.03819e-07 0)
(-1.69134e-06 3.24344e-07 0)
(-1.74246e-06 2.39525e-07 0)
(-1.78249e-06 1.49542e-07 0)
(-1.81096e-06 5.46382e-08 0)
(-1.82744e-06 -4.48691e-08 0)
(-1.83153e-06 -1.48579e-07 0)
(-1.82285e-06 -2.55999e-07 0)
(-1.80107e-06 -3.6654e-07 0)
(-1.76592e-06 -4.79508e-07 0)
(-1.7172e-06 -5.94104e-07 0)
(-1.65479e-06 -7.09421e-07 0)
(-1.57871e-06 -8.24449e-07 0)
(-1.48907e-06 -9.38082e-07 0)
(-1.38615e-06 -1.04913e-06 0)
(-1.27037e-06 -1.15634e-06 0)
(-1.14235e-06 -1.25842e-06 0)
(-1.0029e-06 -1.35407e-06 0)
(-8.53004e-07 -1.44201e-06 0)
(-6.93854e-07 -1.52104e-06 0)
(-5.26818e-07 -1.59006e-06 0)
(-3.53424e-07 -1.64813e-06 0)
(-1.7533e-07 -1.69451e-06 0)
(5.72283e-09 -1.72866e-06 0)
(1.87949e-07 -1.75034e-06 0)
(3.69578e-07 -1.75955e-06 0)
(5.48904e-07 -1.75653e-06 0)
(-8.35163e-08 1.1636e-06 0)
(-2.48738e-07 1.15625e-06 0)
(-4.10054e-07 1.14184e-06 0)
(-5.66915e-07 1.12059e-06 0)
(-7.18811e-07 1.09261e-06 0)
(-8.65254e-07 1.05799e-06 0)
(-1.00577e-06 1.01674e-06 0)
(-1.13991e-06 9.68843e-07 0)
(-1.26719e-06 9.14246e-07 0)
(-1.38715e-06 8.52887e-07 0)
(-1.49933e-06 7.84691e-07 0)
(-1.60322e-06 7.09589e-07 0)
(-1.69833e-06 6.27519e-07 0)
(-1.78413e-06 5.38445e-07 0)
(-1.86007e-06 4.42365e-07 0)
(-1.9256e-06 3.39319e-07 0)
(-1.98012e-06 2.29406e-07 0)
(-2.02302e-06 1.12792e-07 0)
(-2.0537e-06 -1.02747e-08 0)
(-2.07152e-06 -1.39448e-07 0)
(-2.07584e-06 -2.74275e-07 0)
(-2.06604e-06 -4.14176e-07 0)
(-2.04152e-06 -5.58435e-07 0)
(-2.00171e-06 -7.06187e-07 0)
(-1.9461e-06 -8.56405e-07 0)
(-1.8743e-06 -1.00789e-06 0)
(-1.78599e-06 -1.15928e-06 0)
(-1.68105e-06 -1.30903e-06 0)
(-1.55953e-06 -1.45546e-06 0)
(-1.42172e-06 -1.59673e-06 0)
(-1.26816e-06 -1.73091e-06 0)
(-1.09972e-06 -1.85602e-06 0)
(-9.17576e-07 -1.97007e-06 0)
(-7.23245e-07 -2.07116e-06 0)
(-5.18572e-07 -2.15754e-06 0)
(-3.05701e-07 -2.22771e-06 0)
(-8.70275e-08 -2.2805e-06 0)
(1.34881e-07 -2.31513e-06 0)
(3.57373e-07 -2.33131e-06 0)
(5.77818e-07 -2.32919e-06 0)
(-8.92355e-08 1.41308e-06 0)
(-2.65869e-07 1.40484e-06 0)
(-4.3861e-07 1.38868e-06 0)
(-6.07039e-07 1.36482e-06 0)
(-7.7076e-07 1.33339e-06 0)
(-9.29388e-07 1.29442e-06 0)
(-1.08254e-06 1.24791e-06 0)
(-1.22983e-06 1.19379e-06 0)
(-1.37086e-06 1.13196e-06 0)
(-1.50522e-06 1.06226e-06 0)
(-1.63245e-06 9.84559e-07 0)
(-1.7521e-06 8.98676e-07 0)
(-1.86366e-06 8.04447e-07 0)
(-1.96658e-06 7.01717e-07 0)
(-2.06026e-06 5.90352e-07 0)
(-2.14409e-06 4.70253e-07 0)
(-2.21735e-06 3.41365e-07 0)
(-2.27931e-06 2.03698e-07 0)
(-2.32916e-06 5.7336e-08 0)
(-2.36605e-06 -9.75408e-08 0)
(-2.38904e-06 -2.60638e-07 0)
(-2.39719e-06 -4.31525e-07 0)
(-2.38947e-06 -6.09611e-07 0)
(-2.36486e-06 -7.94117e-07 0)
(-2.32231e-06 -9.84052e-07 0)
(-2.26081e-06 -1.17818e-06 0)
(-2.1794e-06 -1.375e-06 0)
(-2.07724e-06 -1.57273e-06 0)
(-1.95366e-06 -1.76925e-06 0)
(-1.80825e-06 -1.96216e-06 0)
(-1.64091e-06 -2.14876e-06 0)
(-1.45197e-06 -2.32609e-06 0)
(-1.24226e-06 -2.49097e-06 0)
(-1.01318e-06 -2.64017e-06 0)
(-7.66762e-07 -2.77045e-06 0)
(-5.05681e-07 -2.8788e-06 0)
(-2.3323e-07 -2.96261e-06 0)
(4.67761e-08 -3.01986e-06 0)
(3.30149e-07 -3.04931e-06 0)
(6.12535e-07 -3.05065e-06 0)
(-9.55242e-08 1.67991e-06 0)
(-2.84712e-07 1.67101e-06 0)
(-4.70042e-07 1.65356e-06 0)
(-6.51249e-07 1.62778e-06 0)
(-8.28078e-07 1.59376e-06 0)
(-1.00027e-06 1.55153e-06 0)
(-1.16756e-06 1.50104e-06 0)
(-1.32966e-06 1.44214e-06 0)
(-1.48628e-06 1.37468e-06 0)
(-1.63706e-06 1.29841e-06 0)
(-1.78165e-06 1.21309e-06 0)
(-1.91963e-06 1.11843e-06 0)
(-2.05052e-06 1.01413e-06 0)
(-2.17382e-06 8.99875e-07 0)
(-2.28892e-06 7.7536e-07 0)
(-2.39518e-06 6.40288e-07 0)
(-2.49183e-06 4.94387e-07 0)
(-2.57805e-06 3.37421e-07 0)
(-2.65291e-06 1.69206e-07 0)
(-2.71534e-06 -1.0369e-08 0)
(-2.76419e-06 -2.01324e-07 0)
(-2.79816e-06 -4.0356e-07 0)
(-2.81583e-06 -6.16827e-07 0)
(-2.81564e-06 -8.40685e-07 0)
(-2.7959e-06 -1.07446e-06 0)
(-2.75481e-06 -1.31719e-06 0)
(-2.69049e-06 -1.56757e-06 0)
(-2.60103e-06 -1.82387e-06 0)
(-2.48454e-06 -2.08387e-06 0)
(-2.33926e-06 -2.34479e-06 0)
(-2.16372e-06 -2.60324e-06 0)
(-1.95686e-06 -2.85515e-06 0)
(-1.71826e-06 -3.09581e-06 0)
(-1.44837e-06 -3.31991e-06 0)
(-1.1487e-06 -3.52168e-06 0)
(-8.22054e-07 -3.69514e-06 0)
(-4.72648e-07 -3.83449e-06 0)
(-1.06104e-07 -3.93457e-06 0)
(2.70702e-07 -3.99141e-06 0)
(6.50012e-07 -4.00285e-06 0)
(-1.02195e-07 1.96545e-06 0)
(-3.04706e-07 1.95617e-06 0)
(-5.03418e-07 1.93798e-06 0)
(-6.98245e-07 1.91106e-06 0)
(-8.89094e-07 1.87551e-06 0)
(-1.07586e-06 1.83131e-06 0)
(-1.25842e-06 1.77834e-06 0)
(-1.43662e-06 1.71643e-06 0)
(-1.61028e-06 1.64532e-06 0)
(-1.77919e-06 1.56469e-06 0)
(-1.94307e-06 1.47418e-06 0)
(-2.10163e-06 1.37337e-06 0)
(-2.25448e-06 1.26181e-06 0)
(-2.40119e-06 1.13903e-06 0)
(-2.54123e-06 1.0045e-06 0)
(-2.67401e-06 8.57694e-07 0)
(-2.7988e-06 6.98077e-07 0)
(-2.91478e-06 5.25101e-07 0)
(-3.02099e-06 3.38225e-07 0)
(-3.11631e-06 1.36928e-07 0)
(-3.19946e-06 -7.92766e-08 0)
(-3.26893e-06 -3.1082e-07 0)
(-3.323e-06 -5.58049e-07 0)
(-3.35969e-06 -8.21191e-07 0)
(-3.37672e-06 -1.1003e-06 0)
(-3.37149e-06 -1.3952e-06 0)
(-3.34106e-06 -1.70538e-06 0)
(-3.28213e-06 -2.02988e-06 0)
(-3.19108e-06 -2.36716e-06 0)
(-3.06404e-06 -2.7149e-06 0)
(-2.89696e-06 -3.06981e-06 0)
(-2.68588e-06 -3.42735e-06 0)
(-2.42724e-06 -3.78153e-06 0)
(-2.11829e-06 -4.12467e-06 0)
(-1.75773e-06 -4.4473e-06 0)
(-1.34638e-06 -4.73824e-06 0)
(-8.8791e-07 -4.98494e-06 0)
(-3.89563e-07 -5.17435e-06 0)
(1.37555e-07 -5.29424e-06 0)
(6.78698e-07 -5.33523e-06 0)
(-1.09032e-07 2.27049e-06 0)
(-3.25207e-07 2.26115e-06 0)
(-5.37667e-07 2.24282e-06 0)
(-7.46522e-07 2.21567e-06 0)
(-9.51863e-07 2.17976e-06 0)
(-1.15376e-06 2.13505e-06 0)
(-1.35225e-06 2.08138e-06 0)
(-1.54735e-06 2.01849e-06 0)
(-1.73904e-06 1.94607e-06 0)
(-1.92724e-06 1.86372e-06 0)
(-2.11185e-06 1.77096e-06 0)
(-2.29271e-06 1.66727e-06 0)
(-2.46959e-06 1.55204e-06 0)
(-2.64221e-06 1.42462e-06 0)
(-2.8102e-06 1.28431e-06 0)
(-2.9731e-06 1.13033e-06 0)
(-3.13037e-06 9.61863e-07 0)
(-3.2813e-06 7.78035e-07 0)
(-3.42509e-06 5.77915e-07 0)
(-3.56075e-06 3.60514e-07 0)
(-3.68709e-06 1.24793e-07 0)
(-3.8027e-06 -1.30347e-07 0)
(-3.90585e-06 -4.06049e-07 0)
(-3.9945e-06 -7.03499e-07 0)
(-4.06615e-06 -1.0239e-06 0)
(-4.11779e-06 -1.36845e-06 0)
(-4.14576e-06 -1.73826e-06 0)
(-4.14561e-06 -2.13426e-06 0)
(-4.11198e-06 -2.55705e-06 0)
(-4.03844e-06 -3.00663e-06 0)
(-3.91738e-06 -3.48207e-06 0)
(-3.74e-06 -3.98097e-06 0)
(-3.49647e-06 -4.49875e-06 0)
(-3.17635e-06 -5.02777e-06 0)
(-2.76945e-06 -5.55621e-06 0)
(-2.26731e-06 -6.06685e-06 0)
(-1.66548e-06 -6.53597e-06 0)
(-9.66553e-07 -6.93287e-06 0)
(-1.83818e-07 -7.22082e-06 0)
(6.55387e-07 -7.36101e-06 0)
(-1.15799e-07 2.59518e-06 0)
(-3.45507e-07 2.58611e-06 0)
(-5.71603e-07 2.56829e-06 0)
(-7.94409e-07 2.54188e-06 0)
(-1.01421e-06 2.50692e-06 0)
(-1.23128e-06 2.46331e-06 0)
(-1.44582e-06 2.41085e-06 0)
(-1.65804e-06 2.34927e-06 0)
(-1.86809e-06 2.27818e-06 0)
(-2.0761e-06 2.1971e-06 0)
(-2.28213e-06 2.1055e-06 0)
(-2.48624e-06 2.00273e-06 0)
(-2.6884e-06 1.88809e-06 0)
(-2.88855e-06 1.7608e-06 0)
(-3.08654e-06 1.61997e-06 0)
(-3.28218e-06 1.46464e-06 0)
(-3.47517e-06 1.29376e-06 0)
(-3.66514e-06 1.10617e-06 0)
(-3.85159e-06 9.00612e-07 0)
(-4.03389e-06 6.75677e-07 0)
(-4.21127e-06 4.29829e-07 0)
(-4.38277e-06 1.6135e-07 0)
(-4.54718e-06 -1.31681e-07 0)
(-4.70301e-06 -4.51438e-07 0)
(-4.84835e-06 -8.00398e-07 0)
(-4.98079e-06 -1.1814e-06 0)
(-5.09718e-06 -1.59773e-06 0)
(-5.19339e-06 -2.05315e-06 0)
(-5.2639e-06 -2.552e-06 0)
(-5.30132e-06 -3.09913e-06 0)
(-5.29567e-06 -3.6998e-06 0)
(-5.23359e-06 -4.35931e-06 0)
(-5.0973e-06 -5.08232e-06 0)
(-4.86364e-06 -5.87145e-06 0)
(-4.50332e-06 -6.72496e-06 0)
(-3.98106e-06 -7.63288e-06 0)
(-3.25765e-06 -8.57085e-06 0)
(-2.29587e-06 -9.49068e-06 0)
(-1.07353e-06 -1.03064e-05 0)
(3.91174e-07 -1.08745e-05 0)
(-1.22247e-07 2.93896e-06 0)
(-3.64855e-07 2.93051e-06 0)
(-6.0397e-07 2.91388e-06 0)
(-8.40128e-07 2.88922e-06 0)
(-1.07382e-06 2.85653e-06 0)
(-1.30551e-06 2.81571e-06 0)
(-1.5356e-06 2.76652e-06 0)
(-1.76448e-06 2.70865e-06 0)
(-1.99252e-06 2.64169e-06 0)
(-2.22004e-06 2.56513e-06 0)
(-2.44732e-06 2.47838e-06 0)
(-2.67465e-06 2.38075e-06 0)
(-2.90224e-06 2.27147e-06 0)
(-3.13029e-06 2.14967e-06 0)
(-3.35897e-06 2.01439e-06 0)
(-3.58839e-06 1.86453e-06 0)
(-3.81861e-06 1.69893e-06 0)
(-4.04967e-06 1.51625e-06 0)
(-4.28153e-06 1.31505e-06 0)
(-4.51413e-06 1.09369e-06 0)
(-4.74732e-06 8.5036e-07 0)
(-4.98094e-06 5.83025e-07 0)
(-5.21476e-06 2.8935e-07 0)
(-5.44848e-06 -3.33617e-08 0)
(-5.68176e-06 -3.88291e-07 0)
(-5.91415e-06 -7.79265e-07 0)
(-6.14502e-06 -1.21099e-06 0)
(-6.37339e-06 -1.6894e-06 0)
(-6.59764e-06 -2.22209e-06 0)
(-6.81498e-06 -2.81897e-06 0)
(-7.02044e-06 -3.49314e-06 0)
(-7.20535e-06 -4.26194e-06 0)
(-7.35459e-06 -5.14839e-06 0)
(-7.44243e-06 -6.18279e-06 0)
(-7.42572e-06 -7.4044e-06 0)
(-7.23369e-06 -8.86279e-06 0)
(-6.75236e-06 -1.06179e-05 0)
(-5.80185e-06 -1.27373e-05 0)
(-4.10417e-06 -1.52869e-05 0)
(-1.23924e-06 -1.83101e-05 0)
(-1.28121e-07 3.30054e-06 0)
(-3.82489e-07 3.29303e-06 0)
(-6.3349e-07 3.27827e-06 0)
(-8.81868e-07 3.25637e-06 0)
(-1.12831e-06 3.22729e-06 0)
(-1.37347e-06 3.19093e-06 0)
(-1.61795e-06 3.14705e-06 0)
(-1.86233e-06 3.09533e-06 0)
(-2.10717e-06 3.03534e-06 0)
(-2.35301e-06 2.9666e-06 0)
(-2.60037e-06 2.8885e-06 0)
(-2.84975e-06 2.80036e-06 0)
(-3.10165e-06 2.70141e-06 0)
(-3.35654e-06 2.59077e-06 0)
(-3.6149e-06 2.46746e-06 0)
(-3.87719e-06 2.33039e-06 0)
(-4.14388e-06 2.17838e-06 0)
(-4.41542e-06 2.01007e-06 0)
(-4.69227e-06 1.82402e-06 0)
(-4.97494e-06 1.61862e-06 0)
(-5.26397e-06 1.3921e-06 0)
(-5.56e-06 1.14252e-06 0)
(-5.86381e-06 8.6773e-07 0)
(-6.17644e-06 5.6535e-07 0)
(-6.4993e-06 2.3269e-07 0)
(-6.8344e-06 -1.33348e-07 0)
(-7.18459e-06 -5.36439e-07 0)
(-7.55399e-06 -9.81128e-07 0)
(-7.94847e-06 -1.4733e-06 0)
(-8.3764e-06 -2.02095e-06 0)
(-8.84942e-06 -2.63546e-06 0)
(-9.38346e-06 -3.33365e-06 0)
(-9.99967e-06 -4.14106e-06 0)
(-1.0725e-05 -5.09717e-06 0)
(-1.15914e-05 -6.26384e-06 0)
(-1.26329e-05 -7.73853e-06 0)
(-1.38764e-05 -9.67542e-06 0)
(-1.53212e-05 -1.23188e-05 0)
(-1.68981e-05 -1.60559e-05 0)
(-1.839e-05 -2.14929e-05 0)
(-1.3318e-07 3.6779e-06 0)
(-3.97677e-07 3.67167e-06 0)
(-6.58933e-07 3.6594e-06 0)
(-9.17878e-07 3.64119e-06 0)
(-1.17538e-06 3.61698e-06 0)
(-1.43227e-06 3.58667e-06 0)
(-1.68932e-06 3.55002e-06 0)
(-1.9473e-06 3.50674e-06 0)
(-2.20696e-06 3.45645e-06 0)
(-2.46903e-06 3.39868e-06 0)
(-2.73424e-06 3.33289e-06 0)
(-3.00334e-06 3.25845e-06 0)
(-3.27707e-06 3.17465e-06 0)
(-3.55618e-06 3.08068e-06 0)
(-3.84145e-06 2.97565e-06 0)
(-4.13366e-06 2.85855e-06 0)
(-4.43364e-06 2.72829e-06 0)
(-4.74224e-06 2.58364e-06 0)
(-5.06033e-06 2.4233e-06 0)
(-5.38884e-06 2.24583e-06 0)
(-5.7288e-06 2.04973e-06 0)
(-6.0813e-06 1.83341e-06 0)
(-6.44762e-06 1.59528e-06 0)
(-6.82928e-06 1.33376e-06 0)
(-7.22823e-06 1.04744e-06 0)
(-7.64704e-06 7.35167e-07 0)
(-8.08938e-06 3.96316e-07 0)
(-8.5606e-06 3.10373e-08 0)
(-9.06882e-06 -3.59307e-07 0)
(-9.62655e-06 -7.71588e-07 0)
(-1.02533e-05 -1.20015e-06 0)
(-1.09801e-05 -1.63581e-06 0)
(-1.18557e-05 -2.06446e-06 0)
(-1.29584e-05 -2.46526e-06 0)
(-1.44134e-05 -2.80812e-06 0)
(-1.64223e-05 -3.0501e-06 0)
(-1.93119e-05 -3.13017e-06 0)
(-2.36143e-05 -2.96111e-06 0)
(-3.02015e-05 -2.41644e-06 0)
(-3.9842e-05 -1.43858e-06 0)
(-1.372e-07 4.06837e-06 0)
(-4.09755e-07 4.06369e-06 0)
(-6.79181e-07 4.05447e-06 0)
(-9.46567e-07 4.04077e-06 0)
(-1.21293e-06 4.02253e-06 0)
(-1.47925e-06 3.99965e-06 0)
(-1.74646e-06 3.97194e-06 0)
(-2.01547e-06 3.93914e-06 0)
(-2.28719e-06 3.90094e-06 0)
(-2.56253e-06 3.85695e-06 0)
(-2.84241e-06 3.80672e-06 0)
(-3.12777e-06 3.74974e-06 0)
(-3.41957e-06 3.68541e-06 0)
(-3.7188e-06 3.61308e-06 0)
(-4.02652e-06 3.53199e-06 0)
(-4.34378e-06 3.44133e-06 0)
(-4.67173e-06 3.34016e-06 0)
(-5.01152e-06 3.22747e-06 0)
(-5.36436e-06 3.10215e-06 0)
(-5.73149e-06 2.963e-06 0)
(-6.11416e-06 2.80875e-06 0)
(-6.51363e-06 2.63807e-06 0)
(-6.93109e-06 2.44966e-06 0)
(-7.36762e-06 2.24235e-06 0)
(-7.82415e-06 2.01521e-06 0)
(-8.30131e-06 1.76785e-06 0)
(-8.79933e-06 1.50084e-06 0)
(-9.31781e-06 1.21626e-06 0)
(-9.85551e-06 9.18709e-07 0)
(-1.04099e-05 6.16665e-07 0)
(-1.09767e-05 3.24635e-07 0)
(-1.15488e-05 6.62719e-08 0)
(-1.21145e-05 -1.21018e-07 0)
(-1.26543e-05 -1.79356e-07 0)
(-1.31346e-05 -2.06608e-08 0)
(-1.34954e-05 4.87334e-07 0)
(-1.36266e-05 1.54099e-06 0)
(-1.33224e-05 3.42887e-06 0)
(-1.21951e-05 6.57108e-06 0)
(-7.95934e-06 1.12582e-05 0)
(-1.39998e-07 4.46869e-06 0)
(-4.18165e-07 4.46578e-06 0)
(-6.93295e-07 4.46005e-06 0)
(-9.66594e-07 4.45152e-06 0)
(-1.2392e-06 4.44013e-06 0)
(-1.51219e-06 4.4258e-06 0)
(-1.78661e-06 4.40838e-06 0)
(-2.0635e-06 4.38769e-06 0)
(-2.34388e-06 4.3635e-06 0)
(-2.62879e-06 4.33554e-06 0)
(-2.9193e-06 4.30349e-06 0)
(-3.21648e-06 4.267e-06 0)
(-3.52147e-06 4.22564e-06 0)
(-3.83547e-06 4.17897e-06 0)
(-4.15972e-06 4.12645e-06 0)
(-4.49552e-06 4.0675e-06 0)
(-4.84427e-06 4.00146e-06 0)
(-5.20743e-06 3.92757e-06 0)
(-5.5865e-06 3.84499e-06 0)
(-5.98305e-06 3.75275e-06 0)
(-6.39865e-06 3.64975e-06 0)
(-6.83482e-06 3.53474e-06 0)
(-7.2929e-06 3.40631e-06 0)
(-7.77393e-06 3.26284e-06 0)
(-8.2784e-06 3.10254e-06 0)
(-8.80583e-06 2.92344e-06 0)
(-9.35424e-06 2.72343e-06 0)
(-9.91932e-06 2.50033e-06 0)
(-1.04932e-05 2.25212e-06 0)
(-1.10628e-05 1.97723e-06 0)
(-1.16073e-05 1.67508e-06 0)
(-1.20951e-05 1.34704e-06 0)
(-1.24793e-05 9.9782e-07 0)
(-1.26929e-05 6.37698e-07 0)
(-1.26433e-05 2.85907e-07 0)
(-1.22082e-05 -2.446e-08 0)
(-1.12366e-05 -2.39427e-07 0)
(-9.56203e-06 -2.7453e-07 0)
(-7.04408e-06 -2.34743e-09 0)
(-3.26991e-06 8.14489e-07 0)
(-1.41435e-07 4.87513e-06 0)
(-4.22488e-07 4.87415e-06 0)
(-7.0057e-07 4.87221e-06 0)
(-9.76958e-07 4.86929e-06 0)
(-1.25285e-06 4.86535e-06 0)
(-1.5294e-06 4.86033e-06 0)
(-1.80772e-06 4.85414e-06 0)
(-2.08891e-06 4.84667e-06 0)
(-2.37406e-06 4.8378e-06 0)
(-2.66429e-06 4.8274e-06 0)
(-2.96072e-06 4.81532e-06 0)
(-3.26455e-06 4.80137e-06 0)
(-3.577e-06 4.78537e-06 0)
(-3.89938e-06 4.76711e-06 0)
(-4.23308e-06 4.74636e-06 0)
(-4.57955e-06 4.72284e-06 0)
(-4.94041e-06 4.69623e-06 0)
(-5.31734e-06 4.66617e-06 0)
(-5.71218e-06 4.63219e-06 0)
(-6.1269e-06 4.59371e-06 0)
(-6.56361e-06 4.54998e-06 0)
(-7.02452e-06 4.50002e-06 0)
(-7.51194e-06 4.44249e-06 0)
(-8.02816e-06 4.37555e-06 0)
(-8.57539e-06 4.29666e-06 0)
(-9.15552e-06 4.20221e-06 0)
(-9.76976e-06 4.08709e-06 0)
(-1.04182e-05 3.94397e-06 0)
(-1.10987e-05 3.76235e-06 0)
(-1.18058e-05 3.52709e-06 0)
(-1.25284e-05 3.21634e-06 0)
(-1.32462e-05 2.79859e-06 0)
(-1.39239e-05 2.22854e-06 0)
(-1.45024e-05 1.44125e-06 0)
(-1.48836e-05 3.44264e-07 0)
(-1.49064e-05 -1.19286e-06 0)
(-1.4307e-05 -3.35191e-06 0)
(-1.2654e-05 -6.38189e-06 0)
(-9.24035e-06 -1.0616e-05 0)
(-3.51823e-06 -1.41458e-05 0)
(-1.41425e-07 5.28362e-06 0)
(-4.2247e-07 5.28465e-06 0)
(-7.00579e-07 5.28664e-06 0)
(-9.77051e-07 5.28957e-06 0)
(-1.2531e-06 5.29337e-06 0)
(-1.5299e-06 5.29803e-06 0)
(-1.80858e-06 5.3035e-06 0)
(-2.09023e-06 5.30977e-06 0)
(-2.37598e-06 5.31683e-06 0)
(-2.66693e-06 5.32469e-06 0)
(-2.96424e-06 5.33336e-06 0)
(-3.2691e-06 5.34288e-06 0)
(-3.58274e-06 5.35329e-06 0)
(-3.9065e-06 5.36467e-06 0)
(-4.24177e-06 5.37711e-06 0)
(-4.59008e-06 5.39071e-06 0)
(-4.95309e-06 5.4056e-06 0)
(-5.33261e-06 5.42189e-06 0)
(-5.73068e-06 5.43972e-06 0)
(-6.14956e-06 5.45915e-06 0)
(-6.59182e-06 5.48022e-06 0)
(-7.06043e-06 5.5028e-06 0)
(-7.55883e-06 5.52658e-06 0)
(-8.09111e-06 5.55088e-06 0)
(-8.66221e-06 5.57447e-06 0)
(-9.27822e-06 5.59527e-06 0)
(-9.94681e-06 5.6099e-06 0)
(-1.06779e-05 5.61299e-06 0)
(-1.14846e-05 5.59619e-06 0)
(-1.23847e-05 5.54671e-06 0)
(-1.34028e-05 5.445e-06 0)
(-1.45734e-05 5.26136e-06 0)
(-1.5946e-05 4.95081e-06 0)
(-1.75919e-05 4.44502e-06 0)
(-1.96149e-05 3.64006e-06 0)
(-2.21662e-05 2.37712e-06 0)
(-2.54672e-05 4.12204e-07 0)
(-2.98402e-05 -2.63181e-06 0)
(-3.57266e-05 -7.41687e-06 0)
(-1.89732e-05 -1.95265e-05 0)
(-1.39942e-07 5.68996e-06 0)
(-4.18033e-07 5.69298e-06 0)
(-6.93195e-07 5.69891e-06 0)
(-9.66696e-07 5.70766e-06 0)
(-1.23972e-06 5.71918e-06 0)
(-1.51341e-06 5.73346e-06 0)
(-1.78884e-06 5.75053e-06 0)
(-2.06709e-06 5.77044e-06 0)
(-2.34921e-06 5.79329e-06 0)
(-2.63627e-06 5.81922e-06 0)
(-2.92934e-06 5.84841e-06 0)
(-3.22954e-06 5.88107e-06 0)
(-3.53803e-06 5.9175e-06 0)
(-3.85603e-06 5.95803e-06 0)
(-4.18482e-06 6.00307e-06 0)
(-4.52582e-06 6.05312e-06 0)
(-4.88054e-06 6.10875e-06 0)
(-5.25066e-06 6.17063e-06 0)
(-5.63806e-06 6.23956e-06 0)
(-6.04489e-06 6.31644e-06 0)
(-6.47364e-06 6.40235e-06 0)
(-6.92725e-06 6.49852e-06 0)
(-7.40927e-06 6.60636e-06 0)
(-7.92408e-06 6.72755e-06 0)
(-8.47723e-06 6.86401e-06 0)
(-9.07586e-06 7.01807e-06 0)
(-9.7294e-06 7.19252e-06 0)
(-1.04506e-05 7.3909e-06 0)
(-1.12568e-05 7.61782e-06 0)
(-1.21725e-05 7.87959e-06 0)
(-1.32326e-05 8.18529e-06 0)
(-1.44872e-05 8.54849e-06 0)
(-1.60104e-05 8.9902e-06 0)
(-1.79122e-05 9.54375e-06 0)
(-2.03592e-05 1.02628e-05 0)
(-2.36065e-05 1.12346e-05 0)
(-2.80495e-05 1.26018e-05 0)
(-3.43091e-05 1.45978e-05 0)
(-4.12807e-05 1.68526e-05 0)
(-1.67105e-05 -5.00524e-06 0)
(-1.3702e-07 6.08994e-06 0)
(-4.09277e-07 6.09488e-06 0)
(-6.78588e-07 6.10457e-06 0)
(-9.46144e-07 6.11889e-06 0)
(-1.21306e-06 6.13778e-06 0)
(-1.48038e-06 6.16126e-06 0)
(-1.74912e-06 6.18936e-06 0)
(-2.02024e-06 6.22223e-06 0)
(-2.29472e-06 6.26003e-06 0)
(-2.57348e-06 6.303e-06 0)
(-2.8575e-06 6.35146e-06 0)
(-3.14771e-06 6.40577e-06 0)
(-3.44511e-06 6.46641e-06 0)
(-3.75071e-06 6.53392e-06 0)
(-4.06555e-06 6.60898e-06 0)
(-4.39075e-06 6.69237e-06 0)
(-4.72746e-06 6.78502e-06 0)
(-5.07695e-06 6.88805e-06 0)
(-5.44058e-06 7.00279e-06 0)
(-5.81985e-06 7.13083e-06 0)
(-6.21645e-06 7.27407e-06 0)
(-6.63229e-06 7.43486e-06 0)
(-7.06956e-06 7.61605e-06 0)
(-7.53083e-06 7.82121e-06 0)
(-8.01911e-06 8.05482e-06 0)
(-8.53798e-06 8.3226e-06 0)
(-9.09161e-06 8.632e-06 0)
(-9.68485e-06 8.99284e-06 0)
(-1.0323e-05 9.41827e-06 0)
(-1.10116e-05 9.92617e-06 0)
(-1.17551e-05 1.05412e-05 0)
(-1.25549e-05 1.12978e-05 0)
(-1.34051e-05 1.22446e-05 0)
(-1.42842e-05 1.34507e-05 0)
(-1.51404e-05 1.50151e-05 0)
(-1.58645e-05 1.70804e-05 0)
(-1.62423e-05 1.98526e-05 0)
(-1.58709e-05 2.36299e-05 0)
(-9.88408e-06 2.58934e-05 0)
(-1.42805e-06 2.85553e-06 0)
(-1.32744e-07 6.47952e-06 0)
(-3.96463e-07 6.48623e-06 0)
(-6.57204e-07 6.49939e-06 0)
(-9.16041e-07 6.51883e-06 0)
(-1.17397e-06 6.54448e-06 0)
(-1.43193e-06 6.57636e-06 0)
(-1.69081e-06 6.61452e-06 0)
(-1.95145e-06 6.65914e-06 0)
(-2.21466e-06 6.71044e-06 0)
(-2.48125e-06 6.76871e-06 0)
(-2.75197e-06 6.83435e-06 0)
(-3.02759e-06 6.90782e-06 0)
(-3.30885e-06 6.9897e-06 0)
(-3.59649e-06 7.08065e-06 0)
(-3.89122e-06 7.18148e-06 0)
(-4.19376e-06 7.29311e-06 0)
(-4.5048e-06 7.41666e-06 0)
(-4.82502e-06 7.55342e-06 0)
(-5.15504e-06 7.70492e-06 0)
(-5.49547e-06 7.873e-06 0)
(-5.84683e-06 8.05983e-06 0)
(-6.20955e-06 8.26805e-06 0)
(-6.58389e-06 8.50084e-06 0)
(-6.96991e-06 8.76207e-06 0)
(-7.36728e-06 9.05651e-06 0)
(-7.77515e-06 9.39003e-06 0)
(-8.19184e-06 9.76988e-06 0)
(-8.61441e-06 1.0205e-05 0)
(-9.03801e-06 1.07065e-05 0)
(-9.45493e-06 1.12879e-05 0)
(-9.85327e-06 1.19655e-05 0)
(-1.0215e-05 1.27584e-05 0)
(-1.05137e-05 1.3688e-05 0)
(-1.07112e-05 1.47766e-05 0)
(-1.07551e-05 1.60439e-05 0)
(-1.05761e-05 1.74996e-05 0)
(-1.00902e-05 1.91301e-05 0)
(-9.20936e-06 2.08746e-05 0)
(-5.19348e-06 1.71873e-05 0)
(-5.63239e-07 4.68338e-07 0)
(-1.27248e-07 6.85499e-06 0)
(-3.79994e-07 6.86326e-06 0)
(-6.29722e-07 6.87947e-06 0)
(-8.77363e-07 6.90342e-06 0)
(-1.12377e-06 6.93501e-06 0)
(-1.36974e-06 6.97422e-06 0)
(-1.61601e-06 7.02114e-06 0)
(-1.86328e-06 7.07591e-06 0)
(-2.1122e-06 7.1388e-06 0)
(-2.36338e-06 7.2101e-06 0)
(-2.6174e-06 7.29025e-06 0)
(-2.87478e-06 7.37971e-06 0)
(-3.13604e-06 7.47909e-06 0)
(-3.4016e-06 7.58906e-06 0)
(-3.67187e-06 7.71042e-06 0)
(-3.94715e-06 7.84409e-06 0)
(-4.22767e-06 7.99112e-06 0)
(-4.51355e-06 8.15272e-06 0)
(-4.80476e-06 8.33027e-06 0)
(-5.10107e-06 8.52538e-06 0)
(-5.40201e-06 8.73989e-06 0)
(-5.7068e-06 8.97592e-06 0)
(-6.01421e-06 9.23593e-06 0)
(-6.32246e-06 9.52274e-06 0)
(-6.62905e-06 9.83963e-06 0)
(-6.9305e-06 1.01903e-05 0)
(-7.22213e-06 1.0579e-05 0)
(-7.4977e-06 1.10105e-05 0)
(-7.74898e-06 1.14897e-05 0)
(-7.96535e-06 1.2022e-05 0)
(-8.13333e-06 1.26122e-05 0)
(-8.23624e-06 1.32643e-05 0)
(-8.25402e-06 1.398e-05 0)
(-8.16359e-06 1.47574e-05 0)
(-7.93986e-06 1.55882e-05 0)
(-7.55809e-06 1.64551e-05 0)
(-6.9977e-06 1.73283e-05 0)
(-6.24794e-06 1.81634e-05 0)
(-3.39292e-06 1.23416e-05 0)
(-2.80915e-07 1.6565e-07 0)
(-1.207e-07 7.21307e-06 0)
(-3.60376e-07 7.22265e-06 0)
(-5.97002e-07 7.24143e-06 0)
(-8.31339e-07 7.26915e-06 0)
(-1.06409e-06 7.30569e-06 0)
(-1.29588e-06 7.35099e-06 0)
(-1.52731e-06 7.40512e-06 0)
(-1.7589e-06 7.46822e-06 0)
(-1.99114e-06 7.5405e-06 0)
(-2.22446e-06 7.62227e-06 0)
(-2.45924e-06 7.71391e-06 0)
(-2.69583e-06 7.81586e-06 0)
(-2.93448e-06 7.92868e-06 0)
(-3.17538e-06 8.05295e-06 0)
(-3.41866e-06 8.18938e-06 0)
(-3.66432e-06 8.33872e-06 0)
(-3.91225e-06 8.50182e-06 0)
(-4.16217e-06 8.67961e-06 0)
(-4.41364e-06 8.8731e-06 0)
(-4.66593e-06 9.08336e-06 0)
(-4.91806e-06 9.31156e-06 0)
(-5.16864e-06 9.55891e-06 0)
(-5.41583e-06 9.82664e-06 0)
(-5.65721e-06 1.0116e-05 0)
(-5.88965e-06 1.04283e-05 0)
(-6.10916e-06 1.07644e-05 0)
(-6.31075e-06 1.11254e-05 0)
(-6.48824e-06 1.15116e-05 0)
(-6.63414e-06 1.19231e-05 0)
(-6.73955e-06 1.23589e-05 0)
(-6.79416e-06 1.28171e-05 0)
(-6.78647e-06 1.32943e-05 0)
(-6.70417e-06 1.3785e-05 0)
(-6.53497e-06 1.42819e-05 0)
(-6.26784e-06 1.4775e-05 0)
(-5.89478e-06 1.52522e-05 0)
(-5.41313e-06 1.56993e-05 0)
(-4.82811e-06 1.61011e-05 0)
(-2.57236e-06 9.4064e-06 0)
(-1.44098e-07 8.29663e-08 0)
(-1.13294e-07 7.551e-06 0)
(-3.38191e-07 7.56162e-06 0)
(-5.60017e-07 7.58242e-06 0)
(-7.79361e-07 7.61312e-06 0)
(-9.96754e-07 7.65353e-06 0)
(-1.21267e-06 7.70357e-06 0)
(-1.42754e-06 7.76327e-06 0)
(-1.64174e-06 7.83272e-06 0)
(-1.85559e-06 7.91211e-06 0)
(-2.06936e-06 8.00167e-06 0)
(-2.28327e-06 8.10173e-06 0)
(-2.49748e-06 8.21267e-06 0)
(-2.71207e-06 8.33491e-06 0)
(-2.92706e-06 8.46895e-06 0)
(-3.14237e-06 8.61531e-06 0)
(-3.35785e-06 8.77455e-06 0)
(-3.57318e-06 8.94725e-06 0)
(-3.78795e-06 9.134e-06 0)
(-4.00154e-06 9.33537e-06 0)
(-4.21316e-06 9.55189e-06 0)
(-4.42176e-06 9.78401e-06 0)
(-4.62602e-06 1.0032e-05 0)
(-4.82428e-06 1.02961e-05 0)
(-5.01447e-06 1.05761e-05 0)
(-5.19408e-06 1.08715e-05 0)
(-5.36004e-06 1.11813e-05 0)
(-5.50867e-06 1.15039e-05 0)
(-5.63562e-06 1.18368e-05 0)
(-5.73574e-06 1.21765e-05 0)
(-5.80307e-06 1.25186e-05 0)
(-5.83073e-06 1.28571e-05 0)
(-5.81093e-06 1.31847e-05 0)
(-5.73497e-06 1.34929e-05 0)
(-5.59334e-06 1.37723e-05 0)
(-5.37593e-06 1.40133e-05 0)
(-5.07256e-06 1.4208e-05 0)
(-4.6741e-06 1.43521e-05 0)
(-4.17449e-06 1.44493e-05 0)
(-2.17363e-06 7.24298e-06 0)
(-5.68057e-08 5.24003e-08 0)
(-1.05232e-07 7.86659e-06 0)
(-3.14051e-07 7.87796e-06 0)
(-5.198e-07 7.90024e-06 0)
(-7.22893e-07 7.93308e-06 0)
(-9.23696e-07 7.97627e-06 0)
(-1.12253e-06 8.02968e-06 0)
(-1.31967e-06 8.09328e-06 0)
(-1.51534e-06 8.16713e-06 0)
(-1.70972e-06 8.25133e-06 0)
(-1.90295e-06 8.34608e-06 0)
(-2.09509e-06 8.45161e-06 0)
(-2.28618e-06 8.56821e-06 0)
(-2.47618e-06 8.69619e-06 0)
(-2.66499e-06 8.83591e-06 0)
(-2.85243e-06 8.98775e-06 0)
(-3.03826e-06 9.15205e-06 0)
(-3.22216e-06 9.32918e-06 0)
(-3.40369e-06 9.51943e-06 0)
(-3.58234e-06 9.72306e-06 0)
(-3.75748e-06 9.94017e-06 0)
(-3.92837e-06 1.01707e-05 0)
(-4.09416e-06 1.04145e-05 0)
(-4.25385e-06 1.0671e-05 0)
(-4.40635e-06 1.09393e-05 0)
(-4.55044e-06 1.1218e-05 0)
(-4.68479e-06 1.1505e-05 0)
(-4.80796e-06 1.17975e-05 0)
(-4.91839e-06 1.20918e-05 0)
(-5.0144e-06 1.23828e-05 0)
(-5.09403e-06 1.2664e-05 0)
(-5.15491e-06 1.29271e-05 0)
(-5.19388e-06 1.31615e-05 0)
(-5.20628e-06 1.33544e-05 0)
(-5.18479e-06 1.34897e-05 0)
(-5.11743e-06 1.35483e-05 0)
(-4.98446e-06 1.35075e-05 0)
(-4.75332e-06 1.33411e-05 0)
(-4.37096e-06 1.30205e-05 0)
(-2.22884e-06 4.92271e-06 0)
(6.64699e-09 3.60244e-08 0)
(-9.6722e-08 8.15824e-06 0)
(-2.88578e-07 8.17009e-06 0)
(-4.7739e-07 8.1933e-06 0)
(-6.63403e-07 8.22748e-06 0)
(-8.46828e-07 8.27237e-06 0)
(-1.02784e-06 8.32781e-06 0)
(-1.20656e-06 8.39371e-06 0)
(-1.3831e-06 8.47007e-06 0)
(-1.55751e-06 8.55693e-06 0)
(-1.7298e-06 8.65442e-06 0)