/*--------------------------------*- C++ -*----------------------------------*\
| =========                 |                                                 |
| \\      /  F ield         | foam-extend: Open Source CFD                    |
|  \\    /   O peration     | Version:     5.0                                |
|   \\  /    A nd           | Web:         http://www.foam-extend.org         |
|    \\/     M anipulation  |                                                 |
\*---------------------------------------------------------------------------*/
FoamFile
{
    version     2.0;
    format      ascii;
    class       volVectorField;
    location    "4";
    object      U.gas;
}
// * * * * * * * * * * * * * * * * * * * * * * * * * * * * * * * * * * * * * //

dimensions      [0 1 -1 0 0 0 0];

internalField   nonuniform List<vector> 
100
(
(0.0122673 0 0)
(0.0124878 0 0)
(0.0127264 0 0)
(0.0129508 0 0)
(0.0131793 0 0)
(0.0134092 0 0)
(0.0136449 0 0)
(0.0138289 0 0)
(0.0140249 0 0)
(0.0142561 0 0)
(0.0145076 0 0)
(0.0147211 0 0)
(0.014945 0 0)
(0.0151268 0 0)
(0.0153117 0 0)
(0.0155253 0 0)
(0.0157199 0 0)
(0.0159262 0 0)
(0.0161007 0 0)
(0.0162552 0 0)
(0.0164344 0 0)
(0.0166336 0 0)
(0.0168039 0 0)
(0.0169877 0 0)
(0.0171464 0 0)
(0.0173184 0 0)
(0.0174717 0 0)
(0.0176399 0 0)
(0.0178071 0 0)
(0.0179438 0 0)
(0.0180704 0 0)
(0.0182258 0 0)
(0.0183776 0 0)
(0.0185194 0 0)
(0.01863 0 0)
(0.0187434 0 0)
(0.0188751 0 0)
(0.0189871 0 0)
(0.0190825 0 0)
(0.0192026 0 0)
(0.0193006 0 0)
(0.0194101 0 0)
(0.0195058 0 0)
(0.0195945 0 0)
(0.0197054 0 0)
(0.0198106 0 0)
(0.019905 0 0)
(0.0199919 0 0)
(0.020071 0 0)
(0.0201482 0 0)
(0.0202205 0 0)
(0.0202987 0 0)
(0.0203764 0 0)
(0.0204461 0 0)
(0.0205248 0 0)
(0.0205807 0 0)
(0.020641 0 0)
(0.0207151 0 0)
(0.0207681 0 0)
(0.0208353 0 0)
(0.0209003 0 0)
(0.0209615 0 0)
(0.0210214 0 0)
(0.0210824 0 0)
(0.0211428 0 0)
(0.0212261 0 0)
(0.0212873 0 0)
(0.0213236 0 0)
(0.0213504 0 0)
(0.021387 0 0)
(0.0214426 0 0)
(0.0214733 0 0)
(0.0215239 0 0)
(0.021547 0 0)
(0.0215703 0 0)
(0.0215955 0 0)
(0.0216252 0 0)
(0.0216598 0 0)
(0.0216822 0 0)
(0.0216986 0 0)
(0.021712 0 0)
(0.0217313 0 0)
(0.0217464 0 0)
(0.021755 0 0)
(0.0217669 0 0)
(0.0217851 0 0)
(0.0218115 0 0)
(0.0217929 0 0)
(0.0217812 0 0)
(0.0217748 0 0)
(0.0217748 0 0)
(0.0217749 0 0)
(0.0217532 0 0)
(0.0217404 0 0)
(0.021716 0 0)
(0.0216797 0 0)
(0.0216576 0 0)
(0.0216297 0 0)
(0.0215786 0 0)
(0.021459 0 0)
)
;

boundaryField
{
    inlet
    {
        type            fixedValue;
        value           uniform (0.005 0 0);
    }
    outlet
    {
        type            zeroGradient;
    }
    yzfaces
    {
        type            empty;
    }
}


// ************************************************************************* //
