/*--------------------------------*- C++ -*----------------------------------*\
| =========                 |                                                 |
| \\      /  F ield         | foam-extend: Open Source CFD                    |
|  \\    /   O peration     | Version:     5.0                                |
|   \\  /    A nd           | Web:         http://www.foam-extend.org         |
|    \\/     M anipulation  |                                                 |
\*---------------------------------------------------------------------------*/
FoamFile
{
    version     2.0;
    format      ascii;
    class       volVectorField;
    location    "4";
    object      U.water;
}
// * * * * * * * * * * * * * * * * * * * * * * * * * * * * * * * * * * * * * //

dimensions      [0 1 -1 0 0 0 0];

internalField   nonuniform List<vector> 
100
(
(1.92775e-05 0 0)
(3.86759e-05 0 0)
(6.33521e-05 0 0)
(9.96305e-05 0 0)
(0.000130508 0 0)
(0.000153658 0 0)
(0.000178498 0 0)
(0.000219241 0 0)
(0.00025187 0 0)
(0.000270124 0 0)
(0.000301668 0 0)
(0.00034083 0 0)
(0.000370953 0 0)
(0.000398974 0 0)
(0.000423163 0 0)
(0.000455643 0 0)
(0.000489047 0 0)
(0.000519422 0 0)
(0.000550039 0 0)
(0.000579337 0 0)
(0.000609366 0 0)
(0.00064249 0 0)
(0.000670398 0 0)
(0.000696608 0 0)
(0.000730919 0 0)
(0.000764699 0 0)
(0.000791606 0 0)
(0.000820758 0 0)
(0.000856617 0 0)
(0.000884116 0 0)
(0.000905648 0 0)
(0.000935925 0 0)
(0.000968375 0 0)
(0.000996321 0 0)
(0.00102297 0 0)
(0.00105126 0 0)
(0.00108328 0 0)
(0.0011124 0 0)
(0.00113766 0 0)
(0.00116365 0 0)
(0.00119117 0 0)
(0.0012177 0 0)
(0.00124575 0 0)
(0.00127196 0 0)
(0.00130023 0 0)
(0.00132885 0 0)
(0.00135553 0 0)
(0.00138437 0 0)
(0.00141111 0 0)
(0.00143507 0 0)
(0.00145735 0 0)
(0.00148443 0 0)
(0.00151585 0 0)
(0.0015431 0 0)
(0.00157151 0 0)
(0.00159697 0 0)
(0.00161925 0 0)
(0.00164968 0 0)
(0.00167728 0 0)
(0.00170018 0 0)
(0.00172867 0 0)
(0.00175717 0 0)
(0.00178412 0 0)
(0.00181118 0 0)
(0.00183959 0 0)
(0.00187099 0 0)
(0.0019004 0 0)
(0.00192569 0 0)
(0.00195143 0 0)
(0.00197733 0 0)
(0.00200652 0 0)
(0.00203485 0 0)
(0.00206474 0 0)
(0.00209651 0 0)
(0.00212245 0 0)
(0.00214786 0 0)
(0.00217564 0 0)
(0.00220449 0 0)
(0.00223197 0 0)
(0.00225853 0 0)
(0.0022865 0 0)
(0.00232054 0 0)
(0.00235076 0 0)
(0.00237544 0 0)
(0.00240527 0 0)
(0.00243853 0 0)
(0.00247282 0 0)
(0.00250164 0 0)
(0.00252832 0 0)
(0.00255966 0 0)
(0.00259218 0 0)
(0.00262519 0 0)
(0.00265622 0 0)
(0.00268805 0 0)
(0.0027202 0 0)
(0.00275043 0 0)
(0.00278291 0 0)
(0.00281792 0 0)
(0.00285401 0 0)
(0.00289114 0 0)
)
;

boundaryField
{
    inlet
    {
        type            fixedValue;
        value           uniform (0 0 0);
    }
    outlet
    {
        type            zeroGradient;
    }
    yzfaces
    {
        type            empty;
    }
}


// ************************************************************************* //
