/*--------------------------------*- C++ -*----------------------------------*\
  =========                 |
  \\      /  F ield         | OpenFOAM: The Open Source CFD Toolbox
   \\    /   O peration     | Website:  https://openfoam.org
    \\  /    A nd           | Version:  10
     \\/     M anipulation  |
\*---------------------------------------------------------------------------*/
FoamFile
{
    format      ascii;
    class       volSymmTensorField;
    location    "0.088";
    object      UPrime2Mean;
}
// * * * * * * * * * * * * * * * * * * * * * * * * * * * * * * * * * * * * * //

dimensions      [0 2 -2 0 0 0 0];

internalField   nonuniform List<symmTensor> 
12225
(
(0.0330636 0.00051784 0 0.00220349 0 0)
(0.0169734 -8.85916e-05 0 0.00104925 0 0)
(0.0187958 -0.000345306 0 0.000735947 0 0)
(0.0200209 -0.000463404 0 0.000596133 0 0)
(0.0242127 -0.000673796 0 0.000514661 0 0)
(0.0329939 -0.00103017 0 0.000465345 0 0)
(0.0478253 -0.00161953 0 0.000439008 0 0)
(0.0690448 -0.00221816 0 0.000403038 0 0)
(0.100734 -0.0035307 0 0.000440942 0 0)
(0.142297 -0.00406476 0 0.000400141 0 0)
(0.207329 -0.00784248 0 0.00057633 0 0)
(0.28694 -0.0070887 0 0.000484488 0 0)
(0.426365 -0.0198306 0 0.00123363 0 0)
(0.586121 -0.011684 0 0.000955522 0 0)
(0.906847 -0.0592338 0 0.00480262 0 0)
(1.28486 -0.0156979 0 0.00402745 0 0)
(2.12044 -0.229802 0 0.0347497 0 0)
(3.41067 -0.0679074 0 0.0171305 0 0)
(0.0313264 0.00076544 0 0.00277725 0 0)
(0.0157082 0.00053611 0 0.00129493 0 0)
(0.0147358 0.000259195 0 0.00087395 0 0)
(0.013462 0.000223829 0 0.000729469 0 0)
(0.0132506 0.00021125 0 0.000676332 0 0)
(0.0139995 -2.33341e-05 0 0.000683252 0 0)
(0.0158536 -0.000464997 0 0.000703293 0 0)
(0.0195781 -0.00134693 0 0.000822197 0 0)
(0.0260154 -0.00237452 0 0.000902327 0 0)
(0.0373369 -0.00458927 0 0.0012907 0 0)
(0.0544211 -0.00667819 0 0.00147065 0 0)
(0.0838771 -0.0125606 0 0.00258215 0 0)
(0.125073 -0.017093 0 0.00305216 0 0)
(0.200182 -0.0337767 0 0.0065052 0 0)
(0.298542 -0.0455894 0 0.00821413 0 0)
(0.504888 -0.0998025 0 0.0212323 0 0)
(0.753865 -0.154896 0 0.0335214 0 0)
(1.33311 -0.389733 0 0.127469 0 0)
(0.0350548 0.000682674 0 0.00337794 0 0)
(0.0171758 0.000464391 0 0.00168897 0 0)
(0.015334 0.000102986 0 0.00118218 0 0)
(0.0136133 -0.000172682 0 0.00102963 0 0)
(0.0133507 -0.00041077 0 0.000991647 0 0)
(0.0142907 -0.000735904 0 0.00101282 0 0)
(0.0163161 -0.00133754 0 0.00111972 0 0)
(0.0196236 -0.00223868 0 0.00127235 0 0)
(0.0247468 -0.00374163 0 0.00165848 0 0)
(0.0323882 -0.00563349 0 0.00205993 0 0)
(0.0438837 -0.00921746 0 0.00314559 0 0)
(0.0608073 -0.013336 0 0.00413517 0 0)
(0.0862773 -0.0225124 0 0.00729856 0 0)
(0.123997 -0.0322962 0 0.0100875 0 0)
(0.181603 -0.05795 0 0.0207324 0 0)
(0.267685 -0.0885175 0 0.0324471 0 0)
(0.391798 -0.169791 0 0.0796976 0 0)
(0.555546 -0.303703 0 0.178789 0 0)
(0.0327871 6.41707e-06 0 0.00354375 0 0)
(0.0156566 -3.41743e-05 0 0.00192094 0 0)
(0.014564 -0.000268396 0 0.00131411 0 0)
(0.013262 -0.00047804 0 0.00113917 0 0)
(0.0129057 -0.000757733 0 0.00113529 0 0)
(0.0135131 -0.00124022 0 0.00124418 0 0)
(0.0152286 -0.001986 0 0.0014392 0 0)
(0.0183713 -0.00316573 0 0.0018077 0 0)
(0.023326 -0.00481757 0 0.00232223 0 0)
(0.0308885 -0.00744849 0 0.00324472 0 0)
(0.0418406 -0.011134 0 0.00450931 0 0)
(0.0580307 -0.0172419 0 0.00681613 0 0)
(0.0810046 -0.0260647 0 0.0102665 0 0)
(0.114578 -0.0409628 0 0.0168226 0 0)
(0.16192 -0.0641657 0 0.0282558 0 0)
(0.227508 -0.103683 0 0.0514214 0 0)
(0.312633 -0.171628 0 0.10154 0 0)
(0.402414 -0.271771 0 0.198781 0 0)
(0.0360201 0.000291966 0 0.00408218 0 0)
(0.0170683 4.30144e-06 0 0.00241594 0 0)
(0.0155861 -0.000388586 0 0.00170839 0 0)
(0.0141492 -0.00065504 0 0.0015339 0 0)
(0.0136197 -0.000933309 0 0.00159155 0 0)
(0.0139598 -0.00145866 0 0.00179682 0 0)
(0.0153051 -0.00238072 0 0.00215413 0 0)
(0.0179974 -0.00378975 0 0.00268402 0 0)
(0.0225501 -0.00591136 0 0.00354959 0 0)
(0.0296359 -0.00897617 0 0.00481869 0 0)
(0.0401703 -0.0136666 0 0.00690239 0 0)
(0.0553515 -0.0205512 0 0.0100524 0 0)
(0.0768939 -0.0313028 0 0.0154112 0 0)
(0.106686 -0.0475367 0 0.0242265 0 0)
(0.147423 -0.0731064 0 0.0400142 0 0)
(0.199329 -0.11323 0 0.0694739 0 0)
(0.261706 -0.173046 0 0.122746 0 0)
(0.319592 -0.257785 0 0.228021 0 0)
(0.0339548 5.3506e-05 0 0.00464162 0 0)
(0.0173059 0.000257518 0 0.00277477 0 0)
(0.0164234 -0.000278796 0 0.00189714 0 0)
(0.0144511 -0.000541275 0 0.00166726 0 0)
(0.0133732 -0.000800166 0 0.00173408 0 0)
(0.0134045 -0.00135949 0 0.00203499 0 0)
(0.0145048 -0.00237243 0 0.00255995 0 0)
(0.0168424 -0.00394755 0 0.00337418 0 0)
(0.0208257 -0.00627342 0 0.00459697 0 0)
(0.0270132 -0.00969368 0 0.00644496 0 0)
(0.0362004 -0.0147858 0 0.00927898 0 0)
(0.0492837 -0.0223638 0 0.0136914 0 0)
(0.0676602 -0.0337953 0 0.0207774 0 0)
(0.0923728 -0.0508437 0 0.0323805 0 0)
(0.125044 -0.0765351 0 0.0520357 0 0)
(0.164292 -0.11398 0 0.0858496 0 0)
(0.208251 -0.166523 0 0.143843 0 0)
(0.246002 -0.232789 0 0.241941 0 0)
(0.0303836 0.000527159 0 0.00491135 0 0)
(0.0146336 0.000209462 0 0.0034259 0 0)
(0.0145693 -4.95837e-05 0 0.00259995 0 0)
(0.0134964 -0.000397469 0 0.00241131 0 0)
(0.0133008 -0.000967874 0 0.00258816 0 0)
(0.0141892 -0.00191222 0 0.00304188 0 0)
(0.0161521 -0.00335919 0 0.00378081 0 0)
(0.0192696 -0.00544703 0 0.00489751 0 0)
(0.0238295 -0.00839333 0 0.0065669 0 0)
(0.0302806 -0.0125441 0 0.00907502 0 0)
(0.0393177 -0.0184681 0 0.0128527 0 0)
(0.0516484 -0.0270059 0 0.018671 0 0)
(0.0682829 -0.039343 0 0.0276872 0 0)
(0.089646 -0.057121 0 0.042124 0 0)
(0.116349 -0.0823095 0 0.0651163 0 0)
(0.146353 -0.116991 0 0.102765 0 0)
(0.177608 -0.16182 0 0.16178 0 0)
(0.20233 -0.213736 0 0.253072 0 0)
(0.0335449 0.000592053 0 0.00493661 0 0)
(0.0151566 0.000260634 0 0.00318516 0 0)
(0.0146775 -0.000266538 0 0.00238968 0 0)
(0.0139858 -0.000694831 0 0.00229843 0 0)
(0.0139828 -0.00122666 0 0.00258179 0 0)
(0.0146292 -0.00212008 0 0.00320102 0 0)
(0.0160001 -0.00354551 0 0.00419484 0 0)
(0.0183338 -0.00562822 0 0.00566722 0 0)
(0.0220135 -0.00859808 0 0.00782194 0 0)
(0.0274681 -0.0128351 0 0.011008 0 0)
(0.035194 -0.01891 0 0.015752 0 0)
(0.045608 -0.0275776 0 0.0229362 0 0)
(0.0592246 -0.0398302 0 0.0338392 0 0)
(0.0760907 -0.0568692 0 0.0506983 0 0)
(0.0961118 -0.0799287 0 0.0764641 0 0)
(0.117508 -0.109877 0 0.116203 0 0)
(0.138325 -0.146093 0 0.174684 0 0)
(0.15379 -0.185315 0 0.259266 0 0)
(0.0367379 -2.1088e-05 0 0.00535036 0 0)
(0.0189738 -0.000482193 0 0.00379729 0 0)
(0.0179764 -0.00102794 0 0.00301699 0 0)
(0.01647 -0.00143109 0 0.00295179 0 0)
(0.0159277 -0.00196433 0 0.00334311 0 0)
(0.0164248 -0.00292597 0 0.00413072 0 0)
(0.0179007 -0.00451301 0 0.00538215 0 0)
(0.0203547 -0.00685967 0 0.00725627 0 0)
(0.0239504 -0.0101585 0 0.0099968 0 0)
(0.0289667 -0.0147292 0 0.0140018 0 0)
(0.0357501 -0.0210463 0 0.0198434 0 0)
(0.0445094 -0.0297558 0 0.028471 0 0)
(0.0554241 -0.0416343 0 0.0411787 0 0)
(0.0682061 -0.0575023 0 0.0601098 0 0)
(0.0824033 -0.07798 0 0.0878402 0 0)
(0.0964957 -0.103071 0 0.128436 0 0)
(0.109092 -0.131582 0 0.185134 0 0)
(0.117389 -0.16036 0 0.262652 0 0)
(0.0332524 0.000945055 0 0.00591873 0 0)
(0.0156274 1.51648e-05 0 0.0042011 0 0)
(0.014526 -0.000632938 0 0.00334791 0 0)
(0.0132769 -0.00100055 0 0.00338826 0 0)
(0.0131267 -0.00152932 0 0.00390358 0 0)
(0.013905 -0.00255259 0 0.00486103 0 0)
(0.0154295 -0.00419854 0 0.00637527 0 0)
(0.0176043 -0.00655102 0 0.00864449 0 0)
(0.0204973 -0.00978647 0 0.0119436 0 0)
(0.0243445 -0.0142015 0 0.0167088 0 0)
(0.0294709 -0.0202199 0 0.0235523 0 0)
(0.0360378 -0.0283401 0 0.0334507 0 0)
(0.0441085 -0.0390989 0 0.0476521 0 0)
(0.0532255 -0.0529109 0 0.0681011 0 0)
(0.0628861 -0.0699521 0 0.0968974 0 0)
(0.0717722 -0.0896876 0 0.13722 0 0)
(0.079067 -0.110817 0 0.191027 0 0)
(0.0832161 -0.130497 0 0.261525 0 0)
(0.0306733 0.000884469 0 0.00652204 0 0)
(0.0145294 -0.000254661 0 0.00531747 0 0)
(0.0138292 -0.000976372 0 0.00445568 0 0)
(0.0124659 -0.00133551 0 0.00441517 0 0)
(0.0119077 -0.00181796 0 0.00500743 0 0)
(0.0121796 -0.00276168 0 0.00622368 0 0)
(0.0131804 -0.00432159 0 0.00812017 0 0)
(0.0147755 -0.00659568 0 0.0108647 0 0)
(0.0169561 -0.00974456 0 0.0147574 0 0)
(0.0198513 -0.0140143 0 0.0202894 0 0)
(0.0236722 -0.0197278 0 0.0281045 0 0)
(0.0285076 -0.0272263 0 0.0391529 0 0)
(0.0343069 -0.0368307 0 0.05457 0 0)
(0.0406391 -0.0486781 0 0.0760341 0 0)
(0.0469844 -0.0626334 0 0.105155 0 0)
(0.0523876 -0.0779639 0 0.144338 0 0)
(0.0563401 -0.0933777 0 0.194612 0 0)
(0.058052 -0.106614 0 0.258207 0 0)
(0.0345608 0.000591762 0 0.006439 0 0)
(0.0173797 -0.000492885 0 0.00506645 0 0)
(0.0165869 -0.000843894 0 0.00412938 0 0)
(0.0147465 -0.00079674 0 0.0041613 0 0)
(0.0133858 -0.00105468 0 0.00495076 0 0)
(0.0129147 -0.00189018 0 0.00642911 0 0)
(0.0132944 -0.00328281 0 0.00865416 0 0)
(0.0142668 -0.00522444 0 0.0118295 0 0)
(0.0156559 -0.00785323 0 0.0162834 0 0)
(0.0174529 -0.0114085 0 0.0225131 0 0)
(0.0197527 -0.0161719 0 0.031145 0 0)
(0.0225917 -0.0223619 0 0.0430758 0 0)
(0.0259398 -0.0301089 0 0.0593061 0 0)
(0.0294785 -0.0393295 0 0.0812683 0 0)
(0.0329196 -0.049711 0 0.110155 0 0)
(0.0356625 -0.060451 0 0.147778 0 0)
(0.0375464 -0.0704217 0 0.19454 0 0)
(0.0380909 -0.0778237 0 0.25211 0 0)
(0.031065 2.09342e-07 0 0.00741482 0 0)
(0.015525 -0.0015083 0 0.0064205 0 0)
(0.015093 -0.00218789 0 0.00520837 0 0)
(0.0139911 -0.00231562 0 0.00531588 0 0)
(0.0135137 -0.00269933 0 0.00632921 0 0)
(0.0134655 -0.00361787 0 0.00804121 0 0)
(0.0136945 -0.00505181 0 0.0105166 0 0)
(0.0142562 -0.00699457 0 0.0140201 0 0)
(0.01526 -0.00953451 0 0.0189166 0 0)
(0.0167309 -0.012825 0 0.0256994 0 0)
(0.0186428 -0.0170487 0 0.0349538 0 0)
(0.0208793 -0.0223172 0 0.0474946 0 0)
(0.0233029 -0.0286301 0 0.0641622 0 0)
(0.0256161 -0.0357507 0 0.0861343 0 0)
(0.02761 -0.0432514 0 0.11424 0 0)
(0.0289551 -0.0503209 0 0.149883 0 0)
(0.0297186 -0.0560166 0 0.192993 0 0)
(0.029875 -0.0588268 0 0.244932 0 0)
(0.0313004 0.000369548 0 0.00824198 0 0)
(0.0153306 -0.000827039 0 0.00736378 0 0)
(0.0147207 -0.00138128 0 0.00634989 0 0)
(0.0136466 -0.00140013 0 0.00641551 0 0)
(0.0130747 -0.00150331 0 0.00739324 0 0)
(0.0127978 -0.00206032 0 0.00924868 0 0)
(0.0127459 -0.00318369 0 0.0120247 0 0)
(0.0129198 -0.00483223 0 0.0159179 0 0)
(0.0133296 -0.00697401 0 0.0212518 0 0)
(0.0139656 -0.00963667 0 0.028492 0 0)
(0.0148155 -0.0128847 0 0.0381633 0 0)
(0.0157958 -0.0167001 0 0.0509645 0 0)
(0.0168274 -0.0209891 0 0.0675585 0 0)
(0.0177151 -0.0254201 0 0.0888828 0 0)
(0.0183631 -0.0295705 0 0.115434 0 0)
(0.0186652 -0.0326787 0 0.148241 0 0)
(0.0188153 -0.0340271 0 0.186902 0 0)
(0.0189816 -0.0324227 0 0.23251 0 0)
(0.0317904 0.00127299 0 0.00931778 0 0)
(0.0150427 -0.000610456 0 0.00876286 0 0)
(0.0140172 -0.00134556 0 0.0075654 0 0)
(0.0129177 -0.00138835 0 0.00774426 0 0)
(0.0125304 -0.00156414 0 0.00902488 0 0)
(0.01252 -0.00219478 0 0.0112121 0 0)
(0.0127317 -0.0032695 0 0.0143275 0 0)
(0.0130113 -0.00466143 0 0.0185746 0 0)
(0.0132813 -0.00631922 0 0.024276 0 0)
(0.0135593 -0.00825874 0 0.0318762 0 0)
(0.0139075 -0.0105062 0 0.0418277 0 0)
(0.014316 -0.0129679 0 0.0546932 0 0)
(0.0147566 -0.0154791 0 0.0709131 0 0)
(0.0151363 -0.0176344 0 0.0911627 0 0)
(0.0154217 -0.0190595 0 0.115608 0 0)
(0.0157042 -0.0190606 0 0.145003 0 0)
(0.016169 -0.0172292 0 0.178677 0 0)
(0.0172681 -0.0125757 0 0.217605 0 0)
(0.0345944 0.00159388 0 0.0106565 0 0)
(0.0168387 -0.000769582 0 0.00973567 0 0)
(0.0152796 -0.00166713 0 0.0081512 0 0)
(0.0136613 -0.00165143 0 0.00821788 0 0)
(0.0127537 -0.00163917 0 0.00959591 0 0)
(0.0121571 -0.00197573 0 0.0119172 0 0)
(0.0117167 -0.00263193 0 0.0151179 0 0)
(0.0113651 -0.00348369 0 0.0194046 0 0)
(0.0110786 -0.00446067 0 0.0251021 0 0)
(0.010844 -0.00550889 0 0.0325913 0 0)
(0.0106482 -0.00654613 0 0.0422007 0 0)
(0.0104549 -0.00737819 0 0.0543254 0 0)
(0.0102568 -0.00778897 0 0.0692232 0 0)
(0.0100866 -0.00741085 0 0.0873402 0 0)
(0.0100415 -0.00596911 0 0.108637 0 0)
(0.0103345 -0.00297263 0 0.133635 0 0)
(0.0112348 0.00178892 0 0.161607 0 0)
(0.0131366 0.00900027 0 0.193352 0 0)
(0.0325058 0.0019414 0 0.0115306 0 0)
(0.016604 -0.000255916 0 0.0105539 0 0)
(0.0155609 -0.00116817 0 0.00802609 0 0)
(0.0138808 -0.00131256 0 0.00794815 0 0)
(0.0129028 -0.0014111 0 0.00953056 0 0)
(0.012245 -0.00168113 0 0.0121466 0 0)
(0.011801 -0.00206099 0 0.0156323 0 0)
(0.0115456 -0.00241245 0 0.0201101 0 0)
(0.0114183 -0.0026474 0 0.0258317 0 0)
(0.0113171 -0.00269988 0 0.0331131 0 0)
(0.0111769 -0.00249438 0 0.0421872 0 0)
(0.0110142 -0.00185898 0 0.0533115 0 0)
(0.0109254 -0.000602965 0 0.066575 0 0)
(0.0110715 0.00159696 0 0.0822439 0 0)
(0.0115979 0.0049262 0 0.100132 0 0)
(0.0127646 0.00977412 0 0.120614 0 0)
(0.0147673 0.0161709 0 0.142952 0 0)
(0.0179345 0.0246485 0 0.167892 0 0)
(0.0310151 0.00147784 0 0.0120503 0 0)
(0.014837 -0.000804664 0 0.0118661 0 0)
(0.0138291 -0.00196573 0 0.00997313 0 0)
(0.0123098 -0.00201262 0 0.00980452 0 0)
(0.0113447 -0.00185181 0 0.0109051 0 0)
(0.0105065 -0.00171264 0 0.0129465 0 0)
(0.00982757 -0.0015701 0 0.0158164 0 0)
(0.00946179 -0.00130822 0 0.0195944 0 0)
(0.0094321 -0.000798062 0 0.0244492 0 0)
(0.00964574 8.60171e-05 0 0.0305758 0 0)
(0.010011 0.0014624 0 0.0380898 0 0)
(0.0105468 0.00348848 0 0.0471104 0 0)
(0.0113438 0.00630211 0 0.0576192 0 0)
(0.0126031 0.010105 0 0.0697491 0 0)
(0.0144603 0.0149896 0 0.0832702 0 0)
(0.0172003 0.0211741 0 0.0984507 0 0)
(0.0209153 0.0286169 0 0.114685 0 0)
(0.0259828 0.0376261 0 0.132498 0 0)
(0.0313412 0.00141426 0 0.0111005 0 0)
(0.016567 0.000308756 0 0.0108042 0 0)
(0.0158124 -0.000241851 0 0.00880761 0 0)
(0.0133922 -0.000104176 0 0.00854939 0 0)
(0.0117956 0.000342262 0 0.00955951 0 0)
(0.0108021 0.000886589 0 0.0114361 0 0)
(0.0102993 0.00152725 0 0.0140315 0 0)
(0.0102611 0.00243091 0 0.0173392 0 0)
(0.0105935 0.00376296 0 0.0214158 0 0)
(0.0111742 0.00563058 0 0.0263459 0 0)
(0.0119651 0.00809565 0 0.0321728 0 0)
(0.0130758 0.0112485 0 0.0389588 0 0)
(0.0146647 0.0151559 0 0.0466699 0 0)
(0.0169321 0.0199376 0 0.0553731 0 0)
(0.0199781 0.0256061 0 0.0648813 0 0)
(0.0240072 0.0322757 0 0.0753631 0 0)
(0.0290524 0.0398489 0 0.0863833 0 0)
(0.0353619 0.0485067 0 0.0983206 0 0)
(0.0325857 0.0011693 0 0.0126759 0 0)
(0.0153983 0.000168861 0 0.0119574 0 0)
(0.0129703 -0.00034245 0 0.00931641 0 0)
(0.0108946 8.12714e-05 0 0.00845306 0 0)
(0.00998881 0.00073619 0 0.00886335 0 0)
(0.00941244 0.00133281 0 0.0100901 0 0)
(0.00905492 0.00200597 0 0.0119087 0 0)
(0.00905862 0.00303896 0 0.0142229 0 0)
(0.00949716 0.0046095 0 0.0170292 0 0)
(0.0103969 0.00674342 0 0.0203826 0 0)
(0.011794 0.00940855 0 0.0243145 0 0)
(0.0137724 0.0126232 0 0.0288541 0 0)
(0.0164357 0.0164312 0 0.0339648 0 0)
(0.0199217 0.0209312 0 0.0396701 0 0)
(0.0243057 0.0261365 0 0.0458272 0 0)
(0.0297232 0.0321241 0 0.0525477 0 0)
(0.0361903 0.0387997 0 0.0595542 0 0)
(0.0438214 0.0462598 0 0.0670469 0 0)
(0.0332129 0.00124889 0 0.0110996 0 0)
(0.0165711 0.00121724 0 0.0105754 0 0)
(0.0146394 0.00104495 0 0.00833721 0 0)
(0.0128124 0.00158031 0 0.00757905 0 0)
(0.0121942 0.00223491 0 0.00780981 0 0)
(0.0120683 0.00294696 0 0.00866573 0 0)
(0.0122605 0.00386881 0 0.0099648 0 0)
(0.0128558 0.00513009 0 0.0116198 0 0)
(0.0139174 0.00680438 0 0.0136155 0 0)
(0.0154641 0.00892718 0 0.0159959 0 0)
(0.017539 0.0115139 0 0.0187874 0 0)
(0.0202336 0.0146029 0 0.0220001 0 0)
(0.0236494 0.0182284 0 0.0255922 0 0)
(0.0279054 0.0224514 0 0.0295658 0 0)
(0.0330588 0.0272539 0 0.0338133 0 0)
(0.0392488 0.0326811 0 0.0384196 0 0)
(0.0464916 0.0386442 0 0.0431944 0 0)
(0.0548872 0.0451934 0 0.048255 0 0)
(0.0305922 0.00109676 0 0.0116411 0 0)
(0.0153771 0.000435465 0 0.0099572 0 0)
(0.0148377 0.000279913 0 0.00736849 0 0)
(0.0135485 0.000718045 0 0.00644219 0 0)
(0.0129493 0.00124618 0 0.00637726 0 0)
(0.0127996 0.00184032 0 0.00682007 0 0)
(0.0130657 0.00266601 0 0.0076242 0 0)
(0.013802 0.00385122 0 0.00871361 0 0)
(0.0150473 0.00543462 0 0.0100561 0 0)
(0.0168315 0.00741409 0 0.0116548 0 0)
(0.0192009 0.0097872 0 0.0135201 0 0)
(0.0222534 0.0125753 0 0.0156621 0 0)
(0.0260854 0.0157942 0 0.0180582 0 0)
(0.0308018 0.0194812 0 0.02071 0 0)
(0.0364602 0.0236182 0 0.023541 0 0)
(0.0431726 0.0282309 0 0.0266118 0 0)
(0.0509652 0.0332511 0 0.0297942 0 0)
(0.0598771 0.0387159 0 0.0331392 0 0)
(0.034674 0.000693596 0 0.00943843 0 0)
(0.0165692 -0.000288092 0 0.00796983 0 0)
(0.0147949 -0.000335181 0 0.00592137 0 0)
(0.0136786 0.000157163 0 0.00521503 0 0)
(0.0134778 0.000722589 0 0.00528425 0 0)
(0.0135891 0.00138501 0 0.00570423 0 0)
(0.0139722 0.00223552 0 0.00627743 0 0)
(0.0148037 0.00334007 0 0.00697049 0 0)
(0.0162411 0.00473085 0 0.00782134 0 0)
(0.0183461 0.00642645 0 0.00886457 0 0)
(0.0211397 0.00844191 0 0.0101056 0 0)
(0.024685 0.010803 0 0.0115411 0 0)
(0.0290684 0.0135201 0 0.0131471 0 0)
(0.0343986 0.0166104 0 0.0149214 0 0)
(0.0407167 0.020051 0 0.0168072 0 0)
(0.0481192 0.023844 0 0.0188477 0 0)
(0.056589 0.0279428 0 0.0209558 0 0)
(0.0661381 0.0323805 0 0.0231647 0 0)
(0.0357099 -0.000637218 0 0.00887815 0 0)
(0.0173083 -0.000724595 0 0.00646321 0 0)
(0.0152541 -0.000334176 0 0.00433294 0 0)
(0.014056 0.000262252 0 0.00366667 0 0)
(0.0137857 0.00084276 0 0.00365099 0 0)
(0.0140111 0.00150808 0 0.00386695 0 0)
(0.01483 0.00231706 0 0.00418826 0 0)
(0.0163262 0.00332962 0 0.00460212 0 0)
(0.0185083 0.00459351 0 0.00512332 0 0)
(0.0213579 0.00612455 0 0.00577504 0 0)
(0.0248678 0.00790757 0 0.00656153 0 0)
(0.0290941 0.00993386 0 0.00747506 0 0)
(0.0341202 0.0122037 0 0.00850103 0 0)
(0.0400584 0.0147444 0 0.00963653 0 0)
(0.0469446 0.0175624 0 0.0108462 0 0)
(0.0548671 0.0206811 0 0.0121567 0 0)
(0.0638104 0.0240583 0 0.0135119 0 0)
(0.0737493 0.0277209 0 0.0149235 0 0)
(0.0336576 0.000384057 0 0.0074365 0 0)
(0.0170782 1.10094e-05 0 0.00553351 0 0)
(0.0160569 -9.00158e-05 0 0.0038942 0 0)
(0.0149374 0.000150025 0 0.00329907 0 0)
(0.0143274 0.000510885 0 0.00315553 0 0)
(0.0140865 0.00090186 0 0.00324065 0 0)
(0.014432 0.00136213 0 0.00344113 0 0)
(0.0155366 0.00199567 0 0.00370134 0 0)
(0.0174506 0.00285745 0 0.00401727 0 0)
(0.0201216 0.00395602 0 0.00440603 0 0)
(0.0234683 0.005283 0 0.00487896 0 0)
(0.0274721 0.00683242 0 0.00543603 0 0)
(0.0321802 0.00859429 0 0.00606755 0 0)
(0.0377102 0.0105741 0 0.00677075 0 0)
(0.0441237 0.0127603 0 0.00751787 0 0)
(0.051562 0.015171 0 0.00833516 0 0)
(0.0600096 0.0177755 0 0.00918587 0 0)
(0.0695209 0.0205927 0 0.0100647 0 0)
(0.0327212 0.000157913 0 0.00697541 0 0)
(0.0176138 -0.000140617 0 0.00527997 0 0)
(0.0168102 -0.000100787 0 0.00367026 0 0)
(0.0157455 0.000102317 0 0.00297868 0 0)
(0.0154847 0.000294728 0 0.00275824 0 0)
(0.0156363 0.000501473 0 0.00273319 0 0)
(0.0161967 0.000787584 0 0.00277488 0 0)
(0.0172427 0.00122353 0 0.0028537 0 0)
(0.0188555 0.00185788 0 0.00298088 0 0)
(0.0211277 0.00271102 0 0.00316465 0 0)
(0.0241378 0.00377812 0 0.00340333 0 0)
(0.0279624 0.00503619 0 0.00369191 0 0)
(0.0326672 0.00644932 0 0.00402711 0 0)
(0.0383306 0.00800082 0 0.00440913 0 0)
(0.0449606 0.00967994 0 0.0048192 0 0)
(0.0526272 0.011503 0 0.00527747 0 0)
(0.0613015 0.0134639 0 0.00576266 0 0)
(0.0709385 0.0155905 0 0.00625964 0 0)
(0.0315364 -0.00105732 0 0.00577007 0 0)
(0.0148908 -0.0010891 0 0.00368261 0 0)
(0.0140718 -0.000930698 0 0.00253293 0 0)
(0.0133209 -0.000664296 0 0.00209526 0 0)
(0.0133116 -0.0004531 0 0.00192437 0 0)
(0.0133653 -0.000273669 0 0.00186591 0 0)
(0.0134502 -4.05412e-05 0 0.00184867 0 0)
(0.0138629 0.000302871 0 0.00185691 0 0)
(0.0149276 0.000778545 0 0.00189844 0 0)
(0.0168563 0.00138526 0 0.00197788 0 0)
(0.0197242 0.00211644 0 0.00209295 0 0)
(0.0235332 0.00296764 0 0.00224134 0 0)
(0.0282671 0.00393092 0 0.00242117 0 0)
(0.0339372 0.00500745 0 0.002631 0 0)
(0.0405092 0.00619545 0 0.00286117 0 0)
(0.0480322 0.00750263 0 0.0031252 0 0)
(0.0564908 0.00892018 0 0.00340769 0 0)
(0.0658602 0.0104694 0 0.00370093 0 0)
(0.0341078 -0.000912191 0 0.00492061 0 0)
(0.0171278 -0.000685543 0 0.00274697 0 0)
(0.0154231 -0.000526585 0 0.0018018 0 0)
(0.0144348 -0.000400543 0 0.00144313 0 0)
(0.0145538 -0.000308887 0 0.00130589 0 0)
(0.0149876 -0.000162611 0 0.00125414 0 0)
(0.0157587 3.9256e-05 0 0.00122511 0 0)
(0.0170427 0.000273201 0 0.00120654 0 0)
(0.0189319 0.000547812 0 0.00120284 0 0)
(0.021473 0.000901532 0 0.0012178 0 0)
(0.0247158 0.00137326 0 0.00125048 0 0)
(0.0287262 0.00197729 0 0.00129924 0 0)
(0.0335787 0.00270011 0 0.00136451 0 0)
(0.0393516 0.00352088 0 0.00144772 0 0)
(0.0460544 0.00441735 0 0.00154547 0 0)
(0.0537483 0.00538393 0 0.00166663 0 0)
(0.0624219 0.00641499 0 0.00180271 0 0)
(0.0720013 0.00751684 0 0.00194498 0 0)
(0.03287 -0.00123589 0 0.00369566 0 0)
(0.0148494 -0.000626817 0 0.00179112 0 0)
(0.0137137 -0.000500343 0 0.00117289 0 0)
(0.0132892 -0.000511257 0 0.000968001 0 0)
(0.013188 -0.000546261 0 0.00086983 0 0)
(0.01293 -0.000528564 0 0.00080882 0 0)
(0.0130198 -0.000433385 0 0.000764078 0 0)
(0.0138596 -0.000272709 0 0.000735074 0 0)
(0.0155355 -5.9327e-05 0 0.000721457 0 0)
(0.0180199 0.000204303 0 0.000720623 0 0)
(0.0213021 0.000522946 0 0.000730417 0 0)
(0.0254361 0.000900528 0 0.000750013 0 0)
(0.0305081 0.00133711 0 0.000779651 0 0)
(0.0366368 0.00183172 0 0.000819022 0 0)
(0.0438653 0.00238512 0 0.000864891 0 0)
(0.0523084 0.00300393 0 0.000922725 0 0)
(0.0619567 0.00369134 0 0.000988436 0 0)
(0.0728354 0.00445405 0 0.00105252 0 0)
(0.0309687 -0.000657684 0 0.00268387 0 0)
(0.0152089 -5.03831e-05 0 0.00130122 0 0)
(0.0147151 5.66454e-05 0 0.000965649 0 0)
(0.0133578 7.61902e-05 0 0.000825258 0 0)
(0.0128293 0.000166499 0 0.000736132 0 0)
(0.0132409 0.000297546 0 0.00067671 0 0)
(0.0145105 0.000398183 0 0.000634505 0 0)
(0.0164568 0.00044836 0 0.000599614 0 0)
(0.0190524 0.000481737 0 0.000566498 0 0)
(0.0224785 0.000542625 0 0.000534838 0 0)
(0.0269987 0.000658782 0 0.000506917 0 0)
(0.0328495 0.00083472 0 0.000484019 0 0)
(0.0401972 0.00105584 0 0.000465494 0 0)
(0.049145 0.00130133 0 0.000448927 0 0)
(0.0597506 0.00156056 0 0.000434016 0 0)
(0.0721181 0.00183347 0 0.000425942 0 0)
(0.0862942 0.00212461 0 0.000418814 0 0)
(0.102313 0.00244915 0 0.0004067 0 0)
(0.0199097 -0.0407189 5.28493e-22 0.0898134 -1.14016e-21 1.29389e-37)
(0.139418 -0.0801484 -1.34268e-21 0.0556206 6.9553e-22 1.27574e-37)
(0.339997 -0.0996623 0 0.0454099 0 0)
(0.56744 -0.0899313 0 0.0467965 0 0)
(0.735793 -0.0566131 0 0.0535395 0 0)
(0.850198 -0.0351887 1.30156e-21 0.0711041 6.00941e-22 1.20164e-37)
(0.951588 -0.0415339 0 0.0902632 0 0)
(1.09539 -0.0795633 0 0.102408 0 0)
(1.33906 -0.139179 0 0.108648 0 0)
(1.70675 -0.208648 0 0.108927 0 0)
(2.18623 -0.269389 1.44353e-21 0.101858 -3.14401e-22 1.11293e-37)
(2.73459 -0.304149 0 0.0891426 0 0)
(3.33728 -0.339401 0 0.0800854 0 0)
(4.0095 -0.33949 0 0.0686742 0 0)
(4.67087 -0.306162 0 0.0588245 0 0)
(5.28418 -0.271511 1.95905e-21 0.0545786 3.4256e-22 1.02865e-37)
(5.84586 -0.199203 0 0.0446546 0 0)
(6.27847 -0.0794297 0 0.0407947 0 0)
(6.57843 0.00970364 0 0.0502195 0 0)
(6.75798 0.061427 0 0.0600493 0 0)
(6.86945 0.0831209 0 0.0701471 0 0)
(6.95265 0.0957995 0 0.0853539 0 0)
(7.02769 0.112184 0 0.0952972 0 0)
(7.05242 0.112462 -2.46219e-21 0.103439 6.68096e-22 9.02885e-38)
(7.11026 0.0710745 3.35686e-21 0.129783 -7.30263e-22 8.87935e-38)
(7.17423 0.0359162 -4.24507e-21 0.163045 6.6242e-22 8.73154e-38)
(7.3165 -0.0150625 -5.10665e-21 0.219033 5.3034e-22 8.5854e-38)
(7.55957 -0.101681 0 0.261535 0 0)
(7.92422 -0.172476 0 0.233952 0 0)
(8.35906 -0.245955 7.53781e-21 0.263509 -3.71283e-22 8.15673e-38)
(8.86597 -0.311669 8.39789e-21 0.27217 -4.71814e-22 8.01707e-38)
(9.45651 -0.358718 0 0.259258 0 0)
(10.148 -0.394051 0 0.24064 0 0)
(10.9022 -0.410259 1.12114e-20 0.232926 -5.3513e-22 7.60826e-38)
(11.6825 -0.422544 0 0.238336 0 0)
(12.5055 -0.439786 0 0.261739 0 0)
(13.4329 -0.501332 -1.35101e-20 0.311212 3.01791e-22 7.21477e-38)
(14.537 -0.598278 0 0.334507 0 0)
(15.8062 -0.672767 -1.48167e-20 0.311201 2.77291e-22 6.96096e-38)
(17.0411 -0.624088 -3.09793e-20 0.249274 6.67658e-22 2.73462e-37)
(17.9582 -0.45905 0 0.209021 0 0)
(18.4697 -0.297248 0 0.206715 0 0)
(18.5765 -0.20431 0 0.233594 0 0)
(18.597 -0.298685 0 0.248521 0 0)
(18.9049 -0.39668 0 0.299114 0 0)
(19.3641 -0.5309 -3.93241e-20 0.299708 8.66366e-22 2.44995e-37)
(19.9818 -0.819378 -4.01294e-20 0.299319 5.53278e-22 2.40476e-37)
(20.4805 -0.832042 -4.07034e-20 0.361843 4.4332e-22 2.36022e-37)
(20.9443 -0.376447 0 0.208368 0 0)
(20.9647 -0.244161 4.20012e-20 0.268038 -7.64358e-22 2.27302e-37)
(21.3065 -0.294502 0 0.213419 0 0)
(21.7524 -0.304184 -4.30479e-20 0.202884 6.56e-22 2.18835e-37)
(22.2666 -0.288836 -4.35948e-20 0.185668 6.04131e-22 2.14697e-37)
(22.7881 -0.300552 0 0.16243 0 0)
(23.424 -0.314508 0 0.14041 0 0)
(23.9735 -0.442658 0 0.147206 0 0)
(24.5702 -0.357669 -4.59464e-20 0.142255 5.12594e-22 1.98758e-37)
(24.9925 -0.339591 0 0.204772 0 0)
(25.7458 -0.41724 0 0.164364 0 0)
(26.6519 -0.477699 0 0.142313 0 0)
(27.846 -0.516893 0 0.118796 0 0)
(28.9828 -0.643449 0 0.127987 0 0)
(30.1392 -0.561322 0 0.0984292 0 0)
(30.9599 -0.444311 0 0.157838 0 0)
(31.8886 -0.464429 0 0.151989 0 0)
(32.8869 -0.470015 5.0001e-20 0.150603 -2.36765e-22 1.66311e-37)
(33.9284 -0.468949 0 0.145076 0 0)
(34.9246 -0.442951 0 0.141281 0 0)
(35.8512 -0.399873 -5.07851e-20 0.13814 3.29597e-22 1.56491e-37)
(36.648 -0.347015 -5.10602e-20 0.136693 2.90052e-22 1.53323e-37)
(37.3305 -0.303405 0 0.137573 0 0)
(37.9097 -0.27381 5.15214e-20 0.141353 -2.88709e-22 1.47143e-37)
(38.4525 -0.253017 -5.16012e-20 0.150051 2.80555e-22 1.44128e-37)
(38.9758 -0.244304 0 0.155677 0 0)
(39.4659 -0.226435 5.11012e-20 0.146068 -2.29461e-22 1.38247e-37)
(39.8404 -0.179777 0 0.133013 0 0)
(40.0255 -0.113566 0 0.122018 0 0)
(39.9344 -0.0256217 -4.91547e-20 0.115027 1.49518e-22 1.29791e-37)
(39.4867 0.0585765 0 0.115923 0 0)
(38.7044 0.129491 4.80961e-20 0.121732 -2.57264e-22 1.2439e-37)
(37.68 0.0982815 0 0.112324 0 0)
(36.8144 0.0399888 -4.72316e-20 0.0933691 2.28019e-22 1.19174e-37)
(36.1762 0.0447235 -4.67609e-20 0.0911426 1.82141e-22 1.16633e-37)
(35.5591 0.0068298 -4.62639e-20 0.0934763 1.52375e-22 1.14135e-37)
(35.1803 -0.092783 -9.14422e-20 0.0928228 2.86064e-22 4.46724e-37)
(34.7882 -0.150499 9.02901e-20 0.120209 -2.6985e-22 4.37077e-37)
(34.3743 -0.16328 0 0.125596 0 0)
(33.6979 -0.0648537 0 0.168001 0 0)
(32.956 0.0799253 0 0.168899 0 0)
(32.6045 -0.0993732 8.55428e-20 0.19622 -5.32734e-22 4.00136e-37)
(33.0724 -0.265613 8.48793e-20 0.137272 -6.30214e-22 3.91305e-37)
(33.9542 -0.338266 -8.47679e-20 0.100697 7.015e-22 3.82635e-37)
(34.9815 -0.341081 0 0.0723753 0 0)
(36.0091 -0.312996 8.54107e-20 0.0543407 -6.76496e-22 3.6576e-37)
(36.9633 -0.269406 8.5693e-20 0.0420315 -6.06117e-22 3.57551e-37)
(37.7859 -0.221481 8.56786e-20 0.0339225 -5.15102e-22 3.49489e-37)
(38.4422 -0.167615 0 0.0282604 0 0)
(38.8845 -0.106928 0 0.0241985 0 0)
(39.0798 -0.0353374 0 0.0210786 0 0)
(38.9553 0.0498176 8.03756e-20 0.0189042 -3.86769e-23 3.18671e-37)
(38.476 0.145167 0 0.0185275 0 0)
(37.5668 0.246278 0 0.0218291 0 0)
(36.2782 0.322207 -7.11481e-20 0.0290182 -1.91333e-22 2.96992e-37)
(34.6676 0.347299 0 0.0356154 0 0)
(33.0423 0.334419 0 0.0377462 0 0)
(31.4967 0.267911 -5.96548e-20 0.0329277 -3.20732e-22 2.76484e-37)
(30.0085 0.308716 0 0.0451783 0 0)
(28.8513 0.11421 0 0.135448 0 0)
(28.4978 -0.0187051 4.93296e-20 0.0928373 6.32202e-24 2.57099e-37)
(28.3948 -0.0649037 4.73725e-20 0.066231 -1.11118e-22 2.50881e-37)
(28.4901 -0.0686263 0 0.0474202 0 0)
(28.5044 -0.0459132 -4.53534e-20 0.034917 1.77658e-22 2.38802e-37)
(28.4954 -0.0160423 0 0.0263646 0 0)
(28.3247 0.0230577 4.40807e-20 0.020178 -1.03119e-22 2.2718e-37)
(28.0175 0.0645022 0 0.0158238 0 0)
(27.5006 0.110784 4.20024e-20 0.0126994 3.70133e-23 2.15995e-37)
(26.7794 0.157279 4.0349e-20 0.0106495 1.1331e-22 2.10562e-37)
(25.8281 0.203094 0 0.0094436 0 0)
(24.6635 0.244708 0 0.0089102 0 0)
(23.2869 0.282091 0 0.00887308 0 0)
(21.7268 0.313485 0 0.00919604 0 0)
(20.0059 0.337543 0 0.00976786 0 0)
(18.1721 0.352319 0 0.0105227 0 0)
(16.2747 0.356687 0 0.0112668 0 0)
(14.3717 0.350355 1.43624e-20 0.0118733 2.67413e-22 1.70715e-37)
(12.5167 0.334279 -1.12694e-20 0.0122239 -2.16363e-22 1.66166e-37)
(10.7561 0.310781 0 0.012319 0 0)
(9.12326 0.282374 0 0.0121926 0 0)
(7.64158 0.251159 0 0.011888 0 0)
(6.32559 0.218463 0 0.0114231 0 0)
(5.18359 0.185262 -4.82561e-21 0.0108033 3.42335e-23 5.79064e-37)
(4.21863 0.152313 0 0.0100238 0 0)
(3.42915 0.120565 2.76821e-21 0.00909771 -1.19912e-22 5.47216e-37)
(2.8079 0.0910377 -2.34931e-21 0.00806073 1.38337e-22 5.3178e-37)
(2.34329 0.065029 0 0.00700948 0 0)
(2.01767 0.0452415 0 0.00628526 0 0)
(1.80612 0.0280049 0 0.00547222 0 0)
(1.68566 0.0146604 2.2096e-21 0.00479424 -1.27133e-22 4.73155e-37)
(1.63806 0.00473628 2.24716e-21 0.00424532 -1.17659e-22 4.59257e-37)
(1.64603 -0.00226693 0 0.00381311 0 0)
(1.69461 -0.00679259 2.24536e-21 0.0034853 -9.75121e-23 4.32335e-37)
(1.77092 -0.00924136 2.20358e-21 0.00325113 -9.0492e-23 4.19304e-37)
(1.86395 -0.00998891 -2.1429e-21 0.00310279 8.59962e-23 4.06551e-37)
(1.96447 -0.00938314 0 0.00303601 0 0)
(2.0646 -0.00774008 0 0.00304983 0 0)
(2.15833 -0.00532344 -1.93036e-21 0.00314493 8.34485e-23 3.69928e-37)
(2.24023 -0.00230214 0 0.00332874 0 0)
(2.30664 0.00118473 0 0.0036132 0 0)
(2.35494 0.00501558 0 0.00400593 0 0)
(2.38363 0.00903577 0 0.00450952 0 0)
(2.39247 0.0131676 1.97497e-21 0.00512338 -1.12537e-22 3.14069e-37)
(2.38193 0.017281 2.1237e-21 0.00585919 -1.22545e-22 3.03636e-37)
(2.35353 0.0211169 0 0.0067479 0 0)
(2.31115 0.0245197 2.62002e-21 0.00787189 -1.62939e-22 2.8348e-37)
(2.26142 0.0277252 0 0.0094107 0 0)
(2.21203 0.0313265 0 0.0115138 0 0)
(2.17157 0.0357271 4.01678e-21 0.0141533 -1.83085e-22 2.5496e-37)
(2.14933 0.0414415 0 0.0169823 0 0)
(2.15137 0.0488976 5.22582e-21 0.0193388 -1.19799e-22 2.37048e-37)
(2.1705 0.0561524 0 0.0201263 0 0)
(2.19202 0.0578428 0 0.0183618 0 0)
(2.19462 0.0489784 6.52964e-21 0.0152236 1.12434e-23 2.11761e-37)
(2.16644 0.0282766 0 0.0132145 0 0)
(2.14837 0.000706918 6.8445e-21 0.0130116 -1.05679e-22 1.95919e-37)