/*--------------------------------*- C++ -*----------------------------------*\
  =========                 |
  \\      /  F ield         | OpenFOAM: The Open Source CFD Toolbox
   \\    /   O peration     | Website:  https://openfoam.org
    \\  /    A nd           | Version:  10
     \\/     M anipulation  |
\*---------------------------------------------------------------------------*/
FoamFile
{
    format      ascii;
    class       volVectorField;
    location    "0.068";
    object      U;
}
// * * * * * * * * * * * * * * * * * * * * * * * * * * * * * * * * * * * * * //

dimensions      [0 1 -1 0 0 0 0];

internalField   nonuniform List<vector> 
4000
(
(5.00001 -7.31914e-05 0)
(5.00019 -0.000221366 0)
(5.0005 -0.000368861 0)
(5.00097 -0.000516307 0)
(5.00159 -0.000664209 0)
(5.00237 -0.000812537 0)
(5.00329 -0.000961534 0)
(5.00435 -0.00111113 0)
(5.00557 -0.00126174 0)
(5.00695 -0.00141318 0)
(5.00847 -0.00156605 0)
(5.01015 -0.00172011 0)
(5.01198 -0.00187615 0)
(5.01397 -0.00203381 0)
(5.01611 -0.0021941 0)
(5.01842 -0.00235653 0)
(5.0209 -0.00252231 0)
(5.02354 -0.00269083 0)
(5.02635 -0.00286352 0)
(5.02934 -0.00303961 0)
(5.03251 -0.00322077 0)
(5.03586 -0.00340607 0)
(5.03939 -0.00359741 0)
(5.04313 -0.0037937 0)
(5.04706 -0.00399708 0)
(5.0512 -0.00420629 0)
(5.05555 -0.00442371 0)
(5.06012 -0.00464793 0)
(5.06492 -0.00488154 0)
(5.06996 -0.00512297 0)
(5.07525 -0.00537503 0)
(5.0808 -0.00563599 0)
(5.08661 -0.00590888 0)
(5.0927 -0.00619179 0)
(5.09907 -0.00648797 0)
(5.10576 -0.00679533 0)
(5.11275 -0.00711735 0)
(5.12008 -0.00745174 0)
(5.12774 -0.00780221 0)
(5.13577 -0.00816626 0)
(5.14417 -0.00854782 0)
(5.15296 -0.00894419 0)
(5.16215 -0.00935951 0)
(5.17177 -0.00979087 0)
(5.18183 -0.0102426 0)
(5.19235 -0.0107115 0)
(5.20335 -0.0112022 0)
(5.21485 -0.0117112 0)
(5.22687 -0.0122431 0)
(5.23943 -0.0127945 0)
(5.25256 -0.0133698 0)
(5.26628 -0.0139654 0)
(5.2806 -0.0145858 0)
(5.29555 -0.0152269 0)
(5.31116 -0.0158935 0)
(5.32745 -0.0165808 0)
(5.34444 -0.0172936 0)
(5.36215 -0.0180267 0)
(5.38061 -0.0187846 0)
(5.39984 -0.0195617 0)
(5.41987 -0.0203621 0)
(5.4407 -0.0211794 0)
(5.46236 -0.0220174 0)
(5.48487 -0.0228689 0)
(5.50825 -0.023737 0)
(5.5325 -0.0246137 0)
(5.55764 -0.0255013 0)
(5.58368 -0.0263909 0)
(5.61061 -0.0272839 0)
(5.63844 -0.0281703 0)
(5.66716 -0.0290505 0)
(5.69676 -0.0299137 0)
(5.72723 -0.0307595 0)
(5.75853 -0.0315759 0)
(5.79065 -0.0323622 0)
(5.82354 -0.0331057 0)
(5.85716 -0.0338054 0)
(5.89147 -0.0344484 0)
(5.9264 -0.035034 0)
(5.96189 -0.0355498 0)
(5.99787 -0.0359958 0)
(6.03427 -0.0363607 0)
(6.071 -0.0366459 0)
(6.10798 -0.0368418 0)
(6.14511 -0.0369517 0)
(6.18231 -0.036968 0)
(6.21949 -0.0368962 0)
(6.25655 -0.036731 0)
(6.29341 -0.0364801 0)
(6.32996 -0.0361404 0)
(6.36614 -0.0357214 0)
(6.40185 -0.035222 0)
(6.43703 -0.0346532 0)
(6.4716 -0.0340151 0)
(6.50549 -0.0333198 0)
(6.53866 -0.032568 0)
(6.57104 -0.0317723 0)
(6.6026 -0.0309335 0)
(6.63329 -0.0300641 0)
(6.6631 -0.0291646 0)
(6.69198 -0.0282472 0)
(6.71994 -0.0273118 0)
(6.74694 -0.0263698 0)
(6.773 -0.0254208 0)
(6.79811 -0.0244752 0)
(6.82226 -0.023532 0)
(6.84548 -0.0226008 0)
(6.86777 -0.0216799 0)
(6.88915 -0.0207783 0)
(6.90964 -0.0198935 0)
(6.92926 -0.0190336 0)
(6.94803 -0.0181957 0)
(6.96597 -0.0173869 0)
(6.98313 -0.0166037 0)
(6.99952 -0.0158525 0)
(7.01517 -0.0151291 0)
(7.03011 -0.0144392 0)
(7.04438 -0.013778 0)
(7.058 -0.0131506 0)
(7.07101 -0.0125519 0)
(7.08343 -0.0119865 0)
(7.0953 -0.0114489 0)
(7.10665 -0.0109435 0)
(7.1175 -0.0104646 0)
(7.12788 -0.0100164 0)
(7.13783 -0.00959314 0)
(7.14737 -0.00919907 0)
(7.15653 -0.00882829 0)
(7.16533 -0.00848518 0)
(7.1738 -0.00816384 0)
(7.18197 -0.00786879 0)
(7.18985 -0.00759414 0)
(7.19747 -0.00734458 0)
(7.20486 -0.00711422 0)
(7.21204 -0.00690799 0)
(7.21902 -0.0067199 0)
(7.22583 -0.00655519 0)
(7.23248 -0.00640769 0)
(7.23901 -0.00628297 0)
(7.24542 -0.00617464 0)
(7.25174 -0.00608861 0)
(7.25798 -0.00601815 0)
(7.26417 -0.00596951 0)
(7.27032 -0.00593558 0)
(7.27645 -0.00592288 0)
(7.28258 -0.00592386 0)
(7.28872 -0.00594525 0)
(7.29489 -0.00597899 0)
(7.30111 -0.00603198 0)
(7.30739 -0.00609565 0)
(7.31374 -0.00617705 0)
(7.32018 -0.00626712 0)
(7.32672 -0.0063732 0)
(7.33337 -0.00648579 0)
(7.34013 -0.00661276 0)
(7.34703 -0.00674425 0)
(7.35407 -0.00688911 0)
(7.36125 -0.0070371 0)
(7.36859 -0.00719867 0)
(7.37609 -0.00736305 0)
(7.38376 -0.00754307 0)
(7.39162 -0.00772696 0)
(7.39966 -0.00793089 0)
(7.40792 -0.00814133 0)
(7.4164 -0.00837878 0)
(7.42514 -0.00862678 0)
(7.43413 -0.00891127 0)
(7.44344 -0.00921138 0)
(7.45305 -0.00955955 0)
(7.46305 -0.00992871 0)
(7.47343 -0.0103588 0)
(7.48429 -0.0108147 0)
(7.49562 -0.0113447 0)
(7.50753 -0.0119036 0)
(7.52001 -0.0125487 0)
(7.5332 -0.0132228 0)
(7.54707 -0.0139927 0)
(7.56176 -0.0147879 0)
(7.57726 -0.0156842 0)
(7.5937 -0.0165969 0)
(7.61106 -0.0176107 0)
(7.62947 -0.0186264 0)
(7.64889 -0.019737 0)
(7.66945 -0.0208295 0)
(7.69109 -0.0220039 0)
(7.71391 -0.0231355 0)
(7.73785 -0.0243306 0)
(7.76297 -0.0254549 0)
(7.7892 -0.0266204 0)
(7.81654 -0.027686 0)
(7.84493 -0.0287693 0)
(7.87434 -0.0297252 0)
(7.90466 -0.0306773 0)
(7.93592 -0.0314782 0)
(7.96791 -0.0322599 0)
(8.00088 -0.0328674 0)
(8.03389 -0.0334498 0)
(8.06946 -0.0338474 0)
(8.0964 -0.034221 0)
(8.15013 -0.0343679 0)
(5.00001 -0.000219378 0)
(5.00019 -0.000662495 0)
(5.0005 -0.00110447 0)
(5.00097 -0.00154615 0)
(5.0016 -0.00198909 0)
(5.00237 -0.0024333 0)
(5.00328 -0.0028793 0)
(5.00435 -0.00332723 0)
(5.00557 -0.00377788 0)
(5.00693 -0.00423131 0)
(5.00845 -0.00468868 0)
(5.01012 -0.00514999 0)
(5.01195 -0.00561673 0)
(5.01393 -0.00608885 0)
(5.01607 -0.00656816 0)
(5.01837 -0.00705453 0)
(5.02083 -0.00755009 0)
(5.02346 -0.00805465 0)
(5.02626 -0.00857067 0)
(5.02923 -0.00909783 0)
(5.03238 -0.00963898 0)
(5.03571 -0.0101937 0)
(5.03923 -0.0107651 0)
(5.04294 -0.0113527 0)
(5.04685 -0.01196 0)
(5.05096 -0.0125864 0)
(5.05528 -0.0132356 0)
(5.05983 -0.013907 0)
(5.06459 -0.0146047 0)
(5.0696 -0.0153276 0)
(5.07485 -0.0160805 0)
(5.08035 -0.0168621 0)
(5.08612 -0.0176773 0)
(5.09217 -0.0185247 0)
(5.0985 -0.0194096 0)
(5.10513 -0.0203303 0)
(5.11208 -0.0212925 0)
(5.11935 -0.0222943 0)
(5.12696 -0.0233416 0)
(5.13493 -0.0244323 0)
(5.14326 -0.0255727 0)
(5.15199 -0.0267604 0)
(5.16111 -0.0280017 0)
(5.17066 -0.0292943 0)
(5.18065 -0.0306446 0)
(5.19109 -0.0320499 0)
(5.20202 -0.0335169 0)
(5.21344 -0.0350424 0)
(5.22538 -0.0366333 0)
(5.23786 -0.0382859 0)
(5.25091 -0.0400071 0)
(5.26454 -0.0417927 0)
(5.27877 -0.0436494 0)
(5.29364 -0.0455725 0)
(5.30916 -0.0475683 0)
(5.32536 -0.049631 0)
(5.34226 -0.0517666 0)
(5.35989 -0.0539682 0)
(5.37827 -0.0562408 0)
(5.39742 -0.0585763 0)
(5.41736 -0.0609783 0)
(5.43813 -0.0634371 0)
(5.45973 -0.0659548 0)
(5.48219 -0.0685193 0)
(5.50552 -0.0711307 0)
(5.52974 -0.0737745 0)
(5.55486 -0.0764483 0)
(5.58089 -0.0791348 0)
(5.60783 -0.0818287 0)
(5.63569 -0.0845096 0)
(5.66447 -0.0871693 0)
(5.69414 -0.0897844 0)
(5.72471 -0.0923441 0)
(5.75614 -0.094822 0)
(5.78841 -0.0972052 0)
(5.82148 -0.0994657 0)
(5.85531 -0.10159 0)
(5.88985 -0.103548 0)
(5.92505 -0.105328 0)
(5.96082 -0.106901 0)
(5.99711 -0.108258 0)
(6.03384 -0.109374 0)
(6.07091 -0.110242 0)
(6.10825 -0.110843 0)
(6.14575 -0.111178 0)
(6.18332 -0.111232 0)
(6.22087 -0.111013 0)
(6.2583 -0.110515 0)
(6.29551 -0.109751 0)
(6.33241 -0.108722 0)
(6.36891 -0.107446 0)
(6.40493 -0.105931 0)
(6.44039 -0.1042 0)
(6.47522 -0.102263 0)
(6.50934 -0.100148 0)
(6.54272 -0.0978666 0)
(6.57528 -0.0954476 0)
(6.60699 -0.0929044 0)
(6.63782 -0.0902647 0)
(6.66772 -0.0875413 0)
(6.69669 -0.0847607 0)
(6.7247 -0.0819339 0)
(6.75174 -0.0790853 0)
(6.77781 -0.0762237 0)
(6.80291 -0.0733707 0)
(6.82705 -0.0705327 0)
(6.85023 -0.0677289 0)
(6.87246 -0.0649632 0)
(6.89378 -0.0622521 0)
(6.91419 -0.0595975 0)
(6.93372 -0.0570134 0)
(6.95239 -0.0544997 0)
(6.97024 -0.0520682 0)
(6.98728 -0.049717 0)
(7.00356 -0.047456 0)
(7.01909 -0.0452815 0)
(7.03392 -0.0432017 0)
(7.04806 -0.0412115 0)
(7.06157 -0.0393176 0)
(7.07446 -0.0375135 0)
(7.08676 -0.035805 0)
(7.09852 -0.0341847 0)
(7.10975 -0.0326575 0)
(7.12049 -0.0312152 0)
(7.13077 -0.0298623 0)
(7.14061 -0.0285903 0)
(7.15005 -0.0274033 0)
(7.15911 -0.0262927 0)
(7.16782 -0.0252624 0)
(7.1762 -0.024304 0)
(7.18427 -0.0234215 0)
(7.19207 -0.0226064 0)
(7.1996 -0.0218632 0)
(7.20691 -0.0211835 0)
(7.214 -0.0205723 0)
(7.2209 -0.0200212 0)
(7.22762 -0.0195358 0)
(7.2342 -0.0191076 0)
(7.24064 -0.0187428 0)
(7.24698 -0.0184327 0)
(7.25322 -0.018184 0)
(7.25939 -0.0179877 0)
(7.2655 -0.0178508 0)
(7.27157 -0.0177636 0)
(7.27763 -0.0177334 0)
(7.28368 -0.0177498 0)
(7.28975 -0.0178201 0)
(7.29585 -0.0179328 0)
(7.302 -0.0180952 0)
(7.30822 -0.0182949 0)
(7.31451 -0.0185392 0)
(7.32089 -0.0188145 0)
(7.32737 -0.0191288 0)
(7.33397 -0.0194677 0)
(7.34069 -0.0198404 0)
(7.34755 -0.0202318 0)
(7.35454 -0.0206538 0)
(7.36168 -0.0210908 0)
(7.36897 -0.0215586 0)
(7.37642 -0.0220415 0)
(7.38404 -0.0225607 0)
(7.39184 -0.0231001 0)
(7.39981 -0.0236874 0)
(7.408 -0.0243056 0)
(7.41638 -0.0249901 0)
(7.42501 -0.0257217 0)
(7.43387 -0.0265441 0)
(7.44303 -0.027434 0)
(7.45248 -0.0284442 0)
(7.4623 -0.0295447 0)
(7.47248 -0.0307972 0)
(7.48311 -0.0321628 0)
(7.4942 -0.0337118 0)
(7.50585 -0.035393 0)
(7.51806 -0.037285 0)
(7.53096 -0.0393214 0)
(7.54454 -0.0415875 0)
(7.55894 -0.0439989 0)
(7.57415 -0.0466468 0)
(7.59031 -0.0494261 0)
(7.60741 -0.0524323 0)
(7.62557 -0.0555386 0)
(7.64479 -0.0588435 0)
(7.66516 -0.0621986 0)
(7.68667 -0.0657052 0)
(7.70939 -0.0691951 0)
(7.7333 -0.0727727 0)
(7.75842 -0.0762542 0)
(7.78472 -0.079749 0)
(7.81218 -0.0830627 0)
(7.84074 -0.0863126 0)
(7.87037 -0.0892995 0)
(7.90096 -0.0921521 0)
(7.93253 -0.0946708 0)
(7.96487 -0.0970005 0)
(7.99823 -0.0989354 0)
(8.03162 -0.100653 0)
(8.0677 -0.101922 0)
(8.09488 -0.10302 0)
(8.14933 -0.103542 0)
(5.00001 -0.000365208 0)
(5.00019 -0.00110078 0)
(5.0005 -0.00183572 0)
(5.00097 -0.00257011 0)
(5.00159 -0.00330637 0)
(5.00235 -0.00404469 0)
(5.00327 -0.00478565 0)
(5.00433 -0.00552986 0)
(5.00554 -0.00627812 0)
(5.00689 -0.00703125 0)
(5.0084 -0.00779029 0)
(5.01006 -0.00855623 0)
(5.01187 -0.00933037 0)
(5.01384 -0.0101139 0)
(5.01596 -0.0109084 0)
(5.01824 -0.0117152 0)
(5.02068 -0.0125361 0)
(5.02328 -0.0133727 0)
(5.02605 -0.014227 0)
(5.02899 -0.0151008 0)
(5.0321 -0.0159963 0)
(5.03539 -0.0169155 0)
(5.03887 -0.0178609 0)
(5.04253 -0.0188346 0)
(5.04639 -0.0198392 0)
(5.05045 -0.020877 0)
(5.05471 -0.0219511 0)
(5.05919 -0.0230636 0)
(5.06389 -0.0242178 0)
(5.06883 -0.0254161 0)
(5.074 -0.0266618 0)
(5.07942 -0.0279576 0)
(5.0851 -0.0293068 0)
(5.09106 -0.0307122 0)
(5.09729 -0.0321774 0)
(5.10382 -0.033705 0)
(5.11066 -0.0352989 0)
(5.11782 -0.0369618 0)
(5.12532 -0.0386975 0)
(5.13316 -0.0405089 0)
(5.14137 -0.0423998 0)
(5.14996 -0.044373 0)
(5.15895 -0.0464326 0)
(5.16836 -0.0485811 0)
(5.17819 -0.0508227 0)
(5.18849 -0.0531598 0)
(5.19925 -0.0555963 0)
(5.21051 -0.0581347 0)
(5.22229 -0.0607786 0)
(5.2346 -0.06353 0)
(5.24747 -0.0663924 0)
(5.26092 -0.0693673 0)
(5.27497 -0.0724576 0)
(5.28966 -0.0756639 0)
(5.305 -0.0789885 0)
(5.32101 -0.0824311 0)
(5.33773 -0.0859925 0)
(5.35518 -0.089671 0)
(5.37338 -0.093466 0)
(5.39236 -0.0973737 0)
(5.41215 -0.101391 0)
(5.43276 -0.105512 0)
(5.45422 -0.109731 0)
(5.47656 -0.114038 0)
(5.49978 -0.118423 0)
(5.52392 -0.122873 0)
(5.54899 -0.127374 0)
(5.575 -0.131908 0)
(5.60195 -0.136455 0)
(5.62986 -0.140993 0)
(5.65873 -0.145496 0)
(5.68854 -0.149936 0)
(5.71929 -0.154282 0)
(5.75096 -0.158503 0)
(5.78353 -0.162562 0)
(5.81695 -0.166424 0)
(5.85119 -0.170053 0)
(5.8862 -0.173409 0)
(5.92191 -0.176457 0)
(5.95826 -0.179161 0)
(5.99518 -0.181489 0)
(6.03256 -0.183411 0)
(6.07033 -0.184902 0)
(6.10839 -0.185941 0)
(6.14663 -0.186514 0)
(6.18496 -0.186613 0)
(6.22325 -0.186235 0)
(6.26142 -0.185384 0)
(6.29935 -0.18407 0)
(6.33694 -0.182309 0)
(6.3741 -0.180121 0)
(6.41074 -0.17753 0)
(6.44677 -0.174567 0)
(6.48212 -0.171261 0)
(6.51671 -0.167646 0)
(6.5505 -0.163758 0)
(6.58342 -0.159632 0)
(6.61543 -0.155303 0)
(6.64649 -0.150809 0)
(6.67659 -0.146183 0)
(6.7057 -0.141458 0)
(6.7338 -0.136667 0)
(6.76089 -0.13184 0)
(6.78696 -0.127002 0)
(6.81203 -0.122182 0)
(6.8361 -0.117399 0)
(6.85918 -0.112675 0)
(6.8813 -0.108028 0)
(6.90247 -0.103475 0)
(6.92271 -0.0990266 0)
(6.94206 -0.0946968 0)
(6.96053 -0.0904939 0)
(6.97816 -0.086427 0)
(6.99499 -0.0825017 0)
(7.01103 -0.078724 0)
(7.02633 -0.0750968 0)
(7.04091 -0.0716236 0)
(7.05482 -0.0683052 0)
(7.06807 -0.065143 0)
(7.08072 -0.0621361 0)
(7.09278 -0.0592843 0)
(7.1043 -0.0565849 0)
(7.11529 -0.0540368 0)
(7.1258 -0.051636 0)
(7.13586 -0.0493806 0)
(7.14548 -0.0472658 0)
(7.1547 -0.0452891 0)
(7.16356 -0.0434454 0)
(7.17206 -0.0417319 0)
(7.18024 -0.0401433 0)
(7.18812 -0.0386769 0)
(7.19573 -0.0373276 0)
(7.20309 -0.036093 0)
(7.21022 -0.0349685 0)
(7.21714 -0.0339522 0)
(7.22387 -0.0330402 0)
(7.23044 -0.0322313 0)
(7.23686 -0.0315222 0)
(7.24315 -0.0309124 0)
(7.24933 -0.0303993 0)
(7.25542 -0.0299826 0)
(7.26144 -0.0296599 0)
(7.26741 -0.0294309 0)
(7.27335 -0.0292929 0)
(7.27927 -0.0292451 0)
(7.28519 -0.0292841 0)
(7.29114 -0.0294081 0)
(7.29712 -0.0296123 0)
(7.30316 -0.0298939 0)
(7.30927 -0.0302466 0)
(7.31547 -0.0306669 0)
(7.32177 -0.0311466 0)
(7.32817 -0.0316827 0)
(7.3347 -0.0322656 0)
(7.34135 -0.0328939 0)
(7.34815 -0.0335574 0)
(7.35508 -0.0342585 0)
(7.36217 -0.0349873 0)
(7.3694 -0.0357518 0)
(7.37679 -0.0365439 0)
(7.38434 -0.0373789 0)
(7.39205 -0.0382513 0)
(7.39992 -0.0391845 0)
(7.40798 -0.0401762 0)
(7.41622 -0.0412578 0)
(7.42467 -0.0424301 0)
(7.43332 -0.0437311 0)
(7.44224 -0.0451642 0)
(7.45141 -0.0467719 0)
(7.46091 -0.0485593 0)
(7.47073 -0.0505702 0)
(7.48098 -0.0528101 0)
(7.49164 -0.0553203 0)
(7.50285 -0.0581053 0)
(7.51459 -0.0611996 0)
(7.527 -0.064604 0)
(7.54008 -0.0683421 0)
(7.55398 -0.0724079 0)
(7.56871 -0.0768103 0)
(7.5844 -0.0815326 0)
(7.60107 -0.0865661 0)
(7.61885 -0.0918801 0)
(7.63774 -0.0974477 0)
(7.65786 -0.103221 0)
(7.6792 -0.109158 0)
(7.70184 -0.115192 0)
(7.72577 -0.121269 0)
(7.75102 -0.127311 0)
(7.77755 -0.133256 0)
(7.80536 -0.13902 0)
(7.83436 -0.144545 0)
(7.86454 -0.149745 0)
(7.89577 -0.154579 0)
(7.92805 -0.158966 0)
(7.96118 -0.162883 0)
(7.99538 -0.166259 0)
(8.02963 -0.16911 0)
(8.06671 -0.171303 0)
(8.09463 -0.173121 0)
(8.15059 -0.174027 0)
(5.00001 -0.000510272 0)
(5.00019 -0.00153673 0)
(5.0005 -0.00256282 0)
(5.00096 -0.00358811 0)
(5.00158 -0.00461572 0)
(5.00234 -0.00564589 0)
(5.00324 -0.00667934 0)
(5.0043 -0.00771695 0)
(5.0055 -0.00875974 0)
(5.00684 -0.00980888 0)
(5.00834 -0.0108657 0)
(5.00998 -0.0119317 0)
(5.01177 -0.0130084 0)
(5.01371 -0.0140978 0)
(5.0158 -0.0152017 0)
(5.01805 -0.0163224 0)
(5.02046 -0.0174621 0)
(5.02302 -0.0186232 0)
(5.02575 -0.0198085 0)
(5.02864 -0.0210205 0)
(5.0317 -0.0222623 0)
(5.03493 -0.0235369 0)
(5.03834 -0.0248475 0)
(5.04194 -0.0261973 0)
(5.04572 -0.0275898 0)
(5.0497 -0.0290286 0)
(5.05387 -0.0305173 0)
(5.05826 -0.0320598 0)
(5.06286 -0.0336598 0)
(5.06768 -0.0353213 0)
(5.07274 -0.0370486 0)
(5.07804 -0.0388456 0)
(5.08359 -0.0407168 0)
(5.08941 -0.0426664 0)
(5.0955 -0.0446988 0)
(5.10188 -0.0468187 0)
(5.10856 -0.0490306 0)
(5.11555 -0.051339 0)
(5.12287 -0.0537488 0)
(5.13053 -0.0562647 0)
(5.13855 -0.0588915 0)
(5.14694 -0.0616338 0)
(5.15572 -0.0644967 0)
(5.16491 -0.0674849 0)
(5.17453 -0.0706031 0)
(5.18459 -0.0738561 0)
(5.19512 -0.0772485 0)
(5.20613 -0.0807849 0)
(5.21765 -0.0844697 0)
(5.2297 -0.088307 0)
(5.24231 -0.0923008 0)
(5.25549 -0.0964547 0)
(5.26927 -0.100772 0)
(5.28367 -0.105255 0)
(5.29873 -0.109907 0)
(5.31447 -0.114729 0)
(5.33091 -0.11972 0)
(5.34808 -0.124882 0)
(5.36601 -0.130213 0)
(5.38472 -0.135709 0)
(5.40425 -0.141366 0)
(5.42463 -0.147177 0)
(5.44587 -0.153134 0)
(5.468 -0.159226 0)
(5.49106 -0.165439 0)
(5.51506 -0.171756 0)
(5.54003 -0.178158 0)
(5.56598 -0.18462 0)
(5.59293 -0.191114 0)
(5.6209 -0.19761 0)
(5.64988 -0.204071 0)
(5.67988 -0.210456 0)
(5.7109 -0.216723 0)
(5.74292 -0.222823 0)
(5.77592 -0.228704 0)
(5.80988 -0.234313 0)
(5.84474 -0.239595 0)
(5.88045 -0.244491 0)
(5.91697 -0.248947 0)
(5.9542 -0.252909 0)
(5.99208 -0.256325 0)
(6.03049 -0.259149 0)
(6.06935 -0.261344 0)
(6.10854 -0.262876 0)
(6.14794 -0.263723 0)
(6.18743 -0.263873 0)
(6.22689 -0.263321 0)
(6.26621 -0.262074 0)
(6.30525 -0.260149 0)
(6.34392 -0.257571 0)
(6.38209 -0.254372 0)
(6.41968 -0.250591 0)
(6.45659 -0.246273 0)
(6.49273 -0.241466 0)
(6.52804 -0.236221 0)
(6.56245 -0.230589 0)
(6.5959 -0.224625 0)
(6.62836 -0.218381 0)
(6.6598 -0.211907 0)
(6.69017 -0.205255 0)
(6.71948 -0.198471 0)
(6.74771 -0.191602 0)
(6.77485 -0.184689 0)
(6.80092 -0.177772 0)
(6.82592 -0.170887 0)
(6.84987 -0.164067 0)
(6.87279 -0.157341 0)
(6.8947 -0.150735 0)
(6.91562 -0.144271 0)
(6.93559 -0.137968 0)
(6.95464 -0.131842 0)
(6.97279 -0.125907 0)
(6.99009 -0.120173 0)
(7.00657 -0.114649 0)
(7.02225 -0.10934 0)
(7.03719 -0.104251 0)
(7.0514 -0.0993849 0)
(7.06493 -0.0947422 0)
(7.07782 -0.0903229 0)
(7.0901 -0.086126 0)
(7.1018 -0.0821491 0)
(7.11295 -0.0783893 0)
(7.12359 -0.0748427 0)
(7.13375 -0.071505 0)
(7.14347 -0.0683712 0)
(7.15276 -0.065436 0)
(7.16167 -0.0626939 0)
(7.17021 -0.0601389 0)
(7.17841 -0.0577653 0)
(7.1863 -0.0555668 0)
(7.1939 -0.0535381 0)
(7.20124 -0.051673 0)
(7.20833 -0.0499665 0)
(7.21521 -0.048413 0)
(7.22188 -0.0470084 0)
(7.22837 -0.0457478 0)
(7.2347 -0.0446282 0)
(7.24088 -0.043646 0)
(7.24694 -0.0427993 0)
(7.2529 -0.0420858 0)
(7.25876 -0.0415042 0)
(7.26456 -0.0410535 0)
(7.27031 -0.0407324 0)
(7.27603 -0.0405406 0)
(7.28174 -0.0404756 0)
(7.28746 -0.0405366 0)
(7.29321 -0.0407193 0)
(7.299 -0.0410209 0)
(7.30486 -0.0414351 0)
(7.31081 -0.0419557 0)
(7.31685 -0.0425748 0)
(7.32301 -0.0432825 0)
(7.3293 -0.0440703 0)
(7.33572 -0.044925 0)
(7.34229 -0.04584 0)
(7.34901 -0.0468 0)
(7.35588 -0.0478039 0)
(7.3629 -0.0488362 0)
(7.37007 -0.0499046 0)
(7.3774 -0.050996 0)
(7.38486 -0.0521298 0)
(7.39247 -0.0532976 0)
(7.40022 -0.0545314 0)
(7.40811 -0.0558291 0)
(7.41614 -0.0572348 0)
(7.42434 -0.0587528 0)
(7.4327 -0.0604371 0)
(7.44126 -0.0622981 0)
(7.45001 -0.0643953 0)
(7.45904 -0.0667445 0)
(7.46832 -0.0694059 0)
(7.47798 -0.0723994 0)
(7.48799 -0.0757793 0)
(7.49849 -0.0795678 0)
(7.50949 -0.0838065 0)
(7.52113 -0.0885168 0)
(7.53342 -0.0937205 0)
(7.54652 -0.0994332 0)
(7.56046 -0.10565 0)
(7.57539 -0.112376 0)
(7.59135 -0.119574 0)
(7.60849 -0.127231 0)
(7.62683 -0.135277 0)
(7.64652 -0.143674 0)
(7.66756 -0.152323 0)
(7.69005 -0.161161 0)
(7.71399 -0.170066 0)
(7.73943 -0.178952 0)
(7.76633 -0.187689 0)
(7.79468 -0.196176 0)
(7.8244 -0.204293 0)
(7.85546 -0.211937 0)
(7.88771 -0.219011 0)
(7.92114 -0.225427 0)
(7.95553 -0.23112 0)
(7.99108 -0.236017 0)
(8.02671 -0.240116 0)
(8.06531 -0.243254 0)
(8.0944 -0.24585 0)
(8.15264 -0.247053 0)
(5.00001 -0.00065441 0)
(5.00019 -0.0019699 0)
(5.00049 -0.00328504 0)
(5.00095 -0.00459902 0)
(5.00157 -0.00591545 0)
(5.00232 -0.00723455 0)
(5.00322 -0.00855712 0)
(5.00426 -0.00988422 0)
(5.00545 -0.0112171 0)
(5.00678 -0.0125571 0)
(5.00826 -0.0139059 0)
(5.00988 -0.0152655 0)
(5.01164 -0.0166377 0)
(5.01356 -0.0180251 0)
(5.01562 -0.0194301 0)
(5.01783 -0.0208555 0)
(5.02019 -0.0223041 0)
(5.0227 -0.0237793 0)
(5.02537 -0.0252844 0)
(5.0282 -0.026823 0)
(5.03119 -0.0283989 0)
(5.03435 -0.030016 0)
(5.03767 -0.0316785 0)
(5.04118 -0.0333908 0)
(5.04486 -0.0351572 0)
(5.04873 -0.0369825 0)
(5.05279 -0.0388715 0)
(5.05705 -0.040829 0)
(5.06152 -0.0428601 0)
(5.0662 -0.0449699 0)
(5.0711 -0.0471639 0)
(5.07624 -0.0494473 0)
(5.08163 -0.0518257 0)
(5.08726 -0.0543048 0)
(5.09316 -0.0568901 0)
(5.09934 -0.0595876 0)
(5.10581 -0.0624031 0)
(5.11258 -0.0653427 0)
(5.11966 -0.0684123 0)
(5.12708 -0.0716181 0)
(5.13484 -0.0749663 0)
(5.14297 -0.0784632 0)
(5.15147 -0.0821149 0)
(5.16037 -0.0859278 0)
(5.16969 -0.0899081 0)
(5.17944 -0.0940622 0)
(5.18965 -0.0983962 0)
(5.20034 -0.102916 0)
(5.21152 -0.107628 0)
(5.22322 -0.112538 0)
(5.23547 -0.117651 0)
(5.24828 -0.122973 0)
(5.26169 -0.128508 0)
(5.27571 -0.134261 0)
(5.29039 -0.140235 0)
(5.30574 -0.146434 0)
(5.32179 -0.152859 0)
(5.33857 -0.159511 0)
(5.35612 -0.166389 0)
(5.37446 -0.173491 0)
(5.39363 -0.180814 0)
(5.41366 -0.18835 0)
(5.43458 -0.19609 0)
(5.45642 -0.204022 0)
(5.47921 -0.212131 0)
(5.50299 -0.220396 0)
(5.52779 -0.228792 0)
(5.55363 -0.237292 0)
(5.58054 -0.24586 0)
(5.60854 -0.254456 0)
(5.63764 -0.263033 0)
(5.66786 -0.271538 0)
(5.69921 -0.279914 0)
(5.73168 -0.288093 0)
(5.76524 -0.296007 0)
(5.79989 -0.30358 0)
(5.83558 -0.310734 0)
(5.87227 -0.317387 0)
(5.90988 -0.323458 0)
(5.94833 -0.32887 0)
(5.98754 -0.333548 0)
(6.0274 -0.337424 0)
(6.06778 -0.340441 0)
(6.10856 -0.342553 0)
(6.14959 -0.343725 0)
(6.19074 -0.34394 0)
(6.23185 -0.343191 0)
(6.27279 -0.341491 0)
(6.3134 -0.338861 0)
(6.35357 -0.335341 0)
(6.39316 -0.330977 0)
(6.43205 -0.325828 0)
(6.47016 -0.319958 0)
(6.50738 -0.313439 0)
(6.54364 -0.306345 0)
(6.57888 -0.29875 0)
(6.61305 -0.29073 0)
(6.6461 -0.282358 0)
(6.678 -0.273706 0)
(6.70873 -0.264841 0)
(6.73828 -0.255826 0)
(6.76666 -0.246722 0)
(6.79386 -0.237582 0)
(6.8199 -0.228458 0)
(6.84479 -0.219394 0)
(6.86855 -0.210433 0)
(6.89123 -0.201611 0)
(6.91283 -0.192961 0)
(6.93341 -0.184512 0)
(6.95299 -0.176287 0)
(6.97162 -0.168306 0)
(6.98932 -0.160587 0)
(7.00615 -0.153143 0)
(7.02214 -0.145984 0)
(7.03732 -0.139115 0)
(7.05175 -0.132543 0)
(7.06546 -0.126269 0)
(7.07849 -0.120292 0)
(7.09087 -0.114613 0)
(7.10264 -0.109227 0)
(7.11385 -0.10413 0)
(7.12451 -0.0993183 0)
(7.13468 -0.0947845 0)
(7.14438 -0.0905226 0)
(7.15364 -0.086525 0)
(7.1625 -0.0827845 0)
(7.17097 -0.0792928 0)
(7.1791 -0.076042 0)
(7.1869 -0.0730238 0)
(7.19441 -0.0702301 0)
(7.20164 -0.0676532 0)
(7.20862 -0.0652851 0)
(7.21537 -0.0631195 0)
(7.2219 -0.0611489 0)
(7.22825 -0.0593687 0)
(7.23443 -0.0577723 0)
(7.24045 -0.0563566 0)
(7.24633 -0.0551167 0)
(7.2521 -0.0540506 0)
(7.25776 -0.053155 0)
(7.26334 -0.0524289 0)
(7.26885 -0.0518708 0)
(7.27432 -0.0514795 0)
(7.27975 -0.0512552 0)
(7.28518 -0.0511953 0)
(7.29063 -0.0513003 0)
(7.2961 -0.051565 0)
(7.30164 -0.0519882 0)
(7.30726 -0.052561 0)
(7.31297 -0.0532779 0)
(7.31881 -0.0541262 0)
(7.32478 -0.0550947 0)
(7.33091 -0.0561683 0)
(7.3372 -0.0573292 0)
(7.34366 -0.0585639 0)
(7.35029 -0.0598495 0)
(7.3571 -0.0611789 0)
(7.36407 -0.062528 0)
(7.3712 -0.0639017 0)
(7.37848 -0.0652789 0)
(7.38588 -0.0666817 0)
(7.39341 -0.0680959 0)
(7.40104 -0.0695629 0)
(7.40877 -0.0710781 0)
(7.41658 -0.0727017 0)
(7.42449 -0.0744387 0)
(7.43247 -0.0763649 0)
(7.44058 -0.078495 0)
(7.4488 -0.0809142 0)
(7.45719 -0.0836463 0)
(7.46575 -0.0867788 0)
(7.47459 -0.0903436 0)
(7.48369 -0.0944217 0)
(7.49321 -0.0990509 0)
(7.50314 -0.104296 0)
(7.51366 -0.110197 0)
(7.52478 -0.116792 0)
(7.53671 -0.124113 0)
(7.54946 -0.132163 0)
(7.56324 -0.140959 0)
(7.57811 -0.150456 0)
(7.59425 -0.160644 0)
(7.61173 -0.171428 0)
(7.6307 -0.182761 0)
(7.65122 -0.194498 0)
(7.67342 -0.206552 0)
(7.6973 -0.21874 0)
(7.72294 -0.230937 0)
(7.75031 -0.242944 0)
(7.77938 -0.254615 0)
(7.8101 -0.265764 0)
(7.84236 -0.276241 0)
(7.87603 -0.285904 0)
(7.91104 -0.294627 0)
(7.94714 -0.302323 0)
(7.98451 -0.308895 0)
(8.02197 -0.314351 0)
(8.06258 -0.318471 0)
(8.0932 -0.321873 0)
(8.15438 -0.323251 0)
(5.00001 -0.000797692 0)
(5.00018 -0.00240033 0)
(5.00049 -0.00400242 0)
(5.00095 -0.00560271 0)
(5.00156 -0.00720509 0)
(5.00231 -0.00880968 0)
(5.0032 -0.0104173 0)
(5.00423 -0.012029 0)
(5.0054 -0.0136462 0)
(5.00672 -0.0152706 0)
(5.00818 -0.0169041 0)
(5.00977 -0.018549 0)
(5.01151 -0.0202077 0)
(5.01339 -0.0218832 0)
(5.01541 -0.0235785 0)
(5.01757 -0.025297 0)
(5.01988 -0.0270424 0)
(5.02233 -0.0288186 0)
(5.02494 -0.0306297 0)
(5.02769 -0.0324801 0)
(5.0306 -0.0343746 0)
(5.03366 -0.0363178 0)
(5.03688 -0.0383149 0)
(5.04027 -0.0403711 0)
(5.04383 -0.0424919 0)
(5.04757 -0.0446831 0)
(5.05149 -0.0469504 0)
(5.05559 -0.0492999 0)
(5.05989 -0.0517378 0)
(5.0644 -0.0542707 0)
(5.06911 -0.0569049 0)
(5.07405 -0.0596473 0)
(5.07922 -0.0625047 0)
(5.08463 -0.0654842 0)
(5.09029 -0.0685927 0)
(5.09621 -0.0718378 0)
(5.10242 -0.0752265 0)
(5.10891 -0.0787665 0)
(5.1157 -0.0824652 0)
(5.12281 -0.0863304 0)
(5.13025 -0.0903698 0)
(5.13805 -0.0945911 0)
(5.14621 -0.0990021 0)
(5.15475 -0.103611 0)
(5.16369 -0.108425 0)
(5.17306 -0.113453 0)
(5.18286 -0.118702 0)
(5.19313 -0.124181 0)
(5.20389 -0.129896 0)
(5.21515 -0.135856 0)
(5.22694 -0.142069 0)
(5.23929 -0.14854 0)
(5.25222 -0.155278 0)
(5.26577 -0.162288 0)
(5.27995 -0.169576 0)
(5.2948 -0.177147 0)
(5.31035 -0.185006 0)
(5.32663 -0.193155 0)
(5.34367 -0.201595 0)
(5.36152 -0.210326 0)
(5.3802 -0.219346 0)
(5.39976 -0.22865 0)
(5.42023 -0.238229 0)
(5.44165 -0.248071 0)
(5.46407 -0.258161 0)
(5.48751 -0.268478 0)
(5.51204 -0.278994 0)
(5.53767 -0.289677 0)
(5.56446 -0.300486 0)
(5.59243 -0.311373 0)
(5.62162 -0.322282 0)
(5.65206 -0.333148 0)
(5.68376 -0.343894 0)
(5.71673 -0.354437 0)
(5.75098 -0.364683 0)
(5.78648 -0.374532 0)
(5.82322 -0.383876 0)
(5.86113 -0.392603 0)
(5.90016 -0.400597 0)
(5.94022 -0.407748 0)
(5.98119 -0.413946 0)
(6.02297 -0.419095 0)
(6.06539 -0.423109 0)
(6.10829 -0.425923 0)
(6.15152 -0.427487 0)
(6.19489 -0.427778 0)
(6.23821 -0.426791 0)
(6.28132 -0.424544 0)
(6.32404 -0.421075 0)
(6.3662 -0.416438 0)
(6.40766 -0.410702 0)
(6.44829 -0.403949 0)
(6.48797 -0.39627 0)
(6.52659 -0.387764 0)
(6.56408 -0.37853 0)
(6.60037 -0.368675 0)
(6.63541 -0.3583 0)
(6.66918 -0.347506 0)
(6.70163 -0.336388 0)
(6.73277 -0.325037 0)
(6.7626 -0.313535 0)
(6.79112 -0.301961 0)
(6.81834 -0.290383 0)
(6.8443 -0.278864 0)
(6.86902 -0.267459 0)
(6.89253 -0.256218 0)
(6.91487 -0.245182 0)
(6.93607 -0.23439 0)
(6.95619 -0.223874 0)
(6.97527 -0.21366 0)
(6.99334 -0.203771 0)
(7.01046 -0.194226 0)
(7.02668 -0.185039 0)
(7.04204 -0.17622 0)
(7.05658 -0.167777 0)
(7.07036 -0.159713 0)
(7.08342 -0.15203 0)
(7.09579 -0.144726 0)
(7.10753 -0.137798 0)
(7.11866 -0.131241 0)
(7.12924 -0.125047 0)
(7.13929 -0.11921 0)
(7.14886 -0.113719 0)
(7.15797 -0.108567 0)
(7.16666 -0.103742 0)
(7.17496 -0.0992347 0)
(7.1829 -0.0950338 0)
(7.19051 -0.0911284 0)
(7.19781 -0.0875071 0)
(7.20483 -0.0841582 0)
(7.2116 -0.0810708 0)
(7.21813 -0.0782332 0)
(7.22444 -0.0756361 0)
(7.23055 -0.0732694 0)
(7.23648 -0.0711266 0)
(7.24225 -0.0692 0)
(7.24788 -0.0674867 0)
(7.25337 -0.065982 0)
(7.25875 -0.0646861 0)
(7.26403 -0.0635969 0)
(7.26923 -0.0627163 0)
(7.27437 -0.0620442 0)
(7.27946 -0.0615819 0)
(7.28452 -0.0613309 0)
(7.28958 -0.0612899 0)
(7.29465 -0.0614607 0)
(7.29977 -0.0618377 0)
(7.30495 -0.0624206 0)
(7.31023 -0.0631975 0)
(7.31563 -0.0641631 0)
(7.32118 -0.0652984 0)
(7.32689 -0.0665897 0)
(7.33279 -0.0680127 0)
(7.3389 -0.0695436 0)
(7.34522 -0.071157 0)
(7.35175 -0.072821 0)
(7.35849 -0.0745168 0)
(7.36542 -0.0762094 0)
(7.37253 -0.0778963 0)
(7.37979 -0.0795465 0)
(7.38717 -0.0811823 0)
(7.39465 -0.0827825 0)
(7.40218 -0.0843989 0)
(7.40975 -0.0860232 0)
(7.41733 -0.0877353 0)
(7.42491 -0.0895408 0)
(7.43246 -0.091542 0)
(7.44002 -0.0937579 0)
(7.44756 -0.0963055 0)
(7.45514 -0.099217 0)
(7.46275 -0.102615 0)
(7.4705 -0.106544 0)
(7.47838 -0.111122 0)
(7.48653 -0.116407 0)
(7.49498 -0.122497 0)
(7.50391 -0.129458 0)
(7.51334 -0.137354 0)
(7.52353 -0.14625 0)
(7.5345 -0.15616 0)
(7.54653 -0.167129 0)
(7.55968 -0.179105 0)
(7.57422 -0.192097 0)
(7.59023 -0.205976 0)
(7.60795 -0.220691 0)
(7.62747 -0.236038 0)
(7.64895 -0.251899 0)
(7.67248 -0.268009 0)
(7.6981 -0.284182 0)
(7.72584 -0.300129 0)
(7.75564 -0.315621 0)
(7.78744 -0.330388 0)
(7.82109 -0.344205 0)
(7.85642 -0.356871 0)
(7.89331 -0.368209 0)
(7.93144 -0.378115 0)
(7.97098 -0.386467 0)
(8.0106 -0.393301 0)
(8.0536 -0.39835 0)
(8.08601 -0.402437 0)
(8.15068 -0.40376 0)
(5.00001 -0.000940424 0)
(5.00018 -0.00282883 0)
(5.00049 -0.00471622 0)
(5.00095 -0.0066008 0)
(5.00155 -0.00848646 0)
(5.0023 -0.0103731 0)
(5.00318 -0.0122614 0)
(5.00421 -0.0141524 0)
(5.00537 -0.0160475 0)
(5.00667 -0.0179487 0)
(5.00811 -0.019858 0)
(5.00968 -0.0217782 0)
(5.01139 -0.0237121 0)
(5.01323 -0.0256631 0)
(5.0152 -0.0276351 0)
(5.01732 -0.029632 0)
(5.01957 -0.0316585 0)
(5.02195 -0.0337192 0)
(5.02448 -0.0358194 0)
(5.02714 -0.0379643 0)
(5.02995 -0.0401597 0)
(5.03291 -0.0424114 0)
(5.03601 -0.0447254 0)
(5.03927 -0.0471083 0)
(5.04269 -0.0495664 0)
(5.04627 -0.0521066 0)
(5.05002 -0.0547358 0)
(5.05395 -0.057461 0)
(5.05805 -0.0602897 0)
(5.06235 -0.0632293 0)
(5.06684 -0.0662875 0)
(5.07154 -0.0694723 0)
(5.07646 -0.0727917 0)
(5.0816 -0.0762539 0)
(5.08698 -0.0798674 0)
(5.0926 -0.0836408 0)
(5.09849 -0.0875826 0)
(5.10465 -0.091702 0)
(5.11109 -0.0960079 0)
(5.11783 -0.100509 0)
(5.1249 -0.105216 0)
(5.13229 -0.110136 0)
(5.14003 -0.115281 0)
(5.14814 -0.120658 0)
(5.15663 -0.126279 0)
(5.16552 -0.132152 0)
(5.17484 -0.138287 0)
(5.18461 -0.144695 0)
(5.19484 -0.151384 0)
(5.20557 -0.158365 0)
(5.21681 -0.165648 0)
(5.22859 -0.173241 0)
(5.24093 -0.181154 0)
(5.25388 -0.189397 0)
(5.26745 -0.197977 0)
(5.28167 -0.206903 0)
(5.29659 -0.216181 0)
(5.31223 -0.225818 0)
(5.32864 -0.235819 0)
(5.34585 -0.246186 0)
(5.36389 -0.256921 0)
(5.38283 -0.268023 0)
(5.40269 -0.279485 0)
(5.42354 -0.2913 0)
(5.44541 -0.303453 0)
(5.46837 -0.315926 0)
(5.49247 -0.328693 0)
(5.51775 -0.341718 0)
(5.54428 -0.354959 0)
(5.57211 -0.368363 0)
(5.6013 -0.381864 0)
(5.63188 -0.395384 0)
(5.66391 -0.408833 0)
(5.69741 -0.422104 0)
(5.73241 -0.435078 0)
(5.7689 -0.447621 0)
(5.80687 -0.459589 0)
(5.8463 -0.470827 0)
(5.8871 -0.481175 0)
(5.92919 -0.490474 0)
(5.97244 -0.498566 0)
(6.01671 -0.505311 0)
(6.0618 -0.510581 0)
(6.10752 -0.514278 0)
(6.15364 -0.516331 0)
(6.19994 -0.516706 0)
(6.24617 -0.515401 0)
(6.29212 -0.512448 0)
(6.33757 -0.507909 0)
(6.38233 -0.501869 0)
(6.42621 -0.494434 0)
(6.46906 -0.485723 0)
(6.51075 -0.475866 0)
(6.55116 -0.464997 0)
(6.5902 -0.453253 0)
(6.62781 -0.440771 0)
(6.66394 -0.427684 0)
(6.69857 -0.41412 0)
(6.73167 -0.400202 0)
(6.76325 -0.386044 0)