/*--------------------------------*- C++ -*----------------------------------*\
  =========                 |
  \\      /  F ield         | OpenFOAM: The Open Source CFD Toolbox
   \\    /   O peration     | Website:  https://openfoam.org
    \\  /    A nd           | Version:  10
     \\/     M anipulation  |
\*---------------------------------------------------------------------------*/
FoamFile
{
    format      ascii;
    class       volScalarField;
    location    "23100";
    object      p;
}
// * * * * * * * * * * * * * * * * * * * * * * * * * * * * * * * * * * * * * //

dimensions      [1 -1 -2 0 0 0 0];

internalField   nonuniform List<scalar> 
6400
(
328.702
402.435
564.997
723.884
899.128
1070.87
1240.13
1405.58
1568.09
1722.85
1874.43
2024.18
2171.06
2316.01
2459
2598.27
2735.2
2870.39
3003.28
3134.06
3263.03
3389.59
3512.18
3631.26
3747.85
3862.02
3972.41
4076.93
4176.58
4272.76
4365.65
4453.58
4510.78
4543.47
4573.15
4599.26
4621.22
4638.43
4650.32
4656.41
4656.41
4650.32
4638.43
4621.22
4599.26
4573.15
4543.47
4510.78
4453.58
4365.65
4272.76
4176.58
4076.93
3972.41
3862.02
3747.85
3631.26
3512.18
3389.59
3263.03
3134.06
3003.28
2870.39
2735.2
2598.27
2459
2316.01
2171.06
2024.18
1874.43
1722.85
1568.09
1405.58
1240.13
1070.87
899.128
723.884
564.997
402.435
328.702
103.544
104.384
271.07
429.108
605.241
776.945
946.285
1111.69
1274.43
1428.98
1580.5
1730.3
1877.15
2022.09
2165.17
2304.38
2441.28
2576.49
2709.37
2840.14
2969.14
3095.78
3218.34
3337.37
3453.96
3568.19
3678.68
3783.15
3882.74
3978.91
4071.87
4159.97
4217.34
4250.16
4279.96
4306.19
4328.28
4345.63
4357.63
4363.78
4363.78
4357.63
4345.63
4328.28
4306.19
4279.96
4250.16
4217.34
4159.97
4071.87
3978.91
3882.74
3783.15
3678.68
3568.19
3453.96
3337.37
3218.34
3095.78
2969.14
2840.14
2709.37
2576.49
2441.28
2304.38
2165.17
2022.09
1877.15
1730.3
1580.5
1428.98
1274.43
1111.69
946.285
776.945
605.241
429.108
271.07
104.384
103.544
103.162
103.332
103
104.551
283.054
454.624
624.147
789.459
952.744
1106.8
1258.2
1408.12
1554.86
1699.81
1843.09
1982.14
2118.99
2254.26
2387.12
2517.86
2646.92
2773.72
2896.24
3015.16
3131.75
3246.12
3356.83
3461.19
3560.63
3656.79
3749.92
3838.4
3896.18
3929.26
3959.34
3985.88
4008.28
4025.93
4038.18
4044.48
4044.48
4038.18
4025.93
4008.28
3985.88
3959.34
3929.26
3896.18
3838.4
3749.92
3656.79
3560.63
3461.19
3356.83
3246.12
3131.75
3015.16
2896.24
2773.72
2646.92
2517.86
2387.12
2254.26
2118.99
1982.14
1843.09
1699.81
1554.86
1408.12
1258.2
1106.8
952.744
789.459
624.147
454.624
283.054
104.551
103
103.332
103.162
102.733
102.829
102.606
102.698
102.335
102.86
271.069
436.098
600.498
753.572
904.746
1054.92
1201.47
1346.41
1490.08
1628.84
1765.58
1900.97
2033.8
2164.48
2293.64
2420.76
2543.18
2661.9
2778.47
2893.09
3004.22
3108.38
3207.55
3303.67
3397.09
3486.24
3544.72
3578.27
3608.85
3635.9
3658.85
3677.04
3689.76
3696.34
3696.34
3689.76
3677.04
3658.85
3635.9
3608.85
3578.27
3544.72
3486.24
3397.09
3303.67
3207.55
3108.38
3004.22
2893.09
2778.47
2661.9
2543.18
2420.76
2293.64
2164.48
2033.8
1900.97
1765.58
1628.84
1490.08
1346.41
1201.47
1054.92
904.746
753.572
600.498
436.098
271.069
102.86
102.335
102.698
102.606
102.829
102.733
102.255
102.302
102.149
102.162
101.901
101.881
101.53
101.535
215.922
366.261
517.103
667.77
813.96
958.875
1103.25
1241.47
1378.04
1513.67
1646.42
1776.98
1906.3
2033.99
2156.21
2274.61
2391.14
2506.15
2618.02
2721.79
2820.51
2916.58
3010.44
3100.64
3160.21
3194.49
3225.83
3253.67
3277.47
3296.54
3310.04
3317.09
3317.09
3310.04
3296.54
3277.47
3253.67
3225.83
3194.49
3160.21
3100.64
3010.44
2916.58
2820.51
2721.79
2618.02
2506.15
2391.14
2274.61
2156.21
2033.99
1906.3
1776.98
1646.42
1513.67
1378.04
1241.47
1103.25
958.875
813.96
667.77
517.103
366.261
215.922
101.535
101.53
101.881
101.901
102.162
102.149
102.302
102.255
101.727
101.743
101.633
101.6
101.404
101.325
101.058
100.957
100.686
100.516
100.973
243.758
389.017
533.829
679.542
816.731
953.046
1089.12
1221.73
1352.08
1481.61
1610.27
1732.14
1849.98
1966.45
2082.04
2195.19
2298.24
2396.26
2492.21
2586.7
2678.43
2739.61
2774.95
2807.39
2836.39
2861.44
2881.87
2896.64
2904.5
2904.5
2896.64
2881.87
2861.44
2836.39
2807.39
2774.95
2739.61
2678.43
2586.7
2492.21
2396.26
2298.24
2195.19
2082.04
1966.45
1849.98
1732.14
1610.27
1481.61
1352.08
1221.73
1089.12
953.046
816.731
679.542
533.829
389.017
243.758
100.973
100.516
100.686
100.957
101.058
101.325
101.404
101.6
101.633
101.743
101.727
101.145
101.142
101.059
101.001
100.845
100.737
100.522
100.388
100.164
100.007
99.9879
99.6211
99.4412
99.7044
216.626
350.988
486.908
623.856
756.164
886.114
1015.89
1146.29
1267.45
1384.39
1500.74
1617.15
1732.55
1834.27
1931.17
2026.93
2122.25
2216.15
2279.63
2316.49
2350.45
2380.99
2407.81
2430.34
2447.22
2456.49
2456.49
2447.22
2430.34
2407.81
2380.99
2350.45
2316.49
2279.63
2216.15
2122.25
2026.93
1931.17
1834.27
1732.55
1617.15
1500.74
1384.39
1267.45
1146.29
1015.89
886.114
756.164
623.856
486.908
350.988
216.626
99.7044
99.4412
99.6211
99.9879
100.007
100.164
100.388
100.522
100.737
100.845
101.001
101.059
101.142
101.145
100.508
100.494
100.427
100.356
100.225
100.105
99.924
99.7765
99.5832
99.4306
99.3413
99.0638
98.885
98.8096
98.4435
98.2025
98.0989
118.84
246.038
375.068
504.992
638.704
758.357
873.811
989.936
1107.39
1226.97
1326.03
1421.22
1516.68
1613.05
1709.95
1776.67
1815.66
1851.69
1884.11
1913.31
1939.04
1959.58
1971.55
1971.55
1959.58
1939.04
1913.31
1884.11
1851.69
1815.66
1776.67
1709.95
1613.05
1516.68
1421.22
1326.03
1226.97
1107.39
989.936
873.811
758.357
638.704
504.992
375.068
246.038
118.84
98.0989
98.2025
98.4435
98.8096
98.885
99.0638
99.3413
99.4306
99.5832
99.7765
99.924
100.105
100.225
100.356
100.427
100.494
100.508
99.8109
99.7916
99.7335
99.6592
99.5439
99.4215
99.2625
99.1126
98.9396
98.7885
98.6619
98.4369
98.2586
98.1234
97.8367
97.612
97.4747
97.3693
96.9471
96.6673
96.4936
104.433
201.398
313.773
429.484
547.992
675.876
769.256
861.868
956.897
1054.5
1155.53
1226.77
1268.87
1307.68
1341.91
1373.91
1404.62
1431.93
1449.63
1449.63
1431.93
1404.62
1373.91
1341.91
1307.68
1268.87
1226.77
1155.53
1054.5
956.897
861.868
769.256
675.876
547.992
429.484
313.773
201.398
104.433
96.4936
96.6673
96.9471
97.3693
97.4747
97.612
97.8367
98.1234
98.2586
98.4369
98.6619
98.7885
98.9396
99.1126
99.2625
99.4215
99.5439
99.6592
99.7335
99.7916
99.8109
99.0503
99.0285
98.976
98.9024
98.798
98.679
98.5352
98.3889
98.2296
98.0796
97.9354
97.7404
97.5634
97.3996
97.1594
96.9477
96.785
96.6211
96.2938
96.026
95.8176
95.5846
95.218
94.9121
94.6314
94.3699
93.9915
159.608
248.053
342.491
441.29
548.048
625.524
672.529
715.706
749.611
783.834
822.085
862.956
894.86
894.86
862.956
822.085
783.834
749.611
715.706
672.529
625.524
548.048
441.29
342.491
248.053
159.608
93.9915
94.3699
94.6314
94.9121
95.218
95.5846
95.8176
96.026
96.2938
96.6211
96.785
96.9477
97.1594
97.3996
97.5634
97.7404
97.9354
98.0796
98.2296
98.3889
98.5352
98.679
98.798
98.9024
98.976
99.0285
99.0503
98.2209
98.1986
98.1501
98.0792
97.9834
97.8702
97.738
97.598
97.4488
97.3007
97.1501
96.9724
96.7979
96.6231
96.4101
96.208
96.0288
95.8378
95.5636
95.309
95.0826
94.8358
94.5203
94.2263
93.9482
93.6728
93.3627
93.1425
92.8903
92.6147
92.3209
91.7587
91.2761
90.9454
90.8924
101.718
133.336
181.351
250.735
324.965
324.965
250.735
181.351
133.336
101.718
90.8924
90.9454
91.2761
91.7587
92.3209
92.6147
92.8903
93.1425
93.3627
93.6728
93.9482
94.2263
94.5203
94.8358
95.0826
95.309
95.5636
95.8378
96.0288
96.208
96.4101
96.6231
96.7979
96.9724
97.1501
97.3007
97.4488
97.598
97.738
97.8702
97.9834
98.0792
98.1501
98.1986
98.2209
97.3174
97.2955
97.2503
97.1833
97.0946
96.9883
96.8658
96.7331
96.592
96.4472
96.2962
96.1292
95.9584
95.7818
95.5852
95.3902
95.2025
95.0015
94.7573
94.5149
94.2819
94.0334
93.7492
93.4696
93.1982
92.9279
92.6484
92.4075
92.1533
91.8765
91.558
91.115
90.7772
90.6047
90.5422
90.5956
90.5641
90.3474
89.9658
88.4956
88.4956
89.9658
90.3474
90.5641
90.5956
90.5422
90.6047
90.7772
91.115
91.558
91.8765
92.1533
92.4075
92.6484
92.9279
93.1982
93.4696
93.7492
94.0334
94.2819
94.5149
94.7573
95.0015
95.2025
95.3902
95.5852
95.7818
95.9584
96.1292
96.2962
96.4472
96.592
96.7331
96.8658
96.9883
97.0946
97.1833
97.2503
97.2955
97.3174
96.3337
96.3127
96.2705
96.2079
96.1256
96.0264
95.9124
95.7874
95.6534
95.513
95.365
95.2056
95.0395
94.8658
94.6799
94.4909
94.3007
94.0985
93.8723
93.6409
93.4089
93.1651
92.9019
92.637
92.3751
92.1141
91.8521
91.6057
91.3523
91.0807
90.7766
90.4171
90.1709
90.0469
89.9664
89.921
89.8669
89.7938
89.612
89.0997
89.0997
89.612
89.7938
89.8669
89.921
89.9664
90.0469
90.1709
90.4171
90.7766
91.0807
91.3523
91.6057
91.8521
92.1141
92.3751
92.637
92.9019
93.1651
93.4089
93.6409
93.8723
94.0985
94.3007
94.4909
94.6799
94.8658
95.0395
95.2056
95.365
95.513
95.6534
95.7874
95.9124
96.0264
96.1256
96.2079
96.2705
96.3127
96.3337
95.263
95.2433
95.204
95.1457
95.0696
94.9774
94.8711
94.7535
94.6265
94.4914
94.3481
94.1952
94.0346
93.866
93.6882
93.5049
93.3165
93.1176
92.9038
92.6824
92.4561
92.2205
91.9733
91.7225
91.4719
91.2218
90.9725
90.7289
90.481
90.2208
89.9417
89.6442
89.4503
89.3472
89.2643
89.1984
89.1407
89.0893
88.9458
88.5209
88.5209
88.9458
89.0893
89.1407
89.1984
89.2643
89.3472
89.4503
89.6442
89.9417
90.2208
90.481
90.7289
90.9725
91.2218
91.4719
91.7225
91.9733
92.2205
92.4561
92.6824
92.9038
93.1176
93.3165
93.5049
93.6882
93.866
94.0346
94.1952
94.3481
94.4914
94.6265
94.7535
94.8711
94.9774
95.0696
95.1457
95.204
95.2433
95.263
94.098
94.0797
94.0433
93.9894
93.9189
93.8334
93.7345
93.6242
93.5039
93.3749
93.2372
93.0908
92.9362
92.7737
92.6031
92.4259
92.2419
92.0488
91.8451
91.6335
91.4155
91.1899
90.9566
90.7194
90.481
90.2427
90.0051
89.7694
89.5313
89.2868
89.0348
88.7826
88.6206
88.5309
88.4528
88.3859
88.3287
88.2805
88.144
87.742
87.742
88.144
88.2805
88.3287
88.3859
88.4528
88.5309
88.6206
88.7826
89.0348
89.2868
89.5313
89.7694
90.0051
90.2427
90.481
90.7194
90.9566
91.1899
91.4155
91.6335
91.8451
92.0488
92.2419
92.4259
92.6031
92.7737
92.9362
93.0908
93.2372
93.3749
93.5039
93.6242
93.7345
93.8334
93.9189
93.9894
94.0433
94.0797
94.098
92.8308
92.8139
92.7803
92.7306
92.6655
92.5864
92.4944
92.3912
92.2778
92.1552
92.0239
91.8841
91.7361
91.5803
91.4168
91.2463
91.0685
90.8827
90.6884
90.4866
90.2785
90.0639
89.8436
89.6197
89.3942
89.1684
88.943
88.7184
88.4932
88.2665
88.0401
87.8216
87.6812
87.6017
87.5302
87.4668
87.4115
87.3643
87.2312
86.8479
86.8479
87.2312
87.3643
87.4115
87.4668
87.5302
87.6017
87.6812
87.8216
88.0401
88.2665
88.4932
88.7184
88.943
89.1684
89.3942
89.6197
89.8436
90.0639
90.2785
90.4866
90.6884
90.8827
91.0685
91.2463
91.4168
91.5803
91.7361
91.8841
92.0239
92.1552
92.2778
92.3912
92.4944
92.5864
92.6655
92.7306
92.7803
92.8139
92.8308
91.3652
91.3498
91.319
91.2735
91.2139
91.1412
91.0563
90.9604
90.8544
90.7391
90.615
90.4825
90.3421
90.1939
90.0383
89.8756
89.7059
89.5288
89.3446
89.1537
88.9569
88.7547
88.5481
88.3383
88.1269
87.9149
87.7034
87.4928
87.2835
87.0763
86.8741
86.6829
86.5594
86.4885
86.4234
86.3644
86.3117
86.2654
86.1357
85.772
85.772
86.1357
86.2654
86.3117
86.3644
86.4234
86.4885
86.5594
86.6829
86.8741
87.0763
87.2835
87.4928
87.7034
87.9149
88.1269
88.3383
88.5481
88.7547
88.9569
89.1537
89.3446
89.5288
89.7059
89.8756
90.0383
90.1939
90.3421
90.4825
90.615
90.7391
90.8544
90.9604
91.0563
91.1412
91.2139
91.2735
91.319
91.3498
91.3652
89.764
89.7499
89.7219
89.6804
89.6259
89.5591
89.4809
89.3921
89.2935
89.1856
89.0692
88.9445
88.812
88.672
88.5248
88.3708
88.21
88.0426
87.8689
87.6893
87.5045
87.3151
87.1221
86.9264
86.7293
86.5319
86.335
86.1397
85.947
85.7584
85.5768
85.4065
85.2957
85.2316
85.1717
85.1166
85.0662
85.0207
84.895
84.5543
84.5543
84.895
85.0207
85.0662
85.1166
85.1717
85.2316
85.2957
85.4065
85.5768
85.7584
85.947
86.1397
86.335
86.5319
86.7293
86.9264
87.1221
87.3151
87.5045
87.6893
87.8689
88.0426
88.21
88.3708
88.5248
88.672
88.812
88.9445
89.0692
89.1856
89.2935
89.3921
89.4809
89.5591
89.6259
89.6804
89.7219
89.7499
89.764
88.1768
88.1639
88.1382
88.1001
88.0501
87.9885
87.9162
87.8337
87.7418
87.6409
87.5315
87.4142
87.2894
87.1572
87.0182
86.8726
86.7207
86.5627
86.399
86.2301
86.0566
85.8792
85.6987
85.516
85.3321
85.1482
84.9651
84.784
84.6063
84.4335
84.2682
84.1134
84.0118
83.9525
83.8966
83.8444
83.7959
83.7511
83.6295
83.3108
83.3108
83.6295
83.7511
83.7959
83.8444
83.8966
83.9525
84.0118
84.1134
84.2682
84.4335
84.6063
84.784
84.9651
85.1482
85.3321
85.516
85.6987
85.8792
86.0566
86.2301
86.399
86.5627
86.7207
86.8726
87.0182
87.1572
87.2894
87.4142
87.5315
87.6409
87.7418
87.8337
87.9162
87.9885
88.0501
88.1001
88.1382
88.1639
88.1768
86.6025
86.5907
86.5671
86.5319
86.4857
86.4287
86.3616
86.2849
86.199
86.1045
86.0019
85.8916
85.774
85.6494
85.5182
85.3808
85.2374
85.0885
84.9344
84.7756
84.6127
84.4464
84.2774
84.1067
83.9351
83.7636
83.5932
83.4251
83.2605
83.1012
82.949
82.8062
82.7116
82.656
82.6032
82.5532
82.5062
82.4622
82.3446
82.0469
82.0469
82.3446
82.4622
82.5062
82.5532
82.6032
82.656
82.7116
82.8062
82.949
83.1012
83.2605
83.4251
83.5932
83.7636
83.9351
84.1067
84.2774
84.4464
84.6127
84.7756
84.9344
85.0885
85.2374
85.3808
85.5182
85.6494
85.774
85.8916
86.0019
86.1045
86.199
86.2849
86.3616
86.4287
86.4857
86.5319
86.5671
86.5907
86.6025
85.0402
85.0292
85.0074
84.9749
84.932
84.8791
84.8167
84.7451
84.6648
84.5763
84.48
84.3763
84.2655
84.1481
84.0245
83.8949
83.7598
83.6194
83.4744
83.3251
83.1722
83.0162
82.858
82.6983
82.5379
82.3778
82.219
82.0625
81.9096
81.7617
81.6203
81.4872
81.3982
81.3455
81.2951
81.2471
81.2014
81.1581
81.0445
80.767
80.767
81.0445
81.1581
81.2014
81.2471
81.2951
81.3455
81.3982
81.4872
81.6203
81.7617
81.9096
82.0625
82.219
82.3778
82.5379
82.6983
82.858
83.0162
83.1722
83.3251
83.4744
83.6194
83.7598
83.8949
84.0245
84.1481
84.2655
84.3763
84.48
84.5763
84.6648
84.7451
84.8167
84.8791
84.932
84.9749
85.0074
85.0292
85.0402
83.4887
83.4786
83.4583
83.4282
83.3883
83.3391
83.2809
83.214
83.1389
83.0559
82.9654
82.8679
82.7637
82.6532
82.5367
82.4146
82.2873
82.1551
82.0187
81.8783
81.7347
81.5884
81.4401
81.2905
81.1405
80.9908
80.8425
80.6964
80.5538
80.4157
80.2835
80.1583
80.0739
80.0237
79.9754
79.9289
79.8844
79.8417
79.7322
79.474
79.474
79.7322
79.8417
79.8844
79.9289
79.9754
80.0237
80.0739
80.1583
80.2835
80.4157
80.5538
80.6964
80.8425
80.9908
81.1405
81.2905
81.4401
81.5884
81.7347
81.8783
82.0187
82.1551
82.2873
82.4146
82.5367
82.6532
82.7637
82.8679
82.9654
83.0559
83.1389
83.214
83.2809
83.3391
83.3883
83.4282
83.4583
83.4786
83.4887
81.9475
81.938
81.9192
81.8911
81.854
81.8081
81.7537
81.6911
81.6208
81.5429
81.458
81.3663
81.2683
81.1642
81.0545
80.9394
80.8195
80.6952
80.5668
80.4348
80.2999
80.1625
80.0234
79.8832
79.7426
79.6025
79.4636
79.3269
79.1934
79.0639
78.9395
78.8212
78.7407
78.6926
78.6461
78.601
78.5576
78.5156
78.4103
78.1705
78.1705
78.4103
78.5156
78.5576
78.601
78.6461
78.6926
78.7407
78.8212
78.9395
79.0639
79.1934
79.3269
79.4636
79.6025
79.7426
79.8832
80.0234
80.1625
80.2999
80.4348
80.5668
80.6952
80.8195
80.9394
81.0545
81.1642
81.2683
81.3663
81.458
81.5429
81.6208
81.6911
81.7537
81.8081
81.854
81.8911
81.9192
81.938
81.9475
80.4157
80.4069
80.3893
80.3631
80.3285
80.2856
80.2347
80.1761
80.1101
80.0371
79.9573
79.8711
79.7788
79.6808
79.5775
79.4692
79.3563
79.2392
79.1184
78.9943
78.8675
78.7384
78.6078
78.4762
78.3443
78.2129
78.0826
77.9543
77.8288
77.7069
77.5894
77.4771
77.4001
77.3539
77.309
77.2653
77.2229
77.1817
77.0807
76.8583
76.8583
77.0807
77.1817
77.2229
77.2653
77.309
77.3539
77.4001
77.4771
77.5894
77.7069
77.8288
77.9543
78.0826
78.2129
78.3443
78.4762
78.6078
78.7384
78.8675
78.9943
79.1184
79.2392
79.3563
79.4692
79.5775
79.6808
79.7788
79.8711
79.9573
80.0371
80.1101
80.1761
80.2347
80.2856
80.3285
80.3631
80.3893
80.4069
80.4157
78.8927
78.8845
78.8681
78.8436
78.8112
78.7711
78.7234
78.6685
78.6066
78.538
78.463
78.3819
78.2951
78.2029
78.1056
78.0036
77.8973
77.787
77.6733
77.5566
77.4373
77.316
77.1932
77.0695
76.9456
76.8221
76.6996
76.5789
76.4607
76.3456
76.2343
76.1273
76.0535
76.009
75.9656
75.9232
75.8818
75.8414
75.7448
75.539
75.539
75.7448
75.8414
75.8818
75.9232
75.9656
76.009
76.0535
76.1273
76.2343
76.3456
76.4607
76.5789
76.6996
76.8221
76.9456
77.0695
77.1932
77.316
77.4373
77.5566
77.6733
77.787
77.8973
78.0036
78.1056
78.2029
78.2951
78.3819
78.463
78.538
78.6066
78.6685
78.7234
78.7711
78.8112
78.8436
78.8681
78.8845
78.8927
77.378
77.3703
77.3549
77.332
77.3017
77.264
77.2194
77.1678
77.1097
77.0452
76.9747
76.8985
76.8168
76.7299
76.6383
76.5423
76.4421
76.3384
76.2313
76.1214
76.0091
75.8949
75.7794
75.6631
75.5465
75.4302
75.3149
75.2011
75.0894
74.9805
74.8747
74.7726
74.7018
74.659
74.6171
74.5759
74.5356
74.4961
74.404
74.2139
74.2139
74.404
74.4961
74.5356
74.5759
74.6171
74.659
74.7018
74.7726
74.8747
74.9805
75.0894
75.2011
75.3149
75.4302
75.5465
75.6631
75.7794
75.8949
76.0091
76.1214
76.2313
76.3384
76.4421
76.5423
76.6383
76.7299
76.8168
76.8985
76.9747
77.0452
77.1097
77.1678
77.2194
77.264
77.3017
77.332
77.3549
77.3703
77.378
75.8709
75.8637
75.8493
75.8278
75.7994
75.7641
75.7222
75.6738
75.6192
75.5586
75.4922
75.4205
75.3436
75.2618
75.1755
75.085
74.9907
74.8929
74.7921
74.6885
74.5828
74.4753
74.3665
74.2569
74.147
74.0374
73.9286
73.8211
73.7155
73.6121
73.5115
73.414
73.346
73.3048
73.2643
73.2245
73.1853
73.1468
73.0594
72.8841
72.8841
73.0594
73.1468
73.1853
73.2245
73.2643
73.3048
73.346
73.414
73.5115
73.6121
73.7155
73.8211
73.9286
74.0374
74.147
74.2569
74.3665
74.4753
74.5828
74.6885
74.7921
74.8929
74.9907
75.085
75.1755
75.2618
75.3436
75.4205
75.4922
75.5586
75.6192
75.6738
75.7222
75.7641
75.7994
75.8278
75.8493
75.8637
75.8709
74.371
74.3643
74.3508
74.3306
74.3039
74.2708
74.2314
74.186
74.1346
74.0776
74.0152
73.9476
73.8752
73.7982
73.7169
73.6316
73.5427
73.4506
73.3555
73.2579
73.1583
73.0569
72.9543
72.851
72.7473
72.6439
72.541
72.4393
72.3392
72.2411
72.1453
72.0521
71.9868
71.9472
71.9081
71.8697
71.8317
71.7943
71.7118
71.5503
71.5503
71.7118
71.7943
71.8317
71.8697
71.9081
71.9472
71.9868
72.0521
72.1453
72.2411
72.3392
72.4393
72.541
72.6439
72.7473
72.851
72.9543
73.0569
73.1583
73.2579
73.3555
73.4506
73.5427
73.6316
73.7169
73.7982
73.8752
73.9476
74.0152
74.0776
74.1346
74.186
74.2314
74.2708
74.3039
74.3306
74.3508
74.3643
74.371
72.8779
72.8716
72.8589
72.84
72.8149
72.7838
72.7468
72.704
72.6557
72.6021
72.5433
72.4797
72.4114
72.3388
72.2622
72.1818
72.098
72.0111
71.9215
71.8294
71.7354
71.6398
71.543
71.4454
71.3475
71.2496
71.1523
71.056
70.961
70.8676
70.7763
70.6873
70.6247
70.5867
70.5492
70.5121
70.4755
70.4393
70.3619
70.2134
70.2134
70.3619
70.4393
70.4755
70.5121
70.5492
70.5867
70.6247
70.6873
70.7763
70.8676
70.961
71.056
71.1523
71.2496
71.3475
71.4454
71.543
71.6398
71.7354
71.8294
71.9215
72.0111
72.098
72.1818
72.2622
72.3388
72.4114
72.4797
72.5433
72.6021
72.6557
72.704
72.7468
72.7838
72.8149
72.84
72.8589
72.8716
72.8779
71.3912
71.3852
71.3733
71.3556
71.332
71.3027
71.2679
71.2276
71.1821
71.1316
71.0763
71.0163
70.952
70.8836
70.8113
70.7355
70.6564
70.5744
70.4898
70.4029
70.3142
70.2238
70.1324
70.0401
69.9475
69.8549
69.7627
69.6713
69.581
69.4922
69.4052
69.3201
69.2603
69.2238
69.1879
69.1523
69.1171
69.0823
69.0103
68.8736
68.8736
69.0103
69.0823
69.1171
69.1523
69.1879
69.2238
69.2603
69.3201
69.4052
69.4922
69.581
69.6713
69.7627
69.8549
69.9475
70.0401
70.1324
70.2238
70.3142
70.4029
70.4898
70.5744
70.6564
70.7355
70.8113
70.8836
70.952
71.0163
71.0763
71.1316
71.1821
71.2276
71.2679
71.3027
71.332
71.3556
71.3733
71.3852
71.3912
69.9104
69.9048
69.8936
69.8769
69.8547
69.8271
69.7943
69.7565
69.7136
69.666
69.6138
69.5573
69.4967
69.4321
69.3639
69.2924
69.2177
69.1403
69.0604
68.9783
68.8944
68.809
68.7225
68.6352
68.5475
68.4597
68.3722
68.2854
68.1996
68.115
68.032
67.9508
67.8936
67.8588
67.8244
67.7904
67.7568
67.7236
67.6573
67.5312
67.5312
67.6573
67.7236
67.7568
67.7904
67.8244
67.8588
67.8936
67.9508
68.032
68.115
68.1996
68.2854
68.3722
68.4597
68.5475
68.6352
68.7225
68.809
68.8944
68.9783
69.0604
69.1403
69.2177
69.2924
69.3639
69.4321
69.4967
69.5573
69.6138
69.666
69.7136
69.7565
69.7943
69.8271
69.8547
69.8769
69.8936
69.9048
69.9104
68.4352
68.43
68.4194
68.4037
68.3828
68.3568
68.3259
68.2902
68.2499
68.205
68.1558
68.1025
68.0452
67.9843
67.9199
67.8524
67.7819
67.7087
67.6332
67.5556
67.4762
67.3954
67.3135
67.2307
67.1476
67.0643
66.9812
66.8986
66.8169
66.7363
66.6571
66.5795
66.5249
66.4917
66.4589
66.4265
66.3946
66.363
66.3026
66.1857
66.1857
66.3026
66.363
66.3946
66.4265
66.4589
66.4917
66.5249
66.5795
66.6571
66.7363
66.8169
66.8986
66.9812
67.0643
67.1476
67.2307
67.3135
67.3954
67.4762
67.5556
67.6332
67.7087
67.7819
67.8524
67.9199
67.9843
68.0452
68.1025
68.1558
68.205
68.2499
68.2902
68.3259
68.3568
68.3828
68.4037
68.4194
68.43
68.4352
66.9654
66.9604
66.9505
66.9356
66.9159
66.8915
66.8623
66.8287
66.7906
66.7483
66.7018
66.6515
66.5975
66.5399
66.4791
66.4153
66.3486
66.2794
66.208
66.1346
66.0594
65.9829
65.9052
65.8267
65.7478
65.6686
65.5895
65.5109
65.433
65.3561
65.2805
65.2064
65.1542
65.1225
65.0913
65.0604
65.0301
65.0003
64.9456
64.8363
64.8363
64.9456
65.0003
65.0301
65.0604
65.0913
65.1225
65.1542
65.2064
65.2805
65.3561
65.433
65.5109
65.5895
65.6686
65.7478
65.8267
65.9052
65.9829
66.0594
66.1346
66.208
66.2794
66.3486
66.4153
66.4791
66.5399
66.5975
66.6515
66.7018
66.7483
66.7906
66.8287
66.8623
66.8915
66.9159
66.9356
66.9505
66.9604
66.9654
65.5004
65.4958
65.4864
65.4724
65.4538
65.4308
65.4033
65.3715
65.3356
65.2956
65.2518
65.2043
65.1532
65.0988
65.0414
64.981
64.9179
64.8525
64.7848
64.7153
64.644
64.5714
64.4977
64.4232
64.3481
64.2728
64.1975
64.1225
64.0481
63.9746
63.9023
63.8314
63.7815
63.7512
63.7213
63.6919
63.6631
63.6348
63.5853
63.4819
63.4819
63.5853
63.6348
63.6631
63.6919
63.7213
63.7512
63.7815
63.8314
63.9023
63.9746
64.0481
64.1225
64.1975
64.2728
64.3481
64.4232
64.4977
64.5714
64.644
64.7153
64.7848
64.8525
64.9179
64.981
65.0414
65.0988
65.1532
65.2043
65.2518
65.2956
65.3356
65.3715
65.4033
65.4308
65.4538
65.4724
65.4864
65.4958
65.5004
64.0402
64.0358
64.027
64.0138
63.9962
63.9745
63.9485
63.9186
63.8846
63.8469
63.8055
63.7605
63.7123
63.6609
63.6065
63.5494
63.4897
63.4277
63.3636
63.2976
63.23
63.1611
63.0911
63.0202
62.9488
62.877
62.8052
62.7336
62.6624
62.592
62.5226
62.4546
62.4067
62.3775
62.3489
62.3207
62.293
62.2659
62.2207
62.1218
62.1218
62.2207
62.2659
62.293
62.3207
62.3489
62.3775
62.4067
62.4546
62.5226
62.592
62.6624
62.7336
62.8052
62.877
62.9488
63.0202
63.0911
63.1611
63.23
63.2976
63.3636
63.4277
63.4897
63.5494
63.6065
63.6609
63.7123
63.7605
63.8055
63.8469
63.8846
63.9186
63.9485
63.9745
63.9962
64.0138
64.027
64.0358
64.0402
62.5844
62.5802
62.5719
62.5594
62.5429
62.5223
62.4979
62.4695
62.4375
62.4018
62.3626
62.3202
62.2745
62.2259
62.1744
62.1203
62.0637
62.0049
61.9442
61.8816
61.8174
61.7519
61.6853
61.6178
61.5497
61.4813
61.4126
61.3441
61.2759
61.2084
61.1417
61.0761
61.0299
61.0018
60.974
60.9467
60.9199
60.8936
60.8519
60.7563
60.7563
60.8519
60.8936
60.9199
60.9467
60.974
61.0018
61.0299
61.0761
61.1417
61.2084
61.2759
61.3441
61.4126
61.4813
61.5497
61.6178
61.6853
61.7519
61.8174
61.8816
61.9442
62.0049
62.0637
62.1203
62.1744
62.2259
62.2745
62.3202
62.3626
62.4018
62.4375
62.4695
62.4979
62.5223
62.5429
62.5594
62.5719
62.5802
62.5844
61.1328
61.1288
61.121
61.1092
61.0936
61.0741
61.051
61.0242
60.9939
60.9602
60.9231
60.8829
60.8397
60.7937
60.7449
60.6936
60.64
60.5843
60.5265
60.4671
60.4061
60.3438
60.2804
60.2161
60.1511
60.0856
60.02
59.9543
59.8888
59.8238
59.7595
59.6962
59.6513
59.624
59.5971
59.5704
59.5442
59.5184
59.4797
59.3871
59.3871
59.4797
59.5184
59.5442
59.5704
59.5971
59.624
59.6513
59.6962
59.7595
59.8238
59.8888
59.9543
60.02
60.0856
60.1511
60.2161
60.2804
60.3438
60.4061
60.4671
60.5265
60.5843
60.64
60.6936
60.7449
60.7937
60.8397
60.8829
60.9231
60.9602
60.9939
61.0242
61.051
61.0741
61.0936
61.1092
61.121
61.1288
61.1328
59.6851
59.6814
59.6739
59.6628
59.648
59.6297
59.6078
59.5825
59.5538
59.5219
59.4868
59.4487
59.4078
59.3642
59.3179
59.2693
59.2184
59.1655
59.1107
59.0542
58.9961
58.9368
58.8763
58.815
58.7529
58.6903
58.6273
58.5643
58.5013
58.4386
58.3764
58.315
58.2713
58.2447
58.2183
58.1922
58.1664
58.141
58.1054
58.0156
58.0156
58.1054
58.141
58.1664
58.1922
58.2183
58.2447
58.2713
58.315
58.3764
58.4386
58.5013
58.5643
58.6273
58.6903
58.7529
58.815
58.8763
58.9368
58.9961
59.0542
59.1107
59.1655
59.2184
59.2693
59.3179
59.3642
59.4078
59.4487
59.4868
59.5219
59.5538
59.5825
59.6078
59.6297
59.648
59.6628
59.6739
59.6814
59.6851
58.2412
58.2376
58.2306
58.2201
58.2061
58.1887
58.168
58.144
58.1169
58.0867
58.0535
58.0174
57.9786
57.9372
57.8934
57.8472
57.7989
57.7486
57.6965
57.6427
57.5875
57.5309
57.4732
57.4146
57.3552
57.2952
57.2348
57.1742
57.1135
57.0529
56.9926
56.9328
56.8901
56.864
56.8381
56.8124
56.787
56.7619
56.7296
56.6426
56.6426
56.7296
56.7619
56.787
56.8124
56.8381
56.864
56.8901
56.9328
56.9926
57.0529
57.1135
57.1742
57.2348
57.2952
57.3552
57.4146
57.4732
57.5309
57.5875
57.6427
57.6965
57.7486
57.7989
57.8472
57.8934
57.9372
57.9786
58.0174
58.0535
58.0867
58.1169
58.144
58.168
58.1887
58.2061
58.2201
58.2306
58.2376
58.2412
56.8007
56.7974
56.7907
56.7808
56.7675
56.7511
56.7315
56.7088
56.6831
56.6545
56.623
56.5888
56.552
56.5128
56.4712
56.4273
56.3814
56.3336
56.284
56.2328
56.1801
56.1262
56.0711
56.015
55.9581
55.9006
55.8425
55.7841
55.7255
55.6669
55.6083
55.5499
55.508
55.4823
55.4567
55.4313
55.4061
55.3813
55.353
55.272
55.272
55.353
55.3813
55.4061
55.4313
55.4567
55.4823
55.508
55.5499
55.6083
55.6669
55.7255
55.7841
55.8425
55.9006
55.9581
56.015
56.0711
56.1262
56.1801
56.2328
56.284
56.3336
56.3814
56.4273
56.4712
56.5128
56.552
56.5888
56.623
56.6545
56.6831
56.7088
56.7315
56.7511
56.7675
56.7808
56.7907
56.7974
56.8007
55.3636
55.3605
55.3542
55.3447
55.3322
55.3166
55.2981
55.2766
55.2522
55.2251
55.1953
55.1628
55.1279
55.0907
55.0511
55.0095
54.9658
54.9203
54.8731
54.8243
54.7741
54.7225
54.6699
54.6162
54.5617
54.5064
54.4506
54.3943
54.3376
54.2808
54.2238
54.1667
54.1254
54.0999
54.0744
54.0488
54.023
53.9968
53.9694
53.9232
53.9232
53.9694
53.9968
54.023
54.0488
54.0744
54.0999
54.1254
54.1667
54.2238
54.2808
54.3376
54.3943
54.4506
54.5064
54.5617
54.6162
54.6699
54.7225
54.7741
54.8243
54.8731
54.9203
54.9658
55.0095
55.0511
55.0907
55.1279
55.1628
55.1953
55.2251
55.2522
55.2766
55.2981
55.3166
55.3322
55.3447
55.3542
55.3605
55.3636
53.9298
53.9268
53.9208
53.9119
53.9
53.8852
53.8676
53.8473
53.8242
53.7984
53.7701
53.7394
53.7062
53.6708
53.6333
53.5937
53.5521
53.5088
53.4638
53.4173
53.3693
53.3201
53.2697
53.2183
53.166
53.1129
53.0591
53.0048
52.95
52.8948
52.8393
52.7835
52.743
52.7179
52.6928
52.6675
52.642
52.6164
52.5901
52.5467
52.5467
52.5901
52.6164
52.642
52.6675
52.6928
52.7179
52.743
52.7835
52.8393
52.8948
52.95
53.0048
53.0591
53.1129
53.166
53.2183
53.2697
53.3201
53.3693
53.4173
53.4638
53.5088
53.5521
53.5937
53.6333
53.6708
53.7062
53.7394
53.7701
53.7984
53.8242
53.8473
53.8676
53.8852
53.9
53.9119
53.9208
53.9268
53.9298
52.4989
52.496
52.4904
52.4819
52.4707
52.4567
52.44
52.4207
52.3988
52.3743
52.3475
52.3183
52.2868
52.2532
52.2175
52.1798
52.1403
52.099
52.0561
52.0117
51.9659
51.9188
51.8706
51.8213
51.771
51.72
51.6682
51.6158
51.5627
51.5092
51.4552
51.4007
51.361
51.3365
51.3118
51.287
51.262
51.2369
51.2112
51.1693
51.1693
51.2112
51.2369
51.262
51.287
51.3118
51.3365
51.361
51.4007
51.4552
51.5092
51.5627
51.6158
51.6682
51.72
51.771
51.8213
51.8706
51.9188
51.9659
52.0117
52.0561
52.099
52.1403
52.1798
52.2175
52.2532
52.2868
52.3183
52.3475
52.3743
52.3988
52.4207
52.44
52.4567
52.4707
52.4819
52.4904
52.496
52.4989
51.0708
51.0681
51.0628
51.0547
51.0441
51.0308
51.015
50.9967
50.9759
50.9527
50.9272
50.8995
50.8695
50.8376
50.8036
50.7677
50.7301
50.6908
50.6499
50.6075
50.5637
50.5187
50.4725
50.4252
50.377
50.3278
50.2779
50.2273
50.176
50.1241
50.0716
50.0184
49.9796
49.9556
49.9315
49.9072
49.8827
49.8582
49.833
49.7924
49.7924
49.833
49.8582
49.8827
49.9072
49.9315
49.9556
49.9796
50.0184
50.0716
50.1241
50.176
50.2273
50.2779
50.3278
50.377
50.4252
50.4725
50.5187
50.5637
50.6075
50.6499
50.6908
50.7301
50.7677
50.8036
50.8376
50.8695
50.8995
50.9272
50.9527
50.9759
50.9967
51.015
51.0308
51.0441
51.0547
51.0628
51.0681
51.0708
49.6454
49.6429
49.6378
49.6302
49.6201
49.6075
49.5925
49.5751
49.5554
49.5334
49.5092
49.4828
49.4544
49.4239
49.3916
49.3575
49.3216
49.2841
49.2451
49.2046
49.1628
49.1197
49.0754
49.0301
48.9838
48.9365
48.8884
48.8395
48.7899
48.7395
48.6885
48.6368
48.5989
48.5755
48.5519
48.5281
48.5042
48.4802
48.4556
48.4163
48.4163
48.4556
48.4802
48.5042
48.5281
48.5519
48.5755
48.5989
48.6368
48.6885
48.7395
48.7899
48.8395
48.8884
48.9365
48.9838
49.0301
49.0754
49.1197
49.1628
49.2046
49.2451
49.2841
49.3216
49.3575
49.3916
49.4239
49.4544
49.4828
49.5092
49.5334
49.5554
49.5751
49.5925
49.6075
49.6201
49.6302
49.6378
49.6429
49.6454
48.2226
48.2202
48.2154
48.2082
48.1986
48.1866
48.1724
48.1559
48.1372
48.1163
48.0932
48.0682
48.0412
48.0122
47.9815
47.949
47.9148
47.879
47.8418
47.8031
47.7631
47.7219
47.6795
47.636
47.5915
47.546
47.4997
47.4525
47.4044
47.3557
47.3061
47.2558
47.2189
47.1961
47.173
47.1499
47.1265
47.103
47.0789
47.041
47.041
47.0789
47.103
47.1265
47.1499
47.173
47.1961
47.2189
47.2558
47.3061
47.3557
47.4044
47.4525
47.4997
47.546
47.5915
47.636
47.6795
47.7219
47.7631
47.8031
47.8418
47.879
47.9148
47.949
47.9815
48.0122
48.0412
48.0682
48.0932
48.1163
48.1372
48.1559
48.1724
48.1866
48.1986
48.2082
48.2154
48.2202
48.2226
46.8022
46.7999
46.7953
46.7885
46.7794
46.7681
46.7546
46.7389
46.7211
46.7012
46.6794
46.6556
46.6299
46.6023
46.5731
46.5421
46.5095
46.4755
46.4399
46.403
46.3647
46.3253
46.2846
46.2429
46.2001
46.1564
46.1117
46.0662
46.0198
45.9726
45.9245
45.8756
45.8397
45.8175