/*--------------------------------*- C++ -*----------------------------------*\
  =========                 |
  \\      /  F ield         | OpenFOAM: The Open Source CFD Toolbox
   \\    /   O peration     | Website:  https://openfoam.org
    \\  /    A nd           | Version:  10
     \\/     M anipulation  |
\*---------------------------------------------------------------------------*/
FoamFile
{
    format      ascii;
    class       surfaceScalarField;
    location    "1";
    object      phi;
}
// * * * * * * * * * * * * * * * * * * * * * * * * * * * * * * * * * * * * * //

dimensions      [0 3 -1 0 0 0 0];

internalField   nonuniform List<scalar> 
24170
(
1.40527e-09
-1.40527e-09
2.60909e-09
-1.20381e-09
3.56388e-09
-9.5479e-10
4.28788e-09
-7.24e-10
4.82777e-09
-5.39896e-10
5.23396e-09
-4.06186e-10
5.54989e-09
-3.15938e-10
5.80986e-09
-2.59965e-10
6.04033e-09
-2.30471e-10
6.26255e-09
-2.2222e-10
6.49539e-09
-2.32841e-10
6.75862e-09
-2.63223e-10
7.07746e-09
-3.18842e-10
7.49114e-09
-4.13685e-10
8.07321e-09
-5.82063e-10
8.99401e-09
-9.20804e-10
1.07818e-08
-1.78775e-09
-5.11263e-09
1.58944e-08
1.60667e-09
-3.01194e-09
2.97665e-09
-2.57379e-09
4.05617e-09
-2.03431e-09
4.8687e-09
-1.53654e-09
5.46998e-09
-1.14117e-09
5.91897e-09
-8.55183e-10
6.26591e-09
-6.62877e-10
6.54998e-09
-5.44034e-10
6.80116e-09
-4.81648e-10
7.04324e-09
-4.64305e-10
7.29712e-09
-4.86717e-10
7.5843e-09
-5.50408e-10
7.93169e-09
-6.6623e-10
8.3797e-09
-8.61694e-10
8.99955e-09
-1.20191e-09
9.93419e-09
-1.85545e-09
1.14755e-08
-3.32908e-09
-7.33058e-09
1.36935e-08
1.80428e-09
-4.81623e-09
3.33315e-09
-4.10265e-09
4.52741e-09
-3.22857e-09
5.41783e-09
-2.42696e-09
6.07059e-09
-1.79393e-09
6.55378e-09
-1.33837e-09
6.92432e-09
-1.03342e-09
7.22597e-09
-8.45687e-10
7.49176e-09
-7.47435e-10
7.74749e-09
-7.20039e-10
8.01535e-09
-7.54574e-10
8.31748e-09
-8.52537e-10
8.68027e-09
-1.02902e-09
9.1405e-09
-1.32192e-09
9.75458e-09
-1.81599e-09
1.06054e-08
-2.70624e-09
1.17347e-08
-4.4584e-09
-8.07615e-09
1.24803e-08
2.02371e-09
-6.83994e-09
3.72379e-09
-5.80273e-09
5.03617e-09
-4.54095e-09
6.00253e-09
-3.39332e-09
6.70261e-09
-2.49401e-09
7.21537e-09
-1.85113e-09
7.60512e-09
-1.42317e-09
7.92033e-09
-1.16089e-09
8.19686e-09
-1.02396e-09
8.46213e-09
-9.85308e-10
8.73896e-09
-1.03141e-09
9.04902e-09
-1.1626e-09
9.41612e-09
-1.39612e-09
9.86916e-09
-1.77496e-09
1.04419e-08
-2.38869e-09
1.11519e-08
-3.41628e-09
1.18826e-08
-5.18909e-09
-8.12503e-09
1.19315e-08
2.27885e-09
-9.1188e-09
4.1708e-09
-7.69467e-09
5.60802e-09
-5.97817e-09
6.64885e-09
-4.43416e-09
7.39134e-09
-3.2365e-09
7.92792e-09
-2.3877e-09
8.33138e-09
-1.82663e-09
8.65508e-09
-1.4846e-09
8.93753e-09
-1.30641e-09
9.20729e-09
-1.25507e-09
9.48709e-09
-1.31121e-09
9.79694e-09
-1.47245e-09
1.01561e-08
-1.7553e-09
1.05828e-08
-2.20161e-09
1.10857e-08
-2.89164e-09
1.1631e-08
-3.96158e-09
1.20379e-08
-5.59595e-09
-7.86315e-09
1.1776e-08
2.58494e-09
-1.17037e-08
4.69687e-09
-9.8066e-09
6.26681e-09
-7.54811e-09
7.37881e-09
-5.54616e-09
8.1561e-09
-4.01379e-09
8.70815e-09
-2.93975e-09
9.11756e-09
-2.23605e-09
9.44283e-09
-1.80987e-09
9.72477e-09
-1.58835e-09
9.99248e-09
-1.52278e-09
1.02678e-08
-1.5865e-09
1.05679e-08
-1.77256e-09
1.09061e-08
-2.09354e-09
1.12887e-08
-2.58423e-09
1.17028e-08
-3.3057e-09
1.20836e-08
-4.34235e-09
1.22499e-08
-5.76228e-09
-7.47306e-09
1.18598e-08
2.96243e-09
-1.46662e-08
5.33078e-09
-1.2175e-08
7.04085e-09
-9.25817e-09
8.21669e-09
-6.72201e-09
9.01663e-09
-4.81373e-09
9.57185e-09
-3.49497e-09
9.97632e-09
-2.64052e-09
1.02937e-08
-2.12725e-09
1.05666e-08
-1.86125e-09
1.08239e-08
-1.78011e-09
1.10857e-08
-1.84826e-09
1.13654e-08
-2.05224e-09
1.16696e-08
-2.39778e-09
1.19936e-08
-2.90824e-09
1.23089e-08
-3.62102e-09
1.25399e-08
-4.57335e-09
1.25365e-08
-5.7588e-09
-7.03709e-09
1.21005e-08
3.44115e-09
-1.81073e-08
6.11224e-09
-1.4846e-08
7.96682e-09
-1.11127e-08
9.19204e-09
-7.94724e-09
9.99551e-09
-5.61719e-09
1.0536e-08
-4.03545e-09
1.09204e-08
-3.02488e-09
1.12172e-08
-2.42408e-09
1.14701e-08
-2.11412e-09
1.17067e-08
-2.01675e-09
1.19444e-08
-2.08595e-09
1.21922e-08
-2.30007e-09
1.24502e-08
-2.65581e-09
1.27049e-08
-3.16288e-09
1.29195e-08
-3.83563e-09
1.30218e-08
-4.67567e-09
1.29015e-08
-5.63853e-09
-6.59032e-09
1.24548e-08
4.06684e-09
-2.21742e-08
7.09837e-09
-1.78776e-08
9.09409e-09
-1.31085e-08
1.03422e-08
-9.19531e-09
1.11195e-08
-6.39456e-09
1.16196e-08
-4.53552e-09
1.19632e-08
-3.36845e-09
1.22228e-08
-2.68375e-09
1.24418e-08
-2.33307e-09
1.26453e-08
-2.2203e-09
1.28471e-08
-2.28775e-09
1.30515e-08
-2.5044e-09
1.32526e-08
-2.85693e-09
1.34311e-08
-3.34142e-09
1.35487e-08
-3.95316e-09
1.35442e-08
-4.67125e-09
1.3344e-08
-5.43831e-09
-6.14625e-09
1.29e-08
4.91286e-09
-2.7087e-08
8.3739e-09
-2.13386e-08
1.04904e-08
-1.5225e-08
1.17146e-08
-1.04195e-08
1.24206e-08
-7.10062e-09
1.2844e-08
-4.95885e-09
1.31191e-08
-3.64355e-09
1.33203e-08
-2.88501e-09
1.34883e-08
-2.50109e-09
1.36444e-08
-2.37636e-09
1.37975e-08
-2.44083e-09
1.39469e-08
-2.65388e-09
1.40824e-08
-2.99236e-09
1.41816e-08
-3.44063e-09
1.42089e-08
-3.98046e-09
1.41174e-08
-4.57974e-09
1.38616e-08
-5.18251e-09
-5.70884e-09
1.34242e-08
6.10255e-09
-3.31896e-08
1.00679e-08
-2.5304e-08
1.22494e-08
-1.74065e-08
1.33694e-08
-1.15394e-08
1.3936e-08
-7.66729e-09
1.42322e-08
-5.25503e-09
1.44026e-08
-3.81392e-09
1.45189e-08
-3.00133e-09
1.46157e-08
-2.59794e-09
1.4708e-08
-2.46865e-09
1.4799e-08
-2.53177e-09
1.4883e-08
-2.73785e-09
1.4946e-08
-3.05538e-09
1.49654e-08
-3.46002e-09
1.49106e-08
-3.92569e-09
1.47481e-08
-4.41719e-09
1.44522e-08
-4.88661e-09
-5.27788e-09
1.40212e-08
6.51838e-09
-3.9708e-08
1.03074e-08
-2.9093e-08
1.21036e-08
-1.92027e-08
1.28644e-08
-1.23002e-08
1.31567e-08
-7.95963e-09
1.32548e-08
-5.35311e-09
1.32812e-08
-3.84032e-09
1.32882e-08
-3.00833e-09
1.32962e-08
-2.60596e-09
1.33106e-08
-2.483e-09
1.33283e-08
-2.54947e-09
1.33405e-08
-2.75013e-09
1.33335e-08
-3.04832e-09
1.32886e-08
-3.41511e-09
1.31844e-08
-3.82152e-09
1.30009e-08
-4.23369e-09
1.27263e-08
-4.61206e-09
-4.91633e-09
1.23648e-08
9.69357e-09
-4.94015e-08
1.45024e-08
-3.39019e-08
1.63078e-08
-2.1008e-08
1.68052e-08
-1.27975e-08
1.68226e-08
-7.9771e-09
1.66975e-08
-5.228e-09
1.65542e-08
-3.697e-09
1.64327e-08
-2.88683e-09
1.63405e-08
-2.51376e-09
1.62723e-08
-2.41476e-09
1.62167e-08
-2.49393e-09
1.61589e-08
-2.69234e-09
1.6081e-08
-2.97035e-09
1.59628e-08
-3.29697e-09
1.57847e-08
-3.64337e-09
1.55308e-08
-3.97985e-09
1.5195e-08
-4.27627e-09
-4.50578e-09
1.47845e-08
1.56577e-08
-6.50592e-08
2.14219e-08
-3.96661e-08
2.26e-08
-2.21861e-08
2.23145e-08
-1.2512e-08
2.17151e-08
-7.37776e-09
2.11491e-08
-4.6619e-09
2.06938e-08
-3.24178e-09
2.03463e-08
-2.53935e-09
2.00831e-08
-2.2505e-09
1.98776e-08
-2.20923e-09
1.97043e-08
-2.32071e-09
1.95393e-08
-2.52729e-09
1.93593e-08
-2.79042e-09
1.91431e-08
-3.08071e-09
1.88725e-08
-3.37281e-09
1.85361e-08
-3.6434e-09
1.81315e-08
-3.87168e-09
-4.04147e-09
1.76672e-08
2.86517e-08
-9.3711e-08
3.36983e-08
-4.47126e-08
3.23175e-08
-2.08053e-08
3.00952e-08
-1.02897e-08
2.82458e-08
-5.52839e-09
2.68812e-08
-3.29728e-09
2.58989e-08
-2.25948e-09
2.51862e-08
-1.8266e-09
2.46549e-08
-1.71927e-09
2.42403e-08
-1.79462e-09
2.38937e-08
-1.97407e-09
2.35771e-08
-2.21075e-09
2.32604e-08
-2.47371e-09
2.29198e-08
-2.74008e-09
2.25383e-08
-2.99132e-09
2.21069e-08
-3.21203e-09
2.16254e-08
-3.39008e-09
-3.51746e-09
2.11013e-08
6.325e-08
-1.56961e-07
5.67929e-08
-3.82555e-08
4.72688e-08
-1.12813e-08
4.08049e-08
-3.82581e-09
3.67099e-08
-1.43341e-09
3.40674e-08
-6.54756e-10
3.22984e-08
-4.90536e-10
3.10636e-08
-5.91736e-10
3.01599e-08
-8.15575e-10
2.94607e-08
-1.09546e-09
2.8883e-08
-1.39634e-09
2.83699e-08
-1.69761e-09
2.78815e-08
-1.98537e-09
2.73905e-08
-2.24909e-09
2.68796e-08
-2.48036e-09
2.63403e-08
-2.67274e-09
2.57721e-08
-2.82194e-09
-2.92621e-09
2.51809e-08
1.83512e-07
1.59327e-07
9.74606e-08
4.77956e-08
6.72136e-08
1.89657e-08
5.38199e-08
9.56789e-09
4.67664e-08
5.62007e-09
4.25798e-08
3.53182e-09
3.9876e-08
2.21329e-09
3.80113e-08
1.273e-09
3.66485e-08
5.47233e-10
3.5594e-08
-4.09861e-11
3.47247e-08
-5.27075e-10
3.39662e-08
-9.39101e-10
3.32692e-08
-1.28838e-09
3.26016e-08
-1.58144e-09
3.19436e-08
-1.82239e-09
3.12851e-08
-2.01429e-09
3.06232e-08
-2.16004e-09
-2.26295e-09
2.996e-08
7.72729e-08
8.20546e-08
7.55768e-08
4.94917e-08
6.56383e-08
2.89043e-08
5.77021e-08
1.7504e-08
5.22388e-08
1.10835e-08
4.8515e-08
7.25552e-09
4.591e-08
4.81836e-09
4.40155e-08
3.16752e-09
4.25743e-08
1.98841e-09
4.14235e-08
1.10982e-09
4.04622e-08
4.34177e-10
3.96181e-08
-9.50036e-11
3.88392e-08
-5.09424e-10
3.80982e-08
-8.40463e-10
3.73788e-08
-1.10299e-09
3.66723e-08
-1.30775e-09
3.59753e-08
-1.46313e-09
-1.5761e-09
3.52885e-08
3.60195e-08
4.60351e-08
5.02312e-08
3.52799e-08
5.39645e-08
2.5171e-08
5.38441e-08
1.76245e-08
5.25763e-08
1.23512e-08
5.11275e-08
8.7043e-09
4.97945e-08
6.15135e-09
4.86354e-08
4.32671e-09
4.76313e-08
2.99245e-09
4.67455e-08
1.9956e-09
4.59426e-08
1.23712e-09
4.51956e-08
6.51939e-10
4.449e-08
1.96228e-10
4.38073e-08
-1.57793e-10
4.31365e-08
-4.32157e-10
4.2474e-08
-6.45256e-10
4.18193e-08
-8.08435e-10
-9.30612e-10
4.11738e-08
1.43715e-08
3.16636e-08
2.33793e-08
2.62721e-08
2.82058e-08
2.03445e-08
3.05778e-08
1.52524e-08
3.16499e-08
1.12791e-08
3.20602e-08
8.29398e-09
3.21363e-08
6.07529e-09
3.20407e-08
4.42228e-09
3.1853e-08
3.18018e-09
3.16118e-08
2.23681e-09
3.13361e-08
1.51276e-09
3.1036e-08
9.52118e-10
3.07169e-08
5.15274e-10
3.03852e-08
1.73887e-10
3.00447e-08
-9.1608e-11
2.96957e-08
-2.96284e-10
2.93416e-08
-4.54341e-10
-5.74569e-10
2.89856e-08
8.61287e-09
2.30507e-08
1.50249e-08
1.98601e-08
1.9282e-08
1.60874e-08
2.19603e-08
1.25741e-08
2.36047e-08
9.6347e-09
2.45998e-08
7.29886e-09
2.51893e-08
5.48586e-09
2.55209e-08
4.09062e-09
2.56838e-08
3.01734e-09
2.57319e-08
2.18872e-09
2.56989e-08
1.54568e-09
2.56069e-08
1.04411e-09
2.54708e-08
6.51373e-10
2.53015e-08
3.4325e-10
2.51082e-08
1.01643e-10
2.4898e-08
-8.60952e-11
2.46745e-08
-2.30841e-10
-3.42188e-10
2.44422e-08
5.81097e-09
1.72397e-08
1.05117e-08
1.51594e-08
1.39883e-08
1.26109e-08
1.64413e-08
1.0121e-08
1.81338e-08
7.94223e-09
1.92891e-08
6.1436e-09
2.0071e-08
4.70393e-09
2.05926e-08
3.56902e-09
2.09301e-08
2.67984e-09
2.11349e-08
1.98391e-09
2.12422e-08
1.43839e-09
2.12766e-08
1.00974e-09
2.12557e-08
6.72217e-10
2.11928e-08
4.06177e-10
2.10978e-08
1.96637e-10
2.09796e-08
3.20881e-11
2.0844e-08
-9.52365e-11
-1.93618e-10
2.06954e-08
4.22594e-09
1.30138e-08
7.8025e-09
1.15828e-08
1.06159e-08
9.79742e-09
1.27361e-08
8.0009e-09
1.42965e-08
6.38179e-09
1.54302e-08
5.00995e-09
1.62463e-08
3.88778e-09
1.68278e-08
2.98751e-09
1.72353e-08
2.27233e-09
1.75127e-08
1.70656e-09
1.76917e-08
1.25939e-09
1.77957e-08
9.05763e-10
1.7842e-08
6.25883e-10
1.78439e-08
4.04311e-10
1.78115e-08
2.29066e-10
1.77527e-08
9.08247e-11
1.76749e-08
-1.74617e-11
-1.00921e-10
1.75822e-08
3.22871e-09
9.78508e-09
6.03528e-09
8.77627e-09
8.32807e-09
7.50463e-09
1.01281e-08
6.20083e-09
1.15074e-08
5.0025e-09
1.25485e-08
3.96884e-09
1.33261e-08
3.11024e-09
1.3901e-08
2.41262e-09
1.43206e-08
1.85272e-09
1.4621e-08
1.40614e-09
1.48296e-08
1.05086e-09
1.49669e-08
7.68435e-10
1.50488e-08
5.43932e-10
1.50876e-08
3.65524e-10
1.50928e-08
2.2391e-10
1.50718e-08
1.11787e-10
1.50309e-08
2.34074e-11
-4.5225e-11
1.49752e-08
2.55033e-09
7.23475e-09
4.80461e-09
6.52199e-09
6.69129e-09
5.61794e-09
8.21253e-09
4.6796e-09
9.40937e-09
3.80566e-09
1.03358e-08
3.04244e-09
1.10444e-08
2.40159e-09
1.15809e-08
1.87612e-09
1.19824e-08
1.45119e-09
1.22784e-08
1.11015e-09
1.24918e-08
8.3746e-10
1.26405e-08
6.19771e-10
1.27383e-08
4.46107e-10
1.27962e-08
3.07658e-10
1.28227e-08
1.97426e-10
1.28246e-08
1.09874e-10
1.28074e-08
4.06112e-11
-1.36559e-11
1.27758e-08
2.06044e-09
5.1743e-09
3.90162e-09
4.68082e-09
5.46724e-09
4.05232e-09
6.75221e-09
3.39463e-09
7.78132e-09
2.77655e-09
8.59162e-09
2.23214e-09
9.22169e-09
1.77153e-09
9.70646e-09
1.39135e-09
1.00754e-08
1.0822e-09
1.03527e-08
8.32922e-10
1.05573e-08
6.32818e-10
1.07046e-08
4.72535e-10
1.08064e-08
3.4429e-10
1.08723e-08
2.41775e-10
1.09097e-08
1.59942e-10
1.09248e-08
9.47757e-11
1.09224e-08
4.30801e-11
2.31439e-12
1.09064e-08
1.68944e-09
3.48486e-09
3.21005e-09
3.1602e-09
4.51687e-09
2.7455e-09
5.60236e-09
2.30914e-09
6.48237e-09
1.89654e-09
7.18355e-09
1.53096e-09
7.73508e-09
1.21999e-09
8.16432e-09
9.62109e-10
8.49499e-09
7.5154e-10
8.74676e-09
5.81146e-10
8.93564e-09
4.4394e-10
9.07444e-09
3.33739e-10
9.17338e-09
2.45348e-10
9.24062e-09
1.7453e-10
9.28269e-09
1.17875e-10
9.30481e-09
7.2657e-11
9.31119e-09
3.66976e-11
8.2459e-12
9.30526e-09
1.39675e-09
2.08811e-09
2.6601e-09
1.89686e-09
3.75359e-09
1.65201e-09
4.66934e-09
1.39339e-09
5.41804e-09
1.14783e-09
6.01963e-09
9.2937e-10
6.4968e-09
7.42829e-10
6.8713e-09
5.87601e-10
7.16238e-09
4.6046e-10
7.38624e-09
3.57292e-10
7.55617e-09
2.74013e-10
7.68293e-09
2.06973e-10
7.77519e-09
1.53089e-10
7.83989e-09
1.09833e-10
7.8826e-09
7.51621e-11
7.90782e-09
4.7437e-11
7.91917e-09
2.53432e-11
7.81691e-12
7.9196e-09
1.15551e-09
9.32602e-10
2.20417e-09
8.48203e-10
3.11626e-09
7.39924e-10
3.8844e-09
6.25249e-10
4.51618e-09
5.16052e-10
5.02692e-09
4.18627e-10
5.43454e-09
3.35213e-10
5.75651e-09
2.65625e-10
6.00848e-09
2.08497e-10
6.20373e-09
1.62041e-10
6.35327e-09
1.24467e-10
6.46608e-09
9.41646e-11
6.5494e-09
6.97676e-11
6.60909e-09
5.01509e-11
6.64984e-09
3.44032e-11
6.67549e-09
2.17914e-11
6.68911e-09
1.17258e-11
3.72856e-12
6.6932e-09
9.32602e-10
1.7808e-09
2.52073e-09
3.14598e-09
3.66203e-09
4.08066e-09
4.41587e-09
4.68149e-09
4.88999e-09
5.05203e-09
5.1765e-09
5.27066e-09
5.34043e-09
5.39058e-09
5.42499e-09
5.44678e-09
5.4585e-09
5.46223e-09
2.7611e-10
-2.7611e-10
5.53725e-10
-2.77614e-10
8.32435e-10
-2.78711e-10
1.11182e-09
-2.79384e-10
1.39144e-09
-2.79622e-10
1.67085e-09
-2.79413e-10
1.9496e-09
-2.78749e-10
2.22723e-09
-2.77624e-10
2.50326e-09
-2.76033e-10
2.77724e-09
-2.73978e-10
3.0487e-09
-2.71459e-10
3.31718e-09
-2.68482e-10
3.58223e-09
-2.65057e-10
3.84343e-09
-2.61198e-10
4.10036e-09
-2.56922e-10
4.35261e-09
-2.52252e-10
4.59982e-09
-2.47213e-10
4.84166e-09
-2.41836e-10
5.07781e-09
-2.36156e-10
5.30802e-09
-2.30208e-10
5.53205e-09
-2.24032e-10
5.74972e-09
-2.17667e-10
5.96087e-09
-2.11155e-10
6.16541e-09
-2.04534e-10
6.36325e-09
-1.97844e-10
6.55438e-09
-1.91122e-10
6.73878e-09
-1.844e-10
6.91649e-09
-1.77711e-10
7.08757e-09
-1.71083e-10
7.25211e-09
-1.64539e-10
7.41021e-09
-1.58101e-10
7.562e-09
-1.51788e-10
7.70761e-09
-1.45614e-10
7.8472e-09
-1.3959e-10
7.98093e-09
-1.33727e-10
8.10896e-09
-1.28032e-10
8.23147e-09
-1.22508e-10
8.34863e-09
-1.1716e-10
8.46062e-09
-1.11988e-10
8.56761e-09
-1.06992e-10
8.66978e-09
-1.02172e-10
8.76731e-09
-9.75254e-11
8.86036e-09
-9.30489e-11
8.94909e-09
-8.87394e-11
9.03369e-09
-8.45925e-11
9.11429e-09
-8.06043e-11
9.19106e-09
-7.67699e-11
9.26415e-09
-7.30844e-11
9.33369e-09
-6.95428e-11
9.39983e-09
-6.61403e-11
9.4627e-09
-6.28717e-11
9.52243e-09
-5.97322e-11
9.57915e-09
-5.67167e-11
9.63297e-09
-5.38208e-11
9.68401e-09
-5.10394e-11
9.73238e-09
-4.83681e-11
9.77818e-09
-4.58029e-11
9.82152e-09
-4.3339e-11
9.86249e-09
-4.09728e-11
9.90119e-09
-3.87003e-11
9.93771e-09
-3.65177e-11
9.97213e-09
-3.44215e-11
1.00045e-08
-3.24084e-11
1.0035e-08
-3.04749e-11
1.00636e-08
-2.86181e-11
1.00905e-08
-2.6835e-11
1.01156e-08
-2.51226e-11
1.01391e-08
-2.34783e-11
1.0161e-08
-2.18997e-11
1.01814e-08
-2.03838e-11
1.02003e-08
-1.89289e-11
1.02178e-08
-1.75321e-11
1.0234e-08
-1.61915e-11
1.02489e-08
-1.49049e-11
1.02626e-08
-1.36704e-11
1.02751e-08
-1.2486e-11
1.02864e-08
-1.13497e-11
1.02967e-08
-1.026e-11
1.03059e-08
-9.21476e-12
1.03141e-08
-8.21264e-12
1.03214e-08
-7.25181e-12
1.03277e-08
-6.33072e-12
1.03331e-08
-5.44805e-12
1.03377e-08
-4.60214e-12
1.03415e-08
-3.79168e-12
1.03445e-08
-3.01509e-12
1.03468e-08
-2.27134e-12
1.03484e-08
-1.55886e-12
1.03492e-08
-8.76581e-13
1.03495e-08
-2.23309e-13
1.03491e-08
4.02325e-13
1.03481e-08
1.00126e-12
1.03465e-08
1.5748e-12
1.03444e-08
2.1237e-12
1.03417e-08
2.6494e-12
1.03386e-08
3.15261e-12
1.03349e-08
3.63428e-12
1.03308e-08
4.09566e-12
1.03263e-08
4.53735e-12
1.03213e-08
4.96044e-12
1.0316e-08
5.36557e-12
1.03102e-08
5.75386e-12
1.03041e-08
6.12571e-12
1.02976e-08
6.48239e-12
1.02908e-08
6.82414e-12
1.02836e-08
7.15206e-12
1.02762e-08
7.46666e-12
1.02684e-08
7.76868e-12
1.02603e-08
8.05869e-12
1.0252e-08
8.33738e-12
1.02434e-08
8.60535e-12
1.02345e-08
8.86317e-12
1.02254e-08
9.1113e-12
1.02161e-08
9.35036e-12
1.02065e-08
9.58084e-12
1.01967e-08
9.80334e-12
1.01867e-08
1.0018e-11
1.01764e-08
1.02258e-11
1.0166e-08
1.04266e-11
1.01554e-08
1.06213e-11
1.01446e-08
1.08099e-11
1.01336e-08
1.09931e-11
1.01224e-08
1.1171e-11
1.01111e-08
1.13442e-11
1.00996e-08
1.15128e-11
1.00879e-08
1.16771e-11
1.00761e-08
1.18378e-11
1.00641e-08
1.19946e-11
1.00519e-08
1.21482e-11
1.00396e-08
1.22989e-11
1.00272e-08
1.24465e-11
1.00146e-08
1.25918e-11
1.00018e-08
1.27346e-11
9.98896e-09
1.28753e-11
9.97595e-09
1.30141e-11
9.9628e-09
1.31513e-11
9.94951e-09
1.32868e-11
9.93609e-09
1.34212e-11
9.92254e-09
1.35544e-11
9.90885e-09
1.36867e-11
9.89503e-09
1.38183e-11
9.88108e-09
1.39493e-11
9.867e-09
1.40802e-11
9.85279e-09
1.4211e-11
9.83845e-09
1.43419e-11
9.82398e-09
1.44733e-11
9.80937e-09
1.46054e-11
9.79463e-09
1.47387e-11
9.77976e-09
1.48737e-11
9.76475e-09
1.50107e-11
9.7496e-09
1.51503e-11
9.7343e-09
1.52934e-11
9.71886e-09
1.54411e-11
9.70327e-09
1.55942e-11
9.68751e-09
1.57544e-11
9.67159e-09
1.59235e-11
9.65549e-09
1.6104e-11
9.63919e-09
1.62988e-11
9.62268e-09
1.65118e-11
9.60593e-09
1.6748e-11
9.58891e-09
1.70138e-11
9.5716e-09
1.73174e-11
9.55393e-09
1.76701e-11
9.53584e-09
1.80857e-11
9.51726e-09
1.85834e-11
9.49807e-09
1.91884e-11
9.47813e-09
1.99342e-11
9.45727e-09
2.0867e-11
9.43522e-09
2.20503e-11
9.41164e-09
2.35732e-11
9.38608e-09
2.55637e-11
9.35787e-09
2.82113e-11
9.32606e-09
3.1806e-11
9.28925e-09
3.68143e-11
9.24522e-09
4.40335e-11
9.19027e-09
5.49462e-11
9.11762e-09
7.26536e-11
9.01276e-09
1.04858e-10
8.83647e-09
1.76286e-10
4.01022e-10
8.43545e-09
2.77928e-10
-5.54039e-10
5.57361e-10
-5.57047e-10
8.37881e-10
-5.59231e-10
1.11906e-09
-5.60561e-10
1.40045e-09
-5.6101e-10
1.68159e-09
-5.60556e-10
1.96202e-09
-5.59182e-10
2.24128e-09
-5.56875e-10
2.51887e-09
-5.53629e-10
2.79434e-09
-5.49441e-10
3.06719e-09
-5.44317e-10
3.33698e-09
-5.38266e-10
3.60323e-09
-5.31308e-10
3.8655e-09
-5.2347e-10
4.12336e-09
-5.14787e-10
4.37642e-09
-5.05307e-10
4.62429e-09
-4.95083e-10
4.86663e-09
-4.84179e-10
5.10314e-09
-4.72664e-10
5.33355e-09
-4.60616e-10
5.55763e-09
-4.48115e-10
5.77521e-09
-4.35245e-10
5.98614e-09
-4.22087e-10
6.19033e-09
-4.08725e-10
6.38772e-09
-3.95237e-10
6.5783e-09
-3.81697e-10
6.76207e-09
-3.68174e-10
6.93909e-09
-3.5473e-10
7.10943e-09
-3.41421e-10
7.27319e-09
-3.28294e-10
7.43048e-09
-3.15391e-10
7.58144e-09
-3.02748e-10
7.72621e-09
-2.90391e-10
7.86497e-09
-2.78345e-10
7.99787e-09
-2.66627e-10
8.12508e-09
-2.55249e-10
8.2468e-09
-2.44219e-10
8.36318e-09
-2.33544e-10
8.47442e-09
-2.23224e-10
8.58068e-09
-2.1326e-10
8.68216e-09
-2.03648e-10
8.77902e-09
-1.94383e-10
8.87143e-09
-1.85459e-10
8.95956e-09
-1.76869e-10
9.04357e-09
-1.68605e-10
9.12362e-09
-1.60657e-10
9.19987e-09
-1.53016e-10
9.27246e-09
-1.45672e-10
9.34153e-09
-1.38615e-10
9.40722e-09
-1.31836e-10
9.46968e-09
-1.25323e-10
9.52901e-09
-1.19067e-10
9.58535e-09
-1.13058e-10
9.63882e-09
-1.07287e-10
9.68952e-09
-1.01744e-10
9.73757e-09
-9.64202e-11
9.78308e-09
-9.13071e-11
9.82613e-09
-8.63964e-11
9.86684e-09
-8.16798e-11
9.90529e-09
-7.71496e-11
9.94157e-09
-7.27986e-11
9.97577e-09
-6.86196e-11
1.0008e-08
-6.46057e-11
1.00382e-08
-6.07507e-11
1.00667e-08
-5.70481e-11
1.00933e-08
-5.34924e-11
1.01183e-08
-5.00776e-11
1.01416e-08
-4.67985e-11
1.01634e-08
-4.36497e-11
1.01836e-08
-4.06267e-11
1.02024e-08
-3.77243e-11
1.02198e-08
-3.49382e-11
1.02359e-08
-3.22641e-11
1.02507e-08
-2.96975e-11
1.02642e-08
-2.72348e-11
1.02766e-08
-2.48718e-11
1.02879e-08
-2.2605e-11
1.0298e-08
-2.04306e-11
1.03072e-08
-1.83454e-11
1.03153e-08
-1.63457e-11
1.03225e-08
-1.44286e-11
1.03287e-08
-1.25908e-11
1.03341e-08
-1.08295e-11
1.03387e-08
-9.14144e-12
1.03424e-08
-7.52403e-12
1.03454e-08
-5.97438e-12
1.03476e-08
-4.49013e-12
1.03491e-08
-3.06824e-12
1.03499e-08
-1.70671e-12
1.03501e-08
-4.0273e-13
1.03496e-08
8.45826e-13
1.03486e-08
2.04132e-12
1.0347e-08
3.18586e-12
1.03448e-08
4.28165e-12
1.03422e-08
5.33076e-12
1.0339e-08
6.33519e-12
1.03353e-08
7.29696e-12
1.03312e-08
8.21765e-12
1.03266e-08
9.09956e-12
1.03216e-08
9.94396e-12
1.03163e-08
1.07529e-11
1.03105e-08
1.15278e-11
1.03043e-08
1.22705e-11
1.02978e-08
1.29824e-11
1.0291e-08
1.36649e-11
1.02838e-08
1.43196e-11
1.02763e-08
1.49477e-11
1.02686e-08
1.55508e-11
1.02605e-08
1.61299e-11
1.02521e-08
1.66865e-11
1.02435e-08
1.72215e-11
1.02347e-08
1.77363e-11
1.02255e-08
1.82319e-11
1.02162e-08
1.87095e-11
1.02066e-08
1.91698e-11
1.01968e-08
1.96141e-11
1.01868e-08
2.00432e-11
1.01765e-08
2.04579e-11
1.01661e-08
2.08593e-11
1.01555e-08
2.12481e-11
1.01446e-08
2.1625e-11
1.01336e-08
2.19909e-11
1.01225e-08
2.23464e-11
1.01111e-08
2.26923e-11
1.00996e-08
2.30292e-11
1.00879e-08
2.33578e-11
1.00761e-08
2.36786e-11
1.00641e-08
2.39922e-11
1.00519e-08
2.42992e-11
1.00396e-08
2.46001e-11
1.00272e-08
2.48954e-11
1.00146e-08
2.51855e-11
1.00019e-08
2.5471e-11
9.98898e-09
2.57523e-11
9.97597e-09
2.60298e-11
9.96281e-09
2.63038e-11
9.94953e-09
2.6575e-11
9.9361e-09
2.68435e-11
9.92255e-09
2.71098e-11
9.90886e-09
2.73743e-11
9.89504e-09
2.76375e-11
9.88109e-09
2.78995e-11
9.86701e-09
2.8161e-11
9.8528e-09
2.84223e-11
9.83846e-09
2.86841e-11
9.82398e-09
2.89468e-11
9.80938e-09
2.9211e-11
9.79464e-09
2.94774e-11
9.77977e-09
2.9747e-11
9.76476e-09
3.00208e-11
9.74961e-09
3.02999e-11
9.73431e-09
3.0586e-11
9.71887e-09
3.08807e-11
9.70328e-09
3.11866e-11
9.68753e-09
3.15065e-11
9.67161e-09
3.18443e-11
9.65551e-09
3.22044e-11
9.63921e-09
3.2593e-11
9.62271e-09
3.30177e-11
9.60597e-09
3.34884e-11
9.58896e-09
3.4018e-11
9.57166e-09
3.46227e-11
9.554e-09
3.53245e-11
9.53594e-09
3.61516e-11
9.51738e-09
3.71412e-11
9.49822e-09
3.83435e-11
9.47833e-09
3.9825e-11
9.45752e-09
4.1677e-11
9.43555e-09
4.40242e-11
9.41208e-09
4.70428e-11
9.38666e-09
5.09842e-11
9.35865e-09
5.62189e-11
9.32715e-09
6.33125e-11
9.29079e-09
7.31662e-11
9.24752e-09
8.73039e-11
9.19397e-09
1.08504e-10
9.12424e-09
1.42377e-10
9.02723e-09
2.01871e-10
8.88124e-09
3.22275e-10
6.16442e-10
8.66582e-09
2.81601e-10
-8.3564e-10
5.64708e-10
-8.40153e-10
8.48887e-10
-8.43411e-10
1.13369e-09
-8.45363e-10
1.41865e-09
-8.4597e-10
1.70329e-09
-8.45198e-10
1.98713e-09
-8.4302e-10
2.26967e-09
-8.39419e-10
2.55043e-09
-8.34384e-10
2.8289e-09
-8.27912e-10
3.10459e-09
-8.20008e-10
3.37701e-09
-8.10688e-10
3.64568e-09
-7.99977e-10
3.91013e-09
-7.87916e-10
4.1699e-09
-7.74561e-10
4.42458e-09
-7.59984e-10
4.67377e-09
-7.44273e-10
4.91712e-09
-7.27528e-10
5.15431e-09
-7.09863e-10
5.3851e-09
-6.914e-10
5.60925e-09
-6.72269e-10
5.82661e-09
-6.52602e-10
6.03705e-09
-6.3253e-10
6.24051e-09
-6.1218e-10
6.43695e-09
-5.91676e-10
6.62638e-09
-5.71131e-10
6.80886e-09
-5.50648e-10
6.98445e-09
-5.30321e-10
7.15325e-09
-5.1023e-10
7.31541e-09
-4.90446e-10
7.47104e-09
-4.71028e-10
7.62032e-09
-4.52025e-10
7.7634e-09
-4.33476e-10
7.90047e-09
-4.15412e-10
8.0317e-09
-3.97857e-10
8.15728e-09
-3.80826e-10
8.27739e-09
-3.64329e-10
8.39222e-09
-3.48372e-10
8.50195e-09
-3.32955e-10
8.60676e-09
-3.18076e-10
8.70684e-09
-3.03729e-10
8.80237e-09
-2.89905e-10
8.8935e-09
-2.76593e-10
8.98041e-09
-2.63782e-10
9.06327e-09
-2.51459e-10
9.14222e-09
-2.39609e-10
9.21742e-09
-2.28218e-10
9.28902e-09
-2.1727e-10
9.35715e-09
-2.06751e-10
9.42196e-09
-1.96644e-10
9.48358e-09
-1.86935e-10
9.54212e-09
-1.77609e-10
9.59771e-09
-1.68651e-10
9.65047e-09
-1.60046e-10
9.70051e-09
-1.51781e-10
9.74793e-09
-1.43842e-10
9.79284e-09
-1.36217e-10
9.83534e-09
-1.28893e-10
9.87551e-09
-1.21857e-10
9.91346e-09
-1.15099e-10
9.94927e-09
-1.08608e-10
9.98302e-09
-1.02372e-10
1.00148e-08
-9.63828e-11
1.00447e-08
-9.06296e-11
1.00727e-08
-8.51036e-11
1.0099e-08
-7.9796e-11
1.01237e-08
-7.46984e-11
1.01467e-08
-6.9803e-11
1.01681e-08
-6.51019e-11
1.01881e-08
-6.05878e-11
1.02066e-08
-5.62539e-11
1.02238e-08
-5.20933e-11
1.02396e-08
-4.80993e-11
1.02542e-08
-4.42662e-11
1.02675e-08
-4.05876e-11
1.02797e-08
-3.70579e-11
1.02908e-08
-3.36716e-11
1.03008e-08
-3.04233e-11
1.03097e-08
-2.73079e-11
1.03177e-08
-2.43203e-11
1.03247e-08
-2.14559e-11
1.03308e-08
-1.87099e-11
1.03361e-08
-1.60778e-11
1.03405e-08
-1.35553e-11
1.03441e-08
-1.11383e-11
1.0347e-08
-8.82245e-12
1.03491e-08
-6.60399e-12
1.03505e-08
-4.47903e-12
1.03512e-08
-2.44376e-12
1.03513e-08
-4.94877e-13
1.03508e-08
1.37149e-12
1.03497e-08
3.15851e-12
1.0348e-08
4.86947e-12
1.03458e-08
6.50773e-12
1.0343e-08
8.07617e-12
1.03398e-08
9.57787e-12
1.03361e-08
1.10157e-11
1.03319e-08
1.23926e-11
1.03273e-08
1.3711e-11
1.03223e-08
1.49738e-11
1.03168e-08
1.61835e-11
1.0311e-08
1.73425e-11
1.03048e-08
1.84532e-11
1.02983e-08
1.95178e-11
1.02914e-08
2.05387e-11
1.02842e-08
2.15179e-11
1.02767e-08
2.24576e-11
1.02689e-08
2.33597e-11
1.02608e-08
2.42262e-11
1.02524e-08
2.50587e-11
1.02438e-08
2.58594e-11
1.02349e-08
2.66297e-11
1.02258e-08
2.73713e-11
1.02164e-08
2.80859e-11
1.02068e-08
2.87749e-11
1.0197e-08
2.94399e-11
1.01869e-08
3.00821e-11
1.01767e-08
3.0703e-11
1.01662e-08
3.13038e-11
1.01556e-08
3.18858e-11
1.01448e-08
3.24502e-11
1.01338e-08
3.29981e-11
1.01226e-08
3.35304e-11
1.01112e-08
3.40485e-11
1.00997e-08
3.4553e-11
1.0088e-08
3.50452e-11
1.00762e-08
3.55257e-11
1.00642e-08
3.59955e-11
1.0052e-08
3.64554e-11
1.00397e-08
3.69062e-11
1.00272e-08
3.73486e-11
1.00146e-08
3.77834e-11
1.00019e-08
3.82112e-11
9.98902e-09
3.86327e-11
9.976e-09
3.90485e-11
9.96284e-09
3.94593e-11
9.94955e-09
3.98656e-11
9.93613e-09
4.02681e-11
9.92257e-09
4.06673e-11
9.90888e-09
4.10637e-11
9.89506e-09
4.1458e-11
9.88111e-09
4.18509e-11
9.86703e-09
4.22429e-11
9.85281e-09
4.26347e-11
9.83847e-09
4.30271e-11
9.824e-09
4.34207e-11
9.80939e-09
4.38166e-11
9.79465e-09
4.4216e-11
9.77978e-09
4.46199e-11
9.76477e-09
4.50301e-11
9.74962e-09
4.54482e-11
9.73433e-09
4.58765e-11
9.7189e-09
4.63178e-11
9.70331e-09
4.67756e-11
9.68756e-09
4.72542e-11
9.67164e-09
4.77592e-11
9.65555e-09
4.82975e-11
9.63927e-09
4.88779e-11
9.62277e-09
4.95118e-11
9.60605e-09
5.0214e-11
9.58906e-09
5.10032e-11
9.57178e-09
5.19039e-11
9.55416e-09
5.29483e-11
9.53613e-09
5.4178e-11
9.51762e-09
5.56484e-11
9.49853e-09
5.74328e-11
9.47873e-09
5.96301e-11
9.45803e-09
6.23737e-11
9.43621e-09
6.58474e-11
9.41294e-09
7.03082e-11
9.3878e-09
7.61226e-11
9.3602e-09
8.38274e-11
9.32927e-09
9.42343e-11
9.29382e-09
1.08623e-10
9.252e-09
1.29117e-10
9.20103e-09
1.5948e-10
9.13647e-09
2.0694e-10
9.05158e-09
2.8676e-10
8.93968e-09
4.34174e-10
7.31786e-10
8.82433e-09
2.87203e-10
-1.12284e-09
5.75915e-10
-1.12887e-09
8.6568e-10
-1.13318e-09
1.15602e-09
-1.1357e-09
1.44644e-09
-1.13639e-09
1.73642e-09
-1.13518e-09
2.02545e-09
-1.13205e-09
2.31302e-09
-1.12698e-09
2.59859e-09
-1.11996e-09
2.88166e-09
-1.11098e-09
3.16169e-09
-1.10004e-09
3.43816e-09
-1.08716e-09
3.71054e-09
-1.07236e-09
3.97833e-09
-1.0557e-09
4.24102e-09
-1.03726e-09
4.49817e-09
-1.01714e-09
4.74936e-09
-9.95458e-10
4.99421e-09
-9.72377e-10
5.2324e-09
-9.48059e-10
5.46369e-09
-9.22684e-10
5.68786e-09
-8.96442e-10
5.90478e-09
-8.69524e-10
6.11437e-09
-8.42119e-10
6.3166e-09
-8.14407e-10
6.51148e-09
-7.86558e-10
6.69908e-09
-7.58727e-10
6.87948e-09
-7.31053e-10
7.05282e-09
-7.03657e-10
7.21923e-09
-6.76645e-10
7.37889e-09
-6.50104e-10
7.53197e-09
-6.24107e-10
7.67866e-09
-5.98713e-10
7.81915e-09
-5.73967e-10
7.95364e-09
-5.49904e-10
8.08233e-09
-5.26548e-10
8.20542e-09
-5.03917e-10
8.32311e-09
-4.82017e-10
8.43559e-09
-4.60852e-10
8.54306e-09
-4.4042e-10
8.64569e-09
-4.20712e-10
8.74368e-09
-4.01718e-10
8.8372e-09
-3.83425e-10
8.92643e-09
-3.65817e-10
9.01152e-09
-3.48876e-10
9.09264e-09
-3.32583e-10
9.16995e-09
-3.16918e-10
9.2436e-09
-3.01861e-10
9.31372e-09
-2.87392e-10
9.38046e-09
-2.73489e-10
9.44394e-09
-2.60131e-10
9.5043e-09
-2.47298e-10
9.56167e-09
-2.3497e-10
9.61614e-09
-2.23128e-10
9.66785e-09
-2.11752e-10
9.71689e-09
-2.00824e-10
9.76338e-09
-1.90326e-10
9.8074e-09
-1.80242e-10
9.84906e-09
-1.70553e-10
9.88845e-09
-1.61246e-10
9.92566e-09
-1.52305e-10
9.96076e-09
-1.43714e-10
9.99385e-09
-1.35462e-10
1.0025e-08
-1.27533e-10
1.00543e-08
-1.19917e-10
1.00818e-08
-1.126e-10
1.01076e-08
-1.05572e-10
1.01317e-08
-9.88211e-11
1.01542e-08
-9.23369e-11
1.01752e-08
-8.61095e-11
1.01948e-08
-8.01293e-11
1.02129e-08
-7.43869e-11
1.02297e-08
-6.88735e-11
1.02452e-08
-6.35809e-11
1.02594e-08
-5.85006e-11
1.02724e-08
-5.36247e-11
1.02843e-08
-4.89458e-11
1.02951e-08
-4.44569e-11
1.03048e-08
-4.01502e-11
1.03135e-08
-3.60196e-11
1.03213e-08
-3.20582e-11
1.03281e-08
-2.82599e-11
1.0334e-08
-2.46183e-11
1.0339e-08
-2.11275e-11
1.03433e-08
-1.77821e-11
1.03467e-08
-1.45759e-11
1.03494e-08
-1.15042e-11
1.03514e-08
-8.56124e-12
1.03526e-08
-5.74238e-12
1.03532e-08
-3.04225e-12
1.03532e-08
-4.5639e-13
1.03525e-08
2.0199e-12
1.03513e-08
4.39108e-12
1.03495e-08
6.66158e-12
1.03472e-08
8.83562e-12
1.03443e-08
1.0917e-11
1.0341e-08
1.29101e-11
1.03372e-08
1.48186e-11
1.03329e-08
1.66462e-11
1.03283e-08
1.83964e-11
1.03232e-08
2.00729e-11
1.03177e-08
2.16788e-11
1.03118e-08
2.32176e-11
1.03055e-08
2.46924e-11
1.0299e-08
2.61061e-11
1.0292e-08
2.74619e-11
1.02848e-08
2.87624e-11
1.02772e-08
3.00105e-11
1.02694e-08
3.12087e-11
1.02613e-08
3.23597e-11
1.02529e-08
3.34659e-11
1.02442e-08
3.45295e-11
1.02353e-08
3.55531e-11
1.02261e-08
3.65387e-11
1.02167e-08
3.74883e-11
1.02071e-08
3.84041e-11
1.01972e-08
3.92881e-11
1.01872e-08
4.01418e-11
1.01769e-08
4.09672e-11
1.01664e-08
4.17662e-11
1.01558e-08
4.25401e-11
1.01449e-08
4.32906e-11
1.01339e-08
4.40194e-11
1.01227e-08
4.47275e-11
1.01113e-08
4.54166e-11
1.00998e-08
4.6088e-11
1.00881e-08
4.67427e-11
1.00763e-08
4.73823e-11
1.00642e-08
4.80074e-11
1.00521e-08
4.86196e-11
1.00398e-08
4.92196e-11
1.00273e-08
4.98085e-11
1.00147e-08
5.03873e-11
1.0002e-08
5.09569e-11
9.98907e-09