/*--------------------------------*- C++ -*----------------------------------*\
  =========                 |
  \\      /  F ield         | OpenFOAM: The Open Source CFD Toolbox
   \\    /   O peration     | Website:  https://openfoam.org
    \\  /    A nd           | Version:  11
     \\/     M anipulation  |
\*---------------------------------------------------------------------------*/
FoamFile
{
    format      ascii;
    class       volVectorField;
    location    "55";
    object      U;
}
// * * * * * * * * * * * * * * * * * * * * * * * * * * * * * * * * * * * * * //

dimensions      [0 1 -1 0 0 0 0];

internalField   nonuniform List<vector> 
2048
(
(1.00014 -0.000622108 0)
(1.00266 -0.00187753 0)
(1.00764 -0.00315651 0)
(1.01522 -0.00447083 0)
(1.0255 -0.00582851 0)
(1.03854 -0.0072302 0)
(1.0544 -0.00866641 0)
(1.07313 -0.0101155 0)
(1.09475 -0.0115429 0)
(1.11918 -0.0129007 0)
(1.14624 -0.0141287 0)
(1.17561 -0.015157 0)
(1.20684 -0.0159119 0)
(1.23933 -0.0163245 0)
(1.27235 -0.016343 0)
(1.30508 -0.0159438 0)
(1.33667 -0.015138 0)
(1.3663 -0.013971 0)
(1.39327 -0.0125111 0)
(1.41703 -0.0108304 0)
(1.43717 -0.00899115 0)
(1.45345 -0.00704117 0)
(1.46568 -0.00501899 0)
(1.4738 -0.00295999 0)
(1.47775 -0.000901434 0)
(1.47759 0.00111077 0)
(1.47347 0.00302186 0)
(1.46562 0.0047654 0)
(1.45446 0.00626532 0)
(1.44054 0.0074421 0)
(1.42457 0.00822197 0)
(1.40741 0.00854195 0)
(1.39006 0.0083565 0)
(1.37357 0.00764088 0)
(1.35903 0.00639267 0)
(1.3475 0.00463651 0)
(1.33999 0.00242128 0)
(1.33733 -0.000164442 0)
(1.34018 -0.00301247 0)
(1.34899 -0.00598933 0)
(1.36386 -0.00893117 0)
(1.38458 -0.0116526 0)
(1.41053 -0.0139567 0)
(1.44068 -0.0156529 0)
(1.47364 -0.0165675 0)
(1.50771 -0.0165652 0)
(1.54091 -0.0155678 0)
(1.5712 -0.0135709 0)
(1.59654 -0.0106589 0)
(1.61521 -0.00699711 0)
(1.62572 -0.0028225 0)
(1.62749 0.00156253 0)
(1.62012 0.00588496 0)
(1.60431 0.00983616 0)
(1.58059 0.0132461 0)
(1.55088 0.01589 0)
(1.51616 0.0178307 0)
(1.47872 0.0188598 0)
(1.43977 0.0193652 0)
(1.40025 0.018889 0)
(1.36398 0.018415 0)
(1.32471 0.0165988 0)
(1.30005 0.0159297 0)
(1.25492 0.0125093 0)
(1.00014 -0.00186134 0)
(1.00264 -0.00561755 0)
(1.00756 -0.00944637 0)
(1.01507 -0.0133863 0)
(1.02528 -0.017464 0)
(1.03826 -0.0216834 0)
(1.05409 -0.0260182 0)
(1.07286 -0.0304043 0)
(1.0946 -0.0347373 0)
(1.11927 -0.0388708 0)
(1.14669 -0.0426192 0)
(1.17659 -0.0457681 0)
(1.20849 -0.0480895 0)
(1.24177 -0.0493685 0)
(1.27565 -0.0494408 0)
(1.30926 -0.048228 0)
(1.34167 -0.0457645 0)
(1.37201 -0.0421991 0)
(1.39954 -0.0377513 0)
(1.42371 -0.0326478 0)
(1.44416 -0.0270768 0)
(1.46064 -0.0211813 0)
(1.47301 -0.015073 0)
(1.48118 -0.00885428 0)
(1.4851 -0.00263208 0)
(1.4848 0.00346122 0)
(1.48041 0.00926048 0)
(1.47215 0.0145631 0)
(1.46042 0.0191336 0)
(1.44577 0.0227276 0)
(1.42894 0.0251166 0)
(1.41082 0.0261098 0)
(1.39244 0.0255648 0)
(1.3749 0.0234052 0)
(1.35935 0.0196287 0)
(1.3469 0.0143032 0)
(1.3386 0.00759271 0)
(1.33538 -0.000280368 0)
(1.33793 -0.0089797 0)
(1.34673 -0.0180848 0)
(1.36197 -0.0270939 0)
(1.38343 -0.0354425 0)
(1.4105 -0.042529 0)
(1.44214 -0.0477637 0)
(1.47688 -0.0506048 0)
(1.5129 -0.0506279 0)
(1.5481 -0.0475883 0)
(1.58027 -0.0414732 0)
(1.60718 -0.0325409 0)
(1.62698 -0.0213132 0)
(1.63807 -0.00852734 0)
(1.63981 0.00490689 0)
(1.63181 0.0181305 0)
(1.61484 0.0301938 0)
(1.58959 0.0405665 0)
(1.55814 0.0485681 0)
(1.52161 0.0543833 0)
(1.48242 0.0574034 0)
(1.44189 0.0588168 0)
(1.40098 0.0572627 0)
(1.36359 0.0557278 0)
(1.32333 0.0501518 0)
(1.29806 0.0480726 0)
(1.25215 0.0376766 0)
(1.00014 -0.00307876 0)
(1.00257 -0.00929444 0)
(1.00738 -0.0156401 0)
(1.01475 -0.0221885 0)
(1.02479 -0.0289928 0)
(1.03762 -0.0360673 0)
(1.05338 -0.0433761 0)
(1.07219 -0.0508177 0)
(1.09415 -0.0582186 0)
(1.11927 -0.0653256 0)
(1.14744 -0.0718112 0)
(1.17837 -0.0772945 0)
(1.21162 -0.0813675 0)
(1.24652 -0.083645 0)
(1.28219 -0.0838262 0)
(1.31761 -0.081758 0)
(1.35171 -0.0775057 0)
(1.38347 -0.0713596 0)
(1.41211 -0.0637343 0)
(1.43711 -0.055035 0)
(1.45815 -0.0455813 0)
(1.47504 -0.0356054 0)
(1.48766 -0.025284 0)
(1.49594 -0.0147727 0)
(1.4998 -0.00423376 0)
(1.49924 0.00612354 0)
(1.49432 0.0160264 0)
(1.48524 0.0251271 0)
(1.47236 0.0330108 0)
(1.45623 0.0392449 0)
(1.43765 0.0434265 0)
(1.41756 0.0452186 0)
(1.39707 0.0443711 0)
(1.37739 0.0407482 0)
(1.35975 0.0343407 0)
(1.3454 0.0252705 0)
(1.33549 0.013795 0)
(1.33103 0.000291839 0)
(1.33289 -0.0146862 0)
(1.34164 -0.030435 0)
(1.35757 -0.0460812 0)
(1.38051 -0.0606397 0)
(1.40984 -0.0730705 0)
(1.44449 -0.082337 0)
(1.48284 -0.0874774 0)
(1.52287 -0.0877132 0)
(1.56218 -0.0825761 0)
(1.59821 -0.0720283 0)
(1.62839 -0.0565046 0)
(1.65053 -0.0369245 0)
(1.66284 -0.0146023 0)
(1.66454 0.00884057 0)
(1.65527 0.0318047 0)
(1.63596 0.0526268 0)
(1.60757 0.0703758 0)
(1.57254 0.083931 0)
(1.53231 0.0936119 0)
(1.48957 0.0984599 0)
(1.44583 0.10052 0)
(1.40214 0.0975504 0)
(1.3625 0.0946417 0)
(1.32029 0.0849447 0)
(1.29383 0.0812351 0)
(1.24639 0.0634744 0)
(1.00013 -0.00425197 0)
(1.00247 -0.0128455 0)
(1.00709 -0.0216426 0)
(1.0142 -0.0307615 0)
(1.02394 -0.0402934 0)
(1.03649 -0.0502752 0)
(1.05206 -0.0606756 0)
(1.07085 -0.0713665 0)
(1.09307 -0.0821154 0)
(1.11882 -0.0925536 0)
(1.14806 -0.102184 0)
(1.18058 -0.110409 0)
(1.21592 -0.11657 0)
(1.25335 -0.12006 0)
(1.29183 -0.120401 0)
(1.33012 -0.117346 0)
(1.36684 -0.111032 0)
(1.40077 -0.101979 0)
(1.43105 -0.0908671 0)
(1.45723 -0.0783067 0)
(1.4791 -0.0647476 0)
(1.49657 -0.0504986 0)
(1.50957 -0.0357801 0)
(1.51803 -0.0207717 0)
(1.52183 -0.00566724 0)
(1.52092 0.00926269 0)
(1.51527 0.0236389 0)
(1.50497 0.0369451 0)
(1.49035 0.0485548 0)
(1.47196 0.057814 0)
(1.45066 0.0641151 0)
(1.4275 0.06694 0)
(1.40372 0.0659057 0)
(1.38068 0.0607973 0)
(1.35978 0.0515896 0)
(1.34243 0.0384605 0)
(1.32992 0.0217568 0)
(1.32348 0.00205862 0)
(1.32412 -0.0198899 0)
(1.33263 -0.0431097 0)
(1.34946 -0.0663373 0)
(1.37452 -0.0880972 0)
(1.40719 -0.106828 0)
(1.44628 -0.120955 0)
(1.48997 -0.128998 0)
(1.53593 -0.129742 0)
(1.58134 -0.122414 0)
(1.62318 -0.106939 0)
(1.65843 -0.0839252 0)
(1.68442 -0.0547974 0)
(1.69896 -0.0215032 0)
(1.70096 0.0135588 0)
(1.68999 0.0477623 0)
(1.66721 0.0785527 0)
(1.63411 0.104464 0)
(1.59359 0.123921 0)
(1.54771 0.137397 0)
(1.49955 0.143739 0)
(1.45096 0.145942 0)
(1.4031 0.140965 0)
(1.36011 0.136147 0)
(1.31504 0.121728 0)
(1.28687 0.116005 0)
(1.23722 0.0902653 0)
(1.00012 -0.00535577 0)
(1.00231 -0.0161984 0)
(1.00664 -0.0273394 0)
(1.01333 -0.03896 0)
(1.02258 -0.051204 0)
(1.03464 -0.0641503 0)
(1.04981 -0.0777921 0)
(1.06842 -0.0919889 0)
(1.09081 -0.106479 0)
(1.11726 -0.120775 0)
(1.14788 -0.134209 0)
(1.18256 -0.145881 0)
(1.22084 -0.154741 0)
(1.26188 -0.159832 0)
(1.30441 -0.160373 0)
(1.34679 -0.155998 0)
(1.38716 -0.147072 0)
(1.42397 -0.13454 0)
(1.45634 -0.119452 0)
(1.48399 -0.102645 0)
(1.50689 -0.0846864 0)
(1.52508 -0.0659413 0)
(1.53858 -0.0466338 0)
(1.54732 -0.0268928 0)
(1.55115 -0.00689531 0)
(1.54987 0.0130496 0)
(1.54332 0.0324471 0)
(1.53145 0.050564 0)
(1.51447 0.0665082 0)
(1.49299 0.0793613 0)
(1.46793 0.0882633 0)
(1.44048 0.0924741 0)
(1.41207 0.0914458 0)
(1.38426 0.0848706 0)
(1.35872 0.0726909 0)
(1.33706 0.0550896 0)
(1.32081 0.0325321 0)
(1.3114 0.00574374 0)
(1.31004 -0.0243411 0)
(1.3178 -0.0563075 0)
(1.33534 -0.0884811 0)
(1.36267 -0.1189 0)
(1.39901 -0.145368 0)
(1.44286 -0.165617 0)
(1.49209 -0.177471 0)
(1.54413 -0.179168 0)
(1.59603 -0.169575 0)
(1.64462 -0.148522 0)
(1.68654 -0.116807 0)
(1.71859 -0.0763871 0)
(1.738 -0.0300621 0)
(1.74267 0.0188766 0)
(1.7315 0.0664919 0)
(1.70562 0.109065 0)
(1.66715 0.144383 0)
(1.61968 0.170391 0)
(1.56644 0.187662 0)
(1.51105 0.195087 0)
(1.45613 0.196644 0)
(1.40279 0.188799 0)
(1.35547 0.181223 0)
(1.30681 0.161177 0)
(1.27645 0.152918 0)
(1.22404 0.118353 0)
(1.00011 -0.00635587 0)
(1.00207 -0.0192545 0)
(1.00596 -0.032568 0)
(1.01203 -0.0465711 0)
(1.02052 -0.0614718 0)
(1.03177 -0.077431 0)
(1.04621 -0.0944837 0)
(1.06431 -0.112497 0)
(1.08662 -0.131221 0)
(1.11365 -0.150034 0)
(1.14577 -0.168179 0)
(1.18315 -0.184372 0)
(1.22539 -0.197026 0)
(1.27146 -0.204567 0)
(1.31971 -0.20549 0)
(1.36774 -0.199238 0)
(1.41287 -0.186774 0)
(1.45322 -0.169836 0)
(1.48805 -0.150007 0)
(1.51735 -0.128362 0)
(1.54138 -0.105586 0)
(1.56036 -0.0820725 0)
(1.57445 -0.0579901 0)
(1.58364 -0.0332914 0)
(1.58764 -0.00803062 0)
(1.58609 0.0175372 0)
(1.57855 0.0427655 0)
(1.56475 0.066574 0)
(1.54481 0.0877245 0)
(1.51933 0.104984 0)
(1.48934 0.117166 0)
(1.45622 0.123241 0)
(1.42164 0.122461 0)
(1.38746 0.114429 0)
(1.35559 0.099094 0)
(1.32792 0.0766956 0)
(1.30625 0.0476955 0)
(1.29218 0.0129034 0)
(1.28728 -0.0267238 0)
(1.29284 -0.0692404 0)
(1.30943 -0.112218 0)
(1.33665 -0.152981 0)
(1.37306 -0.18862 0)
(1.41668 -0.216165 0)
(1.4657 -0.232867 0)
(1.51848 -0.236596 0)
(1.57317 -0.225866 0)
(1.62723 -0.200171 0)
(1.6773 -0.160058 0)
(1.71952 -0.107597 0)
(1.75009 -0.0459681 0)
(1.76496 0.0199117 0)
(1.76101 0.084779 0)
(1.73812 0.1429 0)
(1.69822 0.190383 0)
(1.64546 0.224386 0)
(1.58496 0.245717 0)
(1.52146 0.253805 0)
(1.45934 0.253723 0)
(1.39945 0.242072 0)
(1.34722 0.230588 0)
(1.29447 0.203866 0)
(1.26155 0.192458 0)
(1.20609 0.147962 0)
(1.00009 -0.00720737 0)
(1.00173 -0.0218874 0)
(1.005 -0.0371076 0)
(1.01015 -0.0532999 0)
(1.01751 -0.0707134 0)
(1.02749 -0.0897068 0)
(1.0407 -0.110333 0)
(1.05776 -0.132563 0)
(1.07952 -0.156157 0)
(1.10674 -0.180264 0)
(1.14018 -0.204224 0)
(1.18062 -0.226173 0)
(1.22782 -0.244185 0)
(1.28074 -0.255623 0)
(1.33723 -0.257297 0)
(1.39329 -0.248426 0)
(1.44478 -0.231233 0)
(1.48943 -0.208714 0)
(1.52688 -0.183148 0)
(1.55761 -0.155899 0)
(1.58225 -0.127799 0)
(1.60141 -0.0992465 0)
(1.61561 -0.0702242 0)
(1.62502 -0.0403584 0)
(1.62922 -0.00955085 0)
(1.62755 0.0222715 0)
(1.61909 0.0543911 0)
(1.60316 0.0851797 0)
(1.57979 0.112879 0)
(1.54955 0.135809 0)
(1.51348 0.152347 0)
(1.47319 0.16108 0)
(1.4307 0.161014 0)
(1.38825 0.15163 0)
(1.34808 0.132896 0)
(1.3122 0.105225 0)
(1.28249 0.069362 0)
(1.26036 0.0261411 0)
(1.24768 -0.023109 0)
(1.2461 -0.0767658 0)
(1.25493 -0.131346 0)
(1.27149 -0.182157 0)
(1.29337 -0.225601 0)
(1.32045 -0.259204 0)
(1.35472 -0.281126 0)
(1.3981 -0.289512 0)
(1.45087 -0.282206 0)
(1.51051 -0.257343 0)
(1.57265 -0.214292 0)
(1.63187 -0.154101 0)
(1.68288 -0.079596 0)
(1.71998 0.00374737 0)
(1.73772 0.0893954 0)
(1.73258 0.169046 0)
(1.70412 0.235277 0)
(1.65558 0.282473 0)
(1.59363 0.310765 0)
(1.52479 0.320291 0)
(1.45666 0.317917 0)
(1.39015 0.301472 0)
(1.33341 0.28449 0)
(1.27625 0.250171 0)
(1.24079 0.23478 0)
(1.18255 0.179036 0)
(1.00006 -0.00785508 0)
(1.00127 -0.0239468 0)
(1.00366 -0.0406734 0)
(1.00757 -0.0587657 0)
(1.01325 -0.0783631 0)
(1.02135 -0.10036 0)
(1.03256 -0.124567 0)
(1.04773 -0.151589 0)
(1.06831 -0.180925 0)
(1.09493 -0.211511 0)
(1.12944 -0.242948 0)
(1.17303 -0.271799 0)
(1.22554 -0.296558 0)
(1.28789 -0.313113 0)
(1.35722 -0.315419 0)
(1.42529 -0.30295 0)
(1.48473 -0.279896 0)
(1.5329 -0.250602 0)
(1.57042 -0.218182 0)
(1.59895 -0.184492 0)
(1.6202 -0.150731 0)
(1.63582 -0.117252 0)
(1.64719 -0.0834702 0)
(1.65487 -0.0484341 0)
(1.6585 -0.0119453 0)
(1.65724 0.0263949 0)
(1.64901 0.0660503 0)
(1.63226 0.105087 0)
(1.60667 0.14111 0)
(1.57253 0.171632 0)
(1.53067 0.194266 0)
(1.48275 0.207057 0)
(1.43113 0.208745 0)
(1.37844 0.198776 0)
(1.32733 0.177104 0)
(1.28021 0.144141 0)
(1.23856 0.100831 0)
(1.20304 0.0487278 0)
(1.17427 -0.00912606 0)
(1.15187 -0.0695899 0)
(1.13269 -0.129768 0)
(1.11336 -0.183499 0)
(1.09664 -0.229574 0)
(1.09174 -0.269586 0)
(1.10767 -0.303191 0)
(1.14742 -0.326326 0)
(1.20846 -0.332794 0)
(1.28392 -0.317444 0)
(1.3662 -0.278055 0)
(1.4476 -0.21571 0)
(1.5221 -0.133766 0)
(1.5852 -0.0368928 0)
(1.63185 0.0682107 0)
(1.65615 0.171856 0)
(1.65388 0.263056 0)
(1.62464 0.331434 0)
(1.57398 0.373885 0)
(1.50897 0.389489 0)
(1.44047 0.386992 0)
(1.37041 0.365955 0)
(1.31126 0.342488 0)
(1.24989 0.300215 0)
(1.21302 0.279398 0)
(1.1525 0.211269 0)
(0.999998 -0.0082392 0)
(1.00072 -0.0252685 0)
(1.00188 -0.0429333 0)
(1.0043 -0.0625223 0)
(1.00743 -0.0836549 0)
(1.01313 -0.10855 0)
(1.02069 -0.13577 0)
(1.03315 -0.168466 0)
(1.05076 -0.204148 0)
(1.07578 -0.243717 0)
(1.11182 -0.28634 0)
(1.15769 -0.323686 0)
(1.21659 -0.357675 0)
(1.29502 -0.381062 0)
(1.38353 -0.383014 0)
(1.4632 -0.364833 0)
(1.52285 -0.333395 0)
(1.56216 -0.294338 0)
(1.58528 -0.2523 0)
(1.59719 -0.21029 0)
(1.60216 -0.1706 0)
(1.60397 -0.133304 0)
(1.60538 -0.096262 0)
(1.60751 -0.0576864 0)
(1.60932 -0.0161328 0)
(1.61057 0.028388 0)
(1.60744 0.0751307 0)
(1.59658 0.122874 0)
(1.57625 0.168986 0)
(1.5454 0.209789 0)
(1.50392 0.241567 0)
(1.45305 0.261316 0)
(1.39516 0.267175 0)
(1.33303 0.25852 0)
(1.26901 0.235908 0)
(1.20509 0.200743 0)
(1.144 0.15392 0)
(1.08828 0.0954779 0)
(1.03225 0.0293697 0)
(0.96241 -0.0324105 0)
(0.88185 -0.0825267 0)
(0.809316 -0.132855 0)
(0.764397 -0.193271 0)
(0.759402 -0.262974 0)
(0.79397 -0.331112 0)
(0.859944 -0.384225 0)
(0.947631 -0.411364 0)
(1.0473 -0.406484 0)
(1.15023 -0.368468 0)
(1.24882 -0.300929 0)
(1.33795 -0.20947 0)
(1.41526 -0.0997223 0)
(1.47908 0.0223511 0)
(1.52513 0.148015 0)
(1.54793 0.265229 0)
(1.54326 0.359596 0)
(1.51291 0.423253 0)
(1.4616 0.451782 0)
(1.40096 0.454325 0)
(1.33364 0.431199 0)
(1.27611 0.402508 0)
(1.21259 0.352595 0)
(1.17682 0.324918 0)
(1.11462 0.244435 0)
(0.999893 -0.00831049 0)
(1.00012 -0.0256771 0)
(0.999596 -0.0435699 0)
(1.00048 -0.0640731 0)
(0.999752 -0.0857517 0)
(1.00317 -0.113235 0)
(1.00367 -0.141842 0)
(1.01419 -0.181432 0)
(1.02184 -0.221492 0)
(1.04754 -0.27598 0)
(1.08025 -0.333926 0)
(1.12837 -0.385922 0)
(1.20507 -0.448561 0)
(1.30693 -0.485018 0)
(1.40164 -0.477671 0)
(1.46172 -0.44 0)
(1.48324 -0.386778 0)
(1.47742 -0.327005 0)
(1.45454 -0.268189 0)
(1.42501 -0.21432 0)
(1.3947 -0.169631 0)
(1.36988 -0.132159 0)
(1.35512 -0.0973583 0)
(1.35146 -0.0620764 0)
(1.35553 -0.0230462 0)
(1.36611 0.0214136 0)
(1.3785 0.0708889 0)
(1.38783 0.124905 0)
(1.38908 0.180785 0)
(1.37834 0.233741 0)
(1.35335 0.278408 0)
(1.31377 0.310165 0)
(1.26111 0.325921 0)
(1.19854 0.324412 0)
(1.12986 0.305747 0)
(1.0566 0.270718 0)
(0.97331 0.222629 0)
(0.868285 0.170997 0)
(0.738421 0.125508 0)
(0.606072 0.0801279 0)
(0.502962 0.0162885 0)
(0.447843 -0.0759303 0)
(0.443366 -0.188418 0)
(0.478995 -0.303779 0)
(0.544448 -0.405592 0)
(0.631866 -0.48118 0)
(0.735116 -0.521476 0)
(0.848009 -0.52135 0)
(0.963434 -0.480339 0)
(1.07367 -0.403245 0)
(1.17237 -0.298327 0)
(1.25627 -0.173973 0)
(1.32538 -0.0366649 0)
(1.37921 0.106936 0)
(1.41492 0.246391 0)
(1.42781 0.365837 0)
(1.41664 0.453276 0)
(1.38237 0.499663 0)
(1.33492 0.512542 0)
(1.27622 0.491313 0)
(1.22451 0.460697 0)
(1.16252 0.40406 0)
(1.13075 0.369542 0)
(1.06763 0.278149 0)
(0.999765 -0.0080463 0)
(0.999474 -0.0249901 0)
(0.996944 -0.0423768 0)
(0.996226 -0.0628603 0)
(0.990527 -0.0840813 0)
(0.991912 -0.113038 0)
(0.981318 -0.140987 0)
(0.992159 -0.18748 0)
(0.975587 -0.225985 0)
(1.01278 -0.305053 0)
(1.00812 -0.367187 0)
(1.08469 -0.467794 0)
(1.17909 -0.606967 0)
(1.2662 -0.632606 0)
(1.29718 -0.570288 0)
(1.26202 -0.47535 0)
(1.1868 -0.376573 0)
(1.10028 -0.285725 0)
(1.01243 -0.210092 0)
(0.936819 -0.148142 0)
(0.870082 -0.108404 0)
(0.826976 -0.0827242 0)
(0.81192 -0.0631482 0)
(0.819483 -0.044508 0)
(0.843238 -0.0213921 0)
(0.879326 0.0118771 0)
(0.921147 0.0578671 0)
(0.963204 0.113609 0)
(0.998207 0.175939 0)
(1.01998 0.239482 0)
(1.02448 0.297442 0)
(1.0096 0.343271 0)
(0.974642 0.372006 0)
(0.919178 0.381392 0)
(0.84138 0.373341 0)
(0.738069 0.355003 0)
(0.609946 0.334301 0)
(0.469572 0.309204 0)
(0.340707 0.264592 0)
(0.247558 0.184075 0)
(0.200123 0.064543 0)
(0.19282 -0.0764622 0)
(0.21773 -0.226342 0)
(0.269574 -0.368927 0)
(0.342407 -0.491126 0)
(0.432194 -0.582484 0)
(0.536352 -0.634292 0)
(0.65174 -0.640214 0)
(0.773145 -0.598253 0)
(0.892621 -0.512911 0)
(1.00215 -0.394009 0)
(1.09571 -0.253057 0)
(1.1715 -0.0991211 0)
(1.23017 0.0603881 0)
(1.27204 0.21748 0)
(1.29501 0.357505 0)
(1.29783 0.466556 0)
(1.27903 0.531707 0)
(1.24619 0.557753 0)
(1.19937 0.542011 0)
(1.15647 0.513137 0)
(1.09996 0.450999 0)
(1.07418 0.411686 0)
(1.0112 0.311803 0)
(0.999688 -0.00743943 0)
(0.998687 -0.0230735 0)
(0.99433 -0.0392772 0)
(0.991392 -0.0583957 0)
(0.981144 -0.0785119 0)
(0.978831 -0.106344 0)
(0.957526 -0.133107 0)
(0.965321 -0.181283 0)
(0.91865 -0.21565 0)
(0.968036 -0.316027 0)
(0.869669 -0.355186 0)
(1.03815 -0.577249 0)
(0.985993 -0.730271 0)
(0.964216 -0.643491 0)
(0.854595 -0.487169 0)
(0.693014 -0.337027 0)
(0.541818 -0.215653 0)
(0.425363 -0.130352 0)
(0.338038 -0.0787012 0)
(0.278537 -0.0381982 0)
(0.233283 -0.0484428 0)
(0.242848 -0.0679231 0)
(0.278528 -0.0797378 0)
(0.319913 -0.0825959 0)
(0.365631 -0.0720627 0)
(0.415345 -0.0438563 0)
(0.465434 0.00346335 0)
(0.514456 0.0664329 0)
(0.559461 0.140176 0)
(0.593145 0.218624 0)
(0.609952 0.294301 0)
(0.605496 0.36015 0)
(0.576118 0.411285 0)
(0.519521 0.44653 0)
(0.436025 0.467707 0)
(0.331245 0.475915 0)
(0.217935 0.466322 0)
(0.11376 0.426764 0)
(0.0350652 0.345948 0)
(-0.00698061 0.222349 0)
(-0.0096928 0.066284 0)
(0.0180019 -0.11 0)
(0.0670629 -0.286058 0)
(0.132864 -0.446862 0)
(0.208839 -0.582456 0)
(0.292653 -0.685028 0)
(0.385304 -0.7469 0)
(0.48859 -0.760437 0)
(0.601751 -0.720804 0)
(0.718759 -0.630405 0)
(0.831261 -0.499125 0)
(0.931262 -0.340951 0)
(1.01363 -0.168352 0)
(1.07752 0.00883762 0)
(1.12439 0.182662 0)
(1.15406 0.340059 0)
(1.16682 0.467304 0)
(1.16077 0.549584 0)
(1.14176 0.589212 0)
(1.10778 0.581311 0)
(1.07528 0.556943 0)
(1.02733 0.490773 0)
(1.00801 0.450569 0)
(0.94638 0.344585 0)
(0.99969 -0.00647031 0)
(0.997766 -0.0199505 0)
(0.992078 -0.0342166 0)
(0.986144 -0.0506482 0)
(0.972961 -0.068903 0)
(0.963994 -0.092614 0)
(0.937426 -0.118414 0)
(0.93132 -0.159032 0)
(0.872405 -0.195233 0)
(0.896701 -0.283909 0)
(0.729167 -0.313123 0)
(0.919141 -0.605847 0)
(0.338193 -0.403024 0)
(0.241152 -0.245507 0)
(0.121322 -0.186846 0)
(0.0579039 -0.145519 0)
(0.0321539 -0.105951 0)
(0.0201249 -0.0751183 0)
(0.0140365 -0.05155 0)
(0.00681498 -0.0312548 0)
(0.0260038 -0.109426 0)
(0.0522575 -0.13347 0)
(0.080221 -0.136531 0)
(0.0978653 -0.132447 0)
(0.1153 -0.116522 0)
(0.1342 -0.085158 0)
(0.154724 -0.0357552 0)
(0.176503 0.0328693 0)
(0.198311 0.115801 0)
(0.215411 0.207102 0)
(0.222279 0.299736 0)
(0.213598 0.386534 0)
(0.185643 0.461491 0)
(0.137442 0.520343 0)
(0.0718806 0.559264 0)
(-0.00296151 0.572643 0)
(-0.074957 0.551279 0)
(-0.129456 0.485528 0)
(-0.152996 0.371186 0)
(-0.139879 0.21357 0)
(-0.0986596 0.027413 0)
(-0.0392288 -0.17119 0)
(0.0324496 -0.359288 0)
(0.106516 -0.525241 0)
(0.177396 -0.662938 0)
(0.244377 -0.768765 0)
(0.311496 -0.837695 0)
(0.386232 -0.861141 0)
(0.47431 -0.829732 0)
(0.573854 -0.741125 0)
(0.677007 -0.603383 0)
(0.774119 -0.431892 0)
(0.857899 -0.242453 0)
(0.925243 -0.047214 0)
(0.97619 0.142959 0)
(1.011 0.315831 0)
(1.03141 0.458311 0)
(1.03598 0.555327 0)
(1.02937 0.607668 0)
(1.00788 0.608787 0)
(0.986374 0.590474 0)
(0.948521 0.522309 0)
(0.934726 0.486194 0)
(0.875589 0.37556 0)
(0.999693 -0.00513641 0)
(0.996956 -0.0157997 0)
(0.99012 -0.0272107 0)
(0.981522 -0.0401298 0)
(0.965877 -0.054986 0)
(0.95065 -0.0732448 0)
(0.920528 -0.0953592 0)
(0.898966 -0.124685 0)
(0.838886 -0.160868 0)
(0.818825 -0.214126 0)
(0.676756 -0.270311 0)
(0.740531 -0.400129 0)
(0.316572 -0.275821 0)
(0.30501 -0.262309 0)
(0.212819 -0.240617 0)
(0.133699 -0.192426 0)
(0.082879 -0.138775 0)
(0.0509034 -0.0948383 0)
(0.0335432 -0.063057 0)
(0.0177871 -0.0393468 0)
(0.0362297 -0.114392 0)
(0.0105898 -0.132193 0)
(0.00956478 -0.132678 0)
(-0.00304832 -0.128074 0)
(-0.0140647 -0.113792 0)
(-0.0249399 -0.0850386 0)
(-0.0334305 -0.0384798 0)
(-0.0397202 0.0282813 0)
(-0.0440994 0.112759 0)
(-0.0484492 0.209704 0)
(-0.0558337 0.311929 0)
(-0.0699561 0.411422 0)
(-0.0935239 0.500183 0)
(-0.12711 0.570634 0)
(-0.16766 0.615038 0)
(-0.207451 0.623957 0)
(-0.234396 0.58635 0)
(-0.235758 0.494982 0)
(-0.205398 0.35069 0)
(-0.147974 0.165279 0)
(-0.0755168 -0.0411215 0)
(0.00494537 -0.245449 0)
(0.0875493 -0.432721 0)
(0.163511 -0.593409 0)
(0.227162 -0.722941 0)
(0.2759 -0.822396 0)
(0.313077 -0.892303 0)
(0.349733 -0.925813 0)
(0.399393 -0.908757 0)
(0.467846 -0.83074 0)
(0.549835 -0.694956 0)
(0.634701 -0.516778 0)
(0.713278 -0.314813 0)
(0.779697 -0.104886 0)
(0.832319 0.0997124 0)
(0.871312 0.286063 0)
(0.898264 0.441131 0)
(0.912127 0.550543 0)
(0.916454 0.614306 0)
(0.906648 0.624771 0)
(0.895994 0.61325 0)
(0.86808 0.546116 0)
(0.858007 0.519047 0)
(0.802166 0.403853 0)
(0.999659 -0.00350926 0)
(0.996427 -0.0108294 0)
(0.988515 -0.0185932 0)
(0.978335 -0.0274315 0)
(0.960038 -0.0373104 0)
(0.941677 -0.0497988 0)
(0.905857 -0.0639005 0)
(0.879129 -0.0843373 0)
(0.807004 -0.105278 0)
(0.781918 -0.143314 0)
(0.6183 -0.166384 0)
(0.689133 -0.254918 0)
(0.294555 -0.152978 0)
(0.303877 -0.120573 0)
(0.219512 -0.106478 0)
(0.143756 -0.09014 0)
(0.0933051 -0.0716782 0)
(0.0598916 -0.0549016 0)
(0.0413671 -0.0414284 0)
(0.0229879 -0.0313733 0)
(0.0407028 -0.101723 0)
(-0.00348712 -0.114595 0)
(-0.0189649 -0.115321 0)
(-0.0475393 -0.109323 0)
(-0.0743522 -0.094163 0)
(-0.101643 -0.0656049 0)
(-0.12718 -0.0205746 0)
(-0.150633 0.0428373 0)
(-0.171731 0.124229 0)
(-0.189766 0.220192 0)
(-0.205932 0.324247 0)
(-0.222094 0.428036 0)
(-0.239612 0.52201 0)
(-0.257886 0.595688 0)
(-0.272695 0.637419 0)
(-0.275821 0.634443 0)
(-0.257448 0.576013 0)
(-0.211965 0.458696 0)
(-0.143184 0.290866 0)
(-0.0618202 0.0911838 0)
(0.0243865 -0.120249 0)
(0.111027 -0.323466 0)
(0.193623 -0.505717 0)
(0.266953 -0.655727 0)
(0.325151 -0.769008 0)
(0.361992 -0.8506 0)
(0.375713 -0.909631 0)
(0.375372 -0.946689 0)
(0.380298 -0.946288 0)
(0.407063 -0.887604 0)
(0.457423 -0.763985 0)
(0.521377 -0.587903 0)
(0.587587 -0.380176 0)
(0.648329 -0.160587 0)
(0.700109 0.0549745 0)
(0.741706 0.251878 0)
(0.774122 0.416807 0)
(0.796089 0.536513 0)
(0.80998 0.610302 0)
(0.810901 0.629969 0)
(0.810277 0.625934 0)
(0.790537 0.563924 0)
(0.782312 0.549655 0)
(0.729878 0.429042 0)
(0.99965 -0.00171139 0)
(0.996115 -0.00526292 0)
(0.987672 -0.0090125 0)
(0.976496 -0.0130745 0)
(0.956983 -0.0175736 0)
(0.936433 -0.0227439 0)
(0.898469 -0.0287645 0)
(0.867334 -0.0362371 0)
(0.792469 -0.0448957 0)
(0.759566 -0.0571234 0)
(0.595986 -0.0669456 0)
(0.6562 -0.0945717 0)
(0.276431 -0.0539187 0)
(0.296272 -0.0495719 0)
(0.222038 -0.0502531 0)
(0.151581 -0.0457278 0)
(0.101535 -0.0388679 0)
(0.0664802 -0.0328292 0)
(0.0463366 -0.0286717 0)
(0.0259273 -0.0269689 0)
(0.0439972 -0.0843281 0)
(-0.00752746 -0.0873488 0)
(-0.0290417 -0.0859063 0)
(-0.0631299 -0.0792584 0)
(-0.0949734 -0.0634605 0)
(-0.126884 -0.0352233 0)
(-0.157778 0.00832337 0)
(-0.186718 0.0683735 0)
(-0.212571 0.14568 0)
(-0.234055 0.237584 0)
(-0.250766 0.338414 0)
(-0.262715 0.439739 0)
(-0.269388 0.530699 0)
(-0.268339 0.598242 0)
(-0.254484 0.627885 0)
(-0.221436 0.60637 0)
(-0.165456 0.526562 0)
(-0.0895263 0.389656 0)
(-0.00314754 0.211182 0)
(0.0832491 0.00923591 0)
(0.167659 -0.199924 0)
(0.24848 -0.400685 0)
(0.322819 -0.577617 0)
(0.387822 -0.71655 0)
(0.438687 -0.811122 0)
(0.468694 -0.867219 0)
(0.470732 -0.901656 0)
(0.44554 -0.928113 0)
(0.410547 -0.938331 0)
(0.391918 -0.903703 0)
(0.403429 -0.802435 0)
(0.439686 -0.638704 0)
(0.488078 -0.433942 0)
(0.538577 -0.211096 0)
(0.586271 0.0106131 0)
(0.628732 0.214383 0)
(0.665347 0.386402 0)
(0.694056 0.514446 0)
(0.716213 0.596792 0)
(0.726684 0.625523 0)
(0.734425 0.630298 0)
(0.720114 0.578061 0)
(0.712402 0.578336 0)
(0.662505 0.451676 0)
(0.999649 0.000165648 0)
(0.996092 0.000507579 0)
(0.987607 0.000989122 0)
(0.976364 0.00181801 0)
(0.956762 0.00313121 0)
(0.936097 0.00530071 0)
(0.898002 0.00841848 0)
(0.866701 0.0133214 0)
(0.79168 0.0195095 0)
(0.758547 0.0295424 0)
(0.594906 0.038081 0)
(0.654673 0.0607675 0)
(0.275293 0.0367201 0)
(0.29519 0.0335242 0)
(0.220902 0.0303056 0)
(0.150394 0.021096 0)
(0.100272 0.0093124 0)
(0.065122 -0.00170252 0)
(0.0446275 -0.010936 0)
(0.0244679 -0.0205539 0)
(0.0394899 -0.0644719 0)
(-0.00941447 -0.0580728 0)
(-0.0300682 -0.0544228 0)
(-0.0615352 -0.0479339 0)
(-0.0902697 -0.0323557 0)
(-0.118364 -0.00474149 0)
(-0.145174 0.0372183 0)
(-0.169781 0.0947103 0)
(-0.19073 0.167816 0)
(-0.20625 0.254019 0)
(-0.214783 0.348021 0)
(-0.214761 0.441141 0)
(-0.203992 0.52171 0)
(-0.179323 0.575698 0)
(-0.13687 0.588005 0)
(-0.0739332 0.547648 0)
(0.00530311 0.451561 0)
(0.093461 0.306897 0)
(0.183036 0.128031 0)
(0.266198 -0.0703994 0)
(0.342482 -0.274868 0)
(0.412633 -0.471541 0)
(0.474824 -0.641895 0)
(0.525473 -0.769882 0)
(0.561216 -0.847855 0)
(0.579307 -0.879763 0)
(0.573875 -0.883633 0)
(0.537549 -0.884869 0)
(0.476428 -0.891625 0)
(0.417489 -0.87783 0)
(0.387634 -0.806067 0)
(0.391807 -0.664686 0)
(0.418653 -0.471695 0)
(0.456377 -0.253223 0)
(0.497604 -0.0315026 0)
(0.538524 0.174944 0)
(0.577435 0.351234 0)
(0.611284 0.485571 0)
(0.640354 0.575059 0)
(0.65866 0.613185 0)
(0.672314 0.628877 0)
(0.660698 0.590615 0)
(0.653036 0.605331 0)
(0.60409 0.47363 0)
(0.999656 0.00198385 0)
(0.996359 0.00613873 0)
(0.988324 0.0106794 0)
(0.977941 0.0163291 0)
(0.959392 0.02307 0)
(0.940667 0.0325933 0)
(0.904503 0.0438597 0)
(0.877192 0.061714 0)
(0.804766 0.0803516 0)
(0.778711 0.115946 0)
(0.615255 0.138284 0)
(0.684227 0.221012 0)
(0.290927 0.135272 0)
(0.300444 0.10468 0)
(0.216018 0.0870871 0)
(0.140222 0.0662447 0)
(0.0896449 0.0429485 0)
(0.0560638 0.0213517 0)
(0.0365978 0.00320169 0)
(0.0190882 -0.0145333 0)
(0.0268156 -0.0459316 0)
(-0.0121116 -0.032517 0)
(-0.0258889 -0.0276972 0)
(-0.0481964 -0.0218526 0)
(-0.0670195 -0.00748649 0)
(-0.0845558 0.0187264 0)
(-0.10024 0.0586007 0)
(-0.11315 0.11272 0)
(-0.121717 0.180629 0)
(-0.123661 0.25922 0)
(-0.116597 0.343599 0)
(-0.0982704 0.424742 0)
(-0.0659257 0.490964 0)
(-0.0177264 0.528577 0)
(0.0475193 0.524506 0)
(0.128582 0.470913 0)
(0.219027 0.367023 0)
(0.310139 0.223781 0)
(0.395677 0.0511056 0)
(0.472319 -0.14075 0)
(0.541153 -0.340046 0)
(0.601928 -0.530186 0)
(0.651045 -0.69068 0)
(0.684005 -0.804827 0)
(0.698124 -0.86658 0)
(0.694593 -0.880128 0)
(0.674937 -0.859223 0)
(0.632625 -0.83062 0)
(0.560665 -0.81924 0)
(0.474325 -0.815024 0)
(0.406526 -0.774189 0)
(0.377079 -0.664169 0)
(0.380498 -0.491624 0)
(0.403181 -0.284378 0)
(0.436054 -0.0687238 0)
(0.473948 0.135722 0)
(0.51359 0.31303 0)
(0.551159 0.451308 0)
(0.585648 0.546875 0)
(0.609551 0.59533 0)
(0.626537 0.624362 0)
(0.615916 0.602789 0)
(0.608674 0.630932 0)
(0.559211 0.497423 0)
(0.999689 0.00364963 0)
(0.996846 0.0112305 0)
(0.989807 0.0195043 0)
(0.980883 0.0293218 0)
(0.964819 0.0411274 0)
(0.94903 0.0565066 0)
(0.918282 0.0758666 0)
(0.895924 0.102708 0)
(0.835032 0.136614 0)
(0.813983 0.187661 0)
(0.67101 0.242733 0)
(0.733436 0.36764 0)
(0.3106 0.257226 0)
(0.299106 0.244972 0)
(0.20666 0.21984 0)
(0.127603 0.166931 0)
(0.0768231 0.107986 0)
(0.0448876 0.0591589 0)
(0.0263656 0.0236005 0)
(0.0120205 -0.0054494 0)
(0.00921235 -0.0293968 0)
(-0.0154969 -0.016701 0)
(-0.018084 -0.0141791 0)
(-0.0256167 -0.00913086 0)
(-0.0293033 0.00399085 0)
(-0.030935 0.0285397 0)
(-0.0303856 0.0659313 0)
(-0.026577 0.116199 0)
(-0.0179799 0.17799 0)
(-0.00185022 0.248115 0)
(0.0245368 0.321067 0)
(0.0630713 0.388558 0)
(0.115967 0.43948 0)
(0.18361 0.461393 0)
(0.264675 0.444603 0)
(0.355047 0.383839 0)
(0.448178 0.280632 0)
(0.536568 0.143033 0)
(0.616565 -0.0215157 0)
(0.688071 -0.205683 0)
(0.751397 -0.397544 0)
(0.803335 -0.577784 0)
(0.838042 -0.723833 0)
(0.851175 -0.819282 0)
(0.841876 -0.861327 0)
(0.813097 -0.858629 0)
(0.771887 -0.822734 0)
(0.720289 -0.771774 0)
(0.647145 -0.73557 0)
(0.549905 -0.725924 0)
(0.45402 -0.709332 0)
(0.391728 -0.636666 0)
(0.370636 -0.494291 0)
(0.378021 -0.305633 0)
(0.401849 -0.100704 0)
(0.435595 0.0978055 0)
(0.47479 0.272989 0)
(0.514707 0.413085 0)
(0.552727 0.514383 0)
(0.579849 0.574278 0)
(0.598315 0.618578 0)
(0.588586 0.614351 0)
(0.58294 0.65505 0)
(0.53259 0.524733 0)
(0.999685 0.00504013 0)
(0.997617 0.0155608 0)
(0.991655 0.0268124 0)
(0.985283 0.0402783 0)
(0.971529 0.0555963 0)
(0.961819 0.0765803 0)
(0.934389 0.0997048 0)
(0.927227 0.138011 0)
(0.867261 0.172012 0)
(0.889916 0.258415 0)
(0.722062 0.287446 0)
(0.907593 0.573024 0)
(0.331592 0.385804 0)
(0.237176 0.231439 0)
(0.118086 0.169817 0)
(0.0544861 0.124409 0)
(0.0283134 0.0809835 0)
(0.016226 0.0471722 0)
(0.00955353 0.0220939 0)
(0.0050942 0.000840075 0)
(0.0017929 -0.0132281 0)
(-0.00457146 -0.00723421 0)
(0.00520042 -0.00920105 0)
(0.0141596 -0.00778763 0)
(0.0259182 0.0017676 0)
(0.040708 0.0228909 0)
(0.0591116 0.0562341 0)
(0.081584 0.101289 0)
(0.109402 0.155722 0)
(0.144571 0.216351 0)
(0.189429 0.277269 0)
(0.245842 0.331277 0)
(0.314767 0.368557 0)
(0.395455 0.378871 0)
(0.484951 0.35456 0)
(0.57815 0.292213 0)
(0.669432 0.193636 0)
(0.754454 0.0639239 0)
(0.832055 -0.0922057 0)
(0.902238 -0.268303 0)
(0.961903 -0.449843 0)
(1.00371 -0.61453 0)
(1.02039 -0.739809 0)
(1.00972 -0.812294 0)
(0.975404 -0.832621 0)
(0.923243 -0.813626 0)
(0.860745 -0.769156 0)
(0.796271 -0.708463 0)
(0.724675 -0.651865 0)
(0.631181 -0.624891 0)
(0.522553 -0.61795 0)
(0.432365 -0.581421 0)
(0.385341 -0.47785 0)
(0.377245 -0.315818 0)
(0.392915 -0.126888 0)
(0.422173 0.0618931 0)
(0.459785 0.232246 0)
(0.50044 0.372623 0)
(0.539949 0.479785 0)
(0.568568 0.551536 0)
(0.58802 0.611865 0)
(0.580637 0.6237 0)
(0.578554 0.676714 0)
(0.528773 0.555786 0)
(0.999682 0.00608212 0)
(0.998502 0.0189139 0)
(0.993819 0.0322639 0)
(0.990322 0.0485801 0)
(0.979429 0.0659347 0)
(0.97609 0.0911667 0)
(0.953966 0.115513 0)
(0.959998 0.161277 0)
(0.912868 0.19415 0)
(0.958812 0.291239 0)
(0.861776 0.332032 0)
(1.02364 0.546071 0)
(0.973206 0.703645 0)
(0.954717 0.621612 0)
(0.848587 0.466461 0)
(0.686999 0.313043 0)
(0.530353 0.184826 0)
(0.404084 0.0920602 0)
(0.305408 0.0345805 0)
(0.236074 -0.00322229 0)
(0.178204 -0.0270002 0)
(0.141665 -0.0339171 0)