/*--------------------------------*- C++ -*----------------------------------*\
  =========                 |
  \\      /  F ield         | OpenFOAM: The Open Source CFD Toolbox
   \\    /   O peration     | Website:  https://openfoam.org
    \\  /    A nd           | Version:  10
     \\/     M anipulation  |
\*---------------------------------------------------------------------------*/
FoamFile
{
    format      ascii;
    class       volVectorField;
    location    "25";
    object      Ua;
}
// * * * * * * * * * * * * * * * * * * * * * * * * * * * * * * * * * * * * * //

dimensions      [0 1 -1 0 0 0 0];

internalField   nonuniform List<vector> 
100
(
(0.000201424 0 0)
(0.000402216 0 0)
(0.000400945 0 0)
(0.000399664 0 0)
(0.000398377 0 0)
(0.000397087 0 0)
(0.000395793 0 0)
(0.000394495 0 0)
(0.000393195 0 0)
(0.000391891 0 0)
(0.000390584 0 0)
(0.000389272 0 0)
(0.000387956 0 0)
(0.000386636 0 0)
(0.000385311 0 0)
(0.00038398 0 0)
(0.000382643 0 0)
(0.0003813 0 0)
(0.00037995 0 0)
(0.000378593 0 0)
(0.000377228 0 0)
(0.000375854 0 0)
(0.000374471 0 0)
(0.000373078 0 0)
(0.000371675 0 0)
(0.000370259 0 0)
(0.000368831 0 0)
(0.000367388 0 0)
(0.000365929 0 0)
(0.000364453 0 0)
(0.000362957 0 0)
(0.000361439 0 0)
(0.000359895 0 0)
(0.000358322 0 0)
(0.000356713 0 0)
(0.000355064 0 0)
(0.000353364 0 0)
(0.000351604 0 0)
(0.000349766 0 0)
(0.00034783 0 0)
(0.000345764 0 0)
(0.00034352 0 0)
(0.000341027 0 0)
(0.00033816 0 0)
(0.000334702 0 0)
(0.000330207 0 0)
(0.000323601 0 0)
(0.000311438 0 0)
(0.000272918 0 0)
(0.000122662 0 0)
(1.39256e-06 0 0)
(1.0842e-19 0 0)
(0 0 0)
(0 0 0)
(0 0 0)
(0 0 0)
(0 0 0)
(0 0 0)
(0 0 0)
(0 0 0)
(0 0 0)
(0 0 0)
(0 0 0)
(0 0 0)
(0 0 0)
(0 0 0)
(0 0 0)
(0 0 0)
(0 0 0)
(0 0 0)
(0 0 0)
(0 0 0)
(0 0 0)
(0 0 0)
(0 0 0)
(0 0 0)
(0 0 0)
(0 0 0)
(0 0 0)
(0 0 0)
(0 0 0)
(0 0 0)
(0 0 0)
(0 0 0)
(0 0 0)
(0 0 0)
(0 0 0)
(0 0 0)
(0 0 0)
(0 0 0)
(0 0 0)
(0 0 0)
(0 0 0)
(0 0 0)
(0 0 0)
(0 0 0)
(0 0 0)
(0 0 0)
(0 0 0)
(0 0 0)
)
;

boundaryField
{
    inlet
    {
        type            fixedValue;
        value           uniform (0 0 0);
    }
    outlet
    {
        type            zeroGradient;
    }
    yzfaces
    {
        type            empty;
    }
}


// ************************************************************************* //
