/*--------------------------------*- C++ -*----------------------------------*\
  =========                 |
  \\      /  F ield         | OpenFOAM: The Open Source CFD Toolbox
   \\    /   O peration     | Website:  https://openfoam.org
    \\  /    A nd           | Version:  10
     \\/     M anipulation  |
\*---------------------------------------------------------------------------*/
FoamFile
{
    format      ascii;
    class       volScalarField;
    location    "0.052";
    object      pMean;
}
// * * * * * * * * * * * * * * * * * * * * * * * * * * * * * * * * * * * * * //

dimensions      [0 2 -2 0 0 0 0];

internalField   nonuniform List<scalar> 
12225
(
15.068
14.223
13.7313
13.4706
13.2727
13.0758
12.875
12.679
12.4934
12.3181
12.1515
11.9887
11.827
11.6521
11.4533
11.1575
10.7176
9.69341
14.8348
14.1929
13.7293
13.4615
13.2623
13.0671
12.8672
12.6714
12.4852
12.3096
12.1408
11.9776
11.8098
11.6368
11.4204
11.1562
10.6984
10.0593
14.7959
14.1889
13.7371
13.4599
13.2559
13.0611
12.8621
12.6659
12.4791
12.3015
12.1313
11.9627
11.792
11.6052
11.3892
11.1036
10.707
10.1459
14.6492
14.1406
13.727
13.4494
13.2418
13.0484
12.8516
12.6563
12.4685
12.2899
12.1167
11.9455
11.7678
11.5763
11.3507
11.0717
10.7059
10.2432
14.5516
14.1065
13.7258
13.4484
13.2341
13.039
12.8437
12.6492
12.4609
12.2802
12.1045
11.9292
11.7475
11.5506
11.3244
11.0545
10.7255
10.3444
14.4544
14.0575
13.7092
13.439
13.2213
13.0248
12.8308
12.6376
12.4493
12.2674
12.0896
11.9114
11.7265
11.5271
11.3039
11.0473
10.753
10.4277
14.3647
14.0052
13.691
13.4319
13.2116
13.0122
12.8189
12.6272
12.439
12.2558
12.0759
11.8953
11.7086
11.5094
11.2914
11.0495
10.7833
10.4991
14.3084
13.961
13.6678
13.4209
13.2011
12.999
12.8052
12.6147
12.4271
12.2431
12.0616
11.8794
11.6921
11.4947
11.2835
11.0558
10.8127
10.5598
14.2139
13.8988
13.6357
13.404
13.1873
12.984
12.7899
12.6005
12.4138
12.2299
12.0478
11.8651
11.6785
11.4844
11.2804
11.0654
10.8412
10.6122
14.1767
13.8625
13.61
13.3898
13.1765
12.9717
12.7765
12.5874
12.4015
12.2176
12.0349
11.8521
11.6667
11.4764
11.2795
11.0759
10.8671
10.6569
14.1019
13.8035
13.5702
13.3627
13.1564
12.9545
12.7601
12.5715
12.3863
12.2032
12.0215
11.8401
11.6571
11.4711
11.2812
11.0876
10.8917
10.696
14.0505
13.7741
13.5503
13.3476
13.1443
12.9432
12.7482
12.5594
12.3749
12.1926
12.0115
11.831
11.6502
11.4679
11.2839
11.0982
10.9121
10.7272
14.0016
13.7268
13.5113
13.3184
13.1227
12.9256
12.7321
12.5438
12.36
12.179
11.9997
11.8212
11.643
11.4647
11.2862
11.1076
10.9298
10.754
14.0106
13.7051
13.4809
13.2951
13.1073
12.9131
12.7192
12.5305
12.3473
12.1675
11.9897
11.8133
11.638
11.4638
11.2906
11.1188
10.9489
10.7816
13.9584
13.6532
13.4359
13.2599
13.0792
12.8891
12.6977
12.5108
12.3293
12.1517
11.9764
11.803
11.6315
11.462
11.2946
11.1295
10.967
10.8074
13.9107
13.6172
13.4098
13.2384
13.0602
12.8725
12.6832
12.4978
12.3174
12.1415
11.9688
11.7988
11.6313
11.4665
11.3045
11.1456
10.9898
10.8376
13.8349
13.5637
13.3678
13.2019
13.0286
12.8462
12.6616
12.4798
12.3026
12.1297
11.9602
11.7939
11.6306
11.4706
11.3139
11.1606
11.0107
10.8643
13.8221
13.542
13.3441
13.1818
13.0134
12.834
12.6508
12.4705
12.2956
12.1258
11.9598
11.7971
11.6379
11.4822
11.3303
11.182
11.0375
10.8966
13.8787
13.5619
13.3427
13.1729
13.0031
12.825
12.6438
12.4653
12.292
12.124
11.9606
11.8013
11.6459
11.4945
11.347
11.2035
11.064
10.9282
13.8098
13.5354
13.3396
13.1757
13.0048
12.8252
12.6443
12.4675
12.2967
12.1312
11.9701
11.8131
11.6602
11.5114
11.3669
11.2265
11.09
10.9573
13.8217
13.5581
13.3634
13.192
13.014
12.8312
12.6499
12.4737
12.3034
12.1383
11.9779
11.8219
11.6706
11.5237
11.3814
11.2434
11.1096
10.9798
13.874
13.5989
13.3923
13.2139
13.0321
12.8461
12.6626
12.4856
12.315
12.1498
11.9896
11.8341
11.6836
11.5379
11.3968
11.2602
11.1278
10.9995
13.9876
13.6509
13.4103
13.2228
13.0402
12.8544
12.6702
12.492
12.3207
12.1554
11.9956
11.8409
11.6913
11.5467
11.4069
11.2717
11.141
11.0146
14.0617
13.7232
13.4628
13.2538
13.0602
12.8714
12.6866
12.5074
12.3344
12.1677
12.0071
11.8523
11.703
11.5589
11.4197
11.2852
11.1553
11.0298
14.0249
13.7259
13.4751
13.2586
13.0593
12.8708
12.6881
12.5097
12.3365
12.1697
12.0096
11.8555
11.707
11.5637
11.4254
11.2919
11.163
11.0387
14.1834
13.8084
13.5136
13.2811
13.0777
12.8882
12.7041
12.5236
12.3484
12.1803
12.0194
11.8651
11.7166
11.5733
11.4352
11.302
11.1736
11.0498
14.2285
13.8271
13.5109
13.275
13.0765
12.8902
12.7063
12.5249
12.3493
12.1815
12.0212
11.8675
11.7194
11.5766
11.439
11.3064
11.1787
11.0557
14.3089
13.8799
13.5352
13.2887
13.0901
12.9034
12.7171
12.5336
12.3569
12.1887
12.0282
11.8744
11.7262
11.5835
11.4461
11.3138
11.1865
11.0635
14.3494
13.8853
13.5278
13.2864
13.0923
12.9058
12.7185
12.5345
12.358
12.19
12.0297
11.8759
11.7278
11.5852
11.448
11.3162
11.1895
11.0677
14.5366
13.9168
13.5261
13.2918
13.1007
12.9125
12.7236
12.5391
12.3624
12.1944
12.034
11.8801
11.732
11.5894
11.4523
11.3207
11.1944
11.0738
8.11117
7.94744
7.76475
7.65209
7.69864
7.89502
8.13576
8.27549
8.20892
7.90986
7.4064
6.76329
6.06537
5.39072
4.79998
4.33436
4.01662
3.85294
3.83358
3.93713
4.13216
4.38377
4.65064
4.90477
5.09846
5.21885
5.21506
5.10835
4.96159
4.80108
4.59598
4.27883
3.81596
3.25438
2.67711
2.12865
1.62164
1.03045
0.218284
-0.76361
-1.70222
-2.48933
-3.10403
-3.62202
-4.14899
-4.63167
-5.02247
-5.33557
-5.46756
-5.47214
-5.60691
-5.82282
-6.08315
-6.40954
-6.78002
-7.12986
-7.39759
-7.73054
-8.20609
-8.77038
-9.32992
-9.8407
-10.2635
-10.5747
-10.7519
-10.7819
-10.6565
-10.3746
-9.94046
-9.36677
-8.66941
-7.8621
-6.95561
-5.962
-4.89553
-3.77183
-2.60655
-1.41407
-0.206215
1.00839
2.22476
3.44139
4.65973
5.88337
7.11701
8.3652
9.63146
10.9175
12.2223
13.5419
14.868
16.1881
17.4869
18.7471
19.9518
21.0863
22.1404
23.108
23.9879
24.7824
25.4963
26.136
26.7076
27.2172
27.67
28.0706
28.4224
28.7286
28.9915
29.2135
29.3967
29.5429
29.6538
29.731
29.7757
29.7893
29.7727
29.7272
29.6541
29.5548
29.4314
29.286
29.1214
28.9405
28.7467
28.5432
28.3332
28.1199
27.906
27.6939
27.4857
27.2831
27.0874
26.8995
26.7204
26.5503
26.3898
26.2388
26.0976
25.9658
25.8433
25.7298
25.6245
25.5269
25.4361
25.3512
25.271
25.1946
25.1209
25.049
24.9781
24.9076
24.8369
24.7657
24.6936
24.6202
24.5451
24.4687
24.3918
24.3155
24.2405
24.1665
24.0925
24.0173
23.9405
23.8619
23.7819
23.7013
23.621
23.543
23.4688
23.4007
23.3397
23.2893
23.2502
23.2305
23.2332
23.2778
23.3744
23.554
7.36716
7.20446
7.05656
6.94205
7.00137
7.17085
7.32668
7.34096
7.14493
6.74228
6.18108
5.53039
4.86204
4.2387
3.7073
3.29894
3.02936
2.90097
2.90586
3.02769
3.24258
3.51446
3.80322
4.06889
4.28006
4.38963
4.42136
4.32651
4.16262
3.89997
3.43851
2.83357
2.13835
1.41576
0.743271
0.127747
-0.44288
-1.0464
-1.76864
-2.61322
-3.4331
-4.11647
-4.62872
-5.01057
-5.42208
-5.79086
-6.2503
-6.85971
-7.14251
-7.21583
-7.34566
-7.49985
-7.66261
-7.84538
-8.03763
-8.31004
-8.58469
-8.89151
-9.31222
-9.78087
-10.2438
-10.6567
-10.9908
-11.2256
-11.3407
-11.3197
-11.1529
-10.8384
-10.378
-9.78001
-9.05791
-8.22439
-7.29046
-6.26891
-5.17506
-4.02588
-2.83826
-1.62753
-0.40608
0.817327
2.03795
3.25487
4.47043
5.68925
6.91697
8.15931
9.42098
10.7047
12.0101
13.3332
14.6659
15.9959
17.3071
18.5813
19.8002
20.9481
22.0138
22.9912
23.8791
24.6801
25.3998
26.0448
26.6218
27.1368
27.5952
28.0012
28.3583
28.6694
28.9369
29.1633
29.3505
29.5004
29.6148
29.6952
29.743
29.7593
29.7454
29.7023
29.6314
29.5342
29.4125
29.2686
29.1053
28.9256
28.7326
28.5297
28.3202
28.1073
27.8938
27.6821
27.4743
27.272
27.0766
26.8891
26.7103
26.5407
26.3806
26.2301
26.0893
25.9581
25.8361
25.7231
25.6183
25.5213
25.431
25.3466
25.2669
25.1909
25.1175
25.0459
24.9753
24.9051
24.8346
24.7636
24.6918
24.6187
24.5441
24.4681
24.3916
24.3156
24.2407
24.1668
24.0927
24.0176
23.9407
23.8619
23.7816
23.7006
23.6201
23.5416
23.4668
23.3977
23.3358
23.2831
23.2424
23.2171
23.216
23.241
23.3132
23.383
7.57579
7.51785
7.39251
7.19282
6.96633
6.71818
6.41187
5.99785
5.45492
4.80493
4.10316
3.40191
2.74837
2.17955
1.72351
1.398
1.21094
1.16082
1.23626
1.41665
1.67604
1.987
2.31654
2.62356
2.89096
3.05102
3.11455
3.06609
2.86077
2.49448
1.96644
1.29969
0.521061
-0.299003
-1.09821
-1.82309
-2.53242
-3.2901
-4.09743
-4.9238
-5.63688
-6.16586
-6.4874
-6.81314
-7.28109
-7.78565
-8.25697
-8.76169
-9.17045
-9.42253
-9.5839
-9.67126
-9.70151
-9.7225
-9.79653
-9.93494
-10.1531
-10.4401
-10.7867
-11.1534
-11.5037
-11.8073
-12.0465
-12.2014
-12.2523
-12.1817
-11.9773
-11.6323
-11.1453
-10.519
-9.76122
-8.8832
-7.89881
-6.82466
-5.67953
-4.48315
-3.25467
-2.01103
-0.765634
0.472554
1.69925
2.91463
4.12254
5.32951
6.54349
7.77241
9.02287
10.2991
11.6022
12.9295
14.2736
15.6217
16.9562
18.2567
19.5027
20.676
21.7638
22.7595
23.6621
24.4755
25.2062
25.8617
26.4492
26.9749
27.444
27.8605
28.2279
28.5487
28.8254
29.0604
29.2556
29.4129
29.5342
29.621
29.6748
29.6968
29.6882
29.65
29.5836
29.4905
29.3725
29.2319
29.0714
28.8939
28.7029
28.5017
28.2936
28.0819
27.8694
27.6586
27.4516
27.2502
27.0557
26.8692
26.6913
26.5226
26.3634
26.2139
26.0742
25.944
25.8231
25.7111
25.6075
25.5116
25.4225
25.3392
25.2607
25.1858
25.1134
25.0427
24.9729
24.9033
24.8335
24.763
24.6917
24.6193
24.5456
24.4708
24.3953
24.32
24.245
24.17
24.0947
24.0182
23.9404
23.8611
23.7807
23.6997
23.6192
23.5403
23.4648
23.3939
23.3297
23.273
23.2275
23.1935
23.1802
23.1804
23.2117
23.2139
7.56933
7.55424
7.3735
7.00185
6.45921
5.80549
5.0931
4.33988
3.56415
2.79299
2.05537
1.37594
0.778702
0.284707
-0.0892872
-0.334863
-0.452242
-0.45002
-0.342691
-0.148212
0.110575
0.407075
0.716519
1.00053
1.21804
1.36352
1.41244
1.36547
1.20636
0.922336
0.503896
-0.0465487
-0.710359
-1.44188
-2.19596
-2.95812
-3.77765
-4.69941
-5.68112
-6.60527
-7.37172
-7.96312
-8.3641
-8.72841
-9.18736
-9.7285
-10.2897
-10.8097
-11.231
-11.5236
-11.6766
-11.7087
-11.6632
-11.6115
-11.6246
-11.7175
-11.8906
-12.1239
-12.3981
-12.6837
-12.9513
-13.1747
-13.3387
-13.4269
-13.4219
-13.306
-13.0634
-12.6821
-12.1562
-11.4855
-10.6755
-9.73771
-8.68823
-7.5472
-6.33693
-5.08056
-3.80024
-2.5152
-1.24021
0.0152411
1.24723
2.45706
3.65059
4.8371
6.02768
7.23331
8.46341
9.72481
11.0208
12.3504
13.7075
15.0791
16.4459
17.7842
19.0695
20.2799
21.3996
22.4209
23.3438
24.1743
24.9206
25.5915
26.1945
26.7361
27.2211
27.6535
28.0362
28.3716
28.662
28.9095
29.1163
29.2844
29.4155
29.5116
29.574
29.604
29.6029
29.5718
29.5119
29.4246
29.312
29.1761
29.0196
28.8457
28.6576
28.4589
28.253
28.0431
27.8323
27.6231
27.4176
27.2177
27.0247
26.8396
26.6632
26.4959
26.3382
26.1902
26.052
25.9234
25.8042
25.6939
25.5921
25.4979
25.4105
25.3289
25.2518
25.1783
25.1073
25.0377
24.9689
24.9001
24.8311
24.7613
24.6906
24.6187
24.5455
24.4712
24.3962
24.3209
24.2456
24.1703
24.0946
24.0179
23.9398
23.8602
23.7795
23.6983
23.6174
23.5377
23.4609
23.3879
23.3208
23.2597
23.2083
23.1654
23.1379
23.1163
23.1093
23.0632
7.56259
7.38843
6.94896
6.25884
5.43177
4.54877
3.65338
2.77399
1.9249
1.1194
0.370006
-0.305981
-0.888411
-1.35631
-1.69564
-1.90317
-1.98751
-1.96487
-1.8559
-1.67964
-1.45209
-1.19425
-0.9415
-0.726614
-0.575486
-0.503593
-0.513405
-0.598472
-0.750461
-0.964722
-1.2442
-1.59646
-2.03017
-2.54943
-3.15586
-3.8615
-4.6947
-5.6659
-6.70385
-7.70072
-8.56352
-9.28732
-9.89072
-10.4378
-10.9889
-11.5695
-12.1557
-12.6931
-13.1398
-13.4634
-13.6373
-13.6696
-13.6104
-13.542
-13.5251
-13.5748
-13.6909
-13.8617
-14.0713
-14.2918
-14.496
-14.6629
-14.777
-14.8209
-14.7762
-14.6236
-14.3453
-13.9259
-13.355
-12.63
-11.7555
-10.7447
-9.61651
-8.39474
-7.10561
-5.77631
-4.43265
-3.09684
-1.78575
-0.509764
0.727379
1.92829
3.10105
4.25806
5.41379
6.58277
7.77802
9.00992
10.2855
11.6071
12.9705
14.3639
15.7671
17.1525
18.4899
19.751
20.9147
21.9709
22.9214
23.7746
24.5413
25.2321
25.8557
26.4183
26.9248
27.3786
27.7818
28.1367
28.4451
28.709
28.9306
29.1123
29.2559
29.3635
29.4366
29.4767
29.485
29.4627
29.411
29.3314
29.2256
29.096
28.945
28.776
28.5921
28.397
28.1943
27.9874
27.7793
27.5726
27.3697
27.1722
26.9815
26.7988
26.6246
26.4597
26.3044
26.1587
26.0228
25.8965
25.7795
25.6715
25.5718
25.4799
25.3946
25.3151
25.2401
25.1685
25.0992
25.0312
24.9636
24.8959
24.8278
24.759
24.6891
24.618
24.5456
24.4721
24.3977
24.3228
24.2477
24.1721
24.0959
24.0184
23.9397
23.8597
23.7785
23.6967
23.6151
23.5345
23.4562
23.3809
23.3105
23.2449
23.1868
23.1346
23.0922
23.0505
23.0102
22.9298
7.22976
6.7963
6.01463
5.12475
4.16918
3.1935
2.23511
1.3074
0.412285
-0.448787
-1.26151
-2.00091
-2.63868
-3.14885
-3.51619
-3.7411
-3.8354
-3.81894
-3.71631
-3.55186
-3.348
-3.13027
-2.92771
-2.76677
-2.67054
-2.65058
-2.70461
-2.81984
-2.97785
-3.16284
-3.36796
-3.59986
-3.88166
-4.24853
-4.73252
-5.3722
-6.17498
-7.13626
-8.18816
-9.24235
-10.2185
-11.0823
-11.8403
-12.5156
-13.139
-13.7408
-14.32
-14.8485
-15.2921
-15.6134
-15.7869
-15.8214
-15.759
-15.6669
-15.6002
-15.5873
-15.6373
-15.7434
-15.8899
-16.05
-16.1971
-16.3116
-16.3778
-16.3793
-16.2967
-16.1087
-15.7947
-15.3354
-14.7167
-13.9323
-12.986
-11.8928
-10.6751
-9.36055
-7.97992
-6.56501
-5.14608
-3.74921
-2.39384
-1.0915
0.154325
1.34777
2.49949
3.6244
4.74013
5.86443
7.01421
8.20349
9.4428
10.739
12.0933
13.4973
14.932
16.3669
17.7651
19.089
20.3102
21.4144
22.4022
23.2852
24.078
24.7938
25.4428
26.0317
26.5648
27.0447
27.473
27.8511
28.1807
28.4639
28.7032
28.9008
29.0592
29.1804
29.2662
29.3182
29.3376
29.3259
29.2841
29.2136
29.1163
28.9943
28.8503
28.6874
28.509
28.3188
28.1203
27.9173
27.7127
27.5095
27.3099
27.1157
26.9283
26.7487
26.5778
26.4159
26.2635
26.1208
25.9878
25.8643
25.7502
25.6449
25.548
25.4587
25.3761
25.299
25.2263
25.1569
25.0895
25.0233
24.9573
24.8911
24.8243
24.7564
24.6875
24.6172
24.5456
24.4728
24.3989
24.3243
24.2491
24.1732
24.0965
24.0187
23.9396
23.8591
23.7774
23.695
23.6125
23.5307
23.4505
23.3728
23.2986
23.2282
23.163
23.1015
23.0447
22.9847
22.9172
22.8121
5.90731
5.41344
4.6298
3.77185
2.86929
1.9317
0.980078
0.0278738
-0.922011
-1.85983
-2.757
-3.57851
-4.29082
-4.86586
-5.29081
-5.56871
-5.71534
-5.75488
-5.71332
-5.61309
-5.47484
-5.32123
-5.17845
-5.07328
-5.02588
-5.0454
-5.13049
-5.26938
-5.4444
-5.63653
-5.83243
-6.03264
-6.25903
-6.5631
-6.99981
-7.62706
-8.44128
-9.41848
-10.5057
-11.6278
-12.7029
-13.6808
-14.5429
-15.2941
-15.9549
-16.5464
-17.0769
-17.5378
-17.9041
-18.1503
-18.262
-18.2498
-18.1425
-17.991
-17.8514
-17.7624
-17.738
-17.7749
-17.859
-17.9643
-18.0627
-18.1312
-18.1527
-18.1118
-17.9906
-17.7671
-17.4172
-16.9179
-16.2499
-15.404
-14.3834
-13.2034
-11.8896
-10.4746
-8.99437
-7.48585
-5.98368
-4.51732
-3.10846
-1.76972
-0.504876
0.691132
1.83096
2.93208
4.01439
5.09887
6.20532
7.35041
8.54732
9.80654
11.1358
12.5343
13.9873
15.464
16.9215
18.313
19.5996
20.7605
21.794
22.7144
23.5402
24.2874
24.9679
25.5884
26.153
26.6631
27.1197
27.5237
27.8769
28.1816
28.4404
28.6559
28.8306
28.9669
29.0669
29.132
29.1639
29.1637
29.1326
29.0722
28.9842
28.8708
28.7348
28.579
28.4071
28.2227
28.0296
27.8313
27.6313
27.4324
27.2368
27.0467
26.8633
26.6877
26.5207
26.3627
26.2142
26.0752
25.9458
25.8259
25.7151
25.6132
25.5195
25.4332
25.3535
25.2793
25.2093
25.1424
25.0774
25.0133
24.9493
24.8849
24.8196
24.7532
24.6855
24.6164
24.5458
24.4737
24.4004
24.3262
24.251
24.175
24.0979
24.0197
23.9401
23.859
23.7766
23.6933
23.6097
23.5264
23.4442
23.3637
23.2856
23.2102
23.1379
23.0671
22.9971
22.9208
22.8313
22.7073
4.38352
3.97808
3.39272
2.6656
1.83569
0.942309
0.0146165
-0.936111
-1.914
-2.90256
-3.8626
-4.75462
-5.54431
-6.20629
-6.72847
-7.11284
-7.37394
-7.53304
-7.61133
-7.62616
-7.59426
-7.53608
-7.47732
-7.44287
-7.45196
-7.5155
-7.63453
-7.8018
-8.00354
-8.22255
-8.4453
-8.67216
-8.92523
-9.26302
-9.75549
-10.4513
-11.3432
-12.4042
-13.5862
-14.8135
-16.0012
-17.0917
-18.0518
-18.8669
-19.5391
-20.0812
-20.5117
-20.8377
-21.0453
-21.1328
-21.1039
-20.9668
-20.7429
-20.4771
-20.229
-20.0436
-19.9376
-19.9061
-19.9324
-19.9909
-20.0511
-20.085
-20.0732
-20.0002
-19.8488
-19.595
-19.2112
-18.6712
-17.9533
-17.045
-15.9479
-14.6777
-13.2638
-11.7449
-10.1633
-8.56147
-6.97789
-5.44363
-3.98045
-2.60014
-1.30581
-0.0918328
1.05488
2.15257
3.2223
4.2865
5.36644
6.47981
7.64053
8.86163
10.1574
11.5356
12.9898
14.4927
15.9982
17.4512
18.802
20.022
21.1075
22.0727
22.9392
23.7255
24.4443
25.1022
25.7025
26.2458
26.7327
27.1642
27.5423
27.8696
28.149
28.3834
28.5756
28.728
28.8429
28.9219
28.9666
28.9783
28.9584
28.9085
28.8303
28.7263
28.5989
28.4513
28.2869
28.1094
27.9226
27.7302
27.5357
27.342
27.1515
26.9663
26.7876
26.6168
26.4544
26.301
26.157
26.0224
25.8973
25.7815
25.6747
25.5765
25.4865
25.4037
25.3274
25.2563
25.1893
25.1252
25.0629
25.0014
24.9398
24.8776
24.8143
24.7496
24.6834
24.6156
24.5461
24.475
24.4024
24.3285
24.2535
24.1773
24.0998
24.021
23.9408
23.859
23.7758
23.6915
23.6066
23.5217
23.4373
23.3538
23.2719
23.1913
23.112
23.0323
22.9502
22.8596
22.7526
22.6132
3.32002
3.01809
2.53826
1.89622
1.13633
0.300128
-0.588514
-1.52294
-2.50982
-3.52695
-4.52989
-5.48334
-6.35567
-7.12172
-7.76824
-8.29474
-8.71117
-9.03124
-9.26702
-9.42941
-9.53304
-9.59889
-9.65134
-9.71222
-9.79928
-9.92372
-10.0886
-10.2908
-10.5219
-10.7712
-11.0329
-11.3163
-11.6505
-12.0979
-12.7266
-13.5668
-14.6115
-15.8314
-17.1749
-18.5607
-19.9036
-21.1374
-22.2094
-23.0847
-23.7495
-24.2135
-24.5088
-24.6538
-24.6489
-24.5166
-24.2776
-23.9388
-23.5245
-23.0882
-22.6965
-22.3927
-22.1906
-22.0841
-22.0513
-22.0642
-22.0912
-22.1021
-22.0719
-21.9819
-21.8117
-21.5352
-21.121
-20.5393
-19.7679
-18.7937
-17.6181
-16.2575
-14.7459
-13.1277
-11.4505
-9.76234
-8.1054
-6.51195
-5.00137
-3.58153
-2.25373
-1.01274
0.154238
1.26634
2.34517
3.41335
4.49058
5.59252
6.73159
7.92163
9.18195
10.5306
11.9722
13.4862
15.0259
16.5291
17.9373
19.2157
20.3576
21.3749
22.2904
23.1234
23.8868
24.5864
25.2247
25.8024
26.3201
26.7794
27.1826
27.5329
27.8334
28.0872
28.2973
28.4662
28.5964
28.6895
28.7473
28.7711
28.7626
28.7233
28.6554
28.561
28.443
28.3043
28.1483
27.9786
27.7992
27.6136
27.4256
27.2381
27.0536
26.874
26.701
26.5355
26.3785
26.2303
26.0913
25.9616
25.8412
25.73
25.6277
25.5339
25.448
25.3691
25.2965
25.2289
25.1653
25.1044
25.0452
24.9867
24.9279
24.8683
24.8074
24.745
24.6807
24.6146
24.5464
24.4764
24.4046
24.3312
24.2563
24.1799
24.102
24.0227
23.9418
23.8592
23.7751
23.6897
23.6034
23.5167
23.43
23.3435
23.2576
23.1719
23.0859
22.9977
22.9048
22.8016
22.6803
22.5287
2.6654
2.423
2.01078
1.43218
0.727154
-0.0682643
-0.925318
-1.83826
-2.81276
-3.83163
-4.86
-5.86944
-6.83037
-7.71525
-8.50647
-9.19682
-9.78751
-10.2828
-10.6879
-11.0101
-11.2649
-11.4724
-11.6525
-11.8231
-11.9992
-12.1914
-12.4045
-12.64
-12.8968
-13.1756
-13.4847
-13.8472
-14.3053
-14.9175
-15.7375
-16.7815
-18.0368
-19.4684
-21.015
-22.5885
-24.1018
-25.4779
-26.6525
-27.5796
-28.2353
-28.6254
-28.7907
-28.7491
-28.5149
-28.1361
-27.6516
-27.0691
-26.4212
-25.7752
-25.2106
-24.7688
-24.456
-24.2633
-24.1666
-24.1327
-24.1279
-24.1195
-24.078
-23.9787
-23.7965
-23.5007
-23.0568
-22.4323
-21.6044
-20.5625
-19.3104
-17.8674
-16.2688
-14.5631
-12.8028
-11.0404
-9.32163
-7.68047
-6.13361
-4.68338
-3.32624
-2.0559
-0.861114
0.27616
1.37721
2.46415
3.55396
4.66038
5.79359
6.96576
8.19844
9.51933
10.9448
12.4621
14.0259
15.5708
17.0322
18.3687
19.5699
20.6444
21.6144
22.4991
23.31
24.0527
24.7293
25.3409
25.8887
26.375
26.803
27.176
27.4975
27.7707
27.9989
28.1845
28.3301
28.4375
28.5083
28.5442
28.5468
28.5181
28.4604
28.376
28.2678
28.1386
27.9918
27.8308
27.6595
27.4817
27.301
27.1205
26.9428
26.7698
26.6031
26.4438
26.2927
26.1503
26.0169
25.8927
25.7776
25.6716
25.5742
25.4852
25.4038
25.3294
25.2609
25.1974
25.1376
25.0805
25.0248
24.9697
24.9141
24.8575
24.7994
24.7395
24.6774
24.6131
24.5465
24.4777
24.4067
24.3339
24.2592
24.1828
24.1046
24.0247
23.943
23.8596
23.7745
23.6878
23.6
23.5115
23.4224
23.3329
23.2431
23.1524
23.06
22.964
22.8614
22.7472
22.6143
22.4527
2.30241
2.09042
1.69633
1.1346
0.442736
-0.344414
-1.20075
-2.1174
-3.09717
-4.1298
-5.19272
-6.26171
-7.30949
-8.30802
-9.23537
-10.0773
-10.8262
-11.4783
-12.0336
-12.4992
-12.8903
-13.2247
-13.5189
-13.7867
-14.0392
-14.2852
-14.5328
-14.791
-15.0691
-15.3821
-15.7539
-16.2185
-16.8243
-17.6231
-18.6507
-19.9084
-21.3737
-23.0021
-24.7246
-26.4539
-28.1035
-29.5926
-30.8511
-31.8234
-32.4765
-32.8119
-32.8737
-32.6745
-32.2453
-31.6515
-30.9402
-30.1304
-29.2648
-28.4188
-27.6803
-27.0984
-26.674
-26.3918
-26.2281
-26.1475
-26.1112
-26.0814
-26.0255
-25.9129
-25.7122
-25.3876
-24.9027
-24.2261
-23.3372
-22.2303
-20.9122
-19.4027
-17.7378
-15.9679
-14.1486
-12.3338
-10.5703
-8.89523
-7.32543
-5.85941
-4.48651
-3.19598
-1.97629
-0.812197
0.315545
1.42607
2.53467
3.65289
4.79009
5.95834
7.18061
8.49059
9.91252
11.4386
13.0281
14.6132
16.1244
17.5152
18.773
19.9043
20.9298
21.8669
22.7257
23.5109
24.2244
24.8681
25.4445
25.9566
26.4084
26.8033
27.1452
27.4374
27.6833
27.8855
28.0464
28.1678
28.2514
28.2989
28.3124
28.2939
28.2461
28.1716
28.0734
27.9542
27.8172
27.6658
27.5035
27.3344
27.1619
26.9893
26.8192
26.6536
26.4941
26.3417
26.1973
26.0613
25.9342
25.816
25.7067
25.6063
25.5144
25.4306
25.3543
25.2848
25.2211
25.1622
25.1068
25.0538
25.0021
24.9507
24.8987
24.8454
24.7904
24.7331
24.6735
24.6113
24.5464
24.4789
24.4089
24.3366
24.2622
24.1857
24.1073
24.0268
23.9444
23.8601
23.7739
23.6859
23.5966
23.5061
23.4146
23.3222
23.2286
23.1331
23.0347
22.9314
22.8202
22.6965
22.5539
22.3841
2.04698
1.83497
1.42692
0.837754
0.0998869
-0.750112
-1.67918
-2.66646
-3.70652
-4.79045
-5.90478
-7.02962
-8.142
-9.21724
-10.2333
-11.1727
-12.0228
-12.7769
-13.4356
-14.0056
-14.498
-14.9259
-15.3015
-15.6348
-15.9345
-16.2103
-16.4741
-16.7424
-17.0359
-17.3827
-17.8175
-18.3792
-19.1124
-20.0559
-21.2269
-22.6176
-24.2039
-25.9414
-27.7622
-29.5815
-31.3102
-32.8622
-34.1619
-35.1507
-35.7944
-36.0873
-36.0591
-35.7317
-35.1568
-34.4209
-33.5778
-32.6459
-31.669
-30.7217
-29.8853
-29.2162
-28.7201
-28.3763
-28.1584
-28.0346
-27.9639
-27.9058
-27.8242
-27.6835
-27.4463
-27.0739
-26.5313
-25.791
-24.8366
-23.6664
-22.2923
-20.736
-19.0322
-17.2314
-15.3888
-13.5562
-11.7769
-10.0902
-8.51616
-7.05259
-5.68199
-4.38616
-3.15243
-1.96885
-0.820407
0.308658
1.43251
2.56274
3.70974
4.88787
6.12294
7.45017
8.89424
10.4475
12.0708
13.6945
15.246
16.6804
17.9861
19.1693
20.2482
21.237
22.1427
22.9685
23.7166
24.3901
24.993
25.5292
26.0032
26.4188
26.78
27.0903
27.3532
27.5713
27.747
27.882
27.978
28.0368
28.0605
28.0518
28.0135
27.9488
27.8606
27.7519
27.6254
27.4842
27.332
27.1723
27.009
26.8452
26.6836
26.5262
26.3746
26.23
26.093
25.9642
25.8439
25.7324
25.6295
25.5352
25.4493
25.3713
25.3006
25.2365
25.1781
25.1241
25.0736
25.0252
24.9779
24.9306
24.8824
24.8326
24.7808
24.7264
24.6693
24.6092
24.5461
24.48
24.4111
24.3394
24.2652
24.1887
24.11
24.0291
23.946
23.8607
23.7733
23.6841
23.5932
23.5008
23.407
23.3116
23.2143
23.1143
23.0103
22.9004
22.7815
22.6495
22.4988
22.3223
1.78991
1.55559
1.08846
0.406397
-0.454836
-1.44741
-2.52433
-3.64954
-4.8036
-5.97598
-7.15624
-8.32981
-9.47882
-10.584
-11.6277
-12.5966
-13.4805
-14.2742
-14.9782
-15.5964
-16.1358
-16.6052
-17.013
-17.3662
-17.6736
-17.9473
-18.2041
-18.4657
-18.758
-19.1122
-19.5635
-20.1499
-20.9099
-21.8745
-23.0554
-24.4489
-26.037
-27.7791
-29.6074
-31.4339
-33.1645
-34.7121
-36.0027
-36.9812
-37.6208
-37.9009
-37.8247
-37.4327
-36.8003
-36.0173
-35.152
-34.2291
-33.2844
-32.3737
-31.5641
-30.9066
-30.4148
-30.0678
-29.8336
-29.6802
-29.5732
-29.4767
-29.3541
-29.1669
-28.8745
-28.4396
-27.8309
-27.024
-26.0043
-24.7742
-23.3559
-21.7728
-20.0588
-18.2612
-16.432
-14.619
-12.8591
-11.1925
-9.64295
-8.20647
-6.85892
-5.57475
-4.33953
-3.14641
-1.98812
-0.850985
0.28204
1.42523
2.59019
3.79501
5.06754
6.43979
7.92994
9.52579
11.1849
12.8366
14.4126
15.8761
17.2191
18.4488
19.5791
20.6181
21.5687
22.432
23.2113
23.9116
24.5384
25.0966
25.591
26.0257
26.4046
26.7317
27.0103
27.2435
27.4333
27.5814
27.6894
27.759
27.7926
27.7933
27.7643
27.7092
27.631
27.5329
27.4174
27.2873
27.1459
26.9968
26.8436
26.6896
26.5374
26.3891
26.2463
26.1101
25.9813
25.8603
25.7475
25.6431
25.5471
25.4594
25.3798
25.308
25.2433
25.1851
25.1322
25.0837
25.0384
24.9951
24.9526
24.9097
24.8656
24.8196
24.7711
24.7196
24.665
24.6071
24.5458
24.4812
24.4132
24.3422
24.2683
24.1918
24.1129
24.0314
23.9476
23.8614
23.773
23.6824
23.5899
23.4956
23.3995
23.3013
23.2005
23.0963
22.9871
22.8712
22.7455
22.6063
22.4486
22.2665
1.5166
1.23576
0.669275
-0.156112
-1.19348
-2.37444
-3.63216
-4.91611
-6.19554
-7.4562
-8.68974
-9.89049
-11.0498
-12.1578
-13.2059
-14.1871
-15.0919
-15.9061
-16.6179
-17.2249
-17.7349
-18.162
-18.5212
-18.8256
-19.0875
-19.3198
-19.5358
-19.7518
-19.9877
-20.2713
-20.6388
-21.1326
-21.7939
-22.6538
-23.7287
-25.0192
-26.5077
-28.154
-29.8934
-31.6415
-33.3084
-34.8093
-36.075
-37.0507
-37.7123
-38.0357
-38.004
-37.6509
-37.0736
-36.3572
-35.5823
-34.782
-33.9833
-33.226
-32.5545
-32.0035
-31.5898
-31.2954
-31.0857
-30.9266
-30.7911
-30.6533
-30.4809
-30.2372
-29.884
-29.3864
-28.7158
-27.8479
-26.7686
-25.488
-24.0425
-22.461
-20.7697
-19.0077
-17.2238
-15.4631
-13.7577
-12.1459
-10.6508
-9.26672
-7.96302
-6.70826
-5.48406
-4.28745
-3.12483
-1.98481
-0.843937
0.316167
1.50871
2.75452
4.08161
5.51502
7.06263
8.70293
10.3876
12.0498
13.6337
15.113
16.4846
17.7561
18.9345
20.0196
21.01
21.906
22.7123
23.436
24.084
24.662
25.1748
25.6268
26.0219
26.3642
26.6572
26.9041
27.107
27.2674
27.3867
27.4667
27.5099
27.5198
27.5001
27.4545
27.3866
27.2994
27.1954
27.0772
26.9476
26.8101
26.668
26.5247
26.3827
26.2442
26.1107
25.9835
25.8632
25.7504
25.6454
25.5485
25.4596
25.3788
25.3058
25.2404
25.182
25.1298
25.083
25.0405
25.001
24.9633
24.926
24.8881
24.8484
24.8064
24.7613
24.7129
24.6608
24.605
24.5455
24.4823
24.4154
24.3451
24.2715
24.195
24.1158
24.034
23.9495
23.8624
23.7728
23.681
23.5869
23.4908
23.3924
23.2915
23.1875
23.0792
22.9653
22.8439
22.7122
22.5667
22.4031
22.2162
1.37368
1.04024
0.364542
-0.609234
-1.82052
-3.1824
-4.61435
-6.05212
-7.46089
-8.82564
-10.1447
-11.42
-12.6447
-13.8024
-14.878
-15.8629
-16.7522
-17.5298
-18.178
-18.6932
-19.0888
-19.3895
-19.6201
-19.7986
-19.9367
-20.0426
-20.1237
-20.1908
-20.2647
-20.3776
-20.571
-20.8923
-21.3834
-22.0745
-22.9837
-24.1147
-25.4457
-26.9375
-28.5327
-30.1574
-31.7291
-33.1665
-34.4077
-35.4028
-36.1224
-36.5492
-36.6572
-36.4644
-36.056
-35.5239
-34.9481
-34.3656
-33.7962
-33.2647
-32.7997
-32.4217
-32.1369
-31.9335
-31.7789
-31.6397
-31.4924
-31.3212
-31.1035
-30.8076
-30.4002
-29.8509
-29.133
-28.224
-27.1143
-25.8164
-24.3773
-22.8233
-21.1739
-19.4651
-17.7479
-16.0665
-14.4457
-12.9187
-11.5018
-10.1873
-8.94155
-7.72713
-6.52103
-5.32447
-4.15779
-3.01491
-1.86521
-0.681551
0.547076
1.84168
3.22863
4.72464
6.32485
7.99692
9.68925
11.3449
12.9234
14.4091
15.8026
17.1084
18.3262
19.4492
20.4717
21.3941
22.2228
22.9664
23.633
24.2286
24.758
25.2256
25.6353
25.9911
26.2969
26.5557
26.7701
26.9415
27.0713
27.1611
27.2139
27.2332
27.223
27.1875
27.1303
27.0545
26.9625
26.8566
26.7395
26.6141
26.4837
26.3516
26.2202
26.0918
25.968
25.8499
25.7384
25.634
25.537
25.4477
25.3661
25.2923
25.2262
25.1675
25.1157
25.0702
25.03
24.994
24.961
24.9294
24.8979
24.8653
24.8306
24.7929
24.7516
24.7063
24.6569
24.6032
24.5454
24.4835
24.4177
24.3481
24.2748
24.1984
24.1189
24.0366
23.9515
23.8636
23.773
23.6799
23.5844
23.4864
23.3859
23.2824
23.1752
23.0632
22.945
22.8186
22.6815
22.5306
22.3619
22.171
1.65071
1.25839
0.483679
-0.6254
-2.00483
-3.55552
-5.19223
-6.84187
-8.46091
-10.0254
-11.524
-12.9482
-14.2779
-15.478
-16.5213
-17.4035
-18.1417
-18.7454
-19.2095
-19.5316
-19.7223
-19.8051
-19.8056
-19.7471
-19.6451
-19.5149
-19.3707
-19.2267
-19.1073
-19.0449
-19.0766
-19.2406
-19.5713
-20.0972
-20.8396
-21.8011
-22.961
-24.2846
-25.723
-27.2154
-28.6896
-30.0698
-31.2967
-32.3298
-33.1396
-33.7142
-34.0307
-34.0956
-33.957
-33.705
-33.4103
-33.1225
-32.8436
-32.5825
-32.3542
-32.1728
-32.0411
-31.9469
-31.8659
-31.7675
-31.6309
-31.4454
-31.1967
-30.8634
-30.4177
-29.8344
-29.0919
-28.1736
-27.0726
-25.7994
-24.3934
-22.8853
-21.2923
-19.6503
-18.0204
-16.4411
-14.9259
-13.5027
-12.1783
-10.942
-9.7604
-8.59324
-7.41563
-6.22517
-5.05081
-3.89872
-2.73283
-1.52007
-0.249666
1.09617
2.53934
4.08714
5.72179
7.40559
9.08804
10.7245
12.289
13.774
15.1805
16.5092
17.7539
18.9032
19.9486
20.8907
21.7372
22.4978
23.1807
23.792
24.3364
24.8179
25.2406
25.6083
25.9251
26.1944
26.4187
26.6
26.7396
26.8393
26.902
26.9313
26.9315
26.9067
26.8607
26.7966
26.7168
26.6235
26.5189
26.4059
26.2877
26.1671
26.0467
25.9288
25.815
25.7065
25.6042
25.5085
25.4198
25.3384
25.2645
25.1981
25.1393
25.0878
25.0433
25.0051
24.9722
24.9434
24.9174
24.8926
24.8676
24.8411
24.8118
24.7788
24.7417
24.6998
24.6532
24.6018
24.5457
24.4851
24.4203
24.3512
24.2783
24.2019
24.1222
24.0395
23.9537
23.865
23.7735
23.6792
23.5822
23.4826
23.38
23.274
23.1638
23.0483
22.9261
22.7953
22.6536
22.4979
22.3249
22.1306
2.59735
2.11718
1.2234
-0.0410849
-1.61985
-3.41486
-5.33308
-7.27054
-9.15001
-10.9172
-12.5431
-14.008
-15.2954
-16.3773
-17.2322
-17.8709
-18.3325
-18.652
-18.8315
-18.8645
-18.7662
-18.5634
-18.2912
-17.9774
-17.6441
-17.3085
-16.9863
-16.6948
-16.459
-16.3093
-16.2743
-16.3778
-16.6427
-17.0951
-17.7553
-18.6215
-19.6694
-20.87
-22.1834
-23.561
-24.9448
-26.2722
-27.4914
-28.5661
-29.4751
-30.205
-30.7429
-31.0832
-31.2448
-31.2909
-31.2872
-31.2829
-31.2912
-31.3027
-31.3103
-31.3175
-31.3286
-31.3414
-31.3424
-31.3064
-31.2116
-31.0448
-30.7965
-30.4529
-29.9936
-29.3985
-28.6518
-27.7452
-26.6775
-25.4565
-24.109
-22.6649
-21.1442
-19.5837
-18.047
-16.5723
-15.1649
-13.8472
-12.6152
-11.4505
-10.33
-9.21626
-8.07838
-6.9097
-5.73637
-4.56819
-3.37807
-2.13125
-0.816684
0.5772
2.06345
3.64177
5.28805
6.96172
8.61966
10.2297
11.7755
13.2528
14.6608
15.9964
17.2506
18.4102
19.4662
20.4195
21.2779
22.0512
22.7469
23.3707
23.9268
24.4193
24.8522
25.2294
25.5552
25.833
26.0659
26.2559
26.4045
26.5137
26.5862
26.6257
26.6363
26.622
26.5867
26.5336
26.4652
26.3835
26.2908
26.1898
26.0832
25.974
25.8648
25.7577
25.6542
25.5556