/*--------------------------------*- C++ -*----------------------------------*\
  =========                 |
  \\      /  F ield         | OpenFOAM: The Open Source CFD Toolbox
   \\    /   O peration     | Website:  https://openfoam.org
    \\  /    A nd           | Version:  10
     \\/     M anipulation  |
\*---------------------------------------------------------------------------*/
FoamFile
{
    format      ascii;
    class       volVectorField;
    location    "5250";
    object      Ua;
}
// * * * * * * * * * * * * * * * * * * * * * * * * * * * * * * * * * * * * * //

dimensions      [0 1 -1 0 0 0 0];

internalField   nonuniform List<vector> 
3200
(
(-1.29379e-07 1.86844e-07 0)
(-3.85522e-07 1.86353e-07 0)
(-6.3617e-07 1.8538e-07 0)
(-8.80792e-07 1.83918e-07 0)
(-1.11888e-06 1.8195e-07 0)
(-1.34991e-06 1.79442e-07 0)
(-1.57336e-06 1.76352e-07 0)
(-1.78867e-06 1.72626e-07 0)
(-1.99525e-06 1.68201e-07 0)
(-2.19247e-06 1.63001e-07 0)
(-2.37963e-06 1.56942e-07 0)
(-2.55599e-06 1.49928e-07 0)
(-2.72073e-06 1.41854e-07 0)
(-2.87297e-06 1.32602e-07 0)
(-3.01174e-06 1.22044e-07 0)
(-3.136e-06 1.1004e-07 0)
(-3.24461e-06 9.64405e-08 0)
(-3.33637e-06 8.10852e-08 0)
(-3.40996e-06 6.38073e-08 0)
(-3.464e-06 4.44349e-08 0)
(-3.49701e-06 2.27969e-08 0)
(-3.50747e-06 -1.27063e-09 0)
(-3.49379e-06 -2.79149e-08 0)
(-3.45437e-06 -5.72537e-08 0)
(-3.38764e-06 -8.93592e-08 0)
(-3.29208e-06 -1.24239e-07 0)
(-3.16633e-06 -1.61814e-07 0)
(-3.00923e-06 -2.0189e-07 0)
(-2.81994e-06 -2.44137e-07 0)
(-2.59804e-06 -2.88059e-07 0)
(-2.34362e-06 -3.32982e-07 0)
(-2.05746e-06 -3.78035e-07 0)
(-1.74105e-06 -4.22163e-07 0)
(-1.39674e-06 -4.64149e-07 0)
(-1.02776e-06 -5.02662e-07 0)
(-6.38182e-07 -5.36331e-07 0)
(-2.32905e-07 -5.63847e-07 0)
(1.82538e-07 -5.84073e-07 0)
(6.0218e-07 -5.96166e-07 0)
(1.0199e-06 -5.99669e-07 0)
(-1.30094e-07 5.61565e-07 0)
(-3.87681e-07 5.60128e-07 0)
(-6.39819e-07 5.5728e-07 0)
(-8.86023e-07 5.53004e-07 0)
(-1.12582e-06 5.47241e-07 0)
(-1.35875e-06 5.399e-07 0)
(-1.58432e-06 5.30854e-07 0)
(-1.80201e-06 5.19945e-07 0)
(-2.01129e-06 5.06986e-07 0)
(-2.21156e-06 4.91757e-07 0)
(-2.4022e-06 4.74012e-07 0)
(-2.5825e-06 4.53469e-07 0)
(-2.75172e-06 4.29818e-07 0)
(-2.90903e-06 4.02715e-07 0)
(-3.05355e-06 3.7178e-07 0)
(-3.1843e-06 3.36602e-07 0)
(-3.30021e-06 2.96735e-07 0)
(-3.40015e-06 2.517e-07 0)
(-3.48288e-06 2.00992e-07 0)
(-3.54705e-06 1.44082e-07 0)
(-3.59124e-06 8.04315e-08 0)
(-3.61389e-06 9.50748e-09 0)
(-3.61337e-06 -6.91931e-08 0)
(-3.58797e-06 -1.56112e-07 0)
(-3.53589e-06 -2.51584e-07 0)
(-3.45531e-06 -3.55786e-07 0)
(-3.3444e-06 -4.68667e-07 0)
(-3.20138e-06 -5.89866e-07 0)
(-3.02467e-06 -7.18631e-07 0)
(-2.81289e-06 -8.53719e-07 0)
(-2.56509e-06 -9.93308e-07 0)
(-2.28088e-06 -1.13493e-06 0)
(-1.96063e-06 -1.27545e-06 0)
(-1.60565e-06 -1.41104e-06 0)
(-1.2184e-06 -1.53733e-06 0)
(-8.0263e-07 -1.64959e-06 0)
(-3.63463e-07 -1.74302e-06 0)
(9.26522e-08 -1.81319e-06 0)
(5.58145e-07 -1.85653e-06 0)
(1.02471e-06 -1.87081e-06 0)
(-1.31473e-07 9.39311e-07 0)
(-3.9184e-07 9.37034e-07 0)
(-6.4685e-07 9.32521e-07 0)
(-8.96103e-07 9.25744e-07 0)
(-1.13922e-06 9.16609e-07 0)
(-1.3758e-06 9.04969e-07 0)
(-1.60545e-06 8.90621e-07 0)
(-1.82774e-06 8.73316e-07 0)
(-2.04221e-06 8.52753e-07 0)
(-2.24839e-06 8.28585e-07 0)
(-2.44572e-06 8.00417e-07 0)
(-2.63364e-06 7.67806e-07 0)
(-2.81151e-06 7.30256e-07 0)
(-2.97863e-06 6.87217e-07 0)
(-3.13426e-06 6.38087e-07 0)
(-3.27756e-06 5.82203e-07 0)
(-3.40764e-06 5.18841e-07 0)
(-3.52351e-06 4.47217e-07 0)
(-3.62408e-06 3.66485e-07 0)
(-3.70817e-06 2.7574e-07 0)
(-3.77445e-06 1.74026e-07 0)
(-3.82146e-06 6.035e-08 0)
(-3.84757e-06 -6.62978e-08 0)
(-3.85095e-06 -2.06906e-07 0)
(-3.82957e-06 -3.62393e-07 0)
(-3.78115e-06 -5.33535e-07 0)
(-3.70312e-06 -7.20865e-07 0)
(-3.5927e-06 -9.24551e-07 0)
(-3.44684e-06 -1.14422e-06 0)
(-3.26231e-06 -1.37878e-06 0)
(-3.03585e-06 -1.62616e-06 0)
(-2.76434e-06 -1.88308e-06 0)
(-2.44513e-06 -2.1448e-06 0)
(-2.07642e-06 -2.40491e-06 0)
(-1.65785e-06 -2.65522e-06 0)
(-1.19106e-06 -2.88587e-06 0)
(-6.80343e-07 -3.08569e-06 0)
(-1.33207e-07 -3.24297e-06 0)
(4.39431e-07 -3.34675e-06 0)
(1.02353e-06 -3.38852e-06 0)
(-1.33412e-07 1.32185e-06 0)
(-3.97692e-07 1.3189e-06 0)
(-6.56744e-07 1.31306e-06 0)
(-9.10293e-07 1.30428e-06 0)
(-1.15807e-06 1.29245e-06 0)
(-1.39981e-06 1.27736e-06 0)
(-1.63522e-06 1.25875e-06 0)
(-1.86399e-06 1.2363e-06 0)
(-2.08581e-06 1.20961e-06 0)
(-2.30031e-06 1.17823e-06 0)
(-2.50711e-06 1.14165e-06 0)
(-2.70578e-06 1.0993e-06 0)
(-2.89586e-06 1.05051e-06 0)
(-3.07684e-06 9.946e-07 0)
(-3.24817e-06 9.30767e-07 0)
(-3.40924e-06 8.58149e-07 0)
(-3.55942e-06 7.75796e-07 0)
(-3.69795e-06 6.82663e-07 0)
(-3.82406e-06 5.77602e-07 0)
(-3.93684e-06 4.59355e-07 0)
(-4.03529e-06 3.26542e-07 0)
(-4.11822e-06 1.77658e-07 0)
(-4.18427e-06 1.10681e-08 0)
(-4.2318e-06 -1.74986e-07 0)
(-4.25884e-06 -3.8237e-07 0)
(-4.26295e-06 -6.13016e-07 0)
(-4.24112e-06 -8.68854e-07 0)
(-4.18965e-06 -1.15169e-06 0)
(-4.10397e-06 -1.46304e-06 0)
(-3.97849e-06 -1.80384e-06 0)
(-3.80657e-06 -2.17405e-06 0)
(-3.58045e-06 -2.57217e-06 0)
(-3.29148e-06 -2.99448e-06 0)
(-2.93056e-06 -3.43422e-06 0)
(-2.48899e-06 -3.88056e-06 0)
(-1.95991e-06 -4.31759e-06 0)
(-1.34031e-06 -4.7235e-06 0)
(-6.33735e-07 -5.07046e-06 0)
(1.46721e-07 -5.32583e-06 0)
(9.75893e-07 -5.45596e-06 0)
(-1.35768e-07 1.71059e-06 0)
(-4.04801e-07 1.70719e-06 0)
(-6.68767e-07 1.70046e-06 0)
(-9.27543e-07 1.69034e-06 0)
(-1.18101e-06 1.67668e-06 0)
(-1.42903e-06 1.65925e-06 0)
(-1.67147e-06 1.63775e-06 0)
(-1.90817e-06 1.61178e-06 0)
(-2.13895e-06 1.5809e-06 0)
(-2.36363e-06 1.54456e-06 0)
(-2.58199e-06 1.50218e-06 0)
(-2.79378e-06 1.45308e-06 0)
(-2.99876e-06 1.39654e-06 0)
(-3.19665e-06 1.33172e-06 0)
(-3.38713e-06 1.25774e-06 0)
(-3.5699e-06 1.1736e-06 0)
(-3.74462e-06 1.0782e-06 0)
(-3.91091e-06 9.70353e-07 0)
(-4.06839e-06 8.48715e-07 0)
(-4.21665e-06 7.11797e-07 0)
(-4.3552e-06 5.57924e-07 0)
(-4.48351e-06 3.85199e-07 0)
(-4.60088e-06 1.91457e-07 0)
(-4.70648e-06 -2.57929e-08 0)
(-4.79914e-06 -2.69432e-07 0)
(-4.87725e-06 -5.42803e-07 0)
(-4.93857e-06 -8.49782e-07 0)
(-4.97988e-06 -1.19483e-06 0)
(-4.99657e-06 -1.58301e-06 0)
(-4.98217e-06 -2.01994e-06 0)
(-4.92761e-06 -2.51153e-06 0)
(-4.82048e-06 -3.06361e-06 0)
(-4.64414e-06 -3.68098e-06 0)
(-4.37699e-06 -4.36598e-06 0)
(-3.99214e-06 -5.11611e-06 0)
(-3.45793e-06 -5.92025e-06 0)
(-2.74055e-06 -6.75324e-06 0)
(-1.80989e-06 -7.56806e-06 0)
(-6.51246e-07 -8.28555e-06 0)
(7.14138e-07 -8.78177e-06 0)
(-1.38361e-07 2.10648e-06 0)
(-4.1263e-07 2.10289e-06 0)
(-6.82015e-07 2.09578e-06 0)
(-9.46564e-07 2.08508e-06 0)
(-1.20632e-06 2.07063e-06 0)
(-1.46131e-06 2.05217e-06 0)
(-1.71155e-06 2.02936e-06 0)
(-1.95705e-06 2.00178e-06 0)
(-2.19781e-06 1.96894e-06 0)
(-2.43381e-06 1.93025e-06 0)
(-2.66501e-06 1.88509e-06 0)
(-2.8914e-06 1.83275e-06 0)
(-3.11292e-06 1.77243e-06 0)
(-3.32954e-06 1.70329e-06 0)
(-3.54121e-06 1.62439e-06 0)
(-3.74793e-06 1.5347e-06 0)
(-3.94969e-06 1.43313e-06 0)
(-4.14652e-06 1.31845e-06 0)
(-4.3385e-06 1.18934e-06 0)
(-4.52579e-06 1.0443e-06 0)
(-4.70861e-06 8.81673e-07 0)
(-4.88729e-06 6.99537e-07 0)
(-5.06225e-06 4.95666e-07 0)
(-5.23403e-06 2.67405e-07 0)
(-5.40326e-06 1.15259e-08 0)
(-5.57062e-06 -2.75983e-07 0)
(-5.73665e-06 -6.00189e-07 0)
(-5.9016e-06 -9.67588e-07 0)
(-6.06497e-06 -1.38659e-06 0)
(-6.22485e-06 -1.86812e-06 0)
(-6.37676e-06 -2.42643e-06 0)
(-6.51196e-06 -3.07993e-06 0)
(-6.61465e-06 -3.85221e-06 0)
(-6.65792e-06 -4.77287e-06 0)
(-6.59778e-06 -5.87793e-06 0)
(-6.36468e-06 -7.20892e-06 0)
(-5.85215e-06 -8.8094e-06 0)
(-4.90258e-06 -1.07161e-05 0)
(-3.29154e-06 -1.29399e-05 0)
(-7.152e-07 -1.54289e-05 0)
(-1.40991e-07 2.50991e-06 0)
(-4.20572e-07 2.50642e-06 0)
(-6.95467e-07 2.49949e-06 0)
(-9.65902e-07 2.48905e-06 0)
(-1.23209e-06 2.47493e-06 0)
(-1.49422e-06 2.45685e-06 0)
(-1.75249e-06 2.43445e-06 0)
(-2.00707e-06 2.40731e-06 0)
(-2.25812e-06 2.37491e-06 0)
(-2.50581e-06 2.33668e-06 0)
(-2.7503e-06 2.29197e-06 0)
(-2.99174e-06 2.24007e-06 0)
(-3.23031e-06 2.1802e-06 0)
(-3.46618e-06 2.11153e-06 0)
(-3.69956e-06 2.03315e-06 0)
(-3.93069e-06 1.94411e-06 0)
(-4.15986e-06 1.8434e-06 0)
(-4.38742e-06 1.72993e-06 0)
(-4.61386e-06 1.60257e-06 0)
(-4.83977e-06 1.46011e-06 0)
(-5.06598e-06 1.30125e-06 0)
(-5.29358e-06 1.12459e-06 0)
(-5.52401e-06 9.28569e-07 0)
(-5.75926e-06 7.11395e-07 0)
(-6.00196e-06 4.70938e-07 0)
(-6.25562e-06 2.04532e-07 0)
(-6.52494e-06 -9.13017e-08 0)
(-6.81607e-06 -4.213e-07 0)
(-7.13705e-06 -7.92131e-07 0)
(-7.49818e-06 -1.21343e-06 0)
(-7.91241e-06 -1.69936e-06 0)
(-8.39544e-06 -2.27107e-06 0)
(-8.96525e-06 -2.96039e-06 0)
(-9.64036e-06 -3.81562e-06 0)
(-1.04353e-05 -4.91059e-06 0)
(-1.13504e-05 -6.35879e-06 0)
(-1.23519e-05 -8.33579e-06 0)
(-1.33314e-05 -1.11147e-05 0)
(-1.40303e-05 -1.51225e-05 0)
(-1.38998e-05 -2.10254e-05 0)
(-1.43446e-07 2.92068e-06 0)
(-4.2799e-07 2.91758e-06 0)
(-7.08051e-07 2.91141e-06 0)
(-9.84031e-07 2.90208e-06 0)
(-1.25631e-06 2.88942e-06 0)
(-1.52525e-06 2.87316e-06 0)
(-1.7912e-06 2.85293e-06 0)
(-2.0545e-06 2.82831e-06 0)
(-2.31547e-06 2.7988e-06 0)
(-2.57446e-06 2.76384e-06 0)
(-2.83179e-06 2.72281e-06 0)
(-3.08779e-06 2.67502e-06 0)
(-3.34283e-06 2.61975e-06 0)
(-3.59726e-06 2.55621e-06 0)
(-3.85147e-06 2.48359e-06 0)
(-4.10588e-06 2.40102e-06 0)
(-4.36096e-06 2.30765e-06 0)
(-4.61724e-06 2.2026e-06 0)
(-4.87535e-06 2.08501e-06 0)
(-5.13605e-06 1.95408e-06 0)
(-5.40031e-06 1.80908e-06 0)
(-5.66936e-06 1.6494e-06 0)
(-5.94488e-06 1.47463e-06 0)
(-6.22911e-06 1.28459e-06 0)
(-6.52517e-06 1.07941e-06 0)
(-6.83741e-06 8.59642e-07 0)
(-7.17204e-06 6.26361e-07 0)
(-7.53788e-06 3.81262e-07 0)
(-7.94767e-06 1.26802e-07 0)
(-8.41994e-06 -1.33661e-07 0)
(-8.98191e-06 -3.95696e-07 0)
(-9.6741e-06 -6.53588e-07 0)
(-1.05577e-05 -9.00046e-07 0)
(-1.17265e-05 -1.12573e-06 0)
(-1.3327e-05 -1.31843e-06 0)
(-1.55915e-05 -1.46168e-06 0)
(-1.88949e-05 -1.53223e-06 0)
(-2.38508e-05 -1.49557e-06 0)
(-3.14748e-05 -1.29829e-06 0)
(-4.30611e-05 -9.74963e-07 0)
(-1.45513e-07 3.33799e-06 0)
(-4.3425e-07 3.33555e-06 0)
(-7.187e-07 3.33069e-06 0)
(-9.99434e-07 3.3233e-06 0)
(-1.27699e-06 3.31321e-06 0)
(-1.55188e-06 3.30014e-06 0)
(-1.82461e-06 3.28377e-06 0)
(-2.09567e-06 3.26367e-06 0)
(-2.36553e-06 3.23938e-06 0)
(-2.63468e-06 3.21038e-06 0)
(-2.90362e-06 3.1761e-06 0)
(-3.17283e-06 3.13589e-06 0)
(-3.44281e-06 3.08909e-06 0)
(-3.71409e-06 3.03499e-06 0)
(-3.98716e-06 2.97285e-06 0)
(-4.26258e-06 2.90191e-06 0)
(-4.54087e-06 2.82142e-06 0)
(-4.82259e-06 2.73065e-06 0)
(-5.10831e-06 2.62894e-06 0)
(-5.39859e-06 2.51575e-06 0)
(-5.69406e-06 2.3907e-06 0)
(-5.99536e-06 2.25371e-06 0)
(-6.30324e-06 2.10512e-06 0)
(-6.61856e-06 1.94587e-06 0)
(-6.9424e-06 1.77774e-06 0)
(-7.27619e-06 1.60372e-06 0)
(-7.62185e-06 1.42848e-06 0)
(-7.98202e-06 1.25898e-06 0)
(-8.36033e-06 1.10542e-06 0)
(-8.76162e-06 9.82439e-07 0)
(-9.19206e-06 9.10872e-07 0)
(-9.65884e-06 9.2025e-07 0)
(-1.01689e-05 1.05243e-06 0)
(-1.07258e-05 1.36697e-06 0)
(-1.13219e-05 1.94925e-06 0)
(-1.19238e-05 2.92299e-06 0)
(-1.24421e-05 4.46969e-06 0)
(-1.26754e-05 6.85938e-06 0)
(-1.22065e-05 1.04993e-05 0)
(-8.56303e-06 1.55931e-05 0)
(-1.46996e-07 3.76042e-06 0)
(-4.38754e-07 3.7589e-06 0)
(-7.26413e-07 3.75585e-06 0)
(-1.01069e-06 3.75116e-06 0)
(-1.29226e-06 3.74464e-06 0)
(-1.57177e-06 3.73604e-06 0)
(-1.84986e-06 3.72504e-06 0)
(-2.12715e-06 3.71128e-06 0)
(-2.40425e-06 3.69434e-06 0)
(-2.68179e-06 3.67374e-06 0)
(-2.96039e-06 3.64896e-06 0)
(-3.24068e-06 3.61946e-06 0)
(-3.5233e-06 3.58462e-06 0)
(-3.8089e-06 3.54381e-06 0)
(-4.0981e-06 3.49634e-06 0)
(-4.39154e-06 3.44153e-06 0)
(-4.6898e-06 3.37865e-06 0)
(-4.99344e-06 3.30699e-06 0)
(-5.30291e-06 3.22587e-06 0)
(-5.61854e-06 3.13467e-06 0)
(-5.94048e-06 3.03288e-06 0)
(-6.26859e-06 2.92022e-06 0)
(-6.60237e-06 2.7967e-06 0)
(-6.94083e-06 2.66282e-06 0)
(-7.28225e-06 2.51977e-06 0)
(-7.62401e-06 2.36977e-06 0)
(-7.96223e-06 2.21648e-06 0)
(-8.29143e-06 2.06554e-06 0)
(-8.60393e-06 1.92538e-06 0)
(-8.88926e-06 1.80804e-06 0)
(-9.13321e-06 1.73039e-06 0)
(-9.3167e-06 1.7153e-06 0)
(-9.41424e-06 1.79288e-06 0)
(-9.39204e-06 2.0013e-06 0)
(-9.20565e-06 2.38643e-06 0)
(-8.79752e-06 2.99918e-06 0)
(-8.09519e-06 3.88812e-06 0)
(-7.01246e-06 5.08361e-06 0)
(-5.45862e-06 6.56752e-06 0)
(-2.83368e-06 7.72095e-06 0)
(-1.4772e-07 4.18604e-06 0)
(-4.40979e-07 4.18566e-06 0)
(-7.30307e-07 4.18486e-06 0)
(-1.01654e-06 4.1835e-06 0)
(-1.30047e-06 4.1814e-06 0)
(-1.58285e-06 4.17833e-06 0)
(-1.86443e-06 4.17402e-06 0)
(-2.14593e-06 4.16815e-06 0)
(-2.42809e-06 4.16035e-06 0)
(-2.71164e-06 4.15023e-06 0)
(-2.99732e-06 4.13735e-06 0)
(-3.2859e-06 4.12125e-06 0)
(-3.57814e-06 4.10139e-06 0)
(-3.87482e-06 4.07724e-06 0)
(-4.17672e-06 4.04817e-06 0)
(-4.48461e-06 4.01353e-06 0)
(-4.79922e-06 3.97261e-06 0)
(-5.12122e-06 3.92462e-06 0)
(-5.45117e-06 3.86872e-06 0)
(-5.78944e-06 3.80397e-06 0)
(-6.13614e-06 3.72935e-06 0)
(-6.49096e-06 3.64375e-06 0)
(-6.85303e-06 3.54596e-06 0)
(-7.22063e-06 3.43469e-06 0)
(-7.59088e-06 3.30857e-06 0)
(-7.9593e-06 3.16621e-06 0)
(-8.31923e-06 3.00626e-06 0)
(-8.6611e-06 2.82758e-06 0)
(-8.97153e-06 2.62941e-06 0)
(-9.23226e-06 2.41175e-06 0)
(-9.41897e-06 2.17587e-06 0)
(-9.5002e-06 1.92507e-06 0)
(-9.43655e-06 1.66578e-06 0)
(-9.18076e-06 1.40898e-06 0)
(-8.67944e-06 1.17195e-06 0)
(-7.8775e-06 9.80196e-07 0)
(-6.72672e-06 8.68817e-07 0)
(-5.19949e-06 8.81897e-07 0)
(-3.30738e-06 1.06689e-06 0)
(-1.17826e-06 1.35768e-06 0)
(-1.47542e-07 4.61244e-06 0)
(-4.40495e-07 4.61338e-06 0)
(-7.29663e-07 4.61515e-06 0)
(-1.01597e-06 4.61761e-06 0)
(-1.30028e-06 4.62059e-06 0)
(-1.58343e-06 4.62389e-06 0)
(-1.86625e-06 4.62727e-06 0)
(-2.14954e-06 4.63048e-06 0)
(-2.43412e-06 4.63323e-06 0)
(-2.7208e-06 4.63522e-06 0)
(-3.01043e-06 4.63612e-06 0)
(-3.30388e-06 4.63557e-06 0)
(-3.60204e-06 4.63317e-06 0)
(-3.90582e-06 4.62849e-06 0)
(-4.21618e-06 4.62104e-06 0)
(-4.5341e-06 4.61026e-06 0)
(-4.86055e-06 4.5955e-06 0)
(-5.19654e-06 4.576e-06 0)
(-5.54301e-06 4.55081e-06 0)
(-5.90085e-06 4.51879e-06 0)
(-6.27083e-06 4.47849e-06 0)
(-6.65348e-06 4.42807e-06 0)
(-7.04901e-06 4.36516e-06 0)
(-7.45707e-06 4.28666e-06 0)
(-7.87656e-06 4.18854e-06 0)
(-8.30518e-06 4.06544e-06 0)
(-8.7389e-06 3.91034e-06 0)
(-9.17124e-06 3.71398e-06 0)
(-9.59212e-06 3.46428e-06 0)
(-9.98633e-06 3.14556e-06 0)
(-1.03314e-05 2.7379e-06 0)
(-1.05949e-05 2.21661e-06 0)
(-1.07304e-05 1.55237e-06 0)
(-1.06737e-05 7.12942e-07 0)
(-1.03377e-05 -3.32157e-07 0)
(-9.61105e-06 -1.60093e-06 0)
(-8.36134e-06 -3.0772e-06 0)
(-6.45609e-06 -4.66924e-06 0)
(-3.81903e-06 -6.13368e-06 0)
(-7.27662e-07 -6.25175e-06 0)
(-1.46359e-07 5.03689e-06 0)
(-4.36995e-07 5.03924e-06 0)
(-7.23965e-07 5.0438e-06 0)
(-1.00824e-06 5.05041e-06 0)
(-1.29072e-06 5.0589e-06 0)
(-1.57231e-06 5.0691e-06 0)
(-1.85385e-06 5.08082e-06 0)
(-2.13619e-06 5.09389e-06 0)
(-2.42021e-06 5.1081e-06 0)
(-2.70676e-06 5.12327e-06 0)
(-2.99675e-06 5.1392e-06 0)
(-3.29111e-06 5.15566e-06 0)
(-3.59082e-06 5.17244e-06 0)
(-3.89693e-06 5.18927e-06 0)
(-4.21054e-06 5.20589e-06 0)
(-4.53282e-06 5.22194e-06 0)
(-4.86506e-06 5.23701e-06 0)
(-5.20864e-06 5.25057e-06 0)
(-5.56506e-06 5.26193e-06 0)
(-5.93599e-06 5.27016e-06 0)
(-6.32326e-06 5.27401e-06 0)
(-6.72891e-06 5.27178e-06 0)
(-7.15524e-06 5.26112e-06 0)
(-7.60488e-06 5.23881e-06 0)
(-8.08081e-06 5.20035e-06 0)
(-8.58647e-06 5.13952e-06 0)
(-9.12577e-06 5.04762e-06 0)
(-9.70312e-06 4.9125e-06 0)
(-1.03232e-05 4.71705e-06 0)
(-1.09906e-05 4.43714e-06 0)
(-1.1708e-05 4.0384e-06 0)
(-1.24737e-05 3.47159e-06 0)
(-1.32755e-05 2.66549e-06 0)
(-1.40781e-05 1.51602e-06 0)
(-1.47996e-05 -1.30542e-07 0)
(-1.5267e-05 -2.50383e-06 0)
(-1.51317e-05 -5.95072e-06 0)
(-1.37161e-05 -1.10008e-05 0)
(-9.73387e-06 -1.84706e-05 0)
(-2.74592e-06 -2.2234e-05 0)
(-1.44115e-07 5.45638e-06 0)
(-4.30305e-07 5.46019e-06 0)
(-7.12922e-07 5.46764e-06 0)
(-9.92939e-07 5.47852e-06 0)
(-1.27127e-06 5.4927e-06 0)
(-1.54881e-06 5.51002e-06 0)
(-1.8264e-06 5.53035e-06 0)
(-2.10491e-06 5.55357e-06 0)
(-2.38518e-06 5.57961e-06 0)
(-2.6681e-06 5.60837e-06 0)
(-2.95456e-06 5.63981e-06 0)
(-3.24551e-06 5.67387e-06 0)
(-3.54195e-06 5.71055e-06 0)
(-3.84495e-06 5.74981e-06 0)
(-4.15568e-06 5.79168e-06 0)
(-4.47543e-06 5.83613e-06 0)
(-4.80563e-06 5.88315e-06 0)
(-5.1479e-06 5.93272e-06 0)
(-5.50412e-06 5.98473e-06 0)
(-5.87648e-06 6.03902e-06 0)
(-6.2676e-06 6.09528e-06 0)
(-6.68066e-06 6.15305e-06 0)
(-7.11961e-06 6.21157e-06 0)
(-7.58946e-06 6.26976e-06 0)
(-8.09667e-06 6.32601e-06 0)
(-8.64976e-06 6.37806e-06 0)
(-9.26023e-06 6.4227e-06 0)
(-9.94391e-06 6.45549e-06 0)
(-1.07231e-05 6.4703e-06 0)
(-1.16299e-05 6.45871e-06 0)
(-1.27117e-05 6.40908e-06 0)
(-1.40401e-05 6.30536e-06 0)
(-1.57258e-05 6.12518e-06 0)
(-1.79441e-05 5.83706e-06 0)
(-2.09782e-05 5.39603e-06 0)
(-2.52937e-05 4.73693e-06 0)
(-3.16681e-05 3.76374e-06 0)
(-4.14146e-05 2.33271e-06 0)
(-5.66907e-05 6.71997e-09 0)
(-3.21147e-05 -1.93911e-05 0)
(-1.40798e-07 5.86784e-06 0)
(-4.20398e-07 5.8731e-06 0)
(-6.96489e-07 5.88339e-06 0)
(-9.70012e-07 5.8985e-06 0)
(-1.24185e-06 5.91828e-06 0)
(-1.51285e-06 5.9426e-06 0)
(-1.78382e-06 5.97138e-06 0)
(-2.05558e-06 6.00458e-06 0)
(-2.32894e-06 6.0422e-06 0)
(-2.6047e-06 6.08426e-06 0)
(-2.88371e-06 6.13086e-06 0)
(-3.16685e-06 6.18211e-06 0)
(-3.45504e-06 6.23821e-06 0)
(-3.74927e-06 6.29938e-06 0)
(-4.05063e-06 6.36594e-06 0)
(-4.36031e-06 6.43826e-06 0)
(-4.67964e-06 6.51679e-06 0)
(-5.01016e-06 6.60208e-06 0)
(-5.35364e-06 6.69481e-06 0)
(-5.71217e-06 6.79575e-06 0)
(-6.08826e-06 6.90589e-06 0)
(-6.48497e-06 7.02642e-06 0)
(-6.90605e-06 7.15884e-06 0)
(-7.35619e-06 7.30505e-06 0)
(-7.8413e-06 7.46757e-06 0)
(-8.36888e-06 7.64979e-06 0)
(-8.9485e-06 7.85641e-06 0)
(-9.5924e-06 8.09407e-06 0)
(-1.03162e-05 8.37244e-06 0)
(-1.11394e-05 8.70581e-06 0)
(-1.20866e-05 9.1157e-06 0)
(-1.31867e-05 9.63492e-06 0)
(-1.44723e-05 1.03141e-05 0)
(-1.59746e-05 1.12324e-05 0)
(-1.77121e-05 1.25139e-05 0)
(-1.96655e-05 1.43556e-05 0)
(-2.17265e-05 1.70716e-05 0)
(-2.35958e-05 2.11648e-05 0)
(-2.06132e-05 2.62097e-05 0)
(-5.39304e-06 -1.12361e-06 0)
(-1.36446e-07 6.26822e-06 0)
(-4.07381e-07 6.27486e-06 0)
(-6.74854e-07 6.28783e-06 0)
(-9.39733e-07 6.30693e-06 0)
(-1.20283e-06 6.33198e-06 0)
(-1.46492e-06 6.36289e-06 0)
(-1.72674e-06 6.39959e-06 0)
(-1.98902e-06 6.44211e-06 0)
(-2.25246e-06 6.4905e-06 0)
(-2.51778e-06 6.54488e-06 0)
(-2.78569e-06 6.60546e-06 0)
(-3.05693e-06 6.67248e-06 0)
(-3.33225e-06 6.74631e-06 0)
(-3.61245e-06 6.82737e-06 0)
(-3.89837e-06 6.91622e-06 0)
(-4.19093e-06 7.01354e-06 0)
(-4.4911e-06 7.12015e-06 0)
(-4.8e-06 7.23707e-06 0)
(-5.11884e-06 7.36555e-06 0)
(-5.44902e-06 7.50712e-06 0)
(-5.79209e-06 7.66369e-06 0)
(-6.14988e-06 7.83762e-06 0)
(-6.52445e-06 8.03191e-06 0)
(-6.91813e-06 8.25032e-06 0)
(-7.33356e-06 8.49771e-06 0)
(-7.77357e-06 8.7803e-06 0)
(-8.24111e-06 9.10621e-06 0)
(-8.73887e-06 9.486e-06 0)
(-9.26878e-06 9.93352e-06 0)
(-9.83102e-06 1.04669e-05 0)
(-1.04224e-05 1.11099e-05 0)
(-1.10338e-05 1.18932e-05 0)
(-1.16462e-05 1.28561e-05 0)
(-1.22248e-05 1.40473e-05 0)
(-1.27111e-05 1.55253e-05 0)
(-1.3012e-05 1.73549e-05 0)
(-1.29887e-05 1.95982e-05 0)
(-1.24465e-05 2.22923e-05 0)
(-7.62768e-06 2.19376e-05 0)
(-1.07593e-06 1.72418e-06 0)
(-1.31135e-07 6.65466e-06 0)
(-3.91491e-07 6.66253e-06 0)
(-6.48417e-07 6.67793e-06 0)
(-9.02682e-07 6.70062e-06 0)
(-1.155e-06 6.73042e-06 0)
(-1.40605e-06 6.76722e-06 0)
(-1.65645e-06 6.81099e-06 0)
(-1.90683e-06 6.86177e-06 0)
(-2.15775e-06 6.91964e-06 0)
(-2.40979e-06 6.98479e-06 0)
(-2.6635e-06 7.05748e-06 0)
(-2.91941e-06 7.13803e-06 0)
(-3.17806e-06 7.22688e-06 0)
(-3.43998e-06 7.32458e-06 0)
(-3.70568e-06 7.43179e-06 0)
(-3.97568e-06 7.54934e-06 0)
(-4.25047e-06 7.67821e-06 0)
(-4.53055e-06 7.81962e-06 0)
(-4.81637e-06 7.97502e-06 0)
(-5.10838e-06 8.14618e-06 0)
(-5.40692e-06 8.33527e-06 0)
(-5.71224e-06 8.54489e-06 0)
(-6.02442e-06 8.77824e-06 0)
(-6.34324e-06 9.03919e-06 0)
(-6.66807e-06 9.33245e-06 0)
(-6.99762e-06 9.66372e-06 0)
(-7.32962e-06 1.00399e-05 0)
(-7.66038e-06 1.0469e-05 0)
(-7.98419e-06 1.09608e-05 0)
(-8.29248e-06 1.15262e-05 0)
(-8.57285e-06 1.21774e-05 0)
(-8.8078e-06 1.29272e-05 0)
(-8.97345e-06 1.37879e-05 0)
(-9.03832e-06 1.47693e-05 0)
(-8.96263e-06 1.58753e-05 0)
(-8.69895e-06 1.70989e-05 0)
(-8.19513e-06 1.84153e-05 0)
(-7.40129e-06 1.97725e-05 0)
(-4.14911e-06 1.56017e-05 0)
(-4.52642e-07 3.68654e-07 0)
(-1.24978e-07 7.02453e-06 0)
(-3.73064e-07 7.03346e-06 0)
(-6.1775e-07 7.05096e-06 0)
(-8.59685e-07 7.07674e-06 0)
(-1.09947e-06 7.1106e-06 0)
(-1.33765e-06 7.15241e-06 0)
(-1.57474e-06 7.20215e-06 0)
(-1.81123e-06 7.25984e-06 0)
(-2.04754e-06 7.32558e-06 0)
(-2.28408e-06 7.39956e-06 0)
(-2.52123e-06 7.48203e-06 0)
(-2.75933e-06 7.57333e-06 0)
(-2.99865e-06 7.6739e-06 0)
(-3.23945e-06 7.78426e-06 0)
(-3.48191e-06 7.90507e-06 0)
(-3.72614e-06 8.03709e-06 0)
(-3.97218e-06 8.18127e-06 0)
(-4.21992e-06 8.33869e-06 0)
(-4.46915e-06 8.51066e-06 0)
(-4.71944e-06 8.6987e-06 0)
(-4.97014e-06 8.9046e-06 0)
(-5.22029e-06 9.13047e-06 0)
(-5.46852e-06 9.37873e-06 0)
(-5.71297e-06 9.65217e-06 0)
(-5.9511e-06 9.95398e-06 0)
(-6.17954e-06 1.02877e-05 0)
(-6.39389e-06 1.06572e-05 0)
(-6.58845e-06 1.10665e-05 0)
(-6.75598e-06 1.15197e-05 0)
(-6.88746e-06 1.20206e-05 0)
(-6.97187e-06 1.2572e-05 0)
(-6.99613e-06 1.3175e-05 0)
(-6.94523e-06 1.38283e-05 0)
(-6.80274e-06 1.45266e-05 0)
(-6.55184e-06 1.52592e-05 0)
(-6.177e-06 1.60083e-05 0)
(-5.66653e-06 1.67479e-05 0)
(-5.01573e-06 1.74429e-05 0)
(-2.72487e-06 1.17884e-05 0)
(-2.33962e-07 1.4288e-07 0)
(-1.1811e-07 7.37558e-06 0)
(-3.52511e-07 7.3854e-06 0)
(-5.83548e-07 7.4046e-06 0)
(-8.11739e-07 7.43288e-06 0)
(-1.03756e-06 7.47001e-06 0)
(-1.26143e-06 7.51585e-06 0)
(-1.48374e-06 7.57032e-06 0)
(-1.70484e-06 7.63343e-06 0)
(-1.92502e-06 7.70526e-06 0)
(-2.14453e-06 7.78595e-06 0)
(-2.36359e-06 7.87571e-06 0)
(-2.58235e-06 7.97481e-06 0)
(-2.80088e-06 8.08362e-06 0)
(-3.01919e-06 8.20256e-06 0)
(-3.23721e-06 8.33214e-06 0)
(-3.45473e-06 8.47294e-06 0)
(-3.67142e-06 8.62567e-06 0)
(-3.8868e-06 8.79108e-06 0)
(-4.10017e-06 8.97008e-06 0)
(-4.3106e-06 9.16365e-06 0)
(-4.51684e-06 9.37289e-06 0)
(-4.71733e-06 9.599e-06 0)
(-4.91003e-06 9.84327e-06 0)
(-5.09243e-06 1.0107e-05 0)
(-5.26142e-06 1.03917e-05 0)
(-5.41325e-06 1.06985e-05 0)
(-5.5434e-06 1.10287e-05 0)
(-5.64659e-06 1.13831e-05 0)
(-5.71676e-06 1.17621e-05 0)
(-5.74713e-06 1.21653e-05 0)
(-5.73035e-06 1.25912e-05 0)
(-5.65883e-06 1.3037e-05 0)
(-5.52514e-06 1.3498e-05 0)
(-5.3227e-06 1.39674e-05 0)
(-5.04658e-06 1.44357e-05 0)
(-4.69448e-06 1.4891e-05 0)
(-4.26775e-06 1.53188e-05 0)
(-3.7724e-06 1.57028e-05 0)
(-2.02046e-06 9.46049e-06 0)
(-1.19759e-07 7.83801e-08 0)
(-1.10681e-07 7.706e-06 0)
(-3.30283e-07 7.71647e-06 0)
(-5.4657e-07 7.73697e-06 0)
(-7.59929e-07 7.76715e-06 0)
(-9.70706e-07 7.80673e-06 0)
(-1.17921e-06 7.85554e-06 0)
(-1.3857e-06 7.91348e-06 0)
(-1.5904e-06 7.9805e-06 0)
(-1.79349e-06 8.05663e-06 0)
(-1.9951e-06 8.14194e-06 0)
(-2.19529e-06 8.23657e-06 0)
(-2.39408e-06 8.34068e-06 0)
(-2.5914e-06 8.45452e-06 0)
(-2.7871e-06 8.57833e-06 0)
(-2.98093e-06 8.71244e-06 0)
(-3.17253e-06 8.85717e-06 0)
(-3.36139e-06 9.01288e-06 0)
(-3.54683e-06 9.17996e-06 0)
(-3.72799e-06 9.35879e-06 0)
(-3.90375e-06 9.54973e-06 0)
(-4.07276e-06 9.75313e-06 0)
(-4.23332e-06 9.96925e-06 0)
(-4.38342e-06 1.01983e-05 0)
(-4.52061e-06 1.04403e-05 0)
(-4.64205e-06 1.0695e-05 0)
(-4.74443e-06 1.09622e-05 0)
(-4.82399e-06 1.1241e-05 0)
(-4.87653e-06 1.15304e-05 0)
(-4.89753e-06 1.18287e-05 0)
(-4.88221e-06 1.21338e-05 0)
(-4.82578e-06 1.2443e-05 0)
(-4.72372e-06 1.27529e-05 0)
(-4.57216e-06 1.30597e-05 0)
(-4.36835e-06 1.33589e-05 0)
(-4.11124e-06 1.36459e-05 0)
(-3.80199e-06 1.39159e-05 0)
(-3.44453e-06 1.41641e-05 0)
(-3.04585e-06 1.43863e-05 0)
(-1.6096e-06 7.87271e-06 0)
(-4.72069e-08 5.20874e-08 0)
(-1.02844e-07 8.01436e-06 0)
(-3.06841e-07 8.02529e-06 0)
(-5.07592e-07 8.04668e-06 0)
(-7.05358e-07 8.07813e-06 0)
(-9.00364e-07 8.11936e-06 0)
(-1.0928e-06 8.17014e-06 0)
(-1.28284e-06 8.23033e-06 0)
(-1.47058e-06 8.29982e-06 0)
(-1.65611e-06 8.37858e-06 0)
(-1.83946e-06 8.4666e-06 0)
(-2.02061e-06 8.56393e-06 0)
(-2.19948e-06 8.67062e-06 0)
(-2.37593e-06 8.78676e-06 0)
(-2.54973e-06 8.91246e-06 0)
(-2.72059e-06 9.04779e-06 0)
(-2.88809e-06 9.19285e-06 0)
(-3.05172e-06 9.34768e-06 0)
(-3.21083e-06 9.51228e-06 0)
(-3.36462e-06 9.68659e-06 0)
(-3.51211e-06 9.87043e-06 0)
(-3.65215e-06 1.00635e-05 0)
(-3.78335e-06 1.02653e-05 0)
(-3.9041e-06 1.04752e-05 0)
(-4.01251e-06 1.06922e-05 0)
(-4.10642e-06 1.0915e-05 0)
(-4.18337e-06 1.11421e-05 0)
(-4.2406e-06 1.13715e-05 0)
(-4.27502e-06 1.16006e-05 0)
(-4.28326e-06 1.18267e-05 0)
(-4.2617e-06 1.20467e-05 0)
(-4.20651e-06 1.2257e-05 0)
(-4.11379e-06 1.24543e-05 0)
(-3.97977e-06 1.26353e-05 0)
(-3.80106e-06 1.27978e-05 0)
(-3.57513e-06 1.29405e-05 0)
(-3.301e-06 1.30645e-05 0)
(-2.98014e-06 1.31733e-05 0)
(-2.61777e-06 1.32737e-05 0)
(-1.35494e-06 6.63643e-06 0)
(3.84741e-09 3.88014e-08 0)
(-9.47501e-08 8.29972e-06 0)
(-2.82636e-07 8.31091e-06 0)
(-4.67367e-07 8.33279e-06 0)
(-6.49086e-07 8.36495e-06 0)
(-8.27909e-07 8.40705e-06 0)
(-1.00393e-06 8.45886e-06 0)
(-1.17722e-06 8.52017e-06 0)
(-1.3478e-06 8.59082e-06 0)
(-1.51569e-06 8.67073e-06 0)
(-1.68085e-06 8.75981e-06 0)
(-1.8432e-06 8.85801e-06 0)
(-2.00263e-06 8.9653e-06 0)
(-2.15896e-06 9.08164e-06 0)
(-2.312e-06 9.20698e-06 0)
(-2.46145e-06 9.34124e-06 0)
(-2.60697e-06 9.48432e-06 0)
(-2.74818e-06 9.63601e-06 0)
(-2.88457e-06 9.79607e-06 0)
(-3.0156e-06 9.9641e-06 0)
(-3.14062e-06 1.01396e-05 0)
(-3.2589e-06 1.03218e-05 0)
(-3.36961e-06 1.05098e-05 0)
(-3.47183e-06 1.07024e-05 0)
(-3.56451e-06 1.0898e-05 0)
(-3.6465e-06 1.10947e-05 0)
(-3.71649e-06 1.12902e-05 0)
(-3.77297e-06 1.14815e-05 0)
(-3.8142e-06 1.16652e-05 0)
(-3.83809e-06 1.18373e-05 0)
(-3.84205e-06 1.19933e-05 0)
(-3.82281e-06 1.21281e-05 0)
(-3.77612e-06 1.22362e-05 0)
(-3.69642e-06 1.23122e-05 0)
(-3.57644e-06 1.23512e-05 0)
(-3.40687e-06 1.23499e-05 0)
(-3.17631e-06 1.2308e-05 0)
(-2.87183e-06 1.22309e-05 0)
(-2.48096e-06 1.21336e-05 0)
(-1.23555e-06 5.39463e-06 0)
(4.50821e-08 3.00739e-08 0)
(-8.65396e-08 8.56153e-06 0)
(-2.58089e-07 8.57279e-06 0)
(-4.26596e-07 8.5948e-06 0)
(-5.92096e-07 8.62713e-06 0)
(-7.54608e-07 8.66943e-06 0)
(-9.14141e-07 8.72141e-06 0)
(-1.07068e-06 8.78283e-06 0)
(-1.2242e-06 8.85351e-06 0)
(-1.37464e-06 8.93329e-06 0)
(-1.52194e-06 9.02204e-06 0)
(-1.66598e-06 9.11963e-06 0)
(-1.80665e-06 9.22596e-06 0)
(-1.94379e-06 9.3409e-06 0)
(-2.07723e-06 9.46432e-06 0)
(-2.20678e-06 9.59603e-06 0)
(-2.3322e-06 9.73581e-06 0)
(-2.45327e-06 9.88336e-06 0)
(-2.56974e-06 1.00383e-05 0)
(-2.68137e-06 1.02001e-05 0)
(-2.78792e-06 1.03681e-05 0)
(-2.88917e-06 1.05415e-05 0)
(-2.98496e-06 1.07193e-05 0)
(-3.07517e-06 1.09e-05 0)
(-3.15977e-06 1.10821e-05 0)
(-3.23882e-06 1.12636e-05 0)
(-3.31248e-06 1.14418e-05 0)
(-3.38103e-06 1.16137e-05 0)
(-3.44481e-06 1.17756e-05 0)
(-3.50412e-06 1.19226e-05 0)
(-3.55908e-06 1.2049e-05 0)
(-3.60928e-06 1.21476e-05 0)
(-3.65318e-06 1.22094e-05 0)
(-3.6872e-06 1.2223e-05 0)
(-3.70409e-06 1.21744e-05 0)
(-3.69034e-06 1.20455e-05 0)
(-3.622e-06 1.18138e-05 0)
(-3.45807e-06 1.14513e-05 0)
(-3.12987e-06 1.09233e-05 0)
(-1.5333e-06 3.49549e-06 0)
(7.72689e-08 1.82031e-08 0)
(-7.83412e-08 8.79965e-06 0)
(-2.33584e-07 8.81081e-06 0)
(-3.85916e-07 8.83263e-06 0)
(-5.35274e-07 8.86465e-06 0)
(-6.81594e-07 8.90652e-06 0)
(-8.24806e-07 8.95792e-06 0)
(-9.64836e-07 9.01858e-06 0)
(-1.1016e-06 9.08829e-06 0)
(-1.235e-06 9.16685e-06 0)
(-1.36493e-06 9.2541e-06 0)
(-1.49129e-06 9.34986e-06 0)
(-1.61394e-06 9.45399e-06 0)
(-1.73277e-06 9.56633e-06 0)
(-1.84765e-06 9.68669e-06 0)
(-1.95847e-06 9.81486e-06 0)
(-2.06512e-06 9.9506e-06 0)
(-2.16754e-06 1.00936e-05 0)
(-2.26568e-06 1.02435e-05 0)
(-2.35958e-06 1.03999e-05 0)
(-2.44936e-06 1.05621e-05 0)
(-2.53523e-06 1.07296e-05 0)
(-2.6176e-06 1.09015e-05 0)
(-2.69703e-06 1.10768e-05 0)
(-2.77438e-06 1.12542e-05 0)
(-2.85083e-06 1.14324e-05 0)
(-2.92799e-06 1.16096e-05 0)
(-3.00802e-06 1.17836e-05 0)
(-3.09377e-06 1.19516e-05 0)
(-3.18899e-06 1.21105e-05 0)
(-3.29859e-06 1.22557e-05 0)
(-3.42891e-06 1.23815e-05 0)
(-3.5882e-06 1.24803e-05 0)
(-3.78708e-06 1.25412e-05 0)
(-4.03923e-06 1.2549e-05 0)
(-4.36215e-06 1.24812e-05 0)
(-4.77791e-06 1.23049e-05 0)
(-5.31385e-06 1.19701e-05 0)
(-6.00167e-06 1.14e-05 0)
(-3.25628e-06 1.49305e-06 0)
(8.24709e-08 7.7663e-09 0)
(-7.02702e-08 9.01427e-06 0)
(-2.09466e-07 9.02519e-06 0)
(-3.45894e-07 9.04652e-06 0)
(-4.79408e-07 9.07781e-06 0)
(-6.09866e-07 9.1187e-06 0)
(-7.37135e-07 9.16885e-06 0)
(-8.61081e-07 9.22799e-06 0)
(-9.81572e-07 9.29587e-06 0)
(-1.09848e-06 9.37227e-06 0)
(-1.21167e-06 9.45701e-06 0)
(-1.32102e-06 9.54991e-06 0)
(-1.42641e-06 9.6508e-06 0)
(-1.52773e-06 9.75951e-06 0)
(-1.62489e-06 9.87586e-06 0)
(-1.71783e-06 9.99968e-06 0)
(-1.80652e-06 1.01308e-05 0)
(-1.89097e-06 1.02689e-05 0)
(-1.97129e-06 1.04138e-05 0)
(-2.04766e-06 1.05652e-05 0)
(-2.12036e-06 1.07228e-05 0)
(-2.18985e-06 1.08862e-05 0)
(-2.25677e-06 1.10552e-05 0)
(-2.322e-06 1.12292e-05 0)
(-2.38675e-06 1.14079e-05 0)
(-2.45262e-06 1.15909e-05 0)
(-2.52176e-06 1.17778e-05 0)
(-2.597e-06 1.19683e-05 0)
(-2.68213e-06 1.21623e-05 0)
(-2.7822e-06 1.23599e-05 0)
(-2.90403e-06 1.25614e-05 0)
(-3.05694e-06 1.27675e-05 0)
(-3.25392e-06 1.298e-05 0)
(-3.51332e-06 1.32014e-05 0)
(-3.86166e-06 1.34359e-05 0)
(-4.33795e-06 1.36904e-05 0)
(-5.00075e-06 1.39754e-05 0)
(-5.93949e-06 1.43078e-05 0)
(-7.28435e-06 1.47095e-05 0)
(-4.09026e-06 2.11147e-06 0)
(8.33656e-08 8.13474e-09 0)
(-6.24286e-08 9.20591e-06 0)
(-1.86037e-07 9.21645e-06 0)
(-3.07033e-07 9.23704e-06 0)
(-4.25191e-07 9.26724e-06 0)
(-5.40306e-07 9.30666e-06 0)
(-6.52184e-07 9.35498e-06 0)
(-7.6064e-07 9.41191e-06 0)
(-8.65499e-07 9.4772e-06 0)
(-9.66594e-07 9.55062e-06 0)
(-1.06377e-06 9.63197e-06 0)
(-1.15687e-06 9.72107e-06 0)
(-1.24577e-06 9.81775e-06 0)
(-1.33035e-06 9.92186e-06 0)
(-1.41053e-06 1.00333e-05 0)
(-1.48624e-06 1.01518e-05 0)