/*--------------------------------*- C++ -*----------------------------------*\
  =========                 |
  \\      /  F ield         | OpenFOAM: The Open Source CFD Toolbox
   \\    /   O peration     | Website:  https://openfoam.org
    \\  /    A nd           | Version:  10
     \\/     M anipulation  |
\*---------------------------------------------------------------------------*/
FoamFile
{
    format      ascii;
    class       surfaceScalarField;
    location    "0.022";
    object      phi;
}
// * * * * * * * * * * * * * * * * * * * * * * * * * * * * * * * * * * * * * //

dimensions      [0 3 -1 0 0 0 0];

internalField   nonuniform List<scalar> 
7780
(
2.50004e-09
-3.47149e-14
2.50017e-09
-1.09778e-13
2.50036e-09
-1.81392e-13
2.50063e-09
-2.52465e-13
2.50097e-09
-3.23361e-13
2.50137e-09
-3.94368e-13
2.50186e-09
-4.65456e-13
2.5024e-09
-5.3687e-13
2.50303e-09
-6.08529e-13
2.50372e-09
-6.80693e-13
2.5045e-09
-7.53262e-13
2.50533e-09
-8.26531e-13
2.50625e-09
-9.00406e-13
2.50724e-09
-9.75227e-13
2.50831e-09
-1.05091e-12
2.50945e-09
-1.12784e-12
2.51068e-09
-1.20594e-12
2.51197e-09
-1.28564e-12
2.51336e-09
-1.36687e-12
2.51482e-09
-1.45009e-12
2.51638e-09
-1.53525e-12
2.51801e-09
-1.62284e-12
2.51975e-09
-1.71283e-12
2.52156e-09
-1.80572e-12
2.52349e-09
-1.9015e-12
2.5255e-09
-2.00071e-12
2.52763e-09
-2.10336e-12
2.52984e-09
-2.21e-12
2.53219e-09
-2.32067e-12
2.53464e-09
-2.43592e-12
2.53722e-09
-2.55584e-12
2.53991e-09
-2.68097e-12
2.54275e-09
-2.81146e-12
2.54571e-09
-2.94782e-12
2.54883e-09
-3.09026e-12
2.55208e-09
-3.23925e-12
2.5555e-09
-3.39511e-12
2.55907e-09
-3.55821e-12
2.56283e-09
-3.72897e-12
2.56675e-09
-3.9077e-12
2.57087e-09
-4.09492e-12
2.57518e-09
-4.29085e-12
2.5797e-09
-4.49611e-12
2.58443e-09
-4.71079e-12
2.58939e-09
-4.93566e-12
2.59458e-09
-5.17066e-12
2.60002e-09
-5.41671e-12
2.60571e-09
-5.67354e-12
2.61169e-09
-5.94225e-12
2.61793e-09
-6.22233e-12
2.62447e-09
-6.51506e-12
2.63131e-09
-6.81966e-12
2.63847e-09
-7.13757e-12
2.64596e-09
-7.4677e-12
2.6538e-09
-7.81166e-12
2.66199e-09
-8.16798e-12
2.67055e-09
-8.53843e-12
2.6795e-09
-8.92109e-12
2.68883e-09
-9.31788e-12
2.69859e-09
-9.72633e-12
2.70875e-09
-1.01485e-11
2.71937e-09
-1.05813e-11
2.7304e-09
-1.10268e-11
2.74192e-09
-1.14812e-11
2.75387e-09
-1.19467e-11
2.76632e-09
-1.24186e-11
2.77922e-09
-1.28991e-11
2.79264e-09
-1.33826e-11
2.80651e-09
-1.38712e-11
2.82091e-09
-1.43583e-11
2.83574e-09
-1.48459e-11
2.8511e-09
-1.53266e-11
2.86689e-09
-1.58021e-11
2.88319e-09
-1.6264e-11
2.89988e-09
-1.67143e-11
2.91706e-09
-1.71436e-11
2.93458e-09
-1.7554e-11
2.95256e-09
-1.79357e-11
2.97081e-09
-1.82911e-11
2.98945e-09
-1.86101e-11
3.0083e-09
-1.88958e-11
3.02747e-09
-1.91383e-11
3.04676e-09
-1.93417e-11
3.06628e-09
-1.94965e-11
3.08583e-09
-1.96079e-11
3.10551e-09
-1.96676e-11
3.12513e-09
-1.96817e-11
3.14478e-09
-1.96432e-11
3.16428e-09
-1.95593e-11
3.1837e-09
-1.94244e-11
3.20288e-09
-1.92463e-11
3.22189e-09
-1.90207e-11
3.24058e-09
-1.87559e-11
3.25901e-09
-1.8449e-11
3.27705e-09
-1.81081e-11
3.29475e-09
-1.77314e-11
3.31201e-09
-1.73267e-11
3.32886e-09
-1.68929e-11
3.34524e-09
-1.64372e-11
3.36114e-09
-1.59594e-11
3.37655e-09
-1.54655e-11
3.39143e-09
-1.4956e-11
3.40582e-09
-1.44356e-11
3.41964e-09
-1.39056e-11
3.43297e-09
-1.3369e-11
3.4457e-09
-1.28281e-11
3.45796e-09
-1.22838e-11
3.46959e-09
-1.17395e-11
3.48076e-09
-1.11942e-11
3.49129e-09
-1.06522e-11
3.50139e-09
-1.01104e-11
3.51083e-09
-9.57443e-12
3.51987e-09
-9.03881e-12
3.52823e-09
-8.51056e-12
3.53624e-09
-7.98183e-12
3.54353e-09
-7.4612e-12
3.55051e-09
-6.93816e-12
3.55675e-09
-6.42307e-12
3.56272e-09
-5.90258e-12
3.56791e-09
-5.38902e-12
3.57286e-09
-4.86611e-12
3.577e-09
-4.34838e-12
3.58093e-09
-3.8165e-12
3.58399e-09
-3.2874e-12
3.58687e-09
-2.73865e-12
3.58882e-09
-2.18974e-12
3.59061e-09
-1.61505e-12
3.59141e-09
-1.03657e-12
3.59204e-09
-4.25706e-13
3.5916e-09
1.926e-13
3.59099e-09
8.49359e-13
3.58924e-09
1.51655e-12
3.58728e-09
2.227e-12
3.58411e-09
2.94962e-12
3.58069e-09
3.71822e-12
3.57599e-09
4.49877e-12
3.571e-09
5.32511e-12
3.56467e-09
6.1606e-12
3.55798e-09
7.03815e-12
3.54994e-09
7.91914e-12
3.54148e-09
8.83464e-12
3.53166e-09
9.74504e-12
3.52136e-09
1.06789e-11
3.50975e-09
1.15967e-11
3.49761e-09
1.25241e-11
3.48424e-09
1.34233e-11
3.47029e-09
1.43165e-11
3.45524e-09
1.51688e-11
3.43959e-09
1.59992e-11
3.423e-09
1.67772e-11
3.40581e-09
1.75181e-11
3.38785e-09
1.8197e-11
3.36932e-09
1.88258e-11
3.35023e-09
1.93857e-11
3.33061e-09
1.98853e-11
3.31063e-09
2.03123e-11
3.29018e-09
2.06722e-11
3.2696e-09
2.09592e-11
3.2486e-09
2.11755e-11
3.22768e-09
2.13219e-11
3.20641e-09
2.13975e-11
3.18543e-09
2.14087e-11
3.16415e-09
2.13519e-11
3.14335e-09
2.12383e-11
3.12233e-09
2.10617e-11
3.10193e-09
2.08376e-11
3.08136e-09
2.05573e-11
3.06156e-09
2.02394e-11
3.04164e-09
1.98733e-11
3.02258e-09
1.94797e-11
3.00346e-09
1.90463e-11
2.98527e-09
1.85955e-11
2.96705e-09
1.81133e-11
2.94982e-09
1.76232e-11
2.93258e-09
1.71097e-11
2.91635e-09
1.65968e-11
2.90013e-09
1.60682e-11
2.88494e-09
1.55475e-11
2.86975e-09
1.50179e-11
2.85558e-09
1.45027e-11
2.84141e-09
1.39844e-11
2.82823e-09
1.34858e-11
2.81505e-09
1.29891e-11
2.80283e-09
1.25163e-11
2.79058e-09
1.20495e-11
2.77924e-09
1.16098e-11
2.76786e-09
1.11795e-11
2.75733e-09
1.07787e-11
2.74673e-09
1.03898e-11
2.73694e-09
1.0032e-11
2.72704e-09
9.68792e-12
2.7179e-09
9.37611e-12
2.7086e-09
9.07908e-12
2.70003e-09
8.81505e-12
2.69125e-09
8.56601e-12
2.68314e-09
8.35031e-12
2.6749e-09
8.15067e-12
2.66688e-09
7.9784e-12
2.65903e-09
7.84481e-12
7.65994e-12
2.50004e-09
-6.9561e-14
2.50017e-09
-2.19152e-13
2.50037e-09
-3.62126e-13
2.50063e-09
-5.03843e-13
2.50097e-09
-6.45378e-13
2.50138e-09
-7.87057e-13
2.50186e-09
-9.29085e-13
2.50241e-09
-1.07158e-12
2.50303e-09
-1.21472e-12
2.50372e-09
-1.35863e-12
2.50449e-09
-1.50353e-12
2.50533e-09
-1.64957e-12
2.50624e-09
-1.79704e-12
2.50723e-09
-1.94612e-12
2.50829e-09
-2.09715e-12
2.50943e-09
-2.25037e-12
2.51065e-09
-2.40617e-12
2.51194e-09
-2.56483e-12
2.51332e-09
-2.72681e-12
2.51478e-09
-2.8924e-12
2.51633e-09
-3.06215e-12
2.51795e-09
-3.23637e-12
2.51968e-09
-3.41567e-12
2.52149e-09
-3.6004e-12
2.5234e-09
-3.79121e-12
2.5254e-09
-3.98849e-12
2.52752e-09
-4.19296e-12
2.52972e-09
-4.40502e-12
2.53205e-09
-4.62545e-12
2.53448e-09
-4.85467e-12
2.53705e-09
-5.09354e-12
2.53972e-09
-5.34248e-12
2.54254e-09
-5.6024e-12
2.54548e-09
-5.87375e-12
2.54858e-09
-6.15751e-12
2.5518e-09
-6.45411e-12
2.5552e-09
-6.76459e-12
2.55875e-09
-7.08939e-12
2.56248e-09
-7.42962e-12
2.56637e-09
-7.78569e-12
2.57047e-09
-8.15876e-12
2.57474e-09
-8.54923e-12
2.57923e-09
-8.9583e-12
2.58392e-09
-9.38634e-12
2.58885e-09
-9.83459e-12
2.594e-09
-1.03034e-11
2.59941e-09
-1.07939e-11
2.60506e-09
-1.13065e-11
2.61099e-09
-1.18424e-11
2.61719e-09
-1.24017e-11
2.62369e-09
-1.29857e-11
2.63049e-09
-1.35943e-11
2.63761e-09
-1.42288e-11
2.64505e-09
-1.4889e-11
2.65284e-09
-1.55758e-11
2.66099e-09
-1.62889e-11
2.6695e-09
-1.70292e-11
2.67841e-09
-1.77958e-11
2.6877e-09
-1.85894e-11
2.69741e-09
-1.94086e-11
2.70753e-09
-2.02537e-11
2.71811e-09
-2.11229e-11
2.72911e-09
-2.20158e-11
2.74059e-09
-2.29299e-11
2.75252e-09
-2.38642e-11
2.76495e-09
-2.48152e-11
2.77784e-09
-2.57812e-11
2.79125e-09
-2.67575e-11
2.80512e-09
-2.77414e-11
2.81952e-09
-2.87273e-11
2.83438e-09
-2.97112e-11
2.84977e-09
-3.06863e-11
2.86561e-09
-3.16477e-11
2.88196e-09
-3.25873e-11
2.89873e-09
-3.34993e-11
2.91599e-09
-3.43749e-11
2.93362e-09
-3.52076e-11
2.9517e-09
-3.59882e-11
2.97009e-09
-3.67101e-11
2.98887e-09
-3.73644e-11
3.00788e-09
-3.7945e-11
3.02721e-09
-3.8444e-11
3.04668e-09
-3.88567e-11
3.06637e-09
-3.91768e-11
3.08612e-09
-3.94017e-11
3.10598e-09
-3.95273e-11
3.1258e-09
-3.95533e-11
3.14563e-09
-3.94781e-11
3.16532e-09
-3.93041e-11
3.18492e-09
-3.90318e-11
3.20428e-09
-3.86659e-11
3.22344e-09
-3.8209e-11
3.24229e-09
-3.76674e-11
3.26086e-09
-3.70454e-11
3.27904e-09
-3.63503e-11
3.29685e-09
-3.55874e-11
3.31423e-09
-3.47644e-11
3.33117e-09
-3.38869e-11
3.34764e-09
-3.29628e-11
3.36361e-09
-3.19977e-11
3.37909e-09
-3.09988e-11
3.39403e-09
-2.99713e-11
3.40846e-09
-2.89216e-11
3.42233e-09
-2.78545e-11
3.43569e-09
-2.67752e-11
3.44845e-09
-2.56878e-11
3.46072e-09
-2.45962e-11
3.47238e-09
-2.35038e-11
3.48357e-09
-2.24133e-11
3.49413e-09
-2.13275e-11
3.50424e-09
-2.02475e-11
3.51371e-09
-1.91754e-11
3.52277e-09
-1.81112e-11
3.53118e-09
-1.70565e-11
3.53921e-09
-1.60096e-11
3.54657e-09
-1.49718e-11
3.55359e-09
-1.39401e-11
3.55992e-09
-1.2915e-11
3.56594e-09
-1.18922e-11
3.57125e-09
-1.08718e-11
3.57628e-09
-9.84815e-12
3.58058e-09
-8.82086e-12
3.58462e-09
-7.78316e-12
3.58788e-09
-6.73414e-12
3.5909e-09
-5.66601e-12
3.59309e-09
-4.57732e-12
3.59506e-09
-3.45914e-12
3.59614e-09
-2.30951e-12
3.59698e-09
-1.11916e-12
3.59687e-09
1.13228e-13
3.59651e-09
1.39657e-12
3.59511e-09
2.73137e-12
3.59342e-09
4.1254e-12
3.59063e-09
5.57743e-12
3.5875e-09
7.0932e-12
3.58319e-09
8.66888e-12
3.57848e-09
1.03074e-11
3.57254e-09
1.20015e-11
3.56612e-09
1.37506e-11
3.55844e-09
1.55439e-11
3.55022e-09
1.73774e-11
3.54072e-09
1.92364e-11
3.53062e-09
2.11138e-11
3.51928e-09
2.29922e-11
3.50728e-09
2.48624e-11
3.49411e-09
2.6705e-11
3.48026e-09
2.85098e-11
3.46534e-09
3.02573e-11
3.44975e-09
3.19374e-11
3.43322e-09
3.35316e-11
3.41603e-09
3.50316e-11
3.39808e-09
3.64209e-11
3.37952e-09
3.76936e-11
3.36039e-09
3.88366e-11
3.34071e-09
3.98469e-11
3.32066e-09
4.07152e-11
3.30014e-09
4.14417e-11
3.27946e-09
4.2021e-11
3.25839e-09
4.24565e-11
3.23736e-09
4.27464e-11
3.21604e-09
4.28968e-11
3.19494e-09
4.29093e-11
3.17364e-09
4.27922e-11
3.15274e-09
4.25498e-11
3.1317e-09
4.21916e-11
3.11122e-09
4.17243e-11
3.09067e-09
4.1158e-11
3.0708e-09
4.05008e-11
3.05094e-09
3.97631e-11
3.03184e-09
3.89536e-11
3.01279e-09
3.80823e-11
2.99459e-09
3.71585e-11
2.97647e-09
3.61912e-11
2.95924e-09
3.51895e-11
2.94212e-09
3.41616e-11
2.92592e-09
3.31159e-11
2.90984e-09
3.20596e-11
2.89468e-09
3.10003e-11
2.87965e-09
2.99441e-11
2.86553e-09
2.88978e-11
2.85153e-09
2.78661e-11
2.83841e-09
2.68551e-11
2.8254e-09
2.58683e-11
2.81324e-09
2.49109e-11
2.80116e-09
2.39854e-11
2.78989e-09
2.30962e-11
2.77868e-09
2.22448e-11
2.76823e-09
2.14349e-11
2.75779e-09
2.06672e-11
2.74807e-09
1.99447e-11
2.73833e-09
1.92675e-11
2.72925e-09
1.86379e-11
2.72011e-09
1.80553e-11
2.71158e-09
1.75219e-11
2.70296e-09
1.70363e-11
2.69489e-09
1.65997e-11
2.68678e-09
1.62126e-11
2.67883e-09
1.58671e-11
2.67108e-09
1.55979e-11
1.52427e-11
2.50004e-09
-1.04248e-13
2.50017e-09
-3.2776e-13
2.50036e-09
-5.41811e-13
2.50063e-09
-7.5395e-13
2.50097e-09
-9.65756e-13
2.50137e-09
-1.17773e-12
2.50185e-09
-1.39016e-12
2.50239e-09
-1.60323e-12
2.50301e-09
-1.81715e-12
2.5037e-09
-2.03215e-12
2.50446e-09
-2.2485e-12
2.50529e-09
-2.46649e-12
2.5062e-09
-2.68647e-12
2.50718e-09
-2.9088e-12
2.50824e-09
-3.1339e-12
2.50936e-09
-3.3622e-12
2.51057e-09
-3.59422e-12
2.51185e-09
-3.83044e-12
2.51321e-09
-4.07147e-12
2.51465e-09
-4.31787e-12
2.51618e-09
-4.57031e-12
2.51779e-09
-4.82943e-12
2.51949e-09
-5.09596e-12
2.52127e-09
-5.37061e-12
2.52316e-09
-5.6542e-12
2.52513e-09
-5.94747e-12
2.52722e-09
-6.25132e-12
2.52939e-09
-6.56656e-12
2.53168e-09
-6.89416e-12
2.53408e-09
-7.23496e-12
2.5366e-09
-7.59002e-12
2.53923e-09
-7.96023e-12
2.542e-09
-8.34669e-12
2.54489e-09
-8.75036e-12
2.54794e-09
-9.17241e-12
2.55111e-09
-9.6138e-12
2.55445e-09
-1.00758e-11
2.55793e-09
-1.05594e-11
2.5616e-09
-1.10659e-11
2.56542e-09
-1.15963e-11
2.56945e-09
-1.21519e-11
2.57365e-09
-1.27339e-11
2.57806e-09
-1.33435e-11
2.58268e-09
-1.39819e-11
2.58752e-09
-1.46503e-11
2.59259e-09
-1.53499e-11
2.5979e-09
-1.60819e-11
2.60346e-09
-1.68474e-11
2.6093e-09
-1.76477e-11
2.6154e-09
-1.84836e-11
2.6218e-09
-1.93565e-11
2.6285e-09
-2.02671e-11
2.63551e-09
-2.12164e-11
2.64285e-09
-2.22051e-11
2.65054e-09
-2.3234e-11
2.65858e-09
-2.43034e-11
2.66698e-09
-2.54138e-11
2.67578e-09
-2.65651e-11
2.68497e-09
-2.77574e-11
2.69458e-09
-2.89899e-11
2.70461e-09
-3.02622e-11
2.71509e-09
-3.15727e-11
2.72601e-09
-3.29199e-11
2.73742e-09
-3.43015e-11
2.74928e-09
-3.57149e-11
2.76165e-09
-3.71564e-11
2.7745e-09
-3.8622e-11
2.78788e-09
-4.01065e-11
2.80175e-09
-4.16045e-11
2.81616e-09
-4.31088e-11
2.83106e-09
-4.46121e-11
2.84651e-09
-4.61057e-11
2.86244e-09
-4.75801e-11
2.87891e-09
-4.9025e-11
2.89582e-09
-5.04292e-11
2.91326e-09
-5.17808e-11
2.9311e-09
-5.30676e-11
2.94941e-09
-5.4277e-11
2.96807e-09
-5.53962e-11
2.98714e-09
-5.64129e-11
3.00648e-09
-5.73153e-11
3.02615e-09
-5.80926e-11
3.04598e-09
-5.8735e-11
3.06605e-09
-5.92346e-11
3.08619e-09
-5.95846e-11
3.10645e-09
-5.97809e-11
3.12666e-09
-5.98209e-11
3.14689e-09
-5.97044e-11
3.16696e-09
-5.94329e-11
3.18693e-09
-5.90101e-11
3.20664e-09
-5.84411e-11
3.22615e-09
-5.77329e-11
3.24531e-09
-5.68933e-11
3.26417e-09
-5.59317e-11
3.28261e-09
-5.48574e-11
3.30066e-09
-5.36812e-11
3.31825e-09
-5.24135e-11
3.33538e-09
-5.10651e-11
3.352e-09
-4.96464e-11
3.36811e-09
-4.8168e-11
3.38369e-09
-4.66395e-11
3.39872e-09
-4.50707e-11
3.41321e-09
-4.347e-11
3.42712e-09
-4.18459e-11
3.4405e-09
-4.02054e-11
3.45328e-09
-3.85556e-11
3.46554e-09
-3.69018e-11
3.47718e-09
-3.52497e-11
3.48833e-09
-3.36029e-11
3.49886e-09
-3.19657e-11
3.50892e-09
-3.03399e-11
3.51835e-09
-2.87286e-11
3.52736e-09
-2.7132e-11
3.53572e-09
-2.55518e-11
3.54369e-09
-2.39867e-11
3.55101e-09
-2.24371e-11
3.55798e-09
-2.09001e-11
3.56428e-09
-1.93748e-11
3.57027e-09
-1.78568e-11
3.57557e-09
-1.63438e-11
3.5806e-09
-1.483e-11
3.58491e-09
-1.33117e-11
3.58897e-09
-1.17821e-11
3.59229e-09
-1.02356e-11
3.59537e-09
-8.66467e-12
3.59767e-09
-7.06183e-12
3.59973e-09
-5.4181e-12
3.60096e-09
-3.72448e-12
3.60194e-09
-1.9718e-12
3.60202e-09
-1.51124e-13
3.60183e-09
1.74522e-12
3.60066e-09
3.72634e-12
3.59918e-09
5.79729e-12
3.59663e-09
7.96555e-12
3.59372e-09
1.02322e-11
3.58965e-09
1.26013e-11
3.58514e-09
1.50685e-11
3.57941e-09
1.76331e-11
3.57317e-09
2.02845e-11
3.56564e-09
2.30161e-11
3.55752e-09
2.58111e-11
3.5481e-09
2.86569e-11
3.53801e-09
3.15315e-11
3.52664e-09
3.44174e-11
3.51456e-09
3.72891e-11
3.50126e-09
4.01259e-11
3.48722e-09
4.29012e-11
3.47206e-09
4.5593e-11
3.45617e-09
4.81763e-11
3.43931e-09
5.063e-11
3.42175e-09
5.29325e-11
3.40339e-09
5.50657e-11
3.38439e-09
5.7013e-11
3.3648e-09
5.87604e-11
3.34464e-09
6.02976e-11
3.3241e-09
6.16154e-11
3.3031e-09
6.27101e-11
3.28193e-09
6.35775e-11
3.26039e-09
6.42199e-11
3.2389e-09
6.46381e-11
3.21715e-09
6.48397e-11
3.19564e-09
6.48298e-11
3.17395e-09
6.46199e-11
3.15269e-09
6.42187e-11
3.13135e-09
6.36405e-11
3.11058e-09
6.28963e-11
3.0898e-09
6.20025e-11
3.06971e-09
6.09712e-11
3.04969e-09
5.98194e-11
3.03045e-09
5.85599e-11
3.01132e-09
5.72096e-11
2.99304e-09
5.57809e-11
2.97491e-09
5.42898e-11
2.95768e-09
5.27483e-11
2.94061e-09
5.11708e-11
2.92446e-09
4.95681e-11
2.90849e-09
4.79532e-11
2.89343e-09
4.63355e-11
2.87855e-09
4.47261e-11
2.86457e-09
4.31332e-11
2.85076e-09
4.15658e-11
2.83782e-09
4.0031e-11
2.82503e-09
3.85359e-11
2.81307e-09
3.70862e-11
2.80124e-09
3.56876e-11
2.79019e-09
3.43443e-11
2.77923e-09
3.30607e-11
2.76902e-09
3.18401e-11
2.75885e-09
3.06852e-11
2.74938e-09
2.95987e-11
2.73991e-09
2.85822e-11
2.73108e-09
2.76373e-11
2.72221e-09
2.67649e-11
2.71394e-09
2.5966e-11
2.70559e-09
2.52406e-11
2.69777e-09
2.45885e-11
2.68992e-09
2.40116e-11
2.68223e-09
2.34989e-11
2.67473e-09
2.30972e-11
2.25726e-11
2.50004e-09
-1.38703e-13
2.50017e-09
-4.35652e-13
2.50036e-09
-7.20334e-13
2.50062e-09
-1.00245e-12
2.50096e-09
-1.28402e-12
2.50136e-09
-1.5657e-12
2.50184e-09
-1.84782e-12
2.50238e-09
-2.13065e-12
2.50299e-09
-2.41443e-12
2.50367e-09
-2.69946e-12
2.50443e-09
-2.98607e-12
2.50525e-09
-3.27466e-12
2.50615e-09
-3.56567e-12
2.50711e-09
-3.8596e-12
2.50816e-09
-4.15697e-12
2.50926e-09
-4.45841e-12
2.51046e-09
-4.76454e-12
2.51171e-09
-5.07609e-12
2.51306e-09
-5.39379e-12
2.51447e-09
-5.71845e-12
2.51597e-09
-6.05093e-12
2.51755e-09
-6.39211e-12
2.51922e-09
-6.74296e-12
2.52096e-09
-7.10443e-12
2.52281e-09
-7.4776e-12
2.52474e-09
-7.8635e-12
2.52678e-09
-8.2633e-12
2.5289e-09
-8.67812e-12
2.53114e-09
-9.10919e-12
2.53348e-09
-9.55773e-12
2.53594e-09
-1.00251e-11
2.5385e-09
-1.05125e-11
2.54121e-09
-1.10213e-11
2.54402e-09
-1.1553e-11
2.54699e-09
-1.2109e-11
2.55008e-09
-1.26907e-11
2.55333e-09
-1.32997e-11
2.55672e-09
-1.39375e-11
2.56029e-09
-1.46056e-11
2.56401e-09
-1.53055e-11
2.56793e-09
-1.60391e-11
2.57202e-09
-1.68077e-11
2.57632e-09
-1.76131e-11
2.58081e-09
-1.84569e-11
2.58553e-09
-1.93408e-11
2.59047e-09
-2.02663e-11
2.59565e-09
-2.12353e-11
2.60107e-09
-2.22491e-11
2.60676e-09
-2.33095e-11
2.61272e-09
-2.4418e-11
2.61897e-09
-2.5576e-11
2.62551e-09
-2.67849e-11
2.63237e-09
-2.80462e-11
2.63955e-09
-2.93608e-11
2.64707e-09
-3.073e-11
2.65495e-09
-3.21545e-11
2.66319e-09
-3.3635e-11
2.67183e-09
-3.51718e-11
2.68086e-09
-3.67651e-11
2.69031e-09
-3.84143e-11
2.70019e-09
-4.0119e-11
2.71053e-09
-4.18776e-11
2.72131e-09
-4.36886e-11
2.73259e-09
-4.5549e-11
2.74435e-09
-4.74559e-11
2.75663e-09
-4.94047e-11
2.7694e-09
-5.13904e-11
2.78274e-09
-5.34065e-11
2.79658e-09
-5.54457e-11
2.81101e-09
-5.7499e-11
2.82595e-09
-5.95563e-11
2.84149e-09
-6.1606e-11
2.85753e-09
-6.36351e-11
2.87418e-09
-6.56292e-11
2.8913e-09
-6.75725e-11
2.909e-09
-6.94484e-11
2.92715e-09
-7.12389e-11
2.94583e-09
-7.29261e-11
2.9649e-09
-7.44909e-11
2.98443e-09
-7.59156e-11
3.00426e-09
-7.71821e-11
3.02446e-09
-7.82748e-11
3.04487e-09
-7.91784e-11
3.06553e-09
-7.98816e-11
3.08627e-09
-8.03741e-11
3.10715e-09
-8.06502e-11
3.12798e-09
-8.07057e-11
3.14881e-09
-8.05412e-11
3.16948e-09
-8.01587e-11
3.19003e-09
-7.95646e-11
3.21029e-09
-7.87664e-11
3.23031e-09
-7.77752e-11
3.24996e-09
-7.66023e-11
3.26926e-09
-7.5262e-11
3.2881e-09
-7.3768e-11
3.30652e-09
-7.21362e-11
3.32442e-09
-7.03813e-11
3.34183e-09
-6.85194e-11
3.35868e-09
-6.65648e-11
3.37499e-09
-6.45329e-11
3.39072e-09
-6.24369e-11
3.40587e-09
-6.02908e-11
3.42045e-09
-5.81058e-11
3.43442e-09
-5.58941e-11
3.44782e-09
-5.36648e-11
3.46061e-09
-5.14279e-11
3.47285e-09
-4.91903e-11
3.48446e-09
-4.69599e-11
3.49555e-09
-4.47411e-11
3.50602e-09
-4.25401e-11
3.516e-09
-4.0359e-11
3.52536e-09
-3.82019e-11
3.53427e-09
-3.6069e-11
3.54255e-09
-3.39627e-11
3.55043e-09
-3.18812e-11
3.55768e-09
-2.98251e-11
3.56457e-09
-2.77905e-11
3.57081e-09
-2.57763e-11
3.57675e-09
-2.37767e-11
3.58203e-09
-2.17885e-11
3.58704e-09
-1.98041e-11
3.59136e-09
-1.78184e-11
3.59546e-09
-1.58222e-11
3.59884e-09
-1.38077e-11
3.60201e-09
-1.17642e-11
3.60443e-09
-9.6807e-12
3.60666e-09
-7.54463e-12
3.60807e-09
-5.34209e-12
3.60929e-09
-3.05957e-12
3.60961e-09
-6.82873e-13
3.60972e-09
1.79902e-12
3.60884e-09
4.40189e-12
3.6077e-09
7.13321e-12
3.60547e-09
1.0007e-11
3.6029e-09
1.3025e-11
3.59915e-09
1.61965e-11
3.59496e-09
1.95151e-11
3.5895e-09
2.29828e-11
3.58349e-09
2.65835e-11
3.57613e-09
3.03101e-11
3.56812e-09
3.41366e-11
3.55873e-09
3.80467e-11
3.54859e-09
4.20062e-11
3.53708e-09
4.59909e-11
3.52477e-09
4.99616e-11
3.51113e-09
5.3889e-11
3.49666e-09
5.77326e-11
3.48099e-09
6.14613e-11
3.46449e-09
6.50371e-11
3.44695e-09
6.84303e-11
3.42863e-09
7.16088e-11
3.40945e-09
7.45472e-11
3.38958e-09
7.72212e-11
3.36908e-09
7.96119e-11
3.34798e-09
8.17044e-11
3.3265e-09
8.34868e-11
3.30453e-09
8.49541e-11
3.28241e-09
8.61019e-11
3.25993e-09
8.69339e-11
3.23754e-09
8.74528e-11
3.2149e-09
8.767e-11
3.19257e-09
8.7594e-11
3.17009e-09
8.72419e-11
3.1481e-09
8.66268e-11
3.12608e-09
8.57699e-11
3.1047e-09
8.46872e-11
3.08336e-09
8.34021e-11
3.06279e-09
8.19323e-11
3.04234e-09
8.03018e-11
3.02274e-09
7.85288e-11
3.0033e-09
7.66367e-11
2.98479e-09
7.46431e-11
2.96647e-09
7.257e-11
2.94911e-09
7.04339e-11
2.93196e-09
6.82544e-11
2.91578e-09
6.60464e-11
2.89982e-09
6.38272e-11
2.88482e-09
6.16097e-11
2.87003e-09
5.94084e-11
2.85618e-09
5.72345e-11
2.84253e-09
5.50998e-11
2.82978e-09
5.30135e-11
2.8172e-09
5.09849e-11
2.80548e-09
4.90215e-11
2.79389e-09
4.71303e-11
2.78312e-09
4.53171e-11
2.77245e-09
4.3587e-11
2.76253e-09
4.19445e-11
2.75267e-09
4.03927e-11
2.7435e-09
3.8935e-11
2.73436e-09
3.7573e-11
2.72585e-09
3.63092e-11
2.71731e-09
3.51439e-11
2.70937e-09
3.40785e-11
2.70135e-09
3.31128e-11
2.69386e-09
3.22465e-11
2.68634e-09
3.14814e-11
2.67898e-09
3.08041e-11
2.67179e-09
3.02736e-11
2.95868e-11
2.50004e-09
-1.72946e-13
2.50016e-09
-5.42762e-13
2.50036e-09
-8.97605e-13
2.50062e-09
-1.24918e-12
2.50095e-09
-1.59993e-12
2.50135e-09
-1.9506e-12
2.50182e-09
-2.30159e-12
2.50236e-09
-2.65316e-12
2.50297e-09
-3.00562e-12
2.50364e-09
-3.3593e-12
2.50439e-09
-3.71462e-12
2.5052e-09
-4.07204e-12
2.50609e-09
-4.43212e-12
2.50703e-09
-4.79545e-12
2.50806e-09
-5.16273e-12
2.50915e-09
-5.5347e-12
2.51032e-09
-5.91217e-12
2.51155e-09
-6.29603e-12
2.51286e-09
-6.68722e-12
2.51424e-09
-7.08676e-12
2.51571e-09
-7.49571e-12
2.51725e-09
-7.9152e-12
2.51887e-09
-8.34642e-12
2.52057e-09
-8.7906e-12
2.52237e-09
-9.24906e-12
2.52424e-09
-9.72314e-12
2.52621e-09
-1.02143e-11
2.52827e-09
-1.07238e-11
2.53044e-09
-1.12535e-11
2.5327e-09
-1.18046e-11
2.53508e-09
-1.23789e-11
2.53756e-09
-1.29781e-11
2.54017e-09
-1.36038e-11
2.54289e-09
-1.42578e-11
2.54575e-09
-1.4942e-11
2.54873e-09
-1.5658e-11
2.55186e-09
-1.64079e-11
2.55513e-09
-1.71936e-11
2.55858e-09
-1.8017e-11
2.56216e-09
-1.88802e-11
2.56594e-09
-1.97851e-11
2.56988e-09
-2.07338e-11
2.57403e-09
-2.17285e-11
2.57836e-09
-2.27712e-11
2.58291e-09
-2.38641e-11
2.58767e-09
-2.50091e-11
2.59268e-09
-2.62086e-11
2.59791e-09
-2.74645e-11
2.60341e-09
-2.87791e-11
2.60917e-09
-3.01541e-11
2.61521e-09
-3.15919e-11
2.62154e-09
-3.3094e-11
2.62819e-09
-3.46627e-11
2.63515e-09
-3.62992e-11
2.64245e-09
-3.80055e-11
2.65011e-09
-3.97827e-11
2.65813e-09
-4.16321e-11
2.66654e-09
-4.35544e-11
2.67535e-09
-4.55503e-11
2.68459e-09
-4.76197e-11
2.69425e-09
-4.97624e-11
2.70438e-09
-5.19771e-11
2.71497e-09
-5.42625e-11
2.72607e-09
-5.66157e-11
2.73767e-09
-5.90336e-11
2.74981e-09
-6.15112e-11
2.76247e-09
-6.40429e-11
2.77572e-09
-6.66212e-11
2.78952e-09
-6.92375e-11
2.80394e-09
-7.18808e-11
2.81892e-09
-7.45387e-11
2.83455e-09
-7.71966e-11
2.85074e-09
-7.98376e-11
2.86759e-09
-8.24432e-11
2.885e-09
-8.49921e-11
2.90305e-09
-8.74619e-11
2.92162e-09
-8.9828e-11
2.94079e-09
-9.20651e-11
2.96042e-09
-9.41466e-11
2.98058e-09
-9.6047e-11
3.0011e-09
-9.77403e-11
3.02206e-09
-9.92036e-11
3.04325e-09
-1.00415e-10
3.06475e-09
-1.01358e-10
3.08634e-09
-1.02018e-10
3.10809e-09
-1.02387e-10
3.12979e-09
-1.02459e-10
3.15148e-09
-1.02235e-10
3.17299e-09
-1.0172e-10
3.19434e-09
-1.00923e-10
3.21536e-09
-9.98555e-11
3.2361e-09
-9.85338e-11
3.25641e-09
-9.69747e-11
3.27632e-09
-9.51986e-11
3.29571e-09
-9.32253e-11
3.31461e-09
-9.10767e-11
3.33294e-09
-8.87734e-11
3.35071e-09
-8.63375e-11
3.36787e-09
-8.37885e-11
3.38442e-09
-8.1147e-11
3.40035e-09
-7.84307e-11
3.41565e-09
-7.56578e-11
3.43033e-09
-7.28432e-11
3.44436e-09
-7.00025e-11
3.45779e-09
-6.71473e-11
3.47056e-09
-6.42904e-11
3.48276e-09
-6.14404e-11
3.49431e-09
-5.86071e-11
3.50533e-09
-5.57961e-11
3.51569e-09
-5.30148e-11
3.52557e-09
-5.02658e-11
3.5348e-09
-4.75543e-11
3.54358e-09
-4.48802e-11
3.55174e-09
-4.22466e-11
3.55949e-09
-3.96513e-11
3.56662e-09
-3.70951e-11
3.5734e-09
-3.45731e-11
3.57956e-09
-3.20843e-11
3.58541e-09
-2.96212e-11
3.59064e-09
-2.71805e-11
3.59561e-09
-2.47525e-11
3.59994e-09
-2.2331e-11
3.60407e-09
-1.9904e-11
3.60753e-09
-1.74617e-11
3.61082e-09
-1.49898e-11
3.6134e-09
-1.24738e-11
3.61584e-09
-9.89555e-12
3.61752e-09
-7.23699e-12
3.61905e-09
-4.47662e-12
3.61973e-09
-1.59529e-12
3.62026e-09
1.42499e-12
3.61982e-09
4.60739e-12
3.61917e-09
7.96605e-12
3.61744e-09
1.15225e-11
3.6154e-09
1.52834e-11
3.61215e-09
1.9264e-11
3.60846e-09
2.34592e-11
3.60342e-09
2.78735e-11
3.59781e-09
3.2487e-11
3.59074e-09
3.72904e-11
3.58295e-09
4.22483e-11
3.57364e-09
4.73374e-11
3.56349e-09
5.25097e-11
3.5518e-09
5.77302e-11
3.5392e-09
6.29431e-11
3.52511e-09
6.81062e-11
3.51006e-09
7.31622e-11
3.49366e-09
7.80666e-11
3.47632e-09
8.27659e-11
3.4578e-09
8.72189e-11
3.43841e-09
9.13804e-11
3.41807e-09
9.5216e-11
3.39696e-09
9.86926e-11
3.37517e-09
1.01785e-10
3.35273e-09
1.04473e-10
3.32988e-09
1.06744e-10
3.30654e-09
1.0859e-10
3.28307e-09
1.10008e-10
3.25924e-09
1.11004e-10
3.23556e-09
1.11585e-10
3.21166e-09
1.11767e-10
3.18814e-09
1.11563e-10
3.16453e-09
1.10999e-10
3.14151e-09
1.10093e-10
3.11851e-09
1.08874e-10
3.09625e-09
1.07367e-10
3.07411e-09
1.05602e-10
3.05284e-09
1.03604e-10
3.03176e-09
1.01405e-10
3.01163e-09
9.90307e-11
2.99174e-09
9.6511e-11
2.97286e-09
9.38696e-11
2.95425e-09
9.11351e-11
2.93668e-09
8.8329e-11
2.91938e-09
8.54766e-11
2.90313e-09
8.25971e-11
2.88714e-09
7.97122e-11
2.87218e-09
7.68382e-11
2.85748e-09
7.39935e-11
2.84377e-09
7.11917e-11
2.8303e-09
6.84474e-11
2.81777e-09
6.57719e-11
2.80543e-09
6.31764e-11
2.79399e-09
6.06699e-11
2.78272e-09
5.82607e-11
2.77227e-09
5.59557e-11
2.76195e-09
5.37606e-11
2.75239e-09
5.16807e-11
2.7429e-09
4.97194e-11
2.73412e-09
4.78804e-11
2.72537e-09
4.61654e-11
2.71726e-09
4.4577e-11
2.70913e-09
4.31154e-11
2.70159e-09
4.17819e-11
2.69398e-09
4.05759e-11
2.68689e-09
3.94968e-11
2.67978e-09
3.85466e-11
2.67282e-09
3.77087e-11
2.66603e-09
3.70544e-11
3.62146e-11
2.50004e-09
-2.0707e-13
2.50016e-09
-6.4921e-13
2.50036e-09
-1.07383e-12
2.50062e-09
-1.49442e-12
2.50095e-09
-1.91378e-12
2.50134e-09
-2.33272e-12
2.50181e-09
-2.75164e-12
2.50234e-09
-3.17082e-12
2.50295e-09
-3.59057e-12
2.50361e-09
-4.01128e-12
2.50435e-09
-4.43339e-12
2.50515e-09
-4.85748e-12
2.50602e-09
-5.28417e-12
2.50695e-09
-5.7142e-12
2.50796e-09
-6.14839e-12
2.50902e-09
-6.58764e-12
2.51016e-09
-7.03294e-12
2.51136e-09
-7.48535e-12
2.51264e-09
-7.94602e-12
2.51398e-09
-8.41617e-12
2.51541e-09
-8.8971e-12
2.5169e-09
-9.39017e-12
2.51847e-09
-9.89681e-12
2.52011e-09
-1.04185e-11
2.52184e-09
-1.09569e-11
2.52364e-09
-1.15135e-11
2.52554e-09
-1.20901e-11
2.52752e-09
-1.26885e-11
2.5296e-09
-1.33104e-11
2.53177e-09
-1.39577e-11
2.53405e-09
-1.46324e-11
2.53642e-09
-1.53365e-11
2.53891e-09
-1.60721e-11
2.54151e-09
-1.68412e-11
2.54424e-09
-1.76461e-11
2.54708e-09
-1.84889e-11
2.55008e-09
-1.93721e-11
2.55319e-09
-2.02978e-11
2.55648e-09
-2.12686e-11
2.5599e-09
-2.22868e-11
2.5635e-09
-2.33549e-11
2.56725e-09
-2.44755e-11
2.57121e-09
-2.56511e-11
2.57533e-09
-2.68842e-11
2.57968e-09
-2.81776e-11
2.58422e-09
-2.95337e-11
2.589e-09
-3.09554e-11
2.594e-09
-3.24451e-11
2.59926e-09
-3.40057e-11
2.60476e-09
-3.56395e-11
2.61055e-09
-3.73494e-11
2.61662e-09
-3.91376e-11
2.62299e-09
-4.10069e-11
2.62967e-09
-4.29594e-11
2.63669e-09
-4.49975e-11
2.64406e-09
-4.71231e-11
2.65179e-09
-4.93384e-11
2.65991e-09
-5.16445e-11
2.66843e-09
-5.40431e-11
2.67738e-09
-5.65347e-11
2.68676e-09
-5.91199e-11
2.69661e-09
-6.17983e-11
2.70694e-09
-6.45689e-11
2.71779e-09
-6.74297e-11
2.72915e-09
-7.03778e-11
2.74108e-09
-7.34086e-11
2.75357e-09
-7.65165e-11
2.76668e-09
-7.96936e-11
2.78038e-09
-8.29305e-11
2.79475e-09
-8.6215e-11
2.80975e-09
-8.95327e-11
2.82546e-09
-9.2866e-11
2.84181e-09
-9.61945e-11
2.8589e-09
-9.94947e-11
2.87664e-09
-1.02739e-10
2.89512e-09
-1.05899e-10
2.91421e-09
-1.08941e-10
2.93401e-09
-1.1183e-10
2.95437e-09
-1.14529e-10
2.97536e-09
-1.17003e-10
2.9968e-09
-1.19213e-10
3.01875e-09
-1.21128e-10
3.041e-09
-1.22715e-10
3.06362e-09
-1.23949e-10
3.08636e-09
-1.24811e-10
3.10927e-09
-1.25289e-10
3.13214e-09
-1.25377e-10
3.15498e-09
-1.25076e-10
3.1776e-09
-1.24395e-10
3.20001e-09
-1.23348e-10
3.22205e-09
-1.21953e-10
3.24373e-09
-1.20233e-10
3.2649e-09
-1.18213e-10
3.28559e-09
-1.15921e-10
3.30568e-09
-1.13386e-10
3.32521e-09
-1.10638e-10
3.34407e-09
-1.07703e-10
3.36229e-09
-1.04612e-10
3.37983e-09
-1.01391e-10
3.39669e-09
-9.80657e-11
3.41285e-09
-9.46593e-11
3.42832e-09
-9.1195e-11
3.44311e-09
-8.76915e-11
3.45719e-09
-8.41679e-11
3.47063e-09
-8.06388e-11
3.48337e-09
-7.71195e-11
3.4955e-09
-7.36202e-11
3.50694e-09
-7.01528e-11
3.51782e-09
-6.67236e-11
3.52804e-09
-6.33412e-11
3.53774e-09
-6.00084e-11
3.54681e-09
-5.67313e-11
3.5554e-09
-5.35096e-11
3.56337e-09
-5.03472e-11
3.57094e-09
-4.72407e-11
3.5779e-09
-4.4192e-11
3.58451e-09
-4.11949e-11
3.59052e-09
-3.82488e-11
3.59624e-09
-3.53448e-11
3.60137e-09
-3.24799e-11
3.60627e-09
-2.96422e-11
3.61058e-09
-2.68253e-11
3.61472e-09
-2.4014e-11
3.61825e-09
-2.11971e-11
3.62167e-09
-1.83561e-11
3.62444e-09
-1.54726e-11
3.62714e-09
-1.25228e-11
3.62914e-09
-9.4829e-12
3.63109e-09
-6.32201e-12
3.63225e-09
-3.013e-12
3.63334e-09
4.70777e-13
3.63352e-09
4.16454e-12
3.63356e-09
8.09187e-12
3.63255e-09
1.22876e-11
3.63127e-09
1.67663e-11
3.62876e-09
2.15549e-11
3.62582e-09
2.66512e-11
3.62145e-09
3.20661e-11
3.61646e-09
3.77751e-11
3.60987e-09
4.37673e-11
3.60246e-09
4.99949e-11
3.59334e-09
5.64249e-11
3.58323e-09
6.29903e-11
3.57137e-09
6.96407e-11
3.55842e-09
7.6298e-11
3.54376e-09
8.29017e-11
3.52797e-09
8.93717e-11
3.51062e-09
9.56457e-11
3.49216e-09
1.0165e-10
3.47235e-09
1.07328e-10
3.45153e-09
1.12618e-10
3.42963e-09
1.17474e-10
3.40687e-09
1.21853e-10
3.38335e-09
1.25722e-10
3.35912e-09
1.29057e-10
3.33448e-09
1.3184e-10
3.30931e-09
1.34067e-10
3.28406e-09
1.35734e-10
3.25847e-09
1.36855e-10
3.2331e-09
1.37438e-10
3.20757e-09
1.3751e-10
3.18252e-09
1.3709e-10
3.15746e-09
1.36214e-10
3.13311e-09
1.34909e-10
3.10887e-09
1.33216e-10
3.08551e-09
1.31166e-10
3.06236e-09
1.28802e-10
3.04023e-09
1.26156e-10
3.01837e-09
1.23271e-10
2.99761e-09
1.20179e-10
2.97717e-09
1.16919e-10
2.95787e-09
1.13523e-10
2.93891e-09
1.10025e-10
2.92111e-09
1.06453e-10
2.90366e-09
1.02838e-10
2.88735e-09
9.92041e-11
2.87137e-09
9.55769e-11
2.85649e-09
9.19766e-11
2.84193e-09
8.84249e-11
2.82843e-09
8.49381e-11
2.8152e-09
8.15332e-11
2.80297e-09
7.82233e-11
2.79097e-09
7.50212e-11
2.7799e-09
7.19371e-11
2.76903e-09
6.89803e-11
2.75901e-09
6.61583e-11
2.74914e-09
6.34772e-11
2.74004e-09
6.09427e-11
2.73104e-09
5.85581e-11
2.72276e-09
5.63273e-11
2.71451e-09
5.42516e-11
2.7069e-09
5.23336e-11
2.69929e-09
5.05727e-11
2.69225e-09
4.89704e-11
2.68516e-09
4.75252e-11
2.67857e-09
4.62363e-11
2.67197e-09
4.51053e-11
2.6655e-09
4.4113e-11
2.65921e-09
4.33422e-11
4.23634e-11
2.50004e-09
-2.4115e-13
2.50016e-09
-7.55309e-13
2.50036e-09
-1.24955e-12