/*--------------------------------*- C++ -*----------------------------------*\
  =========                 |
  \\      /  F ield         | OpenFOAM: The Open Source CFD Toolbox
   \\    /   O peration     | Website:  https://openfoam.org
    \\  /    A nd           | Version:  10
     \\/     M anipulation  |
\*---------------------------------------------------------------------------*/
FoamFile
{
    format      ascii;
    class       surfaceScalarField;
    location    "0.37";
    object      phi;
}
// * * * * * * * * * * * * * * * * * * * * * * * * * * * * * * * * * * * * * //

dimensions      [0 3 -1 0 0 0 0];

internalField   nonuniform List<scalar> 
24170
(
1.24204e-09
-1.24204e-09
2.29712e-09
-1.05508e-09
3.11973e-09
-8.22601e-10
3.72619e-09
-6.0646e-10
4.15984e-09
-4.33657e-10
4.46794e-09
-3.08101e-10
4.69164e-09
-2.23701e-10
4.86382e-09
-1.72178e-10
5.01031e-09
-1.46486e-10
5.15224e-09
-1.4193e-10
5.30861e-09
-1.56368e-10
5.4987e-09
-1.90089e-10
5.74322e-09
-2.44529e-10
6.06164e-09
-3.18412e-10
6.472e-09
-4.10364e-10
1.14934e-08
-5.02143e-09
1.03301e-08
1.16335e-09
-3.92344e-09
1.42535e-08
1.46599e-09
-2.70803e-09
2.70649e-09
-2.29559e-09
3.66942e-09
-1.78553e-09
4.37611e-09
-1.31315e-09
4.87865e-09
-9.36196e-10
5.23251e-09
-6.61957e-10
5.4851e-09
-4.76295e-10
5.67351e-09
-3.60591e-10
5.82603e-09
-2.99005e-10
5.96482e-09
-2.80715e-10
6.10861e-09
-3.0016e-10
6.275e-09
-3.56478e-10
6.48152e-09
-4.51052e-10
6.74308e-09
-5.79968e-10
7.04445e-09
-7.11733e-10
8.62265e-09
-6.59963e-09
1.01751e-08
-3.89096e-10
-5.51157e-09
1.17632e-08
1.65289e-09
-4.36092e-09
3.0415e-09
-3.6842e-09
4.10888e-09
-2.85291e-09
4.88356e-09
-2.08783e-09
5.42758e-09
-1.48022e-09
5.80488e-09
-1.03925e-09
6.0689e-09
-7.40312e-10
6.26069e-09
-5.52381e-10
6.41106e-09
-4.49381e-10
6.54378e-09
-4.13434e-10
6.6786e-09
-4.34978e-10
6.83381e-09
-5.11694e-10
7.02824e-09
-6.45478e-10
7.28034e-09
-8.32063e-10
7.59173e-09
-1.02313e-09
8.43276e-09
-7.44066e-09
9.85761e-09
-1.81394e-09
-6.06193e-09
1.0408e-08
1.8586e-09
-6.21952e-09
3.40473e-09
-5.23033e-09
4.57713e-09
-4.02531e-09
5.41524e-09
-2.92594e-09
5.99433e-09
-2.05931e-09
6.38874e-09
-1.43365e-09
6.65882e-09
-1.0104e-09
6.8499e-09
-7.43462e-10
6.99528e-09
-5.94758e-10
7.12007e-09
-5.3822e-10
7.24464e-09
-5.5955e-10
7.38766e-09
-6.54717e-10
7.56931e-09
-8.27127e-10
7.81446e-09
-1.07721e-09
8.15149e-09
-1.36015e-09
8.45009e-09
-7.73927e-09
9.54913e-09
-2.91297e-09
-6.18714e-09
9.67434e-09
2.09908e-09
-8.3186e-09
3.82243e-09
-6.95367e-09
5.10559e-09
-5.30848e-09
6.00465e-09
-3.82499e-09
6.61284e-09
-2.66751e-09
7.01762e-09
-1.83843e-09
7.28748e-09
-1.28027e-09
7.47237e-09
-9.28343e-10
7.60796e-09
-7.30357e-10
7.7204e-09
-6.50657e-10
7.83014e-09
-6.69288e-10
7.9555e-09
-7.80074e-10
8.1171e-09
-9.88729e-10
8.34619e-09
-1.30631e-09
8.70197e-09
-1.71593e-09
8.4903e-09
-7.5276e-09
9.30952e-09
-3.7322e-09
-6.16912e-09
9.29151e-09
2.38979e-09
-1.07084e-08
4.31774e-09
-8.88162e-09
5.71894e-09
-6.70969e-09
6.67499e-09
-4.78104e-09
7.30395e-09
-3.29647e-09
7.70999e-09
-2.24446e-09
7.97119e-09
-1.54147e-09
8.14244e-09
-1.09959e-09
8.26163e-09
-8.4954e-10
8.35539e-09
-7.44415e-10
8.44353e-09
-7.57434e-10
8.54279e-09
-8.79338e-10
8.67177e-09
-1.1177e-09
8.86253e-09
-1.49707e-09
9.19388e-09
-2.04728e-09
8.46612e-09
-6.79984e-09
9.14803e-09
-4.4141e-09
-6.14037e-09
9.11928e-09
2.75112e-09
-1.34595e-08
4.91944e-09
-1.10499e-08
6.44563e-09
-8.23588e-09
7.45094e-09
-5.78635e-09
8.08801e-09
-3.93354e-09
8.48241e-09
-2.63886e-09
8.72347e-09
-1.78253e-09
8.87119e-09
-1.24732e-09
8.96527e-09
-9.43624e-10
9.03221e-09
-8.11353e-10
9.0902e-09
-8.15423e-10
9.15265e-09
-9.41792e-10
9.23196e-09
-1.19701e-09
9.34843e-09
-1.61353e-09
9.55901e-09
-2.25787e-09
8.36491e-09
-5.60574e-09
9.06395e-09
-5.11314e-09
-6.16557e-09
9.08915e-09
3.21283e-09
-1.66723e-08
5.66717e-09
-1.35043e-08
7.32249e-09
-9.8912e-09
8.36243e-09
-6.82629e-09
8.9882e-09
-4.55931e-09
9.35266e-09
-3.00332e-09
9.55799e-09
-1.98786e-09
9.66923e-09
-1.35856e-09
9.7272e-09
-1.00159e-09
9.75735e-09
-8.41505e-10
9.77519e-09
-8.33262e-10
9.789e-09
-9.55601e-10
9.80059e-09
-1.2086e-09
9.80416e-09
-1.61711e-09
9.77962e-09
-2.23332e-09
8.33407e-09
-4.16019e-09
9.07684e-09
-5.85592e-09
-6.2646e-09
9.17587e-09
3.82053e-09
-2.04929e-08
6.61804e-09
-1.63018e-08
8.39921e-09
-1.16724e-08
9.44743e-09
-7.8745e-09
1.00323e-08
-5.14416e-09
1.03409e-08
-3.31198e-09
1.04896e-08
-2.13655e-09
1.05477e-08
-1.41662e-09
1.05559e-08
-1.00976e-09
1.05375e-08
-8.23124e-10
1.05043e-08
-8.00105e-10
1.04585e-08
-9.09755e-10
1.03898e-08
-1.1399e-09
1.02645e-08
-1.49182e-09
9.9899e-09
-1.95873e-09
8.63881e-09
-2.8091e-09
9.23147e-09
-6.44858e-09
-6.41395e-09
9.38082e-09
4.6475e-09
-2.51404e-08
7.85693e-09
-1.95112e-08
9.74419e-09
-1.35596e-08
1.07546e-08
-8.88491e-09
1.12537e-08
-5.64325e-09
1.14703e-08
-3.52859e-09
1.15347e-08
-2.2009e-09
1.15184e-08
-1.40034e-09
1.14602e-08
-9.51588e-10
1.13799e-08
-7.42832e-10
1.12848e-08
-7.04996e-10
1.11711e-08
-7.96066e-10
1.10202e-08
-9.88975e-10
1.0786e-08
-1.25764e-09
1.03699e-08
-1.54261e-09
9.34554e-09
-1.78476e-09
9.56644e-09
-6.66948e-09
-6.56258e-09
9.71506e-09
5.81694e-09
-3.09573e-08
9.51336e-09
-2.32076e-08
1.14524e-08
-1.54987e-08
1.2346e-08
-9.77851e-09
1.2692e-08
-5.98922e-09
1.27664e-08
-3.60303e-09
1.27103e-08
-2.14478e-09
1.25934e-08
-1.28345e-09
1.24493e-08
-8.07495e-10
1.22923e-08
-5.85831e-10
1.21247e-08
-5.37398e-10
1.19386e-08
-6.0989e-10
1.17131e-08
-7.63498e-10
1.14092e-08
-9.53757e-10
1.09697e-08
-1.10315e-09
1.02875e-08
-1.1025e-09
1.00869e-08
-6.46895e-09
-6.65841e-09
1.01828e-08
6.26276e-09
-3.72201e-08
9.81285e-09
-2.67577e-08
1.13957e-08
-1.70815e-08
1.19562e-08
-1.0339e-08
1.20512e-08
-6.08426e-09
1.19497e-08
-3.50148e-09
1.17718e-08
-1.96689e-09
1.15691e-08
-1.08074e-09
1.13621e-08
-6.00498e-10
1.11566e-08
-3.80303e-10
1.09501e-08
-3.30942e-10
1.07341e-08
-3.93936e-10
1.04939e-08
-5.23267e-10
1.02094e-08
-6.69198e-10
9.86523e-09
-7.5902e-10
9.46234e-09
-6.99613e-10
8.98481e-09
-5.99142e-09
-6.72908e-09
9.05547e-09
9.38103e-09
-4.66011e-08
1.39048e-08
-3.12815e-08
1.54605e-08
-1.86372e-08
1.5722e-08
-1.06005e-08
1.55039e-08
-5.86622e-09
1.51383e-08
-3.1358e-09
1.47479e-08
-1.57649e-09
1.43732e-08
-7.0603e-10
1.40231e-08
-2.50434e-10
1.36942e-08
-5.14354e-11
1.3378e-08
-1.46725e-11
1.3063e-08
-7.9025e-11
1.27376e-08
-1.97814e-10
1.23941e-08
-3.25732e-10
1.20446e-08
-4.09446e-10
1.17416e-08
-3.96644e-10
1.09764e-08
-5.22628e-09
-6.73388e-09
1.09813e-08
1.52736e-08
-6.18747e-08
2.07075e-08
-3.67155e-08
2.16036e-08
-1.95333e-08
2.10463e-08
-1.00432e-08
2.01692e-08
-4.98914e-09
1.93152e-08
-2.28181e-09
1.85628e-08
-8.2405e-10
1.7911e-08
-5.42846e-11
1.73417e-08
3.18884e-10
1.68304e-08
4.59855e-10
1.63572e-08
4.58596e-10
1.59069e-08
3.7122e-10
1.54718e-08
2.37334e-10
1.50571e-08
8.88917e-11
1.46934e-08
-4.56949e-11
1.44405e-08
-1.43713e-10
1.34251e-08
-4.21092e-09
-6.68051e-09
1.33717e-08
2.81773e-08
-9.0052e-08
3.28709e-08
-4.14091e-08
3.11917e-08
-1.78541e-08
2.8664e-08
-7.51545e-09
2.64906e-08
-2.81573e-09
2.47823e-08
-5.73529e-10
2.3448e-08
5.10248e-10
2.23766e-08
1.01712e-09
2.14802e-08
1.21531e-09
2.07033e-08
1.23671e-09
2.0008e-08
1.15387e-09
1.93702e-08
1.00902e-09
1.87805e-08
8.27092e-10
1.82488e-08
6.20574e-10
1.78125e-08
3.90594e-10
1.75325e-08
1.36265e-10
1.63683e-08
-3.04665e-09
-6.63532e-09
1.63231e-08
6.27022e-08
-1.52754e-07
5.59537e-08
-3.46606e-08
4.61323e-08
-8.03277e-09
3.93148e-08
-6.97855e-10
3.48634e-08
1.63564e-09
3.18293e-08
2.46053e-09
2.96298e-08
2.70974e-09
2.79443e-08
2.70264e-09
2.65879e-08
2.57171e-09
2.54468e-08
2.37786e-09
2.44492e-08
2.15144e-09
2.35504e-08
1.90786e-09
2.27252e-08
1.65225e-09
2.1968e-08
1.37776e-09
2.1302e-08
1.05657e-09
2.08014e-08
6.36908e-10
1.99274e-08
-2.17262e-09
-6.71652e-09
2.00086e-08
1.83705e-07
1.63467e-07
9.74391e-08
5.16053e-08
6.67156e-08
2.26908e-08
5.27755e-08
1.32422e-08
4.51249e-08
9.28631e-09
4.0349e-08
7.23638e-09
3.70719e-08
5.98689e-09
3.46468e-08
5.12766e-09
3.27374e-08
4.48118e-09
3.11539e-08
3.96132e-09
2.9782e-08
3.52339e-09
2.85456e-08
3.14424e-09
2.73837e-08
2.81416e-09
2.62258e-08
2.53565e-09
2.49583e-08
2.32404e-09
2.33226e-08
2.27263e-09
2.48917e-08
-3.74176e-09
-6.76652e-09
2.49417e-08
7.69468e-08
8.65201e-08
7.50626e-08
5.34895e-08
6.4913e-08
3.28404e-08
5.66606e-08
2.14946e-08
5.07747e-08
1.51723e-08
4.65467e-08
1.14644e-08
4.33801e-08
9.15348e-09
4.08873e-08
7.62045e-09
3.88298e-08
6.53868e-09
3.70621e-08
5.72898e-09
3.54957e-08
5.08979e-09
3.4079e-08
4.56096e-09
3.2792e-08
4.10116e-09
3.16579e-08
3.66973e-09
3.07772e-08
3.20471e-09
2.85049e-08
4.54499e-09
3.17797e-08
-7.01654e-09
-6.69151e-09
3.17047e-08
3.60603e-08
5.04598e-08
5.01649e-08
3.93849e-08
5.37595e-08
2.92458e-08
5.34316e-08
2.18225e-08
5.18541e-08
1.67498e-08
4.99813e-08
1.33371e-08
4.8114e-08
1.10208e-08
4.63255e-08
9.40891e-09
4.46214e-08
8.24277e-09
4.29931e-08
7.35732e-09
4.14282e-08
6.65465e-09
3.99013e-08
6.08791e-09
3.83524e-08
5.65e-09
3.66725e-08
5.34971e-09
3.46862e-08
5.19097e-09
4.09303e-08
-1.69906e-09
4.12828e-08
-7.36906e-09
-6.51159e-09
4.11029e-08
1.46914e-08
3.57684e-08
2.3882e-08
3.01943e-08
2.88151e-08
2.43126e-08
3.12175e-08
1.94201e-08
3.22251e-08
1.57423e-08
3.24569e-08
1.31053e-08
3.22289e-08
1.12488e-08
3.17055e-08
9.93237e-09
3.09878e-08
8.96047e-09
3.01606e-08
8.18451e-09
2.93144e-08
7.50084e-09
2.85489e-08
6.85338e-09
2.79373e-08
6.26159e-09
2.73831e-08
5.90391e-09
2.80128e-08
4.56126e-09
3.38873e-08
-7.57352e-09
3.31693e-08
-6.65103e-09
-5.89213e-09
3.25498e-08
9.05775e-09
2.67106e-08
1.58161e-08
2.3436e-08
2.0348e-08
1.97807e-08
2.32281e-08
1.654e-08
2.49809e-08
1.39895e-08
2.59607e-08
1.21254e-08
2.63792e-08
1.08303e-08
2.6362e-08
9.94953e-09
2.59996e-08
9.32287e-09
2.53846e-08
8.7996e-09
2.4644e-08
8.24139e-09
2.40182e-08
7.47918e-09
2.40665e-08
6.21328e-09
2.18923e-08
8.07818e-09
3.28832e-08
-6.4297e-09
3.15911e-08
-6.28142e-09
3.06503e-08
-5.71023e-09
-5.13082e-09
2.9889e-08
6.32004e-09
2.03906e-08
1.14644e-08
1.82917e-08
1.53344e-08
1.59107e-08
1.81284e-08
1.37461e-08
2.00871e-08
1.20307e-08
2.13934e-08
1.08192e-08
2.21556e-08
1.00681e-08
2.24287e-08
9.67645e-09
2.22491e-08
9.50251e-09
2.16558e-08
9.39288e-09
2.06427e-08
9.25446e-09
1.90728e-08
9.04906e-09
1.62473e-08
9.03882e-09
2.88358e-08
-4.51034e-09
2.88802e-08
-6.47406e-09
2.83066e-08
-5.70788e-09
2.76407e-08
-5.04427e-09
-4.47013e-09
2.698e-08
4.75566e-09
1.56349e-08
8.82201e-09
1.42253e-08
1.21007e-08
1.2632e-08
1.46632e-08
1.11836e-08
1.66253e-08
1.00687e-08
1.80763e-08
9.36817e-09
1.90512e-08
9.0932e-09
1.9535e-08
9.19257e-09
1.95103e-08
9.52723e-09
1.90398e-08
9.8634e-09
1.81952e-08
1.00991e-08
1.59355e-08
1.13087e-08
2.28943e-08
2.08008e-09
2.63121e-08
-7.92818e-09
2.60328e-08
-6.19481e-09
2.54721e-08
-5.14717e-09
2.48327e-08
-4.40489e-09
-3.83191e-09
2.41945e-08
3.74761e-09
1.18873e-08
7.05218e-09
1.09208e-08
9.84172e-09
9.84242e-09
1.21466e-08
8.87873e-09
1.40314e-08
8.18377e-09
1.5544e-08
7.85564e-09
1.66772e-08
7.95997e-09
1.73474e-08
8.52234e-09
1.74378e-08
9.43689e-09
1.70829e-08
1.02183e-08
1.75865e-08
9.59548e-09
1.62367e-08
1.26585e-08
2.60782e-08
-7.7614e-09
2.46454e-08
-6.49534e-09
2.37277e-08
-5.27708e-09
2.29495e-08
-4.36905e-09
2.224e-08
-3.69536e-09
-3.17994e-09
2.15881e-08
3.03742e-09
8.84988e-09
5.77132e-09
8.18685e-09
8.1542e-09
7.45954e-09
1.02057e-08
6.82723e-09
1.1974e-08
6.41543e-09
1.34985e-08
6.33116e-09
1.47656e-08
6.69292e-09
1.56399e-08
7.64804e-09
1.5782e-08
9.29479e-09
1.47168e-08
1.12834e-08
1.00068e-08
1.43055e-08
2.49134e-08
-2.24809e-09
2.35636e-08
-6.4116e-09
2.23462e-08
-5.27803e-09
2.13592e-08
-4.29007e-09
2.05249e-08
-3.53469e-09
1.97977e-08
-2.96816e-09
-2.53638e-09
1.91541e-08
2.5034e-09
6.34648e-09
4.7889e-09
5.90135e-09
6.82695e-09
5.4215e-09
8.63631e-09
5.01786e-09
1.02629e-08
4.78888e-09
1.17561e-08
4.83794e-09
1.31326e-08
5.31641e-09
1.42839e-08
6.49669e-09
1.47633e-08
8.81547e-09
1.42521e-08
1.17946e-08
1.62364e-08
1.23211e-08
2.19932e-08
-8.00489e-09
2.1083e-08
-5.50133e-09
2.00009e-08
-4.196e-09
1.90406e-08
-3.32975e-09
1.82206e-08
-2.71469e-09
1.75167e-08
-2.2642e-09
-1.92484e-09
1.69051e-08
2.08211e-09
4.26438e-09
4.00215e-09
3.98131e-09
5.7425e-09
3.68115e-09
7.32287e-09
3.43749e-09
8.78999e-09
3.32176e-09
1.02077e-08
3.42026e-09
1.16423e-08
3.88176e-09
1.30945e-08
5.0445e-09
1.39987e-08
7.91132e-09
8.01816e-09
1.77751e-08
2.16916e-08
-1.35233e-09
2.01411e-08
-6.45435e-09
1.88879e-08
-4.24819e-09
1.77848e-08
-3.09287e-09
1.6855e-08
-2.39999e-09
1.60769e-08
-1.93658e-09
1.54188e-08
-1.60613e-09
-1.36032e-09
1.48543e-08
1.73585e-09
2.52853e-09
3.34819e-09
2.36896e-09
4.82702e-09
2.20232e-09
6.19215e-09
2.07236e-09
7.48942e-09
2.02448e-09
8.79116e-09
2.11852e-09
1.02086e-08
2.46433e-09
1.19467e-08
3.30639e-09
1.48903e-08
4.9677e-09
1.15996e-08
2.10658e-08
1.98874e-08
-9.64005e-09
1.82035e-08
-4.77044e-09
1.68104e-08
-2.85517e-09
1.57129e-08
-1.99533e-09
1.48345e-08
-1.52157e-09
1.41163e-08
-1.21839e-09
1.35167e-08
-1.00657e-09
-8.50494e-10
1.30069e-08
1.43278e-09
1.09575e-09
2.77175e-09
1.03e-09
4.01207e-09
9.61991e-10
5.1725e-09
9.11938e-10
6.29498e-09
9.02007e-10
7.45103e-09
9.62465e-10
8.76406e-09
1.15131e-09
1.04436e-08
1.62689e-09
1.22516e-08
3.15971e-09
1.93539e-08
1.39634e-08
1.84124e-08
-8.69848e-09
1.62963e-08
-2.65435e-09
1.48451e-08
-1.40399e-09
1.37997e-08
-9.49928e-10
1.29948e-08
-7.16679e-10
1.23478e-08
-5.71424e-10
1.18124e-08
-4.71106e-10
-3.97579e-10
1.13595e-08
1.09575e-09
2.12575e-09
3.08774e-09
3.99967e-09
4.90168e-09
5.86415e-09
7.01545e-09
8.64234e-09
1.1802e-08
2.57655e-08
1.7067e-08
1.44126e-08
1.30086e-08
1.20587e-08
1.1342e-08
1.07706e-08
1.02995e-08
9.90193e-09
2.32579e-10
-2.32579e-10
4.66504e-10
-2.33925e-10
7.01513e-10
-2.3501e-10
9.37338e-10
-2.35824e-10
1.1737e-09
-2.36362e-10
1.41032e-09
-2.36616e-10
1.6469e-09
-2.36582e-10
1.88316e-09
-2.36259e-10
2.1188e-09
-2.35645e-10
2.35354e-09
-2.3474e-10
2.58709e-09
-2.33549e-10
2.81917e-09
-2.32075e-10
3.04949e-09
-2.30324e-10
3.2778e-09
-2.28305e-10
3.50382e-09
-2.26026e-10
3.72732e-09
-2.23497e-10
3.94805e-09
-2.20731e-10
4.16579e-09
-2.1774e-10
4.38033e-09
-2.14538e-10
4.59147e-09
-2.11139e-10
4.79902e-09
-2.07558e-10
5.00284e-09
-2.03811e-10
5.20275e-09
-1.99912e-10
5.39863e-09
-1.95879e-10
5.59035e-09
-1.91725e-10
5.77782e-09
-1.87467e-10
5.96094e-09
-1.8312e-10
6.13964e-09
-1.78698e-10
6.31385e-09
-1.74216e-10
6.48354e-09
-1.69688e-10
6.64867e-09
-1.65127e-10
6.80921e-09
-1.60544e-10
6.96516e-09
-1.55952e-10
7.11653e-09
-1.51363e-10
7.26331e-09
-1.46785e-10
7.40554e-09
-1.42229e-10
7.54324e-09
-1.37703e-10
7.67646e-09
-1.33216e-10
7.80523e-09
-1.28774e-10
7.92962e-09
-1.24385e-10
8.04967e-09
-1.20055e-10
8.16546e-09
-1.15788e-10
8.27705e-09
-1.1159e-10
8.38452e-09
-1.07465e-10
8.48793e-09
-1.03416e-10
8.58738e-09
-9.94466e-11
8.68294e-09
-9.55595e-11
8.77469e-09
-9.17568e-11
8.86273e-09
-8.80401e-11
8.94715e-09
-8.44112e-11
9.02802e-09
-8.08709e-11
9.10544e-09
-7.74201e-11
9.1795e-09
-7.4059e-11
9.25028e-09
-7.07882e-11
9.31789e-09
-6.76072e-11
9.38241e-09
-6.4516e-11
9.44392e-09
-6.15142e-11
9.50252e-09
-5.86009e-11
9.5583e-09
-5.57755e-11
9.61133e-09
-5.30369e-11
9.66172e-09
-5.0384e-11
9.70953e-09
-4.78158e-11
9.75486e-09
-4.53308e-11
9.79779e-09
-4.29277e-11
9.8384e-09
-4.06051e-11
9.87676e-09
-3.83613e-11
9.91295e-09
-3.61949e-11
9.94706e-09
-3.41041e-11
9.97915e-09
-3.20876e-11
1.00093e-08
-3.0143e-11
1.00376e-08
-2.82694e-11
1.0064e-08
-2.64645e-11
1.00887e-08
-2.47267e-11
1.01118e-08
-2.30542e-11
1.01332e-08
-2.14453e-11
1.01531e-08
-1.98982e-11
1.01716e-08
-1.84111e-11
1.01885e-08
-1.69824e-11
1.02042e-08
-1.56101e-11
1.02184e-08
-1.42926e-11
1.02315e-08
-1.30282e-11
1.02433e-08
-1.1815e-11
1.02539e-08
-1.06517e-11
1.02635e-08
-9.53642e-12
1.02719e-08
-8.46755e-12
1.02794e-08
-7.44334e-12
1.02858e-08
-6.46251e-12
1.02914e-08
-5.5232e-12
1.0296e-08
-4.62411e-12
1.02998e-08
-3.76375e-12
1.03027e-08
-2.94045e-12
1.03049e-08
-2.15301e-12
1.03063e-08
-1.39982e-12
1.03069e-08
-6.7982e-13
1.03069e-08
8.7021e-15
1.03063e-08
6.66749e-13
1.0305e-08
1.29558e-12
1.03031e-08
1.89671e-12
1.03006e-08
2.47104e-12
1.02976e-08
3.01992e-12
1.0294e-08
3.54428e-12
1.029e-08
4.04551e-12
1.02855e-08
4.52426e-12
1.02805e-08
4.98205e-12
1.02751e-08
5.41939e-12
1.02692e-08
5.83763e-12
1.0263e-08
6.23748e-12
1.02564e-08
6.61995e-12
1.02494e-08
6.9858e-12
1.0242e-08
7.33597e-12
1.02344e-08
7.67124e-12
1.02264e-08
7.99241e-12
1.02181e-08
8.3001e-12
1.02095e-08
8.59514e-12
1.02006e-08
8.8782e-12
1.01915e-08
9.15005e-12
1.0182e-08
9.41103e-12
1.01724e-08
9.66223e-12
1.01625e-08
9.90365e-12
1.01523e-08
1.01364e-11
1.0142e-08
1.03606e-11
1.01314e-08
1.05771e-11
1.01206e-08
1.07861e-11
1.01096e-08
1.09883e-11
1.00984e-08
1.1184e-11
1.00871e-08
1.13736e-11
1.00755e-08
1.15577e-11
1.00638e-08
1.17365e-11
1.00519e-08
1.19105e-11
1.00398e-08
1.20801e-11
1.00275e-08
1.22454e-11
1.00151e-08
1.2407e-11
1.00026e-08
1.25649e-11
9.98985e-09
1.27197e-11
9.97698e-09
1.28716e-11
9.96396e-09
1.30208e-11
9.95079e-09
1.31675e-11
9.93748e-09
1.33122e-11
9.92402e-09
1.3455e-11
9.91043e-09
1.3596e-11
9.89669e-09
1.37358e-11
9.88282e-09
1.38743e-11
9.8688e-09
1.40121e-11
9.85465e-09
1.41492e-11
9.84037e-09
1.4286e-11
9.82595e-09
1.44227e-11
9.81139e-09
1.45597e-11
9.79669e-09
1.46975e-11
9.78185e-09
1.48366e-11
9.76687e-09
1.49775e-11
9.75175e-09
1.51205e-11
9.73649e-09
1.52669e-11
9.72107e-09
1.54174e-11
9.7055e-09
1.55732e-11
9.68976e-09
1.57358e-11
9.67385e-09
1.59072e-11
9.65776e-09
1.60897e-11
9.64148e-09
1.62864e-11
9.62498e-09
1.65011e-11
9.60824e-09
1.67388e-11
9.59123e-09
1.7006e-11
9.57392e-09
1.7311e-11
9.55626e-09
1.76648e-11
9.53817e-09
1.80815e-11
9.51959e-09
1.85803e-11
9.50041e-09
1.91862e-11
9.48047e-09
1.9933e-11
9.45961e-09
2.08667e-11
9.43756e-09
2.20509e-11
9.41398e-09
2.35747e-11
9.38842e-09
2.55662e-11
9.3602e-09
2.82149e-11
9.32839e-09
3.18109e-11
9.29157e-09
3.68208e-11
9.24753e-09
4.40421e-11
9.19257e-09
5.49578e-11
9.1199e-09
7.26699e-11
9.01502e-09
1.04882e-10
8.83869e-09
1.76329e-10
4.01121e-10
8.43757e-09
2.33753e-10
-4.66332e-10
4.68851e-10
-4.69022e-10
7.05026e-10
-4.71184e-10
9.42e-10
-4.72799e-10
1.17949e-09
-4.73852e-10
1.41721e-09
-4.74332e-10
1.65486e-09
-4.7423e-10
1.89214e-09
-4.73542e-10
2.12876e-09
-4.72266e-10
2.36442e-09
-4.70405e-10
2.59884e-09
-4.67965e-10
2.83172e-09
-4.64955e-10
3.06278e-09
-4.61389e-10
3.29176e-09
-4.57283e-10
3.51839e-09
-4.52655e-10
3.74242e-09
-4.47527e-10
3.96361e-09
-4.41924e-10
4.18174e-09
-4.35871e-10
4.3966e-09
-4.29397e-10
4.608e-09
-4.22531e-10
4.81574e-09
-4.15303e-10
5.01967e-09
-4.07744e-10
5.21965e-09
-3.99886e-10
5.41553e-09
-3.91761e-10
5.6072e-09
-3.834e-10
5.79457e-09
-3.74834e-10
5.97754e-09
-3.66093e-10
6.15605e-09
-3.57207e-10
6.33004e-09
-3.48205e-10
6.49947e-09
-3.39114e-10
6.6643e-09
-3.29961e-10
6.82453e-09
-3.20769e-10
6.98014e-09
-3.11562e-10
7.13114e-09
-3.02363e-10
7.27754e-09
-2.93191e-10
7.41938e-09
-2.84065e-10
7.55668e-09
-2.75003e-10
7.68948e-09
-2.66021e-10
7.81784e-09
-2.57133e-10
7.94181e-09
-2.48351e-10
8.06144e-09
-2.39689e-10
8.17681e-09
-2.31157e-10
8.28798e-09
-2.22763e-10
8.39504e-09
-2.14516e-10
8.49804e-09
-2.06424e-10
8.59709e-09
-1.98491e-10
8.69225e-09
-1.90724e-10
8.78362e-09
-1.83126e-10
8.87128e-09
-1.75702e-10
8.95533e-09
-1.68453e-10
9.03584e-09
-1.61382e-10
9.11291e-09
-1.5449e-10
9.18663e-09
-1.47779e-10
9.25709e-09
-1.41247e-10
9.32437e-09
-1.34896e-10
9.38858e-09
-1.28724e-10
9.4498e-09
-1.22731e-10
9.50811e-09
-1.16915e-10
9.56361e-09
-1.11275e-10
9.61639e-09
-1.05808e-10
9.66651e-09
-1.00513e-10
9.71409e-09
-9.53868e-11
9.75918e-09
-9.04267e-11
9.80188e-09
-8.56303e-11
9.84227e-09
-8.09945e-11
9.88043e-09
-7.65164e-11
9.91643e-09
-7.21925e-11
9.95034e-09
-6.802e-11
9.98225e-09
-6.3995e-11
1.00122e-08
-6.01146e-11
1.00403e-08
-5.63751e-11
1.00666e-08
-5.27731e-11
1.00912e-08
-4.9305e-11
1.01141e-08
-4.59671e-11
1.01354e-08
-4.27564e-11
1.01552e-08
-3.96688e-11
1.01735e-08
-3.67012e-11
1.01904e-08
-3.38496e-11
1.02059e-08
-3.11111e-11
1.02201e-08
-2.84817e-11
1.0233e-08
-2.59583e-11
1.02447e-08
-2.35374e-11
1.02553e-08
-2.12157e-11
1.02647e-08
-1.89898e-11
1.02731e-08
-1.68565e-11
1.02805e-08
-1.48125e-11
1.02869e-08
-1.2855e-11
1.02923e-08
-1.09803e-11
1.02969e-08
-9.18598e-12
1.03006e-08
-7.46864e-12
1.03035e-08
-5.82556e-12
1.03056e-08
-4.2538e-12
1.03069e-08
-2.75069e-12
1.03076e-08
-1.31342e-12
1.03075e-08
6.06541e-14
1.03068e-08
1.37412e-12
1.03055e-08
2.62958e-12
1.03035e-08
3.82919e-12
1.0301e-08
4.97581e-12
1.0298e-08
6.07126e-12
1.02944e-08
7.11818e-12
1.02903e-08
8.11845e-12
1.02858e-08
9.07447e-12
1.02808e-08
9.98818e-12
1.02753e-08
1.08615e-11
1.02695e-08
1.16963e-11
1.02632e-08
1.24946e-11
1.02566e-08
1.32583e-11
1.02496e-08
1.39887e-11
1.02422e-08
1.4688e-11
1.02345e-08
1.53573e-11
1.02265e-08
1.59985e-11
1.02182e-08
1.66129e-11
1.02096e-08
1.72023e-11
1.02007e-08
1.77675e-11
1.01916e-08
1.83103e-11
1.01822e-08
1.88318e-11
1.01725e-08
1.93331e-11
1.01626e-08
1.98156e-11
1.01524e-08
2.02803e-11
1.01421e-08
2.07283e-11
1.01315e-08
2.11606e-11
1.01207e-08
2.15782e-11
1.01097e-08
2.1982e-11
1.00985e-08
2.2373e-11
1.00871e-08
2.2752e-11
1.00756e-08
2.31197e-11
1.00638e-08
2.3477e-11
1.00519e-08
2.38248e-11
1.00398e-08
2.41635e-11
1.00276e-08
2.44939e-11
1.00152e-08
2.48167e-11
1.00026e-08
2.51324e-11
9.98987e-09
2.54418e-11
9.977e-09
2.57454e-11
9.96398e-09
2.60434e-11
9.95081e-09
2.63369e-11
9.93749e-09
2.6626e-11
9.92404e-09
2.69113e-11
9.91044e-09
2.71934e-11
9.8967e-09
2.74728e-11
9.88283e-09
2.77497e-11
9.86881e-09
2.8025e-11
9.85466e-09
2.82989e-11
9.84038e-09
2.85724e-11
9.82596e-09
2.88458e-11
9.8114e-09
2.91198e-11
9.7967e-09
2.93953e-11
9.78186e-09
2.96732e-11
9.76688e-09
2.99545e-11
9.75176e-09
3.02405e-11
9.7365e-09
3.0533e-11
9.72108e-09
3.08335e-11
9.70551e-09
3.11448e-11
9.68978e-09
3.14695e-11
9.67387e-09
3.18117e-11
9.65779e-09
3.21759e-11
9.6415e-09
3.25682e-11
9.62501e-09
3.29962e-11
9.60828e-09
3.34701e-11
9.59128e-09
3.40025e-11
9.57398e-09
3.46098e-11
9.55633e-09
3.5314e-11
9.53827e-09
3.61433e-11
9.51972e-09
3.7135e-11
9.50056e-09
3.83392e-11
9.48067e-09
3.98226e-11
9.45986e-09
4.16763e-11
9.43789e-09
4.40254e-11
9.41442e-09
4.70458e-11
9.389e-09
5.09892e-11
9.36098e-09
5.6226e-11
9.32947e-09
6.33221e-11
9.29312e-09
7.3179e-11
9.24984e-09
8.73209e-11
9.19627e-09
1.08527e-10
9.12653e-09
1.42409e-10
9.02949e-09
2.01918e-10
8.88347e-09
3.22353e-10
6.16594e-10
8.66799e-09
2.36132e-10
-7.02464e-10
4.73605e-10
-7.06496e-10
7.1214e-10
-7.09719e-10
9.51444e-10
-7.12103e-10
1.19122e-09
-7.13627e-10
1.43116e-09
-7.14274e-10
1.67096e-09
-7.14031e-10
1.91031e-09
-7.12892e-10
2.1489e-09
-7.10857e-10
2.38643e-09
-7.07931e-10
2.62259e-09
-7.04125e-10
2.85709e-09
-6.99453e-10
3.08964e-09
-6.93939e-10
3.31996e-09
-6.87607e-10
3.5478e-09
-6.80489e-10
3.77289e-09
-6.72618e-10
3.995e-09
-6.64033e-10
4.2139e-09
-6.54775e-10
4.42939e-09
-6.44887e-10
4.64128e-09
-6.34415e-10
4.84938e-09
-6.23406e-10
5.05354e-09
-6.11908e-10
5.25363e-09
-5.99968e-10
5.4495e-09
-5.87636e-10
5.64106e-09
-5.74959e-10
5.82821e-09
-5.61984e-10
6.01088e-09
-5.48758e-10
6.18899e-09
-5.35324e-10
6.36251e-09
-5.21725e-10
6.5314e-09
-5.08004e-10
6.69564e-09
-4.94197e-10
6.85521e-09
-4.80343e-10
7.01013e-09
-4.66476e-10
7.16039e-09
-4.52629e-10
7.30603e-09
-4.38831e-10
7.44708e-09
-4.2511e-10
7.58356e-09
-4.11491e-10
7.71554e-09
-3.97999e-10
7.84306e-09
-3.84654e-10
7.96619e-09
-3.71475e-10
8.08498e-09
-3.5848e-10
8.19951e-09
-3.45683e-10
8.30984e-09
-3.33099e-10
8.41606e-09
-3.20739e-10
8.51825e-09
-3.08613e-10
8.61649e-09
-2.9673e-10
8.71086e-09
-2.85097e-10
8.80146e-09
-2.73721e-10
8.88836e-09
-2.62606e-10
8.97166e-09
-2.51756e-10
9.05146e-09
-2.41173e-10
9.12783e-09
-2.30861e-10
9.20087e-09
-2.20819e-10
9.27067e-09
-2.11048e-10
9.33732e-09
-2.01548e-10
9.40091e-09
-1.92318e-10
9.46154e-09
-1.83355e-10
9.51928e-09
-1.74658e-10
9.57423e-09
-1.66224e-10
9.62647e-09
-1.5805e-10
9.67609e-09
-1.50133e-10
9.72317e-09
-1.42469e-10
9.7678e-09
-1.35054e-10
9.81005e-09
-1.27883e-10
9.85001e-09
-1.20954e-10
9.88775e-09
-1.1426e-10
9.92336e-09
-1.07796e-10
9.9569e-09
-1.0156e-10
9.98845e-09
-9.55436e-11
1.00181e-08
-8.97435e-11
1.00459e-08
-8.41543e-11
1.00719e-08
-7.87706e-11
1.00961e-08
-7.35869e-11
1.01188e-08
-6.85984e-11
1.01398e-08
-6.37993e-11
1.01593e-08
-5.91848e-11
1.01774e-08
-5.47492e-11
1.0194e-08
-5.04874e-11
1.02093e-08
-4.63943e-11
1.02233e-08
-4.24644e-11
1.0236e-08
-3.86929e-11
1.02475e-08
-3.50745e-11
1.02579e-08
-3.16043e-11
1.02672e-08
-2.82773e-11
1.02755e-08
-2.50888e-11
1.02827e-08
-2.20337e-11
1.02889e-08
-1.91075e-11
1.02943e-08
-1.63056e-11
1.02987e-08
-1.36233e-11
1.03023e-08
-1.10564e-11
1.03051e-08
-8.60019e-12
1.03071e-08
-6.25068e-12
1.03083e-08
-4.0037e-12
1.03088e-08
-1.85499e-12
1.03087e-08
1.99209e-13
1.03079e-08
2.16284e-12
1.03065e-08
4.03967e-12
1.03045e-08
5.83343e-12
1.03019e-08
7.5475e-12
1.02988e-08
9.1856e-12
1.02952e-08
1.07509e-11
1.02911e-08
1.22467e-11
1.02865e-08
1.36763e-11
1.02814e-08
1.50425e-11
1.02759e-08
1.63485e-11
1.027e-08
1.75971e-11
1.02637e-08
1.87911e-11
1.0257e-08
1.99332e-11
1.025e-08
2.10259e-11
1.02426e-08
2.20716e-11
1.02349e-08
2.3073e-11
1.02269e-08
2.40323e-11
1.02185e-08
2.49515e-11
1.02099e-08
2.5833e-11
1.0201e-08
2.66789e-11
1.01918e-08
2.74911e-11
1.01824e-08
2.82714e-11
1.01727e-08
2.90218e-11
1.01628e-08
2.97438e-11
1.01526e-08
3.04393e-11
1.01422e-08
3.11099e-11
1.01316e-08
3.17571e-11
1.01208e-08
3.23821e-11
1.01098e-08
3.29869e-11
1.00986e-08
3.35721e-11
1.00872e-08
3.41396e-11
1.00757e-08
3.46904e-11
1.00639e-08
3.52255e-11
1.0052e-08
3.57462e-11
1.00399e-08
3.62536e-11
1.00276e-08
3.67485e-11
1.00152e-08
3.7232e-11
1.00026e-08
3.77051e-11
9.98992e-09
3.81686e-11
9.97704e-09
3.86232e-11
9.96402e-09
3.907e-11
9.95084e-09
3.95096e-11
9.93753e-09
3.9943e-11
9.92407e-09
4.03706e-11
9.91047e-09
4.07932e-11
9.89673e-09
4.12118e-11
9.88285e-09
4.1627e-11
9.86884e-09
4.20396e-11
9.85468e-09
4.24502e-11
9.8404e-09
4.28601e-11
9.82597e-09
4.32697e-11
9.81141e-09
4.36803e-11
9.79671e-09
4.40932e-11
9.78188e-09
4.45095e-11
9.7669e-09
4.4931e-11
9.75178e-09
4.53595e-11
9.73652e-09
4.57973e-11
9.72111e-09
4.62473e-11
9.70554e-09
4.67131e-11
9.68981e-09
4.7199e-11
9.67391e-09
4.77106e-11
9.65783e-09
4.82549e-11
9.64156e-09
4.88408e-11
9.62507e-09
4.94798e-11
9.60836e-09
5.01866e-11
9.59138e-09
5.098e-11
9.5741e-09
5.18847e-11
9.55649e-09
5.29326e-11
9.53846e-09
5.41656e-11
9.51996e-09
5.56391e-11
9.50087e-09
5.74264e-11
9.48107e-09
5.96264e-11
9.46037e-09
6.23728e-11
9.43855e-09
6.58491e-11
9.41528e-09
7.03126e-11
9.39014e-09
7.61299e-11
9.36253e-09
8.3838e-11
9.3316e-09
9.42486e-11
9.29614e-09
1.08642e-10
9.25432e-09
1.29142e-10
9.20333e-09
1.59513e-10
9.13876e-09
2.06986e-10
9.05385e-09
2.86827e-10
8.94192e-09
4.34279e-10
7.31966e-10
8.82655e-09
2.39778e-10
-9.42242e-10
4.80892e-10
-9.4761e-10
7.23041e-10
-9.51868e-10
9.65911e-10
-9.54973e-10
1.20918e-09
-9.56897e-10
1.45252e-09
-9.57616e-10
1.69561e-09
-9.57117e-10
1.93811e-09
-9.55393e-10
2.1797e-09
-9.52446e-10
2.42005e-09
-9.48285e-10
2.65885e-09
-9.42927e-10
2.8958e-09
-9.36397e-10
3.13059e-09
-9.28727e-10
3.36293e-09
-9.19956e-10
3.59257e-09
-9.10127e-10
3.81924e-09
-8.9929e-10
4.04271e-09
-8.87501e-10
4.26275e-09
-8.74816e-10
4.47916e-09
-8.61298e-10
4.69176e-09
-8.47009e-10
4.90037e-09
-8.32015e-10
5.10484e-09
-8.16382e-10
5.30505e-09
-8.00176e-10
5.50088e-09
-7.83463e-10
5.69222e-09
-7.66307e-10
5.87901e-09
-7.48774e-10
6.06118e-09
-7.30923e-10
6.23867e-09
-7.12816e-10
6.41145e-09
-6.94508e-10
6.5795e-09
-6.76055e-10
6.74282e-09
-6.57508e-10
6.90139e-09
-6.38914e-10
7.05523e-09
-6.20321e-10
7.20437e-09
-6.0177e-10
7.34884e-09
-5.833e-10
7.48868e-09
-5.64947e-10
7.62393e-09
-5.46744e-10
7.75465e-09
-5.28721e-10
7.8809e-09
-5.10906e-10
8.00275e-09
-4.93323e-10
8.12027e-09
-4.75994e-10
8.23352e-09
-4.58938e-10
8.34259e-09
-4.42172e-10
8.44757e-09
-4.25711e-10
8.54852e-09
-4.09569e-10
8.64555e-09
-3.93755e-10
8.73873e-09
-3.7828e-10
8.82816e-09
-3.6315e-10
8.91392e-09
-3.48371e-10
8.99612e-09
-3.33948e-10
9.07483e-09
-3.19884e-10
9.15015e-09
-3.06182e-10
9.22217e-09
-2.92842e-10
9.29099e-09
-2.79863e-10
9.35669e-09
-2.67247e-10
9.41936e-09
-2.54989e-10
9.47909e-09
-2.43089e-10
9.53598e-09
-2.31543e-10
9.5901e-09
-2.20347e-10
9.64155e-09
-2.09498e-10
9.69041e-09
-1.9899e-10
9.73676e-09
-1.88819e-10
9.78068e-09
-1.78979e-10
9.82226e-09
-1.69464e-10
9.86158e-09
-1.60269e-10
9.8987e-09
-1.51387e-10
9.93372e-09
-1.42812e-10
9.9667e-09
-1.34537e-10
9.99771e-09
-1.26555e-10
1.00268e-08
-1.1886e-10
1.00541e-08
-1.11445e-10
1.00796e-08
-1.04303e-10
1.01035e-08
-9.74261e-11
1.01257e-08
-9.08082e-11
1.01463e-08
-8.44418e-11
1.01655e-08
-7.83199e-11
1.01832e-08
-7.24358e-11
1.01995e-08
-6.6782e-11
1.02144e-08
-6.13519e-11
1.02281e-08
-5.61384e-11
1.02405e-08
-5.11351e-11
1.02518e-08
-4.63348e-11
1.02619e-08
-4.17309e-11
1.0271e-08
-3.73172e-11
1.0279e-08
-3.30867e-11
1.0286e-08
-2.90336e-11
1.0292e-08
-2.51512e-11
1.02971e-08
-2.14337e-11
1.03014e-08
-1.78748e-11
1.03048e-08
-1.44687e-11
1.03074e-08
-1.12097e-11
1.03092e-08
-8.09212e-12
1.03103e-08
-5.11034e-12
1.03108e-08
-2.259e-12
1.03105e-08
4.66955e-13
1.03096e-08
3.07292e-12
1.0308e-08
5.56387e-12
1.03059e-08
7.94456e-12
1.03033e-08
1.02196e-11
1.03001e-08
1.23939e-11
1.02963e-08
1.44717e-11
1.02921e-08
1.64573e-11
1.02874e-08
1.83552e-11
1.02823e-08
2.0169e-11
1.02768e-08
2.1903e-11
1.02708e-08
2.35608e-11
1.02644e-08
2.51463e-11
1.02577e-08
2.66628e-11
1.02506e-08
2.81139e-11
1.02432e-08
2.95029e-11
1.02354e-08
3.08328e-11
1.02274e-08
3.21071e-11
1.0219e-08
3.33284e-11
1.02103e-08
3.44994e-11
1.02014e-08
3.56233e-11
1.01922e-08
3.67026e-11
1.01827e-08
3.77394e-11
1.0173e-08
3.87366e-11
1.0163e-08
3.96964e-11
1.01528e-08
4.0621e-11
1.01424e-08
4.15123e-11
1.01318e-08
4.23728e-11
1.0121e-08
4.3204e-11
1.011e-08
4.4008e-11
1.00988e-08
4.47865e-11
1.00874e-08
4.55412e-11
1.00758e-08
4.62739e-11
1.0064e-08
4.69857e-11
1.00521e-08
4.76786e-11
1.004e-08
4.83536e-11
1.00277e-08
4.90123e-11
1.00153e-08
4.96557e-11
1.00027e-08
5.02854e-11
9.98999e-09