/*--------------------------------*- C++ -*----------------------------------*\
  =========                 |
  \\      /  F ield         | OpenFOAM: The Open Source CFD Toolbox
   \\    /   O peration     | Website:  https://openfoam.org
    \\  /    A nd           | Version:  10
     \\/     M anipulation  |
\*---------------------------------------------------------------------------*/
FoamFile
{
    format      ascii;
    class       volScalarField;
    location    "0.071";
    object      p;
}
// * * * * * * * * * * * * * * * * * * * * * * * * * * * * * * * * * * * * * //

dimensions      [0 2 -2 0 0 0 0];

internalField   nonuniform List<scalar> 
4000
(
18.5172
18.5166
18.5151
18.5128
18.5097
18.5058
18.5012
18.4959
18.4898
18.4829
18.4754
18.4671
18.458
18.4482
18.4376
18.4261
18.4139
18.4008
18.3868
18.372
18.3562
18.3395
18.3219
18.3033
18.2837
18.263
18.2413
18.2184
18.1944
18.1691
18.1425
18.1147
18.0854
18.0547
18.0225
17.9887
17.9533
17.9161
17.8772
17.8363
17.7935
17.7486
17.7015
17.6522
17.6005
17.5464
17.4896
17.4301
17.3677
17.3024
17.2339
17.1622
17.0871
17.0085
16.9262
16.84
16.7499
16.6555
16.5569
16.4537
16.3459
16.2333
16.1157
15.9931
15.8651
15.7318
15.593
15.4486
15.2984
15.1425
14.9807
14.8131
14.6397
14.4606
14.2757
14.0853
13.8895
13.6886
13.4828
13.2725
13.0579
12.8395
12.6178
12.3932
12.1662
11.9375
11.7075
11.4769
11.2461
11.0159
10.7868
10.5593
10.334
10.1114
9.89196
9.67618
9.46436
9.257
9.05429
8.85665
8.66418
8.47724
8.29581
8.12018
7.95027
7.7863
7.62809
7.47583
7.32927
7.18855
7.05336
6.92384
6.7996
6.68077
6.56692
6.4582
6.3541
6.25481
6.15978
6.0692
5.98251
5.89992
5.82082
5.74547
5.67323
5.6044
5.53829
5.47527
5.4146
5.35671
5.30082
5.24742
5.19569
5.14616
5.09799
5.05177
5.00661
4.96315
4.92047
4.87926
4.83855
4.79909
4.75989
4.7217
4.68354
4.64618
4.60861
4.57164
4.53425
4.49725
4.45965
4.42223
4.38405
4.34587
4.30677
4.26748
4.22715
4.18646
4.14459
4.10219
4.0585
4.0141
3.96826
3.92153
3.87321
3.82378
3.77256
3.71998
3.66535
3.60909
3.55045
3.48983
3.42645
3.3607
3.29174
3.21995
3.14448
3.06565
2.98265
2.89575
2.80421
2.7082
2.60714
2.50106
2.38958
2.27259
2.14998
2.02153
1.88744
1.74741
1.60198
1.45083
1.29468
1.13325
0.967021
0.796075
0.620083
0.441334
0.254412
0.0947925
18.5202
18.5195
18.5181
18.5158
18.5127
18.5088
18.5042
18.4989
18.4928
18.486
18.4785
18.4702
18.4612
18.4514
18.4408
18.4294
18.4172
18.4042
18.3903
18.3755
18.3599
18.3433
18.3258
18.3073
18.2878
18.2673
18.2457
18.223
18.1991
18.174
18.1476
18.12
18.0909
18.0605
18.0285
17.995
17.9598
17.9229
17.8843
17.8437
17.8012
17.7567
17.7099
17.661
17.6097
17.5559
17.4995
17.4404
17.3784
17.3135
17.2455
17.1743
17.0996
17.0215
16.9396
16.8539
16.7641
16.6702
16.572
16.4692
16.3618
16.2496
16.1323
16.0099
15.8821
15.749
15.6102
15.4657
15.3154
15.1593
14.9971
14.8291
14.655
14.4751
14.2893
14.0978
13.9008
13.6985
13.4911
13.279
13.0625
12.8422
12.6184
12.3916
12.1624
11.9315
11.6992
11.4664
11.2335
11.0012
10.7701
10.5408
10.3138
10.0896
9.86879
9.65178
9.43894
9.2307
9.0273
8.82911
8.63627
8.44906
8.26754
8.09193
7.92218
7.75845
7.60063
7.44882
7.30282
7.16273
7.02826
6.89949
6.77608
6.65809
6.54515
6.43729
6.33413
6.2357
6.14159
6.05185
5.96604
5.88425
5.80598
5.73138
5.65993
5.5918
5.52645
5.46408
5.40414
5.34687
5.29169
5.23887
5.18782
5.13886
5.09135
5.04566
5.00113
4.95817
4.91609
4.87535
4.83522
4.79619
4.75753
4.71974
4.6821
4.6451
4.60803
4.5714
4.53448
4.4978
4.46064
4.42351
4.38575
4.34782
4.30911
4.27005
4.23007
4.18958
4.14805
4.10584
4.06248
4.01827
3.97279
3.92629
3.87837
3.82924
3.77851
3.72633
3.67231
3.61655
3.55865
3.49867
3.43617
3.37116
3.3032
3.23224
3.15783
3.07986
2.99794
2.91185
2.8213
2.72599
2.62574
2.52014
2.40921
2.2924
2.16998
2.04132
1.90697
1.76628
1.62012
1.46785
1.31049
1.14747
0.979603
0.806641
0.62868
0.447763
0.258665
0.0956684
18.5261
18.5254
18.524
18.5217
18.5186
18.5147
18.5102
18.5049
18.4988
18.4921
18.4846
18.4764
18.4674
18.4577
18.4472
18.4359
18.4239
18.411
18.3972
18.3826
18.3671
18.3508
18.3335
18.3152
18.296
18.2757
18.2544
18.232
18.2085
18.1838
18.1578
18.1305
18.1019
18.0719
18.0404
18.0074
17.9728
17.9365
17.8984
17.8584
17.8166
17.7727
17.7267
17.6784
17.6278
17.5748
17.5192
17.4609
17.3998
17.3358
17.2686
17.1983
17.1245
17.0473
16.9663
16.8815
16.7926
16.6996
16.6022
16.5003
16.3936
16.2821
16.1655
16.0436
15.9163
15.7834
15.6448
15.5003
15.3498
15.1932
15.0304
14.8614
14.6862
14.5047
14.317
14.1233
13.9238
13.7186
13.508
13.2924
13.0721
12.8477
12.6196
12.3884
12.1547
11.9192
11.6823
11.445
11.2077
10.9712
10.736
10.5029
10.2725
10.0452
9.82152
9.60206
9.38713
9.17717
8.97241
8.7732
8.57968
8.3921
8.2105
8.03506
7.86572
7.70262
7.5456
7.39477
7.24991
7.11107
6.97798
6.85067
6.72883
6.61246
6.50121
6.39509
6.29369
6.19704
6.10472
6.01675
5.9327
5.85263
5.77607
5.70313
5.6333
5.56673
5.50291
5.44202
5.38351
5.32763
5.27379
5.22228
5.17251
5.12477
5.07847
5.03394
4.99055
4.94869
4.90769
4.86797
4.82886
4.79079
4.75308
4.71619
4.67942
4.64326
4.60699
4.57112
4.53494
4.49895
4.46248
4.42599
4.38886
4.35152
4.3134
4.27489
4.23548
4.19553
4.15456
4.11288
4.0701
4.02647
3.98163
3.93578
3.8886
3.84025
3.7904
3.73918
3.68623
3.63164
3.57504
3.51645
3.45547
3.39209
3.32585
3.25668
3.18413
3.10805
3.02802
2.9438
2.85502
2.76137
2.66261
2.55828
2.44834
2.33221
2.2101
2.08133
1.94644
1.80471
1.65704
1.50274
1.34288
1.17684
1.00553
0.828643
0.646361
0.460768
0.266506
0.0984253
18.5349
18.5342
18.5328
18.5305
18.5274
18.5236
18.5191
18.5138
18.5078
18.5011
18.4937
18.4856
18.4767
18.4671
18.4568
18.4457
18.4338
18.421
18.4075
18.3932
18.3779
18.3619
18.3449
18.327
18.3081
18.2883
18.2674
18.2455
18.2225
18.1983
18.1729
18.1463
18.1183
18.089
18.0582
18.026
17.9921
17.9567
17.9195
17.8804
17.8395
17.7967
17.7517
17.7045
17.655
17.6032
17.5488
17.4917
17.4319
17.3691
17.3033
17.2343
17.1619
17.086
17.0065
16.923
16.8356
16.7439
16.6479
16.5472
16.4418
16.3314
16.2158
16.0948
15.9682
15.8359
15.6976
15.5532
15.4025
15.2453
15.0816
14.9112
14.7342
14.5504
14.36
14.163
13.9595
13.7499
13.5344
13.3133
13.0872
12.8565
12.6217
12.3836
12.1428
11.9001
11.6561
11.4117
11.1676
10.9246
10.6833
10.4444
10.2086
9.97653
9.74862
9.52544
9.30734
9.09478
8.88797
8.68727
8.49277
8.30472
8.12311
7.94808
7.77955
7.61759
7.46201
7.31287
7.16991
7.03315
6.90229
6.77732
6.65792
6.54406
6.43537
6.33186
6.23311
6.13912
6.04945
5.96415
5.88273
5.80526
5.73125
5.6608
5.59341
5.52921
5.46769
5.40902
5.35266
5.29884
5.24701
5.19743
5.14951
5.10358
5.05903
5.0162
4.97446
4.93422
4.8948
4.85663
4.81904
4.78247
4.74622
4.71076
4.67538
4.64057
4.6056
4.57097
4.53598
4.50111
4.46569
4.43019
4.39398
4.35752
4.32021
4.28247
4.2438
4.20455
4.16429
4.12333
4.0813
4.03844
3.99445
3.94953
3.9034
3.8562
3.80766
3.75788
3.70657
3.65379
3.59918
3.54277
3.48414
3.42327
3.35969
3.29333
3.22366
3.15054
3.07345
2.99215
2.90617
2.81517
2.71877
2.61651
2.50821
2.39324
2.27171
2.14287
2.00724
1.86397
1.71404
1.5566
1.39289
1.22215
1.04548
0.86243
0.673426
0.480505
0.278319
0.102545
18.5466
18.5459
18.5445
18.5422
18.5392
18.5354
18.5309
18.5257
18.5198
18.5131
18.5058
18.4978
18.4891
18.4796
18.4694
18.4585
18.4468
18.4344
18.4211
18.4071
18.3922
18.3765
18.3599
18.3425
18.3241
18.3048
18.2846
18.2633
18.2409
18.2174
18.1928
18.167
18.1399
18.1115
18.0817
18.0504
18.0176
17.9833
17.9472
17.9095
17.8698
17.8283
17.7847
17.739
17.691
17.6407
17.5879
17.5325
17.4743
17.4133
17.3493
17.2821
17.2116
17.1376
17.0599
16.9784
16.8929
16.8031
16.7089
16.6101
16.5064
16.3976
16.2835
16.1639
16.0385
15.9071
15.7694
15.6253
15.4744
15.3167
15.1519
14.9799
14.8006
14.6139
14.4198
14.2183
14.0097
13.7941
13.5717
13.3431
13.1087
12.8692
12.625
12.3772
12.1264
11.8735
11.6194
11.3651
11.1114
10.8592
10.6093
10.3626
10.1196
9.88105
9.64749
9.41944
9.19727
8.98138
8.772
8.56943
8.37375
8.18516
8.00363
7.82927
7.66193
7.50165
7.34819
7.20153
7.06138
6.92768
6.80009
6.67855
6.56268
6.45243
6.3474
6.24756
6.15248
6.06215
5.97611
5.89439
5.81652
5.74253
5.67195
5.60485
5.54072
5.47969
5.42125
5.36556
5.31209
5.26107
5.21193
5.16495
5.11955
5.07604
5.03382
4.99324
4.95368
4.91554
4.87815
4.84197
4.8063
4.77163
4.73723
4.70361
4.67003
4.637
4.60377
4.57085
4.5375
4.50423
4.4703
4.43623
4.40133
4.36608
4.32988
4.29316
4.25541
4.21701
4.17755
4.13734
4.09609
4.05403
4.01093
3.96699
3.92203
3.87616
3.82921
3.78126
3.73208
3.68172
3.62984
3.57648
3.52119
3.46398
3.40426
3.34202
3.27658
3.20787
3.13515
3.05826
2.97646
2.88948
2.7967
2.69764
2.59191
2.47882
2.35835
2.22962
2.09309
1.94779
1.79476
1.63297
1.46388
1.28651
1.10229
0.910571
0.712093
0.508839
0.295439
0.108475
18.5612
18.5605
18.5591
18.5569
18.5538
18.5501
18.5456
18.5404
18.5346
18.528
18.5208
18.5129
18.5043
18.495
18.4851
18.4744
18.4629
18.4508
18.4379
18.4242
18.4098
18.3945
18.3785
18.3616
18.3439
18.3252
18.3057
18.2852
18.2636
18.2411
18.2174
18.1926
18.1666
18.1393
18.1107
18.0807
18.0493
18.0163
17.9818
17.9455
17.9075
17.8676
17.8258
17.7819
17.7358
17.6874
17.6366
17.5833
17.5273
17.4685
17.4067
17.3419
17.2737
17.2021
17.1269
17.0479
16.9648
16.8775
16.7858
16.6894
16.588
16.4815
16.3695
16.2518
16.1281
15.9981
15.8615
15.7181
15.5674
15.4094
15.2435
15.0698
14.8878
14.6976
14.499
14.292
14.0767
13.8533
13.6221
13.3836
13.1382
12.8868
12.6301
12.3691
12.1048
11.8383
11.5707
11.303
11.0365
10.7721
10.5108
10.2536
10.0012
9.75434
9.51364
9.27963
9.05262
8.83298
8.62087
8.41649
8.21988
8.03114
7.85018
7.67704
7.51152
7.35362
7.20304
7.05972
6.9233
6.79367
6.67043
6.55345
6.44229
6.33686
6.23669
6.14172
6.05147
5.96591
5.88458
5.80747
5.7341
5.66452
5.59822
5.5353
5.47524
5.41816
5.36353
5.31155
5.26165
5.21409
5.16829
5.12456
5.0823
5.04185
5.0026
4.96493
4.92817
4.89276
4.85801
4.82439
4.79117
4.75888
4.72676
4.69537
4.66393
4.63302
4.60183
4.57095
4.53956
4.50824
4.47618
4.44392
4.41073
4.37709
4.34237
4.307
4.27047
4.23314
4.19464
4.15527
4.11482
4.0735
4.03121
3.98814
3.94423
3.89962
3.85424
3.80819
3.76132
3.7137
3.66505
3.6154
3.5643
3.51177
3.45714
3.40045
3.3408
3.27822
3.21167
3.14109
3.06539
2.98436
2.89699
2.80282
2.70111
2.59112
2.47254
2.34439
2.20701
2.05923
1.90219
1.73463
1.55833
1.37205
1.17768
0.974271
0.763129
0.546086
0.317895
0.116065
18.5786
18.578
18.5766
18.5743
18.5713
18.5676
18.5631
18.558
18.5522
18.5457
18.5386
18.5308
18.5224
18.5133
18.5035
18.4931
18.482
18.4702
18.4576
18.4444
18.4305
18.4158
18.4003
18.3841
18.3671
18.3492
18.3305
18.3109
18.2903
18.2688
18.2462
18.2226
18.1979
18.1719
18.1448
18.1163
18.0865
18.0552
18.0224
17.988
17.9519
17.914
17.8742
17.8325
17.7887
17.7426
17.6943
17.6435
17.5901
17.534
17.475
17.413
17.3477
17.2791
17.207
17.131
17.0511
16.9669
16.8783
16.7851
16.6868
16.5833
16.4742
16.3592
16.238
16.1101
15.9754
15.8332
15.6834
15.5254
15.3589
15.1835
14.9989
14.8048
14.6011
14.3875
14.1641
13.9311
13.6886
13.4373
13.1777
12.9107
12.6375
12.3591
12.077
11.7925
11.5071
11.2223
10.9392
10.6592
10.3835
10.113
9.84879
9.5916
9.34206
9.10076
8.86799
8.6441
8.42915
8.22326
8.0263
7.83826
7.6589
7.48815
7.3257
7.17143
7.02499
6.88624
6.75478
6.63043
6.51276
6.40158
6.29641
6.19708
6.10308
6.01428
5.93017
5.85068
5.77527
5.70395
5.63621
5.57208
5.51106
5.45324
5.3981
5.34579
5.29577
5.24823
5.20261
5.15915
5.11729
5.07733
5.03869
5.00172
4.96584
4.93145
4.89791
4.86569
4.83408
4.80359
4.77344
4.74418
4.71499
4.68646
4.65773
4.62945
4.60074
4.57227
4.54314
4.51402
4.48404
4.45381
4.42253
4.39074
4.35774
4.32397
4.2889
4.25287
4.21554
4.17716
4.13762
4.0971
4.05566
4.01344
3.9706
3.92723
3.88348
3.83942
3.79509
3.75055
3.70561
3.66035
3.61429
3.56755
3.5193
3.46973
3.41764
3.36325
3.30508
3.24325
3.17616
3.1037
3.02428
2.93748
2.84199
2.73699
2.62174
2.49506
2.35711
2.20645
2.04438
1.86931
1.68351
1.48539
1.27758
1.05876
0.830922
0.595819
0.347757
0.127069
18.5989
18.5983
18.5969
18.5946
18.5916
18.5878
18.5834
18.5783
18.5726
18.5661
18.5591
18.5514
18.5431
18.5342
18.5247
18.5145
18.5037
18.4923
18.4802
18.4675
18.4541
18.44
18.4253
18.4098
18.3937
18.3767
18.359
18.3405
18.3211
18.3008
18.2795
18.2573
18.234
18.2097
18.1842
18.1575
18.1295
18.1001
18.0694
18.0371
18.0032
17.9677
17.9304
17.8912
17.85
17.8068
17.7613
17.7134
17.6631
17.6102
17.5544
17.4958
17.434
17.3689
17.3004
17.2282
17.152
17.0718
16.9871
16.8977
16.8034
16.7037
16.5984
16.4871
16.3693
16.2447
16.1127
15.9729
15.8248
15.6678
15.5013
15.3249
15.1379
14.94
14.7307
14.5097
14.2768
14.0321
13.7758
13.5083
13.2306
12.9435
12.6486
12.3474
12.0416
11.7334
11.4246
11.1172
10.8129
10.5133
10.2197
9.93338
9.6552
9.38601
9.1264
8.8769
8.63779
8.40935
8.19157
7.98447
7.78783
7.60146
7.42499
7.25813
7.10043
6.95159
6.81113
6.67877
6.55403
6.43666
6.32616
6.22231
6.12456
6.03273
5.94627
5.86499
5.78834
5.71619
5.64799
5.58369
5.52273
5.46515
5.41041
5.35861
5.30925
5.26248
5.2178
5.17543
5.13483
5.09624
5.05909
5.02366
4.98936
4.95653
4.92455
4.89387
4.86385
4.83503
4.80674
4.77956
4.75274
4.72689
4.70115
4.67615
4.65091
4.62611
4.60072
4.57544
4.54926
4.52291
4.49541
4.46747
4.43819
4.40822
4.37678
4.34437
4.31043
4.27529
4.23867
4.20078
4.16162
4.12135
4.08022
4.03832
3.9961
3.95359
3.91124
3.86905
3.82733
3.78609
3.74533
3.70511
3.66502
3.62523
3.58481
3.54409
3.5016
3.45776
3.41064
3.3606
3.30531
3.24493
3.17696
3.1011
3.01509
2.91806
2.80849
2.68497
2.54728
2.39362
2.22542
2.04071
1.84249
1.62878
1.40336
1.16445
0.91524
0.657288
0.383855
0.141575
18.6221
18.6215
18.62
18.6177
18.6147
18.6109
18.6065
18.6013
18.5956
18.5892
18.5822
18.5746
18.5665
18.5577
18.5484
18.5385
18.528
18.5169
18.5053
18.493
18.4802
18.4668
18.4528
18.4381
18.4228
18.4069
18.3902
18.3728
18.3547
18.3358
18.316
18.2953
18.2737
18.2511
18.2275
18.2028
18.1769
18.1498
18.1213
18.0915
18.0602
18.0273
17.9928
17.9566
17.9184
17.8783
17.8361
17.7917
17.7449
17.6957
17.6438
17.589
17.5313
17.4705
17.4063
17.3385
17.2669
17.1913
17.1114
17.0269
16.9375
16.8428
16.7424
16.636
16.523
16.4029
16.2752
16.1392
15.9942
15.8396
15.6745
15.4982
15.3099
15.1088
14.894
14.6651
14.4215
14.163
13.8896
13.6019
13.3008
12.9877
12.6645
12.3335
11.9971
11.6579
11.3186
10.9818
10.65
10.3252
10.0092
9.70347
9.40892
9.12634
8.8561
8.59852
8.35365
8.12156
7.90204
7.69499
7.50002
7.31683
7.14488
6.98375
6.83278
6.6915
6.55926
6.43561
6.3199
6.21177
6.1106
6.01612
5.92771
5.84516
5.76788
5.69566
5.62792
5.56451
5.50483
5.44882
5.39588
5.34602
5.29868
5.25392
5.21123
5.17076
5.13202
5.09528
5.06003
5.02661
4.99449
4.96401
4.93458
4.90653
4.87922
4.85303
4.82729
4.80247
4.77789
4.75419
4.73067
4.7081
4.68567
4.66419
4.64266
4.62186
4.60057
4.57958
4.55757
4.53534
4.51163
4.48725
4.46106
4.4338
4.40454
4.37383
4.34105
4.30658
4.27015
4.232
4.19231
4.15122
4.10931
4.06663
4.02402
3.98145
3.93978
3.89896
3.85963
3.82176
3.78557
3.75111
3.71802
3.68658
3.6557
3.62597
3.59554
3.56525
3.53249
3.49812
3.45884
3.41516
3.36337
3.30326
3.23128
3.1463
3.0457
2.92756
2.79108
2.6338
2.4574
2.25927
2.04368
1.80816
1.55863
1.29284
1.01617
0.729325
0.426967
0.154632
18.6482
18.6475
18.646
18.6437
18.6405
18.6367
18.6322
18.627
18.6212
18.6147
18.6078
18.6002
18.5922
18.5836
18.5745
18.5648
18.5547
18.5441
18.533
18.5214
18.5092
18.4966
18.4834
18.4697
18.4554
18.4406
18.4252
18.4091
18.3924
18.375
18.3569
18.338
18.3183
18.2977
18.2762
18.2536
18.2301
18.2054
18.1796
18.1525
18.124
18.0941
18.0627
18.0297
17.995
17.9584
17.9199
17.8793
17.8365
17.7913
17.7437
17.6934
17.6403
17.5842
17.525
17.4623
17.396
17.3259
17.2517
17.173
17.0895
17.001
16.9069
16.8067
16.7
16.5862
16.4646
16.3344
16.1947
16.0447
15.8832
15.7092
15.5215
15.3187
15.0997
14.8633
14.6084
14.3344
14.0407
13.7277
13.3962
13.0482
12.6863
12.3144
11.9364
11.5563
11.1777
10.804
10.4379
10.0822
9.73906
9.41024
9.09682
8.79952
8.51852
8.25378
8.0049
7.77151
7.55299
7.34888
7.15849
6.98131
6.81661
6.66381
6.5221
6.39088
6.2693
6.15678
6.0525
5.95595
5.8664
5.78346
5.70646
5.63509
5.56874
5.50718
5.44979
5.39641
5.34643
5.29976
5.25581
5.21457
5.1755
5.13871
5.10368
5.07056
5.03882
5.00865
4.97952
4.95177
4.9249
4.89936
4.87466
4.85126
4.8286
4.80711
4.78615
4.76613
4.74629
4.7271
4.70775
4.68897
4.66996
4.65174
4.63339
4.61601
4.59835
4.58143
4.56369
4.54609
4.52697
4.50723
4.4853
4.46197
4.4359
4.40767
4.37639
4.34244
4.30554
4.26598
4.22417
4.18035
4.13556
4.08994
4.04492
4.00045
3.95801
3.91743
3.87991
3.84523
3.81404
3.78622
3.76161
3.74046
3.72169
3.70609
3.69158
3.67947
3.66651
3.65418
3.63799
3.61904
3.5918
3.55636
3.50693
3.44226
3.35758
3.25038
3.11838
2.95828
2.77151
2.55484
2.31423
2.04723
1.76337
1.46039
1.14814
0.82413
0.491983
0.162322
18.6772
18.6765
18.675
18.6725
18.6692
18.6652
18.6605
18.6552
18.6492
18.6427
18.6356
18.6279
18.6198
18.6112
18.6022
18.5927
18.5828
18.5725
18.5618
18.5506
18.5391
18.5271
18.5148
18.502
18.4887
18.475
18.4609
18.4462
18.431
18.4153
18.3989
18.3819
18.3642
18.3458
18.3266
18.3066
18.2857
18.2638
18.2408
18.2168
18.1915
18.165
18.1371
18.1078
18.0769
18.0443
18.0099
17.9736
17.9353
17.8948
17.852
17.8068
17.7589
17.7083
17.6547
17.5979
17.5378
17.474
17.4064
17.3346
17.2584
17.1773
17.0909
16.9988
16.9003
16.7949
16.6818
16.56
16.4286
16.2863
16.1319
15.9636
15.7799
15.5787
15.358
15.1159
14.8503
14.5596
14.2429
13.8998
13.5311
13.1386
12.7258
12.2981
11.8623
11.4253
10.9931
10.5706
10.1615
9.76873
9.39438
9.03997
8.70637
8.39402
8.10277
7.83214
7.58124
7.3491
7.13456
6.93661
6.75413
6.58623
6.43193
6.29046
6.16086
6.04239
5.93408
5.83521
5.74484
5.66233
5.58683
5.51783
5.45459
5.39672
5.34355
5.2948
5.24981
5.20838
5.16986
5.13411
5.10048
5.06894
5.03892
5.01062
4.98363
4.9583
4.93419
4.91157
4.88985
4.86924
4.84913
4.82982
4.81082
4.79255
4.77461
4.7575
4.74084
4.72522
4.71016
4.69621
4.68253
4.66962
4.6564
4.64371
4.63046
4.61796
4.6049
4.59279
4.57993
4.5678
4.55433
4.54077
4.52486
4.50747
4.48652
4.4625
4.43394
4.40103
4.36327
4.32082
4.27443
4.22442
4.17275
4.11976
4.068
4.01749
3.9708
3.92763
3.89007
3.85752
3.83121
3.81065
3.79604
3.78753
3.78411
3.78701
3.79381
3.8068
3.82174
3.84144
3.85951
3.87816
3.88909
3.89286
3.88022
3.84941
3.79224
3.70482
3.58222
3.4191
3.21599
2.96859
2.68557
2.3665
2.0274
1.66846
1.30629
0.93514
0.571419
0.165121
18.7094
18.7087
18.707
18.7043
18.7008
18.6965
18.6915
18.6859
18.6797
18.673
18.6658
18.6582
18.6501
18.6417
18.6329
18.6237
18.6142
18.6043
18.5942
18.5837
18.5729
18.5618
18.5504
18.5387
18.5267
18.5143
18.5016
18.4884
18.4749
18.4609
18.4464
18.4315
18.416
18.3999
18.3831
18.3657
18.3475
18.3285
18.3086
18.2878
18.266
18.243
18.2188
18.1934
18.1665
18.1382
18.1083
18.0766
18.0431
18.0076
17.97
17.9302
17.888
17.8433
17.7958
17.7455
17.6921
17.6355
17.5753
17.5114
17.4434
17.3711
17.294
17.2116
17.1235
17.029
16.9272
16.8172
16.6979
16.5679
16.4254
16.2684
16.0945
15.9009
15.6842
15.4408
15.1666
14.858
14.5118
14.1266
13.704
13.2485
12.7671
12.2674
11.7584
11.249
10.7475
10.2613
9.79631
9.3566
8.94407
8.55959
8.20318
7.87451
7.57272
7.29672
7.04501
6.81603
6.60799
6.41924
6.2481
6.0932
5.95317
5.82694
5.71338
5.61155
5.52037
5.43897
5.36628
5.30154
5.24379
5.1924
5.14656
5.10578
5.06932
5.03684
5.00765
4.98146
4.9576
4.93584
4.91554
4.89656
4.87828
4.86081
4.84374
4.8274
4.8115
4.79657
4.78235
4.76926
4.75677
4.74504
4.73345
4.72214
4.71064
4.6992
4.68743
4.67577
4.66409
4.6533
4.64336
4.63515
4.62788
4.62201
4.61605
4.61087
4.60478
4.59944
4.59297
4.58749
4.58077
4.5748
4.56665
4.55752
4.54425
4.52717
4.50374
4.47378
4.4361
4.39045
4.33768
4.27825
4.21526
4.14968
4.08558
4.02346
3.9674
3.91724
3.8762
3.84316
3.81998
3.80544
3.80014
3.80372
3.8157
3.83763
3.86765
3.90906
3.95737
4.01663
4.07922
4.14797
4.21164
4.27078
4.31162
4.33078
4.31529
4.25837
4.15013
3.98101
3.74885
3.44851
3.09398
2.69211
2.27027
1.83515
1.41092
0.991898
0.598342
0.159742
18.7451
18.7443
18.7424
18.7394
18.7354
18.7306
18.725
18.7188
18.7119
18.7045
18.6967
18.6885
18.68
18.6712
18.6622
18.6529
18.6433
18.6336
18.6237
18.6137
18.6034
18.593
18.5825
18.5718
18.561
18.5499
18.5387
18.5272
18.5155
18.5035
18.4912
18.4786
18.4655
18.4521
18.4382
18.4237
18.4087
18.3931
18.3767
18.3596
18.3417
18.3228
18.3028
18.2818
18.2596
18.236
18.211
18.1845
18.1564
18.1265
18.0947
18.0609
18.0249
17.9867
17.946
17.9028
17.8569
17.8081
17.7562
17.7011
17.6425
17.5801
17.5138
17.443
17.3673
17.2862
17.1989
17.1046
17.0021
16.8899
16.7662
16.6285
16.4739
16.2987
16.0983
15.8671
15.5985
15.2844
14.9158
14.4836
13.9823
13.4172
12.808
12.1811
11.5561
10.9425
10.3467
9.77686
9.24064
8.74293
8.28533
7.86759
7.48828
7.14555
6.83725
6.56127
6.31537
6.09728
5.90456
5.73481
5.58564
5.45495
5.34077
5.24145
5.15543
5.08138
5.01796
4.96404
4.91839
4.88009
4.84808
4.82165
4.79992
4.78235
4.76819
4.75701
4.74812
4.74109
4.73519
4.73002
4.7249
4.71979
4.71444
4.70948
4.70472
4.70022
4.69517
4.68992
4.68421
4.67882
4.67355
4.66884
4.66419
4.65968
4.65476
4.64961
4.64393
4.63789
4.63099
4.62362
4.6161
4.61
4.60588
4.60486
4.60576
4.60872
4.61154
4.61536
4.61801
4.62153
4.6234
4.62576
4.6254
4.62402
4.61809
4.60785
4.58968
4.56262
4.52418
4.47354
4.4115
4.33918
4.26101
4.17907
4.0991
4.02249
3.9548
3.89607
3.85026
3.81543
3.79392
3.78314
3.78429
3.79562
3.81758
3.85122
3.89611
3.95626
4.02914
4.11969
4.22128
4.33829
4.45726
4.57961
4.68609
4.77161
4.81753
4.8135
4.73989
4.57822
4.32113
3.95762
3.51093
3.00226
2.48067
1.96129
1.47563
1.01628
0.594543
0.165428
18.7846
18.7836
18.7814
18.7778
18.7732
18.7679
18.7619
18.7554
18.7483
18.7407
18.7328
18.7246
18.7161
18.7075
18.6986
18.6896
18.6804
18.6712
18.6618
18.6523
18.6428
18.6332
18.6235
18.6138
18.604
18.5942
18.5844
18.5744
18.5643
18.5542
18.5438
18.5333
18.5226
18.5116
18.5004
18.4888
18.4768
18.4644
18.4515
18.438
18.4239
18.409
18.3934
18.3768
18.3592
18.3406
18.3207
18.2995
18.2769
18.2527
18.2269
18.1994
18.1699
18.1385
18.1049
18.0691
18.031
17.9904
17.9473
17.9015
17.8529
17.8014
17.7467
17.6887
17.6271
17.5616
17.4917
17.4166
17.3355
17.247
17.1493
17.04
16.9156
16.7714
16.6011
16.3971
16.15
15.8488
15.4827
15.0356
14.4891
13.8139
13.0177
12.166
11.3193
10.5042
9.73421
9.02202
8.37603
7.79929
7.29093
6.84773
6.46438
6.13455
5.85178
5.61035
5.40517
5.23182
5.0862
4.96469
4.86394
4.78113
4.71369
4.65955
4.61676
4.58378
4.55908
4.54151
4.52983
4.52321
4.52068
4.52168
4.52547
4.53169
4.53975
4.5494
4.56003
4.57135
4.58253
4.59281
4.6006
4.60498
4.60668
4.60783
4.60921
4.61124
4.6132
4.61513
4.61639
4.61745
4.61799
4.61851
4.61866
4.61858
4.61772
4.61582
4.6128
4.60894
4.60441
4.59923
4.59342
4.58761
4.58298
4.58142
4.58317
4.58839
4.5953
4.60433
4.6141
4.62661
4.63914
4.65215
4.6619
4.66922
4.67083
4.66685
4.65399
4.62925
4.58941
4.53105
4.45561
4.36535
4.2676
4.16555
4.06672
3.97401
3.895
3.82908
3.78028
3.74525
3.7269
3.71966
3.72586
3.74166
3.77083
3.8119
3.87009
3.93962
4.02743
4.13789
4.26194
4.41093
4.57612
4.75197
4.91805
5.07169
5.19202
5.26747
5.26656
5.15827
4.89585
4.4487
3.86925
3.22103
2.58423
1.98741
1.46131
0.99254
0.578887
0.174187
18.8289
18.8277
18.8247
18.8199
18.8136
18.8062
18.798
18.7893
18.7802
18.7709
18.7614
18.7518
18.7423
18.7327
18.7232
18.7139
18.7046
18.6955
18.6866
18.6778
18.6691
18.6605
18.6521
18.6438
18.6357
18.6276
18.6197
18.6119
18.6042
18.5965
18.5889
18.5812
18.5736
18.5658
18.558
18.55
18.5419
18.5335
18.5247
18.5156
18.5061
18.496
18.4853
18.4739
18.4616
18.4485
18.4343
18.419
18.4025
18.3846
18.3653
18.3444
18.3218
18.2974
18.2712
18.243
18.2128
18.1806
18.1463
18.1099
18.0713
18.0307
17.988
17.9433
17.8966
17.8479
17.7972
17.7445
17.6895
17.6317
17.5702
17.5033
17.4278
17.3385
17.2264
17.0768
16.8658
16.5613
16.1199
15.5096
14.7206
13.8224
12.8196
11.7705
10.7137
9.68175
8.72708
7.89097
7.1854
6.60427
6.13492
5.76189
5.46829
5.23765
5.05578
4.91149
4.79638
4.70423
4.63044
4.57158
4.52508
4.48895
4.46167
4.44193
4.42869
4.42097
4.41795
4.41886
4.42309
4.43003
4.43926
4.45031
4.46295
4.47678
4.49171
4.50741
4.52388
4.54078
4.55796
4.57493
4.58953
4.59662
4.59924
4.6009
4.6023
4.6035
4.60469
4.60605
4.60748
4.60896
4.61035
4.61148
4.61214
4.61206
4.61093
4.60878
4.60564
4.60116
4.59565
4.58975
4.58431
4.57938
4.57578
4.57454
4.57605
4.58025
4.58754
4.59712
4.60816
4.62462
4.64349
4.66343
4.68099
4.69702
4.70807
4.71541
4.71432
4.69999
4.6651
4.60401
4.51727
4.40993
4.2931
4.17368
4.05932
3.95431
3.86616
3.79549
3.74387
3.70914
3.69117
3.68515
3.68869
3.70021
3.71787
3.74222
3.78225
3.84644
3.9194
4.01088
4.12745
4.28007
4.45229
4.65549
4.8531
5.04072
5.22509
5.38147
5.43599
5.31983
4.97701
4.39038
3.66688
2.90163
2.18774
1.56037
1.04345
0.637128
0.324142
0.0784981
18.879
18.8774
18.8741
18.869
18.8628
18.8557
18.8478
18.839
18.8297
18.8201
18.8103
18.8003
18.7903
18.7802
18.7702
18.7604
18.7507
18.7412
18.7319
18.7229
18.7141
18.7056
18.6974
18.6895
18.6819
18.6747
18.6677
18.661
18.6546
18.6484
18.6425
18.6369
18.6314
18.6262
18.6211
18.616
18.6111
18.6061
18.6011
18.596
18.5907
18.585
18.5791
18.5726
18.5656
18.558
18.5495
18.5402
18.5298
18.5183
18.5055
18.4914
18.4758
18.4586
18.4398
18.4194
18.3972
18.3732
18.3477
18.3205
18.292
18.2622
18.2316
18.2003
18.169
18.1383
18.1088
18.0817
18.0581
18.0398
18.0286
18.0269
18.0372
18.0616
18.0996
18.1467
18.1772
18.1484
17.8968
17.2782
15.6729
13.5921
11.8694
10.5948
9.5063
8.52639
7.68779
7.00297
6.4557
6.02229
5.68022
5.41049
5.19679
5.02622
4.88877
4.77737
4.68677
4.61334
4.55419
4.50725
4.47064
4.443
4.42294
4.40949
4.40153
4.39837
4.39909
4.40323
4.41001
4.41921
4.43016
4.44283
4.45662
4.47165
4.48732
4.5039
4.52079
4.53818
4.55537
4.5723
4.58567
4.59086
4.59279
4.5948
4.59696
4.59923
4.6015
4.60416
4.60698
4.61029
4.61366
4.61721
4.62034
4.62281
4.62325
4.62131
4.61693
4.61073
4.60295
4.59509
4.58726
4.58076
4.57557
4.57383
4.57337
4.57568
4.57993
4.58646
4.59449
4.61114
4.63102
4.65455
4.67798
4.70108
4.71904
4.73119
4.73181
4.71628
4.67613
4.60326
4.49904
4.373
4.23942
4.10793
3.98359
3.87388
3.78254
3.71227
3.66122
3.63019
3.61441
3.61131
3.61416
3.62599
3.64243
3.66693
3.69525
3.74618
3.79849
3.85865
3.9389
4.051
4.16514
4.32623
4.47077
4.58919
4.69602
4.7794
4.76516
4.63448
4.29762
3.75245
3.10088
2.41602
1.77398
1.19649
0.726759
0.358682
0.08218
-0.0327811
18.9378
18.9339
18.9241
18.9102
18.8959
18.8825
18.8696
18.8569
18.8444
18.8325
18.8211
18.8104
18.8001
18.7904
18.781
18.7721
18.7637
18.7556
18.748
18.7407
18.7339
18.7275
18.7215
18.716
18.7109
18.7062
18.7019
18.698
18.6946
18.6916
18.6889
18.6867
18.6849
18.6834
18.6822
18.6814
18.6808
18.6804
18.6801
18.68
18.6798
18.6795
18.6791
18.6784
18.6774
18.6758
18.6736
18.6707
18.667
18.6623
18.6565
18.6495
18.6413
18.6317
18.6207
18.6084
18.5948
18.58
18.564
18.5473
18.5299
18.5123
18.4949
18.4785
18.4636
18.4511
18.4422
18.4384
18.4414
18.454
18.4801
18.5263
18.6027
18.7249
18.9148
19.2059
19.6312
20.2691
21.0674
22.2924
22.1737
17.9049
14.423
12.0643
10.1837
8.74398
7.69893
6.93947
6.38578
5.97798
5.67088
5.43316
5.24332
5.08757
4.95691
4.84613
4.75175
4.67194
4.60506
4.5502
4.50602
4.4717
4.44584
4.42764
4.41574
4.40947
4.40764
4.40982
4.415
4.42299
4.43295
4.44488
4.45807
4.47267
4.48803
4.50449
4.52147
4.53987
4.55822
4.58716
4.59264
4.59531
4.59695
4.59836
4.59959
4.60103
4.60228
4.60385
4.60534
4.60738
4.60924
4.61112
4.61227
4.61298
4.6124
4.61009
4.60574
4.60025
4.59379
4.5867
4.57926
4.57241
4.56725
4.56405
4.56181
4.56136
4.56391
4.56908
4.57694
4.58949
4.59845
4.60884
4.61942
4.6302
4.6353
4.63512
4.6261
4.60455
4.56042
4.48836
4.38804
4.26216
4.12734
3.99562
3.87558
3.76999
3.68511
3.61986
3.57449
3.54566
3.53305
3.52997
3.53581
3.54583
3.55936
3.57952
3.61283
3.6512
3.68888
3.73589
3.80306
3.8775
3.96503
4.07169
4.17593
4.27584
4.36486
4.39131
4.33515
4.20281
3.97451
3.54819
3.02442
2.48364
1.989
1.52568
1.08921
0.713887
0.421684
0.00331008
19.0093
19.0184
19.0172
19.0059
18.9911
18.9756
18.9595
18.9428
18.926
18.9097
18.8939
18.8787
18.8642
18.8504
18.8375
18.8253
18.8139
18.8033
18.7933
18.7841
18.7757
18.768
18.761
18.7549
18.7494
18.7447
18.7407
18.7374
18.7348
18.733
18.7318
18.7314
18.7317
18.7327
18.7343
18.7367
18.7396
18.7432
18.7472
18.7518
18.7569
18.7623
18.768
18.7739
18.78
18.7861
18.7921
18.7978
18.8033
18.8082
18.8125
18.8161
18.8187
18.8204
18.8209
18.8203
18.8183
18.8152
18.8108
18.8054
18.7991
18.7922
18.785
18.7781
18.772
18.7675
18.7652
18.7663
18.7715
18.7813
18.7955
18.8135
18.839
18.8853
18.9776
19.1533
19.4496
19.9325
20.6046
21.6073
22.023
19.1459
16.6943
14.8367
13.1673
11.7236
10.5136
9.49837
8.64929
7.94138
7.35126
6.85905
6.44782
6.10365
5.81506
5.57285
5.36947
5.19895
5.05628
4.93744
4.83899
4.75808
4.6922
4.63927
4.59739
4.56503
4.54073
4.52337
4.51183
4.50531
4.50296
4.50424
4.50848
4.51535
4.52434
4.53532
4.54784
4.56227
4.57659
4.59914
4.59902
4.59913
4.59938
4.59983
4.60032
4.6011
4.60173
4.60256
4.6031
4.60393
4.60428
4.60431
4.60312
4.60118
4.59807
4.59392
4.58862
4.58289
4.57665
4.56988
4.56268
4.55602
4.55077
4.54731
4.5451
4.54468
4.54752
4.55512
4.5661
4.5783
4.58496
4.58929
4.59437
4.60258
4.6068
4.60189
4.58665
4.56294
4.5281
4.46967
4.38694
4.27742
4.15768
4.02861
3.90929
3.79706
3.70751
3.63444
3.58913
3.56097
3.55266
3.55229
3.56125
3.57591
3.60138
3.63882
3.68559
3.7364
3.79331
3.86681
3.95192
4.04721
4.14912
4.25481
4.35051
4.44797
4.52413
4.56161
4.53055
4.43778
4.27136
3.98367
3.55957
3.09419
2.6713
2.27687
1.88654
1.52736
1.22602
0.557145
19.0742
19.0347
18.9955
18.9723
18.9575
18.9431
18.928
18.914
18.9017
18.8905
18.8798
18.8695
18.8597
18.8505
18.8419
18.8339
18.8265
18.8196
18.8132
18.8074
18.8023
18.798
18.7944
18.7916
18.7896
18.7884
18.7882
18.7888
18.7903
18.7928
18.7962
18.8007
18.8062
18.8128
18.8205
18.8292
18.8389
18.8496
18.8613
18.8738
18.8872
18.9013
18.916
18.9312
18.9466
18.9622
18.9776
18.9927
19.0071
19.0205
19.0328
19.0435
19.0523
19.059
19.0633
19.0649
19.0637
19.0596
19.0526
19.0427
19.0301
19.0153
18.9985
18.9805
18.9618
18.9434
18.9262
18.9113
18.9001
18.8947
18.8956
18.8934
18.8738
18.8337
18.7919
18.7876
18.8555
19.0235
19.289
19.7567
20.0504
18.2623
16.5912
15.0834
13.6499
12.3578
11.2182
10.22
9.35297
8.60455
7.96113
7.40975
6.93834
6.53611
6.19346
5.90212
5.65488
5.44565
5.2691
5.12077
4.99673
4.89366
4.80861
4.73911
4.68293
4.63821
4.60328