/*--------------------------------*- C++ -*----------------------------------*\
  =========                 |
  \\      /  F ield         | OpenFOAM: The Open Source CFD Toolbox
   \\    /   O peration     | Website:  https://openfoam.org
    \\  /    A nd           | Version:  10
     \\/     M anipulation  |
\*---------------------------------------------------------------------------*/
FoamFile
{
    format      ascii;
    class       volScalarField;
    location    "2.8";
    object      p;
}
// * * * * * * * * * * * * * * * * * * * * * * * * * * * * * * * * * * * * * //

dimensions      [1 -1 -2 0 0 0 0];

internalField   nonuniform List<scalar> 
12225
(
2.41623e+07
2.41525e+07
2.41349e+07
2.41111e+07
2.40828e+07
2.40513e+07
2.40174e+07
2.39818e+07
2.3945e+07
2.39072e+07
2.38686e+07
2.38293e+07
2.37893e+07
2.37483e+07
2.3706e+07
2.36617e+07
2.36139e+07
2.35586e+07
2.41626e+07
2.41528e+07
2.41351e+07
2.41113e+07
2.4083e+07
2.40514e+07
2.40175e+07
2.39819e+07
2.39451e+07
2.39073e+07
2.38688e+07
2.38295e+07
2.37895e+07
2.37486e+07
2.37064e+07
2.36624e+07
2.36152e+07
2.35627e+07
2.41633e+07
2.41535e+07
2.41357e+07
2.41118e+07
2.40834e+07
2.40518e+07
2.40178e+07
2.39822e+07
2.39454e+07
2.39076e+07
2.38691e+07
2.38299e+07
2.379e+07
2.37492e+07
2.37074e+07
2.36638e+07
2.3618e+07
2.35689e+07
2.41645e+07
2.41546e+07
2.41367e+07
2.41126e+07
2.40841e+07
2.40524e+07
2.40183e+07
2.39827e+07
2.39458e+07
2.39081e+07
2.38696e+07
2.38305e+07
2.37908e+07
2.37503e+07
2.37088e+07
2.36661e+07
2.36218e+07
2.35761e+07
2.41663e+07
2.41562e+07
2.41381e+07
2.41138e+07
2.40851e+07
2.40532e+07
2.40191e+07
2.39834e+07
2.39465e+07
2.39088e+07
2.38704e+07
2.38315e+07
2.37919e+07
2.37518e+07
2.37109e+07
2.36691e+07
2.36266e+07
2.35838e+07
2.41688e+07
2.41585e+07
2.414e+07
2.41154e+07
2.40864e+07
2.40543e+07
2.402e+07
2.39843e+07
2.39474e+07
2.39097e+07
2.38715e+07
2.38327e+07
2.37934e+07
2.37537e+07
2.37135e+07
2.36729e+07
2.3632e+07
2.35918e+07
2.4172e+07
2.41614e+07
2.41425e+07
2.41174e+07
2.40881e+07
2.40557e+07
2.40213e+07
2.39854e+07
2.39485e+07
2.39109e+07
2.38728e+07
2.38342e+07
2.37953e+07
2.37562e+07
2.37167e+07
2.36772e+07
2.3638e+07
2.35999e+07
2.41762e+07
2.41652e+07
2.41456e+07
2.412e+07
2.40902e+07
2.40575e+07
2.40228e+07
2.39868e+07
2.39499e+07
2.39124e+07
2.38744e+07
2.38361e+07
2.37977e+07
2.37591e+07
2.37205e+07
2.36822e+07
2.36445e+07
2.36081e+07
2.41815e+07
2.41699e+07
2.41495e+07
2.41232e+07
2.40927e+07
2.40596e+07
2.40247e+07
2.39885e+07
2.39516e+07
2.39141e+07
2.38764e+07
2.38384e+07
2.38004e+07
2.37624e+07
2.37247e+07
2.36875e+07
2.36512e+07
2.36163e+07
2.41882e+07
2.41757e+07
2.41543e+07
2.4127e+07
2.40958e+07
2.40621e+07
2.40268e+07
2.39905e+07
2.39536e+07
2.39162e+07
2.38786e+07
2.3841e+07
2.38035e+07
2.37662e+07
2.37294e+07
2.36932e+07
2.36581e+07
2.36244e+07
2.41965e+07
2.41829e+07
2.416e+07
2.41314e+07
2.40993e+07
2.4065e+07
2.40293e+07
2.39928e+07
2.39558e+07
2.39186e+07
2.38812e+07
2.3844e+07
2.3807e+07
2.37704e+07
2.37344e+07
2.36992e+07
2.36652e+07
2.36325e+07
2.4206e+07
2.41909e+07
2.41662e+07
2.41362e+07
2.4103e+07
2.40679e+07
2.40318e+07
2.39951e+07
2.39581e+07
2.39209e+07
2.38839e+07
2.3847e+07
2.38105e+07
2.37745e+07
2.37392e+07
2.37049e+07
2.36717e+07
2.36399e+07
2.42172e+07
2.42e+07
2.41732e+07
2.41413e+07
2.41069e+07
2.40711e+07
2.40345e+07
2.39976e+07
2.39605e+07
2.39235e+07
2.38866e+07
2.38502e+07
2.38141e+07
2.37788e+07
2.37442e+07
2.37106e+07
2.36782e+07
2.36471e+07
2.42332e+07
2.42124e+07
2.4182e+07
2.41476e+07
2.41116e+07
2.40747e+07
2.40376e+07
2.40005e+07
2.39634e+07
2.39265e+07
2.389e+07
2.38539e+07
2.38185e+07
2.37838e+07
2.375e+07
2.37172e+07
2.36856e+07
2.36552e+07
2.42565e+07
2.42287e+07
2.41928e+07
2.41549e+07
2.41168e+07
2.40788e+07
2.40411e+07
2.40036e+07
2.39666e+07
2.393e+07
2.38938e+07
2.38583e+07
2.38235e+07
2.37895e+07
2.37565e+07
2.37245e+07
2.36937e+07
2.36641e+07
2.42924e+07
2.42493e+07
2.42045e+07
2.41621e+07
2.41216e+07
2.40825e+07
2.40443e+07
2.40067e+07
2.39698e+07
2.39336e+07
2.3898e+07
2.38631e+07
2.3829e+07
2.37958e+07
2.37636e+07
2.37324e+07
2.37024e+07
2.36735e+07
2.4352e+07
2.42681e+07
2.42119e+07
2.41657e+07
2.41239e+07
2.40843e+07
2.40461e+07
2.40088e+07
2.39724e+07
2.39367e+07
2.39018e+07
2.38677e+07
2.38345e+07
2.38022e+07
2.37708e+07
2.37405e+07
2.37112e+07
2.3683e+07
2.42774e+07
2.42398e+07
2.41982e+07
2.41577e+07
2.41188e+07
2.4081e+07
2.40442e+07
2.40082e+07
2.39729e+07
2.39383e+07
2.39044e+07
2.38714e+07
2.38392e+07
2.38078e+07
2.37774e+07
2.3748e+07
2.37195e+07
2.36921e+07
2.4216e+07
2.41972e+07
2.41694e+07
2.41379e+07
2.41048e+07
2.4071e+07
2.40372e+07
2.40035e+07
2.39701e+07
2.39372e+07
2.39048e+07
2.38731e+07
2.38421e+07
2.3812e+07
2.37826e+07
2.37542e+07
2.37266e+07
2.37e+07
2.41752e+07
2.41628e+07
2.41422e+07
2.41168e+07
2.40884e+07
2.40585e+07
2.40276e+07
2.39963e+07
2.39649e+07
2.39337e+07
2.39028e+07
2.38724e+07
2.38425e+07
2.38134e+07
2.3785e+07
2.37573e+07
2.37305e+07
2.37045e+07
2.41499e+07
2.41401e+07
2.4123e+07
2.4101e+07
2.40757e+07
2.40483e+07
2.40195e+07
2.399e+07
2.39601e+07
2.39301e+07
2.39003e+07
2.38709e+07
2.38419e+07
2.38135e+07
2.37857e+07
2.37586e+07
2.37323e+07
2.37067e+07
2.41321e+07
2.41237e+07
2.41087e+07
2.40889e+07
2.40657e+07
2.404e+07
2.40128e+07
2.39846e+07
2.39559e+07
2.39269e+07
2.38979e+07
2.38692e+07
2.38408e+07
2.3813e+07
2.37857e+07
2.37591e+07
2.37331e+07
2.37079e+07
2.41195e+07
2.41119e+07
2.40982e+07
2.40798e+07
2.4058e+07
2.40336e+07
2.40075e+07
2.39803e+07
2.39524e+07
2.39241e+07
2.38958e+07
2.38676e+07
2.38397e+07
2.38123e+07
2.37854e+07
2.37591e+07
2.37334e+07
2.37085e+07
2.41106e+07
2.41036e+07
2.40907e+07
2.40732e+07
2.40523e+07
2.40288e+07
2.40035e+07
2.3977e+07
2.39497e+07
2.39219e+07
2.38941e+07
2.38663e+07
2.38388e+07
2.38117e+07
2.3785e+07
2.37589e+07
2.37335e+07
2.37087e+07
2.41045e+07
2.40977e+07
2.40854e+07
2.40686e+07
2.40483e+07
2.40254e+07
2.40006e+07
2.39746e+07
2.39477e+07
2.39203e+07
2.38928e+07
2.38653e+07
2.3838e+07
2.38111e+07
2.37846e+07
2.37587e+07
2.37335e+07
2.37088e+07
2.41003e+07
2.40938e+07
2.40818e+07
2.40653e+07
2.40454e+07
2.4023e+07
2.39986e+07
2.39728e+07
2.39462e+07
2.39191e+07
2.38918e+07
2.38645e+07
2.38374e+07
2.38107e+07
2.37843e+07
2.37586e+07
2.37334e+07
2.37088e+07
2.40976e+07
2.40912e+07
2.40794e+07
2.40632e+07
2.40436e+07
2.40214e+07
2.39972e+07
2.39717e+07
2.39453e+07
2.39183e+07
2.38912e+07
2.3864e+07
2.3837e+07
2.38103e+07
2.37841e+07
2.37584e+07
2.37333e+07
2.37088e+07
2.40959e+07
2.40896e+07
2.40779e+07
2.40619e+07
2.40424e+07
2.40204e+07
2.39963e+07
2.3971e+07
2.39447e+07
2.39178e+07
2.38907e+07
2.38636e+07
2.38367e+07
2.38101e+07
2.37839e+07
2.37583e+07
2.37332e+07
2.37088e+07
2.4095e+07
2.40887e+07
2.40771e+07
2.40612e+07
2.40418e+07
2.40198e+07
2.39959e+07
2.39705e+07
2.39443e+07
2.39175e+07
2.38905e+07
2.38635e+07
2.38366e+07
2.381e+07
2.37839e+07
2.37582e+07
2.37332e+07
2.37087e+07
2.40946e+07
2.40883e+07
2.40768e+07
2.40609e+07
2.40415e+07
2.40196e+07
2.39957e+07
2.39704e+07
2.39442e+07
2.39174e+07
2.38904e+07
2.38634e+07
2.38365e+07
2.381e+07
2.37838e+07
2.37582e+07
2.37332e+07
2.37087e+07
2.30296e+07
2.30293e+07
2.30285e+07
2.30274e+07
2.30258e+07
2.30238e+07
2.30214e+07
2.30186e+07
2.30153e+07
2.30115e+07
2.30073e+07
2.30027e+07
2.29975e+07
2.2992e+07
2.29859e+07
2.29793e+07
2.29723e+07
2.29648e+07
2.29568e+07
2.29482e+07
2.29392e+07
2.29297e+07
2.29197e+07
2.29091e+07
2.28981e+07
2.28865e+07
2.28744e+07
2.28618e+07
2.28487e+07
2.28351e+07
2.28209e+07
2.28062e+07
2.27909e+07
2.27752e+07
2.27589e+07
2.2742e+07
2.27247e+07
2.27068e+07
2.26883e+07
2.26693e+07
2.26498e+07
2.26298e+07
2.26091e+07
2.2588e+07
2.25663e+07
2.2544e+07
2.25212e+07
2.24978e+07
2.24739e+07
2.24494e+07
2.24244e+07
2.23988e+07
2.23726e+07
2.23458e+07
2.23185e+07
2.22906e+07
2.22621e+07
2.2233e+07
2.22033e+07
2.21731e+07
2.21422e+07
2.21108e+07
2.20787e+07
2.2046e+07
2.20127e+07
2.19788e+07
2.19442e+07
2.1909e+07
2.18732e+07
2.18367e+07
2.17996e+07
2.17618e+07
2.17234e+07
2.16843e+07
2.16445e+07
2.16041e+07
2.1563e+07
2.15212e+07
2.14786e+07
2.14354e+07
2.13915e+07
2.13469e+07
2.13015e+07
2.12553e+07
2.12084e+07
2.11607e+07
2.11122e+07
2.10628e+07
2.10126e+07
2.09615e+07
2.09094e+07
2.08563e+07
2.08022e+07
2.0747e+07
2.06907e+07
2.06332e+07
2.05744e+07
2.05143e+07
2.04527e+07
2.03896e+07
2.03247e+07
2.02581e+07
2.01895e+07
2.01191e+07
2.00473e+07
1.99751e+07
1.99033e+07
1.98314e+07
1.97598e+07
1.9689e+07
1.9619e+07
1.95497e+07
1.94812e+07
1.94135e+07
1.93465e+07
1.92801e+07
1.92143e+07
1.91489e+07
1.90838e+07
1.9019e+07
1.89545e+07
1.88901e+07
1.88258e+07
1.87616e+07
1.86973e+07
1.86331e+07
1.85687e+07
1.85042e+07
1.84395e+07
1.83747e+07
1.83096e+07
1.82443e+07
1.81787e+07
1.81128e+07
1.80466e+07
1.798e+07
1.79131e+07
1.78457e+07
1.7778e+07
1.77099e+07
1.76414e+07
1.75724e+07
1.75029e+07
1.7433e+07
1.73626e+07
1.72918e+07
1.72204e+07
1.71486e+07
1.70762e+07
1.70033e+07
1.69299e+07
1.6856e+07
1.67815e+07
1.67064e+07
1.66309e+07
1.65547e+07
1.6478e+07
1.64007e+07
1.63228e+07
1.62443e+07
1.61653e+07
1.60856e+07
1.60053e+07
1.59245e+07
1.5843e+07
1.57609e+07
1.56783e+07
1.5595e+07
1.5511e+07
1.54265e+07
1.53414e+07
1.52557e+07
1.51695e+07
1.50827e+07
1.49954e+07
1.49076e+07
1.48196e+07
1.47314e+07
1.46433e+07
1.45562e+07
2.3031e+07
2.30306e+07
2.30298e+07
2.30286e+07
2.3027e+07
2.3025e+07
2.30226e+07
2.30197e+07
2.30164e+07
2.30126e+07
2.30084e+07
2.30038e+07
2.29986e+07
2.2993e+07
2.29869e+07
2.29804e+07
2.29734e+07
2.29658e+07
2.29578e+07
2.29493e+07
2.29403e+07
2.29307e+07
2.29207e+07
2.29101e+07
2.28991e+07
2.28875e+07
2.28754e+07
2.28628e+07
2.28497e+07
2.2836e+07
2.28219e+07
2.28072e+07
2.27919e+07
2.27762e+07
2.27599e+07
2.2743e+07
2.27257e+07
2.27078e+07
2.26893e+07
2.26704e+07
2.26508e+07
2.26308e+07
2.26102e+07
2.2589e+07
2.25673e+07
2.25451e+07
2.25223e+07
2.24989e+07
2.2475e+07
2.24506e+07
2.24255e+07
2.23999e+07
2.23738e+07
2.2347e+07
2.23197e+07
2.22918e+07
2.22634e+07
2.22343e+07
2.22047e+07
2.21744e+07
2.21436e+07
2.21122e+07
2.20801e+07
2.20475e+07
2.20142e+07
2.19803e+07
2.19458e+07
2.19107e+07
2.18749e+07
2.18385e+07
2.18015e+07
2.17638e+07
2.17254e+07
2.16864e+07
2.16467e+07
2.16063e+07
2.15652e+07
2.15235e+07
2.1481e+07
2.14379e+07
2.1394e+07
2.13494e+07
2.1304e+07
2.12579e+07
2.1211e+07
2.11632e+07
2.11147e+07
2.10653e+07
2.1015e+07
2.09638e+07
2.09117e+07
2.08586e+07
2.08045e+07
2.07494e+07
2.06932e+07
2.06358e+07
2.05773e+07
2.05175e+07
2.04562e+07
2.03934e+07
2.03288e+07
2.02619e+07
2.01924e+07
2.01204e+07
2.00472e+07
1.99743e+07
1.99029e+07
1.98308e+07
1.97587e+07
1.96881e+07
1.96181e+07
1.95488e+07
1.94803e+07
1.94127e+07
1.93458e+07
1.92795e+07
1.92137e+07
1.91483e+07
1.90833e+07
1.90186e+07
1.89541e+07
1.88897e+07
1.88255e+07
1.87613e+07
1.86971e+07
1.86328e+07
1.85685e+07
1.8504e+07
1.84394e+07
1.83745e+07
1.83095e+07
1.82442e+07
1.81786e+07
1.81127e+07
1.80465e+07
1.79799e+07
1.7913e+07
1.78457e+07
1.7778e+07
1.77099e+07
1.76413e+07
1.75723e+07
1.75029e+07
1.7433e+07
1.73626e+07
1.72918e+07
1.72204e+07
1.71486e+07
1.70762e+07
1.70033e+07
1.69299e+07
1.6856e+07
1.67815e+07
1.67064e+07
1.66308e+07
1.65547e+07
1.6478e+07
1.64007e+07
1.63228e+07
1.62443e+07
1.61652e+07
1.60856e+07
1.60053e+07
1.59245e+07
1.5843e+07
1.57609e+07
1.56782e+07
1.55949e+07
1.5511e+07
1.54265e+07
1.53414e+07
1.52557e+07
1.51694e+07
1.50826e+07
1.49953e+07
1.49076e+07
1.48195e+07
1.47312e+07
1.4643e+07
1.45554e+07
2.30333e+07
2.30329e+07
2.30321e+07
2.30309e+07
2.30293e+07
2.30273e+07
2.30248e+07
2.30219e+07
2.30186e+07
2.30148e+07
2.30106e+07
2.30059e+07
2.30008e+07
2.29951e+07
2.2989e+07
2.29824e+07
2.29754e+07
2.29678e+07
2.29598e+07
2.29512e+07
2.29421e+07
2.29326e+07
2.29225e+07
2.2912e+07
2.29009e+07
2.28893e+07
2.28771e+07
2.28645e+07
2.28514e+07
2.28377e+07
2.28235e+07
2.28087e+07
2.27935e+07
2.27777e+07
2.27614e+07
2.27445e+07
2.27272e+07
2.27092e+07
2.26908e+07
2.26718e+07
2.26523e+07
2.26322e+07
2.26116e+07
2.25904e+07
2.25687e+07
2.25464e+07
2.25236e+07
2.25003e+07
2.24764e+07
2.24519e+07
2.24269e+07
2.24013e+07
2.23751e+07
2.23484e+07
2.2321e+07
2.22932e+07
2.22647e+07
2.22357e+07
2.2206e+07
2.21758e+07
2.2145e+07
2.21135e+07
2.20815e+07
2.20489e+07
2.20156e+07
2.19818e+07
2.19473e+07
2.19121e+07
2.18764e+07
2.184e+07
2.18029e+07
2.17652e+07
2.17269e+07
2.16879e+07
2.16482e+07
2.16078e+07
2.15668e+07
2.1525e+07
2.14826e+07
2.14394e+07
2.13955e+07
2.13509e+07
2.13055e+07
2.12594e+07
2.12125e+07
2.11647e+07
2.11162e+07
2.10667e+07
2.10165e+07
2.09653e+07
2.09132e+07
2.08601e+07
2.08061e+07
2.07511e+07
2.0695e+07
2.06378e+07
2.05794e+07
2.05198e+07
2.0459e+07
2.03967e+07
2.03329e+07
2.02674e+07
2.02002e+07
2.01318e+07
2.00627e+07
1.99931e+07
1.99186e+07
1.98305e+07
1.9756e+07
1.96865e+07
1.96163e+07
1.95468e+07
1.94785e+07
1.9411e+07
1.93443e+07
1.92781e+07
1.92125e+07
1.91472e+07
1.90823e+07
1.90177e+07
1.89533e+07
1.8889e+07
1.88248e+07
1.87607e+07
1.86966e+07
1.86324e+07
1.85681e+07
1.85036e+07
1.8439e+07
1.83743e+07
1.83092e+07
1.82439e+07
1.81784e+07
1.81125e+07
1.80463e+07
1.79798e+07
1.79129e+07
1.78456e+07
1.77779e+07
1.77098e+07
1.76412e+07
1.75722e+07
1.75028e+07
1.74329e+07
1.73626e+07
1.72917e+07
1.72204e+07
1.71485e+07
1.70762e+07
1.70033e+07
1.69299e+07
1.68559e+07
1.67814e+07
1.67064e+07
1.66308e+07
1.65547e+07
1.64779e+07
1.64006e+07
1.63227e+07
1.62443e+07
1.61652e+07
1.60856e+07
1.60053e+07
1.59245e+07
1.5843e+07
1.57609e+07
1.56782e+07
1.55949e+07
1.5511e+07
1.54265e+07
1.53413e+07
1.52556e+07
1.51693e+07
1.50825e+07
1.49952e+07
1.49074e+07
1.48192e+07
1.47309e+07
1.46424e+07
1.45542e+07
2.30369e+07
2.30365e+07
2.30357e+07
2.30345e+07
2.30329e+07
2.30308e+07
2.30284e+07
2.30254e+07
2.30221e+07
2.30183e+07
2.3014e+07
2.30093e+07
2.30041e+07
2.29984e+07
2.29923e+07
2.29856e+07
2.29785e+07
2.29709e+07
2.29628e+07
2.29542e+07
2.29451e+07
2.29355e+07
2.29253e+07
2.29147e+07
2.29036e+07
2.28919e+07
2.28797e+07
2.28671e+07
2.28538e+07
2.28401e+07
2.28259e+07
2.28111e+07
2.27958e+07
2.27799e+07
2.27636e+07
2.27467e+07
2.27293e+07
2.27113e+07
2.26928e+07
2.26738e+07
2.26542e+07
2.26341e+07
2.26135e+07
2.25923e+07
2.25706e+07
2.25483e+07
2.25254e+07
2.25021e+07
2.24781e+07
2.24536e+07
2.24286e+07
2.2403e+07
2.23768e+07
2.235e+07
2.23227e+07
2.22948e+07
2.22663e+07
2.22373e+07
2.22076e+07
2.21774e+07
2.21466e+07
2.21152e+07
2.20831e+07
2.20505e+07
2.20172e+07
2.19834e+07
2.19489e+07
2.19138e+07
2.1878e+07
2.18416e+07
2.18046e+07
2.17669e+07
2.17285e+07
2.16895e+07
2.16498e+07
2.16095e+07
2.15684e+07
2.15267e+07
2.14842e+07
2.14411e+07
2.13972e+07
2.13525e+07
2.13071e+07
2.1261e+07
2.12141e+07
2.11663e+07
2.11178e+07
2.10684e+07
2.10181e+07
2.09669e+07
2.09149e+07
2.08619e+07
2.08079e+07
2.0753e+07
2.0697e+07
2.06399e+07
2.05818e+07
2.05225e+07
2.04619e+07
2.04001e+07
2.03369e+07
2.02723e+07
2.02064e+07
2.01393e+07
2.00714e+07
2.00023e+07
1.99306e+07
1.98553e+07
1.97801e+07
1.96863e+07
1.96136e+07
1.95438e+07
1.94757e+07
1.94085e+07
1.9342e+07
1.92761e+07
1.92107e+07
1.91456e+07
1.90809e+07
1.90164e+07
1.89521e+07
1.8888e+07
1.88239e+07
1.87599e+07
1.86958e+07
1.86317e+07
1.85675e+07
1.85031e+07
1.84386e+07
1.83738e+07
1.83088e+07
1.82436e+07
1.81781e+07
1.81122e+07
1.80461e+07
1.79795e+07
1.79127e+07
1.78454e+07
1.77777e+07
1.77096e+07
1.76411e+07
1.75721e+07
1.75027e+07
1.74328e+07
1.73625e+07
1.72916e+07
1.72203e+07
1.71485e+07
1.70761e+07
1.70032e+07
1.69298e+07
1.68559e+07
1.67814e+07
1.67064e+07
1.66308e+07
1.65546e+07
1.64779e+07
1.64006e+07
1.63227e+07
1.62443e+07
1.61652e+07
1.60855e+07
1.60053e+07
1.59244e+07
1.5843e+07
1.57609e+07
1.56782e+07
1.55949e+07
1.55109e+07
1.54264e+07
1.53413e+07
1.52556e+07
1.51693e+07
1.50824e+07
1.4995e+07
1.49072e+07
1.48189e+07
1.47304e+07
1.46417e+07
1.45529e+07
2.30419e+07
2.30415e+07
2.30407e+07
2.30394e+07
2.30378e+07
2.30357e+07
2.30332e+07
2.30302e+07
2.30268e+07
2.3023e+07
2.30187e+07
2.30139e+07
2.30086e+07
2.30029e+07
2.29967e+07
2.299e+07
2.29828e+07
2.29751e+07
2.29669e+07
2.29582e+07
2.2949e+07
2.29393e+07
2.29291e+07
2.29184e+07
2.29072e+07
2.28955e+07
2.28832e+07
2.28705e+07
2.28572e+07
2.28434e+07
2.28291e+07
2.28142e+07
2.27988e+07
2.27829e+07
2.27665e+07
2.27495e+07
2.27321e+07
2.2714e+07
2.26955e+07
2.26764e+07
2.26568e+07
2.26366e+07
2.26159e+07
2.25947e+07
2.25729e+07
2.25506e+07
2.25277e+07
2.25043e+07
2.24803e+07
2.24558e+07
2.24307e+07
2.24051e+07
2.23789e+07
2.23521e+07
2.23247e+07
2.22968e+07
2.22683e+07
2.22392e+07
2.22096e+07
2.21793e+07
2.21485e+07
2.2117e+07
2.2085e+07
2.20524e+07
2.20191e+07
2.19852e+07
2.19507e+07
2.19156e+07
2.18798e+07
2.18434e+07
2.18064e+07
2.17687e+07
2.17304e+07
2.16913e+07
2.16517e+07
2.16113e+07
2.15702e+07
2.15285e+07
2.1486e+07
2.14429e+07
2.1399e+07
2.13543e+07
2.1309e+07
2.12628e+07
2.12159e+07
2.11681e+07
2.11196e+07
2.10702e+07
2.102e+07
2.09688e+07
2.09168e+07
2.08639e+07
2.081e+07
2.07552e+07
2.06993e+07
2.06424e+07
2.05844e+07
2.05253e+07
2.04651e+07
2.04036e+07
2.0341e+07
2.02771e+07
2.0212e+07
2.01458e+07
2.00785e+07
2.001e+07
1.99398e+07
1.98677e+07
1.97941e+07
1.97151e+07
1.963e+07
1.95393e+07
1.94718e+07
1.94051e+07
1.93391e+07
1.92734e+07
1.92083e+07
1.91435e+07
1.90789e+07
1.90147e+07
1.89506e+07
1.88866e+07
1.88226e+07
1.87587e+07
1.86948e+07
1.86308e+07
1.85667e+07
1.85024e+07
1.84379e+07
1.83733e+07
1.83083e+07
1.82432e+07
1.81777e+07
1.81119e+07
1.80457e+07
1.79793e+07
1.79124e+07
1.78452e+07
1.77775e+07
1.77094e+07
1.76409e+07
1.7572e+07
1.75026e+07
1.74327e+07
1.73624e+07
1.72915e+07
1.72202e+07
1.71484e+07
1.7076e+07
1.70032e+07
1.69298e+07
1.68558e+07
1.67813e+07
1.67063e+07
1.66307e+07
1.65546e+07
1.64779e+07
1.64006e+07
1.63227e+07
1.62442e+07
1.61652e+07
1.60855e+07
1.60053e+07
1.59244e+07
1.58429e+07
1.57608e+07
1.56781e+07
1.55948e+07
1.55109e+07
1.54264e+07
1.53412e+07
1.52555e+07
1.51691e+07
1.50822e+07
1.49948e+07
1.49069e+07
1.48185e+07
1.47298e+07
1.46408e+07
1.45515e+07
2.30482e+07
2.30478e+07
2.30469e+07
2.30457e+07
2.3044e+07
2.30419e+07
2.30393e+07
2.30363e+07
2.30329e+07
2.3029e+07
2.30246e+07
2.30197e+07
2.30144e+07
2.30086e+07
2.30023e+07
2.29955e+07
2.29882e+07
2.29804e+07
2.29721e+07
2.29633e+07
2.2954e+07
2.29442e+07
2.29339e+07
2.29231e+07
2.29118e+07
2.29e+07
2.28876e+07
2.28747e+07
2.28614e+07
2.28474e+07
2.2833e+07
2.28181e+07
2.28026e+07
2.27866e+07
2.27701e+07
2.27531e+07
2.27355e+07
2.27174e+07
2.26988e+07
2.26796e+07
2.26599e+07
2.26397e+07
2.26189e+07
2.25976e+07
2.25758e+07
2.25534e+07
2.25305e+07
2.2507e+07
2.2483e+07
2.24584e+07
2.24333e+07
2.24076e+07
2.23813e+07
2.23545e+07
2.23271e+07
2.22992e+07
2.22706e+07
2.22415e+07
2.22118e+07
2.21816e+07
2.21507e+07
2.21192e+07
2.20872e+07
2.20545e+07
2.20212e+07
2.19873e+07
2.19528e+07
2.19177e+07
2.18819e+07
2.18455e+07
2.18085e+07
2.17708e+07
2.17324e+07
2.16934e+07
2.16537e+07
2.16133e+07
2.15723e+07
2.15305e+07
2.1488e+07
2.14449e+07
2.1401e+07
2.13563e+07
2.13109e+07
2.12648e+07
2.12179e+07
2.11701e+07
2.11216e+07
2.10722e+07
2.1022e+07
2.0971e+07
2.0919e+07
2.08661e+07
2.08123e+07
2.07576e+07
2.07018e+07
2.06451e+07
2.05873e+07
2.05284e+07
2.04685e+07
2.04074e+07
2.03451e+07
2.02818e+07
2.02173e+07
2.01517e+07
2.0085e+07
2.00172e+07
1.99479e+07
1.98772e+07
1.98049e+07
1.97301e+07
1.96523e+07
1.95678e+07
1.94678e+07
1.94011e+07
1.93354e+07
1.92702e+07
1.92053e+07
1.91408e+07
1.90766e+07
1.90125e+07
1.89486e+07
1.88848e+07
1.88211e+07
1.87574e+07
1.86936e+07
1.86297e+07
1.85657e+07
1.85015e+07
1.84371e+07
1.83726e+07
1.83077e+07
1.82426e+07
1.81772e+07
1.81114e+07
1.80454e+07
1.79789e+07
1.79121e+07
1.78449e+07
1.77773e+07
1.77092e+07
1.76407e+07
1.75718e+07
1.75024e+07
1.74326e+07
1.73622e+07
1.72914e+07
1.72201e+07
1.71483e+07
1.70759e+07
1.70031e+07
1.69297e+07
1.68558e+07
1.67813e+07
1.67063e+07
1.66307e+07
1.65545e+07
1.64778e+07
1.64005e+07
1.63227e+07
1.62442e+07
1.61651e+07
1.60855e+07
1.60052e+07
1.59244e+07
1.58429e+07
1.57608e+07
1.56781e+07
1.55948e+07
1.55108e+07
1.54263e+07
1.53411e+07
1.52553e+07
1.5169e+07
1.5082e+07
1.49946e+07
1.49065e+07
1.48181e+07
1.47291e+07
1.46398e+07
1.455e+07
2.30558e+07
2.30554e+07
2.30545e+07
2.30533e+07
2.30515e+07
2.30494e+07
2.30468e+07
2.30437e+07
2.30402e+07
2.30362e+07
2.30317e+07
2.30268e+07
2.30213e+07
2.30154e+07
2.3009e+07
2.30021e+07
2.29947e+07
2.29868e+07
2.29784e+07
2.29695e+07
2.296e+07
2.29501e+07
2.29397e+07
2.29287e+07
2.29173e+07
2.29053e+07
2.28928e+07
2.28798e+07
2.28663e+07
2.28523e+07
2.28377e+07
2.28227e+07
2.28071e+07
2.2791e+07
2.27744e+07
2.27572e+07
2.27395e+07
2.27213e+07
2.27026e+07
2.26834e+07
2.26636e+07
2.26433e+07
2.26224e+07
2.2601e+07
2.25791e+07
2.25566e+07
2.25336e+07
2.25101e+07
2.2486e+07
2.24614e+07
2.24362e+07
2.24104e+07
2.23841e+07
2.23573e+07
2.23298e+07
2.23018e+07
2.22733e+07
2.22441e+07
2.22144e+07
2.21841e+07
2.21532e+07
2.21217e+07
2.20896e+07
2.20569e+07
2.20236e+07
2.19897e+07
2.19551e+07
2.192e+07
2.18842e+07
2.18478e+07
2.18107e+07
2.1773e+07
2.17346e+07
2.16956e+07
2.16559e+07
2.16155e+07
2.15744e+07
2.15327e+07
2.14902e+07
2.1447e+07
2.14031e+07
2.13585e+07
2.13131e+07
2.1267e+07
2.122e+07
2.11723e+07
2.11238e+07
2.10745e+07
2.10243e+07
2.09733e+07
2.09214e+07
2.08685e+07
2.08148e+07
2.07602e+07
2.07046e+07
2.06479e+07
2.05903e+07
2.05317e+07
2.0472e+07
2.04112e+07
2.03493e+07
2.02864e+07
2.02224e+07
2.01573e+07
2.00911e+07
2.00238e+07
1.99553e+07
1.98854e+07
1.98142e+07
1.97411e+07
1.96659e+07
1.95872e+07
1.94999e+07
1.93976e+07
1.93312e+07
1.92664e+07
1.92019e+07
1.91377e+07
1.90737e+07
1.901e+07
1.89464e+07
1.88828e+07
1.88193e+07
1.87557e+07
1.86921e+07
1.86284e+07
1.85645e+07
1.85005e+07
1.84362e+07
1.83717e+07
1.8307e+07
1.82419e+07
1.81766e+07
1.81109e+07
1.80449e+07
1.79785e+07
1.79117e+07
1.78445e+07
1.7777e+07
1.77089e+07
1.76405e+07
1.75716e+07
1.75022e+07
1.74324e+07
1.73621e+07
1.72913e+07
1.722e+07
1.71482e+07
1.70758e+07
1.7003e+07
1.69296e+07
1.68557e+07
1.67812e+07
1.67062e+07
1.66306e+07
1.65545e+07
1.64778e+07
1.64005e+07
1.63226e+07
1.62441e+07
1.61651e+07
1.60854e+07
1.60052e+07
1.59243e+07
1.58428e+07
1.57607e+07
1.5678e+07
1.55947e+07
1.55108e+07
1.54262e+07
1.5341e+07
1.52552e+07
1.51688e+07
1.50818e+07
1.49943e+07
1.49062e+07
1.48175e+07
1.47284e+07
1.46388e+07
1.45486e+07
2.30648e+07
2.30644e+07
2.30635e+07
2.30622e+07
2.30604e+07
2.30582e+07
2.30555e+07
2.30524e+07
2.30488e+07
2.30447e+07
2.30401e+07
2.3035e+07
2.30295e+07
2.30234e+07
2.30169e+07
2.30098e+07
2.30023e+07
2.29942e+07
2.29857e+07
2.29766e+07
2.2967e+07
2.29569e+07
2.29463e+07
2.29352e+07
2.29236e+07
2.29115e+07
2.28989e+07
2.28857e+07
2.28721e+07
2.28579e+07
2.28432e+07
2.2828e+07
2.28122e+07
2.2796e+07
2.27792e+07
2.2762e+07
2.27442e+07
2.27259e+07
2.2707e+07
2.26876e+07
2.26677e+07
2.26473e+07
2.26264e+07
2.26049e+07
2.25829e+07
2.25603e+07
2.25372e+07
2.25136e+07
2.24894e+07
2.24647e+07
2.24395e+07
2.24136e+07
2.23873e+07
2.23603e+07
2.23328e+07
2.23048e+07
2.22762e+07
2.2247e+07
2.22172e+07
2.21868e+07
2.21559e+07
2.21244e+07
2.20922e+07
2.20595e+07
2.20262e+07
2.19922e+07
2.19576e+07
2.19225e+07
2.18866e+07
2.18502e+07
2.18131e+07
2.17754e+07
2.1737e+07
2.16979e+07
2.16582e+07
2.16178e+07
2.15768e+07
2.1535e+07
2.14925e+07
2.14493e+07
2.14054e+07
2.13608e+07
2.13154e+07
2.12693e+07
2.12223e+07
2.11746e+07
2.11261e+07
2.10768e+07
2.10267e+07
2.09757e+07
2.09238e+07
2.08711e+07
2.08175e+07
2.07629e+07
2.07074e+07
2.06509e+07
2.05935e+07
2.0535e+07
2.04756e+07
2.04151e+07
2.03535e+07
2.02909e+07
2.02273e+07
2.01626e+07
2.00969e+07
2.00301e+07
1.99621e+07
1.98929e+07
1.98224e+07
1.97504e+07
1.96765e+07
1.96001e+07
1.95192e+07
1.94275e+07
1.93273e+07
1.9262e+07
1.91979e+07
1.91341e+07
1.90705e+07
1.90071e+07
1.89437e+07
1.88805e+07
1.88172e+07
1.87539e+07
1.86904e+07
1.86269e+07
1.85632e+07
1.84993e+07
1.84352e+07
1.83708e+07
1.83061e+07
1.82412e+07
1.81759e+07
1.81103e+07
1.80444e+07
1.7978e+07
1.79113e+07
1.78442e+07
1.77766e+07
1.77086e+07
1.76402e+07
1.75714e+07
1.7502e+07
1.74322e+07
1.73619e+07
1.72911e+07
1.72198e+07
1.7148e+07
1.70757e+07
1.70029e+07
1.69295e+07
1.68556e+07
1.67811e+07
1.67061e+07
1.66306e+07
1.65544e+07
1.64777e+07
1.64004e+07
1.63226e+07
1.62441e+07
1.6165e+07
1.60854e+07
1.60051e+07
1.59243e+07
1.58428e+07
1.57607e+07
1.5678e+07
1.55946e+07
1.55107e+07
1.54261e+07
1.53409e+07
1.52551e+07
1.51686e+07
1.50816e+07
1.4994e+07
1.49057e+07
1.4817e+07
1.47277e+07
1.46377e+07
1.45471e+07
2.30752e+07
2.30748e+07
2.30738e+07
2.30725e+07
2.30707e+07
2.30684e+07
2.30656e+07
2.30624e+07
2.30586e+07
2.30544e+07
2.30497e+07
2.30445e+07
2.30388e+07
2.30326e+07
2.30259e+07
2.30186e+07
2.30109e+07
2.30027e+07
2.2994e+07
2.29847e+07
2.29749e+07
2.29647e+07
2.29539e+07
2.29426e+07
2.29308e+07
2.29185e+07
2.29057e+07
2.28924e+07
2.28785e+07
2.28642e+07
2.28493e+07
2.28339e+07
2.2818e+07
2.28016e+07
2.27847e+07
2.27673e+07
2.27493e+07
2.27309e+07
2.27119e+07
2.26924e+07
2.26724e+07
2.26518e+07
2.26308e+07
2.26092e+07
2.25871e+07
2.25644e+07
2.25412e+07
2.25175e+07
2.24932e+07
2.24684e+07
2.24431e+07
2.24172e+07
2.23907e+07
2.23637e+07
2.23361e+07
2.2308e+07
2.22793e+07
2.22501e+07
2.22202e+07
2.21898e+07
2.21588e+07
2.21272e+07
2.20951e+07
2.20623e+07
2.20289e+07
2.19949e+07
2.19603e+07
2.19251e+07
2.18893e+07
2.18528e+07
2.18157e+07
2.17779e+07
2.17395e+07
2.17004e+07
2.16607e+07
2.16203e+07
2.15792e+07
2.15374e+07
2.14949e+07
2.14517e+07
2.14078e+07
2.13632e+07
2.13178e+07
2.12717e+07
2.12248e+07
2.11771e+07
2.11286e+07
2.10793e+07
2.10292e+07
2.09783e+07
2.09265e+07
2.08738e+07
2.08202e+07
2.07658e+07
2.07104e+07
2.0654e+07
2.05967e+07
2.05385e+07
2.04792e+07
2.0419e+07
2.03577e+07
2.02954e+07
2.02321e+07
2.01678e+07
2.01024e+07
2.0036e+07
1.99685e+07
1.98998e+07
1.98298e+07
1.97585e+07
1.96856e+07
1.96105e+07
1.95323e+07
1.94481e+07
1.93483e+07
1.92572e+07
1.91933e+07
1.913e+07
1.90668e+07
1.90038e+07
1.89408e+07
1.88778e+07
1.88148e+07
1.87517e+07
1.86886e+07
1.86252e+07
1.85617e+07
1.8498e+07
1.8434e+07
1.83697e+07
1.83052e+07
1.82403e+07
1.81752e+07
1.81097e+07
1.80438e+07
1.79775e+07
1.79108e+07
1.78437e+07
1.77762e+07
1.77083e+07
1.76399e+07
1.75711e+07
1.75018e+07
1.7432e+07
1.73617e+07
1.7291e+07
1.72197e+07
1.71479e+07
1.70756e+07
1.70028e+07
1.69294e+07
1.68555e+07
1.67811e+07
1.67061e+07
1.66305e+07
1.65544e+07
1.64777e+07
1.64004e+07
1.63225e+07
1.62441e+07
1.6165e+07
1.60853e+07
1.60051e+07
1.59242e+07
1.58427e+07
1.57606e+07
1.56779e+07
1.55946e+07
1.55106e+07
1.5426e+07
1.53408e+07
1.52549e+07
1.51684e+07
1.50813e+07
1.49936e+07
1.49053e+07
1.48164e+07
1.47269e+07
1.46367e+07
1.45458e+07
2.3087e+07
2.30865e+07
2.30856e+07
2.30842e+07
2.30823e+07
2.30799e+07
2.3077e+07
2.30736e+07
2.30698e+07
2.30654e+07
2.30605e+07
2.30552e+07
2.30493e+07
2.30429e+07
2.3036e+07
2.30286e+07
2.30206e+07
2.30122e+07
2.30032e+07
2.29938e+07
2.29838e+07
2.29733e+07
2.29623e+07
2.29508e+07
2.29388e+07
2.29263e+07
2.29132e+07
2.28997e+07
2.28857e+07
2.28711e+07
2.28561e+07
2.28405e+07
2.28244e+07
2.28078e+07
2.27907e+07
2.27731e+07
2.2755e+07
2.27364e+07
2.27173e+07
2.26976e+07
2.26775e+07
2.26568e+07
2.26356e+07
2.26138e+07
2.25916e+07
2.25688e+07
2.25455e+07
2.25217e+07
2.24973e+07
2.24724e+07
2.2447e+07
2.2421e+07
2.23944e+07
2.23673e+07
2.23397e+07
2.23115e+07
2.22827e+07
2.22534e+07
2.22235e+07
2.2193e+07
2.2162e+07
2.21303e+07
2.20981e+07
2.20653e+07
2.20318e+07
2.19978e+07
2.19632e+07
2.19279e+07
2.1892e+07
2.18555e+07
2.18184e+07
2.17806e+07
2.17421e+07
2.17031e+07
2.16633e+07
2.16229e+07
2.15818e+07
2.154e+07
2.14975e+07
2.14543e+07
2.14103e+07
2.13657e+07
2.13203e+07
2.12742e+07
2.12273e+07
2.11796e+07
2.11311e+07
2.10819e+07
2.10318e+07
2.09809e+07
2.09291e+07
2.08765e+07
2.08231e+07
2.07687e+07
2.07134e+07
2.06572e+07
2.06e+07
2.05419e+07
2.04829e+07
2.04228e+07
2.03618e+07
2.02998e+07
2.02368e+07
2.01728e+07
2.01077e+07
2.00416e+07
1.99745e+07
1.99062e+07
1.98367e+07
1.9766e+07
1.96937e+07
1.96196e+07
1.95429e+07
1.94623e+07
1.93743e+07
1.92652e+07
1.91883e+07
1.91255e+07
1.90628e+07
1.90002e+07
1.89376e+07
1.88749e+07
1.88122e+07
1.87494e+07
1.86865e+07
1.86234e+07
1.856e+07
1.84965e+07
1.84327e+07
1.83686e+07
1.83042e+07
1.82394e+07
1.81743e+07
1.81089e+07
1.80431e+07
1.79769e+07
1.79103e+07
1.78433e+07
1.77758e+07
1.77079e+07
1.76396e+07
1.75708e+07
1.75015e+07
1.74317e+07
1.73615e+07
1.72908e+07
1.72195e+07
1.71477e+07
1.70755e+07
1.70026e+07
1.69293e+07
1.68554e+07
1.6781e+07
1.6706e+07
1.66304e+07
1.65543e+07
1.64776e+07
1.64003e+07
1.63225e+07
1.6244e+07
1.61649e+07
1.60853e+07
1.6005e+07
1.59242e+07
1.58427e+07
1.57606e+07
1.56778e+07
1.55945e+07
1.55105e+07
1.54259e+07
1.53406e+07
1.52547e+07
1.51682e+07
1.50811e+07
1.49933e+07
1.49049e+07
1.48158e+07
1.47261e+07
1.46357e+07
1.45444e+07
2.31003e+07
2.30998e+07
2.30988e+07
2.30973e+07
2.30953e+07
2.30928e+07
2.30898e+07
2.30863e+07
2.30823e+07
2.30777e+07
2.30727e+07
2.30671e+07
2.3061e+07
2.30544e+07
2.30472e+07
2.30396e+07
2.30314e+07
2.30227e+07
2.30135e+07
2.30038e+07
2.29936e+07
2.29828e+07
2.29716e+07
2.29598e+07
2.29475e+07
2.29348e+07
2.29215e+07
2.29077e+07
2.28935e+07
2.28787e+07
2.28634e+07
2.28476e+07
2.28313e+07
2.28146e+07
2.27973e+07
2.27795e+07
2.27612e+07
2.27424e+07
2.27231e+07
2.27033e+07
2.26829e+07
2.26621e+07
2.26407e+07
2.26189e+07
2.25965e+07
2.25736e+07
2.25501e+07
2.25262e+07
2.25017e+07
2.24767e+07
2.24511e+07
2.2425e+07
2.23984e+07
2.23712e+07
2.23434e+07
2.23152e+07
2.22863e+07
2.22569e+07
2.22269e+07
2.21964e+07
2.21652e+07
2.21335e+07
2.21012e+07
2.20684e+07
2.20349e+07
2.20008e+07
2.19661e+07
2.19308e+07
2.18949e+07
2.18583e+07
2.18212e+07
2.17833e+07
2.17449e+07
2.17057e+07
2.1666e+07
2.16255e+07
2.15844e+07
2.15426e+07
2.15001e+07
2.14568e+07
2.14129e+07
2.13683e+07
2.13229e+07
2.12767e+07
2.12298e+07
2.11822e+07
2.11337e+07
2.10845e+07
2.10345e+07
2.09836e+07
2.09319e+07
2.08793e+07
2.08259e+07
2.07716e+07
2.07165e+07
2.06604e+07
2.06033e+07
2.05454e+07
2.04865e+07
2.04267e+07
2.03658e+07
2.03041e+07
2.02413e+07
2.01775e+07
2.01128e+07
2.0047e+07
1.99802e+07
1.99123e+07
1.98432e+07
1.97729e+07
1.97011e+07
1.96277e+07
1.95521e+07
1.94736e+07
1.93906e+07
1.9298e+07
1.91871e+07
1.91207e+07
1.90584e+07
1.89962e+07
1.8934e+07
1.88718e+07
1.88094e+07
1.87469e+07
1.86842e+07
1.86214e+07