/*--------------------------------*- C++ -*----------------------------------*\
  =========                 |
  \\      /  F ield         | OpenFOAM: The Open Source CFD Toolbox
   \\    /   O peration     | Website:  https://openfoam.org
    \\  /    A nd           | Version:  10
     \\/     M anipulation  |
\*---------------------------------------------------------------------------*/
FoamFile
{
    format      ascii;
    class       volScalarField;
    location    "0.005";
    object      pMean;
}
// * * * * * * * * * * * * * * * * * * * * * * * * * * * * * * * * * * * * * //

dimensions      [0 2 -2 0 0 0 0];

internalField   nonuniform List<scalar> 
12225
(
181.02
177.565
175.314
173.705
172.142
170.481
168.746
166.978
165.192
163.36
161.461
159.428
157.25
154.761
151.968
148.238
143.606
134.611
180.857
177.55
175.319
173.707
172.145
170.487
168.755
166.99
165.204
163.381
161.479
159.47
157.273
154.869
151.992
148.696
144.05
139.077
180.867
177.536
175.32
173.711
172.151
170.497
168.771
167.012
165.235
163.416
161.532
159.529
157.379
154.981
152.281
149.082
145.314
141.048
180.758
177.525
175.333
173.723
172.164
170.516
168.796
167.046
165.275
163.473
161.601
159.633
157.507
155.201
152.6
149.699
146.401
142.878
180.519
177.473
175.336
173.732
172.178
170.537
168.827
167.087
165.332
163.545
161.698
159.761
157.695
155.469
153.033
150.384
147.522
144.627
180.543
177.489
175.362
173.76
172.207
170.574
168.875
167.15
165.41
163.645
161.829
159.935
157.936
155.811
153.544
151.143
148.661
146.222
180.412
177.421
175.355
173.781
172.236
170.612
168.927
167.22
165.504
163.768
161.99
160.149
158.229
156.22
154.122
151.959
149.79
147.715
180.453
177.446
175.391
173.83
172.293
170.676
169.006
167.32
165.628
163.924
162.19
160.412
158.579
156.691
154.759
152.814
150.91
149.125
180.408
177.405
175.393
173.862
172.339
170.738
169.088
167.428
165.77
164.107
162.427
160.718
158.979
157.214
155.442
153.692
152.013
150.463
180.358
177.43
175.445
173.93
172.42
170.832
169.202
167.571
165.948
164.329
162.705
161.07
159.427
157.784
156.162
154.589
153.101
151.743
180.306
177.423
175.476
173.985
172.495
170.93
169.328
167.729
166.147
164.579
163.019
161.464
159.919
158.396
156.913
155.495
154.172
152.974
180.408
177.474
175.53
174.064
172.596
171.05
169.472
167.906
166.365
164.846
163.345
161.862
160.405
158.985
157.619
156.327
155.133
154.059
180.398
177.51
175.596
174.144
172.693
171.174
169.628
168.097
166.598
165.131
163.693
162.285
160.913
159.589
158.329
157.149
156.067
155.098
180.364
177.579
175.699
174.259
172.832
171.345
169.836
168.347
166.897
165.49
164.123
162.797
161.519
160.298
159.148
158.081
157.109
156.242
180.54
177.711
175.822
174.406
173.016
171.569
170.103
168.663
167.273
165.937
164.651
163.416
162.238
161.123
160.084
159.127
158.26
157.489
180.943
177.928
175.98
174.591
173.258
171.865
170.45
169.068
167.747
166.488
165.29
164.15
163.072
162.064
161.131
160.277
159.507
158.823
181.024
178.115
176.229
174.884
173.589
172.237
170.874
169.557
168.311
167.136
166.028
164.984
164.006
163.098
162.263
161.502
160.818
160.209
181.043
178.277
176.499
175.217
173.971
172.679
171.389
170.151
168.988
167.9
166.881
165.929
165.044
164.227
163.479
162.8
162.189
161.645
181.737
178.822
176.985
175.708
174.495
173.248
172.01
170.833
169.736
168.723
167.783
166.912
166.106
165.364
164.687
164.071
163.516
163.017
181.797
179.011
177.266
176.044
174.871
173.669
172.484
171.365
170.327
169.37
168.486
167.667
166.911
166.216
165.581
165.004
164.482
164.011
181.931
179.263
177.573
176.357
175.187
173.997
172.836
171.745
170.737
169.809
168.954
168.166
167.439
166.772
166.163
165.608
165.105
164.649
182.178
179.471
177.765
176.556
175.404
174.234
173.091
172.02
171.032
170.124
169.291
168.522
167.814
167.164
166.57
166.029
165.537
165.09
182.646
179.764
177.952
176.726
175.582
174.42
173.284
172.221
171.245
170.352
169.533
168.778
168.084
167.446
166.862
166.33
165.845
165.404
182.837
179.915
178.084
176.849
175.71
174.556
173.427
172.37
171.401
170.516
169.705
168.958
168.271
167.64
167.063
166.536
166.056
165.618
182.933
180.043
178.201
176.938
175.788
174.64
173.52
172.47
171.507
170.629
169.825
169.085
168.405
167.78
167.207
166.685
166.207
165.772
183.077
180.155
178.291
177.014
175.86
174.716
173.598
172.549
171.588
170.712
169.911
169.174
168.497
167.875
167.305
166.785
166.309
165.876
183.085
180.207
178.336
177.049
175.894
174.753
173.639
172.592
171.634
170.762
169.964
169.231
168.557
167.938
167.37
166.851
166.376
165.943
183.281
180.281
178.369
177.081
175.931
174.789
173.673
172.626
171.669
170.798
170.001
169.27
168.596
167.978
167.411
166.893
166.419
165.986
183.413
180.308
178.37
177.092
175.947
174.805
173.688
172.642
171.686
170.816
170.022
169.291
168.62
168.003
167.437
166.918
166.445
166.012
183.534
180.344
178.377
177.103
175.96
174.816
173.698
172.652
171.697
170.828
170.034
169.304
168.632
168.015
167.449
166.931
166.458
166.026
151.658
151.672
151.697
151.737
151.791
151.859
151.941
152.038
152.151
152.278
152.422
152.581
152.756
152.946
153.151
153.371
153.604
153.85
154.107
154.374
154.649
154.929
155.213
155.498
155.78
156.058
156.327
156.586
156.832
157.062
157.273
157.463
157.632
157.776
157.895
157.989
158.055
158.094
158.107
158.092
158.051
157.985
157.893
157.777
157.637
157.475
157.292
157.089
156.867
156.626
156.369
156.095
155.807
155.505
155.189
154.861
154.522
154.171
153.811
153.441
153.062
152.674
152.279
151.875
151.465
151.048
150.625
150.195
149.76
149.318
148.872
148.42
147.963
147.501
147.035
146.563
146.087
145.607
145.122
144.633
144.139
143.642
143.14
142.633
142.123
141.609
141.09
140.567
140.04
139.509
138.974
138.434
137.891
137.343
136.791
136.235
135.674
135.109
134.54
133.966
133.389
132.806
132.219
131.628
131.032
130.432
129.827
129.217
128.603
127.984
127.36
126.731
126.098
125.46
124.817
124.169
123.516
122.857
122.194
121.526
120.853
120.174
119.49
118.801
118.106
117.406
116.701
115.99
115.274
114.552
113.825
113.092
112.353
111.609
110.859
110.102
109.341
108.573
107.799
107.019
106.233
105.441
104.643
103.839
103.028
102.211
101.388
100.558
99.722
98.8794
98.0303
97.1747
96.3124
95.4435
94.5679
93.6856
92.7966
91.9008
90.9983
90.0891
89.1731
88.2505
87.3214
86.3857
85.4438
84.4959
83.5422
82.5833
81.6197
80.6525
79.6826
78.7121
77.7428
76.7796
75.8254
74.8946
73.9925
73.1687
72.4382
71.9771
151.553
151.567
151.593
151.634
151.688
151.757
151.84
151.939
152.053
152.183
152.328
152.49
152.668
152.861
153.07
153.294
153.532
153.782
154.045
154.317
154.597
154.883
155.172
155.462
155.75
156.032
156.306
156.57
156.819
157.052
157.267
157.46
157.631
157.777
157.898
157.992
158.059
158.099
158.112
158.097
158.056
157.989
157.897
157.781
157.641
157.478
157.295
157.091
156.868
156.628
156.37
156.096
155.808
155.505
155.189
154.861
154.521
154.171
153.81
153.44
153.06
152.673
152.277
151.874
151.464
151.047
150.623
150.194
149.758
149.317
148.87
148.419
147.962
147.5
147.033
146.562
146.086
145.606
145.121
144.632
144.138
143.641
143.139
142.632
142.122
141.608
141.089
140.566
140.039
139.508
138.973
138.434
137.89
137.342
136.79
136.234
135.673
135.109
134.539
133.966
133.388
132.805
132.219
131.627
131.031
130.431
129.826
129.216
128.602
127.983
127.359
126.731
126.098
125.459
124.816
124.168
123.515
122.857
122.194
121.526
120.852
120.174
119.49
118.8
118.106
117.406
116.701
115.99
115.274
114.552
113.825
113.092
112.353
111.609
110.858
110.102
109.34
108.572
107.799
107.019
106.233
105.441
104.643
103.838
103.028
102.211
101.388
100.558
99.7218
98.8792
98.0301
97.1744
96.3121
95.4432
94.5676
93.6853
92.7963
91.9005
90.998
90.0887
89.1728
88.2501
87.3209
86.3852
85.4432
84.4951
83.5413
82.5822
81.6184
80.6508
79.6805
78.7092
77.7392
76.774
75.8188
74.8813
73.9751
73.1149
72.322
71.5581
151.336
151.351
151.378
151.419
151.476
151.547
151.633
151.736
151.854
151.988
152.139
152.307
152.491
152.692
152.908
153.14
153.387
153.646
153.918
154.201
154.491
154.788
155.088
155.388
155.686
155.978
156.262
156.534
156.792
157.032
157.253
157.452
157.627
157.777
157.901
157.997
158.066
158.108
158.121
158.107
158.066
157.999
157.906
157.789
157.648
157.485
157.3
157.096
156.872
156.631
156.372
156.098
155.809
155.505
155.189
154.861
154.52
154.17
153.809
153.438
153.059
152.671
152.275
151.872
151.462
151.045
150.621
150.191
149.756
149.315
148.868
148.416
147.96
147.498
147.031
146.56
146.084
145.604
145.119
144.63
144.137
143.639
143.137
142.631
142.121
141.606
141.088
140.565
140.038
139.507
138.972
138.433
137.889
137.342
136.79
136.233
135.673
135.108
134.539
133.965
133.387
132.805
132.218
131.627
131.031
130.431
129.826
129.216
128.602
127.983
127.359
126.731
126.097
125.459
124.816
124.168
123.515
122.857
122.194
121.525
120.852
120.173
119.49
118.8
118.106
117.406
116.701
115.99
115.274
114.552
113.825
113.092
112.353
111.608
110.858
110.102
109.34
108.572
107.799
107.019
106.233
105.441
104.643
103.838
103.028
102.211
101.387
100.558
99.7217
98.8791
98.03
97.1743
96.312
95.4431
94.5675
93.6852
92.7961
91.9003
90.9978
90.0885
89.1724
88.2497
87.3204
86.3846
85.4424
84.4942
83.5401
82.5807
81.6165
80.6483
79.6772
78.7049
77.7334
76.7657
75.8071
74.8624
73.9436
73.052
72.2059
71.3542
151.004
151.02
151.048
151.092
151.151
151.226
151.316
151.424
151.548
151.689
151.847
152.023
152.217
152.427
152.655
152.899
153.159
153.433
153.719
154.017
154.324
154.637
154.953
155.27
155.585
155.893
156.191
156.477
156.747
156.999
157.23
157.437
157.62
157.776
157.905
158.005
158.077
158.12
158.134
158.121
158.08
158.012
157.918
157.8
157.659
157.494
157.309
157.103
156.878
156.636
156.376
156.101
155.811
155.507
155.19
154.861
154.52
154.169
153.807
153.437
153.057
152.669
152.273
151.87
151.459
151.042
150.619
150.189
149.753
149.312
148.866
148.414
147.957
147.495
147.029
146.558
146.082
145.602
145.117
144.628
144.135
143.637
143.135
142.629
142.119
141.605
141.087
140.564
140.037
139.506
138.971
138.432
137.888
137.341
136.789
136.232
135.672
135.107
134.538
133.965
133.387
132.804
132.218
131.626
131.031
130.43
129.825
129.216
128.601
127.983
127.359
126.73
126.097
125.459
124.816
124.168
123.515
122.857
122.194
121.525
120.852
120.173
119.489
118.8
118.106
117.406
116.701
115.99
115.274
114.552
113.825
113.091
112.353
111.608
110.858
110.102
109.34
108.572
107.799
107.019
106.233
105.441
104.643
103.838
103.028
102.211
101.387
100.558
99.7216
98.879
98.0299
97.1742
96.3119
95.4429
94.5673
93.6849
92.7959
91.9
90.9974
90.088
89.1719
88.2491
87.3197
86.3837
85.4413
84.4928
83.5384
82.5785
81.6137
80.6446
79.6725
78.6985
77.7248
76.7538
75.7899
74.8362
73.9009
72.9814
72.0837
71.1504
150.549
150.566
150.596
150.642
150.705
150.784
150.88
150.993
151.124
151.273
151.441
151.628
151.833
152.057
152.299
152.559
152.836
153.129
153.436
153.755
154.084
154.42
154.76
155.1
155.437
155.768
156.087
156.393
156.681
156.949
157.194
157.414
157.607
157.771
157.907
158.013
158.088
158.134
158.15
158.137
158.096
158.028
157.934
157.815
157.672
157.506
157.319
157.112
156.886
156.642
156.381
156.105
155.814
155.509
155.191
154.861
154.52
154.168
153.806
153.435
153.055
152.666
152.27
151.867
151.456
151.039
150.615
150.186
149.75
149.309
148.863
148.411
147.954
147.493
147.026
146.555
146.079
145.599
145.115
144.626
144.133
143.635
143.133
142.628
142.117
141.603
141.085
140.562
140.036
139.505
138.97
138.43
137.887
137.339
136.788
136.231
135.671
135.106
134.537
133.964
133.386
132.804
132.217
131.626
131.03
130.43
129.825
129.215
128.601
127.982
127.358
126.73
126.097
125.459
124.815
124.167
123.514
122.856
122.193
121.525
120.852
120.173
119.489
118.8
118.106
117.406
116.7
115.99
115.274
114.552
113.824
113.091
112.353
111.608
110.858
110.102
109.34
108.572
107.798
107.019
106.233
105.441
104.642
103.838
103.027
102.211
101.387
100.558
99.7215
98.8788
98.0297
97.174
96.3117
95.4427
94.5671
93.6847
92.7956
91.8997
90.997
90.0875
89.1713
88.2484
87.3187
86.3826
85.4399
84.491
83.5361
82.5756
81.61
80.6399
79.6663
78.6904
77.7139
76.7386
75.7683
74.8042
73.8518
72.9044
71.9614
70.9703
149.961
149.978
150.01
150.059
150.125
150.208
150.31
150.429
150.568
150.726
150.904
151.102
151.321
151.56
151.82
152.099
152.398
152.715
153.048
153.395
153.753
154.12
154.492
154.864
155.232
155.592
155.941
156.273
156.586
156.876
157.14
157.377
157.584
157.76
157.905
158.018
158.099
158.148
158.167
158.155
158.115
158.047
157.952
157.831
157.687
157.52
157.331
157.122
156.895
156.649
156.387
156.109
155.817
155.511
155.192
154.861
154.519
154.166
153.804
153.432
153.052
152.663
152.267
151.863
151.453
151.035
150.612
150.182
149.746
149.305
148.859
148.407
147.951
147.489
147.023
146.552
146.076
145.596
145.112
144.623
144.13
143.633
143.131
142.625
142.115
141.601
141.083
140.56
140.034
139.503
138.968
138.429
137.886
137.338
136.786
136.23
135.67
135.105
134.536
133.963
133.385
132.803
132.216
131.625
131.029
130.429
129.824
129.215
128.601
127.982
127.358
126.73
126.096
125.458
124.815
124.167
123.514
122.856
122.193
121.525
120.851
120.173
119.489
118.8
118.105
117.406
116.7
115.99
115.273
114.552
113.824
113.091
112.353
111.608
110.858
110.102
109.34
108.572
107.798
107.018
106.233
105.441
104.642
103.838
103.027
102.21
101.387
100.557
99.7213
98.8787
98.0296
97.1738
96.3115
95.4425
94.5668
93.6844
92.7952
91.8992
90.9965
90.0869
89.1706
88.2475
87.3176
86.3812
85.4382
84.4889
83.5335
82.5722
81.6056
80.6343
79.659
78.6806
77.7008
76.7208
75.7431
74.7681
73.7981
72.8258
71.8447
70.8161
149.224
149.242
149.276
149.327
149.395
149.482
149.588
149.713
149.858
150.024
150.212
150.421
150.653
150.909
151.188
151.489
151.814
152.159
152.525
152.907
153.303
153.711
154.124
154.538
154.948
155.349
155.737
156.105
156.451
156.771
157.061
157.32
157.546
157.737
157.895
158.017
158.105
158.16
158.182
158.173
158.133
158.065
157.969
157.848
157.702
157.534
157.343
157.133
156.903
156.656
156.392
156.113
155.819
155.512
155.192
154.861
154.518
154.165
153.802
153.429
153.049
152.66
152.263
151.859
151.448
151.031
150.607
150.178
149.742
149.301
148.855
148.403
147.947
147.485
147.019
146.548
146.073
145.593
145.109
144.62
144.127
143.63
143.128
142.623
142.113
141.599
141.081
140.558
140.032
139.501
138.966
138.427
137.884
137.337
136.785
136.229
135.669
135.104
134.535
133.962
133.384
132.802
132.215
131.624
131.029
130.428
129.824
129.214
128.6
127.981
127.357
126.729
126.096
125.458
124.815
124.167
123.514
122.856
122.193
121.524
120.851
120.173
119.489
118.8
118.105
117.405
116.7
115.989
115.273
114.551
113.824
113.091
112.352
111.608
110.858
110.102
109.34
108.572
107.798
107.018
106.232
105.44
104.642
103.838
103.027
102.21
101.387
100.557
99.7212
98.8785
98.0294
97.1736
96.3113
95.4423
94.5665
93.6841
92.7948
91.8988
90.9959
90.0862
89.1697
88.2464
87.3164
86.3796
85.4362
84.4864
83.5303
82.5683
81.6006
80.6278
79.6505
78.6695
77.6859
76.7006
75.7151
74.7291
73.7425
72.7479
71.736
70.6784
148.319
148.339
148.373
148.425
148.494
148.582
148.689
148.816
148.964
149.135
149.328
149.546
149.789
150.059
150.356
150.681
151.034
151.413
151.817
152.244
152.689
153.149
153.618
154.089
154.557
155.013
155.454
155.871
156.262
156.622
156.947
157.235
157.486
157.698
157.871
158.006
158.104
158.166
158.193
158.187
158.149
158.081
157.985
157.863
157.716
157.546
157.354
157.142
156.911
156.662
156.397
156.116
155.821
155.513
155.192
154.859
154.516
154.162
153.798
153.426
153.045
152.655
152.258
151.854
151.443
151.026
150.602
150.173
149.737
149.296
148.85
148.399
147.942
147.481
147.015
146.544
146.069
145.589
145.105
144.616
144.124
143.627
143.125
142.62
142.11
141.596
141.078
140.556
140.03
139.499
138.964
138.425
137.882
137.335
136.783
136.227
135.667
135.103
134.534
133.961
133.383
132.801
132.214
131.623
131.028
130.428
129.823
129.213
128.599
127.98
127.357
126.729
126.095
125.457
124.814
124.166
123.513
122.855
122.192
121.524
120.851
120.172
119.488
118.799
118.105
117.405
116.7
115.989
115.273
114.551
113.824
113.091
112.352
111.608
110.858
110.102
109.34
108.572
107.798
107.018
106.232
105.44
104.642
103.838
103.027
102.21
101.387
100.557
99.721
98.8784
98.0292
97.1734
96.311
95.442
94.5662
93.6837
92.7944
91.8983
90.9953
90.0855
89.1688
88.2453
87.315
86.3779
85.4341
84.4837
83.5269
82.5638
81.5949
80.6205
79.6411
78.6571
77.6696
76.6787
75.6854
74.6885
73.6864
72.6722
71.6355
70.5546
147.224
147.243
147.276
147.326
147.393
147.477
147.579
147.701
147.845
148.011
148.202
148.42
148.666
148.944
149.255
149.6
149.981
150.397
150.848
151.33
151.839
152.37
152.914
153.464
154.01
154.544
155.058
155.544
155.996
156.41
156.782
157.111
157.395
157.634
157.829
157.981
158.091
158.162
158.196
158.194
158.159
158.093
157.998
157.875
157.728
157.556
157.363
157.149
156.917
156.666
156.4
156.118
155.822
155.512
155.19
154.857
154.512
154.158
153.794
153.421
153.039
152.65
152.253
151.849
151.438
151.02
150.597
150.167
149.732
149.291
148.845
148.393
147.937
147.476
147.01
146.539
146.064
145.585
145.101
144.613
144.12
143.623
143.122
142.617
142.107
141.593
141.075
140.553
140.027
139.497
138.962
138.423
137.88
137.333
136.781
136.226
135.666
135.101
134.532
133.959
133.382
132.8
132.213
131.622
131.027
130.427
129.822
129.213
128.599
127.98
127.356
126.728
126.095
125.457
124.814
124.166
123.513
122.855
122.192
121.524
120.851
120.172
119.488
118.799
118.105
117.405
116.7
115.989
115.273
114.551
113.824
113.091
112.352
111.608
110.858
110.102
109.34
108.572
107.798
107.018
106.232
105.44
104.642
103.838
103.027
102.21
101.387
100.557
99.7209
98.8782
98.029
97.1732
96.3108
95.4417
94.5659
93.6833
92.7939
91.8977
90.9946
90.0847
89.1678
88.2441
87.3134
86.3759
85.4317
84.4807
83.5231
82.559
81.5888
80.6126
79.6309
78.6439
77.6521
76.6557
75.6545
74.6472
73.6311
72.5996
71.5427
70.4431
145.913
145.93
145.959
146.001
146.056
146.127
146.213
146.317
146.441
146.587
146.758
146.958
147.191
147.46
147.77
148.125
148.529
148.984
149.489
150.041
150.635
151.262
151.913
152.575
153.235
153.88
154.499
155.083
155.623
156.113
156.551
156.934
157.262
157.538
157.761
157.935
158.062
158.146
158.188
158.193
158.162
158.098
158.004
157.882
157.734
157.562
157.368
157.153
156.92
156.668
156.4
156.117
155.82
155.51
155.187
154.853
154.508
154.153
153.788
153.415
153.033
152.643
152.246
151.842
151.431
151.014
150.59
150.16
149.725
149.285
148.839
148.387
147.931
147.47
147.005
146.534
146.059
145.58
145.096
144.608
144.116
143.619
143.118
142.613
142.104
141.59
141.072
140.55
140.024
139.494
138.96
138.421
137.878
137.331
136.78
136.224
135.664
135.1
134.531
133.958
133.38
132.798
132.212
131.621
131.026
130.426
129.821
129.212
128.598
127.979
127.356
126.727
126.094
125.456
124.813
124.165
123.513
122.855
122.192
121.524
120.85
120.172
119.488
118.799
118.104
117.405
116.7
115.989
115.273
114.551
113.824
113.091
112.352
111.608
110.857
110.101
109.339
108.572
107.798
107.018
106.232
105.44
104.642
103.838
103.027
102.21
101.387
100.557
99.7207
98.878
98.0288
97.173
96.3105
95.4414
94.5655
93.6829
92.7934
91.8971
90.9939
90.0838
89.1667
88.2427
87.3118
86.3739
85.4291
84.4774
83.519
82.5539
81.5823
80.6043
79.6201
78.63
77.634
76.6319
75.6232
74.6061
73.5774
72.5308
71.4571
70.3426
144.352
144.366
144.383
144.409
144.44
144.481
144.531
144.593
144.67
144.765
144.884
145.03
145.213
145.439
145.718
146.059
146.469
146.955
147.518
148.158
148.869
149.638
150.449
151.282
152.115
152.929
153.706
154.433
155.1
155.699
156.228
156.687
157.075
157.398
157.659
157.862
158.011
158.111
158.166
158.179
158.154
158.094
158.003
157.882
157.735
157.563
157.368
157.153
156.918
156.666
156.397
156.114
155.816
155.505
155.181
154.847
154.501
154.146
153.781
153.407
153.026
152.636
152.239
151.834
151.423
151.006
150.583
150.153
149.718
149.278
148.832
148.381
147.925
147.464
146.999
146.529
146.054
145.575
145.092
144.604
144.111
143.615
143.114
142.609
142.1
141.587
141.069
140.547
140.021
139.491
138.957
138.419
137.876
137.329
136.778
136.222
135.662
135.098
134.529
133.956
133.379
132.797
132.211
131.62
131.025
130.425
129.82
129.211
128.597
127.978
127.355
126.727
126.094
125.456
124.813
124.165
123.512
122.854
122.191
121.523
120.85
120.171
119.488
118.799
118.104
117.404
116.699
115.989
115.273
114.551
113.823
113.091
112.352
111.607
110.857
110.101
109.339
108.572
107.798
107.018
106.232
105.44
104.642
103.837
103.027
102.21
101.386
100.557
99.7205
98.8778
98.0286
97.1728
96.3103
95.4411
94.5652
93.6824
92.7929
91.8965
90.9931
90.0829
89.1656
88.2413
87.31
86.3717
85.4264
84.4741
83.5147
82.5485
81.5754
80.5956
79.6089
78.6156
77.6154
76.6078
75.5919
74.5657
73.5257
72.4661
71.3784
70.2515
142.513
142.519
142.516
142.507
142.493
142.475
142.454
142.433
142.414
142.403
142.406
142.434
142.497
142.61
142.788
143.051
143.419
143.911
144.539
145.305
146.197
147.19
148.254
149.356
150.461
151.538
152.559
153.506
154.363
155.123
155.784
156.347
156.819
157.206
157.516
157.756
157.934
158.055
158.125
158.15
158.133
158.079
157.992
157.873
157.728
157.557
157.363
157.147
156.913
156.66
156.391
156.107
155.808
155.497
155.173
154.838
154.493
154.137
153.772
153.398
153.017
152.627
152.23
151.826
151.415
150.998
150.574
150.145
149.71
149.27
148.825
148.374
147.918
147.458
146.993
146.523
146.048
145.57
145.086
144.599
144.107
143.61
143.11
142.605
142.096
141.583
141.066
140.544
140.018
139.488
138.954
138.416
137.873
137.326
136.775
136.22
135.66
135.096
134.528
133.955
133.378
132.796
132.21
131.619
131.024
130.424
129.819
129.21
128.596
127.978
127.354
126.726
126.093
125.455
124.812
124.164
123.512
122.854
122.191
121.523
120.849
120.171
119.487
118.798
118.104
117.404
116.699
115.988
115.272
114.551
113.823
113.09
112.352
111.607
110.857
110.101
109.339
108.571
107.798
107.018
106.232
105.44
104.642
103.837
103.027
102.21
101.386
100.557
99.7203
98.8776
98.0284
97.1725
96.31
95.4408
94.5648
93.682
92.7924
91.8958
90.9924
90.0819
89.1644
88.2399
87.3083
86.3695
85.4236
84.4706
83.5104
82.543
81.5684
80.5866
79.5976
78.601
77.5967
76.5838
75.5612
74.5266
73.4765
72.4055
71.3061
70.1689
140.362
140.351
140.31
140.242
140.147
140.024
139.872
139.694
139.494
139.278
139.055
138.835
138.636
138.485
138.42
138.488
138.737
139.208
139.924
140.884
142.065
143.425
144.913
146.463
148.012
149.505
150.903
152.182
153.326
154.326
155.18
155.893
156.479
156.952
157.325
157.613
157.827
157.974
158.064
158.103
158.097
158.051
157.969
157.855
157.712
157.543
157.35
157.135
156.901
156.649
156.38
156.096
155.797
155.486
155.162
154.827
154.482
154.126
153.761
153.388
153.006
152.617
152.22
151.816
151.405
150.988
150.565
150.136
149.702
149.262
148.817
148.366
147.911
147.451
146.986
146.516
146.042
145.564
145.081
144.593
144.102
143.606
143.105
142.601
142.092
141.579
141.062
140.541
140.015
139.485
138.951
138.413
137.871
137.324
136.773
136.218
135.658
135.094
134.526
133.953
133.376
132.794
132.208
131.618
131.022
130.423
129.818
129.209
128.595
127.977
127.353
126.725
126.092
125.454
124.812
124.164
123.511
122.853
122.19
121.522
120.849
120.171
119.487
118.798
118.104
117.404
116.699
115.988
115.272
114.55
113.823
113.09
112.352
111.607
110.857
110.101
109.339
108.571
107.797
107.018
106.232
105.44
104.642
103.837
103.026
102.209
101.386
100.556
99.7202
98.8774
98.0282
97.1723
96.3097
95.4404
94.5644
93.6815
92.7918
91.8952
90.9916
90.0809
89.1632
88.2384
87.3064
86.3672
85.4208
84.467
83.5059
82.5374
81.5613
80.5776
79.5861
78.5865
77.5782
76.5603
75.5313
74.4891
73.43
72.3491
71.2398
70.094
137.884
137.845
137.739
137.568
137.328
137.016
136.632
136.175
135.644
135.036
134.358
133.636
132.914
132.26
131.754
131.487
131.54
131.984
132.859
134.169
135.871
137.88
140.083
142.363
144.607
146.729
148.674
150.42
151.96
153.29
154.408
155.323
156.057
156.636
157.089
157.435
157.691
157.87
157.983
158.039
158.046
158.009
157.934
157.826
157.687
157.52
157.33
157.117
156.884
156.633
156.365
156.081
155.783
155.472
155.149
154.814
154.469
154.113
153.749
153.376
152.994
152.605
152.208
151.805
151.394
150.978
150.555
150.127
149.692
149.253
148.808
148.358
147.903
147.443
146.979
146.509
146.036
145.557
145.075
144.588
144.096
143.6
143.1
142.596
142.088
141.575
141.058
140.537
140.012
139.482
138.948
138.41
137.868
137.321
136.771
136.215
135.656
135.092
134.524
133.951
133.374
132.793
132.207
131.616
131.021
130.421
129.817
129.208
128.594
127.976
127.353
126.724
126.092
125.454
124.811
124.163
123.511
122.853
122.19
121.522
120.849
120.17
119.487
118.798
118.103
117.404
116.699
115.988
115.272
114.55
113.823
113.09
112.351
111.607
110.857
110.101
109.339
108.571
107.797
107.018
106.232
105.44
104.641
103.837
103.026
102.209
101.386
100.556
99.72
98.8773
98.028
97.172
96.3094
95.4401
94.564
93.6811
92.7913
91.8945
90.9908
90.08
89.162
88.237
87.3046
86.365
85.418
84.4635
83.5015
82.5318
81.5543
80.5687
79.5748
78.5722
77.5601
76.5374
75.5027
74.4535
73.3864
72.297
71.1791
70.0261
135.067
134.974
134.749
134.401
133.916
133.285
132.492
131.518
130.344
128.98
127.471
125.894
124.349
122.953
121.836
121.141
121.009
121.556
122.834
124.815
127.394
130.412
133.694
137.058
140.325
143.349
146.041
148.382
150.396
152.109
153.531
154.679
155.583
156.285
156.824
157.232
157.533
157.746
157.884
157.959
157.98
157.955
157.888
157.786
157.652
157.49
157.303
157.092
156.861
156.611
156.344
156.062
155.765
155.454
155.132
154.798
154.453
154.098
153.734
153.361
152.98
152.592
152.196
151.792
151.383
150.967
150.544
150.116
149.682
149.243
148.799
148.349
147.895
147.435
146.971
146.502
146.029
145.551
145.068
144.582
144.09
143.595
143.095
142.591
142.083
141.571
141.054
140.533
140.008
139.479
138.945
138.407
137.865
137.319
136.768
136.213
135.654
135.09
134.522
133.949
133.373
132.791
132.205
131.615
131.02
130.42
129.816
129.207
128.593
127.975
127.352
126.724
126.091
125.453
124.81
124.163
123.51
122.852
122.189
121.521
120.848
120.17
119.486
118.797
118.103
117.403
116.698
115.988
115.272
114.55
113.823
113.09
112.351
111.607
110.857
110.101
109.339
108.571
107.797
107.017
106.231
105.439
104.641
103.837
103.026
102.209
101.386
100.556
99.7198
98.8771
98.0277
97.1718
96.3091
95.4398
94.5636
93.6806
92.7907
91.8939
90.99
90.079
89.1608
88.2355
87.3028
86.3627
85.4151
84.46
83.497
82.5262
81.5473
80.5599
79.5638
78.5582
77.5425
76.5155
75.4754
74.42
73.3459
72.2489
71.1238
69.9645
131.851
131.658
131.227
130.568
129.641
128.408
126.808
124.815
122.454
119.824
117.06
114.304
111.719
109.494
107.832
106.929
106.943
107.972
110.041
113.083
116.949
121.424
126.248
131.119
135.751
139.919
143.485
146.448
148.921
150.987
152.69
154.055
155.118
155.934
156.553
157.019
157.364
157.609
157.772
157.866
157.903
157.889
157.832
157.737
157.609
157.452
157.268
157.061
156.832
156.585
156.319
156.038
155.743
155.433
155.112
154.779
154.435
154.081
153.717
153.345
152.965
152.577
152.181
151.779
151.37
150.954
150.532
150.105
149.671
149.233
148.789
148.34
147.885
147.426
146.963
146.494
146.021
145.544
145.062
144.575
144.084
143.589
143.09
142.586
142.078
141.566
141.05
140.529
140.004
139.475
138.942
138.404
137.862
137.316
136.765
136.21
135.651
135.088
134.52
133.947
133.371
132.789
132.204
131.613
131.018
130.419
129.815
129.206
128.592
127.974
127.351
126.723
126.09
125.452
124.81
124.162
123.509
122.852
122.189
121.521
120.848
120.17
119.486
118.797
118.103
117.403
116.698
115.988
115.271
114.55
113.823
113.09
112.351
111.607
110.857
110.101
109.339
108.571
107.797
107.017
106.231
105.439
104.641
103.837
103.026
102.209
101.386
100.556
99.7197
98.8769
98.0275
97.1715
96.3089
95.4395
94.5633
93.6802
92.7902
91.8932
90.9892
90.078
89.1597
88.234
87.301
86.3605
85.4124
84.4565
83.4927
82.5208
81.5405
80.5514
79.5531
78.5449
77.5258
76.4947
75.4498
74.3888
73.3084
72.205
71.0735
69.909
128.41
128.025
127.207
125.955
124.167
121.761
118.694
115.061
111.039
106.86
102.772
99.0374
95.8977
93.5684
92.2155
91.9801
92.9692
95.2548
98.7927
103.457
108.98
115.061
121.307
127.358
132.926
137.815
141.914
145.248
147.97
150.232
152.1
153.597
154.761
155.649
156.323
156.83
157.206
157.477
157.66
157.771
157.821
157.818
157.77
157.682
157.56
157.408
157.228
157.025
156.799
156.554
156.291
156.012
155.718
155.41
155.089
154.757
154.414
154.061
153.699
153.328
152.948
152.561
152.166
151.764
151.356
150.941
150.52
150.093
149.66
149.222
148.778
148.33
147.876
147.417
146.954
146.486
146.013
145.536
145.055
144.568
144.078
143.583
143.084
142.581
142.073
141.561
141.045
140.525
140
139.471
138.938
138.401
137.859
137.313
136.763
136.208
135.649
135.085
134.518
133.945
133.369
132.788
132.202
131.612
131.017
130.417
129.813
129.205
128.591
127.973
127.35
126.722
126.089
125.452
124.809
124.161
123.509
122.851
122.188
121.521
120.847
120.169
119.486
118.797
118.102
117.403
116.698
115.987
115.271
114.55
113.822
113.09
112.351
111.607
110.856
110.1
109.339
108.571
107.797
107.017
106.231
105.439
104.641
103.837
103.026
102.209
101.386
100.556
99.7195
98.8767
98.0273
97.1713
96.3086
95.4392
94.5629
93.6798
92.7897
91.8926
90.9885
90.0771
89.1586
88.2327
87.2993
86.3584
85.4098
84.4532
83.4886
82.5157
81.534
80.5433
79.543
78.5322
77.5101
76.4753
75.426
74.36
73.2742
72.1651
71.0282
69.8591
125.197
124.481
122.961
120.604
117.297
113.112
108.198
102.868
97.4753
92.4141
88.0478
84.6632
82.4338
81.4533
81.737
83.2703
86.0245
89.9558
94.9319
100.747
107.149
113.846
120.504
126.795
132.475
137.408
141.536
144.897
147.64
149.928
151.83
153.361
154.554
155.467
156.162
156.689
157.082
157.368
157.564
157.686
157.746
157.752
157.711
157.63
157.513
157.365
157.189
156.989
156.766
156.523
156.262
155.985
155.692
155.386
155.067
154.736
154.394
154.042
153.681
153.311
152.932
152.545
152.151
151.75
151.342
150.928
150.507
150.081
149.649
149.211
148.768
148.32
147.867
147.409
146.946
146.478
146.006
145.529
145.048
144.562
144.072
143.578
143.079
142.576
142.068
141.557
141.041
140.521
139.996
139.468
138.935
138.397
137.856
137.31
136.76
136.205
135.647
135.083
134.516
133.944
133.367
132.786
132.2
131.61
131.016
130.416
129.812
129.204
128.59
127.972
127.349
126.721
126.089
125.451
124.808
124.161
123.508
122.851
122.188