/*--------------------------------*- C++ -*----------------------------------*\
  =========                 |
  \\      /  F ield         | OpenFOAM: The Open Source CFD Toolbox
   \\    /   O peration     | Website:  https://openfoam.org
    \\  /    A nd           | Version:  10
     \\/     M anipulation  |
\*---------------------------------------------------------------------------*/
FoamFile
{
    format      ascii;
    class       volVectorField;
    location    "0.005";
    object      UMean;
}
// * * * * * * * * * * * * * * * * * * * * * * * * * * * * * * * * * * * * * //

dimensions      [0 1 -1 0 0 0 0];

internalField   nonuniform List<vector> 
12225
(
(9.77171 0.0586304 0)
(9.59133 0.0651095 0)
(9.36824 0.0588847 0)
(9.11913 0.053812 0)
(8.89294 0.0484743 0)
(8.69898 0.0448128 0)
(8.54544 0.03711 0)
(8.41679 0.0341231 0)
(8.33169 0.0222927 0)
(8.2561 0.025259 0)
(8.24288 0.00396201 0)
(8.21621 0.0215327 0)
(8.29653 -0.0285885 0)
(8.32795 0.0290616 0)
(8.54598 -0.101222 0)
(8.68517 0.0679134 0)
(9.14264 -0.312495 0)
(9.62924 0.077695 0)
(9.93188 0.040915 0)
(10.088 0.0531997 0)
(10.1644 0.0510296 0)
(10.1846 0.0478265 0)
(10.1975 0.0457413 0)
(10.2216 0.0398582 0)
(10.2526 0.0359974 0)
(10.2929 0.0251176 0)
(10.3337 0.0216817 0)
(10.3908 0.00375817 0)
(10.449 0.00374336 0)
(10.5428 -0.0283008 0)
(10.6334 -0.0218457 0)
(10.7942 -0.0826545 0)
(10.9376 -0.0689764 0)
(11.2248 -0.192188 0)
(11.4674 -0.235649 0)
(11.9477 -0.573176 0)
(9.93188 0.0398531 0)
(10.066 0.049535 0)
(10.1352 0.0450352 0)
(10.1587 0.039777 0)
(10.1835 0.0336327 0)
(10.2223 0.0282119 0)
(10.2741 0.0185408 0)
(10.332 0.0114174 0)
(10.3974 -0.00431354 0)
(10.4677 -0.0125731 0)
(10.5523 -0.0393588 0)
(10.6475 -0.0483082 0)
(10.7682 -0.0966916 0)
(10.906 -0.108794 0)
(11.0847 -0.200645 0)
(11.2916 -0.246929 0)
(11.5489 -0.446483 0)
(11.8201 -0.715972 0)
(9.90665 0.0163891 0)
(10.0457 0.0394802 0)
(10.1213 0.0361519 0)
(10.1474 0.029296 0)
(10.1687 0.0226747 0)
(10.2014 0.0135054 0)
(10.2461 0.00382944 0)
(10.3008 -0.0101246 0)
(10.3631 -0.0237994 0)
(10.4356 -0.0444852 0)
(10.5186 -0.0649976 0)
(10.6175 -0.0975081 0)
(10.7325 -0.131999 0)
(10.8698 -0.186707 0)
(11.0316 -0.256786 0)
(11.2195 -0.36533 0)
(11.4307 -0.543452 0)
(11.6352 -0.791468 0)
(9.89631 0.0146747 0)
(10.0192 0.0300007 0)
(10.0879 0.0261962 0)
(10.1132 0.0193139 0)
(10.137 0.0110838 0)
(10.1735 0.0014388 0)
(10.2221 -0.0118522 0)
(10.2788 -0.0273595 0)
(10.3423 -0.047858 0)
(10.4138 -0.0707399 0)
(10.496 -0.101396 0)
(10.5913 -0.13704 0)
(10.7024 -0.186097 0)
(10.8306 -0.248409 0)
(10.9784 -0.3351 0)
(11.1416 -0.461044 0)
(11.3151 -0.63385 0)
(11.4692 -0.891837 0)
(9.87179 0.0103471 0)
(9.98682 0.022278 0)
(10.0511 0.0208962 0)
(10.0774 0.0113994 0)
(10.1037 -0.000371509 0)
(10.1422 -0.0139772 0)
(10.1928 -0.0299531 0)
(10.2521 -0.0494133 0)
(10.3184 -0.0729943 0)
(10.3921 -0.101693 0)
(10.4747 -0.137082 0)
(10.5673 -0.18091 0)
(10.6723 -0.237163 0)
(10.7892 -0.309685 0)
(10.9196 -0.407224 0)
(11.0574 -0.538827 0)
(11.1962 -0.715976 0)
(11.3135 -0.951123 0)
(9.90666 -0.00271621 0)
(10.0134 0.00712843 0)
(10.0735 0.00503848 0)
(10.0988 -0.00557865 0)
(10.125 -0.0189813 0)
(10.1626 -0.0340789 0)
(10.2106 -0.0524127 0)
(10.2654 -0.0750555 0)
(10.3254 -0.102465 0)
(10.3913 -0.135431 0)
(10.465 -0.175475 0)
(10.5475 -0.225581 0)
(10.6402 -0.288539 0)
(10.7422 -0.370178 0)
(10.8531 -0.474844 0)
(10.9663 -0.612144 0)
(11.0755 -0.785402 0)
(11.1627 -1.00099 0)
(9.93114 0.00938849 0)
(10.0394 0.0101335 0)
(10.0959 0.0039238 0)
(10.1146 -0.0097025 0)
(10.1336 -0.0265115 0)
(10.1649 -0.0453407 0)
(10.2081 -0.0671783 0)
(10.2596 -0.0931664 0)
(10.3173 -0.124352 0)
(10.3808 -0.162 0)
(10.4511 -0.207719 0)
(10.5284 -0.264128 0)
(10.6134 -0.333867 0)
(10.7041 -0.421665 0)
(10.799 -0.531099 0)
(10.8913 -0.668756 0)
(10.9757 -0.835265 0)
(11.0379 -1.03397 0)
(9.96941 -0.012448 0)
(10.0726 -0.00967045 0)
(10.1246 -0.016755 0)
(10.1424 -0.0297646 0)
(10.1629 -0.0465983 0)
(10.1941 -0.0670494 0)
(10.2335 -0.0919778 0)
(10.2784 -0.121851 0)
(10.3278 -0.157171 0)
(10.3822 -0.19917 0)
(10.4428 -0.249309 0)
(10.5097 -0.31036 0)
(10.5827 -0.384812 0)
(10.6597 -0.47667 0)
(10.738 -0.588233 0)
(10.8119 -0.723674 0)
(10.8758 -0.881982 0)
(10.9203 -1.06408 0)
(9.92074 0.0035138 0)
(10.024 0.000938884 0)
(10.0701 -0.0126829 0)
(10.0804 -0.0308316 0)
(10.0951 -0.0518157 0)
(10.1237 -0.0752803 0)
(10.1631 -0.102287 0)
(10.2089 -0.134624 0)
(10.2591 -0.17337 0)
(10.3129 -0.219778 0)
(10.3707 -0.275142 0)
(10.4319 -0.341573 0)
(10.4965 -0.42081 0)
(10.5621 -0.515779 0)
(10.6266 -0.627822 0)
(10.6845 -0.759477 0)
(10.7321 -0.908943 0)
(10.7617 -1.07605 0)
(9.89285 -0.0187364 0)
(9.99844 -0.0237839 0)
(10.0483 -0.0346104 0)
(10.0613 -0.0511165 0)
(10.0767 -0.0731537 0)
(10.1041 -0.100546 0)
(10.1418 -0.132848 0)
(10.1861 -0.16988 0)
(10.2346 -0.21183 0)
(10.2859 -0.260272 0)
(10.3394 -0.317194 0)
(10.3946 -0.385118 0)
(10.4508 -0.465668 0)
(10.506 -0.560969 0)
(10.5578 -0.671206 0)
(10.6021 -0.797622 0)
(10.6353 -0.937513 0)
(10.6522 -1.09057 0)
(9.92254 -0.00135883 0)
(10.0258 -0.0145603 0)
(10.0702 -0.0309153 0)
(10.0768 -0.0513982 0)
(10.0867 -0.0762202 0)
(10.1087 -0.105852 0)
(10.1387 -0.14062 0)
(10.1725 -0.180548 0)
(10.2091 -0.226156 0)
(10.2489 -0.278782 0)
(10.2921 -0.339761 0)
(10.3378 -0.410925 0)
(10.3842 -0.493338 0)
(10.4282 -0.588467 0)
(10.4668 -0.69597 0)
(10.4963 -0.816476 0)
(10.5142 -0.94703 0)
(10.5166 -1.08759 0)
(9.91048 -0.0269348 0)
(10.0095 -0.0333353 0)
(10.0531 -0.0506353 0)
(10.0626 -0.0716799 0)
(10.0759 -0.096677 0)
(10.0997 -0.127621 0)
(10.1305 -0.164379 0)
(10.1647 -0.206244 0)
(10.2007 -0.253591 0)
(10.2375 -0.30787 0)
(10.2747 -0.370439 0)
(10.311 -0.442575 0)
(10.3451 -0.524579 0)
(10.3748 -0.617256 0)
(10.3986 -0.719814 0)
(10.4134 -0.832794 0)
(10.4185 -0.953321 0)
(10.4106 -1.08202 0)
(9.87493 -0.00378667 0)
(9.95939 -0.0240365 0)
(9.99779 -0.0476236 0)
(10.0073 -0.0727864 0)
(10.0216 -0.101659 0)
(10.0468 -0.135804 0)
(10.079 -0.175293 0)
(10.1136 -0.220129 0)
(10.148 -0.270344 0)
(10.1806 -0.326571 0)
(10.2112 -0.389484 0)
(10.2387 -0.460332 0)
(10.2627 -0.539642 0)
(10.2813 -0.628375 0)
(10.2945 -0.725701 0)
(10.2995 -0.831844 0)
(10.2973 -0.943857 0)
(10.2836 -1.06204 0)
(9.91864 -0.00725432 0)
(10.0121 -0.0441377 0)
(10.0543 -0.0713649 0)
(10.0604 -0.0981437 0)
(10.0664 -0.130093 0)
(10.0816 -0.167736 0)
(10.1034 -0.209425 0)
(10.1271 -0.25437 0)
(10.1499 -0.303106 0)
(10.171 -0.357167 0)
(10.1906 -0.417767 0)
(10.2081 -0.486068 0)
(10.2231 -0.562076 0)
(10.2334 -0.646185 0)
(10.2385 -0.737064 0)
(10.2356 -0.834823 0)
(10.2257 -0.936366 0)
(10.2053 -1.04252 0)
(9.91583 -0.000198011 0)
(10.0242 -0.037468 0)
(10.0706 -0.067305 0)
(10.0726 -0.0954315 0)
(10.0713 -0.127389 0)
(10.0781 -0.164566 0)
(10.09 -0.206652 0)
(10.1027 -0.253576 0)
(10.1142 -0.305425 0)
(10.1244 -0.362466 0)
(10.1334 -0.42463 0)
(10.1406 -0.492206 0)
(10.145 -0.564893 0)
(10.1448 -0.643101 0)
(10.1394 -0.725705 0)
(10.1267 -0.813139 0)
(10.1078 -0.902659 0)
(10.0795 -0.99554 0)
(9.93429 -0.0411097 0)
(10.0349 -0.0616816 0)
(10.0722 -0.0903527 0)
(10.0655 -0.123117 0)
(10.0579 -0.158314 0)
(10.0608 -0.195955 0)
(10.07 -0.236731 0)
(10.0795 -0.281431 0)
(10.0864 -0.330452 0)
(10.09 -0.384123 0)
(10.0906 -0.442257 0)
(10.088 -0.504951 0)
(10.0825 -0.571557 0)
(10.0726 -0.642184 0)
(10.0586 -0.715391 0)
(10.0386 -0.791572 0)
(10.014 -0.868042 0)
(9.98168 -0.946517 0)
(10.0165 -0.0148484 0)
(10.1081 -0.0419319 0)
(10.1398 -0.0702542 0)
(10.1305 -0.102271 0)
(10.1195 -0.13775 0)
(10.116 -0.176285 0)
(10.1163 -0.217864 0)
(10.1158 -0.262532 0)
(10.1122 -0.31018 0)
(10.1049 -0.361008 0)
(10.0943 -0.414973 0)
(10.0803 -0.472174 0)
(10.0626 -0.53189 0)
(10.0404 -0.594024 0)
(10.0135 -0.657174 0)
(9.9811 -0.72182 0)
(9.94392 -0.78565 0)
(9.90125 -0.850623 0)
(9.94635 -0.0401265 0)
(10.0344 -0.070232 0)
(10.0599 -0.101498 0)
(10.0416 -0.132985 0)
(10.0204 -0.165186 0)
(10.0062 -0.199277 0)
(9.99571 -0.235792 0)
(9.98453 -0.274783 0)
(9.97063 -0.316122 0)
(9.9534 -0.359741 0)
(9.93298 -0.405154 0)
(9.90923 -0.451946 0)
(9.882 -0.499254 0)
(9.85079 -0.547126 0)
(9.81583 -0.594782 0)
(9.77679 -0.643175 0)
(9.73469 -0.690724 0)
(9.6889 -0.739509 0)
(9.93497 -0.00680594 0)
(10.0263 -0.0296087 0)
(10.0533 -0.0581903 0)
(10.0379 -0.0868611 0)
(10.0203 -0.115323 0)
(10.008 -0.14538 0)
(9.99673 -0.17849 0)
(9.98258 -0.214747 0)
(9.96417 -0.253079 0)
(9.94165 -0.292315 0)
(9.91586 -0.331553 0)
(9.88735 -0.370644 0)
(9.85648 -0.409422 0)
(9.82293 -0.448421 0)
(9.78694 -0.487324 0)
(9.74798 -0.526905 0)
(9.7068 -0.565882 0)
(9.66246 -0.605656 0)
(9.88631 -0.0322115 0)
(9.95992 -0.0570178 0)
(9.97783 -0.0847306 0)
(9.95957 -0.112088 0)
(9.94225 -0.137589 0)
(9.93233 -0.162226 0)
(9.92402 -0.187802 0)
(9.91224 -0.215635 0)
(9.895 -0.245762 0)
(9.87225 -0.277528 0)
(9.84508 -0.310017 0)
(9.81461 -0.342713 0)
(9.78156 -0.375043 0)
(9.74586 -0.407084 0)
(9.7076 -0.438343 0)
(9.66644 -0.46935 0)
(9.62295 -0.499109 0)
(9.57668 -0.528844 0)
(9.92516 0.017525 0)
(10.0079 -0.0223356 0)
(10.0308 -0.0536647 0)
(10.0134 -0.0805464 0)
(9.99272 -0.105886 0)
(9.97661 -0.130745 0)
(9.96129 -0.154935 0)
(9.94308 -0.178785 0)
(9.92045 -0.203116 0)
(9.89292 -0.228544 0)
(9.86081 -0.254951 0)
(9.82474 -0.281897 0)
(9.78556 -0.30862 0)
(9.74372 -0.334883 0)
(9.69992 -0.360222 0)
(9.65422 -0.385218 0)
(9.60736 -0.409256 0)
(9.55885 -0.433589 0)
(9.92837 -0.0082972 0)
(10.0263 -0.0455003 0)
(10.0544 -0.0721463 0)
(10.0324 -0.0936219 0)
(10.0056 -0.112351 0)
(9.98524 -0.130128 0)
(9.96669 -0.148288 0)
(9.94471 -0.167225 0)
(9.91745 -0.186658 0)
(9.88498 -0.206221 0)
(9.84817 -0.225754 0)
(9.80798 -0.245555 0)
(9.76539 -0.265764 0)
(9.72096 -0.286576 0)
(9.67528 -0.307449 0)
(9.62846 -0.32832 0)
(9.5809 -0.348218 0)
(9.53232 -0.367665 0)
(9.84354 0.00100953 0)
(9.94715 -0.0213334 0)
(9.98135 -0.0447924 0)
(9.96303 -0.0656589 0)
(9.93697 -0.0839262 0)
(9.91709 -0.100677 0)
(9.90068 -0.116159 0)
(9.88272 -0.130774 0)
(9.8607 -0.145298 0)
(9.83401 -0.160435 0)
(9.80298 -0.176464 0)
(9.76804 -0.193475 0)
(9.72976 -0.211185 0)
(9.68832 -0.229356 0)
(9.64437 -0.24736 0)
(9.59809 -0.26505 0)
(9.55064 -0.28174 0)
(9.50186 -0.29784 0)
(9.95164 -0.0240164 0)
(10.0492 -0.0454077 0)
(10.083 -0.065499 0)
(10.0677 -0.0808062 0)
(10.0421 -0.0930017 0)
(10.0187 -0.105391 0)
(9.99647 -0.118335 0)
(9.97221 -0.130854 0)
(9.94463 -0.142348 0)
(9.91358 -0.152854 0)
(9.87924 -0.162748 0)
(9.84177 -0.172682 0)
(9.80147 -0.183155 0)
(9.75853 -0.194562 0)
(9.71346 -0.206735 0)
(9.66638 -0.21961 0)
(9.61804 -0.232471 0)
(9.56816 -0.245423 0)
(9.90708 -0.00672622 0)
(10.0054 -0.0247712 0)
(10.0346 -0.0401638 0)
(10.0129 -0.0525548 0)
(9.98214 -0.0626945 0)
(9.9554 -0.0722621 0)
(9.93138 -0.0821506 0)
(9.90605 -0.0921705 0)
(9.87756 -0.102 0)
(9.84604 -0.111541 0)
(9.81225 -0.120883 0)
(9.77669 -0.130387 0)
(9.73947 -0.140317 0)
(9.70035 -0.150843 0)
(9.65918 -0.161606 0)
(9.61569 -0.17234 0)
(9.57015 -0.182413 0)
(9.5225 -0.191836 0)
(9.87927 -0.0358315 0)
(9.96888 -0.0507121 0)
(10.0028 -0.0579686 0)
(9.99195 -0.0646378 0)
(9.97202 -0.0723126 0)
(9.95408 -0.0803371 0)
(9.93672 -0.0882468 0)
(9.91601 -0.0957053 0)
(9.89006 -0.10245 0)
(9.85928 -0.108432 0)
(9.825 -0.113799 0)
(9.78821 -0.118948 0)
(9.74938 -0.124258 0)
(9.70837 -0.130018 0)
(9.66516 -0.136124 0)
(9.61954 -0.142494 0)
(9.57202 -0.148721 0)
(9.52254 -0.154866 0)
(9.89717 -0.00491237 0)
(10.0015 -0.0291898 0)
(10.041 -0.0377686 0)
(10.0276 -0.0445281 0)
(10.0024 -0.050994 0)
(9.97939 -0.0563328 0)
(9.95706 -0.060821 0)
(9.93099 -0.0651656 0)
(9.8995 -0.0696644 0)
(9.86375 -0.074314 0)
(9.82577 -0.0790436 0)
(9.78685 -0.0839083 0)
(9.74736 -0.088901 0)
(9.70688 -0.0940193 0)
(9.66504 -0.0989748 0)
(9.62117 -0.103679 0)
(9.57558 -0.107816 0)
(9.52783 -0.111598 0)
(9.87882 -0.0403965 0)
(10.0105 -0.0577659 0)
(10.0638 -0.0571946 0)
(10.0559 -0.057943 0)
(10.0324 -0.0610236 0)
(10.009 -0.0637351 0)
(9.98571 -0.0654331 0)
(9.95841 -0.0668015 0)
(9.92478 -0.0683905 0)
(9.88479 -0.0703258 0)
(9.83944 -0.0724836 0)
(9.78991 -0.0747734 0)
(9.73701 -0.0770559 0)
(9.68143 -0.0793091 0)
(9.62345 -0.081337 0)
(9.56368 -0.0831851 0)
(9.50217 -0.084661 0)
(9.43995 -0.0860357 0)
(9.77319 -0.0317818 0)
(9.70599 -0.0417988 0)
(9.57378 -0.0418775 0)
(9.39368 -0.0413193 0)
(9.21191 -0.040976 0)
(9.04364 -0.0404469 0)
(8.88752 -0.0397565 0)
(8.73856 -0.038957 0)
(8.59389 -0.0380252 0)
(8.45307 -0.0370503 0)
(8.31623 -0.0362432 0)
(8.1833 -0.0358234 0)
(8.0535 -0.0358018 0)
(7.92664 -0.036052 0)
(7.80205 -0.0362623 0)
(7.68097 -0.0362812 0)
(7.56237 -0.0359346 0)
(7.4493 -0.0353878 0)
(-0.00709561 0.00779051 4.29037e-20)
(-0.00646612 -0.00361778 -4.26172e-20)
(0.000289681 -0.00405684 0)
(0.0046159 -0.0044384 0)
(0.0107716 -0.0056402 0)
(0.0181051 -0.00728168 4.14324e-20)
(0.0274961 -0.0093232 0)
(0.0390855 -0.0116629 0)
(0.0534853 -0.01435 0)
(0.0708956 -0.0173824 0)
(0.0917489 -0.0207168 -4.00234e-20)
(0.116487 -0.0243335 0)
(0.145383 -0.0281947 0)
(0.178624 -0.0323143 0)
(0.21662 -0.0364996 0)
(0.259642 -0.0408776 -3.86905e-20)
(0.307687 -0.0452973 0)
(0.360899 -0.0497108 0)
(0.419474 -0.0540805 0)
(0.483303 -0.0583368 0)
(0.552285 -0.0623557 0)
(0.626361 -0.0661964 0)
(0.705257 -0.0697336 0)
(0.788745 -0.0730489 -3.66788e-20)
(0.876492 -0.0759675 3.64328e-20)
(0.968188 -0.0785112 -3.61869e-20)
(1.06336 -0.0806778 -3.59409e-20)
(1.16165 -0.0824263 0)
(1.26262 -0.0837648 0)
(1.36584 -0.0846957 3.51987e-20)
(1.47075 -0.0852443 3.49493e-20)
(1.57694 -0.0853653 0)
(1.68399 -0.0851367 0)
(1.79137 -0.0845677 3.41921e-20)
(1.89871 -0.0836605 0)
(2.00561 -0.0824622 0)
(2.11171 -0.0810013 -3.34197e-20)
(2.21666 -0.0793091 0)
(2.32016 -0.0774169 -3.28964e-20)
(2.42193 -0.0753556 -6.52648e-20)
(2.52175 -0.0731548 0)
(2.6194 -0.0708428 0)
(2.7147 -0.068446 0)
(2.80752 -0.0659885 0)
(2.89773 -0.0634926 0)
(2.98525 -0.060978 -6.20493e-20)
(3.07 -0.0584623 -6.15083e-20)
(3.15194 -0.0559609 -6.09667e-20)
(3.23105 -0.0534872 0)
(3.30732 -0.0510524 5.98831e-20)
(3.38075 -0.0486662 0)
(3.45137 -0.0463364 -5.88007e-20)
(3.51921 -0.0440694 -5.82607e-20)
(3.5843 -0.0418701 0)
(3.64671 -0.0397424 0)
(3.70649 -0.0376889 0)
(3.7637 -0.0357116 -5.61138e-20)
(3.8184 -0.0338114 0)
(3.87068 -0.0319886 0)
(3.92059 -0.0302429 0)
(3.96822 -0.0285737 0)
(4.01364 -0.0269797 0)
(4.05693 -0.0254595 0)
(4.09816 -0.0240113 0)
(4.13742 -0.0226331 0)
(4.17477 -0.0213227 5.14064e-20)
(4.21029 -0.0200781 0)
(4.24405 -0.0188967 0)
(4.27613 -0.0177762 -4.98859e-20)
(4.30659 -0.0167142 -4.9385e-20)
(4.33551 -0.0157083 0)
(4.36294 -0.0147561 4.83925e-20)
(4.38896 -0.0138552 -4.7901e-20)
(4.41362 -0.0130033 0)
(4.43698 -0.0121981 4.69272e-20)
(4.45911 -0.0114374 0)
(4.48005 -0.0107191 0)
(4.49987 -0.010041 -4.54904e-20)
(4.51861 -0.00940124 0)
(4.53633 -0.00879778 4.45484e-20)
(4.55307 -0.00822883 0)
(4.56888 -0.00769256 -4.36192e-20)
(4.58381 -0.00718731 -4.31593e-20)
(4.59789 -0.00671139 -4.27026e-20)
(4.61117 -0.00626328 -8.4498e-20)
(4.62368 -0.00584147 8.35971e-20)
(4.63547 -0.00544455 0)
(4.64657 -0.00507111 0)
(4.65701 -0.00471991 0)
(4.66682 -0.00438967 8.00558e-20)
(4.67605 -0.00407917 7.91859e-20)
(4.68471 -0.0037871 -7.83221e-20)
(4.69284 -0.00351221 0)
(4.70047 -0.00325262 7.66126e-20)
(4.70761 -0.00300653 7.57669e-20)
(4.71429 -0.00277273 7.49271e-20)
(4.72053 -0.00255021 0)
(4.72636 -0.00233793 0)
(4.73179 -0.00213559 0)
(4.73683 -0.00194308 7.16264e-20)
(4.74151 -0.0017588 0)
(4.74584 -0.00158144 0)
(4.74984 -0.00141258 -6.92113e-20)
(4.75352 -0.00125245 0)
(4.75689 -0.00109753 0)
(4.75998 -0.000949139 -6.68466e-20)
(4.76278 -0.000814066 0)
(4.76533 -0.000696858 0)
(4.76764 -0.000597742 6.45312e-20)
(4.76975 -0.000515216 6.37701e-20)
(4.77166 -0.000446464 0)
(4.77341 -0.000388224 -6.22638e-20)
(4.775 -0.000337453 0)
(4.77644 -0.000291989 6.07784e-20)
(4.77774 -0.000250382 0)
(4.77892 -0.000211868 5.93134e-20)
(4.77998 -0.000175999 5.85885e-20)
(4.78093 -0.000142555 0)
(4.78176 -0.000111388 0)
(4.7825 -8.23709e-05 0)
(4.78315 -5.53819e-05 0)
(4.78371 -3.02889e-05 0)
(4.78418 -6.94752e-06 0)
(4.78458 1.47261e-05 0)
(4.78491 3.48646e-05 5.29649e-20)
(4.78516 5.35049e-05 -5.22833e-20)
(4.78535 7.07878e-05 0)
(4.78549 8.67566e-05 0)
(4.78556 0.000101554 0)
(4.78558 0.000115217 0)
(4.78556 0.000127874 -9.78866e-20)
(4.78548 0.00013955 0)
(4.78536 0.000150364 9.52766e-20)
(4.7852 0.000160338 -9.39845e-20)
(4.785 0.000169586 0)
(4.78477 0.000178128 0)
(4.7845 0.000186061 0)
(4.78419 0.000193412 8.89006e-20)
(4.78386 0.000200238 8.76503e-20)
(4.7835 0.000206581 0)
(4.7831 0.000212478 8.51739e-20)
(4.78268 0.000218009 8.39476e-20)
(4.78224 0.000223216 -8.27292e-20)
(4.78177 0.00022818 0)
(4.78128 0.000232934 0)
(4.78076 0.000237551 -7.91205e-20)
(4.78022 0.00024207 0)
(4.77966 0.000246578 0)
(4.77907 0.000251142 0)
(4.77846 0.000255868 0)
(4.77783 0.00026085 7.32558e-20)
(4.77717 0.000266227 7.21046e-20)
(4.77649 0.00027215 0)
(4.77577 0.000278818 6.98236e-20)
(4.77503 0.000286463 0)
(4.77424 0.00029539 0)
(4.77342 0.000305968 6.6454e-20)
(4.77254 0.000318679 0)
(4.77161 0.000334113 6.42415e-20)
(4.77061 0.000353053 0)
(4.76952 0.000376457 0)
(4.76833 0.000405649 6.09726e-20)
(4.767 0.000442153 0)
(4.76551 0.000488407 5.88262e-20)
(4.76382 0.000546566 0)
(4.76186 0.000621852 0)
(4.75957 0.000716332 0)
(4.75684 0.000842018 -5.46125e-20)
(4.75352 0.00100147 0)
(4.7495 0.00121018 5.25471e-20)
(4.74437 0.00151366 0)
(4.73811 0.00181486 0)
(4.72963 0.00255759 0)
(4.71905 0.00273652 0)
(4.7043 0.00507915 0)
(4.68329 0.00394 0)
(4.6569 0.0125725 0)
(4.60151 0.00616003 -8.94142e-20)
(4.55182 0.0459269 0)
(4.34957 0.0402218 0)
(-0.00845681 0.0234707 -1.28709e-19)
(-0.00825512 -0.01401 1.2785e-19)
(-0.00261094 -0.0156198 0)
(0.00092575 -0.0169097 -8.40243e-20)
(0.00632568 -0.0207718 0)
(0.0131002 -0.0260743 -4.1443e-20)
(0.0222241 -0.032536 8.22776e-20)
(0.0338735 -0.0400512 8.17083e-20)
(0.0484805 -0.0485958 0)
(0.0664115 -0.0581563 8.05889e-20)
(0.0881084 -0.0685496 4.00333e-20)
(0.11396 -0.079829 0)
(0.144124 -0.0917657 0)
(0.179032 -0.104347 0)
(0.218836 -0.117321 0)
(0.263689 -0.13068 3.86997e-20)
(0.313875 -0.144226 0)
(0.369327 -0.15771 -7.63524e-20)
(0.43027 -0.171014 0)
(0.496751 -0.184018 0)
(0.568504 -0.196458 7.48463e-20)
(0.645495 -0.208284 0)
(0.727435 -0.219271 -7.38576e-20)
(0.814161 -0.22935 3.66863e-20)
(0.905447 -0.238364 -3.64401e-20)
(1.0007 -0.246232 3.6194e-20)
(1.09953 -0.25291 3.59477e-20)
(1.20156 -0.258349 0)
(1.3063 -0.262503 0)
(1.41327 -0.265361 -3.5205e-20)
(1.522 -0.267018 3.49581e-20)
(1.63199 -0.267438 0)
(1.74273 -0.266746 0)
(1.8538 -0.264973 -3.41976e-20)
(1.9648 -0.262213 0)
(2.07526 -0.258554 0)
(2.18486 -0.254091 3.34247e-20)
(2.29324 -0.248918 0)
(2.4001 -0.243133 -3.2906e-20)
(2.50517 -0.23683 6.52738e-20)
(2.60822 -0.230099 0)
(2.70904 -0.223026 0)
(2.80746 -0.21569 1.27356e-19)
(2.90334 -0.208165 1.2628e-19)
(2.99657 -0.200518 1.25201e-19)
(3.08705 -0.192807 -6.20635e-20)
(3.17474 -0.185087 6.15155e-20)
(3.25958 -0.177403 1.82927e-19)
(3.34155 -0.169795 -1.20869e-19)
(3.42064 -0.1623 -5.98897e-20)
(3.49687 -0.154944 0)
(3.57026 -0.147752 5.8807e-20)
(3.64083 -0.140745 -5.82704e-20)
(3.70864 -0.133936 0)
(3.77372 -0.127339 0)
(3.83614 -0.120962 0)
(3.89596 -0.11481 5.61194e-20)
(3.95324 -0.108889 0)
(4.00806 -0.103198 -1.10114e-19)
(4.06048 -0.0977381 0)
(4.11057 -0.0925076 -1.08006e-19)
(4.15842 -0.0875034 0)
(4.20409 -0.0827217 1.05916e-19)
(4.24767 -0.0781576 0)
(4.28922 -0.0738058 -1.03848e-19)
(4.32882 -0.0696604 5.14118e-20)
(4.36654 -0.065715 0)
(4.40246 -0.0619631 1.00789e-19)
(4.43664 -0.0583978 4.98902e-20)
(4.46916 -0.0550123 4.93893e-20)
(4.50008 -0.0517997 0)
(4.52946 -0.0487529 4.83971e-20)
(4.55738 -0.0458652 4.7905e-20)
(4.5839 -0.0431297 0)
(4.60906 -0.0405398 -4.69312e-20)
(4.63294 -0.0380889 9.28982e-20)
(4.65559 -0.0357707 0)
(4.67706 -0.0335791 4.54942e-20)
(4.69741 -0.031508 0)
(4.71668 -0.0295517 -1.33656e-19)
(4.73493 -0.0277046 0)
(4.7522 -0.0259613 1.30868e-19)
(4.76854 -0.0243166 4.31628e-20)
(4.784 -0.0227656 -4.27061e-20)
(4.7986 -0.0213036 -8.45049e-20)
(4.8124 -0.0199259 8.36039e-20)
(4.82544 -0.0186282 0)
(4.83775 -0.0174062 0)
(4.84936 -0.0162562 0)
(4.86031 -0.0151741 -2.40187e-19)
(4.87063 -0.0141562 -7.91922e-20)
(4.88036 -0.0131991 7.83284e-20)
(4.88953 -0.0122991 0)
(4.89815 -0.0114529 7.66187e-20)
(4.90628 -0.0106571 -7.5773e-20)
(4.91392 -0.00990896 -7.49331e-20)
(4.92112 -0.00920548 0)
(4.92789 -0.00854396 0)
(4.93427 -0.00792214 0)
(4.94028 -0.00733817 -7.16323e-20)
(4.94594 -0.0067896 0)
(4.95127 -0.00627396 1.40033e-19)
(4.9563 -0.00578996 2.07651e-19)
(4.96105 -0.0053364 -1.36846e-19)
(4.96552 -0.00491073 0)
(4.96976 -0.00451226 -6.68521e-20)
(4.97376 -0.00414176 0)
(4.97754 -0.00379875 -1.30606e-19)
(4.98111 -0.00348335 6.45365e-20)
(4.98446 -0.00319474 6.37754e-20)
(4.98761 -0.00293021 0)
(4.99056 -0.00268691 1.86807e-19)
(4.99331 -0.00246217 -1.23047e-19)
(4.99588 -0.00225397 -6.07835e-20)
(4.99828 -0.00206069 0)
(5.00051 -0.00188118 -5.93185e-20)
(5.00259 -0.00171445 -1.7578e-19)
(5.00452 -0.00155972 0)
(5.00632 -0.00141625 -1.14317e-19)
(5.00799 -0.00128332 -1.12897e-19)
(5.00954 -0.00116023 -1.11486e-19)
(5.01098 -0.00104627 0)
(5.01231 -0.000940773 0)
(5.01355 -0.000843193 0)
(5.01469 -0.00075296 5.29695e-20)
(5.01575 -0.000669673 5.22879e-20)
(5.01673 -0.000592781 0)
(5.01764 -0.000521905 1.01877e-19)
(5.01848 -0.000456514 1.00541e-19)
(5.01925 -0.000396291 0)
(5.01996 -0.000340769 9.78953e-20)
(5.02062 -0.000289692 1.93172e-19)
(5.02123 -0.000242635 -9.52851e-20)
(5.02179 -0.000199381 -9.39928e-20)
(5.0223 -0.000159537 0)
(5.02278 -0.000122911 0)
(5.02321 -8.91576e-05 0)
(5.02361 -5.81029e-05 -8.89086e-20)
(5.02398 -2.95033e-05 8.7658e-20)
(5.02432 -3.17167e-06 1.72832e-19)
(5.02462 2.1088e-05 -8.51816e-20)
(5.02491 4.35329e-05 8.39551e-20)
(5.02516 6.43663e-05 8.27367e-20)
(5.0254 8.38437e-05 0)
(5.02561 0.000102127 0)
(5.0258 0.000119446 -7.91276e-20)
(5.02598 0.000135976 0)
(5.02613 0.000151979 0)
(5.02627 0.000167686 1.51173e-19)
(5.02639 0.000183412 0)
(5.02649 0.000199457 7.32624e-20)
(5.02657 0.000216229 -7.21113e-20)
(5.02663 0.000234163 0)
(5.02668 0.000253834 6.98299e-20)
(5.0267 0.000275897 0)
(5.02669 0.000301208 0)
(5.02665 0.000330789 -6.64602e-20)
(5.02658 0.000365967 1.30701e-19)
(5.02646 0.000408376 -6.42475e-20)
(5.0263 0.000460134 0)
(5.02606 0.000523918 0)
(5.02575 0.000603192 6.0978e-20)
(5.02533 0.000702435 0)
(5.02479 0.000827429 5.88313e-20)
(5.02408 0.000985969 0)
(5.02316 0.00118767 0)
(5.02198 0.00144767 0)
(5.02041 0.0017792 5.46177e-20)
(5.01845 0.00222272 0)
(5.01574 0.00276956 -5.25522e-20)
(5.0125 0.0035884 0)
(5.00764 0.00445222 0)
(5.00226 0.00619718 9.90229e-20)
(4.99312 0.00735174 -9.7034e-20)
(4.98379 0.0118484 0)
(4.96569 0.0126536 0)
(4.94757 0.026963 0)
(4.91118 0.026576 2.68185e-19)
(4.8735 0.0868423 0)
(4.8272 0.106068 -1.71641e-19)
(-0.0092626 0.0437494 6.01461e-23)
(-0.0117385 -0.0188598 -1.70412e-19)
(-0.00900902 -0.0211803 0)
(-0.00844984 -0.0235843 1.68019e-19)
(-0.00592802 -0.0303463 0)
(-0.00199854 -0.0396118 0)
(0.0042663 -0.0507906 -5.44791e-23)
(0.0131139 -0.0638172 -8.17221e-20)
(0.0250437 -0.078585 -8.11076e-20)
(0.0405484 -0.0949977 -8.06024e-20)
(0.0599082 -0.112878 0)
(0.0836136 -0.132177 0)
(0.112032 -0.152676 7.89259e-20)
(0.145371 -0.174131 1.56792e-19)
(0.183989 -0.196411 -1.55744e-19)
(0.228051 -0.219227 0)
(0.27796 -0.242283 -1.53682e-19)
(0.333696 -0.265345 7.63637e-20)
(0.39523 -0.288041 0)
(0.462678 -0.310224 -1.50661e-19)
(0.535859 -0.331513 -7.48565e-20)
(0.614636 -0.351656 1.48685e-19)
(0.698767 -0.370408 7.38671e-20)
(0.787903 -0.387496 0)
(0.881708 -0.402769 -1.4575e-19)
(0.97967 -0.416099 -1.44774e-19)
(1.08128 -0.427312 0)
(1.18614 -0.436377 -1.42816e-19)
(1.29378 -0.443244 0)
(1.40351 -0.447935 -1.40843e-19)
(1.51484 -0.450495 -6.992e-20)
(1.62728 -0.45101 0)
(1.74033 -0.449603 0)
(1.8535 -0.446368 0)
(1.96635 -0.441491 0)
(2.07847 -0.435112 0)
(2.1895 -0.427393 0)
(2.29909 -0.418503 -1.3269e-19)
(2.40696 -0.408606 1.9745e-19)
(2.51283 -0.397865 0)
(2.6165 -0.38643 0)
(2.71778 -0.374447 0)
(2.8165 -0.362047 1.38937e-23)
(2.91255 -0.349353 -1.26286e-19)
(3.00584 -0.336475 -2.50426e-19)
(3.09628 -0.323511 2.48262e-19)
(3.18384 -0.310548 1.23053e-19)
(3.26849 -0.297661 -1.21958e-19)
(3.35022 -0.284916 -8.8212e-24)
(3.42902 -0.272368 -1.19796e-19)
(3.50494 -0.260064 0)
(3.57798 -0.248042 -1.17628e-19)
(3.6482 -0.236332 -6.07366e-24)
(3.71565 -0.224959 0)
(3.78037 -0.213943 0)
(3.84244 -0.203295 1.13317e-19)
(3.90192 -0.193026 0)
(3.95887 -0.18314 0)
(4.01336 -0.17364 -1.10123e-19)
(4.06548 -0.164524 -2.18125e-19)
(4.1153 -0.155789 1.08007e-19)
(4.16288 -0.14743 0)
(4.20831 -0.139441 -1.05918e-19)
(4.25167 -0.131813 0)
(4.29302 -0.124537 -1.03853e-19)
(4.33243 -0.117604 -1.02824e-19)
(4.36999 -0.111002 2.03611e-19)
(4.40577 -0.104721 1.00793e-19)
(4.43982 -0.0987498 0)
(4.47223 -0.093077 -1.97562e-19)
(4.50305 -0.0876911 0)
(4.53236 -0.0825807 -2.90385e-19)
(4.56021 -0.0777345 -1.91624e-19)
(4.58667 -0.0731413 -1.89669e-19)
(4.61179 -0.0687903 1.87728e-19)
(4.63563 -0.0646708 -2.78697e-19)
(4.65826 -0.0607722 0)
(4.67971 -0.0570845 0)
(4.70005 -0.0535979 1.80088e-19)
(4.71933 -0.0503029 2.67315e-19)
(4.73758 -0.0471902 0)
(4.75486 -0.0442511 -8.72457e-20)
(4.77122 -0.041477 0)
(4.7867 -0.0388598 2.56237e-19)
(4.80133 -0.0363916 -4.70738e-25)
(4.81516 -0.0340649 4.24197e-25)
(4.82822 -0.0318726 -1.65419e-19)
(4.84056 -0.0298075 0)
(4.8522 -0.0278633 1.61877e-19)
(4.86319 -0.0260336 -2.76823e-25)
(4.87355 -0.0243124 0)
(4.88332 -0.0226939 0)
(4.89252 -0.0211729 0)
(4.90118 -0.0197446 -1.53237e-19)
(4.90934 -0.0184043 0)
(4.91701 -0.0171473 0)
(4.92423 -0.0159687 0)
(4.93102 -0.0148641 0)
(4.93739 -0.0138295 0)
(4.94338 -0.0128606 -1.43265e-19)
(4.949 -0.0119539 0)
(4.95428 -0.0111063 -1.40033e-19)
(4.95923 -0.0103141 -1.38434e-19)
(4.96387 -0.00957345 1.36847e-19)
(4.96821 -0.00888173 0)
(4.97229 -0.00823621 1.33705e-19)
(4.97611 -0.00763344 0)
(4.97968 -0.00707062 1.30606e-19)
(4.98303 -0.00654521 -1.29073e-19)
(4.98615 -0.00605379 -3.82654e-19)
(4.98907 -0.00559378 0)
(4.9918 -0.00516328 -3.73615e-19)
(4.99434 -0.00476079 -1.23048e-19)
(4.99671 -0.00438502 0)
(4.99892 -0.00403474 -2.40194e-19)
(5.00098 -0.00370871 -2.37274e-19)
(5.00289 -0.00340562 3.51562e-19)
(5.00468 -0.00312418 0)
(5.00634 -0.00286309 1.14317e-19)
(5.00788 -0.00262108 1.12897e-19)
(5.00931 -0.00239685 3.34459e-19)
(5.01064 -0.00218918 0)
(5.01188 -0.00199691 0)
(5.01303 -0.00181902 0)
(5.01409 -0.00165459 1.05939e-19)
(5.01508 -0.00150275 0)
(5.01599 -0.00136264 0)
(5.01684 -0.00123342 -1.01877e-19)
(5.01762 -0.0011143 -1.00541e-19)
(5.01835 -0.00100454 0)
(5.01902 -0.000903452 0)
(5.01964 -0.000810426 -1.93172e-19)
(5.02021 -0.000724827 0)
(5.02074 -0.000646124 1.87986e-19)
(5.02123 -0.000573745 1.85419e-19)
(5.02169 -0.000507214 0)
(5.0221 -0.000446033 0)
(5.02249 -0.000389808 -1.77817e-19)
(5.02284 -0.000338142 -5.61865e-26)
(5.02317 -0.000290674 -5.75559e-26)
(5.02347 -0.000247012 0)
(5.02375 -0.000206728 -3.35822e-19)
(5.024 -0.000169431 0)
(5.02424 -0.000134725 0)
(5.02445 -0.000102289 0)
(5.02465 -7.1765e-05 1.58256e-19)
(5.02483 -4.28168e-05 0)
(5.02499 -1.50315e-05 -3.07039e-19)
(5.02513 1.20031e-05 -1.51173e-19)
(5.02526 3.87827e-05 0)
(5.02537 6.58286e-05 -1.46525e-19)
(5.02547 9.37817e-05 0)
(5.02554 0.000123362 0)
(5.0256 0.000155473 -4.18981e-19)
(5.02563 0.000191181 2.748e-19)
(5.02564 0.000231831 0)
(5.02562 0.000279059 2.65841e-19)
(5.02556 0.000334951 -1.30701e-19)
(5.02546 0.00040211 0)
(5.0253 0.000483848 0)
(5.02508 0.000584437 0)
(5.02478 0.000709195 -3.65869e-19)
(5.02437 0.000865449 0)
(5.02383 0.00106158 -1.17663e-19)
(5.02313 0.00131134 0)
(5.0222 0.00162638 0)
(5.02101 0.00203712 0)
(5.01943 0.00255123 0)
(5.01743 0.00325292 0)
(5.01471 0.00409939 0)
(5.01134 0.00537175 -2.06113e-19)
(5.00658 0.00676358 0)
(5.00078 0.009288 -9.90233e-20)
(4.99217 0.0115764 2.91088e-19)
(4.98183 0.0172317 0)
(4.96564 0.0213718 0)
(4.94633 0.0364437 -1.82415e-19)
(4.91646 0.0477418 -1.78764e-19)
(4.88275 0.096759 1.74999e-19)
(4.8418 0.139167 1.71647e-19)
(-0.0109493 0.0703271 2.57116e-19)
(-0.018036 -0.0160531 2.55401e-19)
(-0.0201245 -0.0188485 1.6901e-19)
(-0.0245008 -0.0225622 8.38283e-20)
(-0.0267925 -0.0324733 0)
(-0.0274948 -0.0458877 -1.65491e-19)
(-0.0256245 -0.0620912 8.20938e-20)
(-0.020971 -0.0809814 0)
(-0.0129119 -0.102404 8.1122e-20)
(-0.000963154 -0.126192 0)
(0.0152088 -0.152259 -1.59896e-19)
(0.0360941 -0.180301 0)
(0.0622183 -0.210152 -7.89397e-20)
(0.0938616 -0.241487 -1.56819e-19)
(0.131278 -0.274005 1.55771e-19)
(0.174926 -0.307286 0)
(0.224965 -0.340903 1.53707e-19)
(0.281451 -0.374542 0)
(0.344446 -0.407729 0)
(0.413955 -0.440039 1.50684e-19)
(0.489864 -0.47098 0)
(0.57186 -0.500199 -5.69874e-23)
(0.659662 -0.527288 0)
(0.752909 -0.551932 0)
(0.851104 -0.573836 2.98295e-23)
(0.953677 -0.592798 1.44792e-19)
(1.06008 -0.608648 1.438e-19)
(1.16971 -0.621301 1.42832e-19)
(1.28198 -0.63072 0)
(1.39624 -0.636987 2.8172e-19)
(1.51193 -0.640145 0)
(1.62842 -0.640348 1.38875e-19)
(1.74521 -0.637778 0)
(1.86177 -0.632635 0)
(1.97766 -0.625147 -1.35835e-19)
(2.09245 -0.615553 0)
(2.20577 -0.604099 1.33767e-19)
(2.3173 -0.591032 -2.26767e-23)
(2.42676 -0.576591 -2.63317e-19)
(2.5339 -0.561008 2.61222e-19)
(2.63854 -0.544502 0)
(2.74051 -0.527275 0)
(2.83968 -0.509515 1.27421e-19)
(2.93596 -0.491392 0)
(3.02928 -0.473056 1.25225e-19)
(3.11959 -0.454644 -1.24142e-19)
(3.20688 -0.436272 -1.23058e-19)
(3.29113 -0.418044 0)
(3.37235 -0.400046 1.20886e-19)
(3.45059 -0.382353 1.198e-19)
(3.52586 -0.365026 -2.37452e-19)
(3.59821 -0.348114 1.17632e-19)
(3.6677 -0.331659 1.1655e-19)
(3.7344 -0.315691 0)
(3.79836 -0.300233 0)
(3.85965 -0.285302 -1.1332e-19)
(3.91835 -0.270909 0)
(3.97453 -0.257058 0)
(4.02827 -0.243751 2.20244e-19)
(4.07965 -0.230986 2.18129e-19)
(4.12874 -0.218757 0)
(4.17562 -0.207056 0)
(4.22037 -0.195872 0)
(4.26306 -0.185194 0)
(4.30378 -0.175008 2.07706e-19)
(4.34259 -0.165301 -2.05659e-19)