/*--------------------------------*- C++ -*----------------------------------*\
  =========                 |
  \\      /  F ield         | OpenFOAM: The Open Source CFD Toolbox
   \\    /   O peration     | Website:  https://openfoam.org
    \\  /    A nd           | Version:  10
     \\/     M anipulation  |
\*---------------------------------------------------------------------------*/
FoamFile
{
    format      ascii;
    class       volSymmTensorField;
    location    "0.005";
    object      UPrime2Mean;
}
// * * * * * * * * * * * * * * * * * * * * * * * * * * * * * * * * * * * * * //

dimensions      [0 2 -2 0 0 0 0];

internalField   nonuniform List<symmTensor> 
12225
(
(0.221318 0.00737672 0 0.00241874 0 0)
(0.02325 -0.000985039 0 0.00176527 0 0)
(0.0563207 -0.00462613 0 0.0013684 0 0)
(0.0668312 -0.00573525 0 0.00120252 0 0)
(0.110423 -0.00763804 0 0.00110882 0 0)
(0.201181 -0.010864 0 0.00114465 0 0)
(0.326725 -0.0141613 0 0.00117904 0 0)
(0.48489 -0.01751 0 0.000961173 0 0)
(0.663518 -0.0225466 0 0.00131 0 0)
(0.894292 -0.0218185 0 0.000875306 0 0)
(1.15083 -0.0388779 0 0.0018924 0 0)
(1.50246 -0.0189457 0 0.00109319 0 0)
(1.9035 -0.0844223 0 0.005325 0 0)
(2.46469 0.0180823 0 0.0047271 0 0)
(3.23093 -0.249507 0 0.0308358 0 0)
(4.42583 0.205214 0 0.0414468 0 0)
(6.7098 -1.16961 0 0.326086 0 0)
(11.9546 0.654862 0 0.176607 0 0)
(0.198716 0.00251733 0 0.00228287 0 0)
(0.015065 -0.000605143 0 0.000761378 0 0)
(0.0273979 -0.0022315 0 0.000525658 0 0)
(0.019735 -0.00177902 0 0.000662644 0 0)
(0.0156657 -0.00197559 0 0.000941578 0 0)
(0.0177179 -0.00342875 0 0.00127657 0 0)
(0.0239425 -0.00516451 0 0.0015994 0 0)
(0.0377424 -0.00814844 0 0.00209533 0 0)
(0.0563408 -0.0106878 0 0.00217637 0 0)
(0.0943548 -0.0173278 0 0.0035391 0 0)
(0.13234 -0.0195989 0 0.00323724 0 0)
(0.22834 -0.0380594 0 0.00710435 0 0)
(0.300287 -0.0360362 0 0.00601775 0 0)
(0.558008 -0.0963034 0 0.0193887 0 0)
(0.697641 -0.0771899 0 0.0154226 0 0)
(1.51305 -0.325808 0 0.0821324 0 0)
(1.90901 -0.383627 0 0.0862657 0 0)
(4.43669 -1.86026 0 0.884568 0 0)
(0.246377 0.00414012 0 0.00213175 0 0)
(0.0226635 0.000990215 0 0.00104737 0 0)
(0.0224382 -0.00105312 0 0.000800217 0 0)
(0.0147154 -0.00079395 0 0.000942456 0 0)
(0.014489 -0.00101525 0 0.00125863 0 0)
(0.017854 -0.00216251 0 0.00168706 0 0)
(0.0231451 -0.0042096 0 0.00233359 0 0)
(0.031071 -0.00694638 0 0.00279599 0 0)
(0.0441589 -0.011207 0 0.00424517 0 0)
(0.0635965 -0.0150732 0 0.00460024 0 0)
(0.0968023 -0.0257653 0 0.00811886 0 0)
(0.142604 -0.0313524 0 0.00816166 0 0)
(0.225649 -0.0623517 0 0.0183634 0 0)
(0.338361 -0.0711166 0 0.0171667 0 0)
(0.565409 -0.178219 0 0.0593472 0 0)
(0.887114 -0.241994 0 0.0692307 0 0)
(1.48022 -0.677593 0 0.340689 0 0)
(2.20871 -1.39363 0 0.983489 0 0)
(0.222541 0.00376746 0 0.0034233 0 0)
(0.0159002 -0.000652262 0 0.0021086 0 0)
(0.0182798 -0.00309457 0 0.00156015 0 0)
(0.00997557 -0.00223298 0 0.00174959 0 0)
(0.00969363 -0.00196906 0 0.00227423 0 0)
(0.0139532 -0.00356152 0 0.00288822 0 0)
(0.0210407 -0.00646445 0 0.00363163 0 0)
(0.0311121 -0.0102864 0 0.00482293 0 0)
(0.0451955 -0.0148289 0 0.0060462 0 0)
(0.0665778 -0.0220451 0 0.00855439 0 0)
(0.0971413 -0.0309624 0 0.0110869 0 0)
(0.145074 -0.0478612 0 0.0170696 0 0)
(0.215455 -0.0698473 0 0.0240482 0 0)
(0.329105 -0.116468 0 0.0424874 0 0)
(0.505472 -0.191488 0 0.0743101 0 0)
(0.77418 -0.349485 0 0.163255 0 0)
(1.15869 -0.678449 0 0.419368 0 0)
(1.53336 -1.17129 0 0.98386 0 0)
(0.219458 0.00617108 0 0.0041761 0 0)
(0.0146253 -0.000604072 0 0.00242387 0 0)
(0.0187931 -0.00280286 0 0.00200886 0 0)
(0.00812137 -0.00227419 0 0.00211997 0 0)
(0.00558968 -0.00236807 0 0.00268903 0 0)
(0.00933482 -0.0041833 0 0.00363237 0 0)
(0.0164159 -0.00742426 0 0.00494555 0 0)
(0.0258454 -0.0116514 0 0.00645202 0 0)
(0.0389301 -0.0174383 0 0.00889765 0 0)
(0.0580371 -0.0249374 0 0.0118097 0 0)
(0.0867247 -0.0372339 0 0.0171271 0 0)
(0.129522 -0.0544585 0 0.02426 0 0)
(0.194259 -0.0851216 0 0.0385577 0 0)
(0.289901 -0.13291 0 0.0622733 0 0)
(0.433571 -0.220932 0 0.115329 0 0)
(0.626366 -0.378115 0 0.234263 0 0)
(0.867073 -0.636549 0 0.489468 0 0)
(1.03936 -1.02 0 1.13304 0 0)
(0.216726 0.00218122 0 0.00441058 0 0)
(0.0149346 -0.0019881 0 0.0029134 0 0)
(0.0235531 -0.00558916 0 0.00256387 0 0)
(0.0145106 -0.00498663 0 0.00314992 0 0)
(0.0128141 -0.00493815 0 0.00410453 0 0)
(0.017522 -0.00694116 0 0.0053626 0 0)
(0.025076 -0.0105663 0 0.00703814 0 0)
(0.0337509 -0.0153183 0 0.00932677 0 0)
(0.0446051 -0.021515 0 0.0125184 0 0)
(0.0602397 -0.0302104 0 0.0171388 0 0)
(0.0845252 -0.0434394 0 0.0242139 0 0)
(0.121302 -0.0638806 0 0.0354924 0 0)
(0.177168 -0.0972363 0 0.0551107 0 0)
(0.25589 -0.150404 0 0.0901005 0 0)
(0.367362 -0.240296 0 0.159637 0 0)
(0.499662 -0.380529 0 0.296626 0 0)
(0.641145 -0.592557 0 0.57712 0 0)
(0.715638 -0.843084 0 1.11338 0 0)
(0.213594 0.00682394 0 0.00344216 0 0)
(0.0151639 -0.000123058 0 0.00285954 0 0)
(0.0276409 -0.00352338 0 0.00293139 0 0)
(0.0183386 -0.00285514 0 0.00339797 0 0)
(0.0139861 -0.00281275 0 0.00430098 0 0)
(0.0150623 -0.00490766 0 0.00579125 0 0)
(0.0195623 -0.00881496 0 0.00796722 0 0)
(0.0265948 -0.014086 0 0.0109048 0 0)
(0.037253 -0.0211963 0 0.015094 0 0)
(0.053401 -0.031331 0 0.021354 0 0)
(0.0776398 -0.0465739 0 0.0309717 0 0)
(0.112335 -0.0697476 0 0.0464943 0 0)
(0.161583 -0.10538 0 0.0720425 0 0)
(0.225843 -0.160221 0 0.117219 0 0)
(0.308135 -0.243334 0 0.197483 0 0)
(0.393649 -0.363398 0 0.348356 0 0)
(0.470344 -0.519696 0 0.611143 0 0)
(0.491745 -0.67353 0 1.05621 0 0)
(0.234634 0.00880858 0 0.00618171 0 0)
(0.00818892 -0.000635688 0 0.00401752 0 0)
(0.0124593 -0.00465424 0 0.00335588 0 0)
(0.00650393 -0.00318741 0 0.00441382 0 0)
(0.00689321 -0.00286995 0 0.00612588 0 0)
(0.0111466 -0.00531006 0 0.00828184 0 0)
(0.0170545 -0.00976766 0 0.0111577 0 0)
(0.023884 -0.0155587 0 0.0151666 0 0)
(0.0327375 -0.0230533 0 0.02093 0 0)
(0.0453662 -0.0334931 0 0.029378 0 0)
(0.0638889 -0.0489252 0 0.0420981 0 0)
(0.0896826 -0.0717536 0 0.0620352 0 0)
(0.124859 -0.105695 0 0.0940527 0 0)
(0.168069 -0.155112 0 0.147775 0 0)
(0.2189 -0.225109 0 0.237462 0 0)
(0.265015 -0.316518 0 0.390208 0 0)
(0.297465 -0.421027 0 0.63122 0 0)
(0.292262 -0.505355 0 1.00141 0 0)
(0.246922 0.00678415 0 0.00389644 0 0)
(0.0289718 0.000479494 0 0.00381146 0 0)
(0.0283799 -0.00322776 0 0.00408479 0 0)
(0.0148934 -0.0020012 0 0.00493159 0 0)
(0.0103704 -0.00118847 0 0.00655442 0 0)
(0.0120281 -0.00270921 0 0.00901949 0 0)
(0.0162526 -0.00635236 0 0.012355 0 0)
(0.0215671 -0.0115676 0 0.016985 0 0)
(0.0285794 -0.0186828 0 0.0236906 0 0)
(0.0385648 -0.0287838 0 0.0337033 0 0)
(0.0529279 -0.0436121 0 0.0488538 0 0)
(0.0721304 -0.0650752 0 0.0723959 0 0)
(0.0967896 -0.0957143 0 0.109086 0 0)
(0.124354 -0.137542 0 0.167765 0 0)
(0.153187 -0.192304 0 0.25992 0 0)
(0.17336 -0.255753 0 0.405183 0 0)
(0.181243 -0.318995 0 0.617372 0 0)
(0.164819 -0.353551 0 0.915951 0 0)
(0.236869 0.0217403 0 0.0066695 0 0)
(0.0134365 0.000495014 0 0.00589175 0 0)
(0.0171208 -0.00521042 0 0.00661995 0 0)
(0.00818355 -0.00359226 0 0.00838013 0 0)
(0.00602996 -0.00306654 0 0.010847 0 0)
(0.00894822 -0.00568338 0 0.0142062 0 0)
(0.0142642 -0.0108466 0 0.0188506 0 0)
(0.0205817 -0.0176249 0 0.0252396 0 0)
(0.0283126 -0.0260735 0 0.0341046 0 0)
(0.0383136 -0.0371444 0 0.046721 0 0)
(0.0514427 -0.0524456 0 0.0649404 0 0)
(0.0676287 -0.0735586 0 0.0920967 0 0)
(0.0867211 -0.102065 0 0.132716 0 0)
(0.105732 -0.138368 0 0.194568 0 0)
(0.122687 -0.181824 0 0.286097 0 0)
(0.130382 -0.226331 0 0.42079 0 0)
(0.127819 -0.263379 0 0.603692 0 0)
(0.110308 -0.271223 0 0.844709 0 0)
(0.2043 0.0112643 0 0.00798743 0 0)
(0.0222777 -0.00246778 0 0.00710329 0 0)
(0.0305584 -0.00870012 0 0.00656796 0 0)
(0.0199703 -0.00765178 0 0.00783609 0 0)
(0.0161045 -0.00725935 0 0.010447 0 0)
(0.018028 -0.0102005 0 0.0139629 0 0)
(0.022801 -0.0155458 0 0.0184973 0 0)
(0.0281603 -0.0220463 0 0.0248762 0 0)
(0.0337263 -0.0298932 0 0.0343083 0 0)
(0.0401898 -0.0400965 0 0.0482254 0 0)
(0.0484069 -0.0538091 0 0.0684579 0 0)
(0.0580391 -0.071691 0 0.0979045 0 0)
(0.0685867 -0.0942278 0 0.140177 0 0)
(0.0772385 -0.120247 0 0.201126 0 0)
(0.0827009 -0.148017 0 0.286374 0 0)
(0.0805758 -0.170864 0 0.404444 0 0)
(0.0723727 -0.182865 0 0.555749 0 0)
(0.057921 -0.167979 0 0.744916 0 0)
(0.237976 0.0177293 0 0.00723988 0 0)
(0.0209739 -0.00327965 0 0.0101991 0 0)
(0.0253557 -0.01015 0 0.0116903 0 0)
(0.0159865 -0.00825097 0 0.0135748 0 0)
(0.0129657 -0.00718542 0 0.0165482 0 0)
(0.0150175 -0.00967108 0 0.0207874 0 0)
(0.0190321 -0.0148892 0 0.0264816 0 0)
(0.0231023 -0.0216042 0 0.034267 0 0)
(0.0272983 -0.029515 0 0.0451096 0 0)
(0.0320929 -0.0390173 0 0.0604126 0 0)
(0.0376258 -0.0508578 0 0.0819807 0 0)
(0.0432073 -0.065254 0 0.112436 0 0)
(0.0483408 -0.0822248 0 0.154757 0 0)
(0.0512423 -0.10023 0 0.213494 0 0)
(0.0518267 -0.117692 0 0.292099 0 0)
(0.0476844 -0.128834 0 0.395874 0 0)
(0.0408375 -0.129881 0 0.522689 0 0)
(0.0321887 -0.108836 0 0.674705 0 0)
(0.211074 0.0161766 0 0.00769048 0 0)
(0.0175866 -0.00295242 0 0.00900501 0 0)
(0.0216617 -0.00867628 0 0.00907172 0 0)
(0.0119656 -0.0062785 0 0.0109847 0 0)
(0.0094117 -0.00461641 0 0.0148776 0 0)
(0.0113277 -0.00614072 0 0.0198381 0 0)
(0.0144081 -0.00997475 0 0.0258855 0 0)
(0.0169526 -0.0147578 0 0.0340155 0 0)
(0.0190292 -0.0201757 0 0.0454088 0 0)
(0.0212746 -0.0266839 0 0.0613526 0 0)
(0.0241071 -0.0349749 0 0.0832693 0 0)
(0.027226 -0.0451728 0 0.11336 0 0)
(0.0301901 -0.0570741 0 0.154068 0 0)
(0.0315071 -0.0688998 0 0.208915 0 0)
(0.0308469 -0.0787427 0 0.279919 0 0)
(0.0270409 -0.0814226 0 0.370084 0 0)
(0.02202 -0.0743053 0 0.476042 0 0)
(0.0179694 -0.0481143 0 0.598213 0 0)
(0.220359 0.0175814 0 0.00752077 0 0)
(0.0235447 -0.00148391 0 0.0101299 0 0)
(0.0295717 -0.00950668 0 0.0132185 0 0)
(0.020845 -0.00711339 0 0.0168256 0 0)
(0.0181142 -0.00475019 0 0.0212498 0 0)
(0.0189325 -0.00557503 0 0.026848 0 0)
(0.0201688 -0.0088361 0 0.0339586 0 0)
(0.0207034 -0.0130084 0 0.0431752 0 0)
(0.0212976 -0.0175543 0 0.0555371 0 0)
(0.0226653 -0.0227756 0 0.0724468 0 0)
(0.0247175 -0.0291928 0 0.0954231 0 0)
(0.0265865 -0.0367025 0 0.126279 0 0)
(0.027452 -0.0447069 0 0.166489 0 0)
(0.0263895 -0.0513568 0 0.217979 0 0)
(0.0235668 -0.0546463 0 0.280863 0 0)
(0.0193513 -0.0504387 0 0.356334 0 0)
(0.0156621 -0.0368192 0 0.440026 0 0)
(0.015571 -0.00751585 0 0.532661 0 0)
(0.217216 0.0182865 0 0.0121376 0 0)
(0.0156222 -0.00273105 0 0.0118532 0 0)
(0.0209792 -0.010264 0 0.0116828 0 0)
(0.012332 -0.00686934 0 0.0148484 0 0)
(0.00903691 -0.00398066 0 0.0194659 0 0)
(0.00820927 -0.00460544 0 0.0247139 0 0)
(0.00796767 -0.00762816 0 0.0313842 0 0)
(0.00780525 -0.0113509 0 0.0407154 0 0)
(0.00802796 -0.0150924 0 0.0536408 0 0)
(0.00870186 -0.018821 0 0.0709807 0 0)
(0.00950833 -0.0225647 0 0.0935791 0 0)
(0.0100157 -0.025719 0 0.122436 0 0)
(0.0100684 -0.0273495 0 0.158152 0 0)
(0.00955155 -0.0256371 0 0.201548 0 0)
(0.00903981 -0.0193186 0 0.251852 0 0)
(0.00938949 -0.00564287 0 0.309265 0 0)
(0.0120347 0.0155092 0 0.369776 0 0)
(0.0201155 0.0479915 0 0.434 0 0)
(0.21999 0.018291 0 0.00971967 0 0)
(0.0119979 -0.0018692 0 0.0111239 0 0)
(0.0167211 -0.00823133 0 0.0129979 0 0)
(0.00865881 -0.00407238 0 0.0172711 0 0)
(0.00598711 -0.000786123 0 0.0228636 0 0)
(0.00566604 -0.00124721 0 0.029565 0 0)
(0.00573383 -0.00409332 0 0.0376966 0 0)
(0.00550856 -0.00731218 0 0.0478119 0 0)
(0.00516804 -0.00981937 0 0.0605315 0 0)
(0.00478237 -0.0112977 0 0.0765587 0 0)
(0.00419225 -0.0116733 0 0.0965911 0 0)
(0.0033684 -0.0104481 0 0.121355 0 0)
(0.00262428 -0.00693441 0 0.151071 0 0)
(0.00247048 0.000148288 0 0.185944 0 0)
(0.00363197 0.0114394 0 0.224793 0 0)
(0.00734138 0.0285164 0 0.267233 0 0)
(0.0142504 0.0506117 0 0.309842 0 0)
(0.0271099 0.0799883 0 0.353152 0 0)
(0.221885 0.018617 0 0.0098962 0 0)
(0.0211711 -0.00227156 0 0.00939941 0 0)
(0.0249899 -0.00977131 0 0.0110788 0 0)
(0.015854 -0.00626747 0 0.0154888 0 0)
(0.0119215 -0.00296158 0 0.0207801 0 0)
(0.0100068 -0.00236398 0 0.0269806 0 0)
(0.00856933 -0.00333361 0 0.0345503 0 0)
(0.00729997 -0.0041366 0 0.0438789 0 0)
(0.00640718 -0.00377665 0 0.05528 0 0)
(0.00595759 -0.00202984 0 0.0690343 0 0)
(0.00592215 0.00106768 0 0.0853891 0 0)
(0.00652563 0.00582803 0 0.104545 0 0)
(0.00819025 0.0127745 0 0.126353 0 0)
(0.0115117 0.0227868 0 0.150646 0 0)
(0.0170103 0.0362418 0 0.176454 0 0)
(0.0257933 0.0539375 0 0.203525 0 0)
(0.0380262 0.075074 0 0.22961 0 0)
(0.0559275 0.100748 0 0.255485 0 0)
(0.243153 0.0173627 0 0.0125415 0 0)
(0.0125995 -0.0011547 0 0.0157374 0 0)
(0.0142815 -0.00879767 0 0.0166763 0 0)
(0.0126675 -0.00301419 0 0.0192568 0 0)
(0.0135362 0.00253451 0 0.023391 0 0)
(0.0128089 0.00471695 0 0.0286896 0 0)
(0.0113644 0.00543684 0 0.0351265 0 0)
(0.0107543 0.00693813 0 0.0428625 0 0)
(0.0117566 0.0101517 0 0.0520785 0 0)
(0.0141015 0.0150653 0 0.0628294 0 0)
(0.0172287 0.0214531 0 0.0750049 0 0)
(0.0212052 0.0294517 0 0.0884215 0 0)
(0.0264721 0.0392038 0 0.102789 0 0)
(0.0338289 0.0511185 0 0.11793 0 0)
(0.0434762 0.064902 0 0.133243 0 0)
(0.0563577 0.0809028 0 0.148609 0 0)
(0.0716775 0.0979081 0 0.162729 0 0)
(0.0914138 0.11683 0 0.175999 0 0)
(0.238991 0.0155079 0 0.0142122 0 0)
(0.018157 -0.000890198 0 0.0140938 0 0)
(0.0220091 -0.0053203 0 0.0118705 0 0)
(0.0128859 -0.00107476 0 0.0130953 0 0)
(0.0115312 0.00280643 0 0.0160307 0 0)
(0.0117466 0.00472995 0 0.0195129 0 0)
(0.0111536 0.00602845 0 0.0235021 0 0)
(0.0105962 0.00817255 0 0.0282549 0 0)
(0.0111368 0.0116566 0 0.03385 0 0)
(0.0129278 0.0162532 0 0.0401843 0 0)
(0.0157965 0.0216686 0 0.0471933 0 0)
(0.0198696 0.0279397 0 0.054936 0 0)
(0.0253404 0.0352053 0 0.0634459 0 0)
(0.0324738 0.043702 0 0.0726271 0 0)
(0.0412024 0.0532476 0 0.0820528 0 0)
(0.0520004 0.0638573 0 0.0914323 0 0)
(0.0644028 0.0747891 0 0.0999647 0 0)
(0.0795691 0.086338 0 0.107519 0 0)
(0.232981 0.0203043 0 0.0105235 0 0)
(0.0169925 -0.00269177 0 0.0153356 0 0)
(0.0133955 -0.00735549 0 0.0171446 0 0)
(0.00770717 -0.00256352 0 0.0190072 0 0)
(0.00778675 0.00315607 0 0.02166 0 0)
(0.00788866 0.00721314 0 0.0250866 0 0)
(0.00801938 0.0098327 0 0.0287949 0 0)
(0.0094656 0.0122466 0 0.0323141 0 0)
(0.0128728 0.0153409 0 0.0357165 0 0)
(0.0178783 0.019323 0 0.0394614 0 0)
(0.0238918 0.0241532 0 0.0438723 0 0)
(0.03087 0.0298793 0 0.0489445 0 0)
(0.0391185 0.0365493 0 0.0544305 0 0)
(0.0490928 0.044201 0 0.0600256 0 0)
(0.0609157 0.0526609 0 0.0652971 0 0)
(0.0750001 0.0618382 0 0.0699992 0 0)
(0.0909151 0.0711923 0 0.0736155 0 0)
(0.10927 0.0807809 0 0.0762525 0 0)
(0.200588 0.013824 0 0.0115797 0 0)
(0.015439 -0.000596775 0 0.00977597 0 0)
(0.0208248 -0.00397327 0 0.00754971 0 0)
(0.0112384 -0.00104619 0 0.00764357 0 0)
(0.00753489 0.00149503 0 0.0088631 0 0)
(0.00620153 0.00265981 0 0.0106999 0 0)
(0.00640407 0.00351103 0 0.0129716 0 0)
(0.00818334 0.00529931 0 0.0153872 0 0)
(0.0115114 0.00830014 0 0.0176059 0 0)
(0.0159589 0.0120636 0 0.0195532 0 0)
(0.0211353 0.0162139 0 0.0214173 0 0)
(0.0272571 0.0207475 0 0.0233981 0 0)
(0.0347894 0.0257604 0 0.0255742 0 0)
(0.044075 0.031271 0 0.0279159 0 0)
(0.0550584 0.0371307 0 0.0302836 0 0)
(0.0678154 0.0432312 0 0.0326039 0 0)
(0.0818618 0.0492748 0 0.0346657 0 0)
(0.0974304 0.0553064 0 0.0365248 0 0)
(0.219719 0.0111602 0 0.0128552 0 0)
(0.0161155 0.000454672 0 0.0114971 0 0)
(0.0158103 -0.000794787 0 0.00884231 0 0)
(0.0105732 0.00217389 0 0.00806162 0 0)
(0.0117118 0.00482091 0 0.00823675 0 0)
(0.0130757 0.00699203 0 0.00892538 0 0)
(0.0148842 0.00928447 0 0.0101033 0 0)
(0.0180605 0.0121739 0 0.0116924 0 0)
(0.0228848 0.015618 0 0.0135093 0 0)
(0.0290071 0.0192241 0 0.0153287 0 0)
(0.035935 0.0226914 0 0.0170037 0 0)
(0.0436064 0.0260565 0 0.0185541 0 0)
(0.0522891 0.0295799 0 0.0201016 0 0)
(0.0623169 0.0335056 0 0.0217297 0 0)
(0.0738162 0.0378447 0 0.023365 0 0)
(0.086946 0.0424907 0 0.0249277 0 0)
(0.101468 0.0471689 0 0.0262408 0 0)
(0.117432 0.0517316 0 0.0272127 0 0)
(0.255544 0.0144512 0 0.0115734 0 0)
(0.0268508 0.00438015 0 0.00786017 0 0)
(0.0161779 0.00156518 0 0.00477801 0 0)
(0.0137576 0.00358573 0 0.00365133 0 0)
(0.0192675 0.00608686 0 0.00378236 0 0)
(0.0233461 0.00782149 0 0.00434775 0 0)
(0.0262167 0.00906152 0 0.00508796 0 0)
(0.0299693 0.0105505 0 0.00588399 0 0)
(0.0356607 0.0126334 0 0.00670376 0 0)
(0.0427742 0.0152474 0 0.00760907 0 0)
(0.0501224 0.0181923 0 0.00862908 0 0)
(0.0571459 0.0212422 0 0.00970967 0 0)
(0.0641574 0.0241977 0 0.0107378 0 0)
(0.0719449 0.0269929 0 0.0115912 0 0)
(0.0811332 0.0296683 0 0.0122082 0 0)
(0.0922305 0.0323622 0 0.0126591 0 0)
(0.105109 0.0350827 0 0.0129984 0 0)
(0.11967 0.0378891 0 0.0133301 0 0)
(0.220813 0.0126998 0 0.00776039 0 0)
(0.0197007 0.000403898 0 0.00784187 0 0)
(0.0164392 -0.000932775 0 0.00665663 0 0)
(0.011315 0.00215561 0 0.00573316 0 0)
(0.0129397 0.0040918 0 0.00565281 0 0)
(0.0139806 0.00506339 0 0.0060811 0 0)
(0.0147977 0.00583414 0 0.006626 0 0)
(0.0168163 0.00709009 0 0.007151 0 0)
(0.0209633 0.00912678 0 0.00771334 0 0)
(0.0273162 0.0117983 0 0.00835543 0 0)
(0.03536 0.0147315 0 0.00901645 0 0)
(0.0445796 0.0175481 0 0.00957153 0 0)
(0.054702 0.0200087 0 0.00991703 0 0)
(0.0655616 0.0220304 0 0.0100382 0 0)
(0.0770346 0.0236602 0 0.00998417 0 0)
(0.0891929 0.0250686 0 0.00988586 0 0)
(0.102164 0.0263902 0 0.00978854 0 0)
(0.115969 0.0277896 0 0.00974119 0 0)
(0.210273 0.00929348 0 0.00591562 0 0)
(0.0115321 -0.000939675 0 0.00536623 0 0)
(0.0134904 -0.00260053 0 0.00407879 0 0)
(0.0134168 0.00013487 0 0.0039389 0 0)
(0.0170779 0.00281329 0 0.00415061 0 0)
(0.0181235 0.00440918 0 0.00425597 0 0)
(0.0197144 0.00499921 0 0.00422837 0 0)
(0.0242871 0.00542481 0 0.00421498 0 0)
(0.0319778 0.00629758 0 0.00428511 0 0)
(0.0418126 0.00771448 0 0.00439982 0 0)
(0.0528884 0.00956689 0 0.0045141 0 0)
(0.0649385 0.0117115 0 0.00465246 0 0)
(0.0780734 0.0139631 0 0.00486631 0 0)
(0.0923934 0.0161119 0 0.00511959 0 0)
(0.107768 0.0179874 0 0.00528557 0 0)
(0.124006 0.0195229 0 0.00529013 0 0)
(0.140854 0.0206998 0 0.00509941 0 0)
(0.157985 0.0215826 0 0.00478727 0 0)
(0.213345 -0.00159533 0 0.00491863 0 0)
(0.0192963 -0.00223435 0 0.00394913 0 0)
(0.0190304 -0.00208962 0 0.00216923 0 0)
(0.0130931 -0.000730899 0 0.00151418 0 0)
(0.0126098 0.000415322 0 0.00140432 0 0)
(0.0117638 0.00116877 0 0.00147887 0 0)
(0.0121884 0.00149564 0 0.00158614 0 0)
(0.0149593 0.00182817 0 0.00167596 0 0)
(0.0199735 0.00251113 0 0.00175331 0 0)
(0.0266955 0.00355612 0 0.00184262 0 0)
(0.0346548 0.00481769 0 0.00195188 0 0)
(0.0438278 0.00616191 0 0.00206878 0 0)
(0.0544508 0.00750543 0 0.00215203 0 0)
(0.0666884 0.00878204 0 0.00213405 0 0)
(0.0804158 0.00992315 0 0.00198929 0 0)
(0.0953948 0.0108837 0 0.00178298 0 0)
(0.111162 0.011659 0 0.00158801 0 0)
(0.127344 0.0123656 0 0.00147617 0 0)
(0.225454 0.00112316 0 0.00531118 0 0)
(0.00960294 -0.000657202 0 0.00230613 0 0)
(0.00893536 -0.00102853 0 0.00143409 0 0)
(0.00593311 -0.000177271 0 0.00129296 0 0)
(0.00931324 0.000853861 0 0.001222 0 0)
(0.0115058 0.00146963 0 0.00110517 0 0)
(0.0136328 0.0015508 0 0.000925868 0 0)
(0.0174805 0.00138215 0 0.000750213 0 0)
(0.0235886 0.00130536 0 0.000644291 0 0)
(0.0316043 0.00148602 0 0.00059533 0 0)
(0.0409354 0.00191894 0 0.000551027 0 0)
(0.0513157 0.00251199 0 0.000496747 0 0)
(0.0627758 0.00316428 0 0.000459649 0 0)
(0.0753664 0.00379586 0 0.000449101 0 0)
(0.0889396 0.00434674 0 0.000443253 0 0)
(0.103223 0.00477956 0 0.000428484 0 0)
(0.117868 0.00507575 0 0.000401673 0 0)
(0.132522 0.00526004 0 0.000370966 0 0)
(0.210024 -0.000250978 0 0.00396172 0 0)
(0.015859 -0.000614109 0 0.00195708 0 0)
(0.0184118 -0.000247292 0 0.000869222 0 0)
(0.0156454 0.000305422 0 0.000346393 0 0)
(0.0184973 0.000525481 0 0.000241188 0 0)
(0.0200196 0.000607426 0 0.000240407 0 0)
(0.0216658 0.000603214 0 0.000259805 0 0)
(0.0244513 0.000583141 0 0.000287305 0 0)
(0.0282181 0.000596341 0 0.000310218 0 0)
(0.0329852 0.000640561 0 0.000325649 0 0)
(0.0391555 0.000702026 0 0.000336974 0 0)
(0.0471841 0.000763292 0 0.000344664 0 0)
(0.0572758 0.000813933 0 0.000345664 0 0)
(0.0693183 0.000834057 0 0.000337781 0 0)
(0.0829761 0.000818006 0 0.000325844 0 0)
(0.0978021 0.000754693 0 0.000322904 0 0)
(0.113356 0.000677494 0 0.000328394 0 0)
(0.129089 0.000620841 0 0.000325259 0 0)
(0.220095 -0.00215447 0 0.00208353 0 0)
(0.0135694 7.70367e-05 0 0.000757703 0 0)
(0.0120922 0.000257925 0 0.000386593 0 0)
(0.00984099 -0.000524593 0 0.00027173 0 0)
(0.0142011 -0.00106727 0 0.000251597 0 0)
(0.0170691 -0.00126201 0 0.000268877 0 0)
(0.0200848 -0.00133629 0 0.000288104 0 0)
(0.0247753 -0.00149992 0 0.000298099 0 0)
(0.0310921 -0.00180528 0 0.000306443 0 0)
(0.0383153 -0.00222216 0 0.000319229 0 0)
(0.0456753 -0.0026837 0 0.000337385 0 0)
(0.0528637 -0.00313998 0 0.000360908 0 0)
(0.0598498 -0.00356935 0 0.000388665 0 0)
(0.0668099 -0.00397492 0 0.000419692 0 0)
(0.0736181 -0.00432873 0 0.000450538 0 0)
(0.0804808 -0.00463051 0 0.00047921 0 0)
(0.0869316 -0.00485023 0 0.000501246 0 0)
(0.0935093 -0.00503487 0 0.000513185 0 0)
(0.202243 -0.000667438 0 0.00126921 0 0)
(0.0148155 -0.000363292 0 0.000491238 0 0)
(0.0210342 0.000653717 0 0.000339574 0 0)
(0.0109669 0.000744513 0 0.000326548 0 0)
(0.0126852 0.000990926 0 0.000357152 0 0)
(0.0236776 0.00153792 0 0.000392113 0 0)
(0.0387687 0.00211523 0 0.000420316 0 0)
(0.0540693 0.00257422 0 0.000435744 0 0)
(0.0692053 0.00291065 0 0.00043459 0 0)
(0.0854655 0.00319027 0 0.000419254 0 0)
(0.103853 0.00350648 0 0.000403868 0 0)
(0.124561 0.00392619 0 0.000399447 0 0)
(0.147471 0.00444153 0 0.000403075 0 0)
(0.172105 0.00498728 0 0.000408066 0 0)
(0.198496 0.00549447 0 0.000413775 0 0)
(0.225934 0.00591306 0 0.000423188 0 0)
(0.254841 0.00621527 0 0.00042687 0 0)
(0.28359 0.00636935 0 0.000412662 0 0)
(0.00133943 -0.00278497 2.64617e-21 0.00579958 -5.34607e-21 2.20863e-36)
(0.011815 -0.00839723 -7.28597e-21 0.00598417 4.82737e-21 2.17778e-36)
(0.0327865 -0.013864 0 0.00586718 0 0)
(0.0650002 -0.0193923 0 0.00578791 0 0)
(0.107498 -0.0246561 0 0.00565736 0 0)
(0.160526 -0.029676 2.44897e-20 0.00548904 -4.44692e-21 2.05139e-36)
(0.223367 -0.0343289 0 0.00528049 0 0)
(0.295553 -0.0385761 0 0.005042 0 0)
(0.376067 -0.0422953 0 0.00476696 0 0)
(0.464089 -0.0454104 0 0.0044575 0 0)
(0.558323 -0.0478476 -4.28851e-20 0.00411943 3.51367e-21 1.90024e-36)
(0.65729 -0.0495313 0 0.0037567 0 0)
(0.759549 -0.0504039 0 0.00337411 0 0)
(0.863575 -0.0504109 0 0.0029777 0 0)
(0.967328 -0.0496256 0 0.00258536 0 0)
(1.06895 -0.0479094 -5.55765e-20 0.00219066 2.26216e-21 1.75648e-36)
(1.16688 -0.0453972 0 0.00181267 0 0)
(1.25925 -0.0421213 0 0.00145712 0 0)
(1.3441 -0.0381444 0 0.00113119 0 0)
(1.42014 -0.0335997 0 0.000843372 0 0)
(1.48606 -0.0286794 0 0.000600255 0 0)
(1.54067 -0.023386 0 0.000399539 0 0)
(1.58339 -0.017949 0 0.000244744 0 0)
(1.61368 -0.0123319 -6.14563e-20 0.000131662 3.00495e-22 1.54159e-36)
(1.63145 -0.00687788 6.10273e-20 6.22615e-05 -1.06498e-22 1.51603e-36)
(1.63674 -0.00162367 -6.03839e-20 3.02463e-05 -7.11801e-23 1.49076e-36)
(1.63021 0.00334178 -5.9547e-20 3.0902e-05 -2.32409e-22 1.46579e-36)
(1.61236 0.00788297 0 5.82453e-05 0 0)
(1.584 0.0119522 0 0.000105893 0 0)
(1.54613 0.0155028 5.60563e-20 0.000167572 6.11289e-22 1.39259e-36)
(1.50023 0.0185393 5.46335e-20 0.000238089 7.04585e-22 1.36877e-36)
(1.44737 0.0209389 0 0.000309555 0 0)
(1.38871 0.0228273 0 0.000379877 0 0)
(1.32588 0.024205 4.98572e-20 0.000444983 8.90247e-22 1.29904e-36)
(1.25983 0.0250567 0 0.000500454 0 0)
(1.19178 0.0254679 0 0.000545673 0 0)
(1.12276 0.025486 -4.46795e-20 0.000579574 -9.59734e-22 1.2319e-36)
(1.05368 0.0251664 0 0.000601964 0 0)
(0.985368 0.0245646 -4.11934e-20 0.000613253 -9.57521e-22 1.18857e-36)
(0.918492 0.023735 -7.8947e-20 0.000614304 -1.8908e-21 4.66932e-36)
(0.853621 0.0227287 0 0.000606287 0 0)
(0.7912 0.0215924 0 0.000590551 0 0)
(0.731565 0.0203677 0 0.000568517 0 0)
(0.674957 0.0190909 0 0.000541588 0 0)
(0.621529 0.0177926 0 0.000511089 0 0)
(0.57136 0.0164982 -5.98601e-20 0.000478221 -1.56336e-21 4.18319e-36)
(0.524469 0.0152279 -5.702e-20 0.000444037 -1.49331e-21 4.10605e-36)
(0.48082 0.0139977 -5.42901e-20 0.000409432 -1.42206e-21 4.03001e-36)
(0.44034 0.0128195 0 0.000375141 0 0)
(0.402921 0.0117017 4.91656e-20 0.000341747 1.27923e-21 3.88118e-36)
(0.368433 0.0106498 0 0.000309696 0 0)
(0.336731 0.00966692 -4.44872e-20 0.000279309 -1.14016e-21 3.73664e-36)
(0.307655 0.0087541 -4.23119e-20 0.000250802 -1.0732e-21 3.66596e-36)
(0.281044 0.00791097 0 0.000224304 0 0)
(0.256732 0.00713589 0 0.00019987 0 0)
(0.234555 0.00642636 0 0.000177498 0 0)
(0.214354 0.00577924 -3.46446e-20 0.000157144 -8.28726e-22 3.39365e-36)
(0.195973 0.00519096 0 0.000138727 0 0)
(0.179266 0.00465771 0 0.000122149 0 0)
(0.164093 0.00417559 0 0.000107292 0 0)
(0.150322 0.00374066 0 9.40323e-05 0 0)
(0.137831 0.00334909 0 8.22418e-05 0 0)
(0.126504 0.00299714 0 7.17925e-05 0 0)
(0.116238 0.00268129 0 6.256e-05 0 0)
(0.106933 0.00239819 0 5.44253e-05 0 0)
(0.0985017 0.00214472 2.25021e-20 4.72757e-05 4.32692e-22 2.83938e-36)
(0.0908609 0.00191798 0 4.10065e-05 0 0)
(0.0839361 0.00171532 0 3.55206e-05 0 0)
(0.0776591 0.00153427 -1.96799e-20 3.07296e-05 -3.43287e-22 2.67168e-36)
(0.0719682 0.0013726 -1.88463e-20 2.65527e-05 -3.17374e-22 2.61758e-36)
(0.0668068 0.00122829 0 2.29171e-05 0 0)
(0.0621242 0.0010995 1.73223e-20 1.97574e-05 2.70751e-22 2.51204e-36)
(0.0578742 0.000984567 -1.66264e-20 1.7015e-05 -2.49841e-22 2.46057e-36)
(0.0540151 0.000881996 0 1.46379e-05 0 0)
(0.0505092 0.000790447 1.53544e-20 1.25798e-05 2.12344e-22 2.36018e-36)
(0.0473226 0.000708718 0 1.07999e-05 0 0)
(0.0444246 0.000635734 0 9.2623e-06 0 0)
(0.0417876 0.000570533 -1.37117e-20 7.93526e-06 -1.65589e-22 2.21583e-36)
(0.0393868 0.000512258 0 6.79101e-06 0 0)
(0.0371997 0.000460146 1.27697e-20 5.80531e-06 1.39815e-22 2.12362e-36)
(0.0352061 0.000413517 0 4.95691e-06 0 0)
(0.0333878 0.000371768 -1.19334e-20 4.22737e-06 -1.17698e-22 2.03453e-36)
(0.0317286 0.000334359 -1.15509e-20 3.60053e-06 -1.07856e-22 1.99114e-36)
(0.0302136 0.000300817 -1.11901e-20 3.06248e-06 -9.87476e-23 1.94849e-36)
(0.0288296 0.000270715 -2.16997e-20 2.60099e-06 -1.80644e-22 7.62633e-36)
(0.0275647 0.000243681 2.10575e-20 2.20561e-06 1.65062e-22 7.46162e-36)
(0.026408 0.000219379 0 1.86716e-06 0 0)
(0.0253498 0.000197517 0 1.57781e-06 0 0)
(0.0243813 0.000177828 0 1.33063e-06 0 0)
(0.0234946 0.000160091 1.88257e-20 1.11987e-06 1.13667e-22 6.83115e-36)
(0.0226824 0.000144085 1.83416e-20 9.40306e-07 1.03159e-22 6.68043e-36)
(0.0219384 0.000129674 -1.78833e-20 7.87976e-07 -9.34403e-23 6.53239e-36)
(0.0212565 0.000116741 0 6.59528e-07 0 0)
(0.0206316 0.000105263 1.70379e-20 5.52678e-07 7.60315e-23 6.24418e-36)
(0.020058 9.51702e-05 1.66479e-20 4.65013e-07 6.81146e-23 6.10393e-36)
(0.019531 8.63643e-05 1.6278e-20 3.9378e-07 6.06337e-23 5.96622e-36)
(0.0190463 7.85788e-05 0 3.35223e-07 0 0)
(0.0186 7.14257e-05 0 2.85429e-07 0 0)
(0.0181894 6.48284e-05 0 2.42325e-07 0 0)
(0.0178115 5.86314e-05 1.49782e-20 2.04944e-07 3.41426e-23 5.43985e-36)
(0.0174644 5.20535e-05 0 1.70475e-07 0 0)
(0.0171481 4.45459e-05 0 1.36961e-07 0 0)
(0.0168631 3.6659e-05 -1.41675e-20 1.06617e-07 -1.70289e-23 5.0698e-36)
(0.0166082 2.87124e-05 0 7.97293e-08 0 0)
(0.0163834 1.98513e-05 0 5.24187e-08 0 0)
(0.0161904 1.00828e-05 -1.34743e-20 2.70024e-08 -2.36718e-24 4.71986e-36)
(0.0160287 8.12461e-07 0 1.14397e-08 0 0)
(0.0158955 -6.86602e-06 0 7.83435e-09 0 0)
(0.0157869 -1.26122e-05 1.28785e-20 1.20911e-08 -7.34082e-24 4.38914e-36)
(0.0156985 -1.64612e-05 1.26963e-20 1.9035e-08 -8.86921e-24 4.28301e-36)
(0.0156262 -1.86914e-05 0 2.48921e-08 0 0)
(0.0155669 -1.97649e-05 -1.23502e-20 2.82841e-08 1.02552e-23 4.07673e-36)
(0.0155181 -2.01222e-05 0 2.95065e-08 0 0)
(0.0154785 -2.01168e-05 1.20237e-20 2.94461e-08 -1.05726e-23 3.87822e-36)
(0.0154471 -1.99567e-05 0 2.88188e-08 0 0)
(0.0154231 -1.97623e-05 1.17134e-20 2.80556e-08 -1.06253e-23 3.68724e-36)
(0.0154062 -1.9576e-05 1.15636e-20 2.73263e-08 -1.06438e-23 3.59449e-36)
(0.0153959 -1.94172e-05 0 2.66928e-08 0 0)
(0.0153918 -1.92872e-05 0 2.61588e-08 0 0)
(0.0153936 -1.91843e-05 0 2.57153e-08 0 0)
(0.0154008 -1.91039e-05 0 2.53464e-08 0 0)
(0.0154132 -1.904e-05 0 2.50342e-08 0 0)
(0.0154306 -1.89855e-05 0 2.47577e-08 0 0)
(0.0154526 -1.89438e-05 0 2.45211e-08 0 0)
(0.015479 -1.89095e-05 1.04664e-20 2.43109e-08 -1.05214e-23 2.91467e-36)
(0.0155096 -1.88916e-05 -1.03394e-20 2.41453e-08 1.04554e-23 2.83705e-36)
(0.015544 -1.8881e-05 0 2.40033e-08 0 0)
(0.015582 -1.88839e-05 0 2.38968e-08 0 0)
(0.0156236 -1.88914e-05 0 2.38045e-08 0 0)
(0.0156685 -1.89101e-05 0 2.37404e-08 0 0)
(0.0157166 -1.89323e-05 -1.94571e-20 2.36862e-08 2.02499e-23 9.88688e-36)
(0.0157677 -1.89649e-05 0 2.36568e-08 0 0)
(0.0158217 -1.89998e-05 1.89868e-20 2.36334e-08 -1.9966e-23 9.34299e-36)
(0.0158785 -1.90445e-05 -1.87549e-20 2.3633e-08 1.98149e-23 9.07939e-36)
(0.015938 -1.9091e-05 0 2.36368e-08 0 0)
(0.016 -1.91466e-05 0 2.36611e-08 0 0)
(0.0160646 -1.92031e-05 0 2.36872e-08 0 0)
(0.0161315 -1.92673e-05 1.78455e-20 2.373e-08 -1.92804e-23 8.07846e-36)
(0.0162007 -1.93356e-05 1.76222e-20 2.37813e-08 -1.91724e-23 7.84117e-36)
(0.0162722 -1.94124e-05 0 2.38511e-08 0 0)
(0.0163459 -1.94965e-05 1.71799e-20 2.39366e-08 -1.89686e-23 7.38154e-36)
(0.0164217 -1.95843e-05 1.69608e-20 2.40289e-08 -1.8869e-23 7.15904e-36)
(0.0164997 -1.96756e-05 -1.6743e-20 2.41276e-08 1.87608e-23 6.94131e-36)
(0.0165798 -1.97679e-05 0 2.42267e-08 0 0)
(0.016662 -1.98646e-05 0 2.4334e-08 0 0)
(0.0167462 -1.99651e-05 -1.60974e-20 2.44483e-08 1.8376e-23 6.31598e-36)
(0.0168324 -2.00717e-05 0 2.45751e-08 0 0)
(0.0169207 -2.01837e-05 0 2.47129e-08 0 0)
(0.0170109 -2.03031e-05 0 2.48662e-08 0 0)
(0.0171032 -2.04304e-05 0 2.50363e-08 0 0)
(0.0171975 -2.05677e-05 1.50446e-20 2.5228e-08 -1.76058e-23 5.36217e-36)
(0.0172939 -2.07163e-05 1.48371e-20 2.54448e-08 -1.74548e-23 5.18404e-36)
(0.0173924 -2.0878e-05 0 2.56912e-08 0 0)
(0.0174931 -2.10557e-05 1.44251e-20 2.59742e-08 -1.71749e-23 4.83987e-36)