/*--------------------------------*- C++ -*----------------------------------*\
  =========                 |
  \\      /  F ield         | OpenFOAM: The Open Source CFD Toolbox
   \\    /   O peration     | Website:  https://openfoam.org
    \\  /    A nd           | Version:  10
     \\/     M anipulation  |
\*---------------------------------------------------------------------------*/
FoamFile
{
    format      ascii;
    class       volVectorField;
    location    "13500";
    object      Ub;
}
// * * * * * * * * * * * * * * * * * * * * * * * * * * * * * * * * * * * * * //

dimensions      [0 1 -1 0 0 0 0];

internalField   nonuniform List<vector> 
3200
(
(-5.63482e-21 -9.87891e-16 0)
(-1.6868e-20 -9.8789e-16 0)
(-2.80897e-20 -9.8789e-16 0)
(-3.9422e-20 -9.8789e-16 0)
(-5.09898e-20 -9.8789e-16 0)
(-6.29271e-20 -9.87889e-16 0)
(-7.5384e-20 -9.87888e-16 0)
(-8.85361e-20 -9.87888e-16 0)
(-1.02596e-19 -9.87887e-16 0)
(-1.1783e-19 -9.87885e-16 0)
(-1.34582e-19 -9.87884e-16 0)
(-1.53309e-19 -9.87881e-16 0)
(-1.74641e-19 -9.87878e-16 0)
(-1.99464e-19 -9.87874e-16 0)
(-2.29071e-19 -9.87869e-16 0)
(-2.65407e-19 -9.87861e-16 0)
(-3.11498e-19 -9.87849e-16 0)
(-3.72204e-19 -9.87831e-16 0)
(-4.55587e-19 -9.87802e-16 0)
(-5.75416e-19 -9.87755e-16 0)
(-7.55852e-19 -9.87674e-16 0)
(-4.18453e-13 -9.87531e-16 0)
(-2.49835e-05 -3.04702e-10 0)
(-7.76849e-05 -7.05018e-05 0)
(-0.000107543 -1.09689e-05 0)
(-0.000110742 -5.46549e-06 0)
(-0.00011251 -3.39351e-06 0)
(-0.000113748 -2.32418e-06 0)
(-0.000114695 -1.68997e-06 0)
(-0.000115456 -1.28162e-06 0)
(-0.000116085 -1.00312e-06 0)
(-0.000116616 -8.04835e-07 0)
(-0.000117073 -6.58982e-07 0)
(-0.000117469 -5.48423e-07 0)
(-0.000117817 -4.63189e-07 0)
(-0.000112027 -1.67954e-05 0)
(-9.77315e-05 -2.35151e-05 0)
(-7.9812e-05 -2.72588e-05 0)
(-5.78142e-05 -3.57289e-05 0)
(-2.77616e-05 -5.13281e-05 0)
(-5.50018e-21 -9.87874e-16 0)
(-1.64594e-20 -9.87874e-16 0)
(-2.73905e-20 -9.87873e-16 0)
(-3.84004e-20 -9.87873e-16 0)
(-4.9596e-20 -9.87872e-16 0)
(-6.10884e-20 -9.8787e-16 0)
(-7.29971e-20 -9.87868e-16 0)
(-8.54548e-20 -9.87866e-16 0)
(-9.86119e-20 -9.87863e-16 0)
(-1.12642e-19 -9.87859e-16 0)
(-1.27747e-19 -9.87855e-16 0)
(-1.4416e-19 -9.87849e-16 0)
(-1.62143e-19 -9.87841e-16 0)
(-1.81974e-19 -9.87831e-16 0)
(-2.03896e-19 -9.87817e-16 0)
(-2.28e-19 -9.87799e-16 0)
(-2.53954e-19 -9.87773e-16 0)
(-2.80401e-19 -9.87737e-16 0)
(-3.03654e-19 -9.87685e-16 0)
(-3.14928e-19 -9.87608e-16 0)
(-2.94525e-19 -9.87493e-16 0)
(-1.99709e-19 -9.87317e-16 0)
(4.38757e-20 -9.87014e-16 0)
(2.28629e-19 -9.46669e-16 0)
(2.01435e-19 -9.01876e-16 0)
(1.26974e-19 -8.6077e-16 0)
(6.67964e-20 -8.22052e-16 0)
(1.44962e-20 -7.85147e-16 0)
(-3.52113e-20 -7.49728e-16 0)
(-8.69045e-20 -7.1558e-16 0)
(-1.45468e-19 -6.82552e-16 0)
(-2.17203e-19 -6.5053e-16 0)
(-3.11285e-19 -6.19425e-16 0)
(-5.55845e-12 -5.89165e-16 0)
(-1.20006e-05 -1.09187e-09 0)
(-3.76556e-05 -1.64041e-05 0)
(-6.06886e-05 -2.31848e-05 0)
(-8.02031e-05 -2.6978e-05 0)
(-0.000100519 -4.28546e-05 0)
(-5.94379e-05 -0.000250751 0)
(-5.24606e-21 -9.87859e-16 0)
(-1.56892e-20 -9.87858e-16 0)
(-2.60761e-20 -9.87858e-16 0)
(-3.64877e-20 -9.87856e-16 0)
(-4.70012e-20 -9.87855e-16 0)
(-5.76912e-20 -9.87852e-16 0)
(-6.86305e-20 -9.8785e-16 0)
(-7.98894e-20 -9.87846e-16 0)
(-9.15333e-20 -9.87842e-16 0)
(-1.03618e-19 -9.87837e-16 0)
(-1.16179e-19 -9.8783e-16 0)
(-1.29216e-19 -9.87822e-16 0)
(-1.4266e-19 -9.87812e-16 0)
(-1.56326e-19 -9.87799e-16 0)
(-1.69829e-19 -9.87784e-16 0)
(-1.8245e-19 -9.87764e-16 0)
(-1.9295e-19 -9.87739e-16 0)
(-1.99288e-19 -9.87708e-16 0)
(-1.98323e-19 -9.8767e-16 0)
(-1.85608e-19 -9.87626e-16 0)
(-1.55809e-19 -9.87578e-16 0)
(-1.05018e-19 -9.87536e-16 0)
(-3.81546e-20 -9.87523e-16 0)
(1.46908e-20 -9.87584e-16 0)
(3.26029e-20 -9.87645e-16 0)
(2.73504e-20 -9.87686e-16 0)
(1.1687e-20 -9.8771e-16 0)
(-8.269e-21 -9.87723e-16 0)
(-2.93233e-20 -9.87727e-16 0)
(-4.91923e-20 -9.87721e-16 0)
(-6.51706e-20 -9.87704e-16 0)
(-7.27929e-20 -9.87676e-16 0)
(-6.39189e-20 -9.87631e-16 0)
(-2.35298e-20 -9.87564e-16 0)
(5.78202e-20 -9.87437e-16 0)
(8.93416e-20 -9.7331e-16 0)
(4.12324e-20 -9.55145e-16 0)
(-2.53972e-09 -1.09273e-15 0)
(-3.83414e-06 -7.83768e-06 0)
(-2.15438e-06 -0.000416011 0)
(-4.89885e-21 -9.87844e-16 0)
(-1.46389e-20 -9.87844e-16 0)
(-2.42908e-20 -9.87843e-16 0)
(-3.39054e-20 -9.87841e-16 0)
(-4.3527e-20 -9.87839e-16 0)
(-5.31923e-20 -9.87836e-16 0)
(-6.2928e-20 -9.87833e-16 0)
(-7.27479e-20 -9.87829e-16 0)
(-8.26473e-20 -9.87824e-16 0)
(-9.25944e-20 -9.87818e-16 0)
(-1.02518e-19 -9.8781e-16 0)
(-1.12291e-19 -9.87802e-16 0)
(-1.21705e-19 -9.87792e-16 0)
(-1.30437e-19 -9.87779e-16 0)
(-1.38014e-19 -9.87765e-16 0)
(-1.43768e-19 -9.87748e-16 0)
(-1.46805e-19 -9.87729e-16 0)
(-1.46008e-19 -9.87707e-16 0)
(-1.40131e-19 -9.87684e-16 0)
(-1.28066e-19 -9.87662e-16 0)
(-1.09378e-19 -9.87642e-16 0)
(-8.51884e-20 -9.87628e-16 0)
(-5.91628e-20 -9.87627e-16 0)
(-3.74086e-20 -9.8764e-16 0)
(-2.41118e-20 -9.87657e-16 0)
(-1.88817e-20 -9.87674e-16 0)
(-1.93793e-20 -9.87686e-16 0)
(-2.31818e-20 -9.87693e-16 0)
(-2.81829e-20 -9.87696e-16 0)
(-3.25399e-20 -9.87694e-16 0)
(-3.45497e-20 -9.87687e-16 0)
(-3.26318e-20 -9.87678e-16 0)
(-2.55918e-20 -9.87668e-16 0)
(-1.34619e-20 -9.87662e-16 0)
(4.97193e-22 -9.87666e-16 0)
(8.03856e-21 -9.87688e-16 0)
(6.68004e-21 -9.87703e-16 0)
(2.69348e-21 -9.90903e-16 0)
(-3.65037e-07 -8.4132e-07 0)
(7.90601e-08 -0.000435386 0)
(-4.49026e-21 -9.87831e-16 0)
(-1.34058e-20 -9.8783e-16 0)
(-2.22046e-20 -9.87829e-16 0)
(-3.09093e-20 -9.87827e-16 0)
(-3.95352e-20 -9.87825e-16 0)
(-4.80876e-20 -9.87822e-16 0)
(-5.6559e-20 -9.87818e-16 0)
(-6.49255e-20 -9.87814e-16 0)
(-7.31415e-20 -9.87809e-16 0)
(-8.1133e-20 -9.87803e-16 0)
(-8.87902e-20 -9.87795e-16 0)
(-9.59571e-20 -9.87787e-16 0)
(-1.02422e-19 -9.87778e-16 0)
(-1.07909e-19 -9.87767e-16 0)
(-1.12073e-19 -9.87755e-16 0)
(-1.14503e-19 -9.87742e-16 0)
(-1.14752e-19 -9.87728e-16 0)
(-1.12388e-19 -9.87714e-16 0)
(-1.07088e-19 -9.877e-16 0)
(-9.87877e-20 -9.87687e-16 0)
(-8.78481e-20 -9.87677e-16 0)
(-7.5203e-20 -9.8767e-16 0)
(-6.23421e-20 -9.87668e-16 0)
(-5.09596e-20 -9.8767e-16 0)
(-4.22273e-20 -9.87675e-16 0)
(-3.63839e-20 -9.8768e-16 0)
(-3.29772e-20 -9.87685e-16 0)
(-3.12326e-20 -9.87689e-16 0)
(-3.02964e-20 -9.8769e-16 0)
(-2.93716e-20 -9.87691e-16 0)
(-2.78069e-20 -9.87689e-16 0)
(-2.51854e-20 -9.87688e-16 0)
(-2.14363e-20 -9.87686e-16 0)
(-1.69562e-20 -9.87686e-16 0)
(-1.26466e-20 -9.87689e-16 0)
(-9.6188e-21 -9.87693e-16 0)
(-8.33386e-21 -9.87697e-16 0)
(-6.63364e-12 -9.92623e-16 0)
(-2.68284e-07 -7.64978e-07 0)
(9.42198e-08 -0.000440071 0)
(-4.05133e-21 -9.87818e-16 0)
(-1.20845e-20 -9.87818e-16 0)
(-1.99802e-20 -9.87816e-16 0)
(-2.77387e-20 -9.87815e-16 0)
(-3.53532e-20 -9.87812e-16 0)
(-4.28081e-20 -9.87809e-16 0)
(-5.00755e-20 -9.87806e-16 0)
(-5.71131e-20 -9.87801e-16 0)
(-6.38606e-20 -9.87796e-16 0)
(-7.02363e-20 -9.87791e-16 0)
(-7.61341e-20 -9.87784e-16 0)
(-8.14207e-20 -9.87777e-16 0)
(-8.59355e-20 -9.87769e-16 0)
(-8.94928e-20 -9.8776e-16 0)
(-9.18901e-20 -9.87751e-16 0)
(-9.29235e-20 -9.87741e-16 0)
(-9.24132e-20 -9.87731e-16 0)
(-9.02401e-20 -9.87721e-16 0)
(-8.63911e-20 -9.87711e-16 0)
(-8.1005e-20 -9.87703e-16 0)
(-7.44056e-20 -9.87696e-16 0)
(-6.70963e-20 -9.87692e-16 0)
(-5.96954e-20 -9.87689e-16 0)
(-5.28026e-20 -9.87688e-16 0)
(-4.68413e-20 -9.87689e-16 0)
(-4.19717e-20 -9.8769e-16 0)
(-3.81179e-20 -9.87692e-16 0)
(-3.50508e-20 -9.87693e-16 0)
(-3.24757e-20 -9.87694e-16 0)
(-3.01042e-20 -9.87695e-16 0)
(-2.77096e-20 -9.87695e-16 0)
(-2.51668e-20 -9.87695e-16 0)
(-2.24756e-20 -9.87695e-16 0)
(-1.9759e-20 -9.87696e-16 0)
(-1.7224e-20 -9.87697e-16 0)
(-1.50755e-20 -9.87699e-16 0)
(-1.34512e-20 -9.877e-16 0)
(-9.78506e-12 -9.93739e-16 0)
(-2.62496e-07 -8.2924e-07 0)
(1.09045e-07 -0.000444219 0)
(-3.60839e-21 -9.87807e-16 0)
(-1.07543e-20 -9.87807e-16 0)
(-1.77518e-20 -9.87805e-16 0)
(-2.45851e-20 -9.87804e-16 0)
(-3.12338e-20 -9.87801e-16 0)
(-3.76703e-20 -9.87798e-16 0)
(-4.38583e-20 -9.87795e-16 0)
(-4.9751e-20 -9.87791e-16 0)
(-5.52896e-20 -9.87786e-16 0)
(-6.04025e-20 -9.87781e-16 0)
(-6.50051e-20 -9.87776e-16 0)
(-6.9001e-20 -9.87769e-16 0)
(-7.22851e-20 -9.87763e-16 0)
(-7.4749e-20 -9.87755e-16 0)
(-7.62896e-20 -9.87748e-16 0)
(-7.68212e-20 -9.8774e-16 0)
(-7.62906e-20 -9.87733e-16 0)
(-7.46937e-20 -9.87726e-16 0)
(-7.2091e-20 -9.87719e-16 0)
(-6.86174e-20 -9.87713e-16 0)
(-6.44805e-20 -9.87708e-16 0)
(-5.99431e-20 -9.87705e-16 0)
(-5.5288e-20 -9.87702e-16 0)
(-5.07714e-20 -9.877e-16 0)
(-4.65797e-20 -9.87699e-16 0)
(-4.2807e-20 -9.87699e-16 0)
(-3.94593e-20 -9.87699e-16 0)
(-3.64773e-20 -9.877e-16 0)
(-3.37673e-20 -9.877e-16 0)
(-3.12292e-20 -9.877e-16 0)
(-2.87799e-20 -9.87701e-16 0)
(-2.63684e-20 -9.87701e-16 0)
(-2.39816e-20 -9.87702e-16 0)
(-2.16392e-20 -9.87703e-16 0)
(-1.93801e-20 -9.87703e-16 0)
(-1.72423e-20 -9.87704e-16 0)
(-1.52916e-20 -9.87705e-16 0)
(-1.16385e-11 -9.94573e-16 0)
(-2.62643e-07 -9.09946e-07 0)
(1.23038e-07 -0.000448403 0)
(-3.18103e-21 -9.87797e-16 0)
(-9.47383e-21 -9.87797e-16 0)
(-1.56161e-20 -9.87796e-16 0)
(-2.15826e-20 -9.87794e-16 0)
(-2.73457e-20 -9.87792e-16 0)
(-3.28732e-20 -9.87789e-16 0)
(-3.81278e-20 -9.87786e-16 0)
(-4.30662e-20 -9.87782e-16 0)
(-4.76385e-20 -9.87778e-16 0)
(-5.1789e-20 -9.87774e-16 0)
(-5.54574e-20 -9.87769e-16 0)
(-5.85805e-20 -9.87764e-16 0)
(-6.10962e-20 -9.87758e-16 0)
(-6.29479e-20 -9.87752e-16 0)
(-6.40904e-20 -9.87746e-16 0)
(-6.44968e-20 -9.8774e-16 0)
(-6.41655e-20 -9.87735e-16 0)
(-6.31262e-20 -9.87729e-16 0)
(-6.14436e-20 -9.87724e-16 0)
(-5.92168e-20 -9.8772e-16 0)
(-5.65732e-20 -9.87716e-16 0)
(-5.36566e-20 -9.87713e-16 0)
(-5.06113e-20 -9.8771e-16 0)
(-4.75644e-20 -9.87708e-16 0)
(-4.46113e-20 -9.87707e-16 0)
(-4.18091e-20 -9.87706e-16 0)
(-3.91768e-20 -9.87706e-16 0)
(-3.67032e-20 -9.87706e-16 0)
(-3.43569e-20 -9.87706e-16 0)
(-3.20973e-20 -9.87706e-16 0)
(-2.98841e-20 -9.87707e-16 0)
(-2.7683e-20 -9.87707e-16 0)
(-2.547e-20 -9.87708e-16 0)
(-2.32307e-20 -9.87708e-16 0)
(-2.09598e-20 -9.87709e-16 0)
(-1.86583e-20 -9.8771e-16 0)
(-1.6388e-20 -9.8771e-16 0)
(-1.33923e-11 -9.95396e-16 0)
(-2.63559e-07 -9.99247e-07 0)
(1.37261e-07 -0.000452661 0)
(-2.78196e-21 -9.87789e-16 0)
(-8.28046e-21 -9.87788e-16 0)
(-1.36334e-20 -9.87787e-16 0)
(-1.88111e-20 -9.87786e-16 0)
(-2.37834e-20 -9.87784e-16 0)
(-2.85182e-20 -9.87781e-16 0)
(-3.29814e-20 -9.87779e-16 0)
(-3.7136e-20 -9.87775e-16 0)
(-4.09432e-20 -9.87772e-16 0)
(-4.43628e-20 -9.87768e-16 0)
(-4.73546e-20 -9.87764e-16 0)
(-4.98805e-20 -9.87759e-16 0)
(-5.19071e-20 -9.87755e-16 0)
(-5.34086e-20 -9.8775e-16 0)
(-5.43706e-20 -9.87745e-16 0)
(-5.47928e-20 -9.8774e-16 0)
(-5.46921e-20 -9.87736e-16 0)
(-5.41041e-20 -9.87731e-16 0)
(-5.30825e-20 -9.87727e-16 0)
(-5.16972e-20 -9.87724e-16 0)
(-5.00292e-20 -9.8772e-16 0)
(-4.81641e-20 -9.87718e-16 0)
(-4.61846e-20 -9.87716e-16 0)
(-4.41624e-20 -9.87714e-16 0)
(-4.21533e-20 -9.87712e-16 0)
(-4.01937e-20 -9.87712e-16 0)
(-3.83e-20 -9.87711e-16 0)
(-3.64707e-20 -9.87711e-16 0)
(-3.46897e-20 -9.87711e-16 0)
(-3.29293e-20 -9.87711e-16 0)
(-3.11534e-20 -9.87712e-16 0)
(-2.93207e-20 -9.87712e-16 0)
(-2.73864e-20 -9.87713e-16 0)
(-2.53057e-20 -9.87714e-16 0)
(-2.30373e-20 -9.87715e-16 0)
(-2.05505e-20 -9.87716e-16 0)
(-1.7902e-20 -9.87717e-16 0)
(-1.56906e-11 -9.96472e-16 0)
(-2.64415e-07 -1.11015e-06 0)
(1.52893e-07 -0.000457002 0)
(-2.41803e-21 -9.87781e-16 0)
(-7.19397e-21 -9.87781e-16 0)
(-1.18341e-20 -9.8778e-16 0)
(-1.63078e-20 -9.87778e-16 0)
(-2.05855e-20 -9.87777e-16 0)
(-2.46376e-20 -9.87775e-16 0)
(-2.84346e-20 -9.87772e-16 0)
(-3.19469e-20 -9.87769e-16 0)
(-3.51456e-20 -9.87766e-16 0)
(-3.8003e-20 -9.87763e-16 0)
(-4.04938e-20 -9.87759e-16 0)
(-4.25969e-20 -9.87755e-16 0)
(-4.42964e-20 -9.87752e-16 0)
(-4.55841e-20 -9.87748e-16 0)
(-4.64606e-20 -9.87744e-16 0)
(-4.69371e-20 -9.8774e-16 0)
(-4.70356e-20 -9.87736e-16 0)
(-4.67895e-20 -9.87732e-16 0)
(-4.6242e-20 -9.87729e-16 0)
(-4.54443e-20 -9.87726e-16 0)
(-4.44522e-20 -9.87723e-16 0)
(-4.33231e-20 -9.87721e-16 0)
(-4.21115e-20 -9.87719e-16 0)
(-4.08657e-20 -9.87717e-16 0)
(-3.96249e-20 -9.87716e-16 0)
(-3.84172e-20 -9.87715e-16 0)
(-3.72584e-20 -9.87714e-16 0)
(-3.61514e-20 -9.87714e-16 0)
(-3.50859e-20 -9.87714e-16 0)
(-3.4037e-20 -9.87714e-16 0)
(-3.29642e-20 -9.87715e-16 0)
(-3.18086e-20 -9.87716e-16 0)
(-3.04908e-20 -9.87718e-16 0)
(-2.89085e-20 -9.87719e-16 0)
(-2.69372e-20 -9.87721e-16 0)
(-2.4436e-20 -9.87724e-16 0)
(-2.13584e-20 -9.87726e-16 0)
(-2.04409e-11 -9.98544e-16 0)
(-2.64241e-07 -1.27569e-06 0)
(1.719e-07 -0.000461435 0)
(-2.09165e-21 -9.87775e-16 0)
(-6.22085e-21 -9.87774e-16 0)
(-1.02267e-20 -9.87773e-16 0)
(-1.40798e-20 -9.87772e-16 0)
(-1.77528e-20 -9.87771e-16 0)
(-2.12196e-20 -9.87769e-16 0)
(-2.44558e-20 -9.87767e-16 0)
(-2.74382e-20 -9.87764e-16 0)
(-3.01458e-20 -9.87762e-16 0)
(-3.25602e-20 -9.87759e-16 0)
(-3.46665e-20 -9.87756e-16 0)
(-3.64539e-20 -9.87752e-16 0)
(-3.79172e-20 -9.87749e-16 0)
(-3.90572e-20 -9.87746e-16 0)
(-3.98818e-20 -9.87742e-16 0)
(-4.0406e-20 -9.87739e-16 0)
(-4.06526e-20 -9.87736e-16 0)
(-4.06511e-20 -9.87733e-16 0)
(-4.0437e-20 -9.8773e-16 0)
(-4.00507e-20 -9.87728e-16 0)
(-3.95352e-20 -9.87725e-16 0)
(-3.89347e-20 -9.87723e-16 0)
(-3.82922e-20 -9.87721e-16 0)
(-3.76485e-20 -9.87719e-16 0)
(-3.70401e-20 -9.87718e-16 0)
(-3.64987e-20 -9.87717e-16 0)
(-3.605e-20 -9.87716e-16 0)
(-3.57124e-20 -9.87716e-16 0)
(-3.54957e-20 -9.87715e-16 0)
(-3.53979e-20 -9.87716e-16 0)
(-3.54001e-20 -9.87716e-16 0)
(-3.54583e-20 -9.87718e-16 0)
(-3.54901e-20 -9.87719e-16 0)
(-3.53552e-20 -9.87722e-16 0)
(-3.48252e-20 -9.87725e-16 0)
(-3.35411e-20 -9.8773e-16 0)
(-3.11345e-20 -9.87736e-16 0)
(-3.8145e-11 -1.00485e-15 0)
(-2.60262e-07 -1.74567e-06 0)
(2.00108e-07 -0.000465967 0)
(-1.80222e-21 -9.87769e-16 0)
(-5.35875e-21 -9.87769e-16 0)
(-8.8054e-21 -9.87768e-16 0)
(-1.21153e-20 -9.87767e-16 0)
(-1.52638e-20 -9.87766e-16 0)
(-1.82288e-20 -9.87764e-16 0)
(-2.099e-20 -9.87762e-16 0)
(-2.35298e-20 -9.8776e-16 0)
(-2.5833e-20 -9.87758e-16 0)
(-2.78877e-20 -9.87755e-16 0)
(-2.96854e-20 -9.87752e-16 0)
(-3.12219e-20 -9.8775e-16 0)
(-3.24973e-20 -9.87747e-16 0)
(-3.3517e-20 -9.87744e-16 0)
(-3.42916e-20 -9.87741e-16 0)
(-3.48371e-20 -9.87738e-16 0)
(-3.51746e-20 -9.87736e-16 0)
(-3.53299e-20 -9.87733e-16 0)
(-3.53332e-20 -9.87731e-16 0)
(-3.52179e-20 -9.87728e-16 0)
(-3.50201e-20 -9.87726e-16 0)
(-3.47775e-20 -9.87724e-16 0)
(-3.45293e-20 -9.87722e-16 0)
(-3.43152e-20 -9.8772e-16 0)
(-3.41761e-20 -9.87719e-16 0)
(-3.4154e-20 -9.87717e-16 0)
(-3.42932e-20 -9.87716e-16 0)
(-3.46413e-20 -9.87715e-16 0)
(-3.52508e-20 -9.87715e-16 0)
(-3.61806e-20 -9.87714e-16 0)
(-3.7497e-20 -9.87714e-16 0)
(-3.9274e-20 -9.87715e-16 0)
(-4.15905e-20 -9.87716e-16 0)
(-4.45221e-20 -9.87718e-16 0)
(-4.8121e-20 -9.87721e-16 0)
(-5.23749e-20 -9.87726e-16 0)
(-5.77879e-20 -9.87734e-16 0)
(-1.8071e-10 -1.06665e-15 0)
(-2.40071e-07 -5.58387e-06 0)
(2.60088e-07 -0.0004706 0)
(-1.54738e-21 -9.87764e-16 0)
(-4.60024e-21 -9.87764e-16 0)
(-7.5566e-21 -9.87763e-16 0)
(-1.03924e-20 -9.87762e-16 0)
(-1.30862e-20 -9.87761e-16 0)
(-1.56192e-20 -9.8776e-16 0)
(-1.79749e-20 -9.87758e-16 0)
(-2.01395e-20 -9.87756e-16 0)
(-2.21023e-20 -9.87754e-16 0)
(-2.38553e-20 -9.87752e-16 0)
(-2.53941e-20 -9.8775e-16 0)
(-2.67177e-20 -9.87747e-16 0)
(-2.78291e-20 -9.87745e-16 0)
(-2.87353e-20 -9.87743e-16 0)
(-2.9447e-20 -9.8774e-16 0)
(-2.99792e-20 -9.87738e-16 0)
(-3.03505e-20 -9.87735e-16 0)
(-3.05827e-20 -9.87733e-16 0)
(-3.07011e-20 -9.87731e-16 0)
(-3.07335e-20 -9.87728e-16 0)
(-3.071e-20 -9.87726e-16 0)
(-3.06631e-20 -9.87724e-16 0)
(-3.06276e-20 -9.87722e-16 0)
(-3.06409e-20 -9.8772e-16 0)
(-3.07442e-20 -9.87719e-16 0)
(-3.09836e-20 -9.87717e-16 0)
(-3.1413e-20 -9.87715e-16 0)
(-3.20973e-20 -9.87714e-16 0)
(-3.3118e-20 -9.87712e-16 0)
(-3.45816e-20 -9.87711e-16 0)
(-3.66317e-20 -9.8771e-16 0)
(-3.94688e-20 -9.87708e-16 0)
(-4.33816e-20 -9.87707e-16 0)
(-4.87961e-20 -9.87706e-16 0)
(-5.63576e-20 -9.87704e-16 0)
(-6.70639e-20 -9.87703e-16 0)
(-8.87931e-20 -9.87702e-16 0)
(-2.38782e-09 -1.67968e-15 0)
(-1.92094e-07 -1.90998e-05 0)
(3.67889e-07 -0.000475297 0)
(-1.32393e-21 -9.8776e-16 0)
(-3.93543e-21 -9.8776e-16 0)
(-6.46299e-21 -9.87759e-16 0)
(-8.88545e-21 -9.87758e-16 0)
(-1.11843e-20 -9.87757e-16 0)
(-1.33434e-20 -9.87756e-16 0)
(-1.53495e-20 -9.87755e-16 0)
(-1.71916e-20 -9.87753e-16 0)
(-1.88617e-20 -9.87751e-16 0)
(-2.03544e-20 -9.87749e-16 0)
(-2.16674e-20 -9.87747e-16 0)
(-2.28012e-20 -9.87745e-16 0)
(-2.37596e-20 -9.87743e-16 0)
(-2.45493e-20 -9.87741e-16 0)
(-2.51801e-20 -9.87739e-16 0)
(-2.56646e-20 -9.87737e-16 0)
(-2.60178e-20 -9.87735e-16 0)
(-2.62574e-20 -9.87732e-16 0)
(-2.64032e-20 -9.8773e-16 0)
(-2.64765e-20 -9.87728e-16 0)
(-2.65007e-20 -9.87726e-16 0)
(-2.65006e-20 -9.87724e-16 0)
(-2.65026e-20 -9.87722e-16 0)
(-2.6535e-20 -9.8772e-16 0)
(-2.66285e-20 -9.87718e-16 0)
(-2.68167e-20 -9.87716e-16 0)
(-2.71373e-20 -9.87714e-16 0)
(-2.76335e-20 -9.87712e-16 0)
(-2.83552e-20 -9.8771e-16 0)
(-2.93611e-20 -9.87708e-16 0)
(-3.07205e-20 -9.87705e-16 0)
(-3.25139e-20 -9.87702e-16 0)
(-3.48321e-20 -9.87698e-16 0)
(-3.77707e-20 -9.87693e-16 0)
(-4.14138e-20 -9.87687e-16 0)
(-4.57986e-20 -9.8768e-16 0)
(-8.47068e-20 -9.8767e-16 0)
(-7.36321e-09 -3.05033e-15 0)
(-2.23769e-07 -3.29273e-05 0)
(3.30513e-07 -0.000480047 0)
(-1.12838e-21 -9.87757e-16 0)
(-3.3538e-21 -9.87756e-16 0)
(-5.50666e-21 -9.87756e-16 0)
(-7.56849e-21 -9.87755e-16 0)
(-9.52324e-21 -9.87754e-16 0)
(-1.13573e-20 -9.87753e-16 0)
(-1.30594e-20 -9.87752e-16 0)
(-1.46208e-20 -9.8775e-16 0)
(-1.60351e-20 -9.87749e-16 0)
(-1.72983e-20 -9.87747e-16 0)
(-1.84091e-20 -9.87746e-16 0)
(-1.93683e-20 -9.87744e-16 0)
(-2.01793e-20 -9.87742e-16 0)
(-2.08476e-20 -9.8774e-16 0)
(-2.13811e-20 -9.87738e-16 0)
(-2.17894e-20 -9.87736e-16 0)
(-2.20838e-20 -9.87734e-16 0)
(-2.2277e-20 -9.87732e-16 0)
(-2.2383e-20 -9.8773e-16 0)
(-2.24165e-20 -9.87728e-16 0)
(-2.23928e-20 -9.87726e-16 0)
(-2.23275e-20 -9.87724e-16 0)
(-2.22361e-20 -9.87722e-16 0)
(-2.21339e-20 -9.8772e-16 0)
(-2.20351e-20 -9.87718e-16 0)
(-2.19531e-20 -9.87716e-16 0)
(-2.18987e-20 -9.87714e-16 0)
(-2.18797e-20 -9.87712e-16 0)
(-2.1898e-20 -9.87709e-16 0)
(-2.19467e-20 -9.87706e-16 0)
(-2.20047e-20 -9.87703e-16 0)
(-2.2028e-20 -9.87699e-16 0)
(-2.1937e-20 -9.87695e-16 0)
(-2.15971e-20 -9.8769e-16 0)
(-2.07895e-20 -9.87683e-16 0)
(-1.91702e-20 -9.87676e-16 0)
(-3.71151e-20 -9.87667e-16 0)
(-1.47394e-09 -4.04702e-15 0)
(-3.00899e-07 -3.58359e-05 0)
(1.7989e-07 -0.000484869 0)
(-9.57405e-22 -9.87754e-16 0)
(-2.84529e-21 -9.87753e-16 0)
(-4.67071e-21 -9.87753e-16 0)
(-6.41753e-21 -9.87752e-16 0)
(-8.07181e-21 -9.87752e-16 0)
(-9.62183e-21 -9.87751e-16 0)
(-1.1058e-20 -9.87749e-16 0)
(-1.23729e-20 -9.87748e-16 0)
(-1.35613e-20 -9.87747e-16 0)
(-1.46197e-20 -9.87745e-16 0)
(-1.55471e-20 -9.87744e-16 0)
(-1.63439e-20 -9.87742e-16 0)
(-1.70125e-20 -9.87741e-16 0)
(-1.7557e-20 -9.87739e-16 0)
(-1.79829e-20 -9.87737e-16 0)
(-1.82966e-20 -9.87735e-16 0)
(-1.85059e-20 -9.87734e-16 0)
(-1.86189e-20 -9.87732e-16 0)
(-1.86441e-20 -9.8773e-16 0)
(-1.85899e-20 -9.87728e-16 0)
(-1.84645e-20 -9.87727e-16 0)
(-1.82748e-20 -9.87725e-16 0)
(-1.80267e-20 -9.87723e-16 0)
(-1.77239e-20 -9.87721e-16 0)
(-1.73674e-20 -9.87719e-16 0)
(-1.69546e-20 -9.87717e-16 0)
(-1.64776e-20 -9.87715e-16 0)
(-1.59225e-20 -9.87712e-16 0)
(-1.52661e-20 -9.8771e-16 0)
(-1.44743e-20 -9.87707e-16 0)
(-1.3498e-20 -9.87704e-16 0)
(-1.22692e-20 -9.87701e-16 0)
(-1.06967e-20 -9.87697e-16 0)
(-8.66117e-21 -9.87693e-16 0)
(-6.01227e-21 -9.87689e-16 0)
(-2.56814e-21 -9.87684e-16 0)
(1.87753e-21 -9.87679e-16 0)
(2.51303e-20 -4.36641e-15 0)
(-3.18406e-07 -3.30318e-05 0)
(1.19481e-07 -0.000489646 0)
(-8.07964e-22 -9.87751e-16 0)
(-2.40084e-21 -9.87751e-16 0)
(-3.94005e-21 -9.8775e-16 0)
(-5.41146e-21 -9.8775e-16 0)
(-6.80289e-21 -9.87749e-16 0)
(-8.10411e-21 -9.87748e-16 0)
(-9.30678e-21 -9.87747e-16 0)
(-1.04044e-20 -9.87746e-16 0)
(-1.13922e-20 -9.87745e-16 0)
(-1.22672e-20 -9.87744e-16 0)
(-1.3028e-20 -9.87743e-16 0)
(-1.36744e-20 -9.87741e-16 0)
(-1.42079e-20 -9.8774e-16 0)
(-1.46308e-20 -9.87738e-16 0)
(-1.49464e-20 -9.87737e-16 0)
(-1.51587e-20 -9.87735e-16 0)
(-1.52721e-20 -9.87734e-16 0)
(-1.5291e-20 -9.87732e-16 0)
(-1.52198e-20 -9.8773e-16 0)
(-1.5062e-20 -9.87729e-16 0)
(-1.48204e-20 -9.87727e-16 0)
(-1.44962e-20 -9.87725e-16 0)
(-1.40889e-20 -9.87724e-16 0)
(-1.35954e-20 -9.87722e-16 0)
(-1.30095e-20 -9.8772e-16 0)
(-1.23216e-20 -9.87718e-16 0)
(-1.1517e-20 -9.87716e-16 0)
(-1.05763e-20 -9.87714e-16 0)
(-9.47353e-21 -9.87712e-16 0)
(-8.17606e-21 -9.8771e-16 0)
(-6.64413e-21 -9.87707e-16 0)
(-4.8311e-21 -9.87705e-16 0)
(-2.68498e-21 -9.87702e-16 0)
(-1.51676e-22 -9.877e-16 0)
(2.81885e-21 -9.87697e-16 0)
(6.26239e-21 -9.87694e-16 0)
(1.01847e-20 -9.87692e-16 0)
(4.45335e-20 -4.65326e-15 0)
(-2.94912e-07 -2.88799e-05 0)
(8.96221e-08 -0.000494097 0)
(-6.77407e-22 -9.87749e-16 0)
(-2.01253e-21 -9.87749e-16 0)
(-3.30162e-21 -9.87748e-16 0)
(-4.53222e-21 -9.87748e-16 0)
(-5.6936e-21 -9.87747e-16 0)
(-6.77671e-21 -9.87747e-16 0)
(-7.77416e-21 -9.87746e-16 0)
(-8.68009e-21 -9.87745e-16 0)
(-9.49015e-21 -9.87744e-16 0)
(-1.02013e-20 -9.87743e-16 0)
(-1.08119e-20 -9.87741e-16 0)
(-1.13211e-20 -9.8774e-16 0)
(-1.17295e-20 -9.87739e-16 0)
(-1.20379e-20 -9.87738e-16 0)
(-1.22481e-20 -9.87736e-16 0)
(-1.2362e-20 -9.87735e-16 0)
(-1.23817e-20 -9.87733e-16 0)
(-1.23091e-20 -9.87732e-16 0)
(-1.21457e-20 -9.87731e-16 0)
(-1.18922e-20 -9.87729e-16 0)
(-1.15483e-20 -9.87728e-16 0)
(-1.11123e-20 -9.87726e-16 0)
(-1.05809e-20 -9.87725e-16 0)
(-9.94863e-21 -9.87723e-16 0)
(-9.20776e-21 -9.87722e-16 0)
(-8.34776e-21 -9.8772e-16 0)
(-7.35515e-21 -9.87718e-16 0)
(-6.21323e-21 -9.87717e-16 0)
(-4.90203e-21 -9.87715e-16 0)
(-3.39842e-21 -9.87713e-16 0)
(-1.67654e-21 -9.87712e-16 0)
(2.91384e-22 -9.8771e-16 0)
(2.53372e-21 -9.87708e-16 0)
(5.07747e-21 -9.87707e-16 0)
(7.94567e-21 -9.87705e-16 0)
(1.1154e-20 -9.87704e-16 0)
(1.47071e-20 -9.87703e-16 0)
(5.85095e-20 -4.99009e-15 0)
(-2.0583e-07 -2.4425e-05 0)
(6.65571e-08 -0.000497676 0)
(-5.63457e-22 -9.87747e-16 0)
(-1.6736e-21 -9.87747e-16 0)
(-2.7443e-21 -9.87747e-16 0)
(-3.76452e-21 -9.87746e-16 0)
(-4.72474e-21 -9.87746e-16 0)
(-5.61688e-21 -9.87745e-16 0)
(-6.4343e-21 -9.87744e-16 0)
(-7.17164e-21 -9.87744e-16 0)
(-7.82479e-21 -9.87743e-16 0)
(-8.39077e-21 -9.87742e-16 0)
(-8.86757e-21 -9.87741e-16 0)
(-9.25409e-21 -9.8774e-16 0)
(-9.54989e-21 -9.87738e-16 0)
(-9.75511e-21 -9.87737e-16 0)
(-9.87027e-21 -9.87736e-16 0)
(-9.89605e-21 -9.87735e-16 0)
(-9.83313e-21 -9.87734e-16 0)
(-9.682e-21 -9.87732e-16 0)
(-9.44272e-21 -9.87731e-16 0)
(-9.11475e-21 -9.8773e-16 0)
(-8.69675e-21 -9.87729e-16 0)
(-8.18637e-21 -9.87727e-16 0)
(-7.58013e-21 -9.87726e-16 0)
(-6.87321e-21 -9.87725e-16 0)
(-6.05939e-21 -9.87723e-16 0)
(-5.13097e-21 -9.87722e-16 0)
(-4.07873e-21 -9.87721e-16 0)
(-2.89204e-21 -9.8772e-16 0)
(-1.55895e-21 -9.87718e-16 0)
(-6.6375e-23 -9.87717e-16 0)
(1.59972e-21 -9.87716e-16 0)
(3.4542e-21 -9.87715e-16 0)
(5.51296e-21 -9.87714e-16 0)
(7.79373e-21 -9.87713e-16 0)
(1.03181e-20 -9.87713e-16 0)
(1.31158e-20 -9.87713e-16 0)
(1.62327e-20 -9.87712e-16 0)
(6.5697e-20 -5.33353e-15 0)
(-2.20836e-08 -2.04398e-05 0)
(4.95304e-08 -0.000499435 0)
(-4.64173e-22 -9.87746e-16 0)
(-1.37827e-21 -9.87745e-16 0)
(-2.25863e-21 -9.87745e-16 0)
(-3.09543e-21 -9.87745e-16 0)
(-3.88016e-21 -9.87744e-16 0)
(-4.60558e-21 -9.87744e-16 0)
(-5.26565e-21 -9.87743e-16 0)
(-5.85547e-21 -9.87742e-16 0)
(-6.37117e-21 -9.87742e-16 0)
(-6.8098e-21 -9.87741e-16 0)
(-7.16926e-21 -9.8774e-16 0)
(-7.44812e-21 -9.87739e-16 0)
(-7.64556e-21 -9.87738e-16 0)
(-7.76116e-21 -9.87737e-16 0)
(-7.79483e-21 -9.87736e-16 0)
(-7.7466e-21 -9.87735e-16 0)
(-7.61655e-21 -9.87734e-16 0)
(-7.40463e-21 -9.87733e-16 0)
(-7.11052e-21 -9.87732e-16 0)
(-6.73358e-21 -9.87731e-16 0)
(-6.27268e-21 -9.8773e-16 0)
(-5.7262e-21 -9.87728e-16 0)
(-5.09191e-21 -9.87727e-16 0)
(-4.36706e-21 -9.87726e-16 0)
(-3.54834e-21 -9.87725e-16 0)
(-2.63205e-21 -9.87724e-16 0)
(-1.61424e-21 -9.87723e-16 0)
(-4.90926e-22 -9.87722e-16 0)
(7.41513e-22 -9.87722e-16 0)
(2.08595e-21 -9.87721e-16 0)
(3.54392e-21 -9.8772e-16 0)
(5.11496e-21 -9.8772e-16 0)
(6.79561e-21 -9.87719e-16 0)
(8.57814e-21 -9.87719e-16 0)
(1.04486e-20 -9.87719e-16 0)
(1.23836e-20 -9.87719e-16 0)
(1.43452e-20 -9.8772e-16 0)
(5.56142e-20 -5.69079e-15 0)
(-9.41894e-12 -1.73629e-05 0)
(4.16915e-08 -0.00049986 0)
(-3.77892e-22 -9.87744e-16 0)
(-1.12162e-21 -9.87744e-16 0)
(-1.83655e-21 -9.87744e-16 0)
(-2.51391e-21 -9.87744e-16 0)
(-3.14609e-21 -9.87743e-16 0)
(-3.72655e-21 -9.87743e-16 0)
(-4.24984e-21 -9.87742e-16 0)
(-4.71144e-21 -9.87742e-16 0)
(-5.10776e-21 -9.87741e-16 0)
(-5.43597e-21 -9.8774e-16 0)
(-5.69398e-21 -9.87739e-16 0)
(-5.88029e-21 -9.87739e-16 0)
(-5.99389e-21 -9.87738e-16 0)
(-6.03417e-21 -9.87737e-16 0)
(-6.00083e-21 -9.87736e-16 0)
(-5.89373e-21 -9.87735e-16 0)
(-5.71285e-21 -9.87734e-16 0)
(-5.45817e-21 -9.87733e-16 0)
(-5.12964e-21 -9.87732e-16 0)
(-4.7271e-21 -9.87731e-16 0)
(-4.25025e-21 -9.87731e-16 0)
(-3.69869e-21 -9.8773e-16 0)
(-3.07191e-21 -9.87729e-16 0)
(-2.36938e-21 -9.87728e-16 0)
(-1.59068e-21 -9.87727e-16 0)
(-7.35625e-22 -9.87726e-16 0)
(1.95477e-22 -9.87726e-16 0)
(1.20157e-21 -9.87725e-16 0)
(2.28048e-21 -9.87724e-16 0)
(3.42853e-21 -9.87724e-16 0)
(4.63994e-21 -9.87724e-16 0)
(5.9063e-21 -9.87723e-16 0)
(7.21572e-21 -9.87723e-16 0)
(8.55198e-21 -9.87723e-16 0)
(9.8934e-21 -9.87723e-16 0)
(1.12116e-20 -9.87723e-16 0)
(1.247e-20 -9.87724e-16 0)
(4.89008e-20 -6.06768e-15 0)
(-2.01132e-13 -1.49658e-05 0)
(3.59111e-08 -0.00050011 0)
(-3.03177e-22 -9.87743e-16 0)
(-8.99374e-22 -9.87743e-16 0)
(-1.47108e-21 -9.87743e-16 0)
(-2.01043e-21 -9.87743e-16 0)
(-2.51059e-21 -9.87742e-16 0)
(-2.96569e-21 -9.87742e-16 0)
(-3.3708e-21 -9.87742e-16 0)
(-3.72179e-21 -9.87741e-16 0)
(-4.01537e-21 -9.8774e-16 0)
(-4.24891e-21 -9.8774e-16 0)
(-4.42044e-21 -9.87739e-16 0)
(-4.52852e-21 -9.87738e-16 0)
(-4.57218e-21 -9.87738e-16 0)
(-4.55083e-21 -9.87737e-16 0)
(-4.46422e-21 -9.87736e-16 0)
(-4.31231e-21 -9.87735e-16 0)
(-4.09529e-21 -9.87735e-16 0)
(-3.81346e-21 -9.87734e-16 0)
(-3.46726e-21 -9.87733e-16 0)
(-3.05722e-21 -9.87732e-16 0)
(-2.58398e-21 -9.87732e-16 0)
(-2.04832e-21 -9.87731e-16 0)
(-1.4512e-21 -9.8773e-16 0)
(-7.93863e-22 -9.8773e-16 0)
(-7.79228e-23 -9.87729e-16 0)
(6.94486e-22 -9.87728e-16 0)
(1.52055e-21 -9.87728e-16 0)
(2.39659e-21 -9.87727e-16 0)
(3.31783e-21 -9.87727e-16 0)
(4.27821e-21 -9.87727e-16 0)
(5.27014e-21 -9.87726e-16 0)
(6.28425e-21 -9.87726e-16 0)
(7.30931e-21 -9.87726e-16 0)
(8.33209e-21 -9.87726e-16 0)
(9.33751e-21 -9.87726e-16 0)
(1.0309e-20 -9.87727e-16 0)
(1.12292e-20 -9.87727e-16 0)
(4.54146e-20 -6.45666e-15 0)
(4.06166e-12 -1.29642e-05 0)
(3.11305e-08 -0.000500308 0)
(-2.38773e-22 -9.87743e-16 0)
(-7.07816e-22 -9.87743e-16 0)
(-1.1561e-21 -9.87742e-16 0)
(-1.57659e-21 -9.87742e-16 0)
(-1.96315e-21 -9.87742e-16 0)
(-2.31051e-21 -9.87741e-16 0)
(-2.6142e-21 -9.87741e-16 0)
(-2.87053e-21 -9.87741e-16 0)
(-3.07649e-21 -9.8774e-16 0)
(-3.22971e-21 -9.8774e-16 0)
(-3.32841e-21 -9.87739e-16 0)
(-3.37132e-21 -9.87738e-16 0)
(-3.3576e-21 -9.87738e-16 0)
(-3.28683e-21 -9.87737e-16 0)
(-3.15892e-21 -9.87736e-16 0)
(-2.97409e-21 -9.87736e-16 0)
(-2.73281e-21 -9.87735e-16 0)
(-2.43579e-21 -9.87735e-16 0)
(-2.08399e-21 -9.87734e-16 0)
(-1.67855e-21 -9.87733e-16 0)
(-1.2209e-21 -9.87733e-16 0)
(-7.12683e-22 -9.87732e-16 0)
(-1.55885e-22 -9.87732e-16 0)
(4.47164e-22 -9.87731e-16 0)
(1.0937e-21 -9.8773e-16 0)
(1.78047e-21 -9.8773e-16 0)
(2.50361e-21 -9.8773e-16 0)
(3.25861e-21 -9.87729e-16 0)
(4.04024e-21 -9.87729e-16 0)
(4.84244e-21 -9.87729e-16 0)
(5.65837e-21 -9.87729e-16 0)
(6.48038e-21 -9.87728e-16 0)
(7.30015e-21 -9.87728e-16 0)
(8.1088e-21 -9.87728e-16 0)
(8.89726e-21 -9.87729e-16 0)
(9.65662e-21 -9.87729e-16 0)
(1.03787e-20 -9.87729e-16 0)
(4.3912e-20 -6.80266e-15 0)
(6.33414e-12 -1.12007e-05 0)
(2.70656e-08 -0.000500461 0)
(-1.83576e-22 -9.87742e-16 0)
(-5.43655e-22 -9.87742e-16 0)
(-8.86226e-22 -9.87742e-16 0)
(-1.20498e-21 -9.87742e-16 0)
(-1.49442e-21 -9.87741e-16 0)
(-1.74981e-21 -9.87741e-16 0)
(-1.96714e-21 -9.87741e-16 0)
(-2.14311e-21 -9.8774e-16 0)
(-2.27501e-21 -9.8774e-16 0)
(-2.36075e-21 -9.87739e-16 0)
(-2.39877e-21 -9.87739e-16 0)
(-2.38799e-21 -9.87738e-16 0)
(-2.32777e-21 -9.87738e-16 0)
(-2.2179e-21 -9.87737e-16 0)
(-2.05849e-21 -9.87737e-16 0)
(-1.85002e-21 -9.87736e-16 0)
(-1.59326e-21 -9.87736e-16 0)
(-1.28927e-21 -9.87735e-16 0)
(-9.39421e-22 -9.87735e-16 0)
(-5.45331e-22 -9.87734e-16 0)
(-1.08927e-22 -9.87734e-16 0)
(3.67571e-22 -9.87733e-16 0)
(8.81623e-22 -9.87733e-16 0)
(1.43035e-21 -9.87732e-16 0)
(2.01052e-21 -9.87732e-16 0)
(2.61852e-21 -9.87732e-16 0)
(3.25033e-21 -9.87731e-16 0)
(3.90155e-21 -9.87731e-16 0)
(4.56738e-21 -9.87731e-16 0)
(5.24267e-21 -9.87731e-16 0)
(5.92194e-21 -9.8773e-16 0)
(6.59953e-21 -9.8773e-16 0)
(7.26964e-21 -9.8773e-16 0)
(7.92656e-21 -9.8773e-16 0)
(8.56478e-21 -9.8773e-16 0)
(9.17925e-21 -9.87731e-16 0)
(9.76557e-21 -9.87731e-16 0)
(4.23048e-20 -7.01496e-15 0)
(7.68844e-12 -9.61107e-06 0)
(2.35176e-08 -0.000500574 0)
(-1.36605e-22 -9.87742e-16 0)
(-4.03974e-22 -9.87741e-16 0)
(-6.56652e-22 -9.87741e-16 0)
(-8.88982e-22 -9.87741e-16 0)
(-1.09603e-21 -9.87741e-16 0)
(-1.27356e-21 -9.87741e-16 0)
(-1.41797e-21 -9.8774e-16 0)
(-1.52631e-21 -9.8774e-16 0)
(-1.59619e-21 -9.8774e-16 0)
(-1.62576e-21 -9.87739e-16 0)
(-1.61368e-21 -9.87739e-16 0)
(-1.55908e-21 -9.87739e-16 0)
(-1.46151e-21 -9.87738e-16 0)
(-1.32092e-21 -9.87738e-16 0)
(-1.13763e-21 -9.87737e-16 0)
(-9.1233e-22 -9.87737e-16 0)
(-6.46013e-22 -9.87736e-16 0)
(-3.40006e-22 -9.87736e-16 0)
(4.06511e-24 -9.87735e-16 0)
(3.84272e-22 -9.87735e-16 0)
(7.98393e-22 -9.87735e-16 0)
(1.24392e-21 -9.87734e-16 0)
(1.71805e-21 -9.87734e-16 0)
(2.21772e-21 -9.87733e-16 0)
(2.73958e-21 -9.87733e-16 0)
(3.28005e-21 -9.87733e-16 0)
(3.83533e-21 -9.87733e-16 0)
(4.40141e-21 -9.87732e-16 0)
(4.97419e-21 -9.87732e-16 0)
(5.54945e-21 -9.87732e-16 0)