/*--------------------------------*- C++ -*----------------------------------*\
  =========                 |
  \\      /  F ield         | OpenFOAM: The Open Source CFD Toolbox
   \\    /   O peration     | Website:  https://openfoam.org
    \\  /    A nd           | Version:  10
     \\/     M anipulation  |
\*---------------------------------------------------------------------------*/
FoamFile
{
    format      ascii;
    class       surfaceScalarField;
    location    "3000";
    object      phi;
}
// * * * * * * * * * * * * * * * * * * * * * * * * * * * * * * * * * * * * * //

dimensions      [0 3 -1 0 0 0 0];

internalField   nonuniform List<scalar> 
6280
(
-1.80711e-08
1.80711e-08
-3.56304e-08
1.75593e-08
-5.25102e-08
1.68798e-08
-6.8562e-08
1.60518e-08
-8.3655e-08
1.5093e-08
-9.7675e-08
1.402e-08
-1.10524e-07
1.28488e-08
-1.22118e-07
1.15945e-08
-1.3239e-07
1.02714e-08
-1.41283e-07
8.89343e-09
-1.48757e-07
7.47398e-09
-1.54783e-07
6.02595e-09
-1.59345e-07
4.56182e-09
-1.62439e-07
3.09366e-09
-1.64072e-07
1.63309e-09
-1.64263e-07
1.91248e-10
-1.63042e-07
-1.22126e-09
-1.60447e-07
-2.5944e-09
-1.56528e-07
-3.9188e-09
-1.51343e-07
-5.1858e-09
-1.44955e-07
-6.38757e-09
-1.37438e-07
-7.51708e-09
-1.2887e-07
-8.56827e-09
-1.19334e-07
-9.53603e-09
-1.08917e-07
-1.04163e-08
-9.77115e-08
-1.12059e-08
-8.58087e-08
-1.19028e-08
-7.33026e-08
-1.25061e-08
-6.02869e-08
-1.30157e-08
-4.68545e-08
-1.34325e-08
-3.30961e-08
-1.37583e-08
-1.91003e-08
-1.39959e-08
-4.95183e-09
-1.41484e-08
9.26819e-09
-1.422e-08
2.34834e-08
-1.42152e-08
3.76223e-08
-1.4139e-08
5.16189e-08
-1.39966e-08
6.54126e-08
-1.37937e-08
7.89485e-08
-1.35359e-08
-1.3229e-08
9.21776e-08
-1.84856e-08
3.65567e-08
-3.64518e-08
3.55254e-08
-5.37306e-08
3.41587e-08
-7.01731e-08
3.24943e-08
-8.56478e-08
3.05676e-08
-1.0004e-07
2.84118e-08
-1.13249e-07
2.60584e-08
-1.25192e-07
2.35371e-08
-1.35797e-07
2.08765e-08
-1.45008e-07
1.81041e-08
-1.5278e-07
1.52465e-08
-1.59083e-07
1.23292e-08
-1.63899e-07
9.37711e-09
-1.67219e-07
6.41425e-09
-1.6905e-07
3.46385e-09
-1.69407e-07
5.48257e-10
-1.68317e-07
-2.31116e-09
-1.65817e-07
-5.09412e-09
-1.61955e-07
-7.7816e-09
-1.56784e-07
-1.03559e-08
-1.50371e-07
-1.28009e-08
-1.42786e-07
-1.51022e-08
-1.34107e-07
-1.7247e-08
-1.24419e-07
-1.92245e-08
-1.13809e-07
-2.1026e-08
-1.0237e-07
-2.26449e-08
-9.01964e-08
-2.40764e-08
-7.73845e-08
-2.5318e-08
-6.4031e-08
-2.63693e-08
-5.02319e-08
-2.72316e-08
-3.60819e-08
-2.79083e-08
-2.16733e-08
-2.84045e-08
-7.0951e-09
-2.87266e-08
7.56758e-09
-2.88827e-08
2.22342e-08
-2.88818e-08
3.68293e-08
-2.8734e-08
5.12828e-08
-2.84501e-08
6.55305e-08
-2.80414e-08
7.95142e-08
-2.75196e-08
-2.68965e-08
9.31817e-08
-1.93153e-08
5.5872e-08
-3.80961e-08
5.43062e-08
-5.61743e-08
5.22369e-08
-7.34002e-08
4.97202e-08
-8.96411e-08
4.68086e-08
-1.0478e-07
4.35511e-08
-1.18716e-07
3.99943e-08
-1.31361e-07
3.6182e-08
-1.42641e-07
3.21565e-08
-1.52495e-07
2.79581e-08
-1.60875e-07
2.36261e-08
-1.67744e-07
1.91984e-08
-1.73079e-07
1.47117e-08
-1.76866e-07
1.02021e-08
-1.79107e-07
5.70416e-09
-1.7981e-07
1.2516e-09
-1.78998e-07
-3.12326e-09
-1.76703e-07
-7.38948e-09
-1.72966e-07
-1.15178e-08
-1.67841e-07
-1.54809e-08
-1.61389e-07
-1.92533e-08
-1.53679e-07
-2.28124e-08
-1.44788e-07
-2.61375e-08
-1.34802e-07
-2.92113e-08
-1.23808e-07
-3.20191e-08
-1.11904e-07
-3.45493e-08
-9.91868e-08
-3.67936e-08
-8.57579e-08
-3.87469e-08
-7.17199e-08
-4.04073e-08
-5.71758e-08
-4.17757e-08
-4.22277e-08
-4.28564e-08
-2.69761e-08
-4.36561e-08
-1.15183e-08
-4.41844e-08
4.05181e-09
-4.44528e-08
1.9645e-08
-4.4475e-08
3.51773e-08
-4.42663e-08
5.05705e-08
-4.38433e-08
6.57525e-08
-4.32234e-08
8.06579e-08
-4.2425e-08
-4.14664e-08
9.52277e-08
-2.0561e-08
7.6433e-08
-4.05656e-08
7.43108e-08
-5.98457e-08
7.1517e-08
-7.82512e-08
6.81257e-08
-9.56481e-08
6.42055e-08
-1.11918e-07
5.98207e-08
-1.26955e-07
5.50316e-08
-1.40668e-07
4.98955e-08
-1.52979e-07
4.44669e-08
-1.63819e-07
3.87985e-08
-1.73135e-07
3.29413e-08
-1.80881e-07
2.69445e-08
-1.87026e-07
2.08567e-08
-1.91548e-07
1.47248e-08
-1.94439e-07
8.59511e-09
-1.957e-07
2.51239e-09
-1.95344e-07
-3.47975e-09
-1.93394e-07
-9.33928e-09
-1.89886e-07
-1.5026e-08
-1.84865e-07
-2.05017e-08
-1.78387e-07
-2.57309e-08
-1.70519e-07
-3.06807e-08
-1.61335e-07
-3.53215e-08
-1.50919e-07
-3.96271e-08
-1.39363e-07
-4.35753e-08
-1.26764e-07
-4.71478e-08
-1.13227e-07
-5.03305e-08
-9.88604e-08
-5.3114e-08
-8.37747e-08
-5.5493e-08
-6.80835e-08
-5.74668e-08
-5.19009e-08
-5.90391e-08
-3.53397e-08
-6.02173e-08
-1.8511e-08
-6.10131e-08
-1.52248e-09
-6.14413e-08
1.55225e-08
-6.152e-08
3.2526e-08
-6.12698e-08
4.93961e-08
-6.07134e-08
6.6048e-08
-5.98754e-08
8.24042e-08
-5.87811e-08
-5.7457e-08
9.83948e-08
-2.22226e-08
9.86557e-08
-4.38608e-08
9.59489e-08
-6.47475e-08
9.24037e-08
-8.47328e-08
8.8111e-08
-1.03682e-07
8.31548e-08
-1.21474e-07
7.76129e-08
-1.38001e-07
7.15585e-08
-1.53166e-07
6.50604e-08
-1.66884e-07
5.81844e-08
-1.79079e-07
5.09938e-08
-1.89688e-07
4.355e-08
-1.98656e-07
3.59129e-08
-2.0594e-07
2.8141e-08
-2.11508e-07
2.02921e-08
-2.15336e-07
1.24231e-08
-2.17413e-07
4.5898e-09
-2.1774e-07
-3.15292e-09
-2.16328e-07
-1.07515e-08
-2.132e-07
-1.81541e-08
-2.08391e-07
-2.53106e-08
-2.01948e-07
-3.21737e-08
-1.9393e-07
-3.86988e-08
-1.84407e-07
-4.48447e-08
-1.73459e-07
-5.05744e-08
-1.6118e-07
-5.5855e-08
-1.47669e-07
-6.06589e-08
-1.33036e-07
-6.49635e-08
-1.17398e-07
-6.87519e-08
-1.00878e-07
-7.20131e-08
-8.36026e-08
-7.47418e-08
-6.57027e-08
-7.6939e-08
-4.73088e-08
-7.86111e-08
-2.85516e-08
-7.97703e-08
-9.55919e-09
-8.04337e-08
9.54408e-09
-8.06233e-08
2.86392e-08
-8.03649e-08
4.76137e-08
-7.9688e-08
6.6363e-08
-7.86246e-08
8.47909e-08
-7.72091e-08
-7.54768e-08
1.02811e-07
-2.42977e-08
1.22953e-07
-4.79776e-08
1.19629e-07
-7.08759e-08
1.15302e-07
-9.28444e-08
1.1008e-07
-1.13749e-07
1.04059e-07
-1.33467e-07
9.73307e-08
-1.51886e-07
8.99781e-08
-1.68906e-07
8.20801e-08
-1.84433e-07
7.37116e-08
-1.98384e-07
6.49447e-08
-2.10683e-07
5.58492e-08
-2.21264e-07
4.64935e-08
-2.30068e-07
3.69452e-08
-2.37047e-07
2.72711e-08
-2.42162e-07
1.75377e-08
-2.45383e-07
7.81102e-09
-2.46693e-07
-1.8432e-09
-2.46084e-07
-1.13599e-08
-2.43564e-07
-2.06748e-08
-2.39149e-07
-2.97253e-08
-2.32872e-07
-3.84503e-08
-2.2478e-07
-4.67915e-08
-2.14931e-07
-5.46937e-08
-2.03399e-07
-6.21055e-08
-1.90274e-07
-6.89804e-08
-1.75656e-07
-7.52771e-08
-1.59659e-07
-8.09604e-08
-1.42409e-07
-8.60018e-08
-1.24042e-07
-9.03803e-08
-1.04702e-07
-9.4082e-08
-8.45391e-08
-9.71014e-08
-6.37098e-08
-9.94405e-08
-4.23707e-08
-1.01109e-07
-2.06791e-08
-1.02125e-07
1.21058e-09
-1.02513e-07
2.31486e-08
-1.02303e-07
4.4992e-08
-1.01531e-07
6.66065e-08
-1.00239e-07
8.78682e-08
-9.84708e-08
-9.6273e-08
1.08664e-07
-2.67792e-08
1.49733e-07
-5.29034e-08
1.45753e-07
-7.82149e-08
1.40613e-07
-1.0257e-07
1.34434e-07
-1.25836e-07
1.27325e-07
-1.47891e-07
1.19386e-07
-1.68622e-07
1.10709e-07
-1.87922e-07
1.0138e-07
-2.05691e-07
9.14808e-08
-2.21836e-07
8.10893e-08
-2.36268e-07
7.02815e-08
-2.48907e-07
5.91319e-08
-2.59676e-07
4.77144e-08
-2.68508e-07
3.61027e-08
-2.75341e-07
2.4371e-08
-2.80124e-07
1.25938e-08
-2.82813e-07
8.46636e-10
-2.83379e-07
-1.07947e-08
-2.818e-07
-2.22539e-08
-2.7807e-07
-3.34549e-08
-2.72198e-07
-4.4322e-08
-2.64209e-07
-5.4781e-08
-2.54143e-07
-6.47598e-08
-2.42059e-07
-7.41894e-08
-2.28035e-07
-8.30047e-08
-2.12166e-07
-9.1146e-08
-1.94566e-07
-9.85599e-08
-1.75368e-07
-1.052e-07
-1.54719e-07
-1.11029e-07
-1.32783e-07
-1.16018e-07
-1.09735e-07
-1.20149e-07
-8.57622e-08
-1.23414e-07
-6.10564e-08
-1.25815e-07
-3.5815e-08
-1.27367e-07
-1.02351e-08
-1.28093e-07
1.54889e-08
-1.28027e-07
4.11692e-08
-1.27212e-07
6.66273e-08
-1.25697e-07
9.1697e-08
-1.2354e-07
-1.20802e-07
1.16226e-07
-2.96532e-08
1.79386e-07
-5.86118e-08
1.74712e-07
-8.67282e-08
1.6873e-07
-1.13867e-07
1.61573e-07
-1.39901e-07
1.53359e-07
-1.64711e-07
1.44196e-07
-1.88184e-07
1.34182e-07
-2.1021e-07
1.23406e-07
-2.30682e-07
1.11954e-07
-2.49499e-07
9.99059e-08
-2.66559e-07
8.73413e-08
-2.81764e-07
7.43369e-08
-2.95019e-07
6.09697e-08
-3.06233e-07
4.73169e-08
-3.1532e-07
3.34574e-08
-3.22197e-07
1.94713e-08
-3.26792e-07
5.44126e-09
-3.29038e-07
-8.54811e-09
-3.28882e-07
-2.24099e-08
-3.26282e-07
-3.60553e-08
-3.2121e-07
-4.93939e-08
-3.13657e-07
-6.23343e-08
-3.03631e-07
-7.47852e-08
-2.91165e-07
-8.66563e-08
-2.7631e-07
-9.78595e-08
-2.59145e-07
-1.0831e-07
-2.39775e-07
-1.1793e-07
-2.1833e-07
-1.26646e-07
-1.94964e-07
-1.34395e-07
-1.69859e-07
-1.41123e-07
-1.43217e-07
-1.46791e-07
-1.1526e-07
-1.5137e-07
-8.62281e-08
-1.54847e-07
-5.63712e-08
-1.57224e-07
-2.59468e-08
-1.58517e-07
4.7864e-09
-1.5876e-07
3.55736e-08
-1.57999e-07
6.61691e-08
-1.56293e-07
9.63417e-08
-1.53713e-07
-1.50339e-07
1.25878e-07
-3.28961e-08
2.12282e-07
-6.50573e-08
2.06873e-07
-9.63516e-08
2.00024e-07
-1.26656e-07
1.91877e-07
-1.55854e-07
1.82558e-07
-1.83834e-07
1.72176e-07
-2.10485e-07
1.60833e-07
-2.35697e-07
1.48618e-07
-2.59361e-07
1.35618e-07
-2.81366e-07
1.21911e-07
-3.016e-07
1.07575e-07
-3.19947e-07
9.26845e-08
-3.36293e-07
7.7316e-08
-3.50522e-07
6.15457e-08
-3.62517e-07
4.5452e-08
-3.72162e-07
2.91167e-08
-3.79346e-07
1.26249e-08
-3.8396e-07
-3.93394e-09
-3.85904e-07
-2.04658e-08
-3.85087e-07
-3.6872e-08
-3.81432e-07
-5.30493e-08
-3.74876e-07
-6.88901e-08
-3.65378e-07
-8.42832e-08
-3.5292e-07
-9.91147e-08
-3.3751e-07
-1.13269e-07
-3.19189e-07
-1.26632e-07
-2.98029e-07
-1.39089e-07
-2.74142e-07
-1.50533e-07
-2.47676e-07
-1.60861e-07
-2.18819e-07
-1.69981e-07
-1.87795e-07
-1.77815e-07
-1.54866e-07
-1.84299e-07
-1.20327e-07
-1.89387e-07
-8.44968e-08
-1.93054e-07
-4.77173e-08
-1.95297e-07
-1.03407e-08
-1.96137e-07
2.72769e-08
-1.95616e-07
6.47857e-08
-1.93802e-07
1.01851e-07
-1.90778e-07
-1.86649e-07
1.38161e-07
-3.64716e-08
2.48753e-07
-7.21694e-08
2.42571e-07
-1.06983e-07
2.34838e-07
-1.4081e-07
2.25704e-07
-1.73547e-07
2.15295e-07
-2.05096e-07
2.03725e-07
-2.35355e-07
1.91091e-07
-2.64218e-07
1.77481e-07
-2.91576e-07
1.62976e-07
-3.17315e-07
1.4765e-07
-3.41314e-07
1.31573e-07
-3.63444e-07
1.14815e-07
-3.83571e-07
9.74434e-08
-4.01555e-07
7.95288e-08
-4.17246e-07
6.11436e-08
-4.30494e-07
4.23641e-08
-4.4114e-07
2.32717e-08
-4.49028e-07
3.95391e-09
-4.53999e-07
-1.54947e-08
-4.559e-07
-3.49718e-08
-4.54582e-07
-5.43669e-08
-4.49911e-07
-7.35608e-08
-4.41769e-07
-9.24257e-08
-4.30058e-07
-1.10825e-07
-4.14711e-07
-1.28616e-07
-3.95694e-07
-1.45648e-07
-3.73016e-07
-1.61767e-07
-3.46732e-07
-1.76817e-07
-3.1695e-07
-1.90642e-07
-2.83838e-07
-2.03093e-07
-2.47624e-07
-2.14029e-07
-2.08598e-07
-2.23325e-07
-1.6711e-07
-2.30875e-07
-1.23565e-07
-2.36598e-07
-7.84166e-08
-2.40445e-07
-3.21531e-08
-2.424e-07
1.47148e-08
-2.42484e-07
6.16702e-08
-2.40757e-07
1.08208e-07
-2.37315e-07
-2.32289e-07
1.53848e-07
-4.03286e-08
2.89082e-07
-7.98475e-08
2.8209e-07
-1.18476e-07
2.73467e-07
-1.56137e-07
2.63364e-07
-1.92751e-07
2.5191e-07
-2.28238e-07
2.39212e-07
-2.62511e-07
2.25364e-07
-2.95475e-07
2.10446e-07
-3.27029e-07
1.9453e-07
-3.57061e-07
1.77681e-07
-3.85446e-07
1.59958e-07
-4.12049e-07
1.41418e-07
-4.36721e-07
1.22116e-07
-4.59301e-07
1.02109e-07
-4.79613e-07
8.14551e-08
-4.97467e-07
6.02181e-08
-5.12662e-07
3.84666e-08
-5.24984e-07
1.62764e-08
-5.34211e-07
-6.26771e-09
-5.40112e-07
-2.90705e-08
-5.42454e-07
-5.20249e-08
-5.41004e-07
-7.50109e-08
-5.35536e-07
-9.78939e-08
-5.25837e-07
-1.20524e-07
-5.11718e-07
-1.42736e-07
-4.93018e-07
-1.64348e-07
-4.69622e-07
-1.85163e-07
-4.41468e-07
-2.04971e-07
-4.08562e-07
-2.23549e-07
-3.70987e-07
-2.40668e-07
-3.28919e-07
-2.56097e-07
-2.82634e-07
-2.6961e-07
-2.32513e-07
-2.80996e-07
-1.79044e-07
-2.90067e-07
-1.22818e-07
-2.96672e-07
-6.45137e-08
-3.00704e-07
-4.88019e-09
-3.02118e-07
5.52912e-08
-3.00929e-07
1.15199e-07
-2.97223e-07
-2.91156e-07
1.74066e-07
-4.43985e-08
3.33481e-07
-8.79561e-08
3.25647e-07
-1.3063e-07
3.16141e-07
-1.72377e-07
3.05111e-07
-2.13147e-07
2.9268e-07
-2.52887e-07
2.78952e-07
-2.91533e-07
2.6401e-07
-3.29011e-07
2.47924e-07
-3.65234e-07
2.30753e-07
-4.00101e-07
2.12548e-07
-4.33495e-07
1.93353e-07
-4.65284e-07
1.73206e-07
-4.95312e-07
1.52144e-07
-5.23408e-07
1.30204e-07
-5.49376e-07
1.07423e-07
-5.72999e-07
8.3841e-08
-5.94036e-07
5.95033e-08
-6.12222e-07
3.44624e-08
-6.27269e-07
8.77942e-09
-6.38866e-07
-1.7473e-08
-6.46683e-07
-4.42086e-08
-6.50369e-07
-7.13249e-08
-6.49562e-07
-9.87006e-08
-6.43894e-07
-1.26193e-07
-6.32997e-07
-1.53633e-07
-6.16518e-07
-1.80827e-07
-5.94132e-07
-2.0755e-07
-5.65558e-07
-2.33544e-07
-5.30584e-07
-2.58523e-07
-4.89088e-07
-2.82164e-07
-4.41065e-07
-3.04119e-07
-3.86658e-07
-3.24018e-07
-3.26178e-07
-3.41476e-07
-2.60131e-07
-3.56114e-07
-1.89229e-07
-3.67574e-07
-1.14386e-07
-3.75547e-07
-3.67071e-08
-3.79797e-07
4.2558e-08
-3.80194e-07
1.22069e-07
-3.76734e-07
-3.6956e-07
2.00473e-07
-4.85942e-08
3.82075e-07
-9.63227e-08
3.73376e-07
-1.43188e-07
3.63006e-07
-1.89189e-07
3.51111e-07
-2.34314e-07
3.37806e-07
-2.78545e-07
3.23182e-07
-3.21849e-07
3.07313e-07
-3.64181e-07
2.90256e-07
-4.05481e-07
2.72054e-07
-4.45672e-07
2.52739e-07
-4.84657e-07
2.32337e-07
-5.22317e-07
2.10866e-07
-5.58509e-07
1.88337e-07
-5.93066e-07
1.64761e-07
-6.2579e-07
1.40147e-07
-6.56453e-07
1.14504e-07
-6.84791e-07
8.78419e-08
-7.10507e-07
6.01777e-08
-7.3326e-07
3.15331e-08
-7.52673e-07
1.93945e-09
-7.68321e-07
-2.85602e-08
-7.79739e-07
-5.99072e-08
-7.86415e-07
-9.20239e-08
-7.87799e-07
-1.24809e-07
-7.833e-07
-1.58132e-07
-7.72301e-07
-1.91827e-07
-7.54164e-07
-2.25686e-07
-7.28257e-07
-2.59452e-07
-6.93972e-07
-2.92807e-07
-6.50766e-07
-3.2537e-07
-5.98202e-07
-3.56683e-07
-5.36009e-07
-3.86211e-07
-4.64147e-07
-4.13337e-07
-3.82883e-07
-4.37379e-07
-2.92855e-07
-4.57602e-07
-1.95141e-07
-4.7326e-07
-9.1285e-08
-4.83653e-07
1.67201e-08
-4.88199e-07
1.26513e-07
-4.86527e-07
-4.78572e-07
2.35525e-07
-5.28107e-08
4.34886e-07
-1.04738e-07
4.25303e-07
-1.55838e-07
4.14106e-07
-2.06156e-07
4.0143e-07
-2.55729e-07
3.87379e-07
-3.04579e-07
3.72033e-07
-3.52717e-07
3.55451e-07
-4.00137e-07
3.37676e-07
-4.46816e-07
3.18733e-07
-4.92714e-07
2.98637e-07
-5.37769e-07
2.77392e-07
-5.81895e-07
2.54992e-07
-6.24981e-07
2.31423e-07
-6.66886e-07
2.06666e-07
-7.07436e-07
1.80697e-07
-7.46418e-07
1.53486e-07
-7.83581e-07
1.25005e-07
-8.18624e-07
9.52204e-08
-8.51194e-07
6.41032e-08
-8.8088e-07
3.16256e-08
-9.07206e-07
-2.2345e-09
-9.29622e-07
-3.7491e-08
-9.475e-07
-7.41462e-08
-9.60123e-07
-1.12186e-07
-9.66681e-07
-1.51573e-07
-9.66265e-07
-1.92243e-07
-9.57862e-07
-2.34089e-07
-9.4036e-07
-2.76953e-07
-9.12561e-07
-3.20607e-07
-8.73202e-07
-3.64729e-07
-8.21007e-07
-4.08879e-07
-7.54754e-07
-4.52464e-07
-6.73392e-07
-4.94699e-07
-5.76199e-07
-5.34572e-07
-4.62984e-07
-5.70817e-07
-3.3434e-07
-6.01904e-07
-1.91903e-07
-6.26091e-07
-3.85685e-08
-6.41533e-07
1.21426e-07
-6.46522e-07
-6.39846e-07
2.827e-07
-5.69269e-08
4.91812e-07
-1.1296e-07
4.81336e-07
-1.68213e-07
4.69359e-07
-2.22788e-07
4.56004e-07
-2.7677e-07
4.41361e-07
-3.30235e-07
4.25497e-07
-3.83241e-07
4.08457e-07
-4.35831e-07
3.90266e-07
-4.88034e-07
3.70936e-07
-5.39858e-07
3.50462e-07
-5.91293e-07
3.28827e-07
-6.42306e-07
3.06005e-07
-6.92839e-07
2.81956e-07
-7.42805e-07
2.56632e-07
-7.92085e-07
2.29977e-07
-8.40521e-07
2.01923e-07
-8.87914e-07
1.72398e-07
-9.34013e-07
1.41319e-07
-9.7851e-07
1.086e-07
-1.02103e-06
7.41443e-08
-1.06112e-06
3.78527e-08
-1.09823e-06
-3.80026e-10
-1.13171e-06
-4.06625e-08
-1.16079e-06
-8.31057e-08
-1.18454e-06
-1.27821e-07
-1.20187e-06
-1.74917e-07
-1.21146e-06
-2.24495e-07
-1.21178e-06
-2.76641e-07
-1.20097e-06
-3.31412e-07
-1.17688e-06
-3.88814e-07
-1.137e-06
-4.48765e-07
-1.07843e-06
-5.11034e-07
-9.97973e-07
-5.75153e-07
-8.92266e-07
-6.40279e-07
-7.58082e-07
-7.05e-07
-5.92894e-07
-7.67093e-07
-3.95756e-07
-8.23229e-07
-1.6856e-07
-8.68729e-07
8.24575e-08
-8.9754e-07
-9.02824e-07
3.45435e-07
-6.08097e-08
5.52622e-07
-1.20722e-07
5.41248e-07
-1.79912e-07
5.28549e-07
-2.38538e-07
5.1463e-07
-2.96743e-07
4.99566e-07
-3.54655e-07
4.8341e-07
-4.1239e-07
4.66191e-07
-4.70047e-07
4.47923e-07
-5.27712e-07
4.28601e-07
-5.85457e-07
4.08207e-07
-6.43338e-07
3.86708e-07
-7.01391e-07
3.64058e-07
-7.59635e-07
3.402e-07
-8.18064e-07
3.15061e-07
-8.76646e-07
2.88559e-07
-9.35319e-07
2.60596e-07
-9.93984e-07
2.31063e-07
-1.0525e-06
1.99836e-07
-1.11068e-06
1.66775e-07
-1.16826e-06
1.31727e-07
-1.22492e-06
9.45194e-08
-1.28027e-06
5.49631e-08
-1.33378e-06
1.28469e-08
-1.38482e-06
-3.20643e-08
-1.43261e-06
-8.00348e-08
-1.47616e-06
-1.31365e-07
-1.51425e-06
-1.86402e-07
-1.54534e-06
-2.45555e-07
-1.56744e-06
-3.09311e-07
-1.57799e-06
-3.78265e-07
-1.57361e-06
-4.53139e-07
-1.54984e-06
-5.34807e-07
-1.50071e-06
-6.24282e-07
-1.41834e-06
-7.22647e-07
-1.29251e-06
-8.30829e-07
-1.11052e-06
-9.49083e-07
-8.57831e-07
-1.07592e-06
-5.2057e-07
-1.20599e-06
-9.19646e-08
-1.32614e-06
-1.40827e-06
4.13481e-07
-6.432e-08
6.16942e-07
-1.27745e-07
6.04673e-07
-1.9051e-07
5.91314e-07
-2.5283e-07
5.76951e-07
-3.14906e-07
5.61642e-07
-3.76922e-07
5.45425e-07
-4.39049e-07
5.28318e-07
-5.01448e-07
5.10323e-07
-5.64271e-07
4.91424e-07
-6.27657e-07
4.71593e-07
-6.91738e-07
4.50789e-07
-7.56635e-07
4.28955e-07
-8.22457e-07
4.06021e-07
-8.89301e-07
3.81905e-07
-9.57251e-07
3.56509e-07
-1.02637e-06
3.29717e-07
-1.09671e-06
3.01401e-07
-1.16828e-06
2.7141e-07
-1.24109e-06
2.39578e-07
-1.31507e-06
2.05712e-07
-1.39015e-06
1.696e-07
-1.46619e-06
1.31e-07
-1.54299e-06
8.96435e-08
-1.62028e-06
4.5227e-08
-1.69772e-06
-2.59129e-09
-1.77488e-06
-5.42015e-08
-1.85123e-06
-1.10057e-07
-1.92608e-06
-1.707e-07
-1.99859e-06
-2.36808e-07
-2.06758e-06
-3.0927e-07
-2.1314e-06
-3.89324e-07
-2.18742e-06
-4.78784e-07
-2.23128e-06
-5.80427e-07
-2.25529e-06
-6.98635e-07
-2.24566e-06
-8.40453e-07
-2.17743e-06
-1.01732e-06
-2.00545e-06
-1.24789e-06
-1.64887e-06
-1.56257e-06
-9.64156e-07
-2.01086e-06
-2.67312e-06
3.00695e-07
-6.73207e-08
6.84263e-07
-1.33752e-07
6.71105e-07
-1.99586e-07
6.57148e-07
-2.65091e-07
6.42456e-07
-3.30518e-07
6.2707e-07
-3.96107e-07
6.11013e-07
-4.62083e-07
5.94295e-07
-5.28668e-07
5.76907e-07
-5.96075e-07
5.58831e-07
-6.64515e-07
5.40033e-07
-7.34197e-07
5.20471e-07
-8.05329e-07
5.00087e-07
-8.78119e-07
4.78811e-07
-9.52777e-07
4.56563e-07
-1.02951e-06
4.33244e-07
-1.10854e-06
4.08743e-07
-1.19007e-06
3.8293e-07
-1.27431e-06
3.55656e-07
-1.36149e-06
3.2675e-07
-1.45179e-06
2.9602e-07
-1.54544e-06
2.63247e-07
-1.64263e-06
2.28185e-07
-1.74354e-06
1.90561e-07
-1.84839e-06
1.50075e-07
-1.95738e-06
1.06402e-07
-2.07079e-06
5.92057e-08
-2.189e-06
8.14692e-09
-2.31261e-06
-4.70873e-08
-2.44267e-06
-1.06746e-07
-2.58098e-06
-1.70955e-07
-2.73067e-06
-2.39634e-07
-2.89709e-06
-3.12373e-07
-3.08924e-06
-3.88275e-07
-3.32214e-06
-4.65734e-07
-3.62044e-06
-5.42153e-07
-4.02421e-06
-6.13552e-07
-4.59807e-06
-6.74037e-07
-5.44566e-06
-7.14984e-07
-6.73284e-06
-7.23679e-07
-6.81831e-07
-8.72413e-06
-6.96853e-08
7.53948e-07
-1.3849e-07
7.39909e-07
-2.06752e-07
7.2541e-07
-2.74786e-07
7.10489e-07
-3.42888e-07
6.95172e-07
-4.11342e-07
6.79468e-07
-4.80425e-07
6.63377e-07
-5.50407e-07
6.46889e-07
-6.21559e-07
6.29983e-07
-6.94155e-07
6.12629e-07
-7.68474e-07
5.9479e-07
-8.44804e-07
5.76417e-07
-9.23446e-07
5.57453e-07
-1.00471e-06
5.37831e-07
-1.08894e-06
5.17473e-07
-1.17649e-06
4.96286e-07
-1.26772e-06
4.74165e-07
-1.36305e-06
4.50987e-07
-1.46291e-06
4.26611e-07
-1.56777e-06
4.00874e-07
-1.67811e-06
3.73589e-07
-1.79446e-06
3.44539e-07
-1.91738e-06
3.13478e-07
-2.04743e-06
2.80128e-07
-2.18521e-06
2.4418e-07
-2.33131e-06
2.05305e-07
-2.48633e-06
1.63168e-07
-2.65089e-06
1.1747e-07
-2.82565e-06
6.8017e-08
-3.01145e-06
1.48439e-08
-3.20951e-06
-4.15757e-08
-3.4219e-06
-9.99847e-08
-3.65238e-06
-1.57792e-07
-3.9079e-06
-2.10217e-07
-4.20105e-06
-2.49002e-07
-4.55406e-06
-2.60538e-07
-5.00483e-06
-2.23263e-07
-5.61555e-06
-1.04272e-07
-6.48386e-06
1.4464e-07
5.64268e-07
-7.72996e-06
-7.1307e-08
8.25255e-07
-1.41742e-07
8.10344e-07
-2.11678e-07
7.95346e-07
-2.81462e-07
7.80274e-07
-3.51426e-07
7.65135e-07
-4.21886e-07
7.49928e-07
-4.93156e-07
7.34647e-07
-5.65544e-07
7.19278e-07
-6.39365e-07
7.03804e-07
-7.1494e-07
6.88204e-07
-7.92602e-07
6.72452e-07
-8.72701e-07
6.56515e-07
-9.55608e-07
6.4036e-07
-1.04172e-06
6.23944e-07
-1.13147e-06
6.07222e-07
-1.22532e-06
5.9014e-07
-1.3238e-06
5.72637e-07
-1.42745e-06
5.54643e-07
-1.53692e-06
5.36074e-07
-1.65287e-06
5.16832e-07
-1.77609e-06
4.96801e-07
-1.90738e-06
4.75837e-07
-2.04767e-06
4.53761e-07
-2.19788e-06
4.30347e-07
-2.35901e-06
4.05304e-07
-2.53195e-06
3.78249e-07
-2.71746e-06
3.48674e-07
-2.91588e-06
3.15892e-07
-3.12684e-06
2.78975e-07
-3.34865e-06
2.3666e-07
-3.57748e-06
1.87246e-07
-3.80593e-06
1.28473e-07
-4.02116e-06
5.74366e-08
-4.202e-06
-2.9379e-08
-4.31525e-06
-1.35753e-07
-4.31114e-06
-2.64651e-07
-4.11879e-06
-4.15611e-07
-3.64399e-06
-5.79074e-07
-2.77455e-06
-7.24795e-07
-7.10531e-07
-1.49975e-06
-7.21062e-08
8.97361e-07
-1.43348e-07
8.81586e-07
-2.14117e-07
8.66115e-07
-2.84783e-07
8.50939e-07
-3.55692e-07
8.36045e-07
-4.27185e-07
8.21421e-07
-4.99591e-07
8.07053e-07
-5.73243e-07
7.9293e-07
-6.48479e-07
7.7904e-07
-7.25644e-07
7.6537e-07
-8.05103e-07
7.5191e-07
-8.87237e-07
7.3865e-07
-9.72457e-07
7.2558e-07
-1.06121e-06
7.12693e-07
-1.15397e-06
6.99982e-07
-1.25127e-06
6.87444e-07
-1.35371e-06
6.75075e-07
-1.46194e-06
6.62875e-07
-1.57671e-06
6.50843e-07
-1.69886e-06
6.3898e-07
-1.82934e-06
6.27285e-07
-1.96926e-06
6.15753e-07
-2.11986e-06
6.04366e-07
-2.2826e-06
5.93083e-07
-2.45912e-06
5.81822e-07
-2.65129e-06
5.70428e-07
-2.86124e-06
5.58615e-07
-3.09122e-06
5.45875e-07
-3.34357e-06
5.31323e-07
-3.62033e-06
5.13425e-07
-3.92263e-06
4.89544e-07
-4.24931e-06
4.55153e-07
-4.59435e-06
4.02479e-07
-4.9419e-06
3.18171e-07
-5.25691e-06
1.79256e-07
-5.46772e-06
-5.38416e-08
-5.43398e-06
-4.49347e-07
-4.88818e-06
-1.12488e-06
-3.32998e-06
-2.28299e-06
-3.74507e-06
-2.95437e-07
-7.20373e-08
9.69399e-07
-1.43215e-07
9.52763e-07
-2.1393e-07
9.36831e-07
-2.84554e-07
9.21563e-07
-3.55438e-07
9.06929e-07
-4.26922e-07
8.92905e-07
-4.99341e-07
8.79473e-07
-5.7303e-07
8.66619e-07
-6.48326e-07
8.54336e-07
-7.25577e-07
8.42622e-07
-8.05148e-07
8.3148e-07
-8.8742e-07
8.20921e-07
-9.72802e-07
8.10962e-07
-1.06173e-06
8.01625e-07
-1.1547e-06
7.92944e-07
-1.25221e-06
7.84963e-07
-1.35487e-06
7.77735e-07
-1.46333e-06
7.71331e-07
-1.57832e-06
7.65836e-07
-1.7007e-06
7.61357e-07
-1.83144e-06
7.58026e-07
-1.9717e-06
7.56009e-07
-2.12284e-06
7.55508e-07
-2.28654e-06
7.56782e-07
-2.46487e-06
7.60154e-07
-2.66049e-06
7.66045e-07
-2.87688e-06
7.75012e-07
-3.11883e-06
7.87816e-07
-3.39304e-06
8.05541e-07
-3.70942e-06
8.29797e-07
-4.08295e-06
8.63078e-07
-4.5372e-06
9.09404e-07
-5.11019e-06
9.75465e-07
-5.86467e-06
1.07266e-06
-6.90614e-06
1.22072e-06
-8.41416e-06
1.45418e-06
-1.06972e-05
1.83366e-06
-1.42879e-05
2.46582e-06
-2.00324e-05
3.46154e-06
-2.45089e-05
7.3147e-07
-7.1091e-08
1.04049e-06
-1.41326e-07
1.023e-06
-2.1109e-07
1.00659e-06
-2.8074e-07
9.91213e-07
-3.50616e-07
9.76805e-07
-4.21045e-07
9.63334e-07
-4.92345e-07
9.50773e-07
-5.64834e-07
9.39107e-07
-6.3883e-07
9.28332e-07
-7.14658e-07
9.1845e-07
-7.92653e-07
9.09475e-07
-8.73165e-07
9.01433e-07
-9.56562e-07
8.94358e-07
-1.04323e-06
8.88298e-07
-1.1336e-06
8.83313e-07
-1.22812e-06
8.79479e-07
-1.32728e-06
8.76892e-07
-1.43161e-06
8.75667e-07
-1.54172e-06
8.75947e-07
-1.65827e-06
8.77907e-07
-1.78201e-06
8.81763e-07
-1.91378e-06
8.87781e-07
-2.05457e-06
8.96293e-07
-2.20551e-06
9.0772e-07
-2.36794e-06
9.22592e-07
-2.54349e-06
9.41593e-07
-2.73409e-06
9.65611e-07
-2.94208e-06
9.95807e-07
-3.17025e-06
1.03371e-06
-3.42181e-06
1.08135e-06
-3.70012e-06
1.14139e-06
-4.00803e-06
1.21731e-06
-4.34612e-06
1.31355e-06
-4.70898e-06
1.43552e-06
-5.07748e-06
1.58922e-06
-5.40346e-06
1.78016e-06
-5.58022e-06
2.01042e-06
-5.38676e-06
2.27236e-06
-4.14486e-06
2.21965e-06
-3.01827e-05
1.52888e-06
-6.92955e-08
1.10979e-06
-1.37738e-07
1.09144e-06
-2.05684e-07
1.07454e-06
-2.73464e-07
1.05899e-06
-3.41392e-07
1.04473e-06
-4.09764e-07
1.03171e-06
-4.78869e-07
1.01988e-06
-5.48991e-07
1.00923e-06
-6.2041e-07
9.9975e-07
-6.93407e-07
9.91447e-07
-7.68268e-07
9.84336e-07
-8.45283e-07
9.78448e-07
-9.24751e-07
9.73826e-07
-1.00698e-06
9.70527e-07
-1.09229e-06
9.68621e-07
-1.18101e-06
9.68198e-07
-1.27348e-06
9.69362e-07
-1.37005e-06
9.72242e-07
-1.47109e-06
9.76988e-07
-1.57697e-06
9.8378e-07
-1.68804e-06
9.92833e-07
-1.80466e-06
1.0044e-06
-1.92715e-06
1.01879e-06
-2.05578e-06
1.03635e-06
-2.19073e-06
1.05754e-06
-2.33199e-06
1.08286e-06
-2.47931e-06
1.11293e-06
-2.632e-06
1.14849e-06
-2.78868e-06
1.19039e-06
-2.94691e-06
1.23959e-06
-3.10264e-06
1.29711e-06
-3.24931e-06
1.36399e-06
-3.37681e-06
1.44105e-06
-3.46999e-06
1.5287e-06
-3.50717e-06
1.6264e-06
-3.45915e-06
1.73213e-06
-3.2903e-06
1.84157e-06
-2.96537e-06
1.94743e-06
-2.20226e-06
1.45653e-06
-3.31993e-05
8.14381e-07
-6.67128e-08
1.1765e-06
-1.32576e-07
1.1573e-06
-1.97905e-07
1.13987e-06
-2.62994e-07
1.12408e-06
-3.28114e-07
1.10985e-06
-3.93525e-07
1.09712e-06
-4.59472e-07
1.08583e-06
-5.26192e-07
1.07595e-06
-5.93915e-07
1.06747e-06
-6.62867e-07
1.0604e-06
-7.33269e-07
1.05474e-06
-8.05337e-07
1.05052e-06
-8.79288e-07
1.04778e-06
-9.55329e-07
1.04657e-06
-1.03367e-06
1.04696e-06
-1.11449e-06
1.04903e-06
-1.19799e-06
1.05286e-06
-1.28432e-06
1.05857e-06
-1.37361e-06
1.06628e-06
-1.46594e-06
1.07611e-06
-1.56133e-06
1.08822e-06
-1.65971e-06
1.10278e-06
-1.76088e-06
1.11995e-06
-1.86445e-06
1.13993e-06
-1.96981e-06
1.16289e-06
-2.07598e-06
1.18903e-06
-2.18156e-06
1.21851e-06
-2.28453e-06
1.25146e-06
-2.38208e-06
1.28794e-06
-2.47038e-06
1.3279e-06
-2.54439e-06
1.37112e-06
-2.59756e-06
1.41716e-06
-2.62176e-06
1.46525e-06
-2.60728e-06
1.51422e-06
-2.54333e-06
1.56245e-06
-2.41902e-06
1.60782e-06
-2.22528e-06
1.64783e-06
-1.95768e-06
1.67982e-06
-1.47933e-06
9.7818e-07
-3.53186e-05
6.39968e-07
-6.34334e-08
1.23993e-06
-1.26023e-07
1.21989e-06
-1.88034e-07
1.20188e-06
-2.49714e-07
1.18576e-06
-3.11288e-07
1.17143e-06
-3.72966e-07
1.15879e-06
-4.34944e-07
1.1478e-06
-4.97407e-07
1.13841e-06
-5.60528e-07
1.13059e-06
-6.2447e-07
1.12434e-06
-6.89384e-07
1.11965e-06
-7.55413e-07
1.11655e-06
-8.22687e-07
1.11505e-06
-8.9132e-07
1.1152e-06
-9.6141e-07
1.11705e-06
-1.03303e-06
1.12065e-06
-1.10624e-06
1.12606e-06
-1.18103e-06
1.13336e-06
-1.25738e-06
1.14262e-06
-1.33518e-06
1.15392e-06
-1.41427e-06
1.16731e-06
-1.49434e-06
1.18286e-06
-1.57499e-06
1.2006e-06
-1.65562e-06
1.22056e-06
-1.73543e-06
1.2427e-06
-1.81333e-06
1.26692e-06
-1.88788e-06
1.29306e-06
-1.95723e-06
1.32082e-06
-2.01905e-06
1.34975e-06
-2.07039e-06
1.37924e-06
-2.10766e-06
1.40839e-06
-2.12658e-06
1.43608e-06
-2.12216e-06
1.46083e-06
-2.08881e-06
1.48086e-06
-2.0205e-06
1.49414e-06
-1.91118e-06
1.49851e-06
-1.75536e-06
1.492e-06
-1.54899e-06
1.47345e-06
-1.16192e-06
5.91111e-07
-3.71362e-05
6.55683e-07
-5.95687e-08
1.2995e-06
-1.18303e-07
1.27863e-06
-1.76416e-07
1.25999e-06
-2.34098e-07
1.24344e-06
-2.91526e-07
1.22885e-06
-3.48858e-07
1.21613e-06
-4.06237e-07
1.20518e-06
-4.63793e-07
1.19597e-06
-5.2164e-07
1.18844e-06
-5.7988e-07
1.18258e-06
-6.38598e-07
1.17837e-06
-6.97866e-07
1.17581e-06
-7.57737e-07
1.17492e-06
-8.18245e-07
1.17571e-06
-8.79403e-07
1.17821e-06
-9.41196e-07
1.18244e-06
-1.00358e-06
1.18845e-06
-1.06648e-06
1.19626e-06
-1.12978e-06
1.20592e-06
-1.19329e-06
1.21743e-06
-1.2568e-06
1.23081e-06
-1.32e-06
1.24606e-06
-1.38253e-06
1.26313e-06
-1.44392e-06
1.28195e-06
-1.50361e-06
1.30239e-06
-1.56094e-06
1.32425e-06
-1.61512e-06
1.34725e-06
-1.66529e-06
1.37098e-06
-1.71042e-06
1.39489e-06
-1.74942e-06
1.41823e-06
-1.78105e-06
1.44003e-06
-1.80393e-06
1.45896e-06
-1.81641e-06
1.47331e-06
-1.81632e-06
1.48077e-06
-1.8004e-06
1.47823e-06
-1.76333e-06
1.46144e-06
-1.69576e-06
1.42443e-06
-1.58089e-06
1.35858e-06
-9.76023e-07
-1.37518e-08
-3.88729e-05
7.60621e-07
-5.52432e-08
1.35474e-06
-1.09668e-07
1.33305e-06
-1.6343e-07
1.31376e-06
-2.16668e-07
1.29668e-06
-2.69504e-07
1.28169e-06
-3.22046e-07
1.26867e-06
-3.74383e-07
1.25752e-06
-4.26593e-07
1.24818e-06
-4.78735e-07
1.24058e-06
-5.30852e-07
1.2347e-06
-5.82972e-07
1.23049e-06
-6.35103e-07
1.22795e-06
-6.87235e-07
1.22705e-06
-7.39338e-07
1.22781e-06
-7.91359e-07
1.23023e-06
-8.43223e-07
1.23431e-06
-8.9483e-07
1.24006e-06
-9.46054e-07
1.24749e-06
-9.96741e-07
1.2566e-06
-1.04671e-06
1.2674e-06
-1.09577e-06
1.27987e-06
-1.14369e-06
1.29398e-06
-1.19024e-06
1.30968e-06
-1.2352e-06
1.32691e-06
-1.27838e-06
1.34557e-06
-1.31964e-06
1.36551e-06
-1.35896e-06
1.38657e-06
-1.39651e-06
1.40853e-06
-1.43274e-06
1.43112e-06
-1.46854e-06
1.45403e-06
-1.50541e-06
1.4769e-06
-1.54575e-06
1.4993e-06
-1.59322e-06
1.52079e-06
-1.65332e-06
1.54086e-06
-1.73405e-06
1.55896e-06
-1.84709e-06
1.57448e-06
-2.00936e-06
1.5867e-06
-2.24529e-06
1.59451e-06
-8.27984e-07
-1.43106e-06
-4.06288e-05
9.27916e-07
-5.05857e-08
1.40533e-06
-1.00377e-07
1.38284e-06
-1.49473e-07
1.36285e-06
-1.9796e-07
1.34517e-06
-2.45912e-07
1.32964e-06
-2.93386e-07
1.31614e-06
-3.40424e-07
1.30456e-06
-3.87053e-07
1.29481e-06
-4.33284e-07
1.28681e-06
-4.79109e-07
1.28052e-06
-5.24505e-07
1.27589e-06
-5.69427e-07
1.27287e-06
-6.13815e-07
1.27144e-06
-6.57586e-07
1.27158e-06
-7.0064e-07
1.27328e-06
-7.42854e-07
1.27652e-06
-7.8409e-07
1.28129e-06
-8.24189e-07
1.28759e-06
-8.62983e-07
1.2954e-06
-9.0029e-07
1.30471e-06
-9.35932e-07
1.31551e-06
-9.69737e-07
1.32778e-06
-1.00156e-06
1.34151e-06
-1.03131e-06
1.35666e-06
-1.05897e-06
1.37323e-06
-1.08465e-06
1.39118e-06
-1.10861e-06
1.41054e-06
-1.1314e-06
1.43132e-06
-1.15389e-06
1.45361e-06
-1.17745e-06
1.47759e-06
-1.20414e-06
1.50358e-06
-1.23694e-06
1.5321e-06
-1.28018e-06
1.56404e-06
-1.34012e-06
1.6008e-06
-1.42575e-06
1.6446e-06
-1.55018e-06
1.69891e-06
-1.7326e-06
1.76912e-06
-2.00077e-06
1.86269e-06
-7.22324e-07
-2.70951e-06
-4.24551e-05
1.10405e-06
-4.57218e-08
1.45105e-06
-9.06806e-08
1.4278e-06
-1.34925e-07
1.4071e-06
-1.78494e-07
1.38874e-06
-2.21415e-07
1.37256e-06
-2.63701e-07
1.35843e-06
-3.05352e-07
1.34621e-06
-3.46352e-07
1.33581e-06
-3.86669e-07
1.32713e-06
-4.26254e-07
1.32011e-06
-4.65039e-07