/*--------------------------------*- C++ -*----------------------------------*\
  =========                 |
  \\      /  F ield         | OpenFOAM: The Open Source CFD Toolbox
   \\    /   O peration     | Website:  https://openfoam.org
    \\  /    A nd           | Version:  10
     \\/     M anipulation  |
\*---------------------------------------------------------------------------*/
FoamFile
{
    format      ascii;
    class       volVectorField;
    location    "17";
    object      Ua;
}
// * * * * * * * * * * * * * * * * * * * * * * * * * * * * * * * * * * * * * //

dimensions      [0 1 -1 0 0 0 0];

internalField   nonuniform List<vector> 
100
(
(0.000201771 0 0)
(0.000402602 0 0)
(0.000400713 0 0)
(0.000398811 0 0)
(0.000396899 0 0)
(0.000394978 0 0)
(0.000393048 0 0)
(0.000391109 0 0)
(0.000389159 0 0)
(0.000387197 0 0)
(0.000385222 0 0)
(0.000383231 0 0)
(0.000381224 0 0)
(0.000379197 0 0)
(0.00037715 0 0)
(0.000375079 0 0)
(0.000372981 0 0)
(0.000370852 0 0)
(0.000368688 0 0)
(0.000366482 0 0)
(0.000364228 0 0)
(0.000361916 0 0)
(0.000359532 0 0)
(0.00035706 0 0)
(0.000354474 0 0)
(0.000351737 0 0)
(0.000348793 0 0)
(0.000345547 0 0)
(0.000341836 0 0)
(0.000337352 0 0)
(0.000331429 0 0)
(0.000322311 0 0)
(0.00030308 0 0)
(0.000210641 0 0)
(6.58771e-05 0 0)
(1.36817e-09 0 0)
(0 0 0)
(0 0 0)
(0 0 0)
(0 0 0)
(0 0 0)
(0 0 0)
(0 0 0)
(0 0 0)
(0 0 0)
(0 0 0)
(0 0 0)
(0 0 0)
(0 0 0)
(0 0 0)
(0 0 0)
(0 0 0)
(0 0 0)
(0 0 0)
(0 0 0)
(0 0 0)
(0 0 0)
(0 0 0)
(0 0 0)
(0 0 0)
(0 0 0)
(0 0 0)
(0 0 0)
(0 0 0)
(0 0 0)
(0 0 0)
(0 0 0)
(0 0 0)
(0 0 0)
(0 0 0)
(0 0 0)
(0 0 0)
(0 0 0)
(0 0 0)
(0 0 0)
(0 0 0)
(0 0 0)
(0 0 0)
(0 0 0)
(0 0 0)
(0 0 0)
(0 0 0)
(0 0 0)
(0 0 0)
(0 0 0)
(0 0 0)
(0 0 0)
(0 0 0)
(0 0 0)
(0 0 0)
(0 0 0)
(0 0 0)
(0 0 0)
(0 0 0)
(0 0 0)
(0 0 0)
(0 0 0)
(0 0 0)
(0 0 0)
(0 0 0)
)
;

boundaryField
{
    inlet
    {
        type            fixedValue;
        value           uniform (0 0 0);
    }
    outlet
    {
        type            zeroGradient;
    }
    yzfaces
    {
        type            empty;
    }
}


// ************************************************************************* //
