/*--------------------------------*- C++ -*----------------------------------*\
  =========                 |
  \\      /  F ield         | OpenFOAM: The Open Source CFD Toolbox
   \\    /   O peration     | Website:  https://openfoam.org
    \\  /    A nd           | Version:  10
     \\/     M anipulation  |
\*---------------------------------------------------------------------------*/
FoamFile
{
    format      ascii;
    class       volVectorField;
    location    "21200";
    object      Ub;
}
// * * * * * * * * * * * * * * * * * * * * * * * * * * * * * * * * * * * * * //

dimensions      [0 1 -1 0 0 0 0];

internalField   nonuniform List<vector> 
6400
(
(-3.1669e-20 -9.87895e-16 0)
(-2.98711e-13 -9.87891e-16 0)
(-2.66606e-05 -1.51493e-09 0)
(-7.27563e-05 -8.19089e-06 0)
(-9.66529e-05 3.63791e-07 0)
(-0.000100594 -2.86832e-07 0)
(-0.000105853 1.07344e-06 0)
(-0.000111318 -1.32037e-07 0)
(-0.000114078 5.74631e-07 0)
(-0.000116741 -1.23544e-07 0)
(-0.000115835 -1.32759e-07 0)
(-0.000114367 -2.25655e-07 0)
(-0.000112598 -1.85071e-07 0)
(-0.000109996 -3.88267e-07 0)
(-0.00010726 -2.07076e-07 0)
(-0.000105728 -1.39673e-07 0)
(-0.000104145 -2.14086e-07 0)
(-0.00010252 -1.45326e-07 0)
(-0.000101396 -1.10028e-07 0)
(-0.000100316 -1.34412e-07 0)
(-9.92118e-05 -1.13389e-07 0)
(-9.83313e-05 -8.74591e-08 0)
(-9.75752e-05 -8.68998e-08 0)
(-9.6678e-05 -1.15047e-07 0)
(-9.57028e-05 -1.01831e-07 0)
(-9.48409e-05 -9.11818e-08 0)
(-9.39373e-05 -1.09601e-07 0)
(-9.27211e-05 -1.54049e-07 0)
(-9.12571e-05 -1.59416e-07 0)
(-8.96215e-05 -1.88437e-07 0)
(-8.72479e-05 -3.08946e-07 0)
(-8.28654e-05 -5.96388e-07 0)
(-7.78268e-05 -9.85701e-07 0)
(-7.28839e-05 -1.2889e-06 0)
(-6.64692e-05 -1.65871e-06 0)
(-5.83123e-05 -2.08557e-06 0)
(-4.82283e-05 -2.54004e-06 0)
(-3.62091e-05 -2.97056e-06 0)
(-2.25034e-05 -3.31128e-06 0)
(-7.63903e-06 -3.50047e-06 0)
(7.63903e-06 -3.50047e-06 0)
(2.25034e-05 -3.31128e-06 0)
(3.62091e-05 -2.97056e-06 0)
(4.82283e-05 -2.54004e-06 0)
(5.83123e-05 -2.08557e-06 0)
(6.64692e-05 -1.65871e-06 0)
(7.28839e-05 -1.2889e-06 0)
(7.78268e-05 -9.85701e-07 0)
(8.28654e-05 -5.96388e-07 0)
(8.72479e-05 -3.08946e-07 0)
(8.96215e-05 -1.88437e-07 0)
(9.12571e-05 -1.59416e-07 0)
(9.27211e-05 -1.54049e-07 0)
(9.39373e-05 -1.09601e-07 0)
(9.48409e-05 -9.11818e-08 0)
(9.57028e-05 -1.01831e-07 0)
(9.6678e-05 -1.15047e-07 0)
(9.75752e-05 -8.68998e-08 0)
(9.83313e-05 -8.74591e-08 0)
(9.92118e-05 -1.13389e-07 0)
(0.000100316 -1.34412e-07 0)
(0.000101396 -1.10028e-07 0)
(0.00010252 -1.45326e-07 0)
(0.000104145 -2.14086e-07 0)
(0.000105728 -1.39673e-07 0)
(0.00010726 -2.07076e-07 0)
(0.000109996 -3.88267e-07 0)
(0.000112598 -1.85071e-07 0)
(0.000114367 -2.25655e-07 0)
(0.000115835 -1.32759e-07 0)
(0.000116741 -1.23544e-07 0)
(0.000114078 5.74631e-07 0)
(0.000111318 -1.32037e-07 0)
(0.000105853 1.07344e-06 0)
(0.000100594 -2.86832e-07 0)
(9.66529e-05 3.63791e-07 0)
(7.27563e-05 -8.19089e-06 0)
(2.66606e-05 -1.51493e-09 0)
(2.98711e-13 -9.87891e-16 0)
(3.1669e-20 -9.87895e-16 0)
(-3.08435e-20 -9.87879e-16 0)
(-1.09598e-19 -9.87867e-16 0)
(-1.27319e-19 -9.87725e-16 0)
(-5.91882e-09 -7.71894e-16 0)
(-4.33197e-05 6.32906e-07 0)
(-8.98733e-05 -1.9676e-07 0)
(-0.000100184 3.6579e-06 0)
(-0.000106988 -3.25594e-07 0)
(-0.000110229 1.93592e-06 0)
(-0.00011334 -3.26281e-07 0)
(-0.000112595 -3.36942e-07 0)
(-0.000111341 -6.4454e-07 0)
(-0.000109781 -5.10821e-07 0)
(-0.000107324 -1.17119e-06 0)
(-0.000104685 -5.96261e-07 0)
(-0.000103317 -3.91852e-07 0)
(-0.000101831 -6.3723e-07 0)
(-0.000100272 -4.20202e-07 0)
(-9.92384e-05 -3.12654e-07 0)
(-9.82246e-05 -3.94448e-07 0)
(-9.71678e-05 -3.29455e-07 0)
(-9.63412e-05 -2.49628e-07 0)
(-9.56398e-05 -2.48929e-07 0)
(-9.47827e-05 -3.39838e-07 0)
(-9.38407e-05 -2.98011e-07 0)
(-9.30223e-05 -2.64805e-07 0)
(-9.21655e-05 -3.2232e-07 0)
(-9.09856e-05 -4.62794e-07 0)
(-8.956e-05 -4.76898e-07 0)
(-8.79918e-05 -5.63501e-07 0)
(-8.57279e-05 -9.31243e-07 0)
(-8.15232e-05 -1.8122e-06 0)
(-7.66653e-05 -3.00722e-06 0)
(-7.18767e-05 -3.93969e-06 0)
(-6.56391e-05 -5.08015e-06 0)
(-5.76717e-05 -6.4008e-06 0)
(-4.7773e-05 -7.81167e-06 0)
(-3.59181e-05 -9.15211e-06 0)
(-2.23466e-05 -1.02153e-05 0)
(-7.59024e-06 -1.08064e-05 0)
(7.59024e-06 -1.08064e-05 0)
(2.23466e-05 -1.02153e-05 0)
(3.59181e-05 -9.15211e-06 0)
(4.7773e-05 -7.81167e-06 0)
(5.76717e-05 -6.4008e-06 0)
(6.56391e-05 -5.08015e-06 0)
(7.18767e-05 -3.93969e-06 0)
(7.66653e-05 -3.00722e-06 0)
(8.15232e-05 -1.8122e-06 0)
(8.57279e-05 -9.31243e-07 0)
(8.79918e-05 -5.63501e-07 0)
(8.956e-05 -4.76898e-07 0)
(9.09856e-05 -4.62794e-07 0)
(9.21655e-05 -3.2232e-07 0)
(9.30223e-05 -2.64805e-07 0)
(9.38407e-05 -2.98011e-07 0)
(9.47827e-05 -3.39838e-07 0)
(9.56398e-05 -2.48929e-07 0)
(9.63412e-05 -2.49628e-07 0)
(9.71678e-05 -3.29455e-07 0)
(9.82246e-05 -3.94448e-07 0)
(9.92384e-05 -3.12654e-07 0)
(0.000100272 -4.20202e-07 0)
(0.000101831 -6.3723e-07 0)
(0.000103317 -3.91852e-07 0)
(0.000104685 -5.96261e-07 0)
(0.000107324 -1.17119e-06 0)
(0.000109781 -5.10821e-07 0)
(0.000111341 -6.4454e-07 0)
(0.000112595 -3.36942e-07 0)
(0.00011334 -3.26281e-07 0)
(0.000110229 1.93592e-06 0)
(0.000106988 -3.25594e-07 0)
(0.000100184 3.6579e-06 0)
(8.98733e-05 -1.9676e-07 0)
(4.33197e-05 6.32906e-07 0)
(5.91882e-09 -7.71894e-16 0)
(1.27319e-19 -9.87725e-16 0)
(1.09598e-19 -9.87867e-16 0)
(3.08435e-20 -9.87879e-16 0)
(-2.90489e-20 -9.87865e-16 0)
(-9.50051e-20 -9.87848e-16 0)
(-1.15134e-19 -9.87751e-16 0)
(-1.32166e-19 -9.87753e-16 0)
(-4.52408e-20 -9.86646e-16 0)
(-4.78534e-07 -1.54189e-15 0)
(-4.81183e-05 2.53407e-06 0)
(-9.77997e-05 -2.27469e-07 0)
(-0.000105399 3.76396e-06 0)
(-0.000110154 -5.9203e-07 0)
(-0.000109746 -5.03838e-07 0)
(-0.000108837 -1.09782e-06 0)
(-0.000107577 -8.05977e-07 0)
(-0.000105239 -2.07239e-06 0)
(-0.000102613 -9.90938e-07 0)
(-0.000101479 -6.37137e-07 0)
(-0.000100078 -1.11721e-06 0)
(-9.85381e-05 -7.10672e-07 0)
(-9.76111e-05 -5.2175e-07 0)
(-9.66555e-05 -6.84107e-07 0)
(-9.56198e-05 -5.64996e-07 0)
(-9.48428e-05 -4.22341e-07 0)
(-9.42026e-05 -4.21102e-07 0)
(-9.33721e-05 -5.92081e-07 0)
(-9.24421e-05 -5.11962e-07 0)
(-9.16674e-05 -4.50187e-07 0)
(-9.08648e-05 -5.5047e-07 0)
(-8.97071e-05 -8.06071e-07 0)
(-8.83037e-05 -8.19013e-07 0)
(-8.68229e-05 -9.56693e-07 0)
(-8.47235e-05 -1.57906e-06 0)
(-8.07858e-05 -3.08699e-06 0)
(-7.619e-05 -5.13995e-06 0)
(-7.16127e-05 -6.749e-06 0)
(-6.56004e-05 -8.7291e-06 0)
(-5.78406e-05 -1.10392e-05 0)
(-4.80872e-05 -1.35262e-05 0)
(-3.6274e-05 -1.59051e-05 0)
(-2.26248e-05 -1.7801e-05 0)
(-7.69513e-06 -1.88583e-05 0)
(7.69513e-06 -1.88583e-05 0)
(2.26248e-05 -1.7801e-05 0)
(3.6274e-05 -1.59051e-05 0)
(4.80872e-05 -1.35262e-05 0)
(5.78406e-05 -1.10392e-05 0)
(6.56004e-05 -8.7291e-06 0)
(7.16127e-05 -6.749e-06 0)
(7.619e-05 -5.13995e-06 0)
(8.07858e-05 -3.08699e-06 0)
(8.47235e-05 -1.57906e-06 0)
(8.68229e-05 -9.56693e-07 0)
(8.83037e-05 -8.19013e-07 0)
(8.97071e-05 -8.06071e-07 0)
(9.08648e-05 -5.5047e-07 0)
(9.16674e-05 -4.50187e-07 0)
(9.24421e-05 -5.11962e-07 0)
(9.33721e-05 -5.92081e-07 0)
(9.42026e-05 -4.21102e-07 0)
(9.48428e-05 -4.22341e-07 0)
(9.56198e-05 -5.64996e-07 0)
(9.66555e-05 -6.84107e-07 0)
(9.76111e-05 -5.2175e-07 0)
(9.85381e-05 -7.10672e-07 0)
(0.000100078 -1.11721e-06 0)
(0.000101479 -6.37137e-07 0)
(0.000102613 -9.90938e-07 0)
(0.000105239 -2.07239e-06 0)
(0.000107577 -8.05977e-07 0)
(0.000108837 -1.09782e-06 0)
(0.000109746 -5.03838e-07 0)
(0.000110154 -5.9203e-07 0)
(0.000105399 3.76396e-06 0)
(9.77997e-05 -2.27469e-07 0)
(4.81183e-05 2.53407e-06 0)
(4.78534e-07 -1.54189e-15 0)
(4.52408e-20 -9.86646e-16 0)
(1.32166e-19 -9.87753e-16 0)
(1.15134e-19 -9.87751e-16 0)
(9.50051e-20 -9.87848e-16 0)
(2.90489e-20 -9.87865e-16 0)
(-2.65878e-20 -9.87851e-16 0)
(-8.18719e-20 -9.87831e-16 0)
(-1.03121e-19 -9.87757e-16 0)
(-1.12723e-19 -9.8774e-16 0)
(-5.53627e-20 -9.87624e-16 0)
(-9.4051e-20 -9.87793e-16 0)
(-2.54177e-20 -9.75708e-16 0)
(-6.49903e-07 -2.02518e-15 0)
(-4.93302e-05 2.42782e-06 0)
(-0.000100417 -3.69492e-07 0)
(-0.00010482 -3.89518e-07 0)
(-0.000105684 -1.53474e-06 0)
(-0.000105262 -9.65504e-07 0)
(-0.000103196 -3.16042e-06 0)
(-0.00010056 -1.34696e-06 0)
(-9.98325e-05 -8.32557e-07 0)
(-9.85327e-05 -1.68131e-06 0)
(-9.69735e-05 -1.00159e-06 0)
(-9.62041e-05 -7.18211e-07 0)
(-9.53129e-05 -1.00993e-06 0)
(-9.42745e-05 -8.16677e-07 0)
(-9.35544e-05 -5.96338e-07 0)
(-9.29964e-05 -5.932e-07 0)
(-9.21834e-05 -8.78722e-07 0)
(-9.12444e-05 -7.40253e-07 0)
(-9.05232e-05 -6.38743e-07 0)
(-8.97945e-05 -7.8611e-07 0)
(-8.86475e-05 -1.19237e-06 0)
(-8.72504e-05 -1.1807e-06 0)
(-8.58907e-05 -1.35093e-06 0)
(-8.40365e-05 -2.22376e-06 0)
(-8.0496e-05 -4.3823e-06 0)
(-7.62868e-05 -7.33803e-06 0)
(-7.20184e-05 -9.67174e-06 0)
(-6.63283e-05 -1.25745e-05 0)
(-5.88449e-05 -1.60056e-05 0)
(-4.92373e-05 -1.97502e-05 0)
(-3.73593e-05 -2.3375e-05 0)
(-2.34052e-05 -2.62881e-05 0)
(-7.97959e-06 -2.79207e-05 0)
(7.97959e-06 -2.79207e-05 0)
(2.34052e-05 -2.62881e-05 0)
(3.73593e-05 -2.3375e-05 0)
(4.92373e-05 -1.97502e-05 0)
(5.88449e-05 -1.60056e-05 0)
(6.63283e-05 -1.25745e-05 0)
(7.20184e-05 -9.67174e-06 0)
(7.62868e-05 -7.33803e-06 0)
(8.0496e-05 -4.3823e-06 0)
(8.40365e-05 -2.22376e-06 0)
(8.58907e-05 -1.35093e-06 0)
(8.72504e-05 -1.1807e-06 0)
(8.86475e-05 -1.19237e-06 0)
(8.97945e-05 -7.8611e-07 0)
(9.05232e-05 -6.38743e-07 0)
(9.12444e-05 -7.40253e-07 0)
(9.21834e-05 -8.78722e-07 0)
(9.29964e-05 -5.932e-07 0)
(9.35544e-05 -5.96338e-07 0)
(9.42745e-05 -8.16677e-07 0)
(9.53129e-05 -1.00993e-06 0)
(9.62041e-05 -7.18211e-07 0)
(9.69735e-05 -1.00159e-06 0)
(9.85327e-05 -1.68131e-06 0)
(9.98325e-05 -8.32557e-07 0)
(0.00010056 -1.34696e-06 0)
(0.000103196 -3.16042e-06 0)
(0.000105262 -9.65504e-07 0)
(0.000105684 -1.53474e-06 0)
(0.00010482 -3.89518e-07 0)
(0.000100417 -3.69492e-07 0)
(4.93302e-05 2.42782e-06 0)
(6.49903e-07 -2.02518e-15 0)
(2.54177e-20 -9.75708e-16 0)
(9.4051e-20 -9.87793e-16 0)
(5.53627e-20 -9.87624e-16 0)
(1.12723e-19 -9.8774e-16 0)
(1.03121e-19 -9.87757e-16 0)
(8.18719e-20 -9.87831e-16 0)
(2.65878e-20 -9.87851e-16 0)
(-2.37294e-20 -9.87836e-16 0)
(-7.00341e-20 -9.87816e-16 0)
(-9.08234e-20 -9.8776e-16 0)
(-9.64494e-20 -9.87733e-16 0)
(-5.92398e-20 -9.87657e-16 0)
(-7.62982e-20 -9.87745e-16 0)
(-2.97339e-20 -9.87549e-16 0)
(-3.51786e-20 -9.87761e-16 0)
(4.02318e-20 -9.73457e-16 0)
(-7.04759e-09 -7.39153e-16 0)
(-4.27171e-05 -1.06089e-07 0)
(-9.10973e-05 -8.69495e-07 0)
(-9.93552e-05 -4.9761e-07 0)
(-9.98406e-05 -4.48236e-06 0)
(-9.77825e-05 -1.55275e-06 0)
(-9.79998e-05 -8.95577e-07 0)
(-9.69362e-05 -2.38307e-06 0)
(-9.53537e-05 -1.26777e-06 0)
(-9.48655e-05 -8.74183e-07 0)
(-9.40676e-05 -1.39153e-06 0)
(-9.3002e-05 -1.08467e-06 0)
(-9.23608e-05 -7.62998e-07 0)
(-9.19255e-05 -7.53364e-07 0)
(-9.11215e-05 -1.21911e-06 0)
(-9.0145e-05 -9.82337e-07 0)
(-8.94967e-05 -8.22012e-07 0)
(-8.88764e-05 -1.02007e-06 0)
(-8.77246e-05 -1.64255e-06 0)
(-8.63083e-05 -1.55816e-06 0)
(-8.51155e-05 -1.72412e-06 0)
(-8.36113e-05 -2.82438e-06 0)
(-8.06368e-05 -5.6394e-06 0)
(-7.698e-05 -9.52289e-06 0)
(-7.31625e-05 -1.26215e-05 0)
(-6.795e-05 -1.65404e-05 0)
(-6.0875e-05 -2.12705e-05 0)
(-5.14595e-05 -2.6547e-05 0)
(-3.94107e-05 -3.1753e-05 0)
(-2.48645e-05 -3.5991e-05 0)
(-8.50913e-06 -3.83843e-05 0)
(8.50913e-06 -3.83843e-05 0)
(2.48645e-05 -3.5991e-05 0)
(3.94107e-05 -3.1753e-05 0)
(5.14595e-05 -2.6547e-05 0)
(6.0875e-05 -2.12705e-05 0)
(6.795e-05 -1.65404e-05 0)
(7.31625e-05 -1.26215e-05 0)
(7.698e-05 -9.52289e-06 0)
(8.06368e-05 -5.6394e-06 0)
(8.36113e-05 -2.82438e-06 0)
(8.51155e-05 -1.72412e-06 0)
(8.63083e-05 -1.55816e-06 0)
(8.77246e-05 -1.64255e-06 0)
(8.88764e-05 -1.02007e-06 0)
(8.94967e-05 -8.22012e-07 0)
(9.0145e-05 -9.82337e-07 0)
(9.11215e-05 -1.21911e-06 0)
(9.19255e-05 -7.53364e-07 0)
(9.23608e-05 -7.62998e-07 0)
(9.3002e-05 -1.08467e-06 0)
(9.40676e-05 -1.39153e-06 0)
(9.48655e-05 -8.74183e-07 0)
(9.53537e-05 -1.26777e-06 0)
(9.69362e-05 -2.38307e-06 0)
(9.79998e-05 -8.95577e-07 0)
(9.77825e-05 -1.55275e-06 0)
(9.98406e-05 -4.48236e-06 0)
(9.93552e-05 -4.9761e-07 0)
(9.10973e-05 -8.69495e-07 0)
(4.27171e-05 -1.06089e-07 0)
(7.04759e-09 -7.39153e-16 0)
(-4.02318e-20 -9.73457e-16 0)
(3.51786e-20 -9.87761e-16 0)
(2.97339e-20 -9.87549e-16 0)
(7.62982e-20 -9.87745e-16 0)
(5.92398e-20 -9.87657e-16 0)
(9.64494e-20 -9.87733e-16 0)
(9.08234e-20 -9.8776e-16 0)
(7.00341e-20 -9.87816e-16 0)
(2.37294e-20 -9.87836e-16 0)
(-2.0699e-20 -9.87823e-16 0)
(-5.93653e-20 -9.87804e-16 0)
(-7.87111e-20 -9.8776e-16 0)
(-8.24863e-20 -9.8773e-16 0)
(-5.85682e-20 -9.87678e-16 0)
(-6.25994e-20 -9.87717e-16 0)
(-2.97885e-20 -9.87601e-16 0)
(-2.18824e-20 -9.87709e-16 0)
(3.30369e-20 -9.8753e-16 0)
(5.32402e-20 -9.87745e-16 0)
(9.97388e-20 -9.86446e-16 0)
(-7.92974e-14 -7.7994e-16 0)
(-1.96331e-05 -5.17476e-10 0)
(-6.13966e-05 -2.60103e-06 0)
(-8.75093e-05 -7.98291e-07 0)
(-9.34743e-05 -4.44914e-07 0)
(-9.42478e-05 -3.25043e-06 0)
(-9.30931e-05 -1.42023e-06 0)
(-9.33035e-05 -9.20027e-07 0)
(-9.27364e-05 -1.85817e-06 0)
(-9.16508e-05 -1.36075e-06 0)
(-9.11557e-05 -9.04211e-07 0)
(-9.0929e-05 -8.75328e-07 0)
(-9.01294e-05 -1.64848e-06 0)
(-8.90734e-05 -1.23382e-06 0)
(-8.85346e-05 -9.84792e-07 0)
(-8.80839e-05 -1.23235e-06 0)
(-8.69015e-05 -2.19561e-06 0)
(-8.54176e-05 -1.94374e-06 0)
(-8.44521e-05 -2.04268e-06 0)
(-8.34295e-05 -3.31864e-06 0)
(-8.12297e-05 -6.76918e-06 0)
(-7.83353e-05 -1.15652e-05 0)
(-7.517e-05 -1.54419e-05 0)
(-7.06811e-05 -2.04667e-05 0)
(-6.4256e-05 -2.67294e-05 0)
(-5.51673e-05 -3.39564e-05 0)
(-4.28504e-05 -4.12986e-05 0)
(-2.73209e-05 -4.73859e-05 0)
(-9.40253e-06 -5.08618e-05 0)
(9.40253e-06 -5.08618e-05 0)
(2.73209e-05 -4.73859e-05 0)
(4.28504e-05 -4.12986e-05 0)
(5.51673e-05 -3.39564e-05 0)
(6.4256e-05 -2.67294e-05 0)
(7.06811e-05 -2.04667e-05 0)
(7.517e-05 -1.54419e-05 0)
(7.83353e-05 -1.15652e-05 0)
(8.12297e-05 -6.76918e-06 0)
(8.34295e-05 -3.31864e-06 0)
(8.44521e-05 -2.04268e-06 0)
(8.54176e-05 -1.94374e-06 0)
(8.69015e-05 -2.19561e-06 0)
(8.80839e-05 -1.23235e-06 0)
(8.85346e-05 -9.84792e-07 0)
(8.90734e-05 -1.23382e-06 0)
(9.01294e-05 -1.64848e-06 0)
(9.0929e-05 -8.75328e-07 0)
(9.11557e-05 -9.04211e-07 0)
(9.16508e-05 -1.36075e-06 0)
(9.27364e-05 -1.85817e-06 0)
(9.33035e-05 -9.20027e-07 0)
(9.30931e-05 -1.42023e-06 0)
(9.42478e-05 -3.25043e-06 0)
(9.34743e-05 -4.44914e-07 0)
(8.75093e-05 -7.98291e-07 0)
(6.13966e-05 -2.60103e-06 0)
(1.96331e-05 -5.17476e-10 0)
(7.92974e-14 -7.7994e-16 0)
(-9.97388e-20 -9.86446e-16 0)
(-5.32402e-20 -9.87745e-16 0)
(-3.30369e-20 -9.8753e-16 0)
(2.18824e-20 -9.87709e-16 0)
(2.97885e-20 -9.87601e-16 0)
(6.25994e-20 -9.87717e-16 0)
(5.85682e-20 -9.87678e-16 0)
(8.24863e-20 -9.8773e-16 0)
(7.87111e-20 -9.8776e-16 0)
(5.93653e-20 -9.87804e-16 0)
(2.0699e-20 -9.87823e-16 0)
(-1.76734e-20 -9.8781e-16 0)
(-4.97723e-20 -9.87793e-16 0)
(-6.71256e-20 -9.87758e-16 0)
(-7.01942e-20 -9.8773e-16 0)
(-5.47808e-20 -9.87692e-16 0)
(-5.15957e-20 -9.87703e-16 0)
(-2.71299e-20 -9.87635e-16 0)
(-1.24306e-20 -9.87684e-16 0)
(2.89341e-20 -9.87588e-16 0)
(5.27747e-20 -9.87702e-16 0)
(8.8123e-20 -9.87595e-16 0)
(1.01198e-19 -9.87763e-16 0)
(8.29895e-20 -9.87638e-16 0)
(1.19062e-19 -8.70258e-16 0)
(-1.43101e-11 -6.98512e-16 0)
(-2.71039e-05 -5.27974e-09 0)
(-6.72661e-05 -1.86222e-06 0)
(-8.36352e-05 -7.25236e-07 0)
(-8.8783e-05 -4.51444e-07 0)
(-9.0154e-05 -2.37144e-06 0)
(-8.96034e-05 -1.57813e-06 0)
(-8.96066e-05 -9.67547e-07 0)
(-8.98506e-05 -8.92347e-07 0)
(-8.91036e-05 -2.23174e-06 0)
(-8.79225e-05 -1.47762e-06 0)
(-8.75755e-05 -1.0996e-06 0)
(-8.74123e-05 -1.37815e-06 0)
(-8.61562e-05 -2.92985e-06 0)
(-8.45121e-05 -2.32154e-06 0)
(-8.3857e-05 -2.25755e-06 0)
(-8.3479e-05 -3.61507e-06 0)
(-8.23021e-05 -7.64521e-06 0)
(-8.04211e-05 -1.32669e-05 0)
(-7.81868e-05 -1.78619e-05 0)
(-7.48152e-05 -2.40348e-05 0)
(-6.94883e-05 -3.2112e-05 0)
(-6.10534e-05 -4.19332e-05 0)
(-4.84201e-05 -5.23684e-05 0)
(-3.13464e-05 -6.12311e-05 0)
(-1.08759e-05 -6.63711e-05 0)
(1.08759e-05 -6.63711e-05 0)
(3.13464e-05 -6.12311e-05 0)
(4.84201e-05 -5.23684e-05 0)
(6.10534e-05 -4.19332e-05 0)
(6.94883e-05 -3.2112e-05 0)
(7.48152e-05 -2.40348e-05 0)
(7.81868e-05 -1.78619e-05 0)
(8.04211e-05 -1.32669e-05 0)
(8.23021e-05 -7.64521e-06 0)
(8.3479e-05 -3.61507e-06 0)
(8.3857e-05 -2.25755e-06 0)
(8.45121e-05 -2.32154e-06 0)
(8.61562e-05 -2.92985e-06 0)
(8.74123e-05 -1.37815e-06 0)
(8.75755e-05 -1.0996e-06 0)
(8.79225e-05 -1.47762e-06 0)
(8.91036e-05 -2.23174e-06 0)
(8.98506e-05 -8.92347e-07 0)
(8.96066e-05 -9.67547e-07 0)
(8.96034e-05 -1.57813e-06 0)
(9.0154e-05 -2.37144e-06 0)
(8.8783e-05 -4.51444e-07 0)
(8.36352e-05 -7.25236e-07 0)
(6.72661e-05 -1.86222e-06 0)
(2.71039e-05 -5.27974e-09 0)
(1.43101e-11 -6.98512e-16 0)
(-1.19062e-19 -8.70258e-16 0)
(-8.29895e-20 -9.87638e-16 0)
(-1.01198e-19 -9.87763e-16 0)
(-8.8123e-20 -9.87595e-16 0)
(-5.27747e-20 -9.87702e-16 0)
(-2.89341e-20 -9.87588e-16 0)
(1.24306e-20 -9.87684e-16 0)
(2.71299e-20 -9.87635e-16 0)
(5.15957e-20 -9.87703e-16 0)
(5.47808e-20 -9.87692e-16 0)
(7.01942e-20 -9.8773e-16 0)
(6.71256e-20 -9.87758e-16 0)
(4.97723e-20 -9.87793e-16 0)
(1.76734e-20 -9.8781e-16 0)
(-1.47813e-20 -9.87798e-16 0)
(-4.11869e-20 -9.87783e-16 0)
(-5.62942e-20 -9.87756e-16 0)
(-5.91389e-20 -9.8773e-16 0)
(-4.90208e-20 -9.87701e-16 0)
(-4.23212e-20 -9.87697e-16 0)
(-2.29314e-20 -9.87656e-16 0)
(-5.56531e-21 -9.87674e-16 0)
(2.67352e-20 -9.87625e-16 0)
(5.07529e-20 -9.87683e-16 0)
(7.83074e-20 -9.87637e-16 0)
(9.01353e-20 -9.8773e-16 0)
(8.30557e-20 -9.8769e-16 0)
(9.69247e-20 -9.87737e-16 0)
(3.77044e-20 -9.87781e-16 0)
(8.46629e-20 -9.8751e-16 0)
(1.4421e-19 -8.54801e-16 0)
(-3.19828e-14 -7.04897e-16 0)
(-1.45294e-05 -5.7697e-11 0)
(-5.18261e-05 -1.31293e-06 0)
(-7.8221e-05 -8.28666e-07 0)
(-8.37014e-05 -4.84866e-07 0)
(-8.68936e-05 -4.73526e-07 0)
(-8.72086e-05 -3.03276e-06 0)
(-8.61905e-05 -1.6303e-06 0)
(-8.63646e-05 -1.10317e-06 0)
(-8.67996e-05 -1.34495e-06 0)
(-8.5433e-05 -4.00849e-06 0)
(-8.34664e-05 -2.65195e-06 0)
(-8.32595e-05 -2.29874e-06 0)
(-8.37318e-05 -3.58079e-06 0)
(-8.38595e-05 -8.10072e-06 0)
(-8.32543e-05 -1.43546e-05 0)
(-8.23133e-05 -1.94273e-05 0)
(-8.06949e-05 -2.66196e-05 0)
(-7.73205e-05 -3.6768e-05 0)
(-7.03112e-05 -5.0168e-05 0)
(-5.74806e-05 -6.54523e-05 0)
(-3.80166e-05 -7.87959e-05 0)
(-1.3342e-05 -8.67113e-05 0)
(1.3342e-05 -8.67113e-05 0)
(3.80166e-05 -7.87959e-05 0)
(5.74806e-05 -6.54523e-05 0)
(7.03112e-05 -5.0168e-05 0)
(7.73205e-05 -3.6768e-05 0)
(8.06949e-05 -2.66196e-05 0)
(8.23133e-05 -1.94273e-05 0)
(8.32543e-05 -1.43546e-05 0)
(8.38595e-05 -8.10072e-06 0)
(8.37318e-05 -3.58079e-06 0)
(8.32595e-05 -2.29874e-06 0)
(8.34664e-05 -2.65195e-06 0)
(8.5433e-05 -4.00849e-06 0)
(8.67996e-05 -1.34495e-06 0)
(8.63646e-05 -1.10317e-06 0)
(8.61905e-05 -1.6303e-06 0)
(8.72086e-05 -3.03276e-06 0)
(8.68936e-05 -4.73526e-07 0)
(8.37014e-05 -4.84866e-07 0)
(7.8221e-05 -8.28666e-07 0)
(5.18261e-05 -1.31293e-06 0)
(1.45294e-05 -5.7697e-11 0)
(3.19828e-14 -7.04897e-16 0)
(-1.4421e-19 -8.54801e-16 0)
(-8.46629e-20 -9.8751e-16 0)
(-3.77044e-20 -9.87781e-16 0)
(-9.69247e-20 -9.87737e-16 0)
(-8.30557e-20 -9.8769e-16 0)
(-9.01353e-20 -9.8773e-16 0)
(-7.83074e-20 -9.87637e-16 0)
(-5.07529e-20 -9.87683e-16 0)
(-2.67352e-20 -9.87625e-16 0)
(5.56531e-21 -9.87674e-16 0)
(2.29314e-20 -9.87656e-16 0)
(4.23212e-20 -9.87697e-16 0)
(4.90208e-20 -9.87701e-16 0)
(5.91389e-20 -9.8773e-16 0)
(5.62942e-20 -9.87756e-16 0)
(4.11869e-20 -9.87783e-16 0)
(1.47813e-20 -9.87798e-16 0)
(-1.21079e-20 -9.87787e-16 0)
(-3.35552e-20 -9.87775e-16 0)
(-4.63512e-20 -9.87753e-16 0)
(-4.90609e-20 -9.8773e-16 0)
(-4.21631e-20 -9.87708e-16 0)
(-3.41533e-20 -9.87697e-16 0)
(-1.80067e-20 -9.87671e-16 0)
(-3.9457e-22 -9.87674e-16 0)
(2.5632e-20 -9.87649e-16 0)
(4.79767e-20 -9.87677e-16 0)
(7.00258e-20 -9.87663e-16 0)
(8.0988e-20 -9.87713e-16 0)
(7.98188e-20 -9.87702e-16 0)
(8.41908e-20 -9.87732e-16 0)
(5.51314e-20 -9.87751e-16 0)
(8.16902e-20 -9.8767e-16 0)
(1.10278e-19 -9.87766e-16 0)
(4.5861e-20 -9.87797e-16 0)
(3.84842e-20 -9.87673e-16 0)
(1.24206e-19 -9.02615e-16 0)
(1.06119e-19 -7.70368e-16 0)
(-7.7699e-10 -6.38999e-16 0)
(-2.90593e-05 -4.2288e-08 0)
(-6.59513e-05 -1.74659e-06 0)
(-7.66436e-05 -8.33186e-07 0)
(-8.11882e-05 -5.32889e-07 0)
(-8.45672e-05 -6.54501e-07 0)
(-8.39268e-05 -5.71345e-06 0)
(-8.17071e-05 -2.78596e-06 0)
(-8.23818e-05 -2.05239e-06 0)
(-8.405e-05 -3.01112e-06 0)
(-8.58248e-05 -7.9337e-06 0)
(-8.66717e-05 -1.45522e-05 0)
(-8.74098e-05 -1.94062e-05 0)
(-8.85628e-05 -2.70109e-05 0)
(-8.88125e-05 -3.91458e-05 0)
(-8.50954e-05 -5.75344e-05 0)
(-7.26907e-05 -8.12374e-05 0)
(-4.94749e-05 -0.000102313 0)
(-1.76453e-05 -0.0001153 0)
(1.76453e-05 -0.0001153 0)
(4.94749e-05 -0.000102313 0)
(7.26907e-05 -8.12374e-05 0)
(8.50954e-05 -5.75344e-05 0)
(8.88125e-05 -3.91458e-05 0)
(8.85628e-05 -2.70109e-05 0)
(8.74098e-05 -1.94062e-05 0)
(8.66717e-05 -1.45522e-05 0)
(8.58248e-05 -7.9337e-06 0)
(8.405e-05 -3.01112e-06 0)
(8.23818e-05 -2.05239e-06 0)
(8.17071e-05 -2.78596e-06 0)
(8.39268e-05 -5.71345e-06 0)
(8.45672e-05 -6.54501e-07 0)
(8.11882e-05 -5.32889e-07 0)
(7.66436e-05 -8.33186e-07 0)
(6.59513e-05 -1.74659e-06 0)
(2.90593e-05 -4.2288e-08 0)
(7.7699e-10 -6.38999e-16 0)
(-1.06119e-19 -7.70368e-16 0)
(-1.24206e-19 -9.02615e-16 0)
(-3.84842e-20 -9.87673e-16 0)
(-4.5861e-20 -9.87797e-16 0)
(-1.10278e-19 -9.87766e-16 0)
(-8.16902e-20 -9.8767e-16 0)
(-5.51314e-20 -9.87751e-16 0)
(-8.41908e-20 -9.87732e-16 0)
(-7.98188e-20 -9.87702e-16 0)
(-8.0988e-20 -9.87713e-16 0)
(-7.00258e-20 -9.87663e-16 0)
(-4.79767e-20 -9.87677e-16 0)
(-2.5632e-20 -9.87649e-16 0)
(3.94569e-22 -9.87674e-16 0)
(1.80067e-20 -9.87671e-16 0)
(3.41533e-20 -9.87697e-16 0)
(4.21631e-20 -9.87708e-16 0)
(4.90609e-20 -9.8773e-16 0)
(4.63512e-20 -9.87753e-16 0)
(3.35552e-20 -9.87775e-16 0)
(1.21079e-20 -9.87787e-16 0)
(-9.70171e-21 -9.87777e-16 0)
(-2.68287e-20 -9.87768e-16 0)
(-3.73625e-20 -9.8775e-16 0)
(-3.98331e-20 -9.87731e-16 0)
(-3.48528e-20 -9.87712e-16 0)
(-2.67411e-20 -9.877e-16 0)
(-1.28836e-20 -9.87682e-16 0)
(3.67765e-21 -9.87678e-16 0)
(2.51217e-20 -9.87666e-16 0)
(4.49878e-20 -9.8768e-16 0)
(6.30494e-20 -9.87678e-16 0)
(7.32608e-20 -9.87707e-16 0)
(7.52154e-20 -9.87709e-16 0)
(7.65776e-20 -9.87728e-16 0)
(6.36753e-20 -9.87737e-16 0)
(7.80441e-20 -9.87702e-16 0)
(9.07374e-20 -9.87752e-16 0)
(5.78655e-20 -9.87768e-16 0)
(5.5496e-20 -9.87713e-16 0)
(9.88053e-20 -9.87713e-16 0)
(8.44812e-20 -9.878e-16 0)
(6.83664e-21 -9.87781e-16 0)
(9.85197e-20 -9.872e-16 0)
(1.7766e-19 -8.75632e-16 0)
(7.67113e-20 -7.60405e-16 0)
(-9.14279e-11 -6.4485e-16 0)
(-2.14046e-05 -2.28692e-08 0)
(-5.46072e-05 -3.38266e-06 0)
(-7.02733e-05 -1.3869e-06 0)
(-7.65236e-05 -9.1957e-07 0)
(-8.18908e-05 -1.28046e-06 0)
(-8.69057e-05 -6.7923e-06 0)
(-8.94424e-05 -1.39101e-05 0)
(-9.21599e-05 -1.6598e-05 0)
(-9.77722e-05 -2.2913e-05 0)
(-0.000105023 -3.54703e-05 0)
(-0.000109494 -6.01511e-05 0)
(-9.9633e-05 -0.000100942 0)
(-7.02432e-05 -0.000135806 0)
(-2.5668e-05 -0.000159212 0)
(2.5668e-05 -0.000159212 0)
(7.02432e-05 -0.000135806 0)
(9.9633e-05 -0.000100942 0)
(0.000109494 -6.01511e-05 0)
(0.000105023 -3.54703e-05 0)
(9.77722e-05 -2.2913e-05 0)
(9.21599e-05 -1.6598e-05 0)
(8.94424e-05 -1.39101e-05 0)
(8.69057e-05 -6.7923e-06 0)
(8.18908e-05 -1.28046e-06 0)
(7.65236e-05 -9.1957e-07 0)
(7.02733e-05 -1.3869e-06 0)
(5.46072e-05 -3.38266e-06 0)
(2.14046e-05 -2.28692e-08 0)
(9.14279e-11 -6.4485e-16 0)
(-7.67113e-20 -7.60405e-16 0)
(-1.7766e-19 -8.75632e-16 0)
(-9.85197e-20 -9.872e-16 0)
(-6.83664e-21 -9.87781e-16 0)
(-8.44812e-20 -9.878e-16 0)
(-9.88053e-20 -9.87713e-16 0)
(-5.5496e-20 -9.87713e-16 0)
(-5.78655e-20 -9.87768e-16 0)
(-9.07374e-20 -9.87752e-16 0)
(-7.80441e-20 -9.87702e-16 0)
(-6.36753e-20 -9.87737e-16 0)
(-7.65776e-20 -9.87728e-16 0)
(-7.52154e-20 -9.87709e-16 0)
(-7.32608e-20 -9.87707e-16 0)
(-6.30494e-20 -9.87678e-16 0)
(-4.49878e-20 -9.8768e-16 0)
(-2.51217e-20 -9.87666e-16 0)
(-3.67765e-21 -9.87678e-16 0)
(1.28836e-20 -9.87682e-16 0)
(2.67411e-20 -9.877e-16 0)
(3.48528e-20 -9.87712e-16 0)
(3.98331e-20 -9.87731e-16 0)
(3.73625e-20 -9.8775e-16 0)
(2.68287e-20 -9.87768e-16 0)
(9.70171e-21 -9.87777e-16 0)
(-7.58308e-21 -9.87769e-16 0)
(-2.09583e-20 -9.87761e-16 0)
(-2.93469e-20 -9.87747e-16 0)
(-3.14155e-20 -9.87732e-16 0)
(-2.75505e-20 -9.87716e-16 0)
(-1.99248e-20 -9.87704e-16 0)
(-7.88276e-21 -9.8769e-16 0)
(7.02778e-21 -9.87685e-16 0)
(2.49228e-20 -9.87678e-16 0)
(4.21221e-20 -9.87685e-16 0)
(5.71924e-20 -9.87689e-16 0)
(6.66731e-20 -9.87706e-16 0)
(7.03016e-20 -9.87713e-16 0)
(7.14887e-20 -9.87725e-16 0)
(6.68112e-20 -9.87731e-16 0)
(7.4428e-20 -9.87719e-16 0)
(7.97221e-20 -9.87744e-16 0)
(6.40583e-20 -9.87753e-16 0)
(6.37111e-20 -9.87727e-16 0)
(8.4122e-20 -9.8773e-16 0)
(7.52259e-20 -9.87772e-16 0)
(4.2578e-20 -9.87756e-16 0)
(9.00804e-20 -9.87667e-16 0)
(1.2857e-19 -9.87785e-16 0)
(7.34235e-20 -9.87819e-16 0)
(1.08508e-20 -9.87795e-16 0)
(7.81236e-20 -9.8748e-16 0)
(1.43399e-19 -9.05921e-16 0)
(7.43137e-20 -8.08907e-16 0)
(-2.48787e-18 -7.09013e-16 0)
(-9.40857e-07 -1.22157e-14 0)
(-3.21021e-05 -2.9586e-06 0)
(-6.87087e-05 -6.71098e-06 0)
(-8.16023e-05 -7.15454e-06 0)
(-9.66994e-05 -9.68352e-06 0)
(-0.000119058 -1.57245e-05 0)
(-0.000147963 -4.21791e-05 0)
(-0.000148858 -0.000128448 0)
(-0.000109299 -0.000184905 0)
(-4.19904e-05 -0.000234625 0)
(4.19904e-05 -0.000234625 0)
(0.000109299 -0.000184905 0)
(0.000148858 -0.000128448 0)
(0.000147963 -4.21791e-05 0)
(0.000119058 -1.57245e-05 0)
(9.66994e-05 -9.68352e-06 0)
(8.16023e-05 -7.15454e-06 0)
(6.87087e-05 -6.71098e-06 0)
(3.21021e-05 -2.9586e-06 0)
(9.40857e-07 -1.22157e-14 0)
(2.48787e-18 -7.09013e-16 0)
(-7.43137e-20 -8.08907e-16 0)
(-1.43399e-19 -9.05921e-16 0)
(-7.81236e-20 -9.8748e-16 0)
(-1.08508e-20 -9.87795e-16 0)
(-7.34235e-20 -9.87819e-16 0)
(-1.2857e-19 -9.87785e-16 0)
(-9.00804e-20 -9.87667e-16 0)
(-4.2578e-20 -9.87756e-16 0)
(-7.52259e-20 -9.87772e-16 0)
(-8.4122e-20 -9.8773e-16 0)
(-6.37111e-20 -9.87727e-16 0)
(-6.40583e-20 -9.87753e-16 0)
(-7.97221e-20 -9.87744e-16 0)
(-7.4428e-20 -9.87719e-16 0)
(-6.68112e-20 -9.87731e-16 0)
(-7.14887e-20 -9.87725e-16 0)
(-7.03016e-20 -9.87713e-16 0)
(-6.66731e-20 -9.87706e-16 0)
(-5.71924e-20 -9.87689e-16 0)
(-4.21221e-20 -9.87685e-16 0)
(-2.49228e-20 -9.87678e-16 0)
(-7.02778e-21 -9.87685e-16 0)
(7.88276e-21 -9.8769e-16 0)
(1.99248e-20 -9.87704e-16 0)
(2.75505e-20 -9.87716e-16 0)
(3.14155e-20 -9.87732e-16 0)
(2.93469e-20 -9.87747e-16 0)
(2.09583e-20 -9.87761e-16 0)
(7.58308e-21 -9.87769e-16 0)
(-5.75192e-21 -9.87762e-16 0)
(-1.58911e-20 -9.87756e-16 0)
(-2.22937e-20 -9.87745e-16 0)
(-2.38148e-20 -9.87732e-16 0)
(-2.05757e-20 -9.87719e-16 0)
(-1.36633e-20 -9.87708e-16 0)
(-3.18668e-21 -9.87698e-16 0)
(9.88141e-21 -9.87692e-16 0)
(2.48959e-20 -9.87688e-16 0)
(3.95646e-20 -9.87692e-16 0)
(5.23058e-20 -9.87697e-16 0)
(6.10573e-20 -9.87708e-16 0)
(6.55837e-20 -9.87715e-16 0)
(6.75201e-20 -9.87724e-16 0)
(6.68692e-20 -9.87729e-16 0)
(7.11006e-20 -9.87727e-16 0)
(7.34048e-20 -9.8774e-16 0)
(6.66379e-20 -9.87745e-16 0)
(6.7012e-20 -9.87735e-16 0)
(7.6078e-20 -9.87738e-16 0)
(7.16076e-20 -9.87757e-16 0)
(5.97343e-20 -9.87747e-16 0)
(8.33032e-20 -9.87713e-16 0)
(1.00481e-19 -9.87769e-16 0)
(7.18602e-20 -9.87792e-16 0)
(4.21647e-20 -9.87774e-16 0)
(7.30865e-20 -9.87709e-16 0)
(1.01312e-19 -9.87791e-16 0)
(6.18401e-20 -9.87828e-16 0)
(5.97851e-21 -9.87828e-16 0)
(-4.83425e-20 -9.87786e-16 0)
(4.50273e-20 -9.77226e-16 0)
(1.25649e-19 -9.10876e-16 0)
(5.8069e-20 -8.65895e-16 0)
(-1.59028e-19 -8.15909e-16 0)
(-6.66569e-08 -2.98637e-15 0)
(-1.51096e-05 -1.24191e-05 0)
(-8.62564e-05 -7.48581e-05 0)
(-0.000145074 -0.000210915 0)
(-7.38609e-05 -0.000376479 0)
(7.38609e-05 -0.000376479 0)
(0.000145074 -0.000210915 0)
(8.62564e-05 -7.48581e-05 0)
(1.51096e-05 -1.24191e-05 0)
(6.66569e-08 -2.98637e-15 0)
(1.59028e-19 -8.15909e-16 0)
(-5.8069e-20 -8.65895e-16 0)
(-1.25649e-19 -9.10876e-16 0)
(-4.50273e-20 -9.77226e-16 0)
(4.83425e-20 -9.87786e-16 0)
(-5.97851e-21 -9.87828e-16 0)
(-6.18401e-20 -9.87828e-16 0)
(-1.01312e-19 -9.87791e-16 0)
(-7.30865e-20 -9.87709e-16 0)
(-4.21647e-20 -9.87774e-16 0)
(-7.18602e-20 -9.87792e-16 0)
(-1.00481e-19 -9.87769e-16 0)
(-8.33032e-20 -9.87713e-16 0)
(-5.97343e-20 -9.87747e-16 0)
(-7.16076e-20 -9.87757e-16 0)
(-7.6078e-20 -9.87738e-16 0)
(-6.7012e-20 -9.87735e-16 0)
(-6.66379e-20 -9.87745e-16 0)
(-7.34048e-20 -9.8774e-16 0)
(-7.11006e-20 -9.87727e-16 0)
(-6.68692e-20 -9.87729e-16 0)
(-6.75201e-20 -9.87724e-16 0)
(-6.55837e-20 -9.87715e-16 0)
(-6.10573e-20 -9.87708e-16 0)
(-5.23058e-20 -9.87697e-16 0)
(-3.95646e-20 -9.87692e-16 0)
(-2.48959e-20 -9.87688e-16 0)
(-9.88141e-21 -9.87692e-16 0)
(3.18668e-21 -9.87698e-16 0)
(1.36633e-20 -9.87708e-16 0)
(2.05757e-20 -9.87719e-16 0)
(2.38148e-20 -9.87732e-16 0)
(2.22937e-20 -9.87745e-16 0)
(1.58911e-20 -9.87756e-16 0)
(5.75192e-21 -9.87762e-16 0)
(-4.19504e-21 -9.87756e-16 0)
(-1.15697e-20 -9.87751e-16 0)
(-1.61728e-20 -9.87743e-16 0)
(-1.70533e-20 -9.87733e-16 0)
(-1.4141e-20 -9.87722e-16 0)
(-7.97486e-21 -9.87713e-16 0)
(1.10658e-21 -9.87705e-16 0)
(1.23673e-20 -9.877e-16 0)
(2.49808e-20 -9.87697e-16 0)
(3.73973e-20 -9.87699e-16 0)
(4.82661e-20 -9.87704e-16 0)
(5.62958e-20 -9.87711e-16 0)
(6.1266e-20 -9.87718e-16 0)
(6.40235e-20 -9.87725e-16 0)
(6.53173e-20 -9.87729e-16 0)
(6.80888e-20 -9.87731e-16 0)
(6.94775e-20 -9.87738e-16 0)
(6.71043e-20 -9.87742e-16 0)
(6.77563e-20 -9.87739e-16 0)
(7.17344e-20 -9.87741e-16 0)
(7.00885e-20 -9.8775e-16 0)
(6.68239e-20 -9.87745e-16 0)
(7.79845e-20 -9.87735e-16 0)
(8.48285e-20 -9.87761e-16 0)
(7.05009e-20 -9.87775e-16 0)
(5.64524e-20 -9.87766e-16 0)
(6.84538e-20 -9.87742e-16 0)
(7.75506e-20 -9.8778e-16 0)
(5.35822e-20 -9.87803e-16 0)
(1.80798e-20 -9.878e-16 0)
(-7.16716e-21 -9.87768e-16 0)
(2.88567e-20 -9.87698e-16 0)
(6.35607e-20 -9.87772e-16 0)
(4.30396e-20 -9.87792e-16 0)
(2.03458e-20 -9.87792e-16 0)
(1.03887e-20 -9.87772e-16 0)
(-3.13012e-11 -1.70374e-15 0)
(-3.04606e-07 -4.51852e-06 0)
(-2.07006e-05 -0.000180433 0)
(-2.03961e-05 -0.000498365 0)
(2.03961e-05 -0.000498365 0)
(2.07006e-05 -0.000180433 0)
(3.04606e-07 -4.51852e-06 0)