/*--------------------------------*- C++ -*----------------------------------*\
  =========                 |
  \\      /  F ield         | OpenFOAM: The Open Source CFD Toolbox
   \\    /   O peration     | Website:  https://openfoam.org
    \\  /    A nd           | Version:  10
     \\/     M anipulation  |
\*---------------------------------------------------------------------------*/
FoamFile
{
    format      ascii;
    class       volVectorField;
    location    "8100";
    object      Ua;
}
// * * * * * * * * * * * * * * * * * * * * * * * * * * * * * * * * * * * * * //

dimensions      [0 1 -1 0 0 0 0];

internalField   nonuniform List<vector> 
6400
(
(-2.3626e-07 4.80243e-08 0)
(-7.09791e-07 4.823e-08 0)
(-1.18637e-06 4.86446e-08 0)
(-1.6681e-06 4.9275e-08 0)
(-2.15714e-06 5.01315e-08 0)
(-2.65579e-06 5.12284e-08 0)
(-3.1665e-06 5.25846e-08 0)
(-3.69196e-06 5.42245e-08 0)
(-4.2351e-06 5.61782e-08 0)
(-4.79918e-06 5.84836e-08 0)
(-5.38792e-06 6.11877e-08 0)
(-6.0055e-06 6.43485e-08 0)
(-6.65679e-06 6.80384e-08 0)
(-7.34744e-06 7.23478e-08 0)
(-8.08408e-06 7.73899e-08 0)
(-8.87465e-06 8.33084e-08 0)
(-9.72867e-06 9.02871e-08 0)
(-1.06577e-05 9.85634e-08 0)
(-1.16762e-05 1.08448e-07 0)
(-1.28018e-05 1.20354e-07 0)
(-1.40572e-05 1.3484e-07 0)
(-1.54717e-05 1.52673e-07 0)
(-1.70834e-05 1.74934e-07 0)
(-1.89435e-05 2.03183e-07 0)
(-2.11225e-05 2.39739e-07 0)
(-2.37196e-05 2.88171e-07 0)
(-2.68799e-05 3.54208e-07 0)
(-3.0824e-05 4.47508e-07 0)
(-3.59054e-05 5.85384e-07 0)
(-4.27272e-05 8.01278e-07 0)
(-5.24063e-05 1.16619e-06 0)
(-6.72449e-05 1.85005e-06 0)
(-8.2722e-05 2.9159e-06 0)
(-9.7735e-05 3.9504e-06 0)
(-0.000118648 5.61427e-06 0)
(-0.000148665 8.11409e-06 0)
(-0.000184951 8.49797e-06 0)
(-0.000110791 6.87781e-05 0)
(-1.02136e-05 1.68256e-05 0)
(-1.1704e-06 6.1005e-06 0)
(1.1704e-06 6.1005e-06 0)
(1.02136e-05 1.68256e-05 0)
(0.000110791 6.87781e-05 0)
(0.000184951 8.49797e-06 0)
(0.000148665 8.11409e-06 0)
(0.000118648 5.61427e-06 0)
(9.7735e-05 3.9504e-06 0)
(8.2722e-05 2.9159e-06 0)
(6.72449e-05 1.85005e-06 0)
(5.24063e-05 1.16619e-06 0)
(4.27272e-05 8.01278e-07 0)
(3.59054e-05 5.85384e-07 0)
(3.0824e-05 4.47508e-07 0)
(2.68799e-05 3.54208e-07 0)
(2.37196e-05 2.88171e-07 0)
(2.11225e-05 2.39739e-07 0)
(1.89435e-05 2.03183e-07 0)
(1.70834e-05 1.74934e-07 0)
(1.54717e-05 1.52673e-07 0)
(1.40572e-05 1.3484e-07 0)
(1.28018e-05 1.20354e-07 0)
(1.16762e-05 1.08448e-07 0)
(1.06577e-05 9.85634e-08 0)
(9.72867e-06 9.02871e-08 0)
(8.87465e-06 8.33084e-08 0)
(8.08408e-06 7.73899e-08 0)
(7.34744e-06 7.23478e-08 0)
(6.65679e-06 6.80384e-08 0)
(6.0055e-06 6.43485e-08 0)
(5.38792e-06 6.11877e-08 0)
(4.79918e-06 5.84836e-08 0)
(4.2351e-06 5.61782e-08 0)
(3.69196e-06 5.42245e-08 0)
(3.1665e-06 5.25846e-08 0)
(2.65579e-06 5.12284e-08 0)
(2.15714e-06 5.01315e-08 0)
(1.6681e-06 4.9275e-08 0)
(1.18637e-06 4.86446e-08 0)
(7.09791e-07 4.823e-08 0)
(2.3626e-07 4.80243e-08 0)
(-2.36216e-07 1.48713e-07 0)
(-7.09659e-07 1.4935e-07 0)
(-1.18615e-06 1.50634e-07 0)
(-1.66778e-06 1.52585e-07 0)
(-2.15672e-06 1.55237e-07 0)
(-2.65526e-06 1.58633e-07 0)
(-3.16587e-06 1.62832e-07 0)
(-3.69119e-06 1.67909e-07 0)
(-4.23419e-06 1.73957e-07 0)
(-4.79812e-06 1.81095e-07 0)
(-5.38667e-06 1.89466e-07 0)
(-6.00404e-06 1.99251e-07 0)
(-6.65509e-06 2.10674e-07 0)
(-7.34544e-06 2.24014e-07 0)
(-8.08175e-06 2.39621e-07 0)
(-8.8719e-06 2.57941e-07 0)
(-9.72542e-06 2.79542e-07 0)
(-1.06539e-05 3.05157e-07 0)
(-1.16715e-05 3.35749e-07 0)
(-1.27961e-05 3.72594e-07 0)
(-1.40503e-05 4.17417e-07 0)
(-1.54631e-05 4.72591e-07 0)
(-1.70726e-05 5.41456e-07 0)
(-1.89297e-05 6.28828e-07 0)
(-2.11044e-05 7.41865e-07 0)
(-2.36952e-05 8.91579e-07 0)
(-2.68459e-05 1.09562e-06 0)
(-3.07747e-05 1.38374e-06 0)
(-3.583e-05 1.80913e-06 0)
(-4.26034e-05 2.47434e-06 0)
(-5.21828e-05 3.59633e-06 0)
(-6.67847e-05 5.69164e-06 0)
(-8.19114e-05 8.93897e-06 0)
(-9.64412e-05 1.20823e-05 0)
(-0.000116652 1.71854e-05 0)
(-0.000147283 2.56373e-05 0)
(-0.000207599 3.78453e-05 0)
(-0.000145785 0.000138795 0)
(-2.49697e-05 2.10668e-05 0)
(-3.76414e-06 1.00101e-05 0)
(3.76414e-06 1.00101e-05 0)
(2.49697e-05 2.10668e-05 0)
(0.000145785 0.000138795 0)
(0.000207599 3.78453e-05 0)
(0.000147283 2.56373e-05 0)
(0.000116652 1.71854e-05 0)
(9.64412e-05 1.20823e-05 0)
(8.19114e-05 8.93897e-06 0)
(6.67847e-05 5.69164e-06 0)
(5.21828e-05 3.59633e-06 0)
(4.26034e-05 2.47434e-06 0)
(3.583e-05 1.80913e-06 0)
(3.07747e-05 1.38374e-06 0)
(2.68459e-05 1.09562e-06 0)
(2.36952e-05 8.91579e-07 0)
(2.11044e-05 7.41865e-07 0)
(1.89297e-05 6.28828e-07 0)
(1.70726e-05 5.41456e-07 0)
(1.54631e-05 4.72591e-07 0)
(1.40503e-05 4.17417e-07 0)
(1.27961e-05 3.72594e-07 0)
(1.16715e-05 3.35749e-07 0)
(1.06539e-05 3.05157e-07 0)
(9.72542e-06 2.79542e-07 0)
(8.8719e-06 2.57941e-07 0)
(8.08175e-06 2.39621e-07 0)
(7.34544e-06 2.24014e-07 0)
(6.65509e-06 2.10674e-07 0)
(6.00404e-06 1.99251e-07 0)
(5.38667e-06 1.89466e-07 0)
(4.79812e-06 1.81095e-07 0)
(4.23419e-06 1.73957e-07 0)
(3.69119e-06 1.67909e-07 0)
(3.16587e-06 1.62832e-07 0)
(2.65526e-06 1.58633e-07 0)
(2.15672e-06 1.55237e-07 0)
(1.66778e-06 1.52585e-07 0)
(1.18615e-06 1.50634e-07 0)
(7.09659e-07 1.4935e-07 0)
(2.36216e-07 1.48713e-07 0)
(-2.36115e-07 2.59117e-07 0)
(-7.09355e-07 2.60226e-07 0)
(-1.18564e-06 2.62462e-07 0)
(-1.66705e-06 2.65861e-07 0)
(-2.15576e-06 2.70479e-07 0)
(-2.65406e-06 2.76394e-07 0)
(-3.1644e-06 2.83707e-07 0)
(-3.68943e-06 2.92548e-07 0)
(-4.2321e-06 3.03081e-07 0)
(-4.79566e-06 3.15511e-07 0)
(-5.3838e-06 3.30088e-07 0)
(-6.00069e-06 3.47127e-07 0)
(-6.65117e-06 3.67016e-07 0)
(-7.34086e-06 3.90242e-07 0)
(-8.07638e-06 4.17414e-07 0)
(-8.86559e-06 4.49306e-07 0)
(-9.71795e-06 4.86904e-07 0)
(-1.0645e-05 5.31486e-07 0)
(-1.16608e-05 5.8472e-07 0)
(-1.27832e-05 6.48826e-07 0)
(-1.40345e-05 7.26795e-07 0)
(-1.54435e-05 8.22746e-07 0)
(-1.70479e-05 9.42466e-07 0)
(-1.8898e-05 1.0943e-06 0)
(-2.10629e-05 1.29063e-06 0)
(-2.36393e-05 1.55048e-06 0)
(-2.67681e-05 1.90428e-06 0)
(-3.0662e-05 2.4032e-06 0)
(-3.56578e-05 3.1384e-06 0)
(-4.23214e-05 4.28472e-06 0)
(-5.16759e-05 6.2092e-06 0)
(-6.57488e-05 9.77561e-06 0)
(-8.00963e-05 1.52324e-05 0)
(-9.35233e-05 2.04652e-05 0)
(-0.000111712 2.89486e-05 0)
(-0.000137934 4.36673e-05 0)
(-0.000179361 7.28679e-05 0)
(-0.000131043 0.000139481 0)
(-3.57381e-05 2.94636e-05 0)
(-7.25409e-06 1.89137e-05 0)
(7.25409e-06 1.89137e-05 0)
(3.57381e-05 2.94636e-05 0)
(0.000131043 0.000139481 0)
(0.000179361 7.28679e-05 0)
(0.000137934 4.36673e-05 0)
(0.000111712 2.89486e-05 0)
(9.35233e-05 2.04652e-05 0)
(8.00963e-05 1.52324e-05 0)
(6.57488e-05 9.77561e-06 0)
(5.16759e-05 6.2092e-06 0)
(4.23214e-05 4.28472e-06 0)
(3.56578e-05 3.1384e-06 0)
(3.0662e-05 2.4032e-06 0)
(2.67681e-05 1.90428e-06 0)
(2.36393e-05 1.55048e-06 0)
(2.10629e-05 1.29063e-06 0)
(1.8898e-05 1.0943e-06 0)
(1.70479e-05 9.42466e-07 0)
(1.54435e-05 8.22746e-07 0)
(1.40345e-05 7.26795e-07 0)
(1.27832e-05 6.48826e-07 0)
(1.16608e-05 5.8472e-07 0)
(1.0645e-05 5.31486e-07 0)
(9.71795e-06 4.86904e-07 0)
(8.86559e-06 4.49306e-07 0)
(8.07638e-06 4.17414e-07 0)
(7.34086e-06 3.90242e-07 0)
(6.65117e-06 3.67016e-07 0)
(6.00069e-06 3.47127e-07 0)
(5.3838e-06 3.30088e-07 0)
(4.79566e-06 3.15511e-07 0)
(4.2321e-06 3.03081e-07 0)
(3.68943e-06 2.92548e-07 0)
(3.1644e-06 2.83707e-07 0)
(2.65406e-06 2.76394e-07 0)
(2.15576e-06 2.70479e-07 0)
(1.66705e-06 2.65861e-07 0)
(1.18564e-06 2.62462e-07 0)
(7.09355e-07 2.60226e-07 0)
(2.36115e-07 2.59117e-07 0)
(-2.35941e-07 3.80139e-07 0)
(-7.08831e-07 3.81765e-07 0)
(-1.18476e-06 3.85043e-07 0)
(-1.6658e-06 3.90026e-07 0)
(-2.15411e-06 3.96796e-07 0)
(-2.65199e-06 4.05467e-07 0)
(-3.16187e-06 4.16187e-07 0)
(-3.6864e-06 4.29147e-07 0)
(-4.2285e-06 4.44586e-07 0)
(-4.79143e-06 4.62803e-07 0)
(-5.37884e-06 4.84168e-07 0)
(-5.9949e-06 5.09138e-07 0)
(-6.64441e-06 5.38282e-07 0)
(-7.33297e-06 5.72311e-07 0)
(-8.06712e-06 6.12118e-07 0)
(-8.8547e-06 6.58832e-07 0)
(-9.70508e-06 7.13896e-07 0)
(-1.06297e-05 7.79172e-07 0)
(-1.16425e-05 8.571e-07 0)
(-1.2761e-05 9.50913e-07 0)
(-1.40073e-05 1.06497e-06 0)
(-1.54097e-05 1.20528e-06 0)
(-1.70054e-05 1.38024e-06 0)
(-1.88435e-05 1.60198e-06 0)
(-2.09915e-05 1.88844e-06 0)
(-2.35433e-05 2.26714e-06 0)
(-2.66348e-05 2.78193e-06 0)
(-3.04692e-05 3.5062e-06 0)
(-3.53643e-05 4.56999e-06 0)
(-4.18434e-05 6.22045e-06 0)
(-5.08242e-05 8.96976e-06 0)
(-6.40336e-05 1.39994e-05 0)
(-7.71316e-05 2.15275e-05 0)
(-8.88116e-05 2.86065e-05 0)
(-0.000103746 3.98277e-05 0)
(-0.000122853 5.87467e-05 0)
(-0.000144807 9.38321e-05 0)
(-0.000100581 0.000125514 0)
(-3.08745e-05 2.61303e-05 0)
(-8.32309e-06 2.32103e-05 0)
(8.32309e-06 2.32103e-05 0)
(3.08745e-05 2.61303e-05 0)
(0.000100581 0.000125514 0)
(0.000144807 9.38321e-05 0)
(0.000122853 5.87467e-05 0)
(0.000103746 3.98277e-05 0)
(8.88116e-05 2.86065e-05 0)
(7.71316e-05 2.15275e-05 0)
(6.40336e-05 1.39994e-05 0)
(5.08242e-05 8.96976e-06 0)
(4.18434e-05 6.22045e-06 0)
(3.53643e-05 4.56999e-06 0)
(3.04692e-05 3.5062e-06 0)
(2.66348e-05 2.78193e-06 0)
(2.35433e-05 2.26714e-06 0)
(2.09915e-05 1.88844e-06 0)
(1.88435e-05 1.60198e-06 0)
(1.70054e-05 1.38024e-06 0)
(1.54097e-05 1.20528e-06 0)
(1.40073e-05 1.06497e-06 0)
(1.2761e-05 9.50913e-07 0)
(1.16425e-05 8.571e-07 0)
(1.06297e-05 7.79172e-07 0)
(9.70508e-06 7.13896e-07 0)
(8.8547e-06 6.58832e-07 0)
(8.06712e-06 6.12118e-07 0)
(7.33297e-06 5.72311e-07 0)
(6.64441e-06 5.38282e-07 0)
(5.9949e-06 5.09138e-07 0)
(5.37884e-06 4.84168e-07 0)
(4.79143e-06 4.62803e-07 0)
(4.2285e-06 4.44586e-07 0)
(3.6864e-06 4.29147e-07 0)
(3.16187e-06 4.16187e-07 0)
(2.65199e-06 4.05467e-07 0)
(2.15411e-06 3.96796e-07 0)
(1.6658e-06 3.90026e-07 0)
(1.18476e-06 3.85043e-07 0)
(7.08831e-07 3.81765e-07 0)
(2.35941e-07 3.80139e-07 0)
(-2.35675e-07 5.12754e-07 0)
(-7.08027e-07 5.14945e-07 0)
(-1.1834e-06 5.19362e-07 0)
(-1.66387e-06 5.26076e-07 0)
(-2.15158e-06 5.35198e-07 0)
(-2.64881e-06 5.46879e-07 0)
(-3.15798e-06 5.61322e-07 0)
(-3.68174e-06 5.78781e-07 0)
(-4.22299e-06 5.99579e-07 0)
(-4.78494e-06 6.24116e-07 0)
(-5.37125e-06 6.52889e-07 0)
(-5.98603e-06 6.86514e-07 0)
(-6.63406e-06 7.25755e-07 0)
(-7.32086e-06 7.71566e-07 0)
(-8.05295e-06 8.25144e-07 0)
(-8.83802e-06 8.88004e-07 0)
(-9.68536e-06 9.6208e-07 0)
(-1.06062e-05 1.04987e-06 0)
(-1.16143e-05 1.15463e-06 0)
(-1.27269e-05 1.28069e-06 0)
(-1.39656e-05 1.43388e-06 0)
(-1.53581e-05 1.62218e-06 0)
(-1.69404e-05 1.85681e-06 0)
(-1.87604e-05 2.15384e-06 0)
(-2.08827e-05 2.53705e-06 0)
(-2.33973e-05 3.04273e-06 0)
(-2.64326e-05 3.72845e-06 0)
(-3.01778e-05 4.68991e-06 0)
(-3.49229e-05 6.09514e-06 0)
(-4.11305e-05 8.25928e-06 0)
(-4.9571e-05 1.18228e-05 0)
(-6.15694e-05 1.82191e-05 0)
(-7.29734e-05 2.7486e-05 0)
(-8.2401e-05 3.59369e-05 0)
(-9.34141e-05 4.87995e-05 0)
(-0.000105225 6.91242e-05 0)
(-0.000113828 0.000102399 0)
(-7.29881e-05 0.000109037 0)
(-2.14692e-05 1.75533e-05 0)
(-6.7364e-06 2.01501e-05 0)
(6.7364e-06 2.01501e-05 0)
(2.14692e-05 1.75533e-05 0)
(7.29881e-05 0.000109037 0)
(0.000113828 0.000102399 0)
(0.000105225 6.91242e-05 0)
(9.34141e-05 4.87995e-05 0)
(8.2401e-05 3.59369e-05 0)
(7.29734e-05 2.7486e-05 0)
(6.15694e-05 1.82191e-05 0)
(4.9571e-05 1.18228e-05 0)
(4.11305e-05 8.25928e-06 0)
(3.49229e-05 6.09514e-06 0)
(3.01778e-05 4.68991e-06 0)
(2.64326e-05 3.72845e-06 0)
(2.33973e-05 3.04273e-06 0)
(2.08827e-05 2.53705e-06 0)
(1.87604e-05 2.15384e-06 0)
(1.69404e-05 1.85681e-06 0)
(1.53581e-05 1.62218e-06 0)
(1.39656e-05 1.43388e-06 0)
(1.27269e-05 1.28069e-06 0)
(1.16143e-05 1.15463e-06 0)
(1.06062e-05 1.04987e-06 0)
(9.68536e-06 9.6208e-07 0)
(8.83802e-06 8.88004e-07 0)
(8.05295e-06 8.25144e-07 0)
(7.32086e-06 7.71566e-07 0)
(6.63406e-06 7.25755e-07 0)
(5.98603e-06 6.86514e-07 0)
(5.37125e-06 6.52889e-07 0)
(4.78494e-06 6.24116e-07 0)
(4.22299e-06 5.99579e-07 0)
(3.68174e-06 5.78781e-07 0)
(3.15798e-06 5.61322e-07 0)
(2.64881e-06 5.46879e-07 0)
(2.15158e-06 5.35198e-07 0)
(1.66387e-06 5.26076e-07 0)
(1.1834e-06 5.19362e-07 0)
(7.08027e-07 5.14945e-07 0)
(2.35675e-07 5.12754e-07 0)
(-2.35291e-07 6.58007e-07 0)
(-7.0687e-07 6.60814e-07 0)
(-1.18145e-06 6.66474e-07 0)
(-1.6611e-06 6.75077e-07 0)
(-2.14794e-06 6.86764e-07 0)
(-2.64424e-06 7.0173e-07 0)
(-3.1524e-06 7.20231e-07 0)
(-3.67505e-06 7.42595e-07 0)
(-4.21506e-06 7.69233e-07 0)
(-4.77562e-06 8.00657e-07 0)
(-5.36033e-06 8.37499e-07 0)
(-5.97329e-06 8.80547e-07 0)
(-6.61919e-06 9.30774e-07 0)
(-7.30348e-06 9.89396e-07 0)
(-8.03259e-06 1.05794e-06 0)
(-8.81408e-06 1.13833e-06 0)
(-9.65706e-06 1.23303e-06 0)
(-1.05725e-05 1.34521e-06 0)
(-1.1574e-05 1.47901e-06 0)
(-1.26781e-05 1.6399e-06 0)
(-1.3906e-05 1.83526e-06 0)
(-1.52843e-05 2.07518e-06 0)
(-1.68477e-05 2.37376e-06 0)
(-1.86418e-05 2.75119e-06 0)
(-2.07279e-05 3.23718e-06 0)
(-2.319e-05 3.87682e-06 0)
(-2.61464e-05 4.74121e-06 0)
(-2.97675e-05 5.94737e-06 0)
(-3.43061e-05 7.6981e-06 0)
(-4.01459e-05 1.03668e-05 0)
(-4.78736e-05 1.46918e-05 0)
(-5.83419e-05 2.22576e-05 0)
(-6.77121e-05 3.27506e-05 0)
(-7.46415e-05 4.19434e-05 0)
(-8.17154e-05 5.52185e-05 0)
(-8.73641e-05 7.46244e-05 0)
(-8.75776e-05 0.000102749 0)
(-5.23074e-05 9.21734e-05 0)
(-1.42342e-05 1.07922e-05 0)
(-4.73346e-06 1.41468e-05 0)
(4.73346e-06 1.41468e-05 0)
(1.42342e-05 1.07922e-05 0)
(5.23074e-05 9.21734e-05 0)
(8.75776e-05 0.000102749 0)
(8.73641e-05 7.46244e-05 0)
(8.17154e-05 5.52185e-05 0)
(7.46415e-05 4.19434e-05 0)
(6.77121e-05 3.27506e-05 0)
(5.83419e-05 2.22576e-05 0)
(4.78736e-05 1.46918e-05 0)
(4.01459e-05 1.03668e-05 0)
(3.43061e-05 7.6981e-06 0)
(2.97675e-05 5.94737e-06 0)
(2.61464e-05 4.74121e-06 0)
(2.319e-05 3.87682e-06 0)
(2.07279e-05 3.23718e-06 0)
(1.86418e-05 2.75119e-06 0)
(1.68477e-05 2.37376e-06 0)
(1.52843e-05 2.07518e-06 0)
(1.3906e-05 1.83526e-06 0)
(1.26781e-05 1.6399e-06 0)
(1.1574e-05 1.47901e-06 0)
(1.05725e-05 1.34521e-06 0)
(9.65706e-06 1.23303e-06 0)
(8.81408e-06 1.13833e-06 0)
(8.03259e-06 1.05794e-06 0)
(7.30348e-06 9.89396e-07 0)
(6.61919e-06 9.30774e-07 0)
(5.97329e-06 8.80547e-07 0)
(5.36033e-06 8.37499e-07 0)
(4.77562e-06 8.00657e-07 0)
(4.21506e-06 7.69233e-07 0)
(3.67505e-06 7.42595e-07 0)
(3.1524e-06 7.20231e-07 0)
(2.64424e-06 7.0173e-07 0)
(2.14794e-06 6.86764e-07 0)
(1.6611e-06 6.75077e-07 0)
(1.18145e-06 6.66474e-07 0)
(7.0687e-07 6.60814e-07 0)
(2.35291e-07 6.58007e-07 0)
(-2.34762e-07 8.17013e-07 0)
(-7.05274e-07 8.20492e-07 0)
(-1.17877e-06 8.27504e-07 0)
(-1.65727e-06 8.38163e-07 0)
(-2.14292e-06 8.52642e-07 0)
(-2.63793e-06 8.71182e-07 0)
(-3.1447e-06 8.94099e-07 0)
(-3.66581e-06 9.21798e-07 0)
(-4.20411e-06 9.54785e-07 0)
(-4.76275e-06 9.93691e-07 0)
(-5.34528e-06 1.0393e-06 0)
(-5.95571e-06 1.09257e-06 0)
(-6.59868e-06 1.15471e-06 0)
(-7.27953e-06 1.22722e-06 0)
(-8.00453e-06 1.31196e-06 0)
(-8.78111e-06 1.41131e-06 0)
(-9.61811e-06 1.52828e-06 0)
(-1.05262e-05 1.66675e-06 0)
(-1.15185e-05 1.83179e-06 0)
(-1.26111e-05 2.03008e-06 0)
(-1.38241e-05 2.27058e-06 0)
(-1.51831e-05 2.56555e-06 0)
(-1.67207e-05 2.93204e-06 0)
(-1.84798e-05 3.39437e-06 0)
(-2.05169e-05 3.98809e-06 0)
(-2.29086e-05 4.76681e-06 0)
(-2.57599e-05 5.81424e-06 0)
(-2.92173e-05 7.26639e-06 0)
(-3.34876e-05 9.35488e-06 0)
(-3.88599e-05 1.24957e-05 0)
(-4.57128e-05 1.74817e-05 0)
(-5.44075e-05 2.59227e-05 0)
(-6.15708e-05 3.70113e-05 0)
(-6.60509e-05 4.6281e-05 0)
(-6.96716e-05 5.88997e-05 0)
(-7.07764e-05 7.59239e-05 0)
(-6.62861e-05 9.803e-05 0)
(-3.72342e-05 7.6287e-05 0)
(-9.33898e-06 6.54629e-06 0)
(-3.17946e-06 9.04284e-06 0)
(3.17946e-06 9.04284e-06 0)
(9.33898e-06 6.54629e-06 0)
(3.72342e-05 7.6287e-05 0)
(6.62861e-05 9.803e-05 0)
(7.07764e-05 7.59239e-05 0)
(6.96716e-05 5.88997e-05 0)
(6.60509e-05 4.6281e-05 0)
(6.15708e-05 3.70113e-05 0)
(5.44075e-05 2.59227e-05 0)
(4.57128e-05 1.74817e-05 0)
(3.88599e-05 1.24957e-05 0)
(3.34876e-05 9.35488e-06 0)
(2.92173e-05 7.26639e-06 0)
(2.57599e-05 5.81424e-06 0)
(2.29086e-05 4.76681e-06 0)
(2.05169e-05 3.98809e-06 0)
(1.84798e-05 3.39437e-06 0)
(1.67207e-05 2.93204e-06 0)
(1.51831e-05 2.56555e-06 0)
(1.38241e-05 2.27058e-06 0)
(1.26111e-05 2.03008e-06 0)
(1.15185e-05 1.83179e-06 0)
(1.05262e-05 1.66675e-06 0)
(9.61811e-06 1.52828e-06 0)
(8.78111e-06 1.41131e-06 0)
(8.00453e-06 1.31196e-06 0)
(7.27953e-06 1.22722e-06 0)
(6.59868e-06 1.15471e-06 0)
(5.95571e-06 1.09257e-06 0)
(5.34528e-06 1.0393e-06 0)
(4.76275e-06 9.93691e-07 0)
(4.20411e-06 9.54785e-07 0)
(3.66581e-06 9.21798e-07 0)
(3.1447e-06 8.94099e-07 0)
(2.63793e-06 8.71182e-07 0)
(2.14292e-06 8.52642e-07 0)
(1.65727e-06 8.38163e-07 0)
(1.17877e-06 8.27504e-07 0)
(7.05274e-07 8.20492e-07 0)
(2.34762e-07 8.17013e-07 0)
(-2.34052e-07 9.90953e-07 0)
(-7.03132e-07 9.9516e-07 0)
(-1.17516e-06 1.00364e-06 0)
(-1.65214e-06 1.01653e-06 0)
(-2.13618e-06 1.03404e-06 0)
(-2.62947e-06 1.05646e-06 0)
(-3.13437e-06 1.08417e-06 0)
(-3.65343e-06 1.11765e-06 0)
(-4.18944e-06 1.15751e-06 0)
(-4.7455e-06 1.20452e-06 0)
(-5.3251e-06 1.25961e-06 0)
(-5.93216e-06 1.32395e-06 0)
(-6.57121e-06 1.39896e-06 0)
(-7.24746e-06 1.48644e-06 0)
(-7.96699e-06 1.58864e-06 0)
(-8.73701e-06 1.70838e-06 0)
(-9.56605e-06 1.84926e-06 0)
(-1.04644e-05 2.01589e-06 0)
(-1.14445e-05 2.21431e-06 0)
(-1.25218e-05 2.45241e-06 0)
(-1.37152e-05 2.7408e-06 0)
(-1.50486e-05 3.09389e-06 0)
(-1.65524e-05 3.53164e-06 0)
(-1.82656e-05 4.08235e-06 0)
(-2.0239e-05 4.78712e-06 0)
(-2.25397e-05 5.70728e-06 0)
(-2.52563e-05 6.93742e-06 0)
(-2.8507e-05 8.62868e-06 0)
(-3.24451e-05 1.10326e-05 0)
(-3.7255e-05 1.45864e-05 0)
(-4.31008e-05 2.00855e-05 0)
(-4.98941e-05 2.9033e-05 0)
(-5.4871e-05 4.0064e-05 0)
(-5.71997e-05 4.88297e-05 0)
(-5.81341e-05 6.00502e-05 0)
(-5.63018e-05 7.40529e-05 0)
(-4.96738e-05 9.05373e-05 0)
(-2.64545e-05 6.20911e-05 0)
(-6.12487e-06 3.92974e-06 0)
(-2.10321e-06 5.5361e-06 0)
(2.10321e-06 5.5361e-06 0)
(6.12487e-06 3.92974e-06 0)
(2.64545e-05 6.20911e-05 0)
(4.96738e-05 9.05373e-05 0)
(5.63018e-05 7.40529e-05 0)
(5.81341e-05 6.00502e-05 0)
(5.71997e-05 4.88297e-05 0)
(5.4871e-05 4.0064e-05 0)
(4.98941e-05 2.9033e-05 0)
(4.31008e-05 2.00855e-05 0)
(3.7255e-05 1.45864e-05 0)
(3.24451e-05 1.10326e-05 0)
(2.8507e-05 8.62868e-06 0)
(2.52563e-05 6.93742e-06 0)
(2.25397e-05 5.70728e-06 0)
(2.0239e-05 4.78712e-06 0)
(1.82656e-05 4.08235e-06 0)
(1.65524e-05 3.53164e-06 0)
(1.50486e-05 3.09389e-06 0)
(1.37152e-05 2.7408e-06 0)
(1.25218e-05 2.45241e-06 0)
(1.14445e-05 2.21431e-06 0)
(1.04644e-05 2.01589e-06 0)
(9.56605e-06 1.84926e-06 0)
(8.73701e-06 1.70838e-06 0)
(7.96699e-06 1.58864e-06 0)
(7.24746e-06 1.48644e-06 0)
(6.57121e-06 1.39896e-06 0)
(5.93216e-06 1.32395e-06 0)
(5.3251e-06 1.25961e-06 0)
(4.7455e-06 1.20452e-06 0)
(4.18944e-06 1.15751e-06 0)
(3.65343e-06 1.11765e-06 0)
(3.13437e-06 1.08417e-06 0)
(2.62947e-06 1.05646e-06 0)
(2.13618e-06 1.03404e-06 0)
(1.65214e-06 1.01653e-06 0)
(1.17516e-06 1.00364e-06 0)
(7.03132e-07 9.9516e-07 0)
(2.34052e-07 9.90953e-07 0)
(-2.33119e-07 1.18106e-06 0)
(-7.00318e-07 1.18606e-06 0)
(-1.17042e-06 1.19613e-06 0)
(-1.6454e-06 1.21143e-06 0)
(-2.12732e-06 1.23222e-06 0)
(-2.61835e-06 1.25883e-06 0)
(-3.1208e-06 1.29171e-06 0)
(-3.63716e-06 1.33144e-06 0)
(-4.17018e-06 1.37873e-06 0)
(-4.72287e-06 1.43448e-06 0)
(-5.29863e-06 1.49978e-06 0)
(-5.90128e-06 1.57601e-06 0)
(-6.53521e-06 1.66486e-06 0)
(-7.20544e-06 1.76841e-06 0)
(-7.91785e-06 1.8893e-06 0)
(-8.67932e-06 2.03083e-06 0)
(-9.498e-06 2.19719e-06 0)
(-1.03837e-05 2.39376e-06 0)
(-1.13481e-05 2.62752e-06 0)
(-1.24055e-05 2.9076e-06 0)
(-1.35736e-05 3.24621e-06 0)
(-1.48743e-05 3.65985e-06 0)
(-1.63348e-05 4.17124e-06 0)
(-1.79896e-05 4.81235e-06 0)
(-1.98826e-05 5.62912e-06 0)
(-2.20692e-05 6.68934e-06 0)
(-2.46197e-05 8.09581e-06 0)
(-2.76194e-05 1.00093e-05 0)
(-3.11639e-05 1.26897e-05 0)
(-3.5331e-05 1.65706e-05 0)
(-4.00863e-05 2.23952e-05 0)
(-4.49872e-05 3.1447e-05 0)
(-4.79769e-05 4.18435e-05 0)
(-4.86067e-05 4.96875e-05 0)
(-4.76921e-05 5.91324e-05 0)
(-4.42608e-05 7.00833e-05 0)
(-3.71354e-05 8.18928e-05 0)
(-1.89166e-05 4.98624e-05 0)
(-4.06539e-06 2.32827e-06 0)
(-1.39599e-06 3.28666e-06 0)
(1.39599e-06 3.28666e-06 0)
(4.06539e-06 2.32827e-06 0)
(1.89166e-05 4.98624e-05 0)
(3.71354e-05 8.18928e-05 0)
(4.42608e-05 7.00833e-05 0)
(4.76921e-05 5.91324e-05 0)
(4.86067e-05 4.96875e-05 0)
(4.79769e-05 4.18435e-05 0)
(4.49872e-05 3.1447e-05 0)
(4.00863e-05 2.23952e-05 0)
(3.5331e-05 1.65706e-05 0)
(3.11639e-05 1.26897e-05 0)
(2.76194e-05 1.00093e-05 0)
(2.46197e-05 8.09581e-06 0)
(2.20692e-05 6.68934e-06 0)
(1.98826e-05 5.62912e-06 0)
(1.79896e-05 4.81235e-06 0)
(1.63348e-05 4.17124e-06 0)
(1.48743e-05 3.65985e-06 0)
(1.35736e-05 3.24621e-06 0)
(1.24055e-05 2.9076e-06 0)
(1.13481e-05 2.62752e-06 0)
(1.03837e-05 2.39376e-06 0)
(9.498e-06 2.19719e-06 0)
(8.67932e-06 2.03083e-06 0)
(7.91785e-06 1.8893e-06 0)
(7.20544e-06 1.76841e-06 0)
(6.53521e-06 1.66486e-06 0)
(5.90128e-06 1.57601e-06 0)
(5.29863e-06 1.49978e-06 0)
(4.72287e-06 1.43448e-06 0)
(4.17018e-06 1.37873e-06 0)
(3.63716e-06 1.33144e-06 0)
(3.1208e-06 1.29171e-06 0)
(2.61835e-06 1.25883e-06 0)
(2.12732e-06 1.23222e-06 0)
(1.6454e-06 1.21143e-06 0)
(1.17042e-06 1.19613e-06 0)
(7.00318e-07 1.18606e-06 0)
(2.33119e-07 1.18106e-06 0)
(-2.31912e-07 1.38861e-06 0)
(-6.96679e-07 1.39446e-06 0)
(-1.16429e-06 1.40624e-06 0)
(-1.63668e-06 1.42415e-06 0)
(-2.11588e-06 1.44847e-06 0)
(-2.60399e-06 1.47959e-06 0)
(-3.10327e-06 1.51804e-06 0)
(-3.61616e-06 1.56448e-06 0)
(-4.14531e-06 1.61974e-06 0)
(-4.69366e-06 1.68486e-06 0)
(-5.26448e-06 1.76111e-06 0)
(-5.86147e-06 1.85006e-06 0)
(-6.48882e-06 1.95367e-06 0)
(-7.15134e-06 2.07435e-06 0)
(-7.85462e-06 2.2151e-06 0)
(-8.60516e-06 2.37973e-06 0)
(-9.41064e-06 2.57301e-06 0)
(-1.02801e-05 2.80107e-06 0)
(-1.12245e-05 3.07183e-06 0)
(-1.22569e-05 3.39562e-06 0)
(-1.33931e-05 3.78615e-06 0)
(-1.46526e-05 4.26184e-06 0)
(-1.60591e-05 4.84787e-06 0)
(-1.76416e-05 5.57931e-06 0)
(-1.94357e-05 6.50595e-06 0)
(-2.14841e-05 7.70011e-06 0)
(-2.3836e-05 9.26924e-06 0)
(-2.65424e-05 1.13769e-05 0)
(-2.96403e-05 1.4278e-05 0)
(-3.3109e-05 1.83764e-05 0)
(-3.67522e-05 2.43153e-05 0)
(-3.9903e-05 3.30849e-05 0)
(-4.12348e-05 4.24216e-05 0)
(-4.06676e-05 4.91167e-05 0)
(-3.86606e-05 5.67183e-05 0)
(-3.46078e-05 6.49519e-05 0)
(-2.79093e-05 7.31609e-05 0)
(-1.37419e-05 3.96385e-05 0)
(-2.77701e-06 1.36855e-06 0)
(-9.49732e-07 1.90755e-06 0)
(9.49732e-07 1.90755e-06 0)
(2.77701e-06 1.36855e-06 0)
(1.37419e-05 3.96385e-05 0)
(2.79093e-05 7.31609e-05 0)
(3.46078e-05 6.49519e-05 0)
(3.86606e-05 5.67183e-05 0)
(4.06676e-05 4.91167e-05 0)
(4.12348e-05 4.24216e-05 0)
(3.9903e-05 3.30849e-05 0)
(3.67522e-05 2.43153e-05 0)
(3.3109e-05 1.83764e-05 0)
(2.96403e-05 1.4278e-05 0)
(2.65424e-05 1.13769e-05 0)
(2.3836e-05 9.26924e-06 0)
(2.14841e-05 7.70011e-06 0)
(1.94357e-05 6.50595e-06 0)
(1.76416e-05 5.57931e-06 0)
(1.60591e-05 4.84787e-06 0)
(1.46526e-05 4.26184e-06 0)
(1.33931e-05 3.78615e-06 0)
(1.22569e-05 3.39562e-06 0)
(1.12245e-05 3.07183e-06 0)
(1.02801e-05 2.80107e-06 0)
(9.41064e-06 2.57301e-06 0)
(8.60516e-06 2.37973e-06 0)
(7.85462e-06 2.2151e-06 0)
(7.15134e-06 2.07435e-06 0)
(6.48882e-06 1.95367e-06 0)
(5.86147e-06 1.85006e-06 0)
(5.26448e-06 1.76111e-06 0)
(4.69366e-06 1.68486e-06 0)
(4.14531e-06 1.61974e-06 0)
(3.61616e-06 1.56448e-06 0)
(3.10327e-06 1.51804e-06 0)
(2.60399e-06 1.47959e-06 0)
(2.11588e-06 1.44847e-06 0)
(1.63668e-06 1.42415e-06 0)
(1.16429e-06 1.40624e-06 0)
(6.96679e-07 1.39446e-06 0)
(2.31912e-07 1.38861e-06 0)
(-2.30373e-07 1.61491e-06 0)
(-6.92039e-07 1.62167e-06 0)
(-1.15647e-06 1.63529e-06 0)
(-1.62557e-06 1.65598e-06 0)
(-2.10129e-06 1.68408e-06 0)
(-2.58568e-06 1.72003e-06 0)
(-3.08093e-06 1.76443e-06 0)
(-3.5894e-06 1.81804e-06 0)
(-4.11365e-06 1.88181e-06 0)
(-4.65648e-06 1.95691e-06 0)
(-5.22105e-06 2.0448e-06 0)
(-5.81086e-06 2.14726e-06 0)
(-6.42989e-06 2.26651e-06 0)
(-7.08268e-06 2.40527e-06 0)
(-7.77446e-06 2.56694e-06 0)
(-8.51127e-06 2.75579e-06 0)
(-9.30017e-06 2.97718e-06 0)
(-1.01495e-05 3.23796e-06 0)
(-1.10689e-05 3.54692e-06 0)
(-1.20702e-05 3.91549e-06 0)
(-1.3167e-05 4.35871e-06 0)
(-1.43759e-05 4.89665e-06 0)
(-1.57164e-05 5.55647e-06 0)
(-1.72115e-05 6.37552e-06 0)
(-1.88875e-05 7.40603e-06 0)
(-2.0773e-05 8.72239e-06 0)
(-2.28954e-05 1.04324e-05 0)
(-2.52715e-05 1.26946e-05 0)
(-2.78845e-05 1.57454e-05 0)
(-3.06319e-05 1.99361e-05 0)
(-3.32079e-05 2.57764e-05 0)
(-3.48565e-05 3.39395e-05 0)
(-3.4925e-05 4.19768e-05 0)
(-3.36262e-05 4.74688e-05 0)
(-3.11226e-05 5.33721e-05 0)
(-2.70815e-05 5.93825e-05 0)
(-2.12477e-05 6.49699e-05 0)
(-1.02377e-05 3.13249e-05 0)
(-1.98452e-06 8.10047e-07 0)
(-6.76354e-07 1.09829e-06 0)
(6.76354e-07 1.09829e-06 0)
(1.98452e-06 8.10047e-07 0)
(1.02377e-05 3.13249e-05 0)
(2.12477e-05 6.49699e-05 0)
(2.70815e-05 5.93825e-05 0)
(3.11226e-05 5.33721e-05 0)
(3.36262e-05 4.74688e-05 0)
(3.4925e-05 4.19768e-05 0)
(3.48565e-05 3.39395e-05 0)
(3.32079e-05 2.57764e-05 0)
(3.06319e-05 1.99361e-05 0)
(2.78845e-05 1.57454e-05 0)
(2.52715e-05 1.26946e-05 0)
(2.28954e-05 1.04324e-05 0)
(2.0773e-05 8.72239e-06 0)
(1.88875e-05 7.40603e-06 0)
(1.72115e-05 6.37552e-06 0)
(1.57164e-05 5.55647e-06 0)
(1.43759e-05 4.89665e-06 0)
(1.3167e-05 4.35871e-06 0)
(1.20702e-05 3.91549e-06 0)
(1.10689e-05 3.54692e-06 0)
(1.01495e-05 3.23796e-06 0)
(9.30017e-06 2.97718e-06 0)
(8.51127e-06 2.75579e-06 0)
(7.77446e-06 2.56694e-06 0)
(7.08268e-06 2.40527e-06 0)
(6.42989e-06 2.26651e-06 0)
(5.81086e-06 2.14726e-06 0)
(5.22105e-06 2.0448e-06 0)
(4.65648e-06 1.95691e-06 0)
(4.11365e-06 1.88181e-06 0)
(3.5894e-06 1.81804e-06 0)
(3.08093e-06 1.76443e-06 0)
(2.58568e-06 1.72003e-06 0)
(2.10129e-06 1.68408e-06 0)
(1.62557e-06 1.65598e-06 0)
(1.15647e-06 1.63529e-06 0)
(6.92039e-07 1.62167e-06 0)
(2.30373e-07 1.61491e-06 0)
(-2.28433e-07 1.86125e-06 0)
(-6.86187e-07 1.86897e-06 0)
(-1.14662e-06 1.88455e-06 0)
(-1.61156e-06 1.9082e-06 0)
(-2.0829e-06 1.94032e-06 0)
(-2.56261e-06 1.9814e-06 0)
(-3.0528e-06 2.03212e-06 0)
(-3.55572e-06 2.09333e-06 0)
(-4.0738e-06 2.1661e-06 0)
(-4.60973e-06 2.25175e-06 0)
(-5.16647e-06 2.35191e-06 0)
(-5.74731e-06 2.46857e-06 0)
(-6.35597e-06 2.60421e-06 0)
(-6.99665e-06 2.76186e-06 0)
(-7.67415e-06 2.94529e-06 0)
(-8.39395e-06 3.15922e-06 0)
(-9.1624e-06 3.40955e-06 0)
(-9.98683e-06 3.70377e-06 0)
(-1.08758e-05 4.05146e-06 0)
(-1.1839e-05 4.46497e-06 0)
(-1.28882e-05 4.96043e-06 0)
(-1.40362e-05 5.55913e-06 0)
(-1.52981e-05 6.28953e-06 0)
(-1.669e-05 7.19022e-06 0)
(-1.82285e-05 8.31411e-06 0)
(-1.99278e-05 9.73477e-06 0)
(-2.1794e-05 1.15555e-05 0)
(-2.38123e-05 1.39224e-05 0)
(-2.59216e-05 1.7041e-05 0)
(-2.79621e-05 2.11941e-05 0)
(-2.95755e-05 2.67443e-05 0)
(-3.0032e-05 3.40725e-05 0)
(-2.92339e-05 4.07478e-05 0)
(-2.7581e-05 4.51118e-05 0)
(-2.49956e-05 4.95758e-05 0)
(-2.1322e-05 5.38779e-05 0)
(-1.64842e-05 5.76375e-05 0)
(-7.87205e-06 2.47314e-05 0)
(-1.49723e-06 4.95297e-07 0)
(-5.11029e-07 6.42843e-07 0)
(5.11029e-07 6.42843e-07 0)
(1.49723e-06 4.95297e-07 0)
(7.87205e-06 2.47314e-05 0)
(1.64842e-05 5.76375e-05 0)
(2.1322e-05 5.38779e-05 0)
(2.49956e-05 4.95758e-05 0)
(2.7581e-05 4.51118e-05 0)
(2.92339e-05 4.07478e-05 0)
(3.0032e-05 3.40725e-05 0)
(2.95755e-05 2.67443e-05 0)
(2.79621e-05 2.11941e-05 0)
(2.59216e-05 1.7041e-05 0)
(2.38123e-05 1.39224e-05 0)
(2.1794e-05 1.15555e-05 0)
(1.99278e-05 9.73477e-06 0)
(1.82285e-05 8.31411e-06 0)
(1.669e-05 7.19022e-06 0)
(1.52981e-05 6.28953e-06 0)
(1.40362e-05 5.55913e-06 0)
(1.28882e-05 4.96043e-06 0)
(1.1839e-05 4.46497e-06 0)
(1.08758e-05 4.05146e-06 0)
(9.98683e-06 3.70377e-06 0)
(9.1624e-06 3.40955e-06 0)
(8.39395e-06 3.15922e-06 0)
(7.67415e-06 2.94529e-06 0)
(6.99665e-06 2.76186e-06 0)
(6.35597e-06 2.60421e-06 0)
(5.74731e-06 2.46857e-06 0)
(5.16647e-06 2.35191e-06 0)
(4.60973e-06 2.25175e-06 0)
(4.0738e-06 2.1661e-06 0)
(3.55572e-06 2.09333e-06 0)
(3.0528e-06 2.03212e-06 0)
(2.56261e-06 1.9814e-06 0)
(2.0829e-06 1.94032e-06 0)
(1.61156e-06 1.9082e-06 0)
(1.14662e-06 1.88455e-06 0)
(6.86187e-07 1.86897e-06 0)
(2.28433e-07 1.86125e-06 0)
(-2.2601e-07 2.12885e-06 0)
(-6.78882e-07 2.1376e-06 0)
(-1.13432e-06 2.15523e-06 0)
(-1.59408e-06 2.18202e-06 0)
(-2.05996e-06 2.21837e-06 0)
(-2.53384e-06 2.26485e-06 0)
(-3.01773e-06 2.32222e-06 0)
(-3.51375e-06 2.39141e-06 0)
(-4.02419e-06 2.47361e-06 0)
(-4.55157e-06 2.57029e-06 0)
(-5.09863e-06 2.68324e-06 0)
(-5.66841e-06 2.81466e-06 0)
(-6.2643e-06 2.96726e-06 0)
(-6.89011e-06 3.14437e-06 0)
(-7.55013e-06 3.3501e-06 0)
(-8.24918e-06 3.58956e-06 0)
(-8.99277e-06 3.86912e-06 0)
(-9.78712e-06 4.19684e-06 0)
(-1.06393e-05 4.58288e-06 0)
(-1.15572e-05 5.04031e-06 0)
(-1.25496e-05 5.58597e-06 0)
(-1.3626e-05 6.24184e-06 0)
(-1.47962e-05 7.03685e-06 0)
(-1.60695e-05 8.00949e-06 0)
(-1.74525e-05 9.21139e-06 0)
(-1.89456e-05 1.07122e-05 0)
(-2.05356e-05 1.26062e-05 0)
(-2.21818e-05 1.502e-05 0)
(-2.37915e-05 1.81203e-05 0)
(-2.51752e-05 2.21137e-05 0)
(-2.59742e-05 2.72234e-05 0)
(-2.55634e-05 3.35967e-05 0)
(-2.42487e-05 3.89868e-05 0)
(-2.25123e-05 4.23759e-05 0)
(-2.00985e-05 4.56972e-05 0)
(-1.69535e-05 4.87524e-05 0)
(-1.3085e-05 5.12864e-05 0)
(-6.26711e-06 1.96167e-05 0)
(-1.18917e-06 3.23336e-07 0)
(-4.09841e-07 3.95732e-07 0)
(4.09841e-07 3.95732e-07 0)
(1.18917e-06 3.23336e-07 0)
(6.26711e-06 1.96167e-05 0)
(1.3085e-05 5.12864e-05 0)
(1.69535e-05 4.87524e-05 0)
(2.00985e-05 4.56972e-05 0)
(2.25123e-05 4.23759e-05 0)
(2.42487e-05 3.89868e-05 0)
(2.55634e-05 3.35967e-05 0)
(2.59742e-05 2.72234e-05 0)
(2.51752e-05 2.21137e-05 0)
(2.37915e-05 1.81203e-05 0)
(2.21818e-05 1.502e-05 0)
(2.05356e-05 1.26062e-05 0)
(1.89456e-05 1.07122e-05 0)
(1.74525e-05 9.21139e-06 0)
(1.60695e-05 8.00949e-06 0)
(1.47962e-05 7.03685e-06 0)
(1.3626e-05 6.24184e-06 0)
(1.25496e-05 5.58597e-06 0)
(1.15572e-05 5.04031e-06 0)
(1.06393e-05 4.58288e-06 0)
(9.78712e-06 4.19684e-06 0)
(8.99277e-06 3.86912e-06 0)
(8.24918e-06 3.58956e-06 0)
(7.55013e-06 3.3501e-06 0)
(6.89011e-06 3.14437e-06 0)
(6.2643e-06 2.96726e-06 0)
(5.66841e-06 2.81466e-06 0)
(5.09863e-06 2.68324e-06 0)
(4.55157e-06 2.57029e-06 0)
(4.02419e-06 2.47361e-06 0)
(3.51375e-06 2.39141e-06 0)
(3.01773e-06 2.32222e-06 0)
(2.53384e-06 2.26485e-06 0)
(2.05996e-06 2.21837e-06 0)
(1.59408e-06 2.18202e-06 0)