/*--------------------------------*- C++ -*----------------------------------*\
  =========                 |
  \\      /  F ield         | OpenFOAM: The Open Source CFD Toolbox
   \\    /   O peration     | Website:  https://openfoam.org
    \\  /    A nd           | Version:  10
     \\/     M anipulation  |
\*---------------------------------------------------------------------------*/
FoamFile
{
    format      ascii;
    class       surfaceScalarField;
    location    "1.2";
    object      phi;
}
// * * * * * * * * * * * * * * * * * * * * * * * * * * * * * * * * * * * * * //

dimensions      [0 3 -1 0 0 0 0];

internalField   nonuniform List<scalar> 
24170
(
-9.95224e-13
9.95224e-13
-2.45078e-12
1.45556e-12
-4.87529e-12
2.42451e-12
-8.88324e-12
4.00795e-12
-1.52751e-11
6.39188e-12
-2.5108e-11
9.8329e-12
-3.97553e-11
1.46473e-11
-6.09478e-11
2.11925e-11
-9.07854e-11
2.98376e-11
-1.31708e-10
4.09227e-11
-1.86431e-10
5.47227e-11
-2.57885e-10
7.14545e-11
-3.49313e-10
9.14277e-11
-4.64887e-10
1.15574e-10
-6.11932e-10
1.47045e-10
-8.0854e-10
1.96608e-10
-1.11538e-09
3.06844e-10
7.08045e-10
-1.82343e-09
-1.04271e-12
2.03793e-12
-2.57333e-12
2.98618e-12
-5.1305e-12
4.98168e-12
-9.36525e-12
8.24269e-12
-1.61262e-11
1.31529e-11
-2.65353e-11
2.02419e-11
-4.20518e-11
3.01638e-11
-6.45179e-11
4.36587e-11
-9.61727e-11
6.14923e-11
-1.39622e-10
8.43717e-11
-1.97764e-10
1.12865e-10
-2.73714e-10
1.47404e-10
-3.70843e-10
1.88556e-10
-4.93265e-10
2.37996e-10
-6.47539e-10
3.01319e-10
-8.47358e-10
3.96426e-10
-1.12245e-09
5.81938e-10
1.05873e-09
-1.47314e-09
-1.06092e-12
3.09885e-12
-2.63183e-12
4.55709e-12
-5.27472e-12
7.62458e-12
-9.66938e-12
1.26373e-11
-1.67033e-11
2.01868e-11
-2.75525e-11
3.10911e-11
-4.37512e-11
4.63624e-11
-6.7243e-11
6.71505e-11
-1.004e-10
9.4649e-11
-1.45992e-10
1.29964e-10
-2.07104e-10
1.73977e-10
-2.87015e-10
2.27315e-10
-3.89122e-10
2.90664e-10
-5.17105e-10
3.65979e-10
-6.75559e-10
4.59772e-10
-8.70544e-10
5.91412e-10
-1.10162e-09
8.13012e-10
1.24165e-09
-1.28453e-09
-1.03711e-12
4.13596e-12
-2.59798e-12
6.11796e-12
-5.25785e-12
1.02844e-11
-9.71347e-12
1.7093e-11
-1.68769e-11
2.73503e-11
-2.79615e-11
4.21757e-11
-4.45582e-11
6.29591e-11
-6.86947e-11
9.1287e-11
-1.02863e-10
1.28817e-10
-1.49994e-10
1.77095e-10
-2.1336e-10
2.37343e-10
-2.96393e-10
3.10349e-10
-4.02439e-10
3.9671e-10
-5.34447e-10
4.97987e-10
-6.94363e-10
6.19688e-10
-8.80379e-10
7.77428e-10
-1.07328e-09
1.00591e-09
1.35317e-09
-1.1848e-09
-9.55713e-13
5.09167e-12
-2.43713e-12
7.59937e-12
-5.01847e-12
1.28658e-11
-9.39661e-12
2.14711e-11
-1.64875e-11
3.44411e-11
-2.75169e-11
5.32052e-11
-4.41051e-11
7.95472e-11
-6.83365e-11
1.15518e-10
-1.02801e-10
1.63282e-10
-1.50581e-10
2.24875e-10
-2.15142e-10
3.01905e-10
-3.0009e-10
3.95296e-10
-4.08707e-10
5.05327e-10
-5.43142e-10
6.32422e-10
-7.02718e-10
7.79264e-10
-8.79561e-10
9.5427e-10
-1.04665e-09
1.173e-09
1.44169e-09
-1.13517e-09
-7.98294e-13
5.88997e-12
-2.10824e-12
8.90932e-12
-4.48375e-12
1.52413e-11
-8.59877e-12
2.55861e-11
-1.53443e-11
4.11867e-11
-2.5924e-11
6.37848e-11
-4.19471e-11
9.55703e-11
-6.55135e-11
1.39085e-10
-9.92763e-11
1.97045e-10
-1.4645e-10
2.72049e-10
-2.10714e-10
3.66168e-10
-2.95905e-10
4.80488e-10
-4.05373e-10
6.14795e-10
-5.40707e-10
7.67756e-10
-6.99333e-10
9.3789e-10
-8.69929e-10
1.12487e-09
-1.02478e-09
1.32785e-09
1.53232e-09
-1.11541e-09
-5.43917e-13
6.43388e-12
-1.5647e-12
9.9301e-12
-3.57079e-12
1.72474e-11
-7.18291e-12
2.91983e-11
-1.32286e-11
4.72324e-11
-2.28417e-11
7.33979e-11
-3.75644e-11
1.10293e-10
-5.94513e-11
1.60972e-10
-9.1163e-11
2.28756e-10
-1.36017e-10
3.16903e-10
-1.97927e-10
4.28078e-10
-2.81095e-10
5.63656e-10
-3.89238e-10
7.22937e-10
-5.24006e-10
9.02524e-10
-6.8221e-10
1.09609e-09
-8.51692e-10
1.29435e-09
-1.00741e-09
1.48357e-09
1.64008e-09
-1.11517e-09
-1.70091e-13
6.60397e-12
-7.56355e-13
1.05164e-11
-2.19036e-12
1.86814e-11
-5.00096e-12
3.20089e-11
-9.90217e-12
5.21336e-11
-1.78945e-11
8.13902e-11
-3.03766e-11
1.22775e-10
-4.92706e-11
1.79866e-10
-7.71581e-11
2.56644e-10
-1.17401e-10
3.57146e-10
-1.74172e-10
4.84849e-10
-2.52229e-10
6.41713e-10
-3.56161e-10
8.26869e-10
-4.887e-10
1.03506e-09
-6.47785e-10
1.25518e-09
-8.22764e-10
1.46933e-09
-9.92205e-10
1.65301e-09
1.77714e-09
-1.12927e-09
3.45404e-13
6.25857e-12
3.66337e-13
1.04954e-11
-2.54197e-13
1.93019e-11
-1.90578e-12
3.36604e-11
-5.12561e-12
5.53535e-11
-1.06993e-11
8.69639e-11
-1.9779e-11
1.31855e-10
-3.40307e-11
1.94117e-10
-5.58244e-11
2.78438e-10
-8.84561e-11
3.89778e-10
-1.36341e-10
5.32734e-10
-2.05015e-10
7.10387e-10
-3.00624e-10
9.22478e-10
-4.28402e-10
1.16284e-09
-5.89683e-10
1.41646e-09
-7.77743e-10
1.65739e-09
-9.74824e-10
1.85009e-09
1.95765e-09
-1.15533e-09
1.02146e-12
5.23711e-12
1.84551e-12
9.67138e-12
2.31262e-12
1.88348e-11
2.22811e-12
3.37449e-11
1.30904e-12
5.62725e-11
-9.13187e-13
8.91862e-11
-5.21035e-12
1.36152e-10
-1.28216e-11
2.01729e-10
-2.57006e-11
2.91317e-10
-4.68697e-11
4.10947e-10
-8.08615e-11
5.66725e-10
-1.34135e-10
7.63661e-10
-2.15144e-10
1.00349e-09
-3.33419e-10
1.28112e-09
-4.96756e-10
1.5798e-09
-7.0586e-10
1.86649e-09
-9.47678e-10
2.09191e-09
2.20261e-09
-1.19264e-09
1.86899e-12
3.36812e-12
3.7055e-12
7.83487e-12
5.55265e-12
1.69877e-11
7.4722e-12
3.18254e-11
9.5266e-12
5.42181e-11
1.16871e-11
8.70257e-11
1.37294e-11
1.3411e-10
1.5071e-11
2.00387e-10
1.4479e-11
2.91909e-10
9.57706e-12
4.15849e-10
-3.91731e-12
5.8022e-10
-3.32301e-11
7.92973e-10
-8.96413e-11
1.0599e-09
-1.8896e-10
1.38044e-09
-3.49741e-10
1.74058e-09
-5.86562e-10
2.10331e-09
-8.96269e-10
2.40161e-09
2.54799e-09
-1.24165e-09
2.36155e-12
1.00657e-12
4.85138e-12
5.34504e-12
7.69403e-12
1.4145e-11
1.11866e-11
2.83328e-11
1.57275e-11
4.96773e-11
2.17379e-11
8.10152e-11
2.96019e-11
1.26246e-10
3.95583e-11
1.90431e-10
5.14546e-11
2.80012e-10
6.42563e-11
4.03047e-10
7.51613e-11
5.69315e-10
7.81354e-11
7.89999e-10
6.17657e-11
1.07627e-09
6.78061e-12
1.43542e-09
-1.15086e-10
1.86244e-09
-3.36356e-10
2.32458e-09
-6.75052e-10
2.74031e-09
2.96983e-09
-1.09689e-09
3.70676e-12
-2.7002e-12
7.76315e-12
1.28866e-12
1.26631e-11
9.2451e-12
1.90649e-11
2.1931e-11
2.79035e-11
4.08387e-11
4.02777e-11
6.8641e-11
5.74385e-11
1.09085e-10
8.07471e-11
1.67122e-10
1.11458e-10
2.49301e-10
1.50172e-10
3.64334e-10
1.95666e-10
5.2382e-10
2.42633e-10
7.43033e-10
2.77625e-10
1.04128e-09
2.72668e-10
1.44038e-09
1.77479e-10
1.95763e-09
-8.32139e-11
2.58528e-09
-5.86561e-10
3.24366e-09
3.70414e-09
-1.32087e-09
5.60915e-12
-8.30934e-12
1.19048e-11
-5.00699e-12
1.97548e-11
1.39506e-12
3.03405e-11
1.13453e-11
4.54755e-11
2.57037e-11
6.73433e-11
4.67733e-11
9.86172e-11
7.7811e-11
1.42619e-10
1.2312e-10
2.03308e-10
1.88613e-10
2.84943e-10
2.82699e-10
3.91039e-10
4.17724e-10
5.21745e-10
6.12327e-10
6.67913e-10
8.95108e-10
7.9864e-10
1.30965e-09
8.37557e-10
1.91871e-09
6.25841e-10
2.79699e-09
-1.03724e-10
3.97322e-09
5.19222e-09
-1.59181e-09
8.07794e-12
-1.63873e-11
1.73219e-11
-1.42509e-11
2.89997e-11
-1.02827e-11
4.48845e-11
-4.53947e-12
6.82205e-11
2.36767e-12
1.0275e-10
1.22437e-11
1.53193e-10
2.73678e-11
2.25888e-10
5.04251e-11
3.29311e-10
8.5189e-11
4.74631e-10
1.37379e-10
6.76097e-10
2.16258e-10
9.50626e-10
3.37797e-10
1.31447e-09
5.31261e-10
1.77077e-09
8.53352e-10
2.26985e-09
1.41964e-09
2.59042e-09
2.47642e-09
1.99452e-09
4.56912e-09
8.94462e-09
-1.75788e-09
1.07665e-11
-2.71538e-11
2.34037e-11
-2.68882e-11
3.92459e-11
-2.61249e-11
6.00448e-11
-2.53383e-11
9.17345e-11
-2.93221e-11
1.39819e-10
-3.58403e-11
2.11188e-10
-4.40014e-11
3.15747e-10
-5.41341e-11
4.6767e-10
-6.67343e-11
6.87637e-10
-8.25874e-11
1.00674e-09
-1.02849e-10
1.47374e-09
-1.29201e-10
2.16914e-09
-1.6414e-10
3.23398e-09
-2.11487e-10
4.93091e-09
-2.77288e-10
7.77876e-09
-3.71426e-10
1.28584e-08
-5.10567e-10
-7.24026e-10
2.25271e-08
3.10878e-07
1.88855e-07
2.54182e-07
5.66685e-08
2.37006e-07
1.71497e-08
2.34631e-07
2.35016e-09
2.36447e-07
-1.84563e-09
2.40043e-07
-3.63115e-09
2.45003e-07
-5.00424e-09
2.51096e-07
-6.14733e-09
2.58226e-07
-7.19628e-09
2.66394e-07
-8.25089e-09
2.75684e-07
-9.39319e-09
2.86258e-07
-1.07029e-08
2.98365e-07
-1.22707e-08
3.12366e-07
-1.42133e-08
3.2878e-07
-1.66912e-08
3.48341e-07
-1.99327e-08
3.72089e-07
-2.42582e-08
-3.00878e-08
4.01453e-07
9.7661e-08
9.11942e-08
1.02817e-07
5.15124e-08
9.31952e-08
2.67717e-08
8.25421e-08
1.30033e-08
7.51745e-08
5.52192e-09
7.04739e-08
1.06951e-09
6.71186e-08
-1.649e-09
6.4563e-08
-3.59173e-09
6.25683e-08
-5.20158e-09
6.09564e-08
-6.63894e-09
5.95657e-08
-8.00258e-09
5.82154e-08
-9.35257e-09
5.66635e-08
-1.07188e-08
5.45502e-08
-1.21e-08
5.13118e-08
-1.34528e-08
4.60513e-08
-1.46721e-08
3.7351e-08
-1.55579e-08
-1.57686e-08
2.30318e-08
4.4755e-08
4.64392e-08
6.30739e-08
3.31936e-08
6.82701e-08
2.15754e-08
6.81457e-08
1.31277e-08
6.63559e-08
7.31172e-09
6.41616e-08
3.26388e-09
6.21702e-08
3.42337e-10
6.02601e-08
-1.68159e-09
5.83438e-08
-3.28525e-09
5.63306e-08
-4.62578e-09
5.4103e-08
-5.77494e-09
5.15209e-08
-6.77047e-09
4.84256e-08
-7.62357e-09
4.46498e-08
-8.32415e-09
4.00421e-08
-8.84513e-09
3.45177e-08
-9.14774e-09
2.81499e-08
-9.19003e-09
-8.94212e-09
2.13233e-08
1.73645e-08
2.90746e-08
2.78617e-08
2.26964e-08
3.3243e-08
1.61941e-08
3.55901e-08
1.07806e-08
3.62986e-08
6.60326e-09
3.61215e-08
3.44094e-09
3.54353e-08
1.02849e-09
3.45161e-08
-7.62393e-10
3.33474e-08
-2.11653e-09
3.19478e-08
-3.22615e-09
3.03141e-08
-4.14122e-09
2.84325e-08
-4.8889e-09
2.62896e-08
-5.48066e-09
2.38833e-08
-5.91785e-09
2.12347e-08
-6.19655e-09
1.83995e-08
-6.31259e-09
1.54766e-08
-6.26709e-09
-6.07171e-09
1.26062e-08
9.75474e-09
1.93199e-08
1.66595e-08
1.57917e-08
2.09718e-08
1.18818e-08
2.34096e-08
8.34282e-09
2.46058e-08
5.40704e-09
2.49906e-08
3.05611e-09
2.48277e-08
1.19147e-09
2.43275e-08
-2.62274e-10
2.35514e-08
-1.34039e-09
2.25435e-08
-2.21823e-09
2.1331e-08
-2.92874e-09
1.99342e-08
-3.49214e-09
1.83742e-08
-3.92062e-09
1.6678e-08
-4.22162e-09
1.48824e-08
-4.40098e-09
1.30355e-08
-4.46569e-09
1.11946e-08
-4.42617e-09
-4.29748e-09
9.42033e-09
6.07294e-09
1.32469e-08
1.07397e-08
1.11249e-08
1.39708e-08
8.65074e-09
1.60264e-08
6.28719e-09
1.72037e-08
4.22974e-09
1.77428e-08
2.51702e-09
1.78145e-08
1.11979e-09
1.75609e-08
-8.67834e-12
1.70606e-08
-8.40145e-10
1.63595e-08
-1.51712e-09
1.54913e-08
-2.06056e-09
1.44848e-08
-2.48563e-09
1.33676e-08
-2.80339e-09
1.21685e-08
-3.02258e-09
1.0919e-08
-3.15146e-09
9.65252e-09
-3.19917e-09
8.40288e-09
-3.17653e-09
-3.09604e-09
7.20144e-09
4.04714e-09
9.19981e-09
7.31098e-09
7.86107e-09
9.71446e-09
6.24726e-09
1.1353e-08
4.64861e-09
1.23728e-08
3.21003e-09
1.29109e-08
1.9789e-09
1.30778e-08
9.52821e-10
1.29591e-08
1.10048e-10
1.26443e-08
-5.25377e-10
1.21622e-08
-1.03495e-09
1.15448e-08
-1.44322e-09
1.08203e-08
-1.76111e-09
1.00142e-08
-1.99729e-09
9.15114e-09
-2.15949e-09
8.25515e-09
-2.25547e-09
7.34964e-09
-2.29367e-09
6.4565e-09
-2.28338e-09
-2.23435e-09
5.59481e-09
2.82635e-09
6.37346e-09
5.17706e-09
5.51036e-09
6.97893e-09
4.44538e-09
8.26414e-09
3.3634e-09
9.10761e-09
2.36656e-09
9.5904e-09
1.49611e-09
9.78456e-09
7.58669e-10
9.74941e-09
1.45191e-10
9.55049e-09
-3.26454e-10
9.21663e-09
-7.01097e-10
8.77493e-09
-1.00152e-09
8.24893e-09
-1.23511e-09
7.65979e-09
-1.40815e-09
7.02694e-09
-1.52665e-09
6.36843e-09
-1.59696e-09
5.70087e-09
-1.62611e-09
5.03926e-09
-1.62177e-09
-1.59178e-09
4.39669e-09
2.03804e-09
4.33542e-09
3.76902e-09
3.77938e-09
5.13298e-09
3.08142e-09
6.13702e-09
2.35935e-09
6.8209e-09
1.68269e-09
7.2341e-09
1.08291e-09
7.42445e-09
5.68318e-10
7.43405e-09
1.35587e-10
7.30976e-09
-2.02158e-10
7.07757e-09
-4.68908e-10
6.75928e-09
-6.83227e-10
6.37392e-09
-8.49747e-10
5.93837e-09
-9.7261e-10
5.46772e-09
-1.056e-09
4.97535e-09
-1.10459e-09
4.47307e-09
-1.12383e-09
3.97131e-09
-1.12001e-09
-1.0999e-09
3.47943e-09
1.49967e-09
2.83575e-09
2.79256e-09
2.48649e-09
3.8317e-09
2.04228e-09
4.61446e-09
1.5766e-09
5.16242e-09
1.13473e-09
5.50662e-09
7.38706e-10
5.67936e-09
3.95582e-10
5.71069e-09
1.04258e-10
5.63418e-09
-1.2565e-10
5.47184e-09
-3.06565e-10
5.24079e-09
-4.52182e-10
4.95613e-09
-5.65088e-10
4.63123e-09
-6.47707e-10
4.27783e-09
-7.02594e-10
3.90599e-09
-7.32748e-10
3.52409e-09
-7.41932e-10
3.13909e-09
-7.35008e-10
-7.18048e-10
2.75724e-09
1.11343e-09
1.72232e-09
2.08394e-09
1.51598e-09
2.87547e-09
1.25075e-09
3.4821e-09
9.69963e-10
3.91569e-09
7.01137e-10
4.1961e-09
4.58303e-10
4.34526e-09
2.46422e-10
4.38453e-09
6.49846e-11
4.3379e-09
-7.90219e-11
4.22325e-09
-1.91913e-10
4.05374e-09
-2.82675e-10
3.84119e-09
-3.52537e-10
3.59626e-09
-4.02776e-10
3.32846e-09
-4.34793e-10
3.04593e-09
-4.50213e-10
2.75507e-09
-4.51079e-10
2.46039e-09
-4.40327e-10
-4.22652e-10
2.165e-09
8.21643e-10
9.00678e-10
1.54369e-09
7.93931e-10
2.13896e-09
6.55482e-10
2.60103e-09
5.07895e-10
2.93638e-09
3.65785e-10
3.15782e-09
2.36868e-10
3.28018e-09
1.24055e-10
3.31825e-09
2.69156e-11
3.28797e-09
-4.8744e-11
3.20344e-09
-1.07377e-10
3.07463e-09
-1.53865e-10
2.91097e-09
-1.88876e-10
2.72144e-09
-2.13253e-10
2.51452e-09
-2.2787e-10
2.29782e-09
-2.33507e-10
2.07749e-09
-2.3075e-10
1.8573e-09
-2.2014e-10
-2.03221e-10
1.63787e-09
5.81715e-10
3.18963e-10
1.09558e-09
2.80062e-10
1.52182e-09
2.29247e-10
1.85479e-09
1.74927e-10
2.09794e-09
1.22634e-10
2.25943e-09
7.53729e-11
2.34912e-09
3.43658e-11
2.37642e-09
-3.8402e-13
2.34632e-09
-1.86383e-11
2.27283e-09
-3.38912e-11
2.16541e-09
-4.64399e-11
2.03297e-09
-5.6442e-11
1.88371e-09
-6.39941e-11
1.72497e-09
-6.91272e-11
1.56319e-09
-7.17259e-11
1.40378e-09
-7.13441e-11
1.25061e-09
-6.69626e-11
-5.71994e-11
1.10458e-09
3.18963e-10
5.99025e-10
8.28272e-10
1.0032e-09
1.12583e-09
1.20121e-09
1.23557e-09
1.23519e-09
1.21655e-09
1.18266e-09
1.13622e-09
1.07978e-09
1.01578e-09
9.46655e-10
8.74929e-10
8.03585e-10
7.36623e-10
6.79423e-10
-2.76321e-11
2.76321e-11
-5.54069e-11
2.77748e-11
-8.32754e-11
2.78686e-11
-1.11187e-10
2.79118e-11
-1.39091e-10
2.79033e-11
-1.66932e-10
2.78417e-11
-1.94658e-10
2.77263e-11
-2.22215e-10
2.75566e-11
-2.49548e-10
2.73326e-11
-2.76602e-10
2.70543e-11
-3.03324e-10
2.67222e-11
-3.29662e-10
2.63373e-11
-3.55562e-10
2.59008e-11
-3.80976e-10
2.5414e-11
-4.05855e-10
2.48788e-11
-4.30152e-10
2.42973e-11
-4.53824e-10
2.36718e-11
-4.76829e-10
2.30048e-11
-4.99128e-10
2.22992e-11
-5.20686e-10
2.15579e-11
-5.4147e-10
2.0784e-11
-5.61451e-10
1.99807e-11
-5.80602e-10
1.91513e-11
-5.98901e-10
1.82992e-11
-6.16329e-10
1.74278e-11
-6.3287e-10
1.65405e-11
-6.4851e-10
1.56407e-11
-6.63242e-10
1.47316e-11
-6.77059e-10
1.38167e-11
-6.89958e-10
1.2899e-11
-7.01939e-10
1.19816e-11
-7.13007e-10
1.10675e-11
-7.23166e-10
1.01596e-11
-7.32427e-10
9.26041e-12
-7.40799e-10
8.37261e-12
-7.48298e-10
7.49853e-12
-7.54938e-10
6.64038e-12
-7.60738e-10
5.80022e-12
-7.65718e-10
4.97992e-12
-7.699e-10
4.18121e-12
-7.73305e-10
3.40564e-12
-7.7596e-10
2.65459e-12
-7.77889e-10
1.92929e-12
-7.7912e-10
1.23084e-12
-7.7968e-10
5.6014e-13
-7.79598e-10
-8.20011e-14
-7.78903e-10
-6.94945e-13
-7.77625e-10
-1.27818e-12
-7.75794e-10
-1.83132e-12
-7.7344e-10
-2.35405e-12
-7.70593e-10
-2.84624e-12
-7.67286e-10
-3.30779e-12
-7.63547e-10
-3.73876e-12
-7.59408e-10
-4.13922e-12
-7.54898e-10
-4.5094e-12
-7.50049e-10
-4.84955e-12
-7.44889e-10
-5.15998e-12
-7.39448e-10
-5.44111e-12
-7.33754e-10
-5.69335e-12
-7.27837e-10
-5.9172e-12
-7.21724e-10
-6.11319e-12
-7.15442e-10
-6.28188e-12
-7.09018e-10
-6.42385e-12
-7.02478e-10
-6.53975e-12
-6.95848e-10
-6.63019e-12
-6.89152e-10
-6.69584e-12
-6.82415e-10
-6.73739e-12
-6.75659e-10
-6.7555e-12
-6.68908e-10
-6.75089e-12
-6.62184e-10
-6.72427e-12
-6.55508e-10
-6.67633e-12
-6.489e-10
-6.60782e-12
-6.42381e-10
-6.51946e-12
-6.35969e-10
-6.41198e-12
-6.29682e-10
-6.28614e-12
-6.2354e-10
-6.14267e-12
-6.17557e-10
-5.98236e-12
-6.11751e-10
-5.80596e-12
-6.06137e-10
-5.61427e-12
-6.00729e-10
-5.40808e-12
-5.95541e-10
-5.18821e-12
-5.90585e-10
-4.95551e-12
-5.85875e-10
-4.7108e-12
-5.8142e-10
-4.45497e-12
-5.77231e-10
-4.1889e-12
-5.73317e-10
-3.91352e-12
-5.69687e-10
-3.62975e-12
-5.66349e-10
-3.33856e-12
-5.63308e-10
-3.0409e-12
-5.6057e-10
-2.73776e-12
-5.5814e-10
-2.43017e-12
-5.56021e-10
-2.11914e-12
-5.54215e-10
-1.80569e-12
-5.52724e-10
-1.49087e-12
-5.51549e-10
-1.17573e-12
-5.50687e-10
-8.61297e-13
-5.50139e-10
-5.48624e-13
-5.499e-10
-2.38761e-13
-5.49967e-10
6.72767e-14
-5.50336e-10
3.68459e-13
-5.50999e-10
6.63791e-13
-5.51952e-10
9.52267e-13
-5.53185e-10
1.23294e-12
-5.5469e-10
1.50483e-12
-5.56457e-10
1.76703e-12
-5.58475e-10
2.01861e-12
-5.60734e-10
2.2587e-12
-5.6322e-10
2.48643e-12
-5.65921e-10
2.70095e-12
-5.68823e-10
2.90145e-12
-5.7191e-10
3.08712e-12
-5.75167e-10
3.25717e-12
-5.78578e-10
3.41086e-12
-5.82125e-10
3.54743e-12
-5.85791e-10
3.66616e-12
-5.89558e-10
3.76634e-12
-5.93405e-10
3.84729e-12
-5.97313e-10
3.90832e-12
-6.01262e-10
3.94883e-12
-6.0523e-10
3.96814e-12
-6.09196e-10
3.96569e-12
-6.13137e-10
3.94088e-12
-6.1703e-10
3.89319e-12
-6.20852e-10
3.82208e-12
-6.24579e-10
3.72708e-12
-6.28187e-10
3.60776e-12
-6.31651e-10
3.46368e-12
-6.34945e-10
3.29448e-12
-6.38045e-10
3.0998e-12
-6.40924e-10
2.87929e-12
-6.43557e-10
2.63265e-12
-6.45916e-10
2.3595e-12
-6.47976e-10
2.05947e-12
-6.49708e-10
1.73207e-12
-6.51085e-10
1.37668e-12
-6.52077e-10
9.92465e-13
-6.52655e-10
5.78321e-13
-6.52788e-10
1.32684e-13
-6.52442e-10
-3.46495e-13
-6.5158e-10
-8.62004e-13
-6.50162e-10
-1.41753e-12
-6.48144e-10
-2.01789e-12
-6.45475e-10
-2.66929e-12
-6.42095e-10
-3.37961e-12
-6.37937e-10
-4.1588e-12
-6.32917e-10
-5.01913e-12
-6.26942e-10
-5.97571e-12
-6.19895e-10
-7.04676e-12
-6.11641e-10
-8.25414e-12
-6.02017e-10
-9.62366e-12
-5.90832e-10
-1.11855e-11
-5.77857e-10
-1.29746e-11
-5.62826e-10
-1.5031e-11
-5.45426e-10
-1.73998e-11
-5.25295e-10
-2.01316e-11
-5.02012e-10
-2.32823e-11
-4.75099e-10
-2.69131e-11
-4.44009e-10
-3.10898e-11
-4.08127e-10
-3.58825e-11
-3.66763e-10
-4.13638e-11
-3.19155e-10
-4.76079e-11
-2.64468e-10
-5.46876e-11
-2.01796e-10
-6.26715e-11
-1.30177e-10
-7.16192e-11
-4.86014e-11
-8.15756e-11
4.39623e-11
-9.25637e-11
1.48537e-10
-1.04575e-10
2.66097e-10
-1.1756e-10
3.97509e-10
-1.31411e-10
5.43462e-10
-1.45954e-10
7.04387e-10
-1.60925e-10
8.80343e-10
-1.75956e-10
1.0709e-09
-1.90553e-10
1.27496e-09
-2.04065e-10
1.4906e-09
-2.15636e-10
1.71469e-09
-2.24091e-10
1.94232e-09
-2.27628e-10
2.16513e-09
-2.22819e-10
2.36554e-09
-2.00408e-10
-1.21173e-10
2.48672e-09
-2.7849e-11
5.54811e-11
-5.58404e-11
5.57662e-11
-8.39243e-11
5.59524e-11
-1.12049e-10
5.60363e-11
-1.40161e-10
5.60152e-11
-1.68206e-10
5.58868e-11
-1.96129e-10
5.56496e-11
-2.23875e-10
5.53027e-11
-2.51388e-10
5.48458e-11
-2.78614e-10
5.42794e-11
-3.05496e-10
5.36046e-11
-3.31982e-10
5.28233e-11
-3.58019e-10
5.19378e-11
-3.83556e-10
5.09514e-11
-4.08545e-10
4.98678e-11
-4.32939e-10
4.86911e-11
-4.56694e-10
4.74263e-11
-4.79768e-10
4.60786e-11
-5.02122e-10
4.46536e-11
-5.23721e-10
4.31574e-11
-5.44534e-10
4.15962e-11
-5.6453e-10
3.99767e-11
-5.83684e-10
3.83055e-11
-6.01974e-10
3.65894e-11
-6.19381e-10
3.48353e-11
-6.35891e-10
3.30501e-11
-6.51491e-10
3.12406e-11
-6.66173e-10
2.94134e-11
-6.79931e-10
2.75752e-11
-6.92765e-10
2.57322e-11
-7.04674e-10
2.38908e-11
-7.15663e-10
2.20566e-11
-7.25739e-10
2.02356e-11
-7.34911e-10
1.84328e-11
-7.43192e-10
1.66535e-11
-7.50596e-10
1.49024e-11
-7.57139e-10
1.31837e-11
-7.62841e-10
1.15016e-11
-7.67721e-10
9.85992e-12
-7.71802e-10
8.26189e-12
-7.75107e-10
6.71065e-12
-7.77661e-10
5.20892e-12
-7.79491e-10
3.75913e-12
-7.80623e-10
2.3634e-12
-7.81087e-10
1.02353e-12
-7.8091e-10
-2.58941e-13
-7.80122e-10
-1.48275e-12
-7.78753e-10
-2.6469e-12
-7.76834e-10
-3.75064e-12
-7.74395e-10
-4.79344e-12
-7.71466e-10
-5.77499e-12
-7.68078e-10
-6.69518e-12
-7.64263e-10
-7.55409e-12
-7.6005e-10
-8.35197e-12
-7.5547e-10
-9.08922e-12
-7.50554e-10
-9.76637e-12
-7.4533e-10
-1.03841e-11
-7.39827e-10
-1.09433e-11
-7.34076e-10
-1.14447e-11
-7.28104e-10
-1.18893e-11
-7.21939e-10
-1.22783e-11
-7.15608e-10
-1.26128e-11
-7.09138e-10
-1.28939e-11
-7.02555e-10
-1.31229e-11
-6.95884e-10
-1.3301e-11
-6.8915e-10
-1.34297e-11
-6.82377e-10
-1.35103e-11
-6.75589e-10
-1.3544e-11
-6.68807e-10
-1.35325e-11
-6.62054e-10
-1.34769e-11
-6.55352e-10
-1.33789e-11
-6.4872e-10
-1.32398e-11
-6.42178e-10
-1.3061e-11
-6.35746e-10
-1.28441e-11
-6.29442e-10
-1.25905e-11
-6.23283e-10
-1.23018e-11
-6.17286e-10
-1.19794e-11
-6.11467e-10
-1.1625e-11
-6.05841e-10
-1.124e-11
-6.00423e-10
-1.0826e-11
-5.95226e-10
-1.03848e-11
-5.90264e-10
-9.91791e-12
-5.85548e-10
-9.42709e-12
-5.81089e-10
-8.91408e-12
-5.76897e-10
-8.38064e-12
-5.72982e-10
-7.82862e-12
-5.69352e-10
-7.25986e-12
-5.66014e-10
-6.67629e-12
-5.62975e-10
-6.07984e-12
-5.6024e-10
-5.4725e-12
-5.57814e-10
-4.85628e-12
-5.557e-10
-4.23323e-12
-5.539e-10
-3.6054e-12
-5.52416e-10
-2.97488e-12
-5.51248e-10
-2.34376e-12
-5.50396e-10
-1.71412e-12
-5.49856e-10
-1.08808e-12
-5.49627e-10
-4.67673e-13
-5.49705e-10
1.44997e-13
-5.50084e-10
7.47921e-13
-5.5076e-10
1.33907e-12
-5.51724e-10
1.91648e-12
-5.52969e-10
2.47819e-12
-5.54487e-10
3.02231e-12
-5.56267e-10
3.54699e-12
-5.58298e-10
4.05041e-12
-5.6057e-10
4.53079e-12
-5.6307e-10
4.9864e-12
-5.65785e-10
5.41556e-12
-5.687e-10
5.81663e-12
-5.71801e-10
6.18802e-12
-5.75072e-10
6.52816e-12
-5.78497e-10
6.83552e-12
-5.82058e-10
7.10861e-12
-5.85738e-10
7.34601e-12
-5.89518e-10
7.54628e-12
-5.93378e-10
7.70806e-12
-5.973e-10
7.83002e-12
-6.01262e-10
7.91086e-12
-6.05243e-10
7.94932e-12
-6.09222e-10
7.94422e-12
-6.13175e-10
7.8944e-12
-6.17081e-10
7.79877e-12
-6.20915e-10
7.65631e-12
-6.24654e-10
7.46604e-12
-6.28274e-10
7.22709e-12
-6.31748e-10
6.93864e-12
-6.35054e-10
6.59993e-12
-6.38164e-10
6.21024e-12
-6.41054e-10
5.76892e-12
-6.43697e-10
5.27533e-12
-6.46066e-10
4.72877e-12
-6.48135e-10
4.12848e-12
-6.49876e-10
3.47351e-12
-6.51262e-10
2.76265e-12
-6.52264e-10
1.99429e-12
-6.52852e-10
1.1662e-12
-6.52995e-10
2.75377e-13
-6.52659e-10
-6.82289e-13
-6.51809e-10
-1.7123e-12
-6.50404e-10
-2.82196e-12
-6.48401e-10
-4.0208e-12
-6.45749e-10
-5.32118e-12
-6.4239e-10
-6.7388e-12
-6.38256e-10
-8.29343e-12
-6.33265e-10
-1.00096e-11
-6.27324e-10
-1.19173e-11
-6.20317e-10
-1.40531e-11
-6.12111e-10
-1.64606e-11
-6.02543e-10
-1.91912e-11
-5.91423e-10
-2.23055e-11
-5.78524e-10
-2.58733e-11
-5.63581e-10
-2.99746e-11
-5.46281e-10
-3.46997e-11
-5.26262e-10
-4.015e-11
-5.03107e-10
-4.64375e-11
-4.76336e-10
-5.36847e-11
-4.45402e-10
-6.20236e-11
-4.0969e-10
-7.15945e-11
-3.6851e-10
-8.25434e-11
-3.21099e-10
-9.50193e-11
-2.66618e-10
-1.09169e-10
-2.0416e-10
-1.2513e-10
-1.32756e-10
-1.43023e-10
-5.13923e-11
-1.62939e-10
4.09716e-11
-1.84928e-10
1.45369e-10
-2.08973e-10
2.62786e-10
-2.34977e-10
3.94105e-10
-2.6273e-10
5.40034e-10
-2.91883e-10
7.01022e-10
-3.21913e-10
8.77154e-10
-3.52088e-10
1.06802e-09
-3.81422e-10
1.27258e-09
-4.08623e-10
1.48894e-09
-4.32e-10
1.71411e-09
-4.49261e-10
1.94349e-09
-4.57004e-10
2.16987e-09
-4.49198e-10
2.38152e-09
-4.12061e-10
-3.05216e-10
2.56556e-09
-2.82883e-11
8.37694e-11
-5.67186e-11
8.41965e-11
-8.52385e-11
8.44723e-11
-1.13793e-10
8.45913e-11
-1.42328e-10
8.45495e-11
-1.70784e-10
8.43435e-11
-1.99106e-10
8.39712e-11
-2.27235e-10
8.34313e-11
-2.55112e-10
8.27236e-11
-2.82682e-10
8.1849e-11
-3.09887e-10
8.08095e-11
-3.36672e-10
7.9608e-11
-3.62982e-10
7.82487e-11
-3.88768e-10
7.67365e-11
-4.13977e-10
7.50772e-11
-4.38564e-10
7.32778e-11
-4.62483e-10
7.13456e-11
-4.85693e-10
6.92889e-11
-5.08156e-10
6.71166e-11
-5.29837e-10
6.48379e-11
-5.50703e-10
6.24626e-11
-5.70727e-10
6.00008e-11
-5.89884e-10
5.74627e-11
-6.08154e-10
5.48588e-11
-6.25518e-10
5.21995e-11
-6.41963e-10
4.94952e-11
-6.57479e-10
4.67562e-11
-6.72058e-10
4.39928e-11
-6.85697e-10
4.12147e-11
-6.98397e-10
3.84315e-11
-7.10159e-10
3.56526e-11
-7.20989e-10
3.28866e-11
-7.30895e-10
3.01422e-11
-7.39889e-10
2.74272e-11
-7.47985e-10
2.47491e-11
-7.55198e-10
2.21149e-11
-7.61545e-10
1.95312e-11
-7.67048e-10
1.7004e-11
-7.71726e-10
1.45387e-11
-7.75605e-10
1.21403e-11
-7.78707e-10
9.81336e-12
-7.8106e-10
7.56185e-12
-7.8269e-10
5.38926e-12
-7.83626e-10
3.29873e-12
-7.83895e-10
1.29282e-12
-7.83528e-10
-6.26229e-13
-7.82554e-10
-2.45663e-12
-7.81004e-10
-4.19698e-12
-7.78908e-10
-5.84622e-12
-7.76298e-10
-7.40364e-12
-7.73204e-10
-8.86886e-12
-7.69658e-10
-1.02418e-11
-7.65689e-10
-1.15226e-11
-7.61329e-10
-1.27117e-11
-7.56609e-10
-1.38097e-11
-7.51558e-10
-1.48176e-11
-7.46205e-10
-1.57364e-11
-7.40581e-10
-1.65673e-11
-7.34714e-10
-1.73117e-11
-7.28633e-10
-1.79711e-11
-7.22364e-10
-1.85471e-11
-7.15935e-10
-1.90414e-11
-7.09373e-10
-1.94559e-11
-7.02703e-10
-1.97925e-11
-6.95951e-10
-2.0053e-11
-6.89142e-10
-2.02395e-11
-6.82298e-10
-2.0354e-11
-6.75444e-10
-2.03985e-11
-6.68601e-10
-2.03752e-11
-6.61791e-10
-2.02863e-11
-6.55037e-10
-2.01337e-11
-6.48357e-10
-1.99197e-11
-6.41771e-10
-1.96466e-11
-6.35299e-10
-1.93163e-11
-6.28958e-10
-1.89313e-11
-6.22766e-10
-1.84937e-11
-6.1674e-10
-1.80058e-11
-6.10895e-10
-1.74699e-11
-6.05246e-10
-1.68884e-11
-5.99809e-10
-1.62636e-11
-5.94596e-10
-1.5598e-11
-5.8962e-10
-1.4894e-11
-5.84892e-10
-1.41543e-11
-5.80425e-10
-1.33814e-11
-5.76228e-10
-1.2578e-11
-5.7231e-10
-1.17468e-11
-5.68679e-10
-1.08906e-11
-5.65343e-10
-1.00123e-11
-5.62308e-10
-9.11481e-12
-5.59579e-10
-8.20109e-12
-5.57161e-10
-7.27418e-12
-5.55057e-10
-6.33714e-12
-5.5327e-10
-5.39306e-12
-5.518e-10
-4.44509e-12
-5.50647e-10
-3.49634e-12
-5.49811e-10
-2.54996e-12
-5.4929e-10
-1.60909e-12
-5.49081e-10
-6.76848e-13
-5.4918e-10
2.43682e-13
-5.49581e-10
1.14943e-12
-5.50279e-10
2.03739e-12
-5.51268e-10
2.90459e-12
-5.52538e-10
3.74813e-12
-5.5408e-10
4.56515e-12
-5.55886e-10
5.35289e-12
-5.57944e-10
6.10861e-12
-5.60243e-10
6.82967e-12
-5.6277e-10
7.51347e-12
-5.65512e-10
8.15751e-12
-5.68455e-10
8.75933e-12
-5.71584e-10
9.31652e-12
-5.74882e-10
9.82676e-12
-5.78334e-10
1.02878e-11
-5.81923e-10
1.06973e-11
-5.8563e-10
1.10533e-11
-5.89438e-10
1.13534e-11
-5.93325e-10
1.15959e-11
-5.97274e-10
1.17785e-11
-6.01262e-10
1.18993e-11
-6.05269e-10
1.19566e-11
-6.09274e-10
1.19485e-11
-6.13253e-10
1.18732e-11
-6.17183e-10
1.17292e-11
-6.21041e-10
1.15148e-11
-6.24804e-10
1.12288e-11
-6.28447e-10
1.08696e-11
-6.31944e-10
1.04362e-11
-6.35272e-10
9.9273e-12
-6.38403e-10
9.34197e-12
-6.41314e-10
8.67921e-12
-6.43976e-10
7.93806e-12
-6.46365e-10
7.11752e-12
-6.48453e-10
6.2165e-12
-6.50213e-10
5.23363e-12
-6.51618e-10
4.16717e-12
-6.52638e-10
3.01474e-12
-6.53245e-10
1.77315e-12
-6.53408e-10
4.37955e-13
-6.53093e-10
-9.96834e-13
-6.52266e-10
-2.53933e-12
-6.50888e-10
-4.20032e-12
-6.48915e-10
-5.99395e-12
-6.46297e-10
-7.93853e-12
-6.42979e-10
-1.00574e-11
-6.38892e-10
-1.238e-11
-6.33959e-10
-1.4943e-11
-6.28085e-10
-1.77911e-11
-6.21159e-10
-2.0979e-11
-6.13048e-10
-2.45719e-11
-6.03592e-10
-2.8647e-11
-5.92603e-10
-3.32949e-11
-5.79855e-10
-3.86205e-11
-5.65086e-10
-4.47436e-11
-5.47986e-10
-5.18002e-11
-5.28193e-10
-5.99425e-11
-5.05292e-10
-6.93388e-11
-4.78804e-10
-8.01734e-11
-4.48182e-10
-9.26451e-11
-4.12811e-10
-1.06965e-10
-3.72e-10
-1.23354e-10
-3.24983e-10
-1.42037e-10
-2.70916e-10
-1.63236e-10
-2.08886e-10
-1.8716e-10
-1.37915e-10
-2.13993e-10
-5.6977e-11
-2.43878e-10
3.49848e-11
-2.76889e-10
1.39024e-10
-3.13012e-10
2.56152e-10
-3.52105e-10
3.87281e-10
-3.93859e-10
5.33156e-10
-4.37758e-10
6.94266e-10
-4.83023e-10
8.70742e-10
-5.28564e-10
1.06223e-09
-5.72914e-10
1.26777e-09
-6.14154e-10
1.48556e-09
-6.49793e-10
1.71282e-09
-6.76523e-10
1.94546e-09
-6.89638e-10
2.17776e-09
-6.81504e-10
2.40314e-09
-6.37441e-10
-5.26029e-10
2.62395e-09
-2.89615e-11
1.12731e-10
-5.80642e-11
1.13299e-10
-8.72518e-11
1.1366e-10
-1.16466e-10
1.13805e-10
-1.45646e-10
1.1373e-10
-1.74732e-10
1.13429e-10
-2.03661e-10
1.12901e-10
-2.32373e-10
1.12143e-10
-2.60806e-10
1.11156e-10
-2.88899e-10
1.09942e-10
-3.16593e-10
1.08504e-10
-3.43831e-10
1.06845e-10
-3.70555e-10
1.04973e-10
-3.96713e-10
1.02894e-10
-4.22253e-10
1.00617e-10
-4.47127e-10
9.81524e-11
-4.71291e-10
9.55096e-11
-4.94703e-10
9.27008e-11
-5.17325e-10
8.97382e-11
-5.39122e-10
8.6635e-11
-5.60064e-10
8.34046e-11
-5.80124e-10
8.00608e-11
-5.99279e-10
7.66179e-11
-6.1751e-10
7.309e-11
-6.34802e-10
6.94913e-11
-6.51143e-10
6.58361e-11
-6.66525e-10
6.21383e-11
-6.80944e-10
5.84114e-11
-6.94398e-10
5.46687e-11
-7.0689e-10
5.09232e-11
-7.18424e-10
4.7187e-11
-7.29009e-10
4.34719e-11
-7.38656e-10
3.97891e-11
-7.47378e-10
3.6149e-11
-7.55191e-10
3.25617e-11
-7.62112e-10
2.90362e-11
-7.68161e-10
2.5581e-11
-7.73361e-10
2.2204e-11
-7.77735e-10
1.89123e-11
-7.81307e-10
1.57124e-11
-7.84104e-10
1.261e-11
-7.86152e-10
9.61033e-12
-7.87481e-10
6.71787e-12
-7.88119e-10
3.93651e-12
-7.88095e-10
1.26957e-12
-7.87441e-10
-1.28018e-12
-7.86188e-10
-3.71055e-12
-7.84365e-10
-6.01979e-12
-7.82004e-10
-8.20668e-12
-7.79137e-10
-1.02704e-11
-7.75796e-10
-1.22106e-11
-7.7201e-10
-1.40272e-11
-7.67812e-10
-1.57207e-11
-7.63232e-10
-1.72916e-11
-7.58301e-10
-1.8741e-11
-7.53048e-10
-2.00702e-11
-7.47504e-10
-2.12805e-11
-7.41698e-10
-2.23738e-11
-7.35658e-10
-2.33518e-11
-7.29412e-10
-2.42168e-11
-7.22988e-10
-2.49708e-11
-7.16413e-10
-2.56163e-11
-7.09714e-10
-2.61556e-11
-7.02915e-10
-2.65913e-11
-6.96042e-10
-2.6926e-11
-6.89119e-10
-2.71625e-11
-6.8217e-10
-2.73033e-11
-6.75217e-10
-2.73513e-11
-6.68283e-10
-2.73093e-11
-6.61389e-10
-2.718e-11
-6.54556e-10
-2.69664e-11
-6.47805e-10
-2.66714e-11
-6.41153e-10
-2.62977e-11
-6.34621e-10
-2.58484e-11
-6.28226e-10
-2.53263e-11
-6.21986e-10
-2.47344e-11
-6.15916e-10
-2.40758e-11
-6.10032e-10
-2.33535e-11
-6.0435e-10
-2.25706e-11
-5.98883e-10
-2.17304e-11
-5.93645e-10
-2.08359e-11
-5.88649e-10
-1.98905e-11
-5.83905e-10
-1.88977e-11
-5.79426e-10
-1.78608e-11
-5.7522e-10
-1.67835e-11
-5.71298e-10
-1.56693e-11
-5.67666e-10
-1.45221e-11
-5.64333e-10
-1.33455e-11
-5.61304e-10
-1.21436e-11
-5.58585e-10
-1.09203e-11
-5.5618e-10
-9.6796e-12
-5.54091e-10
-8.42562e-12
-5.52322e-10
-7.16251e-12
-5.50872e-10
-5.89443e-12
-5.49743e-10
-4.62558e-12
-5.48933e-10
-3.36014e-12
-5.4844e-10
-2.10231e-12
-5.4826e-10
-8.56246e-13
-5.48391e-10
3.73939e-13
-5.48825e-10
1.58415e-12
-5.49558e-10
2.77039e-12
-5.50583e-10
3.9287e-12
-5.5189e-10
5.0552e-12
-5.53471e-10
6.14613e-12
-5.55315e-10
7.19777e-12
-5.57413e-10
8.20651e-12
-5.59753e-10
9.16882e-12