/*--------------------------------*- C++ -*----------------------------------*\
  =========                 |
  \\      /  F ield         | OpenFOAM: The Open Source CFD Toolbox
   \\    /   O peration     | Website:  https://openfoam.org
    \\  /    A nd           | Version:  10
     \\/     M anipulation  |
\*---------------------------------------------------------------------------*/
FoamFile
{
    format      ascii;
    class       volVectorField;
    location    "23200";
    object      Ub;
}
// * * * * * * * * * * * * * * * * * * * * * * * * * * * * * * * * * * * * * //

dimensions      [0 1 -1 0 0 0 0];

internalField   nonuniform List<vector> 
6400
(
(-6.42297e-06 -1.35661e-06 0)
(-5.49698e-05 8.1425e-06 0)
(-9.73634e-05 -1.00918e-07 0)
(-0.000103262 1.05469e-06 0)
(-0.000108364 -1.68391e-07 0)
(-0.000107752 -6.26675e-08 0)
(-0.000106883 -1.95505e-07 0)
(-0.000105393 -1.73165e-07 0)
(-0.000102105 -5.49643e-07 0)
(-9.86322e-05 -2.02994e-07 0)
(-9.73131e-05 -1.05729e-07 0)
(-9.62187e-05 -1.52624e-07 0)
(-9.50744e-05 -1.12112e-07 0)
(-9.40698e-05 -1.21204e-07 0)
(-9.25034e-05 -2.23779e-07 0)
(-9.07799e-05 -1.51045e-07 0)
(-8.94337e-05 -1.45296e-07 0)
(-8.76371e-05 -2.41072e-07 0)
(-8.56336e-05 -1.8602e-07 0)
(-8.41305e-05 -1.38199e-07 0)
(-8.26956e-05 -1.71142e-07 0)
(-8.05578e-05 -2.80226e-07 0)
(-7.80896e-05 -2.37484e-07 0)
(-7.61755e-05 -1.66931e-07 0)
(-7.46148e-05 -1.65023e-07 0)
(-7.25931e-05 -2.60105e-07 0)
(-6.93732e-05 -4.08072e-07 0)
(-6.5748e-05 -3.42053e-07 0)
(-6.2949e-05 -2.39763e-07 0)
(-6.07613e-05 -2.17426e-07 0)
(-5.82086e-05 -3.13619e-07 0)
(-5.40177e-05 -5.50172e-07 0)
(-4.95733e-05 -8.13744e-07 0)
(-4.56439e-05 -9.94889e-07 0)
(-4.08918e-05 -1.18992e-06 0)
(-3.52681e-05 -1.39342e-06 0)
(-2.87498e-05 -1.59904e-06 0)
(-2.13553e-05 -1.7941e-06 0)
(-1.31845e-05 -1.95403e-06 0)
(-4.4621e-06 -2.04633e-06 0)
(4.4621e-06 -2.04633e-06 0)
(1.31845e-05 -1.95403e-06 0)
(2.13553e-05 -1.7941e-06 0)
(2.87498e-05 -1.59904e-06 0)
(3.52681e-05 -1.39342e-06 0)
(4.08918e-05 -1.18992e-06 0)
(4.56439e-05 -9.94889e-07 0)
(4.95733e-05 -8.13744e-07 0)
(5.40177e-05 -5.50172e-07 0)
(5.82086e-05 -3.13619e-07 0)
(6.07613e-05 -2.17426e-07 0)
(6.2949e-05 -2.39763e-07 0)
(6.5748e-05 -3.42053e-07 0)
(6.93732e-05 -4.08072e-07 0)
(7.25931e-05 -2.60105e-07 0)
(7.46148e-05 -1.65023e-07 0)
(7.61755e-05 -1.66931e-07 0)
(7.80896e-05 -2.37484e-07 0)
(8.05578e-05 -2.80226e-07 0)
(8.26956e-05 -1.71142e-07 0)
(8.41305e-05 -1.38199e-07 0)
(8.56336e-05 -1.8602e-07 0)
(8.76371e-05 -2.41072e-07 0)
(8.94337e-05 -1.45296e-07 0)
(9.07799e-05 -1.51045e-07 0)
(9.25034e-05 -2.23779e-07 0)
(9.40698e-05 -1.21204e-07 0)
(9.50744e-05 -1.12112e-07 0)
(9.62187e-05 -1.52624e-07 0)
(9.73131e-05 -1.05729e-07 0)
(9.86322e-05 -2.02994e-07 0)
(0.000102105 -5.49643e-07 0)
(0.000105393 -1.73165e-07 0)
(0.000106883 -1.95505e-07 0)
(0.000107752 -6.26675e-08 0)
(0.000108364 -1.68391e-07 0)
(0.000103262 1.05469e-06 0)
(9.73634e-05 -1.00918e-07 0)
(5.49698e-05 8.1425e-06 0)
(6.42297e-06 -1.35661e-06 0)
(-1.11916e-07 -5.20637e-16 0)
(-4.33756e-05 8.35081e-06 0)
(-8.87044e-05 -2.34562e-08 0)
(-9.77681e-05 3.57883e-06 0)
(-0.000104305 -4.20135e-07 0)
(-0.000104154 -7.62677e-08 0)
(-0.000103702 -5.29637e-07 0)
(-0.000102547 -4.51671e-07 0)
(-9.94473e-05 -1.67188e-06 0)
(-9.60872e-05 -5.70164e-07 0)
(-9.49815e-05 -2.82482e-07 0)
(-9.40032e-05 -4.41962e-07 0)
(-9.29424e-05 -3.14503e-07 0)
(-9.20461e-05 -3.43206e-07 0)
(-9.05438e-05 -6.73603e-07 0)
(-8.88751e-05 -4.40531e-07 0)
(-8.7629e-05 -4.22929e-07 0)
(-8.589e-05 -7.30905e-07 0)
(-8.39238e-05 -5.55401e-07 0)
(-8.24939e-05 -4.05958e-07 0)
(-8.11422e-05 -5.08471e-07 0)
(-7.90485e-05 -8.55731e-07 0)
(-7.6606e-05 -7.19158e-07 0)
(-7.47516e-05 -4.98214e-07 0)
(-7.32687e-05 -4.91607e-07 0)
(-7.13279e-05 -7.86826e-07 0)
(-6.81425e-05 -1.25533e-06 0)
(-6.45383e-05 -1.04423e-06 0)
(-6.18064e-05 -7.24356e-07 0)
(-5.97067e-05 -6.54163e-07 0)
(-5.72598e-05 -9.49549e-07 0)
(-5.32037e-05 -1.67854e-06 0)
(-4.88756e-05 -2.49162e-06 0)
(-4.5031e-05 -3.05055e-06 0)
(-4.03726e-05 -3.65226e-06 0)
(-3.48518e-05 -4.28027e-06 0)
(-2.84425e-05 -4.91623e-06 0)
(-2.11543e-05 -5.5225e-06 0)
(-1.30762e-05 -6.02256e-06 0)
(-4.42875e-06 -6.31254e-06 0)
(4.42875e-06 -6.31254e-06 0)
(1.30762e-05 -6.02256e-06 0)
(2.11543e-05 -5.5225e-06 0)
(2.84425e-05 -4.91623e-06 0)
(3.48518e-05 -4.28027e-06 0)
(4.03726e-05 -3.65226e-06 0)
(4.5031e-05 -3.05055e-06 0)
(4.88756e-05 -2.49162e-06 0)
(5.32037e-05 -1.67854e-06 0)
(5.72598e-05 -9.49549e-07 0)
(5.97067e-05 -6.54163e-07 0)
(6.18064e-05 -7.24356e-07 0)
(6.45383e-05 -1.04423e-06 0)
(6.81425e-05 -1.25533e-06 0)
(7.13279e-05 -7.86826e-07 0)
(7.32687e-05 -4.91607e-07 0)
(7.47516e-05 -4.98214e-07 0)
(7.6606e-05 -7.19158e-07 0)
(7.90485e-05 -8.55731e-07 0)
(8.11422e-05 -5.08471e-07 0)
(8.24939e-05 -4.05958e-07 0)
(8.39238e-05 -5.55401e-07 0)
(8.589e-05 -7.30905e-07 0)
(8.7629e-05 -4.22929e-07 0)
(8.88751e-05 -4.40531e-07 0)
(9.05438e-05 -6.73603e-07 0)
(9.20461e-05 -3.43206e-07 0)
(9.29424e-05 -3.14503e-07 0)
(9.40032e-05 -4.41962e-07 0)
(9.49815e-05 -2.82482e-07 0)
(9.60872e-05 -5.70164e-07 0)
(9.94473e-05 -1.67188e-06 0)
(0.000102547 -4.51671e-07 0)
(0.000103702 -5.29637e-07 0)
(0.000104154 -7.62677e-08 0)
(0.000104305 -4.20135e-07 0)
(9.77681e-05 3.57883e-06 0)
(8.87044e-05 -2.34562e-08 0)
(4.33756e-05 8.35081e-06 0)
(1.11916e-07 -5.20637e-16 0)
(-1.1953e-19 -9.87787e-16 0)
(1.74992e-20 -9.81709e-16 0)
(-2.30523e-07 -1.00837e-15 0)
(-4.62495e-05 2.47955e-06 0)
(-9.48988e-05 -2.82188e-07 0)
(-9.9244e-05 1.27811e-07 0)
(-0.000100428 -8.44703e-07 0)
(-0.000100057 -6.44592e-07 0)
(-9.71947e-05 -2.9817e-06 0)
(-9.38661e-05 -9.10038e-07 0)
(-9.31199e-05 -4.42893e-07 0)
(-9.22802e-05 -7.65752e-07 0)
(-9.12896e-05 -5.22516e-07 0)
(-9.05397e-05 -5.65605e-07 0)
(-8.90666e-05 -1.18895e-06 0)
(-8.74077e-05 -7.41715e-07 0)
(-8.6301e-05 -7.05932e-07 0)
(-8.4591e-05 -1.28687e-06 0)
(-8.26053e-05 -9.54295e-07 0)
(-8.1262e-05 -6.83385e-07 0)
(-8.0028e-05 -8.6154e-07 0)
(-7.79423e-05 -1.50543e-06 0)
(-7.5458e-05 -1.24623e-06 0)
(-7.36632e-05 -8.47072e-07 0)
(-7.22938e-05 -8.30836e-07 0)
(-7.04654e-05 -1.34918e-06 0)
(-6.72512e-05 -2.21013e-06 0)
(-6.35775e-05 -1.81166e-06 0)
(-6.09115e-05 -1.23763e-06 0)
(-5.89426e-05 -1.10967e-06 0)
(-5.66587e-05 -1.61673e-06 0)
(-5.27905e-05 -2.87985e-06 0)
(-4.86045e-05 -4.29214e-06 0)
(-4.4847e-05 -5.26367e-06 0)
(-4.02746e-05 -6.30932e-06 0)
(-3.48389e-05 -7.40092e-06 0)
(-2.8507e-05 -8.51194e-06 0)
(-2.12679e-05 -9.58318e-06 0)
(-1.31847e-05 -1.0479e-05 0)
(-4.47364e-06 -1.10043e-05 0)
(4.47364e-06 -1.10043e-05 0)
(1.31847e-05 -1.0479e-05 0)
(2.12679e-05 -9.58318e-06 0)
(2.8507e-05 -8.51194e-06 0)
(3.48389e-05 -7.40092e-06 0)
(4.02746e-05 -6.30932e-06 0)
(4.4847e-05 -5.26367e-06 0)
(4.86045e-05 -4.29214e-06 0)
(5.27905e-05 -2.87985e-06 0)
(5.66587e-05 -1.61673e-06 0)
(5.89426e-05 -1.10967e-06 0)
(6.09115e-05 -1.23763e-06 0)
(6.35775e-05 -1.81166e-06 0)
(6.72512e-05 -2.21013e-06 0)
(7.04654e-05 -1.34918e-06 0)
(7.22938e-05 -8.30836e-07 0)
(7.36632e-05 -8.47072e-07 0)
(7.5458e-05 -1.24623e-06 0)
(7.79423e-05 -1.50543e-06 0)
(8.0028e-05 -8.6154e-07 0)
(8.1262e-05 -6.83385e-07 0)
(8.26053e-05 -9.54295e-07 0)
(8.4591e-05 -1.28687e-06 0)
(8.6301e-05 -7.05932e-07 0)
(8.74077e-05 -7.41715e-07 0)
(8.90666e-05 -1.18895e-06 0)
(9.05397e-05 -5.65605e-07 0)
(9.12896e-05 -5.22516e-07 0)
(9.22802e-05 -7.65752e-07 0)
(9.31199e-05 -4.42893e-07 0)
(9.38661e-05 -9.10038e-07 0)
(9.71947e-05 -2.9817e-06 0)
(0.000100057 -6.44592e-07 0)
(0.000100428 -8.44703e-07 0)
(9.9244e-05 1.27811e-07 0)
(9.48988e-05 -2.82188e-07 0)
(4.62495e-05 2.47955e-06 0)
(2.30523e-07 -1.00837e-15 0)
(-1.74992e-20 -9.81709e-16 0)
(1.1953e-19 -9.87787e-16 0)
(-7.48792e-20 -9.87738e-16 0)
(1.44996e-20 -9.87454e-16 0)
(5.86177e-20 -9.87749e-16 0)
(1.00407e-19 -9.79971e-16 0)
(-1.30148e-08 -7.45433e-16 0)
(-4.24892e-05 1.64156e-07 0)
(-8.89941e-05 -4.9259e-07 0)
(-9.49959e-05 -3.81608e-07 0)
(-9.40658e-05 -4.55238e-06 0)
(-9.11667e-05 -1.1131e-06 0)
(-9.12092e-05 -5.31451e-07 0)
(-9.06295e-05 -1.12973e-06 0)
(-8.97437e-05 -7.13325e-07 0)
(-8.924e-05 -7.57251e-07 0)
(-8.77758e-05 -1.80642e-06 0)
(-8.60836e-05 -1.03408e-06 0)
(-8.51998e-05 -9.66935e-07 0)
(-8.3496e-05 -1.94298e-06 0)
(-8.14243e-05 -1.37836e-06 0)
(-8.02024e-05 -9.51898e-07 0)
(-7.91497e-05 -1.21132e-06 0)
(-7.70353e-05 -2.26509e-06 0)
(-7.44271e-05 -1.82427e-06 0)
(-7.27053e-05 -1.19899e-06 0)
(-7.15079e-05 -1.16294e-06 0)
(-6.98512e-05 -1.93544e-06 0)
(-6.65356e-05 -3.32506e-06 0)
(-6.26812e-05 -2.65395e-06 0)
(-6.00961e-05 -1.76496e-06 0)
(-5.83246e-05 -1.5626e-06 0)
(-5.62881e-05 -2.29152e-06 0)
(-5.2693e-05 -4.13776e-06 0)
(-4.87e-05 -6.21071e-06 0)
(-4.50472e-05 -7.63872e-06 0)
(-4.05684e-05 -9.17463e-06 0)
(-3.52178e-05 -1.0777e-05 0)
(-2.89535e-05 -1.24217e-05 0)
(-2.17247e-05 -1.40405e-05 0)
(-1.35423e-05 -1.54285e-05 0)
(-4.61098e-06 -1.62591e-05 0)
(4.61098e-06 -1.62591e-05 0)
(1.35423e-05 -1.54285e-05 0)
(2.17247e-05 -1.40405e-05 0)
(2.89535e-05 -1.24217e-05 0)
(3.52178e-05 -1.0777e-05 0)
(4.05684e-05 -9.17463e-06 0)
(4.50472e-05 -7.63872e-06 0)
(4.87e-05 -6.21071e-06 0)
(5.2693e-05 -4.13776e-06 0)
(5.62881e-05 -2.29152e-06 0)
(5.83246e-05 -1.5626e-06 0)
(6.00961e-05 -1.76496e-06 0)
(6.26812e-05 -2.65395e-06 0)
(6.65356e-05 -3.32506e-06 0)
(6.98512e-05 -1.93544e-06 0)
(7.15079e-05 -1.16294e-06 0)
(7.27053e-05 -1.19899e-06 0)
(7.44271e-05 -1.82427e-06 0)
(7.70353e-05 -2.26509e-06 0)
(7.91497e-05 -1.21132e-06 0)
(8.02024e-05 -9.51898e-07 0)
(8.14243e-05 -1.37836e-06 0)
(8.3496e-05 -1.94298e-06 0)
(8.51998e-05 -9.66935e-07 0)
(8.60836e-05 -1.03408e-06 0)
(8.77758e-05 -1.80642e-06 0)
(8.924e-05 -7.57251e-07 0)
(8.97437e-05 -7.13325e-07 0)
(9.06295e-05 -1.12973e-06 0)
(9.12092e-05 -5.31451e-07 0)
(9.11667e-05 -1.1131e-06 0)
(9.40658e-05 -4.55238e-06 0)
(9.49959e-05 -3.81608e-07 0)
(8.89941e-05 -4.9259e-07 0)
(4.24892e-05 1.64156e-07 0)
(1.30148e-08 -7.45433e-16 0)
(-1.00407e-19 -9.79971e-16 0)
(-5.86177e-20 -9.87749e-16 0)
(-1.44996e-20 -9.87454e-16 0)
(7.48792e-20 -9.87738e-16 0)
(-4.39416e-20 -9.87705e-16 0)
(1.46085e-20 -9.87528e-16 0)
(5.55797e-20 -9.87699e-16 0)
(9.12639e-20 -9.87548e-16 0)
(9.75471e-20 -9.87755e-16 0)
(1.35416e-19 -9.86081e-16 0)
(-1.31724e-11 -7.67942e-16 0)
(-2.60358e-05 -3.02946e-08 0)
(-6.61812e-05 -2.7054e-06 0)
(-8.33127e-05 -5.81022e-07 0)
(-8.75218e-05 -3.42878e-07 0)
(-8.8267e-05 -1.51621e-06 0)
(-8.78344e-05 -8.37609e-07 0)
(-8.78805e-05 -8.58432e-07 0)
(-8.64646e-05 -2.59684e-06 0)
(-8.47098e-05 -1.2829e-06 0)
(-8.42198e-05 -1.15962e-06 0)
(-8.25029e-05 -2.7663e-06 0)
(-8.02524e-05 -1.82179e-06 0)
(-7.92167e-05 -1.18611e-06 0)
(-7.84541e-05 -1.5259e-06 0)
(-7.62622e-05 -3.202e-06 0)
(-7.34104e-05 -2.46319e-06 0)
(-7.17911e-05 -1.53374e-06 0)
(-7.08511e-05 -1.45982e-06 0)
(-6.94666e-05 -2.52269e-06 0)
(-6.59482e-05 -4.69342e-06 0)
(-6.17522e-05 -3.58395e-06 0)
(-5.92827e-05 -2.28408e-06 0)
(-5.7802e-05 -1.98267e-06 0)
(-5.61262e-05 -2.93837e-06 0)
(-5.29221e-05 -5.42487e-06 0)
(-4.91955e-05 -8.23436e-06 0)
(-4.56761e-05 -1.01753e-05 0)
(-4.13064e-05 -1.22594e-05 0)
(-3.60525e-05 -1.4425e-05 0)
(-2.98672e-05 -1.66744e-05 0)
(-2.263e-05 -1.89669e-05 0)
(-1.42447e-05 -2.10167e-05 0)
(-4.88056e-06 -2.22854e-05 0)
(4.88056e-06 -2.22854e-05 0)
(1.42447e-05 -2.10167e-05 0)
(2.263e-05 -1.89669e-05 0)
(2.98672e-05 -1.66744e-05 0)
(3.60525e-05 -1.4425e-05 0)
(4.13064e-05 -1.22594e-05 0)
(4.56761e-05 -1.01753e-05 0)
(4.91955e-05 -8.23436e-06 0)
(5.29221e-05 -5.42487e-06 0)
(5.61262e-05 -2.93837e-06 0)
(5.7802e-05 -1.98267e-06 0)
(5.92827e-05 -2.28408e-06 0)
(6.17522e-05 -3.58395e-06 0)
(6.59482e-05 -4.69342e-06 0)
(6.94666e-05 -2.52269e-06 0)
(7.08511e-05 -1.45982e-06 0)
(7.17911e-05 -1.53374e-06 0)
(7.34104e-05 -2.46319e-06 0)
(7.62622e-05 -3.202e-06 0)
(7.84541e-05 -1.5259e-06 0)
(7.92167e-05 -1.18611e-06 0)
(8.02524e-05 -1.82179e-06 0)
(8.25029e-05 -2.7663e-06 0)
(8.42198e-05 -1.15962e-06 0)
(8.47098e-05 -1.2829e-06 0)
(8.64646e-05 -2.59684e-06 0)
(8.78805e-05 -8.58432e-07 0)
(8.78344e-05 -8.37609e-07 0)
(8.8267e-05 -1.51621e-06 0)
(8.75218e-05 -3.42878e-07 0)
(8.33127e-05 -5.81022e-07 0)
(6.61812e-05 -2.7054e-06 0)
(2.60358e-05 -3.02946e-08 0)
(1.31724e-11 -7.67942e-16 0)
(-1.35416e-19 -9.86081e-16 0)
(-9.75471e-20 -9.87755e-16 0)
(-9.12639e-20 -9.87548e-16 0)
(-5.55797e-20 -9.87699e-16 0)
(-1.46085e-20 -9.87528e-16 0)
(4.39416e-20 -9.87705e-16 0)
(-2.3295e-20 -9.87685e-16 0)
(1.63231e-20 -9.87578e-16 0)
(5.27272e-20 -9.87672e-16 0)
(8.39017e-20 -9.87595e-16 0)
(9.68211e-20 -9.87714e-16 0)
(1.26161e-19 -9.87605e-16 0)
(1.37452e-19 -9.87768e-16 0)
(1.51574e-19 -9.87521e-16 0)
(1.67821e-19 -8.47374e-16 0)
(-4.47071e-09 -6.77147e-16 0)
(-3.45834e-05 -6.80866e-08 0)
(-7.42762e-05 -8.54448e-07 0)
(-8.14948e-05 -4.36798e-07 0)
(-8.48434e-05 -5.96296e-07 0)
(-8.44103e-05 -3.64775e-06 0)
(-8.28311e-05 -1.39425e-06 0)
(-8.31762e-05 -1.17955e-06 0)
(-8.1477e-05 -3.87845e-06 0)
(-7.89271e-05 -2.26126e-06 0)
(-7.82097e-05 -1.34172e-06 0)
(-7.7934e-05 -1.73686e-06 0)
(-7.55958e-05 -4.43932e-06 0)
(-7.23103e-05 -3.17056e-06 0)
(-7.08542e-05 -1.81554e-06 0)
(-7.0296e-05 -1.67545e-06 0)
(-6.93589e-05 -3.05562e-06 0)
(-6.54825e-05 -6.48361e-06 0)
(-6.06907e-05 -4.6102e-06 0)
(-5.84095e-05 -2.75514e-06 0)
(-5.73492e-05 -2.32312e-06 0)
(-5.61825e-05 -3.50026e-06 0)
(-5.35278e-05 -6.69432e-06 0)
(-5.01696e-05 -1.03343e-05 0)
(-4.6824e-05 -1.28652e-05 0)
(-4.2581e-05 -1.55735e-05 0)
(-3.7445e-05 -1.83485e-05 0)
(-3.13908e-05 -2.12716e-05 0)
(-2.41769e-05 -2.44286e-05 0)
(-1.54799e-05 -2.74509e-05 0)
(-5.36347e-06 -2.94257e-05 0)
(5.36347e-06 -2.94257e-05 0)
(1.54799e-05 -2.74509e-05 0)
(2.41769e-05 -2.44286e-05 0)
(3.13908e-05 -2.12716e-05 0)
(3.7445e-05 -1.83485e-05 0)
(4.2581e-05 -1.55735e-05 0)
(4.6824e-05 -1.28652e-05 0)
(5.01696e-05 -1.03343e-05 0)
(5.35278e-05 -6.69432e-06 0)
(5.61825e-05 -3.50026e-06 0)
(5.73492e-05 -2.32312e-06 0)
(5.84095e-05 -2.75514e-06 0)
(6.06907e-05 -4.6102e-06 0)
(6.54825e-05 -6.48361e-06 0)
(6.93589e-05 -3.05562e-06 0)
(7.0296e-05 -1.67545e-06 0)
(7.08542e-05 -1.81554e-06 0)
(7.23103e-05 -3.17056e-06 0)
(7.55958e-05 -4.43932e-06 0)
(7.7934e-05 -1.73686e-06 0)
(7.82097e-05 -1.34172e-06 0)
(7.89271e-05 -2.26126e-06 0)
(8.1477e-05 -3.87845e-06 0)
(8.31762e-05 -1.17955e-06 0)
(8.28311e-05 -1.39425e-06 0)
(8.44103e-05 -3.64775e-06 0)
(8.48434e-05 -5.96296e-07 0)
(8.14948e-05 -4.36798e-07 0)
(7.42762e-05 -8.54448e-07 0)
(3.45834e-05 -6.80866e-08 0)
(4.47071e-09 -6.77147e-16 0)
(-1.67821e-19 -8.47374e-16 0)
(-1.51574e-19 -9.87521e-16 0)
(-1.37452e-19 -9.87768e-16 0)
(-1.26161e-19 -9.87605e-16 0)
(-9.68211e-20 -9.87714e-16 0)
(-8.39017e-20 -9.87595e-16 0)
(-5.27272e-20 -9.87672e-16 0)
(-1.63231e-20 -9.87578e-16 0)
(2.3295e-20 -9.87685e-16 0)
(-1.00594e-20 -9.87673e-16 0)
(1.85544e-20 -9.87612e-16 0)
(5.01694e-20 -9.87661e-16 0)
(7.78194e-20 -9.87626e-16 0)
(9.42323e-20 -9.87693e-16 0)
(1.1798e-19 -9.87644e-16 0)
(1.30523e-19 -9.87738e-16 0)
(1.41646e-19 -9.87685e-16 0)
(1.43854e-19 -9.87793e-16 0)
(5.49572e-20 -9.87794e-16 0)
(1.40718e-19 -9.8677e-16 0)
(2.01475e-19 -8.30266e-16 0)
(-9.93413e-10 -6.76083e-16 0)
(-2.75871e-05 -1.58438e-07 0)
(-6.38717e-05 -2.12457e-06 0)
(-7.52668e-05 -6.99069e-07 0)
(-7.99174e-05 -5.64037e-07 0)
(-7.94908e-05 -5.4403e-06 0)
(-7.68749e-05 -2.59916e-06 0)
(-7.68919e-05 -1.33225e-06 0)
(-7.75378e-05 -1.68718e-06 0)
(-7.49837e-05 -6.21495e-06 0)
(-7.09606e-05 -3.93831e-06 0)
(-6.98049e-05 -1.98068e-06 0)
(-6.98135e-05 -1.73744e-06 0)
(-6.96477e-05 -3.40165e-06 0)
(-6.51604e-05 -9.02098e-06 0)
(-5.93436e-05 -5.72017e-06 0)
(-5.74063e-05 -3.10791e-06 0)
(-5.69466e-05 -2.51495e-06 0)
(-5.64823e-05 -3.88791e-06 0)
(-5.45908e-05 -7.87046e-06 0)
(-5.17435e-05 -1.24538e-05 0)
(-4.86298e-05 -1.56907e-05 0)
(-4.45163e-05 -1.91406e-05 0)
(-3.95153e-05 -2.25292e-05 0)
(-3.37288e-05 -2.61311e-05 0)
(-2.67095e-05 -3.04332e-05 0)
(-1.76269e-05 -3.50304e-05 0)
(-6.23273e-06 -3.83016e-05 0)
(6.23273e-06 -3.83016e-05 0)
(1.76269e-05 -3.50304e-05 0)
(2.67095e-05 -3.04332e-05 0)
(3.37288e-05 -2.61311e-05 0)
(3.95153e-05 -2.25292e-05 0)
(4.45163e-05 -1.91406e-05 0)
(4.86298e-05 -1.56907e-05 0)
(5.17435e-05 -1.24538e-05 0)
(5.45908e-05 -7.87046e-06 0)
(5.64823e-05 -3.88791e-06 0)
(5.69466e-05 -2.51495e-06 0)
(5.74063e-05 -3.10791e-06 0)
(5.93436e-05 -5.72017e-06 0)
(6.51604e-05 -9.02098e-06 0)
(6.96477e-05 -3.40165e-06 0)
(6.98135e-05 -1.73744e-06 0)
(6.98049e-05 -1.98068e-06 0)
(7.09606e-05 -3.93831e-06 0)
(7.49837e-05 -6.21495e-06 0)
(7.75378e-05 -1.68718e-06 0)
(7.68919e-05 -1.33225e-06 0)
(7.68749e-05 -2.59916e-06 0)
(7.94908e-05 -5.4403e-06 0)
(7.99174e-05 -5.64037e-07 0)
(7.52668e-05 -6.99069e-07 0)
(6.38717e-05 -2.12457e-06 0)
(2.75871e-05 -1.58438e-07 0)
(9.93413e-10 -6.76083e-16 0)
(-2.01475e-19 -8.30266e-16 0)
(-1.40718e-19 -9.8677e-16 0)
(-5.49572e-20 -9.87794e-16 0)
(-1.43854e-19 -9.87793e-16 0)
(-1.41646e-19 -9.87685e-16 0)
(-1.30523e-19 -9.87738e-16 0)
(-1.1798e-19 -9.87644e-16 0)
(-9.42323e-20 -9.87693e-16 0)
(-7.78194e-20 -9.87626e-16 0)
(-5.01694e-20 -9.87661e-16 0)
(-1.85544e-20 -9.87612e-16 0)
(1.00594e-20 -9.87673e-16 0)
(-1.94168e-21 -9.87669e-16 0)
(2.06077e-20 -9.87636e-16 0)
(4.78847e-20 -9.8766e-16 0)
(7.26239e-20 -9.87647e-16 0)
(9.04296e-20 -9.87685e-16 0)
(1.10478e-19 -9.87668e-16 0)
(1.2311e-19 -9.87723e-16 0)
(1.31927e-19 -9.87707e-16 0)
(1.29531e-19 -9.87771e-16 0)
(8.32426e-20 -9.87767e-16 0)
(1.33512e-19 -9.87656e-16 0)
(1.67749e-19 -9.878e-16 0)
(9.14034e-20 -9.87795e-16 0)
(1.69415e-19 -9.87202e-16 0)
(2.31987e-19 -8.67744e-16 0)
(1.27891e-19 -7.35946e-16 0)
(-4.37496e-06 -2.79068e-12 0)
(-3.45232e-05 -3.1771e-06 0)
(-6.47801e-05 -1.36144e-06 0)
(-7.13005e-05 -6.35837e-07 0)
(-7.5586e-05 -7.84815e-07 0)
(-7.36984e-05 -8.93918e-06 0)
(-6.8779e-05 -4.67339e-06 0)
(-6.83699e-05 -1.90373e-06 0)
(-6.92677e-05 -1.53575e-06 0)
(-7.05383e-05 -3.23157e-06 0)
(-6.50208e-05 -1.29772e-05 0)
(-5.74192e-05 -6.82538e-06 0)
(-5.61794e-05 -3.21879e-06 0)
(-5.65717e-05 -2.46157e-06 0)
(-5.70592e-05 -3.96188e-06 0)
(-5.62209e-05 -8.83556e-06 0)
(-5.40957e-05 -1.44765e-05 0)
(-5.13129e-05 -1.86208e-05 0)
(-4.72611e-05 -2.30677e-05 0)
(-4.23337e-05 -2.6931e-05 0)
(-3.71289e-05 -3.09264e-05 0)
(-3.0865e-05 -3.67424e-05 0)
(-2.1518e-05 -4.4162e-05 0)
(-7.89715e-06 -5.01847e-05 0)
(7.89715e-06 -5.01847e-05 0)
(2.1518e-05 -4.4162e-05 0)
(3.0865e-05 -3.67424e-05 0)
(3.71289e-05 -3.09264e-05 0)
(4.23337e-05 -2.6931e-05 0)
(4.72611e-05 -2.30677e-05 0)
(5.13129e-05 -1.86208e-05 0)
(5.40957e-05 -1.44765e-05 0)
(5.62209e-05 -8.83556e-06 0)
(5.70592e-05 -3.96188e-06 0)
(5.65717e-05 -2.46157e-06 0)
(5.61794e-05 -3.21879e-06 0)
(5.74192e-05 -6.82538e-06 0)
(6.50208e-05 -1.29772e-05 0)
(7.05383e-05 -3.23157e-06 0)
(6.92677e-05 -1.53575e-06 0)
(6.83699e-05 -1.90373e-06 0)
(6.8779e-05 -4.67339e-06 0)
(7.36984e-05 -8.93918e-06 0)
(7.5586e-05 -7.84815e-07 0)
(7.13005e-05 -6.35837e-07 0)
(6.47801e-05 -1.36144e-06 0)
(3.45232e-05 -3.1771e-06 0)
(4.37496e-06 -2.79068e-12 0)
(-1.27891e-19 -7.35946e-16 0)
(-2.31987e-19 -8.67744e-16 0)
(-1.69415e-19 -9.87202e-16 0)
(-9.14034e-20 -9.87795e-16 0)
(-1.67749e-19 -9.878e-16 0)
(-1.33512e-19 -9.87656e-16 0)
(-8.32426e-20 -9.87767e-16 0)
(-1.29531e-19 -9.87771e-16 0)
(-1.31927e-19 -9.87707e-16 0)
(-1.2311e-19 -9.87723e-16 0)
(-1.10478e-19 -9.87668e-16 0)
(-9.04296e-20 -9.87685e-16 0)
(-7.26239e-20 -9.87647e-16 0)
(-4.78847e-20 -9.8766e-16 0)
(-2.06077e-20 -9.87636e-16 0)
(1.94168e-21 -9.87669e-16 0)
(2.78621e-21 -9.8767e-16 0)
(2.2113e-20 -9.87652e-16 0)
(4.57796e-20 -9.87664e-16 0)
(6.80206e-20 -9.87662e-16 0)
(8.59045e-20 -9.87685e-16 0)
(1.03421e-19 -9.87684e-16 0)
(1.15582e-19 -9.87717e-16 0)
(1.23039e-19 -9.87719e-16 0)
(1.20754e-19 -9.87757e-16 0)
(9.90128e-20 -9.87754e-16 0)
(1.28141e-19 -9.87701e-16 0)
(1.48228e-19 -9.87776e-16 0)
(1.15157e-19 -9.87774e-16 0)
(1.60681e-19 -9.87693e-16 0)
(1.95598e-19 -9.87813e-16 0)
(1.4055e-19 -9.87834e-16 0)
(1.21563e-19 -9.87769e-16 0)
(2.00169e-19 -9.55172e-16 0)
(2.27853e-19 -8.47658e-16 0)
(1.53273e-19 -7.35928e-16 0)
(-9.14205e-07 -1.49445e-13 0)
(-2.43373e-05 -5.30081e-06 0)
(-5.33486e-05 -2.50609e-06 0)
(-6.22048e-05 -8.91801e-07 0)
(-6.62951e-05 -6.7624e-07 0)
(-7.15077e-05 -1.51959e-06 0)
(-6.47962e-05 -1.97943e-05 0)
(-5.4168e-05 -7.57076e-06 0)
(-5.45432e-05 -2.86637e-06 0)
(-5.61557e-05 -2.03718e-06 0)
(-5.79287e-05 -3.49866e-06 0)
(-5.8544e-05 -9.41532e-06 0)
(-5.74893e-05 -1.61223e-05 0)
(-5.52931e-05 -2.15598e-05 0)
(-5.09922e-05 -2.78379e-05 0)
(-4.56631e-05 -3.162e-05 0)
(-4.17114e-05 -3.462e-05 0)
(-3.78808e-05 -4.22413e-05 0)
(-2.91894e-05 -5.5206e-05 0)
(-1.14536e-05 -6.80813e-05 0)
(1.14536e-05 -6.80813e-05 0)
(2.91894e-05 -5.5206e-05 0)
(3.78808e-05 -4.22413e-05 0)
(4.17114e-05 -3.462e-05 0)
(4.56631e-05 -3.162e-05 0)
(5.09922e-05 -2.78379e-05 0)
(5.52931e-05 -2.15598e-05 0)
(5.74893e-05 -1.61223e-05 0)
(5.8544e-05 -9.41532e-06 0)
(5.79287e-05 -3.49866e-06 0)
(5.61557e-05 -2.03718e-06 0)
(5.45432e-05 -2.86637e-06 0)
(5.4168e-05 -7.57076e-06 0)
(6.47962e-05 -1.97943e-05 0)
(7.15077e-05 -1.51959e-06 0)
(6.62951e-05 -6.7624e-07 0)
(6.22048e-05 -8.91801e-07 0)
(5.33486e-05 -2.50609e-06 0)
(2.43373e-05 -5.30081e-06 0)
(9.14205e-07 -1.49445e-13 0)
(-1.53273e-19 -7.35928e-16 0)
(-2.27853e-19 -8.47658e-16 0)
(-2.00169e-19 -9.55172e-16 0)
(-1.21563e-19 -9.87769e-16 0)
(-1.4055e-19 -9.87834e-16 0)
(-1.95598e-19 -9.87813e-16 0)
(-1.60681e-19 -9.87693e-16 0)
(-1.15157e-19 -9.87774e-16 0)
(-1.48228e-19 -9.87776e-16 0)
(-1.28141e-19 -9.87701e-16 0)
(-9.90128e-20 -9.87754e-16 0)
(-1.20754e-19 -9.87757e-16 0)
(-1.23039e-19 -9.87719e-16 0)
(-1.15582e-19 -9.87717e-16 0)
(-1.03421e-19 -9.87684e-16 0)
(-8.59045e-20 -9.87685e-16 0)
(-6.80206e-20 -9.87662e-16 0)
(-4.57796e-20 -9.87664e-16 0)
(-2.2113e-20 -9.87652e-16 0)
(-2.78621e-21 -9.8767e-16 0)
(5.35783e-21 -9.87673e-16 0)
(2.29392e-20 -9.87665e-16 0)
(4.37416e-20 -9.87671e-16 0)
(6.37996e-20 -9.87674e-16 0)
(8.10111e-20 -9.87689e-16 0)
(9.6699e-20 -9.87695e-16 0)
(1.08219e-19 -9.87717e-16 0)
(1.15141e-19 -9.87726e-16 0)
(1.14825e-19 -9.87749e-16 0)
(1.06642e-19 -9.87749e-16 0)
(1.23968e-19 -9.87727e-16 0)
(1.36918e-19 -9.87765e-16 0)
(1.26274e-19 -9.87766e-16 0)
(1.53118e-19 -9.87733e-16 0)
(1.72783e-19 -9.87797e-16 0)
(1.46175e-19 -9.87814e-16 0)
(1.39611e-19 -9.87781e-16 0)
(1.84111e-19 -9.87757e-16 0)
(2.00887e-19 -9.8784e-16 0)
(1.63726e-19 -9.87852e-16 0)
(1.57887e-19 -9.87809e-16 0)
(2.1163e-19 -9.79191e-16 0)
(2.3376e-19 -9.01736e-16 0)
(2.07662e-19 -8.12793e-16 0)
(1.96042e-19 -7.21272e-16 0)
(4.40621e-11 -4.02862e-08 0)
(-1.48283e-05 -1.20823e-05 0)
(-3.80417e-05 -3.89158e-06 0)
(-4.91821e-05 -1.26934e-06 0)
(-5.37922e-05 -8.57369e-07 0)
(-5.81554e-05 -1.92981e-06 0)
(-6.1246e-05 -9.31188e-06 0)
(-6.20881e-05 -1.65313e-05 0)
(-6.15558e-05 -2.38525e-05 0)
(-5.60091e-05 -3.5541e-05 0)
(-4.79633e-05 -3.75331e-05 0)
(-4.65972e-05 -3.39897e-05 0)
(-5.02081e-05 -4.28099e-05 0)
(-4.62525e-05 -6.71837e-05 0)
(-2.03057e-05 -0.000100422 0)
(2.03057e-05 -0.000100422 0)
(4.62525e-05 -6.71837e-05 0)
(5.02081e-05 -4.28099e-05 0)
(4.65972e-05 -3.39897e-05 0)
(4.79633e-05 -3.75331e-05 0)
(5.60091e-05 -3.5541e-05 0)
(6.15558e-05 -2.38525e-05 0)
(6.20881e-05 -1.65313e-05 0)
(6.1246e-05 -9.31188e-06 0)
(5.81554e-05 -1.92981e-06 0)
(5.37922e-05 -8.57369e-07 0)
(4.91821e-05 -1.26934e-06 0)
(3.80417e-05 -3.89158e-06 0)
(1.48283e-05 -1.20823e-05 0)
(-4.40621e-11 -4.02862e-08 0)
(-1.96042e-19 -7.21272e-16 0)
(-2.07662e-19 -8.12793e-16 0)
(-2.3376e-19 -9.01736e-16 0)
(-2.1163e-19 -9.79191e-16 0)
(-1.57887e-19 -9.87809e-16 0)
(-1.63726e-19 -9.87852e-16 0)
(-2.00887e-19 -9.8784e-16 0)
(-1.84111e-19 -9.87757e-16 0)
(-1.39611e-19 -9.87781e-16 0)
(-1.46175e-19 -9.87814e-16 0)
(-1.72783e-19 -9.87797e-16 0)
(-1.53118e-19 -9.87733e-16 0)
(-1.26274e-19 -9.87766e-16 0)
(-1.36918e-19 -9.87765e-16 0)
(-1.23968e-19 -9.87727e-16 0)
(-1.06642e-19 -9.87749e-16 0)
(-1.14825e-19 -9.87749e-16 0)
(-1.15141e-19 -9.87726e-16 0)
(-1.08219e-19 -9.87717e-16 0)
(-9.6699e-20 -9.87695e-16 0)
(-8.10111e-20 -9.87689e-16 0)
(-6.37996e-20 -9.87674e-16 0)
(-4.37416e-20 -9.87671e-16 0)
(-2.29392e-20 -9.87665e-16 0)
(-5.35783e-21 -9.87673e-16 0)
(6.6087e-21 -9.87679e-16 0)
(2.31089e-20 -9.87676e-16 0)
(4.16765e-20 -9.8768e-16 0)
(5.98207e-20 -9.87684e-16 0)
(7.59923e-20 -9.87695e-16 0)
(9.02791e-20 -9.87703e-16 0)
(1.01194e-19 -9.87719e-16 0)
(1.08134e-19 -9.8773e-16 0)
(1.10121e-19 -9.87745e-16 0)
(1.09178e-19 -9.87748e-16 0)
(1.20393e-19 -9.87741e-16 0)
(1.29908e-19 -9.87762e-16 0)
(1.29896e-19 -9.87765e-16 0)
(1.46465e-19 -9.87755e-16 0)
(1.58338e-19 -9.8779e-16 0)
(1.47761e-19 -9.87803e-16 0)
(1.47732e-19 -9.87789e-16 0)
(1.72838e-19 -9.87783e-16 0)
(1.83641e-19 -9.87827e-16 0)
(1.67574e-19 -9.87839e-16 0)
(1.67888e-19 -9.8782e-16 0)
(1.98437e-19 -9.87814e-16 0)
(2.13572e-19 -9.87866e-16 0)
(2.02724e-19 -9.87883e-16 0)
(1.98894e-19 -9.8789e-16 0)
(2.14747e-19 -9.87887e-16 0)
(1.8408e-19 -9.87977e-16 0)
(1.53533e-19 -9.4513e-16 0)
(1.78527e-19 -8.82995e-16 0)
(1.94807e-19 -8.1609e-16 0)
(2.84314e-10 -3.80746e-07 0)
(5.93875e-09 -4.52032e-06 0)
(2.25447e-08 -8.131e-06 0)
(5.50729e-08 -1.23463e-05 0)
(-2.62609e-07 -2.02748e-05 0)
(-1.5807e-05 -2.05042e-05 0)
(-4.35558e-05 -1.74484e-05 0)
(-7.07832e-05 -2.40616e-05 0)
(-8.92078e-05 -6.87633e-05 0)
(-4.64741e-05 -0.00017531 0)
(4.64741e-05 -0.00017531 0)
(8.92078e-05 -6.87633e-05 0)
(7.07832e-05 -2.40616e-05 0)
(4.35558e-05 -1.74484e-05 0)
(1.5807e-05 -2.05042e-05 0)
(2.62609e-07 -2.02748e-05 0)
(-5.50729e-08 -1.23463e-05 0)
(-2.25447e-08 -8.131e-06 0)
(-5.93875e-09 -4.52032e-06 0)
(-2.84314e-10 -3.80746e-07 0)
(-1.94807e-19 -8.1609e-16 0)
(-1.78527e-19 -8.82995e-16 0)
(-1.53533e-19 -9.4513e-16 0)
(-1.8408e-19 -9.87977e-16 0)
(-2.14747e-19 -9.87887e-16 0)
(-1.98894e-19 -9.8789e-16 0)
(-2.02724e-19 -9.87883e-16 0)
(-2.13572e-19 -9.87866e-16 0)
(-1.98437e-19 -9.87814e-16 0)
(-1.67888e-19 -9.8782e-16 0)
(-1.67574e-19 -9.87839e-16 0)
(-1.83641e-19 -9.87827e-16 0)
(-1.72838e-19 -9.87783e-16 0)
(-1.47732e-19 -9.87789e-16 0)
(-1.47761e-19 -9.87803e-16 0)
(-1.58338e-19 -9.8779e-16 0)
(-1.46465e-19 -9.87755e-16 0)
(-1.29896e-19 -9.87765e-16 0)
(-1.29908e-19 -9.87762e-16 0)
(-1.20393e-19 -9.87741e-16 0)
(-1.09178e-19 -9.87748e-16 0)
(-1.10121e-19 -9.87745e-16 0)
(-1.08134e-19 -9.8773e-16 0)
(-1.01194e-19 -9.87719e-16 0)
(-9.02791e-20 -9.87703e-16 0)
(-7.59923e-20 -9.87695e-16 0)
(-5.98207e-20 -9.87684e-16 0)
(-4.16765e-20 -9.8768e-16 0)
(-2.31089e-20 -9.87676e-16 0)
(-6.6087e-21 -9.87679e-16 0)
(7.07774e-21 -9.87687e-16 0)
(2.27265e-20 -9.87686e-16 0)
(3.95279e-20 -9.87689e-16 0)
(5.59992e-20 -9.87693e-16 0)
(7.10059e-20 -9.87702e-16 0)
(8.41651e-20 -9.87711e-16 0)
(9.45818e-20 -9.87723e-16 0)
(1.01811e-19 -9.87734e-16 0)
(1.05767e-19 -9.87745e-16 0)
(1.08615e-19 -9.87749e-16 0)
(1.16938e-19 -9.8775e-16 0)
(1.2484e-19 -9.87762e-16 0)
(1.29308e-19 -9.87767e-16 0)
(1.40459e-19 -9.87768e-16 0)
(1.4867e-19 -9.87788e-16 0)
(1.466e-19 -9.87798e-16 0)
(1.49726e-19 -9.87795e-16 0)
(1.64407e-19 -9.87797e-16 0)
(1.72116e-19 -9.87823e-16 0)
(1.67289e-19 -9.87833e-16 0)
(1.70541e-19 -9.87828e-16 0)
(1.88206e-19 -9.87831e-16 0)
(1.98576e-19 -9.87862e-16 0)
(1.95376e-19 -9.8788e-16 0)
(1.93729e-19 -9.8789e-16 0)
(1.97813e-19 -9.87902e-16 0)
(1.81193e-19 -9.87942e-16 0)
(1.66466e-19 -9.87914e-16 0)
(1.80745e-19 -9.8791e-16 0)
(2.04288e-19 -9.87911e-16 0)
(2.61143e-19 -9.87902e-16 0)
(3.17825e-19 -9.88014e-16 0)
(3.20735e-19 -9.88139e-16 0)
(2.59857e-19 -9.88255e-16 0)
(-1.84539e-16 -9.8841e-16 0)
(-1.55249e-16 -2.39301e-12 0)
(4.35004e-10 -1.45645e-06 0)
(2.51549e-09 -5.5336e-06 0)
(7.85887e-08 -6.23143e-05 0)
(7.65083e-08 -0.000225061 0)
(-7.65083e-08 -0.000225061 0)
(-7.85887e-08 -6.23143e-05 0)
(-2.51549e-09 -5.5336e-06 0)
(-4.35004e-10 -1.45645e-06 0)
(1.55249e-16 -2.39301e-12 0)
(1.84539e-16 -9.8841e-16 0)
(-2.59857e-19 -9.88255e-16 0)
(-3.20735e-19 -9.88139e-16 0)
(-3.17825e-19 -9.88014e-16 0)
(-2.61143e-19 -9.87902e-16 0)
(-2.04288e-19 -9.87911e-16 0)
(-1.80745e-19 -9.8791e-16 0)
(-1.66466e-19 -9.87914e-16 0)
(-1.81193e-19 -9.87942e-16 0)
(-1.97813e-19 -9.87902e-16 0)
(-1.93729e-19 -9.8789e-16 0)
(-1.95376e-19 -9.8788e-16 0)
(-1.98576e-19 -9.87862e-16 0)
(-1.88206e-19 -9.87831e-16 0)
(-1.70541e-19 -9.87828e-16 0)
(-1.67289e-19 -9.87833e-16 0)
(-1.72116e-19 -9.87823e-16 0)
(-1.64407e-19 -9.87797e-16 0)
(-1.49726e-19 -9.87795e-16 0)
(-1.466e-19 -9.87798e-16 0)
(-1.4867e-19 -9.87788e-16 0)
(-1.40459e-19 -9.87768e-16 0)
(-1.29308e-19 -9.87767e-16 0)
(-1.2484e-19 -9.87762e-16 0)
(-1.16938e-19 -9.8775e-16 0)
(-1.08615e-19 -9.87749e-16 0)
(-1.05767e-19 -9.87745e-16 0)
(-1.01811e-19 -9.87734e-16 0)
(-9.45818e-20 -9.87723e-16 0)
(-8.41651e-20 -9.87711e-16 0)
(-7.10059e-20 -9.87702e-16 0)
(-5.59992e-20 -9.87693e-16 0)
(-3.95279e-20 -9.87689e-16 0)
(-2.27265e-20 -9.87686e-16 0)
(-7.07774e-21 -9.87687e-16 0)
(7.09806e-21 -9.87695e-16 0)
(2.19256e-20 -9.87695e-16 0)
(3.72804e-20 -9.87698e-16 0)
(5.22923e-20 -9.87703e-16 0)
(6.61481e-20 -9.8771e-16 0)
(7.83665e-20 -9.87718e-16 0)
(8.83845e-20 -9.87728e-16 0)
(9.59584e-20 -9.87738e-16 0)
(1.01358e-19 -9.87747e-16 0)
(1.06186e-19 -9.87752e-16 0)
(1.13289e-19 -9.87756e-16 0)
(1.20417e-19 -9.87765e-16 0)
(1.26452e-19 -9.87771e-16 0)
(1.34844e-19 -9.87776e-16 0)
(1.41467e-19 -9.87789e-16 0)
(1.43608e-19 -9.87798e-16 0)
(1.48088e-19 -9.878e-16 0)
(1.57468e-19 -9.87806e-16 0)
(1.63622e-19 -9.87822e-16 0)
(1.64303e-19 -9.87832e-16 0)
(1.68682e-19 -9.87834e-16 0)
(1.79398e-19 -9.87842e-16 0)
(1.86618e-19 -9.87862e-16 0)
(1.86804e-19 -9.87878e-16 0)
(1.86167e-19 -9.87891e-16 0)
(1.86089e-19 -9.87904e-16 0)
(1.77402e-19 -9.87925e-16 0)
(1.71053e-19 -9.87918e-16 0)
(1.80113e-19 -9.87919e-16 0)
(1.98716e-19 -9.87926e-16 0)
(2.30648e-19 -9.87946e-16 0)
(2.50215e-19 -9.88022e-16 0)
(2.3418e-19 -9.88103e-16 0)
(1.8962e-19 -9.88152e-16 0)
(1.2197e-19 -9.88177e-16 0)
(8.13702e-20 -9.88107e-16 0)
(1.41442e-19 -1.70903e-15 0)
(5.49797e-10 -3.88922e-06 0)
(2.3347e-08 -5.92284e-05 0)
(2.27972e-08 -0.00021966 0)
(-2.27972e-08 -0.00021966 0)
(-2.3347e-08 -5.92284e-05 0)
(-5.49797e-10 -3.88922e-06 0)