/*--------------------------------*- C++ -*----------------------------------*\
  =========                 |
  \\      /  F ield         | OpenFOAM: The Open Source CFD Toolbox
   \\    /   O peration     | Website:  https://openfoam.org
    \\  /    A nd           | Version:  11
     \\/     M anipulation  |
\*---------------------------------------------------------------------------*/
FoamFile
{
    format      ascii;
    class       volScalarField;
    location    "55";
    object      p;
}
// * * * * * * * * * * * * * * * * * * * * * * * * * * * * * * * * * * * * * //

dimensions      [0 2 -2 0 0 0 0];

internalField   nonuniform List<scalar> 
2048
(
0.341877
0.339458
0.334583
0.327035
0.316656
0.30329
0.286751
0.266826
0.243322
0.216103
0.185141
0.150559
0.112668
0.0720059
0.0293412
-0.0143473
-0.0579316
-0.100228
-0.140113
-0.176614
-0.208961
-0.23657
-0.259
-0.275916
-0.287082
-0.292358
-0.291733
-0.28534
-0.27347
-0.256586
-0.23532
-0.210448
-0.18285
-0.153466
-0.12326
-0.0931974
-0.0642271
-0.0372692
-0.0132229
0.00704046
0.0227009
0.0330624
0.0376268
0.0361867
0.0289274
0.0165093
9.99413e-05
-0.0186785
-0.037907
-0.0555909
-0.0699824
-0.079773
-0.0843808
-0.0838148
-0.0787216
-0.0702063
-0.0595446
-0.0480405
-0.0366492
-0.0264237
-0.0173872
-0.0107383
-0.00479131
-0.00272505
0.344372
0.34198
0.337155
0.329674
0.319368
0.306064
0.289548
0.269583
0.245943
0.218465
0.187093
0.151932
0.113294
0.0717385
0.0280881
-0.0165999
-0.0611096
-0.104184
-0.144664
-0.181594
-0.214245
-0.242074
-0.264669
-0.281709
-0.292951
-0.298237
-0.297531
-0.290931
-0.278703
-0.261296
-0.239346
-0.213643
-0.185094
-0.154675
-0.123392
-0.0922569
-0.0622715
-0.0344062
-0.00960864
0.0112062
0.0271749
0.0375642
0.0418543
0.0398334
0.0317023
0.0181637
0.000453666
-0.0197052
-0.0402752
-0.0591443
-0.0744665
-0.0848572
-0.0897066
-0.0890251
-0.0835252
-0.074404
-0.0630304
-0.0507874
-0.0386953
-0.0278515
-0.0182929
-0.011254
-0.00499275
-0.00279399
0.349342
0.347006
0.342289
0.334957
0.324816
0.311655
0.295212
0.275188
0.251294
0.223302
0.191101
0.154761
0.114585
0.0711808
0.0254782
-0.0212967
-0.0677255
-0.112384
-0.154048
-0.191808
-0.225035
-0.25328
-0.276192
-0.293477
-0.304883
-0.310215
-0.30937
-0.302374
-0.289432
-0.270967
-0.247621
-0.220221
-0.189725
-0.157187
-0.123702
-0.0903771
-0.0583039
-0.0285603
-0.0022153
0.0197263
0.0363168
0.0467517
0.0504635
0.0472241
0.0372599
0.0213596
0.0009069
-0.0221668
-0.0455704
-0.0669321
-0.0841812
-0.0958005
-0.1011
-0.100115
-0.0937059
-0.0832608
-0.0703448
-0.0565184
-0.0429412
-0.0307986
-0.0201602
-0.012306
-0.00542495
-0.00291955
0.356722
0.354481
0.349946
0.342871
0.333025
0.320137
0.303868
0.283822
0.259602
0.230862
0.197394
0.159203
0.116593
0.0702448
0.0212602
-0.0288508
-0.0783046
-0.125386
-0.168792
-0.207727
-0.241748
-0.270563
-0.293921
-0.311575
-0.323266
-0.328727
-0.327739
-0.320196
-0.306194
-0.286113
-0.260611
-0.230568
-0.197035
-0.161187
-0.124268
-0.0875328
-0.0522219
-0.0195649
0.00919738
0.03292
0.0504785
0.0609524
0.0637082
0.0584928
0.045564
0.025833
0.000922547
-0.0269001
-0.054937
-0.0803929
-0.100795
-0.114343
-0.120203
-0.118533
-0.110471
-0.0977247
-0.0821884
-0.0657188
-0.0496989
-0.0354437
-0.0230788
-0.0139236
-0.00608322
-0.00308785
0.366406
0.364313
0.360063
0.353396
0.344029
0.331613
0.315703
0.29577
0.271246
0.241588
0.206403
0.165567
0.119382
0.068686
0.0148634
-0.0400946
-0.0937919
-0.144099
-0.189694
-0.230029
-0.264957
-0.294424
-0.318335
-0.336521
-0.348692
-0.354461
-0.353419
-0.34524
-0.329855
-0.307584
-0.279103
-0.245363
-0.207553
-0.167034
-0.125264
-0.083724
-0.0438781
-0.00716012
0.0249675
0.0511635
0.0700738
0.080561
0.0818558
0.0736669
0.0563087
0.0308782
-0.00064393
-0.0354816
-0.070318
-0.10175
-0.126764
-0.143126
-0.149603
-0.146638
-0.135832
-0.119368
-0.0996877
-0.0791395
-0.0594313
-0.0420475
-0.0271813
-0.0161513
-0.00697895
-0.00328337
0.378231
0.376357
0.372533
0.366481
0.357852
0.346204
0.33095
0.311391
0.286734
0.256137
0.218882
0.174505
0.123232
0.0661566
0.0052083
-0.0566319
-0.115915
-0.170076
-0.218031
-0.259726
-0.295449
-0.325476
-0.349985
-0.368943
-0.381964
-0.388413
-0.387555
-0.378734
-0.361676
-0.336623
-0.304251
-0.265614
-0.222107
-0.175364
-0.127122
-0.0791509
-0.033197
0.0089882
0.0456983
0.0750838
0.0956806
0.106141
0.105429
0.0931319
0.0696036
0.0361834
-0.00466647
-0.0494423
-0.0939193
-0.133772
-0.165248
-0.185313
-0.192484
-0.187414
-0.172372
-0.150274
-0.124391
-0.0978386
-0.0727928
-0.0509831
-0.0326493
-0.019056
-0.00813531
-0.00347424
0.391957
0.390397
0.38718
0.382021
0.374492
0.364043
0.349891
0.331129
0.30666
0.275285
0.235846
0.187163
0.129083
0.0627171
-0.00899275
-0.0807568
-0.147224
-0.205616
-0.255703
-0.298316
-0.334333
-0.364513
-0.389511
-0.409541
-0.424089
-0.432026
-0.431905
-0.422551
-0.40355
-0.375076
-0.337763
-0.292793
-0.241882
-0.187087
-0.130562
-0.0744176
-0.0206498
0.0288122
0.0714728
0.105318
0.128147
0.138561
0.135565
0.118603
0.0879046
0.0449404
-0.00739247
-0.0648151
-0.122075
-0.173702
-0.21457
-0.240503
-0.249984
-0.243068
-0.22253
-0.192578
-0.157932
-0.122929
-0.0904697
-0.0626487
-0.0396724
-0.0227264
-0.00958513
-0.00363738
0.407248
0.406116
0.403726
0.399817
0.393868
0.385252
0.372882
0.355618
0.331791
0.299861
0.258115
0.204516
0.138298
0.0590129
-0.0287628
-0.114722
-0.19033
-0.253192
-0.304801
-0.347366
-0.382617
-0.412147
-0.437404
-0.458812
-0.475722
-0.486538
-0.488452
-0.479206
-0.458257
-0.425751
-0.382294
-0.329308
-0.268991
-0.203956
-0.136936
-0.0706369
-0.00755495
0.0500157
0.0993677
0.138951
0.165508
0.176093
0.17076
0.14929
0.111793
0.0597893
-0.00356855
-0.0736038
-0.144443
-0.209562
-0.2627
-0.298742
-0.314216
-0.308595
-0.284084
-0.245949
-0.200851
-0.155116
-0.113022
-0.077384
-0.0484177
-0.0272585
-0.0113312
-0.00376802
0.423656
0.423076
0.421755
0.41951
0.415726
0.409819
0.400269
0.385826
0.363525
0.331489
0.286351
0.22606
0.149821
0.0524316
-0.0582556
-0.162827
-0.249031
-0.315957
-0.367461
-0.40762
-0.439614
-0.466893
-0.49217
-0.515558
-0.535792
-0.550746
-0.556512
-0.549233
-0.527532
-0.491115
-0.440635
-0.378053
-0.306414
-0.229207
-0.149806
-0.0713177
0.00303419
0.0696837
0.12578
0.165293
0.195787
0.20649
0.197939
0.171545
0.128597
0.0706317
5.94493e-05
-0.0789624
-0.160366
-0.2369
-0.301472
-0.348266
-0.372519
-0.372041
-0.347495
-0.304008
-0.249562
-0.192713
-0.13981
-0.0949981
-0.0588906
-0.0326885
-0.0133732
-0.00391688
0.440617
0.440706
0.440685
0.440519
0.439516
0.437354
0.43203
0.422694
0.404154
0.374484
0.324087
0.252405
0.155735
0.0264067
-0.114876
-0.237318
-0.330145
-0.396556
-0.44259
-0.474258
-0.497046
-0.518499
-0.543007
-0.569576
-0.595089
-0.615491
-0.626956
-0.62523
-0.606482
-0.568852
-0.512846
-0.441084
-0.357705
-0.26759
-0.175664
-0.0861609
-0.0022217
0.0731973
0.135447
0.180114
0.196896
0.201029
0.189536
0.163106
0.121269
0.0638213
-0.00803301
-0.0907991
-0.178349
-0.262699
-0.335702
-0.390455
-0.421732
-0.426797
-0.404447
-0.358773
-0.297805
-0.231555
-0.168417
-0.114263
-0.0705842
-0.0388214
-0.0157083
-0.00414183
0.457462
0.4583
0.459767
0.461999
0.464326
0.466821
0.467265
0.465825
0.455305
0.435305
0.383735
0.299732
0.151797
-0.0415832
-0.216096
-0.341305
-0.425177
-0.478993
-0.510014
-0.524667
-0.530776
-0.54308
-0.564911
-0.592819
-0.623334
-0.652179
-0.673418
-0.681951
-0.672107
-0.640042
-0.585288
-0.510598
-0.421044
-0.322799
-0.221995
-0.124483
-0.0366892
0.0358467
0.0901355
0.126412
0.145903
0.146067
0.135522
0.113411
0.0783211
0.0287289
-0.0359926
-0.114184
-0.200796
-0.287667
-0.365402
-0.425529
-0.462022
-0.470747
-0.450684
-0.404603
-0.339845
-0.266902
-0.195532
-0.133206
-0.0824972
-0.0452321
-0.0183074
-0.00447935
0.473443
0.475053
0.478111
0.482879
0.488893
0.496511
0.503958
0.512252
0.514758
0.513977
0.480784
0.415687
0.198859
-0.109044
-0.312855
-0.421753
-0.483633
-0.520157
-0.538681
-0.541919
-0.536018
-0.544395
-0.563806
-0.589908
-0.621068
-0.653782
-0.682565
-0.70004
-0.700911
-0.679889
-0.634613
-0.566704
-0.481149
-0.385271
-0.287443
-0.195368
-0.11635
-0.0537504
-0.00864195
0.0206344
0.0396393
0.0376273
0.0313229
0.0187203
-0.00277261
-0.0363463
-0.0847687
-0.148879
-0.22577
-0.308119
-0.38572
-0.448285
-0.487807
-0.499458
-0.481872
-0.43676
-0.370728
-0.294226
-0.217615
-0.149459
-0.0932602
-0.0513126
-0.0210728
-0.00491789
0.487774
0.490124
0.494738
0.501964
0.51167
0.524349
0.53917
0.557282
0.575129
0.596241
0.60433
0.615399
0.476579
-0.0286266
-0.292291
-0.419923
-0.483099
-0.514346
-0.530718
-0.539194
-0.530533
-0.536352
-0.552238
-0.574492
-0.602353
-0.632746
-0.660587
-0.682591
-0.69058
-0.679709
-0.646963
-0.59299
-0.522229
-0.442006
-0.361005
-0.284679
-0.223288
-0.177467
-0.147346
-0.129903
-0.122167
-0.112605
-0.106339
-0.103207
-0.106018
-0.11891
-0.145873
-0.189684
-0.249929
-0.321165
-0.393313
-0.454702
-0.495402
-0.508872
-0.494203
-0.451251
-0.38639
-0.309702
-0.231445
-0.160641
-0.101356
-0.0563358
-0.0237512
-0.00534921
0.499699
0.502698
0.508663
0.518059
0.530997
0.54822
0.569539
0.596533
0.62764
0.66629
0.703832
0.745692
0.696386
0.238569
-0.0546671
-0.238851
-0.357842
-0.432471
-0.479378
-0.514983
-0.520987
-0.524389
-0.53647
-0.553158
-0.574608
-0.598246
-0.620834
-0.638593
-0.647818
-0.643313
-0.62227
-0.584987
-0.535091
-0.478812
-0.423522
-0.375729
-0.341002
-0.31952
-0.30716
-0.297807
-0.289416
-0.270223
-0.247494
-0.224843
-0.206888
-0.198381
-0.203443
-0.225494
-0.266004
-0.321905
-0.3844
-0.441407
-0.481692
-0.497763
-0.484836
-0.44525
-0.384099
-0.31066
-0.234584
-0.164757
-0.105378
-0.0595149
-0.0258931
-0.00559256
0.508568
0.512058
0.519027
0.530061
0.545406
0.566107
0.592175
0.625884
0.665501
0.715887
0.765827
0.825792
0.798258
0.336877
0.0286638
-0.172513
-0.307347
-0.394901
-0.452098
-0.497401
-0.506933
-0.507306
-0.515888
-0.526617
-0.540362
-0.555541
-0.570024
-0.581146
-0.587116
-0.584666
-0.572352
-0.55095
-0.523675
-0.495665
-0.47276
-0.459495
-0.457058
-0.461192
-0.464063
-0.457091
-0.443047
-0.4118
-0.370549
-0.326673
-0.287397
-0.258453
-0.243671
-0.245871
-0.267085
-0.306231
-0.356572
-0.40666
-0.44444
-0.461005
-0.451822
-0.417493
-0.362669
-0.295824
-0.225658
-0.160486
-0.104233
-0.0600589
-0.0269091
-0.00549243
0.513902
0.517659
0.525184
0.537115
0.553804
0.576383
0.6051
0.642217
0.686399
0.74177
0.79805
0.863318
0.846462
0.400995
0.0918105
-0.119695
-0.266362
-0.363793
-0.428144
-0.478912
-0.490406
-0.488354
-0.493036
-0.498188
-0.504548
-0.511263
-0.517172
-0.521231
-0.522362
-0.519787
-0.513846
-0.506358
-0.500685
-0.501055
-0.511074
-0.531617
-0.559182
-0.585362
-0.601354
-0.601568
-0.574552
-0.528381
-0.46793
-0.402456
-0.341787
-0.293242
-0.260693
-0.245865
-0.250067
-0.273156
-0.31043
-0.351999
-0.385922
-0.402617
-0.397204
-0.369359
-0.32305
-0.265613
-0.204576
-0.147365
-0.0972505
-0.057247
-0.0262181
-0.00503893
0.515433
0.51921
0.526776
0.53877
0.555553
0.578258
0.607145
0.644482
0.688952
0.744674
0.801398
0.867107
0.851117
0.407141
0.0992831
-0.110974
-0.256306
-0.352268
-0.414919
-0.462842
-0.473658
-0.469652
-0.470499
-0.470443
-0.470104
-0.469258
-0.467599
-0.465048
-0.461873
-0.458945
-0.458331
-0.462867
-0.476111
-0.501348
-0.539637
-0.587683
-0.638243
-0.680409
-0.7045
-0.703486
-0.672139
-0.613877
-0.536314
-0.451105
-0.370629
-0.304066
-0.25578
-0.226637
-0.216635
-0.225525
-0.250049
-0.282196
-0.311159
-0.327439
-0.325809
-0.304876
-0.268344
-0.222177
-0.172577
-0.125808
-0.084222
-0.0505507
-0.0234369
-0.00438496
0.513138
0.516687
0.523775
0.535
0.550619
0.57169
0.598261
0.632615
0.673105
0.724525
0.775886
0.837262
0.81231
0.355665
0.051536
-0.145901
-0.276789
-0.360122
-0.412593
-0.450064
-0.458329
-0.452649
-0.449778
-0.444907
-0.438577
-0.431228
-0.423311
-0.415668
-0.40961
-0.406864
-0.411292
-0.426042
-0.45448
-0.498554
-0.557585
-0.62446
-0.689399
-0.741124
-0.769606
-0.767488
-0.73102
-0.662649
-0.571208
-0.470426
-0.374611
-0.2941
-0.2335
-0.193125
-0.171884
-0.168948
-0.181954
-0.204614
-0.227734
-0.242521
-0.243572
-0.229814
-0.203383
-0.169135
-0.132025
-0.0969893
-0.0654197
-0.0397441
-0.0184141
-0.00366585
0.507251
0.510346
0.516506
0.52621
0.539591
0.557413
0.579537
0.607573
0.640073
0.680498
0.720381
0.765132
0.720352
0.269642
-0.0173132
-0.195725
-0.308579
-0.376715
-0.41666
-0.440897
-0.445269
-0.438539
-0.43153
-0.422416
-0.410236
-0.397455
-0.384884
-0.374062
-0.367202
-0.36482
-0.374505
-0.397489
-0.436868
-0.493268
-0.563598
-0.63995
-0.711428
-0.766576
-0.795292
-0.790686
-0.748739
-0.671997
-0.570582
-0.459968
-0.355459
-0.267332
-0.199583
-0.151812
-0.122312
-0.109901
-0.112987
-0.126854
-0.143855
-0.15621
-0.158787
-0.151081
-0.133855
-0.11089
-0.0859421
-0.0626081
-0.0415368
-0.0249012
-0.0110893
-0.00279093
0.498213
0.500691
0.505568
0.51321
0.523509
0.536991
0.552872
0.572381
0.592046
0.615612
0.62708
0.642797
0.512693
0.0174498
-0.238898
-0.358889
-0.412709
-0.434162
-0.441826
-0.441662
-0.437351
-0.426329
-0.414689
-0.399464
-0.383976
-0.36751
-0.351976
-0.339694
-0.333005
-0.334473
-0.348262
-0.377121
-0.422944
-0.485061
-0.55911
-0.636858
-0.70779
-0.760997
-0.786367
-0.77682
-0.728519
-0.644975
-0.537934
-0.423943
-0.318005
-0.229117
-0.159948
-0.109104
-0.0743325
-0.0544814
-0.0489034
-0.0547643
-0.0659138
-0.0755501
-0.0790519
-0.0753595
-0.065401
-0.0519113
-0.0375268
-0.0246724
-0.0136382
-0.00639784
-0.00141223
-0.00141584
0.486638
0.488406
0.491786
0.497061
0.503799
0.512386
0.521122
0.531069
0.535813
0.537891
0.509062
0.449669
0.24322
-0.0544438
-0.250037
-0.350325
-0.402799
-0.430845
-0.443043
-0.443282
-0.434153
-0.419564
-0.402506
-0.382287
-0.361271
-0.341881
-0.324644
-0.312664
-0.307967
-0.313106
-0.330997
-0.363821
-0.412413
-0.475169
-0.547208
-0.62063
-0.68564
-0.73187
-0.75031
-0.732598
-0.676586
-0.588038
-0.480331
-0.369707
-0.269172
-0.185396
-0.11955
-0.0695642
-0.0326162
-0.00742064
0.00581825
0.00776806
0.00236844
-0.00450058
-0.00824894
-0.00729455
-0.0024843
0.00403098
0.0103147
0.0147254
0.0169239
0.015099
0.0106375
0.000976771
0.473254
0.474273
0.476112
0.478925
0.482086
0.485677
0.487598
0.48799
0.480019
0.463103
0.41621
0.33774
0.198354
0.0143797
-0.151576
-0.268682
-0.344392
-0.390581
-0.414709
-0.422302
-0.417375
-0.403496
-0.384587
-0.363439
-0.341698
-0.321302
-0.305576
-0.295422
-0.293438
-0.302052
-0.323344
-0.358481
-0.407211
-0.467201
-0.533396
-0.598387
-0.653212
-0.687835
-0.693192
-0.66344
-0.599358
-0.509355
-0.407081
-0.306315
-0.216565
-0.1418
-0.0820306
-0.0353214
0.00109617
0.0290649
0.0483079
0.057881
0.0589202
0.0554803
0.0520541
0.0510886
0.0525555
0.0545767
0.055394
0.0536811
0.0486993
0.038716
0.0249619
0.00489883
0.45882
0.459109
0.4595
0.459974
0.459886
0.458919
0.455191
0.447822
0.431926
0.405418
0.359333
0.292631
0.20226
0.0805625
-0.0526426
-0.166935
-0.251346
-0.308983
-0.345442
-0.36532
-0.371972
-0.36848
-0.358497
-0.344801
-0.328696
-0.312164
-0.298419
-0.290403
-0.29096
-0.302269
-0.325631
-0.361148
-0.407464
-0.461407
-0.517909
-0.569842
-0.608197
-0.624934
-0.613542
-0.572057
-0.504449
-0.419904
-0.329717
-0.243542
-0.167232
-0.102819
-0.0498721
-0.00706925
0.0274331
0.0556668
0.0782542
0.0940387
0.102
0.103501
0.101827
0.0999175
0.0996447
0.0990309
0.0965007
0.0907059
0.0803049
0.0634284
0.0411827
0.0106898
0.444063
0.443699
0.442818
0.441259
0.438445
0.433807
0.42591
0.41351
0.393818
0.364906
0.323651
0.267912
0.197004
0.106072
0.00273492
-0.0939212
-0.171619
-0.229217
-0.270207
-0.297822
-0.31424
-0.321366
-0.321421
-0.316577
-0.308745
-0.300219
-0.293858
-0.292256
-0.297407
-0.310796
-0.333262
-0.364629
-0.403185
-0.445513
-0.486983
-0.52034
-0.539399
-0.53848
-0.514985
-0.469706
-0.407262
-0.334934
-0.260349
-0.189483
-0.125848
-0.0707766
-0.0240934
0.0150087
0.0474855
0.0746812
0.0978698
0.117047
0.130865
0.138476
0.140777
0.139963
0.139432
0.137523
0.133167
0.12483
0.110612
0.088212
0.0585471
0.0183358
0.429638
0.428731
0.426802
0.423611
0.418668
0.411367
0.400676
0.385482
0.364208
0.335333
0.29724
0.247959
0.186769
0.113388
0.0323463
-0.0462176
-0.113794
-0.167839
-0.209648
-0.241069
-0.26341
-0.277777
-0.28557
-0.288559
-0.288657
-0.287845
-0.288158
-0.29144
-0.299153
-0.312314
-0.331343
-0.355582
-0.383201
-0.412054
-0.437576
-0.455097
-0.459403
-0.448344
-0.421299
-0.379491
-0.326396
-0.266865
-0.205792
-0.147103
-0.0933063
-0.0455923
-0.00415918
0.0314378
0.0618646
0.087894
0.110437
0.130172
0.146964
0.159972
0.167863
0.172171
0.17169
0.169587
0.164567
0.154825
0.138188
0.111717
0.0756981
0.0271899
0.416096
0.41477
0.412026
0.407606
0.401106
0.391997
0.379535
0.362848
0.340896
0.312524
0.276634
0.232119
0.178859
0.118007
0.0524917
-0.0124791
-0.0716016
-0.122059
-0.163554
-0.196811
-0.222603
-0.241681
-0.255042
-0.264031
-0.270164
-0.274932
-0.279761
-0.285954
-0.294561
-0.306237
-0.321064
-0.338355
-0.356867
-0.374671
-0.388785
-0.394937
-0.390924
-0.375726
-0.34897
-0.31161
-0.266128
-0.215917
-0.164423
-0.114495
-0.0680663
-0.0261597
0.0109121
0.0433381
0.071574
0.0961811
0.11782
0.137187
0.154604
0.170397
0.181211
0.189489
0.193486
0.193519
0.189153
0.178979
0.161036
0.132014
0.0907284
0.0362107
0.403879
0.402243
0.398901
0.3936
0.386015
0.37572
0.362162
0.344677
0.322516
0.294882
0.261102
0.220757
0.174089
0.122198
0.0669949
0.0114048
-0.0411906
-0.0882687
-0.128788
-0.162748
-0.190545
-0.21271
-0.22995
-0.243208
-0.253572
-0.262149
-0.269991
-0.278045
-0.287043
-0.297378
-0.309004
-0.321373
-0.333424
-0.343426
-0.349137
-0.34846
-0.339882
-0.322468
-0.29614
-0.261892
-0.221681
-0.178002
-0.133352
-0.0898278
-0.0489358
-0.0115621
0.0219362
0.0516079
0.0777718
0.100897
0.12148
0.139949
0.156475
0.170693
0.184719
0.195558
0.202926
0.206411
0.204414
0.195277
0.177041
0.14704
0.101732
0.0439631
0.393316
0.391463
0.387701
0.381794
0.373477
0.362423
0.348213
0.330349
0.308305
0.281572
0.249793
0.212868
0.171108
0.125339
0.076916
0.0277663
-0.0198062
-0.063778
-0.102952
-0.136949
-0.165864
-0.190014
-0.209866
-0.226056
-0.239355
-0.250585
-0.260538
-0.269898
-0.27916
-0.288544
-0.29793
-0.306795
-0.314177
-0.318846
-0.319402
-0.31444
-0.302763
-0.283843
-0.257932
-0.225979
-0.189507
-0.150386
-0.110517
-0.0715507
-0.034727
-0.000820434
0.029825
0.0572077
0.0815617
0.103263
0.122717
0.140347
0.156419
0.171014
0.184498
0.195856
0.204288
0.209263
0.208906
0.201603
0.184026
0.154648
0.107052
0.0485512
0.384644
0.382645
0.3786
0.37229
0.3635
0.351978
0.337409
0.319429
0.297672
0.271824
0.241703
0.20733
0.169007
0.127395
0.0835466
0.03889
-0.00490868
-0.0462838
-0.0841197
-0.117858
-0.147365
-0.172761
-0.19433
-0.212501
-0.227823
-0.240904
-0.252331
-0.262594
-0.272019
-0.28071
-0.288497
-0.294914
-0.299233
-0.300496
-0.297713
-0.289835
-0.276117
-0.256354
-0.230887
-0.20055
-0.166601
-0.130568
-0.0940071
-0.0582845
-0.0244387
0.00686334
0.0353051
0.0608583
0.0837089
0.104185
0.122659
0.139534
0.155084
0.169438
0.182518
0.193914
0.202603
0.207935
0.207761
0.201058
0.183482
0.155151
0.106878
0.0495022
0.378024
0.375931
0.371706
0.365141
0.35606
0.344267
0.329524
0.31156
0.290115
0.26499
0.236094
0.203503
0.167516
0.128706
0.0879407
0.0463484
0.00520968
-0.0342302
-0.0709725
-0.104384
-0.13418
-0.160333
-0.182996
-0.202461
-0.219128
-0.233445
-0.245851
-0.256701
-0.266212
-0.274419
-0.281142
-0.28598
-0.28833
-0.287419
-0.282464
-0.272749
-0.257815
-0.237595
-0.212456
-0.183183
-0.150904
-0.116942
-0.0826274
-0.0491302
-0.0173549
0.0121013
0.0389423
0.0631326
0.0848379
0.104359
0.122053
0.138292
0.153335
0.167342
0.180162
0.191494
0.200273
0.205796
0.20562
0.199119
0.181146
0.15343
0.104906
0.0489779
0.373561
0.371412
0.367081
0.360369
0.351124
0.339189
0.324372
0.306463
0.285263
0.260635
0.232539
0.201084
0.166568
0.12951
0.0906626
0.0509731
0.0115066
-0.0266774
-0.0626666
-0.0958046
-0.125722
-0.152298
-0.175603
-0.195844
-0.213325
-0.228394
-0.241392
-0.252593
-0.262152
-0.270068
-0.276156
-0.280045
-0.2812
-0.278983
-0.272764
-0.261999
-0.246369
-0.225888
-0.20096
-0.172351
-0.141105
-0.10842
-0.0754912
-0.0433798
-0.012913
0.0153565
0.0411518
0.0644387
0.0853725
0.10424
0.121389
0.137176
0.151856
0.165596
0.178228
0.18948
0.19829
0.203961
0.203875
0.197624
0.179545
0.152283
0.103768
0.0486883
0.371319
0.369144
0.364764
0.357985
0.348667
0.336671
0.32183
0.303959
0.282891
0.258513
0.230813
0.199914
0.166111
0.129899
0.0919689
0.0531866
0.0145217
-0.0230489
-0.0586564
-0.0916406
-0.121596
-0.14836
-0.171961
-0.192564
-0.210426
-0.225848
-0.239126
-0.250493
-0.260077
-0.267856
-0.273641
-0.277076
-0.27767
-0.274854
-0.268058
-0.256809
-0.240853
-0.220256
-0.195438
-0.167152
-0.136399
-0.104321
-0.0720545
-0.040611
-0.0107807
0.0169076
0.0421872
0.0650244
0.0855704
0.104107
0.120978
0.136535
0.151029
0.164626
0.177156
0.188356
0.197163
0.202894
0.202873
0.196754
0.17874
0.151658
0.103347
0.0484699
)
;

boundaryField
{
    inlet
    {
        type            zeroGradient;
    }
    outlet
    {
        type            fixedValue;
        value           uniform 0;
    }
    top
    {
        type            symmetryPlane;
    }
    bottom
    {
        type            symmetryPlane;
    }
    frontAndBack
    {
        type            empty;
    }
}


// ************************************************************************* //
