/*--------------------------------*- C++ -*----------------------------------*\
  =========                 |
  \\      /  F ield         | OpenFOAM: The Open Source CFD Toolbox
   \\    /   O peration     | Website:  https://openfoam.org
    \\  /    A nd           | Version:  10
     \\/     M anipulation  |
\*---------------------------------------------------------------------------*/
FoamFile
{
    format      ascii;
    class       volVectorField;
    location    "3100";
    object      Ub;
}
// * * * * * * * * * * * * * * * * * * * * * * * * * * * * * * * * * * * * * //

dimensions      [0 1 -1 0 0 0 0];

internalField   nonuniform List<vector> 
6400
(
(-8.75149e-22 -9.87899e-16 0)
(-2.62092e-21 -9.87899e-16 0)
(-4.3531e-21 -9.87899e-16 0)
(-6.06256e-21 -9.87899e-16 0)
(-7.74013e-21 -9.87899e-16 0)
(-9.37651e-21 -9.87899e-16 0)
(-1.09623e-20 -9.87899e-16 0)
(-1.24879e-20 -9.87899e-16 0)
(-1.39437e-20 -9.87899e-16 0)
(-1.53198e-20 -9.87899e-16 0)
(-1.66064e-20 -9.87899e-16 0)
(-1.77932e-20 -9.87899e-16 0)
(-1.88704e-20 -9.87899e-16 0)
(-1.98277e-20 -9.87899e-16 0)
(-2.06553e-20 -9.87899e-16 0)
(-2.13433e-20 -9.87899e-16 0)
(-2.18824e-20 -9.87899e-16 0)
(-2.22635e-20 -9.87899e-16 0)
(-2.24784e-20 -9.87899e-16 0)
(-2.25196e-20 -9.87899e-16 0)
(-2.23808e-20 -9.87899e-16 0)
(-2.20567e-20 -9.87899e-16 0)
(-2.1544e-20 -9.87899e-16 0)
(-2.08408e-20 -9.87899e-16 0)
(-1.99474e-20 -9.87899e-16 0)
(-1.88664e-20 -9.87899e-16 0)
(-1.76028e-20 -9.87899e-16 0)
(-1.6164e-20 -9.87899e-16 0)
(-1.45604e-20 -9.87899e-16 0)
(-1.28048e-20 -9.87899e-16 0)
(-1.0913e-20 -9.87899e-16 0)
(-8.90301e-21 -9.87899e-16 0)
(-7.39817e-21 -9.87899e-16 0)
(-6.44515e-21 -9.87899e-16 0)
(-5.47795e-21 -9.87899e-16 0)
(-4.49864e-21 -9.87899e-16 0)
(-3.50937e-21 -9.87899e-16 0)
(-2.51229e-21 -9.87899e-16 0)
(-1.50962e-21 -9.87899e-16 0)
(-5.0358e-22 -9.87899e-16 0)
(5.0358e-22 -9.87899e-16 0)
(1.50962e-21 -9.87899e-16 0)
(2.51229e-21 -9.87899e-16 0)
(3.50937e-21 -9.87899e-16 0)
(4.49864e-21 -9.87899e-16 0)
(5.47795e-21 -9.87899e-16 0)
(6.44515e-21 -9.87899e-16 0)
(7.39817e-21 -9.87899e-16 0)
(8.90301e-21 -9.87899e-16 0)
(1.0913e-20 -9.87899e-16 0)
(1.28048e-20 -9.87899e-16 0)
(1.45604e-20 -9.87899e-16 0)
(1.6164e-20 -9.87899e-16 0)
(1.76028e-20 -9.87899e-16 0)
(1.88664e-20 -9.87899e-16 0)
(1.99474e-20 -9.87899e-16 0)
(2.08408e-20 -9.87899e-16 0)
(2.1544e-20 -9.87899e-16 0)
(2.20567e-20 -9.87899e-16 0)
(2.23808e-20 -9.87899e-16 0)
(2.25196e-20 -9.87899e-16 0)
(2.24784e-20 -9.87899e-16 0)
(2.22635e-20 -9.87899e-16 0)
(2.18824e-20 -9.87899e-16 0)
(2.13433e-20 -9.87899e-16 0)
(2.06553e-20 -9.87899e-16 0)
(1.98277e-20 -9.87899e-16 0)
(1.88704e-20 -9.87899e-16 0)
(1.77932e-20 -9.87899e-16 0)
(1.66064e-20 -9.87899e-16 0)
(1.53198e-20 -9.87899e-16 0)
(1.39437e-20 -9.87899e-16 0)
(1.24879e-20 -9.87899e-16 0)
(1.09623e-20 -9.87899e-16 0)
(9.37651e-21 -9.87899e-16 0)
(7.74013e-21 -9.87899e-16 0)
(6.06256e-21 -9.87899e-16 0)
(4.3531e-21 -9.87899e-16 0)
(2.62092e-21 -9.87899e-16 0)
(8.75149e-22 -9.87899e-16 0)
(-8.75344e-22 -9.87898e-16 0)
(-2.62151e-21 -9.87898e-16 0)
(-4.35408e-21 -9.87898e-16 0)
(-6.06394e-21 -9.87898e-16 0)
(-7.74191e-21 -9.87898e-16 0)
(-9.37869e-21 -9.87898e-16 0)
(-1.09649e-20 -9.87898e-16 0)
(-1.24909e-20 -9.87898e-16 0)
(-1.39471e-20 -9.87898e-16 0)
(-1.53237e-20 -9.87898e-16 0)
(-1.66107e-20 -9.87898e-16 0)
(-1.7798e-20 -9.87898e-16 0)
(-1.88756e-20 -9.87898e-16 0)
(-1.98333e-20 -9.87898e-16 0)
(-2.06613e-20 -9.87898e-16 0)
(-2.13498e-20 -9.87898e-16 0)
(-2.18892e-20 -9.87898e-16 0)
(-2.22707e-20 -9.87898e-16 0)
(-2.24859e-20 -9.87898e-16 0)
(-2.25274e-20 -9.87899e-16 0)
(-2.23888e-20 -9.87899e-16 0)
(-2.20649e-20 -9.87899e-16 0)
(-2.15522e-20 -9.87899e-16 0)
(-2.0849e-20 -9.87899e-16 0)
(-1.99555e-20 -9.87899e-16 0)
(-1.88743e-20 -9.87899e-16 0)
(-1.76103e-20 -9.87899e-16 0)
(-1.61711e-20 -9.87899e-16 0)
(-1.45669e-20 -9.87899e-16 0)
(-1.28107e-20 -9.87899e-16 0)
(-1.09181e-20 -9.87899e-16 0)
(-8.90724e-21 -9.87899e-16 0)
(-7.40172e-21 -9.87899e-16 0)
(-6.44826e-21 -9.87899e-16 0)
(-5.4806e-21 -9.87899e-16 0)
(-4.50083e-21 -9.87899e-16 0)
(-3.51107e-21 -9.87899e-16 0)
(-2.51351e-21 -9.87899e-16 0)
(-1.51035e-21 -9.87899e-16 0)
(-5.03826e-22 -9.87899e-16 0)
(5.03826e-22 -9.87899e-16 0)
(1.51035e-21 -9.87899e-16 0)
(2.51351e-21 -9.87899e-16 0)
(3.51107e-21 -9.87899e-16 0)
(4.50083e-21 -9.87899e-16 0)
(5.4806e-21 -9.87899e-16 0)
(6.44826e-21 -9.87899e-16 0)
(7.40172e-21 -9.87899e-16 0)
(8.90724e-21 -9.87899e-16 0)
(1.09181e-20 -9.87899e-16 0)
(1.28107e-20 -9.87899e-16 0)
(1.45669e-20 -9.87899e-16 0)
(1.61711e-20 -9.87899e-16 0)
(1.76103e-20 -9.87899e-16 0)
(1.88743e-20 -9.87899e-16 0)
(1.99555e-20 -9.87899e-16 0)
(2.0849e-20 -9.87899e-16 0)
(2.15522e-20 -9.87899e-16 0)
(2.20649e-20 -9.87899e-16 0)
(2.23888e-20 -9.87899e-16 0)
(2.25274e-20 -9.87899e-16 0)
(2.24859e-20 -9.87898e-16 0)
(2.22707e-20 -9.87898e-16 0)
(2.18892e-20 -9.87898e-16 0)
(2.13498e-20 -9.87898e-16 0)
(2.06613e-20 -9.87898e-16 0)
(1.98333e-20 -9.87898e-16 0)
(1.88756e-20 -9.87898e-16 0)
(1.7798e-20 -9.87898e-16 0)
(1.66107e-20 -9.87898e-16 0)
(1.53237e-20 -9.87898e-16 0)
(1.39471e-20 -9.87898e-16 0)
(1.24909e-20 -9.87898e-16 0)
(1.09649e-20 -9.87898e-16 0)
(9.37869e-21 -9.87898e-16 0)
(7.74191e-21 -9.87898e-16 0)
(6.06394e-21 -9.87898e-16 0)
(4.35408e-21 -9.87898e-16 0)
(2.62151e-21 -9.87898e-16 0)
(8.75344e-22 -9.87898e-16 0)
(-8.75795e-22 -9.87898e-16 0)
(-2.62286e-21 -9.87898e-16 0)
(-4.35634e-21 -9.87898e-16 0)
(-6.06712e-21 -9.87898e-16 0)
(-7.74601e-21 -9.87898e-16 0)
(-9.38373e-21 -9.87898e-16 0)
(-1.09709e-20 -9.87898e-16 0)
(-1.24979e-20 -9.87898e-16 0)
(-1.39551e-20 -9.87898e-16 0)
(-1.53326e-20 -9.87898e-16 0)
(-1.66206e-20 -9.87898e-16 0)
(-1.78089e-20 -9.87898e-16 0)
(-1.88875e-20 -9.87898e-16 0)
(-1.98463e-20 -9.87898e-16 0)
(-2.06752e-20 -9.87898e-16 0)
(-2.13646e-20 -9.87898e-16 0)
(-2.1905e-20 -9.87898e-16 0)
(-2.22873e-20 -9.87898e-16 0)
(-2.25032e-20 -9.87898e-16 0)
(-2.25454e-20 -9.87899e-16 0)
(-2.24072e-20 -9.87899e-16 0)
(-2.20837e-20 -9.87899e-16 0)
(-2.15712e-20 -9.87899e-16 0)
(-2.0868e-20 -9.87899e-16 0)
(-1.99742e-20 -9.87899e-16 0)
(-1.88925e-20 -9.87899e-16 0)
(-1.76278e-20 -9.87899e-16 0)
(-1.61875e-20 -9.87899e-16 0)
(-1.45821e-20 -9.87899e-16 0)
(-1.28243e-20 -9.879e-16 0)
(-1.09299e-20 -9.879e-16 0)
(-8.91699e-21 -9.879e-16 0)
(-7.4099e-21 -9.879e-16 0)
(-6.45542e-21 -9.879e-16 0)
(-5.48671e-21 -9.879e-16 0)
(-4.50586e-21 -9.879e-16 0)
(-3.51501e-21 -9.879e-16 0)
(-2.51634e-21 -9.879e-16 0)
(-1.51205e-21 -9.879e-16 0)
(-5.04393e-22 -9.879e-16 0)
(5.04393e-22 -9.879e-16 0)
(1.51205e-21 -9.879e-16 0)
(2.51634e-21 -9.879e-16 0)
(3.51501e-21 -9.879e-16 0)
(4.50586e-21 -9.879e-16 0)
(5.48671e-21 -9.879e-16 0)
(6.45542e-21 -9.879e-16 0)
(7.4099e-21 -9.879e-16 0)
(8.91699e-21 -9.879e-16 0)
(1.09299e-20 -9.879e-16 0)
(1.28243e-20 -9.879e-16 0)
(1.45821e-20 -9.87899e-16 0)
(1.61875e-20 -9.87899e-16 0)
(1.76278e-20 -9.87899e-16 0)
(1.88925e-20 -9.87899e-16 0)
(1.99742e-20 -9.87899e-16 0)
(2.0868e-20 -9.87899e-16 0)
(2.15712e-20 -9.87899e-16 0)
(2.20837e-20 -9.87899e-16 0)
(2.24072e-20 -9.87899e-16 0)
(2.25454e-20 -9.87899e-16 0)
(2.25032e-20 -9.87898e-16 0)
(2.22873e-20 -9.87898e-16 0)
(2.1905e-20 -9.87898e-16 0)
(2.13646e-20 -9.87898e-16 0)
(2.06752e-20 -9.87898e-16 0)
(1.98463e-20 -9.87898e-16 0)
(1.88875e-20 -9.87898e-16 0)
(1.78089e-20 -9.87898e-16 0)
(1.66206e-20 -9.87898e-16 0)
(1.53326e-20 -9.87898e-16 0)
(1.39551e-20 -9.87898e-16 0)
(1.24979e-20 -9.87898e-16 0)
(1.09709e-20 -9.87898e-16 0)
(9.38373e-21 -9.87898e-16 0)
(7.74601e-21 -9.87898e-16 0)
(6.06712e-21 -9.87898e-16 0)
(4.35634e-21 -9.87898e-16 0)
(2.62286e-21 -9.87898e-16 0)
(8.75795e-22 -9.87898e-16 0)
(-8.76573e-22 -9.87897e-16 0)
(-2.6252e-21 -9.87897e-16 0)
(-4.36024e-21 -9.87897e-16 0)
(-6.0726e-21 -9.87897e-16 0)
(-7.75309e-21 -9.87897e-16 0)
(-9.39243e-21 -9.87897e-16 0)
(-1.09812e-20 -9.87897e-16 0)
(-1.25099e-20 -9.87897e-16 0)
(-1.39688e-20 -9.87897e-16 0)
(-1.5348e-20 -9.87897e-16 0)
(-1.66377e-20 -9.87898e-16 0)
(-1.78278e-20 -9.87898e-16 0)
(-1.89081e-20 -9.87898e-16 0)
(-1.98686e-20 -9.87898e-16 0)
(-2.06992e-20 -9.87898e-16 0)
(-2.13902e-20 -9.87898e-16 0)
(-2.19321e-20 -9.87898e-16 0)
(-2.23159e-20 -9.87898e-16 0)
(-2.25331e-20 -9.87898e-16 0)
(-2.25763e-20 -9.87899e-16 0)
(-2.24391e-20 -9.87899e-16 0)
(-2.21161e-20 -9.87899e-16 0)
(-2.1604e-20 -9.87899e-16 0)
(-2.09007e-20 -9.87899e-16 0)
(-2.00065e-20 -9.87899e-16 0)
(-1.8924e-20 -9.87899e-16 0)
(-1.76579e-20 -9.879e-16 0)
(-1.62159e-20 -9.879e-16 0)
(-1.46082e-20 -9.879e-16 0)
(-1.28478e-20 -9.879e-16 0)
(-1.09503e-20 -9.879e-16 0)
(-8.93384e-21 -9.879e-16 0)
(-7.42403e-21 -9.879e-16 0)
(-6.46778e-21 -9.879e-16 0)
(-5.49726e-21 -9.879e-16 0)
(-4.51455e-21 -9.879e-16 0)
(-3.52181e-21 -9.879e-16 0)
(-2.52121e-21 -9.879e-16 0)
(-1.51499e-21 -9.879e-16 0)
(-5.05373e-22 -9.879e-16 0)
(5.05373e-22 -9.879e-16 0)
(1.51499e-21 -9.879e-16 0)
(2.52121e-21 -9.879e-16 0)
(3.52181e-21 -9.879e-16 0)
(4.51455e-21 -9.879e-16 0)
(5.49726e-21 -9.879e-16 0)
(6.46778e-21 -9.879e-16 0)
(7.42403e-21 -9.879e-16 0)
(8.93384e-21 -9.879e-16 0)
(1.09503e-20 -9.879e-16 0)
(1.28478e-20 -9.879e-16 0)
(1.46082e-20 -9.879e-16 0)
(1.62159e-20 -9.879e-16 0)
(1.76579e-20 -9.879e-16 0)
(1.8924e-20 -9.87899e-16 0)
(2.00065e-20 -9.87899e-16 0)
(2.09007e-20 -9.87899e-16 0)
(2.1604e-20 -9.87899e-16 0)
(2.21161e-20 -9.87899e-16 0)
(2.24391e-20 -9.87899e-16 0)
(2.25763e-20 -9.87899e-16 0)
(2.25331e-20 -9.87898e-16 0)
(2.23159e-20 -9.87898e-16 0)
(2.19321e-20 -9.87898e-16 0)
(2.13902e-20 -9.87898e-16 0)
(2.06992e-20 -9.87898e-16 0)
(1.98686e-20 -9.87898e-16 0)
(1.89081e-20 -9.87898e-16 0)
(1.78278e-20 -9.87898e-16 0)
(1.66377e-20 -9.87898e-16 0)
(1.5348e-20 -9.87897e-16 0)
(1.39688e-20 -9.87897e-16 0)
(1.25099e-20 -9.87897e-16 0)
(1.09812e-20 -9.87897e-16 0)
(9.39243e-21 -9.87897e-16 0)
(7.75309e-21 -9.87897e-16 0)
(6.0726e-21 -9.87897e-16 0)
(4.36024e-21 -9.87897e-16 0)
(2.6252e-21 -9.87897e-16 0)
(8.76573e-22 -9.87897e-16 0)
(-8.77768e-22 -9.87897e-16 0)
(-2.62879e-21 -9.87897e-16 0)
(-4.36624e-21 -9.87897e-16 0)
(-6.08102e-21 -9.87897e-16 0)
(-7.76397e-21 -9.87897e-16 0)
(-9.40579e-21 -9.87897e-16 0)
(-1.09971e-20 -9.87897e-16 0)
(-1.25283e-20 -9.87897e-16 0)
(-1.39898e-20 -9.87897e-16 0)
(-1.53717e-20 -9.87897e-16 0)
(-1.6664e-20 -9.87897e-16 0)
(-1.78567e-20 -9.87897e-16 0)
(-1.89397e-20 -9.87897e-16 0)
(-1.99028e-20 -9.87898e-16 0)
(-2.07361e-20 -9.87898e-16 0)
(-2.14296e-20 -9.87898e-16 0)
(-2.19739e-20 -9.87898e-16 0)
(-2.23598e-20 -9.87898e-16 0)
(-2.2579e-20 -9.87898e-16 0)
(-2.26239e-20 -9.87899e-16 0)
(-2.2488e-20 -9.87899e-16 0)
(-2.2166e-20 -9.87899e-16 0)
(-2.16543e-20 -9.87899e-16 0)
(-2.0951e-20 -9.87899e-16 0)
(-2.00562e-20 -9.879e-16 0)
(-1.89723e-20 -9.879e-16 0)
(-1.77043e-20 -9.879e-16 0)
(-1.62595e-20 -9.879e-16 0)
(-1.46484e-20 -9.879e-16 0)
(-1.28839e-20 -9.879e-16 0)
(-1.09815e-20 -9.87901e-16 0)
(-8.95974e-21 -9.87901e-16 0)
(-7.44576e-21 -9.87901e-16 0)
(-6.4868e-21 -9.87901e-16 0)
(-5.51348e-21 -9.87901e-16 0)
(-4.52792e-21 -9.87901e-16 0)
(-3.53226e-21 -9.87901e-16 0)
(-2.52871e-21 -9.87901e-16 0)
(-1.5195e-21 -9.87901e-16 0)
(-5.06879e-22 -9.87901e-16 0)
(5.06879e-22 -9.87901e-16 0)
(1.5195e-21 -9.87901e-16 0)
(2.52871e-21 -9.87901e-16 0)
(3.53226e-21 -9.87901e-16 0)
(4.52792e-21 -9.87901e-16 0)
(5.51348e-21 -9.87901e-16 0)
(6.4868e-21 -9.87901e-16 0)
(7.44576e-21 -9.87901e-16 0)
(8.95974e-21 -9.87901e-16 0)
(1.09815e-20 -9.87901e-16 0)
(1.28839e-20 -9.879e-16 0)
(1.46484e-20 -9.879e-16 0)
(1.62595e-20 -9.879e-16 0)
(1.77043e-20 -9.879e-16 0)
(1.89723e-20 -9.879e-16 0)
(2.00562e-20 -9.879e-16 0)
(2.0951e-20 -9.87899e-16 0)
(2.16543e-20 -9.87899e-16 0)
(2.2166e-20 -9.87899e-16 0)
(2.2488e-20 -9.87899e-16 0)
(2.26239e-20 -9.87899e-16 0)
(2.2579e-20 -9.87898e-16 0)
(2.23598e-20 -9.87898e-16 0)
(2.19739e-20 -9.87898e-16 0)
(2.14296e-20 -9.87898e-16 0)
(2.07361e-20 -9.87898e-16 0)
(1.99028e-20 -9.87898e-16 0)
(1.89397e-20 -9.87897e-16 0)
(1.78567e-20 -9.87897e-16 0)
(1.6664e-20 -9.87897e-16 0)
(1.53717e-20 -9.87897e-16 0)
(1.39898e-20 -9.87897e-16 0)
(1.25283e-20 -9.87897e-16 0)
(1.09971e-20 -9.87897e-16 0)
(9.40579e-21 -9.87897e-16 0)
(7.76397e-21 -9.87897e-16 0)
(6.08102e-21 -9.87897e-16 0)
(4.36624e-21 -9.87897e-16 0)
(2.62879e-21 -9.87897e-16 0)
(8.77768e-22 -9.87897e-16 0)
(-8.79488e-22 -9.87896e-16 0)
(-2.63395e-21 -9.87896e-16 0)
(-4.37487e-21 -9.87896e-16 0)
(-6.09315e-21 -9.87896e-16 0)
(-7.77962e-21 -9.87896e-16 0)
(-9.42502e-21 -9.87896e-16 0)
(-1.102e-20 -9.87896e-16 0)
(-1.25549e-20 -9.87896e-16 0)
(-1.40201e-20 -9.87897e-16 0)
(-1.54058e-20 -9.87897e-16 0)
(-1.67019e-20 -9.87897e-16 0)
(-1.78985e-20 -9.87897e-16 0)
(-1.89853e-20 -9.87897e-16 0)
(-1.99522e-20 -9.87897e-16 0)
(-2.07892e-20 -9.87897e-16 0)
(-2.14863e-20 -9.87898e-16 0)
(-2.2034e-20 -9.87898e-16 0)
(-2.24231e-20 -9.87898e-16 0)
(-2.26452e-20 -9.87898e-16 0)
(-2.26925e-20 -9.87899e-16 0)
(-2.25586e-20 -9.87899e-16 0)
(-2.2238e-20 -9.87899e-16 0)
(-2.1727e-20 -9.87899e-16 0)
(-2.10235e-20 -9.879e-16 0)
(-2.01278e-20 -9.879e-16 0)
(-1.9042e-20 -9.879e-16 0)
(-1.77711e-20 -9.879e-16 0)
(-1.63225e-20 -9.87901e-16 0)
(-1.47064e-20 -9.87901e-16 0)
(-1.29359e-20 -9.87901e-16 0)
(-1.10267e-20 -9.87901e-16 0)
(-8.99712e-21 -9.87901e-16 0)
(-7.47712e-21 -9.87901e-16 0)
(-6.51424e-21 -9.87902e-16 0)
(-5.5369e-21 -9.87902e-16 0)
(-4.54722e-21 -9.87902e-16 0)
(-3.54736e-21 -9.87902e-16 0)
(-2.53954e-21 -9.87902e-16 0)
(-1.52601e-21 -9.87902e-16 0)
(-5.09054e-22 -9.87902e-16 0)
(5.09054e-22 -9.87902e-16 0)
(1.52601e-21 -9.87902e-16 0)
(2.53954e-21 -9.87902e-16 0)
(3.54736e-21 -9.87902e-16 0)
(4.54722e-21 -9.87902e-16 0)
(5.5369e-21 -9.87902e-16 0)
(6.51424e-21 -9.87902e-16 0)
(7.47712e-21 -9.87901e-16 0)
(8.99712e-21 -9.87901e-16 0)
(1.10267e-20 -9.87901e-16 0)
(1.29359e-20 -9.87901e-16 0)
(1.47064e-20 -9.87901e-16 0)
(1.63225e-20 -9.87901e-16 0)
(1.77711e-20 -9.879e-16 0)
(1.9042e-20 -9.879e-16 0)
(2.01278e-20 -9.879e-16 0)
(2.10235e-20 -9.879e-16 0)
(2.1727e-20 -9.87899e-16 0)
(2.2238e-20 -9.87899e-16 0)
(2.25586e-20 -9.87899e-16 0)
(2.26925e-20 -9.87899e-16 0)
(2.26452e-20 -9.87898e-16 0)
(2.24231e-20 -9.87898e-16 0)
(2.2034e-20 -9.87898e-16 0)
(2.14863e-20 -9.87898e-16 0)
(2.07892e-20 -9.87897e-16 0)
(1.99522e-20 -9.87897e-16 0)
(1.89853e-20 -9.87897e-16 0)
(1.78985e-20 -9.87897e-16 0)
(1.67019e-20 -9.87897e-16 0)
(1.54058e-20 -9.87897e-16 0)
(1.40201e-20 -9.87897e-16 0)
(1.25549e-20 -9.87896e-16 0)
(1.102e-20 -9.87896e-16 0)
(9.42502e-21 -9.87896e-16 0)
(7.77962e-21 -9.87896e-16 0)
(6.09315e-21 -9.87896e-16 0)
(4.37487e-21 -9.87896e-16 0)
(2.63395e-21 -9.87896e-16 0)
(8.79488e-22 -9.87896e-16 0)
(-8.81867e-22 -9.87895e-16 0)
(-2.6411e-21 -9.87895e-16 0)
(-4.38681e-21 -9.87896e-16 0)
(-6.10992e-21 -9.87896e-16 0)
(-7.80128e-21 -9.87896e-16 0)
(-9.45163e-21 -9.87896e-16 0)
(-1.10516e-20 -9.87896e-16 0)
(-1.25916e-20 -9.87896e-16 0)
(-1.4062e-20 -9.87896e-16 0)
(-1.54529e-20 -9.87896e-16 0)
(-1.67544e-20 -9.87896e-16 0)
(-1.79562e-20 -9.87897e-16 0)
(-1.90484e-20 -9.87897e-16 0)
(-2.00206e-20 -9.87897e-16 0)
(-2.08627e-20 -9.87897e-16 0)
(-2.15648e-20 -9.87897e-16 0)
(-2.21172e-20 -9.87898e-16 0)
(-2.25108e-20 -9.87898e-16 0)
(-2.27368e-20 -9.87898e-16 0)
(-2.27876e-20 -9.87899e-16 0)
(-2.26563e-20 -9.87899e-16 0)
(-2.23377e-20 -9.87899e-16 0)
(-2.18276e-20 -9.879e-16 0)
(-2.11241e-20 -9.879e-16 0)
(-2.0227e-20 -9.879e-16 0)
(-1.91387e-20 -9.87901e-16 0)
(-1.78638e-20 -9.87901e-16 0)
(-1.64098e-20 -9.87901e-16 0)
(-1.47869e-20 -9.87901e-16 0)
(-1.30082e-20 -9.87902e-16 0)
(-1.10894e-20 -9.87902e-16 0)
(-9.04901e-21 -9.87902e-16 0)
(-7.52065e-21 -9.87902e-16 0)
(-6.55235e-21 -9.87902e-16 0)
(-5.56942e-21 -9.87902e-16 0)
(-4.574e-21 -9.87902e-16 0)
(-3.56831e-21 -9.87902e-16 0)
(-2.55457e-21 -9.87902e-16 0)
(-1.53506e-21 -9.87902e-16 0)
(-5.12072e-22 -9.87902e-16 0)
(5.12072e-22 -9.87902e-16 0)
(1.53506e-21 -9.87902e-16 0)
(2.55457e-21 -9.87902e-16 0)
(3.56831e-21 -9.87902e-16 0)
(4.574e-21 -9.87902e-16 0)
(5.56942e-21 -9.87902e-16 0)
(6.55235e-21 -9.87902e-16 0)
(7.52065e-21 -9.87902e-16 0)
(9.04901e-21 -9.87902e-16 0)
(1.10894e-20 -9.87902e-16 0)
(1.30082e-20 -9.87902e-16 0)
(1.47869e-20 -9.87901e-16 0)
(1.64098e-20 -9.87901e-16 0)
(1.78638e-20 -9.87901e-16 0)
(1.91387e-20 -9.87901e-16 0)
(2.0227e-20 -9.879e-16 0)
(2.11241e-20 -9.879e-16 0)
(2.18276e-20 -9.879e-16 0)
(2.23377e-20 -9.87899e-16 0)
(2.26563e-20 -9.87899e-16 0)
(2.27876e-20 -9.87899e-16 0)
(2.27368e-20 -9.87898e-16 0)
(2.25108e-20 -9.87898e-16 0)
(2.21172e-20 -9.87898e-16 0)
(2.15648e-20 -9.87897e-16 0)
(2.08627e-20 -9.87897e-16 0)
(2.00206e-20 -9.87897e-16 0)
(1.90484e-20 -9.87897e-16 0)
(1.79562e-20 -9.87897e-16 0)
(1.67544e-20 -9.87896e-16 0)
(1.54529e-20 -9.87896e-16 0)
(1.4062e-20 -9.87896e-16 0)
(1.25916e-20 -9.87896e-16 0)
(1.10516e-20 -9.87896e-16 0)
(9.45163e-21 -9.87896e-16 0)
(7.80128e-21 -9.87896e-16 0)
(6.10992e-21 -9.87896e-16 0)
(4.38681e-21 -9.87896e-16 0)
(2.6411e-21 -9.87895e-16 0)
(8.81867e-22 -9.87895e-16 0)
(-8.85068e-22 -9.87895e-16 0)
(-2.65071e-21 -9.87895e-16 0)
(-4.40287e-21 -9.87895e-16 0)
(-6.13248e-21 -9.87895e-16 0)
(-7.83041e-21 -9.87895e-16 0)
(-9.48743e-21 -9.87895e-16 0)
(-1.10941e-20 -9.87895e-16 0)
(-1.2641e-20 -9.87895e-16 0)
(-1.41184e-20 -9.87896e-16 0)
(-1.55164e-20 -9.87896e-16 0)
(-1.68249e-20 -9.87896e-16 0)
(-1.8034e-20 -9.87896e-16 0)
(-1.91333e-20 -9.87896e-16 0)
(-2.01126e-20 -9.87897e-16 0)
(-2.09617e-20 -9.87897e-16 0)
(-2.16706e-20 -9.87897e-16 0)
(-2.22294e-20 -9.87898e-16 0)
(-2.26289e-20 -9.87898e-16 0)
(-2.28603e-20 -9.87898e-16 0)
(-2.29157e-20 -9.87899e-16 0)
(-2.27882e-20 -9.87899e-16 0)
(-2.24721e-20 -9.87899e-16 0)
(-2.19634e-20 -9.879e-16 0)
(-2.12598e-20 -9.879e-16 0)
(-2.0361e-20 -9.87901e-16 0)
(-1.92692e-20 -9.87901e-16 0)
(-1.7989e-20 -9.87901e-16 0)
(-1.65278e-20 -9.87902e-16 0)
(-1.48957e-20 -9.87902e-16 0)
(-1.31058e-20 -9.87902e-16 0)
(-1.11741e-20 -9.87903e-16 0)
(-9.11915e-21 -9.87903e-16 0)
(-7.57951e-21 -9.87903e-16 0)
(-6.60386e-21 -9.87903e-16 0)
(-5.61337e-21 -9.87903e-16 0)
(-4.61022e-21 -9.87903e-16 0)
(-3.59664e-21 -9.87903e-16 0)
(-2.57489e-21 -9.87903e-16 0)
(-1.54729e-21 -9.87903e-16 0)
(-5.16154e-22 -9.87903e-16 0)
(5.16154e-22 -9.87903e-16 0)
(1.54729e-21 -9.87903e-16 0)
(2.57489e-21 -9.87903e-16 0)
(3.59664e-21 -9.87903e-16 0)
(4.61022e-21 -9.87903e-16 0)
(5.61337e-21 -9.87903e-16 0)
(6.60386e-21 -9.87903e-16 0)
(7.57951e-21 -9.87903e-16 0)
(9.11915e-21 -9.87903e-16 0)
(1.11741e-20 -9.87903e-16 0)
(1.31058e-20 -9.87902e-16 0)
(1.48957e-20 -9.87902e-16 0)
(1.65278e-20 -9.87902e-16 0)
(1.7989e-20 -9.87901e-16 0)
(1.92692e-20 -9.87901e-16 0)
(2.0361e-20 -9.87901e-16 0)
(2.12598e-20 -9.879e-16 0)
(2.19634e-20 -9.879e-16 0)
(2.24721e-20 -9.87899e-16 0)
(2.27882e-20 -9.87899e-16 0)
(2.29157e-20 -9.87899e-16 0)
(2.28603e-20 -9.87898e-16 0)
(2.26289e-20 -9.87898e-16 0)
(2.22294e-20 -9.87898e-16 0)
(2.16706e-20 -9.87897e-16 0)
(2.09617e-20 -9.87897e-16 0)
(2.01126e-20 -9.87897e-16 0)
(1.91333e-20 -9.87896e-16 0)
(1.8034e-20 -9.87896e-16 0)
(1.68249e-20 -9.87896e-16 0)
(1.55164e-20 -9.87896e-16 0)
(1.41184e-20 -9.87896e-16 0)
(1.2641e-20 -9.87895e-16 0)
(1.10941e-20 -9.87895e-16 0)
(9.48743e-21 -9.87895e-16 0)
(7.83041e-21 -9.87895e-16 0)
(6.13248e-21 -9.87895e-16 0)
(4.40287e-21 -9.87895e-16 0)
(2.65071e-21 -9.87895e-16 0)
(8.85068e-22 -9.87895e-16 0)
(-8.89288e-22 -9.87894e-16 0)
(-2.66339e-21 -9.87894e-16 0)
(-4.42404e-21 -9.87894e-16 0)
(-6.16223e-21 -9.87894e-16 0)
(-7.86883e-21 -9.87894e-16 0)
(-9.53464e-21 -9.87894e-16 0)
(-1.11503e-20 -9.87895e-16 0)
(-1.27062e-20 -9.87895e-16 0)
(-1.41928e-20 -9.87895e-16 0)
(-1.56001e-20 -9.87895e-16 0)
(-1.69181e-20 -9.87895e-16 0)
(-1.81366e-20 -9.87896e-16 0)
(-1.92454e-20 -9.87896e-16 0)
(-2.02341e-20 -9.87896e-16 0)
(-2.10925e-20 -9.87897e-16 0)
(-2.18103e-20 -9.87897e-16 0)
(-2.23776e-20 -9.87897e-16 0)
(-2.27851e-20 -9.87898e-16 0)
(-2.30236e-20 -9.87898e-16 0)
(-2.30852e-20 -9.87899e-16 0)
(-2.29626e-20 -9.87899e-16 0)
(-2.265e-20 -9.879e-16 0)
(-2.21432e-20 -9.879e-16 0)
(-2.14395e-20 -9.87901e-16 0)
(-2.05385e-20 -9.87901e-16 0)
(-1.94422e-20 -9.87901e-16 0)
(-1.8155e-20 -9.87902e-16 0)
(-1.66841e-20 -9.87902e-16 0)
(-1.50399e-20 -9.87903e-16 0)
(-1.32353e-20 -9.87903e-16 0)
(-1.12865e-20 -9.87903e-16 0)
(-9.21221e-21 -9.87904e-16 0)
(-7.65761e-21 -9.87904e-16 0)
(-6.67222e-21 -9.87904e-16 0)
(-5.67171e-21 -9.87904e-16 0)
(-4.6583e-21 -9.87904e-16 0)
(-3.63424e-21 -9.87904e-16 0)
(-2.60187e-21 -9.87904e-16 0)
(-1.56352e-21 -9.87904e-16 0)
(-5.21572e-22 -9.87904e-16 0)
(5.21572e-22 -9.87904e-16 0)
(1.56352e-21 -9.87904e-16 0)
(2.60187e-21 -9.87904e-16 0)
(3.63424e-21 -9.87904e-16 0)
(4.6583e-21 -9.87904e-16 0)
(5.67171e-21 -9.87904e-16 0)
(6.67222e-21 -9.87904e-16 0)
(7.65761e-21 -9.87904e-16 0)
(9.21221e-21 -9.87904e-16 0)
(1.12865e-20 -9.87903e-16 0)
(1.32353e-20 -9.87903e-16 0)
(1.50399e-20 -9.87903e-16 0)
(1.66841e-20 -9.87902e-16 0)
(1.8155e-20 -9.87902e-16 0)
(1.94422e-20 -9.87901e-16 0)
(2.05385e-20 -9.87901e-16 0)
(2.14395e-20 -9.87901e-16 0)
(2.21432e-20 -9.879e-16 0)
(2.265e-20 -9.879e-16 0)
(2.29626e-20 -9.87899e-16 0)
(2.30852e-20 -9.87899e-16 0)
(2.30236e-20 -9.87898e-16 0)
(2.27851e-20 -9.87898e-16 0)
(2.23776e-20 -9.87897e-16 0)
(2.18103e-20 -9.87897e-16 0)
(2.10925e-20 -9.87897e-16 0)
(2.02341e-20 -9.87896e-16 0)
(1.92454e-20 -9.87896e-16 0)
(1.81366e-20 -9.87896e-16 0)
(1.69181e-20 -9.87895e-16 0)
(1.56001e-20 -9.87895e-16 0)
(1.41928e-20 -9.87895e-16 0)
(1.27062e-20 -9.87895e-16 0)
(1.11503e-20 -9.87895e-16 0)
(9.53464e-21 -9.87894e-16 0)
(7.86883e-21 -9.87894e-16 0)
(6.16223e-21 -9.87894e-16 0)
(4.42404e-21 -9.87894e-16 0)
(2.66339e-21 -9.87894e-16 0)
(8.89288e-22 -9.87894e-16 0)
(-8.94768e-22 -9.87893e-16 0)
(-2.67985e-21 -9.87893e-16 0)
(-4.45154e-21 -9.87893e-16 0)
(-6.20086e-21 -9.87893e-16 0)
(-7.91873e-21 -9.87894e-16 0)
(-9.59596e-21 -9.87894e-16 0)
(-1.12232e-20 -9.87894e-16 0)
(-1.27909e-20 -9.87894e-16 0)
(-1.42894e-20 -9.87894e-16 0)
(-1.57089e-20 -9.87895e-16 0)
(-1.70392e-20 -9.87895e-16 0)
(-1.827e-20 -9.87895e-16 0)
(-1.93912e-20 -9.87895e-16 0)
(-2.03922e-20 -9.87896e-16 0)
(-2.12626e-20 -9.87896e-16 0)
(-2.19921e-20 -9.87897e-16 0)
(-2.25706e-20 -9.87897e-16 0)
(-2.29884e-20 -9.87898e-16 0)
(-2.32364e-20 -9.87898e-16 0)
(-2.3306e-20 -9.87899e-16 0)
(-2.319e-20 -9.87899e-16 0)
(-2.28821e-20 -9.879e-16 0)
(-2.23777e-20 -9.879e-16 0)
(-2.1674e-20 -9.87901e-16 0)
(-2.07703e-20 -9.87901e-16 0)
(-1.96681e-20 -9.87902e-16 0)
(-1.83719e-20 -9.87903e-16 0)
(-1.68886e-20 -9.87903e-16 0)
(-1.52285e-20 -9.87904e-16 0)
(-1.34048e-20 -9.87904e-16 0)
(-1.14336e-20 -9.87904e-16 0)
(-9.33406e-21 -9.87905e-16 0)
(-7.75988e-21 -9.87905e-16 0)
(-6.76174e-21 -9.87905e-16 0)
(-5.74812e-21 -9.87905e-16 0)
(-4.72126e-21 -9.87905e-16 0)
(-3.6835e-21 -9.87905e-16 0)
(-2.6372e-21 -9.87905e-16 0)
(-1.58478e-21 -9.87905e-16 0)
(-5.28669e-22 -9.87905e-16 0)
(5.28669e-22 -9.87905e-16 0)
(1.58478e-21 -9.87905e-16 0)
(2.6372e-21 -9.87905e-16 0)
(3.6835e-21 -9.87905e-16 0)
(4.72126e-21 -9.87905e-16 0)
(5.74812e-21 -9.87905e-16 0)
(6.76174e-21 -9.87905e-16 0)
(7.75988e-21 -9.87905e-16 0)
(9.33406e-21 -9.87905e-16 0)
(1.14336e-20 -9.87904e-16 0)
(1.34048e-20 -9.87904e-16 0)
(1.52285e-20 -9.87904e-16 0)
(1.68886e-20 -9.87903e-16 0)
(1.83719e-20 -9.87903e-16 0)
(1.96681e-20 -9.87902e-16 0)
(2.07703e-20 -9.87901e-16 0)
(2.1674e-20 -9.87901e-16 0)
(2.23777e-20 -9.879e-16 0)
(2.28821e-20 -9.879e-16 0)
(2.319e-20 -9.87899e-16 0)
(2.3306e-20 -9.87899e-16 0)
(2.32364e-20 -9.87898e-16 0)
(2.29884e-20 -9.87898e-16 0)
(2.25706e-20 -9.87897e-16 0)
(2.19921e-20 -9.87897e-16 0)
(2.12626e-20 -9.87896e-16 0)
(2.03922e-20 -9.87896e-16 0)
(1.93912e-20 -9.87895e-16 0)
(1.827e-20 -9.87895e-16 0)
(1.70392e-20 -9.87895e-16 0)
(1.57089e-20 -9.87895e-16 0)
(1.42894e-20 -9.87894e-16 0)
(1.27909e-20 -9.87894e-16 0)
(1.12232e-20 -9.87894e-16 0)
(9.59596e-21 -9.87894e-16 0)
(7.91873e-21 -9.87894e-16 0)
(6.20086e-21 -9.87893e-16 0)
(4.45154e-21 -9.87893e-16 0)
(2.67985e-21 -9.87893e-16 0)
(8.94768e-22 -9.87893e-16 0)
(-9.01797e-22 -9.87892e-16 0)
(-2.70096e-21 -9.87892e-16 0)
(-4.48681e-21 -9.87893e-16 0)
(-6.25042e-21 -9.87893e-16 0)
(-7.98275e-21 -9.87893e-16 0)
(-9.67464e-21 -9.87893e-16 0)
(-1.13168e-20 -9.87893e-16 0)
(-1.28996e-20 -9.87893e-16 0)
(-1.44136e-20 -9.87894e-16 0)
(-1.58486e-20 -9.87894e-16 0)
(-1.71947e-20 -9.87894e-16 0)
(-1.84415e-20 -9.87895e-16 0)
(-1.95786e-20 -9.87895e-16 0)
(-2.05954e-20 -9.87895e-16 0)
(-2.14814e-20 -9.87896e-16 0)
(-2.22261e-20 -9.87896e-16 0)
(-2.2819e-20 -9.87897e-16 0)
(-2.32503e-20 -9.87897e-16 0)
(-2.35105e-20 -9.87898e-16 0)
(-2.35907e-20 -9.87899e-16 0)
(-2.34833e-20 -9.87899e-16 0)
(-2.31816e-20 -9.879e-16 0)
(-2.26806e-20 -9.87901e-16 0)
(-2.19771e-20 -9.87901e-16 0)
(-2.10699e-20 -9.87902e-16 0)
(-1.99603e-20 -9.87903e-16 0)
(-1.86525e-20 -9.87903e-16 0)
(-1.71533e-20 -9.87904e-16 0)
(-1.54729e-20 -9.87904e-16 0)
(-1.36243e-20 -9.87905e-16 0)
(-1.16242e-20 -9.87905e-16 0)
(-9.49206e-21 -9.87906e-16 0)
(-7.89252e-21 -9.87906e-16 0)
(-6.87787e-21 -9.87906e-16 0)
(-5.84723e-21 -9.87906e-16 0)
(-4.80294e-21 -9.87906e-16 0)
(-3.7474e-21 -9.87906e-16 0)
(-2.68304e-21 -9.87906e-16 0)
(-1.61236e-21 -9.87906e-16 0)
(-5.37878e-22 -9.87906e-16 0)
(5.37878e-22 -9.87906e-16 0)
(1.61236e-21 -9.87906e-16 0)
(2.68304e-21 -9.87906e-16 0)
(3.7474e-21 -9.87906e-16 0)
(4.80294e-21 -9.87906e-16 0)
(5.84723e-21 -9.87906e-16 0)
(6.87787e-21 -9.87906e-16 0)
(7.89252e-21 -9.87906e-16 0)
(9.49206e-21 -9.87906e-16 0)
(1.16242e-20 -9.87905e-16 0)
(1.36243e-20 -9.87905e-16 0)
(1.54729e-20 -9.87904e-16 0)
(1.71533e-20 -9.87904e-16 0)
(1.86525e-20 -9.87903e-16 0)
(1.99603e-20 -9.87903e-16 0)
(2.10699e-20 -9.87902e-16 0)
(2.19771e-20 -9.87901e-16 0)
(2.26806e-20 -9.87901e-16 0)
(2.31816e-20 -9.879e-16 0)
(2.34833e-20 -9.87899e-16 0)
(2.35907e-20 -9.87899e-16 0)
(2.35105e-20 -9.87898e-16 0)
(2.32503e-20 -9.87897e-16 0)
(2.2819e-20 -9.87897e-16 0)
(2.22261e-20 -9.87896e-16 0)
(2.14814e-20 -9.87896e-16 0)
(2.05954e-20 -9.87895e-16 0)
(1.95786e-20 -9.87895e-16 0)
(1.84415e-20 -9.87895e-16 0)
(1.71947e-20 -9.87894e-16 0)
(1.58486e-20 -9.87894e-16 0)
(1.44136e-20 -9.87894e-16 0)
(1.28996e-20 -9.87893e-16 0)
(1.13168e-20 -9.87893e-16 0)
(9.67464e-21 -9.87893e-16 0)
(7.98275e-21 -9.87893e-16 0)
(6.25042e-21 -9.87893e-16 0)
(4.48681e-21 -9.87893e-16 0)
(2.70096e-21 -9.87892e-16 0)
(9.01797e-22 -9.87892e-16 0)
(-9.10725e-22 -9.87891e-16 0)
(-2.72778e-21 -9.87891e-16 0)
(-4.53162e-21 -9.87892e-16 0)
(-6.31339e-21 -9.87892e-16 0)
(-8.06409e-21 -9.87892e-16 0)
(-9.77463e-21 -9.87892e-16 0)
(-1.14357e-20 -9.87892e-16 0)
(-1.30379e-20 -9.87892e-16 0)
(-1.45714e-20 -9.87893e-16 0)
(-1.60263e-20 -9.87893e-16 0)
(-1.73925e-20 -9.87893e-16 0)
(-1.86597e-20 -9.87894e-16 0)
(-1.98172e-20 -9.87894e-16 0)
(-2.08543e-20 -9.87895e-16 0)
(-2.17603e-20 -9.87895e-16 0)
(-2.25244e-20 -9.87896e-16 0)
(-2.31359e-20 -9.87897e-16 0)
(-2.35846e-20 -9.87897e-16 0)
(-2.38606e-20 -9.87898e-16 0)
(-2.39546e-20 -9.87899e-16 0)
(-2.38584e-20 -9.87899e-16 0)
(-2.35649e-20 -9.879e-16 0)
(-2.30685e-20 -9.87901e-16 0)
(-2.23654e-20 -9.87902e-16 0)
(-2.14541e-20 -9.87902e-16 0)
(-2.03354e-20 -9.87903e-16 0)
(-1.9013e-20 -9.87904e-16 0)
(-1.74935e-20 -9.87905e-16 0)
(-1.57871e-20 -9.87905e-16 0)
(-1.39069e-20 -9.87906e-16 0)
(-1.18697e-20 -9.87907e-16 0)
(-9.69554e-21 -9.87907e-16 0)
(-8.0634e-21 -9.87907e-16 0)
(-7.02749e-21 -9.87907e-16 0)
(-5.97495e-21 -9.87907e-16 0)
(-4.90821e-21 -9.87908e-16 0)
(-3.82976e-21 -9.87908e-16 0)
(-2.74213e-21 -9.87908e-16 0)
(-1.64792e-21 -9.87908e-16 0)
(-5.49748e-22 -9.87908e-16 0)
(5.49748e-22 -9.87908e-16 0)
(1.64792e-21 -9.87908e-16 0)
(2.74213e-21 -9.87908e-16 0)
(3.82976e-21 -9.87908e-16 0)
(4.90821e-21 -9.87908e-16 0)
(5.97495e-21 -9.87907e-16 0)
(7.02749e-21 -9.87907e-16 0)
(8.0634e-21 -9.87907e-16 0)
(9.69554e-21 -9.87907e-16 0)
(1.18697e-20 -9.87907e-16 0)
(1.39069e-20 -9.87906e-16 0)
(1.57871e-20 -9.87905e-16 0)
(1.74935e-20 -9.87905e-16 0)
(1.9013e-20 -9.87904e-16 0)
(2.03354e-20 -9.87903e-16 0)
(2.14541e-20 -9.87902e-16 0)
(2.23654e-20 -9.87902e-16 0)
(2.30685e-20 -9.87901e-16 0)
(2.35649e-20 -9.879e-16 0)
(2.38584e-20 -9.87899e-16 0)
(2.39546e-20 -9.87899e-16 0)
(2.38606e-20 -9.87898e-16 0)
(2.35846e-20 -9.87897e-16 0)
(2.31359e-20 -9.87897e-16 0)
(2.25244e-20 -9.87896e-16 0)
(2.17603e-20 -9.87895e-16 0)
(2.08543e-20 -9.87895e-16 0)
(1.98172e-20 -9.87894e-16 0)
(1.86597e-20 -9.87894e-16 0)
(1.73925e-20 -9.87893e-16 0)
(1.60263e-20 -9.87893e-16 0)
(1.45714e-20 -9.87893e-16 0)
(1.30379e-20 -9.87892e-16 0)
(1.14357e-20 -9.87892e-16 0)
(9.77463e-21 -9.87892e-16 0)
(8.06409e-21 -9.87892e-16 0)
(6.31339e-21 -9.87892e-16 0)
(4.53162e-21 -9.87892e-16 0)
(2.72778e-21 -9.87891e-16 0)
(9.10725e-22 -9.87891e-16 0)
(-9.21972e-22 -9.8789e-16 0)
(-2.76156e-21 -9.8789e-16 0)
(-4.58808e-21 -9.8789e-16 0)
(-6.39273e-21 -9.87891e-16 0)
(-8.1666e-21 -9.87891e-16 0)
(-9.90066e-21 -9.87891e-16 0)
(-1.15857e-20 -9.87891e-16 0)
(-1.32122e-20 -9.87892e-16 0)
(-1.47705e-20 -9.87892e-16 0)
(-1.62506e-20 -9.87892e-16 0)
(-1.76424e-20 -9.87893e-16 0)
(-1.89353e-20 -9.87893e-16 0)
(-2.01187e-20 -9.87894e-16 0)
(-2.11816e-20 -9.87894e-16 0)
(-2.21131e-20 -9.87895e-16 0)
(-2.29021e-20 -9.87896e-16 0)
(-2.35374e-20 -9.87896e-16 0)
(-2.40085e-20 -9.87897e-16 0)
(-2.43048e-20 -9.87898e-16 0)
(-2.44167e-20 -9.87899e-16 0)
(-2.43351e-20 -9.87899e-16 0)
(-2.40524e-20 -9.879e-16 0)
(-2.35623e-20 -9.87901e-16 0)
(-2.28603e-20 -9.87902e-16 0)
(-2.19442e-20 -9.87903e-16 0)
(-2.08142e-20 -9.87904e-16 0)
(-1.94735e-20 -9.87905e-16 0)
(-1.79286e-20 -9.87906e-16 0)
(-1.61892e-20 -9.87906e-16 0)
(-1.42687e-20 -9.87907e-16 0)
(-1.21843e-20 -9.87908e-16 0)
(-9.95646e-21 -9.87908e-16 0)
(-8.28259e-21 -9.87909e-16 0)
(-7.21943e-21 -9.87909e-16 0)
(-6.13882e-21 -9.87909e-16 0)
(-5.0433e-21 -9.87909e-16 0)
(-3.93545e-21 -9.87909e-16 0)
(-2.81797e-21 -9.87909e-16 0)
(-1.69356e-21 -9.87909e-16 0)
(-5.64985e-22 -9.87909e-16 0)
(5.64985e-22 -9.87909e-16 0)
(1.69356e-21 -9.87909e-16 0)
(2.81797e-21 -9.87909e-16 0)