/*--------------------------------*- C++ -*----------------------------------*\
  =========                 |
  \\      /  F ield         | OpenFOAM: The Open Source CFD Toolbox
   \\    /   O peration     | Website:  https://openfoam.org
    \\  /    A nd           | Version:  10
     \\/     M anipulation  |
\*---------------------------------------------------------------------------*/
FoamFile
{
    format      ascii;
    class       volScalarField;
    location    "53";
    object      p;
}
// * * * * * * * * * * * * * * * * * * * * * * * * * * * * * * * * * * * * * //

dimensions      [1 -1 -2 0 0 0 0];

internalField   nonuniform List<scalar> 
100
(
1.02363e+07
1.02359e+07
1.02354e+07
1.02348e+07
1.02341e+07
1.02334e+07
1.02326e+07
1.02317e+07
1.02308e+07
1.02298e+07
1.02288e+07
1.02277e+07
1.02266e+07
1.02254e+07
1.02242e+07
1.02229e+07
1.02216e+07
1.02203e+07
1.02189e+07
1.02175e+07
1.0216e+07
1.02145e+07
1.0213e+07
1.02114e+07
1.02098e+07
1.02082e+07
1.02065e+07
1.02048e+07
1.0203e+07
1.02012e+07
1.01994e+07
1.01976e+07
1.01957e+07
1.01938e+07
1.01918e+07
1.01898e+07
1.01878e+07
1.01858e+07
1.01837e+07
1.01816e+07
1.01794e+07
1.01773e+07
1.01751e+07
1.01729e+07
1.01706e+07
1.01683e+07
1.0166e+07
1.01636e+07
1.01613e+07
1.01589e+07
1.01564e+07
1.0154e+07
1.01515e+07
1.0149e+07
1.01464e+07
1.01438e+07
1.01412e+07
1.01386e+07
1.0136e+07
1.01333e+07
1.01306e+07
1.01278e+07
1.01251e+07
1.01223e+07
1.01194e+07
1.01166e+07
1.01137e+07
1.01108e+07
1.01079e+07
1.01049e+07
1.01019e+07
1.00989e+07
1.00959e+07
1.00928e+07
1.00897e+07
1.00866e+07
1.00835e+07
1.00803e+07
1.00771e+07
1.00738e+07
1.00706e+07
1.00673e+07
1.0064e+07
1.00606e+07
1.00573e+07
1.00539e+07
1.00504e+07
1.0047e+07
1.00435e+07
1.00399e+07
1.00364e+07
1.00328e+07
1.00291e+07
1.00254e+07
1.00217e+07
1.00179e+07
1.00141e+07
1.00102e+07
1.00062e+07
1.00021e+07
)
;

boundaryField
{
    inlet
    {
        type            zeroGradient;
    }
    outlet
    {
        type            fixedValue;
        value           uniform 1e+07;
    }
    yzfaces
    {
        type            empty;
    }
}


// ************************************************************************* //
