/*--------------------------------*- C++ -*----------------------------------*\
  =========                 |
  \\      /  F ield         | OpenFOAM: The Open Source CFD Toolbox
   \\    /   O peration     | Website:  https://openfoam.org
    \\  /    A nd           | Version:  10
     \\/     M anipulation  |
\*---------------------------------------------------------------------------*/
FoamFile
{
    format      ascii;
    class       volVectorField;
    location    "0.06";
    object      U;
}
// * * * * * * * * * * * * * * * * * * * * * * * * * * * * * * * * * * * * * //

dimensions      [0 1 -1 0 0 0 0];

internalField   nonuniform List<vector> 
4000
(
(5.00001 -7.33108e-05 0)
(5.00014 -0.000219544 0)
(5.0004 -0.000366233 0)
(5.00082 -0.000513151 0)
(5.00139 -0.000660608 0)
(5.00211 -0.000808511 0)
(5.00297 -0.000957224 0)
(5.00398 -0.00110658 0)
(5.00515 -0.00125708 0)
(5.00646 -0.00140846 0)
(5.00793 -0.00156136 0)
(5.00955 -0.00171547 0)
(5.01132 -0.0018716 0)
(5.01325 -0.00202935 0)
(5.01534 -0.00218972 0)
(5.0176 -0.00235222 0)
(5.02001 -0.00251803 0)
(5.02259 -0.00268659 0)
(5.02534 -0.00285924 0)
(5.02827 -0.00303535 0)
(5.03137 -0.00321642 0)
(5.03465 -0.00340174 0)
(5.03812 -0.00359296 0)
(5.04179 -0.00378927 0)
(5.04565 -0.00399251 0)
(5.04972 -0.00420174 0)
(5.05401 -0.00441898 0)
(5.05851 -0.0046432 0)
(5.06324 -0.00487657 0)
(5.0682 -0.00511795 0)
(5.07341 -0.00536968 0)
(5.07888 -0.00563052 0)
(5.08461 -0.00590296 0)
(5.09062 -0.00618567 0)
(5.09691 -0.00648126 0)
(5.1035 -0.00678833 0)
(5.11041 -0.0071096 0)
(5.11765 -0.0074436 0)
(5.12522 -0.00779314 0)
(5.13315 -0.00815668 0)
(5.14145 -0.00853714 0)
(5.15013 -0.00893286 0)
(5.15922 -0.00934687 0)
(5.16873 -0.00977741 0)
(5.17868 -0.0102276 0)
(5.18909 -0.0106955 0)
(5.19997 -0.0111844 0)
(5.21135 -0.0116922 0)
(5.22325 -0.0122221 0)
(5.23569 -0.012772 0)
(5.24869 -0.0133451 0)
(5.26227 -0.013939 0)
(5.27645 -0.0145569 0)
(5.29126 -0.0151962 0)
(5.30672 -0.0158599 0)
(5.32286 -0.0165453 0)
(5.33969 -0.017255 0)
(5.35724 -0.0179861 0)
(5.37553 -0.0187408 0)
(5.39459 -0.0195156 0)
(5.41443 -0.0203127 0)
(5.43509 -0.0211277 0)
(5.45656 -0.0219623 0)
(5.47888 -0.0228116 0)
(5.50206 -0.0236763 0)
(5.52611 -0.0245509 0)
(5.55104 -0.0254353 0)
(5.57686 -0.0263229 0)
(5.60358 -0.0272129 0)
(5.63118 -0.0280976 0)
(5.65967 -0.0289753 0)
(5.68904 -0.0298373 0)
(5.71927 -0.0306809 0)
(5.75033 -0.0314969 0)
(5.78221 -0.0322817 0)
(5.81485 -0.0330254 0)
(5.84822 -0.0337245 0)
(5.88228 -0.0343687 0)
(5.91695 -0.0349547 0)
(5.95219 -0.0354728 0)
(5.98791 -0.0359204 0)
(6.02405 -0.0362889 0)
(6.06053 -0.036577 0)
(6.09725 -0.0367779 0)
(6.13413 -0.0368922 0)
(6.17109 -0.0369151 0)
(6.20802 -0.0368492 0)
(6.24484 -0.0366921 0)
(6.28146 -0.0364487 0)
(6.31779 -0.0361184 0)
(6.35374 -0.0357083 0)
(6.38924 -0.0352195 0)
(6.42422 -0.0346608 0)
(6.45859 -0.0340343 0)
(6.4923 -0.0333501 0)
(6.52529 -0.0326109 0)
(6.5575 -0.0318273 0)
(6.58891 -0.0310024 0)
(6.61947 -0.0301466 0)
(6.64915 -0.0292626 0)
(6.67792 -0.0283607 0)
(6.70578 -0.0274428 0)
(6.73271 -0.0265186 0)
(6.7587 -0.0255889 0)
(6.78375 -0.0246629 0)
(6.80788 -0.0237405 0)
(6.83108 -0.02283 0)
(6.85337 -0.0219303 0)
(6.87476 -0.0210494 0)
(6.89528 -0.020185 0)
(6.91494 -0.0193446 0)
(6.93377 -0.0185252 0)
(6.9518 -0.0177341 0)
(6.96906 -0.0169671 0)
(6.98556 -0.0162315 0)
(7.00134 -0.0155223 0)
(7.01644 -0.0148466 0)
(7.03088 -0.0141985 0)
(7.04469 -0.013585 0)
(7.0579 -0.0129996 0)
(7.07054 -0.0124493 0)
(7.08265 -0.0119266 0)
(7.09426 -0.0114389 0)
(7.10538 -0.0109777 0)
(7.11606 -0.0105508 0)
(7.12633 -0.010149 0)
(7.1362 -0.00978065 0)
(7.14571 -0.00943568 0)
(7.15489 -0.00912302 0)
(7.16376 -0.00883192 0)
(7.17235 -0.00857196 0)
(7.18069 -0.0083316 0)
(7.18879 -0.00812108 0)
(7.19669 -0.00792798 0)
(7.20441 -0.00776316 0)
(7.21197 -0.00761324 0)
(7.2194 -0.00748963 0)
(7.2267 -0.0073779 0)
(7.23391 -0.00728996 0)
(7.24104 -0.00721035 0)
(7.2481 -0.00715151 0)
(7.25511 -0.00709704 0)
(7.26208 -0.0070601 0)
(7.26902 -0.00702351 0)
(7.27593 -0.00700155 0)
(7.28283 -0.00697645 0)
(7.28971 -0.00696411 0)
(7.29659 -0.00694638 0)
(7.30345 -0.00694142 0)
(7.31032 -0.0069307 0)
(7.31719 -0.00693532 0)
(7.32406 -0.00693621 0)
(7.33094 -0.00695798 0)
(7.33785 -0.00698052 0)
(7.34478 -0.00703244 0)
(7.35178 -0.00709186 0)
(7.35884 -0.00719167 0)
(7.36602 -0.00730714 0)
(7.37331 -0.0074755 0)
(7.38079 -0.00766804 0)
(7.38846 -0.00792603 0)
(7.39641 -0.00821557 0)
(7.40466 -0.0085814 0)
(7.41329 -0.00898334 0)
(7.42234 -0.00946861 0)
(7.43189 -0.00998999 0)
(7.44197 -0.0105959 0)
(7.45267 -0.0112317 0)
(7.46402 -0.0119455 0)
(7.47609 -0.0126759 0)
(7.48891 -0.0134687 0)
(7.50251 -0.0142573 0)
(7.51693 -0.0150841 0)
(7.53213 -0.0158793 0)
(7.54816 -0.0166807 0)
(7.56493 -0.0174192 0)
(7.58247 -0.0181277 0)
(7.60064 -0.0187415 0)
(7.61944 -0.0192888 0)
(7.63871 -0.0197142 0)
(7.65841 -0.0200413 0)
(7.67833 -0.020228 0)
(7.69845 -0.0202937 0)
(7.71853 -0.0202125 0)
(7.73854 -0.0199999 0)
(7.75823 -0.0196474 0)
(7.77759 -0.019166 0)
(7.79637 -0.0185642 0)
(7.81458 -0.0178478 0)
(7.83201 -0.0170404 0)
(7.84866 -0.0161413 0)
(7.86438 -0.0151864 0)
(7.87918 -0.0141685 0)
(7.89294 -0.013132 0)
(7.90568 -0.0120603 0)
(7.91739 -0.0110026 0)
(7.92787 -0.00994936 0)
(7.93762 -0.00888548 0)
(7.94613 -0.00804004 0)
(7.95687 -0.00649234 0)
(5.00001 -0.000220155 0)
(5.00014 -0.000659531 0)
(5.0004 -0.00110001 0)
(5.00082 -0.00154114 0)
(5.00139 -0.00198359 0)
(5.0021 -0.00242748 0)
(5.00296 -0.0028734 0)
(5.00398 -0.00332134 0)
(5.00514 -0.00377221 0)
(5.00645 -0.00422594 0)
(5.00791 -0.0046837 0)
(5.00952 -0.00514542 0)
(5.01129 -0.00561257 0)
(5.01322 -0.00608508 0)
(5.0153 -0.00656472 0)
(5.01754 -0.00705139 0)
(5.01994 -0.00754715 0)
(5.02251 -0.00805192 0)
(5.02525 -0.00856802 0)
(5.02816 -0.00909534 0)
(5.03124 -0.00963649 0)
(5.03451 -0.0101913 0)
(5.03796 -0.0107627 0)
(5.0416 -0.0113503 0)
(5.04544 -0.0119575 0)
(5.04948 -0.0125838 0)
(5.05374 -0.0132328 0)
(5.05821 -0.013904 0)
(5.0629 -0.0146012 0)
(5.06783 -0.0153238 0)
(5.073 -0.0160759 0)
(5.07843 -0.016857 0)
(5.08412 -0.0176711 0)
(5.09008 -0.0185178 0)
(5.09633 -0.0194013 0)
(5.10287 -0.0203211 0)
(5.10973 -0.0212817 0)
(5.11691 -0.0222822 0)
(5.12442 -0.0233276 0)
(5.13229 -0.0244168 0)
(5.14053 -0.0255549 0)
(5.14915 -0.0267407 0)
(5.15817 -0.0279794 0)
(5.16761 -0.0292698 0)
(5.17749 -0.030617 0)
(5.18782 -0.0320197 0)
(5.19863 -0.0334831 0)
(5.20993 -0.0350055 0)
(5.22174 -0.0365922 0)
(5.2341 -0.0382412 0)
(5.24701 -0.0399575 0)
(5.2605 -0.041739 0)
(5.2746 -0.0435902 0)
(5.28932 -0.0455085 0)
(5.30469 -0.0474981 0)
(5.32074 -0.0495554 0)
(5.33748 -0.0516841 0)
(5.35494 -0.0538797 0)
(5.37315 -0.0561448 0)
(5.39213 -0.0584738 0)
(5.4119 -0.0608678 0)
(5.43248 -0.0633197 0)
(5.45389 -0.065829 0)
(5.47615 -0.0683864 0)
(5.49928 -0.0709893 0)
(5.5233 -0.0736261 0)
(5.54821 -0.0762915 0)
(5.57402 -0.0789713 0)
(5.60075 -0.0816573 0)
(5.62838 -0.0843322 0)
(5.65693 -0.086985 0)
(5.68637 -0.0895954 0)
(5.71669 -0.0921494 0)
(5.74788 -0.0946242 0)
(5.7799 -0.0970039 0)
(5.81272 -0.0992635 0)
(5.8463 -0.101386 0)
(5.88058 -0.103346 0)
(5.91551 -0.105128 0)
(5.95103 -0.106707 0)
(5.98706 -0.108069 0)
(6.02352 -0.109194 0)
(6.06034 -0.110071 0)
(6.09741 -0.110686 0)
(6.13466 -0.111034 0)
(6.17198 -0.111106 0)
(6.20928 -0.110905 0)
(6.24646 -0.11043 0)
(6.28343 -0.109689 0)
(6.3201 -0.108687 0)
(6.35637 -0.10744 0)
(6.39217 -0.105956 0)
(6.42742 -0.104258 0)
(6.46205 -0.102357 0)
(6.49599 -0.100278 0)
(6.52918 -0.098036 0)
(6.56158 -0.0956563 0)
(6.59313 -0.0931548 0)
(6.62381 -0.090557 0)
(6.65359 -0.0878779 0)
(6.68243 -0.085142 0)
(6.71034 -0.0823626 0)
(6.73729 -0.0795623 0)
(6.76329 -0.0767517 0)
(6.78833 -0.0739511 0)
(6.81243 -0.0711682 0)
(6.83559 -0.0684207 0)
(6.85782 -0.0657135 0)
(6.87914 -0.0630619 0)
(6.89958 -0.0604678 0)
(6.91916 -0.0579446 0)
(6.9379 -0.0554917 0)
(6.95582 -0.0531208 0)
(6.97297 -0.0508289 0)
(6.98936 -0.0486266 0)
(7.00502 -0.0465089 0)
(7.02 -0.0444854 0)
(7.03431 -0.0425492 0)
(7.048 -0.0407096 0)
(7.06109 -0.038958 0)
(7.07361 -0.0373032 0)
(7.08559 -0.0357355 0)
(7.09708 -0.0342635 0)
(7.10808 -0.0328764 0)
(7.11865 -0.0315831 0)
(7.12879 -0.0303715 0)
(7.13855 -0.0292514 0)
(7.14796 -0.0282095 0)
(7.15703 -0.0272563 0)
(7.1658 -0.0263776 0)
(7.17428 -0.0255845 0)
(7.18252 -0.0248618 0)
(7.19053 -0.0242209 0)
(7.19835 -0.0236455 0)
(7.20598 -0.0231474 0)
(7.21346 -0.0227083 0)
(7.22081 -0.0223402 0)
(7.22805 -0.022023 0)
(7.2352 -0.0217685 0)
(7.24227 -0.0215545 0)
(7.24929 -0.0213931 0)
(7.25626 -0.02126 0)
(7.2632 -0.0211682 0)
(7.27012 -0.021092 0)
(7.27702 -0.0210463 0)
(7.28391 -0.0210049 0)
(7.29079 -0.0209859 0)
(7.29767 -0.0209636 0)
(7.30454 -0.0209611 0)
(7.3114 -0.0209539 0)
(7.31826 -0.0209714 0)
(7.32511 -0.0209908 0)
(7.33196 -0.021049 0)
(7.33883 -0.0211242 0)
(7.34571 -0.0212613 0)
(7.35263 -0.0214389 0)
(7.35959 -0.0217089 0)
(7.36665 -0.0220489 0)
(7.3738 -0.0225168 0)
(7.38111 -0.0230865 0)
(7.3886 -0.0238201 0)
(7.39635 -0.0246851 0)
(7.40439 -0.0257452 0)
(7.4128 -0.0269587 0)
(7.42162 -0.0283873 0)
(7.43094 -0.0299774 0)
(7.44082 -0.0317853 0)
(7.45132 -0.0337432 0)
(7.46251 -0.0358984 0)
(7.47445 -0.0381678 0)
(7.4872 -0.0405874 0)
(7.50077 -0.0430592 0)
(7.51522 -0.0456069 0)
(7.53054 -0.0481211 0)
(7.54675 -0.0506142 0)
(7.56379 -0.0529716 0)
(7.58168 -0.0551976 0)
(7.60028 -0.0571813 0)
(7.61958 -0.0589241 0)
(7.63942 -0.0603288 0)
(7.65975 -0.0614 0)
(7.68037 -0.0620634 0)
(7.70121 -0.0623315 0)
(7.72205 -0.0621596 0)
(7.74282 -0.0615702 0)
(7.76328 -0.0605515 0)
(7.78338 -0.0591353 0)
(7.80291 -0.0573405 0)
(7.82182 -0.0552048 0)
(7.83992 -0.0527734 0)
(7.85719 -0.0500839 0)
(7.8735 -0.0472015 0)
(7.88883 -0.0441589 0)
(7.90309 -0.0410309 0)
(7.91627 -0.0378396 0)
(7.9284 -0.0346606 0)
(7.93927 -0.0315316 0)
(7.94936 -0.0283788 0)
(7.9581 -0.0258293 0)
(7.96937 -0.021291 0)
(5.00001 -0.000366849 0)
(5.00014 -0.00109919 0)
(5.0004 -0.00183297 0)
(5.00081 -0.00256768 0)
(5.00138 -0.0033041 0)
(5.00209 -0.00404283 0)
(5.00295 -0.00478433 0)
(5.00395 -0.00552917 0)
(5.00511 -0.00627815 0)
(5.00641 -0.00703202 0)
(5.00786 -0.00779181 0)
(5.00946 -0.00855848 0)
(5.01122 -0.0093333 0)
(5.01313 -0.0101175 0)
(5.01519 -0.0109125 0)
(5.01741 -0.0117198 0)
(5.01979 -0.0125411 0)
(5.02233 -0.013378 0)
(5.02504 -0.0142327 0)
(5.02792 -0.0151067 0)
(5.03096 -0.0160025 0)
(5.03419 -0.0169219 0)
(5.0376 -0.0178674 0)
(5.0412 -0.0188412 0)
(5.04499 -0.0198458 0)
(5.04897 -0.0208836 0)
(5.05317 -0.0219573 0)
(5.05758 -0.0230695 0)
(5.0622 -0.0242231 0)
(5.06706 -0.0254208 0)
(5.07216 -0.0266656 0)
(5.0775 -0.0279602 0)
(5.0831 -0.0293081 0)
(5.08898 -0.0307119 0)
(5.09513 -0.0321751 0)
(5.10157 -0.0337007 0)
(5.10832 -0.0352921 0)
(5.11539 -0.0369523 0)
(5.12279 -0.038685 0)
(5.13054 -0.0404931 0)
(5.13865 -0.0423804 0)
(5.14713 -0.0443497 0)
(5.15602 -0.046405 0)
(5.16532 -0.048549 0)
(5.17505 -0.0507856 0)
(5.18522 -0.0531175 0)
(5.19587 -0.0555483 0)
(5.20701 -0.0580807 0)
(5.21866 -0.0607181 0)
(5.23085 -0.0634628 0)
(5.24358 -0.0663178 0)
(5.2569 -0.069285 0)
(5.27081 -0.072367 0)
(5.28535 -0.0755648 0)
(5.30054 -0.0788802 0)
(5.31641 -0.0823132 0)
(5.33297 -0.0858645 0)
(5.35025 -0.0895326 0)
(5.36829 -0.0933165 0)
(5.3871 -0.0972129 0)
(5.4067 -0.101218 0)
(5.42713 -0.105327 0)
(5.4484 -0.109534 0)
(5.47055 -0.113828 0)
(5.49357 -0.1182 0)
(5.51751 -0.122638 0)
(5.54236 -0.127127 0)
(5.56815 -0.131648 0)
(5.59489 -0.136184 0)
(5.62257 -0.14071 0)
(5.6512 -0.145203 0)
(5.68078 -0.149633 0)
(5.71129 -0.153972 0)
(5.74271 -0.158185 0)
(5.77503 -0.16224 0)
(5.8082 -0.166099 0)
(5.84218 -0.169726 0)
(5.87693 -0.173084 0)
(5.91238 -0.176136 0)
(5.94847 -0.178848 0)
(5.98512 -0.181186 0)
(6.02224 -0.183121 0)
(6.05975 -0.184629 0)
(6.09754 -0.185688 0)
(6.13552 -0.186286 0)
(6.17359 -0.186412 0)
(6.21163 -0.186065 0)
(6.24954 -0.185249 0)
(6.28723 -0.183975 0)
(6.32458 -0.182257 0)
(6.36151 -0.180117 0)
(6.39793 -0.177578 0)
(6.43374 -0.174671 0)
(6.46889 -0.171426 0)
(6.50329 -0.167876 0)
(6.53689 -0.164057 0)
(6.56964 -0.160002 0)
(6.6015 -0.155748 0)
(6.63242 -0.151331 0)
(6.66239 -0.146782 0)
(6.69138 -0.142137 0)
(6.71937 -0.137426 0)
(6.74637 -0.132679 0)
(6.77237 -0.127923 0)
(6.79738 -0.123184 0)
(6.82141 -0.118484 0)
(6.84446 -0.113845 0)
(6.86657 -0.109285 0)
(6.88775 -0.104821 0)
(6.90802 -0.100464 0)
(6.92741 -0.096229 0)
(6.94594 -0.0921233 0)
(6.96366 -0.0881561 0)
(6.98058 -0.0843321 0)
(6.99674 -0.0806573 0)
(7.01218 -0.0771336 0)
(7.02691 -0.0737643 0)
(7.04099 -0.0705492 0)
(7.05444 -0.0674898 0)
(7.06728 -0.0645842 0)
(7.07957 -0.0618328 0)
(7.09132 -0.0592326 0)
(7.10256 -0.0567833 0)
(7.11334 -0.0544811 0)
(7.12367 -0.0523257 0)
(7.1336 -0.050313 0)
(7.14313 -0.0484424 0)
(7.15232 -0.0467099 0)
(7.16117 -0.0451151 0)
(7.16973 -0.0436537 0)
(7.17801 -0.0423252 0)
(7.18605 -0.0411251 0)
(7.19386 -0.0400522 0)
(7.20148 -0.0391013 0)
(7.20893 -0.0382699 0)
(7.21624 -0.0375516 0)
(7.22343 -0.0369421 0)
(7.23051 -0.0364329 0)
(7.23752 -0.036018 0)
(7.24447 -0.0356862 0)
(7.25138 -0.0354303 0)
(7.25826 -0.0352367 0)
(7.26512 -0.0350978 0)
(7.27198 -0.0349988 0)
(7.27884 -0.0349335 0)
(7.2857 -0.0348875 0)
(7.29255 -0.0348585 0)
(7.29941 -0.0348346 0)
(7.30626 -0.0348199 0)
(7.31311 -0.0348072 0)
(7.31993 -0.0348089 0)
(7.32675 -0.0348241 0)
(7.33353 -0.0348746 0)
(7.3403 -0.0349666 0)
(7.34705 -0.0351305 0)
(7.3538 -0.0353794 0)
(7.36055 -0.0357505 0)
(7.36735 -0.0362625 0)
(7.3742 -0.0369557 0)
(7.38116 -0.0378519 0)
(7.38826 -0.0389901 0)
(7.39558 -0.0403919 0)
(7.40315 -0.0420892 0)
(7.41107 -0.0440992 0)
(7.41938 -0.0464403 0)
(7.4282 -0.0491202 0)
(7.43757 -0.052138 0)
(7.44761 -0.0554859 0)
(7.45837 -0.059139 0)
(7.46995 -0.0630692 0)
(7.48241 -0.0672246 0)
(7.4958 -0.0715539 0)
(7.51019 -0.0759799 0)
(7.52556 -0.0804289 0)
(7.54198 -0.0848042 0)
(7.55936 -0.0890158 0)
(7.57773 -0.0929587 0)
(7.59697 -0.0965372 0)
(7.61704 -0.0996536 0)
(7.63776 -0.10222 0)
(7.65907 -0.104164 0)
(7.68075 -0.105418 0)
(7.7027 -0.105945 0)
(7.72466 -0.105714 0)
(7.74654 -0.104728 0)
(7.76809 -0.102991 0)
(7.78921 -0.100548 0)
(7.80967 -0.0974371 0)
(7.8294 -0.0937362 0)
(7.84821 -0.0895076 0)
(7.86606 -0.0848502 0)
(7.88281 -0.0798416 0)
(7.89845 -0.0745884 0)
(7.91288 -0.0691677 0)
(7.9261 -0.063686 0)
(7.93814 -0.0582065 0)
(7.94885 -0.052858 0)
(7.95861 -0.0474945 0)
(7.96713 -0.0431179 0)
(7.97771 -0.0355158 0)
(5.00001 -0.000512697 0)
(5.00014 -0.00153598 0)
(5.00039 -0.00256114 0)
(5.00081 -0.00358736 0)
(5.00137 -0.00461553 0)
(5.00208 -0.00564653 0)
(5.00293 -0.00668086 0)
(5.00392 -0.00771937 0)
(5.00507 -0.00876306 0)
(5.00636 -0.00981308 0)
(5.0078 -0.0108708 0)
(5.00938 -0.0119376 0)
(5.01112 -0.0130151 0)
(5.013 -0.0141052 0)
(5.01504 -0.0152098 0)
(5.01723 -0.0163311 0)
(5.01957 -0.0174714 0)
(5.02208 -0.018633 0)
(5.02474 -0.0198187 0)
(5.02757 -0.0210312 0)
(5.03057 -0.0222733 0)
(5.03374 -0.0235481 0)
(5.03708 -0.0248589 0)
(5.04061 -0.0262088 0)
(5.04432 -0.0276013 0)
(5.04823 -0.0290399 0)
(5.05234 -0.0305284 0)
(5.05665 -0.0320703 0)
(5.06118 -0.0336698 0)
(5.06593 -0.0353306 0)
(5.07091 -0.0370569 0)
(5.07613 -0.0388528 0)
(5.08161 -0.0407227 0)
(5.08734 -0.0426707 0)
(5.09335 -0.0447013 0)
(5.09964 -0.046819 0)
(5.10623 -0.0490284 0)
(5.11313 -0.051334 0)
(5.12036 -0.0537405 0)
(5.12792 -0.0562527 0)
(5.13584 -0.0588752 0)
(5.14413 -0.0616129 0)
(5.15281 -0.0644705 0)
(5.16189 -0.0674528 0)
(5.1714 -0.0705645 0)
(5.18135 -0.0738103 0)
(5.19176 -0.077195 0)
(5.20265 -0.0807229 0)
(5.21405 -0.0843984 0)
(5.22598 -0.0882258 0)
(5.23845 -0.092209 0)
(5.25149 -0.0963515 0)
(5.26514 -0.100657 0)
(5.2794 -0.105127 0)
(5.29431 -0.109765 0)
(5.30989 -0.114573 0)
(5.32618 -0.11955 0)
(5.34319 -0.124696 0)
(5.36095 -0.13001 0)
(5.37949 -0.135489 0)
(5.39885 -0.141128 0)
(5.41904 -0.146922 0)
(5.44009 -0.152861 0)
(5.46203 -0.158934 0)
(5.48489 -0.165129 0)
(5.50868 -0.171428 0)
(5.53344 -0.177811 0)
(5.55918 -0.184255 0)
(5.5859 -0.190732 0)
(5.61364 -0.197211 0)
(5.64239 -0.203656 0)
(5.67216 -0.210028 0)
(5.70293 -0.216282 0)
(5.7347 -0.222371 0)
(5.76745 -0.228245 0)
(5.80114 -0.233849 0)
(5.83574 -0.239128 0)
(5.87119 -0.244026 0)
(5.90744 -0.248487 0)
(5.94441 -0.252458 0)
(5.98201 -0.255888 0)
(6.02015 -0.258731 0)
(6.05874 -0.260949 0)
(6.09765 -0.26251 0)
(6.13679 -0.263392 0)
(6.17601 -0.263581 0)
(6.21522 -0.263075 0)
(6.25427 -0.261878 0)
(6.29307 -0.260009 0)
(6.33149 -0.25749 0)
(6.36942 -0.254356 0)
(6.40678 -0.250646 0)
(6.44346 -0.246403 0)
(6.4794 -0.241676 0)
(6.5145 -0.236517 0)
(6.54872 -0.230979 0)
(6.582 -0.225114 0)
(6.6143 -0.218974 0)
(6.64559 -0.212612 0)
(6.67584 -0.206076 0)
(6.70503 -0.199413 0)
(6.73315 -0.192667 0)
(6.76021 -0.18588 0)
(6.78621 -0.179089 0)
(6.81115 -0.172332 0)
(6.83506 -0.165638 0)
(6.85795 -0.159038 0)
(6.87985 -0.152556 0)
(6.90078 -0.146217 0)
(6.92078 -0.140038 0)
(6.93986 -0.134037 0)
(6.95808 -0.128227 0)
(6.97545 -0.122621 0)
(6.99202 -0.117225 0)
(7.00782 -0.112046 0)
(7.02289 -0.107089 0)
(7.03726 -0.102355 0)
(7.05097 -0.0978464 0)
(7.06404 -0.093562 0)
(7.07652 -0.0894997 0)
(7.08844 -0.085658 0)
(7.09984 -0.0820328 0)
(7.11073 -0.0786215 0)
(7.12116 -0.0754196 0)
(7.13115 -0.0724239 0)
(7.14074 -0.06963 0)
(7.14995 -0.0670348 0)
(7.15881 -0.0646346 0)
(7.16734 -0.0624264 0)
(7.17559 -0.0604072 0)
(7.18356 -0.0585739 0)
(7.1913 -0.0569238 0)
(7.19882 -0.0554532 0)
(7.20615 -0.0541585 0)
(7.21333 -0.053034 0)
(7.22038 -0.0520742 0)
(7.22731 -0.0512704 0)
(7.23417 -0.0506136 0)
(7.24097 -0.0500915 0)
(7.24773 -0.0496909 0)
(7.25448 -0.0493961 0)
(7.26123 -0.0491898 0)
(7.26798 -0.0490552 0)
(7.27476 -0.048972 0)
(7.28156 -0.0489252 0)
(7.28838 -0.0488947 0)
(7.29522 -0.0488715 0)
(7.30208 -0.0488393 0)
(7.30893 -0.0487989 0)
(7.31576 -0.0487418 0)
(7.32257 -0.0486817 0)
(7.32933 -0.0486205 0)
(7.33603 -0.0485866 0)
(7.34268 -0.0485938 0)
(7.34925 -0.0486836 0)
(7.35576 -0.0488819 0)
(7.3622 -0.04924 0)
(7.36862 -0.0497939 0)
(7.37501 -0.0505994 0)
(7.38144 -0.0516995 0)
(7.38793 -0.0531473 0)
(7.39457 -0.0549883 0)
(7.4014 -0.0572644 0)
(7.40854 -0.0600175 0)
(7.41603 -0.063269 0)
(7.42401 -0.067049 0)
(7.43256 -0.0713488 0)
(7.44181 -0.0761775 0)
(7.45185 -0.0814882 0)
(7.4628 -0.0872599 0)
(7.47475 -0.093402 0)
(7.48779 -0.0998569 0)
(7.50201 -0.106492 0)
(7.51743 -0.113212 0)
(7.53411 -0.11985 0)
(7.552 -0.126281 0)
(7.57113 -0.132325 0)
(7.59136 -0.137842 0)
(7.61265 -0.142663 0)
(7.63479 -0.146656 0)
(7.6577 -0.149695 0)
(7.68109 -0.151682 0)
(7.70483 -0.15255 0)
(7.72863 -0.152255 0)
(7.75233 -0.150802 0)
(7.77562 -0.148201 0)
(7.79839 -0.144529 0)
(7.82035 -0.139843 0)
(7.84141 -0.134277 0)
(7.86134 -0.127922 0)
(7.8801 -0.120944 0)
(7.89752 -0.113455 0)
(7.91361 -0.105632 0)
(7.92826 -0.0975809 0)
(7.9415 -0.0894817 0)
(7.95335 -0.0814156 0)
(7.96371 -0.0735865 0)
(7.97289 -0.0657874 0)
(7.98099 -0.059445 0)
(7.99031 -0.0485515 0)
(5.00001 -0.000657508 0)
(5.00014 -0.00196968 0)
(5.00039 -0.00328408 0)
(5.0008 -0.00459951 0)
(5.00136 -0.00591689 0)
(5.00206 -0.0072372 0)
(5.0029 -0.00856101 0)
(5.00389 -0.00988932 0)
(5.00502 -0.0112233 0)
(5.0063 -0.0125645 0)
(5.00772 -0.0139145 0)
(5.00928 -0.0152752 0)
(5.01099 -0.0166486 0)
(5.01285 -0.018037 0)
(5.01485 -0.019443 0)
(5.017 -0.0208693 0)
(5.0193 -0.0223189 0)
(5.02176 -0.023795 0)
(5.02437 -0.0253009 0)
(5.02713 -0.0268401 0)
(5.03006 -0.0284165 0)
(5.03315 -0.030034 0)
(5.03642 -0.0316967 0)
(5.03985 -0.0334089 0)
(5.04347 -0.0351751 0)
(5.04727 -0.0369999 0)
(5.05126 -0.038888 0)
(5.05545 -0.0408444 0)
(5.05984 -0.0428741 0)
(5.06445 -0.0449823 0)
(5.06928 -0.0471743 0)
(5.07434 -0.0494555 0)
(5.07965 -0.0518314 0)
(5.0852 -0.0543077 0)
(5.09102 -0.05689 0)
(5.09711 -0.0595841 0)
(5.10349 -0.062396 0)
(5.11017 -0.0653316 0)
(5.11716 -0.068397 0)
(5.12448 -0.0715981 0)
(5.13215 -0.0749412 0)
(5.14017 -0.0784325 0)
(5.14858 -0.0820781 0)
(5.15737 -0.0858844 0)
(5.16658 -0.0898574 0)
(5.17623 -0.0940034 0)
(5.18632 -0.0983286 0)
(5.19688 -0.102839 0)
(5.20795 -0.10754 0)
(5.21952 -0.112439 0)
(5.23164 -0.117539 0)
(5.24432 -0.122848 0)
(5.25759 -0.128368 0)
(5.27148 -0.134105 0)
(5.28601 -0.140063 0)
(5.3012 -0.146244 0)
(5.3171 -0.15265 0)
(5.33373 -0.159282 0)
(5.35111 -0.166139 0)
(5.36928 -0.17322 0)
(5.38827 -0.18052 0)
(5.40812 -0.188032 0)
(5.42885 -0.195748 0)
(5.4505 -0.203656 0)
(5.47309 -0.211739 0)
(5.49667 -0.219979 0)
(5.52126 -0.228351 0)
(5.54688 -0.236825 0)
(5.57356 -0.245369 0)
(5.60133 -0.253942 0)
(5.6302 -0.262497 0)
(5.66018 -0.270982 0)
(5.69128 -0.279339 0)
(5.72349 -0.287504 0)
(5.7568 -0.295405 0)
(5.79118 -0.302969 0)
(5.82661 -0.310118 0)
(5.86302 -0.31677 0)
(5.90035 -0.322846 0)
(5.93853 -0.328267 0)
(5.97746 -0.332961 0)
(6.01703 -0.336859 0)
(6.05713 -0.339905 0)
(6.09763 -0.342053 0)
(6.13838 -0.34327 0)
(6.17925 -0.343536 0)
(6.22009 -0.342849 0)
(6.26076 -0.341216 0)
(6.30112 -0.338664 0)
(6.34103 -0.335227 0)
(6.38037 -0.330954 0)
(6.41903 -0.3259 0)
(6.45691 -0.320132 0)
(6.49391 -0.313717 0)
(6.52996 -0.306732 0)
(6.565 -0.29925 0)
(6.59898 -0.291348 0)
(6.63185 -0.283101 0)
(6.66359 -0.27458 0)
(6.69418 -0.265852 0)
(6.72361 -0.256984 0)
(6.75188 -0.248033 0)
(6.77899 -0.239055 0)
(6.80495 -0.230098 0)
(6.82979 -0.221207 0)
(6.85352 -0.212423 0)
(6.87618 -0.20378 0)
(6.89778 -0.19531 0)
(6.91837 -0.18704 0)
(6.93799 -0.178993 0)
(6.95666 -0.171189 0)
(6.97443 -0.163645 0)
(6.99134 -0.156373 0)
(7.00742 -0.149384 0)
(7.02273 -0.142685 0)
(7.03729 -0.13628 0)
(7.05115 -0.130172 0)
(7.06435 -0.124361 0)
(7.07692 -0.118846 0)
(7.0889 -0.113623 0)
(7.10033 -0.108689 0)
(7.11124 -0.104037 0)
(7.12166 -0.0996625 0)
(7.13162 -0.0955594 0)
(7.14115 -0.0917223 0)
(7.15029 -0.0881447 0)
(7.15906 -0.0848221 0)
(7.16748 -0.0817493 0)
(7.17559 -0.0789228 0)
(7.18342 -0.076339 0)
(7.19097 -0.0739952 0)
(7.1983 -0.0718893 0)
(7.20542 -0.0700181 0)
(7.21237 -0.0683798 0)
(7.21916 -0.066969 0)
(7.22584 -0.0657816 0)
(7.23243 -0.0648076 0)
(7.23897 -0.0640379 0)
(7.24548 -0.0634559 0)
(7.25199 -0.063045 0)
(7.25852 -0.0627821 0)
(7.2651 -0.0626423 0)
(7.27173 -0.0625977 0)
(7.27842 -0.0626176 0)
(7.28518 -0.0626747 0)
(7.29201 -0.0627365 0)
(7.29888 -0.0627833 0)
(7.30578 -0.0627877 0)
(7.31269 -0.0627444 0)
(7.31959 -0.0626378 0)
(7.32643 -0.0624826 0)
(7.3332 -0.0622797 0)
(7.33985 -0.0620666 0)
(7.34639 -0.0618628 0)
(7.35276 -0.0617272 0)
(7.35899 -0.0616978 0)
(7.36504 -0.0618497 0)
(7.37095 -0.062237 0)
(7.37672 -0.062943 0)
(7.38242 -0.0640336 0)
(7.38805 -0.0655907 0)
(7.39373 -0.0676857 0)
(7.39949 -0.070387 0)
(7.40548 -0.0737634 0)
(7.41176 -0.0778564 0)
(7.4185 -0.0827207 0)
(7.4258 -0.088356 0)
(7.43383 -0.0947887 0)
(7.44274 -0.101962 0)
(7.45267 -0.10986 0)
(7.46379 -0.118359 0)
(7.47621 -0.127384 0)
(7.49008 -0.136747 0)
(7.50545 -0.146312 0)
(7.52244 -0.155832 0)
(7.54101 -0.165121 0)
(7.56119 -0.173902 0)
(7.58284 -0.181962 0)
(7.60591 -0.189039 0)
(7.63014 -0.194931 0)
(7.65539 -0.199436 0)
(7.68132 -0.202409 0)
(7.70774 -0.203747 0)
(7.73424 -0.203387 0)
(7.76062 -0.201341 0)
(7.78648 -0.197635 0)
(7.81164 -0.192388 0)
(7.83576 -0.185698 0)
(7.85871 -0.177767 0)
(7.88022 -0.16874 0)
(7.90023 -0.158863 0)
(7.91856 -0.148307 0)
(7.93522 -0.137328 0)
(7.9501 -0.126088 0)
(7.96326 -0.114842 0)
(7.97472 -0.10371 0)
(7.98447 -0.0929761 0)
(7.99271 -0.0823829 0)
(8.00013 -0.0738122 0)
(8.00758 -0.0593544 0)
(5.00001 -0.000801358 0)
(5.00013 -0.00240051 0)
(5.00039 -0.00400208 0)
(5.0008 -0.00560432 0)
(5.00135 -0.00720808 0)
(5.00205 -0.00881431 0)
(5.00288 -0.0104236 0)
(5.00386 -0.0120369 0)
(5.00498 -0.0136557 0)
(5.00624 -0.0152817 0)
(5.00764 -0.0169167 0)
(5.00918 -0.018563 0)
(5.01086 -0.0202231 0)
(5.01269 -0.0218999 0)
(5.01465 -0.0235964 0)
(5.01676 -0.0253161 0)
(5.019 -0.0270627 0)
(5.0214 -0.0288399 0)
(5.02394 -0.0306521 0)
(5.02663 -0.0325035 0)
(5.02948 -0.0343989 0)
(5.03248 -0.036343 0)
(5.03564 -0.0383409 0)
(5.03896 -0.0403978 0)
(5.04245 -0.0425192 0)
(5.04612 -0.0447107 0)
(5.04997 -0.0469782 0)
(5.05401 -0.0493276 0)
(5.05823 -0.0517651 0)
(5.06267 -0.0542971 0)
(5.06731 -0.0569301 0)
(5.07217 -0.0596707 0)
(5.07726 -0.0625258 0)
(5.08259 -0.0655024 0)
(5.08816 -0.0686076 0)
(5.094 -0.0718486 0)
(5.10012 -0.0752327 0)
(5.10652 -0.0787674 0)
(5.11322 -0.0824602 0)
(5.12024 -0.0863189 0)
(5.12759 -0.0903511 0)
(5.13528 -0.0945645 0)
(5.14334 -0.098967 0)
(5.15177 -0.103567 0)
(5.16061 -0.108371 0)
(5.16987 -0.113388 0)
(5.17956 -0.118626 0)
(5.18971 -0.124092 0)
(5.20035 -0.129794 0)
(5.21149 -0.13574 0)
(5.22315 -0.141936 0)
(5.23537 -0.148391 0)
(5.24817 -0.155111 0)
(5.26157 -0.162102 0)
(5.27561 -0.16937 0)
(5.29031 -0.17692 0)
(5.30571 -0.184755 0)
(5.32184 -0.19288 0)
(5.33872 -0.201294 0)
(5.3564 -0.209999 0)
(5.37491 -0.218991 0)
(5.39428 -0.228265 0)
(5.41457 -0.237814 0)
(5.4358 -0.247625 0)
(5.45802 -0.257683 0)
(5.48126 -0.267967 0)
(5.50557 -0.278451 0)
(5.53099 -0.289101 0)
(5.55755 -0.299878 0)
(5.58529 -0.310735 0)
(5.61424 -0.321614 0)
(5.64443 -0.332452 0)
(5.67588 -0.343172 0)
(5.70859 -0.353693 0)
(5.74258 -0.363921 0)
(5.77781 -0.373756 0)
(5.81426 -0.383091 0)
(5.8519 -0.391813 0)
(5.89064 -0.399811 0)
(5.93041 -0.40697 0)
(5.97109 -0.413186 0)
(6.01257 -0.418359 0)
(6.05469 -0.422406 0)
(6.0973 -0.42526 0)
(6.14023 -0.426874 0)
(6.18331 -0.427224 0)
(6.22634 -0.426306 0)
(6.26916 -0.42414 0)
(6.3116 -0.420763 0)
(6.3535 -0.416231 0)
(6.3947 -0.410612 0)
(6.43508 -0.403987 0)
(6.47452 -0.396446 0)
(6.51292 -0.388085 0)
(6.5502 -0.379005 0)
(6.58629 -0.369306 0)
(6.62115 -0.35909 0)
(6.65473 -0.348456 0)
(6.68702 -0.337501 0)
(6.718 -0.326314 0)
(6.74769 -0.314981 0)
(6.77608 -0.303578 0)
(6.8032 -0.292179 0)
(6.82908 -0.280845 0)
(6.85373 -0.269633 0)
(6.87719 -0.258593 0)
(6.8995 -0.247766 0)
(6.92071 -0.237189 0)
(6.94084 -0.226892 0)
(6.95995 -0.216902 0)
(6.97808 -0.20724 0)
(6.99528 -0.197921 0)
(7.01159 -0.188959 0)
(7.02705 -0.180364 0)
(7.04173 -0.172143 0)
(7.05565 -0.164298 0)
(7.06887 -0.15683 0)
(7.08142 -0.149738 0)
(7.09336 -0.143018 0)
(7.10471 -0.136664 0)
(7.11551 -0.130669 0)
(7.12581 -0.125026 0)
(7.13564 -0.119725 0)
(7.14502 -0.114756 0)
(7.15398 -0.110113 0)
(7.16256 -0.105786 0)
(7.17078 -0.101769 0)
(7.17866 -0.098055 0)
(7.18624 -0.0946402 0)
(7.19353 -0.0915209 0)
(7.20057 -0.0886949 0)
(7.20737 -0.0861613 0)
(7.21397 -0.0839184 0)
(7.2204 -0.0819665 0)
(7.22668 -0.0803015 0)
(7.23287 -0.0789219 0)
(7.23898 -0.0778179 0)
(7.24506 -0.0769816 0)
(7.25115 -0.0763938 0)
(7.25728 -0.0760356 0)
(7.26349 -0.0758762 0)
(7.26981 -0.0758828 0)
(7.27625 -0.0760148 0)
(7.28283 -0.0762273 0)
(7.28954 -0.0764762 0)
(7.29639 -0.0767113 0)
(7.30334 -0.076896 0)
(7.31037 -0.0769852 0)
(7.31744 -0.0769619 0)
(7.3245 -0.076797 0)
(7.33149 -0.0765032 0)
(7.33836 -0.0760758 0)
(7.34506 -0.0755619 0)
(7.35154 -0.0749852 0)
(7.35775 -0.0744255 0)
(7.36368 -0.0739345 0)
(7.36929 -0.0736177 0)
(7.37459 -0.0735513 0)
(7.37957 -0.0738557 0)
(7.38429 -0.0746263 0)
(7.38877 -0.0759857 0)
(7.39312 -0.0780411 0)
(7.39739 -0.080902 0)
(7.40174 -0.0846772 0)
(7.40626 -0.0894447 0)
(7.41116 -0.0952994 0)
(7.41657 -0.102265 0)
(7.42273 -0.110402 0)
(7.42984 -0.119655 0)
(7.43812 -0.130022 0)
(7.4478 -0.141351 0)
(7.45908 -0.153553 0)
(7.47217 -0.16637 0)
(7.48722 -0.179611 0)
(7.50437 -0.192925 0)
(7.52365 -0.206031 0)
(7.5451 -0.218522 0)
(7.56859 -0.230065 0)
(7.59404 -0.240261 0)
(7.62112 -0.248794 0)
(7.64963 -0.255355 0)
(7.6791 -0.259719 0)
(7.70923 -0.261738 0)
(7.73951 -0.261324 0)
(7.7696 -0.258508 0)
(7.799 -0.253348 0)
(7.82744 -0.246032 0)
(7.85449 -0.236722 0)
(7.87996 -0.225722 0)
(7.90355 -0.213259 0)
(7.92517 -0.199687 0)
(7.94464 -0.185264 0)
(7.96195 -0.170344 0)
(7.97702 -0.155166 0)
(7.98994 -0.140082 0)
(8.00075 -0.125257 0)
(8.00952 -0.111076 0)
(8.01633 -0.0972365 0)
(8.0227 -0.0861088 0)
(8.02725 -0.0677269 0)
(5.00001 -0.00094455 0)
(5.00013 -0.00282936 0)
(5.00039 -0.00471648 0)
(5.00079 -0.0066035 0)
(5.00135 -0.00849095 0)
(5.00204 -0.0103796 0)
(5.00287 -0.01227 0)
(5.00384 -0.014163 0)
(5.00495 -0.0160602 0)
(5.00619 -0.0179633 0)
(5.00757 -0.0198745 0)
(5.00909 -0.0217965 0)
(5.01074 -0.0237321 0)
(5.01253 -0.0256848 0)
(5.01445 -0.0276582 0)
(5.01651 -0.0296564 0)
(5.0187 -0.0316839 0)
(5.02102 -0.0337455 0)
(5.02349 -0.0358462 0)
(5.02609 -0.0379915 0)
(5.02884 -0.0401869 0)
(5.03173 -0.0424384 0)
(5.03477 -0.0447522 0)
(5.03797 -0.0471346 0)
(5.04132 -0.0495922 0)
(5.04483 -0.0521318 0)
(5.04851 -0.0547604 0)
(5.05237 -0.0574849 0)
(5.0564 -0.0603129 0)
(5.06063 -0.0632517 0)
(5.06505 -0.066309 0)
(5.06967 -0.0694927 0)
(5.07451 -0.0728107 0)
(5.07957 -0.0762711 0)
(5.08487 -0.0798824 0)
(5.09041 -0.083653 0)
(5.09621 -0.0875915 0)
(5.10228 -0.0917067 0)
(5.10864 -0.0960076 0)
(5.11529 -0.100503 0)
(5.12225 -0.105203 0)
(5.12955 -0.110116 0)
(5.13719 -0.115251 0)
(5.1452 -0.120619 0)
(5.15358 -0.126228 0)
(5.16237 -0.13209 0)
(5.17158 -0.138212 0)
(5.18123 -0.144605 0)
(5.19135 -0.151279 0)
(5.20195 -0.158243 0)
(5.21306 -0.165507 0)
(5.22472 -0.17308 0)
(5.23693 -0.180972 0)
(5.24974 -0.189192 0)
(5.26317 -0.197747 0)
(5.27725 -0.206647 0)
(5.29202 -0.215897 0)
(5.30751 -0.225505 0)
(5.32375 -0.235475 0)
(5.34079 -0.245809 0)
(5.35867 -0.25651 0)
(5.37743 -0.267576 0)
(5.39711 -0.279001 0)
(5.41777 -0.290777 0)
(5.43945 -0.302891 0)
(5.4622 -0.315323 0)
(5.48608 -0.328048 0)
(5.51115 -0.341031 0)
(5.53746 -0.354232 0)
(5.56505 -0.367595 0)
(5.594 -0.381056 0)
(5.62433 -0.394539 0)
(5.6561 -0.407953 0)
(5.68934 -0.421193 0)
(5.72406 -0.434139 0)
(5.76027 -0.44666 0)
(5.79796 -0.458612 0)
(5.83708 -0.469841 0)
(5.87758 -0.480188 0)
(5.91937 -0.489494 0)
(5.96232 -0.497605 0)
(6.00627 -0.504377 0)
(6.05105 -0.509686 0)
(6.09646 -0.513433 0)
(6.14227 -0.515547 0)
(6.18825 -0.515991 0)
(6.23418 -0.514766 0)
(6.27982 -0.511903 0)
(6.32497 -0.507463 0)
(6.36943 -0.501534 0)
(6.41302 -0.494224 0)
(6.4556 -0.485653 0)
(6.49703 -0.475951 0)
(6.5372 -0.465254 0)
(6.57602 -0.453698 0)
(6.61342 -0.441417 0)
(6.64937 -0.428542 0)
(6.68381 -0.415198 0)
(6.71676 -0.401504 0)
(6.74819 -0.387572 0)