/*--------------------------------*- C++ -*----------------------------------*\
  =========                 |
  \\      /  F ield         | OpenFOAM: The Open Source CFD Toolbox
   \\    /   O peration     | Website:  https://openfoam.org
    \\  /    A nd           | Version:  10
     \\/     M anipulation  |
\*---------------------------------------------------------------------------*/
FoamFile
{
    format      ascii;
    class       surfaceScalarField;
    location    "5100";
    object      phi;
}
// * * * * * * * * * * * * * * * * * * * * * * * * * * * * * * * * * * * * * //

dimensions      [0 3 -1 0 0 0 0];

internalField   nonuniform List<scalar> 
12640
(
-7.30594e-09
7.30594e-09
-1.46017e-08
7.29581e-09
-2.18769e-08
7.27515e-09
-2.91201e-08
7.24318e-09
-3.63188e-08
7.19868e-09
-4.34587e-08
7.13999e-09
-5.05237e-08
7.065e-09
-5.74948e-08
6.97108e-09
-6.43499e-08
6.85504e-09
-7.1063e-08
6.71313e-09
-7.76039e-08
6.54092e-09
-8.39372e-08
6.3333e-09
-9.00217e-08
6.08446e-09
-9.58095e-08
5.78779e-09
-1.01245e-07
5.43596e-09
-1.06266e-07
5.02092e-09
-1.108e-07
4.53398e-09
-1.14766e-07
3.96601e-09
-1.18074e-07
3.30767e-09
-1.20624e-07
2.54985e-09
-1.22308e-07
1.68422e-09
-1.23012e-07
7.03964e-10
-1.22617e-07
-3.95216e-10
-1.21003e-07
-1.61392e-09
-1.18055e-07
-2.9477e-09
-1.1367e-07
-4.38552e-09
-1.07761e-07
-5.90834e-09
-1.00273e-07
-7.48787e-09
-9.11876e-08
-9.08591e-09
-8.0533e-08
-1.06545e-08
-6.83956e-08
-1.21374e-08
-5.49226e-08
-1.3473e-08
-4.85733e-08
-6.34928e-09
-4.20239e-08
-6.54948e-09
-3.52984e-08
-6.72543e-09
-2.84232e-08
-6.87523e-09
-2.1426e-08
-6.99718e-09
-1.43361e-08
-7.08992e-09
-7.18375e-09
-7.15235e-09
-9.32418e-18
-7.18375e-09
7.18375e-09
-7.18375e-09
1.43361e-08
-7.15235e-09
2.1426e-08
-7.08992e-09
2.84232e-08
-6.99718e-09
3.52984e-08
-6.87523e-09
4.20239e-08
-6.72543e-09
4.85733e-08
-6.54948e-09
5.49226e-08
-6.34928e-09
6.83956e-08
-1.3473e-08
8.0533e-08
-1.21374e-08
9.11876e-08
-1.06545e-08
1.00273e-07
-9.08591e-09
1.07761e-07
-7.48787e-09
1.1367e-07
-5.90834e-09
1.18055e-07
-4.38552e-09
1.21003e-07
-2.9477e-09
1.22617e-07
-1.61392e-09
1.23012e-07
-3.95216e-10
1.22308e-07
7.03964e-10
1.20624e-07
1.68422e-09
1.18074e-07
2.54985e-09
1.14766e-07
3.30767e-09
1.108e-07
3.96601e-09
1.06266e-07
4.53398e-09
1.01245e-07
5.02092e-09
9.58095e-08
5.43596e-09
9.00217e-08
5.78779e-09
8.39372e-08
6.08446e-09
7.76039e-08
6.3333e-09
7.1063e-08
6.54092e-09
6.43499e-08
6.71313e-09
5.74948e-08
6.85504e-09
5.05237e-08
6.97108e-09
4.34587e-08
7.065e-09
3.63188e-08
7.13999e-09
2.91201e-08
7.19868e-09
2.18769e-08
7.24318e-09
1.46017e-08
7.27515e-09
7.30594e-09
7.29581e-09
7.30594e-09
-8.01381e-09
1.53198e-08
-1.60165e-08
1.52985e-08
-2.39966e-08
1.52553e-08
-3.19417e-08
1.51883e-08
-3.98381e-08
1.5095e-08
-4.76702e-08
1.49721e-08
-5.54202e-08
1.4815e-08
-6.30673e-08
1.46182e-08
-7.05873e-08
1.43751e-08
-7.79518e-08
1.40777e-08
-8.51278e-08
1.37168e-08
-9.20763e-08
1.32818e-08
-9.87521e-08
1.27603e-08
-1.05103e-07
1.21386e-08
-1.11068e-07
1.14013e-08
-1.16579e-07
1.05314e-08
-1.21556e-07
9.51082e-09
-1.2591e-07
8.32032e-09
-1.29543e-07
6.94033e-09
-1.32344e-07
5.35172e-09
-1.34197e-07
3.53696e-09
-1.34975e-07
1.48174e-09
-1.34547e-07
-8.23019e-10
-1.32782e-07
-3.37865e-09
-1.29554e-07
-6.17587e-09
-1.24748e-07
-9.19163e-09
-1.1827e-07
-1.23861e-08
-1.10058e-07
-1.56999e-08
-1.00091e-07
-1.9053e-08
-8.84011e-08
-2.23447e-08
-7.50815e-08
-2.5457e-08
-6.0294e-08
-2.82605e-08
-5.33246e-08
-1.33187e-08
-4.61352e-08
-1.37389e-08
-3.87522e-08
-1.41084e-08
-3.12046e-08
-1.44228e-08
-2.35229e-08
-1.46789e-08
-1.57392e-08
-1.48736e-08
-7.88687e-09
-1.50047e-08
-1.12757e-17
-1.50706e-08
7.88687e-09
-1.50706e-08
1.57392e-08
-1.50047e-08
2.35229e-08
-1.48736e-08
3.12046e-08
-1.46789e-08
3.87522e-08
-1.44228e-08
4.61352e-08
-1.41084e-08
5.33246e-08
-1.37389e-08
6.0294e-08
-1.33187e-08
7.50815e-08
-2.82605e-08
8.84011e-08
-2.5457e-08
1.00091e-07
-2.23447e-08
1.10058e-07
-1.9053e-08
1.1827e-07
-1.56999e-08
1.24748e-07
-1.23861e-08
1.29554e-07
-9.19163e-09
1.32782e-07
-6.17587e-09
1.34547e-07
-3.37865e-09
1.34975e-07
-8.23019e-10
1.34197e-07
1.48174e-09
1.32344e-07
3.53696e-09
1.29543e-07
5.35172e-09
1.2591e-07
6.94033e-09
1.21556e-07
8.32032e-09
1.16579e-07
9.51082e-09
1.11068e-07
1.05314e-08
1.05103e-07
1.14013e-08
9.87521e-08
1.21386e-08
9.20763e-08
1.27603e-08
8.51278e-08
1.32818e-08
7.79518e-08
1.37168e-08
7.05873e-08
1.40777e-08
6.30673e-08
1.43751e-08
5.54202e-08
1.46182e-08
4.76702e-08
1.4815e-08
3.98381e-08
1.49721e-08
3.19417e-08
1.5095e-08
2.39966e-08
1.51883e-08
1.60165e-08
1.52553e-08
8.01381e-09
1.52985e-08
1.53198e-08
-8.79097e-09
2.41107e-08
-1.75698e-08
2.40774e-08
-2.63239e-08
2.40094e-08
-3.50398e-08
2.39042e-08
-4.37025e-08
2.37577e-08
-5.22948e-08
2.35645e-08
-6.07975e-08
2.33176e-08
-6.91876e-08
2.30084e-08
-7.74389e-08
2.26263e-08
-8.55202e-08
2.2159e-08
-9.33951e-08
2.15918e-08
-1.01021e-07
2.0908e-08
-1.08349e-07
2.00883e-08
-1.15322e-07
1.91109e-08
-1.21872e-07
1.79517e-08
-1.27925e-07
1.65841e-08
-1.33393e-07
1.49792e-08
-1.3818e-07
1.31071e-08
-1.42176e-07
1.09367e-08
-1.45262e-07
8.43781e-09
-1.47308e-07
5.58284e-09
-1.48176e-07
2.34909e-09
-1.47721e-07
-1.2779e-09
-1.45799e-07
-5.30044e-09
-1.42271e-07
-9.70411e-09
-1.37009e-07
-1.44529e-08
-1.29911e-07
-1.94842e-08
-1.20906e-07
-2.47048e-08
-1.09971e-07
-2.99886e-08
-9.71385e-08
-3.51771e-08
-8.25115e-08
-4.0084e-08
-6.6267e-08
-4.4505e-08
-5.86094e-08
-2.09763e-08
-5.07091e-08
-2.16393e-08
-4.25954e-08
-2.2222e-08
-3.43001e-08
-2.27182e-08
-2.58568e-08
-2.31222e-08
-1.73011e-08
-2.34294e-08
-8.6696e-09
-2.36362e-08
-1.2523e-17
-2.37402e-08
8.6696e-09
-2.37402e-08
1.73011e-08
-2.36362e-08
2.58568e-08
-2.34294e-08
3.43001e-08
-2.31222e-08
4.25954e-08
-2.27182e-08
5.07091e-08
-2.2222e-08
5.86094e-08
-2.16393e-08
6.6267e-08
-2.09763e-08
8.25115e-08
-4.4505e-08
9.71385e-08
-4.0084e-08
1.09971e-07
-3.51771e-08
1.20906e-07
-2.99886e-08
1.29911e-07
-2.47048e-08
1.37009e-07
-1.94842e-08
1.42271e-07
-1.44529e-08
1.45799e-07
-9.70411e-09
1.47721e-07
-5.30044e-09
1.48176e-07
-1.2779e-09
1.47308e-07
2.34909e-09
1.45262e-07
5.58284e-09
1.42176e-07
8.43781e-09
1.3818e-07
1.09367e-08
1.33393e-07
1.31071e-08
1.27925e-07
1.49792e-08
1.21872e-07
1.65841e-08
1.15322e-07
1.79517e-08
1.08349e-07
1.91109e-08
1.01021e-07
2.00883e-08
9.33951e-08
2.0908e-08
8.55202e-08
2.15918e-08
7.74389e-08
2.2159e-08
6.91876e-08
2.26263e-08
6.07975e-08
2.30084e-08
5.22948e-08
2.33176e-08
4.37025e-08
2.35645e-08
3.50398e-08
2.37577e-08
2.63239e-08
2.39042e-08
1.75698e-08
2.40094e-08
8.79097e-09
2.40774e-08
2.41107e-08
-9.64444e-09
3.37552e-08
-1.92757e-08
3.37086e-08
-2.888e-08
3.36137e-08
-3.84426e-08
3.34668e-08
-4.79472e-08
3.32623e-08
-5.73753e-08
3.29925e-08
-6.67054e-08
3.26478e-08
-7.5913e-08
3.22159e-08
-8.4969e-08
3.16823e-08
-9.38396e-08
3.10296e-08
-1.02485e-07
3.02373e-08
-1.10859e-07
2.9282e-08
-1.18907e-07
2.81366e-08
-1.26567e-07
2.67709e-08
-1.33766e-07
2.51508e-08
-1.40421e-07
2.32391e-08
-1.46438e-07
2.09955e-08
-1.51708e-07
1.83778e-08
-1.56114e-07
1.53425e-08
-1.59524e-07
1.18472e-08
-1.61794e-07
7.85285e-09
-1.62772e-07
3.32745e-09
-1.623e-07
-1.74964e-09
-1.60219e-07
-7.38209e-09
-1.56373e-07
-1.35502e-08
-1.50621e-07
-2.02041e-08
-1.42849e-07
-2.72565e-08
-1.32977e-07
-3.45772e-08
-1.20976e-07
-4.19896e-08
-1.06881e-07
-4.92713e-08
-9.08047e-08
-5.61606e-08
-7.29396e-08
-6.23701e-08
-6.4515e-08
-2.94008e-08
-5.58219e-08
-3.03324e-08
-4.68924e-08
-3.11514e-08
-3.77618e-08
-3.18488e-08
-2.84674e-08
-3.24166e-08
-1.90483e-08
-3.28485e-08
-9.54525e-09
-3.31392e-08
-1.38782e-17
-3.32855e-08
9.54525e-09
-3.32855e-08
1.90483e-08
-3.31392e-08
2.84674e-08
-3.28485e-08
3.77618e-08
-3.24166e-08
4.68924e-08
-3.18488e-08
5.58219e-08
-3.11514e-08
6.4515e-08
-3.03324e-08
7.29396e-08
-2.94008e-08
9.08047e-08
-6.23701e-08
1.06881e-07
-5.61606e-08
1.20976e-07
-4.92713e-08
1.32977e-07
-4.19896e-08
1.42849e-07
-3.45772e-08
1.50621e-07
-2.72565e-08
1.56373e-07
-2.02041e-08
1.60219e-07
-1.35502e-08
1.623e-07
-7.38209e-09
1.62772e-07
-1.74964e-09
1.61794e-07
3.32745e-09
1.59524e-07
7.85285e-09
1.56114e-07
1.18472e-08
1.51708e-07
1.53425e-08
1.46438e-07
1.83778e-08
1.40421e-07
2.09955e-08
1.33766e-07
2.32391e-08
1.26567e-07
2.51508e-08
1.18907e-07
2.67709e-08
1.10859e-07
2.81366e-08
1.02485e-07
2.9282e-08
9.38396e-08
3.02373e-08
8.4969e-08
3.10296e-08
7.5913e-08
3.16823e-08
6.67054e-08
3.22159e-08
5.73753e-08
3.26478e-08
4.79472e-08
3.29925e-08
3.84426e-08
3.32623e-08
2.888e-08
3.34668e-08
1.92757e-08
3.36137e-08
9.64444e-09
3.37086e-08
3.37552e-08
-1.05821e-08
4.43373e-08
-2.11499e-08
4.42764e-08
-3.16885e-08
4.41523e-08
-4.21818e-08
4.39601e-08
-5.2612e-08
4.36925e-08
-6.29591e-08
4.33396e-08
-7.31999e-08
4.28886e-08
-8.33074e-08
4.23234e-08
-9.32502e-08
4.16251e-08
-1.02991e-07
4.07706e-08
-1.12487e-07
3.97334e-08
-1.21688e-07
3.84825e-08
-1.30534e-07
3.69825e-08
-1.38956e-07
3.51935e-08
-1.46877e-07
3.3071e-08
-1.54203e-07
3.05659e-08
-1.60833e-07
2.76253e-08
-1.66649e-07
2.41934e-08
-1.71519e-07
2.0213e-08
-1.753e-07
1.5628e-08
-1.77834e-07
1.03866e-08
-1.78952e-07
4.44619e-09
-1.78481e-07
-2.2211e-09
-1.76242e-07
-9.62098e-09
-1.72064e-07
-1.77286e-08
-1.65789e-07
-2.64793e-08
-1.57286e-07
-3.57592e-08
-1.46465e-07
-4.5398e-08
-1.33291e-07
-5.51634e-08
-1.178e-07
-6.47626e-08
-1.00111e-07
-7.38501e-08
-8.04351e-08
-8.20454e-08
-7.11519e-08
-3.86841e-08
-6.15698e-08
-3.99145e-08
-5.17248e-08
-4.09964e-08
-4.16559e-08
-4.19177e-08
-3.14046e-08
-4.2668e-08
-2.10144e-08
-4.32386e-08
-1.05307e-08
-4.36229e-08
-1.57762e-17
-4.38162e-08
1.05307e-08
-4.38162e-08
2.10144e-08
-4.36229e-08
3.14046e-08
-4.32386e-08
4.16559e-08
-4.2668e-08
5.17248e-08
-4.19177e-08
6.15698e-08
-4.09964e-08
7.11519e-08
-3.99145e-08
8.04351e-08
-3.86841e-08
1.00111e-07
-8.20454e-08
1.178e-07
-7.38501e-08
1.33291e-07
-6.47626e-08
1.46465e-07
-5.51634e-08
1.57286e-07
-4.5398e-08
1.65789e-07
-3.57592e-08
1.72064e-07
-2.64793e-08
1.76242e-07
-1.77286e-08
1.78481e-07
-9.62098e-09
1.78952e-07
-2.2211e-09
1.77834e-07
4.44619e-09
1.753e-07
1.03866e-08
1.71519e-07
1.5628e-08
1.66649e-07
2.0213e-08
1.60833e-07
2.41934e-08
1.54203e-07
2.76253e-08
1.46877e-07
3.05659e-08
1.38956e-07
3.3071e-08
1.30534e-07
3.51935e-08
1.21688e-07
3.69825e-08
1.12487e-07
3.84825e-08
1.02991e-07
3.97334e-08
9.32502e-08
4.07706e-08
8.33074e-08
4.16251e-08
7.31999e-08
4.23234e-08
6.29591e-08
4.28886e-08
5.2612e-08
4.33396e-08
4.21818e-08
4.36925e-08
3.16885e-08
4.39601e-08
2.11499e-08
4.41523e-08
1.05821e-08
4.42764e-08
4.43373e-08
-1.16128e-08
5.59501e-08
-2.32101e-08
5.58737e-08
-3.47758e-08
5.5718e-08
-4.62926e-08
5.54769e-08
-5.77413e-08
5.51412e-08
-6.91001e-08
5.46984e-08
-8.03437e-08
5.41322e-08
-9.14432e-08
5.34229e-08
-1.02364e-07
5.2546e-08
-1.13067e-07
5.1473e-08
-1.23503e-07
5.01702e-08
-1.33619e-07
4.85986e-08
-1.43351e-07
4.67136e-08
-1.52622e-07
4.44649e-08
-1.61347e-07
4.17962e-08
-1.69427e-07
3.86455e-08
-1.76747e-07
3.49459e-08
-1.83181e-07
3.06267e-08
-1.88583e-07
2.56153e-08
-1.92795e-07
1.98401e-08
-1.95644e-07
1.32352e-08
-1.96943e-07
5.74559e-09
-1.96499e-07
-2.6653e-09
-1.94114e-07
-1.20062e-08
-1.89595e-07
-2.22475e-08
-1.82765e-07
-3.33093e-08
-1.73474e-07
-4.50495e-08
-1.61618e-07
-5.72539e-08
-1.47153e-07
-6.96293e-08
-1.3011e-07
-8.18048e-08
-1.10619e-07
-9.33412e-08
-8.89114e-08
-1.03753e-07
-7.86611e-08
-4.89344e-08
-6.80763e-08
-5.04992e-08
-5.71973e-08
-5.18754e-08
-4.60673e-08
-5.30476e-08
-3.47328e-08
-5.40025e-08
-2.32427e-08
-5.47288e-08
-1.16477e-08
-5.52179e-08
-1.64279e-17
-5.54639e-08
1.16477e-08
-5.54639e-08
2.32427e-08
-5.52179e-08
3.47328e-08
-5.47288e-08
4.60673e-08
-5.40025e-08
5.71973e-08
-5.30476e-08
6.80763e-08
-5.18754e-08
7.86611e-08
-5.04992e-08
8.89114e-08
-4.89344e-08
1.10619e-07
-1.03753e-07
1.3011e-07
-9.33412e-08
1.47153e-07
-8.18048e-08
1.61618e-07
-6.96293e-08
1.73474e-07
-5.72539e-08
1.82765e-07
-4.50495e-08
1.89595e-07
-3.33093e-08
1.94114e-07
-2.22475e-08
1.96499e-07
-1.20062e-08
1.96943e-07
-2.6653e-09
1.95644e-07
5.74559e-09
1.92795e-07
1.32352e-08
1.88583e-07
1.98401e-08
1.83181e-07
2.56153e-08
1.76747e-07
3.06267e-08
1.69427e-07
3.49459e-08
1.61347e-07
3.86455e-08
1.52622e-07
4.17962e-08
1.43351e-07
4.44649e-08
1.33619e-07
4.67136e-08
1.23503e-07
4.85986e-08
1.13067e-07
5.01702e-08
1.02364e-07
5.1473e-08
9.14432e-08
5.2546e-08
8.03437e-08
5.34229e-08
6.91001e-08
5.41322e-08
5.77413e-08
5.46984e-08
4.62926e-08
5.51412e-08
3.47758e-08
5.54769e-08
2.32101e-08
5.5718e-08
1.16128e-08
5.58737e-08
5.59501e-08
-1.27463e-08
6.86964e-08
-2.54761e-08
6.86034e-08
-3.81719e-08
6.84138e-08
-5.08151e-08
6.81202e-08
-6.33851e-08
6.77112e-08
-7.58584e-08
6.71717e-08
-8.8208e-08
6.64818e-08
-1.00402e-07
6.5617e-08
-1.12404e-07
6.45479e-08
-1.2417e-07
6.32392e-08
-1.3565e-07
6.16497e-08
-1.46783e-07
5.97317e-08
-1.575e-07
5.74305e-08
-1.67719e-07
5.46843e-08
-1.77347e-07
5.14239e-08
-1.86274e-07
4.75731e-08
-1.94378e-07
4.30495e-08
-2.01517e-07
3.77658e-08
-2.07534e-07
3.1632e-08
-2.12253e-07
2.45595e-08
-2.15484e-07
1.64656e-08
-2.17019e-07
7.28109e-09
-2.16643e-07
-3.04117e-09
-2.14135e-07
-1.45146e-08
-2.09277e-07
-2.71058e-08
-2.01866e-07
-4.07195e-08
-1.91732e-07
-5.51838e-08
-1.78749e-07
-7.02372e-08
-1.62858e-07
-8.55198e-08
-1.4409e-07
-1.00574e-07
-1.22577e-07
-1.14854e-07
-9.85728e-08
-1.27757e-07
-8.72258e-08
-6.02814e-08
-7.55019e-08
-6.22232e-08
-6.34459e-08
-6.39315e-08
-5.11065e-08
-6.5387e-08
-3.85361e-08
-6.65729e-08
-2.57896e-08
-6.74752e-08
-1.29247e-08
-6.80829e-08
-9.76144e-18
-6.83886e-08
1.29247e-08
-6.83886e-08
2.57896e-08
-6.80829e-08
3.85361e-08
-6.74752e-08
5.11065e-08
-6.65729e-08
6.34459e-08
-6.5387e-08
7.55019e-08
-6.39315e-08
8.72258e-08
-6.22232e-08
9.85728e-08
-6.02814e-08
1.22577e-07
-1.27757e-07
1.4409e-07
-1.14854e-07
1.62858e-07
-1.00574e-07
1.78749e-07
-8.55198e-08
1.91732e-07
-7.02372e-08
2.01866e-07
-5.51838e-08
2.09277e-07
-4.07195e-08
2.14135e-07
-2.71058e-08
2.16643e-07
-1.45146e-08
2.17019e-07
-3.04117e-09
2.15484e-07
7.28109e-09
2.12253e-07
1.64656e-08
2.07534e-07
2.45595e-08
2.01517e-07
3.1632e-08
1.94378e-07
3.77658e-08
1.86274e-07
4.30495e-08
1.77347e-07
4.75731e-08
1.67719e-07
5.14239e-08
1.575e-07
5.46843e-08
1.46783e-07
5.74305e-08
1.3565e-07
5.97317e-08
1.2417e-07
6.16497e-08
1.12404e-07
6.32392e-08
1.00402e-07
6.45479e-08
8.8208e-08
6.5617e-08
7.58584e-08
6.64818e-08
6.33851e-08
6.71717e-08
5.08151e-08
6.77112e-08
3.81719e-08
6.81202e-08
2.54761e-08
6.84138e-08
1.27463e-08
6.86034e-08
6.86964e-08
-1.39939e-08
8.26903e-08
-2.79701e-08
8.25796e-08
-4.19101e-08
8.23539e-08
-5.57942e-08
8.20042e-08
-6.96001e-08
8.15172e-08
-8.33028e-08
8.08744e-08
-9.68732e-08
8.00522e-08
-1.10278e-07
7.90214e-08
-1.23476e-07
7.77464e-08
-1.36422e-07
7.61851e-08
-1.4906e-07
7.42881e-08
-1.61327e-07
7.1998e-08
-1.73145e-07
6.92491e-08
-1.84428e-07
6.59672e-08
-1.95073e-07
6.20688e-08
-2.04962e-07
5.74621e-08
-2.1396e-07
5.20473e-08
-2.21912e-07
4.57185e-08
-2.28647e-07
3.83666e-08
-2.3397e-07
2.98829e-08
-2.37671e-07
2.01659e-08
-2.39519e-07
9.12915e-09
-2.39272e-07
-3.28762e-09
-2.36682e-07
-1.71049e-08
-2.31501e-07
-3.22871e-08
-2.23495e-07
-4.87246e-08
-2.12465e-07
-6.62145e-08
-1.98257e-07
-8.44446e-08
-1.80795e-07
-1.02982e-07
-1.60098e-07
-1.21271e-07
-1.36304e-07
-1.38648e-07
-1.09688e-07
-1.54373e-07
-9.70874e-08
-7.28817e-08
-8.4058e-08
-7.52525e-08
-7.06504e-08
-7.73391e-08
-5.69196e-08
-7.91177e-08
-4.29252e-08
-8.05674e-08
-2.87298e-08
-8.16705e-08
-1.4399e-08
-8.24137e-08
-4.31047e-19
-8.27876e-08
1.4399e-08
-8.27876e-08
2.87298e-08
-8.24137e-08
4.29252e-08
-8.16705e-08
5.69196e-08
-8.05674e-08
7.06504e-08
-7.91177e-08
8.4058e-08
-7.73391e-08
9.70874e-08
-7.52525e-08
1.09688e-07
-7.28817e-08
1.36304e-07
-1.54373e-07
1.60098e-07
-1.38648e-07
1.80795e-07
-1.21271e-07
1.98257e-07
-1.02982e-07
2.12465e-07
-8.44446e-08
2.23495e-07
-6.62145e-08
2.31501e-07
-4.87246e-08
2.36682e-07
-3.22871e-08
2.39272e-07
-1.71049e-08
2.39519e-07
-3.28762e-09
2.37671e-07
9.12915e-09
2.3397e-07
2.01659e-08
2.28647e-07
2.98829e-08
2.21912e-07
3.83666e-08
2.1396e-07
4.57185e-08
2.04962e-07
5.20473e-08
1.95073e-07
5.74621e-08
1.84428e-07
6.20688e-08
1.73145e-07
6.59672e-08
1.61327e-07
6.92491e-08
1.4906e-07
7.1998e-08
1.36422e-07
7.42881e-08
1.23476e-07
7.61851e-08
1.10278e-07
7.77464e-08
9.68732e-08
7.90214e-08
8.33028e-08
8.00522e-08
6.96001e-08
8.08744e-08
5.57942e-08
8.15172e-08
4.19101e-08
8.20042e-08
2.79701e-08
8.23539e-08
1.39939e-08
8.25796e-08
8.26903e-08
-1.5368e-08
9.80583e-08
-3.07174e-08
9.7929e-08
-4.60287e-08
9.76651e-08
-6.12808e-08
9.72564e-08
-7.64505e-08
9.66868e-08
-9.15111e-08
9.59349e-08
-1.06432e-07
9.49728e-08
-1.21176e-07
9.37658e-08
-1.35702e-07
9.22724e-08
-1.4996e-07
9.04426e-08
-1.6389e-07
8.82182e-08
-1.77423e-07
8.55314e-08
-1.90479e-07
8.23045e-08
-2.02961e-07
7.84494e-08
-2.14759e-07
7.38671e-08
-2.25746e-07
6.84485e-08
-2.35773e-07
6.20746e-08
-2.44673e-07
5.46186e-08
-2.52256e-07
4.59493e-08
-2.58308e-07
3.59355e-08
-2.62595e-07
2.44531e-08
-2.64862e-07
1.13953e-08
-2.64834e-07
-3.31526e-09
-2.62229e-07
-1.97095e-08
-2.56764e-07
-3.77527e-08
-2.48166e-07
-5.73224e-08
-2.36196e-07
-7.81849e-08
-2.20666e-07
-9.99744e-08
-2.0147e-07
-1.22178e-07
-1.7861e-07
-1.44131e-07
-1.52226e-07
-1.65033e-07
-1.22614e-07
-1.83985e-07
-1.08568e-07
-8.69283e-08
-9.40274e-08
-8.97926e-08
-7.90513e-08
-9.23152e-08
-6.37025e-08
-9.44666e-08
-4.80491e-08
-9.62207e-08
-3.21635e-08
-9.75561e-08
-1.61212e-08
-9.8456e-08
-7.04731e-18
-9.89088e-08
1.61212e-08
-9.89088e-08
3.21635e-08
-9.8456e-08
4.80491e-08
-9.75561e-08
6.37025e-08
-9.62207e-08
7.90513e-08
-9.44666e-08
9.40274e-08
-9.23152e-08
1.08568e-07
-8.97926e-08
1.22614e-07
-8.69283e-08
1.52226e-07
-1.83985e-07
1.7861e-07
-1.65033e-07
2.0147e-07
-1.44131e-07
2.20666e-07
-1.22178e-07
2.36196e-07
-9.99744e-08
2.48166e-07
-7.81849e-08
2.56764e-07
-5.73224e-08
2.62229e-07
-3.77527e-08
2.64834e-07
-1.97095e-08
2.64862e-07
-3.31526e-09
2.62595e-07
1.13953e-08
2.58308e-07
2.44531e-08
2.52256e-07
3.59355e-08
2.44673e-07
4.59493e-08
2.35773e-07
5.46186e-08
2.25746e-07
6.20746e-08
2.14759e-07
6.84485e-08
2.02961e-07
7.38671e-08
1.90479e-07
7.84494e-08
1.77423e-07
8.23045e-08
1.6389e-07
8.55314e-08
1.4996e-07
8.82182e-08
1.35702e-07
9.04426e-08
1.21176e-07
9.22724e-08
1.06432e-07
9.37658e-08
9.15111e-08
9.49728e-08
7.64505e-08
9.59349e-08
6.12808e-08
9.66868e-08
4.60287e-08
9.72564e-08
3.07174e-08
9.76651e-08
1.5368e-08
9.7929e-08
9.80583e-08
-1.6883e-08
1.14941e-07
-3.37466e-08
1.14793e-07
-5.05706e-08
1.14489e-07
-6.73331e-08
1.14019e-07
-8.40096e-08
1.13363e-07
-1.00572e-07
1.12498e-07
-1.16988e-07
1.11389e-07
-1.3322e-07
1.09998e-07
-1.49223e-07
1.08275e-07
-1.64943e-07
1.06163e-07
-1.80319e-07
1.03594e-07
-1.95275e-07
1.00488e-07
-2.09725e-07
9.67549e-08
-2.23568e-07
9.22917e-08
-2.36683e-07
8.69822e-08
-2.48932e-07
8.06979e-08
-2.60156e-07
7.32983e-08
-2.70171e-07
6.46334e-08
-2.78768e-07
5.45465e-08
-2.85713e-07
4.28802e-08
-2.90743e-07
2.94839e-08
-2.93573e-07
1.42253e-08
-2.93894e-07
-2.9946e-09
-2.91381e-07
-2.22225e-08
-2.85704e-07
-4.34293e-08
-2.76544e-07
-6.64832e-08
-2.63607e-07
-9.11212e-08
-2.4666e-07
-1.16922e-07
-2.25553e-07
-1.43284e-07
-2.00261e-07
-1.69423e-07
-1.70916e-07
-1.94379e-07
-1.37835e-07
-2.17065e-07
-1.22102e-07
-1.02661e-07
-1.05794e-07
-1.06101e-07
-8.89757e-08
-1.09133e-07
-7.17217e-08
-1.11721e-07
-5.41107e-08
-1.13832e-07
-3.62273e-08
-1.1544e-07
-1.816e-08
-1.16523e-07
-2.35272e-17
-1.17069e-07
1.816e-08
-1.17069e-07
3.62273e-08
-1.16523e-07
5.41107e-08
-1.1544e-07
7.17217e-08
-1.13832e-07
8.89757e-08
-1.11721e-07
1.05794e-07
-1.09133e-07
1.22102e-07
-1.06101e-07
1.37835e-07
-1.02661e-07
1.70916e-07
-2.17065e-07
2.00261e-07
-1.94379e-07
2.25553e-07
-1.69423e-07
2.4666e-07
-1.43284e-07
2.63607e-07
-1.16922e-07
2.76544e-07
-9.11212e-08
2.85704e-07
-6.64832e-08
2.91381e-07
-4.34293e-08
2.93894e-07
-2.22225e-08
2.93573e-07
-2.9946e-09
2.90743e-07
1.42253e-08
2.85713e-07
2.94839e-08
2.78768e-07
4.28802e-08
2.70171e-07
5.45465e-08
2.60156e-07
6.46334e-08
2.48932e-07
7.32983e-08
2.36683e-07
8.06979e-08
2.23568e-07
8.69822e-08
2.09725e-07
9.22917e-08
1.95275e-07
9.67549e-08
1.80319e-07
1.00488e-07
1.64943e-07
1.03594e-07
1.49223e-07
1.06163e-07
1.3322e-07
1.08275e-07
1.16988e-07
1.09998e-07
1.00572e-07
1.11389e-07
8.40096e-08
1.12498e-07
6.73331e-08
1.13363e-07
5.05706e-08
1.14019e-07
3.37466e-08
1.14489e-07
1.6883e-08
1.14793e-07
1.14941e-07
-1.8555e-08
1.33496e-07
-3.70902e-08
1.33328e-07
-5.5585e-08
1.32984e-07
-7.4017e-08
1.32451e-07
-9.23609e-08
1.31707e-07
-1.10588e-07
1.30725e-07
-1.28665e-07
1.29466e-07
-1.46551e-07
1.27884e-07
-1.64201e-07
1.25925e-07
-1.81558e-07
1.2352e-07
-1.98557e-07
1.20592e-07
-2.15119e-07
1.1705e-07
-2.31151e-07
1.12788e-07
-2.46546e-07
1.07687e-07
-2.61176e-07
1.01612e-07
-2.74891e-07
9.44129e-08
-2.87518e-07
8.59261e-08
-2.98859e-07
7.59744e-08
-3.08685e-07
6.43722e-08
-3.16736e-07
5.09311e-08
-3.22721e-07
3.54687e-08
-3.26317e-07
1.78212e-08
-3.27172e-07
-2.13934e-09
-3.24912e-07
-2.44826e-08
-3.19149e-07
-4.91923e-08
-3.09498e-07
-7.61338e-08
-2.95601e-07
-1.05018e-07
-2.77154e-07
-1.35369e-07
-2.53947e-07
-1.66491e-07
-2.2591e-07
-1.9746e-07
-1.93154e-07
-2.27135e-07
-1.56016e-07
-2.54203e-07
-1.38292e-07
-1.20385e-07
-1.19886e-07
-1.24507e-07
-1.00876e-07
-1.28144e-07
-8.13462e-08
-1.3125e-07
-6.13912e-08
-1.33787e-07
-4.11109e-08
-1.3572e-07
-2.06109e-08
-1.37023e-07
-2.01696e-17
-1.3768e-07
2.06109e-08
-1.3768e-07
4.11109e-08
-1.37023e-07
6.13912e-08
-1.3572e-07
8.13462e-08
-1.33787e-07
1.00876e-07
-1.3125e-07
1.19886e-07
-1.28144e-07
1.38292e-07
-1.24507e-07
1.56016e-07
-1.20385e-07
1.93154e-07
-2.54203e-07
2.2591e-07
-2.27135e-07
2.53947e-07
-1.9746e-07
2.77154e-07
-1.66491e-07
2.95601e-07
-1.35369e-07
3.09498e-07
-1.05018e-07
3.19149e-07
-7.61338e-08
3.24912e-07
-4.91923e-08
3.27172e-07
-2.44826e-08
3.26317e-07
-2.13934e-09
3.22721e-07
1.78212e-08
3.16736e-07
3.54687e-08
3.08685e-07
5.09311e-08
2.98859e-07
6.43722e-08
2.87518e-07
7.59744e-08
2.74891e-07
8.59261e-08
2.61176e-07
9.44129e-08
2.46546e-07
1.01612e-07
2.31151e-07
1.07687e-07
2.15119e-07
1.12788e-07
1.98557e-07
1.1705e-07
1.81558e-07
1.20592e-07
1.64201e-07
1.2352e-07
1.46551e-07
1.25925e-07
1.28665e-07
1.27884e-07
1.10588e-07
1.29466e-07
9.23609e-08
1.30725e-07
7.4017e-08
1.31707e-07
5.5585e-08
1.32451e-07
3.70902e-08
1.32984e-07
1.8555e-08
1.33328e-07
1.33496e-07
-2.04024e-08
1.53899e-07
-4.07852e-08
1.53711e-07
-6.11279e-08
1.53327e-07
-8.1408e-08
1.52731e-07
-1.016e-07
1.519e-07
-1.21676e-07
1.508e-07
-1.416e-07
1.4939e-07
-1.61332e-07
1.47617e-07
-1.80825e-07
1.45418e-07
-2.00021e-07
1.42716e-07
-2.18851e-07
1.39422e-07
-2.37233e-07
1.35432e-07
-2.55071e-07
1.30626e-07
-2.72251e-07
1.24866e-07
-2.88636e-07
1.17997e-07
-3.04067e-07
1.09845e-07
-3.1836e-07
1.00219e-07
-3.31297e-07
8.89114e-08
-3.42629e-07
7.5704e-08
-3.52069e-07
6.03714e-08
-3.59292e-07
4.26923e-08
-3.63934e-07
2.24631e-08
-3.65591e-07
-4.82439e-10
-3.63826e-07
-2.62476e-08
-3.58179e-07
-5.484e-08
-3.4818e-07
-8.61325e-08
-3.33379e-07
-1.19819e-07
-3.13379e-07
-1.55369e-07
-2.87879e-07
-1.9199e-07
-2.56736e-07
-2.28603e-07
-2.20022e-07
-2.63849e-07
-1.78082e-07
-2.96143e-07
-1.57977e-07
-1.4049e-07
-1.37049e-07
-1.45435e-07
-1.15388e-07
-1.49805e-07
-9.30966e-08
-1.53541e-07
-7.02877e-08
-1.56596e-07
-4.70824e-08
-1.58925e-07
-2.36089e-08
-1.60497e-07
-1.12682e-17
-1.61289e-07
2.36089e-08
-1.61289e-07
4.70824e-08
-1.60497e-07
7.02877e-08
-1.58925e-07
9.30966e-08
-1.56596e-07
1.15388e-07
-1.53541e-07
1.37049e-07
-1.49805e-07
1.57977e-07
-1.45435e-07
1.78082e-07
-1.4049e-07
2.20022e-07
-2.96143e-07
2.56736e-07
-2.63849e-07
2.87879e-07
-2.28603e-07
3.13379e-07
-1.9199e-07
3.33379e-07
-1.55369e-07
3.4818e-07
-1.19819e-07
3.58179e-07
-8.61325e-08
3.63826e-07
-5.484e-08
3.65591e-07
-2.62476e-08
3.63934e-07
-4.82439e-10
3.59292e-07
2.24631e-08
3.52069e-07
4.26923e-08
3.42629e-07
6.03714e-08
3.31297e-07
7.5704e-08
3.1836e-07
8.89114e-08
3.04067e-07
1.00219e-07
2.88636e-07
1.09845e-07
2.72251e-07
1.17997e-07
2.55071e-07
1.24866e-07
2.37233e-07
1.30626e-07
2.18851e-07
1.35432e-07
2.00021e-07
1.39422e-07
1.80825e-07
1.42716e-07
1.61332e-07
1.45418e-07
1.416e-07
1.47617e-07
1.21676e-07
1.4939e-07
1.016e-07
1.508e-07
8.1408e-08
1.519e-07
6.11279e-08
1.52731e-07
4.07852e-08
1.53327e-07
2.04024e-08
1.53711e-07
1.53899e-07
-2.24462e-08
1.76345e-07
-4.48737e-08
1.76138e-07
-6.72628e-08
1.75716e-07
-8.9592e-08
1.7506e-07
-1.11837e-07
1.74144e-07
-1.33969e-07
1.72932e-07
-1.55954e-07
1.71375e-07
-1.77752e-07
1.69415e-07
-1.99314e-07
1.6698e-07
-2.20583e-07
1.63985e-07
-2.41489e-07
1.60328e-07
-2.61948e-07
1.55891e-07
-2.81859e-07
1.50537e-07
-3.01104e-07
1.44111e-07
-3.19541e-07
1.36434e-07
-3.37002e-07
1.27305e-07
-3.53289e-07
1.16505e-07
-3.68168e-07
1.03791e-07
-3.81368e-07
8.89044e-08
-3.92574e-07
7.15775e-08
-4.01423e-07
5.15408e-08
-4.075e-07
2.85403e-08
-4.10341e-07
2.35824e-09
-4.09431e-07
-2.71573e-08
-4.04216e-07
-6.00546e-08
-3.94118e-07
-9.62305e-08
-3.78561e-07
-1.35376e-07
-3.57013e-07
-1.76918e-07
-3.29041e-07
-2.19962e-07
-2.94387e-07
-2.63257e-07
-2.53047e-07
-3.05189e-07
-2.05356e-07
-3.43834e-07
-1.82359e-07
-1.63487e-07
-1.58346e-07
-1.69448e-07
-1.33426e-07
-1.74725e-07
-1.07722e-07
-1.79245e-07
-8.13735e-08
-1.82945e-07
-5.45293e-08
-1.85769e-07
-2.73494e-08
-1.87677e-07
-3.31685e-17
-1.88638e-07
2.73494e-08
-1.88638e-07
5.45293e-08
-1.87677e-07
8.13735e-08
-1.85769e-07
1.07722e-07
-1.82945e-07
1.33426e-07
-1.79245e-07
1.58346e-07
-1.74725e-07
1.82359e-07
-1.69448e-07
2.05356e-07
-1.63487e-07
2.53047e-07
-3.43834e-07
2.94387e-07
-3.05189e-07
3.29041e-07
-2.63257e-07
3.57013e-07
-2.19962e-07
3.78561e-07
-1.76918e-07
3.94118e-07
-1.35376e-07
4.04216e-07
-9.62305e-08
4.09431e-07
-6.00546e-08
4.10341e-07
-2.71573e-08
4.075e-07
2.35824e-09
4.01423e-07
2.85403e-08
3.92574e-07
5.15408e-08
3.81368e-07
7.15775e-08
3.68168e-07
8.89044e-08
3.53289e-07
1.03791e-07
3.37002e-07
1.16505e-07
3.19541e-07
1.27305e-07
3.01104e-07
1.36434e-07
2.81859e-07
1.44111e-07
2.61948e-07
1.50537e-07
2.41489e-07
1.55891e-07
2.20583e-07
1.60328e-07
1.99314e-07
1.63985e-07
1.77752e-07
1.6698e-07
1.55954e-07
1.69415e-07
1.33969e-07
1.71375e-07
1.11837e-07
1.72932e-07
8.9592e-08
1.74144e-07
6.72628e-08
1.7506e-07
4.48737e-08
1.75716e-07
2.24462e-08
1.76138e-07
1.76345e-07
-2.47099e-08
2.01055e-07
-4.9403e-08
2.00831e-07
-7.40618e-08
2.00374e-07
-9.86666e-08
1.99665e-07
-1.23195e-07
1.98673e-07
-1.4762e-07
1.97357e-07
-1.7191e-07
1.95665e-07
-1.96026e-07
1.93531e-07
-2.19921e-07
1.90875e-07
-2.43538e-07
1.87602e-07
-2.66808e-07
1.83598e-07
-2.89648e-07
1.78731e-07
-3.11956e-07
1.72846e-07
-3.33611e-07
1.65766e-07
-3.54467e-07
1.57289e-07
-3.74348e-07
1.47187e-07
-3.93047e-07
1.35204e-07
-4.10316e-07
1.21059e-07
-4.2586e-07
1.04449e-07
-4.39334e-07
8.50516e-08
-4.50333e-07
6.25401e-08
-4.58388e-07
3.6595e-08
-4.62959e-07
6.92948e-09
-4.63438e-07
-2.66786e-08
-4.5915e-07
-6.43424e-08
-4.49371e-07
-1.0601e-07
-4.33353e-07
-1.51394e-07
-4.10374e-07
-1.99897e-07
-3.79804e-07
-2.50533e-07
-3.41199e-07
-3.01861e-07
-2.94421e-07
-3.51967e-07
-2.39756e-07
-3.98499e-07
-2.13192e-07
-1.90051e-07
-1.85342e-07
-1.97299e-07
-1.56336e-07
-2.0373e-07
-1.2633e-07
-2.09251e-07
-9.54962e-08
-2.13778e-07
-6.40254e-08
-2.1724e-07
-3.21221e-08
-2.1958e-07
-5.11655e-17
-2.2076e-07
3.21221e-08
-2.2076e-07
6.40254e-08
-2.1958e-07
9.54962e-08
-2.1724e-07
1.2633e-07
-2.13778e-07
1.56336e-07
-2.09251e-07
1.85342e-07
-2.0373e-07
2.13192e-07
-1.97299e-07
2.39756e-07
-1.90051e-07
2.94421e-07
-3.98499e-07
3.41199e-07
-3.51967e-07
3.79804e-07
-3.01861e-07
4.10374e-07
-2.50533e-07
4.33353e-07
-1.99897e-07
4.49371e-07
-1.51394e-07
4.5915e-07
-1.0601e-07
4.63438e-07
-6.43424e-08
4.62959e-07
-2.66786e-08
4.58388e-07
6.92948e-09
4.50333e-07
3.6595e-08
4.39334e-07
6.25401e-08
4.2586e-07
8.50516e-08
4.10316e-07
1.04449e-07
3.93047e-07
1.21059e-07
3.74348e-07
1.35204e-07
3.54467e-07
1.47187e-07
3.33611e-07
1.57289e-07
3.11956e-07
1.65766e-07
2.89648e-07
1.72846e-07
2.66808e-07
1.78731e-07
2.43538e-07
1.83598e-07
2.19921e-07
1.87602e-07
1.96026e-07
1.90875e-07
1.7191e-07
1.93531e-07
1.4762e-07
1.95665e-07
1.23195e-07
1.97357e-07
9.86666e-08
1.98673e-07
7.40618e-08
1.99665e-07
4.9403e-08
2.00374e-07
2.47099e-08
2.00831e-07
2.01055e-07
-2.72198e-08
2.28275e-07
-5.44264e-08
2.28038e-07
-8.16055e-08
2.27554e-07
-1.08741e-07
2.268e-07
-1.35814e-07
2.25746e-07
-1.62802e-07
2.24344e-07
-1.89676e-07
2.22539e-07
-2.16401e-07
2.20256e-07
-2.42934e-07
2.17408e-07
-2.69222e-07
2.1389e-07
-2.95199e-07
2.09575e-07
-3.20784e-07
2.04316e-07
-3.4588e-07
1.97941e-07
-3.70366e-07
1.90251e-07
-3.94094e-07
1.81018e-07
-4.16889e-07
1.69981e-07
-4.38534e-07
1.56849e-07
-4.58769e-07
1.41295e-07
-4.77282e-07
1.22962e-07
-4.93697e-07
1.01466e-07
-5.07565e-07
7.6408e-08
-5.18354e-07
4.73839e-08
-5.25439e-07
1.40142e-08
-5.28094e-07
-2.40232e-08
-5.25494e-07
-6.69426e-08
-5.1672e-07
-1.14783e-07
-5.0079e-07
-1.67324e-07
-4.76706e-07
-2.23981e-07
-4.4354e-07
-2.83699e-07
-4.00555e-07
-3.44846e-07
-3.4737e-07
-4.05152e-07
-2.84147e-07
-4.61723e-07
-2.53108e-07
-2.2109e-07
-2.2039e-07
-2.30017e-07
-1.86156e-07
-2.37964e-07
-1.506e-07
-2.44807e-07
-1.13948e-07
-2.50431e-07
-7.64474e-08
-2.5474e-07
-3.83699e-08
-2.57658e-07
-4.50932e-17
-2.5913e-07
3.83699e-08
-2.5913e-07
7.64474e-08
-2.57658e-07
1.13948e-07
-2.5474e-07
1.506e-07
-2.50431e-07
1.86156e-07
-2.44807e-07
2.2039e-07
-2.37964e-07
2.53108e-07
-2.30017e-07
2.84147e-07
-2.2109e-07
3.4737e-07
-4.61723e-07
4.00555e-07
-4.05152e-07
4.4354e-07
-3.44846e-07
4.76706e-07
-2.83699e-07
5.0079e-07
-2.23981e-07
5.1672e-07
-1.67324e-07
5.25494e-07
-1.14783e-07
5.28094e-07
-6.69426e-08
5.25439e-07
-2.40232e-08
5.18354e-07
1.40142e-08
5.07565e-07
4.73839e-08
4.93697e-07
7.6408e-08
4.77282e-07
1.01466e-07
4.58769e-07
1.22962e-07
4.38534e-07
1.41295e-07
4.16889e-07
1.56849e-07
3.94094e-07
1.69981e-07
3.70366e-07
1.81018e-07
3.4588e-07
1.90251e-07
3.20784e-07
1.97941e-07
2.95199e-07
2.04316e-07
2.69222e-07
2.09575e-07
2.42934e-07
2.1389e-07
2.16401e-07
2.17408e-07
1.89676e-07
2.20256e-07