/*--------------------------------*- C++ -*----------------------------------*\
  =========                 |
  \\      /  F ield         | OpenFOAM: The Open Source CFD Toolbox
   \\    /   O peration     | Website:  https://openfoam.org
    \\  /    A nd           | Version:  10
     \\/     M anipulation  |
\*---------------------------------------------------------------------------*/
FoamFile
{
    format      ascii;
    class       volVectorField;
    location    "5100";
    object      Ua;
}
// * * * * * * * * * * * * * * * * * * * * * * * * * * * * * * * * * * * * * //

dimensions      [0 1 -1 0 0 0 0];

internalField   nonuniform List<vector> 
6400
(
(-1.27794e-07 2.59767e-08 0)
(-3.83206e-07 2.59406e-08 0)
(-6.3808e-07 2.58672e-08 0)
(-8.92032e-07 2.57535e-08 0)
(-1.14465e-06 2.55953e-08 0)
(-1.39546e-06 2.53866e-08 0)
(-1.64393e-06 2.512e-08 0)
(-1.88945e-06 2.47861e-08 0)
(-2.13129e-06 2.43735e-08 0)
(-2.36862e-06 2.38689e-08 0)
(-2.60046e-06 2.32566e-08 0)
(-2.82566e-06 2.25184e-08 0)
(-3.04287e-06 2.16336e-08 0)
(-3.25053e-06 2.05788e-08 0)
(-3.44686e-06 1.93279e-08 0)
(-3.62977e-06 1.78522e-08 0)
(-3.7969e-06 1.61208e-08 0)
(-3.94558e-06 1.41014e-08 0)
(-4.07281e-06 1.17606e-08 0)
(-4.17527e-06 9.06615e-09 0)
(-4.24933e-06 5.98834e-09 0)
(-4.29111e-06 2.50298e-09 0)
(-4.29651e-06 -1.40521e-09 0)
(-4.26136e-06 -5.7384e-09 0)
(-4.18157e-06 -1.04807e-08 0)
(-4.0533e-06 -1.5593e-08 0)
(-3.87324e-06 -2.10074e-08 0)
(-3.63892e-06 -2.66235e-08 0)
(-3.34901e-06 -3.23054e-08 0)
(-3.00371e-06 -3.78827e-08 0)
(-2.60504e-06 -4.31553e-08 0)
(-2.15707e-06 -4.7904e-08 0)
(-1.81034e-06 -5.07943e-08 0)
(-1.58471e-06 -5.23958e-08 0)
(-1.35251e-06 -5.38035e-08 0)
(-1.11461e-06 -5.50018e-08 0)
(-8.71956e-07 -5.59775e-08 0)
(-6.25546e-07 -5.67193e-08 0)
(-3.76423e-07 -5.72188e-08 0)
(-1.25657e-07 -5.747e-08 0)
(1.25657e-07 -5.747e-08 0)
(3.76423e-07 -5.72188e-08 0)
(6.25546e-07 -5.67193e-08 0)
(8.71956e-07 -5.59775e-08 0)
(1.11461e-06 -5.50018e-08 0)
(1.35251e-06 -5.38035e-08 0)
(1.58471e-06 -5.23958e-08 0)
(1.81034e-06 -5.07943e-08 0)
(2.15707e-06 -4.7904e-08 0)
(2.60504e-06 -4.31553e-08 0)
(3.00371e-06 -3.78827e-08 0)
(3.34901e-06 -3.23054e-08 0)
(3.63892e-06 -2.66235e-08 0)
(3.87324e-06 -2.10074e-08 0)
(4.0533e-06 -1.5593e-08 0)
(4.18157e-06 -1.04807e-08 0)
(4.26136e-06 -5.7384e-09 0)
(4.29651e-06 -1.40521e-09 0)
(4.29111e-06 2.50298e-09 0)
(4.24933e-06 5.98834e-09 0)
(4.17527e-06 9.06615e-09 0)
(4.07281e-06 1.17606e-08 0)
(3.94558e-06 1.41014e-08 0)
(3.7969e-06 1.61208e-08 0)
(3.62977e-06 1.78522e-08 0)
(3.44686e-06 1.93279e-08 0)
(3.25053e-06 2.05788e-08 0)
(3.04287e-06 2.16336e-08 0)
(2.82566e-06 2.25184e-08 0)
(2.60046e-06 2.32566e-08 0)
(2.36862e-06 2.38689e-08 0)
(2.13129e-06 2.43735e-08 0)
(1.88945e-06 2.47861e-08 0)
(1.64393e-06 2.512e-08 0)
(1.39546e-06 2.53866e-08 0)
(1.14465e-06 2.55953e-08 0)
(8.92032e-07 2.57535e-08 0)
(6.3808e-07 2.58672e-08 0)
(3.83206e-07 2.59406e-08 0)
(1.27794e-07 2.59767e-08 0)
(-1.27802e-07 8.04469e-08 0)
(-3.8323e-07 8.03354e-08 0)
(-6.38119e-07 8.01081e-08 0)
(-8.9209e-07 7.97563e-08 0)
(-1.14473e-06 7.92665e-08 0)
(-1.39556e-06 7.86207e-08 0)
(-1.64406e-06 7.77954e-08 0)
(-1.88961e-06 7.67618e-08 0)
(-2.13149e-06 7.54848e-08 0)
(-2.36886e-06 7.39229e-08 0)
(-2.60075e-06 7.20276e-08 0)
(-2.826e-06 6.97425e-08 0)
(-3.04328e-06 6.70036e-08 0)
(-3.25103e-06 6.37383e-08 0)
(-3.44744e-06 5.98657e-08 0)
(-3.63045e-06 5.52972e-08 0)
(-3.7977e-06 4.99371e-08 0)
(-3.94651e-06 4.36847e-08 0)
(-4.07389e-06 3.64374e-08 0)
(-4.1765e-06 2.80945e-08 0)
(-4.25073e-06 1.85642e-08 0)
(-4.29268e-06 7.77139e-09 0)
(-4.29826e-06 -4.3315e-09 0)
(-4.2633e-06 -1.77514e-08 0)
(-4.18367e-06 -3.24394e-08 0)
(-4.05554e-06 -4.82743e-08 0)
(-3.87559e-06 -6.50468e-08 0)
(-3.64133e-06 -8.24454e-08 0)
(-3.35141e-06 -1.00049e-07 0)
(-3.00603e-06 -1.17331e-07 0)
(-2.60718e-06 -1.33669e-07 0)
(-2.15893e-06 -1.48386e-07 0)
(-1.81196e-06 -1.57343e-07 0)
(-1.58616e-06 -1.62307e-07 0)
(-1.35376e-06 -1.6667e-07 0)
(-1.11565e-06 -1.70385e-07 0)
(-8.7278e-07 -1.73409e-07 0)
(-6.26142e-07 -1.75708e-07 0)
(-3.76782e-07 -1.77256e-07 0)
(-1.25778e-07 -1.78035e-07 0)
(1.25778e-07 -1.78035e-07 0)
(3.76782e-07 -1.77256e-07 0)
(6.26142e-07 -1.75708e-07 0)
(8.7278e-07 -1.73409e-07 0)
(1.11565e-06 -1.70385e-07 0)
(1.35376e-06 -1.6667e-07 0)
(1.58616e-06 -1.62307e-07 0)
(1.81196e-06 -1.57343e-07 0)
(2.15893e-06 -1.48386e-07 0)
(2.60718e-06 -1.33669e-07 0)
(3.00603e-06 -1.17331e-07 0)
(3.35141e-06 -1.00049e-07 0)
(3.64133e-06 -8.24454e-08 0)
(3.87559e-06 -6.50468e-08 0)
(4.05554e-06 -4.82743e-08 0)
(4.18367e-06 -3.24394e-08 0)
(4.2633e-06 -1.77514e-08 0)
(4.29826e-06 -4.3315e-09 0)
(4.29268e-06 7.77139e-09 0)
(4.25073e-06 1.85642e-08 0)
(4.1765e-06 2.80945e-08 0)
(4.07389e-06 3.64374e-08 0)
(3.94651e-06 4.36847e-08 0)
(3.7977e-06 4.99371e-08 0)
(3.63045e-06 5.52972e-08 0)
(3.44744e-06 5.98657e-08 0)
(3.25103e-06 6.37383e-08 0)
(3.04328e-06 6.70036e-08 0)
(2.826e-06 6.97425e-08 0)
(2.60075e-06 7.20276e-08 0)
(2.36886e-06 7.39229e-08 0)
(2.13149e-06 7.54848e-08 0)
(1.88961e-06 7.67618e-08 0)
(1.64406e-06 7.77954e-08 0)
(1.39556e-06 7.86207e-08 0)
(1.14473e-06 7.92665e-08 0)
(8.9209e-07 7.97563e-08 0)
(6.38119e-07 8.01081e-08 0)
(3.8323e-07 8.03354e-08 0)
(1.27802e-07 8.04469e-08 0)
(-1.2782e-07 1.40197e-07 0)
(-3.83283e-07 1.40003e-07 0)
(-6.38211e-07 1.39608e-07 0)
(-8.92223e-07 1.38995e-07 0)
(-1.14491e-06 1.38143e-07 0)
(-1.39579e-06 1.37019e-07 0)
(-1.64435e-06 1.35582e-07 0)
(-1.88997e-06 1.33783e-07 0)
(-2.13194e-06 1.3156e-07 0)
(-2.36941e-06 1.28841e-07 0)
(-2.60141e-06 1.25542e-07 0)
(-2.8268e-06 1.21564e-07 0)
(-3.04423e-06 1.16795e-07 0)
(-3.25215e-06 1.11109e-07 0)
(-3.44877e-06 1.04366e-07 0)
(-3.63202e-06 9.64106e-08 0)
(-3.79954e-06 8.70758e-08 0)
(-3.94865e-06 7.61863e-08 0)
(-4.07635e-06 6.35626e-08 0)
(-4.17933e-06 4.90294e-08 0)
(-4.25395e-06 3.2426e-08 0)
(-4.29631e-06 1.36207e-08 0)
(-4.3023e-06 -7.46995e-09 0)
(-4.26775e-06 -3.0859e-08 0)
(-4.1885e-06 -5.64621e-08 0)
(-4.06071e-06 -8.40694e-08 0)
(-3.881e-06 -1.13316e-07 0)
(-3.64687e-06 -1.43661e-07 0)
(-3.35693e-06 -1.7437e-07 0)
(-3.01135e-06 -2.04522e-07 0)
(-2.61209e-06 -2.33035e-07 0)
(-2.16323e-06 -2.58722e-07 0)
(-1.81569e-06 -2.74359e-07 0)
(-1.58948e-06 -2.83026e-07 0)
(-1.35664e-06 -2.90643e-07 0)
(-1.11805e-06 -2.97128e-07 0)
(-8.74676e-07 -3.02408e-07 0)
(-6.27512e-07 -3.06424e-07 0)
(-3.77611e-07 -3.09127e-07 0)
(-1.26055e-07 -3.10487e-07 0)
(1.26055e-07 -3.10487e-07 0)
(3.77611e-07 -3.09127e-07 0)
(6.27512e-07 -3.06424e-07 0)
(8.74676e-07 -3.02408e-07 0)
(1.11805e-06 -2.97128e-07 0)
(1.35664e-06 -2.90643e-07 0)
(1.58948e-06 -2.83026e-07 0)
(1.81569e-06 -2.74359e-07 0)
(2.16323e-06 -2.58722e-07 0)
(2.61209e-06 -2.33035e-07 0)
(3.01135e-06 -2.04522e-07 0)
(3.35693e-06 -1.7437e-07 0)
(3.64687e-06 -1.43661e-07 0)
(3.881e-06 -1.13316e-07 0)
(4.06071e-06 -8.40694e-08 0)
(4.1885e-06 -5.64621e-08 0)
(4.26775e-06 -3.0859e-08 0)
(4.3023e-06 -7.46995e-09 0)
(4.29631e-06 1.36207e-08 0)
(4.25395e-06 3.2426e-08 0)
(4.17933e-06 4.90294e-08 0)
(4.07635e-06 6.35626e-08 0)
(3.94865e-06 7.61863e-08 0)
(3.79954e-06 8.70758e-08 0)
(3.63202e-06 9.64106e-08 0)
(3.44877e-06 1.04366e-07 0)
(3.25215e-06 1.11109e-07 0)
(3.04423e-06 1.16795e-07 0)
(2.8268e-06 1.21564e-07 0)
(2.60141e-06 1.25542e-07 0)
(2.36941e-06 1.28841e-07 0)
(2.13194e-06 1.3156e-07 0)
(1.88997e-06 1.33783e-07 0)
(1.64435e-06 1.35582e-07 0)
(1.39579e-06 1.37019e-07 0)
(1.14491e-06 1.38143e-07 0)
(8.92223e-07 1.38995e-07 0)
(6.38211e-07 1.39608e-07 0)
(3.83283e-07 1.40003e-07 0)
(1.2782e-07 1.40197e-07 0)
(-1.2785e-07 2.05745e-07 0)
(-3.83376e-07 2.05461e-07 0)
(-6.38369e-07 2.04882e-07 0)
(-8.92453e-07 2.03986e-07 0)
(-1.14521e-06 2.02738e-07 0)
(-1.39619e-06 2.01092e-07 0)
(-1.64486e-06 1.98988e-07 0)
(-1.8906e-06 1.96353e-07 0)
(-2.13271e-06 1.93097e-07 0)
(-2.37035e-06 1.89115e-07 0)
(-2.60255e-06 1.84281e-07 0)
(-2.82817e-06 1.78453e-07 0)
(-3.04587e-06 1.71466e-07 0)
(-3.2541e-06 1.63135e-07 0)
(-3.45108e-06 1.53253e-07 0)
(-3.63473e-06 1.41593e-07 0)
(-3.80271e-06 1.2791e-07 0)
(-3.95233e-06 1.11946e-07 0)
(-4.08061e-06 9.3437e-08 0)
(-4.18421e-06 7.21244e-08 0)
(-4.2595e-06 4.77714e-08 0)
(-4.30256e-06 2.01832e-08 0)
(-4.30928e-06 -1.07646e-08 0)
(-4.27543e-06 -4.50934e-08 0)
(-4.19685e-06 -8.26822e-08 0)
(-4.06962e-06 -1.23225e-07 0)
(-3.89035e-06 -1.66189e-07 0)
(-3.65644e-06 -2.1078e-07 0)
(-3.36648e-06 -2.55922e-07 0)
(-3.02055e-06 -3.00261e-07 0)
(-2.6206e-06 -3.42203e-07 0)
(-2.17065e-06 -3.8e-07 0)
(-1.82215e-06 -4.03017e-07 0)
(-1.59523e-06 -4.15774e-07 0)
(-1.36162e-06 -4.26987e-07 0)
(-1.12221e-06 -4.36535e-07 0)
(-8.77958e-07 -4.4431e-07 0)
(-6.29885e-07 -4.50222e-07 0)
(-3.79046e-07 -4.54203e-07 0)
(-1.26535e-07 -4.56206e-07 0)
(1.26535e-07 -4.56206e-07 0)
(3.79046e-07 -4.54203e-07 0)
(6.29885e-07 -4.50222e-07 0)
(8.77958e-07 -4.4431e-07 0)
(1.12221e-06 -4.36535e-07 0)
(1.36162e-06 -4.26987e-07 0)
(1.59523e-06 -4.15774e-07 0)
(1.82215e-06 -4.03017e-07 0)
(2.17065e-06 -3.8e-07 0)
(2.6206e-06 -3.42203e-07 0)
(3.02055e-06 -3.00261e-07 0)
(3.36648e-06 -2.55922e-07 0)
(3.65644e-06 -2.1078e-07 0)
(3.89035e-06 -1.66189e-07 0)
(4.06962e-06 -1.23225e-07 0)
(4.19685e-06 -8.26822e-08 0)
(4.27543e-06 -4.50934e-08 0)
(4.30928e-06 -1.07646e-08 0)
(4.30256e-06 2.01832e-08 0)
(4.2595e-06 4.77714e-08 0)
(4.18421e-06 7.21244e-08 0)
(4.08061e-06 9.3437e-08 0)
(3.95233e-06 1.11946e-07 0)
(3.80271e-06 1.2791e-07 0)
(3.63473e-06 1.41593e-07 0)
(3.45108e-06 1.53253e-07 0)
(3.2541e-06 1.63135e-07 0)
(3.04587e-06 1.71466e-07 0)
(2.82817e-06 1.78453e-07 0)
(2.60255e-06 1.84281e-07 0)
(2.37035e-06 1.89115e-07 0)
(2.13271e-06 1.93097e-07 0)
(1.8906e-06 1.96353e-07 0)
(1.64486e-06 1.98988e-07 0)
(1.39619e-06 2.01092e-07 0)
(1.14521e-06 2.02738e-07 0)
(8.92453e-07 2.03986e-07 0)
(6.38369e-07 2.04882e-07 0)
(3.83376e-07 2.05461e-07 0)
(1.2785e-07 2.05745e-07 0)
(-1.27897e-07 2.77662e-07 0)
(-3.83517e-07 2.7728e-07 0)
(-6.38611e-07 2.76501e-07 0)
(-8.92804e-07 2.75296e-07 0)
(-1.14569e-06 2.73617e-07 0)
(-1.39681e-06 2.71403e-07 0)
(-1.64563e-06 2.68574e-07 0)
(-1.89157e-06 2.65029e-07 0)
(-2.1339e-06 2.60648e-07 0)
(-2.3718e-06 2.5529e-07 0)
(-2.6043e-06 2.48785e-07 0)
(-2.83027e-06 2.4094e-07 0)
(-3.04838e-06 2.31535e-07 0)
(-3.25709e-06 2.20318e-07 0)
(-3.45461e-06 2.07011e-07 0)
(-3.63889e-06 1.91307e-07 0)
(-3.80757e-06 1.72874e-07 0)
(-3.95799e-06 1.51364e-07 0)
(-4.08714e-06 1.2642e-07 0)
(-4.1917e-06 9.76894e-08 0)
(-4.26802e-06 6.48514e-08 0)
(-4.31216e-06 2.76396e-08 0)
(-4.31998e-06 -1.41182e-08 0)
(-4.28723e-06 -6.04554e-08 0)
(-4.20967e-06 -1.11214e-07 0)
(-4.08332e-06 -1.65985e-07 0)
(-3.90472e-06 -2.24056e-07 0)
(-3.67117e-06 -2.84356e-07 0)
(-3.38117e-06 -3.45433e-07 0)
(-3.03472e-06 -4.05454e-07 0)
(-2.63369e-06 -4.62261e-07 0)
(-2.1821e-06 -5.13477e-07 0)
(-1.8321e-06 -5.44679e-07 0)
(-1.60409e-06 -5.61976e-07 0)
(-1.36929e-06 -5.77182e-07 0)
(-1.12861e-06 -5.90131e-07 0)
(-8.83018e-07 -6.00677e-07 0)
(-6.33542e-07 -6.08697e-07 0)
(-3.81258e-07 -6.14097e-07 0)
(-1.27276e-07 -6.16813e-07 0)
(1.27276e-07 -6.16813e-07 0)
(3.81258e-07 -6.14097e-07 0)
(6.33542e-07 -6.08697e-07 0)
(8.83018e-07 -6.00677e-07 0)
(1.12861e-06 -5.90131e-07 0)
(1.36929e-06 -5.77182e-07 0)
(1.60409e-06 -5.61976e-07 0)
(1.8321e-06 -5.44679e-07 0)
(2.1821e-06 -5.13477e-07 0)
(2.63369e-06 -4.62261e-07 0)
(3.03472e-06 -4.05454e-07 0)
(3.38117e-06 -3.45433e-07 0)
(3.67117e-06 -2.84356e-07 0)
(3.90472e-06 -2.24056e-07 0)
(4.08332e-06 -1.65985e-07 0)
(4.20967e-06 -1.11214e-07 0)
(4.28723e-06 -6.04554e-08 0)
(4.31998e-06 -1.41182e-08 0)
(4.31216e-06 2.76396e-08 0)
(4.26802e-06 6.48514e-08 0)
(4.1917e-06 9.76894e-08 0)
(4.08714e-06 1.2642e-07 0)
(3.95799e-06 1.51364e-07 0)
(3.80757e-06 1.72874e-07 0)
(3.63889e-06 1.91307e-07 0)
(3.45461e-06 2.07011e-07 0)
(3.25709e-06 2.20318e-07 0)
(3.04838e-06 2.31535e-07 0)
(2.83027e-06 2.4094e-07 0)
(2.6043e-06 2.48785e-07 0)
(2.3718e-06 2.5529e-07 0)
(2.1339e-06 2.60648e-07 0)
(1.89157e-06 2.65029e-07 0)
(1.64563e-06 2.68574e-07 0)
(1.39681e-06 2.71403e-07 0)
(1.14569e-06 2.73617e-07 0)
(8.92804e-07 2.75296e-07 0)
(6.38611e-07 2.76501e-07 0)
(3.83517e-07 2.7728e-07 0)
(1.27897e-07 2.77662e-07 0)
(-1.27963e-07 3.56577e-07 0)
(-3.8372e-07 3.56089e-07 0)
(-6.38958e-07 3.55094e-07 0)
(-8.93309e-07 3.53554e-07 0)
(-1.14637e-06 3.51409e-07 0)
(-1.39769e-06 3.4858e-07 0)
(-1.64675e-06 3.44963e-07 0)
(-1.89295e-06 3.40431e-07 0)
(-2.1356e-06 3.34831e-07 0)
(-2.37387e-06 3.27977e-07 0)
(-2.60681e-06 3.19657e-07 0)
(-2.83328e-06 3.09621e-07 0)
(-3.05198e-06 2.97586e-07 0)
(-3.26138e-06 2.8323e-07 0)
(-3.45968e-06 2.66194e-07 0)
(-3.64486e-06 2.46085e-07 0)
(-3.81456e-06 2.22476e-07 0)
(-3.96611e-06 1.94916e-07 0)
(-4.09653e-06 1.62945e-07 0)
(-4.20248e-06 1.26109e-07 0)
(-4.28028e-06 8.39888e-08 0)
(-4.32599e-06 3.62374e-08 0)
(-4.33541e-06 -1.73739e-08 0)
(-4.30423e-06 -7.68967e-08 0)
(-4.22815e-06 -1.42137e-07 0)
(-4.1031e-06 -2.12582e-07 0)
(-3.92546e-06 -2.8732e-07 0)
(-3.69245e-06 -3.64984e-07 0)
(-3.40241e-06 -4.43707e-07 0)
(-3.05521e-06 -5.21129e-07 0)
(-2.65265e-06 -5.94458e-07 0)
(-2.19867e-06 -6.60618e-07 0)
(-1.84651e-06 -7.00948e-07 0)
(-1.61693e-06 -7.2331e-07 0)
(-1.38041e-06 -7.42974e-07 0)
(-1.13789e-06 -7.59722e-07 0)
(-8.90352e-07 -7.73364e-07 0)
(-6.38843e-07 -7.83739e-07 0)
(-3.84464e-07 -7.90726e-07 0)
(-1.28349e-07 -7.94241e-07 0)
(1.28349e-07 -7.94241e-07 0)
(3.84464e-07 -7.90726e-07 0)
(6.38843e-07 -7.83739e-07 0)
(8.90352e-07 -7.73364e-07 0)
(1.13789e-06 -7.59722e-07 0)
(1.38041e-06 -7.42974e-07 0)
(1.61693e-06 -7.2331e-07 0)
(1.84651e-06 -7.00948e-07 0)
(2.19867e-06 -6.60618e-07 0)
(2.65265e-06 -5.94458e-07 0)
(3.05521e-06 -5.21129e-07 0)
(3.40241e-06 -4.43707e-07 0)
(3.69245e-06 -3.64984e-07 0)
(3.92546e-06 -2.8732e-07 0)
(4.1031e-06 -2.12582e-07 0)
(4.22815e-06 -1.42137e-07 0)
(4.30423e-06 -7.68967e-08 0)
(4.33541e-06 -1.73739e-08 0)
(4.32599e-06 3.62374e-08 0)
(4.28028e-06 8.39888e-08 0)
(4.20248e-06 1.26109e-07 0)
(4.09653e-06 1.62945e-07 0)
(3.96611e-06 1.94916e-07 0)
(3.81456e-06 2.22476e-07 0)
(3.64486e-06 2.46085e-07 0)
(3.45968e-06 2.66194e-07 0)
(3.26138e-06 2.8323e-07 0)
(3.05199e-06 2.97586e-07 0)
(2.83328e-06 3.09621e-07 0)
(2.60681e-06 3.19657e-07 0)
(2.37387e-06 3.27977e-07 0)
(2.1356e-06 3.34831e-07 0)
(1.89295e-06 3.40431e-07 0)
(1.64675e-06 3.44963e-07 0)
(1.39769e-06 3.4858e-07 0)
(1.14637e-06 3.51409e-07 0)
(8.93309e-07 3.53554e-07 0)
(6.38958e-07 3.55094e-07 0)
(3.8372e-07 3.56089e-07 0)
(1.27963e-07 3.56577e-07 0)
(-1.28055e-07 4.43187e-07 0)
(-3.83999e-07 4.42585e-07 0)
(-6.39435e-07 4.41358e-07 0)
(-8.94002e-07 4.39456e-07 0)
(-1.14731e-06 4.36809e-07 0)
(-1.3989e-06 4.33316e-07 0)
(-1.64828e-06 4.2885e-07 0)
(-1.89486e-06 4.23253e-07 0)
(-2.13794e-06 4.16334e-07 0)
(-2.37673e-06 4.07866e-07 0)
(-2.61027e-06 3.97582e-07 0)
(-2.83744e-06 3.85174e-07 0)
(-3.05696e-06 3.7029e-07 0)
(-3.26729e-06 3.5253e-07 0)
(-3.46668e-06 3.31449e-07 0)
(-3.6531e-06 3.06555e-07 0)
(-3.8242e-06 2.77317e-07 0)
(-3.97734e-06 2.43173e-07 0)
(-4.10951e-06 2.03546e-07 0)
(-4.21737e-06 1.57865e-07 0)
(-4.29723e-06 1.05603e-07 0)
(-4.34511e-06 4.63171e-08 0)
(-4.35676e-06 -2.02897e-08 0)
(-4.32779e-06 -9.42963e-08 0)
(-4.25378e-06 -1.75478e-07 0)
(-4.13052e-06 -2.63213e-07 0)
(-3.95427e-06 -3.56385e-07 0)
(-3.72202e-06 -4.53301e-07 0)
(-3.43194e-06 -5.51641e-07 0)
(-3.08373e-06 -6.48457e-07 0)
(-2.67905e-06 -7.4025e-07 0)
(-2.22176e-06 -8.23149e-07 0)
(-1.86661e-06 -8.73726e-07 0)
(-1.63484e-06 -9.01779e-07 0)
(-1.39593e-06 -9.26455e-07 0)
(-1.15084e-06 -9.47477e-07 0)
(-9.00589e-07 -9.64603e-07 0)
(-6.46244e-07 -9.77631e-07 0)
(-3.88941e-07 -9.86406e-07 0)
(-1.29847e-07 -9.9082e-07 0)
(1.29847e-07 -9.9082e-07 0)
(3.88941e-07 -9.86406e-07 0)
(6.46244e-07 -9.77631e-07 0)
(9.00589e-07 -9.64603e-07 0)
(1.15084e-06 -9.47477e-07 0)
(1.39593e-06 -9.26455e-07 0)
(1.63484e-06 -9.01779e-07 0)
(1.86661e-06 -8.73726e-07 0)
(2.22176e-06 -8.23149e-07 0)
(2.67905e-06 -7.4025e-07 0)
(3.08373e-06 -6.48457e-07 0)
(3.43194e-06 -5.51641e-07 0)
(3.72202e-06 -4.53301e-07 0)
(3.95427e-06 -3.56385e-07 0)
(4.13052e-06 -2.63213e-07 0)
(4.25378e-06 -1.75478e-07 0)
(4.32779e-06 -9.42963e-08 0)
(4.35676e-06 -2.02897e-08 0)
(4.34511e-06 4.63171e-08 0)
(4.29723e-06 1.05603e-07 0)
(4.21737e-06 1.57865e-07 0)
(4.10951e-06 2.03546e-07 0)
(3.97734e-06 2.43173e-07 0)
(3.8242e-06 2.77317e-07 0)
(3.6531e-06 3.06555e-07 0)
(3.46668e-06 3.31449e-07 0)
(3.26729e-06 3.5253e-07 0)
(3.05696e-06 3.7029e-07 0)
(2.83744e-06 3.85174e-07 0)
(2.61027e-06 3.97582e-07 0)
(2.37673e-06 4.07866e-07 0)
(2.13794e-06 4.16334e-07 0)
(1.89486e-06 4.23253e-07 0)
(1.64828e-06 4.2885e-07 0)
(1.3989e-06 4.33316e-07 0)
(1.14731e-06 4.36809e-07 0)
(8.94002e-07 4.39456e-07 0)
(6.39435e-07 4.41358e-07 0)
(3.83999e-07 4.42585e-07 0)
(1.28055e-07 4.43187e-07 0)
(-1.28178e-07 5.38264e-07 0)
(-3.84372e-07 5.3754e-07 0)
(-6.40072e-07 5.36063e-07 0)
(-8.94929e-07 5.33775e-07 0)
(-1.14856e-06 5.3059e-07 0)
(-1.40052e-06 5.26386e-07 0)
(-1.65033e-06 5.2101e-07 0)
(-1.89741e-06 5.1427e-07 0)
(-2.14108e-06 5.05935e-07 0)
(-2.38055e-06 4.95731e-07 0)
(-2.61489e-06 4.83334e-07 0)
(-2.84301e-06 4.68372e-07 0)
(-3.06362e-06 4.50416e-07 0)
(-3.27522e-06 4.28983e-07 0)
(-3.47607e-06 4.03529e-07 0)
(-3.66415e-06 3.73458e-07 0)
(-3.83714e-06 3.38122e-07 0)
(-3.9924e-06 2.96833e-07 0)
(-4.12693e-06 2.48884e-07 0)
(-4.23737e-06 1.93573e-07 0)
(-4.32003e-06 1.30245e-07 0)
(-4.37085e-06 5.83475e-08 0)
(-4.38552e-06 -2.25024e-08 0)
(-4.35953e-06 -1.12425e-07 0)
(-4.28835e-06 -2.11175e-07 0)
(-4.16757e-06 -3.18023e-07 0)
(-3.99321e-06 -4.31638e-07 0)
(-3.76204e-06 -5.4998e-07 0)
(-3.47196e-06 -6.70228e-07 0)
(-3.12243e-06 -7.88781e-07 0)
(-2.71491e-06 -9.01342e-07 0)
(-2.25317e-06 -1.00313e-06 0)
(-1.89397e-06 -1.0653e-06 0)
(-1.65921e-06 -1.09981e-06 0)
(-1.41706e-06 -1.13016e-06 0)
(-1.16849e-06 -1.15604e-06 0)
(-9.14535e-07 -1.17712e-06 0)
(-6.56329e-07 -1.19317e-06 0)
(-3.95042e-07 -1.20397e-06 0)
(-1.31889e-07 -1.20941e-06 0)
(1.31889e-07 -1.20941e-06 0)
(3.95042e-07 -1.20397e-06 0)
(6.56329e-07 -1.19317e-06 0)
(9.14535e-07 -1.17712e-06 0)
(1.16849e-06 -1.15604e-06 0)
(1.41706e-06 -1.13016e-06 0)
(1.65921e-06 -1.09981e-06 0)
(1.89397e-06 -1.0653e-06 0)
(2.25317e-06 -1.00313e-06 0)
(2.71491e-06 -9.01342e-07 0)
(3.12243e-06 -7.88781e-07 0)
(3.47196e-06 -6.70228e-07 0)
(3.76204e-06 -5.4998e-07 0)
(3.99321e-06 -4.31638e-07 0)
(4.16757e-06 -3.18023e-07 0)
(4.28835e-06 -2.11175e-07 0)
(4.35953e-06 -1.12425e-07 0)
(4.38552e-06 -2.25024e-08 0)
(4.37085e-06 5.83475e-08 0)
(4.32003e-06 1.30245e-07 0)
(4.23737e-06 1.93573e-07 0)
(4.12693e-06 2.48884e-07 0)
(3.9924e-06 2.96833e-07 0)
(3.83714e-06 3.38122e-07 0)
(3.66415e-06 3.73458e-07 0)
(3.47607e-06 4.03529e-07 0)
(3.27522e-06 4.28983e-07 0)
(3.06362e-06 4.50416e-07 0)
(2.84301e-06 4.68372e-07 0)
(2.61489e-06 4.83334e-07 0)
(2.38055e-06 4.95731e-07 0)
(2.14108e-06 5.05935e-07 0)
(1.89741e-06 5.1427e-07 0)
(1.65033e-06 5.2101e-07 0)
(1.40052e-06 5.26386e-07 0)
(1.14856e-06 5.3059e-07 0)
(8.94929e-07 5.33775e-07 0)
(6.40072e-07 5.36063e-07 0)
(3.84372e-07 5.3754e-07 0)
(1.28178e-07 5.38264e-07 0)
(-1.28338e-07 6.42662e-07 0)
(-3.84859e-07 6.41808e-07 0)
(-6.40905e-07 6.40067e-07 0)
(-8.9614e-07 6.37371e-07 0)
(-1.15019e-06 6.33614e-07 0)
(-1.40264e-06 6.28655e-07 0)
(-1.65302e-06 6.22311e-07 0)
(-1.90075e-06 6.14354e-07 0)
(-2.14519e-06 6.04511e-07 0)
(-2.38556e-06 5.92454e-07 0)
(-2.62095e-06 5.778e-07 0)
(-2.8503e-06 5.60104e-07 0)
(-3.07234e-06 5.38857e-07 0)
(-3.28561e-06 5.13481e-07 0)
(-3.48837e-06 4.83328e-07 0)
(-3.67865e-06 4.47682e-07 0)
(-3.85413e-06 4.05766e-07 0)
(-4.0122e-06 3.56754e-07 0)
(-4.14984e-06 2.9979e-07 0)
(-4.26371e-06 2.34021e-07 0)
(-4.35006e-06 1.58645e-07 0)
(-4.40479e-06 7.29757e-08 0)
(-4.42348e-06 -2.34769e-08 0)
(-4.4015e-06 -1.30896e-07 0)
(-4.3341e-06 -2.49031e-07 0)
(-4.21666e-06 -3.77056e-07 0)
(-4.04489e-06 -5.1342e-07 0)
(-3.81524e-06 -6.55712e-07 0)
(-3.52525e-06 -8.00568e-07 0)
(-3.17404e-06 -9.43651e-07 0)
(-2.76281e-06 -1.07976e-06 0)
(-2.29518e-06 -1.20305e-06 0)
(-1.93059e-06 -1.27848e-06 0)
(-1.69187e-06 -1.32036e-06 0)
(-1.44538e-06 -1.35723e-06 0)
(-1.19213e-06 -1.38867e-06 0)
(-9.33236e-07 -1.4143e-06 0)
(-6.69854e-07 -1.43381e-06 0)
(-4.03225e-07 -1.44696e-06 0)
(-1.34628e-07 -1.45357e-06 0)
(1.34628e-07 -1.45357e-06 0)
(4.03225e-07 -1.44696e-06 0)
(6.69854e-07 -1.43381e-06 0)
(9.33236e-07 -1.4143e-06 0)
(1.19213e-06 -1.38867e-06 0)
(1.44538e-06 -1.35723e-06 0)
(1.69187e-06 -1.32036e-06 0)
(1.93059e-06 -1.27848e-06 0)
(2.29518e-06 -1.20305e-06 0)
(2.76281e-06 -1.07976e-06 0)
(3.17404e-06 -9.43651e-07 0)
(3.52525e-06 -8.00568e-07 0)
(3.81524e-06 -6.55712e-07 0)
(4.04489e-06 -5.1342e-07 0)
(4.21666e-06 -3.77056e-07 0)
(4.3341e-06 -2.49031e-07 0)
(4.4015e-06 -1.30896e-07 0)
(4.42348e-06 -2.34769e-08 0)
(4.40479e-06 7.29757e-08 0)
(4.35006e-06 1.58645e-07 0)
(4.26371e-06 2.34021e-07 0)
(4.14984e-06 2.9979e-07 0)
(4.0122e-06 3.56754e-07 0)
(3.85413e-06 4.05766e-07 0)
(3.67865e-06 4.47682e-07 0)
(3.48837e-06 4.83328e-07 0)
(3.28561e-06 5.13481e-07 0)
(3.07234e-06 5.38857e-07 0)
(2.8503e-06 5.60104e-07 0)
(2.62095e-06 5.778e-07 0)
(2.38556e-06 5.92454e-07 0)
(2.14519e-06 6.04511e-07 0)
(1.90075e-06 6.14354e-07 0)
(1.65302e-06 6.22311e-07 0)
(1.40264e-06 6.28655e-07 0)
(1.15019e-06 6.33614e-07 0)
(8.9614e-07 6.37371e-07 0)
(6.40905e-07 6.40067e-07 0)
(3.84859e-07 6.41808e-07 0)
(1.28338e-07 6.42662e-07 0)
(-1.28543e-07 7.57332e-07 0)
(-3.85483e-07 7.56343e-07 0)
(-6.41973e-07 7.54326e-07 0)
(-8.97692e-07 7.51201e-07 0)
(-1.15229e-06 7.46845e-07 0)
(-1.40536e-06 7.41093e-07 0)
(-1.65646e-06 7.33731e-07 0)
(-1.90503e-06 7.24493e-07 0)
(-2.15046e-06 7.13057e-07 0)
(-2.39199e-06 6.99042e-07 0)
(-2.62875e-06 6.81997e-07 0)
(-2.85969e-06 6.61402e-07 0)
(-3.08358e-06 6.36656e-07 0)
(-3.299e-06 6.07079e-07 0)
(-3.50425e-06 5.71909e-07 0)
(-3.69736e-06 5.30298e-07 0)
(-3.87608e-06 4.81326e-07 0)
(-4.03779e-06 4.24007e-07 0)
(-4.1795e-06 3.57318e-07 0)
(-4.29783e-06 2.80233e-07 0)
(-4.38901e-06 1.91776e-07 0)
(-4.44886e-06 9.10953e-08 0)
(-4.47285e-06 -2.24351e-08 0)
(-4.45615e-06 -1.49091e-07 0)
(-4.3938e-06 -2.88647e-07 0)
(-4.28083e-06 -4.40198e-07 0)
(-4.11259e-06 -6.01977e-07 0)
(-3.88506e-06 -7.71186e-07 0)
(-3.59533e-06 -9.43865e-07 0)
(-3.24206e-06 -1.11486e-06 0)
(-2.82606e-06 -1.27791e-06 0)
(-2.35076e-06 -1.42596e-06 0)
(-1.97911e-06 -1.51672e-06 0)
(-1.73515e-06 -1.56715e-06 0)
(-1.48293e-06 -1.61159e-06 0)
(-1.22351e-06 -1.6495e-06 0)
(-9.5806e-07 -1.68042e-06 0)
(-6.87814e-07 -1.70397e-06 0)
(-4.14093e-07 -1.71983e-06 0)
(-1.38266e-07 -1.72782e-06 0)
(1.38266e-07 -1.72782e-06 0)
(4.14093e-07 -1.71983e-06 0)
(6.87814e-07 -1.70397e-06 0)
(9.5806e-07 -1.68042e-06 0)
(1.22351e-06 -1.6495e-06 0)
(1.48293e-06 -1.61159e-06 0)
(1.73515e-06 -1.56715e-06 0)
(1.97911e-06 -1.51672e-06 0)
(2.35076e-06 -1.42596e-06 0)
(2.82606e-06 -1.27791e-06 0)
(3.24206e-06 -1.11486e-06 0)
(3.59533e-06 -9.43865e-07 0)
(3.88506e-06 -7.71186e-07 0)
(4.11259e-06 -6.01977e-07 0)
(4.28083e-06 -4.40198e-07 0)
(4.3938e-06 -2.88647e-07 0)
(4.45615e-06 -1.49091e-07 0)
(4.47285e-06 -2.24351e-08 0)
(4.44886e-06 9.10953e-08 0)
(4.38901e-06 1.91776e-07 0)
(4.29783e-06 2.80233e-07 0)
(4.1795e-06 3.57318e-07 0)
(4.03779e-06 4.24007e-07 0)
(3.87608e-06 4.81326e-07 0)
(3.69736e-06 5.30298e-07 0)
(3.50425e-06 5.71909e-07 0)
(3.299e-06 6.07079e-07 0)
(3.08358e-06 6.36656e-07 0)
(2.85969e-06 6.61402e-07 0)
(2.62875e-06 6.81997e-07 0)
(2.39199e-06 6.99042e-07 0)
(2.15046e-06 7.13057e-07 0)
(1.90503e-06 7.24493e-07 0)
(1.65646e-06 7.33731e-07 0)
(1.40536e-06 7.41093e-07 0)
(1.15229e-06 7.46845e-07 0)
(8.97692e-07 7.51201e-07 0)
(6.41973e-07 7.54326e-07 0)
(3.85483e-07 7.56343e-07 0)
(1.28543e-07 7.57332e-07 0)
(-1.28802e-07 8.83334e-07 0)
(-3.8627e-07 8.82206e-07 0)
(-6.4332e-07 8.79904e-07 0)
(-8.99652e-07 8.76336e-07 0)
(-1.15494e-06 8.71362e-07 0)
(-1.4088e-06 8.6479e-07 0)
(-1.66081e-06 8.56372e-07 0)
(-1.91045e-06 8.45803e-07 0)
(-2.15714e-06 8.3271e-07 0)
(-2.40014e-06 8.16651e-07 0)
(-2.63863e-06 7.97105e-07 0)
(-2.87159e-06 7.73466e-07 0)
(-3.09785e-06 7.4504e-07 0)
(-3.31601e-06 7.11034e-07 0)
(-3.52443e-06 6.70556e-07 0)
(-3.72119e-06 6.22616e-07 0)
(-3.90405e-06 5.66131e-07 0)
(-4.07043e-06 4.99939e-07 0)
(-4.21736e-06 4.22822e-07 0)
(-4.34146e-06 3.33551e-07 0)
(-4.43889e-06 2.30942e-07 0)
(-4.5054e-06 1.13943e-07 0)
(-4.53629e-06 -1.8254e-08 0)
(-4.52654e-06 -1.66063e-07 0)
(-4.47085e-06 -3.29321e-07 0)
(-4.36385e-06 -5.07083e-07 0)
(-4.20039e-06 -6.97385e-07 0)
(-3.97587e-06 -8.97033e-07 0)
(-3.68672e-06 -1.10142e-06 0)
(-3.331e-06 -1.30447e-06 0)
(-2.909e-06 -1.49871e-06 0)
(-2.42381e-06 -1.67562e-06 0)
(-2.04298e-06 -1.78437e-06 0)
(-1.79218e-06 -1.84486e-06 0)
(-1.53245e-06 -1.89821e-06 0)
(-1.26492e-06 -1.94377e-06 0)
(-9.90833e-07 -1.98095e-06 0)
(-7.11534e-07 -2.00927e-06 0)
(-4.28451e-07 -2.02837e-06 0)
(-1.43074e-07 -2.03799e-06 0)
(1.43074e-07 -2.03799e-06 0)
(4.28451e-07 -2.02837e-06 0)
(7.11534e-07 -2.00927e-06 0)
(9.90833e-07 -1.98095e-06 0)
(1.26492e-06 -1.94377e-06 0)
(1.53245e-06 -1.89821e-06 0)
(1.79218e-06 -1.84486e-06 0)
(2.04298e-06 -1.78437e-06 0)
(2.42381e-06 -1.67562e-06 0)
(2.909e-06 -1.49871e-06 0)
(3.331e-06 -1.30447e-06 0)
(3.68672e-06 -1.10142e-06 0)
(3.97587e-06 -8.97033e-07 0)
(4.20039e-06 -6.97385e-07 0)
(4.36385e-06 -5.07083e-07 0)
(4.47085e-06 -3.29321e-07 0)
(4.52654e-06 -1.66063e-07 0)
(4.53629e-06 -1.8254e-08 0)
(4.5054e-06 1.13943e-07 0)
(4.43889e-06 2.30942e-07 0)
(4.34146e-06 3.33551e-07 0)
(4.21736e-06 4.22822e-07 0)
(4.07043e-06 4.99939e-07 0)
(3.90405e-06 5.66131e-07 0)
(3.72119e-06 6.22616e-07 0)
(3.52443e-06 6.70556e-07 0)
(3.31601e-06 7.11034e-07 0)
(3.09785e-06 7.4504e-07 0)
(2.87159e-06 7.73466e-07 0)
(2.63863e-06 7.97105e-07 0)
(2.40014e-06 8.16651e-07 0)
(2.15714e-06 8.3271e-07 0)
(1.91045e-06 8.45803e-07 0)
(1.66081e-06 8.56372e-07 0)
(1.4088e-06 8.6479e-07 0)
(1.15494e-06 8.71362e-07 0)
(8.99652e-07 8.76336e-07 0)
(6.4332e-07 8.79904e-07 0)
(3.8627e-07 8.82206e-07 0)
(1.28802e-07 8.83334e-07 0)
(-1.29124e-07 1.02185e-06 0)
(-3.87248e-07 1.02058e-06 0)
(-6.44994e-07 1.01799e-06 0)
(-9.0209e-07 1.01398e-06 0)
(-1.15823e-06 1.00838e-06 0)
(-1.41308e-06 1.00098e-06 0)
(-1.66623e-06 9.91487e-07 0)
(-1.91722e-06 9.7956e-07 0)
(-2.16547e-06 9.64772e-07 0)
(-2.41032e-06 9.46616e-07 0)
(-2.65098e-06 9.24494e-07 0)
(-2.88649e-06 8.97713e-07 0)
(-3.11573e-06 8.6547e-07 0)
(-3.33735e-06 8.26853e-07 0)
(-3.54977e-06 7.80829e-07 0)
(-3.75113e-06 7.26249e-07 0)
(-3.93925e-06 6.61847e-07 0)
(-4.11159e-06 5.8626e-07 0)
(-4.26518e-06 4.98049e-07 0)
(-4.39664e-06 3.95742e-07 0)
(-4.50211e-06 2.77906e-07 0)
(-4.5772e-06 1.43233e-07 0)
(-4.61707e-06 -9.32189e-09 0)
(-4.61638e-06 -1.80374e-07 0)
(-4.56947e-06 -3.69893e-07 0)
(-4.47044e-06 -5.76947e-07 0)
(-4.31349e-06 -7.99422e-07 0)
(-4.09324e-06 -1.03374e-06 0)
(-3.80528e-06 -1.2746e-06 0)
(-3.44679e-06 -1.51489e-06 0)
(-3.01734e-06 -1.74572e-06 0)
(-2.51955e-06 -1.95679e-06 0)
(-2.12687e-06 -2.087e-06 0)
(-1.86718e-06 -2.15954e-06 0)
(-1.59764e-06 -2.22359e-06 0)
(-1.31947e-06 -2.27833e-06 0)
(-1.03404e-06 -2.32306e-06 0)
(-7.4282e-07 -2.35716e-06 0)
(-4.47396e-07 -2.38016e-06 0)
(-1.49417e-07 -2.39175e-06 0)
(1.49417e-07 -2.39175e-06 0)
(4.47396e-07 -2.38016e-06 0)
(7.4282e-07 -2.35716e-06 0)
(1.03404e-06 -2.32306e-06 0)
(1.31947e-06 -2.27833e-06 0)
(1.59764e-06 -2.22359e-06 0)
(1.86718e-06 -2.15954e-06 0)
(2.12687e-06 -2.087e-06 0)
(2.51955e-06 -1.95679e-06 0)
(3.01734e-06 -1.74572e-06 0)
(3.44679e-06 -1.51489e-06 0)
(3.80528e-06 -1.2746e-06 0)
(4.09324e-06 -1.03374e-06 0)
(4.31349e-06 -7.99422e-07 0)
(4.47044e-06 -5.76947e-07 0)
(4.56947e-06 -3.69893e-07 0)
(4.61638e-06 -1.80374e-07 0)
(4.61707e-06 -9.32189e-09 0)
(4.5772e-06 1.43233e-07 0)
(4.50211e-06 2.77906e-07 0)
(4.39664e-06 3.95742e-07 0)
(4.26518e-06 4.98049e-07 0)
(4.11159e-06 5.8626e-07 0)
(3.93925e-06 6.61847e-07 0)
(3.75113e-06 7.26249e-07 0)
(3.54977e-06 7.80829e-07 0)
(3.33735e-06 8.26853e-07 0)
(3.11573e-06 8.6547e-07 0)
(2.88649e-06 8.97713e-07 0)
(2.65098e-06 9.24494e-07 0)
(2.41032e-06 9.46616e-07 0)
(2.16547e-06 9.64772e-07 0)
(1.91722e-06 9.7956e-07 0)
(1.66623e-06 9.91487e-07 0)
(1.41308e-06 1.00098e-06 0)
(1.15823e-06 1.00838e-06 0)
(9.0209e-07 1.01398e-06 0)
(6.44994e-07 1.01799e-06 0)
(3.87248e-07 1.02058e-06 0)
(1.29124e-07 1.02185e-06 0)
(-1.29518e-07 1.1742e-06 0)
(-3.88447e-07 1.1728e-06 0)
(-6.47046e-07 1.16993e-06 0)
(-9.05078e-07 1.16548e-06 0)
(-1.16228e-06 1.15927e-06 0)
(-1.41834e-06 1.15105e-06 0)
(-1.6729e-06 1.1405e-06 0)
(-1.92553e-06 1.12722e-06 0)
(-2.17573e-06 1.11075e-06 0)
(-2.42288e-06 1.09049e-06 0)
(-2.66623e-06 1.06578e-06 0)
(-2.90491e-06 1.03581e-06 0)
(-3.13786e-06 9.99692e-07 0)
(-3.3638e-06 9.56362e-07 0)
(-3.58123e-06 9.0464e-07 0)
(-3.78837e-06 8.432e-07 0)
(-3.98309e-06 7.70572e-07 0)
(-4.16292e-06 6.85163e-07 0)
(-4.32495e-06 5.85275e-07 0)
(-4.46578e-06 4.69152e-07 0)
(-4.5815e-06 3.35051e-07 0)
(-4.66762e-06 1.81345e-07 0)
(-4.71908e-06 6.66953e-09 0)
(-4.73022e-06 -1.89884e-07 0)
(-4.69488e-06 -4.08514e-07 0)
(-4.60652e-06 -6.48402e-07 0)
(-4.45849e-06 -9.07361e-07 0)
(-4.24438e-06 -1.18147e-06 0)
(-3.95864e-06 -1.46472e-06 0)
(-3.59728e-06 -1.74883e-06 0)
(-3.15878e-06 -2.02325e-06 0)
(-2.64506e-06 -2.27547e-06 0)
(-2.23718e-06 -2.43182e-06 0)
(-1.96593e-06 -2.51907e-06 0)
(-1.68357e-06 -2.59624e-06 0)
(-1.39147e-06 -2.66229e-06 0)
(-1.09111e-06 -2.71632e-06 0)
(-7.84181e-07 -2.75755e-06 0)
(-4.72453e-07 -2.78539e-06 0)
(-1.57811e-07 -2.79941e-06 0)
(1.57811e-07 -2.79941e-06 0)
(4.72453e-07 -2.78539e-06 0)
(7.84181e-07 -2.75755e-06 0)
(1.09111e-06 -2.71632e-06 0)
(1.39147e-06 -2.66229e-06 0)
(1.68357e-06 -2.59624e-06 0)
(1.96593e-06 -2.51907e-06 0)
(2.23718e-06 -2.43182e-06 0)
(2.64506e-06 -2.27547e-06 0)
(3.15878e-06 -2.02325e-06 0)
(3.59728e-06 -1.74883e-06 0)
(3.95864e-06 -1.46472e-06 0)
(4.24438e-06 -1.18147e-06 0)
(4.45849e-06 -9.07361e-07 0)
(4.60652e-06 -6.48402e-07 0)
(4.69488e-06 -4.08514e-07 0)
(4.73022e-06 -1.89884e-07 0)
(4.71908e-06 6.66953e-09 0)
(4.66762e-06 1.81345e-07 0)
(4.5815e-06 3.35051e-07 0)