/*--------------------------------*- C++ -*----------------------------------*\
  =========                 |
  \\      /  F ield         | OpenFOAM: The Open Source CFD Toolbox
   \\    /   O peration     | Website:  https://openfoam.org
    \\  /    A nd           | Version:  10
     \\/     M anipulation  |
\*---------------------------------------------------------------------------*/
FoamFile
{
    format      ascii;
    class       volScalarField;
    location    "0.09";
    object      p;
}
// * * * * * * * * * * * * * * * * * * * * * * * * * * * * * * * * * * * * * //

dimensions      [0 2 -2 0 0 0 0];

internalField   nonuniform List<scalar> 
4000
(
14.0356
14.035
14.0336
14.0314
14.0284
14.0247
14.0203
14.0151
14.0092
14.0025
13.995
13.9868
13.9778
13.968
13.9574
13.946
13.9337
13.9207
13.9067
13.8919
13.8762
13.8595
13.8419
13.8233
13.8036
13.7829
13.7611
13.7382
13.7141
13.6888
13.6622
13.6343
13.6051
13.5743
13.5421
13.5083
13.4728
13.4357
13.3967
13.3558
13.313
13.2681
13.221
13.1717
13.12
13.0658
13.009
12.9496
12.8872
12.8219
12.7535
12.6819
12.6069
12.5283
12.4461
12.36
12.2699
12.1757
12.0772
11.9742
11.8665
11.7541
11.6367
11.5143
11.3866
11.2535
11.1149
10.9707
10.8209
10.6653
10.5039
10.3366
10.1636
9.98487
9.80045
9.61053
9.41525
9.21486
9.0096
8.79982
8.58584
8.36812
8.14705
7.92317
7.69696
7.46901
7.23983
7.01006
6.78022
6.55097
6.32282
6.0964
5.87217
5.65073
5.43249
5.21796
5.00749
4.80152
4.60029
4.40419
4.21335
4.02809
3.84845
3.67468
3.50674
3.34481
3.18878
3.03878
2.89464
2.75644
2.62395
2.49722
2.37598
2.26026
2.14975
2.04447
1.94408
1.8486
1.75765
1.67129
1.58911
1.51119
1.43709
1.36691
1.30022
1.23713
1.1772
1.12057
1.06678
1.01602
0.967783
0.922323
0.879111
0.838435
0.799741
0.76337
0.728734
0.696229
0.66523
0.63619
0.608444
0.582504
0.55766
0.53449
0.512232
0.491533
0.471575
0.453077
0.435159
0.418619
0.402508
0.387707
0.373191
0.359928
0.346813
0.334908
0.323018
0.312303
0.301475
0.291797
0.281878
0.273092
0.263937
0.255906
0.247374
0.239966
0.231921
0.225008
0.217319
0.210782
0.203326
0.197056
0.189722
0.183625
0.176316
0.170313
0.16295
0.156983
0.149505
0.143528
0.135887
0.129869
0.122031
0.115946
0.10789
0.101732
0.0934669
0.0872495
0.0787926
0.0725137
0.0638474
0.0574538
0.0485099
0.0419378
0.0327261
0.0261436
0.0168352
0.0104576
0.00168895
0.00704535
14.0385
14.0379
14.0365
14.0343
14.0313
14.0277
14.0233
14.0181
14.0122
14.0055
13.9981
13.9899
13.9809
13.9711
13.9606
13.9492
13.9371
13.9241
13.9102
13.8955
13.8798
13.8632
13.8457
13.8272
13.8077
13.7872
13.7655
13.7428
13.7188
13.6937
13.6673
13.6396
13.6106
13.5801
13.5481
13.5145
13.4793
13.4424
13.4038
13.3632
13.3207
13.2761
13.2294
13.1804
13.1291
13.0753
13.0189
12.9599
12.8979
12.8331
12.7651
12.6939
12.6193
12.5412
12.4594
12.3738
12.2841
12.1904
12.0922
11.9896
11.8824
11.7703
11.6532
11.531
11.4035
11.2705
11.132
10.9878
10.8378
10.682
10.5202
10.3525
10.1789
9.99934
9.81398
9.62296
9.42641
9.2246
9.01776
8.80624
8.5904
8.37069
8.14754
7.92149
7.69306
7.46286
7.23144
6.99945
6.76746
6.53613
6.30601
6.07773
5.85179
5.62878
5.40913
5.19336
4.98182
4.77494
4.57299
4.37633
4.1851
3.9996
3.81988
3.64615
3.47839
3.31674
3.16111
3.01158
2.86798
2.73037
2.59854
2.4725
2.35199
2.23701
2.12728
2.02279
1.92321
1.82853
1.73841
1.65286
1.5715
1.49436
1.42106
1.35163
1.2857
1.22331
1.16408
1.10809
1.05494
1.00476
0.957121
0.912185
0.869518
0.829316
0.791127
0.755186
0.721019
0.688905
0.658343
0.62966
0.602322
0.576704
0.552239
0.529354
0.507445
0.486991
0.467348
0.449053
0.431418
0.415042
0.399186
0.384514
0.370234
0.357079
0.344193
0.33238
0.320722
0.310094
0.299506
0.28991
0.280239
0.271529
0.262626
0.254655
0.246373
0.239002
0.231198
0.224292
0.216831
0.210266
0.203025
0.196692
0.189562
0.183371
0.176263
0.170142
0.162986
0.156881
0.149622
0.143493
0.13609
0.129906
0.122325
0.116056
0.108272
0.101906
0.093919
0.0874627
0.0792861
0.0727372
0.0643498
0.0576513
0.0489765
0.0420565
0.0331024
0.0261374
0.0170732
0.0103882
0.00150004
0.00698688
14.0444
14.0438
14.0424
14.0402
14.0373
14.0336
14.0292
14.0241
14.0182
14.0116
14.0042
13.9961
13.9871
13.9775
13.967
13.9557
13.9437
13.9308
13.9171
13.9025
13.8871
13.8707
13.8534
13.8351
13.8159
13.7956
13.7742
13.7518
13.7282
13.7035
13.6774
13.6502
13.6215
13.5915
13.56
13.5269
13.4923
13.4559
13.4178
13.3779
13.336
13.2921
13.2461
13.1978
13.1472
13.0942
13.0386
12.9803
12.9193
12.8552
12.7881
12.7178
12.6441
12.5669
12.486
12.4013
12.3126
12.2197
12.1224
12.0206
11.9141
11.8028
11.6863
11.5646
11.4376
11.3049
11.1666
11.0223
10.8721
10.7159
10.5534
10.3847
10.2099
10.0288
9.84155
9.64832
9.44923
9.24454
9.03449
8.81945
8.5998
8.37603
8.1486
7.91812
7.68515
7.45034
7.21432
6.9778
6.7414
6.50582
6.27168
6.03963
5.81022
5.58407
5.36161
5.14338
4.92973
4.72109
4.51773
4.31998
4.12799
3.94203
3.76214
3.58851
3.42111
3.26004
3.1052
2.95664
2.81418
2.67784
2.54739
2.42281
2.30385
2.19046
2.08236
1.9795
1.88158
1.78856
1.70009
1.61616
1.53642
1.46086
1.38911
1.32118
1.25671
1.19573
1.13787
1.08319
1.03132
0.982337
0.935861
0.892027
0.850423
0.811225
0.774004
0.738975
0.705689
0.674401
0.644638
0.616701
0.590087
0.565145
0.541339
0.519068
0.497762
0.477868
0.458777
0.440991
0.423858
0.407938
0.392532
0.378264
0.364384
0.351581
0.339052
0.327552
0.316219
0.305877
0.295597
0.286276
0.276912
0.268475
0.259883
0.252188
0.244222
0.237124
0.229633
0.222987
0.215823
0.209492
0.202519
0.196382
0.189483
0.183444
0.176526
0.17051
0.163505
0.157467
0.150328
0.144234
0.13693
0.130762
0.123266
0.117
0.109292
0.102916
0.0949927
0.0885105
0.080381
0.0737824
0.0654151
0.0586292
0.0499334
0.0428757
0.0338541
0.0267072
0.0175341
0.0106668
0.00156902
0.00712718
14.0532
14.0526
14.0512
14.049
14.0461
14.0425
14.0381
14.0331
14.0272
14.0207
14.0133
14.0053
13.9965
13.9869
13.9766
13.9655
13.9536
13.9409
13.9274
13.9131
13.8979
13.8818
13.8648
13.8469
13.828
13.8081
13.7872
13.7653
13.7422
13.718
13.6925
13.6658
13.6379
13.6085
13.5777
13.5454
13.5116
13.4761
13.4389
13.3998
13.3589
13.316
13.271
13.2238
13.1744
13.1225
13.0681
13.0111
12.9512
12.8885
12.8227
12.7538
12.6814
12.6056
12.5261
12.4428
12.3554
12.2638
12.1679
12.0674
11.9621
11.8519
11.7364
11.6157
11.4893
11.3572
11.2192
11.075
10.9246
10.7677
10.6043
10.4343
10.2576
10.0743
9.88425
9.6877
9.48475
9.27564
9.06065
8.84017
8.61462
8.38453
8.15044
7.91304
7.67297
7.43099
7.18781
6.94423
6.70096
6.45881
6.21844
5.98058
5.74584
5.51487
5.28814
5.06621
4.84943
4.63822
4.43284
4.23359
4.04061
3.85411
3.67412
3.50077
3.33402
3.17393
3.02037
2.87334
2.73267
2.59831
2.47002
2.34774
2.23118
2.12028
2.01472
1.91443
1.81908
1.7286
1.64267
1.56123
1.48392
1.41074
1.34131
1.27564
1.21337
1.15451
1.0987
1.04599
0.99601
0.948851
0.904119
0.861952
0.821943
0.784268
0.748503
0.714863
0.682903
0.652878
0.624318
0.597521
0.571989
0.548066
0.525225
0.503862
0.483416
0.464334
0.446018
0.428968
0.412542
0.397297
0.382542
0.368891
0.355605
0.343361
0.331366
0.320363
0.309503
0.299602
0.289746
0.280822
0.271849
0.263786
0.255573
0.248246
0.24066
0.233932
0.226824
0.220546
0.21376
0.207782
0.201165
0.195347
0.188763
0.182991
0.17633
0.17052
0.163709
0.157816
0.150812
0.144813
0.137597
0.131489
0.124053
0.117831
0.110167
0.103829
0.0959391
0.0894894
0.0813773
0.0747946
0.0664141
0.0596095
0.05085
0.0437208
0.0345745
0.0273043
0.0179523
0.0109361
0.0016184
0.00731167
14.0649
14.0643
14.0629
14.0608
14.0578
14.0543
14.05
14.0449
14.0392
14.0327
14.0254
14.0175
14.0088
13.9993
13.9892
13.9783
13.9666
13.9542
13.941
13.9269
13.9121
13.8964
13.8798
13.8624
13.844
13.8247
13.8043
13.783
13.7606
13.7371
13.7124
13.6865
13.6594
13.6309
13.6011
13.5698
13.537
13.5027
13.4666
13.4288
13.3892
13.3476
13.304
13.2582
13.2103
13.1599
13.1071
13.0517
12.9936
12.9326
12.8686
12.8015
12.731
12.657
12.5794
12.498
12.4125
12.3229
12.2288
12.1301
12.0265
11.9179
11.804
11.6846
11.5594
11.4282
11.2907
11.1469
10.9963
10.8389
10.6744
10.5028
10.3238
10.1375
9.94377
9.74278
9.5346
9.31946
9.09767
8.86963
8.63582
8.39686
8.15339
7.90622
7.65612
7.404
7.15072
6.89722
6.64436
6.39304
6.14405
5.89821
5.65617
5.41864
5.18614
4.95923
4.73828
4.52372
4.31576
4.11469
3.9206
3.73364
3.5538
3.38116
3.21558
3.0571
2.90551
2.7608
2.62271
2.49118
2.36592
2.24685
2.13363
2.02617
1.92412
1.82737
1.73558
1.64864
1.56619
1.48817
1.41421
1.34428
1.27801
1.2154
1.15607
1.10006
1.04699
0.996921
0.949471
0.904733
0.862319
0.82236
0.784456
0.74878
0.71492
0.683092
0.652862
0.62449
0.597513
0.57223
0.548149
0.52561
0.504086
0.483966
0.464692
0.446705
0.429414
0.41332
0.397795
0.383396
0.36945
0.356575
0.344043
0.33253
0.321252
0.310948
0.300775
0.291538
0.282334
0.274037
0.265679
0.258206
0.250575
0.243806
0.236775
0.230577
0.224002
0.218227
0.211945
0.206434
0.20028
0.194876
0.188694
0.183266
0.176931
0.171384
0.164814
0.159102
0.152261
0.146377
0.139262
0.133223
0.125845
0.11967
0.112039
0.105739
0.0978642
0.0914419
0.0833186
0.0767363
0.0682963
0.0614396
0.0525472
0.04529
0.0359215
0.0284424
0.0187895
0.0115085
0.00182858
0.00760387
14.0795
14.0789
14.0775
14.0754
14.0725
14.0689
14.0646
14.0597
14.054
14.0475
14.0404
14.0326
14.024
14.0148
14.0048
13.9941
13.9827
13.9706
13.9577
13.9441
13.9296
13.9144
13.8984
13.8815
13.8637
13.845
13.8254
13.8049
13.7833
13.7607
13.7369
13.7121
13.686
13.6587
13.6301
13.6001
13.5686
13.5356
13.501
13.4648
13.4267
13.3868
13.3449
13.301
13.2549
13.2065
13.1557
13.1024
13.0464
12.9876
12.9259
12.861
12.7929
12.7214
12.6462
12.5672
12.4843
12.3971
12.3054
12.2091
12.1079
12.0015
11.8897
11.7722
11.6487
11.5189
11.3826
11.2394
11.089
10.9312
10.7657
10.5922
10.4107
10.2208
10.0226
9.81609
9.60125
9.37835
9.14765
8.90964
8.66486
8.41404
8.15798
7.89765
7.63402
7.36823
7.10135
6.83454
6.56885
6.30538
6.04505
5.7888
5.53738
5.29153
5.0518
4.81876
4.59276
4.37419
4.16324
3.96016
3.76498
3.5778
3.39852
3.22716
3.0635
2.90749
2.75885
2.61747
2.48305
2.35545
2.23434
2.11957
2.01079
1.90786
1.81039
1.71825
1.63105
1.54867
1.47072
1.39712
1.32746
1.2617
1.19947
1.14073
1.08513
1.03269
0.983046
0.936253
0.891944
0.850215
0.810684
0.77348
0.738211
0.705041
0.673564
0.643989
0.615894
0.589536
0.564473
0.541007
0.518665
0.497793
0.477877
0.459299
0.441505
0.424921
0.408954
0.394087
0.379695
0.366329
0.35333
0.341317
0.329587
0.318823
0.308269
0.298665
0.289194
0.280657
0.27217
0.264593
0.256975
0.250238
0.243358
0.237325
0.231037
0.225556
0.219697
0.214601
0.208994
0.204106
0.198564
0.193709
0.188056
0.183079
0.177172
0.171971
0.165723
0.160257
0.153644
0.147928
0.140973
0.135057
0.127799
0.12173
0.114199
0.108
0.100202
0.0938603
0.0857618
0.0792014
0.0706917
0.0637542
0.0546587
0.0471904
0.0374774
0.0296735
0.0195781
0.0119262
0.00184684
0.00776109
14.0969
14.0964
14.095
14.0928
14.0899
14.0864
14.0822
14.0772
14.0716
14.0652
14.0582
14.0505
14.0421
14.033
14.0232
14.0128
14.0017
13.9899
13.9774
13.9642
13.9503
13.9356
13.9201
13.9039
13.8868
13.8689
13.8502
13.8305
13.8099
13.7883
13.7657
13.7421
13.7173
13.6913
13.6641
13.6356
13.6057
13.5744
13.5415
13.5071
13.471
13.4331
13.3933
13.3515
13.3077
13.2616
13.2133
13.1625
13.1091
13.053
12.994
12.932
12.8668
12.7982
12.7261
12.6502
12.5703
12.4862
12.3977
12.3046
12.2064
12.103
11.9941
11.8792
11.7582
11.6306
11.496
11.3541
11.2045
11.0468
10.8806
10.7055
10.5213
10.3276
10.1242
9.91112
9.68818
9.45561
9.21368
8.96288
8.70386
8.43752
8.16487
7.88715
7.60567
7.32187
7.03714
6.75294
6.47059
6.19142
5.91657
5.64715
5.38401
5.12796
4.87958
4.6394
4.40771
4.18485
3.9709
3.76601
3.57014
3.38329
3.2053
3.03606
2.8753
2.72284
2.57833
2.44157
2.31215
2.18985
2.07426
1.96518
1.86218
1.76507
1.67345
1.58712
1.50569
1.42899
1.35662
1.28846
1.22411
1.16349
1.1062
1.05222
1.00118
0.953082
0.907574
0.86471
0.824137
0.785955
0.749809
0.715837
0.68367
0.653476
0.624862
0.598027
0.572552
0.548679
0.525966
0.504706
0.484439
0.465514
0.447443
0.430626
0.41453
0.399592
0.385223
0.371899
0.358983
0.347005
0.335294
0.324454
0.313786
0.303973
0.294281
0.285464
0.27674
0.268924
0.261168
0.254339
0.247511
0.241595
0.235584
0.230435
0.225065
0.220485
0.215536
0.211296
0.206532
0.202402
0.197588
0.193349
0.188275
0.183752
0.17826
0.17335
0.167368
0.162066
0.155613
0.149996
0.143163
0.137359
0.130254
0.124371
0.117063
0.111138
0.10361
0.0975739
0.0897063
0.0833716
0.0749334
0.0680224
0.0587458
0.0510416
0.0408705
0.0325821
0.0217913
0.0134902
0.00251051
0.00848024
14.1172
14.1167
14.1153
14.1131
14.1102
14.1067
14.1025
14.0975
14.0919
14.0856
14.0787
14.0711
14.0628
14.0539
14.0444
14.0342
14.0235
14.012
14
13.9873
13.9739
13.9598
13.9451
13.9296
13.9134
13.8964
13.8786
13.86
13.8406
13.8202
13.7989
13.7767
13.7534
13.729
13.7034
13.6767
13.6486
13.6193
13.5885
13.5562
13.5223
13.4867
13.4493
13.4101
13.3689
13.3256
13.2801
13.2322
13.1819
13.1289
13.0732
13.0146
12.9528
12.8878
12.8193
12.7471
12.671
12.5908
12.5062
12.4169
12.3227
12.2231
12.118
12.0068
11.8892
11.7647
11.633
11.4934
11.3455
11.1887
11.0225
10.8464
10.6598
10.4622
10.2533
10.0327
9.80031
9.55608
9.30025
9.03335
8.75614
8.46972
8.1754
7.87485
7.56984
7.26235
6.95427
6.64753
6.34383
6.04481
5.75182
5.46614
5.18874
4.92051
4.66201
4.41377
4.17598
3.94884
3.73231
3.52637
3.3308
3.14547
2.97005
2.80433
2.6479
2.50051
2.36168
2.2311
2.10829
1.99293
1.88451
1.78274
1.68713
1.59741
1.51312
1.43404
1.35971
1.28996
1.22434
1.16273
1.1047
1.05016
0.998718
0.95034
0.904658
0.861679
0.821054
0.782826
0.746651
0.712615
0.680377
0.650076
0.621374
0.594457
0.568971
0.545136
0.522562
0.501491
0.481493
0.462834
0.445046
0.428441
0.41253
0.397692
0.383423
0.370175
0.357404
0.345609
0.334183
0.323658
0.313363
0.303877
0.294488
0.28585
0.277229
0.269373
0.261527
0.254523
0.247558
0.241525
0.235543
0.230539
0.225538
0.221486
0.217312
0.213984
0.210346
0.2074
0.203922
0.200972
0.197265
0.193948
0.189677
0.185723
0.180671
0.175961
0.170074
0.164667
0.158063
0.15218
0.145115
0.13908
0.131857
0.125966
0.118797
0.113176
0.106058
0.100568
0.0932317
0.0874686
0.0794264
0.0728497
0.0636044
0.0558257
0.0452191
0.0364212
0.0247182
0.0156266
0.00302343
0.0102449
14.1404
14.1398
14.1384
14.1362
14.1333
14.1297
14.1255
14.1205
14.1149
14.1086
14.1017
14.0942
14.0861
14.0773
14.068
14.0581
14.0477
14.0366
14.025
14.0128
14
13.9866
13.9725
13.9578
13.9425
13.9265
13.9098
13.8924
13.8742
13.8552
13.8353
13.8146
13.793
13.7703
13.7467
13.7219
13.6959
13.6688
13.6403
13.6104
13.5791
13.5462
13.5116
13.4753
13.4372
13.397
13.3548
13.3103
13.2635
13.2143
13.1623
13.1076
13.0499
12.9891
12.9249
12.8571
12.7856
12.71
12.6302
12.5458
12.4564
12.3618
12.2616
12.1553
12.0424
11.9225
11.7949
11.6591
11.5144
11.36
11.1952
11.0192
10.8312
10.6304
10.4161
10.1876
9.9444
9.68636
9.4135
9.12632
8.82574
8.51321
8.19057
7.86011
7.5243
7.18585
6.84739
6.51153
6.18057
5.85662
5.54132
5.23611
4.942
4.65986
4.39018
4.13338
3.88952
3.65864
3.44049
3.23483
3.04122
2.85928
2.68847
2.52838
2.37844
2.23825
2.1072
1.98488
1.8707
1.76425
1.66493
1.57237
1.48599
1.40546
1.33024
1.26005
1.1944
1.13306
1.07557
1.02176
0.971211
0.923796
0.879135
0.837177
0.79758
0.760364
0.725214
0.692199
0.661005
0.631723
0.604021
0.578016
0.553368
0.530244
0.508309
0.487795
0.468353
0.450266
0.433148
0.417308
0.402297
0.388426
0.375172
0.362861
0.350933
0.339798
0.3289
0.318758
0.308807
0.299633
0.290608
0.282346
0.274142
0.266642
0.259099
0.252238
0.245301
0.239114
0.232904
0.227577
0.222309
0.218054
0.213902
0.210822
0.207791
0.205767
0.203614
0.202273
0.200516
0.199284
0.197285
0.195505
0.192629
0.189756
0.185558
0.181319
0.175667
0.170137
0.163246
0.156839
0.14922
0.142582
0.134875
0.128649
0.121361
0.115893
0.109122
0.104235
0.0975264
0.0924924
0.0849562
0.0787983
0.0695555
0.0615927
0.0502802
0.0405845
0.0273706
0.0168681
0.00176095
0.0115367
14.1665
14.1659
14.1644
14.1622
14.1592
14.1555
14.1512
14.1462
14.1405
14.1342
14.1273
14.1198
14.1118
14.1032
14.0941
14.0845
14.0744
14.0638
14.0526
14.041
14.0289
14.0162
14.0031
13.9893
13.975
13.9602
13.9447
13.9286
13.9118
13.8944
13.8762
13.8572
13.8374
13.8168
13.7952
13.7726
13.749
13.7243
13.6984
13.6713
13.6428
13.6129
13.5814
13.5483
13.5135
13.4769
13.4383
13.3977
13.3549
13.3097
13.262
13.2117
13.1586
13.1025
13.0433
12.9806
12.9144
12.8443
12.7701
12.6914
12.608
12.5196
12.4255
12.3255
12.2189
12.1053
11.9838
11.8537
11.7143
11.5645
11.4033
11.2296
11.0421
10.8397
10.6211
10.3851
10.1306
9.85707
9.56394
9.25148
8.92058
8.57311
8.21186
7.84047
7.46293
7.08327
6.70512
6.33192
5.96665
5.612
5.27
4.94224
4.62968
4.33298
4.05236
3.78793
3.53946
3.3067
3.08909
2.88615
2.69711
2.52135
2.35803
2.20648
2.06591
1.9357
1.8151
1.70357
1.60039
1.50508
1.41696
1.33557
1.26028
1.19069
1.12619
1.06646
1.01094
0.959375
0.911271
0.866425
0.824403
0.785077
0.748071
0.713331
0.680528
0.649674
0.620472
0.593003
0.567008
0.542631
0.519611
0.4981
0.477789
0.458829
0.440885
0.424146
0.40827
0.393508
0.379504
0.366581
0.354356
0.343208
0.332683
0.323135
0.313978
0.305539
0.29717
0.289294
0.281304
0.273776
0.266122
0.259018
0.251836
0.245297
0.238701
0.232803
0.226851
0.221658
0.216443
0.212095
0.207803
0.204519
0.201371
0.199342
0.197466
0.196717
0.196012
0.196277
0.19631
0.196959
0.196926
0.197015
0.195909
0.194464
0.191413
0.187786
0.182396
0.176578
0.169165
0.161886
0.153426
0.145941
0.137711
0.131283
0.124277
0.119592
0.114012
0.110742
0.105737
0.102523
0.0964477
0.0915126
0.0828523
0.0750871
0.0632395
0.0525975
0.0376725
0.0246348
0.0069074
0.01159
14.1955
14.1949
14.1934
14.191
14.1879
14.184
14.1795
14.1743
14.1685
14.162
14.155
14.1475
14.1394
14.1308
14.1218
14.1123
14.1025
14.0921
14.0814
14.0703
14.0587
14.0468
14.0344
14.0215
14.0083
13.9945
13.9803
13.9656
13.9503
13.9345
13.9181
13.9011
13.8833
13.8648
13.8456
13.8255
13.8045
13.7826
13.7596
13.7355
13.7102
13.6836
13.6557
13.6262
13.5953
13.5626
13.5282
13.4919
13.4535
13.413
13.3701
13.3249
13.277
13.2263
13.1727
13.1159
13.0557
12.992
12.9244
12.8526
12.7764
12.6954
12.6091
12.517
12.4187
12.3134
12.2004
12.0788
11.9475
11.8055
11.6513
11.4833
11.2998
11.099
10.8787
10.6369
10.3718
10.0816
9.76534
9.42277
9.05456
8.66268
8.25057
7.82361
7.38852
6.95217
6.52042
6.09811
5.68914
5.29671
4.92304
4.56967
4.23728
3.92607
3.63569
3.36562
3.11502
2.8831
2.66889
2.47152
2.28993
2.12319
1.97022
1.8301
1.70176
1.5844
1.47705
1.37903
1.2895
1.20787
1.13339
1.06553
1.00359
0.94711
0.895431
0.848152
0.804683
0.764685
0.727626
0.693243
0.66107
0.630963
0.602577
0.57593
0.550784
0.527202
0.504906
0.48393
0.463997
0.445216
0.427371
0.410658
0.394871
0.380226
0.366461
0.353782
0.34188
0.330977
0.320721
0.311348
0.302446
0.294335
0.286616
0.279728
0.273219
0.267482
0.261876
0.256718
0.251293
0.246002
0.240186
0.234424
0.228142
0.222121
0.215834
0.210185
0.204566
0.199887
0.195406
0.192049
0.188987
0.187187
0.185738
0.185609
0.185789
0.187221
0.188834
0.191513
0.194086
0.197267
0.199791
0.202221
0.203299
0.203498
0.201673
0.198394
0.192737
0.185623
0.176384
0.166561
0.155534
0.145445
0.135245
0.127537
0.120303
0.11644
0.112692
0.112162
0.110338
0.110555
0.107544
0.105246
0.0983104
0.0915994
0.0799915
0.0690921
0.0536739
0.0381221
0.0219092
0.00715168
14.2278
14.2271
14.2254
14.2228
14.2194
14.2153
14.2105
14.2051
14.199
14.1924
14.1853
14.1777
14.1696
14.1612
14.1524
14.1432
14.1337
14.1239
14.1138
14.1033
14.0925
14.0814
14.07
14.0583
14.0462
14.0337
14.0209
14.0077
13.9941
13.9801
13.9656
13.9505
13.935
13.9188
13.902
13.8845
13.8663
13.8472
13.8273
13.8064
13.7844
13.7614
13.7372
13.7117
13.6847
13.6563
13.6263
13.5946
13.561
13.5255
13.4878
13.448
13.4057
13.3609
13.3135
13.2631
13.2097
13.153
13.0929
13.029
12.961
12.8887
12.8116
12.7293
12.6413
12.5468
12.4451
12.3353
12.2161
12.0863
11.944
11.7873
11.6137
11.4204
11.2041
10.961
10.6874
10.3793
10.0336
9.64901
9.22687
8.77192
8.29086
7.79168
7.28334
6.77485
6.27432
5.78896
5.32448
4.88487
4.47236
4.08812
3.73235
3.40468
3.104
2.82897
2.57792
2.34925
2.14131
1.95268
1.78186
1.62759
1.48849
1.36338
1.25097
1.1502
1.05992
0.979243
0.907199
0.843062
0.785984
0.735351
0.690396
0.65058
0.615197
0.583772
0.555657
0.530424
0.507474
0.486431
0.466752
0.448156
0.430277
0.413192
0.396851
0.381477
0.366965
0.353451
0.340719
0.328812
0.317458
0.306757
0.296536
0.287028
0.278105
0.270028
0.2626
0.256075
0.250215
0.245276
0.2409
0.237225
0.233727
0.230626
0.227501
0.224809
0.222124
0.219846
0.217307
0.214777
0.211493
0.207794
0.203007
0.197762
0.191642
0.185609
0.179354
0.173983
0.169059
0.165659
0.16314
0.16254
0.163032
0.165542
0.169001
0.174224
0.180082
0.187342
0.19474
0.202755
0.210006
0.216722
0.221506
0.224386
0.224218
0.22117
0.214611
0.20514
0.192658
0.178545
0.163257
0.148914
0.135633
0.12601
0.118754
0.116513
0.116257
0.120695
0.124509
0.130303
0.131809
0.13275
0.127143
0.12002
0.106509
0.0927227
0.074598
0.0542667
0.0394732
0.000164153
14.2634
14.2626
14.2608
14.2578
14.254
14.2494
14.244
14.2379
14.2312
14.2239
14.2162
14.2081
14.1996
14.1908
14.1817
14.1724
14.1629
14.1532
14.1433
14.1332
14.123
14.1126
14.1021
14.0913
14.0804
14.0693
14.058
14.0465
14.0347
14.0226
14.0103
13.9975
13.9845
13.971
13.957
13.9425
13.9274
13.9117
13.8953
13.8781
13.86
13.841
13.821
13.7999
13.7776
13.754
13.7289
13.7023
13.6741
13.6441
13.6122
13.5784
13.5423
13.504
13.4633
13.4201
13.3741
13.3252
13.2733
13.2182
13.1595
13.0972
13.0308
12.96
12.8844
12.8033
12.7161
12.6219
12.5195
12.4075
12.2839
12.1465
11.9921
11.8172
11.6171
11.3863
11.1181
10.8044
10.4364
10.0048
9.5042
8.9398
8.3313
7.70478
7.0798
6.46622
5.87084
5.30193
4.76691
4.27018
3.81307
3.3954
3.0161
2.67368
2.36606
2.09101
1.84596
1.62845
1.43594
1.2662
1.11703
0.986546
0.87283
0.774224
0.689027
0.615802
0.553093
0.499737
0.45455
0.416631
0.38502
0.359009
0.337791
0.320783
0.307278
0.296763
0.288572
0.282198
0.276949
0.272302
0.267617
0.262555
0.256873
0.250886
0.244728
0.238603
0.23247
0.226608
0.22104
0.215928
0.211073
0.206487
0.201966
0.197649
0.193478
0.189749
0.186434
0.183829
0.181781
0.180614
0.180191
0.180796
0.181965
0.183636
0.18509
0.186435
0.187243
0.187971
0.188125
0.187948
0.186727
0.184683
0.181169
0.176687
0.170811
0.164275
0.156811
0.149558
0.142408
0.136783
0.132494
0.130916
0.131439
0.135151
0.141026
0.149942
0.160648
0.173797
0.187903
0.203174
0.217984
0.231906
0.243188
0.250712
0.253096
0.249347
0.2393
0.223148
0.202445
0.178456
0.153587
0.13046
0.111029
0.0979818
0.0912244
0.0931028
0.100869
0.116776
0.13451
0.155253
0.170581
0.182607
0.184718
0.182167
0.170488
0.155628
0.133834
0.1052
0.0768759
0.0140335
14.303
14.302
14.2998
14.2963
14.2919
14.2867
14.2809
14.2745
14.2675
14.2601
14.2522
14.2441
14.2357
14.227
14.2181
14.2091
14.2
14.1907
14.1813
14.1718
14.1623
14.1527
14.143
14.1333
14.1235
14.1136
14.1037
14.0936
14.0835
14.0732
14.0628
14.0522
14.0414
14.0304
14.0191
14.0074
13.9954
13.9829
13.9699
13.9563
13.9421
13.9272
13.9114
13.8947
13.8771
13.8583
13.8383
13.817
13.7943
13.7701
13.7442
13.7165
13.687
13.6555
13.6218
13.586
13.5478
13.5071
13.464
13.4181
13.3695
13.3179
13.2632
13.2052
13.1436
13.0781
13.0082
12.9332
12.8521
12.7638
12.6663
12.5572
12.433
12.2891
12.1192
11.9157
11.669
11.3684
11.0027
10.556
10.0098
9.33501
8.53957
7.68897
6.84303
6.028
5.25758
4.54516
3.89975
3.32422
2.81705
2.37451
1.99125
1.66136
1.37875
1.13782
0.933274
0.760493
0.615192
0.493811
0.393107
0.310437
0.24329
0.18961
0.147372
0.114972
0.0908124
0.0737069
0.0624389
0.0561791
0.0540106
0.055368
0.0595463
0.0661596
0.0746389
0.0846868
0.095767
0.107505
0.119123
0.129764
0.137882
0.142488
0.144419
0.145347
0.1459
0.146198
0.146098
0.14581
0.145359
0.144945
0.144479
0.144018
0.143446
0.142824
0.142101
0.141406
0.140817
0.140618
0.140886
0.14186
0.143525
0.14616
0.149687
0.154182
0.159029
0.163914
0.168188
0.171951
0.174746
0.176679
0.176987
0.175737
0.172657
0.168398
0.162813
0.156352
0.148842
0.140847
0.132545
0.124976
0.118673
0.114966
0.113951
0.11639
0.122015
0.131825
0.145371
0.162836
0.182981
0.205562
0.229129
0.252313
0.272963
0.288713
0.297591
0.296885
0.286163
0.263111
0.231732
0.193907
0.15366
0.115217
0.083236
0.059227
0.0459418
0.0461572
0.0573463
0.0792825
0.104937
0.136198
0.1627
0.18099
0.182558
0.177131
0.165317
0.157776
0.145946
0.124547
0.0890088
0.0260278
14.3472
14.346
14.3431
14.3384
14.3322
14.325
14.317
14.3085
14.2995
14.2902
14.2808
14.2712
14.2617
14.2522
14.2427
14.2334
14.2242
14.2151
14.2061
14.1973
14.1885
14.18
14.1715
14.1632
14.155
14.147
14.139
14.1311
14.1233
14.1155
14.1078
14.1001
14.0923
14.0845
14.0766
14.0686
14.0603
14.0518
14.043
14.0338
14.0242
14.014
14.0032
13.9916
13.9793
13.966
13.9518
13.9364
13.9197
13.9017
13.8823
13.8612
13.8385
13.814
13.7877
13.7594
13.7291
13.6968
13.6624
13.6259
13.5873
13.5466
13.5039
13.4591
13.4123
13.3636
13.3129
13.2602
13.2052
13.1475
13.0861
13.0193
12.9441
12.8551
12.7433
12.5942
12.3839
12.0803
11.6402
11.0312
10.2433
9.34533
8.34212
7.29301
6.23718
5.2062
4.25169
3.41501
2.70906
2.12825
1.65966
1.28724
0.99385
0.763153
0.581294
0.437173
0.322386
0.230519
0.156969
0.0982446
0.0519266
0.0160176
-0.0109095
-0.0302489
-0.0430077
-0.0502889
-0.0528287
-0.0515071
-0.0468314
-0.0394958
-0.0298192
-0.0183538
-0.00526939
0.0089863
0.0243623
0.0404911
0.057409
0.0748025
0.0925961
0.110181
0.125058
0.132114
0.134356
0.135371
0.13609
0.136456
0.136553
0.136523
0.136397
0.136167
0.135798
0.13529
0.134633
0.133911
0.133185
0.132646
0.132349
0.132388
0.132876
0.134096
0.13613
0.139045
0.142846
0.147594
0.152952
0.158559
0.164108
0.169102
0.173098
0.17602
0.176811
0.174963
0.170703
0.16498
0.157826
0.149807
0.140668
0.131124
0.121445
0.112741
0.105433
0.100577
0.0980755
0.0984405
0.101696
0.109249
0.121592
0.139118
0.161101
0.187226
0.216322
0.246211
0.274363
0.297237
0.312042
0.315397
0.307391
0.285804
0.249781
0.202986
0.15358
0.106134
0.0641553
0.0334986
0.0151022
0.0141673
0.0338468
0.0728957
0.117532
0.16783
0.215816
0.252341
0.254998
0.217399
0.168282
0.136195
0.122804
0.106916
0.0810707
0.0297056
14.3973
14.3958
14.3925
14.3875
14.3814
14.3745
14.3667
14.3581
14.349
14.3395
14.3297
14.3197
14.3097
14.2996
14.2897
14.2798
14.2702
14.2607
14.2514
14.2424
14.2336
14.2251
14.2168
14.2089
14.2013
14.1939
14.1869
14.1801
14.1736
14.1674
14.1614
14.1557
14.1502
14.1448
14.1396
14.1345
14.1295
14.1244
14.1193
14.1141
14.1086
14.1029
14.0968
14.0903
14.0832
14.0754
14.0668
14.0573
14.0468
14.0352
14.0223
14.008
13.9922
13.9749
13.956
13.9354
13.9131
13.889
13.8634
13.8361
13.8075
13.7776
13.7469
13.7156
13.6842
13.6534
13.6239
13.5967
13.5731
13.5547
13.5434
13.5418
13.5522
13.5767
13.6151
13.6625
13.6934
13.6653
13.415
12.7984
11.196
9.11708
7.39444
6.11902
5.03029
4.05065
3.2122
2.52719
1.9797
1.54628
1.20438
0.934821
0.721158
0.55061
0.413196
0.301953
0.211537
0.13836
0.0794295
0.0327615
-0.00356699
-0.0308314
-0.0504835
-0.0634554
-0.0709267
-0.0735793
-0.0723651
-0.0677413
-0.060463
-0.0507992
-0.0393533
-0.0262485
-0.0119808
0.0034346
0.019574
0.0364893
0.0538038
0.0715159
0.0891769
0.106407
0.119721
0.124823
0.12635
0.127516
0.12871
0.129758
0.130637
0.131393
0.131964
0.132319
0.132399
0.13223
0.131826
0.131278
0.130558
0.129844
0.129298
0.129189
0.129612
0.130906
0.13308
0.13636
0.140699
0.146267
0.152445
0.159095
0.165683
0.171727
0.176687
0.180826
0.182586
0.18163
0.17789
0.172139
0.164506
0.155944
0.146064
0.135843
0.12514
0.115602
0.107599
0.103104
0.101475
0.103239
0.107035
0.115089
0.12686
0.14434
0.166391
0.194795
0.227456
0.263742
0.299004
0.329577
0.349533
0.354672
0.34236
0.313617
0.267895
0.210276
0.150484
0.0945594
0.0442047
0.0105072
-0.0123598
-0.0195393
-0.00608578
0.0309098
0.0807293
0.153177
0.232441
0.301922
0.336875
0.312847
0.241716
0.174438
0.115479
0.0707191
0.0333669
0.00631756
14.4561
14.4523
14.4425
14.4288
14.4146
14.4013
14.3886
14.3759
14.3636
14.3518
14.3406
14.3298
14.3196
14.3098
14.3005
14.2916
14.2831
14.2751
14.2674
14.2602
14.2534
14.247
14.241
14.2354
14.2302
14.2254
14.221
14.2171
14.2136
14.2105
14.2078
14.2055
14.2036
14.202
14.2008
14.1998
14.1991
14.1986
14.1982
14.1979
14.1976
14.1973
14.1967
14.1959
14.1947
14.193
14.1907
14.1876
14.1837
14.1788
14.1728
14.1657
14.1573
14.1475
14.1364
14.124
14.1102
14.0952
14.0792
14.0623
14.0448
14.0271
14.0097
13.9932
13.9782
13.9657
13.9567
13.9527
13.9556
13.968
13.994
14.04
14.1162
14.2385
14.4287
14.7204
15.1467
15.7854
16.5848
17.8107
17.6952
13.425
9.94319
7.58483
5.7048
4.26554
3.22083
2.46157
1.90813
1.50053
1.19373
0.956254
0.766741
0.611233
0.480883
0.37031
0.276229
0.196638
0.13011
0.0755273
0.0317809
-0.00219577
-0.0275473
-0.0453478
-0.0566909
-0.0625234
-0.0637647
-0.0611484
-0.0553793
-0.0469733
-0.0364437
-0.0241296
-0.0103997
0.00454325
0.0204417
0.0372374
0.0547597
0.0735937
0.0924727
0.121913
0.127125
0.129382
0.13051
0.131282
0.131886
0.132457
0.132931
0.133349
0.133597
0.133717
0.1336
0.133304
0.132799
0.132257
0.131683
0.131205
0.130844
0.130963
0.131565
0.133003
0.135147
0.138388
0.142544
0.147845
0.153554
0.159665
0.165529
0.170786
0.174931
0.178004
0.178338
0.176309
0.171914
0.165464
0.156983
0.147436
0.137073
0.126725
0.115998
0.106853
0.0986589
0.092827
0.0889845
0.0895527
0.0930339
0.101448
0.113075
0.13018
0.150684
0.176796
0.205711
0.237505
0.267602
0.293165
0.308179
0.310104
0.296726
0.265179
0.217641
0.159788
0.10068
0.0429084
-0.00478592
-0.0386226
-0.0587552
-0.0638703
-0.0532847
-0.0289894
0.00875168
0.071778
0.163215
0.256371
0.313744
0.336093
0.319121
0.288368
0.241594
0.178303
0.0862202
0.00524523
14.5277
14.5368
14.5356
14.5244
14.5097
14.4944
14.4784
14.4619
14.4452
14.4289
14.4132
14.3981
14.3836
14.3699
14.357
14.3448
14.3333
14.3227
14.3127
14.3036
14.2952
14.2875
14.2805
14.2742
14.2687
14.2639
14.2598
14.2564
14.2538
14.2519
14.2507
14.2502
14.2504
14.2513
14.2528
14.255
14.2579
14.2613
14.2653
14.2697
14.2746
14.2799
14.2855
14.2913
14.2972
14.3031
14.3089
14.3145
14.3198
14.3245
14.3286
14.332
14.3344
14.3359
14.3362
14.3353
14.3332
14.3298
14.3253
14.3197
14.3133
14.3063
14.299
14.292
14.2859
14.2812
14.2789
14.2798
14.2847
14.2941
14.3076
14.3252
14.3503
14.3966
14.4888
14.6644
14.9609
15.4446
16.1183
17.1226
17.5407
14.6632
12.2121
10.3548
8.68596
7.24281
6.0333
5.01846
4.16983
3.46233
2.87267
2.38087