/*--------------------------------*- C++ -*----------------------------------*\
  =========                 |
  \\      /  F ield         | OpenFOAM: The Open Source CFD Toolbox
   \\    /   O peration     | Website:  https://openfoam.org
    \\  /    A nd           | Version:  11
     \\/     M anipulation  |
\*---------------------------------------------------------------------------*/
FoamFile
{
    format      ascii;
    class       surfaceScalarField;
    location    "80";
    object      phi;
}
// * * * * * * * * * * * * * * * * * * * * * * * * * * * * * * * * * * * * * //

dimensions      [0 3 -1 0 0 0 0];

internalField   nonuniform List<scalar> 
4000
(
0.0250252
-2.52039e-05
0.0251
-7.47632e-05
0.0252242
-0.000124246
0.025399
-0.000174752
0.025626
-0.000227006
0.0259073
-0.000281373
0.0262451
-0.000337722
0.0266404
-0.000395361
0.0270934
-0.000452964
0.027602
-0.000508564
0.0281615
-0.000559581
0.0287646
-0.000603019
0.0294004
-0.000635798
0.0300556
-0.000655217
0.0307151
-0.000659511
0.0313635
-0.000648379
0.0319868
-0.000623373
0.0325749
-0.000588034
0.0331222
-0.000547322
0.0336285
-0.000506325
0.0340976
-0.00046909
0.0345357
-0.000438057
0.0349496
-0.000413958
0.0353454
-0.0003958
0.0357261
-0.000380669
0.0360899
-0.000363832
0.0364288
-0.00033888
0.0367281
-0.000299295
0.0369678
-0.000239669
0.0371226
-0.000154806
0.037167
-4.44243e-05
0.0370813
8.57383e-05
0.0368463
0.000234975
0.0364528
0.000393482
0.0359009
0.000551909
0.0352
0.000700894
0.0343674
0.000832566
0.0334263
0.000941149
0.032403
0.00102333
0.0313248
0.00107817
0.0302183
0.00110651
0.029108
0.00111028
0.0280162
0.00109178
0.026963
0.00105318
0.0259667
0.000996297
0.025045
0.000921755
0.0242149
0.000830131
0.0234937
0.000721184
0.0229007
0.00059298
0.0224551
0.000445605
0.0221766
0.000278535
0.0220863
9.02695e-05
0.0222023
-0.000115974
0.0225361
-0.000333839
0.0230998
-0.000563659
0.0238897
-0.000789929
0.024921
-0.00103128
0.0261609
-0.00123995
0.0276465
-0.00148558
0.0292909
-0.00164437
0.0311662
-0.00187535
0.0331253
-0.00195907
0.0352485
-0.00212323
-0.00214793
0.0250249
-5.01397e-05
0.0250988
-0.0001486
0.0252216
-0.000247044
0.0253946
-0.000347813
0.0256201
-0.000452452
0.0259005
-0.000561774
0.0262384
-0.000675617
0.0266357
-0.000792642
0.0270929
-0.000910202
0.0276086
-0.00102429
0.0281786
-0.00112955
0.0287952
-0.00121967
0.0294474
-0.00128795
0.0301205
-0.00132835
0.0307979
-0.00133684
0.0314621
-0.00131257
0.0320975
-0.00125884
0.0326931
-0.00118359
0.0332435
-0.00109775
0.0337494
-0.0010122
0.0342157
-0.000935387
0.0346501
-0.000872452
0.0350612
-0.000825124
0.035457
-0.00079151
0.0358419
-0.000765622
0.0362155
-0.000737423
0.0365699
-0.000693243
0.0368893
-0.000618705
0.0371509
-0.00050128
0.037328
-0.000331907
0.0373921
-0.000108515
0.0373184
0.000159384
0.0370874
0.000466007
0.0366884
0.000792481
0.036122
0.00111835
0.0353988
0.00142404
0.0345382
0.00169319
0.0335656
0.00191376
0.0325098
0.00207912
0.0314
0.0021879
0.030264
0.00224252
0.0291268
0.00224749
0.0280107
0.00220793
0.0269353
0.00212851
0.0259188
0.00201283
0.024978
0.00186253
0.0241298
0.00167834
0.023391
0.00145998
0.022781
0.00120305
0.0223198
0.000906751
0.0220279
0.000570423
0.0219283
0.000189906
0.0220358
-0.000223465
0.0223571
-0.000655172
0.0228982
-0.00110478
0.023653
-0.00154467
0.0246385
-0.00201684
0.025825
-0.00242641
0.0272601
-0.00292066
0.0288543
-0.00323857
0.0306943
-0.00371535
0.0326208
-0.00388558
0.0347266
-0.004229
-0.00428904
0.0250242
-7.43728e-05
0.025096
-0.000220398
0.0252157
-0.000366687
0.025385
-0.00051709
0.0256067
-0.000674227
0.0258845
-0.000839588
0.0262221
-0.00101321
0.0266227
-0.00119322
0.0270882
-0.00137566
0.0276182
-0.00155428
0.0282092
-0.00172055
0.0288537
-0.00186424
0.0295397
-0.00197392
0.0302502
-0.00203888
0.0309649
-0.00205155
0.031662
-0.00200963
0.032322
-0.00191882
0.0329321
-0.00179367
0.0334876
-0.00165333
0.0339912
-0.00151573
0.0344501
-0.00139431
0.0348752
-0.00129755
0.0352789
-0.00122885
0.0356731
-0.00118574
0.0360662
-0.00115871
0.0364596
-0.0011308
0.0368458
-0.00107942
0.0372072
-0.000980106
0.0375162
-0.000810323
0.0377402
-0.000555839
0.037844
-0.000212337
0.0377977
0.000205701
0.0375759
0.000687736
0.037166
0.0012024
0.0365693
0.00171512
0.0357996
0.00219369
0.034881
0.00261179
0.033844
0.00295077
0.032722
0.00320109
0.0315481
0.00336182
0.0303524
0.00343824
0.0291611
0.0034388
0.0279965
0.00337255
0.0268774
0.00324762
0.0258208
0.00306944
0.0248423
0.002841
0.0239572
0.00256337
0.0231824
0.00223478
0.0225369
0.00184863
0.0220439
0.00139966
0.021727
0.000887342
0.0215971
0.000319837
0.0216581
-0.000284469
0.0219011
-0.000898173
0.0223298
-0.00153344
0.0229508
-0.00216572
0.0238023
-0.00286834
0.0248704
-0.00349451
0.0262181
-0.00426832
0.0277488
-0.00476927
0.0295549
-0.00552145
0.0314544
-0.00578513
0.0335476
-0.00632215
-0.0064095
0.0250231
-9.74253e-05
0.0250914
-0.000288708
0.0252055
-0.000480873
0.0253681
-0.000679673
0.0255831
-0.000889165
0.0258554
-0.00111187
0.0261907
-0.00134853
0.0265944
-0.00159697
0.0270709
-0.00185216
0.0276218
-0.00210518
0.0282448
-0.00234357
0.0289328
-0.00255223
0.0296721
-0.00271316
0.0304425
-0.00280929
0.0312176
-0.00282668
0.0319671
-0.00275918
0.032665
-0.00261663
0.033296
-0.00242472
0.0338571
-0.00221446
0.0343538
-0.0020124
0.0347973
-0.00183783
0.0352034
-0.00170362
0.0355908
-0.0016162
0.0359785
-0.00157349
0.0363816
-0.00156183
0.0368056
-0.00155479
0.037243
-0.00151683
0.037672
-0.0014091
0.0380598
-0.00119814
0.038362
-0.000857945
0.0385304
-0.000380771
0.0385303
0.000205773
0.0383246
0.00089343
0.0378985
0.00162855
0.0372542
0.00235941
0.0364103
0.00303758
0.0353987
0.00362335
0.0342596
0.0040899
0.0330348
0.00442595
0.0317628
0.00463375
0.0304771
0.00472398
0.0292049
0.00471099
0.027968
0.00460943
0.026784
0.00443166
0.0256682
0.00418525
0.0246339
0.0038753
0.023693
0.00350422
0.022863
0.0030648
0.0221666
0.00254503
0.0216264
0.00193985
0.0212562
0.00125753
0.0210228
0.000553221
0.0209237
-0.000185368
0.0209562
-0.000930634
0.0211702
-0.0017474
0.0216251
-0.00262064
0.0223859
-0.00362912
0.0234391
-0.0045478
0.0248202
-0.00564938
0.0264057
-0.00635475
0.0282613
-0.00737706
0.0301759
-0.00769977
0.0322689
-0.00841508
-0.00844822
0.0250212
-0.000118619
0.025084
-0.000351556
0.0251896
-0.00058642
0.0253413
-0.000831433
0.0255447
-0.00109249
0.0258064
-0.00137364
0.0261351
-0.00167714
0.026539
-0.00200091
0.0270269
-0.00234006
0.0276039
-0.00268216
0.0282707
-0.00301035
0.0290204
-0.00330199
0.0298366
-0.00352937
0.0306951
-0.00366772
0.0315592
-0.00369078
0.0323839
-0.00358392
0.0331333
-0.00336606
0.0337907
-0.0030821
0.0343553
-0.00277906
0.0348366
-0.00249365
0.0352513
-0.00225258
0.0356226
-0.00207488
0.0359783
-0.00197198
0.0363488
-0.00194396
0.0367597
-0.00197272
0.0372238
-0.00201884
0.0377345
-0.00202753
0.0382652
-0.00193981
0.0387687
-0.00170167
0.0391881
-0.00127732
0.0394632
-0.000655901
0.0395331
0.000135865
0.0393545
0.00107204
0.0389048
0.00207821
0.0381912
0.00307301
0.0372409
0.00398791
0.0360967
0.0047675
0.0348118
0.00537484
0.0334407
0.00579708
0.0320318
0.00604258
0.0306238
0.00613204
0.0292448
0.00609001
0.0279142
0.00593993
0.0266475
0.00569839
0.0254561
0.00537661
0.0243476
0.00498381
0.0233334
0.00451842
0.022432
0.00396621
0.0216724
0.00330468
0.0210502
0.00256206
0.0205249
0.00178279
0.0200595
0.00101865
0.0196776
0.00019652
0.0194947
-0.000747746
0.0196377
-0.00189038
0.0201757
-0.00315865
0.021112
-0.00456547
0.0223707
-0.00580647
0.0239138
-0.00719244
0.0256069
-0.00804785
0.0274926
-0.00926278
0.0293589
-0.00956609
0.0313623
-0.0104185
-0.0102768
0.0250184
-0.000137021
0.0250732
-0.000406306
0.0251657
-0.000678944
0.0253008
-0.000966598
0.0254855
-0.00127716
0.0257292
-0.00161729
0.0260433
-0.00199132
0.0264404
-0.00239799
0.0269355
-0.00283514
0.0275391
-0.00328579
0.0282606
-0.00373189
0.0290944
-0.00413578
0.0300198
-0.00445472
0.0310064
-0.00465432
0.0319968
-0.00468121
0.0329223
-0.00450936
0.033737
-0.00418076
0.0344253
-0.00377045
0.0349894
-0.00334313
0.035442
-0.00294631
0.0358068
-0.00261731
0.0361176
-0.00238575
0.0364165
-0.00227081
0.036749
-0.0022765
0.0371567
-0.00238044
0.0376621
-0.00252418
0.0382603
-0.00262578
0.0389193
-0.00259879
0.0395841
-0.00236641
0.0401744
-0.00186769
0.0405982
-0.00107966
0.0407838
-4.97917e-05
0.0406609
0.00119493
0.0401965
0.00254263
0.0393946
0.00387494
0.0382963
0.00508624
0.0369689
0.00609486
0.0354888
0.00685495
0.0339268
0.00735906
0.032342
0.00762744
0.0307788
0.00769525
0.0292665
0.00760226
0.0278228
0.00738359
0.0264584
0.00706288
0.0251775
0.00665745
0.0239791
0.00618228
0.0228773
0.00562021
0.0219011
0.0049424
0.0210408
0.00416493
0.0202331
0.00336979
0.0194152
0.00260071
0.0186643
0.00176951
0.018153
0.000707861
0.0180702
-0.000665013
0.0184816
-0.00230175
0.0193355
-0.00401254
0.0205231
-0.00575303
0.0219341
-0.00721754
0.0235063
-0.00876455
0.0251485
-0.00969005
0.0269074
-0.0110217
0.0285887
-0.0112474
0.0303841
-0.0122139
-0.0117874
0.0250144
-0.00015141
0.0250577
-0.000449641
0.0251313
-0.000752547
0.0252421
-0.00107737
0.0253977
-0.00143273
0.0256121
-0.0018317
0.0258996
-0.00227881
0.0262784
-0.00277684
0.026771
-0.00332768
0.027393
-0.00390786
0.0281744
-0.0045132
0.0291132
-0.0050746
0.0301932
-0.00553474
0.0313717
-0.00583284
0.0325429
-0.00585239
0.0336027
-0.00556917
0.0345008
-0.00507884
0.0352266
-0.00449621
0.0357824
-0.003899
0.0361822
-0.00334611
0.0364534
-0.0028885
0.0366436
-0.00257594
0.0368193
-0.00244652
0.0370505
-0.0025077
0.0373984
-0.00272835
0.0378983
-0.00302403
0.0385494
-0.00327689
0.0393167
-0.00336613
0.0401344
-0.00318404
0.0409189
-0.00265222
0.0415737
-0.00173443
0.0419744
-0.000450564
0.0420105
0.00115883
0.0416277
0.00292545
0.0407989
0.00470374
0.0395589
0.00632623
0.0380072
0.00764664
0.0362712
0.00859091
0.0344634
0.00916685
0.0326623
0.00942859
0.0309151
0.00944243
0.0292479
0.00926947
0.027675
0.00895645
0.0262005
0.00853742
0.0248146
0.00804332
0.0235195
0.00747735
0.0223367
0.006803
0.0212583
0.00602086
0.0202005
0.00522268
0.019095
0.00447527
0.0180267
0.00366906
0.017234
0.00256222
0.0169299
0.00101192
0.0171782
-0.000913349
0.0178923
-0.00301583
0.0189372
-0.00505739
0.0201813
-0.00699719
0.0215514
-0.00858764
0.0229961
-0.0102092
0.0244754
-0.0111693
0.0260252
-0.0125715
0.0274665
-0.0126887
0.0290008
-0.0137482
-0.0129302
0.0250089
-0.000160334
0.025037
-0.000477736
0.0250843
-0.000799801
0.0251609
-0.00115396
0.0252721
-0.00154395
0.0254413
-0.00200091
0.0256808
-0.00251835
0.0260263
-0.00312228
0.0265005
-0.0038019
0.0271281
-0.00453552
0.0279688
-0.00535386
0.0290111
-0.00611688
0.0303096
-0.00683331
0.0317899
-0.00731308
0.0332338
-0.0072963
0.0344828
-0.00681822
0.0354804
-0.00607637
0.0362182
-0.005234
0.0367
-0.00438085
0.0369484
-0.00359451
0.036993
-0.00293308
0.0368858
-0.00246875
0.0367306
-0.00229129
0.0366483
-0.00242542
0.036721
-0.00280103
0.0369893
-0.00329234
0.0374705
-0.00375808
0.0381615
-0.00405718
0.0390265
-0.00404899
0.0399952
-0.00362101
0.0409631
-0.00270224
0.0418135
-0.00130096
0.0423216
0.000650733
0.0423726
0.00287444
0.0418547
0.00522157
0.0407271
0.00745382
0.0390768
0.00929695
0.0370966
0.0105711
0.0349985
0.011265
0.0329345
0.0114926
0.0309776
0.0113993
0.0291492
0.0110979
0.0274493
0.0106564
0.0258625
0.0101242
0.0243736
0.00953221
0.0229918
0.00885918
0.0217128
0.008082
0.0204576
0.00727609
0.019137
0.00654328
0.0178137
0.00579857
0.0167284
0.00475428
0.0161341
0.00315652
0.0161182
0.00102785
0.0166079
-0.00140308
0.0174582
-0.00386608
0.0185414
-0.00614057
0.0197456
-0.00820147
0.0210266
-0.00986856
0.0223258
-0.0115084
0.0236357
-0.0124792
0.0249579
-0.0138938
0.0261461
-0.0138768
0.0273781
-0.0149802
-0.0136695
0.025002
-0.000162359
0.0250108
-0.000486471
0.0250235
-0.000812586
0.0250547
-0.00118512
0.0251017
-0.00159094
0.0252036
-0.00210285
0.0253559
-0.00267058
0.0256442
-0.0034106
0.0260595
-0.00421724
0.0267014
-0.00517737
0.027605
-0.0062575
0.0287154
-0.00722725
0.0303666
-0.00848454
0.0323344
-0.00928087
0.034129
-0.00909095
0.0355255
-0.0082147
0.036471
-0.00702183
0.0369748
-0.00573779
0.0370753
-0.00448135
0.0368441
-0.00336337
0.0363256
-0.00241459
0.0355677
-0.00171081
0.034661
-0.00138459
0.0337892
-0.00155363
0.0330707
-0.00208255
0.0325679
-0.0027895
0.0323981
-0.00358831
0.0327022
-0.00436123
0.0335349
-0.00488169
0.0348192
-0.00490532
0.0363649
-0.00424798
0.0379239
-0.00285994
0.0393855
-0.000810847
0.0404362
0.00182379
0.0409114
0.00474635
0.0406086
0.0077566
0.0394668
0.0104387
0.037639
0.0123989
0.0354293
0.0134748
0.0331381
0.0137837
0.0309542
0.0135832
0.0289491
0.0131031
0.0271187
0.0124868
0.025427
0.0118159
0.0238542
0.011105
0.0223943
0.010319
0.0209847
0.0094916
0.0195172
0.00874362
0.017994
0.00806644
0.0166198
0.00717276
0.0156741
0.00569998
0.0153076
0.00352303
0.0154973
0.000838226
0.0161215
-0.00202734
0.0170385
-0.00478307
0.0181323
-0.00723439
0.0192937
-0.00936283
0.0204808
-0.0110557
0.0216238
-0.0126514
0.0227427
-0.0135981
0.0238055
-0.0149566
0.0247189
-0.0147902
0.0256119
-0.0158732
-0.013997
0.0249942
-0.000156519
0.0249792
-0.000471481
0.0249508
-0.000784247
0.024924
-0.00115834
0.0248881
-0.001555
0.0248932
-0.00210796
0.0249048
-0.00268221
0.0250806
-0.0035863
0.0253227
-0.0044594
0.0260135
-0.0058682
0.0269069
-0.00715085
0.0282403
-0.00856071
0.0305467
-0.0107909
0.0329571
-0.0116913
0.0346526
-0.0107864
0.0355451
-0.00910724
0.0357338
-0.00721053
0.035327
-0.00533103
0.0344377
-0.00359204
0.0332049
-0.00213055
0.031637
-0.000846707
0.0298687
5.75396e-05
0.0278387
0.00064536
0.0255872
0.000697895
0.0234569
4.77593e-05
0.0219501
-0.00128274
0.0214567
-0.00309491
0.0221288
-0.00503332
0.02378
-0.00653293
0.0260436
-0.00716892
0.0285573
-0.00676168
0.0310408
-0.00534336
0.033328
-0.00309807
0.0353822
-0.000230432
0.0369913
0.00313729
0.0379098
0.00683807
0.0378866
0.0104619
0.036874
0.0134116
0.035096
0.0152528
0.0329228
0.0159569
0.0306866
0.0158194
0.028579
0.0152107
0.0266508
0.014415
0.0248834
0.0135833
0.0232561
0.0127323
0.0217201
0.011855
0.0201633
0.0110483
0.0185185
0.0103885
0.0169093
0.00967563
0.0156092
0.00847282
0.0148432
0.006466
0.0146668
0.00369944
0.0150006
0.000504496
0.0157155
-0.0027423
0.0166751
-0.00574262
0.0177618
-0.00832109
0.0188643
-0.0104654
0.0199372
-0.0121286
0.0209083
-0.0136225
0.021816
-0.0145059
0.0226046
-0.0157452
0.0232381
-0.0154237
0.023783
-0.0164182
-0.0139464
0.024986
-0.000142476
0.0249432
-0.000428733
0.0248705
-0.000711525
0.0247729
-0.00106078
0.024645
-0.00142706
0.0245161
-0.00197904
0.0243545
-0.00252063
0.0243039
-0.0035357
0.0242153
-0.00437076
0.0247575
-0.00641046
0.0252969
-0.00769021
0.0276963
-0.0109601
0.0303679
-0.0134625
0.0317575
-0.0130809
0.0316567
-0.0106856
0.0305803
-0.00803077
0.0289094
-0.00553963
0.0269538
-0.0033754
0.0248581
-0.0014964
0.0225892
0.00013836
0.0198235
0.00191893
0.0165277
0.00335343
0.0131646
0.00400839
0.0104383
0.00342424
0.00906664
0.0014194
0.00932864
-0.00154474
0.0109077
-0.00467396
0.0133428
-0.00746846
0.0162945
-0.00948463
0.0194871
-0.0103615
0.0226603
-0.00993479
0.0255856
-0.00826874
0.0281569
-0.0056693
0.0303887
-0.00246228
0.0323283
0.00119774
0.0338632
0.00530313
0.0347112
0.00961385
0.0346252
0.0134976
0.0336083
0.0162698
0.0319222
0.0176429
0.029926
0.0178155
0.0279017
0.017235
0.0259854
0.0163313
0.0242149
0.0153538
0.0225738
0.0143734
0.0209718
0.013457
0.0192942
0.0127259
0.0175589
0.0121238
0.0159786
0.011256
0.0148191
0.00963231
0.0142318
0.00705331
0.0142085
0.00372281
0.0146475
6.54453e-05
0.0154233
-0.00351811
0.0164033
-0.00672262
0.0174673
-0.00938507
0.0185032
-0.0115013
0.0194563
-0.0130816
0.0202566
-0.0144227
0.0209475
-0.0151968
0.0214651
-0.0162628
0.0218246
-0.0157832
0.0220356
-0.0166291
-0.0135809
0.0249775
-0.000119991
0.0249055
-0.000356752
0.0247875
-0.000593444
0.0246122
-0.000885524
0.0243905
-0.00120533
0.0240994
-0.00168794
0.0237669
-0.00218817
0.0233659
-0.0031347
0.0229143
-0.00391918
0.0226353
-0.00613145
0.0222646
-0.0073195
0.025301
-0.0139965
0.02593
-0.0140915
0.0231055
-0.0102564
0.0197047
-0.00728488
0.0162982
-0.00462423
0.0130638
-0.00230527
0.0101935
-0.000505031
0.00794307
0.000753999
0.00648627
0.00159516
0.00383021
0.00457499
0.00192848
0.00525517
0.00105442
0.00488245
0.00112556
0.00335309
0.0018343
0.00071067
0.00300377
-0.00271421
0.0047109
-0.00638109
0.00704625
-0.00980381
0.00999328
-0.0124317
0.0134091
-0.0137774
0.017029
-0.0135547
0.0205179
-0.0117576
0.0235894
-0.00874079
0.0260967
-0.00496956
0.0281256
-0.000831136
0.0297693
0.00365943
0.0309679
0.00841521
0.0314878
0.0129777
0.0311766
0.016581
0.0301177
0.0187018
0.0285755
0.0193578
0.0268311
0.0189794
0.0250766
0.0180858
0.0234054
0.0170251
0.0218072
0.0159715
0.0201793
0.0150849
0.0184507
0.0144545
0.0167266
0.0138478
0.0152638
0.0127188
0.0142822
0.0106139
0.0138677
0.00746787
0.0139721
0.00361841
0.0144927
-0.000455175
0.0153083
-0.0043337
0.0162908
-0.0077052
0.0173184
-0.0104127
0.018279
-0.0124619
0.0191069
-0.0139096
0.0197377
-0.0150535
0.0202105
-0.0156696
0.0204704
-0.0165227
0.0205703
-0.0158831
0.0204854
-0.0165443
-0.0129854
0.0249688
-8.87911e-05
0.0248704
-0.000258329
0.0247069
-0.000429925
0.0244601
-0.000638796
0.0241406
-0.0008858
0.0236967
-0.00124402
0.0231828
-0.00167432
0.0224379
-0.0023898
0.0216761
-0.00315729
0.0203087
-0.00476407
0.0188007
-0.00581154
0.0150151
-0.0102109
0.00841929
-0.00749568
0.00433013
-0.00616722
0.00208235
-0.00503711
0.000963827
-0.0035057
0.000457177
-0.00179862
0.000234387
-0.000282241
0.000168627
0.000819759
4.93589e-05
0.00171443
-0.0014904
0.00611475
-0.00238306
0.00614782
-0.00290894
0.00540833
-0.00339201
0.00383616
-0.00367299
0.00099165
-0.00346153
-0.00292567
-0.00240385
-0.00743877
-0.000396345
-0.0118113
0.00246709
-0.0152951
0.00601085
-0.0173212
0.0100058
-0.0175497
0.0141193
-0.0158711
0.0179355
-0.012557
0.021155
-0.00818912
0.0237003
-0.00337639
0.0256028
0.00175693
0.0270272
0.00699081
0.0279196
0.0120853
0.0281517
0.0163489
0.0277011
0.0191524
0.0267069
0.020352
0.0253845
0.0203018
0.0239311
0.0195391
0.0224652
0.018491
0.0209801
0.0174566
0.0193946
0.0166704
0.0177112
0.0161379
0.0161062
0.0154527
0.0148263
0.0139987
0.014049
0.0113912
0.0138037
0.00771311
0.0140244
0.0033977
0.0146073
-0.00103804
0.015441
-0.00516743
0.0164032
-0.00866739
0.0173743
-0.0113837
0.0182452
-0.0133328
0.0189427
-0.0146071
0.0194084
-0.0155192
0.0196711
-0.0159323
0.0196967
-0.0165482
0.0195609
-0.0157474
0.0192333
-0.0162167
-0.0122509
0.024961
-4.97558e-05
0.0248413
-0.000138638
0.024637
-0.00022566
0.0243337
-0.000335479
0.0239207
-0.000472771
0.0233615
-0.000684887
0.0226485
-0.000961339
0.0216756
-0.00141688
0.0204694
-0.00195109
0.0186159
-0.00291053
0.0164632
-0.00365888
0.0122415
-0.00598914
0.00884154
-0.00409575
0.00620117
-0.00352685
0.00406617
-0.00290211
0.0024538
-0.00189333
0.00138404
-0.00072885
0.000729745
0.000372049
0.000256933
0.00129257
-0.000314046
0.00228541
-0.00210719
0.00790789
-0.00377665
0.00781728
-0.00560357
0.00723525
-0.00716381
0.0053964
-0.00799145
0.00181929
-0.0080065
-0.00291062
-0.00712425
-0.00832102
-0.00542733
-0.0135082
-0.00297679
-0.0177456
0.000162689
-0.0204606
0.0038934
-0.0212804
0.00800181
-0.0199795
0.012126
-0.0166812
0.0158594
-0.0119224
0.0188832
-0.00640023
0.0212161
-0.000576005
0.0229363
0.00527066
0.0241452
0.0108763
0.0248182
0.0156759
0.0249168
0.0190538
0.0244882
0.0207807
0.0236665
0.0211235
0.0226167
0.0205889
0.0214455
0.0196622
0.0201478
0.0187543
0.0186894
0.0181289
0.0171523
0.017675
0.0157588
0.0168462
0.0147314
0.0150262
0.0141859
0.0119367
0.0141074
0.00779162
0.0144294
0.00307572
0.0150579
-0.00166662
0.0158867
-0.00599614
0.0168027
-0.00958343
0.0176929
-0.012274
0.0184556
-0.0140954
0.0190152
-0.0151668
0.0193197
-0.0158236
0.0193855
-0.0159982
0.0192037
-0.0163664
0.0188615
-0.0154052
0.018347
-0.0157021
-0.0114595
0.0249557
-5.42372e-06
0.0248202
-3.20859e-06
0.0245879
6.68648e-06
0.0242426
9.77956e-06
0.0237659
3.97754e-06
0.0231177
-3.67512e-05
0.022267
-0.000110586
0.0211282
-0.000278059
0.0196535
-0.000476441
0.0176251
-0.000882099
0.015163
-0.00119682
0.0113234
-0.0021495
0.00871721
-0.00148957
0.00644362
-0.00125326
0.00444509
-0.000903585
0.0028862
-0.000334443
0.00180664
0.000350702
0.00111476
0.00106394
0.000646442
0.00176089
0.000157433
0.00277442
-0.00181216
0.00987748
-0.00407502
0.0100801
-0.00626478
0.00942501
-0.00784333
0.00697494
-0.00848761
0.00246357
-0.0084938
-0.00290442
-0.00783117
-0.00898365
-0.00660099
-0.0147384
-0.0049199
-0.0194267
-0.0027755
-0.0226051
-3.48915e-05
-0.024021
0.00334705
-0.0233614
0.00711645
-0.0204506
0.0108386
-0.0156446
0.0141073
-0.00966892
0.0167485
-0.00321718
0.0187792
0.00323996
0.0203104
0.00934514
0.0213879
0.0145984
0.021991
0.0184506
0.022115
0.0206566
0.0218271
0.0214114
0.0212402
0.0211758
0.0204253
0.0204771
0.0193828
0.0197968
0.0181415
0.0193701
0.0168557
0.0189608
0.015756
0.0179459
0.0150272
0.015755
0.01473
0.012234
0.0148259
0.00769565
0.0152427
0.00265899
0.0158986
-0.00232255
0.0166973
-0.0067949
0.0175376
-0.0104237
0.018317
-0.0130534
0.0189462
-0.0147245
0.0193549
-0.0155754
0.0194987
-0.0159674
0.019383
-0.0158825
0.0190213
-0.0160047
0.0185047
-0.0148887
0.0178523
-0.0150497
-0.0106742
0.0249533
4.13035e-05
0.0248104
0.000139633
0.0245647
0.000252432
0.024198
0.000376514
0.0236901
0.00051186
0.0230005
0.000652782
0.0220907
0.000799261
0.0208666
0.000946022
0.0192983
0.00109184
0.0171668
0.00124947
0.0146393
0.00133064
0.0108421
0.00164772
0.0085091
0.00084342
0.00652822
0.000727614
0.00472779
0.00089685
0.00325685
0.00113649
0.00218888
0.00141867
0.00149807
0.00175475
0.00109468
0.00216427
0.000829656
0.00303944
-0.000776236
0.0114834
-0.00270368
0.0120076
-0.00433591
0.0110572
-0.00524604
0.00788507
-0.00550025
0.00271778
-0.00524793
-0.00315674
-0.00461047
-0.00962111
-0.00372891
-0.01562
-0.00280887
-0.0203467
-0.00190137
-0.0235125
-0.000767086
-0.0251553
0.00105954
-0.025188
0.00369781
-0.0230889
0.00680452
-0.0187513
0.00986508
-0.0127295
0.0125537
-0.00590576
0.0147911
0.00100252
0.0166171
0.00751919
0.0180735
0.0131419
0.019143
0.0173812
0.0197917
0.0200079
0.0200356
0.0211676
0.0199281
0.0212834
0.0194992
0.0209059
0.0187667
0.0205292
0.0178249
0.0203119
0.0168754
0.0199103
0.0161435
0.0186778
0.0157544
0.0161442
0.0157199
0.0122685
0.0159888
0.00742674
0.0164937
0.00215408
0.0171566
-0.0029855
0.0178993
-0.0075376
0.0186328
-0.0111571
0.0192689
-0.0136896
0.0197356
-0.0151912
0.0199752
-0.015815
0.0199548
-0.015947
0.0196718
-0.0155995
0.0191549
-0.0154878
0.0184953
-0.0142291
0.0177402
-0.0142946
-0.00993303
0.0249538
8.74825e-05
0.0248128
0.000280643
0.0245708
0.000494484
0.0242098
0.000737443
0.0237106
0.00101108
0.0230301
0.00133329
0.0221335
0.00169584
0.0209233
0.00215625
0.019377
0.00263808
0.0172583
0.00336826
0.014762
0.00382692
0.010971
0.00543873
0.00861444
0.00319995
0.00662975
0.0027123
0.00483954
0.00268706
0.00338573
0.0025903
0.00234866
0.00245574
0.0017182
0.00238521
0.00145555
0.00242692
0.00156338
0.00293162
0.00100966
0.0120371
-4.97838e-05
0.013067
-0.000453896
0.0114614
-0.000358048
0.00778922
-5.03121e-05
0.00241004
0.000618472
-0.00382553
0.00140034
-0.010403
0.00208974
-0.0163094
0.00251795
-0.020775
0.00247108
-0.0234657
0.00202174
-0.0247059
0.00178103
-0.0249473
0.00253254
-0.0238404
0.00432704
-0.0205458
0.00669303
-0.0150955
0.00907428
-0.00828702
0.0113192
-0.00124243
0.0133445
0.00549389
0.0151164
0.0113701
0.016593
0.0159045
0.0177151
0.0188857
0.018453
0.0204298
0.0188008
0.0209356
0.0187584
0.0209483
0.0183741
0.0209135
0.0178002
0.0208859
0.017261
0.0204495
0.0169402
0.0189986
0.0169165
0.0161679
0.0171583
0.0120267
0.0175998
0.00698518
0.0181743
0.00157962
0.018828
-0.00363918
0.0194889
-0.00819858
0.020085
-0.0117532
0.0205451
-0.0141496
0.0208184
-0.0154644
0.0208669
-0.0158636
0.0206742
-0.0157543
0.0202344
-0.0151597
0.0195827
-0.0148361
0.0188087
-0.013455
0.0179726
-0.0134585
-0.00924867
0.0249574
0.000130053
0.0248278
0.000410276
0.0246062
0.000716125
0.0242766
0.00106696
0.0238226
0.0014651
0.023205
0.00195091
0.022394
0.00250689
0.0212971
0.00325311
0.0198822
0.00405295
0.0179063
0.00534422
0.0155217
0.00621147
0.0117309
0.0092296
0.00906594
0.00586488
0.00675912
0.00501911
0.00477257
0.00467361
0.00326286
0.00410002
0.00225987
0.00345873
0.00171229
0.0029328
0.00158311
0.0025561
0.00209936
0.00241537
0.00308397
0.0110525
0.00375383
0.0123972
0.00459611
0.0106191
0.00550675
0.00687859
0.00627782
0.00163897
0.0071105
-0.00465821
0.00788981
-0.0111823
0.00854396
-0.0169635
0.00884443
-0.0210754
0.00849691
-0.0231182
0.00723723
-0.0234462
0.00535454
-0.0230646
0.00393285
-0.0224187
0.00383557
-0.0204485
0.0049808
-0.0162407
0.00675619
-0.0100624
0.00874843
-0.00323467
0.0107948
0.00344748
0.0127604
0.00940457
0.0145492
0.0141157
0.0160618
0.0173731
0.0172173
0.0192743
0.0179601
0.0201928
0.0182813
0.0206271
0.0182679
0.0209269
0.0181102
0.0210436
0.0180242
0.0205355
0.0181458
0.018877
0.018494
0.0158197
0.0190078
0.0115129
0.0196134
0.00637957
0.0202501
0.000942878
0.0208733
-0.00426237
0.0214282
-0.00875347
0.0218584
-0.0121834
0.022112
-0.0144033
0.0221629
-0.0155153
0.0219981
-0.0156988
0.0216224
-0.0153786
0.0210327
-0.0145701
0.0202626
-0.014066
0.0193987
-0.0125911
0.0184933
-0.0125531
-0.00861298
0.0249637
0.000166331
0.0248537
0.000520285
0.0246669
0.000902981
0.0243905
0.00134334
0.0240142
0.00184141
0.0235046
0.00246049
0.0228503
0.0031612
0.0219515
0.0041519
0.020829
0.00517543
0.0190727
0.0071005
0.0170303
0.00825384
0.0128311
0.0134288
0.00940896
0.00928705
0.00675997
0.0076681
0.00464709
0.00678649
0.00308535
0.00566176
0.00208578
0.0044583
0.00156642
0.00345216
0.00147114
0.00265137
0.00233595
0.00155056
0.0051166
0.00827183
0.00744395
0.0100698
0.00940568
0.00865735
0.0110925
0.00519172
0.0125224
0.00020909
0.013758
-0.00589376
0.0147254
-0.0121497
0.0152331
-0.0174712
0.0151626
-0.0210049
0.0144786
-0.0224342
0.0130112
-0.0219788
0.0105199
-0.0205733
0.00753941
-0.0194383
0.00545432
-0.0183634
0.00498638
-0.0157728
0.0058214
-0.0108974
0.00734716
-0.00476043
0.00920137
0.00159327
0.011198
0.00740799
0.0131657
0.0121479
0.0149481
0.0155907
0.0164107
0.0178117
0.0174661
0.0191374
0.0181167
0.0199764
0.0184836
0.02056
0.0187682
0.0207589
0.0191531
0.0201506
0.0197158
0.0183143
0.0204259
0.0151096
0.0211977
0.0107411
0.0219525
0.00562471
0.0226381
0.000257274
0.0232163
-0.00484057
0.0236457
-0.00918283
0.0238857
-0.0124234
0.0239072
-0.0144247
0.0237117
-0.0153198
0.0233153
-0.0153025
0.0227467
-0.01481
0.022012
-0.0138353
0.0211374
-0.0131913
0.020204
-0.0116577
0.0192361
-0.0115853
-0.00800443
0.0249725
0.000193822
0.0248873
0.000605527
0.0247475
0.00104277
0.024537
0.00155383
0.0242674
0.00211099
0.0238869
0.00284105
0.0234559
0.00359216
0.0227961
0.00481168
0.0221657
0.00580586
0.0208715
0.00839473
0.0195826
0.00954274
0.0158816
0.0171297
0.00888339
0.0162853
0.00457413
0.0119774
0.00232935
0.00903126
0.00131245
0.00667866
0.000883895
0.00488686
0.000737167
0.00359889
0.00066703
0.00272151
0.00134715
0.000870448
0.00534287
0.00427611
0.00948672
0.00592597
0.0130426
0.00510148
0.0161115
0.0021228
0.0186654
-0.00234478
0.020679
-0.00790742
0.0219075
-0.0133782
0.0221664
-0.0177301
0.0214472
-0.0202857
0.0199773
-0.0209644
0.0180651
-0.0200666
0.0155693
-0.0180775
0.0122096
-0.0160786
0.00877634
-0.0149301
0.00664455
-0.013641
0.00628543
-0.0105383
0.0071488
-0.0056238
0.00866636
7.57126e-05
0.0105372
0.00553717
0.0125243
0.0101608
0.0144203
0.0136947
0.0160547
0.0161773
0.0173329
0.0178593
0.0182764
0.0190329
0.0190218
0.0198146
0.0197531
0.0200276
0.0206012
0.0193025
0.0215817
0.0173338
0.0226258
0.0140655
0.0236289
0.00973796
0.0245142
0.00473946
0.0252352
-0.000463697
0.0257569
-0.00536236
0.0260448
-0.00947068
0.0260742
-0.0124528
0.0258428
-0.0141933
0.0253845
-0.0148615
0.0247461
-0.014664
0.0239804
-0.0140443
0.0231071
-0.012962
0.0221399
-0.0122242
0.0211558
-0.0106736
0.0201333
-0.0105628
-0.00739668
0.0249822
0.000211578
0.024926
0.000661794
0.0248376
0.00113114
0.024705
0.00168641
0.0245466
0.00226944
0.024328
0.0030596
0.0241036
0.00381657
0.0237997
0.00511557
0.023515
0.00609058
0.0233571
0.00855259
0.0231688
0.00973105
0.0266216
0.013677
0.0268189
0.016088
0.0233916
0.0154046
0.019641
0.0127819
0.0163073
0.0100124
0.0136681
0.00752606
0.0119022
0.00536475
0.0107353
0.00388844
0.00930528
0.00230045
0.0113175
0.00226393
0.0149499
0.0022935
0.0190916
0.000959857
0.0229359
-0.00172153
0.026179
-0.0055879
0.0283138
-0.0100422
0.0291316
-0.014196
0.0286269
-0.0172254
0.0270224
-0.0186811
0.0246642
-0.0186062
0.0220359
-0.0174383
0.0194645
-0.0155061
0.0165439
-0.013158
0.0129558
-0.011342
0.00967127
-0.0103565
0.00796301
-0.00883004
0.00794238
-0.00560318
0.00900525
-0.000987149
0.0106439
0.00389852
0.0125263
0.00827841
0.0144093
0.0118117
0.0161124
0.0144743
0.0175508
0.0164209
0.0187611
0.0178225
0.019873
0.0187028
0.0210307
0.0188699
0.022303
0.0180302
0.0236599
0.0159769
0.0249912
0.0127342
0.0261929
0.00853631
0.0271862
0.0037461
0.0279294
-0.00120686
0.0283825
-0.00581549
0.0285123
-0.00960049
0.0283119
-0.0122524
0.0278125
-0.0136939
0.0270844
-0.0141334
0.0262054
-0.013785
0.0252483
-0.0130873
0.0242473
-0.011961
0.023202
-0.0111789
0.0221854
-0.00965694
0.0211218
-0.00949923
-0.00676744
0.0249915
0.000220089
0.0249666
0.000686693
0.0249279
0.00116978
0.0248793
0.00173507
0.0248227
0.00232601
0.0247803
0.00310201
0.024734
0.00386283
0.0248197
0.00502987
0.024882
0.0060283
0.0256721
0.00776246
0.0263198
0.00908336
0.0292402
0.0107567
0.0321125
0.0132157
0.0334411
0.014076
0.0332132
0.0130097
0.0321067
0.0111189
0.0306156
0.00901722
0.0290917
0.00688861
0.0279581
0.00502204
0.0270537
0.00320491
0.0274695
0.00184808
0.02909
0.000673025
0.031366
-0.00131618
0.0336365
-0.00399204
0.0352878
-0.00723914
0.0358455
-0.0106
0.03512
-0.0134704
0.0332386
-0.015344
0.0305874
-0.0160299
0.027609
-0.0156278
0.0246276
-0.0144569
0.0219793
-0.0128578
0.0196594
-0.0108381
0.0169457
-0.00862833
0.0136166
-0.00702743
0.0108291
-0.00604252
0.00962176
-0.00439581
0.00996332