/*--------------------------------*- C++ -*----------------------------------*\
  =========                 |
  \\      /  F ield         | OpenFOAM: The Open Source CFD Toolbox
   \\    /   O peration     | Website:  https://openfoam.org
    \\  /    A nd           | Version:  10
     \\/     M anipulation  |
\*---------------------------------------------------------------------------*/
FoamFile
{
    format      ascii;
    class       volVectorField;
    location    "2.7";
    object      Ua;
}
// * * * * * * * * * * * * * * * * * * * * * * * * * * * * * * * * * * * * * //

dimensions      [0 1 -1 0 0 0 0];

internalField   nonuniform List<vector> 
12225
(
(2.92505e-05 -3.60197e-06 0)
(8.55688e-05 -3.38437e-06 0)
(0.000137004 -3.0243e-06 0)
(0.000183094 -2.63724e-06 0)
(0.000224258 -2.29509e-06 0)
(0.000261324 -2.03138e-06 0)
(0.000295215 -1.85702e-06 0)
(0.000326807 -1.77375e-06 0)
(0.000356894 -1.78303e-06 0)
(0.000386212 -1.89212e-06 0)
(0.000415499 -2.11979e-06 0)
(0.000445588 -2.50508e-06 0)
(0.000477568 -3.12528e-06 0)
(0.000513086 -4.13899e-06 0)
(0.000555047 -5.90682e-06 0)
(0.000609621 -9.40714e-06 0)
(0.00069386 -1.81397e-05 0)
(0.000876739 -5.0258e-05 0)
(2.18676e-05 -9.55427e-06 0)
(6.41964e-05 -8.99615e-06 0)
(0.000103342 -8.0478e-06 0)
(0.000138931 -7.0183e-06 0)
(0.00017117 -6.10346e-06 0)
(0.00020056 -5.39708e-06 0)
(0.000227694 -4.93172e-06 0)
(0.000253156 -4.71456e-06 0)
(0.00027749 -4.75157e-06 0)
(0.000301215 -5.06418e-06 0)
(0.000324857 -5.70507e-06 0)
(0.000349014 -6.78211e-06 0)
(0.000374458 -8.50643e-06 0)
(0.000402324 -1.13055e-05 0)
(0.000434491 -1.61281e-05 0)
(0.000474422 -2.54213e-05 0)
(0.000528307 -4.69938e-05 0)
(0.000594252 -0.000113167 0)
(1.80902e-05 -1.376e-05 0)
(5.32776e-05 -1.30129e-05 0)
(8.61834e-05 -1.16842e-05 0)
(0.00011648 -1.02196e-05 0)
(0.000144264 -8.90857e-06 0)
(0.000169866 -7.89459e-06 0)
(0.000193703 -7.23147e-06 0)
(0.000216201 -6.93469e-06 0)
(0.00023777 -7.01694e-06 0)
(0.000258802 -7.5129e-06 0)
(0.000279702 -8.5027e-06 0)
(0.000300922 -1.01465e-05 0)
(0.000323027 -1.27515e-05 0)
(0.000346784 -1.69231e-05 0)
(0.00037329 -2.39432e-05 0)
(0.000403936 -3.68256e-05 0)
(0.000438585 -6.35142e-05 0)
(0.000461772 -0.000125956 0)
(1.54921e-05 -1.68874e-05 0)
(4.57657e-05 -1.60465e-05 0)
(7.43703e-05 -1.44631e-05 0)
(0.000101008 -1.26882e-05 0)
(0.000125706 -1.10876e-05 0)
(0.000148684 -9.84791e-06 0)
(0.000170238 -9.04379e-06 0)
(0.000190687 -8.7004e-06 0)
(0.000210341 -8.83795e-06 0)
(0.000229502 -9.5029e-06 0)
(0.00024848 -1.07968e-05 0)
(0.00026761 -1.29174e-05 0)
(0.000287279 -1.62338e-05 0)
(0.00030794 -2.14449e-05 0)
(0.000330039 -2.99342e-05 0)
(0.000353507 -4.45898e-05 0)
(0.000375413 -7.15321e-05 0)
(0.000381633 -0.000121796 0)
(1.35018e-05 -1.91814e-05 0)
(4.00069e-05 -1.83204e-05 0)
(6.53005e-05 -1.65767e-05 0)
(8.91062e-05 -1.45853e-05 0)
(0.000111405 -1.2776e-05 0)
(0.000132334 -1.13736e-05 0)
(0.000152104 -1.04725e-05 0)
(0.000170949 -1.01079e-05 0)
(0.000189101 -1.03074e-05 0)
(0.000206789 -1.1127e-05 0)
(0.000224241 -1.2683e-05 0)
(0.000241688 -1.51951e-05 0)
(0.000259363 -1.90597e-05 0)
(0.00027745 -2.49888e-05 0)
(0.000295905 -3.42792e-05 0)
(0.000313828 -4.92838e-05 0)
(0.000327659 -7.39082e-05 0)
(0.000327563 -0.000112209 0)
(1.1888e-05 -2.07625e-05 0)
(3.53332e-05 -1.99432e-05 0)
(5.79252e-05 -1.81158e-05 0)
(7.94037e-05 -1.59846e-05 0)
(9.9717e-05 -1.40342e-05 0)
(0.000118944 -1.25226e-05 0)
(0.000137228 -1.15622e-05 0)
(0.000154733 -1.11978e-05 0)
(0.000171628 -1.14636e-05 0)
(0.000188078 -1.24218e-05 0)
(0.000204239 -1.41964e-05 0)
(0.000220251 -1.70131e-05 0)
(0.000236212 -2.12624e-05 0)
(0.000252101 -2.76027e-05 0)
(0.000267557 -3.71196e-05 0)
(0.000281353 -5.149e-05 0)
(0.000290346 -7.27828e-05 0)
(0.000288484 -0.000101527 0)
(1.05338e-05 -2.16983e-05 0)
(3.14069e-05 -2.09747e-05 0)
(5.17147e-05 -1.91277e-05 0)
(7.12092e-05 -1.69224e-05 0)
(8.98176e-05 -1.48899e-05 0)
(0.000107575 -1.3317e-05 0)
(0.000124571 -1.23314e-05 0)
(0.000140913 -1.19863e-05 0)
(0.000156715 -1.23207e-05 0)
(0.000172085 -1.33998e-05 0)
(0.000187116 -1.53474e-05 0)
(0.00020187 -1.83804e-05 0)
(0.00021634 -2.28551e-05 0)
(0.000230359 -2.93299e-05 0)
(0.00024341 -3.86246e-05 0)
(0.000254274 -5.17832e-05 0)
(0.000260562 -6.96315e-05 0)
(0.000258836 -9.12938e-05 0)
(9.37146e-06 -2.20309e-05 0)
(2.80323e-05 -2.14502e-05 0)
(4.63624e-05 -1.96381e-05 0)
(6.41234e-05 -1.74155e-05 0)
(8.12306e-05 -1.53541e-05 0)
(9.76873e-05 -1.37639e-05 0)
(0.000113538 -1.27849e-05 0)
(0.000128846 -1.24767e-05 0)
(0.000143675 -1.2881e-05 0)
(0.000158083 -1.4062e-05 0)
(0.00017211 -1.6136e-05 0)
(0.000185753 -1.92983e-05 0)
(0.000198927 -2.38516e-05 0)
(0.000211385 -3.02302e-05 0)
(0.000222577 -3.89901e-05 0)
(0.000231458 -5.06782e-05 0)
(0.000236382 -6.54046e-05 0)
(0.000235519 -8.19577e-05 0)
(8.35802e-06 -2.17891e-05 0)
(2.50849e-05 -2.1392e-05 0)
(4.16728e-05 -1.96596e-05 0)
(5.78926e-05 -1.74694e-05 0)
(7.36551e-05 -1.54278e-05 0)
(8.89409e-05 -1.38619e-05 0)
(0.00010376 -1.29202e-05 0)
(0.000118133 -1.26657e-05 0)
(0.000132084 -1.31404e-05 0)
(0.000145627 -1.44038e-05 0)
(0.000158757 -1.65588e-05 0)
(0.000171421 -1.97697e-05 0)
(0.000183487 -2.42747e-05 0)
(0.000194676 -3.03817e-05 0)
(0.000204483 -3.8421e-05 0)
(0.000212098 -4.8598e-05 0)
(0.000216465 -6.06799e-05 0)
(0.000216671 -7.35593e-05 0)
(7.4642e-06 -2.09964e-05 0)
(2.24793e-05 -2.08148e-05 0)
(3.75115e-05 -1.91975e-05 0)
(5.23422e-05 -1.7083e-05 0)
(6.68857e-05 -1.51065e-05 0)
(8.11066e-05 -1.36052e-05 0)
(9.49859e-05 -1.27306e-05 0)
(0.00010851 -1.25465e-05 0)
(0.000121664 -1.30922e-05 0)
(0.000134428 -1.44197e-05 0)
(0.000146759 -1.66138e-05 0)
(0.000158571 -1.98029e-05 0)
(0.000169707 -2.41586e-05 0)
(0.000179896 -2.98757e-05 0)
(0.000188714 -3.71124e-05 0)
(0.000195579 -4.58679e-05 0)
(0.000199849 -5.57902e-05 0)
(0.000201111 -6.6004e-05 0)
(6.66841e-06 -1.96754e-05 0)
(2.01517e-05 -1.97298e-05 0)
(3.37772e-05 -1.82526e-05 0)
(4.73427e-05 -1.62516e-05 0)
(6.07723e-05 -1.43831e-05 0)
(7.40199e-05 -1.29858e-05 0)
(8.70411e-05 -1.22084e-05 0)
(9.97915e-05 -1.21117e-05 0)
(0.000112225 -1.27303e-05 0)
(0.000124291 -1.4106e-05 0)
(0.000135917 -1.63033e-05 0)
(0.000147 -1.9414e-05 0)
(0.000157376 -2.35483e-05 0)
(0.000166802 -2.8809e-05 0)
(0.000174947 -3.52368e-05 0)
(0.000181414 -4.27246e-05 0)
(0.000185836 -5.09168e-05 0)
(0.000188052 -5.9167e-05 0)
(5.90003e-06 -1.7999e-05 0)
(1.79184e-05 -1.82835e-05 0)
(3.02284e-05 -1.69558e-05 0)
(4.26382e-05 -1.50935e-05 0)
(5.50708e-05 -1.33639e-05 0)
(6.74605e-05 -1.20982e-05 0)
(7.97347e-05 -1.14376e-05 0)
(9.18197e-05 -1.14378e-05 0)
(0.000103643 -1.21276e-05 0)
(0.000115129 -1.35385e-05 0)
(0.000126191 -1.57163e-05 0)
(0.000136714 -1.8721e-05 0)
(0.000146543 -2.26148e-05 0)
(0.000155473 -2.7436e-05 0)
(0.000163249 -3.31562e-05 0)
(0.000169603 -3.9626e-05 0)
(0.000174324 -4.65302e-05 0)
(0.000177363 -5.33962e-05 0)
(5.36489e-06 -1.59193e-05 0)
(1.63331e-05 -1.6421e-05 0)
(2.76504e-05 -1.52493e-05 0)
(3.9159e-05 -1.35542e-05 0)
(5.07994e-05 -1.20001e-05 0)
(6.24998e-05 -1.09e-05 0)
(7.4169e-05 -1.03819e-05 0)
(8.57113e-05 -1.0494e-05 0)
(9.70332e-05 -1.12586e-05 0)
(0.000108042 -1.26972e-05 0)
(0.000118637 -1.48386e-05 0)
(0.000128701 -1.77161e-05 0)
(0.00013809 -2.13551e-05 0)
(0.000146634 -2.5751e-05 0)
(0.000154143 -3.08391e-05 0)
(0.000160442 -3.64636e-05 0)
(0.00016542 -4.23623e-05 0)
(0.000169087 -4.81898e-05 0)
(4.81332e-06 -1.31763e-05 0)
(1.46724e-05 -1.38581e-05 0)
(2.49162e-05 -1.28476e-05 0)
(3.54586e-05 -1.13671e-05 0)
(4.6263e-05 -1.00519e-05 0)
(5.72449e-05 -9.17762e-06 0)
(6.8288e-05 -8.85014e-06 0)
(7.92707e-05 -9.10628e-06 0)
(9.00781e-05 -9.96055e-06 0)
(0.000100601 -1.14239e-05 0)
(0.000110731 -1.35084e-05 0)
(0.000120351 -1.62236e-05 0)
(0.000129338 -1.95656e-05 0)
(0.000137559 -2.3501e-05 0)
(0.000144887 -2.7949e-05 0)
(0.000151222 -3.27677e-05 0)
(0.000156521 -3.77547e-05 0)
(0.000160825 -4.26694e-05 0)
(4.22139e-06 -9.6864e-06 0)
(1.2862e-05 -1.03984e-05 0)
(2.19218e-05 -9.53861e-06 0)
(3.14414e-05 -8.34082e-06 0)
(4.13943e-05 -7.35231e-06 0)
(5.16606e-05 -6.78246e-06 0)
(6.20845e-05 -6.70455e-06 0)
(7.25133e-05 -7.14205e-06 0)
(8.28103e-05 -8.10231e-06 0)
(9.28542e-05 -9.58769e-06 0)
(0.000102535 -1.15978e-05 0)
(0.000111747 -1.41259e-05 0)
(0.000120395 -1.71507e-05 0)
(0.000128388 -2.06269e-05 0)
(0.000135654 -2.44756e-05 0)
(0.00014215 -2.85812e-05 0)
(0.000147874 -3.2796e-05 0)
(0.000152869 -3.69576e-05 0)
(3.4571e-06 -5.38802e-06 0)
(1.05704e-05 -5.78553e-06 0)
(1.82742e-05 -5.09279e-06 0)
(2.67559e-05 -4.30006e-06 0)
(3.59115e-05 -3.75981e-06 0)
(4.55256e-05 -3.58495e-06 0)
(5.53772e-05 -3.81489e-06 0)
(6.52782e-05 -4.46526e-06 0)
(7.50797e-05 -5.5455e-06 0)
(8.46685e-05 -7.05967e-06 0)
(9.39564e-05 -9.0041e-06 0)
(0.000102871 -1.13666e-05 0)
(0.000111353 -1.41205e-05 0)
(0.000119352 -1.72195e-05 0)
(0.000126832 -2.05943e-05 0)
(0.000133772 -2.41534e-05 0)
(0.000140172 -2.7789e-05 0)
(0.000146058 -3.13885e-05 0)
(1.93166e-06 3.92138e-08 0)
(6.37639e-06 3.64673e-07 0)
(1.22506e-05 6.54664e-07 0)
(1.96034e-05 8.01204e-07 0)
(2.79879e-05 7.39197e-07 0)
(3.70104e-05 4.19245e-07 0)
(4.63914e-05 -1.91803e-07 0)
(5.593e-05 -1.11324e-06 0)
(6.55213e-05 -2.41808e-06 0)
(7.51367e-05 -4.12783e-06 0)
(8.47086e-05 -6.16536e-06 0)
(9.41307e-05 -8.5191e-06 0)
(0.000103311 -1.11601e-05 0)
(0.000112171 -1.40438e-05 0)
(0.000120645 -1.71103e-05 0)
(0.000128689 -2.02869e-05 0)
(0.000136275 -2.34942e-05 0)
(0.000143396 -2.66532e-05 0)
(3.93477e-06 6.32038e-06 0)
(1.17791e-05 7.65638e-06 0)
(1.9772e-05 7.71024e-06 0)
(2.82068e-05 7.22289e-06 0)
(3.71689e-05 6.46764e-06 0)
(4.65893e-05 5.51059e-06 0)
(5.63372e-05 4.3558e-06 0)
(6.62759e-05 2.99505e-06 0)
(7.62414e-05 1.35951e-06 0)
(8.60451e-05 -5.65174e-07 0)
(9.55917e-05 -2.7513e-06 0)
(0.000104916 -5.27176e-06 0)
(0.000114017 -7.94573e-06 0)
(0.000122821 -1.07375e-05 0)
(0.000131273 -1.36009e-05 0)
(0.000139336 -1.64843e-05 0)
(0.000146989 -1.93344e-05 0)
(0.000154228 -2.21012e-05 0)
(5.07571e-06 1.33226e-05 0)
(1.53291e-05 1.52242e-05 0)
(2.57038e-05 1.53471e-05 0)
(3.61316e-05 1.45032e-05 0)
(4.66412e-05 1.31674e-05 0)
(5.7239e-05 1.15678e-05 0)
(6.78897e-05 9.80207e-06 0)
(7.85309e-05 7.9084e-06 0)
(8.90883e-05 5.89969e-06 0)
(9.94883e-05 3.78702e-06 0)
(0.000109639 1.52741e-06 0)
(0.000119397 -9.49788e-07 0)
(0.000128695 -3.52524e-06 0)
(0.000137577 -6.19999e-06 0)
(0.00014606 -8.85164e-06 0)
(0.000154135 -1.14506e-05 0)
(0.0001618 -1.39674e-05 0)
(0.000169065 -1.63754e-05 0)
(5.65311e-06 1.98983e-05 0)
(1.71701e-05 2.15299e-05 0)
(2.8954e-05 2.14842e-05 0)
(4.07912e-05 2.03677e-05 0)
(5.25984e-05 1.86471e-05 0)
(6.43323e-05 1.66098e-05 0)
(7.59506e-05 1.44135e-05 0)
(8.74044e-05 1.21388e-05 0)
(9.86411e-05 9.82567e-06 0)
(0.000109609 7.49475e-06 0)
(0.000120263 5.15845e-06 0)
(0.000130563 2.83001e-06 0)
(0.000140448 4.67947e-07 0)
(0.000149833 -1.95109e-06 0)
(0.000158742 -4.40441e-06 0)
(0.000167236 -6.76158e-06 0)
(0.000175321 -9.00927e-06 0)
(0.000183006 -1.11356e-05 0)
(6.50523e-06 2.47093e-05 0)
(1.96738e-05 2.57806e-05 0)
(3.30189e-05 2.538e-05 0)
(4.63255e-05 2.39771e-05 0)
(5.94795e-05 2.19844e-05 0)
(7.24166e-05 1.9685e-05 0)
(8.50909e-05 1.72509e-05 0)
(9.74614e-05 1.47783e-05 0)
(0.00010949 1.23178e-05 0)
(0.000121142 9.89532e-06 0)
(0.000132389 7.52485e-06 0)
(0.000143208 5.21556e-06 0)
(0.000153585 2.97477e-06 0)
(0.000163501 7.96482e-07 0)
(0.000172889 -1.40364e-06 0)
(0.000181762 -3.58726e-06 0)
(0.000190197 -5.64589e-06 0)
(0.00019821 -7.57557e-06 0)
(7.49056e-06 2.7961e-05 0)
(2.25405e-05 2.85076e-05 0)
(3.76112e-05 2.77555e-05 0)
(5.25098e-05 2.61015e-05 0)
(6.71154e-05 2.39113e-05 0)
(8.13557e-05 2.14509e-05 0)
(9.5184e-05 1.88901e-05 0)
(0.000108566 1.63281e-05 0)
(0.000121477 1.38181e-05 0)
(0.000133897 1.13869e-05 0)
(0.000145811 9.04716e-06 0)
(0.000157213 6.8046e-06 0)
(0.000168102 4.66246e-06 0)
(0.000178481 2.62313e-06 0)
(0.000188356 6.83437e-07 0)
(0.000197683 -1.25151e-06 0)
(0.000206481 -3.13158e-06 0)
(0.000214826 -4.88115e-06 0)
(8.61901e-06 2.96474e-05 0)
(2.58203e-05 2.97712e-05 0)
(4.28465e-05 2.87349e-05 0)
(5.95232e-05 2.68981e-05 0)
(7.57333e-05 2.45921e-05 0)
(9.14057e-05 2.20631e-05 0)
(0.000106499 1.94717e-05 0)
(0.000120991 1.69127e-05 0)
(0.00013487 1.44373e-05 0)
(0.000148131 1.20699e-05 0)
(0.000160778 9.82026e-06 0)
(0.000172818 7.69082e-06 0)
(0.000184264 5.68082e-06 0)
(0.000195134 3.78848e-06 0)
(0.000205446 2.01187e-06 0)
(0.000215215 3.36985e-07 0)
(0.000224424 -1.31668e-06 0)
(0.000233107 -2.89016e-06 0)
(9.91046e-06 2.98552e-05 0)
(2.95776e-05 2.96669e-05 0)
(4.88409e-05 2.84386e-05 0)
(6.75344e-05 2.65065e-05 0)
(8.5547e-05 2.41744e-05 0)
(0.000102816 2.1668e-05 0)
(0.000119312 1.91351e-05 0)
(0.000135028 1.66627e-05 0)
(0.000149971 1.42967e-05 0)
(0.000164157 1.20575e-05 0)
(0.000177606 9.95153e-06 0)
(0.000190344 7.97785e-06 0)
(0.000202398 6.13249e-06 0)
(0.0002138 4.41048e-06 0)
(0.00022458 2.80685e-06 0)
(0.000234772 1.3169e-06 0)
(0.000244387 -8.82789e-08 0)
(0.000253438 -1.4654e-06 0)
(1.13994e-05 2.87028e-05 0)
(3.39146e-05 2.83055e-05 0)
(5.57619e-05 2.69837e-05 0)
(7.67721e-05 2.50519e-05 0)
(9.68401e-05 2.27875e-05 0)
(0.000115916 2.03944e-05 0)
(0.00013399 1.80051e-05 0)
(0.000151078 1.56965e-05 0)
(0.00016721 1.35078e-05 0)
(0.000182425 1.14549e-05 0)
(0.000196766 9.54054e-06 0)
(0.000210278 7.7612e-06 0)
(0.000223006 6.11043e-06 0)
(0.000234996 4.58112e-06 0)
(0.000246293 3.16636e-06 0)
(0.00025694 1.85972e-06 0)
(0.000266979 6.55242e-07 0)
(0.000276419 -4.95312e-07 0)
(1.31446e-05 2.6305e-05 0)
(3.90027e-05 2.57914e-05 0)
(6.38842e-05 2.44737e-05 0)
(8.7605e-05 2.264e-05 0)
(0.000110065 2.0538e-05 0)
(0.000131233 1.83475e-05 0)
(0.000151126 1.61834e-05 0)
(0.000169789 1.41112e-05 0)
(0.000187282 1.21625e-05 0)
(0.000203674 1.03486e-05 0)
(0.000219034 8.66958e-06 0)
(0.000233431 7.11962e-06 0)
(0.00024693 5.69093e-06 0)
(0.000259595 4.37526e-06 0)
(0.000271484 3.16477e-06 0)
(0.000282653 2.05225e-06 0)
(0.000293155 1.03114e-06 0)
(0.000303034 9.0333e-08 0)
(1.52529e-05 2.27466e-05 0)
(4.51536e-05 2.22002e-05 0)
(7.37067e-05 2.0982e-05 0)
(0.000100701 1.93447e-05 0)
(0.00012604 1.75004e-05 0)
(0.000149718 1.5601e-05 0)
(0.000171786 1.37417e-05 0)
(0.000192331 1.19752e-05 0)
(0.000211451 1.03259e-05 0)
(0.000229251 8.80092e-06 0)
(0.000245833 7.39793e-06 0)
(0.000261293 6.11032e-06 0)
(0.000275721 4.92982e-06 0)
(0.000289201 3.84806e-06 0)
(0.000301809 2.85722e-06 0)
(0.000313615 1.9502e-06 0)
(0.000324684 1.12058e-06 0)
(0.000335074 3.62188e-07 0)
(1.79454e-05 1.80491e-05 0)
(5.30147e-05 1.7548e-05 0)
(8.6268e-05 1.65251e-05 0)
(0.000117451 1.51853e-05 0)
(0.000146472 1.36974e-05 0)
(0.000173359 1.21802e-05 0)
(0.000198212 1.07069e-05 0)
(0.000221168 9.31677e-06 0)
(0.000242381 8.02682e-06 0)
(0.000261999 6.84077e-06 0)
(0.000280167 5.7553e-06 0)
(0.000297017 4.76384e-06 0)
(0.000312668 3.85883e-06 0)
(0.00032723 3.03278e-06 0)
(0.0003408 2.27883e-06 0)
(0.000353466 1.59082e-06 0)
(0.000365308 9.63345e-07 0)
(0.000376396 3.91607e-07 0)
(2.18095e-05 1.20983e-05 0)
(6.4309e-05 1.17224e-05 0)
(0.000104341 1.09996e-05 0)
(0.000141584 1.00715e-05 0)
(0.000175952 9.05278e-06 0)
(0.000207523 8.02254e-06 0)
(0.000236466 7.02881e-06 0)
(0.000262997 6.09655e-06 0)
(0.000287339 5.23583e-06 0)
(0.000309709 4.44802e-06 0)
(0.000330309 3.72992e-06 0)
(0.000349319 3.07638e-06 0)
(0.0003669 2.48173e-06 0)
(0.000383197 1.94048e-06 0)
(0.000398336 1.44763e-06 0)
(0.000412429 9.98795e-07 0)
(0.000425577 5.90293e-07 0)
(0.000437866 2.19841e-07 0)
(2.96824e-05 4.34309e-06 0)
(8.73845e-05 4.19631e-06 0)
(0.000141429 3.92352e-06 0)
(0.000191371 3.57735e-06 0)
(0.000237132 3.19999e-06 0)
(0.000278881 2.82028e-06 0)
(0.000316918 2.45548e-06 0)
(0.000351595 2.11436e-06 0)
(0.000383268 1.8003e-06 0)
(0.000412275 1.51352e-06 0)
(0.000438919 1.25265e-06 0)
(0.000463468 1.01564e-06 0)
(0.000486158 8.0029e-07 0)
(0.000507193 6.04486e-07 0)
(0.000526752 4.26334e-07 0)
(0.000544989 2.64179e-07 0)
(0.000562041 1.16697e-07 0)
(0.000578029 -1.64396e-08 0)
(3.86194e-05 -2.41135e-05 -3.11204e-31)
(0.000113714 -2.19923e-05 2.82902e-31)
(0.000184455 -2.02761e-05 0)
(0.000251897 -1.91001e-05 0)
(0.000317675 -1.82944e-05 0)
(0.000382654 -1.77258e-05 -2.24584e-31)
(0.000447295 -1.73091e-05 0)
(0.000511857 -1.6992e-05 0)
(0.000576504 -1.67423e-05 0)
(0.000641344 -1.65398e-05 0)
(0.000706456 -1.63717e-05 2.0326e-31)
(0.000771901 -1.62295e-05 0)
(0.000837727 -1.61077e-05 0)
(0.000903977 -1.60025e-05 0)
(0.00097069 -1.59115e-05 0)
(0.0010379 -1.58329e-05 1.92383e-31)
(0.00110564 -1.57657e-05 0)
(0.00117394 -1.57094e-05 0)
(0.00124284 -1.56635e-05 0)
(0.00131236 -1.56279e-05 0)
(0.00138254 -1.56027e-05 0)
(0.00145341 -1.55881e-05 0)
(0.00152501 -1.55843e-05 0)
(0.00159736 -1.55916e-05 1.82661e-31)
(0.0016705 -1.56104e-05 -1.8204e-31)
(0.00174447 -1.56409e-05 1.81562e-31)
(0.0018193 -1.56837e-05 1.81231e-31)
(0.00189504 -1.5739e-05 0)
(0.00197171 -1.58072e-05 0)
(0.00204936 -1.58887e-05 -1.81165e-31)
(0.00212804 -1.59839e-05 -1.81466e-31)
(0.00220778 -1.60931e-05 0)
(0.00228862 -1.62167e-05 0)
(0.00237062 -1.6355e-05 -1.83399e-31)
(0.00245382 -1.65084e-05 0)
(0.00253827 -1.66773e-05 0)
(0.00262403 -1.68621e-05 1.86962e-31)
(0.00271113 -1.70632e-05 0)
(0.00279965 -1.72812e-05 1.90305e-31)
(0.00288964 -1.75164e-05 3.84566e-31)
(0.00298116 -1.77696e-05 0)
(0.00307428 -1.80413e-05 0)
(0.00316906 -1.83324e-05 0)
(0.00326559 -1.86437e-05 0)
(0.00336393 -1.89762e-05 0)
(0.00346417 -1.93309e-05 4.17906e-31)
(0.00356641 -1.97093e-05 4.25275e-31)
(0.00367073 -2.01129e-05 4.33242e-31)
(0.00377724 -2.05432e-05 0)
(0.00388605 -2.10022e-05 -4.51146e-31)
(0.00399728 -2.1492e-05 0)
(0.00411105 -2.20153e-05 4.72022e-31)
(0.00422751 -2.25746e-05 4.8373e-31)
(0.0043468 -2.31731e-05 0)
(0.00446908 -2.38142e-05 0)
(0.00459453 -2.45019e-05 0)
(0.00472333 -2.524e-05 5.40926e-31)
(0.00485568 -2.60334e-05 0)
(0.00499178 -2.68868e-05 0)
(0.00513186 -2.78054e-05 0)
(0.00527614 -2.87946e-05 0)
(0.00542487 -2.986e-05 0)
(0.00557827 -3.10069e-05 0)
(0.00573658 -3.22406e-05 0)
(0.00590004 -3.35657e-05 0)
(0.00606884 -3.49859e-05 -7.61083e-31)
(0.00624316 -3.65035e-05 0)
(0.00642313 -3.8119e-05 0)
(0.00660883 -3.98302e-05 8.73558e-31)
(0.00680024 -4.16319e-05 9.15609e-31)
(0.00699727 -4.35147e-05 0)
(0.00719967 -4.54647e-05 -1.00526e-30)
(0.00740711 -4.7463e-05 1.05201e-30)
(0.00761908 -4.94847e-05 0)
(0.00783492 -5.14999e-05 -1.14626e-30)
(0.00805381 -5.34731e-05 0)
(0.00827481 -5.53656e-05 0)
(0.00849687 -5.71375e-05 1.27637e-30)
(0.00871886 -5.87511e-05 0)
(0.00893966 -6.01759e-05 -1.34445e-30)
(0.00915824 -6.13948e-05 0)
(0.00937371 -6.24107e-05 1.39197e-30)
(0.00958541 -6.32528e-05 1.40874e-30)
(0.00979305 -6.39822e-05 1.42269e-30)
(0.00999668 -6.46948e-05 2.87261e-30)
(0.0101968 -6.55214e-05 -2.90589e-30)
(0.0103945 -6.66248e-05 0)
(0.0105911 -6.81957e-05 0)
(0.0107888 -7.04473e-05 0)
(0.0109898 -7.36107e-05 -3.28667e-30)
(0.011197 -7.7927e-05 -3.50002e-30)
(0.0114137 -8.36295e-05 3.78461e-30)
(0.011643 -9.08969e-05 0)
(0.011888 -9.97373e-05 -4.59496e-30)
(0.0121504 -0.000109724 -5.09886e-30)
(0.0124291 -0.000119446 -5.5883e-30)
(0.0127173 -0.000125548 0)
(0.0129984 -0.000121661 0)
(0.0132427 -9.91329e-05 0)
(0.0134085 -5.31658e-05 -2.11547e-30)
(0.0134561 9.24071e-06 0)
(0.0133929 4.85446e-05 0)
(0.013325 1.33449e-05 -1.3191e-30)
(0.0132787 2.83486e-05 0)
(0.0131367 9.82349e-05 0)
(0.0129403 7.57434e-05 -4.52686e-30)
(0.0127422 9.80538e-05 0)
(0.0125231 9.25718e-05 0)
(0.012316 8.60265e-05 5.02901e-30)
(0.0121199 8.16208e-05 4.79198e-30)
(0.0119322 7.74908e-05 0)
(0.0117532 7.28634e-05 -4.32192e-30)
(0.0115842 6.77946e-05 0)
(0.0114263 6.25328e-05 3.7724e-30)
(0.0112798 5.72938e-05 0)
(0.0111447 5.22262e-05 3.22627e-30)
(0.0110207 4.74209e-05 2.97198e-30)
(0.0109073 4.29261e-05 0)
(0.0108038 3.87619e-05 0)
(0.0107097 3.49307e-05 0)
(0.0106241 3.14241e-05 0)
(0.0105465 2.82279e-05 0)
(0.0104762 2.53245e-05 0)
(0.0104126 2.26945e-05 0)
(0.0103551 2.03184e-05 1.53939e-30)
(0.0103032 1.81763e-05 -1.42619e-30)
(0.0102564 1.6249e-05 0)
(0.0102141 1.45178e-05 0)
(0.0101761 1.29653e-05 0)
(0.0101417 1.15748e-05 0)
(0.0101109 1.03307e-05 -2.02301e-30)
(0.010083 9.21871e-06 0)
(0.010058 8.22556e-06 1.80035e-30)
(0.0100354 7.3391e-06 -1.70656e-30)
(0.0100151 6.54825e-06 0)
(0.00999681 5.84296e-06 0)
(0.00998034 5.21411e-06 0)
(0.00996551 4.65353e-06 1.42228e-30)
(0.00995215 4.15382e-06 1.36935e-30)
(0.00994012 3.70838e-06 0)
(0.00992927 3.31132e-06 1.28007e-30)
(0.0099195 2.95734e-06 1.24255e-30)
(0.00991069 2.64176e-06 -1.20909e-30)
(0.00990275 2.36041e-06 0)
(0.00989559 2.10958e-06 0)
(0.00988912 1.886e-06 -1.12891e-30)
(0.00988329 1.68677e-06 0)
(0.00987802 1.50936e-06 0)
(0.00987327 1.35152e-06 0)
(0.00986897 1.2113e-06 0)
(0.00986507 1.08701e-06 1.04402e-30)
(0.00986154 9.77221e-07 1.03234e-30)
(0.00985834 8.80705e-07 0)
(0.00985541 7.96472e-07 1.01307e-30)
(0.00985274 7.2375e-07 0)
(0.00985028 6.61994e-07 0)
(0.009848 6.10898e-07 9.93183e-31)
(0.00984586 5.70419e-07 0)
(0.00984384 5.40817e-07 9.85545e-31)
(0.00984188 5.22705e-07 0)
(0.00983994 5.17129e-07 0)
(0.00983798 5.25664e-07 9.83423e-31)
(0.00983594 5.50569e-07 0)
(0.00983375 5.94978e-07 9.90189e-31)
(0.00983131 6.63182e-07 0)
(0.00982854 7.61026e-07 0)
(0.00982527 8.96469e-07 0)
(0.00982134 1.08042e-06 -1.03921e-30)
(0.0098165 1.32799e-06 0)
(0.00981044 1.66042e-06 1.09815e-30)
(0.00980272 2.10821e-06 0)
(0.00979275 2.71641e-06 0)
(0.00977966 3.55395e-06 0)
(0.00976219 4.73139e-06 0)
(0.00973842 6.43747e-06 0)
(0.00970519 9.02275e-06 0)
(0.00965692 1.32196e-05 0)
(0.00958225 2.08449e-05 -6.12046e-30)
(0.00945259 3.77236e-05 0)
(0.00916545 9.06607e-05 0)
(1.26959e-05 -4.95819e-05 6.4038e-31)
(3.70841e-05 -4.72661e-05 -6.09585e-31)
(6.00328e-05 -4.5309e-05 0)
(8.23421e-05 -4.38651e-05 1.13e-30)
(0.00010434 -4.27789e-05 0)
(0.000126191 -4.1925e-05 -5.40378e-31)
(0.000147978 -4.12219e-05 -1.05857e-30)
(0.000169744 -4.06184e-05 -1.04195e-30)
(0.000191509 -4.00824e-05 0)
(0.000213279 -3.95933e-05 -1.01339e-30)
(0.000235055 -3.91375e-05 5.03065e-31)
(0.000256833 -3.87063e-05 0)
(0.000278605 -3.82938e-05 0)
(0.000300364 -3.78962e-05 0)
(0.000322101 -3.75111e-05 0)
(0.000343807 -3.71374e-05 4.75931e-31)
(0.000365473 -3.67743e-05 0)
(0.000387092 -3.6422e-05 9.23207e-31)
(0.000408655 -3.60808e-05 0)
(0.000430155 -3.57514e-05 0)
(0.000451584 -3.54347e-05 -8.94642e-31)
(0.000472936 -3.51319e-05 0)
(0.000494206 -3.48439e-05 8.77357e-31)
(0.000515389 -3.45721e-05 4.40749e-31)
(0.00053648 -3.43175e-05 -4.3721e-31)
(0.000557475 -3.40814e-05 4.33911e-31)
(0.000578372 -3.3865e-05 4.30867e-31)
(0.000599168 -3.36692e-05 0)
(0.000619861 -3.34953e-05 0)
(0.000640452 -3.3344e-05 -4.23401e-31)
(0.00066094 -3.32164e-05 -1.24892e-30)
(0.000681325 -3.31133e-05 0)
(0.000701609 -3.30354e-05 0)
(0.000721795 -3.29834e-05 -4.1778e-31)
(0.000741886 -3.29581e-05 0)
(0.000761885 -3.296e-05 0)
(0.000781798 -3.29897e-05 4.17153e-31)
(0.000801629 -3.30478e-05 0)
(0.000821387 -3.31349e-05 1.23629e-30)
(0.000841077 -3.32516e-05 8.39677e-31)
(0.00086071 -3.33985e-05 0)
(0.000880294 -3.35764e-05 0)
(0.00089984 -3.37858e-05 -1.66171e-30)
(0.00091936 -3.40278e-05 -1.67237e-30)
(0.000938868 -3.43034e-05 -1.68478e-30)
(0.000958378 -3.46135e-05 2.57108e-30)
(0.000977907 -3.49596e-05 8.80595e-31)
(0.000997472 -3.5343e-05 -8.42944e-31)
(0.00101709 -3.57656e-05 1.75298e-30)
(0.00103679 -3.62292e-05 -9.12024e-31)
(0.0010566 -3.6736e-05 0)
(0.00107653 -3.72886e-05 9.38473e-31)
(0.00109662 -3.78898e-05 2.80883e-30)
(0.0011169 -3.85427e-05 0)
(0.00113741 -3.92507e-05 0)
(0.00115819 -4.00177e-05 0)
(0.00117928 -4.08478e-05 1.02805e-30)
(0.00120074 -4.17453e-05 0)
(0.00122262 -4.27148e-05 2.09284e-30)
(0.00124499 -4.37611e-05 0)
(0.00126793 -4.48889e-05 2.20096e-30)
(0.00129151 -4.61026e-05 0)
(0.00131583 -4.74064e-05 -2.32659e-30)
(0.00134099 -4.88036e-05 0)
(0.00136712 -5.02965e-05 2.47116e-30)
(0.00139436 -5.1886e-05 -3.85906e-30)
(0.00142287 -5.35706e-05 0)
(0.00145281 -5.53467e-05 -2.72415e-30)
(0.0014844 -5.72072e-05 1.44372e-30)
(0.00151787 -5.91415e-05 1.49294e-30)
(0.00155347 -6.11349e-05 0)
(0.00159148 -6.31681e-05 -4.7107e-30)
(0.00163224 -6.52173e-05 1.64729e-30)
(0.00167607 -6.72545e-05 0)
(0.00172335 -6.92481e-05 -1.74933e-30)
(0.00177445 -7.11645e-05 -3.51154e-30)
(0.00182976 -7.297e-05 0)
(0.00188964 -7.46341e-05 1.88463e-30)
(0.00195441 -7.61327e-05 0)
(0.00202432 -7.74532e-05 1.85873e-30)
(0.00209952 -7.85992e-05 0)
(0.00218005 -7.95967e-05 -1.90311e-30)
(0.00226581 -8.04985e-05 2.02734e-30)
(0.00235657 -8.13889e-05 6.03337e-30)
(0.00245203 -8.23865e-05 1.21989e-29)
(0.00255185 -8.36451e-05 -1.23706e-29)
(0.00265581 -8.53534e-05 0)
(0.00276392 -8.7735e-05 0)
(0.00287665 -9.10487e-05 0)
(0.00299524 -9.55918e-05 4.51767e-30)
(0.00312206 -0.000101705 -5.11058e-30)
(0.00326128 -0.000109773 5.52114e-30)
(0.00341984 -0.000120219 0)
(0.00360914 -0.000133458 -1.98467e-29)
(0.00384776 -0.00014977 -7.56122e-30)
(0.00416575 -0.000169003 -8.54053e-30)
(0.00461028 -0.000189988 0)
(0.00524912 -0.00020979 0)
(0.00616454 -0.000224198 0)
(0.00742934 -0.000233011 -1.16956e-29)
(0.00905907 -0.000248229 0)
(0.0108978 -0.000316708 -3.06884e-29)
(0.0125103 -0.000464097 -2.2221e-29)
(0.0132794 -2.61103e-05 1.91594e-31)
(0.0131794 0.000367862 0)
(0.0129401 0.000192438 -3.29014e-29)
(0.0127572 0.000315401 0)
(0.0125129 0.000278497 -3.11592e-29)
(0.0123068 0.000256482 4.2685e-29)
(0.0121128 0.000244645 4.08033e-29)
(0.0119249 0.000232809 0)
(0.0117452 0.000218879 1.29795e-29)
(0.0115758 0.000203497 -2.32274e-29)
(0.0114178 0.000187563 1.02359e-29)
(0.0112715 0.000171749 0)
(0.0111369 0.00015649 8.61622e-30)
(0.0110134 0.000142047 -8.90377e-30)
(0.0109005 0.000128555 0)
(0.0107976 0.000116067 -1.40404e-29)
(0.010704 0.000104583 -1.28353e-29)
(0.010619 9.40766e-05 -1.17329e-29)
(0.0105419 8.45028e-05 0)
(0.010472 7.58075e-05 0)
(0.0104089 6.79327e-05 0)
(0.0103518 6.08187e-05 1.18767e-29)
(0.0103002 5.44059e-05 -3.29908e-30)
(0.0102537 4.86367e-05 0)
(0.0102118 4.34551e-05 6.42188e-30)
(0.010174 3.88083e-05 5.93428e-30)
(0.0101399 3.46466e-05 0)
(0.0101092 3.09233e-05 -4.15207e-30)
(0.0100816 2.75954e-05 9.51488e-30)
(0.0100567 2.46231e-05 3.49569e-30)
(0.0100343 2.19702e-05 -1.1553e-29)
(0.0100141 1.96034e-05 0)
(0.00999592 1.74926e-05 0)
(0.00997956 1.56105e-05 0)
(0.00996482 1.39327e-05 2.38166e-30)
(0.00995154 1.24371e-05 8.55686e-30)
(0.00993958 1.11038e-05 6.05087e-30)
(0.0099288 9.91529e-06 1.96286e-30)
(0.00991908 8.8557e-06 7.4306e-30)
(0.00991032 7.911e-06 -1.75388e-30)
(0.00990242 7.06872e-06 0)
(0.00989529 6.31778e-06 0)
(0.00988887 5.64839e-06 -6.42147e-30)
(0.00988306 5.05188e-06 0)
(0.00987783 4.52064e-06 0)
(0.00987309 4.04798e-06 4.56664e-30)
(0.00986881 3.62807e-06 0)
(0.00986494 3.25585e-06 5.66801e-30)
(0.00986142 2.927e-06 1.23393e-30)
(0.00985823 2.63789e-06 0)
(0.00985533 2.38554e-06 5.39352e-30)
(0.00985267 2.16764e-06 0)
(0.00985022 1.98255e-06 0)
(0.00984795 1.82935e-06 1.11916e-30)
(0.00984583 1.70791e-06 4.07243e-30)
(0.00984381 1.619e-06 1.09702e-30)
(0.00984186 1.56445e-06 0)
(0.00983994 1.54735e-06 0)
(0.009838 1.57242e-06 5.13311e-30)
(0.00983598 1.64638e-06 0)
(0.00983381 1.77857e-06 5.19508e-30)
(0.0098314 1.98178e-06 0)
(0.00982866 2.27342e-06 0)
(0.00982543 2.67719e-06 0)
(0.00982155 3.22555e-06 -1.26103e-30)
(0.00981679 3.96341e-06 0)
(0.00981082 4.95382e-06 1.43872e-30)
(0.00980324 6.28721e-06 0)
(0.00979345 8.09673e-06 0)
(0.00978062 1.05854e-05 5.88363e-30)
(0.00976356 1.40775e-05 -6.59932e-30)
(0.00974044 1.91219e-05 0)
(0.00970835 2.67252e-05 0)
(0.00966236 3.89421e-05 0)
(0.00959339 6.06355e-05 1.79749e-29)
(0.00948395 0.000105909 0)
(0.0093114 0.000227899 -1.01291e-28)
(8.89148e-06 -5.91207e-05 3.05541e-30)
(2.65464e-05 -5.88305e-05 -6.29896e-34)
(4.39728e-05 -5.84725e-05 0)
(6.12434e-05 -5.80548e-05 1.44903e-33)
(7.84096e-05 -5.75902e-05 0)
(9.55053e-05 -5.7088e-05 0)
(0.000112552 -5.65543e-05 -2.9105e-30)
(0.000129561 -5.59932e-05 -1.44127e-30)
(0.00014654 -5.54072e-05 1.42186e-30)
(0.000163489 -5.47985e-05 -1.40878e-30)
(0.000180408 -5.41687e-05 0)
(0.000197294 -5.35198e-05 0)
(0.000214141 -5.28533e-05 -1.35105e-30)
(0.000230945 -5.21713e-05 -2.66447e-30)
(0.0002477 -5.14757e-05 2.62614e-30)
(0.000264399 -5.0769e-05 0)
(0.000281038 -5.00533e-05 2.54788e-30)
(0.00029761 -4.93313e-05 1.26113e-30)
(0.000314109 -4.86053e-05 0)
(0.000330532 -4.78781e-05 2.42841e-30)
(0.000346873 -4.71521e-05 -1.20247e-30)
(0.000363129 -4.643e-05 -2.34893e-30)
(0.000379296 -4.57142e-05 1.16377e-30)
(0.00039537 -4.50072e-05 0)
(0.00041135 -4.43113e-05 2.23256e-30)
(0.000427232 -4.36287e-05 2.19502e-30)
(0.000443016 -4.29615e-05 0)
(0.0004587 -4.23115e-05 2.12247e-30)
(0.000474284 -4.16806e-05 0)
(0.000489767 -4.10703e-05 2.0539e-30)
(0.000505149 -4.04821e-05 -1.02258e-30)
(0.000520431 -3.99173e-05 0)
(0.000535614 -3.93769e-05 0)
(0.000550698 -3.88619e-05 0)
(0.000565686 -3.83732e-05 0)
(0.00058058 -3.79114e-05 0)
(0.000595381 -3.7477e-05 0)
(0.000610093 -3.70706e-05 1.83007e-30)
(0.000624717 -3.66923e-05 -8.89472e-31)
(0.000639258 -3.63425e-05 0)
(0.000653718 -3.60214e-05 0)
(0.0006681 -3.57289e-05 0)
(0.000682409 -3.54652e-05 -3.5059e-30)
(0.000696649 -3.52302e-05 -1.75557e-30)
(0.000710822 -3.50239e-05 -3.35679e-32)
(0.000724935 -3.48463e-05 3.4234e-32)
(0.00073899 -3.46972e-05 -1.68911e-30)
(0.000752993 -3.45765e-05 -1.71645e-30)
(0.000766947 -3.44842e-05 3.38451e-30)
(0.000780859 -3.44203e-05 1.66887e-30)
(0.000794732 -3.43846e-05 0)
(0.000808571 -3.4377e-05 1.66271e-30)
(0.000822382 -3.43975e-05 3.36246e-30)
(0.000836169 -3.4446e-05 0)
(0.000849938 -3.45223e-05 0)
(0.000863694 -3.46262e-05 -1.66778e-30)
(0.000877442 -3.47573e-05 0)
(0.000891188 -3.49151e-05 0)
(0.000904936 -3.50989e-05 5.10185e-30)
(0.000918693 -3.53076e-05 3.39043e-30)
(0.000932463 -3.55398e-05 1.7493e-30)
(0.000946254 -3.57936e-05 0)
(0.000960069 -3.60663e-05 -1.77392e-30)
(0.000973916 -3.63547e-05 0)
(0.000987801 -3.66547e-05 5.31186e-30)
(0.00100173 -3.69611e-05 -1.81624e-30)
(0.00101571 -3.72678e-05 -3.56563e-30)