/*--------------------------------*- C++ -*----------------------------------*\
  =========                 |
  \\      /  F ield         | OpenFOAM: The Open Source CFD Toolbox
   \\    /   O peration     | Website:  https://openfoam.org
    \\  /    A nd           | Version:  10
     \\/     M anipulation  |
\*---------------------------------------------------------------------------*/
FoamFile
{
    format      ascii;
    class       volScalarField;
    location    "0.91";
    object      p;
}
// * * * * * * * * * * * * * * * * * * * * * * * * * * * * * * * * * * * * * //

dimensions      [1 -1 -2 0 0 0 0];

internalField   nonuniform List<scalar> 
12225
(
1.56938e+07
1.56351e+07
1.55298e+07
1.53908e+07
1.52293e+07
1.50534e+07
1.48692e+07
1.46804e+07
1.44896e+07
1.42982e+07
1.41069e+07
1.39156e+07
1.37239e+07
1.35308e+07
1.33344e+07
1.31313e+07
1.29145e+07
1.26668e+07
1.56962e+07
1.56372e+07
1.55315e+07
1.53922e+07
1.52304e+07
1.50543e+07
1.48699e+07
1.4681e+07
1.44902e+07
1.42988e+07
1.41075e+07
1.39163e+07
1.37248e+07
1.35321e+07
1.33362e+07
1.31343e+07
1.29207e+07
1.26849e+07
1.57014e+07
1.56419e+07
1.55354e+07
1.53953e+07
1.52328e+07
1.50562e+07
1.48714e+07
1.46823e+07
1.44914e+07
1.43e+07
1.41088e+07
1.39179e+07
1.37269e+07
1.35348e+07
1.33402e+07
1.31407e+07
1.29327e+07
1.27124e+07
1.57102e+07
1.56497e+07
1.55419e+07
1.54005e+07
1.52368e+07
1.50593e+07
1.48739e+07
1.46845e+07
1.44934e+07
1.4302e+07
1.4111e+07
1.39205e+07
1.37301e+07
1.35392e+07
1.33465e+07
1.31506e+07
1.29496e+07
1.27443e+07
1.57231e+07
1.56612e+07
1.55514e+07
1.54079e+07
1.52426e+07
1.50638e+07
1.48776e+07
1.46876e+07
1.44963e+07
1.43049e+07
1.41142e+07
1.39242e+07
1.37348e+07
1.35455e+07
1.33554e+07
1.31637e+07
1.29705e+07
1.27784e+07
1.57411e+07
1.56772e+07
1.55645e+07
1.54182e+07
1.52505e+07
1.507e+07
1.48825e+07
1.46919e+07
1.45002e+07
1.43089e+07
1.41185e+07
1.39293e+07
1.37411e+07
1.35537e+07
1.33666e+07
1.31799e+07
1.29943e+07
1.28134e+07
1.57652e+07
1.56986e+07
1.55819e+07
1.54317e+07
1.52608e+07
1.5078e+07
1.48889e+07
1.46973e+07
1.45052e+07
1.43139e+07
1.41239e+07
1.39356e+07
1.3749e+07
1.35639e+07
1.33803e+07
1.31987e+07
1.30205e+07
1.28489e+07
1.57969e+07
1.57264e+07
1.56043e+07
1.5449e+07
1.52739e+07
1.5088e+07
1.48969e+07
1.4704e+07
1.45114e+07
1.43201e+07
1.41307e+07
1.39435e+07
1.37586e+07
1.35761e+07
1.33962e+07
1.32198e+07
1.30482e+07
1.28843e+07
1.58379e+07
1.57619e+07
1.56326e+07
1.54704e+07
1.52899e+07
1.51002e+07
1.49065e+07
1.47121e+07
1.45188e+07
1.43275e+07
1.41387e+07
1.39528e+07
1.37699e+07
1.35902e+07
1.34141e+07
1.32426e+07
1.30771e+07
1.29197e+07
1.58903e+07
1.58068e+07
1.56675e+07
1.54965e+07
1.53092e+07
1.51146e+07
1.49179e+07
1.47217e+07
1.45275e+07
1.43361e+07
1.41481e+07
1.39635e+07
1.37827e+07
1.3606e+07
1.34337e+07
1.32669e+07
1.31068e+07
1.29548e+07
1.59573e+07
1.58629e+07
1.57102e+07
1.55276e+07
1.53317e+07
1.51313e+07
1.49308e+07
1.47325e+07
1.45373e+07
1.4346e+07
1.41587e+07
1.39756e+07
1.3797e+07
1.36232e+07
1.34547e+07
1.32923e+07
1.31369e+07
1.29896e+07
1.60358e+07
1.59267e+07
1.57571e+07
1.55608e+07
1.53552e+07
1.51484e+07
1.4944e+07
1.47433e+07
1.45472e+07
1.43558e+07
1.41693e+07
1.39877e+07
1.38113e+07
1.36402e+07
1.34749e+07
1.33161e+07
1.31646e+07
1.3021e+07
1.61321e+07
1.60023e+07
1.58106e+07
1.55975e+07
1.53805e+07
1.51665e+07
1.49577e+07
1.47547e+07
1.45576e+07
1.43662e+07
1.41805e+07
1.40004e+07
1.38261e+07
1.36576e+07
1.34954e+07
1.334e+07
1.31919e+07
1.30515e+07
1.6274e+07
1.6107e+07
1.58804e+07
1.56431e+07
1.5411e+07
1.51877e+07
1.49736e+07
1.47678e+07
1.45696e+07
1.43783e+07
1.41937e+07
1.40154e+07
1.38435e+07
1.3678e+07
1.35191e+07
1.33672e+07
1.32226e+07
1.30855e+07
1.64938e+07
1.6252e+07
1.59681e+07
1.56964e+07
1.54446e+07
1.52104e+07
1.49903e+07
1.47815e+07
1.45824e+07
1.43916e+07
1.42084e+07
1.40323e+07
1.38632e+07
1.37009e+07
1.35455e+07
1.33973e+07
1.32562e+07
1.31223e+07
1.68624e+07
1.64442e+07
1.60655e+07
1.57485e+07
1.54747e+07
1.52294e+07
1.5004e+07
1.47932e+07
1.4594e+07
1.44044e+07
1.42233e+07
1.405e+07
1.38841e+07
1.37254e+07
1.35738e+07
1.34292e+07
1.32917e+07
1.3161e+07
1.75681e+07
1.66349e+07
1.61272e+07
1.57711e+07
1.54835e+07
1.52334e+07
1.5007e+07
1.47972e+07
1.46001e+07
1.44134e+07
1.42356e+07
1.40661e+07
1.39041e+07
1.37495e+07
1.36019e+07
1.34612e+07
1.33273e+07
1.31999e+07
1.66935e+07
1.6343e+07
1.5999e+07
1.56999e+07
1.54378e+07
1.52021e+07
1.49855e+07
1.47835e+07
1.4593e+07
1.44123e+07
1.42403e+07
1.40761e+07
1.39194e+07
1.37696e+07
1.36266e+07
1.34902e+07
1.33601e+07
1.32362e+07
1.6096e+07
1.59505e+07
1.57498e+07
1.55363e+07
1.53258e+07
1.51229e+07
1.49288e+07
1.47432e+07
1.45654e+07
1.43951e+07
1.42319e+07
1.40754e+07
1.39254e+07
1.37817e+07
1.36442e+07
1.35126e+07
1.33868e+07
1.32666e+07
1.57496e+07
1.56655e+07
1.55313e+07
1.5372e+07
1.52022e+07
1.50296e+07
1.48582e+07
1.46899e+07
1.45258e+07
1.43666e+07
1.42124e+07
1.40636e+07
1.39201e+07
1.37821e+07
1.36494e+07
1.3522e+07
1.33999e+07
1.32829e+07
1.55499e+07
1.5489e+07
1.53854e+07
1.52552e+07
1.511e+07
1.49573e+07
1.48016e+07
1.4646e+07
1.4492e+07
1.4341e+07
1.41937e+07
1.40506e+07
1.3912e+07
1.37781e+07
1.36489e+07
1.35246e+07
1.34051e+07
1.32904e+07
1.54169e+07
1.53676e+07
1.52809e+07
1.51683e+07
1.50392e+07
1.49002e+07
1.4756e+07
1.46097e+07
1.44635e+07
1.4319e+07
1.4177e+07
1.40383e+07
1.39034e+07
1.37727e+07
1.36463e+07
1.35243e+07
1.34068e+07
1.32938e+07
1.53265e+07
1.52836e+07
1.52069e+07
1.51054e+07
1.49868e+07
1.48573e+07
1.47211e+07
1.45816e+07
1.44411e+07
1.43012e+07
1.41632e+07
1.40278e+07
1.38958e+07
1.37675e+07
1.36431e+07
1.35229e+07
1.34068e+07
1.32951e+07
1.52647e+07
1.52257e+07
1.51552e+07
1.50607e+07
1.49491e+07
1.48259e+07
1.46953e+07
1.45606e+07
1.44241e+07
1.42877e+07
1.41525e+07
1.40196e+07
1.38896e+07
1.3763e+07
1.36401e+07
1.35211e+07
1.34062e+07
1.32953e+07
1.52227e+07
1.51862e+07
1.51196e+07
1.50297e+07
1.49227e+07
1.48037e+07
1.46769e+07
1.45455e+07
1.44118e+07
1.42777e+07
1.41446e+07
1.40134e+07
1.38848e+07
1.37595e+07
1.36376e+07
1.35195e+07
1.34054e+07
1.32952e+07
1.51948e+07
1.51598e+07
1.50957e+07
1.50087e+07
1.49047e+07
1.47885e+07
1.46643e+07
1.4535e+07
1.44033e+07
1.42708e+07
1.4139e+07
1.4009e+07
1.38814e+07
1.37569e+07
1.36357e+07
1.35183e+07
1.34046e+07
1.32948e+07
1.51769e+07
1.51428e+07
1.50802e+07
1.49951e+07
1.48929e+07
1.47786e+07
1.46559e+07
1.45281e+07
1.43976e+07
1.42662e+07
1.41353e+07
1.4006e+07
1.38791e+07
1.37551e+07
1.36344e+07
1.35173e+07
1.3404e+07
1.32945e+07
1.5166e+07
1.51324e+07
1.50708e+07
1.49867e+07
1.48857e+07
1.47725e+07
1.46508e+07
1.45239e+07
1.43941e+07
1.42633e+07
1.41329e+07
1.40041e+07
1.38776e+07
1.37539e+07
1.36335e+07
1.35167e+07
1.34036e+07
1.32943e+07
1.51601e+07
1.51268e+07
1.50657e+07
1.49822e+07
1.48818e+07
1.47692e+07
1.4648e+07
1.45215e+07
1.43921e+07
1.42617e+07
1.41316e+07
1.40031e+07
1.38768e+07
1.37533e+07
1.36331e+07
1.35164e+07
1.34033e+07
1.32941e+07
1.51578e+07
1.51246e+07
1.50636e+07
1.49804e+07
1.48803e+07
1.47678e+07
1.46469e+07
1.45206e+07
1.43913e+07
1.4261e+07
1.41311e+07
1.40027e+07
1.38764e+07
1.3753e+07
1.36329e+07
1.35162e+07
1.34032e+07
1.32941e+07
1.07172e+07
1.07172e+07
1.07172e+07
1.07171e+07
1.0717e+07
1.07168e+07
1.07166e+07
1.07164e+07
1.07162e+07
1.07159e+07
1.07156e+07
1.07152e+07
1.07148e+07
1.07144e+07
1.0714e+07
1.07135e+07
1.07129e+07
1.07124e+07
1.07118e+07
1.07112e+07
1.07105e+07
1.07098e+07
1.07091e+07
1.07083e+07
1.07075e+07
1.07066e+07
1.07058e+07
1.07049e+07
1.07039e+07
1.07029e+07
1.07019e+07
1.07009e+07
1.06998e+07
1.06987e+07
1.06976e+07
1.06964e+07
1.06952e+07
1.06939e+07
1.06927e+07
1.06914e+07
1.06901e+07
1.06887e+07
1.06873e+07
1.06859e+07
1.06845e+07
1.0683e+07
1.06815e+07
1.068e+07
1.06784e+07
1.06768e+07
1.06752e+07
1.06736e+07
1.06719e+07
1.06702e+07
1.06685e+07
1.06668e+07
1.0665e+07
1.06632e+07
1.06614e+07
1.06596e+07
1.06577e+07
1.06558e+07
1.06539e+07
1.06519e+07
1.065e+07
1.0648e+07
1.0646e+07
1.0644e+07
1.06419e+07
1.06398e+07
1.06377e+07
1.06356e+07
1.06334e+07
1.06313e+07
1.06291e+07
1.06269e+07
1.06246e+07
1.06223e+07
1.06201e+07
1.06178e+07
1.06154e+07
1.06131e+07
1.06107e+07
1.06083e+07
1.06059e+07
1.06034e+07
1.0601e+07
1.05985e+07
1.0596e+07
1.05934e+07
1.05909e+07
1.05883e+07
1.05857e+07
1.05831e+07
1.05804e+07
1.05777e+07
1.0575e+07
1.05723e+07
1.05696e+07
1.05668e+07
1.0564e+07
1.05612e+07
1.05584e+07
1.05555e+07
1.05527e+07
1.05498e+07
1.05468e+07
1.05439e+07
1.05409e+07
1.05379e+07
1.05349e+07
1.05318e+07
1.05288e+07
1.05257e+07
1.05226e+07
1.05194e+07
1.05162e+07
1.0513e+07
1.05098e+07
1.05066e+07
1.05033e+07
1.05e+07
1.04967e+07
1.04933e+07
1.04899e+07
1.04865e+07
1.04831e+07
1.04797e+07
1.04762e+07
1.04727e+07
1.04691e+07
1.04655e+07
1.04619e+07
1.04583e+07
1.04547e+07
1.0451e+07
1.04473e+07
1.04435e+07
1.04398e+07
1.0436e+07
1.04321e+07
1.04283e+07
1.04244e+07
1.04205e+07
1.04165e+07
1.04126e+07
1.04085e+07
1.04045e+07
1.04004e+07
1.03963e+07
1.03922e+07
1.0388e+07
1.03838e+07
1.03796e+07
1.03753e+07
1.0371e+07
1.03667e+07
1.03623e+07
1.03579e+07
1.03535e+07
1.0349e+07
1.03445e+07
1.034e+07
1.03354e+07
1.03308e+07
1.03262e+07
1.03215e+07
1.03168e+07
1.0312e+07
1.03072e+07
1.03024e+07
1.02976e+07
1.02927e+07
1.02878e+07
1.02828e+07
1.02779e+07
1.02729e+07
1.02679e+07
1.02629e+07
1.0258e+07
1.07174e+07
1.07173e+07
1.07173e+07
1.07172e+07
1.07171e+07
1.07169e+07
1.07167e+07
1.07165e+07
1.07163e+07
1.0716e+07
1.07157e+07
1.07153e+07
1.07149e+07
1.07145e+07
1.07141e+07
1.07136e+07
1.0713e+07
1.07125e+07
1.07119e+07
1.07113e+07
1.07106e+07
1.07099e+07
1.07091e+07
1.07084e+07
1.07076e+07
1.07067e+07
1.07058e+07
1.07049e+07
1.0704e+07
1.0703e+07
1.0702e+07
1.07009e+07
1.06999e+07
1.06988e+07
1.06976e+07
1.06964e+07
1.06952e+07
1.0694e+07
1.06927e+07
1.06914e+07
1.06901e+07
1.06887e+07
1.06874e+07
1.06859e+07
1.06845e+07
1.0683e+07
1.06815e+07
1.068e+07
1.06784e+07
1.06768e+07
1.06752e+07
1.06736e+07
1.06719e+07
1.06702e+07
1.06685e+07
1.06668e+07
1.0665e+07
1.06632e+07
1.06614e+07
1.06596e+07
1.06577e+07
1.06558e+07
1.06539e+07
1.0652e+07
1.065e+07
1.0648e+07
1.0646e+07
1.0644e+07
1.06419e+07
1.06398e+07
1.06377e+07
1.06356e+07
1.06334e+07
1.06313e+07
1.06291e+07
1.06269e+07
1.06246e+07
1.06223e+07
1.06201e+07
1.06178e+07
1.06154e+07
1.06131e+07
1.06107e+07
1.06083e+07
1.06059e+07
1.06034e+07
1.0601e+07
1.05985e+07
1.0596e+07
1.05934e+07
1.05909e+07
1.05883e+07
1.05857e+07
1.05831e+07
1.05804e+07
1.05777e+07
1.0575e+07
1.05723e+07
1.05696e+07
1.05668e+07
1.0564e+07
1.05612e+07
1.05584e+07
1.05555e+07
1.05527e+07
1.05498e+07
1.05468e+07
1.05439e+07
1.05409e+07
1.05379e+07
1.05349e+07
1.05318e+07
1.05288e+07
1.05257e+07
1.05226e+07
1.05194e+07
1.05162e+07
1.0513e+07
1.05098e+07
1.05066e+07
1.05033e+07
1.05e+07
1.04967e+07
1.04933e+07
1.04899e+07
1.04865e+07
1.04831e+07
1.04797e+07
1.04762e+07
1.04727e+07
1.04691e+07
1.04655e+07
1.04619e+07
1.04583e+07
1.04547e+07
1.0451e+07
1.04473e+07
1.04435e+07
1.04398e+07
1.0436e+07
1.04321e+07
1.04283e+07
1.04244e+07
1.04205e+07
1.04165e+07
1.04126e+07
1.04085e+07
1.04045e+07
1.04004e+07
1.03963e+07
1.03922e+07
1.0388e+07
1.03838e+07
1.03796e+07
1.03753e+07
1.0371e+07
1.03667e+07
1.03623e+07
1.03579e+07
1.03535e+07
1.0349e+07
1.03445e+07
1.034e+07
1.03354e+07
1.03308e+07
1.03262e+07
1.03215e+07
1.03168e+07
1.0312e+07
1.03072e+07
1.03024e+07
1.02976e+07
1.02927e+07
1.02878e+07
1.02828e+07
1.02779e+07
1.02729e+07
1.02679e+07
1.02629e+07
1.02579e+07
1.07176e+07
1.07176e+07
1.07175e+07
1.07175e+07
1.07173e+07
1.07172e+07
1.0717e+07
1.07168e+07
1.07165e+07
1.07162e+07
1.07159e+07
1.07156e+07
1.07152e+07
1.07147e+07
1.07143e+07
1.07138e+07
1.07133e+07
1.07127e+07
1.07121e+07
1.07115e+07
1.07108e+07
1.07101e+07
1.07093e+07
1.07085e+07
1.07077e+07
1.07069e+07
1.0706e+07
1.07051e+07
1.07041e+07
1.07031e+07
1.07021e+07
1.07011e+07
1.07e+07
1.06989e+07
1.06977e+07
1.06965e+07
1.06953e+07
1.06941e+07
1.06928e+07
1.06915e+07
1.06902e+07
1.06888e+07
1.06874e+07
1.0686e+07
1.06846e+07
1.06831e+07
1.06816e+07
1.06801e+07
1.06785e+07
1.06769e+07
1.06753e+07
1.06737e+07
1.0672e+07
1.06703e+07
1.06686e+07
1.06668e+07
1.06651e+07
1.06633e+07
1.06614e+07
1.06596e+07
1.06577e+07
1.06558e+07
1.06539e+07
1.0652e+07
1.065e+07
1.0648e+07
1.0646e+07
1.0644e+07
1.06419e+07
1.06398e+07
1.06377e+07
1.06356e+07
1.06335e+07
1.06313e+07
1.06291e+07
1.06269e+07
1.06246e+07
1.06224e+07
1.06201e+07
1.06178e+07
1.06154e+07
1.06131e+07
1.06107e+07
1.06083e+07
1.06059e+07
1.06034e+07
1.0601e+07
1.05985e+07
1.0596e+07
1.05934e+07
1.05909e+07
1.05883e+07
1.05857e+07
1.05831e+07
1.05804e+07
1.05777e+07
1.0575e+07
1.05723e+07
1.05696e+07
1.05668e+07
1.0564e+07
1.05612e+07
1.05584e+07
1.05555e+07
1.05527e+07
1.05498e+07
1.05468e+07
1.05439e+07
1.05409e+07
1.05379e+07
1.05349e+07
1.05318e+07
1.05288e+07
1.05257e+07
1.05226e+07
1.05194e+07
1.05162e+07
1.0513e+07
1.05098e+07
1.05066e+07
1.05033e+07
1.05e+07
1.04967e+07
1.04933e+07
1.04899e+07
1.04865e+07
1.04831e+07
1.04796e+07
1.04762e+07
1.04726e+07
1.04691e+07
1.04655e+07
1.04619e+07
1.04583e+07
1.04547e+07
1.0451e+07
1.04473e+07
1.04435e+07
1.04398e+07
1.0436e+07
1.04321e+07
1.04283e+07
1.04244e+07
1.04205e+07
1.04165e+07
1.04126e+07
1.04085e+07
1.04045e+07
1.04004e+07
1.03963e+07
1.03922e+07
1.0388e+07
1.03838e+07
1.03796e+07
1.03753e+07
1.0371e+07
1.03667e+07
1.03623e+07
1.03579e+07
1.03535e+07
1.0349e+07
1.03445e+07
1.034e+07
1.03354e+07
1.03308e+07
1.03262e+07
1.03215e+07
1.03168e+07
1.0312e+07
1.03072e+07
1.03024e+07
1.02976e+07
1.02927e+07
1.02878e+07
1.02828e+07
1.02779e+07
1.02729e+07
1.02679e+07
1.02629e+07
1.02579e+07
1.0718e+07
1.0718e+07
1.07179e+07
1.07178e+07
1.07177e+07
1.07176e+07
1.07174e+07
1.07172e+07
1.07169e+07
1.07166e+07
1.07163e+07
1.07159e+07
1.07155e+07
1.07151e+07
1.07146e+07
1.07141e+07
1.07136e+07
1.0713e+07
1.07124e+07
1.07118e+07
1.07111e+07
1.07104e+07
1.07096e+07
1.07088e+07
1.0708e+07
1.07071e+07
1.07062e+07
1.07053e+07
1.07044e+07
1.07034e+07
1.07023e+07
1.07013e+07
1.07002e+07
1.06991e+07
1.06979e+07
1.06967e+07
1.06955e+07
1.06942e+07
1.0693e+07
1.06917e+07
1.06903e+07
1.0689e+07
1.06876e+07
1.06861e+07
1.06847e+07
1.06832e+07
1.06817e+07
1.06801e+07
1.06786e+07
1.0677e+07
1.06754e+07
1.06737e+07
1.06721e+07
1.06704e+07
1.06686e+07
1.06669e+07
1.06651e+07
1.06633e+07
1.06615e+07
1.06597e+07
1.06578e+07
1.06559e+07
1.0654e+07
1.0652e+07
1.06501e+07
1.06481e+07
1.06461e+07
1.0644e+07
1.0642e+07
1.06399e+07
1.06378e+07
1.06356e+07
1.06335e+07
1.06313e+07
1.06291e+07
1.06269e+07
1.06246e+07
1.06224e+07
1.06201e+07
1.06178e+07
1.06154e+07
1.06131e+07
1.06107e+07
1.06083e+07
1.06059e+07
1.06034e+07
1.0601e+07
1.05985e+07
1.0596e+07
1.05934e+07
1.05909e+07
1.05883e+07
1.05857e+07
1.05831e+07
1.05804e+07
1.05777e+07
1.05751e+07
1.05723e+07
1.05696e+07
1.05668e+07
1.0564e+07
1.05612e+07
1.05584e+07
1.05555e+07
1.05527e+07
1.05498e+07
1.05468e+07
1.05439e+07
1.05409e+07
1.05379e+07
1.05349e+07
1.05318e+07
1.05288e+07
1.05257e+07
1.05226e+07
1.05194e+07
1.05162e+07
1.0513e+07
1.05098e+07
1.05066e+07
1.05033e+07
1.05e+07
1.04967e+07
1.04933e+07
1.04899e+07
1.04865e+07
1.04831e+07
1.04796e+07
1.04762e+07
1.04726e+07
1.04691e+07
1.04655e+07
1.04619e+07
1.04583e+07
1.04547e+07
1.0451e+07
1.04473e+07
1.04435e+07
1.04398e+07
1.0436e+07
1.04321e+07
1.04283e+07
1.04244e+07
1.04205e+07
1.04165e+07
1.04126e+07
1.04085e+07
1.04045e+07
1.04004e+07
1.03963e+07
1.03922e+07
1.0388e+07
1.03838e+07
1.03796e+07
1.03753e+07
1.0371e+07
1.03667e+07
1.03623e+07
1.03579e+07
1.03535e+07
1.0349e+07
1.03445e+07
1.034e+07
1.03354e+07
1.03308e+07
1.03261e+07
1.03215e+07
1.03168e+07
1.0312e+07
1.03072e+07
1.03024e+07
1.02976e+07
1.02927e+07
1.02878e+07
1.02828e+07
1.02778e+07
1.02728e+07
1.02678e+07
1.02628e+07
1.02578e+07
1.07186e+07
1.07185e+07
1.07185e+07
1.07184e+07
1.07182e+07
1.07181e+07
1.07179e+07
1.07177e+07
1.07174e+07
1.07171e+07
1.07168e+07
1.07164e+07
1.0716e+07
1.07156e+07
1.07151e+07
1.07146e+07
1.0714e+07
1.07134e+07
1.07128e+07
1.07122e+07
1.07115e+07
1.07107e+07
1.071e+07
1.07092e+07
1.07083e+07
1.07075e+07
1.07066e+07
1.07056e+07
1.07047e+07
1.07036e+07
1.07026e+07
1.07015e+07
1.07004e+07
1.06993e+07
1.06981e+07
1.06969e+07
1.06957e+07
1.06945e+07
1.06932e+07
1.06918e+07
1.06905e+07
1.06891e+07
1.06877e+07
1.06863e+07
1.06848e+07
1.06833e+07
1.06818e+07
1.06803e+07
1.06787e+07
1.06771e+07
1.06755e+07
1.06738e+07
1.06722e+07
1.06705e+07
1.06687e+07
1.0667e+07
1.06652e+07
1.06634e+07
1.06616e+07
1.06597e+07
1.06578e+07
1.06559e+07
1.0654e+07
1.06521e+07
1.06501e+07
1.06481e+07
1.06461e+07
1.06441e+07
1.0642e+07
1.06399e+07
1.06378e+07
1.06357e+07
1.06335e+07
1.06313e+07
1.06291e+07
1.06269e+07
1.06247e+07
1.06224e+07
1.06201e+07
1.06178e+07
1.06155e+07
1.06131e+07
1.06107e+07
1.06083e+07
1.06059e+07
1.06034e+07
1.0601e+07
1.05985e+07
1.0596e+07
1.05934e+07
1.05909e+07
1.05883e+07
1.05857e+07
1.05831e+07
1.05804e+07
1.05777e+07
1.05751e+07
1.05723e+07
1.05696e+07
1.05668e+07
1.0564e+07
1.05612e+07
1.05584e+07
1.05555e+07
1.05527e+07
1.05498e+07
1.05468e+07
1.05439e+07
1.05409e+07
1.05379e+07
1.05349e+07
1.05318e+07
1.05288e+07
1.05257e+07
1.05226e+07
1.05194e+07
1.05162e+07
1.0513e+07
1.05098e+07
1.05066e+07
1.05033e+07
1.05e+07
1.04967e+07
1.04933e+07
1.04899e+07
1.04865e+07
1.04831e+07
1.04796e+07
1.04762e+07
1.04726e+07
1.04691e+07
1.04655e+07
1.04619e+07
1.04583e+07
1.04547e+07
1.0451e+07
1.04473e+07
1.04435e+07
1.04398e+07
1.0436e+07
1.04321e+07
1.04283e+07
1.04244e+07
1.04205e+07
1.04165e+07
1.04125e+07
1.04085e+07
1.04045e+07
1.04004e+07
1.03963e+07
1.03922e+07
1.0388e+07
1.03838e+07
1.03796e+07
1.03753e+07
1.0371e+07
1.03667e+07
1.03623e+07
1.03579e+07
1.03535e+07
1.0349e+07
1.03445e+07
1.034e+07
1.03354e+07
1.03308e+07
1.03261e+07
1.03215e+07
1.03168e+07
1.0312e+07
1.03072e+07
1.03024e+07
1.02976e+07
1.02927e+07
1.02877e+07
1.02828e+07
1.02778e+07
1.02728e+07
1.02678e+07
1.02628e+07
1.02577e+07
1.07192e+07
1.07192e+07
1.07191e+07
1.0719e+07
1.07189e+07
1.07187e+07
1.07185e+07
1.07183e+07
1.0718e+07
1.07177e+07
1.07174e+07
1.0717e+07
1.07166e+07
1.07161e+07
1.07157e+07
1.07151e+07
1.07146e+07
1.0714e+07
1.07133e+07
1.07127e+07
1.0712e+07
1.07112e+07
1.07104e+07
1.07096e+07
1.07088e+07
1.07079e+07
1.0707e+07
1.0706e+07
1.0705e+07
1.0704e+07
1.0703e+07
1.07019e+07
1.07008e+07
1.06996e+07
1.06984e+07
1.06972e+07
1.0696e+07
1.06947e+07
1.06934e+07
1.06921e+07
1.06907e+07
1.06893e+07
1.06879e+07
1.06865e+07
1.0685e+07
1.06835e+07
1.0682e+07
1.06804e+07
1.06789e+07
1.06772e+07
1.06756e+07
1.0674e+07
1.06723e+07
1.06706e+07
1.06688e+07
1.06671e+07
1.06653e+07
1.06635e+07
1.06617e+07
1.06598e+07
1.06579e+07
1.0656e+07
1.06541e+07
1.06521e+07
1.06502e+07
1.06482e+07
1.06462e+07
1.06441e+07
1.0642e+07
1.064e+07
1.06378e+07
1.06357e+07
1.06335e+07
1.06314e+07
1.06292e+07
1.06269e+07
1.06247e+07
1.06224e+07
1.06201e+07
1.06178e+07
1.06155e+07
1.06131e+07
1.06107e+07
1.06083e+07
1.06059e+07
1.06035e+07
1.0601e+07
1.05985e+07
1.0596e+07
1.05935e+07
1.05909e+07
1.05883e+07
1.05857e+07
1.05831e+07
1.05804e+07
1.05778e+07
1.05751e+07
1.05723e+07
1.05696e+07
1.05668e+07
1.05641e+07
1.05612e+07
1.05584e+07
1.05556e+07
1.05527e+07
1.05498e+07
1.05468e+07
1.05439e+07
1.05409e+07
1.05379e+07
1.05349e+07
1.05318e+07
1.05288e+07
1.05257e+07
1.05226e+07
1.05194e+07
1.05162e+07
1.0513e+07
1.05098e+07
1.05066e+07
1.05033e+07
1.05e+07
1.04967e+07
1.04933e+07
1.04899e+07
1.04865e+07
1.04831e+07
1.04796e+07
1.04762e+07
1.04726e+07
1.04691e+07
1.04655e+07
1.04619e+07
1.04583e+07
1.04547e+07
1.0451e+07
1.04473e+07
1.04435e+07
1.04398e+07
1.0436e+07
1.04321e+07
1.04283e+07
1.04244e+07
1.04205e+07
1.04165e+07
1.04125e+07
1.04085e+07
1.04045e+07
1.04004e+07
1.03963e+07
1.03922e+07
1.0388e+07
1.03838e+07
1.03796e+07
1.03753e+07
1.0371e+07
1.03667e+07
1.03623e+07
1.03579e+07
1.03535e+07
1.0349e+07
1.03445e+07
1.034e+07
1.03354e+07
1.03308e+07
1.03261e+07
1.03215e+07
1.03167e+07
1.0312e+07
1.03072e+07
1.03024e+07
1.02975e+07
1.02927e+07
1.02877e+07
1.02828e+07
1.02778e+07
1.02728e+07
1.02678e+07
1.02627e+07
1.02576e+07
1.072e+07
1.072e+07
1.07199e+07
1.07198e+07
1.07197e+07
1.07195e+07
1.07193e+07
1.07191e+07
1.07188e+07
1.07185e+07
1.07181e+07
1.07178e+07
1.07173e+07
1.07169e+07
1.07164e+07
1.07158e+07
1.07152e+07
1.07146e+07
1.0714e+07
1.07133e+07
1.07125e+07
1.07118e+07
1.0711e+07
1.07102e+07
1.07093e+07
1.07084e+07
1.07074e+07
1.07065e+07
1.07055e+07
1.07044e+07
1.07034e+07
1.07023e+07
1.07011e+07
1.07e+07
1.06988e+07
1.06975e+07
1.06963e+07
1.0695e+07
1.06937e+07
1.06924e+07
1.0691e+07
1.06896e+07
1.06882e+07
1.06867e+07
1.06852e+07
1.06837e+07
1.06822e+07
1.06806e+07
1.0679e+07
1.06774e+07
1.06758e+07
1.06741e+07
1.06724e+07
1.06707e+07
1.0669e+07
1.06672e+07
1.06654e+07
1.06636e+07
1.06618e+07
1.06599e+07
1.0658e+07
1.06561e+07
1.06542e+07
1.06522e+07
1.06502e+07
1.06482e+07
1.06462e+07
1.06442e+07
1.06421e+07
1.064e+07
1.06379e+07
1.06358e+07
1.06336e+07
1.06314e+07
1.06292e+07
1.0627e+07
1.06247e+07
1.06225e+07
1.06202e+07
1.06178e+07
1.06155e+07
1.06131e+07
1.06108e+07
1.06084e+07
1.06059e+07
1.06035e+07
1.0601e+07
1.05985e+07
1.0596e+07
1.05935e+07
1.05909e+07
1.05883e+07
1.05857e+07
1.05831e+07
1.05804e+07
1.05778e+07
1.05751e+07
1.05724e+07
1.05696e+07
1.05668e+07
1.05641e+07
1.05612e+07
1.05584e+07
1.05556e+07
1.05527e+07
1.05498e+07
1.05468e+07
1.05439e+07
1.05409e+07
1.05379e+07
1.05349e+07
1.05318e+07
1.05288e+07
1.05257e+07
1.05226e+07
1.05194e+07
1.05162e+07
1.0513e+07
1.05098e+07
1.05066e+07
1.05033e+07
1.05e+07
1.04967e+07
1.04933e+07
1.04899e+07
1.04865e+07
1.04831e+07
1.04796e+07
1.04762e+07
1.04726e+07
1.04691e+07
1.04655e+07
1.04619e+07
1.04583e+07
1.04547e+07
1.0451e+07
1.04473e+07
1.04435e+07
1.04398e+07
1.0436e+07
1.04321e+07
1.04283e+07
1.04244e+07
1.04205e+07
1.04165e+07
1.04125e+07
1.04085e+07
1.04045e+07
1.04004e+07
1.03963e+07
1.03922e+07
1.0388e+07
1.03838e+07
1.03796e+07
1.03753e+07
1.0371e+07
1.03667e+07
1.03623e+07
1.03579e+07
1.03535e+07
1.0349e+07
1.03445e+07
1.034e+07
1.03354e+07
1.03308e+07
1.03261e+07
1.03215e+07
1.03167e+07
1.0312e+07
1.03072e+07
1.03024e+07
1.02975e+07
1.02926e+07
1.02877e+07
1.02828e+07
1.02778e+07
1.02728e+07
1.02677e+07
1.02626e+07
1.02575e+07
1.0721e+07
1.0721e+07
1.07209e+07
1.07208e+07
1.07206e+07
1.07205e+07
1.07203e+07
1.072e+07
1.07197e+07
1.07194e+07
1.0719e+07
1.07186e+07
1.07182e+07
1.07177e+07
1.07172e+07
1.07166e+07
1.0716e+07
1.07154e+07
1.07147e+07
1.0714e+07
1.07132e+07
1.07125e+07
1.07116e+07
1.07108e+07
1.07099e+07
1.0709e+07
1.0708e+07
1.0707e+07
1.0706e+07
1.07049e+07
1.07038e+07
1.07027e+07
1.07016e+07
1.07004e+07
1.06992e+07
1.06979e+07
1.06967e+07
1.06954e+07
1.0694e+07
1.06927e+07
1.06913e+07
1.06899e+07
1.06884e+07
1.0687e+07
1.06855e+07
1.0684e+07
1.06824e+07
1.06808e+07
1.06792e+07
1.06776e+07
1.0676e+07
1.06743e+07
1.06726e+07
1.06709e+07
1.06691e+07
1.06673e+07
1.06656e+07
1.06637e+07
1.06619e+07
1.066e+07
1.06581e+07
1.06562e+07
1.06543e+07
1.06523e+07
1.06503e+07
1.06483e+07
1.06463e+07
1.06442e+07
1.06422e+07
1.06401e+07
1.0638e+07
1.06358e+07
1.06337e+07
1.06315e+07
1.06293e+07
1.0627e+07
1.06248e+07
1.06225e+07
1.06202e+07
1.06179e+07
1.06155e+07
1.06132e+07
1.06108e+07
1.06084e+07
1.0606e+07
1.06035e+07
1.0601e+07
1.05985e+07
1.0596e+07
1.05935e+07
1.05909e+07
1.05883e+07
1.05857e+07
1.05831e+07
1.05804e+07
1.05778e+07
1.05751e+07
1.05724e+07
1.05696e+07
1.05669e+07
1.05641e+07
1.05613e+07
1.05584e+07
1.05556e+07
1.05527e+07
1.05498e+07
1.05468e+07
1.05439e+07
1.05409e+07
1.05379e+07
1.05349e+07
1.05318e+07
1.05288e+07
1.05257e+07
1.05226e+07
1.05194e+07
1.05162e+07
1.0513e+07
1.05098e+07
1.05066e+07
1.05033e+07
1.05e+07
1.04967e+07
1.04933e+07
1.04899e+07
1.04865e+07
1.04831e+07
1.04796e+07
1.04762e+07
1.04726e+07
1.04691e+07
1.04655e+07
1.04619e+07
1.04583e+07
1.04547e+07
1.0451e+07
1.04473e+07
1.04435e+07
1.04398e+07
1.0436e+07
1.04321e+07
1.04283e+07
1.04244e+07
1.04205e+07
1.04165e+07
1.04125e+07
1.04085e+07
1.04045e+07
1.04004e+07
1.03963e+07
1.03922e+07
1.0388e+07
1.03838e+07
1.03796e+07
1.03753e+07
1.0371e+07
1.03667e+07
1.03623e+07
1.03579e+07
1.03535e+07
1.0349e+07
1.03445e+07
1.034e+07
1.03354e+07
1.03308e+07
1.03261e+07
1.03215e+07
1.03167e+07
1.0312e+07
1.03072e+07
1.03024e+07
1.02975e+07
1.02926e+07
1.02877e+07
1.02827e+07
1.02778e+07
1.02727e+07
1.02677e+07
1.02626e+07
1.02575e+07
1.07221e+07
1.07221e+07
1.0722e+07
1.07219e+07
1.07217e+07
1.07216e+07
1.07213e+07
1.07211e+07
1.07208e+07
1.07204e+07
1.07201e+07
1.07196e+07
1.07192e+07
1.07187e+07
1.07181e+07
1.07175e+07
1.07169e+07
1.07162e+07
1.07155e+07
1.07148e+07
1.0714e+07
1.07132e+07
1.07124e+07
1.07115e+07
1.07106e+07
1.07096e+07
1.07086e+07
1.07076e+07
1.07066e+07
1.07055e+07
1.07044e+07
1.07032e+07
1.07021e+07
1.07009e+07
1.06996e+07
1.06984e+07
1.06971e+07
1.06958e+07
1.06944e+07
1.0693e+07
1.06916e+07
1.06902e+07
1.06887e+07
1.06873e+07
1.06858e+07
1.06842e+07
1.06827e+07
1.06811e+07
1.06795e+07
1.06778e+07
1.06762e+07
1.06745e+07
1.06728e+07
1.0671e+07
1.06693e+07
1.06675e+07
1.06657e+07
1.06639e+07
1.0662e+07
1.06602e+07
1.06583e+07
1.06563e+07
1.06544e+07
1.06524e+07
1.06504e+07
1.06484e+07
1.06464e+07
1.06443e+07
1.06423e+07
1.06402e+07
1.0638e+07
1.06359e+07
1.06337e+07
1.06315e+07
1.06293e+07
1.06271e+07
1.06248e+07
1.06225e+07
1.06202e+07
1.06179e+07
1.06156e+07
1.06132e+07
1.06108e+07
1.06084e+07
1.0606e+07
1.06035e+07
1.06011e+07
1.05986e+07
1.0596e+07
1.05935e+07
1.05909e+07
1.05884e+07
1.05857e+07
1.05831e+07
1.05805e+07
1.05778e+07
1.05751e+07
1.05724e+07
1.05696e+07
1.05669e+07
1.05641e+07
1.05613e+07
1.05584e+07
1.05556e+07
1.05527e+07
1.05498e+07
1.05468e+07
1.05439e+07
1.05409e+07
1.05379e+07
1.05349e+07
1.05318e+07
1.05288e+07
1.05257e+07
1.05226e+07
1.05194e+07
1.05162e+07
1.0513e+07
1.05098e+07
1.05066e+07
1.05033e+07
1.05e+07
1.04967e+07
1.04933e+07
1.04899e+07
1.04865e+07
1.04831e+07
1.04796e+07
1.04762e+07
1.04726e+07
1.04691e+07
1.04655e+07
1.04619e+07
1.04583e+07
1.04547e+07
1.0451e+07
1.04473e+07
1.04435e+07
1.04398e+07
1.0436e+07
1.04321e+07
1.04283e+07
1.04244e+07
1.04205e+07
1.04165e+07
1.04125e+07
1.04085e+07
1.04045e+07
1.04004e+07
1.03963e+07
1.03922e+07
1.0388e+07
1.03838e+07
1.03796e+07
1.03753e+07
1.0371e+07
1.03667e+07
1.03623e+07
1.03579e+07
1.03535e+07
1.0349e+07
1.03445e+07
1.034e+07
1.03354e+07
1.03308e+07
1.03261e+07
1.03214e+07
1.03167e+07
1.0312e+07
1.03072e+07
1.03024e+07
1.02975e+07
1.02926e+07
1.02877e+07
1.02827e+07
1.02777e+07
1.02727e+07
1.02676e+07
1.02625e+07
1.02574e+07
1.07234e+07
1.07233e+07
1.07232e+07
1.07231e+07
1.0723e+07
1.07228e+07
1.07226e+07
1.07223e+07
1.0722e+07
1.07216e+07
1.07212e+07
1.07208e+07
1.07203e+07
1.07198e+07
1.07192e+07
1.07186e+07
1.07179e+07
1.07172e+07
1.07165e+07
1.07157e+07
1.07149e+07
1.07141e+07
1.07132e+07
1.07123e+07
1.07113e+07
1.07104e+07
1.07094e+07
1.07083e+07
1.07072e+07
1.07061e+07
1.0705e+07
1.07038e+07
1.07026e+07
1.07014e+07
1.07001e+07
1.06988e+07
1.06975e+07
1.06962e+07
1.06948e+07
1.06934e+07
1.0692e+07
1.06906e+07
1.06891e+07
1.06876e+07
1.06861e+07
1.06845e+07
1.0683e+07
1.06814e+07
1.06797e+07
1.06781e+07
1.06764e+07
1.06747e+07
1.0673e+07
1.06713e+07
1.06695e+07
1.06677e+07
1.06659e+07
1.0664e+07
1.06622e+07
1.06603e+07
1.06584e+07
1.06565e+07
1.06545e+07
1.06525e+07
1.06505e+07
1.06485e+07
1.06465e+07
1.06444e+07
1.06423e+07
1.06402e+07
1.06381e+07
1.0636e+07
1.06338e+07
1.06316e+07
1.06294e+07
1.06271e+07
1.06249e+07
1.06226e+07
1.06203e+07
1.0618e+07
1.06156e+07
1.06133e+07
1.06109e+07
1.06085e+07
1.0606e+07
1.06036e+07
1.06011e+07
1.05986e+07
1.05961e+07
1.05935e+07
1.0591e+07
1.05884e+07
1.05858e+07
1.05831e+07
1.05805e+07
1.05778e+07
1.05751e+07
1.05724e+07
1.05696e+07
1.05669e+07
1.05641e+07
1.05613e+07
1.05584e+07
1.05556e+07
1.05527e+07
1.05498e+07
1.05469e+07
1.05439e+07
1.05409e+07
1.05379e+07
1.05349e+07
1.05318e+07
1.05288e+07
1.05257e+07
1.05226e+07
1.05194e+07
1.05162e+07
1.0513e+07
1.05098e+07
1.05066e+07
1.05033e+07
1.05e+07
1.04967e+07
1.04933e+07
1.04899e+07
1.04865e+07
1.04831e+07
1.04796e+07
1.04761e+07
1.04726e+07
1.04691e+07
1.04655e+07
1.04619e+07
1.04583e+07
1.04547e+07
1.0451e+07
1.04473e+07
1.04435e+07
1.04398e+07
1.0436e+07
1.04321e+07
1.04283e+07
1.04244e+07
1.04205e+07
1.04165e+07
1.04125e+07
1.04085e+07
1.04045e+07
1.04004e+07
1.03963e+07
1.03922e+07
1.0388e+07
1.03838e+07
1.03796e+07
1.03753e+07
1.0371e+07
1.03667e+07
1.03623e+07
1.03579e+07
1.03535e+07
1.0349e+07
1.03445e+07
1.034e+07
1.03354e+07
1.03308e+07
1.03261e+07
1.03214e+07
1.03167e+07
1.0312e+07
1.03072e+07
1.03024e+07
1.02975e+07
1.02926e+07
1.02877e+07
1.02827e+07
1.02777e+07
1.02727e+07
1.02676e+07
1.02625e+07
1.02573e+07
1.07248e+07
1.07247e+07
1.07247e+07
1.07245e+07
1.07244e+07
1.07242e+07
1.0724e+07
1.07237e+07
1.07234e+07
1.0723e+07
1.07226e+07
1.07221e+07
1.07216e+07
1.0721e+07
1.07204e+07
1.07197e+07
1.07191e+07
1.07183e+07
1.07176e+07
1.07168e+07
1.07159e+07
1.0715e+07
1.07141e+07
1.07132e+07
1.07122e+07
1.07112e+07
1.07101e+07
1.07091e+07
1.07079e+07
1.07068e+07
1.07056e+07
1.07044e+07
1.07032e+07
1.0702e+07
1.07007e+07
1.06994e+07
1.0698e+07
1.06967e+07
1.06953e+07
1.06939e+07
1.06924e+07
1.0691e+07
1.06895e+07
1.0688e+07
1.06864e+07
1.06849e+07
1.06833e+07
1.06817e+07
1.068e+07
1.06784e+07
1.06767e+07
1.0675e+07
1.06732e+07
1.06715e+07
1.06697e+07
1.06679e+07
1.06661e+07
1.06642e+07
1.06624e+07
1.06605e+07
1.06585e+07
1.06566e+07
1.06547e+07
1.06527e+07
1.06507e+07
1.06486e+07
1.06466e+07
1.06445e+07
1.06424e+07
1.06403e+07
1.06382e+07
1.0636e+07
1.06339e+07
1.06317e+07
1.06294e+07
1.06272e+07
1.06249e+07
1.06227e+07
1.06203e+07
1.0618e+07
1.06157e+07
1.06133e+07
1.06109e+07
1.06085e+07
1.06061e+07
1.06036e+07
1.06011e+07
1.05986e+07
1.05961e+07
1.05935e+07
1.0591e+07
1.05884e+07
1.05858e+07
1.05831e+07
1.05805e+07
1.05778e+07
1.05751e+07
1.05724e+07
1.05696e+07
1.05669e+07
1.05641e+07
1.05613e+07
1.05584e+07
1.05556e+07
1.05527e+07
1.05498e+07
1.05469e+07
1.05439e+07
1.05409e+07
1.05379e+07
1.05349e+07
1.05319e+07
1.05288e+07
1.05257e+07
1.05226e+07
1.05194e+07
1.05162e+07
1.0513e+07
1.05098e+07
1.05066e+07
1.05033e+07
1.05e+07
1.04967e+07
1.04933e+07
1.04899e+07
1.04865e+07
1.04831e+07
1.04796e+07
1.04761e+07
1.04726e+07
1.04691e+07
1.04655e+07
1.04619e+07