/*--------------------------------*- C++ -*----------------------------------*\
  =========                 |
  \\      /  F ield         | OpenFOAM: The Open Source CFD Toolbox
   \\    /   O peration     | Website:  https://openfoam.org
    \\  /    A nd           | Version:  10
     \\/     M anipulation  |
\*---------------------------------------------------------------------------*/
FoamFile
{
    format      ascii;
    class       volScalarField;
    location    "1.77";
    object      p;
}
// * * * * * * * * * * * * * * * * * * * * * * * * * * * * * * * * * * * * * //

dimensions      [1 -1 -2 0 0 0 0];

internalField   nonuniform List<scalar> 
12225
(
1.66304e+07
1.65756e+07
1.64776e+07
1.63484e+07
1.61983e+07
1.60351e+07
1.58642e+07
1.56893e+07
1.55126e+07
1.53353e+07
1.51578e+07
1.49803e+07
1.48021e+07
1.46222e+07
1.44387e+07
1.42481e+07
1.40437e+07
1.38083e+07
1.66326e+07
1.65776e+07
1.64793e+07
1.63497e+07
1.61993e+07
1.60359e+07
1.58649e+07
1.56899e+07
1.55131e+07
1.53358e+07
1.51584e+07
1.4981e+07
1.48031e+07
1.46235e+07
1.44405e+07
1.42511e+07
1.40498e+07
1.38262e+07
1.66375e+07
1.6582e+07
1.64829e+07
1.63526e+07
1.62016e+07
1.60377e+07
1.58663e+07
1.56912e+07
1.55143e+07
1.5337e+07
1.51598e+07
1.49826e+07
1.48051e+07
1.46262e+07
1.44445e+07
1.42575e+07
1.40616e+07
1.38532e+07
1.66457e+07
1.65894e+07
1.6489e+07
1.63574e+07
1.62053e+07
1.60406e+07
1.58687e+07
1.56932e+07
1.55162e+07
1.53389e+07
1.51619e+07
1.49852e+07
1.48084e+07
1.46306e+07
1.44508e+07
1.42673e+07
1.40785e+07
1.38848e+07
1.66579e+07
1.66002e+07
1.64979e+07
1.63644e+07
1.62107e+07
1.60448e+07
1.58721e+07
1.56962e+07
1.5519e+07
1.53418e+07
1.51651e+07
1.49889e+07
1.48131e+07
1.46369e+07
1.44597e+07
1.42805e+07
1.40993e+07
1.39187e+07
1.66749e+07
1.66153e+07
1.65102e+07
1.6374e+07
1.62181e+07
1.60506e+07
1.58768e+07
1.57002e+07
1.55227e+07
1.53456e+07
1.51693e+07
1.49939e+07
1.48193e+07
1.46452e+07
1.4471e+07
1.42967e+07
1.41232e+07
1.39537e+07
1.66977e+07
1.66354e+07
1.65266e+07
1.63867e+07
1.62278e+07
1.60581e+07
1.58828e+07
1.57053e+07
1.55275e+07
1.53505e+07
1.51747e+07
1.50003e+07
1.48273e+07
1.46555e+07
1.44848e+07
1.43157e+07
1.41494e+07
1.39892e+07
1.67276e+07
1.66617e+07
1.65477e+07
1.64029e+07
1.62401e+07
1.60675e+07
1.58904e+07
1.57118e+07
1.55335e+07
1.53566e+07
1.51814e+07
1.50082e+07
1.4837e+07
1.46678e+07
1.45009e+07
1.43369e+07
1.41774e+07
1.4025e+07
1.67664e+07
1.66953e+07
1.65744e+07
1.64231e+07
1.62552e+07
1.6079e+07
1.58995e+07
1.57196e+07
1.55408e+07
1.53639e+07
1.51894e+07
1.50176e+07
1.48484e+07
1.46821e+07
1.45191e+07
1.43602e+07
1.42068e+07
1.4061e+07
1.68161e+07
1.67378e+07
1.66074e+07
1.64478e+07
1.62734e+07
1.60927e+07
1.59103e+07
1.57287e+07
1.55492e+07
1.53725e+07
1.51989e+07
1.50285e+07
1.48615e+07
1.46983e+07
1.45392e+07
1.4385e+07
1.42371e+07
1.40969e+07
1.68797e+07
1.6791e+07
1.66479e+07
1.64772e+07
1.62947e+07
1.61086e+07
1.59227e+07
1.57392e+07
1.55589e+07
1.53823e+07
1.52096e+07
1.50408e+07
1.48762e+07
1.4716e+07
1.45608e+07
1.44111e+07
1.4268e+07
1.41327e+07
1.69545e+07
1.68518e+07
1.66924e+07
1.65087e+07
1.63171e+07
1.61249e+07
1.59354e+07
1.57499e+07
1.55688e+07
1.53923e+07
1.52205e+07
1.50533e+07
1.48909e+07
1.47336e+07
1.45817e+07
1.44358e+07
1.42968e+07
1.41653e+07
1.70466e+07
1.69238e+07
1.67433e+07
1.65436e+07
1.63412e+07
1.61422e+07
1.59487e+07
1.57611e+07
1.55792e+07
1.54029e+07
1.5232e+07
1.50665e+07
1.49064e+07
1.47518e+07
1.46031e+07
1.44608e+07
1.43254e+07
1.41973e+07
1.71826e+07
1.7024e+07
1.681e+07
1.65871e+07
1.63703e+07
1.61627e+07
1.59643e+07
1.57741e+07
1.55914e+07
1.54155e+07
1.52459e+07
1.50823e+07
1.49248e+07
1.47733e+07
1.46281e+07
1.44895e+07
1.43578e+07
1.42332e+07
1.73941e+07
1.71631e+07
1.6894e+07
1.66382e+07
1.64027e+07
1.61848e+07
1.59809e+07
1.57882e+07
1.56049e+07
1.54296e+07
1.52617e+07
1.51005e+07
1.4946e+07
1.4798e+07
1.46565e+07
1.45218e+07
1.43938e+07
1.42728e+07
1.7751e+07
1.73486e+07
1.69878e+07
1.66886e+07
1.64322e+07
1.6204e+07
1.59953e+07
1.58009e+07
1.56178e+07
1.5444e+07
1.52784e+07
1.51203e+07
1.49692e+07
1.4825e+07
1.46876e+07
1.45569e+07
1.44328e+07
1.43153e+07
1.84412e+07
1.75343e+07
1.70484e+07
1.67117e+07
1.64423e+07
1.62097e+07
1.60003e+07
1.58072e+07
1.56264e+07
1.54557e+07
1.52937e+07
1.51396e+07
1.49927e+07
1.48529e+07
1.47198e+07
1.45932e+07
1.44731e+07
1.43592e+07
1.75916e+07
1.72555e+07
1.69287e+07
1.66471e+07
1.64022e+07
1.61835e+07
1.59837e+07
1.57982e+07
1.5624e+07
1.54595e+07
1.53033e+07
1.51547e+07
1.50132e+07
1.48785e+07
1.47503e+07
1.46283e+07
1.45124e+07
1.44024e+07
1.70212e+07
1.68838e+07
1.66954e+07
1.64961e+07
1.63008e+07
1.61136e+07
1.59354e+07
1.57657e+07
1.5604e+07
1.54496e+07
1.53022e+07
1.51613e+07
1.50267e+07
1.48982e+07
1.47757e+07
1.46588e+07
1.45475e+07
1.44415e+07
1.66956e+07
1.66172e+07
1.64925e+07
1.63451e+07
1.61887e+07
1.60305e+07
1.5874e+07
1.5721e+07
1.55725e+07
1.54288e+07
1.52903e+07
1.51569e+07
1.50289e+07
1.49061e+07
1.47886e+07
1.46761e+07
1.45687e+07
1.44662e+07
1.65097e+07
1.64534e+07
1.63579e+07
1.62382e+07
1.61053e+07
1.59661e+07
1.58247e+07
1.56838e+07
1.5545e+07
1.54093e+07
1.52774e+07
1.51498e+07
1.50265e+07
1.49079e+07
1.47939e+07
1.46846e+07
1.458e+07
1.44798e+07
1.63867e+07
1.63414e+07
1.6262e+07
1.61591e+07
1.60415e+07
1.59153e+07
1.57849e+07
1.56529e+07
1.55216e+07
1.53921e+07
1.52654e+07
1.51421e+07
1.50226e+07
1.49072e+07
1.4796e+07
1.46891e+07
1.45865e+07
1.44882e+07
1.63034e+07
1.62644e+07
1.61944e+07
1.61021e+07
1.59945e+07
1.58772e+07
1.57544e+07
1.5629e+07
1.55031e+07
1.53781e+07
1.52553e+07
1.51353e+07
1.50186e+07
1.49055e+07
1.47964e+07
1.46913e+07
1.45903e+07
1.44933e+07
1.62468e+07
1.62114e+07
1.61473e+07
1.60616e+07
1.59607e+07
1.58495e+07
1.5732e+07
1.56111e+07
1.54891e+07
1.53674e+07
1.52474e+07
1.51297e+07
1.5015e+07
1.49037e+07
1.47961e+07
1.46923e+07
1.45924e+07
1.44964e+07
1.62085e+07
1.61753e+07
1.6115e+07
1.60336e+07
1.5937e+07
1.58299e+07
1.5716e+07
1.55983e+07
1.54789e+07
1.53596e+07
1.52415e+07
1.51255e+07
1.50122e+07
1.49022e+07
1.47956e+07
1.46927e+07
1.45936e+07
1.44983e+07
1.6183e+07
1.61513e+07
1.60933e+07
1.60147e+07
1.59209e+07
1.58165e+07
1.5705e+07
1.55894e+07
1.54718e+07
1.53541e+07
1.52373e+07
1.51224e+07
1.50101e+07
1.49009e+07
1.47951e+07
1.46928e+07
1.45942e+07
1.44994e+07
1.61667e+07
1.61358e+07
1.60792e+07
1.60024e+07
1.59105e+07
1.58077e+07
1.56978e+07
1.55835e+07
1.54671e+07
1.53504e+07
1.52345e+07
1.51203e+07
1.50087e+07
1.49e+07
1.47946e+07
1.46928e+07
1.45946e+07
1.45e+07
1.61568e+07
1.61264e+07
1.60707e+07
1.59949e+07
1.5904e+07
1.58023e+07
1.56933e+07
1.55799e+07
1.54642e+07
1.53481e+07
1.52327e+07
1.5119e+07
1.50078e+07
1.48994e+07
1.47943e+07
1.46927e+07
1.45947e+07
1.45004e+07
1.61514e+07
1.61213e+07
1.60661e+07
1.59909e+07
1.59005e+07
1.57994e+07
1.56909e+07
1.55779e+07
1.54626e+07
1.53468e+07
1.52317e+07
1.51183e+07
1.50072e+07
1.48991e+07
1.47941e+07
1.46927e+07
1.45948e+07
1.45006e+07
1.61492e+07
1.61192e+07
1.60642e+07
1.59892e+07
1.58991e+07
1.57982e+07
1.56899e+07
1.55771e+07
1.5462e+07
1.53463e+07
1.52313e+07
1.5118e+07
1.5007e+07
1.48989e+07
1.4794e+07
1.46926e+07
1.45948e+07
1.45006e+07
1.09357e+07
1.09324e+07
1.09259e+07
1.09161e+07
1.09035e+07
1.08885e+07
1.0874e+07
1.08619e+07
1.08526e+07
1.08455e+07
1.084e+07
1.08354e+07
1.08312e+07
1.08268e+07
1.08225e+07
1.08186e+07
1.08148e+07
1.08111e+07
1.08074e+07
1.08036e+07
1.07997e+07
1.07958e+07
1.07918e+07
1.07879e+07
1.0784e+07
1.07801e+07
1.07761e+07
1.07722e+07
1.07683e+07
1.07645e+07
1.07607e+07
1.0757e+07
1.07534e+07
1.07497e+07
1.07462e+07
1.07427e+07
1.07393e+07
1.0736e+07
1.07327e+07
1.07295e+07
1.07263e+07
1.07232e+07
1.07201e+07
1.07171e+07
1.07141e+07
1.07112e+07
1.07083e+07
1.07054e+07
1.07026e+07
1.06998e+07
1.0697e+07
1.06943e+07
1.06915e+07
1.06888e+07
1.06862e+07
1.06835e+07
1.06809e+07
1.06783e+07
1.06757e+07
1.06731e+07
1.06705e+07
1.06679e+07
1.06653e+07
1.06628e+07
1.06602e+07
1.06577e+07
1.06551e+07
1.06526e+07
1.065e+07
1.06475e+07
1.0645e+07
1.06424e+07
1.06399e+07
1.06373e+07
1.06348e+07
1.06322e+07
1.06296e+07
1.06271e+07
1.06245e+07
1.06219e+07
1.06193e+07
1.06167e+07
1.06141e+07
1.06115e+07
1.06089e+07
1.06062e+07
1.06036e+07
1.06009e+07
1.05982e+07
1.05955e+07
1.05928e+07
1.05901e+07
1.05874e+07
1.05846e+07
1.05819e+07
1.05791e+07
1.05763e+07
1.05735e+07
1.05707e+07
1.05678e+07
1.0565e+07
1.05621e+07
1.05592e+07
1.05562e+07
1.05533e+07
1.05503e+07
1.05474e+07
1.05444e+07
1.05413e+07
1.05383e+07
1.05352e+07
1.05322e+07
1.0529e+07
1.05259e+07
1.05228e+07
1.05196e+07
1.05164e+07
1.05132e+07
1.05099e+07
1.05067e+07
1.05034e+07
1.05e+07
1.04967e+07
1.04933e+07
1.04899e+07
1.04865e+07
1.04831e+07
1.04796e+07
1.04761e+07
1.04726e+07
1.04691e+07
1.04655e+07
1.04619e+07
1.04582e+07
1.04546e+07
1.04509e+07
1.04472e+07
1.04434e+07
1.04397e+07
1.04359e+07
1.0432e+07
1.04282e+07
1.04243e+07
1.04204e+07
1.04164e+07
1.04124e+07
1.04084e+07
1.04044e+07
1.04003e+07
1.03962e+07
1.03921e+07
1.03879e+07
1.03837e+07
1.03795e+07
1.03752e+07
1.03709e+07
1.03666e+07
1.03622e+07
1.03578e+07
1.03534e+07
1.03489e+07
1.03444e+07
1.03399e+07
1.03353e+07
1.03307e+07
1.0326e+07
1.03214e+07
1.03167e+07
1.03119e+07
1.03071e+07
1.03023e+07
1.02975e+07
1.02926e+07
1.02877e+07
1.02827e+07
1.02778e+07
1.02728e+07
1.02678e+07
1.02628e+07
1.02579e+07
1.09877e+07
1.09854e+07
1.0981e+07
1.09745e+07
1.09662e+07
1.09565e+07
1.09463e+07
1.09358e+07
1.09249e+07
1.09124e+07
1.08956e+07
1.08695e+07
1.08367e+07
1.08262e+07
1.0821e+07
1.08179e+07
1.08146e+07
1.08111e+07
1.08075e+07
1.08038e+07
1.07998e+07
1.07957e+07
1.07917e+07
1.07878e+07
1.07839e+07
1.078e+07
1.0776e+07
1.0772e+07
1.07681e+07
1.07643e+07
1.07605e+07
1.07568e+07
1.07531e+07
1.07495e+07
1.0746e+07
1.07425e+07
1.07391e+07
1.07358e+07
1.07325e+07
1.07293e+07
1.07261e+07
1.0723e+07
1.07199e+07
1.07169e+07
1.07139e+07
1.0711e+07
1.07081e+07
1.07053e+07
1.07025e+07
1.06997e+07
1.06969e+07
1.06942e+07
1.06915e+07
1.06888e+07
1.06861e+07
1.06834e+07
1.06808e+07
1.06782e+07
1.06756e+07
1.0673e+07
1.06704e+07
1.06679e+07
1.06653e+07
1.06627e+07
1.06602e+07
1.06576e+07
1.06551e+07
1.06525e+07
1.065e+07
1.06475e+07
1.06449e+07
1.06424e+07
1.06398e+07
1.06373e+07
1.06347e+07
1.06322e+07
1.06296e+07
1.06271e+07
1.06245e+07
1.06219e+07
1.06193e+07
1.06167e+07
1.06141e+07
1.06115e+07
1.06089e+07
1.06062e+07
1.06036e+07
1.06009e+07
1.05982e+07
1.05955e+07
1.05928e+07
1.05901e+07
1.05874e+07
1.05846e+07
1.05819e+07
1.05791e+07
1.05763e+07
1.05735e+07
1.05707e+07
1.05678e+07
1.05649e+07
1.05621e+07
1.05592e+07
1.05562e+07
1.05533e+07
1.05503e+07
1.05474e+07
1.05444e+07
1.05413e+07
1.05383e+07
1.05352e+07
1.05321e+07
1.0529e+07
1.05259e+07
1.05228e+07
1.05196e+07
1.05164e+07
1.05132e+07
1.05099e+07
1.05067e+07
1.05034e+07
1.05e+07
1.04967e+07
1.04933e+07
1.04899e+07
1.04865e+07
1.04831e+07
1.04796e+07
1.04761e+07
1.04726e+07
1.04691e+07
1.04655e+07
1.04619e+07
1.04582e+07
1.04546e+07
1.04509e+07
1.04472e+07
1.04434e+07
1.04397e+07
1.04359e+07
1.0432e+07
1.04282e+07
1.04243e+07
1.04204e+07
1.04164e+07
1.04124e+07
1.04084e+07
1.04044e+07
1.04003e+07
1.03962e+07
1.03921e+07
1.03879e+07
1.03837e+07
1.03795e+07
1.03752e+07
1.03709e+07
1.03666e+07
1.03622e+07
1.03578e+07
1.03534e+07
1.03489e+07
1.03444e+07
1.03399e+07
1.03353e+07
1.03307e+07
1.0326e+07
1.03214e+07
1.03167e+07
1.03119e+07
1.03071e+07
1.03023e+07
1.02975e+07
1.02926e+07
1.02877e+07
1.02827e+07
1.02778e+07
1.02728e+07
1.02678e+07
1.02628e+07
1.02578e+07
1.10449e+07
1.10432e+07
1.10399e+07
1.1035e+07
1.10287e+07
1.10211e+07
1.10124e+07
1.10029e+07
1.09925e+07
1.09812e+07
1.09691e+07
1.09568e+07
1.09476e+07
1.09476e+07
1.09615e+07
1.09627e+07
1.09532e+07
1.09331e+07
1.09005e+07
1.08501e+07
1.08013e+07
1.07949e+07
1.07914e+07
1.07877e+07
1.07839e+07
1.07799e+07
1.07756e+07
1.07715e+07
1.07677e+07
1.07639e+07
1.076e+07
1.07563e+07
1.07526e+07
1.0749e+07
1.07455e+07
1.0742e+07
1.07386e+07
1.07353e+07
1.07321e+07
1.07289e+07
1.07257e+07
1.07226e+07
1.07196e+07
1.07166e+07
1.07137e+07
1.07107e+07
1.07079e+07
1.0705e+07
1.07022e+07
1.06995e+07
1.06967e+07
1.0694e+07
1.06913e+07
1.06886e+07
1.06859e+07
1.06833e+07
1.06807e+07
1.06781e+07
1.06755e+07
1.06729e+07
1.06703e+07
1.06678e+07
1.06652e+07
1.06626e+07
1.06601e+07
1.06576e+07
1.0655e+07
1.06525e+07
1.06499e+07
1.06474e+07
1.06449e+07
1.06423e+07
1.06398e+07
1.06373e+07
1.06347e+07
1.06321e+07
1.06296e+07
1.0627e+07
1.06245e+07
1.06219e+07
1.06193e+07
1.06167e+07
1.06141e+07
1.06115e+07
1.06088e+07
1.06062e+07
1.06035e+07
1.06009e+07
1.05982e+07
1.05955e+07
1.05928e+07
1.05901e+07
1.05874e+07
1.05846e+07
1.05819e+07
1.05791e+07
1.05763e+07
1.05735e+07
1.05706e+07
1.05678e+07
1.05649e+07
1.05621e+07
1.05592e+07
1.05562e+07
1.05533e+07
1.05503e+07
1.05474e+07
1.05444e+07
1.05413e+07
1.05383e+07
1.05352e+07
1.05321e+07
1.0529e+07
1.05259e+07
1.05228e+07
1.05196e+07
1.05164e+07
1.05132e+07
1.05099e+07
1.05067e+07
1.05034e+07
1.05e+07
1.04967e+07
1.04933e+07
1.04899e+07
1.04865e+07
1.04831e+07
1.04796e+07
1.04761e+07
1.04726e+07
1.0469e+07
1.04655e+07
1.04619e+07
1.04582e+07
1.04546e+07
1.04509e+07
1.04472e+07
1.04434e+07
1.04397e+07
1.04359e+07
1.0432e+07
1.04282e+07
1.04243e+07
1.04204e+07
1.04164e+07
1.04124e+07
1.04084e+07
1.04044e+07
1.04003e+07
1.03962e+07
1.03921e+07
1.03879e+07
1.03837e+07
1.03795e+07
1.03752e+07
1.03709e+07
1.03666e+07
1.03622e+07
1.03578e+07
1.03534e+07
1.03489e+07
1.03444e+07
1.03399e+07
1.03353e+07
1.03307e+07
1.0326e+07
1.03214e+07
1.03167e+07
1.03119e+07
1.03071e+07
1.03023e+07
1.02975e+07
1.02926e+07
1.02877e+07
1.02827e+07
1.02778e+07
1.02728e+07
1.02678e+07
1.02628e+07
1.02578e+07
1.11071e+07
1.11057e+07
1.11029e+07
1.1099e+07
1.10938e+07
1.10874e+07
1.108e+07
1.10717e+07
1.10627e+07
1.10531e+07
1.10433e+07
1.10338e+07
1.10255e+07
1.1019e+07
1.10137e+07
1.10056e+07
1.09931e+07
1.09757e+07
1.09536e+07
1.09284e+07
1.09056e+07
1.08921e+07
1.08937e+07
1.08795e+07
1.08492e+07
1.07971e+07
1.07745e+07
1.07702e+07
1.0767e+07
1.07634e+07
1.07593e+07
1.07555e+07
1.07518e+07
1.07482e+07
1.07447e+07
1.07413e+07
1.0738e+07
1.07347e+07
1.07314e+07
1.07283e+07
1.07252e+07
1.07221e+07
1.07191e+07
1.07162e+07
1.07132e+07
1.07103e+07
1.07075e+07
1.07047e+07
1.07019e+07
1.06991e+07
1.06964e+07
1.06937e+07
1.0691e+07
1.06884e+07
1.06857e+07
1.06831e+07
1.06805e+07
1.06779e+07
1.06753e+07
1.06727e+07
1.06702e+07
1.06676e+07
1.06651e+07
1.06625e+07
1.066e+07
1.06574e+07
1.06549e+07
1.06524e+07
1.06499e+07
1.06473e+07
1.06448e+07
1.06423e+07
1.06397e+07
1.06372e+07
1.06346e+07
1.06321e+07
1.06295e+07
1.0627e+07
1.06244e+07
1.06218e+07
1.06192e+07
1.06166e+07
1.0614e+07
1.06114e+07
1.06088e+07
1.06062e+07
1.06035e+07
1.06009e+07
1.05982e+07
1.05955e+07
1.05928e+07
1.05901e+07
1.05873e+07
1.05846e+07
1.05818e+07
1.05791e+07
1.05763e+07
1.05735e+07
1.05706e+07
1.05678e+07
1.05649e+07
1.0562e+07
1.05591e+07
1.05562e+07
1.05533e+07
1.05503e+07
1.05473e+07
1.05443e+07
1.05413e+07
1.05383e+07
1.05352e+07
1.05321e+07
1.0529e+07
1.05259e+07
1.05228e+07
1.05196e+07
1.05164e+07
1.05132e+07
1.05099e+07
1.05066e+07
1.05034e+07
1.05e+07
1.04967e+07
1.04933e+07
1.04899e+07
1.04865e+07
1.04831e+07
1.04796e+07
1.04761e+07
1.04726e+07
1.0469e+07
1.04655e+07
1.04619e+07
1.04582e+07
1.04546e+07
1.04509e+07
1.04472e+07
1.04434e+07
1.04397e+07
1.04359e+07
1.0432e+07
1.04282e+07
1.04243e+07
1.04204e+07
1.04164e+07
1.04124e+07
1.04084e+07
1.04044e+07
1.04003e+07
1.03962e+07
1.03921e+07
1.03879e+07
1.03837e+07
1.03795e+07
1.03752e+07
1.03709e+07
1.03666e+07
1.03622e+07
1.03578e+07
1.03534e+07
1.03489e+07
1.03444e+07
1.03399e+07
1.03353e+07
1.03307e+07
1.0326e+07
1.03214e+07
1.03166e+07
1.03119e+07
1.03071e+07
1.03023e+07
1.02975e+07
1.02926e+07
1.02877e+07
1.02827e+07
1.02777e+07
1.02728e+07
1.02677e+07
1.02627e+07
1.02577e+07
1.11733e+07
1.11721e+07
1.11697e+07
1.11662e+07
1.11616e+07
1.1156e+07
1.11494e+07
1.1142e+07
1.11337e+07
1.11248e+07
1.11155e+07
1.11059e+07
1.10963e+07
1.10865e+07
1.10762e+07
1.10644e+07
1.10507e+07
1.10347e+07
1.10168e+07
1.09979e+07
1.09796e+07
1.09629e+07
1.09476e+07
1.09293e+07
1.0907e+07
1.08824e+07
1.08637e+07
1.0853e+07
1.08254e+07
1.07773e+07
1.07578e+07
1.07541e+07
1.07509e+07
1.07472e+07
1.07437e+07
1.07403e+07
1.0737e+07
1.07338e+07
1.07306e+07
1.07275e+07
1.07245e+07
1.07214e+07
1.07185e+07
1.07156e+07
1.07127e+07
1.07098e+07
1.0707e+07
1.07042e+07
1.07015e+07
1.06987e+07
1.0696e+07
1.06934e+07
1.06907e+07
1.06881e+07
1.06854e+07
1.06828e+07
1.06802e+07
1.06777e+07
1.06751e+07
1.06725e+07
1.067e+07
1.06674e+07
1.06649e+07
1.06624e+07
1.06598e+07
1.06573e+07
1.06548e+07
1.06523e+07
1.06497e+07
1.06472e+07
1.06447e+07
1.06422e+07
1.06396e+07
1.06371e+07
1.06346e+07
1.0632e+07
1.06295e+07
1.06269e+07
1.06243e+07
1.06218e+07
1.06192e+07
1.06166e+07
1.0614e+07
1.06114e+07
1.06088e+07
1.06061e+07
1.06035e+07
1.06008e+07
1.05982e+07
1.05955e+07
1.05928e+07
1.05901e+07
1.05873e+07
1.05846e+07
1.05818e+07
1.0579e+07
1.05763e+07
1.05734e+07
1.05706e+07
1.05678e+07
1.05649e+07
1.0562e+07
1.05591e+07
1.05562e+07
1.05533e+07
1.05503e+07
1.05473e+07
1.05443e+07
1.05413e+07
1.05383e+07
1.05352e+07
1.05321e+07
1.0529e+07
1.05259e+07
1.05227e+07
1.05196e+07
1.05164e+07
1.05132e+07
1.05099e+07
1.05066e+07
1.05033e+07
1.05e+07
1.04967e+07
1.04933e+07
1.04899e+07
1.04865e+07
1.04831e+07
1.04796e+07
1.04761e+07
1.04726e+07
1.0469e+07
1.04655e+07
1.04619e+07
1.04582e+07
1.04546e+07
1.04509e+07
1.04472e+07
1.04434e+07
1.04397e+07
1.04359e+07
1.0432e+07
1.04282e+07
1.04243e+07
1.04204e+07
1.04164e+07
1.04124e+07
1.04084e+07
1.04044e+07
1.04003e+07
1.03962e+07
1.03921e+07
1.03879e+07
1.03837e+07
1.03795e+07
1.03752e+07
1.03709e+07
1.03666e+07
1.03622e+07
1.03578e+07
1.03534e+07
1.03489e+07
1.03444e+07
1.03399e+07
1.03353e+07
1.03307e+07
1.0326e+07
1.03214e+07
1.03166e+07
1.03119e+07
1.03071e+07
1.03023e+07
1.02974e+07
1.02926e+07
1.02876e+07
1.02827e+07
1.02777e+07
1.02727e+07
1.02677e+07
1.02627e+07
1.02576e+07
1.12433e+07
1.12421e+07
1.12399e+07
1.12366e+07
1.12324e+07
1.12271e+07
1.12209e+07
1.12138e+07
1.12058e+07
1.1197e+07
1.11876e+07
1.11775e+07
1.11669e+07
1.11555e+07
1.11433e+07
1.11301e+07
1.11156e+07
1.10999e+07
1.1083e+07
1.10653e+07
1.10472e+07
1.1029e+07
1.10104e+07
1.09907e+07
1.09697e+07
1.09479e+07
1.09264e+07
1.09047e+07
1.08795e+07
1.08512e+07
1.08257e+07
1.08008e+07
1.0755e+07
1.07454e+07
1.07424e+07
1.07391e+07
1.07359e+07
1.07327e+07
1.07296e+07
1.07266e+07
1.07236e+07
1.07206e+07
1.07177e+07
1.07148e+07
1.0712e+07
1.07092e+07
1.07064e+07
1.07037e+07
1.07009e+07
1.06982e+07
1.06956e+07
1.06929e+07
1.06903e+07
1.06877e+07
1.06851e+07
1.06825e+07
1.06799e+07
1.06774e+07
1.06748e+07
1.06723e+07
1.06697e+07
1.06672e+07
1.06647e+07
1.06622e+07
1.06596e+07
1.06571e+07
1.06546e+07
1.06521e+07
1.06496e+07
1.06471e+07
1.06446e+07
1.0642e+07
1.06395e+07
1.0637e+07
1.06345e+07
1.06319e+07
1.06294e+07
1.06268e+07
1.06243e+07
1.06217e+07
1.06191e+07
1.06165e+07
1.06139e+07
1.06113e+07
1.06087e+07
1.06061e+07
1.06034e+07
1.06008e+07
1.05981e+07
1.05954e+07
1.05927e+07
1.059e+07
1.05873e+07
1.05845e+07
1.05818e+07
1.0579e+07
1.05762e+07
1.05734e+07
1.05706e+07
1.05678e+07
1.05649e+07
1.0562e+07
1.05591e+07
1.05562e+07
1.05533e+07
1.05503e+07
1.05473e+07
1.05443e+07
1.05413e+07
1.05383e+07
1.05352e+07
1.05321e+07
1.0529e+07
1.05259e+07
1.05227e+07
1.05196e+07
1.05164e+07
1.05131e+07
1.05099e+07
1.05066e+07
1.05033e+07
1.05e+07
1.04967e+07
1.04933e+07
1.04899e+07
1.04865e+07
1.04831e+07
1.04796e+07
1.04761e+07
1.04726e+07
1.0469e+07
1.04655e+07
1.04619e+07
1.04582e+07
1.04546e+07
1.04509e+07
1.04472e+07
1.04434e+07
1.04397e+07
1.04359e+07
1.0432e+07
1.04282e+07
1.04243e+07
1.04204e+07
1.04164e+07
1.04124e+07
1.04084e+07
1.04044e+07
1.04003e+07
1.03962e+07
1.03921e+07
1.03879e+07
1.03837e+07
1.03795e+07
1.03752e+07
1.03709e+07
1.03666e+07
1.03622e+07
1.03578e+07
1.03534e+07
1.03489e+07
1.03444e+07
1.03399e+07
1.03353e+07
1.03307e+07
1.0326e+07
1.03214e+07
1.03166e+07
1.03119e+07
1.03071e+07
1.03023e+07
1.02974e+07
1.02926e+07
1.02876e+07
1.02827e+07
1.02777e+07
1.02727e+07
1.02677e+07
1.02626e+07
1.02575e+07
1.13167e+07
1.13155e+07
1.13133e+07
1.13101e+07
1.13059e+07
1.13008e+07
1.12946e+07
1.12875e+07
1.12795e+07
1.12706e+07
1.12609e+07
1.12503e+07
1.12389e+07
1.12266e+07
1.12135e+07
1.11993e+07
1.11842e+07
1.11681e+07
1.1151e+07
1.11331e+07
1.11145e+07
1.10953e+07
1.10754e+07
1.10547e+07
1.10331e+07
1.10108e+07
1.09877e+07
1.09638e+07
1.09385e+07
1.0912e+07
1.08847e+07
1.08563e+07
1.08249e+07
1.07947e+07
1.07564e+07
1.07375e+07
1.07345e+07
1.07314e+07
1.07284e+07
1.07254e+07
1.07225e+07
1.07196e+07
1.07168e+07
1.07139e+07
1.07112e+07
1.07084e+07
1.07057e+07
1.0703e+07
1.07003e+07
1.06977e+07
1.0695e+07
1.06924e+07
1.06898e+07
1.06872e+07
1.06847e+07
1.06821e+07
1.06795e+07
1.0677e+07
1.06745e+07
1.0672e+07
1.06694e+07
1.06669e+07
1.06644e+07
1.06619e+07
1.06594e+07
1.06569e+07
1.06544e+07
1.06519e+07
1.06494e+07
1.06469e+07
1.06444e+07
1.06419e+07
1.06394e+07
1.06369e+07
1.06343e+07
1.06318e+07
1.06293e+07
1.06267e+07
1.06242e+07
1.06216e+07
1.0619e+07
1.06165e+07
1.06139e+07
1.06113e+07
1.06086e+07
1.0606e+07
1.06034e+07
1.06007e+07
1.05981e+07
1.05954e+07
1.05927e+07
1.059e+07
1.05873e+07
1.05845e+07
1.05818e+07
1.0579e+07
1.05762e+07
1.05734e+07
1.05706e+07
1.05677e+07
1.05649e+07
1.0562e+07
1.05591e+07
1.05562e+07
1.05532e+07
1.05503e+07
1.05473e+07
1.05443e+07
1.05413e+07
1.05382e+07
1.05352e+07
1.05321e+07
1.0529e+07
1.05259e+07
1.05227e+07
1.05196e+07
1.05164e+07
1.05131e+07
1.05099e+07
1.05066e+07
1.05033e+07
1.05e+07
1.04967e+07
1.04933e+07
1.04899e+07
1.04865e+07
1.04831e+07
1.04796e+07
1.04761e+07
1.04726e+07
1.0469e+07
1.04655e+07
1.04619e+07
1.04582e+07
1.04546e+07
1.04509e+07
1.04472e+07
1.04434e+07
1.04397e+07
1.04359e+07
1.0432e+07
1.04282e+07
1.04243e+07
1.04204e+07
1.04164e+07
1.04124e+07
1.04084e+07
1.04044e+07
1.04003e+07
1.03962e+07
1.03921e+07
1.03879e+07
1.03837e+07
1.03795e+07
1.03752e+07
1.03709e+07
1.03666e+07
1.03622e+07
1.03578e+07
1.03534e+07
1.03489e+07
1.03444e+07
1.03398e+07
1.03353e+07
1.03307e+07
1.0326e+07
1.03213e+07
1.03166e+07
1.03119e+07
1.03071e+07
1.03023e+07
1.02974e+07
1.02925e+07
1.02876e+07
1.02827e+07
1.02777e+07
1.02727e+07
1.02676e+07
1.02626e+07
1.02574e+07
1.13934e+07
1.13921e+07
1.13899e+07
1.13867e+07
1.13824e+07
1.13772e+07
1.13709e+07
1.13636e+07
1.13554e+07
1.13462e+07
1.1336e+07
1.13249e+07
1.13128e+07
1.12998e+07
1.12859e+07
1.1271e+07
1.12552e+07
1.12384e+07
1.12207e+07
1.12021e+07
1.11828e+07
1.11626e+07
1.11417e+07
1.11199e+07
1.10974e+07
1.1074e+07
1.10498e+07
1.10247e+07
1.09987e+07
1.09716e+07
1.09436e+07
1.09146e+07
1.08843e+07
1.08532e+07
1.08205e+07
1.07873e+07
1.07459e+07
1.07299e+07
1.07271e+07
1.07241e+07
1.07213e+07
1.07185e+07
1.07157e+07
1.0713e+07
1.07102e+07
1.07075e+07
1.07049e+07
1.07022e+07
1.06996e+07
1.0697e+07
1.06944e+07
1.06918e+07
1.06893e+07
1.06867e+07
1.06842e+07
1.06816e+07
1.06791e+07
1.06766e+07
1.06741e+07
1.06716e+07
1.06691e+07
1.06666e+07
1.06641e+07
1.06616e+07
1.06592e+07
1.06567e+07
1.06542e+07
1.06517e+07
1.06492e+07
1.06467e+07
1.06442e+07
1.06417e+07
1.06392e+07
1.06367e+07
1.06342e+07
1.06317e+07
1.06291e+07
1.06266e+07
1.06241e+07
1.06215e+07
1.06189e+07
1.06164e+07
1.06138e+07
1.06112e+07
1.06086e+07
1.06059e+07
1.06033e+07
1.06007e+07
1.0598e+07
1.05953e+07
1.05926e+07
1.05899e+07
1.05872e+07
1.05845e+07
1.05817e+07
1.0579e+07
1.05762e+07
1.05734e+07
1.05705e+07
1.05677e+07
1.05648e+07
1.0562e+07
1.05591e+07
1.05562e+07
1.05532e+07
1.05503e+07
1.05473e+07
1.05443e+07
1.05413e+07
1.05382e+07
1.05352e+07
1.05321e+07
1.0529e+07
1.05259e+07
1.05227e+07
1.05195e+07
1.05163e+07
1.05131e+07
1.05099e+07
1.05066e+07
1.05033e+07
1.05e+07
1.04967e+07
1.04933e+07
1.04899e+07
1.04865e+07
1.04831e+07
1.04796e+07
1.04761e+07
1.04726e+07
1.0469e+07
1.04655e+07
1.04618e+07
1.04582e+07
1.04546e+07
1.04509e+07
1.04472e+07
1.04434e+07
1.04396e+07
1.04358e+07
1.0432e+07
1.04282e+07
1.04243e+07
1.04203e+07
1.04164e+07
1.04124e+07
1.04084e+07
1.04044e+07
1.04003e+07
1.03962e+07
1.03921e+07
1.03879e+07
1.03837e+07
1.03795e+07
1.03752e+07
1.03709e+07
1.03666e+07
1.03622e+07
1.03578e+07
1.03534e+07
1.03489e+07
1.03444e+07
1.03398e+07
1.03353e+07
1.03307e+07
1.0326e+07
1.03213e+07
1.03166e+07
1.03119e+07
1.03071e+07
1.03023e+07
1.02974e+07
1.02925e+07
1.02876e+07
1.02826e+07
1.02777e+07
1.02726e+07
1.02676e+07
1.02625e+07
1.02574e+07
1.14735e+07
1.14722e+07
1.14699e+07
1.14665e+07
1.14621e+07
1.14566e+07
1.145e+07
1.14424e+07
1.14338e+07
1.14241e+07
1.14134e+07
1.14017e+07
1.1389e+07
1.13752e+07
1.13605e+07
1.13448e+07
1.13281e+07
1.13105e+07
1.12919e+07
1.12725e+07
1.12522e+07
1.1231e+07
1.1209e+07
1.11862e+07
1.11626e+07
1.11381e+07
1.11128e+07
1.10866e+07
1.10596e+07
1.10316e+07
1.10028e+07
1.09731e+07
1.09425e+07
1.09109e+07
1.08785e+07
1.0845e+07
1.08101e+07
1.07749e+07
1.07293e+07
1.07225e+07
1.07199e+07
1.07172e+07
1.07145e+07
1.07119e+07
1.07092e+07
1.07066e+07
1.0704e+07
1.07014e+07
1.06988e+07
1.06963e+07
1.06937e+07
1.06912e+07
1.06887e+07
1.06861e+07
1.06836e+07
1.06811e+07
1.06786e+07
1.06762e+07
1.06737e+07
1.06712e+07
1.06687e+07
1.06663e+07
1.06638e+07
1.06613e+07
1.06589e+07
1.06564e+07
1.06539e+07
1.06515e+07
1.0649e+07
1.06465e+07
1.0644e+07
1.06415e+07
1.0639e+07
1.06366e+07
1.0634e+07
1.06315e+07
1.0629e+07
1.06265e+07
1.06239e+07
1.06214e+07
1.06188e+07
1.06163e+07
1.06137e+07
1.06111e+07
1.06085e+07
1.06059e+07
1.06032e+07
1.06006e+07
1.05979e+07
1.05953e+07
1.05926e+07
1.05899e+07
1.05872e+07
1.05844e+07
1.05817e+07
1.05789e+07
1.05761e+07
1.05733e+07
1.05705e+07
1.05677e+07
1.05648e+07
1.05619e+07
1.0559e+07
1.05561e+07
1.05532e+07
1.05502e+07
1.05473e+07
1.05443e+07
1.05413e+07
1.05382e+07
1.05352e+07
1.05321e+07
1.0529e+07
1.05259e+07
1.05227e+07
1.05195e+07
1.05163e+07
1.05131e+07
1.05099e+07
1.05066e+07
1.05033e+07
1.05e+07
1.04967e+07
1.04933e+07
1.04899e+07
1.04865e+07
1.04831e+07
1.04796e+07
1.04761e+07
1.04726e+07
1.0469e+07
1.04654e+07
1.04618e+07
1.04582e+07
1.04546e+07
1.04509e+07
1.04472e+07
1.04434e+07
1.04396e+07
1.04358e+07
1.0432e+07
1.04282e+07
1.04243e+07
1.04203e+07
1.04164e+07
1.04124e+07
1.04084e+07
1.04044e+07
1.04003e+07
1.03962e+07
1.0392e+07
1.03879e+07
1.03837e+07
1.03794e+07
1.03752e+07
1.03709e+07
1.03665e+07
1.03622e+07
1.03578e+07
1.03533e+07
1.03489e+07
1.03444e+07
1.03398e+07
1.03353e+07
1.03307e+07
1.0326e+07
1.03213e+07
1.03166e+07
1.03119e+07
1.03071e+07
1.03023e+07
1.02974e+07
1.02925e+07
1.02876e+07
1.02826e+07
1.02776e+07
1.02726e+07
1.02675e+07
1.02624e+07
1.02573e+07
1.15572e+07
1.15558e+07
1.15533e+07
1.15497e+07
1.1545e+07
1.15392e+07
1.15323e+07
1.15242e+07
1.15151e+07
1.15048e+07
1.14934e+07
1.1481e+07
1.14675e+07
1.14529e+07
1.14373e+07
1.14206e+07
1.1403e+07
1.13844e+07
1.13648e+07
1.13443e+07
1.13229e+07
1.13007e+07
1.12775e+07
1.12535e+07
1.12287e+07
1.12031e+07
1.11766e+07
1.11493e+07
1.11212e+07
1.10922e+07
1.10624e+07
1.10318e+07
1.10004e+07
1.09682e+07
1.09352e+07
1.09014e+07
1.08668e+07
1.08313e+07
1.07944e+07
1.07579e+07
1.0719e+07
1.0716e+07
1.07133e+07
1.07107e+07
1.07081e+07
1.07055e+07
1.0703e+07
1.07005e+07
1.06979e+07
1.06954e+07
1.06929e+07
1.06905e+07
1.0688e+07
1.06855e+07
1.0683e+07
1.06806e+07
1.06781e+07
1.06757e+07
1.06732e+07
1.06708e+07
1.06683e+07
1.06659e+07
1.06634e+07
1.0661e+07
1.06586e+07
1.06561e+07
1.06537e+07
1.06512e+07
1.06487e+07
1.06463e+07
1.06438e+07
1.06413e+07
1.06389e+07
1.06364e+07
1.06339e+07
1.06314e+07
1.06289e+07
1.06263e+07
1.06238e+07
1.06213e+07
1.06187e+07
1.06162e+07
1.06136e+07
1.0611e+07
1.06084e+07
1.06058e+07
1.06032e+07
1.06005e+07
1.05979e+07
1.05952e+07
1.05925e+07
1.05898e+07
1.05871e+07
1.05844e+07
1.05816e+07
1.05789e+07
1.05761e+07
1.05733e+07
1.05705e+07
1.05676e+07
1.05648e+07
1.05619e+07
1.0559e+07
1.05561e+07
1.05532e+07
1.05502e+07
1.05472e+07
1.05443e+07
1.05412e+07
1.05382e+07
1.05351e+07
1.05321e+07
1.0529e+07
1.05258e+07
1.05227e+07
1.05195e+07
1.05163e+07
1.05131e+07
1.05099e+07
1.05066e+07
1.05033e+07
1.05e+07
1.04967e+07
1.04933e+07
1.04899e+07
1.04865e+07
1.0483e+07
1.04796e+07
1.04761e+07
1.04726e+07
1.0469e+07
1.04654e+07
1.04618e+07
1.04582e+07
1.04546e+07
1.04509e+07
1.04472e+07
1.04434e+07
1.04396e+07
1.04358e+07
1.0432e+07
1.04282e+07
1.04243e+07
1.04203e+07
1.04164e+07
1.04124e+07
1.04084e+07
1.04044e+07
1.04003e+07
1.03962e+07
1.0392e+07
1.03879e+07
1.03837e+07
1.03794e+07
1.03752e+07
1.03709e+07
1.03665e+07
1.03622e+07
1.03578e+07
1.03533e+07
1.03489e+07
1.03444e+07
1.03398e+07
1.03353e+07
1.03307e+07
1.0326e+07
1.03213e+07
1.03166e+07
1.03119e+07
1.03071e+07
1.03023e+07
1.02974e+07
1.02925e+07
1.02876e+07
1.02826e+07
1.02776e+07
1.02726e+07
1.02675e+07
1.02624e+07
1.02572e+07
1.16448e+07
1.16432e+07
1.16405e+07
1.16367e+07
1.16316e+07
1.16254e+07
1.16179e+07
1.16093e+07
1.15995e+07
1.15884e+07
1.15763e+07
1.15629e+07
1.15485e+07
1.15329e+07
1.15163e+07
1.14986e+07
1.14798e+07
1.14601e+07
1.14394e+07
1.14177e+07
1.13951e+07
1.13716e+07
1.13472e+07
1.13219e+07
1.12959e+07
1.12689e+07
1.12412e+07
1.12127e+07
1.11834e+07
1.11533e+07
1.11224e+07
1.10908e+07
1.10584e+07
1.10253e+07
1.09915e+07
1.09569e+07
1.09216e+07
1.08854e+07
1.08483e+07
1.08099e+07
1.07685e+07
1.07189e+07
1.07119e+07
1.07094e+07
1.07069e+07
1.07044e+07
1.07019e+07
1.06995e+07
1.0697e+07
1.06946e+07
1.06921e+07
1.06897e+07
1.06873e+07
1.06848e+07
1.06824e+07
1.068e+07
1.06776e+07
1.06751e+07
1.06727e+07
1.06703e+07
1.06679e+07
1.06655e+07
1.06631e+07
1.06606e+07
1.06582e+07
1.06558e+07
1.06534e+07
1.06509e+07
1.06485e+07
1.0646e+07
1.06436e+07
1.06411e+07
1.06386e+07
1.06362e+07
1.06337e+07
1.06312e+07
1.06287e+07
1.06262e+07
1.06237e+07
1.06211e+07
1.06186e+07
1.0616e+07
1.06135e+07
1.06109e+07
1.06083e+07
1.06057e+07
1.06031e+07
1.06004e+07
1.05978e+07
1.05951e+07
1.05925e+07
1.05898e+07
1.0587e+07
1.05843e+07
1.05816e+07
1.05788e+07
1.0576e+07
1.05732e+07
1.05704e+07
1.05676e+07
1.05647e+07
1.05619e+07
1.0559e+07
1.05561e+07
1.05531e+07
1.05502e+07
1.05472e+07
1.05442e+07
1.05412e+07
1.05382e+07
1.05351e+07
1.0532e+07
1.05289e+07
1.05258e+07
1.05227e+07
1.05195e+07
1.05163e+07
1.05131e+07
1.05099e+07
1.05066e+07
1.05033e+07
1.05e+07
1.04966e+07
1.04933e+07
1.04899e+07