/*--------------------------------*- C++ -*----------------------------------*\
  =========                 |
  \\      /  F ield         | OpenFOAM: The Open Source CFD Toolbox
   \\    /   O peration     | Website:  https://openfoam.org
    \\  /    A nd           | Version:  10
     \\/     M anipulation  |
\*---------------------------------------------------------------------------*/
FoamFile
{
    format      ascii;
    class       volVectorField;
    location    "1.09";
    object      Ub;
}
// * * * * * * * * * * * * * * * * * * * * * * * * * * * * * * * * * * * * * //

dimensions      [0 1 -1 0 0 0 0];

internalField   nonuniform List<vector> 
12225
(
(0.00217521 -0.000441135 0)
(0.00621117 -0.000393412 0)
(0.00954419 -0.000324791 0)
(0.0121292 -0.000256358 0)
(0.0140682 -0.000199036 0)
(0.0155134 -0.00015598 0)
(0.0166115 -0.000126471 0)
(0.0174839 -0.00010857 0)
(0.0182254 -0.000100483 0)
(0.0189104 -0.000101161 0)
(0.0196014 -0.00011063 0)
(0.0203586 -0.000130437 0)
(0.0212523 -0.000164659 0)
(0.0223833 -0.000222499 0)
(0.023928 -0.000325897 0)
(0.0262683 -0.000536567 0)
(0.0304983 -0.00108423 0)
(0.0412986 -0.00322877 0)
(0.00233351 -0.00138892 0)
(0.00665438 -0.00123662 0)
(0.0102045 -0.00101855 0)
(0.01294 -0.000801811 0)
(0.0149775 -0.000620808 0)
(0.0164853 -0.000485212 0)
(0.0176234 -0.000392484 0)
(0.0185227 -0.000336339 0)
(0.0192844 -0.000311003 0)
(0.0199871 -0.000313071 0)
(0.0206961 -0.000342506 0)
(0.0214736 -0.00040396 0)
(0.0223904 -0.000509743 0)
(0.0235455 -0.000687403 0)
(0.0251028 -0.00100103 0)
(0.0273774 -0.00162138 0)
(0.0310101 -0.0031101 0)
(0.0365445 -0.00787331 0)
(0.00245136 -0.00246574 0)
(0.0069777 -0.00218952 0)
(0.0106705 -0.0017967 0)
(0.0134914 -0.00140857 0)
(0.0155733 -0.00108607 0)
(0.0171004 -0.000845518 0)
(0.0182438 -0.000681599 0)
(0.0191413 -0.000582613 0)
(0.0198979 -0.000537964 0)
(0.0205941 -0.00054132 0)
(0.0212956 -0.000592235 0)
(0.022063 -0.000698223 0)
(0.022963 -0.000879392 0)
(0.0240823 -0.00117987 0)
(0.0255494 -0.00169773 0)
(0.0275563 -0.002671 0)
(0.0302773 -0.00474578 0)
(0.0328714 -0.00977405 0)
(0.00256931 -0.00367611 0)
(0.00729507 -0.00325274 0)
(0.0111134 -0.00265617 0)
(0.0139959 -0.00207152 0)
(0.0160981 -0.00158916 0)
(0.0176229 -0.00123146 0)
(0.0187535 -0.000988847 0)
(0.019634 -0.000842799 0)
(0.0203722 -0.000776864 0)
(0.0210489 -0.000781048 0)
(0.0217284 -0.000853892 0)
(0.0224676 -0.00100501 0)
(0.0233248 -0.00126066 0)
(0.0243679 -0.00167685 0)
(0.0256776 -0.00237035 0)
(0.027321 -0.00359261 0)
(0.0291739 -0.00589215 0)
(0.0301924 -0.0103009 0)
(0.00270225 -0.0050377 0)
(0.00764619 -0.00443668 0)
(0.0115881 -0.00360003 0)
(0.0145169 -0.00278916 0)
(0.0166191 -0.00212649 0)
(0.0181219 -0.00163888 0)
(0.0192225 -0.00131012 0)
(0.0200715 -0.00111298 0)
(0.0207782 -0.00102381 0)
(0.0214229 -0.00102798 0)
(0.0220667 -0.00112211 0)
(0.0227608 -0.00131662 0)
(0.0235522 -0.00164122 0)
(0.0244859 -0.00215712 0)
(0.0255948 -0.00298223 0)
(0.0268498 -0.00433734 0)
(0.0279956 -0.00659963 0)
(0.0281841 -0.0101857 0)
(0.00286199 -0.00657762 0)
(0.00806066 -0.00575716 0)
(0.0121319 -0.0046331 0)
(0.0150924 -0.00355963 0)
(0.0171726 -0.0026933 0)
(0.0186317 -0.00206222 0)
(0.0196832 -0.00164001 0)
(0.0204844 -0.00138807 0)
(0.0211457 -0.00127382 0)
(0.021745 -0.00127676 0)
(0.022339 -0.00139039 0)
(0.0229714 -0.00162417 0)
(0.0236764 -0.00200781 0)
(0.024476 -0.00260047 0)
(0.0253632 -0.00350606 0)
(0.0262517 -0.00489024 0)
(0.026868 -0.00696288 0)
(0.0266285 -0.00978866 0)
(0.00306186 -0.00833433 0)
(0.00857013 -0.00723525 0)
(0.0127806 -0.0057605 0)
(0.0157552 -0.00437905 0)
(0.0177867 -0.00328216 0)
(0.0191755 -0.00249344 0)
(0.0201555 -0.00197095 0)
(0.0208902 -0.00166115 0)
(0.0214902 -0.00152031 0)
(0.0220297 -0.00152055 0)
(0.0225596 -0.00165081 0)
(0.0231147 -0.00191749 0)
(0.0237163 -0.00234675 0)
(0.0243662 -0.00298922 0)
(0.0250302 -0.00392506 0)
(0.0255999 -0.0052593 0)
(0.0258404 -0.00707503 0)
(0.0253884 -0.00927824 0)
(0.00331968 -0.0103622 0)
(0.00921488 -0.00889809 0)
(0.0135764 -0.00698614 0)
(0.0165399 -0.00523954 0)
(0.0184872 -0.00388138 0)
(0.0197728 -0.00292081 0)
(0.020654 -0.00229239 0)
(0.0213006 -0.00192289 0)
(0.0218215 -0.0017547 0)
(0.0222858 -0.00175079 0)
(0.022737 -0.00189396 0)
(0.0232009 -0.00218549 0)
(0.0236865 -0.00264477 0)
(0.0241805 -0.00330941 0)
(0.0246342 -0.00423219 0)
(0.0249417 -0.00546504 0)
(0.0249254 -0.00701123 0)
(0.0243763 -0.00872954 0)
(0.00366147 -0.0127396 0)
(0.0100512 -0.0107798 0)
(0.0145733 -0.0083103 0)
(0.0174867 -0.00612638 0)
(0.0193011 -0.00447277 0)
(0.0204411 -0.00332738 0)
(0.0211905 -0.00258984 0)
(0.0217239 -0.00216096 0)
(0.022146 -0.00196603 0)
(0.0225188 -0.00195705 0)
(0.0228775 -0.00210912 0)
(0.0232385 -0.00241659 0)
(0.0236002 -0.00288982 0)
(0.0239401 -0.00355138 0)
(0.0242054 -0.00442809 0)
(0.0243061 -0.0055324 0)
(0.0241193 -0.00682624 0)
(0.0235339 -0.0081739 0)
(0.00412766 -0.0155824 0)
(0.0111622 -0.012922 0)
(0.0158446 -0.00972471 0)
(0.0186446 -0.00701332 0)
(0.0202578 -0.00502844 0)
(0.0211972 -0.00368909 0)
(0.0217745 -0.00284375 0)
(0.0221656 -0.0023594 0)
(0.0224675 -0.00214074 0)
(0.0227324 -0.00212702 0)
(0.0229859 -0.00228446 0)
(0.0232349 -0.00259925 0)
(0.02347 -0.00307167 0)
(0.0236636 -0.00370953 0)
(0.0237666 -0.00451842 0)
(0.0237088 -0.00548556 0)
(0.0234116 -0.00655747 0)
(0.0228215 -0.00762276 0)
(0.00478437 -0.0190686 0)
(0.0126766 -0.0153718 0)
(0.0174922 -0.0112032 0)
(0.020074 -0.00785486 0)
(0.0213881 -0.00550617 0)
(0.0220556 -0.0039723 0)
(0.0224124 -0.00302827 0)
(0.0226286 -0.00249808 0)
(0.0227877 -0.00226243 0)
(0.0229286 -0.00224663 0)
(0.0230657 -0.00240738 0)
(0.023197 -0.00272241 0)
(0.023307 -0.00318214 0)
(0.0233665 -0.00378171 0)
(0.0233335 -0.00451151 0)
(0.0231569 -0.0053454 0)
(0.0227898 -0.00622932 0)
(0.0222104 -0.00707878 0)
(0.00567675 -0.0230617 0)
(0.0146524 -0.0179294 0)
(0.019513 -0.0125716 0)
(0.0217334 -0.00853082 0)
(0.0226427 -0.00583 0)
(0.0229742 -0.00412953 0)
(0.0230742 -0.00311246 0)
(0.0230951 -0.00255509 0)
(0.0231004 -0.00231396 0)
(0.0231125 -0.00230136 0)
(0.0231335 -0.00246555 0)
(0.0231531 -0.00277701 0)
(0.0231513 -0.00321823 0)
(0.0230996 -0.0037753 0)
(0.0229627 -0.0044296 0)
(0.0227041 -0.00515006 0)
(0.0222958 -0.00588826 0)
(0.0217308 -0.00658153 0)
(0.00692555 -0.0281891 0)
(0.0172857 -0.0207644 0)
(0.0220073 -0.0138109 0)
(0.0236458 -0.00898449 0)
(0.0240056 -0.00594972 0)
(0.0239203 -0.0041238 0)
(0.0237202 -0.00307034 0)
(0.0235229 -0.00251237 0)
(0.0233624 -0.00228289 0)
(0.0232402 -0.00228291 0)
(0.0231443 -0.00245402 0)
(0.023056 -0.00276113 0)
(0.0229515 -0.0031811 0)
(0.0228036 -0.00369426 0)
(0.0225834 -0.00427772 0)
(0.0222652 -0.00490048 0)
(0.0218332 -0.00552201 0)
(0.0212879 -0.00609637 0)
(0.00917716 -0.0362046 0)
(0.0217313 -0.02425 0)
(0.0257953 -0.0148387 0)
(0.0263109 -0.00906508 0)
(0.0257839 -0.00573854 0)
(0.0250925 -0.00386167 0)
(0.0244857 -0.00283488 0)
(0.0240071 -0.00232168 0)
(0.0236411 -0.00213402 0)
(0.0233583 -0.00216507 0)
(0.0231282 -0.00235253 0)
(0.0229216 -0.00265808 0)
(0.0227108 -0.00305522 0)
(0.0224693 -0.00352136 0)
(0.022174 -0.00403273 0)
(0.0218073 -0.0045616 0)
(0.021361 -0.00507657 0)
(0.0208387 -0.00554597 0)
(0.0137765 -0.0502099 0)
(0.0299767 -0.0278135 0)
(0.0317322 -0.0147742 0)
(0.029991 -0.00817498 0)
(0.0280246 -0.00483384 0)
(0.0264709 -0.00312036 0)
(0.0253343 -0.00226194 0)
(0.0245111 -0.00188354 0)
(0.0239046 -0.00179388 0)
(0.0234412 -0.00189005 0)
(0.0230662 -0.00211333 0)
(0.0227379 -0.00242734 0)
(0.0224235 -0.00280639 0)
(0.0220969 -0.00322889 0)
(0.0217383 -0.00367371 0)
(0.0213353 -0.00411885 0)
(0.0208832 -0.0045421 0)
(0.0203857 -0.00492326 0)
(0.0249475 -0.0792496 0)
(0.0473426 -0.0273528 0)
(0.0410284 -0.0110404 0)
(0.0347128 -0.00507962 0)
(0.03054 -0.00263029 0)
(0.0278745 -0.00157577 0)
(0.026126 -0.00115978 0)
(0.0249323 -0.00107315 0)
(0.0240797 -0.00117403 0)
(0.023438 -0.0013905 0)
(0.0229246 -0.00168244 0)
(0.0224842 -0.00202459 0)
(0.0220783 -0.00239854 0)
(0.0216803 -0.0027885 0)
(0.0212724 -0.00317949 0)
(0.0208446 -0.0035569 0)
(0.0203933 -0.00390715 0)
(0.0199208 -0.00421892 0)
(0.0593586 0.000686135 0)
(0.0908681 0.00308667 0)
(0.0532311 0.00258378 0)
(0.0391089 0.00199962 0)
(0.0324913 0.00150443 0)
(0.0288514 0.00105836 0)
(0.0266173 0.00063406 0)
(0.0251329 0.000219163 0)
(0.0240809 -0.000191668 0)
(0.0232894 -0.000599536 0)
(0.0226557 -0.0010028 0)
(0.0221164 -0.00140187 0)
(0.0216317 -0.00179277 0)
(0.0211754 -0.00217014 0)
(0.0207309 -0.00252789 0)
(0.0202887 -0.00285967 0)
(0.0198447 -0.0031597 0)
(0.0193987 -0.00342347 0)
(0.0205064 0.0761946 0)
(0.0405557 0.0319608 0)
(0.0374533 0.016352 0)
(0.0326951 0.00960611 0)
(0.0291263 0.00614904 0)
(0.0266765 0.0041118 0)
(0.0249854 0.00276563 0)
(0.0237794 0.00178935 0)
(0.0228817 0.00102717 0)
(0.0221808 0.000398681 0)
(0.0216069 -0.000139342 0)
(0.0211133 -0.000612395 0)
(0.0206669 -0.00103374 0)
(0.0202471 -0.00141375 0)
(0.0198426 -0.00175571 0)
(0.0194467 -0.00206099 0)
(0.0190565 -0.00233017 0)
(0.0186714 -0.00256382 0)
(0.00783564 0.0404044 0)
(0.0187596 0.0278411 0)
(0.0226538 0.0184778 0)
(0.0234259 0.01248 0)
(0.0231083 0.00864835 0)
(0.0225012 0.00611087 0)
(0.0218796 0.00435003 0)
(0.0213208 0.00306877 0)
(0.0208331 0.00209465 0)
(0.0204046 0.00132514 0)
(0.0200193 0.000697656 0)
(0.0196643 0.000175206 0)
(0.0193306 -0.000266779 0)
(0.0190104 -0.000645167 0)
(0.0186973 -0.000972372 0)
(0.0183885 -0.00125611 0)
(0.0180832 -0.00150129 0)
(0.0177816 -0.00171174 0)
(0.00426549 0.0244869 0)
(0.0112024 0.0201978 0)
(0.0153013 0.0155419 0)
(0.0174259 0.0116748 0)
(0.018433 0.00872028 0)
(0.0188559 0.00651271 0)
(0.018982 0.00485736 0)
(0.0189572 0.00359713 0)
(0.0188535 0.00261841 0)
(0.0187062 0.00184228 0)
(0.0185324 0.00121457 0)
(0.0183408 0.000698195 0)
(0.0181361 0.000267348 0)
(0.0179225 -9.35442e-05 0)
(0.0177027 -0.000397794 0)
(0.0174773 -0.000656772 0)
(0.0172481 -0.000877945 0)
(0.0170169 -0.0010665 0)
(0.00293266 0.0172276 0)
(0.00804681 0.0151233 0)
(0.0116735 0.012428 0)
(0.0140241 0.00987205 0)
(0.0154813 0.00771125 0)
(0.0163627 0.00597039 0)
(0.0168831 0.00459185 0)
(0.0171764 0.00350188 0)
(0.0173236 0.00263428 0)
(0.0173736 0.00193635 0)
(0.0173566 0.0013682 0)
(0.0172917 0.000900324 0)
(0.0171915 0.00051107 0)
(0.0170649 0.000184571 0)
(0.0169195 -8.93933e-05 0)
(0.0167604 -0.000319621 0)
(0.0165909 -0.000515293 0)
(0.0164141 -0.000681709 0)
(0.00226959 0.0126727 0)
(0.00637349 0.0114673 0)
(0.0095616 0.00977827 0)
(0.0118672 0.00804188 0)
(0.013472 0.00647313 0)
(0.0145668 0.00514122 0)
(0.0153037 0.00404333 0)
(0.0157917 0.00314904 0)
(0.0161049 0.00242197 0)
(0.0162937 0.0018287 0)
(0.0163922 0.00134145 0)
(0.0164238 0.000938291 0)
(0.0164053 0.000602261 0)
(0.0163489 0.00032039 0)
(0.0162636 8.27483e-05 0)
(0.0161573 -0.000116536 0)
(0.0160356 -0.000284614 0)
(0.0159021 -0.000427533 0)
(0.00189294 0.00950404 0)
(0.00538636 0.00874545 0)
(0.00824318 0.00762468 0)
(0.0104431 0.0064123 0)
(0.0120776 0.00526755 0)
(0.0132669 0.00425967 0)
(0.0141202 0.00340455 0)
(0.0147245 0.00269234 0)
(0.0151444 0.0021036 0)
(0.0154273 0.00161741 0)
(0.0156072 0.00121482 0)
(0.0157093 0.000879925 0)
(0.0157518 0.000599902 0)
(0.0157487 0.000364602 0)
(0.0157105 0.000166045 0)
(0.0156455 -1.68962e-06 0)
(0.0155608 -0.00014236 0)
(0.0154612 -0.000261756 0)
(0.00165836 0.00715189 0)
(0.00475668 0.00664798 0)
(0.00737047 0.00587798 0)
(0.00946279 0.00501698 0)
(0.0110817 0.00417947 0)
(0.0123073 0.00342329 0)
(0.013221 0.00276838 0)
(0.0138934 0.00221396 0)
(0.0143804 0.00174986 0)
(0.0147256 0.00136298 0)
(0.0149618 0.00104041 0)
(0.0151139 0.000770788 0)
(0.015201 0.0005446 0)
(0.0152375 0.000354122 0)
(0.0152348 0.000193157 0)
(0.0152017 5.67606e-05 0)
(0.0151457 -5.81488e-05 0)
(0.0150723 -0.000155084 0)
(0.00150164 0.00532999 0)
(0.00432905 0.00498668 0)
(0.0067619 0.00445002 0)
(0.00875865 0.00383648 0)
(0.0103449 0.00322749 0)
(0.0115773 0.00266792 0)
(0.0125194 0.00217618 0)
(0.0132297 0.00175495 0)
(0.0137578 0.00139903 0)
(0.0141432 0.00110019 0)
(0.0144173 0.000849662 0)
(0.0146043 0.000639408 0)
(0.0147232 0.000462503 0)
(0.0147887 0.000313202 0)
(0.0148125 0.000186827 0)
(0.0148037 7.95918e-05 0)
(0.0147696 -1.13284e-05 0)
(0.0147165 -8.76336e-05 0)
(0.00139024 0.00387824 0)
(0.00402118 0.00364416 0)
(0.00631446 0.00327234 0)
(0.00822794 0.00284081 0)
(0.00977507 0.00240649 0)
(0.0109982 0.00200254 0)
(0.0119491 0.00164389 0)
(0.0126781 0.00133404 0)
(0.0132295 0.00107045 0)
(0.0136397 0.000847908 0)
(0.0139385 0.000660556 0)
(0.0141492 0.000502799 0)
(0.0142904 0.000369725 0)
(0.0143769 0.000257193 0)
(0.0144203 0.000161788 0)
(0.0144297 8.07256e-05 0)
(0.0144126 1.17439e-05 0)
(0.0143752 -4.61927e-05 0)
(0.00130548 0.00269966 0)
(0.00378439 0.00254426 0)
(0.00596382 0.00229449 0)
(0.00780246 0.00200161 0)
(0.00930689 0.00170402 0)
(0.0105105 0.00142491 0)
(0.0114573 0.0011753 0)
(0.0121917 0.00095835 0)
(0.0127538 0.00077285 0)
(0.0131777 0.000615601 0)
(0.0134914 0.000482774 0)
(0.0137174 0.000370628 0)
(0.0138739 0.000275821 0)
(0.0139752 0.000195504 0)
(0.0140328 0.000127307 0)
(0.014056 6.92803e-05 0)
(0.0140519 1.98226e-05 0)
(0.0140269 -2.19002e-05 0)
(0.00123484 0.0017322 0)
(0.00358495 0.00163586 0)
(0.00566309 0.00147968 0)
(0.00742936 0.00129523 0)
(0.00888634 0.0011066 0)
(0.0100617 0.000928653 0)
(0.010994 0.000768713 0)
(0.0117231 0.000629095 0)
(0.0122861 0.000509276 0)
(0.0127148 0.000407388 0)
(0.0130358 0.000321097 0)
(0.0132705 0.000248078 0)
(0.0134366 0.000186231 0)
(0.0135478 0.000133749 0)
(0.0136156 8.91211e-05 0)
(0.0136487 5.10954e-05 0)
(0.0136546 1.86391e-05 0)
(0.0136392 -8.84829e-06 0)
(0.00116633 0.000935253 0)
(0.0033895 0.000884502 0)
(0.00536307 0.000801676 0)
(0.00704886 0.000703383 0)
(0.0084472 0.00060243 0)
(0.00958182 0.000506822 0)
(0.010487 0.000420588 0)
(0.0111994 0.000345077 0)
(0.0117529 0.000280098 0)
(0.0121774 0.000224711 0)
(0.0124978 0.000177702 0)
(0.0127346 0.000137849 0)
(0.0129046 0.000104036 0)
(0.013021 7.52993e-05 0)
(0.0130946 5.08272e-05 0)
(0.0131343 2.99467e-05 0)
(0.0131469 1.20977e-05 0)
(0.0131383 -3.04563e-06 0)
(0.00106705 0.000287696 0)
(0.00310281 0.000272305 0)
(0.0049139 0.000247084 0)
(0.00646488 0.000217069 0)
(0.0077548 0.000186165 0)
(0.00880401 0.000156832 0)
(0.00964282 0.000130321 0)
(0.0103039 0.000107063 0)
(0.0108181 8.7016e-05 0)
(0.0112123 6.99012e-05 0)
(0.0115096 5.53551e-05 0)
(0.0117288 4.3007e-05 0)
(0.0118851 3.25177e-05 0)
(0.0119911 2.35928e-05 0)
(0.0120567 1.59842e-05 0)
(0.0120902 9.48515e-06 0)
(0.0120982 3.9225e-06 0)
(0.0120859 -7.93063e-07 0)
(7.74505e-34 -1.81711e-33 -2.34765e-59)
(2.32952e-33 -1.81417e-33 2.34201e-59)
(3.89342e-33 -1.80891e-33 0)
(5.46398e-33 -1.80125e-33 0)
(7.03883e-33 -1.79106e-33 0)
(8.61545e-33 -1.77823e-33 -2.28814e-59)
(1.01911e-32 -1.76262e-33 0)
(1.17628e-32 -1.74408e-33 0)
(1.33276e-32 -1.7225e-33 0)
(1.48819e-32 -1.69781e-33 0)
(1.64225e-32 -1.67e-33 2.13904e-59)
(1.79459e-32 -1.63912e-33 0)
(1.94485e-32 -1.6053e-33 0)
(2.0927e-32 -1.56874e-33 0)
(2.23782e-32 -1.52969e-33 0)
(2.3799e-32 -1.48846e-33 1.89569e-59)
(2.51867e-32 -1.44538e-33 0)
(2.6539e-32 -1.4008e-33 0)
(2.78536e-32 -1.3551e-33 0)
(2.91288e-32 -1.30863e-33 0)
(3.03633e-32 -1.26173e-33 0)
(3.15561e-32 -1.21472e-33 0)
(3.27062e-32 -1.16789e-33 0)
(3.38135e-32 -1.12153e-33 1.40962e-59)
(3.48776e-32 -1.07585e-33 -1.34933e-59)
(3.58988e-32 -1.03108e-33 1.29026e-59)
(3.68774e-32 -9.87382e-34 1.23263e-59)
(3.7814e-32 -9.44917e-34 0)
(3.87093e-32 -9.03806e-34 0)
(3.95643e-32 -8.64146e-34 -1.07018e-59)
(4.03799e-32 -8.26011e-34 -1.01993e-59)
(4.11574e-32 -7.89454e-34 0)
(4.1898e-32 -7.54504e-34 0)
(4.2603e-32 -7.21176e-34 -8.81806e-60)
(4.32738e-32 -6.89465e-34 0)
(4.39117e-32 -6.59354e-34 0)
(4.45181e-32 -6.30812e-34 7.62753e-60)
(4.50945e-32 -6.038e-34 0)
(4.56421e-32 -5.7827e-34 6.93517e-60)
(4.61625e-32 -5.54168e-34 1.3235e-59)
(4.66568e-32 -5.31435e-34 0)
(4.71264e-32 -5.10011e-34 0)
(4.75725e-32 -4.89831e-34 0)
(4.79963e-32 -4.70834e-34 0)
(4.83989e-32 -4.52955e-34 0)
(4.87814e-32 -4.36132e-34 1.0122e-59)
(4.91449e-32 -4.20305e-34 9.70437e-60)
(4.94903e-32 -4.05416e-34 9.31133e-60)
(4.98186e-32 -3.91408e-34 0)
(5.01307e-32 -3.78227e-34 -8.5934e-60)
(5.04273e-32 -3.65824e-34 0)
(5.07093e-32 -3.54148e-34 7.95731e-60)
(5.09775e-32 -3.43156e-34 7.66682e-60)
(5.12325e-32 -3.32804e-34 0)
(5.14749e-32 -3.23052e-34 0)
(5.17055e-32 -3.13863e-34 0)
(5.19248e-32 -3.05201e-34 6.66336e-60)
(5.21334e-32 -2.97034e-34 0)
(5.23318e-32 -2.8933e-34 0)
(5.25205e-32 -2.82063e-34 0)
(5.26999e-32 -2.75204e-34 0)
(5.28706e-32 -2.68729e-34 0)
(5.30329e-32 -2.62616e-34 0)
(5.31872e-32 -2.56842e-34 0)
(5.33339e-32 -2.51388e-34 0)
(5.34734e-32 -2.46235e-34 -5.10255e-60)
(5.36059e-32 -2.41365e-34 0)
(5.37319e-32 -2.36763e-34 0)
(5.38517e-32 -2.32414e-34 4.73636e-60)
(5.39654e-32 -2.28302e-34 4.62737e-60)
(5.40735e-32 -2.24416e-34 0)
(5.41761e-32 -2.20742e-34 -4.42699e-60)
(5.42735e-32 -2.17269e-34 4.33491e-60)
(5.43659e-32 -2.13986e-34 0)
(5.44537e-32 -2.10883e-34 -4.16558e-60)
(5.45369e-32 -2.07951e-34 0)
(5.46158e-32 -2.05179e-34 0)
(5.46907e-32 -2.02561e-34 3.94487e-60)
(5.47616e-32 -2.00087e-34 0)
(5.48288e-32 -1.9775e-34 -3.81726e-60)
(5.48924e-32 -1.95543e-34 0)
(5.49527e-32 -1.9346e-34 3.70341e-60)
(5.50097e-32 -1.91493e-34 3.65124e-60)
(5.50637e-32 -1.89637e-34 3.60199e-60)
(5.51147e-32 -1.87886e-34 7.11105e-60)
(5.5163e-32 -1.86235e-34 -7.02337e-60)
(5.52086e-32 -1.84677e-34 0)
(5.52516e-32 -1.8321e-34 0)
(5.52923e-32 -1.81827e-34 0)
(5.53307e-32 -1.80524e-34 -6.72025e-60)
(5.53669e-32 -1.79298e-34 -6.65513e-60)
(5.5401e-32 -1.78143e-34 6.59385e-60)
(5.54332e-32 -1.77057e-34 0)
(5.54635e-32 -1.76036e-34 -6.48196e-60)
(5.54921e-32 -1.75076e-34 -6.43095e-60)
(5.55189e-32 -1.74174e-34 -6.38304e-60)
(5.55442e-32 -1.73327e-34 0)
(5.5568e-32 -1.72531e-34 0)
(5.55903e-32 -1.71785e-34 0)
(5.56113e-32 -1.71085e-34 -6.21896e-60)
(5.5631e-32 -1.70428e-34 0)
(5.56495e-32 -1.69813e-34 0)
(5.56668e-32 -1.69237e-34 6.12086e-60)
(5.56831e-32 -1.68698e-34 0)
(5.56983e-32 -1.68193e-34 0)
(5.57126e-32 -1.67722e-34 6.04034e-60)
(5.57259e-32 -1.67281e-34 0)
(5.57384e-32 -1.66869e-34 0)
(5.57501e-32 -1.66484e-34 -5.9746e-60)
(5.5761e-32 -1.66125e-34 -5.95553e-60)
(5.57711e-32 -1.65791e-34 0)
(5.57806e-32 -1.65479e-34 5.92116e-60)
(5.57895e-32 -1.65188e-34 0)
(5.57978e-32 -1.64918e-34 -5.89136e-60)
(5.58055e-32 -1.64666e-34 0)
(5.58126e-32 -1.64432e-34 -5.86553e-60)
(5.58193e-32 -1.64215e-34 -5.854e-60)
(5.58255e-32 -1.64013e-34 0)
(5.58313e-32 -1.63825e-34 0)
(5.58366e-32 -1.63651e-34 0)
(5.58416e-32 -1.6349e-34 0)
(5.58462e-32 -1.6334e-34 0)
(5.58505e-32 -1.63202e-34 0)
(5.58544e-32 -1.63074e-34 0)
(5.58581e-32 -1.62955e-34 -5.78704e-60)
(5.58615e-32 -1.62846e-34 5.78124e-60)
(5.58646e-32 -1.62745e-34 0)
(5.58675e-32 -1.62651e-34 0)
(5.58702e-32 -1.62565e-34 0)
(5.58727e-32 -1.62485e-34 0)
(5.58749e-32 -1.62412e-34 1.15164e-59)
(5.5877e-32 -1.62345e-34 0)
(5.5879e-32 -1.62282e-34 -1.15025e-59)
(5.58807e-32 -1.62225e-34 1.14964e-59)
(5.58824e-32 -1.62172e-34 0)
(5.58838e-32 -1.62123e-34 0)
(5.58852e-32 -1.62078e-34 0)
(5.58864e-32 -1.62036e-34 -1.14764e-59)
(5.58876e-32 -1.61998e-34 -1.14723e-59)
(5.58886e-32 -1.61962e-34 0)
(5.58895e-32 -1.61928e-34 -1.14649e-59)
(5.58904e-32 -1.61897e-34 -1.14616e-59)
(5.58911e-32 -1.61867e-34 1.14584e-59)
(5.58918e-32 -1.61838e-34 0)
(5.58924e-32 -1.61811e-34 0)
(5.58929e-32 -1.61784e-34 1.14497e-59)
(5.58933e-32 -1.61757e-34 0)
(5.58936e-32 -1.61729e-34 0)
(5.58939e-32 -1.617e-34 0)
(5.5894e-32 -1.61669e-34 0)
(5.5894e-32 -1.61635e-34 -1.14342e-59)
(5.58939e-32 -1.61597e-34 -1.14303e-59)
(5.58937e-32 -1.61553e-34 0)
(5.58933e-32 -1.61502e-34 -1.14205e-59)
(5.58927e-32 -1.61441e-34 0)
(5.58918e-32 -1.61368e-34 0)
(5.58907e-32 -1.61279e-34 -1.13977e-59)
(5.58892e-32 -1.6117e-34 0)
(5.58872e-32 -1.61035e-34 -1.13728e-59)
(5.58846e-32 -1.60866e-34 0)
(5.58814e-32 -1.60655e-34 0)
(5.58771e-32 -1.6039e-34 -1.13071e-59)
(5.58718e-32 -1.60055e-34 0)
(5.58649e-32 -1.59629e-34 -1.12296e-59)
(5.5856e-32 -1.59087e-34 0)
(5.58447e-32 -1.58393e-34 0)
(5.58301e-32 -1.57501e-34 0)
(5.58113e-32 -1.56346e-34 1.08951e-59)
(5.5787e-32 -1.54841e-34 0)
(5.57554e-32 -1.52864e-34 -1.05404e-59)
(5.57141e-32 -1.50241e-34 0)
(5.56597e-32 -1.46715e-34 0)
(5.55873e-32 -1.41893e-34 0)
(5.54898e-32 -1.35145e-34 0)
(5.53562e-32 -1.25398e-34 0)
(5.51688e-32 -1.10658e-34 0)
(5.48956e-32 -8.6761e-35 0)
(5.44722e-32 -4.33775e-35 -1.31814e-60)
(5.37361e-32 5.26079e-35 0)
(5.21045e-32 3.53579e-34 0)
(7.79285e-34 -5.13828e-33 6.63829e-59)
(2.34393e-33 -5.12952e-33 -6.62143e-59)
(3.91763e-33 -5.1139e-33 0)
(5.49825e-33 -5.09113e-33 1.31343e-58)
(7.0835e-33 -5.06088e-33 0)
(8.6709e-33 -5.02271e-33 -6.48146e-59)
(1.02577e-32 -4.97616e-33 -1.28146e-58)
(1.18409e-32 -4.92074e-33 -1.26639e-58)
(1.34173e-32 -4.85603e-33 0)
(1.49834e-32 -4.78175e-33 -1.22898e-58)
(1.65353e-32 -4.69783e-33 6.05228e-59)
(1.80695e-32 -4.60444e-33 0)
(1.95822e-32 -4.50199e-33 0)
(2.10697e-32 -4.39114e-33 0)
(2.25286e-32 -4.2727e-33 0)
(2.39559e-32 -4.14764e-33 5.33241e-59)
(2.53486e-32 -4.01702e-33 0)
(2.67044e-32 -3.88196e-33 9.90852e-59)
(2.80212e-32 -3.74358e-33 0)
(2.92974e-32 -3.60298e-33 0)
(3.05315e-32 -3.4612e-33 -8.80282e-59)
(3.17228e-32 -3.31923e-33 0)
(3.28705e-32 -3.17794e-33 8.05957e-59)
(3.39745e-32 -3.03815e-33 3.88661e-59)
(3.50346e-32 -2.90056e-33 -3.70753e-59)
(3.60511e-32 -2.76578e-33 3.53213e-59)
(3.70245e-32 -2.63434e-33 3.3611e-59)
(3.79555e-32 -2.50669e-33 0)
(3.8845e-32 -2.38318e-33 0)
(3.96939e-32 -2.2641e-33 -2.87942e-59)
(4.05033e-32 -2.14966e-33 -8.09606e-59)
(4.12746e-32 -2.04002e-33 0)
(4.2009e-32 -1.93525e-33 0)
(4.27078e-32 -1.83539e-33 -2.32176e-59)
(4.33726e-32 -1.74041e-33 0)
(4.40046e-32 -1.65026e-33 0)
(4.46054e-32 -1.56483e-33 1.96984e-59)
(4.51764e-32 -1.48401e-33 0)
(4.57189e-32 -1.40764e-33 5.18816e-59)
(4.62343e-32 -1.33556e-33 3.3432e-59)
(4.67239e-32 -1.26759e-33 0)
(4.71891e-32 -1.20354e-33 0)
(4.7631e-32 -1.14322e-33 -5.46049e-59)
(4.80509e-32 -1.08644e-33 -5.16295e-59)
(4.84499e-32 -1.033e-33 -4.88292e-59)
(4.8829e-32 -9.82719e-34 7.04439e-59)
(4.91893e-32 -9.35417e-34 2.30186e-59)
(4.95317e-32 -8.90916e-34 -1.95213e-59)
(4.98572e-32 -8.49048e-34 3.91863e-59)
(5.01667e-32 -8.09652e-34 -1.97446e-59)
(5.04609e-32 -7.72576e-34 0)
(5.07407e-32 -7.37675e-34 1.78705e-59)
(5.10068e-32 -7.04814e-34 4.86358e-59)
(5.12598e-32 -6.73865e-34 0)
(5.15005e-32 -6.44707e-34 0)
(5.17294e-32 -6.1723e-34 0)
(5.19472e-32 -5.91327e-34 1.4059e-59)
(5.21543e-32 -5.66902e-34 0)
(5.23513e-32 -5.43862e-34 2.31731e-59)
(5.25388e-32 -5.22123e-34 0)
(5.2717e-32 -5.01606e-34 2.09539e-59)
(5.28866e-32 -4.82236e-34 0)
(5.30479e-32 -4.63946e-34 -1.89757e-59)
(5.32012e-32 -4.4667e-34 0)
(5.3347e-32 -4.3035e-34 1.72106e-59)
(5.34857e-32 -4.14929e-34 -2.58632e-59)
(5.36175e-32 -4.00356e-34 0)
(5.37428e-32 -3.86583e-34 -1.49106e-59)
(5.38618e-32 -3.73565e-34 8.38479e-60)
(5.39749e-32 -3.61258e-34 8.06398e-60)
(5.40824e-32 -3.49625e-34 0)
(5.41844e-32 -3.38627e-34 -1.98636e-59)
(5.42813e-32 -3.2823e-34 7.203e-60)
(5.43733e-32 -3.18402e-34 0)
(5.44605e-32 -3.09112e-34 -6.70458e-60)
(5.45433e-32 -3.00332e-34 -1.03759e-59)
(5.46219e-32 -2.92034e-34 0)
(5.46963e-32 -2.84193e-34 6.05489e-60)
(5.47669e-32 -2.76786e-34 0)
(5.48337e-32 -2.69788e-34 3.09008e-60)
(5.48971e-32 -2.6318e-34 0)
(5.4957e-32 -2.56941e-34 -2.74926e-60)
(5.50138e-32 -2.51051e-34 5.19067e-60)
(5.50675e-32 -2.45493e-34 1.2537e-59)
(5.51183e-32 -2.40248e-34 2.42486e-59)
(5.51663e-32 -2.35302e-34 -2.34701e-59)
(5.52117e-32 -2.30639e-34 0)
(5.52545e-32 -2.26243e-34 0)
(5.5295e-32 -2.22101e-34 0)
(5.53332e-32 -2.182e-34 3.44237e-60)
(5.53692e-32 -2.14527e-34 -8.4763e-60)
(5.54032e-32 -2.11069e-34 8.29597e-60)
(5.54352e-32 -2.07816e-34 0)
(5.54654e-32 -2.04757e-34 -1.86621e-59)
(5.54938e-32 -2.01882e-34 -7.81668e-60)
(5.55206e-32 -1.99179e-34 -7.67572e-60)
(5.55457e-32 -1.96641e-34 0)
(5.55694e-32 -1.94259e-34 0)
(5.55916e-32 -1.92023e-34 0)
(5.56125e-32 -1.89926e-34 -7.19297e-60)
(5.56321e-32 -1.8796e-34 0)
(5.56505e-32 -1.86117e-34 -8.73314e-60)
(5.56678e-32 -1.84392e-34 -1.64716e-60)
(5.5684e-32 -1.82777e-34 8.38136e-60)
(5.56991e-32 -1.81266e-34 0)
(5.57133e-32 -1.79852e-34 1.47409e-59)
(5.57266e-32 -1.78532e-34 0)
(5.57391e-32 -1.77298e-34 7.80445e-60)
(5.57507e-32 -1.76146e-34 -1.41572e-59)
(5.57615e-32 -1.75071e-34 -1.39879e-59)
(5.57717e-32 -1.74068e-34 0)
(5.57811e-32 -1.73134e-34 -1.0491e-60)
(5.579e-32 -1.72264e-34 7.27437e-60)
(5.57982e-32 -1.71453e-34 -6.22922e-60)
(5.58059e-32 -1.70699e-34 0)
(5.5813e-32 -1.69998e-34 -6.15327e-60)
(5.58196e-32 -1.69346e-34 8.47786e-61)
(5.58258e-32 -1.68741e-34 0)
(5.58316e-32 -1.68179e-34 6.84419e-60)
(5.58369e-32 -1.67658e-34 6.78927e-60)
(5.58418e-32 -1.67175e-34 6.73837e-60)
(5.58464e-32 -1.66727e-34 0)
(5.58507e-32 -1.66313e-34 0)
(5.58546e-32 -1.65929e-34 0)
(5.58583e-32 -1.65574e-34 -1.24921e-59)
(5.58617e-32 -1.65246e-34 5.90531e-60)
(5.58648e-32 -1.64943e-34 0)
(5.58677e-32 -1.64663e-34 -6.47378e-60)
(5.58703e-32 -1.64405e-34 -6.44656e-60)
(5.58728e-32 -1.64166e-34 0)
(5.5875e-32 -1.63947e-34 1.1675e-59)
(5.58771e-32 -1.63744e-34 -1.27539e-59)
(5.5879e-32 -1.63558e-34 -1.16344e-59)
(5.58808e-32 -1.63386e-34 2.42949e-59)
(5.58824e-32 -1.63227e-34 0)
(5.58839e-32 -1.63081e-34 0)
(5.58853e-32 -1.62946e-34 0)
(5.58865e-32 -1.62821e-34 -1.15575e-59)
(5.58876e-32 -1.62705e-34 -2.40805e-59)
(5.58887e-32 -1.62597e-34 -1.25125e-59)
(5.58896e-32 -1.62497e-34 -1.15237e-59)
(5.58904e-32 -1.62403e-34 -2.39855e-59)
(5.58912e-32 -1.62314e-34 1.15046e-59)
(5.58918e-32 -1.62228e-34 0)
(5.58924e-32 -1.62146e-34 0)
(5.58929e-32 -1.62065e-34 2.38795e-59)
(5.58933e-32 -1.61984e-34 0)
(5.58937e-32 -1.61901e-34 0)
(5.58939e-32 -1.61815e-34 -1.23486e-59)
(5.5894e-32 -1.61722e-34 0)
(5.58941e-32 -1.6162e-34 -2.37411e-59)
(5.5894e-32 -1.61506e-34 -1.14209e-59)
(5.58938e-32 -1.61376e-34 0)
(5.58934e-32 -1.61223e-34 -2.3618e-59)
(5.58928e-32 -1.61041e-34 0)
(5.58919e-32 -1.60823e-34 0)
(5.58908e-32 -1.60557e-34 -1.13231e-59)
(5.58893e-32 -1.60231e-34 -1.20228e-59)
(5.58874e-32 -1.59827e-34 -1.12479e-59)
(5.58849e-32 -1.59324e-34 0)
(5.58816e-32 -1.58695e-34 0)
(5.58775e-32 -1.57903e-34 -2.25957e-59)
(5.58722e-32 -1.56902e-34 0)
(5.58654e-32 -1.55632e-34 -2.18972e-59)
(5.58567e-32 -1.54015e-34 0)
(5.58455e-32 -1.51944e-34 0)
(5.58312e-32 -1.49281e-34 0)
(5.58127e-32 -1.45836e-34 9.80831e-60)
(5.57888e-32 -1.4135e-34 0)
(5.57577e-32 -1.35459e-34 -8.74057e-60)
(5.57171e-32 -1.27648e-34 0)
(5.56637e-32 -1.17156e-34 0)
(5.55928e-32 -1.02825e-34 -2.63517e-61)
(5.54976e-32 -8.28103e-35 -3.83937e-60)
(5.53677e-32 -5.3989e-35 0)
(5.51867e-32 -1.0636e-35 0)
(5.49265e-32 5.89307e-35 0)
(5.45356e-32 1.82358e-34 6.86118e-59)
(5.39143e-32 4.39827e-34 0)
(5.29343e-32 1.13342e-33 -5.08762e-58)
(7.88667e-34 -8.48972e-33 4.38814e-58)
(2.37222e-33 -8.47534e-33 -5.64618e-62)
(3.96518e-33 -8.44983e-33 0)
(5.56563e-33 -8.41275e-33 1.31853e-61)
(7.17148e-33 -8.3635e-33 0)
(8.78045e-33 -8.30123e-33 0)
(1.03899e-32 -8.22495e-33 -4.23992e-58)
(1.19967e-32 -8.13352e-33 -2.0968e-58)
(1.35972e-32 -8.02594e-33 2.06502e-58)
(1.51876e-32 -7.9015e-33 -2.03531e-58)
(1.67634e-32 -7.75997e-33 0)
(1.83202e-32 -7.60168e-33 0)
(1.98536e-32 -7.42746e-33 -1.90589e-58)
(2.13597e-32 -7.2386e-33 -3.712e-58)
(2.28345e-32 -7.03668e-33 3.60552e-58)
(2.42747e-32 -6.82351e-33 0)
(2.56774e-32 -6.60107e-33 3.37629e-58)
(2.70402e-32 -6.37135e-33 1.63419e-58)
(2.83611e-32 -6.13637e-33 0)
(2.96386e-32 -5.89804e-33 3.00722e-58)
(3.08716e-32 -5.65817e-33 -1.44802e-58)
(3.20594e-32 -5.41841e-33 -2.75583e-58)
(3.32018e-32 -5.18024e-33 1.32338e-58)
(3.42986e-32 -4.94499e-33 0)
(3.53502e-32 -4.7138e-33 2.38689e-58)
(3.6357e-32 -4.48768e-33 2.26856e-58)
(3.73198e-32 -4.26747e-33 0)
(3.82393e-32 -4.05387e-33 2.04163e-58)
(3.91168e-32 -3.84747e-33 0)
(3.99533e-32 -3.64871e-33 1.82973e-58)
(4.07502e-32 -3.45791e-33 -8.74605e-59)
(4.15088e-32 -3.27528e-33 0)
(4.22306e-32 -3.10095e-33 0)
(4.29171e-32 -2.93494e-33 0)
(4.35697e-32 -2.77718e-33 0)
(4.419e-32 -2.62755e-33 0)
(4.47794e-32 -2.48587e-33 0)
(4.53395e-32 -2.3519e-33 1.15167e-58)
(4.58716e-32 -2.22538e-33 -5.31923e-59)
(4.63772e-32 -2.10601e-33 0)
(4.68575e-32 -1.99348e-33 0)
(4.73139e-32 -1.88748e-33 0)
(4.77475e-32 -1.78767e-33 -1.73567e-58)
(4.81596e-32 -1.69373e-33 -8.30154e-59)
(4.85513e-32 -1.60533e-33 -2.2927e-60)
(4.89236e-32 -1.52216e-33 2.31025e-60)
(4.92775e-32 -1.44392e-33 -6.76681e-59)
(4.96141e-32 -1.37031e-33 -6.61576e-59)
(4.99341e-32 -1.30105e-33 1.22736e-58)
(5.02384e-32 -1.23587e-33 5.67762e-59)
(5.05278e-32 -1.17453e-33 0)
(5.08032e-32 -1.11677e-33 5.0539e-59)
(5.10651e-32 -1.06239e-33 9.7792e-59)
(5.13143e-32 -1.01116e-33 0)
(5.15514e-32 -9.62891e-34 0)
(5.1777e-32 -9.17395e-34 -4.00935e-59)
(5.19916e-32 -8.745e-34 0)
(5.21959e-32 -8.34044e-34 0)
(5.23902e-32 -7.95878e-34 1.03647e-58)
(5.25751e-32 -7.5986e-34 6.36723e-59)
(5.27511e-32 -7.25861e-34 3.25444e-59)
(5.29185e-32 -6.93758e-34 0)
(5.30777e-32 -6.63439e-34 -2.92864e-59)
(5.32292e-32 -6.34798e-34 0)
(5.33732e-32 -6.07737e-34 7.40959e-59)
(5.35102e-32 -5.82165e-34 -2.50438e-59)
(5.36405e-32 -5.57995e-34 -4.24982e-59)
(5.37643e-32 -5.35149e-34 -6.26901e-59)
(5.3882e-32 -5.13551e-34 0)
(5.39938e-32 -4.93133e-34 3.56915e-59)
(5.41001e-32 -4.73829e-34 0)
(5.4201e-32 -4.55578e-34 1.33156e-59)
(5.42969e-32 -4.38323e-34 2.99385e-59)
(5.43879e-32 -4.22011e-34 2.82261e-59)
(5.44742e-32 -4.0659e-34 -2.66071e-59)
(5.45562e-32 -3.92014e-34 9.96235e-60)
(5.46339e-32 -3.78239e-34 0)
(5.47076e-32 -3.65221e-34 0)
(5.47774e-32 -3.52921e-34 -2.0972e-59)
(5.48436e-32 -3.41302e-34 -7.28628e-60)
(5.49063e-32 -3.30328e-34 0)
(5.49657e-32 -3.19966e-34 -1.1351e-59)
(5.50219e-32 -3.10184e-34 0)
(5.50751e-32 -3.00953e-34 -5.15658e-60)
(5.51254e-32 -2.92243e-34 3.4405e-59)
(5.51729e-32 -2.84028e-34 -3.26835e-59)
(5.52179e-32 -2.76281e-34 1.29229e-59)
(5.52603e-32 -2.6898e-34 0)
(5.53004e-32 -2.62099e-34 -1.14331e-59)
(5.53382e-32 -2.55618e-34 2.67307e-59)
(5.53739e-32 -2.49516e-34 0)