/*--------------------------------*- C++ -*----------------------------------*\
  =========                 |
  \\      /  F ield         | OpenFOAM: The Open Source CFD Toolbox
   \\    /   O peration     | Website:  https://openfoam.org
    \\  /    A nd           | Version:  10
     \\/     M anipulation  |
\*---------------------------------------------------------------------------*/
FoamFile
{
    format      ascii;
    class       volScalarField;
    location    "6500";
    object      p;
}
// * * * * * * * * * * * * * * * * * * * * * * * * * * * * * * * * * * * * * //

dimensions      [1 -1 -2 0 0 0 0];

internalField   nonuniform List<scalar> 
6400
(
111.349
111.359
111.378
111.408
111.447
111.497
111.557
111.627
111.707
111.798
111.9
112.013
112.137
112.272
112.419
112.578
112.749
112.932
113.128
113.336
113.556
113.789
114.033
114.288
114.553
114.826
115.104
115.384
115.662
115.931
116.183
116.411
116.55
116.627
116.695
116.753
116.801
116.837
116.861
116.873
116.873
116.861
116.837
116.801
116.753
116.695
116.627
116.55
116.411
116.183
115.931
115.662
115.384
115.104
114.826
114.553
114.288
114.033
113.789
113.556
113.336
113.128
112.932
112.749
112.578
112.419
112.272
112.137
112.013
111.9
111.798
111.707
111.627
111.557
111.497
111.447
111.408
111.378
111.359
111.349
111.054
111.064
111.084
111.113
111.153
111.203
111.262
111.332
111.413
111.504
111.606
111.718
111.842
111.978
112.125
112.284
112.455
112.638
112.833
113.041
113.262
113.494
113.739
113.994
114.259
114.532
114.81
115.091
115.368
115.637
115.89
116.118
116.257
116.335
116.403
116.461
116.509
116.545
116.57
116.582
116.582
116.57
116.545
116.509
116.461
116.403
116.335
116.257
116.118
115.89
115.637
115.368
115.091
114.81
114.532
114.259
113.994
113.739
113.494
113.262
113.041
112.833
112.638
112.455
112.284
112.125
111.978
111.842
111.718
111.606
111.504
111.413
111.332
111.262
111.203
111.153
111.113
111.084
111.064
111.054
110.731
110.741
110.76
110.79
110.829
110.879
110.939
111.009
111.089
111.18
111.282
111.395
111.519
111.654
111.801
111.96
112.131
112.314
112.51
112.718
112.938
113.171
113.415
113.671
113.936
114.209
114.488
114.768
115.047
115.316
115.57
115.799
115.939
116.017
116.086
116.144
116.192
116.229
116.253
116.266
116.266
116.253
116.229
116.192
116.144
116.086
116.017
115.939
115.799
115.57
115.316
115.047
114.768
114.488
114.209
113.936
113.671
113.415
113.171
112.938
112.718
112.51
112.314
112.131
111.96
111.801
111.654
111.519
111.395
111.282
111.18
111.089
111.009
110.939
110.879
110.829
110.79
110.76
110.741
110.731
110.375
110.385
110.405
110.435
110.474
110.524
110.583
110.653
110.734
110.825
110.926
111.039
111.163
111.298
111.445
111.604
111.775
111.958
112.154
112.362
112.582
112.815
113.06
113.315
113.581
113.854
114.134
114.415
114.695
114.966
115.221
115.451
115.593
115.671
115.741
115.8
115.848
115.885
115.91
115.923
115.923
115.91
115.885
115.848
115.8
115.741
115.671
115.593
115.451
115.221
114.966
114.695
114.415
114.134
113.854
113.581
113.315
113.06
112.815
112.582
112.362
112.154
111.958
111.775
111.604
111.445
111.298
111.163
111.039
110.926
110.825
110.734
110.653
110.583
110.524
110.474
110.435
110.405
110.385
110.375
109.985
109.995
110.014
110.044
110.083
110.133
110.193
110.263
110.343
110.434
110.536
110.648
110.772
110.907
111.054
111.213
111.384
111.567
111.763
111.971
112.191
112.424
112.669
112.925
113.191
113.465
113.745
114.028
114.309
114.582
114.84
115.073
115.216
115.296
115.366
115.427
115.476
115.513
115.539
115.552
115.552
115.539
115.513
115.476
115.427
115.366
115.296
115.216
115.073
114.84
114.582
114.309
114.028
113.745
113.465
113.191
112.925
112.669
112.424
112.191
111.971
111.763
111.567
111.384
111.213
111.054
110.907
110.772
110.648
110.536
110.434
110.343
110.263
110.193
110.133
110.083
110.044
110.014
109.995
109.985
109.556
109.566
109.585
109.615
109.654
109.704
109.763
109.833
109.913
110.004
110.106
110.219
110.342
110.477
110.624
110.783
110.954
111.137
111.332
111.541
111.761
111.994
112.239
112.495
112.762
113.037
113.319
113.603
113.887
114.162
114.423
114.66
114.807
114.888
114.96
115.022
115.072
115.111
115.137
115.15
115.15
115.137
115.111
115.072
115.022
114.96
114.888
114.807
114.66
114.423
114.162
113.887
113.603
113.319
113.037
112.762
112.495
112.239
111.994
111.761
111.541
111.332
111.137
110.954
110.783
110.624
110.477
110.342
110.219
110.106
110.004
109.913
109.833
109.763
109.704
109.654
109.615
109.585
109.566
109.556
109.084
109.094
109.113
109.143
109.182
109.232
109.291
109.361
109.441
109.532
109.633
109.746
109.87
110.005
110.151
110.31
110.481
110.664
110.859
111.067
111.288
111.521
111.767
112.024
112.291
112.568
112.851
113.138
113.424
113.704
113.97
114.212
114.362
114.446
114.52
114.584
114.636
114.676
114.703
114.717
114.717
114.703
114.676
114.636
114.584
114.52
114.446
114.362
114.212
113.97
113.704
113.424
113.138
112.851
112.568
112.291
112.024
111.767
111.521
111.288
111.067
110.859
110.664
110.481
110.31
110.151
110.005
109.87
109.746
109.633
109.532
109.441
109.361
109.291
109.232
109.182
109.143
109.113
109.094
109.084
108.565
108.575
108.594
108.624
108.663
108.713
108.772
108.842
108.922
109.012
109.114
109.226
109.35
109.485
109.631
109.79
109.96
110.143
110.338
110.547
110.767
111.001
111.247
111.505
111.773
112.051
112.337
112.627
112.918
113.203
113.475
113.725
113.881
113.968
114.045
114.112
114.166
114.208
114.237
114.251
114.251
114.237
114.208
114.166
114.112
114.045
113.968
113.881
113.725
113.475
113.203
112.918
112.627
112.337
112.051
111.773
111.505
111.247
111.001
110.767
110.547
110.338
110.143
109.96
109.79
109.631
109.485
109.35
109.226
109.114
109.012
108.922
108.842
108.772
108.713
108.663
108.624
108.594
108.575
108.565
107.994
108.004
108.024
108.053
108.092
108.142
108.201
108.271
108.351
108.441
108.542
108.654
108.778
108.912
109.059
109.217
109.387
109.57
109.765
109.973
110.194
110.428
110.675
110.934
111.204
111.484
111.773
112.067
112.363
112.656
112.936
113.196
113.359
113.451
113.533
113.603
113.661
113.706
113.736
113.752
113.752
113.736
113.706
113.661
113.603
113.533
113.451
113.359
113.196
112.936
112.656
112.363
112.067
111.773
111.484
111.204
110.934
110.675
110.428
110.194
109.973
109.765
109.57
109.387
109.217
109.059
108.912
108.778
108.654
108.542
108.441
108.351
108.271
108.201
108.142
108.092
108.053
108.024
108.004
107.994
107.367
107.376
107.396
107.425
107.464
107.514
107.573
107.642
107.722
107.812
107.913
108.025
108.148
108.282
108.428
108.586
108.756
108.939
109.134
109.342
109.564
109.798
110.045
110.305
110.577
110.86
111.153
111.453
111.756
112.057
112.349
112.622
112.795
112.893
112.981
113.057
113.12
113.169
113.202
113.218
113.218
113.202
113.169
113.12
113.057
112.981
112.893
112.795
112.622
112.349
112.057
111.756
111.453
111.153
110.86
110.577
110.305
110.045
109.798
109.564
109.342
109.134
108.939
108.756
108.586
108.428
108.282
108.148
108.025
107.913
107.812
107.722
107.642
107.573
107.514
107.464
107.425
107.396
107.376
107.367
106.676
106.686
106.705
106.734
106.773
106.822
106.881
106.951
107.03
107.12
107.221
107.332
107.455
107.589
107.734
107.892
108.062
108.244
108.439
108.647
108.869
109.103
109.352
109.613
109.888
110.174
110.472
110.778
111.09
111.403
111.71
112
112.187
112.294
112.39
112.474
112.543
112.597
112.634
112.653
112.653
112.634
112.597
112.543
112.474
112.39
112.294
112.187
112
111.71
111.403
111.09
110.778
110.472
110.174
109.888
109.613
109.352
109.103
108.869
108.647
108.439
108.244
108.062
107.892
107.734
107.589
107.455
107.332
107.221
107.12
107.03
106.951
106.881
106.822
106.773
106.734
106.705
106.686
106.676
105.916
105.925
105.945
105.974
106.013
106.061
106.12
106.189
106.268
106.358
106.458
106.569
106.691
106.825
106.97
107.127
107.296
107.478
107.673
107.881
108.103
108.338
108.587
108.85
109.128
109.418
109.722
110.036
110.359
110.687
111.013
111.326
111.533
111.651
111.758
111.853
111.932
111.994
112.037
112.058
112.058
112.037
111.994
111.932
111.853
111.758
111.651
111.533
111.326
111.013
110.687
110.359
110.036
109.722
109.418
109.128
108.85
108.587
108.338
108.103
107.881
107.673
107.478
107.296
107.127
106.97
106.825
106.691
106.569
106.458
106.358
106.268
106.189
106.12
106.061
106.013
105.974
105.945
105.925
105.916
105.079
105.088
105.107
105.136
105.175
105.224
105.282
105.35
105.429
105.518
105.618
105.728
105.85
105.983
106.127
106.284
106.453
106.634
106.829
107.036
107.258
107.494
107.744
108.009
108.29
108.585
108.895
109.22
109.557
109.903
110.253
110.597
110.829
110.964
111.088
111.198
111.292
111.366
111.417
111.443
111.443
111.417
111.366
111.292
111.198
111.088
110.964
110.829
110.597
110.253
109.903
109.557
109.22
108.895
108.585
108.29
108.009
107.744
107.494
107.258
107.036
106.829
106.634
106.453
106.284
106.127
105.983
105.85
105.728
105.618
105.518
105.429
105.35
105.282
105.224
105.175
105.136
105.107
105.088
105.079
104.157
104.166
104.185
104.214
104.252
104.301
104.359
104.427
104.505
104.593
104.692
104.802
104.923
105.055
105.199
105.354
105.522
105.703
105.897
106.104
106.326
106.562
106.814
107.081
107.365
107.665
107.984
108.319
108.672
109.041
109.421
109.805
110.073
110.231
110.379
110.513
110.629
110.722
110.787
110.82
110.82
110.787
110.722
110.629
110.513
110.379
110.231
110.073
109.805
109.421
109.041
108.672
108.319
107.984
107.665
107.365
107.081
106.814
106.562
106.326
106.104
105.897
105.703
105.522
105.354
105.199
105.055
104.923
104.802
104.692
104.593
104.505
104.427
104.359
104.301
104.252
104.214
104.185
104.166
104.157
103.141
103.15
103.169
103.198
103.236
103.284
103.341
103.408
103.486
103.574
103.672
103.781
103.901
104.032
104.174
104.329
104.496
104.675
104.868
105.075
105.297
105.533
105.785
106.055
106.342
106.648
106.975
107.324
107.695
108.09
108.508
108.943
109.261
109.452
109.636
109.807
109.959
110.083
110.172
110.219
110.219
110.172
110.083
109.959
109.807
109.636
109.452
109.261
108.943
108.508
108.09
107.695
107.324
106.975
106.648
106.342
106.055
105.785
105.533
105.297
105.075
104.868
104.675
104.496
104.329
104.174
104.032
103.901
103.781
103.672
103.574
103.486
103.408
103.341
103.284
103.236
103.198
103.169
103.15
103.141
102.021
102.031
102.049
102.078
102.115
102.162
102.219
102.286
102.363
102.449
102.547
102.654
102.773
102.903
103.044
103.197
103.362
103.541
103.732
103.938
104.159
104.395
104.648
104.919
105.209
105.521
105.856
106.218
106.609
107.034
107.496
107.996
108.38
108.62
108.858
109.088
109.302
109.486
109.622
109.694
109.694
109.622
109.486
109.302
109.088
108.858
108.62
108.38
107.996
107.496
107.034
106.609
106.218
105.856
105.521
105.209
104.919
104.648
104.395
104.159
103.938
103.732
103.541
103.362
103.197
103.044
102.903
102.773
102.654
102.547
102.449
102.363
102.286
102.219
102.162
102.115
102.078
102.049
102.031
102.021
100.708
100.718
100.736
100.764
100.801
100.847
100.904
100.969
101.045
101.13
101.226
101.332
101.449
101.577
101.716
101.868
102.031
102.207
102.397
102.601
102.82
103.055
103.308
103.579
103.872
104.188
104.532
104.907
105.318
105.775
106.287
106.867
107.344
107.654
107.978
108.313
108.649
108.965
109.223
109.351
109.351
109.223
108.965
108.649
108.313
107.978
107.654
107.344
106.867
106.287
105.775
105.318
104.907
104.532
104.188
103.872
103.579
103.308
103.055
102.82
102.601
102.397
102.207
102.031
101.868
101.716
101.577
101.449
101.332
101.226
101.13
101.045
100.969
100.904
100.847
100.801
100.764
100.736
100.718
100.708
99.251
99.2601
99.2782
99.3054
99.3418
99.3875
99.4425
99.5069
99.5811
99.665
99.759
99.8632
99.978
100.104
100.24
100.389
100.55
100.723
100.91
101.111
101.327
101.56
101.81
102.081
102.374
102.692
103.039
103.423
103.849
104.332
104.886
105.541
106.118
106.512
106.955
107.455
108.027
108.684
109.436
110.937
110.937
109.436
108.684
108.027
107.455
106.955
106.512
106.118
105.541
104.886
104.332
103.849
103.423
103.039
102.692
102.374
102.081
101.81
101.56
101.327
101.111
100.91
100.723
100.55
100.389
100.24
100.104
99.978
99.8632
99.759
99.665
99.5811
99.5069
99.4425
99.3875
99.3418
99.3054
99.2782
99.2601
99.251
97.7846
97.7934
97.8111
97.8378
97.8734
97.9181
97.9719
98.035
98.1076
98.1897
98.2816
98.3836
98.4959
98.6189
98.7528
98.8982
99.0555
99.2253
99.4084
99.6056
99.8179
100.047
100.293
100.56
100.85
101.165
101.512
101.895
102.325
102.815
103.385
104.071
104.693
105.13
105.635
106.237
106.975
107.921
109.861
146.162
146.162
109.861
107.921
106.975
106.237
105.635
105.13
104.693
104.071
103.385
102.815
102.325
101.895
101.512
101.165
100.85
100.56
100.293
100.047
99.8179
99.6056
99.4084
99.2253
99.0555
98.8982
98.7528
98.6189
98.4959
98.3836
98.2816
98.1897
98.1076
98.035
97.9719
97.9181
97.8734
97.8378
97.8111
97.7934
97.7846
96.3092
96.3179
96.3352
96.3612
96.396
96.4396
96.4921
96.5537
96.6245
96.7046
96.7943
96.8937
97.0032
97.1231
97.2537
97.3954
97.5488
97.7144
97.8929
98.0851
98.2922
98.5154
98.7562
99.0167
99.2994
99.6079
99.9465
100.321
100.741
101.218
101.77
102.423
103
103.394
103.832
104.324
104.876
105.511
142.544
153.721
153.721
142.544
105.511
104.876
104.324
103.832
103.394
103
102.423
101.77
101.218
100.741
100.321
99.9465
99.6079
99.2994
99.0167
98.7562
98.5154
98.2922
98.0851
97.8929
97.7144
97.5488
97.3954
97.2537
97.1231
97.0032
96.8937
96.7943
96.7046
96.6245
96.5537
96.4921
96.4396
96.396
96.3612
96.3352
96.3179
96.3092
94.8253
94.8337
94.8505
94.8759
94.9097
94.9521
95.0032
95.0632
95.132
95.2099
95.2971
95.3938
95.5002
95.6166
95.7434
95.881
96.0298
96.1905
96.3635
96.5499
96.7505
96.9664
97.1993
97.4509
97.7236
98.0204
98.3451
98.7028
99.1001
99.5459
100.052
100.631
101.114
101.429
101.761
102.106
102.456
102.914
130.671
139.919
139.919
130.671
102.914
102.456
102.106
101.761
101.429
101.114
100.631
100.052
99.5459
99.1001
98.7028
98.3451
98.0204
97.7236
97.4509
97.1993
96.9664
96.7505
96.5499
96.3635
96.1905
96.0298
95.881
95.7434
95.6166
95.5002
95.3938
95.2971
95.2099
95.132
95.0632
95.0032
94.9521
94.9097
94.8759
94.8505
94.8337
94.8253
93.3329
93.3411
93.3574
93.382
93.4148
93.456
93.5056
93.5637
93.6304
93.706
93.7904
93.8841
93.9871
94.0998
94.2224
94.3554
94.4991
94.6541
94.821
95.0004
95.1933
95.4006
95.6237
95.8641
96.1238
96.405
96.7107
97.0445
97.4107
97.8141
98.2597
98.7505
99.1355
99.3777
99.6224
99.8646
100.097
100.477
118.547
126.52
126.52
118.547
100.477
100.097
99.8646
99.6224
99.3777
99.1355
98.7505
98.2597
97.8141
97.4107
97.0445
96.7107
96.405
96.1238
95.8641
95.6237
95.4006
95.1933
95.0004
94.821
94.6541
94.4991
94.3554
94.2224
94.0998
93.9871
93.8841
93.7904
93.706
93.6304
93.5637
93.5056
93.456
93.4148
93.382
93.3574
93.3411
93.3329
91.8323
91.8403
91.8561
91.8799
91.9116
91.9515
91.9994
92.0556
92.1201
92.1931
92.2746
92.365
92.4644
92.5729
92.691
92.819
92.9571
93.1059
93.2658
93.4375
93.6216
93.8191
94.0309
94.2581
94.5023
94.7651
95.0482
95.3538
95.6839
96.0401
96.4224
96.8277
97.1297
97.3147
97.4963
97.6708
97.8339
98.1551
110.894
117.541
117.541
110.894
98.1551
97.8339
97.6708
97.4963
97.3147
97.1297
96.8277
96.4224
96.0401
95.6839
95.3538
95.0482
94.7651
94.5023
94.2581
94.0309
93.8191
93.6216
93.4375
93.2658
93.1059
92.9571
92.819
92.691
92.5729
92.4644
92.365
92.2746
92.1931
92.1201
92.0556
91.9994
91.9515
91.9116
91.8799
91.8561
91.8403
91.8323
90.3239
90.3315
90.3468
90.3697
90.4004
90.4388
90.485
90.5392
90.6013
90.6716
90.75
90.8369
90.9324
91.0366
91.1499
91.2724
91.4045
91.5465
91.6989
91.8621
92.0366
92.2232
92.4225
92.6352
92.8623
93.1047
93.3633
93.6387
93.9311
94.2399
94.5622
94.8921
95.1278
95.2695
95.4058
95.5347
95.6536
95.931
105.464
111.287
111.287
105.464
95.931
95.6536
95.5347
95.4058
95.2695
95.1278
94.8921
94.5622
94.2399
93.9311
93.6387
93.3633
93.1047
92.8623
92.6352
92.4225
92.2232
92.0366
91.8621
91.6989
91.5465
91.4045
91.2724
91.1499
91.0366
90.9324
90.8369
90.75
90.6716
90.6013
90.5392
90.485
90.4388
90.4004
90.3697
90.3468
90.3315
90.3239
88.8078
88.8151
88.8298
88.8519
88.8814
88.9183
88.9627
89.0147
89.0744
89.1418
89.2171
89.3003
89.3916
89.4913
89.5994
89.7162
89.8419
89.9768
90.1211
90.2753
90.4397
90.6146
90.8006
90.9979
91.207
91.4282
91.6615
91.9065
92.1621
92.4261
92.6943
92.9601
93.143
93.251
93.3533
93.4486
93.5355
93.7669
100.908
106.292
106.292
100.908
93.7669
93.5355
93.4486
93.3533
93.251
93.143
92.9601
92.6943
92.4261
92.1621
91.9065
91.6615
91.4282
91.207
90.9979
90.8006
90.6146
90.4397
90.2753
90.1211
89.9768
89.8419
89.7162
89.5994
89.4913
89.3916
89.3003
89.2171
89.1418
89.0744
89.0147
88.9627
88.9183
88.8814
88.8519
88.8298
88.8151
88.8078
87.2844
87.2914
87.3055
87.3267
87.3549
87.3903
87.4329
87.4827
87.5398
87.6042
87.6761
87.7555
87.8426
87.9375
88.0402
88.1511
88.2701
88.3976
88.5336
88.6784
88.8322
88.9951
89.1673
89.3488
89.5397
89.7396
89.948
90.1636
90.3847
90.608
90.829
91.0408
91.1807
91.2617
91.3366
91.4044
91.4644
91.6329
96.5359
101.75
101.75
96.5359
91.6329
91.4644
91.4044
91.3366
91.2617
91.1807
91.0408
90.829
90.608
90.3847
90.1636
89.948
89.7396
89.5397
89.3488
89.1673
88.9951
88.8322
88.6784
88.5336
88.3976
88.2701
88.1511
88.0402
87.9375
87.8426
87.7555
87.6761
87.6042
87.5398
87.4827
87.4329
87.3903
87.3549
87.3267
87.3055
87.2914
87.2844
85.7539
85.7606
85.7741
85.7943
85.8213
85.8552
85.8958
85.9433
85.9977
86.0592
86.1276
86.2031
86.2858
86.3758
86.473
86.5778
86.69
86.8098
86.9373
87.0725
87.2155
87.3662
87.5246
87.6905
87.8634
88.0426
88.2272
88.4154
88.605
88.7923
88.9727
89.1396
89.2444
89.3032
89.3554
89.3999
89.4358
89.525
92.0995
97.3808
97.3808
92.0995
89.525
89.4358
89.3999
89.3554
89.3032
89.2444
89.1396
88.9727
88.7923
88.605
88.4154
88.2272
88.0426
87.8634
87.6905
87.5246
87.3662
87.2155
87.0725
86.9373
86.8098
86.69
86.5778
86.473
86.3758
86.2858
86.2031
86.1276
86.0592
85.9977
85.9433
85.8958
85.8552
85.8213
85.7943
85.7741
85.7606
85.7539
84.2167
84.2231
84.2359
84.2552
84.281
84.3131
84.3518
84.397
84.4488
84.5071
84.572
84.6435
84.7218
84.8067
84.8984
84.9969
85.1022
85.2143
85.3332
85.4588
85.591
85.7297
85.8745
86.025
86.1806
86.3403
86.5027
86.6659
86.8274
86.9836
87.1298
87.2601
87.3371
87.3785
87.4128
87.439
87.4557
87.4743
87.9074
93.4885
93.4885
87.9074
87.4743
87.4557
87.439
87.4128
87.3785
87.3371
87.2601
87.1298
86.9836
86.8274
86.6659
86.5027
86.3403
86.1806
86.025
85.8745
85.7297
85.591
85.4588
85.3332
85.2143
85.1022
84.9969
84.8984
84.8067
84.7218
84.6435
84.572
84.5071
84.4488
84.397
84.3518
84.3131
84.281
84.2552
84.2359
84.2231
84.2167
82.673
82.6791
82.6913
82.7097
82.7341
82.7647
82.8014
82.8442
82.8932
82.9484
83.0097
83.0773
83.151
83.2309
83.317
83.4093
83.5076
83.6121
83.7224
83.8385
83.9602
84.087
84.2187
84.3546
84.4938
84.6352
84.7773
84.9182
85.0552
85.1849
85.303
85.4043
85.4604
85.4892
85.5113
85.5259
85.5319
85.5279
85.518
91.0835
91.0835
85.518
85.5279
85.5319
85.5259
85.5113
85.4892
85.4604
85.4043
85.303
85.1849
85.0552
84.9182
84.7773
84.6352
84.4938
84.3546
84.2187
84.087
83.9602
83.8385
83.7224
83.6121
83.5076
83.4093
83.317
83.2309
83.151
83.0773
83.0097
82.9484
82.8932
82.8442
82.8014
82.7647
82.7341
82.7097
82.6913
82.6791
82.673
81.1233
81.1291
81.1406
81.158
81.1811
81.21
81.2447
81.2852
81.3315
81.3835
81.4413
81.5048
81.5741
81.649
81.7295
81.8155
81.907
82.0039
82.1058
82.2126
82.324
82.4396
82.5587
82.6808
82.8047
82.9294
83.0533
83.1744
83.2902
83.3976
83.493
83.5719
83.6132
83.6335
83.6481
83.6566
83.6583
83.653
83.6451
89.3174
89.3174
83.6451
83.653
83.6583
83.6566
83.6481
83.6335
83.6132
83.5719
83.493
83.3976
83.2902
83.1744
83.0533
82.9294
82.8047
82.6808
82.5587
82.4396
82.324
82.2126
82.1058
82.0039
81.907
81.8155
81.7295
81.649
81.5741
81.5048
81.4413
81.3835
81.3315
81.2852
81.2447
81.21
81.1811
81.158
81.1406
81.1291
81.1233
79.5678
79.5732
79.5841
79.6005
79.6224
79.6496
79.6823
79.7205
79.764
79.8129
79.8671
79.9267
79.9914
80.0614
80.1364
80.2164
80.3011
80.3906
80.4844
80.5822
80.6838
80.7885
80.8959
81.005
81.1149
81.2245
81.332
81.4358
81.5335
81.6225
81.6996
81.7613
81.7919
81.8064
81.8162
81.821
81.8206
81.8149
81.8071
87.7284
87.7284
81.8071
81.8149
81.8206
81.821
81.8162
81.8064
81.7919
81.7613
81.6996
81.6225
81.5335
81.4358
81.332
81.2245
81.1149
81.005
80.8959
80.7885
80.6838
80.5822
80.4844
80.3906
80.3011
80.2164
80.1364
80.0614
79.9914
79.9267
79.8671
79.8129
79.764
79.7205
79.6823
79.6496
79.6224
79.6005
79.5841
79.5732
79.5678
78.0068
78.0119
78.0222
78.0376
78.0582
78.0838
78.1145
78.1503
78.1911
78.2369
78.2877
78.3433
78.4036
78.4687
78.5383
78.6124
78.6906
78.7729
78.8588
78.9481
79.0403
79.1349
79.2312
79.3285
79.4256
79.5214
79.6146
79.7033
79.7856
79.8592
79.9216
79.9699
79.9927
80.003
80.0094
80.0118
80.0101
80.004
79.9961
86.2511
86.2511
79.9961
80.004
80.0101
80.0118
80.0094
80.003
79.9927
79.9699
79.9216
79.8592
79.7856
79.7033
79.6146
79.5214
79.4256
79.3285
79.2312
79.1349
79.0403
78.9481
78.8588
78.7729
78.6906
78.6124
78.5383
78.4687
78.4036
78.3433
78.2877
78.2369
78.1911
78.1503
78.1145
78.0838
78.0582
78.0376
78.0222
78.0119
78.0068
76.4406
76.4455
76.4551
76.4696
76.4888
76.5129
76.5417
76.5751
76.6133
76.656
76.7033
76.7551
76.8111
76.8715
76.9358
77.0041
77.0761
77.1515
77.2299
77.3111
77.3945
77.4796
77.5657
77.652
77.7375
77.8211
77.9016
77.9772
78.0464
78.1072
78.1576
78.1953
78.2121
78.2193
78.2232
78.2238
78.2209
78.2146
78.2068
84.8811
84.8811
78.2068
78.2146
78.2209
78.2238
78.2232
78.2193
78.2121
78.1953
78.1576
78.1072
78.0464
77.9772
77.9016
77.8211
77.7375
77.652
77.5657
77.4796
77.3945
77.3111
77.2299
77.1515
77.0761
77.0041
76.9358
76.8715
76.8111
76.7551
76.7033
76.656
76.6133
76.5751
76.5417
76.5129
76.4888
76.4696
76.4551
76.4455
76.4406
74.8697
74.8742
74.8832
74.8968
74.9148
74.9372
74.9641
74.9953
75.0308
75.0706
75.1145
75.1625
75.2144
75.2702
75.3295
75.3922
75.4582
75.527
75.5983
75.6718
75.747
75.8232
75.8999
75.9763
76.0513
76.124
76.1933
76.2576
76.3156
76.3657
76.4061
76.4354
76.4473
76.452
76.4539
76.4531
76.4493
76.4427
76.4349
83.6364
83.6364
76.4349
76.4427
76.4493
76.4531
76.4539
76.452
76.4473
76.4354
76.4061
76.3657
76.3156
76.2576
76.1933
76.124
76.0513
75.9763
75.8999
75.8232
75.747
75.6718
75.5983
75.527
75.4582
75.3922
75.3295
75.2702
75.2144
75.1625
75.1145
75.0706
75.0308
74.9953
74.9641
74.9372
74.9148
74.8968
74.8832
74.8742
74.8697
73.2942
73.2984
73.3068
73.3194
73.3362
73.3571
73.3821
73.4111
73.4441
73.481
73.5217
73.5661
73.6139
73.6652
73.7197
73.7772
73.8373
73.8999
73.9646
74.0309
74.0984
74.1665
74.2345
74.3018
74.3674
74.4305
74.4898
74.5444
74.5928
74.6337
74.6659
74.6881
74.6961
74.6987
74.6989
74.6968
74.6922
74.6852
74.6775
82.5479
82.5479
74.6775
74.6852
74.6922
74.6968
74.6989
74.6987
74.6961
74.6881
74.6659
74.6337
74.5928
74.5444
74.4898
74.4305
74.3674
74.3018
74.2345
74.1665
74.0984
74.0309
73.9646
73.8999
73.8373
73.7772
73.7197
73.6652
73.6139
73.5661
73.5217
73.481
73.4441
73.4111
73.3821
73.3571
73.3362
73.3194
73.3068
73.2984
73.2942
71.7145
71.7184
71.7263
71.738
71.7536
71.773
71.7961
71.823
71.8536
71.8876
71.9252
71.966
72.0101
72.0571
72.1069
72.1594
72.2141
72.2708
72.3292
72.3888
72.4492
72.5097
72.5699
72.629
72.6862
72.7406
72.7913
72.8372
72.8774
72.9106
72.9357
72.9519
72.9565
72.9573
72.956
72.9527
72.9473
72.9398
72.9322
81.666
81.666
72.9322
72.9398
72.9473
72.9527
72.956
72.9573
72.9565
72.9519
72.9357
72.9106
72.8774
72.8372
72.7913
72.7406
72.6862
72.629
72.5699
72.5097
72.4492
72.3888
72.3292
72.2708
72.2141
72.1594
72.1069
72.0571
72.0101
71.966
71.9252
71.8876
71.8536
71.823
71.7961
71.773
71.7536
71.738
71.7263
71.7184
71.7145
70.1309
70.1345
70.1418
70.1526
70.1671
70.185
70.2064
70.2313
70.2594
70.2908
70.3253
70.3628
70.4032
70.4462
70.4916
70.5393
70.5889
70.6401
70.6926
70.746
70.7997
70.8534
70.9064
70.958
71.0076
71.0544
71.0975
71.1359
71.1689
71.1954
71.2145
71.2255
71.2271
71.2263
71.2236
71.2191
71.2128
71.2047
71.1973
81.0774
81.0774
71.1973
71.2047
71.2128
71.2191
71.2236
71.2263
71.2271
71.2255
71.2145
71.1954
71.1689
71.1359
71.0975
71.0544
71.0076
70.958
70.9064
70.8534
70.7997
70.746
70.6926
70.6401
70.5889
70.5393
70.4916
70.4462
70.4032
70.3628
70.3253
70.2908
70.2594
70.2313
70.2064
70.185
70.1671
70.1526
70.1418
70.1345
70.1309
68.5437
68.547
68.5537
68.5637
68.577
68.5936
68.6133
68.6362
68.6621
68.6909
68.7225
68.7568
68.7936
68.8328
68.8741
68.9172
68.962
69.0081
69.0551
69.1027
69.1504
69.1978
69.2442
69.2892
69.332
69.3719
69.4082
69.4401
69.4669
69.4876
69.5015
69.508
69.5068
69.5045
69.5005
69.4948
69.4874
69.4785
69.4713
80.9291
80.9291
69.4713
69.4785
69.4874
69.4948
69.5005
69.5045
69.5068
69.508
69.5015
69.4876
69.4669
69.4401
69.4082
69.3719
69.332
69.2892
69.2442
69.1978
69.1504
69.1027
69.0551
69.0081
68.962
68.9172
68.8741
68.8328
68.7936
68.7568
68.7225
68.6909
68.6621
68.6362
68.6133
68.5936
68.577
68.5637
68.5537
68.547
68.5437
66.9531
66.9562
66.9623
66.9715
66.9838
66.999
67.0171
67.0381
67.0618
67.0881
67.117
67.1483
67.1818
67.2173
67.2546
67.2936
67.3338
67.3751
67.417
67.4593
67.5015
67.543
67.5836
67.6225
67.6591
67.693
67.7234
67.7495
67.7708
67.7866
67.796
67.7985
67.7949
67.7911
67.7857
67.7788
67.7702
67.7602
67.753
81.3781
81.3781
67.753
67.7602
67.7702
67.7788
67.7857
67.7911
67.7949
67.7985
67.796
67.7866
67.7708
67.7495
67.7234
67.693
67.6591
67.6225
67.5836
67.543
67.5015
67.4593
67.417
67.3751
67.3338
67.2936
67.2546
67.2173
67.1818
67.1483
67.117
67.0881
67.0618
67.0381
67.0171
66.999
66.9838
66.9715
66.9623
66.9562
66.9531
65.3594
65.3622
65.3679
65.3763
65.3875
65.4015
65.4181
65.4372
65.4588
65.4829
65.5091
65.5375
65.5678
65.5999
65.6336
65.6686
65.7046
65.7414
65.7787
65.816
65.8531
65.8894
65.9245
65.9579
65.9892
66.0176
66.0427
66.0638
66.0804
66.0918
66.0974
66.0966
66.0908
66.0857
66.079
66.0706
66.0605
66.0488
66.041
81.1635
81.1635
66.041
66.0488
66.0605
66.0706
66.079
66.0857
66.0908
66.0966
66.0974
66.0918
66.0804
66.0638
66.0427
66.0176
65.9892
65.9579
65.9245
65.8894
65.8531
65.816
65.7787
65.7414
65.7046
65.6686
65.6336
65.5999
65.5678
65.5375
65.5091
65.4829
65.4588
65.4372
65.4181
65.4015
65.3875
65.3763
65.3679
65.3622
65.3594
63.7629
63.7655
63.7706
63.7784
63.7886
63.8013
63.8164
63.8339
63.8535
63.8753
63.8991
63.9248
63.9522
63.9811
64.0113
64.0425
64.0746
64.1073
64.1402
64.173
64.2054
64.2369
64.2671
64.2957
64.322
64.3456
64.366
64.3827
64.3952
64.4029
64.4053
64.4018
64.3946
64.3886
64.3809
64.3713
64.359
64.3431
64.3301
65.9214
65.9214
64.3301
64.3431
64.359
64.3713
64.3809
64.3886
64.3946
64.4018
64.4053
64.4029
64.3952
64.3827
64.366
64.3456
64.322
64.2957
64.2671
64.2369
64.2054
64.173
64.1402
64.1073
64.0746
64.0425
64.0113
63.9811
63.9522
63.9248
63.8991
63.8753
63.8535
63.8339
63.8164
63.8013
63.7886
63.7784
63.7706
63.7655
63.7629
62.164
62.1664
62.1711
62.1781
62.1874
62.199
62.2127
62.2285
62.2463
62.266
62.2875
62.3106
62.3352
62.3611
62.3881
62.4159
62.4444
62.4732
62.5021
62.5308
62.5589
62.586
62.6118
62.6358
62.6577
62.677
62.6933
62.7061
62.7149
62.7195
62.7193
62.714
62.7062
62.7003
62.6933
62.6852
62.6763
62.6671
62.6583
64.1168
64.1168
62.6583
62.6671
62.6763
62.6852
62.6933
62.7003
62.7062
62.714
62.7193
62.7195
62.7149
62.7061
62.6933
62.677
62.6577
62.6358
62.6118
62.586
62.5589
62.5308
62.5021
62.4732
62.4444
62.4159
62.3881
62.3611
62.3352
62.3106
62.2875
62.266
62.2463
62.2285
62.2127
62.199
62.1874
62.1781
62.1711
62.1664
62.164
60.5628
60.5649
60.5692
60.5755
60.584
60.5944
60.6068
60.6211
60.6372
60.6549
60.6743
60.695
60.717
60.74
60.764
60.7887
60.8138
60.8391
60.8643
60.8891
60.9133
60.9364
60.9582
60.9782
60.9961
61.0115
61.0241
61.0334
61.0391
61.0409
61.0385
61.0316
61.0235
61.0176
61.0109
61.0035
60.9956
60.9871
60.9784
62.4461
62.4461
60.9784
60.9871
60.9956
61.0035
61.0109
61.0176
61.0235
61.0316
61.0385
61.0409
61.0391
61.0334
61.0241
61.0115
60.9961
60.9782
60.9582
60.9364
60.9133
60.8891
60.8643
60.8391
60.8138
60.7887
60.764
60.74
60.717
60.695
60.6743
60.6549
60.6372
60.6211
60.6068
60.5944
60.584
60.5755
60.5692
60.5649
60.5628
58.9594
58.9613
58.9652
58.9709
58.9785
58.988
58.9991
59.012
59.0264
59.0423
59.0596
59.0781
59.0976
59.1181
59.1393
59.1609
59.1829
59.205
59.2268
59.2481
59.2687
59.2882
59.3063
59.3227
59.337
59.3489
59.3581
59.3643
59.3671
59.3664
59.362
59.3537
59.345
59.339
59.3322
59.3249
59.3169
59.3085
59.2994
60.794
60.794
59.2994
59.3085
59.3169
59.3249
59.3322
59.339
59.345
59.3537
59.362
59.3664
59.3671
59.3643
59.3581
59.3489
59.337
59.3227
59.3063
59.2882
59.2687
59.2481
59.2268
59.205
59.1829
59.1609
59.1393
59.1181
59.0976
59.0781
59.0596
59.0423
59.0264
59.012
58.9991
58.988
58.9785
58.9709
58.9652
58.9613
58.9594
57.354
57.3558
57.3593
57.3644
57.3713
57.3797
57.3897
57.4012
57.4141
57.4283
57.4437
57.4601
57.4774
57.4954
57.514
57.533
57.5521
57.5711
57.5898
57.6079
57.6252
57.6414
57.6561
57.6692
57.6802
57.689
57.6951
57.6985
57.6987
57.6958
57.6894
57.6797
57.6702
57.6637
57.6567
57.6491
57.6409
57.6322
57.6228
59.1485
59.1485
57.6228
57.6322
57.6409
57.6491
57.6567
57.6637
57.6702
57.6797
57.6894
57.6958
57.6987
57.6985
57.6951
57.689
57.6802
57.6692
57.6561
57.6414
57.6252
57.6079
57.5898
57.5711
57.5521
57.533
57.514
57.4954
57.4774
57.4601
57.4437
57.4283
57.4141
57.4012
57.3897
57.3797
57.3713
57.3644
57.3593
57.3558
57.354
55.747
55.7485
55.7516
55.7563
55.7624
55.7699
55.7789
55.7891
55.8006
55.8132
55.8267
55.8412
55.8564
55.8722
55.8884
55.9048
55.9213
55.9375
55.9534
55.9686
55.9829
55.996
56.0077
56.0177
56.0258
56.0316
56.035
56.0357
56.0336
56.0284
56.0202
56.0089
55.9985
55.9916
55.9841
55.976
55.9675
55.9584
55.9487
57.5078
57.5078
55.9487
55.9584
55.9675
55.976
55.9841
55.9916
55.9985
56.0089
56.0202
56.0284
56.0336
56.0357
56.035
56.0316
56.0258
56.0177
56.0077
55.996
55.9829
55.9686
55.9534
55.9375
55.9213
55.9048
55.8884
55.8722
55.8564
55.8412
55.8267
55.8132
55.8006
55.7891
55.7789
55.7699
55.7624
55.7563
55.7516
55.7485
55.747
54.1384
54.1398
54.1425
54.1466
54.1521
54.1588
54.1667
54.1758
54.1859
54.197
54.2089
54.2216
54.2348
54.2485
54.2625
54.2766
54.2906
54.3044
54.3176
54.3301
54.3417
54.352
54.3609
54.3682
54.3735
54.3767
54.3776
54.3758
54.3714
54.3642
54.3541
54.3412
54.3298
54.3223