/*--------------------------------*- C++ -*----------------------------------*\
  =========                 |
  \\      /  F ield         | OpenFOAM: The Open Source CFD Toolbox
   \\    /   O peration     | Website:  https://openfoam.org
    \\  /    A nd           | Version:  10
     \\/     M anipulation  |
\*---------------------------------------------------------------------------*/
FoamFile
{
    format      ascii;
    class       volScalarField;
    location    "15700";
    object      p;
}
// * * * * * * * * * * * * * * * * * * * * * * * * * * * * * * * * * * * * * //

dimensions      [1 -1 -2 0 0 0 0];

internalField   nonuniform List<scalar> 
6400
(
111.421
111.44
111.477
111.534
111.611
111.711
111.835
111.987
112.172
112.398
112.679
113.038
113.891
338.152
552.599
743.377
984
1220.55
1439.21
1652.06
1857.51
2058.97
2254.97
2448.51
2642.27
2834.73
3025.01
3211.69
3395.5
3576.56
3753.64
3925.27
4042
4110.35
4174.03
4231.55
4281.15
4320.82
4348.63
4362.97
4362.97
4348.63
4320.82
4281.15
4231.55
4174.03
4110.35
4042
3925.27
3753.64
3576.56
3395.5
3211.69
3025.01
2834.73
2642.27
2448.51
2254.97
2058.97
1857.51
1652.06
1439.21
1220.55
984
743.377
552.599
338.152
113.891
113.038
112.679
112.398
112.172
111.987
111.835
111.711
111.611
111.534
111.477
111.44
111.421
111.127
111.145
111.182
111.239
111.316
111.416
111.54
111.692
111.876
112.102
112.382
112.744
113.353
113.671
259.807
447.079
690.096
927.298
1145.43
1358.36
1563.67
1765.2
1961.07
2154.5
2348.32
2540.83
2731.18
2917.82
3101.62
3282.74
3459.89
3631.72
3748.79
3817.4
3881.41
3939.34
3989.38
4029.5
4057.66
4072.2
4072.2
4057.66
4029.5
3989.38
3939.34
3881.41
3817.4
3748.79
3631.72
3459.89
3282.74
3101.62
2917.82
2731.18
2540.83
2348.32
2154.5
1961.07
1765.2
1563.67
1358.36
1145.43
927.298
690.096
447.079
259.807
113.671
113.353
112.744
112.382
112.102
111.876
111.692
111.54
111.416
111.316
111.239
111.182
111.145
111.127
110.802
110.821
110.858
110.915
110.992
111.091
111.215
111.366
111.55
111.774
112.052
112.408
112.935
113.25
113.515
118.558
367.869
606.63
823.42
1036.59
1241.55
1443.27
1638.82
1831.97
2025.97
2218.57
2409.07
2595.64
2779.43
2960.68
3137.97
3310.27
3428.12
3497.35
3562.13
3620.99
3672.08
3713.23
3742.23
3757.25
3757.25
3742.23
3713.23
3672.08
3620.99
3562.13
3497.35
3428.12
3310.27
3137.97
2960.68
2779.43
2595.64
2409.07
2218.57
2025.97
1831.97
1638.82
1443.27
1241.55
1036.59
823.42
606.63
367.869
118.558
113.515
113.25
112.935
112.408
112.052
111.774
111.55
111.366
111.215
111.091
110.992
110.915
110.858
110.821
110.802
110.445
110.464
110.501
110.557
110.634
110.733
110.856
111.007
111.189
111.411
111.684
112.03
112.49
112.811
113.11
113.754
113.616
257.484
470.368
684.14
888.382
1090.52
1285.49
1478.13
1672.47
1865.22
2056.02
2242.44
2426.19
2607.69
2785.21
2958.29
3077.49
3147.78
3213.9
3274.4
3327.35
3370.36
3400.89
3416.78
3416.78
3400.89
3370.36
3327.35
3274.4
3213.9
3147.78
3077.49
2958.29
2785.21
2607.69
2426.19
2242.44
2056.02
1865.22
1672.47
1478.13
1285.49
1090.52
888.382
684.14
470.368
257.484
113.616
113.754
113.11
112.811
112.49
112.03
111.684
111.411
111.189
111.007
110.856
110.733
110.634
110.557
110.501
110.464
110.445
110.053
110.071
110.108
110.164
110.24
110.339
110.461
110.61
110.791
111.009
111.276
111.606
112.013
112.332
112.64
113.124
113.067
113.004
113.368
298.643
501.101
704.12
898.08
1089.85
1284.83
1477.78
1669.11
1855.22
2038.92
2220.82
2398.64
2572.86
2694.14
2766.04
2834.21
2897.28
2953.23
2999.3
3032.37
3049.71
3049.71
3032.37
2999.3
2953.23
2897.28
2834.21
2766.04
2694.14
2572.86
2398.64
2220.82
2038.92
1855.22
1669.11
1477.78
1284.83
1089.85
898.08
704.12
501.101
298.643
113.368
113.004
113.067
113.124
112.64
112.332
112.013
111.606
111.276
111.009
110.791
110.61
110.461
110.339
110.24
110.164
110.108
110.071
110.053
109.62
109.638
109.675
109.731
109.807
109.904
110.025
110.172
110.35
110.564
110.822
111.134
111.497
111.807
112.108
112.481
112.5
112.488
112.623
112.483
112.811
281.804
473.286
663.592
859.788
1052.94
1245.2
1430.73
1614.3
1796.87
1974.98
2150.73
2275.01
2349.18
2420.26
2487.12
2547.7
2598.62
2635.8
2655.49
2655.49
2635.8
2598.62
2547.7
2487.12
2420.26
2349.18
2275.01
2150.73
1974.98
1796.87
1614.3
1430.73
1245.2
1052.94
859.788
663.592
473.286
281.804
112.811
112.483
112.623
112.488
112.5
112.481
112.108
111.807
111.497
111.134
110.822
110.564
110.35
110.172
110.025
109.904
109.807
109.731
109.675
109.638
109.62
109.144
109.162
109.198
109.253
109.328
109.425
109.544
109.689
109.863
110.071
110.318
110.61
110.937
111.233
111.517
111.814
111.882
111.906
111.996
111.938
112.06
111.924
112.01
195.033
393.857
587.015
780.998
965.32
1148.67
1332.37
1510.57
1688.17
1816.69
1893.8
1968.75
2041.02
2108.6
2167.22
2211.05
2234.61
2234.61
2211.05
2167.22
2108.6
2041.02
1968.75
1893.8
1816.69
1688.17
1510.57
1332.37
1148.67
965.32
780.998
587.015
393.857
195.033
112.01
111.924
112.06
111.938
111.996
111.906
111.882
111.814
111.517
111.233
110.937
110.61
110.318
110.071
109.863
109.689
109.544
109.425
109.328
109.253
109.198
109.162
109.144
108.619
108.637
108.673
108.727
108.801
108.896
109.013
109.155
109.324
109.525
109.76
110.032
110.327
110.604
110.867
111.113
111.21
111.258
111.327
111.317
111.387
111.327
111.394
111.577
111.333
111.827
274.31
455.023
637.883
823.657
1001.29
1180.83
1315.45
1395.97
1475.57
1555.2
1633.47
1704.56
1759.49
1789.56
1789.56
1759.49
1704.56
1633.47
1555.2
1475.57
1395.97
1315.45
1180.83
1001.29
823.657
637.883
455.023
274.31
111.827
111.333
111.577
111.394
111.327
111.387
111.317
111.327
111.258
111.21
111.113
110.867
110.604
110.327
110.032
109.76
109.525
109.324
109.155
109.013
108.896
108.801
108.727
108.673
108.637
108.619
108.04
108.058
108.093
108.147
108.219
108.312
108.427
108.564
108.728
108.92
109.142
109.393
109.66
109.917
110.157
110.368
110.479
110.545
110.606
110.622
110.668
110.653
110.704
110.8
110.681
110.745
110.476
110.419
111.129
268.492
442.614
623.484
767.991
851.064
935.052
1023.95
1118.82
1211.06
1285.37
1326.94
1326.94
1285.37
1211.06
1118.82
1023.95
935.052
851.064
767.991
623.484
442.614
268.492
111.129
110.419
110.476
110.745
110.681
110.8
110.704
110.653
110.668
110.622
110.606
110.545
110.479
110.368
110.157
109.917
109.66
109.393
109.142
108.92
108.728
108.564
108.427
108.312
108.219
108.147
108.093
108.058
108.04
107.403
107.42
107.454
107.507
107.578
107.668
107.779
107.912
108.069
108.251
108.459
108.69
108.932
109.166
109.384
109.57
109.687
109.764
109.824
109.856
109.893
109.9
109.939
109.989
109.929
109.928
109.772
109.726
109.83
109.562
109.482
109.71
187.694
257.334
340.542
438.546
560.402
689.855
799.459
862.425
862.425
799.459
689.855
560.402
438.546
340.542
257.334
187.694
109.71
109.482
109.562
109.83
109.726
109.772
109.928
109.929
109.989
109.939
109.9
109.893
109.856
109.824
109.764
109.687
109.57
109.384
109.166
108.932
108.69
108.459
108.251
108.069
107.912
107.779
107.668
107.578
107.507
107.454
107.42
107.403
106.699
106.716
106.75
106.8
106.869
106.957
107.064
107.191
107.341
107.512
107.705
107.915
108.134
108.347
108.543
108.71
108.828
108.911
108.973
109.013
109.048
109.068
109.098
109.124
109.092
109.068
108.974
108.931
108.947
108.797
108.734
108.783
108.687
108.643
108.642
108.694
114.972
183.792
336.333
436.283
436.283
336.333
183.792
114.972
108.694
108.642
108.643
108.687
108.783
108.734
108.797
108.947
108.931
108.974
109.068
109.092
109.124
109.098
109.068
109.048
109.013
108.973
108.911
108.828
108.71
108.543
108.347
108.134
107.915
107.705
107.512
107.341
107.191
107.064
106.957
106.869
106.8
106.75
106.716
106.699
105.923
105.939
105.972
106.021
106.087
106.171
106.273
106.395
106.535
106.695
106.873
107.064
107.261
107.452
107.629
107.78
107.895
107.981
108.045
108.091
108.127
108.151
108.176
108.19
108.172
108.145
108.084
108.044
108.023
107.934
107.882
107.881
107.836
107.816
107.814
107.831
107.851
108.062
121.411
173.817
173.817
121.411
108.062
107.851
107.831
107.814
107.816
107.836
107.881
107.882
107.934
108.023
108.044
108.084
108.145
108.172
108.19
108.176
108.151
108.127
108.091
108.045
107.981
107.895
107.78
107.629
107.452
107.261
107.064
106.873
106.695
106.535
106.395
106.273
106.171
106.087
106.021
105.972
105.939
105.923
105.066
105.082
105.113
105.16
105.223
105.303
105.4
105.514
105.646
105.794
105.956
106.128
106.304
106.476
106.634
106.772
106.882
106.967
107.033
107.082
107.119
107.147
107.168
107.178
107.167
107.142
107.101
107.065
107.033
106.974
106.932
106.913
106.888
106.878
106.875
106.88
106.89
106.938
108.141
118.427
118.427
108.141
106.938
106.89
106.88
106.875
106.878
106.888
106.913
106.932
106.974
107.033
107.065
107.101
107.142
107.167
107.178
107.168
107.147
107.119
107.082
107.033
106.967
106.882
106.772
106.634
106.476
106.304
106.128
105.956
105.794
105.646
105.514
105.4
105.303
105.223
105.16
105.113
105.082
105.066
104.12
104.135
104.165
104.21
104.27
104.345
104.436
104.542
104.664
104.799
104.946
105.1
105.257
105.41
105.552
105.677
105.781
105.864
105.93
105.98
106.019
106.047
106.067
106.075
106.069
106.05
106.02
105.989
105.957
105.915
105.88
105.857
105.841
105.833
105.829
105.828
105.83
105.838
106.003
110.066
110.066
106.003
105.838
105.83
105.828
105.829
105.833
105.841
105.857
105.88
105.915
105.957
105.989
106.02
106.05
106.069
106.075
106.067
106.047
106.019
105.98
105.93
105.864
105.781
105.677
105.552
105.41
105.257
105.1
104.946
104.799
104.664
104.542
104.436
104.345
104.27
104.21
104.165
104.135
104.12
103.076
103.09
103.118
103.16
103.216
103.286
103.371
103.469
103.58
103.702
103.834
103.972
104.111
104.247
104.373
104.486
104.583
104.663
104.727
104.777
104.816
104.845
104.865
104.873
104.87
104.857
104.835
104.81
104.782
104.75
104.721
104.699
104.685
104.678
104.673
104.669
104.666
104.662
104.654
107.134
107.134
104.654
104.662
104.666
104.669
104.673
104.678
104.685
104.699
104.721
104.75
104.782
104.81
104.835
104.857
104.87
104.873
104.865
104.845
104.816
104.777
104.727
104.663
104.583
104.486
104.373
104.247
104.111
103.972
103.834
103.702
103.58
103.469
103.371
103.286
103.216
103.16
103.118
103.09
103.076
101.922
101.935
101.961
102
102.052
102.117
102.194
102.284
102.384
102.494
102.611
102.733
102.856
102.976
103.088
103.19
103.279
103.353
103.415
103.465
103.504
103.533
103.552
103.562
103.562
103.553
103.538
103.518
103.495
103.47
103.446
103.426
103.414
103.407
103.401
103.396
103.39
103.385
103.373
105.465
105.465
103.373
103.385
103.39
103.396
103.401
103.407
103.414
103.426
103.446
103.47
103.495
103.518
103.538
103.553
103.562
103.562
103.552
103.533
103.504
103.465
103.415
103.353
103.279
103.19
103.088
102.976
102.856
102.733
102.611
102.494
102.384
102.284
102.194
102.117
102.052
102
101.961
101.935
101.922
100.567
100.579
100.603
100.638
100.685
100.744
100.813
100.893
100.982
101.079
101.182
101.288
101.395
101.499
101.597
101.687
101.767
101.836
101.894
101.942
101.98
102.008
102.028
102.039
102.042
102.038
102.028
102.013
101.995
101.976
101.957
101.939
101.928
101.921
101.915
101.909
101.903
101.898
101.886
103.928
103.928
101.886
101.898
101.903
101.909
101.915
101.921
101.928
101.939
101.957
101.976
101.995
102.013
102.028
102.038
102.042
102.039
102.028
102.008
101.98
101.942
101.894
101.836
101.767
101.687
101.597
101.499
101.395
101.288
101.182
101.079
100.982
100.893
100.813
100.744
100.685
100.638
100.603
100.579
100.567
99.0599
99.0706
99.092
99.1239
99.166
99.2182
99.2798
99.35
99.428
99.5124
99.6014
99.6931
99.7851
99.875
99.9605
100.04
100.111
100.174
100.227
100.272
100.308
100.336
100.356
100.368
100.373
100.373
100.366
100.356
100.343
100.328
100.312
100.297
100.286
100.28
100.274
100.268
100.262
100.257
100.245
102.331
102.331
100.245
100.257
100.262
100.268
100.274
100.28
100.286
100.297
100.312
100.328
100.343
100.356
100.366
100.373
100.373
100.368
100.356
100.336
100.308
100.272
100.227
100.174
100.111
100.04
99.9605
99.875
99.7851
99.6931
99.6014
99.5124
99.428
99.35
99.2798
99.2182
99.166
99.1239
99.092
99.0706
99.0599
97.5422
97.5518
97.5709
97.5994
97.6369
97.6831
97.7375
97.7993
97.8675
97.9411
98.0184
98.0978
98.1776
98.2557
98.3303
98.4
98.4634
98.5198
98.5688
98.6102
98.6442
98.6709
98.6907
98.7038
98.7108
98.7123
98.7091
98.702
98.6921
98.6802
98.6672
98.6538
98.6442
98.6383
98.6324
98.6266
98.6209
98.6151
98.6033
100.751
100.751
98.6033
98.6151
98.6209
98.6266
98.6324
98.6383
98.6442
98.6538
98.6672
98.6802
98.6921
98.702
98.7091
98.7123
98.7108
98.7038
98.6907
98.6709
98.6442
98.6102
98.5688
98.5198
98.4634
98.4
98.3303
98.2557
98.1776
98.0978
98.0184
97.9411
97.8675
97.7993
97.7375
97.6831
97.6369
97.5994
97.5709
97.5518
97.5422
96.015
96.0235
96.0405
96.0658
96.099
96.1399
96.1878
96.2421
96.3018
96.366
96.4333
96.5024
96.5717
96.6398
96.7051
96.7665
96.8229
96.8736
96.9181
96.9561
96.9878
97.0131
97.0323
97.0457
97.0537
97.0568
97.0556
97.0509
97.0434
97.0337
97.0227
97.0107
97.0018
96.9962
96.9905
96.9848
96.9791
96.9734
96.9616
99.1777
99.1777
96.9616
96.9734
96.9791
96.9848
96.9905
96.9962
97.0018
97.0107
97.0227
97.0337
97.0434
97.0509
97.0556
97.0568
97.0537
97.0457
97.0323
97.0131
96.9878
96.9561
96.9181
96.8736
96.8229
96.7665
96.7051
96.6398
96.5717
96.5024
96.4333
96.366
96.3018
96.2421
96.1878
96.1399
96.099
96.0658
96.0405
96.0235
96.015
94.4792
94.4867
94.5018
94.5242
94.5536
94.5896
94.6317
94.6794
94.7316
94.7877
94.8464
94.9066
94.9671
95.0266
95.0839
95.1381
95.1882
95.2335
95.2737
95.3085
95.3377
95.3614
95.3798
95.393
95.4015
95.4055
95.4057
95.4026
95.3967
95.3887
95.379
95.3682
95.3597
95.3543
95.3488
95.3433
95.3376
95.3318
95.32
97.6112
97.6112
95.32
95.3318
95.3376
95.3433
95.3488
95.3543
95.3597
95.3682
95.379
95.3887
95.3967
95.4026
95.4057
95.4055
95.4015
95.393
95.3798
95.3614
95.3377
95.3085
95.2737
95.2335
95.1882
95.1381
95.0839
95.0266
94.9671
94.9066
94.8464
94.7877
94.7316
94.6794
94.6317
94.5896
94.5536
94.5242
94.5018
94.4867
94.4792
92.9358
92.9425
92.9558
92.9756
93.0015
93.0332
93.0702
93.112
93.1578
93.2067
93.258
93.3106
93.3634
93.4155
93.4659
93.5137
93.5581
93.5987
93.6348
93.6663
93.6931
93.7151
93.7324
93.7451
93.7536
93.7582
93.7592
93.757
93.7523
93.7453
93.7366
93.7265
93.7183
93.7131
93.7077
93.7022
93.6965
93.6906
93.6789
96.052
96.052
93.6789
93.6906
93.6965
93.7022
93.7077
93.7131
93.7183
93.7265
93.7366
93.7453
93.7523
93.757
93.7592
93.7582
93.7536
93.7451
93.7324
93.7151
93.6931
93.6663
93.6348
93.5987
93.5581
93.5137
93.4659
93.4155
93.3634
93.3106
93.258
93.2067
93.1578
93.112
93.0702
93.0332
93.0015
92.9756
92.9558
92.9425
92.9358
91.3857
91.3916
91.4034
91.4208
91.4436
91.4715
91.504
91.5406
91.5807
91.6235
91.6683
91.7143
91.7605
91.8062
91.8505
91.8926
91.932
91.9681
92.0005
92.029
92.0533
92.0735
92.0895
92.1015
92.1097
92.1143
92.1157
92.1141
92.11
92.1037
92.0956
92.0859
92.0779
92.0728
92.0675
92.0619
92.0562
92.0502
92.0384
94.5012
94.5012
92.0384
92.0502
92.0562
92.0619
92.0675
92.0728
92.0779
92.0859
92.0956
92.1037
92.11
92.1141
92.1157
92.1143
92.1097
92.1015
92.0895
92.0735
92.0533
92.029
92.0005
91.9681
91.932
91.8926
91.8505
91.8062
91.7605
91.7143
91.6683
91.6235
91.5807
91.5406
91.504
91.4715
91.4436
91.4208
91.4034
91.3916
91.3857
89.8297
89.8349
89.8453
89.8606
89.8806
89.9051
89.9336
89.9657
90.0008
90.0383
90.0775
90.1177
90.1582
90.1983
90.2372
90.2744
90.3092
90.3413
90.3702
90.3957
90.4177
90.436
90.4506
90.4617
90.4693
90.4737
90.4751
90.4738
90.47
90.464
90.4562
90.4467
90.4388
90.4336
90.4283
90.4227
90.4168
90.4108
90.3989
92.9603
92.9603
90.3989
90.4108
90.4168
90.4227
90.4283
90.4336
90.4388
90.4467
90.4562
90.464
90.47
90.4738
90.4751
90.4737
90.4693
90.4617
90.4506
90.436
90.4177
90.3957
90.3702
90.3413
90.3092
90.2744
90.2372
90.1983
90.1582
90.1177
90.0775
90.0383
90.0008
89.9657
89.9336
89.9051
89.8806
89.8606
89.8453
89.8349
89.8297
88.2686
88.2731
88.2822
88.2957
88.3133
88.3347
88.3597
88.3878
88.4185
88.4514
88.4857
88.5209
88.5563
88.5915
88.6257
88.6584
88.6892
88.7176
88.7433
88.766
88.7857
88.8021
88.8153
88.8253
88.8322
88.8361
88.8373
88.8358
88.8321
88.8262
88.8183
88.8088
88.8009
88.7957
88.7902
88.7845
88.7786
88.7724
88.7605
91.4308
91.4308
88.7605
88.7724
88.7786
88.7845
88.7902
88.7957
88.8009
88.8088
88.8183
88.8262
88.8321
88.8358
88.8373
88.8361
88.8322
88.8253
88.8153
88.8021
88.7857
88.766
88.7433
88.7176
88.6892
88.6584
88.6257
88.5915
88.5563
88.5209
88.4857
88.4514
88.4185
88.3878
88.3597
88.3347
88.3133
88.2957
88.2822
88.2731
88.2686
86.7028
86.7068
86.7148
86.7266
86.742
86.7608
86.7827
86.8073
86.8342
86.8629
86.8929
86.9237
86.9548
86.9856
87.0156
87.0444
87.0715
87.0966
87.1193
87.1395
87.1569
87.1715
87.1832
87.1921
87.1981
87.2013
87.202
87.2003
87.1963
87.1902
87.1822
87.1725
87.1644
87.1591
87.1535
87.1477
87.1416
87.1352
87.1232
89.9147
89.9147
87.1232
87.1352
87.1416
87.1477
87.1535
87.1591
87.1644
87.1725
87.1822
87.1902
87.1963
87.2003
87.202
87.2013
87.1981
87.1921
87.1832
87.1715
87.1569
87.1395
87.1193
87.0966
87.0715
87.0444
87.0156
86.9856
86.9548
86.9237
86.8929
86.8629
86.8342
86.8073
86.7827
86.7608
86.742
86.7266
86.7148
86.7068
86.7028
85.133
85.1365
85.1435
85.1539
85.1674
85.1839
85.203
85.2245
85.2481
85.2732
85.2994
85.3263
85.3535
85.3805
85.4068
85.432
85.4558
85.4779
85.4979
85.5157
85.531
85.5438
85.554
85.5616
85.5666
85.5691
85.5692
85.567
85.5626
85.5561
85.5478
85.5378
85.5294
85.524
85.5182
85.5122
85.5059
85.4993
85.4871
88.4144
88.4144
85.4871
85.4993
85.5059
85.5122
85.5182
85.524
85.5294
85.5378
85.5478
85.5561
85.5626
85.567
85.5692
85.5691
85.5666
85.5616
85.554
85.5438
85.531
85.5157
85.4979
85.4779
85.4558
85.432
85.4068
85.3805
85.3535
85.3263
85.2994
85.2732
85.2481
85.2245
85.203
85.1839
85.1674
85.1539
85.1435
85.1365
85.133
83.5597
83.5628
83.5689
83.578
83.5898
83.6042
83.621
83.6398
83.6603
83.6822
83.7052
83.7287
83.7525
83.776
83.799
83.8211
83.842
83.8613
83.8788
83.8943
83.9076
83.9187
83.9274
83.9338
83.9377
83.9393
83.9387
83.9358
83.9309
83.924
83.9152
83.9047
83.8959
83.8902
83.8843
83.878
83.8715
83.8647
83.8523
86.9327
86.9327
83.8523
83.8647
83.8715
83.878
83.8843
83.8902
83.8959
83.9047
83.9152
83.924
83.9309
83.9358
83.9387
83.9393
83.9377
83.9338
83.9274
83.9187
83.9076
83.8943
83.8788
83.8613
83.842
83.8211
83.799
83.776
83.7525
83.7287
83.7052
83.6822
83.6603
83.6398
83.621
83.6042
83.5898
83.578
83.5689
83.5628
83.5597
81.9833
81.986
81.9914
81.9993
82.0096
82.0222
82.0368
82.0533
82.0712
82.0903
82.1103
82.1309
82.1516
82.1722
82.1922
82.2115
82.2296
82.2464
82.2616
82.275
82.2865
82.2959
82.3032
82.3083
82.3112
82.3118
82.3104
82.3068
82.3012
82.2936
82.2842
82.2731
82.2639
82.258
82.2517
82.2452
82.2384
82.2314
82.2188
85.4734
85.4734
82.2188
82.2314
82.2384
82.2452
82.2517
82.258
82.2639
82.2731
82.2842
82.2936
82.3012
82.3068
82.3104
82.3118
82.3112
82.3083
82.3032
82.2959
82.2865
82.275
82.2616
82.2464
82.2296
82.2115
82.1922
82.1722
82.1516
82.1309
82.1103
82.0903
82.0712
82.0533
82.0368
82.0222
82.0096
81.9993
81.9914
81.986
81.9833
80.4042
80.4066
80.4112
80.4182
80.4272
80.4382
80.4509
80.4653
80.4809
80.4976
80.515
80.5329
80.5509
80.5688
80.5862
80.6029
80.6186
80.6332
80.6462
80.6577
80.6674
80.6753
80.6812
80.685
80.6868
80.6865
80.6842
80.6798
80.6734
80.6652
80.655
80.6432
80.6335
80.6272
80.6206
80.6138
80.6067
80.5993
80.5865
84.0413
84.0413
80.5865
80.5993
80.6067
80.6138
80.6206
80.6272
80.6335
80.6432
80.655
80.6652
80.6734
80.6798
80.6842
80.6865
80.6868
80.685
80.6812
80.6753
80.6674
80.6577
80.6462
80.6332
80.6186
80.6029
80.5862
80.5688
80.5509
80.5329
80.515
80.4976
80.4809
80.4653
80.4509
80.4382
80.4272
80.4182
80.4112
80.4066
80.4042
78.8228
78.8248
78.8289
78.8349
78.8428
78.8524
78.8635
78.8759
78.8895
78.904
78.9192
78.9347
78.9503
78.9658
78.9809
78.9953
79.0089
79.0213
79.0325
79.0422
79.0503
79.0566
79.0611
79.0638
79.0645
79.0632
79.06
79.0547
79.0476
79.0385
79.0276
79.0149
79.0046
78.9979
78.9909
78.9837
78.9762
78.9684
78.9553
82.6426
82.6426
78.9553
78.9684
78.9762
78.9837
78.9909
78.9979
79.0046
79.0149
79.0276
79.0385
79.0476
79.0547
79.06
79.0632
79.0645
79.0638
79.0611
79.0566
79.0503
79.0422
79.0325
79.0213
79.0089
78.9953
78.9809
78.9658
78.9503
78.9347
78.9192
78.904
78.8895
78.8759
78.8635
78.8524
78.8428
78.8349
78.8289
78.8248
78.8228
77.2393
77.2411
77.2446
77.2498
77.2567
77.265
77.2746
77.2855
77.2973
77.3098
77.3229
77.3364
77.3499
77.3633
77.3763
77.3887
77.4002
77.4108
77.4202
77.4282
77.4348
77.4398
77.443
77.4445
77.4442
77.4419
77.4378
77.4317
77.4236
77.4137
77.4019
77.3882
77.3772
77.37
77.3626
77.3549
77.347
77.3388
77.3253
81.286
81.286
77.3253
77.3388
77.347
77.3549
77.3626
77.37
77.3772
77.3882
77.4019
77.4137
77.4236
77.4317
77.4378
77.4419
77.4442
77.4445
77.443
77.4398
77.4348
77.4282
77.4202
77.4108
77.4002
77.3887
77.3763
77.3633
77.3499
77.3364
77.3229
77.3098
77.2973
77.2855
77.2746
77.265
77.2567
77.2498
77.2446
77.2411
77.2393
75.654
75.6555
75.6586
75.6632
75.6691
75.6763
75.6847
75.694
75.7042
75.7151
75.7264
75.738
75.7496
75.7611
75.7722
75.7828
75.7926
75.8015
75.8092
75.8158
75.8209
75.8246
75.8267
75.8271
75.8257
75.8225
75.8175
75.8105
75.8016
75.7908
75.778
75.7633
75.7514
75.7437
75.7357
75.7275
75.719
75.7102
75.6963
79.9831
79.9831
75.6963
75.7102
75.719
75.7275
75.7357
75.7437
75.7514
75.7633
75.778
75.7908
75.8016
75.8105
75.8175
75.8225
75.8257
75.8271
75.8267
75.8246
75.8209
75.8158
75.8092
75.8015
75.7926
75.7828
75.7722
75.7611
75.7496
75.738
75.7264
75.7151
75.7042
75.694
75.6847
75.6763
75.6691
75.6632
75.6586
75.6555
75.654
74.0672
74.0685
74.0712
74.0751
74.0802
74.0865
74.0937
74.1018
74.1106
74.1199
74.1296
74.1396
74.1495
74.1593
74.1687
74.1777
74.1859
74.1932
74.1995
74.2047
74.2086
74.2111
74.212
74.2114
74.2091
74.205
74.1991
74.1913
74.1815
74.1698
74.156
74.1401
74.1272
74.1189
74.1103
74.1014
74.0921
74.0827
74.0683
78.747
78.747
74.0683
74.0827
74.0921
74.1014
74.1103
74.1189
74.1272
74.1401
74.156
74.1698
74.1815
74.1913
74.1991
74.205
74.2091
74.2114
74.212
74.2111
74.2086
74.2047
74.1995
74.1932
74.1859
74.1777
74.1687
74.1593
74.1495
74.1396
74.1296
74.1199
74.1106
74.1018
74.0937
74.0865
74.0802
74.0751
74.0712
74.0685
74.0672
72.479
72.4801
72.4824
72.4858
72.4902
72.4956
72.5018
72.5088
72.5163
72.5243
72.5327
72.5411
72.5496
72.5579
72.5658
72.5732
72.58
72.586
72.591
72.5949
72.5976
72.599
72.599
72.5974
72.5942
72.5893
72.5826
72.5741
72.5635
72.5508
72.536
72.5189
72.5049
72.4959
72.4865
72.4767
72.4665
72.4561
72.4409
77.5881
77.5881
72.4409
72.4561
72.4665
72.4767
72.4865
72.4959
72.5049
72.5189
72.536
72.5508
72.5635
72.5741
72.5826
72.5893
72.5942
72.5974
72.599
72.599
72.5976
72.5949
72.591
72.586
72.58
72.5732
72.5658
72.5579
72.5496
72.5411
72.5327
72.5243
72.5163
72.5088
72.5018
72.4956
72.4902
72.4858
72.4824
72.4801
72.479
70.8897
70.8907
70.8926
70.8955
70.8993
70.9039
70.9092
70.9152
70.9216
70.9285
70.9355
70.9427
70.9498
70.9568
70.9634
70.9695
70.975
70.9797
70.9835
70.9863
70.988
70.9884
70.9875
70.9851
70.9811
70.9755
70.9681
70.9588
70.9475
70.934
70.9183
70.9
70.8848
70.875
70.8646
70.8537
70.8423
70.8306
70.8143
76.4876
76.4876
70.8143
70.8306
70.8423
70.8537
70.8646
70.875
70.8848
70.9
70.9183
70.934
70.9475
70.9588
70.9681
70.9755
70.9811
70.9851
70.9875
70.9884
70.988
70.9863
70.9835
70.9797
70.975
70.9695
70.9634
70.9568
70.9498
70.9427
70.9355
70.9285
70.9216
70.9152
70.9092
70.9039
70.8993
70.8955
70.8926
70.8907
70.8897
69.2993
69.3002
69.3019
69.3044
69.3076
69.3115
69.316
69.3211
69.3266
69.3323
69.3383
69.3443
69.3502
69.356
69.3614
69.3663
69.3707
69.3743
69.377
69.3789
69.3796
69.3791
69.3774
69.3742
69.3696
69.3634
69.3554
69.3455
69.3337
69.3196
69.303
69.2837
69.2674
69.2567
69.2453
69.2331
69.2202
69.2065
69.1884
75.2706
75.2706
69.1884
69.2065
69.2202
69.2331
69.2453
69.2567
69.2674
69.2837
69.303
69.3196
69.3337
69.3455
69.3554
69.3634
69.3696
69.3742
69.3774
69.3791
69.3796
69.3789
69.377
69.3743
69.3707
69.3663
69.3614
69.356
69.3502
69.3443
69.3383
69.3323
69.3266
69.3211
69.316
69.3115
69.3076
69.3044
69.3019
69.3002
69.2993
67.7082
67.7089
67.7103
67.7124
67.7152
67.7185
67.7223
67.7266
67.7312
67.736
67.741
67.746
67.7509
67.7556
67.7599
67.7638
67.7671
67.7697
67.7716
67.7725
67.7724
67.7712
67.7687
67.7649
67.7597
67.753
67.7446
67.7343
67.7221
67.7076
67.6906
67.6706
67.6535
67.6422
67.6299
67.6165
67.6018
67.5856
67.5647
73.1242
73.1242
67.5647
67.5856
67.6018
67.6165
67.6299
67.6422
67.6535
67.6706
67.6906
67.7076
67.7221
67.7343
67.7446
67.753
67.7597
67.7649
67.7687
67.7712
67.7724
67.7725
67.7716
67.7697
67.7671
67.7638
67.7599
67.7556
67.7509
67.746
67.741
67.736
67.7312
67.7266
67.7223
67.7185
67.7152
67.7124
67.7103
67.7089
67.7082
66.1163
66.1169
66.1181
66.1199
66.1222
66.125
66.1282
66.1317
66.1356
66.1396
66.1437
66.1478
66.1517
66.1555
66.1589
66.1618
66.1642
66.166
66.167
66.1671
66.1663
66.1644
66.1614
66.1571
66.1514
66.1443
66.1356
66.1251
66.1127
66.0981
66.0811
66.0611
66.044
66.0325
66.02
66.0062
65.9908
65.9732
65.9509
67.8228
67.8228
65.9509
65.9732
65.9908
66.0062
66.02
66.0325
66.044
66.0611
66.0811
66.0981
66.1127
66.1251
66.1356
66.1443
66.1514
66.1571
66.1614
66.1644
66.1663
66.1671
66.167
66.166
66.1642
66.1618
66.1589
66.1555
66.1517
66.1478
66.1437
66.1396
66.1356
66.1317
66.1282
66.125
66.1222
66.1199
66.1181
66.1169
66.1163
64.5238
64.5243
64.5253
64.5268
64.5287
64.531
64.5337
64.5366
64.5398
64.5431
64.5464
64.5497
64.5528
64.5557
64.5583
64.5604
64.562
64.563
64.5633
64.5627
64.5613
64.5588
64.5553
64.5506
64.5446
64.5372
64.5283
64.5178
64.5055
64.4912
64.4746
64.4553
64.439
64.4282
64.4166
64.4043
64.3912
64.378
64.368
64.3624
64.3624
64.368
64.378
64.3912
64.4043
64.4166
64.4282
64.439
64.4553
64.4746
64.4912
64.5055
64.5178
64.5283
64.5372
64.5446
64.5506
64.5553
64.5588
64.5613
64.5627
64.5633
64.563
64.562
64.5604
64.5583
64.5557
64.5528
64.5497
64.5464
64.5431
64.5398
64.5366
64.5337
64.531
64.5287
64.5268
64.5253
64.5243
64.5238
62.9307
62.9312
62.932
62.9332
62.9348
62.9367
62.9389
62.9413
62.9439
62.9465
62.9491
62.9517
62.9541
62.9563
62.9581
62.9595
62.9604
62.9607
62.9604
62.9592
62.9572
62.9543
62.9504
62.9453
62.9391
62.9316
62.9227
62.9123
62.9003
62.8865
62.8708
62.8527
62.8378
62.8279
62.8173
62.8056
62.7925
62.777
62.763
62.7603
62.7603
62.763
62.777
62.7925
62.8056
62.8173
62.8279
62.8378
62.8527
62.8708
62.8865
62.9003
62.9123
62.9227
62.9316
62.9391
62.9453
62.9504
62.9543
62.9572
62.9592
62.9604
62.9607
62.9604
62.9595
62.9581
62.9563
62.9541
62.9517
62.9491
62.9465
62.9439
62.9413
62.9389
62.9367
62.9348
62.9332
62.932
62.9312
62.9307
61.3375
61.3379
61.3385
61.3395
61.3408
61.3424
61.3441
61.346
61.3481
61.3501
61.3522
61.3541
61.3559
61.3574
61.3586
61.3594
61.3597
61.3594
61.3585
61.3568
61.3544
61.3511
61.3468
61.3415
61.3351
61.3276
61.3188
61.3087
61.2971
61.2841
61.2694
61.2531
61.2401
61.2318
61.2233
61.2146
61.206
61.1979
61.1914
61.1888
61.1888
61.1914
61.1979
61.206
61.2146
61.2233
61.2318
61.2401
61.2531
61.2694
61.2841
61.2971
61.3087
61.3188
61.3276
61.3351
61.3415
61.3468
61.3511
61.3544
61.3568
61.3585
61.3594
61.3597
61.3594
61.3586
61.3574
61.3559
61.3541
61.3522
61.3501
61.3481
61.346
61.3441
61.3424
61.3408
61.3395
61.3385
61.3379
61.3375
59.7439
59.7442
59.7448
59.7456
59.7466
59.7478
59.7492
59.7507
59.7522
59.7538
59.7553
59.7567
59.7579
59.7588
59.7595
59.7597
59.7594
59.7587
59.7573
59.7552
59.7524
59.7487
59.7442
59.7388
59.7323
59.7248
59.7162
59.7064
59.6954
59.6832
59.6698
59.6552
59.644
59.637
59.6301
59.6232
59.6166
59.6105
59.605
59.6025
59.6025
59.605
59.6105
59.6166
59.6232
59.6301
59.637
59.644
59.6552
59.6698
59.6832
59.6954
59.7064
59.7162
59.7248
59.7323
59.7388
59.7442
59.7487
59.7524
59.7552
59.7573
59.7587
59.7594
59.7597
59.7595
59.7588
59.7579
59.7567
59.7553
59.7538
59.7522
59.7507
59.7492
59.7478
59.7466
59.7456
59.7448
59.7442
59.7439
58.1501
58.1503
58.1507
58.1514
58.1521
58.1531
58.1541
58.1553
58.1564
58.1575
58.1586
58.1595
58.1602
58.1606
58.1607
58.1605
58.1598
58.1586
58.1568
58.1543
58.1512
58.1473
58.1426
58.1371
58.1306
58.1232
58.1148
58.1054
58.095
58.0836
58.0712
58.0581
58.0483
58.0423
58.0363
58.0304
58.0247
58.0193
58.0142
58.0118
58.0118
58.0142
58.0193
58.0247
58.0304
58.0363
58.0423
58.0483
58.0581
58.0712
58.0836
58.095
58.1054
58.1148
58.1232
58.1306
58.1371
58.1426
58.1473
58.1512
58.1543
58.1568
58.1586
58.1598
58.1605
58.1607
58.1606
58.1602
58.1595
58.1586
58.1575
58.1564
58.1553
58.1541
58.1531
58.1521
58.1514
58.1507
58.1503
58.1501
56.556
56.5562
56.5565
56.557
56.5576
56.5583
56.559
56.5598
56.5606
56.5613
56.5619
56.5624
56.5627
56.5627
56.5624
56.5617
56.5606
56.559
56.5569
56.5541
56.5508
56.5467
56.5418
56.5362
56.5298
56.5225
56.5144
56.5054
56.4955
56.4848
56.4735
56.4615
56.4527
56.4473
56.4419
56.4366
56.4315
56.4264
56.4215
56.4191
56.4191
56.4215
56.4264
56.4315
56.4366
56.4419
56.4473
56.4527
56.4615
56.4735
56.4848
56.4955
56.5054
56.5144
56.5225
56.5298
56.5362
56.5418
56.5467
56.5508
56.5541
56.5569
56.559
56.5606
56.5617
56.5624
56.5627
56.5627
56.5624
56.5619
56.5613
56.5606
56.5598
56.559
56.5583
56.5576
56.557
56.5565
56.5562
56.556
54.9618
54.9619
54.9621
54.9625
54.9629
54.9634
54.9639
54.9644
54.9648
54.9652
54.9655
54.9656
54.9655
54.9651
54.9645
54.9634
54.962
54.96
54.9576
54.9546
54.951
54.9468
54.9419
54.9362
54.9299
54.9227
54.9148
54.9062
54.8968
54.8868
54.8762
54.8652
54.8571
54.8521
54.8472
54.8423
54.8374
54.8326
54.8279
54.8255
54.8255
54.8279
54.8326
54.8374
54.8423
54.8472
54.8521
54.8571
54.8652
54.8762
54.8868
54.8968
54.9062
54.9148
54.9227
54.9299
54.9362
54.9419
54.9468
54.951
54.9546
54.9576
54.96
54.962
54.9634
54.9645
54.9651
54.9655
54.9656
54.9655
54.9652
54.9648
54.9644
54.9639
54.9634
54.9629
54.9625
54.9621
54.9619
54.9618
53.3675
53.3675
53.3677
53.3679
53.3681
53.3684
53.3687
53.3689
53.3691
53.3692
53.3692
53.369
53.3686
53.3679
53.3669
53.3655
53.3638
53.3616
53.3589
53.3557
53.3519
53.3476
53.3426
53.337
53.3307
53.3237
53.3161
53.3078
53.2988
53.2894
53.2794
53.2691
53.2615
53.2569
53.2522
53.2475
53.2429
53.2383
53.2337
53.2314
53.2314
53.2337