/*--------------------------------*- C++ -*----------------------------------*\
  =========                 |
  \\      /  F ield         | OpenFOAM: The Open Source CFD Toolbox
   \\    /   O peration     | Website:  https://openfoam.org
    \\  /    A nd           | Version:  10
     \\/     M anipulation  |
\*---------------------------------------------------------------------------*/
FoamFile
{
    format      ascii;
    class       volScalarField;
    location    "0.093";
    object      pPrime2Mean;
}
// * * * * * * * * * * * * * * * * * * * * * * * * * * * * * * * * * * * * * //

dimensions      [0 4 -4 0 0 0 0];

internalField   nonuniform List<scalar> 
12225
(
4.65888e+06
4.58601e+06
4.51078e+06
4.43789e+06
4.36762e+06
4.29984e+06
4.23441e+06
4.17119e+06
4.11e+06
4.05063e+06
3.99286e+06
3.93642e+06
3.88099e+06
3.82615e+06
3.77133e+06
3.71563e+06
3.65742e+06
3.59259e+06
4.65901e+06
4.58607e+06
4.51083e+06
4.43794e+06
4.36767e+06
4.29989e+06
4.23447e+06
4.17126e+06
4.11008e+06
4.05073e+06
3.99299e+06
3.93659e+06
3.88122e+06
3.82647e+06
3.77181e+06
3.7164e+06
3.65888e+06
3.59624e+06
4.65922e+06
4.58619e+06
4.51094e+06
4.43805e+06
4.36778e+06
4.30001e+06
4.23461e+06
4.17143e+06
4.11028e+06
4.05097e+06
3.99329e+06
3.93697e+06
3.88172e+06
3.82717e+06
3.77283e+06
3.71803e+06
3.6618e+06
3.60299e+06
4.65947e+06
4.58639e+06
4.51112e+06
4.43823e+06
4.36797e+06
4.30022e+06
4.23484e+06
4.17169e+06
4.1106e+06
4.05136e+06
3.99377e+06
3.9376e+06
3.88255e+06
3.82831e+06
3.77447e+06
3.72056e+06
3.66608e+06
3.61109e+06
4.65977e+06
4.58668e+06
4.5114e+06
4.43851e+06
4.36825e+06
4.30052e+06
4.23518e+06
4.17209e+06
4.11106e+06
4.05193e+06
3.99449e+06
3.93851e+06
3.88375e+06
3.82993e+06
3.77676e+06
3.72396e+06
3.67143e+06
3.61983e+06
4.66022e+06
4.58709e+06
4.51178e+06
4.43888e+06
4.36864e+06
4.30094e+06
4.23565e+06
4.17263e+06
4.11171e+06
4.05271e+06
3.99546e+06
3.93974e+06
3.88535e+06
3.83208e+06
3.77972e+06
3.72818e+06
3.67761e+06
3.62887e+06
4.6608e+06
4.58761e+06
4.51228e+06
4.43937e+06
4.36915e+06
4.30149e+06
4.23626e+06
4.17334e+06
4.11255e+06
4.05374e+06
3.99672e+06
3.94133e+06
3.8874e+06
3.83476e+06
3.78333e+06
3.73312e+06
3.68444e+06
3.63807e+06
4.66147e+06
4.58829e+06
4.51293e+06
4.44001e+06
4.3698e+06
4.30219e+06
4.23705e+06
4.17424e+06
4.11362e+06
4.05503e+06
3.99831e+06
3.94332e+06
3.88991e+06
3.838e+06
3.78756e+06
3.7387e+06
3.69174e+06
3.64735e+06
4.66243e+06
4.58916e+06
4.51374e+06
4.44081e+06
4.37062e+06
4.30307e+06
4.23803e+06
4.17537e+06
4.11495e+06
4.05662e+06
4.00025e+06
3.94571e+06
3.89291e+06
3.84179e+06
3.79237e+06
3.74481e+06
3.69942e+06
3.65668e+06
4.66354e+06
4.59024e+06
4.51475e+06
4.44179e+06
4.37163e+06
4.30415e+06
4.23923e+06
4.17674e+06
4.11655e+06
4.05853e+06
4.00256e+06
3.94853e+06
3.89639e+06
3.84609e+06
3.79771e+06
3.75139e+06
3.70738e+06
3.66603e+06
4.66519e+06
4.59159e+06
4.51598e+06
4.44298e+06
4.37284e+06
4.30545e+06
4.24067e+06
4.17838e+06
4.11846e+06
4.06079e+06
4.00526e+06
3.95179e+06
3.90034e+06
3.85089e+06
3.80352e+06
3.75834e+06
3.71556e+06
3.6754e+06
4.6667e+06
4.59307e+06
4.51734e+06
4.44429e+06
4.37417e+06
4.30686e+06
4.24223e+06
4.18015e+06
4.12051e+06
4.0632e+06
4.00811e+06
3.95518e+06
3.90438e+06
3.85571e+06
3.80922e+06
3.76501e+06
3.72322e+06
3.68399e+06
4.66884e+06
4.59479e+06
4.51889e+06
4.44578e+06
4.37568e+06
4.30846e+06
4.24399e+06
4.18214e+06
4.1228e+06
4.06586e+06
4.01123e+06
3.95886e+06
3.90872e+06
3.86079e+06
3.81514e+06
3.77182e+06
3.73091e+06
3.6925e+06
4.67164e+06
4.5971e+06
4.52095e+06
4.44774e+06
4.37766e+06
4.31056e+06
4.24629e+06
4.18472e+06
4.12575e+06
4.06926e+06
4.01519e+06
3.96346e+06
3.91405e+06
3.86696e+06
3.82219e+06
3.77978e+06
3.73977e+06
3.70217e+06
4.67528e+06
4.60011e+06
4.52363e+06
4.4503e+06
4.38025e+06
4.31329e+06
4.24926e+06
4.18804e+06
4.12951e+06
4.07356e+06
4.02012e+06
3.96912e+06
3.92052e+06
3.87431e+06
3.83046e+06
3.78897e+06
3.74984e+06
3.71303e+06
4.67983e+06
4.60397e+06
4.52708e+06
4.45359e+06
4.38357e+06
4.31678e+06
4.25306e+06
4.19225e+06
4.13424e+06
4.0789e+06
4.02617e+06
3.97596e+06
3.92822e+06
3.8829e+06
3.83997e+06
3.79938e+06
3.76109e+06
3.72503e+06
4.68549e+06
4.60868e+06
4.53133e+06
4.45769e+06
4.38772e+06
4.32115e+06
4.25778e+06
4.19745e+06
4.14002e+06
4.08537e+06
4.03339e+06
3.98401e+06
3.93714e+06
3.89271e+06
3.85066e+06
3.81092e+06
3.77341e+06
3.73805e+06
4.69158e+06
4.61399e+06
4.53626e+06
4.46253e+06
4.39267e+06
4.32639e+06
4.26344e+06
4.20365e+06
4.14685e+06
4.09291e+06
4.04171e+06
3.99315e+06
3.94713e+06
3.90355e+06
3.86232e+06
3.82335e+06
3.78655e+06
3.75182e+06
4.69746e+06
4.61929e+06
4.54141e+06
4.46776e+06
4.39817e+06
4.33227e+06
4.26983e+06
4.21062e+06
4.15448e+06
4.10127e+06
4.05083e+06
4.00305e+06
3.95781e+06
3.91499e+06
3.8745e+06
3.83621e+06
3.80003e+06
3.76584e+06
4.69971e+06
4.62229e+06
4.54486e+06
4.4716e+06
4.4024e+06
4.33693e+06
4.27494e+06
4.21623e+06
4.16061e+06
4.10793e+06
4.05804e+06
4.01081e+06
3.9661e+06
3.9238e+06
3.88379e+06
3.84595e+06
3.81017e+06
3.77634e+06
4.70005e+06
4.62355e+06
4.54671e+06
4.4739e+06
4.40508e+06
4.33997e+06
4.27833e+06
4.21997e+06
4.1647e+06
4.11237e+06
4.06283e+06
4.01594e+06
3.97157e+06
3.92958e+06
3.88986e+06
3.85228e+06
3.81674e+06
3.78313e+06
4.70013e+06
4.62413e+06
4.54779e+06
4.47539e+06
4.40692e+06
4.34212e+06
4.28076e+06
4.22266e+06
4.16766e+06
4.11558e+06
4.06629e+06
4.01964e+06
3.97549e+06
3.93371e+06
3.89419e+06
3.8568e+06
3.82142e+06
3.78794e+06
4.69919e+06
4.62416e+06
4.54837e+06
4.47635e+06
4.40817e+06
4.34361e+06
4.28247e+06
4.22458e+06
4.16976e+06
4.11787e+06
4.06875e+06
4.02226e+06
3.97827e+06
3.93665e+06
3.89726e+06
3.85999e+06
3.82472e+06
3.79134e+06
4.69861e+06
4.62405e+06
4.54866e+06
4.47694e+06
4.409e+06
4.34463e+06
4.28366e+06
4.22591e+06
4.17124e+06
4.11947e+06
4.07048e+06
4.02411e+06
3.98023e+06
3.9387e+06
3.8994e+06
3.86222e+06
3.82702e+06
3.7937e+06
4.698e+06
4.62384e+06
4.54879e+06
4.47732e+06
4.40956e+06
4.34533e+06
4.28447e+06
4.22683e+06
4.17225e+06
4.12058e+06
4.07167e+06
4.02538e+06
3.98157e+06
3.94011e+06
3.90088e+06
3.86374e+06
3.8286e+06
3.79533e+06
4.69713e+06
4.62358e+06
4.54883e+06
4.47754e+06
4.40991e+06
4.34578e+06
4.28501e+06
4.22745e+06
4.17293e+06
4.12132e+06
4.07247e+06
4.02623e+06
3.98247e+06
3.94105e+06
3.90186e+06
3.86477e+06
3.82966e+06
3.79641e+06
4.69651e+06
4.62337e+06
4.54884e+06
4.47768e+06
4.41014e+06
4.34608e+06
4.28536e+06
4.22784e+06
4.17337e+06
4.1218e+06
4.07298e+06
4.02678e+06
3.98305e+06
3.94166e+06
3.9025e+06
3.86543e+06
3.83034e+06
3.79711e+06
4.69613e+06
4.62323e+06
4.54884e+06
4.47776e+06
4.41027e+06
4.34625e+06
4.28557e+06
4.22808e+06
4.17363e+06
4.12209e+06
4.07329e+06
4.02711e+06
3.9834e+06
3.94203e+06
3.90288e+06
3.86583e+06
3.83075e+06
3.79753e+06
4.69593e+06
4.62315e+06
4.54883e+06
4.4778e+06
4.41034e+06
4.34635e+06
4.28568e+06
4.22821e+06
4.17378e+06
4.12224e+06
4.07346e+06
4.02729e+06
3.98359e+06
3.94223e+06
3.90309e+06
3.86604e+06
3.83097e+06
3.79776e+06
4.69586e+06
4.62311e+06
4.54883e+06
4.47782e+06
4.41037e+06
4.34639e+06
4.28573e+06
4.22826e+06
4.17383e+06
4.12231e+06
4.07353e+06
4.02736e+06
3.98366e+06
3.94231e+06
3.90317e+06
3.86613e+06
3.83106e+06
3.79785e+06
3.03677e+06
3.03653e+06
3.03604e+06
3.0353e+06
3.03431e+06
3.03305e+06
3.03153e+06
3.02974e+06
3.02769e+06
3.02536e+06
3.02275e+06
3.01987e+06
3.0167e+06
3.01324e+06
3.00949e+06
3.00546e+06
3.00113e+06
2.99651e+06
2.99161e+06
2.98641e+06
2.98092e+06
2.97514e+06
2.96908e+06
2.96274e+06
2.95611e+06
2.94921e+06
2.94203e+06
2.93458e+06
2.92687e+06
2.91888e+06
2.91063e+06
2.90212e+06
2.89335e+06
2.88432e+06
2.87505e+06
2.86552e+06
2.85576e+06
2.84576e+06
2.83553e+06
2.82508e+06
2.81439e+06
2.80348e+06
2.79235e+06
2.78099e+06
2.76942e+06
2.75764e+06
2.74565e+06
2.73345e+06
2.72106e+06
2.70847e+06
2.69569e+06
2.68272e+06
2.66958e+06
2.65626e+06
2.64276e+06
2.6291e+06
2.61526e+06
2.60126e+06
2.5871e+06
2.57277e+06
2.55829e+06
2.54366e+06
2.52888e+06
2.51396e+06
2.49889e+06
2.48368e+06
2.46832e+06
2.45283e+06
2.43721e+06
2.42146e+06
2.40557e+06
2.38956e+06
2.37341e+06
2.35714e+06
2.34075e+06
2.32425e+06
2.30763e+06
2.29091e+06
2.27408e+06
2.25715e+06
2.24012e+06
2.223e+06
2.20577e+06
2.18846e+06
2.17105e+06
2.15354e+06
2.13594e+06
2.11826e+06
2.10049e+06
2.08263e+06
2.0647e+06
2.0467e+06
2.02863e+06
2.01049e+06
1.99228e+06
1.97399e+06
1.95562e+06
1.93718e+06
1.91865e+06
1.90004e+06
1.88136e+06
1.86259e+06
1.84375e+06
1.82484e+06
1.80586e+06
1.78683e+06
1.76774e+06
1.7486e+06
1.72943e+06
1.71023e+06
1.691e+06
1.67175e+06
1.65247e+06
1.63316e+06
1.61382e+06
1.59442e+06
1.57498e+06
1.55547e+06
1.5359e+06
1.51627e+06
1.4966e+06
1.4769e+06
1.45718e+06
1.43744e+06
1.41771e+06
1.39797e+06
1.37824e+06
1.35851e+06
1.33879e+06
1.31906e+06
1.29933e+06
1.27961e+06
1.25988e+06
1.24014e+06
1.22041e+06
1.20068e+06
1.18096e+06
1.16125e+06
1.14154e+06
1.12186e+06
1.10219e+06
1.08255e+06
1.06293e+06
1.04334e+06
1.02378e+06
1.00426e+06
984770
965326
945926
926573
907272
888025
868837
849711
830652
811664
792752
773920
755172
736512
717946
699475
681105
662841
644688
626651
608735
590950
573300
555793
538435
521232
504195
487334
470663
454198
437961
421985
406327
391111
3.03788e+06
3.03763e+06
3.03715e+06
3.0364e+06
3.0354e+06
3.03414e+06
3.03261e+06
3.03081e+06
3.02875e+06
3.02641e+06
3.02379e+06
3.02088e+06
3.01769e+06
3.01422e+06
3.01046e+06
3.0064e+06
3.00205e+06
2.99742e+06
2.99249e+06
2.98727e+06
2.98175e+06
2.97595e+06
2.96987e+06
2.9635e+06
2.95685e+06
2.94992e+06
2.94272e+06
2.93525e+06
2.92751e+06
2.9195e+06
2.91123e+06
2.9027e+06
2.89391e+06
2.88487e+06
2.87558e+06
2.86604e+06
2.85626e+06
2.84624e+06
2.83599e+06
2.82551e+06
2.81481e+06
2.80387e+06
2.79272e+06
2.78135e+06
2.76976e+06
2.75796e+06
2.74595e+06
2.73375e+06
2.72134e+06
2.70874e+06
2.69595e+06
2.68297e+06
2.66982e+06
2.65649e+06
2.64298e+06
2.6293e+06
2.61546e+06
2.60145e+06
2.58727e+06
2.57294e+06
2.55846e+06
2.54382e+06
2.52903e+06
2.5141e+06
2.49903e+06
2.48381e+06
2.46845e+06
2.45296e+06
2.43733e+06
2.42158e+06
2.40569e+06
2.38967e+06
2.37352e+06
2.35725e+06
2.34085e+06
2.32434e+06
2.30771e+06
2.29099e+06
2.27415e+06
2.25722e+06
2.24019e+06
2.22306e+06
2.20584e+06
2.18852e+06
2.1711e+06
2.1536e+06
2.136e+06
2.11831e+06
2.10054e+06
2.08269e+06
2.06476e+06
2.04676e+06
2.02869e+06
2.01054e+06
1.99233e+06
1.97404e+06
1.95567e+06
1.93722e+06
1.91869e+06
1.90008e+06
1.88139e+06
1.86263e+06
1.84378e+06
1.82487e+06
1.80589e+06
1.78685e+06
1.76776e+06
1.74862e+06
1.72945e+06
1.71025e+06
1.69103e+06
1.67178e+06
1.6525e+06
1.63319e+06
1.61385e+06
1.59446e+06
1.575e+06
1.55549e+06
1.53592e+06
1.51629e+06
1.49662e+06
1.47691e+06
1.45719e+06
1.43745e+06
1.41771e+06
1.39797e+06
1.37824e+06
1.35851e+06
1.33879e+06
1.31906e+06
1.29933e+06
1.2796e+06
1.25987e+06
1.24014e+06
1.22041e+06
1.20068e+06
1.18096e+06
1.16125e+06
1.14154e+06
1.12186e+06
1.10219e+06
1.08255e+06
1.06293e+06
1.04334e+06
1.02378e+06
1.00426e+06
984771
965327
945926
926574
907273
888026
868838
849713
830654
811666
792754
773922
755174
736514
717946
699475
681104
662840
644688
626650
608735
590949
573299
555792
538433
521230
504191
487329
470655
454187
437943
421956
406275
390986
3.04007e+06
3.03983e+06
3.03933e+06
3.03859e+06
3.03758e+06
3.0363e+06
3.03476e+06
3.03295e+06
3.03087e+06
3.0285e+06
3.02585e+06
3.02292e+06
3.0197e+06
3.01619e+06
3.01239e+06
3.00829e+06
3.00391e+06
2.99922e+06
2.99425e+06
2.98898e+06
2.98342e+06
2.97758e+06
2.97144e+06
2.96503e+06
2.95833e+06
2.95135e+06
2.9441e+06
2.93658e+06
2.92879e+06
2.92073e+06
2.91242e+06
2.90385e+06
2.89502e+06
2.88594e+06
2.87661e+06
2.86703e+06
2.85721e+06
2.84716e+06
2.83688e+06
2.82636e+06
2.81562e+06
2.80466e+06
2.79347e+06
2.78206e+06
2.77044e+06
2.75862e+06
2.74658e+06
2.73435e+06
2.72191e+06
2.70929e+06
2.69647e+06
2.68347e+06
2.67029e+06
2.65694e+06
2.64341e+06
2.62971e+06
2.61585e+06
2.60182e+06
2.58763e+06
2.57328e+06
2.55878e+06
2.54413e+06
2.52933e+06
2.51438e+06
2.49929e+06
2.48407e+06
2.4687e+06
2.4532e+06
2.43756e+06
2.4218e+06
2.4059e+06
2.38987e+06
2.37371e+06
2.35743e+06
2.34102e+06
2.3245e+06
2.30787e+06
2.29113e+06
2.27429e+06
2.25735e+06
2.24031e+06
2.22318e+06
2.20595e+06
2.18863e+06
2.17121e+06
2.1537e+06
2.1361e+06
2.11841e+06
2.10063e+06
2.08278e+06
2.06485e+06
2.04685e+06
2.02878e+06
2.01063e+06
1.99242e+06
1.97412e+06
1.95575e+06
1.93729e+06
1.91876e+06
1.90015e+06
1.88146e+06
1.86269e+06
1.84384e+06
1.82492e+06
1.80594e+06
1.7869e+06
1.7678e+06
1.74867e+06
1.7295e+06
1.71029e+06
1.69107e+06
1.67182e+06
1.65255e+06
1.63325e+06
1.6139e+06
1.59451e+06
1.57505e+06
1.55554e+06
1.53596e+06
1.51633e+06
1.49665e+06
1.47694e+06
1.45721e+06
1.43746e+06
1.41772e+06
1.39798e+06
1.37825e+06
1.35852e+06
1.33879e+06
1.31906e+06
1.29933e+06
1.2796e+06
1.25987e+06
1.24014e+06
1.22041e+06
1.20068e+06
1.18096e+06
1.16125e+06
1.14154e+06
1.12186e+06
1.10219e+06
1.08255e+06
1.06293e+06
1.04334e+06
1.02378e+06
1.00426e+06
984772
965328
945928
926575
907274
888028
868840
849715
830656
811668
792756
773923
755175
736514
717946
699475
681104
662840
644687
626649
608734
590948
573298
555790
538430
521226
504185
487319
470640
454164
437909
421902
406180
390793
3.04339e+06
3.04314e+06
3.04264e+06
3.04188e+06
3.04086e+06
3.03957e+06
3.03801e+06
3.03617e+06
3.03405e+06
3.03164e+06
3.02895e+06
3.02597e+06
3.0227e+06
3.01914e+06
3.01528e+06
3.01112e+06
3.00667e+06
3.00192e+06
2.99688e+06
2.99154e+06
2.98592e+06
2.98e+06
2.9738e+06
2.96731e+06
2.96054e+06
2.95349e+06
2.94617e+06
2.93857e+06
2.93071e+06
2.92259e+06
2.9142e+06
2.90556e+06
2.89667e+06
2.88752e+06
2.87813e+06
2.8685e+06
2.85863e+06
2.84852e+06
2.83819e+06
2.82762e+06
2.81683e+06
2.80582e+06
2.79458e+06
2.78313e+06
2.77147e+06
2.7596e+06
2.74752e+06
2.73524e+06
2.72277e+06
2.7101e+06
2.69725e+06
2.68422e+06
2.671e+06
2.65761e+06
2.64405e+06
2.63032e+06
2.61643e+06
2.60237e+06
2.58816e+06
2.57379e+06
2.55927e+06
2.54459e+06
2.52977e+06
2.5148e+06
2.49969e+06
2.48445e+06
2.46906e+06
2.45355e+06
2.4379e+06
2.42211e+06
2.4062e+06
2.39015e+06
2.37398e+06
2.35769e+06
2.34127e+06
2.32474e+06
2.30809e+06
2.29134e+06
2.27449e+06
2.25754e+06
2.24049e+06
2.22335e+06
2.20611e+06
2.18878e+06
2.17136e+06
2.15384e+06
2.13624e+06
2.11855e+06
2.10077e+06
2.08292e+06
2.06499e+06
2.04698e+06
2.02891e+06
2.01076e+06
1.99254e+06
1.97424e+06
1.95586e+06
1.9374e+06
1.91886e+06
1.90024e+06
1.88155e+06
1.86277e+06
1.84392e+06
1.825e+06
1.80601e+06
1.78696e+06
1.76787e+06
1.74873e+06
1.72956e+06
1.71036e+06
1.69114e+06
1.6719e+06
1.65263e+06
1.63333e+06
1.61398e+06
1.59458e+06
1.57512e+06
1.5556e+06
1.53602e+06
1.51638e+06
1.4967e+06
1.47698e+06
1.45724e+06
1.43749e+06
1.41774e+06
1.39799e+06
1.37825e+06
1.35852e+06
1.33879e+06
1.31906e+06
1.29933e+06
1.2796e+06
1.25987e+06
1.24014e+06
1.22041e+06
1.20068e+06
1.18096e+06
1.16124e+06
1.14154e+06
1.12186e+06
1.10219e+06
1.08255e+06
1.06293e+06
1.04334e+06
1.02378e+06
1.00426e+06
984774
965330
945930
926577
907276
888030
868842
849717
830658
811671
792758
773925
755176
736515
717946
699474
681103
662839
644685
626648
608733
590947
573296
555787
538426
521219
504175
487305
470619
454132
437860
421826
406055
390569
3.04785e+06
3.0476e+06
3.04708e+06
3.04631e+06
3.04526e+06
3.04394e+06
3.04234e+06
3.04046e+06
3.0383e+06
3.03584e+06
3.03309e+06
3.03004e+06
3.0267e+06
3.02306e+06
3.01912e+06
3.01489e+06
3.01035e+06
3.00551e+06
3.00038e+06
2.99495e+06
2.98923e+06
2.98322e+06
2.97692e+06
2.97034e+06
2.96348e+06
2.95633e+06
2.94892e+06
2.94123e+06
2.93328e+06
2.92506e+06
2.91658e+06
2.90785e+06
2.89887e+06
2.88964e+06
2.88017e+06
2.87045e+06
2.86051e+06
2.85033e+06
2.83993e+06
2.82929e+06
2.81844e+06
2.80736e+06
2.79607e+06
2.78456e+06
2.77284e+06
2.76091e+06
2.74877e+06
2.73644e+06
2.7239e+06
2.71118e+06
2.69828e+06
2.68519e+06
2.67193e+06
2.65849e+06
2.64489e+06
2.63112e+06
2.61719e+06
2.6031e+06
2.58885e+06
2.57445e+06
2.55989e+06
2.54519e+06
2.53034e+06
2.51534e+06
2.50021e+06
2.48494e+06
2.46954e+06
2.454e+06
2.43833e+06
2.42252e+06
2.40658e+06
2.39051e+06
2.37432e+06
2.358e+06
2.34157e+06
2.32503e+06
2.30837e+06
2.29161e+06
2.27474e+06
2.25778e+06
2.24072e+06
2.22357e+06
2.20632e+06
2.18898e+06
2.17154e+06
2.15402e+06
2.13641e+06
2.11872e+06
2.10094e+06
2.08309e+06
2.06516e+06
2.04715e+06
2.02907e+06
2.01092e+06
1.99269e+06
1.97438e+06
1.956e+06
1.93753e+06
1.91899e+06
1.90037e+06
1.88166e+06
1.86288e+06
1.84402e+06
1.82509e+06
1.8061e+06
1.78705e+06
1.76795e+06
1.74881e+06
1.72964e+06
1.71044e+06
1.69123e+06
1.67199e+06
1.65273e+06
1.63342e+06
1.61407e+06
1.59467e+06
1.57521e+06
1.55568e+06
1.5361e+06
1.51645e+06
1.49676e+06
1.47703e+06
1.45728e+06
1.43752e+06
1.41776e+06
1.39801e+06
1.37826e+06
1.35853e+06
1.33879e+06
1.31906e+06
1.29933e+06
1.2796e+06
1.25987e+06
1.24014e+06
1.22041e+06
1.20068e+06
1.18096e+06
1.16124e+06
1.14154e+06
1.12186e+06
1.10219e+06
1.08255e+06
1.06293e+06
1.04334e+06
1.02379e+06
1.00426e+06
984777
965333
945933
926580
907279
888033
868845
849720
830661
811674
792761
773927
755178
736516
717947
699474
681103
662837
644683
626645
608730
590943
573292
555782
538420
521210
504162
487285
470591
454091
437800
421734
405911
390334
3.05349e+06
3.05322e+06
3.05269e+06
3.05189e+06
3.05081e+06
3.04945e+06
3.04781e+06
3.04587e+06
3.04364e+06
3.04111e+06
3.03828e+06
3.03516e+06
3.03172e+06
3.02799e+06
3.02395e+06
3.01961e+06
3.01496e+06
3.01002e+06
3.00477e+06
2.99923e+06
2.99339e+06
2.98726e+06
2.98084e+06
2.97413e+06
2.96715e+06
2.95989e+06
2.95235e+06
2.94454e+06
2.93647e+06
2.92814e+06
2.91955e+06
2.91071e+06
2.90162e+06
2.89228e+06
2.88271e+06
2.8729e+06
2.86286e+06
2.85259e+06
2.84209e+06
2.83137e+06
2.82044e+06
2.80928e+06
2.79791e+06
2.78633e+06
2.77454e+06
2.76253e+06
2.75032e+06
2.73791e+06
2.72531e+06
2.71252e+06
2.69954e+06
2.68639e+06
2.67307e+06
2.65958e+06
2.64593e+06
2.63211e+06
2.61813e+06
2.60399e+06
2.5897e+06
2.57526e+06
2.56066e+06
2.54592e+06
2.53104e+06
2.51601e+06
2.50086e+06
2.48556e+06
2.47012e+06
2.45455e+06
2.43885e+06
2.42301e+06
2.40704e+06
2.39094e+06
2.37472e+06
2.35838e+06
2.34192e+06
2.32536e+06
2.30869e+06
2.29191e+06
2.27504e+06
2.25806e+06
2.24099e+06
2.22382e+06
2.20656e+06
2.18921e+06
2.17177e+06
2.15424e+06
2.13663e+06
2.11893e+06
2.10114e+06
2.08329e+06
2.06535e+06
2.04734e+06
2.02926e+06
2.0111e+06
1.99286e+06
1.97455e+06
1.95616e+06
1.93769e+06
1.91914e+06
1.90051e+06
1.8818e+06
1.86301e+06
1.84414e+06
1.82521e+06
1.80621e+06
1.78715e+06
1.76805e+06
1.74891e+06
1.72974e+06
1.71055e+06
1.69134e+06
1.6721e+06
1.65284e+06
1.63353e+06
1.61418e+06
1.59477e+06
1.57531e+06
1.55577e+06
1.53618e+06
1.51653e+06
1.49683e+06
1.47709e+06
1.45733e+06
1.43755e+06
1.41779e+06
1.39803e+06
1.37828e+06
1.35854e+06
1.3388e+06
1.31907e+06
1.29933e+06
1.2796e+06
1.25987e+06
1.24014e+06
1.2204e+06
1.20068e+06
1.18096e+06
1.16124e+06
1.14154e+06
1.12186e+06
1.1022e+06
1.08255e+06
1.06294e+06
1.04335e+06
1.02379e+06
1.00427e+06
984780
965336
945936
926584
907283
888036
868849
849724
830665
811677
792764
773930
755180
736518
717948
699475
681102
662836
644681
626642
608726
590938
573285
555773
538409
521197
504144
487261
470557
454043
437729
421630
405755
390099
3.06034e+06
3.06005e+06
3.0595e+06
3.05866e+06
3.05754e+06
3.05612e+06
3.05441e+06
3.0524e+06
3.05009e+06
3.04748e+06
3.04455e+06
3.04132e+06
3.03778e+06
3.03393e+06
3.02977e+06
3.0253e+06
3.02052e+06
3.01544e+06
3.01005e+06
3.00436e+06
2.99838e+06
2.9921e+06
2.98554e+06
2.97868e+06
2.97155e+06
2.96414e+06
2.95646e+06
2.94851e+06
2.9403e+06
2.93183e+06
2.92311e+06
2.91413e+06
2.90491e+06
2.89545e+06
2.88575e+06
2.87582e+06
2.86566e+06
2.85528e+06
2.84468e+06
2.83386e+06
2.82282e+06
2.81157e+06
2.80011e+06
2.78844e+06
2.77656e+06
2.76446e+06
2.75217e+06
2.73967e+06
2.72698e+06
2.7141e+06
2.70105e+06
2.68782e+06
2.67443e+06
2.66087e+06
2.64715e+06
2.63327e+06
2.61924e+06
2.60505e+06
2.59071e+06
2.57621e+06
2.56157e+06
2.54679e+06
2.53187e+06
2.51681e+06
2.50162e+06
2.48628e+06
2.47082e+06
2.45521e+06
2.43947e+06
2.42359e+06
2.40759e+06
2.39145e+06
2.3752e+06
2.35882e+06
2.34234e+06
2.32575e+06
2.30905e+06
2.29226e+06
2.27536e+06
2.25837e+06
2.24129e+06
2.22411e+06
2.20684e+06
2.18948e+06
2.17203e+06
2.15449e+06
2.13686e+06
2.11916e+06
2.10137e+06
2.08351e+06
2.06557e+06
2.04756e+06
2.02947e+06
2.0113e+06
1.99306e+06
1.97474e+06
1.95634e+06
1.93786e+06
1.9193e+06
1.90067e+06
1.88195e+06
1.86315e+06
1.84428e+06
1.82533e+06
1.80633e+06
1.78727e+06
1.76817e+06
1.74902e+06
1.72985e+06
1.71067e+06
1.69146e+06
1.67223e+06
1.65296e+06
1.63366e+06
1.6143e+06
1.59488e+06
1.57541e+06
1.55587e+06
1.53627e+06
1.51662e+06
1.49691e+06
1.47716e+06
1.45738e+06
1.4376e+06
1.41782e+06
1.39805e+06
1.37829e+06
1.35855e+06
1.33881e+06
1.31907e+06
1.29933e+06
1.2796e+06
1.25987e+06
1.24013e+06
1.2204e+06
1.20068e+06
1.18096e+06
1.16124e+06
1.14155e+06
1.12186e+06
1.1022e+06
1.08256e+06
1.06294e+06
1.04335e+06
1.02379e+06
1.00427e+06
984785
965340
945940
926588
907287
888041
868853
849728
830669
811681
792768
773934
755184
736521
717950
699476
681103
662836
644679
626640
608721
590931
573276
555761
538393
521178
504121
487230
470516
453987
437651
421518
405594
389869
3.06843e+06
3.06813e+06
3.06754e+06
3.06666e+06
3.06548e+06
3.06399e+06
3.0622e+06
3.0601e+06
3.05769e+06
3.05497e+06
3.05192e+06
3.04857e+06
3.04489e+06
3.0409e+06
3.03658e+06
3.03196e+06
3.02702e+06
3.02177e+06
3.01622e+06
3.01036e+06
3.00421e+06
2.99776e+06
2.99102e+06
2.98399e+06
2.97668e+06
2.9691e+06
2.96125e+06
2.95313e+06
2.94476e+06
2.93612e+06
2.92724e+06
2.9181e+06
2.90873e+06
2.89912e+06
2.88928e+06
2.87921e+06
2.86891e+06
2.8584e+06
2.84767e+06
2.83674e+06
2.82559e+06
2.81423e+06
2.80266e+06
2.79088e+06
2.7789e+06
2.7667e+06
2.7543e+06
2.7417e+06
2.72891e+06
2.71593e+06
2.70278e+06
2.68947e+06
2.67599e+06
2.66235e+06
2.64856e+06
2.63462e+06
2.62052e+06
2.60627e+06
2.59186e+06
2.57731e+06
2.56262e+06
2.54779e+06
2.53283e+06
2.51773e+06
2.50249e+06
2.48712e+06
2.47161e+06
2.45597e+06
2.44019e+06
2.42427e+06
2.40822e+06
2.39205e+06
2.37575e+06
2.35934e+06
2.34282e+06
2.3262e+06
2.30947e+06
2.29265e+06
2.27574e+06
2.25873e+06
2.24164e+06
2.22444e+06
2.20716e+06
2.18978e+06
2.17232e+06
2.15477e+06
2.13713e+06
2.11941e+06
2.10161e+06
2.08374e+06
2.0658e+06
2.04778e+06
2.02969e+06
2.01152e+06
1.99327e+06
1.97494e+06
1.95653e+06
1.93804e+06
1.91948e+06
1.90083e+06
1.8821e+06
1.8633e+06
1.84442e+06
1.82547e+06
1.80646e+06
1.7874e+06
1.76829e+06
1.74915e+06
1.72998e+06
1.7108e+06
1.6916e+06
1.67236e+06
1.6531e+06
1.63378e+06
1.61442e+06
1.59499e+06
1.57551e+06
1.55597e+06
1.53636e+06
1.5167e+06
1.49698e+06
1.47723e+06
1.45744e+06
1.43764e+06
1.41785e+06
1.39807e+06
1.37831e+06
1.35856e+06
1.33882e+06
1.31908e+06
1.29934e+06
1.2796e+06
1.25987e+06
1.24013e+06
1.2204e+06
1.20068e+06
1.18096e+06
1.16125e+06
1.14155e+06
1.12187e+06
1.1022e+06
1.08256e+06
1.06295e+06
1.04336e+06
1.0238e+06
1.00428e+06
984790
965346
945946
926593
907292
888046
868859
849733
830674
811686
792773
773939
755188
736524
717953
699478
681104
662836
644679
626637
608717
590925
573266
555747
538375
521154
504091
487193
470469
453924
437566
421401
405431
389646
3.07783e+06
3.0775e+06
3.07687e+06
3.07593e+06
3.07468e+06
3.07311e+06
3.07122e+06
3.06901e+06
3.06647e+06
3.06361e+06
3.06042e+06
3.05691e+06
3.05307e+06
3.0489e+06
3.04442e+06
3.03961e+06
3.03448e+06
3.02904e+06
3.02329e+06
3.01723e+06
3.01087e+06
3.00422e+06
2.99728e+06
2.99005e+06
2.98254e+06
2.97476e+06
2.96671e+06
2.9584e+06
2.94983e+06
2.94101e+06
2.93194e+06
2.92262e+06
2.91307e+06
2.90329e+06
2.89328e+06
2.88305e+06
2.8726e+06
2.86195e+06
2.85108e+06
2.84001e+06
2.82873e+06
2.81725e+06
2.80556e+06
2.79366e+06
2.78156e+06
2.76924e+06
2.75672e+06
2.744e+06
2.7311e+06
2.71801e+06
2.70475e+06
2.69133e+06
2.67776e+06
2.66404e+06
2.65016e+06
2.63614e+06
2.62197e+06
2.60765e+06
2.59318e+06
2.57857e+06
2.56382e+06
2.54893e+06
2.53391e+06
2.51876e+06
2.50348e+06
2.48806e+06
2.47251e+06
2.45682e+06
2.44099e+06
2.42503e+06
2.40894e+06
2.39272e+06
2.37638e+06
2.35993e+06
2.34337e+06
2.32671e+06
2.30996e+06
2.29311e+06
2.27617e+06
2.25914e+06
2.24203e+06
2.22482e+06
2.20752e+06
2.19012e+06
2.17264e+06
2.15507e+06
2.13742e+06
2.11968e+06
2.10187e+06
2.08399e+06
2.06604e+06
2.04802e+06
2.02992e+06
2.01174e+06
1.99348e+06
1.97514e+06
1.95673e+06
1.93823e+06
1.91965e+06
1.901e+06
1.88226e+06
1.86345e+06
1.84456e+06
1.82561e+06
1.8066e+06
1.78753e+06
1.76842e+06
1.74928e+06
1.73011e+06
1.71093e+06
1.69173e+06
1.6725e+06
1.65323e+06
1.6339e+06
1.61453e+06
1.5951e+06
1.57561e+06
1.55606e+06
1.53645e+06
1.51678e+06
1.49706e+06
1.47729e+06
1.4575e+06
1.43769e+06
1.41789e+06
1.3981e+06
1.37833e+06
1.35858e+06
1.33883e+06
1.31908e+06
1.29934e+06
1.27961e+06
1.25987e+06
1.24014e+06
1.2204e+06
1.20068e+06
1.18096e+06
1.16125e+06
1.14155e+06
1.12187e+06
1.10221e+06
1.08257e+06
1.06295e+06
1.04336e+06
1.02381e+06
1.00428e+06
984798
965353
945953
926600
907299
888053
868865
849740
830681
811693
792779
773944
755193
736529
717957
699481
681106
662837
644679
626636
608714
590919
573256
555733
538354
521127
504057
487151
470415
453855
437475
421280
405269
389433
3.08858e+06
3.08822e+06
3.08754e+06
3.08654e+06
3.0852e+06
3.08353e+06
3.08152e+06
3.07918e+06
3.07649e+06
3.07347e+06
3.0701e+06
3.0664e+06
3.06236e+06
3.05799e+06
3.05329e+06
3.04827e+06
3.04292e+06
3.03725e+06
3.03127e+06
3.02498e+06
3.01839e+06
3.0115e+06
3.00432e+06
2.99686e+06
2.98913e+06
2.98112e+06
2.97284e+06
2.96431e+06
2.95552e+06
2.94649e+06
2.93721e+06
2.92769e+06
2.91794e+06
2.90796e+06
2.89777e+06
2.88736e+06
2.87674e+06
2.86592e+06
2.8549e+06
2.84368e+06
2.83226e+06
2.82064e+06
2.80881e+06
2.79678e+06
2.78453e+06
2.77208e+06
2.75943e+06
2.74658e+06
2.73354e+06
2.72033e+06
2.70695e+06
2.69342e+06
2.67974e+06
2.66592e+06
2.65196e+06
2.63785e+06
2.62359e+06
2.60919e+06
2.59465e+06
2.57996e+06
2.56514e+06
2.55019e+06
2.53511e+06
2.5199e+06
2.50456e+06
2.48909e+06
2.47349e+06
2.45775e+06
2.44188e+06
2.42587e+06
2.40973e+06
2.39347e+06
2.37708e+06
2.36059e+06
2.34399e+06
2.32729e+06
2.3105e+06
2.29362e+06
2.27666e+06
2.25961e+06
2.24247e+06
2.22524e+06
2.20791e+06
2.1905e+06
2.173e+06
2.1554e+06
2.13773e+06
2.11997e+06
2.10215e+06
2.08425e+06
2.06629e+06
2.04825e+06
2.03015e+06
2.01196e+06
1.9937e+06
1.97535e+06
1.95692e+06
1.93842e+06
1.91983e+06
1.90117e+06
1.88242e+06
1.8636e+06
1.84471e+06
1.82575e+06
1.80674e+06
1.78767e+06
1.76855e+06
1.74941e+06
1.73025e+06
1.71107e+06
1.69187e+06
1.67263e+06
1.65335e+06
1.63402e+06
1.61464e+06
1.59519e+06
1.57569e+06
1.55614e+06
1.53652e+06
1.51685e+06
1.49712e+06
1.47735e+06
1.45755e+06
1.43774e+06
1.41793e+06
1.39813e+06
1.37836e+06
1.35859e+06
1.33884e+06
1.31909e+06
1.29935e+06
1.27961e+06
1.25987e+06
1.24014e+06
1.22041e+06
1.20068e+06
1.18096e+06
1.16126e+06
1.14156e+06
1.12188e+06
1.10222e+06
1.08258e+06
1.06296e+06
1.04337e+06
1.02382e+06
1.00429e+06
984808
965363
945963
926610
907308
888062
868874
849749
830689
811701
792787
773952
755199
736535
717962
699485
681110
662839
644679
626635
608711
590913
573247
555719
538334
521099
504020
487104
470356
453781
437380
421157
405110
389229
3.10079e+06
3.1004e+06
3.09966e+06
3.09858e+06
3.09714e+06
3.09535e+06
3.09319e+06
3.09068e+06
3.08782e+06
3.0846e+06
3.08102e+06
3.0771e+06
3.07283e+06
3.06822e+06
3.06326e+06
3.05798e+06
3.05237e+06
3.04643e+06
3.04018e+06
3.03362e+06
3.02676e+06
3.01961e+06
3.01216e+06
3.00444e+06
2.99644e+06
2.98818e+06
2.97965e+06
2.97087e+06
2.96184e+06
2.95257e+06
2.94305e+06
2.9333e+06
2.92333e+06
2.91314e+06
2.90274e+06
2.89213e+06
2.88132e+06
2.87031e+06
2.85912e+06
2.84772e+06
2.83614e+06
2.82436e+06
2.81238e+06
2.80019e+06
2.7878e+06
2.7752e+06
2.7624e+06
2.7494e+06
2.73623e+06
2.72288e+06
2.70937e+06
2.69572e+06
2.68193e+06
2.668e+06
2.65394e+06
2.63973e+06
2.62538e+06
2.61089e+06
2.59626e+06
2.58149e+06
2.56659e+06
2.55157e+06
2.53642e+06
2.52114e+06
2.50573e+06
2.4902e+06
2.47454e+06
2.45875e+06
2.44283e+06
2.42677e+06
2.41058e+06
2.39427e+06
2.37784e+06
2.3613e+06
2.34465e+06
2.32792e+06
2.31109e+06
2.29419e+06
2.2772e+06
2.26012e+06
2.24296e+06
2.2257e+06
2.20836e+06
2.19092e+06
2.17339e+06
2.15577e+06
2.13807e+06
2.12029e+06
2.10244e+06
2.08453e+06
2.06655e+06
2.0485e+06
2.03039e+06
2.01219e+06
1.99391e+06
1.97555e+06
1.95711e+06
1.9386e+06
1.92001e+06
1.90134e+06
1.88259e+06
1.86376e+06
1.84486e+06
1.82589e+06
1.80687e+06
1.7878e+06
1.76868e+06
1.74954e+06
1.73038e+06
1.7112e+06
1.692e+06
1.67276e+06
1.65347e+06
1.63413e+06
1.61473e+06
1.59528e+06
1.57577e+06
1.5562e+06
1.53658e+06
1.51691e+06
1.49718e+06
1.4774e+06
1.45759e+06
1.43777e+06
1.41796e+06
1.39816e+06
1.37838e+06
1.35861e+06
1.33886e+06
1.31911e+06
1.29936e+06
1.27962e+06
1.25988e+06
1.24015e+06
1.22041e+06
1.20069e+06
1.18097e+06
1.16126e+06
1.14157e+06
1.12189e+06
1.10223e+06
1.08259e+06
1.06297e+06
1.04339e+06
1.02383e+06
1.00431e+06
984822
965377
945976
926622
907320
888073
868885
849760
830700
811711
792796
773960
755208
736542
717968
699491
681114
662842
644681
626634
608709
590908
573239
555706
538315
521072
503984
487057
470295
453703
437281
421032
404953
389034
3.11458e+06
3.11414e+06
3.11334e+06
3.11215e+06
3.11059e+06
3.10865e+06
3.10633e+06
3.10362e+06
3.10054e+06
3.09709e+06
3.09326e+06
3.08908e+06
3.08453e+06
3.07963e+06
3.07438e+06
3.06879e+06
3.06287e+06
3.05663e+06
3.05006e+06
3.04319e+06
3.03602e+06
3.02856e+06
3.02081e+06
3.01279e+06
3.0045e+06
2.99595e+06
2.98714e+06
2.97808e+06
2.96877e+06
2.95923e+06
2.94945e+06
2.93945e+06
2.92923e+06
2.9188e+06
2.90816e+06
2.89733e+06
2.8863e+06
2.87508e+06
2.86368e+06
2.8521e+06
2.84032e+06
2.82836e+06
2.81621e+06
2.80385e+06
2.79129e+06
2.77853e+06
2.76558e+06
2.75243e+06
2.73911e+06
2.72562e+06
2.71198e+06
2.69821e+06
2.68429e+06
2.67025e+06
2.65608e+06
2.64177e+06
2.62732e+06
2.61273e+06
2.598e+06
2.58314e+06
2.56815e+06
2.55304e+06
2.53781e+06
2.52245e+06
2.50698e+06
2.49138e+06
2.47566e+06
2.4598e+06
2.44382e+06
2.42771e+06
2.41147e+06
2.3951e+06
2.37863e+06
2.36205e+06
2.34536e+06
2.32859e+06
2.31174e+06
2.2948e+06
2.27779e+06
2.26069e+06
2.2435e+06
2.22622e+06
2.20884e+06
2.19138e+06
2.17382e+06
2.15617e+06
2.13844e+06
2.12063e+06
2.10276e+06
2.08482e+06
2.06683e+06
2.04877e+06
2.03063e+06
2.01242e+06
1.99413e+06
1.97576e+06
1.95731e+06
1.93878e+06