/*--------------------------------*- C++ -*----------------------------------*\
  =========                 |
  \\      /  F ield         | OpenFOAM: The Open Source CFD Toolbox
   \\    /   O peration     | Website:  https://openfoam.org
    \\  /    A nd           | Version:  10
     \\/     M anipulation  |
\*---------------------------------------------------------------------------*/
FoamFile
{
    format      ascii;
    class       surfaceScalarField;
    location    "14900";
    object      phi;
}
// * * * * * * * * * * * * * * * * * * * * * * * * * * * * * * * * * * * * * //

dimensions      [0 3 -1 0 0 0 0];

internalField   nonuniform List<scalar> 
12640
(
-1.92026e-08
1.92026e-08
-3.86689e-08
1.94663e-08
-5.86803e-08
2.00114e-08
-7.95566e-08
2.08764e-08
-1.01684e-07
2.21269e-08
-1.25553e-07
2.38692e-08
-1.51826e-07
2.6273e-08
-1.81443e-07
2.96177e-08
-2.15826e-07
3.43828e-08
-2.57268e-07
4.14415e-08
-3.09748e-07
5.24801e-08
-3.80313e-07
7.05647e-08
-4.71337e-07
9.10244e-08
-2.19136e-07
-2.52201e-07
-4.24947e-06
4.03034e-06
-4.2621e-06
1.26213e-08
-4.08278e-06
-1.7932e-07
-3.66767e-06
-4.15101e-07
-3.91419e-06
2.46518e-07
-3.89836e-06
-1.5832e-08
-3.90839e-06
1.00256e-08
-3.86477e-06
-4.36198e-08
-3.77953e-06
-8.5238e-08
-3.7432e-06
-3.63292e-08
-3.77863e-06
3.54298e-08
-3.7624e-06
-1.62287e-08
-3.71231e-06
-5.00951e-08
-3.61043e-06
-1.0188e-07
-3.53485e-06
-7.55717e-08
-3.46416e-06
-7.06964e-08
-3.35091e-06
-1.13252e-07
-3.16401e-06
-1.869e-07
-3.01824e-06
-1.45766e-07
-2.81982e-06
-1.98418e-07
-2.55421e-06
-2.65611e-07
-2.20777e-06
-3.46439e-07
-1.77088e-06
-4.36893e-07
-1.2439e-06
-5.26982e-07
-6.42922e-07
-6.00976e-07
-1.80798e-17
-6.42922e-07
6.42922e-07
-6.42922e-07
1.2439e-06
-6.00976e-07
1.77088e-06
-5.26982e-07
2.20777e-06
-4.36893e-07
2.55421e-06
-3.46439e-07
2.81982e-06
-2.65611e-07
3.01824e-06
-1.98418e-07
3.16401e-06
-1.45766e-07
3.35091e-06
-1.869e-07
3.46416e-06
-1.13252e-07
3.53485e-06
-7.06964e-08
3.61043e-06
-7.55717e-08
3.71231e-06
-1.0188e-07
3.7624e-06
-5.00951e-08
3.77863e-06
-1.62287e-08
3.7432e-06
3.54298e-08
3.77953e-06
-3.63292e-08
3.86477e-06
-8.5238e-08
3.90839e-06
-4.36198e-08
3.89836e-06
1.00256e-08
3.91419e-06
-1.5832e-08
3.66767e-06
2.46518e-07
4.08278e-06
-4.15101e-07
4.2621e-06
-1.7932e-07
4.24947e-06
1.26213e-08
2.19136e-07
4.03034e-06
4.71337e-07
-2.52201e-07
3.80313e-07
9.10244e-08
3.09748e-07
7.05647e-08
2.57268e-07
5.24801e-08
2.15826e-07
4.14415e-08
1.81443e-07
3.43828e-08
1.51826e-07
2.96177e-08
1.25553e-07
2.6273e-08
1.01684e-07
2.38692e-08
7.95566e-08
2.21269e-08
5.86803e-08
2.08764e-08
3.86689e-08
2.00114e-08
1.92026e-08
1.94663e-08
1.92026e-08
-2.10494e-08
4.0252e-08
-4.23871e-08
4.0804e-08
-6.43209e-08
4.19452e-08
-8.72003e-08
4.37557e-08
-1.11446e-07
4.6373e-08
-1.37595e-07
5.0018e-08
-1.66367e-07
5.50452e-08
-1.98785e-07
6.20357e-08
-2.36388e-07
7.19857e-08
-2.81653e-07
8.67065e-08
-3.3888e-07
1.09707e-07
-4.16164e-07
1.47849e-07
-5.33582e-07
2.08442e-07
-1.01857e-06
2.32784e-07
-2.42043e-07
3.25381e-06
-3.80286e-06
3.57344e-06
-4.22125e-06
2.3907e-07
-3.81628e-06
-8.20071e-07
-4.14722e-06
5.77453e-07
-4.13277e-06
-3.02748e-08
-4.15736e-06
3.46075e-08
-4.1176e-06
-8.33752e-08
-4.02782e-06
-1.75016e-07
-3.99215e-06
-7.19988e-08
-4.03913e-06
8.2403e-08
-4.02376e-06
-3.1593e-08
-3.97338e-06
-1.0048e-07
-3.86261e-06
-2.12649e-07
-3.78438e-06
-1.53803e-07
-3.71232e-06
-1.42755e-07
-3.59361e-06
-2.31959e-07
-3.39994e-06
-3.80568e-07
-3.24738e-06
-2.98333e-07
-3.03839e-06
-4.07407e-07
-2.75707e-06
-5.46933e-07
-2.38807e-06
-7.15437e-07
-1.91968e-06
-9.05281e-07
-1.35096e-06
-1.0957e-06
-6.99138e-07
-1.2528e-06
-3.15774e-17
-1.34206e-06
6.99138e-07
-1.34206e-06
1.35096e-06
-1.2528e-06
1.91968e-06
-1.0957e-06
2.38807e-06
-9.05281e-07
2.75707e-06
-7.15437e-07
3.03839e-06
-5.46933e-07
3.24738e-06
-4.07407e-07
3.39994e-06
-2.98333e-07
3.59361e-06
-3.80568e-07
3.71232e-06
-2.31959e-07
3.78438e-06
-1.42755e-07
3.86261e-06
-1.53803e-07
3.97338e-06
-2.12649e-07
4.02376e-06
-1.0048e-07
4.03913e-06
-3.1593e-08
3.99215e-06
8.2403e-08
4.02782e-06
-7.19988e-08
4.1176e-06
-1.75016e-07
4.15736e-06
-8.33752e-08
4.13277e-06
3.46075e-08
4.14722e-06
-3.02748e-08
3.81628e-06
5.77453e-07
4.22125e-06
-8.20071e-07
3.80286e-06
2.3907e-07
2.42043e-07
3.57344e-06
1.01857e-06
3.25381e-06
5.33582e-07
2.32784e-07
4.16164e-07
2.08442e-07
3.3888e-07
1.47849e-07
2.81653e-07
1.09707e-07
2.36388e-07
8.67065e-08
1.98785e-07
7.19857e-08
1.66367e-07
6.20357e-08
1.37595e-07
5.50452e-08
1.11446e-07
5.0018e-08
8.72003e-08
4.6373e-08
6.43209e-08
4.37557e-08
4.23871e-08
4.19452e-08
2.10494e-08
4.0804e-08
4.0252e-08
-2.30559e-08
6.33079e-08
-4.6426e-08
6.41741e-08
-7.04453e-08
6.59645e-08
-9.54939e-08
6.88043e-08
-1.22029e-07
7.29078e-08
-1.5063e-07
7.86198e-08
-1.82076e-07
8.6491e-08
-2.17464e-07
9.74233e-08
-2.58435e-07
1.12957e-07
-3.0761e-07
1.35881e-07
-3.69512e-07
1.71609e-07
-4.52996e-07
2.31333e-07
-5.83854e-07
3.393e-07
-9.44528e-07
5.93458e-07
-5.25383e-07
2.83467e-06
-1.61585e-07
3.20964e-06
-2.41435e-06
2.49184e-06
-3.80822e-06
5.73799e-07
-4.40435e-06
1.17359e-06
-4.39244e-06
-4.21865e-08
-4.44831e-06
9.04701e-08
-4.41519e-06
-1.16489e-07
-4.31479e-06
-2.75417e-07
-4.27851e-06
-1.08283e-07
-4.34776e-06
1.51652e-07
-4.33152e-06
-4.78259e-08
-4.28201e-06
-1.49994e-07
-4.15478e-06
-3.39879e-07
-4.07474e-06
-2.33847e-07
-4.00404e-06
-2.13452e-07
-3.88045e-06
-3.55544e-07
-3.68686e-06
-5.74158e-07
-3.53116e-06
-4.5404e-07
-3.31478e-06
-6.23782e-07
-3.01993e-06
-8.41783e-07
-2.62833e-06
-1.10704e-06
-2.12363e-06
-1.40998e-06
-1.5011e-06
-1.71822e-06
-7.79094e-07
-1.97481e-06
-2.84395e-17
-2.12115e-06
7.79094e-07
-2.12115e-06
1.5011e-06
-1.97481e-06
2.12363e-06
-1.71822e-06
2.62833e-06
-1.40998e-06
3.01993e-06
-1.10704e-06
3.31478e-06
-8.41783e-07
3.53116e-06
-6.23782e-07
3.68686e-06
-4.5404e-07
3.88045e-06
-5.74158e-07
4.00404e-06
-3.55544e-07
4.07474e-06
-2.13452e-07
4.15478e-06
-2.33847e-07
4.28201e-06
-3.39879e-07
4.33152e-06
-1.49994e-07
4.34776e-06
-4.78259e-08
4.27851e-06
1.51652e-07
4.31479e-06
-1.08283e-07
4.41519e-06
-2.75417e-07
4.44831e-06
-1.16489e-07
4.39244e-06
9.04701e-08
4.40435e-06
-4.21865e-08
3.80822e-06
1.17359e-06
2.41435e-06
5.73799e-07
1.61585e-07
2.49184e-06
5.25383e-07
3.20964e-06
9.44528e-07
2.83467e-06
5.83854e-07
5.93458e-07
4.52996e-07
3.393e-07
3.69512e-07
2.31333e-07
3.0761e-07
1.71609e-07
2.58435e-07
1.35881e-07
2.17464e-07
1.12957e-07
1.82076e-07
9.74233e-08
1.5063e-07
8.6491e-08
1.22029e-07
7.86198e-08
9.54939e-08
7.29078e-08
7.04453e-08
6.88043e-08
4.6426e-08
6.59645e-08
2.30559e-08
6.41741e-08
6.33079e-08
-2.52287e-08
8.85366e-08
-5.07981e-08
8.97435e-08
-7.70709e-08
9.22373e-08
-1.04458e-07
9.61913e-08
-1.33451e-07
1.01901e-07
-1.64674e-07
1.09842e-07
-1.98954e-07
1.20771e-07
-2.37452e-07
1.35921e-07
-2.81882e-07
1.57387e-07
-3.34937e-07
1.88936e-07
-4.01183e-07
2.37855e-07
-4.89433e-07
3.19583e-07
-6.22909e-07
4.72776e-07
-8.81868e-07
8.52417e-07
-5.50468e-07
2.50327e-06
-2.30269e-07
2.88945e-06
-8.23452e-08
2.34391e-06
-4.39045e-07
9.30498e-07
-4.2858e-06
5.02034e-06
-4.57307e-06
2.45082e-07
-4.74388e-06
2.61283e-07
-4.7371e-06
-1.2327e-07
-4.62219e-06
-3.90331e-07
-4.58575e-06
-1.44719e-07
-4.69724e-06
2.63143e-07
-4.67707e-06
-6.79981e-08
-4.63249e-06
-1.94572e-07
-4.4769e-06
-4.95468e-07
-4.39799e-06
-3.1276e-07
-4.33404e-06
-2.77399e-07
-4.20667e-06
-4.82912e-07
-4.02558e-06
-7.55247e-07
-3.87394e-06
-6.05689e-07
-3.6569e-06
-8.40815e-07
-3.35464e-06
-1.14404e-06
-2.9445e-06
-1.51718e-06
-2.40098e-06
-1.9535e-06
-1.7105e-06
-2.4087e-06
-8.92279e-07
-2.79304e-06
-2.87381e-17
-3.01343e-06
8.92279e-07
-3.01343e-06
1.7105e-06
-2.79304e-06
2.40098e-06
-2.4087e-06
2.9445e-06
-1.9535e-06
3.35464e-06
-1.51718e-06
3.6569e-06
-1.14404e-06
3.87394e-06
-8.40815e-07
4.02558e-06
-6.05689e-07
4.20667e-06
-7.55247e-07
4.33404e-06
-4.82912e-07
4.39799e-06
-2.77399e-07
4.4769e-06
-3.1276e-07
4.63249e-06
-4.95468e-07
4.67707e-06
-1.94572e-07
4.69724e-06
-6.79981e-08
4.58575e-06
2.63143e-07
4.62219e-06
-1.44719e-07
4.7371e-06
-3.90331e-07
4.74388e-06
-1.2327e-07
4.57307e-06
2.61283e-07
4.2858e-06
2.45082e-07
4.39045e-07
5.02034e-06
8.23452e-08
9.30498e-07
2.30269e-07
2.34391e-06
5.50468e-07
2.88945e-06
8.81868e-07
2.50327e-06
6.22909e-07
8.52417e-07
4.89433e-07
4.72776e-07
4.01183e-07
3.19583e-07
3.34937e-07
2.37855e-07
2.81882e-07
1.88936e-07
2.37452e-07
1.57387e-07
1.98954e-07
1.35921e-07
1.64674e-07
1.20771e-07
1.33451e-07
1.09842e-07
1.04458e-07
1.01901e-07
7.70709e-08
9.61913e-08
5.07981e-08
9.22373e-08
2.52287e-08
8.97435e-08
8.85366e-08
-2.75717e-08
1.16108e-07
-5.55103e-08
1.17682e-07
-8.42062e-08
1.20933e-07
-1.141e-07
1.26085e-07
-1.45716e-07
1.33518e-07
-1.79715e-07
1.43841e-07
-2.16965e-07
1.58021e-07
-2.58667e-07
1.77624e-07
-3.06565e-07
2.05285e-07
-3.63321e-07
2.45692e-07
-4.33266e-07
3.078e-07
-5.24149e-07
4.10466e-07
-6.51816e-07
6.00443e-07
-8.30688e-07
1.03129e-06
-5.71821e-07
2.2444e-06
-2.97694e-07
2.61532e-06
-2.07245e-07
2.25346e-06
-8.0443e-07
1.52768e-06
2.69644e-07
3.94627e-06
-9.31787e-07
1.44651e-06
-4.66227e-06
3.99177e-06
-4.9895e-06
2.03957e-07
-4.91064e-06
-4.69186e-07
-4.89076e-06
-1.64602e-07
-5.08633e-06
4.58708e-07
-5.05622e-06
-9.81003e-08
-5.02758e-06
-2.23217e-07
-4.82268e-06
-7.00368e-07
-4.75186e-06
-3.83578e-07
-4.7042e-06
-3.25063e-07
-4.57293e-06
-6.1418e-07
-4.42453e-06
-9.03647e-07
-4.28938e-06
-7.40836e-07
-4.08294e-06
-1.04726e-06
-3.78493e-06
-1.44205e-06
-3.36738e-06
-1.93473e-06
-2.78715e-06
-2.53373e-06
-2.01062e-06
-3.18523e-06
-1.05706e-06
-3.7466e-06
-2.95045e-17
-4.07049e-06
1.05706e-06
-4.07049e-06
2.01062e-06
-3.7466e-06
2.78715e-06
-3.18523e-06
3.36738e-06
-2.53373e-06
3.78493e-06
-1.93473e-06
4.08294e-06
-1.44205e-06
4.28938e-06
-1.04726e-06
4.42453e-06
-7.40836e-07
4.57293e-06
-9.03647e-07
4.7042e-06
-6.1418e-07
4.75186e-06
-3.25063e-07
4.82268e-06
-3.83578e-07
5.02758e-06
-7.00368e-07
5.05622e-06
-2.23217e-07
5.08633e-06
-9.81003e-08
4.89076e-06
4.58708e-07
4.91064e-06
-1.64602e-07
4.9895e-06
-4.69186e-07
4.66227e-06
2.03957e-07
9.31787e-07
3.99177e-06
-2.69644e-07
1.44651e-06
8.0443e-07
3.94627e-06
2.07245e-07
1.52768e-06
2.97694e-07
2.25346e-06
5.71821e-07
2.61532e-06
8.30688e-07
2.2444e-06
6.51816e-07
1.03129e-06
5.24149e-07
6.00443e-07
4.33266e-07
4.10466e-07
3.63321e-07
3.078e-07
3.06565e-07
2.45692e-07
2.58667e-07
2.05285e-07
2.16965e-07
1.77624e-07
1.79715e-07
1.58021e-07
1.45716e-07
1.43841e-07
1.141e-07
1.33518e-07
8.42062e-08
1.26085e-07
5.55103e-08
1.20933e-07
2.75717e-08
1.17682e-07
1.16108e-07
-3.00847e-08
1.46193e-07
-6.05616e-08
1.48159e-07
-9.18468e-08
1.52218e-07
-1.24408e-07
1.58646e-07
-1.58798e-07
1.67908e-07
-1.95704e-07
1.80748e-07
-2.36021e-07
1.98338e-07
-2.8096e-07
2.22562e-07
-3.32227e-07
2.56551e-07
-3.92318e-07
3.05783e-07
-4.65e-07
3.80482e-07
-5.55994e-07
5.0146e-07
-6.72051e-07
7.16501e-07
-7.9039e-07
1.14963e-06
-5.90274e-07
2.04428e-06
-3.6253e-07
2.38757e-06
-2.99541e-07
2.19048e-06
-6.41622e-07
1.86976e-06
5.04194e-08
3.25423e-06
-4.56196e-07
1.95313e-06
2.5667e-07
3.2789e-06
-1.21656e-06
1.67718e-06
-4.67907e-06
2.99333e-06
-5.0472e-06
2.03528e-07
-5.48354e-06
8.95042e-07
-5.44916e-06
-1.32477e-07
-5.47114e-06
-2.01241e-07
-5.17956e-06
-9.9194e-07
-5.13383e-06
-4.29315e-07
-5.11976e-06
-3.3913e-07
-4.97927e-06
-7.54666e-07
-4.89559e-06
-9.87333e-07
-4.79853e-06
-8.37897e-07
-4.61927e-06
-1.22652e-06
-4.34552e-06
-1.7158e-06
-3.9466e-06
-2.33365e-06
-3.34467e-06
-3.13566e-06
-2.45871e-06
-4.07119e-06
-1.307e-06
-4.89831e-06
-3.6676e-17
-5.37749e-06
1.307e-06
-5.37749e-06
2.45871e-06
-4.89831e-06
3.34467e-06
-4.07119e-06
3.9466e-06
-3.13566e-06
4.34552e-06
-2.33365e-06
4.61927e-06
-1.7158e-06
4.79853e-06
-1.22652e-06
4.89559e-06
-8.37897e-07
4.97927e-06
-9.87333e-07
5.11976e-06
-7.54666e-07
5.13383e-06
-3.3913e-07
5.17956e-06
-4.29315e-07
5.47114e-06
-9.9194e-07
5.44916e-06
-2.01241e-07
5.48354e-06
-1.32477e-07
5.0472e-06
8.95042e-07
4.67907e-06
2.03528e-07
1.21656e-06
2.99333e-06
-2.5667e-07
1.67718e-06
4.56196e-07
3.2789e-06
-5.04193e-08
1.95313e-06
6.41622e-07
3.25423e-06
2.99541e-07
1.86976e-06
3.6253e-07
2.19048e-06
5.90274e-07
2.38757e-06
7.9039e-07
2.04428e-06
6.72051e-07
1.14963e-06
5.55994e-07
7.16501e-07
4.65e-07
5.0146e-07
3.92318e-07
3.80482e-07
3.32227e-07
3.05783e-07
2.8096e-07
2.56551e-07
2.36021e-07
2.22562e-07
1.95704e-07
1.98338e-07
1.58798e-07
1.80748e-07
1.24408e-07
1.67908e-07
9.18468e-08
1.58646e-07
6.05616e-08
1.52218e-07
3.00847e-08
1.48159e-07
1.46193e-07
-3.27623e-08
1.78955e-07
-6.59394e-08
1.81336e-07
-9.99703e-08
1.86249e-07
-1.35345e-07
1.9402e-07
-1.72636e-07
2.05199e-07
-2.12547e-07
2.20659e-07
-2.55974e-07
2.41765e-07
-3.04094e-07
2.70683e-07
-3.585e-07
3.10957e-07
-4.21361e-07
3.68644e-07
-4.9554e-07
4.54661e-07
-5.84082e-07
5.90002e-07
-6.85266e-07
8.17684e-07
-7.59807e-07
1.22417e-06
-6.06326e-07
1.8908e-06
-4.2123e-07
2.20248e-06
-3.66941e-07
2.13619e-06
-5.37992e-07
2.04081e-06
-1.00473e-07
2.81671e-06
-3.41639e-07
2.19429e-06
9.9423e-08
2.83784e-06
-2.18292e-07
1.9949e-06
2.19368e-07
2.55567e-06
-7.46946e-07
1.16984e-06
-5.20106e-06
5.34915e-06
-5.58885e-06
2.55322e-07
-5.90455e-06
1.14452e-07
-5.49572e-06
-1.40076e-06
-5.53032e-06
-3.94722e-07
-5.58724e-06
-2.82209e-07
-5.41856e-06
-9.23341e-07
-5.45097e-06
-9.54924e-07
-5.433e-06
-8.55866e-07
-5.29973e-06
-1.35979e-06
-5.0807e-06
-1.93483e-06
-4.75975e-06
-2.6546e-06
-4.18851e-06
-3.7069e-06
-3.16345e-06
-5.09625e-06
-1.7055e-06
-6.35626e-06
-1.72045e-17
-7.08299e-06
1.7055e-06
-7.08299e-06
3.16345e-06
-6.35626e-06
4.18851e-06
-5.09625e-06
4.75975e-06
-3.7069e-06
5.0807e-06
-2.6546e-06
5.29973e-06
-1.93483e-06
5.433e-06
-1.35979e-06
5.45097e-06
-8.55866e-07
5.41856e-06
-9.54924e-07
5.58724e-06
-9.23341e-07
5.53032e-06
-2.82209e-07
5.49572e-06
-3.94722e-07
5.90455e-06
-1.40076e-06
5.58885e-06
1.14452e-07
5.20106e-06
2.55322e-07
7.46946e-07
5.34915e-06
-2.19368e-07
1.16984e-06
2.18292e-07
2.55567e-06
-9.9423e-08
1.9949e-06
3.41639e-07
2.83784e-06
1.00473e-07
2.19429e-06
5.37992e-07
2.81671e-06
3.66941e-07
2.04081e-06
4.2123e-07
2.13619e-06
6.06326e-07
2.20248e-06
7.59807e-07
1.8908e-06
6.85266e-07
1.22417e-06
5.84082e-07
8.17684e-07
4.9554e-07
5.90002e-07
4.21361e-07
4.54661e-07
3.585e-07
3.68644e-07
3.04094e-07
3.10957e-07
2.55974e-07
2.70683e-07
2.12547e-07
2.41765e-07
1.72636e-07
2.20659e-07
1.35345e-07
2.05199e-07
9.99703e-08
1.9402e-07
6.59394e-08
1.86249e-07
3.27623e-08
1.81336e-07
1.78955e-07
-3.55915e-08
2.14547e-07
-7.16164e-08
2.17361e-07
-1.08531e-07
2.23164e-07
-1.46839e-07
2.32328e-07
-1.87125e-07
2.45484e-07
-2.30087e-07
2.63621e-07
-2.76593e-07
2.88271e-07
-3.27738e-07
3.21827e-07
-3.84903e-07
3.68123e-07
-4.4977e-07
4.3351e-07
-5.24027e-07
5.28918e-07
-6.07842e-07
6.73818e-07
-6.9307e-07
9.02912e-07
-7.37358e-07
1.26846e-06
-6.20143e-07
1.77359e-06
-4.71563e-07
2.0539e-06
-4.16207e-07
2.08083e-06
-4.78329e-07
2.10294e-06
-1.99849e-07
2.53823e-06
-2.82026e-07
2.27647e-06
-1.23611e-08
2.56817e-06
-1.58659e-07
2.1412e-06
4.11734e-08
2.35584e-06
-6.21742e-07
1.83276e-06
8.44301e-07
3.88311e-06
-3.23375e-07
1.423e-06
-3.14129e-06
2.93237e-06
-5.16432e-06
6.22268e-07
-5.73509e-06
1.76045e-07
-6.06156e-06
4.42578e-08
-5.84469e-06
-1.14021e-06
-6.0869e-06
-7.12718e-07
-6.24654e-06
-6.96221e-07
-6.1568e-06
-1.44953e-06
-6.02636e-06
-2.06527e-06
-5.92151e-06
-2.75946e-06
-5.54876e-06
-4.07965e-06
-4.34486e-06
-6.30014e-06
-2.37729e-06
-8.32383e-06
-1.02135e-17
-9.46029e-06
2.37729e-06
-9.46029e-06
4.34486e-06
-8.32383e-06
5.54876e-06
-6.30014e-06
5.92151e-06
-4.07965e-06
6.02636e-06
-2.75946e-06
6.1568e-06
-2.06527e-06
6.24654e-06
-1.44953e-06
6.0869e-06
-6.96221e-07
5.84469e-06
-7.12718e-07
6.06156e-06
-1.14021e-06
5.73509e-06
4.42578e-08
5.16432e-06
1.76045e-07
3.14129e-06
6.22268e-07
3.23375e-07
2.93237e-06
-8.44301e-07
1.423e-06
6.21742e-07
3.88311e-06
-4.11734e-08
1.83276e-06
1.58659e-07
2.35584e-06
1.23611e-08
2.1412e-06
2.82026e-07
2.56817e-06
1.99849e-07
2.27647e-06
4.78329e-07
2.53823e-06
4.16207e-07
2.10294e-06
4.71563e-07
2.08083e-06
6.20143e-07
2.0539e-06
7.37358e-07
1.77359e-06
6.9307e-07
1.26846e-06
6.07842e-07
9.02912e-07
5.24027e-07
6.73818e-07
4.4977e-07
5.28918e-07
3.84903e-07
4.3351e-07
3.27738e-07
3.68123e-07
2.76593e-07
3.21827e-07
2.30087e-07
2.88271e-07
1.87125e-07
2.63621e-07
1.46839e-07
2.45484e-07
1.08531e-07
2.32328e-07
7.16164e-08
2.23164e-07
3.55915e-08
2.17361e-07
2.14547e-07
-3.855e-08
2.53097e-07
-7.75452e-08
2.56356e-07
-1.17451e-07
2.6307e-07
-1.58777e-07
2.73654e-07
-2.021e-07
2.88807e-07
-2.48094e-07
3.09615e-07
-2.9756e-07
3.37737e-07
-3.51449e-07
3.75716e-07
-4.10842e-07
4.27516e-07
-4.76787e-07
4.99455e-07
-5.49658e-07
6.01789e-07
-6.27e-07
7.5116e-07
-6.96837e-07
9.72749e-07
-7.21227e-07
1.29285e-06
-6.31618e-07
1.68398e-06
-5.12555e-07
1.93484e-06
-4.52676e-07
2.02095e-06
-4.49219e-07
2.09948e-06
-2.64554e-07
2.35356e-06
-2.58789e-07
2.27071e-06
-8.75421e-08
2.39693e-06
-1.3683e-07
2.19049e-06
-4.54765e-08
2.26448e-06
-3.26669e-07
2.11395e-06
4.99776e-07
3.05666e-06
4.57658e-08
1.87701e-06
6.25134e-07
2.353e-06
1.35747e-07
1.11165e-06
-6.71703e-07
9.83496e-07
-4.04982e-06
3.42237e-06
-5.61848e-06
4.28458e-07
-6.48865e-06
1.57452e-07
-7.23081e-06
4.59358e-08
-7.09743e-06
-1.58291e-06
-7.07966e-06
-2.08304e-06
-7.54427e-06
-2.29484e-06
-7.94389e-06
-3.68003e-06
-6.47552e-06
-7.76852e-06
-3.57151e-06
-1.12278e-05
-4.80979e-17
-1.30318e-05
3.57151e-06
-1.30318e-05
6.47552e-06
-1.12278e-05
7.94389e-06
-7.76852e-06
7.54427e-06
-3.68003e-06
7.07966e-06
-2.29484e-06
7.09743e-06
-2.08304e-06
7.23081e-06
-1.58291e-06
6.48865e-06
4.59358e-08
5.61848e-06
1.57452e-07
4.04982e-06
4.28458e-07
6.71703e-07
3.42237e-06
-1.35747e-07
9.83496e-07
-6.25134e-07
1.11165e-06
-4.57658e-08
2.353e-06
-4.99776e-07
1.87701e-06
3.26669e-07
3.05666e-06
4.54765e-08
2.11395e-06
1.3683e-07
2.26448e-06
8.75421e-08
2.19049e-06
2.58789e-07
2.39693e-06
2.64554e-07
2.27071e-06
4.49219e-07
2.35356e-06
4.52676e-07
2.09948e-06
5.12555e-07
2.02095e-06
6.31618e-07
1.93484e-06
7.21227e-07
1.68398e-06
6.96837e-07
1.29285e-06
6.27e-07
9.72749e-07
5.49658e-07
7.5116e-07
4.76787e-07
6.01789e-07
4.10842e-07
4.99455e-07
3.51449e-07
4.27516e-07
2.9756e-07
3.75716e-07
2.48094e-07
3.37737e-07
2.021e-07
3.09615e-07
1.58777e-07
2.88807e-07
1.17451e-07
2.73654e-07
7.75452e-08
2.6307e-07
3.855e-08
2.56356e-07
2.53097e-07
-4.16032e-08
2.947e-07
-8.3654e-08
2.98407e-07
-1.26617e-07
3.06033e-07
-1.70992e-07
3.18029e-07
-2.17331e-07
3.35146e-07
-2.66254e-07
3.58538e-07
-3.18455e-07
3.89938e-07
-3.7468e-07
4.31941e-07
-4.35626e-07
4.88462e-07
-5.0162e-07
5.6545e-07
-5.71742e-07
6.7191e-07
-6.41518e-07
8.20936e-07
-6.97582e-07
1.02881e-06
-7.09526e-07
1.30479e-06
-6.40482e-07
1.61494e-06
-5.44232e-07
1.83859e-06
-4.80137e-07
1.95686e-06
-4.3975e-07
2.05909e-06
-3.07441e-07
2.22125e-06
-2.57535e-07
2.2208e-06
-1.39052e-07
2.27844e-06
-1.34653e-07
2.18609e-06
-8.12592e-08
2.21109e-06
-1.61787e-07
2.19448e-06
3.02264e-07
2.59261e-06
1.49419e-07
2.02985e-06
4.269e-07
2.07552e-06
1.22178e-07
1.41638e-06
-2.85388e-07
1.39106e-06
7.06135e-07
2.43085e-06
1.21059e-07
1.01353e-06
-6.75413e-07
9.53925e-07
-1.73087e-06
1.10139e-06
-4.20627e-06
8.92495e-07
-6.42004e-06
1.30729e-07
-8.7893e-06
7.44181e-08
-1.24537e-05
-1.56251e-08
-1.04392e-05
-9.78302e-06
-5.72731e-06
-1.59397e-05
-2.67662e-17
-1.87591e-05
5.72731e-06
-1.87591e-05
1.04392e-05
-1.59397e-05
1.24537e-05
-9.78302e-06
8.7893e-06
-1.56251e-08
6.42004e-06
7.44181e-08
4.20627e-06
1.30729e-07
1.73087e-06
8.92495e-07
6.75413e-07
1.10139e-06
-1.21059e-07
9.53925e-07
-7.06135e-07
1.01353e-06
2.85388e-07
2.43085e-06
-1.22178e-07
1.39106e-06
-4.269e-07
1.41638e-06
-1.49419e-07
2.07552e-06
-3.02264e-07
2.02985e-06
1.61787e-07
2.59261e-06
8.12592e-08
2.19448e-06
1.34653e-07
2.21109e-06
1.39052e-07
2.18609e-06
2.57535e-07
2.27844e-06
3.07441e-07
2.2208e-06
4.3975e-07
2.22125e-06
4.80137e-07
2.05909e-06
5.44232e-07
1.95686e-06
6.40482e-07
1.83859e-06
7.09526e-07
1.61494e-06
6.97582e-07
1.30479e-06
6.41518e-07
1.02881e-06
5.71742e-07
8.20936e-07
5.0162e-07
6.7191e-07
4.35626e-07
5.6545e-07
3.7468e-07
4.88462e-07
3.18455e-07
4.31941e-07
2.66254e-07
3.89938e-07
2.17331e-07
3.58538e-07
1.70992e-07
3.35146e-07
1.26617e-07
3.18029e-07
8.3654e-08
3.06033e-07
4.16032e-08
2.98407e-07
2.947e-07
-4.47019e-08
3.39402e-07
-8.98414e-08
3.43546e-07
-1.35868e-07
3.5206e-07
-1.83256e-07
3.65417e-07
-2.32508e-07
3.84398e-07
-2.84159e-07
4.1019e-07
-3.38756e-07
4.44534e-07
-3.96784e-07
4.8997e-07
-4.58499e-07
5.50177e-07
-5.23492e-07
6.30443e-07
-5.89729e-07
7.38147e-07
-6.51503e-07
8.82711e-07
-6.95916e-07
1.07323e-06
-7.0045e-07
1.30933e-06
-6.46411e-07
1.5609e-06
-5.67268e-07
1.75944e-06
-5.00989e-07
1.89058e-06
-4.41663e-07
1.99977e-06
-3.37322e-07
2.11691e-06
-2.68016e-07
2.15149e-06
-1.75676e-07
2.1861e-06
-1.41421e-07
2.15183e-06
-9.32931e-08
2.16296e-06
-7.76094e-08
2.17879e-06
1.90405e-07
2.3246e-06
1.75339e-07
2.04492e-06
3.02938e-07
1.94792e-06
1.27659e-07
1.59166e-06
-5.22681e-08
1.57099e-06
4.19079e-07
1.9595e-06
1.17833e-07
1.31478e-06
-2.01688e-07
1.27345e-06
1.28599e-07
7.71102e-07
3.07209e-07
7.13885e-07
-1.1214e-07
5.50079e-07
-6.58364e-07
6.20642e-07
-1.3726e-06
6.98607e-07
-1.06333e-05
-5.22323e-07
-8.46901e-06
-1.8104e-05
3.53047e-18
-2.72281e-05
8.46901e-06
-2.72281e-05
1.06333e-05
-1.8104e-05
1.3726e-06
-5.22323e-07
6.58364e-07
6.98607e-07
1.1214e-07
6.20642e-07
-3.07209e-07
5.50079e-07
-1.28599e-07
7.13885e-07
2.01688e-07
7.71102e-07
-1.17833e-07
1.27345e-06
-4.19079e-07
1.31478e-06
5.22681e-08
1.9595e-06
-1.27659e-07
1.57099e-06
-3.02938e-07
1.59166e-06
-1.75339e-07
1.94792e-06
-1.90405e-07
2.04492e-06
7.76094e-08
2.3246e-06
9.32931e-08
2.17879e-06
1.41421e-07
2.16296e-06
1.75676e-07
2.15183e-06
2.68016e-07
2.1861e-06
3.37322e-07
2.15149e-06
4.41663e-07
2.11691e-06
5.00989e-07
1.99977e-06
5.67268e-07
1.89058e-06
6.46411e-07
1.75944e-06
7.0045e-07
1.5609e-06
6.95916e-07
1.30933e-06
6.51503e-07
1.07323e-06
5.89729e-07
8.82711e-07
5.23492e-07
7.38147e-07
4.58499e-07
6.30443e-07
3.96784e-07
5.50177e-07
3.38756e-07
4.8997e-07
2.84159e-07
4.44534e-07
2.32508e-07
4.1019e-07
1.83256e-07
3.84398e-07
1.35868e-07
3.65417e-07
8.98414e-08
3.5206e-07
4.47019e-08
3.43546e-07
3.39402e-07
-4.77798e-08
3.87182e-07
-9.5972e-08
3.91739e-07
-1.44994e-07
4.01082e-07
-1.95273e-07
4.15695e-07
-2.47239e-07
4.36364e-07
-3.01312e-07
4.64262e-07
-3.57848e-07
5.01071e-07
-4.17039e-07
5.49161e-07
-4.78677e-07
6.11815e-07
-5.41686e-07
6.93452e-07
-6.03216e-07
7.99678e-07
-6.57109e-07
9.36603e-07
-6.9207e-07
1.10819e-06
-6.92376e-07
1.30963e-06
-6.491e-07
1.51762e-06
-5.82631e-07
1.69297e-06
-5.16557e-07
1.8245e-06
-4.49086e-07
1.9323e-06
-3.5955e-07
2.02738e-06
-2.83525e-07
2.07547e-06
-2.03025e-07
2.10561e-06
-1.51757e-07
2.10056e-06
-9.75498e-08
2.10875e-06
-4.11363e-08
2.12238e-06
1.24464e-07
2.159e-06
1.63053e-07
2.00633e-06
2.2479e-07
1.88618e-06
1.33784e-07
1.68266e-06
5.98808e-08
1.64489e-06
2.65152e-07
1.75423e-06
1.16772e-07
1.46316e-06
-2.84246e-08
1.41864e-06
5.36645e-08
6.89013e-07
8.6774e-08
6.80776e-07
-1.52223e-08
6.52075e-07
-6.30802e-08
6.685e-07
-6.56107e-08
7.01138e-07
-3.25827e-07
-2.62107e-07
-3.01605e-06
-1.54138e-05
5.19712e-17
-3.02442e-05
3.01605e-06
-3.02442e-05
3.25827e-07
-1.54138e-05
6.56107e-08
-2.62107e-07
6.30802e-08
7.01138e-07
1.52223e-08
6.685e-07
-8.6774e-08
6.52075e-07
-5.36645e-08
6.80776e-07
2.84246e-08
6.89013e-07
-1.16772e-07
1.41864e-06
-2.65152e-07
1.46316e-06
-5.98808e-08
1.75423e-06
-1.33784e-07
1.64489e-06
-2.2479e-07
1.68266e-06
-1.63053e-07
1.88618e-06
-1.24464e-07
2.00633e-06
4.11363e-08
2.159e-06
9.75498e-08
2.12238e-06
1.51757e-07
2.10875e-06
2.03025e-07
2.10056e-06
2.83525e-07
2.10561e-06
3.5955e-07
2.07547e-06
4.49086e-07
2.02738e-06
5.16557e-07
1.9323e-06
5.82631e-07
1.8245e-06
6.491e-07
1.69297e-06
6.92376e-07
1.51762e-06
6.9207e-07
1.30963e-06
6.57109e-07
1.10819e-06
6.03216e-07
9.36603e-07
5.41686e-07
7.99678e-07
4.78677e-07
6.93452e-07
4.17039e-07
6.11815e-07
3.57848e-07
5.49161e-07
3.01312e-07
5.01071e-07
2.47239e-07
4.64262e-07
1.95273e-07
4.36364e-07
1.44994e-07
4.15695e-07
9.5972e-08
4.01082e-07
4.77798e-08
3.91739e-07
3.87182e-07
-5.07522e-08
4.37934e-07
-1.01873e-07
4.4286e-07
-1.5373e-07
4.52938e-07
-2.06679e-07
4.68644e-07
-2.61053e-07
4.90739e-07
-3.17127e-07
5.20335e-07
-3.75043e-07
5.58987e-07
-4.3468e-07
6.08798e-07
-4.95396e-07
6.72531e-07
-5.55581e-07
7.53638e-07
-6.11927e-07
8.56024e-07
-6.5846e-07
9.83136e-07
-6.85967e-07
1.13569e-06
-6.83927e-07
1.30759e-06
-6.48307e-07
1.482e-06
-5.91307e-07
1.63597e-06
-5.2745e-07
1.76065e-06
-4.58061e-07
1.86291e-06
-3.76908e-07
1.94622e-06
-3.0004e-07
1.9986e-06
-2.24513e-07
2.03008e-06
-1.63479e-07
2.03953e-06
-1.0205e-07
2.04732e-06
-3.18294e-08
2.05216e-06
8.11069e-08
2.04606e-06
1.35235e-07
1.9522e-06
1.7269e-07
1.84873e-06
1.33028e-07
1.72233e-06
1.05362e-07
1.67256e-06
1.85184e-07
1.67441e-06
1.11922e-07
1.53642e-06
3.49737e-08
1.49559e-06
4.37263e-08
6.8026e-07
4.24426e-08
6.82059e-07
1.34815e-08
6.81036e-07
-7.34006e-09
6.89321e-07
-1.00897e-08
7.03887e-07
-4.88616e-08
-2.23335e-07
-5.74723e-07
-1.48879e-05
1.16539e-17
-3.08189e-05
5.74723e-07
-3.08189e-05
4.88616e-08
-1.48879e-05
1.00897e-08
-2.23335e-07
7.34006e-09
7.03887e-07
-1.34815e-08
6.89321e-07
-4.24426e-08
6.81036e-07
-4.37263e-08
6.82059e-07
-3.49737e-08
6.8026e-07
-1.11922e-07
1.49559e-06
-1.85184e-07
1.53642e-06
-1.05362e-07
1.67441e-06
-1.33028e-07
1.67256e-06
-1.7269e-07
1.72233e-06
-1.35235e-07
1.84873e-06
-8.11069e-08
1.9522e-06
3.18294e-08
2.04606e-06
1.0205e-07
2.05216e-06
1.63479e-07
2.04732e-06
2.24513e-07
2.03953e-06
3.0004e-07
2.03008e-06
3.76908e-07
1.9986e-06
4.58061e-07
1.94622e-06
5.2745e-07
1.86291e-06
5.91307e-07
1.76065e-06
6.48307e-07
1.63597e-06
6.83927e-07
1.482e-06
6.85967e-07
1.30759e-06
6.5846e-07
1.13569e-06
6.11927e-07
9.83136e-07
5.55581e-07
8.56024e-07
4.95396e-07
7.53638e-07
4.3468e-07
6.72531e-07
3.75043e-07
6.08798e-07
3.17127e-07
5.58987e-07
2.61053e-07
5.20335e-07
2.06679e-07
4.90739e-07
1.5373e-07
4.68644e-07
1.01873e-07
4.52938e-07
5.07522e-08
4.4286e-07
4.37934e-07
-5.35157e-08
4.9145e-07
-1.07337e-07
4.96681e-07
-1.61757e-07
5.07359e-07
-2.17043e-07
5.23931e-07
-2.73407e-07
5.47103e-07
-3.30956e-07
5.77885e-07
-3.89608e-07
6.17638e-07
-4.4894e-07
6.6813e-07
-5.07949e-07
7.3154e-07
-5.64671e-07
8.1036e-07
-6.15677e-07
9.07029e-07
-6.55605e-07
1.02306e-06
-6.7733e-07
1.15742e-06
-6.73998e-07
1.30426e-06
-6.43851e-07
1.45185e-06
-5.94125e-07
1.58625e-06
-5.33871e-07
1.70039e-06
-4.66035e-07
1.79507e-06
-3.90533e-07
1.87072e-06
-3.15347e-07
1.92341e-06
-2.42123e-07
1.95685e-06
-1.75905e-07
1.97331e-06
-1.09819e-07
1.98124e-06
-3.75741e-08
1.97991e-06
4.79788e-08
1.96051e-06
1.0315e-07
1.89703e-06
1.34219e-07
1.81766e-06
1.24178e-07
1.73237e-06
1.16373e-07
1.68036e-06
1.42865e-07
1.64792e-06
1.04933e-07
1.57435e-06
5.95151e-08
1.54101e-06
5.19378e-08
6.87837e-07
4.42907e-08
6.89707e-07
3.30997e-08
6.92227e-07
2.50756e-08
6.97345e-07
2.43725e-08
7.0459e-07
5.88737e-09
-2.0485e-07
-2.82225e-07
-1.45998e-05
-9.45927e-18
-3.11011e-05
2.82225e-07
-3.11011e-05
-5.88737e-09
-1.45998e-05
-2.43725e-08
-2.0485e-07
-2.50756e-08
7.0459e-07
-3.30997e-08
6.97345e-07
-4.42907e-08
6.92227e-07
-5.19378e-08
6.89707e-07
-5.95151e-08
6.87837e-07
-1.04933e-07
1.54101e-06
-1.42865e-07
1.57435e-06
-1.16373e-07
1.64792e-06
-1.24178e-07
1.68036e-06
-1.34219e-07
1.73237e-06
-1.0315e-07
1.81766e-06
-4.79788e-08
1.89703e-06
3.75741e-08
1.96051e-06
1.09819e-07
1.97991e-06
1.75905e-07
1.98124e-06
2.42123e-07
1.97331e-06
3.15347e-07
1.95685e-06
3.90533e-07
1.92341e-06
4.66035e-07
1.87072e-06
5.33871e-07
1.79507e-06
5.94125e-07
1.70039e-06
6.43851e-07
1.58625e-06
6.73998e-07
1.45185e-06
6.7733e-07
1.30426e-06
6.55605e-07
1.15742e-06
6.15677e-07
1.02306e-06
5.64671e-07
9.07029e-07
5.07949e-07
8.1036e-07
4.4894e-07
7.3154e-07
3.89608e-07
6.6813e-07
3.30956e-07
6.17638e-07
2.73407e-07
5.77885e-07
2.17043e-07
5.47103e-07
1.61757e-07
5.23931e-07
1.07337e-07
5.07359e-07
5.35157e-08
4.96681e-07
4.9145e-07
-5.59496e-08
5.47399e-07
-1.12121e-07
5.52852e-07
-1.68714e-07
5.63952e-07
-2.25887e-07
5.81103e-07
-2.83711e-07
6.04928e-07
-3.4212e-07
6.36293e-07
-4.0081e-07
6.76328e-07
-4.59101e-07
7.26422e-07
-5.1573e-07
7.88168e-07
-5.68568e-07
8.63198e-07
-6.1434e-07
9.52802e-07
-6.48512e-07
1.05724e-06
-6.6578e-07
1.17469e-06
-6.61731e-07
1.30021e-06
-6.35599e-07
1.42572e-06
-5.91695e-07
1.54234e-06
-5.35831e-07
1.64453e-06
-4.71423e-07
1.73066e-06
-4.00667e-07
1.79996e-06
-3.28316e-07
1.85106e-06
-2.56922e-07
1.88546e-06
-1.88775e-07
1.90517e-06
-1.21148e-07
1.91361e-06
-5.14057e-08
1.91017e-06
1.92813e-08
1.88982e-06
7.1447e-08
1.84486e-06
1.02413e-07
1.78669e-06
1.08886e-07
1.72589e-06
1.10597e-07
1.67865e-06
1.18058e-07
1.64045e-06
9.75792e-08
1.59483e-06
7.00953e-08
1.56849e-06
6.19374e-08
6.95995e-07
5.52829e-08
6.96361e-07
4.99136e-08
6.97597e-07
4.75925e-08
6.99666e-07
5.03948e-08
7.01788e-07
3.0545e-08
-1.85e-07
-2.10774e-07
-1.43585e-05
6.33091e-18
-3.13119e-05
2.10774e-07
-3.13119e-05
-3.0545e-08
-1.43585e-05
-5.03948e-08
-1.85e-07
-4.75925e-08
7.01788e-07
-4.99136e-08
6.99666e-07
-5.52829e-08
6.97597e-07
-6.19374e-08
6.96361e-07
-7.00953e-08
6.95995e-07
-9.75792e-08
1.56849e-06
-1.18058e-07
1.59483e-06
-1.10597e-07
1.64045e-06
-1.08886e-07
1.67865e-06
-1.02413e-07
1.72589e-06
-7.1447e-08
1.78669e-06
-1.92813e-08
1.84486e-06
5.14057e-08
1.88982e-06
1.21148e-07
1.91017e-06
1.88775e-07
1.91361e-06
2.56922e-07
1.90517e-06
3.28316e-07
1.88546e-06
4.00667e-07
1.85106e-06
4.71423e-07
1.79996e-06
5.35831e-07
1.73066e-06
5.91695e-07
1.64453e-06
6.35599e-07
1.54234e-06
6.61731e-07
1.42572e-06
6.6578e-07
1.30021e-06
6.48512e-07
1.17469e-06
6.1434e-07
1.05724e-06
5.68568e-07
9.52802e-07
5.1573e-07
8.63198e-07
4.59101e-07
7.88168e-07
4.0081e-07
7.26422e-07
3.4212e-07
6.76328e-07
2.83711e-07
6.36293e-07
2.25887e-07
6.04928e-07
1.68714e-07
5.81103e-07
1.12121e-07
5.63952e-07
5.59496e-08
5.52852e-07
5.47399e-07
-5.79216e-08
6.05321e-07
-1.15962e-07
6.10892e-07
-1.74212e-07
6.22203e-07
-2.32703e-07
6.39594e-07
-2.91362e-07
6.63586e-07