/*--------------------------------*- C++ -*----------------------------------*\
  =========                 |
  \\      /  F ield         | OpenFOAM: The Open Source CFD Toolbox
   \\    /   O peration     | Website:  https://openfoam.org
    \\  /    A nd           | Version:  10
     \\/     M anipulation  |
\*---------------------------------------------------------------------------*/
FoamFile
{
    format      ascii;
    class       volScalarField;
    location    "4.8";
    object      p;
}
// * * * * * * * * * * * * * * * * * * * * * * * * * * * * * * * * * * * * * //

dimensions      [1 -1 -2 0 0 0 0];

internalField   nonuniform List<scalar> 
12225
(
9.85731e+06
9.85735e+06
9.85743e+06
9.85756e+06
9.85777e+06
9.85809e+06
9.85856e+06
9.85924e+06
9.86019e+06
9.86152e+06
9.86332e+06
9.86571e+06
9.86885e+06
9.87288e+06
9.87798e+06
9.88439e+06
9.89249e+06
9.9032e+06
9.85731e+06
9.85734e+06
9.85742e+06
9.85755e+06
9.85776e+06
9.85807e+06
9.85854e+06
9.85921e+06
9.86016e+06
9.86147e+06
9.86325e+06
9.86562e+06
9.86873e+06
9.87272e+06
9.87777e+06
9.8841e+06
9.89202e+06
9.90207e+06
9.8573e+06
9.85733e+06
9.85741e+06
9.85754e+06
9.85774e+06
9.85805e+06
9.8585e+06
9.85915e+06
9.86008e+06
9.86136e+06
9.8631e+06
9.86543e+06
9.86847e+06
9.87238e+06
9.87733e+06
9.88349e+06
9.89107e+06
9.90027e+06
9.85729e+06
9.85732e+06
9.8574e+06
9.85752e+06
9.85771e+06
9.85801e+06
9.85844e+06
9.85907e+06
9.85995e+06
9.86118e+06
9.86286e+06
9.8651e+06
9.86804e+06
9.87182e+06
9.87659e+06
9.8825e+06
9.88966e+06
9.89801e+06
9.85728e+06
9.85731e+06
9.85738e+06
9.85749e+06
9.85767e+06
9.85795e+06
9.85835e+06
9.85894e+06
9.85977e+06
9.86093e+06
9.86251e+06
9.86463e+06
9.86742e+06
9.87101e+06
9.87554e+06
9.88112e+06
9.88779e+06
9.89538e+06
9.85726e+06
9.85729e+06
9.85735e+06
9.85745e+06
9.85762e+06
9.85787e+06
9.85823e+06
9.85877e+06
9.85952e+06
9.86058e+06
9.86203e+06
9.86398e+06
9.86656e+06
9.8699e+06
9.87412e+06
9.87931e+06
9.88546e+06
9.89238e+06
9.85724e+06
9.85727e+06
9.85732e+06
9.85741e+06
9.85755e+06
9.85776e+06
9.85808e+06
9.85854e+06
9.8592e+06
9.86013e+06
9.86141e+06
9.86314e+06
9.86545e+06
9.86847e+06
9.8723e+06
9.87703e+06
9.88265e+06
9.88898e+06
9.85722e+06
9.85724e+06
9.85728e+06
9.85735e+06
9.85746e+06
9.85764e+06
9.85789e+06
9.85827e+06
9.85881e+06
9.85957e+06
9.86063e+06
9.86209e+06
9.86406e+06
9.86666e+06
9.87002e+06
9.87423e+06
9.87929e+06
9.8851e+06
9.85719e+06
9.85721e+06
9.85724e+06
9.85728e+06
9.85736e+06
9.85748e+06
9.85767e+06
9.85794e+06
9.85833e+06
9.85889e+06
9.85969e+06
9.8608e+06
9.86234e+06
9.86444e+06
9.86722e+06
9.87082e+06
9.8753e+06
9.88061e+06
9.85716e+06
9.85717e+06
9.85718e+06
9.85721e+06
9.85725e+06
9.85731e+06
9.85741e+06
9.85755e+06
9.85777e+06
9.85809e+06
9.85857e+06
9.85927e+06
9.86029e+06
9.86177e+06
9.86385e+06
9.86673e+06
9.87054e+06
9.87535e+06
9.85713e+06
9.85713e+06
9.85713e+06
9.85712e+06
9.85712e+06
9.85711e+06
9.85711e+06
9.85712e+06
9.85714e+06
9.85718e+06
9.85729e+06
9.8575e+06
9.8579e+06
9.85862e+06
9.85984e+06
9.8618e+06
9.8648e+06
9.86905e+06
9.8571e+06
9.85709e+06
9.85707e+06
9.85704e+06
9.85699e+06
9.85692e+06
9.85682e+06
9.85669e+06
9.8565e+06
9.85627e+06
9.85599e+06
9.85569e+06
9.85541e+06
9.85528e+06
9.85549e+06
9.85637e+06
9.85836e+06
9.86193e+06
9.85706e+06
9.85705e+06
9.85701e+06
9.85695e+06
9.85686e+06
9.85672e+06
9.85653e+06
9.85625e+06
9.85586e+06
9.85533e+06
9.85464e+06
9.85378e+06
9.85274e+06
9.85162e+06
9.85061e+06
9.85008e+06
9.85068e+06
9.85328e+06
9.85703e+06
9.857e+06
9.85695e+06
9.85686e+06
9.85672e+06
9.85651e+06
9.8562e+06
9.85576e+06
9.85513e+06
9.85427e+06
9.8531e+06
9.85155e+06
9.84957e+06
9.84713e+06
9.84434e+06
9.84158e+06
9.83968e+06
9.84026e+06
9.85699e+06
9.85696e+06
9.85689e+06
9.85677e+06
9.85658e+06
9.8563e+06
9.85588e+06
9.85528e+06
9.85442e+06
9.85321e+06
9.85154e+06
9.84925e+06
9.84616e+06
9.84207e+06
9.8368e+06
9.83036e+06
9.82336e+06
9.81829e+06
9.85697e+06
9.85693e+06
9.85684e+06
9.8567e+06
9.85648e+06
9.85614e+06
9.85565e+06
9.85493e+06
9.85391e+06
9.85244e+06
9.85038e+06
9.8475e+06
9.84346e+06
9.83779e+06
9.82973e+06
9.81804e+06
9.80049e+06
9.77291e+06
1.9795e+07
1.97118e+07
1.96511e+07
1.95998e+07
1.95531e+07
1.95087e+07
1.94654e+07
1.94226e+07
1.938e+07
1.93371e+07
1.92938e+07
1.92497e+07
1.92043e+07
1.91573e+07
1.91081e+07
1.90557e+07
1.89991e+07
1.89366e+07
1.97307e+07
1.96894e+07
1.96423e+07
1.95963e+07
1.95521e+07
1.95096e+07
1.94682e+07
1.94275e+07
1.93872e+07
1.93471e+07
1.93072e+07
1.92674e+07
1.92277e+07
1.91883e+07
1.91496e+07
1.91124e+07
1.90782e+07
1.90497e+07
1.96635e+07
1.96428e+07
1.96122e+07
1.95774e+07
1.9541e+07
1.95041e+07
1.94672e+07
1.94307e+07
1.93945e+07
1.93589e+07
1.9324e+07
1.929e+07
1.92571e+07
1.92257e+07
1.91962e+07
1.91693e+07
1.91455e+07
1.91255e+07
1.962e+07
1.96066e+07
1.95846e+07
1.95574e+07
1.95273e+07
1.94958e+07
1.94636e+07
1.94313e+07
1.93993e+07
1.93679e+07
1.93373e+07
1.93078e+07
1.92797e+07
1.92532e+07
1.92287e+07
1.92064e+07
1.91866e+07
1.91693e+07
1.95936e+07
1.95834e+07
1.95656e+07
1.95428e+07
1.95168e+07
1.94889e+07
1.946e+07
1.94308e+07
1.94018e+07
1.93732e+07
1.93455e+07
1.9319e+07
1.92937e+07
1.92701e+07
1.92482e+07
1.92282e+07
1.92102e+07
1.91942e+07
1.95755e+07
1.95669e+07
1.95517e+07
1.95317e+07
1.95085e+07
1.94833e+07
1.94568e+07
1.94299e+07
1.94031e+07
1.93767e+07
1.93511e+07
1.93265e+07
1.93032e+07
1.92814e+07
1.92611e+07
1.92425e+07
1.92256e+07
1.92104e+07
1.95629e+07
1.95553e+07
1.95417e+07
1.95236e+07
1.95023e+07
1.94788e+07
1.94542e+07
1.9429e+07
1.94037e+07
1.93789e+07
1.93547e+07
1.93315e+07
1.93096e+07
1.92889e+07
1.92697e+07
1.9252e+07
1.92358e+07
1.92211e+07
1.95541e+07
1.95471e+07
1.95346e+07
1.95177e+07
1.94977e+07
1.94755e+07
1.94521e+07
1.94281e+07
1.9404e+07
1.93802e+07
1.93571e+07
1.93349e+07
1.93138e+07
1.92939e+07
1.92754e+07
1.92583e+07
1.92426e+07
1.92283e+07
1.9548e+07
1.95415e+07
1.95296e+07
1.95135e+07
1.94944e+07
1.94731e+07
1.94506e+07
1.94274e+07
1.9404e+07
1.9381e+07
1.93586e+07
1.9337e+07
1.93166e+07
1.92973e+07
1.92792e+07
1.92625e+07
1.92471e+07
1.9233e+07
1.95439e+07
1.95377e+07
1.95262e+07
1.95107e+07
1.94921e+07
1.94714e+07
1.94495e+07
1.94268e+07
1.9404e+07
1.93815e+07
1.93595e+07
1.93384e+07
1.93183e+07
1.92994e+07
1.92817e+07
1.92653e+07
1.92501e+07
1.92361e+07
1.95413e+07
1.95351e+07
1.9524e+07
1.95088e+07
1.94906e+07
1.94703e+07
1.94487e+07
1.94264e+07
1.94039e+07
1.93817e+07
1.93601e+07
1.93393e+07
1.93195e+07
1.93008e+07
1.92832e+07
1.9267e+07
1.92519e+07
1.92381e+07
1.95396e+07
1.95336e+07
1.95226e+07
1.95076e+07
1.94896e+07
1.94696e+07
1.94482e+07
1.94261e+07
1.94039e+07
1.93819e+07
1.93604e+07
1.93398e+07
1.93201e+07
1.93015e+07
1.92842e+07
1.9268e+07
1.9253e+07
1.92392e+07
1.95387e+07
1.95328e+07
1.95218e+07
1.9507e+07
1.94891e+07
1.94692e+07
1.94479e+07
1.9426e+07
1.94038e+07
1.93819e+07
1.93606e+07
1.934e+07
1.93204e+07
1.9302e+07
1.92846e+07
1.92685e+07
1.92536e+07
1.92399e+07
1.95383e+07
1.95324e+07
1.95215e+07
1.95067e+07
1.94889e+07
1.9469e+07
1.94478e+07
1.94259e+07
1.94038e+07
1.9382e+07
1.93606e+07
1.93401e+07
1.93206e+07
1.93021e+07
1.92848e+07
1.92687e+07
1.92538e+07
1.92401e+07
1.0025e+07
1.00251e+07
1.00252e+07
1.00253e+07
1.00256e+07
1.00259e+07
1.00262e+07
1.00266e+07
1.00271e+07
1.00276e+07
1.00282e+07
1.00288e+07
1.00296e+07
1.00304e+07
1.00312e+07
1.00321e+07
1.00331e+07
1.00341e+07
1.00352e+07
1.00364e+07
1.00376e+07
1.00389e+07
1.00403e+07
1.00417e+07
1.00432e+07
1.00447e+07
1.00463e+07
1.00479e+07
1.00496e+07
1.00514e+07
1.00532e+07
1.00551e+07
1.0057e+07
1.0059e+07
1.0061e+07
1.00631e+07
1.00652e+07
1.00674e+07
1.00696e+07
1.00719e+07
1.00742e+07
1.00765e+07
1.00789e+07
1.00813e+07
1.00838e+07
1.00863e+07
1.00888e+07
1.00914e+07
1.0094e+07
1.00966e+07
1.00993e+07
1.01019e+07
1.01047e+07
1.01074e+07
1.01102e+07
1.0113e+07
1.01158e+07
1.01187e+07
1.01215e+07
1.01244e+07
1.01274e+07
1.01303e+07
1.01332e+07
1.01362e+07
1.01392e+07
1.01422e+07
1.01453e+07
1.01483e+07
1.01514e+07
1.01545e+07
1.01576e+07
1.01607e+07
1.01638e+07
1.01669e+07
1.01701e+07
1.01733e+07
1.01765e+07
1.01796e+07
1.01829e+07
1.01861e+07
1.01893e+07
1.01926e+07
1.01958e+07
1.01991e+07
1.02024e+07
1.02057e+07
1.0209e+07
1.02123e+07
1.02156e+07
1.02189e+07
1.02223e+07
1.02256e+07
1.0229e+07
1.02324e+07
1.02358e+07
1.02392e+07
1.02426e+07
1.0246e+07
1.02494e+07
1.02529e+07
1.02563e+07
1.02598e+07
1.02633e+07
1.02668e+07
1.02703e+07
1.02738e+07
1.02773e+07
1.02808e+07
1.02844e+07
1.0288e+07
1.02915e+07
1.02951e+07
1.02987e+07
1.03023e+07
1.0306e+07
1.03096e+07
1.03133e+07
1.0317e+07
1.03207e+07
1.03244e+07
1.03281e+07
1.03319e+07
1.03356e+07
1.03394e+07
1.03432e+07
1.0347e+07
1.03509e+07
1.03547e+07
1.03586e+07
1.03625e+07
1.03665e+07
1.03704e+07
1.03744e+07
1.03784e+07
1.03824e+07
1.03865e+07
1.03905e+07
1.03946e+07
1.03988e+07
1.04029e+07
1.04071e+07
1.04113e+07
1.04155e+07
1.04197e+07
1.0424e+07
1.04283e+07
1.04326e+07
1.04369e+07
1.04412e+07
1.04456e+07
1.04499e+07
1.04543e+07
1.04586e+07
1.04629e+07
1.04673e+07
1.04715e+07
1.04758e+07
1.048e+07
1.04842e+07
1.04882e+07
1.04922e+07
1.04961e+07
1.04998e+07
1.05034e+07
1.05067e+07
1.05099e+07
1.05128e+07
1.05154e+07
1.05176e+07
1.05194e+07
1.05208e+07
1.05217e+07
1.0522e+07
1.05217e+07
1.05207e+07
1.0519e+07
1.05166e+07
1.05133e+07
1.05093e+07
1.05045e+07
1.00248e+07
1.00248e+07
1.00249e+07
1.00251e+07
1.00253e+07
1.00256e+07
1.00259e+07
1.00264e+07
1.00268e+07
1.00274e+07
1.0028e+07
1.00286e+07
1.00293e+07
1.00301e+07
1.0031e+07
1.00319e+07
1.00329e+07
1.00339e+07
1.0035e+07
1.00362e+07
1.00374e+07
1.00387e+07
1.00401e+07
1.00415e+07
1.0043e+07
1.00445e+07
1.00461e+07
1.00478e+07
1.00495e+07
1.00513e+07
1.00531e+07
1.0055e+07
1.00569e+07
1.00589e+07
1.00609e+07
1.0063e+07
1.00651e+07
1.00673e+07
1.00695e+07
1.00718e+07
1.00741e+07
1.00764e+07
1.00788e+07
1.00813e+07
1.00837e+07
1.00862e+07
1.00888e+07
1.00913e+07
1.00939e+07
1.00966e+07
1.00992e+07
1.01019e+07
1.01046e+07
1.01074e+07
1.01102e+07
1.0113e+07
1.01158e+07
1.01187e+07
1.01215e+07
1.01244e+07
1.01273e+07
1.01303e+07
1.01332e+07
1.01362e+07
1.01392e+07
1.01422e+07
1.01453e+07
1.01483e+07
1.01514e+07
1.01545e+07
1.01576e+07
1.01607e+07
1.01638e+07
1.0167e+07
1.01701e+07
1.01733e+07
1.01765e+07
1.01797e+07
1.01829e+07
1.01861e+07
1.01893e+07
1.01926e+07
1.01958e+07
1.01991e+07
1.02024e+07
1.02057e+07
1.0209e+07
1.02123e+07
1.02156e+07
1.02189e+07
1.02223e+07
1.02256e+07
1.0229e+07
1.02324e+07
1.02358e+07
1.02392e+07
1.02426e+07
1.0246e+07
1.02494e+07
1.02529e+07
1.02563e+07
1.02598e+07
1.02633e+07
1.02668e+07
1.02703e+07
1.02738e+07
1.02773e+07
1.02808e+07
1.02844e+07
1.0288e+07
1.02915e+07
1.02951e+07
1.02987e+07
1.03023e+07
1.0306e+07
1.03096e+07
1.03133e+07
1.0317e+07
1.03207e+07
1.03244e+07
1.03281e+07
1.03319e+07
1.03356e+07
1.03394e+07
1.03432e+07
1.0347e+07
1.03509e+07
1.03547e+07
1.03586e+07
1.03625e+07
1.03665e+07
1.03704e+07
1.03744e+07
1.03784e+07
1.03824e+07
1.03865e+07
1.03905e+07
1.03946e+07
1.03988e+07
1.04029e+07
1.04071e+07
1.04113e+07
1.04155e+07
1.04197e+07
1.0424e+07
1.04283e+07
1.04326e+07
1.04369e+07
1.04412e+07
1.04456e+07
1.04499e+07
1.04543e+07
1.04586e+07
1.04629e+07
1.04673e+07
1.04716e+07
1.04758e+07
1.048e+07
1.04842e+07
1.04883e+07
1.04922e+07
1.04961e+07
1.04999e+07
1.05034e+07
1.05068e+07
1.051e+07
1.05128e+07
1.05154e+07
1.05177e+07
1.05195e+07
1.05209e+07
1.05218e+07
1.05221e+07
1.05218e+07
1.05209e+07
1.05192e+07
1.05167e+07
1.05135e+07
1.05094e+07
1.05046e+07
1.00242e+07
1.00243e+07
1.00244e+07
1.00246e+07
1.00248e+07
1.00251e+07
1.00255e+07
1.00259e+07
1.00263e+07
1.00269e+07
1.00275e+07
1.00282e+07
1.00289e+07
1.00297e+07
1.00306e+07
1.00315e+07
1.00325e+07
1.00335e+07
1.00346e+07
1.00358e+07
1.00371e+07
1.00384e+07
1.00398e+07
1.00412e+07
1.00427e+07
1.00442e+07
1.00459e+07
1.00475e+07
1.00493e+07
1.0051e+07
1.00529e+07
1.00548e+07
1.00567e+07
1.00587e+07
1.00607e+07
1.00628e+07
1.0065e+07
1.00672e+07
1.00694e+07
1.00717e+07
1.0074e+07
1.00763e+07
1.00787e+07
1.00812e+07
1.00836e+07
1.00861e+07
1.00887e+07
1.00913e+07
1.00939e+07
1.00965e+07
1.00992e+07
1.01019e+07
1.01046e+07
1.01074e+07
1.01101e+07
1.0113e+07
1.01158e+07
1.01186e+07
1.01215e+07
1.01244e+07
1.01273e+07
1.01303e+07
1.01332e+07
1.01362e+07
1.01392e+07
1.01422e+07
1.01453e+07
1.01483e+07
1.01514e+07
1.01545e+07
1.01576e+07
1.01607e+07
1.01638e+07
1.0167e+07
1.01701e+07
1.01733e+07
1.01765e+07
1.01797e+07
1.01829e+07
1.01861e+07
1.01893e+07
1.01926e+07
1.01958e+07
1.01991e+07
1.02024e+07
1.02057e+07
1.0209e+07
1.02123e+07
1.02156e+07
1.0219e+07
1.02223e+07
1.02257e+07
1.0229e+07
1.02324e+07
1.02358e+07
1.02392e+07
1.02426e+07
1.0246e+07
1.02494e+07
1.02529e+07
1.02563e+07
1.02598e+07
1.02633e+07
1.02668e+07
1.02703e+07
1.02738e+07
1.02773e+07
1.02809e+07
1.02844e+07
1.0288e+07
1.02915e+07
1.02951e+07
1.02987e+07
1.03023e+07
1.0306e+07
1.03096e+07
1.03133e+07
1.0317e+07
1.03207e+07
1.03244e+07
1.03281e+07
1.03319e+07
1.03356e+07
1.03394e+07
1.03432e+07
1.0347e+07
1.03509e+07
1.03547e+07
1.03586e+07
1.03625e+07
1.03665e+07
1.03704e+07
1.03744e+07
1.03784e+07
1.03824e+07
1.03865e+07
1.03905e+07
1.03946e+07
1.03988e+07
1.04029e+07
1.04071e+07
1.04113e+07
1.04155e+07
1.04197e+07
1.0424e+07
1.04283e+07
1.04326e+07
1.04369e+07
1.04412e+07
1.04456e+07
1.04499e+07
1.04543e+07
1.04586e+07
1.0463e+07
1.04673e+07
1.04716e+07
1.04759e+07
1.04801e+07
1.04842e+07
1.04883e+07
1.04923e+07
1.04962e+07
1.05e+07
1.05035e+07
1.05069e+07
1.05101e+07
1.0513e+07
1.05156e+07
1.05179e+07
1.05197e+07
1.05211e+07
1.0522e+07
1.05224e+07
1.05221e+07
1.05212e+07
1.05195e+07
1.0517e+07
1.05138e+07
1.05097e+07
1.05048e+07
1.00235e+07
1.00235e+07
1.00237e+07
1.00238e+07
1.00241e+07
1.00244e+07
1.00247e+07
1.00251e+07
1.00256e+07
1.00262e+07
1.00268e+07
1.00275e+07
1.00282e+07
1.0029e+07
1.00299e+07
1.00309e+07
1.00319e+07
1.00329e+07
1.00341e+07
1.00353e+07
1.00365e+07
1.00379e+07
1.00393e+07
1.00407e+07
1.00422e+07
1.00438e+07
1.00454e+07
1.00471e+07
1.00489e+07
1.00507e+07
1.00525e+07
1.00544e+07
1.00564e+07
1.00584e+07
1.00605e+07
1.00626e+07
1.00647e+07
1.00669e+07
1.00692e+07
1.00715e+07
1.00738e+07
1.00762e+07
1.00786e+07
1.0081e+07
1.00835e+07
1.0086e+07
1.00886e+07
1.00912e+07
1.00938e+07
1.00964e+07
1.00991e+07
1.01018e+07
1.01046e+07
1.01073e+07
1.01101e+07
1.01129e+07
1.01158e+07
1.01186e+07
1.01215e+07
1.01244e+07
1.01273e+07
1.01303e+07
1.01333e+07
1.01362e+07
1.01392e+07
1.01423e+07
1.01453e+07
1.01484e+07
1.01514e+07
1.01545e+07
1.01576e+07
1.01607e+07
1.01639e+07
1.0167e+07
1.01702e+07
1.01733e+07
1.01765e+07
1.01797e+07
1.01829e+07
1.01861e+07
1.01894e+07
1.01926e+07
1.01959e+07
1.01991e+07
1.02024e+07
1.02057e+07
1.0209e+07
1.02123e+07
1.02157e+07
1.0219e+07
1.02223e+07
1.02257e+07
1.02291e+07
1.02324e+07
1.02358e+07
1.02392e+07
1.02426e+07
1.0246e+07
1.02495e+07
1.02529e+07
1.02564e+07
1.02598e+07
1.02633e+07
1.02668e+07
1.02703e+07
1.02738e+07
1.02773e+07
1.02809e+07
1.02844e+07
1.0288e+07
1.02916e+07
1.02951e+07
1.02988e+07
1.03024e+07
1.0306e+07
1.03096e+07
1.03133e+07
1.0317e+07
1.03207e+07
1.03244e+07
1.03281e+07
1.03319e+07
1.03356e+07
1.03394e+07
1.03432e+07
1.0347e+07
1.03509e+07
1.03547e+07
1.03586e+07
1.03625e+07
1.03665e+07
1.03704e+07
1.03744e+07
1.03784e+07
1.03824e+07
1.03865e+07
1.03905e+07
1.03946e+07
1.03988e+07
1.04029e+07
1.04071e+07
1.04113e+07
1.04155e+07
1.04197e+07
1.0424e+07
1.04283e+07
1.04326e+07
1.04369e+07
1.04412e+07
1.04456e+07
1.04499e+07
1.04543e+07
1.04587e+07
1.0463e+07
1.04673e+07
1.04716e+07
1.04759e+07
1.04802e+07
1.04843e+07
1.04884e+07
1.04924e+07
1.04963e+07
1.05001e+07
1.05037e+07
1.05071e+07
1.05103e+07
1.05132e+07
1.05159e+07
1.05182e+07
1.052e+07
1.05215e+07
1.05224e+07
1.05228e+07
1.05225e+07
1.05216e+07
1.052e+07
1.05175e+07
1.05143e+07
1.05102e+07
1.05052e+07
1.00225e+07
1.00225e+07
1.00226e+07
1.00228e+07
1.00231e+07
1.00234e+07
1.00237e+07
1.00242e+07
1.00247e+07
1.00252e+07
1.00259e+07
1.00266e+07
1.00273e+07
1.00282e+07
1.00291e+07
1.003e+07
1.00311e+07
1.00322e+07
1.00333e+07
1.00345e+07
1.00358e+07
1.00372e+07
1.00386e+07
1.00401e+07
1.00416e+07
1.00432e+07
1.00449e+07
1.00466e+07
1.00484e+07
1.00502e+07
1.00521e+07
1.0054e+07
1.0056e+07
1.0058e+07
1.00601e+07
1.00623e+07
1.00644e+07
1.00667e+07
1.00689e+07
1.00712e+07
1.00736e+07
1.0076e+07
1.00784e+07
1.00809e+07
1.00834e+07
1.00859e+07
1.00885e+07
1.00911e+07
1.00937e+07
1.00963e+07
1.0099e+07
1.01018e+07
1.01045e+07
1.01073e+07
1.01101e+07
1.01129e+07
1.01157e+07
1.01186e+07
1.01215e+07
1.01244e+07
1.01273e+07
1.01303e+07
1.01333e+07
1.01363e+07
1.01393e+07
1.01423e+07
1.01453e+07
1.01484e+07
1.01515e+07
1.01545e+07
1.01577e+07
1.01608e+07
1.01639e+07
1.0167e+07
1.01702e+07
1.01734e+07
1.01766e+07
1.01798e+07
1.0183e+07
1.01862e+07
1.01894e+07
1.01927e+07
1.01959e+07
1.01992e+07
1.02025e+07
1.02058e+07
1.02091e+07
1.02124e+07
1.02157e+07
1.0219e+07
1.02224e+07
1.02257e+07
1.02291e+07
1.02325e+07
1.02359e+07
1.02393e+07
1.02427e+07
1.02461e+07
1.02495e+07
1.0253e+07
1.02564e+07
1.02599e+07
1.02634e+07
1.02668e+07
1.02703e+07
1.02739e+07
1.02774e+07
1.02809e+07
1.02845e+07
1.0288e+07
1.02916e+07
1.02952e+07
1.02988e+07
1.03024e+07
1.0306e+07
1.03097e+07
1.03133e+07
1.0317e+07
1.03207e+07
1.03244e+07
1.03281e+07
1.03319e+07
1.03356e+07
1.03394e+07
1.03432e+07
1.0347e+07
1.03509e+07
1.03547e+07
1.03586e+07
1.03625e+07
1.03665e+07
1.03704e+07
1.03744e+07
1.03784e+07
1.03824e+07
1.03865e+07
1.03905e+07
1.03946e+07
1.03988e+07
1.04029e+07
1.04071e+07
1.04113e+07
1.04155e+07
1.04197e+07
1.0424e+07
1.04283e+07
1.04326e+07
1.04369e+07
1.04413e+07
1.04456e+07
1.045e+07
1.04543e+07
1.04587e+07
1.04631e+07
1.04674e+07
1.04717e+07
1.0476e+07
1.04803e+07
1.04844e+07
1.04886e+07
1.04926e+07
1.04965e+07
1.05003e+07
1.05039e+07
1.05074e+07
1.05106e+07
1.05136e+07
1.05162e+07
1.05186e+07
1.05205e+07
1.0522e+07
1.05229e+07
1.05233e+07
1.05231e+07
1.05222e+07
1.05206e+07
1.05182e+07
1.05149e+07
1.05108e+07
1.05058e+07
1.00212e+07
1.00212e+07
1.00214e+07
1.00215e+07
1.00218e+07
1.00221e+07
1.00225e+07
1.0023e+07
1.00235e+07
1.00241e+07
1.00247e+07
1.00254e+07
1.00262e+07
1.00271e+07
1.0028e+07
1.0029e+07
1.00301e+07
1.00312e+07
1.00324e+07
1.00336e+07
1.0035e+07
1.00363e+07
1.00378e+07
1.00393e+07
1.00409e+07
1.00425e+07
1.00442e+07
1.0046e+07
1.00478e+07
1.00496e+07
1.00515e+07
1.00535e+07
1.00555e+07
1.00576e+07
1.00597e+07
1.00619e+07
1.00641e+07
1.00663e+07
1.00686e+07
1.00709e+07
1.00733e+07
1.00757e+07
1.00782e+07
1.00806e+07
1.00832e+07
1.00857e+07
1.00883e+07
1.00909e+07
1.00936e+07
1.00962e+07
1.00989e+07
1.01017e+07
1.01044e+07
1.01072e+07
1.011e+07
1.01129e+07
1.01157e+07
1.01186e+07
1.01215e+07
1.01244e+07
1.01273e+07
1.01303e+07
1.01333e+07
1.01363e+07
1.01393e+07
1.01423e+07
1.01454e+07
1.01484e+07
1.01515e+07
1.01546e+07
1.01577e+07
1.01608e+07
1.0164e+07
1.01671e+07
1.01703e+07
1.01734e+07
1.01766e+07
1.01798e+07
1.0183e+07
1.01863e+07
1.01895e+07
1.01927e+07
1.0196e+07
1.01993e+07
1.02025e+07
1.02058e+07
1.02091e+07
1.02124e+07
1.02158e+07
1.02191e+07
1.02224e+07
1.02258e+07
1.02292e+07
1.02325e+07
1.02359e+07
1.02393e+07
1.02427e+07
1.02462e+07
1.02496e+07
1.0253e+07
1.02565e+07
1.02599e+07
1.02634e+07
1.02669e+07
1.02704e+07
1.02739e+07
1.02774e+07
1.0281e+07
1.02845e+07
1.02881e+07
1.02916e+07
1.02952e+07
1.02988e+07
1.03024e+07
1.03061e+07
1.03097e+07
1.03134e+07
1.0317e+07
1.03207e+07
1.03244e+07
1.03282e+07
1.03319e+07
1.03357e+07
1.03394e+07
1.03432e+07
1.03471e+07
1.03509e+07
1.03548e+07
1.03586e+07
1.03625e+07
1.03665e+07
1.03704e+07
1.03744e+07
1.03784e+07
1.03824e+07
1.03865e+07
1.03905e+07
1.03946e+07
1.03988e+07
1.04029e+07
1.04071e+07
1.04113e+07
1.04155e+07
1.04198e+07
1.0424e+07
1.04283e+07
1.04326e+07
1.0437e+07
1.04413e+07
1.04457e+07
1.045e+07
1.04544e+07
1.04588e+07
1.04631e+07
1.04675e+07
1.04718e+07
1.04761e+07
1.04804e+07
1.04846e+07
1.04887e+07
1.04928e+07
1.04967e+07
1.05006e+07
1.05042e+07
1.05077e+07
1.0511e+07
1.0514e+07
1.05167e+07
1.05191e+07
1.0521e+07
1.05226e+07
1.05236e+07
1.0524e+07
1.05239e+07
1.0523e+07
1.05214e+07
1.0519e+07
1.05157e+07
1.05116e+07
1.05065e+07
1.00196e+07
1.00197e+07
1.00198e+07
1.002e+07
1.00203e+07
1.00206e+07
1.0021e+07
1.00215e+07
1.0022e+07
1.00226e+07
1.00233e+07
1.0024e+07
1.00249e+07
1.00258e+07
1.00267e+07
1.00277e+07
1.00288e+07
1.003e+07
1.00312e+07
1.00325e+07
1.00339e+07
1.00353e+07
1.00368e+07
1.00384e+07
1.004e+07
1.00417e+07
1.00434e+07
1.00452e+07
1.0047e+07
1.00489e+07
1.00509e+07
1.00529e+07
1.00549e+07
1.0057e+07
1.00592e+07
1.00614e+07
1.00636e+07
1.00659e+07
1.00682e+07
1.00706e+07
1.0073e+07
1.00754e+07
1.00779e+07
1.00804e+07
1.00829e+07
1.00855e+07
1.00881e+07
1.00908e+07
1.00934e+07
1.00961e+07
1.00988e+07
1.01016e+07
1.01044e+07
1.01072e+07
1.011e+07
1.01128e+07
1.01157e+07
1.01186e+07
1.01215e+07
1.01244e+07
1.01274e+07
1.01303e+07
1.01333e+07
1.01363e+07
1.01393e+07
1.01424e+07
1.01454e+07
1.01485e+07
1.01516e+07
1.01547e+07
1.01578e+07
1.01609e+07
1.0164e+07
1.01672e+07
1.01703e+07
1.01735e+07
1.01767e+07
1.01799e+07
1.01831e+07
1.01863e+07
1.01896e+07
1.01928e+07
1.01961e+07
1.01994e+07
1.02026e+07
1.02059e+07
1.02092e+07
1.02125e+07
1.02159e+07
1.02192e+07
1.02225e+07
1.02259e+07
1.02292e+07
1.02326e+07
1.0236e+07
1.02394e+07
1.02428e+07
1.02462e+07
1.02497e+07
1.02531e+07
1.02565e+07
1.026e+07
1.02635e+07
1.0267e+07
1.02705e+07
1.0274e+07
1.02775e+07
1.0281e+07
1.02846e+07
1.02881e+07
1.02917e+07
1.02953e+07
1.02989e+07
1.03025e+07
1.03061e+07
1.03097e+07
1.03134e+07
1.03171e+07
1.03208e+07
1.03245e+07
1.03282e+07
1.03319e+07
1.03357e+07
1.03395e+07
1.03433e+07
1.03471e+07
1.03509e+07
1.03548e+07
1.03587e+07
1.03626e+07
1.03665e+07
1.03704e+07
1.03744e+07
1.03784e+07
1.03824e+07
1.03865e+07
1.03906e+07
1.03946e+07
1.03988e+07
1.04029e+07
1.04071e+07
1.04113e+07
1.04155e+07
1.04198e+07
1.0424e+07
1.04283e+07
1.04326e+07
1.0437e+07
1.04413e+07
1.04457e+07
1.04501e+07
1.04545e+07
1.04588e+07
1.04632e+07
1.04676e+07
1.04719e+07
1.04763e+07
1.04805e+07
1.04848e+07
1.04889e+07
1.0493e+07
1.0497e+07
1.05009e+07
1.05046e+07
1.05081e+07
1.05114e+07
1.05145e+07
1.05172e+07
1.05196e+07
1.05217e+07
1.05233e+07
1.05244e+07
1.05249e+07
1.05248e+07
1.0524e+07
1.05224e+07
1.052e+07
1.05167e+07
1.05125e+07
1.05074e+07
1.00178e+07
1.00178e+07
1.0018e+07
1.00182e+07
1.00185e+07
1.00188e+07
1.00192e+07
1.00197e+07
1.00203e+07
1.00209e+07
1.00216e+07
1.00224e+07
1.00233e+07
1.00242e+07
1.00252e+07
1.00263e+07
1.00274e+07
1.00286e+07
1.00299e+07
1.00313e+07
1.00327e+07
1.00341e+07
1.00357e+07
1.00373e+07
1.0039e+07
1.00407e+07
1.00425e+07
1.00443e+07
1.00462e+07
1.00481e+07
1.00501e+07
1.00522e+07
1.00543e+07
1.00564e+07
1.00586e+07
1.00608e+07
1.00631e+07
1.00654e+07
1.00678e+07
1.00702e+07
1.00726e+07
1.00751e+07
1.00776e+07
1.00801e+07
1.00827e+07
1.00853e+07
1.00879e+07
1.00906e+07
1.00933e+07
1.0096e+07
1.00987e+07
1.01015e+07
1.01043e+07
1.01071e+07
1.01099e+07
1.01128e+07
1.01157e+07
1.01186e+07
1.01215e+07
1.01244e+07
1.01274e+07
1.01304e+07
1.01334e+07
1.01364e+07
1.01394e+07
1.01424e+07
1.01455e+07
1.01486e+07
1.01516e+07
1.01547e+07
1.01579e+07
1.0161e+07
1.01641e+07
1.01673e+07
1.01704e+07
1.01736e+07
1.01768e+07
1.018e+07
1.01832e+07
1.01864e+07
1.01897e+07
1.01929e+07
1.01962e+07
1.01995e+07
1.02027e+07
1.0206e+07
1.02093e+07
1.02126e+07
1.0216e+07
1.02193e+07
1.02226e+07
1.0226e+07
1.02293e+07
1.02327e+07
1.02361e+07
1.02395e+07
1.02429e+07
1.02463e+07
1.02497e+07
1.02532e+07
1.02566e+07
1.02601e+07
1.02636e+07
1.0267e+07
1.02705e+07
1.0274e+07
1.02775e+07
1.02811e+07
1.02846e+07
1.02882e+07
1.02917e+07
1.02953e+07
1.02989e+07
1.03025e+07
1.03061e+07
1.03098e+07
1.03134e+07
1.03171e+07
1.03208e+07
1.03245e+07
1.03282e+07
1.0332e+07
1.03357e+07
1.03395e+07
1.03433e+07
1.03471e+07
1.03509e+07
1.03548e+07
1.03587e+07
1.03626e+07
1.03665e+07
1.03705e+07
1.03744e+07
1.03784e+07
1.03824e+07
1.03865e+07
1.03906e+07
1.03947e+07
1.03988e+07
1.04029e+07
1.04071e+07
1.04113e+07
1.04155e+07
1.04198e+07
1.04241e+07
1.04284e+07
1.04327e+07
1.0437e+07
1.04414e+07
1.04458e+07
1.04501e+07
1.04545e+07
1.04589e+07
1.04633e+07
1.04677e+07
1.04721e+07
1.04764e+07
1.04807e+07
1.0485e+07
1.04892e+07
1.04933e+07
1.04973e+07
1.05012e+07
1.0505e+07
1.05085e+07
1.05119e+07
1.0515e+07
1.05179e+07
1.05203e+07
1.05225e+07
1.05241e+07
1.05253e+07
1.05259e+07
1.05258e+07
1.05251e+07
1.05235e+07
1.05212e+07
1.05179e+07
1.05137e+07
1.05085e+07
1.00156e+07
1.00157e+07
1.00158e+07
1.00161e+07
1.00164e+07
1.00167e+07
1.00172e+07
1.00177e+07
1.00183e+07
1.0019e+07
1.00197e+07
1.00205e+07
1.00214e+07
1.00224e+07
1.00235e+07
1.00246e+07
1.00258e+07
1.00271e+07
1.00284e+07
1.00298e+07
1.00313e+07
1.00328e+07
1.00344e+07
1.00361e+07
1.00378e+07
1.00396e+07
1.00414e+07
1.00433e+07
1.00452e+07
1.00472e+07
1.00493e+07
1.00514e+07
1.00535e+07
1.00557e+07
1.00579e+07
1.00602e+07
1.00625e+07
1.00649e+07
1.00673e+07
1.00697e+07
1.00722e+07
1.00747e+07
1.00772e+07
1.00798e+07
1.00824e+07
1.0085e+07
1.00877e+07
1.00904e+07
1.00931e+07
1.00958e+07
1.00986e+07
1.01014e+07
1.01042e+07
1.0107e+07
1.01099e+07
1.01128e+07
1.01156e+07
1.01186e+07
1.01215e+07
1.01244e+07
1.01274e+07
1.01304e+07
1.01334e+07
1.01364e+07
1.01395e+07
1.01425e+07
1.01456e+07
1.01486e+07
1.01517e+07
1.01548e+07
1.0158e+07
1.01611e+07
1.01642e+07
1.01674e+07
1.01706e+07
1.01737e+07
1.01769e+07
1.01801e+07
1.01833e+07
1.01866e+07
1.01898e+07
1.0193e+07
1.01963e+07
1.01996e+07
1.02029e+07
1.02061e+07
1.02094e+07
1.02128e+07
1.02161e+07
1.02194e+07
1.02227e+07
1.02261e+07
1.02295e+07
1.02328e+07
1.02362e+07
1.02396e+07
1.0243e+07
1.02464e+07
1.02498e+07
1.02533e+07
1.02567e+07
1.02602e+07
1.02636e+07
1.02671e+07
1.02706e+07
1.02741e+07
1.02776e+07
1.02812e+07
1.02847e+07
1.02882e+07
1.02918e+07
1.02954e+07
1.0299e+07
1.03026e+07
1.03062e+07
1.03098e+07
1.03135e+07
1.03172e+07
1.03208e+07
1.03245e+07
1.03283e+07
1.0332e+07
1.03358e+07
1.03395e+07
1.03433e+07
1.03471e+07
1.0351e+07
1.03548e+07
1.03587e+07
1.03626e+07
1.03665e+07
1.03705e+07
1.03744e+07
1.03784e+07
1.03825e+07
1.03865e+07
1.03906e+07
1.03947e+07
1.03988e+07
1.04029e+07
1.04071e+07
1.04113e+07
1.04156e+07
1.04198e+07
1.04241e+07
1.04284e+07
1.04327e+07
1.04371e+07
1.04414e+07
1.04458e+07
1.04502e+07
1.04546e+07
1.0459e+07
1.04634e+07
1.04678e+07
1.04722e+07
1.04766e+07
1.04809e+07
1.04852e+07
1.04894e+07
1.04936e+07
1.04977e+07
1.05016e+07
1.05054e+07
1.0509e+07
1.05125e+07
1.05157e+07
1.05186e+07
1.05211e+07
1.05233e+07
1.05251e+07
1.05263e+07
1.0527e+07
1.0527e+07
1.05263e+07
1.05248e+07
1.05225e+07
1.05193e+07
1.05151e+07
1.05098e+07
1.00131e+07
1.00132e+07
1.00134e+07
1.00136e+07
1.00139e+07
1.00143e+07
1.00148e+07
1.00154e+07
1.0016e+07
1.00167e+07
1.00175e+07
1.00184e+07
1.00194e+07
1.00204e+07
1.00215e+07
1.00227e+07
1.00239e+07
1.00253e+07
1.00267e+07
1.00281e+07
1.00297e+07
1.00313e+07
1.00329e+07
1.00347e+07
1.00364e+07
1.00383e+07
1.00402e+07
1.00421e+07
1.00442e+07
1.00462e+07
1.00483e+07
1.00505e+07
1.00527e+07
1.00549e+07
1.00572e+07
1.00595e+07
1.00619e+07
1.00643e+07
1.00668e+07
1.00692e+07
1.00717e+07
1.00743e+07
1.00769e+07
1.00795e+07
1.00821e+07
1.00848e+07
1.00875e+07
1.00902e+07
1.00929e+07
1.00957e+07
1.00985e+07
1.01013e+07
1.01041e+07
1.0107e+07
1.01098e+07
1.01127e+07
1.01156e+07
1.01186e+07
1.01215e+07
1.01245e+07
1.01275e+07
1.01305e+07
1.01335e+07
1.01365e+07
1.01395e+07
1.01426e+07
1.01457e+07
1.01487e+07
1.01518e+07
1.01549e+07
1.01581e+07
1.01612e+07
1.01644e+07
1.01675e+07
1.01707e+07
1.01739e+07
1.01771e+07
1.01803e+07
1.01835e+07
1.01867e+07
1.01899e+07
1.01932e+07
1.01964e+07
1.01997e+07
1.0203e+07
1.02063e+07
1.02096e+07
1.02129e+07
1.02162e+07
1.02195e+07
1.02229e+07
1.02262e+07
1.02296e+07
1.02329e+07
1.02363e+07
1.02397e+07
1.02431e+07
1.02465e+07
1.025e+07
1.02534e+07
1.02568e+07
1.02603e+07
1.02637e+07
1.02672e+07
1.02707e+07
1.02742e+07
1.02777e+07
1.02812e+07
1.02848e+07
1.02883e+07
1.02919e+07
1.02955e+07
1.02991e+07
1.03027e+07
1.03063e+07
1.03099e+07
1.03136e+07
1.03172e+07
1.03209e+07
1.03246e+07
1.03283e+07
1.0332e+07
1.03358e+07
1.03396e+07
1.03434e+07
1.03472e+07
1.0351e+07
1.03549e+07
1.03587e+07
1.03626e+07
1.03665e+07
1.03705e+07
1.03745e+07
1.03785e+07
1.03825e+07
1.03865e+07
1.03906e+07
1.03947e+07
1.03988e+07
1.0403e+07
1.04071e+07
1.04113e+07
1.04156e+07
1.04198e+07
1.04241e+07
1.04284e+07
1.04328e+07
1.04371e+07
1.04415e+07
1.04459e+07
1.04503e+07
1.04547e+07
1.04591e+07
1.04636e+07
1.0468e+07
1.04724e+07
1.04768e+07
1.04811e+07
1.04855e+07
1.04897e+07
1.04939e+07
1.04981e+07
1.0502e+07
1.05059e+07
1.05096e+07
1.05131e+07
1.05164e+07
1.05194e+07
1.0522e+07
1.05243e+07
1.05262e+07
1.05275e+07
1.05283e+07
1.05284e+07
1.05278e+07
1.05264e+07
1.05241e+07
1.05208e+07
1.05166e+07
1.05113e+07
1.00103e+07
1.00104e+07
1.00106e+07
1.00109e+07
1.00112e+07
1.00116e+07
1.00121e+07
1.00127e+07
1.00134e+07
1.00142e+07
1.00151e+07
1.0016e+07
1.0017e+07
1.00181e+07
1.00193e+07
1.00205e+07
1.00219e+07
1.00233e+07
1.00247e+07
1.00263e+07
1.00279e+07
1.00296e+07
1.00313e+07
1.00331e+07
1.0035e+07
1.00369e+07
1.00389e+07
1.00409e+07
1.0043e+07
1.00451e+07
1.00473e+07
1.00495e+07
1.00518e+07
1.00541e+07
1.00564e+07
1.00588e+07
1.00612e+07
1.00637e+07
1.00662e+07
1.00687e+07
1.00713e+07
1.00738e+07
1.00765e+07
1.00791e+07
1.00818e+07
1.00845e+07
1.00872e+07
1.009e+07
1.00927e+07
1.00955e+07
1.00983e+07
1.01012e+07
1.0104e+07
1.01069e+07
1.01098e+07
1.01127e+07
1.01156e+07
1.01186e+07
1.01215e+07
1.01245e+07
1.01275e+07
1.01305e+07
1.01335e+07
1.01366e+07
1.01396e+07
1.01427e+07
1.01458e+07
1.01489e+07
1.0152e+07
1.01551e+07
1.01582e+07
1.01613e+07
1.01645e+07
1.01677e+07
1.01708e+07
1.0174e+07
1.01772e+07
1.01804e+07
1.01836e+07
1.01869e+07
1.01901e+07
1.01933e+07
1.01966e+07
1.01999e+07
1.02031e+07
1.02064e+07
1.02097e+07
1.0213e+07
1.02163e+07
1.02197e+07
1.0223e+07
1.02264e+07
1.02297e+07
1.02331e+07
1.02365e+07
1.02399e+07
1.02433e+07
1.02467e+07
1.02501e+07
1.02535e+07
1.02569e+07
1.02604e+07
1.02639e+07
1.02673e+07
1.02708e+07
1.02743e+07
1.02778e+07
1.02813e+07
1.02849e+07
1.02884e+07
1.0292e+07
1.02956e+07
1.02991e+07
1.03027e+07
1.03064e+07
1.031e+07
1.03136e+07
1.03173e+07
1.0321e+07
1.03247e+07
1.03284e+07
1.03321e+07
1.03358e+07
1.03396e+07
1.03434e+07
1.03472e+07