/*--------------------------------*- C++ -*----------------------------------*\
  =========                 |
  \\      /  F ield         | OpenFOAM: The Open Source CFD Toolbox
   \\    /   O peration     | Website:  https://openfoam.org
    \\  /    A nd           | Version:  10
     \\/     M anipulation  |
\*---------------------------------------------------------------------------*/
FoamFile
{
    format      ascii;
    class       volVectorField;
    location    "4.8";
    object      Ua;
}
// * * * * * * * * * * * * * * * * * * * * * * * * * * * * * * * * * * * * * //

dimensions      [0 1 -1 0 0 0 0];

internalField   nonuniform List<vector> 
12225
(
(-2.68563e-06 5.40984e-07 0)
(-8.66678e-06 6.91461e-07 0)
(-1.65872e-05 1.01078e-06 0)
(-2.80153e-05 1.54872e-06 0)
(-4.48806e-05 2.38593e-06 0)
(-6.9664e-05 3.63596e-06 0)
(-0.000105559 5.44725e-06 0)
(-0.000156596 8.00271e-06 0)
(-0.000227713 1.15147e-05 0)
(-0.000324738 1.62153e-05 0)
(-0.000454296 2.23454e-05 0)
(-0.0006237 3.01619e-05 0)
(-0.000841083 4.00088e-05 0)
(-0.00111648 5.25797e-05 0)
(-0.0014658 6.97582e-05 0)
(-0.00192424 9.75687e-05 0)
(-0.00259998 0.000159731 0)
(-0.00397273 0.000386665 0)
(-2.65359e-06 1.65486e-06 0)
(-8.56392e-06 2.11529e-06 0)
(-1.63921e-05 3.09237e-06 0)
(-2.76896e-05 4.73849e-06 0)
(-4.43659e-05 7.30061e-06 0)
(-6.88778e-05 1.11266e-05 0)
(-0.000104391 1.66715e-05 0)
(-0.000154906 2.44964e-05 0)
(-0.000225331 3.52534e-05 0)
(-0.000321467 4.96547e-05 0)
(-0.00044991 6.84393e-05 0)
(-0.000617915 9.23865e-05 0)
(-0.000833434 0.000122517 0)
(-0.0011059 0.000160835 0)
(-0.0014491 0.000212652 0)
(-0.00188936 0.00029417 0)
(-0.0024828 0.000462313 0)
(-0.00326901 0.000964008 0)
(-2.58286e-06 2.8254e-06 0)
(-8.33684e-06 3.61196e-06 0)
(-1.59614e-05 5.28121e-06 0)
(-2.69704e-05 8.09378e-06 0)
(-4.32291e-05 1.24723e-05 0)
(-6.71411e-05 1.90126e-05 0)
(-0.00010181 2.8495e-05 0)
(-0.000151171 4.18835e-05 0)
(-0.000220064 6.03002e-05 0)
(-0.000314232 8.49719e-05 0)
(-0.000440208 0.000117166 0)
(-0.000605132 0.000158192 0)
(-0.000816602 0.000209683 0)
(-0.00108289 0.00027467 0)
(-0.00141398 0.00036079 0)
(-0.00182309 0.000489578 0)
(-0.00231783 0.000724585 0)
(-0.0027992 0.00125306 0)
(-2.4663e-06 4.03469e-06 0)
(-7.96259e-06 5.15896e-06 0)
(-1.52514e-05 7.54517e-06 0)
(-2.57846e-05 1.15665e-05 0)
(-4.13543e-05 1.78288e-05 0)
(-6.42758e-05 2.71873e-05 0)
(-9.75504e-05 4.07647e-05 0)
(-0.000145 5.99517e-05 0)
(-0.000211356 8.63719e-05 0)
(-0.000302261 0.000121803 0)
(-0.000424157 0.000168073 0)
(-0.000584025 0.000227012 0)
(-0.000788995 0.000300728 0)
(-0.00104584 0.000392745 0)
(-0.00136009 0.000511304 0)
(-0.00173242 0.000677509 0)
(-0.00214051 0.000942965 0)
(-0.00246678 0.00141019 0)
(-2.29652e-06 5.25673e-06 0)
(-7.41746e-06 6.72362e-06 0)
(-1.42171e-05 9.83747e-06 0)
(-2.40567e-05 1.50865e-05 0)
(-3.86207e-05 2.32643e-05 0)
(-6.00951e-05 3.5494e-05 0)
(-9.13288e-05 5.32542e-05 0)
(-0.000135977 7.83842e-05 0)
(-0.000198606 0.000113042 0)
(-0.000284715 0.000159597 0)
(-0.000400627 0.000220472 0)
(-0.00055316 0.000298007 0)
(-0.000748979 0.000394591 0)
(-0.000993399 0.000513578 0)
(-0.00128794 0.000661914 0)
(-0.00162422 0.000855605 0)
(-0.00196712 0.00112678 0)
(-0.002219 0.00151445 0)
(-2.06636e-06 6.45579e-06 0)
(-6.67836e-06 8.26095e-06 0)
(-1.28144e-05 1.20936e-05 0)
(-2.17122e-05 1.85567e-05 0)
(-3.49094e-05 2.86322e-05 0)
(-5.44133e-05 4.37139e-05 0)
(-8.28619e-05 6.56454e-05 0)
(-0.000123678 9.67328e-05 0)
(-0.000181194 0.0001397 0)
(-0.000260711 0.000197559 0)
(-0.000368411 0.000273376 0)
(-0.000510999 0.00037 0)
(-0.000694847 0.000489928 0)
(-0.00092427 0.000635694 0)
(-0.00119816 0.000811348 0)
(-0.00150344 0.00102503 0)
(-0.00180339 0.00128937 0)
(-0.00202595 0.0016058 0)
(-1.76948e-06 7.5847e-06 0)
(-5.72487e-06 9.71149e-06 0)
(-1.10043e-05 1.42281e-05 0)
(-1.86849e-05 2.18481e-05 0)
(-3.01127e-05 3.37366e-05 0)
(-4.70599e-05 5.1554e-05 0)
(-7.18841e-05 7.75095e-05 0)
(-0.000107693 0.000114388 0)
(-0.000158504 0.000165511 0)
(-0.000229347 0.000234588 0)
(-0.000326247 0.000325411 0)
(-0.000455895 0.000441396 0)
(-0.000624721 0.000585068 0)
(-0.000836903 0.000757706 0)
(-0.00109066 0.000959451 0)
(-0.00137229 0.00118958 0)
(-0.0016492 0.00144437 0)
(-0.00186964 0.00170576 0)
(-1.4013e-06 8.58351e-06 0)
(-4.54216e-06 1.09996e-05 0)
(-8.75799e-06 1.6132e-05 0)
(-1.49254e-05 2.47959e-05 0)
(-2.4149e-05 3.83263e-05 0)
(-3.79017e-05 5.86357e-05 0)
(-5.8179e-05 8.82876e-05 0)
(-8.76764e-05 0.000130547 0)
(-0.000129983 0.00018936 0)
(-0.000189766 0.000269202 0)
(-0.000272858 0.000374713 0)
(-0.000386071 0.000510044 0)
(-0.000536394 0.000677879 0)
(-0.000729042 0.000878209 0)
(-0.00096382 0.00110701 0)
(-0.00122984 0.00135486 0)
(-0.0015009 0.00160486 0)
(-0.0017383 0.00182857 0)
(-9.60212e-07 9.37883e-06 0)
(-3.12496e-06 1.20326e-05 0)
(-6.06504e-06 1.76715e-05 0)
(-1.04144e-05 2.71969e-05 0)
(-1.69827e-05 4.209e-05 0)
(-2.68726e-05 6.44864e-05 0)
(-4.16241e-05 9.72756e-05 0)
(-6.34e-05 0.000144185 0)
(-9.52212e-05 0.000209801 0)
(-0.000141245 0.000299443 0)
(-0.000207031 0.000418779 0)
(-0.000299625 0.000573014 0)
(-0.000427129 0.000765467 0)
(-0.000597162 0.000995404 0)
(-0.000813583 0.00125523 0)
(-0.0010714 0.00152763 0)
(-0.00135187 0.0017841 0)
(-0.00162319 0.00198755 0)
(-4.49181e-07 9.88444e-06 0)
(-1.48267e-06 1.27014e-05 0)
(-2.94263e-06 1.86891e-05 0)
(-5.17858e-06 2.88108e-05 0)
(-8.65059e-06 4.4657e-05 0)
(-1.40157e-05 6.85383e-05 0)
(-2.22531e-05 0.000103617 0)
(-3.48495e-05 0.000154039 0)
(-5.4071e-05 0.000225015 0)
(-8.33482e-05 0.000322779 0)
(-0.00012777 0.000454263 0)
(-0.000194592 0.000626243 0)
(-0.000293473 0.000843594 0)
(-0.000435819 0.00110626 0)
(-0.000632244 0.00140476 0)
(-0.000887237 0.00171524 0)
(-0.00119152 0.00199717 0)
(-0.0015164 0.00220016 0)
(1.22342e-07 1.0004e-05 0)
(3.5442e-07 1.28841e-05 0)
(5.52142e-07 1.90077e-05 0)
(6.88272e-07 2.93667e-05 0)
(7.03891e-07 4.56068e-05 0)
(4.63356e-07 7.01405e-05 0)
(-3.39128e-07 0.000106316 0)
(-2.34823e-06 0.000158604 0)
(-6.83505e-06 0.000232776 0)
(-1.61742e-05 0.000336008 0)
(-3.45886e-05 0.000476739 0)
(-6.92002e-05 0.000664001 0)
(-0.00013126 0.000905674 0)
(-0.000237008 0.00120488 0)
(-0.000406777 0.00155373 0)
(-0.000659812 0.00192467 0)
(-0.00100203 0.00226337 0)
(-0.00140825 0.00249442 0)
(6.85443e-07 9.7061e-06 0)
(2.16473e-06 1.25382e-05 0)
(3.99778e-06 1.85603e-05 0)
(6.47918e-06 2.87537e-05 0)
(9.95645e-06 4.47534e-05 0)
(1.48344e-05 6.8979e-05 0)
(2.15263e-05 0.000104839 0)
(3.03249e-05 0.000156973 0)
(4.11415e-05 0.000231543 0)
(5.29987e-05 0.000336517 0)
(6.31081e-05 0.000481851 0)
(6.5314e-05 0.00067926 0)
(4.77211e-05 0.000940971 0)
(-1.03207e-05 0.00127627 0)
(-0.000140519 0.00168399 0)
(-0.000383117 0.0021391 0)
(-0.000771165 0.00257498 0)
(-0.00129294 0.00287564 0)
(1.25635e-06 8.90203e-06 0)
(4.00016e-06 1.15533e-05 0)
(7.49229e-06 1.71898e-05 0)
(1.2357e-05 2.67336e-05 0)
(1.93634e-05 4.17265e-05 0)
(2.94902e-05 6.44728e-05 0)
(4.39343e-05 9.82766e-05 0)
(6.40499e-05 0.000147732 0)
(9.11655e-05 0.00021912 0)
(0.000126139 0.000320931 0)
(0.000168399 0.000464483 0)
(0.000214049 0.000664491 0)
(0.000252417 0.000939092 0)
(0.000260383 0.00130801 0)
(0.000194732 0.00178587 0)
(-1.33623e-05 0.00236478 0)
(-0.000446905 0.00297819 0)
(-0.00114073 0.00344766 0)
(1.88746e-06 7.3293e-06 0)
(6.02851e-06 9.6031e-06 0)
(1.13541e-05 1.44318e-05 0)
(1.88559e-05 2.26064e-05 0)
(2.97797e-05 3.54484e-05 0)
(4.57735e-05 5.4953e-05 0)
(6.89808e-05 8.40619e-05 0)
(0.00010209 0.000126968 0)
(0.000148336 0.000189599 0)
(0.000211304 0.00028038 0)
(0.000294268 0.000411408 0)
(0.000398491 0.000600205 0)
(0.000519337 0.000872146 0)
(0.000637983 0.00126311 0)
(0.00070526 0.00181983 0)
(0.000614705 0.00258897 0)
(0.000175001 0.00356775 0)
(-0.000840277 0.00454147 0)
(2.50554e-06 4.6659e-06 0)
(8.01224e-06 6.28413e-06 0)
(1.51271e-05 9.70309e-06 0)
(2.52006e-05 1.54832e-05 0)
(3.99468e-05 2.45332e-05 0)
(6.1711e-05 3.82206e-05 0)
(9.36627e-05 5.87057e-05 0)
(0.000139993 8.91474e-05 0)
(0.000206238 0.000134148 0)
(0.000299636 0.000200589 0)
(0.000429415 0.000299109 0)
(0.000606685 0.00044683 0)
(0.000842917 0.000672506 0)
(0.00114395 0.00102639 0)
(0.00149061 0.00159917 0)
(0.00178052 0.00255767 0)
(0.00165859 0.0042092 0)
(3.21492e-05 0.00710485 0)
(2.95574e-06 6.52539e-07 0)
(9.44656e-06 1.28128e-06 0)
(1.78412e-05 2.54809e-06 0)
(2.97381e-05 4.68871e-06 0)
(4.71444e-05 7.96244e-06 0)
(7.29497e-05 1.26075e-05 0)
(0.000111176 1.9474e-05 0)
(0.000167235 2.97911e-05 0)
(0.000248661 4.53017e-05 0)
(0.000366204 6.86915e-05 0)
(0.000535623 0.000104316 0)
(0.000780943 0.000159673 0)
(0.00114068 0.000248507 0)
(0.00168036 0.00039765 0)
(0.00251881 0.000662616 0)
(0.00388551 0.00116436 0)
(0.00624998 0.00217827 0)
(0.010622 0.00435438 0)
(6.50711e-09 -8.52797e-07 0)
(1.13557e-08 -8.32323e-07 0)
(9.16399e-09 -8.36664e-07 0)
(8.44489e-09 -8.40124e-07 0)
(8.55463e-09 -9.06472e-07 0)
(1.07855e-08 -1.48189e-06 0)
(1.62543e-08 -2.72178e-06 0)
(2.51025e-08 -4.49085e-06 0)
(3.82092e-08 -6.92344e-06 0)
(5.74205e-08 -1.02411e-05 0)
(8.58045e-08 -1.47974e-05 0)
(1.28544e-07 -2.11509e-05 0)
(1.94646e-07 -3.01989e-05 0)
(3.00363e-07 -4.34181e-05 0)
(4.76369e-07 -6.33102e-05 0)
(7.83481e-07 -9.42417e-05 0)
(1.34909e-06 -0.000144093 0)
(2.45808e-06 -0.000227803 0)
(1.66633e-06 2.01547e-06 0)
(5.03489e-06 2.37262e-06 0)
(8.70166e-06 2.3813e-06 0)
(1.30175e-05 2.15394e-06 0)
(1.81866e-05 1.73234e-06 0)
(2.40942e-05 8.81283e-07 0)
(3.03915e-05 -5.82238e-07 0)
(3.71366e-05 -2.89244e-06 0)
(4.45875e-05 -6.00254e-06 0)
(5.27989e-05 -1.00826e-05 0)
(6.17942e-05 -1.55007e-05 0)
(7.1581e-05 -2.27849e-05 0)
(8.20749e-05 -3.26992e-05 0)
(9.29448e-05 -4.63585e-05 0)
(0.000103297 -6.54056e-05 0)
(0.000111037 -9.22938e-05 0)
(0.000111589 -0.000130779 0)
(9.5271e-05 -0.000186948 0)
(2.60232e-06 6.29024e-06 0)
(7.90104e-06 7.06372e-06 0)
(1.34315e-05 7.02006e-06 0)
(1.92778e-05 6.37485e-06 0)
(2.5495e-05 5.24004e-06 0)
(3.20736e-05 3.61435e-06 0)
(3.89786e-05 1.49977e-06 0)
(4.60477e-05 -1.56475e-06 0)
(5.32445e-05 -5.82766e-06 0)
(6.06453e-05 -1.11064e-05 0)
(6.81428e-05 -1.77083e-05 0)
(7.55517e-05 -2.59979e-05 0)
(8.2561e-05 -3.63886e-05 0)
(8.86766e-05 -4.93052e-05 0)
(9.317e-05 -6.50892e-05 0)
(9.50702e-05 -8.37936e-05 0)
(9.32953e-05 -0.00010477 0)
(8.71278e-05 -0.000125861 0)
(3.05712e-06 1.02426e-05 0)
(9.31508e-06 1.09448e-05 0)
(1.5838e-05 1.07144e-05 0)
(2.25957e-05 9.73159e-06 0)
(2.95707e-05 8.13526e-06 0)
(3.67363e-05 5.99066e-06 0)
(4.40588e-05 3.30539e-06 0)
(5.14332e-05 -4.27786e-08 0)
(5.87553e-05 -4.81374e-06 0)
(6.59916e-05 -1.05422e-05 0)
(7.30322e-05 -1.73394e-05 0)
(7.96591e-05 -2.53644e-05 0)
(8.55845e-05 -3.47265e-05 0)
(9.04527e-05 -4.54364e-05 0)
(9.38654e-05 -5.73422e-05 0)
(9.54445e-05 -7.00555e-05 0)
(9.49434e-05 -8.28957e-05 0)
(9.23978e-05 -9.49064e-05 0)
(3.61144e-06 1.32081e-05 0)
(1.09477e-05 1.36408e-05 0)
(1.84786e-05 1.31588e-05 0)
(2.61477e-05 1.19089e-05 0)
(3.39092e-05 1.0026e-05 0)
(4.17198e-05 7.5889e-06 0)
(4.95327e-05 4.61786e-06 0)
(5.72918e-05 1.08025e-06 0)
(6.48233e-05 -3.68119e-06 0)
(7.19933e-05 -9.38837e-06 0)
(7.87275e-05 -1.59038e-05 0)
(8.48447e-05 -2.32715e-05 0)
(9.01352e-05 -3.14729e-05 0)
(9.43784e-05 -4.04015e-05 0)
(9.73718e-05 -4.98408e-05 0)
(9.89736e-05 -5.94589e-05 0)
(9.91498e-05 -6.88297e-05 0)
(9.80104e-05 -7.74963e-05 0)
(4.21907e-06 1.53408e-05 0)
(1.27195e-05 1.55002e-05 0)
(2.13126e-05 1.47823e-05 0)
(2.99345e-05 1.33223e-05 0)
(3.85239e-05 1.12508e-05 0)
(4.70227e-05 8.65223e-06 0)
(5.53712e-05 5.55929e-06 0)
(6.35023e-05 1.96264e-06 0)
(7.12454e-05 -2.54694e-06 0)
(7.84573e-05 -7.98328e-06 0)
(8.50626e-05 -1.40089e-05 0)
(9.09218e-05 -2.06085e-05 0)
(9.58912e-05 -2.77147e-05 0)
(9.98394e-05 -3.51981e-05 0)
(0.000102669 -4.28658e-05 0)
(0.000104338 -5.04737e-05 0)
(0.000104879 -5.77533e-05 0)
(0.000104403 -6.44526e-05 0)
(4.90214e-06 1.66147e-05 0)
(1.47075e-05 1.65449e-05 0)
(2.44816e-05 1.56398e-05 0)
(3.41535e-05 1.40369e-05 0)
(4.36509e-05 1.18663e-05 0)
(5.29046e-05 9.21644e-06 0)
(6.18458e-05 6.13067e-06 0)
(7.04013e-05 2.61707e-06 0)
(7.84146e-05 -1.545e-06 0)
(8.57462e-05 -6.57183e-06 0)
(9.23247e-05 -1.20161e-05 0)
(9.80495e-05 -1.78362e-05 0)
(0.000102829 -2.39522e-05 0)
(0.000106592 -3.02434e-05 0)
(0.000109303 -3.65541e-05 0)
(0.000110971 -4.27072e-05 0)
(0.000111657 -4.85251e-05 0)
(0.000111467 -5.38536e-05 0)
(5.68373e-06 1.70476e-05 0)
(1.69831e-05 1.68044e-05 0)
(2.81058e-05 1.57748e-05 0)
(3.89685e-05 1.41029e-05 0)
(4.9488e-05 1.19198e-05 0)
(5.95871e-05 9.31754e-06 0)
(6.91925e-05 6.34672e-06 0)
(7.82308e-05 3.02779e-06 0)
(8.6566e-05 -7.26515e-07 0)
(9.40706e-05 -5.26165e-06 0)
(0.000100681 -1.00825e-05 0)
(0.000106333 -1.51392e-05 0)
(0.000110975 -2.03548e-05 0)
(0.000114581 -2.56263e-05 0)
(0.000117156 -3.08318e-05 0)
(0.000118741 -3.5842e-05 0)
(0.000119414 -4.05349e-05 0)
(0.000119283 -4.481e-05 0)
(6.59286e-06 1.66757e-05 0)
(1.96313e-05 1.63151e-05 0)
(3.2322e-05 1.52285e-05 0)
(4.45606e-05 1.35647e-05 0)
(5.6252e-05 1.14549e-05 0)
(6.73137e-05 8.99162e-06 0)
(7.7673e-05 6.22979e-06 0)
(8.72627e-05 3.19695e-06 0)
(9.59804e-05 -1.15423e-07 0)
(0.000103705 -4.09579e-06 0)
(0.000110379 -8.27161e-06 0)
(0.000115981 -1.25846e-05 0)
(0.000120497 -1.69672e-05 0)
(0.000123933 -2.13355e-05 0)
(0.000126327 -2.55956e-05 0)
(0.000127744 -2.96527e-05 0)
(0.000128278 -3.34215e-05 0)
(0.00012804 -3.68346e-05 0)
(7.67124e-06 1.55364e-05 0)
(2.27733e-05 1.51122e-05 0)
(3.73213e-05 1.40379e-05 0)
(5.11808e-05 1.24611e-05 0)
(6.42428e-05 1.05091e-05 0)
(7.64224e-05 8.27168e-06 0)
(8.7653e-05 5.80394e-06 0)
(9.78797e-05 3.1361e-06 0)
(0.000107055 2.85465e-07 0)
(0.000115059 -3.07984e-06 0)
(0.000121825 -6.59663e-06 0)
(0.000127384 -1.0182e-05 0)
(0.000131756 -1.37801e-05 0)
(0.000134982 -1.73248e-05 0)
(0.000137128 -2.07452e-05 0)
(0.000138284 -2.39725e-05 0)
(0.000138557 -2.69467e-05 0)
(0.000138071 -2.96225e-05 0)
(8.98812e-06 1.36535e-05 0)
(2.66099e-05 1.3218e-05 0)
(4.34213e-05 1.22263e-05 0)
(5.92463e-05 1.08175e-05 0)
(7.39599e-05 9.10837e-06 0)
(8.74786e-05 7.1815e-06 0)
(9.9749e-05 5.08802e-06 0)
(0.000110737 2.85721e-06 0)
(0.000120419 5.07252e-07 0)
(0.000128719 -2.20577e-06 0)
(0.000135599 -5.0503e-06 0)
(0.000141119 -7.91744e-06 0)
(0.000145329 -1.07634e-05 0)
(0.000148302 -1.35382e-05 0)
(0.000150132 -1.61899e-05 0)
(0.000150931 -1.86692e-05 0)
(0.000150824 -2.09347e-05 0)
(0.000149946 -2.29565e-05 0)
(1.06795e-05 1.10147e-05 0)
(3.15364e-05 1.06204e-05 0)
(5.12485e-05 9.78587e-06 0)
(6.95827e-05 8.63066e-06 0)
(8.63949e-05 7.25375e-06 0)
(0.000101609 5.72454e-06 0)
(0.000115193 4.08604e-06 0)
(0.000127145 2.36324e-06 0)
(0.000137477 5.72102e-07 0)
(0.000146157 -1.46643e-06 0)
(0.000153189 -3.62014e-06 0)
(0.000158661 -5.7678e-06 0)
(0.000162661 -7.87705e-06 0)
(0.000165296 -9.91198e-06 0)
(0.000166686 -1.18361e-05 0)
(0.00016697 -1.36159e-05 0)
(0.000166292 -1.52243e-05 0)
(0.000164804 -1.66429e-05 0)
(1.30834e-05 7.51834e-06 0)
(3.85382e-05 7.22324e-06 0)
(6.23686e-05 6.63131e-06 0)
(8.42584e-05 5.82945e-06 0)
(0.00010404 4.88844e-06 0)
(0.000121652 3.85749e-06 0)
(0.0001371 2.76692e-06 0)
(0.00015043 1.63433e-06 0)
(0.000161707 4.71149e-07 0)
(0.000170955 -8.51903e-07 0)
(0.000178221 -2.27584e-06 0)
(0.000183626 -3.67689e-06 0)
(0.000187294 -5.03304e-06 0)
(0.00018937 -6.3214e-06 0)
(0.00019001 -7.5199e-06 0)
(0.000189388 -8.60949e-06 0)
(0.000187689 -9.57598e-06 0)
(0.000185097 -1.04113e-05 0)
(1.7527e-05 2.73568e-06 0)
(5.14858e-05 2.62034e-06 0)
(8.29439e-05 2.39625e-06 0)
(0.000111432 2.09679e-06 0)
(0.000136742 1.74888e-06 0)
(0.000158846 1.37111e-06 0)
(0.000177823 9.74873e-07 0)
(0.000193807 5.66738e-07 0)
(0.000206961 1.51048e-07 0)
(0.000217303 -3.25696e-07 0)
(0.000224755 -8.4922e-07 0)
(0.000229445 -1.3581e-06 0)
(0.00023167 -1.84384e-06 0)
(0.000231741 -2.29824e-06 0)
(0.000229978 -2.71398e-06 0)
(0.0002267 -3.08522e-06 0)
(0.000222217 -3.40817e-06 0)
(0.000216821 -3.68136e-06 0)
(-1.1709e-05 2.50274e-05 3.23333e-31)
(-3.52162e-05 2.49797e-05 -3.2244e-31)
(-5.88535e-05 2.48947e-05 0)
(-8.25855e-05 2.47718e-05 0)
(-0.000106376 2.4611e-05 0)
(-0.000130187 2.44122e-05 3.13983e-31)
(-0.00015398 2.41758e-05 0)
(-0.000177718 2.39022e-05 0)
(-0.00020136 2.35924e-05 0)
(-0.000224869 2.32472e-05 0)
(-0.000248204 2.28679e-05 -2.92631e-31)
(-0.000271328 2.24559e-05 0)
(-0.000294203 2.20129e-05 0)
(-0.000316792 2.15406e-05 0)
(-0.000339058 2.1041e-05 0)
(-0.000360969 2.05161e-05 -2.60904e-31)
(-0.00038249 1.99683e-05 0)
(-0.000403591 1.93999e-05 0)
(-0.000424242 1.88131e-05 0)
(-0.000444415 1.82104e-05 0)
(-0.000464086 1.75943e-05 0)
(-0.000483232 1.69673e-05 0)
(-0.00050183 1.63316e-05 0)
(-0.000519863 1.56898e-05 -1.9665e-31)
(-0.000537315 1.50442e-05 1.88099e-31)
(-0.000554171 1.4397e-05 -1.79535e-31)
(-0.000570421 1.37503e-05 -1.70985e-31)
(-0.000586054 1.31063e-05 0)
(-0.000601063 1.24668e-05 0)
(-0.000615444 1.18337e-05 1.45682e-31)
(-0.000629194 1.12087e-05 1.37442e-31)
(-0.000642313 1.05934e-05 0)
(-0.0006548 9.98915e-06 0)
(-0.00066666 9.39728e-06 1.13587e-31)
(-0.000677897 8.81892e-06 0)
(-0.000688517 8.2551e-06 0)
(-0.000698528 7.7067e-06 -9.13608e-32)
(-0.000707939 7.17448e-06 0)
(-0.000716761 6.65906e-06 -7.76051e-32)
(-0.000725005 6.16096e-06 -1.4214e-31)
(-0.000732683 5.68058e-06 0)
(-0.00073981 5.2182e-06 0)
(-0.000746398 4.77402e-06 0)
(-0.000752463 4.34814e-06 0)
(-0.00075802 3.94056e-06 0)
(-0.000763084 3.55123e-06 -7.37811e-32)
(-0.000767673 3.18e-06 -6.40768e-32)
(-0.000771802 2.82667e-06 -5.4846e-32)
(-0.000775488 2.49098e-06 0)
(-0.000778748 2.17262e-06 3.77752e-32)
(-0.000781599 1.87123e-06 0)
(-0.000784057 1.58642e-06 -2.2497e-32)
(-0.000786138 1.31775e-06 -1.55026e-32)
(-0.00078786 1.06477e-06 0)
(-0.000789239 8.26992e-07 0)
(-0.000790291 6.03926e-07 0)
(-0.000791031 3.95054e-07 8.46359e-33)
(-0.000791476 1.99854e-07 0)
(-0.000791639 1.77947e-08 0)
(-0.000791537 -1.51655e-07 0)
(-0.000791183 -3.09029e-07 0)
(-0.000790592 -4.54858e-07 0)
(-0.000789777 -5.89666e-07 0)
(-0.000788751 -7.13973e-07 0)
(-0.000787527 -8.28287e-07 0)
(-0.000786117 -9.33108e-07 -4.26799e-32)
(-0.000784534 -1.02892e-06 0)
(-0.000782788 -1.11621e-06 0)
(-0.00078089 -1.19542e-06 4.9337e-32)
(-0.000778852 -1.26701e-06 5.11397e-32)
(-0.000776682 -1.3314e-06 0)
(-0.000774392 -1.38901e-06 -5.41878e-32)
(-0.000771989 -1.44024e-06 5.54555e-32)
(-0.000769483 -1.48547e-06 0)
(-0.000766883 -1.52506e-06 -5.75276e-32)
(-0.000764196 -1.55937e-06 0)
(-0.000761429 -1.58872e-06 0)
(-0.000758592 -1.61344e-06 5.9616e-32)
(-0.000755689 -1.63382e-06 0)
(-0.000752729 -1.65014e-06 -6.04264e-32)
(-0.000749716 -1.66268e-06 0)
(-0.000746658 -1.67169e-06 6.08403e-32)
(-0.00074356 -1.67741e-06 6.09149e-32)
(-0.000740428 -1.68005e-06 6.09094e-32)
(-0.000737266 -1.67985e-06 1.21658e-31)
(-0.00073408 -1.67698e-06 -1.2136e-31)
(-0.000730874 -1.67163e-06 0)
(-0.000727653 -1.66397e-06 0)
(-0.000724421 -1.65417e-06 0)
(-0.000721182 -1.64237e-06 -1.18961e-31)
(-0.00071794 -1.6287e-06 -1.18102e-31)
(-0.000714699 -1.61329e-06 1.17152e-31)
(-0.000711463 -1.59625e-06 0)
(-0.000708235 -1.57769e-06 -1.15006e-31)
(-0.000705018 -1.55771e-06 -1.13822e-31)
(-0.000701816 -1.53638e-06 -1.12568e-31)
(-0.000698632 -1.5138e-06 0)
(-0.000695468 -1.49003e-06 0)
(-0.000692329 -1.46513e-06 0)
(-0.000689217 -1.43917e-06 -1.06948e-31)
(-0.000686135 -1.4122e-06 0)
(-0.000683085 -1.38427e-06 0)
(-0.000680071 -1.35542e-06 1.02185e-31)
(-0.000677096 -1.3257e-06 0)
(-0.000674162 -1.29514e-06 0)
(-0.000671272 -1.26378e-06 9.70326e-32)
(-0.000668429 -1.23168e-06 0)
(-0.000665636 -1.19886e-06 0)
(-0.000662894 -1.16537e-06 -9.15491e-32)
(-0.000660208 -1.13126e-06 -8.96588e-32)
(-0.000657579 -1.09658e-06 0)
(-0.000655009 -1.06139e-06 8.58011e-32)
(-0.000652502 -1.02574e-06 0)
(-0.00065006 -9.89711e-07 -8.18617e-32)
(-0.000647685 -9.53379e-07 0)
(-0.000645378 -9.16827e-07 -7.78728e-32)
(-0.000643141 -8.8015e-07 -7.58707e-32)
(-0.000640977 -8.4345e-07 0)
(-0.000638887 -8.0684e-07 0)
(-0.000636871 -7.7044e-07 0)
(-0.00063493 -7.34381e-07 0)
(-0.000633065 -6.98804e-07 0)
(-0.000631277 -6.63857e-07 0)
(-0.000629563 -6.29701e-07 0)
(-0.000627924 -5.96506e-07 -6.04885e-32)
(-0.000626359 -5.64455e-07 5.87572e-32)
(-0.000624864 -5.3374e-07 0)
(-0.000623439 -5.04569e-07 0)
(-0.000622079 -4.77166e-07 0)
(-0.00062078 -4.5177e-07 0)
(-0.000619538 -4.28643e-07 1.02828e-31)
(-0.000618347 -4.08068e-07 0)
(-0.0006172 -3.90355e-07 -9.86483e-32)
(-0.000616089 -3.75847e-07 9.70433e-32)
(-0.000615006 -3.64922e-07 0)
(-0.000613939 -3.57999e-07 0)
(-0.000612876 -3.55547e-07 0)
(-0.000611803 -3.58089e-07 -9.48027e-32)
(-0.000610704 -3.66213e-07 -9.55388e-32)
(-0.000609561 -3.80579e-07 0)
(-0.000608351 -4.0193e-07 -9.90095e-32)
(-0.000607052 -4.31105e-07 -1.01903e-31)
(-0.000605635 -4.6905e-07 1.05693e-31)
(-0.000604069 -5.16831e-07 0)
(-0.000602318 -5.75654e-07 0)
(-0.00060034 -6.46876e-07 1.2358e-31)
(-0.000598088 -7.3203e-07 0)
(-0.000595509 -8.32838e-07 0)
(-0.000592541 -9.51237e-07 0)
(-0.000589114 -1.0894e-06 0)
(-0.00058515 -1.24975e-06 -1.8448e-31)
(-0.000580557 -1.43498e-06 -2.032e-31)
(-0.000575234 -1.64811e-06 0)
(-0.000569064 -1.89243e-06 -2.49414e-31)
(-0.000561914 -2.17157e-06 0)
(-0.000553638 -2.48947e-06 0)
(-0.000544066 -2.85037e-06 -3.46101e-31)
(-0.000533013 -3.25877e-06 0)
(-0.000520268 -3.71937e-06 -4.33706e-31)
(-0.000505599 -4.23699e-06 0)
(-0.000488749 -4.81638e-06 0)
(-0.000469438 -5.46208e-06 -6.09098e-31)
(-0.00044736 -6.17809e-06 0)
(-0.000422189 -6.96753e-06 -7.60296e-31)
(-0.000393581 -7.83219e-06 0)
(-0.000361177 -8.77195e-06 0)
(-0.000324618 -9.78407e-06 0)
(-0.000283551 -1.08624e-05 1.14992e-30)
(-0.000237646 -1.19964e-05 0)
(-0.00018662 -1.31704e-05 -1.37941e-30)
(-0.000130259 -1.4362e-05 0)
(-6.84534e-05 -1.55416e-05 0)
(-1.23151e-06 -1.66709e-05 0)
(7.11929e-05 -1.77016e-05 0)
(0.000148366 -1.85728e-05 0)
(0.00022952 -1.92052e-05 0)
(0.000313441 -1.94847e-05 0)
(0.000398183 -1.9207e-05 3.89671e-30)
(0.000480124 -1.78463e-05 0)
(0.000549508 -1.32355e-05 0)
(-1.17871e-05 7.52493e-05 -9.72154e-31)
(-3.54508e-05 7.51052e-05 9.69454e-31)
(-5.92442e-05 7.4848e-05 0)
(-8.31309e-05 7.44763e-05 -1.92124e-30)
(-0.000107074 7.39897e-05 0)
(-0.000131034 7.33884e-05 9.46976e-31)
(-0.000154973 7.26734e-05 1.87124e-30)
(-0.00017885 7.18464e-05 1.84874e-30)
(-0.000202627 7.09096e-05 0)
(-0.000226263 6.98661e-05 1.79531e-30)
(-0.000249719 6.87198e-05 -8.85235e-31)
(-0.000272956 6.7475e-05 0)
(-0.000295934 6.61366e-05 0)
(-0.000318618 6.47102e-05 0)
(-0.00034097 6.32016e-05 0)
(-0.000362957 6.16174e-05 -7.92102e-31)
(-0.000384544 5.99643e-05 0)
(-0.000405702 5.82493e-05 -1.48655e-30)
(-0.000426399 5.64795e-05 0)
(-0.000446609 5.46624e-05 0)
(-0.000466307 5.28053e-05 1.34297e-30)
(-0.00048547 5.09157e-05 0)
(-0.000504078 4.90009e-05 -1.24284e-30)
(-0.000522111 4.7068e-05 -6.02176e-31)
(-0.000539555 4.51242e-05 5.76846e-31)
(-0.000556396 4.31761e-05 -5.51469e-31)
(-0.000572622 4.12302e-05 -5.26128e-31)
(-0.000588225 3.92928e-05 0)
(-0.000603199 3.73697e-05 0)
(-0.00061754 3.54664e-05 4.51102e-31)
(-0.000631244 3.35878e-05 1.26508e-30)
(-0.000644312 3.17388e-05 0)
(-0.000656745 2.99234e-05 0)
(-0.000668548 2.81457e-05 3.55883e-31)
(-0.000679725 2.6409e-05 0)
(-0.000690283 2.47164e-05 0)
(-0.00070023 2.30703e-05 -2.89911e-31)
(-0.000709576 2.14732e-05 0)
(-0.000718332 1.99268e-05 -7.30246e-31)
(-0.000726509 1.84327e-05 -4.59322e-31)
(-0.000734121 1.6992e-05 0)
(-0.000741181 1.56055e-05 0)
(-0.000747703 1.42738e-05 6.67328e-31)
(-0.000753703 1.29972e-05 6.00763e-31)
(-0.000759196 1.17757e-05 5.37093e-31)
(-0.000764198 1.0609e-05 -7.32499e-31)
(-0.000768726 9.49678e-06 -2.27337e-31)
(-0.000772795 8.4383e-06 1.63389e-31)
(-0.000776424 7.43282e-06 -3.10944e-31)
(-0.000779627 6.47936e-06 1.49081e-31)
(-0.000782424 5.57685e-06 0)
(-0.000784829 4.72408e-06 -1.03585e-31)
(-0.000786861 3.91974e-06 -2.11082e-31)
(-0.000788535 3.16246e-06 0)
(-0.000789867 2.45079e-06 0)
(-0.000790875 1.78321e-06 0)
(-0.000791573 1.15818e-06 -1.12499e-32)
(-0.000791978 5.74124e-07 0)
(-0.000792104 2.9449e-08 7.32813e-32)
(-0.000791965 -4.77449e-07 0)
(-0.000791578 -9.4817e-07 1.23773e-31)
(-0.000790954 -1.38431e-06 0)
(-0.000790109 -1.78744e-06 -1.67024e-31)
(-0.000789054 -2.15913e-06 0)
(-0.000787804 -2.5009e-06 2.03691e-31)
(-0.000786369 -2.81425e-06 -3.11067e-31)
(-0.000784762 -3.10064e-06 0)
(-0.000782994 -3.36149e-06 -2.47728e-31)
(-0.000781076 -3.59818e-06 1.11451e-31)
(-0.000779018 -3.81205e-06 1.16931e-31)
(-0.00077683 -4.00439e-06 0)
(-0.000774523 -4.17643e-06 -4.15304e-31)
(-0.000772105 -4.32938e-06 1.30141e-31)
(-0.000769585 -4.46438e-06 0)
(-0.000766971 -4.58251e-06 -1.36563e-31)
(-0.000764271 -4.68483e-06 -3.14375e-31)
(-0.000761494 -4.77233e-06 0)
(-0.000758645 -4.84596e-06 1.43176e-31)
(-0.000755733 -4.90661e-06 0)
(-0.000752763 -4.95514e-06 1.81404e-31)
(-0.000749743 -4.99235e-06 0)
(-0.000746677 -5.019e-06 -1.82623e-31)
(-0.000743572 -5.0358e-06 1.47728e-31)
(-0.000740434 -5.04342e-06 4.78513e-31)
(-0.000737266 -5.0425e-06 9.56136e-31)
(-0.000734074 -5.03362e-06 -9.54006e-31)
(-0.000730863 -5.01733e-06 0)
(-0.000727638 -4.99415e-06 0)
(-0.000724402 -4.96453e-06 0)
(-0.000721159 -4.92894e-06 3.56976e-31)
(-0.000717914 -4.88776e-06 -2.8659e-31)
(-0.00071467 -4.84137e-06 2.84039e-31)
(-0.000711431 -4.79013e-06 0)
(-0.0007082 -4.73433e-06 -9.01477e-31)
(-0.000704981 -4.67426e-06 -2.74942e-31)
(-0.000701776 -4.6102e-06 -2.71478e-31)
(-0.00069859 -4.54236e-06 0)
(-0.000695425 -4.47096e-06 0)
(-0.000692284 -4.39621e-06 0)
(-0.00068917 -4.31826e-06 -2.55791e-31)
(-0.000686087 -4.23729e-06 0)
(-0.000683036 -4.15344e-06 -5.58462e-31)
(-0.000680021 -4.06684e-06 -3.06579e-31)
(-0.000677044 -3.97762e-06 5.39152e-31)
(-0.000674109 -3.8859e-06 0)
(-0.000671219 -3.7918e-06 7.46563e-31)
(-0.000668375 -3.69544e-06 0)
(-0.00066558 -3.59694e-06 4.97625e-31)
(-0.000662838 -3.49643e-06 -6.98774e-31)
(-0.000660151 -3.39405e-06 -6.82262e-31)
(-0.000657522 -3.28997e-06 0)
(-0.000654952 -3.18433e-06 -2.57403e-31)
(-0.000652445 -3.07734e-06 4.41419e-31)
(-0.000650003 -2.9692e-06 -1.84196e-31)
(-0.000647627 -2.86015e-06 0)
(-0.00064532 -2.75043e-06 -1.72665e-31)
(-0.000643084 -2.64033e-06 2.27599e-31)
(-0.000640921 -2.53017e-06 0)
(-0.000638831 -2.42027e-06 3.70908e-31)
(-0.000636816 -2.31099e-06 3.59229e-31)
(-0.000634876 -2.20274e-06 3.47669e-31)
(-0.000633013 -2.09593e-06 0)
(-0.000631225 -1.99101e-06 0)
(-0.000629514 -1.88846e-06 0)
(-0.000627877 -1.78879e-06 -4.25672e-31)
(-0.000626313 -1.69254e-06 1.17076e-31)
(-0.000624821 -1.60031e-06 0)
(-0.000623399 -1.5127e-06 -2.74153e-31)
(-0.000622041 -1.43039e-06 -2.65386e-31)
(-0.000620746 -1.3541e-06 0)
(-0.000619508 -1.2846e-06 1.91329e-31)
(-0.000618321 -1.22275e-06 -4.86429e-31)
(-0.000617178 -1.16949e-06 -1.79206e-31)
(-0.000616073 -1.12582e-06 6.40121e-31)
(-0.000614994 -1.09289e-06 0)
(-0.000613933 -1.07195e-06 0)
(-0.000612876 -1.06441e-06 0)
(-0.000611811 -1.07183e-06 -1.68603e-31)
(-0.000610719 -1.09598e-06 -6.28336e-31)
(-0.000609584 -1.13882e-06 -4.65771e-31)
(-0.000608385 -1.20259e-06 -1.81799e-31)
(-0.000607096 -1.28981e-06 -6.8675e-31)
(-0.000605691 -1.4033e-06 2.02297e-31)
(-0.000604137 -1.54626e-06 0)
(-0.0006024 -1.7223e-06 0)
(-0.000600437 -1.9355e-06 8.83894e-31)
(-0.000598203 -2.19043e-06 0)
(-0.000595642 -2.49228e-06 0)
(-0.000592696 -2.84685e-06 -8.12603e-31)
(-0.000589293 -3.26063e-06 0)
(-0.000585355 -3.74092e-06 -1.4368e-30)
(-0.000580792 -4.29581e-06 -4.99025e-31)
(-0.000575501 -4.93431e-06 0)
(-0.000569366 -5.66632e-06 -2.02649e-30)
(-0.000562256 -6.50273e-06 0)
(-0.000554023 -7.45537e-06 0)
(-0.000544499 -8.53698e-06 -9.34123e-31)
(-0.000533497 -9.76107e-06 -2.22007e-30)
(-0.000520808 -1.11418e-05 -1.20122e-30)
(-0.000506199 -1.26936e-05 0)
(-0.000489413 -1.44309e-05 0)
(-0.000470169 -1.63673e-05 -5.29902e-30)
(-0.000448161 -1.85149e-05 0)
(-0.000423061 -2.08832e-05 -6.67757e-30)
(-0.000394524 -2.34777e-05 0)
(-0.000362189 -2.62981e-05 0)
(-0.000325692 -2.93364e-05 0)
(-0.000284678 -3.25743e-05 3.39499e-30)
(-0.000238812 -3.59806e-05 0)
(-0.000187805 -3.9508e-05 -4.10276e-30)
(-0.000131438 -4.30899e-05 0)
(-6.95938e-05 -4.66375e-05 0)
(-2.29249e-06 -5.00361e-05 -1.03481e-29)
(7.02617e-05 -5.31412e-05 1.09628e-29)
(0.000147628 -5.57712e-05 0)
(0.000229061 -5.76917e-05 0)
(0.000313403 -5.85715e-05 0)
(0.000398889 -5.78438e-05 -1.17358e-29)
(0.000482768 -5.41939e-05 0)
(0.000561428 -4.32084e-05 1.74464e-29)
(-1.19455e-05 0.000125977 -6.51144e-30)
(-3.59262e-05 0.000125733 8.54947e-34)
(-6.00355e-05 0.000125297 0)
(-8.42355e-05 0.000124667 -1.99544e-33)
(-0.000108487 0.000123843 0)
(-0.000132749 0.000122824 0)
(-0.000156981 0.000121613 6.26869e-30)
(-0.000181142 0.000120212 3.09886e-30)
(-0.00020519 0.000118626 -3.05188e-30)
(-0.000229084 0.000116861 3.00996e-30)
(-0.000252783 0.000114922 0)
(-0.000276245 0.000112817 0)
(-0.000299433 0.000110555 2.83656e-30)
(-0.000322307 0.000108146 5.54532e-30)
(-0.000344831 0.000105599 -5.41046e-30)
(-0.00036697 0.000102926 0)
(-0.000388689 0.000100138 -5.12192e-30)
(-0.000409958 9.72469e-05 -2.49441e-30)
(-0.000430747 9.42657e-05 0)
(-0.00045103 9.12064e-05 -4.65135e-30)
(-0.000470781 8.80818e-05 2.25463e-30)
(-0.000489977 8.49043e-05 4.32003e-30)
(-0.0005086 8.16863e-05 -2.08752e-30)
(-0.000526632 7.844e-05 0)
(-0.000544058 7.5177e-05 -3.80948e-30)
(-0.000560865 7.19089e-05 -3.63814e-30)
(-0.000577044 6.86464e-05 0)
(-0.000592586 6.53999e-05 -3.29714e-30)
(-0.000607487 6.21791e-05 0)
(-0.000621743 5.89931e-05 -2.96178e-30)
(-0.000635354 5.58502e-05 1.41369e-30)
(-0.00064832 5.27583e-05 0)
(-0.000660643 4.97244e-05 0)
(-0.00067233 4.67546e-05 0)
(-0.000683385 4.38548e-05 0)
(-0.000693817 4.10298e-05 0)
(-0.000703636 3.82838e-05 0)
(-0.00071285 3.56205e-05 -1.74055e-30)
(-0.000721473 3.30428e-05 7.85999e-31)
(-0.000729517 3.05533e-05 0)
(-0.000736995 2.81536e-05 0)
(-0.000743921 2.58451e-05 0)
(-0.000750312 2.36286e-05 2.26599e-30)
(-0.000756181 2.15045e-05 1.04034e-30)
(-0.000761546 1.94727e-05 3.59613e-32)
(-0.000766422 1.75327e-05 -3.61911e-32)
(-0.000770827 1.56838e-05 7.01637e-31)