/*--------------------------------*- C++ -*----------------------------------*\
  =========                 |
  \\      /  F ield         | OpenFOAM: The Open Source CFD Toolbox
   \\    /   O peration     | Website:  https://openfoam.org
    \\  /    A nd           | Version:  10
     \\/     M anipulation  |
\*---------------------------------------------------------------------------*/
FoamFile
{
    format      ascii;
    class       volScalarField;
    location    "0.09";
    object      T;
}
// * * * * * * * * * * * * * * * * * * * * * * * * * * * * * * * * * * * * * //

dimensions      [0 0 0 1 0 0 0];

internalField   nonuniform List<scalar> 
12225
(
1.00078
0.99983
1.00012
1.00011
1.00018
1.00045
1.00048
1.00029
1.00024
1.00036
1.00044
1.00036
1.0002
0.999976
0.999762
0.999405
0.998338
0.997237
1.00003
0.999827
1.00006
1.00005
1.00011
1.00041
1.0005
1.00033
1.00023
1.00031
1.00039
1.00034
1.00018
0.999956
0.999697
0.999322
0.998459
0.997369
0.999764
1.00012
1.00024
1.00008
1.0001
1.00037
1.00045
1.00029
1.0002
1.00027
1.00032
1.00027
1.00016
0.999996
0.999785
0.999456
0.9987
0.997765
1.00007
1.00003
1.00016
1.0001
1.00011
1.00032
1.0004
1.00028
1.00022
1.0003
1.00037
1.00033
1.00022
1.00004
0.999785
0.999436
0.998838
0.998174
1.00009
1.00028
1.00054
1.00023
1.00008
1.00033
1.00048
1.00036
1.00024
1.00025
1.00028
1.00023
1.00012
0.999991
0.999811
0.999586
0.999198
0.998735
0.999792
1.00009
1.00049
1.00028
1.00011
1.00027
1.00034
1.00022
1.00017
1.00024
1.00031
1.00029
1.0002
1.00007
0.999911
0.999704
0.99941
0.999066
0.999775
1.00037
1.00097
1.00049
1.00007
1.00026
1.00043
1.00036
1.00027
1.00025
1.00024
1.00018
1.00009
0.999999
0.999881
0.999734
0.999537
0.999285
1.00009
1.00051
1.00094
1.00043
1.00008
1.00025
1.00031
1.00018
1.00011
1.00017
1.00023
1.00023
1.00017
1.0001
1
0.999879
0.999731
0.99954
0.998855
1.00088
1.00126
1.00046
0.999973
1.00016
1.00035
1.00032
1.00025
1.00023
1.0002
1.00014
1.00006
1
0.99994
0.999857
0.999757
0.999612
0.999599
1.00093
1.00109
1.00044
1.00005
1.00017
1.00024
1.0001
1.00002
1.00007
1.00014
1.00015
1.00013
1.00012
1.00008
1.00002
0.999945
0.999845
0.998572
1.0006
1.00111
1.00033
0.999871
1.00008
1.00029
1.00025
1.00019
1.0002
1.00018
1.00011
1.00003
0.99998
0.999939
0.999892
0.999829
0.999763
1.00011
1.00078
1.00092
1.00036
0.999945
1.00006
1.00014
1.00001
0.999938
0.999983
1.00006
1.00009
1.0001
1.0001
1.0001
1.00007
1.00004
0.999989
0.998767
1.00066
1.00065
1.00025
0.999877
1.00001
1.00019
1.00015
1.0001
1.00011
1.0001
1.00005
0.999996
0.999968
0.999957
0.999937
0.999913
0.999875
1.00051
1.00017
0.999747
0.999892
0.999828
0.999884
0.999944
0.999884
0.999844
0.999892
0.999967
1.00002
1.00004
1.00006
1.00006
1.00007
1.00005
1.00006
0.999766
0.999123
0.99988
1.00044
1.00028
1.00009
1.00006
1.00008
1.00009
1.00008
1.00006
1.00004
1
0.999971
0.999944
0.999935
0.999909
0.999901
1.00358
1.00016
0.999478
0.999135
0.999199
0.999423
0.999584
0.999723
0.999825
0.999862
0.999896
0.999959
1.00003
1.00008
1.00011
1.00013
1.00015
1.00015
0.998925
0.998094
0.998226
0.999189
0.999912
1.00019
1.00014
1.00005
1.00001
0.999986
0.999978
0.999984
0.999975
0.999961
0.999952
0.999958
0.999963
0.999976
1.00101
1.00005
0.999707
0.999502
0.99937
0.999427
0.999517
0.999607
0.999723
0.999868
0.999985
1.00004
1.00005
1.00008
1.00012
1.00017
1.0002
1.00023
0.998494
0.999983
1.00047
1.00037
1.00058
1.00076
1.00072
1.00065
1.0006
1.00057
1.00057
1.00057
1.00056
1.00054
1.00052
1.00049
1.00045
1.00041
1.00062
1.00247
1.00239
1.0013
1.00084
1.00062
1.00051
1.00048
1.00044
1.00037
1.00033
1.00029
1.00027
1.00028
1.0003
1.00033
1.00036
1.0004
0.998269
1.00068
1.00172
1.00135
1.00105
1.0009
1.00092
1.00096
1.0009
1.00081
1.00078
1.00078
1.00077
1.00074
1.0007
1.00066
1.00062
1.00058
0.998786
1.00001
1.00127
1.00127
1.00067
1.00056
1.00073
1.00068
1.00053
1.00052
1.00055
1.00053
1.0005
1.00048
1.00048
1.0005
1.00051
1.00052
1.00022
0.999391
1.00003
1.00066
1.00056
1.00055
1.0007
1.00072
1.0007
1.00075
1.0008
1.00075
1.00068
1.00066
1.00066
1.00065
1.00061
1.00058
0.999903
0.9998
1.00049
1.0009
1.00068
1.00055
1.00061
1.00063
1.00057
1.00052
1.0005
1.00048
1.00049
1.00052
1.00054
1.00056
1.00057
1.00058
0.999794
1.00045
1.0005
1.00049
1.00033
1.00028
1.00045
1.00062
1.00068
1.00069
1.00069
1.00067
1.00066
1.00067
1.00065
1.00062
1.00059
1.00057
0.998757
1.00083
1.00083
1.0007
1.00059
1.00055
1.00064
1.00065
1.00058
1.00054
1.00056
1.00058
1.00056
1.00056
1.00057
1.0006
1.00063
1.00065
0.99936
1.00107
1.00082
1.00038
1.0003
1.00037
1.00054
1.00062
1.00059
1.00058
1.00065
1.00072
1.00072
1.00068
1.00063
1.00059
1.00056
1.00055
0.999242
1.00085
1.00085
1.00061
1.0006
1.0006
1.00064
1.00063
1.00055
1.00049
1.00051
1.00055
1.00057
1.00057
1.00058
1.00059
1.0006
1.00061
0.998611
1.00033
1.00053
1.00047
1.00051
1.00054
1.00059
1.0006
1.00056
1.00055
1.00062
1.00068
1.0007
1.00066
1.00061
1.00055
1.00052
1.00052
0.999703
1.00021
1.00065
1.00068
1.00061
1.00057
1.0006
1.0006
1.00054
1.00053
1.0006
1.00068
1.00071
1.00067
1.00061
1.00057
1.00054
1.00058
0.945129
0.945217
0.944983
0.944471
0.944585
0.94533
0.946035
0.946872
0.947534
0.947618
0.947291
0.946837
0.946382
0.945943
0.94551
0.945066
0.9446
0.944111
0.943602
0.943075
0.942544
0.942003
0.941463
0.940922
0.940417
0.940057
0.93987
0.939833
0.939998
0.940444
0.941257
0.942444
0.943593
0.943444
0.941504
0.938751
0.935901
0.934221
0.932862
0.932292
0.932004
0.930387
0.930674
0.930648
0.929773
0.929256
0.929335
0.930084
0.929053
0.926885
0.925867
0.926454
0.930981
0.934768
0.93522
0.933869
0.93227
0.931162
0.930521
0.930242
0.930198
0.930297
0.930475
0.930705
0.930965
0.93125
0.931555
0.931876
0.93221
0.932556
0.932909
0.933267
0.933625
0.933981
0.93434
0.934725
0.935109
0.935471
0.935826
0.936172
0.936511
0.936843
0.937169
0.937491
0.937811
0.938134
0.938463
0.938806
0.93917
0.939569
0.940013
0.940508
0.941057
0.941673
0.942361
0.943106
0.94386
0.944584
0.945289
0.946016
0.94672
0.947264
0.947616
0.947968
0.94831
0.948203
0.947821
0.947544
0.947352
0.947402
0.9482
0.950749
0.955017
0.955555
0.948353
0.943202
0.944876
0.9443
0.942613
0.942062
0.940027
0.937607
0.935258
0.932024
0.928002
0.924012
0.920646
0.917924
0.91575
0.914143
0.913016
0.912235
0.911705
0.9114
0.911379
0.911765
0.912703
0.914294
0.916495
0.91913
0.92217
0.92547
0.92859
0.930935
0.931941
0.931613
0.930356
0.928711
0.927409
0.927304
0.928269
0.92854
0.928004
0.927256
0.926511
0.925909
0.925512
0.925284
0.925163
0.925121
0.925036
0.924873
0.924786
0.92452
0.923959
0.923741
0.923323
0.922305
0.922449
0.922916
0.922107
0.922747
0.925178
0.923673
0.919337
0.922077
0.930145
0.926806
0.916709
0.916377
0.94377
0.943796
0.943763
0.943198
0.943092
0.943686
0.944638
0.945275
0.945393
0.945098
0.944636
0.944196
0.943832
0.943524
0.943235
0.942935
0.942607
0.942247
0.94186
0.941463
0.941065
0.940686
0.940318
0.939956
0.939566
0.939072
0.938537
0.938077
0.937784
0.937749
0.938079
0.938808
0.939816
0.940148
0.939358
0.938505
0.936875
0.934421
0.932739
0.932548
0.931377
0.93003
0.929735
0.929696
0.928516
0.926668
0.926883
0.92333
0.923861
0.926489
0.924557
0.922144
0.926676
0.931239
0.931587
0.930211
0.928865
0.928004
0.927618
0.92759
0.927809
0.928166
0.928592
0.929043
0.929496
0.929946
0.930393
0.930839
0.931285
0.931735
0.932188
0.932648
0.933118
0.933598
0.934068
0.934495
0.934893
0.935282
0.935657
0.936025
0.936387
0.936744
0.937094
0.937437
0.937769
0.938091
0.938404
0.938711
0.939021
0.939348
0.939709
0.940123
0.940607
0.94118
0.941854
0.942617
0.943423
0.944225
0.945019
0.945829
0.946626
0.947283
0.947734
0.948151
0.948656
0.948879
0.948625
0.948128
0.947411
0.946685
0.94711
0.94937
0.952948
0.953397
0.946694
0.940927
0.942174
0.943869
0.943471
0.942154
0.939791
0.937901
0.93611
0.933088
0.929128
0.925103
0.921481
0.918463
0.916061
0.91424
0.912889
0.911867
0.911081
0.910525
0.910286
0.910515
0.911385
0.913026
0.915449
0.918468
0.921732
0.925148
0.928491
0.931104
0.932261
0.931922
0.930609
0.928987
0.927812
0.927884
0.928946
0.929135
0.928527
0.927724
0.926934
0.9263
0.925874
0.925617
0.925479
0.925408
0.925276
0.92511
0.925053
0.924737
0.924121
0.92397
0.923518
0.92232
0.922547
0.92316
0.92211
0.922757
0.925558
0.924225
0.919914
0.92181
0.928026
0.924064
0.916984
0.917436
0.945804
0.94594
0.945792
0.9458
0.945513
0.945147
0.944674
0.944037
0.943409
0.942961
0.942731
0.942649
0.942613
0.942558
0.942455
0.942293
0.942064
0.941763
0.941384
0.94093
0.940416
0.939874
0.939349
0.938896
0.938526
0.938186
0.93778
0.937242
0.936599
0.935989
0.935544
0.935347
0.935516
0.93586
0.936226
0.936642
0.93644
0.935731
0.934854
0.933838
0.932699
0.93115
0.930519
0.931397
0.929852
0.929761
0.929175
0.92798
0.923869
0.925998
0.926663
0.925838
0.926221
0.926305
0.925549
0.924889
0.924784
0.925177
0.92589
0.926692
0.927461
0.928136
0.928714
0.929218
0.929671
0.930092
0.930494
0.930888
0.931278
0.931666
0.932051
0.932435
0.932822
0.933222
0.933627
0.934028
0.934428
0.934823
0.935211
0.93559
0.935961
0.936323
0.936677
0.937022
0.937358
0.937688
0.938016
0.938346
0.938689
0.939054
0.939454
0.939901
0.940412
0.941007
0.941697
0.942479
0.943318
0.944171
0.94501
0.945834
0.946623
0.947344
0.947984
0.948556
0.949044
0.949383
0.949497
0.949179
0.948168
0.946807
0.946652
0.948641
0.951736
0.951515
0.945269
0.939948
0.941549
0.945349
0.945566
0.943127
0.940203
0.93768
0.934933
0.931344
0.927282
0.923346
0.919939
0.917139
0.914905
0.913194
0.911932
0.911017
0.910384
0.910036
0.910027
0.910444
0.911409
0.91301
0.915242
0.917989
0.921124
0.924658
0.928317
0.931339
0.932682
0.932242
0.930759
0.929144
0.928232
0.928682
0.929849
0.930064
0.929466
0.928636
0.927799
0.927104
0.926627
0.92634
0.926152
0.926033
0.925899
0.925661
0.925483
0.925213
0.924568
0.924156
0.923768
0.9227
0.922403
0.923082
0.922771
0.922914
0.925251
0.924993
0.92191
0.922984
0.928103
0.926493
0.920751
0.918938
0.945212
0.945471
0.945951
0.945431
0.944503
0.943929
0.943887
0.944155
0.94447
0.944738
0.94497
0.945164
0.945285
0.945299
0.945198
0.944989
0.944686
0.944302
0.943849
0.943333
0.942759
0.942132
0.941462
0.940759
0.940079
0.939535
0.939112
0.938697
0.938198
0.937549
0.936793
0.936004
0.935284
0.934817
0.934712
0.934934
0.935267
0.935783
0.935948
0.935508
0.935154
0.933704
0.933574
0.932961
0.931803
0.933025
0.931285
0.930725
0.929786
0.928502
0.926883
0.925869
0.925761
0.925884
0.925797
0.925706
0.925794
0.92609
0.926521
0.926995
0.927459
0.927888
0.928272
0.928633
0.928985
0.929345
0.929719
0.93011
0.930511
0.930916
0.931315
0.931707
0.932094
0.932493
0.932908
0.933314
0.933708
0.934098
0.934488
0.93488
0.935272
0.935661
0.936043
0.936411
0.93676
0.937087
0.937394
0.937685
0.937975
0.938279
0.938612
0.938994
0.939448
0.939999
0.940671
0.941463
0.942345
0.943256
0.944139
0.944956
0.945695
0.946398
0.94713
0.947914
0.948584
0.949039
0.949547
0.950131
0.949765
0.948259
0.947185
0.948269
0.950789
0.950072
0.943649
0.938669
0.940567
0.944676
0.945499
0.943387
0.9401
0.93695
0.933778
0.930064
0.92602
0.922207
0.919012
0.916441
0.914448
0.912974
0.911931
0.911212
0.910748
0.910536
0.910608
0.911015
0.911823
0.913066
0.914783
0.917116
0.919998
0.923313
0.927113
0.930673
0.932465
0.932103
0.93051
0.928987
0.92853
0.929502
0.930708
0.931009
0.930493
0.929725
0.928956
0.928307
0.927828
0.927499
0.927242
0.927023
0.926786
0.926454
0.926161
0.925804
0.92511
0.924569
0.924131
0.923128
0.922696
0.923369
0.923436
0.923549
0.925797
0.926114
0.92351
0.924271
0.928461
0.927256
0.921848
0.919961
0.946915
0.947373
0.946508
0.94559
0.945511
0.945778
0.946019
0.946369
0.946816
0.947189
0.947363
0.947316
0.947079
0.946696
0.946199
0.945607
0.944919
0.94413
0.943244
0.942289
0.941315
0.940388
0.939582
0.938999
0.938709
0.938649
0.938786
0.939074
0.939328
0.939277
0.938772
0.937875
0.936699
0.935492
0.934615
0.934327
0.934592
0.9353
0.935898
0.936418
0.936861
0.936397
0.936858
0.935815
0.935933
0.936082
0.936949
0.933133
0.930471
0.928215
0.926753
0.926332
0.926665
0.927145
0.927285
0.927116
0.926772
0.926452
0.926252
0.926222
0.926329
0.926548
0.926842
0.927198
0.927598
0.928036
0.928496
0.928969
0.929438
0.929894
0.93033
0.93075
0.931158
0.93156
0.931954
0.93233
0.932698
0.933078
0.933479
0.933903
0.934348
0.934807
0.93527
0.935723
0.93615
0.936537
0.936877
0.937173
0.937436
0.937682
0.937938
0.938236
0.938614
0.939118
0.939789
0.940647
0.941669
0.942774
0.943835
0.94476
0.945504
0.94613
0.94673
0.947404
0.948003
0.948386
0.948479
0.948979
0.949264
0.948159
0.946859
0.947656
0.950063
0.949607
0.943769
0.939055
0.940571
0.944435
0.945637
0.943312
0.939432
0.936079
0.932898
0.929118
0.925043
0.921378
0.918462
0.916272
0.914682
0.913564
0.9128
0.912253
0.911829
0.911524
0.911371
0.911357
0.911453
0.911749
0.912515
0.914045
0.916169
0.918738
0.922578
0.927218
0.930228
0.930497
0.929035
0.927765
0.92797
0.929667
0.931199
0.931677
0.931176
0.930351
0.92958
0.929
0.928625
0.928387
0.928165
0.92792
0.927651
0.927289
0.926911
0.926524
0.925915
0.925318
0.924845
0.923982
0.923457
0.924044
0.924483
0.924832
0.92698
0.927758
0.925878
0.92663
0.929554
0.927919
0.923164
0.920315
0.949181
0.948525
0.946841
0.946549
0.946732
0.947058
0.94734
0.947429
0.94735
0.947204
0.947032
0.946814
0.946512
0.9461
0.945564
0.944894
0.944078
0.943116
0.94203
0.940858
0.93966
0.938523
0.937573
0.936928
0.936728
0.936921
0.937255
0.93756
0.937846
0.938111
0.938114
0.937664
0.93683
0.935786
0.934694
0.933937
0.933835
0.934347
0.935182
0.936171
0.936541
0.936705
0.936772
0.935903
0.93553
0.935693
0.934388
0.931206
0.929257
0.927651
0.926928
0.926881
0.927057
0.927114
0.926845
0.926334
0.925744
0.925273
0.925022
0.925028
0.925234
0.925579
0.925989
0.926424
0.926852
0.927269
0.927669
0.928058
0.928443
0.928837
0.929246
0.929669
0.930077
0.930425
0.930732
0.931064
0.931441
0.931862
0.932323
0.932821
0.933351
0.933906
0.934471
0.935022
0.935534
0.935986
0.936361
0.936654
0.93687
0.937031
0.937179
0.937376
0.937684
0.938157
0.93884
0.939752
0.94089
0.942174
0.943441
0.94456
0.945444
0.946149
0.946745
0.94739
0.94807
0.948668
0.948609
0.948321
0.948685
0.948164
0.946824
0.947335
0.949621
0.949381
0.944175
0.939594
0.940781
0.944242
0.945282
0.942581
0.938531
0.935314
0.932134
0.928229
0.924291
0.921037
0.91855
0.91681
0.915578
0.914683
0.913994
0.913362
0.912702
0.912001
0.911212
0.910237
0.909179
0.908572
0.908936
0.910027
0.911131
0.912805
0.916839
0.923047
0.927727
0.928988
0.927754
0.926583
0.927088
0.929276
0.931512
0.93252
0.932253
0.931435
0.930589
0.92993
0.929506
0.929253
0.929034
0.928776
0.928491
0.928153
0.927781
0.927414
0.926895
0.926259
0.925686
0.924842
0.92417
0.924805
0.925854
0.926453
0.928603
0.930185
0.928973
0.929091
0.931552
0.930029
0.925786
0.921499
0.946252
0.945529
0.945355
0.946103
0.946679
0.946635
0.946404
0.946271
0.946226
0.946224
0.94613
0.945771
0.945043
0.943964
0.942637
0.941179
0.939682
0.938199
0.936789
0.935519
0.934444
0.933667
0.933262
0.933148
0.933427
0.934122
0.934906
0.935506
0.93596
0.936425
0.936723
0.936425
0.93548
0.934366
0.933402
0.932784
0.932761
0.933238
0.933957
0.934618
0.934946
0.935498
0.935066
0.934705
0.934338
0.934444
0.931822
0.929425
0.928216
0.927154
0.926666
0.926426
0.926134
0.925784
0.925346
0.924958
0.924715
0.924671
0.924796
0.925034
0.92531
0.925572
0.92578
0.925939
0.926066
0.926199
0.92637
0.926612
0.92694
0.927359
0.927855
0.928387
0.928867
0.929271
0.92969
0.930149
0.930626
0.931105
0.931578
0.932049
0.932523
0.933005
0.933493
0.933979
0.934449
0.934882
0.935267
0.935603
0.935908
0.936196
0.936489
0.936816
0.937205
0.937681
0.938289
0.939082
0.940127
0.941393
0.942693
0.943848
0.944731
0.945408
0.94593
0.94657
0.947555
0.948596
0.949299
0.948822
0.948781
0.948849
0.94756
0.947485
0.949401
0.949078
0.944324
0.939846
0.940637
0.943776
0.944528
0.941554
0.937585
0.934613
0.931392
0.927479
0.924046
0.921417
0.919267
0.917696
0.91658
0.915702
0.914947
0.914149
0.913121
0.9117
0.909778
0.907477
0.90539
0.904462
0.905217
0.906719
0.907454
0.908688
0.913071
0.920529
0.926472
0.928685
0.927681
0.926488
0.927049
0.929325
0.931924
0.933309
0.93331
0.932702
0.932031
0.931465
0.93104
0.930714
0.930391
0.930021
0.929646
0.929269
0.928868
0.92844
0.927874
0.927143
0.926407
0.925577
0.925051
0.925811
0.927421
0.928566
0.930732
0.932681
0.932435
0.931995
0.933993
0.932717
0.928929
0.923962
0.946616
0.946493
0.946559
0.946668
0.946407
0.946045
0.945934
0.945957
0.945882
0.945528
0.944667
0.943229
0.941368
0.939319
0.937267
0.935302
0.933432
0.931658
0.930044
0.928698
0.927755
0.927395
0.927706
0.928402
0.929156
0.929986
0.930836
0.931552
0.932199
0.932975
0.933661
0.933835
0.933472
0.932848
0.932184
0.93178
0.931855
0.93221
0.932707
0.933245
0.933711
0.933902
0.933183
0.932858
0.932906
0.932836
0.930108
0.928415
0.927443
0.926458
0.92589
0.925429
0.925028
0.924795
0.924676
0.92472
0.924849
0.924998
0.92509
0.925093
0.925008
0.924874
0.924732
0.924634
0.924622
0.924734
0.924994
0.925412
0.925976
0.926646
0.927351
0.928029
0.928699
0.929361
0.929955
0.930464
0.930896
0.93126
0.931575
0.931858
0.932122
0.932385
0.932676
0.933022
0.933418
0.933842
0.934272
0.934714
0.93519
0.935689
0.936152
0.936535
0.93683
0.937089
0.937442
0.938023
0.938994
0.940392
0.941971
0.943414
0.944443
0.945067
0.945483
0.946134
0.947589
0.948931
0.94996
0.949898
0.949333
0.949692
0.948942
0.948439
0.950015
0.949637
0.944649
0.939473
0.939181
0.941941
0.942769
0.940107
0.936633
0.934056
0.930856
0.92711
0.924287
0.92219
0.920228
0.918479
0.917283
0.916424
0.915678
0.914676
0.912984
0.910354
0.907007
0.903702
0.901395
0.900821
0.902296
0.904873
0.906193
0.906698
0.910524
0.918262
0.925436
0.928767
0.927883
0.926562
0.927464
0.930528
0.933649
0.934916
0.934581
0.933849
0.933289
0.932906
0.932651
0.932428
0.932105
0.93165
0.931153
0.930669
0.930149
0.929577
0.928938
0.928183
0.927362
0.926547
0.926187
0.927074
0.929134
0.930907
0.933102
0.935062
0.935709
0.935132
0.936451
0.935722
0.932593
0.927578
0.947872
0.947437
0.947266
0.947227
0.947052
0.946894
0.946731
0.946391
0.945827
0.9449
0.943502
0.941801
0.940014
0.938289
0.936668
0.935087
0.933453
0.931745
0.930056
0.928514
0.927234
0.9265
0.926517
0.926903
0.927142
0.927447
0.928076
0.92884
0.929694
0.930679
0.93138
0.931442
0.931049
0.93054
0.930091
0.929892
0.930023
0.93034
0.930851
0.931458
0.931808
0.93155
0.931414
0.931419
0.931817
0.930981
0.928822
0.927605
0.926663
0.925661
0.925092
0.92464
0.924423
0.924433
0.924524
0.924647
0.924678
0.924604
0.924432
0.924221
0.924029
0.923911
0.923895
0.923995
0.924208
0.92453
0.924954
0.925473
0.926069
0.926706
0.92734
0.92796
0.928581
0.92917
0.929656
0.930031
0.930335
0.930607
0.930882
0.931182
0.931514
0.931885
0.932313
0.932805
0.933342
0.933872
0.934339
0.934711
0.934982
0.935146
0.935199
0.935195
0.935213
0.935333
0.935694
0.936431
0.937631
0.939326
0.941299
0.943112
0.944415
0.94516
0.945694
0.946502
0.948427
0.950452
0.951436
0.951641
0.950843
0.950921
0.950813
0.950092
0.951459
0.951761
0.946995
0.940774
0.938468
0.940176
0.941041
0.938861
0.936122
0.933951
0.930768
0.927209
0.92479
0.922974
0.921072
0.919146
0.917773
0.916981
0.91624
0.91481
0.912072
0.908003
0.903549
0.90011
0.898482
0.898676
0.900688
0.90411
0.905441
0.904109
0.906507
0.914341
0.923411
0.928064
0.927505
0.926195
0.927417
0.931368
0.935845
0.937507
0.93673
0.935501
0.93478
0.934383
0.934128
0.933916
0.93358
0.933082
0.932524
0.931977
0.931402
0.930789
0.930178
0.929464
0.9285
0.927537
0.927297
0.928467
0.930923
0.933181
0.935441
0.937337
0.938413
0.938044
0.938432
0.938213
0.93616
0.931769
0.949756
0.949628
0.949623
0.94946
0.949049
0.948668
0.94827
0.947852
0.947301
0.946359
0.945123
0.94387
0.942631
0.941436
0.940272
0.938991
0.937474
0.935738
0.933911
0.932148
0.930594
0.929477
0.92895
0.928929
0.929073
0.929146
0.929246
0.929292
0.929378
0.929651
0.929735
0.929357
0.928676
0.92797
0.927486
0.927398
0.927704
0.928279
0.929036
0.929762
0.930178
0.930298
0.930741
0.930969
0.93083
0.929336
0.927769
0.926697
0.925746
0.924822
0.924332
0.923954
0.92387
0.923927
0.923999
0.924049
0.924028
0.923996
0.923988
0.924043
0.924159
0.92432
0.92449
0.924638
0.924739
0.924798
0.924858
0.924985
0.925221
0.92558
0.926039
0.926514
0.926944
0.927386
0.927836
0.928259
0.92865
0.929037
0.929469
0.929988
0.930615
0.931346
0.932155
0.932994
0.933809
0.934522
0.935048
0.935307
0.935278
0.935056
0.934816
0.934732
0.934935
0.935468
0.936331
0.937605
0.939174
0.940903
0.942716
0.944331
0.945641
0.946542
0.946959
0.947509
0.948917
0.951088
0.952492
0.952946
0.952479
0.952396
0.952676
0.952004
0.953066
0.954325
0.950938
0.944967
0.941606
0.941772
0.941536
0.939096
0.936766
0.934652
0.931239
0.927691
0.925416
0.923676
0.921779
0.919798
0.91822
0.917423
0.916536
0.914453
0.910551
0.905276
0.900437
0.897749
0.897295
0.897694
0.898945
0.902506
0.904007
0.901335
0.902567
0.910876
0.921487
0.926753
0.926735
0.925807
0.927166
0.93158
0.937564
0.939932
0.938882
0.937417
0.936579
0.936164
0.93585
0.935516
0.935019
0.934374
0.933735
0.933177
0.932626
0.932051
0.931517
0.930781
0.92949
0.928347
0.928428
0.930036
0.93278
0.935397
0.937787
0.939809
0.941102
0.94116
0.940866
0.940506
0.939098
0.935566
0.95246
0.952188
0.952049
0.951749
0.951354
0.951236
0.951132
0.950897
0.950378
0.949415
0.948265
0.947148
0.946086
0.945093
0.944076
0.942858
0.941336
0.93955
0.937666
0.935851
0.9342
0.932869
0.932052
0.931827
0.93193
0.932007
0.931991
0.93181
0.931458
0.930999
0.930457
0.929889
0.929412
0.929146
0.929173
0.929518
0.930094
0.930702
0.931215
0.931463
0.931273
0.931036
0.930695
0.930233
0.929501
0.928034
0.92662
0.92557
0.924623
0.923854
0.923447
0.92316
0.923181
0.923301
0.923489
0.923727
0.923999
0.92432
0.924651
0.92495
0.925153
0.925211
0.925085
0.924779
0.924348
0.923912
0.923618
0.92357
0.923796
0.924264
0.924912
0.925599
0.926216
0.926841
0.927446
0.927945
0.928324
0.928631
0.928951
0.929367
0.929933
0.930662
0.931528
0.932473
0.933428
0.934302
0.934998
0.935443
0.935643
0.935738
0.935954
0.936411
0.937126
0.938083
0.939121
0.940206
0.941299
0.94238
0.943623
0.945285
0.947224
0.948525
0.948432
0.948181
0.948848
0.950541
0.952558
0.953645
0.953605
0.953585
0.954174
0.953861
0.954444
0.95622
0.954628
0.950012
0.946761
0.94556
0.943702
0.940751
0.938528
0.936143
0.932241
0.928488
0.926185
0.924418
0.922467
0.920435
0.918749
0.917754
0.916535
0.913754
0.908877
0.902894
0.898311
0.896815
0.897266
0.896969
0.896897
0.90049
0.903347
0.900409
0.900482
0.909279
0.920762
0.926087
0.926411
0.926226
0.927417
0.931563
0.938596
0.942318
0.940607
0.938941
0.938222
0.937824
0.937512
0.937169
0.936597
0.935842
0.935121
0.934527
0.933979
0.933446
0.932937
0.931989
0.930337
0.929195
0.929704
0.931733
0.934679
0.937626
0.940213
0.942372
0.943738
0.94414
0.94362
0.94288
0.941671
0.938734
0.955257
0.955038
0.954995
0.954746
0.954336
0.954078
0.953807
0.95341
0.95272
0.951715
0.950594
0.949455
0.94836
0.947363
0.946432
0.945437
0.944247
0.942831
0.941269
0.939643
0.938024
0.936584
0.935521
0.934892
0.934623
0.934624
0.934728
0.934814
0.93482
0.934709
0.934508
0.934291
0.934124
0.934102
0.934216
0.934293
0.934212
0.933844
0.933134
0.932083
0.930853
0.929692
0.928509
0.927757
0.927287
0.926289
0.924997
0.924112
0.923287
0.92274
0.922456
0.922352
0.922564
0.922894
0.923367
0.923926
0.924512
0.925034
0.92539
0.925529
0.925438
0.925137
0.92466
0.924092
0.923573
0.92325
0.923181
0.923349
0.923717
0.924251
0.924925
0.925763
0.926751
0.927615
0.928215
0.928547
0.928656
0.928644
0.92865
0.928791
0.929139
0.929707
0.930463
0.931354
0.93231
0.933245
0.934073
0.934779
0.935413
0.935969
0.936567
0.937268
0.937946
0.938543
0.93899
0.93926
0.939563
0.940299
0.941933
0.944816
0.948126
0.949841
0.949223
0.948341
0.949058
0.950856
0.9533
0.954993
0.955179
0.954724
0.955066
0.955122
0.955221
0.956809
0.95676
0.954032
0.951228
0.948657
0.945579
0.942645
0.940644
0.938011
0.933628
0.929578
0.927161
0.925315
0.923232
0.921097
0.919332
0.918006
0.916319
0.912991
0.907499
0.901338
0.897408
0.896997
0.897683
0.896508
0.895336
0.899315
0.903822
0.900501
0.899522
0.908851
0.921019
0.926692
0.927314
0.927813
0.928831
0.932132
0.939231
0.944379
0.942154
0.939894
0.939611
0.939405
0.939035
0.938687
0.93812
0.937323
0.936539
0.935915
0.935384
0.934881
0.934363
0.93314
0.931205
0.930134
0.931026
0.933475
0.936664
0.939842
0.942558
0.944779
0.946141
0.946622
0.945985
0.94486
0.943709
0.941283
0.958072
0.957861
0.957695
0.957317
0.956816
0.956483
0.956145
0.955617
0.954732
0.953448
0.951896
0.950238
0.948632
0.947209
0.946003
0.944927
0.943845
0.942668
0.941389
0.94008
0.938836
0.937719
0.936769
0.936041
0.93558
0.935389
0.935362
0.935307
0.93503
0.934518
0.933861
0.933164
0.932457
0.931772
0.931091
0.930363
0.929514
0.928447
0.927229
0.926007
0.924793
0.923773
0.923552
0.924154
0.92453
0.923944
0.923063
0.922481
0.921911
0.921624
0.921518
0.921656
0.922082
0.922642
0.923364
0.92413
0.924814
0.925262
0.925409
0.925313
0.925093
0.924852
0.92464
0.924479
0.924374
0.924305
0.924231
0.924141
0.924081
0.924162
0.924569
0.925348
0.926286
0.92707
0.927571
0.927779
0.927728
0.92753
0.92737
0.927419
0.927774
0.928446
0.929361
0.930431
0.931551
0.932633
0.933613
0.934476
0.935248
0.93586
0.936332
0.936752
0.93715
0.937516
0.937835
0.93814
0.938702
0.939949
0.942246
0.945732
0.949471
0.951317
0.950612
0.949647
0.950596
0.952592
0.954788
0.956611
0.957009
0.956221
0.955844
0.955879
0.955594
0.956491
0.957439
0.956198
0.953579
0.950197
0.946745
0.944205
0.942584
0.939934
0.935275
0.930948
0.928377
0.926419
0.924167
0.921882
0.920002
0.918346
0.91614
0.912449
0.90669
0.900762
0.897583
0.897654
0.898189
0.896336
0.89404
0.898923
0.904729
0.901079
0.899701
0.909582
0.921984
0.928022
0.928915
0.929713
0.931122
0.934001
0.940442
0.945672
0.943562
0.940272
0.94063
0.941041
0.940656
0.940211
0.939547
0.938636
0.937805
0.937207
0.936706
0.936249
0.935695
0.934227
0.932081
0.931146
0.932448
0.935289
0.938701
0.942024
0.9448
0.947016
0.948342
0.948711
0.947905
0.946438
0.945125
0.943119
0.960782
0.960585
0.960374
0.960013
0.959502
0.959021
0.958491
0.957753
0.956646
0.955143
0.953327
0.951294
0.949143
0.946988
0.944932
0.943041
0.941311
0.939703
0.938192
0.936779
0.93552
0.934498
0.933745
0.933238
0.932946
0.932751
0.932475
0.931963
0.931136
0.929985
0.928532
0.926896
0.925197
0.923555
0.922058
0.920782
0.919687
0.918784
0.918186
0.917969
0.918206
0.91914
0.920674
0.922054
0.922468
0.922015
0.921528
0.92115
0.920808
0.920694
0.920723
0.921027
0.921573
0.922271
0.92313
0.923981
0.92465
0.924983
0.925033
0.925011
0.925112
0.925369
0.925628
0.925668
0.925335
0.924604
0.923611
0.922598
0.92181
0.921424
0.92158
0.922206
0.922973
0.923793
0.924604
0.925257
0.925628
0.925723
0.925718
0.925864
0.926313
0.927105
0.928191
0.929489
0.930889
0.93234
0.933791
0.935133
0.936217
0.937048
0.937677
0.938217
0.93881
0.939501
0.940262
0.941104
0.942217
0.943826
0.946042
0.948788
0.951326
0.952469
0.952082
0.951851
0.953072
0.954899
0.956244
0.957338
0.957757
0.957359
0.95667
0.956472
0.956192
0.956444
0.957616
0.95727
0.954708
0.951048
0.947673
0.945526
0.944265
0.941809
0.937121
0.932574
0.929814
0.927736
0.925323
0.922878
0.920886
0.91903
0.916433
0.912365
0.906578
0.900989
0.898358
0.898436
0.898941
0.896509
0.893364
0.899018
0.905702
0.902366
0.901237
0.911322
0.923395
0.929381
0.930382
0.931102
0.933229
0.936706
0.942388
0.946305
0.94415
0.940262
0.941263
0.942649
0.94236
0.941753
0.940947
0.939916
0.939065
0.938502
0.938023
0.937614
0.936947
0.935245
0.933008
0.93233
0.934046
0.9372
0.940771
0.94417
0.946955
0.949074
0.950253
0.950377
0.949281
0.947504
0.945942
0.944258
0.963247
0.963105
0.962865
0.962433
0.961825
0.961243
0.960633
0.959855
0.958783
0.957372
0.95563
0.953609
0.951377
0.949024
0.946653
0.944369
0.942245
0.9403
0.938513
0.936888
0.935509
0.934494
0.933876
0.933558
0.933345
0.933042
0.932535
0.931788
0.930784
0.929537
0.928055
0.926328
0.924413
0.922469
0.920668
0.919148
0.917986
0.917315
0.91725
0.917795
0.918875
0.920268
0.921485
0.922033
0.92182
0.921297
0.920866
0.920473
0.920193
0.9201
0.920165
0.920512
0.921064
0.921795
0.922689
0.923561
0.9242
0.924488
0.924584
0.924765
0.92518
0.925637
0.92572
0.925115
0.923768
0.921901
0.919941
0.918342
0.917415
0.917219
0.91754
0.918101
0.918814
0.919819
0.921147
0.922562
0.923763
0.924562
0.925055
0.925498
0.926128
0.927024
0.928149
0.9294
0.9307
0.932109
0.933688
0.935362
0.936929
0.938267
0.939375
0.940362
0.941355
0.942379
0.943363
0.944284
0.945273
0.946495
0.948012
0.949812
0.951483
0.952211
0.951996
0.952475
0.954361
0.956381
0.957464
0.958002
0.958179
0.957995
0.957502
0.957139
0.956999
0.957048
0.95795
0.958081
0.955842
0.952236
0.948898
0.946846
0.94578
0.943646
0.939146
0.93444
0.931454
0.929273
0.926764
0.924208
0.922147
0.920183
0.917367
0.913019
0.907223
0.901751
0.89935
0.899348
0.900156
0.897399
0.89389
0.899802
0.906786
0.904028
0.903671
0.913746
0.924989
0.930452
0.931609
0.932348
0.934938
0.939115
0.944329
0.946849
0.943821
0.9399
0.94147
0.944136
0.944145
0.94325
0.942287
0.941214
0.940394
0.939859
0.939416
0.939035
0.938193
0.936228
0.934015
0.933702
0.935796
0.939189
0.94288
0.946287
0.948992
0.95093
0.951846
0.9516
0.950062
0.947911
0.946039
0.944639
0.965646
0.965511
0.965173
0.964696
0.964077
0.963414
0.962735
0.961959
0.960976
0.959742
0.958274
0.956598
0.95471
0.952655
0.950545
0.948506
0.946639
0.94497
0.943432
0.941962
0.940584
0.939368
0.938353
0.937509
0.936818
0.936267
0.935808
0.935434
0.935071
0.934531
0.933642
0.932361
0.930798
0.92912
0.927499
0.926072
0.92494
0.924201
0.923873
0.923863
0.923998
0.924045
0.923788
0.923189
0.922411
0.921687
0.921076
0.920558
0.92021
0.92003
0.920044
0.920316
0.920769
0.921388
0.922167
0.922973
0.923537
0.923755
0.923819
0.924
0.924384
0.92458
0.924092
0.922711
0.920565
0.918071
0.915842
0.914409
0.913929
0.914245
0.914958
0.915665
0.916476
0.917558
0.919058
0.920984
0.922848
0.924192
0.925049
0.925735
0.926568
0.9277
0.929069
0.930502
0.931878
0.933158
0.934368
0.935548
0.9367
0.937766
0.938717
0.93962
0.940588
0.94164
0.942681
0.943655
0.94468
0.945934
0.947404
0.949044
0.950821
0.952065
0.952262
0.95267
0.954479
0.956675
0.958181