/*--------------------------------*- C++ -*----------------------------------*\
  =========                 |
  \\      /  F ield         | OpenFOAM: The Open Source CFD Toolbox
   \\    /   O peration     | Website:  https://openfoam.org
    \\  /    A nd           | Version:  10
     \\/     M anipulation  |
\*---------------------------------------------------------------------------*/
FoamFile
{
    format      ascii;
    class       volVectorField;
    location    "20800";
    object      Ua;
}
// * * * * * * * * * * * * * * * * * * * * * * * * * * * * * * * * * * * * * //

dimensions      [0 1 -1 0 0 0 0];

internalField   nonuniform List<vector> 
6400
(
(-1.36389e-06 2.77237e-07 0)
(-4.38959e-06 3.37793e-07 0)
(-7.07682e-06 2.08647e-07 0)
(-4.21596e-06 1.07767e-05 0)
(-1.8557e-07 2.01001e-06 0)
(-3.14025e-08 3.30786e-07 0)
(-1.69859e-08 1.43897e-07 0)
(-1.0365e-08 8.73518e-08 0)
(-7.05957e-09 6.13602e-08 0)
(-5.31664e-09 4.66242e-08 0)
(-4.18999e-09 3.73056e-08 0)
(-3.45154e-09 3.09312e-08 0)
(-2.9179e-09 2.63401e-08 0)
(-2.52652e-09 2.29045e-08 0)
(-2.22542e-09 2.02411e-08 0)
(-1.99032e-09 1.81283e-08 0)
(-1.8246e-09 1.64161e-08 0)
(-1.69015e-09 1.49991e-08 0)
(-1.55695e-09 1.38155e-08 0)
(-1.43762e-09 1.28178e-08 0)
(-1.33093e-09 1.19699e-08 0)
(-1.2369e-09 1.12418e-08 0)
(-1.15601e-09 1.06104e-08 0)
(-1.08236e-09 1.00644e-08 0)
(-1.01588e-09 9.58369e-09 0)
(-9.60038e-10 9.15965e-09 0)
(-9.12605e-10 8.78812e-09 0)
(-8.69662e-10 8.4594e-09 0)
(-8.2925e-10 8.1708e-09 0)
(-7.90104e-10 7.91126e-09 0)
(-7.47811e-10 7.67753e-09 0)
(-6.92789e-10 7.46909e-09 0)
(-6.39751e-10 7.2951e-09 0)
(-5.93353e-10 7.22367e-09 0)
(-5.36403e-10 7.15869e-09 0)
(-4.67049e-10 7.10146e-09 0)
(-3.83997e-10 7.05284e-09 0)
(-2.87124e-10 7.01583e-09 0)
(-1.77956e-10 6.99173e-09 0)
(-6.03036e-11 6.97169e-09 0)
(6.03036e-11 6.97169e-09 0)
(1.77956e-10 6.99173e-09 0)
(2.87124e-10 7.01583e-09 0)
(3.83997e-10 7.05284e-09 0)
(4.67049e-10 7.10146e-09 0)
(5.36403e-10 7.15869e-09 0)
(5.93353e-10 7.22367e-09 0)
(6.39751e-10 7.2951e-09 0)
(6.92789e-10 7.46909e-09 0)
(7.47811e-10 7.67753e-09 0)
(7.90104e-10 7.91126e-09 0)
(8.2925e-10 8.1708e-09 0)
(8.69662e-10 8.4594e-09 0)
(9.12605e-10 8.78812e-09 0)
(9.60038e-10 9.15965e-09 0)
(1.01588e-09 9.58369e-09 0)
(1.08236e-09 1.00644e-08 0)
(1.15601e-09 1.06104e-08 0)
(1.2369e-09 1.12418e-08 0)
(1.33093e-09 1.19699e-08 0)
(1.43762e-09 1.28178e-08 0)
(1.55695e-09 1.38155e-08 0)
(1.69015e-09 1.49991e-08 0)
(1.8246e-09 1.64161e-08 0)
(1.99032e-09 1.81283e-08 0)
(2.22542e-09 2.02411e-08 0)
(2.52652e-09 2.29045e-08 0)
(2.9179e-09 2.63401e-08 0)
(3.45154e-09 3.09312e-08 0)
(4.18999e-09 3.73056e-08 0)
(5.31664e-09 4.66242e-08 0)
(7.05957e-09 6.13602e-08 0)
(1.0365e-08 8.73518e-08 0)
(1.69859e-08 1.43897e-07 0)
(3.14025e-08 3.30786e-07 0)
(1.8557e-07 2.01001e-06 0)
(4.21596e-06 1.07767e-05 0)
(7.07682e-06 2.08647e-07 0)
(4.38959e-06 3.37793e-07 0)
(1.36389e-06 2.77237e-07 0)
(-1.35099e-06 8.55677e-07 0)
(-4.40422e-06 1.0551e-06 0)
(-1.03427e-05 1.36176e-06 0)
(-8.09451e-06 1.58093e-05 0)
(-3.69153e-06 3.81715e-06 0)
(-2.96824e-06 1.24567e-05 0)
(-1.04225e-07 5.25449e-07 0)
(-3.41537e-08 1.97737e-07 0)
(-1.97022e-08 1.1944e-07 0)
(-1.38884e-08 8.5227e-08 0)
(-1.05606e-08 6.61778e-08 0)
(-8.52822e-09 5.39165e-08 0)
(-7.1159e-09 4.54306e-08 0)
(-6.108e-09 3.9226e-08 0)
(-5.34641e-09 3.44882e-08 0)
(-4.75734e-09 3.07827e-08 0)
(-4.34868e-09 2.78181e-08 0)
(-4.02069e-09 2.53489e-08 0)
(-3.69543e-09 2.3309e-08 0)
(-3.40694e-09 2.1599e-08 0)
(-3.15007e-09 2.01488e-08 0)
(-2.92448e-09 1.89104e-08 0)
(-2.73149e-09 1.78375e-08 0)
(-2.55584e-09 1.69088e-08 0)
(-2.39748e-09 1.60973e-08 0)
(-2.26515e-09 1.53835e-08 0)
(-2.15307e-09 1.47572e-08 0)
(-2.05158e-09 1.42024e-08 0)
(-1.9562e-09 1.3716e-08 0)
(-1.86449e-09 1.3279e-08 0)
(-1.76643e-09 1.28838e-08 0)
(-1.6395e-09 1.2528e-08 0)
(-1.51707e-09 1.22289e-08 0)
(-1.40969e-09 1.21044e-08 0)
(-1.27737e-09 1.19904e-08 0)
(-1.11526e-09 1.18894e-08 0)
(-9.19607e-10 1.18032e-08 0)
(-6.89431e-10 1.1737e-08 0)
(-4.28138e-10 1.16931e-08 0)
(-1.45231e-10 1.1658e-08 0)
(1.45231e-10 1.1658e-08 0)
(4.28138e-10 1.16931e-08 0)
(6.89431e-10 1.1737e-08 0)
(9.19607e-10 1.18032e-08 0)
(1.11526e-09 1.18894e-08 0)
(1.27737e-09 1.19904e-08 0)
(1.40969e-09 1.21044e-08 0)
(1.51707e-09 1.22289e-08 0)
(1.6395e-09 1.2528e-08 0)
(1.76643e-09 1.28838e-08 0)
(1.86449e-09 1.3279e-08 0)
(1.9562e-09 1.3716e-08 0)
(2.05158e-09 1.42024e-08 0)
(2.15307e-09 1.47572e-08 0)
(2.26515e-09 1.53835e-08 0)
(2.39748e-09 1.60973e-08 0)
(2.55584e-09 1.69088e-08 0)
(2.73149e-09 1.78375e-08 0)
(2.92448e-09 1.89104e-08 0)
(3.15007e-09 2.01488e-08 0)
(3.40694e-09 2.1599e-08 0)
(3.69543e-09 2.3309e-08 0)
(4.02069e-09 2.53489e-08 0)
(4.34868e-09 2.78181e-08 0)
(4.75734e-09 3.07827e-08 0)
(5.34641e-09 3.44882e-08 0)
(6.108e-09 3.9226e-08 0)
(7.1159e-09 4.54306e-08 0)
(8.52822e-09 5.39165e-08 0)
(1.05606e-08 6.61778e-08 0)
(1.38884e-08 8.5227e-08 0)
(1.97022e-08 1.1944e-07 0)
(3.41537e-08 1.97737e-07 0)
(1.04225e-07 5.25449e-07 0)
(2.96824e-06 1.24567e-05 0)
(3.69153e-06 3.81715e-06 0)
(8.09451e-06 1.58093e-05 0)
(1.03427e-05 1.36176e-06 0)
(4.40422e-06 1.0551e-06 0)
(1.35099e-06 8.55677e-07 0)
(-1.31853e-06 1.47931e-06 0)
(-4.26989e-06 1.83391e-06 0)
(-8.83164e-06 3.02246e-06 0)
(-7.65503e-06 1.33597e-05 0)
(-8.30533e-06 7.24809e-06 0)
(-6.35447e-06 2.29416e-05 0)
(-4.52157e-07 8.72316e-06 0)
(-6.88106e-07 2.60956e-06 0)
(-8.10133e-08 5.13042e-07 0)
(-3.37708e-08 2.24888e-07 0)
(-2.1795e-08 1.49656e-07 0)
(-1.6389e-08 1.13888e-07 0)
(-1.31538e-08 9.26527e-08 0)
(-1.10421e-08 7.83816e-08 0)
(-9.52864e-09 6.8023e-08 0)
(-8.38897e-09 6.0208e-08 0)
(-7.62895e-09 5.41267e-08 0)
(-7.03273e-09 4.90821e-08 0)
(-6.43648e-09 4.49897e-08 0)
(-5.91853e-09 4.1592e-08 0)
(-5.46044e-09 3.87252e-08 0)
(-5.06048e-09 3.62969e-08 0)
(-4.72251e-09 3.41998e-08 0)
(-4.41418e-09 3.23855e-08 0)
(-4.13613e-09 3.08156e-08 0)
(-3.90637e-09 2.94398e-08 0)
(-3.713e-09 2.8232e-08 0)
(-3.53763e-09 2.71625e-08 0)
(-3.37301e-09 2.62272e-08 0)
(-3.21696e-09 2.5389e-08 0)
(-3.05336e-09 2.46304e-08 0)
(-2.84378e-09 2.39457e-08 0)
(-2.64136e-09 2.33702e-08 0)
(-2.46266e-09 2.31311e-08 0)
(-2.24087e-09 2.29138e-08 0)
(-1.96611e-09 2.27224e-08 0)
(-1.62964e-09 2.25607e-08 0)
(-1.22758e-09 2.24375e-08 0)
(-7.65063e-10 2.23558e-08 0)
(-2.60013e-10 2.22908e-08 0)
(2.60013e-10 2.22908e-08 0)
(7.65063e-10 2.23558e-08 0)
(1.22758e-09 2.24375e-08 0)
(1.62964e-09 2.25607e-08 0)
(1.96611e-09 2.27224e-08 0)
(2.24087e-09 2.29138e-08 0)
(2.46266e-09 2.31311e-08 0)
(2.64136e-09 2.33702e-08 0)
(2.84378e-09 2.39457e-08 0)
(3.05336e-09 2.46304e-08 0)
(3.21696e-09 2.5389e-08 0)
(3.37301e-09 2.62272e-08 0)
(3.53763e-09 2.71625e-08 0)
(3.713e-09 2.8232e-08 0)
(3.90637e-09 2.94398e-08 0)
(4.13613e-09 3.08156e-08 0)
(4.41418e-09 3.23855e-08 0)
(4.72251e-09 3.41998e-08 0)
(5.06048e-09 3.62969e-08 0)
(5.46044e-09 3.87252e-08 0)
(5.91853e-09 4.1592e-08 0)
(6.43648e-09 4.49897e-08 0)
(7.03273e-09 4.90821e-08 0)
(7.62895e-09 5.41267e-08 0)
(8.38897e-09 6.0208e-08 0)
(9.52864e-09 6.8023e-08 0)
(1.10421e-08 7.83816e-08 0)
(1.31538e-08 9.26527e-08 0)
(1.6389e-08 1.13888e-07 0)
(2.1795e-08 1.49656e-07 0)
(3.37708e-08 2.24888e-07 0)
(8.10133e-08 5.13042e-07 0)
(6.88106e-07 2.60956e-06 0)
(4.52157e-07 8.72316e-06 0)
(6.35447e-06 2.29416e-05 0)
(8.30533e-06 7.24809e-06 0)
(7.65503e-06 1.33597e-05 0)
(8.83164e-06 3.02246e-06 0)
(4.26989e-06 1.83391e-06 0)
(1.31853e-06 1.47931e-06 0)
(-1.26322e-06 2.14055e-06 0)
(-4.0216e-06 2.63422e-06 0)
(-7.53405e-06 4.27976e-06 0)
(-7.05609e-06 1.16865e-05 0)
(-7.15858e-06 9.10782e-06 0)
(-4.34434e-06 1.985e-05 0)
(3.40245e-06 1.59131e-05 0)
(3.50817e-07 6.35564e-06 0)
(-3.16073e-06 9.06718e-06 0)
(-7.0926e-07 2.4546e-06 0)
(-8.95091e-08 5.51785e-07 0)
(-3.72898e-08 2.65344e-07 0)
(-2.45657e-08 1.78819e-07 0)
(-1.89051e-08 1.39535e-07 0)
(-1.55826e-08 1.16117e-07 0)
(-1.33249e-08 1.0036e-07 0)
(-1.19465e-08 8.89876e-08 0)
(-1.09272e-08 7.98297e-08 0)
(-9.90899e-09 7.26835e-08 0)
(-9.06379e-09 6.68805e-08 0)
(-8.32816e-09 6.20483e-08 0)
(-7.69372e-09 5.80189e-08 0)
(-7.17024e-09 5.45648e-08 0)
(-6.69027e-09 5.15833e-08 0)
(-6.25664e-09 4.90394e-08 0)
(-5.90551e-09 4.68219e-08 0)
(-5.61324e-09 4.48762e-08 0)
(-5.34721e-09 4.31549e-08 0)
(-5.09764e-09 4.16567e-08 0)
(-4.8666e-09 4.03196e-08 0)
(-4.63244e-09 3.91093e-08 0)
(-4.33817e-09 3.80145e-08 0)
(-4.05332e-09 3.70947e-08 0)
(-3.7989e-09 3.67144e-08 0)
(-3.47956e-09 3.63709e-08 0)
(-3.07676e-09 3.60699e-08 0)
(-2.57145e-09 3.58167e-08 0)
(-1.95186e-09 3.56235e-08 0)
(-1.22347e-09 3.54938e-08 0)
(-4.17083e-10 3.53924e-08 0)
(4.17083e-10 3.53924e-08 0)
(1.22347e-09 3.54938e-08 0)
(1.95186e-09 3.56235e-08 0)
(2.57145e-09 3.58167e-08 0)
(3.07676e-09 3.60699e-08 0)
(3.47956e-09 3.63709e-08 0)
(3.7989e-09 3.67144e-08 0)
(4.05332e-09 3.70947e-08 0)
(4.33817e-09 3.80145e-08 0)
(4.63244e-09 3.91093e-08 0)
(4.8666e-09 4.03196e-08 0)
(5.09764e-09 4.16567e-08 0)
(5.34721e-09 4.31549e-08 0)
(5.61324e-09 4.48762e-08 0)
(5.90551e-09 4.68219e-08 0)
(6.25664e-09 4.90394e-08 0)
(6.69027e-09 5.15833e-08 0)
(7.17024e-09 5.45648e-08 0)
(7.69372e-09 5.80189e-08 0)
(8.32816e-09 6.20483e-08 0)
(9.06379e-09 6.68805e-08 0)
(9.90899e-09 7.26835e-08 0)
(1.09272e-08 7.98297e-08 0)
(1.19465e-08 8.89876e-08 0)
(1.33249e-08 1.0036e-07 0)
(1.55826e-08 1.16117e-07 0)
(1.89051e-08 1.39535e-07 0)
(2.45657e-08 1.78819e-07 0)
(3.72898e-08 2.65344e-07 0)
(8.95091e-08 5.51785e-07 0)
(7.0926e-07 2.4546e-06 0)
(3.16073e-06 9.06718e-06 0)
(-3.50817e-07 6.35564e-06 0)
(-3.40245e-06 1.59131e-05 0)
(4.34434e-06 1.985e-05 0)
(7.15858e-06 9.10782e-06 0)
(7.05609e-06 1.16865e-05 0)
(7.53405e-06 4.27976e-06 0)
(4.0216e-06 2.63422e-06 0)
(1.26322e-06 2.14055e-06 0)
(-1.18506e-06 2.828e-06 0)
(-3.69239e-06 3.42423e-06 0)
(-6.41179e-06 5.23184e-06 0)
(-6.35538e-06 1.05896e-05 0)
(-6.12078e-06 1.01632e-05 0)
(-3.57353e-06 1.72905e-05 0)
(1.91237e-06 1.47809e-05 0)
(5.79455e-07 8.6984e-06 0)
(1.9954e-06 1.59712e-05 0)
(2.14236e-06 5.85462e-06 0)
(-3.11839e-06 6.1283e-06 0)
(-2.13538e-06 6.77458e-06 0)
(-1.38169e-07 6.82289e-07 0)
(-4.87282e-08 3.5965e-07 0)
(-2.94039e-08 2.19203e-07 0)
(-2.20044e-08 1.68376e-07 0)
(-1.85427e-08 1.4108e-07 0)
(-1.64394e-08 1.22285e-07 0)
(-1.4527e-08 1.0918e-07 0)
(-1.31035e-08 9.92321e-08 0)
(-1.19235e-08 9.12909e-08 0)
(-1.09386e-08 8.49142e-08 0)
(-1.0164e-08 7.95558e-08 0)
(-9.45111e-09 7.49734e-08 0)
(-8.80665e-09 7.1155e-08 0)
(-8.30306e-09 6.78572e-08 0)
(-7.89176e-09 6.49731e-08 0)
(-7.51481e-09 6.24282e-08 0)
(-7.16098e-09 6.02323e-08 0)
(-6.84541e-09 5.82855e-08 0)
(-6.54298e-09 5.65259e-08 0)
(-6.1763e-09 5.49321e-08 0)
(-5.82024e-09 5.35943e-08 0)
(-5.49603e-09 5.30456e-08 0)
(-5.08285e-09 5.25536e-08 0)
(-4.54701e-09 5.21219e-08 0)
(-3.84812e-09 5.1755e-08 0)
(-2.95487e-09 5.14684e-08 0)
(-1.86837e-09 5.12698e-08 0)
(-6.3989e-10 5.11196e-08 0)
(6.3989e-10 5.11196e-08 0)
(1.86837e-09 5.12698e-08 0)
(2.95487e-09 5.14684e-08 0)
(3.84812e-09 5.1755e-08 0)
(4.54701e-09 5.21219e-08 0)
(5.08285e-09 5.25536e-08 0)
(5.49603e-09 5.30456e-08 0)
(5.82024e-09 5.35943e-08 0)
(6.1763e-09 5.49321e-08 0)
(6.54298e-09 5.65259e-08 0)
(6.84541e-09 5.82855e-08 0)
(7.16098e-09 6.02323e-08 0)
(7.51481e-09 6.24282e-08 0)
(7.89176e-09 6.49731e-08 0)
(8.30306e-09 6.78572e-08 0)
(8.80665e-09 7.1155e-08 0)
(9.45111e-09 7.49734e-08 0)
(1.0164e-08 7.95558e-08 0)
(1.09386e-08 8.49142e-08 0)
(1.19235e-08 9.12909e-08 0)
(1.31035e-08 9.92321e-08 0)
(1.4527e-08 1.0918e-07 0)
(1.64394e-08 1.22285e-07 0)
(1.85427e-08 1.4108e-07 0)
(2.20044e-08 1.68376e-07 0)
(2.94039e-08 2.19203e-07 0)
(4.87282e-08 3.5965e-07 0)
(1.38169e-07 6.82289e-07 0)
(2.13538e-06 6.77458e-06 0)
(3.11839e-06 6.1283e-06 0)
(-2.14236e-06 5.85462e-06 0)
(-1.9954e-06 1.59712e-05 0)
(-5.79455e-07 8.6984e-06 0)
(-1.91237e-06 1.47809e-05 0)
(3.57353e-06 1.72905e-05 0)
(6.12078e-06 1.01632e-05 0)
(6.35538e-06 1.05896e-05 0)
(6.41179e-06 5.23184e-06 0)
(3.69239e-06 3.42423e-06 0)
(1.18506e-06 2.828e-06 0)
(-1.08689e-06 3.52733e-06 0)
(-3.31206e-06 4.18051e-06 0)
(-5.43272e-06 5.95985e-06 0)
(-5.60298e-06 9.89992e-06 0)
(-5.19233e-06 1.06513e-05 0)
(-2.99472e-06 1.53439e-05 0)
(8.96705e-07 1.3858e-05 0)
(6.38305e-07 1.00968e-05 0)
(1.61443e-06 1.38413e-05 0)
(1.70814e-06 7.91107e-06 0)
(-1.47081e-07 1.11708e-05 0)
(2.62264e-06 1.24621e-05 0)
(-1.78703e-06 3.25979e-06 0)
(-4.50884e-06 1.17216e-05 0)
(-3.74453e-07 1.08424e-06 0)
(-8.37485e-08 4.687e-07 0)
(-4.02006e-08 3.02278e-07 0)
(-2.86175e-08 2.08793e-07 0)
(-2.25407e-08 1.69329e-07 0)
(-1.92112e-08 1.46407e-07 0)
(-1.68986e-08 1.3083e-07 0)
(-1.51689e-08 1.19654e-07 0)
(-1.39489e-08 1.10888e-07 0)
(-1.28549e-08 1.03683e-07 0)
(-1.18825e-08 9.79766e-08 0)
(-1.11713e-08 9.31662e-08 0)
(-1.06106e-08 8.90177e-08 0)
(-1.00926e-08 8.53888e-08 0)
(-9.60582e-09 8.23114e-08 0)
(-9.19621e-09 7.9615e-08 0)
(-8.83849e-09 7.71902e-08 0)
(-8.43484e-09 7.4996e-08 0)
(-8.04111e-09 7.31566e-08 0)
(-7.67089e-09 7.24147e-08 0)
(-7.19143e-09 7.17551e-08 0)
(-6.54284e-09 7.11689e-08 0)
(-5.64046e-09 7.06504e-08 0)
(-4.40574e-09 7.02181e-08 0)
(-2.82149e-09 6.98997e-08 0)
(-9.72862e-10 6.9671e-08 0)
(9.72862e-10 6.9671e-08 0)
(2.82149e-09 6.98997e-08 0)
(4.40574e-09 7.02181e-08 0)
(5.64046e-09 7.06504e-08 0)
(6.54284e-09 7.11689e-08 0)
(7.19143e-09 7.17551e-08 0)
(7.67089e-09 7.24147e-08 0)
(8.04111e-09 7.31566e-08 0)
(8.43484e-09 7.4996e-08 0)
(8.83849e-09 7.71902e-08 0)
(9.19621e-09 7.9615e-08 0)
(9.60582e-09 8.23114e-08 0)
(1.00926e-08 8.53888e-08 0)
(1.06106e-08 8.90177e-08 0)
(1.11713e-08 9.31662e-08 0)
(1.18825e-08 9.79766e-08 0)
(1.28549e-08 1.03683e-07 0)
(1.39489e-08 1.10888e-07 0)
(1.51689e-08 1.19654e-07 0)
(1.68986e-08 1.3083e-07 0)
(1.92112e-08 1.46407e-07 0)
(2.25407e-08 1.69329e-07 0)
(2.86175e-08 2.08793e-07 0)
(4.02006e-08 3.02278e-07 0)
(8.37485e-08 4.687e-07 0)
(3.74453e-07 1.08424e-06 0)
(4.50884e-06 1.17216e-05 0)
(1.78703e-06 3.25979e-06 0)
(-2.62264e-06 1.24621e-05 0)
(1.47081e-07 1.11708e-05 0)
(-1.70814e-06 7.91107e-06 0)
(-1.61443e-06 1.38413e-05 0)
(-6.38305e-07 1.00968e-05 0)
(-8.96705e-07 1.3858e-05 0)
(2.99472e-06 1.53439e-05 0)
(5.19233e-06 1.06513e-05 0)
(5.60298e-06 9.89992e-06 0)
(5.43272e-06 5.95985e-06 0)
(3.31206e-06 4.18051e-06 0)
(1.08689e-06 3.52733e-06 0)
(-9.73604e-07 4.22261e-06 0)
(-2.90631e-06 4.88724e-06 0)
(-4.57176e-06 6.52682e-06 0)
(-4.84115e-06 9.48323e-06 0)
(-4.36904e-06 1.07684e-05 0)
(-2.54477e-06 1.3872e-05 0)
(2.35681e-07 1.30902e-05 0)
(5.68097e-07 1.08304e-05 0)
(1.29288e-06 1.25362e-05 0)
(1.36281e-06 9.16114e-06 0)
(3.70286e-07 1.08706e-05 0)
(1.67673e-06 1.14062e-05 0)
(-1.36229e-06 6.81608e-06 0)
(2.6224e-06 2.00673e-05 0)
(5.44816e-06 3.70938e-06 0)
(-5.97526e-06 3.0016e-06 0)
(-6.36573e-06 1.62563e-05 0)
(-3.17654e-07 8.58072e-07 0)
(-8.56839e-08 4.41184e-07 0)
(-4.23588e-08 3.0524e-07 0)
(-2.86985e-08 2.16538e-07 0)
(-2.27929e-08 1.78636e-07 0)
(-1.97848e-08 1.57014e-07 0)
(-1.75814e-08 1.42305e-07 0)
(-1.58386e-08 1.32225e-07 0)
(-1.47254e-08 1.24444e-07 0)
(-1.39177e-08 1.18132e-07 0)
(-1.31828e-08 1.12808e-07 0)
(-1.25002e-08 1.08481e-07 0)
(-1.19777e-08 1.04794e-07 0)
(-1.15894e-08 1.01533e-07 0)
(-1.12197e-08 9.8607e-08 0)
(-1.08555e-08 9.61592e-08 0)
(-1.04908e-08 9.52106e-08 0)
(-1.00204e-08 9.43798e-08 0)
(-9.34047e-09 9.36153e-08 0)
(-8.27394e-09 9.28729e-08 0)
(-6.6261e-09 9.2168e-08 0)
(-4.32154e-09 9.16011e-08 0)
(-1.50443e-09 9.12169e-08 0)
(1.50443e-09 9.12169e-08 0)
(4.32154e-09 9.16011e-08 0)
(6.6261e-09 9.2168e-08 0)
(8.27394e-09 9.28729e-08 0)
(9.34047e-09 9.36153e-08 0)
(1.00204e-08 9.43798e-08 0)
(1.04908e-08 9.52106e-08 0)
(1.08555e-08 9.61592e-08 0)
(1.12197e-08 9.8607e-08 0)
(1.15894e-08 1.01533e-07 0)
(1.19777e-08 1.04794e-07 0)
(1.25002e-08 1.08481e-07 0)
(1.31828e-08 1.12808e-07 0)
(1.39177e-08 1.18132e-07 0)
(1.47254e-08 1.24444e-07 0)
(1.58386e-08 1.32225e-07 0)
(1.75814e-08 1.42305e-07 0)
(1.97848e-08 1.57014e-07 0)
(2.27929e-08 1.78636e-07 0)
(2.86985e-08 2.16538e-07 0)
(4.23588e-08 3.0524e-07 0)
(8.56839e-08 4.41184e-07 0)
(3.17654e-07 8.58072e-07 0)
(6.36573e-06 1.62563e-05 0)
(5.97526e-06 3.0016e-06 0)
(-5.44816e-06 3.70938e-06 0)
(-2.6224e-06 2.00673e-05 0)
(1.36229e-06 6.81608e-06 0)
(-1.67673e-06 1.14062e-05 0)
(-3.70286e-07 1.08706e-05 0)
(-1.36281e-06 9.16114e-06 0)
(-1.29288e-06 1.25362e-05 0)
(-5.68097e-07 1.08304e-05 0)
(-2.35681e-07 1.30902e-05 0)
(2.54477e-06 1.3872e-05 0)
(4.36904e-06 1.07684e-05 0)
(4.84115e-06 9.48323e-06 0)
(4.57176e-06 6.52682e-06 0)
(2.90631e-06 4.88724e-06 0)
(9.73604e-07 4.22261e-06 0)
(-8.51252e-07 4.89762e-06 0)
(-2.49638e-06 5.53484e-06 0)
(-3.81076e-06 6.97885e-06 0)
(-4.10293e-06 9.23994e-06 0)
(-3.6436e-06 1.06663e-05 0)
(-2.17681e-06 1.27591e-05 0)
(-1.67877e-07 1.24392e-05 0)
(4.39568e-07 1.11279e-05 0)
(1.02619e-06 1.17545e-05 0)
(1.12356e-06 9.88033e-06 0)
(6.35854e-07 1.0692e-05 0)
(1.20984e-06 1.08997e-05 0)
(-2.16641e-07 8.95193e-06 0)
(2.12213e-06 1.56133e-05 0)
(3.23127e-06 6.73271e-06 0)
(-4.27236e-06 7.00262e-06 0)
(3.833e-06 2.72112e-05 0)
(1.01931e-05 3.84721e-06 0)
(-2.72921e-06 3.29256e-06 0)
(-5.12235e-06 1.18826e-05 0)
(-4.69848e-07 1.10833e-06 0)
(-1.13608e-07 5.02263e-07 0)
(-5.22327e-08 3.37571e-07 0)
(-3.20817e-08 2.45932e-07 0)
(-2.40881e-08 1.97897e-07 0)
(-2.06012e-08 1.73324e-07 0)
(-1.8669e-08 1.58333e-07 0)
(-1.72426e-08 1.47901e-07 0)
(-1.60783e-08 1.40594e-07 0)
(-1.53297e-08 1.3498e-07 0)
(-1.49127e-08 1.30353e-07 0)
(-1.46885e-08 1.26394e-07 0)
(-1.44584e-08 1.23116e-07 0)
(-1.41801e-08 1.21977e-07 0)
(-1.38872e-08 1.21019e-07 0)
(-1.34045e-08 1.2007e-07 0)
(-1.23633e-08 1.18963e-07 0)
(-1.02688e-08 1.17659e-07 0)
(-6.86995e-09 1.16512e-07 0)
(-2.42354e-09 1.15767e-07 0)
(2.42354e-09 1.15767e-07 0)
(6.86995e-09 1.16512e-07 0)
(1.02688e-08 1.17659e-07 0)
(1.23633e-08 1.18963e-07 0)
(1.34045e-08 1.2007e-07 0)
(1.38872e-08 1.21019e-07 0)
(1.41801e-08 1.21977e-07 0)
(1.44584e-08 1.23116e-07 0)
(1.46885e-08 1.26394e-07 0)
(1.49127e-08 1.30353e-07 0)
(1.53297e-08 1.3498e-07 0)
(1.60783e-08 1.40594e-07 0)
(1.72426e-08 1.47901e-07 0)
(1.8669e-08 1.58333e-07 0)
(2.06012e-08 1.73324e-07 0)
(2.40881e-08 1.97897e-07 0)
(3.20817e-08 2.45932e-07 0)
(5.22327e-08 3.37571e-07 0)
(1.13608e-07 5.02263e-07 0)
(4.69848e-07 1.10833e-06 0)
(5.12235e-06 1.18826e-05 0)
(2.72921e-06 3.29256e-06 0)
(-1.01931e-05 3.84721e-06 0)
(-3.833e-06 2.72112e-05 0)
(4.27236e-06 7.00262e-06 0)
(-3.23127e-06 6.73271e-06 0)
(-2.12213e-06 1.56133e-05 0)
(2.16641e-07 8.95193e-06 0)
(-1.20984e-06 1.08997e-05 0)
(-6.35854e-07 1.0692e-05 0)
(-1.12356e-06 9.88033e-06 0)
(-1.02619e-06 1.17545e-05 0)
(-4.39568e-07 1.11279e-05 0)
(1.67877e-07 1.24392e-05 0)
(2.17681e-06 1.27591e-05 0)
(3.6436e-06 1.06663e-05 0)
(4.10293e-06 9.23994e-06 0)
(3.81076e-06 6.97885e-06 0)
(2.49638e-06 5.53484e-06 0)
(8.51252e-07 4.89762e-06 0)
(-7.26117e-07 5.53721e-06 0)
(-2.099e-06 6.11838e-06 0)
(-3.13757e-06 7.34772e-06 0)
(-3.41194e-06 9.1013e-06 0)
(-3.00707e-06 1.04543e-05 0)
(-1.85886e-06 1.19129e-05 0)
(-3.89106e-07 1.18798e-05 0)
(3.01883e-07 1.11573e-05 0)
(8.10975e-07 1.12806e-05 0)
(9.53565e-07 1.02557e-05 0)
(7.59411e-07 1.05886e-05 0)
(1.01378e-06 1.06719e-05 0)
(4.45108e-07 9.97551e-06 0)
(1.76768e-06 1.31188e-05 0)
(2.15943e-06 8.62992e-06 0)
(-1.33822e-06 9.50734e-06 0)
(3.32877e-06 1.95731e-05 0)
(6.84996e-06 7.51724e-06 0)
(8.23485e-07 7.20834e-06 0)
(5.88631e-06 1.98773e-05 0)
(9.87436e-06 3.69234e-06 0)
(1.86468e-06 2.44229e-06 0)
(-4.12173e-06 5.18431e-06 0)
(-3.29855e-06 7.14882e-06 0)
(-2.46995e-07 7.46601e-07 0)
(-8.65572e-08 4.21846e-07 0)
(-4.54179e-08 3.08074e-07 0)
(-2.98754e-08 2.4204e-07 0)
(-2.34427e-08 2.00757e-07 0)
(-2.0665e-08 1.80494e-07 0)
(-1.95141e-08 1.68701e-07 0)
(-1.93329e-08 1.60983e-07 0)
(-1.92409e-08 1.55429e-07 0)
(-1.90587e-08 1.53974e-07 0)
(-1.926e-08 1.52899e-07 0)
(-1.95397e-08 1.51759e-07 0)
(-1.91618e-08 1.49992e-07 0)
(-1.67845e-08 1.47137e-07 0)
(-1.16156e-08 1.44534e-07 0)
(-4.17238e-09 1.42851e-07 0)
(4.17238e-09 1.42851e-07 0)
(1.16156e-08 1.44534e-07 0)
(1.67845e-08 1.47137e-07 0)
(1.91618e-08 1.49992e-07 0)
(1.95397e-08 1.51759e-07 0)
(1.926e-08 1.52899e-07 0)
(1.90587e-08 1.53974e-07 0)
(1.92409e-08 1.55429e-07 0)
(1.93329e-08 1.60983e-07 0)
(1.95141e-08 1.68701e-07 0)
(2.0665e-08 1.80494e-07 0)
(2.34427e-08 2.00757e-07 0)
(2.98754e-08 2.4204e-07 0)
(4.54179e-08 3.08074e-07 0)
(8.65572e-08 4.21846e-07 0)
(2.46995e-07 7.46601e-07 0)
(3.29855e-06 7.14882e-06 0)
(4.12173e-06 5.18431e-06 0)
(-1.86468e-06 2.44229e-06 0)
(-9.87436e-06 3.69234e-06 0)
(-5.88631e-06 1.98773e-05 0)
(-8.23485e-07 7.20834e-06 0)
(-6.84996e-06 7.51724e-06 0)
(-3.32877e-06 1.95731e-05 0)
(1.33822e-06 9.50734e-06 0)
(-2.15943e-06 8.62992e-06 0)
(-1.76768e-06 1.31188e-05 0)
(-4.45108e-07 9.97551e-06 0)
(-1.01378e-06 1.06719e-05 0)
(-7.59411e-07 1.05886e-05 0)
(-9.53565e-07 1.02557e-05 0)
(-8.10975e-07 1.12806e-05 0)
(-3.01883e-07 1.11573e-05 0)
(3.89106e-07 1.18798e-05 0)
(1.85886e-06 1.19129e-05 0)
(3.00707e-06 1.04543e-05 0)
(3.41194e-06 9.1013e-06 0)
(3.13757e-06 7.34772e-06 0)
(2.099e-06 6.11838e-06 0)
(7.26117e-07 5.53721e-06 0)
(-6.03948e-07 6.1284e-06 0)
(-1.72668e-06 6.63602e-06 0)
(-2.54444e-06 7.65415e-06 0)
(-2.78314e-06 9.02316e-06 0)
(-2.45019e-06 1.02045e-05 0)
(-1.57125e-06 1.12633e-05 0)
(-4.83748e-07 1.13958e-05 0)
(1.85436e-07 1.10346e-05 0)
(6.44574e-07 1.09722e-05 0)
(8.31115e-07 1.04163e-05 0)
(8.0969e-07 1.05206e-05 0)
(9.55144e-07 1.05637e-05 0)
(8.11498e-07 1.03929e-05 0)
(1.55581e-06 1.17906e-05 0)
(1.723e-06 9.71318e-06 0)
(3.28306e-07 1.05646e-05 0)
(2.99349e-06 1.52842e-05 0)
(4.99757e-06 9.37105e-06 0)
(2.52834e-06 9.0735e-06 0)
(5.20371e-06 1.46072e-05 0)
(7.12315e-06 6.36811e-06 0)
(2.95972e-06 5.12103e-06 0)
(1.57623e-06 9.50192e-06 0)
(5.93677e-06 1.23116e-05 0)
(6.41702e-06 2.68407e-06 0)
(3.22524e-07 2.05009e-06 0)
(-5.96241e-06 3.93869e-06 0)
(-4.84721e-06 9.59042e-06 0)
(-3.0314e-07 7.48704e-07 0)
(-1.01755e-07 4.25537e-07 0)
(-5.3557e-08 3.1486e-07 0)
(-3.74098e-08 2.62228e-07 0)
(-3.14194e-08 2.23784e-07 0)
(-2.85218e-08 2.10964e-07 0)
(-2.84847e-08 2.02291e-07 0)
(-3.00536e-08 1.96267e-07 0)
(-3.19852e-08 1.90814e-07 0)
(-3.00321e-08 1.82057e-07 0)
(-2.15578e-08 1.75297e-07 0)
(-7.93396e-09 1.7076e-07 0)
(7.93396e-09 1.7076e-07 0)
(2.15578e-08 1.75297e-07 0)
(3.00321e-08 1.82057e-07 0)
(3.19852e-08 1.90814e-07 0)
(3.00536e-08 1.96267e-07 0)
(2.84847e-08 2.02291e-07 0)
(2.85218e-08 2.10964e-07 0)
(3.14194e-08 2.23784e-07 0)
(3.74098e-08 2.62228e-07 0)
(5.3557e-08 3.1486e-07 0)
(1.01755e-07 4.25537e-07 0)
(3.0314e-07 7.48704e-07 0)
(4.84721e-06 9.59042e-06 0)
(5.96241e-06 3.93869e-06 0)
(-3.22524e-07 2.05009e-06 0)
(-6.41702e-06 2.68407e-06 0)
(-5.93677e-06 1.23116e-05 0)
(-1.57623e-06 9.50192e-06 0)
(-2.95972e-06 5.12103e-06 0)
(-7.12315e-06 6.36811e-06 0)
(-5.20371e-06 1.46072e-05 0)
(-2.52834e-06 9.0735e-06 0)
(-4.99757e-06 9.37105e-06 0)
(-2.99349e-06 1.52842e-05 0)
(-3.28306e-07 1.05646e-05 0)
(-1.723e-06 9.71318e-06 0)
(-1.55581e-06 1.17906e-05 0)
(-8.11498e-07 1.03929e-05 0)
(-9.55144e-07 1.05637e-05 0)
(-8.0969e-07 1.05206e-05 0)
(-8.31115e-07 1.04163e-05 0)
(-6.44574e-07 1.09722e-05 0)
(-1.85436e-07 1.10346e-05 0)
(4.83748e-07 1.13958e-05 0)
(1.57125e-06 1.12633e-05 0)
(2.45019e-06 1.02045e-05 0)
(2.78314e-06 9.02316e-06 0)
(2.54444e-06 7.65415e-06 0)
(1.72668e-06 6.63602e-06 0)
(6.03948e-07 6.1284e-06 0)
(-4.89419e-07 6.66112e-06 0)
(-1.38805e-06 7.08789e-06 0)
(-2.02627e-06 7.91106e-06 0)
(-2.22416e-06 8.97908e-06 0)
(-1.96422e-06 9.96e-06 0)
(-1.30347e-06 1.07589e-05 0)
(-4.91912e-07 1.09766e-05 0)
(1.0574e-07 1.08352e-05 0)
(5.24386e-07 1.07428e-05 0)
(7.44357e-07 1.0446e-05 0)
(8.26682e-07 1.04589e-05 0)
(9.56934e-07 1.04908e-05 0)
(1.01034e-06 1.05055e-05 0)
(1.45538e-06 1.11025e-05 0)
(1.60141e-06 1.02484e-05 0)
(1.22796e-06 1.08719e-05 0)
(2.77689e-06 1.29388e-05 0)
(3.98859e-06 1.01598e-05 0)
(3.22203e-06 9.83044e-06 0)
(4.62785e-06 1.18808e-05 0)
(5.49633e-06 7.75329e-06 0)
(3.40908e-06 6.74924e-06 0)
(2.67983e-06 8.89332e-06 0)
(4.71135e-06 9.84334e-06 0)
(4.65663e-06 4.9561e-06 0)
(1.1535e-06 4.41846e-06 0)
(-1.2663e-06 7.72597e-06 0)
(4.22723e-06 1.57688e-05 0)
(7.05921e-06 2.89988e-06 0)
(1.36389e-06 1.91332e-06 0)
(-5.34039e-06 2.60565e-06 0)
(-5.29651e-06 8.96667e-06 0)
(-7.4381e-07 8.44828e-07 0)
(-3.56953e-07 5.59032e-07 0)
(-2.12775e-07 4.33212e-07 0)
(-1.45627e-07 3.57903e-07 0)
(-1.08309e-07 3.05268e-07 0)
(-7.69914e-08 2.50255e-07 0)
(-4.8251e-08 2.13709e-07 0)
(-1.80033e-08 1.95488e-07 0)
(1.80033e-08 1.95488e-07 0)
(4.8251e-08 2.13709e-07 0)
(7.69914e-08 2.50255e-07 0)
(1.08309e-07 3.05268e-07 0)
(1.45627e-07 3.57903e-07 0)
(2.12775e-07 4.33212e-07 0)
(3.56953e-07 5.59032e-07 0)
(7.4381e-07 8.44828e-07 0)
(5.29651e-06 8.96667e-06 0)
(5.34039e-06 2.60565e-06 0)
(-1.36389e-06 1.91332e-06 0)
(-7.05921e-06 2.89988e-06 0)
(-4.22723e-06 1.57688e-05 0)
(1.2663e-06 7.72597e-06 0)
(-1.1535e-06 4.41846e-06 0)
(-4.65663e-06 4.9561e-06 0)
(-4.71135e-06 9.84334e-06 0)
(-2.67983e-06 8.89332e-06 0)
(-3.40908e-06 6.74924e-06 0)
(-5.49633e-06 7.75329e-06 0)
(-4.62785e-06 1.18808e-05 0)
(-3.22203e-06 9.83044e-06 0)
(-3.98859e-06 1.01598e-05 0)
(-2.77689e-06 1.29388e-05 0)
(-1.22796e-06 1.08719e-05 0)
(-1.60141e-06 1.02484e-05 0)
(-1.45538e-06 1.11025e-05 0)
(-1.01034e-06 1.05055e-05 0)
(-9.56934e-07 1.04908e-05 0)
(-8.26682e-07 1.04589e-05 0)
(-7.44357e-07 1.0446e-05 0)
(-5.24386e-07 1.07428e-05 0)
(-1.0574e-07 1.08352e-05 0)
(4.91912e-07 1.09766e-05 0)
(1.30347e-06 1.07589e-05 0)
(1.96422e-06 9.96e-06 0)
(2.22416e-06 8.97908e-06 0)
(2.02627e-06 7.91106e-06 0)
(1.38805e-06 7.08789e-06 0)
(4.89419e-07 6.66112e-06 0)
(-3.85863e-07 7.12858e-06 0)
(-1.08825e-06 7.47531e-06 0)
(-1.57904e-06 8.12626e-06 0)
(-1.73698e-06 8.95397e-06 0)
(-1.54145e-06 9.74212e-06 0)
(-1.05124e-06 1.0363e-05 0)
(-4.4203e-07 1.06146e-05 0)
(6.75628e-08 1.06047e-05 0)
(4.47209e-07 1.05455e-05 0)
(6.87059e-07 1.03958e-05 0)
(8.32136e-07 1.03853e-05 0)
(9.80033e-07 1.04146e-05 0)
(1.12072e-06 1.04754e-05 0)
(1.42747e-06 1.07324e-05 0)
(1.61093e-06 1.04407e-05 0)
(1.68596e-06 1.08287e-05 0)
(2.63209e-06 1.16571e-05 0)
(3.42604e-06 1.03749e-05 0)
(3.38535e-06 1.00309e-05 0)
(4.14403e-06 1.05341e-05 0)
(4.52499e-06 8.44115e-06 0)
(3.52841e-06 7.69036e-06 0)
(3.13092e-06 8.54904e-06 0)
(3.94112e-06 8.69189e-06 0)
(3.67429e-06 6.28547e-06 0)
(1.74822e-06 5.96548e-06 0)
(6.92965e-07 8.01123e-06 0)
(3.29745e-06 1.12065e-05 0)
(4.51175e-06 5.32941e-06 0)
(1.42507e-06 4.13507e-06 0)
(-1.7798e-06 5.62339e-06 0)
(2.31281e-06 1.44398e-05 0)
(6.13866e-06 3.66598e-06 0)
(2.85164e-06 2.77193e-06 0)
(-2.94397e-07 2.70468e-06 0)
(-4.32224e-06 3.5199e-06 0)
(-3.98104e-06 3.28001e-06 0)
(-7.90638e-07 6.34682e-07 0)
(-2.31256e-07 2.65104e-07 0)
(-6.6392e-08 1.9609e-07 0)
(6.6392e-08 1.9609e-07 0)
(2.31256e-07 2.65104e-07 0)
(7.90638e-07 6.34682e-07 0)
(3.98104e-06 3.28001e-06 0)
(4.32224e-06 3.5199e-06 0)
(2.94397e-07 2.70468e-06 0)
(-2.85164e-06 2.77193e-06 0)
(-6.13866e-06 3.66598e-06 0)
(-2.31281e-06 1.44398e-05 0)
(1.7798e-06 5.62339e-06 0)
(-1.42507e-06 4.13507e-06 0)
(-4.51175e-06 5.32941e-06 0)
(-3.29745e-06 1.12065e-05 0)
(-6.92965e-07 8.01123e-06 0)
(-1.74822e-06 5.96548e-06 0)
(-3.67429e-06 6.28547e-06 0)
(-3.94112e-06 8.69189e-06 0)
(-3.13092e-06 8.54904e-06 0)
(-3.52841e-06 7.69036e-06 0)
(-4.52499e-06 8.44115e-06 0)
(-4.14403e-06 1.05341e-05 0)
(-3.38535e-06 1.00309e-05 0)
(-3.42604e-06 1.03749e-05 0)
(-2.63209e-06 1.16571e-05 0)
(-1.68596e-06 1.08287e-05 0)
(-1.61093e-06 1.04407e-05 0)
(-1.42747e-06 1.07324e-05 0)
(-1.12072e-06 1.04754e-05 0)
(-9.80033e-07 1.04146e-05 0)
(-8.32136e-07 1.03853e-05 0)
(-6.87059e-07 1.03958e-05 0)
(-4.47209e-07 1.05455e-05 0)
(-6.75628e-08 1.06047e-05 0)
(4.4203e-07 1.06146e-05 0)
(1.05124e-06 1.0363e-05 0)
(1.54145e-06 9.74212e-06 0)
(1.73698e-06 8.95397e-06 0)
(1.57904e-06 8.12626e-06 0)
(1.08825e-06 7.47531e-06 0)
(3.85863e-07 7.12858e-06 0)
(-2.95225e-07 7.52728e-06 0)
(-8.29444e-07 7.8004e-06 0)
(-1.19864e-06 8.3044e-06 0)
(-1.31959e-06 8.9391e-06 0)
(-1.17525e-06 9.55819e-06 0)
(-8.13972e-07 1.00489e-05 0)
(-3.54353e-07 1.03033e-05 0)
(6.86883e-08 1.03692e-05 0)
(4.08818e-07 1.03582e-05 0)
(6.55573e-07 1.02963e-05 0)
(8.37186e-07 1.02914e-05 0)
(1.00775e-06 1.03203e-05 0)
(1.18683e-06 1.03803e-05 0)
(1.43766e-06 1.05006e-05 0)
(1.65725e-06 1.04341e-05 0)
(1.90006e-06 1.06436e-05 0)
(2.52361e-06 1.09265e-05 0)
(3.08521e-06 1.03134e-05 0)
(3.29998e-06 9.98288e-06 0)
(3.73836e-06 9.88574e-06 0)
(3.91541e-06 8.7664e-06 0)
(3.46107e-06 8.20494e-06 0)
(3.22606e-06 8.40258e-06 0)
(3.45269e-06 8.24353e-06 0)
(3.14589e-06 7.07278e-06 0)
(2.11238e-06 6.89708e-06 0)
(1.63093e-06 7.96914e-06 0)
(2.73766e-06 9.1034e-06 0)
(3.14082e-06 6.50186e-06 0)
(1.5312e-06 5.68855e-06 0)
(4.75627e-08 6.78462e-06 0)
(1.54008e-06 1.00596e-05 0)
(3.12559e-06 6.48702e-06 0)
(2.09657e-06 5.53251e-06 0)
(9.46428e-07 5.51545e-06 0)
(4.19775e-07 6.53927e-06 0)
(2.70896e-07 6.37872e-06 0)
(-2.25079e-07 1.45758e-06 0)
(-4.17999e-07 3.59227e-07 0)
(-1.34841e-07 1.7343e-07 0)
(1.34841e-07 1.7343e-07 0)
(4.17999e-07 3.59227e-07 0)
(2.25079e-07 1.45758e-06 0)
(-2.70896e-07 6.37872e-06 0)
(-4.19775e-07 6.53927e-06 0)
(-9.46428e-07 5.51545e-06 0)
(-2.09657e-06 5.53251e-06 0)
(-3.12559e-06 6.48702e-06 0)
(-1.54008e-06 1.00596e-05 0)
(-4.75627e-08 6.78462e-06 0)
(-1.5312e-06 5.68855e-06 0)
(-3.14082e-06 6.50186e-06 0)
(-2.73766e-06 9.1034e-06 0)
(-1.63093e-06 7.96914e-06 0)
(-2.11238e-06 6.89708e-06 0)
(-3.14589e-06 7.07278e-06 0)
(-3.45269e-06 8.24353e-06 0)
(-3.22606e-06 8.40258e-06 0)
(-3.46107e-06 8.20494e-06 0)
(-3.91541e-06 8.7664e-06 0)
(-3.73836e-06 9.88574e-06 0)
(-3.29998e-06 9.98288e-06 0)
(-3.08521e-06 1.03134e-05 0)
(-2.52361e-06 1.09265e-05 0)
(-1.90006e-06 1.06436e-05 0)
(-1.65725e-06 1.04341e-05 0)
(-1.43766e-06 1.05006e-05 0)
(-1.18683e-06 1.03803e-05 0)
(-1.00775e-06 1.03203e-05 0)
(-8.37186e-07 1.02914e-05 0)
(-6.55573e-07 1.02963e-05 0)
(-4.08818e-07 1.03582e-05 0)
(-6.86883e-08 1.03692e-05 0)
(3.54353e-07 1.03033e-05 0)
(8.13972e-07 1.00489e-05 0)
(1.17525e-06 9.55819e-06 0)
(1.31959e-06 8.9391e-06 0)