/*--------------------------------*- C++ -*----------------------------------*\
  =========                 |
  \\      /  F ield         | OpenFOAM: The Open Source CFD Toolbox
   \\    /   O peration     | Website:  https://openfoam.org
    \\  /    A nd           | Version:  11
     \\/     M anipulation  |
\*---------------------------------------------------------------------------*/
FoamFile
{
    format      ascii;
    class       volScalarField;
    location    "12";
    object      p;
}
// * * * * * * * * * * * * * * * * * * * * * * * * * * * * * * * * * * * * * //

dimensions      [0 2 -2 0 0 0 0];

internalField   nonuniform List<scalar> 
2048
(
0.288423
0.286065
0.281313
0.273953
0.263822
0.250758
0.23456
0.214999
0.191852
0.164943
0.134185
0.0996146
0.0614355
0.0200403
-0.0239814
-0.0698686
-0.116748
-0.163729
-0.210007
-0.254964
-0.298197
-0.339504
-0.378815
-0.416142
-0.451529
-0.485019
-0.516629
-0.546333
-0.574054
-0.599662
-0.622986
-0.643819
-0.66193
-0.677076
-0.689016
-0.69752
-0.702384
-0.703436
-0.700553
-0.69366
-0.682732
-0.667811
-0.649019
-0.626548
-0.600666
-0.571708
-0.540079
-0.506246
-0.47072
-0.434042
-0.396752
-0.359381
-0.322409
-0.286274
-0.251314
-0.217832
-0.185965
-0.15591
-0.127549
-0.101112
-0.0760729
-0.0530902
-0.0307114
-0.0111379
0.290853
0.288525
0.283827
0.276542
0.266495
0.253507
0.237352
0.217775
0.194526
0.167399
0.136283
0.1012
0.0623534
0.0201625
-0.0247268
-0.0714718
-0.119108
-0.166666
-0.213307
-0.258425
-0.301665
-0.342875
-0.382034
-0.419188
-0.454415
-0.487781
-0.519317
-0.549
-0.576749
-0.602431
-0.625865
-0.646836
-0.665104
-0.680415
-0.69252
-0.701183
-0.706194
-0.707377
-0.704604
-0.697792
-0.686908
-0.671991
-0.653157
-0.6306
-0.604578
-0.575425
-0.543548
-0.509416
-0.473552
-0.436504
-0.398829
-0.361072
-0.323727
-0.287247
-0.251982
-0.218243
-0.186171
-0.155966
-0.127502
-0.101014
-0.0759529
-0.052993
-0.0306293
-0.0111289
0.295691
0.293423
0.288842
0.28172
0.27186
0.259044
0.243
0.223415
0.199975
0.172418
0.140577
0.104444
0.0642211
0.0203784
-0.0263243
-0.0748683
-0.124079
-0.172812
-0.220157
-0.265555
-0.308758
-0.349728
-0.388537
-0.425312
-0.460196
-0.493302
-0.524685
-0.554327
-0.58214
-0.607979
-0.631646
-0.652906
-0.671498
-0.68715
-0.699597
-0.708588
-0.713901
-0.715353
-0.712805
-0.706161
-0.695373
-0.680473
-0.66157
-0.638844
-0.612545
-0.583001
-0.55062
-0.515882
-0.479324
-0.44152
-0.403054
-0.364503
-0.326393
-0.289206
-0.253315
-0.219049
-0.186558
-0.156046
-0.127378
-0.100785
-0.0756922
-0.0527698
-0.030472
-0.0110861
0.302866
0.3007
0.296315
0.289471
0.279935
0.267433
0.251619
0.232086
0.208416
0.180232
0.147278
0.109491
0.0670756
0.020588
-0.0290317
-0.0804697
-0.132173
-0.182693
-0.231031
-0.276739
-0.319763
-0.360249
-0.398423
-0.434544
-0.468861
-0.501552
-0.532699
-0.562285
-0.590213
-0.616315
-0.640363
-0.662088
-0.681196
-0.697387
-0.710373
-0.719883
-0.725679
-0.727559
-0.725365
-0.718978
-0.708344
-0.693487
-0.674503
-0.651545
-0.62484
-0.594708
-0.561559
-0.525888
-0.488256
-0.449274
-0.40957
-0.369775
-0.330465
-0.29217
-0.255299
-0.220212
-0.187071
-0.156085
-0.127109
-0.10036
-0.075233
-0.0523797
-0.0302072
-0.0110003
0.312267
0.310256
0.306173
0.299763
0.290744
0.278766
0.263382
0.244054
0.220203
0.19126
0.156795
0.116623
0.0709612
0.0205324
-0.0334252
-0.0891003
-0.14431
-0.197173
-0.246655
-0.292545
-0.335085
-0.374679
-0.411788
-0.446881
-0.480353
-0.512454
-0.543283
-0.572815
-0.600935
-0.627441
-0.65206
-0.674467
-0.69432
-0.711276
-0.725018
-0.735262
-0.741757
-0.744275
-0.742609
-0.736589
-0.726169
-0.711397
-0.692339
-0.6691
-0.641871
-0.610956
-0.576766
-0.539812
-0.500686
-0.46005
-0.418602
-0.377045
-0.336034
-0.296167
-0.257912
-0.221667
-0.187616
-0.155973
-0.126581
-0.0996321
-0.0744848
-0.051754
-0.0297926
-0.0108596
0.323722
0.32194
0.3183
0.312534
0.304297
0.293146
0.2785
0.259655
0.235817
0.206127
0.169843
0.126457
0.0761242
0.0198439
-0.0405825
-0.102334
-0.162154
-0.217706
-0.268182
-0.313835
-0.355309
-0.393339
-0.428729
-0.462268
-0.494543
-0.525858
-0.556299
-0.585816
-0.614255
-0.641362
-0.666793
-0.690152
-0.711024
-0.729007
-0.743743
-0.754925
-0.762313
-0.765708
-0.764832
-0.759361
-0.749273
-0.734664
-0.715571
-0.692029
-0.664176
-0.63229
-0.596774
-0.558152
-0.517059
-0.474228
-0.430448
-0.386526
-0.343224
-0.301239
-0.261118
-0.223318
-0.188055
-0.155547
-0.125622
-0.0984371
-0.0733032
-0.0507785
-0.0291546
-0.0106318
0.336982
0.335523
0.332509
0.327666
0.320574
0.310686
0.297229
0.279302
0.255815
0.225566
0.187387
0.140081
0.0834502
0.0185427
-0.0517969
-0.122419
-0.188147
-0.246425
-0.297277
-0.341801
-0.381173
-0.416559
-0.449275
-0.480545
-0.511157
-0.541433
-0.571418
-0.601005
-0.629963
-0.657938
-0.684485
-0.709107
-0.731306
-0.750602
-0.766582
-0.778896
-0.787299
-0.791685
-0.791793
-0.787099
-0.777583
-0.763342
-0.744354
-0.720581
-0.692099
-0.659129
-0.622045
-0.58138
-0.537818
-0.492184
-0.445394
-0.398401
-0.352116
-0.307372
-0.264827
-0.225015
-0.188194
-0.154592
-0.124013
-0.0965671
-0.0715086
-0.049311
-0.0282046
-0.0102773
0.351703
0.35068
0.348511
0.344945
0.339475
0.33148
0.319893
0.303587
0.280921
0.250357
0.210202
0.158421
0.0942394
0.0172206
-0.0681167
-0.151596
-0.224856
-0.285711
-0.335858
-0.377693
-0.413174
-0.444225
-0.472958
-0.501051
-0.529368
-0.558195
-0.58755
-0.61725
-0.64692
-0.676029
-0.703973
-0.730128
-0.7539
-0.77474
-0.792186
-0.805848
-0.81543
-0.820753
-0.821634
-0.817809
-0.80919
-0.795672
-0.777114
-0.753414
-0.724563
-0.69068
-0.652061
-0.609213
-0.562857
-0.513923
-0.463482
-0.412687
-0.362658
-0.314425
-0.268807
-0.226453
-0.187684
-0.152737
-0.121393
-0.093692
-0.0688238
-0.0471367
-0.0268119
-0.00974011
0.36743
0.366965
0.365878
0.363999
0.360726
0.355489
0.3468
0.333422
0.312463
0.282045
0.238893
0.180949
0.10746
0.0133443
-0.0935717
-0.194048
-0.276056
-0.338873
-0.386407
-0.422682
-0.450928
-0.474789
-0.497741
-0.521571
-0.546775
-0.573495
-0.601765
-0.631337
-0.661625
-0.691853
-0.721196
-0.748865
-0.774153
-0.796453
-0.815275
-0.830239
-0.841025
-0.847285
-0.8488
-0.845896
-0.838417
-0.825991
-0.808344
-0.785302
-0.756734
-0.722605
-0.683067
-0.638531
-0.5897
-0.537567
-0.483352
-0.428428
-0.374176
-0.321891
-0.272629
-0.227219
-0.186099
-0.149541
-0.117317
-0.0893817
-0.064869
-0.0439392
-0.0247751
-0.00889432
0.38359
0.383797
0.38402
0.384231
0.383762
0.382296
0.377887
0.369682
0.35263
0.324788
0.276844
0.208176
0.115344
-0.00915576
-0.144824
-0.26126
-0.348046
-0.408525
-0.448627
-0.473895
-0.48918
-0.501672
-0.516897
-0.535784
-0.557693
-0.582309
-0.60952
-0.638924
-0.669736
-0.700953
-0.731531
-0.760503
-0.787036
-0.810456
-0.830246
-0.846029
-0.857571
-0.864646
-0.867129
-0.865142
-0.858656
-0.847306
-0.830782
-0.808815
-0.781135
-0.747539
-0.708001
-0.662778
-0.612471
-0.55805
-0.500814
-0.442303
-0.384147
-0.327918
-0.274961
-0.226354
-0.182723
-0.144427
-0.111288
-0.0831813
-0.0592413
-0.0393545
-0.0218609
-0.00754483
0.399512
0.400468
0.402179
0.40479
0.407656
0.410849
0.412223
0.411919
0.402945
0.384829
0.336074
0.255738
0.113442
-0.0725728
-0.238927
-0.355951
-0.432101
-0.478988
-0.504109
-0.513416
-0.512544
-0.513575
-0.522399
-0.538391
-0.559538
-0.584506
-0.612493
-0.642755
-0.674413
-0.706456
-0.737838
-0.76757
-0.794783
-0.818768
-0.838998
-0.855111
-0.866919
-0.874325
-0.877241
-0.875761
-0.869716
-0.858932
-0.843127
-0.821946
-0.795014
-0.762012
-0.722779
-0.677429
-0.626431
-0.570675
-0.511458
-0.450404
-0.389294
-0.329911
-0.273863
-0.222483
-0.176622
-0.136771
-0.102875
-0.0747494
-0.0516495
-0.0330942
-0.0178596
-0.00551589
0.414446
0.416171
0.419467
0.424602
0.431138
0.439432
0.447775
0.457157
0.461136
0.462102
0.431627
0.370084
0.160381
-0.137223
-0.33063
-0.429696
-0.482865
-0.512494
-0.52639
-0.527518
-0.51986
-0.519659
-0.527592
-0.541975
-0.561894
-0.586447
-0.614618
-0.64537
-0.67763
-0.710284
-0.742226
-0.772423
-0.799977
-0.824167
-0.844475
-0.860577
-0.872321
-0.879642
-0.88245
-0.880788
-0.874629
-0.863849
-0.848133
-0.827084
-0.800285
-0.767361
-0.728084
-0.68248
-0.630937
-0.574275
-0.513769
-0.451073
-0.388014
-0.326487
-0.268285
-0.21493
-0.167467
-0.126516
-0.092191
-0.064267
-0.0422495
-0.025239
-0.0127598
-0.00281638
0.427611
0.430068
0.434905
0.442474
0.452665
0.46597
0.481607
0.500711
0.519845
0.542462
0.552685
0.566016
0.432233
-0.0613446
-0.314329
-0.432231
-0.486271
-0.510091
-0.521584
-0.527531
-0.520012
-0.520874
-0.529789
-0.544464
-0.564298
-0.588585
-0.616497
-0.647055
-0.679174
-0.711723
-0.743578
-0.77369
-0.801148
-0.825225
-0.845405
-0.86137
-0.87296
-0.880084
-0.882665
-0.880792
-0.874364
-0.863298
-0.847266
-0.825868
-0.798676
-0.765314
-0.725543
-0.679378
-0.627183
-0.569756
-0.508399
-0.444763
-0.380627
-0.317944
-0.2586
-0.204207
-0.155937
-0.114491
-0.0801508
-0.0526599
-0.0318479
-0.0164365
-0.00689995
0.000310729
0.438258
0.441355
0.447518
0.457219
0.470585
0.488358
0.510381
0.538213
0.570369
0.610177
0.64919
0.692521
0.646611
0.198271
-0.0860275
-0.262375
-0.374228
-0.442731
-0.484568
-0.515674
-0.518731
-0.519924
-0.529485
-0.54397
-0.563405
-0.587187
-0.614587
-0.64465
-0.676315
-0.708467
-0.740004
-0.769893
-0.797222
-0.821254
-0.841452
-0.857467
-0.869098
-0.876216
-0.878758
-0.876733
-0.870045
-0.858591
-0.842033
-0.819991
-0.792065
-0.757914
-0.717345
-0.670413
-0.617536
-0.559558
-0.497702
-0.433613
-0.369113
-0.306138
-0.246563
-0.192008
-0.143693
-0.102349
-0.0683704
-0.0414884
-0.0218199
-0.00784706
-0.000969354
0.00349718
0.445749
0.449322
0.456458
0.467749
0.48345
0.504599
0.531233
0.565585
0.605988
0.657143
0.708063
0.768756
0.743401
0.290119
-0.010314
-0.204728
-0.333415
-0.415555
-0.46791
-0.506618
-0.515356
-0.515409
-0.525199
-0.53961
-0.558845
-0.582344
-0.609417
-0.639143
-0.670491
-0.702366
-0.733689
-0.763442
-0.790729
-0.814815
-0.835147
-0.851341
-0.863142
-0.870372
-0.872873
-0.870448
-0.863581
-0.851717
-0.834557
-0.811772
-0.783014
-0.748
-0.706602
-0.658954
-0.605542
-0.547249
-0.485293
-0.421224
-0.356926
-0.294304
-0.23516
-0.181028
-0.133178
-0.0923201
-0.0588945
-0.0326574
-0.0138686
-0.000967154
0.00401587
0.00626917
0.44962
0.453441
0.461099
0.473227
0.490188
0.513098
0.542219
0.579769
0.624447
0.680236
0.737011
0.80247
0.78694
0.347851
0.0448226
-0.161319
-0.303101
-0.396121
-0.456308
-0.49949
-0.511581
-0.511666
-0.521075
-0.535439
-0.554669
-0.578084
-0.604996
-0.634518
-0.66566
-0.697361
-0.728557
-0.758245
-0.785536
-0.809692
-0.830145
-0.846492
-0.85845
-0.865805
-0.868337
-0.865894
-0.858462
-0.846164
-0.828571
-0.805286
-0.775967
-0.740374
-0.69844
-0.650358
-0.596659
-0.538234
-0.476339
-0.412548
-0.348656
-0.28653
-0.227927
-0.174368
-0.127028
-0.0866408
-0.0536399
-0.0278352
-0.00950605
0.00282443
0.0069076
0.0079642
0.44962
0.453441
0.461098
0.473227
0.490187
0.513098
0.542219
0.579769
0.624446
0.680235
0.73701
0.802469
0.786938
0.347849
0.0448199
-0.161323
-0.303105
-0.396126
-0.456313
-0.499495
-0.511587
-0.511673
-0.521081
-0.535445
-0.554672
-0.578082
-0.604987
-0.634501
-0.665634
-0.697325
-0.728513
-0.758195
-0.78548
-0.80963
-0.830085
-0.846436
-0.858401
-0.865764
-0.868309
-0.865885
-0.858445
-0.84615
-0.828567
-0.805295
-0.775988
-0.740406
-0.698482
-0.650409
-0.596717
-0.538296
-0.476404
-0.412613
-0.348714
-0.28658
-0.227968
-0.1744
-0.127051
-0.0866557
-0.0536481
-0.0278383
-0.00950533
0.0028272
0.00691128
0.00796674
0.445748
0.44932
0.456457
0.467747
0.483448
0.504597
0.531231
0.565583
0.605986
0.65714
0.70806
0.768753
0.743397
0.290113
-0.010322
-0.204738
-0.333427
-0.415569
-0.467925
-0.506634
-0.515375
-0.515429
-0.525219
-0.539626
-0.558853
-0.582338
-0.609392
-0.639095
-0.670418
-0.702269
-0.733568
-0.763302
-0.790576
-0.814654
-0.834986
-0.851187
-0.863001
-0.870253
-0.872788
-0.870441
-0.863547
-0.851696
-0.834563
-0.811807
-0.78308
-0.748095
-0.706724
-0.659098
-0.605703
-0.547421
-0.485467
-0.421391
-0.357078
-0.294436
-0.235267
-0.181112
-0.133238
-0.092359
-0.0589156
-0.0326649
-0.0138662
-0.000959471
0.0040254
0.00627516
0.438256
0.441352
0.447516
0.457217
0.470583
0.488355
0.510378
0.538209
0.570365
0.610172
0.649185
0.692515
0.646604
0.198261
-0.0860407
-0.262391
-0.374248
-0.442753
-0.484592
-0.5157
-0.518762
-0.519956
-0.529516
-0.543995
-0.563417
-0.587178
-0.614551
-0.644581
-0.676209
-0.708325
-0.739831
-0.769693
-0.797004
-0.821027
-0.841225
-0.857249
-0.868898
-0.876038
-0.878601
-0.876554
-0.869956
-0.858553
-0.84204
-0.820042
-0.792161
-0.758053
-0.717522
-0.670622
-0.617768
-0.559805
-0.497948
-0.433848
-0.369326
-0.306321
-0.246712
-0.192122
-0.143774
-0.102401
-0.0683974
-0.041497
-0.0218156
-0.00783615
-0.000956942
0.00350416
0.427608
0.430065
0.434902
0.442471
0.452661
0.465966
0.481602
0.500706
0.51984
0.542456
0.552678
0.566009
0.432224
-0.061358
-0.314348
-0.432255
-0.4863
-0.510124
-0.521619
-0.52757
-0.520053
-0.520917
-0.52983
-0.544496
-0.564313
-0.588574
-0.616453
-0.646971
-0.679049
-0.711556
-0.743375
-0.773457
-0.800895
-0.824962
-0.845143
-0.86112
-0.872729
-0.879879
-0.88249
-0.880647
-0.874272
-0.863258
-0.847279
-0.825934
-0.798796
-0.765483
-0.725757
-0.679628
-0.62746
-0.570047
-0.508688
-0.445037
-0.380873
-0.318154
-0.258768
-0.204335
-0.156026
-0.114546
-0.0801794
-0.0526686
-0.0318433
-0.0164253
-0.00688786
0.000317027
0.414442
0.416167
0.419463
0.424597
0.431134
0.439427
0.44777
0.457151
0.46113
0.462094
0.431618
0.370074
0.160369
-0.137239
-0.330651
-0.429723
-0.482896
-0.51253
-0.526431
-0.527563
-0.519909
-0.519712
-0.527641
-0.542014
-0.561912
-0.586436
-0.61457
-0.64528
-0.677496
-0.710108
-0.742012
-0.772178
-0.799711
-0.823892
-0.844202
-0.860316
-0.872081
-0.87943
-0.882275
-0.880655
-0.874544
-0.863818
-0.848157
-0.827165
-0.800422
-0.767552
-0.728321
-0.682754
-0.631236
-0.574586
-0.514075
-0.451359
-0.388268
-0.326702
-0.268456
-0.215058
-0.167556
-0.126571
-0.09222
-0.0642769
-0.042247
-0.0252304
-0.0127505
-0.00281171
0.399507
0.400463
0.402175
0.404785
0.40765
0.410844
0.412216
0.411912
0.402938
0.38482
0.336064
0.255726
0.113429
-0.0725891
-0.238947
-0.355975
-0.43213
-0.479021
-0.504148
-0.513461
-0.512596
-0.513631
-0.522452
-0.53843
-0.559555
-0.584491
-0.612441
-0.642661
-0.674275
-0.706276
-0.737621
-0.767324
-0.794518
-0.818494
-0.838727
-0.854854
-0.866684
-0.874119
-0.877074
-0.875638
-0.869642
-0.858912
-0.843163
-0.82204
-0.795165
-0.762215
-0.723027
-0.677711
-0.626734
-0.570985
-0.511759
-0.450682
-0.389538
-0.330114
-0.274024
-0.222603
-0.176705
-0.136824
-0.102904
-0.0747614
-0.0516506
-0.0330898
-0.0178542
-0.0055131
0.383584
0.383792
0.384014
0.384225
0.383756
0.382289
0.377879
0.369674
0.352622
0.324778
0.276834
0.208164
0.115331
-0.00917175
-0.144843
-0.261282
-0.348071
-0.408554
-0.448661
-0.473933
-0.489222
-0.501716
-0.516936
-0.535811
-0.5577
-0.582287
-0.609462
-0.638825
-0.669596
-0.700773
-0.731315
-0.76026
-0.786777
-0.810189
-0.829984
-0.845781
-0.857346
-0.864456
-0.866981
-0.865036
-0.858598
-0.847301
-0.830833
-0.808922
-0.781295
-0.747746
-0.708248
-0.663053
-0.612761
-0.558341
-0.501091
-0.442556
-0.384366
-0.3281
-0.275104
-0.226461
-0.182797
-0.144475
-0.111316
-0.0831952
-0.059246
-0.0393541
-0.0218589
-0.00754355
0.367423
0.366959
0.365872
0.363992
0.360719
0.355481
0.346792
0.333413
0.312454
0.282035
0.238882
0.180936
0.107446
0.0133287
-0.0935892
-0.194068
-0.276078
-0.338898
-0.386434
-0.422711
-0.450957
-0.474817
-0.497762
-0.521579
-0.546765
-0.573458
-0.601697
-0.631233
-0.661486
-0.691679
-0.720993
-0.74864
-0.773913
-0.796208
-0.815035
-0.830014
-0.840825
-0.847122
-0.848677
-0.845813
-0.838381
-0.826004
-0.808409
-0.785417
-0.756895
-0.722806
-0.683298
-0.638783
-0.58996
-0.537823
-0.483593
-0.428645
-0.374363
-0.322045
-0.27275
-0.22731
-0.186164
-0.149584
-0.117344
-0.0893966
-0.064876
-0.0439415
-0.0247754
-0.00889401
0.351697
0.350673
0.348504
0.344938
0.339467
0.331472
0.319885
0.303578
0.280911
0.250346
0.21019
0.158409
0.0942255
0.0172054
-0.0681333
-0.151614
-0.224876
-0.285732
-0.335879
-0.377714
-0.413193
-0.444239
-0.472965
-0.501046
-0.529346
-0.558151
-0.587479
-0.617151
-0.646791
-0.675872
-0.703793
-0.72993
-0.753691
-0.774529
-0.791982
-0.805659
-0.815264
-0.820615
-0.821532
-0.817748
-0.809172
-0.795697
-0.777183
-0.753525
-0.72471
-0.690859
-0.652263
-0.609428
-0.563076
-0.514136
-0.463681
-0.412865
-0.362811
-0.314551
-0.268907
-0.226529
-0.18774
-0.152775
-0.121418
-0.0937068
-0.0688319
-0.0471405
-0.0268134
-0.00974034
0.336975
0.335516
0.332502
0.327659
0.320566
0.310678
0.297221
0.279292
0.255805
0.225555
0.187376
0.140068
0.0834366
0.0185281
-0.0518124
-0.122435
-0.188164
-0.246442
-0.297293
-0.341815
-0.381184
-0.416565
-0.449273
-0.480532
-0.511128
-0.541386
-0.571349
-0.600913
-0.629848
-0.657802
-0.68433
-0.708938
-0.731129
-0.750425
-0.766411
-0.778738
-0.78716
-0.791568
-0.791709
-0.787052
-0.777573
-0.763368
-0.744416
-0.720678
-0.692225
-0.659279
-0.622213
-0.581557
-0.537996
-0.492357
-0.445555
-0.398545
-0.35224
-0.307475
-0.26491
-0.225079
-0.188241
-0.154625
-0.124035
-0.0965808
-0.0715166
-0.0493152
-0.0282065
-0.0102778
0.323714
0.321932
0.318293
0.312526
0.304289
0.293138
0.278491
0.259645
0.235806
0.206116
0.169831
0.126444
0.076111
0.01983
-0.040597
-0.102349
-0.162168
-0.21772
-0.268195
-0.313845
-0.355315
-0.393339
-0.428721
-0.46225
-0.494512
-0.525811
-0.556234
-0.585732
-0.614153
-0.641242
-0.666659
-0.690007
-0.710873
-0.728856
-0.743597
-0.754792
-0.762196
-0.765611
-0.764764
-0.759324
-0.749267
-0.734688
-0.715625
-0.692111
-0.664282
-0.632415
-0.596912
-0.558297
-0.517205
-0.47437
-0.430579
-0.386644
-0.343326
-0.301324
-0.261187
-0.223372
-0.188094
-0.155576
-0.125641
-0.0984495
-0.0733106
-0.0507826
-0.0291565
-0.0106324
0.312259
0.310248
0.306165
0.299754
0.290735
0.278757
0.263372
0.244044
0.220192
0.191249
0.156783
0.116611
0.0709483
0.0205189
-0.0334389
-0.0891138
-0.144323
-0.197184
-0.246665
-0.292552
-0.335087
-0.374675
-0.411776
-0.446859
-0.48032
-0.512407
-0.54322
-0.572737
-0.600842
-0.627334
-0.65194
-0.67434
-0.694188
-0.711145
-0.724892
-0.735147
-0.741656
-0.744195
-0.742552
-0.736557
-0.726164
-0.711418
-0.692385
-0.669169
-0.64196
-0.61106
-0.576882
-0.539933
-0.500807
-0.460168
-0.418712
-0.377144
-0.336119
-0.296239
-0.257969
-0.221712
-0.187649
-0.155998
-0.126598
-0.0996429
-0.0744914
-0.0517577
-0.0297943
-0.0108602
0.302858
0.300692
0.296306
0.289462
0.279926
0.267424
0.251609
0.232076
0.208405
0.180221
0.147266
0.109478
0.0670628
0.0205751
-0.0290447
-0.0804822
-0.132185
-0.182703
-0.231039
-0.276743
-0.319763
-0.360242
-0.398408
-0.434521
-0.468827
-0.501506
-0.532639
-0.562212
-0.590127
-0.616217
-0.640256
-0.661974
-0.681079
-0.697271
-0.710262
-0.719782
-0.725592
-0.727489
-0.725315
-0.718951
-0.70834
-0.693506
-0.674544
-0.651605
-0.624917
-0.594798
-0.561658
-0.525992
-0.48836
-0.449374
-0.409664
-0.369858
-0.330537
-0.292231
-0.255349
-0.220251
-0.1871
-0.156106
-0.127124
-0.100369
-0.0752387
-0.0523828
-0.0302086
-0.0110008
0.295683
0.293415
0.288834
0.281711
0.271851
0.259034
0.24299
0.223404
0.199965
0.172406
0.140565
0.104431
0.0642086
0.0203658
-0.0263367
-0.0748802
-0.12409
-0.172821
-0.220163
-0.265557
-0.308756
-0.34972
-0.388521
-0.425287
-0.460161
-0.493256
-0.524627
-0.554257
-0.582059
-0.607888
-0.631547
-0.652801
-0.67139
-0.687044
-0.699496
-0.708496
-0.713822
-0.71529
-0.712759
-0.706136
-0.69537
-0.68049
-0.661606
-0.638898
-0.612614
-0.583081
-0.550708
-0.515974
-0.479416
-0.441609
-0.403136
-0.364577
-0.326457
-0.28926
-0.253358
-0.219083
-0.186584
-0.156064
-0.127391
-0.100793
-0.075697
-0.0527725
-0.0304731
-0.0110865
0.290845
0.288516
0.283819
0.276533
0.266486
0.253497
0.237342
0.217765
0.194515
0.167388
0.136271
0.101188
0.062341
0.0201501
-0.0247389
-0.0714832
-0.119118
-0.166674
-0.213312
-0.258426
-0.301662
-0.342866
-0.382017
-0.419163
-0.45438
-0.487736
-0.519261
-0.548932
-0.576671
-0.602343
-0.62577
-0.646737
-0.665002
-0.680315
-0.692425
-0.701097
-0.70612
-0.707317
-0.704561
-0.697769
-0.686905
-0.672006
-0.653191
-0.63065
-0.604642
-0.575499
-0.543628
-0.5095
-0.473635
-0.436585
-0.398904
-0.361139
-0.323785
-0.287296
-0.252021
-0.218274
-0.186194
-0.155983
-0.127513
-0.101022
-0.0759572
-0.0529952
-0.0306301
-0.0111292
0.288415
0.286057
0.281305
0.273944
0.263813
0.250748
0.23455
0.214989
0.191841
0.164932
0.134173
0.0996025
0.0614232
0.020028
-0.0239935
-0.0698798
-0.116758
-0.163737
-0.210012
-0.254965
-0.298194
-0.339494
-0.378798
-0.416117
-0.451494
-0.484973
-0.516573
-0.546267
-0.573977
-0.599576
-0.622893
-0.643722
-0.661832
-0.676979
-0.688924
-0.697437
-0.702312
-0.703379
-0.700513
-0.693638
-0.682729
-0.667827
-0.649051
-0.626596
-0.600727
-0.571779
-0.540156
-0.506326
-0.4708
-0.434119
-0.396824
-0.359446
-0.322465
-0.286321
-0.251351
-0.217861
-0.185987
-0.155926
-0.12756
-0.101119
-0.0760769
-0.0530923
-0.0307123
-0.0111383
)
;

boundaryField
{
    inlet
    {
        type            zeroGradient;
    }
    outlet
    {
        type            fixedValue;
        value           uniform 0;
    }
    top
    {
        type            symmetryPlane;
    }
    bottom
    {
        type            symmetryPlane;
    }
    frontAndBack
    {
        type            empty;
    }
}


// ************************************************************************* //
