/*--------------------------------*- C++ -*----------------------------------*\
  =========                 |
  \\      /  F ield         | OpenFOAM: The Open Source CFD Toolbox
   \\    /   O peration     | Website:  https://openfoam.org
    \\  /    A nd           | Version:  10
     \\/     M anipulation  |
\*---------------------------------------------------------------------------*/
FoamFile
{
    format      ascii;
    class       surfaceScalarField;
    location    "1.45";
    object      phi;
}
// * * * * * * * * * * * * * * * * * * * * * * * * * * * * * * * * * * * * * //

dimensions      [0 3 -1 0 0 0 0];

internalField   nonuniform List<scalar> 
24170
(
1.43656e-09
-1.43656e-09
2.66707e-09
-1.23052e-09
3.64261e-09
-9.75533e-10
4.38194e-09
-7.39332e-10
4.93319e-09
-5.51252e-10
5.34832e-09
-4.15125e-10
5.67212e-09
-3.23808e-10
5.93997e-09
-2.67844e-10
6.1792e-09
-2.39232e-10
6.41183e-09
-2.32633e-10
6.65753e-09
-2.45695e-10
6.93701e-09
-2.79484e-10
7.27691e-09
-3.399e-10
7.71874e-09
-4.41832e-10
8.34041e-09
-6.21669e-10
9.3223e-09
-9.81889e-10
1.12229e-08
-1.90065e-09
-5.41501e-09
1.6638e-08
1.6352e-09
-3.07176e-09
3.02969e-09
-2.625e-09
4.12821e-09
-2.07406e-09
4.9547e-09
-1.56581e-09
5.56621e-09
-1.16276e-09
6.02324e-09
-8.72155e-10
6.37734e-09
-6.77905e-10
6.66877e-09
-5.59278e-10
6.92841e-09
-4.98867e-10
7.18084e-09
-4.85068e-10
7.44779e-09
-5.12643e-10
7.75179e-09
-5.83482e-10
8.12118e-09
-7.09291e-10
8.59872e-09
-9.19372e-10
9.25985e-09
-1.2828e-09
1.0256e-08
-1.97803e-09
1.18964e-08
-3.54106e-09
-7.77742e-09
1.42588e-08
1.83234e-09
-4.9041e-09
3.38564e-09
-4.17831e-09
4.59917e-09
-3.28758e-09
5.50401e-09
-2.47065e-09
6.16762e-09
-1.82638e-09
6.65959e-09
-1.36413e-09
7.03815e-09
-1.05647e-09
7.34815e-09
-8.69277e-10
7.62352e-09
-7.74231e-10
7.89088e-09
-7.52429e-10
8.17327e-09
-7.95034e-10
8.49388e-09
-9.04088e-10
8.88052e-09
-1.09593e-09
9.37213e-09
-1.41098e-09
1.00286e-08
-1.93924e-09
1.0938e-08
-2.88742e-09
1.21458e-08
-4.74894e-09
-8.58794e-09
1.29564e-08
2.05135e-09
-6.95545e-09
3.77588e-09
-5.90284e-09
5.10782e-09
-4.61952e-09
6.08912e-09
-3.45195e-09
6.80077e-09
-2.53802e-09
7.32316e-09
-1.88652e-09
7.72193e-09
-1.45523e-09
8.0466e-09
-1.19395e-09
8.33393e-09
-1.06157e-09
8.61219e-09
-1.03068e-09
8.90502e-09
-1.08787e-09
9.23509e-09
-1.23416e-09
9.62749e-09
-1.48833e-09
1.01128e-08
-1.89634e-09
1.07271e-08
-2.55348e-09
1.14895e-08
-3.64985e-09
1.2278e-08
-5.53746e-09
-8.66223e-09
1.23523e-08
2.30602e-09
-9.26146e-09
4.22238e-09
-7.8192e-09
5.67938e-09
-6.07653e-09
6.73561e-09
-4.50818e-09
7.49031e-09
-3.29273e-09
8.03736e-09
-2.43357e-09
8.45082e-09
-1.86869e-09
8.78511e-09
-1.52823e-09
9.0796e-09
-1.35606e-09
9.36364e-09
-1.31473e-09
9.66076e-09
-1.38499e-09
9.99185e-09
-1.56525e-09
1.03772e-08
-1.87368e-09
1.08361e-08
-2.35521e-09
1.13781e-08
-3.09549e-09
1.19679e-08
-4.23962e-09
1.24151e-08
-5.98468e-09
-8.40669e-09
1.21595e-08
2.61154e-09
-1.1873e-08
4.74776e-09
-9.95542e-09
6.33759e-09
-7.66636e-09
7.4653e-09
-5.63589e-09
8.25535e-09
-4.08279e-09
8.81864e-09
-2.99685e-09
9.23901e-09
-2.28906e-09
9.57594e-09
-1.86516e-09
9.87107e-09
-1.65119e-09
1.01543e-08
-1.59791e-09
1.0448e-08
-1.67872e-09
1.07702e-08
-1.88744e-09
1.11348e-08
-2.23833e-09
1.15486e-08
-2.76898e-09
1.1998e-08
-3.54491e-09
1.2415e-08
-4.6566e-09
1.26082e-08
-6.17791e-09
-8.01387e-09
1.22154e-08
2.98834e-09
-1.48613e-08
5.38076e-09
-1.23478e-08
7.11064e-09
-9.39625e-09
8.30233e-09
-6.82757e-09
9.11543e-09
-4.89589e-09
9.68254e-09
-3.56397e-09
1.00988e-08
-2.70533e-09
1.04289e-08
-2.1952e-09
1.0716e-08
-1.93835e-09
1.09898e-08
-1.87172e-09
1.12708e-08
-1.95973e-09
1.1573e-08
-2.18961e-09
1.19032e-08
-2.56856e-09
1.22565e-08
-3.12222e-09
1.26027e-08
-3.89118e-09
1.28622e-08
-4.91602e-09
1.28757e-08
-6.19148e-09
-7.5709e-09
1.24328e-08
3.46622e-09
-1.83276e-08
6.16101e-09
-1.50426e-08
8.03511e-09
-1.12703e-08
9.27605e-09
-8.06852e-09
1.00929e-08
-5.7127e-09
1.06457e-08
-4.11684e-09
1.10426e-08
-3.10224e-09
1.1353e-08
-2.50556e-09
1.1621e-08
-2.20638e-09
1.18749e-08
-2.12563e-09
1.21324e-08
-2.21718e-09
1.24026e-08
-2.45987e-09
1.26856e-08
-2.85155e-09
1.2967e-08
-3.40355e-09
1.32079e-08
-4.13207e-09
1.33318e-08
-5.03992e-09
1.32214e-08
-6.08117e-09
-7.11508e-09
1.27656e-08
4.0909e-09
-2.24185e-08
7.14558e-09
-1.80973e-08
9.16019e-09
-1.3285e-08
1.04235e-08
-9.33183e-09
1.12141e-08
-6.50332e-09
1.17269e-08
-4.62959e-09
1.20836e-08
-3.45894e-09
1.23575e-08
-2.7795e-09
1.25923e-08
-2.4412e-09
1.28137e-08
-2.34699e-09
1.30354e-08
-2.43887e-09
1.32617e-08
-2.68612e-09
1.34862e-08
-3.07608e-09
1.36884e-08
-3.6058e-09
1.38276e-08
-4.27126e-09
1.3839e-08
-5.05127e-09
1.36437e-08
-5.88583e-09
-6.66092e-09
1.31895e-08
4.93572e-09
-2.73542e-08
8.41912e-09
-2.15807e-08
1.05534e-08
-1.54192e-08
1.17919e-08
-1.05703e-08
1.25108e-08
-7.22221e-09
1.29469e-08
-5.06567e-09
1.32355e-08
-3.74756e-09
1.34516e-08
-2.99556e-09
1.36359e-08
-2.6256e-09
1.38101e-08
-2.5211e-09
1.39828e-08
-2.61163e-09
1.41533e-08
-2.85656e-09
1.43102e-08
-3.23299e-09
1.44299e-08
-3.72556e-09
1.44745e-08
-4.31589e-09
1.4394e-08
-4.97071e-09
1.41394e-08
-5.63122e-09
-6.21279e-09
1.36912e-08
6.12404e-09
-3.34782e-08
1.01106e-08
-2.55672e-08
1.23081e-08
-1.76168e-08
1.34409e-08
-1.17031e-08
1.40195e-08
-7.80087e-09
1.43283e-08
-5.37438e-09
1.45123e-08
-3.93165e-09
1.46438e-08
-3.12703e-09
1.47573e-08
-2.73907e-09
1.48676e-08
-2.63142e-09
1.49777e-08
-2.72169e-09
1.50813e-08
-2.96018e-09
1.51635e-08
-3.31524e-09
1.52003e-08
-3.76227e-09
1.51588e-08
-4.27448e-09
1.50033e-08
-4.81513e-09
1.47058e-08
-5.33372e-09
-5.77067e-09
1.42636e-08
6.5342e-09
-4.00124e-08
1.03392e-08
-2.93722e-08
1.21467e-08
-1.94243e-08
1.29167e-08
-1.24731e-08
1.32184e-08
-8.10254e-09
1.33269e-08
-5.48289e-09
1.33651e-08
-3.96983e-09
1.33852e-08
-3.14711e-09
1.34074e-08
-2.76132e-09
1.34369e-08
-2.66086e-09
1.34701e-08
-2.75497e-09
1.34979e-08
-2.98791e-09
1.35053e-08
-3.32263e-09
1.34726e-08
-3.72962e-09
1.3377e-08
-4.17891e-09
1.31969e-08
-4.63503e-09
1.29194e-08
-5.05617e-09
-5.39938e-09
1.25481e-08
9.71081e-09
-4.97232e-08
1.45359e-08
-3.41973e-08
1.6351e-08
-2.12395e-08
1.68564e-08
-1.29785e-08
1.6883e-08
-8.12918e-09
1.67692e-08
-5.36901e-09
1.66391e-08
-3.83975e-09
1.65324e-08
-3.04046e-09
1.64563e-08
-2.68514e-09
1.64047e-08
-2.6093e-09
1.63659e-08
-2.71618e-09
1.63241e-08
-2.94615e-09
1.62605e-08
-3.25895e-09
1.61536e-08
-3.62279e-09
1.59825e-08
-4.00772e-09
1.573e-08
-4.38256e-09
1.53892e-08
-4.71535e-09
-4.97732e-09
1.49671e-08
1.56771e-08
-6.54003e-08
2.14549e-08
-3.99751e-08
2.26377e-08
-2.24223e-08
2.2357e-08
-1.26977e-08
2.17657e-08
-7.53796e-09
2.12114e-08
-4.81464e-09
2.07707e-08
-3.39911e-09
2.04398e-08
-2.70951e-09
2.01941e-08
-2.43947e-09
2.00064e-08
-2.42164e-09
1.98505e-08
-2.56025e-09
1.97012e-08
-2.7969e-09
1.95345e-08
-3.09224e-09
1.93278e-08
-3.41602e-09
1.90618e-08
-3.74177e-09
1.87241e-08
-4.04491e-09
1.8312e-08
-4.30324e-09
-4.49935e-09
1.78341e-08
2.86751e-08
-9.40754e-08
3.37236e-08
-4.50236e-08
3.23363e-08
-2.1035e-08
3.01132e-08
-1.04746e-08
2.82705e-08
-5.69521e-09
2.69181e-08
-3.46222e-09
2.59516e-08
-2.43265e-09
2.52567e-08
-2.01463e-09
2.47441e-08
-1.92685e-09
2.43477e-08
-2.02526e-09
2.4018e-08
-2.2305e-09
2.3716e-08
-2.4949e-09
2.34105e-08
-2.78672e-09
2.30766e-08
-3.08218e-09
2.26966e-08
-3.36178e-09
2.22608e-08
-3.60908e-09
2.17686e-08
-3.81102e-09
-3.95883e-09
2.12281e-08
6.32686e-08
-1.57344e-07
5.67765e-08
-3.85315e-08
4.72294e-08
-1.14879e-08
4.07631e-08
-4.00839e-09
3.66778e-08
-1.60991e-09
3.405e-08
-8.3442e-10
3.22977e-08
-6.80367e-10
3.10804e-08
-7.97365e-10
3.01947e-08
-1.04113e-09
2.95131e-08
-1.34359e-09
2.89512e-08
-1.66868e-09
2.84511e-08
-1.9948e-09
2.79717e-08
-2.30725e-09
2.74843e-08
-2.5948e-09
2.69709e-08
-2.84841e-09
2.64228e-08
-3.06102e-09
2.58397e-08
-3.22784e-09
-3.34678e-09
2.52276e-08
1.83283e-07
1.59083e-07
9.71682e-08
4.75835e-08
6.69383e-08
1.87421e-08
5.35827e-08
9.34723e-09
4.65704e-08
5.40238e-09
4.2424e-08
3.31192e-09
3.97578e-08
1.98587e-09
3.79267e-08
1.03371e-09
3.65928e-08
2.92799e-10
3.55584e-08
-3.09233e-10
3.47033e-08
-8.13488e-10
3.39525e-08
-1.244e-09
3.32567e-08
-1.61148e-09
3.25838e-08
-1.92193e-09
3.19143e-08
-2.17892e-09
3.12384e-08
-2.38507e-09
3.05535e-08
-2.54298e-09
-2.65579e-09
2.98625e-08
7.72583e-08
8.18246e-08
7.55037e-08
4.93381e-08
6.55068e-08
2.87389e-08
5.75362e-08
1.73178e-08
5.20586e-08
1.088e-08
4.83331e-08
7.03748e-09
4.57324e-08
4.58656e-09
4.38442e-08
2.92183e-09
4.24086e-08
1.72843e-09
4.1264e-08
8.35337e-10
4.03056e-08
1.44991e-10
3.9454e-08
-3.92397e-10
3.86629e-08
-8.20378e-10
3.79047e-08
-1.16381e-09
3.71632e-08
-1.43733e-09
3.64296e-08
-1.65155e-09
3.57014e-08
-1.81476e-09
-1.93388e-09
3.49795e-08
3.59713e-08
4.58532e-08
5.01607e-08
3.51488e-08
5.38602e-08
2.50394e-08
5.37032e-08
1.74749e-08
5.24026e-08
1.21806e-08
5.09263e-08
8.5138e-09
4.95698e-08
5.94302e-09
4.83893e-08
4.10234e-09
4.73642e-08
2.75352e-09
4.64562e-08
1.74335e-09
4.56285e-08
9.72681e-10
4.48596e-08
3.76482e-10
4.4127e-08
-8.77326e-11
4.34101e-08
-4.46985e-10
4.27015e-08
-7.28652e-10
4.19976e-08
-9.47702e-10
4.12984e-08
-1.11551e-09
-1.24105e-09
4.06055e-08
1.43241e-08
3.15292e-08
2.33076e-08
2.61653e-08
2.81117e-08
2.02353e-08
3.04598e-08
1.51268e-08
3.15073e-08
1.11331e-08
3.1893e-08
8.1281e-09
3.19446e-08
5.89143e-09
3.18243e-08
4.22261e-09
3.16111e-08
2.96668e-09
3.13433e-08
2.01122e-09
3.10393e-08
1.27664e-09
3.07089e-08
7.06875e-10
3.0359e-08
2.62231e-10
2.99965e-08
-8.44923e-11
2.96203e-08
-3.52538e-10
2.92341e-08
-5.61448e-10
2.88412e-08
-7.22614e-10
-8.44922e-10
2.84451e-08
8.57457e-09
2.29546e-08
1.49624e-08
1.97775e-08
1.91984e-08
1.59992e-08
2.18548e-08
1.24704e-08
2.34758e-08
9.51208e-09
2.44463e-08
7.15762e-09
2.501e-08
5.32777e-09
2.53148e-08
3.91784e-09
2.54495e-08
2.83196e-09
2.54681e-08
1.9926e-09
2.54043e-08
1.34046e-09
2.52799e-08
8.31243e-10
2.511e-08
4.32147e-10
2.49067e-08
1.18842e-10
2.46791e-08
-1.25018e-10
2.4432e-08
-3.14316e-10
2.41707e-08
-4.61316e-10
-5.7406e-10
2.38998e-08
5.78122e-09
1.71734e-08
1.04603e-08
1.50983e-08
1.39174e-08
1.25422e-08
1.63503e-08
1.00375e-08
1.80208e-08
7.84152e-09
1.91524e-08
6.02606e-09
1.99089e-08
4.57121e-09
2.04036e-08
3.42316e-09
2.07127e-08
2.52282e-09
2.08878e-08
1.81754e-09
2.0964e-08
1.26424e-09
2.09661e-08
8.29169e-10
2.09118e-08
4.86414e-10
2.08145e-08
2.162e-10
2.0686e-08
3.43175e-12
2.05328e-08
-1.61106e-10
2.03611e-08
-2.89611e-10
-3.88993e-10
2.01761e-08
4.20322e-09
1.29701e-08
7.76166e-09
1.15399e-08
1.05579e-08
9.74589e-09
1.26598e-08
7.93565e-09
1.42001e-08
6.30121e-09
1.53116e-08
4.91458e-09
1.61037e-08
3.77915e-09
1.66594e-08
2.86745e-09
1.70395e-08
2.14268e-09
1.72881e-08
1.56893e-09
1.74372e-08
1.1152e-09
1.75101e-08
7.56229e-10
1.75245e-08
4.72046e-10
1.74936e-08
2.47071e-10
1.74279e-08
6.9205e-11
1.73366e-08
-6.98721e-11
1.72252e-08
-1.78151e-10
-2.62408e-10
1.70986e-08
3.21168e-09
9.75846e-09
6.00367e-09
8.74792e-09
8.28188e-09
7.46768e-09
1.00659e-08
6.15163e-09
1.14271e-08
4.94004e-09
1.24479e-08
3.89376e-09
1.32031e-08
3.02392e-09
1.37539e-08
2.31669e-09
1.41478e-08
1.74876e-09
1.44212e-08
1.29555e-09
1.46015e-08
9.34869e-10
1.47097e-08
6.48058e-10
1.47617e-08
4.20046e-10
1.47699e-08
2.38875e-10
1.47439e-08
9.51373e-11
1.46923e-08
-1.82622e-11
1.46205e-08
-1.06334e-10
-1.75221e-10
1.45333e-08
2.53785e-09
7.22061e-09
4.78077e-09
6.505e-09
6.6554e-09
5.59304e-09
8.16281e-09
4.64423e-09
9.3436e-09
3.75925e-09
1.02517e-08
2.98564e-09
1.094e-08
2.33562e-09
1.14544e-08
1.80234e-09
1.18322e-08
1.37092e-09
1.21032e-08
1.02455e-09
1.22906e-08
7.47517e-10
1.24123e-08
5.26322e-10
1.24825e-08
3.49854e-10
1.25122e-08
2.09194e-10
1.25101e-08
9.72628e-11
1.24833e-08
8.47008e-12
1.24377e-08
-6.06639e-11
-1.14864e-10
1.23773e-08
2.05159e-09
5.16902e-09
3.88418e-09
4.67241e-09
5.44006e-09
4.03717e-09
6.7133e-09
3.37099e-09
7.7284e-09
2.74415e-09
8.52246e-09
2.19159e-09
9.13426e-09
1.72382e-09
9.59901e-09
1.33759e-09
9.9465e-09
1.02342e-09
1.0201e-08
7.70036e-10
1.03819e-08
5.66589e-10
1.05047e-08
4.03604e-10
1.05813e-08
2.7319e-10
1.06216e-08
1.68953e-10
1.0633e-08
8.5778e-11
1.06219e-08
1.95947e-11
1.05935e-08
-3.22479e-11
-7.284e-11
1.05515e-08
1.68346e-09
3.48556e-09
3.19781e-09
3.15806e-09
4.49692e-09
2.73807e-09
5.57261e-09
2.2953e-09
6.44055e-09
1.87621e-09
7.12748e-09
1.50465e-09
7.66284e-09
1.18846e-09
8.07424e-09
9.26186e-10
8.38569e-09
7.11981e-10
8.61711e-09
5.38611e-10
8.78472e-09
3.98982e-10
8.90151e-09
2.86813e-10
8.97787e-09
1.96831e-10
9.02209e-09
1.24735e-10
9.0408e-09
6.7064e-11
9.03934e-09
2.10519e-11
9.02227e-09
-1.51796e-11
-4.34896e-11
8.99292e-09
1.39309e-09
2.09246e-09
2.65213e-09
1.89902e-09
3.73971e-09
1.65049e-09
4.64745e-09
1.38756e-09
5.38595e-09
1.13771e-09
5.97529e-09
9.15315e-10
6.43839e-09
7.25365e-10
6.7973e-09
5.6727e-10
7.07153e-09
4.37758e-10
7.27749e-09
3.32645e-10
7.4287e-09
2.47774e-10
7.53608e-09
1.79432e-10
7.60843e-09
1.24483e-10
7.65281e-09
8.03576e-11
7.67489e-09
4.4979e-11
7.67926e-09
1.66818e-11
7.66978e-09
-5.70279e-12
-2.31066e-11
7.6494e-09
1.15406e-09
9.38406e-10
2.20038e-09
8.5269e-10
3.10846e-09
7.42411e-10
3.87055e-09
6.25468e-10
4.49422e-09
5.14036e-10
4.99496e-09
4.1458e-10
5.39092e-09
3.29405e-10
5.69986e-09
2.58332e-10
5.93765e-09
1.99968e-10
6.1178e-09
1.5249e-10
6.25151e-09
1.14071e-10
6.34787e-09
8.30673e-11
6.41427e-09
5.80873e-11
6.45664e-09
3.79849e-11
6.47979e-09
2.1832e-11
6.48759e-09
8.88037e-12
6.48329e-09
-1.4012e-12
-9.19269e-12
6.46937e-09
9.38406e-10
1.7911e-09
2.53351e-09
3.15898e-09
3.67301e-09
4.08759e-09
4.417e-09
4.67533e-09
4.8753e-09
5.02779e-09
5.14186e-09
5.22492e-09
5.28301e-09
5.321e-09
5.34283e-09
5.35171e-09
5.35031e-09
5.34112e-09
6.71786e-10
-6.71786e-10
1.34303e-09
-6.71239e-10
2.0082e-09
-6.65171e-10
2.6607e-09
-6.52508e-10
3.29236e-09
-6.3166e-10
3.89885e-09
-6.0649e-10
4.47936e-09
-5.80503e-10
5.03616e-09
-5.56805e-10
5.57384e-09
-5.3768e-10
6.09718e-09
-5.23334e-10
6.60878e-09
-5.11601e-10
7.10784e-09
-4.99062e-10
7.59104e-09
-4.83195e-10
8.05463e-09
-4.63589e-10
8.49598e-09
-4.41353e-10
8.9139e-09
-4.17919e-10
9.30808e-09
-3.94183e-10
9.67839e-09
-3.70306e-10
1.00245e-08
-3.46079e-10
1.03459e-08
-3.21389e-10
1.06422e-08
-2.96347e-10
1.09134e-08
-2.7119e-10
1.11595e-08
-2.46152e-10
1.1381e-08
-2.21422e-10
1.15781e-08
-1.97157e-10
1.17516e-08
-1.73504e-10
1.19022e-08
-1.50608e-10
1.20308e-08
-1.28614e-10
1.21385e-08
-1.07671e-10
1.22264e-08
-8.79204e-11
1.22959e-08
-6.94878e-11
1.23484e-08
-5.24726e-11
1.23853e-08
-3.69423e-11
1.24083e-08
-2.29296e-11
1.24187e-08
-1.04318e-11
1.24181e-08
5.85143e-13
1.24079e-08
1.01829e-11
1.23895e-08
1.84438e-11
1.2364e-08
2.54656e-11
1.23327e-08
3.13541e-11
1.22965e-08
3.62196e-11
1.22563e-08
4.01716e-11
1.2213e-08
4.33161e-11
1.21672e-08
4.57527e-11
1.21196e-08
4.75749e-11
1.20708e-08
4.88667e-11
1.20211e-08
4.9705e-11
1.19709e-08
5.0158e-11
1.19206e-08
5.02863e-11
1.18705e-08
5.01425e-11
1.18207e-08
4.97733e-11
1.17715e-08
4.92186e-11
1.1723e-08
4.85132e-11
1.16753e-08
4.76864e-11
1.16285e-08
4.6764e-11
1.15828e-08
4.57675e-11
1.1538e-08
4.47148e-11
1.14944e-08
4.36221e-11
1.14519e-08
4.25019e-11
1.14106e-08
4.13655e-11
1.13703e-08
4.0222e-11
1.13313e-08
3.90791e-11
1.12933e-08
3.79433e-11
1.12565e-08
3.682e-11
1.12208e-08
3.57135e-11
1.11861e-08
3.46274e-11
1.11526e-08
3.35649e-11
1.11201e-08
3.25281e-11
1.10885e-08
3.15189e-11
1.1058e-08
3.05392e-11
1.10284e-08
2.95894e-11
1.09997e-08
2.86709e-11
1.0972e-08
2.7784e-11
1.0945e-08
2.6929e-11
1.09189e-08
2.61062e-11
1.08936e-08
2.53153e-11
1.0869e-08
2.45564e-11
1.08452e-08
2.38289e-11
1.08221e-08
2.31327e-11
1.07996e-08
2.2467e-11
1.07778e-08
2.18316e-11
1.07566e-08
2.12257e-11
1.07359e-08
2.06485e-11
1.07158e-08
2.00995e-11
1.06962e-08
1.95779e-11
1.06771e-08
1.9083e-11
1.06585e-08
1.8614e-11
1.06404e-08
1.81702e-11
1.06226e-08
1.77506e-11
1.06053e-08
1.73546e-11
1.05883e-08
1.69815e-11
1.05716e-08
1.66303e-11
1.05553e-08
1.63004e-11
1.05394e-08
1.59908e-11
1.05237e-08
1.57012e-11
1.05082e-08
1.54304e-11
1.0493e-08
1.51778e-11
1.04781e-08
1.49429e-11
1.04634e-08
1.47248e-11
1.04489e-08
1.45229e-11
1.04345e-08
1.43365e-11
1.04204e-08
1.41651e-11
1.04063e-08
1.40078e-11
1.03925e-08
1.38644e-11
1.03787e-08
1.37339e-11
1.03651e-08
1.3616e-11
1.03516e-08
1.35101e-11
1.03382e-08
1.34156e-11
1.03249e-08
1.3332e-11
1.03116e-08
1.32589e-11
1.02984e-08
1.31958e-11
1.02853e-08
1.31423e-11
1.02722e-08
1.30977e-11
1.02591e-08
1.30618e-11
1.02461e-08
1.30342e-11
1.02331e-08
1.30145e-11
1.02201e-08
1.30021e-11
1.02071e-08
1.29971e-11
1.01941e-08
1.29986e-11
1.01811e-08
1.30069e-11
1.0168e-08
1.3021e-11
1.0155e-08
1.30412e-11
1.01419e-08
1.30669e-11
1.01288e-08
1.3098e-11
1.01157e-08
1.31341e-11
1.01025e-08
1.31748e-11
1.00893e-08
1.32204e-11
1.0076e-08
1.32702e-11
1.00627e-08
1.33241e-11
1.00493e-08
1.33821e-11
1.00359e-08
1.34437e-11
1.00224e-08
1.35091e-11
1.00088e-08
1.35777e-11
9.99515e-09
1.36498e-11
9.98143e-09
1.3725e-11
9.96762e-09
1.38033e-11
9.95374e-09
1.38843e-11
9.93977e-09
1.39684e-11
9.92572e-09
1.40551e-11
9.91157e-09
1.41445e-11
9.89734e-09
1.42365e-11
9.883e-09
1.43311e-11
9.86858e-09
1.44284e-11
9.85405e-09
1.45282e-11
9.83942e-09
1.46308e-11
9.82468e-09
1.4736e-11
9.80984e-09
1.48442e-11
9.79488e-09
1.49555e-11
9.77981e-09
1.50703e-11
9.76462e-09
1.51889e-11
9.74931e-09
1.53117e-11
9.73387e-09
1.54394e-11
9.7183e-09
1.55729e-11
9.70258e-09
1.57132e-11
9.68672e-09
1.58616e-11
9.6707e-09
1.602e-11
9.65451e-09
1.61908e-11
9.63814e-09
1.63768e-11
9.62155e-09
1.65817e-11
9.60474e-09
1.68105e-11
9.58767e-09
1.70697e-11
9.57031e-09
1.73673e-11
9.55259e-09
1.77144e-11
9.53447e-09
1.81251e-11
9.51585e-09
1.86183e-11
9.49663e-09
1.92192e-11
9.47667e-09
1.99612e-11
9.45578e-09
2.08906e-11
9.43371e-09
2.20708e-11
9.41012e-09
2.35907e-11
9.38454e-09
2.55785e-11
9.35631e-09
2.82235e-11
9.3245e-09
3.18157e-11
9.28768e-09
3.68214e-11
9.24364e-09
4.40378e-11
9.18869e-09
5.49472e-11
9.11604e-09
7.26502e-11
9.01119e-09
1.04848e-10
8.83493e-09
1.76262e-10
4.00958e-10
8.43397e-09
6.95164e-10
-1.36695e-09
1.39048e-09
-1.36656e-09
2.08344e-09
-1.35813e-09
2.76949e-09
-1.33856e-09
3.41705e-09
-1.27921e-09
4.02419e-09
-1.21363e-09
4.59257e-09
-1.14888e-09
5.12847e-09
-1.09271e-09
5.64519e-09
-1.0544e-09
6.15677e-09
-1.03491e-09
6.67013e-09
-1.02497e-09
7.18037e-09
-1.0093e-09
7.67583e-09
-9.78651e-10
8.14713e-09
-9.3489e-10
8.59072e-09
-8.8494e-10
9.00758e-09
-8.34785e-10
9.40016e-09
-7.86757e-10
9.76958e-09
-7.39731e-10
1.01152e-08
-6.91663e-10
1.04357e-08
-6.41901e-10
1.07304e-08
-5.91045e-10
1.09992e-08
-5.40006e-10
1.12424e-08
-4.89399e-10
1.14605e-08
-4.39529e-10
1.1654e-08
-3.90649e-10
1.18236e-08
-3.43025e-10
1.19699e-08
-2.96926e-10
1.20939e-08
-2.5265e-10
1.21968e-08
-2.10513e-10
1.22797e-08
-1.70825e-10
1.2344e-08
-1.33859e-10
1.23914e-08
-9.9825e-11
1.24233e-08
-6.88598e-11
1.24414e-08
-4.1021e-11
1.24473e-08
-1.62893e-11
1.24424e-08
5.42227e-12
1.24283e-08
2.42562e-11
1.24064e-08
4.03961e-11
1.23778e-08
5.4053e-11
1.23437e-08
6.54531e-11
1.23051e-08
7.48259e-11
1.22629e-08
8.23973e-11
1.22178e-08
8.83828e-11
1.21706e-08
9.29841e-11
1.21218e-08
9.63866e-11
1.20719e-08
9.87589e-11
1.20213e-08
1.00252e-10
1.19705e-08
1.01e-10
1.19196e-08
1.01121e-10
1.18691e-08
1.00719e-10
1.1819e-08
9.98835e-11
1.17695e-08
9.8693e-11
1.17208e-08
9.72146e-11
1.1673e-08
9.55053e-11
1.16261e-08
9.36145e-11
1.15803e-08
9.15836e-11
1.15356e-08
8.94481e-11
1.14919e-08
8.72377e-11
1.14495e-08
8.49777e-11
1.14081e-08
8.26893e-11
1.1368e-08
8.03899e-11
1.1329e-08
7.80948e-11
1.12911e-08
7.58162e-11
1.12543e-08
7.35644e-11
1.12187e-08
7.13479e-11
1.11842e-08
6.91735e-11
1.11507e-08
6.70472e-11
1.11182e-08
6.49732e-11
1.10868e-08
6.29555e-11
1.10563e-08
6.09965e-11
1.10268e-08
5.90987e-11
1.09982e-08
5.72634e-11
1.09705e-08
5.54916e-11
1.09437e-08
5.37841e-11
1.09176e-08
5.21407e-11
1.08924e-08
5.05616e-11
1.08679e-08
4.90462e-11
1.08441e-08
4.75941e-11
1.08211e-08
4.62041e-11
1.07987e-08
4.48757e-11
1.07769e-08
4.36073e-11
1.07557e-08
4.2398e-11
1.07351e-08
4.12462e-11
1.07151e-08
4.01508e-11
1.06955e-08
3.91101e-11
1.06765e-08
3.81227e-11
1.06579e-08
3.71869e-11
1.06398e-08
3.63015e-11
1.06221e-08
3.54644e-11
1.06048e-08
3.46746e-11
1.05878e-08
3.39302e-11
1.05712e-08
3.32297e-11
1.05549e-08
3.25716e-11
1.0539e-08
3.19543e-11
1.05233e-08
3.13764e-11
1.05079e-08
3.08364e-11
1.04927e-08
3.0333e-11
1.04778e-08
2.98643e-11
1.04631e-08
2.94296e-11
1.04486e-08
2.9027e-11
1.04343e-08
2.86555e-11
1.04201e-08
2.83136e-11
1.04061e-08
2.80003e-11
1.03923e-08
2.77143e-11
1.03786e-08
2.74544e-11
1.0365e-08
2.72194e-11
1.03515e-08
2.70084e-11
1.03381e-08
2.68202e-11
1.03247e-08
2.66538e-11
1.03115e-08
2.65084e-11
1.02983e-08
2.63828e-11
1.02852e-08
2.62762e-11
1.02721e-08
2.61876e-11
1.0259e-08
2.61166e-11
1.0246e-08
2.60617e-11
1.0233e-08
2.60227e-11
1.022e-08
2.59987e-11
1.0207e-08
2.59887e-11
1.0194e-08
2.59924e-11
1.0181e-08
2.60091e-11
1.0168e-08
2.6038e-11
1.0155e-08
2.60786e-11
1.01419e-08
2.61303e-11
1.01288e-08
2.61926e-11
1.01157e-08
2.6265e-11
1.01025e-08
2.63471e-11
1.00893e-08
2.64381e-11
1.0076e-08
2.65379e-11
1.00627e-08
2.66461e-11
1.00493e-08
2.67621e-11
1.00359e-08
2.68856e-11
1.00224e-08
2.70164e-11
1.00088e-08
2.71539e-11
9.99514e-09
2.72981e-11
9.98141e-09
2.74487e-11
9.96761e-09
2.76051e-11
9.95373e-09
2.77676e-11
9.93976e-09
2.79356e-11
9.92571e-09
2.81091e-11
9.91156e-09
2.8288e-11
9.89733e-09
2.84722e-11
9.883e-09
2.86614e-11
9.86857e-09
2.88559e-11
9.85404e-09
2.90555e-11
9.83941e-09
2.92607e-11
9.82468e-09
2.94712e-11
9.80984e-09
2.96877e-11
9.79488e-09
2.99102e-11
9.77981e-09
3.01396e-11
9.76462e-09
3.03766e-11
9.74931e-09
3.0622e-11
9.73388e-09
3.08773e-11
9.7183e-09
3.11438e-11
9.70259e-09
3.14241e-11
9.68673e-09
3.17206e-11
9.67072e-09
3.2037e-11
9.65453e-09
3.23777e-11
9.63816e-09
3.27486e-11
9.62158e-09
3.31572e-11
9.60478e-09
3.36133e-11
9.58772e-09
3.41296e-11
9.57037e-09
3.47223e-11
9.55267e-09
3.54131e-11
9.53456e-09
3.62302e-11
9.51597e-09
3.72108e-11
9.49678e-09
3.84049e-11
9.47687e-09
3.9879e-11
9.45603e-09
4.17241e-11
9.43404e-09
4.40651e-11
9.41055e-09
4.70778e-11
9.38512e-09
5.10138e-11
9.3571e-09
5.62433e-11
9.32558e-09
6.33318e-11
9.28922e-09
7.31804e-11
9.24595e-09
8.73125e-11
9.19239e-09
1.08506e-10
9.12267e-09
1.42371e-10
9.02566e-09
2.01852e-10
8.87969e-09
3.22233e-10
6.16346e-10
8.6643e-09
7.39334e-10
-2.10628e-09
1.46949e-09
-2.09671e-09
2.20925e-09
-2.0979e-09
3.06349e-09
-2.1928e-09
3.73124e-09
-1.94697e-09
4.32809e-09
-1.81048e-09
4.85475e-09
-1.67554e-09
5.31303e-09
-1.55099e-09
5.75112e-09
-1.49249e-09
6.22299e-09
-1.50678e-09
6.75669e-09
-1.55867e-09
7.32147e-09
-1.57408e-09
7.86247e-09
-1.51965e-09
8.35227e-09
-1.4247e-09
8.79207e-09
-1.32473e-09
9.19692e-09
-1.23964e-09
9.58174e-09
-1.17157e-09
9.95063e-09
-1.10862e-09
1.02978e-08
-1.03886e-09
1.06178e-08
-9.61927e-10
1.0909e-08
-8.82242e-10
1.11725e-08
-8.03417e-10
1.14095e-08
-7.26415e-10
1.16207e-08
-6.50794e-10
1.18068e-08
-5.76702e-10
1.19683e-08
-5.04519e-10
1.2106e-08
-4.346e-10
1.22207e-08
-3.67403e-10
1.23137e-08
-3.035e-10
1.23863e-08
-2.43449e-10
1.24402e-08
-1.87724e-10
1.2477e-08
-1.3667e-10
1.24987e-08
-9.04911e-11
1.25069e-08
-4.92456e-11
1.25035e-08
-1.28611e-11
1.249e-08
1.88453e-11
1.24682e-08
4.61419e-11
1.24392e-08
6.93545e-11
1.24044e-08
8.88423e-11
1.23649e-08
1.04977e-10
1.23216e-08
1.18128e-10
1.22753e-08
1.28647e-10
1.22268e-08
1.36866e-10
1.21767e-08
1.4309e-10
1.21255e-08
1.47596e-10
1.20737e-08
1.50633e-10
1.20215e-08
1.5242e-10
1.19693e-08
1.53154e-10
1.19175e-08
1.53004e-10
1.1866e-08
1.52121e-10
1.18153e-08
1.50632e-10
1.17653e-08
1.48649e-10
1.17163e-08
1.46268e-10
1.16682e-08
1.43568e-10
1.16212e-08
1.40621e-10
1.15753e-08
1.37483e-10
1.15306e-08
1.34206e-10
1.1487e-08
1.30831e-10
1.14446e-08
1.27393e-10
1.14033e-08
1.23923e-10
1.13633e-08
1.20445e-10
1.13244e-08
1.1698e-10
1.12867e-08
1.13545e-10
1.12501e-08
1.10155e-10
1.12146e-08
1.06822e-10
1.11802e-08
1.03555e-10
1.11469e-08
1.00363e-10
1.11146e-08
9.72515e-11
1.10833e-08
9.4226e-11
1.1053e-08
9.12904e-11
1.10237e-08
8.84472e-11
1.09953e-08
8.56987e-11
1.09677e-08
8.30464e-11
1.0941e-08
8.04907e-11
1.09151e-08
7.80319e-11
1.089e-08
7.56696e-11
1.08656e-08
7.34031e-11
1.0842e-08
7.12315e-11
1.08191e-08
6.91534e-11
1.07968e-08
6.71674e-11
1.07751e-08
6.52715e-11
1.0754e-08
6.34641e-11
1.07335e-08
6.17429e-11
1.07136e-08
6.0106e-11
1.06941e-08
5.85509e-11
1.06752e-08
5.70757e-11
1.06567e-08
5.56778e-11
1.06386e-08
5.4355e-11
1.0621e-08
5.3105e-11
1.06038e-08
5.19252e-11
1.05869e-08
5.08135e-11
1.05703e-08
4.97674e-11
1.05541e-08
4.87846e-11
1.05382e-08
4.78631e-11
1.05226e-08
4.70003e-11
1.05072e-08
4.61942e-11
1.04921e-08
4.54425e-11
1.04772e-08
4.47432e-11
1.04626e-08
4.40942e-11
1.04481e-08
4.34936e-11
1.04338e-08
4.29392e-11
1.04197e-08
4.24293e-11
1.04058e-08
4.19619e-11
1.03919e-08
4.15354e-11
1.03782e-08
4.11478e-11
1.03647e-08
4.07977e-11
1.03512e-08
4.04832e-11
1.03378e-08
4.0203e-11
1.03245e-08
3.99553e-11
1.03113e-08
3.97387e-11
1.02981e-08
3.9552e-11
1.0285e-08
3.93937e-11
1.02719e-08
3.92623e-11
1.02589e-08
3.91569e-11
1.02459e-08
3.90761e-11
1.02329e-08
3.90188e-11
1.02199e-08
3.89837e-11
1.02069e-08
3.897e-11
1.01939e-08
3.89765e-11
1.01809e-08
3.90023e-11
1.01679e-08
3.90465e-11
1.01549e-08
3.91083e-11
1.01418e-08
3.91865e-11
1.01287e-08
3.92808e-11
1.01156e-08
3.93899e-11
1.01024e-08
3.95135e-11
1.00892e-08
3.96508e-11
1.0076e-08
3.9801e-11
1.00626e-08
3.99636e-11
1.00493e-08
4.01381e-11
1.00358e-08
4.03237e-11
1.00223e-08
4.05202e-11
1.00088e-08
4.0727e-11
9.99511e-09
4.09436e-11
9.98139e-09
4.11695e-11
9.96759e-09
4.14047e-11
9.95371e-09
4.16485e-11
9.93974e-09
4.19008e-11
9.92569e-09
4.21612e-11
9.91155e-09
4.24296e-11
9.89732e-09
4.27059e-11
9.88299e-09
4.299e-11
9.86856e-09
4.32818e-11
9.85404e-09
4.35813e-11
9.83941e-09
4.3889e-11
9.82467e-09
4.42048e-11
9.80983e-09
4.45292e-11
9.79488e-09
4.4863e-11
9.77981e-09
4.52069e-11
9.76463e-09
4.5562e-11
9.74932e-09
4.59298e-11
9.73388e-09
4.6312e-11
9.71832e-09
4.67113e-11
9.70261e-09
4.71307e-11
9.68676e-09
4.75743e-11
9.67075e-09
4.80474e-11
9.65457e-09
4.85566e-11
9.63821e-09
4.91105e-11
9.62164e-09
4.97204e-11
9.60485e-09
5.04007e-11
9.58781e-09
5.117e-11
9.57048e-09
5.20527e-11
9.55282e-09
5.30807e-11
9.53475e-09
5.42955e-11
9.51621e-09
5.57525e-11
9.49709e-09
5.75246e-11
9.47726e-09
5.97107e-11
9.45654e-09
6.24442e-11
9.43469e-09
6.59085e-11
9.41141e-09
7.03606e-11
9.38626e-09
7.61669e-11
9.35864e-09
8.3864e-11
9.32771e-09
9.42633e-11
9.29224e-09
1.08644e-10
9.25042e-09
1.2913e-10
9.19945e-09
1.59483e-10
9.13489e-09
2.06931e-10
9.05001e-09
2.86734e-10
8.93812e-09
4.34119e-10
7.31676e-10
8.82279e-09
7.81834e-10
-2.88812e-09
1.47133e-09
-2.78621e-09
1.83326e-09
-2.45982e-09
4.14345e-09
-4.50299e-09
4.35209e-09
-2.15561e-09
4.93653e-09
-2.39492e-09
5.41245e-09
-2.15146e-09
5.59335e-09
-1.73189e-09
5.73659e-09
-1.63574e-09
6.06105e-09
-1.83124e-09
6.73685e-09
-2.23446e-09
7.56535e-09
-2.40259e-09
8.25191e-09
-2.20621e-09
8.75198e-09
-1.92476e-09
9.12974e-09
-1.7025e-09
9.46684e-09
-1.57675e-09
9.82757e-09
-1.5323e-09
1.02141e-08
-1.49513e-09
1.05794e-08
-1.40423e-09
1.09023e-08
-1.2848e-09
1.11844e-08
-1.16429e-09
1.14358e-08
-1.05481e-09
1.16625e-08
-9.53142e-10
1.18633e-08
-8.51619e-10
1.20381e-08
-7.51458e-10
1.21876e-08
-6.54005e-10
1.23122e-08
-5.59299e-10
1.24128e-08
-4.67942e-10
1.24904e-08
-3.81158e-10
1.25469e-08
-2.99944e-10
1.25843e-08
-2.25065e-10
1.26046e-08
-1.57022e-10
1.26102e-08
-9.60587e-11
1.26031e-08
-4.21746e-11
1.25854e-08
4.83556e-12
1.25589e-08
4.5336e-11
1.25253e-08
7.98018e-11
1.24859e-08
1.0877e-10
1.24419e-08
1.32803e-10
1.23944e-08
1.52457e-10
1.23443e-08
1.68261e-10
1.22922e-08
1.8071e-10
1.22388e-08
1.90254e-10
1.21846e-08
1.973e-10
1.213e-08
2.02209e-10
1.20753e-08
2.05303e-10
1.20209e-08
2.06864e-10
1.19669e-08
2.07139e-10
1.19136e-08
2.06343e-10
1.1861e-08
2.04661e-10
1.18094e-08
2.02253e-10
1.17588e-08
1.99256e-10
1.17093e-08
1.95787e-10
1.16609e-08
1.91947e-10
1.16137e-08
1.87818e-10
1.15677e-08
1.83473e-10
1.1523e-08
1.78973e-10
1.14794e-08
1.74368e-10
1.14371e-08
1.697e-10
1.1396e-08
1.65007e-10
1.13562e-08
1.60318e-10
1.13175e-08
1.55658e-10
1.128e-08
1.51049e-10
1.12436e-08
1.46508e-10
1.12084e-08
1.4205e-10
1.11743e-08
1.37686e-10
1.11412e-08
1.33426e-10
1.11092e-08
1.29277e-10
1.10782e-08
1.25246e-10
1.10481e-08
1.21337e-10
1.1019e-08
1.17553e-10
1.09908e-08
1.13898e-10
1.09635e-08
1.10371e-10
1.0937e-08
1.06974e-10
1.09113e-08
1.03708e-10
1.08864e-08
1.0057e-10
1.08623e-08
9.75605e-11
1.08388e-08
9.46778e-11
1.0816e-08
9.19196e-11
1.07939e-08
8.92842e-11
1.07724e-08
8.67687e-11
1.07515e-08
8.4371e-11
1.07312e-08
8.20882e-11
1.07114e-08
7.99171e-11
1.06921e-08
7.78554e-11
1.06732e-08
7.58992e-11
1.06549e-08
7.40462e-11
1.06369e-08
7.22925e-11
1.06194e-08
7.06357e-11
1.06023e-08
6.90722e-11
1.05855e-08
6.75989e-11
1.0569e-08
6.62128e-11
1.05529e-08
6.49109e-11
1.05371e-08
6.36901e-11
1.05215e-08
6.25471e-11
1.05062e-08
6.14794e-11
1.04912e-08
6.04841e-11
1.04764e-08
5.95583e-11
1.04618e-08
5.8699e-11
1.04474e-08
5.7904e-11
1.04331e-08
5.71703e-11
1.04191e-08
5.64957e-11
1.04052e-08
5.58775e-11
1.03914e-08
5.53134e-11
1.03777e-08
5.48011e-11
1.03642e-08
5.43383e-11
1.03507e-08
5.3923e-11
1.03374e-08
5.35529e-11
1.03241e-08
5.32262e-11
1.03109e-08
5.29408e-11
1.02978e-08
5.26948e-11
1.02847e-08
5.24866e-11
1.02716e-08
5.23143e-11
1.02586e-08
5.21761e-11
1.02456e-08
5.20707e-11
1.02326e-08
5.19965e-11
1.02197e-08
5.19518e-11
1.02067e-08
5.19354e-11
1.01937e-08
5.1946e-11
1.01808e-08
5.19821e-11
1.01678e-08
5.20425e-11
1.01547e-08
5.21264e-11
1.01417e-08
5.22321e-11
1.01286e-08
5.23589e-11
1.01155e-08
5.25058e-11
1.01024e-08
5.26716e-11
1.00891e-08
5.28557e-11
1.00759e-08
5.30568e-11
1.00626e-08
5.32746e-11
1.00492e-08
5.3508e-11
1.00358e-08
5.37564e-11
1.00223e-08
5.4019e-11
1.00087e-08
5.42953e-11
9.99507e-09
5.45847e-11
9.98135e-09
5.48865e-11
9.96756e-09
5.52005e-11
9.95368e-09
5.5526e-11
9.93972e-09
5.58627e-11
9.92567e-09
5.62103e-11
9.91153e-09
5.65686e-11
9.8973e-09
5.69371e-11
9.88297e-09
5.7316e-11
9.86855e-09
5.77052e-11