/*--------------------------------*- C++ -*----------------------------------*\
  =========                 |
  \\      /  F ield         | OpenFOAM: The Open Source CFD Toolbox
   \\    /   O peration     | Website:  https://openfoam.org
    \\  /    A nd           | Version:  10
     \\/     M anipulation  |
\*---------------------------------------------------------------------------*/
FoamFile
{
    format      ascii;
    class       volVectorField;
    location    "22200";
    object      Ub;
}
// * * * * * * * * * * * * * * * * * * * * * * * * * * * * * * * * * * * * * //

dimensions      [0 1 -1 0 0 0 0];

internalField   nonuniform List<vector> 
6400
(
(-4.05911e-08 -1.06825e-15 0)
(-5.92308e-05 -2.70464e-05 0)
(-0.000120697 -6.03893e-07 0)
(-0.000115925 -1.69022e-06 0)
(-0.000108342 -2.2151e-07 0)
(-0.000106937 -2.61628e-07 0)
(-0.000105564 -1.48772e-07 0)
(-0.000104012 -2.63517e-07 0)
(-0.000102584 -1.02718e-07 0)
(-0.000103454 2.17302e-07 0)
(-0.000104459 -6.55319e-08 0)
(-0.000103866 -1.00364e-07 0)
(-0.000102615 -1.93602e-07 0)
(-0.000101227 -1.23895e-07 0)
(-0.000100327 -9.08829e-08 0)
(-9.93908e-05 -1.28424e-07 0)
(-9.83353e-05 -1.12767e-07 0)
(-9.72564e-05 -1.31146e-07 0)
(-9.56176e-05 -2.24859e-07 0)
(-9.38192e-05 -1.62128e-07 0)
(-9.25663e-05 -1.12713e-07 0)
(-9.15083e-05 -1.21397e-07 0)
(-9.01231e-05 -1.78234e-07 0)
(-8.86027e-05 -1.4805e-07 0)
(-8.7318e-05 -1.29585e-07 0)
(-8.59402e-05 -1.6628e-07 0)
(-8.40118e-05 -2.40927e-07 0)
(-8.18425e-05 -2.14707e-07 0)
(-7.99514e-05 -1.83915e-07 0)
(-7.80241e-05 -2.21656e-07 0)
(-7.51766e-05 -3.70581e-07 0)
(-7.02181e-05 -6.50418e-07 0)
(-6.50333e-05 -9.28743e-07 0)
(-6.05288e-05 -1.144e-06 0)
(-5.49635e-05 -1.41387e-06 0)
(-4.81005e-05 -1.73737e-06 0)
(-3.97484e-05 -2.09483e-06 0)
(-2.98495e-05 -2.44478e-06 0)
(-1.85635e-05 -2.72914e-06 0)
(-6.30481e-06 -2.88963e-06 0)
(6.30481e-06 -2.88963e-06 0)
(1.85635e-05 -2.72914e-06 0)
(2.98495e-05 -2.44478e-06 0)
(3.97484e-05 -2.09483e-06 0)
(4.81005e-05 -1.73737e-06 0)
(5.49635e-05 -1.41387e-06 0)
(6.05288e-05 -1.144e-06 0)
(6.50333e-05 -9.28743e-07 0)
(7.02181e-05 -6.50418e-07 0)
(7.51766e-05 -3.70581e-07 0)
(7.80241e-05 -2.21656e-07 0)
(7.99514e-05 -1.83915e-07 0)
(8.18425e-05 -2.14707e-07 0)
(8.40118e-05 -2.40927e-07 0)
(8.59402e-05 -1.6628e-07 0)
(8.7318e-05 -1.29585e-07 0)
(8.86027e-05 -1.4805e-07 0)
(9.01231e-05 -1.78234e-07 0)
(9.15083e-05 -1.21397e-07 0)
(9.25663e-05 -1.12713e-07 0)
(9.38192e-05 -1.62128e-07 0)
(9.56176e-05 -2.24859e-07 0)
(9.72564e-05 -1.31146e-07 0)
(9.83353e-05 -1.12767e-07 0)
(9.93908e-05 -1.28424e-07 0)
(0.000100327 -9.08829e-08 0)
(0.000101227 -1.23895e-07 0)
(0.000102615 -1.93602e-07 0)
(0.000103866 -1.00364e-07 0)
(0.000104459 -6.55319e-08 0)
(0.000103454 2.17302e-07 0)
(0.000102584 -1.02718e-07 0)
(0.000104012 -2.63517e-07 0)
(0.000105564 -1.48772e-07 0)
(0.000106937 -2.61628e-07 0)
(0.000108342 -2.2151e-07 0)
(0.000115925 -1.69022e-06 0)
(0.000120697 -6.03893e-07 0)
(5.92308e-05 -2.70464e-05 0)
(4.05911e-08 -1.06825e-15 0)
(-1.10447e-19 -9.87853e-16 0)
(-9.00176e-20 -9.84801e-16 0)
(-2.9189e-05 -2.00488e-09 0)
(-7.81916e-05 -1.56631e-06 0)
(-0.000100206 -1.65679e-07 0)
(-0.000102136 -6.031e-07 0)
(-0.00010176 -3.18262e-07 0)
(-0.000100712 -7.3067e-07 0)
(-9.95192e-05 -2.53536e-07 0)
(-0.000100654 7.50021e-07 0)
(-0.00010185 -1.66224e-07 0)
(-0.000101345 -2.6561e-07 0)
(-0.000100194 -5.67682e-07 0)
(-9.88873e-05 -3.48237e-07 0)
(-9.80947e-05 -2.48473e-07 0)
(-9.72377e-05 -3.72385e-07 0)
(-9.62485e-05 -3.2237e-07 0)
(-9.52572e-05 -3.78818e-07 0)
(-9.36714e-05 -6.79606e-07 0)
(-9.1911e-05 -4.80109e-07 0)
(-9.07268e-05 -3.27251e-07 0)
(-8.97376e-05 -3.55487e-07 0)
(-8.83936e-05 -5.37676e-07 0)
(-8.69064e-05 -4.4098e-07 0)
(-8.56783e-05 -3.82856e-07 0)
(-8.43622e-05 -4.97232e-07 0)
(-8.24705e-05 -7.34089e-07 0)
(-8.03313e-05 -6.49403e-07 0)
(-7.84996e-05 -5.51675e-07 0)
(-7.66553e-05 -6.66232e-07 0)
(-7.39188e-05 -1.12403e-06 0)
(-6.91057e-05 -1.98686e-06 0)
(-6.40603e-05 -2.83821e-06 0)
(-5.96845e-05 -3.49831e-06 0)
(-5.42706e-05 -4.32927e-06 0)
(-4.75717e-05 -5.32966e-06 0)
(-3.93806e-05 -6.43977e-06 0)
(-2.96224e-05 -7.53065e-06 0)
(-1.84463e-05 -8.4197e-06 0)
(-6.2695e-06 -8.92237e-06 0)
(6.2695e-06 -8.92237e-06 0)
(1.84463e-05 -8.4197e-06 0)
(2.96224e-05 -7.53065e-06 0)
(3.93806e-05 -6.43977e-06 0)
(4.75717e-05 -5.32966e-06 0)
(5.42706e-05 -4.32927e-06 0)
(5.96845e-05 -3.49831e-06 0)
(6.40603e-05 -2.83821e-06 0)
(6.91057e-05 -1.98686e-06 0)
(7.39188e-05 -1.12403e-06 0)
(7.66553e-05 -6.66232e-07 0)
(7.84996e-05 -5.51675e-07 0)
(8.03313e-05 -6.49403e-07 0)
(8.24705e-05 -7.34089e-07 0)
(8.43622e-05 -4.97232e-07 0)
(8.56783e-05 -3.82856e-07 0)
(8.69064e-05 -4.4098e-07 0)
(8.83936e-05 -5.37676e-07 0)
(8.97376e-05 -3.55487e-07 0)
(9.07268e-05 -3.27251e-07 0)
(9.1911e-05 -4.80109e-07 0)
(9.36714e-05 -6.79606e-07 0)
(9.52572e-05 -3.78818e-07 0)
(9.62485e-05 -3.2237e-07 0)
(9.72377e-05 -3.72385e-07 0)
(9.80947e-05 -2.48473e-07 0)
(9.88873e-05 -3.48237e-07 0)
(0.000100194 -5.67682e-07 0)
(0.000101345 -2.6561e-07 0)
(0.00010185 -1.66224e-07 0)
(0.000100654 7.50021e-07 0)
(9.95192e-05 -2.53536e-07 0)
(0.000100712 -7.3067e-07 0)
(0.00010176 -3.18262e-07 0)
(0.000102136 -6.031e-07 0)
(0.000100206 -1.65679e-07 0)
(7.81916e-05 -1.56631e-06 0)
(2.9189e-05 -2.00488e-09 0)
(9.00176e-20 -9.84801e-16 0)
(1.10447e-19 -9.87853e-16 0)
(-7.7767e-20 -9.87809e-16 0)
(-5.84142e-20 -9.87572e-16 0)
(6.66207e-20 -9.87604e-16 0)
(-4.43875e-11 -7.73852e-16 0)
(-3.86106e-05 -4.40111e-09 0)
(-8.53258e-05 -3.79589e-07 0)
(-9.546e-05 -2.00407e-07 0)
(-9.70159e-05 -1.18512e-06 0)
(-9.64816e-05 -4.01313e-07 0)
(-9.82223e-05 1.44291e-06 0)
(-9.98059e-05 -3.05242e-07 0)
(-9.93767e-05 -4.24641e-07 0)
(-9.83114e-05 -9.93644e-07 0)
(-9.70497e-05 -5.8081e-07 0)
(-9.63928e-05 -4.05086e-07 0)
(-9.56114e-05 -6.44445e-07 0)
(-9.46714e-05 -5.42989e-07 0)
(-9.37899e-05 -6.33535e-07 0)
(-9.22197e-05 -1.19825e-06 0)
(-9.04414e-05 -8.22179e-07 0)
(-8.93357e-05 -5.50905e-07 0)
(-8.84357e-05 -6.01938e-07 0)
(-8.71099e-05 -9.43007e-07 0)
(-8.5622e-05 -7.57605e-07 0)
(-8.44596e-05 -6.4966e-07 0)
(-8.32222e-05 -8.50729e-07 0)
(-8.13364e-05 -1.28688e-06 0)
(-7.91834e-05 -1.12258e-06 0)
(-7.74172e-05 -9.40592e-07 0)
(-7.56935e-05 -1.13119e-06 0)
(-7.31185e-05 -1.91943e-06 0)
(-6.8488e-05 -3.41695e-06 0)
(-6.36105e-05 -4.86715e-06 0)
(-5.94038e-05 -5.99838e-06 0)
(-5.4185e-05 -7.43575e-06 0)
(-4.7677e-05 -9.18348e-06 0)
(-3.963e-05 -1.11415e-05 0)
(-2.99262e-05 -1.30821e-05 0)
(-1.86924e-05 -1.46745e-05 0)
(-6.36375e-06 -1.55782e-05 0)
(6.36375e-06 -1.55782e-05 0)
(1.86924e-05 -1.46745e-05 0)
(2.99262e-05 -1.30821e-05 0)
(3.963e-05 -1.11415e-05 0)
(4.7677e-05 -9.18348e-06 0)
(5.4185e-05 -7.43575e-06 0)
(5.94038e-05 -5.99838e-06 0)
(6.36105e-05 -4.86715e-06 0)
(6.8488e-05 -3.41695e-06 0)
(7.31185e-05 -1.91943e-06 0)
(7.56935e-05 -1.13119e-06 0)
(7.74172e-05 -9.40592e-07 0)
(7.91834e-05 -1.12258e-06 0)
(8.13364e-05 -1.28688e-06 0)
(8.32222e-05 -8.50729e-07 0)
(8.44596e-05 -6.4966e-07 0)
(8.5622e-05 -7.57605e-07 0)
(8.71099e-05 -9.43007e-07 0)
(8.84357e-05 -6.01938e-07 0)
(8.93357e-05 -5.50905e-07 0)
(9.04414e-05 -8.22179e-07 0)
(9.22197e-05 -1.19825e-06 0)
(9.37899e-05 -6.33535e-07 0)
(9.46714e-05 -5.42989e-07 0)
(9.56114e-05 -6.44445e-07 0)
(9.63928e-05 -4.05086e-07 0)
(9.70497e-05 -5.8081e-07 0)
(9.83114e-05 -9.93644e-07 0)
(9.93767e-05 -4.24641e-07 0)
(9.98059e-05 -3.05242e-07 0)
(9.82223e-05 1.44291e-06 0)
(9.64816e-05 -4.01313e-07 0)
(9.70159e-05 -1.18512e-06 0)
(9.546e-05 -2.00407e-07 0)
(8.53258e-05 -3.79589e-07 0)
(3.86106e-05 -4.40111e-09 0)
(4.43875e-11 -7.73852e-16 0)
(-6.66207e-20 -9.87604e-16 0)
(5.84142e-20 -9.87572e-16 0)
(7.7767e-20 -9.87809e-16 0)
(-5.28875e-20 -9.87776e-16 0)
(-4.04125e-20 -9.87614e-16 0)
(4.64387e-20 -9.87656e-16 0)
(1.58314e-20 -9.8774e-16 0)
(5.83215e-20 -9.87436e-16 0)
(-1.12767e-11 -7.50349e-16 0)
(-3.29079e-05 -3.62381e-09 0)
(-7.65131e-05 -6.96975e-07 0)
(-8.93679e-05 -2.33563e-07 0)
(-9.45784e-05 2.55066e-06 0)
(-9.74719e-05 -4.85095e-07 0)
(-9.73513e-05 -5.24643e-07 0)
(-9.64912e-05 -1.4893e-06 0)
(-9.52956e-05 -7.98139e-07 0)
(-9.48658e-05 -5.34357e-07 0)
(-9.41847e-05 -9.50523e-07 0)
(-9.32909e-05 -7.6135e-07 0)
(-9.2576e-05 -8.72126e-07 0)
(-9.09885e-05 -1.81484e-06 0)
(-8.91289e-05 -1.18126e-06 0)
(-8.81321e-05 -7.68799e-07 0)
(-8.73631e-05 -8.47168e-07 0)
(-8.60333e-05 -1.41339e-06 0)
(-8.45067e-05 -1.09346e-06 0)
(-8.34343e-05 -9.1713e-07 0)
(-8.23113e-05 -1.21711e-06 0)
(-8.03995e-05 -1.92329e-06 0)
(-7.81813e-05 -1.63546e-06 0)
(-7.65e-05 -1.33747e-06 0)
(-7.49552e-05 -1.59629e-06 0)
(-7.26203e-05 -2.73565e-06 0)
(-6.82348e-05 -4.93404e-06 0)
(-6.35763e-05 -6.98822e-06 0)
(-5.96122e-05 -8.60807e-06 0)
(-5.46748e-05 -1.0701e-05 0)
(-4.84312e-05 -1.32906e-05 0)
(-4.05515e-05 -1.62407e-05 0)
(-3.08352e-05 -1.92092e-05 0)
(-1.93652e-05 -2.16739e-05 0)
(-6.61237e-06 -2.30819e-05 0)
(6.61237e-06 -2.30819e-05 0)
(1.93652e-05 -2.16739e-05 0)
(3.08352e-05 -1.92092e-05 0)
(4.05515e-05 -1.62407e-05 0)
(4.84312e-05 -1.32906e-05 0)
(5.46748e-05 -1.0701e-05 0)
(5.96122e-05 -8.60807e-06 0)
(6.35763e-05 -6.98822e-06 0)
(6.82348e-05 -4.93404e-06 0)
(7.26203e-05 -2.73565e-06 0)
(7.49552e-05 -1.59629e-06 0)
(7.65e-05 -1.33747e-06 0)
(7.81813e-05 -1.63546e-06 0)
(8.03995e-05 -1.92329e-06 0)
(8.23113e-05 -1.21711e-06 0)
(8.34343e-05 -9.1713e-07 0)
(8.45067e-05 -1.09346e-06 0)
(8.60333e-05 -1.41339e-06 0)
(8.73631e-05 -8.47168e-07 0)
(8.81321e-05 -7.68799e-07 0)
(8.91289e-05 -1.18126e-06 0)
(9.09885e-05 -1.81484e-06 0)
(9.2576e-05 -8.72126e-07 0)
(9.32909e-05 -7.6135e-07 0)
(9.41847e-05 -9.50523e-07 0)
(9.48658e-05 -5.34357e-07 0)
(9.52956e-05 -7.98139e-07 0)
(9.64912e-05 -1.4893e-06 0)
(9.73513e-05 -5.24643e-07 0)
(9.74719e-05 -4.85095e-07 0)
(9.45784e-05 2.55066e-06 0)
(8.93679e-05 -2.33563e-07 0)
(7.65131e-05 -6.96975e-07 0)
(3.29079e-05 -3.62381e-09 0)
(1.12767e-11 -7.50349e-16 0)
(-5.83215e-20 -9.87436e-16 0)
(-1.58314e-20 -9.8774e-16 0)
(-4.64387e-20 -9.87656e-16 0)
(4.04125e-20 -9.87614e-16 0)
(5.28875e-20 -9.87776e-16 0)
(-3.45177e-20 -9.87752e-16 0)
(-2.62773e-20 -9.87644e-16 0)
(3.31616e-20 -9.87666e-16 0)
(2.21453e-20 -9.87717e-16 0)
(5.09193e-20 -9.87633e-16 0)
(4.549e-20 -9.8776e-16 0)
(7.05643e-20 -9.87513e-16 0)
(8.22371e-20 -7.91978e-16 0)
(-1.18442e-05 -2.82468e-12 0)
(-5.47985e-05 1.62634e-06 0)
(-8.86313e-05 -2.92617e-07 0)
(-9.28896e-05 -2.98529e-07 0)
(-9.37311e-05 -2.04029e-06 0)
(-9.30518e-05 -9.41104e-07 0)
(-9.318e-05 -5.87209e-07 0)
(-9.27229e-05 -1.30639e-06 0)
(-9.19134e-05 -9.59299e-07 0)
(-9.14938e-05 -1.05507e-06 0)
(-8.98599e-05 -2.59674e-06 0)
(-8.78346e-05 -1.54686e-06 0)
(-8.7008e-05 -9.62475e-07 0)
(-8.64419e-05 -1.07161e-06 0)
(-8.50789e-05 -1.98908e-06 0)
(-8.34582e-05 -1.44412e-06 0)
(-8.25186e-05 -1.16866e-06 0)
(-8.15722e-05 -1.58158e-06 0)
(-7.95905e-05 -2.68943e-06 0)
(-7.7232e-05 -2.19172e-06 0)
(-7.56681e-05 -1.72468e-06 0)
(-7.43826e-05 -2.03303e-06 0)
(-7.23966e-05 -3.54e-06 0)
(-6.83318e-05 -6.53152e-06 0)
(-6.3952e-05 -9.15188e-06 0)
(-6.03402e-05 -1.12562e-05 0)
(-5.58237e-05 -1.40507e-05 0)
(-4.99786e-05 -1.76063e-05 0)
(-4.23394e-05 -2.17654e-05 0)
(-3.25568e-05 -2.6052e-05 0)
(-2.06261e-05 -2.96788e-05 0)
(-7.07627e-06 -3.17705e-05 0)
(7.07627e-06 -3.17705e-05 0)
(2.06261e-05 -2.96788e-05 0)
(3.25568e-05 -2.6052e-05 0)
(4.23394e-05 -2.17654e-05 0)
(4.99786e-05 -1.76063e-05 0)
(5.58237e-05 -1.40507e-05 0)
(6.03402e-05 -1.12562e-05 0)
(6.3952e-05 -9.15188e-06 0)
(6.83318e-05 -6.53152e-06 0)
(7.23966e-05 -3.54e-06 0)
(7.43826e-05 -2.03303e-06 0)
(7.56681e-05 -1.72468e-06 0)
(7.7232e-05 -2.19172e-06 0)
(7.95905e-05 -2.68943e-06 0)
(8.15722e-05 -1.58158e-06 0)
(8.25186e-05 -1.16866e-06 0)
(8.34582e-05 -1.44412e-06 0)
(8.50789e-05 -1.98908e-06 0)
(8.64419e-05 -1.07161e-06 0)
(8.7008e-05 -9.62475e-07 0)
(8.78346e-05 -1.54686e-06 0)
(8.98599e-05 -2.59674e-06 0)
(9.14938e-05 -1.05507e-06 0)
(9.19134e-05 -9.59299e-07 0)
(9.27229e-05 -1.30639e-06 0)
(9.318e-05 -5.87209e-07 0)
(9.30518e-05 -9.41104e-07 0)
(9.37311e-05 -2.04029e-06 0)
(9.28896e-05 -2.98529e-07 0)
(8.86313e-05 -2.92617e-07 0)
(5.47985e-05 1.62634e-06 0)
(1.18442e-05 -2.82468e-12 0)
(-8.22371e-20 -7.91978e-16 0)
(-7.05643e-20 -9.87513e-16 0)
(-4.549e-20 -9.8776e-16 0)
(-5.09193e-20 -9.87633e-16 0)
(-2.21453e-20 -9.87717e-16 0)
(-3.31616e-20 -9.87666e-16 0)
(2.62773e-20 -9.87644e-16 0)
(3.45177e-20 -9.87752e-16 0)
(-2.13809e-20 -9.87735e-16 0)
(-1.5419e-20 -9.87665e-16 0)
(2.49917e-20 -9.87675e-16 0)
(2.54602e-20 -9.87705e-16 0)
(4.59038e-20 -9.8766e-16 0)
(4.74423e-20 -9.87732e-16 0)
(6.51671e-20 -9.87653e-16 0)
(7.00843e-20 -9.87763e-16 0)
(6.95872e-21 -9.87714e-16 0)
(9.4851e-20 -8.89899e-16 0)
(-2.01132e-10 -6.95888e-16 0)
(-3.32483e-05 -2.276e-08 0)
(-7.46977e-05 -1.16124e-06 0)
(-8.54707e-05 -4.91083e-07 0)
(-8.93885e-05 -3.11713e-07 0)
(-9.03697e-05 -1.68564e-06 0)
(-9.00519e-05 -1.07617e-06 0)
(-9.03172e-05 -1.08507e-06 0)
(-8.86715e-05 -3.66427e-06 0)
(-8.63848e-05 -1.88521e-06 0)
(-8.5864e-05 -1.09885e-06 0)
(-8.56345e-05 -1.23305e-06 0)
(-8.4197e-05 -2.74505e-06 0)
(-8.2394e-05 -1.79566e-06 0)
(-8.16637e-05 -1.37526e-06 0)
(-8.10027e-05 -1.91039e-06 0)
(-7.88831e-05 -3.66918e-06 0)
(-7.62622e-05 -2.79148e-06 0)
(-7.48698e-05 -2.07283e-06 0)
(-7.39521e-05 -2.39651e-06 0)
(-7.24658e-05 -4.27665e-06 0)
(-6.87972e-05 -8.20974e-06 0)
(-6.47458e-05 -1.12727e-05 0)
(-6.16469e-05 -1.381e-05 0)
(-5.77739e-05 -1.73324e-05 0)
(-5.25651e-05 -2.20092e-05 0)
(-4.53344e-05 -2.77026e-05 0)
(-3.54657e-05 -3.3789e-05 0)
(-2.27722e-05 -3.90888e-05 0)
(-7.86827e-06 -4.21841e-05 0)
(7.86827e-06 -4.21841e-05 0)
(2.27722e-05 -3.90888e-05 0)
(3.54657e-05 -3.3789e-05 0)
(4.53344e-05 -2.77026e-05 0)
(5.25651e-05 -2.20092e-05 0)
(5.77739e-05 -1.73324e-05 0)
(6.16469e-05 -1.381e-05 0)
(6.47458e-05 -1.12727e-05 0)
(6.87972e-05 -8.20974e-06 0)
(7.24658e-05 -4.27665e-06 0)
(7.39521e-05 -2.39651e-06 0)
(7.48698e-05 -2.07283e-06 0)
(7.62622e-05 -2.79148e-06 0)
(7.88831e-05 -3.66918e-06 0)
(8.10027e-05 -1.91039e-06 0)
(8.16637e-05 -1.37526e-06 0)
(8.2394e-05 -1.79566e-06 0)
(8.4197e-05 -2.74505e-06 0)
(8.56345e-05 -1.23305e-06 0)
(8.5864e-05 -1.09885e-06 0)
(8.63848e-05 -1.88521e-06 0)
(8.86715e-05 -3.66427e-06 0)
(9.03172e-05 -1.08507e-06 0)
(9.00519e-05 -1.07617e-06 0)
(9.03697e-05 -1.68564e-06 0)
(8.93885e-05 -3.11713e-07 0)
(8.54707e-05 -4.91083e-07 0)
(7.46977e-05 -1.16124e-06 0)
(3.32483e-05 -2.276e-08 0)
(2.01132e-10 -6.95888e-16 0)
(-9.4851e-20 -8.89899e-16 0)
(-6.95872e-21 -9.87714e-16 0)
(-7.00843e-20 -9.87763e-16 0)
(-6.51671e-20 -9.87653e-16 0)
(-4.74423e-20 -9.87732e-16 0)
(-4.59038e-20 -9.8766e-16 0)
(-2.54602e-20 -9.87705e-16 0)
(-2.49917e-20 -9.87675e-16 0)
(1.5419e-20 -9.87665e-16 0)
(2.13809e-20 -9.87735e-16 0)
(-1.22905e-20 -9.87723e-16 0)
(-7.26969e-21 -9.8768e-16 0)
(2.03907e-20 -9.87683e-16 0)
(2.69157e-20 -9.877e-16 0)
(4.24662e-20 -9.87678e-16 0)
(4.78169e-20 -9.87717e-16 0)
(6.06454e-20 -9.87678e-16 0)
(6.26951e-20 -9.87739e-16 0)
(3.06565e-20 -9.8771e-16 0)
(8.33936e-20 -9.87629e-16 0)
(8.07787e-20 -9.87758e-16 0)
(1.35896e-19 -9.8731e-16 0)
(1.80981e-19 -8.2682e-16 0)
(-8.32857e-10 -6.62535e-16 0)
(-3.35738e-05 -1.89342e-08 0)
(-7.34834e-05 -9.36212e-07 0)
(-8.23194e-05 -5.51218e-07 0)
(-8.67485e-05 -5.23728e-07 0)
(-8.63958e-05 -5.17381e-06 0)
(-8.41546e-05 -2.07072e-06 0)
(-8.43966e-05 -1.10713e-06 0)
(-8.4832e-05 -1.23104e-06 0)
(-8.32951e-05 -3.82717e-06 0)
(-8.1179e-05 -2.10777e-06 0)
(-8.081e-05 -1.48707e-06 0)
(-8.0639e-05 -2.12578e-06 0)
(-7.82701e-05 -5.02624e-06 0)
(-7.51766e-05 -3.42256e-06 0)
(-7.40536e-05 -2.33418e-06 0)
(-7.3649e-05 -2.61856e-06 0)
(-7.28796e-05 -4.84918e-06 0)
(-6.96554e-05 -1.00035e-05 0)
(-6.59284e-05 -1.32121e-05 0)
(-6.35787e-05 -1.60318e-05 0)
(-6.07089e-05 -2.02479e-05 0)
(-5.65628e-05 -2.62171e-05 0)
(-5.01063e-05 -3.39259e-05 0)
(-4.02341e-05 -4.26322e-05 0)
(-2.63557e-05 -5.05534e-05 0)
(-9.19933e-06 -5.52424e-05 0)
(9.19933e-06 -5.52424e-05 0)
(2.63557e-05 -5.05534e-05 0)
(4.02341e-05 -4.26322e-05 0)
(5.01063e-05 -3.39259e-05 0)
(5.65628e-05 -2.62171e-05 0)
(6.07089e-05 -2.02479e-05 0)
(6.35787e-05 -1.60318e-05 0)
(6.59284e-05 -1.32121e-05 0)
(6.96554e-05 -1.00035e-05 0)
(7.28796e-05 -4.84918e-06 0)
(7.3649e-05 -2.61856e-06 0)
(7.40536e-05 -2.33418e-06 0)
(7.51766e-05 -3.42256e-06 0)
(7.82701e-05 -5.02624e-06 0)
(8.0639e-05 -2.12578e-06 0)
(8.081e-05 -1.48707e-06 0)
(8.1179e-05 -2.10777e-06 0)
(8.32951e-05 -3.82717e-06 0)
(8.4832e-05 -1.23104e-06 0)
(8.43966e-05 -1.10713e-06 0)
(8.41546e-05 -2.07072e-06 0)
(8.63958e-05 -5.17381e-06 0)
(8.67485e-05 -5.23728e-07 0)
(8.23194e-05 -5.51218e-07 0)
(7.34834e-05 -9.36212e-07 0)
(3.35738e-05 -1.89342e-08 0)
(8.32857e-10 -6.62535e-16 0)
(-1.80981e-19 -8.2682e-16 0)
(-1.35896e-19 -9.8731e-16 0)
(-8.07787e-20 -9.87758e-16 0)
(-8.33936e-20 -9.87629e-16 0)
(-3.06565e-20 -9.8771e-16 0)
(-6.26951e-20 -9.87739e-16 0)
(-6.06454e-20 -9.87678e-16 0)
(-4.78169e-20 -9.87717e-16 0)
(-4.24662e-20 -9.87678e-16 0)
(-2.69157e-20 -9.877e-16 0)
(-2.03907e-20 -9.87683e-16 0)
(7.26969e-21 -9.8768e-16 0)
(1.22905e-20 -9.87723e-16 0)
(-6.20725e-21 -9.87717e-16 0)
(-1.30425e-21 -9.87691e-16 0)
(1.81196e-20 -9.8769e-16 0)
(2.7327e-20 -9.87699e-16 0)
(4.00352e-20 -9.87689e-16 0)
(4.72458e-20 -9.8771e-16 0)
(5.71013e-20 -9.87693e-16 0)
(5.90669e-20 -9.87726e-16 0)
(4.55163e-20 -9.87707e-16 0)
(7.80956e-20 -9.87664e-16 0)
(8.70122e-20 -9.87726e-16 0)
(1.25103e-19 -9.87641e-16 0)
(1.47276e-19 -9.87778e-16 0)
(5.72312e-20 -9.87779e-16 0)
(1.4695e-19 -9.87135e-16 0)
(2.18717e-19 -8.40265e-16 0)
(-5.32655e-13 -6.94545e-16 0)
(-1.7956e-05 -1.55075e-09 0)
(-5.26154e-05 -3.02943e-06 0)
(-7.31948e-05 -1.05013e-06 0)
(-7.89499e-05 -5.33436e-07 0)
(-8.24334e-05 -6.60536e-07 0)
(-8.16019e-05 -5.47789e-06 0)
(-7.92728e-05 -2.24135e-06 0)
(-7.97086e-05 -1.40999e-06 0)
(-8.04941e-05 -2.03522e-06 0)
(-7.77197e-05 -7.09834e-06 0)
(-7.37903e-05 -4.03025e-06 0)
(-7.31418e-05 -2.43119e-06 0)
(-7.34462e-05 -2.59916e-06 0)
(-7.37342e-05 -5.07944e-06 0)
(-7.09142e-05 -1.20577e-05 0)
(-6.73474e-05 -1.47508e-05 0)
(-6.60979e-05 -1.75027e-05 0)
(-6.48176e-05 -2.22274e-05 0)
(-6.25083e-05 -2.96034e-05 0)
(-5.76199e-05 -3.9998e-05 0)
(-4.81257e-05 -5.27615e-05 0)
(-3.246e-05 -6.52064e-05 0)
(-1.14828e-05 -7.26213e-05 0)
(1.14828e-05 -7.26213e-05 0)
(3.246e-05 -6.52064e-05 0)
(4.81257e-05 -5.27615e-05 0)
(5.76199e-05 -3.9998e-05 0)
(6.25083e-05 -2.96034e-05 0)
(6.48176e-05 -2.22274e-05 0)
(6.60979e-05 -1.75027e-05 0)
(6.73474e-05 -1.47508e-05 0)
(7.09142e-05 -1.20577e-05 0)
(7.37342e-05 -5.07944e-06 0)
(7.34462e-05 -2.59916e-06 0)
(7.31418e-05 -2.43119e-06 0)
(7.37903e-05 -4.03025e-06 0)
(7.77197e-05 -7.09834e-06 0)
(8.04941e-05 -2.03522e-06 0)
(7.97086e-05 -1.40999e-06 0)
(7.92728e-05 -2.24135e-06 0)
(8.16019e-05 -5.47789e-06 0)
(8.24334e-05 -6.60536e-07 0)
(7.89499e-05 -5.33436e-07 0)
(7.31948e-05 -1.05013e-06 0)
(5.26154e-05 -3.02943e-06 0)
(1.7956e-05 -1.55075e-09 0)
(5.32655e-13 -6.94545e-16 0)
(-2.18717e-19 -8.40265e-16 0)
(-1.4695e-19 -9.87135e-16 0)
(-5.72312e-20 -9.87779e-16 0)
(-1.47276e-19 -9.87778e-16 0)
(-1.25103e-19 -9.87641e-16 0)
(-8.70122e-20 -9.87726e-16 0)
(-7.80956e-20 -9.87664e-16 0)
(-4.55163e-20 -9.87707e-16 0)
(-5.90669e-20 -9.87726e-16 0)
(-5.71013e-20 -9.87693e-16 0)
(-4.72458e-20 -9.8771e-16 0)
(-4.00352e-20 -9.87689e-16 0)
(-2.7327e-20 -9.87699e-16 0)
(-1.81196e-20 -9.8769e-16 0)
(1.30425e-21 -9.87691e-16 0)
(6.20725e-21 -9.87717e-16 0)
(-2.27076e-21 -9.87713e-16 0)
(2.94481e-21 -9.87698e-16 0)
(1.72426e-20 -9.87696e-16 0)
(2.72249e-20 -9.877e-16 0)
(3.82374e-20 -9.87697e-16 0)
(4.62016e-20 -9.87708e-16 0)
(5.44604e-20 -9.87702e-16 0)
(5.75385e-20 -9.87719e-16 0)
(5.45275e-20 -9.87707e-16 0)
(7.60227e-20 -9.87685e-16 0)
(8.92404e-20 -9.87714e-16 0)
(1.15781e-19 -9.8768e-16 0)
(1.28035e-19 -9.87754e-16 0)
(8.70938e-20 -9.87752e-16 0)
(1.38896e-19 -9.87646e-16 0)
(1.78396e-19 -9.87786e-16 0)
(1.08764e-19 -9.87798e-16 0)
(1.461e-19 -9.87621e-16 0)
(2.12147e-19 -8.98766e-16 0)
(1.54234e-19 -7.77739e-16 0)
(-2.45506e-10 -6.54497e-16 0)
(-2.21867e-05 -7.48912e-08 0)
(-5.52014e-05 -3.24092e-06 0)
(-6.94134e-05 -1.11811e-06 0)
(-7.4698e-05 -6.54286e-07 0)
(-7.90231e-05 -9.40185e-07 0)
(-7.64659e-05 -1.05489e-05 0)
(-7.14052e-05 -4.3867e-06 0)
(-7.18613e-05 -2.22386e-06 0)
(-7.31971e-05 -2.19387e-06 0)
(-7.5178e-05 -4.59443e-06 0)
(-7.25134e-05 -1.48314e-05 0)
(-6.85317e-05 -1.5532e-05 0)
(-6.89216e-05 -1.74949e-05 0)
(-7.01686e-05 -2.22141e-05 0)
(-7.10937e-05 -3.08029e-05 0)
(-6.95261e-05 -4.46257e-05 0)
(-6.16866e-05 -6.39927e-05 0)
(-4.33774e-05 -8.52546e-05 0)
(-1.5568e-05 -9.75932e-05 0)
(1.5568e-05 -9.75932e-05 0)
(4.33774e-05 -8.52546e-05 0)
(6.16866e-05 -6.39927e-05 0)
(6.95261e-05 -4.46257e-05 0)
(7.10937e-05 -3.08029e-05 0)
(7.01686e-05 -2.22141e-05 0)
(6.89216e-05 -1.74949e-05 0)
(6.85317e-05 -1.5532e-05 0)
(7.25134e-05 -1.48314e-05 0)
(7.5178e-05 -4.59443e-06 0)
(7.31971e-05 -2.19387e-06 0)
(7.18613e-05 -2.22386e-06 0)
(7.14052e-05 -4.3867e-06 0)
(7.64659e-05 -1.05489e-05 0)
(7.90231e-05 -9.40185e-07 0)
(7.4698e-05 -6.54286e-07 0)
(6.94134e-05 -1.11811e-06 0)
(5.52014e-05 -3.24092e-06 0)
(2.21867e-05 -7.48912e-08 0)
(2.45506e-10 -6.54497e-16 0)
(-1.54234e-19 -7.77739e-16 0)
(-2.12147e-19 -8.98766e-16 0)
(-1.461e-19 -9.87621e-16 0)
(-1.08764e-19 -9.87798e-16 0)
(-1.78396e-19 -9.87786e-16 0)
(-1.38896e-19 -9.87646e-16 0)
(-8.70938e-20 -9.87752e-16 0)
(-1.28035e-19 -9.87754e-16 0)
(-1.15781e-19 -9.8768e-16 0)
(-8.92404e-20 -9.87714e-16 0)
(-7.60227e-20 -9.87685e-16 0)
(-5.45275e-20 -9.87707e-16 0)
(-5.75385e-20 -9.87719e-16 0)
(-5.44604e-20 -9.87702e-16 0)
(-4.62016e-20 -9.87708e-16 0)
(-3.82374e-20 -9.87697e-16 0)
(-2.72249e-20 -9.877e-16 0)
(-1.72426e-20 -9.87696e-16 0)
(-2.94481e-21 -9.87698e-16 0)
(2.27076e-21 -9.87713e-16 0)
(1.92539e-22 -9.87712e-16 0)
(5.87919e-21 -9.87704e-16 0)
(1.71008e-20 -9.87702e-16 0)
(2.69172e-20 -9.87704e-16 0)
(3.68448e-20 -9.87703e-16 0)
(4.50002e-20 -9.87709e-16 0)
(5.25484e-20 -9.87708e-16 0)
(5.70195e-20 -9.87716e-16 0)
(5.97536e-20 -9.8771e-16 0)
(7.53223e-20 -9.87699e-16 0)
(8.91523e-20 -9.87712e-16 0)
(1.0827e-19 -9.87702e-16 0)
(1.17042e-19 -9.87741e-16 0)
(1.02222e-19 -9.8774e-16 0)
(1.324e-19 -9.87694e-16 0)
(1.54911e-19 -9.87766e-16 0)
(1.25236e-19 -9.87775e-16 0)
(1.46832e-19 -9.87716e-16 0)
(1.81115e-19 -9.87778e-16 0)
(1.48556e-19 -9.87823e-16 0)
(9.75252e-20 -9.87795e-16 0)
(1.83408e-19 -9.87392e-16 0)
(2.55352e-19 -9.00705e-16 0)
(1.88517e-19 -7.97265e-16 0)
(1.07242e-19 -6.9122e-16 0)
(-7.00553e-06 -7.27933e-10 0)
(-3.30489e-05 -6.36373e-06 0)
(-5.75591e-05 -2.22806e-06 0)
(-6.55045e-05 -1.01055e-06 0)
(-7.01595e-05 -9.36707e-07 0)
(-7.63218e-05 -2.30328e-06 0)
(-7.37016e-05 -1.96094e-05 0)
(-6.79678e-05 -1.47962e-05 0)
(-7.10143e-05 -1.47407e-05 0)
(-7.62249e-05 -1.83755e-05 0)
(-8.28053e-05 -2.69129e-05 0)
(-8.85112e-05 -4.40916e-05 0)
(-8.65229e-05 -7.4195e-05 0)
(-6.44131e-05 -0.000115893 0)
(-2.3224e-05 -0.000136944 0)
(2.3224e-05 -0.000136944 0)
(6.44131e-05 -0.000115893 0)
(8.65229e-05 -7.4195e-05 0)
(8.85112e-05 -4.40916e-05 0)
(8.28053e-05 -2.69129e-05 0)
(7.62249e-05 -1.83755e-05 0)
(7.10143e-05 -1.47407e-05 0)
(6.79678e-05 -1.47962e-05 0)
(7.37016e-05 -1.96094e-05 0)
(7.63218e-05 -2.30328e-06 0)
(7.01595e-05 -9.36707e-07 0)
(6.55045e-05 -1.01055e-06 0)
(5.75591e-05 -2.22806e-06 0)
(3.30489e-05 -6.36373e-06 0)
(7.00553e-06 -7.27933e-10 0)
(-1.07242e-19 -6.9122e-16 0)
(-1.88517e-19 -7.97265e-16 0)
(-2.55352e-19 -9.00705e-16 0)
(-1.83408e-19 -9.87392e-16 0)
(-9.75252e-20 -9.87795e-16 0)
(-1.48556e-19 -9.87823e-16 0)
(-1.81115e-19 -9.87778e-16 0)
(-1.46832e-19 -9.87716e-16 0)
(-1.25236e-19 -9.87775e-16 0)
(-1.54911e-19 -9.87766e-16 0)
(-1.324e-19 -9.87694e-16 0)
(-1.02222e-19 -9.8774e-16 0)
(-1.17042e-19 -9.87741e-16 0)
(-1.0827e-19 -9.87702e-16 0)
(-8.91523e-20 -9.87712e-16 0)
(-7.53223e-20 -9.87699e-16 0)
(-5.97536e-20 -9.8771e-16 0)
(-5.70195e-20 -9.87716e-16 0)
(-5.25484e-20 -9.87708e-16 0)
(-4.50002e-20 -9.87709e-16 0)
(-3.68448e-20 -9.87703e-16 0)
(-2.69172e-20 -9.87704e-16 0)
(-1.71008e-20 -9.87702e-16 0)
(-5.87919e-21 -9.87704e-16 0)
(-1.92539e-22 -9.87712e-16 0)
(1.68221e-21 -9.87713e-16 0)
(7.83221e-21 -9.87709e-16 0)
(1.72666e-20 -9.87707e-16 0)
(2.65543e-20 -9.87708e-16 0)
(3.57226e-20 -9.87708e-16 0)
(4.38213e-20 -9.87712e-16 0)
(5.11548e-20 -9.87713e-16 0)
(5.68474e-20 -9.87717e-16 0)
(6.25513e-20 -9.87714e-16 0)
(7.49517e-20 -9.87709e-16 0)
(8.78465e-20 -9.87715e-16 0)
(1.02398e-19 -9.87715e-16 0)
(1.10378e-19 -9.87736e-16 0)
(1.08526e-19 -9.87737e-16 0)
(1.27027e-19 -9.87721e-16 0)
(1.41084e-19 -9.87757e-16 0)
(1.31581e-19 -9.87765e-16 0)
(1.44734e-19 -9.87742e-16 0)
(1.6236e-19 -9.87776e-16 0)
(1.46551e-19 -9.87802e-16 0)
(1.27044e-19 -9.87782e-16 0)
(1.74894e-19 -9.87716e-16 0)
(2.14743e-19 -9.87813e-16 0)
(1.82584e-19 -9.87845e-16 0)
(1.47382e-19 -9.87836e-16 0)
(1.79773e-19 -9.87736e-16 0)
(2.32591e-19 -9.54732e-16 0)
(2.20693e-19 -8.76681e-16 0)
(1.90167e-19 -7.90797e-16 0)
(1.4447e-19 -7.02349e-16 0)
(-9.89069e-07 -2.48747e-07 0)
(-2.40406e-05 -1.13672e-05 0)
(-5.22032e-05 -6.95743e-06 0)
(-6.37634e-05 -6.2377e-06 0)
(-7.58571e-05 -7.60634e-06 0)
(-9.25795e-05 -1.16017e-05 0)
(-0.000115446 -2.71318e-05 0)
(-0.000135386 -7.03159e-05 0)
(-0.000108786 -0.000173724 0)
(-3.75123e-05 -0.000204623 0)
(3.75123e-05 -0.000204623 0)
(0.000108786 -0.000173724 0)
(0.000135386 -7.03159e-05 0)
(0.000115446 -2.71318e-05 0)
(9.25795e-05 -1.16017e-05 0)
(7.58571e-05 -7.60634e-06 0)
(6.37634e-05 -6.2377e-06 0)
(5.22032e-05 -6.95743e-06 0)
(2.40406e-05 -1.13672e-05 0)
(9.89069e-07 -2.48747e-07 0)
(-1.4447e-19 -7.02349e-16 0)
(-1.90167e-19 -7.90797e-16 0)
(-2.20693e-19 -8.76681e-16 0)
(-2.32591e-19 -9.54732e-16 0)
(-1.79773e-19 -9.87736e-16 0)
(-1.47382e-19 -9.87836e-16 0)
(-1.82584e-19 -9.87845e-16 0)
(-2.14743e-19 -9.87813e-16 0)
(-1.74894e-19 -9.87716e-16 0)
(-1.27044e-19 -9.87782e-16 0)
(-1.46551e-19 -9.87802e-16 0)
(-1.6236e-19 -9.87776e-16 0)
(-1.44734e-19 -9.87742e-16 0)
(-1.31581e-19 -9.87765e-16 0)
(-1.41084e-19 -9.87757e-16 0)
(-1.27027e-19 -9.87721e-16 0)
(-1.08526e-19 -9.87737e-16 0)
(-1.10378e-19 -9.87736e-16 0)
(-1.02398e-19 -9.87715e-16 0)
(-8.78465e-20 -9.87715e-16 0)
(-7.49517e-20 -9.87709e-16 0)
(-6.25513e-20 -9.87714e-16 0)
(-5.68474e-20 -9.87717e-16 0)
(-5.11548e-20 -9.87713e-16 0)
(-4.38213e-20 -9.87712e-16 0)
(-3.57226e-20 -9.87708e-16 0)
(-2.65543e-20 -9.87708e-16 0)
(-1.72666e-20 -9.87707e-16 0)
(-7.83221e-21 -9.87709e-16 0)
(-1.68221e-21 -9.87713e-16 0)
(2.54992e-21 -9.87716e-16 0)
(9.07094e-21 -9.87713e-16 0)
(1.74887e-20 -9.87712e-16 0)
(2.61892e-20 -9.87712e-16 0)
(3.47859e-20 -9.87713e-16 0)
(4.27388e-20 -9.87716e-16 0)
(5.00777e-20 -9.87717e-16 0)
(5.66554e-20 -9.87719e-16 0)
(6.37779e-20 -9.87718e-16 0)
(7.44092e-20 -9.87717e-16 0)
(8.59587e-20 -9.87721e-16 0)
(9.77655e-20 -9.87724e-16 0)
(1.05772e-19 -9.87736e-16 0)
(1.09843e-19 -9.87739e-16 0)
(1.22357e-19 -9.87736e-16 0)
(1.32398e-19 -9.87755e-16 0)
(1.32307e-19 -9.87762e-16 0)
(1.41204e-19 -9.87757e-16 0)
(1.50986e-19 -9.87776e-16 0)
(1.45369e-19 -9.87791e-16 0)
(1.40893e-19 -9.87781e-16 0)
(1.67757e-19 -9.87757e-16 0)
(1.90008e-19 -9.87805e-16 0)
(1.76913e-19 -9.87829e-16 0)
(1.62012e-19 -9.87825e-16 0)
(1.80582e-19 -9.87793e-16 0)
(2.09242e-19 -9.87828e-16 0)
(2.06766e-19 -9.87863e-16 0)
(1.92147e-19 -9.87873e-16 0)
(1.89428e-19 -9.87862e-16 0)
(2.21862e-19 -9.87784e-16 0)
(2.5191e-19 -9.84181e-16 0)
(2.61469e-19 -9.39477e-16 0)
(2.82124e-19 -9.06374e-16 0)
(3.14477e-19 -8.68412e-16 0)
(9.82673e-16 -1.60069e-12 0)
(2.49745e-08 -6.20935e-06 0)
(-3.94362e-06 -3.3296e-05 0)
(-5.37861e-05 -0.000154576 0)
(-4.98175e-05 -0.00031083 0)
(4.98175e-05 -0.00031083 0)
(5.37861e-05 -0.000154576 0)
(3.94362e-06 -3.3296e-05 0)
(-2.49745e-08 -6.20935e-06 0)
(-9.82673e-16 -1.60069e-12 0)
(-3.14477e-19 -8.68412e-16 0)
(-2.82124e-19 -9.06374e-16 0)
(-2.61469e-19 -9.39477e-16 0)
(-2.5191e-19 -9.84181e-16 0)
(-2.21862e-19 -9.87784e-16 0)
(-1.89428e-19 -9.87862e-16 0)
(-1.92147e-19 -9.87873e-16 0)
(-2.06766e-19 -9.87863e-16 0)
(-2.09242e-19 -9.87828e-16 0)
(-1.80582e-19 -9.87793e-16 0)
(-1.62012e-19 -9.87825e-16 0)
(-1.76913e-19 -9.87829e-16 0)
(-1.90008e-19 -9.87805e-16 0)
(-1.67757e-19 -9.87757e-16 0)
(-1.40893e-19 -9.87781e-16 0)
(-1.45369e-19 -9.87791e-16 0)
(-1.50986e-19 -9.87776e-16 0)
(-1.41204e-19 -9.87757e-16 0)
(-1.32307e-19 -9.87762e-16 0)
(-1.32398e-19 -9.87755e-16 0)
(-1.22357e-19 -9.87736e-16 0)
(-1.09843e-19 -9.87739e-16 0)
(-1.05772e-19 -9.87736e-16 0)
(-9.77655e-20 -9.87724e-16 0)
(-8.59587e-20 -9.87721e-16 0)
(-7.44092e-20 -9.87717e-16 0)
(-6.37779e-20 -9.87718e-16 0)
(-5.66554e-20 -9.87719e-16 0)
(-5.00777e-20 -9.87717e-16 0)
(-4.27388e-20 -9.87716e-16 0)
(-3.47859e-20 -9.87713e-16 0)
(-2.61892e-20 -9.87712e-16 0)
(-1.74887e-20 -9.87712e-16 0)
(-9.07094e-21 -9.87713e-16 0)
(-2.54992e-21 -9.87716e-16 0)
(3.03137e-21 -9.87719e-16 0)
(9.80198e-21 -9.87718e-16 0)
(1.76388e-20 -9.87717e-16 0)
(2.5823e-20 -9.87717e-16 0)
(3.39716e-20 -9.87718e-16 0)
(4.17547e-20 -9.8772e-16 0)
(4.91481e-20 -9.87721e-16 0)
(5.62646e-20 -9.87723e-16 0)
(6.39623e-20 -9.87723e-16 0)
(7.35103e-20 -9.87723e-16 0)
(8.38028e-20 -9.87727e-16 0)
(9.39416e-20 -9.87731e-16 0)
(1.02024e-19 -9.87738e-16 0)
(1.08494e-19 -9.87742e-16 0)
(1.18054e-19 -9.87745e-16 0)
(1.26224e-19 -9.87756e-16 0)
(1.30131e-19 -9.87763e-16 0)
(1.37038e-19 -9.87765e-16 0)
(1.43605e-19 -9.87777e-16 0)
(1.43695e-19 -9.87786e-16 0)
(1.45713e-19 -9.87784e-16 0)
(1.61455e-19 -9.87779e-16 0)
(1.74573e-19 -9.87804e-16 0)
(1.71292e-19 -9.87821e-16 0)
(1.66983e-19 -9.87822e-16 0)
(1.78129e-19 -9.87813e-16 0)
(1.93935e-19 -9.87833e-16 0)
(1.95509e-19 -9.87857e-16 0)
(1.9038e-19 -9.87867e-16 0)
(1.92561e-19 -9.87867e-16 0)
(2.12116e-19 -9.87868e-16 0)
(2.33827e-19 -9.87902e-16 0)
(2.46704e-19 -9.87922e-16 0)
(2.62108e-19 -9.87939e-16 0)
(2.85232e-19 -9.87963e-16 0)
(3.2165e-19 -9.88001e-16 0)
(5.7797e-19 -1.70901e-15 0)
(1.39808e-09 -4.26351e-06 0)
(1.74418e-07 -9.40582e-05 0)
(1.73019e-07 -0.000368291 0)
(-1.73019e-07 -0.000368291 0)
(-1.74418e-07 -9.40582e-05 0)