/*--------------------------------*- C++ -*----------------------------------*\
  =========                 |
  \\      /  F ield         | OpenFOAM: The Open Source CFD Toolbox
   \\    /   O peration     | Website:  https://openfoam.org
    \\  /    A nd           | Version:  10
     \\/     M anipulation  |
\*---------------------------------------------------------------------------*/
FoamFile
{
    format      ascii;
    class       volVectorField;
    location    "2.11";
    object      Ub;
}
// * * * * * * * * * * * * * * * * * * * * * * * * * * * * * * * * * * * * * //

dimensions      [0 1 -1 0 0 0 0];

internalField   nonuniform List<vector> 
12225
(
(0.00227214 -0.000459036 0)
(0.00648736 -0.00040905 0)
(0.00996544 -0.000336837 0)
(0.0126572 -0.000264697 0)
(0.0146693 -0.000204228 0)
(0.016162 -0.000158791 0)
(0.0172899 -0.000127617 0)
(0.0181806 -0.00010863 0)
(0.0189335 -9.98927e-05 0)
(0.0196261 -0.000100237 0)
(0.0203232 -0.000109607 0)
(0.0210864 -0.0001295 0)
(0.0219871 -0.000163974 0)
(0.023127 -0.00022226 0)
(0.0246839 -0.000326406 0)
(0.0270418 -0.000538465 0)
(0.0313011 -0.00108938 0)
(0.0421654 -0.00324502 0)
(0.00241 -0.00143969 0)
(0.00687256 -0.001281 0)
(0.0105371 -0.00105259 0)
(0.0133555 -0.000825106 0)
(0.0154478 -0.000634945 0)
(0.0169888 -0.000492399 0)
(0.0181451 -0.000394797 0)
(0.0190529 -0.000335456 0)
(0.0198172 -0.000308181 0)
(0.0205193 -0.00030922 0)
(0.0212262 -0.000338286 0)
(0.0220011 -0.000399865 0)
(0.0229157 -0.000506193 0)
(0.024069 -0.000684833 0)
(0.0256255 -0.00100007 0)
(0.0278999 -0.00162326 0)
(0.0315319 -0.00311815 0)
(0.0370564 -0.00789979 0)
(0.00251662 -0.00254497 0)
(0.00716451 -0.00225894 0)
(0.0109563 -0.00184976 0)
(0.0138492 -0.00144446 0)
(0.0159788 -0.00110726 0)
(0.0175347 -0.000855507 0)
(0.0186938 -0.000683707 0)
(0.0195984 -0.000579523 0)
(0.020357 -0.000531681 0)
(0.0210522 -0.000533284 0)
(0.0217513 -0.000583463 0)
(0.0225158 -0.000689444 0)
(0.0234128 -0.00087116 0)
(0.0245293 -0.00117267 0)
(0.0259935 -0.00169215 0)
(0.027997 -0.00266801 0)
(0.0307119 -0.00474764 0)
(0.0332906 -0.00978708 0)
(0.0026256 -0.00378114 0)
(0.00745681 -0.00334511 0)
(0.0113619 -0.00272669 0)
(0.0143079 -0.0021189 0)
(0.0164524 -0.00161664 0)
(0.018003 -0.00124376 0)
(0.0191479 -0.000990423 0)
(0.0200353 -0.000837281 0)
(0.0207758 -0.000766954 0)
(0.0214523 -0.000768673 0)
(0.0221302 -0.000840394 0)
(0.0228674 -0.000991312 0)
(0.0237225 -0.00124741 0)
(0.0247634 -0.00166454 0)
(0.0260707 -0.0023594 0)
(0.027711 -0.00358359 0)
(0.0295588 -0.00588626 0)
(0.0305679 -0.010301 0)
(0.00275078 -0.00516619 0)
(0.00778629 -0.00455021 0)
(0.0118044 -0.00368667 0)
(0.0147891 -0.00284708 0)
(0.0169288 -0.00215965 0)
(0.0184549 -0.00165312 0)
(0.0195689 -0.001311 0)
(0.0204247 -0.00110501 0)
(0.0211346 -0.00101033 0)
(0.0217802 -0.00101137 0)
(0.0224238 -0.00110401 0)
(0.0231173 -0.00129813 0)
(0.023908 -0.00162307 0)
(0.0248411 -0.00213977 0)
(0.0259494 -0.00296601 0)
(0.0272036 -0.00432261 0)
(0.0283483 -0.00658711 0)
(0.0285353 -0.0101774 0)
(0.0029036 -0.00672733 0)
(0.00818143 -0.00589015 0)
(0.0123192 -0.00473454 0)
(0.0153287 -0.00362711 0)
(0.0174419 -0.0027315 0)
(0.0189218 -0.00207807 0)
(0.0199858 -0.0016401 0)
(0.0207941 -0.00137771 0)
(0.0214594 -0.00125696 0)
(0.022061 -0.00125618 0)
(0.0226566 -0.00136802 0)
(0.0232902 -0.00160127 0)
(0.0239965 -0.0019852 0)
(0.0247978 -0.00257865 0)
(0.0256869 -0.00348537 0)
(0.0265782 -0.00487107 0)
(0.0271982 -0.0069461 0)
(0.0269641 -0.00977636 0)
(0.00309716 -0.00850302 0)
(0.0086733 -0.007386 0)
(0.0129414 -0.00587532 0)
(0.0159583 -0.00445499 0)
(0.0180183 -0.00332467 0)
(0.0194256 -0.00251053 0)
(0.0204172 -0.00197016 0)
(0.0211594 -0.00164855 0)
(0.0217644 -0.00150038 0)
(0.0223077 -0.00149645 0)
(0.022841 -0.00162471 0)
(0.0233995 -0.00189082 0)
(0.0240048 -0.00232046 0)
(0.024659 -0.00296392 0)
(0.0253282 -0.00390123 0)
(0.0259045 -0.0052376 0)
(0.0261535 -0.00705675 0)
(0.0257127 -0.0092659 0)
(0.00334918 -0.0105476 0)
(0.00930184 -0.00906483 0)
(0.0137126 -0.00711277 0)
(0.0167118 -0.00532266 0)
(0.0186831 -0.00392733 0)
(0.0199846 -0.00293867 0)
(0.0208766 -0.00229064 0)
(0.021531 -0.00190825 0)
(0.0220581 -0.00173212 0)
(0.0225279 -0.00172377 0)
(0.0229846 -0.00186489 0)
(0.0234543 -0.00215597 0)
(0.0239462 -0.0026159 0)
(0.0244476 -0.003282 0)
(0.0249099 -0.00420698 0)
(0.0252279 -0.00544307 0)
(0.0252243 -0.00699426 0)
(0.0246907 -0.00872042 0)
(0.00368562 -0.0129392 0)
(0.0101231 -0.0109607 0)
(0.0146864 -0.00844693 0)
(0.0176289 -0.00621515 0)
(0.0194627 -0.0045211 0)
(0.020616 -0.00334549 0)
(0.0213752 -0.00258705 0)
(0.0219167 -0.00214458 0)
(0.0223463 -0.0019414 0)
(0.0227265 -0.00192791 0)
(0.023093 -0.00207807 0)
(0.0234623 -0.00238542 0)
(0.0238334 -0.00285981 0)
(0.0241837 -0.00352357 0)
(0.0244611 -0.00440354 0)
(0.0245757 -0.00551254 0)
(0.0244053 -0.00681321 0)
(0.0238386 -0.00817064 0)
(0.00414686 -0.0157937 0)
(0.0112201 -0.013115 0)
(0.0159357 -0.00986919 0)
(0.018758 -0.00710584 0)
(0.0203856 -0.00507785 0)
(0.0213357 -0.00370682 0)
(0.021922 -0.00283987 0)
(0.0223217 -0.00234168 0)
(0.0226325 -0.00211479 0)
(0.0229068 -0.00209678 0)
(0.0231704 -0.00225269 0)
(0.0234305 -0.00256791 0)
(0.0236779 -0.00304223 0)
(0.0238851 -0.00368329 0)
(0.0240033 -0.00449675 0)
(0.0239627 -0.0054702 0)
(0.0236847 -0.00655075 0)
(0.0231154 -0.00762756 0)
(0.00479904 -0.019289 0)
(0.0127215 -0.0155747 0)
(0.0175621 -0.0113528 0)
(0.0201589 -0.00794881 0)
(0.0214823 -0.00555511 0)
(0.0221577 -0.00398894 0)
(0.0225228 -0.00302331 0)
(0.0227482 -0.00247957 0)
(0.0229178 -0.00223612 0)
(0.0230703 -0.00221656 0)
(0.0232201 -0.00237641 0)
(0.0233653 -0.00269264 0)
(0.0234904 -0.00315523 0)
(0.0235664 -0.00375918 0)
(0.0235515 -0.00449498 0)
(0.0233947 -0.00533681 0)
(0.0230489 -0.00623102 0)
(0.0224919 -0.00709346 0)
(0.00568585 -0.0232875 0)
(0.0146815 -0.0181389 0)
(0.019558 -0.0127231 0)
(0.021786 -0.00862373 0)
(0.0227001 -0.00587711 0)
(0.0230376 -0.00414467 0)
(0.0231458 -0.00310673 0)
(0.0231772 -0.00253659 0)
(0.023195 -0.00228844 0)
(0.0232212 -0.00227284 0)
(0.0232577 -0.00243693 0)
(0.023294 -0.00275046 0)
(0.0233101 -0.00319555 0)
(0.0232776 -0.00375817 0)
(0.0231613 -0.0044198 0)
(0.0229246 -0.0051496 0)
(0.0225392 -0.00589943 0)
(0.0219978 -0.00660673 0)
(0.00693221 -0.0284174 0)
(0.0173063 -0.0209774 0)
(0.022036 -0.0139606 0)
(0.0236744 -0.00907343 0)
(0.0240342 -0.00599339 0)
(0.0239526 -0.00413698 0)
(0.0237605 -0.00306422 0)
(0.0235746 -0.00249487 0)
(0.0234282 -0.00225951 0)
(0.023322 -0.00225756 0)
(0.0232437 -0.00242954 0)
(0.0231744 -0.00273973 0)
(0.02309 -0.00316464 0)
(0.0229634 -0.00368451 0)
(0.0227655 -0.00427651 0)
(0.0224705 -0.00490981 0)
(0.0220622 -0.00554398 0)
(0.0215409 -0.0061331 0)
(0.00918243 -0.0364345 0)
(0.0217436 -0.0244627 0)
(0.0258041 -0.0149807 0)
(0.0263099 -0.00914549 0)
(0.0257775 -0.00577629 0)
(0.025088 -0.00387215 0)
(0.0244894 -0.00282889 0)
(0.0240237 -0.00230654 0)
(0.0236739 -0.00211476 0)
(0.0234095 -0.00214528 0)
(0.0231994 -0.0023349 0)
(0.0230141 -0.00264475 0)
(0.0228254 -0.00304805 0)
(0.0226071 -0.00352213 0)
(0.0223355 -0.00404325 0)
(0.021993 -0.00458372 0)
(0.0215709 -0.00511215 0)
(0.0210726 -0.00559677 0)
(0.0137819 -0.0504415 0)
(0.0299788 -0.0280162 0)
(0.0317118 -0.0148974 0)
(0.0299487 -0.00824032 0)
(0.0279727 -0.0048631 0)
(0.0264209 -0.00312815 0)
(0.0252944 -0.00225764 0)
(0.0244866 -0.00187326 0)
(0.0238989 -0.00178182 0)
(0.0234564 -0.0018793 0)
(0.0231039 -0.00210628 0)
(0.0227991 -0.00242597 0)
(0.0225088 -0.00281248 0)
(0.0222068 -0.00324412 0)
(0.0218732 -0.00369973 0)
(0.0214949 -0.00415725 0)
(0.0210671 -0.00459438 0)
(0.0205932 -0.00499075 0)
(0.0249467 -0.0794794 0)
(0.0473099 -0.0275178 0)
(0.0409427 -0.0111284 0)
(0.0345985 -0.0051254 0)
(0.030421 -0.00265255 0)
(0.0277647 -0.00158445 0)
(0.026032 -0.00116122 0)
(0.0248577 -0.0010719 0)
(0.0240266 -0.00117354 0)
(0.0234083 -0.00139356 0)
(0.0229197 -0.00169108 0)
(0.0225051 -0.00204052 0)
(0.0221255 -0.00242322 0)
(0.0217538 -0.00282327 0)
(0.0213718 -0.00322559 0)
(0.020969 -0.00361548 0)
(0.0205416 -0.00397927 0)
(0.0200915 -0.00430548 0)
(0.0592228 0.00052959 0)
(0.0905598 0.00299087 0)
(0.0528922 0.00251527 0)
(0.0387939 0.00194862 0)
(0.0322141 0.00146619 0)
(0.0286143 0.00102882 0)
(0.0264203 0.000609357 0)
(0.024975 0.000195861 0)
(0.0239605 -0.000216443 0)
(0.0232041 -0.000627752 0)
(0.0226031 -0.00103673 0)
(0.0220943 -0.00144321 0)
(0.0216382 -0.00184271 0)
(0.0212087 -0.00222975 0)
(0.0207892 -0.0025981 0)
(0.0203703 -0.00294136 0)
(0.0199479 -0.00325365 0)
(0.019522 -0.00353037 0)
(0.020499 0.0761209 0)
(0.0405155 0.0319411 0)
(0.037363 0.0163177 0)
(0.0325665 0.00956358 0)
(0.0289804 0.00610399 0)
(0.0265296 0.00406589 0)
(0.0248482 0.00271857 0)
(0.0236582 0.00174012 0)
(0.0227802 0.000974585 0)
(0.0221013 0.000341979 0)
(0.0215505 -0.000201644 0)
(0.0210796 -0.000680605 0)
(0.0206547 -0.00110982 0)
(0.0202558 -0.00149857 0)
(0.0198713 -0.00185001 0)
(0.0194945 -0.00216545 0)
(0.0191222 -0.00244542 0)
(0.0187539 -0.00269039 0)
(0.00782405 0.0403662 0)
(0.0187343 0.0278669 0)
(0.0226205 0.0184969 0)
(0.0233802 0.0124793 0)
(0.0230521 0.00862972 0)
(0.0224395 0.00607798 0)
(0.0218181 0.00430572 0)
(0.021264 0.0030148 0)
(0.0207848 0.00203197 0)
(0.0203671 0.00125419 0)
(0.0199942 0.000618658 0)
(0.0196531 8.89758e-05 0)
(0.0193341 -0.000361365 0)
(0.0190281 -0.000747619 0)
(0.0187285 -0.00108388 0)
(0.0184326 -0.00137693 0)
(0.0181396 -0.00163167 0)
(0.0178494 -0.00185193 0)
(0.00425232 0.0244904 0)
(0.0111743 0.0202405 0)
(0.015271 0.0155835 0)
(0.0173941 0.011699 0)
(0.0183998 0.00872346 0)
(0.0188225 0.00649622 0)
(0.0189504 0.00482376 0)
(0.0189295 0.00354887 0)
(0.0188314 0.00255746 0)
(0.0186909 0.00177009 0)
(0.0185248 0.00113215 0)
(0.0183413 0.000606182 0)
(0.0181449 0.000166314 0)
(0.0179399 -0.000202287 0)
(0.0177281 -0.000514415 0)
(0.0175099 -0.000781969 0)
(0.0172872 -0.00101165 0)
(0.0170619 -0.00120869 0)
(0.00292443 0.0172624 0)
(0.00803 0.0151783 0)
(0.0116579 0.0124793 0)
(0.0140115 0.00990676 0)
(0.0154714 0.00772523 0)
(0.0163553 0.00596387 0)
(0.0168785 0.00456681 0)
(0.0171749 0.00346066 0)
(0.0173257 0.00257905 0)
(0.0173798 0.00186889 0)
(0.0173669 0.00128989 0)
(0.0173061 0.000812178 0)
(0.0172099 0.00041384 0)
(0.0170872 7.90435e-05 0)
(0.0169454 -0.000201487 0)
(0.0167894 -0.00043929 0)
(0.0166223 -0.000642504 0)
(0.0164474 -0.000816319 0)
(0.00226626 0.0127269 0)
(0.00636862 0.0115306 0)
(0.00956178 0.00983479 0)
(0.0118737 0.00808221 0)
(0.0134841 0.00649368 0)
(0.0145833 0.0051419 0)
(0.0153237 0.00402575 0)
(0.0158144 0.00311534 0)
(0.0161299 0.00237428 0)
(0.0163206 0.00176885 0)
(0.0164205 0.00127095 0)
(0.0164532 0.000858314 0)
(0.0164352 0.000513698 0)
(0.0163788 0.000223906 0)
(0.0162936 -2.03875e-05 0)
(0.0161871 -0.000225559 0)
(0.0160641 -0.000400296 0)
(0.015929 -0.000549634 0)
(0.00189417 0.0095684 0)
(0.00539322 0.00881256 0)
(0.00825959 0.00768317 0)
(0.0104692 0.00645515 0)
(0.0121118 0.00529194 0)
(0.0133071 0.00426557 0)
(0.0141646 0.00339337 0)
(0.0147714 0.00266601 0)
(0.0151925 0.00206411 0)
(0.0154755 0.00156653 0)
(0.0156548 0.00115403 0)
(0.0157553 0.000810411 0)
(0.0157956 0.000522594 0)
(0.0157896 0.000280209 0)
(0.0157478 7.51154e-05 0)
(0.0156793 -9.74565e-05 0)
(0.0155905 -0.00024359 0)
(0.0154861 -0.000368503 0)
(0.0016639 0.00721955 0)
(0.00477508 0.00671491 0)
(0.00740343 0.00593559 0)
(0.00950912 0.00505995 0)
(0.0111387 0.0042057 0)
(0.012372 0.00343287 0)
(0.0132907 0.0027626 0)
(0.0139654 0.00219455 0)
(0.0144529 0.00171862 0)
(0.0147969 0.00132153 0)
(0.0150305 0.000990134 0)
(0.0151789 0.000712798 0)
(0.0152613 0.000479778 0)
(0.0152924 0.00028315 0)
(0.0152835 0.000116558 0)
(0.015244 -2.46266e-05 0)
(0.0151811 -0.000143437 0)
(0.0151002 -0.000245062 0)
(0.00151141 0.00539588 0)
(0.00435901 0.00505007 0)
(0.00681188 0.00450427 0)
(0.00882602 0.00387758 0)
(0.0104259 0.00325391 0)
(0.0116678 0.00267987 0)
(0.0126157 0.00217482 0)
(0.0133286 0.00174182 0)
(0.0138565 0.00137571 0)
(0.0142397 0.00106809 0)
(0.0145097 0.000810015 0)
(0.0146912 0.000593201 0)
(0.0148034 0.000410522 0)
(0.0148613 0.000256061 0)
(0.0148767 0.000124996 0)
(0.0148588 1.34341e-05 0)
(0.0148155 -8.03777e-05 0)
(0.0147526 -0.000160496 0)
(0.00140427 0.00393852 0)
(0.00406303 0.00370127 0)
(0.00638222 0.00332117 0)
(0.00831754 0.00287836 0)
(0.00988146 0.0024317 0)
(0.0111162 0.0020157 0)
(0.0120742 0.001646 0)
(0.0128062 0.00132643 0)
(0.0133572 0.00105443 0)
(0.0137644 0.000824695 0)
(0.014058 0.000631168 0)
(0.0142618 0.000468073 0)
(0.0143948 0.000330325 0)
(0.014472 0.000213634 0)
(0.014505 0.000114464 0)
(0.0145034 2.99208e-05 0)
(0.0144749 -4.15123e-05 0)
(0.0144258 -0.000102243 0)
(0.00132399 0.00275142 0)
(0.00383883 0.00259287 0)
(0.00605066 0.00233617 0)
(0.00791615 0.00203418 0)
(0.00944107 0.00172679 0)
(0.010659 0.00143818 0)
(0.0116144 0.00117992 0)
(0.0123526 0.000955373 0)
(0.0129146 0.000763338 0)
(0.0133353 0.00060051 0)
(0.0136432 0.000462916 0)
(0.0138615 0.000346666 0)
(0.0140087 0.000248282 0)
(0.0140994 0.000164797 0)
(0.0141454 9.37441e-05 0)
(0.0141561 3.31e-05 0)
(0.0141391 -1.83827e-05 0)
(0.0141007 -6.19497e-05 0)
(0.00125832 0.00177311 0)
(0.0036535 0.00167414 0)
(0.00577157 0.00151269 0)
(0.00757066 0.00132152 0)
(0.00905271 0.00112576 0)
(0.0102457 0.000940947 0)
(0.011189 0.000774788 0)
(0.0119237 0.00062973 0)
(0.0124877 0.000505248 0)
(0.0129137 0.000399393 0)
(0.0132291 0.000309725 0)
(0.0134561 0.00023381 0)
(0.0136126 0.000169449 0)
(0.0137128 0.000114749 0)
(0.0137684 6.81317e-05 0)
(0.0137885 2.82946e-05 0)
(0.0137807 -5.68003e-06 0)
(0.0137512 -3.42318e-05 0)
(0.00119625 0.000963168 0)
(0.00347651 0.000910627 0)
(0.00550027 0.000824454 0)
(0.00722741 0.000721983 0)
(0.0086578 0.000616634 0)
(0.00981573 0.000516824 0)
(0.0107366 0.000426798 0)
(0.0114582 0.000347981 0)
(0.0120157 0.000280176 0)
(0.0124401 0.000222389 0)
(0.0127572 0.000173344 0)
(0.0129881 0.000131749 0)
(0.0131501 9.64289e-05 0)
(0.0132569 6.63674e-05 0)
(0.0133197 4.07126e-05 0)
(0.0133474 1.8761e-05 0)
(0.0133474 -4.08417e-08 0)
(0.0133255 -1.56532e-05 0)
(0.00111555 0.000298136 0)
(0.00324408 0.000282099 0)
(0.00513791 0.000255709 0)
(0.00675957 0.000224254 0)
(0.00810784 0.000191845 0)
(0.00920397 0.000161078 0)
(0.0100797 0.000133275 0)
(0.0107694 0.000108893 0)
(0.0113053 8.78855e-05 0)
(0.0117158 6.99564e-05 0)
(0.012025 5.47194e-05 0)
(0.0122523 4.17814e-05 0)
(0.0124141 3.07824e-05 0)
(0.0125231 2.14107e-05 0)
(0.0125899 1.34044e-05 0)
(0.0126229 6.54659e-06 0)
(0.012629 6.57862e-07 0)
(0.0126141 -4.16954e-06 0)
(7.83808e-05 -0.000203517 -2.62947e-30)
(0.000235925 -0.00020337 2.62571e-30)
(0.000394817 -0.000203156 0)
(0.000555088 -0.000202862 0)
(0.000716758 -0.000202476 0)
(0.000879845 -0.000201994 -2.60032e-30)
(0.00104438 -0.000201415 0)
(0.0012104 -0.000200746 0)
(0.00137798 -0.000200002 0)
(0.00154723 -0.000199209 0)
(0.00171832 -0.000198404 2.54403e-30)
(0.00189148 -0.000197643 0)
(0.00206705 -0.000196996 0)
(0.00224546 -0.000196555 0)
(0.00242732 -0.000196432 0)
(0.00261339 -0.000196752 2.51211e-30)
(0.00280462 -0.000197649 0)
(0.00300215 -0.000199253 0)
(0.00320729 -0.000201687 0)
(0.0034215 -0.000205061 0)
(0.00364632 -0.000209471 0)
(0.00388333 -0.000214991 0)
(0.00413401 -0.000221658 0)
(0.00439958 -0.000229461 2.91378e-30)
(0.0046809 -0.000238341 -3.02523e-30)
(0.00497836 -0.00024822 3.1494e-30)
(0.00529195 -0.000259062 3.28582e-30)
(0.00562148 -0.000270955 0)
(0.00596707 -0.000284199 0)
(0.00632956 -0.000299382 -3.7947e-30)
(0.00671105 -0.000317434 -4.02352e-30)
(0.00711535 -0.000339712 0)
(0.00754849 -0.000368137 0)
(0.00801936 -0.000405501 -5.14631e-30)
(0.00854091 -0.000456038 0)
(0.009132 -0.000526537 0)
(0.00982049 -0.000628501 8.00726e-30)
(0.010647 -0.000782544 0)
(0.0116604 -0.00102734 1.31404e-29)
(0.0127689 -0.00143406 3.67682e-29)
(0.00758621 -0.00204307 0)
(0.00092618 -2.98884e-05 0)
(1.01745e-10 -4.78398e-14 0)
(1.19739e-31 5.99392e-33 0)
(1.13307e-31 4.1168e-33 0)
(1.08099e-31 3.26539e-33 -8.69606e-59)
(1.03833e-31 2.66953e-33 -7.14571e-59)
(1.00236e-31 2.24066e-33 -6.02862e-59)
(9.71246e-32 1.92396e-33 0)
(9.43772e-32 1.68296e-33 4.57316e-59)
(9.19102e-32 1.4933e-33 0)
(8.9667e-32 1.3389e-33 -3.67268e-59)
(8.76084e-32 1.20932e-33 -3.33286e-59)
(8.57067e-32 1.0978e-33 0)
(8.39416e-32 9.99986e-34 0)
(8.22974e-32 9.12994e-34 0)
(8.07618e-32 8.34863e-34 -2.34874e-59)
(7.93244e-32 7.64187e-34 0)
(7.79766e-32 6.99907e-34 0)
(7.67109e-32 6.41186e-34 0)
(7.55208e-32 5.8734e-34 0)
(7.44006e-32 5.37799e-34 0)
(7.33452e-32 4.9208e-34 0)
(7.235e-32 4.49776e-34 0)
(7.14111e-32 4.1054e-34 0)
(7.05247e-32 3.74075e-34 1.13347e-59)
(6.96876e-32 3.40127e-34 0)
(6.88967e-32 3.08473e-34 0)
(6.81494e-32 2.78922e-34 -8.81892e-60)
(6.74429e-32 2.51305e-34 -8.08838e-60)
(6.67751e-32 2.25471e-34 0)
(6.61436e-32 2.01286e-34 6.7647e-60)
(6.55466e-32 1.78628e-34 -6.16493e-60)
(6.4982e-32 1.57388e-34 0)
(6.44481e-32 1.37468e-34 5.07505e-60)
(6.39433e-32 1.18776e-34 0)
(6.3466e-32 1.0123e-34 0)
(6.30147e-32 8.4753e-35 -3.67853e-60)
(6.25881e-32 6.92761e-35 0)
(6.21849e-32 5.47349e-35 2.883e-60)
(6.18039e-32 4.10701e-35 0)
(6.14439e-32 2.8227e-35 -2.18031e-60)
(6.11039e-32 1.61552e-35 -1.86022e-60)
(6.07827e-32 4.80755e-36 -1.55931e-60)
(6.04795e-32 -5.8594e-36 -2.55282e-60)
(6.01933e-32 -1.58862e-35 2.02096e-60)
(5.99233e-32 -2.53107e-35 0)
(5.96685e-32 -3.41682e-35 0)
(5.94283e-32 -4.24916e-35 0)
(5.92019e-32 -5.03118e-35 1.94356e-61)
(5.89886e-32 -5.76579e-35 -1.95487e-61)
(5.87876e-32 -6.4557e-35 5.61662e-61)
(5.85983e-32 -7.10348e-35 0)
(5.84202e-32 -7.71152e-35 -1.22826e-60)
(5.82526e-32 -8.28211e-35 -1.53113e-60)
(5.80951e-32 -8.81737e-35 -1.8153e-60)
(5.79469e-32 -9.31933e-35 0)
(5.78077e-32 -9.7899e-35 0)
(5.7677e-32 -1.02309e-34 0)
(5.75543e-32 -1.06439e-34 -2.78515e-60)
(5.74391e-32 -1.10307e-34 0)
(5.73311e-32 -1.13928e-34 0)
(5.72298e-32 -1.17315e-34 3.36274e-60)
(5.7135e-32 -1.20483e-34 0)
(5.70462e-32 -1.23443e-34 0)
(5.6963e-32 -1.2621e-34 3.83518e-60)
(5.68852e-32 -1.28793e-34 0)
(5.68125e-32 -1.31205e-34 0)
(5.67445e-32 -1.33455e-34 -4.22005e-60)
(5.6681e-32 -1.35553e-34 -4.33151e-60)
(5.66218e-32 -1.37508e-34 0)
(5.65665e-32 -1.39329e-34 4.53215e-60)
(5.65149e-32 -1.41025e-34 0)
(5.64668e-32 -1.42603e-34 -4.70611e-60)
(5.64221e-32 -1.4407e-34 0)
(5.63804e-32 -1.45434e-34 -4.85655e-60)
(5.63416e-32 -1.46701e-34 -4.92392e-60)
(5.63056e-32 -1.47878e-34 0)
(5.62721e-32 -1.48969e-34 0)
(5.6241e-32 -1.49981e-34 0)
(5.62121e-32 -1.50919e-34 0)
(5.61854e-32 -1.51788e-34 0)
(5.61605e-32 -1.52592e-34 0)
(5.61376e-32 -1.53336e-34 0)
(5.61163e-32 -1.54023e-34 -5.31308e-60)
(5.60966e-32 -1.54659e-34 5.34687e-60)
(5.60784e-32 -1.55245e-34 0)
(5.60615e-32 -1.55786e-34 0)
(5.6046e-32 -1.56285e-34 0)
(5.60317e-32 -1.56745e-34 0)
(5.60184e-32 -1.57168e-34 1.09606e-59)
(5.60062e-32 -1.57557e-34 0)
(5.5995e-32 -1.57915e-34 -1.104e-59)
(5.59847e-32 -1.58243e-34 1.10749e-59)
(5.59752e-32 -1.58545e-34 0)
(5.59664e-32 -1.58821e-34 0)
(5.59584e-32 -1.59075e-34 0)
(5.5951e-32 -1.59306e-34 -1.1188e-59)
(5.59443e-32 -1.59518e-34 -1.12105e-59)
(5.59381e-32 -1.59711e-34 0)
(5.59324e-32 -1.59887e-34 -1.12498e-59)
(5.59271e-32 -1.60047e-34 -1.12669e-59)
(5.59223e-32 -1.60192e-34 1.12823e-59)
(5.59179e-32 -1.60323e-34 0)
(5.59139e-32 -1.6044e-34 0)
(5.59102e-32 -1.60546e-34 1.132e-59)
(5.59067e-32 -1.60639e-34 0)
(5.59036e-32 -1.60721e-34 0)
(5.59006e-32 -1.60791e-34 0)
(5.58979e-32 -1.60851e-34 0)
(5.58953e-32 -1.60899e-34 -1.1358e-59)
(5.58928e-32 -1.60935e-34 -1.13619e-59)
(5.58904e-32 -1.60958e-34 0)
(5.5888e-32 -1.60968e-34 -1.13658e-59)
(5.58856e-32 -1.60963e-34 0)
(5.58832e-32 -1.60939e-34 0)
(5.58806e-32 -1.60895e-34 -1.1359e-59)
(5.58777e-32 -1.60826e-34 0)
(5.58746e-32 -1.60728e-34 -1.13422e-59)
(5.58709e-32 -1.60592e-34 0)
(5.58667e-32 -1.60411e-34 0)
(5.58616e-32 -1.60172e-34 -1.1286e-59)
(5.58554e-32 -1.59861e-34 0)
(5.58478e-32 -1.59457e-34 -1.12134e-59)
(5.58384e-32 -1.58935e-34 0)
(5.58265e-32 -1.58258e-34 0)
(5.58114e-32 -1.57381e-34 0)
(5.57922e-32 -1.5624e-34 1.0886e-59)
(5.57675e-32 -1.54748e-34 0)
(5.57355e-32 -1.52783e-34 -1.05339e-59)
(5.56939e-32 -1.50171e-34 0)
(5.56392e-32 -1.46655e-34 0)
(5.55666e-32 -1.41843e-34 0)
(5.54689e-32 -1.35104e-34 0)
(5.53352e-32 -1.25367e-34 0)
(5.51476e-32 -1.10639e-34 0)
(5.48743e-32 -8.67561e-35 0)
(5.4451e-32 -4.33942e-35 -1.31069e-60)
(5.3715e-32 5.25492e-35 0)
(5.2084e-32 3.53397e-34 0)
(0.000109837 -0.000650552 8.40427e-30)
(0.000330544 -0.000650228 -8.39227e-30)
(0.000553021 -0.00064972 0)
(0.000777273 -0.000649006 1.67397e-29)
(0.00100331 -0.000648062 0)
(0.00123115 -0.000646909 -8.34656e-30)
(0.00146092 -0.000645595 -1.66192e-29)
(0.00169281 -0.000644181 -1.65717e-29)
(0.00192705 -0.000642729 0)
(0.00216394 -0.000641309 -1.64752e-29)
(0.00240373 -0.000640001 8.24345e-30)
(0.00264668 -0.000638904 0)
(0.00289297 -0.000638139 0)
(0.00314269 -0.000637852 0)
(0.00339585 -0.000638219 0)
(0.00365232 -0.000639444 8.2215e-30)
(0.00391186 -0.00064175 0)
(0.00417418 -0.000645375 1.64854e-29)
(0.00443895 -0.000650562 0)
(0.00470587 -0.000657554 0)
(0.00497471 -0.000666578 -1.69957e-29)
(0.0052453 -0.000677841 0)
(0.00551759 -0.000691519 1.76148e-29)
(0.00579166 -0.000707762 9.07923e-30)
(0.00606788 -0.000726712 -9.3209e-30)
(0.00634703 -0.000748557 9.59994e-30)
(0.00663032 -0.000773618 9.9205e-30)
(0.0069195 -0.000802491 0)
(0.00721683 -0.000836208 0)
(0.00752508 -0.000876391 -1.12383e-29)
(0.00784762 -0.000925426 -3.54193e-29)
(0.00818844 -0.000986689 0)
(0.00855247 -0.00106493 0)
(0.00894576 -0.00116692 -1.49765e-29)
(0.00937579 -0.00130264 0)
(0.00985142 -0.00148727 0)
(0.0103817 -0.00174474 2.24277e-29)
(0.0109717 -0.00211401 0)
(0.0116064 -0.00265975 1.02444e-28)
(0.0121941 -0.00348488 8.97941e-29)
(0.0122296 -0.00464733 0)
(0.00606779 -0.00312838 0)
(6.59933e-05 -4.8127e-05 -2.48187e-30)
(2.01256e-15 -1.13044e-12 -5.84423e-38)
(1.07911e-31 1.55542e-32 8.14322e-58)
(1.05971e-31 9.55451e-33 -7.53444e-58)
(1.0234e-31 7.96833e-33 -2.08393e-58)
(9.9159e-32 6.80478e-33 1.82922e-58)
(9.63267e-32 5.93518e-33 -3.15938e-58)
(9.37667e-32 5.26516e-33 1.38315e-58)
(9.1427e-32 4.7306e-33 0)
(8.92718e-32 4.28952e-33 -1.12989e-58)
(8.72759e-32 3.91489e-33 -3.13895e-58)
(8.54206e-32 3.58942e-33 0)
(8.36912e-32 3.30195e-33 0)
(8.20757e-32 3.04504e-33 0)
(8.05637e-32 2.81357e-33 -7.4631e-59)
(7.91463e-32 2.60374e-33 0)
(7.78157e-32 2.41263e-33 -1.32079e-58)
(7.65649e-32 2.23787e-33 0)
(7.53879e-32 2.0775e-33 -1.14523e-58)
(7.42792e-32 1.92984e-33 0)
(7.3234e-32 1.79351e-33 9.96379e-59)
(7.22479e-32 1.66729e-33 0)
(7.13171e-32 1.55017e-33 -8.68765e-59)
(7.0438e-32 1.44127e-33 1.20083e-58)
(6.96075e-32 1.33986e-33 0)
(6.88227e-32 1.24527e-33 7.08782e-59)
(6.80808e-32 1.15694e-33 -3.15136e-59)
(6.73794e-32 1.07438e-33 -2.93629e-59)
(6.67161e-32 9.97132e-34 0)
(6.60889e-32 9.24803e-34 7.95182e-59)
(6.54957e-32 8.57032e-34 -2.37001e-59)
(6.49347e-32 7.93497e-34 0)
(6.44041e-32 7.339e-34 2.04914e-59)
(6.39024e-32 6.77973e-34 4.10851e-59)
(6.34279e-32 6.25468e-34 0)
(6.29793e-32 5.7616e-34 -1.63803e-59)
(6.25551e-32 5.2984e-34 0)
(6.21542e-32 4.86317e-34 -1.69732e-59)
(6.17752e-32 4.45414e-34 0)
(6.14172e-32 4.06969e-34 1.48699e-59)
(6.1079e-32 3.70831e-34 -1.10278e-59)
(6.07595e-32 3.36858e-34 -3.32951e-59)
(6.04579e-32 3.04922e-34 -6.15659e-59)
(6.01732e-32 2.74901e-34 5.68425e-59)
(5.99045e-32 2.46682e-34 0)
(5.96511e-32 2.2016e-34 0)
(5.94121e-32 1.95236e-34 0)
(5.91868e-32 1.71818e-34 -1.72669e-59)
(5.89744e-32 1.49819e-34 1.05301e-59)
(5.87744e-32 1.29158e-34 -9.45255e-60)
(5.85861e-32 1.09759e-34 0)
(5.84088e-32 9.15487e-35 2.79887e-59)
(5.82421e-32 7.44601e-35 6.59962e-60)
(5.80852e-32 5.84291e-35 5.76342e-60)
(5.79378e-32 4.33952e-35 0)
(5.77992e-32 2.93014e-35 0)
(5.76691e-32 1.60938e-35 0)
(5.75469e-32 3.72134e-36 2.90968e-60)
(5.74323e-32 -7.86402e-36 0)
(5.73248e-32 -1.87079e-35 8.89278e-60)
(5.7224e-32 -2.88534e-35 6.61442e-60)
(5.71296e-32 -3.83413e-35 -6.82592e-60)
(5.70411e-32 -4.72103e-35 0)
(5.69584e-32 -5.54968e-35 -4.8401e-60)
(5.68809e-32 -6.32354e-35 0)
(5.68085e-32 -7.04589e-35 -3.4444e-60)
(5.67408e-32 -7.71982e-35 1.42293e-60)
(5.66776e-32 -8.34825e-35 4.33376e-61)
(5.66186e-32 -8.93396e-35 0)
(5.65636e-32 -9.47956e-35 3.11173e-60)
(5.65122e-32 -9.98752e-35 -3.46821e-61)
(5.64644e-32 -1.04602e-34 -2.74163e-60)
(5.64198e-32 -1.08998e-34 0)
(5.63783e-32 -1.13084e-34 -3.18417e-60)
(5.63397e-32 -1.16879e-34 -1.93837e-60)
(5.63038e-32 -1.20403e-34 0)
(5.62705e-32 -1.23673e-34 2.15942e-60)
(5.62395e-32 -1.26705e-34 2.47876e-60)
(5.62108e-32 -1.29515e-34 2.77473e-60)
(5.61841e-32 -1.32117e-34 0)
(5.61594e-32 -1.34526e-34 0)
(5.61365e-32 -1.36755e-34 0)
(5.61153e-32 -1.38815e-34 -8.28117e-60)
(5.60957e-32 -1.40718e-34 4.62618e-60)
(5.60775e-32 -1.42475e-34 0)
(5.60608e-32 -1.44095e-34 -4.31068e-60)
(5.60453e-32 -1.4559e-34 -4.4681e-60)
(5.6031e-32 -1.46967e-34 0)
(5.60179e-32 -1.48234e-34 1.00369e-59)
(5.60057e-32 -1.494e-34 -9.73916e-60)
(5.59946e-32 -1.50472e-34 -1.02705e-59)
(5.59843e-32 -1.51457e-34 2.05459e-59)
(5.59748e-32 -1.5236e-34 0)
(5.59661e-32 -1.53189e-34 0)
(5.59581e-32 -1.53948e-34 0)
(5.59508e-32 -1.54642e-34 -1.07057e-59)
(5.5944e-32 -1.55276e-34 -2.17495e-59)
(5.59378e-32 -1.55855e-34 -1.10995e-59)
(5.59322e-32 -1.56382e-34 -1.08874e-59)
(5.5927e-32 -1.56861e-34 -2.22491e-59)
(5.59222e-32 -1.57295e-34 1.09827e-59)
(5.59178e-32 -1.57687e-34 0)
(5.59138e-32 -1.5804e-34 0)
(5.59101e-32 -1.58355e-34 2.27206e-59)
(5.59066e-32 -1.58635e-34 0)
(5.59035e-32 -1.5888e-34 0)
(5.59005e-32 -1.59092e-34 -1.1783e-59)
(5.58978e-32 -1.5927e-34 0)
(5.58952e-32 -1.59414e-34 -2.30561e-59)
(5.58927e-32 -1.59522e-34 -1.12159e-59)
(5.58903e-32 -1.59593e-34 0)
(5.5888e-32 -1.59623e-34 -2.31243e-59)
(5.58856e-32 -1.59607e-34 0)
(5.58832e-32 -1.59537e-34 0)
(5.58806e-32 -1.59406e-34 -1.1205e-59)
(5.58778e-32 -1.59201e-34 -1.18143e-59)
(5.58747e-32 -1.58907e-34 -1.11539e-59)
(5.58711e-32 -1.58503e-34 0)
(5.58669e-32 -1.57962e-34 0)
(5.58619e-32 -1.5725e-34 -2.24006e-59)
(5.58558e-32 -1.56321e-34 0)
(5.58483e-32 -1.55117e-34 -2.17452e-59)
(5.5839e-32 -1.53557e-34 0)
(5.58273e-32 -1.51539e-34 0)
(5.58124e-32 -1.48923e-34 0)
(5.57935e-32 -1.4552e-34 9.77747e-60)
(5.57692e-32 -1.41072e-34 0)
(5.57378e-32 -1.35217e-34 -8.71742e-60)
(5.56969e-32 -1.27438e-34 0)
(5.56432e-32 -1.16976e-34 0)
(5.55721e-32 -1.02674e-34 -2.40229e-61)
(5.54767e-32 -8.26885e-35 -3.85666e-60)
(5.53467e-32 -5.3897e-35 0)
(5.51655e-32 -1.05776e-35 0)
(5.49053e-32 5.8947e-35 0)
(5.45143e-32 1.82313e-34 6.85903e-59)
(5.38932e-32 4.39667e-34 0)
(5.29134e-32 1.13297e-33 -5.08562e-58)
(0.000117949 -0.00115231 5.95588e-29)
(0.000354953 -0.00115186 -8.44206e-33)
(0.000593808 -0.00115105 0)
(0.000834446 -0.00114991 1.97625e-32)
(0.00107681 -0.0011484 0)
(0.00132086 -0.00114661 0)
(0.00156663 -0.00114466 -5.89924e-29)
(0.00181426 -0.00114269 -2.94523e-29)
(0.00206392 -0.00114085 2.93439e-29)
(0.00231582 -0.00113922 -2.93388e-29)
(0.00257023 -0.00113792 0)
(0.00282736 -0.00113703 0)
(0.00308744 -0.00113663 -2.91625e-29)
(0.0033506 -0.0011368 -5.82962e-29)
(0.00361686 -0.0011376 5.83e-29)
(0.00388612 -0.00113912 0)
(0.00415806 -0.00114145 5.84223e-29)
(0.00443224 -0.00114473 2.93813e-29)
(0.00470806 -0.00114916 0)
(0.00498487 -0.001155 5.90058e-29)
(0.00526206 -0.00116258 -2.98033e-29)
(0.00553911 -0.00117227 -5.98198e-29)
(0.0058157 -0.00118452 3.03445e-29)
(0.00609175 -0.00119988 0)
(0.00636744 -0.00121896 6.21165e-29)
(0.0066433 -0.00124255 6.32972e-29)
(0.00692015 -0.00127165 0)
(0.00719921 -0.00130754 6.65781e-29)
(0.00748203 -0.00135194 0)
(0.00777048 -0.00140717 7.16478e-29)
(0.0080667 -0.00147632 -3.77811e-29)
(0.00837302 -0.0015636 0)
(0.00869187 -0.00167472 0)
(0.00902552 -0.00181746 0)
(0.00937552 -0.0020026 0)
(0.00974147 -0.00224515 0)
(0.0101186 -0.00256598 0)
(0.0104926 -0.00299368 1.53283e-28)
(0.0108303 -0.00356518 -9.11344e-29)
(0.0110612 -0.00432002 0)
(0.0110408 -0.00526817 0)
(0.0103525 -0.00618379 0)
(0.00496981 -0.00340266 -3.50653e-28)
(8.87044e-05 -0.00033109 -1.71085e-29)
(-7.2792e-12 -2.81243e-08 -2.68855e-39)
(1.11962e-31 3.573e-32 5.28282e-60)
(9.98211e-32 1.23551e-32 6.52881e-58)
(9.72999e-32 1.07377e-32 5.64313e-58)
(9.4922e-32 9.52396e-33 -1.00716e-57)
(9.26698e-32 8.56434e-33 -4.55891e-58)
(9.054e-32 7.77496e-33 0)
(8.85318e-32 7.10449e-33 -3.79833e-58)
(8.66429e-32 6.5212e-33 -6.9473e-58)
(8.48689e-32 6.00519e-33 0)
(8.32041e-32 5.54358e-33 0)
(8.16415e-32 5.12756e-33 2.76653e-58)
(8.01743e-32 4.75066e-33 0)
(7.87953e-32 4.40781e-33 0)
(7.7498e-32 4.09479e-33 -6.6436e-58)
(7.62763e-32 3.80806e-33 -4.15353e-58)
(7.51248e-32 3.54455e-33 -1.90343e-58)
(7.40387e-32 3.30163e-33 0)
(7.30135e-32 3.07708e-33 1.65976e-58)
(7.20452e-32 2.86898e-33 0)
(7.11304e-32 2.6757e-33 -4.4186e-58)
(7.02658e-32 2.49586e-33 1.35668e-58)
(6.94484e-32 2.32825e-33 2.6041e-58)
(6.86754e-32 2.17183e-33 3.62784e-58)
(6.79444e-32 2.0257e-33 0)
(6.72529e-32 1.88904e-33 -2.14375e-58)
(6.65988e-32 1.76113e-33 0)
(6.59799e-32 1.64133e-33 -9.73162e-59)
(6.53944e-32 1.52905e-33 -1.76627e-58)
(6.48405e-32 1.42376e-33 -1.65583e-58)
(6.43165e-32 1.32498e-33 1.55221e-58)
(6.38209e-32 1.23226e-33 -7.57601e-59)
(6.3352e-32 1.1452e-33 0)
(6.29086e-32 1.06342e-33 0)
(6.24893e-32 9.8659e-34 1.19714e-58)
(6.20928e-32 9.14387e-34 5.90001e-59)
(6.17181e-32 8.46522e-34 0)
(6.1364e-32 7.82725e-34 4.62609e-59)
(6.10293e-32 7.22749e-34 0)
(6.07133e-32 6.66362e-34 4.5917e-59)
(6.04148e-32 6.13349e-34 -1.55364e-58)
(6.0133e-32 5.63511e-34 1.44925e-58)
(5.98671e-32 5.16661e-34 -7.03822e-59)
(5.96162e-32 4.72624e-34 0)
(5.93796e-32 4.31238e-34 6.14117e-59)
(5.91565e-32 3.9235e-34 -1.09069e-58)
(5.89463e-32 3.55817e-34 0)
(5.87482e-32 3.21504e-34 0)
(5.85617e-32 2.89284e-34 0)
(5.83861e-32 2.59038e-34 3.78115e-59)
(5.82209e-32 2.30653e-34 0)
(5.80656e-32 2.04025e-34 0)
(5.79195e-32 1.79051e-34 0)
(5.77822e-32 1.55638e-34 0)
(5.76533e-32 1.33697e-34 0)
(5.75323e-32 1.13143e-34 -2.79981e-59)
(5.74187e-32 9.38952e-35 0)
(5.73122e-32 7.58793e-35 1.86705e-59)