/*--------------------------------*- C++ -*----------------------------------*\
  =========                 |
  \\      /  F ield         | OpenFOAM: The Open Source CFD Toolbox
   \\    /   O peration     | Website:  https://openfoam.org
    \\  /    A nd           | Version:  10
     \\/     M anipulation  |
\*---------------------------------------------------------------------------*/
FoamFile
{
    format      ascii;
    class       surfaceScalarField;
    location    "1.3";
    object      phi;
}
// * * * * * * * * * * * * * * * * * * * * * * * * * * * * * * * * * * * * * //

dimensions      [0 3 -1 0 0 0 0];

internalField   nonuniform List<scalar> 
24170
(
6.46278e-10
-6.46278e-10
1.20539e-09
-5.59111e-10
1.66177e-09
-4.56383e-10
2.0243e-09
-3.62529e-10
2.31193e-09
-2.87625e-10
2.54482e-09
-2.32891e-10
2.7407e-09
-1.95877e-10
2.91414e-09
-1.73444e-10
3.07721e-09
-1.63067e-10
3.24055e-09
-1.63341e-10
3.41479e-09
-1.74243e-10
3.6124e-09
-1.9761e-10
3.85073e-09
-2.38326e-10
4.15823e-09
-3.07499e-10
4.5901e-09
-4.31869e-10
5.27793e-09
-6.87834e-10
6.64441e-09
-1.36648e-09
-4.11707e-09
1.07615e-08
9.18997e-10
-1.56528e-09
1.71085e-09
-1.35096e-09
2.35476e-09
-1.1003e-09
2.86508e-09
-8.72841e-10
3.26987e-09
-6.92417e-10
3.59826e-09
-5.61282e-10
3.8754e-09
-4.73016e-10
4.12169e-09
-4.19735e-10
4.3538e-09
-3.9518e-10
4.58629e-09
-3.95826e-10
4.8335e-09
-4.21454e-10
5.11204e-09
-4.76156e-10
5.44463e-09
-5.70911e-10
5.86741e-09
-7.30285e-10
6.44668e-09
-1.01113e-09
7.3209e-09
-1.56206e-09
8.79597e-09
-2.84155e-09
-6.45827e-09
1.11372e-08
1.15441e-09
-2.71969e-09
2.14057e-09
-2.33711e-09
2.9341e-09
-1.89383e-09
3.55637e-09
-1.49511e-09
4.0453e-09
-1.18136e-09
4.43894e-09
-9.54912e-10
4.76934e-09
-8.03416e-10
5.06203e-09
-7.12429e-10
5.33748e-09
-6.70632e-10
5.6132e-09
-6.71543e-10
5.90604e-09
-7.14298e-10
6.23495e-09
-8.05059e-10
6.62473e-09
-9.60694e-10
7.11243e-09
-1.21798e-09
7.75829e-09
-1.65699e-09
8.65949e-09
-2.46326e-09
9.90849e-09
-4.09055e-09
-7.55905e-09
1.10093e-08
1.40617e-09
-4.12586e-09
2.59395e-09
-3.5249e-09
3.53667e-09
-2.83656e-09
4.26581e-09
-2.22425e-09
4.83165e-09
-1.74719e-09
5.28254e-09
-1.40581e-09
5.65814e-09
-1.17901e-09
5.98923e-09
-1.04352e-09
6.29991e-09
-9.81309e-10
6.61023e-09
-9.81865e-10
6.93883e-09
-1.0429e-09
7.30564e-09
-1.17186e-09
7.73495e-09
-1.39001e-09
8.25912e-09
-1.74216e-09
8.92062e-09
-2.31849e-09
9.75735e-09
-3.29999e-09
1.06969e-08
-5.03007e-09
-7.97141e-09
1.11092e-08
1.69399e-09
-5.81984e-09
3.10453e-09
-4.93543e-09
4.20469e-09
-3.93672e-09
5.04103e-09
-3.06059e-09
5.68017e-09
-2.38633e-09
6.18315e-09
-1.90878e-09
6.59825e-09
-1.59412e-09
6.96187e-09
-1.40714e-09
7.30166e-09
-1.3211e-09
7.63979e-09
-1.32e-09
7.99589e-09
-1.399e-09
8.38942e-09
-1.56539e-09
8.84161e-09
-1.84219e-09
9.37561e-09
-2.27616e-09
1.001e-08
-2.95293e-09
1.07279e-08
-4.01789e-09
1.13725e-08
-5.67459e-09
-8.02357e-09
1.14246e-08
2.03578e-09
-7.85562e-09
3.70013e-09
-6.59978e-09
4.96975e-09
-5.20634e-09
5.9142e-09
-4.00505e-09
6.62237e-09
-3.0945e-09
7.1712e-09
-2.45761e-09
7.61908e-09
-2.04199e-09
8.00842e-09
-1.79648e-09
8.37027e-09
-1.68294e-09
8.72842e-09
-1.67815e-09
9.10254e-09
-1.77313e-09
9.5102e-09
-1.97306e-09
9.96732e-09
-2.2993e-09
1.04852e-08
-2.79403e-09
1.10587e-08
-3.52639e-09
1.16326e-08
-4.59183e-09
1.20314e-08
-6.07334e-09
-7.8902e-09
1.1898e-08
2.4538e-09
-1.03094e-08
4.4131e-09
-8.55909e-09
5.86582e-09
-6.65906e-09
6.91713e-09
-5.05636e-09
7.68684e-09
-3.86421e-09
8.27218e-09
-3.04295e-09
8.74336e-09
-2.51317e-09
9.1492e-09
-2.20233e-09
9.52388e-09
-2.05762e-09
9.89212e-09
-2.0464e-09
1.02727e-08
-2.15368e-09
1.06799e-08
-2.38025e-09
1.11229e-08
-2.7423e-09
1.16007e-08
-3.27184e-09
1.20891e-08
-4.01478e-09
1.25145e-08
-5.01726e-09
1.2721e-08
-6.27986e-09
-7.6591e-09
1.24899e-08
2.9794e-09
-1.32888e-08
5.28633e-09
-1.0866e-08
6.93496e-09
-8.30769e-09
8.08657e-09
-6.20797e-09
8.90442e-09
-4.68206e-09
9.51174e-09
-3.65026e-09
9.99246e-09
-2.99389e-09
1.0402e-08
-2.6119e-09
1.07772e-08
-2.43281e-09
1.11429e-08
-2.41204e-09
1.15158e-08
-2.52658e-09
1.1906e-08
-2.77052e-09
1.23156e-08
-3.15184e-09
1.27327e-08
-3.68897e-09
1.31213e-08
-4.4034e-09
1.34058e-08
-5.30176e-09
1.34655e-08
-6.33958e-09
-7.37272e-09
1.31791e-08
3.65973e-09
-1.69485e-08
6.3803e-09
-1.35866e-08
8.23271e-09
-1.01601e-08
9.46798e-09
-7.44324e-09
1.0311e-08
-5.52508e-09
1.0918e-08
-4.25725e-09
1.13884e-08
-3.46435e-09
1.17842e-08
-3.00764e-09
1.21437e-08
-2.79229e-09
1.24908e-08
-2.75916e-09
1.28394e-08
-2.87522e-09
1.31948e-08
-3.12594e-09
1.35522e-08
-3.50922e-09
1.38922e-08
-4.02891e-09
1.41739e-08
-4.68517e-09
1.43305e-08
-5.45837e-09
1.42778e-08
-6.28678e-09
-7.05071e-09
1.39557e-08
4.56947e-09
-2.1518e-08
7.78394e-09
-1.68011e-08
9.83482e-09
-1.2211e-08
1.11193e-08
-8.7277e-09
1.19495e-08
-6.35525e-09
1.25226e-08
-4.83043e-09
1.29549e-08
-3.89658e-09
1.33132e-08
-3.36594e-09
1.36361e-08
-3.11525e-09
1.39453e-08
-3.06831e-09
1.42506e-08
-3.18058e-09
1.45525e-08
-3.42777e-09
1.48404e-08
-3.79713e-09
1.50907e-08
-4.27923e-09
1.52639e-08
-4.85841e-09
1.53067e-08
-5.50114e-09
1.51654e-08
-6.14549e-09
-6.70148e-09
1.48162e-08
5.83307e-09
-2.73511e-08
9.63229e-09
-2.06003e-08
1.18467e-08
-1.44254e-08
1.31149e-08
-9.99592e-09
1.38712e-08
-7.1116e-09
1.43615e-08
-5.32066e-09
1.47169e-08
-4.252e-09
1.50067e-08
-3.65579e-09
1.52671e-08
-3.37557e-09
1.55151e-08
-3.31638e-09
1.57561e-08
-3.42154e-09
1.59853e-08
-3.65696e-09
1.61882e-08
-4.0001e-09
1.63401e-08
-4.4311e-09
1.64063e-08
-4.92462e-09
1.63479e-08
-5.44267e-09
1.61339e-08
-5.93156e-09
-6.32779e-09
1.57602e-08
6.38946e-09
-3.37405e-08
1.01342e-08
-2.4345e-08
1.20606e-08
-1.63518e-08
1.30272e-08
-1.09626e-08
1.35325e-08
-7.61684e-09
1.38247e-08
-5.61285e-09
1.40221e-08
-4.44946e-09
1.41804e-08
-3.81409e-09
1.43246e-08
-3.51978e-09
1.44639e-08
-3.45566e-09
1.45978e-08
-3.55539e-09
1.47184e-08
-3.77758e-09
1.48114e-08
-4.09309e-09
1.48563e-08
-4.47606e-09
1.48289e-08
-4.8972e-09
1.47058e-08
-5.31954e-09
1.44728e-08
-5.69864e-09
-5.98905e-09
1.41341e-08
9.61717e-09
-4.33577e-08
1.44864e-08
-2.92143e-08
1.65741e-08
-1.84394e-08
1.74078e-08
-1.17963e-08
1.77297e-08
-7.93878e-09
1.78576e-08
-5.74072e-09
1.79216e-08
-4.51346e-09
1.79729e-08
-3.86539e-09
1.80287e-08
-3.57557e-09
1.80905e-08
-3.5174e-09
1.81509e-08
-3.61583e-09
1.81967e-08
-3.82341e-09
1.82098e-08
-4.10616e-09
1.81685e-08
-4.43476e-09
1.80506e-08
-4.7793e-09
1.78383e-08
-5.1072e-09
1.75243e-08
-5.38468e-09
-5.5818e-09
1.71171e-08
1.56491e-08
-5.90068e-08
2.17007e-08
-3.52659e-08
2.34323e-08
-2.01709e-08
2.36779e-08
-1.2042e-08
2.34977e-08
-7.75856e-09
2.32445e-08
-5.48746e-09
2.30234e-08
-4.29242e-09
2.28563e-08
-3.69833e-09
2.27372e-08
-3.45645e-09
2.26505e-08
-3.43064e-09
2.25767e-08
-3.54204e-09
2.24944e-08
-3.74109e-09
2.23807e-08
-3.99253e-09
2.22133e-08
-4.26731e-09
2.19725e-08
-4.5385e-09
2.16457e-08
-4.78041e-09
2.1231e-08
-4.96994e-09
-5.08963e-09
2.07388e-08
2.87114e-08
-8.77182e-08
3.45975e-08
-4.1152e-08
3.42486e-08
-1.9822e-08
3.28135e-08
-1.06069e-08
3.14885e-08
-6.43355e-09
3.04628e-08
-4.46176e-09
2.97027e-08
-3.5323e-09
2.91407e-08
-3.13629e-09
2.87157e-08
-3.03146e-09
2.83777e-08
-3.09268e-09
2.80856e-08
-3.24992e-09
2.78043e-08
-3.45984e-09
2.75039e-08
-3.69216e-09
2.71597e-08
-3.92305e-09
2.67536e-08
-4.13242e-09
2.62766e-08
-4.30338e-09
2.57297e-08
-4.42306e-09
-4.48376e-09
2.51238e-08
6.36907e-08
-1.51409e-07
5.95184e-08
-3.69796e-08
5.16826e-08
-1.19863e-08
4.61402e-08
-5.06448e-09
4.25071e-08
-2.80041e-09
4.00855e-08
-2.04025e-09
3.8414e-08
-1.86081e-09
3.72127e-08
-1.93498e-09
3.6307e-08
-2.12577e-09
3.55816e-08
-2.36726e-09
3.49568e-08
-2.62505e-09
3.43754e-08
-2.87847e-09
3.37963e-08
-3.11308e-09
3.31912e-08
-3.3179e-09
3.25431e-08
-3.48439e-09
3.18462e-08
-3.60647e-09
3.1104e-08
-3.68087e-09
-3.70736e-09
3.03276e-08
1.92107e-07
1.56224e-07
1.09426e-07
4.57009e-08
7.9466e-08
1.7974e-08
6.56332e-08
8.76827e-09
5.80545e-08
4.77837e-09
5.33843e-08
2.62991e-09
5.025e-08
1.27352e-09
4.79978e-08
3.17183e-10
4.62442e-08
-3.72154e-10
4.47796e-08
-9.02659e-10
4.34948e-08
-1.34025e-09
4.2319e-08
-1.70263e-09
4.12057e-08
-1.99988e-09
4.01262e-08
-2.2384e-09
3.90645e-08
-2.42263e-09
3.80144e-08
-2.55634e-09
3.69769e-08
-2.64338e-09
-2.68819e-09
3.59577e-08
7.773e-08
7.84943e-08
7.83385e-08
4.50924e-08
7.05737e-08
2.57388e-08
6.40024e-08
1.53396e-08
5.92591e-08
9.52162e-09
5.58474e-08
6.04168e-09
5.3307e-08
3.81384e-09
5.13249e-08
2.29931e-09
4.97339e-08
1.21888e-09
4.84136e-08
4.17602e-10
4.72482e-08
-1.74824e-10
4.61501e-08
-6.04532e-10
4.50929e-08
-9.42659e-10
4.40614e-08
-1.20694e-09
4.30485e-08
-1.40975e-09
4.20527e-08
-1.56047e-09
4.1076e-08
-1.66675e-09
-1.73518e-09
4.0123e-08
3.66219e-08
4.18724e-08
5.10783e-08
3.0636e-08
5.55499e-08
2.12672e-08
5.62584e-08
1.4631e-08
5.56685e-08
1.01115e-08
5.46874e-08
7.02283e-09
5.36307e-08
4.87057e-09
5.25959e-08
3.33409e-09
5.16038e-08
2.21097e-09
5.06484e-08
1.37296e-09
4.97357e-08
7.37945e-10
4.88798e-08
2.51315e-10
4.80525e-08
-1.1529e-10
4.72304e-08
-3.84858e-10
4.64132e-08
-5.92525e-10
4.56027e-08
-7.50036e-10
4.48025e-08
-8.66573e-10
-9.49542e-10
4.40169e-08
1.47339e-08
2.71385e-08
2.36685e-08
2.17014e-08
2.85289e-08
1.64068e-08
3.10471e-08
1.21129e-08
3.22946e-08
8.86396e-09
3.28551e-08
6.46239e-09
3.30343e-08
4.6913e-09
3.29928e-08
3.37566e-09
3.28161e-08
2.38761e-09
3.25519e-08
1.63715e-09
3.22283e-08
1.06157e-09
3.18627e-08
6.16953e-10
3.14751e-08
2.72332e-10
3.10852e-08
4.96555e-12
3.06809e-08
-1.88151e-10
3.02676e-08
-3.36776e-10
2.98507e-08
-4.49677e-10
-5.33535e-10
2.94347e-08
8.59834e-09
1.85402e-08
1.47729e-08
1.55268e-08
1.88441e-08
1.23356e-08
2.14324e-08
9.52467e-09
2.30514e-08
7.2449e-09
2.40496e-08
5.46416e-09
2.46471e-08
4.09387e-09
2.49799e-08
3.04278e-09
2.51332e-08
2.23437e-09
2.51609e-08
1.60943e-09
2.50988e-08
1.12372e-09
2.49711e-08
7.4458e-10
2.47955e-08
4.47907e-10
2.45848e-08
2.15749e-10
2.4362e-08
3.46463e-11
2.41243e-08
-9.90899e-11
2.38752e-08
-2.00603e-10
-2.77909e-10
2.36196e-08
5.55041e-09
1.29898e-08
9.89923e-09
1.1178e-08
1.30738e-08
9.16112e-09
1.53109e-08
7.28755e-09
1.68611e-08
5.6947e-09
1.79244e-08
4.40081e-09
1.8645e-08
3.37331e-09
1.91224e-08
2.56534e-09
1.9425e-08
1.93175e-09
1.96e-08
1.43449e-09
1.96804e-08
1.04333e-09
1.969e-08
7.34942e-10
1.96464e-08
4.91482e-10
1.95629e-08
2.99322e-10
1.94495e-08
1.48001e-10
1.9321e-08
2.9412e-11
1.91794e-08
-5.89722e-11
-1.2586e-10
1.90273e-08
3.81778e-09
9.17198e-09
6.96497e-09
8.03083e-09
9.40725e-09
6.71884e-09
1.1239e-08
5.45577e-09
1.25876e-08
4.34611e-09
1.35695e-08
3.41897e-09
1.42775e-08
2.66531e-09
1.47815e-08
2.06133e-09
1.51328e-08
1.58039e-09
1.53691e-08
1.19824e-09
1.55179e-08
8.94551e-10
1.55998e-08
6.53044e-10
1.56304e-08
4.60897e-10
1.56216e-08
3.08099e-10
1.55828e-08
1.86827e-10
1.55212e-08
9.09423e-11
1.54467e-08
1.55953e-11
-4.04562e-11
1.53613e-08
2.7365e-09
6.43548e-09
5.0661e-09
5.70123e-09
6.94691e-09
4.83803e-09
8.41657e-09
3.98611e-09
9.5427e-09
3.21998e-09
1.0395e-08
2.56663e-09
1.10341e-08
2.02623e-09
1.15086e-08
1.58684e-09
1.18562e-08
1.23276e-09
1.21059e-08
9.48616e-10
1.22795e-08
7.2093e-10
1.2394e-08
5.38557e-10
1.24624e-08
3.92512e-10
1.24948e-08
2.75646e-10
1.24993e-08
1.82291e-10
1.24823e-08
1.07951e-10
1.24489e-08
4.90555e-11
2.75944e-12
1.24057e-08
2.01411e-09
4.42138e-09
3.76616e-09
3.94918e-09
5.21925e-09
3.38493e-09
6.38728e-09
2.81808e-09
7.30761e-09
2.29965e-09
8.02338e-09
1.85085e-09
8.5748e-09
1.4748e-09
8.99596e-09
1.16568e-09
9.31446e-09
9.14266e-10
9.55214e-09
7.10935e-10
9.72614e-09
5.4693e-10
9.84989e-09
4.14808e-10
9.93395e-09
3.08456e-10
9.98666e-09
2.22928e-10
1.00147e-08
1.54253e-10
1.00234e-08
9.92457e-11
1.00171e-08
5.53627e-11
2.05773e-11
9.99928e-09
1.50534e-09
2.91603e-09
2.83475e-09
2.61977e-09
3.95839e-09
2.26129e-09
4.88002e-09
1.89646e-09
5.621e-09
1.55867e-09
6.20884e-09
1.26301e-09
6.67076e-09
1.01288e-09
7.03087e-09
8.05569e-10
7.30936e-09
6.35782e-10
7.52264e-09
4.97655e-10
7.68388e-09
3.85688e-10
7.80358e-09
2.95105e-10
7.89012e-09
2.21917e-10
7.95019e-09
1.62855e-10
7.98919e-09
1.15255e-10
8.01148e-09
7.69499e-11
8.02065e-09
4.61996e-11
2.16654e-11
8.01956e-09
1.1307e-09
1.78533e-09
2.14017e-09
1.61031e-09
3.0051e-09
1.39636e-09
3.72504e-09
1.17652e-09
4.31256e-09
9.71147e-10
4.78562e-09
7.89943e-10
5.16293e-09
6.35574e-10
5.46164e-09
5.06867e-10
5.69648e-09
4.00935e-10
5.87973e-09
3.14408e-10
6.02137e-09
2.44045e-10
6.1295e-09
1.8698e-10
6.21063e-09
1.40791e-10
6.27002e-09
1.03466e-10
6.31193e-09
7.33399e-11
6.33987e-09
4.9015e-11
6.35673e-09
2.934e-11
1.35616e-11
6.36483e-09
8.41879e-10
9.43452e-10
1.59946e-09
8.52728e-10
2.25498e-09
7.40837e-10
2.80646e-09
6.25037e-10
3.26143e-09
5.16176e-10
3.63177e-09
4.19603e-10
3.93039e-09
3.36963e-10
4.16943e-09
2.67818e-10
4.3596e-09
2.10765e-10
4.50992e-09
1.64092e-10
4.62784e-09
1.26119e-10
4.71948e-09
9.53395e-11
4.78981e-09
7.04679e-11
4.84285e-09
5.0425e-11
4.88189e-09
3.43022e-11
4.90963e-09
2.12737e-11
4.92842e-09
1.05502e-11
1.95887e-12
4.94002e-09
6.01711e-10
3.41741e-10
1.14602e-09
3.08422e-10
1.61988e-09
2.66979e-10
2.02103e-09
2.23881e-10
2.35397e-09
1.83235e-10
2.62646e-09
1.47113e-10
2.84723e-09
1.1619e-10
3.02471e-09
9.03432e-11
3.1664e-09
6.90723e-11
3.27875e-09
5.17476e-11
3.36712e-09
3.77418e-11
3.43598e-09
2.64884e-11
3.48894e-09
1.74993e-11
3.52901e-09
1.03629e-11
3.55857e-09
4.7344e-12
3.57954e-09
3.07831e-13
3.59223e-09
-2.1421e-12
-3.94509e-12
3.59814e-09
3.41741e-10
6.50163e-10
9.17142e-10
1.14102e-09
1.32426e-09
1.47137e-09
1.58756e-09
1.6779e-09
1.74698e-09
1.79872e-09
1.83647e-09
1.86295e-09
1.88045e-09
1.89082e-09
1.89555e-09
1.89586e-09
1.89372e-09
1.88977e-09
2.69718e-10
-2.69718e-10
5.36143e-10
-2.66426e-10
7.99307e-10
-2.63164e-10
1.06142e-09
-2.62109e-10
1.32446e-09
-2.63041e-10
1.58963e-09
-2.65171e-10
1.85739e-09
-2.67766e-10
2.12771e-09
-2.70318e-10
2.40024e-09
-2.72527e-10
2.67447e-09
-2.74235e-10
2.94985e-09
-2.75372e-10
3.22576e-09
-2.75914e-10
3.50163e-09
-2.75866e-10
3.77687e-09
-2.75247e-10
4.05095e-09
-2.7408e-10
4.32335e-09
-2.72401e-10
4.5936e-09
-2.70249e-10
4.86128e-09
-2.67678e-10
5.12604e-09
-2.64757e-10
5.38761e-09
-2.61571e-10
5.64583e-09
-2.58224e-10
5.90066e-09
-2.54831e-10
6.15217e-09
-2.51508e-10
6.40052e-09
-2.48343e-10
6.64588e-09
-2.45366e-10
6.88839e-09
-2.42505e-10
7.12795e-09
-2.39565e-10
7.36417e-09
-2.36219e-10
7.59624e-09
-2.32072e-10
7.82301e-09
-2.26765e-10
8.04312e-09
-2.20113e-10
8.25534e-09
-2.1222e-10
8.45885e-09
-2.03507e-10
8.65351e-09
-1.94658e-10
8.83995e-09
-1.86446e-10
9.01942e-09
-1.79472e-10
9.19327e-09
-1.73846e-10
9.36223e-09
-1.68961e-10
9.52585e-09
-1.63624e-10
9.68258e-09
-1.56722e-10
9.83062e-09
-1.4804e-10
9.96899e-09
-1.38376e-10
1.00979e-08
-1.28867e-10
1.02181e-08
-1.20192e-10
1.03302e-08
-1.12167e-10
1.04343e-08
-1.04103e-10
1.053e-08
-9.56357e-11
1.06169e-08
-8.69701e-11
1.06954e-08
-7.84365e-11
1.07655e-08
-7.01336e-11
1.08275e-08
-6.20191e-11
1.08816e-08
-5.41146e-11
1.09281e-08
-4.64794e-11
1.09673e-08
-3.91554e-11
1.09995e-08
-3.21839e-11
1.10251e-08
-2.56085e-11
1.10445e-08
-1.94658e-11
1.10583e-08
-1.37809e-11
1.10669e-08
-8.56913e-12
1.10707e-08
-3.83519e-12
1.10703e-08
4.23558e-13
1.10661e-08
4.21618e-12
1.10585e-08
7.55746e-12
1.1048e-08
1.04674e-11
1.10351e-08
1.297e-11
1.102e-08
1.50928e-11
1.10031e-08
1.68654e-11
1.09848e-08
1.83181e-11
1.09653e-08
1.94808e-11
1.09449e-08
2.03832e-11
1.09239e-08
2.10521e-11
1.09024e-08
2.15142e-11
1.08806e-08
2.17939e-11
1.08587e-08
2.1914e-11
1.08368e-08
2.18963e-11
1.0815e-08
2.17608e-11
1.07935e-08
2.15266e-11
1.07723e-08
2.12111e-11
1.07514e-08
2.08307e-11
1.0731e-08
2.04e-11
1.07111e-08
1.99322e-11
1.06917e-08
1.94394e-11
1.06727e-08
1.89316e-11
1.06543e-08
1.84182e-11
1.06364e-08
1.79067e-11
1.0619e-08
1.74037e-11
1.06021e-08
1.69143e-11
1.05856e-08
1.6443e-11
1.05697e-08
1.59929e-11
1.05541e-08
1.55665e-11
1.05389e-08
1.51657e-11
1.05241e-08
1.47913e-11
1.05097e-08
1.44441e-11
1.04956e-08
1.4124e-11
1.04817e-08
1.38311e-11
1.04682e-08
1.35645e-11
1.04548e-08
1.33234e-11
1.04417e-08
1.31071e-11
1.04288e-08
1.29143e-11
1.04161e-08
1.2744e-11
1.04035e-08
1.25946e-11
1.0391e-08
1.24653e-11
1.03787e-08
1.23544e-11
1.03664e-08
1.2261e-11
1.03542e-08
1.21835e-11
1.03421e-08
1.21212e-11
1.033e-08
1.20725e-11
1.0318e-08
1.20367e-11
1.0306e-08
1.20125e-11
1.0294e-08
1.19991e-11
1.0282e-08
1.19957e-11
1.027e-08
1.20014e-11
1.0258e-08
1.20153e-11
1.02459e-08
1.20368e-11
1.02339e-08
1.20653e-11
1.02218e-08
1.21003e-11
1.02096e-08
1.2141e-11
1.01974e-08
1.21873e-11
1.01852e-08
1.22382e-11
1.01729e-08
1.22939e-11
1.01605e-08
1.23536e-11
1.01481e-08
1.24172e-11
1.01356e-08
1.24843e-11
1.01231e-08
1.25548e-11
1.01105e-08
1.26282e-11
1.00978e-08
1.27044e-11
1.0085e-08
1.27833e-11
1.00721e-08
1.28646e-11
1.00592e-08
1.29483e-11
1.00461e-08
1.30342e-11
1.0033e-08
1.31219e-11
1.00198e-08
1.32119e-11
1.00065e-08
1.33035e-11
9.99309e-09
1.3397e-11
9.9796e-09
1.34922e-11
9.96601e-09
1.35891e-11
9.95233e-09
1.36875e-11
9.93854e-09
1.37877e-11
9.92465e-09
1.38894e-11
9.91066e-09
1.39927e-11
9.89656e-09
1.40975e-11
9.88235e-09
1.4204e-11
9.86804e-09
1.43123e-11
9.85362e-09
1.44223e-11
9.83909e-09
1.45342e-11
9.82444e-09
1.46481e-11
9.80967e-09
1.47642e-11
9.79479e-09
1.48828e-11
9.77979e-09
1.50043e-11
9.76466e-09
1.51291e-11
9.7494e-09
1.52574e-11
9.73401e-09
1.53903e-11
9.71848e-09
1.55286e-11
9.70281e-09
1.56731e-11
9.68698e-09
1.58255e-11
9.67099e-09
1.59875e-11
9.65483e-09
1.61616e-11
9.63848e-09
1.63505e-11
9.62192e-09
1.65582e-11
9.60513e-09
1.67895e-11
9.58808e-09
1.70509e-11
9.57073e-09
1.73506e-11
9.55303e-09
1.76996e-11
9.53492e-09
1.81119e-11
9.51631e-09
1.86067e-11
9.49711e-09
1.9209e-11
9.47715e-09
1.99523e-11
9.45627e-09
2.08829e-11
9.43421e-09
2.20642e-11
9.41062e-09
2.35852e-11
9.38505e-09
2.5574e-11
9.35683e-09
2.82199e-11
9.32501e-09
3.1813e-11
9.28819e-09
3.68197e-11
9.24416e-09
4.40371e-11
9.18921e-09
5.49478e-11
9.11656e-09
7.26525e-11
9.0117e-09
1.04853e-10
8.83543e-09
1.76273e-10
4.00986e-10
8.43445e-09
2.92929e-10
-5.62647e-10
5.58748e-10
-5.32244e-10
8.11778e-10
-5.16194e-10
1.06508e-09
-5.15408e-10
1.32298e-09
-5.20946e-10
1.58627e-09
-5.28456e-10
1.85429e-09
-5.35791e-10
2.12607e-09
-5.42098e-10
2.40063e-09
-5.47088e-10
2.6771e-09
-5.50706e-10
2.95471e-09
-5.52981e-10
3.23277e-09
-5.53967e-10
3.51063e-09
-5.53728e-10
3.7877e-09
-5.5232e-10
4.06342e-09
-5.49801e-10
4.33725e-09
-5.46233e-10
4.60869e-09
-5.41688e-10
4.87728e-09
-5.36264e-10
5.14261e-09
-5.30091e-10
5.40439e-09
-5.23346e-10
5.66242e-09
-5.16259e-10
5.9167e-09
-5.09107e-10
6.16738e-09
-5.02194e-10
6.41484e-09
-4.95798e-10
6.65955e-09
-4.9008e-10
6.90202e-09
-4.84969e-10
7.14249e-09
-4.80035e-10
7.38072e-09
-4.74449e-10
7.61574e-09
-4.6709e-10
7.84584e-09
-4.56867e-10
8.06887e-09
-4.43145e-10
8.28274e-09
-4.26087e-10
8.486e-09
-4.06771e-10
8.67839e-09
-3.87045e-10
8.86109e-09
-3.6915e-10
9.03668e-09
-3.55056e-10
9.20829e-09
-3.45457e-10
9.37802e-09
-3.38694e-10
9.54507e-09
-3.3067e-10
9.70558e-09
-3.17233e-10
9.8554e-09
-2.97859e-10
9.99286e-09
-2.75837e-10
1.01193e-08
-2.55319e-10
1.02376e-08
-2.38455e-10
1.03494e-08
-2.23977e-10
1.04539e-08
-2.08638e-10
1.05495e-08
-1.91246e-10
1.06358e-08
-1.73223e-10
1.07133e-08
-1.55975e-10
1.07827e-08
-1.39481e-10
1.08439e-08
-1.23233e-10
1.08971e-08
-1.07334e-10
1.09426e-08
-9.20132e-11
1.09808e-08
-7.7318e-11
1.10119e-08
-6.33281e-11
1.10365e-08
-5.01477e-11
1.10549e-08
-3.7853e-11
1.10676e-08
-2.64961e-11
1.10751e-08
-1.61016e-11
1.1078e-08
-6.67554e-12
1.10766e-08
1.79035e-12
1.10715e-08
9.31686e-12
1.10631e-08
1.59352e-11
1.10519e-08
2.16864e-11
1.10382e-08
2.66209e-11
1.10225e-08
3.07956e-11
1.10051e-08
3.4272e-11
1.09863e-08
3.71121e-11
1.09664e-08
3.93776e-11
1.09457e-08
4.11264e-11
1.09243e-08
4.24141e-11
1.09026e-08
4.32924e-11
1.08805e-08
4.381e-11
1.08584e-08
4.40126e-11
1.08364e-08
4.3943e-11
1.08145e-08
4.36416e-11
1.07929e-08
4.31459e-11
1.07716e-08
4.24911e-11
1.07507e-08
4.17091e-11
1.07303e-08
4.08295e-11
1.07104e-08
3.98784e-11
1.06909e-08
3.88796e-11
1.0672e-08
3.78534e-11
1.06536e-08
3.68181e-11
1.06357e-08
3.57884e-11
1.06183e-08
3.47774e-11
1.06015e-08
3.3795e-11
1.05851e-08
3.285e-11
1.05691e-08
3.19483e-11
1.05536e-08
3.10952e-11
1.05384e-08
3.02936e-11
1.05237e-08
2.95456e-11
1.05093e-08
2.88523e-11
1.04952e-08
2.82138e-11
1.04814e-08
2.76295e-11
1.04679e-08
2.70981e-11
1.04546e-08
2.66182e-11
1.04415e-08
2.61874e-11
1.04286e-08
2.5804e-11
1.04159e-08
2.54651e-11
1.04033e-08
2.51685e-11
1.03908e-08
2.49113e-11
1.03785e-08
2.46915e-11
1.03663e-08
2.45062e-11
1.03541e-08
2.43529e-11
1.0342e-08
2.42294e-11
1.03299e-08
2.41335e-11
1.03179e-08
2.4063e-11
1.03059e-08
2.40157e-11
1.02939e-08
2.399e-11
1.02819e-08
2.39839e-11
1.02699e-08
2.3996e-11
1.02579e-08
2.40245e-11
1.02459e-08
2.40684e-11
1.02338e-08
2.41259e-11
1.02217e-08
2.41963e-11
1.02096e-08
2.42784e-11
1.01974e-08
2.43711e-11
1.01852e-08
2.44736e-11
1.01729e-08
2.45851e-11
1.01605e-08
2.47049e-11
1.01481e-08
2.48324e-11
1.01356e-08
2.49668e-11
1.01231e-08
2.51078e-11
1.01105e-08
2.52549e-11
1.00977e-08
2.54076e-11
1.0085e-08
2.55654e-11
1.00721e-08
2.57282e-11
1.00592e-08
2.58957e-11
1.00461e-08
2.60674e-11
1.0033e-08
2.62433e-11
1.00198e-08
2.6423e-11
1.00065e-08
2.66064e-11
9.99309e-09
2.67934e-11
9.9796e-09
2.6984e-11
9.96601e-09
2.71776e-11
9.95232e-09
2.73748e-11
9.93854e-09
2.7575e-11
9.92465e-09
2.77784e-11
9.91065e-09
2.7985e-11
9.89656e-09
2.81948e-11
9.88235e-09
2.84078e-11
9.86804e-09
2.86243e-11
9.85362e-09
2.88441e-11
9.83909e-09
2.90679e-11
9.82444e-09
2.92957e-11
9.80967e-09
2.9528e-11
9.79479e-09
2.97651e-11
9.77979e-09
3.00079e-11
9.76466e-09
3.02571e-11
9.7494e-09
3.05137e-11
9.73402e-09
3.07794e-11
9.71849e-09
3.10553e-11
9.70282e-09
3.13442e-11
9.68699e-09
3.16486e-11
9.67101e-09
3.19722e-11
9.65485e-09
3.23194e-11
9.63851e-09
3.26962e-11
9.62195e-09
3.31103e-11
9.60517e-09
3.35713e-11
9.58813e-09
3.40921e-11
9.57079e-09
3.46889e-11
9.55311e-09
3.53834e-11
9.53502e-09
3.6204e-11
9.51644e-09
3.71877e-11
9.49726e-09
3.83846e-11
9.47735e-09
3.98613e-11
9.45653e-09
4.17087e-11
9.43454e-09
4.40519e-11
9.41106e-09
4.70667e-11
9.38563e-09
5.10047e-11
9.35761e-09
5.6236e-11
9.3261e-09
6.33264e-11
9.28974e-09
7.31769e-11
9.24646e-09
8.73112e-11
9.19291e-09
1.08508e-10
9.12318e-09
1.42376e-10
9.02617e-09
2.01861e-10
8.88019e-09
3.22252e-10
6.16387e-10
8.66479e-09
3.79991e-10
-9.42637e-10
5.18355e-10
-6.70608e-10
6.78517e-10
-6.76356e-10
8.65308e-10
-7.02199e-10
1.06521e-09
-7.20844e-10
1.27064e-09
-7.33887e-10
1.47847e-09
-7.43627e-10
1.68795e-09
-7.51571e-10
1.89948e-09
-7.58621e-10
2.11409e-09
-7.65322e-10
2.33312e-09
-7.72005e-10
2.55802e-09
-7.78866e-10
2.79029e-09
-7.86002e-10
3.0314e-09
-7.93431e-10
3.2827e-09
-8.01099e-10
3.54534e-09
-8.08878e-10
3.82022e-09
-8.1656e-10
4.10781e-09
-8.23856e-10
4.4081e-09
-8.30385e-10
4.72043e-09
-8.35675e-10
5.04335e-09
-8.39178e-10
5.37454e-09
-8.40292e-10
5.71076e-09
-8.38422e-10
6.04802e-09
-8.33057e-10
6.38181e-09
-8.2387e-10
6.70763e-09
-8.10787e-10
7.02154e-09
-7.93946e-10
7.32059e-09
-7.73495e-10
7.60283e-09
-7.49333e-10
7.86704e-09
-7.21076e-10
8.11233e-09
-6.88432e-10
8.33804e-09
-6.51799e-10
8.54404e-09
-6.12769e-10
8.7314e-09
-5.74409e-10
8.90349e-09
-5.41236e-10
9.06686e-09
-5.18425e-10
9.23076e-09
-5.09358e-10
9.40308e-09
-5.11017e-10
9.58261e-09
-5.10204e-10
9.75637e-09
-4.90993e-10
9.91126e-09
-4.52745e-10
1.0044e-08
-4.08611e-10
1.01611e-08
-3.72377e-10
1.02731e-08
-3.50463e-10
1.0386e-08
-3.36846e-10
1.04941e-08
-3.1675e-10
1.05901e-08
-2.87285e-10
1.06739e-08
-2.56953e-10
1.0749e-08
-2.31107e-10
1.0817e-08
-2.0752e-10
1.08768e-08
-1.82982e-10
1.09281e-08
-1.58679e-10
1.09718e-08
-1.35647e-10
1.10079e-08
-1.13493e-10
1.1037e-08
-9.23605e-11
1.10593e-08
-7.2508e-11
1.10755e-08
-5.40459e-11
1.10861e-08
-3.70503e-11
1.10915e-08
-2.15402e-11
1.10923e-08
-7.51212e-12
1.10891e-08
5.05426e-12
1.10822e-08
1.61942e-11
1.10722e-08
2.59575e-11
1.10595e-08
3.44095e-11
1.10444e-08
4.16305e-11
1.10275e-08
4.77127e-11
1.1009e-08
5.27534e-11
1.09893e-08
5.685e-11
1.09686e-08
6.00966e-11
1.09471e-08
6.25817e-11
1.09252e-08
6.43875e-11
1.09029e-08
6.55909e-11
1.08804e-08
6.62641e-11
1.08579e-08
6.64743e-11
1.08356e-08
6.62855e-11
1.08135e-08
6.57574e-11
1.07917e-08
6.49462e-11
1.07703e-08
6.39041e-11
1.07493e-08
6.26788e-11
1.07288e-08
6.13141e-11
1.07088e-08
5.98491e-11
1.06894e-08
5.83188e-11
1.06705e-08
5.67533e-11
1.06521e-08
5.5179e-11
1.06343e-08
5.36181e-11
1.0617e-08
5.20891e-11
1.06002e-08
5.06069e-11
1.05839e-08
4.91835e-11
1.0568e-08
4.78281e-11
1.05525e-08
4.65471e-11
1.05375e-08
4.53454e-11
1.05228e-08
4.42255e-11
1.05085e-08
4.31886e-11
1.04944e-08
4.22348e-11
1.04807e-08
4.13627e-11
1.04672e-08
4.05705e-11
1.0454e-08
3.98554e-11
1.0441e-08
3.92145e-11
1.04281e-08
3.86441e-11
1.04155e-08
3.81408e-11
1.04029e-08
3.77005e-11
1.03905e-08
3.73195e-11
1.03782e-08
3.69939e-11
1.0366e-08
3.67199e-11
1.03539e-08
3.64938e-11
1.03418e-08
3.63121e-11
1.03297e-08
3.61713e-11
1.03177e-08
3.60685e-11
1.03057e-08
3.60004e-11
1.02938e-08
3.59641e-11
1.02818e-08
3.59573e-11
1.02698e-08
3.59774e-11
1.02578e-08
3.6022e-11
1.02458e-08
3.60893e-11
1.02337e-08
3.61772e-11
1.02217e-08
3.62841e-11
1.02095e-08
3.64082e-11
1.01974e-08
3.65484e-11
1.01851e-08
3.67031e-11
1.01728e-08
3.68712e-11
1.01605e-08
3.70516e-11
1.01481e-08
3.72435e-11
1.01356e-08
3.74457e-11
1.01231e-08
3.76578e-11
1.01104e-08
3.78787e-11
1.00977e-08
3.81081e-11
1.00849e-08
3.83454e-11
1.00721e-08
3.85898e-11
1.00591e-08
3.88412e-11
1.00461e-08
3.90991e-11
1.0033e-08
3.9363e-11
1.00198e-08
3.96329e-11
1.00065e-08
3.99082e-11
9.99308e-09
4.01889e-11
9.97959e-09
4.04746e-11
9.966e-09
4.07654e-11
9.95232e-09
4.10611e-11
9.93853e-09
4.13616e-11
9.92464e-09
4.16667e-11
9.91065e-09
4.19765e-11
9.89655e-09
4.22912e-11
9.88235e-09
4.26108e-11
9.86804e-09
4.29354e-11
9.85362e-09
4.32652e-11
9.83909e-09
4.36008e-11
9.82444e-09
4.39423e-11
9.80968e-09
4.42904e-11
9.7948e-09
4.4646e-11
9.77979e-09
4.50099e-11
9.76467e-09
4.53834e-11
9.74941e-09
4.57679e-11
9.73403e-09
4.61655e-11
9.7185e-09
4.65789e-11
9.70284e-09
4.70112e-11
9.68702e-09
4.74666e-11
9.67104e-09
4.79504e-11
9.65489e-09
4.84693e-11
9.63855e-09
4.90322e-11
9.62201e-09
4.96503e-11
9.60525e-09
5.0338e-11
9.58823e-09
5.1114e-11
9.57091e-09
5.20028e-11
9.55326e-09
5.30364e-11
9.53521e-09
5.42563e-11
9.51668e-09
5.57179e-11
9.49757e-09
5.74943e-11
9.47774e-09
5.96842e-11
9.45703e-09
6.24212e-11
9.4352e-09
6.58888e-11
9.41192e-09
7.0344e-11
9.38677e-09
7.61532e-11
9.35915e-09
8.38531e-11
9.32822e-09
9.42552e-11
9.29276e-09
1.08639e-10
9.25094e-09
1.29128e-10
9.19997e-09
1.59485e-10
9.1354e-09
2.06938e-10
9.05052e-09
2.86747e-10
8.93863e-09
4.34144e-10
7.31722e-10
8.82329e-09
-1.43463e-10
-7.99175e-10
2.70157e-11
-8.41087e-10
1.95812e-10
-8.45152e-10
3.40194e-10
-8.46581e-10
4.70296e-10
-8.50946e-10
5.93464e-10
-8.57055e-10
7.13557e-10
-8.63719e-10
8.32324e-10
-8.70338e-10
9.50379e-10
-8.76676e-10
1.06773e-09
-8.82674e-10
1.18407e-09
-8.88343e-10
1.29892e-09
-8.93713e-10
1.41172e-09
-8.9881e-10
1.52194e-09
-9.03643e-10
1.62904e-09
-9.08202e-10
1.73262e-09
-9.12463e-10
1.83246e-09
-9.16392e-10
1.92857e-09
-9.19968e-10
2.02139e-09
-9.23209e-10
2.11194e-09
-9.26225e-10
2.20205e-09
-9.29285e-10
2.29467e-09
-9.32914e-10
2.39427e-09
-9.3802e-10
2.50721e-09
-9.45997e-10
2.64211e-09
-9.58767e-10
2.80992e-09
-9.78605e-10
3.02359e-09
-1.00761e-09
3.29688e-09
-1.04678e-09
3.6426e-09
-1.09506e-09
4.07043e-09
-1.14891e-09
4.58496e-09
-1.20296e-09
5.18408e-09
-1.25092e-09
5.85732e-09
-1.28601e-09
6.5836e-09
-1.30068e-09
7.32865e-09
-1.28629e-09
8.04456e-09
-1.23434e-09
8.67711e-09
-1.14191e-09
9.18738e-09
-1.02129e-09
9.5705e-09
-8.9332e-10
9.8401e-09
-7.6059e-10
1.00186e-08
-6.31203e-10
1.01329e-08
-5.22978e-10
1.0216e-08
-4.5545e-10
1.03083e-08
-4.42778e-10
1.04344e-08
-4.62969e-10
1.05616e-08
-4.43901e-10
1.0658e-08
-3.83696e-10
1.07309e-08
-3.29857e-10
1.08001e-08
-3.00306e-10
1.08689e-08
-2.76296e-10
1.0927e-08
-2.41098e-10
1.09747e-08
-2.06418e-10
1.10156e-08
-1.76544e-10
1.10489e-08
-1.46751e-10
1.10746e-08
-1.18098e-10
1.10936e-08
-9.14869e-11
1.11064e-08
-6.68391e-11
1.11136e-08
-4.42923e-11
1.11159e-08
-2.37909e-11
1.11137e-08
-5.30985e-12
1.11076e-08
1.11875e-11
1.1098e-08
2.57541e-11
1.10855e-08
3.84583e-11
1.10705e-08
4.93917e-11
1.10535e-08
5.86722e-11
1.10347e-08
6.64363e-11
1.10147e-08
7.28259e-11
1.09935e-08
7.79796e-11
1.09716e-08
8.20257e-11
1.09491e-08
8.50825e-11
1.09262e-08
8.72579e-11
1.09032e-08
8.86522e-11
1.08801e-08
8.93586e-11
1.08571e-08
8.9466e-11
1.08343e-08
8.90578e-11
1.08119e-08
8.82133e-11
1.07898e-08
8.70061e-11
1.07682e-08
8.55058e-11
1.07471e-08
8.37753e-11
1.07265e-08
8.18724e-11
1.07065e-08
7.98483e-11
1.06871e-08
7.77488e-11
1.06683e-08
7.56133e-11
1.065e-08
7.34757e-11
1.06322e-08
7.13649e-11
1.0615e-08
6.93038e-11
1.05983e-08
6.73121e-11
1.05821e-08
6.54042e-11
1.05663e-08
6.35917e-11
1.0551e-08
6.18824e-11
1.0536e-08
6.02818e-11
1.05215e-08
5.87928e-11
1.05072e-08
5.74165e-11
1.04933e-08
5.61522e-11
1.04797e-08
5.49977e-11
1.04663e-08
5.39505e-11
1.04532e-08
5.30065e-11
1.04402e-08
5.21615e-11
1.04274e-08
5.14104e-11
1.04148e-08
5.07485e-11
1.04024e-08
5.01703e-11
1.039e-08
4.96708e-11
1.03778e-08
4.92447e-11
1.03656e-08
4.88868e-11
1.03535e-08
4.85924e-11
1.03415e-08
4.83565e-11
1.03295e-08
4.81749e-11
1.03175e-08
4.80431e-11
1.03055e-08
4.79573e-11
1.02936e-08
4.79136e-11
1.02816e-08
4.79084e-11
1.02697e-08
4.7939e-11
1.02577e-08
4.80019e-11
1.02457e-08
4.80945e-11
1.02336e-08
4.82145e-11
1.02216e-08
4.83595e-11
1.02094e-08
4.85272e-11
1.01973e-08
4.87158e-11
1.01851e-08
4.89239e-11
1.01728e-08
4.91496e-11
1.01604e-08
4.93914e-11
1.0148e-08
4.96485e-11
1.01356e-08
4.99192e-11
1.0123e-08
5.02028e-11
1.01104e-08
5.04984e-11
1.00977e-08
5.08049e-11
1.00849e-08
5.11219e-11
1.00721e-08
5.14484e-11
1.00591e-08
5.17842e-11
1.00461e-08
5.21284e-11
1.0033e-08
5.24807e-11
1.00198e-08
5.28407e-11
1.00065e-08
5.32082e-11
9.99307e-09
5.35827e-11
9.97958e-09
5.39639e-11
9.96599e-09
5.43519e-11
9.95231e-09
5.47462e-11
9.93852e-09
5.51469e-11
9.92464e-09