/*--------------------------------*- C++ -*----------------------------------*\
  =========                 |
  \\      /  F ield         | OpenFOAM: The Open Source CFD Toolbox
   \\    /   O peration     | Website:  https://openfoam.org
    \\  /    A nd           | Version:  11
     \\/     M anipulation  |
\*---------------------------------------------------------------------------*/
FoamFile
{
    format      ascii;
    class       surfaceScalarField;
    location    "6";
    object      phi;
}
// * * * * * * * * * * * * * * * * * * * * * * * * * * * * * * * * * * * * * //

dimensions      [0 3 -1 0 0 0 0];

internalField   nonuniform List<scalar> 
4000
(
0.0250305
-3.05317e-05
0.0251224
-9.18437e-05
0.0252765
-0.000154112
0.0254948
-0.000218361
0.0257801
-0.000285217
0.026135
-0.000354935
0.0265623
-0.000427277
0.0270637
-0.000501424
0.0276396
-0.000575918
0.0282883
-0.000648632
0.029005
-0.000716771
0.0297821
-0.000777049
0.030608
-0.00082597
0.0314683
-0.000860252
0.0323457
-0.000877359
0.0332216
-0.000875963
0.0340779
-0.000856315
0.0348984
-0.000820441
0.03567
-0.000771595
0.036383
-0.000713073
0.0370303
-0.000647228
0.0376055
-0.000575241
0.0381029
-0.000497416
0.0385165
-0.000413558
0.0388398
-0.000323277
0.0390661
-0.000226299
0.0391889
-0.000122889
0.0392023
-1.3397e-05
0.0391056
9.67896e-05
0.0388965
0.000209012
0.038577
0.000319527
0.0381518
0.00042525
0.0376287
0.000523116
0.0370183
0.000610305
0.036334
0.000684377
0.0355906
0.00074336
0.0348047
0.00078589
0.0339933
0.000811376
0.0331733
0.000820078
0.0323602
0.000813071
0.0315681
0.000792115
0.0308086
0.00075945
0.0300911
0.000717554
0.0294222
0.000668898
0.0288064
0.000615739
0.0282464
0.000559992
0.0277433
0.000503193
0.0272967
0.000446546
0.0269057
0.000391022
0.0265682
0.000337463
0.0262816
0.000286671
0.0260421
0.000239424
0.0258457
0.000196463
0.0256873
0.00015839
0.0255616
0.000125645
0.0254633
9.83611e-05
0.0253868
7.64928e-05
0.0253272
5.96075e-05
0.0252799
4.72945e-05
0.0252411
3.87508e-05
0.0252077
3.34408e-05
0.025177
3.06933e-05
0.0251475
2.95045e-05
3.09317e-05
0.0250302
-6.07339e-05
0.0251209
-0.000182559
0.0252733
-0.000306449
0.0254895
-0.000434596
0.0257726
-0.000568338
0.0261259
-0.000708272
0.0265527
-0.00085402
0.0270553
-0.001004
0.0276347
-0.00115532
0.0282897
-0.00130368
0.0290163
-0.00144334
0.0298067
-0.00156744
0.0306492
-0.00166847
0.0315282
-0.00173929
0.0324252
-0.00177437
0.0333201
-0.00177079
0.034193
-0.00172925
0.0350272
-0.00165463
0.0358099
-0.00155433
0.0365322
-0.00143539
0.0371875
-0.00130252
0.0377702
-0.00115795
0.0382749
-0.0010021
0.0386957
-0.000834302
0.0390258
-0.000653412
0.0392582
-0.000458692
0.0393858
-0.000250479
0.039401
-2.86635e-05
0.0393042
0.000193628
0.0390919
0.000421287
0.0387659
0.000645517
0.0383311
0.000860071
0.0377955
0.00105871
0.0371701
0.00123569
0.0364685
0.00138598
0.0357065
0.00150541
0.0349013
0.00159111
0.0340708
0.00164183
0.0332327
0.00165818
0.0324033
0.00164245
0.0315971
0.00159836
0.0308259
0.00153059
0.0300992
0.00144429
0.0294236
0.00134455
0.0288033
0.00123602
0.0282406
0.00112263
0.0277363
0.0010075
0.0272898
0.000893054
0.0268996
0.000781202
0.0265635
0.000673589
0.0262784
0.000571769
0.0260406
0.000477242
0.0258456
0.000391434
0.0256885
0.000315499
0.0255639
0.000250276
0.0254663
0.000195985
0.0253902
0.000152517
0.0253309
0.000118968
0.0252836
9.45312e-05
0.0252449
7.75419e-05
0.0252113
6.70202e-05
0.0251805
6.14682e-05
0.0251509
5.91568e-05
6.17852e-05
0.0250294
-9.00843e-05
0.0251176
-0.000270833
0.0252662
-0.000454986
0.0254777
-0.000646173
0.0257561
-0.0008467
0.0261056
-0.00105773
0.0265306
-0.00127901
0.0270348
-0.00150829
0.0276208
-0.00174132
0.0282886
-0.00197143
0.0290349
-0.0021896
0.0298524
-0.00238494
0.0307288
-0.00254489
0.0316467
-0.0026572
0.0325845
-0.00271217
0.0335181
-0.00270436
0.0344244
-0.00263561
0.0352856
-0.00251583
0.0360898
-0.00235855
0.0368298
-0.00217533
0.0375004
-0.00197319
0.0380976
-0.00175511
0.0386167
-0.00152124
0.0390521
-0.00126969
0.0393963
-0.00099762
0.039641
-0.000703328
0.0397777
-0.00038724
0.0397983
-4.92622e-05
0.0397013
0.000290645
0.0394828
0.000639839
0.0391439
0.000984428
0.0386896
0.00131429
0.0381287
0.00161967
0.0374726
0.00189174
0.0367361
0.00212254
0.0359361
0.00230535
0.0350918
0.00243547
0.0342227
0.00251094
0.0333481
0.00253276
0.0324858
0.00250474
0.0316512
0.00243295
0.0308568
0.00232497
0.0301121
0.00218905
0.0294233
0.0020333
0.0287944
0.00186498
0.0282268
0.0016902
0.0277206
0.00151373
0.0272744
0.0013392
0.0268862
0.00116944
0.026553
0.00100681
0.0262712
0.000853518
0.0260368
0.000711674
0.0258449
0.000583285
0.0256905
0.000469948
0.0255679
0.000372809
0.0254718
0.000292101
0.0253968
0.000227585
0.0253379
0.000177841
0.0252908
0.000141645
0.0252519
0.000116446
0.025218
0.000100847
0.025187
9.24754e-05
0.0251572
8.90081e-05
9.25504e-05
0.025028
-0.00011804
0.0251121
-0.000355022
0.0252543
-0.000597095
0.0254578
-0.000849737
0.0257277
-0.00111656
0.0260696
-0.00139967
0.02649
-0.00169944
0.026995
-0.00201322
0.0275894
-0.00233572
0.0282754
-0.00265743
0.0290513
-0.00296552
0.0299105
-0.00324413
0.0308396
-0.003474
0.0318187
-0.00363636
0.0328212
-0.00371458
0.0338151
-0.00369829
0.0347719
-0.00359242
0.0356725
-0.00341645
0.0365072
-0.00319321
0.0372715
-0.00293968
0.0379634
-0.00266505
0.038581
-0.00237275
0.0391218
-0.00206196
0.03958
-0.00172798
0.0399468
-0.00136439
0.0402112
-0.000967698
0.0403625
-0.000538575
0.0403926
-7.93417e-05
0.0402961
0.000387182
0.0400688
0.000867096
0.0397109
0.00134228
0.0392277
0.00179754
0.0386282
0.00221919
0.0379251
0.00259486
0.0371346
0.00291297
0.0362763
0.00316363
0.0353718
0.00334002
0.0344434
0.00343934
0.033513
0.00346317
0.0326005
0.00341719
0.031723
0.00331044
0.0308939
0.00315415
0.0301225
0.0029604
0.0294149
0.00274089
0.028774
0.00250595
0.0282001
0.00226407
0.0276921
0.00202176
0.0272474
0.00178385
0.0268629
0.00155396
0.0265347
0.00133503
0.0262585
0.00112973
0.0260295
0.000940644
0.0258426
0.000770171
0.0256923
0.000620207
0.0255731
0.000492065
0.0254793
0.000385874
0.0254057
0.000301178
0.0253476
0.000235969
0.0253007
0.000188578
0.0252616
0.000155526
0.0252274
0.000135059
0.025196
0.000123818
0.0251658
0.000119183
0.000123146
0.0250258
-0.000143853
0.0251038
-0.000432961
0.0252359
-0.000729263
0.0254269
-0.00104071
0.0256829
-0.00137253
0.0260116
-0.00172838
0.0264221
-0.00210993
0.0269235
-0.00251467
0.0275254
-0.00293757
0.0282333
-0.00336536
0.0290491
-0.00378137
0.0299668
-0.00416182
0.0309709
-0.00447807
0.0320385
-0.00470392
0.0331336
-0.00480974
0.0342111
-0.00477576
0.0352346
-0.00461593
0.0361853
-0.00436713
0.0370571
-0.00406499
0.0378501
-0.00373268
0.0385666
-0.00338158
0.0392095
-0.00301564
0.0397791
-0.00263155
0.0402696
-0.00221854
0.0406691
-0.00176383
0.040963
-0.00126164
0.0411371
-0.000712688
0.0411807
-0.000122869
0.0410863
0.000481526
0.040848
0.00110539
0.0404657
0.00172463
0.0399443
0.00231888
0.0392931
0.00287039
0.0385258
0.00336219
0.037661
0.00377773
0.0367218
0.0041029
0.0357337
0.00432811
0.0347234
0.00444965
0.0337165
0.00447004
0.0327361
0.00439765
0.031801
0.00424548
0.0309257
0.00402943
0.0301198
0.00376635
0.0293883
0.00347233
0.028733
0.00316131
0.0281525
0.00284452
0.027644
0.00253032
0.0272031
0.00222467
0.0268253
0.00193183
0.0265052
0.00165508
0.0262376
0.00139734
0.0260169
0.00116136
0.0258373
0.000949731
0.0256931
0.000764404
0.0255785
0.000606667
0.025488
0.000476385
0.0254164
0.000372763
0.0253593
0.000293122
0.0253126
0.000235314
0.0252732
0.000194886
0.0252384
0.000169823
0.0252066
0.000155621
0.025176
0.000149782
0.000153499
0.0250227
-0.00016652
0.0250915
-0.000501832
0.025209
-0.000846751
0.0253812
-0.0012129
0.0256156
-0.00160688
0.0259227
-0.00203549
0.0263144
-0.00250167
0.026804
-0.00300426
0.0274074
-0.00354092
0.0281355
-0.00409352
0.029
-0.00464583
0.0299958
-0.00515761
0.0311044
-0.00558672
0.0322983
-0.00589775
0.0335214
-0.00603291
0.0347069
-0.00596122
0.0358124
-0.00572141
0.0368225
-0.00537721
0.0377363
-0.00497879
0.038559
-0.00455542
0.0392997
-0.00412225
0.0399694
-0.00368541
0.040573
-0.00323515
0.0411026
-0.00274807
0.0415411
-0.00220232
0.0418708
-0.00159135
0.0420742
-0.000916154
0.0421389
-0.00018757
0.042048
0.000572446
0.0417976
0.00135578
0.0413881
0.00213419
0.0408232
0.00288378
0.0401107
0.00358281
0.0392649
0.00420799
0.0383068
0.00473582
0.0372636
0.00514609
0.0361668
0.00542496
0.0350494
0.00556706
0.0339431
0.00557636
0.0328754
0.00546531
0.0318682
0.00525272
0.0309366
0.00496096
0.0300899
0.00461311
0.0293316
0.00423058
0.0286614
0.00383153
0.0280758
0.00343014
0.0275694
0.00303669
0.0271359
0.00265814
0.0267686
0.00229914
0.0264606
0.00196303
0.0262054
0.00165262
0.0259962
0.00137053
0.0258268
0.00111918
0.0256908
0.000900333
0.0255825
0.000714985
0.0254964
0.000562532
0.0254274
0.000441687
0.0253716
0.000348993
0.0253251
0.000281789
0.0252854
0.000234597
0.0252499
0.000205268
0.0252176
0.000187981
0.0251865
0.000180875
0.000183448
0.0250182
-0.000184749
0.0250745
-0.000558138
0.0251711
-0.000943271
0.0253162
-0.00135808
0.0255177
-0.00180838
0.0257915
-0.0023093
0.0261509
-0.00286103
0.0266163
-0.00346965
0.0272093
-0.00413396
0.0279466
-0.00483076
0.0288615
-0.0055608
0.0299515
-0.00624753
0.0312052
-0.00684048
0.0325843
-0.00727687
0.0339865
-0.0074351
0.0353131
-0.0072878
0.0365208
-0.00692908
0.0375978
-0.0064542
0.0385476
-0.00592862
0.0393802
-0.00538806
0.0401166
-0.00485862
0.0407855
-0.00435434
0.0413986
-0.00384826
0.0419428
-0.00329223
0.0423964
-0.00265587
0.0427396
-0.00193463
0.0429614
-0.00113796
0.0430512
-0.000277358
0.0429721
0.000651537
0.0427242
0.00160369
0.0423084
0.00255005
0.0417224
0.00346971
0.0409688
0.00433644
0.0400584
0.00511836
0.039012
0.00578229
0.0378598
0.00629831
0.0366402
0.00664448
0.0353961
0.00681124
0.0341689
0.00680353
0.0329947
0.00663952
0.0319005
0.00634688
0.0309037
0.00595781
0.0300124
0.00550436
0.0292279
0.00501508
0.0285463
0.00451313
0.0279606
0.00401581
0.0274623
0.00353504
0.0270421
0.00307834
0.026691
0.00265028
0.0264002
0.00225381
0.0261616
0.00189121
0.0259676
0.00156454
0.025811
0.00127573
0.0256854
0.00102596
0.0255847
0.000815667
0.0255037
0.000643529
0.0254378
0.000507598
0.0253833
0.000403531
0.0253369
0.000328135
0.0252967
0.000274865
0.0252603
0.000241604
0.0252273
0.000221009
0.0251957
0.0002125
0.000212837
0.0250123
-0.000197031
0.025052
-0.000597842
0.0251197
-0.00101099
0.0252276
-0.001466
0.02538
-0.00196077
0.0256041
-0.00253343
0.0259077
-0.00316461
0.0263339
-0.00389587
0.0268973
-0.00469735
0.0276298
-0.00556322
0.0285915
-0.00652252
0.0297645
-0.00742052
0.0312218
-0.00829782
0.0328932
-0.00894825
0.0345623
-0.00910416
0.0360748
-0.00880031
0.0373791
-0.00823343
0.0384595
-0.00753452
0.0393324
-0.00680156
0.0400261
-0.00608178
0.0405967
-0.0054292
0.0411111
-0.00486875
0.0415898
-0.00432698
0.0420167
-0.00371909
0.0423745
-0.00301369
0.0426482
-0.00220836
0.0428315
-0.00132122
0.0429428
-0.000388635
0.0429108
0.000683486
0.0427451
0.00176944
0.0424337
0.00286144
0.0419567
0.00394668
0.041301
0.00499217
0.0404619
0.00595739
0.0394472
0.00679701
0.0382807
0.00746481
0.0370031
0.00792209
0.0356674
0.00814699
0.0343309
0.00814004
0.0330464
0.00792393
0.0318553
0.00753799
0.0307836
0.0070295
0.0298428
0.00644518
0.0290328
0.00582514
0.0283456
0.00520027
0.0277694
0.00459206
0.0272905
0.00401397
0.0268954
0.00347343
0.0265716
0.00297404
0.0263079
0.00251748
0.0260944
0.00210475
0.0259222
0.00173673
0.0257836
0.00141429
0.025672
0.00113764
0.0255814
0.000906276
0.025507
0.000717915
0.0254448
0.000569766
0.0253918
0.000456501
0.0253456
0.000374397
0.0253046
0.000315843
0.0252672
0.000278966
0.0252335
0.00025473
0.0252014
0.000244573
0.000241284
0.0250049
-0.000201918
0.0250236
-0.000616514
0.0250541
-0.00104153
0.0251127
-0.00152462
0.0251954
-0.0020435
0.0253468
-0.00268476
0.025553
-0.00337086
0.0259173
-0.00426016
0.0264029
-0.0051829
0.0271472
-0.00630752
0.0281473
-0.00752266
0.0293619
-0.00863507
0.0311691
-0.0101051
0.0333121
-0.0110912
0.0352809
-0.011073
0.0368448
-0.0103642
0.0379586
-0.00934727
0.038638
-0.00821389
0.0389698
-0.00713332
0.0390454
-0.00615745
0.0390173
-0.00540108
0.0389992
-0.00485064
0.0390097
-0.00433744
0.0390471
-0.00375652
0.0391175
-0.0030841
0.0392221
-0.00231297
0.0393483
-0.00144737
0.0394737
-0.000514067
0.0395996
0.000557605
0.0396931
0.0016759
0.0397245
0.00283003
0.0396542
0.00401698
0.03944
0.00520645
0.0390425
0.00635489
0.0384349
0.00740458
0.0376119
0.0082878
0.0365945
0.00893947
0.035429
0.00931254
0.0341799
0.00938915
0.0329184
0.00918535
0.0317097
0.00874674
0.0306028
0.00813643
0.029627
0.00742092
0.0287932
0.00665894
0.0280979
0.0058956
0.0275287
0.00516127
0.0270691
0.00447359
0.0267015
0.00384094
0.0264096
0.00326594
0.0261787
0.00274842
0.0259961
0.00228731
0.0258514
0.00188151
0.0257356
0.00153009
0.0256416
0.00123159
0.0255638
0.000984037
0.025498
0.000783764
0.0254409
0.00062688
0.0253904
0.00050697
0.025345
0.000419825
0.025304
0.000356829
0.0252663
0.000316638
0.0252327
0.000288391
0.025201
0.00027628
0.000268003
0.0249965
-0.000198443
0.0249894
-0.000609412
0.0249761
-0.00102816
0.0249716
-0.00152013
0.0249662
-0.00203817
0.0250119
-0.00273044
0.0250689
-0.0034278
0.0253107
-0.00450201
0.0256012
-0.0054734
0.0264001
-0.00710642
0.0273285
-0.00845101
0.0287852
-0.0100918
0.0312354
-0.0125553
0.0336904
-0.0135462
0.035323
-0.0127056
0.036057
-0.0110982
0.0360175
-0.0093078
0.0353692
-0.00756556
0.0343455
-0.00610964
0.033079
-0.00489086
0.0319371
-0.00425926
0.0310357
-0.00394916
0.0303814
-0.00368317
0.0300047
-0.00337987
0.0298987
-0.00297807
0.0300158
-0.00243002
0.0302901
-0.00172172
0.0306421
-0.000866045
0.0310958
0.000103871
0.0316474
0.00112432
0.0322333
0.00224413
0.0328201
0.00343021
0.0333515
0.00467501
0.0337604
0.00594605
0.0339842
0.00718076
0.0339777
0.00829426
0.0337213
0.00919585
0.0332263
0.00980754
0.0325346
0.0100809
0.0317098
0.0100102
0.030824
0.00963252
0.0299444
0.00901601
0.0291236
0.00824177
0.028395
0.00738751
0.027774
0.00651655
0.0272617
0.00567357
0.0268498
0.00488559
0.0265247
0.00416597
0.0262716
0.00351909
0.0260755
0.00294444
0.0259233
0.00243954
0.0258036
0.00200128
0.0257071
0.00162656
0.0256269
0.00131176
0.025558
0.00105294
0.025497
0.000844729
0.0254419
0.000682043
0.0253914
0.000557413
0.0253449
0.000466342
0.0253025
0.000399272
0.0252633
0.000355788
0.0252289
0.000322775
0.0251969
0.000308362
0.00029318
0.0249877
-0.000186169
0.0249507
-0.000572361
0.0248898
-0.00096731
0.0248086
-0.0014389
0.0247062
-0.0019358
0.0246054
-0.00262963
0.0244846
-0.00330699
0.0244755
-0.00449288
0.0244334
-0.0054313
0.0250537
-0.00772679
0.025573
-0.00897031
0.0281671
-0.0126858
0.0307435
-0.0151317
0.0317888
-0.0145915
0.0311897
-0.0121065
0.0295288
-0.00943727
0.0272237
-0.00700276
0.0246264
-0.00496822
0.022059
-0.00354228
0.0193396
-0.00217147
0.0175219
-0.00244152
0.016705
-0.00313225
0.0166915
-0.00366971
0.0172388
-0.0039272
0.0180388
-0.00377801
0.0188724
-0.00326365
0.0196466
-0.00249591
0.0203656
-0.00158501
0.0210646
-0.000595156
0.0217997
0.000389198
0.0226208
0.00142308
0.0235297
0.00252122
0.0245028
0.00370198
0.0254864
0.00496236
0.0264132
0.006254
0.027215
0.00749249
0.0278341
0.00857675
0.0282354
0.00940625
0.0284138
0.0099025
0.0283919
0.0100321
0.0282126
0.00981178
0.0279288
0.00929983
0.0275924
0.0085782
0.0272465
0.0077334
0.0269217
0.00684136
0.0266357
0.00595949
0.0263959
0.00512546
0.0262015
0.00436034
0.0260473
0.00367331
0.0259255
0.00306627
0.0258278
0.00253724
0.0257466
0.00208241
0.025676
0.00169715
0.0256117
0.00137606
0.0255511
0.00111356
0.025493
0.000902904
0.0254369
0.000738129
0.0253832
0.000611029
0.0253325
0.000517085
0.0252858
0.000445944
0.0252431
0.00039853
0.0252068
0.000359079
0.0251739
0.000341289
0.000315714
0.0249785
-0.000164659
0.0249102
-0.000504071
0.0248
-0.000857084
0.0246357
-0.00127464
0.0244321
-0.00173218
0.0241585
-0.00235605
0.0238583
-0.00300682
0.0234727
-0.00410722
0.0230733
-0.00503196
0.0227918
-0.0074453
0.022469
-0.00864746
0.0255897
-0.0158065
0.0256703
-0.0152123
0.0221517
-0.011073
0.0181276
-0.00808241
0.0142537
-0.00556334
0.0108226
-0.00357169
0.00808416
-0.00222975
0.00596669
-0.00142481
0.00423578
-0.000440566
0.0051202
-0.00332594
0.00718474
-0.00519678
0.00923362
-0.00571858
0.0108285
-0.00552209
0.0119405
-0.00488996
0.01267
-0.00399315
0.0131362
-0.00296214
0.0134487
-0.00189753
0.0137269
-0.000873375
0.0140297
8.64446e-05
0.0144383
0.00101443
0.0150258
0.00193377
0.0158005
0.00292724
0.0167494
0.00401347
0.0178307
0.00517272
0.0189866
0.00633662
0.0201417
0.00742161
0.0212281
0.00831985
0.0221942
0.00893643
0.0230089
0.00921732
0.0236634
0.0091573
0.0241674
0.00879588
0.0245425
0.008203
0.0248156
0.00746032
0.0250125
0.00664444
0.0251552
0.00581682
0.02526
0.00502065
0.0253379
0.00428249
0.0253951
0.00361611
0.0254347
0.00302662
0.0254581
0.00251383
0.0254661
0.00207447
0.0254595
0.00170371
0.02544
0.00139554
0.0254098
0.00114377
0.0253716
0.000941131
0.0253283
0.000781456
0.0252829
0.00065637
0.0252382
0.000561808
0.0251969
0.000487197
0.0251602
0.000435224
0.0251312
0.000388081
0.025107
0.000365567
0.000327649
0.0249689
-0.000133603
0.0248722
-0.000407294
0.0247119
-0.000696839
0.0244714
-0.00103407
0.0241602
-0.00142107
0.0237276
-0.00192343
0.023228
-0.00250716
0.0224934
-0.00337262
0.0217551
-0.00429367
0.0203696
-0.00605985
0.0189233
-0.00720117
0.0151076
-0.0119908
0.00829514
-0.0083998
0.00413505
-0.00691287
0.00194653
-0.00589388
0.000939561
-0.00455638
0.000527145
-0.00315927
0.000371441
-0.00207404
0.000318021
-0.00137139
0.000938422
-0.00106097
0.00315146
-0.00553898
0.00473686
-0.00678218
0.00549326
-0.00647498
0.00576668
-0.00579552
0.00576168
-0.00488496
0.00564343
-0.00387489
0.00551581
-0.00283452
0.00544735
-0.00182908
0.00545813
-0.00088415
0.00555607
-1.1501e-05
0.00583123
0.000739274
0.00627646
0.00148853
0.00692188
0.00228183
0.00778039
0.00315496
0.00885399
0.00409912
0.0101473
0.00504331
0.0115946
0.00597427
0.0131348
0.0067797
0.0146972
0.00737404
0.0162162
0.00769834
0.0176378
0.00773565
0.018926
0.0075077
0.0200621
0.00706688
0.0210421
0.00648031
0.0218724
0.00581412
0.0225658
0.00512342
0.0231377
0.00444878
0.0236036
0.00381664
0.0239777
0.00324199
0.0242728
0.00273152
0.0245001
0.0022865
0.0246698
0.00190474
0.0247914
0.00158214
0.0248737
0.00131326
0.024925
0.00109242
0.0249533
0.0009129
0.0249654
0.000769314
0.0249677
0.000654071
0.0249651
0.000564404
0.0249618
0.000490496
0.02496
0.000437018
0.0249625
0.000385599
0.0249679
0.000360173
0.000314637
0.0249604
-9.40504e-05
0.0248399
-0.000286782
0.0246347
-0.000491592
0.0243312
-0.000730597
0.0239183
-0.00100814
0.0233618
-0.00136693
0.0226489
-0.00179425
0.0216803
-0.00240405
0.0204724
-0.00308576
0.0186268
-0.00421426
0.0164707
-0.00504508
0.0121827
-0.00770275
0.00877461
-0.00499173
0.00614039
-0.00427866
0.00403255
-0.00378604
0.00247722
-0.00300105
0.0014712
-0.00215325
0.000884125
-0.00148697
0.000611096
-0.00109836
0.000899717
-0.00134959
0.000959205
-0.00559847
2.62659e-05
-0.00584924
-0.000987005
-0.00546171
-0.00199842
-0.0047841
-0.00286005
-0.00402333
-0.00353828
-0.00319666
-0.00401121
-0.0023616
-0.00427446
-0.00156583
-0.0043303
-0.000828315
-0.00422928
-0.000112513
-0.0039249
0.000434889
-0.00343046
0.00099409
-0.00272967
0.00158105
-0.00178583
0.00221112
-0.000570502
0.00288379
0.000876773
0.00359603
0.00258871
0.00426233
0.00451378
0.00485463
0.00657832
0.0053095
0.00869799
0.00557867
0.0107865
0.00564711
0.0127749
0.0055193
0.0146127
0.00522914
0.0162675
0.00482544
0.0177251
0.0043566
0.0189851
0.00386334
0.0200576
0.00337634
0.020958
0.00291624
0.0217047
0.00249529
0.0223168
0.0021194
0.0228131
0.00179023
0.0232113
0.00150655
0.0235279
0.00126555
0.0237779
0.00106322
0.0239749
0.000895414
0.0241307
0.000757102
0.0242554
0.000644617
0.0243573
0.000552225
0.0244428
0.000478834
0.0245169
0.000416413
0.0245833
0.000370674
0.0246439
0.000324967
0.0247013
0.00030272
0.000260442
0.0249545
-4.85908e-05
0.0248159
-0.000148172
0.0245786
-0.000254261
0.0242264
-0.000378365
0.0237413
-0.00052308
0.023085
-0.000710638
0.0222247
-0.00093392
0.0210722
-0.00125156
0.0195865
-0.00160007
0.0175411
-0.00216889
0.0150651
-0.00256909
0.0112007
-0.00383832
0.00855497
-0.002346
0.00626084
-0.00198453
0.00427314
-0.00179833
0.00274694
-0.00147486
0.00169186
-0.00109816
0.000996206
-0.000791313
0.000528451
-0.000630609
0.000117662
-0.000938798
-0.00204306
-0.00343775
-0.00447145
-0.00342085
-0.00677966
-0.0031535
-0.0088118
-0.00275196
-0.0105343
-0.00230088
-0.0118985
-0.00183245
-0.0128909
-0.00136918
-0.0135264
-0.000930304
-0.013831
-0.000523762
-0.01382
-0.00012345
-0.0135757
0.000190523
-0.0130696
0.000488017
-0.0122955
0.000806981
-0.011231
0.00114657
-0.00985331
0.00150614
-0.00813463
0.00187735
-0.00610431
0.00223202
-0.00379743
0.00254775
-0.00128187
0.00279394
0.00134415
0.00295265
0.00399207
0.00299919
0.00656229
0.00294908
0.00898705
0.00280438
0.0112141
0.00259837
0.0132144
0.00235632
0.0149782
0.0020995
0.0165103
0.00184424
0.0178249
0.00160166
0.0189416
0.00137855
0.0198827
0.00117834
0.0206708
0.00100214
0.0213279
0.000849471
0.0218744
0.000718981
0.022329
0.000608624
0.0227081
0.000516319
0.0230258
0.00043944
0.0232941
0.00037626
0.0235227
0.000323662
0.02372
0.00028153
0.0238913
0.000245083
0.0240435
0.000218469
0.0241774
0.000191087
0.0243019
0.000178273
0.000152198
0.0249514
1.06916e-08
0.0248032
1.41235e-08
0.0245489
1.58187e-08
0.0241706
1.70956e-08
0.0236475
1.77315e-08
0.0229368
1.73612e-08
0.0220029
1.65097e-08
0.0207513
1.44741e-08
0.0191512
1.29797e-08
0.0169823
9.42871e-09
0.0144132
9.23869e-09
0.0105749
3.7369e-09
0.00822889
2.48868e-09
0.00624435
1.11124e-08
0.00444599
1.70451e-08
0.00297112
2.15237e-08
0.00187293
2.48502e-08
0.00108159
2.5724e-08
0.000450961
2.12571e-08
-0.000487804
-3.21298e-08
-0.00392521
-3.44344e-07
-0.00734554
-5.18206e-07
-0.0104983
-6.94147e-07
-0.0132495
-8.41628e-07
-0.0155494
-9.34204e-07
-0.0173809
-9.8235e-07
-0.0187491
-9.93918e-07
-0.0196784
-9.66944e-07
-0.0202013
-9.0609e-07
-0.0203239
-8.40901e-07
-0.0201327
-6.41271e-07
-0.0196442
-4.60127e-07
-0.018837
-2.38369e-07
-0.0176905
3.42277e-08
-0.0161847
3.26888e-07
-0.014308
6.6576e-07
-0.012077
1.03067e-06
-0.00953059
1.36092e-06
-0.00673829
1.62787e-06
-0.00378747
1.83622e-06
-0.000790126
1.84446e-06
0.00215714
1.81104e-06
0.00495991
1.61817e-06
0.00755691
1.36428e-06
0.00991215
1.07537e-06
0.0120109
7.78674e-07
0.0138546
4.96402e-07
0.015456
2.45726e-07
0.0168346
3.41885e-08
0.018013
-1.33846e-07
0.0190154
-2.60403e-07
0.0198653
-3.47977e-07
0.0205846
-4.01595e-07
0.0211937
-4.2699e-07
0.0217104
-4.30343e-07
0.0221503
-4.17293e-07
0.0225269
-3.93531e-07
0.022851
-3.63006e-07
0.0231328
-3.30519e-07
0.0233782
-2.96958e-07
0.023597
-2.67656e-07
0.0237883
-2.3754e-07
0.0239668
-2.19271e-07
-1.89128e-07
0.0249514
4.86121e-05
0.0248032
0.0001482
0.0245489
0.000254292
0.0241706
0.000378399
0.0236475
0.000523116
0.0229368
0.000710673
0.0220029
0.000933953
0.0207513
0.00125158
0.0191512
0.00160009
0.0169823
0.00216891
0.0144132
0.00256911
0.0105749
0.00383832
0.00822889
0.00234601
0.00624435
0.00198455
0.004446
0.00179837
0.00297112
0.0014749
0.00187293
0.00109821
0.00108159
0.000791369
0.000450947
0.000630664
-0.000487876
0.000938791
-0.00392541
0.00343719
-0.00734584
0.00341991
-0.0104988
0.00315221
-0.01325
0.00275038
-0.01555
0.00229914
-0.0173817
0.00183063
-0.01875
0.00136736
-0.0196795
0.000928543
-0.0202026
0.000522127
-0.0203252
0.000121792
-0.0201343
-0.000191529
-0.019646
-0.000488805
-0.0188388
-0.000807389
-0.0176923
-0.00114646
-0.0161865
-0.00150545
-0.0143099
-0.00187601
-0.0120788
-0.00222999
-0.00953239
-0.00254508
-0.00674002
-0.00279074
-0.00378905
-0.00294914
-0.000791593
-0.00299561
0.00215593
-0.00294571
0.00495892
-0.00280137
0.00755614
-0.00259586
0.0099116
-0.00235438
0.0120105
-0.00209815
0.0138544
-0.00184342
0.015456
-0.00160132
0.0168346
-0.00137861
0.0180132
-0.0011787
0.0190157
-0.00100273
0.0198655
-0.00085021
0.0205849
-0.000719808
0.021194
-0.000609486
0.0217107
-0.000517176
0.0221506
-0.000440263
0.0225272
-0.00037703
0.0228512
-0.000324367
0.0231331
-0.000282169
0.0233784
-0.000245654
0.0235971
-0.000218982
0.0237884
-0.000191541
0.0239669
-0.000178692
-0.000152559
0.0249545
9.40716e-05
0.0248159
0.00028681
0.0245786
0.000491624
0.0242264
0.000730631
0.0237413
0.00100818
0.023085
0.00136697
0.0222247
0.00179429
0.0210722
0.00240408
0.0195865
0.00308579
0.0175411
0.00421428
0.0150651
0.0050451
0.0112007
0.00770275
0.00855497
0.00499173
0.00626085
0.00427868
0.00427315
0.00378607
0.00274695
0.0030011
0.00169186
0.0021533
0.000996207
0.00148703
0.000528438
0.00109843
0.000117575
0.00134965
-0.00204335
0.00559812
-0.00447193
0.00584849
-0.00678036
0.00546064
-0.00881276
0.00478278
-0.0105355
0.00402189
-0.0119
0.00319517
-0.0128928
0.00236013
-0.0135287
0.00156444
-0.0138336
0.000827041
-0.0138232
0.000111351
-0.013579
-0.000435671
-0.0130732
-0.000994641
-0.0122993
-0.00158127
-0.0112349
-0.0022109
-0.00985731
-0.00288303
-0.0081386
-0.00359472
-0.00610822
-0.00426038
-0.00380121
-0.00485209
-0.00128543
-0.00530651
0.0013409
-0.00557547
0.0039892
-0.00564391
0.00655983
-0.00551635
0.00898506
-0.00522659
0.0112126
-0.00482341
0.0132133
-0.00435512
0.0149776
-0.00386241
0.0165101
-0.0033759
0.017825
-0.00291622
0.018942
-0.0024956
0.0198832
-0.00211996
0.0206715
-0.00179096
0.0213286
-0.00150738
0.0218753
-0.00126643
0.0223299
-0.0010641
0.022709
-0.00089626
0.0230266
-0.000757893
0.0232949
-0.000645342
0.0235234
-0.000552877
0.0237207
-0.000479414
0.0238919
-0.000416924
0.0240441
-0.000371128
0.0241779
-0.000325366
0.0243023
-0.000303084
-0.000260756
0.0249604
0.000133624
0.0248399
0.000407322
0.0246347
0.00069687
0.0243312
0.0010341
0.0239183
0.0014211
0.0233618
0.00192346
0.0226489
0.00250719
0.0216803
0.00337265
0.0204724
0.0042937
0.0186268
0.00605986
0.0164708
0.00720118
0.0121827
0.0119908
0.00877462
0.0083998
0.0061404
0.00691289
0.00403256
0.00589391
0.00247724
0.00455642
0.00147121
0.00315933
0.000884135
0.00207411
0.000611101
0.00137147
0.000899679
0.00106108
0.000959005
0.00553879
2.5855e-05
0.00678164
-0.000987625
0.00647412
-0.00199931
0.00579446
-0.00286124
0.00488382
-0.00353981
0.00387374
-0.0040131
0.00283342
-0.00427672
0.00182806
-0.00433291
0.000883226
-0.0042324
1.08476e-05
-0.00392825
-0.000739824
-0.00343404
-0.00148885
-0.00273344
-0.00228187
-0.00178974
-0.0031546
-0.000574378
-0.00409839
0.000872916
-0.00504201
0.00258493
-0.0059724
0.00451015
-0.00677731
0.00657494
-0.0073713
0.00869494
-0.00769546
0.0107839
-0.00773287
0.0127728
-0.00750522
0.014611
-0.00706484
0.0162664
-0.0064788
0.0177244
-0.00581314
0.018985
-0.00512295
0.0200578
-0.00444873
0.0209585
-0.00381694
0.0217055
-0.00324255
0.0223178
-0.00273227
0.0228142
-0.00228736
0.0232125
-0.00190564
0.0235291
-0.00158305
0.0237791
-0.00131413
0.0239761
-0.00109323
0.0241318
-0.000913642
0.0242565
-0.000769974
0.0243582
-0.00065465
0.0244437
-0.000564906
0.0245177
-0.000490927
0.024584
-0.000437391
0.0246446
-0.000385922
0.0247019
-0.000360462
-0.000314885
0.0249689
0.00016468
0.0248722
0.000504098
0.0247119
0.000857114
0.0244714
0.00127467
0.0241602
0.00173221
0.0237276
0.00235608
0.023228
0.00300685
0.0224934
0.00410725
0.0217551
0.00503198
0.0203696
0.00744532
0.0189233
0.00864748
0.0151076
0.0158065
0.00829515
0.0152123
0.00413507
0.011073
0.00194654
0.00808244
0.000939576
0.00556339
0.000527159
0.00357174
0.000371456
0.00222981
0.000318044
0.00142488
0.000938431
0.00044069
0.00315136
0.00332587
0.00473659
0.00519641
0.00549275
0.00571796
0.00576594
0.00552128
0.00576069
0.00488907
0.00564217
0.00399226
0.00551428
0.00296131
0.00544555
0.00189679
0.00545601
0.00087277
0.00555381
-8.69527e-05
0.00582873
-0.00101475
0.0062738
-0.00193392
0.00691909
-0.00292715
0.00777754
-0.00401305
0.00885103
-0.00517189
0.0101443
-0.00633531
0.0115917
-0.00741978
0.013132
-0.00831761
0.0146946
-0.00893394
0.016214
-0.00921479
0.0176361
-0.00915496
0.0189247
-0.0087939
0.0200614
-0.00820149
0.0210419
-0.00745931
0.0218727
-0.00664392
0.0225665
-0.00581673
0.0231386
-0.00502091
0.0236047
-0.00428301
0.023979
-0.00361684
0.0242742
-0.00302747
0.0245016
-0.00251474
0.0246713
-0.00207539
0.0247929
-0.0017046
0.0248751
-0.00139637
0.0249264
-0.00114452
0.0249545
-0.000941799
0.0249666
-0.000782035
0.0249688
-0.000656863
0.0249661
-0.000562223
0.0249627
-0.000487543
0.0249609
-0.000435512
0.0249633
-0.000388322
0.0249686
-0.000365775
-0.000327826
0.0249785
0.000186189
0.0249102
0.000572387
0.0248
0.000967338
0.0246357
0.00143893
0.0244321
0.00193583
0.0241585
0.00262967
0.0238583
0.00330702
0.0234727
0.00449291
0.0230733
0.00543132
0.0227919
0.0077268
0.022469
0.00897032
0.0255897
0.0126858
0.0256703
0.0151317
0.0221518
0.0145915
0.0181277
0.0121065
0.0142538
0.00943727
0.0108228
0.00700277
0.00808438
0.00496824
0.00596695
0.00354231
0.00423609
0.00217155
0.00512043
0.00244153
0.00718475
0.00313209
0.00923336
0.00366934
0.010828
0.00392664
0.0119397
0.00377735
0.012669
0.00326297
0.0131351
0.00249526
0.0134474
0.00158443
0.0137255
0.000594684
0.0140281
-0.000389553
0.0144367
-0.0014233
0.015024
-0.00252125
0.0157986
-0.00370177
0.0167474
-0.00496183
0.0178286
-0.00625308
0.0189844
-0.00749114
0.0201396
-0.008575
0.0212262
-0.00940419
0.0221926
-0.00990031
0.0230078
-0.01003
0.0236627
-0.00980993
0.0241672
-0.00929837
0.0245429
-0.00857719
0.0248164
-0.00773283
0.0250137
-0.00684119
0.0251566
-0.00595965
0.0252616
-0.00512589
0.0253395
-0.00436096
0.0253968
-0.00367407
0.0254364
-0.0030671
0.0254598
-0.00253811
0.0254677
-0.00208326
0.025461
-0.00169796
0.0254415
-0.0013768
0.0254111
-0.00111422
0.0253728
-0.000903479
0.0253294
-0.000738617
0.025284
-0.000611434
0.0252392
-0.000517414
0.0251978
-0.000446208
0.0251611
-0.000398739
0.025132
-0.000359247
0.0251076
-0.000341426
-0.000315825
0.0249877
0.000198463
0.0249507
0.000609436
0.0248898
0.00102819
0.0248086
0.00152016
0.0247062
0.0020382
0.0246054
0.00273047
0.0244846
0.00342783
0.0244755
0.00450203
0.0244334
0.00547342