/*--------------------------------*- C++ -*----------------------------------*\
  =========                 |
  \\      /  F ield         | OpenFOAM: The Open Source CFD Toolbox
   \\    /   O peration     | Website:  https://openfoam.org
    \\  /    A nd           | Version:  11
     \\/     M anipulation  |
\*---------------------------------------------------------------------------*/
FoamFile
{
    format      ascii;
    class       volScalarField;
    location    "99";
    object      p;
}
// * * * * * * * * * * * * * * * * * * * * * * * * * * * * * * * * * * * * * //

dimensions      [0 2 -2 0 0 0 0];

internalField   nonuniform List<scalar> 
2048
(
0.311157
0.308793
0.304031
0.296673
0.286602
0.273718
0.257908
0.239068
0.217139
0.192165
0.164331
0.13401
0.101798
0.0685325
0.0352833
0.00330135
-0.0260743
-0.0515492
-0.072024
-0.0867268
-0.0952888
-0.0977542
-0.0945457
-0.0864136
-0.0743963
-0.0597269
-0.0437265
-0.0277337
-0.0130093
-0.000643326
0.00853044
0.0140212
0.0157612
0.014155
0.0100694
0.00474854
-0.000341536
-0.00378047
-0.00426588
-0.00132872
0.00516098
0.0148364
0.0269124
0.0403976
0.0542725
0.0676216
0.079712
0.0900224
0.0982317
0.104201
0.107923
0.109522
0.109165
0.107143
0.103662
0.0991413
0.0935732
0.0874764
0.0803667
0.0729099
0.0627726
0.0521257
0.0351439
0.0178542
0.313601
0.311258
0.306531
0.299219
0.28919
0.276324
0.260483
0.241531
0.21938
0.19404
0.16567
0.134628
0.101512
0.0671917
0.0328023
-0.000310437
-0.0306976
-0.0569627
-0.0779362
-0.0928154
-0.101229
-0.103232
-0.099263
-0.0901075
-0.0769116
-0.060979
-0.0437293
-0.0266074
-0.0109718
0.00200619
0.0114349
0.0167997
0.0180493
0.015643
0.0105347
0.00407981
-0.00214363
-0.00659373
-0.00768538
-0.00516051
0.00117451
0.0109387
0.0232806
0.0371388
0.0514327
0.0652018
0.0776873
0.0883579
0.0968925
0.103156
0.107148
0.108999
0.108883
0.107091
0.103835
0.0995313
0.0941944
0.0883598
0.0812974
0.0739121
0.0638414
0.0532123
0.0360032
0.0184641
0.318476
0.316176
0.31153
0.304323
0.294398
0.281593
0.265715
0.246566
0.223988
0.197923
0.168475
0.135964
0.100993
0.0644884
0.0277187
-0.00776742
-0.0402741
-0.0681779
-0.0901666
-0.10539
-0.113483
-0.11452
-0.108962
-0.097669
-0.0820191
-0.0634413
-0.0435887
-0.0241281
-0.00661575
0.0076116
0.0175372
0.0225917
0.0227619
0.0186347
0.0113557
0.00250881
-0.00609106
-0.0127503
-0.0150968
-0.0134481
-0.00739534
0.00262035
0.0155825
0.0302711
0.0454743
0.0601405
0.0734593
0.0848793
0.0940803
0.10094
0.105473
0.107821
0.10817
0.106821
0.104001
0.1001
0.0951598
0.0896554
0.0828656
0.0756302
0.0657272
0.0550935
0.037554
0.0195352
0.325731
0.323506
0.319004
0.311993
0.302274
0.289622
0.27376
0.254387
0.231229
0.204106
0.173019
0.138226
0.100332
0.0603563
0.0197688
-0.0195488
-0.0554676
-0.0859731
-0.109537
-0.125264
-0.132821
-0.132299
-0.124054
-0.10949
-0.0898917
-0.0670578
-0.0430206
-0.0198329
0.000651864
0.0168299
0.0274771
0.0319273
0.0302206
0.0231489
0.0121919
-0.000617848
-0.0129745
-0.0227292
-0.0277393
-0.0275154
-0.0217825
-0.0112201
0.00288871
0.0190534
0.0358291
0.0520044
0.0666883
0.0793062
0.0895472
0.0973161
0.102658
0.105736
0.106755
0.10603
0.103816
0.100473
0.0960404
0.0908657
0.0844282
0.0773427
0.0676264
0.0568918
0.0389714
0.0203727
0.335277
0.333177
0.328913
0.322234
0.312883
0.300552
0.284851
0.26533
0.241539
0.213092
0.179798
0.141786
0.0996593
0.0546033
0.0084002
-0.0365394
-0.0773958
-0.111588
-0.137334
-0.153723
-0.160478
-0.15779
-0.145737
-0.126248
-0.100847
-0.0717777
-0.0416221
-0.0130651
0.011693
0.0306209
0.0421622
0.0455231
0.0408457
0.0292072
0.0125649
-0.00638669
-0.0245691
-0.03893
-0.0481024
-0.0497805
-0.0441742
-0.0324301
-0.016287
0.00232482
0.0216054
0.0401133
0.0568481
0.0712122
0.0829243
0.0919393
0.0983501
0.102359
0.104217
0.10427
0.102783
0.100036
0.0960528
0.0910767
0.0848395
0.0777542
0.0682643
0.0574171
0.0395891
0.0204697
0.346976
0.345069
0.341177
0.335026
0.32629
0.314554
0.29928
0.279832
0.255517
0.225636
0.189659
0.147381
0.0993245
0.0469331
-0.00744655
-0.0604002
-0.10799
-0.146988
-0.175505
-0.192677
-0.198176
-0.191863
-0.175198
-0.148845
-0.115243
-0.077448
-0.0388305
-0.00288244
0.0277348
0.0503107
0.0627375
0.0640439
0.0546224
0.0360297
0.010913
-0.0171141
-0.0439564
-0.0656786
-0.079836
-0.0837775
-0.0778748
-0.0638917
-0.0442422
-0.0216092
0.00160024
0.0236088
0.0432975
0.0600805
0.0737557
0.0843704
0.0920947
0.0972029
0.100028
0.100945
0.100166
0.0978302
0.0939754
0.0889023
0.0827305
0.0757812
0.0669309
0.0563096
0.0392989
0.019921
0.360614
0.358993
0.355652
0.350303
0.342538
0.33182
0.317406
0.298432
0.273882
0.242668
0.203779
0.156304
0.100354
0.037414
-0.029157
-0.0936994
-0.150304
-0.195227
-0.227015
-0.245159
-0.249223
-0.238871
-0.215024
-0.178997
-0.133902
-0.084118
-0.0342562
0.0117752
0.0507039
0.0782462
0.0915109
0.0893944
0.072737
0.0437393
0.00603889
-0.0353286
-0.0746872
-0.106906
-0.127608
-0.134248
-0.127119
-0.109141
-0.0838081
-0.0549012
-0.0257425
0.00139435
0.0252518
0.0453155
0.0615389
0.0741223
0.0833772
0.0897212
0.0935816
0.09528
0.0948929
0.0925109
0.0884218
0.0832208
0.0774279
0.0710641
0.0632949
0.0532942
0.0376559
0.0186461
0.375885
0.374663
0.372096
0.367907
0.361596
0.35253
0.339671
0.321872
0.297564
0.265227
0.223273
0.169865
0.104373
0.0268437
-0.0578236
-0.139155
-0.20789
-0.26018
-0.295853
-0.315201
-0.317471
-0.301988
-0.268612
-0.219459
-0.15862
-0.0921677
-0.0270101
0.0304966
0.0808174
0.116068
0.13099
0.125102
0.0999542
0.0582875
0.00470141
-0.054305
-0.11113
-0.158354
-0.18958
-0.202345
-0.195281
-0.172082
-0.138306
-0.0999554
-0.0620026
-0.0275402
0.00202874
0.0263921
0.0457958
0.0607099
0.0716884
0.0793306
0.0841
0.0862208
0.0857417
0.0829546
0.0785795
0.0735031
0.0684164
0.0630098
0.0566094
0.0477313
0.0341247
0.0165271
0.392368
0.391672
0.390126
0.387518
0.383262
0.376737
0.366507
0.351228
0.328133
0.295157
0.249212
0.188099
0.111019
0.0134892
-0.0968732
-0.200882
-0.285172
-0.34676
-0.387322
-0.408467
-0.409676
-0.387762
-0.341458
-0.274383
-0.193142
-0.105349
-0.0190618
0.0586559
0.113654
0.157769
0.175051
0.166105
0.133294
0.0801516
0.0122732
-0.0631587
-0.137736
-0.202587
-0.25045
-0.274317
-0.273066
-0.248384
-0.206915
-0.157568
-0.108271
-0.0640286
-0.0269018
0.00295199
0.0262133
0.0437889
0.0565897
0.0654226
0.0707851
0.0728815
0.0718987
0.0684946
0.0638419
0.0590632
0.0548779
0.0507722
0.0461288
0.0391323
0.028424
0.0135692
0.409523
0.409475
0.409189
0.408593
0.407029
0.404113
0.397964
0.387552
0.368027
0.33697
0.285517
0.212076
0.113572
-0.0176926
-0.162872
-0.291355
-0.390398
-0.461063
-0.506608
-0.529549
-0.530431
-0.50148
-0.440432
-0.350539
-0.241939
-0.12949
-0.0239988
0.0703762
0.149478
0.191639
0.20128
0.183396
0.144048
0.0862402
0.0127949
-0.070944
-0.156785
-0.23503
-0.296628
-0.334347
-0.343727
-0.323692
-0.27969
-0.222064
-0.161816
-0.106909
-0.061066
-0.0248181
0.00282119
0.0232587
0.0378425
0.047619
0.0531535
0.0547241
0.0527986
0.0485145
0.0435013
0.0391017
0.0360195
0.0336429
0.0313271
0.0271715
0.0203704
0.0097927
0.426701
0.427391
0.428562
0.430324
0.43202
0.433689
0.433181
0.430563
0.418909
0.397396
0.344793
0.258376
0.108639
-0.0900906
-0.276555
-0.417854
-0.519063
-0.59147
-0.640614
-0.668526
-0.667757
-0.63311
-0.561959
-0.456343
-0.324438
-0.183538
-0.0573865
0.0385758
0.104548
0.141683
0.150752
0.137919
0.10579
0.0554684
-0.0119219
-0.093112
-0.181151
-0.265847
-0.336313
-0.383732
-0.402162
-0.388628
-0.346295
-0.284756
-0.216543
-0.152376
-0.0982196
-0.0556141
-0.0236159
-0.000440512
0.0156521
0.0259269
0.0310497
0.0314743
0.0280794
0.0225569
0.0169985
0.0129812
0.0112233
0.0110993
0.0118837
0.0117066
0.00998304
0.00530898
0.443168
0.444629
0.447374
0.451662
0.457003
0.463795
0.470193
0.477371
0.478545
0.476613
0.44233
0.375943
0.157225
-0.163907
-0.390627
-0.523977
-0.607902
-0.666544
-0.709322
-0.739873
-0.745936
-0.721274
-0.657587
-0.55427
-0.421049
-0.282035
-0.163174
-0.0769467
-0.019709
0.0190337
0.0277273
0.0251361
0.00953985
-0.0213459
-0.0693204
-0.134345
-0.212442
-0.294466
-0.368028
-0.421398
-0.446273
-0.438738
-0.400021
-0.338135
-0.265759
-0.195317
-0.134796
-0.0870303
-0.0514653
-0.0261942
-0.00924627
0.00080183
0.0047478
0.00329232
-0.00221085
-0.00948427
-0.0159249
-0.0196411
-0.0198033
-0.0170224
-0.0121681
-0.00710652
-0.00248481
0.000286439
0.458148
0.460352
0.464656
0.471414
0.480458
0.492344
0.506139
0.523235
0.539763
0.560098
0.567103
0.579438
0.442303
-0.0801891
-0.368528
-0.521046
-0.606325
-0.656044
-0.690867
-0.739012
-0.746057
-0.726859
-0.684552
-0.608879
-0.505956
-0.401188
-0.313974
-0.252004
-0.211006
-0.184207
-0.157142
-0.137417
-0.126708
-0.129577
-0.149898
-0.189679
-0.247914
-0.318043
-0.387744
-0.442787
-0.471983
-0.469678
-0.435417
-0.375896
-0.303201
-0.230313
-0.16653
-0.11586
-0.0783548
-0.0522487
-0.0355211
-0.0266846
-0.0248554
-0.0290871
-0.0375125
-0.0472173
-0.0549891
-0.0585215
-0.0567766
-0.0503659
-0.0403766
-0.0288056
-0.0165846
-0.00506839
0.470882
0.473743
0.479423
0.488381
0.500718
0.517206
0.53764
0.563706
0.593824
0.631763
0.668634
0.710661
0.658842
0.186283
-0.123391
-0.323948
-0.458137
-0.545797
-0.603926
-0.645723
-0.66409
-0.666763
-0.653458
-0.617726
-0.567489
-0.519335
-0.483215
-0.457084
-0.432125
-0.404164
-0.360262
-0.311891
-0.269649
-0.24138
-0.23243
-0.245048
-0.279578
-0.332184
-0.392278
-0.444765
-0.475973
-0.477804
-0.448455
-0.393443
-0.323937
-0.252611
-0.18925
-0.138654
-0.101496
-0.0763229
-0.0612322
-0.0548211
-0.0562265
-0.064289
-0.0765963
-0.0895147
-0.0991207
-0.102615
-0.0986705
-0.0879336
-0.071793
-0.0525795
-0.0316775
-0.0105153
0.480708
0.484077
0.490796
0.501451
0.516279
0.536353
0.561684
0.594634
0.633481
0.683283
0.732751
0.792479
0.763358
0.290253
-0.0314677
-0.245193
-0.390583
-0.485043
-0.544445
-0.575749
-0.593609
-0.597634
-0.603897
-0.60822
-0.615997
-0.631255
-0.648254
-0.655917
-0.643182
-0.610238
-0.547583
-0.470788
-0.395158
-0.334762
-0.297371
-0.284673
-0.29629
-0.329865
-0.377226
-0.424057
-0.455232
-0.460621
-0.436601
-0.388032
-0.324849
-0.258852
-0.199631
-0.152329
-0.118106
-0.0958808
-0.0840279
-0.081398
-0.0872596
-0.100274
-0.11745
-0.134367
-0.146305
-0.149901
-0.143556
-0.127982
-0.10492
-0.0772667
-0.046973
-0.0157979
0.487129
0.490787
0.498111
0.509737
0.526013
0.5481
0.576237
0.612779
0.656357
0.711336
0.76722
0.83251
0.814282
0.358586
0.0391617
-0.180847
-0.333943
-0.43397
-0.495156
-0.525807
-0.539904
-0.543343
-0.565384
-0.603595
-0.660059
-0.727835
-0.785711
-0.820178
-0.822493
-0.781733
-0.703293
-0.599845
-0.492015
-0.400209
-0.335866
-0.300582
-0.292038
-0.307625
-0.341151
-0.380178
-0.409615
-0.418662
-0.399766
-0.359291
-0.305047
-0.247556
-0.195747
-0.1547
-0.125863
-0.10853
-0.101478
-0.103955
-0.115439
-0.134415
-0.157293
-0.178865
-0.193545
-0.197416
-0.188654
-0.168057
-0.137743
-0.101384
-0.0615535
-0.0206454
0.489854
0.493558
0.500976
0.512751
0.529238
0.551594
0.580075
0.617011
0.661066
0.71655
0.773042
0.83902
0.821826
0.369595
0.0541775
-0.161763
-0.310727
-0.406977
-0.464953
-0.500282
-0.506438
-0.508642
-0.542912
-0.604001
-0.689963
-0.794942
-0.876349
-0.927492
-0.937368
-0.897904
-0.809682
-0.685767
-0.551582
-0.433301
-0.346061
-0.291984
-0.266894
-0.266869
-0.286886
-0.316638
-0.341975
-0.350465
-0.340309
-0.309539
-0.26608
-0.219388
-0.17741
-0.144873
-0.123333
-0.112438
-0.111454
-0.120109
-0.138102
-0.163725
-0.192801
-0.219368
-0.237085
-0.241531
-0.230573
-0.205149
-0.167832
-0.123206
-0.0744219
-0.0247873
0.488826
0.492332
0.499331
0.510428
0.525875
0.546754
0.573092
0.607237
0.647471
0.698814
0.749972
0.811753
0.785781
0.321778
0.0120616
-0.188632
-0.321105
-0.40357
-0.451397
-0.486913
-0.477285
-0.484075
-0.524278
-0.597743
-0.70068
-0.813715
-0.908936
-0.970401
-0.985821
-0.948029
-0.854543
-0.718098
-0.567447
-0.432494
-0.330311
-0.263241
-0.226014
-0.213419
-0.221109
-0.241158
-0.26171
-0.271676
-0.266044
-0.244298
-0.212103
-0.177166
-0.146219
-0.123403
-0.110224
-0.106654
-0.112477
-0.127898
-0.15279
-0.185236
-0.220528
-0.252077
-0.272945
-0.278224
-0.265525
-0.23601
-0.192638
-0.140947
-0.0845857
-0.0279722
0.484254
0.487335
0.493465
0.503131
0.516465
0.534246
0.55632
0.584331
0.616766
0.657173
0.696909
0.741674
0.695883
0.239702
-0.0509871
-0.230749
-0.343543
-0.409791
-0.444782
-0.47462
-0.448785
-0.455564
-0.496677
-0.572801
-0.677389
-0.790226
-0.887662
-0.955641
-0.972103
-0.935483
-0.839478
-0.697706
-0.541349
-0.40145
-0.294386
-0.221486
-0.17699
-0.155211
-0.152306
-0.162687
-0.177246
-0.186381
-0.184444
-0.170611
-0.14891
-0.125325
-0.105282
-0.092204
-0.0874511
-0.0912858
-0.103976
-0.126119
-0.157668
-0.196488
-0.237458
-0.273553
-0.297421
-0.303774
-0.290071
-0.257684
-0.209847
-0.153003
-0.0911745
-0.0299918
0.476549
0.479039
0.483943
0.491631
0.502003
0.515581
0.5316
0.551245
0.571076
0.594662
0.605902
0.620836
0.487141
-0.013308
-0.269801
-0.387568
-0.440056
-0.459424
-0.462625
-0.454016
-0.417422
-0.420701
-0.457366
-0.528839
-0.627062
-0.732752
-0.824617
-0.886054
-0.911283
-0.875208
-0.777094
-0.635293
-0.482787
-0.348708
-0.246154
-0.174338
-0.12713
-0.0993739
-0.0879934
-0.0894179
-0.097231
-0.103824
-0.103866
-0.095999
-0.0829315
-0.0690944
-0.058618
-0.0541753
-0.056958
-0.0674775
-0.0863867
-0.11453
-0.151841
-0.195978
-0.241568
-0.281369
-0.307826
-0.31551
-0.301762
-0.268052
-0.217793
-0.158233
-0.0935869
-0.0307111
0.466294
0.468099
0.471556
0.476956
0.483869
0.492688
0.5017
0.511976
0.516984
0.519305
0.48998
0.429755
0.218996
-0.0828598
-0.278341
-0.3766
-0.427231
-0.450399
-0.452571
-0.433116
-0.397295
-0.39263
-0.423606
-0.489175
-0.579258
-0.675463
-0.758237
-0.817117
-0.830805
-0.784445
-0.681022
-0.543838
-0.404247
-0.284905
-0.193681
-0.127999
-0.081786
-0.0506861
-0.0328678
-0.0266119
-0.0278648
-0.0308801
-0.0310341
-0.0269681
-0.0200858
-0.0135634
-0.0104157
-0.0126634
-0.0213553
-0.0371945
-0.0610794
-0.0939396
-0.135595
-0.183537
-0.232312
-0.274698
-0.303192
-0.312393
-0.299534
-0.266172
-0.215771
-0.156182
-0.0916171
-0.030097
0.454191
0.455272
0.457228
0.460239
0.463654
0.467605
0.469901
0.470813
0.463178
0.44677
0.399506
0.320657
0.178727
-0.00867053
-0.176292
-0.292461
-0.365396
-0.405312
-0.419433
-0.413624
-0.391415
-0.383051
-0.411421
-0.474991
-0.558273
-0.640995
-0.707729
-0.738611
-0.726732
-0.663719
-0.559371
-0.436961
-0.319732
-0.221166
-0.144365
-0.0867424
-0.0437307
-0.0116019
0.0107812
0.0234533
0.0281443
0.0289004
0.0296901
0.0320147
0.0352588
0.0371968
0.0356422
0.0290521
0.0164669
-0.00294577
-0.0301884
-0.0661312
-0.110416
-0.160421
-0.210782
-0.254521
-0.284393
-0.295172
-0.284002
-0.252537
-0.20419
-0.147186
-0.0855196
-0.0282392
0.440977
0.441348
0.441891
0.442621
0.44286
0.442351
0.439105
0.432385
0.417007
0.391189
0.345326
0.27885
0.188228
0.065351
-0.0689468
-0.182948
-0.265495
-0.319593
-0.351002
-0.366234
-0.371174
-0.381507
-0.411716
-0.463342
-0.527708
-0.580611
-0.615354
-0.618779
-0.586707
-0.520886
-0.431856
-0.335227
-0.244467
-0.166723
-0.103343
-0.0530001
-0.013516
0.0177512
0.0423652
0.0600184
0.070346
0.0751035
0.0773949
0.0793155
0.0809462
0.0807536
0.0769913
0.0683453
0.0538793
0.0326932
0.00379397
-0.0335326
-0.0787285
-0.129117
-0.179552
-0.223446
-0.253999
-0.266273
-0.257324
-0.228973
-0.184505
-0.132323
-0.0759895
-0.0253512
0.427361
0.427092
0.426396
0.425137
0.422716
0.418604
0.411301
0.399641
0.380687
0.352632
0.312163
0.257193
0.187093
0.0965614
-0.0066656
-0.102884
-0.179508
-0.235794
-0.275711
-0.304203
-0.325901
-0.347432
-0.374963
-0.409502
-0.445536
-0.480819
-0.495438
-0.484961
-0.450906
-0.396892
-0.329247
-0.256583
-0.186711
-0.124405
-0.0712708
-0.0269847
0.0093295
0.038958
0.0634595
0.0835263
0.0985582
0.108117
0.113206
0.115835
0.117049
0.116281
0.112145
0.103294
0.0886626
0.0672756
0.0382124
0.000972025
-0.0436769
-0.0930353
-0.14224
-0.18524
-0.215777
-0.229322
-0.2227
-0.198199
-0.158913
-0.113217
-0.0640541
-0.0217426
0.413979
0.413179
0.411461
0.408605
0.404111
0.39739
0.387385
0.373011
0.352645
0.32478
0.287771
0.239572
0.179484
0.107042
0.0267312
-0.0511408
-0.117959
-0.171517
-0.213623
-0.247103
-0.274519
-0.298625
-0.322194
-0.346737
-0.370702
-0.389158
-0.392891
-0.379792
-0.350849
-0.308046
-0.255332
-0.198386
-0.142543
-0.0912795
-0.0461493
-0.0073334
0.0256463
0.0534877
0.0771092
0.0973068
0.114308
0.127846
0.137034
0.142449
0.14484
0.144504
0.140878
0.13282
0.119123
0.0986839
0.0706242
0.0346443
-0.00830893
-0.0555614
-0.10259
-0.143889
-0.173639
-0.187469
-0.183623
-0.163322
-0.129972
-0.0918023
-0.0509366
-0.0177793
0.401372
0.400161
0.39765
0.393592
0.387583
0.379099
0.36739
0.351589
0.330643
0.30338
0.268684
0.225378
0.173314
0.11358
0.049058
-0.0150343
-0.07339
-0.123388
-0.165069
-0.199641
-0.228458
-0.252873
-0.274283
-0.293523
-0.309313
-0.318544
-0.317539
-0.304327
-0.278963
-0.243278
-0.200535
-0.154606
-0.108963
-0.0660626
-0.0272598
0.00700697
0.0368964
0.0627706
0.0851606
0.104797
0.122245
0.137858
0.148962
0.157819
0.163444
0.165366
0.163266
0.156561
0.144284
0.125362
0.0989724
0.064957
0.0243684
-0.0202059
-0.0645598
-0.103591
-0.131976
-0.145955
-0.143756
-0.127441
-0.100321
-0.0700875
-0.0378961
-0.0138272
0.38997
0.388456
0.385362
0.380446
0.373381
0.363745
0.350984
0.334428
0.313323
0.286843
0.254295
0.215212
0.169803
0.119134
0.0650776
0.0105298
-0.0411509
-0.0875321
-0.127736
-0.161974
-0.190856
-0.215022
-0.23501
-0.250832
-0.261798
-0.26641
-0.262776
-0.249498
-0.226855
-0.196538
-0.160911
-0.122573
-0.0839948
-0.0471248
-0.0131656
0.0173618
0.0444371
0.0683327
0.0894333
0.108141
0.124774
0.139065
0.15302
0.164005
0.172136
0.176928
0.177537
0.173082
0.162698
0.145542
0.121016
0.0891669
0.0511782
0.00963547
-0.0314565
-0.0674051
-0.0934242
-0.106458
-0.10543
-0.0930705
-0.0723078
-0.0499115
-0.026058
-0.0101983
0.380095
0.37837
0.374868
0.36936
0.361586
0.351213
0.337824
0.320916
0.299948
0.27439
0.243859
0.208223
0.167759
0.123268
0.0760733
0.0280776
-0.0184259
-0.0614308
-0.0997733
-0.133096
-0.161456
-0.184973
-0.203672
-0.217344
-0.225756
-0.227874
-0.222739
-0.209764
-0.189372
-0.162856
-0.132008
-0.0988509
-0.0653307
-0.0329977
-0.00285249
0.024622
0.0493347
0.0714532
0.0912792
0.109134
0.125307
0.139988
0.153719
0.165487
0.174903
0.181348
0.183941
0.181657
0.173445
0.158414
0.136101
0.106794
0.0718847
0.0339983
-0.00306344
-0.0350965
-0.058185
-0.070232
-0.0707699
-0.0626179
-0.0480883
-0.0328503
-0.016308
-0.0071382
0.37198
0.370112
0.366335
0.360436
0.3522
0.341375
0.327641
0.310629
0.289957
0.265292
0.236424
0.203346
0.166329
0.126009
0.0834195
0.0399839
-0.00261373
-0.0427669
-0.0792949
-0.111529
-0.139143
-0.161927
-0.179669
-0.192062
-0.199036
-0.19979
-0.193972
-0.181456
-0.162703
-0.138803
-0.111272
-0.0817777
-0.0518826
-0.0228457
0.00447563
0.0296208
0.0524599
0.0731042
0.0918095
0.108894
0.124641
0.139236
0.152825
0.164987
0.175169
0.182655
0.186532
0.185766
0.179322
0.166351
0.146479
0.120104
0.0886809
0.0547327
0.0216928
-0.00687321
-0.027824
-0.0398023
-0.042559
-0.0385748
-0.0294444
-0.019948
-0.00910146
-0.00478986
0.36578
0.363821
0.359868
0.353721
0.345203
0.334115
0.320214
0.303223
0.282868
0.258925
0.231278
0.199976
0.165287
0.127765
0.0882706
0.0479472
0.00812142
-0.0298771
-0.06492
-0.0961867
-0.123122
-0.145334
-0.162486
-0.174258
-0.180189
-0.180213
-0.174131
-0.162016
-0.144399
-0.12229
-0.0970139
-0.0699943
-0.0425603
-0.0158027
0.0095104
0.0329488
0.0543791
0.0738922
0.0917198
0.108165
0.123519
0.137946
0.151481
0.163859
0.17456
0.182821
0.187692
0.188122
0.183098
0.17184
0.154053
0.130188
0.101659
0.0708019
0.0406764
0.0143318
-0.00558427
-0.018062
-0.0228331
-0.0220136
-0.0167383
-0.0111994
-0.00427873
-0.00314001
0.361598
0.359585
0.355528
0.349239
0.340561
0.329335
0.315365
0.298431
0.27832
0.25487
0.228017
0.197841
0.164613
0.128837
0.0912683
0.0528826
0.0148106
-0.0217766
-0.0558004
-0.086374
-0.11282
-0.134632
-0.151391
-0.162755
-0.168163
-0.167824
-0.161648
-0.149824
-0.13294
-0.111955
-0.0880739
-0.0625829
-0.0366852
-0.0113741
0.012644
0.0349673
0.0554658
0.0742209
0.0914552
0.10746
0.122517
0.136792
0.150293
0.162795
0.173805
0.182561
0.188096
0.189344
0.18529
0.175176
0.158743
0.136463
0.109716
0.0807067
0.052268
0.0271677
0.00774573
-0.00501053
-0.0109963
-0.0120638
-0.00909963
-0.00592265
-0.00139213
-0.00209996
0.359497
0.357458
0.353353
0.346999
0.33825
0.326965
0.312972
0.296077
0.276096
0.252895
0.226433
0.196806
0.164286
0.129353
0.0927062
0.0552464
0.0180178
-0.0178776
-0.0513881
-0.0816027
-0.10779
-0.129382
-0.145921
-0.15703
-0.162298
-0.161816
-0.155613
-0.143947
-0.127426
-0.106981
-0.0837664
-0.0590076
-0.033851
-0.00924285
0.014142
0.0359158
0.0559509
0.074327
0.0912626
0.107044
0.121942
0.136128
0.149612
0.162169
0.173315
0.182295
0.188139
0.189774
0.186181
0.176605
0.160804
0.139258
0.113331
0.0851763
0.0575259
0.0330267
0.0138784
0.00100499
-0.00552558
-0.00744694
-0.00555366
-0.00345483
-6.83946e-05
-0.00158745
)
;

boundaryField
{
    inlet
    {
        type            zeroGradient;
    }
    outlet
    {
        type            fixedValue;
        value           uniform 0;
    }
    top
    {
        type            symmetryPlane;
    }
    bottom
    {
        type            symmetryPlane;
    }
    frontAndBack
    {
        type            empty;
    }
}


// ************************************************************************* //
