/*--------------------------------*- C++ -*----------------------------------*\
  =========                 |
  \\      /  F ield         | OpenFOAM: The Open Source CFD Toolbox
   \\    /   O peration     | Website:  https://openfoam.org
    \\  /    A nd           | Version:  10
     \\/     M anipulation  |
\*---------------------------------------------------------------------------*/
FoamFile
{
    format      ascii;
    class       volScalarField;
    location    "9";
    object      p;
}
// * * * * * * * * * * * * * * * * * * * * * * * * * * * * * * * * * * * * * //

dimensions      [1 -1 -2 0 0 0 0];

internalField   nonuniform List<scalar> 
100
(
1.03845e+07
1.03837e+07
1.03825e+07
1.03811e+07
1.03795e+07
1.03776e+07
1.03756e+07
1.03733e+07
1.03709e+07
1.03683e+07
1.03655e+07
1.03625e+07
1.03594e+07
1.0356e+07
1.03524e+07
1.03486e+07
1.03444e+07
1.03397e+07
1.03336e+07
1.03274e+07
1.03233e+07
1.03193e+07
1.03152e+07
1.03111e+07
1.03071e+07
1.0303e+07
1.02989e+07
1.02949e+07
1.02908e+07
1.02867e+07
1.02827e+07
1.02786e+07
1.02745e+07
1.02705e+07
1.02664e+07
1.02623e+07
1.02583e+07
1.02542e+07
1.02501e+07
1.02461e+07
1.0242e+07
1.02379e+07
1.02339e+07
1.02298e+07
1.02257e+07
1.02217e+07
1.02176e+07
1.02135e+07
1.02095e+07
1.02054e+07
1.02013e+07
1.01973e+07
1.01932e+07
1.01891e+07
1.0185e+07
1.0181e+07
1.01769e+07
1.01728e+07
1.01688e+07
1.01647e+07
1.01606e+07
1.01566e+07
1.01525e+07
1.01484e+07
1.01444e+07
1.01403e+07
1.01362e+07
1.01322e+07
1.01281e+07
1.0124e+07
1.012e+07
1.01159e+07
1.01118e+07
1.01078e+07
1.01037e+07
1.00996e+07
1.00956e+07
1.00915e+07
1.00874e+07
1.00834e+07
1.00793e+07
1.00752e+07
1.00712e+07
1.00671e+07
1.0063e+07
1.0059e+07
1.00549e+07
1.00508e+07
1.00468e+07
1.00427e+07
1.00386e+07
1.00346e+07
1.00305e+07
1.00264e+07
1.00224e+07
1.00183e+07
1.00142e+07
1.00102e+07
1.00061e+07
1.0002e+07
)
;

boundaryField
{
    inlet
    {
        type            zeroGradient;
    }
    outlet
    {
        type            fixedValue;
        value           uniform 1e+07;
    }
    yzfaces
    {
        type            empty;
    }
}


// ************************************************************************* //
