/*--------------------------------*- C++ -*----------------------------------*\
  =========                 |
  \\      /  F ield         | OpenFOAM: The Open Source CFD Toolbox
   \\    /   O peration     | Website:  https://openfoam.org
    \\  /    A nd           | Version:  11
     \\/     M anipulation  |
\*---------------------------------------------------------------------------*/
FoamFile
{
    format      ascii;
    class       volVectorField;
    location    "63";
    object      U;
}
// * * * * * * * * * * * * * * * * * * * * * * * * * * * * * * * * * * * * * //

dimensions      [0 1 -1 0 0 0 0];

internalField   nonuniform List<vector> 
2048
(
(1.00015 -0.000626512 0)
(1.00267 -0.00186688 0)
(1.00758 -0.00310556 0)
(1.01501 -0.00435327 0)
(1.02497 -0.00561719 0)
(1.03747 -0.0068973 0)
(1.05252 -0.00818332 0)
(1.07012 -0.0094527 0)
(1.09021 -0.0106695 0)
(1.11266 -0.0117844 0)
(1.13722 -0.0127353 0)
(1.16351 -0.0134515 0)
(1.191 -0.013859 0)
(1.21903 -0.0138911 0)
(1.2468 -0.0135012 0)
(1.27345 -0.0126754 0)
(1.29811 -0.0114408 0)
(1.31997 -0.00986638 0)
(1.33839 -0.00805271 0)
(1.35295 -0.00611515 0)
(1.3635 -0.00416973 0)
(1.37012 -0.00232739 0)
(1.37313 -0.000696158 0)
(1.37305 0.000628667 0)
(1.37061 0.00154299 0)
(1.36671 0.00198227 0)
(1.36236 0.00190521 0)
(1.35863 0.00130703 0)
(1.35658 0.000219311 0)
(1.35715 -0.00127055 0)
(1.36107 -0.00304453 0)
(1.3688 -0.00494488 0)
(1.38045 -0.00678176 0)
(1.39571 -0.00835005 0)
(1.41387 -0.00944484 0)
(1.43379 -0.00988749 0)
(1.45399 -0.00954339 0)
(1.47279 -0.00834738 0)
(1.48841 -0.0063101 0)
(1.49913 -0.00352295 0)
(1.5036 -0.000172026 0)
(1.50084 0.00350835 0)
(1.49037 0.00727278 0)
(1.47221 0.0108765 0)
(1.44693 0.014113 0)
(1.41547 0.0168351 0)
(1.37903 0.0189547 0)
(1.33896 0.0204425 0)
(1.29652 0.0213118 0)
(1.25303 0.021614 0)
(1.20942 0.0214003 0)
(1.16696 0.020744 0)
(1.12595 0.0196754 0)
(1.08812 0.0182498 0)
(1.05248 0.0164702 0)
(1.02262 0.0143091 0)
(0.99442 0.0118782 0)
(0.976544 0.00879251 0)
(0.957086 0.00580396 0)
(0.957053 0.00135701 0)
(0.946089 -0.00172493 0)
(0.972694 -0.00819101 0)
(0.965921 -0.0101864 0)
(1.03079 -0.0198218 0)
(1.00015 -0.00187549 0)
(1.00264 -0.00558811 0)
(1.00752 -0.0092977 0)
(1.01488 -0.0130397 0)
(1.02479 -0.0168382 0)
(1.03725 -0.0206953 0)
(1.0523 -0.0245821 0)
(1.06997 -0.028432 0)
(1.09022 -0.0321365 0)
(1.11296 -0.0355445 0)
(1.13794 -0.0384652 0)
(1.16481 -0.0406801 0)
(1.19304 -0.0419597 0)
(1.22191 -0.0420941 0)
(1.2506 -0.0409329 0)
(1.27816 -0.0384255 0)
(1.30363 -0.034653 0)
(1.32614 -0.0298332 0)
(1.34498 -0.0242829 0)
(1.35974 -0.0183589 0)
(1.37026 -0.012413 0)
(1.37663 -0.00678266 0)
(1.37918 -0.00178974 0)
(1.37845 0.00223918 0)
(1.37518 0.00505358 0)
(1.37035 0.00641612 0)
(1.36502 0.00618407 0)
(1.36035 0.00433811 0)
(1.35748 0.000987076 0)
(1.35744 -0.00360893 0)
(1.36104 -0.00908921 0)
(1.36879 -0.0149717 0)
(1.38086 -0.0206744 0)
(1.39695 -0.0255559 0)
(1.41631 -0.0289813 0)
(1.43772 -0.0303933 0)
(1.45958 -0.0293893 0)
(1.48006 -0.0257469 0)
(1.49721 -0.0195289 0)
(1.50916 -0.011004 0)
(1.5144 -0.000734059 0)
(1.51189 0.0105576 0)
(1.50114 0.0221036 0)
(1.48222 0.0331357 0)
(1.4558 0.0430054 0)
(1.42297 0.0512561 0)
(1.38504 0.05763 0)
(1.34346 0.0620615 0)
(1.29959 0.0646107 0)
(1.2548 0.0654478 0)
(1.21003 0.0647332 0)
(1.16654 0.0626971 0)
(1.12462 0.0594305 0)
(1.08594 0.0551136 0)
(1.04954 0.0497375 0)
(1.01888 0.0432523 0)
(0.98999 0.0359441 0)
(0.971177 0.0267198 0)
(0.951267 0.0177177 0)
(0.95013 0.00436629 0)
(0.939433 -0.00500308 0)
(0.964195 -0.0243648 0)
(0.958344 -0.0304136 0)
(1.01911 -0.0589038 0)
(1.00014 -0.00310542 0)
(1.00259 -0.00925451 0)
(1.00737 -0.0154078 0)
(1.01461 -0.0216334 0)
(1.02438 -0.0279804 0)
(1.03674 -0.03446 0)
(1.05177 -0.0410324 0)
(1.06954 -0.0475917 0)
(1.0901 -0.0539572 0)
(1.11338 -0.0598672 0)
(1.13921 -0.0649846 0)
(1.16725 -0.0689197 0)
(1.19696 -0.0712591 0)
(1.22758 -0.0716213 0)
(1.25817 -0.0697224 0)
(1.28762 -0.0654497 0)
(1.31478 -0.0589392 0)
(1.33861 -0.0505907 0)
(1.35833 -0.0409784 0)
(1.37348 -0.0307277 0)
(1.38392 -0.0204391 0)
(1.38977 -0.0106844 0)
(1.39135 -0.00200952 0)
(1.38927 0.00500972 0)
(1.38433 0.00992693 0)
(1.37756 0.0123254 0)
(1.37019 0.0119427 0)
(1.36353 0.00872852 0)
(1.35894 0.00286761 0)
(1.3576 -0.00523185 0)
(1.36048 -0.0149166 0)
(1.36824 -0.0253555 0)
(1.38114 -0.0355416 0)
(1.39892 -0.0443341 0)
(1.42074 -0.0506028 0)
(1.44524 -0.0533347 0)
(1.47057 -0.0517955 0)
(1.49455 -0.0455844 0)
(1.5149 -0.0347917 0)
(1.52941 -0.0199149 0)
(1.53628 -0.00197851 0)
(1.53431 0.0177093 0)
(1.523 0.037765 0)
(1.5025 0.0568338 0)
(1.4737 0.0737912 0)
(1.43799 0.0878479 0)
(1.39698 0.0985724 0)
(1.35234 0.105889 0)
(1.3056 0.109957 0)
(1.2582 0.111122 0)
(1.21111 0.109701 0)
(1.16558 0.106111 0)
(1.12184 0.10051 0)
(1.0815 0.0932193 0)
(1.04359 0.0841859 0)
(1.01132 0.0733944 0)
(0.981033 0.0611827 0)
(0.960404 0.0458621 0)
(0.939514 0.0307104 0)
(0.936418 0.00840322 0)
(0.925257 -0.00710003 0)
(0.94548 -0.038945 0)
(0.938141 -0.04768 0)
(0.988229 -0.0938614 0)
(1.00014 -0.00429565 0)
(1.0025 -0.0128085 0)
(1.00711 -0.0213496 0)
(1.01412 -0.0300313 0)
(1.02364 -0.0389397 0)
(1.03578 -0.0481081 0)
(1.0507 -0.0575 0)
(1.06855 -0.0669808 0)
(1.08949 -0.0763067 0)
(1.11355 -0.0850959 0)
(1.14063 -0.0928357 0)
(1.17045 -0.0989108 0)
(1.20246 -0.102653 0)
(1.23582 -0.10345 0)
(1.26942 -0.100838 0)
(1.30189 -0.0946116 0)
(1.33173 -0.0849927 0)
(1.35764 -0.0726357 0)
(1.3787 -0.0584313 0)
(1.39443 -0.0432997 0)
(1.40475 -0.0280992 0)
(1.40978 -0.0136511 0)
(1.40988 -0.000752313 0)
(1.40565 0.00976895 0)
(1.39804 0.01716 0)
(1.38818 0.0207986 0)
(1.37753 0.0202737 0)
(1.36768 0.0154759 0)
(1.36026 0.00666049 0)
(1.35675 -0.00557347 0)
(1.35838 -0.0202827 0)
(1.36603 -0.0362555 0)
(1.38013 -0.0519706 0)
(1.4005 -0.0656961 0)
(1.4262 -0.0756886 0)
(1.45561 -0.0804008 0)
(1.48647 -0.0786244 0)
(1.51607 -0.0697335 0)
(1.54157 -0.0537517 0)
(1.5602 -0.031571 0)
(1.56966 -0.00462332 0)
(1.56856 0.0249826 0)
(1.55634 0.0549567 0)
(1.53334 0.083178 0)
(1.50081 0.107963 0)
(1.46057 0.128199 0)
(1.4147 0.143355 0)
(1.3653 0.153428 0)
(1.31414 0.158748 0)
(1.26281 0.159898 0)
(1.2123 0.15741 0)
(1.16378 0.151948 0)
(1.11742 0.143756 0)
(1.07464 0.133327 0)
(1.03454 0.120535 0)
(0.999857 0.105523 0)
(0.967403 0.0883275 0)
(0.944377 0.0669527 0)
(0.921895 0.0451897 0)
(0.91564 0.0145211 0)
(0.899904 -0.00556757 0)
(0.911794 -0.0479315 0)
(0.894907 -0.0554344 0)
(0.935943 -0.12236 0)
(1.00013 -0.00542236 0)
(1.00235 -0.0161818 0)
(1.0067 -0.0270158 0)
(1.01334 -0.0380985 0)
(1.02242 -0.0495695 0)
(1.03415 -0.0615031 0)
(1.04877 -0.073887 0)
(1.06657 -0.0865734 0)
(1.08784 -0.0992826 0)
(1.1128 -0.111511 0)
(1.14149 -0.12256 0)
(1.17374 -0.131505 0)
(1.209 -0.13727 0)
(1.2463 -0.13888 0)
(1.28426 -0.135556 0)
(1.32109 -0.126974 0)
(1.35476 -0.113573 0)
(1.38356 -0.0964398 0)
(1.40643 -0.0768681 0)
(1.42296 -0.0560763 0)
(1.43309 -0.0351572 0)
(1.437 -0.0152033 0)
(1.43502 0.00269637 0)
(1.42777 0.0174455 0)
(1.4163 0.027905 0)
(1.40197 0.0331398 0)
(1.38653 0.0325151 0)
(1.37198 0.0258405 0)
(1.36037 0.0134289 0)
(1.35359 -0.00390436 0)
(1.3532 -0.0249071 0)
(1.36042 -0.0478936 0)
(1.37598 -0.0707271 0)
(1.39979 -0.0908998 0)
(1.43073 -0.105882 0)
(1.46678 -0.113414 0)
(1.50516 -0.111732 0)
(1.54253 -0.0998809 0)
(1.57527 -0.0779107 0)
(1.59996 -0.047047 0)
(1.6137 -0.0093772 0)
(1.61436 0.0321999 0)
(1.60119 0.0741033 0)
(1.57477 0.113231 0)
(1.53697 0.147147 0)
(1.49037 0.174247 0)
(1.43777 0.193904 0)
(1.38182 0.20636 0)
(1.32467 0.21234 0)
(1.26807 0.212849 0)
(1.21308 0.208742 0)
(1.16067 0.200972 0)
(1.111 0.18987 0)
(1.06516 0.176126 0)
(1.02222 0.159545 0)
(0.984319 0.140442 0)
(0.949261 0.118011 0)
(0.923282 0.0906788 0)
(0.897778 0.0625517 0)
(0.884236 0.0268197 0)
(0.858059 0.00477224 0)
(0.858904 -0.0455801 0)
(0.832218 -0.0534848 0)
(0.880369 -0.15173 0)
(1.00012 -0.00645233 0)
(1.00213 -0.0192785 0)
(1.00607 -0.0322495 0)
(1.01212 -0.04563 0)
(1.02052 -0.0596288 0)
(1.03152 -0.0743993 0)
(1.04553 -0.0899748 0)
(1.06298 -0.106214 0)
(1.08436 -0.122842 0)
(1.11016 -0.139221 0)
(1.14067 -0.15454 0)
(1.17599 -0.167478 0)
(1.21562 -0.176394 0)
(1.25842 -0.179662 0)
(1.30259 -0.175765 0)
(1.34552 -0.164175 0)
(1.38431 -0.145891 0)
(1.41682 -0.122787 0)
(1.44199 -0.0967035 0)
(1.45954 -0.0691512 0)
(1.46946 -0.0414245 0)
(1.47192 -0.0148217 0)
(1.46722 0.00922467 0)
(1.45596 0.0292927 0)
(1.43923 0.043725 0)
(1.41869 0.051081 0)
(1.39655 0.0504202 0)
(1.37535 0.0415057 0)
(1.35768 0.0247581 0)
(1.34597 0.00107817 0)
(1.34224 -0.0280933 0)
(1.34813 -0.0604243 0)
(1.36472 -0.0928686 0)
(1.39189 -0.121869 0)
(1.42807 -0.143873 0)
(1.47064 -0.155638 0)
(1.51642 -0.154661 0)
(1.5619 -0.139507 0)
(1.60319 -0.110294 0)
(1.63636 -0.0686494 0)
(1.65764 -0.0176628 0)
(1.6636 0.0388382 0)
(1.65227 0.0956438 0)
(1.62394 0.148054 0)
(1.58072 0.192671 0)
(1.52633 0.227475 0)
(1.46506 0.251852 0)
(1.40072 0.266399 0)
(1.33607 0.272372 0)
(1.27303 0.271373 0)
(1.21261 0.264803 0)
(1.15562 0.254002 0)
(1.10214 0.239455 0)
(1.05271 0.222172 0)
(1.00629 0.201882 0)
(0.964832 0.178619 0)
(0.927306 0.150492 0)
(0.896916 0.118225 0)
(0.864258 0.0868573 0)
(0.837351 0.0512583 0)
(0.801615 0.0262861 0)
(0.797671 -0.0359425 0)
(0.777068 -0.0569422 0)
(0.83927 -0.190319 0)
(1.0001 -0.00734133 0)
(1.0018 -0.0219732 0)
(1.00515 -0.0368339 0)
(1.01034 -0.0523346 0)
(1.01767 -0.0687444 0)
(1.0275 -0.0863958 0)
(1.04042 -0.105365 0)
(1.057 -0.125598 0)
(1.07806 -0.146836 0)
(1.10435 -0.16822 0)
(1.13657 -0.188991 0)
(1.17542 -0.207256 0)
(1.22059 -0.22098 0)
(1.27093 -0.22743 0)
(1.32405 -0.223376 0)
(1.37567 -0.207991 0)
(1.42139 -0.183432 0)
(1.45859 -0.152812 0)
(1.48651 -0.118676 0)
(1.5052 -0.0828582 0)
(1.5148 -0.0468594 0)
(1.51538 -0.0121653 0)
(1.50715 0.0197291 0)
(1.49059 0.0467366 0)
(1.46672 0.066463 0)
(1.4376 0.0768314 0)
(1.40613 0.0764355 0)
(1.37559 0.064834 0)
(1.34903 0.0427909 0)
(1.32911 0.0118461 0)
(1.31853 -0.0268141 0)
(1.31964 -0.0708229 0)
(1.33343 -0.115864 0)
(1.35881 -0.156468 0)
(1.39333 -0.187797 0)
(1.43478 -0.205892 0)
(1.48146 -0.20776 0)
(1.53133 -0.191481 0)
(1.58099 -0.156687 0)
(1.62616 -0.104553 0)
(1.66217 -0.0385801 0)
(1.6832 0.0360432 0)
(1.6844 0.113013 0)
(1.66376 0.184755 0)
(1.62196 0.244828 0)
(1.56305 0.289708 0)
(1.49352 0.31909 0)
(1.41981 0.334864 0)
(1.3465 0.33963 0)
(1.27617 0.336006 0)
(1.20981 0.326038 0)
(1.14797 0.311392 0)
(1.09041 0.292916 0)
(1.03696 0.272035 0)
(0.986942 0.247825 0)
(0.942263 0.219758 0)
(0.901158 0.186698 0)
(0.862397 0.153489 0)
(0.819045 0.122881 0)
(0.781132 0.0866879 0)
(0.74637 0.0496246 0)
(0.746234 -0.0318591 0)
(0.739826 -0.0743485 0)
(0.804572 -0.233401 0)
(1.00007 -0.00803442 0)
(1.00136 -0.0241147 0)
(1.00386 -0.0404865 0)
(1.00785 -0.0578306 0)
(1.01358 -0.0763593 0)
(1.02162 -0.0968732 0)
(1.03267 -0.119305 0)
(1.04755 -0.144135 0)
(1.06766 -0.170932 0)
(1.09372 -0.198597 0)
(1.12743 -0.226556 0)
(1.16998 -0.251447 0)
(1.22131 -0.271565 0)
(1.28195 -0.282595 0)
(1.34871 -0.278367 0)
(1.41323 -0.258201 0)
(1.4681 -0.226121 0)
(1.5104 -0.186598 0)
(1.54026 -0.142839 0)
(1.55867 -0.0971001 0)
(1.56632 -0.0510702 0)
(1.56358 -0.00654205 0)
(1.5505 0.035242 0)
(1.52675 0.0714219 0)
(1.49326 0.0984707 0)
(1.45241 0.113386 0)
(1.40764 0.114343 0)
(1.36331 0.100678 0)
(1.32347 0.0727758 0)
(1.28977 0.0323886 0)
(1.26404 -0.0164773 0)
(1.24913 -0.0714425 0)
(1.24508 -0.127966 0)
(1.24928 -0.178255 0)
(1.26121 -0.21751 0)
(1.28432 -0.24314 0)
(1.32193 -0.252419 0)
(1.37389 -0.242214 0)
(1.43561 -0.210052 0)
(1.50041 -0.155486 0)
(1.56095 -0.0806369 0)
(1.61074 0.00923009 0)
(1.64243 0.107393 0)
(1.64978 0.204579 0)
(1.62899 0.289579 0)
(1.58106 0.353593 0)
(1.51283 0.393692 0)
(1.43407 0.412549 0)
(1.35325 0.415458 0)
(1.27558 0.407673 0)
(1.20316 0.392789 0)
(1.13657 0.373238 0)
(1.07494 0.350468 0)
(1.01767 0.325676 0)
(0.964629 0.296858 0)
(0.916447 0.264477 0)
(0.869216 0.230072 0)
(0.820108 0.199696 0)
(0.768818 0.168125 0)
(0.727838 0.123689 0)
(0.700688 0.065592 0)
(0.704501 -0.035773 0)
(0.707746 -0.0989415 0)
(0.765823 -0.273485 0)
(1.00002 -0.00847061 0)
(1.00081 -0.0255369 0)
(1.00213 -0.0428742 0)
(1.00464 -0.0616671 0)
(1.00794 -0.0817143 0)
(1.0136 -0.104977 0)
(1.02123 -0.130414 0)
(1.03349 -0.160678 0)
(1.05097 -0.193824 0)
(1.07575 -0.230301 0)
(1.11137 -0.269212 0)
(1.15702 -0.302675 0)
(1.21566 -0.331688 0)
(1.29293 -0.348734 0)
(1.38004 -0.343195 0)
(1.4587 -0.316388 0)
(1.51832 -0.275099 0)
(1.55803 -0.224864 0)
(1.58136 -0.169754 0)
(1.59183 -0.11229 0)
(1.59182 -0.0548558 0)
(1.58223 0.00200565 0)
(1.56301 0.0561262 0)
(1.53151 0.104241 0)
(1.48741 0.141877 0)
(1.43301 0.164052 0)
(1.37205 0.167653 0)
(1.30809 0.153323 0)
(1.24504 0.12357 0)
(1.18847 0.0783942 0)
(1.13719 0.0178695 0)
(1.08272 -0.0476993 0)
(1.02724 -0.106271 0)
(0.981083 -0.158196 0)
(0.957985 -0.207526 0)
(0.968798 -0.252648 0)
(1.01415 -0.284882 0)
(1.08653 -0.293942 0)
(1.17477 -0.273266 0)
(1.26812 -0.221955 0)
(1.3572 -0.143488 0)
(1.43657 -0.0435535 0)
(1.50177 0.0713115 0)
(1.54645 0.192668 0)
(1.56268 0.307169 0)
(1.54551 0.399987 0)
(1.49733 0.461589 0)
(1.4275 0.491539 0)
(1.34763 0.496484 0)
(1.26693 0.485226 0)
(1.19056 0.464626 0)
(1.12021 0.439333 0)
(1.05518 0.411716 0)
(0.99504 0.382278 0)
(0.939582 0.348956 0)
(0.886961 0.314798 0)
(0.832178 0.282454 0)
(0.774602 0.254106 0)
(0.720551 0.215541 0)
(0.681494 0.156264 0)
(0.66163 0.0747295 0)
(0.666073 -0.0426945 0)
(0.674305 -0.124497 0)
(0.723159 -0.307878 0)
(0.999916 -0.00859724 0)
(1.00021 -0.0260643 0)
(0.999895 -0.0436695 0)
(1.00085 -0.0633488 0)
(1.00045 -0.0839594 0)
(1.00374 -0.10966 0)
(1.00472 -0.136607 0)
(1.01477 -0.173383 0)
(1.02312 -0.211361 0)
(1.04827 -0.262133 0)
(1.08156 -0.316864 0)
(1.13031 -0.365318 0)
(1.20697 -0.421581 0)
(1.30903 -0.45102 0)
(1.40703 -0.43701 0)
(1.47405 -0.392753 0)
(1.50718 -0.33248 0)
(1.51548 -0.264453 0)
(1.5098 -0.194138 0)
(1.49699 -0.124324 0)
(1.48158 -0.0562846 0)
(1.46434 0.0111515 0)
(1.44239 0.0767542 0)
(1.41033 0.138469 0)
(1.36339 0.191327 0)
(1.30005 0.227822 0)
(1.22535 0.241115 0)
(1.1471 0.228515 0)
(1.06631 0.193687 0)
(0.972256 0.146151 0)
(0.854455 0.097759 0)
(0.72389 0.0506682 0)
(0.616952 -0.0125133 0)
(0.563359 -0.101713 0)
(0.567976 -0.203648 0)
(0.619336 -0.297342 0)
(0.70405 -0.365089 0)
(0.81023 -0.394962 0)
(0.927209 -0.381718 0)
(1.04464 -0.326908 0)
(1.15359 -0.238149 0)
(1.24914 -0.124435 0)
(1.33053 0.00685507 0)
(1.39618 0.149195 0)
(1.4402 0.291442 0)
(1.45452 0.416387 0)
(1.43515 0.507719 0)
(1.38641 0.558581 0)
(1.31867 0.573475 0)
(1.24318 0.563236 0)
(1.16802 0.5387 0)
(1.09694 0.508101 0)
(1.03056 0.475345 0)
(0.969237 0.440996 0)
(0.911759 0.404614 0)
(0.854141 0.371468 0)
(0.792635 0.341965 0)
(0.730409 0.311853 0)
(0.677409 0.261127 0)
(0.641628 0.184261 0)
(0.62638 0.0806654 0)
(0.629393 -0.0496819 0)
(0.639616 -0.148675 0)
(0.678866 -0.336037 0)
(0.999788 -0.00838752 0)
(0.999566 -0.0255148 0)
(0.997262 -0.0426476 0)
(0.996636 -0.0623297 0)
(0.991329 -0.0824723 0)
(0.992608 -0.109602 0)
(0.982727 -0.13597 0)
(0.992936 -0.179361 0)
(0.97791 -0.216494 0)
(1.01365 -0.290571 0)
(1.01195 -0.35207 0)
(1.08796 -0.447027 0)
(1.1843 -0.580201 0)
(1.2776 -0.603998 0)
(1.32181 -0.541886 0)
(1.30593 -0.447407 0)
(1.2564 -0.348135 0)
(1.19753 -0.254849 0)
(1.14472 -0.172238 0)
(1.10222 -0.0982252 0)
(1.07575 -0.0335603 0)
(1.06077 0.0306781 0)
(1.05327 0.0985251 0)
(1.04283 0.168534 0)
(1.01674 0.23359 0)
(0.966016 0.283759 0)
(0.884969 0.311515 0)
(0.769442 0.317783 0)
(0.624443 0.310347 0)
(0.470567 0.289472 0)
(0.338034 0.242597 0)
(0.248861 0.154692 0)
(0.214023 0.0273831 0)
(0.2257 -0.12028 0)
(0.273387 -0.265941 0)
(0.350074 -0.390334 0)
(0.45054 -0.479064 0)
(0.569669 -0.521905 0)
(0.701297 -0.512988 0)
(0.836569 -0.453118 0)
(0.964616 -0.350988 0)
(1.07632 -0.219997 0)
(1.16855 -0.0715846 0)
(1.24281 0.0883062 0)
(1.29928 0.252445 0)
(1.3331 0.405515 0)
(1.3379 0.527563 0)
(1.31264 0.604944 0)
(1.2635 0.637114 0)
(1.20048 0.634173 0)
(1.13257 0.609883 0)
(1.06514 0.576151 0)
(1.00072 0.539033 0)
(0.940248 0.500717 0)
(0.881346 0.463546 0)
(0.819476 0.433246 0)
(0.753835 0.405405 0)
(0.690676 0.36958 0)
(0.640605 0.30387 0)
(0.607721 0.208983 0)
(0.594683 0.0857028 0)
(0.595463 -0.0556165 0)
(0.605517 -0.170042 0)
(0.636143 -0.358153 0)
(0.9997 -0.00783423 0)
(0.998798 -0.023746 0)
(0.994616 -0.039723 0)
(0.991882 -0.0581123 0)
(0.981887 -0.0770835 0)
(0.979801 -0.103231 0)
(0.958823 -0.128211 0)
(0.966799 -0.173643 0)
(0.920845 -0.206422 0)
(0.970092 -0.302004 0)
(0.874386 -0.342482 0)
(1.04196 -0.554796 0)
(0.997085 -0.712737 0)
(0.986856 -0.63426 0)
(0.895465 -0.485295 0)
(0.755668 -0.340492 0)
(0.627616 -0.220803 0)
(0.532493 -0.13246 0)
(0.473632 -0.0741473 0)
(0.435921 -0.0251039 0)
(0.434467 0.00691173 0)
(0.454715 0.0475837 0)
(0.480523 0.111876 0)
(0.498368 0.193953 0)
(0.491222 0.280562 0)
(0.447987 0.358431 0)
(0.367839 0.417526 0)
(0.26147 0.449707 0)
(0.147383 0.44861 0)
(0.0460187 0.406514 0)
(-0.0252743 0.316279 0)
(-0.0597816 0.179741 0)
(-0.0567015 0.011437 0)
(-0.0216688 -0.170517 0)
(0.0409666 -0.34378 0)
(0.125506 -0.490246 0)
(0.227771 -0.596685 0)
(0.345893 -0.653269 0)
(0.478439 -0.652373 0)
(0.620692 -0.591899 0)
(0.762835 -0.479024 0)
(0.892659 -0.329325 0)
(1.00154 -0.159371 0)
(1.08776 0.0199965 0)
(1.1533 0.202873 0)
(1.19875 0.37807 0)
(1.22049 0.526367 0)
(1.21559 0.629982 0)
(1.18639 0.68286 0)
(1.13995 0.69228 0)
(1.08409 0.672969 0)
(1.02478 0.639336 0)
(0.965858 0.599864 0)
(0.908392 0.559835 0)
(0.849382 0.524479 0)
(0.785377 0.497847 0)
(0.718847 0.469676 0)
(0.657569 0.425167 0)
(0.611228 0.343563 0)
(0.580646 0.231523 0)
(0.568511 0.0912419 0)
(0.566913 -0.0597755 0)
(0.575421 -0.187797 0)
(0.598631 -0.37495 0)
(0.999693 -0.00691987 0)
(0.997885 -0.020763 0)
(0.992326 -0.0348499 0)
(0.98667 -0.0506135 0)
(0.973616 -0.0677001 0)
(0.965148 -0.089866 0)
(0.938487 -0.113679 0)
(0.933454 -0.152137 0)
(0.873757 -0.185846 0)
(0.90071 -0.271973 0)
(0.730951 -0.299584 0)
(0.926439 -0.587233 0)
(0.344647 -0.397707 0)
(0.24928 -0.244911 0)
(0.12976 -0.186923 0)
(0.0649721 -0.146932 0)
(0.0383163 -0.108827 0)
(0.0264814 -0.0804251 0)
(0.0241147 -0.0613201 0)
(0.0194481 -0.0476685 0)
(0.0741858 -0.0576717 0)
(0.0786585 0.00430521 0)
(0.0873523 0.0982615 0)
(0.0821566 0.209414 0)
(0.0607843 0.324945 0)
(0.0206621 0.428664 0)
(-0.0370968 0.5049 0)
(-0.106209 0.541434 0)
(-0.176853 0.529758 0)
(-0.234235 0.462628 0)
(-0.262359 0.337448 0)
(-0.251986 0.163918 0)
(-0.209009 -0.0397022 0)
(-0.144808 -0.248157 0)
(-0.0658344 -0.439138 0)
(0.0207462 -0.59756 0)
(0.111653 -0.713605 0)
(0.209352 -0.780874 0)
(0.319217 -0.79073 0)
(0.444405 -0.736147 0)
(0.580009 -0.619319 0)
(0.714 -0.454703 0)
(0.833159 -0.262614 0)
(0.93036 -0.0597956 0)
(1.00518 0.144056 0)
(1.05967 0.339351 0)
(1.09363 0.50959 0)
(1.10513 0.636371 0)
(1.0946 0.709983 0)
(1.06608 0.73453 0)
(1.02522 0.724023 0)
(0.977549 0.693862 0)
(0.927235 0.654999 0)
(0.874913 0.616457 0)
(0.817748 0.585359 0)
(0.754432 0.562459 0)
(0.690278 0.532014 0)
(0.633112 0.47717 0)
(0.591164 0.380205 0)
(0.562677 0.252655 0)
(0.550986 0.0979415 0)
(0.547095 -0.0618914 0)
(0.553264 -0.201636 0)
(0.569968 -0.387193 0)
(0.999698 -0.00563791 0)
(0.997055 -0.0167355 0)
(0.990355 -0.0280378 0)
(0.981983 -0.040314 0)
(0.966535 -0.054079 0)
(0.951674 -0.0707625 0)
(0.921707 -0.0910596 0)
(0.900814 -0.118095 0)
(0.840565 -0.152197 0)
(0.822178 -0.202734 0)
(0.678528 -0.257489 0)
(0.747902 -0.384064 0)
(0.321218 -0.266859 0)
(0.310393 -0.258201 0)
(0.218909 -0.240681 0)
(0.139587 -0.19606 0)
(0.0878198 -0.144877 0)
(0.0544988 -0.102865 0)
(0.0339983 -0.0741677 0)
(0.0185332 -0.0583433 0)
(0.00493944 -0.0519886 0)
(-0.0638055 0.0213162 0)
(-0.0972524 0.115299 0)
(-0.133477 0.232206 0)
(-0.170106 0.35775 0)
(-0.210736 0.471703 0)
(-0.256571 0.554676 0)
(-0.304295 0.591125 0)
(-0.34302 0.567522 0)
(-0.356028 0.475361 0)
(-0.333666 0.318974 0)
(-0.280763 0.11647 0)
(-0.209491 -0.109663 0)
(-0.128159 -0.32936 0)
(-0.0431047 -0.524853 0)
(0.0386348 -0.682538 0)
(0.11113 -0.798355 0)
(0.176856 -0.871192 0)
(0.246338 -0.894423 0)
(0.332535 -0.855419 0)
(0.439753 -0.747223 0)
(0.559138 -0.578866 0)
(0.675553 -0.371988 0)
(0.777043 -0.148198 0)
(0.85862 0.0768975 0)
(0.920629 0.291408 0)
(0.964351 0.480478 0)
(0.989435 0.626847 0)
(0.995694 0.719407 0)
(0.984852 0.759872 0)
(0.960346 0.760606 0)
(0.926632 0.736913 0)
(0.887183 0.702107 0)
(0.84195 0.668536 0)
(0.789012 0.643651 0)
(0.729454 0.624059 0)
(0.670569 0.589916 0)
(0.619378 0.524438 0)
(0.582717 0.413569 0)
(0.556678 0.272504 0)
(0.545647 0.105769 0)
(0.539737 -0.0618818 0)
(0.543369 -0.211335 0)
(0.553879 -0.395326 0)
(0.999664 -0.00405224 0)
(0.996505 -0.0118773 0)
(0.988716 -0.0195872 0)
(0.978721 -0.0278349 0)
(0.960635 -0.0366641 0)
(0.942563 -0.0476253 0)
(0.907013 -0.0599686 0)
(0.88071 -0.0781307 0)
(0.808852 -0.0971876 0)
(0.784552 -0.132181 0)
(0.620923 -0.15483 0)
(0.694217 -0.238104 0)
(0.297941 -0.145512 0)
(0.308317 -0.118955 0)
(0.224508 -0.107308 0)
(0.148157 -0.0924846 0)
(0.0964004 -0.075326 0)
(0.0610866 -0.0597804 0)
(0.0380333 -0.047572 0)
(0.0200009 -0.0326805 0)
(-0.00214925 0.0145548 0)
(-0.0958218 0.0751581 0)
(-0.148157 0.158548 0)
(-0.200298 0.269969 0)
(-0.245956 0.393393 0)
(-0.287779 0.506988 0)
(-0.32471 0.587913 0)
(-0.34989 0.614453 0)
(-0.350898 0.569539 0)
(-0.318404 0.448853 0)
(-0.257112 0.265983 0)
(-0.183081 0.0454313 0)
(-0.102345 -0.187297 0)
(-0.01816 -0.407773 0)
(0.0647084 -0.598811 0)
(0.140106 -0.747177 0)
(0.198323 -0.850875 0)
(0.235942 -0.916802 0)
(0.261355 -0.947421 0)
(0.295042 -0.928942 0)
(0.355067 -0.842197 0)
(0.441897 -0.684297 0)
(0.541168 -0.473756 0)
(0.636969 -0.23669 0)
(0.719721 0.00533373 0)
(0.786669 0.236275 0)
(0.838437 0.441027 0)
(0.87525 0.603455 0)
(0.896571 0.712494 0)
(0.90247 0.768386 0)
(0.894595 0.781574 0)
(0.875975 0.766839 0)
(0.848716 0.739508 0)
(0.812162 0.714037 0)
(0.765894 0.6966 0)
(0.713166 0.67969 0)
(0.662353 0.641106 0)
(0.618818 0.565633 0)
(0.588415 0.443081 0)
(0.565602 0.29086 0)
(0.55591 0.114398 0)
(0.548423 -0.0598204 0)
(0.549783 -0.216759 0)
(0.553863 -0.39945 0)
(0.999652 -0.00228616 0)
(0.996174 -0.00640168 0)
(0.98782 -0.0101453 0)
(0.976808 -0.0136726 0)
(0.957458 -0.0171564 0)
(0.937211 -0.0208762 0)
(0.899437 -0.0251355 0)
(0.868831 -0.0304842 0)
(0.794039 -0.0371121 0)
(0.762187 -0.0466823 0)
(0.598143 -0.0555423 0)
(0.66104 -0.0787462 0)
(0.279598 -0.0467527 0)
(0.299862 -0.0475057 0)
(0.225639 -0.0504256 0)
(0.154468 -0.0471883 0)
(0.103245 -0.0410824 0)
(0.0663832 -0.0351039 0)
(0.0423128 -0.0299468 0)
(0.0220096 -0.0159206 0)
(0.0146044 0.0762589 0)
(-0.0755557 0.137884 0)
(-0.126783 0.214883 0)
(-0.179078 0.317978 0)
(-0.221115 0.432671 0)
(-0.252657 0.536172 0)
(-0.269038 0.602821 0)
(-0.26247 0.608266 0)
(-0.225832 0.537845 0)
(-0.160903 0.392944 0)
(-0.0836155 0.196566 0)
(-0.00705146 -0.0273225 0)
(0.0687931 -0.258074 0)
(0.1441 -0.479143 0)
(0.215364 -0.666709 0)
(0.279207 -0.80387 0)
(0.327902 -0.886469 0)
(0.350732 -0.928963 0)
(0.345002 -0.949907 0)
(0.328457 -0.945655 0)
(0.331625 -0.888246 0)
(0.371209 -0.755889 0)
(0.4397 -0.556439 0)
(0.519294 -0.317216 0)
(0.59612 -0.065722 0)
(0.664149 0.176548 0)
(0.721931 0.392944 0)
(0.768756 0.567831 0)
(0.803394 0.690665 0)
(0.824719 0.760749 0)
(0.83297 0.786748 0)
(0.829522 0.782958 0)
(0.814906 0.76607 0)
(0.788269 0.751029 0)
(0.750968 0.74151 0)
(0.707875 0.726643 0)
(0.667603 0.68349 0)
(0.633533 0.599383 0)
(0.610684 0.467615 0)
(0.591992 0.306802 0)
(0.58446 0.123084 0)
(0.575937 -0.0560297 0)
(0.57571 -0.217904 0)
(0.572939 -0.399387 0)
(0.999648 -0.000429149 0)
(0.996129 -0.000693259 0)
(0.9877 -0.000251906 0)
(0.976585 0.00106453 0)
(0.957113 0.00333917 0)
(0.936718 0.00690858 0)
(0.898804 0.011725 0)
(0.868002 0.0187099 0)
(0.793091 0.026858 0)
(0.760901 0.0395499 0)
(0.596857 0.0489542 0)
(0.658773 0.0761599 0)
(0.277975 0.0438847 0)
(0.297881 0.0357163 0)
(0.223415 0.0305945 0)
(0.152224 0.0205711 0)
(0.10115 0.00856237 0)
(0.0646301 -0.00184517 0)
(0.0423603 -0.00911793 0)
(0.0215074 -0.00403549 0)
(0.0337726 0.1192 0)
(-0.0328713 0.193341 0)
(-0.0660433 0.264289 0)
(-0.102972 0.356338 0)
(-0.126133 0.457482 0)
(-0.133554 0.544172 0)
(-0.119436 0.590086 0)
(-0.0777639 0.571593 0)
(-0.0125533 0.48038 0)
(0.0651392 0.325295 0)
(0.143534 0.129195 0)
(0.214946 -0.0911755 0)
(0.278741 -0.319842 0)
(0.337745 -0.540507 0)
(0.391709 -0.726766 0)
(0.437157 -0.85521 0)
(0.469889 -0.917776 0)
(0.482415 -0.929015 0)
(0.462932 -0.920988 0)
(0.413727 -0.911981 0)
(0.364864 -0.879629 0)
(0.350291 -0.783431 0)
(0.377622 -0.610569 0)
(0.431948 -0.382833 0)
(0.495941 -0.132512 0)
(0.560296 0.114694 0)
(0.621274 0.338038 0)
(0.675861 0.521669 0)
(0.721727 0.655509 0)
(0.756761 0.738117 0)
(0.779905 0.776774 0)
(0.790756 0.785437 0)
(0.788531 0.781183 0)
(0.772715 0.777843 0)
(0.7464 0.775997 0)
(0.715293 0.762549 0)
(0.687544 0.715239 0)
(0.66447 0.62434 0)
(0.650441 0.485926 0)
(0.637197 0.319472 0)
(0.632905 0.131176 0)
(0.623827 -0.0509147 0)
(0.622925 -0.214999 0)
(0.613079 -0.394938 0)
(0.999652 0.00138019 0)
(0.996374 0.00490501 0)
(0.988354 0.00936466 0)
(0.978074 0.015465 0)
(0.959595 0.0230962 0)
(0.941146 0.033991 0)
(0.905076 0.0468273 0)
(0.878364 0.0668119 0)
(0.805866 0.0871305 0)
(0.781019 0.125711 0)
(0.61679 0.148308 0)
(0.688034 0.236312 0)
(0.293547 0.142884 0)
(0.302609 0.106999 0)
(0.217632 0.0874972 0)
(0.141135 0.0660712 0)
(0.0899196 0.042808 0)
(0.0554669 0.0219068 0)
(0.0361829 0.00539258 0)
(0.0164521 0.000104369 0)
(0.0454969 0.136627 0)
(0.0177815 0.228742 0)
(0.0124628 0.295312 0)
(0.00579801 0.374957 0)
(0.0138852 0.459115 0)
(0.0394839 0.525921 0)
(0.0861569 0.550788 0)
(0.155049 0.514397 0)
(0.237577 0.41103 0)
(0.320632 0.256271 0)
(0.395309 0.067411 0)
(0.457663 -0.143633 0)
(0.511751 -0.36812 0)
(0.559595 -0.586028 0)
(0.597316 -0.766857 0)
(0.619557 -0.885368 0)
(0.62486 -0.933382 0)
(0.615708 -0.920981 0)
(0.586003 -0.87953 0)
(0.523681 -0.846666 0)
(0.44071 -0.822942 0)
(0.37623 -0.763241 0)
(0.357277 -0.629192 0)
(0.379324 -0.427115 0)
(0.425312 -0.189048 0)
(0.482218 0.0545452 0)
(0.542398 0.278969 0)
(0.601611 0.467201 0)
(0.656111 0.608992 0)
(0.702607 0.702162 0)
(0.738634 0.753033 0)
(0.762128 0.775119 0)
(0.771576 0.784669 0)
(0.767203 0.793154 0)
(0.753501 0.798114 0)
(0.736181 0.785487 0)
(0.722463 0.734792 0)
(0.711607 0.639193 0)
(0.707621 0.49698 0)
(0.700984 0.32787 0)
(0.70094 0.137773 0)
(0.691856 -0.0451462 0)
(0.691356 -0.208687 0)
(0.674698 -0.386128 0)
(0.999683 0.00304818 0)
(0.996834 0.00999024 0)
(0.989786 0.0181543 0)
(0.980913 0.0283846 0)
(0.964906 0.0410215 0)
(0.949313 0.0577105 0)
(0.918726 0.0785742 0)
(0.896769 0.107442 0)
(0.836141 0.143059 0)
(0.815657 0.196758 0)
(0.673052 0.252727 0)
(0.735731 0.381579 0)
(0.312696 0.265614 0)
(0.300838 0.249333 0)
(0.207815 0.22193 0)
(0.12796 0.167763 0)
(0.0766098 0.108791 0)
(0.0440249 0.0606423 0)
(0.0269412 0.0258709 0)
(0.00920654 -0.000352346 0)
(0.0471067 0.120643 0)
(0.0702608 0.221291 0)
(0.100265 0.287545 0)
(0.130138 0.355308 0)
(0.172127 0.422501 0)
(0.230582 0.471368 0)
(0.305887 0.480013 0)
(0.394158 0.433613 0)
(0.485848 0.330689 0)
(0.568796 0.185092 0)
(0.63885 0.00959676 0)
(0.697304 -0.190886 0)
(0.748632 -0.409105 0)
(0.790647 -0.619804 0)
(0.814452 -0.787907 0)
(0.814118 -0.888508 0)
(0.789743 -0.919385 0)
(0.749202 -0.892821 0)
(0.700396 -0.829963 0)
(0.633544 -0.768389 0)
(0.538545 -0.734234 0)
(0.439774 -0.699741 0)
(0.376926 -0.609782 0)
(0.363938 -0.445004 0)
(0.387989 -0.229919 0)
(0.43279 0.000620827 0)
(0.488556 0.2192 0)
(0.549307 0.407266 0)
(0.609643 0.553596 0)
(0.664898 0.655191 0)
(0.711168 0.717575 0)
(0.745156 0.753301 0)
(0.765286 0.776594 0)
(0.772666 0.795919 0)
(0.77265 0.806344 0)
(0.770248 0.794001 0)
(0.771491 0.740895 0)
(0.773695 0.642787 0)
(0.780566 0.499555 0)
(0.781343 0.330762 0)
(0.786687 0.141924 0)
(0.778242 -0.0394563 0)
(0.779136 -0.199902 0)
(0.756398 -0.373301 0)
(0.999678 0.00445437 0)
(0.997581 0.0143383 0)
(0.991589 0.025467 0)
(0.985216 0.0392965 0)
(0.971516 0.0554047 0)
(0.961909 0.0776003 0)
(0.934715 0.102193 0)
(0.927777 0.142397 0)
(0.86826 0.178083 0)
(0.891249 0.267207 0)
(0.723624 0.296597 0)
(0.910141 0.587739 0)
(0.332336 0.392622 0)
(0.236124 0.233685 0)
(0.116122 0.171403 0)
(0.0525317 0.126111 0)
(0.0263851 0.0829259 0)
(0.0137992 0.0486196 0)
(0.00599048 0.0215622 0)
(-0.00121712 -0.00459739 0)
(0.0170371 0.0880789 0)
(0.0920472 0.184186 0)
(0.169999 0.25261 0)
(0.244495 0.31134 0)
(0.322696 0.362235 0)
(0.409531 0.394333 0)
(0.505115 0.39144 0)
(0.604483 0.342383 0)
(0.698878 0.247272 0)
(0.781511 0.115432 0)
(0.853581 -0.0478865 0)
(0.918664 -0.242037 0)
(0.975697 -0.45255 0)
(1.01379 -0.648137 0)
(1.02093 -0.793599 0)
(0.995107 -0.868343 0)
(0.942926 -0.876306 0)
(0.873713 -0.837414 0)
(0.80109 -0.767892 0)
(0.728409 -0.688487 0)
(0.637552 -0.633224 0)
(0.526738 -0.604812 0)
(0.43114 -0.554048 0)
(0.383371 -0.435446 0)
(0.382813 -0.254496 0)
(0.4127 -0.0455064 0)
(0.460997 0.161502 0)
(0.520196 0.344769 0)
(0.583176 0.492191 0)
(0.64398 0.600088 0)
(0.6975 0.67297 0)
(0.739779 0.721643 0)
(0.769634 0.75742 0)
(0.788862 0.785694 0)
(0.803056 0.79993 0)
(0.81603 0.787367 0)
(0.832516 0.732825 0)
(0.848084 0.634329 0)
(0.866193 0.492715 0)
(0.874846 0.327251 0)
(0.88639 0.142767 0)
(0.879281 -0.0346271 0)
(0.882575 -0.189804 0)
(0.8549 -0.357127 0)
(0.999668 0.00552009 0)
(0.99846 0.0177384 0)
(0.993689 0.0309431 0)
(0.990215 0.0476097 0)
(0.979243 0.0656429 0)
(0.976163 0.0921155 0)
(0.953931 0.11763 0)
(0.960753 0.165627 0)
(0.913102 0.199353 0)
(0.960986 0.30047 0)
(0.86195 0.339938 0)
(1.02721 0.561144 0)
(0.973842 0.71727 0)
(0.950367 0.630252 0)
(0.835841 0.469981 0)
(0.664909 0.313098 0)
(0.499701 0.185054 0)
(0.370919 0.09518 0)
(0.265016 0.0429696 0)
(0.198249 -0.00955891 0)
(0.13055 0.00682166 0)
(0.151466 0.0692589 0)
(0.226772 0.137975 0)
(0.320407 0.202324 0)
(0.422738 0.254858 0)