/*--------------------------------*- C++ -*----------------------------------*\
  =========                 |
  \\      /  F ield         | OpenFOAM: The Open Source CFD Toolbox
   \\    /   O peration     | Website:  https://openfoam.org
    \\  /    A nd           | Version:  10
     \\/     M anipulation  |
\*---------------------------------------------------------------------------*/
FoamFile
{
    format      ascii;
    class       volScalarField;
    location    "1.68";
    object      p;
}
// * * * * * * * * * * * * * * * * * * * * * * * * * * * * * * * * * * * * * //

dimensions      [1 -1 -2 0 0 0 0];

internalField   nonuniform List<scalar> 
12225
(
1.65659e+07
1.65109e+07
1.64123e+07
1.62823e+07
1.61313e+07
1.59671e+07
1.57952e+07
1.56192e+07
1.54414e+07
1.52629e+07
1.50843e+07
1.49055e+07
1.47262e+07
1.4545e+07
1.43602e+07
1.41683e+07
1.39625e+07
1.37255e+07
1.65682e+07
1.65129e+07
1.6414e+07
1.62836e+07
1.61324e+07
1.5968e+07
1.57959e+07
1.56198e+07
1.54419e+07
1.52634e+07
1.50849e+07
1.49063e+07
1.47271e+07
1.45463e+07
1.43621e+07
1.41713e+07
1.39686e+07
1.37435e+07
1.65731e+07
1.65173e+07
1.64176e+07
1.62866e+07
1.61346e+07
1.59697e+07
1.57974e+07
1.56211e+07
1.54431e+07
1.52646e+07
1.50862e+07
1.49079e+07
1.47291e+07
1.4549e+07
1.43661e+07
1.41778e+07
1.39806e+07
1.37707e+07
1.65814e+07
1.65247e+07
1.64237e+07
1.62914e+07
1.61384e+07
1.59727e+07
1.57998e+07
1.56231e+07
1.5445e+07
1.52666e+07
1.50884e+07
1.49105e+07
1.47324e+07
1.45535e+07
1.43724e+07
1.41877e+07
1.39975e+07
1.38025e+07
1.65936e+07
1.65356e+07
1.64327e+07
1.62984e+07
1.61438e+07
1.59769e+07
1.58032e+07
1.56261e+07
1.54478e+07
1.52694e+07
1.50915e+07
1.49142e+07
1.47372e+07
1.45598e+07
1.43813e+07
1.42009e+07
1.40184e+07
1.38366e+07
1.66106e+07
1.65507e+07
1.64451e+07
1.63081e+07
1.61513e+07
1.59828e+07
1.58079e+07
1.56302e+07
1.54516e+07
1.52733e+07
1.50958e+07
1.49192e+07
1.47435e+07
1.45681e+07
1.43927e+07
1.42172e+07
1.40425e+07
1.38718e+07
1.66335e+07
1.65709e+07
1.64615e+07
1.63209e+07
1.6161e+07
1.59903e+07
1.5814e+07
1.56354e+07
1.54564e+07
1.52782e+07
1.51012e+07
1.49257e+07
1.47515e+07
1.45785e+07
1.44066e+07
1.42363e+07
1.40689e+07
1.39076e+07
1.66636e+07
1.65973e+07
1.64827e+07
1.63372e+07
1.61734e+07
1.59998e+07
1.58216e+07
1.56419e+07
1.54624e+07
1.52843e+07
1.5108e+07
1.49336e+07
1.47612e+07
1.45909e+07
1.44228e+07
1.42577e+07
1.40971e+07
1.39436e+07
1.67025e+07
1.66311e+07
1.65095e+07
1.63575e+07
1.61886e+07
1.60114e+07
1.58308e+07
1.56497e+07
1.54697e+07
1.52917e+07
1.51161e+07
1.4943e+07
1.47727e+07
1.46053e+07
1.44411e+07
1.42811e+07
1.41266e+07
1.39797e+07
1.67524e+07
1.66737e+07
1.65427e+07
1.63822e+07
1.62069e+07
1.60251e+07
1.58416e+07
1.56589e+07
1.54783e+07
1.53004e+07
1.51256e+07
1.4954e+07
1.47859e+07
1.46215e+07
1.44613e+07
1.4306e+07
1.4157e+07
1.40158e+07
1.68163e+07
1.67272e+07
1.65833e+07
1.64118e+07
1.62283e+07
1.60411e+07
1.58541e+07
1.56695e+07
1.5488e+07
1.53103e+07
1.51364e+07
1.49664e+07
1.48007e+07
1.46394e+07
1.4483e+07
1.43323e+07
1.41882e+07
1.40518e+07
1.68914e+07
1.67882e+07
1.66281e+07
1.64435e+07
1.62508e+07
1.60575e+07
1.58669e+07
1.56802e+07
1.5498e+07
1.53203e+07
1.51473e+07
1.4979e+07
1.48155e+07
1.4657e+07
1.4504e+07
1.43571e+07
1.42171e+07
1.40846e+07
1.69838e+07
1.68605e+07
1.66792e+07
1.64785e+07
1.6275e+07
1.60749e+07
1.58802e+07
1.56914e+07
1.55084e+07
1.5331e+07
1.51589e+07
1.49923e+07
1.4831e+07
1.46754e+07
1.45256e+07
1.43822e+07
1.42458e+07
1.41168e+07
1.71202e+07
1.6961e+07
1.67461e+07
1.65222e+07
1.63042e+07
1.60955e+07
1.58959e+07
1.57046e+07
1.55207e+07
1.53436e+07
1.51728e+07
1.50082e+07
1.48495e+07
1.4697e+07
1.45507e+07
1.44111e+07
1.42784e+07
1.41529e+07
1.73323e+07
1.71006e+07
1.68304e+07
1.65735e+07
1.63368e+07
1.61177e+07
1.59126e+07
1.57187e+07
1.55342e+07
1.53578e+07
1.51887e+07
1.50265e+07
1.48708e+07
1.47217e+07
1.45793e+07
1.44435e+07
1.43146e+07
1.41926e+07
1.76902e+07
1.72866e+07
1.69245e+07
1.66241e+07
1.63664e+07
1.6137e+07
1.59271e+07
1.57315e+07
1.55472e+07
1.53722e+07
1.52055e+07
1.50463e+07
1.48942e+07
1.47489e+07
1.46104e+07
1.44787e+07
1.43537e+07
1.42353e+07
1.83815e+07
1.74728e+07
1.69853e+07
1.66472e+07
1.63765e+07
1.61427e+07
1.59321e+07
1.57377e+07
1.55558e+07
1.53839e+07
1.52208e+07
1.50656e+07
1.49177e+07
1.47768e+07
1.46427e+07
1.45152e+07
1.43941e+07
1.42794e+07
1.75302e+07
1.71932e+07
1.68651e+07
1.65822e+07
1.63361e+07
1.61162e+07
1.59153e+07
1.57286e+07
1.55533e+07
1.53876e+07
1.52304e+07
1.50807e+07
1.49382e+07
1.48025e+07
1.46733e+07
1.45504e+07
1.44335e+07
1.43226e+07
1.6958e+07
1.68201e+07
1.66308e+07
1.64306e+07
1.62342e+07
1.60459e+07
1.58666e+07
1.56959e+07
1.5533e+07
1.53776e+07
1.52291e+07
1.50872e+07
1.49516e+07
1.48221e+07
1.46986e+07
1.45808e+07
1.44686e+07
1.43618e+07
1.66311e+07
1.65524e+07
1.64269e+07
1.62788e+07
1.61215e+07
1.59623e+07
1.58048e+07
1.56508e+07
1.55012e+07
1.53565e+07
1.5217e+07
1.50827e+07
1.49536e+07
1.48299e+07
1.47114e+07
1.45981e+07
1.44898e+07
1.43864e+07
1.64443e+07
1.63878e+07
1.62917e+07
1.61713e+07
1.60376e+07
1.58974e+07
1.57551e+07
1.56132e+07
1.54734e+07
1.53368e+07
1.52039e+07
1.50753e+07
1.49511e+07
1.48316e+07
1.47167e+07
1.46065e+07
1.45009e+07
1.44e+07
1.63207e+07
1.62752e+07
1.61953e+07
1.60918e+07
1.59734e+07
1.58464e+07
1.5715e+07
1.55821e+07
1.54498e+07
1.53194e+07
1.51917e+07
1.50675e+07
1.49471e+07
1.48307e+07
1.47186e+07
1.46108e+07
1.45074e+07
1.44082e+07
1.6237e+07
1.61977e+07
1.61273e+07
1.60343e+07
1.5926e+07
1.5808e+07
1.56843e+07
1.5558e+07
1.54311e+07
1.53053e+07
1.51815e+07
1.50605e+07
1.49429e+07
1.4829e+07
1.47189e+07
1.4613e+07
1.45111e+07
1.44133e+07
1.618e+07
1.61444e+07
1.60799e+07
1.59937e+07
1.5892e+07
1.578e+07
1.56617e+07
1.554e+07
1.5417e+07
1.52945e+07
1.51735e+07
1.50549e+07
1.49393e+07
1.48271e+07
1.47186e+07
1.46139e+07
1.45131e+07
1.44163e+07
1.61415e+07
1.61081e+07
1.60473e+07
1.59655e+07
1.58682e+07
1.57603e+07
1.56456e+07
1.5527e+07
1.54068e+07
1.52865e+07
1.51675e+07
1.50506e+07
1.49364e+07
1.48255e+07
1.4718e+07
1.46142e+07
1.45143e+07
1.44182e+07
1.61159e+07
1.60839e+07
1.60255e+07
1.59464e+07
1.5852e+07
1.57468e+07
1.56345e+07
1.5518e+07
1.53996e+07
1.52809e+07
1.51633e+07
1.50475e+07
1.49343e+07
1.48242e+07
1.47174e+07
1.46143e+07
1.45149e+07
1.44193e+07
1.60994e+07
1.60684e+07
1.60114e+07
1.59341e+07
1.58414e+07
1.57379e+07
1.56272e+07
1.55121e+07
1.53949e+07
1.52772e+07
1.51604e+07
1.50454e+07
1.49328e+07
1.48233e+07
1.4717e+07
1.46143e+07
1.45152e+07
1.44199e+07
1.60895e+07
1.60589e+07
1.60028e+07
1.59265e+07
1.5835e+07
1.57325e+07
1.56227e+07
1.55084e+07
1.53919e+07
1.52749e+07
1.51586e+07
1.5044e+07
1.49319e+07
1.48226e+07
1.47167e+07
1.46142e+07
1.45154e+07
1.44202e+07
1.60841e+07
1.60538e+07
1.59982e+07
1.59224e+07
1.58315e+07
1.57296e+07
1.56203e+07
1.55064e+07
1.53903e+07
1.52736e+07
1.51576e+07
1.50433e+07
1.49313e+07
1.48223e+07
1.47165e+07
1.46141e+07
1.45154e+07
1.44204e+07
1.60819e+07
1.60517e+07
1.59963e+07
1.59207e+07
1.583e+07
1.57283e+07
1.56193e+07
1.55056e+07
1.53896e+07
1.52731e+07
1.51572e+07
1.5043e+07
1.49311e+07
1.48221e+07
1.47164e+07
1.46141e+07
1.45154e+07
1.44204e+07
1.08122e+07
1.08118e+07
1.08112e+07
1.08103e+07
1.08091e+07
1.08077e+07
1.08061e+07
1.08044e+07
1.08027e+07
1.08009e+07
1.07991e+07
1.07972e+07
1.07951e+07
1.07929e+07
1.07907e+07
1.07884e+07
1.0786e+07
1.07836e+07
1.07811e+07
1.07785e+07
1.07759e+07
1.07732e+07
1.07705e+07
1.07677e+07
1.07649e+07
1.0762e+07
1.07591e+07
1.07562e+07
1.07533e+07
1.07504e+07
1.07475e+07
1.07445e+07
1.07416e+07
1.07388e+07
1.07359e+07
1.0733e+07
1.07302e+07
1.07274e+07
1.07246e+07
1.07219e+07
1.07192e+07
1.07165e+07
1.07138e+07
1.07111e+07
1.07085e+07
1.07059e+07
1.07033e+07
1.07007e+07
1.06982e+07
1.06956e+07
1.06931e+07
1.06906e+07
1.06881e+07
1.06856e+07
1.06831e+07
1.06806e+07
1.06781e+07
1.06757e+07
1.06732e+07
1.06707e+07
1.06683e+07
1.06658e+07
1.06634e+07
1.06609e+07
1.06585e+07
1.0656e+07
1.06536e+07
1.06511e+07
1.06487e+07
1.06462e+07
1.06437e+07
1.06413e+07
1.06388e+07
1.06363e+07
1.06338e+07
1.06313e+07
1.06288e+07
1.06263e+07
1.06238e+07
1.06212e+07
1.06187e+07
1.06161e+07
1.06136e+07
1.0611e+07
1.06084e+07
1.06058e+07
1.06031e+07
1.06005e+07
1.05979e+07
1.05952e+07
1.05925e+07
1.05898e+07
1.05871e+07
1.05844e+07
1.05816e+07
1.05789e+07
1.05761e+07
1.05733e+07
1.05705e+07
1.05676e+07
1.05648e+07
1.05619e+07
1.0559e+07
1.05561e+07
1.05532e+07
1.05502e+07
1.05473e+07
1.05443e+07
1.05413e+07
1.05382e+07
1.05352e+07
1.05321e+07
1.0529e+07
1.05259e+07
1.05227e+07
1.05196e+07
1.05164e+07
1.05131e+07
1.05099e+07
1.05066e+07
1.05033e+07
1.05e+07
1.04967e+07
1.04933e+07
1.04899e+07
1.04865e+07
1.04831e+07
1.04796e+07
1.04761e+07
1.04726e+07
1.04691e+07
1.04655e+07
1.04619e+07
1.04582e+07
1.04546e+07
1.04509e+07
1.04472e+07
1.04434e+07
1.04397e+07
1.04359e+07
1.0432e+07
1.04282e+07
1.04243e+07
1.04204e+07
1.04164e+07
1.04125e+07
1.04084e+07
1.04044e+07
1.04003e+07
1.03962e+07
1.03921e+07
1.03879e+07
1.03837e+07
1.03795e+07
1.03752e+07
1.03709e+07
1.03666e+07
1.03622e+07
1.03578e+07
1.03534e+07
1.03489e+07
1.03444e+07
1.03399e+07
1.03353e+07
1.03307e+07
1.03261e+07
1.03214e+07
1.03167e+07
1.03119e+07
1.03071e+07
1.03023e+07
1.02975e+07
1.02926e+07
1.02877e+07
1.02828e+07
1.02778e+07
1.02728e+07
1.02678e+07
1.02628e+07
1.02579e+07
1.08285e+07
1.08274e+07
1.08252e+07
1.08217e+07
1.0817e+07
1.08105e+07
1.08067e+07
1.08044e+07
1.08028e+07
1.08011e+07
1.07994e+07
1.07976e+07
1.07955e+07
1.07932e+07
1.07909e+07
1.07885e+07
1.07862e+07
1.07838e+07
1.07813e+07
1.07787e+07
1.0776e+07
1.07733e+07
1.07705e+07
1.07677e+07
1.07649e+07
1.0762e+07
1.07591e+07
1.07562e+07
1.07532e+07
1.07503e+07
1.07474e+07
1.07444e+07
1.07415e+07
1.07386e+07
1.07358e+07
1.07329e+07
1.07301e+07
1.07273e+07
1.07245e+07
1.07218e+07
1.07191e+07
1.07164e+07
1.07137e+07
1.0711e+07
1.07084e+07
1.07058e+07
1.07032e+07
1.07006e+07
1.06981e+07
1.06955e+07
1.0693e+07
1.06905e+07
1.0688e+07
1.06855e+07
1.0683e+07
1.06805e+07
1.06781e+07
1.06756e+07
1.06732e+07
1.06707e+07
1.06682e+07
1.06658e+07
1.06634e+07
1.06609e+07
1.06585e+07
1.0656e+07
1.06536e+07
1.06511e+07
1.06486e+07
1.06462e+07
1.06437e+07
1.06413e+07
1.06388e+07
1.06363e+07
1.06338e+07
1.06313e+07
1.06288e+07
1.06263e+07
1.06238e+07
1.06212e+07
1.06187e+07
1.06161e+07
1.06135e+07
1.0611e+07
1.06084e+07
1.06058e+07
1.06031e+07
1.06005e+07
1.05978e+07
1.05952e+07
1.05925e+07
1.05898e+07
1.05871e+07
1.05844e+07
1.05816e+07
1.05789e+07
1.05761e+07
1.05733e+07
1.05705e+07
1.05676e+07
1.05648e+07
1.05619e+07
1.0559e+07
1.05561e+07
1.05532e+07
1.05502e+07
1.05473e+07
1.05443e+07
1.05413e+07
1.05382e+07
1.05352e+07
1.05321e+07
1.0529e+07
1.05259e+07
1.05227e+07
1.05195e+07
1.05164e+07
1.05131e+07
1.05099e+07
1.05066e+07
1.05033e+07
1.05e+07
1.04967e+07
1.04933e+07
1.04899e+07
1.04865e+07
1.04831e+07
1.04796e+07
1.04761e+07
1.04726e+07
1.04691e+07
1.04655e+07
1.04619e+07
1.04582e+07
1.04546e+07
1.04509e+07
1.04472e+07
1.04434e+07
1.04397e+07
1.04359e+07
1.0432e+07
1.04282e+07
1.04243e+07
1.04204e+07
1.04164e+07
1.04124e+07
1.04084e+07
1.04044e+07
1.04003e+07
1.03962e+07
1.03921e+07
1.03879e+07
1.03837e+07
1.03795e+07
1.03752e+07
1.03709e+07
1.03666e+07
1.03622e+07
1.03578e+07
1.03534e+07
1.03489e+07
1.03444e+07
1.03399e+07
1.03353e+07
1.03307e+07
1.03261e+07
1.03214e+07
1.03167e+07
1.03119e+07
1.03071e+07
1.03023e+07
1.02975e+07
1.02926e+07
1.02877e+07
1.02827e+07
1.02778e+07
1.02728e+07
1.02678e+07
1.02628e+07
1.02579e+07
1.0908e+07
1.09073e+07
1.09061e+07
1.09045e+07
1.09029e+07
1.09021e+07
1.09041e+07
1.09122e+07
1.09078e+07
1.08909e+07
1.08587e+07
1.0811e+07
1.07977e+07
1.07933e+07
1.0791e+07
1.07887e+07
1.07864e+07
1.07841e+07
1.07817e+07
1.07791e+07
1.07762e+07
1.07734e+07
1.07706e+07
1.07678e+07
1.0765e+07
1.0762e+07
1.07591e+07
1.07561e+07
1.07531e+07
1.07502e+07
1.07472e+07
1.07442e+07
1.07413e+07
1.07384e+07
1.07355e+07
1.07327e+07
1.07299e+07
1.07271e+07
1.07243e+07
1.07215e+07
1.07188e+07
1.07161e+07
1.07135e+07
1.07108e+07
1.07082e+07
1.07056e+07
1.0703e+07
1.07005e+07
1.06979e+07
1.06954e+07
1.06929e+07
1.06904e+07
1.06879e+07
1.06854e+07
1.06829e+07
1.06804e+07
1.0678e+07
1.06755e+07
1.06731e+07
1.06706e+07
1.06682e+07
1.06657e+07
1.06633e+07
1.06608e+07
1.06584e+07
1.0656e+07
1.06535e+07
1.06511e+07
1.06486e+07
1.06461e+07
1.06437e+07
1.06412e+07
1.06387e+07
1.06363e+07
1.06338e+07
1.06313e+07
1.06288e+07
1.06262e+07
1.06237e+07
1.06212e+07
1.06186e+07
1.06161e+07
1.06135e+07
1.06109e+07
1.06083e+07
1.06057e+07
1.06031e+07
1.06005e+07
1.05978e+07
1.05952e+07
1.05925e+07
1.05898e+07
1.05871e+07
1.05844e+07
1.05816e+07
1.05789e+07
1.05761e+07
1.05733e+07
1.05705e+07
1.05676e+07
1.05648e+07
1.05619e+07
1.0559e+07
1.05561e+07
1.05532e+07
1.05502e+07
1.05473e+07
1.05443e+07
1.05413e+07
1.05382e+07
1.05352e+07
1.05321e+07
1.0529e+07
1.05259e+07
1.05227e+07
1.05195e+07
1.05164e+07
1.05131e+07
1.05099e+07
1.05066e+07
1.05033e+07
1.05e+07
1.04967e+07
1.04933e+07
1.04899e+07
1.04865e+07
1.04831e+07
1.04796e+07
1.04761e+07
1.04726e+07
1.0469e+07
1.04655e+07
1.04619e+07
1.04582e+07
1.04546e+07
1.04509e+07
1.04472e+07
1.04434e+07
1.04397e+07
1.04359e+07
1.0432e+07
1.04282e+07
1.04243e+07
1.04204e+07
1.04164e+07
1.04124e+07
1.04084e+07
1.04044e+07
1.04003e+07
1.03962e+07
1.03921e+07
1.03879e+07
1.03837e+07
1.03795e+07
1.03752e+07
1.03709e+07
1.03666e+07
1.03622e+07
1.03578e+07
1.03534e+07
1.03489e+07
1.03444e+07
1.03399e+07
1.03353e+07
1.03307e+07
1.03261e+07
1.03214e+07
1.03167e+07
1.03119e+07
1.03071e+07
1.03023e+07
1.02975e+07
1.02926e+07
1.02877e+07
1.02827e+07
1.02778e+07
1.02728e+07
1.02678e+07
1.02628e+07
1.02578e+07
1.09837e+07
1.0983e+07
1.09819e+07
1.09802e+07
1.09783e+07
1.09759e+07
1.09733e+07
1.09697e+07
1.09629e+07
1.09524e+07
1.09393e+07
1.09277e+07
1.09261e+07
1.09394e+07
1.09393e+07
1.09279e+07
1.09044e+07
1.08656e+07
1.08038e+07
1.07806e+07
1.07762e+07
1.07735e+07
1.07708e+07
1.0768e+07
1.07652e+07
1.07621e+07
1.0759e+07
1.0756e+07
1.0753e+07
1.07499e+07
1.07469e+07
1.07439e+07
1.0741e+07
1.07381e+07
1.07352e+07
1.07323e+07
1.07295e+07
1.07267e+07
1.07239e+07
1.07212e+07
1.07185e+07
1.07158e+07
1.07132e+07
1.07106e+07
1.0708e+07
1.07054e+07
1.07028e+07
1.07002e+07
1.06977e+07
1.06952e+07
1.06927e+07
1.06902e+07
1.06877e+07
1.06852e+07
1.06828e+07
1.06803e+07
1.06778e+07
1.06754e+07
1.06729e+07
1.06705e+07
1.06681e+07
1.06656e+07
1.06632e+07
1.06607e+07
1.06583e+07
1.06559e+07
1.06534e+07
1.0651e+07
1.06485e+07
1.06461e+07
1.06436e+07
1.06412e+07
1.06387e+07
1.06362e+07
1.06337e+07
1.06312e+07
1.06287e+07
1.06262e+07
1.06237e+07
1.06212e+07
1.06186e+07
1.06161e+07
1.06135e+07
1.06109e+07
1.06083e+07
1.06057e+07
1.06031e+07
1.06005e+07
1.05978e+07
1.05952e+07
1.05925e+07
1.05898e+07
1.05871e+07
1.05843e+07
1.05816e+07
1.05788e+07
1.05761e+07
1.05733e+07
1.05705e+07
1.05676e+07
1.05648e+07
1.05619e+07
1.0559e+07
1.05561e+07
1.05532e+07
1.05502e+07
1.05473e+07
1.05443e+07
1.05412e+07
1.05382e+07
1.05352e+07
1.05321e+07
1.0529e+07
1.05259e+07
1.05227e+07
1.05195e+07
1.05163e+07
1.05131e+07
1.05099e+07
1.05066e+07
1.05033e+07
1.05e+07
1.04967e+07
1.04933e+07
1.04899e+07
1.04865e+07
1.04831e+07
1.04796e+07
1.04761e+07
1.04726e+07
1.0469e+07
1.04655e+07
1.04619e+07
1.04582e+07
1.04546e+07
1.04509e+07
1.04472e+07
1.04434e+07
1.04397e+07
1.04359e+07
1.0432e+07
1.04282e+07
1.04243e+07
1.04204e+07
1.04164e+07
1.04124e+07
1.04084e+07
1.04044e+07
1.04003e+07
1.03962e+07
1.03921e+07
1.03879e+07
1.03837e+07
1.03795e+07
1.03752e+07
1.03709e+07
1.03666e+07
1.03622e+07
1.03578e+07
1.03534e+07
1.03489e+07
1.03444e+07
1.03399e+07
1.03353e+07
1.03307e+07
1.0326e+07
1.03214e+07
1.03167e+07
1.03119e+07
1.03071e+07
1.03023e+07
1.02975e+07
1.02926e+07
1.02877e+07
1.02827e+07
1.02778e+07
1.02728e+07
1.02678e+07
1.02627e+07
1.02577e+07
1.10585e+07
1.10578e+07
1.10564e+07
1.10544e+07
1.10517e+07
1.10482e+07
1.10439e+07
1.10385e+07
1.10318e+07
1.10237e+07
1.1015e+07
1.10066e+07
1.1e+07
1.09944e+07
1.0986e+07
1.09732e+07
1.09557e+07
1.09345e+07
1.09131e+07
1.09019e+07
1.09061e+07
1.08957e+07
1.08717e+07
1.08314e+07
1.07707e+07
1.07619e+07
1.07587e+07
1.07559e+07
1.07528e+07
1.07496e+07
1.07465e+07
1.07435e+07
1.07405e+07
1.07375e+07
1.07347e+07
1.07318e+07
1.0729e+07
1.07262e+07
1.07235e+07
1.07208e+07
1.07181e+07
1.07154e+07
1.07128e+07
1.07102e+07
1.07076e+07
1.0705e+07
1.07025e+07
1.06999e+07
1.06974e+07
1.06949e+07
1.06924e+07
1.06899e+07
1.06875e+07
1.0685e+07
1.06826e+07
1.06801e+07
1.06777e+07
1.06752e+07
1.06728e+07
1.06703e+07
1.06679e+07
1.06655e+07
1.06631e+07
1.06606e+07
1.06582e+07
1.06558e+07
1.06533e+07
1.06509e+07
1.06484e+07
1.0646e+07
1.06435e+07
1.06411e+07
1.06386e+07
1.06361e+07
1.06337e+07
1.06312e+07
1.06287e+07
1.06262e+07
1.06236e+07
1.06211e+07
1.06186e+07
1.0616e+07
1.06135e+07
1.06109e+07
1.06083e+07
1.06057e+07
1.06031e+07
1.06004e+07
1.05978e+07
1.05951e+07
1.05924e+07
1.05898e+07
1.0587e+07
1.05843e+07
1.05816e+07
1.05788e+07
1.0576e+07
1.05733e+07
1.05704e+07
1.05676e+07
1.05648e+07
1.05619e+07
1.0559e+07
1.05561e+07
1.05532e+07
1.05502e+07
1.05472e+07
1.05443e+07
1.05412e+07
1.05382e+07
1.05351e+07
1.05321e+07
1.0529e+07
1.05258e+07
1.05227e+07
1.05195e+07
1.05163e+07
1.05131e+07
1.05099e+07
1.05066e+07
1.05033e+07
1.05e+07
1.04967e+07
1.04933e+07
1.04899e+07
1.04865e+07
1.04831e+07
1.04796e+07
1.04761e+07
1.04726e+07
1.0469e+07
1.04655e+07
1.04619e+07
1.04582e+07
1.04546e+07
1.04509e+07
1.04472e+07
1.04434e+07
1.04397e+07
1.04359e+07
1.0432e+07
1.04282e+07
1.04243e+07
1.04204e+07
1.04164e+07
1.04124e+07
1.04084e+07
1.04044e+07
1.04003e+07
1.03962e+07
1.03921e+07
1.03879e+07
1.03837e+07
1.03795e+07
1.03752e+07
1.03709e+07
1.03666e+07
1.03622e+07
1.03578e+07
1.03534e+07
1.03489e+07
1.03444e+07
1.03399e+07
1.03353e+07
1.03307e+07
1.0326e+07
1.03214e+07
1.03167e+07
1.03119e+07
1.03071e+07
1.03023e+07
1.02975e+07
1.02926e+07
1.02877e+07
1.02827e+07
1.02777e+07
1.02727e+07
1.02677e+07
1.02627e+07
1.02576e+07
1.11341e+07
1.11332e+07
1.11316e+07
1.11292e+07
1.11261e+07
1.1122e+07
1.11171e+07
1.11113e+07
1.11044e+07
1.10966e+07
1.10882e+07
1.10792e+07
1.10699e+07
1.10599e+07
1.10486e+07
1.10353e+07
1.10203e+07
1.10039e+07
1.09876e+07
1.09728e+07
1.09591e+07
1.09422e+07
1.09208e+07
1.08949e+07
1.08679e+07
1.08492e+07
1.0837e+07
1.08066e+07
1.0756e+07
1.07486e+07
1.07458e+07
1.07429e+07
1.07398e+07
1.07369e+07
1.0734e+07
1.07311e+07
1.07283e+07
1.07256e+07
1.07229e+07
1.07202e+07
1.07175e+07
1.07149e+07
1.07123e+07
1.07097e+07
1.07071e+07
1.07046e+07
1.07021e+07
1.06996e+07
1.06971e+07
1.06946e+07
1.06921e+07
1.06896e+07
1.06872e+07
1.06847e+07
1.06823e+07
1.06799e+07
1.06774e+07
1.0675e+07
1.06726e+07
1.06702e+07
1.06677e+07
1.06653e+07
1.06629e+07
1.06605e+07
1.06581e+07
1.06556e+07
1.06532e+07
1.06508e+07
1.06483e+07
1.06459e+07
1.06434e+07
1.0641e+07
1.06385e+07
1.06361e+07
1.06336e+07
1.06311e+07
1.06286e+07
1.06261e+07
1.06236e+07
1.06211e+07
1.06185e+07
1.0616e+07
1.06134e+07
1.06108e+07
1.06082e+07
1.06056e+07
1.0603e+07
1.06004e+07
1.05978e+07
1.05951e+07
1.05924e+07
1.05897e+07
1.0587e+07
1.05843e+07
1.05816e+07
1.05788e+07
1.0576e+07
1.05732e+07
1.05704e+07
1.05676e+07
1.05647e+07
1.05619e+07
1.0559e+07
1.05561e+07
1.05532e+07
1.05502e+07
1.05472e+07
1.05442e+07
1.05412e+07
1.05382e+07
1.05351e+07
1.05321e+07
1.0529e+07
1.05258e+07
1.05227e+07
1.05195e+07
1.05163e+07
1.05131e+07
1.05099e+07
1.05066e+07
1.05033e+07
1.05e+07
1.04967e+07
1.04933e+07
1.04899e+07
1.04865e+07
1.04831e+07
1.04796e+07
1.04761e+07
1.04726e+07
1.0469e+07
1.04655e+07
1.04619e+07
1.04582e+07
1.04546e+07
1.04509e+07
1.04472e+07
1.04434e+07
1.04397e+07
1.04359e+07
1.0432e+07
1.04282e+07
1.04243e+07
1.04204e+07
1.04164e+07
1.04124e+07
1.04084e+07
1.04044e+07
1.04003e+07
1.03962e+07
1.03921e+07
1.03879e+07
1.03837e+07
1.03795e+07
1.03752e+07
1.03709e+07
1.03666e+07
1.03622e+07
1.03578e+07
1.03534e+07
1.03489e+07
1.03444e+07
1.03399e+07
1.03353e+07
1.03307e+07
1.0326e+07
1.03214e+07
1.03167e+07
1.03119e+07
1.03071e+07
1.03023e+07
1.02975e+07
1.02926e+07
1.02876e+07
1.02827e+07
1.02777e+07
1.02727e+07
1.02677e+07
1.02626e+07
1.02575e+07
1.12113e+07
1.12103e+07
1.12085e+07
1.12058e+07
1.12023e+07
1.11979e+07
1.11926e+07
1.11863e+07
1.11791e+07
1.1171e+07
1.11621e+07
1.11523e+07
1.11416e+07
1.11301e+07
1.11175e+07
1.11037e+07
1.10887e+07
1.10729e+07
1.10564e+07
1.10395e+07
1.10219e+07
1.1003e+07
1.09821e+07
1.09597e+07
1.09367e+07
1.09143e+07
1.08915e+07
1.08655e+07
1.0837e+07
1.08125e+07
1.07863e+07
1.07431e+07
1.07385e+07
1.07361e+07
1.07331e+07
1.07303e+07
1.07275e+07
1.07248e+07
1.07221e+07
1.07195e+07
1.07169e+07
1.07143e+07
1.07117e+07
1.07092e+07
1.07066e+07
1.07041e+07
1.07016e+07
1.06991e+07
1.06966e+07
1.06942e+07
1.06917e+07
1.06893e+07
1.06869e+07
1.06844e+07
1.0682e+07
1.06796e+07
1.06772e+07
1.06748e+07
1.06723e+07
1.06699e+07
1.06675e+07
1.06651e+07
1.06627e+07
1.06603e+07
1.06579e+07
1.06555e+07
1.06531e+07
1.06506e+07
1.06482e+07
1.06458e+07
1.06433e+07
1.06409e+07
1.06384e+07
1.0636e+07
1.06335e+07
1.0631e+07
1.06285e+07
1.0626e+07
1.06235e+07
1.0621e+07
1.06185e+07
1.06159e+07
1.06133e+07
1.06108e+07
1.06082e+07
1.06056e+07
1.0603e+07
1.06004e+07
1.05977e+07
1.05951e+07
1.05924e+07
1.05897e+07
1.0587e+07
1.05843e+07
1.05815e+07
1.05788e+07
1.0576e+07
1.05732e+07
1.05704e+07
1.05676e+07
1.05647e+07
1.05619e+07
1.0559e+07
1.05561e+07
1.05531e+07
1.05502e+07
1.05472e+07
1.05442e+07
1.05412e+07
1.05382e+07
1.05351e+07
1.05321e+07
1.0529e+07
1.05258e+07
1.05227e+07
1.05195e+07
1.05163e+07
1.05131e+07
1.05099e+07
1.05066e+07
1.05033e+07
1.05e+07
1.04967e+07
1.04933e+07
1.04899e+07
1.04865e+07
1.04831e+07
1.04796e+07
1.04761e+07
1.04726e+07
1.0469e+07
1.04655e+07
1.04619e+07
1.04582e+07
1.04546e+07
1.04509e+07
1.04472e+07
1.04434e+07
1.04397e+07
1.04359e+07
1.0432e+07
1.04282e+07
1.04243e+07
1.04204e+07
1.04164e+07
1.04124e+07
1.04084e+07
1.04044e+07
1.04003e+07
1.03962e+07
1.03921e+07
1.03879e+07
1.03837e+07
1.03795e+07
1.03752e+07
1.03709e+07
1.03666e+07
1.03622e+07
1.03578e+07
1.03534e+07
1.03489e+07
1.03444e+07
1.03399e+07
1.03353e+07
1.03307e+07
1.0326e+07
1.03214e+07
1.03166e+07
1.03119e+07
1.03071e+07
1.03023e+07
1.02974e+07
1.02926e+07
1.02876e+07
1.02827e+07
1.02777e+07
1.02727e+07
1.02676e+07
1.02626e+07
1.02575e+07
1.12908e+07
1.12896e+07
1.12876e+07
1.12847e+07
1.12809e+07
1.12762e+07
1.12704e+07
1.12637e+07
1.1256e+07
1.12474e+07
1.12378e+07
1.12272e+07
1.12157e+07
1.12032e+07
1.11897e+07
1.11751e+07
1.11596e+07
1.11431e+07
1.11257e+07
1.11076e+07
1.10885e+07
1.10683e+07
1.10471e+07
1.10248e+07
1.10016e+07
1.09778e+07
1.09532e+07
1.09273e+07
1.09003e+07
1.08728e+07
1.08438e+07
1.08118e+07
1.07793e+07
1.07389e+07
1.07317e+07
1.07293e+07
1.07265e+07
1.07239e+07
1.07213e+07
1.07187e+07
1.07161e+07
1.07135e+07
1.0711e+07
1.07085e+07
1.0706e+07
1.07035e+07
1.07011e+07
1.06986e+07
1.06962e+07
1.06937e+07
1.06913e+07
1.06889e+07
1.06865e+07
1.06841e+07
1.06817e+07
1.06793e+07
1.06769e+07
1.06745e+07
1.06721e+07
1.06697e+07
1.06673e+07
1.06649e+07
1.06625e+07
1.06601e+07
1.06577e+07
1.06553e+07
1.06529e+07
1.06505e+07
1.06481e+07
1.06456e+07
1.06432e+07
1.06408e+07
1.06383e+07
1.06358e+07
1.06334e+07
1.06309e+07
1.06284e+07
1.06259e+07
1.06234e+07
1.06209e+07
1.06184e+07
1.06158e+07
1.06133e+07
1.06107e+07
1.06081e+07
1.06055e+07
1.06029e+07
1.06003e+07
1.05977e+07
1.0595e+07
1.05923e+07
1.05897e+07
1.0587e+07
1.05842e+07
1.05815e+07
1.05787e+07
1.0576e+07
1.05732e+07
1.05704e+07
1.05676e+07
1.05647e+07
1.05618e+07
1.0559e+07
1.0556e+07
1.05531e+07
1.05502e+07
1.05472e+07
1.05442e+07
1.05412e+07
1.05382e+07
1.05351e+07
1.0532e+07
1.05289e+07
1.05258e+07
1.05227e+07
1.05195e+07
1.05163e+07
1.05131e+07
1.05099e+07
1.05066e+07
1.05033e+07
1.05e+07
1.04967e+07
1.04933e+07
1.04899e+07
1.04865e+07
1.04831e+07
1.04796e+07
1.04761e+07
1.04726e+07
1.0469e+07
1.04655e+07
1.04619e+07
1.04582e+07
1.04546e+07
1.04509e+07
1.04472e+07
1.04434e+07
1.04397e+07
1.04359e+07
1.0432e+07
1.04282e+07
1.04243e+07
1.04204e+07
1.04164e+07
1.04124e+07
1.04084e+07
1.04044e+07
1.04003e+07
1.03962e+07
1.03921e+07
1.03879e+07
1.03837e+07
1.03795e+07
1.03752e+07
1.03709e+07
1.03666e+07
1.03622e+07
1.03578e+07
1.03534e+07
1.03489e+07
1.03444e+07
1.03399e+07
1.03353e+07
1.03307e+07
1.0326e+07
1.03214e+07
1.03166e+07
1.03119e+07
1.03071e+07
1.03023e+07
1.02974e+07
1.02925e+07
1.02876e+07
1.02827e+07
1.02777e+07
1.02726e+07
1.02676e+07
1.02625e+07
1.02574e+07
1.13729e+07
1.13717e+07
1.13695e+07
1.13663e+07
1.13622e+07
1.1357e+07
1.13509e+07
1.13437e+07
1.13354e+07
1.13261e+07
1.13158e+07
1.13045e+07
1.12921e+07
1.12787e+07
1.12643e+07
1.12489e+07
1.12324e+07
1.1215e+07
1.11967e+07
1.11774e+07
1.11571e+07
1.11359e+07
1.11138e+07
1.10907e+07
1.10667e+07
1.10418e+07
1.10161e+07
1.09894e+07
1.09618e+07
1.09333e+07
1.09037e+07
1.08728e+07
1.0841e+07
1.0808e+07
1.07751e+07
1.0731e+07
1.07252e+07
1.07228e+07
1.07203e+07
1.07177e+07
1.07152e+07
1.07127e+07
1.07103e+07
1.07078e+07
1.07053e+07
1.07029e+07
1.07005e+07
1.0698e+07
1.06956e+07
1.06932e+07
1.06908e+07
1.06884e+07
1.0686e+07
1.06837e+07
1.06813e+07
1.06789e+07
1.06765e+07
1.06741e+07
1.06718e+07
1.06694e+07
1.0667e+07
1.06646e+07
1.06623e+07
1.06599e+07
1.06575e+07
1.06551e+07
1.06527e+07
1.06503e+07
1.06479e+07
1.06455e+07
1.0643e+07
1.06406e+07
1.06382e+07
1.06357e+07
1.06333e+07
1.06308e+07
1.06283e+07
1.06258e+07
1.06233e+07
1.06208e+07
1.06183e+07
1.06158e+07
1.06132e+07
1.06106e+07
1.06081e+07
1.06055e+07
1.06029e+07
1.06003e+07
1.05976e+07
1.0595e+07
1.05923e+07
1.05896e+07
1.05869e+07
1.05842e+07
1.05815e+07
1.05787e+07
1.05759e+07
1.05732e+07
1.05704e+07
1.05675e+07
1.05647e+07
1.05618e+07
1.05589e+07
1.0556e+07
1.05531e+07
1.05502e+07
1.05472e+07
1.05442e+07
1.05412e+07
1.05382e+07
1.05351e+07
1.0532e+07
1.05289e+07
1.05258e+07
1.05227e+07
1.05195e+07
1.05163e+07
1.05131e+07
1.05099e+07
1.05066e+07
1.05033e+07
1.05e+07
1.04967e+07
1.04933e+07
1.04899e+07
1.04865e+07
1.0483e+07
1.04796e+07
1.04761e+07
1.04726e+07
1.0469e+07
1.04655e+07
1.04618e+07
1.04582e+07
1.04546e+07
1.04509e+07
1.04472e+07
1.04434e+07
1.04397e+07
1.04359e+07
1.0432e+07
1.04282e+07
1.04243e+07
1.04204e+07
1.04164e+07
1.04124e+07
1.04084e+07
1.04044e+07
1.04003e+07
1.03962e+07
1.03921e+07
1.03879e+07
1.03837e+07
1.03795e+07
1.03752e+07
1.03709e+07
1.03666e+07
1.03622e+07
1.03578e+07
1.03534e+07
1.03489e+07
1.03444e+07
1.03399e+07
1.03353e+07
1.03307e+07
1.0326e+07
1.03214e+07
1.03166e+07
1.03119e+07
1.03071e+07
1.03023e+07
1.02974e+07
1.02925e+07
1.02876e+07
1.02826e+07
1.02776e+07
1.02726e+07
1.02675e+07
1.02624e+07
1.02573e+07
1.14582e+07
1.14569e+07
1.14545e+07
1.1451e+07
1.14465e+07
1.14409e+07
1.14342e+07
1.14264e+07
1.14175e+07
1.14075e+07
1.13964e+07
1.13842e+07
1.1371e+07
1.13566e+07
1.13412e+07
1.13248e+07
1.13073e+07
1.12888e+07
1.12693e+07
1.12489e+07
1.12275e+07
1.12052e+07
1.11819e+07
1.11577e+07
1.11326e+07
1.11067e+07
1.10798e+07
1.10521e+07
1.10236e+07
1.09941e+07
1.09638e+07
1.09325e+07
1.09004e+07
1.08675e+07
1.08338e+07
1.07985e+07
1.07637e+07
1.07224e+07
1.07192e+07
1.07167e+07
1.07143e+07
1.07118e+07
1.07094e+07
1.0707e+07
1.07046e+07
1.07022e+07
1.06998e+07
1.06974e+07
1.0695e+07
1.06927e+07
1.06903e+07
1.06879e+07
1.06856e+07
1.06832e+07
1.06808e+07
1.06785e+07
1.06761e+07
1.06738e+07
1.06714e+07
1.06691e+07
1.06667e+07
1.06644e+07
1.0662e+07
1.06596e+07
1.06572e+07
1.06549e+07
1.06525e+07
1.06501e+07
1.06477e+07
1.06453e+07
1.06429e+07
1.06405e+07
1.0638e+07
1.06356e+07
1.06331e+07
1.06307e+07
1.06282e+07
1.06257e+07
1.06232e+07
1.06207e+07
1.06182e+07
1.06157e+07
1.06131e+07
1.06106e+07
1.0608e+07
1.06054e+07
1.06028e+07
1.06002e+07
1.05976e+07
1.05949e+07
1.05923e+07
1.05896e+07
1.05869e+07
1.05842e+07
1.05814e+07
1.05787e+07
1.05759e+07
1.05731e+07
1.05703e+07
1.05675e+07
1.05647e+07
1.05618e+07
1.05589e+07
1.0556e+07
1.05531e+07
1.05501e+07
1.05472e+07
1.05442e+07
1.05412e+07
1.05381e+07
1.05351e+07
1.0532e+07
1.05289e+07
1.05258e+07
1.05227e+07
1.05195e+07
1.05163e+07
1.05131e+07
1.05098e+07
1.05066e+07
1.05033e+07
1.05e+07
1.04966e+07
1.04933e+07
1.04899e+07
1.04865e+07
1.0483e+07
1.04796e+07
1.04761e+07
1.04726e+07
1.0469e+07
1.04654e+07
1.04618e+07
1.04582e+07
1.04546e+07
1.04509e+07
1.04472e+07
1.04434e+07
1.04396e+07
1.04358e+07
1.0432e+07
1.04282e+07
1.04243e+07
1.04204e+07
1.04164e+07
1.04124e+07
1.04084e+07
1.04044e+07
1.04003e+07
1.03962e+07
1.03921e+07
1.03879e+07
1.03837e+07
1.03795e+07
1.03752e+07
1.03709e+07
1.03666e+07
1.03622e+07
1.03578e+07
1.03534e+07
1.03489e+07
1.03444e+07
1.03398e+07
1.03353e+07
1.03307e+07
1.0326e+07
1.03213e+07
1.03166e+07
1.03119e+07
1.03071e+07
1.03023e+07
1.02974e+07
1.02925e+07
1.02876e+07
1.02826e+07
1.02776e+07
1.02726e+07
1.02675e+07
1.02624e+07
1.02572e+07
1.15471e+07
1.15456e+07
1.15429e+07
1.15391e+07
1.15342e+07
1.15281e+07
1.15208e+07
1.15123e+07
1.15027e+07
1.14918e+07
1.14798e+07
1.14667e+07
1.14524e+07
1.1437e+07
1.14205e+07
1.14029e+07
1.13842e+07
1.13645e+07
1.13438e+07
1.13221e+07
1.12994e+07
1.12758e+07
1.12513e+07
1.12259e+07
1.11996e+07
1.11724e+07
1.11443e+07
1.11155e+07
1.10857e+07
1.10552e+07
1.10239e+07
1.09917e+07
1.09588e+07
1.0925e+07
1.08904e+07
1.08548e+07
1.08177e+07
1.07775e+07
1.07309e+07
1.07156e+07
1.07132e+07
1.07109e+07
1.07085e+07
1.07061e+07
1.07038e+07
1.07014e+07
1.06991e+07
1.06967e+07
1.06944e+07
1.0692e+07
1.06897e+07
1.06874e+07
1.0685e+07
1.06827e+07
1.06804e+07
1.06781e+07
1.06757e+07
1.06734e+07
1.06711e+07
1.06687e+07
1.06664e+07
1.0664e+07
1.06617e+07
1.06593e+07
1.0657e+07
1.06546e+07
1.06523e+07
1.06499e+07
1.06475e+07
1.06451e+07
1.06427e+07
1.06403e+07
1.06379e+07
1.06354e+07
1.0633e+07
1.06305e+07
1.06281e+07
1.06256e+07
1.06231e+07
1.06206e+07
1.06181e+07
1.06156e+07
1.0613e+07
1.06105e+07
1.06079e+07
1.06053e+07
1.06027e+07
1.06001e+07
1.05975e+07
1.05949e+07
1.05922e+07
1.05895e+07
1.05868e+07
1.05841e+07
1.05814e+07
1.05786e+07
1.05759e+07
1.05731e+07
1.05703e+07
1.05675e+07
1.05646e+07
1.05618e+07
1.05589e+07
1.0556e+07
1.05531e+07
1.05501e+07
1.05472e+07
1.05442e+07
1.05412e+07
1.05381e+07
1.05351e+07
1.0532e+07
1.05289e+07
1.05258e+07
1.05226e+07
1.05195e+07
1.05163e+07
1.05131e+07
1.05098e+07
1.05066e+07
1.05033e+07
1.05e+07
1.04966e+07