/*--------------------------------*- C++ -*----------------------------------*\
  =========                 |
  \\      /  F ield         | OpenFOAM: The Open Source CFD Toolbox
   \\    /   O peration     | Website:  https://openfoam.org
    \\  /    A nd           | Version:  10
     \\/     M anipulation  |
\*---------------------------------------------------------------------------*/
FoamFile
{
    format      ascii;
    class       surfaceScalarField;
    location    "18750";
    object      phi;
}
// * * * * * * * * * * * * * * * * * * * * * * * * * * * * * * * * * * * * * //

dimensions      [0 3 -1 0 0 0 0];

internalField   nonuniform List<scalar> 
6280
(
-2.56983e-07
2.56983e-07
-5.18049e-07
2.61066e-07
-7.92181e-07
2.74133e-07
-1.08995e-06
2.97772e-07
-1.42523e-06
3.35279e-07
-1.81786e-06
3.92622e-07
-2.29825e-06
4.80398e-07
-2.91598e-06
6.17729e-07
-3.75611e-06
8.40129e-07
-4.97184e-06
1.21573e-06
-6.85123e-06
1.87939e-06
-9.95663e-06
3.1054e-06
-1.54212e-05
5.46457e-06
-2.17201e-05
6.29891e-06
-2.23991e-05
6.78935e-07
-2.27466e-05
3.47518e-07
-2.30002e-05
2.53644e-07
-2.31986e-05
1.98373e-07
-2.3359e-05
1.60438e-07
-2.34918e-05
1.32757e-07
-2.36036e-05
1.11811e-07
-2.36991e-05
9.55424e-08
-2.37818e-05
8.2642e-08
-2.3854e-05
7.22322e-08
-2.39177e-05
6.37067e-08
-2.39744e-05
5.6633e-08
-2.4025e-05
5.06968e-08
-2.40707e-05
4.56641e-08
-2.41087e-05
3.79967e-08
-2.33233e-05
-7.85361e-07
-2.25391e-05
-7.84251e-07
-2.18492e-05
-6.89879e-07
-2.11855e-05
-6.63694e-07
-2.04468e-05
-7.38733e-07
-1.94983e-05
-9.48448e-07
-1.81494e-05
-1.34894e-06
-1.61145e-05
-2.03492e-06
-1.29522e-05
-3.16232e-06
-7.96179e-06
-4.99036e-06
-7.02692e-06
-9.34869e-07
-2.38543e-07
4.95526e-07
-4.78841e-07
5.01364e-07
-7.26712e-07
5.22004e-07
-9.88079e-07
5.59139e-07
-1.26906e-06
6.16263e-07
-1.57559e-06
6.99146e-07
-1.91175e-06
8.1656e-07
-2.27516e-06
9.81143e-07
-2.64487e-06
1.20984e-06
-2.95131e-06
1.52217e-06
-3.00322e-06
1.9313e-06
-2.31245e-06
2.41464e-06
3.22091e-07
2.83003e-06
3.92731e-06
2.6937e-06
2.85106e-06
1.75519e-06
1.97987e-06
1.21871e-06
1.3188e-06
9.14712e-07
7.78716e-07
7.38457e-07
3.01159e-07
6.37995e-07
-1.54322e-07
5.88238e-07
-6.21194e-07
5.78683e-07
-1.13405e-06
6.084e-07
-1.7365e-06
6.85088e-07
-2.49149e-06
8.27226e-07
-3.49763e-06
1.06985e-06
-4.91691e-06
1.47591e-06
-7.0235e-06
2.15729e-06
-1.02908e-05
3.31293e-06
-1.35704e-05
3.31759e-06
-1.47504e-05
3.94664e-07
-1.57302e-05
1.95603e-07
-1.65755e-05
1.55399e-07
-1.73695e-05
1.30277e-07
-1.82189e-05
1.10691e-07
-1.92616e-05
9.42416e-08
-2.06902e-05
7.96814e-08
-2.27911e-05
6.59849e-08
-2.60055e-05
5.20696e-08
-2.35326e-05
-7.4633e-06
-2.99335e-05
-6.26052e-07
-2.07343e-07
7.02868e-07
-4.1343e-07
7.07451e-07
-6.20166e-07
7.2874e-07
-8.28486e-07
7.67459e-07
-1.03761e-06
8.25388e-07
-1.24368e-06
9.0521e-07
-1.43729e-06
1.01018e-06
-1.59945e-06
1.1433e-06
-1.69521e-06
1.30559e-06
-1.66555e-06
1.49251e-06
-1.42209e-06
1.68784e-06
-8.62334e-07
1.85488e-06
3.83277e-08
1.92937e-06
8.977e-07
1.83432e-06
1.06996e-06
1.58293e-06
9.48486e-07
1.34018e-06
7.13045e-07
1.15015e-06
4.35942e-07
1.01556e-06
1.44726e-07
9.29211e-07
-1.50926e-07
8.83891e-07
-4.47159e-07
8.74915e-07
-7.39122e-07
9.00363e-07
-1.01452e-06
9.6049e-07
-1.24377e-06
1.05647e-06
-1.36169e-06
1.18778e-06
-1.23241e-06
1.34663e-06
-5.81137e-07
1.50602e-06
1.13685e-06
1.59494e-06
3.00655e-06
1.44789e-06
2.35482e-06
1.0464e-06
1.76522e-06
7.85201e-07
1.3012e-06
6.19424e-07
9.19883e-07
5.11591e-07
5.89793e-07
4.4078e-07
2.88077e-07
3.95958e-07
-4.5486e-09
3.72307e-07
-3.08234e-07
3.69671e-07
-6.36678e-07
3.80513e-07
-7.87599e-06
-2.23988e-07
-4.04362e-05
2.62674e-06
-1.71007e-07
8.73876e-07
-3.38522e-07
8.74966e-07
-5.01604e-07
8.91822e-07
-6.58231e-07
9.24087e-07
-8.04616e-07
9.71772e-07
-9.3432e-07
1.03491e-06
-1.03719e-06
1.11305e-06
-1.09833e-06
1.20444e-06
-1.0977e-06
1.30496e-06
-1.01188e-06
1.40669e-06
-8.20753e-07
1.49671e-06
-5.22975e-07
1.5571e-06
-1.62013e-07
1.5684e-06
1.52818e-07
1.51949e-06
3.12989e-07
1.42276e-06
3.40963e-07
1.31221e-06
2.80571e-07
1.21055e-06
1.6762e-07
1.12851e-06
2.71437e-08
1.06969e-06
-1.23173e-07
1.03421e-06
-2.68982e-07
1.02072e-06
-3.95782e-07
1.02716e-06
-4.8596e-07
1.05067e-06
-5.16461e-07
1.08697e-06
-4.58009e-07
1.12932e-06
-2.78607e-07
1.16722e-06
4.19562e-08
1.18546e-06
4.71627e-07
1.16527e-06
8.27763e-07
1.09175e-06
8.9714e-07
9.77021e-07
8.19847e-07
8.62494e-07
6.76348e-07
7.62922e-07
5.07055e-07
6.80884e-07
3.33285e-07
6.1455e-07
1.68464e-07
5.60779e-07
2.46057e-08
5.16165e-07
-8.29041e-08
4.77181e-07
-1.42236e-07
4.39844e-07
-2.21418e-07
-1.44806e-07
-4.09138e-05
2.56196e-07
-1.35701e-07
1.00958e-06
-2.66902e-07
1.00617e-06
-3.91276e-07
1.0162e-06
-5.05811e-07
1.03862e-06
-6.06442e-07
1.0724e-06
-6.87764e-07
1.11624e-06
-7.42926e-07
1.16821e-06
-7.63933e-07
1.22545e-06
-7.42698e-07
1.28372e-06
-6.73282e-07
1.33728e-06
-5.55632e-07
1.37906e-06
-4.00313e-07
1.40178e-06
-2.3185e-07
1.39994e-06
-8.5071e-08
1.37271e-06
1.18102e-08
1.32588e-06
5.42305e-08
1.26979e-06
5.09287e-08
1.21385e-06
1.49819e-08
1.16446e-06
-4.04243e-08
1.12509e-06
-1.03243e-07
1.09703e-06
-1.62491e-07
1.07997e-06
-2.07826e-07
1.0725e-06
-2.29354e-07
1.0722e-06
-2.18088e-07
1.0757e-06
-1.67493e-07
1.07873e-06
-7.65407e-08
1.07627e-06
4.56954e-08
1.06322e-06
1.75318e-07
1.03564e-06
2.74344e-07
9.92729e-07
3.12806e-07
9.38559e-07
2.94861e-07
8.80439e-07
2.34095e-07
8.23688e-07
1.44055e-07
7.70924e-07
3.60223e-08
7.22583e-07
-8.06741e-08
6.77476e-07
-1.9755e-07
6.33041e-07
-3.05653e-07
5.85284e-07
-3.94185e-07
5.28376e-07
-1.21913e-07
-4.17078e-07
-4.1203e-05
1.67251e-07
-1.0491e-07
1.11449e-06
-2.05306e-07
1.10656e-06
-2.98538e-07
1.10943e-06
-3.81714e-07
1.1218e-06
-4.51569e-07
1.14226e-06
-5.04472e-07
1.16914e-06
-5.3663e-07
1.20037e-06
-5.44559e-07
1.23338e-06
-5.25898e-07
1.26506e-06
-4.80554e-07
1.29193e-06
-4.11961e-07
1.31047e-06
-3.27941e-07
1.31776e-06
-2.40271e-07
1.31227e-06
-1.62099e-07
1.29454e-06
-1.03513e-07
1.26729e-06
-6.83201e-08
1.23459e-06
-5.50098e-08
1.20054e-06
-5.89029e-08
1.16835e-06
-7.39224e-08
1.14011e-06
-9.36867e-08
1.11679e-06
-1.12117e-07
1.0984e-06
-1.23826e-07
1.08421e-06
-1.2451e-07
1.07288e-06
-1.11473e-07
1.06266e-06
-8.43281e-08
1.05158e-06
-4.57671e-08
1.03771e-06
-2.0537e-09
1.01951e-06
3.73502e-08
9.96239e-07
6.17779e-08
9.68301e-07
6.30971e-08
9.3724e-07
3.82701e-08
9.05266e-07
-1.25299e-08
8.74488e-07
-8.81485e-08
8.46542e-07
-1.881e-07
8.22535e-07
-3.13782e-07
8.03158e-07
-4.696e-07
7.88859e-07
-6.64362e-07
7.80046e-07
-9.13222e-07
7.77237e-07
-9.15863e-08
-1.23871e-06
-4.14571e-05
1.62555e-07
-7.98295e-08
1.19432e-06
-1.55682e-07
1.18242e-06
-2.25149e-07
1.1789e-06
-2.85868e-07
1.18252e-06
-3.35511e-07
1.1919e-06
-3.71873e-07
1.2055e-06
-3.93067e-07
1.22157e-06
-3.97841e-07
1.23815e-06
-3.85985e-07
1.25321e-06
-3.58749e-07
1.2647e-06
-3.19131e-07
1.27085e-06
-2.71816e-07
1.27045e-06
-2.22594e-07
1.26305e-06
-1.77216e-07
1.24916e-06
-1.40055e-07
1.23013e-06
-1.13252e-07
1.20779e-06
-9.67608e-08
1.18405e-06
-8.89091e-08
1.1605e-06
-8.7076e-08
1.13828e-06
-8.8279e-08
1.11799e-06
-8.96333e-08
1.09976e-06
-8.8713e-08
1.08329e-06
-8.38526e-08
1.06802e-06
-7.44077e-08
1.05322e-06
-6.09546e-08
1.03813e-06
-4.53697e-08
1.02213e-06
-3.06996e-08
1.00484e-06
-2.07452e-08
9.86284e-07
-1.93718e-08
9.66928e-07
-2.97553e-08
9.47623e-07
-5.39998e-08
9.2951e-07
-9.33819e-08
9.1387e-07
-1.48903e-07
9.02064e-07
-2.21931e-07
8.95562e-07
-3.14857e-07
8.96083e-07
-4.31825e-07
9.05828e-07
-5.79614e-07
9.27834e-07
-7.68575e-07
9.66198e-07
-5.28496e-08
-1.95444e-06
-4.16361e-05
1.26112e-07
-6.0255e-08
1.25457e-06
-1.17265e-07
1.23943e-06
-1.69064e-07
1.23069e-06
-2.13864e-07
1.22732e-06
-2.50088e-07
1.22813e-06
-2.76443e-07
1.23186e-06
-2.92044e-07
1.23717e-06
-2.96576e-07
1.24268e-06
-2.90443e-07
1.24707e-06
-2.74881e-07
1.24913e-06
-2.51952e-07
1.24792e-06
-2.24372e-07
1.24287e-06
-1.95151e-07
1.23383e-06
-1.6711e-07
1.22112e-06
-1.4241e-07
1.20543e-06
-1.22267e-07
1.18765e-06
-1.0693e-07
1.16871e-06
-9.58671e-08
1.14944e-06
-8.80301e-08
1.13044e-06
-8.21451e-08
1.11211e-06
-7.69643e-08
1.09458e-06
-7.14755e-08
1.0778e-06
-6.506e-08
1.0616e-06
-5.75949e-08
1.04575e-06
-4.94887e-08
1.03003e-06
-4.1637e-08
1.01427e-06
-3.52889e-08
9.98488e-07
-3.18324e-08
9.82828e-07
-3.25319e-08
9.67627e-07
-3.82803e-08
9.53372e-07
-4.94294e-08
9.40659e-07
-6.57105e-08
9.30151e-07
-8.61825e-08
9.22536e-07
-1.0912e-07
9.18499e-07
-1.31743e-07
9.18707e-07
-1.49684e-07
9.23768e-07
-1.5601e-07
9.34161e-07
-1.39193e-07
9.49381e-07
-6.43692e-11
-2.09357e-06
-4.16563e-05
2.01299e-08
-4.53569e-08
1.29993e-06
-8.81867e-08
1.28226e-06
-1.26974e-07
1.26948e-06
-1.60417e-07
1.26076e-06
-1.87458e-07
1.25517e-06
-2.07335e-07
1.25173e-06
-2.1964e-07
1.24947e-06
-2.24387e-07
1.24743e-06
-2.22046e-07
1.24473e-06
-2.13549e-07
1.24064e-06
-2.00224e-07
1.2346e-06
-1.83662e-07
1.2263e-06
-1.65524e-07
1.21569e-06
-1.47324e-07
1.20292e-06
-1.30245e-07
1.18835e-06
-1.15028e-07
1.17243e-06
-1.01959e-07
1.15564e-06
-9.09435e-08
1.13842e-06
-8.16174e-08
1.12112e-06
-7.34839e-08
1.10397e-06
-6.60366e-08
1.08713e-06
-5.88621e-08
1.07062e-06
-5.17104e-08
1.05445e-06
-4.453e-08
1.03857e-06
-3.74615e-08
1.02296e-06
-3.07926e-08
1.0076e-06
-2.48754e-08
9.92571e-07
-2.0018e-08
9.77971e-07
-1.63627e-08
9.63972e-07
-1.37684e-08
9.50777e-07
-1.17069e-08
9.38598e-07
-9.17163e-09
9.27616e-07
-4.5842e-09
9.17948e-07
4.31894e-09
9.09596e-07
2.06365e-08
9.0239e-07
4.84931e-08
8.95912e-07
9.32579e-08
8.89396e-07
1.61874e-07
8.80766e-07
1.21528e-08
-1.94385e-06
-4.1626e-05
-1.81336e-08
-3.41599e-08
1.33409e-06
-6.64047e-08
1.3145e-06
-9.56039e-08
1.29868e-06
-1.20822e-07
1.28598e-06
-1.41343e-07
1.27569e-06
-1.56701e-07
1.26709e-06
-1.667e-07
1.25947e-06
-1.71436e-07
1.25217e-06
-1.71289e-07
1.24459e-06
-1.66899e-07
1.23625e-06
-1.59107e-07
1.22681e-06
-1.48868e-07
1.21606e-06
-1.37146e-07
1.20397e-06
-1.24818e-07
1.19059e-06
-1.12583e-07
1.17612e-06
-1.00923e-07
1.16077e-06
-9.00946e-08
1.14481e-06
-8.01577e-08
1.12848e-06
-7.10281e-08
1.11199e-06
-6.25376e-08
1.09548e-06
-5.44918e-08
1.07908e-06
-4.67161e-08
1.06285e-06
-3.90856e-08
1.04682e-06
-3.15355e-08
1.03102e-06
-2.40519e-08
1.01547e-06
-1.66443e-08
1.0002e-06
-9.30477e-09
9.85231e-07
-1.95938e-09
9.70625e-07
5.58181e-09
9.5643e-07
1.36684e-08
9.42691e-07
2.28414e-08
9.29425e-07
3.38494e-08
9.16608e-07
4.76442e-08
9.04154e-07
6.53497e-08
8.91891e-07
8.81911e-08
8.79548e-07
1.17362e-07
8.66741e-07
1.53793e-07
8.52965e-07
1.97863e-07
8.36695e-07
5.0588e-09
-1.75104e-06
-4.15842e-05
-3.67309e-08
-2.57759e-08
1.35986e-06
-5.01215e-08
1.33885e-06
-7.22062e-08
1.32077e-06
-9.1359e-08
1.30513e-06
-1.07086e-07
1.29142e-06
-1.19084e-07
1.27909e-06
-1.27248e-07
1.26764e-06
-1.31668e-07
1.25659e-06
-1.32615e-07
1.24553e-06
-1.30512e-07
1.23414e-06
-1.2589e-07
1.22219e-06
-1.19337e-07
1.20951e-06
-1.11439e-07
1.19607e-06
-1.02731e-07
1.18188e-06
-9.36533e-08
1.16704e-06
-8.45332e-08
1.15165e-06
-7.55792e-08
1.13586e-06
-6.68937e-08
1.1198e-06
-5.84962e-08
1.10359e-06
-5.03497e-08
1.08734e-06
-4.23873e-08
1.07112e-06
-3.45327e-08
1.05499e-06
-2.67134e-08
1.039e-06
-1.88641e-08
1.02317e-06
-1.09232e-08
1.00753e-06
-2.82076e-09
9.92094e-07
5.53636e-09
9.76874e-07
1.42805e-08
9.61881e-07
2.35962e-08
9.47115e-07
3.37261e-08
9.32561e-07
4.49673e-08
9.18183e-07
5.76541e-08
9.03921e-07
7.2125e-08
8.89683e-07
8.86712e-08
8.75344e-07
1.07463e-07
8.60756e-07
1.28454e-07
8.4575e-07
1.5126e-07
8.30159e-07
1.75113e-07
8.12842e-07
-1.0508e-09
-1.57488e-06
-4.15408e-05
-4.44752e-08
-1.94829e-08
1.37935e-06
-3.79041e-08
1.35727e-06
-5.46563e-08
1.33752e-06
-6.92554e-08
1.31973e-06
-8.13518e-08
1.30351e-06
-9.07363e-08
1.28847e-06
-9.73402e-08
1.27424e-06
-1.01227e-07
1.26047e-06
-1.02576e-07
1.24688e-06
-1.01663e-07
1.23323e-06
-9.88239e-08
1.21935e-06
-9.44295e-08
1.20512e-06
-8.88485e-08
1.19049e-06
-8.2421e-08
1.17546e-06
-7.54368e-08
1.16005e-06
-6.81237e-08
1.14434e-06
-6.06444e-08
1.12838e-06
-5.31011e-08
1.11225e-06
-4.55455e-08
1.09603e-06
-3.79909e-08
1.07978e-06
-3.04241e-08
1.06355e-06
-2.28156e-08
1.04739e-06
-1.51258e-08
1.03131e-06
-7.30835e-09
1.01536e-06
6.90305e-10
9.99534e-07
8.93282e-09
9.83852e-07
1.7494e-08
9.68313e-07
2.64628e-08
9.52912e-07
3.59411e-08
9.37636e-07
4.60396e-08
9.22462e-07
5.68671e-08
9.07356e-07
6.85156e-08
8.92273e-07
8.10393e-08
8.77159e-07
9.44297e-08
8.61954e-07
1.08589e-07
8.46596e-07
1.23309e-07
8.31031e-07
1.38252e-07
8.15216e-07
1.5304e-07
7.98053e-07
-2.93386e-09
-1.41891e-06
-4.14968e-05
-4.68988e-08
-1.4729e-08
1.39408e-06
-2.86704e-08
1.37121e-06
-4.13794e-08
1.35023e-06
-5.25029e-08
1.33085e-06
-6.17871e-08
1.3128e-06
-6.90797e-08
1.29577e-06
-7.43272e-08
1.27949e-06
-7.75666e-08
1.26371e-06
-7.89122e-08
1.24823e-06
-7.85394e-08
1.23286e-06
-7.66644e-08
1.21747e-06
-7.35245e-08
1.20198e-06
-6.9358e-08
1.18632e-06
-6.43886e-08
1.17049e-06
-5.88125e-08
1.15448e-06
-5.27914e-08
1.13832e-06
-4.64501e-08
1.12204e-06
-3.98776e-08
1.10568e-06
-3.31314e-08
1.08929e-06
-2.62431e-08
1.07289e-06
-1.92242e-08
1.05653e-06
-1.20713e-08
1.04023e-06
-4.77049e-09
1.02401e-06
2.70046e-09
1.00789e-06
1.03697e-08
9.91865e-07
1.82701e-08
9.75951e-07
2.64382e-08
9.60145e-07
3.49114e-08
9.44439e-07
4.3725e-08
9.28823e-07
5.29072e-08
9.1328e-07
6.24722e-08
8.97791e-07
7.24123e-08
8.82333e-07
8.26899e-08
8.66881e-07
9.32295e-08
8.51414e-07
1.03913e-07
8.35913e-07
1.14576e-07
8.20368e-07
1.25016e-07
8.04776e-07
1.35074e-07
7.87995e-07
-3.87561e-09
-1.27996e-06
-4.14522e-05
-4.84583e-08
-1.11061e-08
1.40518e-06
-2.16268e-08
1.38173e-06
-3.12338e-08
1.35983e-06
-3.96664e-08
1.33929e-06
-4.67359e-08
1.31987e-06
-5.23268e-08
1.30136e-06
-5.63931e-08
1.28355e-06
-5.89515e-08
1.26627e-06
-6.0072e-08
1.24935e-06
-5.98657e-08
1.23265e-06
-5.84719e-08
1.21608e-06
-5.60452e-08
1.19955e-06
-5.27432e-08
1.18302e-06
-4.87167e-08
1.16646e-06
-4.41018e-08
1.14986e-06
-3.90154e-08
1.13323e-06
-3.3553e-08
1.11658e-06
-2.77887e-08
1.09992e-06
-2.17771e-08
1.08328e-06
-1.55555e-08
1.06667e-06
-9.14735e-09
1.05013e-06
-2.56529e-09
1.03365e-06
4.18635e-09
1.01726e-06
1.11089e-08
1.00096e-06
1.82075e-08
9.84766e-07
2.54888e-08
9.6867e-07
3.29589e-08
9.52675e-07
4.06212e-08
9.36777e-07
4.84736e-08
9.2097e-07
5.65055e-08
9.05248e-07
6.46947e-08
8.89602e-07
7.30042e-08
8.74023e-07
8.13804e-08
8.58505e-07
8.97514e-08
8.43043e-07
9.80279e-08
8.27637e-07
1.06105e-07
8.1229e-07
1.13869e-07
7.97012e-07
1.2127e-07
7.80595e-07
-4.3388e-09
-1.15435e-06
-4.14074e-05
-4.91865e-08
-8.31814e-09
1.4135e-06
-1.61997e-08
1.38961e-06
-2.34e-08
1.36703e-06
-2.97238e-08
1.34561e-06
-3.50282e-08
1.32517e-06
-3.92227e-08
1.30555e-06
-4.22663e-08
1.2866e-06
-4.41625e-08
1.26817e-06
-4.49521e-08
1.25014e-06
-4.47049e-08
1.2324e-06
-4.35112e-08
1.21488e-06
-4.14731e-08
1.19751e-06
-3.86968e-08
1.18024e-06
-3.52864e-08
1.16305e-06
-3.13384e-08
1.14592e-06
-2.69389e-08
1.12883e-06
-2.21616e-08
1.1118e-06
-1.70676e-08
1.09482e-06
-1.17057e-08
1.07791e-06
-6.11394e-09
1.06108e-06
-3.21291e-10
1.04433e-06
5.6507e-09
1.02768e-06
1.17859e-08
1.01113e-06
1.8072e-08
9.94678e-07
2.44986e-08
9.7834e-07
3.10557e-08
9.62113e-07
3.77318e-08
9.45999e-07
4.45129e-08
9.29996e-07
5.13805e-08
9.14103e-07
5.83101e-08
8.98319e-07
6.52705e-08
8.82642e-07
7.22226e-08
8.67071e-07
7.91196e-08
8.51608e-07
8.59072e-08
8.36256e-07
9.25249e-08
8.21019e-07
9.89084e-08
8.05906e-07
1.04992e-07
7.90929e-07
1.10779e-07
7.74807e-07
-4.47074e-09
-1.0391e-06
-4.13625e-05
-4.93495e-08
-6.1514e-09
1.41965e-06
-1.19763e-08
1.39544e-06
-1.72903e-08
1.37235e-06
-2.1945e-08
1.35026e-06
-2.58302e-08
1.32905e-06
-2.88738e-08
1.30859e-06
-3.10393e-08
1.28876e-06
-3.23218e-08
1.26945e-06
-3.27438e-08
1.25056e-06
-3.23486e-08
1.23201e-06
-3.11952e-08
1.21373e-06
-2.93519e-08
1.19567e-06
-2.68919e-08
1.17778e-06
-2.38882e-08
1.16005e-06
-2.04109e-08
1.14244e-06
-1.65245e-08
1.12494e-06
-1.22869e-08
1.10756e-06
-7.74808e-09
1.09028e-06
-2.95119e-09
1.07312e-06
2.06758e-09
1.05606e-06
7.27777e-09
1.03912e-06
1.26537e-08
1.0223e-06
1.81732e-08
1.00561e-06
2.38164e-08
9.89034e-07
2.9565e-08
9.72591e-07
3.54004e-08
9.56278e-07
4.13035e-08
9.40095e-07
4.72533e-08
9.24046e-07
5.32266e-08
9.0813e-07
5.91969e-08
8.92348e-07
6.51347e-08
8.76704e-07
7.1007e-08
8.61199e-07
7.67784e-08
8.45837e-07
8.24108e-08
8.30623e-07
8.78655e-08
8.15565e-07
9.31038e-08
8.00668e-07
9.8089e-08
7.85943e-07
1.02852e-07
7.70044e-07
-4.36926e-09
-9.31876e-07
-4.13178e-05
-4.91089e-08
-4.45182e-09
1.4241e-06
-8.65928e-09
1.39964e-06
-1.24815e-08
1.37617e-06
-1.58042e-08
1.35359e-06
-1.85414e-08
1.33179e-06
-2.06346e-08
1.31069e-06
-2.20515e-08
1.29018e-06
-2.27831e-08
1.27018e-06
-2.28402e-08
1.25062e-06
-2.22494e-08
1.23142e-06
-2.10495e-08
1.21253e-06
-1.92869e-08
1.19391e-06
-1.70129e-08
1.17551e-06
-1.428e-08
1.15731e-06
-1.11402e-08
1.1393e-06
-7.64269e-09
1.12145e-06
-3.83332e-09
1.10375e-06
2.46347e-10
1.0862e-06
4.559e-09
1.0688e-06
9.07142e-09
1.05155e-06
1.3754e-08
1.03444e-06
1.85801e-08
1.01748e-06
2.35256e-08
1.00066e-06
2.85679e-08
9.83992e-07
3.36855e-08
9.67474e-07
3.88571e-08
9.51106e-07
4.40615e-08
9.34891e-07
4.92767e-08
9.18831e-07
5.448e-08
9.02926e-07
5.96476e-08
8.87181e-07
6.47548e-08
8.71597e-07
6.97761e-08
8.56177e-07
7.46857e-08
8.40927e-07
7.9458e-08
8.25851e-07
8.40686e-08
8.10954e-07
8.84944e-08
7.96242e-07
9.27155e-08
7.81722e-07
9.67781e-08
7.65982e-07
-4.10866e-09
-8.30989e-07
-4.12733e-05
-4.85463e-08
-3.10766e-09
1.42721e-06
-6.03277e-09
1.40257e-06
-8.66634e-09
1.3788e-06
-1.09193e-08
1.35584e-06
-1.27236e-08
1.3336e-06
-1.40314e-08
1.312e-06
-1.48145e-08
1.29096e-06
-1.50619e-08
1.27043e-06
-1.47776e-08
1.25033e-06
-1.39777e-08
1.23062e-06
-1.26877e-08
1.21124e-06
-1.094e-08
1.19216e-06
-8.77095e-09
1.17334e-06
-6.21933e-09
1.15476e-06
-3.32432e-09
1.1364e-06
-1.2431e-10
1.11825e-06
3.34394e-09
1.10028e-06
7.04588e-09
1.0825e-06
1.09494e-08
1.0649e-06
1.50247e-08
1.04747e-06
1.92444e-08
1.03022e-06
2.35831e-08
1.01314e-06
2.80169e-08
9.96227e-07
3.25234e-08
9.79486e-07
3.7081e-08
9.62916e-07
4.16688e-08
9.46518e-07
4.62662e-08
9.30294e-07
5.08531e-08
9.14244e-07
5.54092e-08
8.9837e-07
5.99146e-08
8.82675e-07
6.43496e-08
8.67162e-07
6.86949e-08
8.51832e-07
7.29321e-08
8.3669e-07
7.70436e-08
8.21739e-07
8.10136e-08
8.06984e-07
8.48278e-08
7.92428e-07
8.84745e-08
7.78076e-07
9.20106e-08
7.62445e-07
-3.73836e-09
-7.3524e-07
-4.12293e-05
-4.7722e-08
-2.03724e-09
1.42925e-06
-3.93893e-09
1.40447e-06
-5.6197e-09
1.38048e-06
-7.00926e-09
1.35723e-06
-8.05301e-09
1.33464e-06
-8.7118e-09
1.31265e-06
-8.96106e-09
1.29121e-06
-8.78937e-09
1.27026e-06
-8.19676e-09
1.24974e-06
-7.19276e-09
1.22961e-06
-5.79446e-09
1.20984e-06
-4.02457e-09
1.19039e-06
-1.90975e-09
1.17123e-06
5.20964e-10
1.15233e-06
3.23736e-09
1.13369e-06
6.20905e-09
1.11527e-06
9.40616e-09
1.09709e-06
1.27998e-08
1.07911e-06
1.63626e-08
1.06134e-06
2.00682e-08
1.04377e-06
2.38921e-08
1.0264e-06
2.78108e-08
1.00922e-06
3.18024e-08
9.92235e-07
3.58459e-08
9.75442e-07
3.99211e-08
9.58841e-07
4.4009e-08
9.4243e-07
4.8091e-08
9.26212e-07
5.21494e-08
9.10185e-07
5.61671e-08
8.94352e-07
6.01278e-08
8.78715e-07
6.40162e-08
8.63273e-07
6.78177e-08
8.48031e-07
7.1519e-08
8.32989e-07
7.5108e-08
8.1815e-07
7.8574e-08
8.03518e-07
8.19072e-08
7.89095e-07
8.50988e-08
7.74884e-07
8.82198e-08
7.59324e-07
-3.23616e-09
-6.43784e-07
-4.11858e-05
-4.68018e-08
-1.18027e-09
1.43043e-06
-2.26107e-09
1.40555e-06
-3.17465e-09
1.3814e-06
-3.86486e-09
1.35792e-06
-4.28753e-09
1.33506e-06
-4.41029e-09
1.31278e-06
-4.21193e-09
1.29101e-06
-3.68142e-09
1.26973e-06
-2.81662e-09
1.24887e-06
-1.62298e-09
1.22842e-06
-1.12068e-10
1.20833e-06
1.69977e-09
1.18858e-06
3.79267e-09
1.16913e-06
6.14435e-09
1.14998e-06
8.73107e-09
1.1311e-06
1.15284e-08
1.11248e-06
1.45118e-08
1.0941e-06
1.7657e-08
1.07596e-06
2.09404e-08
1.05806e-06
2.43394e-08
1.04037e-06
2.78321e-08
1.0229e-06
3.13976e-08
1.00565e-06
3.5016e-08
9.88617e-07
3.86685e-08
9.7179e-07
4.23371e-08
9.55172e-07
4.60047e-08
9.38763e-07
4.96552e-08
9.22561e-07
5.32733e-08
9.06567e-07
5.68449e-08
8.90781e-07
6.03568e-08
8.75203e-07
6.37969e-08
8.59833e-07
6.71545e-08
8.44673e-07
7.04203e-08
8.29723e-07
7.35868e-08
8.14984e-07
7.66485e-08
8.00456e-07
7.96023e-08
7.86141e-07
8.24482e-08
7.72038e-07
8.52523e-08
7.5652e-07
-2.55525e-09
-5.55976e-07
-4.11423e-05
-4.59746e-08
-4.91828e-10
1.43092e-06
-9.12074e-10
1.40597e-06
-1.20628e-09
1.38169e-06
-1.32902e-09
1.35804e-06
-1.24418e-09
1.33498e-06
-9.248e-10
1.31246e-06
-3.52629e-10
1.29044e-06
4.82613e-10
1.26889e-06
1.58412e-09
1.24777e-06
2.94901e-09
1.22706e-06
4.56932e-09
1.20671e-06
6.43303e-09
1.18671e-06
8.52498e-09
1.16704e-06
1.08277e-08
1.14768e-06
1.33223e-08
1.12861e-06
1.59886e-08
1.10981e-06
1.88064e-08
1.09128e-06
2.1755e-08
1.07302e-06
2.48143e-08
1.055e-06
2.79645e-08
1.03722e-06
3.11862e-08
1.01968e-06
3.44612e-08
1.00238e-06
3.77717e-08
9.85306e-07
4.1101e-08
9.6846e-07
4.44331e-08
9.5184e-07
4.7753e-08
9.35443e-07
5.10467e-08
9.19267e-07
5.43012e-08
9.03313e-07
5.75044e-08
8.87578e-07
6.06453e-08
8.72062e-07
6.37139e-08
8.56764e-07
6.67016e-08
8.41685e-07
6.96008e-08
8.26824e-07
7.24052e-08
8.12179e-07
7.51102e-08
7.97751e-07
7.77127e-08
7.83539e-07
8.02114e-08
7.6954e-07
8.26848e-08
7.54047e-07
-1.81038e-09
-4.71481e-07
-4.10991e-05
-4.5069e-08
6.18539e-11
1.43086e-06
1.73621e-10
1.40586e-06
3.79696e-10
1.38149e-06
7.17316e-10
1.3577e-06
1.21638e-09
1.33448e-06
1.89953e-09
1.31177e-06
2.78254e-09
1.28956e-06
3.87479e-09
1.2678e-06
5.17996e-09
1.24647e-06
6.69675e-09
1.22554e-06
8.41961e-09
1.20499e-06
1.03395e-08
1.18479e-06
1.24447e-08
1.16494e-06
1.47211e-08
1.1454e-06
1.71534e-08
1.12617e-06
1.97248e-08
1.10724e-06
2.24181e-08
1.08859e-06
2.52158e-08
1.07022e-06
2.81004e-08
1.05211e-06
3.10544e-08
1.03427e-06
3.4061e-08
1.01668e-06
3.71036e-08
9.99336e-07
4.01667e-08
9.82243e-07
4.32352e-08
9.65392e-07
4.62951e-08
9.4878e-07
4.93331e-08
9.32405e-07
5.23369e-08
9.16264e-07
5.52953e-08
9.00354e-07
5.81978e-08
8.84675e-07
6.10351e-08
8.69225e-07
6.37985e-08
8.54001e-07
6.64802e-08
8.39004e-07
6.9073e-08
8.24231e-07
7.15702e-08
8.09682e-07
7.39655e-08
7.95356e-07
7.62533e-08
7.81251e-07
7.84289e-08
7.67364e-07
8.05546e-08
7.51921e-07
-1.07864e-09
-3.89848e-07
-4.10562e-05
-4.39972e-08
5.06293e-10
1.43035e-06
1.04564e-09
1.40532e-06
1.65481e-09
1.38088e-06
2.36479e-09
1.35699e-06
3.20067e-09
1.33364e-06
4.18175e-09
1.31079e-06
5.32175e-09
1.28842e-06
6.62921e-09
1.26649e-06
8.10802e-09
1.24499e-06
9.75788e-09
1.22389e-06
1.15749e-08
1.20317e-06
1.35523e-08
1.18282e-06
1.56806e-08
1.16281e-06
1.79485e-08
1.14313e-06
2.03431e-08
1.12378e-06
2.28504e-08
1.10473e-06
2.54555e-08
1.08599e-06
2.81431e-08
1.06753e-06
3.08979e-08
1.04936e-06
3.37043e-08
1.03146e-06
3.65472e-08
1.01383e-06
3.94117e-08
9.96472e-07
4.22836e-08
9.79371e-07
4.51493e-08
9.62526e-07
4.79961e-08
9.45933e-07
5.08123e-08
9.29589e-07
5.35869e-08
9.13489e-07
5.63101e-08
8.97631e-07
5.89732e-08
8.82012e-07
6.15683e-08
8.66629e-07
6.40885e-08
8.51481e-07
6.65273e-08
8.36565e-07
6.88787e-08
8.2188e-07
7.11357e-08
8.07425e-07
7.32897e-08
7.93202e-07
7.5328e-08
7.79213e-07
7.72297e-08
7.65462e-07
7.9035e-08
7.50116e-07
5.54352e-11
-3.10868e-07
-4.10125e-05
-4.36564e-08
8.60823e-10
1.42949e-06
1.74163e-09
1.40444e-06
2.67341e-09
1.37995e-06
3.68242e-09
1.35599e-06
4.79011e-09
1.33254e-06
6.01317e-09
1.30957e-06
7.36374e-09
1.28707e-06
8.8497e-09
1.26501e-06
1.0475e-08
1.24336e-06
1.22402e-08
1.22212e-06
1.41425e-08
1.20127e-06
1.61768e-08
1.18078e-06
1.83356e-08
1.16065e-06
2.06094e-08
1.14086e-06
2.29874e-08
1.1214e-06
2.54576e-08
1.10226e-06
2.80069e-08
1.08344e-06
3.06219e-08
1.06491e-06
3.32886e-08
1.04669e-06
3.59928e-08
1.02876e-06
3.87207e-08
1.01111e-06
4.14583e-08
9.93734e-07
4.41924e-08
9.76637e-07
4.69101e-08
9.59809e-07
4.95995e-08
9.43244e-07
5.22495e-08
9.26939e-07
5.48503e-08
9.10888e-07
5.73931e-08
8.95088e-07
5.98706e-08
8.79535e-07
6.2277e-08
8.64223e-07
6.46081e-08
8.4915e-07
6.68617e-08
8.34311e-07
6.90377e-08
8.19704e-07
7.11389e-08
8.05324e-07
7.31721e-08
7.91169e-07
7.51504e-08
7.77234e-07
7.70967e-08
7.63516e-07
7.90935e-08
7.48119e-07
2.8497e-09
-2.34625e-07
-4.09684e-05
-4.12269e-08
1.14006e-09
1.42835e-06
2.29006e-09
1.40329e-06
3.47666e-09
1.37876e-06
4.72257e-09
1.35474e-06
6.0465e-09
1.33121e-06
7.46323e-09
1.30815e-06
8.98375e-09
1.28555e-06
1.06155e-08
1.26337e-06
1.23625e-08
1.24162e-06
1.4226e-08
1.22026e-06
1.62044e-08
1.19929e-06
1.82938e-08
1.17869e-06
2.04882e-08
1.15846e-06
2.27798e-08
1.13857e-06
2.51595e-08
1.11902e-06
2.76168e-08
1.09981e-06
3.01402e-08
1.08091e-06
3.27174e-08
1.06234e-06
3.53357e-08
1.04407e-06
3.79817e-08
1.02611e-06
4.0642e-08
1.00845e-06
4.33033e-08
9.91073e-07
4.59522e-08
9.73988e-07
4.85759e-08
9.57185e-07
5.11624e-08
9.40657e-07
5.37002e-08
9.24401e-07
5.61793e-08
9.08409e-07
5.85908e-08
8.92677e-07
6.09272e-08
8.77198e-07
6.31832e-08
8.61967e-07
6.53548e-08
8.46978e-07
6.74404e-08
8.32226e-07
6.94402e-08
8.17704e-07
7.13562e-08
8.03408e-07
7.31919e-08
7.89333e-07
7.49516e-08
7.75475e-07
7.6639e-08
7.61829e-07
7.82776e-08
7.4648e-07
4.24608e-09
-1.60593e-07
-4.09255e-05
-3.86723e-08
1.35499e-09
1.427e-06
2.71232e-09
1.40193e-06
4.09545e-09
1.37738e-06
5.52448e-09
1.35331e-06
7.01615e-09
1.32972e-06
8.58389e-09
1.30659e-06
1.02379e-08
1.28389e-06
1.19855e-08
1.26163e-06
1.3831e-08
1.23977e-06
1.57762e-08
1.21832e-06
1.78207e-08
1.19725e-06
1.99617e-08
1.17655e-06
2.21947e-08
1.15622e-06
2.45136e-08
1.13625e-06
2.69106e-08
1.11662e-06
2.93766e-08
1.09734e-06
3.19016e-08
1.07839e-06
3.44743e-08
1.05976e-06
3.70828e-08
1.04146e-06
3.97141e-08
1.02348e-06
4.23552e-08
1.0058e-06
4.49921e-08
9.88436e-07
4.76112e-08
9.71369e-07
5.01985e-08
9.54597e-07
5.27405e-08
9.38115e-07
5.52242e-08
9.21917e-07
5.76377e-08
9.05996e-07
5.997e-08
8.90344e-07
6.22121e-08
8.74956e-07
6.43568e-08
8.59822e-07
6.63989e-08
8.44936e-07
6.83357e-08
8.30289e-07
7.01672e-08
8.15872e-07
7.18954e-08
8.0168e-07
7.35245e-08
7.87704e-07
7.50604e-08
7.73939e-07
7.65101e-08
7.60379e-07
7.78578e-08
7.45133e-07
5.90715e-09
-8.86425e-08
-4.08835e-05
-3.60828e-08
1.51375e-09
1.42548e-06
3.02426e-09
1.40042e-06
4.55265e-09
1.37585e-06
6.11714e-09
1.35175e-06
7.73311e-09
1.3281e-06
9.4131e-09
1.30491e-06
1.1167e-08
1.28214e-06
1.3002e-08
1.25979e-06
1.4923e-08
1.23785e-06
1.69327e-08
1.21631e-06
1.90317e-08
1.19515e-06
2.12187e-08
1.17436e-06
2.34906e-08
1.15395e-06
2.58429e-08
1.1339e-06
2.82695e-08
1.1142e-06
3.07628e-08
1.09485e-06
3.33142e-08
1.07584e-06
3.59137e-08
1.05717e-06
3.855e-08
1.03883e-06
4.12109e-08
1.02082e-06
4.3883e-08
1.00313e-06
4.65521e-08
9.85767e-07
4.92029e-08
9.68718e-07
5.18198e-08
9.51981e-07
5.43864e-08
9.35549e-07
5.68865e-08
9.19417e-07
5.93041e-08
9.03578e-07
6.16242e-08
8.88024e-07
6.38331e-08
8.72747e-07
6.59192e-08
8.57736e-07
6.78736e-08
8.42982e-07
6.96907e-08
8.28472e-07
7.13687e-08
8.14195e-07
7.29097e-08
8.00139e-07
7.43197e-08
7.86294e-07
7.56085e-08
7.7265e-07
7.67885e-08
7.59199e-07
7.78135e-08
7.44108e-07
7.698e-09
-1.8527e-08
-4.08423e-05
-3.34529e-08
1.62233e-09
1.42386e-06
3.23749e-09
1.39881e-06
4.86489e-09
1.37422e-06
6.52148e-09
1.35009e-06
8.2217e-09
1.3264e-06
9.97759e-09
1.30315e-06
1.17989e-08
1.28032e-06
1.36933e-08
1.2579e-06
1.56663e-08
1.23588e-06
1.77215e-08
1.21425e-06
1.98608e-08
1.19301e-06
2.20846e-08
1.17214e-06
2.43915e-08
1.15164e-06
2.67788e-08
1.13151e-06
2.92424e-08
1.11173e-06
3.17768e-08
1.09231e-06
3.43751e-08
1.07324e-06
3.7029e-08
1.05451e-06
3.97288e-08
1.03613e-06
4.24631e-08
1.01808e-06
4.5219e-08
1.00038e-06
4.79819e-08
9.83004e-07
5.07353e-08
9.65965e-07
5.3461e-08
9.49255e-07
5.61393e-08
9.32871e-07
5.87488e-08
9.16807e-07
6.12672e-08
9.0106e-07
6.36718e-08
8.8562e-07
6.59402e-08
8.70479e-07
6.80517e-08
8.55625e-07
6.99883e-08
8.41045e-07
7.17364e-08
8.26724e-07
7.3288e-08
8.12643e-07
7.46423e-08
7.98785e-07
7.58065e-08
7.8513e-07
7.67956e-08
7.71661e-07
7.76322e-08
7.58362e-07
7.82467e-08
7.43493e-07
9.62401e-09
5.00957e-08
-4.08019e-05
-3.0777e-08
1.68506e-09
1.42217e-06
3.36036e-09
1.39713e-06
5.04411e-09
1.37254e-06
6.75232e-09
1.34838e-06
8.49884e-09
1.32466e-06
1.02955e-08
1.30135e-06
1.21522e-08
1.27846e-06
1.40771e-08
1.25597e-06
1.60765e-08
1.23388e-06
1.81553e-08
1.21217e-06
2.03168e-08
1.19085e-06
2.25632e-08
1.16989e-06
2.48952e-08
1.14931e-06
2.73124e-08
1.12909e-06
2.98131e-08
1.10923e-06
3.23945e-08
1.08973e-06
3.50525e-08
1.07058e-06
3.77814e-08
1.05178e-06
4.05741e-08
1.03333e-06
4.34217e-08
1.01524e-06
4.6313e-08
9.97485e-07
4.92346e-08
9.80083e-07
5.217e-08
9.63029e-07
5.50997e-08
9.46325e-07
5.80007e-08
9.2997e-07
6.08461e-08
9.13962e-07
6.36052e-08
8.98301e-07
6.62438e-08
8.82981e-07
6.87253e-08
8.67997e-07
7.10112e-08
8.53339e-07
7.3064e-08
8.38992e-07
7.48499e-08
8.24938e-07
7.63424e-08
8.1115e-07
7.75261e-08
7.97601e-07
7.84015e-08
7.84254e-07
7.89873e-08
7.71075e-07
7.93216e-08
7.58028e-07
7.93212e-08
7.43494e-07
1.16461e-08
1.17771e-07
-4.07622e-05
-2.80265e-08
1.70512e-09
1.42047e-06
3.39899e-09
1.39544e-06
5.09888e-09
1.37084e-06
6.82013e-09
1.34666e-06
8.57619e-09
1.3229e-06
1.03788e-08
1.29955e-06
1.22382e-08
1.2766e-06
1.4163e-08
1.25405e-06
1.61605e-08
1.23188e-06
1.82369e-08
1.2101e-06
2.03972e-08
1.18869e-06
2.26454e-08
1.16765e-06
2.49846e-08
1.14697e-06
2.74171e-08
1.12666e-06
2.99443e-08
1.10671e-06
3.25668e-08
1.08711e-06
3.52843e-08
1.06786e-06
3.80952e-08
1.04897e-06
4.09969e-08
1.03043e-06
4.39851e-08
1.01225e-06
4.70532e-08
9.94417e-07
5.01921e-08
9.76944e-07
5.33892e-08
9.59832e-07
5.66276e-08
9.43087e-07
5.98848e-08
9.26712e-07
6.31315e-08
9.10715e-07
6.63306e-08
8.95102e-07
6.94355e-08
8.79876e-07
7.23901e-08
8.65043e-07
7.51281e-08
8.50601e-07
7.75754e-08
8.36545e-07
7.96528e-08
8.2286e-07
8.1283e-08
8.0952e-07
8.24003e-08
7.96484e-07
8.29635e-08
7.83691e-07
8.29706e-08
7.71068e-07
8.24725e-08
7.58526e-07
8.1395e-08
7.44571e-07
1.36888e-08
1.85477e-07
-4.07234e-05
-2.51413e-08
1.68495e-09
1.41878e-06
3.35803e-09
1.39376e-06
5.0357e-09
1.36916e-06
6.73269e-09
1.34496e-06
8.46215e-09
1.32117e-06
1.02358e-08
1.29778e-06
1.2064e-08