/*--------------------------------*- C++ -*----------------------------------*\
  =========                 |
  \\      /  F ield         | OpenFOAM: The Open Source CFD Toolbox
   \\    /   O peration     | Website:  https://openfoam.org
    \\  /    A nd           | Version:  10
     \\/     M anipulation  |
\*---------------------------------------------------------------------------*/
FoamFile
{
    format      ascii;
    class       volVectorField;
    location    "8600";
    object      Ua;
}
// * * * * * * * * * * * * * * * * * * * * * * * * * * * * * * * * * * * * * //

dimensions      [0 1 -1 0 0 0 0];

internalField   nonuniform List<vector> 
6400
(
(-2.37447e-07 4.82657e-08 0)
(-7.13393e-07 4.84793e-08 0)
(-1.19251e-06 4.891e-08 0)
(-1.67697e-06 4.95652e-08 0)
(-2.16903e-06 5.04562e-08 0)
(-2.6711e-06 5.15987e-08 0)
(-3.18575e-06 5.30134e-08 0)
(-3.71579e-06 5.47269e-08 0)
(-4.26432e-06 5.67729e-08 0)
(-4.83482e-06 5.91932e-08 0)
(-5.43124e-06 6.20404e-08 0)
(-6.0581e-06 6.53801e-08 0)
(-6.72064e-06 6.92945e-08 0)
(-7.42504e-06 7.38871e-08 0)
(-8.17861e-06 7.92896e-08 0)
(-8.99014e-06 8.5671e-08 0)
(-9.87036e-06 9.32501e-08 0)
(-1.08325e-05 1.02315e-07 0)
(-1.1893e-05 1.1325e-07 0)
(-1.30728e-05 1.26577e-07 0)
(-1.43991e-05 1.4302e-07 0)
(-1.59076e-05 1.63607e-07 0)
(-1.76464e-05 1.89839e-07 0)
(-1.96822e-05 2.23981e-07 0)
(-2.21104e-05 2.6959e-07 0)
(-2.50725e-05 3.3252e-07 0)
(-2.87891e-05 4.22955e-07 0)
(-3.36228e-05 5.59571e-07 0)
(-4.01909e-05 7.75518e-07 0)
(-4.92231e-05 1.06045e-06 0)
(-5.01307e-05 -8.75684e-07 0)
(-2.3634e-05 1.99181e-05 0)
(-1.07743e-06 4.18749e-06 0)
(-5.66411e-07 1.66383e-06 0)
(-3.5862e-07 1.01524e-06 0)
(-2.51518e-07 7.3456e-07 0)
(-1.81244e-07 5.83073e-07 0)
(-1.26639e-07 4.97805e-07 0)
(-7.52637e-08 4.54693e-07 0)
(-2.46438e-08 4.23534e-07 0)
(2.46438e-08 4.23534e-07 0)
(7.52637e-08 4.54693e-07 0)
(1.26639e-07 4.97805e-07 0)
(1.81244e-07 5.83073e-07 0)
(2.51518e-07 7.3456e-07 0)
(3.5862e-07 1.01524e-06 0)
(5.66411e-07 1.66383e-06 0)
(1.07743e-06 4.18749e-06 0)
(2.3634e-05 1.99181e-05 0)
(5.01307e-05 -8.75684e-07 0)
(4.92231e-05 1.06045e-06 0)
(4.01909e-05 7.75518e-07 0)
(3.36228e-05 5.59571e-07 0)
(2.87891e-05 4.22955e-07 0)
(2.50725e-05 3.3252e-07 0)
(2.21104e-05 2.6959e-07 0)
(1.96822e-05 2.23981e-07 0)
(1.76464e-05 1.89839e-07 0)
(1.59076e-05 1.63607e-07 0)
(1.43991e-05 1.4302e-07 0)
(1.30728e-05 1.26577e-07 0)
(1.1893e-05 1.1325e-07 0)
(1.08325e-05 1.02315e-07 0)
(9.87036e-06 9.32501e-08 0)
(8.99014e-06 8.5671e-08 0)
(8.17861e-06 7.92896e-08 0)
(7.42504e-06 7.38871e-08 0)
(6.72064e-06 6.92945e-08 0)
(6.0581e-06 6.53801e-08 0)
(5.43124e-06 6.20404e-08 0)
(4.83482e-06 5.91932e-08 0)
(4.26432e-06 5.67729e-08 0)
(3.71579e-06 5.47269e-08 0)
(3.18575e-06 5.30134e-08 0)
(2.6711e-06 5.15987e-08 0)
(2.16903e-06 5.04562e-08 0)
(1.67697e-06 4.95652e-08 0)
(1.19251e-06 4.891e-08 0)
(7.13393e-07 4.84793e-08 0)
(2.37447e-07 4.82657e-08 0)
(-2.37402e-07 1.4946e-07 0)
(-7.13256e-07 1.50122e-07 0)
(-1.19228e-06 1.51455e-07 0)
(-1.67664e-06 1.53484e-07 0)
(-2.1686e-06 1.56242e-07 0)
(-2.67055e-06 1.59779e-07 0)
(-3.18508e-06 1.64159e-07 0)
(-3.71498e-06 1.69464e-07 0)
(-4.26337e-06 1.75798e-07 0)
(-4.8337e-06 1.83291e-07 0)
(-5.42992e-06 1.92105e-07 0)
(-6.05655e-06 2.02444e-07 0)
(-6.71883e-06 2.14561e-07 0)
(-7.42291e-06 2.28777e-07 0)
(-8.17609e-06 2.455e-07 0)
(-8.98717e-06 2.65251e-07 0)
(-9.86681e-06 2.88709e-07 0)
(-1.08282e-05 3.16763e-07 0)
(-1.18878e-05 3.50601e-07 0)
(-1.30665e-05 3.91839e-07 0)
(-1.43912e-05 4.42711e-07 0)
(-1.58976e-05 5.06395e-07 0)
(-1.76335e-05 5.87523e-07 0)
(-1.96652e-05 6.93085e-07 0)
(-2.20873e-05 8.34049e-07 0)
(-2.50398e-05 1.02845e-06 0)
(-2.87408e-05 1.30762e-06 0)
(-3.35476e-05 1.72913e-06 0)
(-4.00841e-05 2.39837e-06 0)
(-4.9575e-05 3.38956e-06 0)
(-7.15476e-05 1.87879e-06 0)
(-6.86114e-05 3.49347e-05 0)
(-2.6303e-05 7.51487e-05 0)
(-2.20036e-06 4.33191e-06 0)
(-9.62729e-07 1.89408e-06 0)
(-6.29686e-07 1.25366e-06 0)
(-4.53337e-07 9.69412e-07 0)
(-3.23313e-07 8.19838e-07 0)
(-1.94967e-07 7.45018e-07 0)
(-6.42649e-08 6.95918e-07 0)
(6.42649e-08 6.95918e-07 0)
(1.94967e-07 7.45018e-07 0)
(3.23313e-07 8.19838e-07 0)
(4.53337e-07 9.69412e-07 0)
(6.29686e-07 1.25366e-06 0)
(9.62729e-07 1.89408e-06 0)
(2.20036e-06 4.33191e-06 0)
(2.6303e-05 7.51487e-05 0)
(6.86114e-05 3.49347e-05 0)
(7.15476e-05 1.87879e-06 0)
(4.9575e-05 3.38956e-06 0)
(4.00841e-05 2.39837e-06 0)
(3.35476e-05 1.72913e-06 0)
(2.87408e-05 1.30762e-06 0)
(2.50398e-05 1.02845e-06 0)
(2.20873e-05 8.34049e-07 0)
(1.96652e-05 6.93085e-07 0)
(1.76335e-05 5.87523e-07 0)
(1.58976e-05 5.06395e-07 0)
(1.43912e-05 4.42711e-07 0)
(1.30665e-05 3.91839e-07 0)
(1.18878e-05 3.50601e-07 0)
(1.08282e-05 3.16763e-07 0)
(9.86681e-06 2.88709e-07 0)
(8.98717e-06 2.65251e-07 0)
(8.17609e-06 2.455e-07 0)
(7.42291e-06 2.28777e-07 0)
(6.71883e-06 2.14561e-07 0)
(6.05655e-06 2.02444e-07 0)
(5.42992e-06 1.92105e-07 0)
(4.8337e-06 1.83291e-07 0)
(4.26337e-06 1.75798e-07 0)
(3.71498e-06 1.69464e-07 0)
(3.18508e-06 1.64159e-07 0)
(2.67055e-06 1.59779e-07 0)
(2.1686e-06 1.56242e-07 0)
(1.67664e-06 1.53484e-07 0)
(1.19228e-06 1.51455e-07 0)
(7.13256e-07 1.50122e-07 0)
(2.37402e-07 1.4946e-07 0)
(-2.37297e-07 2.60417e-07 0)
(-7.1294e-07 2.61569e-07 0)
(-1.19174e-06 2.63892e-07 0)
(-1.67588e-06 2.67425e-07 0)
(-2.1676e-06 2.72229e-07 0)
(-2.6693e-06 2.78389e-07 0)
(-3.18355e-06 2.86016e-07 0)
(-3.71314e-06 2.95255e-07 0)
(-4.26118e-06 3.06285e-07 0)
(-4.83112e-06 3.19333e-07 0)
(-5.42689e-06 3.34681e-07 0)
(-6.053e-06 3.52682e-07 0)
(-6.71466e-06 3.73779e-07 0)
(-7.41801e-06 3.98529e-07 0)
(-8.17032e-06 4.27639e-07 0)
(-8.98033e-06 4.62019e-07 0)
(-9.85866e-06 5.02844e-07 0)
(-1.08184e-05 5.51662e-07 0)
(-1.18759e-05 6.10535e-07 0)
(-1.30519e-05 6.82264e-07 0)
(-1.43731e-05 7.70728e-07 0)
(-1.58747e-05 8.8143e-07 0)
(-1.7604e-05 1.02239e-06 0)
(-1.96262e-05 1.2057e-06 0)
(-2.20342e-05 1.45028e-06 0)
(-2.4965e-05 1.78718e-06 0)
(-2.86301e-05 2.27026e-06 0)
(-3.33751e-05 2.99853e-06 0)
(-3.98131e-05 4.16061e-06 0)
(-4.93105e-05 6.06578e-06 0)
(-6.8464e-05 8.78513e-06 0)
(-9.94697e-05 3.56951e-05 0)
(-8.79518e-05 0.000129993 0)
(-3.23885e-05 5.72172e-05 0)
(-3.83968e-06 6.59476e-06 0)
(-1.38012e-06 2.83339e-06 0)
(-8.96512e-07 1.94465e-06 0)
(-6.42851e-07 1.59196e-06 0)
(-3.91863e-07 1.43655e-06 0)
(-1.29358e-07 1.35117e-06 0)
(1.29358e-07 1.35117e-06 0)
(3.91863e-07 1.43655e-06 0)
(6.42851e-07 1.59196e-06 0)
(8.96512e-07 1.94465e-06 0)
(1.38012e-06 2.83339e-06 0)
(3.83968e-06 6.59476e-06 0)
(3.23885e-05 5.72172e-05 0)
(8.79518e-05 0.000129993 0)
(9.94697e-05 3.56951e-05 0)
(6.8464e-05 8.78513e-06 0)
(4.93105e-05 6.06578e-06 0)
(3.98131e-05 4.16061e-06 0)
(3.33751e-05 2.99853e-06 0)
(2.86301e-05 2.27026e-06 0)
(2.4965e-05 1.78718e-06 0)
(2.20342e-05 1.45028e-06 0)
(1.96262e-05 1.2057e-06 0)
(1.7604e-05 1.02239e-06 0)
(1.58747e-05 8.8143e-07 0)
(1.43731e-05 7.70728e-07 0)
(1.30519e-05 6.82264e-07 0)
(1.18759e-05 6.10535e-07 0)
(1.08184e-05 5.51662e-07 0)
(9.85866e-06 5.02844e-07 0)
(8.98033e-06 4.62019e-07 0)
(8.17032e-06 4.27639e-07 0)
(7.41801e-06 3.98529e-07 0)
(6.71466e-06 3.73779e-07 0)
(6.053e-06 3.52682e-07 0)
(5.42689e-06 3.34681e-07 0)
(4.83112e-06 3.19333e-07 0)
(4.26118e-06 3.06285e-07 0)
(3.71314e-06 2.95255e-07 0)
(3.18355e-06 2.86016e-07 0)
(2.6693e-06 2.78389e-07 0)
(2.1676e-06 2.72229e-07 0)
(1.67588e-06 2.67425e-07 0)
(1.19174e-06 2.63892e-07 0)
(7.1294e-07 2.61569e-07 0)
(2.37297e-07 2.60417e-07 0)
(-2.37117e-07 3.82044e-07 0)
(-7.12396e-07 3.83732e-07 0)
(-1.19083e-06 3.87137e-07 0)
(-1.67457e-06 3.92316e-07 0)
(-2.16588e-06 3.99359e-07 0)
(-2.66714e-06 4.08388e-07 0)
(-3.1809e-06 4.19569e-07 0)
(-3.70997e-06 4.3311e-07 0)
(-4.25741e-06 4.49276e-07 0)
(-4.82667e-06 4.68399e-07 0)
(-5.42167e-06 4.90891e-07 0)
(-6.04687e-06 5.17268e-07 0)
(-6.70748e-06 5.48179e-07 0)
(-7.40957e-06 5.84436e-07 0)
(-8.16038e-06 6.27076e-07 0)
(-8.96855e-06 6.77424e-07 0)
(-9.84462e-06 7.37199e-07 0)
(-1.08015e-05 8.08659e-07 0)
(-1.18554e-05 8.9481e-07 0)
(-1.30268e-05 9.99734e-07 0)
(-1.43419e-05 1.12908e-06 0)
(-1.58353e-05 1.29083e-06 0)
(-1.75533e-05 1.49665e-06 0)
(-1.95593e-05 1.76401e-06 0)
(-2.19433e-05 2.12024e-06 0)
(-2.48369e-05 2.60999e-06 0)
(-2.84409e-05 3.31036e-06 0)
(-3.30797e-05 4.36296e-06 0)
(-3.9324e-05 6.04532e-06 0)
(-4.8415e-05 8.94188e-06 0)
(-6.42943e-05 1.48519e-05 0)
(-8.27585e-05 4.21629e-05 0)
(-7.16581e-05 0.000102414 0)
(-4.20883e-05 0.000101155 0)
(-2.24943e-05 4.66256e-05 0)
(-7.99143e-06 1.24985e-05 0)
(-2.09425e-06 4.12207e-06 0)
(-1.27015e-06 2.69829e-06 0)
(-7.59858e-07 2.33457e-06 0)
(-2.47313e-07 2.21136e-06 0)
(2.47313e-07 2.21136e-06 0)
(7.59858e-07 2.33457e-06 0)
(1.27015e-06 2.69829e-06 0)
(2.09425e-06 4.12207e-06 0)
(7.99143e-06 1.24985e-05 0)
(2.24943e-05 4.66256e-05 0)
(4.20883e-05 0.000101155 0)
(7.16581e-05 0.000102414 0)
(8.27585e-05 4.21629e-05 0)
(6.42943e-05 1.48519e-05 0)
(4.8415e-05 8.94188e-06 0)
(3.9324e-05 6.04532e-06 0)
(3.30797e-05 4.36296e-06 0)
(2.84409e-05 3.31036e-06 0)
(2.48369e-05 2.60999e-06 0)
(2.19433e-05 2.12024e-06 0)
(1.95593e-05 1.76401e-06 0)
(1.75533e-05 1.49665e-06 0)
(1.58353e-05 1.29083e-06 0)
(1.43419e-05 1.12908e-06 0)
(1.30268e-05 9.99734e-07 0)
(1.18554e-05 8.9481e-07 0)
(1.08015e-05 8.08659e-07 0)
(9.84462e-06 7.37199e-07 0)
(8.96855e-06 6.77424e-07 0)
(8.16038e-06 6.27076e-07 0)
(7.40957e-06 5.84436e-07 0)
(6.70748e-06 5.48179e-07 0)
(6.04687e-06 5.17268e-07 0)
(5.42167e-06 4.90891e-07 0)
(4.82667e-06 4.68399e-07 0)
(4.25741e-06 4.49276e-07 0)
(3.70997e-06 4.3311e-07 0)
(3.1809e-06 4.19569e-07 0)
(2.66714e-06 4.08388e-07 0)
(2.16588e-06 3.99359e-07 0)
(1.67457e-06 3.92316e-07 0)
(1.19083e-06 3.87137e-07 0)
(7.12396e-07 3.83732e-07 0)
(2.37117e-07 3.82044e-07 0)
(-2.3684e-07 5.15317e-07 0)
(-7.11561e-07 5.17592e-07 0)
(-1.18942e-06 5.22179e-07 0)
(-1.67257e-06 5.29157e-07 0)
(-2.16325e-06 5.38645e-07 0)
(-2.66383e-06 5.5081e-07 0)
(-3.17685e-06 5.65871e-07 0)
(-3.7051e-06 5.84112e-07 0)
(-4.25162e-06 6.05886e-07 0)
(-4.81985e-06 6.31639e-07 0)
(-5.41366e-06 6.61927e-07 0)
(-6.03748e-06 6.97442e-07 0)
(-6.69647e-06 7.39053e-07 0)
(-7.39664e-06 7.87854e-07 0)
(-8.14514e-06 8.45231e-07 0)
(-8.95051e-06 9.12961e-07 0)
(-9.82312e-06 9.93348e-07 0)
(-1.07757e-05 1.08941e-06 0)
(-1.18242e-05 1.20517e-06 0)
(-1.29884e-05 1.34607e-06 0)
(-1.42943e-05 1.51963e-06 0)
(-1.57752e-05 1.73649e-06 0)
(-1.74759e-05 2.01209e-06 0)
(-1.94574e-05 2.36955e-06 0)
(-2.18052e-05 2.84481e-06 0)
(-2.46427e-05 3.49629e-06 0)
(-2.81554e-05 4.42411e-06 0)
(-3.26346e-05 5.81111e-06 0)
(-3.85728e-05 8.01891e-06 0)
(-4.69208e-05 1.18625e-05 0)
(-5.95259e-05 1.98986e-05 0)
(-6.99493e-05 4.51349e-05 0)
(-6.13282e-05 8.33219e-05 0)
(-3.95325e-05 8.79755e-05 0)
(-2.38934e-05 7.93837e-05 0)
(-2.12319e-05 4.16742e-05 0)
(-1.40042e-05 2.00089e-05 0)
(-3.22922e-06 4.92496e-06 0)
(-1.61745e-06 3.52852e-06 0)
(-4.97916e-07 3.3864e-06 0)
(4.97916e-07 3.3864e-06 0)
(1.61745e-06 3.52852e-06 0)
(3.22922e-06 4.92496e-06 0)
(1.40042e-05 2.00089e-05 0)
(2.12319e-05 4.16742e-05 0)
(2.38934e-05 7.93837e-05 0)
(3.95325e-05 8.79755e-05 0)
(6.13282e-05 8.33219e-05 0)
(6.99493e-05 4.51349e-05 0)
(5.95259e-05 1.98986e-05 0)
(4.69208e-05 1.18625e-05 0)
(3.85728e-05 8.01891e-06 0)
(3.26346e-05 5.81111e-06 0)
(2.81554e-05 4.42411e-06 0)
(2.46427e-05 3.49629e-06 0)
(2.18052e-05 2.84481e-06 0)
(1.94574e-05 2.36955e-06 0)
(1.74759e-05 2.01209e-06 0)
(1.57752e-05 1.73649e-06 0)
(1.42943e-05 1.51963e-06 0)
(1.29884e-05 1.34607e-06 0)
(1.18242e-05 1.20517e-06 0)
(1.07757e-05 1.08941e-06 0)
(9.82312e-06 9.93348e-07 0)
(8.95051e-06 9.12961e-07 0)
(8.14514e-06 8.45231e-07 0)
(7.39664e-06 7.87854e-07 0)
(6.69647e-06 7.39053e-07 0)
(6.03748e-06 6.97442e-07 0)
(5.41366e-06 6.61927e-07 0)
(4.81985e-06 6.31639e-07 0)
(4.25162e-06 6.05886e-07 0)
(3.7051e-06 5.84112e-07 0)
(3.17685e-06 5.65871e-07 0)
(2.66383e-06 5.5081e-07 0)
(2.16325e-06 5.38645e-07 0)
(1.67257e-06 5.29157e-07 0)
(1.18942e-06 5.22179e-07 0)
(7.11561e-07 5.17592e-07 0)
(2.3684e-07 5.15317e-07 0)
(-2.36442e-07 6.61284e-07 0)
(-7.1036e-07 6.64199e-07 0)
(-1.1874e-06 6.70076e-07 0)
(-1.66969e-06 6.79016e-07 0)
(-2.15946e-06 6.91171e-07 0)
(-2.65906e-06 7.06754e-07 0)
(-3.17103e-06 7.26046e-07 0)
(-3.6981e-06 7.49408e-07 0)
(-4.24331e-06 7.77292e-07 0)
(-4.81005e-06 8.10267e-07 0)
(-5.40215e-06 8.49042e-07 0)
(-6.024e-06 8.94499e-07 0)
(-6.68066e-06 9.47747e-07 0)
(-7.37808e-06 1.01018e-06 0)
(-8.12326e-06 1.08355e-06 0)
(-8.92461e-06 1.17014e-06 0)
(-9.79228e-06 1.27285e-06 0)
(-1.07387e-05 1.39553e-06 0)
(-1.17793e-05 1.54326e-06 0)
(-1.29335e-05 1.72292e-06 0)
(-1.42261e-05 1.94401e-06 0)
(-1.56892e-05 2.21989e-06 0)
(-1.73655e-05 2.5699e-06 0)
(-1.93123e-05 3.02286e-06 0)
(-2.16092e-05 3.6233e-06 0)
(-2.43686e-05 4.44295e-06 0)
(-2.77546e-05 5.60341e-06 0)
(-3.20141e-05 7.32392e-06 0)
(-3.75303e-05 1.0033e-05 0)
(-4.48956e-05 1.46808e-05 0)
(-5.44938e-05 2.38855e-05 0)
(-5.99073e-05 4.59612e-05 0)
(-5.31211e-05 7.08296e-05 0)
(-3.9485e-05 7.61411e-05 0)
(-2.87573e-05 7.30779e-05 0)
(-2.76782e-05 6.43072e-05 0)
(-2.3437e-05 4.7757e-05 0)
(-1.09614e-05 1.27026e-05 0)
(-3.88817e-06 4.94461e-06 0)
(-1.10044e-06 4.99763e-06 0)
(1.10044e-06 4.99763e-06 0)
(3.88817e-06 4.94461e-06 0)
(1.09614e-05 1.27026e-05 0)
(2.3437e-05 4.7757e-05 0)
(2.76782e-05 6.43072e-05 0)
(2.87573e-05 7.30779e-05 0)
(3.9485e-05 7.61411e-05 0)
(5.31211e-05 7.08296e-05 0)
(5.99073e-05 4.59612e-05 0)
(5.44938e-05 2.38855e-05 0)
(4.48956e-05 1.46808e-05 0)
(3.75303e-05 1.0033e-05 0)
(3.20141e-05 7.32392e-06 0)
(2.77546e-05 5.60341e-06 0)
(2.43686e-05 4.44295e-06 0)
(2.16092e-05 3.6233e-06 0)
(1.93123e-05 3.02286e-06 0)
(1.73655e-05 2.5699e-06 0)
(1.56892e-05 2.21989e-06 0)
(1.42261e-05 1.94401e-06 0)
(1.29335e-05 1.72292e-06 0)
(1.17793e-05 1.54326e-06 0)
(1.07387e-05 1.39553e-06 0)
(9.79228e-06 1.27285e-06 0)
(8.92461e-06 1.17014e-06 0)
(8.12326e-06 1.08355e-06 0)
(7.37808e-06 1.01018e-06 0)
(6.68066e-06 9.47747e-07 0)
(6.024e-06 8.94499e-07 0)
(5.40215e-06 8.49042e-07 0)
(4.81005e-06 8.10267e-07 0)
(4.24331e-06 7.77292e-07 0)
(3.6981e-06 7.49408e-07 0)
(3.17103e-06 7.26046e-07 0)
(2.65906e-06 7.06754e-07 0)
(2.15946e-06 6.91171e-07 0)
(1.66969e-06 6.79016e-07 0)
(1.1874e-06 6.70076e-07 0)
(7.1036e-07 6.64199e-07 0)
(2.36442e-07 6.61284e-07 0)
(-2.35893e-07 8.21062e-07 0)
(-7.08703e-07 8.24673e-07 0)
(-1.1846e-06 8.31954e-07 0)
(-1.66571e-06 8.43029e-07 0)
(-2.15423e-06 8.58085e-07 0)
(-2.65249e-06 8.77387e-07 0)
(-3.16299e-06 9.01279e-07 0)
(-3.68844e-06 9.30207e-07 0)
(-4.23184e-06 9.6473e-07 0)
(-4.79653e-06 1.00555e-06 0)
(-5.38628e-06 1.05353e-06 0)
(-6.0054e-06 1.10977e-06 0)
(-6.65887e-06 1.17563e-06 0)
(-7.3525e-06 1.25281e-06 0)
(-8.09314e-06 1.34349e-06 0)
(-8.88897e-06 1.45043e-06 0)
(-9.74986e-06 1.57721e-06 0)
(-1.06878e-05 1.72851e-06 0)
(-1.17177e-05 1.91054e-06 0)
(-1.28582e-05 2.13167e-06 0)
(-1.41327e-05 2.40341e-06 0)
(-1.55717e-05 2.74188e-06 0)
(-1.72149e-05 3.17032e-06 0)
(-1.91151e-05 3.72311e-06 0)
(-2.13437e-05 4.45291e-06 0)
(-2.39994e-05 5.44358e-06 0)
(-2.72196e-05 6.83502e-06 0)
(-3.11962e-05 8.87407e-06 0)
(-3.6185e-05 1.20283e-05 0)
(-4.24307e-05 1.72724e-05 0)
(-4.94313e-05 2.68686e-05 0)
(-5.18052e-05 4.5565e-05 0)
(-4.64316e-05 6.2515e-05 0)
(-3.78258e-05 6.77031e-05 0)
(-3.05951e-05 6.79697e-05 0)
(-2.72565e-05 6.59735e-05 0)
(-2.83352e-05 6.32645e-05 0)
(-1.97527e-05 2.17511e-05 0)
(-6.83904e-06 5.88715e-06 0)
(-2.04551e-06 6.52733e-06 0)
(2.04551e-06 6.52733e-06 0)
(6.83904e-06 5.88715e-06 0)
(1.97527e-05 2.17511e-05 0)
(2.83352e-05 6.32645e-05 0)
(2.72565e-05 6.59735e-05 0)
(3.05951e-05 6.79697e-05 0)
(3.78258e-05 6.77031e-05 0)
(4.64316e-05 6.2515e-05 0)
(5.18052e-05 4.5565e-05 0)
(4.94313e-05 2.68686e-05 0)
(4.24307e-05 1.72724e-05 0)
(3.6185e-05 1.20283e-05 0)
(3.11962e-05 8.87407e-06 0)
(2.72196e-05 6.83502e-06 0)
(2.39994e-05 5.44358e-06 0)
(2.13437e-05 4.45291e-06 0)
(1.91151e-05 3.72311e-06 0)
(1.72149e-05 3.17032e-06 0)
(1.55717e-05 2.74188e-06 0)
(1.41327e-05 2.40341e-06 0)
(1.28582e-05 2.13167e-06 0)
(1.17177e-05 1.91054e-06 0)
(1.06878e-05 1.72851e-06 0)
(9.74986e-06 1.57721e-06 0)
(8.88897e-06 1.45043e-06 0)
(8.09314e-06 1.34349e-06 0)
(7.3525e-06 1.25281e-06 0)
(6.65887e-06 1.17563e-06 0)
(6.0054e-06 1.10977e-06 0)
(5.38628e-06 1.05353e-06 0)
(4.79653e-06 1.00555e-06 0)
(4.23184e-06 9.6473e-07 0)
(3.68844e-06 9.30207e-07 0)
(3.16299e-06 9.01279e-07 0)
(2.65249e-06 8.77387e-07 0)
(2.15423e-06 8.58085e-07 0)
(1.66571e-06 8.43029e-07 0)
(1.1846e-06 8.31954e-07 0)
(7.08703e-07 8.24673e-07 0)
(2.35893e-07 8.21062e-07 0)
(-2.35156e-07 9.9583e-07 0)
(-7.06479e-07 1.0002e-06 0)
(-1.18086e-06 1.009e-06 0)
(-1.66038e-06 1.02239e-06 0)
(-2.14722e-06 1.0406e-06 0)
(-2.64367e-06 1.06393e-06 0)
(-3.15221e-06 1.09281e-06 0)
(-3.67549e-06 1.12777e-06 0)
(-4.21646e-06 1.16948e-06 0)
(-4.77841e-06 1.21878e-06 0)
(-5.36501e-06 1.27673e-06 0)
(-5.98049e-06 1.34461e-06 0)
(-6.6297e-06 1.42407e-06 0)
(-7.31827e-06 1.51715e-06 0)
(-8.05286e-06 1.62643e-06 0)
(-8.84134e-06 1.75522e-06 0)
(-9.69321e-06 1.90777e-06 0)
(-1.062e-05 2.08965e-06 0)
(-1.16357e-05 2.30819e-06 0)
(-1.27579e-05 2.57328e-06 0)
(-1.40087e-05 2.89841e-06 0)
(-1.54161e-05 3.30245e-06 0)
(-1.7016e-05 3.81234e-06 0)
(-1.88555e-05 4.46764e-06 0)
(-2.09965e-05 5.32821e-06 0)
(-2.35204e-05 6.48791e-06 0)
(-2.65335e-05 8.09999e-06 0)
(-3.01663e-05 1.04266e-05 0)
(-3.45444e-05 1.39409e-05 0)
(-3.96279e-05 1.95436e-05 0)
(-4.44862e-05 2.89609e-05 0)
(-4.50465e-05 4.45303e-05 0)
(-4.07293e-05 5.67934e-05 0)
(-3.50918e-05 6.16481e-05 0)
(-3.00233e-05 6.384e-05 0)
(-2.70505e-05 6.48482e-05 0)
(-2.70697e-05 6.61957e-05 0)
(-1.84829e-05 2.28771e-05 0)
(-6.7988e-06 5.28384e-06 0)
(-2.27465e-06 6.504e-06 0)
(2.27465e-06 6.504e-06 0)
(6.7988e-06 5.28384e-06 0)
(1.84829e-05 2.28771e-05 0)
(2.70697e-05 6.61957e-05 0)
(2.70505e-05 6.48482e-05 0)
(3.00233e-05 6.384e-05 0)
(3.50918e-05 6.16481e-05 0)
(4.07293e-05 5.67934e-05 0)
(4.50465e-05 4.45303e-05 0)
(4.44862e-05 2.89609e-05 0)
(3.96279e-05 1.95436e-05 0)
(3.45444e-05 1.39409e-05 0)
(3.01663e-05 1.04266e-05 0)
(2.65335e-05 8.09999e-06 0)
(2.35204e-05 6.48791e-06 0)
(2.09965e-05 5.32821e-06 0)
(1.88555e-05 4.46764e-06 0)
(1.7016e-05 3.81234e-06 0)
(1.54161e-05 3.30245e-06 0)
(1.40087e-05 2.89841e-06 0)
(1.27579e-05 2.57328e-06 0)
(1.16357e-05 2.30819e-06 0)
(1.062e-05 2.08965e-06 0)
(9.69321e-06 1.90777e-06 0)
(8.84134e-06 1.75522e-06 0)
(8.05286e-06 1.62643e-06 0)
(7.31827e-06 1.51715e-06 0)
(6.6297e-06 1.42407e-06 0)
(5.98049e-06 1.34461e-06 0)
(5.36501e-06 1.27673e-06 0)
(4.77841e-06 1.21878e-06 0)
(4.21646e-06 1.16948e-06 0)
(3.67549e-06 1.12777e-06 0)
(3.15221e-06 1.09281e-06 0)
(2.64367e-06 1.06393e-06 0)
(2.14722e-06 1.0406e-06 0)
(1.66038e-06 1.02239e-06 0)
(1.18086e-06 1.009e-06 0)
(7.06479e-07 1.0002e-06 0)
(2.35156e-07 9.9583e-07 0)
(-2.34187e-07 1.18682e-06 0)
(-7.03558e-07 1.192e-06 0)
(-1.17593e-06 1.20246e-06 0)
(-1.65337e-06 1.21835e-06 0)
(-2.13801e-06 1.23996e-06 0)
(-2.63209e-06 1.26765e-06 0)
(-3.13805e-06 1.30191e-06 0)
(-3.65849e-06 1.34338e-06 0)
(-4.19629e-06 1.39284e-06 0)
(-4.75463e-06 1.45128e-06 0)
(-5.33713e-06 1.51994e-06 0)
(-5.94785e-06 1.60034e-06 0)
(-6.59148e-06 1.69439e-06 0)
(-7.27346e-06 1.80448e-06 0)
(-8.00015e-06 1.93364e-06 0)
(-8.77909e-06 2.08572e-06 0)
(-9.61924e-06 2.26566e-06 0)
(-1.05314e-05 2.47989e-06 0)
(-1.15289e-05 2.73691e-06 0)
(-1.26277e-05 3.04804e-06 0)
(-1.3848e-05 3.42874e-06 0)
(-1.52149e-05 3.90039e-06 0)
(-1.676e-05 4.49331e-06 0)
(-1.85233e-05 5.2515e-06 0)
(-2.05552e-05 6.24054e-06 0)
(-2.29178e-05 7.56124e-06 0)
(-2.56831e-05 9.37367e-06 0)
(-2.89189e-05 1.19408e-05 0)
(-3.26335e-05 1.57078e-05 0)
(-3.65893e-05 2.14342e-05 0)
(-3.97412e-05 3.02982e-05 0)
(-3.92131e-05 4.31857e-05 0)
(-3.56281e-05 5.26138e-05 0)
(-3.1638e-05 5.70814e-05 0)
(-2.77201e-05 6.02267e-05 0)
(-2.46123e-05 6.28878e-05 0)
(-2.24414e-05 6.62739e-05 0)
(-1.37982e-05 1.96793e-05 0)
(-4.68137e-06 3.54063e-06 0)
(-1.66405e-06 4.76645e-06 0)
(1.66405e-06 4.76645e-06 0)
(4.68137e-06 3.54063e-06 0)
(1.37982e-05 1.96793e-05 0)
(2.24414e-05 6.62739e-05 0)
(2.46123e-05 6.28878e-05 0)
(2.77201e-05 6.02267e-05 0)
(3.1638e-05 5.70814e-05 0)
(3.56281e-05 5.26138e-05 0)
(3.92131e-05 4.31857e-05 0)
(3.97412e-05 3.02982e-05 0)
(3.65893e-05 2.14342e-05 0)
(3.26335e-05 1.57078e-05 0)
(2.89189e-05 1.19408e-05 0)
(2.56831e-05 9.37367e-06 0)
(2.29178e-05 7.56124e-06 0)
(2.05552e-05 6.24054e-06 0)
(1.85233e-05 5.2515e-06 0)
(1.676e-05 4.49331e-06 0)
(1.52149e-05 3.90039e-06 0)
(1.3848e-05 3.42874e-06 0)
(1.26277e-05 3.04804e-06 0)
(1.15289e-05 2.73691e-06 0)
(1.05314e-05 2.47989e-06 0)
(9.61924e-06 2.26566e-06 0)
(8.77909e-06 2.08572e-06 0)
(8.00015e-06 1.93364e-06 0)
(7.27346e-06 1.80448e-06 0)
(6.59148e-06 1.69439e-06 0)
(5.94785e-06 1.60034e-06 0)
(5.33713e-06 1.51994e-06 0)
(4.75463e-06 1.45128e-06 0)
(4.19629e-06 1.39284e-06 0)
(3.65849e-06 1.34338e-06 0)
(3.13805e-06 1.30191e-06 0)
(2.63209e-06 1.26765e-06 0)
(2.13801e-06 1.23996e-06 0)
(1.65337e-06 1.21835e-06 0)
(1.17593e-06 1.20246e-06 0)
(7.03558e-07 1.192e-06 0)
(2.34187e-07 1.18682e-06 0)
(-2.32935e-07 1.39531e-06 0)
(-6.99782e-07 1.40137e-06 0)
(-1.16957e-06 1.4136e-06 0)
(-1.64432e-06 1.43219e-06 0)
(-2.1261e-06 1.45745e-06 0)
(-2.61714e-06 1.48983e-06 0)
(-3.11977e-06 1.52987e-06 0)
(-3.63655e-06 1.57833e-06 0)
(-4.17025e-06 1.6361e-06 0)
(-4.72397e-06 1.70433e-06 0)
(-5.30118e-06 1.78445e-06 0)
(-5.90578e-06 1.8782e-06 0)
(-6.54227e-06 1.98779e-06 0)
(-7.21581e-06 2.11597e-06 0)
(-7.93242e-06 2.2662e-06 0)
(-8.69917e-06 2.44287e-06 0)
(-9.52442e-06 2.6516e-06 0)
(-1.04182e-05 2.8997e-06 0)
(-1.13924e-05 3.19673e-06 0)
(-1.24617e-05 3.55542e-06 0)
(-1.36438e-05 3.99295e-06 0)
(-1.49603e-05 4.53295e-06 0)
(-1.64377e-05 5.20851e-06 0)
(-1.81078e-05 6.06698e-06 0)
(-2.00082e-05 7.17765e-06 0)
(-2.21802e-05 8.64436e-06 0)
(-2.4661e-05 1.06264e-05 0)
(-2.74597e-05 1.33727e-05 0)
(-3.04918e-05 1.72735e-05 0)
(-3.34093e-05 2.29152e-05 0)
(-3.52362e-05 3.10123e-05 0)
(-3.40315e-05 4.16842e-05 0)
(-3.09091e-05 4.92772e-05 0)
(-2.77802e-05 5.33079e-05 0)
(-2.44146e-05 5.67106e-05 0)
(-2.10702e-05 5.99125e-05 0)
(-1.75682e-05 6.35438e-05 0)
(-9.69158e-06 1.71292e-05 0)
(-2.88166e-06 2.02485e-06 0)
(-1.05047e-06 2.83915e-06 0)
(1.05047e-06 2.83915e-06 0)
(2.88166e-06 2.02485e-06 0)
(9.69158e-06 1.71292e-05 0)
(1.75682e-05 6.35438e-05 0)
(2.10702e-05 5.99125e-05 0)
(2.44146e-05 5.67106e-05 0)
(2.77802e-05 5.33079e-05 0)
(3.09091e-05 4.92772e-05 0)
(3.40315e-05 4.16842e-05 0)
(3.52362e-05 3.10123e-05 0)
(3.34093e-05 2.29152e-05 0)
(3.04918e-05 1.72735e-05 0)
(2.74597e-05 1.33727e-05 0)
(2.4661e-05 1.06264e-05 0)
(2.21802e-05 8.64436e-06 0)
(2.00082e-05 7.17765e-06 0)
(1.81078e-05 6.06698e-06 0)
(1.64377e-05 5.20851e-06 0)
(1.49603e-05 4.53295e-06 0)
(1.36438e-05 3.99295e-06 0)
(1.24617e-05 3.55542e-06 0)
(1.13924e-05 3.19673e-06 0)
(1.04182e-05 2.8997e-06 0)
(9.52442e-06 2.6516e-06 0)
(8.69917e-06 2.44287e-06 0)
(7.93242e-06 2.2662e-06 0)
(7.21581e-06 2.11597e-06 0)
(6.54227e-06 1.98779e-06 0)
(5.90578e-06 1.8782e-06 0)
(5.30118e-06 1.78445e-06 0)
(4.72397e-06 1.70433e-06 0)
(4.17025e-06 1.6361e-06 0)
(3.63655e-06 1.57833e-06 0)
(3.11977e-06 1.52987e-06 0)
(2.61714e-06 1.48983e-06 0)
(2.1261e-06 1.45745e-06 0)
(1.64432e-06 1.43219e-06 0)
(1.16957e-06 1.4136e-06 0)
(6.99782e-07 1.40137e-06 0)
(2.32935e-07 1.39531e-06 0)
(-2.3134e-07 1.62258e-06 0)
(-6.94969e-07 1.62959e-06 0)
(-1.16146e-06 1.64371e-06 0)
(-1.63277e-06 1.66518e-06 0)
(-2.11094e-06 1.69436e-06 0)
(-2.59808e-06 1.73174e-06 0)
(-3.09649e-06 1.77797e-06 0)
(-3.60861e-06 1.83387e-06 0)
(-4.13711e-06 1.9005e-06 0)
(-4.68497e-06 1.97914e-06 0)
(-5.25548e-06 2.07141e-06 0)
(-5.85236e-06 2.17931e-06 0)
(-6.47983e-06 2.30532e-06 0)
(-7.14274e-06 2.45253e-06 0)
(-7.84667e-06 2.62485e-06 0)
(-8.59813e-06 2.82718e-06 0)
(-9.40476e-06 3.06582e-06 0)
(-1.02755e-05 3.34886e-06 0)
(-1.1221e-05 3.68684e-06 0)
(-1.22539e-05 4.09372e-06 0)
(-1.33892e-05 4.58814e-06 0)
(-1.46444e-05 5.19548e-06 0)
(-1.60401e-05 5.95078e-06 0)
(-1.75994e-05 6.9033e-06 0)
(-1.93462e-05 8.12353e-06 0)
(-2.13007e-05 9.71388e-06 0)
(-2.34671e-05 1.1825e-05 0)
(-2.58058e-05 1.46789e-05 0)
(-2.81689e-05 1.85937e-05 0)
(-3.01707e-05 2.39827e-05 0)
(-3.09881e-05 3.12166e-05 0)
(-2.93426e-05 4.00744e-05 0)
(-2.64975e-05 4.63397e-05 0)
(-2.38229e-05 4.98754e-05 0)
(-2.07646e-05 5.30822e-05 0)
(-1.73738e-05 5.6119e-05 0)
(-1.34707e-05 5.91804e-05 0)
(-6.79129e-06 1.51981e-05 0)
(-1.77156e-06 1.11306e-06 0)
(-6.55668e-07 1.54756e-06 0)
(6.55668e-07 1.54756e-06 0)
(1.77156e-06 1.11306e-06 0)
(6.79129e-06 1.51981e-05 0)
(1.34707e-05 5.91804e-05 0)
(1.73738e-05 5.6119e-05 0)
(2.07646e-05 5.30822e-05 0)
(2.38229e-05 4.98754e-05 0)
(2.64975e-05 4.63397e-05 0)
(2.93426e-05 4.00744e-05 0)
(3.09881e-05 3.12166e-05 0)
(3.01707e-05 2.39827e-05 0)
(2.81689e-05 1.85937e-05 0)
(2.58058e-05 1.46789e-05 0)
(2.34671e-05 1.1825e-05 0)
(2.13007e-05 9.71388e-06 0)
(1.93462e-05 8.12353e-06 0)
(1.75994e-05 6.9033e-06 0)
(1.60401e-05 5.95078e-06 0)
(1.46444e-05 5.19548e-06 0)
(1.33892e-05 4.58814e-06 0)
(1.22539e-05 4.09372e-06 0)
(1.1221e-05 3.68684e-06 0)
(1.02755e-05 3.34886e-06 0)
(9.40476e-06 3.06582e-06 0)
(8.59813e-06 2.82718e-06 0)
(7.84667e-06 2.62485e-06 0)
(7.14274e-06 2.45253e-06 0)
(6.47983e-06 2.30532e-06 0)
(5.85236e-06 2.17931e-06 0)
(5.25548e-06 2.07141e-06 0)
(4.68497e-06 1.97914e-06 0)
(4.13711e-06 1.9005e-06 0)
(3.60861e-06 1.83387e-06 0)
(3.09649e-06 1.77797e-06 0)
(2.59808e-06 1.73174e-06 0)
(2.11094e-06 1.69436e-06 0)
(1.63277e-06 1.66518e-06 0)
(1.16146e-06 1.64371e-06 0)
(6.94969e-07 1.62959e-06 0)
(2.3134e-07 1.62258e-06 0)
(-2.29328e-07 1.86991e-06 0)
(-6.88901e-07 1.87792e-06 0)
(-1.15124e-06 1.89406e-06 0)
(-1.61823e-06 1.9186e-06 0)
(-2.09183e-06 1.95194e-06 0)
(-2.57409e-06 1.99462e-06 0)
(-3.06718e-06 2.04739e-06 0)
(-3.57345e-06 2.11118e-06 0)
(-4.09545e-06 2.18715e-06 0)
(-4.63597e-06 2.27676e-06 0)
(-5.19811e-06 2.38181e-06 0)
(-5.78535e-06 2.50454e-06 0)
(-6.4016e-06 2.64769e-06 0)
(-7.0513e-06 2.81471e-06 0)
(-7.73953e-06 3.00988e-06 0)
(-8.47214e-06 3.23863e-06 0)
(-9.25587e-06 3.50782e-06 0)
(-1.00985e-05 3.82625e-06 0)
(-1.1009e-05 4.20529e-06 0)
(-1.19979e-05 4.65985e-06 0)
(-1.30768e-05 5.20965e-06 0)
(-1.42592e-05 5.88115e-06 0)
(-1.55591e-05 6.71028e-06 0)
(-1.69902e-05 7.74651e-06 0)
(-1.8563e-05 9.05864e-06 0)
(-2.02777e-05 1.07431e-05 0)
(-2.21103e-05 1.2935e-05 0)
(-2.3985e-05 1.58199e-05 0)
(-2.57205e-05 1.9638e-05 0)
(-2.69443e-05 2.46512e-05 0)
(-2.70062e-05 3.10016e-05 0)
(-2.50703e-05 3.8359e-05 0)
(-2.24058e-05 4.35525e-05 0)
(-2.00166e-05 4.65601e-05 0)
(-1.72242e-05 4.93432e-05 0)
(-1.40317e-05 5.19148e-05 0)
(-1.03601e-05 5.42568e-05 0)
(-4.89938e-06 1.35116e-05 0)
(-1.1361e-06 6.20836e-07 0)
(-4.31076e-07 8.23263e-07 0)
(4.31076e-07 8.23263e-07 0)
(1.1361e-06 6.20836e-07 0)
(4.89938e-06 1.35116e-05 0)
(1.03601e-05 5.42568e-05 0)
(1.40317e-05 5.19148e-05 0)
(1.72242e-05 4.93432e-05 0)
(2.00166e-05 4.65601e-05 0)
(2.24058e-05 4.35525e-05 0)
(2.50703e-05 3.8359e-05 0)
(2.70062e-05 3.10016e-05 0)
(2.69443e-05 2.46512e-05 0)
(2.57205e-05 1.9638e-05 0)
(2.3985e-05 1.58199e-05 0)
(2.21103e-05 1.2935e-05 0)
(2.02777e-05 1.07431e-05 0)
(1.8563e-05 9.05864e-06 0)
(1.69902e-05 7.74651e-06 0)
(1.55591e-05 6.71028e-06 0)
(1.42592e-05 5.88115e-06 0)
(1.30768e-05 5.20965e-06 0)
(1.19979e-05 4.65985e-06 0)
(1.1009e-05 4.20529e-06 0)
(1.00985e-05 3.82625e-06 0)
(9.25587e-06 3.50782e-06 0)
(8.47214e-06 3.23863e-06 0)
(7.73953e-06 3.00988e-06 0)
(7.0513e-06 2.81471e-06 0)
(6.4016e-06 2.64769e-06 0)
(5.78535e-06 2.50454e-06 0)
(5.19811e-06 2.38181e-06 0)
(4.63597e-06 2.27676e-06 0)
(4.09545e-06 2.18715e-06 0)
(3.57345e-06 2.11118e-06 0)
(3.06718e-06 2.04739e-06 0)
(2.57409e-06 1.99462e-06 0)
(2.09183e-06 1.95194e-06 0)
(1.61823e-06 1.9186e-06 0)
(1.15124e-06 1.89406e-06 0)
(6.88901e-07 1.87792e-06 0)
(2.29328e-07 1.86991e-06 0)
(-2.26818e-07 2.13851e-06 0)
(-6.81331e-07 2.14758e-06 0)
(-1.13849e-06 2.16585e-06 0)
(-1.6001e-06 2.19361e-06 0)
(-2.06801e-06 2.23132e-06 0)
(-2.54418e-06 2.27959e-06 0)
(-3.03068e-06 2.33922e-06 0)
(-3.52969e-06 2.41126e-06 0)
(-4.04362e-06 2.497e-06 0)
(-4.57506e-06 2.59804e-06 0)
(-5.12688e-06 2.71637e-06 0)
(-5.70225e-06 2.85443e-06 0)
(-6.30472e-06 3.01524e-06 0)
(-6.93826e-06 3.20254e-06 0)
(-7.60735e-06 3.42099e-06 0)
(-8.31705e-06 3.67642e-06 0)
(-9.07307e-06 3.97619e-06 0)
(-9.88185e-06 4.32964e-06 0)
(-1.07506e-05 4.74875e-06 0)
(-1.16872e-05 5.24904e-06 0)
(-1.27001e-05 5.85078e-06 0)
(-1.37978e-05 6.5807e-06 0)
(-1.4988e-05 7.4744e-06 0)
(-1.62752e-05 8.57961e-06 0)
(-1.76571e-05 9.96062e-06 0)
(-1.91165e-05 1.17038e-05 0)
(-2.06083e-05 1.39232e-05 0)
(-2.2034e-05 1.67636e-05 0)
(-2.32044e-05 2.03905e-05 0)
(-2.379e-05 2.4947e-05 0)
(-2.32998e-05 3.04385e-05 0)
(-2.11872e-05 3.65327e-05 0)
(-1.86725e-05 4.0807e-05 0)
(-1.65174e-05 4.32978e-05 0)
(-1.40111e-05 4.56009e-05 0)
(-1.11652e-05 4.76759e-05 0)
(-7.98115e-06 4.94483e-05 0)
(-3.62003e-06 1.1954e-05 0)
(-7.78872e-07 3.71042e-07 0)
(-3.10997e-07 4.50545e-07 0)
(3.10997e-07 4.50545e-07 0)
(7.78872e-07 3.71042e-07 0)
(3.62003e-06 1.1954e-05 0)
(7.98115e-06 4.94483e-05 0)
(1.11652e-05 4.76759e-05 0)
(1.40111e-05 4.56009e-05 0)
(1.65174e-05 4.32978e-05 0)
(1.86725e-05 4.0807e-05 0)
(2.11872e-05 3.65327e-05 0)
(2.32998e-05 3.04385e-05 0)
(2.379e-05 2.4947e-05 0)
(2.32044e-05 2.03905e-05 0)
(2.2034e-05 1.67636e-05 0)
(2.06083e-05 1.39232e-05 0)
(1.91165e-05 1.17038e-05 0)
(1.76571e-05 9.96062e-06 0)
(1.62752e-05 8.57961e-06 0)
(1.4988e-05 7.4744e-06 0)
(1.37978e-05 6.5807e-06 0)
(1.27001e-05 5.85078e-06 0)
(1.16872e-05 5.24904e-06 0)
(1.07506e-05 4.74875e-06 0)
(9.88185e-06 4.32964e-06 0)
(9.07307e-06 3.97619e-06 0)
(8.31705e-06 3.67642e-06 0)
(7.60735e-06 3.42099e-06 0)
(6.93826e-06 3.20254e-06 0)
(6.30472e-06 3.01524e-06 0)
(5.70225e-06 2.85443e-06 0)
(5.12688e-06 2.71637e-06 0)
(4.57506e-06 2.59804e-06 0)
(4.04362e-06 2.497e-06 0)
(3.52969e-06 2.41126e-06 0)
(3.03068e-06 2.33922e-06 0)
(2.54418e-06 2.27959e-06 0)
(2.06801e-06 2.23132e-06 0)
(1.6001e-06 2.19361e-06 0)