/*--------------------------------*- C++ -*----------------------------------*\
  =========                 |
  \\      /  F ield         | OpenFOAM: The Open Source CFD Toolbox
   \\    /   O peration     | Website:  https://openfoam.org
    \\  /    A nd           | Version:  10
     \\/     M anipulation  |
\*---------------------------------------------------------------------------*/
FoamFile
{
    format      ascii;
    class       volScalarField;
    location    "0.062";
    object      p;
}
// * * * * * * * * * * * * * * * * * * * * * * * * * * * * * * * * * * * * * //

dimensions      [0 2 -2 0 0 0 0];

internalField   nonuniform List<scalar> 
4000
(
20.5638
20.5633
20.5621
20.56
20.5572
20.5536
20.5493
20.5442
20.5383
20.5316
20.5243
20.516
20.5071
20.4973
20.4869
20.4755
20.4634
20.4504
20.4366
20.4218
20.4062
20.3896
20.3721
20.3535
20.334
20.3134
20.2918
20.2689
20.245
20.2198
20.1934
20.1656
20.1365
20.1059
20.0739
20.0402
20.0049
19.9679
19.9291
19.8883
19.8457
19.8009
19.7541
19.7048
19.6534
19.5992
19.5427
19.4832
19.4211
19.3559
19.2877
19.2161
19.1413
19.0627
18.9808
18.8947
18.8049
18.7106
18.6123
18.5093
18.4019
18.2894
18.1723
18.0497
17.9222
17.7891
17.6507
17.5064
17.3567
17.201
17.0397
16.8723
16.6994
16.5204
16.3361
16.1459
15.9507
15.7499
15.5447
15.3345
15.1205
14.9022
14.681
14.4565
14.2301
14.0015
13.772
13.5414
13.3111
13.0808
12.8521
12.6245
12.3996
12.1768
11.9576
11.7415
11.5298
11.322
11.1194
10.9211
10.7286
10.5409
10.3592
10.1826
10.0122
9.84708
9.68823
9.53457
9.38714
9.24478
9.10848
8.97703
8.85141
8.73035
8.61481
8.5035
8.39738
8.29512
8.19768
8.10372
8.01421
7.92778
7.84543
7.76577
7.68983
7.61618
7.54589
7.4775
7.41214
7.34829
7.28715
7.22713
7.16951
7.11264
7.05788
7.0035
6.95098
6.89847
6.84759
6.79637
6.74661
6.69616
6.64702
6.5969
6.54798
6.49779
6.44875
6.39818
6.34874
6.29749
6.2474
6.19521
6.14422
6.0908
6.03861
5.9836
5.92983
5.87273
5.81684
5.75698
5.69827
5.63477
5.57232
5.50411
5.4368
5.3626
5.28916
5.20755
5.1266
5.03611
4.94626
4.84549
4.74547
4.63318
4.52197
4.39727
4.27419
4.13662
4.00149
3.85113
3.70427
3.54174
3.38401
3.21049
3.04317
2.86018
2.68482
2.49403
2.31219
2.11523
1.9284
1.72681
1.53635
1.3315
1.13876
0.931913
0.737904
0.532316
0.328668
0.0991903
20.5667
20.5662
20.565
20.5629
20.5601
20.5565
20.5523
20.5472
20.5413
20.5347
20.5273
20.5191
20.5102
20.5005
20.4901
20.4788
20.4667
20.4538
20.44
20.4253
20.4098
20.3933
20.3759
20.3575
20.3381
20.3176
20.2962
20.2735
20.2497
20.2247
20.1985
20.1709
20.142
20.1116
20.0798
20.0464
20.0114
19.9746
19.9362
19.8957
19.8534
19.8089
19.7624
19.7135
19.6624
19.6087
19.5525
19.4935
19.4318
19.367
19.2992
19.2281
19.1537
19.0756
18.9941
18.9085
18.8191
18.7253
18.6274
18.5248
18.4177
18.3056
18.1887
18.0665
17.9392
17.8062
17.6678
17.5235
17.3737
17.2177
17.0561
16.8882
16.7147
16.5349
16.3497
16.1584
15.9619
15.7597
15.5529
15.341
15.1251
14.9049
14.6816
14.455
14.2263
13.9955
13.7637
13.5309
13.2985
13.0662
12.8355
12.6061
12.3794
12.1551
11.9345
11.7172
11.5045
11.2959
11.0925
10.8938
10.7008
10.513
10.3312
10.1547
9.98449
9.8197
9.66117
9.50804
9.36109
9.2194
9.0837
8.95305
8.82812
8.70795
8.59319
8.48284
8.37755
8.27629
8.17971
8.08676
7.99811
7.91268
7.83117
7.75247
7.67732
7.60458
7.53502
7.4675
7.4028
7.33976
7.27922
7.21996
7.1629
7.10674
7.05249
6.99879
6.94673
6.89487
6.8444
6.79379
6.74436
6.69448
6.64562
6.59601
6.5473
6.49758
6.44869
6.39856
6.34922
6.29843
6.24843
6.19674
6.14587
6.09305
6.04107
5.98681
5.93335
5.87719
5.82178
5.76309
5.70501
5.64292
5.58124
5.51465
5.4482
5.37578
5.30321
5.22347
5.14327
5.05464
4.96531
4.86625
4.76637
4.65554
4.54396
4.42037
4.29633
4.15945
4.02271
3.87262
3.72354
3.5609
3.40043
3.22654
3.05614
2.87272
2.69413
2.50302
2.31803
2.12103
1.93129
1.73008
1.53708
1.33309
1.13819
0.932659
0.736863
0.532425
0.329247
0.098854
20.5726
20.5721
20.5709
20.5688
20.566
20.5625
20.5582
20.5532
20.5474
20.5408
20.5334
20.5253
20.5165
20.5068
20.4965
20.4853
20.4733
20.4605
20.4469
20.4324
20.4171
20.4008
20.3836
20.3654
20.3463
20.3261
20.3049
20.2825
20.2591
20.2344
20.2086
20.1814
20.153
20.123
20.0917
20.0588
20.0244
19.9881
19.9502
19.9104
19.8687
19.8249
19.7791
19.7309
19.6806
19.6276
19.5722
19.514
19.4532
19.3892
19.3223
19.252
19.1786
19.1014
19.0207
18.936
18.8475
18.7546
18.6575
18.5558
18.4495
18.3381
18.2218
18.1001
17.9732
17.8405
17.7024
17.558
17.408
17.2516
17.0893
16.9205
16.7457
16.5644
16.3773
16.1838
15.9848
15.7798
15.5697
15.3543
15.1346
14.9104
14.6828
14.4518
14.2186
13.9832
13.7469
13.5096
13.2728
13.0363
12.8016
12.5685
12.3383
12.1109
11.8875
11.6678
11.4529
11.2426
11.0378
10.8382
10.6445
10.4563
10.2744
10.0982
9.92847
9.76441
9.60677
9.45475
9.309
9.16868
9.03442
8.90531
8.78197
8.66345
8.55036
8.44173
8.33816
8.23866
8.14382
8.05264
7.96573
7.88205
7.80225
7.72527
7.65178
7.58072
7.51277
7.44686
7.38371
7.32221
7.26314
7.20534
7.14967
7.09491
7.04196
6.98957
6.93872
6.88806
6.83869
6.78917
6.74072
6.69179
6.64375
6.59495
6.54691
6.49786
6.4495
6.39992
6.35102
6.30071
6.25112
6.19996
6.14957
6.09742
6.0461
5.99276
5.94026
5.88539
5.83132
5.77435
5.71805
5.65815
5.59867
5.53469
5.4708
5.40129
5.33146
5.25475
5.17727
5.09152
5.0046
4.90799
4.80992
4.70081
4.59016
4.46731
4.34309
4.2058
4.0677
3.91602
3.76443
3.59918
3.43528
3.25804
3.08364
2.89652
2.71381
2.51914
2.33034
2.13032
1.93747
1.73408
1.53891
1.33374
1.13767
0.931938
0.735885
0.531826
0.329468
0.0983069
20.5814
20.5809
20.5797
20.5776
20.5749
20.5713
20.5671
20.5621
20.5564
20.5498
20.5426
20.5345
20.5258
20.5163
20.506
20.495
20.4832
20.4706
20.4572
20.4429
20.4279
20.4119
20.395
20.3772
20.3584
20.3386
20.3179
20.296
20.2731
20.2489
20.2237
20.1971
20.1693
20.14
20.1095
20.0773
20.0436
20.0082
19.9713
19.9323
19.8916
19.8488
19.804
19.7569
19.7077
19.6559
19.6017
19.5447
19.4851
19.4224
19.3569
19.2879
19.2158
19.14
19.0608
18.9774
18.8903
18.7988
18.703
18.6025
18.4975
18.3872
18.272
18.1512
18.025
17.8929
17.755
17.6108
17.4605
17.3035
17.1403
16.9701
16.7936
16.61
16.4201
16.2233
16.0204
15.811
15.5961
15.3753
15.1497
14.9191
14.685
14.4471
14.2068
13.9642
13.7207
13.4765
13.2328
12.9899
12.749
12.5102
12.2748
12.0426
11.815
11.5917
11.3737
11.1609
10.9541
10.7529
10.5582
10.3695
10.1876
10.0118
9.84277
9.67985
9.52369
9.37342
9.22969
9.0916
8.95972
8.83313
8.7124
8.59656
8.48619
8.3803
8.27945
8.18267
8.09051
8.00199
7.91768
7.83659
7.75932
7.68485
7.61381
7.54516
7.47958
7.416
7.35513
7.29588
7.239
7.18336
7.12977
7.07706
7.02609
6.97562
6.92661
6.87772
6.83001
6.78208
6.73509
6.68754
6.64074
6.59309
6.54607
6.49795
6.45041
6.40158
6.35336
6.30372
6.25477
6.20431
6.15465
6.1034
6.05308
6.001
5.94996
5.89689
5.84486
5.79036
5.7368
5.68009
5.62405
5.56394
5.5041
5.43899
5.37361
5.30155
5.2286
5.14736
5.06461
4.97189
4.87714
4.77081
4.66213
4.54046
4.41648
4.27847
4.13863
3.98424
3.82901
3.65924
3.49012
3.30703
3.12644
2.93285
2.74374
2.54277
2.34813
2.14272
1.94524
1.73792
1.53975
1.33236
1.13504
0.928768
0.733046
0.529659
0.328926
0.0971377
20.5931
20.5926
20.5914
20.5894
20.5866
20.5831
20.5789
20.574
20.5683
20.5618
20.5546
20.5467
20.5381
20.5287
20.5187
20.5078
20.4963
20.4839
20.4708
20.4568
20.4421
20.4265
20.41
20.3927
20.3744
20.3551
20.335
20.3137
20.2915
20.268
20.2435
20.2178
20.1908
20.1625
20.1329
20.1017
20.0691
20.0348
19.999
19.9613
19.9219
19.8804
19.837
19.7913
19.7436
19.6933
19.6407
19.5854
19.5274
19.4665
19.4027
19.3356
19.2654
19.1914
19.114
19.0326
18.9474
18.8578
18.7639
18.6652
18.5618
18.4532
18.3395
18.2201
18.0951
17.9638
17.8266
17.6826
17.5322
17.3747
17.2104
17.0386
16.8598
16.6733
16.4797
16.2785
16.0704
15.855
15.6333
15.405
15.1711
14.9318
14.6883
14.4406
14.1904
13.9377
13.6842
13.43
13.1767
12.9246
12.6752
12.4284
12.1858
11.9473
11.7141
11.486
11.2642
11.0482
10.839
10.6361
10.4404
10.2513
10.0695
9.89435
9.72652
9.5652
9.41105
9.26317
9.12217
8.98709
8.85848
8.73537
8.61828
8.5062
8.39965
8.29763
8.20066
8.10772
8.01936
7.93457
7.85392
7.7764
7.70262
7.63156
7.56384
7.49846
7.43605
7.37559
7.31776
7.26151
7.20757
7.15484
7.10409
7.05417
7.00591
6.95809
6.91161
6.86517
6.81975
6.77397
6.72895
6.6832
6.63799
6.59175
6.54592
6.49884
6.45215
6.40406
6.35645
6.3074
6.259
6.20919
6.16025
6.10996
6.06079
6.01026
5.96106
5.91036
5.86108
5.80995
5.76017
5.7079
5.65669
5.60204
5.54793
5.48908
5.43007
5.36467
5.29825
5.22354
5.14689
5.05989
4.97007
4.86789
4.76225
4.64245
4.51898
4.38002
4.23779
4.07943
3.91891
3.74243
3.56561
3.37377
3.18398
2.9807
2.78208
2.57172
2.3685
2.15516
1.95106
1.73814
1.53594
1.32571
1.12716
0.920716
0.726254
0.524679
0.327088
0.0952174
20.6077
20.6072
20.606
20.604
20.6012
20.5978
20.5936
20.5887
20.5831
20.5767
20.5696
20.5618
20.5533
20.5441
20.5343
20.5236
20.5124
20.5003
20.4875
20.4739
20.4596
20.4445
20.4286
20.4117
20.3941
20.3755
20.356
20.3355
20.3141
20.2916
20.2681
20.2433
20.2174
20.1902
20.1618
20.1319
20.1007
20.0678
20.0334
19.9972
19.9594
19.9196
19.878
19.8341
19.7882
19.7399
19.6893
19.636
19.5803
19.5215
19.46
19.3952
19.3273
19.2558
19.1808
19.1019
19.0191
18.9319
18.8405
18.7442
18.6432
18.5368
18.4252
18.3077
18.1844
18.0546
17.9184
17.7751
17.625
17.4671
17.3017
17.1282
16.9468
16.7568
16.5587
16.352
16.1373
15.9141
15.6835
15.4452
15.2005
14.9493
14.6933
14.4326
14.1689
13.9027
13.6357
13.3683
13.1023
12.838
12.5772
12.3199
12.0679
11.821
11.5805
11.3464
11.1196
10.8999
10.6881
10.4836
10.2872
10.0983
9.9174
9.74378
9.57805
9.41932
9.26817
9.12367
8.98636
8.85528
8.73091
8.61227
8.49981
8.39252
8.29085
8.19376
8.10173
8.01372
7.93022
7.85022
7.77423
7.70127
7.63189
7.56512
7.50156
7.44021
7.38171
7.32508
7.27097
7.21839
7.16803
7.11885
7.0716
7.02517
6.98033
6.93593
6.89277
6.84959
6.8073
6.76451
6.72226
6.67905
6.63609
6.59179
6.54756
6.50175
6.45598
6.40856
6.36132
6.31252
6.26422
6.21456
6.16584
6.11605
6.06766
6.01847
5.97108
5.92297
5.87691
5.82995
5.78501
5.73861
5.6939
5.64673
5.60061
5.55055
5.50058
5.44472
5.38773
5.3225
5.25475
5.17616
5.09366
4.99767
4.89664
4.77973
4.65715
4.51695
4.37129
4.20721
4.03892
3.85258
3.66437
3.45963
3.25624
3.0387
2.82612
2.6021
2.38647
2.16184
1.94844
1.72792
1.52049
1.30695
1.10751
0.901904
0.710457
0.512871
0.321329
0.0913933
20.6251
20.6247
20.6234
20.6214
20.6187
20.6153
20.6111
20.6063
20.6007
20.5944
20.5874
20.5797
20.5714
20.5624
20.5527
20.5424
20.5314
20.5196
20.5073
20.4941
20.4803
20.4657
20.4504
20.4342
20.4173
20.3994
20.3808
20.3612
20.3408
20.3193
20.2969
20.2733
20.2487
20.2228
20.1958
20.1674
20.1377
20.1065
20.0739
20.0395
20.0036
19.9658
19.9262
19.8846
19.8409
19.795
19.7468
19.6961
19.6429
19.5868
19.5281
19.4661
19.4011
19.3326
19.2606
19.1848
19.1051
19.0211
18.9328
18.8396
18.7417
18.6383
18.5296
18.4147
18.2939
18.1662
18.0319
17.8899
17.7405
17.5827
17.4167
17.2416
17.0575
16.8637
16.6605
16.4472
16.2244
15.9916
15.7498
15.4988
15.2398
14.9732
14.7005
14.4224
14.1409
13.8568
13.5721
13.2875
13.0052
12.7256
12.4505
12.1804
11.9167
11.6596
11.4103
11.1688
10.9361
10.7119
10.497
10.2908
10.0939
9.90567
9.72654
9.55557
9.39325
9.23856
9.09196
8.95242
8.82037
8.6948
8.57614
8.46335
8.35685
8.25562
8.16006
8.06913
7.98324
7.90135
7.82387
7.7498
7.67959
7.61226
7.54833
7.48684
7.42836
7.37194
7.3182
7.2662
7.21659
7.16843
7.12236
7.07743
7.03432
6.99199
6.95116
6.91072
6.87142
6.83206
6.79345
6.75424
6.71535
6.67531
6.63518
6.59341
6.55124
6.50708
6.46244
6.41571
6.36869
6.31977
6.27102
6.22082
6.17149
6.12136
6.07291
6.02432
5.97815
5.93233
5.88945
5.84702
5.80766
5.76834
5.7318
5.69429
5.65876
5.62059
5.58312
5.54066
5.49714
5.44566
5.39104
5.32501
5.25365
5.16727
5.07359
4.96157
4.84095
4.69952
4.54934
4.37727
4.19788
3.99727
3.79245
3.56885
3.34557
3.10726
2.87442
2.63074
2.39744
2.157
1.93084
1.70026
1.48636
1.26935
1.07005
0.867277
0.681829
0.491813
0.31059
0.0855052
20.6455
20.645
20.6437
20.6417
20.639
20.6355
20.6314
20.6266
20.621
20.6148
20.6079
20.6003
20.5921
20.5833
20.5739
20.5638
20.5531
20.5417
20.5298
20.5171
20.5039
20.4899
20.4753
20.4598
20.4438
20.4269
20.4092
20.3907
20.3714
20.3512
20.3301
20.3079
20.2848
20.2605
20.2351
20.2085
20.1807
20.1514
20.1208
20.0886
20.0549
20.0194
19.9823
19.9431
19.9021
19.8589
19.8136
19.7658
19.7157
19.6628
19.6072
19.5486
19.4871
19.4221
19.3538
19.2817
19.2058
19.1256
19.0412
18.952
18.8579
18.7584
18.6534
18.5422
18.4249
18.3004
18.1688
18.0292
17.8815
17.7247
17.5587
17.3825
17.1961
16.9984
16.7897
16.569
16.3367
16.0924
15.8367
15.5697
15.2926
15.006
14.7117
14.4108
14.1057
13.7977
13.4895
13.1823
12.8785
12.5792
12.2865
12.0006
11.7234
11.4548
11.196
10.9468
10.7081
10.4795
10.2618
10.0542
9.8574
9.67048
9.4939
9.32662
9.16896
9.0198
8.8794
8.74659
8.62168
8.50351
8.3924
8.28726
8.18841
8.09481
8.00681
7.92338
7.84488
7.77027
7.69993
7.63286
7.56946
7.50875
7.45119
7.39584
7.34323
7.29248
7.24417
7.19748
7.15304
7.11004
7.06909
7.02934
6.99139
6.95428
6.91861
6.88331
6.84899
6.81447
6.78041
6.74552
6.71058
6.67416
6.63719
6.59815
6.55817
6.51567
6.47206
6.42578
6.37857
6.32893
6.27896
6.22727
6.17625
6.12459
6.07488
6.02574
5.97978
5.93541
5.89515
5.85705
5.82349
5.79197
5.76482
5.73884
5.71635
5.69323
5.672
5.64734
5.6222
5.58984
5.55396
5.50623
5.45155
5.37995
5.29807
5.19441
5.07797
4.93602
4.78043
4.59767
4.40277
4.18175
3.95283
3.70172
3.44929
3.18066
2.91835
2.64641
2.38795
2.12549
1.88199
1.63834
1.41678
1.19673
0.999787
0.803527
0.629381
0.45317
0.290008
0.0752655
20.6686
20.6681
20.6669
20.6648
20.6621
20.6586
20.6544
20.6496
20.644
20.6378
20.631
20.6235
20.6154
20.6067
20.5975
20.5877
20.5773
20.5663
20.5548
20.5427
20.53
20.5166
20.5027
20.4881
20.4729
20.4569
20.4404
20.423
20.405
20.3861
20.3664
20.3458
20.3243
20.3018
20.2784
20.2537
20.228
20.2009
20.1726
20.1428
20.1117
20.0789
20.0446
20.0083
19.9704
19.9303
19.8883
19.8439
19.7973
19.748
19.6963
19.6416
19.5841
19.5233
19.4594
19.3916
19.3203
19.2448
19.1652
19.0807
18.9916
18.897
18.797
18.6907
18.578
18.4581
18.3308
18.1949
18.0504
17.896
17.7314
17.5554
17.3676
17.1667
16.9526
16.7239
16.481
16.2228
15.9502
15.6629
15.3625
15.0499
14.7276
14.3971
14.0616
13.7229
13.3844
13.0479
12.7165
12.3917
12.0761
11.7704
11.4765
11.1944
10.9252
10.6683
10.4246
10.1931
9.97432
9.76732
9.57252
9.38886
9.2167
9.05488
8.90366
8.76179
8.62945
8.50534
8.38961
8.28099
8.17963
8.08432
7.99528
7.91138
7.83289
7.75875
7.68926
7.62342
7.56155
7.50269
7.44721
7.39414
7.34391
7.2956
7.24967
7.20526
7.16293
7.12191
7.08284
7.04507
7.00928
6.97481
6.94229
6.91096
6.88131
6.8524
6.8246
6.79671
6.76908
6.74033
6.71089
6.67932
6.64629
6.61032
6.57241
6.53105
6.48762
6.44063
6.39184
6.33989
6.28699
6.23201
6.17754
6.12268
6.07019
6.01924
5.97251
5.929
5.89115
5.85764
5.83058
5.80817
5.79225
5.78035
5.77411
5.77008
5.76984
5.76861
5.76814
5.76196
5.75234
5.73079
5.70063
5.65132
5.58797
5.4982
5.38984
5.24918
5.0876
4.89079
4.67435
4.42403
4.15986
3.868
3.57219
3.25844
2.9525
2.63907
2.34415
2.05031
1.78268
1.52156
1.29072
1.06844
0.877361
0.693487
0.539129
0.386811
0.254732
0.0579907
20.6947
20.6942
20.6929
20.6908
20.6879
20.6844
20.6801
20.6752
20.6696
20.6633
20.6565
20.649
20.6411
20.6325
20.6235
20.614
20.604
20.5935
20.5825
20.5709
20.5589
20.5464
20.5333
20.5196
20.5055
20.4907
20.4753
20.4593
20.4427
20.4253
20.4073
20.3884
20.3688
20.3482
20.3269
20.3044
20.281
20.2564
20.2307
20.2037
20.1754
20.1455
20.1143
20.0813
20.0467
20.0102
19.9718
19.9312
19.8886
19.8434
19.796
19.7457
19.6928
19.6367
19.5777
19.5151
19.449
19.379
19.305
19.2264
19.1432
19.0547
18.9609
18.8609
18.7545
18.6408
18.5196
18.3895
18.2503
18.1004
17.9395
17.7657
17.5785
17.376
17.1577
16.9216
16.6675
16.3938
16.1009
15.7883
15.4576
15.1099
14.7489
14.3774
14.0004
13.6211
13.2438
12.8709
12.506
12.1508
11.8083
11.4794
11.1661
10.8686
10.588
10.3235
10.0756
9.84301
9.62577
9.42241
9.23296
9.05598
8.89156
8.73831
8.59636
8.46437
8.34243
8.22918
8.1247
8.0276
7.93795
7.85444
7.77715
7.70487
7.63777
7.57471
7.51593
7.46037
7.40834
7.35885
7.31225
7.26761
7.22536
7.18467
7.14604
7.1087
7.07318
7.03874
7.00594
6.97416
6.94407
6.91517
6.88816
6.86258
6.83899
6.81676
6.79622
6.77638
6.75725
6.73735
6.7165
6.69292
6.66665
6.63594
6.60142
6.56149
6.51742
6.46781
6.41454
6.35652
6.29626
6.23314
6.17026
6.10734
6.04765
5.99101
5.94037
5.89533
5.85835
5.82872
5.80834
5.79614
5.79354
5.79889
5.81318
5.83379
5.8613
5.89163
5.92516
5.95577
5.98388
6.00078
6.00751
5.99265
5.95888
5.89249
5.79915
5.66372
5.49613
5.28084
5.03333
4.73929
4.42076
4.06565
3.70176
3.31787
2.94428
2.56788
2.21825
1.87878
1.57686
1.29235
1.0504
0.828085
0.648996
0.487519
0.367224
0.256874
0.18023
0.0230859
20.7238
20.7232
20.7219
20.7196
20.7166
20.7129
20.7085
20.7034
20.6976
20.6912
20.6843
20.6768
20.6688
20.6602
20.6513
20.6419
20.6321
20.6218
20.6112
20.6001
20.5887
20.5768
20.5646
20.5518
20.5387
20.525
20.511
20.4963
20.4812
20.4655
20.4492
20.4322
20.4147
20.3963
20.3772
20.3572
20.3365
20.3146
20.2918
20.2678
20.2427
20.2162
20.1885
20.1592
20.1284
20.0958
20.0616
20.0253
19.9871
19.9466
19.904
19.8588
19.8111
19.7604
19.707
19.6502
19.5903
19.5266
19.4592
19.3875
19.3115
19.2304
19.1443
19.0523
18.9542
18.8489
18.7361
18.6145
18.4835
18.3414
18.1874
18.0194
17.8362
17.6352
17.4152
17.1734
16.9086
16.6184
16.3025
15.96
15.5922
15.2003
14.7884
14.361
13.9258
13.4891
13.0578
12.6362
12.2287
11.8374
11.4648
11.1114
10.7787
10.4664
10.1753
9.90433
9.65372
9.42178
9.20824
9.01111
8.82997
8.66289
8.50956
8.36827
8.23891
8.11995
8.01138
7.91175
7.82106
7.7379
7.66222
7.5927
7.52932
7.47082
7.41725
7.36745
7.32151
7.27839
7.23823
7.20002
7.16396
7.12908
7.09565
7.06289
7.03136
7.00055
6.97121
6.9429
6.91633
6.89105
6.86768
6.84578
6.82594
6.8078
6.79181
6.77755
6.76526
6.75432
6.74472
6.73533
6.72562
6.71356
6.6983
6.67742
6.65056
6.61552
6.57293
6.52108
6.46178
6.39418
6.32137
6.24359
6.16496
6.08642
6.01227
5.94343
5.88349
5.83288
5.79411
5.76716
5.75363
5.75329
5.76711
5.79458
5.83595
5.88984
5.95573
6.03075
6.11357
6.19871
6.28393
6.36024
6.42504
6.46557
6.4803
6.45352
6.38681
6.26276
6.08789
5.84474
5.54726
5.18164
4.77267
4.31303
3.83729
3.34104
2.86133
2.38983
1.95999
1.55681
1.20896
0.895786
0.642509
0.424975
0.266738
0.141133
0.0723233
0.0274282
0.0346751
-0.0376
20.756
20.7554
20.7539
20.7515
20.7482
20.7442
20.7395
20.7341
20.7281
20.7215
20.7145
20.7069
20.699
20.6907
20.6819
20.6728
20.6634
20.6537
20.6436
20.6332
20.6225
20.6115
20.6002
20.5885
20.5766
20.5642
20.5515
20.5384
20.525
20.511
20.4967
20.4817
20.4663
20.4503
20.4337
20.4163
20.3982
20.3792
20.3595
20.3387
20.317
20.294
20.27
20.2445
20.2178
20.1895
20.1597
20.128
20.0946
20.0591
20.0217
19.9818
19.9398
19.895
19.8478
19.7974
19.7442
19.6876
19.6276
19.5637
19.496
19.4237
19.3468
19.2645
19.1767
19.0822
18.9808
18.8709
18.752
18.6221
18.4801
18.3234
18.1501
17.9567
17.7407
17.4976
17.2242
16.916
16.5707
16.186
15.7643
15.3096
14.8295
14.3308
13.823
13.3141
12.8131
12.3269
11.8628
11.424
11.0134
10.6307
10.2763
9.94884
9.64806
9.37209
9.12056
8.89134
8.68377
8.49544
8.3255
8.17153
8.03282
7.90727
7.79446
7.69263
7.60157
7.51971
7.44689
7.38164
7.32382
7.27205
7.22622
7.18505
7.14847
7.11533
7.08561
7.05826
7.03326
7.00961
6.98735
6.9655
6.94411
6.92231
6.90036
6.87761
6.85472
6.83163
6.80956
6.78882
6.77059
6.75508
6.74307
6.73456
6.72988
6.72867
6.73049
6.7343
6.73917
6.74392
6.74773
6.74904
6.74659
6.73774
6.72095
6.69306
6.65325
6.59888
6.53084
6.44818
6.35464
6.25186
6.14579
6.03948
5.93906
5.84714
5.76838
5.70434
5.65784
5.62946
5.62057
5.63157
5.66331
5.71624
5.79031
5.88525
6.00018
6.13371
6.28346
6.4445
6.61169
6.7748
6.92601
7.04968
7.13829
7.17317
7.15036
7.04906
6.87056
6.59433
6.23069
5.76561
5.22703
4.61742
3.98335
3.33356
2.71441
2.12478
1.60044
1.12772
0.733581
0.396083
0.13784
-0.066742
-0.195679
-0.27614
-0.284699
-0.252185
-0.156111
-0.103723
20.7917
20.791
20.7893
20.7865
20.7828
20.7783
20.773
20.767
20.7603
20.7531
20.7454
20.7373
20.7289
20.7201
20.7112
20.7019
20.6926
20.6829
20.6732
20.6632
20.6531
20.6427
20.6323
20.6216
20.6108
20.5998
20.5886
20.5771
20.5655
20.5535
20.5413
20.5287
20.5158
20.5024
20.4886
20.4742
20.4593
20.4437
20.4275
20.4103
20.3925
20.3736
20.3538
20.3327
20.3106
20.287
20.2621
20.2356
20.2076
20.1776
20.1459
20.1121
20.0763
20.038
19.9975
19.9542
19.9085
19.8596
19.8079
19.7528
19.6944
19.632
19.5659
19.4951
19.4197
19.3386
19.2517
19.1574
19.0553
18.9432
18.8199
18.6824
18.5284
18.3535
18.1538
17.923
17.6553
17.3417
16.9742
16.5426
16.0423
15.4776
14.8692
14.243
13.6196
13.0075
12.4136
11.8447
11.3094
10.8121
10.3557
9.93934
9.5623
9.22149
8.91521
8.64019
8.39506
8.17697
7.98463
7.81509
7.66688
7.53703
7.42418
7.32574
7.24074
7.16709
7.10416
7.0502
7.00476
6.96631
6.93451
6.90802
6.88657
6.86898
6.85505
6.84373
6.83486
6.82743
6.82117
6.81492
6.80831
6.80034
6.79116
6.78064
6.76939
6.7566
6.74219
6.72567
6.70807
6.69022
6.67403
6.66083
6.65232
6.64959
6.65359
6.66493
6.68362
6.70875
6.73766
6.76728
6.79426
6.81626
6.83149
6.83795
6.83366
6.8149
6.7793
6.72301
6.64546
6.54503
6.42548
6.29009
6.14718
6.00323
5.86704
5.74339
5.63798
5.55331
5.49207
5.45518
5.44374
5.45873
5.50126
5.57226
5.67176
5.80034
5.95839
6.14627
6.36261
6.60294
6.86106
7.12492
7.38229
7.61251
7.80106
7.9255
7.97655
7.9289
7.77906
7.49632
7.07528
6.49552
5.79448
4.99608
4.16989
3.34411
2.57595
1.86957
1.25992
0.730943
0.304826
-0.0443705
-0.298131
-0.484813
-0.583545
-0.622116
-0.577763
-0.477829
-0.314365
-0.146395
20.8312
20.8304
20.8283
20.8249
20.8206
20.8156
20.8099
20.8036
20.7967
20.7893
20.7816
20.7734
20.765
20.7564
20.7476
20.7386
20.7296
20.7204
20.7112
20.7018
20.6924
20.6828
20.6733
20.6636
20.6539
20.6441
20.6343
20.6243
20.6143
20.6041
20.5939
20.5834
20.5728
20.5619
20.5507
20.5392
20.5273
20.5149
20.5021
20.4886
20.4746
20.4597
20.4441
20.4275
20.41
20.3913
20.3715
20.3503
20.3278
20.3035
20.2778
20.2502
20.2208
20.1893
20.1559
20.12
20.082
20.0414
19.9984
19.9526
19.9041
19.8526
19.7981
19.7401
19.6787
19.6132
19.5434
19.4684
19.3875
19.2991
19.2018
19.0926
18.9687
18.8246
18.6551
18.4514
18.2051
17.9045
17.5394
17.0933
16.5484
15.8743
15.0792
14.2275
13.3811
12.5664
11.7987
11.0888
10.4455
9.87024
9.36337
8.92114
8.53975
8.21173
7.93133
7.69137
7.48764
7.31477
7.16994
7.04875
6.949
6.86688
6.80072
6.74735
6.7057
6.6732
6.64929
6.6319
6.6208
6.61424
6.61223
6.61329
6.61758
6.62384
6.63238
6.64212
6.65337
6.66509
6.67735
6.68867
6.69773
6.70189
6.70126
6.69672
6.6896
6.67996
6.66802
6.65351
6.637
6.61931
6.6023
6.58781
6.57829
6.57575
6.58177
6.59716
6.62265
6.65851
6.70331
6.75369
6.80436
6.84975
6.88539
6.90894
6.91868
6.91167
6.88458
6.83216
6.75152
6.63985
6.50039
6.33774
6.16296
5.98594
5.81797
5.66656
5.53854
5.43609
5.36135
5.31287
5.29124
5.29835
5.33696
5.40717
5.50905
5.64468
5.81833
6.0315
6.28569
6.5775
6.90416
7.24701
7.59072
7.90349
8.17432
8.37408
8.4961
8.4849
8.34948
8.0385
7.53351
6.82127
5.95915
4.99545
4.01892
3.07061
2.21257
1.44929
0.811061
0.277083
-0.137257
-0.463191
-0.688256
-0.84317
-0.907294
-0.906096
-0.815
-0.657635
-0.43549
-0.177386
20.8755
20.8745
20.8717
20.8671
20.861
20.8539
20.846
20.8374
20.8286
20.8194
20.8101
20.8006
20.7912
20.7817
20.7723
20.763
20.7538
20.7448
20.7359
20.7272
20.7186
20.7101
20.7018
20.6936
20.6855
20.6775
20.6696
20.6618
20.6541
20.6464
20.6389
20.6312
20.6237
20.616
20.6082
20.6003
20.5922
20.5838
20.5752
20.566
20.5566
20.5465
20.5358
20.5243
20.5122
20.499
20.4849
20.4695
20.453
20.4351
20.4158
20.3948
20.3723
20.3478
20.3217
20.2934
20.2633
20.231
20.1968
20.1604
20.122
20.0813
20.0387
19.994
19.9474
19.8987
19.8482
19.7955
19.7407
19.6829
19.6218
19.5549
19.4798
19.3907
19.2793
19.1302
18.9202
18.6164
18.1762
17.5668
16.7791
15.8826
14.8824
13.8353
12.7794
11.7474
10.7934
9.95927
9.25635
8.67766
8.20988
7.83825
7.54582
7.31686
7.13636
6.99362
6.87933
6.7882
6.71483
6.65688
6.61082
6.57574
6.54895
6.53027
6.51741
6.51062
6.50782
6.50954
6.51387
6.52155
6.53079
6.5425
6.55501
6.56937
6.584
6.60015
6.61634
6.6339
6.65158
6.67053
6.68845
6.69915
6.70403
6.70518
6.70187
6.69341
6.68008
6.66236
6.64145
6.61884
6.59665
6.57713
6.56276
6.55627
6.55949
6.57494
6.60353
6.64465
6.69662
6.75739
6.8231
6.88696
6.9433
6.98608
7.01103
7.01323
6.98992
6.9348
6.84332
6.71218
6.54603
6.35329
6.15072
5.95168
5.76725
5.60494
5.47041
5.36508
5.29161
5.24785
5.22899
5.23575
5.27029
5.33658
5.4297
5.55294
5.70875
5.90311
6.13493
6.40816
6.71749
7.04914
7.37831
7.67414
7.90278
8.01159
8.01219
7.92167
7.72628
7.40086
6.87404
6.12974
5.23638
4.257
3.28097
2.35009
1.52021
0.796522
0.204584
-0.274659
-0.63025
-0.894749
-1.06707
-1.18063
-1.21648
-1.18257
-1.05913
-0.842675
-0.56066
-0.208617
20.9256
20.9242
20.921
20.9162
20.9103
20.9035
20.8958
20.8873
20.8781
20.8686
20.8589
20.849
20.8391
20.8292
20.8193
20.8095
20.7999
20.7904
20.7812
20.7723
20.7636
20.7552
20.7471
20.7392
20.7317
20.7244
20.7175
20.7108
20.7045
20.6983
20.6925
20.6869
20.6815
20.6763
20.6712
20.6662
20.6614
20.6564
20.6515
20.6463
20.6411
20.6354
20.6295
20.623
20.616
20.6083
20.5998
20.5904
20.58
20.5684
20.5556
20.5414
20.5258
20.5085
20.4897
20.4691
20.4469
20.4229
20.3974
20.3702
20.3418
20.3119
20.2814
20.2501
20.219
20.1881
20.1589
20.1317
20.1082
20.0898
20.0787
20.077
20.0875
20.1119
20.1506
20.1982
20.2303
20.2031
19.9546
19.3378
17.7353
15.6545
13.9337
12.6601
11.5738
10.5939
9.75678
9.07248
8.52757
8.09506
7.75504
7.48585
7.27394
7.10395
6.96823
6.85729
6.76812
6.69497
6.63708
6.5904
6.55504
6.52772
6.50887
6.4957
6.48885
6.48589
6.4876
6.49185
6.49951
6.50873
6.52042
6.53299
6.54739
6.56217
6.5783
6.5945
6.61166
6.62883
6.64641
6.66406
6.67939
6.68659
6.68957
6.69018
6.68719
6.67927
6.66615
6.64818
6.62644
6.60287
6.57971
6.55977
6.54574
6.54048
6.54437
6.55848
6.58288
6.61781
6.66117
6.71274
6.76782
6.82237
6.86907
6.90221
6.91213
6.89891
6.8653
6.81048
6.72564
6.60199
6.43522
6.23579
6.02269
5.81446
5.61995
5.45246
5.31617
5.21623
5.14886
5.10898
5.08673
5.08606
5.10957
5.16052
5.22685
5.31405
5.41901
5.54937
5.70164
5.88585
6.09597
6.32725
6.55753
6.77454
6.95035
7.0408
7.02701
6.9257
6.72118
6.39207
5.87263
5.1715
4.34701
3.46054
2.57158
1.73164
0.976972
0.330183
-0.202359
-0.617903
-0.921713
-1.12558
-1.25018
-1.3327
-1.35685
-1.33674
-1.22201
-1.01717
-0.726946
-0.287385
20.9845
20.9808
20.9712
20.9575
20.9433
20.9302
20.9176
20.9051
20.8929
20.881
20.8698
20.8591
20.849
20.8392
20.83
20.8212
20.8129
20.8049
20.7974
20.7902
20.7835
20.7771
20.7712
20.7656
20.7606
20.7559
20.7517
20.7478
20.7445
20.7415
20.7389
20.7367
20.7349
20.7334
20.7323
20.7315
20.7309
20.7305
20.7303
20.7301
20.73
20.7297
20.7293
20.7286
20.7275
20.7258
20.7237
20.7206
20.7169
20.712
20.7062
20.6991
20.6908
20.6811
20.6702
20.6577
20.6441
20.6292
20.6133
20.5964
20.5791
20.5614
20.5442
20.5277
20.5128
20.5003
20.4915
20.4875
20.4904
20.5027
20.5286
20.5743
20.6504
20.7721
20.9619
21.2529
21.679
22.3179
23.119
24.347
24.2321
19.959
16.4788
14.1222
12.2438
10.8064
9.76352
9.00592
8.45413
8.04809
7.74281
7.50675
7.31859
7.1643
7.03513
6.92558
6.83247
6.75368
6.6879
6.63388
6.5907
6.55711
6.53219
6.51465
6.50362
6.49792
6.49689
6.49951
6.50537
6.51365
6.52415
6.5362
6.54978
6.56432
6.57993
6.5962
6.61324
6.63127
6.64865
6.67501
6.68106
6.68464
6.68658
6.68523
6.67965
6.66878
6.65283
6.63203
6.60787
6.58183
6.55639
6.53368
6.51624
6.5068
6.50672
6.51598
6.53365
6.5601
6.59377
6.63225
6.672
6.70936
6.7416
6.76083
6.76043
6.73932
6.7062
6.65756
6.58514
6.47134
6.30909
6.10625
5.8924
5.68467
5.49677
5.33329
5.20057
5.09789
5.03043
4.9935
4.97726
4.97028
4.97968
5.01251
5.06269
5.12629
5.20928
5.30554
5.41816
5.54202
5.68544
5.82982
5.98141
6.12211
6.246
6.31278
6.33016
6.24159
6.0905
5.85826
5.50494
4.94004
4.22105
3.37407
2.52094
1.68167
0.946721
0.294119
-0.223483
-0.653099
-0.953723
-1.17425
-1.2699
-1.30394
-1.27604
-1.2306
-1.16018
-1.00557
-0.669939
-0.256402
21.0561
21.0652
21.0642
21.0532
21.0386
21.0233
21.0074
20.9909
20.9744
20.9583
20.9426
20.9275
20.9131
20.8993
20.8864
20.8743
20.8631
20.8525
20.8428
20.8337
20.8253
20.8176
20.8107
20.8045
20.7991
20.7944
20.7905
20.7872
20.7848
20.7829
20.7819
20.7814
20.7818
20.7827
20.7845
20.7867
20.7897
20.7932
20.7974
20.8019
20.807
20.8123
20.8181
20.8239
20.83
20.8359
20.8418
20.8474
20.8528
20.8575
20.8617
20.8651
20.8677
20.8691
20.8696
20.8687
20.8668
20.8634
20.8591
20.8536
20.8473
20.8403
20.8333
20.8263
20.8204
20.8158
20.8137
20.8146
20.8197
20.8291
20.8428
20.8598
20.884
20.9291
21.0211
21.1974
21.4949
21.9787
22.652
23.6563
24.0759
21.1981
18.7486
16.8925
15.225
13.7834
12.5753
11.5619
10.7147
10.0087
9.42041
8.92993
8.52042
8.17785
7.89081
7.65001
7.44799
7.27868
7.13719
7.01939
6.92195
6.84193
6.77691
6.72473
6.68357
6.65179
6.62805
6.61109
6.59991
6.59358
6.59136
6.59256
6.59665
6.60314
6.61163
6.62187
6.63345
6.64681
6.65931
6.68111
6.68112
6.68173
6.68193
6.68002
6.67502
6.6656
6.65135
6.63233
6.60987
6.58599
6.56316
6.54328
6.52776
6.51797
6.5147
6.51808
6.52783
6.54449
6.56699
6.59301
6.61946
6.64326
6.66187
6.67014
6.66603
6.64699
6.62308
6.59542
6.55823
6.48258
6.35059
6.1634
5.94918
5.72633
5.51777
5.33371
5.1865
5.07853
5.01274
4.98137
4.97768
4.99806
5.04113
5.10538
5.18573
5.28061
5.3901
5.51137
5.64274
5.7792
5.91544
6.0377
6.14983
6.24855
6.33724
6.39229
6.4024
6.33029
6.20483
6.02525
5.78155
5.41724
4.90014
4.19909
3.38803
2.52101
1.68681
0.927657
0.289599
-0.231306
-0.626275
-0.913871
-1.08221
-1.14551
-1.14134
-1.13864
-1.12999
-1.05155
-0.751362
-0.255957
21.121
21.0816
21.0425
21.0195
21.005
20.9909
20.9761
20.9622
20.95
20.939
20.9286
20.9184
20.9087
20.8994
20.8908
20.8829
20.8756
20.8688
20.8626
20.857
20.852
20.8476
20.844
20.8412
20.8392
20.8381
20.8379
20.8386
20.8402
20.8427
20.8463
20.8508
20.8564
20.8629
20.8706
20.8793
20.889
20.8997
20.9114
20.9239
20.9373
20.9514
20.966
20.9811
20.9964
21.0119
21.0271
21.042
21.0562
21.0695
21.0815
21.092
21.1006
21.1071
21.1111
21.1126
21.1111
21.1069
21.0996
21.0897
21.077
21.0622
21.0453
21.0275
21.0089
20.9908
20.9736
20.9589
20.9476
20.9423
20.9432
20.9403
20.9185
20.8754
20.8314
20.8268
20.8964
21.0672
21.3354
21.805
22.1004
20.3139
18.6456
17.1394
15.7079
14.4177
13.28