/*--------------------------------*- C++ -*----------------------------------*\
  =========                 |
  \\      /  F ield         | OpenFOAM: The Open Source CFD Toolbox
   \\    /   O peration     | Website:  https://openfoam.org
    \\  /    A nd           | Version:  10
     \\/     M anipulation  |
\*---------------------------------------------------------------------------*/
FoamFile
{
    format      ascii;
    class       volVectorField;
    location    "0.062";
    object      U;
}
// * * * * * * * * * * * * * * * * * * * * * * * * * * * * * * * * * * * * * //

dimensions      [0 1 -1 0 0 0 0];

internalField   nonuniform List<vector> 
4000
(
(5.00001 -7.32898e-05 0)
(5.00014 -0.000220104 0)
(5.00041 -0.000367018 0)
(5.00083 -0.000514042 0)
(5.0014 -0.000661804 0)
(5.00212 -0.000809713 0)
(5.00299 -0.0009587 0)
(5.00401 -0.001108 0)
(5.00518 -0.00125876 0)
(5.0065 -0.00141 0)
(5.00797 -0.00156315 0)
(5.00959 -0.00171702 0)
(5.01137 -0.00187338 0)
(5.01331 -0.00203082 0)
(5.0154 -0.00219141 0)
(5.01766 -0.00235355 0)
(5.02008 -0.0025196 0)
(5.02266 -0.00268776 0)
(5.02542 -0.00286067 0)
(5.02835 -0.00303634 0)
(5.03145 -0.00321771 0)
(5.03474 -0.00340255 0)
(5.03822 -0.00359409 0)
(5.04189 -0.00378989 0)
(5.04576 -0.00399346 0)
(5.04984 -0.00420216 0)
(5.05412 -0.00441976 0)
(5.05863 -0.00464341 0)
(5.06337 -0.00487717 0)
(5.06834 -0.00511797 0)
(5.07356 -0.00537013 0)
(5.07903 -0.00563038 0)
(5.08477 -0.00590331 0)
(5.09078 -0.00618542 0)
(5.09709 -0.00648156 0)
(5.10369 -0.00678803 0)
(5.11061 -0.00710993 0)
(5.11785 -0.00744333 0)
(5.12543 -0.00779358 0)
(5.13338 -0.00815653 0)
(5.14169 -0.00853777 0)
(5.15039 -0.00893291 0)
(5.15949 -0.00934779 0)
(5.16902 -0.00977776 0)
(5.17898 -0.0102289 0)
(5.18941 -0.0106963 0)
(5.20031 -0.0111862 0)
(5.21171 -0.0116935 0)
(5.22363 -0.0122245 0)
(5.23609 -0.0127739 0)
(5.2491 -0.0133482 0)
(5.26271 -0.0139416 0)
(5.27691 -0.0145608 0)
(5.29175 -0.0151996 0)
(5.30724 -0.0158647 0)
(5.3234 -0.0165495 0)
(5.34026 -0.0172608 0)
(5.35785 -0.0179913 0)
(5.37617 -0.0187476 0)
(5.39526 -0.0195218 0)
(5.41514 -0.0203205 0)
(5.43583 -0.021135 0)
(5.45734 -0.0219712 0)
(5.4797 -0.0228198 0)
(5.50292 -0.0236863 0)
(5.52701 -0.0245601 0)
(5.55199 -0.0254462 0)
(5.57785 -0.0263329 0)
(5.60461 -0.0272246 0)
(5.63227 -0.0281083 0)
(5.66081 -0.0289876 0)
(5.69022 -0.0298484 0)
(5.7205 -0.0306935 0)
(5.75162 -0.031508 0)
(5.78354 -0.0322942 0)
(5.81624 -0.0330362 0)
(5.84966 -0.0337364 0)
(5.88377 -0.0343786 0)
(5.9185 -0.0349655 0)
(5.95379 -0.0354812 0)
(5.98957 -0.0359294 0)
(6.02576 -0.0362952 0)
(6.06229 -0.0365836 0)
(6.09906 -0.0367813 0)
(6.136 -0.0368956 0)
(6.173 -0.0369148 0)
(6.20998 -0.0368485 0)
(6.24685 -0.0366873 0)
(6.28352 -0.0364431 0)
(6.31989 -0.0361084 0)
(6.35589 -0.0356971 0)
(6.39143 -0.0352037 0)
(6.42643 -0.0346434 0)
(6.46084 -0.0340121 0)
(6.49458 -0.0333262 0)
(6.5276 -0.032582 0)
(6.55984 -0.0317967 0)
(6.59127 -0.0309666 0)
(6.62185 -0.0301089 0)
(6.65154 -0.0292196 0)
(6.68033 -0.0283154 0)
(6.7082 -0.0273919 0)
(6.73513 -0.026465 0)
(6.76112 -0.0255294 0)
(6.78617 -0.0246003 0)
(6.81029 -0.0236716 0)
(6.83348 -0.0227576 0)
(6.85576 -0.0218515 0)
(6.87713 -0.020967 0)
(6.89763 -0.0200964 0)
(6.91727 -0.0192527 0)
(6.93608 -0.0184276 0)
(6.95408 -0.0176336 0)
(6.9713 -0.0168617 0)
(6.98777 -0.016124 0)
(7.00352 -0.0154107 0)
(7.01857 -0.0147335 0)
(7.03297 -0.0140819 0)
(7.04673 -0.0134674 0)
(7.05989 -0.0128788 0)
(7.07248 -0.0123274 0)
(7.08454 -0.0118012 0)
(7.09608 -0.0113118 0)
(7.10715 -0.0108463 0)
(7.11776 -0.0104167 0)
(7.12795 -0.0100095 0)
(7.13775 -0.00963693 0)
(7.14718 -0.00928518 0)
(7.15627 -0.00896705 0)
(7.16505 -0.00866804 0)
(7.17354 -0.00840174 0)
(7.18178 -0.00815302 0)
(7.18977 -0.00793627 0)
(7.19756 -0.00773558 0)
(7.20517 -0.00756614 0)
(7.21261 -0.00741111 0)
(7.21991 -0.0072864 0)
(7.2271 -0.00717409 0)
(7.23419 -0.00709071 0)
(7.24121 -0.00701711 0)
(7.24817 -0.00697044 0)
(7.2551 -0.00693021 0)
(7.262 -0.0069143 0)
(7.2689 -0.00690086 0)
(7.2758 -0.00690873 0)
(7.28271 -0.00691483 0)
(7.28965 -0.00693935 0)
(7.29662 -0.00695817 0)
(7.30361 -0.00699339 0)
(7.31065 -0.00701997 0)
(7.31773 -0.00706265 0)
(7.32485 -0.00709545 0)
(7.33201 -0.00714659 0)
(7.33923 -0.00718887 0)
(7.34649 -0.00725475 0)
(7.35383 -0.00731531 0)
(7.36122 -0.00740792 0)
(7.36872 -0.00750108 0)
(7.37631 -0.0076376 0)
(7.38404 -0.00778226 0)
(7.39192 -0.00798366 0)
(7.40002 -0.00820154 0)
(7.40834 -0.00849033 0)
(7.41696 -0.00880338 0)
(7.42589 -0.00920069 0)
(7.43524 -0.00962794 0)
(7.44503 -0.0101501 0)
(7.45535 -0.010704 0)
(7.46624 -0.0113587 0)
(7.4778 -0.0120418 0)
(7.49006 -0.0128246 0)
(7.5031 -0.0136257 0)
(7.51697 -0.0145173 0)
(7.53171 -0.0154096 0)
(7.54738 -0.0163745 0)
(7.56398 -0.0173156 0)
(7.58155 -0.018303 0)
(7.60006 -0.019237 0)
(7.61953 -0.020185 0)
(7.63988 -0.0210478 0)
(7.66112 -0.0218901 0)
(7.68311 -0.0226174 0)
(7.70584 -0.0232919 0)
(7.72916 -0.0238283 0)
(7.75302 -0.0242863 0)
(7.77724 -0.0245932 0)
(7.80178 -0.0248066 0)
(7.82644 -0.0248677 0)
(7.85117 -0.0248316 0)
(7.87579 -0.0246537 0)
(7.90025 -0.0243855 0)
(7.92438 -0.0239952 0)
(7.94815 -0.0235299 0)
(7.97141 -0.0229681 0)
(7.99411 -0.0223511 0)
(8.01627 -0.0216626 0)
(8.03743 -0.0209514 0)
(8.05881 -0.0201513 0)
(8.07607 -0.0195214 0)
(8.10468 -0.018152 0)
(5.00001 -0.000220065 0)
(5.00014 -0.000661055 0)
(5.0004 -0.00110192 0)
(5.00083 -0.00154338 0)
(5.0014 -0.00198638 0)
(5.00212 -0.00243034 0)
(5.00298 -0.00287664 0)
(5.004 -0.00332452 0)
(5.00516 -0.00377572 0)
(5.00648 -0.00422923 0)
(5.00794 -0.00468725 0)
(5.00956 -0.00514861 0)
(5.01133 -0.00561598 0)
(5.01326 -0.00608801 0)
(5.01535 -0.00656784 0)
(5.01759 -0.00705396 0)
(5.02 -0.00754993 0)
(5.02257 -0.00805408 0)
(5.02531 -0.00857041 0)
(5.02822 -0.00909704 0)
(5.03131 -0.00963844 0)
(5.03458 -0.0101925 0)
(5.03804 -0.0107641 0)
(5.04169 -0.011351 0)
(5.04553 -0.0119585 0)
(5.04958 -0.012584 0)
(5.05384 -0.0132333 0)
(5.05832 -0.0139036 0)
(5.06302 -0.0146012 0)
(5.06795 -0.015323 0)
(5.07313 -0.0160756 0)
(5.07857 -0.0168559 0)
(5.08426 -0.0176706 0)
(5.09023 -0.0185165 0)
(5.09649 -0.0194008 0)
(5.10304 -0.0203198 0)
(5.10991 -0.0212812 0)
(5.1171 -0.0222811 0)
(5.12463 -0.0233274 0)
(5.13251 -0.024416 0)
(5.14076 -0.0255551 0)
(5.14939 -0.0267404 0)
(5.15843 -0.0279803 0)
(5.16789 -0.0292701 0)
(5.17778 -0.0306187 0)
(5.18813 -0.0320209 0)
(5.19895 -0.0334857 0)
(5.21027 -0.0350077 0)
(5.22211 -0.036596 0)
(5.23448 -0.0382446 0)
(5.24742 -0.0399628 0)
(5.26093 -0.0417439 0)
(5.27505 -0.0435971 0)
(5.2898 -0.0455151 0)
(5.3052 -0.0475068 0)
(5.32128 -0.0495639 0)
(5.33805 -0.0516949 0)
(5.35555 -0.0538903 0)
(5.37379 -0.0561579 0)
(5.3928 -0.0584867 0)
(5.4126 -0.0608834 0)
(5.43322 -0.0633351 0)
(5.45467 -0.0658471 0)
(5.47697 -0.0684042 0)
(5.50014 -0.0710099 0)
(5.5242 -0.0736463 0)
(5.54915 -0.0763145 0)
(5.57501 -0.0789937 0)
(5.60178 -0.0816823 0)
(5.62947 -0.0843564 0)
(5.65806 -0.0870116 0)
(5.68755 -0.0896207 0)
(5.71793 -0.0921768 0)
(5.74917 -0.0946498 0)
(5.78124 -0.0970309 0)
(5.81411 -0.0992881 0)
(5.84774 -0.101412 0)
(5.88208 -0.103369 0)
(5.91707 -0.10515 0)
(5.95265 -0.106725 0)
(5.98873 -0.108086 0)
(6.02525 -0.109206 0)
(6.06212 -0.110081 0)
(6.09925 -0.110689 0)
(6.13654 -0.111034 0)
(6.17392 -0.111099 0)
(6.21127 -0.110894 0)
(6.2485 -0.11041 0)
(6.28551 -0.109663 0)
(6.32223 -0.108651 0)
(6.35854 -0.107397 0)
(6.39439 -0.105903 0)
(6.42968 -0.104196 0)
(6.46434 -0.102283 0)
(6.49831 -0.100196 0)
(6.53153 -0.0979409 0)
(6.56395 -0.0955521 0)
(6.59553 -0.0930373 0)
(6.62623 -0.09043 0)
(6.65602 -0.0877376 0)
(6.68488 -0.0849921 0)
(6.7128 -0.0821991 0)
(6.73976 -0.0793889 0)
(6.76576 -0.0765644 0)
(6.7908 -0.0737534 0)
(6.81489 -0.0709562 0)
(6.83804 -0.0681978 0)
(6.86026 -0.0654758 0)
(6.88157 -0.0628127 0)
(6.90199 -0.0602036 0)
(6.92154 -0.0576687 0)
(6.94025 -0.0552008 0)
(6.95815 -0.0528183 0)
(6.97526 -0.0505119 0)
(6.99161 -0.0482986 0)
(7.00724 -0.0461672 0)
(7.02217 -0.0441333 0)
(7.03644 -0.0421843 0)
(7.05008 -0.0403349 0)
(7.06312 -0.0385708 0)
(7.07559 -0.0369062 0)
(7.08752 -0.0353257 0)
(7.09894 -0.0338432 0)
(7.10989 -0.032442 0)
(7.12038 -0.0311364 0)
(7.13046 -0.0299088 0)
(7.14015 -0.0287738 0)
(7.14947 -0.0277133 0)
(7.15845 -0.0267427 0)
(7.16713 -0.0258431 0)
(7.17552 -0.0250308 0)
(7.18365 -0.0242864 0)
(7.19155 -0.023627 0)
(7.19924 -0.0230322 0)
(7.20675 -0.02252 0)
(7.2141 -0.0220685 0)
(7.22132 -0.0216963 0)
(7.22842 -0.0213797 0)
(7.23543 -0.0211374 0)
(7.24238 -0.0209435 0)
(7.24927 -0.0208167 0)
(7.25614 -0.0207285 0)
(7.26299 -0.020698 0)
(7.26984 -0.0206942 0)
(7.2767 -0.0207368 0)
(7.28358 -0.0207929 0)
(7.2905 -0.0208844 0)
(7.29745 -0.0209767 0)
(7.30443 -0.0210954 0)
(7.31147 -0.0212058 0)
(7.31853 -0.0213385 0)
(7.32565 -0.0214593 0)
(7.3328 -0.021606 0)
(7.34 -0.0217451 0)
(7.34723 -0.0219229 0)
(7.35452 -0.0221065 0)
(7.36186 -0.0223513 0)
(7.36928 -0.0226238 0)
(7.37677 -0.0229886 0)
(7.38439 -0.0234103 0)
(7.39213 -0.0239616 0)
(7.40006 -0.0246026 0)
(7.40819 -0.0254129 0)
(7.41659 -0.0263455 0)
(7.4253 -0.0274846 0)
(7.43441 -0.0287728 0)
(7.44394 -0.0302965 0)
(7.454 -0.0319849 0)
(7.46463 -0.033923 0)
(7.47593 -0.0360243 0)
(7.48796 -0.0383691 0)
(7.50079 -0.0408533 0)
(7.51448 -0.0435496 0)
(7.5291 -0.0463363 0)
(7.54469 -0.0492769 0)
(7.56127 -0.0522341 0)
(7.57889 -0.0552623 0)
(7.59753 -0.0582134 0)
(7.6172 -0.0611351 0)
(7.63783 -0.0638762 0)
(7.65942 -0.0664816 0)
(7.68184 -0.0688065 0)
(7.70506 -0.0708989 0)
(7.72893 -0.0726296 0)
(7.75339 -0.0740545 0)
(7.77825 -0.075068 0)
(7.80345 -0.0757368 0)
(7.82878 -0.0759825 0)
(7.85419 -0.0758819 0)
(7.87949 -0.0753837 0)
(7.9046 -0.0745719 0)
(7.92938 -0.0734179 0)
(7.95375 -0.0720084 0)
(7.9776 -0.0703314 0)
(8.00085 -0.0684708 0)
(8.02352 -0.066418 0)
(8.04518 -0.0642805 0)
(8.06704 -0.0619167 0)
(8.0846 -0.0599942 0)
(8.1139 -0.0559898 0)
(5.00001 -0.000366709 0)
(5.00014 -0.00110136 0)
(5.0004 -0.00183537 0)
(5.00082 -0.00257054 0)
(5.00139 -0.00330741 0)
(5.00211 -0.00404626 0)
(5.00297 -0.00478788 0)
(5.00397 -0.00553274 0)
(5.00513 -0.00628176 0)
(5.00644 -0.00703554 0)
(5.00789 -0.00779527 0)
(5.0095 -0.00856174 0)
(5.01126 -0.00933643 0)
(5.01317 -0.0101203 0)
(5.01524 -0.0109151 0)
(5.01746 -0.0117221 0)
(5.01984 -0.0125432 0)
(5.02239 -0.0133797 0)
(5.0251 -0.0142341 0)
(5.02798 -0.0151077 0)
(5.03104 -0.0160032 0)
(5.03427 -0.0169222 0)
(5.03768 -0.0178674 0)
(5.04128 -0.0188406 0)
(5.04508 -0.0198449 0)
(5.04907 -0.0208822 0)
(5.05327 -0.0219557 0)
(5.05768 -0.0230674 0)
(5.06232 -0.0242208 0)
(5.06718 -0.025418 0)
(5.07229 -0.0266627 0)
(5.07764 -0.0279571 0)
(5.08325 -0.0293049 0)
(5.08913 -0.0307086 0)
(5.09529 -0.032172 0)
(5.10174 -0.0336975 0)
(5.1085 -0.0352892 0)
(5.11558 -0.0369496 0)
(5.12299 -0.0386827 0)
(5.13075 -0.0404911 0)
(5.13887 -0.042379 0)
(5.14737 -0.0443488 0)
(5.15627 -0.0464049 0)
(5.16559 -0.0485495 0)
(5.17533 -0.0507871 0)
(5.18553 -0.0531197 0)
(5.1962 -0.0555517 0)
(5.20736 -0.0580849 0)
(5.21903 -0.0607236 0)
(5.23123 -0.0634693 0)
(5.24399 -0.0663258 0)
(5.25733 -0.0692941 0)
(5.27127 -0.0723777 0)
(5.28584 -0.0755768 0)
(5.30105 -0.0788939 0)
(5.31695 -0.0823284 0)
(5.33354 -0.0858815 0)
(5.35085 -0.0895512 0)
(5.36892 -0.0933371 0)
(5.38776 -0.0972351 0)
(5.4074 -0.101243 0)
(5.42787 -0.105354 0)
(5.44918 -0.109562 0)
(5.47136 -0.113858 0)
(5.49443 -0.118233 0)
(5.51841 -0.122672 0)
(5.54331 -0.127162 0)
(5.56914 -0.131686 0)
(5.59593 -0.136223 0)
(5.62366 -0.14075 0)
(5.65234 -0.145244 0)
(5.68197 -0.149675 0)
(5.71253 -0.154014 0)
(5.74401 -0.158227 0)
(5.77637 -0.162282 0)
(5.8096 -0.16614 0)
(5.84364 -0.169765 0)
(5.87844 -0.173121 0)
(5.91395 -0.17617 0)
(5.95009 -0.178877 0)
(5.98679 -0.181211 0)
(6.02397 -0.18314 0)
(6.06153 -0.184642 0)
(6.09938 -0.185693 0)
(6.13742 -0.186282 0)
(6.17554 -0.186399 0)
(6.21363 -0.186042 0)
(6.2516 -0.185215 0)
(6.28933 -0.183928 0)
(6.32673 -0.182197 0)
(6.3637 -0.180043 0)
(6.40016 -0.177489 0)
(6.43602 -0.174566 0)
(6.4712 -0.171303 0)
(6.50563 -0.167735 0)
(6.53926 -0.163896 0)
(6.57204 -0.159822 0)
(6.60392 -0.155547 0)
(6.63486 -0.151109 0)
(6.66484 -0.146539 0)
(6.69384 -0.141873 0)
(6.72185 -0.137141 0)
(6.74885 -0.132373 0)
(6.77485 -0.127596 0)
(6.79986 -0.122838 0)
(6.82388 -0.118118 0)
(6.84693 -0.113461 0)
(6.86902 -0.108882 0)
(6.89018 -0.104398 0)
(6.91043 -0.100023 0)
(6.9298 -0.095769 0)
(6.94831 -0.0916437 0)
(6.96599 -0.0876572 0)
(6.98288 -0.083813 0)
(6.99901 -0.0801182 0)
(7.0144 -0.0765736 0)
(7.0291 -0.0731837 0)
(7.04313 -0.0699471 0)
(7.05653 -0.0668665 0)
(7.06933 -0.0639387 0)
(7.08156 -0.0611654 0)
(7.09325 -0.058542 0)
(7.10444 -0.0560694 0)
(7.11515 -0.0537423 0)
(7.12542 -0.0515614 0)
(7.13528 -0.0495209 0)
(7.14474 -0.0476216 0)
(7.15385 -0.0458578 0)
(7.16262 -0.0442305 0)
(7.17109 -0.0427342 0)
(7.17927 -0.0413703 0)
(7.1872 -0.0401337 0)
(7.1949 -0.0390256 0)
(7.2024 -0.0380409 0)
(7.20971 -0.0371806 0)
(7.21688 -0.0364389 0)
(7.22391 -0.035816 0)
(7.23084 -0.0353047 0)
(7.23769 -0.0349034 0)
(7.24448 -0.034603 0)
(7.25123 -0.0343998 0)
(7.25797 -0.0342821 0)
(7.26471 -0.0342444 0)
(7.27146 -0.0342721 0)
(7.27824 -0.0343589 0)
(7.28507 -0.0344883 0)
(7.29194 -0.0346548 0)
(7.29886 -0.0348414 0)
(7.30583 -0.0350462 0)
(7.31285 -0.0352538 0)
(7.31991 -0.0354684 0)
(7.32701 -0.0356789 0)
(7.33415 -0.0358978 0)
(7.34131 -0.0361202 0)
(7.34849 -0.0363685 0)
(7.35571 -0.036645 0)
(7.36294 -0.0369818 0)
(7.37021 -0.0373885 0)
(7.3775 -0.0379055 0)
(7.38488 -0.0385485 0)
(7.39233 -0.0393628 0)
(7.39992 -0.0403686 0)
(7.40766 -0.0416116 0)
(7.41563 -0.0431131 0)
(7.42386 -0.0449145 0)
(7.43245 -0.0470339 0)
(7.44144 -0.0495024 0)
(7.45095 -0.0523301 0)
(7.46102 -0.0555314 0)
(7.47178 -0.0591032 0)
(7.48328 -0.0630378 0)
(7.49564 -0.0673134 0)
(7.50892 -0.0718967 0)
(7.52321 -0.0767434 0)
(7.53856 -0.0817945 0)
(7.55503 -0.0869823 0)
(7.57265 -0.092226 0)
(7.59143 -0.0974386 0)
(7.61137 -0.102526 0)
(7.63242 -0.107391 0)
(7.65456 -0.111941 0)
(7.67766 -0.116079 0)
(7.70167 -0.119728 0)
(7.72642 -0.12281 0)
(7.75182 -0.125277 0)
(7.77767 -0.127077 0)
(7.80388 -0.128203 0)
(7.83022 -0.128633 0)
(7.8566 -0.128399 0)
(7.88281 -0.127512 0)
(7.90877 -0.126034 0)
(7.9343 -0.123998 0)
(7.95933 -0.121491 0)
(7.98374 -0.118557 0)
(8.00744 -0.115293 0)
(8.03046 -0.111736 0)
(8.05238 -0.108026 0)
(8.0744 -0.103986 0)
(8.09211 -0.10065 0)
(8.12142 -0.0939176 0)
(5.00001 -0.000512521 0)
(5.00014 -0.00153887 0)
(5.0004 -0.00256416 0)
(5.00081 -0.00359087 0)
(5.00138 -0.00461951 0)
(5.00209 -0.00565061 0)
(5.00294 -0.00668499 0)
(5.00394 -0.00772352 0)
(5.00509 -0.00876721 0)
(5.00639 -0.00981717 0)
(5.00783 -0.0108748 0)
(5.00942 -0.0119414 0)
(5.01115 -0.0130188 0)
(5.01304 -0.0141086 0)
(5.01508 -0.015213 0)
(5.01728 -0.0163339 0)
(5.01963 -0.0174738 0)
(5.02213 -0.0186351 0)
(5.0248 -0.0198203 0)
(5.02764 -0.0210323 0)
(5.03064 -0.022274 0)
(5.03381 -0.0235483 0)
(5.03716 -0.0248585 0)
(5.04069 -0.0262079 0)
(5.04441 -0.0275999 0)
(5.04832 -0.0290381 0)
(5.05244 -0.0305261 0)
(5.05676 -0.0320676 0)
(5.06129 -0.0336666 0)
(5.06605 -0.0353271 0)
(5.07104 -0.0370531 0)
(5.07627 -0.0388487 0)
(5.08175 -0.0407183 0)
(5.08749 -0.0426662 0)
(5.09351 -0.0446967 0)
(5.09981 -0.0468144 0)
(5.10641 -0.0490238 0)
(5.11332 -0.0513296 0)
(5.12055 -0.0537364 0)
(5.12813 -0.0562488 0)
(5.13606 -0.0588718 0)
(5.14437 -0.06161 0)
(5.15306 -0.0644683 0)
(5.16216 -0.0674513 0)
(5.17168 -0.070564 0)
(5.18165 -0.0738109 0)
(5.19208 -0.0771967 0)
(5.20299 -0.0807259 0)
(5.21441 -0.084403 0)
(5.22636 -0.088232 0)
(5.23885 -0.0922169 0)
(5.25192 -0.0963614 0)
(5.26559 -0.100669 0)
(5.27988 -0.105141 0)
(5.29482 -0.109782 0)
(5.31043 -0.114591 0)
(5.32674 -0.119571 0)
(5.34378 -0.12472 0)
(5.36158 -0.130037 0)
(5.38016 -0.135519 0)
(5.39954 -0.141161 0)
(5.41977 -0.146958 0)
(5.44086 -0.1529 0)
(5.46284 -0.158976 0)
(5.48574 -0.165174 0)
(5.50958 -0.171475 0)
(5.53438 -0.177861 0)
(5.56016 -0.184308 0)
(5.58694 -0.190787 0)
(5.61472 -0.197268 0)
(5.64352 -0.203715 0)
(5.67334 -0.210088 0)
(5.70417 -0.216343 0)
(5.73599 -0.222433 0)
(5.7688 -0.228306 0)
(5.80254 -0.233909 0)
(5.8372 -0.239186 0)
(5.87271 -0.24408 0)
(5.90901 -0.248537 0)
(5.94604 -0.252503 0)
(5.9837 -0.255926 0)
(6.0219 -0.258761 0)
(6.06054 -0.26097 0)
(6.09951 -0.26252 0)
(6.1387 -0.26339 0)
(6.17798 -0.263565 0)
(6.21724 -0.263043 0)
(6.25635 -0.261831 0)
(6.29519 -0.259943 0)
(6.33366 -0.257406 0)
(6.37164 -0.254252 0)
(6.40904 -0.250521 0)
(6.44577 -0.246256 0)
(6.48173 -0.241506 0)
(6.51687 -0.236323 0)
(6.55113 -0.230759 0)
(6.58443 -0.224867 0)
(6.61676 -0.218699 0)
(6.64806 -0.212307 0)
(6.67832 -0.20574 0)
(6.70753 -0.199046 0)
(6.73566 -0.192267 0)
(6.76272 -0.185448 0)
(6.78872 -0.178625 0)
(6.81366 -0.171835 0)
(6.83756 -0.16511 0)
(6.86044 -0.158479 0)
(6.88232 -0.151969 0)
(6.90323 -0.145601 0)
(6.92321 -0.139395 0)
(6.94227 -0.133368 0)
(6.96046 -0.127534 0)
(6.9778 -0.121902 0)
(6.99434 -0.116482 0)
(7.01011 -0.11128 0)
(7.02513 -0.106298 0)
(7.03946 -0.101541 0)
(7.05312 -0.0970075 0)
(7.06615 -0.0926981 0)
(7.07859 -0.0886097 0)
(7.09045 -0.084741 0)
(7.10179 -0.0810873 0)
(7.11263 -0.077646 0)
(7.123 -0.0744115 0)
(7.13294 -0.0713811 0)
(7.14246 -0.0685489 0)
(7.1516 -0.0659125 0)
(7.16039 -0.0634664 0)
(7.16884 -0.061209 0)
(7.177 -0.0591357 0)
(7.18488 -0.0572456 0)
(7.19251 -0.0555352 0)
(7.19991 -0.0540037 0)
(7.20712 -0.0526482 0)
(7.21415 -0.0514672 0)
(7.22104 -0.0504574 0)
(7.2278 -0.0496155 0)
(7.23447 -0.0489363 0)
(7.24106 -0.0484135 0)
(7.24762 -0.0480389 0)
(7.25416 -0.0478021 0)
(7.2607 -0.0476908 0)
(7.26726 -0.0476912 0)
(7.27387 -0.0477863 0)
(7.28054 -0.0479602 0)
(7.28727 -0.0481926 0)
(7.29408 -0.048468 0)
(7.30096 -0.0487652 0)
(7.30791 -0.0490734 0)
(7.31493 -0.0493738 0)
(7.322 -0.0496647 0)
(7.32911 -0.0499338 0)
(7.33624 -0.0501922 0)
(7.34339 -0.0504375 0)
(7.35052 -0.0506956 0)
(7.35764 -0.0509763 0)
(7.36472 -0.0513198 0)
(7.37179 -0.0517485 0)
(7.37881 -0.0523146 0)
(7.38584 -0.0530515 0)
(7.39287 -0.0540184 0)
(7.39995 -0.0552576 0)
(7.40709 -0.0568288 0)
(7.41439 -0.058779 0)
(7.42188 -0.0611605 0)
(7.42966 -0.0640196 0)
(7.43779 -0.0673923 0)
(7.44641 -0.0713169 0)
(7.45557 -0.075803 0)
(7.46542 -0.0808724 0)
(7.47606 -0.0864993 0)
(7.48761 -0.092679 0)
(7.50018 -0.0993441 0)
(7.51388 -0.106456 0)
(7.5288 -0.113903 0)
(7.54502 -0.121608 0)
(7.56259 -0.129424 0)
(7.58155 -0.137239 0)
(7.6019 -0.144881 0)
(7.6236 -0.152218 0)
(7.64662 -0.159078 0)
(7.67081 -0.165328 0)
(7.69611 -0.170824 0)
(7.7223 -0.175456 0)
(7.74926 -0.179133 0)
(7.77674 -0.181788 0)
(7.8046 -0.183397 0)
(7.83258 -0.183945 0)
(7.86054 -0.183475 0)
(7.88824 -0.182017 0)
(7.91555 -0.179671 0)
(7.94229 -0.176499 0)
(7.96836 -0.172636 0)
(7.99363 -0.168162 0)
(8.01801 -0.163227 0)
(8.04154 -0.157897 0)
(8.06381 -0.152381 0)
(8.08601 -0.146439 0)
(8.10388 -0.141552 0)
(8.13302 -0.13184 0)
(5.00001 -0.000657305 0)
(5.00014 -0.00197338 0)
(5.0004 -0.00328787 0)
(5.00081 -0.00460383 0)
(5.00137 -0.00592171 0)
(5.00207 -0.00724211 0)
(5.00292 -0.00856595 0)
(5.00391 -0.00989428 0)
(5.00505 -0.0112283 0)
(5.00633 -0.0125694 0)
(5.00775 -0.0139193 0)
(5.00932 -0.0152798 0)
(5.01103 -0.016653 0)
(5.01289 -0.0180411 0)
(5.0149 -0.0194468 0)
(5.01705 -0.0208727 0)
(5.01936 -0.0223218 0)
(5.02182 -0.0237973 0)
(5.02443 -0.0253027 0)
(5.0272 -0.0268413 0)
(5.03013 -0.0284171 0)
(5.03323 -0.030034 0)
(5.03649 -0.0316961 0)
(5.03994 -0.0334078 0)
(5.04356 -0.0351734 0)
(5.04736 -0.0369977 0)
(5.05136 -0.0388854 0)
(5.05555 -0.0408414 0)
(5.05995 -0.0428708 0)
(5.06457 -0.0449788 0)
(5.06941 -0.0471707 0)
(5.07447 -0.0494518 0)
(5.07978 -0.0518278 0)
(5.08535 -0.0543041 0)
(5.09117 -0.0568866 0)
(5.09727 -0.059581 0)
(5.10366 -0.0623933 0)
(5.11035 -0.0653293 0)
(5.11736 -0.0683951 0)
(5.12469 -0.0715968 0)
(5.13237 -0.0749405 0)
(5.14041 -0.0784325 0)
(5.14883 -0.0820789 0)
(5.15764 -0.085886 0)
(5.16686 -0.0898601 0)
(5.17652 -0.0940072 0)
(5.18663 -0.0983337 0)
(5.19722 -0.102845 0)
(5.2083 -0.107548 0)
(5.2199 -0.112448 0)
(5.23204 -0.117551 0)
(5.24474 -0.122861 0)
(5.25804 -0.128384 0)
(5.27195 -0.134124 0)
(5.28651 -0.140084 0)
(5.30173 -0.146268 0)
(5.31766 -0.152677 0)
(5.33432 -0.159312 0)
(5.35173 -0.166173 0)
(5.36994 -0.173257 0)
(5.38897 -0.180561 0)
(5.40885 -0.188077 0)
(5.42962 -0.195797 0)
(5.45131 -0.203708 0)
(5.47394 -0.211796 0)
(5.49756 -0.220039 0)
(5.52219 -0.228415 0)
(5.54786 -0.236894 0)
(5.57459 -0.245441 0)
(5.60241 -0.254016 0)
(5.63133 -0.262574 0)
(5.66136 -0.271062 0)
(5.69252 -0.279421 0)
(5.72478 -0.287586 0)
(5.75815 -0.295487 0)
(5.79259 -0.30305 0)
(5.82807 -0.310196 0)
(5.86454 -0.316845 0)
(5.90193 -0.322916 0)
(5.94017 -0.328331 0)
(5.97916 -0.333016 0)
(6.0188 -0.336905 0)
(6.05896 -0.339939 0)
(6.09951 -0.342074 0)
(6.14032 -0.343274 0)
(6.18125 -0.343523 0)
(6.22215 -0.342815 0)
(6.26287 -0.341161 0)
(6.30328 -0.338584 0)
(6.34324 -0.335121 0)
(6.38263 -0.330819 0)
(6.42133 -0.325736 0)
(6.45925 -0.319937 0)
(6.49629 -0.313491 0)
(6.53238 -0.306474 0)
(6.56745 -0.298959 0)
(6.60145 -0.291025 0)
(6.63435 -0.282743 0)
(6.66611 -0.274187 0)
(6.69672 -0.265425 0)
(6.72616 -0.256519 0)
(6.75444 -0.24753 0)
(6.78155 -0.238512 0)
(6.80752 -0.229514 0)
(6.83235 -0.220582 0)
(6.85607 -0.211755 0)
(6.87871 -0.203069 0)
(6.90029 -0.194557 0)
(6.92086 -0.186245 0)
(6.94045 -0.178158 0)
(6.95909 -0.170315 0)
(6.97683 -0.162733 0)
(6.99371 -0.155426 0)
(7.00976 -0.148403 0)
(7.02503 -0.141671 0)
(7.03955 -0.135235 0)
(7.05337 -0.129098 0)
(7.06652 -0.123257 0)
(7.07905 -0.117713 0)
(7.09098 -0.112461 0)
(7.10236 -0.107497 0)
(7.11322 -0.102814 0)
(7.12359 -0.0984066 0)
(7.1335 -0.0942676 0)
(7.14298 -0.0903913 0)
(7.15206 -0.0867692 0)
(7.16077 -0.083397 0)
(7.16914 -0.0802671 0)
(7.17718 -0.0773767 0)
(7.18493 -0.0747204 0)
(7.1924 -0.0722969 0)
(7.19963 -0.0701033 0)
(7.20663 -0.0681398 0)
(7.21345 -0.0664053 0)
(7.22009 -0.0649 0)
(7.22659 -0.063623 0)
(7.23297 -0.0625721 0)
(7.23928 -0.0617442 0)
(7.24554 -0.0611321 0)
(7.25177 -0.0607273 0)
(7.25801 -0.0605157 0)
(7.26429 -0.0604813 0)
(7.27063 -0.0606025 0)
(7.27705 -0.060855 0)
(7.28357 -0.0612118 0)
(7.29021 -0.061642 0)
(7.29696 -0.0621179 0)
(7.30383 -0.0626058 0)
(7.3108 -0.0630837 0)
(7.31787 -0.0635217 0)
(7.325 -0.0639108 0)
(7.33218 -0.0642312 0)
(7.33937 -0.0644934 0)
(7.34655 -0.0646931 0)
(7.35368 -0.064864 0)
(7.36073 -0.0650202 0)
(7.36767 -0.0652181 0)
(7.37451 -0.0654906 0)
(7.3812 -0.0659124 0)
(7.38779 -0.0665333 0)
(7.39424 -0.0674394 0)
(7.40064 -0.0686939 0)
(7.40697 -0.0703852 0)
(7.41334 -0.0725851 0)
(7.41978 -0.0753738 0)
(7.42641 -0.0788246 0)
(7.43329 -0.0829967 0)
(7.4406 -0.087955 0)
(7.44841 -0.0937236 0)
(7.45692 -0.100346 0)
(7.46623 -0.107796 0)
(7.47655 -0.11608 0)
(7.48799 -0.12511 0)
(7.50075 -0.134842 0)
(7.51494 -0.145119 0)
(7.53069 -0.155838 0)
(7.54811 -0.166779 0)
(7.56724 -0.177781 0)
(7.58813 -0.188585 0)
(7.61073 -0.19899 0)
(7.63502 -0.20873 0)
(7.6608 -0.2176 0)
(7.68799 -0.225375 0)
(7.71631 -0.231888 0)
(7.74558 -0.236997 0)
(7.77546 -0.240609 0)
(7.80577 -0.242688 0)
(7.83614 -0.243225 0)
(7.86639 -0.242291 0)
(7.89621 -0.239949 0)
(7.92545 -0.236352 0)
(7.95385 -0.231612 0)
(7.98134 -0.225933 0)
(8.00774 -0.219448 0)
(8.03298 -0.212379 0)
(8.0571 -0.204837 0)
(8.07972 -0.197118 0)
(8.10203 -0.188917 0)
(8.12002 -0.182213 0)
(8.14878 -0.169183 0)
(5.00001 -0.000801147 0)
(5.00014 -0.00240512 0)
(5.00039 -0.00400673 0)
(5.0008 -0.00560952 0)
(5.00136 -0.0072138 0)
(5.00206 -0.00882009 0)
(5.0029 -0.0104293 0)
(5.00388 -0.0120427 0)
(5.005 -0.0136614 0)
(5.00627 -0.0152873 0)
(5.00767 -0.0169221 0)
(5.00922 -0.0185682 0)
(5.0109 -0.020228 0)
(5.01273 -0.0219045 0)
(5.01469 -0.0236006 0)
(5.0168 -0.0253198 0)
(5.01905 -0.0270658 0)
(5.02145 -0.0288425 0)
(5.024 -0.030654 0)
(5.02669 -0.0325048 0)
(5.02954 -0.0343994 0)
(5.03255 -0.0363428 0)
(5.03571 -0.0383399 0)
(5.03904 -0.040396 0)
(5.04254 -0.0425166 0)
(5.04621 -0.0447074 0)
(5.05006 -0.046974 0)
(5.05411 -0.0493227 0)
(5.05834 -0.0517596 0)
(5.06278 -0.054291 0)
(5.06743 -0.0569234 0)
(5.07229 -0.0596637 0)
(5.07739 -0.0625186 0)
(5.08273 -0.0654951 0)
(5.08831 -0.0686002 0)
(5.09416 -0.0718414 0)
(5.10029 -0.0752259 0)
(5.1067 -0.0787611 0)
(5.11341 -0.0824546 0)
(5.12044 -0.0863141 0)
(5.1278 -0.0903473 0)
(5.13551 -0.0945619 0)
(5.14358 -0.0989657 0)
(5.15203 -0.103567 0)
(5.16089 -0.108373 0)
(5.17016 -0.113391 0)
(5.17987 -0.118631 0)
(5.19004 -0.124099 0)
(5.2007 -0.129803 0)
(5.21186 -0.135751 0)
(5.22355 -0.141951 0)
(5.23579 -0.148408 0)
(5.24861 -0.155131 0)
(5.26204 -0.162125 0)
(5.27611 -0.169396 0)
(5.29084 -0.176949 0)
(5.30626 -0.184789 0)
(5.32242 -0.192917 0)
(5.33933 -0.201336 0)
(5.35705 -0.210045 0)
(5.37559 -0.219041 0)
(5.39501 -0.22832 0)
(5.41533 -0.237874 0)
(5.4366 -0.24769 0)
(5.45886 -0.257753 0)
(5.48214 -0.268043 0)
(5.5065 -0.278531 0)
(5.53196 -0.289187 0)
(5.55857 -0.299969 0)
(5.58636 -0.31083 0)
(5.61537 -0.321713 0)
(5.64561 -0.332554 0)
(5.67711 -0.343277 0)
(5.70989 -0.3538 0)
(5.74392 -0.364028 0)
(5.77922 -0.373863 0)
(5.81573 -0.383195 0)
(5.85343 -0.391914 0)
(5.89223 -0.399906 0)
(5.93206 -0.407058 0)
(5.97281 -0.413264 0)
(6.01435 -0.418426 0)
(6.05654 -0.422459 0)
(6.09921 -0.425297 0)
(6.14221 -0.426893 0)
(6.18534 -0.427222 0)
(6.22844 -0.426281 0)
(6.27132 -0.424089 0)
(6.31381 -0.420683 0)
(6.35576 -0.416118 0)
(6.39702 -0.410464 0)
(6.43744 -0.4038 0)
(6.47693 -0.396218 0)
(6.51537 -0.387813 0)
(6.55268 -0.378687 0)
(6.5888 -0.368942 0)
(6.62368 -0.35868 0)
(6.65728 -0.348 0)
(6.68959 -0.336999 0)
(6.7206 -0.325767 0)
(6.7503 -0.314389 0)
(6.7787 -0.302943 0)
(6.80583 -0.291499 0)
(6.8317 -0.280121 0)
(6.85635 -0.268864 0)
(6.8798 -0.257778 0)
(6.9021 -0.246904 0)
(6.92329 -0.236279 0)
(6.9434 -0.225935 0)
(6.96248 -0.215897 0)
(6.98058 -0.206187 0)
(6.99774 -0.196821 0)
(7.01401 -0.187814 0)
(7.02943 -0.179175 0)
(7.04406 -0.170911 0)
(7.05794 -0.163026 0)
(7.07111 -0.15552 0)
(7.08362 -0.148391 0)
(7.09551 -0.141636 0)
(7.10681 -0.135247 0)
(7.11757 -0.129219 0)
(7.12782 -0.123541 0)
(7.1376 -0.118204 0)
(7.14693 -0.113197 0)
(7.15585 -0.108511 0)
(7.16439 -0.104134 0)
(7.17257 -0.10006 0)
(7.18041 -0.0962776 0)
(7.18794 -0.0927828 0)
(7.19518 -0.0895681 0)
(7.20214 -0.0866325 0)
(7.20887 -0.0839724 0)
(7.21537 -0.0815897 0)
(7.22167 -0.0794848 0)
(7.2278 -0.077661 0)
(7.23379 -0.0761211 0)
(7.23966 -0.0748667 0)
(7.24546 -0.0738993 0)
(7.25122 -0.0732143 0)
(7.25699 -0.0728069 0)
(7.26279 -0.0726615 0)
(7.26868 -0.0727613 0)
(7.27468 -0.0730774 0)
(7.28082 -0.0735778 0)
(7.28713 -0.0742216 0)
(7.29363 -0.0749628 0)
(7.30032 -0.0757552 0)
(7.3072 -0.0765455 0)
(7.31425 -0.0772926 0)
(7.32145 -0.0779463 0)
(7.32875 -0.0784837 0)
(7.33611 -0.0788691 0)
(7.34347 -0.0791089 0)
(7.35079 -0.0791916 0)
(7.358 -0.0791591 0)
(7.36506 -0.0790287 0)
(7.3719 -0.0788769 0)
(7.37851 -0.0787495 0)
(7.38483 -0.0787511 0)
(7.39089 -0.0789527 0)
(7.39663 -0.079477 0)
(7.40214 -0.080415 0)
(7.40738 -0.0818961 0)
(7.41249 -0.0840258 0)
(7.41747 -0.0869259 0)
(7.42249 -0.0907084 0)
(7.4276 -0.0954711 0)
(7.43302 -0.101319 0)
(7.43885 -0.108306 0)
(7.44534 -0.116512 0)
(7.45265 -0.125923 0)
(7.46104 -0.136568 0)
(7.47069 -0.148344 0)
(7.48187 -0.161204 0)
(7.49478 -0.174942 0)
(7.50962 -0.189416 0)
(7.52655 -0.204319 0)
(7.54568 -0.219415 0)
(7.56711 -0.234323 0)
(7.59078 -0.248735 0)
(7.61667 -0.262251 0)
(7.64457 -0.274549 0)
(7.67432 -0.285285 0)
(7.70554 -0.2942 0)
(7.73798 -0.301084 0)
(7.77116 -0.305801 0)
(7.8048 -0.308316 0)
(7.83842 -0.308632 0)
(7.87174 -0.306876 0)
(7.90437 -0.303165 0)
(7.9361 -0.297744 0)
(7.96663 -0.290797 0)
(7.99586 -0.282634 0)
(8.02359 -0.273461 0)
(8.04977 -0.263605 0)
(8.07445 -0.253243 0)
(8.09732 -0.242778 0)
(8.1195 -0.231846 0)
(8.13743 -0.222985 0)
(8.16525 -0.206218 0)
(5.00001 -0.000944348 0)
(5.00014 -0.00283495 0)
(5.00039 -0.00472207 0)
(5.0008 -0.00660963 0)
(5.00136 -0.0084976 0)
(5.00205 -0.0103863 0)
(5.00288 -0.0122766 0)
(5.00386 -0.0141696 0)
(5.00497 -0.0160667 0)
(5.00622 -0.0179696 0)
(5.0076 -0.0198806 0)
(5.00912 -0.0218023 0)
(5.01078 -0.0237376 0)
(5.01257 -0.0256898 0)
(5.01449 -0.0276628 0)
(5.01655 -0.0296605 0)
(5.01874 -0.0316875 0)
(5.02107 -0.0337485 0)
(5.02354 -0.0358487 0)
(5.02615 -0.0379934 0)
(5.0289 -0.0401883 0)
(5.0318 -0.0424394 0)
(5.03484 -0.0447527 0)
(5.03804 -0.0471347 0)
(5.0414 -0.0495918 0)
(5.04492 -0.052131 0)
(5.0486 -0.054759 0)
(5.05247 -0.0574832 0)
(5.05651 -0.0603106 0)
(5.06074 -0.063249 0)
(5.06516 -0.0663058 0)
(5.0698 -0.069489 0)
(5.07464 -0.0728066 0)
(5.07971 -0.0762667 0)
(5.08502 -0.0798776 0)
(5.09057 -0.083648 0)
(5.09638 -0.0875864 0)
(5.10246 -0.0917017 0)
(5.10882 -0.0960028 0)
(5.11549 -0.100499 0)
(5.12247 -0.105199 0)
(5.12978 -0.110113 0)
(5.13743 -0.115249 0)
(5.14545 -0.120618 0)
(5.15385 -0.126229 0)
(5.16266 -0.132092 0)
(5.17189 -0.138216 0)
(5.18156 -0.144611 0)
(5.19169 -0.151288 0)
(5.20232 -0.158254 0)
(5.21345 -0.165521 0)
(5.22513 -0.173098 0)
(5.23737 -0.180994 0)
(5.2502 -0.189217 0)
(5.26366 -0.197776 0)
(5.27777 -0.20668 0)
(5.29256 -0.215935 0)
(5.30808 -0.225548 0)
(5.32436 -0.235523 0)
(5.34143 -0.245863 0)
(5.35935 -0.256569 0)
(5.37814 -0.267641 0)
(5.39786 -0.279072 0)
(5.41856 -0.290855 0)
(5.44028 -0.302975 0)
(5.46307 -0.315414 0)
(5.487 -0.328145 0)
(5.51211 -0.341136 0)
(5.53847 -0.354342 0)
(5.56612 -0.367712 0)
(5.59511 -0.381179 0)
(5.6255 -0.394667 0)
(5.65733 -0.408085 0)
(5.69062 -0.421328 0)
(5.7254 -0.434276 0)
(5.76168 -0.446798 0)
(5.79943 -0.458749 0)
(5.83862 -0.469974 0)
(5.87919 -0.480316 0)
(5.92104 -0.489614 0)
(5.96406 -0.497714 0)
(6.00808 -0.504472 0)
(6.05293 -0.509764 0)
(6.09841 -0.513491 0)
(6.14428 -0.515582 0)
(6.19033 -0.516001 0)
(6.23632 -0.514748 0)
(6.28203 -0.511854 0)
(6.32724 -0.507382 0)
(6.37176 -0.501418 0)
(6.41541 -0.494069 0)
(6.45804 -0.485457 0)
(6.49952 -0.475709 0)
(6.53973 -0.464963 0)
(6.57859 -0.453353 0)
(6.61602 -0.441015 0)
(6.65199 -0.428079 0)
(6.68646 -0.414672 0)
(6.71942 -0.400915 0)
(6.75087 -0.386919 0)
(6.78082 -0.37279 0)