/*--------------------------------*- C++ -*----------------------------------*\
  =========                 |
  \\      /  F ield         | OpenFOAM: The Open Source CFD Toolbox
   \\    /   O peration     | Website:  https://openfoam.org
    \\  /    A nd           | Version:  10
     \\/     M anipulation  |
\*---------------------------------------------------------------------------*/
FoamFile
{
    format      ascii;
    class       surfaceScalarField;
    location    "1.44";
    object      phi;
}
// * * * * * * * * * * * * * * * * * * * * * * * * * * * * * * * * * * * * * //

dimensions      [0 3 -1 0 0 0 0];

internalField   nonuniform List<scalar> 
24170
(
1.43601e-09
-1.43601e-09
2.66606e-09
-1.23006e-09
3.64124e-09
-9.75184e-10
4.38033e-09
-7.3909e-10
4.93143e-09
-5.51091e-10
5.34644e-09
-4.15019e-10
5.67018e-09
-3.23733e-10
5.93796e-09
-2.67784e-10
6.17713e-09
-2.39173e-10
6.4097e-09
-2.32565e-10
6.65531e-09
-2.45611e-10
6.93469e-09
-2.79377e-10
7.27445e-09
-3.39759e-10
7.71609e-09
-4.41644e-10
8.3375e-09
-6.21408e-10
9.31899e-09
-9.81493e-10
1.12189e-08
-1.89993e-09
-5.41313e-09
1.66321e-08
1.63471e-09
-3.07071e-09
3.02877e-09
-2.62412e-09
4.12697e-09
-2.07339e-09
4.95324e-09
-1.56535e-09
5.56461e-09
-1.16246e-09
6.02155e-09
-8.71958e-10
6.37558e-09
-6.77767e-10
6.66696e-09
-5.59166e-10
6.92654e-09
-4.98756e-10
7.17892e-09
-4.84938e-10
7.44579e-09
-5.12479e-10
7.74968e-09
-5.8327e-10
8.11893e-09
-7.09011e-10
8.59628e-09
-9.18997e-10
9.25715e-09
-1.28228e-09
1.02529e-08
-1.97725e-09
1.18927e-08
-3.53975e-09
-7.77471e-09
1.42543e-08
1.83186e-09
-4.90257e-09
3.38476e-09
-4.17702e-09
4.59797e-09
-3.2866e-09
5.50259e-09
-2.46997e-09
6.16606e-09
-1.82593e-09
6.65794e-09
-1.36383e-09
7.03643e-09
-1.05626e-09
7.34636e-09
-8.69105e-10
7.62167e-09
-7.74057e-10
7.88895e-09
-7.52227e-10
8.17125e-09
-7.94779e-10
8.49174e-09
-9.03757e-10
8.87823e-09
-1.0955e-09
9.36964e-09
-1.41041e-09
1.00258e-08
-1.93845e-09
1.09349e-08
-2.88629e-09
1.21423e-08
-4.74716e-09
-8.58488e-09
1.29524e-08
2.05089e-09
-6.95347e-09
3.77502e-09
-5.90114e-09
5.10666e-09
-4.61824e-09
6.08774e-09
-3.45106e-09
6.79924e-09
-2.53743e-09
7.32153e-09
-1.88612e-09
7.72022e-09
-1.45494e-09
8.04482e-09
-1.1937e-09
8.33208e-09
-1.06132e-09
8.61025e-09
-1.03039e-09
8.90298e-09
-1.08751e-09
9.23292e-09
-1.2337e-09
9.62514e-09
-1.48773e-09
1.01103e-08
-1.89555e-09
1.07243e-08
-2.55242e-09
1.14864e-08
-3.64839e-09
1.22745e-08
-5.53533e-09
-8.65902e-09
1.23487e-08
2.30558e-09
-9.25905e-09
4.22156e-09
-7.81712e-09
5.67826e-09
-6.07495e-09
6.73427e-09
-4.50707e-09
7.48883e-09
-3.29198e-09
8.03576e-09
-2.43306e-09
8.44914e-09
-1.86832e-09
8.78334e-09
-1.52791e-09
9.07774e-09
-1.35572e-09
9.36169e-09
-1.31434e-09
9.65869e-09
-1.38451e-09
9.98964e-09
-1.56464e-09
1.03748e-08
-1.8729e-09
1.08335e-08
-2.35421e-09
1.13752e-08
-3.09418e-09
1.19647e-08
-4.23786e-09
1.24116e-08
-5.98228e-09
-8.4034e-09
1.2156e-08
2.61112e-09
-1.18702e-08
4.74697e-09
-9.95297e-09
6.33651e-09
-7.66449e-09
7.46401e-09
-5.63456e-09
8.25391e-09
-4.08188e-09
8.81708e-09
-2.99623e-09
9.23735e-09
-2.28859e-09
9.57419e-09
-1.86474e-09
9.86923e-09
-1.65076e-09
1.01523e-08
-1.59741e-09
1.04459e-08
-1.6781e-09
1.07679e-08
-1.88667e-09
1.11324e-08
-2.23736e-09
1.15459e-08
-2.76776e-09
1.19951e-08
-3.54334e-09
1.24118e-08
-4.65458e-09
1.26048e-08
-6.1753e-09
-8.01053e-09
1.2212e-08
2.98795e-09
-1.48581e-08
5.38001e-09
-1.2345e-08
7.10962e-09
-9.3941e-09
8.30109e-09
-6.82604e-09
9.11405e-09
-4.89484e-09
9.68104e-09
-3.56322e-09
1.00972e-08
-2.70476e-09
1.04271e-08
-2.19468e-09
1.07142e-08
-1.93781e-09
1.09879e-08
-1.87109e-09
1.12687e-08
-1.95897e-09
1.15707e-08
-2.18867e-09
1.19008e-08
-2.56739e-09
1.22538e-08
-3.12077e-09
1.25998e-08
-3.88938e-09
1.2859e-08
-4.91377e-09
1.28724e-08
-6.18869e-09
-7.5675e-09
1.24294e-08
3.46586e-09
-1.8324e-08
6.16031e-09
-1.50395e-08
8.03414e-09
-1.12679e-08
9.27489e-09
-8.06679e-09
1.00916e-08
-5.7115e-09
1.06443e-08
-4.11598e-09
1.10411e-08
-3.10156e-09
1.13514e-08
-2.50493e-09
1.16193e-08
-2.20571e-09
1.1873e-08
-2.12486e-09
1.21303e-08
-2.21626e-09
1.24004e-08
-2.45875e-09
1.26832e-08
-2.85018e-09
1.29643e-08
-3.40188e-09
1.32049e-08
-4.13004e-09
1.33286e-08
-5.03745e-09
1.32181e-08
-6.07821e-09
-7.11161e-09
1.27623e-08
4.09057e-09
-2.24145e-08
7.14493e-09
-1.80938e-08
9.1593e-09
-1.32823e-08
1.04224e-08
-9.32993e-09
1.12129e-08
-6.50198e-09
1.17256e-08
-4.62861e-09
1.20821e-08
-3.45814e-09
1.23559e-08
-2.77874e-09
1.25906e-08
-2.4404e-09
1.28118e-08
-2.34607e-09
1.30334e-08
-2.43778e-09
1.32594e-08
-2.6848e-09
1.34838e-08
-3.07451e-09
1.36858e-08
-3.60391e-09
1.38248e-08
-4.26901e-09
1.38359e-08
-5.0486e-09
1.36404e-08
-5.88272e-09
-6.65736e-09
1.31862e-08
4.93542e-09
-2.735e-08
8.41852e-09
-2.15769e-08
1.05526e-08
-1.54164e-08
1.17909e-08
-1.05683e-08
1.25097e-08
-7.22074e-09
1.29457e-08
-5.06457e-09
1.32342e-08
-3.74664e-09
1.34501e-08
-2.99467e-09
1.36343e-08
-2.62464e-09
1.38083e-08
-2.52001e-09
1.39809e-08
-2.61035e-09
1.41511e-08
-2.85504e-09
1.43078e-08
-3.23119e-09
1.44273e-08
-3.72344e-09
1.44717e-08
-4.31342e-09
1.4391e-08
-4.96785e-09
1.41362e-08
-5.62796e-09
-6.20913e-09
1.3688e-08
6.12378e-09
-3.34737e-08
1.01101e-08
-2.55632e-08
1.23074e-08
-1.76137e-08
1.344e-08
-1.17009e-08
1.40186e-08
-7.7993e-09
1.43272e-08
-5.37317e-09
1.45112e-08
-3.9306e-09
1.46425e-08
-3.126e-09
1.47558e-08
-2.73796e-09
1.48659e-08
-2.63015e-09
1.49758e-08
-2.72022e-09
1.50792e-08
-2.95846e-09
1.51613e-08
-3.31323e-09
1.51978e-08
-3.75994e-09
1.51561e-08
-4.2718e-09
1.50004e-08
-4.81209e-09
1.47027e-08
-5.3303e-09
-5.7669e-09
1.42605e-08
6.53403e-09
-4.00078e-08
1.03388e-08
-2.9368e-08
1.21462e-08
-1.94211e-08
1.29162e-08
-1.24709e-08
1.32178e-08
-8.1009e-09
1.33262e-08
-5.48159e-09
1.33643e-08
-3.96866e-09
1.33842e-08
-3.14595e-09
1.34063e-08
-2.76006e-09
1.34356e-08
-2.65944e-09
1.34687e-08
-2.75333e-09
1.34963e-08
-2.98601e-09
1.35035e-08
-3.32043e-09
1.34706e-08
-3.7271e-09
1.33749e-08
-4.17605e-09
1.31946e-08
-4.63182e-09
1.29169e-08
-5.05262e-09
-5.39551e-09
1.25455e-08
9.71064e-09
-4.97184e-08
1.45355e-08
-3.41929e-08
1.63506e-08
-2.12362e-08
1.68559e-08
-1.29762e-08
1.68825e-08
-8.12748e-09
1.67686e-08
-5.36761e-09
1.66384e-08
-3.83846e-09
1.65316e-08
-3.03915e-09
1.64552e-08
-2.6837e-09
1.64034e-08
-2.60768e-09
1.63644e-08
-2.71432e-09
1.63225e-08
-2.94403e-09
1.62586e-08
-3.25654e-09
1.61515e-08
-3.62006e-09
1.59801e-08
-4.00467e-09
1.57275e-08
-4.37918e-09
1.53865e-08
-4.71164e-09
-4.97332e-09
1.49643e-08
1.56769e-08
-6.53953e-08
2.14546e-08
-3.99706e-08
2.26375e-08
-2.24191e-08
2.23567e-08
-1.26954e-08
2.17655e-08
-7.53622e-09
2.1211e-08
-4.81314e-09
2.07702e-08
-3.39767e-09
2.04391e-08
-2.708e-09
2.01932e-08
-2.43782e-09
2.00053e-08
-2.41978e-09
1.98491e-08
-2.55815e-09
1.96996e-08
-2.79453e-09
1.95327e-08
-3.08958e-09
1.93257e-08
-3.41305e-09
1.90595e-08
-3.7385e-09
1.87216e-08
-4.04132e-09
1.83094e-08
-4.29937e-09
-4.4952e-09
1.78312e-08
2.86749e-08
-9.40702e-08
3.37235e-08
-4.50192e-08
3.23364e-08
-2.1032e-08
3.01135e-08
-1.04725e-08
2.82708e-08
-5.69346e-09
2.69182e-08
-3.46061e-09
2.59516e-08
-2.43103e-09
2.52565e-08
-2.0129e-09
2.47436e-08
-1.92494e-09
2.4347e-08
-2.02314e-09
2.40169e-08
-2.22812e-09
2.37147e-08
-2.49226e-09
2.34089e-08
-2.78379e-09
2.30748e-08
-3.07896e-09
2.26946e-08
-3.35827e-09
2.22585e-08
-3.60529e-09
2.17661e-08
-3.80697e-09
-3.95453e-09
2.12255e-08
6.32685e-08
-1.57339e-07
5.67772e-08
-3.85279e-08
4.72306e-08
-1.14855e-08
4.07645e-08
-4.00642e-09
3.66791e-08
-1.60808e-09
3.40511e-08
-8.32615e-10
3.22986e-08
-6.78494e-10
3.1081e-08
-7.95355e-10
3.0195e-08
-1.03893e-09
2.9513e-08
-1.34115e-09
2.89509e-08
-1.66599e-09
2.84505e-08
-1.99185e-09
2.79707e-08
-2.30403e-09
2.74831e-08
-2.59132e-09
2.69695e-08
-2.84466e-09
2.64212e-08
-3.05702e-09
2.58379e-08
-3.22362e-09
-3.34234e-09
2.52257e-08
1.83288e-07
1.59086e-07
9.71737e-08
4.75859e-08
6.69436e-08
1.87447e-08
5.35874e-08
9.34978e-09
4.65745e-08
5.40483e-09
4.24275e-08
3.31435e-09
3.97607e-08
1.98833e-09
3.79291e-08
1.03628e-09
3.65946e-08
2.95524e-10
3.55598e-08
-3.06363e-10
3.47042e-08
-8.10414e-10
3.39531e-08
-1.24071e-09
3.3257e-08
-1.60797e-09
3.25839e-08
-1.9182e-09
3.19142e-08
-2.17497e-09
3.12381e-08
-2.38092e-09
3.05532e-08
-2.53864e-09
-2.65128e-09
2.98621e-08
7.72587e-08
8.18272e-08
7.55051e-08
4.93395e-08
6.55093e-08
2.87405e-08
5.75394e-08
1.73197e-08
5.2062e-08
1.08822e-08
4.83365e-08
7.03988e-09
4.57357e-08
4.58914e-09
4.38474e-08
2.92459e-09
4.24115e-08
1.73137e-09
4.12667e-08
8.38461e-10
4.0308e-08
1.48306e-10
3.94563e-08
-3.88959e-10
3.8665e-08
-8.16749e-10
3.79068e-08
-1.15999e-09
3.71652e-08
-1.43333e-09
3.64316e-08
-1.64738e-09
3.57034e-08
-1.81043e-09
-1.9294e-09
3.49816e-08
3.59721e-08
4.58551e-08
5.01618e-08
3.51497e-08
5.38619e-08
2.50404e-08
5.37054e-08
1.74762e-08
5.24053e-08
1.21823e-08
5.09294e-08
8.51583e-09
4.95732e-08
5.94534e-09
4.83928e-08
4.1049e-09
4.73679e-08
2.75631e-09
4.646e-08
1.74634e-09
4.56325e-08
9.75868e-10
4.48636e-08
3.79852e-10
4.41311e-08
-8.42466e-11
4.34145e-08
-4.43334e-10
4.2706e-08
-7.24849e-10
4.20024e-08
-9.43758e-10
4.13034e-08
-1.11144e-09
-1.23685e-09
4.06108e-08
1.43248e-08
3.15302e-08
2.33086e-08
2.61659e-08
2.8113e-08
2.0236e-08
3.04615e-08
1.51278e-08
3.15092e-08
1.11345e-08
3.18952e-08
8.12984e-09
3.19471e-08
5.89347e-09
3.18271e-08
4.22491e-09
3.16142e-08
2.96921e-09
3.13466e-08
2.01396e-09
3.10429e-08
1.27956e-09
3.07128e-08
7.09962e-10
3.0363e-08
2.65471e-10
3.00009e-08
-8.11618e-11
2.96251e-08
-3.49072e-10
2.92392e-08
-5.57858e-10
2.88467e-08
-7.18909e-10
-8.41113e-10
2.84509e-08
8.5751e-09
2.29551e-08
1.49632e-08
1.97778e-08
1.91995e-08
1.59997e-08
2.18561e-08
1.24712e-08
2.34774e-08
9.5132e-09
2.44482e-08
7.15907e-09
2.50121e-08
5.32952e-09
2.53172e-08
3.91984e-09
2.54522e-08
2.83418e-09
2.54712e-08
1.99501e-09
2.54077e-08
1.34304e-09
2.52837e-08
8.33971e-10
2.51142e-08
4.35009e-10
2.49112e-08
1.21827e-10
2.46841e-08
-1.21967e-10
2.44374e-08
-3.11159e-10
2.41765e-08
-4.5806e-10
-5.70712e-10
2.39061e-08
5.78159e-09
1.71735e-08
1.04609e-08
1.50985e-08
1.39182e-08
1.25425e-08
1.63513e-08
1.00381e-08
1.80221e-08
7.84241e-09
1.91539e-08
6.02724e-09
1.99107e-08
4.57267e-09
2.04057e-08
3.42484e-09
2.07152e-08
2.52471e-09
2.08906e-08
1.8196e-09
2.09672e-08
1.26644e-09
2.09697e-08
8.31507e-10
2.09158e-08
4.88869e-10
2.08189e-08
2.18759e-10
2.06908e-08
6.08581e-12
2.05381e-08
-1.58405e-10
2.03668e-08
-2.86829e-10
-3.86135e-10
2.01823e-08
4.20347e-09
1.29701e-08
7.76207e-09
1.15399e-08
1.05585e-08
9.74603e-09
1.26606e-08
7.93604e-09
1.42011e-08
6.30189e-09
1.53128e-08
4.91552e-09
1.61052e-08
3.78033e-09
1.66612e-08
2.86884e-09
1.70416e-08
2.14424e-09
1.72906e-08
1.57064e-09
1.744e-08
1.11704e-09
1.75133e-08
7.58177e-10
1.75281e-08
4.74091e-10
1.74977e-08
2.49204e-10
1.74323e-08
7.14165e-11
1.73416e-08
-6.76238e-11
1.72306e-08
-1.75835e-10
-2.60029e-10
1.71045e-08
3.21183e-09
9.75825e-09
6.00393e-09
8.74777e-09
8.28226e-09
7.4677e-09
1.00664e-08
6.15189e-09
1.14278e-08
4.94054e-09
1.24488e-08
3.89448e-09
1.32043e-08
3.02485e-09
1.37553e-08
2.3178e-09
1.41496e-08
1.75001e-09
1.44233e-08
1.29693e-09
1.4604e-08
9.36349e-10
1.47125e-08
6.4963e-10
1.47649e-08
4.21697e-10
1.47735e-08
2.40597e-10
1.4748e-08
9.69242e-11
1.46968e-08
-1.64437e-11
1.46254e-08
-1.0446e-10
-1.73298e-10
1.45387e-08
2.53793e-09
7.22033e-09
4.78091e-09
6.50478e-09
6.65562e-09
5.59299e-09
8.16314e-09
4.64437e-09
9.34408e-09
3.7596e-09
1.02524e-08
2.98618e-09
1.09409e-08
2.33632e-09
1.14555e-08
1.80319e-09
1.18337e-08
1.37188e-09
1.2105e-08
1.02561e-09
1.22927e-08
7.48665e-10
1.24148e-08
5.27542e-10
1.24853e-08
3.51137e-10
1.25154e-08
2.10533e-10
1.25137e-08
9.8651e-11
1.24873e-08
9.902e-12
1.24421e-08
-5.92137e-11
-1.13375e-10
1.23821e-08
2.05162e-09
5.16871e-09
3.88423e-09
4.67217e-09
5.44015e-09
4.03706e-09
6.71348e-09
3.37105e-09
7.7287e-09
2.74437e-09
8.52293e-09
2.19196e-09
9.13493e-09
1.72432e-09
9.59991e-09
1.3382e-09
9.94766e-09
1.02413e-09
1.02025e-08
7.70816e-10
1.03837e-08
5.67434e-10
1.05067e-08
4.04503e-10
1.05837e-08
2.74137e-10
1.06243e-08
1.69941e-10
1.06362e-08
8.68033e-11
1.06254e-08
2.06535e-11
1.05974e-08
-3.11774e-11
-7.17402e-11
1.05557e-08
1.68344e-09
3.48527e-09
3.19779e-09
3.15783e-09
4.49691e-09
2.73794e-09
5.57266e-09
2.2953e-09
6.4407e-09
1.87632e-09
7.12778e-09
1.50488e-09
7.66331e-09
1.18879e-09
8.07492e-09
9.2659e-10
8.3866e-09
7.12452e-10
8.61828e-09
5.39137e-10
8.78615e-09
3.99554e-10
8.90323e-09
2.87424e-10
8.97989e-09
1.97476e-10
9.02443e-09
1.25409e-10
9.04347e-09
6.77642e-11
9.04234e-09
2.17761e-11
9.02561e-09
-1.44489e-11
-4.27382e-11
8.99661e-09
1.39304e-09
2.09222e-09
2.65205e-09
1.89882e-09
3.73963e-09
1.65036e-09
4.6474e-09
1.38752e-09
5.38598e-09
1.13774e-09
5.97544e-09
9.15425e-10
6.43869e-09
7.25538e-10
6.79778e-09
5.67496e-10
7.07221e-09
4.38027e-10
7.2784e-09
3.3295e-10
7.42984e-09
2.48108e-10
7.53748e-09
1.7979e-10
7.61009e-09
1.24863e-10
7.65474e-09
8.07559e-11
7.67711e-09
4.53941e-11
7.68178e-09
1.71123e-11
7.6726e-09
-5.26991e-12
-2.266e-11
7.65252e-09
1.15398e-09
9.38244e-10
2.20025e-09
8.52553e-10
3.1083e-09
7.42311e-10
3.87041e-09
6.2541e-10
4.49414e-09
5.14019e-10
4.99496e-09
4.146e-10
5.39104e-09
3.29456e-10
5.70013e-09
2.5841e-10
5.93809e-09
2.00067e-10
6.11843e-09
1.52607e-10
6.25234e-09
1.14203e-10
6.34892e-09
8.32118e-11
6.41554e-09
5.82427e-11
6.45814e-09
3.81497e-11
6.48153e-09
2.20053e-11
6.48958e-09
9.06168e-12
6.48553e-09
-1.2204e-12
-9.00331e-12
6.47188e-09
9.38244e-10
1.7908e-09
2.53311e-09
3.15852e-09
3.67254e-09
4.08714e-09
4.41659e-09
4.675e-09
4.87507e-09
5.02768e-09
5.14188e-09
5.22509e-09
5.28333e-09
5.32148e-09
5.34349e-09
5.35255e-09
5.35133e-09
5.34233e-09
6.35355e-10
-6.35355e-10
1.27086e-09
-6.35503e-10
1.90213e-09
-6.31268e-10
2.52412e-09
-6.21993e-10
3.13067e-09
-6.06553e-10
3.71863e-09
-5.87963e-10
4.28729e-09
-5.68655e-10
4.83821e-09
-5.50921e-10
5.37412e-09
-5.35907e-10
5.89695e-09
-5.22829e-10
6.40653e-09
-5.09589e-10
6.90105e-09
-4.94514e-10
7.37849e-09
-4.77439e-10
7.8378e-09
-4.59308e-10
8.27896e-09
-4.41162e-10
8.70232e-09
-4.23361e-10
9.10772e-09
-4.05402e-10
9.49404e-09
-3.86316e-10
9.85934e-09
-3.65302e-10
1.02014e-08
-3.42109e-10
1.05184e-08
-3.16992e-10
1.08089e-08
-2.90456e-10
1.1072e-08
-2.6306e-10
1.13073e-08
-2.35331e-10
1.1515e-08
-2.07753e-10
1.16958e-08
-1.80758e-10
1.18505e-08
-1.54723e-10
1.19805e-08
-1.29969e-10
1.20872e-08
-1.06755e-10
1.21725e-08
-8.52799e-11
1.22382e-08
-6.56742e-11
1.22862e-08
-4.80037e-11
1.23185e-08
-3.22718e-11
1.23369e-08
-1.84283e-11
1.23433e-08
-6.38025e-12
1.23393e-08
3.9955e-12
1.23264e-08
1.28408e-11
1.23061e-08
2.03056e-11
1.22796e-08
2.65401e-11
1.22479e-08
3.16884e-11
1.2212e-08
3.58858e-11
1.21728e-08
3.92562e-11
1.21309e-08
4.19108e-11
1.20869e-08
4.39489e-11
1.20415e-08
4.54588e-11
1.19949e-08
4.65169e-11
1.19477e-08
4.71904e-11
1.19002e-08
4.7538e-11
1.18526e-08
4.76102e-11
1.18051e-08
4.74507e-11
1.1758e-08
4.70976e-11
1.17115e-08
4.65835e-11
1.16655e-08
4.5937e-11
1.16203e-08
4.51819e-11
1.1576e-08
4.43398e-11
1.15326e-08
4.34287e-11
1.14901e-08
4.24639e-11
1.14487e-08
4.14595e-11
1.14082e-08
4.04266e-11
1.13689e-08
3.93754e-11
1.13305e-08
3.83144e-11
1.12933e-08
3.72508e-11
1.12571e-08
3.61908e-11
1.1222e-08
3.514e-11
1.11879e-08
3.41026e-11
1.11548e-08
3.30825e-11
1.11227e-08
3.20827e-11
1.10916e-08
3.11059e-11
1.10614e-08
3.01538e-11
1.10322e-08
2.92288e-11
1.10039e-08
2.83315e-11
1.09764e-08
2.74633e-11
1.09498e-08
2.66248e-11
1.0924e-08
2.58164e-11
1.08989e-08
2.50385e-11
1.08746e-08
2.4291e-11
1.08511e-08
2.3574e-11
1.08282e-08
2.28871e-11
1.08059e-08
2.22302e-11
1.07843e-08
2.16027e-11
1.07633e-08
2.10042e-11
1.07429e-08
2.04341e-11
1.0723e-08
1.98916e-11
1.07036e-08
1.93763e-11
1.06847e-08
1.88873e-11
1.06663e-08
1.84242e-11
1.06483e-08
1.79857e-11
1.06308e-08
1.75716e-11
1.06136e-08
1.71808e-11
1.05968e-08
1.68125e-11
1.05803e-08
1.64662e-11
1.05642e-08
1.61408e-11
1.05483e-08
1.58359e-11
1.05328e-08
1.55504e-11
1.05175e-08
1.52838e-11
1.05025e-08
1.50353e-11
1.04877e-08
1.4804e-11
1.04731e-08
1.45897e-11
1.04587e-08
1.43912e-11
1.04445e-08
1.42082e-11
1.04304e-08
1.40397e-11
1.04165e-08
1.38855e-11
1.04028e-08
1.37446e-11
1.03892e-08
1.36169e-11
1.03757e-08
1.35012e-11
1.03623e-08
1.33975e-11
1.0349e-08
1.33051e-11
1.03358e-08
1.32234e-11
1.03226e-08
1.3152e-11
1.03095e-08
1.30904e-11
1.02965e-08
1.30382e-11
1.02835e-08
1.29949e-11
1.02705e-08
1.29601e-11
1.02576e-08
1.29334e-11
1.02447e-08
1.29144e-11
1.02318e-08
1.29029e-11
1.02189e-08
1.28982e-11
1.0206e-08
1.29004e-11
1.01931e-08
1.29087e-11
1.01801e-08
1.29234e-11
1.01672e-08
1.29435e-11
1.01542e-08
1.29694e-11
1.01412e-08
1.30003e-11
1.01282e-08
1.30363e-11
1.01151e-08
1.3077e-11
1.0102e-08
1.3122e-11
1.00888e-08
1.31716e-11
1.00756e-08
1.32251e-11
1.00623e-08
1.32825e-11
1.0049e-08
1.33438e-11
1.00356e-08
1.34084e-11
1.00221e-08
1.34766e-11
1.00085e-08
1.35478e-11
9.99491e-09
1.36223e-11
9.98121e-09
1.36997e-11
9.96743e-09
1.37801e-11
9.95357e-09
1.3863e-11
9.93962e-09
1.39489e-11
9.92558e-09
1.40373e-11
9.91145e-09
1.41282e-11
9.89723e-09
1.42216e-11
9.88291e-09
1.43175e-11
9.8685e-09
1.4416e-11
9.85398e-09
1.45169e-11
9.83936e-09
1.46205e-11
9.82463e-09
1.47267e-11
9.8098e-09
1.48357e-11
9.79485e-09
1.49478e-11
9.77979e-09
1.50633e-11
9.7646e-09
1.51825e-11
9.7493e-09
1.53059e-11
9.73386e-09
1.54342e-11
9.71829e-09
1.55682e-11
9.70259e-09
1.57089e-11
9.68673e-09
1.58578e-11
9.67071e-09
1.60166e-11
9.65452e-09
1.61877e-11
9.63815e-09
1.6374e-11
9.62157e-09
1.65792e-11
9.60476e-09
1.68082e-11
9.58769e-09
1.70676e-11
9.57033e-09
1.73655e-11
9.55262e-09
1.77128e-11
9.53449e-09
1.81236e-11
9.51588e-09
1.8617e-11
9.49666e-09
1.9218e-11
9.4767e-09
1.99602e-11
9.45581e-09
2.08897e-11
9.43374e-09
2.207e-11
9.41015e-09
2.359e-11
9.38457e-09
2.55779e-11
9.35635e-09
2.8223e-11
9.32453e-09
3.18152e-11
9.28771e-09
3.68211e-11
9.24367e-09
4.40375e-11
9.18873e-09
5.4947e-11
9.11608e-09
7.26501e-11
9.01123e-09
1.04848e-10
8.83497e-09
1.76263e-10
4.00959e-10
8.43401e-09
6.5443e-10
-1.28979e-09
1.30905e-09
-1.29012e-09
1.96154e-09
-1.28375e-09
2.60875e-09
-1.26921e-09
3.22679e-09
-1.22459e-09
3.81564e-09
-1.17682e-09
4.37574e-09
-1.12875e-09
4.91378e-09
-1.08896e-09
5.44036e-09
-1.06249e-09
5.96236e-09
-1.04483e-09
6.47755e-09
-1.02478e-09
6.97806e-09
-9.95021e-10
7.45774e-09
-9.57114e-10
7.91537e-09
-9.16944e-10
8.3536e-09
-8.79385e-10
8.77587e-09
-8.45636e-10
9.18356e-09
-8.1309e-10
9.57477e-09
-7.77528e-10
9.94557e-09
-7.36105e-10
1.02921e-08
-6.88628e-10
1.06116e-08
-6.3653e-10
1.09027e-08
-5.81537e-10
1.11647e-08
-5.25021e-10
1.13974e-08
-4.68076e-10
1.16013e-08
-4.11671e-10
1.17772e-08
-3.56669e-10
1.19263e-08
-3.03817e-10
1.20501e-08
-2.53746e-10
1.21503e-08
-2.06973e-10
1.22289e-08
-1.63885e-10
1.2288e-08
-1.24732e-10
1.23296e-08
-8.96196e-11
1.23559e-08
-5.85215e-11
1.23687e-08
-3.1298e-11
1.23701e-08
-7.7238e-12
1.23616e-08
1.24828e-11
1.23448e-08
2.96338e-11
1.23211e-08
4.40489e-11
1.22916e-08
5.60414e-11
1.22573e-08
6.59072e-11
1.22193e-08
7.39187e-11
1.21782e-08
8.03226e-11
1.21348e-08
8.53392e-11
1.20896e-08
8.91636e-11
1.20431e-08
9.19667e-11
1.19957e-08
9.38987e-11
1.19478e-08
9.50892e-11
1.18997e-08
9.56517e-11
1.18516e-08
9.56837e-11
1.18038e-08
9.52703e-11
1.17564e-08
9.44845e-11
1.17096e-08
9.33895e-11
1.16635e-08
9.20403e-11
1.16182e-08
9.04835e-11
1.15738e-08
8.87603e-11
1.15303e-08
8.69053e-11
1.14878e-08
8.49494e-11
1.14464e-08
8.29181e-11
1.14059e-08
8.08343e-11
1.13666e-08
7.87173e-11
1.13283e-08
7.65833e-11
1.12911e-08
7.44468e-11
1.1255e-08
7.23199e-11
1.12199e-08
7.02127e-11
1.11859e-08
6.8134e-11
1.11529e-08
6.60908e-11
1.11209e-08
6.40895e-11
1.10899e-08
6.21348e-11
1.10598e-08
6.02311e-11
1.10306e-08
5.83811e-11
1.10024e-08
5.65877e-11
1.0975e-08
5.48527e-11
1.09484e-08
5.31773e-11
1.09227e-08
5.15627e-11
1.08977e-08
5.00089e-11
1.08735e-08
4.85163e-11
1.085e-08
4.70846e-11
1.08272e-08
4.57135e-11
1.0805e-08
4.4402e-11
1.07834e-08
4.31496e-11
1.07625e-08
4.1955e-11
1.07421e-08
4.08172e-11
1.07223e-08
3.97347e-11
1.07029e-08
3.87066e-11
1.06841e-08
3.77311e-11
1.06657e-08
3.68069e-11
1.06478e-08
3.59323e-11
1.06302e-08
3.51061e-11
1.06131e-08
3.43265e-11
1.05963e-08
3.35921e-11
1.05799e-08
3.29012e-11
1.05638e-08
3.22524e-11
1.05479e-08
3.16441e-11
1.05324e-08
3.10748e-11
1.05172e-08
3.05431e-11
1.05021e-08
3.00476e-11
1.04874e-08
2.95868e-11
1.04728e-08
2.91591e-11
1.04584e-08
2.87636e-11
1.04442e-08
2.83985e-11
1.04302e-08
2.80629e-11
1.04163e-08
2.77554e-11
1.04026e-08
2.74748e-11
1.0389e-08
2.72201e-11
1.03755e-08
2.69899e-11
1.03621e-08
2.67833e-11
1.03488e-08
2.65991e-11
1.03356e-08
2.64365e-11
1.03225e-08
2.62944e-11
1.03094e-08
2.61719e-11
1.02964e-08
2.6068e-11
1.02834e-08
2.5982e-11
1.02704e-08
2.59129e-11
1.02575e-08
2.58602e-11
1.02446e-08
2.58226e-11
1.02317e-08
2.57999e-11
1.02188e-08
2.57912e-11
1.02059e-08
2.57958e-11
1.0193e-08
2.5813e-11
1.01801e-08
2.58425e-11
1.01671e-08
2.58833e-11
1.01542e-08
2.59351e-11
1.01412e-08
2.59973e-11
1.01282e-08
2.60694e-11
1.01151e-08
2.6151e-11
1.0102e-08
2.62417e-11
1.00888e-08
2.63407e-11
1.00756e-08
2.6448e-11
1.00623e-08
2.65631e-11
1.00489e-08
2.66856e-11
1.00355e-08
2.68151e-11
1.00221e-08
2.69515e-11
1.00085e-08
2.70942e-11
9.9949e-09
2.72433e-11
9.9812e-09
2.73983e-11
9.96742e-09
2.75589e-11
9.95356e-09
2.77252e-11
9.93961e-09
2.78968e-11
9.92557e-09
2.80735e-11
9.91144e-09
2.82554e-11
9.89722e-09
2.84424e-11
9.88291e-09
2.86342e-11
9.86849e-09
2.88311e-11
9.85398e-09
2.90329e-11
9.83936e-09
2.92401e-11
9.82463e-09
2.94525e-11
9.8098e-09
2.96706e-11
9.79485e-09
2.98947e-11
9.77979e-09
3.01256e-11
9.7646e-09
3.03638e-11
9.7493e-09
3.06105e-11
9.73387e-09
3.08669e-11
9.7183e-09
3.11344e-11
9.70259e-09
3.14156e-11
9.68674e-09
3.17129e-11
9.67073e-09
3.20301e-11
9.65454e-09
3.23714e-11
9.63817e-09
3.2743e-11
9.6216e-09
3.31521e-11
9.6048e-09
3.36087e-11
9.58774e-09
3.41255e-11
9.57039e-09
3.47186e-11
9.55269e-09
3.54098e-11
9.53459e-09
3.62273e-11
9.516e-09
3.72083e-11
9.49681e-09
3.84026e-11
9.4769e-09
3.9877e-11
9.45606e-09
4.17223e-11
9.43407e-09
4.40635e-11
9.41058e-09
4.70765e-11
9.38515e-09
5.10126e-11
9.35713e-09
5.62423e-11
9.32561e-09
6.33309e-11
9.28925e-09
7.31797e-11
9.24598e-09
8.7312e-11
9.19242e-09
1.08506e-10
9.1227e-09
1.42371e-10
9.0257e-09
2.01852e-10
8.87973e-09
3.22234e-10
6.16348e-10
8.66434e-09
6.92847e-10
-1.98263e-09
1.37659e-09
-1.97386e-09
2.06322e-09
-1.97039e-09
2.83748e-09
-2.04346e-09
3.46411e-09
-1.85123e-09
4.04904e-09
-1.76174e-09
4.57023e-09
-1.64994e-09
5.0504e-09
-1.56913e-09
5.53897e-09
-1.55106e-09
6.06801e-09
-1.57386e-09
6.61811e-09
-1.57488e-09
7.1463e-09
-1.52321e-09
7.63077e-09
-1.44159e-09
8.07514e-09
-1.36131e-09
8.49621e-09
-1.30046e-09
8.9111e-09
-1.26052e-09
9.32626e-09
-1.22825e-09
9.73431e-09
-1.18557e-09
1.01219e-08
-1.12367e-09
1.04797e-08
-1.04642e-09
1.08043e-08
-9.61202e-10
1.10959e-08
-8.73076e-10
1.13548e-08
-7.83905e-10
1.15815e-08
-6.948e-10
1.17769e-08
-6.07114e-10
1.19424e-08
-5.22144e-10
1.20795e-08
-4.40958e-10
1.21903e-08
-3.64487e-10
1.22768e-08
-2.93506e-10
1.23415e-08
-2.28594e-10
1.23869e-08
-1.70095e-10
1.24154e-08
-1.18107e-10
1.24293e-08
-7.2491e-11
1.2431e-08
-3.29262e-11
1.24222e-08
1.03565e-12
1.24048e-08
2.99107e-11
1.23802e-08
5.4238e-11
1.23497e-08
7.45456e-11
1.23144e-08
9.13314e-11
1.22752e-08
1.05052e-10
1.2233e-08
1.16117e-10
1.21885e-08
1.24892e-10
1.21421e-08
1.31698e-10
1.20945e-08
1.36817e-10
1.20459e-08
1.40494e-10
1.19969e-08
1.42942e-10
1.19476e-08
1.44347e-10
1.18984e-08
1.44868e-10
1.18495e-08
1.44643e-10
1.18009e-08
1.43793e-10
1.1753e-08
1.42421e-10
1.17058e-08
1.40617e-10
1.16594e-08
1.38457e-10
1.16138e-08
1.36008e-10
1.15693e-08
1.33328e-10
1.15257e-08
1.30467e-10
1.14832e-08
1.27468e-10
1.14417e-08
1.24367e-10
1.14014e-08
1.21198e-10
1.13621e-08
1.17987e-10
1.13239e-08
1.14757e-10
1.12868e-08
1.1153e-10
1.12508e-08
1.08322e-10
1.12159e-08
1.05148e-10
1.1182e-08
1.0202e-10
1.11492e-08
9.89492e-11
1.11173e-08
9.59433e-11
1.10864e-08
9.30095e-11
1.10565e-08
9.01536e-11
1.10275e-08
8.73803e-11
1.09994e-08
8.46927e-11
1.09722e-08
8.20937e-11
1.09458e-08
7.95852e-11
1.09201e-08
7.71679e-11
1.08953e-08
7.48429e-11
1.08712e-08
7.26097e-11
1.08478e-08
7.04683e-11
1.08251e-08
6.84178e-11
1.08031e-08
6.64569e-11
1.07816e-08
6.45846e-11
1.07608e-08
6.2799e-11
1.07405e-08
6.10986e-11
1.07208e-08
5.94812e-11
1.07015e-08
5.79449e-11
1.06828e-08
5.64875e-11
1.06645e-08
5.51069e-11
1.06466e-08
5.38007e-11
1.06291e-08
5.25666e-11
1.06121e-08
5.14024e-11
1.05954e-08
5.03055e-11
1.0579e-08
4.9274e-11
1.05629e-08
4.83053e-11
1.05472e-08
4.73971e-11
1.05317e-08
4.65474e-11
1.05165e-08
4.57538e-11
1.05015e-08
4.50141e-11
1.04868e-08
4.43263e-11
1.04723e-08
4.36884e-11
1.04579e-08
4.3098e-11
1.04438e-08
4.25536e-11
1.04298e-08
4.2053e-11
1.04159e-08
4.15944e-11
1.04022e-08
4.11761e-11
1.03887e-08
4.07963e-11
1.03752e-08
4.04532e-11
1.03618e-08
4.01455e-11
1.03486e-08
3.98712e-11
1.03354e-08
3.96292e-11
1.03223e-08
3.94178e-11
1.03092e-08
3.92356e-11
1.02962e-08
3.90814e-11
1.02832e-08
3.89539e-11
1.02703e-08
3.88516e-11
1.02574e-08
3.87736e-11
1.02445e-08
3.87187e-11
1.02316e-08
3.86857e-11
1.02187e-08
3.86736e-11
1.02058e-08
3.86815e-11
1.01929e-08
3.87083e-11
1.018e-08
3.87532e-11
1.01671e-08
3.88152e-11
1.01541e-08
3.88938e-11
1.01411e-08
3.89877e-11
1.01281e-08
3.90966e-11
1.0115e-08
3.92195e-11
1.01019e-08
3.93559e-11
1.00887e-08
3.95052e-11
1.00755e-08
3.96665e-11
1.00622e-08
3.98395e-11
1.00489e-08
4.00237e-11
1.00355e-08
4.02184e-11
1.0022e-08
4.04232e-11
1.00085e-08
4.06378e-11
9.99487e-09
4.08616e-11
9.98117e-09
4.10942e-11
9.9674e-09
4.13356e-11
9.95354e-09
4.15851e-11
9.93959e-09
4.18427e-11
9.92556e-09
4.21081e-11
9.91143e-09
4.2381e-11
9.89721e-09
4.26614e-11
9.8829e-09
4.29494e-11
9.86848e-09
4.32448e-11
9.85397e-09
4.35476e-11
9.83935e-09
4.38582e-11
9.82463e-09
4.41768e-11
9.80979e-09
4.45037e-11
9.79485e-09
4.48399e-11
9.77979e-09
4.51859e-11
9.76461e-09
4.5543e-11
9.74931e-09
4.59125e-11
9.73388e-09
4.62964e-11
9.71831e-09
4.66972e-11
9.70261e-09
4.7118e-11
9.68676e-09
4.75628e-11
9.67076e-09
4.8037e-11
9.65458e-09
4.85472e-11
9.63822e-09
4.91021e-11
9.62166e-09
4.97129e-11
9.60487e-09
5.03939e-11
9.58784e-09
5.1164e-11
9.57051e-09
5.20473e-11
9.55284e-09
5.30759e-11
9.53478e-09
5.42912e-11
9.51624e-09
5.57486e-11
9.49712e-09
5.75212e-11
9.47729e-09
5.97077e-11
9.45657e-09
6.24415e-11
9.43473e-09
6.59061e-11
9.41144e-09
7.03586e-11
9.38629e-09
7.61651e-11
9.35867e-09
8.38625e-11
9.32774e-09
9.4262e-11
9.29228e-09
1.08643e-10
9.25046e-09
1.2913e-10
9.19948e-09
1.59483e-10
9.13492e-09
2.06931e-10
9.05004e-09
2.86734e-10
8.93815e-09
4.3412e-10
7.31678e-10
8.82282e-09
7.64143e-10
-2.74678e-09
1.42721e-09
-2.63694e-09
1.79007e-09
-2.33325e-09
3.7073e-09
-3.96069e-09
3.89117e-09
-2.0351e-09
4.56305e-09
-2.43362e-09
4.94834e-09
-2.03522e-09
5.16773e-09
-1.78853e-09
5.49081e-09
-1.87414e-09
6.10466e-09
-2.18771e-09
6.8558e-09
-2.32603e-09
7.49239e-09
-2.15981e-09
7.96485e-09
-1.91405e-09
8.33134e-09
-1.7278e-09
8.67168e-09
-1.6408e-09
9.05542e-09
-1.64426e-09
9.50349e-09
-1.67633e-09
9.97331e-09
-1.65538e-09
1.04071e-08
-1.55744e-09
1.07847e-08
-1.42408e-09
1.11119e-08
-1.28833e-09
1.13997e-08
-1.16086e-09
1.16513e-08
-1.03559e-09
1.18669e-08
-9.10346e-10
1.20476e-08
-7.87793e-10
1.21956e-08
-6.70147e-10
1.23131e-08
-5.58473e-10
1.24026e-08
-4.54035e-10
1.24671e-08
-3.57944e-10
1.25095e-08
-2.71018e-10
1.25331e-08
-1.93707e-10
1.2541e-08
-1.25996e-10
1.2536e-08
-6.74684e-11
1.25205e-08
-1.74293e-11
1.24966e-08
2.49604e-11
1.24659e-08
6.05784e-11
1.24299e-08
9.02737e-11
1.23896e-08
1.14828e-10
1.2346e-08
1.34941e-10
1.22998e-08
1.51229e-10
1.22517e-08
1.64232e-10
1.22021e-08
1.74417e-10
1.21517e-08
1.82189e-10
1.21006e-08
1.879e-10
1.20492e-08
1.91854e-10
1.19978e-08
1.94312e-10
1.19467e-08
1.95502e-10
1.18959e-08
1.95619e-10
1.18457e-08
1.94833e-10
1.17962e-08
1.93289e-10
1.17476e-08
1.91114e-10
1.16998e-08
1.88418e-10
1.16529e-08
1.85295e-10
1.16071e-08
1.81827e-10
1.15623e-08
1.78084e-10
1.15187e-08
1.74129e-10
1.14761e-08
1.70013e-10
1.14347e-08
1.65784e-10
1.13944e-08
1.61479e-10
1.13553e-08
1.57134e-10
1.13173e-08
1.52778e-10
1.12804e-08
1.48435e-10
1.12446e-08
1.44127e-10
1.12098e-08
1.39872e-10
1.11762e-08
1.35685e-10
1.11435e-08
1.31579e-10
1.11119e-08
1.27564e-10
1.10813e-08
1.2365e-10
1.10516e-08
1.19842e-10
1.10228e-08
1.16148e-10
1.09949e-08
1.1257e-10
1.09679e-08
1.09111e-10
1.09417e-08
1.05775e-10
1.09163e-08
1.02562e-10
1.08917e-08
9.94719e-11
1.08678e-08
9.65056e-11
1.08446e-08
9.36616e-11
1.08221e-08
9.09394e-11
1.08002e-08
8.83368e-11
1.0779e-08
8.58524e-11
1.07583e-08
8.34834e-11
1.07381e-08
8.12278e-11
1.07185e-08
7.90828e-11
1.06994e-08
7.70456e-11
1.06808e-08
7.51136e-11
1.06626e-08
7.32832e-11
1.06449e-08
7.1552e-11
1.06275e-08
6.99163e-11
1.06106e-08
6.83736e-11
1.0594e-08
6.69205e-11
1.05777e-08
6.55538e-11
1.05617e-08
6.42706e-11
1.0546e-08
6.30678e-11
1.05306e-08
6.19425e-11
1.05155e-08
6.08915e-11
1.05006e-08
5.99122e-11
1.04859e-08
5.90018e-11
1.04715e-08
5.81574e-11
1.04572e-08
5.73761e-11
1.04431e-08
5.66559e-11
1.04291e-08
5.59936e-11
1.04153e-08
5.53872e-11
1.04017e-08
5.48342e-11
1.03882e-08
5.43321e-11
1.03747e-08
5.3879e-11
1.03614e-08
5.34725e-11
1.03482e-08
5.31107e-11
1.0335e-08
5.27913e-11
1.03219e-08
5.25127e-11
1.03089e-08
5.2273e-11
1.02959e-08
5.20701e-11
1.02829e-08
5.19028e-11
1.027e-08
5.17691e-11
1.02571e-08
5.16673e-11
1.02442e-08
5.15963e-11
1.02314e-08
5.15545e-11
1.02185e-08
5.15402e-11
1.02056e-08
5.15525e-11
1.01928e-08
5.159e-11
1.01799e-08
5.16515e-11
1.01669e-08
5.17356e-11
1.0154e-08
5.18417e-11
1.0141e-08
5.19682e-11
1.0128e-08
5.21146e-11
1.01149e-08
5.22796e-11
1.01018e-08
5.24624e-11
1.00887e-08
5.26624e-11
1.00755e-08
5.28784e-11
1.00622e-08
5.311e-11
1.00488e-08
5.33562e-11
1.00355e-08
5.36165e-11
1.0022e-08
5.38902e-11
1.00084e-08
5.41769e-11
9.99483e-09
5.44759e-11
9.98114e-09
5.47865e-11
9.96737e-09
5.51088e-11
9.95351e-09
5.54419e-11
9.93957e-09
5.57856e-11
9.92553e-09
5.61397e-11
9.91141e-09
5.6504e-11
9.89719e-09
5.68781e-11