/*--------------------------------*- C++ -*----------------------------------*\
  =========                 |
  \\      /  F ield         | OpenFOAM: The Open Source CFD Toolbox
   \\    /   O peration     | Website:  https://openfoam.org
    \\  /    A nd           | Version:  10
     \\/     M anipulation  |
\*---------------------------------------------------------------------------*/
FoamFile
{
    format      ascii;
    class       surfaceScalarField;
    location    "12200";
    object      phi;
}
// * * * * * * * * * * * * * * * * * * * * * * * * * * * * * * * * * * * * * //

dimensions      [0 3 -1 0 0 0 0];

internalField   nonuniform List<scalar> 
12640
(
-1.54806e-08
1.54806e-08
-3.10765e-08
1.55959e-08
-4.6907e-08
1.58305e-08
-6.30993e-08
1.61923e-08
-7.97936e-08
1.66943e-08
-9.71488e-08
1.73551e-08
-1.1535e-07
1.82013e-08
-1.3462e-07
1.92696e-08
-1.55231e-07
2.06112e-08
-1.77529e-07
2.22984e-08
-2.01964e-07
2.44349e-08
-2.29138e-07
2.71735e-08
-2.59884e-07
3.07468e-08
-2.95408e-07
3.55236e-08
-3.37525e-07
4.21171e-08
-3.89126e-07
5.16012e-08
-4.55052e-07
6.5926e-08
-5.43125e-07
8.80726e-08
-6.49911e-07
1.06786e-07
-2.54782e-07
-3.95129e-07
-4.60013e-06
4.34535e-06
-5.1491e-06
5.4897e-07
-5.11353e-06
-3.55724e-08
-5.0026e-06
-1.1093e-07
-4.73514e-06
-2.67464e-07
-4.61441e-06
-1.20722e-07
-4.54231e-06
-7.21037e-08
-4.40529e-06
-1.3702e-07
-4.33286e-06
-7.24299e-08
-4.25318e-06
-7.96758e-08
-4.16452e-06
-8.86612e-08
-3.97999e-06
-1.84533e-07
-3.83209e-06
-1.47898e-07
-3.62117e-06
-2.1092e-07
-3.32047e-06
-3.00702e-07
-2.90519e-06
-4.15284e-07
-2.35593e-06
-5.49254e-07
-1.66889e-06
-6.87045e-07
-8.67052e-07
-8.01835e-07
1.78824e-18
-8.67052e-07
8.67052e-07
-8.67052e-07
1.66889e-06
-8.01835e-07
2.35593e-06
-6.87045e-07
2.90519e-06
-5.49254e-07
3.32047e-06
-4.15284e-07
3.62117e-06
-3.00702e-07
3.83209e-06
-2.1092e-07
3.97999e-06
-1.47898e-07
4.16452e-06
-1.84533e-07
4.25318e-06
-8.86612e-08
4.33286e-06
-7.96758e-08
4.40529e-06
-7.24299e-08
4.54231e-06
-1.3702e-07
4.61441e-06
-7.21037e-08
4.73514e-06
-1.20722e-07
5.0026e-06
-2.67464e-07
5.11353e-06
-1.1093e-07
5.1491e-06
-3.55724e-08
4.60013e-06
5.4897e-07
2.54782e-07
4.34535e-06
6.49911e-07
-3.95129e-07
5.43125e-07
1.06786e-07
4.55052e-07
8.80726e-08
3.89126e-07
6.5926e-08
3.37525e-07
5.16012e-08
2.95408e-07
4.21171e-08
2.59884e-07
3.55236e-08
2.29138e-07
3.07468e-08
2.01964e-07
2.71735e-08
1.77529e-07
2.44349e-08
1.55231e-07
2.22984e-08
1.3462e-07
2.06112e-08
1.1535e-07
1.92696e-08
9.71488e-08
1.82013e-08
7.97936e-08
1.73551e-08
6.30993e-08
1.66943e-08
4.6907e-08
1.61923e-08
3.10765e-08
1.58305e-08
1.54806e-08
1.55959e-08
1.54806e-08
-1.6974e-08
3.24545e-08
-3.40743e-08
3.26963e-08
-5.14316e-08
3.31878e-08
-6.91851e-08
3.39459e-08
-8.74882e-08
3.49975e-08
-1.06515e-07
3.63818e-08
-1.26468e-07
3.81544e-08
-1.4759e-07
4.03919e-08
-1.70181e-07
4.32017e-08
-1.94617e-07
4.67345e-08
-2.21389e-07
5.12071e-08
-2.51154e-07
5.69383e-08
-2.84821e-07
6.44135e-08
-3.23698e-07
7.44005e-08
-3.69755e-07
8.81748e-08
-4.26123e-07
1.07969e-07
-4.9806e-07
1.37864e-07
-5.94824e-07
1.84836e-07
-7.36953e-07
2.48915e-07
-1.32251e-06
1.90432e-07
-3.24832e-07
3.34767e-06
-5.14233e-06
5.36647e-06
-5.31895e-06
1.41048e-07
-5.26501e-06
-1.64869e-07
-4.99445e-06
-5.38028e-07
-4.88621e-06
-2.2896e-07
-4.82495e-06
-1.3336e-07
-4.68024e-06
-2.81732e-07
-4.61188e-06
-1.40793e-07
-4.53126e-06
-1.60294e-07
-4.44416e-06
-1.75761e-07
-4.25484e-06
-3.73849e-07
-4.10327e-06
-2.99467e-07
-3.88522e-06
-4.28979e-07
-3.57061e-06
-6.15305e-07
-3.1322e-06
-8.53694e-07
-2.54696e-06
-1.13449e-06
-1.80827e-06
-1.42574e-06
-9.40777e-07
-1.66933e-06
1.44199e-17
-1.80783e-06
9.40777e-07
-1.80783e-06
1.80827e-06
-1.66933e-06
2.54696e-06
-1.42574e-06
3.1322e-06
-1.13449e-06
3.57061e-06
-8.53694e-07
3.88522e-06
-6.15305e-07
4.10327e-06
-4.28979e-07
4.25484e-06
-2.99467e-07
4.44416e-06
-3.73849e-07
4.53126e-06
-1.75761e-07
4.61188e-06
-1.60294e-07
4.68024e-06
-1.40793e-07
4.82495e-06
-2.81732e-07
4.88621e-06
-1.3336e-07
4.99445e-06
-2.2896e-07
5.26501e-06
-5.38028e-07
5.31895e-06
-1.64869e-07
5.14233e-06
1.41048e-07
3.24832e-07
5.36647e-06
1.32251e-06
3.34767e-06
7.36953e-07
1.90432e-07
5.94824e-07
2.48915e-07
4.9806e-07
1.84836e-07
4.26123e-07
1.37864e-07
3.69755e-07
1.07969e-07
3.23698e-07
8.81748e-08
2.84821e-07
7.44005e-08
2.51154e-07
6.44135e-08
2.21389e-07
5.69383e-08
1.94617e-07
5.12071e-08
1.70181e-07
4.67345e-08
1.4759e-07
4.32017e-08
1.26468e-07
4.03919e-08
1.06515e-07
3.81544e-08
8.74882e-08
3.63818e-08
6.91851e-08
3.49975e-08
5.14316e-08
3.39459e-08
3.40743e-08
3.31878e-08
1.6974e-08
3.26963e-08
3.24545e-08
-1.86037e-08
5.10582e-08
-3.73455e-08
5.14381e-08
-5.63681e-08
5.22104e-08
-7.58238e-08
5.34016e-08
-9.58802e-08
5.50538e-08
-1.16727e-07
5.72286e-08
-1.38585e-07
6.00128e-08
-1.6172e-07
6.35267e-08
-1.86457e-07
6.79381e-08
-2.13205e-07
7.3483e-08
-2.42498e-07
8.04996e-08
-2.75045e-07
8.94855e-08
-3.11828e-07
1.01196e-07
-3.54252e-07
1.16825e-07
-4.04425e-07
1.38348e-07
-4.65673e-07
1.69217e-07
-5.436e-07
2.15791e-07
-6.48755e-07
2.8999e-07
-8.11651e-07
4.11812e-07
-1.27063e-06
6.49406e-07
-1.03775e-06
3.1148e-06
-3.43014e-07
4.67173e-06
-5.07473e-06
4.87277e-06
-5.52606e-06
2.86459e-07
-5.27798e-06
-7.86116e-07
-5.2034e-06
-3.03533e-07
-5.16605e-06
-1.70711e-07
-5.0029e-06
-4.44884e-07
-4.94435e-06
-1.99342e-07
-4.86159e-06
-2.43052e-07
-4.78143e-06
-2.55927e-07
-4.59239e-06
-5.62885e-07
-4.44393e-06
-4.47928e-07
-4.22643e-06
-6.46477e-07
-3.90358e-06
-9.38155e-07
-3.44477e-06
-1.31251e-06
-2.81903e-06
-1.76023e-06
-2.01189e-06
-2.23287e-06
-1.05e-06
-2.63122e-06
1.84524e-17
-2.85783e-06
1.05e-06
-2.85783e-06
2.01189e-06
-2.63122e-06
2.81903e-06
-2.23287e-06
3.44477e-06
-1.76023e-06
3.90358e-06
-1.31251e-06
4.22643e-06
-9.38155e-07
4.44393e-06
-6.46477e-07
4.59239e-06
-4.47928e-07
4.78143e-06
-5.62885e-07
4.86159e-06
-2.55927e-07
4.94435e-06
-2.43052e-07
5.0029e-06
-1.99342e-07
5.16605e-06
-4.44884e-07
5.2034e-06
-1.70711e-07
5.27798e-06
-3.03533e-07
5.52606e-06
-7.86116e-07
5.07473e-06
2.86459e-07
3.43014e-07
4.87277e-06
1.03775e-06
4.67173e-06
1.27063e-06
3.1148e-06
8.11651e-07
6.49406e-07
6.48755e-07
4.11812e-07
5.436e-07
2.8999e-07
4.65673e-07
2.15791e-07
4.04425e-07
1.69217e-07
3.54252e-07
1.38348e-07
3.11828e-07
1.16825e-07
2.75045e-07
1.01196e-07
2.42498e-07
8.94855e-08
2.13205e-07
8.04996e-08
1.86457e-07
7.3483e-08
1.6172e-07
6.79381e-08
1.38585e-07
6.35267e-08
1.16727e-07
6.00128e-08
9.58802e-08
5.72286e-08
7.58238e-08
5.50538e-08
5.63681e-08
5.34016e-08
3.73455e-08
5.22104e-08
1.86037e-08
5.14381e-08
5.10582e-08
-2.03789e-08
7.14371e-08
-4.09083e-08
7.19675e-08
-6.1744e-08
7.30461e-08
-8.30518e-08
7.47094e-08
-1.05014e-07
7.70162e-08
-1.27838e-07
8.0052e-08
-1.51762e-07
8.39375e-08
-1.77075e-07
8.88399e-08
-2.04129e-07
9.49918e-08
-2.33366e-07
1.0272e-07
-2.6536e-07
1.12493e-07
-3.00871e-07
1.24997e-07
-3.40946e-07
1.41271e-07
-3.87073e-07
1.62952e-07
-4.41461e-07
1.92736e-07
-5.0756e-07
2.35315e-07
-5.91132e-07
2.99363e-07
-7.03194e-07
4.02052e-07
-8.73901e-07
5.82519e-07
-1.22412e-06
9.99629e-07
-1.03121e-06
2.92188e-06
-6.08195e-07
4.24872e-06
-2.68082e-07
4.53265e-06
-4.06582e-06
4.0842e-06
-5.4302e-06
5.78264e-07
-5.51523e-06
-2.18499e-07
-5.54411e-06
-1.41833e-07
-5.35087e-06
-6.38121e-07
-5.3171e-06
-2.33117e-07
-5.23131e-06
-3.28845e-07
-5.16856e-06
-3.18674e-07
-4.98803e-06
-7.43417e-07
-4.8554e-06
-5.80551e-07
-4.65361e-06
-8.48265e-07
-4.33436e-06
-1.25741e-06
-3.86523e-06
-1.78164e-06
-3.19958e-06
-2.42588e-06
-2.30444e-06
-3.12801e-06
-1.20899e-06
-3.72667e-06
1.07001e-17
-4.06682e-06
1.20899e-06
-4.06682e-06
2.30444e-06
-3.72667e-06
3.19958e-06
-3.12801e-06
3.86523e-06
-2.42588e-06
4.33436e-06
-1.78164e-06
4.65361e-06
-1.25741e-06
4.8554e-06
-8.48265e-07
4.98803e-06
-5.80551e-07
5.16856e-06
-7.43417e-07
5.23131e-06
-3.18674e-07
5.3171e-06
-3.28845e-07
5.35087e-06
-2.33117e-07
5.54411e-06
-6.38121e-07
5.51523e-06
-1.41833e-07
5.4302e-06
-2.18499e-07
4.06582e-06
5.78264e-07
2.68082e-07
4.0842e-06
6.08195e-07
4.53265e-06
1.03121e-06
4.24872e-06
1.22412e-06
2.92188e-06
8.73901e-07
9.99629e-07
7.03194e-07
5.82519e-07
5.91132e-07
4.02052e-07
5.0756e-07
2.99363e-07
4.41461e-07
2.35315e-07
3.87073e-07
1.92736e-07
3.40946e-07
1.62952e-07
3.00871e-07
1.41271e-07
2.6536e-07
1.24997e-07
2.33366e-07
1.12493e-07
2.04129e-07
1.0272e-07
1.77075e-07
9.49918e-08
1.51762e-07
8.88399e-08
1.27838e-07
8.39375e-08
1.05014e-07
8.0052e-08
8.30518e-08
7.70162e-08
6.1744e-08
7.47094e-08
4.09083e-08
7.30461e-08
2.03789e-08
7.19675e-08
7.14371e-08
-2.23082e-08
9.37452e-08
-4.47801e-08
9.44394e-08
-6.75848e-08
9.58508e-08
-9.09025e-08
9.80271e-08
-1.14931e-07
1.01045e-07
-1.39894e-07
1.05015e-07
-1.66051e-07
1.10095e-07
-1.93712e-07
1.16501e-07
-2.23255e-07
1.24534e-07
-2.55153e-07
1.34619e-07
-2.90019e-07
1.47358e-07
-3.28656e-07
1.63634e-07
-3.72164e-07
1.84779e-07
-4.22087e-07
2.12876e-07
-4.80683e-07
2.51333e-07
-5.51406e-07
3.06037e-07
-6.39873e-07
3.87831e-07
-7.56351e-07
5.1853e-07
-9.24011e-07
7.5018e-07
-1.18363e-06
1.25925e-06
-1.02129e-06
2.75954e-06
-6.43595e-07
3.87102e-06
-2.74285e-07
4.16335e-06
3.36254e-08
3.77629e-06
-1.68041e-06
2.2923e-06
-5.48837e-06
3.58946e-06
-5.89433e-06
2.64127e-07
-5.68838e-06
-8.44075e-07
-5.7215e-06
-1.9999e-07
-5.63272e-06
-4.17625e-07
-5.60716e-06
-3.44236e-07
-5.44435e-06
-9.06225e-07
-5.3497e-06
-6.75207e-07
-5.19124e-06
-1.00672e-06
-4.89451e-06
-1.55415e-06
-4.43798e-06
-2.23817e-06
-3.7437e-06
-3.12016e-06
-2.73488e-06
-4.13683e-06
-1.44544e-06
-5.01611e-06
1.76049e-17
-5.51226e-06
1.44544e-06
-5.51226e-06
2.73488e-06
-5.01611e-06
3.7437e-06
-4.13683e-06
4.43798e-06
-3.12016e-06
4.89451e-06
-2.23817e-06
5.19124e-06
-1.55415e-06
5.3497e-06
-1.00672e-06
5.44435e-06
-6.75207e-07
5.60716e-06
-9.06225e-07
5.63272e-06
-3.44236e-07
5.7215e-06
-4.17625e-07
5.68838e-06
-1.9999e-07
5.89433e-06
-8.44075e-07
5.48837e-06
2.64127e-07
1.68041e-06
3.58946e-06
-3.36254e-08
2.2923e-06
2.74285e-07
3.77629e-06
6.43595e-07
4.16335e-06
1.02129e-06
3.87102e-06
1.18363e-06
2.75954e-06
9.24011e-07
1.25925e-06
7.56351e-07
7.5018e-07
6.39873e-07
5.1853e-07
5.51406e-07
3.87831e-07
4.80683e-07
3.06037e-07
4.22087e-07
2.51333e-07
3.72164e-07
2.12876e-07
3.28656e-07
1.84779e-07
2.90019e-07
1.63634e-07
2.55153e-07
1.47358e-07
2.23255e-07
1.34619e-07
1.93712e-07
1.24534e-07
1.66051e-07
1.16501e-07
1.39894e-07
1.10095e-07
1.14931e-07
1.05015e-07
9.09025e-08
1.01045e-07
6.75848e-08
9.80271e-08
4.47801e-08
9.58508e-08
2.23082e-08
9.44394e-08
9.37452e-08
-2.43991e-08
1.18144e-07
-4.89754e-08
1.19016e-07
-7.39121e-08
1.20787e-07
-9.94038e-08
1.23519e-07
-1.25664e-07
1.27305e-07
-1.52934e-07
1.32285e-07
-1.81492e-07
1.38652e-07
-2.11668e-07
1.46678e-07
-2.43868e-07
1.56733e-07
-2.78591e-07
1.69342e-07
-3.1648e-07
1.85247e-07
-3.58374e-07
2.05528e-07
-4.05403e-07
2.31808e-07
-4.59129e-07
2.66601e-07
-5.21781e-07
3.13986e-07
-5.96655e-07
3.80911e-07
-6.88822e-07
4.79998e-07
-8.06531e-07
6.36239e-07
-9.62816e-07
9.06465e-07
-1.14893e-06
1.44536e-06
-1.00956e-06
2.62017e-06
-6.76819e-07
3.53828e-06
-3.39363e-07
3.82589e-06
-9.85756e-08
3.5355e-06
-4.60324e-07
2.65404e-06
-3.63413e-07
3.49255e-06
-4.18877e-06
4.08948e-06
-5.73141e-06
6.98569e-07
-6.10418e-06
1.72779e-07
-6.04064e-06
-4.81172e-07
-6.09842e-06
-2.8645e-07
-5.9587e-06
-1.04595e-06
-5.94135e-06
-6.92558e-07
-5.87971e-06
-1.06836e-06
-5.62777e-06
-1.80608e-06
-5.23381e-06
-2.63213e-06
-4.55159e-06
-3.80238e-06
-3.39352e-06
-5.2949e-06
-1.80907e-06
-6.60056e-06
2.57221e-17
-7.32133e-06
1.80907e-06
-7.32133e-06
3.39352e-06
-6.60056e-06
4.55159e-06
-5.2949e-06
5.23381e-06
-3.80238e-06
5.62777e-06
-2.63213e-06
5.87971e-06
-1.80608e-06
5.94135e-06
-1.06836e-06
5.9587e-06
-6.92558e-07
6.09842e-06
-1.04595e-06
6.04064e-06
-2.8645e-07
6.10418e-06
-4.81172e-07
5.73141e-06
1.72779e-07
4.18877e-06
6.98569e-07
3.63413e-07
4.08948e-06
4.60324e-07
3.49255e-06
9.85756e-08
2.65404e-06
3.39363e-07
3.5355e-06
6.76819e-07
3.82589e-06
1.00956e-06
3.53828e-06
1.14893e-06
2.62017e-06
9.62816e-07
1.44536e-06
8.06531e-07
9.06465e-07
6.88822e-07
6.36239e-07
5.96655e-07
4.79998e-07
5.21781e-07
3.80911e-07
4.59129e-07
3.13986e-07
4.05403e-07
2.66601e-07
3.58374e-07
2.31808e-07
3.1648e-07
2.05528e-07
2.78591e-07
1.85247e-07
2.43868e-07
1.69342e-07
2.11668e-07
1.56733e-07
1.81492e-07
1.46678e-07
1.52934e-07
1.38652e-07
1.25664e-07
1.32285e-07
9.94038e-08
1.27305e-07
7.39121e-08
1.23519e-07
4.89754e-08
1.20787e-07
2.43991e-08
1.19016e-07
1.18144e-07
-2.66572e-08
1.44801e-07
-5.35054e-08
1.45864e-07
-8.07416e-08
1.48024e-07
-1.08575e-07
1.51353e-07
-1.37235e-07
1.55965e-07
-1.66979e-07
1.62028e-07
-1.98104e-07
1.69777e-07
-2.30959e-07
1.79533e-07
-2.6597e-07
1.91745e-07
-3.03661e-07
2.07033e-07
-3.44695e-07
2.2628e-07
-3.89927e-07
2.50761e-07
-4.4049e-07
2.82371e-07
-4.97911e-07
3.24022e-07
-5.6429e-07
3.80365e-07
-6.42563e-07
4.59184e-07
-7.36811e-07
5.74246e-07
-8.52271e-07
7.51698e-07
-9.91521e-07
1.04572e-06
-1.11952e-06
1.57336e-06
-9.9739e-07
2.49804e-06
-7.07918e-07
3.24881e-06
-4.06989e-07
3.52496e-06
-2.13652e-07
3.34216e-06
-4.04504e-07
2.8449e-06
-2.2724e-07
3.31529e-06
3.36652e-07
3.52559e-06
-6.72326e-07
1.70755e-06
-5.18368e-06
4.68414e-06
-6.1566e-06
4.91742e-07
-6.58613e-06
1.43077e-07
-6.48652e-06
-1.14555e-06
-6.62711e-06
-5.51968e-07
-6.7882e-06
-9.07273e-07
-6.57327e-06
-2.02101e-06
-6.35759e-06
-2.8478e-06
-5.81658e-06
-4.34339e-06
-4.45369e-06
-6.65779e-06
-2.38917e-06
-8.66508e-06
2.77538e-17
-9.7105e-06
2.38917e-06
-9.7105e-06
4.45369e-06
-8.66508e-06
5.81658e-06
-6.65779e-06
6.35759e-06
-4.34339e-06
6.57327e-06
-2.8478e-06
6.7882e-06
-2.02101e-06
6.62711e-06
-9.07273e-07
6.48652e-06
-5.51968e-07
6.58613e-06
-1.14555e-06
6.1566e-06
1.43077e-07
5.18368e-06
4.91742e-07
6.72326e-07
4.68414e-06
-3.36652e-07
1.70755e-06
2.2724e-07
3.52559e-06
4.04504e-07
3.31529e-06
2.13652e-07
2.8449e-06
4.06989e-07
3.34216e-06
7.07918e-07
3.52496e-06
9.9739e-07
3.24881e-06
1.11952e-06
2.49804e-06
9.91521e-07
1.57336e-06
8.52271e-07
1.04572e-06
7.36811e-07
7.51698e-07
6.42563e-07
5.74246e-07
5.6429e-07
4.59184e-07
4.97911e-07
3.80365e-07
4.4049e-07
3.24022e-07
3.89927e-07
2.82371e-07
3.44695e-07
2.50761e-07
3.03661e-07
2.2628e-07
2.6597e-07
2.07033e-07
2.30959e-07
1.91745e-07
1.98104e-07
1.79533e-07
1.66979e-07
1.69777e-07
1.37235e-07
1.62028e-07
1.08575e-07
1.55965e-07
8.07416e-08
1.51353e-07
5.35054e-08
1.48024e-07
2.66572e-08
1.45864e-07
1.44801e-07
-2.90852e-08
1.73887e-07
-5.8375e-08
1.75154e-07
-8.808e-08
1.77729e-07
-1.18424e-07
1.81696e-07
-1.4965e-07
1.87191e-07
-1.82031e-07
1.9441e-07
-2.1588e-07
2.03626e-07
-2.51563e-07
2.15217e-07
-2.89521e-07
2.29702e-07
-3.30291e-07
2.47803e-07
-3.74544e-07
2.70533e-07
-4.23129e-07
2.99346e-07
-4.77142e-07
3.36383e-07
-5.38005e-07
3.84886e-07
-6.07575e-07
4.49935e-07
-6.88207e-07
5.39815e-07
-7.82594e-07
6.68633e-07
-8.92444e-07
8.61548e-07
-1.01153e-06
1.1648e-06
-1.09473e-06
1.65656e-06
-9.85827e-07
2.38914e-06
-7.36688e-07
2.99967e-06
-4.72725e-07
3.261e-06
-3.05961e-07
3.1754e-06
-3.75919e-07
2.91485e-06
-2.18952e-07
3.15832e-06
1.07394e-07
3.19925e-06
-4.96367e-07
2.31131e-06
5.111e-07
3.67667e-06
-6.84757e-07
1.6876e-06
-4.74404e-06
4.20236e-06
-6.44238e-06
5.52792e-07
-7.08656e-06
9.22098e-08
-7.96868e-06
-2.51537e-08
-7.61657e-06
-2.37313e-06
-7.91754e-06
-2.54683e-06
-7.94952e-06
-4.31141e-06
-6.26425e-06
-8.34306e-06
-3.33981e-06
-1.15895e-05
4.69197e-17
-1.30503e-05
3.33981e-06
-1.30503e-05
6.26425e-06
-1.15895e-05
7.94952e-06
-8.34306e-06
7.91754e-06
-4.31141e-06
7.61657e-06
-2.54683e-06
7.96868e-06
-2.37313e-06
7.08656e-06
-2.51537e-08
6.44238e-06
9.22098e-08
4.74404e-06
5.52792e-07
6.84757e-07
4.20236e-06
-5.111e-07
1.6876e-06
4.96367e-07
3.67667e-06
-1.07394e-07
2.31131e-06
2.18952e-07
3.19925e-06
3.75919e-07
3.15832e-06
3.05961e-07
2.91485e-06
4.72725e-07
3.1754e-06
7.36688e-07
3.261e-06
9.85827e-07
2.99967e-06
1.09473e-06
2.38914e-06
1.01153e-06
1.65656e-06
8.92444e-07
1.1648e-06
7.82594e-07
8.61548e-07
6.88207e-07
6.68633e-07
6.07575e-07
5.39815e-07
5.38005e-07
4.49935e-07
4.77142e-07
3.84886e-07
4.23129e-07
3.36383e-07
3.74544e-07
2.99346e-07
3.30291e-07
2.70533e-07
2.89521e-07
2.47803e-07
2.51563e-07
2.29702e-07
2.1588e-07
2.15217e-07
1.82031e-07
2.03626e-07
1.4965e-07
1.9441e-07
1.18424e-07
1.87191e-07
8.808e-08
1.81696e-07
5.8375e-08
1.77729e-07
2.90852e-08
1.75154e-07
1.73887e-07
-3.16818e-08
2.05568e-07
-6.35809e-08
2.07053e-07
-9.59209e-08
2.10069e-07
-1.28938e-07
2.14713e-07
-1.62889e-07
2.21142e-07
-1.98059e-07
2.2958e-07
-2.34774e-07
2.4034e-07
-2.73411e-07
2.53854e-07
-3.14417e-07
2.70709e-07
-3.58333e-07
2.91719e-07
-4.05816e-07
3.18016e-07
-4.57681e-07
3.51211e-07
-5.14937e-07
3.93639e-07
-5.78826e-07
4.48776e-07
-6.5083e-07
5.21939e-07
-7.32522e-07
6.21507e-07
-8.24942e-07
7.61053e-07
-9.26309e-07
9.62915e-07
-1.02426e-06
1.26275e-06
-1.07379e-06
1.7061e-06
-9.7549e-07
2.29083e-06
-7.62736e-07
2.78692e-06
-5.3333e-07
3.03159e-06
-3.80731e-07
3.0228e-06
-3.70131e-07
2.90425e-06
-2.33061e-07
3.02125e-06
-3.60645e-08
3.00225e-06
-3.07846e-07
2.58309e-06
2.15933e-07
3.15289e-06
-3.62917e-07
2.26645e-06
5.3615e-07
3.30329e-06
-5.76493e-07
1.66543e-06
-1.7848e-06
1.30052e-06
-3.9091e-06
2.09915e-06
-6.54306e-06
2.60824e-07
-9.21672e-06
1.26833e-07
-1.16998e-05
-1.82835e-06
-9.45476e-06
-1.05881e-05
-4.85589e-06
-1.61884e-05
2.70712e-17
-1.79062e-05
4.85589e-06
-1.79062e-05
9.45476e-06
-1.61884e-05
1.16998e-05
-1.05881e-05
9.21672e-06
-1.82835e-06
6.54306e-06
1.26833e-07
3.9091e-06
2.60824e-07
1.7848e-06
2.09915e-06
5.76493e-07
1.30052e-06
-5.3615e-07
1.66543e-06
3.62917e-07
3.30329e-06
-2.15933e-07
2.26645e-06
3.07846e-07
3.15289e-06
3.60645e-08
2.58309e-06
2.33061e-07
3.00225e-06
3.70131e-07
3.02125e-06
3.80731e-07
2.90425e-06
5.3333e-07
3.0228e-06
7.62736e-07
3.03159e-06
9.7549e-07
2.78692e-06
1.07379e-06
2.29083e-06
1.02426e-06
1.7061e-06
9.26309e-07
1.26275e-06
8.24942e-07
9.62915e-07
7.32522e-07
7.61053e-07
6.5083e-07
6.21507e-07
5.78826e-07
5.21939e-07
5.14937e-07
4.48776e-07
4.57681e-07
3.93639e-07
4.05816e-07
3.51211e-07
3.58333e-07
3.18016e-07
3.14417e-07
2.91719e-07
2.73411e-07
2.70709e-07
2.34774e-07
2.53854e-07
1.98059e-07
2.4034e-07
1.62889e-07
2.2958e-07
1.28938e-07
2.21142e-07
9.59209e-08
2.14713e-07
6.35809e-08
2.10069e-07
3.16818e-08
2.07053e-07
2.05568e-07
-3.444e-08
2.40008e-07
-6.91085e-08
2.41721e-07
-1.0424e-07
2.452e-07
-1.40082e-07
2.50556e-07
-1.76902e-07
2.57962e-07
-2.14993e-07
2.67671e-07
-2.54689e-07
2.80036e-07
-2.9637e-07
2.95535e-07
-3.40481e-07
3.1482e-07
-3.87547e-07
3.38784e-07
-4.3819e-07
3.68659e-07
-4.93152e-07
4.06173e-07
-5.53302e-07
4.53789e-07
-6.1962e-07
5.15094e-07
-6.93091e-07
5.9541e-07
-7.74359e-07
7.02775e-07
-8.62738e-07
8.49431e-07
-9.53497e-07
1.05367e-06
-1.03101e-06
1.34027e-06
-1.05587e-06
1.73096e-06
-9.66531e-07
2.20149e-06
-7.85585e-07
2.60597e-06
-5.86802e-07
2.83281e-06
-4.42306e-07
2.8783e-06
-3.8158e-07
2.84353e-06
-2.59588e-07
2.89926e-06
-1.26932e-07
2.86959e-06
-2.18876e-07
2.67503e-06
5.20586e-08
2.88196e-06
-1.81923e-07
2.50043e-06
2.46645e-07
2.87473e-06
-2.68413e-07
2.18049e-06
-1.76613e-07
1.20872e-06
5.89501e-07
1.33303e-06
-8.62422e-08
9.36568e-07
-9.75359e-07
1.01595e-06
-3.69126e-06
8.87545e-07
-1.20748e-05
-2.20449e-06
-6.50639e-06
-2.17569e-05
-1.9082e-17
-2.44126e-05
6.50639e-06
-2.44126e-05
1.20748e-05
-2.17569e-05
3.69126e-06
-2.20449e-06
9.75359e-07
8.87545e-07
8.62422e-08
1.01595e-06
-5.89501e-07
9.36568e-07
1.76613e-07
1.33303e-06
2.68413e-07
1.20872e-06
-2.46645e-07
2.18049e-06
1.81923e-07
2.87473e-06
-5.20586e-08
2.50043e-06
2.18876e-07
2.88196e-06
1.26932e-07
2.67503e-06
2.59588e-07
2.86959e-06
3.8158e-07
2.89926e-06
4.42306e-07
2.84353e-06
5.86802e-07
2.8783e-06
7.85585e-07
2.83281e-06
9.66531e-07
2.60597e-06
1.05587e-06
2.20149e-06
1.03101e-06
1.73096e-06
9.53497e-07
1.34027e-06
8.62738e-07
1.05367e-06
7.74359e-07
8.49431e-07
6.93091e-07
7.02775e-07
6.1962e-07
5.9541e-07
5.53302e-07
5.15094e-07
4.93152e-07
4.53789e-07
4.3819e-07
4.06173e-07
3.87547e-07
3.68659e-07
3.40481e-07
3.38784e-07
2.9637e-07
3.1482e-07
2.54689e-07
2.95535e-07
2.14993e-07
2.80036e-07
1.76902e-07
2.67671e-07
1.40082e-07
2.57962e-07
1.0424e-07
2.50556e-07
6.91085e-08
2.452e-07
3.444e-08
2.41721e-07
2.40008e-07
-3.73451e-08
2.77354e-07
-7.49275e-08
2.79304e-07
-1.1299e-07
2.83263e-07
-1.51789e-07
2.89354e-07
-1.91595e-07
2.97768e-07
-2.32709e-07
3.08785e-07
-2.75462e-07
3.22789e-07
-3.2023e-07
3.40302e-07
-3.67439e-07
3.62029e-07
-4.17579e-07
3.88925e-07
-4.7121e-07
4.2229e-07
-5.2896e-07
4.63923e-07
-5.91502e-07
5.1633e-07
-6.59474e-07
5.83066e-07
-7.33275e-07
6.69211e-07
-8.12559e-07
7.82059e-07
-8.95053e-07
9.31926e-07
-9.73949e-07
1.13257e-06
-1.03287e-06
1.39918e-06
-1.04011e-06
1.7382e-06
-9.58681e-07
2.12006e-06
-8.04765e-07
2.45206e-06
-6.32211e-07
2.66025e-06
-4.93852e-07
2.73994e-06
-4.0455e-07
2.75423e-06
-2.92162e-07
2.78687e-06
-1.88013e-07
2.76544e-06
-1.88177e-07
2.6752e-06
-3.85782e-08
2.73236e-06
-1.05673e-07
2.56753e-06
9.64305e-08
2.67262e-06
-1.07201e-07
2.38412e-06
-3.58985e-08
1.13742e-06
1.43252e-07
1.15388e-06
9.09858e-09
1.07072e-06
-4.32247e-08
1.06827e-06
-2.34643e-07
1.07896e-06
-1.91192e-06
-5.27211e-07
-3.5378e-06
-2.0131e-05
2.30394e-18
-2.79504e-05
3.5378e-06
-2.79504e-05
1.91192e-06
-2.0131e-05
2.34643e-07
-5.27211e-07
4.32247e-08
1.07896e-06
-9.09858e-09
1.06827e-06
-1.43252e-07
1.07072e-06
3.58985e-08
1.15388e-06
1.07201e-07
1.13742e-06
-9.64305e-08
2.38412e-06
1.05673e-07
2.67262e-06
3.85782e-08
2.56753e-06
1.88177e-07
2.73236e-06
1.88013e-07
2.6752e-06
2.92162e-07
2.76544e-06
4.0455e-07
2.78687e-06
4.93852e-07
2.75423e-06
6.32211e-07
2.73994e-06
8.04765e-07
2.66025e-06
9.58681e-07
2.45206e-06
1.04011e-06
2.12006e-06
1.03287e-06
1.7382e-06
9.73949e-07
1.39918e-06
8.95053e-07
1.13257e-06
8.12559e-07
9.31926e-07
7.33275e-07
7.82059e-07
6.59474e-07
6.69211e-07
5.91502e-07
5.83066e-07
5.2896e-07
5.1633e-07
4.7121e-07
4.63923e-07
4.17579e-07
4.2229e-07
3.67439e-07
3.88925e-07
3.2023e-07
3.62029e-07
2.75462e-07
3.40302e-07
2.32709e-07
3.22789e-07
1.91595e-07
3.08785e-07
1.51789e-07
2.97768e-07
1.1299e-07
2.89354e-07
7.49275e-08
2.83263e-07
3.73451e-08
2.79304e-07
2.77354e-07
-4.03726e-08
3.17726e-07
-8.09878e-08
3.19919e-07
-1.22093e-07
3.24369e-07
-1.63947e-07
3.31208e-07
-2.06823e-07
3.40644e-07
-2.51016e-07
3.52979e-07
-2.96851e-07
3.68623e-07
-3.44681e-07
3.88133e-07
-3.94902e-07
4.1225e-07
-4.47945e-07
4.41968e-07
-5.04275e-07
4.78621e-07
-5.64366e-07
5.24013e-07
-6.2864e-07
5.80605e-07
-6.97338e-07
6.51764e-07
-7.7023e-07
7.42103e-07
-8.46022e-07
8.57851e-07
-9.21185e-07
1.00709e-06
-9.87817e-07
1.1992e-06
-1.0306e-06
1.44196e-06
-1.02562e-06
1.73323e-06
-9.51345e-07
2.04578e-06
-8.19876e-07
2.32059e-06
-6.69383e-07
2.50976e-06
-5.3736e-07
2.60792e-06
-4.33873e-07
2.65074e-06
-3.26914e-07
2.67991e-06
-2.33444e-07
2.67197e-06
-1.89152e-07
2.63091e-06
-9.20417e-08
2.63525e-06
-8.41988e-08
2.55968e-06
1.87309e-08
2.56969e-06
-4.44487e-08
2.4473e-06
-1.4235e-08
1.10721e-06
3.01126e-08
1.10953e-06
6.24159e-09
1.09459e-06
-2.09278e-08
1.09544e-06
-5.30704e-08
1.11111e-06
-2.44453e-07
-3.35828e-07
-9.07685e-07
-1.94677e-05
1.77999e-17
-2.88581e-05
9.07685e-07
-2.88581e-05
2.44453e-07
-1.94677e-05
5.30704e-08
-3.35828e-07
2.09278e-08
1.11111e-06
-6.24159e-09
1.09544e-06
-3.01126e-08
1.09459e-06
1.4235e-08
1.10953e-06
4.44487e-08
1.10721e-06
-1.87309e-08
2.4473e-06
8.41988e-08
2.56969e-06
9.20417e-08
2.55968e-06
1.89152e-07
2.63525e-06
2.33444e-07
2.63091e-06
3.26914e-07
2.67197e-06
4.33873e-07
2.67991e-06
5.3736e-07
2.65074e-06
6.69383e-07
2.60792e-06
8.19876e-07
2.50976e-06
9.51345e-07
2.32059e-06
1.02562e-06
2.04578e-06
1.0306e-06
1.73323e-06
9.87817e-07
1.44196e-06
9.21185e-07
1.1992e-06
8.46022e-07
1.00709e-06
7.7023e-07
8.57851e-07
6.97338e-07
7.42103e-07
6.2864e-07
6.51764e-07
5.64366e-07
5.80605e-07
5.04275e-07
5.24013e-07
4.47945e-07
4.78621e-07
3.94902e-07
4.41968e-07
3.44681e-07
4.1225e-07
2.96851e-07
3.88133e-07
2.51016e-07
3.68623e-07
2.06823e-07
3.52979e-07
1.63947e-07
3.40644e-07
1.22093e-07
3.31208e-07
8.09878e-08
3.24369e-07
4.03726e-08
3.19919e-07
3.17726e-07
-4.34858e-08
3.61212e-07
-8.72144e-08
3.63648e-07
-1.31433e-07
3.68587e-07
-1.76396e-07
3.76171e-07
-2.22372e-07
3.8662e-07
-2.69643e-07
4.0025e-07
-3.18512e-07
4.17493e-07
-3.69302e-07
4.38922e-07
-4.22353e-07
4.65301e-07
-4.78015e-07
4.9763e-07
-5.36627e-07
5.37233e-07
-5.98471e-07
5.85858e-07
-6.63682e-07
6.45816e-07
-7.32071e-07
7.20153e-07
-8.02797e-07
8.12829e-07
-8.73774e-07
9.28828e-07
-9.40654e-07
1.07397e-06
-9.95354e-07
1.2539e-06
-1.02467e-06
1.47128e-06
-1.01149e-06
1.72004e-06
-9.43721e-07
1.97801e-06
-8.30602e-07
2.20747e-06
-6.98571e-07
2.37773e-06
-5.73849e-07
2.4832e-06
-4.65294e-07
2.54218e-06
-3.61449e-07
2.57607e-06
-2.70952e-07
2.58148e-06
-2.05891e-07
2.56585e-06
-1.28379e-07
2.55774e-06
-8.87184e-08
2.52002e-06
-2.38751e-08
2.50485e-06
-2.66857e-08
2.45011e-06
-1.13389e-08
1.09186e-06
5.57594e-09
1.09262e-06
8.40954e-09
1.09176e-06
8.38103e-09
1.09547e-06
1.43206e-08
1.10517e-06
-4.52831e-08
-2.76224e-07
-4.08808e-07
-1.91042e-05
1.55963e-17
-2.92669e-05
4.08808e-07
-2.92669e-05
4.52831e-08
-1.91042e-05
-1.43206e-08
-2.76224e-07
-8.38103e-09
1.10517e-06
-8.40954e-09
1.09547e-06
-5.57594e-09
1.09176e-06
1.13389e-08
1.09262e-06
2.66857e-08
1.09186e-06
2.38751e-08
2.45011e-06
8.87184e-08
2.50485e-06
1.28379e-07
2.52002e-06
2.05891e-07
2.55774e-06
2.70952e-07
2.56585e-06
3.61449e-07
2.58148e-06
4.65294e-07
2.57607e-06
5.73849e-07
2.54218e-06
6.98571e-07
2.4832e-06
8.30602e-07
2.37773e-06
9.43721e-07
2.20747e-06
1.01149e-06
1.97801e-06
1.02467e-06
1.72004e-06
9.95354e-07
1.47128e-06
9.40654e-07
1.2539e-06
8.73774e-07
1.07397e-06
8.02797e-07
9.28828e-07
7.32071e-07
8.12829e-07
6.63682e-07
7.20153e-07
5.98471e-07
6.45816e-07
5.36627e-07
5.85858e-07
4.78015e-07
5.37233e-07
4.22353e-07
4.9763e-07
3.69302e-07
4.65301e-07
3.18512e-07
4.38922e-07
2.69643e-07
4.17493e-07
2.22372e-07
4.0025e-07
1.76396e-07
3.8662e-07
1.31433e-07
3.76171e-07
8.72144e-08
3.68587e-07
4.34858e-08
3.63648e-07
3.61212e-07
-4.66328e-08
4.07845e-07
-9.35022e-08
4.10517e-07
-1.40848e-07
4.15932e-07
-1.88913e-07
4.24237e-07
-2.37952e-07
4.35658e-07
-2.88223e-07
4.50521e-07
-3.39996e-07
4.69265e-07
-3.93542e-07
4.92469e-07
-4.49131e-07
5.20889e-07
-5.07007e-07
5.55505e-07
-5.67355e-07
5.97581e-07
-6.30239e-07
6.48742e-07
-6.95486e-07
7.11062e-07
-7.62489e-07
7.87156e-07
-8.2988e-07
8.8022e-07
-8.95004e-07
9.93952e-07
-9.5317e-07
1.13214e-06
-9.96816e-07
1.29755e-06
-1.01527e-06
1.48974e-06
-9.96789e-07
1.70156e-06
-9.34911e-07
1.91614e-06
-8.36684e-07
2.10924e-06
-7.20161e-07
2.26121e-06
-6.03658e-07
2.36669e-06
-4.95551e-07
2.43408e-06
-3.94085e-07
2.4746e-06
-3.04012e-07
2.4914e-06
-2.29367e-07
2.4912e-06
-1.57277e-07
2.48565e-06
-1.03933e-07
2.46668e-06
-5.00855e-08
2.451e-06
-2.52972e-08
2.42533e-06
-1.07606e-08
1.07732e-06
4.21528e-09
1.07764e-06
1.74313e-08
1.07854e-06
3.2042e-08
1.08086e-06
5.31838e-08
1.08402e-06
2.5035e-08
-2.48076e-07
-2.57674e-07
-1.88215e-05
-3.50374e-19
-2.95246e-05
2.57674e-07
-2.95246e-05
-2.5035e-08
-1.88215e-05
-5.31838e-08
-2.48076e-07
-3.2042e-08
1.08402e-06
-1.74313e-08
1.08086e-06
-4.21528e-09
1.07854e-06
1.07606e-08
1.07764e-06
2.52972e-08
1.07732e-06
5.00855e-08
2.42533e-06
1.03933e-07
2.451e-06
1.57277e-07
2.46668e-06
2.29367e-07
2.48565e-06
3.04012e-07
2.4912e-06
3.94085e-07
2.4914e-06
4.95551e-07
2.4746e-06
6.03658e-07
2.43408e-06
7.20161e-07
2.36669e-06
8.36684e-07
2.26121e-06
9.34911e-07
2.10924e-06
9.96789e-07
1.91614e-06
1.01527e-06
1.70156e-06
9.96816e-07
1.48974e-06
9.5317e-07
1.29755e-06
8.95004e-07
1.13214e-06
8.2988e-07
9.93952e-07
7.62489e-07
8.8022e-07
6.95486e-07
7.87156e-07
6.30239e-07
7.11062e-07
5.67355e-07
6.48742e-07
5.07007e-07
5.97581e-07
4.49131e-07
5.55505e-07
3.93542e-07
5.20889e-07
3.39996e-07
4.92469e-07
2.88223e-07
4.69265e-07
2.37952e-07
4.50521e-07
1.88913e-07
4.35658e-07
1.40848e-07
4.24237e-07
9.35022e-08
4.15932e-07
4.66328e-08
4.10517e-07
4.07845e-07
-4.97444e-08
4.57589e-07
-9.9711e-08
4.60484e-07
-1.50123e-07
4.66345e-07
-2.01205e-07
4.75319e-07
-2.53184e-07
4.87637e-07
-3.06285e-07
5.03622e-07
-3.60727e-07
5.23708e-07
-4.16719e-07
5.48461e-07
-4.74436e-07
5.78606e-07
-5.33997e-07
6.15066e-07
-5.95416e-07
6.59e-07
-6.58527e-07
7.11852e-07
-7.22856e-07
7.75392e-07
-7.87433e-07
8.51733e-07
-8.50493e-07
9.43281e-07
-9.0908e-07
1.05254e-06
-9.58575e-07
1.18163e-06
-9.92381e-07
1.33135e-06
-1.00231e-06
1.49967e-06
-9.80593e-07
1.67984e-06
-9.24001e-07
1.85954e-06
-8.37874e-07
2.02311e-06
-7.3448e-07
2.15781e-06
-6.26714e-07
2.25893e-06
-5.22245e-07
2.32961e-06
-4.23418e-07
2.37578e-06
-3.33554e-07
2.40154e-06
-2.54494e-07
2.41214e-06
-1.82468e-07
2.41362e-06
-1.22231e-07
2.40644e-06
-6.84218e-08
2.39719e-06
-2.87272e-08
2.38563e-06
-1.09539e-08
1.05955e-06
7.0167e-09
1.05967e-06
2.52842e-08
1.06027e-06
4.48223e-08
1.06132e-06
6.67029e-08
1.06214e-06
4.1677e-08
-2.2305e-07
-2.14803e-07
-1.8565e-05
1.09623e-18
-2.97394e-05
2.14803e-07
-2.97394e-05
-4.1677e-08
-1.8565e-05
-6.67029e-08
-2.2305e-07
-4.48223e-08
1.06214e-06
-2.52842e-08
1.06132e-06
-7.0167e-09
1.06027e-06
1.09539e-08
1.05967e-06
2.87272e-08
1.05955e-06
6.84218e-08
2.38563e-06
1.22231e-07
2.39719e-06
1.82468e-07
2.40644e-06
2.54494e-07
2.41362e-06
3.33554e-07
2.41214e-06
4.23418e-07
2.40154e-06
5.22245e-07
2.37578e-06
6.26714e-07
2.32961e-06
7.3448e-07
2.25893e-06
8.37874e-07
2.15781e-06
9.24001e-07
2.02311e-06
9.80593e-07
1.85954e-06
1.00231e-06
1.67984e-06
9.92381e-07
1.49967e-06
9.58575e-07
1.33135e-06
9.0908e-07
1.18163e-06
8.50493e-07
1.05254e-06
7.87433e-07
9.43281e-07
7.22856e-07
8.51733e-07
6.58527e-07
7.75392e-07
5.95416e-07
7.11852e-07
5.33997e-07
6.59e-07
4.74436e-07
6.15066e-07
4.16719e-07
5.78606e-07
3.60727e-07
5.48461e-07
3.06285e-07
5.23708e-07
2.53184e-07
5.03622e-07
2.01205e-07
4.87637e-07
1.50123e-07
4.75319e-07
9.9711e-08
4.66345e-07
4.97444e-08
4.60484e-07
4.57589e-07
-5.27318e-08
5.10321e-07
-1.05662e-07
5.13414e-07
-1.58988e-07
5.1967e-07
-2.12903e-07
5.29235e-07
-2.67597e-07
5.42331e-07
-3.23248e-07