/*--------------------------------*- C++ -*----------------------------------*\
  =========                 |
  \\      /  F ield         | OpenFOAM: The Open Source CFD Toolbox
   \\    /   O peration     | Website:  https://openfoam.org
    \\  /    A nd           | Version:  10
     \\/     M anipulation  |
\*---------------------------------------------------------------------------*/
FoamFile
{
    format      ascii;
    class       volVectorField;
    location    "12200";
    object      Ub;
}
// * * * * * * * * * * * * * * * * * * * * * * * * * * * * * * * * * * * * * //

dimensions      [0 1 -1 0 0 0 0];

internalField   nonuniform List<vector> 
6400
(
(-4.82344e-21 -9.87899e-16 0)
(-1.45063e-20 -9.87899e-16 0)
(-2.42981e-20 -9.87899e-16 0)
(-3.42758e-20 -9.87899e-16 0)
(-4.45226e-20 -9.87899e-16 0)
(-5.51317e-20 -9.87899e-16 0)
(-6.62104e-20 -9.87899e-16 0)
(-7.78856e-20 -9.87899e-16 0)
(-9.03116e-20 -9.87899e-16 0)
(-1.03681e-19 -9.87899e-16 0)
(-1.18243e-19 -9.87899e-16 0)
(-1.34323e-19 -9.87898e-16 0)
(-1.5237e-19 -9.87898e-16 0)
(-1.73018e-19 -9.87898e-16 0)
(-1.97209e-19 -9.87898e-16 0)
(-2.2641e-19 -9.87897e-16 0)
(-2.63029e-19 -9.87896e-16 0)
(-3.11012e-19 -9.87895e-16 0)
(-4.58557e-19 -9.87893e-16 0)
(-1.25473e-07 -1.19947e-15 0)
(-8.04763e-05 -3.78906e-05 0)
(-0.000170381 8.92161e-07 0)
(-0.000179455 -4.57604e-07 0)
(-0.000176917 -5.79713e-07 0)
(-0.000170309 -1.07654e-06 0)
(-0.000163525 -5.23386e-07 0)
(-0.000160155 -3.3162e-07 0)
(-0.0001565 -5.4987e-07 0)
(-0.000152838 -3.11478e-07 0)
(-0.000150178 -3.30711e-07 0)
(-0.000147235 -3.57644e-07 0)
(-0.000142457 -6.94605e-07 0)
(-0.000136642 -1.21876e-06 0)
(-0.000130366 -1.72182e-06 0)
(-0.000121418 -2.43909e-06 0)
(-0.000108894 -3.3549e-06 0)
(-9.20235e-05 -4.42596e-06 0)
(-7.03991e-05 -5.52777e-06 0)
(-4.43567e-05 -6.44575e-06 0)
(-1.51658e-05 -6.96721e-06 0)
(1.51658e-05 -6.96721e-06 0)
(4.43567e-05 -6.44575e-06 0)
(7.03991e-05 -5.52777e-06 0)
(9.20235e-05 -4.42596e-06 0)
(0.000108894 -3.3549e-06 0)
(0.000121418 -2.43909e-06 0)
(0.000130366 -1.72182e-06 0)
(0.000136642 -1.21876e-06 0)
(0.000142457 -6.94605e-07 0)
(0.000147235 -3.57644e-07 0)
(0.000150178 -3.30711e-07 0)
(0.000152838 -3.11478e-07 0)
(0.0001565 -5.4987e-07 0)
(0.000160155 -3.3162e-07 0)
(0.000163525 -5.23386e-07 0)
(0.000170309 -1.07654e-06 0)
(0.000176917 -5.79713e-07 0)
(0.000179455 -4.57604e-07 0)
(0.000170381 8.92161e-07 0)
(8.04763e-05 -3.78906e-05 0)
(1.25473e-07 -1.19947e-15 0)
(4.58557e-19 -9.87893e-16 0)
(3.11012e-19 -9.87895e-16 0)
(2.63029e-19 -9.87896e-16 0)
(2.2641e-19 -9.87897e-16 0)
(1.97209e-19 -9.87898e-16 0)
(1.73018e-19 -9.87898e-16 0)
(1.5237e-19 -9.87898e-16 0)
(1.34323e-19 -9.87898e-16 0)
(1.18243e-19 -9.87899e-16 0)
(1.03681e-19 -9.87899e-16 0)
(9.03116e-20 -9.87899e-16 0)
(7.78856e-20 -9.87899e-16 0)
(6.62104e-20 -9.87899e-16 0)
(5.51317e-20 -9.87899e-16 0)
(4.45226e-20 -9.87899e-16 0)
(3.42758e-20 -9.87899e-16 0)
(2.42981e-20 -9.87899e-16 0)
(1.45063e-20 -9.87899e-16 0)
(4.82344e-21 -9.87899e-16 0)
(-4.82186e-21 -9.87895e-16 0)
(-1.45015e-20 -9.87895e-16 0)
(-2.429e-20 -9.87895e-16 0)
(-3.4264e-20 -9.87895e-16 0)
(-4.45068e-20 -9.87895e-16 0)
(-5.51112e-20 -9.87895e-16 0)
(-6.61843e-20 -9.87895e-16 0)
(-7.78528e-20 -9.87895e-16 0)
(-9.02704e-20 -9.87894e-16 0)
(-1.03629e-19 -9.87894e-16 0)
(-1.18176e-19 -9.87894e-16 0)
(-1.34237e-19 -9.87893e-16 0)
(-1.52256e-19 -9.87892e-16 0)
(-1.72864e-19 -9.87892e-16 0)
(-1.96992e-19 -9.8789e-16 0)
(-2.26088e-19 -9.87888e-16 0)
(-2.62536e-19 -9.87886e-16 0)
(-3.1046e-19 -9.87881e-16 0)
(-3.78323e-19 -9.87876e-16 0)
(-7.67382e-19 -9.87911e-16 0)
(-1.6808e-07 -1.2187e-15 0)
(-8.19996e-05 1.42064e-06 0)
(-0.000166599 -5.55252e-07 0)
(-0.000168699 -1.33742e-06 0)
(-0.000163559 -3.08638e-06 0)
(-0.000157534 -1.40559e-06 0)
(-0.00015484 -8.58578e-07 0)
(-0.000151561 -1.59473e-06 0)
(-0.000148167 -8.48913e-07 0)
(-0.000145794 -9.32861e-07 0)
(-0.000143121 -1.0113e-06 0)
(-0.000138715 -2.04985e-06 0)
(-0.00013328 -3.63849e-06 0)
(-0.000127386 -5.17683e-06 0)
(-0.000118893 -7.384e-06 0)
(-0.000106885 -1.02063e-05 0)
(-9.05617e-05 -1.35232e-05 0)
(-6.945e-05 -1.69546e-05 0)
(-4.38373e-05 -1.98211e-05 0)
(-1.50019e-05 -2.14503e-05 0)
(1.50019e-05 -2.14503e-05 0)
(4.38373e-05 -1.98211e-05 0)
(6.945e-05 -1.69546e-05 0)
(9.05617e-05 -1.35232e-05 0)
(0.000106885 -1.02063e-05 0)
(0.000118893 -7.384e-06 0)
(0.000127386 -5.17683e-06 0)
(0.00013328 -3.63849e-06 0)
(0.000138715 -2.04985e-06 0)
(0.000143121 -1.0113e-06 0)
(0.000145794 -9.32861e-07 0)
(0.000148167 -8.48913e-07 0)
(0.000151561 -1.59473e-06 0)
(0.00015484 -8.58578e-07 0)
(0.000157534 -1.40559e-06 0)
(0.000163559 -3.08638e-06 0)
(0.000168699 -1.33742e-06 0)
(0.000166599 -5.55252e-07 0)
(8.19996e-05 1.42064e-06 0)
(1.6808e-07 -1.2187e-15 0)
(7.67382e-19 -9.87911e-16 0)
(3.78323e-19 -9.87876e-16 0)
(3.1046e-19 -9.87881e-16 0)
(2.62536e-19 -9.87886e-16 0)
(2.26088e-19 -9.87888e-16 0)
(1.96992e-19 -9.8789e-16 0)
(1.72864e-19 -9.87892e-16 0)
(1.52256e-19 -9.87892e-16 0)
(1.34237e-19 -9.87893e-16 0)
(1.18176e-19 -9.87894e-16 0)
(1.03629e-19 -9.87894e-16 0)
(9.02704e-20 -9.87894e-16 0)
(7.78528e-20 -9.87895e-16 0)
(6.61843e-20 -9.87895e-16 0)
(5.51112e-20 -9.87895e-16 0)
(4.45068e-20 -9.87895e-16 0)
(3.4264e-20 -9.87895e-16 0)
(2.429e-20 -9.87895e-16 0)
(1.45015e-20 -9.87895e-16 0)
(4.82186e-21 -9.87895e-16 0)
(-4.81828e-21 -9.87893e-16 0)
(-1.44906e-20 -9.87893e-16 0)
(-2.42715e-20 -9.87893e-16 0)
(-3.42372e-20 -9.87893e-16 0)
(-4.44707e-20 -9.87893e-16 0)
(-5.50645e-20 -9.87893e-16 0)
(-6.6125e-20 -9.87892e-16 0)
(-7.77781e-20 -9.87892e-16 0)
(-9.01765e-20 -9.87891e-16 0)
(-1.03511e-19 -9.87891e-16 0)
(-1.18025e-19 -9.8789e-16 0)
(-1.34042e-19 -9.87889e-16 0)
(-1.51998e-19 -9.87888e-16 0)
(-1.72512e-19 -9.87886e-16 0)
(-1.96495e-19 -9.87884e-16 0)
(-2.25352e-19 -9.87881e-16 0)
(-2.61398e-19 -9.87876e-16 0)
(-3.08816e-19 -9.87868e-16 0)
(-3.7824e-19 -9.87857e-16 0)
(-5.39302e-19 -9.87845e-16 0)
(-6.08382e-19 -9.87489e-16 0)
(-1.44594e-08 -9.99046e-16 0)
(-7.3514e-05 -2.63242e-07 0)
(-0.000153771 -9.54117e-07 0)
(-0.000156969 -5.23277e-06 0)
(-0.000152324 -2.23025e-06 0)
(-0.000150715 -1.33538e-06 0)
(-0.000147811 -2.78932e-06 0)
(-0.000144595 -1.38432e-06 0)
(-0.000142546 -1.58682e-06 0)
(-0.000140181 -1.67098e-06 0)
(-0.00013627 -3.45379e-06 0)
(-0.000131365 -6.09289e-06 0)
(-0.000126045 -8.71366e-06 0)
(-0.00011819 -1.25344e-05 0)
(-0.000106827 -1.74336e-05 0)
(-9.10604e-05 -2.32595e-05 0)
(-7.02299e-05 -2.93689e-05 0)
(-4.45126e-05 -3.45034e-05 0)
(-1.52645e-05 -3.74233e-05 0)
(1.52645e-05 -3.74233e-05 0)
(4.45126e-05 -3.45034e-05 0)
(7.02299e-05 -2.93689e-05 0)
(9.10604e-05 -2.32595e-05 0)
(0.000106827 -1.74336e-05 0)
(0.00011819 -1.25344e-05 0)
(0.000126045 -8.71366e-06 0)
(0.000131365 -6.09289e-06 0)
(0.00013627 -3.45379e-06 0)
(0.000140181 -1.67098e-06 0)
(0.000142546 -1.58682e-06 0)
(0.000144595 -1.38432e-06 0)
(0.000147811 -2.78932e-06 0)
(0.000150715 -1.33538e-06 0)
(0.000152324 -2.23025e-06 0)
(0.000156969 -5.23277e-06 0)
(0.000153771 -9.54117e-07 0)
(7.3514e-05 -2.63242e-07 0)
(1.44594e-08 -9.99046e-16 0)
(6.08382e-19 -9.87489e-16 0)
(5.39302e-19 -9.87845e-16 0)
(3.7824e-19 -9.87857e-16 0)
(3.08816e-19 -9.87868e-16 0)
(2.61398e-19 -9.87876e-16 0)
(2.25352e-19 -9.87881e-16 0)
(1.96495e-19 -9.87884e-16 0)
(1.72512e-19 -9.87886e-16 0)
(1.51998e-19 -9.87888e-16 0)
(1.34042e-19 -9.87889e-16 0)
(1.18025e-19 -9.8789e-16 0)
(1.03511e-19 -9.87891e-16 0)
(9.01765e-20 -9.87891e-16 0)
(7.77781e-20 -9.87892e-16 0)
(6.6125e-20 -9.87892e-16 0)
(5.50645e-20 -9.87893e-16 0)
(4.44707e-20 -9.87893e-16 0)
(3.42372e-20 -9.87893e-16 0)
(2.42715e-20 -9.87893e-16 0)
(1.44906e-20 -9.87893e-16 0)
(4.81828e-21 -9.87893e-16 0)
(-4.81212e-21 -9.87891e-16 0)
(-1.44719e-20 -9.87891e-16 0)
(-2.42396e-20 -9.87891e-16 0)
(-3.41911e-20 -9.8789e-16 0)
(-4.44086e-20 -9.8789e-16 0)
(-5.49839e-20 -9.8789e-16 0)
(-6.60227e-20 -9.87889e-16 0)
(-7.76494e-20 -9.87889e-16 0)
(-9.00149e-20 -9.87888e-16 0)
(-1.03307e-19 -9.87887e-16 0)
(-1.17765e-19 -9.87886e-16 0)
(-1.33706e-19 -9.87885e-16 0)
(-1.51554e-19 -9.87883e-16 0)
(-1.71909e-19 -9.87881e-16 0)
(-1.95644e-19 -9.87878e-16 0)
(-2.24095e-19 -9.87873e-16 0)
(-2.59437e-19 -9.87866e-16 0)
(-3.05633e-19 -9.87855e-16 0)
(-3.72404e-19 -9.87836e-16 0)
(-4.95412e-19 -9.87794e-16 0)
(-5.32557e-19 -9.87516e-16 0)
(-3.87171e-19 -9.87334e-16 0)
(-1.81973e-10 -9.85587e-16 0)
(-5.33212e-05 -1.03716e-07 0)
(-0.000125201 -3.16009e-06 0)
(-0.000144937 -2.6164e-06 0)
(-0.000146511 -1.56775e-06 0)
(-0.000144357 -4.19451e-06 0)
(-0.000141362 -1.82193e-06 0)
(-0.000139785 -2.27824e-06 0)
(-0.000137822 -2.25994e-06 0)
(-0.000134602 -4.84032e-06 0)
(-0.000130453 -8.40831e-06 0)
(-0.000126022 -1.21325e-05 0)
(-0.000119118 -1.77339e-05 0)
(-0.000108669 -2.49181e-05 0)
(-9.36304e-05 -3.36503e-05 0)
(-7.29451e-05 -4.30459e-05 0)
(-4.65637e-05 -5.10202e-05 0)
(-1.60228e-05 -5.55528e-05 0)
(1.60228e-05 -5.55528e-05 0)
(4.65637e-05 -5.10202e-05 0)
(7.29451e-05 -4.30459e-05 0)
(9.36304e-05 -3.36503e-05 0)
(0.000108669 -2.49181e-05 0)
(0.000119118 -1.77339e-05 0)
(0.000126022 -1.21325e-05 0)
(0.000130453 -8.40831e-06 0)
(0.000134602 -4.84032e-06 0)
(0.000137822 -2.25994e-06 0)
(0.000139785 -2.27824e-06 0)
(0.000141362 -1.82193e-06 0)
(0.000144357 -4.19451e-06 0)
(0.000146511 -1.56775e-06 0)
(0.000144937 -2.6164e-06 0)
(0.000125201 -3.16009e-06 0)
(5.33212e-05 -1.03716e-07 0)
(1.81973e-10 -9.85587e-16 0)
(3.87171e-19 -9.87334e-16 0)
(5.32557e-19 -9.87516e-16 0)
(4.95412e-19 -9.87794e-16 0)
(3.72404e-19 -9.87836e-16 0)
(3.05633e-19 -9.87855e-16 0)
(2.59437e-19 -9.87866e-16 0)
(2.24095e-19 -9.87873e-16 0)
(1.95644e-19 -9.87878e-16 0)
(1.71909e-19 -9.87881e-16 0)
(1.51554e-19 -9.87883e-16 0)
(1.33706e-19 -9.87885e-16 0)
(1.17765e-19 -9.87886e-16 0)
(1.03307e-19 -9.87887e-16 0)
(9.00149e-20 -9.87888e-16 0)
(7.76494e-20 -9.87889e-16 0)
(6.60227e-20 -9.87889e-16 0)
(5.49839e-20 -9.8789e-16 0)
(4.44086e-20 -9.8789e-16 0)
(3.41911e-20 -9.8789e-16 0)
(2.42396e-20 -9.87891e-16 0)
(1.44719e-20 -9.87891e-16 0)
(4.81212e-21 -9.87891e-16 0)
(-4.80267e-21 -9.87888e-16 0)
(-1.44433e-20 -9.87888e-16 0)
(-2.41908e-20 -9.87888e-16 0)
(-3.41203e-20 -9.87888e-16 0)
(-4.43134e-20 -9.87887e-16 0)
(-5.48607e-20 -9.87887e-16 0)
(-6.58662e-20 -9.87886e-16 0)
(-7.74525e-20 -9.87886e-16 0)
(-8.97677e-20 -9.87885e-16 0)
(-1.02995e-19 -9.87883e-16 0)
(-1.17369e-19 -9.87882e-16 0)
(-1.33193e-19 -9.8788e-16 0)
(-1.50878e-19 -9.87878e-16 0)
(-1.70992e-19 -9.87875e-16 0)
(-1.94355e-19 -9.8787e-16 0)
(-2.22196e-19 -9.87864e-16 0)
(-2.56468e-19 -9.87855e-16 0)
(-3.0059e-19 -9.8784e-16 0)
(-3.61761e-19 -9.87814e-16 0)
(-4.53749e-19 -9.87755e-16 0)
(-4.74692e-19 -9.87539e-16 0)
(-3.58429e-19 -9.87384e-16 0)
(-1.97608e-19 -9.87348e-16 0)
(-5.18111e-20 -9.87065e-16 0)
(-1.63691e-05 -7.35655e-12 0)
(-8.24902e-05 -1.31546e-06 0)
(-0.000137285 -8.46896e-07 0)
(-0.000139867 -5.87965e-06 0)
(-0.000137815 -1.98511e-06 0)
(-0.000137158 -3.01981e-06 0)
(-0.000135786 -2.67483e-06 0)
(-0.000133516 -6.14953e-06 0)
(-0.000130409 -1.03074e-05 0)
(-0.000127352 -1.50923e-05 0)
(-0.000121853 -2.27372e-05 0)
(-0.000112753 -3.23969e-05 0)
(-9.88489e-05 -4.46018e-05 0)
(-7.82724e-05 -5.83482e-05 0)
(-5.05054e-05 -7.01689e-05 0)
(-1.74634e-05 -7.68572e-05 0)
(1.74634e-05 -7.68572e-05 0)
(5.05054e-05 -7.01689e-05 0)
(7.82724e-05 -5.83482e-05 0)
(9.88489e-05 -4.46018e-05 0)
(0.000112753 -3.23969e-05 0)
(0.000121853 -2.27372e-05 0)
(0.000127352 -1.50923e-05 0)
(0.000130409 -1.03074e-05 0)
(0.000133516 -6.14953e-06 0)
(0.000135786 -2.67483e-06 0)
(0.000137158 -3.01981e-06 0)
(0.000137815 -1.98511e-06 0)
(0.000139867 -5.87965e-06 0)
(0.000137285 -8.46896e-07 0)
(8.24902e-05 -1.31546e-06 0)
(1.63691e-05 -7.35655e-12 0)
(5.18111e-20 -9.87065e-16 0)
(1.97608e-19 -9.87348e-16 0)
(3.58429e-19 -9.87384e-16 0)
(4.74692e-19 -9.87539e-16 0)
(4.53749e-19 -9.87755e-16 0)
(3.61761e-19 -9.87814e-16 0)
(3.0059e-19 -9.8784e-16 0)
(2.56468e-19 -9.87855e-16 0)
(2.22196e-19 -9.87864e-16 0)
(1.94355e-19 -9.8787e-16 0)
(1.70992e-19 -9.87875e-16 0)
(1.50878e-19 -9.87878e-16 0)
(1.33193e-19 -9.8788e-16 0)
(1.17369e-19 -9.87882e-16 0)
(1.02995e-19 -9.87883e-16 0)
(8.97677e-20 -9.87885e-16 0)
(7.74525e-20 -9.87886e-16 0)
(6.58662e-20 -9.87886e-16 0)
(5.48607e-20 -9.87887e-16 0)
(4.43134e-20 -9.87887e-16 0)
(3.41203e-20 -9.87888e-16 0)
(2.41908e-20 -9.87888e-16 0)
(1.44433e-20 -9.87888e-16 0)
(4.80267e-21 -9.87888e-16 0)
(-4.78911e-21 -9.87885e-16 0)
(-1.44021e-20 -9.87885e-16 0)
(-2.41207e-20 -9.87885e-16 0)
(-3.40189e-20 -9.87884e-16 0)
(-4.41769e-20 -9.87884e-16 0)
(-5.46839e-20 -9.87883e-16 0)
(-6.56418e-20 -9.87883e-16 0)
(-7.71704e-20 -9.87882e-16 0)
(-8.94138e-20 -9.87881e-16 0)
(-1.02549e-19 -9.87879e-16 0)
(-1.16802e-19 -9.87877e-16 0)
(-1.32462e-19 -9.87875e-16 0)
(-1.49916e-19 -9.87872e-16 0)
(-1.69692e-19 -9.87868e-16 0)
(-1.92535e-19 -9.87863e-16 0)
(-2.1953e-19 -9.87855e-16 0)
(-2.52317e-19 -9.87844e-16 0)
(-2.93512e-19 -9.87825e-16 0)
(-3.47292e-19 -9.87794e-16 0)
(-4.14498e-19 -9.87727e-16 0)
(-4.23674e-19 -9.87558e-16 0)
(-3.31007e-19 -9.87429e-16 0)
(-1.99459e-19 -9.87393e-16 0)
(-8.59598e-20 -9.87435e-16 0)
(-1.09713e-19 -9.87577e-16 0)
(-1.23546e-10 -8.55088e-16 0)
(-4.53194e-05 -4.99277e-08 0)
(-0.000108341 -3.39823e-06 0)
(-0.00013022 -1.11196e-06 0)
(-0.000133715 -3.77854e-06 0)
(-0.000133676 -2.70201e-06 0)
(-0.000132785 -7.3372e-06 0)
(-0.00013106 -1.13026e-05 0)
(-0.000130192 -1.69477e-05 0)
(-0.000126739 -2.72172e-05 0)
(-0.000119626 -3.92893e-05 0)
(-0.000107773 -5.57002e-05 0)
(-8.75039e-05 -7.57674e-05 0)
(-5.72987e-05 -9.3242e-05 0)
(-1.99242e-05 -0.000102974 0)
(1.99242e-05 -0.000102974 0)
(5.72987e-05 -9.3242e-05 0)
(8.75039e-05 -7.57674e-05 0)
(0.000107773 -5.57002e-05 0)
(0.000119626 -3.92893e-05 0)
(0.000126739 -2.72172e-05 0)
(0.000130192 -1.69477e-05 0)
(0.00013106 -1.13026e-05 0)
(0.000132785 -7.3372e-06 0)
(0.000133676 -2.70201e-06 0)
(0.000133715 -3.77854e-06 0)
(0.00013022 -1.11196e-06 0)
(0.000108341 -3.39823e-06 0)
(4.53194e-05 -4.99277e-08 0)
(1.23546e-10 -8.55088e-16 0)
(1.09713e-19 -9.87577e-16 0)
(8.59598e-20 -9.87435e-16 0)
(1.99459e-19 -9.87393e-16 0)
(3.31007e-19 -9.87429e-16 0)
(4.23674e-19 -9.87558e-16 0)
(4.14498e-19 -9.87727e-16 0)
(3.47292e-19 -9.87794e-16 0)
(2.93512e-19 -9.87825e-16 0)
(2.52317e-19 -9.87844e-16 0)
(2.1953e-19 -9.87855e-16 0)
(1.92535e-19 -9.87863e-16 0)
(1.69692e-19 -9.87868e-16 0)
(1.49916e-19 -9.87872e-16 0)
(1.32462e-19 -9.87875e-16 0)
(1.16802e-19 -9.87877e-16 0)
(1.02549e-19 -9.87879e-16 0)
(8.94138e-20 -9.87881e-16 0)
(7.71704e-20 -9.87882e-16 0)
(6.56418e-20 -9.87883e-16 0)
(5.46839e-20 -9.87883e-16 0)
(4.41769e-20 -9.87884e-16 0)
(3.40189e-20 -9.87884e-16 0)
(2.41207e-20 -9.87885e-16 0)
(1.44021e-20 -9.87885e-16 0)
(4.78911e-21 -9.87885e-16 0)
(-4.77044e-21 -9.87882e-16 0)
(-1.43455e-20 -9.87882e-16 0)
(-2.40242e-20 -9.87881e-16 0)
(-3.38792e-20 -9.87881e-16 0)
(-4.39891e-20 -9.87881e-16 0)
(-5.44408e-20 -9.8788e-16 0)
(-6.53335e-20 -9.87879e-16 0)
(-7.6783e-20 -9.87878e-16 0)
(-8.89282e-20 -9.87876e-16 0)
(-1.01939e-19 -9.87875e-16 0)
(-1.16027e-19 -9.87872e-16 0)
(-1.31464e-19 -9.8787e-16 0)
(-1.48607e-19 -9.87866e-16 0)
(-1.67932e-19 -9.87861e-16 0)
(-1.90086e-19 -9.87855e-16 0)
(-2.15973e-19 -9.87845e-16 0)
(-2.46846e-19 -9.87832e-16 0)
(-2.84374e-19 -9.87811e-16 0)
(-3.29956e-19 -9.87775e-16 0)
(-3.77782e-19 -9.87707e-16 0)
(-3.78832e-19 -9.87574e-16 0)
(-3.05174e-19 -9.87469e-16 0)
(-1.99519e-19 -9.87433e-16 0)
(-1.11067e-19 -9.87463e-16 0)
(-1.10622e-19 -9.8755e-16 0)
(-1.13054e-19 -9.87467e-16 0)
(1.95799e-20 -9.87132e-16 0)
(-3.59264e-09 -7.66409e-16 0)
(-5.14365e-05 -1.28867e-07 0)
(-0.000113158 -2.07601e-06 0)
(-0.000127827 -1.46116e-06 0)
(-0.000131218 -8.39232e-06 0)
(-0.000131647 -1.04595e-05 0)
(-0.000134681 -1.62784e-05 0)
(-0.000134143 -3.10663e-05 0)
(-0.000129821 -4.4276e-05 0)
(-0.000122223 -6.55919e-05 0)
(-0.000103107 -9.60349e-05 0)
(-6.86972e-05 -0.000122528 0)
(-2.39853e-05 -0.000136652 0)
(2.39853e-05 -0.000136652 0)
(6.86972e-05 -0.000122528 0)
(0.000103107 -9.60349e-05 0)
(0.000122223 -6.55919e-05 0)
(0.000129821 -4.4276e-05 0)
(0.000134143 -3.10663e-05 0)
(0.000134681 -1.62784e-05 0)
(0.000131647 -1.04595e-05 0)
(0.000131218 -8.39232e-06 0)
(0.000127827 -1.46116e-06 0)
(0.000113158 -2.07601e-06 0)
(5.14365e-05 -1.28867e-07 0)
(3.59264e-09 -7.66409e-16 0)
(-1.95799e-20 -9.87132e-16 0)
(1.13054e-19 -9.87467e-16 0)
(1.10622e-19 -9.8755e-16 0)
(1.11067e-19 -9.87463e-16 0)
(1.99519e-19 -9.87433e-16 0)
(3.05174e-19 -9.87469e-16 0)
(3.78832e-19 -9.87574e-16 0)
(3.77782e-19 -9.87707e-16 0)
(3.29956e-19 -9.87775e-16 0)
(2.84374e-19 -9.87811e-16 0)
(2.46846e-19 -9.87832e-16 0)
(2.15973e-19 -9.87845e-16 0)
(1.90086e-19 -9.87855e-16 0)
(1.67932e-19 -9.87861e-16 0)
(1.48607e-19 -9.87866e-16 0)
(1.31464e-19 -9.8787e-16 0)
(1.16027e-19 -9.87872e-16 0)
(1.01939e-19 -9.87875e-16 0)
(8.89282e-20 -9.87876e-16 0)
(7.6783e-20 -9.87878e-16 0)
(6.53335e-20 -9.87879e-16 0)
(5.44408e-20 -9.8788e-16 0)
(4.39891e-20 -9.87881e-16 0)
(3.38792e-20 -9.87881e-16 0)
(2.40242e-20 -9.87881e-16 0)
(1.43455e-20 -9.87882e-16 0)
(4.77044e-21 -9.87882e-16 0)
(-4.74547e-21 -9.87878e-16 0)
(-1.42698e-20 -9.87878e-16 0)
(-2.38952e-20 -9.87878e-16 0)
(-3.36926e-20 -9.87877e-16 0)
(-4.37382e-20 -9.87877e-16 0)
(-5.41162e-20 -9.87876e-16 0)
(-6.49221e-20 -9.87875e-16 0)
(-7.62668e-20 -9.87874e-16 0)
(-8.82819e-20 -9.87872e-16 0)
(-1.01127e-19 -9.8787e-16 0)
(-1.14999e-19 -9.87867e-16 0)
(-1.30146e-19 -9.87864e-16 0)
(-1.46886e-19 -9.87859e-16 0)
(-1.65629e-19 -9.87854e-16 0)
(-1.8691e-19 -9.87846e-16 0)
(-2.11417e-19 -9.87835e-16 0)
(-2.39972e-19 -9.8782e-16 0)
(-2.73295e-19 -9.87796e-16 0)
(-3.10647e-19 -9.87759e-16 0)
(-3.43652e-19 -9.87694e-16 0)
(-3.39459e-19 -9.87589e-16 0)
(-2.81041e-19 -9.87503e-16 0)
(-1.97325e-19 -9.87469e-16 0)
(-1.27049e-19 -9.87486e-16 0)
(-1.11254e-19 -9.87534e-16 0)
(-9.70576e-20 -9.87489e-16 0)
(-1.82015e-20 -9.87473e-16 0)
(-6.34639e-20 -9.87644e-16 0)
(2.4037e-21 -9.86474e-16 0)
(-1.28056e-09 -7.66163e-16 0)
(-4.26594e-05 -1.70161e-07 0)
(-0.000101479 -4.44362e-06 0)
(-0.000123608 -4.71139e-06 0)
(-0.000137683 -8.31643e-06 0)
(-0.000142587 -3.58565e-05 0)
(-0.000142143 -4.37764e-05 0)
(-0.000145195 -6.98132e-05 0)
(-0.000130064 -0.000120543 0)
(-8.7881e-05 -0.000162548 0)
(-3.05602e-05 -0.000182587 0)
(3.05602e-05 -0.000182587 0)
(8.7881e-05 -0.000162548 0)
(0.000130064 -0.000120543 0)
(0.000145195 -6.98132e-05 0)
(0.000142143 -4.37764e-05 0)
(0.000142587 -3.58565e-05 0)
(0.000137683 -8.31643e-06 0)
(0.000123608 -4.71139e-06 0)
(0.000101479 -4.44362e-06 0)
(4.26594e-05 -1.70161e-07 0)
(1.28056e-09 -7.66163e-16 0)
(-2.4037e-21 -9.86474e-16 0)
(6.34639e-20 -9.87644e-16 0)
(1.82015e-20 -9.87473e-16 0)
(9.70576e-20 -9.87489e-16 0)
(1.11254e-19 -9.87534e-16 0)
(1.27049e-19 -9.87486e-16 0)
(1.97325e-19 -9.87469e-16 0)
(2.81041e-19 -9.87503e-16 0)
(3.39459e-19 -9.87589e-16 0)
(3.43652e-19 -9.87694e-16 0)
(3.10647e-19 -9.87759e-16 0)
(2.73295e-19 -9.87796e-16 0)
(2.39972e-19 -9.8782e-16 0)
(2.11417e-19 -9.87835e-16 0)
(1.8691e-19 -9.87846e-16 0)
(1.65629e-19 -9.87854e-16 0)
(1.46886e-19 -9.87859e-16 0)
(1.30146e-19 -9.87864e-16 0)
(1.14999e-19 -9.87867e-16 0)
(1.01127e-19 -9.8787e-16 0)
(8.82819e-20 -9.87872e-16 0)
(7.62668e-20 -9.87874e-16 0)
(6.49221e-20 -9.87875e-16 0)
(5.41162e-20 -9.87876e-16 0)
(4.37382e-20 -9.87877e-16 0)
(3.36926e-20 -9.87877e-16 0)
(2.38952e-20 -9.87878e-16 0)
(1.42698e-20 -9.87878e-16 0)
(4.74547e-21 -9.87878e-16 0)
(-4.71281e-21 -9.87874e-16 0)
(-1.41707e-20 -9.87874e-16 0)
(-2.37266e-20 -9.87874e-16 0)
(-3.34487e-20 -9.87873e-16 0)
(-4.34105e-20 -9.87873e-16 0)
(-5.36926e-20 -9.87872e-16 0)
(-6.43858e-20 -9.8787e-16 0)
(-7.55947e-20 -9.87869e-16 0)
(-8.7442e-20 -9.87867e-16 0)
(-1.00075e-19 -9.87864e-16 0)
(-1.13671e-19 -9.87861e-16 0)
(-1.28449e-19 -9.87857e-16 0)
(-1.44681e-19 -9.87852e-16 0)
(-1.62702e-19 -9.87846e-16 0)
(-1.82917e-19 -9.87837e-16 0)
(-2.0578e-19 -9.87825e-16 0)
(-2.31679e-19 -9.87808e-16 0)
(-2.60506e-19 -9.87783e-16 0)
(-2.90155e-19 -9.87745e-16 0)
(-3.12094e-19 -9.87686e-16 0)
(-3.0484e-19 -9.87602e-16 0)
(-2.58569e-19 -9.87532e-16 0)
(-1.92795e-19 -9.875e-16 0)
(-1.3597e-19 -9.87506e-16 0)
(-1.11694e-19 -9.8753e-16 0)
(-8.97273e-20 -9.87507e-16 0)
(-4.00335e-20 -9.87506e-16 0)
(-5.11581e-20 -9.87589e-16 0)
(-1.36724e-20 -9.87466e-16 0)
(-2.18645e-20 -9.87648e-16 0)
(2.57692e-20 -9.86864e-16 0)
(-1.18094e-20 -8.1168e-16 0)
(-1.24684e-08 -6.76585e-16 0)
(-3.06109e-05 -7.84431e-07 0)
(-8.46514e-05 -1.94313e-05 0)
(-0.000130731 -2.0745e-05 0)
(-0.000174207 -5.01237e-05 0)
(-0.000176365 -0.000152199 0)
(-0.000119325 -0.00022286 0)
(-4.04892e-05 -0.000248266 0)
(4.04892e-05 -0.000248266 0)
(0.000119325 -0.00022286 0)
(0.000176365 -0.000152199 0)
(0.000174207 -5.01237e-05 0)
(0.000130731 -2.0745e-05 0)
(8.46514e-05 -1.94313e-05 0)
(3.06109e-05 -7.84431e-07 0)
(1.24684e-08 -6.76585e-16 0)
(1.18094e-20 -8.1168e-16 0)
(-2.57692e-20 -9.86864e-16 0)
(2.18645e-20 -9.87648e-16 0)
(1.36724e-20 -9.87466e-16 0)
(5.11581e-20 -9.87589e-16 0)
(4.00335e-20 -9.87506e-16 0)
(8.97273e-20 -9.87507e-16 0)
(1.11694e-19 -9.8753e-16 0)
(1.3597e-19 -9.87506e-16 0)
(1.92795e-19 -9.875e-16 0)
(2.58569e-19 -9.87532e-16 0)
(3.0484e-19 -9.87602e-16 0)
(3.12094e-19 -9.87686e-16 0)
(2.90155e-19 -9.87745e-16 0)
(2.60506e-19 -9.87783e-16 0)
(2.31679e-19 -9.87808e-16 0)
(2.0578e-19 -9.87825e-16 0)
(1.82917e-19 -9.87837e-16 0)
(1.62702e-19 -9.87846e-16 0)
(1.44681e-19 -9.87852e-16 0)
(1.28449e-19 -9.87857e-16 0)
(1.13671e-19 -9.87861e-16 0)
(1.00075e-19 -9.87864e-16 0)
(8.7442e-20 -9.87867e-16 0)
(7.55947e-20 -9.87869e-16 0)
(6.43858e-20 -9.8787e-16 0)
(5.36926e-20 -9.87872e-16 0)
(4.34105e-20 -9.87873e-16 0)
(3.34487e-20 -9.87873e-16 0)
(2.37266e-20 -9.87874e-16 0)
(1.41707e-20 -9.87874e-16 0)
(4.71281e-21 -9.87874e-16 0)
(-4.67084e-21 -9.8787e-16 0)
(-1.40435e-20 -9.8787e-16 0)
(-2.351e-20 -9.8787e-16 0)
(-3.31357e-20 -9.87869e-16 0)
(-4.29902e-20 -9.87868e-16 0)
(-5.31498e-20 -9.87867e-16 0)
(-6.36995e-20 -9.87866e-16 0)
(-7.47361e-20 -9.87864e-16 0)
(-8.63715e-20 -9.87861e-16 0)
(-9.87371e-20 -9.87859e-16 0)
(-1.11989e-19 -9.87855e-16 0)
(-1.26311e-19 -9.87851e-16 0)
(-1.41923e-19 -9.87845e-16 0)
(-1.59075e-19 -9.87837e-16 0)
(-1.78033e-19 -9.87828e-16 0)
(-1.9902e-19 -9.87815e-16 0)
(-2.22027e-19 -9.87797e-16 0)
(-2.46323e-19 -9.87771e-16 0)
(-2.69145e-19 -9.87734e-16 0)
(-2.83029e-19 -9.87681e-16 0)
(-2.74284e-19 -9.87614e-16 0)
(-2.37627e-19 -9.87557e-16 0)
(-1.86127e-19 -9.87527e-16 0)
(-1.3957e-19 -9.87525e-16 0)
(-1.11738e-19 -9.87534e-16 0)
(-8.69569e-20 -9.87524e-16 0)
(-5.24208e-20 -9.87527e-16 0)
(-4.68993e-20 -9.87565e-16 0)
(-2.26242e-20 -9.87516e-16 0)
(-1.76125e-20 -9.87597e-16 0)
(8.77787e-21 -9.87507e-16 0)
(-2.95217e-21 -9.87655e-16 0)
(-6.03556e-20 -9.87541e-16 0)
(5.5997e-20 -9.86329e-16 0)
(1.90332e-21 -9.25702e-16 0)
(-1.35012e-07 -2.80528e-15 0)
(-2.70013e-05 -1.52998e-05 0)
(-0.000118414 -0.000103955 0)
(-0.000140922 -0.00030434 0)
(-4.93746e-05 -0.00033929 0)
(4.93746e-05 -0.00033929 0)
(0.000140922 -0.00030434 0)
(0.000118414 -0.000103955 0)
(2.70013e-05 -1.52998e-05 0)
(1.35012e-07 -2.80528e-15 0)
(-1.90332e-21 -9.25702e-16 0)
(-5.5997e-20 -9.86329e-16 0)
(6.03556e-20 -9.87541e-16 0)
(2.95217e-21 -9.87655e-16 0)
(-8.77787e-21 -9.87507e-16 0)
(1.76125e-20 -9.87597e-16 0)
(2.26242e-20 -9.87516e-16 0)
(4.68993e-20 -9.87565e-16 0)
(5.24208e-20 -9.87527e-16 0)
(8.69569e-20 -9.87524e-16 0)
(1.11738e-19 -9.87534e-16 0)
(1.3957e-19 -9.87525e-16 0)
(1.86127e-19 -9.87527e-16 0)
(2.37627e-19 -9.87557e-16 0)
(2.74284e-19 -9.87614e-16 0)
(2.83029e-19 -9.87681e-16 0)
(2.69145e-19 -9.87734e-16 0)
(2.46323e-19 -9.87771e-16 0)
(2.22027e-19 -9.87797e-16 0)
(1.9902e-19 -9.87815e-16 0)
(1.78033e-19 -9.87828e-16 0)
(1.59075e-19 -9.87837e-16 0)
(1.41923e-19 -9.87845e-16 0)
(1.26311e-19 -9.87851e-16 0)
(1.11989e-19 -9.87855e-16 0)
(9.87371e-20 -9.87859e-16 0)
(8.63715e-20 -9.87861e-16 0)
(7.47361e-20 -9.87864e-16 0)
(6.36995e-20 -9.87866e-16 0)
(5.31498e-20 -9.87867e-16 0)
(4.29902e-20 -9.87868e-16 0)
(3.31357e-20 -9.87869e-16 0)
(2.351e-20 -9.8787e-16 0)
(1.40435e-20 -9.8787e-16 0)
(4.67084e-21 -9.8787e-16 0)
(-4.61772e-21 -9.87866e-16 0)
(-1.38825e-20 -9.87866e-16 0)
(-2.32361e-20 -9.87865e-16 0)
(-3.274e-20 -9.87864e-16 0)
(-4.24595e-20 -9.87863e-16 0)
(-5.24654e-20 -9.87862e-16 0)
(-6.28355e-20 -9.8786e-16 0)
(-7.36575e-20 -9.87858e-16 0)
(-8.50304e-20 -9.87856e-16 0)
(-9.70676e-20 -9.87852e-16 0)
(-1.09899e-19 -9.87848e-16 0)
(-1.23671e-19 -9.87843e-16 0)
(-1.38545e-19 -9.87837e-16 0)
(-1.54683e-19 -9.87829e-16 0)
(-1.72214e-19 -9.87818e-16 0)
(-1.91143e-19 -9.87804e-16 0)
(-2.11147e-19 -9.87786e-16 0)
(-2.31103e-19 -9.8776e-16 0)
(-2.48143e-19 -9.87725e-16 0)
(-2.56324e-19 -9.87679e-16 0)
(-2.47151e-19 -9.87625e-16 0)
(-2.1805e-19 -9.87578e-16 0)
(-1.77682e-19 -9.87551e-16 0)
(-1.39238e-19 -9.87543e-16 0)
(-1.11088e-19 -9.87544e-16 0)
(-8.61486e-20 -9.87538e-16 0)
(-5.93737e-20 -9.87542e-16 0)
(-4.6516e-20 -9.8756e-16 0)
(-2.80383e-20 -9.87543e-16 0)
(-1.78367e-20 -9.87578e-16 0)
(-1.14287e-21 -9.87547e-16 0)
(-1.33172e-21 -9.87609e-16 0)
(-1.76942e-20 -9.87564e-16 0)
(1.32742e-20 -9.87544e-16 0)
(1.88381e-20 -9.87612e-16 0)
(-2.34012e-19 -9.87601e-16 0)
(-1.35815e-08 -2.29829e-14 0)
(-1.24209e-05 -2.50065e-05 0)
(-3.65668e-05 -0.000336171 0)
(-2.41595e-05 -0.000419733 0)
(2.41595e-05 -0.000419733 0)
(3.65668e-05 -0.000336171 0)
(1.24209e-05 -2.50065e-05 0)
(1.35815e-08 -2.29829e-14 0)
(2.34012e-19 -9.87601e-16 0)
(-1.88381e-20 -9.87612e-16 0)
(-1.32742e-20 -9.87544e-16 0)
(1.76942e-20 -9.87564e-16 0)
(1.33172e-21 -9.87609e-16 0)
(1.14287e-21 -9.87547e-16 0)
(1.78367e-20 -9.87578e-16 0)
(2.80383e-20 -9.87543e-16 0)
(4.6516e-20 -9.8756e-16 0)
(5.93737e-20 -9.87542e-16 0)
(8.61486e-20 -9.87538e-16 0)
(1.11088e-19 -9.87544e-16 0)
(1.39238e-19 -9.87543e-16 0)
(1.77682e-19 -9.87551e-16 0)
(2.1805e-19 -9.87578e-16 0)
(2.47151e-19 -9.87625e-16 0)
(2.56324e-19 -9.87679e-16 0)
(2.48143e-19 -9.87725e-16 0)
(2.31103e-19 -9.8776e-16 0)
(2.11147e-19 -9.87786e-16 0)
(1.91143e-19 -9.87804e-16 0)
(1.72214e-19 -9.87818e-16 0)
(1.54683e-19 -9.87829e-16 0)
(1.38545e-19 -9.87837e-16 0)
(1.23671e-19 -9.87843e-16 0)
(1.09899e-19 -9.87848e-16 0)
(9.70676e-20 -9.87852e-16 0)
(8.50304e-20 -9.87856e-16 0)
(7.36575e-20 -9.87858e-16 0)
(6.28355e-20 -9.8786e-16 0)
(5.24654e-20 -9.87862e-16 0)
(4.24595e-20 -9.87863e-16 0)
(3.274e-20 -9.87864e-16 0)
(2.32361e-20 -9.87865e-16 0)
(1.38825e-20 -9.87866e-16 0)
(4.61772e-21 -9.87866e-16 0)
(-4.55139e-21 -9.87861e-16 0)
(-1.36815e-20 -9.87861e-16 0)
(-2.28943e-20 -9.8786e-16 0)
(-3.22466e-20 -9.87859e-16 0)
(-4.17986e-20 -9.87858e-16 0)
(-5.16144e-20 -9.87857e-16 0)
(-6.17636e-20 -9.87855e-16 0)
(-7.23229e-20 -9.87852e-16 0)
(-8.33767e-20 -9.87849e-16 0)
(-9.50181e-20 -9.87846e-16 0)
(-1.07348e-19 -9.87841e-16 0)
(-1.20473e-19 -9.87836e-16 0)
(-1.34493e-19 -9.87829e-16 0)
(-1.49484e-19 -9.8782e-16 0)
(-1.65446e-19 -9.87809e-16 0)
(-1.82208e-19 -9.87795e-16 0)
(-1.99226e-19 -9.87776e-16 0)
(-2.15211e-19 -9.87751e-16 0)
(-2.27545e-19 -9.87719e-16 0)
(-2.31807e-19 -9.87679e-16 0)
(-2.22873e-19 -9.87635e-16 0)
(-1.99678e-19 -9.87596e-16 0)
(-1.67891e-19 -9.87571e-16 0)
(-1.36042e-19 -9.8756e-16 0)
(-1.09492e-19 -9.87556e-16 0)
(-8.57671e-20 -9.87552e-16 0)
(-6.31718e-20 -9.87554e-16 0)
(-4.76412e-20 -9.87562e-16 0)
(-3.17003e-20 -9.87559e-16 0)
(-1.98684e-20 -9.87574e-16 0)
(-7.3805e-21 -9.87566e-16 0)
(-2.8993e-21 -9.87593e-16 0)
(-6.61569e-21 -9.87579e-16 0)
(1.78996e-21 -9.87576e-16 0)
(4.09838e-21 -9.8759e-16 0)
(-6.37201e-21 -9.8759e-16 0)
(-3.8368e-10 -2.32761e-15 0)
(-1.02895e-06 -1.08975e-05 0)
(-6.38405e-06 -0.000317791 0)
(-5.35548e-06 -0.000455139 0)
(5.35548e-06 -0.000455139 0)
(6.38405e-06 -0.000317791 0)
(1.02895e-06 -1.08975e-05 0)
(3.8368e-10 -2.32761e-15 0)
(6.37201e-21 -9.8759e-16 0)
(-4.09838e-21 -9.8759e-16 0)
(-1.78996e-21 -9.87576e-16 0)
(6.61569e-21 -9.87579e-16 0)
(2.8993e-21 -9.87593e-16 0)
(7.3805e-21 -9.87566e-16 0)
(1.98684e-20 -9.87574e-16 0)
(3.17003e-20 -9.87559e-16 0)
(4.76412e-20 -9.87562e-16 0)
(6.31718e-20 -9.87554e-16 0)
(8.57671e-20 -9.87552e-16 0)
(1.09492e-19 -9.87556e-16 0)
(1.36042e-19 -9.8756e-16 0)
(1.67891e-19 -9.87571e-16 0)
(1.99678e-19 -9.87596e-16 0)
(2.22873e-19 -9.87635e-16 0)
(2.31807e-19 -9.87679e-16 0)
(2.27545e-19 -9.87719e-16 0)
(2.15211e-19 -9.87751e-16 0)
(1.99226e-19 -9.87776e-16 0)
(1.82208e-19 -9.87795e-16 0)
(1.65446e-19 -9.87809e-16 0)
(1.49484e-19 -9.8782e-16 0)
(1.34493e-19 -9.87829e-16 0)
(1.20473e-19 -9.87836e-16 0)
(1.07348e-19 -9.87841e-16 0)
(9.50181e-20 -9.87846e-16 0)
(8.33767e-20 -9.87849e-16 0)
(7.23229e-20 -9.87852e-16 0)
(6.17636e-20 -9.87855e-16 0)
(5.16144e-20 -9.87857e-16 0)
(4.17986e-20 -9.87858e-16 0)
(3.22466e-20 -9.87859e-16 0)
(2.28943e-20 -9.8786e-16 0)
(1.36815e-20 -9.87861e-16 0)
(4.55139e-21 -9.87861e-16 0)
(-4.46959e-21 -9.87856e-16 0)
(-1.34337e-20 -9.87855e-16 0)
(-2.24732e-20 -9.87855e-16 0)
(-3.16395e-20 -9.87854e-16 0)
(-4.09865e-20 -9.87852e-16 0)
(-5.05707e-20 -9.87851e-16 0)
(-6.04523e-20 -9.87849e-16 0)
(-7.06955e-20 -9.87846e-16 0)
(-8.13685e-20 -9.87843e-16 0)
(-9.25422e-20 -9.87839e-16 0)
(-1.04288e-19 -9.87834e-16 0)
(-1.16669e-19 -9.87828e-16 0)
(-1.29728e-19 -9.87821e-16 0)
(-1.43459e-19 -9.87812e-16 0)
(-1.57758e-19 -9.878e-16 0)
(-1.72323e-19 -9.87785e-16 0)
(-1.86492e-19 -9.87767e-16 0)
(-1.98988e-19 -9.87743e-16 0)
(-2.07624e-19 -9.87714e-16 0)
(-2.09282e-19 -9.8768e-16 0)
(-2.00962e-19 -9.87644e-16 0)
(-1.8237e-19 -9.87612e-16 0)
(-1.57173e-19 -9.87589e-16 0)
(-1.30783e-19 -9.87576e-16 0)
(-1.06806e-19 -9.8757e-16 0)
(-8.49749e-20 -9.87566e-16 0)
(-6.5e-20 -9.87566e-16 0)
(-4.90113e-20 -9.87569e-16 0)
(-3.43572e-20 -9.8757e-16 0)
(-2.23139e-20 -9.87577e-16 0)
(-1.15727e-20 -9.87577e-16 0)
(-5.19678e-21 -9.87588e-16 0)
(-3.90827e-21 -9.87585e-16 0)
(-5.92331e-22 -9.87585e-16 0)
(1.43747e-21 -9.87587e-16 0)
(1.72578e-21 -9.87586e-16 0)
(3.39234e-21 -1.59673e-15 0)
(-1.56368e-07 -8.91431e-06 0)
(-2.30951e-06 -0.000309042 0)
(-2.15314e-06 -0.000465329 0)