/*--------------------------------*- C++ -*----------------------------------*\
  =========                 |
  \\      /  F ield         | OpenFOAM: The Open Source CFD Toolbox
   \\    /   O peration     | Website:  https://openfoam.org
    \\  /    A nd           | Version:  10
     \\/     M anipulation  |
\*---------------------------------------------------------------------------*/
FoamFile
{
    format      ascii;
    class       volVectorField;
    location    "1.52";
    object      Ua;
}
// * * * * * * * * * * * * * * * * * * * * * * * * * * * * * * * * * * * * * //

dimensions      [0 1 -1 0 0 0 0];

internalField   nonuniform List<vector> 
12225
(
(2.74936e-05 -3.53941e-06 0)
(8.03799e-05 -3.31506e-06 0)
(0.000128344 -2.90299e-06 0)
(0.000170628 -2.43907e-06 0)
(0.000207561 -2.01504e-06 0)
(0.000240018 -1.67647e-06 0)
(0.000269034 -1.43895e-06 0)
(0.000295604 -1.3041e-06 0)
(0.000320617 -1.27081e-06 0)
(0.000344871 -1.3425e-06 0)
(0.000369135 -1.53328e-06 0)
(0.000394234 -1.87622e-06 0)
(0.000421206 -2.43956e-06 0)
(0.000451578 -3.36562e-06 0)
(0.000488009 -4.97906e-06 0)
(0.000536091 -8.15921e-06 0)
(0.000611163 -1.60374e-05 0)
(0.000774841 -4.47759e-05 0)
(1.86991e-05 -9.16566e-06 0)
(5.50795e-05 -8.63838e-06 0)
(8.89829e-05 -7.6171e-06 0)
(0.000119864 -6.44398e-06 0)
(0.000147746 -5.35822e-06 0)
(0.000173003 -4.48444e-06 0)
(0.000196157 -3.87003e-06 0)
(0.000217757 -3.525e-06 0)
(0.000238334 -3.451e-06 0)
(0.00025839 -3.661e-06 0)
(0.000278433 -4.19608e-06 0)
(0.000299023 -5.14804e-06 0)
(0.000320873 -6.703e-06 0)
(0.000345007 -9.24282e-06 0)
(0.000373112 -1.36182e-05 0)
(0.000408275 -2.20216e-05 0)
(0.000456004 -4.1432e-05 0)
(0.000514747 -0.000100683 0)
(1.44895e-05 -1.25987e-05 0)
(4.29476e-05 -1.19826e-05 0)
(7.00564e-05 -1.06682e-05 0)
(9.53838e-05 -9.10829e-06 0)
(0.000118834 -7.63628e-06 0)
(0.000140556 -6.4374e-06 0)
(0.000160835 -5.5914e-06 0)
(0.000180011 -5.12397e-06 0)
(0.000198437 -5.04679e-06 0)
(0.000216464 -5.38595e-06 0)
(0.000234463 -6.20693e-06 0)
(0.000252846 -7.64742e-06 0)
(0.000272127 -9.97847e-06 0)
(0.000293001 -1.374e-05 0)
(0.000316462 -2.00795e-05 0)
(0.000343782 -3.16979e-05 0)
(0.000374954 -5.57195e-05 0)
(0.000396599 -0.000111906 0)
(1.17661e-05 -1.48282e-05 0)
(3.5077e-05 -1.42362e-05 0)
(5.77226e-05 -1.27956e-05 0)
(7.93514e-05 -1.10219e-05 0)
(9.9808e-05 -9.31366e-06 0)
(0.000119115 -7.9057e-06 0)
(0.000137415 -6.90925e-06 0)
(0.000154914 -6.36884e-06 0)
(0.000171847 -6.30938e-06 0)
(0.000188463 -6.77114e-06 0)
(0.000205033 -7.84065e-06 0)
(0.000221854 -9.69018e-06 0)
(0.000239281 -1.26471e-05 0)
(0.00025773 -1.73371e-05 0)
(0.000277631 -2.50052e-05 0)
(0.000298993 -3.82598e-05 0)
(0.00031937 -6.2663e-05 0)
(0.000326487 -0.000108409 0)
(9.788e-06 -1.6201e-05 0)
(2.93425e-05 -1.57074e-05 0)
(4.869e-05 -1.4252e-05 0)
(6.75415e-05 -1.23821e-05 0)
(8.57141e-05 -1.05422e-05 0)
(0.000103153 -9.0078e-06 0)
(0.000119906 -7.9197e-06 0)
(0.000136084 -7.34236e-06 0)
(0.000151835 -7.31523e-06 0)
(0.000167332 -7.8923e-06 0)
(0.00018276 -9.17676e-06 0)
(0.000198322 -1.13633e-05 0)
(0.000214232 -1.48069e-05 0)
(0.000230675 -2.0151e-05 0)
(0.000247653 -2.85758e-05 0)
(0.000264449 -4.22414e-05 0)
(0.000278035 -6.47909e-05 0)
(0.000279792 -0.000100234 0)
(8.26144e-06 -1.68953e-05 0)
(2.49021e-05 -1.65528e-05 0)
(4.16566e-05 -1.51622e-05 0)
(5.82862e-05 -1.32831e-05 0)
(7.45998e-05 -1.13913e-05 0)
(9.04953e-05 -9.79542e-06 0)
(0.000105954 -8.66291e-06 0)
(0.000121019 -8.07778e-06 0)
(0.00013577 -8.09398e-06 0)
(0.000150315 -8.77757e-06 0)
(0.000164769 -1.02432e-05 0)
(0.000179251 -1.26952e-05 0)
(0.000193856 -1.64888e-05 0)
(0.000208585 -2.2228e-05 0)
(0.000223164 -3.09201e-05 0)
(0.000236575 -4.41477e-05 0)
(0.000246107 -6.39416e-05 0)
(0.000246383 -9.11142e-05 0)
(7.03964e-06 -1.70221e-05 0)
(2.13355e-05 -1.68679e-05 0)
(3.59734e-05 -1.55997e-05 0)
(5.07561e-05 -1.37773e-05 0)
(6.54961e-05 -1.1897e-05 0)
(8.00644e-05 -1.02931e-05 0)
(9.43975e-05 -9.15606e-06 0)
(0.000108486 -8.58791e-06 0)
(0.000122356 -8.65592e-06 0)
(0.000136059 -9.43575e-06 0)
(0.000149651 -1.10476e-05 0)
(0.00016318 -1.36935e-05 0)
(0.000176642 -1.7705e-05 0)
(0.000189913 -2.36064e-05 0)
(0.00020257 -3.21816e-05 0)
(0.000213579 -4.44636e-05 0)
(0.000220847 -6.13687e-05 0)
(0.000221248 -8.23702e-05 0)
(6.03839e-06 -1.66606e-05 0)
(1.84017e-05 -1.67195e-05 0)
(3.12687e-05 -1.56137e-05 0)
(4.44769e-05 -1.38973e-05 0)
(5.78508e-05 -1.20792e-05 0)
(7.12491e-05 -1.0512e-05 0)
(8.45782e-05 -9.40503e-06 0)
(9.77885e-05 -8.8755e-06 0)
(0.000110864 -9.00197e-06 0)
(0.000123807 -9.86664e-06 0)
(0.000136624 -1.15894e-05 0)
(0.000149301 -1.43594e-05 0)
(0.000161767 -1.84671e-05 0)
(0.000173815 -2.43352e-05 0)
(0.000184983 -3.25215e-05 0)
(0.000194366 -4.36175e-05 0)
(0.000200487 -5.78755e-05 0)
(0.000201623 -7.43848e-05 0)
(5.2045e-06 -1.58745e-05 0)
(1.59482e-05 -1.61593e-05 0)
(2.73075e-05 -1.52403e-05 0)
(3.91496e-05 -1.36654e-05 0)
(5.13176e-05 -1.19493e-05 0)
(6.3668e-05 -1.04567e-05 0)
(7.60879e-05 -9.40988e-06 0)
(8.84978e-05 -8.93816e-06 0)
(0.000100845 -9.12846e-06 0)
(0.000113095 -1.00661e-05 0)
(0.000125209 -1.18656e-05 0)
(0.000137129 -1.46946e-05 0)
(0.000148734 -1.87929e-05 0)
(0.000159784 -2.44768e-05 0)
(0.000169838 -3.21062e-05 0)
(0.000178176 -4.19597e-05 0)
(0.00018382 -5.39496e-05 0)
(0.000185857 -6.71914e-05 0)
(4.50174e-06 -1.47208e-05 0)
(1.38708e-05 -1.52318e-05 0)
(2.3929e-05 -1.45091e-05 0)
(3.45709e-05 -1.30981e-05 0)
(4.56623e-05 -1.15146e-05 0)
(5.70651e-05 -1.01281e-05 0)
(6.86552e-05 -9.16806e-06 0)
(8.03302e-05 -8.77133e-06 0)
(9.2009e-05 -9.03004e-06 0)
(0.000103623 -1.00293e-05 0)
(0.000115103 -1.18737e-05 0)
(0.000126354 -1.47049e-05 0)
(0.000137228 -1.87085e-05 0)
(0.000147482 -2.41031e-05 0)
(0.000156733 -3.10931e-05 0)
(0.000164443 -3.97589e-05 0)
(0.000169991 -4.98727e-05 0)
(0.000172913 -6.07095e-05 0)
(3.90363e-06 -1.32549e-05 0)
(1.2093e-05 -1.39782e-05 0)
(2.10151e-05 -1.34462e-05 0)
(3.0592e-05 -1.22098e-05 0)
(4.0716e-05 -1.07812e-05 0)
(5.12587e-05 -9.52677e-06 0)
(6.20895e-05 -8.67662e-06 0)
(7.30893e-05 -8.37035e-06 0)
(8.41536e-05 -8.7017e-06 0)
(9.51885e-05 -9.75246e-06 0)
(0.000106098 -1.16146e-05 0)
(0.000116765 -1.44015e-05 0)
(0.000127031 -1.82478e-05 0)
(0.000136668 -2.32901e-05 0)
(0.000145363 -2.9622e-05 0)
(0.000152731 -3.7212e-05 0)
(0.000158387 -4.58006e-05 0)
(0.000162108 -5.48353e-05 0)
(3.3479e-06 -1.16666e-05 0)
(1.04473e-05 -1.25633e-05 0)
(1.83346e-05 -1.2195e-05 0)
(2.69567e-05 -1.11238e-05 0)
(3.62234e-05 -9.85361e-06 0)
(4.60096e-05 -8.74079e-06 0)
(5.61761e-05 -8.01032e-06 0)
(6.65884e-05 -7.8003e-06 0)
(7.71239e-05 -8.20322e-06 0)
(8.76697e-05 -9.29588e-06 0)
(9.81132e-05 -1.11574e-05 0)
(0.000108327 -1.38761e-05 0)
(0.000118154 -1.75449e-05 0)
(0.000127391 -2.22412e-05 0)
(0.000135785 -2.79886e-05 0)
(0.000143057 -3.47025e-05 0)
(0.000148961 -4.21373e-05 0)
(0.000153377 -4.98764e-05 0)
(2.98488e-06 -9.9236e-06 0)
(9.348e-06 -1.09475e-05 0)
(1.6493e-05 -1.0713e-05 0)
(2.4398e-05 -9.79839e-06 0)
(3.29993e-05 -8.69302e-06 0)
(4.21837e-05 -7.73514e-06 0)
(5.18119e-05 -7.13816e-06 0)
(6.1741e-05 -7.03439e-06 0)
(7.18365e-05 -7.51236e-06 0)
(8.19723e-05 -8.64238e-06 0)
(9.20237e-05 -1.04907e-05 0)
(0.000101857 -1.31234e-05 0)
(0.00011132 -1.66e-05 0)
(0.000120231 -2.09554e-05 0)
(0.000128389 -2.61716e-05 0)
(0.00013559 -3.21438e-05 0)
(0.000141679 -3.86573e-05 0)
(0.000146599 -4.53975e-05 0)
(2.62084e-06 -7.83804e-06 0)
(8.22876e-06 -8.91958e-06 0)
(1.45959e-05 -8.78346e-06 0)
(2.17534e-05 -8.02639e-06 0)
(2.96675e-05 -7.10948e-06 0)
(3.82342e-05 -6.33905e-06 0)
(4.73107e-05 -5.90711e-06 0)
(5.67444e-05 -5.93425e-06 0)
(6.63889e-05 -6.50138e-06 0)
(7.61063e-05 -7.66984e-06 0)
(8.57634e-05 -9.49158e-06 0)
(9.52241e-05 -1.20108e-05 0)
(0.000104344 -1.52575e-05 0)
(0.000112971 -1.92344e-05 0)
(0.000120948 -2.38982e-05 0)
(0.000128138 -2.9143e-05 0)
(0.000134448 -3.47943e-05 0)
(0.000139858 -4.06243e-05 0)
(2.23836e-06 -5.44942e-06 0)
(7.04016e-06 -6.42852e-06 0)
(1.25797e-05 -6.31907e-06 0)
(1.89707e-05 -5.71015e-06 0)
(2.62033e-05 -5.00563e-06 0)
(3.41695e-05 -4.45806e-06 0)
(4.27124e-05 -4.22538e-06 0)
(5.16649e-05 -4.40967e-06 0)
(6.0868e-05 -5.08031e-06 0)
(7.01741e-05 -6.28756e-06 0)
(7.94451e-05 -8.06914e-06 0)
(8.85488e-05 -1.04507e-05 0)
(9.73572e-05 -1.34409e-05 0)
(0.000105748 -1.70232e-05 0)
(0.00011361 -2.11457e-05 0)
(0.000120856 -2.5715e-05 0)
(0.000127436 -3.05975e-05 0)
(0.000133344 -3.56324e-05 0)
(1.75773e-06 -2.84208e-06 0)
(5.58044e-06 -3.4205e-06 0)
(1.02012e-05 -3.24185e-06 0)
(1.58325e-05 -2.7756e-06 0)
(2.24468e-05 -2.31215e-06 0)
(2.98927e-05 -2.02142e-06 0)
(3.79727e-05 -2.01524e-06 0)
(4.64917e-05 -2.37297e-06 0)
(5.52763e-05 -3.15179e-06 0)
(6.41782e-05 -4.39377e-06 0)
(7.30725e-05 -6.12864e-06 0)
(8.18511e-05 -8.37104e-06 0)
(9.04175e-05 -1.11182e-05 0)
(9.86851e-05 -1.43452e-05 0)
(0.000106578 -1.80008e-05 0)
(0.000114038 -2.20064e-05 0)
(0.000121026 -2.62601e-05 0)
(0.000127532 -3.06467e-05 0)
(8.92327e-07 8.03093e-09 0)
(3.09701e-06 2.08139e-07 0)
(6.43724e-06 4.84204e-07 0)
(1.11596e-05 7.58309e-07 0)
(1.70834e-05 9.45002e-07 0)
(2.39547e-05 9.55718e-07 0)
(3.15504e-05 7.13145e-07 0)
(3.96823e-05 1.57209e-07 0)
(4.81858e-05 -7.55417e-07 0)
(5.69405e-05 -2.10698e-06 0)
(6.58606e-05 -3.90361e-06 0)
(7.48373e-05 -6.11208e-06 0)
(8.37473e-05 -8.72327e-06 0)
(9.24828e-05 -1.17084e-05 0)
(0.000100952 -1.50193e-05 0)
(0.000109084 -1.85903e-05 0)
(0.000116827 -2.23427e-05 0)
(0.000124153 -2.6192e-05 0)
(2.09937e-06 3.40197e-06 0)
(6.42866e-06 4.60504e-06 0)
(1.11815e-05 5.1367e-06 0)
(1.66045e-05 5.27912e-06 0)
(2.27941e-05 5.16736e-06 0)
(2.9724e-05 4.82429e-06 0)
(3.72928e-05 4.23163e-06 0)
(4.53671e-05 3.3645e-06 0)
(5.38083e-05 2.20303e-06 0)
(6.24603e-05 6.82865e-07 0)
(7.11583e-05 -1.18422e-06 0)
(7.98467e-05 -3.50521e-06 0)
(8.85127e-05 -6.14127e-06 0)
(9.70725e-05 -9.02278e-06 0)
(0.000105438 -1.21091e-05 0)
(0.000113539 -1.53496e-05 0)
(0.000121326 -1.86875e-05 0)
(0.000128768 -2.2065e-05 0)
(2.93835e-06 8.0795e-06 0)
(9.01558e-06 9.94253e-06 0)
(1.55009e-05 1.0778e-05 0)
(2.24233e-05 1.08821e-05 0)
(2.98139e-05 1.04883e-05 0)
(3.76678e-05 9.73586e-06 0)
(4.5938e-05 8.69666e-06 0)
(5.45461e-05 7.40563e-06 0)
(6.33975e-05 5.88044e-06 0)
(7.23924e-05 4.13203e-06 0)
(8.14347e-05 2.17421e-06 0)
(9.03785e-05 -1.30455e-07 0)
(9.90925e-05 -2.67867e-06 0)
(0.000107572 -5.47705e-06 0)
(0.000115819 -8.36432e-06 0)
(0.000123789 -1.13072e-05 0)
(0.000131453 -1.42699e-05 0)
(0.000138792 -1.72171e-05 0)
(3.35825e-06 1.3286e-05 0)
(1.03677e-05 1.51427e-05 0)
(1.79191e-05 1.59473e-05 0)
(2.59431e-05 1.58966e-05 0)
(3.43904e-05 1.5222e-05 0)
(4.32074e-05 1.4107e-05 0)
(5.2326e-05 1.26775e-05 0)
(6.16652e-05 1.10139e-05 0)
(7.11373e-05 9.16636e-06 0)
(8.06544e-05 7.16778e-06 0)
(9.01337e-05 5.04206e-06 0)
(9.94998e-05 2.80869e-06 0)
(0.000108673 4.47671e-07 0)
(0.00011754 -2.14199e-06 0)
(0.00012608 -4.84874e-06 0)
(0.000134324 -7.5421e-06 0)
(0.000142247 -1.02015e-05 0)
(0.000149839 -1.28068e-05 0)
(4.01004e-06 1.77814e-05 0)
(1.23119e-05 1.92792e-05 0)
(2.11358e-05 1.97833e-05 0)
(3.03983e-05 1.94356e-05 0)
(4.00176e-05 1.84506e-05 0)
(4.99127e-05 1.70207e-05 0)
(5.99997e-05 1.52907e-05 0)
(7.01924e-05 1.33603e-05 0)
(8.04056e-05 1.12946e-05 0)
(9.05589e-05 9.1362e-06 0)
(0.000100579 6.91361e-06 0)
(0.000110403 4.64812e-06 0)
(0.000119977 2.35739e-06 0)
(0.000129237 8.47447e-09 0)
(0.000138115 -2.50515e-06 0)
(0.00014661 -5.01663e-06 0)
(0.000154745 -7.45837e-06 0)
(0.000162514 -9.8193e-06 0)
(4.81082e-06 2.14373e-05 0)
(1.46699e-05 2.25085e-05 0)
(2.49727e-05 2.26314e-05 0)
(3.56404e-05 2.19395e-05 0)
(4.65748e-05 2.06401e-05 0)
(5.76767e-05 1.89273e-05 0)
(6.88498e-05 1.6953e-05 0)
(8.00031e-05 1.48241e-05 0)
(9.10536e-05 1.26113e-05 0)
(0.000101927 1.036e-05 0)
(0.000112561 8.09874e-06 0)
(0.000122903 5.84683e-06 0)
(0.000132911 3.61819e-06 0)
(0.000142555 1.42414e-06 0)
(0.000151766 -8.12143e-07 0)
(0.000160532 -3.13917e-06 0)
(0.000168894 -5.3729e-06 0)
(0.000176851 -7.50879e-06 0)
(5.78362e-06 2.40208e-05 0)
(1.75238e-05 2.46833e-05 0)
(2.95841e-05 2.44272e-05 0)
(4.18875e-05 2.34039e-05 0)
(5.43268e-05 2.18237e-05 0)
(6.67918e-05 1.98816e-05 0)
(7.918e-05 1.773e-05 0)
(9.14004e-05 1.5476e-05 0)
(0.000103375 1.31896e-05 0)
(0.000115041 1.09139e-05 0)
(0.000126345 8.67452e-06 0)
(0.000137249 6.4864e-06 0)
(0.000147724 4.35877e-06 0)
(0.000157753 2.29786e-06 0)
(0.000167326 3.02425e-07 0)
(0.000176397 -1.786e-06 0)
(0.000184969 -3.80923e-06 0)
(0.000193091 -5.72519e-06 0)
(6.96069e-06 2.54221e-05 0)
(2.09727e-05 2.57274e-05 0)
(3.51367e-05 2.5141e-05 0)
(4.93678e-05 2.38414e-05 0)
(6.35512e-05 2.2046e-05 0)
(7.75718e-05 1.99494e-05 0)
(9.13282e-05 1.77006e-05 0)
(0.000104736 1.5402e-05 0)
(0.00011773 1.31186e-05 0)
(0.000130259 1.08882e-05 0)
(0.000142289 8.73119e-06 0)
(0.000153797 6.65741e-06 0)
(0.00016477 4.671e-06 0)
(0.000175205 2.77329e-06 0)
(0.000185106 9.64403e-07 0)
(0.000194449 -8.41788e-07 0)
(0.000203245 -2.64798e-06 0)
(0.000211542 -4.34387e-06 0)
(8.39129e-06 2.55967e-05 0)
(2.51609e-05 2.56102e-05 0)
(4.18618e-05 2.47692e-05 0)
(5.83893e-05 2.32768e-05 0)
(7.46195e-05 2.13558e-05 0)
(9.04387e-05 1.9197e-05 0)
(0.000105755 1.69421e-05 0)
(0.0001205 1.46854e-05 0)
(0.000134627 1.2484e-05 0)
(0.000148109 1.03687e-05 0)
(0.000160931 8.35375e-06 0)
(0.000173093 6.44359e-06 0)
(0.000184602 4.63761e-06 0)
(0.00019547 2.93291e-06 0)
(0.000205717 1.32581e-06 0)
(0.000215349 -2.10865e-07 0)
(0.000224383 -1.79021e-06 0)
(0.000232858 -3.26406e-06 0)
(1.01546e-05 2.4524e-05 0)
(3.03185e-05 2.43183e-05 0)
(5.01246e-05 2.33157e-05 0)
(6.94335e-05 2.17341e-05 0)
(8.81115e-05 1.97949e-05 0)
(0.000106053 1.76799e-05 0)
(0.000123185 1.55191e-05 0)
(0.000139469 1.33957e-05 0)
(0.000154888 1.13572e-05 0)
(0.000169444 9.42676e-06 0)
(0.000183155 7.61229e-06 0)
(0.000196045 5.91344e-06 0)
(0.000208145 4.32567e-06 0)
(0.00021949 2.84281e-06 0)
(0.000230117 1.45852e-06 0)
(0.000240065 1.66939e-07 0)
(0.000249346 -1.16101e-06 0)
(0.000257994 -2.40998e-06 0)
(1.23903e-05 2.21705e-05 0)
(3.68515e-05 2.18241e-05 0)
(6.05687e-05 2.07667e-05 0)
(8.33501e-05 1.92163e-05 0)
(0.000105051 1.73822e-05 0)
(0.000125583 1.54293e-05 0)
(0.00014491 1.34714e-05 0)
(0.000163033 1.1578e-05 0)
(0.000179982 9.78613e-06 0)
(0.000195804 8.11108e-06 0)
(0.000210555 6.55553e-06 0)
(0.000224294 5.11526e-06 0)
(0.000237083 3.78302e-06 0)
(0.000248982 2.55066e-06 0)
(0.000260052 1.41028e-06 0)
(0.000270348 3.5465e-07 0)
(0.000279904 -7.04507e-07 0)
(0.000288765 -1.72437e-06 0)
(1.53818e-05 1.84378e-05 0)
(4.55853e-05 1.80371e-05 0)
(7.4506e-05 1.70479e-05 0)
(0.000101875 1.56688e-05 0)
(0.000127534 1.40818e-05 0)
(0.00015143 1.24257e-05 0)
(0.000173581 1.07923e-05 0)
(0.000194056 9.23525e-06 0)
(0.000212951 7.78045e-06 0)
(0.000230376 6.43652e-06 0)
(0.00024644 5.20206e-06 0)
(0.000261252 4.07067e-06 0)
(0.000274913 3.03397e-06 0)
(0.000287519 2.08336e-06 0)
(0.000299156 1.21074e-06 0)
(0.000309906 4.0886e-07 0)
(0.000319822 -3.8008e-07 0)
(0.000328971 -1.16458e-06 0)
(1.98623e-05 1.30405e-05 0)
(5.86589e-05 1.26882e-05 0)
(9.53438e-05 1.19196e-05 0)
(0.000129526 1.08868e-05 0)
(0.000161036 9.72463e-06 0)
(0.000189878 8.53227e-06 0)
(0.000216167 7.3732e-06 0)
(0.000240081 6.28232e-06 0)
(0.000261822 5.27496e-06 0)
(0.000281595 4.35436e-06 0)
(0.000299596 3.51721e-06 0)
(0.000316003 2.75708e-06 0)
(0.000330978 2.06659e-06 0)
(0.000344664 1.43852e-06 0)
(0.000357189 8.66231e-07 0)
(0.000368668 3.43862e-07 0)
(0.000379187 -1.63876e-07 0)
(0.000388847 -7.06296e-07 0)
(2.93767e-05 4.94669e-06 0)
(8.64508e-05 4.79705e-06 0)
(0.000139718 4.48961e-06 0)
(0.000188541 4.08491e-06 0)
(0.000232736 3.63549e-06 0)
(0.000272441 3.17925e-06 0)
(0.000307979 2.7398e-06 0)
(0.000339754 2.32962e-06 0)
(0.000368189 1.95375e-06 0)
(0.000393683 1.6127e-06 0)
(0.0004166 1.30463e-06 0)
(0.000437258 1.02666e-06 0)
(0.000455935 7.75637e-07 0)
(0.000472869 5.4855e-07 0)
(0.000488266 3.42683e-07 0)
(0.000502303 1.55631e-07 0)
(0.000515117 -2.55761e-08 0)
(0.000526744 -2.35283e-07 0)
(0.000384526 -0.000821907 -1.06184e-29)
(0.0011509 -0.00080845 1.04354e-29)
(0.00190536 -0.000783522 0)
(0.00263748 -0.000748767 0)
(0.00333554 -0.000700394 0)
(0.00399119 -0.000649639 -8.34927e-30)
(0.00460258 -0.000599 0)
(0.00517314 -0.000556732 0)
(0.00571373 -0.000529325 0)
(0.00623852 -0.000516301 0)
(0.00675784 -0.00050998 6.51156e-30)
(0.00727278 -0.000499329 0)
(0.00777604 -0.000479038 0)
(0.00825887 -0.00045198 0)
(0.00871673 -0.00042365 0)
(0.00914992 -0.000398037 5.03649e-30)
(0.00956139 -0.000376026 0)
(0.00995356 -0.000355689 0)
(0.0103263 -0.00033408 0)
(0.0106769 -0.000309435 0)
(0.0110017 -0.000281808 0)
(0.0112975 -0.000252227 0)
(0.0115622 -0.000221778 0)
(0.0117948 -0.00019126 2.33275e-30)
(0.0119949 -0.00016131 -1.94328e-30)
(0.0121631 -0.000132477 1.56864e-30)
(0.0123002 -0.00010519 1.21435e-30)
(0.0124079 -7.97672e-05 0)
(0.0124878 -5.64485e-05 0)
(0.0125421 -3.54138e-05 -3.09656e-31)
(0.0125732 -1.6772e-05 -6.83504e-32)
(0.0125836 -5.52603e-07 0)
(0.0125758 1.3295e-05 0)
(0.0125525 2.48916e-05 4.69893e-31)
(0.0125158 3.441e-05 0)
(0.0124683 4.20549e-05 0)
(0.0124117 4.80438e-05 -7.67468e-31)
(0.0123481 5.25933e-05 0)
(0.0122789 5.59089e-05 -8.67554e-31)
(0.0122055 5.81793e-05 -1.79206e-30)
(0.0121291 5.95736e-05 0)
(0.0120508 6.02403e-05 0)
(0.0119713 6.03086e-05 0)
(0.0118913 5.98892e-05 0)
(0.0118116 5.90768e-05 0)
(0.0117324 5.79516e-05 -1.77501e-30)
(0.0116544 5.65813e-05 -1.73774e-30)
(0.0115776 5.5023e-05 -1.69565e-30)
(0.0115025 5.33246e-05 0)
(0.0114292 5.1526e-05 1.60175e-30)
(0.0113579 4.96604e-05 0)
(0.0112886 4.77551e-05 -1.50095e-30)
(0.0112215 4.58328e-05 -1.44968e-30)
(0.0111566 4.39116e-05 0)
(0.011094 4.20063e-05 0)
(0.0110336 4.01286e-05 0)
(0.0109754 3.82878e-05 -1.24883e-30)
(0.0109195 3.64909e-05 0)
(0.0108658 3.47433e-05 0)
(0.0108142 3.30489e-05 0)
(0.0107648 3.14104e-05 0)
(0.0107174 2.98297e-05 0)
(0.0106721 2.83077e-05 0)
(0.0106287 2.68448e-05 0)
(0.0105872 2.54407e-05 0)
(0.0105476 2.40951e-05 8.71865e-31)
(0.0105098 2.2807e-05 0)
(0.0104736 2.15753e-05 0)
(0.0104392 2.03988e-05 -7.73757e-31)
(0.0104064 1.9276e-05 -7.43963e-31)
(0.0103751 1.82054e-05 0)
(0.0103453 1.71854e-05 6.88475e-31)
(0.0103169 1.62143e-05 -6.62706e-31)
(0.0102899 1.52905e-05 0)
(0.0102643 1.44121e-05 6.14879e-31)
(0.0102399 1.35776e-05 0)
(0.0102167 1.27853e-05 0)
(0.0101948 1.20334e-05 -5.51745e-31)
(0.0101739 1.13203e-05 0)
(0.0101541 1.06444e-05 5.14882e-31)
(0.0101353 1.00042e-05 0)
(0.0101175 9.39793e-06 -4.818e-31)
(0.0101007 8.82425e-06 -4.66571e-31)
(0.0100847 8.28165e-06 -4.52168e-31)
(0.0100696 7.76872e-06 -8.77103e-31)
(0.0100553 7.28407e-06 8.51377e-31)
(0.0100418 6.82639e-06 0)
(0.010029 6.39438e-06 0)
(0.010017 5.9868e-06 0)
(0.0100056 5.60248e-06 7.62089e-31)
(0.00999485 5.24025e-06 7.42858e-31)
(0.00998472 4.89903e-06 -7.24737e-31)
(0.00997516 4.57774e-06 0)
(0.00996616 4.27539e-06 6.91617e-31)
(0.00995768 3.99098e-06 6.76518e-31)
(0.0099497 3.7236e-06 6.62318e-31)
(0.00994218 3.47234e-06 0)
(0.00993512 3.23636e-06 0)
(0.00992848 3.01484e-06 0)
(0.00992224 2.807e-06 6.13634e-31)
(0.00991639 2.6121e-06 0)
(0.00991089 2.42943e-06 0)
(0.00990573 2.2583e-06 -5.84483e-31)
(0.0099009 2.09809e-06 0)
(0.00989637 1.94816e-06 0)
(0.00989213 1.80794e-06 -5.6056e-31)
(0.00988816 1.67687e-06 0)
(0.00988444 1.55442e-06 0)
(0.00988097 1.44008e-06 5.41015e-31)
(0.00987773 1.33339e-06 5.35346e-31)
(0.0098747 1.23388e-06 0)
(0.00987187 1.14112e-06 -5.25132e-31)
(0.00986923 1.05471e-06 0)
(0.00986678 9.74265e-07 5.16263e-31)
(0.00986448 8.99411e-07 0)
(0.00986235 8.29802e-07 5.08588e-31)
(0.00986037 7.65111e-07 5.05145e-31)
(0.00985852 7.05027e-07 0)
(0.00985681 6.49257e-07 0)
(0.00985521 5.97524e-07 0)
(0.00985373 5.49566e-07 0)
(0.00985236 5.05136e-07 0)
(0.00985109 4.64003e-07 0)
(0.00984991 4.25946e-07 0)
(0.00984882 3.9076e-07 4.85251e-31)
(0.00984781 3.58251e-07 -4.83518e-31)
(0.00984687 3.28237e-07 0)
(0.00984601 3.00548e-07 0)
(0.00984521 2.75022e-07 0)
(0.00984448 2.51511e-07 0)
(0.0098438 2.29874e-07 -9.53385e-31)
(0.00984317 2.0998e-07 0)
(0.0098426 1.91707e-07 9.49327e-31)
(0.00984206 1.74942e-07 -9.47544e-31)
(0.00984158 1.59582e-07 0)
(0.00984112 1.45528e-07 0)
(0.00984071 1.32693e-07 0)
(0.00984033 1.20995e-07 9.41807e-31)
(0.00983998 1.10364e-07 9.40674e-31)
(0.00983965 1.00734e-07 0)
(0.00983936 9.20502e-08 9.38718e-31)
(0.00983908 8.42646e-08 9.37883e-31)
(0.00983883 7.73403e-08 -9.37148e-31)
(0.00983859 7.12505e-08 0)
(0.00983837 6.59801e-08 0)
(0.00983817 6.15272e-08 -9.35451e-31)
(0.00983797 5.79056e-08 0)
(0.00983778 5.51478e-08 0)
(0.0098376 5.3308e-08 0)
(0.00983743 5.24674e-08 0)
(0.00983725 5.27402e-08 9.34454e-31)
(0.00983707 5.42813e-08 9.34596e-31)
(0.00983687 5.72964e-08 0)
(0.00983666 6.20554e-08 9.35363e-31)
(0.00983643 6.89084e-08 0)
(0.00983617 7.83084e-08 0)
(0.00983587 9.08388e-08 9.38264e-31)
(0.00983551 1.07251e-07 0)
(0.00983508 1.2851e-07 9.42087e-31)
(0.00983456 1.55862e-07 0)
(0.00983391 1.90916e-07 0)
(0.00983311 2.35753e-07 9.52987e-31)
(0.00983211 2.93083e-07 0)
(0.00983084 3.66445e-07 9.66285e-31)
(0.00982924 4.60495e-07 0)
(0.00982721 5.81404e-07 0)
(0.00982461 7.37427e-07 0)
(0.00982127 9.39738e-07 -1.02466e-30)
(0.00981697 1.20368e-06 0)
(0.00981138 1.55073e-06 1.0869e-30)
(0.00980409 2.01159e-06 0)
(0.00979449 2.63148e-06 0)
(0.00978173 3.47952e-06 0)
(0.00976456 4.66644e-06 0)
(0.00974105 6.38121e-06 0)
(0.00970804 8.9746e-06 0)
(0.00965996 1.31794e-05 0)
(0.00958545 2.08132e-05 -6.11452e-30)
(0.0094559 3.77034e-05 0)
(0.0091688 9.06648e-05 0)
(0.000412319 -0.00252515 3.26221e-29)
(0.00123051 -0.00247627 -3.19614e-29)
(0.00202913 -0.00239304 0)
(0.00280913 -0.00230426 5.9431e-29)
(0.0035391 -0.00210997 0)
(0.0041979 -0.00194701 -2.51149e-29)
(0.00479054 -0.00176112 -4.52976e-29)
(0.00531287 -0.00160878 -4.1335e-29)
(0.00579385 -0.00152981 0)
(0.00627601 -0.00152216 -3.90505e-29)
(0.00679019 -0.00154643 1.9907e-29)
(0.00733208 -0.00153432 0)
(0.0078667 -0.00146193 0)
(0.00836438 -0.00136 0)
(0.00881876 -0.00126048 0)
(0.00923928 -0.00118071 1.51513e-29)
(0.00964017 -0.00112172 0)
(0.010031 -0.00107099 2.72106e-29)
(0.0104111 -0.00101204 0)
(0.010772 -0.000937671 0)
(0.011105 -0.000851194 -2.14784e-29)
(0.0114051 -0.000758801 0)
(0.0116706 -0.000664868 1.66354e-29)
(0.0119014 -0.00057134 7.2439e-30)
(0.0120978 -0.000479864 -6.05929e-30)
(0.0122605 -0.000392164 4.92387e-30)
(0.012391 -0.000309493 3.85383e-30)
(0.0124911 -0.00023266 0)
(0.0125629 -0.000162343 0)
(0.0126088 -9.90924e-05 -1.1319e-30)
(0.0126313 -4.32483e-05 -9.31372e-31)
(0.0126333 5.11007e-06 0)
(0.0126176 4.61741e-05 0)
(0.0125869 8.0364e-05 1.18726e-30)
(0.0125436 0.000108258 0)
(0.0124902 0.000130522 0)
(0.0124285 0.000147846 -2.05757e-30)
(0.0123605 0.000160901 0)
(0.0122877 0.000170318 -7.32919e-30)
(0.0122113 0.000176666 -4.85502e-30)
(0.0121324 0.000180451 0)
(0.012052 0.000182114 0)
(0.0119708 0.000182034 1.05414e-29)
(0.0118896 0.00018054 1.04565e-29)
(0.0118088 0.000177906 1.03127e-29)
(0.0117289 0.000174368 -1.49065e-29)
(0.0116502 0.000170124 -4.67265e-30)
(0.011573 0.00016534 5.09363e-30)
(0.0114976 0.000160157 -9.36568e-30)
(0.0114241 0.000154689 4.26834e-30)
(0.0113526 0.000149035 0)
(0.0112833 0.000143274 -3.96994e-30)
(0.0112162 0.000137472 -1.19847e-29)
(0.0111514 0.000131681 0)
(0.0110889 0.000125944 0)
(0.0110286 0.000120296 0)
(0.0109706 0.000114763 -3.22556e-30)
(0.0109149 0.000109365 0)
(0.0108613 0.000104118 -6.40846e-30)
(0.0108099 9.90324e-05 0)
(0.0107607 9.41167e-05 -5.88192e-30)
(0.0107135 8.93754e-05 0)
(0.0106683 8.48114e-05 5.39212e-30)
(0.0106251 8.04252e-05 0)
(0.0105838 7.62165e-05 -4.9398e-30)
(0.0105444 7.21833e-05 6.8424e-30)
(0.0105067 6.83229e-05 0)
(0.0104707 6.46321e-05 4.33021e-30)
(0.0104364 6.11067e-05 -1.82597e-30)
(0.0104038 5.77426e-05 -1.73824e-30)
(0.0103726 5.4535e-05 0)
(0.010343 5.14791e-05 5.21305e-30)
(0.0103147 4.85698e-05 -1.49902e-30)
(0.0102879 4.58022e-05 0)
(0.0102623 4.31711e-05 1.35823e-30)
(0.0102381 4.06713e-05 3.06951e-30)
(0.010215 3.82978e-05 0)
(0.0101931 3.60455e-05 -1.1724e-30)
(0.0101724 3.39095e-05 0)
(0.0101526 3.18849e-05 -1.5433e-30)
(0.010134 2.9967e-05 0)
(0.0101163 2.81511e-05 1.4442e-30)
(0.0100995 2.64328e-05 -9.21712e-31)
(0.0100836 2.48075e-05 -3.11411e-30)
(0.0100686 2.32711e-05 -5.98637e-30)
(0.0100543 2.18194e-05 5.75787e-30)
(0.0100409 2.04485e-05 0)
(0.0100282 1.91545e-05 0)
(0.0100162 1.79336e-05 0)
(0.0100049 1.67824e-05 -2.28487e-30)
(0.00999416 1.56974e-05 1.28345e-30)
(0.00998407 1.46753e-05 -1.23013e-30)
(0.00997456 1.3713e-05 0)
(0.00996559 1.28073e-05 4.33916e-30)
(0.00995715 1.19554e-05 1.08824e-30)
(0.0099492 1.11544e-05 1.04646e-30)
(0.00994173 1.04018e-05 0)
(0.00993469 9.69495e-06 0)
(0.00992808 9.0314e-06 0)
(0.00992187 8.40882e-06 9.03224e-31)
(0.00991604 7.825e-06 0)
(0.00991057 7.2778e-06 2.62435e-30)
(0.00990544 6.76519e-06 1.75291e-30)
(0.00990062 6.28525e-06 -2.51985e-30)
(0.00989611 5.83614e-06 0)
(0.00989189 5.4161e-06 -3.17542e-30)
(0.00988794 5.02346e-06 0)
(0.00988424 4.65665e-06 -2.34836e-30)
(0.00988078 4.31415e-06 3.00188e-30)
(0.00987755 3.99453e-06 2.95156e-30)
(0.00987454 3.69643e-06 0)
(0.00987172 3.41857e-06 1.57512e-30)
(0.0098691 3.15972e-06 -2.19072e-30)
(0.00986665 2.91873e-06 6.16783e-31)
(0.00986437 2.69449e-06 0)
(0.00986224 2.48596e-06 5.94204e-31)
(0.00986027 2.29216e-06 -1.51527e-30)
(0.00985843 2.11217e-06 0)
(0.00985672 1.9451e-06 -2.06279e-30)
(0.00985514 1.79012e-06 -2.04647e-30)
(0.00985366 1.64644e-06 -2.03134e-30)
(0.0098523 1.51334e-06 0)
(0.00985103 1.39011e-06 0)
(0.00984986 1.2761e-06 0)
(0.00984877 1.17069e-06 2.5068e-30)
(0.00984776 1.0733e-06 -5.20483e-31)
(0.00984683 9.83386e-07 0)
(0.00984597 9.00432e-07 1.95275e-30)
(0.00984518 8.2396e-07 1.9447e-30)
(0.00984445 7.53523e-07 0)
(0.00984377 6.88699e-07 -1.00082e-30)
(0.00984315 6.29097e-07 3.84833e-30)
(0.00984257 5.74353e-07 9.8889e-31)
(0.00984204 5.24126e-07 -4.80984e-30)
(0.00984156 4.78104e-07 0)
(0.00984111 4.35998e-07 0)
(0.00984069 3.97541e-07 0)
(0.00984031 3.62494e-07 9.66776e-31)
(0.00983997 3.30639e-07 4.74885e-30)
(0.00983964 3.01784e-07 3.77931e-30)
(0.00983935 2.7576e-07 9.57712e-31)
(0.00983907 2.52428e-07 4.72416e-30)
(0.00983882 2.31674e-07 -9.53105e-31)
(0.00983859 2.13419e-07 0)
(0.00983837 1.97616e-07 0)
(0.00983816 1.84259e-07 -4.70259e-30)
(0.00983797 1.7339e-07 0)
(0.00983778 1.65104e-07 0)
(0.0098376 1.59564e-07 3.74913e-30)
(0.00983743 1.5701e-07 0)
(0.00983725 1.57784e-07 4.69394e-30)
(0.00983707 1.62348e-07 9.4577e-31)
(0.00983688 1.71315e-07 0)
(0.00983667 1.85491e-07 4.70227e-30)
(0.00983644 2.05921e-07 0)
(0.00983619 2.33957e-07 0)
(0.00983589 2.71339e-07 9.56929e-31)
(0.00983553 3.20309e-07 3.78159e-30)
(0.00983511 3.83751e-07 9.68481e-31)
(0.00983459 4.65381e-07 0)
(0.00983395 5.69998e-07 0)
(0.00983316 7.03813e-07 4.86139e-30)
(0.00983217 8.74908e-07 0)
(0.00983093 1.09384e-06 4.98132e-30)
(0.00982936 1.37448e-06 0)
(0.00982735 1.73523e-06 0)
(0.00982479 2.20066e-06 0)
(0.00982151 2.80402e-06 -1.21744e-30)
(0.00981727 3.59094e-06 0)
(0.00981178 4.62515e-06 1.40483e-30)
(0.00980462 5.99767e-06 0)
(0.0097952 7.84221e-06 0)
(0.00978271 1.03624e-05 5.83829e-30)
(0.00976594 1.38828e-05 -6.55996e-30)
(0.00974307 1.89532e-05 0)
(0.0097112 2.65809e-05 0)
(0.0096654 3.88214e-05 0)
(0.0095966 6.054e-05 1.7957e-29)
(0.00948728 0.000105846 0)
(0.00931481 0.000227895 -1.01292e-28)
(0.000468497 -0.00437866 2.26315e-28)
(0.001392 -0.00427281 -3.30936e-32)
(0.00223486 -0.00401316 0)
(0.00320049 -0.0043059 7.57925e-32)
(0.00405595 -0.00338499 0)
(0.00469759 -0.00334193 0)
(0.00528681 -0.00278269 -1.43237e-28)
(0.00563826 -0.00235935 -6.07215e-29)
(0.0058856 -0.00224317 5.75674e-29)
(0.00620312 -0.00240158 -6.17864e-29)
(0.00673012 -0.00272327 0)
(0.00743353 -0.00279802 0)
(0.0081101 -0.00255394 -6.54432e-29)
(0.00864323 -0.00225706 -1.15462e-28)
(0.00905634 -0.00202367 1.03338e-28)
(0.00941046 -0.00188765 0)
(0.00976541 -0.00183707 9.35907e-29)
(0.0101558 -0.00181339 4.63954e-29)
(0.0105705 -0.00174089 0)
(0.0109697 -0.00160457 8.14003e-29)
(0.0113249 -0.00143797 -3.66358e-29)
(0.0116315 -0.0012682 -6.39166e-29)
(0.0118955 -0.00110453 2.79898e-29)
(0.012121 -0.000942955 0)
(0.0123083 -0.000784889 3.88341e-29)
(0.0124587 -0.000634873 3.10572e-29)
(0.0125748 -0.000494816 0)
(0.0126591 -0.000365043 1.7079e-29)
(0.0127141 -0.000246616 0)
(0.0127423 -0.000140685 5.46822e-30)
(0.012747 -4.79211e-05 -6.36835e-31)
(0.0127316 3.15591e-05 0)
(0.0126994 9.82395e-05 0)
(0.0126536 0.000153058 0)
(0.012597 0.00019721 0)
(0.0125319 0.000231985 0)
(0.0124602 0.000258656 0)
(0.0123837 0.000278413 -1.61478e-29)
(0.0123038 0.000292336 8.71858e-30)
(0.0122215 0.000301379 0)
(0.0121378 0.000306374 0)
(0.0120535 0.000308036 0)
(0.0119692 0.000306976 3.45664e-29)
(0.0118855 0.000303713 1.6824e-29)
(0.0118027 0.000298684 -5.57277e-31)
(0.0117213 0.00029226 5.53428e-31)
(0.0116415 0.000284754 1.63705e-29)
(0.0115635 0.000276428 1.5383e-29)
(0.0114875 0.000267501 -3.0371e-29)
(0.0114136 0.000258158 -1.49632e-29)
(0.011342 0.000248549 0)
(0.0112726 0.000238801 -1.39425e-29)
(0.0112056 0.000229016 -2.63252e-29)
(0.011141 0.000219276 0)
(0.0110786 0.000209649 0)
(0.0110186 0.000200187 1.19102e-29)
(0.010961 0.00019093 0)
(0.0109055 0.000181911 0)
(0.0108523 0.000173152 -3.09546e-29)
(0.0108013 0.00016467 -2.00866e-29)
(0.0107524 0.000156477 -9.10506e-30)
(0.0107056 0.000148578 0)
(0.0106608 0.000140978 8.29518e-30)
(0.010618 0.000133678 0)
(0.010577 0.000126674 -2.36421e-29)
(0.0105379 0.000119965 7.1972e-30)
(0.0105006 0.000113544 1.47151e-29)
(0.0104649 0.000107407 2.06115e-29)
(0.0104309 0.000101545 0)
(0.0103986 9.59527e-05 -1.28673e-29)
(0.0103677 9.06207e-05 0)
(0.0103383 8.55414e-05 -6.37499e-30)
(0.0103103 8.07062e-05 -1.12658e-29)
(0.0102837 7.61067e-05 -1.07827e-29)
(0.0102584 7.17342e-05 1.03234e-29)
(0.0102344 6.75802e-05 -5.4268e-30)
(0.0102116 6.36361e-05 0)
(0.0101899 5.98936e-05 0)
(0.0101693 5.63445e-05 8.70693e-30)
(0.0101498 5.29805e-05 4.65604e-30)
(0.0101313 4.97938e-05 0)