/*--------------------------------*- C++ -*----------------------------------*\
  =========                 |
  \\      /  F ield         | OpenFOAM: The Open Source CFD Toolbox
   \\    /   O peration     | Website:  https://openfoam.org
    \\  /    A nd           | Version:  10
     \\/     M anipulation  |
\*---------------------------------------------------------------------------*/
FoamFile
{
    format      ascii;
    class       surfaceScalarField;
    location    "0.44";
    object      phi;
}
// * * * * * * * * * * * * * * * * * * * * * * * * * * * * * * * * * * * * * //

dimensions      [0 3 -1 0 0 0 0];

internalField   nonuniform List<scalar> 
24170
(
1.27881e-09
-1.27881e-09
2.3663e-09
-1.08749e-09
3.21562e-09
-8.49318e-10
3.84232e-09
-6.26704e-10
4.28901e-09
-4.46686e-10
4.60189e-09
-3.12879e-10
4.82059e-09
-2.18699e-10
4.97578e-09
-1.55198e-10
5.0902e-09
-1.14413e-10
5.18053e-09
-9.03363e-11
5.25948e-09
-7.89482e-11
5.33756e-09
-7.80795e-11
5.42511e-09
-8.75505e-11
5.5353e-09
-1.10189e-10
5.69095e-09
-1.55652e-10
5.94627e-09
-2.55319e-10
6.4821e-09
-5.35823e-10
-1.70844e-09
8.19053e-09
1.49425e-09
-2.77306e-09
2.75995e-09
-2.35319e-09
3.74393e-09
-1.83329e-09
4.46685e-09
-1.34963e-09
4.98015e-09
-9.59989e-10
5.33837e-09
-6.71096e-10
5.58756e-09
-4.67892e-10
5.76291e-09
-3.30551e-10
5.8901e-09
-2.41601e-10
5.98765e-09
-1.87888e-10
6.06926e-09
-1.60551e-10
6.14581e-09
-1.54629e-10
6.22745e-09
-1.69194e-10
6.32636e-09
-2.09103e-10
6.46212e-09
-2.91408e-10
6.67422e-09
-4.67418e-10
7.04254e-09
-9.0414e-10
-2.17486e-09
7.50895e-09
1.6835e-09
-4.45656e-09
3.09954e-09
-3.76924e-09
4.18992e-09
-2.92367e-09
4.98257e-09
-2.14227e-09
5.53905e-09
-1.51647e-09
5.92257e-09
-1.05461e-09
6.18539e-09
-7.30708e-10
6.36676e-09
-5.11924e-10
6.49492e-09
-3.69764e-10
6.58997e-09
-2.8294e-10
6.66653e-09
-2.37103e-10
6.73592e-09
-2.2402e-10
6.80817e-09
-2.41447e-10
6.89407e-09
-2.95005e-10
7.00758e-09
-4.04914e-10
7.16553e-09
-6.25375e-10
7.35454e-09
-1.09315e-09
-2.08373e-09
7.26341e-09
1.89297e-09
-6.34952e-09
3.47005e-09
-5.34632e-09
4.66856e-09
-4.12218e-09
5.52732e-09
-3.00103e-09
6.12122e-09
-2.11037e-09
6.524e-09
-1.4574e-09
6.795e-09
-1.0017e-09
6.97785e-09
-6.94772e-10
7.10339e-09
-4.95306e-10
7.19321e-09
-3.72764e-10
7.2627e-09
-3.06592e-10
7.32337e-09
-2.84687e-10
7.38461e-09
-3.02685e-10
7.45478e-09
-3.65182e-10
7.54047e-09
-4.90596e-10
7.63701e-09
-7.21915e-10
7.68157e-09
-1.13771e-09
-1.79235e-09
7.39019e-09
2.13783e-09
-8.48736e-09
3.89627e-09
-7.10476e-09
5.20925e-09
-5.43516e-09
6.13224e-09
-3.92402e-09
6.75818e-09
-2.73631e-09
7.17404e-09
-1.87326e-09
7.44743e-09
-1.27509e-09
7.62678e-09
-8.74115e-10
7.74554e-09
-6.14071e-10
7.82668e-09
-4.53899e-10
7.88611e-09
-3.6603e-10
7.93524e-09
-3.33811e-10
7.98236e-09
-3.49813e-10
8.03292e-09
-4.15736e-10
8.08644e-09
-5.44119e-10
8.12433e-09
-7.59805e-10
8.074e-09
-1.08738e-09
-1.47097e-09
7.75262e-09
2.43347e-09
-1.09208e-08
4.4012e-09
-9.07248e-09
5.83648e-09
-6.87045e-09
6.82033e-09
-4.90787e-09
7.47062e-09
-3.3866e-09
7.89115e-09
-2.2938e-09
8.15929e-09
-1.54323e-09
8.32864e-09
-1.04346e-09
8.43522e-09
-7.20656e-10
8.50312e-09
-5.21802e-10
8.54854e-09
-4.11444e-10
8.5824e-09
-3.67675e-10
8.61169e-09
-3.79099e-10
8.63897e-09
-4.43015e-10
8.65877e-09
-5.63922e-10
8.64751e-09
-7.48546e-10
8.54587e-09
-9.85733e-10
-1.18821e-09
8.26311e-09
2.80038e-09
-1.37212e-08
5.01376e-09
-1.12859e-08
6.57888e-09
-8.43557e-09
7.61649e-09
-5.94548e-09
8.27919e-09
-4.0493e-09
8.69236e-09
-2.70697e-09
8.94477e-09
-1.79564e-09
9.09547e-09
-1.19416e-09
9.18283e-09
-8.08018e-10
9.23167e-09
-5.70644e-10
9.25807e-09
-4.37845e-10
9.27223e-09
-3.81829e-10
9.27967e-09
-3.86538e-10
9.28073e-09
-4.44076e-10
9.26761e-09
-5.50798e-10
9.21874e-09
-6.99678e-10
9.09585e-09
-8.62844e-10
-9.61598e-10
8.86923e-09
3.2684e-09
-1.69896e-08
5.7738e-09
-1.37913e-08
7.47356e-09
-1.01353e-08
8.55103e-09
-7.02294e-09
9.20757e-09
-4.70585e-09
9.59607e-09
-3.09546e-09
9.81839e-09
-2.01796e-09
9.939e-09
-1.31477e-09
9.99805e-09
-8.6707e-10
1.00205e-08
-5.93093e-10
1.00218e-08
-4.39153e-10
1.00111e-08
-3.7113e-10
9.99256e-09
-3.67986e-10
9.96511e-09
-4.16624e-10
9.92099e-09
-5.06685e-10
9.84443e-09
-6.23111e-10
9.71654e-09
-7.34956e-10
-7.85334e-10
9.54027e-09
3.88335e-09
-2.0873e-08
6.73872e-09
-1.66466e-08
8.57057e-09
-1.19672e-08
9.66233e-09
-8.11469e-09
1.0284e-08
-5.32757e-09
1.06232e-08
-3.43459e-09
1.07959e-08
-2.1907e-09
1.08715e-08
-1.39033e-09
1.08907e-08
-8.86271e-10
1.08777e-08
-5.80086e-10
1.08466e-08
-4.08091e-10
1.08052e-08
-3.2973e-10
1.07563e-08
-3.19109e-10
1.06983e-08
-3.58612e-10
1.06249e-08
-4.33307e-10
1.05269e-08
-5.25082e-10
1.03991e-08
-6.0716e-10
-6.44067e-10
1.02578e-08
4.71868e-09
-2.55916e-08
7.9937e-09
-1.99216e-08
9.93867e-09
-1.39122e-08
1.09995e-08
-9.17552e-09
1.15426e-08
-5.87069e-09
1.17974e-08
-3.68942e-09
1.18945e-08
-2.28773e-09
1.19057e-08
-1.40154e-09
1.18707e-08
-8.51229e-10
1.18112e-08
-5.20639e-10
1.17392e-08
-3.36123e-10
1.16605e-08
-2.51027e-10
1.15767e-08
-2.35228e-10
1.14858e-08
-2.6771e-10
1.13836e-08
-3.3112e-10
1.1266e-08
-4.07561e-10
1.11356e-08
-4.76705e-10
-5.19011e-10
1.10105e-08
5.89785e-09
-3.14895e-08
9.66858e-09
-2.36924e-08
1.16732e-08
-1.59168e-08
1.2625e-08
-1.01273e-08
1.30233e-08
-6.26902e-09
1.31452e-08
-3.81132e-09
1.31322e-08
-2.2747e-09
1.30548e-08
-1.32412e-09
1.29479e-08
-7.44415e-10
1.28291e-08
-4.01759e-10
1.27064e-08
-2.1342e-10
1.2583e-08
-1.27622e-10
1.24589e-08
-1.11132e-10
1.2332e-08
-1.40868e-10
1.21997e-08
-1.98806e-10
1.20609e-08
-2.68795e-10
1.19204e-08
-3.36218e-10
-3.91015e-10
1.17925e-08
6.33968e-09
-3.78292e-08
9.96008e-09
-2.73128e-08
1.1605e-08
-1.75617e-08
1.22217e-08
-1.0744e-08
1.23687e-08
-6.416e-09
1.23159e-08
-3.75846e-09
1.2184e-08
-2.14285e-09
1.20256e-08
-1.16567e-09
1.18625e-08
-5.8134e-10
1.17034e-08
-2.4267e-10
1.1551e-08
-6.10685e-11
1.14053e-08
1.81584e-11
1.12641e-08
3.00367e-11
1.11252e-08
-2.00868e-12
1.0987e-08
-6.06062e-11
1.08495e-08
-1.31273e-10
1.07159e-08
-2.02561e-10
-2.67987e-10
1.05928e-08
9.48024e-09
-4.73094e-08
1.40935e-08
-3.1926e-08
1.57281e-08
-1.91963e-08
1.60622e-08
-1.10782e-08
1.59131e-08
-6.26694e-09
1.56142e-08
-3.45947e-09
1.52888e-08
-1.81751e-09
1.49787e-08
-8.55563e-10
1.46944e-08
-2.97011e-10
1.44361e-08
1.56226e-11
1.42001e-08
1.74932e-10
1.39808e-08
2.37454e-10
1.3774e-08
2.36807e-10
1.35765e-08
1.95549e-10
1.33859e-08
1.29906e-10
1.32023e-08
5.23677e-11
1.30274e-08
-2.76189e-11
-1.03684e-10
1.28631e-08
1.5403e-08
-6.27124e-08
2.09499e-08
-3.74729e-08
2.19455e-08
-2.01919e-08
2.14825e-08
-1.06151e-08
2.06975e-08
-5.48203e-09
1.99355e-08
-2.69746e-09
1.92751e-08
-1.15709e-09
1.8717e-08
-2.97454e-10
1.82449e-08
1.75137e-10
1.78372e-08
4.23298e-10
1.74759e-08
5.36258e-10
1.71492e-08
5.64133e-10
1.68485e-08
5.37498e-10
1.6568e-08
4.76093e-10
1.63043e-08
3.93554e-10
1.60566e-08
3.00069e-10
1.5825e-08
2.04008e-10
1.13625e-10
1.56077e-08
2.83477e-08
-9.10601e-08
3.31797e-08
-4.23049e-08
3.16241e-08
-1.86362e-08
2.92191e-08
-8.21015e-09
2.71697e-08
-3.43271e-09
2.55898e-08
-1.11753e-09
2.43842e-08
4.8566e-11
2.34492e-08
6.37477e-10
2.26947e-08
9.29675e-10
2.20642e-08
1.05378e-09
2.15215e-08
1.07897e-09
2.10418e-08
1.04386e-09
2.06085e-08
9.70801e-10
2.02112e-08
8.73394e-10
1.98444e-08
7.60356e-10
1.95067e-08
6.37755e-10
1.92e-08
5.10688e-10
3.85667e-10
1.8928e-08
6.29199e-08
-1.5398e-07
5.6327e-08
-3.5712e-08
4.66575e-08
-8.96677e-09
4.0004e-08
-1.55663e-09
3.57153e-08
8.55974e-10
3.28629e-08
1.73493e-09
3.08583e-08
2.05311e-09
2.93691e-08
2.12669e-09
2.82122e-08
2.0866e-09
2.72745e-08
1.99148e-09
2.64847e-08
1.86873e-09
2.57973e-08
1.73131e-09
2.51829e-08
1.58517e-09
2.46235e-08
1.43279e-09
2.41092e-08
1.27466e-09
2.36373e-08
1.10969e-09
2.32135e-08
9.34471e-10
7.41658e-10
2.28575e-08
1.83823e-07
1.62109e-07
9.7739e-08
5.03725e-08
6.72455e-08
2.15267e-08
5.35505e-08
1.21384e-08
4.61655e-08
8.241e-09
4.16535e-08
6.24687e-09
3.8647e-08
5.05968e-09
3.64994e-08
4.27421e-09
3.48721e-08
3.71395e-09
3.35731e-08
3.29045e-09
3.24878e-08
2.954e-09
3.15451e-08
2.67405e-09
3.06997e-08
2.43059e-09
2.99224e-08
2.21007e-09
2.91938e-08
2.00333e-09
2.84988e-08
1.80464e-09
2.78218e-08
1.61148e-09
1.42495e-09
2.71385e-08
7.71749e-08
8.49336e-08
7.54951e-08
5.20523e-08
6.55658e-08
3.1456e-08
5.75718e-08
2.01324e-08
5.1988e-08
1.38248e-08
4.80992e-08
1.01356e-08
4.53015e-08
7.8574e-09
4.31976e-08
6.37808e-09
4.15373e-08
5.37427e-09
4.01622e-08
4.66559e-09
3.89706e-08
4.14559e-09
3.78966e-08
3.74804e-09
3.68974e-08
3.42982e-09
3.59455e-08
3.16193e-09
3.50244e-08
2.92445e-09
3.41252e-08
2.70385e-09
3.32452e-08
2.49146e-09
2.28225e-09
3.23879e-08
3.61967e-08
4.87369e-08
5.04888e-08
3.77602e-08
5.43112e-08
2.76336e-08
5.42696e-08
2.01741e-08
5.30513e-08
1.50431e-08
5.16153e-08
1.15717e-08
5.02566e-08
9.21603e-09
4.90327e-08
7.60203e-09
4.7923e-08
6.4839e-09
4.68881e-08
5.70049e-09
4.58894e-08
5.14432e-09
4.48955e-08
4.74192e-09
4.38835e-08
4.4418e-09
4.28384e-08
4.20704e-09
4.17527e-08
4.01015e-09
4.06282e-08
3.82837e-09
3.9482e-08
3.63763e-09
3.40063e-09
3.83637e-08
1.46704e-08
3.40665e-08
2.38905e-08
2.85401e-08
2.89044e-08
2.26197e-08
3.1452e-08
1.76265e-08
3.26859e-08
1.38092e-08
3.32396e-08
1.1018e-08
3.34349e-08
9.02069e-09
3.34276e-08
7.60936e-09
3.32885e-08
6.62295e-09
3.30467e-08
5.94232e-09
3.27111e-08
5.4799e-09
3.22825e-08
5.17057e-09
3.17586e-08
4.96566e-09
3.11356e-08
4.83005e-09
3.04042e-08
4.74158e-09
2.95435e-08
4.68901e-09
2.85324e-08
4.64882e-09
4.8879e-09
2.70451e-08
8.94958e-09
2.5117e-08
1.56404e-08
2.18493e-08
2.01527e-08
1.81074e-08
2.30769e-08
1.47023e-08
2.49609e-08
1.19251e-08
2.61873e-08
9.79166e-09
2.6994e-08
8.21398e-09
2.75203e-08
7.08307e-09
2.78432e-08
6.3e-09
2.80023e-08
5.78324e-09
2.80155e-08
5.46667e-09
2.7891e-08
5.29505e-09
2.76366e-08
5.22012e-09
2.72666e-08
5.20002e-09
2.68008e-08
5.20737e-09
2.62304e-08
5.25942e-09
2.53529e-08
5.52631e-09
2.20534e-09
2.80355e-08
6.15116e-09
1.89658e-08
1.11552e-08
1.68453e-08
1.49196e-08
1.43429e-08
1.76577e-08
1.19643e-08
1.96372e-08
9.94562e-09
2.10817e-08
8.34713e-09
2.21514e-08
7.14429e-09
2.29515e-08
6.28302e-09
2.35455e-08
5.70597e-09
2.39669e-08
5.36178e-09
2.42281e-08
5.20548e-09
2.4329e-08
5.19422e-09
2.42696e-08
5.27948e-09
2.40774e-08
5.39224e-09
2.38862e-08
5.39858e-09
2.42248e-08
4.92083e-09
2.16365e-08
8.11454e-09
-4.74364e-09
2.85855e-08
4.55085e-09
1.44149e-08
8.42919e-09
1.2967e-08
1.15374e-08
1.12347e-08
1.39562e-08
9.54544e-09
1.58253e-08
8.07653e-09
1.72799e-08
6.89255e-09
1.84282e-08
5.99593e-09
1.93483e-08
5.36296e-09
2.00905e-08
4.96382e-09
2.06808e-08
4.77145e-09
2.1123e-08
4.76323e-09
2.1399e-08
4.91823e-09
2.14646e-08
5.21393e-09
2.12157e-08
5.64107e-09
2.02936e-08
6.32074e-09
1.69778e-08
8.23658e-09
2.46691e-08
4.23317e-10
-4.94912e-09
2.48745e-08
3.52817e-09
1.08868e-08
6.62012e-09
9.87503e-09
9.19776e-09
8.65703e-09
1.12921e-08
7.45106e-09
1.29819e-08
6.38676e-09
1.43538e-08
5.52069e-09
1.54842e-08
4.86551e-09
1.64332e-08
4.41393e-09
1.72431e-08
4.15396e-09
1.79375e-08
4.077e-09
1.852e-08
4.18072e-09
1.89729e-08
4.4654e-09
1.92757e-08
4.91106e-09
1.95432e-08
5.37363e-09
2.07184e-08
5.14552e-09
1.81328e-08
1.08222e-08
2.33174e-08
-4.76124e-09
-4.21221e-09
2.25804e-08
2.81962e-09
8.06715e-09
5.33509e-09
7.35956e-09
7.48692e-09
6.50521e-09
9.2865e-09
5.65147e-09
1.07818e-08
4.89144e-09
1.20322e-08
4.27033e-09
1.30945e-08
3.80315e-09
1.40176e-08
3.49089e-09
1.48395e-08
3.33209e-09
1.55858e-08
3.33069e-09
1.62644e-08
3.50208e-09
1.68495e-08
3.88029e-09
1.72235e-08
4.53703e-09
1.69513e-08
5.64589e-09
1.44082e-08
7.68863e-09
2.10527e-08
4.1776e-09
2.07799e-08
-4.48838e-09
-3.64536e-09
2.0213e-08
2.29827e-09
5.76888e-09
4.37315e-09
5.28468e-09
6.17924e-09
4.69912e-09
7.71997e-09
4.11075e-09
9.02692e-09
3.58449e-09
1.01431e-08
3.15416e-09
1.11129e-08
2.83339e-09
1.19773e-08
2.62647e-09
1.27723e-08
2.5371e-09
1.35277e-08
2.57527e-09
1.42656e-08
2.76418e-09
1.49975e-08
3.14835e-09
1.57281e-08
3.80646e-09
1.64604e-08
4.91362e-09
1.12218e-08
1.29272e-08
1.93194e-08
-3.92008e-09
1.86876e-08
-3.85656e-09
-3.01976e-09
1.8062e-08
1.89633e-09
3.87255e-09
3.62239e-09
3.55862e-09
5.14302e-09
3.17848e-09
6.45842e-09
2.79535e-09
7.59083e-09
2.45208e-09
8.5729e-09
2.17209e-09
9.44032e-09
1.96597e-09
1.02282e-08
1.83854e-09
1.09704e-08
1.79492e-09
1.16995e-08
1.84622e-09
1.24478e-08
2.01588e-09
1.3251e-08
2.34516e-09
1.42002e-08
2.85723e-09
1.5916e-08
3.19782e-09
1.57237e-08
1.31195e-08
1.72173e-08
-5.41369e-09
1.6734e-08
-3.37325e-09
-2.36536e-09
1.60796e-08
1.57344e-09
2.29911e-09
3.01394e-09
2.11812e-09
4.29383e-09
1.89859e-09
5.41213e-09
1.67705e-09
6.3854e-09
1.47881e-09
7.23929e-09
1.31819e-09
8.00302e-09
1.20225e-09
8.70674e-09
1.13483e-09
9.38128e-09
1.12037e-09
1.00596e-08
1.16794e-09
1.0778e-08
1.29742e-09
1.15689e-08
1.55426e-09
1.23849e-08
2.04123e-09
1.27761e-08
2.80661e-09
1.65122e-08
9.38348e-09
1.5868e-08
-4.76954e-09
1.5019e-08
-2.52421e-09
-1.61009e-09
1.42637e-08
1.29878e-09
1.00033e-09
2.49321e-09
9.23691e-10
3.56143e-09
8.30374e-10
4.50223e-09
7.36256e-10
5.32848e-09
6.52555e-10
6.06081e-09
5.85859e-10
6.72336e-09
5.39699e-10
7.34181e-09
5.16381e-10
7.94346e-09
5.18718e-10
8.55943e-09
5.51974e-10
9.22892e-09
6.27937e-10
1.0001e-08
7.82156e-10
1.08416e-08
1.20068e-09
1.0305e-08
3.34314e-09
1.6008e-08
3.68051e-09
1.45568e-08
-3.31836e-09
1.33933e-08
-1.36064e-09
-7.94983e-10
1.25782e-08
1.00033e-09
1.92402e-09
2.7544e-09
3.49065e-09
4.14321e-09
4.72907e-09
5.26877e-09
5.78515e-09
6.30387e-09
6.85584e-09
7.48378e-09
8.26593e-09
9.46661e-09
1.28098e-08
1.64903e-08
1.31719e-08
1.18113e-08
1.10163e-08
2.22885e-10
-2.22885e-10
4.4709e-10
-2.24205e-10
6.72396e-10
-2.25306e-10
8.98577e-10
-2.26181e-10
1.1254e-09
-2.26822e-10
1.35262e-09
-2.27223e-10
1.58e-09
-2.2738e-10
1.80729e-09
-2.27289e-10
2.03424e-09
-2.26948e-10
2.2606e-09
-2.26356e-10
2.48611e-09
-2.25514e-10
2.71053e-09
-2.24422e-10
2.93362e-09
-2.23084e-10
3.15512e-09
-2.21505e-10
3.37481e-09
-2.19688e-10
3.59245e-09
-2.17642e-10
3.80782e-09
-2.15374e-10
4.02072e-09
-2.12892e-10
4.23092e-09
-2.10206e-10
4.43825e-09
-2.07327e-10
4.64251e-09
-2.04265e-10
4.84355e-09
-2.01032e-10
5.04119e-09
-1.97641e-10
5.23529e-09
-1.94104e-10
5.42573e-09
-1.90434e-10
5.61237e-09
-1.86643e-10
5.79511e-09
-1.82745e-10
5.97387e-09
-1.78752e-10
6.14854e-09
-1.74677e-10
6.31908e-09
-1.70533e-10
6.48541e-09
-1.66332e-10
6.64749e-09
-1.62084e-10
6.8053e-09
-1.57803e-10
6.95879e-09
-1.53498e-10
7.10797e-09
-1.4918e-10
7.25283e-09
-1.44859e-10
7.39338e-09
-1.40544e-10
7.52962e-09
-1.36244e-10
7.66159e-09
-1.31966e-10
7.78931e-09
-1.27719e-10
7.91282e-09
-1.23509e-10
8.03216e-09
-1.19343e-10
8.14739e-09
-1.15226e-10
8.25855e-09
-1.11164e-10
8.36571e-09
-1.07162e-10
8.46893e-09
-1.03223e-10
8.56829e-09
-9.93523e-11
8.66384e-09
-9.55522e-11
8.75567e-09
-9.18259e-11
8.84384e-09
-8.8176e-11
8.92845e-09
-8.46044e-11
9.00956e-09
-8.11131e-11
9.08726e-09
-7.77032e-11
9.16164e-09
-7.43762e-11
9.23277e-09
-7.11326e-11
9.30074e-09
-6.79729e-11
9.36564e-09
-6.48977e-11
9.42755e-09
-6.19067e-11
9.48655e-09
-5.90001e-11
9.54273e-09
-5.61773e-11
9.59616e-09
-5.34379e-11
9.64694e-09
-5.07812e-11
9.69515e-09
-4.82066e-11
9.74086e-09
-4.57128e-11
9.78416e-09
-4.3299e-11
9.82513e-09
-4.09639e-11
9.86383e-09
-3.87064e-11
9.90036e-09
-3.6525e-11
9.93478e-09
-3.44186e-11
9.96716e-09
-3.23853e-11
9.99759e-09
-3.04241e-11
1.00261e-08
-2.8533e-11
1.00528e-08
-2.67106e-11
1.00778e-08
-2.49553e-11
1.01011e-08
-2.32653e-11
1.01227e-08
-2.16391e-11
1.01428e-08
-2.00749e-11
1.01613e-08
-1.85712e-11
1.01785e-08
-1.7126e-11
1.01942e-08
-1.57379e-11
1.02086e-08
-1.4405e-11
1.02217e-08
-1.31257e-11
1.02336e-08
-1.18984e-11
1.02443e-08
-1.07214e-11
1.02539e-08
-9.59302e-12
1.02625e-08
-8.51153e-12
1.02699e-08
-7.47561e-12
1.02764e-08
-6.48338e-12
1.02819e-08
-5.5335e-12
1.02866e-08
-4.62443e-12
1.02903e-08
-3.75449e-12
1.02932e-08
-2.9224e-12
1.02954e-08
-2.12653e-12
1.02967e-08
-1.36576e-12
1.02974e-08
-6.38321e-13
1.02973e-08
5.68357e-14
1.02966e-08
7.21025e-13
1.02952e-08
1.35582e-12
1.02933e-08
1.96217e-12
1.02907e-08
2.54149e-12
1.02876e-08
3.09475e-12
1.0284e-08
3.62341e-12
1.02799e-08
4.12818e-12
1.02753e-08
4.61062e-12
1.02702e-08
5.0713e-12
1.02647e-08
5.51162e-12
1.02588e-08
5.93235e-12
1.02524e-08
6.33454e-12
1.02457e-08
6.71902e-12
1.02386e-08
7.08674e-12
1.02312e-08
7.43858e-12
1.02234e-08
7.77534e-12
1.02153e-08
8.09771e-12
1.02069e-08
8.40656e-12
1.01982e-08
8.70261e-12
1.01892e-08
8.98666e-12
1.018e-08
9.25908e-12
1.01704e-08
9.52102e-12
1.01607e-08
9.7725e-12
1.01507e-08
1.00147e-11
1.01404e-08
1.02477e-11
1.01299e-08
1.04724e-11
1.01192e-08
1.06891e-11
1.01083e-08
1.08985e-11
1.00972e-08
1.1101e-11
1.00859e-08
1.12968e-11
1.00745e-08
1.14868e-11
1.00628e-08
1.16711e-11
1.00509e-08
1.18501e-11
1.00389e-08
1.20244e-11
1.00267e-08
1.2194e-11
1.00144e-08
1.23597e-11
1.00018e-08
1.25214e-11
9.98916e-09
1.26797e-11
9.97633e-09
1.28348e-11
9.96334e-09
1.29871e-11
9.9502e-09
1.31365e-11
9.93692e-09
1.32838e-11
9.92349e-09
1.34289e-11
9.90992e-09
1.35722e-11
9.8962e-09
1.37139e-11
9.88235e-09
1.38543e-11
9.86836e-09
1.39938e-11
9.85422e-09
1.41324e-11
9.83995e-09
1.42707e-11
9.82554e-09
1.44087e-11
9.811e-09
1.4547e-11
9.79631e-09
1.46859e-11
9.78149e-09
1.4826e-11
9.76652e-09
1.49678e-11
9.75141e-09
1.51117e-11
9.73615e-09
1.52589e-11
9.72074e-09
1.54101e-11
9.70517e-09
1.55665e-11
9.68944e-09
1.57298e-11
9.67354e-09
1.59016e-11
9.65745e-09
1.60847e-11
9.64117e-09
1.62818e-11
9.62468e-09
1.64969e-11
9.60794e-09
1.67349e-11
9.59094e-09
1.70025e-11
9.57363e-09
1.73078e-11
9.55597e-09
1.76619e-11
9.53789e-09
1.80788e-11
9.51931e-09
1.85778e-11
9.50013e-09
1.91839e-11
9.4802e-09
1.99308e-11
9.45933e-09
2.08647e-11
9.43728e-09
2.2049e-11
9.41371e-09
2.35729e-11
9.38815e-09
2.55645e-11
9.35993e-09
2.82132e-11
9.32812e-09
3.18092e-11
9.2913e-09
3.68191e-11
9.24726e-09
4.40403e-11
9.19231e-09
5.49557e-11
9.11964e-09
7.26674e-11
9.01476e-09
1.04879e-10
8.83844e-09
1.76324e-10
4.0111e-10
8.43733e-09
2.23873e-10
-4.46758e-10
4.49066e-10
-4.49398e-10
6.75356e-10
-4.51596e-10
9.0251e-10
-4.53335e-10
1.13029e-09
-4.54602e-10
1.35845e-09
-4.55386e-10
1.58675e-09
-4.55675e-10
1.81492e-09
-4.55465e-10
2.04273e-09
-4.54749e-10
2.2699e-09
-4.53528e-10
2.49618e-09
-4.51801e-10
2.72133e-09
-4.49572e-10
2.9451e-09
-4.46848e-10
3.16723e-09
-4.43638e-10
3.3875e-09
-4.39952e-10
3.60566e-09
-4.35805e-10
3.8215e-09
-4.31213e-10
4.0348e-09
-4.26192e-10
4.24536e-09
-4.20764e-10
4.45298e-09
-4.14949e-10
4.65748e-09
-4.0877e-10
4.8587e-09
-4.02251e-10
5.05648e-09
-3.95416e-10
5.25066e-09
-3.88291e-10
5.44113e-09
-3.80902e-10
5.62776e-09
-3.73274e-10
5.81045e-09
-3.65434e-10
5.98911e-09
-3.57407e-10
6.16365e-09
-3.4922e-10
6.33401e-09
-3.40896e-10
6.50014e-09
-3.32461e-10
6.66199e-09
-3.23938e-10
6.81954e-09
-3.15349e-10
6.97276e-09
-3.06717e-10
7.12164e-09
-2.98061e-10
7.26618e-09
-2.89401e-10
7.40639e-09
-2.80756e-10
7.54229e-09
-2.72143e-10
7.67391e-09
-2.63579e-10
7.80126e-09
-2.55076e-10
7.92441e-09
-2.46651e-10
8.04338e-09
-2.38315e-10
8.15823e-09
-2.30079e-10
8.26902e-09
-2.21955e-10
8.37581e-09
-2.13951e-10
8.47866e-09
-2.06076e-10
8.57765e-09
-1.98338e-10
8.67284e-09
-1.90742e-10
8.76431e-09
-1.83295e-10
8.85213e-09
-1.76001e-10
8.93639e-09
-1.68865e-10
9.01717e-09
-1.6189e-10
9.09455e-09
-1.55078e-10
9.1686e-09
-1.48432e-10
9.23942e-09
-1.41954e-10
9.30709e-09
-1.35643e-10
9.3717e-09
-1.29502e-10
9.43332e-09
-1.23529e-10
9.49205e-09
-1.17725e-10
9.54796e-09
-1.12089e-10
9.60114e-09
-1.0662e-10
9.65167e-09
-1.01316e-10
9.69964e-09
-9.61757e-11
9.74513e-09
-9.11973e-11
9.78821e-09
-8.63787e-11
9.82896e-09
-8.17175e-11
9.86747e-09
-7.72111e-11
9.9038e-09
-7.28571e-11
9.93803e-09
-6.86523e-11
9.97024e-09
-6.45941e-11
1.00005e-08
-6.06792e-11
1.00289e-08
-5.69048e-11
1.00554e-08
-5.32675e-11
1.00802e-08
-4.97638e-11
1.01034e-08
-4.6391e-11
1.01249e-08
-4.31453e-11
1.01448e-08
-4.00235e-11
1.01633e-08
-3.70221e-11
1.01803e-08
-3.4138e-11
1.01959e-08
-3.13674e-11
1.02102e-08
-2.87073e-11
1.02232e-08
-2.6154e-11
1.0235e-08
-2.37046e-11
1.02457e-08
-2.13554e-11
1.02552e-08
-1.91033e-11
1.02636e-08
-1.69449e-11
1.0271e-08
-1.48773e-11
1.02774e-08
-1.2897e-11
1.02829e-08
-1.10012e-11
1.02875e-08
-9.18666e-12
1.02912e-08
-7.45043e-12
1.0294e-08
-5.78955e-12
1.02961e-08
-4.20122e-12
1.02974e-08
-2.68255e-12
1.0298e-08
-1.23079e-12
1.02979e-08
1.56759e-13
1.02972e-08
1.4828e-12
1.02958e-08
2.74961e-12
1.02938e-08
3.96015e-12
1.02912e-08
5.11636e-12
1.02881e-08
6.22098e-12
1.02844e-08
7.276e-12
1.02802e-08
8.28394e-12
1.02756e-08
9.24686e-12
1.02705e-08
1.01667e-11
1.0265e-08
1.10457e-11
1.0259e-08
1.18856e-11
1.02527e-08
1.26886e-11
1.02459e-08
1.34562e-11
1.02388e-08
1.41906e-11
1.02314e-08
1.4893e-11
1.02236e-08
1.55653e-11
1.02155e-08
1.6209e-11
1.02071e-08
1.68259e-11
1.01983e-08
1.7417e-11
1.01893e-08
1.79842e-11
1.01801e-08
1.85285e-11
1.01705e-08
1.90512e-11
1.01608e-08
1.95538e-11
1.01507e-08
2.00374e-11
1.01405e-08
2.05029e-11
1.013e-08
2.09517e-11
1.01193e-08
2.13847e-11
1.01084e-08
2.18029e-11
1.00973e-08
2.22073e-11
1.0086e-08
2.25988e-11
1.00745e-08
2.29782e-11
1.00628e-08
2.33464e-11
1.0051e-08
2.37042e-11
1.0039e-08
2.40523e-11
1.00268e-08
2.43915e-11
1.00144e-08
2.47224e-11
1.00019e-08
2.50456e-11
9.98919e-09
2.53619e-11
9.97635e-09
2.5672e-11
9.96336e-09
2.5976e-11
9.95022e-09
2.6275e-11
9.93694e-09
2.65692e-11
9.92351e-09
2.68593e-11
9.90993e-09
2.71457e-11
9.89622e-09
2.74291e-11
9.88236e-09
2.77097e-11
9.86837e-09
2.79884e-11
9.85423e-09
2.82655e-11
9.83996e-09
2.85419e-11
9.82555e-09
2.88179e-11
9.81101e-09
2.90944e-11
9.79632e-09
2.93721e-11
9.78149e-09
2.9652e-11
9.76653e-09
2.99352e-11
9.75142e-09
3.02229e-11
9.73616e-09
3.0517e-11
9.72075e-09
3.08189e-11
9.70518e-09
3.11315e-11
9.68946e-09
3.14574e-11
9.67356e-09
3.18007e-11
9.65748e-09
3.21658e-11
9.6412e-09
3.2559e-11
9.62471e-09
3.29879e-11
9.60798e-09
3.34624e-11
9.59099e-09
3.39955e-11
9.57369e-09
3.46035e-11
9.55605e-09
3.53081e-11
9.53799e-09
3.61379e-11
9.51943e-09
3.71301e-11
9.50028e-09
3.83346e-11
9.4804e-09
3.98184e-11
9.45959e-09
4.16724e-11
9.43762e-09
4.40216e-11
9.41415e-09
4.70422e-11
9.38873e-09
5.09857e-11
9.36072e-09
5.62226e-11
9.32921e-09
6.33188e-11
9.29285e-09
7.31756e-11
9.24957e-09
8.73172e-11
9.19601e-09
1.08523e-10
9.12627e-09
1.42404e-10
9.02924e-09
2.01912e-10
8.88322e-09
3.22343e-10
6.16576e-10
8.66775e-09
2.25871e-10
-6.72629e-10
4.53061e-10
-6.76588e-10
6.81338e-10
-6.79873e-10
9.10461e-10
-6.82458e-10
1.14018e-09
-6.84321e-10
1.37024e-09
-6.85446e-10
1.60038e-09
-6.85818e-10
1.83035e-09
-6.85428e-10
2.05987e-09
-6.84269e-10
2.28868e-09
-6.8234e-10
2.51652e-09
-6.79644e-10
2.74313e-09
-6.76186e-10
2.96826e-09
-6.71978e-10
3.19166e-09
-6.67033e-10
3.41308e-09
-6.6137e-10
3.63228e-09
-6.5501e-10
3.84905e-09
-6.4798e-10
4.06316e-09
-6.40307e-10
4.27442e-09
-6.32021e-10
4.48263e-09
-6.23157e-10
4.68761e-09
-6.13748e-10
4.88919e-09
-6.03832e-10
5.08722e-09
-5.93447e-10
5.28156e-09
-5.82632e-10
5.47208e-09
-5.71426e-10
5.65868e-09
-5.59868e-10
5.84124e-09
-5.47999e-10
6.01969e-09
-5.35857e-10
6.19395e-09
-5.23482e-10
6.36397e-09
-5.10909e-10
6.52968e-09
-4.98177e-10
6.69107e-09
-4.85321e-10
6.84809e-09
-4.72373e-10
7.00074e-09
-4.59367e-10
7.14901e-09
-4.46334e-10
7.29291e-09
-4.33302e-10
7.43246e-09
-4.20298e-10
7.56766e-09
-4.07349e-10
7.69856e-09
-3.94477e-10
7.82519e-09
-3.81705e-10
7.94759e-09
-3.69054e-10
8.06582e-09
-3.5654e-10
8.17992e-09
-3.44182e-10
8.28996e-09
-3.31995e-10
8.396e-09
-3.19993e-10
8.49811e-09
-3.08186e-10
8.59636e-09
-2.96588e-10
8.69082e-09
-2.85206e-10
8.78158e-09
-2.74049e-10
8.8687e-09
-2.63124e-10
8.95227e-09
-2.52437e-10
9.03238e-09
-2.41993e-10
9.10909e-09
-2.31796e-10
9.18251e-09
-2.21848e-10
9.25271e-09
-2.12152e-10
9.31977e-09
-2.02709e-10
9.38379e-09
-1.9352e-10
9.44485e-09
-1.84584e-10
9.50302e-09
-1.75902e-10
9.5584e-09
-1.67471e-10
9.61107e-09
-1.5929e-10
9.66112e-09
-1.51358e-10
9.70861e-09
-1.43671e-10
9.75364e-09
-1.36226e-10
9.79628e-09
-1.29021e-10
9.83662e-09
-1.22051e-10
9.87472e-09
-1.15313e-10
9.91066e-09
-1.08803e-10
9.94453e-09
-1.02517e-10
9.97638e-09
-9.64497e-11
1.00063e-08
-9.05973e-11
1.00344e-08
-8.49547e-11
1.00606e-08
-7.95171e-11
1.00851e-08
-7.428e-11
1.0108e-08
-6.92379e-11
1.01292e-08
-6.43862e-11
1.01489e-08
-5.97197e-11
1.01671e-08
-5.52333e-11
1.01839e-08
-5.09221e-11
1.01993e-08
-4.67807e-11
1.02134e-08
-4.28044e-11
1.02262e-08
-3.8988e-11
1.02379e-08
-3.53265e-11
1.02483e-08
-3.1815e-11
1.02577e-08
-2.84486e-11
1.02659e-08
-2.52223e-11
1.02732e-08
-2.21315e-11
1.02795e-08
-1.91715e-11
1.02848e-08
-1.63374e-11
1.02892e-08
-1.3625e-11
1.02928e-08
-1.10295e-11
1.02956e-08
-8.54671e-12
1.02976e-08
-6.17227e-12
1.02988e-08
-3.90182e-12
1.02993e-08
-1.73145e-12
1.02991e-08
3.42968e-13
1.02982e-08
2.32534e-12
1.02968e-08
4.21958e-12
1.02947e-08
6.02921e-12
1.02921e-08
7.75815e-12
1.02889e-08
9.40971e-12
1.02852e-08
1.09874e-11
1.0281e-08
1.24946e-11
1.02763e-08
1.39344e-11
1.02711e-08
1.531e-11
1.02655e-08
1.66245e-11
1.02596e-08
1.78807e-11
1.02532e-08
1.90817e-11
1.02464e-08
2.02299e-11
1.02392e-08
2.1328e-11
1.02318e-08
2.23789e-11
1.02239e-08
2.33847e-11
1.02158e-08
2.43477e-11
1.02074e-08
2.52705e-11
1.01986e-08
2.61551e-11
1.01896e-08
2.70036e-11
1.01803e-08
2.7818e-11
1.01708e-08
2.86005e-11
1.0161e-08
2.93525e-11
1.01509e-08
3.00761e-11
1.01407e-08
3.0773e-11
1.01302e-08
3.14448e-11
1.01195e-08
3.20929e-11
1.01085e-08
3.27191e-11
1.00974e-08
3.33244e-11
1.00861e-08
3.39106e-11
1.00746e-08
3.44788e-11
1.00629e-08
3.50301e-11
1.00511e-08
3.55659e-11
1.0039e-08
3.60874e-11
1.00268e-08
3.65953e-11
1.00145e-08
3.7091e-11
1.00019e-08
3.75753e-11
9.98924e-09
3.80492e-11
9.9764e-09
3.85135e-11
9.9634e-09
3.89693e-11
9.95026e-09
3.94171e-11
9.93697e-09
3.98581e-11
9.92354e-09
4.02928e-11
9.90996e-09
4.0722e-11
9.89624e-09
4.11465e-11
9.88239e-09
4.15673e-11
9.86839e-09
4.1985e-11
9.85426e-09
4.24003e-11
9.83998e-09
4.28145e-11
9.82557e-09
4.32281e-11
9.81103e-09
4.36422e-11
9.79634e-09
4.40585e-11
9.78151e-09
4.44779e-11
9.76655e-09
4.49022e-11
9.75144e-09
4.53332e-11
9.73618e-09
4.57733e-11
9.72077e-09
4.62255e-11
9.70521e-09
4.66932e-11
9.68949e-09
4.71808e-11
9.67359e-09
4.76941e-11
9.65752e-09
4.82398e-11
9.64125e-09
4.88271e-11
9.62477e-09
4.94673e-11
9.60806e-09
5.01752e-11
9.59109e-09
5.09696e-11
9.57381e-09
5.18751e-11
9.5562e-09
5.29238e-11
9.53818e-09
5.41576e-11
9.51968e-09
5.56317e-11
9.50059e-09
5.74196e-11
9.48079e-09
5.96201e-11
9.4601e-09
6.23668e-11
9.43827e-09
6.58435e-11
9.41501e-09
7.03073e-11
9.38987e-09
7.61249e-11
9.36226e-09
8.3833e-11
9.33133e-09
9.42436e-11
9.29587e-09
1.08637e-10
9.25405e-09
1.29137e-10
9.20307e-09
1.59507e-10
9.1385e-09
2.06979e-10
9.05359e-09
2.86817e-10
8.94167e-09
4.34265e-10
7.31944e-10
8.8263e-09
2.28922e-10
-9.01551e-10
4.59163e-10
-9.06828e-10
6.90474e-10
-9.11185e-10
9.226e-10
-9.14583e-10
1.15527e-09
-9.16996e-10
1.38823e-09
-9.18399e-10
1.62118e-09
-9.18775e-10
1.85387e-09
-9.18111e-10
2.086e-09
-9.16401e-10
2.3173e-09
-9.13644e-10
2.5475e-09
-9.09845e-10
2.77633e-09
-9.05014e-10
3.00352e-09
-8.99168e-10
3.22882e-09
-8.92328e-10
3.45197e-09
-8.8452e-10
3.67273e-09
-8.75777e-10
3.89089e-09
-8.66134e-10
4.10621e-09
-8.55632e-10
4.31851e-09
-8.44313e-10
4.52757e-09
-8.32225e-10
4.73324e-09
-8.19415e-10
4.93534e-09
-8.05936e-10
5.13374e-09
-7.91839e-10
5.32828e-09
-7.77179e-10
5.51886e-09
-7.62008e-10
5.70538e-09
-7.46381e-10
5.88773e-09
-7.30351e-10
6.06584e-09
-7.13972e-10
6.23966e-09
-6.97295e-10
6.40912e-09
-6.8037e-10
6.57419e-09
-6.63247e-10
6.73484e-09
-6.45972e-10
6.89106e-09
-6.2859e-10
7.04283e-09
-6.11145e-10
7.19017e-09
-5.93675e-10
7.33309e-09
-5.76221e-10
7.47161e-09
-5.58817e-10
7.60576e-09
-5.41496e-10
7.73557e-09
-5.24291e-10
7.8611e-09
-5.07228e-10
7.98238e-09
-4.90336e-10
8.09948e-09
-4.73636e-10
8.21244e-09
-4.57152e-10
8.32135e-09
-4.40903e-10
8.42626e-09
-4.24905e-10
8.52726e-09
-4.09177e-10
8.6244e-09
-3.93729e-10
8.71777e-09
-3.78576e-10
8.80745e-09
-3.63727e-10
8.89351e-09
-3.4919e-10
8.97605e-09
-3.34974e-10
9.05514e-09
-3.21085e-10
9.13087e-09
-3.07526e-10
9.20333e-09
-2.94302e-10
9.27259e-09
-2.81416e-10
9.33875e-09
-2.68867e-10
9.40189e-09
-2.56658e-10
9.46209e-09
-2.44788e-10
9.51944e-09
-2.33255e-10
9.57403e-09
-2.22058e-10
9.62594e-09
-2.11195e-10
9.67524e-09
-2.00662e-10
9.72202e-09
-1.90456e-10
9.76637e-09
-1.80572e-10
9.80836e-09
-1.71007e-10
9.84806e-09
-1.61756e-10
9.88556e-09
-1.52813e-10
9.92093e-09
-1.44172e-10
9.95424e-09
-1.35829e-10
9.98557e-09
-1.27778e-10
1.0015e-08
-1.20011e-10
1.00426e-08
-1.12523e-10
1.00683e-08
-1.05308e-10
1.00924e-08
-9.83584e-11
1.01149e-08
-9.16681e-11
1.01357e-08
-8.52303e-11
1.0155e-08
-7.90387e-11
1.01729e-08
-7.30858e-11
1.01893e-08
-6.73655e-11
1.02044e-08
-6.18707e-11
1.02182e-08
-5.65949e-11
1.02307e-08
-5.15312e-11
1.02421e-08
-4.6673e-11
1.02523e-08
-4.2014e-11
1.02614e-08
-3.75471e-11
1.02694e-08
-3.32665e-11
1.02765e-08
-2.91653e-11
1.02825e-08
-2.52378e-11
1.02877e-08
-2.14773e-11
1.02919e-08
-1.7878e-11
1.02953e-08
-1.4434e-11
1.02979e-08
-1.11393e-11
1.02997e-08
-7.98831e-12
1.03008e-08
-4.97533e-12
1.03012e-08
-2.09513e-12
1.03009e-08
6.57901e-13
1.02999e-08
3.28896e-12
1.02983e-08
5.80302e-12
1.02961e-08
8.20491e-12
1.02934e-08
1.04998e-11
1.02901e-08
1.2692e-11
1.02863e-08
1.47863e-11
1.0282e-08
1.67872e-11
1.02772e-08
1.86986e-11
1.0272e-08
2.05251e-11
1.02664e-08
2.22703e-11
1.02603e-08
2.39384e-11
1.02539e-08
2.5533e-11
1.02471e-08
2.70579e-11
1.02399e-08
2.85164e-11
1.02323e-08
2.99118e-11
1.02245e-08
3.12478e-11
1.02163e-08
3.25272e-11
1.02078e-08
3.3753e-11
1.0199e-08
3.49282e-11
1.019e-08
3.60558e-11
1.01807e-08
3.71379e-11
1.01711e-08
3.81776e-11
1.01613e-08
3.91772e-11
1.01512e-08
4.01391e-11
1.01409e-08
4.10653e-11
1.01304e-08
4.19585e-11
1.01197e-08
4.28202e-11
1.01087e-08
4.36527e-11
1.00976e-08
4.44578e-11
1.00863e-08
4.52373e-11
1.00748e-08
4.59931e-11
1.00631e-08
4.67265e-11
1.00512e-08
4.74394e-11
1.00391e-08
4.8133e-11
1.00269e-08
4.8809e-11
1.00145e-08
4.94686e-11
1.0002e-08
5.01132e-11
9.98931e-09
5.07439e-11
9.97647e-09
5.1362e-11