/*--------------------------------*- C++ -*----------------------------------*\
  =========                 |
  \\      /  F ield         | OpenFOAM: The Open Source CFD Toolbox
   \\    /   O peration     | Website:  https://openfoam.org
    \\  /    A nd           | Version:  10
     \\/     M anipulation  |
\*---------------------------------------------------------------------------*/
FoamFile
{
    format      ascii;
    class       volVectorField;
    location    "0.44";
    object      Ua;
}
// * * * * * * * * * * * * * * * * * * * * * * * * * * * * * * * * * * * * * //

dimensions      [0 1 -1 0 0 0 0];

internalField   nonuniform List<vector> 
12225
(
(0.000112892 -1.2947e-05 0)
(0.000330473 -1.20349e-05 0)
(0.000529001 -1.03765e-05 0)
(0.000705646 -8.48564e-06 0)
(0.00086142 -6.70259e-06 0)
(0.000999164 -5.19047e-06 0)
(0.00112209 -3.99667e-06 0)
(0.00123304 -3.11162e-06 0)
(0.00133427 -2.50718e-06 0)
(0.00142746 -2.15812e-06 0)
(0.00151393 -2.05518e-06 0)
(0.00159495 -2.21819e-06 0)
(0.00167219 -2.72153e-06 0)
(0.00174867 -3.76073e-06 0)
(0.00183107 -5.86582e-06 0)
(0.00193654 -1.07464e-05 0)
(0.0021198 -2.58323e-05 0)
(0.00263052 -0.000100717 0)
(7.02429e-05 -3.41805e-05 0)
(0.000206433 -3.19816e-05 0)
(0.000332109 -2.77764e-05 0)
(0.000444853 -2.28854e-05 0)
(0.000544624 -1.82119e-05 0)
(0.000632777 -1.42073e-05 0)
(0.000711234 -1.10169e-05 0)
(0.000782008 -8.62991e-06 0)
(0.000847013 -6.98018e-06 0)
(0.000908078 -6.00552e-06 0)
(0.000967062 -5.68437e-06 0)
(0.00102609 -6.07331e-06 0)
(0.00108793 -7.37753e-06 0)
(0.00115678 -1.01328e-05 0)
(0.00124001 -1.57692e-05 0)
(0.0013527 -2.87098e-05 0)
(0.00153037 -6.62808e-05 0)
(0.00184672 -0.000222626 0)
(5.56848e-05 -4.83094e-05 0)
(0.000164641 -4.56351e-05 0)
(0.000267269 -4.00346e-05 0)
(0.000361467 -3.33065e-05 0)
(0.000446741 -2.67414e-05 0)
(0.000523731 -2.10228e-05 0)
(0.000593691 -1.64016e-05 0)
(0.000658132 -1.28945e-05 0)
(0.000718648 -1.04278e-05 0)
(0.000776883 -8.9255e-06 0)
(0.000834593 -8.36599e-06 0)
(0.000893815 -8.84019e-06 0)
(0.00095719 -1.06556e-05 0)
(0.00102858 -1.45934e-05 0)
(0.00111438 -2.26546e-05 0)
(0.0012262 -4.05315e-05 0)
(0.00138566 -8.70089e-05 0)
(0.00162013 -0.000234947 0)
(4.64212e-05 -5.83361e-05 0)
(0.000138074 -5.56511e-05 0)
(0.000226157 -4.93068e-05 0)
(0.00030885 -4.13995e-05 0)
(0.000385417 -3.35065e-05 0)
(0.000456036 -2.65107e-05 0)
(0.000521484 -2.07718e-05 0)
(0.000582877 -1.63526e-05 0)
(0.000641515 -1.3192e-05 0)
(0.000698836 -1.1216e-05 0)
(0.000756442 -1.04124e-05 0)
(0.000816229 -1.09042e-05 0)
(0.000880643 -1.30744e-05 0)
(0.000953161 -1.78511e-05 0)
(0.00103916 -2.74576e-05 0)
(0.00114744 -4.75329e-05 0)
(0.00129217 -9.3363e-05 0)
(0.00149662 -0.000207816 0)
(3.95823e-05 -6.52064e-05 0)
(0.00011842 -6.28374e-05 0)
(0.000195662 -5.62159e-05 0)
(0.000269745 -4.76132e-05 0)
(0.000339826 -3.8818e-05 0)
(0.000405781 -3.08821e-05 0)
(0.000468038 -2.42726e-05 0)
(0.000527399 -1.91089e-05 0)
(0.000584911 -1.53558e-05 0)
(0.000641812 -1.29524e-05 0)
(0.000699543 -1.19005e-05 0)
(0.000759838 -1.23478e-05 0)
(0.000824932 -1.4717e-05 0)
(0.000897909 -1.99739e-05 0)
(0.000983294 -3.02404e-05 0)
(0.00108803 -5.02101e-05 0)
(0.00122381 -9.01406e-05 0)
(0.00142179 -0.000170669 0)
(3.41908e-05 -6.94203e-05 0)
(0.000102876 -6.76096e-05 0)
(0.000171426 -6.10646e-05 0)
(0.000238518 -5.21465e-05 0)
(0.000303286 -4.27956e-05 0)
(0.000365418 -3.42031e-05 0)
(0.00042509 -2.69362e-05 0)
(0.000482852 -2.11757e-05 0)
(0.000539529 -1.69209e-05 0)
(0.000596172 -1.41309e-05 0)
(0.000654062 -1.28228e-05 0)
(0.000714766 -1.31578e-05 0)
(0.000780304 -1.55612e-05 0)
(0.000853413 -2.09373e-05 0)
(0.000937999 -3.10796e-05 0)
(0.00104012 -4.93787e-05 0)
(0.00117171 -8.16488e-05 0)
(0.00137229 -0.000135873 0)
(2.9781e-05 -7.12917e-05 0)
(9.01144e-05 -7.02192e-05 0)
(0.000151406 -6.40206e-05 0)
(0.000212559 -5.50915e-05 0)
(0.000272741 -4.54756e-05 0)
(0.00033154 -3.64742e-05 0)
(0.00038895 -2.87422e-05 0)
(0.00044532 -2.25213e-05 0)
(0.000501281 -1.78495e-05 0)
(0.000557713 -1.47101e-05 0)
(0.000615732 -1.31342e-05 0)
(0.000676746 -1.32846e-05 0)
(0.000742573 -1.55561e-05 0)
(0.000815673 -2.07214e-05 0)
(0.000899594 -3.01438e-05 0)
(0.0010002 -4.59758e-05 0)
(0.00113064 -7.09747e-05 0)
(0.00133595 -0.000107408 0)
(2.60891e-05 -7.1045e-05 0)
(7.93848e-05 -7.08378e-05 0)
(0.00013446 -6.51854e-05 0)
(0.00019042 -5.6487e-05 0)
(0.000246518 -4.68519e-05 0)
(0.0003023 -3.76607e-05 0)
(0.00035764 -2.96402e-05 0)
(0.000412723 -2.30878e-05 0)
(0.000468014 -1.80804e-05 0)
(0.00052423 -1.46266e-05 0)
(0.000582333 -1.27692e-05 0)
(0.000643574 -1.26625e-05 0)
(0.000709596 -1.46471e-05 0)
(0.000782666 -1.93317e-05 0)
(0.000866179 -2.76577e-05 0)
(0.000966171 -4.0833e-05 0)
(0.00109701 -5.99195e-05 0)
(0.0013062 -8.5409e-05 0)
(2.2948e-05 -6.88626e-05 0)
(7.0213e-05 -6.95979e-05 0)
(0.000119865 -6.46266e-05 0)
(0.000171199 -5.63444e-05 0)
(0.000223585 -4.68952e-05 0)
(0.000276576 -3.77086e-05 0)
(0.000329969 -2.95629e-05 0)
(0.000383825 -2.28013e-05 0)
(0.00043846 -1.75369e-05 0)
(0.000494442 -1.38024e-05 0)
(0.000552587 -1.16498e-05 0)
(0.000614001 -1.12177e-05 0)
(0.000680181 -1.27823e-05 0)
(0.00075327 -1.67897e-05 0)
(0.000836641 -2.38382e-05 0)
(0.000936605 -3.45377e-05 0)
(0.00106832 -4.92402e-05 0)
(0.00127954 -6.84577e-05 0)
(2.02416e-05 -6.49123e-05 0)
(6.22685e-05 -6.66143e-05 0)
(0.00010712 -6.23956e-05 0)
(0.000154275 -5.46617e-05 0)
(0.000203243 -4.5566e-05 0)
(0.000253622 -3.6555e-05 0)
(0.000305165 -2.84339e-05 0)
(0.000357834 -2.15787e-05 0)
(0.000411819 -1.61324e-05 0)
(0.000467551 -1.21496e-05 0)
(0.00052571 -9.68936e-06 0)
(0.00058727 -8.87143e-06 0)
(0.000653612 -9.90943e-06 0)
(0.000726802 -1.31121e-05 0)
(0.000810243 -1.88386e-05 0)
(0.000910468 -2.73892e-05 0)
(0.00104292 -3.89651e-05 0)
(0.00125428 -5.46454e-05 0)
(1.7882e-05 -5.93671e-05 0)
(5.52992e-05 -6.1998e-05 0)
(9.58441e-05 -5.85382e-05 0)
(0.000139181 -5.14337e-05 0)
(0.000184979 -4.28235e-05 0)
(0.000232904 -3.41357e-05 0)
(0.000282688 -2.6175e-05 0)
(0.000334213 -1.93334e-05 0)
(0.000387562 -1.37757e-05 0)
(0.000443042 -9.57462e-06 0)
(0.000501208 -6.79526e-06 0)
(0.000562916 -5.53928e-06 0)
(0.000629452 -5.96846e-06 0)
(0.000702827 -8.28964e-06 0)
(0.000786472 -1.27176e-05 0)
(0.000887022 -1.9426e-05 0)
(0.00101983 -2.86802e-05 0)
(0.00122981 -4.20164e-05 0)
(1.56039e-05 -5.29612e-05 0)
(4.85975e-05 -5.63734e-05 0)
(8.50711e-05 -5.35862e-05 0)
(0.000124859 -4.71081e-05 0)
(0.000167752 -3.90408e-05 0)
(0.000213453 -3.07645e-05 0)
(0.000261665 -2.30583e-05 0)
(0.000312193 -1.63143e-05 0)
(0.000365016 -1.07087e-05 0)
(0.000420328 -6.32733e-06 0)
(0.000478567 -3.24386e-06 0)
(0.000540457 -1.53791e-06 0)
(0.000607228 -1.34254e-06 0)
(0.000680908 -2.82071e-06 0)
(0.000764911 -6.08067e-06 0)
(0.000865811 -1.12709e-05 0)
(0.000998619 -1.87109e-05 0)
(0.00120643 -3.00075e-05 0)
(1.40873e-05 -4.55823e-05 0)
(4.4034e-05 -4.95946e-05 0)
(7.75255e-05 -4.73724e-05 0)
(0.000114584 -4.15064e-05 0)
(0.000155156 -3.40313e-05 0)
(0.000199027 -2.62474e-05 0)
(0.000245913 -1.88791e-05 0)
(0.000295584 -1.2303e-05 0)
(0.000347957 -6.69307e-06 0)
(0.000403082 -2.14756e-06 0)
(0.000461273 1.3283e-06 0)
(0.000523313 3.54646e-06 0)
(0.000590424 4.40803e-06 0)
(0.000664501 3.79341e-06 0)
(0.000748932 1.63876e-06 0)
(0.000850297 -2.17355e-06 0)
(0.000983325 -7.90237e-06 0)
(0.00118976 -1.67648e-05 0)
(1.25234e-05 -3.64495e-05 0)
(3.92562e-05 -4.07783e-05 0)
(6.95331e-05 -3.89832e-05 0)
(0.000103664 -3.3739e-05 0)
(0.000141764 -2.69452e-05 0)
(0.000183691 -1.97783e-05 0)
(0.000229166 -1.28546e-05 0)
(0.000277922 -6.52447e-06 0)
(0.000329646 -8.74399e-07 0)
(0.000384334 3.97282e-06 0)
(0.00044251 7.90464e-06 0)
(0.000504847 1.07436e-05 0)
(0.000572368 1.24211e-05 0)
(0.000646912 1.28615e-05 0)
(0.000731821 1.19946e-05 0)
(0.000833615 9.75911e-06 0)
(0.000966878 6.05908e-06 0)
(0.00117271 4.92849e-07 0)
(1.08154e-05 -2.56411e-05 0)
(3.39884e-05 -2.95925e-05 0)
(6.07312e-05 -2.79361e-05 0)
(9.17813e-05 -2.32886e-05 0)
(0.000127346 -1.7226e-05 0)
(0.000167312 -1.07956e-05 0)
(0.000211269 -4.45703e-06 0)
(0.000258619 1.80486e-06 0)
(0.000309393 7.55025e-06 0)
(0.00036393 1.27031e-05 0)
(0.000422383 1.70995e-05 0)
(0.000485173 2.06895e-05 0)
(0.000553242 2.34041e-05 0)
(0.000628373 2.51657e-05 0)
(0.000713885 2.59027e-05 0)
(0.000816333 2.55751e-05 0)
(0.000950488 2.42497e-05 0)
(0.00115832 2.2402e-05 0)
(8.56033e-06 -1.34372e-05 0)
(2.7208e-05 -1.56639e-05 0)
(4.98927e-05 -1.37595e-05 0)
(7.78973e-05 -9.75801e-06 0)
(0.000110888 -4.36457e-06 0)
(0.000148207 1.55541e-06 0)
(0.000190027 7.42184e-06 0)
(0.000236527 1.34396e-05 0)
(0.000287441 1.91566e-05 0)
(0.000342436 2.45491e-05 0)
(0.000401513 2.95787e-05 0)
(0.000465042 3.41903e-05 0)
(0.000533911 3.83122e-05 0)
(0.000609857 4.18648e-05 0)
(0.0006962 4.47738e-05 0)
(0.00079966 4.70064e-05 0)
(0.000935772 4.86945e-05 0)
(0.00115006 5.0698e-05 0)
(4.29861e-06 1.85673e-07 0)
(1.50125e-05 1.63468e-06 0)
(3.1363e-05 4.0864e-06 0)
(5.47816e-05 7.44374e-06 0)
(8.53229e-05 1.19573e-05 0)
(0.000122441 1.71504e-05 0)
(0.000165079 2.25421e-05 0)
(0.00021249 2.81229e-05 0)
(0.000264259 3.38735e-05 0)
(0.000320197 3.97813e-05 0)
(0.000380351 4.58307e-05 0)
(0.000445091 5.19953e-05 0)
(0.00051529 5.8243e-05 0)
(0.000592698 6.45594e-05 0)
(0.000680718 7.10029e-05 0)
(0.000786355 7.78606e-05 0)
(0.000926277 8.61585e-05 0)
(0.001152 9.98954e-05 0)
(1.00208e-05 1.68262e-05 0)
(3.06573e-05 2.32542e-05 0)
(5.34322e-05 2.73199e-05 0)
(7.99322e-05 3.07085e-05 0)
(0.000111137 3.43487e-05 0)
(0.000147416 3.84471e-05 0)
(0.000188702 4.30817e-05 0)
(0.000234782 4.8328e-05 0)
(0.000285449 5.42652e-05 0)
(0.000340595 6.09722e-05 0)
(0.000400295 6.85222e-05 0)
(0.000464932 7.69848e-05 0)
(0.000535431 8.64507e-05 0)
(0.000613734 9.70976e-05 0)
(0.000703836 0.000109351 0)
(0.000814507 0.000124348 0)
(0.000968581 0.000145572 0)
(0.00124801 0.000186869 0)
(1.38083e-05 4.00991e-05 0)
(4.24371e-05 4.99957e-05 0)
(7.32941e-05 5.60906e-05 0)
(0.000106911 6.01114e-05 0)
(0.000143897 6.33881e-05 0)
(0.000184696 6.67518e-05 0)
(0.000229548 7.07491e-05 0)
(0.000278556 7.57805e-05 0)
(0.000331785 8.21741e-05 0)
(0.000389345 9.02232e-05 0)
(0.000451514 0.00010021 0)
(0.000518921 0.000112441 0)
(0.000592905 0.000127322 0)
(0.000676256 0.000145529 0)
(0.000775016 0.000168448 0)
(0.00090391 0.00019951 0)
(0.0011084 0.000249765 0)
(0.00164636 0.000384633 0)
(1.5526e-05 6.52667e-05 0)
(4.81436e-05 7.54653e-05 0)
(8.38339e-05 8.19606e-05 0)
(0.000122628 8.5979e-05 0)
(0.000164746 8.88454e-05 0)
(0.000210434 9.16504e-05 0)
(0.0002599 9.52535e-05 0)
(0.000313326 0.000100356 0)
(0.000370915 0.000107574 0)
(0.000432967 0.000117489 0)
(0.000500023 0.000130705 0)
(0.000573144 0.000147929 0)
(0.000654493 0.000170165 0)
(0.000748646 0.000199194 0)
(0.000866246 0.000238992 0)
(0.0010373 0.000300731 0)
(0.00139638 0.000433226 0)
(0.00424455 0.0015769 0)
(1.82574e-05 8.56706e-05 0)
(5.63698e-05 9.43872e-05 0)
(9.76252e-05 9.98318e-05 0)
(0.000141985 0.000102945 0)
(0.000189536 0.000104978 0)
(0.000240457 0.000107102 0)
(0.000294989 0.000110337 0)
(0.000353436 0.000115591 0)
(0.000416205 0.000123731 0)
(0.000483882 0.000135654 0)
(0.000557446 0.000152369 0)
(0.000638733 0.000175136 0)
(0.000731519 0.000205804 0)
(0.000844382 0.000247873 0)
(0.000999958 0.000310426 0)
(0.00127923 0.000427916 0)
(0.00242002 0.000927195 0)
(0.0112566 0.00270525 0)
(2.15995e-05 0.000100986 0)
(6.62545e-05 0.000107819 0)
(0.000113813 0.000111709 0)
(0.000164266 0.000113529 0)
(0.00021767 0.000114496 0)
(0.000274221 0.000115819 0)
(0.00033426 0.00011862 0)
(0.00039829 0.000123972 0)
(0.000467017 0.00013299 0)
(0.000541461 0.000146952 0)
(0.000623237 0.000167437 0)
(0.000715259 0.000196545 0)
(0.000823685 0.000237431 0)
(0.000964276 0.000296046 0)
(0.00118885 0.000388169 0)
(0.00181214 0.000595939 0)
(0.00905464 0.00523823 0)
(0.0191273 -0.00160435 0)
(2.55898e-05 0.00011041 0)
(7.79781e-05 0.000115366 0)
(0.000132791 0.000117593 0)
(0.000190038 0.00011801 0)
(0.000249805 0.000117834 0)
(0.000312367 0.00011829 0)
(0.000378242 0.000120554 0)
(0.000448231 0.000125818 0)
(0.000523487 0.000135435 0)
(0.000605681 0.00015112 0)
(0.000697386 0.000175238 0)
(0.000803072 0.000211329 0)
(0.000932044 0.000265499 0)
(0.00110856 0.000352148 0)
(0.00142853 0.000531964 0)
(0.00313893 0.00179743 0)
(0.0134372 0.00484209 0)
(0.0223341 -0.00612367 0)
(3.02921e-05 0.000113826 0)
(9.17469e-05 0.000117079 0)
(0.000154922 0.000117758 0)
(0.000219803 0.000116862 0)
(0.000286519 0.000115609 0)
(0.00035548 0.000115211 0)
(0.000427448 0.000116847 0)
(0.000503622 0.000121768 0)
(0.00058577 0.000131507 0)
(0.000676514 0.000148201 0)
(0.000779971 0.000175121 0)
(0.000903607 0.000217722 0)
(0.001065 0.000286217 0)
(0.00132541 0.000404717 0)
(0.00213612 0.000690157 0)
(0.0106304 0.00765714 0)
(0.0213156 -0.00263111 0)
(0.0237684 -0.00578792 0)
(3.58344e-05 0.000111477 0)
(0.000107935 0.000113277 0)
(0.000180804 0.000112657 0)
(0.000254346 0.000110677 0)
(0.00032874 0.000108533 0)
(0.000404562 0.00010738 0)
(0.000482881 0.000108348 0)
(0.000565378 0.000112672 0)
(0.000654586 0.00012196 0)
(0.000754351 0.000138641 0)
(0.000870894 0.000166824 0)
(0.00101557 0.000214288 0)
(0.00121349 0.000298609 0)
(0.00155065 0.000478828 0)
(0.00301337 0.00143983 0)
(0.0146498 0.00863775 0)
(0.0248831 -0.00561023 0)
(0.024385 -0.00496423 0)
(4.24666e-05 0.000103741 0)
(0.000127265 0.000104378 0)
(0.000211577 0.000102795 0)
(0.00029517 0.000100059 0)
(0.000378267 9.73004e-05 0)
(0.000461643 9.55808e-05 0)
(0.000546723 9.59213e-05 0)
(0.000635742 9.94626e-05 0)
(0.000732096 0.000107755 0)
(0.000841107 0.000123295 0)
(0.000971907 0.000150654 0)
(0.001143 0.00019942 0)
(0.00140412 0.000294732 0)
(0.00201146 0.000554151 0)
(0.00731923 0.00680922 0)
(0.0192922 0.000149925 0)
(0.0259707 -0.0050615 0)
(0.0251115 -0.00421087 0)
(5.07068e-05 9.09745e-05 0)
(0.00015124 9.07691e-05 0)
(0.000249627 8.86149e-05 0)
(0.000345432 8.55207e-05 0)
(0.000438919 8.25019e-05 0)
(0.000531099 8.04785e-05 0)
(0.000623802 8.03202e-05 0)
(0.000719871 8.30012e-05 0)
(0.000823613 8.98833e-05 0)
(0.000941911 0.000103266 0)
(0.00108703 0.000127588 0)
(0.0012855 0.000172627 0)
(0.00161991 0.000264311 0)
(0.00271949 0.000535464 0)
(0.0141033 0.0130564 0)
(0.0258166 -0.00543508 0)
(0.0266491 -0.00438514 0)
(0.0257561 -0.00340219 0)
(6.1843e-05 7.33609e-05 0)
(0.000183613 7.26597e-05 0)
(0.000300926 7.03747e-05 0)
(0.000413053 6.7377e-05 0)
(0.000520288 6.45084e-05 0)
(0.000623918 6.25067e-05 0)
(0.000726239 6.20517e-05 0)
(0.00083075 6.38995e-05 0)
(0.000942732 6.9124e-05 0)
(0.00107066 7.95982e-05 0)
(0.00123 9.9129e-05 0)
(0.0014544 0.000136825 0)
(0.00184896 0.000220711 0)
(0.00334661 0.000547216 0)
(0.0171751 0.0125595 0)
(0.0291903 -0.00592972 0)
(0.0278489 -0.00357702 0)
(0.0264024 -0.0025116 0)
(8.07616e-05 5.06665e-05 0)
(0.000238591 4.98418e-05 0)
(0.000388017 4.79083e-05 0)
(0.000527787 4.55086e-05 0)
(0.00065815 4.3245e-05 0)
(0.000780689 4.16286e-05 0)
(0.000898224 4.11181e-05 0)
(0.001015 4.22167e-05 0)
(0.00113741 4.56448e-05 0)
(0.00127576 5.26773e-05 0)
(0.00144927 6.60444e-05 0)
(0.0017017 9.32556e-05 0)
(0.00218635 0.000168737 0)
(0.00448498 0.00084222 0)
(0.0198049 0.00730267 0)
(0.0316553 -0.00470961 0)
(0.0289482 -0.0023563 0)
(0.0268988 -0.00151947 0)
(0.000176639 1.90317e-05 0)
(0.000519368 1.86367e-05 0)
(0.000839031 1.7821e-05 0)
(0.00113253 1.68364e-05 0)
(0.00139827 1.59152e-05 0)
(0.00163579 1.52505e-05 0)
(0.00184564 1.50124e-05 0)
(0.00202972 1.53859e-05 0)
(0.00219257 1.66363e-05 0)
(0.00234441 1.92337e-05 0)
(0.00250936 2.42125e-05 0)
(0.00275685 3.47199e-05 0)
(0.0034586 6.94245e-05 0)
(0.0139025 0.00054254 0)
(0.0315197 0.00205753 0)
(0.0352896 -0.00193229 0)
(0.0297229 -0.000825276 0)
(0.0271583 -0.000502252 0)
(9.86947e-05 -0.000210956 -2.72537e-30)
(0.000296886 -0.000210658 2.71919e-30)
(0.000496323 -0.000210151 0)
(0.000696812 -0.000209432 0)
(0.000898152 -0.000208499 0)
(0.00110013 -0.000207351 -2.66696e-30)
(0.00130255 -0.000205989 0)
(0.00150518 -0.000204416 0)
(0.00170781 -0.000202634 0)
(0.00191021 -0.000200646 0)
(0.00211217 -0.00019846 2.5401e-30)
(0.00231347 -0.000196079 0)
(0.00251387 -0.000193513 0)
(0.00271318 -0.000190768 0)
(0.00291117 -0.000187854 0)
(0.00310764 -0.000184781 2.35155e-30)
(0.00330239 -0.000181559 0)
(0.00349522 -0.000178199 0)
(0.00368594 -0.000174713 0)
(0.00387438 -0.000171112 0)
(0.00406037 -0.000167409 0)
(0.00424374 -0.000163616 0)
(0.00442435 -0.000159745 0)
(0.00460206 -0.000155808 1.95945e-30)
(0.00477675 -0.000151818 -1.90582e-30)
(0.00494829 -0.000147787 1.85168e-30)
(0.00511658 -0.000143725 1.7972e-30)
(0.00528154 -0.000139644 0)
(0.00544306 -0.000135555 0)
(0.00560109 -0.000131468 -1.63306e-30)
(0.00575557 -0.000127392 -1.57856e-30)
(0.00590644 -0.000123337 0)
(0.00605366 -0.000119312 0)
(0.00619721 -0.000115323 -1.41736e-30)
(0.00633706 -0.000111379 0)
(0.0064732 -0.000107486 0)
(0.00660563 -0.000103651 1.26168e-30)
(0.00673436 -9.98778e-05 0)
(0.00685939 -9.61723e-05 1.16202e-30)
(0.00698075 -9.25387e-05 2.22726e-30)
(0.00709846 -8.89806e-05 0)
(0.00721255 -8.55014e-05 0)
(0.00732307 -8.21038e-05 0)
(0.00743005 -7.87901e-05 0)
(0.00753354 -7.5562e-05 0)
(0.00763359 -7.2421e-05 1.69181e-30)
(0.00773026 -6.93681e-05 1.61062e-30)
(0.00782361 -6.6404e-05 1.53179e-30)
(0.00791369 -6.35291e-05 0)
(0.00800057 -6.07434e-05 -1.38129e-30)
(0.00808432 -5.80466e-05 0)
(0.00816501 -5.54384e-05 1.24028e-30)
(0.0082427 -5.2918e-05 1.17329e-30)
(0.00831746 -5.04845e-05 0)
(0.00838936 -4.81368e-05 0)
(0.00845848 -4.58737e-05 0)
(0.0085249 -4.36939e-05 9.28196e-31)
(0.00858867 -4.15959e-05 0)
(0.00864989 -3.95779e-05 0)
(0.00870861 -3.76385e-05 0)
(0.00876491 -3.57757e-05 0)
(0.00881887 -3.39879e-05 0)
(0.00887055 -3.2273e-05 0)
(0.00892003 -3.06292e-05 0)
(0.00896738 -2.90545e-05 0)
(0.00901266 -2.7547e-05 -4.9929e-31)
(0.00905595 -2.61047e-05 0)
(0.00909732 -2.47255e-05 0)
(0.00913682 -2.34076e-05 3.89361e-31)
(0.00917452 -2.2149e-05 3.55931e-31)
(0.0092105 -2.09476e-05 0)
(0.00924481 -1.98015e-05 -2.93595e-31)
(0.0092775 -1.87089e-05 2.64577e-31)
(0.00930866 -1.76677e-05 0)
(0.00933832 -1.66762e-05 -2.10597e-31)
(0.00936655 -1.57325e-05 0)
(0.0093934 -1.48347e-05 0)
(0.00941894 -1.39812e-05 1.39033e-31)
(0.0094432 -1.31702e-05 0)
(0.00946625 -1.24e-05 -9.70404e-32)
(0.00948814 -1.16689e-05 0)
(0.0095089 -1.09753e-05 5.92045e-32)
(0.00952859 -1.03177e-05 4.17425e-32)
(0.00954726 -9.69454e-06 2.51936e-32)
(0.00956495 -9.10433e-06 1.90418e-32)
(0.0095817 -8.54564e-06 1.06369e-32)
(0.00959756 -8.01708e-06 0)
(0.00961256 -7.51729e-06 0)
(0.00962674 -7.04496e-06 0)
(0.00964015 -6.59883e-06 1.14041e-31)
(0.00965281 -6.17768e-06 1.36414e-31)
(0.00966476 -5.78032e-06 -1.57519e-31)
(0.00967604 -5.40563e-06 0)
(0.00968667 -5.0525e-06 1.9618e-31)
(0.0096967 -4.71988e-06 2.13854e-31)
(0.00970614 -4.40675e-06 2.30488e-31)
(0.00971504 -4.11214e-06 0)
(0.0097234 -3.83511e-06 0)
(0.00973127 -3.57475e-06 0)
(0.00973867 -3.3302e-06 2.87681e-31)
(0.00974562 -3.10063e-06 0)
(0.00975215 -2.88526e-06 0)
(0.00975828 -2.68331e-06 -3.22045e-31)
(0.00976402 -2.49406e-06 0)
(0.00976941 -2.31682e-06 0)
(0.00977445 -2.15093e-06 -3.50335e-31)
(0.00977918 -1.99574e-06 0)
(0.0097836 -1.85065e-06 0)
(0.00978773 -1.71509e-06 3.73494e-31)
(0.00979159 -1.58851e-06 3.8022e-31)
(0.0097952 -1.47038e-06 0)
(0.00979857 -1.36021e-06 -3.92356e-31)
(0.00980172 -1.25752e-06 0)
(0.00980465 -1.16187e-06 4.02894e-31)
(0.00980738 -1.07282e-06 0)
(0.00980992 -9.89983e-07 4.12032e-31)
(0.00981229 -9.12962e-07 4.1612e-31)
(0.0098145 -8.41397e-07 0)
(0.00981654 -7.74943e-07 0)
(0.00981844 -7.13276e-07 0)
(0.00982021 -6.56086e-07 0)
(0.00982185 -6.03083e-07 0)
(0.00982337 -5.53992e-07 0)
(0.00982478 -5.08552e-07 0)
(0.00982608 -4.66521e-07 4.39857e-31)
(0.00982728 -4.27666e-07 -4.41918e-31)
(0.0098284 -3.9177e-07 0)
(0.00982943 -3.58629e-07 0)
(0.00983038 -3.28048e-07 0)
(0.00983126 -2.99848e-07 0)
(0.00983207 -2.73857e-07 -9.00193e-31)
(0.00983281 -2.49913e-07 0)
(0.0098335 -2.27866e-07 9.05085e-31)
(0.00983413 -2.07573e-07 -9.07244e-31)
(0.00983471 -1.88898e-07 0)
(0.00983524 -1.71714e-07 0)
(0.00983573 -1.55901e-07 0)
(0.00983618 -1.41344e-07 9.14289e-31)
(0.00983659 -1.27932e-07 9.15714e-31)
(0.00983696 -1.1556e-07 0)
(0.0098373 -1.04126e-07 9.18239e-31)
(0.00983761 -9.35293e-08 9.1936e-31)
(0.00983788 -8.36702e-08 -9.20411e-31)
(0.00983814 -7.44484e-08 0)
(0.00983836 -6.57606e-08 0)
(0.00983856 -5.74989e-08 -9.23181e-31)
(0.00983873 -4.95477e-08 0)
(0.00983889 -4.17806e-08 0)
(0.00983901 -3.40556e-08 0)
(0.00983911 -2.62112e-08 0)
(0.00983919 -1.80584e-08 9.27317e-31)
(0.00983923 -9.37337e-09 9.28219e-31)
(0.00983925 1.13128e-10 0)
(0.00983923 1.07296e-08 9.30298e-31)
(0.00983917 2.28805e-08 0)
(0.00983907 3.70685e-08 0)
(0.0098389 5.39229e-08 9.34734e-31)
(0.00983867 7.42367e-08 0)
(0.00983835 9.90154e-08 9.39346e-31)
(0.00983793 1.2954e-07 0)
(0.00983738 1.67451e-07 0)
(0.00983666 2.14863e-07 9.51162e-31)
(0.00983573 2.74512e-07 0)
(0.00983454 3.49964e-07 9.64929e-31)
(0.009833 4.459e-07 0)
(0.00983102 5.68514e-07 0)
(0.00982847 7.26082e-07 0)
(0.00982517 9.29802e-07 -1.024e-30)
(0.0098209 1.19504e-06 0)
(0.00981535 1.54329e-06 1.08651e-30)
(0.00980808 2.00528e-06 0)
(0.00979851 2.62627e-06 0)
(0.00978577 3.47542e-06 0)
(0.00976861 4.66352e-06 0)
(0.00974511 6.3796e-06 0)
(0.00971211 8.97463e-06 0)
(0.00966402 1.31817e-05 0)
(0.00958949 2.08192e-05 -6.11651e-30)
(0.0094599 3.77169e-05 0)
(0.00917268 9.07012e-05 0)
(9.91323e-05 -0.000633802 8.18817e-30)
(0.0002982 -0.000632905 -8.16952e-30)
(0.000498512 -0.000631374 0)
(0.00069987 -0.000629201 1.62314e-29)
(0.000902068 -0.000626381 0)
(0.0011049 -0.000622915 -8.03794e-30)
(0.00130814 -0.000618803 -1.59339e-29)
(0.00151157 -0.000614051 -1.58014e-29)
(0.00171498 -0.000608669 0)
(0.00191813 -0.000602669 -1.5488e-29)
(0.00212079 -0.000596068 7.67896e-30)
(0.00232276 -0.000588883 0)
(0.0025238 -0.000581138 0)
(0.00272369 -0.000572856 0)
(0.00292223 -0.000564066 0)
(0.00311919 -0.000554797 7.13376e-30)
(0.00331439 -0.000545082 0)
(0.00350761 -0.000534953 1.36626e-29)
(0.00369868 -0.000524446 0)
(0.00388741 -0.000513596 0)
(0.00407365 -0.00050244 -1.27954e-29)
(0.00425722 -0.000491016 0)
(0.00443798 -0.00047936 1.21816e-29)
(0.0046158 -0.000467509 5.98793e-30)
(0.00479054 -0.0004555 -5.83065e-30)
(0.0049621 -0.000443369 5.67183e-30)
(0.00513037 -0.00043115 5.51191e-30)
(0.00529526 -0.000418876 0)
(0.00545669 -0.00040658 0)
(0.00561459 -0.000394293 -5.02984e-30)
(0.0057689 -0.000382043 -1.44729e-29)
(0.00591959 -0.000369858 0)
(0.0060666 -0.000357763 0)
(0.00620991 -0.000345782 -4.39583e-30)
(0.00634951 -0.000333937 0)
(0.00648538 -0.000322247 0)
(0.00661752 -0.000310731 3.93799e-30)
(0.00674595 -0.000299405 0)
(0.00687068 -0.000288283 1.07724e-29)
(0.00699172 -0.000277378 7.00498e-30)
(0.0071091 -0.000266701 0)
(0.00722287 -0.000256263 0)
(0.00733305 -0.00024607 -1.2029e-29)
(0.0074397 -0.00023613 -1.1505e-29)
(0.00754286 -0.000226448 -1.09947e-29)
(0.00764258 -0.000217028 1.59279e-29)
(0.00773892 -0.000207873 5.19068e-30)
(0.00783195 -0.000198985 -4.58891e-30)
(0.00792171 -0.000190365 9.09354e-30)
(0.00800827 -0.000182014 -4.51587e-30)
(0.00809171 -0.000173929 0)
(0.00817209 -0.00016611 4.10092e-30)
(0.00824948 -0.000158555 1.13218e-29)
(0.00832395 -0.000151261 0)
(0.00839557 -0.000144225 0)
(0.00846442 -0.000137442 0)
(0.00853056 -0.00013091 3.18254e-30)
(0.00859408 -0.000124622 0)
(0.00865504 -0.000118575 5.31282e-30)
(0.00871352 -0.000112763 0)
(0.00876959 -0.000107181 4.71297e-30)
(0.00882332 -0.000101824 0)
(0.00887478 -9.66857e-05 -4.16042e-30)
(0.00892405 -9.17604e-05 0)
(0.0089712 -8.70423e-05 3.65276e-30)
(0.00901628 -8.25256e-05 -5.33536e-30)
(0.00905939 -7.82042e-05 0)
(0.00910057 -7.40723e-05 -2.97001e-30)
(0.0091399 -7.01238e-05 1.59687e-30)
(0.00917744 -6.63529e-05 1.49851e-30)
(0.00921326 -6.27536e-05 0)
(0.00924742 -5.93201e-05 -3.50854e-30)
(0.00927997 -5.60466e-05 1.22968e-30)
(0.00931099 -5.29275e-05 0)
(0.00934052 -4.99571e-05 -1.07084e-30)
(0.00936863 -4.71299e-05 -1.55181e-30)
(0.00939536 -4.44405e-05 0)
(0.00942078 -4.18836e-05 8.60248e-31)
(0.00944494 -3.94539e-05 0)
(0.00946789 -3.71465e-05 2.8962e-31)
(0.00948968 -3.49564e-05 0)
(0.00951035 -3.28786e-05 -1.76294e-31)
(0.00952996 -3.09087e-05 5.73975e-31)
(0.00954854 -2.90419e-05 1.12497e-30)
(0.00956615 -2.72738e-05 1.97157e-30)
(0.00958283 -2.56002e-05 -1.70805e-30)
(0.00959861 -2.40168e-05 0)
(0.00961355 -2.25196e-05 0)
(0.00962767 -2.11046e-05 0)
(0.00964101 -1.97682e-05 -3.43718e-31)
(0.00965362 -1.85065e-05 -5.00935e-31)
(0.00966552 -1.73162e-05 4.38836e-31)
(0.00967675 -1.61938e-05 0)
(0.00968734 -1.51359e-05 -6.04162e-32)
(0.00969732 -1.41395e-05 -2.73099e-31)
(0.00970672 -1.32015e-05 -2.2416e-31)
(0.00971557 -1.23189e-05 0)
(0.0097239 -1.1489e-05 0)
(0.00973174 -1.07091e-05 0)
(0.00973911 -9.97648e-06 -5.5903e-32)
(0.00974603 -9.28877e-06 0)
(0.00975253 -8.64358e-06 9.48271e-31)
(0.00975863 -8.03861e-06 9.66778e-31)
(0.00976435 -7.47168e-06 -1.07168e-30)
(0.00976971 -6.94073e-06 0)
(0.00977473 -6.44375e-06 -1.30834e-30)
(0.00977943 -5.97884e-06 0)
(0.00978384 -5.5442e-06 -1.27466e-30)
(0.00978795 -5.1381e-06 1.51396e-30)
(0.0097918 -4.7589e-06 1.57369e-30)
(0.00979539 -4.40502e-06 0)
(0.00979875 -4.07497e-06 1.17737e-30)
(0.00980188 -3.76735e-06 -1.46178e-30)
(0.0098048 -3.4808e-06 2.83015e-31)
(0.00980752 -3.21404e-06 0)
(0.00981005 -2.96587e-06 3.09887e-31)
(0.00981241 -2.73513e-06 -1.24859e-30)
(0.0098146 -2.52074e-06 0)
(0.00981664 -2.32166e-06 -1.61405e-30)
(0.00981854 -2.13691e-06 -1.63352e-30)
(0.00982029 -1.96558e-06 -1.65156e-30)
(0.00982193 -1.8068e-06 0)
(0.00982344 -1.65973e-06 0)
(0.00982484 -1.5236e-06 0)
(0.00982614 -1.39768e-06 2.10311e-30)
(0.00982734 -1.28128e-06 -3.9779e-31)
(0.00982845 -1.17374e-06 0)
(0.00982947 -1.07445e-06 1.74544e-30)
(0.00983042 -9.82837e-07 1.75509e-30)
(0.0098313 -8.98353e-07 0)
(0.0098321 -8.20486e-07 -8.43676e-31)
(0.00983284 -7.48755e-07 3.5595e-30)
(0.00983353 -6.82704e-07 8.58059e-31)
(0.00983416 -6.21908e-07 -4.45063e-30)
(0.00983473 -5.6596e-07 0)
(0.00983526 -5.14481e-07 0)
(0.00983575 -4.67108e-07 0)
(0.0098362 -4.23497e-07 8.85117e-31)
(0.0098366 -3.83319e-07 4.5258e-30)
(0.00983697 -3.46258e-07 3.64429e-30)
(0.00983731 -3.12008e-07 8.96746e-31)
(0.00983762 -2.80267e-07 4.55823e-30)
(0.0098379 -2.50737e-07 -9.03138e-31)
(0.00983815 -2.23118e-07 0)
(0.00983837 -1.97102e-07 0)
(0.00983857 -1.72364e-07 -4.59216e-30)
(0.00983874 -1.48561e-07 0)
(0.00983889 -1.25313e-07 0)
(0.00983902 -1.02197e-07 3.69554e-30)
(0.00983912 -7.87288e-08 0)
(0.0098392 -5.43452e-08 4.62906e-30)
(0.00983924 -2.83774e-08 9.26255e-31)
(0.00983926 -2.07848e-11 0)
(0.00983924 3.17053e-08 4.65578e-30)
(0.00983919 6.80084e-08 0)
(0.00983908 1.10389e-07 0)
(0.00983892 1.60727e-07 9.45779e-31)
(0.0098387 2.21389e-07 3.76233e-30)
(0.00983838 2.95375e-07 9.59652e-31)
(0.00983797 3.86509e-07 0)
(0.00983743 4.99689e-07 0)
(0.00983672 6.41219e-07 4.84365e-30)
(0.0098358 8.19262e-07 0)
(0.00983463 1.04445e-06 4.96775e-30)
(0.00983311 1.33075e-06 0)
(0.00983116 1.6966e-06 0)
(0.00982865 2.16666e-06 0)
(0.00982541 2.77424e-06 -1.21473e-30)
(0.00982121 3.56504e-06 0)
(0.00981575 4.60285e-06 1.40289e-30)
(0.00980861 5.97876e-06 0)
(0.00979922 7.82659e-06 0)
(0.00978675 1.03501e-05 5.83727e-30)
(0.00976999 1.3874e-05 -6.55967e-30)
(0.00974714 1.89483e-05 0)
(0.00971527 2.65808e-05 0)
(0.00966947 3.8828e-05 0)
(0.00960065 6.0557e-05 1.79628e-29)
(0.00949129 0.000105883 0)
(0.00931876 0.000227986 -1.01333e-28)
(0.000100017 -0.00105948 5.47617e-29)
(0.000300855 -0.00105796 -7.15982e-33)
(0.000502935 -0.00105537 0)
(0.00070605 -0.0010517 1.67259e-32)
(0.000909984 -0.00104694 0)
(0.00111452 -0.00104108 0)
(0.00131943 -0.00103413 -5.33076e-29)
(0.00152448 -0.00102611 -2.64523e-29)
(0.00172945 -0.00101702 2.61668e-29)
(0.0019341 -0.00100689 -2.59362e-29)
(0.0021382 -0.000995751 0)
(0.00234152 -0.00098363 0)
(0.00254383 -0.000970567 -2.49083e-29)
(0.0027449 -0.000956605 -4.90663e-29)
(0.00294452 -0.000941792 4.82722e-29)
(0.00314248 -0.000926179 0)
(0.00333856 -0.00090982 4.65635e-29)
(0.00353258 -0.000892773 2.29108e-29)
(0.00372433 -0.000875097 0)
(0.00391365 -0.000856853 4.37437e-29)
(0.00410037 -0.000838105 -2.14708e-29)
(0.00428433 -0.000818913 -4.17298e-29)
(0.00446538 -0.000799342 2.04516e-29)
(0.0046434 -0.000779454 0)
(0.00481825 -0.00075931 3.85727e-29)
(0.00498983 -0.00073897 3.74969e-29)
(0.00515805 -0.000718492 0)
(0.0053228 -0.000697933 3.53281e-29)
(0.00548403 -0.000677345 0)
(0.00564166 -0.000656781 3.31555e-29)
(0.00579565 -0.000636288 -1.6174e-29)
(0.00594595 -0.000615911 0)
(0.00609253 -0.000595693 0)
(0.00623536 -0.000575673 0)
(0.00637444 -0.000555886 0)
(0.00650977 -0.000536366 0)
(0.00664133 -0.000517142 0)
(0.00676916 -0.000498241 2.47995e-29)
(0.00689326 -0.000479687 -1.17486e-29)
(0.00701366 -0.0004615 0)
(0.0071304 -0.000443698 0)
(0.00724351 -0.000426297 0)
(0.00735303 -0.00040931 -4.05855e-29)
(0.00745901 -0.000392747 -1.96001e-29)
(0.0075615 -0.000376618 -3.57085e-31)
(0.00766056 -0.000360928 3.61758e-31)
(0.00775624 -0.000345683 -1.67726e-29)
(0.00784861 -0.000330885 -1.63651e-29)
(0.00793772 -0.000316535 3.08548e-29)
(0.00802366 -0.000302633 1.45091e-29)
(0.00810647 -0.000289179 0)
(0.00818624 -0.000276168 1.31179e-29)
(0.00826303 -0.000263597 2.53044e-29)
(0.00833692 -0.000251462 0)
(0.00840797 -0.000239757 0)
(0.00847627 -0.000228475 -1.06111e-29)
(0.00854188 -0.000217609 0)
(0.00860488 -0.000207152 0)
(0.00866533 -0.000197096 2.72954e-29)
(0.00872332 -0.000187431 1.69085e-29)
(0.00877892 -0.00017815 8.38107e-30)
(0.0088322 -0.000169242 0)
(0.00888322 -0.000160699 -7.46904e-30)
(0.00893207 -0.000152511 0)
(0.00897881 -0.000144667 1.90455e-29)
(0.00902351 -0.000137158 -6.23876e-30)
(0.00906624 -0.000129975 -1.08705e-29)
(0.00910707 -0.000123106 -1.56531e-29)
(0.00914606 -0.000116543 0)
(0.00918327 -0.000110275 8.80041e-30)
(0.00921878 -0.000104292 0)
(0.00925263 -9.85856e-05 3.34916e-30)
(0.0092849 -9.31449e-05 7.0004e-30)