/*--------------------------------*- C++ -*----------------------------------*\
  =========                 |
  \\      /  F ield         | OpenFOAM: The Open Source CFD Toolbox
   \\    /   O peration     | Website:  https://openfoam.org
    \\  /    A nd           | Version:  10
     \\/     M anipulation  |
\*---------------------------------------------------------------------------*/
FoamFile
{
    format      ascii;
    class       volVectorField;
    location    "0.44";
    object      Ub;
}
// * * * * * * * * * * * * * * * * * * * * * * * * * * * * * * * * * * * * * //

dimensions      [0 1 -1 0 0 0 0];

internalField   nonuniform List<vector> 
12225
(
(0.00189251 -0.000391014 0)
(0.00538572 -0.000345787 0)
(0.00822446 -0.000280708 0)
(0.0103625 -0.000215242 0)
(0.01189 -0.000159396 0)
(0.0129434 -0.000115994 0)
(0.0136541 -8.42354e-05 0)
(0.0141294 -6.21073e-05 0)
(0.014451 -4.75735e-05 0)
(0.0146789 -3.90293e-05 0)
(0.0148579 -3.5438e-05 0)
(0.0150231 -3.64056e-05 0)
(0.0152056 -4.23896e-05 0)
(0.0154392 -5.53781e-05 0)
(0.0157737 -8.11497e-05 0)
(0.0163128 -0.000137927 0)
(0.0173701 -0.000299163 0)
(0.0203788 -0.000978635 0)
(0.00211609 -0.00124576 0)
(0.00601817 -0.00110012 0)
(0.00918414 -0.000891628 0)
(0.0115689 -0.000682646 0)
(0.0132779 -0.000504856 0)
(0.0144649 -0.000366908 0)
(0.0152752 -0.000265982 0)
(0.0158256 -0.000195497 0)
(0.0162033 -0.000148854 0)
(0.016471 -0.000120847 0)
(0.0166742 -0.000108056 0)
(0.0168466 -0.000109041 0)
(0.0170162 -0.000124912 0)
(0.0172115 -0.000161232 0)
(0.0174717 -0.000234154 0)
(0.0178679 -0.000392142 0)
(0.0185395 -0.000807108 0)
(0.0194445 -0.00223075 0)
(0.00224259 -0.00223544 0)
(0.00636507 -0.00196886 0)
(0.00968417 -0.00159031 0)
(0.0121606 -0.00121327 0)
(0.0139172 -0.000894124 0)
(0.0151235 -0.000647383 0)
(0.0159359 -0.000467162 0)
(0.0164778 -0.000341139 0)
(0.0168399 -0.000257178 0)
(0.0170864 -0.000205741 0)
(0.0172629 -0.000180484 0)
(0.0174029 -0.000178467 0)
(0.0175329 -0.000200931 0)
(0.0176775 -0.000255962 0)
(0.0178639 -0.000366616 0)
(0.0181227 -0.000595805 0)
(0.0184369 -0.00112442 0)
(0.018336 -0.00245553 0)
(0.00236476 -0.00335518 0)
(0.00669312 -0.00294368 0)
(0.0101405 -0.0023655 0)
(0.0126782 -0.00179471 0)
(0.014452 -0.00131513 0)
(0.0156509 -0.000946447 0)
(0.0164437 -0.000678153 0)
(0.0169604 -0.000490737 0)
(0.0172946 -0.000365466 0)
(0.0175116 -0.000287742 0)
(0.0176569 -0.000247793 0)
(0.0177629 -0.000240739 0)
(0.0178538 -0.000267294 0)
(0.0179487 -0.000336473 0)
(0.0180612 -0.000473166 0)
(0.018185 -0.000736998 0)
(0.01822 -0.00125973 0)
(0.0177012 -0.002241 0)
(0.00250115 -0.00462159 0)
(0.00705286 -0.004034 0)
(0.0106259 -0.00321935 0)
(0.0132092 -0.00242456 0)
(0.0149799 -0.00176341 0)
(0.0161521 -0.00125916 0)
(0.016909 -0.00089428 0)
(0.0173877 -0.000640185 0)
(0.0176845 -0.000470239 0)
(0.0178651 -0.000363952 0)
(0.0179745 -0.000307534 0)
(0.0180432 -0.000293606 0)
(0.0180925 -0.000321489 0)
(0.0181356 -0.000399146 0)
(0.0181739 -0.000548204 0)
(0.0181778 -0.000812599 0)
(0.0180272 -0.00125946 0)
(0.0173875 -0.00189102 0)
(0.00266422 -0.0060614 0)
(0.0074759 -0.00525526 0)
(0.0111808 -0.00415641 0)
(0.0137963 -0.00310075 0)
(0.0155435 -0.00223399 0)
(0.0166688 -0.00157979 0)
(0.0173728 -0.00111009 0)
(0.0178001 -0.000784646 0)
(0.0180494 -0.000567314 0)
(0.0181863 -0.000430725 0)
(0.018254 -0.000356407 0)
(0.0182813 -0.000333848 0)
(0.0182857 -0.000360017 0)
(0.0182754 -0.000439956 0)
(0.018243 -0.000588357 0)
(0.0181503 -0.000828937 0)
(0.0178935 -0.00117577 0)
(0.0172667 -0.00154414 0)
(0.00286753 -0.00771284 0)
(0.0079945 -0.00662838 0)
(0.0118425 -0.00518177 0)
(0.0144742 -0.00381945 0)
(0.0161732 -0.00271954 0)
(0.0172275 -0.00190043 0)
(0.0178587 -0.0013183 0)
(0.0182194 -0.000917793 0)
(0.0184097 -0.000651279 0)
(0.0184942 -0.000483374 0)
(0.018514 -0.000390201 0)
(0.018495 -0.000357475 0)
(0.0184515 -0.000378946 0)
(0.0183872 -0.000455382 0)
(0.0182908 -0.000593027 0)
(0.018126 -0.000797328 0)
(0.0178179 -0.00105025 0)
(0.017251 -0.00125079 0)
(0.00312899 -0.00963015 0)
(0.00864932 -0.0081804 0)
(0.0126536 -0.00629958 0)
(0.0152786 -0.00457312 0)
(0.0168964 -0.00320873 0)
(0.0178494 -0.00220975 0)
(0.0183837 -0.00150892 0)
(0.0186597 -0.00103124 0)
(0.0187778 -0.000715137 0)
(0.0188003 -0.000515962 0)
(0.0187651 -0.000403725 0)
(0.0186948 -0.000359806 0)
(0.0186005 -0.000374128 0)
(0.018483 -0.000442607 0)
(0.0183304 -0.000563515 0)
(0.018114 -0.00072943 0)
(0.0177858 -0.000909203 0)
(0.017283 -0.00101826 0)
(0.00347472 -0.0118915 0)
(0.00949691 -0.00994552 0)
(0.013669 -0.00751052 0)
(0.0162509 -0.00534765 0)
(0.0177418 -0.003684 0)
(0.0185542 -0.00249152 0)
(0.0189618 -0.00166838 0)
(0.0191316 -0.00111396 0)
(0.0191623 -0.000749933 0)
(0.0191119 -0.000521091 0)
(0.0190141 -0.000390714 0)
(0.0188874 -0.000335479 0)
(0.0187399 -0.000341249 0)
(0.0185706 -0.000399281 0)
(0.0183688 -0.000501652 0)
(0.0181145 -0.000634058 0)
(0.0177794 -0.000764801 0)
(0.0173258 -0.000834605 0)
(0.00394518 -0.0146127 0)
(0.0106208 -0.0119656 0)
(0.0149627 -0.00880717 0)
(0.0174415 -0.00611778 0)
(0.0187404 -0.00411847 0)
(0.0193606 -0.00272273 0)
(0.0196048 -0.00177835 0)
(0.0196431 -0.00115165 0)
(0.0195691 -0.000744404 0)
(0.0194339 -0.000489709 0)
(0.0192653 -0.000343744 0)
(0.0190772 -0.000278413 0)
(0.0188742 -0.000275718 0)
(0.0186541 -0.000323036 0)
(0.0184084 -0.000408505 0)
(0.0181235 -0.000515691 0)
(0.0177827 -0.000618438 0)
(0.0173566 -0.000680161 0)
(0.00460657 -0.0179719 0)
(0.0121502 -0.0142885 0)
(0.016638 -0.0101647 0)
(0.0189128 -0.0068395 0)
(0.0199256 -0.00447129 0)
(0.0202856 -0.00287106 0)
(0.0203212 -0.0018145 0)
(0.0201987 -0.00112607 0)
(0.0200009 -0.000684668 0)
(0.0197685 -0.000410979 0)
(0.0195209 -0.000254187 0)
(0.0192662 -0.000181768 0)
(0.0190056 -0.000172497 0)
(0.0187355 -0.000210995 0)
(0.0184486 -0.000283531 0)
(0.0181355 -0.000374418 0)
(0.0177838 -0.000464386 0)
(0.0173633 -0.000532917 0)
(0.00550597 -0.021844 0)
(0.0141477 -0.0167261 0)
(0.0186971 -0.0114204 0)
(0.0206272 -0.00740377 0)
(0.0212494 -0.00467785 0)
(0.0212857 -0.00290117 0)
(0.0210766 -0.00175916 0)
(0.0207732 -0.00102997 0)
(0.0204404 -0.000569599 0)
(0.0201045 -0.00028749 0)
(0.019775 -0.000127113 0)
(0.0194534 -5.26108e-05 0)
(0.0191367 -4.04424e-05 0)
(0.0188192 -7.38613e-05 0)
(0.0184938 -0.00013894 0)
(0.0181528 -0.00022169 0)
(0.0177838 -0.000308077 0)
(0.0173524 -0.000386335 0)
(0.00675929 -0.0268487 0)
(0.0167988 -0.019442 0)
(0.0212292 -0.0125506 0)
(0.0225987 -0.00774882 0)
(0.0226904 -0.00468208 0)
(0.0223264 -0.00276941 0)
(0.0218334 -0.00157889 0)
(0.0213298 -0.000837081 0)
(0.0208527 -0.000377777 0)
(0.0204099 -0.000101371 0)
(0.0199985 5.27466e-05 0)
(0.0196112 0.000122898 0)
(0.0192397 0.000133085 0)
(0.0188767 0.00010008 0)
(0.018515 3.71024e-05 0)
(0.0181463 -4.37734e-05 0)
(0.0177571 -0.00013171 0)
(0.0173083 -0.000218048 0)
(0.00901531 -0.0347182 0)
(0.0212675 -0.0227939 0)
(0.0250718 -0.0134604 0)
(0.0253498 -0.00771057 0)
(0.0245803 -0.00434188 0)
(0.0236317 -0.00236493 0)
(0.0227525 -0.00118722 0)
(0.0219896 -0.000478008 0)
(0.021334 -5.24719e-05 0)
(0.0207637 0.000196146 0)
(0.0202548 0.000329846 0)
(0.0197892 0.00038578 0)
(0.019354 0.000386546 0)
(0.0189387 0.00034761 0)
(0.0185349 0.000280639 0)
(0.0181334 0.000195466 0)
(0.0177192 0.000100927 0)
(0.0172502 5.78755e-06 0)
(0.0136189 -0.0485493 0)
(0.0295487 -0.0262201 0)
(0.0310973 -0.0132795 0)
(0.0291619 -0.00669716 0)
(0.0269847 -0.00329769 0)
(0.0251998 -0.00146684 0)
(0.0238165 -0.000442766 0)
(0.0227399 0.000141083 0)
(0.0218769 0.000476047 0)
(0.0211564 0.000660748 0)
(0.0205339 0.000749988 0)
(0.0199795 0.000774739 0)
(0.0194724 0.000753761 0)
(0.0189979 0.000699107 0)
(0.018545 0.000619177 0)
(0.0181039 0.000520522 0)
(0.0176599 0.000409239 0)
(0.0171738 0.000293039 0)
(0.0248084 -0.0773919 0)
(0.0470063 -0.0256546 0)
(0.0405694 -0.00944654 0)
(0.0341033 -0.00347689 0)
(0.0297545 -0.000953787 0)
(0.0269005 0.000237576 0)
(0.024943 0.00084048 0)
(0.0235185 0.00114815 0)
(0.0224239 0.00130112 0)
(0.0215427 0.00136389 0)
(0.0208023 0.00137031 0)
(0.0201561 0.00133861 0)
(0.0195738 0.00127868 0)
(0.0190349 0.00119587 0)
(0.018525 0.00109288 0)
(0.0180326 0.000970536 0)
(0.0175432 0.000827846 0)
(0.0170213 0.00066152 0)
(0.0594733 0.00256752 0)
(0.0910868 0.00482219 0)
(0.0533507 0.00430056 0)
(0.0390297 0.00377014 0)
(0.0321786 0.00337073 0)
(0.0282921 0.00307437 0)
(0.0258168 0.00284705 0)
(0.0241017 0.00266173 0)
(0.0228286 0.00250514 0)
(0.0218258 0.00236843 0)
(0.0209942 0.00224453 0)
(0.0202733 0.00212721 0)
(0.0196245 0.00201091 0)
(0.0190221 0.00189057 0)
(0.0184468 0.00176152 0)
(0.0178805 0.00161916 0)
(0.0172967 0.00145805 0)
(0.0166308 0.00126891 0)
(0.0204742 0.078021 0)
(0.040492 0.0336781 0)
(0.0373878 0.0181313 0)
(0.032604 0.0114897 0)
(0.0289689 0.00817075 0)
(0.0264183 0.00630685 0)
(0.0246023 0.0051682 0)
(0.0232552 0.00442809 0)
(0.0222054 0.00392382 0)
(0.0213446 0.00356646 0)
(0.0206036 0.00330313 0)
(0.0199376 0.00309984 0)
(0.0193168 0.00293318 0)
(0.0187207 0.00278606 0)
(0.0181334 0.00264546 0)
(0.0175396 0.00250096 0)
(0.0169133 0.00234301 0)
(0.0161727 0.00215525 0)
(0.00786761 0.0421849 0)
(0.0188323 0.0295014 0)
(0.0227457 0.0201956 0)
(0.0235353 0.0143289 0)
(0.023224 0.010671 0)
(0.0226052 0.00834097 0)
(0.0219519 0.00681737 0)
(0.0213405 0.00579909 0)
(0.0207792 0.00510837 0)
(0.0202547 0.00463603 0)
(0.0197497 0.00431165 0)
(0.0192484 0.00408731 0)
(0.0187377 0.0039286 0)
(0.0182064 0.00380941 0)
(0.0176437 0.00370825 0)
(0.0170336 0.00360422 0)
(0.0163347 0.00346775 0)
(0.0153036 0.00320568 0)
(0.00434788 0.0260914 0)
(0.011421 0.0217396 0)
(0.0156189 0.0171412 0)
(0.0178291 0.0134085 0)
(0.0189118 0.0106398 0)
(0.0193977 0.00865783 0)
(0.0195711 0.00726218 0)
(0.0195736 0.00629193 0)
(0.0194724 0.00562954 0)
(0.0192971 0.00519087 0)
(0.0190583 0.00491483 0)
(0.0187579 0.00475551 0)
(0.0183932 0.00467711 0)
(0.017958 0.00465103 0)
(0.0174375 0.00465355 0)
(0.0167929 0.00465896 0)
(0.0158771 0.0045928 0)
(0.0122858 0.0036596 0)
(0.00303943 0.0186097 0)
(0.00834495 0.0164855 0)
(0.0121313 0.0138585 0)
(0.0146277 0.0114381 0)
(0.0162229 0.00946424 0)
(0.0172347 0.00795294 0)
(0.0178748 0.00684283 0)
(0.0182717 0.00605861 0)
(0.0184991 0.00553288 0)
(0.0185961 0.00521044 0)
(0.0185814 0.00504625 0)
(0.0184621 0.00500192 0)
(0.0182399 0.00504251 0)
(0.0179137 0.00513529 0)
(0.0174726 0.00525141 0)
(0.0168393 0.00536508 0)
(0.0152038 0.00524438 0)
(0.0069839 0.0017761 0)
(0.00239249 0.0138242 0)
(0.0067258 0.0126241 0)
(0.0101195 0.0110099 0)
(0.0126211 0.00940618 0)
(0.0144191 0.00801807 0)
(0.0157063 0.00690974 0)
(0.016633 0.00607753 0)
(0.0173028 0.00549286 0)
(0.0177812 0.00512225 0)
(0.0181053 0.00493445 0)
(0.0182914 0.00490086 0)
(0.0183415 0.00499221 0)
(0.0182493 0.00517258 0)
(0.01801 0.00538884 0)
(0.017635 0.00554095 0)
(0.0170695 0.00533205 0)
(0.00894412 0.00303542 0)
(0.000582885 7.05773e-07 0)
(0.00202602 0.0104342 0)
(0.00577367 0.00969391 0)
(0.00886853 0.00864854 0)
(0.011303 0.00756075 0)
(0.0131763 0.00658365 0)
(0.0146121 0.00578437 0)
(0.0157197 0.00518075 0)
(0.0165821 0.00476817 0)
(0.0172563 0.00453493 0)
(0.0177748 0.00446897 0)
(0.0181486 0.00455899 0)
(0.0183667 0.00479102 0)
(0.0183917 0.00514132 0)
(0.0181325 0.00556945 0)
(0.0172847 0.00601957 0)
(0.0136637 0.00586416 0)
(0.00533799 0.000336418 0)
(1.04284e-06 1.40686e-14 0)
(0.00179679 0.0078787 0)
(0.0051636 0.00739873 0)
(0.00803644 0.00669968 0)
(0.010391 0.00595073 0)
(0.0122839 0.00526252 0)
(0.0138004 0.00469271 0)
(0.0150243 0.0042651 0)
(0.016025 0.00398678 0)
(0.0168537 0.00385952 0)
(0.0175419 0.00388611 0)
(0.0180997 0.00407244 0)
(0.0185123 0.0044241 0)
(0.0187422 0.00493077 0)
(0.0187771 0.0055069 0)
(0.0187135 0.00571991 0)
(0.00948884 0.00344082 0)
(0.00014957 3.64212e-09 0)
(2.81091e-15 -2.45837e-32 0)
(0.00164144 0.00587585 0)
(0.00474297 0.0055575 0)
(0.00744649 0.00508386 0)
(0.00972347 0.0045668 0)
(0.0116091 0.00408523 0)
(0.0131666 0.0036849 0)
(0.014464 0.00338894 0)
(0.0155625 0.00320917 0)
(0.0165113 0.00315482 0)
(0.0173444 0.00323878 0)
(0.0180755 0.00348181 0)
(0.0186826 0.0039141 0)
(0.0190552 0.00456961 0)
(0.0187786 0.00543537 0)
(0.0156411 0.00573494 0)
(0.00644447 9.66565e-05 0)
(1.44619e-06 -3.8098e-25 0)
(3.10029e-24 -2.83677e-32 0)
(0.00152797 0.0042669 0)
(0.00443141 0.00405601 0)
(0.00699901 0.00373724 0)
(0.00920235 0.00338496 0)
(0.0110651 0.00305445 0)
(0.0126375 0.00278009 0)
(0.0139777 0.00258153 0)
(0.0151421 0.00247124 0)
(0.0161796 0.0024613 0)
(0.01713 0.00256944 0)
(0.0180196 0.00282525 0)
(0.0188529 0.00327746 0)
(0.0195911 0.00400433 0)
(0.0199834 0.00511316 0)
(0.0115963 0.00471583 0)
(0.00157699 2.87206e-08 0)
(2.63808e-10 -1.39293e-32 0)
(1.4278e-31 -2.40872e-32 0)
(0.00143776 0.00295464 0)
(0.00418052 0.00281898 0)
(0.00663053 0.00261126 0)
(0.00876078 0.00237989 0)
(0.0105886 0.00216218 0)
(0.0121562 0.0019825 0)
(0.0135152 0.00185594 0)
(0.0147184 0.00179333 0)
(0.0158157 0.00180632 0)
(0.0168522 0.00191265 0)
(0.0178667 0.00214251 0)
(0.018886 0.00254486 0)
(0.0199271 0.00316922 0)
(0.0209193 0.00381796 0)
(0.0107313 0.00150471 0)
(3.9491e-05 -1.8943e-19 0)
(7.05069e-18 -2.50773e-32 0)
(1.46343e-31 -1.94925e-32 0)
(0.00135683 0.0018762 0)
(0.00395254 0.00179518 0)
(0.00628803 0.00166968 0)
(0.0083382 0.00152923 0)
(0.0101168 0.00139718 0)
(0.0116606 0.00128936 0)
(0.0130168 0.00121614 0)
(0.0142354 0.0011856 0)
(0.0153661 0.00120695 0)
(0.0164579 0.00129466 0)
(0.0175579 0.00147439 0)
(0.0186944 0.00179211 0)
(0.0197487 0.00230327 0)
(0.0193396 0.00267537 0)
(0.00923232 2.05312e-05 0)
(4.88736e-06 -8.5869e-23 0)
(6.26895e-22 -2.04858e-32 0)
(1.50015e-31 -1.44322e-32 0)
(0.0012644 0.00099159 0)
(0.00368881 0.00095102 0)
(0.00588284 0.000887384 0)
(0.00782383 0.000816021 0)
(0.00952361 0.000749296 0)
(0.0110153 0.000695852 0)
(0.0123425 0.000661654 0)
(0.0135524 0.00065167 0)
(0.0146937 0.000671815 0)
(0.0158164 0.000731492 0)
(0.0169743 0.000848326 0)
(0.0182149 0.00106251 0)
(0.0194005 0.00150168 0)
(0.0174168 0.00245836 0)
(0.00744774 5.88793e-07 0)
(1.03958e-06 -2.5759e-26 0)
(1.58955e-25 -1.35498e-32 0)
(1.52836e-31 -8.79506e-33 0)
(0.00101347 0.000296962 0)
(0.00295979 0.000285289 0)
(0.00472697 0.000266771 0)
(0.00629732 0.000246 0)
(0.00768387 0.000226736 0)
(0.00891971 0.000211665 0)
(0.010049 0.000202724 0)
(0.0111213 0.000201613 0)
(0.0121899 0.000210416 0)
(0.0133119 0.00023243 0)
(0.0145507 0.000274 0)
(0.0159809 0.000352191 0)
(0.0176381 0.000549236 0)
(0.0126001 0.00125173 0)
(0.00333901 8.57207e-09 0)
(3.05693e-08 7.65443e-35 0)
(1.9344e-31 -4.85075e-33 0)
(1.5431e-31 -3.01537e-33 0)
(5.6077e-34 -1.36026e-33 -1.75744e-59)
(1.68687e-33 -1.35858e-33 1.75393e-59)
(2.82004e-33 -1.3557e-33 0)
(3.95919e-33 -1.35161e-33 0)
(5.10318e-33 -1.3463e-33 0)
(6.25082e-33 -1.33978e-33 -1.72425e-59)
(7.40091e-33 -1.33205e-33 0)
(8.55224e-33 -1.32311e-33 0)
(9.70354e-33 -1.31298e-33 0)
(1.08536e-32 -1.30169e-33 0)
(1.20011e-32 -1.28926e-33 1.65217e-59)
(1.31448e-32 -1.27574e-33 0)
(1.42835e-32 -1.26116e-33 0)
(1.54159e-32 -1.24556e-33 0)
(1.65409e-32 -1.229e-33 0)
(1.76572e-32 -1.21154e-33 1.54504e-59)
(1.87637e-32 -1.19324e-33 0)
(1.98594e-32 -1.17415e-33 0)
(2.0943e-32 -1.15434e-33 0)
(2.20137e-32 -1.13388e-33 0)
(2.30705e-32 -1.11284e-33 0)
(2.41124e-32 -1.09129e-33 0)
(2.51386e-32 -1.06929e-33 0)
(2.61483e-32 -1.04693e-33 1.32225e-59)
(2.71408e-32 -1.02425e-33 -1.29178e-59)
(2.81155e-32 -1.00135e-33 1.26102e-59)
(2.90717e-32 -9.78268e-34 1.23006e-59)
(3.0009e-32 -9.55082e-34 0)
(3.09268e-32 -9.31848e-34 0)
(3.18247e-32 -9.08625e-34 -1.1368e-59)
(3.27024e-32 -8.85468e-34 -1.10584e-59)
(3.35596e-32 -8.62429e-34 0)
(3.43961e-32 -8.39557e-34 0)
(3.52117e-32 -8.16895e-34 -1.01425e-59)
(3.60063e-32 -7.94486e-34 0)
(3.67799e-32 -7.72367e-34 0)
(3.75323e-32 -7.50573e-34 9.25787e-60)
(3.82637e-32 -7.29135e-34 0)
(3.89741e-32 -7.08081e-34 8.69165e-60)
(3.96637e-32 -6.87436e-34 1.68334e-59)
(4.03325e-32 -6.67219e-34 0)
(4.09808e-32 -6.47451e-34 0)
(4.16087e-32 -6.28146e-34 0)
(4.22165e-32 -6.09318e-34 0)
(4.28046e-32 -5.90976e-34 0)
(4.3373e-32 -5.7313e-34 1.3791e-59)
(4.39223e-32 -5.55784e-34 1.33297e-59)
(4.44527e-32 -5.38942e-34 1.28818e-59)
(4.49645e-32 -5.22607e-34 0)
(4.54582e-32 -5.06779e-34 -1.20267e-59)
(4.5934e-32 -4.91456e-34 0)
(4.63925e-32 -4.76637e-34 1.12255e-59)
(4.68339e-32 -4.62316e-34 1.08449e-59)
(4.72587e-32 -4.48489e-34 0)
(4.76672e-32 -4.3515e-34 0)
(4.806e-32 -4.22292e-34 0)
(4.84373e-32 -4.09906e-34 9.45227e-60)
(4.87997e-32 -3.97985e-34 0)
(4.91475e-32 -3.8652e-34 0)
(4.94811e-32 -3.755e-34 0)
(4.9801e-32 -3.64916e-34 0)
(5.01076e-32 -3.54758e-34 0)
(5.04013e-32 -3.45014e-34 0)
(5.06824e-32 -3.35674e-34 0)
(5.09514e-32 -3.26727e-34 0)
(5.12087e-32 -3.18162e-34 -7.01528e-60)
(5.14547e-32 -3.09967e-34 0)
(5.16897e-32 -3.02131e-34 0)
(5.19142e-32 -2.94642e-34 6.39068e-60)
(5.21284e-32 -2.87491e-34 6.20073e-60)
(5.23328e-32 -2.80665e-34 0)
(5.25277e-32 -2.74153e-34 -5.84655e-60)
(5.27135e-32 -2.67945e-34 5.68167e-60)
(5.28905e-32 -2.62029e-34 0)
(5.30591e-32 -2.56395e-34 -5.37496e-60)
(5.32195e-32 -2.51033e-34 0)
(5.33721e-32 -2.45932e-34 0)
(5.35171e-32 -2.41083e-34 4.96835e-60)
(5.3655e-32 -2.36475e-34 0)
(5.3786e-32 -2.32098e-34 -4.72975e-60)
(5.39103e-32 -2.27944e-34 0)
(5.40283e-32 -2.24004e-34 4.51477e-60)
(5.41402e-32 -2.20267e-34 4.41556e-60)
(5.42463e-32 -2.16726e-34 4.32153e-60)
(5.43468e-32 -2.13373e-34 8.46495e-60)
(5.4442e-32 -2.10199e-34 -8.29632e-60)
(5.4532e-32 -2.07195e-34 0)
(5.46173e-32 -2.04356e-34 0)
(5.46979e-32 -2.01672e-34 0)
(5.4774e-32 -1.99137e-34 -7.7088e-60)
(5.4846e-32 -1.96744e-34 -7.58168e-60)
(5.49139e-32 -1.94486e-34 7.46176e-60)
(5.49779e-32 -1.92357e-34 0)
(5.50384e-32 -1.90351e-34 -7.24209e-60)
(5.50953e-32 -1.88461e-34 -7.14167e-60)
(5.5149e-32 -1.86682e-34 -7.04716e-60)
(5.51995e-32 -1.85008e-34 0)
(5.52471e-32 -1.83434e-34 0)
(5.52918e-32 -1.81955e-34 0)
(5.53338e-32 -1.80565e-34 -6.7222e-60)
(5.53733e-32 -1.79261e-34 0)
(5.54104e-32 -1.78037e-34 0)
(5.54452e-32 -1.7689e-34 6.52694e-60)
(5.54779e-32 -1.75814e-34 0)
(5.55085e-32 -1.74807e-34 0)
(5.55371e-32 -1.73865e-34 6.3662e-60)
(5.5564e-32 -1.72983e-34 0)
(5.55891e-32 -1.72158e-34 0)
(5.56126e-32 -1.71388e-34 -6.23462e-60)
(5.56345e-32 -1.70669e-34 -6.1964e-60)
(5.5655e-32 -1.69998e-34 0)
(5.56742e-32 -1.69372e-34 6.12745e-60)
(5.5692e-32 -1.68788e-34 0)
(5.57087e-32 -1.68245e-34 -6.06757e-60)
(5.57242e-32 -1.67739e-34 0)
(5.57387e-32 -1.67268e-34 -6.01565e-60)
(5.57521e-32 -1.66831e-34 -5.99242e-60)
(5.57646e-32 -1.66424e-34 0)
(5.57763e-32 -1.66046e-34 0)
(5.57871e-32 -1.65696e-34 0)
(5.57971e-32 -1.65371e-34 0)
(5.58064e-32 -1.6507e-34 0)
(5.58151e-32 -1.64791e-34 0)
(5.58231e-32 -1.64533e-34 0)
(5.58305e-32 -1.64294e-34 -5.85755e-60)
(5.58373e-32 -1.64073e-34 5.84584e-60)
(5.58436e-32 -1.63869e-34 0)
(5.58495e-32 -1.63681e-34 0)
(5.58549e-32 -1.63507e-34 0)
(5.58599e-32 -1.63347e-34 0)
(5.58645e-32 -1.63199e-34 1.15987e-59)
(5.58687e-32 -1.63063e-34 0)
(5.58726e-32 -1.62938e-34 -1.15709e-59)
(5.58762e-32 -1.62823e-34 1.15587e-59)
(5.58795e-32 -1.62717e-34 0)
(5.58825e-32 -1.62619e-34 0)
(5.58853e-32 -1.62529e-34 0)
(5.58878e-32 -1.62446e-34 -1.15187e-59)
(5.58902e-32 -1.6237e-34 -1.15106e-59)
(5.58923e-32 -1.623e-34 0)
(5.58942e-32 -1.62235e-34 -1.14962e-59)
(5.5896e-32 -1.62175e-34 -1.14898e-59)
(5.58975e-32 -1.62119e-34 1.14839e-59)
(5.5899e-32 -1.62066e-34 0)
(5.59002e-32 -1.62017e-34 0)
(5.59014e-32 -1.6197e-34 1.14681e-59)
(5.59024e-32 -1.61925e-34 0)
(5.59032e-32 -1.61881e-34 0)
(5.59039e-32 -1.61837e-34 0)
(5.59045e-32 -1.61792e-34 0)
(5.59049e-32 -1.61746e-34 -1.14446e-59)
(5.59052e-32 -1.61697e-34 -1.14395e-59)
(5.59053e-32 -1.61643e-34 0)
(5.59052e-32 -1.61582e-34 -1.14277e-59)
(5.59049e-32 -1.61513e-34 0)
(5.59043e-32 -1.61433e-34 0)
(5.59033e-32 -1.61337e-34 -1.14025e-59)
(5.5902e-32 -1.61222e-34 0)
(5.59002e-32 -1.61081e-34 -1.13763e-59)
(5.58978e-32 -1.60907e-34 0)
(5.58947e-32 -1.60692e-34 0)
(5.58906e-32 -1.60423e-34 -1.13091e-59)
(5.58853e-32 -1.60084e-34 0)
(5.58785e-32 -1.59655e-34 -1.12309e-59)
(5.58698e-32 -1.5911e-34 0)
(5.58585e-32 -1.58413e-34 0)
(5.5844e-32 -1.57518e-34 0)
(5.58253e-32 -1.5636e-34 1.08953e-59)
(5.58011e-32 -1.54853e-34 0)
(5.57695e-32 -1.52875e-34 -1.05401e-59)
(5.57282e-32 -1.5025e-34 0)
(5.56738e-32 -1.46721e-34 0)
(5.56014e-32 -1.41896e-34 0)
(5.5504e-32 -1.35146e-34 0)
(5.53704e-32 -1.25395e-34 0)
(5.51829e-32 -1.10651e-34 0)
(5.49097e-32 -8.67468e-35 0)
(5.44862e-32 -4.33515e-35 -1.32616e-60)
(5.37499e-32 5.26592e-35 0)
(5.2118e-32 3.53709e-34 0)
(5.63256e-34 -3.76282e-33 4.86133e-59)
(1.69433e-33 -3.75772e-33 -4.85073e-59)
(2.83248e-33 -3.74902e-33 0)
(3.97656e-33 -3.73668e-33 9.64029e-59)
(5.12543e-33 -3.72066e-33 0)
(6.27787e-33 -3.70096e-33 -4.77597e-59)
(7.43266e-33 -3.6776e-33 -9.47125e-59)
(8.58855e-33 -3.6506e-33 -9.39601e-59)
(9.74426e-33 -3.62002e-33 0)
(1.08985e-32 -3.58593e-33 -9.21794e-59)
(1.20501e-32 -3.54842e-33 4.572e-59)
(1.31976e-32 -3.5076e-33 0)
(1.43399e-32 -3.46359e-33 0)
(1.54757e-32 -3.41653e-33 0)
(1.66037e-32 -3.36659e-33 0)
(1.77228e-32 -3.31393e-33 4.26223e-59)
(1.88319e-32 -3.25873e-33 0)
(1.99298e-32 -3.20117e-33 8.18072e-59)
(2.10154e-32 -3.14147e-33 0)
(2.20878e-32 -3.07983e-33 0)
(2.31459e-32 -3.01644e-33 -7.68801e-59)
(2.41889e-32 -2.95153e-33 0)
(2.5216e-32 -2.8853e-33 7.33925e-59)
(2.62263e-32 -2.81797e-33 3.61118e-59)
(2.72192e-32 -2.74974e-33 -3.52182e-59)
(2.8194e-32 -2.68081e-33 3.43158e-59)
(2.91501e-32 -2.61138e-33 3.34072e-59)
(3.00869e-32 -2.54164e-33 0)
(3.10042e-32 -2.47178e-33 0)
(3.19013e-32 -2.40196e-33 -3.06681e-59)
(3.27781e-32 -2.33236e-33 -8.85004e-59)
(3.36343e-32 -2.26313e-33 0)
(3.44696e-32 -2.19441e-33 0)
(3.52839e-32 -2.12633e-33 -2.70657e-59)
(3.6077e-32 -2.05903e-33 0)
(3.6849e-32 -1.99261e-33 0)
(3.75999e-32 -1.92718e-33 2.44643e-59)
(3.83296e-32 -1.86282e-33 0)
(3.90383e-32 -1.79963e-33 6.74747e-59)
(3.9726e-32 -1.73767e-33 4.39797e-59)
(4.0393e-32 -1.67701e-33 0)
(4.10394e-32 -1.61769e-33 0)
(4.16654e-32 -1.55978e-33 -7.67039e-59)
(4.22714e-32 -1.5033e-33 -7.37268e-59)
(4.28575e-32 -1.44829e-33 -7.08274e-59)
(4.34241e-32 -1.39477e-33 1.03035e-58)
(4.39715e-32 -1.34275e-33 3.36711e-59)
(4.45001e-32 -1.29225e-33 -3.02519e-59)
(4.50101e-32 -1.24327e-33 6.0025e-59)
(4.55019e-32 -1.19582e-33 -2.98369e-59)
(4.5976e-32 -1.14989e-33 0)
(4.64327e-32 -1.10546e-33 2.74792e-59)
(4.68724e-32 -1.06253e-33 7.68643e-59)
(4.72956e-32 -1.02109e-33 0)
(4.77025e-32 -9.8111e-34 0)
(4.80937e-32 -9.42573e-34 0)
(4.84695e-32 -9.05454e-34 2.22611e-59)
(4.88304e-32 -8.6973e-34 0)
(4.91768e-32 -8.35371e-34 3.85435e-59)
(4.9509e-32 -8.02349e-34 0)
(4.98276e-32 -7.70634e-34 3.51352e-59)
(5.01329e-32 -7.40195e-34 0)
(5.04253e-32 -7.10999e-34 -3.19957e-59)
(5.07053e-32 -6.83014e-34 0)
(5.09731e-32 -6.56206e-34 2.91112e-59)
(5.12293e-32 -6.30543e-34 -4.285e-59)
(5.14742e-32 -6.05989e-34 0)
(5.17082e-32 -5.82512e-34 -2.5232e-59)
(5.19317e-32 -5.60077e-34 1.32516e-59)
(5.2145e-32 -5.38652e-34 1.26927e-59)
(5.23485e-32 -5.18201e-34 0)
(5.25426e-32 -4.98692e-34 -3.24702e-59)
(5.27276e-32 -4.80093e-34 1.11652e-59)
(5.29038e-32 -4.6237e-34 0)
(5.30716e-32 -4.45493e-34 -1.02627e-59)
(5.32313e-32 -4.29429e-34 -1.71739e-59)
(5.33832e-32 -4.14148e-34 0)
(5.35276e-32 -3.9962e-34 9.06619e-60)
(5.36649e-32 -3.85815e-34 0)
(5.37953e-32 -3.72705e-34 5.82395e-60)
(5.39191e-32 -3.60261e-34 0)
(5.40365e-32 -3.48455e-34 -5.18005e-60)
(5.41479e-32 -3.37262e-34 7.43963e-60)
(5.42535e-32 -3.26655e-34 1.89271e-59)
(5.43536e-32 -3.1661e-34 3.62725e-59)
(5.44484e-32 -3.071e-34 -3.47751e-59)
(5.4538e-32 -2.98103e-34 0)
(5.46229e-32 -2.89596e-34 0)
(5.47031e-32 -2.81557e-34 0)
(5.47789e-32 -2.73963e-34 6.40378e-60)
(5.48506e-32 -2.66795e-34 -1.1203e-59)
(5.49182e-32 -2.60032e-34 1.08502e-59)
(5.4982e-32 -2.53654e-34 0)
(5.50421e-32 -2.47644e-34 -2.54135e-59)
(5.50989e-32 -2.41982e-34 -9.90847e-60)
(5.51523e-32 -2.36652e-34 -9.63041e-60)
(5.52026e-32 -2.31638e-34 0)
(5.52499e-32 -2.26922e-34 0)
(5.52944e-32 -2.22491e-34 0)
(5.53363e-32 -2.18328e-34 -8.67439e-60)
(5.53756e-32 -2.14421e-34 0)
(5.54125e-32 -2.10755e-34 -1.13256e-59)
(5.54472e-32 -2.07318e-34 -2.86363e-60)
(5.54797e-32 -2.04096e-34 1.06243e-59)
(5.55102e-32 -2.0108e-34 0)
(5.55387e-32 -1.98256e-34 1.76364e-59)
(5.55654e-32 -1.95614e-34 0)
(5.55904e-32 -1.93145e-34 9.47106e-60)
(5.56138e-32 -1.90837e-34 -1.64681e-59)
(5.56357e-32 -1.88683e-34 -1.61288e-59)
(5.56561e-32 -1.86672e-34 0)
(5.56752e-32 -1.84797e-34 -1.66706e-60)
(5.5693e-32 -1.83049e-34 8.40786e-60)
(5.57095e-32 -1.81421e-34 -6.74871e-60)
(5.5725e-32 -1.79905e-34 0)
(5.57394e-32 -1.78495e-34 -6.59603e-60)
(5.57528e-32 -1.77184e-34 1.26244e-60)
(5.57653e-32 -1.75966e-34 0)
(5.57768e-32 -1.74835e-34 7.54267e-60)
(5.57876e-32 -1.73785e-34 7.43208e-60)
(5.57976e-32 -1.72812e-34 7.32954e-60)
(5.58069e-32 -1.71909e-34 0)
(5.58155e-32 -1.71074e-34 0)
(5.58234e-32 -1.703e-34 0)
(5.58308e-32 -1.69585e-34 -1.31207e-59)
(5.58376e-32 -1.68923e-34 6.09657e-60)
(5.58439e-32 -1.68312e-34 0)
(5.58498e-32 -1.67748e-34 -6.79617e-60)
(5.58551e-32 -1.67228e-34 -6.74131e-60)
(5.58601e-32 -1.66748e-34 0)
(5.58647e-32 -1.66305e-34 1.19199e-59)
(5.58689e-32 -1.65898e-34 -1.32024e-59)
(5.58728e-32 -1.65522e-34 -1.18381e-59)
(5.58764e-32 -1.65177e-34 2.48526e-59)
(5.58796e-32 -1.64859e-34 0)
(5.58827e-32 -1.64567e-34 0)
(5.58854e-32 -1.64297e-34 0)
(5.58879e-32 -1.6405e-34 -1.16844e-59)
(5.58903e-32 -1.63821e-34 -2.44256e-59)
(5.58924e-32 -1.63611e-34 -1.27206e-59)
(5.58943e-32 -1.63416e-34 -1.16183e-59)
(5.5896e-32 -1.63236e-34 -2.42413e-59)
(5.58976e-32 -1.63068e-34 1.1582e-59)
(5.5899e-32 -1.62911e-34 0)
(5.59003e-32 -1.62763e-34 0)
(5.59014e-32 -1.62623e-34 2.40485e-59)
(5.59024e-32 -1.62487e-34 0)
(5.59033e-32 -1.62355e-34 0)
(5.5904e-32 -1.62224e-34 -1.24295e-59)
(5.59046e-32 -1.62091e-34 0)
(5.5905e-32 -1.61952e-34 -2.38388e-59)
(5.59053e-32 -1.61805e-34 -1.14507e-59)
(5.59054e-32 -1.61643e-34 0)
(5.59053e-32 -1.61463e-34 -2.3687e-59)
(5.59049e-32 -1.61257e-34 0)
(5.59044e-32 -1.61016e-34 0)
(5.59034e-32 -1.6073e-34 -1.13397e-59)
(5.59021e-32 -1.60385e-34 -1.20499e-59)
(5.59004e-32 -1.59965e-34 -1.12609e-59)
(5.5898e-32 -1.59447e-34 0)
(5.58949e-32 -1.58804e-34 0)
(5.58909e-32 -1.58e-34 -2.26195e-59)
(5.58857e-32 -1.56988e-34 0)
(5.5879e-32 -1.55709e-34 -2.19144e-59)
(5.58704e-32 -1.54082e-34 0)
(5.58593e-32 -1.52003e-34 0)
(5.58451e-32 -1.49333e-34 0)
(5.58267e-32 -1.4588e-34 9.81158e-60)
(5.58028e-32 -1.41387e-34 0)
(5.57718e-32 -1.35491e-34 -8.74246e-60)
(5.57312e-32 -1.27673e-34 0)
(5.56779e-32 -1.17174e-34 0)
(5.5607e-32 -1.02836e-34 -2.60432e-61)
(5.55118e-32 -8.2813e-35 -3.84417e-60)
(5.53819e-32 -5.39815e-35 0)
(5.52009e-32 -1.06148e-35 0)
(5.49406e-32 5.89721e-35 0)
(5.45496e-32 1.82434e-34 6.86353e-59)
(5.39282e-32 4.3997e-34 0)
(5.29479e-32 1.13374e-33 -5.08906e-58)
(5.68283e-34 -6.18145e-33 3.19505e-58)
(1.70942e-33 -6.17283e-33 -4.06899e-62)
(2.85761e-33 -6.15813e-33 0)
(4.01168e-33 -6.13727e-33 9.50428e-62)
(5.17041e-33 -6.11021e-33 0)
(6.33255e-33 -6.07693e-33 0)
(7.49681e-33 -6.03746e-33 -3.11244e-58)
(8.66191e-33 -5.99186e-33 -1.54477e-58)
(9.82651e-33 -5.94022e-33 1.52855e-58)
(1.09893e-32 -5.88267e-33 -1.51544e-58)
(1.2149e-32 -5.81937e-33 0)
(1.33042e-32 -5.7505e-33 0)
(1.44537e-32 -5.67627e-33 -1.45704e-58)
(1.55962e-32 -5.59694e-33 -2.87145e-58)
(1.67304e-32 -5.51278e-33 2.82633e-58)
(1.78551e-32 -5.42407e-33 0)
(1.89693e-32 -5.33112e-33 2.72924e-58)
(2.00716e-32 -5.23426e-33 1.34354e-58)
(2.11612e-32 -5.13383e-33 0)
(2.22369e-32 -5.03017e-33 2.56903e-58)
(2.32978e-32 -4.92364e-33 -1.26173e-58)
(2.4343e-32 -4.8146e-33 -2.4546e-58)
(2.53717e-32 -4.7034e-33 1.20382e-58)
(2.63832e-32 -4.5904e-33 0)
(2.73767e-32 -4.47594e-33 2.27522e-58)
(2.83516e-32 -4.36037e-33 2.21409e-58)
(2.93073e-32 -4.24402e-33 0)
(3.02434e-32 -4.1272e-33 2.09087e-58)
(3.11595e-32 -4.01023e-33 0)
(3.20552e-32 -3.89338e-33 1.96742e-58)
(3.29301e-32 -3.77694e-33 -9.60766e-59)
(3.37841e-32 -3.66117e-33 0)
(3.46169e-32 -3.54629e-33 0)
(3.54285e-32 -3.43254e-33 0)
(3.62187e-32 -3.32011e-33 0)
(3.69876e-32 -3.2092e-33 0)
(3.77352e-32 -3.09998e-33 0)
(3.84615e-32 -2.99258e-33 1.49264e-58)
(3.91666e-32 -2.88716e-33 -7.09321e-59)
(3.98507e-32 -2.78382e-33 0)
(4.0514e-32 -2.68267e-33 0)
(4.11566e-32 -2.5838e-33 0)
(4.17789e-32 -2.48729e-33 -2.47315e-58)
(4.23811e-32 -2.39318e-33 -1.19722e-58)
(4.29634e-32 -2.30154e-33 -2.02893e-60)
(4.35263e-32 -2.21239e-33 2.05548e-60)
(4.40699e-32 -2.12577e-33 -1.03657e-58)
(4.45947e-32 -2.04169e-33 -1.01341e-58)
(4.51011e-32 -1.96015e-33 1.92027e-58)
(4.55893e-32 -1.88117e-33 9.07957e-59)
(4.60599e-32 -1.80472e-33 0)
(4.65131e-32 -1.73079e-33 8.28906e-59)
(4.69494e-32 -1.65937e-33 1.6049e-58)
(4.73693e-32 -1.59042e-33 0)
(4.7773e-32 -1.52391e-33 0)
(4.8161e-32 -1.45981e-33 -6.86476e-59)
(4.85338e-32 -1.39807e-33 0)
(4.88917e-32 -1.33865e-33 0)
(4.92353e-32 -1.28152e-33 1.80159e-58)
(4.95648e-32 -1.2266e-33 1.12785e-58)
(4.98807e-32 -1.17387e-33 5.59769e-59)
(5.01834e-32 -1.12326e-33 0)
(5.04733e-32 -1.07472e-33 -5.07948e-59)
(5.07508e-32 -1.02819e-33 0)
(5.10164e-32 -9.83622e-34 1.33284e-58)
(5.12704e-32 -9.40959e-34 -4.38045e-59)
(5.15132e-32 -9.00143e-34 -7.8478e-59)
(5.17452e-32 -8.61117e-34 -1.14009e-58)
(5.19667e-32 -8.23825e-34 0)
(5.21781e-32 -7.88211e-34 6.67162e-59)
(5.23798e-32 -7.54219e-34 0)
(5.25722e-32 -7.21794e-34 2.73862e-59)
(5.27556e-32 -6.9088e-34 5.64888e-59)
(5.29302e-32 -6.61425e-34 5.33938e-59)
(5.30965e-32 -6.33374e-34 -5.04462e-59)
(5.32548e-32 -6.06676e-34 2.13058e-59)
(5.34054e-32 -5.81279e-34 0)
(5.35486e-32 -5.57134e-34 0)
(5.36846e-32 -5.34192e-34 -4.00245e-59)
(5.38138e-32 -5.12403e-34 -1.63265e-59)
(5.39365e-32 -4.91722e-34 0)
(5.40529e-32 -4.72103e-34 -1.93025e-59)
(5.41634e-32 -4.53501e-34 0)
(5.4268e-32 -4.35874e-34 -1.22842e-59)
(5.43672e-32 -4.19179e-34 6.10127e-59)
(5.44611e-32 -4.03376e-34 -5.77002e-59)
(5.455e-32 -3.88425e-34 2.47074e-59)
(5.46341e-32 -3.74288e-34 0)
(5.47136e-32 -3.60927e-34 -2.18179e-59)
(5.47888e-32 -3.48308e-34 4.61578e-59)