/*--------------------------------*- C++ -*----------------------------------*\
  =========                 |
  \\      /  F ield         | OpenFOAM: The Open Source CFD Toolbox
   \\    /   O peration     | Website:  https://openfoam.org
    \\  /    A nd           | Version:  10
     \\/     M anipulation  |
\*---------------------------------------------------------------------------*/
FoamFile
{
    format      ascii;
    class       volScalarField;
    location    "0.065";
    object      p;
}
// * * * * * * * * * * * * * * * * * * * * * * * * * * * * * * * * * * * * * //

dimensions      [0 2 -2 0 0 0 0];

internalField   nonuniform List<scalar> 
4000
(
20.9676
20.967
20.9657
20.9636
20.9607
20.957
20.9525
20.9473
20.9413
20.9345
20.927
20.9187
20.9096
20.8997
20.889
20.8775
20.8652
20.852
20.838
20.823
20.8072
20.7903
20.7725
20.7537
20.7339
20.713
20.691
20.6678
20.6436
20.6179
20.5912
20.5629
20.5334
20.5023
20.4698
20.4355
20.3998
20.3621
20.3228
20.2814
20.2382
20.1927
20.1452
20.0953
20.0431
19.9883
19.931
19.8708
19.8079
19.7418
19.6729
19.6004
19.5247
19.4453
19.3624
19.2753
19.1845
19.0893
18.99
18.8859
18.7774
18.6638
18.5455
18.4218
18.2931
18.1587
18.019
17.8734
17.7224
17.5653
17.4026
17.2338
17.0594
16.8789
16.693
16.5013
16.3044
16.1021
15.8952
15.6833
15.4676
15.2476
15.0247
14.7984
14.5702
14.3398
14.1084
13.876
13.6439
13.4119
13.1813
12.9519
12.725
12.5005
12.2794
12.0616
11.8481
11.6386
11.4341
11.2342
11.0399
10.8506
10.6672
10.4891
10.3172
10.1506
9.99023
9.83523
9.68637
9.54276
9.40512
9.27253
9.14567
9.02357
8.9069
8.79467
8.68753
8.58447
8.48613
8.3915
8.30122
8.21426
8.13127
8.05122
7.97477
7.90089
7.83023
7.76176
7.69618
7.63242
7.57121
7.51147
7.45397
7.39758
7.34314
7.28947
7.23747
7.18591
7.13576
7.08574
7.03689
6.98786
6.9398
6.89126
6.84352
6.795
6.74716
6.69827
6.64995
6.60033
6.55122
6.50056
6.45037
6.39839
6.34687
6.29327
6.24014
6.18461
6.12953
6.07165
6.01419
5.95342
5.89298
5.8286
5.76442
5.6955
5.62658
5.55198
5.47715
5.39552
5.31341
5.22326
5.13238
5.03212
4.93092
4.81897
4.70597
4.58086
4.45476
4.31528
4.17502
4.0203
3.86525
3.69488
3.5248
3.3388
3.15389
2.95272
2.75356
2.53808
2.32566
2.09716
1.87286
1.63299
1.39856
1.14924
0.906302
0.651968
0.393635
0.129435
20.9705
20.97
20.9687
20.9665
20.9636
20.9599
20.9555
20.9503
20.9443
20.9376
20.9301
20.9218
20.9127
20.9029
20.8923
20.8808
20.8686
20.8554
20.8415
20.8266
20.8108
20.794
20.7764
20.7577
20.738
20.7172
20.6954
20.6724
20.6483
20.6228
20.5962
20.5682
20.5389
20.508
20.4757
20.4418
20.4063
20.3689
20.3299
20.2888
20.2459
20.2008
20.1536
20.104
20.0522
19.9978
19.9409
19.8811
19.8186
19.753
19.6844
19.6124
19.5372
19.4582
19.3757
19.2892
19.1988
19.104
19.0051
18.9014
18.7932
18.68
18.562
18.4386
18.31
18.1758
18.0362
17.8906
17.7394
17.5821
17.419
17.2497
17.0747
16.8934
16.7066
16.5138
16.3156
16.1119
15.9034
15.6898
15.4722
15.2503
15.0252
14.7968
14.5663
14.3337
14.1001
13.8655
13.6312
13.3971
13.1645
12.9333
12.7047
12.4786
12.2562
12.0371
11.8226
11.6122
11.4071
11.2067
11.012
10.8225
10.639
10.461
10.2892
10.1229
9.96286
9.80837
9.66
9.51705
9.38005
9.24824
9.12213
9.00092
8.88508
8.77381
8.66755
8.56548
8.46803
8.37439
8.28498
8.19898
8.11682
8.03768
7.96201
7.88896
7.81902
7.75134
7.68642
7.6234
7.5628
7.50376
7.44683
7.39112
7.33722
7.28421
7.23273
7.18181
7.13216
7.08275
7.03437
6.98592
6.93828
6.89028
6.8429
6.79489
6.74735
6.69892
6.65085
6.60165
6.55274
6.50249
6.45248
6.40092
6.34958
6.29646
6.24356
6.1886
6.13383
6.07668
6.01964
5.95978
5.89991
5.83665
5.77318
5.70559
5.63754
5.56448
5.4906
5.41069
5.32957
5.24125
5.15131
5.05289
4.95249
4.8423
4.72982
4.60629
4.48029
4.34211
4.20146
4.04767
3.89164
3.72179
3.55018
3.36431
3.17733
2.97596
2.77428
2.55834
2.3431
2.114
1.88668
1.64615
1.40859
1.15864
0.912543
0.657255
0.397358
0.130077
20.9764
20.9758
20.9746
20.9724
20.9695
20.9659
20.9615
20.9563
20.9504
20.9436
20.9362
20.9279
20.919
20.9092
20.8987
20.8873
20.8752
20.8622
20.8484
20.8336
20.818
20.8015
20.784
20.7656
20.7461
20.7256
20.7041
20.6814
20.6576
20.6326
20.6063
20.5787
20.5498
20.5194
20.4876
20.4542
20.4192
20.3824
20.3439
20.3035
20.2612
20.2168
20.1703
20.1214
20.0704
20.0167
19.9606
19.9016
19.84
19.7752
19.7075
19.6364
19.562
19.484
19.4024
19.3167
19.2272
19.1333
19.0353
18.9324
18.825
18.7125
18.5951
18.4723
18.3442
18.2102
18.0707
17.9252
17.7737
17.616
17.4522
17.282
17.1057
16.923
16.7342
16.5392
16.3385
16.1319
15.9202
15.7031
15.4816
15.2557
15.0263
14.7936
14.5585
14.3213
14.0831
13.844
13.6053
13.367
13.1303
12.8954
12.6633
12.4341
12.2088
11.9873
11.7706
11.5586
11.352
11.1506
10.9553
10.7654
10.5819
10.4041
10.2327
10.0672
9.90798
9.75454
9.60735
9.46573
9.33014
9.19985
9.0753
8.95574
8.84157
8.73203
8.62751
8.52723
8.43155
8.33971
8.25207
8.16784
8.08741
8.01
7.93599
7.86461
7.79626
7.73015
7.66673
7.6052
7.54603
7.4884
7.43281
7.37844
7.32582
7.27409
7.22382
7.17412
7.12562
7.07736
7.03004
6.98265
6.93598
6.88893
6.8424
6.79522
6.7484
6.70067
6.65318
6.60458
6.55615
6.50641
6.45683
6.40577
6.3549
6.30237
6.25005
6.19587
6.14192
6.08584
6.02994
5.97152
5.91318
5.85179
5.79027
5.72499
5.65928
5.58891
5.5177
5.44075
5.36248
5.27723
5.19013
5.0947
4.9969
4.88936
4.779
4.65754
4.53295
4.39603
4.25589
4.10241
3.94589
3.77533
3.60219
3.41465
3.22524
3.02138
2.81656
2.59754
2.37868
2.14617
1.91501
1.67097
1.42953
1.1761
0.92619
0.667339
0.403897
0.131929
20.9852
20.9846
20.9834
20.9812
20.9784
20.9747
20.9704
20.9652
20.9593
20.9527
20.9453
20.9371
20.9283
20.9186
20.9082
20.897
20.8851
20.8722
20.8586
20.8442
20.8288
20.8126
20.7954
20.7773
20.7583
20.7382
20.7171
20.6948
20.6716
20.6471
20.6214
20.5944
20.5662
20.5364
20.5054
20.4727
20.4385
20.4026
20.365
20.3254
20.2841
20.2407
20.1952
20.1475
20.0975
20.045
19.9901
19.9323
19.8719
19.8085
19.7421
19.6723
19.5993
19.5227
19.4425
19.3582
19.2701
19.1776
19.0808
18.9793
18.8731
18.7617
18.6454
18.5234
18.396
18.2626
18.1235
17.9779
17.8263
17.668
17.5033
17.3317
17.1536
16.9686
16.7771
16.5787
16.3742
16.1632
15.9465
15.7239
15.4966
15.2643
15.0283
14.7886
14.5465
14.3021
14.0567
13.8106
13.565
13.3202
13.0773
12.8367
12.5993
12.3653
12.1358
11.9106
11.6908
11.4762
11.2675
11.0646
10.8682
10.6779
10.4943
10.3169
10.1463
9.98194
9.82425
9.67258
9.52739
9.38797
9.25473
9.12692
9.00493
8.88799
8.77649
8.66964
8.56782
8.47022
8.37723
8.28804
8.20303
8.12141
8.04355
7.96866
7.89713
7.82817
7.76218
7.6984
7.63722
7.57789
7.52084
7.46529
7.41172
7.35932
7.3086
7.25874
7.21027
7.16234
7.11554
7.06895
7.02324
6.97741
6.93222
6.88661
6.84142
6.79551
6.74986
6.70322
6.65671
6.60901
6.56138
6.51239
6.46349
6.41311
6.3629
6.31111
6.25959
6.20639
6.15356
6.09886
6.04457
5.98812
5.93201
5.87327
5.8147
5.75281
5.69075
5.62445
5.55751
5.48516
5.41157
5.33119
5.24886
5.1582
5.06488
4.96159
4.85498
4.73681
4.61484
4.47985
4.34084
4.18766
4.03059
3.85858
3.6832
3.49257
3.29942
3.09111
2.88143
2.65704
2.43263
2.19431
1.95739
1.70749
1.46041
1.20131
0.946022
0.68168
0.413085
0.134431
20.9969
20.9963
20.9951
20.993
20.9901
20.9865
20.9822
20.9771
20.9713
20.9647
20.9574
20.9493
20.9406
20.9311
20.9208
20.9098
20.8981
20.8855
20.8722
20.858
20.8431
20.8272
20.8105
20.7928
20.7742
20.7547
20.7342
20.7126
20.69
20.6662
20.6413
20.6151
20.5877
20.5589
20.5288
20.4971
20.464
20.4291
20.3927
20.3544
20.3144
20.2722
20.2282
20.1818
20.1334
20.0824
20.0291
19.973
19.9143
19.8526
19.788
19.72
19.6489
19.5741
19.4958
19.4135
19.3273
19.2366
19.1417
19.042
18.9376
18.8279
18.713
18.5924
18.4661
18.3337
18.1951
18.0499
17.8981
17.7393
17.5735
17.4003
17.2199
17.0319
16.8367
16.6339
16.4242
16.2071
15.9836
15.7536
15.5179
15.2768
15.0314
14.7819
14.5298
14.2752
14.0197
13.7636
13.5085
13.2544
13.003
12.7544
12.5099
12.2694
12.0343
11.8043
11.5805
11.3627
11.1516
10.9469
10.7494
10.5585
10.375
10.1983
10.0289
9.86607
9.71043
9.5612
9.4188
9.28245
9.15253
9.02823
8.9099
8.79673
8.68904
8.58604
8.48804
8.39426
8.30501
8.21953
8.13815
8.06008
7.9857
7.91421
7.84599
7.78028
7.71744
7.65673
7.59855
7.54215
7.48795
7.43519
7.38432
7.33458
7.28645
7.23911
7.19309
7.14754
7.10303
7.05866
7.01506
6.97128
6.92801
6.88422
6.84073
6.79642
6.75221
6.70692
6.66161
6.61501
6.56835
6.52025
6.47216
6.42258
6.37314
6.32222
6.27164
6.21961
6.16811
6.11512
6.06281
6.00884
5.95557
5.90027
5.84553
5.78813
5.73096
5.67018
5.60908
5.54312
5.47608
5.40261
5.32715
5.24342
5.15671
5.05974
4.95883
4.84568
4.7278
4.59589
4.4588
4.30625
4.14856
3.97452
3.79593
3.60073
3.40207
3.18715
2.97028
2.73795
2.50548
2.25873
2.01364
1.7555
1.50075
1.23403
0.971753
0.700356
0.425206
0.137725
21.0114
21.0109
21.0097
21.0076
21.0047
21.0012
20.9969
20.9918
20.986
20.9795
20.9723
20.9644
20.9558
20.9465
20.9364
20.9257
20.9142
20.9019
20.8889
20.8751
20.8606
20.8452
20.829
20.8118
20.7939
20.775
20.7552
20.7344
20.7126
20.6897
20.6658
20.6406
20.6143
20.5866
20.5577
20.5273
20.4955
20.4621
20.4271
20.3904
20.3519
20.3115
20.2692
20.2246
20.1781
20.129
20.0777
20.0237
19.9672
19.9076
19.8453
19.7797
19.7109
19.6385
19.5627
19.4828
19.3991
19.3109
19.2185
19.1212
19.0191
18.9116
18.7988
18.6801
18.5556
18.4246
18.2871
18.1426
17.991
17.8317
17.6649
17.4899
17.307
17.1155
16.9158
16.7075
16.491
16.2662
16.0338
15.7937
15.5471
15.2942
15.0362
14.7736
14.5079
14.2398
13.9707
13.7014
13.4333
13.1671
12.9042
12.6451
12.391
12.1422
11.8999
11.6639
11.4352
11.2136
10.9999
10.7935
10.5952
10.4045
10.2217
10.0464
9.87892
9.71861
9.56588
9.41998
9.28126
9.14893
9.0233
8.90354
8.78992
8.68161
8.57886
8.48085
8.38784
8.299
8.21463
8.13393
8.0572
7.98368
7.91369
7.84648
7.7824
7.72069
7.66174
7.6048
7.55027
7.49742
7.44668
7.39732
7.34979
7.30335
7.25846
7.21435
7.17152
7.12914
7.08771
7.04639
7.0057
6.96472
6.92407
6.88275
6.84149
6.79921
6.75676
6.71302
6.66899
6.62346
6.57765
6.53027
6.48273
6.43369
6.38476
6.33449
6.28467
6.23373
6.18361
6.1325
6.0825
6.03151
5.98177
5.9308
5.881
5.8294
5.77863
5.72511
5.67177
5.61431
5.5561
5.49197
5.42587
5.35167
5.27412
5.18601
5.09312
4.98715
4.87516
4.74776
4.61353
4.46203
4.30353
4.12668
3.94347
3.74173
3.53509
3.31062
3.08339
2.83973
2.59585
2.33735
2.0811
1.812
1.5473
1.27105
1.00042
0.72085
0.438568
0.140994
21.0289
21.0284
21.0271
21.025
21.0222
21.0186
21.0144
21.0094
21.0036
20.9972
20.9901
20.9823
20.9738
20.9647
20.9549
20.9443
20.9332
20.9212
20.9087
20.8953
20.8812
20.8663
20.8507
20.8343
20.8171
20.7989
20.78
20.7601
20.7392
20.7174
20.6946
20.6706
20.6455
20.6192
20.5917
20.5628
20.5326
20.5008
20.4676
20.4327
20.3961
20.3577
20.3175
20.2751
20.2308
20.1841
20.1353
20.0838
20.0298
19.973
19.9134
19.8506
19.7848
19.7154
19.6426
19.5658
19.4852
19.4002
19.3109
19.2167
19.1177
19.0132
18.9033
18.7873
18.6653
18.5364
18.4008
18.2575
18.1067
17.9476
17.7801
17.6035
17.4179
17.2225
17.0176
16.8027
16.5782
16.3437
16.1
15.8472
15.5863
15.3178
15.0432
14.7631
14.4796
14.1935
13.9067
13.6201
13.3356
13.0539
12.7767
12.5044
12.2386
11.9795
11.7282
11.4848
11.2502
11.0242
10.8074
10.5994
10.4008
10.2107
10.0298
9.85702
9.69288
9.53649
9.38816
9.24706
9.11347
8.98654
8.86654
8.7526
8.64496
8.54274
8.44618
8.35439
8.26761
8.18496
8.10668
8.03196
7.96105
7.89319
7.82866
7.76672
7.7077
7.65088
7.59662
7.54422
7.49406
7.44544
7.39877
7.35336
7.30965
7.26696
7.22572
7.18526
7.14602
7.10727
7.06946
7.0318
6.99473
6.95737
6.92019
6.88222
6.84402
6.80455
6.76452
6.72282
6.68037
6.63601
6.59089
6.54387
6.49635
6.44716
6.39795
6.34752
6.29769
6.24715
6.19786
6.14832
6.10056
6.0528
6.00713
5.96141
5.91778
5.87364
5.83121
5.7873
5.74433
5.69836
5.65213
5.60077
5.54755
5.48652
5.42169
5.34594
5.26434
5.16851
5.06493
4.94401
4.81394
4.66403
4.50447
4.32363
4.13381
3.92263
3.70446
3.46624
3.22414
2.96438
2.70448
2.42983
2.15858
1.87521
1.5981
1.31054
1.03057
0.742372
0.453025
0.144555
21.0492
21.0486
21.0474
21.0453
21.0425
21.0389
21.0346
21.0297
21.024
21.0176
21.0106
21.0029
20.9946
20.9856
20.976
20.9657
20.9549
20.9433
20.9312
20.9183
20.9048
20.8905
20.8756
20.8599
20.8436
20.8263
20.8084
20.7895
20.7699
20.7493
20.7278
20.7052
20.6816
20.6568
20.631
20.6039
20.5755
20.5457
20.5145
20.4817
20.4474
20.4113
20.3735
20.3337
20.292
20.2481
20.2021
20.1535
20.1027
20.049
19.9927
19.9333
19.8709
19.805
19.7359
19.6628
19.586
19.5049
19.4195
19.3292
19.2341
19.1335
19.0274
18.9151
18.7965
18.6708
18.5379
18.397
18.2479
18.0897
17.9223
17.7446
17.5566
17.3574
17.147
16.9246
16.6906
16.4444
16.1869
15.9179
15.6389
15.3503
15.054
14.751
14.4438
14.1338
13.8235
13.5142
13.2083
12.9069
12.612
12.3239
12.0444
11.7735
11.5125
11.2611
11.0203
10.7897
10.57
10.3607
10.1621
9.9735
9.79522
9.6263
9.46693
9.31611
9.17399
9.03957
8.91301
8.79336
8.68079
8.57437
8.47429
8.37966
8.29067
8.20643
8.12711
8.05187
7.98087
7.91328
7.84932
7.78819
7.73014
7.67442
7.62133
7.5702
7.52136
7.47419
7.42907
7.38538
7.34351
7.30285
7.26376
7.22563
7.18883
7.15274
7.11774
7.0832
7.04951
7.01597
6.98297
6.94973
6.9166
6.88268
6.84835
6.81255
6.77578
6.73692
6.69666
6.65387
6.60958
6.56269
6.51462
6.46439
6.41372
6.36171
6.31033
6.25861
6.20863
6.15928
6.11261
6.06728
6.02527
5.98487
5.94797
5.9124
5.88001
5.848
5.81824
5.78716
5.7568
5.72259
5.68693
5.64406
5.59702
5.5387
5.47319
5.39196
5.30062
5.18929
5.06553
4.91825
4.75743
4.57104
4.37174
4.1469
3.91191
3.65369
3.39002
3.10722
2.82469
2.52779
2.23648
1.93484
1.64277
1.34258
1.05357
0.757968
0.4643
0.146473
21.0723
21.0718
21.0705
21.0684
21.0655
21.0619
21.0577
21.0526
21.047
21.0406
21.0336
21.026
21.0178
21.009
20.9996
20.9896
20.9791
20.9679
20.9562
20.9438
20.9309
20.9172
20.903
20.8881
20.8726
20.8564
20.8395
20.8218
20.8034
20.7841
20.7641
20.7431
20.7212
20.6982
20.6742
20.649
20.6228
20.5952
20.5663
20.536
20.5042
20.4708
20.4358
20.3989
20.3603
20.3195
20.2768
20.2317
20.1843
20.1343
20.0818
20.0263
19.968
19.9064
19.8415
19.7729
19.7007
19.6242
19.5436
19.4582
19.368
19.2724
19.1712
19.0638
18.9499
18.8288
18.7002
18.563
18.4172
18.2614
18.0953
17.9178
17.7284
17.5259
17.3101
17.0797
16.8349
16.5749
16.3003
16.0111
15.7087
15.394
15.0695
14.7368
14.399
14.058
13.7172
13.3785
13.0449
12.7181
12.4003
12.0926
11.7965
11.5122
11.2407
10.9815
10.7354
10.5016
10.2805
10.0715
9.87465
9.6892
9.5153
9.35189
9.19906
9.05568
8.92176
8.79613
8.67881
8.56869
8.46579
8.3691
8.2787
8.19365
8.11406
8.03905
7.96876
7.90235
7.83994
7.78074
7.72491
7.67165
7.62116
7.57269
7.52647
7.48181
7.43902
7.3975
7.35766
7.31899
7.28195
7.24607
7.21179
7.17861
7.14687
7.11604
7.08635
7.05722
7.02882
7.00053
6.97253
6.94417
6.91568
6.88627
6.8562
6.8245
6.79145
6.75589
6.71829
6.67743
6.63415
6.58736
6.53843
6.4865
6.43345
6.37865
6.32428
6.26982
6.21755
6.16688
6.11999
6.07605
6.03703
6.00176
5.97192
5.94589
5.92509
5.90731
5.89379
5.88149
5.8716
5.85997
5.84791
5.82985
5.80756
5.77387
5.73152
5.67164
5.59859
5.50189
5.38818
5.24558
5.08369
4.88968
4.67666
4.43152
4.17121
3.88274
3.58645
3.26915
2.95321
2.62428
2.30502
1.97915
1.66873
1.35487
1.05855
0.759127
0.467972
0.143089
21.0984
21.0978
21.0965
21.0943
21.0914
21.0877
21.0833
21.0782
21.0725
21.0661
21.0591
21.0516
21.0435
21.0348
21.0256
21.0159
21.0058
20.995
20.9838
20.972
20.9598
20.9469
20.9336
20.9196
20.9052
20.8901
20.8744
20.858
20.8411
20.8233
20.8049
20.7856
20.7656
20.7446
20.7227
20.6998
20.6758
20.6507
20.6244
20.5968
20.5679
20.5374
20.5055
20.4719
20.4366
20.3994
20.3603
20.319
20.2756
20.2298
20.1815
20.1305
20.0768
20.0199
19.96
19.8965
19.8296
19.7586
19.6836
19.604
19.5198
19.4303
19.3354
19.2343
19.1268
19.0119
18.8894
18.758
18.6174
18.4662
18.3038
18.1285
17.9397
17.7356
17.5155
17.2777
17.0216
16.746
16.4511
16.1365
15.8036
15.4538
15.0905
14.7168
14.3374
13.9556
13.5757
13.2003
12.8328
12.4752
12.1303
11.7992
11.4838
11.1843
10.9016
10.635
10.3848
10.1499
9.93028
9.7246
9.53284
9.35375
9.18732
9.0323
8.88867
8.75518
8.63176
8.51714
8.4112
8.31273
8.22162
8.13674
8.05806
7.98456
7.91626
7.85225
7.7926
7.73647
7.68396
7.63428
7.58756
7.54307
7.50097
7.46058
7.42213
7.38495
7.34929
7.31446
7.2808
7.24776
7.21582
7.18464
7.15479
7.12604
7.09889
7.07309
7.04896
7.02608
7.00447
6.98347
6.96286
6.94185
6.92025
6.89727
6.87288
6.84617
6.8172
6.78483
6.7493
6.70935
6.66563
6.61708
6.56504
6.50885
6.45057
6.38995
6.32951
6.26922
6.21176
6.15706
6.10764
6.06323
6.02594
5.99516
5.9725
5.95691
5.94949
5.94866
5.95512
5.9665
5.98312
6.00139
6.02132
6.03762
6.05038
6.05232
6.04422
6.01677
5.97232
5.89952
5.80322
5.67037
5.50923
5.30576
5.07279
4.79681
4.49639
4.15975
3.81094
3.43895
3.0705
2.69291
2.33243
1.97312
1.63947
1.31166
1.01259
0.718207
0.445167
0.123656
21.1274
21.1268
21.1254
21.1231
21.1201
21.1162
21.1117
21.1064
21.1005
21.094
21.0869
21.0793
21.0711
21.0624
21.0534
21.0438
21.0338
21.0233
21.0125
21.0012
20.9896
20.9774
20.9649
20.9518
20.9384
20.9244
20.91
20.895
20.8796
20.8634
20.8468
20.8294
20.8114
20.7926
20.773
20.7526
20.7312
20.7088
20.6855
20.6609
20.6352
20.6081
20.5797
20.5498
20.5183
20.4851
20.4501
20.4132
20.3743
20.333
20.2896
20.2436
20.1951
20.1437
20.0894
20.0318
19.971
19.9064
19.8381
19.7654
19.6884
19.6064
19.5192
19.4261
19.3268
19.2204
19.1063
18.9835
18.8511
18.7077
18.5522
18.3827
18.1979
17.9953
17.7735
17.5299
17.2631
16.9709
16.6529
16.3082
15.938
15.5438
15.1295
14.6998
14.2622
13.8231
13.3893
12.9651
12.5548
12.1606
11.785
11.4288
11.0935
10.7789
10.4856
10.2127
9.96007
9.72611
9.51035
9.31098
9.12746
8.9581
8.80251
8.65918
8.5279
8.40728
8.29712
8.1961
8.104
8.01953
7.94248
7.87166
7.80692
7.74718
7.69238
7.64155
7.59468
7.55091
7.51027
7.47195
7.43597
7.40157
7.36882
7.33708
7.30664
7.27701
7.24854
7.22071
7.19383
7.16734
7.14159
7.11618
7.09163
7.06782
7.04533
7.0242
7.00495
6.98768
6.97266
6.95972
6.9485
6.9382
6.92793
6.91652
6.90307
6.88632
6.8656
6.83953
6.80785
6.7692
6.72402
6.67132
6.61256
6.54745
6.47856
6.40632
6.334
6.26236
6.19473
6.13178
6.07641
6.02905
5.99193
5.96518
5.95024
5.9468
5.95562
5.97612
6.00839
6.05116
6.10366
6.16325
6.22823
6.29383
6.35767
6.41248
6.45595
6.47815
6.47809
6.44328
6.37507
6.25848
6.09852
5.87915
5.6116
5.28233
4.91224
4.4933
4.05594
3.59498
3.14377
2.69352
2.27448
1.87167
1.51127
1.17263
0.879247
0.604787
0.369863
0.0816729
21.1596
21.159
21.1575
21.1549
21.1516
21.1474
21.1426
21.1371
21.131
21.1243
21.1171
21.1094
21.1014
21.0928
21.084
21.0747
21.0651
21.0551
21.0449
21.0342
21.0233
21.012
21.0004
20.9885
20.9762
20.9636
20.9506
20.9371
20.9233
20.909
20.8942
20.8789
20.863
20.8465
20.8294
20.8115
20.7929
20.7734
20.7531
20.7318
20.7094
20.6859
20.6612
20.6351
20.6078
20.5788
20.5482
20.5159
20.4818
20.4456
20.4074
20.3668
20.324
20.2784
20.2303
20.1792
20.1251
20.0676
20.0068
19.9419
19.8732
19.8
19.7221
19.6388
19.5498
19.4542
19.3516
19.2405
19.1203
18.9891
18.8456
18.6874
18.5124
18.3174
18.0996
17.8546
17.5792
17.269
16.9213
16.5344
16.1102
15.6529
15.17
14.6685
14.1579
13.6463
13.1428
12.6542
12.1874
11.7459
11.3324
10.9466
10.5891
10.2587
9.95529
9.67702
9.42336
9.1922
8.98262
8.79226
8.62009
8.46391
8.32289
8.19518
8.08029
7.97661
7.88381
7.80041
7.72608
7.65945
7.60022
7.5471
7.49987
7.45741
7.41953
7.38527
7.35453
7.32645
7.30094
7.27724
7.25528
7.23431
7.21424
7.19437
7.17469
7.15454
7.13415
7.11319
7.09227
7.07128
7.05085
7.0309
7.01201
6.99423
6.97815
6.96389
6.95171
6.94169
6.93392
6.92882
6.92649
6.92712
6.92983
6.93349
6.93608
6.93546
6.92938
6.91542
6.89192
6.85681
6.80987
6.75002
6.67887
6.59685
6.50756
6.41282
6.31749
6.224
6.137
6.05832
5.99137
5.93714
5.89798
5.87433
5.86738
5.87721
5.90449
5.94969
6.01295
6.09411
6.19191
6.30454
6.42879
6.55997
6.69293
6.81974
6.93436
7.02571
7.08847
7.10865
7.08303
6.99336
6.83946
6.60228
6.2899
5.88781
5.41889
4.88253
4.32004
3.73805
3.17914
2.64044
2.15487
1.70782
1.32473
0.98331
0.704879
0.462171
0.269488
0.0428689
21.1953
21.1945
21.1928
21.1899
21.1862
21.1815
21.1761
21.1699
21.1632
21.1558
21.148
21.1397
21.1312
21.1223
21.1132
21.1038
21.0942
21.0844
21.0744
21.0642
21.0538
21.0432
21.0325
21.0215
21.0104
20.9991
20.9876
20.9758
20.9638
20.9514
20.9388
20.9258
20.9125
20.8986
20.8843
20.8694
20.854
20.8378
20.821
20.8034
20.7849
20.7654
20.745
20.7233
20.7005
20.6763
20.6507
20.6235
20.5948
20.5641
20.5317
20.4971
20.4606
20.4215
20.3802
20.3362
20.2896
20.2399
20.1873
20.1313
20.072
20.0087
19.9416
19.8698
19.7934
19.7113
19.6232
19.5278
19.4244
19.311
19.1863
19.0474
18.8918
18.7152
18.5136
18.281
18.011
17.6953
17.3253
16.8912
16.3881
15.8207
15.2095
14.5803
13.9537
13.3383
12.741
12.169
11.6309
11.1309
10.6717
10.2523
9.87213
9.52817
9.21881
8.94107
8.69348
8.47328
8.2789
8.10741
7.9571
7.82515
7.71009
7.60952
7.52242
7.44685
7.38208
7.32645
7.27938
7.2394
7.20606
7.17807
7.15508
7.13601
7.12059
7.1079
7.09774
7.08925
7.08217
7.07565
7.06943
7.06296
7.05643
7.04987
7.04344
7.03615
7.02725
7.01579
7.00199
6.98594
6.96878
6.95117
6.9344
6.91928
6.90694
6.89822
6.89386
6.89405
6.89797
6.90513
6.91484
6.92787
6.94419
6.96402
6.98515
7.0049
7.01918
7.02418
7.01609
6.99102
6.94663
6.88054
6.79384
6.68799
6.56842
6.43943
6.30854
6.18101
6.06349
5.95958
5.87348
5.80671
5.7614
5.73737
5.73501
5.75387
5.7948
5.85889
5.94713
6.06032
6.19823
6.35997
6.54236
6.74033
6.9469
7.15339
7.35029
7.52497
7.66844
7.76528
7.80843
7.77393
7.65636
7.43026
7.08998
6.61076
6.01929
5.33218
4.61301
3.88729
3.20905
2.5795
2.03132
1.54689
1.1492
0.812325
0.554345
0.346326
0.189021
0.0260615
21.2348
21.2339
21.2318
21.2283
21.224
21.2188
21.213
21.2065
21.1995
21.192
21.1841
21.1758
21.1673
21.1585
21.1496
21.1404
21.1312
21.1218
21.1123
21.1027
21.0931
21.0832
21.0734
21.0634
21.0534
21.0433
21.0332
21.0228
21.0125
21.002
20.9913
20.9804
20.9694
20.958
20.9464
20.9343
20.9219
20.909
20.8956
20.8816
20.8669
20.8515
20.8353
20.818
20.7999
20.7806
20.7601
20.7382
20.715
20.6901
20.6637
20.6353
20.6052
20.573
20.5387
20.5021
20.4633
20.4219
20.3781
20.3315
20.2821
20.2297
20.1743
20.1154
20.053
19.9865
19.9157
19.8396
19.7576
19.668
19.5694
19.4589
19.3334
19.1878
19.0164
18.8108
18.5624
18.2594
17.8917
17.4426
16.8944
16.2169
15.4183
14.5634
13.7138
12.8959
12.1244
11.4107
10.7636
10.1849
9.67484
9.22966
8.84517
8.51404
8.23048
7.98764
7.78123
7.60606
7.45906
7.33588
7.23407
7.14995
7.0817
7.02635
6.98269
6.94835
6.92261
6.90356
6.89076
6.88263
6.87898
6.87848
6.88112
6.88581
6.89269
6.90084
6.9104
6.92049
6.93104
6.94086
6.94891
6.95355
6.95555
6.95632
6.95683
6.95662
6.95483
6.95015
6.94186
6.92961
6.91414
6.89643
6.87838
6.86165
6.84795
6.83832
6.83402
6.83607
6.84459
6.85903
6.87782
6.90028
6.92602
6.95624
6.98978
7.02438
7.05527
7.07808
7.08855
7.08224
7.05427
6.99836
6.91217
6.79506
6.65304
6.49389
6.32949
6.1686
6.02077
5.89012
5.7817
5.69812
5.64207
5.6115
5.60506
5.62171
5.66355
5.73073
5.82548
5.94886
6.10442
6.28948
6.50474
6.74302
7.00255
7.2668
7.53151
7.76148
7.96503
8.12615
8.22548
8.23526
8.14421
7.91515
7.5257
6.94922
6.22761
5.40157
4.55575
3.73029
2.98333
2.31367
1.74706
1.26187
0.87863
0.571003
0.354599
0.199081
0.095896
0.00536988
21.279
21.2779
21.2751
21.2704
21.2643
21.257
21.249
21.2404
21.2314
21.222
21.2126
21.203
21.1934
21.1837
21.1742
21.1647
21.1554
21.1461
21.1371
21.1281
21.1193
21.1105
21.1019
21.0933
21.085
21.0766
21.0684
21.0603
21.0523
21.0442
21.0362
21.0282
21.0202
21.012
21.0038
20.9953
20.9868
20.9778
20.9686
20.9589
20.9489
20.9382
20.9269
20.9148
20.902
20.8882
20.8734
20.8574
20.8403
20.8216
20.8016
20.7799
20.7567
20.7315
20.7046
20.6757
20.6448
20.6118
20.5768
20.5395
20.5003
20.4589
20.4155
20.3699
20.3224
20.2728
20.2214
20.1677
20.1119
20.053
19.9906
19.9225
19.8461
19.7555
19.6423
19.4913
19.2791
18.9728
18.5299
17.9172
17.1258
16.225
15.2199
14.1681
13.108
12.0724
11.1148
10.2767
9.56971
8.98712
8.51589
8.1411
7.84571
7.61379
7.4305
7.28508
7.16843
7.07506
6.99971
6.93979
6.8919
6.85493
6.82638
6.80587
6.79135
6.78282
6.77846
6.77853
6.78136
6.78742
6.79518
6.80527
6.81631
6.82905
6.84222
6.85672
6.87139
6.88713
6.90295
6.91957
6.93491
6.94414
6.94986
6.95497
6.95918
6.96155
6.96141
6.95779
6.94995
6.93737
6.92046
6.90021
6.87851
6.85774
6.84006
6.82801
6.82297
6.82505
6.83387
6.84974
6.87248
6.90106
6.93517
6.97445
7.01729
7.05964
7.10004
7.13244
7.15284
7.15739
7.13734
7.0834
6.99268
6.86492
6.70628
6.52687
6.34117
6.16068
5.9983
5.85916
5.74536
5.65863
5.60086
5.57173
5.56502
5.57953
5.61508
5.67399
5.75492
5.86275
5.99798
6.16225
6.35035
6.56227
6.78598
7.00832
7.2284
7.43768
7.60121
7.69649
7.73247
7.68682
7.5572
7.31888
6.91873
6.32116
5.57838
4.74685
3.91533
3.12633
2.43077
1.82001
1.30376
0.854905
0.497311
0.2252
0.0494874
-0.0351899
-0.0623079
-0.0395706
21.3291
21.3276
21.3244
21.3195
21.3135
21.3066
21.2988
21.2901
21.2808
21.2712
21.2614
21.2514
21.2413
21.2312
21.2212
21.2112
21.2014
21.1917
21.1823
21.1731
21.1642
21.1555
21.1471
21.139
21.1311
21.1235
21.1163
21.1092
21.1025
21.096
21.0898
21.0837
21.0779
21.0722
21.0667
21.0612
21.0558
21.0503
21.0448
21.0391
21.0333
21.027
21.0205
21.0134
21.0058
20.9974
20.9883
20.9782
20.9672
20.9549
20.9415
20.9265
20.9102
20.8923
20.8728
20.8515
20.8286
20.8039
20.7777
20.7497
20.7206
20.69
20.6587
20.6267
20.5948
20.5632
20.5331
20.5051
20.4808
20.4614
20.4494
20.4467
20.4561
20.4792
20.5164
20.5623
20.5922
20.5624
20.3105
19.6897
18.0818
15.9961
14.2702
12.9915
11.9003
10.9162
10.075
9.38694
8.83812
8.40213
8.05871
7.7866
7.57176
7.3992
7.26086
7.14767
7.05623
6.98112
6.92121
6.87275
6.8355
6.80649
6.78583
6.77105
6.76248
6.75799
6.75805
6.76082
6.76688
6.77464
6.78477
6.7959
6.80872
6.82206
6.83662
6.85137
6.86693
6.88256
6.89847
6.91436
6.92797
6.93511
6.94047
6.94641
6.95191
6.95544
6.95591
6.95238
6.94416
6.93113
6.91382
6.8936
6.87255
6.85319
6.83667
6.82458
6.81789
6.81745
6.82251
6.83434
6.85121
6.87392
6.90106
6.93489
6.97031
7.00618
7.0379
7.05711
7.06075
7.05255
7.02472
6.97011
6.87944
6.74918
6.58297
6.39649
6.20455
6.02287
5.86068
5.72286
5.60865
5.52359
5.46964
5.4457
5.43922
5.45035
5.47403
5.51337
5.56384
5.63292
5.71719
5.82076
5.93654
6.07446
6.22611
6.38895
6.54505
6.70816
6.83334
6.89072
6.89592
6.81603
6.64067
6.3895
5.9919
5.43951
4.76482
4.02446
3.28466
2.5992
2.00499
1.50339
1.07904
0.68817
0.356121
0.0693275
-0.118662
-0.21964
-0.243008
-0.129316
21.3879
21.3842
21.3745
21.3607
21.3465
21.3333
21.3206
21.3079
21.2955
21.2836
21.2722
21.2614
21.2511
21.2413
21.2319
21.2229
21.2143
21.2061
21.1984
21.191
21.184
21.1773
21.1712
21.1653
21.16
21.1549
21.1504
21.1462
21.1425
21.1391
21.1361
21.1334
21.1312
21.1293
21.1277
21.1263
21.1253
21.1243
21.1236
21.1228
21.1221
21.1212
21.1202
21.1188
21.1172
21.1149
21.112
21.1084
21.104
21.0984
21.0919
21.0841
21.0752
21.0648
21.0532
21.0401
21.0258
21.0102
20.9936
20.9761
20.9581
20.9398
20.9219
20.9048
20.8893
20.8762
20.8667
20.8621
20.8645
20.8761
20.9014
20.9464
21.0218
21.1427
21.3316
21.6216
22.0464
22.6836
23.4823
24.7075
24.588
20.3065
16.8195
14.4572
12.5734
11.1309
10.0833
9.32135
8.76557
8.35577
8.04705
7.80774
7.61665
7.4596
7.32791
7.21598
7.12067
7.03977
6.97202
6.9161
6.87109
6.83572
6.80907
6.78983
6.77714
6.76982
6.76718
6.76823
6.77253
6.77929
6.78825
6.79882
6.81088
6.82395
6.83804
6.85282
6.86828
6.88475
6.90081
6.92616
6.93249
6.93684
6.94119
6.94508
6.9478
6.94817
6.94523
6.93803
6.92647
6.91022
6.88985
6.86622
6.84161
6.8189
6.8004
6.78717
6.77954
6.77836
6.78278
6.79196
6.80426
6.81973
6.83896
6.86133
6.88435
6.90653
6.92789
6.94074
6.94414
6.93171
6.89332
6.82483
6.72397
6.5892
6.42935
6.25134
6.06816
5.88888
5.73089
5.59998
5.49658
5.41448
5.35883
5.33228
5.32591
5.33278
5.35397
5.38338
5.42274
5.4696
5.53172
5.59949
5.68182
5.77264
5.87524
5.98671
6.11838
6.2439
6.34274
6.39922
6.41447
6.32439
6.18921
5.98703
5.70229
5.25232
4.663
3.95753
3.25103
2.57022
2.00213
1.52088
1.16666
0.875665
0.638393
0.399328
0.163442
-0.00353329
-0.00887437
-0.0378166
21.4594
21.4686
21.4675
21.4564
21.4418
21.4264
21.4104
21.3937
21.3771
21.3608
21.345
21.3297
21.3151
21.3013
21.2882
21.276
21.2645
21.2538
21.2437
21.2343
21.2257
21.2178
21.2106
21.2041
21.1984
21.1934
21.1891
21.1855
21.1826
21.1804
21.1789
21.1781
21.178
21.1784
21.1797
21.1814
21.1839
21.1869
21.1905
21.1944
21.1989
21.2037
21.2088
21.214
21.2194
21.2247
21.23
21.235
21.2397
21.2438
21.2474
21.2501
21.252
21.2528
21.2526
21.2511
21.2485
21.2446
21.2396
21.2334
21.2266
21.219
21.2114
21.204
21.1975
21.1924
21.1899
21.1904
21.1951
21.2041
21.2174
21.2341
21.258
21.3027
21.3941
21.5695
21.8658
22.3485
23.0206
24.0235
24.4407
21.5538
19.0972
17.235
15.5618
14.1146
12.9016
11.8834
11.0319
10.3217
9.72967
9.23561
8.82281
8.47714
8.18725
7.94373
7.73922
7.56752
7.4238
7.30387
7.20441
7.12244
7.05556
7.00157
6.95868
6.92521
6.89985
6.8813
6.86861
6.86079
6.85714
6.85695
6.85973
6.86493
6.87224
6.88132
6.89184
6.90427
6.91637
6.9361
6.93633
6.93729
6.93879
6.94011
6.94072
6.93966
6.93606
6.92882
6.91723
6.90086
6.88031
6.85663
6.83183
6.80839
6.78881
6.77447
6.76597
6.76399
6.76777
6.77602
6.78695
6.8003
6.8159
6.83256
6.84899
6.86349
6.8785
6.89119
6.89877
6.88962
6.85645
6.79733
6.71752
6.60794
6.46648
6.29414
6.10542
5.91247
5.73691
5.58684
5.4724
5.394
5.35314
5.34125
5.34945
5.37201
5.40861
5.45844
5.52278
5.60174
5.69345
5.79053
5.89466
6.00461
6.12469
6.25152
6.37964
6.48977
6.57727
6.63415
6.64257
6.57794
6.47278
6.31304
6.0984
5.79257
5.36571
4.78822
4.11158
3.39359
2.70991
2.11237
1.65189
1.32912
1.09077
0.840022
0.559839
0.318872
0.277142
0.300687
21.5243
21.4849
21.4458
21.4227
21.4081
21.3939
21.3789
21.365
21.3527
21.3415
21.3309
21.3206
21.3107
21.3013
21.2926
21.2845
21.277
21.27
21.2635
21.2576
21.2523
21.2477
21.2438
21.2407
21.2385
21.237
21.2365
21.2368
21.238
21.2401
21.2432
21.2473
21.2524
21.2585
21.2657
21.2738
21.283
21.2932
21.3043
21.3163
21.329
21.3425
21.3565
21.371
21.3857
21.4005
21.4151
21.4293
21.4429
21.4555
21.4669
21.4767
21.4847
21.4906
21.4939
21.4948
21.4927
21.4879
21.4801
21.4696
21.4564
21.441
21.4238
21.4054
21.3865
21.3679
21.3505
21.3354
21.3239
21.3183
21.3188
21.3154
21.2936
21.2508
21.2069
21.2018
21.2703
21.4395
21.7062
22.1746
22.4689
20.6733
18.9977
17.4853
16.0479
14.7521
13.6092
12.608
11.7383
10.9874
10.3418
9.78842
9.31521
8.9113
8.56713
8.27434
8.02578
7.81526
7.63752
7.48799
7.36282
7.2586
7.17245