/*--------------------------------*- C++ -*----------------------------------*\
  =========                 |
  \\      /  F ield         | OpenFOAM: The Open Source CFD Toolbox
   \\    /   O peration     | Website:  https://openfoam.org
    \\  /    A nd           | Version:  10
     \\/     M anipulation  |
\*---------------------------------------------------------------------------*/
FoamFile
{
    format      ascii;
    class       volVectorField;
    location    "0.065";
    object      U;
}
// * * * * * * * * * * * * * * * * * * * * * * * * * * * * * * * * * * * * * //

dimensions      [0 1 -1 0 0 0 0];

internalField   nonuniform List<vector> 
4000
(
(5.00001 -7.33394e-05 0)
(5.00017 -0.000220037 0)
(5.00045 -0.000366834 0)
(5.0009 -0.000514237 0)
(5.0015 -0.000661858 0)
(5.00224 -0.000810239 0)
(5.00314 -0.000958992 0)
(5.00418 -0.00110881 0)
(5.00537 -0.00125921 0)
(5.00672 -0.00141101 0)
(5.00821 -0.00156366 0)
(5.00986 -0.00171818 0)
(5.01167 -0.00187393 0)
(5.01363 -0.0020321 0)
(5.01575 -0.002192 0)
(5.01803 -0.00235498 0)
(5.02048 -0.00252026 0)
(5.02309 -0.00268937 0)
(5.02587 -0.00286144 0)
(5.02883 -0.00303816 0)
(5.03197 -0.0032186 0)
(5.03529 -0.00340458 0)
(5.0388 -0.00359509 0)
(5.0425 -0.00379211 0)
(5.04641 -0.00399456 0)
(5.05052 -0.00420454 0)
(5.05484 -0.00442093 0)
(5.05938 -0.00464595 0)
(5.06415 -0.00487841 0)
(5.06916 -0.00512066 0)
(5.07442 -0.00537146 0)
(5.07993 -0.00563326 0)
(5.08571 -0.00590476 0)
(5.09176 -0.00618854 0)
(5.09811 -0.00648321 0)
(5.10476 -0.00679145 0)
(5.11172 -0.00711184 0)
(5.11901 -0.00744712 0)
(5.12664 -0.00779583 0)
(5.13463 -0.00816079 0)
(5.143 -0.00854046 0)
(5.15175 -0.00893775 0)
(5.1609 -0.00935104 0)
(5.17048 -0.0097833 0)
(5.18051 -0.0102328 0)
(5.19099 -0.0107027 0)
(5.20195 -0.011191 0)
(5.21341 -0.0117009 0)
(5.22539 -0.0122304 0)
(5.23791 -0.0127825 0)
(5.25099 -0.0133552 0)
(5.26466 -0.0139515 0)
(5.27894 -0.0145692 0)
(5.29384 -0.0152111 0)
(5.3094 -0.0158747 0)
(5.32564 -0.0165627 0)
(5.34258 -0.0172725 0)
(5.36024 -0.0180062 0)
(5.37864 -0.018761 0)
(5.39782 -0.0195387 0)
(5.41778 -0.0203358 0)
(5.43855 -0.0211537 0)
(5.46015 -0.0219882 0)
(5.4826 -0.0228403 0)
(5.50591 -0.0237049 0)
(5.5301 -0.0245822 0)
(5.55517 -0.0254663 0)
(5.58113 -0.0263564 0)
(5.60799 -0.0272458 0)
(5.63575 -0.0281327 0)
(5.66439 -0.0290093 0)
(5.69391 -0.0298731 0)
(5.7243 -0.0307153 0)
(5.75552 -0.0315324 0)
(5.78755 -0.0323151 0)
(5.82036 -0.0330594 0)
(5.8539 -0.0337557 0)
(5.88811 -0.0343997 0)
(5.92295 -0.0349821 0)
(5.95835 -0.0354991 0)
(5.99424 -0.0359421 0)
(6.03055 -0.0363085 0)
(6.06718 -0.0365912 0)
(6.10406 -0.0367889 0)
(6.1411 -0.0368967 0)
(6.17821 -0.0369153 0)
(6.21529 -0.0368418 0)
(6.25226 -0.0366794 0)
(6.28902 -0.0364274 0)
(6.32548 -0.0360908 0)
(6.36157 -0.0356712 0)
(6.39719 -0.0351753 0)
(6.43228 -0.0346064 0)
(6.46676 -0.0339723 0)
(6.50057 -0.0332774 0)
(6.53365 -0.03253 0)
(6.56596 -0.0317353 0)
(6.59744 -0.0309016 0)
(6.62807 -0.0300341 0)
(6.6578 -0.0291405 0)
(6.68663 -0.028226 0)
(6.71452 -0.0272973 0)
(6.74148 -0.0263594 0)
(6.76749 -0.0254178 0)
(6.79255 -0.0244771 0)
(6.81667 -0.0235418 0)
(6.83985 -0.0226159 0)
(6.86212 -0.0217031 0)
(6.88348 -0.0208068 0)
(6.90395 -0.0199297 0)
(6.92356 -0.019075 0)
(6.94232 -0.0182442 0)
(6.96028 -0.0174403 0)
(6.97744 -0.0166638 0)
(6.99385 -0.0159174 0)
(7.00953 -0.0152004 0)
(7.02451 -0.0145155 0)
(7.03882 -0.013861 0)
(7.0525 -0.0132393 0)
(7.06556 -0.0126478 0)
(7.07805 -0.0120889 0)
(7.09 -0.0115593 0)
(7.10143 -0.0110615 0)
(7.11237 -0.0105912 0)
(7.12285 -0.0101517 0)
(7.13291 -0.00973768 0)
(7.14256 -0.00935305 0)
(7.15184 -0.008992 0)
(7.16076 -0.00865913 0)
(7.16937 -0.00834798 0)
(7.17768 -0.00806412 0)
(7.18571 -0.00780038 0)
(7.1935 -0.00756341 0)
(7.20106 -0.00734524 0)
(7.20842 -0.00715366 0)
(7.2156 -0.00697976 0)
(7.22262 -0.00683246 0)
(7.22951 -0.00670175 0)
(7.23628 -0.00659768 0)
(7.24296 -0.00650891 0)
(7.24957 -0.00644654 0)
(7.25613 -0.00639778 0)
(7.26266 -0.00637473 0)
(7.26918 -0.00636297 0)
(7.2757 -0.00637561 0)
(7.28224 -0.00639658 0)
(7.28882 -0.00644001 0)
(7.29545 -0.00648821 0)
(7.30214 -0.00655653 0)
(7.30891 -0.0066258 0)
(7.31576 -0.0067129 0)
(7.32269 -0.00679734 0)
(7.32972 -0.00689801 0)
(7.33685 -0.00699328 0)
(7.34407 -0.00710469 0)
(7.35141 -0.00720947 0)
(7.35885 -0.0073325 0)
(7.36641 -0.00744977 0)
(7.37409 -0.00759014 0)
(7.38191 -0.00772794 0)
(7.38987 -0.00789666 0)
(7.398 -0.00806823 0)
(7.40629 -0.00828128 0)
(7.41481 -0.0085044 0)
(7.42355 -0.00878171 0)
(7.43258 -0.00907728 0)
(7.44191 -0.00944089 0)
(7.45163 -0.00983085 0)
(7.46174 -0.0103025 0)
(7.47234 -0.0108071 0)
(7.48347 -0.0114052 0)
(7.49522 -0.0120399 0)
(7.50762 -0.0127759 0)
(7.52078 -0.0135478 0)
(7.53473 -0.0144231 0)
(7.54958 -0.0153275 0)
(7.56535 -0.0163302 0)
(7.58213 -0.0173484 0)
(7.59996 -0.0184514 0)
(7.61887 -0.0195494 0)
(7.63891 -0.0207109 0)
(7.66008 -0.0218411 0)
(7.68239 -0.0230069 0)
(7.70583 -0.0241121 0)
(7.73038 -0.0252213 0)
(7.75598 -0.0262407 0)
(7.78261 -0.0272333 0)
(7.81015 -0.0281106 0)
(7.83858 -0.0289346 0)
(7.86776 -0.0296248 0)
(7.89763 -0.0302426 0)
(7.92804 -0.0307169 0)
(7.95893 -0.0311088 0)
(7.99017 -0.0313558 0)
(8.0216 -0.0315194 0)
(8.05333 -0.0315414 0)
(8.08449 -0.0314947 0)
(8.11745 -0.0312864 0)
(8.143 -0.0311424 0)
(8.19053 -0.0304057 0)
(5.00001 -0.000220135 0)
(5.00017 -0.000659773 0)
(5.00045 -0.00110045 0)
(5.0009 -0.00154245 0)
(5.0015 -0.0019853 0)
(5.00224 -0.00242987 0)
(5.00313 -0.00287588 0)
(5.00417 -0.00332442 0)
(5.00536 -0.00377513 0)
(5.0067 -0.00422935 0)
(5.0082 -0.00468673 0)
(5.00984 -0.00514891 0)
(5.01164 -0.00561553 0)
(5.01359 -0.00608853 0)
(5.01571 -0.00656754 0)
(5.01798 -0.00705477 0)
(5.02042 -0.00754985 0)
(5.02302 -0.00805526 0)
(5.02579 -0.00857061 0)
(5.02873 -0.00909863 0)
(5.03185 -0.00963892 0)
(5.03515 -0.0101945 0)
(5.03864 -0.0107649 0)
(5.04233 -0.0113533 0)
(5.0462 -0.0119594 0)
(5.05029 -0.0125866 0)
(5.05458 -0.0132344 0)
(5.05909 -0.0139066 0)
(5.06383 -0.0146026 0)
(5.06881 -0.0153264 0)
(5.07403 -0.0160773 0)
(5.0795 -0.0168596 0)
(5.08524 -0.0176727 0)
(5.09125 -0.0185208 0)
(5.09755 -0.0194034 0)
(5.10415 -0.0203248 0)
(5.11106 -0.0212845 0)
(5.1183 -0.0222869 0)
(5.12588 -0.0233315 0)
(5.13381 -0.0244228 0)
(5.14211 -0.0255602 0)
(5.1508 -0.0267484 0)
(5.15989 -0.0279866 0)
(5.1694 -0.0292796 0)
(5.17935 -0.0306265 0)
(5.18976 -0.0320321 0)
(5.20064 -0.0334953 0)
(5.21202 -0.035021 0)
(5.22392 -0.0366078 0)
(5.23636 -0.0382604 0)
(5.24936 -0.0399773 0)
(5.26294 -0.0417627 0)
(5.27713 -0.0436147 0)
(5.29195 -0.0455373 0)
(5.30743 -0.047528 0)
(5.32358 -0.04959 0)
(5.34043 -0.0517201 0)
(5.358 -0.0539207 0)
(5.37633 -0.0561875 0)
(5.39542 -0.0585217 0)
(5.41531 -0.0609176 0)
(5.43601 -0.0633749 0)
(5.45755 -0.0658859 0)
(5.47995 -0.0684487 0)
(5.50321 -0.0710532 0)
(5.52737 -0.0736951 0)
(5.55242 -0.0763618 0)
(5.57838 -0.0790461 0)
(5.60525 -0.0817327 0)
(5.63304 -0.0844114 0)
(5.66173 -0.0870637 0)
(5.69133 -0.0896766 0)
(5.72182 -0.0922289 0)
(5.75316 -0.0947048 0)
(5.78535 -0.0970809 0)
(5.81834 -0.0993396 0)
(5.85208 -0.101457 0)
(5.88653 -0.103414 0)
(5.92163 -0.105187 0)
(5.95732 -0.106761 0)
(5.99352 -0.108112 0)
(6.03015 -0.109228 0)
(6.06713 -0.110091 0)
(6.10436 -0.110694 0)
(6.14177 -0.111026 0)
(6.17925 -0.111083 0)
(6.2167 -0.110862 0)
(6.25403 -0.110368 0)
(6.29114 -0.109604 0)
(6.32795 -0.108581 0)
(6.36436 -0.107307 0)
(6.40029 -0.105799 0)
(6.43566 -0.104071 0)
(6.4704 -0.102144 0)
(6.50444 -0.100033 0)
(6.53773 -0.0977625 0)
(6.57021 -0.09535 0)
(6.60185 -0.0928183 0)
(6.6326 -0.0901866 0)
(6.66243 -0.0874763 0)
(6.69133 -0.0847056 0)
(6.71928 -0.0818938 0)
(6.74627 -0.0790573 0)
(6.77228 -0.0762126 0)
(6.79734 -0.0733741 0)
(6.82143 -0.0705553 0)
(6.84458 -0.0677682 0)
(6.86679 -0.0650234 0)
(6.88808 -0.0623308 0)
(6.90847 -0.0596982 0)
(6.92799 -0.0571339 0)
(6.94666 -0.0546428 0)
(6.96451 -0.0522317 0)
(6.98156 -0.0499032 0)
(6.99785 -0.0476628 0)
(7.01341 -0.045511 0)
(7.02827 -0.043452 0)
(7.04246 -0.0414843 0)
(7.05601 -0.0396114 0)
(7.06895 -0.0378299 0)
(7.08132 -0.0361429 0)
(7.09314 -0.0345452 0)
(7.10445 -0.0330398 0)
(7.11528 -0.0316202 0)
(7.12565 -0.0302895 0)
(7.1356 -0.0290402 0)
(7.14514 -0.027876 0)
(7.15432 -0.0267884 0)
(7.16314 -0.0257823 0)
(7.17165 -0.0248482 0)
(7.17986 -0.0239923 0)
(7.1878 -0.0232046 0)
(7.19549 -0.0224927 0)
(7.20296 -0.0218458 0)
(7.21023 -0.0212732 0)
(7.21732 -0.0207632 0)
(7.22424 -0.0203264 0)
(7.23104 -0.0199499 0)
(7.23772 -0.0196455 0)
(7.24432 -0.0193986 0)
(7.25084 -0.0192218 0)
(7.25732 -0.0190984 0)
(7.26376 -0.0190417 0)
(7.2702 -0.0190321 0)
(7.27665 -0.0190836 0)
(7.28312 -0.0191738 0)
(7.28964 -0.0193173 0)
(7.29621 -0.019489 0)
(7.30285 -0.0197047 0)
(7.30958 -0.019937 0)
(7.31638 -0.020204 0)
(7.32329 -0.0204767 0)
(7.33028 -0.020777 0)
(7.33738 -0.021075 0)
(7.34458 -0.0213979 0)
(7.35189 -0.021716 0)
(7.3593 -0.0220632 0)
(7.36683 -0.0224102 0)
(7.37446 -0.0227989 0)
(7.38222 -0.0232004 0)
(7.3901 -0.0236652 0)
(7.39813 -0.0241637 0)
(7.40631 -0.024755 0)
(7.4147 -0.0254076 0)
(7.42328 -0.0261885 0)
(7.43212 -0.0270622 0)
(7.44125 -0.0281027 0)
(7.45073 -0.0292681 0)
(7.46059 -0.0306373 0)
(7.47093 -0.0321595 0)
(7.48177 -0.0339166 0)
(7.49322 -0.0358459 0)
(7.50532 -0.0380293 0)
(7.51818 -0.0403898 0)
(7.53184 -0.0430065 0)
(7.54641 -0.0457862 0)
(7.56194 -0.0488021 0)
(7.5785 -0.0519442 0)
(7.59615 -0.0552782 0)
(7.61494 -0.0586783 0)
(7.6349 -0.0622022 0)
(7.65607 -0.0657117 0)
(7.67844 -0.0692582 0)
(7.70201 -0.0726971 0)
(7.72675 -0.0760766 0)
(7.75262 -0.0792531 0)
(7.77958 -0.0822769 0)
(7.80751 -0.0850134 0)
(7.83638 -0.087519 0)
(7.86604 -0.0896747 0)
(7.89643 -0.0915463 0)
(7.92739 -0.0930335 0)
(7.95883 -0.0942123 0)
(7.99065 -0.0949999 0)
(8.02265 -0.0954823 0)
(8.05495 -0.0955848 0)
(8.08665 -0.0954252 0)
(8.12021 -0.0948327 0)
(8.14612 -0.0943449 0)
(8.19447 -0.0922052 0)
(5.00001 -0.000366696 0)
(5.00017 -0.00109787 0)
(5.00045 -0.00183169 0)
(5.0009 -0.00256711 0)
(5.00149 -0.00330402 0)
(5.00223 -0.00404308 0)
(5.00312 -0.00478476 0)
(5.00415 -0.00552981 0)
(5.00533 -0.00627883 0)
(5.00667 -0.00703282 0)
(5.00815 -0.00779255 0)
(5.00978 -0.00855927 0)
(5.01157 -0.00933397 0)
(5.0135 -0.0101182 0)
(5.0156 -0.010913 0)
(5.01785 -0.0117204 0)
(5.02026 -0.0125415 0)
(5.02284 -0.0133785 0)
(5.02558 -0.0142329 0)
(5.02849 -0.0151069 0)
(5.03158 -0.0160024 0)
(5.03484 -0.0169217 0)
(5.03828 -0.0178668 0)
(5.04192 -0.0188404 0)
(5.04575 -0.0198446 0)
(5.04978 -0.0208823 0)
(5.05401 -0.0219556 0)
(5.05846 -0.0230678 0)
(5.06313 -0.024221 0)
(5.06804 -0.0254187 0)
(5.07318 -0.0266634 0)
(5.07857 -0.0279583 0)
(5.08422 -0.0293062 0)
(5.09014 -0.0307105 0)
(5.09635 -0.032174 0)
(5.10285 -0.0337004 0)
(5.10965 -0.0352924 0)
(5.11678 -0.0369537 0)
(5.12424 -0.0386873 0)
(5.13205 -0.0404969 0)
(5.14022 -0.0423854 0)
(5.14878 -0.0443567 0)
(5.15773 -0.0464136 0)
(5.1671 -0.0485599 0)
(5.1769 -0.0507985 0)
(5.18715 -0.0531331 0)
(5.19788 -0.0555663 0)
(5.2091 -0.0581019 0)
(5.22083 -0.0607421 0)
(5.2331 -0.0634904 0)
(5.24593 -0.0663488 0)
(5.25933 -0.0693202 0)
(5.27334 -0.0724059 0)
(5.28798 -0.0756083 0)
(5.30327 -0.078928 0)
(5.31924 -0.0823661 0)
(5.3359 -0.085922 0)
(5.3533 -0.0895957 0)
(5.37145 -0.0933846 0)
(5.39037 -0.0972869 0)
(5.4101 -0.101298 0)
(5.43065 -0.105413 0)
(5.45206 -0.109624 0)
(5.47433 -0.113924 0)
(5.49749 -0.118302 0)
(5.52156 -0.122745 0)
(5.54656 -0.127238 0)
(5.5725 -0.131765 0)
(5.59938 -0.136304 0)
(5.62722 -0.140834 0)
(5.65601 -0.145328 0)
(5.68574 -0.14976 0)
(5.71641 -0.154098 0)
(5.748 -0.158311 0)
(5.78048 -0.162363 0)
(5.81382 -0.166218 0)
(5.84797 -0.169838 0)
(5.88289 -0.173188 0)
(5.91851 -0.17623 0)
(5.95477 -0.178929 0)
(5.99159 -0.181252 0)
(6.02888 -0.18317 0)
(6.06655 -0.184657 0)
(6.10451 -0.185694 0)
(6.14266 -0.186266 0)
(6.18088 -0.186365 0)
(6.21908 -0.185988 0)
(6.25715 -0.185139 0)
(6.29498 -0.183829 0)
(6.33248 -0.182073 0)
(6.36955 -0.179892 0)
(6.40609 -0.17731 0)
(6.44203 -0.174357 0)
(6.47729 -0.171063 0)
(6.5118 -0.167461 0)
(6.5455 -0.163588 0)
(6.57833 -0.159478 0)
(6.61027 -0.155167 0)
(6.64126 -0.150691 0)
(6.67129 -0.146084 0)
(6.70032 -0.141379 0)
(6.72836 -0.136609 0)
(6.75539 -0.131803 0)
(6.78142 -0.126989 0)
(6.80643 -0.122191 0)
(6.83046 -0.117434 0)
(6.85351 -0.112737 0)
(6.87559 -0.108119 0)
(6.89673 -0.103596 0)
(6.91696 -0.0991802 0)
(6.93629 -0.0948845 0)
(6.95476 -0.0907179 0)
(6.9724 -0.0866886 0)
(6.98923 -0.0828024 0)
(7.00529 -0.0790646 0)
(7.02061 -0.0754783 0)
(7.03523 -0.0720463 0)
(7.04918 -0.0687694 0)
(7.06248 -0.0656484 0)
(7.07518 -0.0626823 0)
(7.08731 -0.0598706 0)
(7.0989 -0.0572106 0)
(7.10997 -0.0547007 0)
(7.12057 -0.0523372 0)
(7.13072 -0.050118 0)
(7.14044 -0.0480384 0)
(7.14977 -0.0460963 0)
(7.15874 -0.0442867 0)
(7.16736 -0.0426076 0)
(7.17567 -0.0410542 0)
(7.18369 -0.0396251 0)
(7.19144 -0.0383158 0)
(7.19894 -0.037126 0)
(7.20622 -0.0360515 0)
(7.2133 -0.0350929 0)
(7.22021 -0.0342467 0)
(7.22696 -0.0335138 0)
(7.23359 -0.0328913 0)
(7.2401 -0.0323798 0)
(7.24652 -0.0319762 0)
(7.25288 -0.0316802 0)
(7.2592 -0.0314876 0)
(7.26549 -0.0313966 0)
(7.27179 -0.0314008 0)
(7.27811 -0.0314965 0)
(7.28447 -0.0316745 0)
(7.29088 -0.0319295 0)
(7.29736 -0.0322493 0)
(7.30393 -0.0326277 0)
(7.31059 -0.0330505 0)
(7.31735 -0.0335122 0)
(7.32421 -0.0339982 0)
(7.33118 -0.0345063 0)
(7.33826 -0.0350233 0)
(7.34544 -0.0355532 0)
(7.35273 -0.0360865 0)
(7.36011 -0.0366353 0)
(7.36759 -0.0371959 0)
(7.37515 -0.0377901 0)
(7.38282 -0.0384204 0)
(7.39057 -0.0391181 0)
(7.39844 -0.0398925 0)
(7.40642 -0.0407826 0)
(7.41456 -0.0418033 0)
(7.42284 -0.0429988 0)
(7.43135 -0.0443878 0)
(7.44008 -0.0460159 0)
(7.44913 -0.047903 0)
(7.45851 -0.0500914 0)
(7.46833 -0.052599 0)
(7.47863 -0.0554595 0)
(7.48951 -0.0586847 0)
(7.50104 -0.0622942 0)
(7.51332 -0.0662889 0)
(7.52642 -0.0706694 0)
(7.54046 -0.0754206 0)
(7.55551 -0.0805206 0)
(7.57165 -0.0859346 0)
(7.58896 -0.0916171 0)
(7.6075 -0.0975117 0)
(7.62732 -0.103552 0)
(7.64846 -0.109663 0)
(7.67093 -0.115763 0)
(7.69472 -0.121763 0)
(7.71982 -0.12758 0)
(7.74616 -0.133122 0)
(7.77371 -0.138315 0)
(7.80233 -0.143074 0)
(7.83197 -0.14735 0)
(7.86247 -0.151077 0)
(7.89373 -0.154234 0)
(7.92561 -0.156778 0)
(7.95797 -0.158721 0)
(7.99069 -0.160042 0)
(8.02358 -0.16078 0)
(8.05673 -0.160921 0)
(8.08923 -0.160561 0)
(8.12359 -0.159523 0)
(8.15014 -0.158601 0)
(8.19951 -0.154983 0)
(5.00001 -0.000512406 0)
(5.00017 -0.00153322 0)
(5.00045 -0.00255814 0)
(5.00089 -0.00358503 0)
(5.00148 -0.00461375 0)
(5.00222 -0.005645 0)
(5.0031 -0.00667955 0)
(5.00412 -0.00771826 0)
(5.00529 -0.00876213 0)
(5.00661 -0.00981233 0)
(5.00808 -0.0108701 0)
(5.0097 -0.011937 0)
(5.01146 -0.0130147 0)
(5.01338 -0.0141048 0)
(5.01544 -0.0152095 0)
(5.01767 -0.0163307 0)
(5.02004 -0.0174709 0)
(5.02258 -0.0186324 0)
(5.02528 -0.0198179 0)
(5.02814 -0.0210302 0)
(5.03117 -0.022272 0)
(5.03438 -0.0235466 0)
(5.03776 -0.024857 0)
(5.04133 -0.0262066 0)
(5.04508 -0.0275987 0)
(5.04903 -0.029037 0)
(5.05317 -0.030525 0)
(5.05753 -0.0320667 0)
(5.0621 -0.0336658 0)
(5.0669 -0.0353264 0)
(5.07192 -0.0370525 0)
(5.07719 -0.0388483 0)
(5.08272 -0.0407181 0)
(5.0885 -0.0426662 0)
(5.09456 -0.0446969 0)
(5.10091 -0.046815 0)
(5.10755 -0.0490248 0)
(5.11451 -0.0513311 0)
(5.1218 -0.0537385 0)
(5.12942 -0.0562519 0)
(5.13741 -0.0588758 0)
(5.14576 -0.0616152 0)
(5.15451 -0.0644748 0)
(5.16366 -0.0674595 0)
(5.17324 -0.0705739 0)
(5.18326 -0.0738229 0)
(5.19375 -0.0772111 0)
(5.20473 -0.080743 0)
(5.21621 -0.0844229 0)
(5.22822 -0.0882551 0)
(5.24078 -0.0922435 0)
(5.25391 -0.0963917 0)
(5.26765 -0.100703 0)
(5.28201 -0.10518 0)
(5.29702 -0.109825 0)
(5.31271 -0.11464 0)
(5.3291 -0.119624 0)
(5.34621 -0.124779 0)
(5.36409 -0.130101 0)
(5.38275 -0.135588 0)
(5.40223 -0.141236 0)
(5.42254 -0.147039 0)
(5.44372 -0.152986 0)
(5.46579 -0.159068 0)
(5.48879 -0.165271 0)
(5.51272 -0.171578 0)
(5.53762 -0.177969 0)
(5.5635 -0.18442 0)
(5.59038 -0.190903 0)
(5.61827 -0.197387 0)
(5.64718 -0.203836 0)
(5.67711 -0.21021 0)
(5.70805 -0.216465 0)
(5.73998 -0.222554 0)
(5.7729 -0.228424 0)
(5.80677 -0.234022 0)
(5.84154 -0.239293 0)
(5.87716 -0.24418 0)
(5.91358 -0.248627 0)
(5.95073 -0.25258 0)
(5.9885 -0.255989 0)
(6.02682 -0.258808 0)
(6.06558 -0.260997 0)
(6.10467 -0.262526 0)
(6.14397 -0.263372 0)
(6.18336 -0.263521 0)
(6.22273 -0.262971 0)
(6.26194 -0.261727 0)
(6.30089 -0.259807 0)
(6.33945 -0.257235 0)
(6.37753 -0.254045 0)
(6.41502 -0.250274 0)
(6.45183 -0.245969 0)
(6.48788 -0.241177 0)
(6.5231 -0.235949 0)
(6.55742 -0.230338 0)
(6.59079 -0.224397 0)
(6.62318 -0.218178 0)
(6.65453 -0.211732 0)
(6.68484 -0.20511 0)
(6.71408 -0.198358 0)
(6.74224 -0.191522 0)
(6.76933 -0.184643 0)
(6.79534 -0.177762 0)
(6.82029 -0.170913 0)
(6.8442 -0.164129 0)
(6.86708 -0.157441 0)
(6.88895 -0.150873 0)
(6.90985 -0.144449 0)
(6.92979 -0.138188 0)
(6.94883 -0.132106 0)
(6.96697 -0.126216 0)
(6.98427 -0.12053 0)
(7.00075 -0.115056 0)
(7.01645 -0.1098 0)
(7.03141 -0.104765 0)
(7.04566 -0.0999544 0)
(7.05923 -0.0953686 0)
(7.07217 -0.0910074 0)
(7.0845 -0.0868686 0)
(7.09626 -0.0829499 0)
(7.10749 -0.0792474 0)
(7.11822 -0.0757573 0)
(7.12847 -0.0724742 0)
(7.13828 -0.0693936 0)
(7.14768 -0.0665092 0)
(7.15669 -0.0638163 0)
(7.16535 -0.0613086 0)
(7.17367 -0.0589816 0)
(7.18169 -0.0568295 0)
(7.18942 -0.0548489 0)
(7.19689 -0.0530348 0)
(7.20412 -0.051385 0)
(7.21113 -0.0498957 0)
(7.21794 -0.0485661 0)
(7.22459 -0.0473935 0)
(7.23108 -0.0463776 0)
(7.23744 -0.0455169 0)
(7.24369 -0.0448108 0)
(7.24986 -0.0442579 0)
(7.25597 -0.0438562 0)
(7.26205 -0.0436033 0)
(7.26811 -0.0434945 0)
(7.27418 -0.043525 0)
(7.28029 -0.0436864 0)
(7.28646 -0.0439701 0)
(7.2927 -0.0443639 0)
(7.29903 -0.0448547 0)
(7.30548 -0.0454276 0)
(7.31204 -0.0460658 0)
(7.31873 -0.0467543 0)
(7.32555 -0.0474745 0)
(7.33249 -0.0482155 0)
(7.33955 -0.0489603 0)
(7.34673 -0.0497067 0)
(7.35401 -0.0504431 0)
(7.36137 -0.0511797 0)
(7.36881 -0.0519141 0)
(7.37631 -0.0526711 0)
(7.38387 -0.0534593 0)
(7.39147 -0.0543178 0)
(7.39913 -0.0552667 0)
(7.40682 -0.0563572 0)
(7.41461 -0.0576199 0)
(7.42246 -0.0591133 0)
(7.43046 -0.0608768 0)
(7.4386 -0.0629705 0)
(7.44697 -0.065439 0)
(7.45561 -0.0683368 0)
(7.46462 -0.0717094 0)
(7.47405 -0.0755977 0)
(7.48402 -0.0800413 0)
(7.49461 -0.0850588 0)
(7.50595 -0.0906763 0)
(7.51813 -0.0968814 0)
(7.53129 -0.103678 0)
(7.54552 -0.111017 0)
(7.56095 -0.118871 0)
(7.57767 -0.127151 0)
(7.59577 -0.135797 0)
(7.61533 -0.144684 0)
(7.63639 -0.153716 0)
(7.65901 -0.162745 0)
(7.68315 -0.171652 0)
(7.70882 -0.180281 0)
(7.73593 -0.188504 0)
(7.76444 -0.196186 0)
(7.7942 -0.203211 0)
(7.8251 -0.209483 0)
(7.85697 -0.214916 0)
(7.88968 -0.219469 0)
(7.92303 -0.223096 0)
(7.95687 -0.225808 0)
(7.99104 -0.227594 0)
(8.02533 -0.228513 0)
(8.05982 -0.228564 0)
(8.09356 -0.22789 0)
(8.12912 -0.226254 0)
(8.15664 -0.224811 0)
(8.20744 -0.219466 0)
(5.00001 -0.000657098 0)
(5.00017 -0.00196559 0)
(5.00045 -0.00327948 0)
(5.00088 -0.00459559 0)
(5.00147 -0.00591355 0)
(5.0022 -0.00723409 0)
(5.00307 -0.00855813 0)
(5.00409 -0.00988668 0)
(5.00525 -0.0112209 0)
(5.00655 -0.0125623 0)
(5.008 -0.0139125 0)
(5.0096 -0.0152733 0)
(5.01134 -0.0166467 0)
(5.01322 -0.0180352 0)
(5.01526 -0.0194411 0)
(5.01744 -0.0208673 0)
(5.01977 -0.0223167 0)
(5.02226 -0.0237924 0)
(5.0249 -0.0252979 0)
(5.0277 -0.0268368 0)
(5.03067 -0.0284128 0)
(5.03379 -0.0300298 0)
(5.03709 -0.0316921 0)
(5.04057 -0.0334039 0)
(5.04422 -0.0351698 0)
(5.04806 -0.0369943 0)
(5.05209 -0.0388822 0)
(5.05632 -0.0408385 0)
(5.06076 -0.0428683 0)
(5.06542 -0.0449766 0)
(5.07029 -0.0471689 0)
(5.0754 -0.0494505 0)
(5.08075 -0.0518269 0)
(5.08636 -0.0543038 0)
(5.09223 -0.0568868 0)
(5.09837 -0.0595819 0)
(5.10481 -0.0623948 0)
(5.11154 -0.0653316 0)
(5.11859 -0.0683983 0)
(5.12598 -0.071601 0)
(5.13371 -0.0749459 0)
(5.1418 -0.0784392 0)
(5.15027 -0.0820872 0)
(5.15913 -0.085896 0)
(5.16841 -0.089872 0)
(5.17813 -0.0940215 0)
(5.1883 -0.0983505 0)
(5.19894 -0.102865 0)
(5.21009 -0.107572 0)
(5.22175 -0.112475 0)
(5.23395 -0.117582 0)
(5.24672 -0.122897 0)
(5.26009 -0.128425 0)
(5.27407 -0.13417 0)
(5.28869 -0.140136 0)
(5.304 -0.146325 0)
(5.32 -0.152741 0)
(5.33673 -0.159383 0)
(5.35423 -0.166251 0)
(5.37252 -0.173343 0)
(5.39163 -0.180654 0)
(5.4116 -0.188178 0)
(5.43246 -0.195906 0)
(5.45424 -0.203825 0)
(5.47697 -0.21192 0)
(5.50068 -0.220171 0)
(5.52541 -0.228554 0)
(5.55118 -0.237039 0)
(5.57802 -0.245592 0)
(5.60595 -0.254172 0)
(5.63498 -0.262734 0)
(5.66512 -0.271224 0)
(5.69639 -0.279584 0)
(5.72877 -0.287748 0)
(5.76225 -0.295647 0)
(5.79681 -0.303205 0)
(5.83241 -0.310344 0)
(5.869 -0.316984 0)
(5.90652 -0.323043 0)
(5.94488 -0.328443 0)
(5.98399 -0.333111 0)
(6.02375 -0.336978 0)
(6.06403 -0.339989 0)
(6.1047 -0.342095 0)
(6.14564 -0.343265 0)
(6.18668 -0.34348 0)
(6.22769 -0.342734 0)
(6.26852 -0.341038 0)
(6.30903 -0.338417 0)
(6.3491 -0.334906 0)
(6.38858 -0.330554 0)
(6.42738 -0.325419 0)
(6.46538 -0.319566 0)
(6.50251 -0.313065 0)
(6.53868 -0.305991 0)
(6.57383 -0.298419 0)
(6.6079 -0.290424 0)
(6.64086 -0.282081 0)
(6.67268 -0.273461 0)
(6.70334 -0.264632 0)
(6.73283 -0.255657 0)
(6.76114 -0.246595 0)
(6.78827 -0.237501 0)
(6.81426 -0.228426 0)
(6.8391 -0.219414 0)
(6.86282 -0.210506 0)
(6.88545 -0.201739 0)
(6.90703 -0.193145 0)
(6.92757 -0.184752 0)
(6.94713 -0.176585 0)
(6.96574 -0.168664 0)
(6.98343 -0.161005 0)
(7.00026 -0.153623 0)
(7.01625 -0.146527 0)
(7.03145 -0.139725 0)
(7.0459 -0.13322 0)
(7.05963 -0.127016 0)
(7.0727 -0.121111 0)
(7.08513 -0.115505 0)
(7.09696 -0.110193 0)
(7.10823 -0.105171 0)
(7.11898 -0.100433 0)
(7.12923 -0.0959721 0)
(7.13902 -0.0917804 0)
(7.14839 -0.0878505 0)
(7.15735 -0.0841734 0)
(7.16594 -0.0807416 0)
(7.17419 -0.0775457 0)
(7.18212 -0.0745793 0)
(7.18975 -0.0718339 0)
(7.1971 -0.0693049 0)
(7.20421 -0.0669855 0)
(7.21107 -0.0648738 0)
(7.21773 -0.0629657 0)
(7.22419 -0.0612612 0)
(7.23049 -0.059759 0)
(7.23663 -0.0584603 0)
(7.24265 -0.0573657 0)
(7.24855 -0.0564757 0)
(7.25439 -0.0557911 0)
(7.26016 -0.05531 0)
(7.26591 -0.0550314 0)
(7.27165 -0.054949 0)
(7.27742 -0.0550577 0)
(7.28325 -0.0553451 0)
(7.28916 -0.0558001 0)
(7.29517 -0.056404 0)
(7.30131 -0.0571383 0)
(7.3076 -0.0579793 0)
(7.31404 -0.0589019 0)
(7.32065 -0.0598809 0)
(7.32743 -0.0608878 0)
(7.33436 -0.0619021 0)
(7.34145 -0.062897 0)
(7.34866 -0.063864 0)
(7.35598 -0.0647844 0)
(7.36337 -0.0656679 0)
(7.37082 -0.0665094 0)
(7.37829 -0.0673403 0)
(7.38577 -0.0681721 0)
(7.39321 -0.0690578 0)
(7.40064 -0.0700258 0)
(7.408 -0.0711472 0)
(7.41535 -0.072466 0)
(7.42265 -0.0740652 0)
(7.42997 -0.076002 0)
(7.43732 -0.0783636 0)
(7.44478 -0.0812168 0)
(7.45238 -0.0846435 0)
(7.46025 -0.0887144 0)
(7.46843 -0.093495 0)
(7.47709 -0.0990515 0)
(7.4863 -0.10542 0)
(7.49625 -0.11265 0)
(7.50704 -0.120734 0)
(7.51886 -0.129692 0)
(7.53183 -0.139461 0)
(7.54613 -0.150016 0)
(7.5619 -0.161233 0)
(7.57927 -0.173031 0)
(7.59836 -0.185229 0)
(7.61923 -0.197692 0)
(7.64198 -0.210193 0)
(7.66658 -0.222555 0)
(7.69304 -0.234539 0)
(7.72126 -0.24595 0)
(7.75117 -0.256576 0)
(7.78256 -0.266243 0)
(7.81531 -0.274806 0)
(7.84916 -0.282144 0)
(7.88393 -0.288201 0)
(7.91937 -0.292923 0)
(7.95527 -0.296341 0)
(7.99144 -0.298459 0)
(8.02762 -0.299379 0)
(8.06388 -0.299124 0)
(8.09922 -0.297907 0)
(8.13631 -0.295429 0)
(8.16504 -0.293273 0)
(8.21761 -0.285854 0)
(5.00001 -0.000800851 0)
(5.00016 -0.00239511 0)
(5.00044 -0.00399584 0)
(5.00088 -0.00559875 0)
(5.00146 -0.00720305 0)
(5.00219 -0.00880946 0)
(5.00305 -0.0104189 0)
(5.00406 -0.0120324 0)
(5.0052 -0.0136514 0)
(5.00649 -0.0152775 0)
(5.00792 -0.0169126 0)
(5.00949 -0.018559 0)
(5.01121 -0.0202192 0)
(5.01306 -0.0218959 0)
(5.01505 -0.0235923 0)
(5.01719 -0.0253118 0)
(5.01947 -0.027058 0)
(5.0219 -0.0288349 0)
(5.02447 -0.0306466 0)
(5.0272 -0.0324975 0)
(5.03008 -0.0343921 0)
(5.03311 -0.0363355 0)
(5.03631 -0.0383325 0)
(5.03967 -0.0403885 0)
(5.0432 -0.0425089 0)
(5.04691 -0.0446995 0)
(5.0508 -0.0469659 0)
(5.05487 -0.0493144 0)
(5.05915 -0.0517511 0)
(5.06362 -0.0542824 0)
(5.06831 -0.0569149 0)
(5.07322 -0.0596552 0)
(5.07835 -0.0625103 0)
(5.08373 -0.0654872 0)
(5.08936 -0.0685929 0)
(5.09525 -0.0718348 0)
(5.10142 -0.0752202 0)
(5.10788 -0.0787566 0)
(5.11464 -0.0824514 0)
(5.12172 -0.0863125 0)
(5.12913 -0.0903475 0)
(5.13689 -0.0945642 0)
(5.14501 -0.0989703 0)
(5.15352 -0.103574 0)
(5.16243 -0.108383 0)
(5.17176 -0.113405 0)
(5.18152 -0.118648 0)
(5.19176 -0.12412 0)
(5.20247 -0.129829 0)
(5.21369 -0.135782 0)
(5.22544 -0.141986 0)
(5.23775 -0.148449 0)
(5.25064 -0.155178 0)
(5.26414 -0.162179 0)
(5.27828 -0.169457 0)
(5.29308 -0.177018 0)
(5.30858 -0.184866 0)
(5.32481 -0.193003 0)
(5.34181 -0.201431 0)
(5.3596 -0.210149 0)
(5.37823 -0.219155 0)
(5.39773 -0.228445 0)
(5.41814 -0.238008 0)
(5.43951 -0.247835 0)
(5.46186 -0.257908 0)
(5.48524 -0.268208 0)
(5.5097 -0.278706 0)
(5.53527 -0.28937 0)
(5.56198 -0.300161 0)
(5.58988 -0.311029 0)
(5.619 -0.321918 0)
(5.64936 -0.332764 0)
(5.68098 -0.34349 0)
(5.71387 -0.354013 0)
(5.74803 -0.36424 0)
(5.78344 -0.37407 0)
(5.82009 -0.383395 0)
(5.85791 -0.392104 0)
(5.89684 -0.400082 0)
(5.9368 -0.407217 0)
(5.97767 -0.413401 0)
(6.01934 -0.418538 0)
(6.06165 -0.422543 0)
(6.10446 -0.425348 0)
(6.14758 -0.426907 0)
(6.19083 -0.427195 0)
(6.23405 -0.42621 0)
(6.27705 -0.423968 0)
(6.31965 -0.420508 0)
(6.36171 -0.415884 0)
(6.40307 -0.410165 0)
(6.44359 -0.403433 0)
(6.48317 -0.395779 0)
(6.52169 -0.3873 0)
(6.55908 -0.378097 0)
(6.59528 -0.368274 0)
(6.63023 -0.357933 0)
(6.6639 -0.347174 0)
(6.69627 -0.336093 0)
(6.72733 -0.324781 0)
(6.75708 -0.313322 0)
(6.78552 -0.301794 0)
(6.81268 -0.290265 0)
(6.83858 -0.2788 0)
(6.86324 -0.267453 0)
(6.8867 -0.256273 0)
(6.909 -0.245303 0)
(6.93017 -0.234581 0)
(6.95026 -0.224137 0)
(6.96931 -0.213998 0)
(6.98736 -0.204186 0)
(7.00447 -0.194721 0)
(7.02069 -0.185615 0)
(7.03605 -0.176879 0)
(7.0506 -0.168522 0)
(7.0644 -0.160546 0)
(7.07748 -0.152952 0)
(7.08989 -0.145741 0)
(7.10167 -0.138907 0)
(7.11287 -0.132445 0)
(7.12351 -0.126348 0)
(7.13364 -0.120606 0)
(7.1433 -0.11521 0)
(7.15251 -0.110148 0)
(7.16131 -0.10541 0)
(7.16974 -0.100981 0)
(7.17781 -0.0968519 0)
(7.18555 -0.0930085 0)
(7.19299 -0.0894412 0)
(7.20014 -0.0861372 0)
(7.20703 -0.0830893 0)
(7.21368 -0.0802874 0)
(7.2201 -0.0777284 0)
(7.22631 -0.0754068 0)
(7.23232 -0.0733239 0)
(7.23817 -0.0714797 0)
(7.24385 -0.0698794 0)
(7.24941 -0.0685276 0)
(7.25485 -0.0674305 0)
(7.26021 -0.0665945 0)
(7.26551 -0.0660228 0)
(7.2708 -0.0657196 0)
(7.27609 -0.0656805 0)
(7.28144 -0.0659027 0)
(7.28686 -0.0663711 0)
(7.2924 -0.067072 0)
(7.29809 -0.067978 0)
(7.30396 -0.0690624 0)
(7.31003 -0.0702873 0)
(7.31632 -0.071614 0)
(7.32284 -0.0729998 0)
(7.32959 -0.074399 0)
(7.33655 -0.0757739 0)
(7.34371 -0.0770807 0)
(7.35103 -0.0782988 0)
(7.35847 -0.0793969 0)
(7.36598 -0.0803821 0)
(7.37352 -0.0812442 0)
(7.38103 -0.0820234 0)
(7.38847 -0.0827345 0)
(7.39578 -0.0834496 0)
(7.40296 -0.0842082 0)
(7.40994 -0.0851086 0)
(7.41676 -0.0862118 0)
(7.42337 -0.087634 0)
(7.42983 -0.0894546 0)
(7.43613 -0.0917977 0)
(7.44237 -0.0947578 0)
(7.44856 -0.0984549 0)
(7.45486 -0.102993 0)
(7.46131 -0.108475 0)
(7.46811 -0.115003 0)
(7.47534 -0.122644 0)
(7.48325 -0.131484 0)
(7.49197 -0.141531 0)
(7.50175 -0.152832 0)
(7.51276 -0.165317 0)
(7.52527 -0.178969 0)
(7.53946 -0.193626 0)
(7.55553 -0.209185 0)
(7.57368 -0.225393 0)
(7.59403 -0.242058 0)
(7.6167 -0.258851 0)
(7.64169 -0.275504 0)
(7.66904 -0.291658 0)
(7.6986 -0.307013 0)
(7.73027 -0.321245 0)
(7.76378 -0.33409 0)
(7.79893 -0.345333 0)
(7.83535 -0.354805 0)
(7.8728 -0.362443 0)
(7.91091 -0.368192 0)
(7.94942 -0.372131 0)
(7.98805 -0.374297 0)
(8.02652 -0.374872 0)
(8.06487 -0.373923 0)
(8.10207 -0.371772 0)
(8.14087 -0.368065 0)
(8.17095 -0.364877 0)
(8.22541 -0.354944 0)
(5.00001 -0.000943969 0)
(5.00016 -0.00282264 0)
(5.00044 -0.00470857 0)
(5.00088 -0.00659618 0)
(5.00146 -0.00848413 0)
(5.00218 -0.0103729 0)
(5.00304 -0.0122634 0)
(5.00403 -0.0141565 0)
(5.00517 -0.0160538 0)
(5.00645 -0.0179569 0)
(5.00786 -0.0198682 0)
(5.0094 -0.0217901 0)
(5.01108 -0.0237257 0)
(5.0129 -0.0256782 0)
(5.01485 -0.0276514 0)
(5.01694 -0.0296494 0)
(5.01916 -0.0316767 0)
(5.02152 -0.0337381 0)
(5.02402 -0.0358387 0)
(5.02665 -0.0379837 0)
(5.02944 -0.040179 0)
(5.03236 -0.0424305 0)
(5.03544 -0.0447441 0)
(5.03867 -0.0471263 0)
(5.04206 -0.0495837 0)
(5.04562 -0.052123 0)
(5.04934 -0.0547511 0)
(5.05323 -0.0574752 0)
(5.05731 -0.0603025 0)
(5.06158 -0.0632406 0)
(5.06604 -0.0662972 0)
(5.07071 -0.0694801 0)
(5.0756 -0.0727974 0)
(5.08071 -0.0762573 0)
(5.08606 -0.0798682 0)
(5.09165 -0.0836386 0)
(5.09751 -0.0875773 0)
(5.10363 -0.0916931 0)
(5.11004 -0.095995 0)
(5.11676 -0.100492 0)
(5.12378 -0.105194 0)
(5.13114 -0.110109 0)
(5.13885 -0.115248 0)
(5.14692 -0.12062 0)
(5.15538 -0.126234 0)
(5.16424 -0.132101 0)
(5.17352 -0.138229 0)
(5.18325 -0.144629 0)
(5.19345 -0.151311 0)
(5.20413 -0.158283 0)
(5.21533 -0.165557 0)
(5.22707 -0.17314 0)
(5.23938 -0.181044 0)
(5.25228 -0.189275 0)
(5.2658 -0.197844 0)
(5.27999 -0.206757 0)
(5.29486 -0.216023 0)
(5.31045 -0.225646 0)
(5.32681 -0.235633 0)
(5.34396 -0.245985 0)
(5.36196 -0.256704 0)
(5.38084 -0.267788 0)
(5.40065 -0.279233 0)
(5.42144 -0.291029 0)
(5.44325 -0.303162 0)
(5.46615 -0.315615 0)
(5.49018 -0.328359 0)
(5.51539 -0.341362 0)
(5.54186 -0.35458 0)
(5.56962 -0.36796 0)
(5.59873 -0.381437 0)
(5.62923 -0.394933 0)
(5.66118 -0.408356 0)
(5.6946 -0.421602 0)
(5.72951 -0.434551 0)
(5.76591 -0.447069 0)
(5.80379 -0.459014 0)
(5.84312 -0.470229 0)
(5.88382 -0.480555 0)
(5.92581 -0.489834 0)
(5.96896 -0.497909 0)
(6.01312 -0.504637 0)
(6.0581 -0.509894 0)
(6.10371 -0.513581 0)
(6.14972 -0.515627 0)
(6.19589 -0.515996 0)
(6.24201 -0.51469 0)
(6.28784 -0.511738 0)
(6.33318 -0.507205 0)
(6.37781 -0.501175 0)
(6.42158 -0.493756 0)
(6.46432 -0.485067 0)
(6.5059 -0.475238 0)
(6.5462 -0.464404 0)
(6.58514 -0.4527 0)
(6.62266 -0.440263 0)
(6.6587 -0.427225 0)
(6.69323 -0.413713 0)
(6.72624 -0.399849 0)