/*--------------------------------*- C++ -*----------------------------------*\
  =========                 |
  \\      /  F ield         | OpenFOAM: The Open Source CFD Toolbox
   \\    /   O peration     | Website:  https://openfoam.org
    \\  /    A nd           | Version:  11
     \\/     M anipulation  |
\*---------------------------------------------------------------------------*/
FoamFile
{
    format      ascii;
    class       volVectorField;
    location    "25";
    object      U;
}
// * * * * * * * * * * * * * * * * * * * * * * * * * * * * * * * * * * * * * //

dimensions      [0 1 -1 0 0 0 0];

internalField   nonuniform List<vector> 
2048
(
(1.00014 -0.000597233 0)
(1.00256 -0.00180162 0)
(1.00733 -0.00303071 0)
(1.01462 -0.00429867 0)
(1.02451 -0.00561603 0)
(1.03709 -0.00698609 0)
(1.05243 -0.00840213 0)
(1.07063 -0.00984558 0)
(1.09172 -0.011285 0)
(1.11565 -0.0126763 0)
(1.14231 -0.0139631 0)
(1.17143 -0.0150805 0)
(1.20262 -0.01596 0)
(1.23535 -0.016539 0)
(1.26898 -0.0167723 0)
(1.30281 -0.0166441 0)
(1.33609 -0.0161739 0)
(1.36815 -0.015416 0)
(1.39843 -0.0144483 0)
(1.42657 -0.0133524 0)
(1.45234 -0.0121985 0)
(1.47571 -0.0110402 0)
(1.49672 -0.0099162 0)
(1.51548 -0.00885397 0)
(1.53217 -0.00787116 0)
(1.54695 -0.00697712 0)
(1.56002 -0.00617491 0)
(1.57156 -0.0054635 0)
(1.58177 -0.00483941 0)
(1.59082 -0.00429754 0)
(1.59886 -0.0038318 0)
(1.60604 -0.00343565 0)
(1.6125 -0.00310254 0)
(1.61836 -0.00282622 0)
(1.62373 -0.00260085 0)
(1.62869 -0.00242101 0)
(1.63335 -0.00228177 0)
(1.63776 -0.00217863 0)
(1.64201 -0.00210752 0)
(1.64614 -0.00206475 0)
(1.65022 -0.00204695 0)
(1.6543 -0.00205099 0)
(1.6584 -0.00207398 0)
(1.66256 -0.00211315 0)
(1.66682 -0.00216589 0)
(1.6712 -0.00222962 0)
(1.67572 -0.00230189 0)
(1.68039 -0.0023802 0)
(1.68523 -0.00246221 0)
(1.69024 -0.00254549 0)
(1.6954 -0.00262789 0)
(1.70075 -0.00270718 0)
(1.70622 -0.00278163 0)
(1.7119 -0.00284939 0)
(1.7176 -0.00290944 0)
(1.72359 -0.00296072 0)
(1.7294 -0.00300302 0)
(1.73573 -0.00303681 0)
(1.74139 -0.00306197 0)
(1.74828 -0.00308218 0)
(1.75329 -0.00309443 0)
(1.7614 -0.00311031 0)
(1.76453 -0.00311471 0)
(1.77569 -0.00314089 0)
(1.00013 -0.00178638 0)
(1.00253 -0.00538877 0)
(1.00725 -0.00906717 0)
(1.01446 -0.0128671 0)
(1.02427 -0.0168228 0)
(1.03678 -0.0209461 0)
(1.05209 -0.0252187 0)
(1.07031 -0.0295857 0)
(1.09149 -0.0339524 0)
(1.11564 -0.0381832 0)
(1.14264 -0.0421047 0)
(1.17223 -0.0455165 0)
(1.20403 -0.0482065 0)
(1.23748 -0.0499783 0)
(1.2719 -0.0506881 0)
(1.30651 -0.0502806 0)
(1.34049 -0.0488158 0)
(1.37312 -0.0464695 0)
(1.40381 -0.0434905 0)
(1.43219 -0.0401346 0)
(1.45809 -0.0366166 0)
(1.48147 -0.0330978 0)
(1.50243 -0.0296944 0)
(1.5211 -0.0264872 0)
(1.53765 -0.0235273 0)
(1.55228 -0.02084 0)
(1.56519 -0.0184328 0)
(1.57658 -0.0163013 0)
(1.58664 -0.014434 0)
(1.59555 -0.0128146 0)
(1.60346 -0.0114242 0)
(1.61052 -0.0102426 0)
(1.61688 -0.00924995 0)
(1.62264 -0.00842728 0)
(1.62792 -0.00775701 0)
(1.6328 -0.00722291 0)
(1.63739 -0.00681014 0)
(1.64174 -0.00650526 0)
(1.64594 -0.0062961 0)
(1.65003 -0.00617163 0)
(1.65407 -0.00612179 0)
(1.6581 -0.00613727 0)
(1.66217 -0.00620942 0)
(1.66632 -0.00632998 0)
(1.67056 -0.00649115 0)
(1.67493 -0.00668521 0)
(1.67944 -0.0069048 0)
(1.68411 -0.00714239 0)
(1.68895 -0.007391 0)
(1.69396 -0.00764321 0)
(1.69914 -0.00789273 0)
(1.70451 -0.00813244 0)
(1.71 -0.00835756 0)
(1.7157 -0.00856178 0)
(1.72143 -0.00874301 0)
(1.72745 -0.00889644 0)
(1.73328 -0.00902374 0)
(1.73964 -0.00912282 0)
(1.74533 -0.00919843 0)
(1.75223 -0.00925463 0)
(1.75726 -0.00929218 0)
(1.76538 -0.00933337 0)
(1.76851 -0.00934884 0)
(1.77966 -0.00942147 0)
(1.00013 -0.00295291 0)
(1.00246 -0.00891021 0)
(1.00707 -0.0150028 0)
(1.01413 -0.021315 0)
(1.02376 -0.0279122 0)
(1.03611 -0.0348216 0)
(1.05132 -0.0420208 0)
(1.06954 -0.0494231 0)
(1.09091 -0.0568707 0)
(1.11546 -0.0641285 0)
(1.14312 -0.0708887 0)
(1.17367 -0.0767936 0)
(1.20671 -0.0814615 0)
(1.24165 -0.0845377 0)
(1.27769 -0.0857556 0)
(1.31391 -0.0850008 0)
(1.34935 -0.0823814 0)
(1.38313 -0.0782341 0)
(1.41462 -0.0730243 0)
(1.44347 -0.06721 0)
(1.46957 -0.0611615 0)
(1.49297 -0.055151 0)
(1.5138 -0.0493724 0)
(1.53224 -0.0439568 0)
(1.5485 -0.0389812 0)
(1.56281 -0.0344804 0)
(1.5754 -0.030461 0)
(1.58647 -0.0269118 0)
(1.59623 -0.0238106 0)
(1.60484 -0.0211274 0)
(1.61249 -0.018828 0)
(1.61931 -0.0168773 0)
(1.62545 -0.0152412 0)
(1.63101 -0.0138877 0)
(1.63611 -0.0127872 0)
(1.64084 -0.0119124 0)
(1.64529 -0.0112387 0)
(1.64952 -0.0107437 0)
(1.6536 -0.0104072 0)
(1.65759 -0.0102111 0)
(1.66155 -0.0101386 0)
(1.66551 -0.0101745 0)
(1.66952 -0.0103044 0)
(1.67361 -0.0105147 0)
(1.67782 -0.0107925 0)
(1.68215 -0.011125 0)
(1.68664 -0.0114999 0)
(1.69131 -0.0119046 0)
(1.69614 -0.0123275 0)
(1.70116 -0.0127559 0)
(1.70635 -0.0131794 0)
(1.71175 -0.0135854 0)
(1.71727 -0.0139666 0)
(1.723 -0.0143106 0)
(1.72877 -0.014616 0)
(1.73482 -0.0148711 0)
(1.74069 -0.0150837 0)
(1.74708 -0.0152425 0)
(1.7528 -0.0153667 0)
(1.75971 -0.0154478 0)
(1.76475 -0.0155091 0)
(1.77284 -0.0155596 0)
(1.77598 -0.015588 0)
(1.78705 -0.0156897 0)
(1.00013 -0.0040741 0)
(1.00236 -0.012302 0)
(1.00677 -0.0207401 0)
(1.01355 -0.0295224 0)
(1.02288 -0.0387568 0)
(1.03492 -0.0484976 0)
(1.0499 -0.0587322 0)
(1.06807 -0.0693521 0)
(1.08963 -0.0801466 0)
(1.11473 -0.0907713 0)
(1.14337 -0.100757 0)
(1.17538 -0.109537 0)
(1.21035 -0.11649 0)
(1.24761 -0.121052 0)
(1.28622 -0.122792 0)
(1.32502 -0.121515 0)
(1.36274 -0.117419 0)
(1.39828 -0.11109 0)
(1.43093 -0.103283 0)
(1.46042 -0.094689 0)
(1.48676 -0.0858439 0)
(1.51009 -0.0771357 0)
(1.53065 -0.0688372 0)
(1.54868 -0.0611218 0)
(1.56446 -0.0540792 0)
(1.57827 -0.0477406 0)
(1.59034 -0.0421038 0)
(1.60091 -0.0371459 0)
(1.61018 -0.0328293 0)
(1.61835 -0.0291063 0)
(1.62559 -0.0259248 0)
(1.63204 -0.0232325 0)
(1.63784 -0.02098 0)
(1.6431 -0.0191213 0)
(1.64792 -0.0176143 0)
(1.6524 -0.0164207 0)
(1.65662 -0.015506 0)
(1.66065 -0.0148389 0)
(1.66455 -0.0143917 0)
(1.66838 -0.0141391 0)
(1.67218 -0.0140582 0)
(1.67601 -0.0141277 0)
(1.6799 -0.014328 0)
(1.68389 -0.0146402 0)
(1.68799 -0.0150466 0)
(1.69225 -0.015529 0)
(1.69666 -0.0160707 0)
(1.70126 -0.0166537 0)
(1.70604 -0.0172617 0)
(1.71102 -0.0178763 0)
(1.71618 -0.0184833 0)
(1.72154 -0.0190632 0)
(1.72703 -0.0196071 0)
(1.73274 -0.0200943 0)
(1.73849 -0.0205263 0)
(1.7445 -0.0208797 0)
(1.75035 -0.0211746 0)
(1.75667 -0.0213811 0)
(1.76234 -0.0215466 0)
(1.76913 -0.0216305 0)
(1.77411 -0.0217081 0)
(1.78198 -0.0217367 0)
(1.78508 -0.0217778 0)
(1.79576 -0.0218706 0)
(1.00012 -0.00512443 0)
(1.00219 -0.0154908 0)
(1.00631 -0.0261626 0)
(1.01266 -0.0373406 0)
(1.02148 -0.0491898 0)
(1.033 -0.0618099 0)
(1.04755 -0.0752179 0)
(1.06547 -0.089297 0)
(1.08714 -0.103812 0)
(1.11284 -0.118307 0)
(1.14273 -0.132145 0)
(1.17673 -0.14447 0)
(1.21443 -0.154278 0)
(1.25504 -0.160667 0)
(1.29739 -0.162917 0)
(1.33989 -0.160729 0)
(1.38079 -0.154542 0)
(1.41866 -0.145384 0)
(1.45277 -0.134407 0)
(1.48298 -0.122559 0)
(1.5095 -0.110538 0)
(1.53262 -0.0988524 0)
(1.55269 -0.0878512 0)
(1.57008 -0.0777318 0)
(1.58514 -0.0685718 0)
(1.5982 -0.0603811 0)
(1.60953 -0.053137 0)
(1.61937 -0.0467967 0)
(1.62795 -0.0413005 0)
(1.63547 -0.0365778 0)
(1.6421 -0.0325551 0)
(1.64799 -0.0291616 0)
(1.65327 -0.0263312 0)
(1.65805 -0.0240033 0)
(1.66243 -0.0221227 0)
(1.66649 -0.0206398 0)
(1.67032 -0.0195102 0)
(1.67398 -0.0186944 0)
(1.67753 -0.018157 0)
(1.68102 -0.0178662 0)
(1.6845 -0.0177932 0)
(1.68802 -0.017911 0)
(1.6916 -0.018195 0)
(1.69529 -0.0186214 0)
(1.6991 -0.0191675 0)
(1.70307 -0.0198106 0)
(1.7072 -0.0205291 0)
(1.71151 -0.0212995 0)
(1.71601 -0.0221011 0)
(1.7207 -0.022909 0)
(1.72557 -0.0237053 0)
(1.73063 -0.0244626 0)
(1.73583 -0.0251706 0)
(1.74122 -0.0257977 0)
(1.74664 -0.0263508 0)
(1.75229 -0.0267893 0)
(1.75778 -0.0271528 0)
(1.76364 -0.0273798 0)
(1.76893 -0.0275665 0)
(1.77511 -0.0276092 0)
(1.77972 -0.0276836 0)
(1.78674 -0.0276285 0)
(1.78959 -0.027677 0)
(1.79897 -0.0276833 0)
(1.0001 -0.00606947 0)
(1.00195 -0.0183774 0)
(1.00562 -0.031107 0)
(1.01133 -0.044555 0)
(1.01937 -0.0589555 0)
(1.03005 -0.0744919 0)
(1.04383 -0.0912292 0)
(1.06118 -0.10906 0)
(1.08268 -0.127765 0)
(1.10885 -0.146758 0)
(1.1401 -0.16532 0)
(1.1766 -0.182217 0)
(1.21801 -0.195916 0)
(1.26334 -0.204913 0)
(1.311 -0.207782 0)
(1.35867 -0.204046 0)
(1.40377 -0.194753 0)
(1.44452 -0.181747 0)
(1.48029 -0.166729 0)
(1.51123 -0.150924 0)
(1.53777 -0.13519 0)
(1.56038 -0.120155 0)
(1.57959 -0.106221 0)
(1.5959 -0.093567 0)
(1.60979 -0.0822247 0)
(1.62162 -0.0721633 0)
(1.63171 -0.0633272 0)
(1.64032 -0.0556399 0)
(1.64771 -0.0490077 0)
(1.65407 -0.04333 0)
(1.6596 -0.0385093 0)
(1.66442 -0.0344545 0)
(1.66868 -0.0310825 0)
(1.67247 -0.0283174 0)
(1.6759 -0.0260908 0)
(1.67904 -0.0243417 0)
(1.68196 -0.0230161 0)
(1.68473 -0.0220664 0)
(1.6874 -0.0214502 0)
(1.69002 -0.0211294 0)
(1.69263 -0.0210695 0)
(1.69527 -0.0212385 0)
(1.69798 -0.0216069 0)
(1.70077 -0.0221461 0)
(1.70367 -0.022829 0)
(1.70671 -0.0236281 0)
(1.7099 -0.0245171 0)
(1.71325 -0.0254674 0)
(1.71675 -0.0264534 0)
(1.72042 -0.0274438 0)
(1.72425 -0.0284162 0)
(1.72822 -0.0293352 0)
(1.73231 -0.0301882 0)
(1.73652 -0.0309325 0)
(1.74077 -0.0315792 0)
(1.74513 -0.0320691 0)
(1.74937 -0.0324631 0)
(1.75379 -0.0326623 0)
(1.75779 -0.0328219 0)
(1.76227 -0.032757 0)
(1.76568 -0.032778 0)
(1.7705 -0.0325508 0)
(1.77259 -0.0325763 0)
(1.77878 -0.0323812 0)
(1.00008 -0.00686443 0)
(1.0016 -0.0208356 0)
(1.00464 -0.0353527 0)
(1.00943 -0.0508708 0)
(1.01631 -0.067671 0)
(1.02569 -0.0861314 0)
(1.03821 -0.106346 0)
(1.05446 -0.128304 0)
(1.07532 -0.151811 0)
(1.10157 -0.176047 0)
(1.13397 -0.200393 0)
(1.17332 -0.223048 0)
(1.2194 -0.242134 0)
(1.27121 -0.255102 0)
(1.32664 -0.258858 0)
(1.38178 -0.252717 0)
(1.43259 -0.238997 0)
(1.47687 -0.220823 0)
(1.51433 -0.200591 0)
(1.54551 -0.17985 0)
(1.57112 -0.159664 0)
(1.59191 -0.140788 0)
(1.6087 -0.12361 0)
(1.62229 -0.108211 0)
(1.6333 -0.094544 0)
(1.64218 -0.0825325 0)
(1.6493 -0.0720781 0)
(1.655 -0.0630519 0)
(1.65955 -0.0553087 0)
(1.66318 -0.0487071 0)
(1.66606 -0.0431196 0)
(1.66835 -0.0384323 0)
(1.67015 -0.0345428 0)
(1.67157 -0.031359 0)
(1.67269 -0.028799 0)
(1.67358 -0.0267905 0)
(1.6743 -0.0252699 0)
(1.6749 -0.0241815 0)
(1.67543 -0.0234761 0)
(1.67591 -0.0231098 0)
(1.67639 -0.0230431 0)
(1.67689 -0.0232394 0)
(1.67743 -0.0236645 0)
(1.67804 -0.0242856 0)
(1.67873 -0.0250713 0)
(1.67952 -0.0259897 0)
(1.68041 -0.02701 0)
(1.68141 -0.0280989 0)
(1.68253 -0.0292258 0)
(1.68375 -0.0303542 0)
(1.68508 -0.0314558 0)
(1.6865 -0.0324895 0)
(1.68798 -0.033437 0)
(1.68952 -0.0342491 0)
(1.69108 -0.034934 0)
(1.69263 -0.0354237 0)
(1.69414 -0.0357851 0)
(1.69557 -0.0359024 0)
(1.69687 -0.0359608 0)
(1.69806 -0.0357313 0)
(1.69903 -0.035615 0)
(1.69991 -0.0351564 0)
(1.70044 -0.0350847 0)
(1.70111 -0.0346183 0)
(1.00005 -0.00745452 0)
(1.00114 -0.0227168 0)
(1.0033 -0.0386175 0)
(1.00684 -0.0559101 0)
(1.01203 -0.0747748 0)
(1.0195 -0.0961126 0)
(1.02997 -0.119802 0)
(1.04428 -0.146428 0)
(1.06387 -0.175586 0)
(1.08942 -0.206201 0)
(1.12271 -0.237944 0)
(1.16499 -0.26746 0)
(1.2161 -0.293263 0)
(1.27691 -0.311354 0)
(1.34465 -0.315804 0)
(1.41121 -0.306196 0)
(1.46926 -0.286788 0)
(1.51607 -0.262023 0)
(1.55218 -0.235049 0)
(1.57908 -0.207934 0)
(1.59831 -0.182187 0)
(1.61145 -0.158762 0)
(1.62006 -0.137892 0)
(1.62537 -0.119431 0)
(1.62825 -0.103221 0)
(1.62928 -0.0891444 0)
(1.62895 -0.077043 0)
(1.62765 -0.0667101 0)
(1.62565 -0.0579271 0)
(1.62318 -0.0504954 0)
(1.62037 -0.0442443 0)
(1.61733 -0.0390266 0)
(1.61413 -0.0347137 0)
(1.61084 -0.0311934 0)
(1.6075 -0.0283682 0)
(1.60413 -0.026154 0)
(1.60078 -0.0244774 0)
(1.59744 -0.0232751 0)
(1.59414 -0.0224918 0)
(1.59088 -0.0220785 0)
(1.58768 -0.0219916 0)
(1.58454 -0.0221914 0)
(1.58146 -0.0226406 0)
(1.57847 -0.0233036 0)
(1.57555 -0.0241456 0)
(1.57271 -0.0251319 0)
(1.56995 -0.0262282 0)
(1.56728 -0.0273983 0)
(1.56469 -0.028607 0)
(1.56219 -0.0298152 0)
(1.55976 -0.0309886 0)
(1.5574 -0.0320841 0)
(1.55511 -0.0330747 0)
(1.55286 -0.0339126 0)
(1.55065 -0.0345925 0)
(1.54842 -0.0350561 0)
(1.54625 -0.0353483 0)
(1.5439 -0.0353789 0)
(1.54174 -0.0352972 0)
(1.53905 -0.0349258 0)
(1.53699 -0.034615 0)
(1.53354 -0.0339877 0)
(1.53213 -0.0337363 0)
(1.52699 -0.0331245 0)
(0.999992 -0.00778056 0)
(1.00059 -0.023859 0)
(1.00151 -0.0405729 0)
(1.00356 -0.0592332 0)
(1.0062 -0.0795095 0)
(1.01125 -0.103605 0)
(1.01807 -0.130198 0)
(1.02961 -0.162329 0)
(1.0462 -0.197738 0)
(1.07001 -0.237138 0)
(1.10465 -0.279934 0)
(1.14904 -0.317831 0)
(1.20616 -0.352718 0)
(1.28256 -0.3776 0)
(1.36898 -0.381762 0)
(1.44652 -0.36654 0)
(1.50374 -0.338709 0)
(1.53994 -0.303891 0)
(1.55891 -0.266534 0)
(1.56507 -0.229868 0)
(1.56221 -0.196422 0)
(1.55351 -0.167331 0)
(1.54163 -0.142297 0)
(1.52825 -0.120691 0)
(1.51424 -0.102132 0)
(1.50012 -0.0863559 0)
(1.48633 -0.0730617 0)
(1.47316 -0.0619164 0)
(1.46076 -0.0526049 0)
(1.44916 -0.0448547 0)
(1.43833 -0.0384353 0)
(1.42823 -0.0331513 0)
(1.41878 -0.0288384 0)
(1.40994 -0.0253591 0)
(1.40163 -0.0225988 0)
(1.3938 -0.0204622 0)
(1.38637 -0.0188694 0)
(1.37931 -0.0177524 0)
(1.37255 -0.0170534 0)
(1.36607 -0.0167225 0)
(1.35982 -0.0167159 0)
(1.35378 -0.0169943 0)
(1.34792 -0.0175209 0)
(1.34223 -0.0182608 0)
(1.33669 -0.0191799 0)
(1.3313 -0.020244 0)
(1.32604 -0.0214189 0)
(1.32092 -0.0226689 0)
(1.31592 -0.0239582 0)
(1.31107 -0.0252479 0)
(1.30635 -0.0265009 0)
(1.30177 -0.0276752 0)
(1.29734 -0.0287366 0)
(1.29304 -0.0296418 0)
(1.2889 -0.0303706 0)
(1.28485 -0.0308791 0)
(1.28099 -0.0311815 0)
(1.27707 -0.0312264 0)
(1.27348 -0.0310982 0)
(1.26942 -0.0307128 0)
(1.26622 -0.0302862 0)
(1.26142 -0.0296519 0)
(1.25928 -0.0292422 0)
(1.25232 -0.0287562 0)
(0.999888 -0.0077944 0)
(0.999994 -0.0240904 0)
(0.999241 -0.0409068 0)
(0.999742 -0.0603537 0)
(0.998558 -0.081048 0)
(1.00129 -0.107589 0)
(1.00113 -0.135457 0)
(1.01059 -0.174269 0)
(1.01736 -0.214002 0)
(1.04159 -0.267933 0)
(1.07292 -0.325979 0)
(1.11933 -0.378147 0)
(1.19368 -0.441165 0)
(1.29306 -0.478882 0)
(1.38534 -0.473585 0)
(1.44246 -0.438539 0)
(1.45994 -0.388185 0)
(1.44818 -0.331495 0)
(1.41729 -0.275411 0)
(1.37636 -0.224203 0)
(1.33093 -0.181328 0)
(1.28518 -0.146821 0)
(1.24276 -0.118933 0)
(1.20494 -0.0963076 0)
(1.1715 -0.078016 0)
(1.14214 -0.0632527 0)
(1.11667 -0.0513152 0)
(1.09486 -0.041653 0)
(1.07632 -0.03385 0)
(1.06062 -0.0275788 0)
(1.04733 -0.0225709 0)
(1.03607 -0.018606 0)
(1.02651 -0.0155059 0)
(1.01836 -0.0131282 0)
(1.01137 -0.0113594 0)
(1.00532 -0.0101084 0)
(1.00004 -0.00930196 0)
(0.995381 -0.00888001 0)
(0.991217 -0.00879287 0)
(0.987448 -0.00899923 0)
(0.983993 -0.00946401 0)
(0.980789 -0.0101556 0)
(0.977789 -0.0110451 0)
(0.974957 -0.012105 0)
(0.972266 -0.0133087 0)
(0.969703 -0.0146289 0)
(0.967257 -0.0160383 0)
(0.96493 -0.0175074 0)
(0.962723 -0.0190059 0)
(0.960647 -0.0204999 0)
(0.958707 -0.0219548 0)
(0.956912 -0.0233315 0)
(0.95526 -0.0245933 0)
(0.953745 -0.0256971 0)
(0.952356 -0.0266135 0)
(0.951043 -0.0272981 0)
(0.94982 -0.0277485 0)
(0.94851 -0.0279141 0)
(0.947304 -0.0278602 0)
(0.945619 -0.0274991 0)
(0.944357 -0.0270488 0)
(0.941603 -0.026313 0)
(0.940649 -0.0258103 0)
(0.935428 -0.0252282 0)
(0.999761 -0.00747479 0)
(0.999351 -0.0232326 0)
(0.99661 -0.0394201 0)
(0.995517 -0.0587264 0)
(0.989403 -0.0788303 0)
(0.990082 -0.106716 0)
(0.978948 -0.133795 0)
(0.988583 -0.179314 0)
(0.971499 -0.21746 0)
(1.00669 -0.29541 0)
(1.00139 -0.357938 0)
(1.07543 -0.45748 0)
(1.16727 -0.596311 0)
(1.25225 -0.62291 0)
(1.28098 -0.561913 0)
(1.24219 -0.46816 0)
(1.1613 -0.370161 0)
(1.06622 -0.280129 0)
(0.967858 -0.204421 0)
(0.877433 -0.143074 0)
(0.793943 -0.0993422 0)
(0.723525 -0.0691027 0)
(0.670449 -0.0480038 0)
(0.631942 -0.0341574 0)
(0.604388 -0.0256417 0)
(0.58526 -0.0204676 0)
(0.572684 -0.0171797 0)
(0.565095 -0.0149521 0)
(0.561199 -0.0133502 0)
(0.559981 -0.0121351 0)
(0.560671 -0.0111734 0)
(0.562695 -0.0103966 0)
(0.565631 -0.00977547 0)
(0.569163 -0.00930241 0)
(0.573061 -0.00897913 0)
(0.577155 -0.00881016 0)
(0.581324 -0.00879977 0)
(0.585479 -0.008951 0)
(0.589563 -0.00926531 0)
(0.593532 -0.00974165 0)
(0.597366 -0.0103762 0)
(0.601055 -0.0111641 0)
(0.604598 -0.0120999 0)
(0.608002 -0.0131755 0)
(0.611274 -0.0143796 0)
(0.614427 -0.0156976 0)
(0.61747 -0.017111 0)
(0.620412 -0.0185969 0)
(0.623254 -0.0201279 0)
(0.625997 -0.0216695 0)
(0.628626 -0.0231826 0)
(0.631129 -0.0246201 0)
(0.633467 -0.0259325 0)
(0.635609 -0.0270643 0)
(0.637495 -0.0279669 0)
(0.639072 -0.0285863 0)
(0.64028 -0.0288962 0)
(0.641005 -0.0288476 0)
(0.641316 -0.0284835 0)
(0.640779 -0.0277119 0)
(0.640152 -0.0267913 0)
(0.637545 -0.0253503 0)
(0.636629 -0.0243765 0)
(0.62971 -0.0226261 0)
(0.999686 -0.00681612 0)
(0.998572 -0.0211555 0)
(0.994024 -0.0360454 0)
(0.990735 -0.0538738 0)
(0.980112 -0.0727431 0)
(0.977137 -0.0993989 0)
(0.955359 -0.125129 0)
(0.961981 -0.172238 0)
(0.915026 -0.206076 0)
(0.962161 -0.305008 0)
(0.864269 -0.345013 0)
(1.02872 -0.563772 0)
(0.976164 -0.718065 0)
(0.954134 -0.632712 0)
(0.843473 -0.476334 0)
(0.678594 -0.324091 0)
(0.521309 -0.199192 0)
(0.396485 -0.110761 0)
(0.300347 -0.0567752 0)
(0.231759 -0.0198364 0)
(0.177847 -0.0144267 0)
(0.160457 -0.0212984 0)
(0.166523 -0.0264923 0)
(0.177305 -0.0300457 0)
(0.188785 -0.0316655 0)
(0.200019 -0.0317467 0)
(0.210528 -0.0308603 0)
(0.220178 -0.0294384 0)
(0.229105 -0.0277589 0)
(0.237484 -0.0260009 0)
(0.245437 -0.0242792 0)
(0.253054 -0.0226674 0)
(0.260392 -0.0212133 0)
(0.267492 -0.0199476 0)
(0.274375 -0.0188888 0)
(0.281053 -0.0180465 0)
(0.28753 -0.0174251 0)
(0.293808 -0.0170255 0)
(0.299889 -0.0168456 0)
(0.30577 -0.0168802 0)
(0.311449 -0.0171228 0)
(0.316923 -0.0175671 0)
(0.322187 -0.0182034 0)
(0.327229 -0.0190169 0)
(0.332036 -0.0199875 0)
(0.336587 -0.0210901 0)
(0.340851 -0.0222949 0)
(0.344798 -0.0235671 0)
(0.34839 -0.024867 0)
(0.351589 -0.0261485 0)
(0.354354 -0.0273607 0)
(0.356651 -0.0284461 0)
(0.358436 -0.0293464 0)
(0.359685 -0.0300007 0)
(0.360348 -0.0303555 0)
(0.360416 -0.0303615 0)
(0.359829 -0.0299863 0)
(0.358593 -0.0292095 0)
(0.356666 -0.0280301 0)
(0.353962 -0.0264673 0)
(0.350754 -0.0245797 0)
(0.345951 -0.0223151 0)
(0.342403 -0.0201839 0)
(0.331364 -0.0168533 0)
(0.999688 -0.00580021 0)
(0.997665 -0.0178875 0)
(0.991806 -0.0307375 0)
(0.985569 -0.0457756 0)
(0.97204 -0.0626692 0)
(0.962525 -0.0851103 0)
(0.935472 -0.109718 0)
(0.92847 -0.149252 0)
(0.869105 -0.184585 0)
(0.89174 -0.272065 0)
(0.724591 -0.301569 0)
(0.9105 -0.590528 0)
(0.332799 -0.393979 0)
(0.237123 -0.23809 0)
(0.117892 -0.178067 0)
(0.0548485 -0.134524 0)
(0.0292324 -0.0929435 0)
(0.0174179 -0.060644 0)
(0.0111517 -0.0364053 0)
(0.00509303 -0.0159875 0)
(0.00893979 -0.0459085 0)
(0.0154523 -0.0594641 0)
(0.0285292 -0.0585335 0)
(0.0352998 -0.0551066 0)
(0.0414076 -0.0503154 0)
(0.0467923 -0.0456306 0)
(0.0515683 -0.0415249 0)
(0.0558237 -0.0379905 0)
(0.0596654 -0.0349491 0)
(0.0631974 -0.0323409 0)
(0.0665119 -0.0301099 0)
(0.0696838 -0.0282056 0)
(0.0727685 -0.0265886 0)
(0.0758011 -0.0252309 0)
(0.0787991 -0.0241129 0)
(0.0817655 -0.0232204 0)
(0.0846925 -0.0225433 0)
(0.087564 -0.022074 0)
(0.0903583 -0.0218062 0)
(0.0930496 -0.0217343 0)
(0.0956089 -0.0218505 0)
(0.098004 -0.0221418 0)
(0.100198 -0.0225898 0)
(0.10215 -0.0231709 0)
(0.103812 -0.0238571 0)
(0.105134 -0.0246177 0)
(0.106066 -0.0254198 0)
(0.10656 -0.0262298 0)
(0.106577 -0.0270124 0)
(0.106088 -0.0277295 0)
(0.105074 -0.0283391 0)
(0.103529 -0.0287938 0)
(0.101451 -0.0290439 0)
(0.0988503 -0.0290368 0)
(0.0957289 -0.0287257 0)
(0.0921093 -0.0280656 0)
(0.087984 -0.0270263 0)
(0.0833937 -0.0255818 0)
(0.0783126 -0.023728 0)
(0.0728085 -0.0214834 0)
(0.0668428 -0.0188502 0)
(0.0603941 -0.0158341 0)
(0.0535464 -0.0120381 0)
(0.0430072 -0.00867373 0)
(0.999691 -0.00442599 0)
(0.996872 -0.0136125 0)
(0.989893 -0.0235203 0)
(0.981047 -0.0349558 0)
(0.96511 -0.0483594 0)
(0.949437 -0.0652529 0)
(0.918898 -0.0860758 0)
(0.896635 -0.114235 0)
(0.8361 -0.149382 0)
(0.814921 -0.201557 0)
(0.672715 -0.257347 0)
(0.734156 -0.384493 0)
(0.311606 -0.266688 0)
(0.299963 -0.253633 0)
(0.207611 -0.229802 0)
(0.128791 -0.17886 0)
(0.0783391 -0.12239 0)
(0.0467307 -0.0760961 0)
(0.0290196 -0.0426515 0)
(0.0142043 -0.0164944 0)
(0.0211106 -0.0401468 0)
(-0.00316312 -0.0544713 0)
(-0.00502917 -0.0539447 0)
(-0.0145647 -0.0509297 0)
(-0.0216069 -0.0470482 0)
(-0.0282464 -0.0431937 0)
(-0.0344091 -0.0396353 0)
(-0.0401106 -0.0364784 0)
(-0.0453795 -0.0337309 0)
(-0.0502477 -0.0313635 0)
(-0.0547412 -0.0293378 0)
(-0.0588844 -0.0276159 0)
(-0.0627035 -0.0261635 0)
(-0.066229 -0.024951 0)
(-0.0694969 -0.0239538 0)
(-0.0725475 -0.0231516 0)
(-0.0754246 -0.0225289 0)
(-0.0781731 -0.0220747 0)
(-0.080838 -0.0217812 0)
(-0.0834639 -0.0216416 0)
(-0.0860959 -0.0216471 0)
(-0.0887807 -0.0217835 0)
(-0.0915692 -0.0220302 0)
(-0.094517 -0.02236 0)
(-0.0976832 -0.0227418 0)
(-0.101127 -0.0231444 0)
(-0.104904 -0.0235389 0)
(-0.109058 -0.0239002 0)
(-0.113619 -0.0242063 0)
(-0.118603 -0.0244343 0)
(-0.124005 -0.0245564 0)
(-0.129809 -0.0245366 0)
(-0.135987 -0.0243301 0)
(-0.142507 -0.0238857 0)
(-0.149327 -0.0231511 0)
(-0.156392 -0.0220776 0)
(-0.163634 -0.0206321 0)
(-0.170953 -0.018803 0)
(-0.178235 -0.0166077 0)
(-0.18531 -0.0140788 0)
(-0.192009 -0.0112408 0)
(-0.19822 -0.00811441 0)
(-0.204034 -0.00476531 0)
(-0.208985 -0.0015644 0)
(0.999657 -0.00276656 0)
(0.996363 -0.00854251 0)
(0.988343 -0.0147342 0)
(0.977973 -0.0220173 0)
(0.95946 -0.030371 0)
(0.940749 -0.041418 0)
(0.904642 -0.0541541 0)
(0.877325 -0.0733368 0)
(0.804981 -0.0931894 0)
(0.778841 -0.130013 0)
(0.61552 -0.152793 0)
(0.684057 -0.238377 0)
(0.290935 -0.144069 0)
(0.300153 -0.112495 0)
(0.215709 -0.0965939 0)
(0.140189 -0.0779138 0)
(0.089975 -0.0569755 0)
(0.0567816 -0.03779 0)
(0.0380618 -0.0220142 0)
(0.0202884 -0.0080352 0)
(0.0334759 -0.0257197 0)
(-0.00579714 -0.0377706 0)
(-0.0188089 -0.0388812 0)
(-0.0409594 -0.0366163 0)
(-0.0593836 -0.0337104 0)
(-0.0763752 -0.0308737 0)
(-0.0919939 -0.0282909 0)
(-0.106375 -0.0260222 0)
(-0.119653 -0.0240684 0)
(-0.131965 -0.022408 0)
(-0.143426 -0.021012 0)
(-0.154139 -0.0198497 0)
(-0.164193 -0.0188903 0)
(-0.173666 -0.0181053 0)
(-0.182629 -0.0174728 0)
(-0.191144 -0.0169754 0)
(-0.199272 -0.0166022 0)
(-0.207068 -0.0163482 0)
(-0.214591 -0.0162105 0)
(-0.221902 -0.0161841 0)
(-0.229066 -0.016257 0)
(-0.236157 -0.0164071 0)
(-0.243253 -0.0166033 0)
(-0.250435 -0.0168095 0)
(-0.257778 -0.0169921 0)
(-0.26535 -0.0171255 0)
(-0.273201 -0.0171957 0)
(-0.281365 -0.017198 0)
(-0.289856 -0.017132 0)
(-0.298669 -0.0169934 0)
(-0.307782 -0.0167675 0)
(-0.317152 -0.0164288 0)
(-0.326718 -0.01594 0)
(-0.336395 -0.0152673 0)
(-0.346069 -0.0143859 0)
(-0.355593 -0.0132883 0)
(-0.364796 -0.0119875 0)
(-0.373487 -0.0105151 0)
(-0.381461 -0.00891515 0)
(-0.388499 -0.00723524 0)
(-0.39439 -0.00552017 0)
(-0.398982 -0.00381126 0)
(-0.402184 -0.00213121 0)
(-0.403845 -0.000545391 0)
(0.999649 -0.000945137 0)
(0.996072 -0.00290402 0)
(0.987561 -0.0050319 0)
(0.976259 -0.00748892 0)
(0.95661 -0.0104086 0)
(0.935831 -0.0140895 0)
(0.897686 -0.0186761 0)
(0.866164 -0.0248708 0)
(0.791162 -0.0323217 0)
(0.757558 -0.0434396 0)
(0.594203 -0.0526749 0)
(0.652817 -0.0777591 0)
(0.274081 -0.0452947 0)
(0.293781 -0.0415353 0)
(0.219496 -0.0402129 0)
(0.149234 -0.033276 0)
(0.0994025 -0.0239163 0)
(0.0645658 -0.0153891 0)
(0.0444991 -0.0087124 0)
(0.0244031 -0.00307507 0)
(0.0414166 -0.00901181 0)
(-0.00637041 -0.0134374 0)
(-0.0255682 -0.0138977 0)
(-0.0547699 -0.013036 0)
(-0.0796346 -0.0119348 0)
(-0.102489 -0.0108702 0)
(-0.123477 -0.00990614 0)
(-0.142813 -0.00906849 0)
(-0.160691 -0.00836389 0)
(-0.177298 -0.00779035 0)
(-0.192797 -0.00734112 0)
(-0.207326 -0.00700679 0)
(-0.220999 -0.00677659 0)
(-0.233913 -0.00663922 0)
(-0.246149 -0.00658124 0)
(-0.257778 -0.00659284 0)
(-0.268873 -0.00666538 0)
(-0.279511 -0.00679012 0)
(-0.289778 -0.00695607 0)
(-0.299769 -0.00714793 0)
(-0.309583 -0.00734495 0)
(-0.319321 -0.00752164 0)
(-0.329075 -0.00765098 0)
(-0.338922 -0.00770949 0)
(-0.348924 -0.00768196 0)
(-0.359124 -0.00756465 0)
(-0.369547 -0.00736518 0)
(-0.380202 -0.00709788 0)
(-0.391082 -0.00677903 0)
(-0.402164 -0.00642135 0)
(-0.413403 -0.00603061 0)
(-0.424731 -0.00560432 0)
(-0.436057 -0.00513877 0)
(-0.447265 -0.004627 0)
(-0.458205 -0.00406976 0)
(-0.468705 -0.0034799 0)
(-0.478573 -0.00288272 0)
(-0.487609 -0.00231132 0)
(-0.495612 -0.00179764 0)
(-0.502385 -0.00136208 0)
(-0.507756 -0.00100582 0)
(-0.511601 -0.000705249 0)
(-0.513898 -0.000409878 0)
(-0.514825 -9.65327e-05 0)
(0.999649 0.000945116 0)
(0.996072 0.00290535 0)
(0.987561 0.0050358 0)
(0.976259 0.00749644 0)
(0.95661 0.0104207 0)
(0.935831 0.0141068 0)
(0.897686 0.0186992 0)
(0.866165 0.0249001 0)
(0.791162 0.0323568 0)
(0.757558 0.0434816 0)
(0.594203 0.0527195 0)
(0.652817 0.0778158 0)
(0.274081 0.0453213 0)
(0.29378 0.0415488 0)
(0.219496 0.0402223 0)
(0.149234 0.0332839 0)
(0.099402 0.0239241 0)
(0.064566 0.0153985 0)
(0.0445013 0.0087261 0)
(0.0244043 0.00311568 0)
(0.0414383 0.00938586 0)
(-0.00632738 0.0139442 0)
(-0.025514 0.0145057 0)
(-0.0547065 0.0137629 0)
(-0.0795612 0.0127997 0)
(-0.102408 0.0118707 0)
(-0.123388 0.0110203 0)
(-0.142717 0.0102537 0)
(-0.160588 0.00955812 0)
(-0.177188 0.00891406 0)
(-0.19268 0.00830129 0)
(-0.207204 0.00770223 0)
(-0.220875 0.00710414 0)
(-0.233788 0.00650115 0)
(-0.246023 0.00589796 0)
(-0.257657 0.00530417 0)
(-0.268762 0.00473511 0)
(-0.279418 0.00420952 0)
(-0.289713 0.00374698 0)
(-0.299742 0.00336589 0)
(-0.309606 0.00308205 0)
(-0.319405 0.00290817 0)
(-0.329226 0.00285315 0)
(-0.339147 0.00292062 0)
(-0.349226 0.00310724 0)
(-0.359502 0.00340087 0)
(-0.37 0.00378027 0)
(-0.380727 0.00421813 0)
(-0.391675 0.00468399 0)
(-0.402819 0.00514813 0)
(-0.414112 0.00558408 0)
(-0.425488 0.00596974 0)
(-0.436848 0.00628158 0)
(-0.448067 0.00649918 0)
(-0.458995 0.00659745 0)
(-0.469462 0.00654547 0)
(-0.479284 0.00630896 0)
(-0.48827 0.00585703 0)
(-0.496232 0.005173 0)
(-0.502984 0.00426777 0)
(-0.508359 0.00319424 0)
(-0.512228 0.00205322 0)
(-0.51456 0.000980058 0)
(-0.515514 0.000153874 0)
(0.999657 0.00276655 0)
(0.996363 0.00854386 0)
(0.988343 0.0147381 0)
(0.977973 0.0220249 0)
(0.95946 0.030383 0)
(0.940749 0.0414353 0)
(0.904642 0.054177 0)
(0.877325 0.0733662 0)
(0.804982 0.0932241 0)
(0.778842 0.130056 0)
(0.61552 0.152837 0)
(0.684057 0.238435 0)
(0.290935 0.144097 0)
(0.300151 0.112508 0)
(0.215706 0.0966025 0)
(0.140187 0.0779208 0)
(0.0899734 0.056982 0)
(0.0567816 0.0377971 0)
(0.038067 0.0220234 0)
(0.0202906 0.00806461 0)
(0.0335366 0.0260556 0)
(-0.00567052 0.0382444 0)
(-0.0186473 0.0394662 0)
(-0.0407698 0.0373224 0)
(-0.0591639 0.034558 0)
(-0.0761327 0.0318596 0)
(-0.0917332 0.0293926 0)
(-0.106099 0.0271965 0)
(-0.119364 0.0252529 0)
(-0.131661 0.0235233 0)
(-0.14311 0.0219654 0)
(-0.153814 0.0205407 0)
(-0.163862 0.0192184 0)
(-0.173335 0.0179785 0)
(-0.182304 0.0168103 0)
(-0.190835 0.0157176 0)
(-0.198992 0.0147149 0)
(-0.206835 0.0138256 0)
(-0.214426 0.0130773 0)
(-0.221832 0.0124974 0)
(-0.229122 0.012108 0)
(-0.236369 0.0119228 0)
(-0.243649 0.0119439 0)
(-0.251032 0.0121623 0)
(-0.258587 0.0125574 0)
(-0.26637 0.0130981 0)
(-0.274426 0.0137453 0)
(-0.282785 0.0144522 0)
(-0.29146 0.0151682 0)
(-0.300447 0.015841 0)
(-0.30972 0.0164201 0)
(-0.31923 0.016856 0)
(-0.328901 0.0171038 0)
(-0.338633 0.0171166 0)
(-0.348298 0.0168495 0)
(-0.357751 0.0162597 0)
(-0.366832 0.015309 0)
(-0.375376 0.0139699 0)
(-0.383215 0.0122364 0)
(-0.390169 0.0101378 0)
(-0.396051 0.00775528 0)
(-0.400709 0.005235 0)
(-0.404024 0.00277106 0)
(-0.405787 0.000628604 0)
(0.999691 0.004426 0)
(0.996872 0.0136138 0)
(0.989893 0.0235243 0)
(0.981046 0.0349633 0)
(0.96511 0.0483713 0)
(0.949438 0.0652701 0)
(0.918899 0.0860985 0)
(0.896635 0.114264 0)
(0.836102 0.149417 0)
(0.814922 0.201598 0)
(0.672718 0.257392 0)
(0.734152 0.384548 0)
(0.311605 0.266719 0)
(0.29996 0.253652 0)
(0.207607 0.229814 0)
(0.128787 0.178866 0)
(0.0783359 0.122395 0)
(0.0467292 0.0761008 0)
(0.0290242 0.0426557 0)
(0.0142051 0.0164997 0)
(0.0211953 0.0404096 0)
(-0.00296769 0.0548816 0)
(-0.00477177 0.0544726 0)
(-0.0142596 0.0515933 0)
(-0.0212483 0.0478614 0)
(-0.0278506 0.0441535 0)
(-0.0339877 0.0407181 0)
(-0.0396724 0.0376389 0)
(-0.0449313 0.0349048 0)
(-0.0497946 0.0324709 0)
(-0.0542878 0.0302869 0)
(-0.0584358 0.0283082 0)
(-0.0622659 0.0265004 0)
(-0.0658099 0.0248408 0)
(-0.0691047 0.0233182 0)
(-0.0721927 0.0219331 0)
(-0.0751197 0.0206963 0)
(-0.0779345 0.0196265 0)
(-0.0806869 0.018748 0)
(-0.0834279 0.0180863 0)
(-0.086209 0.0176641 0)
(-0.0890819 0.0174977 0)
(-0.0920975 0.0175936 0)
(-0.0953057 0.0179461 0)
(-0.0987544 0.0185358 0)
(-0.102489 0.0193296 0)
(-0.10655 0.0202807 0)
(-0.110974 0.0213305 0)
(-0.115787 0.0224111 0)
(-0.121002 0.0234499 0)
(-0.12662 0.024374 0)
(-0.132622 0.0251134 0)
(-0.138971 0.0256027 0)
(-0.145615 0.0257775 0)
(-0.152496 0.025574 0)
(-0.159542 0.0249269 0)
(-0.166681 0.0237762 0)
(-0.173833 0.0220738 0)
(-0.180921 0.0197986 0)
(-0.187834 0.0169555 0)
(-0.194454 0.013574 0)
(-0.2007 0.00972231 0)
(-0.206674 0.00558672 0)
(-0.211826 0.00171699 0)
(0.999688 0.00580026 0)
(0.997664 0.0178889 0)
(0.991806 0.0307415 0)
(0.985569 0.045783 0)
(0.97204 0.0626811 0)
(0.962525 0.0851272 0)
(0.935474 0.109741 0)
(0.92847 0.14928 0)
(0.869107 0.18462 0)
(0.89174 0.272107 0)
(0.724594 0.301613 0)
(0.910499 0.590588 0)
(0.332794 0.394002 0)
(0.237113 0.238101 0)
(0.11788 0.178077 0)
(0.0548397 0.134533 0)
(0.0292258 0.0929509 0)
(0.0174118 0.0606486 0)
(0.0111434 0.0364033 0)
(0.005081 0.0159746 0)
(0.00894215 0.046088 0)
(0.0155895 0.0597903 0)
(0.0287751 0.058987 0)
(0.0356359 0.0557136 0)
(0.041829 0.0510857 0)
(0.0472867 0.046559 0)
(0.0521208 0.0425846 0)
(0.0564216 0.0391357 0)
(0.0602955 0.0361146 0)
(0.0638471 0.0334458 0)
(0.067168 0.0310627 0)
(0.0703322 0.028909 0)
(0.0733939 0.0269454 0)
(0.0763874 0.0251505 0)