/*--------------------------------*- C++ -*----------------------------------*\
  =========                 |
  \\      /  F ield         | OpenFOAM: The Open Source CFD Toolbox
   \\    /   O peration     | Website:  https://openfoam.org
    \\  /    A nd           | Version:  10
     \\/     M anipulation  |
\*---------------------------------------------------------------------------*/
FoamFile
{
    format      ascii;
    class       volVectorField;
    location    "0.97";
    object      Ub;
}
// * * * * * * * * * * * * * * * * * * * * * * * * * * * * * * * * * * * * * //

dimensions      [0 1 -1 0 0 0 0];

internalField   nonuniform List<vector> 
12225
(
(0.00215283 -0.000437071 0)
(0.00614667 -0.000389722 0)
(0.00944361 -0.00032168 0)
(0.011999 -0.000253811 0)
(0.0139137 -0.000196909 0)
(0.0153383 -0.00015409 0)
(0.0164176 -0.000124633 0)
(0.0172716 -0.00010661 0)
(0.0179938 -9.82339e-05 0)
(0.0186576 -9.84415e-05 0)
(0.0193241 -0.000107224 0)
(0.0200525 -0.000126053 0)
(0.0209109 -0.000158852 0)
(0.0219972 -0.000214521 0)
(0.0234825 -0.000314306 0)
(0.0257369 -0.000518035 0)
(0.0298216 -0.0010486 0)
(0.0402794 -0.00312923 0)
(0.00231547 -0.00137729 0)
(0.00660231 -0.00122604 0)
(0.0101232 -0.00100963 0)
(0.0128348 -0.000794514 0)
(0.0148527 -0.000614715 0)
(0.0163438 -0.000479778 0)
(0.0174665 -0.00038716 0)
(0.0183504 -0.000330604 0)
(0.0190956 -0.000304349 0)
(0.0197795 -0.000304952 0)
(0.0204665 -0.000332263 0)
(0.0212172 -0.0003907 0)
(0.0221009 -0.000492119 0)
(0.0232135 -0.000663155 0)
(0.0247141 -0.000965885 0)
(0.0269083 -0.00156585 0)
(0.0304173 -0.00300794 0)
(0.0357665 -0.00762759 0)
(0.00243497 -0.00244723 0)
(0.0069302 -0.00217261 0)
(0.010596 -0.00178241 0)
(0.0133943 -0.00139685 0)
(0.0154575 -0.00107624 0)
(0.0169683 -0.000836686 0)
(0.0180964 -0.000672855 0)
(0.0189784 -0.00057309 0)
(0.0197183 -0.000526805 0)
(0.0203955 -0.000527599 0)
(0.0210746 -0.000574832 0)
(0.0218151 -0.000675623 0)
(0.0226818 -0.000849329 0)
(0.0237592 -0.00113861 0)
(0.0251715 -0.00163844 0)
(0.027105 -0.00257954 0)
(0.0297276 -0.00458843 0)
(0.03222 -0.00946122 0)
(0.00255423 -0.00365091 0)
(0.00725116 -0.00322958 0)
(0.011044 -0.0026365 0)
(0.0139051 -0.00205528 0)
(0.0159891 -0.00157544 0)
(0.0174977 -0.00121901 0)
(0.0186129 -0.000976397 0)
(0.0194777 -0.000829132 0)
(0.0201988 -0.000760769 0)
(0.0208561 -0.000761209 0)
(0.0215129 -0.00082872 0)
(0.022225 -0.000972367 0)
(0.0230494 -0.0012174 0)
(0.0240518 -0.00161795 0)
(0.0253105 -0.00228701 0)
(0.0268901 -0.00346814 0)
(0.028669 -0.00569279 0)
(0.0296322 -0.00995997 0)
(0.00268832 -0.00500594 0)
(0.00760546 -0.00440731 0)
(0.0115234 -0.00357493 0)
(0.0144317 -0.00276829 0)
(0.0165161 -0.00210868 0)
(0.0180029 -0.00162254 0)
(0.0190881 -0.00129363 0)
(0.0199211 -0.00109478 0)
(0.0206105 -0.00100232 0)
(0.0212356 -0.00100149 0)
(0.0218566 -0.00108859 0)
(0.0225239 -0.00127335 0)
(0.0232833 -0.00158428 0)
(0.0241786 -0.00208047 0)
(0.0252415 -0.00287592 0)
(0.0264434 -0.00418429 0)
(0.0275357 -0.00637036 0)
(0.0276949 -0.00983584 0)
(0.00284912 -0.00653942 0)
(0.00802287 -0.0057216 0)
(0.0120716 -0.00460253 0)
(0.0150125 -0.00353401 0)
(0.0170756 -0.00267121 0)
(0.0185188 -0.00204174 0)
(0.0195549 -0.00161915 0)
(0.02034 -0.00136494 0)
(0.0209839 -0.00124649 0)
(0.0215635 -0.00124315 0)
(0.0221351 -0.00134804 0)
(0.0227414 -0.00156984 0)
(0.0234159 -0.00193701 0)
(0.0241802 -0.00250652 0)
(0.0250271 -0.00337871 0)
(0.025873 -0.00471358 0)
(0.0264518 -0.00671349 0)
(0.0261975 -0.00943892 0)
(0.00304999 -0.00828981 0)
(0.00853511 -0.00719353 0)
(0.0127244 -0.00572443 0)
(0.0156805 -0.0043486 0)
(0.0176955 -0.00325564 0)
(0.0190689 -0.00246858 0)
(0.0200336 -0.00194542 0)
(0.0207524 -0.00163272 0)
(0.0213349 -0.00148673 0)
(0.021855 -0.0014794 0)
(0.0223629 -0.00159926 0)
(0.0228931 -0.00185191 0)
(0.0234662 -0.00226226 0)
(0.0240844 -0.00287892 0)
(0.0247143 -0.00377912 0)
(0.0252506 -0.00506397 0)
(0.0254654 -0.00681288 0)
(0.025007 -0.00893292 0)
(0.00330875 -0.0103115 0)
(0.00918251 -0.00885025 0)
(0.0135243 -0.0069446 0)
(0.0164704 -0.00520422 0)
(0.018402 -0.00385031 0)
(0.0196727 -0.00289137 0)
(0.0205389 -0.00226192 0)
(0.0211698 -0.00188884 0)
(0.0216736 -0.00171453 0)
(0.0221189 -0.00170179 0)
(0.022549 -0.00183301 0)
(0.0229894 -0.0021087 0)
(0.023449 -0.0025471 0)
(0.0239152 -0.00318414 0)
(0.0243406 -0.00407042 0)
(0.0246227 -0.00525554 0)
(0.0245892 -0.00674167 0)
(0.0240384 -0.00839066 0)
(0.00365146 -0.0126829 0)
(0.0100214 -0.0107259 0)
(0.0145252 -0.00826334 0)
(0.0174225 -0.00608624 0)
(0.0192222 -0.00443712 0)
(0.020348 -0.00329322 0)
(0.0210828 -0.00255421 0)
(0.0216009 -0.00212103 0)
(0.0220064 -0.00191902 0)
(0.0223609 -0.00190002 0)
(0.0226997 -0.00203875 0)
(0.0230389 -0.00232888 0)
(0.0233775 -0.0027798 0)
(0.0236934 -0.00341279 0)
(0.0239359 -0.00425327 0)
(0.0240175 -0.00531261 0)
(0.0238196 -0.00655312 0)
(0.0232353 -0.00784244 0)
(0.00411853 -0.0155198 0)
(0.0111349 -0.0128621 0)
(0.0158005 -0.00967252 0)
(0.0185859 -0.00696849 0)
(0.0201855 -0.00498823 0)
(0.0211116 -0.00365015 0)
(0.021675 -0.00280281 0)
(0.0220514 -0.00231341 0)
(0.0223373 -0.00208673 0)
(0.0225849 -0.00206191 0)
(0.0228198 -0.00220482 0)
(0.023049 -0.00250114 0)
(0.0232638 -0.00295037 0)
(0.0234374 -0.00355947 0)
(0.0235222 -0.00433327 0)
(0.0234506 -0.00525878 0)
(0.0231466 -0.00628358 0)
(0.0225591 -0.00729925 0)
(0.00477609 -0.0190004 0)
(0.0126519 -0.0153062 0)
(0.0174524 -0.011146 0)
(0.0200212 -0.00780561 0)
(0.0213231 -0.00546155 0)
(0.0219784 -0.00392859 0)
(0.0223221 -0.00298195 0)
(0.0225242 -0.00244594 0)
(0.0226681 -0.00220139 0)
(0.0227929 -0.00217353 0)
(0.022913 -0.00231884 0)
(0.0230267 -0.00261463 0)
(0.0231191 -0.00305083 0)
(0.0231621 -0.00362209 0)
(0.023115 -0.00431853 0)
(0.0229287 -0.00511434 0)
(0.0225579 -0.00595672 0)
(0.021982 -0.00676357 0)
(0.00566956 -0.0229885 0)
(0.0146309 -0.0178587 0)
(0.0194783 -0.0125103 0)
(0.0216876 -0.00847785 0)
(0.0225861 -0.00578152 0)
(0.0229063 -0.00408149 0)
(0.0229939 -0.00306117 0)
(0.0230014 -0.00249726 0)
(0.0229924 -0.00224648 0)
(0.0229894 -0.0022211 0)
(0.0229949 -0.00236923 0)
(0.0229988 -0.00266108 0)
(0.0229819 -0.00307886 0)
(0.0229166 -0.00360846 0)
(0.0227688 -0.00423135 0)
(0.0225033 -0.00491699 0)
(0.0220932 -0.00561823 0)
(0.0215322 -0.00627422 0)
(0.00691892 -0.0281114 0)
(0.0172662 -0.0206892 0)
(0.0219767 -0.0137462 0)
(0.0236059 -0.00892841 0)
(0.0239565 -0.00589778 0)
(0.0238611 -0.00407166 0)
(0.0236497 -0.00301425 0)
(0.0234399 -0.00244903 0)
(0.0232662 -0.00220925 0)
(0.0231301 -0.00219596 0)
(0.0230203 -0.00235065 0)
(0.0229184 -0.00263813 0)
(0.0228012 -0.00303512 0)
(0.0226423 -0.00352199 0)
(0.0224139 -0.00407611 0)
(0.0220911 -0.00466714 0)
(0.0216588 -0.00525562 0)
(0.0211178 -0.00579705 0)
(0.00917094 -0.0361218 0)
(0.0217139 -0.0241704 0)
(0.0257697 -0.0147713 0)
(0.0262788 -0.00900633 0)
(0.0257446 -0.00568323 0)
(0.0250445 -0.00380519 0)
(0.0244274 -0.00277353 0)
(0.0239376 -0.00225231 0)
(0.0235596 -0.00205373 0)
(0.0232646 -0.00207107 0)
(0.0230224 -0.00224201 0)
(0.0228044 -0.00252823 0)
(0.0225834 -0.00290327 0)
(0.0223336 -0.00334472 0)
(0.0220325 -0.00382918 0)
(0.0216632 -0.00432958 0)
(0.0212179 -0.00481541 0)
(0.0207001 -0.00525605 0)
(0.0137704 -0.050121 0)
(0.0299622 -0.0277309 0)
(0.0317142 -0.0147057 0)
(0.02997 -0.00811458 0)
(0.0279985 -0.00477548 0)
(0.0264375 -0.00305947 0)
(0.0252919 -0.00219505 0)
(0.0244587 -0.0018078 0)
(0.0238418 -0.00170674 0)
(0.023368 -0.00178905 0)
(0.022983 -0.00199604 0)
(0.0226457 -0.00229141 0)
(0.0223236 -0.00264966 0)
(0.0219911 -0.00304944 0)
(0.021629 -0.00347006 0)
(0.021225 -0.00389012 0)
(0.0207748 -0.00428808 0)
(0.0202821 -0.00464448 0)
(0.0249428 -0.0791544 0)
(0.047336 -0.0272725 0)
(0.0410258 -0.0109741 0)
(0.03471 -0.00501851 0)
(0.0305327 -0.00256894 0)
(0.0278607 -0.00151049 0)
(0.0261048 -0.00108756 0)
(0.0249033 -0.00099137 0)
(0.0240423 -0.0010804 0)
(0.0233924 -0.001283 0)
(0.022871 -0.00155906 0)
(0.0224233 -0.00188363 0)
(0.0220116 -0.0022385 0)
(0.0216096 -0.00260817 0)
(0.0211999 -0.00297803 0)
(0.0207726 -0.00333393 0)
(0.0203242 -0.00366277 0)
(0.0198569 -0.00395368 0)
(0.059381 0.000769478 0)
(0.0909188 0.00315715 0)
(0.0532846 0.00265019 0)
(0.0391539 0.00206576 0)
(0.0325248 0.00157285 0)
(0.0288729 0.00113146 0)
(0.0266271 0.000714232 0)
(0.0251317 0.000308693 0)
(0.0240699 -9.07443e-05 0)
(0.0232702 -0.00048624 0)
(0.0226306 -0.000875078 0)
(0.0220872 -0.00125852 0)
(0.0216001 -0.00163272 0)
(0.0211433 -0.00199268 0)
(0.0207 -0.00233261 0)
(0.0202608 -0.00264648 0)
(0.0198215 -0.00292881 0)
(0.0193818 -0.00317536 0)
(0.0205067 0.0762616 0)
(0.0405606 0.032018 0)
(0.0374666 0.0164138 0)
(0.0327146 0.00967276 0)
(0.029148 0.00622092 0)
(0.0266975 0.00418996 0)
(0.0250041 0.00285139 0)
(0.0237951 0.00188412 0)
(0.0228944 0.00113234 0)
(0.0221907 0.000514724 0)
(0.0216143 -1.07594e-05 0)
(0.0211198 -0.000471868 0)
(0.0206742 -0.000879222 0)
(0.0202566 -0.00124486 0)
(0.0198555 -0.00157224 0)
(0.0194643 -0.00186292 0)
(0.0190799 -0.0021177 0)
(0.0187016 -0.0023373 0)
(0.00783862 0.040464 0)
(0.0187667 0.0278883 0)
(0.0226638 0.0185279 0)
(0.0234398 0.0125369 0)
(0.023126 0.00871297 0)
(0.022522 0.0061836 0)
(0.021903 0.00443134 0)
(0.0213463 0.00315923 0)
(0.0208607 0.00219485 0)
(0.0204345 0.00143566 0)
(0.0200522 0.00081911 0)
(0.0197001 0.000306529 0)
(0.0193696 -0.000123889 0)
(0.0190537 -0.000491852 0)
(0.0187461 -0.000807376 0)
(0.0184436 -0.00107951 0)
(0.0181453 -0.00131326 0)
(0.0178513 -0.00151256 0)
(0.00427007 0.0245342 0)
(0.0112137 0.0202377 0)
(0.0153168 0.0155834 0)
(0.0174454 0.0117222 0)
(0.0184567 0.00877531 0)
(0.0188839 0.00657604 0)
(0.0190144 0.00492929 0)
(0.018994 0.00367786 0)
(0.018895 0.00270814 0)
(0.0187526 0.00194118 0)
(0.0185843 0.00132282 0)
(0.0183987 0.000815864 0)
(0.0182007 0.000394603 0)
(0.0179936 4.20516e-05 0)
(0.0177808 -0.000253827 0)
(0.0175636 -0.000503493 0)
(0.017343 -0.00071556 0)
(0.0171209 -0.000895217 0)
(0.00293711 0.0172633 0)
(0.00805847 0.0151553 0)
(0.0116902 0.012462 0)
(0.0140455 0.00991144 0)
(0.0155076 0.00775769 0)
(0.0163943 0.00602456 0)
(0.0169203 0.00465401 0)
(0.0172195 0.0035721 0)
(0.017373 0.00271259 0)
(0.0174299 0.00202276 0)
(0.0174202 0.0014627 0)
(0.0173631 0.0010029 0)
(0.0172712 0.000621688 0)
(0.0171535 0.000303168 0)
(0.0170167 3.59558e-05 0)
(0.0168666 -0.000187546 0)
(0.016707 -0.00037563 0)
(0.0165404 -0.000534656 0)
(0.00227367 0.0126985 0)
(0.00638457 0.0114917 0)
(0.00957816 0.00980508 0)
(0.011889 0.00807368 0)
(0.0134992 0.0065113 0)
(0.0146 0.00518636 0)
(0.0153435 0.00409563 0)
(0.0158385 0.00320851 0)
(0.0161594 0.00248856 0)
(0.0163563 0.00190231 0)
(0.0164634 0.00142201 0)
(0.0165043 0.0010257 0)
(0.0164954 0.000696441 0)
(0.0164491 0.000421238 0)
(0.0163743 0.000190151 0)
(0.0162784 -4.0208e-06 0)
(0.0161673 -0.000166362 0)
(0.016045 -0.000303112 0)
(0.00189655 0.00952189 0)
(0.0053964 0.00876306 0)
(0.00825867 0.00764492 0)
(0.010464 0.00643711 0)
(0.0121043 0.00529802 0)
(0.0133001 0.00429628 0)
(0.0141607 0.00344743 0)
(0.0147728 0.00274144 0)
(0.0152013 0.00215882 0)
(0.0154934 0.00167863 0)
(0.0156832 0.00128192 0)
(0.0157955 0.000952787 0)
(0.0158489 0.000678419 0)
(0.015857 0.000448668 0)
(0.0158303 0.000255565 0)
(0.0157771 9.28397e-05 0)
(0.0157041 -4.38787e-05 0)
(0.0156165 -0.000158192 0)
(0.00166142 0.00716337 0)
(0.00476537 0.00665988 0)
(0.00738425 0.00589249 0)
(0.0094819 0.00503559 0)
(0.0111068 0.004203 0)
(0.0123392 0.00345209 0)
(0.0132606 0.00280253 0)
(0.0139415 0.00225338 0)
(0.0144379 0.00179443 0)
(0.0147931 0.00141256 0)
(0.01504 0.00109488 0)
(0.0152034 0.000830026 0)
(0.0153022 0.000608497 0)
(0.0153509 0.000422577 0)
(0.0153608 0.000266075 0)
(0.0153405 0.000134046 0)
(0.0152971 2.25254e-05 0)
(0.0152365 -7.06716e-05 0)
(0.0015041 0.00533655 0)
(0.00433615 0.00499396 0)
(0.0067735 0.00445972 0)
(0.00877525 0.00384972 0)
(0.0103674 0.00324488 0)
(0.0116067 0.00268971 0)
(0.0125568 0.0022024 0)
(0.0132762 0.00178551 0)
(0.0138141 0.00143382 0)
(0.0142103 0.00113906 0)
(0.0144958 0.000892503 0)
(0.0146949 0.000686104 0)
(0.0148263 0.000512957 0)
(0.0149049 0.000367328 0)
(0.0149421 0.000244547 0)
(0.0149469 0.000140833 0)
(0.0149267 5.31252e-05 0)
(0.0148872 -2.07164e-05 0)
(0.00139203 0.00388111 0)
(0.00402647 0.00364786 0)
(0.00632344 0.00327813 0)
(0.00824142 0.00284954 0)
(0.00979418 0.00241859 0)
(0.0110242 0.00201818 0)
(0.0119832 0.00166306 0)
(0.0127216 0.00135667 0)
(0.0132832 0.0010964 0)
(0.0137047 0.000877079 0)
(0.0140154 0.000692836 0)
(0.0142388 0.000538097 0)
(0.0143934 0.000407962 0)
(0.0144936 0.0002983 0)
(0.0145511 0.000205705 0)
(0.014575 0.000127397 0)
(0.0145726 6.11106e-05 0)
(0.0145498 5.03549e-06 0)
(0.00130653 0.00269992 0)
(0.0037876 0.0025453 0)
(0.0059697 0.00229723 0)
(0.00781213 0.00200665 0)
(0.00932173 0.00171166 0)
(0.010532 0.00143525 0)
(0.0114869 0.00118831 0)
(0.0122306 0.000973953 0)
(0.0128032 0.000790951 0)
(0.0132386 0.000636104 0)
(0.0135646 0.000505596 0)
(0.0138038 0.000395698 0)
(0.0139741 0.00030308 0)
(0.0140897 0.000224903 0)
(0.0141621 0.000158803 0)
(0.0142003 0.00010284 0)
(0.0142117 5.54196e-05 0)
(0.0142021 1.5232e-05 0)
(0.00123498 0.00173078 0)
(0.0035856 0.00163508 0)
(0.00566511 0.00148016 0)
(0.00743412 0.00129736 0)
(0.00889549 0.00111057 0)
(0.0100769 0.000934516 0)
(0.0110168 0.000776439 0)
(0.0117551 0.000638618 0)
(0.0123284 0.000520522 0)
(0.0127686 0.000420287 0)
(0.013102 0.000335587 0)
(0.0133501 0.00026411 0)
(0.0135301 0.000203765 0)
(0.013656 0.000152753 0)
(0.0137388 0.000109568 0)
(0.0137875 7.29665e-05 0)
(0.0138093 4.19216e-05 0)
(0.0138099 1.55791e-05 0)
(0.00116508 0.000933075 0)
(0.00338618 0.00088275 0)
(0.00535886 0.000800714 0)
(0.00704546 0.000703432 0)
(0.00844653 0.00060359 0)
(0.00958579 0.000509114 0)
(0.0104974 0.000423985 0)
(0.0112177 0.000349536 0)
(0.0117807 0.00028557 0)
(0.0122158 0.000231149 0)
(0.0125479 0.000185069 0)
(0.0127975 0.000146113 0)
(0.0129808 0.000113173 0)
(0.0131114 8.52891e-05 0)
(0.0131999 6.16556e-05 0)
(0.0132548 4.16034e-05 0)
(0.0132833 2.45777e-05 0)
(0.0132908 1.01123e-05 0)
(0.00105969 0.000286531 0)
(0.00308158 0.000271295 0)
(0.00488084 0.000246348 0)
(0.00642255 0.00021668 0)
(0.00770589 0.000186154 0)
(0.00875114 0.000157203 0)
(0.00958839 0.000131063 0)
(0.01025 0.00010816 0)
(0.0107667 8.84493e-05 0)
(0.0111651 7.16548e-05 0)
(0.0114679 5.74149e-05 0)
(0.0116939 4.53618e-05 0)
(0.0118582 3.51584e-05 0)
(0.0119731 2.65125e-05 0)
(0.0120486 1.91775e-05 0)
(0.0120928 1.29484e-05 0)
(0.0121121 7.65488e-06 0)
(0.0121118 3.15221e-06 0)
(6.59458e-34 -1.57121e-33 -2.02996e-59)
(1.9836e-33 -1.56893e-33 2.02545e-59)
(3.31563e-33 -1.56494e-33 0)
(4.65397e-33 -1.55921e-33 0)
(5.99691e-33 -1.5517e-33 0)
(7.34272e-33 -1.54238e-33 -1.9848e-59)
(8.68955e-33 -1.5312e-33 0)
(1.00355e-32 -1.51817e-33 0)
(1.13786e-32 -1.50325e-33 0)
(1.27169e-32 -1.48645e-33 0)
(1.40482e-32 -1.46778e-33 1.88048e-59)
(1.53705e-32 -1.44728e-33 0)
(1.66817e-32 -1.42499e-33 0)
(1.79797e-32 -1.401e-33 0)
(1.92625e-32 -1.37539e-33 0)
(2.05281e-32 -1.34828e-33 1.71837e-59)
(2.17746e-32 -1.3198e-33 0)
(2.30001e-32 -1.29009e-33 0)
(2.42032e-32 -1.25931e-33 0)
(2.53821e-32 -1.22764e-33 0)
(2.65357e-32 -1.19524e-33 0)
(2.76625e-32 -1.1623e-33 0)
(2.87617e-32 -1.12897e-33 0)
(2.98324e-32 -1.09545e-33 1.38061e-59)
(3.08738e-32 -1.06187e-33 -1.33599e-59)
(3.18855e-32 -1.02841e-33 1.29155e-59)
(3.28671e-32 -9.95204e-34 1.24747e-59)
(3.38184e-32 -9.62375e-34 0)
(3.47394e-32 -9.30041e-34 0)
(3.56301e-32 -8.98303e-34 -1.11897e-59)
(3.64908e-32 -8.67248e-34 -1.07782e-59)
(3.73217e-32 -8.36948e-34 0)
(3.81232e-32 -8.07462e-34 0)
(3.88959e-32 -7.78837e-34 -9.60707e-60)
(3.96403e-32 -7.51106e-34 0)
(4.03569e-32 -7.24296e-34 0)
(4.10465e-32 -6.98419e-34 8.54232e-60)
(4.17097e-32 -6.73484e-34 0)
(4.23472e-32 -6.49489e-34 7.89455e-60)
(4.29599e-32 -6.26428e-34 1.51785e-59)
(4.35483e-32 -6.04289e-34 0)
(4.41133e-32 -5.83055e-34 0)
(4.46556e-32 -5.62707e-34 0)
(4.5176e-32 -5.43223e-34 0)
(4.56752e-32 -5.24578e-34 0)
(4.61539e-32 -5.06746e-34 1.20094e-59)
(4.66128e-32 -4.89702e-34 1.1558e-59)
(4.70527e-32 -4.73416e-34 1.11266e-59)
(4.74742e-32 -4.57862e-34 0)
(4.7878e-32 -4.43012e-34 -1.03212e-59)
(4.82648e-32 -4.28838e-34 0)
(4.86351e-32 -4.15314e-34 9.58738e-60)
(4.89896e-32 -4.02412e-34 9.24549e-60)
(4.93288e-32 -3.90108e-34 0)
(4.96534e-32 -3.78375e-34 0)
(4.99639e-32 -3.67189e-34 0)
(5.02608e-32 -3.56528e-34 8.02943e-60)
(5.05447e-32 -3.46369e-34 0)
(5.0816e-32 -3.36689e-34 0)
(5.10752e-32 -3.27468e-34 0)
(5.13228e-32 -3.18686e-34 0)
(5.15593e-32 -3.10324e-34 0)
(5.1785e-32 -3.02363e-34 0)
(5.20004e-32 -2.94786e-34 0)
(5.2206e-32 -2.87575e-34 0)
(5.2402e-32 -2.80715e-34 -6.01914e-60)
(5.25889e-32 -2.7419e-34 0)
(5.2767e-32 -2.67986e-34 0)
(5.29367e-32 -2.62088e-34 5.52502e-60)
(5.30983e-32 -2.56482e-34 5.37628e-60)
(5.32522e-32 -2.51156e-34 0)
(5.33987e-32 -2.46097e-34 -5.10077e-60)
(5.3538e-32 -2.41294e-34 4.97329e-60)
(5.36705e-32 -2.36734e-34 0)
(5.37965e-32 -2.32407e-34 -4.73747e-60)
(5.39162e-32 -2.28302e-34 0)
(5.40299e-32 -2.2441e-34 0)
(5.41379e-32 -2.2072e-34 4.42733e-60)
(5.42403e-32 -2.17224e-34 0)
(5.43376e-32 -2.13912e-34 -4.24661e-60)
(5.44297e-32 -2.10775e-34 0)
(5.45171e-32 -2.07807e-34 4.08457e-60)
(5.45999e-32 -2.04999e-34 4.01003e-60)
(5.46783e-32 -2.02343e-34 3.93952e-60)
(5.47526e-32 -1.99832e-34 7.74575e-60)
(5.48228e-32 -1.97459e-34 -7.61975e-60)
(5.48892e-32 -1.95219e-34 0)
(5.4952e-32 -1.93103e-34 0)
(5.50114e-32 -1.91106e-34 0)
(5.50674e-32 -1.89223e-34 -7.18241e-60)
(5.51203e-32 -1.87448e-34 -7.08811e-60)
(5.51702e-32 -1.85774e-34 6.99926e-60)
(5.52173e-32 -1.84198e-34 0)
(5.52617e-32 -1.82715e-34 -6.83676e-60)
(5.53035e-32 -1.81318e-34 -6.76258e-60)
(5.53428e-32 -1.80005e-34 -6.69283e-60)
(5.53799e-32 -1.78771e-34 0)
(5.54147e-32 -1.77611e-34 0)
(5.54475e-32 -1.76521e-34 0)
(5.54783e-32 -1.75499e-34 -6.45347e-60)
(5.55072e-32 -1.7454e-34 0)
(5.55343e-32 -1.73641e-34 0)
(5.55598e-32 -1.72798e-34 6.30999e-60)
(5.55837e-32 -1.72008e-34 0)
(5.5606e-32 -1.7127e-34 0)
(5.5627e-32 -1.70578e-34 6.19206e-60)
(5.56466e-32 -1.69932e-34 0)
(5.5665e-32 -1.69328e-34 0)
(5.56821e-32 -1.68764e-34 -6.09564e-60)
(5.56982e-32 -1.68237e-34 -6.06766e-60)
(5.57132e-32 -1.67746e-34 0)
(5.57272e-32 -1.67288e-34 6.01719e-60)
(5.57402e-32 -1.66861e-34 0)
(5.57524e-32 -1.66463e-34 -5.9734e-60)
(5.57637e-32 -1.66093e-34 0)
(5.57742e-32 -1.65749e-34 -5.93544e-60)
(5.57841e-32 -1.65429e-34 -5.91847e-60)
(5.57932e-32 -1.65132e-34 0)
(5.58017e-32 -1.64856e-34 0)
(5.58096e-32 -1.646e-34 0)
(5.58169e-32 -1.64363e-34 0)
(5.58237e-32 -1.64143e-34 0)
(5.583e-32 -1.6394e-34 0)
(5.58358e-32 -1.63751e-34 0)
(5.58412e-32 -1.63577e-34 -5.81996e-60)
(5.58462e-32 -1.63415e-34 5.81141e-60)
(5.58508e-32 -1.63267e-34 0)
(5.58551e-32 -1.63129e-34 0)
(5.5859e-32 -1.63002e-34 0)
(5.58627e-32 -1.62885e-34 0)
(5.5866e-32 -1.62777e-34 1.1555e-59)
(5.58691e-32 -1.62678e-34 0)
(5.5872e-32 -1.62587e-34 -1.15347e-59)
(5.58746e-32 -1.62502e-34 1.15257e-59)
(5.5877e-32 -1.62425e-34 0)
(5.58792e-32 -1.62353e-34 0)
(5.58812e-32 -1.62287e-34 0)
(5.5883e-32 -1.62227e-34 -1.14964e-59)
(5.58847e-32 -1.6217e-34 -1.14904e-59)
(5.58863e-32 -1.62119e-34 0)
(5.58876e-32 -1.62071e-34 -1.14798e-59)
(5.58889e-32 -1.62026e-34 -1.14751e-59)
(5.589e-32 -1.61984e-34 1.14706e-59)
(5.58911e-32 -1.61944e-34 0)
(5.5892e-32 -1.61907e-34 0)
(5.58928e-32 -1.6187e-34 1.14586e-59)
(5.58934e-32 -1.61835e-34 0)
(5.5894e-32 -1.61799e-34 0)
(5.58945e-32 -1.61764e-34 0)
(5.58948e-32 -1.61726e-34 0)
(5.5895e-32 -1.61687e-34 -1.14394e-59)
(5.58951e-32 -1.61643e-34 -1.14349e-59)
(5.5895e-32 -1.61595e-34 0)
(5.58948e-32 -1.61539e-34 -1.14242e-59)
(5.58943e-32 -1.61475e-34 0)
(5.58935e-32 -1.61398e-34 0)
(5.58925e-32 -1.61306e-34 -1.14003e-59)
(5.58911e-32 -1.61194e-34 0)
(5.58892e-32 -1.61056e-34 -1.13748e-59)
(5.58867e-32 -1.60885e-34 0)
(5.58835e-32 -1.60672e-34 0)
(5.58793e-32 -1.60405e-34 -1.13084e-59)
(5.5874e-32 -1.60068e-34 0)
(5.58671e-32 -1.59641e-34 -1.12306e-59)
(5.58583e-32 -1.59098e-34 0)
(5.58471e-32 -1.58403e-34 0)
(5.58325e-32 -1.57509e-34 0)
(5.58138e-32 -1.56353e-34 1.08956e-59)
(5.57895e-32 -1.54847e-34 0)
(5.57579e-32 -1.5287e-34 -1.05407e-59)
(5.57166e-32 -1.50246e-34 0)
(5.56622e-32 -1.46719e-34 0)
(5.55898e-32 -1.41896e-34 0)
(5.54923e-32 -1.35147e-34 0)
(5.53588e-32 -1.25399e-34 0)
(5.51713e-32 -1.10658e-34 0)
(5.48981e-32 -8.67599e-35 0)
(5.44748e-32 -4.3374e-35 -1.31934e-60)
(5.37386e-32 5.26161e-35 0)
(5.2107e-32 3.53602e-34 0)
(6.63005e-34 -4.39792e-33 5.68181e-59)
(1.99426e-33 -4.39107e-33 -5.66824e-59)
(3.33345e-33 -4.3791e-33 0)
(4.67898e-33 -4.36189e-33 1.12531e-58)
(6.02914e-33 -4.33932e-33 0)
(7.38218e-33 -4.31129e-33 -5.5635e-59)
(8.73624e-33 -4.27771e-33 -1.10163e-58)
(1.00894e-32 -4.23848e-33 -1.09085e-58)
(1.14396e-32 -4.19355e-33 0)
(1.27848e-32 -4.14293e-33 -1.06488e-58)
(1.41229e-32 -4.08664e-33 5.26518e-59)
(1.54516e-32 -4.02477e-33 0)
(1.6769e-32 -3.9575e-33 0)
(1.80727e-32 -3.88504e-33 0)
(1.93607e-32 -3.80768e-33 0)
(2.06309e-32 -3.72577e-33 4.79108e-59)
(2.18814e-32 -3.63971e-33 0)
(2.31104e-32 -3.54995e-33 9.06728e-59)
(2.43162e-32 -3.45699e-33 0)
(2.54973e-32 -3.36134e-33 0)
(2.66522e-32 -3.26353e-33 -8.31016e-59)
(2.77798e-32 -3.1641e-33 0)
(2.88791e-32 -3.06357e-33 7.78278e-59)
(2.99493e-32 -2.96248e-33 3.79356e-59)
(3.09897e-32 -2.86131e-33 -3.66157e-59)
(3.19999e-32 -2.76052e-33 3.53011e-59)
(3.29795e-32 -2.66053e-33 3.39973e-59)
(3.39284e-32 -2.56175e-33 0)
(3.48467e-32 -2.4645e-33 0)
(3.57344e-32 -2.3691e-33 -3.0198e-59)
(3.65919e-32 -2.27579e-33 -8.60817e-59)
(3.74194e-32 -2.18478e-33 0)
(3.82174e-32 -2.09626e-33 0)
(3.89865e-32 -2.01036e-33 -2.5523e-59)
(3.97272e-32 -1.92717e-33 0)
(4.04402e-32 -1.84676e-33 0)
(4.11262e-32 -1.76918e-33 2.23806e-59)
(4.17858e-32 -1.69443e-33 0)
(4.24198e-32 -1.62253e-33 6.04082e-59)
(4.3029e-32 -1.55343e-33 3.91394e-59)
(4.36141e-32 -1.48711e-33 0)
(4.41759e-32 -1.42351e-33 0)
(4.4715e-32 -1.36257e-33 -6.62202e-59)
(4.52324e-32 -1.30422e-33 -6.31548e-59)
(4.57287e-32 -1.24839e-33 -6.02216e-59)
(4.62046e-32 -1.195e-33 8.72156e-59)
(4.66609e-32 -1.14397e-33 2.84692e-59)
(4.70983e-32 -1.09521e-33 -2.49746e-59)
(4.75174e-32 -1.04864e-33 4.97262e-59)
(4.79189e-32 -1.00419e-33 -2.48263e-59)
(4.83034e-32 -9.61754e-34 0)
(4.86717e-32 -9.21266e-34 2.26651e-59)
(4.90242e-32 -8.82642e-34 6.266e-59)
(4.93615e-32 -8.45804e-34 0)
(4.96843e-32 -8.10679e-34 0)
(4.99931e-32 -7.77192e-34 0)
(5.02884e-32 -7.45273e-34 1.80776e-59)
(5.05708e-32 -7.14856e-34 0)
(5.08406e-32 -6.85875e-34 3.06576e-59)
(5.10985e-32 -6.58267e-34 0)
(5.13448e-32 -6.31972e-34 2.78233e-59)
(5.158e-32 -6.06934e-34 0)
(5.18046e-32 -5.83097e-34 -2.52531e-59)
(5.20189e-32 -5.60407e-34 0)
(5.22234e-32 -5.38816e-34 2.29243e-59)
(5.24184e-32 -5.18274e-34 -3.40034e-59)
(5.26044e-32 -4.98736e-34 0)
(5.27816e-32 -4.80156e-34 -1.98389e-59)
(5.29505e-32 -4.62493e-34 1.0705e-59)
(5.31113e-32 -4.45706e-34 1.02673e-59)
(5.32644e-32 -4.29755e-34 0)
(5.34102e-32 -4.14605e-34 -2.5847e-59)
(5.35488e-32 -4.00219e-34 9.08116e-60)
(5.36807e-32 -3.86563e-34 0)
(5.38061e-32 -3.73604e-34 -8.38709e-60)
(5.39252e-32 -3.6131e-34 -1.35867e-59)
(5.40384e-32 -3.49652e-34 0)
(5.41458e-32 -3.38601e-34 7.4743e-60)
(5.42478e-32 -3.28129e-34 0)
(5.43446e-32 -3.18209e-34 4.37637e-60)
(5.44363e-32 -3.08816e-34 0)
(5.45233e-32 -2.99926e-34 -3.89111e-60)
(5.46057e-32 -2.91514e-34 6.24625e-60)
(5.46838e-32 -2.83559e-34 1.55342e-59)
(5.47577e-32 -2.76038e-34 2.98846e-59)
(5.48276e-32 -2.68932e-34 -2.87658e-59)
(5.48937e-32 -2.62219e-34 0)
(5.49562e-32 -2.55882e-34 0)
(5.50153e-32 -2.49902e-34 0)
(5.50711e-32 -2.44261e-34 4.82682e-60)
(5.51237e-32 -2.38943e-34 -9.75017e-60)
(5.51734e-32 -2.33931e-34 9.48872e-60)
(5.52203e-32 -2.2921e-34 0)
(5.52644e-32 -2.24765e-34 -2.18127e-59)
(5.53061e-32 -2.20583e-34 -8.79237e-60)
(5.53452e-32 -2.16649e-34 -8.58715e-60)
(5.53821e-32 -2.12951e-34 0)
(5.54168e-32 -2.09476e-34 0)
(5.54494e-32 -2.06214e-34 0)
(5.54801e-32 -2.03151e-34 -7.88295e-60)
(5.55089e-32 -2.00278e-34 0)
(5.55359e-32 -1.97584e-34 -9.94038e-60)
(5.55612e-32 -1.95059e-34 -2.21373e-60)
(5.5585e-32 -1.92695e-34 9.42553e-60)
(5.56073e-32 -1.90481e-34 0)
(5.56282e-32 -1.8841e-34 1.60883e-59)
(5.56477e-32 -1.86474e-34 0)
(5.5666e-32 -1.84664e-34 8.57994e-60)
(5.56831e-32 -1.82974e-34 -1.52323e-59)
(5.5699e-32 -1.81397e-34 -1.49838e-59)
(5.5714e-32 -1.79925e-34 0)
(5.57279e-32 -1.78553e-34 -1.33678e-60)
(5.57409e-32 -1.77274e-34 7.80169e-60)
(5.5753e-32 -1.76083e-34 -6.47071e-60)
(5.57643e-32 -1.74975e-34 0)
(5.57748e-32 -1.73944e-34 -6.35908e-60)
(5.57846e-32 -1.72986e-34 1.04091e-60)
(5.57937e-32 -1.72096e-34 0)
(5.58021e-32 -1.71269e-34 7.16926e-60)
(5.581e-32 -1.70503e-34 7.08847e-60)
(5.58172e-32 -1.69792e-34 7.01358e-60)
(5.5824e-32 -1.69133e-34 0)
(5.58303e-32 -1.68523e-34 0)
(5.58361e-32 -1.67958e-34 0)
(5.58415e-32 -1.67436e-34 -1.27848e-59)
(5.58464e-32 -1.66953e-34 5.99427e-60)
(5.5851e-32 -1.66507e-34 0)
(5.58553e-32 -1.66095e-34 -6.62416e-60)
(5.58592e-32 -1.65715e-34 -6.58411e-60)
(5.58628e-32 -1.65364e-34 0)
(5.58662e-32 -1.65041e-34 1.1789e-59)
(5.58693e-32 -1.64743e-34 -1.29636e-59)
(5.58721e-32 -1.64469e-34 -1.17293e-59)
(5.58747e-32 -1.64217e-34 2.45556e-59)
(5.58771e-32 -1.63984e-34 0)
(5.58793e-32 -1.6377e-34 0)
(5.58813e-32 -1.63573e-34 0)
(5.58831e-32 -1.63391e-34 -1.16167e-59)
(5.58848e-32 -1.63223e-34 -2.42425e-59)
(5.58863e-32 -1.63068e-34 -1.26106e-59)
(5.58877e-32 -1.62923e-34 -1.1568e-59)
(5.5889e-32 -1.62789e-34 -2.41061e-59)
(5.58901e-32 -1.62664e-34 1.15409e-59)
(5.58911e-32 -1.62545e-34 0)
(5.5892e-32 -1.62432e-34 0)
(5.58928e-32 -1.62324e-34 2.39598e-59)
(5.58935e-32 -1.62218e-34 0)
(5.58941e-32 -1.62112e-34 0)
(5.58945e-32 -1.62005e-34 -1.23877e-59)
(5.58949e-32 -1.61893e-34 0)
(5.58951e-32 -1.61774e-34 -2.37883e-59)
(5.58952e-32 -1.61645e-34 -1.14351e-59)
(5.58951e-32 -1.615e-34 0)
(5.58948e-32 -1.61334e-34 -2.3652e-59)
(5.58944e-32 -1.61141e-34 0)
(5.58936e-32 -1.60913e-34 0)
(5.58926e-32 -1.60638e-34 -1.13312e-59)
(5.58912e-32 -1.60303e-34 -1.2037e-59)
(5.58893e-32 -1.59891e-34 -1.12543e-59)
(5.58869e-32 -1.59381e-34 0)
(5.58837e-32 -1.58746e-34 0)
(5.58796e-32 -1.57948e-34 -2.26088e-59)
(5.58744e-32 -1.56942e-34 0)
(5.58676e-32 -1.55668e-34 -2.19072e-59)
(5.5859e-32 -1.54047e-34 0)
(5.58479e-32 -1.51973e-34 0)
(5.58336e-32 -1.49306e-34 0)
(5.58151e-32 -1.45858e-34 9.81033e-60)
(5.57912e-32 -1.41369e-34 0)
(5.57602e-32 -1.35476e-34 -8.74203e-60)
(5.57196e-32 -1.27662e-34 0)
(5.56662e-32 -1.17167e-34 0)
(5.55954e-32 -1.02834e-34 -2.64493e-61)
(5.55002e-32 -8.28173e-35 -3.83889e-60)
(5.53703e-32 -5.39933e-35 0)
(5.51893e-32 -1.06372e-35 0)
(5.49291e-32 5.89339e-35 0)
(5.45381e-32 1.82368e-34 6.86153e-59)
(5.39169e-32 4.3985e-34 0)
(5.29368e-32 1.13347e-33 -5.08787e-58)
(6.70099e-34 -7.24738e-33 3.74601e-58)
(2.01559e-33 -7.23593e-33 -4.79755e-62)
(3.36912e-33 -7.21595e-33 0)
(4.72906e-33 -7.18722e-33 1.12036e-61)
(6.09373e-33 -7.14954e-33 0)
(7.46134e-33 -7.1027e-33 0)
(8.82998e-33 -7.0465e-33 -3.63252e-58)
(1.01977e-32 -6.98077e-33 -1.79967e-58)
(1.15623e-32 -6.90538e-33 1.7768e-58)
(1.29216e-32 -6.82028e-33 -1.7569e-58)
(1.42734e-32 -6.7255e-33 0)
(1.56154e-32 -6.62122e-33 0)
(1.69452e-32 -6.50767e-33 -1.67019e-58)
(1.82605e-32 -6.38527e-33 -3.27523e-58)
(1.95591e-32 -6.25452e-33 3.20579e-58)
(2.08387e-32 -6.11602e-33 0)
(2.20975e-32 -5.97051e-33 3.05537e-58)
(2.33334e-32 -5.81876e-33 1.49309e-58)
(2.45447e-32 -5.66165e-33 0)
(2.57298e-32 -5.50007e-33 2.80701e-58)
(2.68875e-32 -5.33496e-33 -1.36636e-58)
(2.80165e-32 -5.16725e-33 -2.63171e-58)
(2.91159e-32 -4.99785e-33 1.27816e-58)
(3.01849e-32 -4.82764e-33 0)
(3.12231e-32 -4.65748e-33 2.36362e-58)
(3.223e-32 -4.48814e-33 2.27465e-58)
(3.32054e-32 -4.32033e-33 0)
(3.41494e-32 -4.1547e-33 2.09955e-58)
(3.50621e-32 -3.99183e-33 0)
(3.59437e-32 -3.83218e-33 1.93027e-58)
(3.67945e-32 -3.67619e-33 -9.32897e-59)
(3.76151e-32 -3.52419e-33 0)
(3.8406e-32 -3.37646e-33 0)
(3.91678e-32 -3.23319e-33 0)
(3.99012e-32 -3.09456e-33 0)
(4.06068e-32 -2.96064e-33 0)
(4.12855e-32 -2.8315e-33 0)
(4.19379e-32 -2.70716e-33 1.34015e-58)
(4.25648e-32 -2.58758e-33 -6.28672e-59)
(4.31671e-32 -2.47272e-33 0)
(4.37454e-32 -2.3625e-33 0)
(4.43007e-32 -2.25684e-33 0)
(4.48336e-32 -2.15562e-33 -2.123e-58)
(4.53449e-32 -2.05873e-33 -1.02151e-58)
(4.58354e-32 -1.96603e-33 -2.1645e-60)
(4.63058e-32 -1.8774e-33 2.18669e-60)
(4.67568e-32 -1.79269e-33 -8.6056e-59)
(4.71891e-32 -1.71176e-33 -8.40392e-59)
(4.76034e-32 -1.63447e-33 1.57761e-58)
(4.80003e-32 -1.56068e-33 7.38855e-59)
(4.83805e-32 -1.49026e-33 0)
(4.87445e-32 -1.42306e-33 6.66652e-59)
(4.90931e-32 -1.35895e-33 1.28922e-58)
(4.94267e-32 -1.29781e-33 0)
(4.9746e-32 -1.23951e-33 0)
(5.00514e-32 -1.18393e-33 -5.41176e-59)
(5.03435e-32 -1.13095e-33 0)
(5.06228e-32 -1.08046e-33 0)
(5.08898e-32 -1.03235e-33 1.4089e-58)
(5.11449e-32 -9.86519e-34 8.75134e-59)
(5.13886e-32 -9.42866e-34 4.3892e-59)
(5.16214e-32 -9.01296e-34 0)
(5.18436e-32 -8.61719e-34 -3.96538e-59)
(5.20558e-32 -8.24046e-34 0)
(5.22582e-32 -7.88194e-34 1.02505e-58)
(5.24512e-32 -7.54084e-34 -3.40318e-59)
(5.26353e-32 -7.21638e-34 -5.97032e-59)
(5.28107e-32 -6.90783e-34 -8.71886e-59)
(5.29779e-32 -6.6145e-34 0)
(5.31372e-32 -6.3357e-34 5.04549e-59)
(5.32888e-32 -6.07079e-34 0)
(5.34331e-32 -5.81916e-34 1.99921e-59)
(5.35705e-32 -5.58021e-34 4.25207e-59)
(5.37011e-32 -5.35338e-34 4.01384e-59)
(5.38252e-32 -5.13812e-34 -3.78774e-59)
(5.39432e-32 -4.93391e-34 1.53191e-59)
(5.40553e-32 -4.74026e-34 0)
(5.41617e-32 -4.55668e-34 0)
(5.42628e-32 -4.38271e-34 -2.99428e-59)
(5.43586e-32 -4.21792e-34 -1.15391e-59)
(5.44495e-32 -4.06188e-34 0)
(5.45357e-32 -3.91417e-34 -1.50856e-59)
(5.46173e-32 -3.77443e-34 0)
(5.46946e-32 -3.64226e-34 -8.49955e-60)
(5.47678e-32 -3.51731e-34 4.68756e-59)
(5.48371e-32 -3.39924e-34 -4.44012e-59)
(5.49026e-32 -3.28772e-34 1.84396e-59)
(5.49646e-32 -3.18243e-34 0)
(5.50231e-32 -3.08307e-34 -1.62894e-59)
(5.50784e-32 -2.98934e-34 3.58108e-59)
(5.51305e-32 -2.90097e-34 0)
(5.51798e-32 -2.81769e-34 0)