/*--------------------------------*- C++ -*----------------------------------*\
  =========                 |
  \\      /  F ield         | OpenFOAM: The Open Source CFD Toolbox
   \\    /   O peration     | Website:  https://openfoam.org
    \\  /    A nd           | Version:  10
     \\/     M anipulation  |
\*---------------------------------------------------------------------------*/
FoamFile
{
    format      ascii;
    class       volVectorField;
    location    "7400";
    object      Ub;
}
// * * * * * * * * * * * * * * * * * * * * * * * * * * * * * * * * * * * * * //

dimensions      [0 1 -1 0 0 0 0];

internalField   nonuniform List<vector> 
6400
(
(-4.06816e-21 -9.87899e-16 0)
(-1.22199e-20 -9.87899e-16 0)
(-2.04181e-20 -9.87899e-16 0)
(-2.86945e-20 -9.87899e-16 0)
(-3.70817e-20 -9.87899e-16 0)
(-4.5614e-20 -9.87899e-16 0)
(-5.43275e-20 -9.87899e-16 0)
(-6.32611e-20 -9.87899e-16 0)
(-7.24567e-20 -9.87899e-16 0)
(-8.196e-20 -9.87899e-16 0)
(-9.18215e-20 -9.87898e-16 0)
(-1.02097e-19 -9.87898e-16 0)
(-1.1285e-19 -9.87898e-16 0)
(-1.24151e-19 -9.87898e-16 0)
(-1.36081e-19 -9.87898e-16 0)
(-1.48731e-19 -9.87898e-16 0)
(-1.62206e-19 -9.87898e-16 0)
(-1.76629e-19 -9.87898e-16 0)
(-1.92139e-19 -9.87898e-16 0)
(-2.08899e-19 -9.87898e-16 0)
(-2.27096e-19 -9.87898e-16 0)
(-2.46944e-19 -9.87897e-16 0)
(-2.68687e-19 -9.87897e-16 0)
(-2.9259e-19 -9.87897e-16 0)
(-3.18932e-19 -9.87897e-16 0)
(-3.47965e-19 -9.87896e-16 0)
(-3.79842e-19 -9.87896e-16 0)
(-4.14445e-19 -9.87896e-16 0)
(-4.51037e-19 -9.87896e-16 0)
(-4.87561e-19 -9.87896e-16 0)
(-5.19249e-19 -9.87897e-16 0)
(-5.36126e-19 -9.87899e-16 0)
(-5.33177e-19 -9.87902e-16 0)
(-5.1516e-19 -9.87905e-16 0)
(-4.8359e-19 -9.87908e-16 0)
(-4.35464e-19 -9.87913e-16 0)
(-3.68454e-19 -9.87917e-16 0)
(-2.81841e-19 -9.87922e-16 0)
(-1.77537e-19 -9.87925e-16 0)
(-6.06981e-20 -9.87927e-16 0)
(6.06981e-20 -9.87927e-16 0)
(1.77537e-19 -9.87925e-16 0)
(2.81841e-19 -9.87922e-16 0)
(3.68454e-19 -9.87917e-16 0)
(4.35464e-19 -9.87913e-16 0)
(4.8359e-19 -9.87908e-16 0)
(5.1516e-19 -9.87905e-16 0)
(5.33177e-19 -9.87902e-16 0)
(5.36126e-19 -9.87899e-16 0)
(5.19249e-19 -9.87897e-16 0)
(4.87561e-19 -9.87896e-16 0)
(4.51037e-19 -9.87896e-16 0)
(4.14445e-19 -9.87896e-16 0)
(3.79842e-19 -9.87896e-16 0)
(3.47965e-19 -9.87896e-16 0)
(3.18932e-19 -9.87897e-16 0)
(2.9259e-19 -9.87897e-16 0)
(2.68687e-19 -9.87897e-16 0)
(2.46944e-19 -9.87897e-16 0)
(2.27096e-19 -9.87898e-16 0)
(2.08899e-19 -9.87898e-16 0)
(1.92139e-19 -9.87898e-16 0)
(1.76629e-19 -9.87898e-16 0)
(1.62206e-19 -9.87898e-16 0)
(1.48731e-19 -9.87898e-16 0)
(1.36081e-19 -9.87898e-16 0)
(1.24151e-19 -9.87898e-16 0)
(1.1285e-19 -9.87898e-16 0)
(1.02097e-19 -9.87898e-16 0)
(9.18215e-20 -9.87898e-16 0)
(8.196e-20 -9.87899e-16 0)
(7.24567e-20 -9.87899e-16 0)
(6.32611e-20 -9.87899e-16 0)
(5.43275e-20 -9.87899e-16 0)
(4.5614e-20 -9.87899e-16 0)
(3.70817e-20 -9.87899e-16 0)
(2.86945e-20 -9.87899e-16 0)
(2.04181e-20 -9.87899e-16 0)
(1.22199e-20 -9.87899e-16 0)
(4.06816e-21 -9.87899e-16 0)
(-4.06748e-21 -9.87896e-16 0)
(-1.22179e-20 -9.87896e-16 0)
(-2.04147e-20 -9.87896e-16 0)
(-2.86896e-20 -9.87896e-16 0)
(-3.70753e-20 -9.87896e-16 0)
(-4.5606e-20 -9.87896e-16 0)
(-5.43179e-20 -9.87896e-16 0)
(-6.32496e-20 -9.87896e-16 0)
(-7.24432e-20 -9.87896e-16 0)
(-8.19443e-20 -9.87895e-16 0)
(-9.18034e-20 -9.87895e-16 0)
(-1.02076e-19 -9.87895e-16 0)
(-1.12826e-19 -9.87895e-16 0)
(-1.24124e-19 -9.87895e-16 0)
(-1.36049e-19 -9.87895e-16 0)
(-1.48695e-19 -9.87894e-16 0)
(-1.62165e-19 -9.87894e-16 0)
(-1.76582e-19 -9.87894e-16 0)
(-1.92085e-19 -9.87893e-16 0)
(-2.08837e-19 -9.87893e-16 0)
(-2.27024e-19 -9.87893e-16 0)
(-2.46862e-19 -9.87892e-16 0)
(-2.68592e-19 -9.87891e-16 0)
(-2.92484e-19 -9.87891e-16 0)
(-3.18814e-19 -9.8789e-16 0)
(-3.47842e-19 -9.87889e-16 0)
(-3.79723e-19 -9.87888e-16 0)
(-4.14357e-19 -9.87887e-16 0)
(-4.51039e-19 -9.87887e-16 0)
(-4.87769e-19 -9.87887e-16 0)
(-5.19889e-19 -9.8789e-16 0)
(-5.37586e-19 -9.87896e-16 0)
(-5.35485e-19 -9.87907e-16 0)
(-5.18131e-19 -9.87915e-16 0)
(-4.87219e-19 -9.87926e-16 0)
(-4.39605e-19 -9.87939e-16 0)
(-3.72753e-19 -9.87953e-16 0)
(-2.8572e-19 -9.87967e-16 0)
(-1.80285e-19 -9.87978e-16 0)
(-6.16974e-20 -9.87985e-16 0)
(6.16974e-20 -9.87985e-16 0)
(1.80285e-19 -9.87978e-16 0)
(2.8572e-19 -9.87967e-16 0)
(3.72753e-19 -9.87953e-16 0)
(4.39605e-19 -9.87939e-16 0)
(4.87219e-19 -9.87926e-16 0)
(5.18131e-19 -9.87915e-16 0)
(5.35485e-19 -9.87907e-16 0)
(5.37586e-19 -9.87896e-16 0)
(5.19889e-19 -9.8789e-16 0)
(4.87769e-19 -9.87887e-16 0)
(4.51039e-19 -9.87887e-16 0)
(4.14357e-19 -9.87887e-16 0)
(3.79723e-19 -9.87888e-16 0)
(3.47842e-19 -9.87889e-16 0)
(3.18814e-19 -9.8789e-16 0)
(2.92484e-19 -9.87891e-16 0)
(2.68592e-19 -9.87891e-16 0)
(2.46862e-19 -9.87892e-16 0)
(2.27024e-19 -9.87893e-16 0)
(2.08837e-19 -9.87893e-16 0)
(1.92085e-19 -9.87893e-16 0)
(1.76582e-19 -9.87894e-16 0)
(1.62165e-19 -9.87894e-16 0)
(1.48695e-19 -9.87894e-16 0)
(1.36049e-19 -9.87895e-16 0)
(1.24124e-19 -9.87895e-16 0)
(1.12826e-19 -9.87895e-16 0)
(1.02076e-19 -9.87895e-16 0)
(9.18034e-20 -9.87895e-16 0)
(8.19443e-20 -9.87895e-16 0)
(7.24432e-20 -9.87896e-16 0)
(6.32496e-20 -9.87896e-16 0)
(5.43179e-20 -9.87896e-16 0)
(4.5606e-20 -9.87896e-16 0)
(3.70753e-20 -9.87896e-16 0)
(2.86896e-20 -9.87896e-16 0)
(2.04147e-20 -9.87896e-16 0)
(1.22179e-20 -9.87896e-16 0)
(4.06748e-21 -9.87896e-16 0)
(-4.06595e-21 -9.87894e-16 0)
(-1.22132e-20 -9.87894e-16 0)
(-2.04069e-20 -9.87894e-16 0)
(-2.86786e-20 -9.87894e-16 0)
(-3.70609e-20 -9.87894e-16 0)
(-4.5588e-20 -9.87894e-16 0)
(-5.4296e-20 -9.87894e-16 0)
(-6.32236e-20 -9.87894e-16 0)
(-7.24126e-20 -9.87893e-16 0)
(-8.19086e-20 -9.87893e-16 0)
(-9.17621e-20 -9.87893e-16 0)
(-1.02029e-19 -9.87893e-16 0)
(-1.12772e-19 -9.87892e-16 0)
(-1.24061e-19 -9.87892e-16 0)
(-1.35978e-19 -9.87892e-16 0)
(-1.48612e-19 -9.87891e-16 0)
(-1.62071e-19 -9.87891e-16 0)
(-1.76473e-19 -9.8789e-16 0)
(-1.9196e-19 -9.8789e-16 0)
(-2.08694e-19 -9.87889e-16 0)
(-2.2686e-19 -9.87888e-16 0)
(-2.46673e-19 -9.87887e-16 0)
(-2.68377e-19 -9.87886e-16 0)
(-2.92241e-19 -9.87885e-16 0)
(-3.18546e-19 -9.87883e-16 0)
(-3.47558e-19 -9.87882e-16 0)
(-3.79451e-19 -9.8788e-16 0)
(-4.14156e-19 -9.87879e-16 0)
(-4.5104e-19 -9.87878e-16 0)
(-4.88239e-19 -9.87879e-16 0)
(-5.21345e-19 -9.87883e-16 0)
(-5.40919e-19 -9.87894e-16 0)
(-5.40776e-19 -9.87912e-16 0)
(-5.24967e-19 -9.87927e-16 0)
(-4.95608e-19 -9.87946e-16 0)
(-4.49223e-19 -9.87968e-16 0)
(-3.82792e-19 -9.87994e-16 0)
(-2.9483e-19 -9.88018e-16 0)
(-1.8677e-19 -9.88039e-16 0)
(-6.40618e-20 -9.88051e-16 0)
(6.40618e-20 -9.88051e-16 0)
(1.8677e-19 -9.88039e-16 0)
(2.9483e-19 -9.88018e-16 0)
(3.82792e-19 -9.87994e-16 0)
(4.49223e-19 -9.87968e-16 0)
(4.95608e-19 -9.87946e-16 0)
(5.24967e-19 -9.87927e-16 0)
(5.40776e-19 -9.87912e-16 0)
(5.40919e-19 -9.87894e-16 0)
(5.21345e-19 -9.87883e-16 0)
(4.88239e-19 -9.87879e-16 0)
(4.5104e-19 -9.87878e-16 0)
(4.14156e-19 -9.87879e-16 0)
(3.79451e-19 -9.8788e-16 0)
(3.47558e-19 -9.87882e-16 0)
(3.18546e-19 -9.87883e-16 0)
(2.92241e-19 -9.87885e-16 0)
(2.68377e-19 -9.87886e-16 0)
(2.46673e-19 -9.87887e-16 0)
(2.2686e-19 -9.87888e-16 0)
(2.08694e-19 -9.87889e-16 0)
(1.9196e-19 -9.8789e-16 0)
(1.76473e-19 -9.8789e-16 0)
(1.62071e-19 -9.87891e-16 0)
(1.48612e-19 -9.87891e-16 0)
(1.35978e-19 -9.87892e-16 0)
(1.24061e-19 -9.87892e-16 0)
(1.12772e-19 -9.87892e-16 0)
(1.02029e-19 -9.87893e-16 0)
(9.17621e-20 -9.87893e-16 0)
(8.19086e-20 -9.87893e-16 0)
(7.24126e-20 -9.87893e-16 0)
(6.32236e-20 -9.87894e-16 0)
(5.4296e-20 -9.87894e-16 0)
(4.5588e-20 -9.87894e-16 0)
(3.70609e-20 -9.87894e-16 0)
(2.86786e-20 -9.87894e-16 0)
(2.04069e-20 -9.87894e-16 0)
(1.22132e-20 -9.87894e-16 0)
(4.06595e-21 -9.87894e-16 0)
(-4.0633e-21 -9.87892e-16 0)
(-1.22052e-20 -9.87892e-16 0)
(-2.03935e-20 -9.87892e-16 0)
(-2.86595e-20 -9.87892e-16 0)
(-3.70359e-20 -9.87892e-16 0)
(-4.55568e-20 -9.87892e-16 0)
(-5.42582e-20 -9.87891e-16 0)
(-6.31786e-20 -9.87891e-16 0)
(-7.23597e-20 -9.87891e-16 0)
(-8.18471e-20 -9.87891e-16 0)
(-9.1691e-20 -9.8789e-16 0)
(-1.01947e-19 -9.8789e-16 0)
(-1.12678e-19 -9.8789e-16 0)
(-1.23953e-19 -9.87889e-16 0)
(-1.35854e-19 -9.87889e-16 0)
(-1.48471e-19 -9.87888e-16 0)
(-1.61908e-19 -9.87887e-16 0)
(-1.76287e-19 -9.87887e-16 0)
(-1.91746e-19 -9.87886e-16 0)
(-2.08447e-19 -9.87885e-16 0)
(-2.26576e-19 -9.87883e-16 0)
(-2.46348e-19 -9.87882e-16 0)
(-2.68006e-19 -9.8788e-16 0)
(-2.91821e-19 -9.87878e-16 0)
(-3.18082e-19 -9.87876e-16 0)
(-3.47066e-19 -9.87874e-16 0)
(-3.78975e-19 -9.87872e-16 0)
(-4.13799e-19 -9.8787e-16 0)
(-4.51021e-19 -9.87868e-16 0)
(-4.89011e-19 -9.87869e-16 0)
(-5.23789e-19 -9.87875e-16 0)
(-5.46585e-19 -9.87891e-16 0)
(-5.49838e-19 -9.87917e-16 0)
(-5.36766e-19 -9.87939e-16 0)
(-5.10213e-19 -9.87966e-16 0)
(-4.66135e-19 -9.88e-16 0)
(-4.00637e-19 -9.88038e-16 0)
(-3.11201e-19 -9.88076e-16 0)
(-1.98533e-19 -9.88109e-16 0)
(-6.83738e-20 -9.88128e-16 0)
(6.83738e-20 -9.88128e-16 0)
(1.98533e-19 -9.88109e-16 0)
(3.11201e-19 -9.88076e-16 0)
(4.00637e-19 -9.88038e-16 0)
(4.66135e-19 -9.88e-16 0)
(5.10213e-19 -9.87966e-16 0)
(5.36766e-19 -9.87939e-16 0)
(5.49838e-19 -9.87917e-16 0)
(5.46585e-19 -9.87891e-16 0)
(5.23789e-19 -9.87875e-16 0)
(4.89011e-19 -9.87869e-16 0)
(4.51021e-19 -9.87868e-16 0)
(4.13799e-19 -9.8787e-16 0)
(3.78975e-19 -9.87872e-16 0)
(3.47066e-19 -9.87874e-16 0)
(3.18082e-19 -9.87876e-16 0)
(2.91821e-19 -9.87878e-16 0)
(2.68006e-19 -9.8788e-16 0)
(2.46348e-19 -9.87882e-16 0)
(2.26576e-19 -9.87883e-16 0)
(2.08447e-19 -9.87885e-16 0)
(1.91746e-19 -9.87886e-16 0)
(1.76287e-19 -9.87887e-16 0)
(1.61908e-19 -9.87887e-16 0)
(1.48471e-19 -9.87888e-16 0)
(1.35854e-19 -9.87889e-16 0)
(1.23953e-19 -9.87889e-16 0)
(1.12678e-19 -9.8789e-16 0)
(1.01947e-19 -9.8789e-16 0)
(9.1691e-20 -9.8789e-16 0)
(8.18471e-20 -9.87891e-16 0)
(7.23597e-20 -9.87891e-16 0)
(6.31786e-20 -9.87891e-16 0)
(5.42582e-20 -9.87891e-16 0)
(4.55568e-20 -9.87892e-16 0)
(3.70359e-20 -9.87892e-16 0)
(2.86595e-20 -9.87892e-16 0)
(2.03935e-20 -9.87892e-16 0)
(1.22052e-20 -9.87892e-16 0)
(4.0633e-21 -9.87892e-16 0)
(-4.05923e-21 -9.8789e-16 0)
(-1.2193e-20 -9.8789e-16 0)
(-2.03729e-20 -9.8789e-16 0)
(-2.86303e-20 -9.87889e-16 0)
(-3.69977e-20 -9.87889e-16 0)
(-4.5509e-20 -9.87889e-16 0)
(-5.42002e-20 -9.87889e-16 0)
(-6.31095e-20 -9.87889e-16 0)
(-7.22786e-20 -9.87888e-16 0)
(-8.17527e-20 -9.87888e-16 0)
(-9.15818e-20 -9.87888e-16 0)
(-1.01821e-19 -9.87887e-16 0)
(-1.12533e-19 -9.87887e-16 0)
(-1.23788e-19 -9.87886e-16 0)
(-1.35664e-19 -9.87885e-16 0)
(-1.48253e-19 -9.87884e-16 0)
(-1.61658e-19 -9.87883e-16 0)
(-1.76e-19 -9.87882e-16 0)
(-1.91417e-19 -9.87881e-16 0)
(-2.08068e-19 -9.8788e-16 0)
(-2.26141e-19 -9.87878e-16 0)
(-2.45848e-19 -9.87876e-16 0)
(-2.67435e-19 -9.87874e-16 0)
(-2.91176e-19 -9.87871e-16 0)
(-3.17368e-19 -9.87869e-16 0)
(-3.46305e-19 -9.87865e-16 0)
(-3.78233e-19 -9.87862e-16 0)
(-4.13226e-19 -9.87859e-16 0)
(-4.50942e-19 -9.87857e-16 0)
(-4.901e-19 -9.87858e-16 0)
(-5.27374e-19 -9.87866e-16 0)
(-5.55056e-19 -9.87887e-16 0)
(-5.63558e-19 -9.87921e-16 0)
(-5.54855e-19 -9.87949e-16 0)
(-5.32922e-19 -9.87987e-16 0)
(-4.92862e-19 -9.88033e-16 0)
(-4.2935e-19 -9.88087e-16 0)
(-3.38027e-19 -9.88142e-16 0)
(-2.18113e-19 -9.8819e-16 0)
(-7.56189e-20 -9.88219e-16 0)
(7.56189e-20 -9.88219e-16 0)
(2.18113e-19 -9.8819e-16 0)
(3.38027e-19 -9.88142e-16 0)
(4.2935e-19 -9.88087e-16 0)
(4.92862e-19 -9.88033e-16 0)
(5.32922e-19 -9.87987e-16 0)
(5.54855e-19 -9.87949e-16 0)
(5.63558e-19 -9.87921e-16 0)
(5.55056e-19 -9.87887e-16 0)
(5.27374e-19 -9.87866e-16 0)
(4.901e-19 -9.87858e-16 0)
(4.50942e-19 -9.87857e-16 0)
(4.13226e-19 -9.87859e-16 0)
(3.78233e-19 -9.87862e-16 0)
(3.46305e-19 -9.87865e-16 0)
(3.17368e-19 -9.87869e-16 0)
(2.91176e-19 -9.87871e-16 0)
(2.67435e-19 -9.87874e-16 0)
(2.45848e-19 -9.87876e-16 0)
(2.26141e-19 -9.87878e-16 0)
(2.08068e-19 -9.8788e-16 0)
(1.91417e-19 -9.87881e-16 0)
(1.76e-19 -9.87882e-16 0)
(1.61658e-19 -9.87883e-16 0)
(1.48253e-19 -9.87884e-16 0)
(1.35664e-19 -9.87885e-16 0)
(1.23788e-19 -9.87886e-16 0)
(1.12533e-19 -9.87887e-16 0)
(1.01821e-19 -9.87887e-16 0)
(9.15818e-20 -9.87888e-16 0)
(8.17527e-20 -9.87888e-16 0)
(7.22786e-20 -9.87888e-16 0)
(6.31095e-20 -9.87889e-16 0)
(5.42002e-20 -9.87889e-16 0)
(4.5509e-20 -9.87889e-16 0)
(3.69977e-20 -9.87889e-16 0)
(2.86303e-20 -9.87889e-16 0)
(2.03729e-20 -9.8789e-16 0)
(1.2193e-20 -9.8789e-16 0)
(4.05923e-21 -9.8789e-16 0)
(-4.05338e-21 -9.87887e-16 0)
(-1.21754e-20 -9.87887e-16 0)
(-2.03433e-20 -9.87887e-16 0)
(-2.85883e-20 -9.87887e-16 0)
(-3.69427e-20 -9.87887e-16 0)
(-4.54403e-20 -9.87887e-16 0)
(-5.41168e-20 -9.87886e-16 0)
(-6.30102e-20 -9.87886e-16 0)
(-7.2162e-20 -9.87886e-16 0)
(-8.1617e-20 -9.87885e-16 0)
(-9.14249e-20 -9.87885e-16 0)
(-1.01641e-19 -9.87884e-16 0)
(-1.12326e-19 -9.87883e-16 0)
(-1.2355e-19 -9.87882e-16 0)
(-1.35391e-19 -9.87881e-16 0)
(-1.4794e-19 -9.8788e-16 0)
(-1.613e-19 -9.87879e-16 0)
(-1.75589e-19 -9.87878e-16 0)
(-1.90944e-19 -9.87876e-16 0)
(-2.07525e-19 -9.87874e-16 0)
(-2.25516e-19 -9.87872e-16 0)
(-2.4513e-19 -9.8787e-16 0)
(-2.66615e-19 -9.87867e-16 0)
(-2.90247e-19 -9.87864e-16 0)
(-3.16335e-19 -9.8786e-16 0)
(-3.452e-19 -9.87856e-16 0)
(-3.77142e-19 -9.87852e-16 0)
(-4.12351e-19 -9.87848e-16 0)
(-4.50725e-19 -9.87845e-16 0)
(-4.91466e-19 -9.87846e-16 0)
(-5.32177e-19 -9.87854e-16 0)
(-5.66748e-19 -9.87879e-16 0)
(-5.82854e-19 -9.87921e-16 0)
(-5.80772e-19 -9.87956e-16 0)
(-5.66158e-19 -9.88004e-16 0)
(-5.3295e-19 -9.88066e-16 0)
(-4.73619e-19 -9.88139e-16 0)
(-3.80583e-19 -9.88218e-16 0)
(-2.49962e-19 -9.88289e-16 0)
(-8.75816e-20 -9.88333e-16 0)
(8.75816e-20 -9.88333e-16 0)
(2.49962e-19 -9.88289e-16 0)
(3.80583e-19 -9.88218e-16 0)
(4.73619e-19 -9.88139e-16 0)
(5.3295e-19 -9.88066e-16 0)
(5.66158e-19 -9.88004e-16 0)
(5.80772e-19 -9.87956e-16 0)
(5.82854e-19 -9.87921e-16 0)
(5.66748e-19 -9.87879e-16 0)
(5.32177e-19 -9.87854e-16 0)
(4.91466e-19 -9.87846e-16 0)
(4.50725e-19 -9.87845e-16 0)
(4.12351e-19 -9.87848e-16 0)
(3.77142e-19 -9.87852e-16 0)
(3.452e-19 -9.87856e-16 0)
(3.16335e-19 -9.8786e-16 0)
(2.90247e-19 -9.87864e-16 0)
(2.66615e-19 -9.87867e-16 0)
(2.4513e-19 -9.8787e-16 0)
(2.25516e-19 -9.87872e-16 0)
(2.07525e-19 -9.87874e-16 0)
(1.90944e-19 -9.87876e-16 0)
(1.75589e-19 -9.87878e-16 0)
(1.613e-19 -9.87879e-16 0)
(1.4794e-19 -9.8788e-16 0)
(1.35391e-19 -9.87881e-16 0)
(1.2355e-19 -9.87882e-16 0)
(1.12326e-19 -9.87883e-16 0)
(1.01641e-19 -9.87884e-16 0)
(9.14249e-20 -9.87885e-16 0)
(8.1617e-20 -9.87885e-16 0)
(7.2162e-20 -9.87886e-16 0)
(6.30102e-20 -9.87886e-16 0)
(5.41168e-20 -9.87886e-16 0)
(4.54403e-20 -9.87887e-16 0)
(3.69427e-20 -9.87887e-16 0)
(2.85883e-20 -9.87887e-16 0)
(2.03433e-20 -9.87887e-16 0)
(1.21754e-20 -9.87887e-16 0)
(4.05338e-21 -9.87887e-16 0)
(-4.04531e-21 -9.87884e-16 0)
(-1.2151e-20 -9.87884e-16 0)
(-2.03023e-20 -9.87884e-16 0)
(-2.85302e-20 -9.87884e-16 0)
(-3.68668e-20 -9.87884e-16 0)
(-4.53454e-20 -9.87884e-16 0)
(-5.40016e-20 -9.87883e-16 0)
(-6.28732e-20 -9.87883e-16 0)
(-7.2001e-20 -9.87882e-16 0)
(-8.14296e-20 -9.87882e-16 0)
(-9.12082e-20 -9.87881e-16 0)
(-1.01391e-19 -9.8788e-16 0)
(-1.12039e-19 -9.8788e-16 0)
(-1.23221e-19 -9.87878e-16 0)
(-1.35015e-19 -9.87877e-16 0)
(-1.47509e-19 -9.87876e-16 0)
(-1.60805e-19 -9.87875e-16 0)
(-1.75021e-19 -9.87873e-16 0)
(-1.90291e-19 -9.87871e-16 0)
(-2.06774e-19 -9.87868e-16 0)
(-2.24652e-19 -9.87866e-16 0)
(-2.44139e-19 -9.87863e-16 0)
(-2.6548e-19 -9.87859e-16 0)
(-2.88959e-19 -9.87855e-16 0)
(-3.14899e-19 -9.87851e-16 0)
(-3.43652e-19 -9.87846e-16 0)
(-3.75588e-19 -9.87841e-16 0)
(-4.11045e-19 -9.87835e-16 0)
(-4.50228e-19 -9.87832e-16 0)
(-4.92967e-19 -9.87831e-16 0)
(-5.38114e-19 -9.8784e-16 0)
(-5.81871e-19 -9.87867e-16 0)
(-6.08488e-19 -9.87915e-16 0)
(-6.16125e-19 -9.87958e-16 0)
(-6.12888e-19 -9.88017e-16 0)
(-5.91354e-19 -9.88095e-16 0)
(-5.40799e-19 -9.88193e-16 0)
(-4.4803e-19 -9.88305e-16 0)
(-3.02444e-19 -9.88412e-16 0)
(-1.07767e-19 -9.88482e-16 0)
(1.07767e-19 -9.88482e-16 0)
(3.02444e-19 -9.88412e-16 0)
(4.4803e-19 -9.88305e-16 0)
(5.40799e-19 -9.88193e-16 0)
(5.91354e-19 -9.88095e-16 0)
(6.12888e-19 -9.88017e-16 0)
(6.16125e-19 -9.87958e-16 0)
(6.08488e-19 -9.87915e-16 0)
(5.81871e-19 -9.87867e-16 0)
(5.38114e-19 -9.8784e-16 0)
(4.92967e-19 -9.87831e-16 0)
(4.50228e-19 -9.87832e-16 0)
(4.11045e-19 -9.87835e-16 0)
(3.75588e-19 -9.87841e-16 0)
(3.43652e-19 -9.87846e-16 0)
(3.14899e-19 -9.87851e-16 0)
(2.88959e-19 -9.87855e-16 0)
(2.6548e-19 -9.87859e-16 0)
(2.44139e-19 -9.87863e-16 0)
(2.24652e-19 -9.87866e-16 0)
(2.06774e-19 -9.87868e-16 0)
(1.90291e-19 -9.87871e-16 0)
(1.75021e-19 -9.87873e-16 0)
(1.60805e-19 -9.87875e-16 0)
(1.47509e-19 -9.87876e-16 0)
(1.35015e-19 -9.87877e-16 0)
(1.23221e-19 -9.87878e-16 0)
(1.12039e-19 -9.8788e-16 0)
(1.01391e-19 -9.8788e-16 0)
(9.12082e-20 -9.87881e-16 0)
(8.14296e-20 -9.87882e-16 0)
(7.2001e-20 -9.87882e-16 0)
(6.28732e-20 -9.87883e-16 0)
(5.40016e-20 -9.87883e-16 0)
(4.53454e-20 -9.87884e-16 0)
(3.68668e-20 -9.87884e-16 0)
(2.85302e-20 -9.87884e-16 0)
(2.03023e-20 -9.87884e-16 0)
(1.2151e-20 -9.87884e-16 0)
(4.04531e-21 -9.87884e-16 0)
(-4.03446e-21 -9.87881e-16 0)
(-1.21184e-20 -9.87881e-16 0)
(-2.02474e-20 -9.87881e-16 0)
(-2.84523e-20 -9.87881e-16 0)
(-3.67648e-20 -9.87881e-16 0)
(-4.5218e-20 -9.8788e-16 0)
(-5.3847e-20 -9.8788e-16 0)
(-6.26892e-20 -9.8788e-16 0)
(-7.17849e-20 -9.87879e-16 0)
(-8.11781e-20 -9.87878e-16 0)
(-9.09174e-20 -9.87877e-16 0)
(-1.01056e-19 -9.87877e-16 0)
(-1.11655e-19 -9.87875e-16 0)
(-1.22781e-19 -9.87874e-16 0)
(-1.3451e-19 -9.87873e-16 0)
(-1.46931e-19 -9.87871e-16 0)
(-1.60142e-19 -9.87869e-16 0)
(-1.74259e-19 -9.87867e-16 0)
(-1.89416e-19 -9.87865e-16 0)
(-2.05768e-19 -9.87862e-16 0)
(-2.23494e-19 -9.87859e-16 0)
(-2.42807e-19 -9.87855e-16 0)
(-2.63954e-19 -9.87851e-16 0)
(-2.87224e-19 -9.87846e-16 0)
(-3.12954e-19 -9.87841e-16 0)
(-3.41536e-19 -9.87835e-16 0)
(-3.73422e-19 -9.87828e-16 0)
(-4.09124e-19 -9.87822e-16 0)
(-4.49217e-19 -9.87816e-16 0)
(-4.94298e-19 -9.87814e-16 0)
(-5.44809e-19 -9.87821e-16 0)
(-6.00147e-19 -9.87848e-16 0)
(-6.40653e-19 -9.879e-16 0)
(-6.62129e-19 -9.87948e-16 0)
(-6.76305e-19 -9.88017e-16 0)
(-6.74707e-19 -9.88113e-16 0)
(-6.42548e-19 -9.88243e-16 0)
(-5.57121e-19 -9.88404e-16 0)
(-3.92642e-19 -9.88573e-16 0)
(-1.43772e-19 -9.88693e-16 0)
(1.43772e-19 -9.88693e-16 0)
(3.92642e-19 -9.88573e-16 0)
(5.57121e-19 -9.88404e-16 0)
(6.42548e-19 -9.88243e-16 0)
(6.74707e-19 -9.88113e-16 0)
(6.76305e-19 -9.88017e-16 0)
(6.62129e-19 -9.87948e-16 0)
(6.40653e-19 -9.879e-16 0)
(6.00147e-19 -9.87848e-16 0)
(5.44809e-19 -9.87821e-16 0)
(4.94298e-19 -9.87814e-16 0)
(4.49217e-19 -9.87816e-16 0)
(4.09124e-19 -9.87822e-16 0)
(3.73422e-19 -9.87828e-16 0)
(3.41536e-19 -9.87835e-16 0)
(3.12954e-19 -9.87841e-16 0)
(2.87224e-19 -9.87846e-16 0)
(2.63954e-19 -9.87851e-16 0)
(2.42807e-19 -9.87855e-16 0)
(2.23494e-19 -9.87859e-16 0)
(2.05768e-19 -9.87862e-16 0)
(1.89416e-19 -9.87865e-16 0)
(1.74259e-19 -9.87867e-16 0)
(1.60142e-19 -9.87869e-16 0)
(1.46931e-19 -9.87871e-16 0)
(1.3451e-19 -9.87873e-16 0)
(1.22781e-19 -9.87874e-16 0)
(1.11655e-19 -9.87875e-16 0)
(1.01056e-19 -9.87877e-16 0)
(9.09174e-20 -9.87877e-16 0)
(8.11781e-20 -9.87878e-16 0)
(7.17849e-20 -9.87879e-16 0)
(6.26892e-20 -9.8788e-16 0)
(5.3847e-20 -9.8788e-16 0)
(4.5218e-20 -9.8788e-16 0)
(3.67648e-20 -9.87881e-16 0)
(2.84523e-20 -9.87881e-16 0)
(2.02474e-20 -9.87881e-16 0)
(1.21184e-20 -9.87881e-16 0)
(4.03446e-21 -9.87881e-16 0)
(-4.0202e-21 -9.87878e-16 0)
(-1.20754e-20 -9.87878e-16 0)
(-2.01752e-20 -9.87878e-16 0)
(-2.83499e-20 -9.87878e-16 0)
(-3.66308e-20 -9.87877e-16 0)
(-4.50506e-20 -9.87877e-16 0)
(-5.36438e-20 -9.87876e-16 0)
(-6.24473e-20 -9.87876e-16 0)
(-7.15008e-20 -9.87875e-16 0)
(-8.08477e-20 -9.87874e-16 0)
(-9.05354e-20 -9.87873e-16 0)
(-1.00617e-19 -9.87872e-16 0)
(-1.1115e-19 -9.87871e-16 0)
(-1.22202e-19 -9.8787e-16 0)
(-1.33848e-19 -9.87868e-16 0)
(-1.46171e-19 -9.87866e-16 0)
(-1.59271e-19 -9.87864e-16 0)
(-1.7326e-19 -9.87861e-16 0)
(-1.88268e-19 -9.87859e-16 0)
(-2.04446e-19 -9.87855e-16 0)
(-2.21973e-19 -9.87851e-16 0)
(-2.41057e-19 -9.87847e-16 0)
(-2.61946e-19 -9.87842e-16 0)
(-2.84932e-19 -9.87836e-16 0)
(-3.10371e-19 -9.8783e-16 0)
(-3.38694e-19 -9.87822e-16 0)
(-3.70442e-19 -9.87814e-16 0)
(-4.06323e-19 -9.87806e-16 0)
(-4.47319e-19 -9.87798e-16 0)
(-4.94899e-19 -9.87794e-16 0)
(-5.5139e-19 -9.87798e-16 0)
(-6.20331e-19 -9.87821e-16 0)
(-6.78118e-19 -9.87871e-16 0)
(-7.18427e-19 -9.87919e-16 0)
(-7.58477e-19 -9.87994e-16 0)
(-7.90573e-19 -9.88107e-16 0)
(-7.96749e-19 -9.88272e-16 0)
(-7.39997e-19 -9.88504e-16 0)
(-5.59067e-19 -9.8879e-16 0)
(-2.14193e-19 -1.01084e-15 0)
(2.14193e-19 -1.01084e-15 0)
(5.59067e-19 -9.8879e-16 0)
(7.39997e-19 -9.88504e-16 0)
(7.96749e-19 -9.88272e-16 0)
(7.90573e-19 -9.88107e-16 0)
(7.58477e-19 -9.87994e-16 0)
(7.18427e-19 -9.87919e-16 0)
(6.78118e-19 -9.87871e-16 0)
(6.20331e-19 -9.87821e-16 0)
(5.5139e-19 -9.87798e-16 0)
(4.94899e-19 -9.87794e-16 0)
(4.47319e-19 -9.87798e-16 0)
(4.06323e-19 -9.87806e-16 0)
(3.70442e-19 -9.87814e-16 0)
(3.38694e-19 -9.87822e-16 0)
(3.10371e-19 -9.8783e-16 0)
(2.84932e-19 -9.87836e-16 0)
(2.61946e-19 -9.87842e-16 0)
(2.41057e-19 -9.87847e-16 0)
(2.21973e-19 -9.87851e-16 0)
(2.04446e-19 -9.87855e-16 0)
(1.88268e-19 -9.87859e-16 0)
(1.7326e-19 -9.87861e-16 0)
(1.59271e-19 -9.87864e-16 0)
(1.46171e-19 -9.87866e-16 0)
(1.33848e-19 -9.87868e-16 0)
(1.22202e-19 -9.8787e-16 0)
(1.1115e-19 -9.87871e-16 0)
(1.00617e-19 -9.87872e-16 0)
(9.05354e-20 -9.87873e-16 0)
(8.08477e-20 -9.87874e-16 0)
(7.15008e-20 -9.87875e-16 0)
(6.24473e-20 -9.87876e-16 0)
(5.36438e-20 -9.87876e-16 0)
(4.50506e-20 -9.87877e-16 0)
(3.66308e-20 -9.87877e-16 0)
(2.83499e-20 -9.87878e-16 0)
(2.01752e-20 -9.87878e-16 0)
(1.20754e-20 -9.87878e-16 0)
(4.0202e-21 -9.87878e-16 0)
(-4.00175e-21 -9.87875e-16 0)
(-1.20198e-20 -9.87874e-16 0)
(-2.00817e-20 -9.87874e-16 0)
(-2.82173e-20 -9.87874e-16 0)
(-3.64573e-20 -9.87874e-16 0)
(-4.48339e-20 -9.87873e-16 0)
(-5.33809e-20 -9.87873e-16 0)
(-6.21345e-20 -9.87872e-16 0)
(-7.11335e-20 -9.87871e-16 0)
(-8.04204e-20 -9.8787e-16 0)
(-9.00415e-20 -9.87869e-16 0)
(-1.00048e-19 -9.87868e-16 0)
(-1.10498e-19 -9.87866e-16 0)
(-1.21455e-19 -9.87865e-16 0)
(-1.32992e-19 -9.87863e-16 0)
(-1.45191e-19 -9.8786e-16 0)
(-1.58148e-19 -9.87858e-16 0)
(-1.7197e-19 -9.87855e-16 0)
(-1.86786e-19 -9.87852e-16 0)
(-2.02741e-19 -9.87848e-16 0)
(-2.20009e-19 -9.87843e-16 0)
(-2.38795e-19 -9.87838e-16 0)
(-2.59344e-19 -9.87832e-16 0)
(-2.81953e-19 -9.87826e-16 0)
(-3.0699e-19 -9.87818e-16 0)
(-3.34925e-19 -9.87809e-16 0)
(-3.66389e-19 -9.87799e-16 0)
(-4.02279e-19 -9.87789e-16 0)
(-4.43986e-19 -9.87779e-16 0)
(-4.93866e-19 -9.8777e-16 0)
(-5.56241e-19 -9.87768e-16 0)
(-6.39465e-19 -9.87782e-16 0)
(-7.16668e-19 -9.87822e-16 0)
(-7.80426e-19 -9.87863e-16 0)
(-8.56257e-19 -9.87932e-16 0)
(-9.42595e-19 -9.88047e-16 0)
(-1.02643e-18 -9.88238e-16 0)
(-1.06006e-18 -9.88557e-16 0)
(-9.15767e-19 -9.89582e-16 0)
(-3.88209e-19 -1.08346e-07 0)
(3.88209e-19 -1.08346e-07 0)
(9.15767e-19 -9.89582e-16 0)
(1.06006e-18 -9.88557e-16 0)
(1.02643e-18 -9.88238e-16 0)
(9.42595e-19 -9.88047e-16 0)
(8.56257e-19 -9.87932e-16 0)
(7.80426e-19 -9.87863e-16 0)
(7.16668e-19 -9.87822e-16 0)
(6.39465e-19 -9.87782e-16 0)
(5.56241e-19 -9.87768e-16 0)
(4.93866e-19 -9.8777e-16 0)
(4.43986e-19 -9.87779e-16 0)
(4.02279e-19 -9.87789e-16 0)
(3.66389e-19 -9.87799e-16 0)
(3.34925e-19 -9.87809e-16 0)
(3.0699e-19 -9.87818e-16 0)
(2.81953e-19 -9.87826e-16 0)
(2.59344e-19 -9.87832e-16 0)
(2.38795e-19 -9.87838e-16 0)
(2.20009e-19 -9.87843e-16 0)
(2.02741e-19 -9.87848e-16 0)
(1.86786e-19 -9.87852e-16 0)
(1.7197e-19 -9.87855e-16 0)
(1.58148e-19 -9.87858e-16 0)
(1.45191e-19 -9.8786e-16 0)
(1.32992e-19 -9.87863e-16 0)
(1.21455e-19 -9.87865e-16 0)
(1.10498e-19 -9.87866e-16 0)
(1.00048e-19 -9.87868e-16 0)
(9.00415e-20 -9.87869e-16 0)
(8.04204e-20 -9.8787e-16 0)
(7.11335e-20 -9.87871e-16 0)
(6.21345e-20 -9.87872e-16 0)
(5.33809e-20 -9.87873e-16 0)
(4.48339e-20 -9.87873e-16 0)
(3.64573e-20 -9.87874e-16 0)
(2.82173e-20 -9.87874e-16 0)
(2.00817e-20 -9.87874e-16 0)
(1.20198e-20 -9.87874e-16 0)
(4.00175e-21 -9.87875e-16 0)
(-3.97819e-21 -9.87871e-16 0)
(-1.19488e-20 -9.87871e-16 0)
(-1.99623e-20 -9.8787e-16 0)
(-2.8048e-20 -9.8787e-16 0)
(-3.62359e-20 -9.8787e-16 0)
(-4.45573e-20 -9.87869e-16 0)
(-5.30453e-20 -9.87868e-16 0)
(-6.17352e-20 -9.87868e-16 0)
(-7.06649e-20 -9.87867e-16 0)
(-7.98753e-20 -9.87866e-16 0)
(-8.94117e-20 -9.87864e-16 0)
(-9.93237e-20 -9.87863e-16 0)
(-1.09667e-19 -9.87861e-16 0)
(-1.20503e-19 -9.87859e-16 0)
(-1.31901e-19 -9.87857e-16 0)
(-1.43943e-19 -9.87854e-16 0)
(-1.56717e-19 -9.87851e-16 0)
(-1.70329e-19 -9.87848e-16 0)
(-1.849e-19 -9.87844e-16 0)
(-2.0057e-19 -9.8784e-16 0)
(-2.17508e-19 -9.87835e-16 0)
(-2.35911e-19 -9.87829e-16 0)
(-2.56019e-19 -9.87822e-16 0)
(-2.78129e-19 -9.87814e-16 0)
(-3.02618e-19 -9.87805e-16 0)
(-3.29985e-19 -9.87795e-16 0)
(-3.60931e-19 -9.87783e-16 0)
(-3.96513e-19 -9.8777e-16 0)
(-4.38462e-19 -9.87756e-16 0)
(-4.89875e-19 -9.87743e-16 0)
(-5.56795e-19 -9.87732e-16 0)
(-6.52043e-19 -9.87731e-16 0)
(-7.46884e-19 -9.87747e-16 0)
(-8.34453e-19 -9.87769e-16 0)
(-9.51344e-19 -9.87812e-16 0)
(-1.11224e-18 -9.87891e-16 0)
(-1.33646e-18 -9.88047e-16 0)
(-1.63695e-18 -9.88369e-16 0)
(-3.44492e-10 -4.44467e-09 0)
(-3.44492e-10 -0.000100693 0)
(3.44492e-10 -0.000100693 0)
(3.44492e-10 -4.44467e-09 0)
(1.63695e-18 -9.88369e-16 0)
(1.33646e-18 -9.88047e-16 0)
(1.11224e-18 -9.87891e-16 0)
(9.51344e-19 -9.87812e-16 0)
(8.34453e-19 -9.87769e-16 0)
(7.46884e-19 -9.87747e-16 0)
(6.52043e-19 -9.87731e-16 0)
(5.56795e-19 -9.87732e-16 0)
(4.89875e-19 -9.87743e-16 0)
(4.38462e-19 -9.87756e-16 0)
(3.96513e-19 -9.8777e-16 0)
(3.60931e-19 -9.87783e-16 0)
(3.29985e-19 -9.87795e-16 0)
(3.02618e-19 -9.87805e-16 0)
(2.78129e-19 -9.87814e-16 0)
(2.56019e-19 -9.87822e-16 0)
(2.35911e-19 -9.87829e-16 0)
(2.17508e-19 -9.87835e-16 0)
(2.0057e-19 -9.8784e-16 0)
(1.849e-19 -9.87844e-16 0)
(1.70329e-19 -9.87848e-16 0)
(1.56717e-19 -9.87851e-16 0)
(1.43943e-19 -9.87854e-16 0)
(1.31901e-19 -9.87857e-16 0)
(1.20503e-19 -9.87859e-16 0)
(1.09667e-19 -9.87861e-16 0)
(9.93237e-20 -9.87863e-16 0)
(8.94117e-20 -9.87864e-16 0)
(7.98753e-20 -9.87866e-16 0)
(7.06649e-20 -9.87867e-16 0)
(6.17352e-20 -9.87868e-16 0)
(5.30453e-20 -9.87868e-16 0)
(4.45573e-20 -9.87869e-16 0)
(3.62359e-20 -9.8787e-16 0)
(2.8048e-20 -9.8787e-16 0)
(1.99623e-20 -9.8787e-16 0)
(1.19488e-20 -9.87871e-16 0)
(3.97819e-21 -9.87871e-16 0)
(-3.94842e-21 -9.87866e-16 0)
(-1.18591e-20 -9.87866e-16 0)
(-1.98116e-20 -9.87866e-16 0)
(-2.78342e-20 -9.87866e-16 0)
(-3.59562e-20 -9.87865e-16 0)
(-4.42081e-20 -9.87865e-16 0)
(-5.26218e-20 -9.87864e-16 0)
(-6.12314e-20 -9.87863e-16 0)
(-7.00736e-20 -9.87862e-16 0)
(-7.91879e-20 -9.87861e-16 0)
(-8.86176e-20 -9.87859e-16 0)
(-9.84104e-20 -9.87857e-16 0)
(-1.08619e-19 -9.87855e-16 0)
(-1.19303e-19 -9.87853e-16 0)
(-1.30529e-19 -9.87851e-16 0)
(-1.42372e-19 -9.87848e-16 0)
(-1.54917e-19 -9.87844e-16 0)
(-1.68265e-19 -9.87841e-16 0)
(-1.82528e-19 -9.87836e-16 0)
(-1.97841e-19 -9.87831e-16 0)
(-2.14362e-19 -9.87825e-16 0)
(-2.32278e-19 -9.87819e-16 0)
(-2.51822e-19 -9.87811e-16 0)
(-2.73281e-19 -9.87802e-16 0)
(-2.97031e-19 -9.87792e-16 0)
(-3.23582e-19 -9.8778e-16 0)
(-3.5367e-19 -9.87766e-16 0)
(-3.88438e-19 -9.8775e-16 0)
(-4.298e-19 -9.87732e-16 0)
(-4.81233e-19 -9.87712e-16 0)
(-5.49611e-19 -9.8769e-16 0)
(-6.49895e-19 -9.87667e-16 0)
(-7.52909e-19 -9.8765e-16 0)
(-8.5288e-19 -9.87639e-16 0)
(-9.94366e-19 -9.87628e-16 0)
(-1.21012e-18 -9.87617e-16 0)
(-1.57159e-18 -9.87606e-16 0)
(-1.51233e-11 -3.5084e-14 0)
(-6.48864e-06 -6.10735e-05 0)
(-6.48863e-06 -0.000258698 0)
(6.48863e-06 -0.000258698 0)
(6.48864e-06 -6.10735e-05 0)
(1.51233e-11 -3.5084e-14 0)
(1.57159e-18 -9.87606e-16 0)
(1.21012e-18 -9.87617e-16 0)
(9.94366e-19 -9.87628e-16 0)
(8.5288e-19 -9.87639e-16 0)
(7.52909e-19 -9.8765e-16 0)
(6.49895e-19 -9.87667e-16 0)
(5.49611e-19 -9.8769e-16 0)
(4.81233e-19 -9.87712e-16 0)
(4.298e-19 -9.87732e-16 0)
(3.88438e-19 -9.8775e-16 0)
(3.5367e-19 -9.87766e-16 0)
(3.23582e-19 -9.8778e-16 0)
(2.97031e-19 -9.87792e-16 0)
(2.73281e-19 -9.87802e-16 0)
(2.51822e-19 -9.87811e-16 0)
(2.32278e-19 -9.87819e-16 0)
(2.14362e-19 -9.87825e-16 0)
(1.97841e-19 -9.87831e-16 0)
(1.82528e-19 -9.87836e-16 0)
(1.68265e-19 -9.87841e-16 0)
(1.54917e-19 -9.87844e-16 0)
(1.42372e-19 -9.87848e-16 0)
(1.30529e-19 -9.87851e-16 0)
(1.19303e-19 -9.87853e-16 0)
(1.08619e-19 -9.87855e-16 0)
(9.84104e-20 -9.87857e-16 0)
(8.86176e-20 -9.87859e-16 0)
(7.91879e-20 -9.87861e-16 0)
(7.00736e-20 -9.87862e-16 0)
(6.12314e-20 -9.87863e-16 0)
(5.26218e-20 -9.87864e-16 0)
(4.42081e-20 -9.87865e-16 0)
(3.59562e-20 -9.87865e-16 0)
(2.78342e-20 -9.87866e-16 0)
(1.98116e-20 -9.87866e-16 0)
(1.18591e-20 -9.87866e-16 0)
(3.94842e-21 -9.87866e-16 0)
(-3.91118e-21 -9.87862e-16 0)
(-1.17469e-20 -9.87862e-16 0)
(-1.9623e-20 -9.87861e-16 0)
(-2.75668e-20 -9.87861e-16 0)
(-3.56065e-20 -9.8786e-16 0)
(-4.37715e-20 -9.8786e-16 0)
(-5.20923e-20 -9.87859e-16 0)
(-6.06019e-20 -9.87858e-16 0)
(-6.9335e-20 -9.87857e-16 0)
(-7.83295e-20 -9.87855e-16 0)
(-8.76264e-20 -9.87853e-16 0)
(-9.7271e-20 -9.87852e-16 0)
(-1.07313e-19 -9.87849e-16 0)
(-1.17809e-19 -9.87847e-16 0)
(-1.28819e-19 -9.87844e-16 0)
(-1.40416e-19 -9.87841e-16 0)
(-1.52678e-19 -9.87837e-16 0)
(-1.65697e-19 -9.87833e-16 0)
(-1.7958e-19 -9.87828e-16 0)
(-1.94448e-19 -9.87822e-16 0)
(-2.10449e-19 -9.87815e-16 0)
(-2.27756e-19 -9.87808e-16 0)
(-2.46584e-19 -9.87799e-16 0)
(-2.67206e-19 -9.87789e-16 0)
(-2.89977e-19 -9.87777e-16 0)
(-3.15388e-19 -9.87763e-16 0)
(-3.44157e-19 -9.87747e-16 0)
(-3.77398e-19 -9.87728e-16 0)
(-4.16966e-19 -9.87706e-16 0)
(-4.66147e-19 -9.87679e-16 0)
(-5.31175e-19 -9.87645e-16 0)
(-6.24747e-19 -9.87599e-16 0)
(-7.17995e-19 -9.87545e-16 0)
(-8.03547e-19 -9.87499e-16 0)
(-9.17148e-19 -9.87432e-16 0)
(-1.07336e-18 -9.87324e-16 0)
(-5.08804e-17 -9.87139e-16 0)
(-3.30983e-06 -2.0134e-09 0)
(-7.3869e-06 -0.000211141 0)
(-4.07707e-06 -0.000327275 0)