/*--------------------------------*- C++ -*----------------------------------*\
  =========                 |
  \\      /  F ield         | OpenFOAM: The Open Source CFD Toolbox
   \\    /   O peration     | Website:  https://openfoam.org
    \\  /    A nd           | Version:  10
     \\/     M anipulation  |
\*---------------------------------------------------------------------------*/
FoamFile
{
    format      ascii;
    class       volScalarField;
    location    "0.025";
    object      pMean;
}
// * * * * * * * * * * * * * * * * * * * * * * * * * * * * * * * * * * * * * //

dimensions      [0 2 -2 0 0 0 0];

internalField   nonuniform List<scalar> 
12225
(
33.1252
31.9806
31.2881
30.8732
30.5189
30.1553
29.7821
29.412
29.0514
28.6977
28.3463
27.9882
27.6192
27.2172
26.7744
26.1905
25.4372
23.8661
32.8978
31.9518
31.2869
30.8654
30.5101
30.1486
29.7766
29.4072
29.0462
28.6932
28.3403
27.985
27.6106
27.2198
26.7575
26.2424
25.4715
24.605
32.8735
31.9472
31.2935
30.8636
30.5042
30.144
29.7738
29.4047
29.0444
28.6907
28.3393
27.9815
27.6119
27.2137
26.775
26.2543
25.6218
24.8544
32.7104
31.9031
31.2886
30.8561
30.4928
30.1348
29.7675
29.4004
29.0404
28.6881
28.3363
27.9811
27.6105
27.2206
26.787
26.3023
25.7355
25.0986
32.5878
31.8662
31.2867
30.8542
30.4859
30.1276
29.7631
29.3979
29.0393
28.6873
28.3371
27.9829
27.617
27.2322
26.8163
26.3619
25.8605
25.3357
32.5403
31.8305
31.2761
30.8509
30.479
30.1197
29.7574
29.3951
29.0383
28.6878
28.3394
27.9879
27.6272
27.2513
26.8541
26.4317
25.9881
25.5397
32.4431
31.7699
31.2514
30.8418
30.4706
30.1103
29.7503
29.3916
29.038
28.69
28.3444
27.997
27.6431
27.2787
26.9009
26.5097
26.1118
25.7211
32.4257
31.7456
31.2412
30.8409
30.4693
30.1065
29.7473
29.3914
29.0404
28.6947
28.3524
28.0101
27.6642
27.3123
26.9538
26.5906
26.2296
25.8818
32.2993
31.6725
31.2037
30.8225
30.4575
30.0969
29.7403
29.3886
29.0424
28.7014
28.364
28.0278
27.691
27.3522
27.012
26.6732
26.3417
26.0258
32.2831
31.6533
31.194
30.8213
30.4583
30.0962
29.7398
29.3908
29.0484
28.7115
28.3788
28.0492
27.7216
27.3955
27.0722
26.7542
26.4463
26.1545
32.204
31.5942
31.1536
30.7954
30.4428
30.0878
29.736
29.391
29.0534
28.7221
28.3961
28.0744
27.7566
27.4429
27.1348
26.8343
26.5453
26.2712
32.1441
31.5696
31.1452
30.7923
30.4426
30.0889
29.7383
29.3961
29.0626
28.7363
28.4159
28.101
27.7916
27.4883
27.1922
26.9052
26.6297
26.3681
32.1287
31.5324
31.1074
30.7679
30.4306
30.084
29.7378
29.3996
29.071
28.7507
28.437
28.1294
27.8284
27.5347
27.2494
26.9738
26.7094
26.4577
32.1393
31.5225
31.0917
30.7582
30.4298
30.0887
29.7453
29.4103
29.0862
28.7716
28.4649
28.1654
27.8735
27.5898
27.3153
27.0506
26.7968
26.5543
32.0393
31.4659
31.0622
30.7417
30.4188
30.0834
29.747
29.4193
29.1029
28.7965
28.4985
28.2084
27.9265
27.6535
27.3898
27.1358
26.8917
26.6576
32.1051
31.47
31.0454
30.7294
30.4202
30.0959
29.7664
29.4437
29.1331
28.834
28.5448
28.2644
27.9927
27.7302
27.477
27.2331
26.9984
26.7727
32.047
31.4385
31.0277
30.7188
30.4164
30.1011
29.781
29.4675
29.1662
28.877
28.598
28.3281
28.0672
27.8152
27.5723
27.3382
27.1127
26.8951
31.8954
31.3613
31.0089
30.7292
30.4368
30.126
29.8131
29.51
29.2201
28.9419
28.6734
28.414
28.1635
27.9222
27.6899
27.4665
27.2515
27.0447
32.0214
31.4353
31.0475
30.7581
30.4701
30.1681
29.8636
29.5676
29.2845
29.0143
28.7553
28.5064
28.2669
28.0369
27.8161
27.6042
27.4006
27.2049
32.0397
31.4661
31.0826
30.7943
30.5089
30.2103
29.9104
29.6211
29.346
29.0841
28.8333
28.5925
28.3615
28.1403
27.9287
27.7263
27.5327
27.3475
32.0256
31.4857
31.1204
30.8318
30.5412
30.2413
29.9442
29.6592
29.3885
29.1308
28.8847
28.6494
28.4244
28.2096
28.0048
27.8094
27.6231
27.4454
32.1227
31.5633
31.1802
30.8802
30.5838
30.2816
29.9845
29.7007
29.4317
29.176
28.9324
28.7003
28.4792
28.2687
28.0685
27.8781
27.6972
27.5252
32.2398
31.6199
31.2018
30.8958
30.6026
30.3029
30.0066
29.7231
29.4552
29.2019
28.9615
28.7327
28.5152
28.3085
28.1124
27.9264
27.7503
27.5834
32.3394
31.7083
31.2703
30.9418
30.6354
30.3326
30.0369
29.7538
29.4856
29.2319
28.992
28.7646
28.549
28.3446
28.151
27.9677
27.7944
27.6306
32.3179
31.7232
31.2901
30.9537
30.6433
30.3416
30.0481
29.7661
29.4984
29.2457
29.0073
28.782
28.5685
28.3663
28.175
27.9943
27.8238
27.6632
32.4781
31.8064
31.332
30.9797
30.6649
30.3631
30.0693
29.786
29.5169
29.2637
29.0256
28.801
28.5885
28.3875
28.1975
28.0183
27.8494
27.6904
32.5255
31.835
31.3386
30.9807
30.6692
30.3698
30.0761
29.7921
29.523
29.2706
29.0336
28.81
28.5986
28.3986
28.2098
28.0318
27.8643
27.707
32.6038
31.8812
31.3587
30.9933
30.6833
30.3843
30.0886
29.8027
29.5329
29.2804
29.0436
28.8205
28.6094
28.41
28.2218
28.0447
27.8782
27.7216
32.6755
31.8969
31.3555
30.9942
30.6886
30.3894
30.0923
29.8058
29.536
29.2839
29.0475
28.8247
28.6142
28.4152
28.2274
28.0509
27.8852
27.73
32.8269
31.9252
31.3548
30.999
30.6963
30.396
30.0976
29.8107
29.541
29.289
29.0527
28.8301
28.6197
28.4209
28.2334
28.0572
27.892
27.7381
22.7767
22.7784
22.7515
22.6804
22.5522
22.3677
22.1329
21.8582
21.5558
21.2399
20.9266
20.6337
20.3785
20.1762
20.0384
19.9708
19.9725
20.035
20.1416
20.2699
20.392
20.4866
20.5303
20.5414
20.5019
20.447
20.3387
20.1807
19.9992
19.8083
19.5578
19.147
18.4255
17.3658
16.0773
14.6577
13.1949
11.7619
10.4184
9.21249
8.18286
7.35981
6.76644
6.41849
6.32459
6.48698
6.90228
7.56033
8.44346
9.52798
10.7857
12.1863
13.6985
15.2916
16.9368
18.6076
20.2811
21.9372
23.5594
25.1342
26.6515
28.1043
29.4891
30.8049
32.0531
33.2368
34.3594
35.4243
36.4341
37.3901
38.2923
39.1397
39.9303
40.6616
41.3311
41.9363
42.4757
42.9488
43.3568
43.7023
43.989
44.2213
44.4039
44.5417
44.6392
44.7003
44.7284
44.7263
44.6965
44.641
44.5616
44.46
44.3381
44.1975
44.0404
43.8687
43.6845
43.49
43.2875
43.0789
42.8664
42.6515
42.4358
42.2204
42.0064
41.7945
41.585
41.3785
41.175
40.9746
40.7774
40.5834
40.3923
40.204
40.0185
39.8355
39.6548
39.4763
39.2997
39.1248
38.9515
38.7796
38.6088
38.4392
38.2704
38.1024
37.9351
37.7682
37.6017
37.4355
37.2694
37.1034
36.9374
36.7713
36.6051
36.4385
36.2717
36.1046
35.9369
35.7688
35.6001
35.4307
35.2607
35.0899
34.9183
34.7458
34.5725
34.3982
34.2229
34.0466
33.8693
33.6909
33.5115
33.3309
33.1492
32.9664
32.7824
32.5974
32.4113
32.2241
32.036
31.8469
31.6571
31.4665
31.2755
31.0843
30.8932
30.7027
30.5132
30.3259
30.1414
29.962
29.7887
29.6265
29.4768
29.3523
29.2556
29.2222
29.2592
29.4598
22.6856
22.6722
22.631
22.5415
22.3987
22.2021
21.9561
21.6686
21.3502
21.0144
20.6773
20.3572
20.0725
19.8411
19.6764
19.5873
19.5772
19.643
19.7708
19.9379
20.1143
20.2665
20.367
20.4029
20.3715
20.2333
20.093
19.8017
19.3832
18.8242
18.2673
17.6915
16.8824
15.8061
14.5425
13.1754
11.7846
10.4334
9.17458
8.05094
7.09844
6.34664
5.81972
5.53563
5.50593
5.73446
6.21667
6.93912
7.88251
9.02328
10.3342
11.7848
13.3436
14.9794
16.663
18.368
20.071
21.7523
23.3956
24.9876
26.5183
27.981
29.372
30.6909
31.9398
33.1223
34.243
35.3061
36.3148
37.2709
38.1747
39.0251
39.8201
40.557
41.2329
41.8449
42.3912
42.8708
43.2847
43.6355
43.9268
44.1634
44.3501
44.4917
44.5929
44.6577
44.6893
44.6907
44.6641
44.6115
44.5348
44.4357
44.3159
44.1773
44.0219
43.8516
43.6688
43.4755
43.274
43.0665
42.8548
42.6408
42.4258
42.2113
41.998
41.7867
41.5778
41.3718
41.1689
40.969
40.7722
40.5785
40.3877
40.1998
40.0145
39.8318
39.6513
39.473
39.2966
39.1219
38.9488
38.7771
38.6066
38.4371
38.2686
38.1008
37.9335
37.7668
37.6005
37.4344
37.2684
37.1026
36.9367
36.7707
36.6045
36.4381
36.2713
36.1042
35.9366
35.7685
35.5998
35.4305
35.2605
35.0897
34.9181
34.7457
34.5723
34.398
34.2228
34.0465
33.8692
33.6908
33.5113
33.3307
33.149
32.9662
32.7822
32.5972
32.411
32.2238
32.0357
31.8466
31.6566
31.466
31.2749
31.0835
30.8922
30.7015
30.5118
30.324
30.1391
29.9588
29.7848
29.6202
29.4694
29.3382
29.2376
29.176
29.1737
29.1873
22.5622
22.5296
22.4544
22.3329
22.1618
21.9402
21.6695
21.3553
21.0071
20.6384
20.2666
19.9123
19.5968
19.3403
19.1598
19.0655
19.0594
19.1348
19.2753
19.4601
19.6648
19.8597
20.0034
20.047
19.9833
19.7476
19.3683
18.8406
18.2239
17.4751
16.6095
15.6692
14.6371
13.5043
12.2886
11.0241
9.75374
8.52078
7.36794
6.33501
5.45919
4.77386
4.30799
4.08442
4.11799
4.41353
4.96613
5.7658
6.79612
8.03137
9.43971
10.9867
12.6374
14.3581
16.1182
17.8902
19.6512
21.3817
23.0661
24.6918
26.249
27.7311
29.1346
30.4596
31.7094
32.8891
34.0053
35.0638
36.0695
37.0254
37.932
38.7885
39.5924
40.3406
41.0296
41.6558
42.2161
42.7092
43.1354
43.4971
43.7982
44.0435
44.2384
44.3878
44.4966
44.5688
44.6078
44.6161
44.596
44.5495
44.4782
44.384
44.2686
44.1339
43.982
43.8149
43.6348
43.4441
43.2449
43.0395
42.8298
42.6177
42.4045
42.1916
41.9798
41.77
41.5626
41.3578
41.156
40.9572
40.7614
40.5686
40.3787
40.1916
40.0071
39.825
39.6451
39.4674
39.2915
39.1173
38.9447
38.7733
38.6032
38.434
38.2658
38.0982
37.9313
37.7648
37.5987
37.4328
37.2671
37.1014
36.9357
36.7698
36.6038
36.4375
36.2708
36.1038
35.9363
35.7683
35.5996
35.4303
35.2603
35.0896
34.918
34.7456
34.5723
34.398
34.2227
34.0465
33.8691
33.6907
33.5112
33.3306
33.1489
32.9661
32.7821
32.597
32.4108
32.2236
32.0353
31.8461
31.6561
31.4653
31.2741
31.0825
30.8909
30.6997
30.5096
30.3211
30.1354
29.9536
29.778
29.6104
29.4558
29.3166
29.2035
29.1127
29.0612
28.9882
22.395
22.339
22.2273
22.0687
21.8616
21.6032
21.2928
20.935
20.5405
20.1257
19.7116
19.3224
18.9826
18.7144
18.5359
18.4552
18.4699
18.5653
18.7185
18.9023
19.0883
19.2366
19.3089
19.2572
18.9934
18.5573
17.992
17.2876
16.458
15.5258
14.5025
13.405
12.2466
11.0426
9.80727
8.5609
7.32927
6.14371
5.03946
4.05427
3.22633
2.59165
2.18118
2.01927
2.12291
2.5006
3.15296
4.07146
5.23379
6.60878
8.16026
9.84833
11.633
13.4769
15.3469
17.2147
19.0575
20.8569
22.5989
24.2719
25.8669
27.3768
28.7983
30.1317
31.3816
32.5556
33.6628
34.7123
35.7116
36.6653
37.5749
38.4392
39.2555
40.0198
40.7279
41.3748
41.9563
42.4697
42.9144
43.2926
43.6083
43.867
44.0742
44.2354
44.3556
44.4388
44.4884
44.5069
44.4963
44.4585
44.395
44.3078
44.1987
44.0697
43.9228
43.7604
43.5845
43.3977
43.2021
42.9999
42.7933
42.584
42.3735
42.1631
41.9538
41.7462
41.5408
41.338
41.138
40.9408
40.7464
40.555
40.3663
40.1802
39.9967
39.8155
39.6365
39.4595
39.2843
39.1107
38.9386
38.7678
38.5982
38.4295
38.2616
38.0945
37.9279
37.7617
37.5959
37.4303
37.2649
37.0994
36.9339
36.7683
36.6024
36.4363
36.2698
36.1029
35.9355
35.7675
35.599
35.4298
35.2598
35.0891
34.9176
34.7452
34.5719
34.3977
34.2224
34.0462
33.8689
33.6905
33.511
33.3304
33.1487
32.9658
32.7818
32.5967
32.4104
32.2231
32.0348
31.8455
31.6553
31.4643
31.2728
31.0809
30.889
30.6973
30.5065
30.3171
30.1302
29.9468
29.7688
29.5977
29.4377
29.2896
29.161
29.045
28.9481
28.8132
22.1563
22.0816
21.9423
21.7517
21.5061
21.2017
20.8386
20.4244
19.9739
19.5084
19.0541
18.6402
18.2939
18.041
17.8957
17.8569
17.9068
18.0179
18.1579
18.2944
18.3967
18.4341
18.3518
18.1029
17.6672
17.0441
16.2681
15.3711
14.3749
13.3008
12.161
10.9649
9.72191
8.44719
7.15715
5.87151
4.61301
3.40966
2.2942
1.30376
0.477713
-0.145129
-0.530175
-0.647135
-0.472861
0.00836718
0.798316
1.87757
3.2171
4.78069
6.52457
8.40114
10.3636
12.369
14.3809
16.3703
18.3152
20.1999
22.013
23.7457
25.3902
26.9391
28.3876
29.7353
30.987
32.1527
33.2454
34.2789
35.2651
36.2116
37.1211
37.9923
38.8216
39.6044
40.3354
41.0082
41.6168
42.1564
42.6253
43.0251
43.3603
43.6366
43.8603
44.0372
44.1726
44.2705
44.3342
44.3658
44.3674
44.3404
44.2867
44.208
44.1065
43.9844
43.8439
43.6873
43.5168
43.335
43.1441
42.9464
42.7439
42.5385
42.3316
42.1247
41.9186
41.714
41.5114
41.3112
41.1135
40.9185
40.7261
40.5365
40.3494
40.1648
39.9826
39.8027
39.6248
39.4488
39.2745
39.1018
38.9305
38.7604
38.5914
38.4234
38.2561
38.0894
37.9233
37.7576
37.5922
37.427
37.2619
37.0968
36.9316
36.7662
36.6006
36.4347
36.2684
36.1016
35.9344
35.7666
35.5981
35.429
35.2592
35.0886
34.9171
34.7448
34.5715
34.3973
34.2221
34.0459
33.8686
33.6902
33.5107
33.3301
33.1484
32.9655
32.7814
32.5963
32.41
32.2226
32.0341
31.8447
31.6543
31.4631
31.2713
31.0791
30.8867
30.6944
30.5027
30.3123
30.1239
29.9384
29.7576
29.5824
29.4161
29.2583
29.1138
28.974
28.8384
28.6599
21.868
21.7821
21.6298
21.4147
21.1311
20.7768
20.3569
19.8848
19.381
18.8731
18.3932
17.9735
17.6442
17.4282
17.3295
17.3295
17.3976
17.4965
17.5856
17.6294
17.6008
17.4651
17.1821
16.7306
16.0979
15.2964
14.3567
13.3061
12.169
10.9639
9.70436
8.40082
7.06195
5.69869
4.32461
2.95754
1.61945
0.33797
-0.853634
-1.91586
-2.80423
-3.47143
-3.8688
-3.95372
-3.69677
-3.0881
-2.1365
-0.860626
0.705072
2.51311
4.50832
6.63245
8.82818
11.0439
13.2377
15.3791
17.4475
19.4309
21.3235
23.1228
24.8256
26.4258
27.9158
29.2915
30.5558
31.7195
32.7988
33.8123
34.7778
35.7082
36.6094
37.481
38.319
39.1179
39.8714
40.5717
41.2105
41.7805
42.2778
42.7032
43.0612
43.3583
43.6015
43.7974
43.9514
44.0675
44.1486
44.1966
44.2129
44.1989
44.1565
44.0876
43.9949
43.8806
43.7473
43.5974
43.4332
43.2573
43.0721
42.8798
42.6825
42.482
42.2798
42.0772
41.8752
41.6744
41.4753
41.2784
41.0836
40.8913
40.7014
40.5139
40.3289
40.1462
39.9656
39.7872
39.6107
39.436
39.2629
39.0912
38.9208
38.7516
38.5834
38.416
38.2494
38.0834
37.9178
37.7527
37.5878
37.423
37.2583
37.0935
36.9287
36.7636
36.5983
36.4326
36.2665
36.1
35.9329
35.7653
35.597
35.428
35.2583
35.0878
34.9164
34.7441
34.5709
34.3968
34.2216
34.0454
33.8681
33.6898
33.5103
33.3297
33.1479
32.965
32.781
32.5957
32.4094
32.2219
32.0333
31.8437
31.6531
31.4617
31.2696
31.0769
30.8839
30.6909
30.4983
30.3065
30.1165
29.9287
29.7446
29.5648
29.3915
29.224
29.0638
28.9028
28.7354
28.5268
21.626
21.5395
21.384
21.1547
20.8452
20.4576
20.0027
19.4989
18.9711
18.45
17.9706
17.5665
17.265
17.0798
16.9997
16.9964
17.0301
17.0559
17.0351
16.9377
16.7369
16.4051
15.9183
15.261
14.4362
13.4649
12.3688
11.1698
9.88975
8.54718
7.15709
5.73008
4.27348
2.79375
1.29921
-0.19726
-1.67647
-3.11022
-4.46014
-5.67702
-6.70271
-7.47228
-7.92172
-7.9997
-7.67385
-6.93476
-5.7907
-4.26875
-2.41424
-0.287885
2.03928
4.49169
6.99627
9.4885
11.9182
14.2519
16.4717
18.5708
20.5506
22.4177
24.1784
25.8326
27.3731
28.7908
30.0842
31.2613
32.3388
33.3387
34.284
35.1939
36.0802
36.9455
37.7862
38.5958
39.3672
40.0916
40.7591
41.3597
41.8868
42.3394
42.7214
43.0404
43.3045
43.5211
43.6959
43.8328
43.9341
44.001
44.0344
44.0352
44.0054
43.9475
43.8643
43.7588
43.6335
43.4911
43.334
43.1649
42.9862
42.8002
42.609
42.4144
42.2178
42.0205
41.8234
41.6272
41.4324
41.2392
41.048
40.8589
40.6719
40.4871
40.3045
40.1239
39.9454
39.7688
39.5939
39.4207
39.2489
39.0785
38.9093
38.741
38.5738
38.4072
38.2414
38.0761
37.9112
37.7467
37.5823
37.4181
37.2539
37.0896
36.9251
36.7605
36.5955
36.4301
36.2643
36.098
35.9312
35.7637
35.5956
35.4268
35.2572
35.0868
34.9155
34.7433
34.5702
34.3961
34.221
34.0449
33.8676
33.6893
33.5098
33.3292
33.1475
32.9645
32.7804
32.5951
32.4087
32.2211
32.0324
31.8426
31.6518
31.4601
31.2676
31.0744
30.8807
30.6869
30.4932
30.3001
30.1081
29.9178
29.7302
29.5455
29.3651
29.1877
29.0129
28.8332
28.6404
28.4092
21.5221
21.4431
21.2942
21.0687
20.7614
20.3779
19.9316
19.4412
18.931
18.4311
17.9752
17.5945
17.3065
17.1111
16.9909
16.9143
16.8403
16.7284
16.5461
16.2682
15.8732
15.3388
14.6439
13.7819
12.764
11.6089
10.3378
8.97418
7.54018
6.05382
4.52764
2.96744
1.37338
-0.257504
-1.92589
-3.62505
-5.33611
-7.02469
-8.63971
-10.1153
-11.3728
-12.3284
-12.9035
-13.0297
-12.6578
-11.7685
-10.3765
-8.52757
-6.28543
-3.7326
-0.963914
1.92207
4.83174
7.68413
10.4181
12.9968
15.4061
17.6465
19.7276
21.6654
23.4783
25.178
26.7634
28.2242
29.5536
30.756
31.8462
32.8474
33.7852
34.6827
35.5573
36.4164
37.2571
38.0729
38.8565
39.5992
40.2897
40.9158
41.4686
41.9458
42.351
42.6921
42.9778
43.2161
43.413
43.5721
43.6955
43.7829
43.8348
43.8516
43.8352
43.7886
43.7155
43.6193
43.503
43.369
43.2201
43.0586
42.8873
42.7086
42.5244
42.3366
42.1466
41.9554
41.764
41.573
41.383
41.1944
41.0073
40.8218
40.6382
40.4564
40.2766
40.0985
39.9223
39.7477
39.5748
39.4033
39.2331
39.064
38.8961
38.729
38.5628
38.3973
38.2323
38.0679
37.9037
37.7399
37.5762
37.4126
37.2489
37.0851
36.9211
36.7568
36.5922
36.4272
36.2617
36.0957
35.9291
35.7618
35.5939
35.4253
35.2558
35.0856
34.9144
34.7424
34.5693
34.3953
34.2203
34.0442
33.867
33.6887
33.5093
33.3287
33.1469
32.9639
32.7798
32.5944
32.4079
32.2202
32.0313
31.8413
31.6503
31.4582
31.2653
31.0716
30.8773
30.6825
30.4877
30.293
30.099
29.906
29.7146
29.5249
29.3373
29.1504
28.9623
28.7663
28.5532
28.3042
21.5751
21.5079
21.3739
21.1684
20.887
20.5388
20.1363
19.6955
19.2358
18.7819
18.3628
17.9979
17.691
17.4383
17.2223
17.0143
16.7799
16.4873
16.1119
15.6335
15.0312
14.2805
13.3656
12.2872
11.0588
9.70109
8.24041
6.70407
5.11474
3.48693
1.82309
0.114235
-1.65454
-3.49778
-5.42299
-7.42466
-9.47851
-11.5382
-13.5354
-15.3818
-16.9739
-18.2017
-18.9553
-19.1398
-18.6952
-17.6089
-15.9071
-13.647
-10.9167
-7.82884
-4.50843
-1.08268
2.32972
5.62817
8.7383
11.6185
14.2587
16.6701
18.8731
20.8932
22.7597
24.4967
26.1143
27.6067
28.9659
30.1945
31.3067
32.3243
33.2718
34.1735
35.049
35.9083
36.7501
37.5693
38.36
39.1143
39.8198
40.4627
41.0331
41.5297
41.9559
42.3192
42.6277
42.8892
43.1097
43.2923
43.4383
43.5471
43.6179
43.6509
43.648
43.6126
43.5496
43.463
43.3562
43.2317
43.0918
42.9392
42.7763
42.6057
42.4295
42.2494
42.0666
41.8823
41.6973
41.5123
41.3277
41.144
40.9614
40.7802
40.6003
40.4219
40.2452
40.0699
39.8963
39.7241
39.5532
39.3837
39.2152
39.0478
38.8813
38.7155
38.5505
38.386
38.2221
38.0585
37.8953
37.7322
37.5692
37.4062
37.2432
37.08
36.9165
36.7527
36.5885
36.4238
36.2587
36.093
35.9267
35.7597
35.592
35.4236
35.2543
35.0842
34.9132
34.7412
34.5683
34.3944
34.2195
34.0434
33.8663
33.688
33.5086
33.328
33.1462
32.9633
32.7791
32.5937
32.407
32.2192
32.0302
31.84
31.6487
31.4563
31.2629
31.0686
30.8735
30.6778
30.4817
30.2855
30.0893
29.8934
29.6982
29.5035
29.309
29.113
28.913
28.7028
28.4734
28.2102
21.7467
21.6911
21.5744
21.3963
21.1536
20.855
20.5108
20.1327
19.7343
19.3328
18.9445
18.5748
18.2229
17.8813
17.5345
17.1618
16.7408
16.2503
15.6705
14.9799
14.153
13.1677
12.0163
10.706
9.25526
7.69119
6.04577
4.3473
2.61287
0.843169
-0.97742
-2.87545
-4.88137
-7.01958
-9.29808
-11.703
-14.1962
-16.7126
-19.1598
-21.4205
-23.3622
-24.8463
-25.7413
-25.9423
-25.387
-24.0639
-22.0063
-19.2858
-16.0128
-12.3293
-8.39382
-4.36627
-0.392533
3.40552
6.93837
10.1569
13.0552
15.6564
17.9949
20.1077
22.0335
23.8076
25.4505
26.9644
28.3459
29.5987
30.7371
31.7809
32.7521
33.6723
34.5597
35.4243
36.2684
37.0898
37.8843
38.6437
39.3552
40.0054
40.5866
41.0985
41.5451
41.9319
42.2653
42.5517
42.7963
43.002
43.1695
43.2979
43.3862
43.4343
43.4443
43.4205
43.368
43.2916
43.1949
43.0806
42.9508
42.8079
42.6545
42.4931
42.3257
42.154
41.9792
41.8024
41.6244
41.4458
41.2671
41.0888
40.9112
40.7344
40.5586
40.384
40.2106
40.0385
39.8676
39.698
39.5295
39.362
39.1955
39.0299
38.8649
38.7006
38.5369
38.3737
38.2108
38.0483
37.8859
37.7237
37.5615
37.3993
37.2369
37.0743
36.9113
36.7481
36.5843
36.4201
36.2554
36.09
35.924
35.7573
35.5898
35.4216
35.2526
35.0826
34.9118
34.74
34.5672
34.3934
34.2185
34.0426
33.8655
33.6873
33.5079
33.3273
33.1455
32.9625
32.7783
32.5928
32.4061
32.2182
32.029
31.8385
31.6469
31.4542
31.2603
31.0654
30.8695
30.6728
30.4754
30.2775
30.0791
29.8804
29.6813
29.4816
29.2805
29.0762
28.8655
28.643
28.4003
28.1258
21.9664
21.9178
21.8156
21.6609
21.4508
21.1922
20.8932
20.5615
20.2051
19.8318
19.4463
19.047
18.6307
18.1893
17.7107
17.18
16.5808
15.8957
15.1054
14.187
13.1183
11.8871
10.4952
8.95681
7.29714
5.54891
3.74317
1.89898
0.0187564
-1.91403
-3.93238
-6.07631
-8.38317
-10.8764
-13.5532
-16.382
-19.3026
-22.2271
-25.0438
-27.6211
-29.8127
-31.466
-32.4355
-32.6026
-31.8972
-30.3092
-27.8832
-24.7063
-20.9083
-16.6554
-12.1361
-7.53851
-3.03234
1.24159
5.17931
8.72217
11.8684
14.651
17.1179
19.3193
21.3034
23.1154
24.7828
26.3157
27.7169
28.9947
30.1634
31.2398
32.2412
33.1836
34.0849
34.9576
35.8066
36.6309
37.4262
38.1843
38.8944
39.5465
40.1363
40.6642
41.133
41.5456
41.9055
42.2167
42.4834
42.7083
42.8925
43.0357
43.1379
43.1993
43.2224
43.2112
43.1709
43.1064
43.0212
42.9179
42.7989
42.6667
42.5237
42.3723
42.2145
42.0518
41.8856
41.7168
41.5461
41.3743
41.2019
41.0293
40.8568
40.6848
40.5134
40.3428
40.1731
40.0043
39.8365
39.6697
39.5037
39.3385
39.1741
39.0103
38.8471
38.6844
38.5222
38.3602
38.1986
38.0371
37.8758
37.7145
37.5531
37.3917
37.23
37.068
36.9057
36.743
36.5798
36.416
36.2517
36.0867
35.921
35.7546
35.5875
35.4195
35.2506
35.0809
34.9102
34.7386
34.5659
34.3922
34.2175
34.0416
33.8646
33.6864
33.5071
33.3265
33.1448
32.9617
32.7775
32.5919
32.4051
32.217
32.0277
31.837
31.6451
31.4519
31.2576
31.062
30.8654
30.6676
30.4689
30.2692
30.0686
29.867
29.6642
29.4597
29.2523
29.0403
28.8202
28.5871
28.3335
28.0497
22.1643
22.1191
22.0246
21.8835
21.6916
21.4541
21.1759
20.8617
20.5146
20.136
19.7232
19.273
18.7793
18.2333
17.6231
16.9353
16.1554
15.2675
14.2547
13.1005
11.7942
10.3348
8.73097
7.00211
5.17439
3.27557
1.32732
-0.663853
-2.70752
-4.83221
-7.07713
-9.48132
-12.074
-14.8638
-17.8302
-20.9283
-24.0905
-27.2258
-30.2208
-32.9401
-35.2289
-36.9213
-37.8591
-37.9173
-37.0268
-35.1845
-32.4444
-28.9017
-24.6977
-20.0167
-15.0688
-10.0555
-5.16286
-0.545041
3.68547
7.46633
10.7991
13.721
16.2875
18.5579
20.5902
22.4345
24.1244
25.6765
27.0999
28.4058
29.6065
30.7136
31.7399
32.7021
33.6195
34.5045
35.3607
36.1869
36.9796
37.7329
38.4401
39.0956
39.6968
40.243
40.7346
41.1718
41.5554
41.8876
42.1712
42.4093
42.6043
42.7581
42.8719
42.9467
42.9844
42.9878
42.9616
42.9103
42.8377
42.7464
42.639
42.5181
42.3861
42.2452
42.0974
41.9443
41.7869
41.6264
41.4634
41.2986
41.1326
40.966
40.799
40.632
40.4652
40.2988
40.1329
39.9677
39.8031
39.6392
39.4759
39.3132
39.1511
38.9893
38.828
38.667
38.5063
38.3457
38.1854
38.0251
37.8649
37.7046
37.5441
37.3835
37.2226
37.0613
36.8997
36.7375
36.5748
36.4116
36.2477
36.0831
35.9178
35.7517
35.5849
35.4171
35.2485
35.079
34.9085
34.7371
34.5646
34.391
34.2163
34.0406
33.8636
33.6855
33.5062
33.3257
33.1439
32.9609
32.7766
32.591
32.4041
32.2159
32.0263
31.8354
31.6432
31.4496
31.2548
31.0586
30.8611
30.6623
30.4622
30.2608
30.058
29.8536
29.6471
29.438
29.2249
29.0057
28.7774
28.5351
28.2724
27.9812
22.2897
22.2444
22.1501
22.0121
21.8248
21.5897
21.3089
20.984
20.6144
20.198
19.7298
19.2026
18.6068
17.9315
17.1653
16.2969
15.3157
14.2116
12.9766
11.6054
10.0977
8.45793
6.69555
4.82681
2.8708
0.845989
-1.23475
-3.36953
-5.56705
-7.84871
-10.2428
-12.7765
-15.4679
-18.3224
-21.3214
-24.4278
-27.5823
-30.6971
-33.6549
-36.3125
-38.5095
-40.0808
-40.8746
-40.7758
-39.7212
-37.7073
-34.7852
-31.0558
-26.6651
-21.8002
-16.6749
-11.4959
-6.45116
-1.69819
2.64914
6.52973
9.94456
12.9318
15.5482
17.8576
19.9214
21.7909
23.501
25.072
26.5177
27.8487
29.073
30.1998
31.2445
32.2265
33.163
34.0624
34.9261
35.7539
36.5453
37.2978
38.0082
38.6724
39.2872
39.8502
40.3596
40.8144
41.2143
41.5607
41.856
42.1037
42.3077
42.4718
42.5983
42.6883
42.7421
42.7613
42.7492
42.7106
42.6498
42.57
42.4742
42.3647
42.2438
42.1138
41.9762
41.8327
41.6843
41.5321
41.3769
41.2193
41.06
40.8995
40.7381
40.5763
40.4143
40.2523
40.0905
39.9289
39.7677
39.6069
39.4465
39.2864
39.1265
38.967
38.8076
38.6484
38.4893
38.3303
38.1713
38.0123
37.8532
37.694
37.5345
37.3748
37.2147
37.0542
36.8932
36.7316
36.5695
36.4068
36.2434
36.0792
35.9143
35.7486
35.582
35.4146
35.2463
35.077
34.9067
34.7354
34.5631
34.3896
34.2151
34.0394
33.8626
33.6845
33.5053
33.3248
33.143
32.96
32.7757
32.59
32.403
32.2146
32.0249
31.8338
31.6412
31.4473
31.2519
31.0551
30.8568
30.6569
30.4555
30.2524
30.0474
29.8402
29.6303
29.4168
29.1983
28.9728
28.7371
28.487
28.2166
27.9193
22.3219
22.2715
22.1664
22.0175
21.817
21.5633
21.2554
20.8919
20.4682
19.977
19.4096
18.757
18.01
17.1603
16.2005
15.125
13.9302
12.6156
11.1843
9.64142
7.99071
6.23496
4.37813
2.42908
0.400497
-1.69285
-3.83579
-6.01721
-8.23264
-10.4904
-12.8114
-15.2228
-17.7488
-20.4032
-23.1802
-26.0509
-28.9599
-31.8222
-34.5229
-36.9248
-38.8817
-40.2424
-40.8663
-40.646
-39.5182
-37.4776
-34.5684
-30.8801
-26.557
-21.7847
-16.7657
-11.6976
-6.75928
-2.1016
2.16668
5.99009
9.36822
12.3353
14.9444
17.2572
19.3319
21.215
22.9382
24.5222
25.9814
27.3247
28.5602
29.7001
30.7631
31.7669
32.7227
33.6354
34.5073
35.3411
36.1383
36.8977
37.6162
38.2897
38.9147
39.4879
40.0072
40.4717
40.8816
41.2382
41.5438
41.8019
42.0168
42.1932
42.3335
42.4381
42.5067
42.5398
42.5401
42.5124
42.4618
42.3925
42.3074
42.209
42.0991
41.9797
41.8522
41.7182
41.5788
41.4349
41.2875
41.1372
40.9846
40.8303
40.6747
40.5183
40.3612
40.2037
40.046
39.8883
39.7306
39.573
39.4155
39.2581
39.1007
38.9434
38.7861
38.6288
38.4714
38.314
38.1565
37.9988
37.8409
37.6828
37.5243
37.3655
37.2063
37.0466
36.8863
36.7254
36.5639
36.4017
36.2388
36.0751
35.9106
35.7453
35.5791
35.4119
35.2439
35.0748
34.9048
34.7337
34.5615
34.3882
34.2138
34.0382
33.8615
33.6835
33.5043
33.3239
33.1421
32.9591
32.7747
32.589
32.4019
32.2134
32.0235
31.8321
31.6393
31.4449
31.2491
31.0516
30.8525
30.6516
30.4488
30.2441
30.037
29.8271
29.6139
29.3964
29.173
28.9417
28.6996
28.4427
28.1658
27.8634
22.2401
22.181
22.055
21.877
21.6397
21.3389
20.9675
20.5182
19.9805
19.3466
18.6111
17.7708
16.8223
15.762
14.5886
13.305
11.9197
10.4444
8.89022
7.26369
5.56557
3.79482
1.95342
0.0502107
-1.90103
-3.88432
-5.88193
-7.87914
-9.87168
-11.8709
-13.8987
-15.9878
-18.1649
-20.4456
-22.827
-25.2891
-27.7816
-30.2302
-32.5351
-34.5774
-36.2287
-37.3566
-37.8355
-37.565
-36.482
-34.5725
-31.8705
-28.4567
-24.4602
-20.0492
-15.4066
-10.709
-6.11785
-1.76981
2.23844
5.85937
9.09043
11.9586
14.5084
16.7913
18.8542
20.7327
22.4525
24.0336
25.4907
26.8342
28.0756
29.2303
30.3145
31.3401
32.3139
33.2402
34.1234
34.9673
35.773
36.5391
37.2627
37.9401
38.5683
39.1448
39.6683
40.1386
40.5562
40.9224
41.2391
41.5091
41.7367
41.9263
42.08
42.1972
42.2772
42.321
42.3319
42.3145
42.274
42.215
42.1404
42.0525
41.9532
41.8439
41.7263
41.6016
41.471
41.3354
41.1958
41.0528
40.907
40.759
40.6093
40.4583
40.3062
40.1534
40
39.8461
39.692
39.5377
39.3833
39.2286
39.0738
38.9188
38.7636
38.6083
38.4527
38.2969
38.1409
37.9846
37.828
37.671
37.5136
37.3558
37.1975
37.0386
36.879
36.7189
36.558
36.3964
36.234
36.0707
35.9067
35.7417
35.5759
35.4091
35.2413
35.0725
34.9027
34.7318
34.5598
34.3867
34.2124
34.037
33.8603
33.6824
33.5033
33.3229
33.1412
32.9581
32.7737
32.5879
32.4008
32.2121
32.0221
31.8305
31.6373
31.4426
31.2462
31.0481
30.8482
30.6463
30.4423
30.2359
30.0268
29.8145
29.5982
29.3769
29.149
28.9126
28.6648
28.402
28.1197
27.813
22.0135
21.9408
21.7863
21.5517
21.2356
20.8299
20.317
19.6858
18.9315
18.0611
17.0838
16.0063
14.8328
13.5712
12.2331
10.8308
9.37656
7.88315
6.36191
4.82059
3.26343
1.69265
0.11078
-1.48447
-3.09158
-4.71377
-6.34954
-7.99144
-9.63919
-11.2939
-12.9671
-14.6766
-16.4423
-18.2788
-20.1895
-22.1626
-24.1643
-26.1382
-28.0052
-29.6684
-31.0178
-31.9382
-32.3199
-32.0715
-31.134
-29.4885
-27.1619
-24.2194
-20.7663
-16.9389
-12.8883
-8.76495
-4.70817
-0.83348
2.77946
6.0902
9.09199
11.8018
14.2501
16.4707
18.4933
20.3415
22.0363
23.5967
25.0383
26.3752
27.6226
28.7946
29.9016
30.9492
31.9411
32.8816
33.7753
34.6261
35.4356
36.2034
36.927
37.6034
38.2299
38.8052
39.3295
39.804
40.2292
40.6058
40.9349
41.2185
41.4595
41.6618
41.8271
41.9548
42.0441
42.0968
42.1173
42.1105
42.0812
42.0334
41.9698
41.8927
41.8036
41.7044
41.5965
41.4811
41.3595
41.2324
41.1007
40.9651
40.8262
40.6847
40.541
40.3956
40.2487
40.1006
39.9516
39.8018
39.6515
39.5006
39.3493
39.1976
39.0454
38.8929
38.7399
38.5866
38.4329
38.2789
38.1244
37.9695
37.8143
37.6585
37.5023
37.3455
37.1881
37.0301
36.8714
36.7119
36.5517
36.3907
36.2288
36.0661
35.9025
35.738
35.5725
35.4061
35.2386
35.0701
34.9005
34.7298
34.558
34.3851
34.2109
34.0356
33.8591
33.6813
33.5022
33.3219
33.1402
32.9571
32.7727
32.5869
32.3996
32.2109
32.0206
31.8288
31.6354
31.4403
31.2434
31.0447
30.844
30.6411
30.4359
30.228
30.017
29.8023
29.5831
29.3584
29.1266
28.8856
28.6328
28.3649
28.078
27.7676
21.6857
21.5895
21.3611
21.0076
20.5201
19.8888
19.1005
18.1653
17.1062
15.9542
14.739
13.4887
12.2236
10.9568
9.69296
8.43597
7.1917
5.97252
4.78337
3.62693
2.48948
1.36052
0.220743
-0.943847
-2.14469
-3.38801
-4.67287
-5.99174
-7.3364
-8.69947
-10.0793
-11.4825
-12.9214
-14.4068
-15.9428
-17.5217
-19.1213
-20.7008
-22.2006
-23.5449
-24.6449
-25.4061
-25.7371
-25.562
-24.8306
-23.5207
-21.6476
-19.2559
-16.4218
-13.2486
-9.8564
-6.37003
-2.90414
0.44978
3.6288
6.59697
9.34179
11.8678
14.1873
16.3151
18.2668
20.0595
21.7104
23.2358
24.6535
25.9819
27.2366
28.4265
29.5536
30.6184
31.6225
32.5704
33.4683
34.3215
35.1327
35.9008
36.6229
37.2952
37.9159
38.4863
39.01
39.4894
39.9245
40.3139
40.6566
40.9532
41.2054
41.4159
41.5871
41.7201
41.8154
41.8756
41.9053
41.9091
41.891
41.8544
41.8018
41.7351
41.6562
41.5666
41.468
41.3617
41.2487
41.1298
41.0059
40.8776
40.7455
40.6104
40.4726
40.3326
40.1908
40.0474
39.9027
39.7569
39.6103
39.4628
39.3147
39.1659
39.0165
38.8664
38.7157
38.5645
38.4127
38.2604
38.1075
37.9541
37.8002
37.6457
37.4906
37.3349
37.1785
37.0213
36.8634
36.7047
36.5452
36.3848
36.2235
36.0614
35.8982
35.7341
35.569
35.4029
35.2358
35.0675
34.8982
34.7278
34.5562
34.3834
34.2094
34.0342
33.8578
33.6801
33.5011
33.3208
33.1392
32.9561
32.7717
32.5858
32.3985
32.2096
32.0192
31.8272
31.6335
31.4381
31.2407
31.0414
30.84
30.6362
30.4298
30.2205
30.0077
29.7909
29.5691
29.3412
29.1058
28.8607
28.6036
28.3314
28.0404
27.727
21.3282
21.1714
20.8025
20.2254
19.4328
18.4543
17.3173
16.072
14.7728
13.4814
12.2503
11.1139
10.0804
9.14144
8.27462
7.45701
6.67199
5.91302
5.17015
4.43115
3.68298
2.91044
2.0961
1.22629
0.292791
-0.707313
-1.77124
-2.89129
-4.05726
-5.2589
-6.48855
-7.74299
-9.0229
-10.3298
-11.6622
-13.0128
-14.3645
-15.688
-16.9393
-18.0606
-18.9832
-19.6312
-19.931
-19.8211
-19.2586
-18.2275
-16.7333
-14.8016
-12.4859
-9.86529
-7.03641
-4.09938
-1.14308
1.76229
4.56519
7.23126
9.74198
12.0894
14.2708
16.2892
18.1545
19.8796
21.4774
22.9641
24.3606
25.6864
26.9503
28.1513
29.2856
30.3531