/*--------------------------------*- C++ -*----------------------------------*\
  =========                 |
  \\      /  F ield         | OpenFOAM: The Open Source CFD Toolbox
   \\    /   O peration     | Website:  https://openfoam.org
    \\  /    A nd           | Version:  10
     \\/     M anipulation  |
\*---------------------------------------------------------------------------*/
FoamFile
{
    format      ascii;
    class       volSymmTensorField;
    location    "0.025";
    object      UPrime2Mean;
}
// * * * * * * * * * * * * * * * * * * * * * * * * * * * * * * * * * * * * * //

dimensions      [0 2 -2 0 0 0 0];

internalField   nonuniform List<symmTensor> 
12225
(
(0.0608679 0.00152911 0 0.00226006 0 0)
(0.0160081 2.17468e-05 0 0.00105235 0 0)
(0.0227801 -0.0007957 0 0.000764312 0 0)
(0.0264305 -0.00117765 0 0.000638743 0 0)
(0.0391172 -0.00180687 0 0.000574736 0 0)
(0.06537 -0.00280747 0 0.000553997 0 0)
(0.106429 -0.00428693 0 0.000560737 0 0)
(0.162356 -0.00564226 0 0.000501694 0 0)
(0.238166 -0.00861101 0 0.00063562 0 0)
(0.334213 -0.0088022 0 0.000489785 0 0)
(0.468958 -0.0172373 0 0.000921449 0 0)
(0.628794 -0.0111039 0 0.000533297 0 0)
(0.879181 -0.0400731 0 0.00227387 0 0)
(1.15007 -0.00560098 0 0.00122691 0 0)
(1.66262 -0.114463 0 0.0103826 0 0)
(2.21716 0.0408888 0 0.00868201 0 0)
(3.51005 -0.461873 0 0.0896193 0 0)
(5.47546 0.117934 0 0.0366112 0 0)
(0.0563616 0.000663806 0 0.00256725 0 0)
(0.014855 0.000130349 0 0.0012641 0 0)
(0.015948 -0.000470106 0 0.000830378 0 0)
(0.0138235 -0.000503808 0 0.000728355 0 0)
(0.0135067 -0.000678687 0 0.000745184 0 0)
(0.0153801 -0.00139457 0 0.000865423 0 0)
(0.0193227 -0.00239215 0 0.000973167 0 0)
(0.0270964 -0.00419623 0 0.00126898 0 0)
(0.0387637 -0.00592414 0 0.00137798 0 0)
(0.0598594 -0.00994253 0 0.00216509 0 0)
(0.0867261 -0.0124491 0 0.00219607 0 0)
(0.138275 -0.0226845 0 0.00426382 0 0)
(0.195979 -0.0257072 0 0.00401286 0 0)
(0.32328 -0.0547295 0 0.0101936 0 0)
(0.448224 -0.058113 0 0.00926238 0 0)
(0.798268 -0.156982 0 0.0338746 0 0)
(1.10949 -0.21159 0 0.0426509 0 0)
(2.07185 -0.701147 0 0.269757 0 0)
(0.0709815 0.00174025 0 0.00321805 0 0)
(0.0197303 0.000988059 0 0.00167004 0 0)
(0.0175332 7.00742e-06 0 0.00116728 0 0)
(0.0148954 -0.00036959 0 0.0010363 0 0)
(0.0149513 -0.000662024 0 0.00108179 0 0)
(0.0167026 -0.00119141 0 0.00121633 0 0)
(0.019971 -0.00227594 0 0.00150432 0 0)
(0.0250828 -0.0038003 0 0.00176912 0 0)
(0.0332293 -0.00638744 0 0.00250231 0 0)
(0.0450218 -0.00904321 0 0.00293934 0 0)
(0.0638427 -0.0150081 0 0.00479572 0 0)
(0.0901988 -0.0198529 0 0.00553286 0 0)
(0.133711 -0.0354488 0 0.0107133 0 0)
(0.194365 -0.0455777 0 0.0121424 0 0)
(0.299995 -0.0918981 0 0.0299537 0 0)
(0.450281 -0.130729 0 0.0397868 0 0)
(0.696886 -0.292578 0 0.131205 0 0)
(1.00476 -0.556542 0 0.335971 0 0)
(0.0613748 0.000221664 0 0.00330064 0 0)
(0.0157533 -0.000121361 0 0.00196816 0 0)
(0.0162217 -0.000837658 0 0.00146222 0 0)
(0.0139668 -0.00107569 0 0.00135304 0 0)
(0.0136865 -0.00144474 0 0.00148386 0 0)
(0.0152389 -0.00231611 0 0.00180025 0 0)
(0.0184911 -0.00367481 0 0.00222805 0 0)
(0.0237525 -0.0057088 0 0.00292891 0 0)
(0.0315603 -0.00835522 0 0.00373657 0 0)
(0.0434179 -0.0126023 0 0.00524543 0 0)
(0.0606652 -0.0182005 0 0.0070176 0 0)
(0.0869399 -0.02789 0 0.0105565 0 0)
(0.125195 -0.0410886 0 0.0151152 0 0)
(0.183342 -0.0650544 0 0.0247599 0 0)
(0.26935 -0.102498 0 0.0408908 0 0)
(0.393673 -0.171706 0 0.0778177 0 0)
(0.564326 -0.303147 0 0.170454 0 0)
(0.742713 -0.500221 0 0.362094 0 0)
(0.0649182 0.00227462 0 0.00416683 0 0)
(0.0184607 0.000487591 0 0.00254695 0 0)
(0.0184869 -0.000442468 0 0.0019145 0 0)
(0.0155178 -0.000678609 0 0.00178546 0 0)
(0.0146792 -0.00102154 0 0.00196651 0 0)
(0.0158444 -0.00194831 0 0.00239573 0 0)
(0.0187385 -0.00361943 0 0.0030822 0 0)
(0.0236915 -0.00604041 0 0.00396793 0 0)
(0.0315572 -0.00958146 0 0.00536244 0 0)
(0.0434782 -0.0144208 0 0.00721232 0 0)
(0.0611048 -0.0219006 0 0.0103555 0 0)
(0.0865495 -0.0325305 0 0.0148389 0 0)
(0.123226 -0.049728 0 0.0228362 0 0)
(0.17504 -0.0757456 0 0.0357467 0 0)
(0.248622 -0.11897 0 0.060504 0 0)
(0.345266 -0.190654 0 0.110286 0 0)
(0.465125 -0.302883 0 0.207454 0 0)
(0.570806 -0.469048 0 0.425249 0 0)
(0.0602789 -0.00037381 0 0.00511919 0 0)
(0.0139128 -0.0001852 0 0.00335175 0 0)
(0.0144144 -0.00139114 0 0.00242288 0 0)
(0.0114175 -0.00173323 0 0.00228846 0 0)
(0.0106259 -0.00218261 0 0.00255745 0 0)
(0.0121847 -0.00329621 0 0.00319113 0 0)
(0.0155022 -0.00520556 0 0.00418798 0 0)
(0.020535 -0.00800379 0 0.00560977 0 0)
(0.0279758 -0.011984 0 0.00761114 0 0)
(0.0389159 -0.0177023 0 0.0105155 0 0)
(0.0549483 -0.0261187 0 0.0148799 0 0)
(0.0778157 -0.0385313 0 0.0215858 0 0)
(0.11038 -0.0574241 0 0.0324648 0 0)
(0.154725 -0.0859049 0 0.0504825 0 0)
(0.214716 -0.130515 0 0.0826685 0 0)
(0.287457 -0.197519 0 0.140888 0 0)
(0.368921 -0.295553 0 0.249087 0 0)
(0.433437 -0.419569 0 0.443731 0 0)
(0.0616153 0.00170026 0 0.00429307 0 0)
(0.0174038 0.000505161 0 0.00364068 0 0)
(0.0196912 -0.000331045 0 0.00297667 0 0)
(0.0172349 -0.00068129 0 0.00293072 0 0)
(0.0162419 -0.00136504 0 0.00332338 0 0)
(0.0174298 -0.00278297 0 0.00414335 0 0)
(0.0205736 -0.00508833 0 0.00543733 0 0)
(0.0255063 -0.00837549 0 0.00728791 0 0)
(0.0326056 -0.0129352 0 0.00992905 0 0)
(0.0426597 -0.0193346 0 0.0137933 0 0)
(0.0569373 -0.0285562 0 0.0195634 0 0)
(0.0767513 -0.042026 0 0.0284994 0 0)
(0.104085 -0.0618388 0 0.0425129 0 0)
(0.139788 -0.091068 0 0.0656073 0 0)
(0.18538 -0.133659 0 0.103754 0 0)
(0.236521 -0.193947 0 0.169593 0 0)
(0.288894 -0.273392 0 0.27772 0 0)
(0.325124 -0.363418 0 0.451975 0 0)
(0.0611568 0.00221479 0 0.0060713 0 0)
(0.0125738 0.000672596 0 0.00405504 0 0)
(0.0139649 -0.000604252 0 0.00329526 0 0)
(0.0122622 -0.00107185 0 0.00360312 0 0)
(0.0122768 -0.0018508 0 0.00432592 0 0)
(0.014182 -0.00345113 0 0.0054893 0 0)
(0.0175714 -0.00601939 0 0.00720133 0 0)
(0.0223344 -0.00960999 0 0.00961834 0 0)
(0.0289017 -0.0145271 0 0.0130781 0 0)
(0.0380232 -0.0213953 0 0.0181337 0 0)
(0.0507583 -0.0312152 0 0.0256208 0 0)
(0.0680183 -0.0452767 0 0.0369616 0 0)
(0.0909867 -0.0654023 0 0.0543227 0 0)
(0.119614 -0.093782 0 0.0817347 0 0)
(0.153923 -0.132932 0 0.124868 0 0)
(0.189609 -0.184358 0 0.193956 0 0)
(0.222899 -0.246683 0 0.298808 0 0)
(0.242946 -0.311261 0 0.454614 0 0)
(0.06789 0.00132309 0 0.00573344 0 0)
(0.0200275 -0.000553944 0 0.00446239 0 0)
(0.0204979 -0.00204887 0 0.00391185 0 0)
(0.0175063 -0.00248574 0 0.00411532 0 0)
(0.0163327 -0.00313584 0 0.0048797 0 0)
(0.0172085 -0.00462486 0 0.00624076 0 0)
(0.019782 -0.00710347 0 0.00834707 0 0)
(0.0238119 -0.0107296 0 0.0113895 0 0)
(0.0294801 -0.01585 0 0.0157305 0 0)
(0.0372548 -0.0229982 0 0.0220269 0 0)
(0.0478166 -0.0329809 0 0.0312203 0 0)
(0.0616 -0.0468675 0 0.0449027 0 0)
(0.079183 -0.0660512 0 0.0652991 0 0)
(0.100017 -0.0919765 0 0.0962822 0 0)
(0.123659 -0.125959 0 0.142722 0 0)
(0.146528 -0.167749 0 0.212538 0 0)
(0.166265 -0.215013 0 0.311966 0 0)
(0.176466 -0.259993 0 0.449617 0 0)
(0.0669234 0.00388567 0 0.00612713 0 0)
(0.0166498 -0.000971409 0 0.00437282 0 0)
(0.0162275 -0.00227528 0 0.00429506 0 0)
(0.0138114 -0.0022314 0 0.00498446 0 0)
(0.0132624 -0.00265235 0 0.00610645 0 0)
(0.0144444 -0.00422926 0 0.00786508 0 0)
(0.0170744 -0.00699605 0 0.0105189 0 0)
(0.020929 -0.0108759 0 0.0143458 0 0)
(0.0260527 -0.016063 0 0.0197277 0 0)
(0.0326863 -0.0230563 0 0.0273355 0 0)
(0.0412882 -0.0326346 0 0.0381735 0 0)
(0.0521262 -0.0457166 0 0.0539253 0 0)
(0.0653988 -0.0633197 0 0.0768038 0 0)
(0.0803114 -0.0861841 0 0.110355 0 0)
(0.096014 -0.114666 0 0.158488 0 0)
(0.109745 -0.147434 0 0.227107 0 0)
(0.120053 -0.181914 0 0.319578 0 0)
(0.123439 -0.211488 0 0.441041 0 0)
(0.0566229 0.00261474 0 0.00686887 0 0)
(0.0133625 -0.00151522 0 0.00610362 0 0)
(0.0142025 -0.00382386 0 0.00528981 0 0)
(0.0118344 -0.00413255 0 0.00564309 0 0)
(0.0110986 -0.0046381 0 0.00698421 0 0)
(0.0120552 -0.00627954 0 0.00923321 0 0)
(0.0143142 -0.00911857 0 0.0124543 0 0)
(0.0174909 -0.0130475 0 0.0169208 0 0)
(0.0215284 -0.0182168 0 0.0231443 0 0)
(0.0266152 -0.0250679 0 0.0319463 0 0)
(0.0331114 -0.0342344 0 0.0444095 0 0)
(0.0411603 -0.0463502 0 0.0621445 0 0)
(0.0507016 -0.0619728 0 0.0871202 0 0)
(0.0608912 -0.0812544 0 0.122291 0 0)
(0.0707963 -0.103858 0 0.170539 0 0)
(0.0785087 -0.128122 0 0.23606 0 0)
(0.0831408 -0.151542 0 0.320316 0 0)
(0.0832305 -0.169234 0 0.426553 0 0)
(0.0676257 0.00379182 0 0.00653778 0 0)
(0.0178775 -0.000841046 0 0.00683181 0 0)
(0.0173888 -0.00250802 0 0.00620992 0 0)
(0.0143629 -0.00221865 0 0.00651114 0 0)
(0.0130078 -0.00235495 0 0.00793435 0 0)
(0.0132919 -0.00375354 0 0.0104729 0 0)
(0.0146674 -0.0062252 0 0.0141877 0 0)
(0.0166376 -0.00954222 0 0.0193455 0 0)
(0.0190496 -0.0138753 0 0.0264225 0 0)
(0.0220237 -0.0196412 0 0.0362132 0 0)
(0.0258365 -0.0273304 0 0.0497944 0 0)
(0.0305372 -0.0372689 0 0.0687133 0 0)
(0.0359685 -0.0496689 0 0.0947372 0 0)
(0.0413283 -0.0642261 0 0.13033 0 0)
(0.0460948 -0.0803614 0 0.177568 0 0)
(0.0489807 -0.0962353 0 0.239418 0 0)
(0.0499446 -0.109938 0 0.316181 0 0)
(0.0482704 -0.117458 0 0.409993 0 0)
(0.0565681 0.00207976 0 0.00758736 0 0)
(0.0144652 -0.00333226 0 0.00681275 0 0)
(0.0155808 -0.0049749 0 0.00605715 0 0)
(0.0131446 -0.00492234 0 0.00692329 0 0)
(0.0125159 -0.00535748 0 0.00897868 0 0)
(0.0133685 -0.00694901 0 0.0120186 0 0)
(0.0149317 -0.00953901 0 0.0162015 0 0)
(0.0167602 -0.0129414 0 0.0219493 0 0)
(0.0188533 -0.0172659 0 0.0298483 0 0)
(0.0213751 -0.0228112 0 0.0406883 0 0)
(0.0244741 -0.0299327 0 0.0554088 0 0)
(0.0280551 -0.0387592 0 0.0753344 0 0)
(0.031933 -0.0492804 0 0.101899 0 0)
(0.0354796 -0.0609222 0 0.137094 0 0)
(0.0382543 -0.0729749 0 0.182327 0 0)
(0.0394605 -0.0836361 0 0.239767 0 0)
(0.0392145 -0.0915095 0 0.308963 0 0)
(0.037314 -0.0931821 0 0.391611 0 0)
(0.0616723 0.00222491 0 0.00923547 0 0)
(0.0159044 -0.00109024 0 0.00775469 0 0)
(0.0158976 -0.0023935 0 0.00729349 0 0)
(0.0136437 -0.00182697 0 0.00837825 0 0)
(0.0125204 -0.00160612 0 0.010462 0 0)
(0.0122458 -0.00251157 0 0.0137225 0 0)
(0.0125992 -0.00447585 0 0.0183531 0 0)
(0.0133957 -0.00715032 0 0.0246525 0 0)
(0.0145513 -0.010428 0 0.0331302 0 0)
(0.0159978 -0.0144452 0 0.0445446 0 0)
(0.0176706 -0.019438 0 0.0597894 0 0)
(0.019379 -0.0254169 0 0.0800507 0 0)
(0.0209575 -0.0322204 0 0.106452 0 0)
(0.0220315 -0.03917 0 0.140502 0 0)
(0.0224706 -0.0454999 0 0.182952 0 0)
(0.0220639 -0.0496873 0 0.23525 0 0)
(0.0210958 -0.0507089 0 0.296391 0 0)
(0.020072 -0.0461407 0 0.367655 0 0)
(0.0617867 0.00398972 0 0.00948309 0 0)
(0.0137961 -0.000782068 0 0.00862644 0 0)
(0.0143322 -0.00333549 0 0.0078185 0 0)
(0.0129382 -0.00319522 0 0.00919747 0 0)
(0.012468 -0.00313989 0 0.0119787 0 0)
(0.0122505 -0.00413458 0 0.0159228 0 0)
(0.0121142 -0.00601872 0 0.0211768 0 0)
(0.0120613 -0.00838537 0 0.0281415 0 0)
(0.0122256 -0.0111244 0 0.0373637 0 0)
(0.0127187 -0.014322 0 0.0495083 0 0)
(0.0135214 -0.0180559 0 0.0652538 0 0)
(0.0144171 -0.0221502 0 0.0854744 0 0)
(0.0151783 -0.0262582 0 0.110913 0 0)
(0.0155118 -0.0296393 0 0.142624 0 0)
(0.0153642 -0.0316151 0 0.180894 0 0)
(0.0148563 -0.0309462 0 0.226693 0 0)
(0.0143935 -0.0270546 0 0.27878 0 0)
(0.0146745 -0.0181356 0 0.338302 0 0)
(0.0644869 0.00376876 0 0.0114395 0 0)
(0.014407 -0.000758926 0 0.0121375 0 0)
(0.0129934 -0.00289058 0 0.0117891 0 0)
(0.0101122 -0.00227287 0 0.012923 0 0)
(0.00873668 -0.00153079 0 0.0154672 0 0)
(0.00795357 -0.00166058 0 0.0192226 0 0)
(0.00750966 -0.00254404 0 0.0242953 0 0)
(0.0072775 -0.00374208 0 0.0310967 0 0)
(0.00713696 -0.00498803 0 0.0401426 0 0)
(0.00700988 -0.00617499 0 0.0519961 0 0)
(0.00688373 -0.00721854 0 0.067159 0 0)
(0.00675724 -0.00784535 0 0.0862088 0 0)
(0.00664571 -0.00771893 0 0.10953 0 0)
(0.00658921 -0.00622231 0 0.137723 0 0)
(0.00671712 -0.00293105 0 0.170672 0 0)
(0.00735307 0.0030437 0 0.209029 0 0)
(0.00879661 0.0119028 0 0.251511 0 0)
(0.0118449 0.0249475 0 0.299152 0 0)
(0.0625577 0.00412453 0 0.0124291 0 0)
(0.0186706 -0.00121127 0 0.0129332 0 0)
(0.0180794 -0.00333835 0 0.0110107 0 0)
(0.0149895 -0.00282396 0 0.0116217 0 0)
(0.013503 -0.0022062 0 0.0144304 0 0)
(0.0126261 -0.00239042 0 0.0187659 0 0)
(0.01199 -0.00312737 0 0.0242881 0 0)
(0.011583 -0.00385443 0 0.0311858 0 0)
(0.011401 -0.004226 0 0.039952 0 0)
(0.0113293 -0.00410286 0 0.0511443 0 0)
(0.0112475 -0.00342299 0 0.0651567 0 0)
(0.0111739 -0.00195496 0 0.0823622 0 0)
(0.0112375 0.000570091 0 0.102852 0 0)
(0.0116932 0.00469023 0 0.126892 0 0)
(0.0127386 0.0106441 0 0.154091 0 0)
(0.0148185 0.0191447 0 0.184822 0 0)
(0.0180816 0.0300129 0 0.217843 0 0)
(0.0232733 0.044399 0 0.254204 0 0)
(0.0630326 0.00390527 0 0.0124677 0 0)
(0.0145364 -0.00166774 0 0.0135286 0 0)
(0.0146195 -0.00490238 0 0.0127225 0 0)
(0.0127676 -0.00458076 0 0.0135608 0 0)
(0.0118937 -0.00374873 0 0.016026 0 0)
(0.0109396 -0.00337069 0 0.0197352 0 0)
(0.00991026 -0.00335526 0 0.0244675 0 0)
(0.00919657 -0.00332337 0 0.0303623 0 0)
(0.00895637 -0.00290746 0 0.037774 0 0)
(0.00906707 -0.00181879 0 0.0470611 0 0)
(0.00938969 0.000166754 0 0.0584108 0 0)
(0.00996396 0.00331089 0 0.0719814 0 0)
(0.0109378 0.00783776 0 0.0877363 0 0)
(0.0126066 0.0140567 0 0.105825 0 0)
(0.015157 0.0220579 0 0.125889 0 0)
(0.0190523 0.0321651 0 0.148225 0 0)
(0.0243294 0.0441914 0 0.17187 0 0)
(0.0317035 0.0586667 0 0.19754 0 0)
(0.0646798 0.00399794 0 0.0123272 0 0)
(0.0185918 7.25486e-06 0 0.0120995 0 0)
(0.0187318 -0.00224812 0 0.010144 0 0)
(0.014349 -0.00183554 0 0.0106099 0 0)
(0.0120499 -0.000629854 0 0.0126358 0 0)
(0.0110133 0.000496295 0 0.0157098 0 0)
(0.0105806 0.00160581 0 0.0197661 0 0)
(0.0106653 0.00313435 0 0.0248464 0 0)
(0.0112943 0.00541462 0 0.031004 0 0)
(0.0123818 0.00858579 0 0.0383248 0 0)
(0.0138911 0.0126883 0 0.0468716 0 0)
(0.0160142 0.0178252 0 0.0567443 0 0)
(0.0190036 0.0241003 0 0.0679165 0 0)
(0.0231784 0.0317175 0 0.0804719 0 0)
(0.0286768 0.0406994 0 0.0941329 0 0)
(0.0358348 0.0512547 0 0.10908 0 0)
(0.0446122 0.063162 0 0.124619 0 0)
(0.0554629 0.076779 0 0.141273 0 0)
(0.0618448 0.00404559 0 0.0123362 0 0)
(0.0150745 -0.00179769 0 0.0129343 0 0)
(0.0127569 -0.00375188 0 0.0105905 0 0)
(0.00983445 -0.00227199 0 0.0100176 0 0)
(0.00907223 -0.000267502 0 0.0109843 0 0)
(0.00873741 0.00130359 0 0.0129872 0 0)
(0.00851143 0.00265718 0 0.0157826 0 0)
(0.0087602 0.00436919 0 0.0192582 0 0)
(0.00973392 0.00681374 0 0.0234129 0 0)
(0.0114588 0.010079 0 0.0283329 0 0)
(0.0139255 0.0141413 0 0.0340645 0 0)
(0.0172547 0.019038 0 0.0406254 0 0)
(0.0216422 0.024833 0 0.047929 0 0)
(0.027326 0.0316637 0 0.0559659 0 0)
(0.0344364 0.0395435 0 0.06452 0 0)
(0.0431918 0.0486015 0 0.0737232 0 0)
(0.0535451 0.0586529 0 0.0831581 0 0)
(0.0657665 0.0699199 0 0.0931704 0 0)
(0.0579307 0.00288634 0 0.0103442 0 0)
(0.0139603 0.000393688 0 0.00982656 0 0)
(0.0130259 -0.000513888 0 0.00798983 0 0)
(0.0102269 0.000821423 0 0.00753184 0 0)
(0.00975747 0.00239506 0 0.00806267 0 0)
(0.0102695 0.00377737 0 0.00940249 0 0)
(0.0112471 0.00522306 0 0.0114079 0 0)
(0.0127458 0.00710555 0 0.0139665 0 0)
(0.0148882 0.00967774 0 0.0170209 0 0)
(0.0177073 0.0130124 0 0.0205757 0 0)
(0.0212736 0.0170802 0 0.0246349 0 0)
(0.0257852 0.0218788 0 0.0291994 0 0)
(0.0314818 0.0274275 0 0.0341935 0 0)
(0.0385814 0.033799 0 0.0395971 0 0)
(0.0471584 0.0409761 0 0.0452803 0 0)
(0.0573651 0.0490336 0 0.0513448 0 0)
(0.0691335 0.0578339 0 0.0575352 0 0)
(0.0826218 0.0675008 0 0.0640625 0 0)
(0.0605131 0.000649977 0 0.0111768 0 0)
(0.0156554 -0.000185641 0 0.0086757 0 0)
(0.014868 0.000162321 0 0.00617809 0 0)
(0.0127169 0.00118556 0 0.0058987 0 0)
(0.0124579 0.00221026 0 0.00650886 0 0)
(0.0130138 0.00330871 0 0.00753996 0 0)
(0.0140308 0.00472846 0 0.00884815 0 0)
(0.0155352 0.00667581 0 0.0104147 0 0)
(0.0177557 0.0092208 0 0.0122679 0 0)
(0.020913 0.0123371 0 0.0144448 0 0)
(0.025131 0.0159849 0 0.0169742 0 0)
(0.0305425 0.0201827 0 0.0198809 0 0)
(0.0372535 0.0249627 0 0.0231372 0 0)
(0.0454057 0.030416 0 0.0267299 0 0)
(0.0550347 0.0365257 0 0.0305431 0 0)
(0.066338 0.0433449 0 0.0346126 0 0)
(0.0792245 0.0507022 0 0.0387397 0 0)
(0.0939356 0.0586927 0 0.043013 0 0)
(0.0718433 0.00209709 0 0.00948349 0 0)
(0.0201231 0.00012452 0 0.00652349 0 0)
(0.0160743 -0.000480744 0 0.00426292 0 0)
(0.013876 7.3765e-05 0 0.00382228 0 0)
(0.0142142 0.000980913 0 0.00422157 0 0)
(0.0148485 0.00199266 0 0.00497202 0 0)
(0.0155048 0.00319216 0 0.00588275 0 0)
(0.0165965 0.00474852 0 0.00695993 0 0)
(0.0185171 0.00670511 0 0.00822965 0 0)
(0.021443 0.00904959 0 0.0096963 0 0)
(0.0253715 0.0117857 0 0.0113661 0 0)
(0.030311 0.0149526 0 0.0132611 0 0)
(0.0363553 0.0185779 0 0.0153682 0 0)
(0.0437157 0.0227053 0 0.0176805 0 0)
(0.0525335 0.027313 0 0.0201213 0 0)
(0.0630347 0.0324365 0 0.0227145 0 0)
(0.075195 0.0379885 0 0.0253299 0 0)
(0.089108 0.044044 0 0.0280437 0 0)
(0.0680846 0.00211149 0 0.00815275 0 0)
(0.0185725 5.70257e-06 0 0.00638913 0 0)
(0.0164357 -5.93951e-05 0 0.0047588 0 0)
(0.0149589 0.00095998 0 0.00436507 0 0)
(0.0150965 0.00190165 0 0.00462275 0 0)
(0.0153702 0.00281041 0 0.00508161 0 0)
(0.016133 0.00392 0 0.00558875 0 0)
(0.0180114 0.0054392 0 0.00618229 0 0)
(0.0213358 0.00741299 0 0.00690161 0 0)
(0.0260895 0.00975939 0 0.00774171 0 0)
(0.0320847 0.0123767 0 0.00869415 0 0)
(0.0391868 0.0152305 0 0.00977693 0 0)
(0.0473714 0.0183415 0 0.0109993 0 0)
(0.0567189 0.021772 0 0.0123662 0 0)
(0.0672725 0.025539 0 0.0138242 0 0)
(0.0791789 0.0296839 0 0.0153894 0 0)
(0.0924619 0.0341507 0 0.0169789 0 0)
(0.107137 0.0389671 0 0.0185931 0 0)
(0.0596268 0.00179365 0 0.0071544 0 0)
(0.0157019 -0.00061723 0 0.00517593 0 0)
(0.0150777 -0.0015556 0 0.00353896 0 0)
(0.0133491 -0.00108314 0 0.00310957 0 0)
(0.0127735 -0.000211354 0 0.0031252 0 0)
(0.0122721 0.00058747 0 0.00330442 0 0)
(0.0123998 0.00124189 0 0.0035752 0 0)
(0.0137407 0.00200012 0 0.00392689 0 0)
(0.0165366 0.00309251 0 0.00436238 0 0)
(0.020798 0.00459222 0 0.00488705 0 0)
(0.0264061 0.00646851 0 0.00550075 0 0)
(0.0332589 0.00868036 0 0.00619905 0 0)
(0.0413251 0.0111923 0 0.00697093 0 0)
(0.0506647 0.0139958 0 0.00781405 0 0)
(0.0612994 0.0170613 0 0.00869958 0 0)
(0.0733629 0.0203929 0 0.00964942 0 0)
(0.0868292 0.0239277 0 0.010609 0 0)
(0.101778 0.0276934 0 0.0115858 0 0)
(0.0573263 -0.000744926 0 0.00669633 0 0)
(0.0135584 -0.000220711 0 0.00478953 0 0)
(0.0123953 1.11856e-05 0 0.00297187 0 0)
(0.010325 0.0002227 0 0.0023002 0 0)
(0.0104341 0.000439274 0 0.00210328 0 0)
(0.0113085 0.000715504 0 0.00211419 0 0)
(0.0128887 0.00113393 0 0.00222095 0 0)
(0.01532 0.00177472 0 0.00237275 0 0)
(0.0186724 0.00267368 0 0.0025572 0 0)
(0.023009 0.00383127 0 0.00277936 0 0)
(0.0283778 0.00523897 0 0.00304969 0 0)
(0.0348659 0.00689381 0 0.00337203 0 0)
(0.0425983 0.00877256 0 0.00374173 0 0)
(0.051739 0.0108534 0 0.00415733 0 0)
(0.0623815 0.0130988 0 0.00460149 0 0)
(0.0746505 0.0155103 0 0.0050879 0 0)
(0.0885048 0.0180536 0 0.0055833 0 0)
(0.103936 0.0207669 0 0.00608235 0 0)
(0.0601485 0.00015368 0 0.00545705 0 0)
(0.0119601 -0.000599551 0 0.0033069 0 0)
(0.0112787 -0.00020596 0 0.00221047 0 0)
(0.0113835 0.000164318 0 0.00185391 0 0)
(0.0128384 0.000434371 0 0.00176513 0 0)
(0.0135325 0.000682792 0 0.00174542 0 0)
(0.0140605 0.000951991 0 0.00173317 0 0)
(0.0153827 0.00133177 0 0.00173094 0 0)
(0.0180022 0.00190065 0 0.00176361 0 0)
(0.022047 0.00268422 0 0.00184485 0 0)
(0.0274741 0.00368162 0 0.00196655 0 0)
(0.0342692 0.00486796 0 0.00211749 0 0)
(0.0424774 0.00619457 0 0.00229528 0 0)
(0.0521805 0.00762993 0 0.00250399 0 0)
(0.0633551 0.00915127 0 0.00273422 0 0)
(0.0760226 0.0107727 0 0.00298704 0 0)
(0.0900911 0.0124746 0 0.00324212 0 0)
(0.105436 0.0142822 0 0.00349317 0 0)
(0.063122 -0.00088499 0 0.00431659 0 0)
(0.01782 0.000158649 0 0.00227738 0 0)
(0.0164138 -0.000204312 0 0.00151801 0 0)
(0.0144466 -0.000318051 0 0.00122564 0 0)
(0.0147312 -0.000154304 0 0.00109523 0 0)
(0.0157917 8.69693e-05 0 0.00102173 0 0)
(0.0175388 0.000274886 0 0.000958573 0 0)
(0.0199312 0.000420678 0 0.000914377 0 0)
(0.0228237 0.000604306 0 0.000896184 0 0)
(0.026271 0.000894678 0 0.000897213 0 0)
(0.0306235 0.00132304 0 0.000910857 0 0)
(0.0363292 0.00190039 0 0.000935661 0 0)
(0.0436884 0.00262467 0 0.000974521 0 0)
(0.0527935 0.0034796 0 0.00102926 0 0)
(0.063564 0.00444186 0 0.00109668 0 0)
(0.0759389 0.00549539 0 0.00118247 0 0)
(0.0898107 0.00662668 0 0.00127953 0 0)
(0.105023 0.00783356 0 0.00138507 0 0)
(0.0580898 -0.00083838 0 0.00382235 0 0)
(0.0132528 7.35892e-05 0 0.00168304 0 0)
(0.0136205 0.00014601 0 0.00110415 0 0)
(0.0128983 -0.000134626 0 0.0009343 0 0)
(0.0130298 -0.000476168 0 0.00087144 0 0)
(0.0130328 -0.000694766 0 0.00082755 0 0)
(0.0137395 -0.000717125 0 0.00079942 0 0)
(0.0158274 -0.000584375 0 0.00078701 0 0)
(0.0193902 -0.000364438 0 0.000784773 0 0)
(0.0241938 -0.000106072 0 0.00079028 0 0)
(0.0299893 0.000162008 0 0.000802639 0 0)
(0.036755 0.000431917 0 0.000818579 0 0)
(0.0446014 0.000716554 0 0.000837079 0 0)
(0.0537409 0.00102907 0 0.000860015 0 0)
(0.0641867 0.00137972 0 0.000885677 0 0)
(0.0760953 0.00177785 0 0.000922033 0 0)
(0.0892687 0.00222144 0 0.000965644 0 0)
(0.103879 0.00272576 0 0.00100238 0 0)
(0.0602571 -0.000413553 0 0.0025162 0 0)
(0.0165761 0.000128028 0 0.00135071 0 0)
(0.0177252 0.000304796 0 0.00101064 0 0)
(0.0155257 0.000294233 0 0.000876543 0 0)
(0.0152458 0.000450616 0 0.000786152 0 0)
(0.0166008 0.000644925 0 0.000706285 0 0)
(0.0187334 0.000716936 0 0.000639935 0 0)
(0.0210536 0.0006878 0 0.000593951 0 0)
(0.0237265 0.000648234 0 0.000550704 0 0)
(0.0271958 0.000644478 0 0.000504198 0 0)
(0.0317451 0.000702311 0 0.000465928 0 0)
(0.0374557 0.00082054 0 0.000435722 0 0)
(0.0442637 0.000956143 0 0.000406877 0 0)
(0.0519757 0.00107181 0 0.000380657 0 0)
(0.0605122 0.00117922 0 0.000361128 0 0)
(0.069879 0.00130495 0 0.000349486 0 0)
(0.080269 0.00146227 0 0.000338353 0 0)
(0.0916246 0.00165059 0 0.000323879 0 0)
(0.0047575 -0.00867403 5.0598e-22 0.0166723 -7.68532e-22 4.45151e-37)
(0.0288106 -0.0221382 -9.04464e-22 0.0202068 2.90969e-23 4.38929e-37)
(0.0889901 -0.0463545 0 0.0298223 0 0)
(0.203291 -0.0797242 0 0.0362992 0 0)
(0.381304 -0.114537 0 0.0378163 0 0)
(0.624274 -0.146418 6.24913e-22 0.0362348 3.12989e-22 4.13446e-37)
(0.926142 -0.173085 0 0.0332587 0 0)
(1.27721 -0.193295 0 0.0297847 0 0)
(1.66532 -0.206084 0 0.0261693 0 0)
(2.07577 -0.210465 0 0.0225581 0 0)
(2.49205 -0.205603 -1.37959e-21 0.0190715 3.06789e-22 3.82976e-37)
(2.89372 -0.190899 0 0.01588 0 0)
(3.26338 -0.166443 0 0.0132375 0 0)
(3.57913 -0.133132 0 0.0114786 0 0)
(3.8231 -0.0930213 0 0.0109384 0 0)
(3.98492 -0.0492964 -5.93574e-21 0.0119122 1.33342e-21 3.54004e-37)
(4.05691 -0.00562924 0 0.0146382 0 0)
(4.0449 0.0313279 0 0.0188709 0 0)
(3.95777 0.056687 0 0.0243703 0 0)
(3.83385 0.0618902 0 0.0294118 0 0)
(3.68675 0.0461771 0 0.0335299 0 0)
(3.5987 0.00383695 0 0.0347443 0 0)
(3.5381 -0.0562218 0 0.0343949 0 0)
(3.64461 -0.151551 -2.28763e-20 0.0449151 1.56218e-21 3.10706e-37)
(3.79516 -0.205126 2.50057e-20 0.0576806 -1.54805e-21 3.05556e-37)
(4.16984 -0.383103 -2.661e-20 0.10777 8.79253e-22 3.00463e-37)
(4.73575 -0.613335 -2.80525e-20 0.256873 2.35851e-22 2.95428e-37)
(5.36252 -0.802884 0 0.423054 0 0)
(5.92135 -0.874275 0 0.494322 0 0)
(6.34357 -0.807101 3.47263e-20 0.506514 -1.20852e-21 2.80672e-37)
(6.781 -0.511326 3.79765e-20 0.326321 -2.58379e-21 2.7587e-37)
(7.13537 -0.273221 0 0.232026 0 0)
(7.74589 -0.409365 0 0.237968 0 0)
(8.86828 -0.600302 4.91746e-20 0.202592 -3.33416e-21 2.61809e-37)
(10.3388 -0.73722 0 0.170077 0 0)
(12.0629 -0.824929 0 0.139217 0 0)
(13.953 -0.871077 -5.83526e-20 0.113201 2.47923e-21 2.48276e-37)
(15.9301 -0.88336 0 0.0913904 0 0)
(17.9339 -0.869432 -6.32955e-20 0.0736082 1.93755e-21 2.39545e-37)
(19.9095 -0.834757 -1.30731e-19 0.0590573 3.3576e-21 9.41064e-37)
(21.8137 -0.783889 0 0.0471769 0 0)
(23.6064 -0.720027 0 0.0374203 0 0)
(25.2555 -0.645966 0 0.029416 0 0)
(26.7327 -0.564201 0 0.022887 0 0)
(28.0166 -0.477458 0 0.0176516 0 0)
(29.0881 -0.38859 -1.41831e-19 0.0135569 6.10057e-22 8.43115e-37)
(29.9362 -0.300505 -1.41179e-19 0.0104676 2.37937e-22 8.27571e-37)
(30.5606 -0.215584 -1.39837e-19 0.00823846 -9.81455e-23 8.12246e-37)
(30.9645 -0.135216 0 0.00671167 0 0)
(31.1639 -0.060742 1.35291e-19 0.00575084 6.58131e-22 7.82248e-37)
(31.1688 0.00693824 0 0.00522632 0 0)
(31 0.0671009 -1.28728e-19 0.00502149 -1.06763e-21 7.53113e-37)
(30.6747 0.119138 -1.24881e-19 0.0050427 -1.21755e-21 7.38865e-37)
(30.2137 0.16306 0 0.00520227 0 0)
(29.6369 0.198944 0 0.00544174 0 0)
(28.9653 0.227189 0 0.0057134 0 0)
(28.218 0.24844 -1.07476e-19 0.00598456 -1.50628e-21 6.83969e-37)
(27.4133 0.263422 0 0.00623208 0 0)
(26.567 0.272941 0 0.0064396 0 0)
(25.6938 0.277962 0 0.00659157 0 0)
(24.8054 0.279394 0 0.00668232 0 0)
(23.9105 0.27831 0 0.00670782 0 0)
(23.015 0.275728 0 0.00667928 0 0)
(22.1214 0.272654 0 0.0066134 0 0)
(21.229 0.269917 0 0.0065373 0 0)
(20.3355 0.268161 6.96717e-20 0.00647439 1.26582e-21 5.72238e-37)
(19.4368 0.267621 0 0.00645486 0 0)
(18.529 0.268296 0 0.00648259 0 0)
(17.6085 0.269827 -5.90349e-20 0.00656769 -1.17327e-21 5.38434e-37)
(16.6734 0.271673 -5.56748e-20 0.00669119 -1.14716e-21 5.2753e-37)
(15.7241 0.273186 0 0.00683596 0 0)
(14.7629 0.273692 4.92254e-20 0.00697373 1.09383e-21 5.06256e-37)
(13.7946 0.272577 -4.6146e-20 0.00709048 -1.06384e-21 4.95882e-37)
(12.8261 0.269297 0 0.00716536 0 0)
(11.8662 0.263488 4.03202e-20 0.00718783 9.91848e-22 4.75649e-37)
(10.9247 0.254949 0 0.00713867 0 0)
(10.0119 0.243808 0 0.00700997 0 0)
(9.1372 0.23043 -3.25706e-20 0.00679395 -8.5108e-22 4.46555e-37)
(8.30767 0.215408 0 0.00649298 0 0)
(7.52807 0.199524 2.81409e-20 0.00612876 7.44601e-22 4.27971e-37)
(6.80095 0.183407 0 0.00571482 0 0)
(6.1265 0.167654 -2.42911e-20 0.00527578 -6.39589e-22 4.10016e-37)
(5.5035 0.152732 -2.25681e-20 0.00483896 -5.90201e-22 4.0127e-37)
(4.9298 0.13889 -2.09696e-20 0.00442281 -5.43651e-22 3.92675e-37)
(4.40197 0.126112 -3.89745e-20 0.00403149 -9.99798e-22 1.53692e-36)
(3.91659 0.114562 3.62255e-20 0.00368688 9.18841e-22 1.50372e-36)
(3.47082 0.103956 0 0.00337812 0 0)
(3.06176 0.0941841 0 0.00310368 0 0)
(2.68706 0.0851878 0 0.00286348 0 0)
(2.34469 0.0766377 2.71182e-20 0.0026389 6.46433e-22 1.37665e-36)
(2.03315 0.0685767 2.5254e-20 0.00243027 5.88827e-22 1.34628e-36)
(1.75159 0.0609263 -2.35356e-20 0.00223017 -5.34486e-22 1.31644e-36)
(1.49901 0.0535897 0 0.00202904 0 0)
(1.27435 0.0466383 2.05033e-20 0.00182806 4.33691e-22 1.25835e-36)
(1.07658 0.0400719 1.9174e-20 0.00162413 3.86874e-22 1.23009e-36)
(0.904475 0.0339479 1.79595e-20 0.00141911 3.4229e-22 1.20233e-36)
(0.756514 0.0283239 0 0.00121644 0 0)
(0.630899 0.0232524 0 0.00102087 0 0)
(0.525577 0.0187697 0 0.000837577 0 0)
(0.438322 0.014889 1.41175e-20 0.000671206 1.87566e-22 1.09626e-36)
(0.366832 0.0115978 0 0.000525112 0 0)
(0.30884 0.00886048 0 0.000400964 0 0)
(0.262202 0.00662371 -1.21196e-20 0.000298743 -9.92539e-23 1.02168e-36)
(0.224975 0.00482388 0 0.000217044 0 0)
(0.19545 0.00339434 0 0.000153576 0 0)
(0.172173 0.00227111 -1.06925e-20 0.00010566 -3.48778e-23 9.51162e-37)
(0.153926 0.00139647 0 7.06055e-05 0 0)
(0.139711 0.000720869 0 4.59577e-05 0 0)
(0.128717 0.000202696 9.6924e-21 2.95733e-05 -9.24032e-24 8.84515e-37)
(0.120289 -0.000192378 9.43307e-21 1.9616e-05 -2.01799e-23 8.63128e-37)
(0.113905 -0.000492815 0 1.45249e-05 0 0)
(0.109161 -0.000722108 -9.00302e-21 1.29607e-05 3.74438e-23 8.2156e-37)
(0.105737 -0.00089871 0 1.37995e-05 0 0)
(0.103388 -0.00103703 8.67043e-21 1.6133e-05 -4.94969e-23 7.81556e-37)
(0.101925 -0.00114818 0 1.92842e-05 0 0)
(0.10121 -0.00124058 8.41315e-21 2.28028e-05 -5.74224e-23 7.43069e-37)
(0.101132 -0.00132024 8.30697e-21 2.64219e-05 -6.01901e-23 7.24378e-37)
(0.101618 -0.00139302 0 3.00833e-05 0 0)
(0.102617 -0.00146103 0 3.37309e-05 0 0)
(0.104074 -0.0015234 0 3.72139e-05 0 0)
(0.105946 -0.0015797 0 4.04049e-05 0 0)
(0.108201 -0.00163046 0 4.32487e-05 0 0)
(0.110814 -0.00167627 0 4.57291e-05 0 0)
(0.113762 -0.00171743 0 4.78305e-05 0 0)
(0.117026 -0.00175372 7.79029e-21 4.95111e-05 -6.41219e-23 5.87381e-37)
(0.120588 -0.00178448 -7.74961e-21 5.07085e-05 6.28348e-23 5.7174e-37)
(0.124429 -0.00180864 0 5.1338e-05 0 0)
(0.128531 -0.00182473 0 5.12952e-05 0 0)
(0.132868 -0.00183103 0 5.04726e-05 0 0)
(0.137413 -0.0018258 0 4.87879e-05 0 0)
(0.142132 -0.00180784 -1.51328e-20 4.62372e-05 1.03656e-22 1.99247e-36)
(0.146988 -0.00177657 0 4.29071e-05 0 0)
(0.151941 -0.0017321 1.49795e-20 3.89584e-05 -9.15645e-23 1.88287e-36)
(0.156946 -0.00167531 -1.48969e-20 3.46134e-05 8.52734e-23 1.82974e-36)
(0.161961 -0.00160788 0 3.01258e-05 0 0)
(0.166945 -0.00153216 0 2.57396e-05 0 0)
(0.17186 -0.00145075 0 2.16499e-05 0 0)
(0.176673 -0.00136626 1.45123e-20 1.79814e-05 -6.16086e-23 1.62803e-36)
(0.18136 -0.001281 1.44015e-20 1.47926e-05 -5.65206e-23 1.58021e-36)
(0.1859 -0.001197 0 1.2091e-05 0 0)
(0.19028 -0.00111586 1.41628e-20 9.84886e-06 -4.75952e-23 1.48759e-36)
(0.19449 -0.00103873 1.40355e-20 8.01728e-06 -4.3749e-23 1.44275e-36)
(0.198528 -0.000966373 -1.39034e-20 6.53814e-06 4.02852e-23 1.39887e-36)
(0.202393 -0.000899189 0 5.35273e-06 0 0)
(0.206088 -0.000837317 0 4.40699e-06 0 0)
(0.209619 -0.000780702 -1.34813e-20 3.65375e-06 3.18961e-23 1.27285e-36)
(0.212992 -0.000729128 0 3.05306e-06 0 0)
(0.216214 -0.000682247 0 2.57182e-06 0 0)
(0.219295 -0.000639648 0 2.18358e-06 0 0)
(0.222241 -0.000600939 0 1.86801e-06 0 0)
(0.225061 -0.000565755 1.27136e-20 1.60956e-06 -2.282e-23 1.08063e-36)
(0.227761 -0.000533745 1.2553e-20 1.39599e-06 -2.15182e-23 1.04473e-36)
(0.230351 -0.000504461 0 1.21717e-06 0 0)
(0.232836 -0.000477478 1.22268e-20 1.06518e-06 -1.92782e-23 9.75374e-37)
(0.235224 -0.000452409 0 9.34308e-07 0 0)
(0.237517 -0.000429238 0 8.21741e-07 0 0)
(0.239728 -0.000408119 1.17276e-20 7.26279e-07 -1.66563e-23 8.77232e-37)
(0.241856 -0.000389614 0 6.48162e-07 0 0)
(0.243922 -0.000374073 1.13902e-20 5.86721e-07 -1.53926e-23 8.15591e-37)
(0.245924 -0.000361971 0 5.4111e-07 0 0)