/*--------------------------------*- C++ -*----------------------------------*\
  =========                 |
  \\      /  F ield         | OpenFOAM: The Open Source CFD Toolbox
   \\    /   O peration     | Website:  https://openfoam.org
    \\  /    A nd           | Version:  10
     \\/     M anipulation  |
\*---------------------------------------------------------------------------*/
FoamFile
{
    format      ascii;
    class       surfaceScalarField;
    location    "15400";
    object      phi;
}
// * * * * * * * * * * * * * * * * * * * * * * * * * * * * * * * * * * * * * //

dimensions      [0 3 -1 0 0 0 0];

internalField   nonuniform List<scalar> 
12640
(
-2.03063e-08
2.03063e-08
-4.09339e-08
2.06276e-08
-6.22294e-08
2.12956e-08
-8.45951e-08
2.23656e-08
-1.0853e-07
2.39349e-08
-1.34695e-07
2.6165e-08
-1.64022e-07
2.93267e-08
-1.97912e-07
3.38905e-08
-2.38634e-07
4.07214e-08
-2.90142e-07
5.15084e-08
-3.59543e-07
6.94011e-08
-4.5014e-07
9.05973e-08
-2.155e-07
-2.3464e-07
-4.22435e-06
4.00885e-06
-4.24441e-06
2.00576e-08
-4.05363e-06
-1.90781e-07
-3.63022e-06
-4.23413e-07
-3.61691e-06
-1.33056e-08
-3.59159e-06
-2.53231e-08
-3.75745e-06
1.65862e-07
-3.76094e-06
3.49234e-09
-3.79197e-06
3.10221e-08
-3.76411e-06
-2.78584e-08
-3.71649e-06
-4.76159e-08
-3.62864e-06
-8.78554e-08
-3.57266e-06
-5.59809e-08
-3.52502e-06
-4.76346e-08
-3.47843e-06
-4.65944e-08
-3.42302e-06
-5.54023e-08
-3.33488e-06
-8.81455e-08
-3.2272e-06
-1.07675e-07
-3.04984e-06
-1.77366e-07
-2.90966e-06
-1.40179e-07
-2.71868e-06
-1.90976e-07
-2.46302e-06
-2.55665e-07
-2.12911e-06
-3.3391e-07
-1.70752e-06
-4.21589e-07
-1.19902e-06
-5.08503e-07
-6.19547e-07
-5.79469e-07
-2.83526e-17
-6.19547e-07
6.19547e-07
-6.19547e-07
1.19902e-06
-5.79469e-07
1.70752e-06
-5.08503e-07
2.12911e-06
-4.21589e-07
2.46302e-06
-3.3391e-07
2.71868e-06
-2.55665e-07
2.90966e-06
-1.90976e-07
3.04984e-06
-1.40179e-07
3.2272e-06
-1.77366e-07
3.33488e-06
-1.07675e-07
3.42302e-06
-8.81455e-08
3.47843e-06
-5.54023e-08
3.52502e-06
-4.65944e-08
3.57266e-06
-4.76346e-08
3.62864e-06
-5.59809e-08
3.71649e-06
-8.78554e-08
3.76411e-06
-4.76159e-08
3.79197e-06
-2.78584e-08
3.76094e-06
3.10221e-08
3.75745e-06
3.49234e-09
3.59159e-06
1.65862e-07
3.61691e-06
-2.53231e-08
3.63022e-06
-1.33056e-08
4.05363e-06
-4.23413e-07
4.24441e-06
-1.90781e-07
4.22435e-06
2.00576e-08
2.155e-07
4.00885e-06
4.5014e-07
-2.3464e-07
3.59543e-07
9.05973e-08
2.90142e-07
6.94011e-08
2.38634e-07
5.15084e-08
1.97912e-07
4.07214e-08
1.64022e-07
3.38905e-08
1.34695e-07
2.93267e-08
1.0853e-07
2.6165e-08
8.45951e-08
2.39349e-08
6.22294e-08
2.23656e-08
4.09339e-08
2.12956e-08
2.03063e-08
2.06276e-08
2.03063e-08
-2.22572e-08
4.25634e-08
-4.48656e-08
4.3236e-08
-6.8204e-08
4.4634e-08
-9.27114e-08
4.68731e-08
-1.18932e-07
5.01558e-08
-1.47587e-07
5.48191e-08
-1.79686e-07
6.14264e-08
-2.1675e-07
7.09548e-08
-2.61227e-07
8.51977e-08
-3.17385e-07
1.07667e-07
-3.93349e-07
1.45365e-07
-5.09515e-07
2.06764e-07
-9.86998e-07
2.42842e-07
-2.36803e-07
3.25866e-06
-3.74382e-06
3.52707e-06
-4.1855e-06
2.50903e-07
-3.78741e-06
-8.21497e-07
-3.82152e-06
2.08008e-08
-3.80022e-06
-4.66238e-08
-4.00251e-06
3.68148e-07
-4.00453e-06
5.51946e-09
-4.04706e-06
7.35455e-08
-4.01975e-06
-5.51613e-08
-3.97326e-06
-9.4113e-08
-3.87867e-06
-1.82437e-07
-3.82221e-06
-1.12442e-07
-3.77351e-06
-9.6336e-08
-3.72573e-06
-9.43759e-08
-3.66893e-06
-1.12206e-07
-3.57504e-06
-1.82031e-07
-3.46299e-06
-2.1973e-07
-3.2793e-06
-3.61055e-07
-3.13235e-06
-2.87131e-07
-2.93104e-06
-3.92285e-07
-2.66019e-06
-5.26513e-07
-2.30437e-06
-6.89728e-07
-1.85204e-06
-8.73921e-07
-1.30286e-06
-1.05768e-06
-6.74013e-07
-1.20832e-06
-3.91939e-17
-1.29356e-06
6.74013e-07
-1.29356e-06
1.30286e-06
-1.20832e-06
1.85204e-06
-1.05768e-06
2.30437e-06
-8.73921e-07
2.66019e-06
-6.89728e-07
2.93104e-06
-5.26513e-07
3.13235e-06
-3.92285e-07
3.2793e-06
-2.87131e-07
3.46299e-06
-3.61055e-07
3.57504e-06
-2.1973e-07
3.66893e-06
-1.82031e-07
3.72573e-06
-1.12206e-07
3.77351e-06
-9.43759e-08
3.82221e-06
-9.6336e-08
3.87867e-06
-1.12442e-07
3.97326e-06
-1.82437e-07
4.01975e-06
-9.4113e-08
4.04706e-06
-5.51613e-08
4.00453e-06
7.35455e-08
4.00251e-06
5.51946e-09
3.80022e-06
3.68148e-07
3.82152e-06
-4.66238e-08
3.78741e-06
2.08008e-08
4.1855e-06
-8.21497e-07
3.74382e-06
2.50903e-07
2.36803e-07
3.52707e-06
9.86998e-07
3.25866e-06
5.09515e-07
2.42842e-07
3.93349e-07
2.06764e-07
3.17385e-07
1.45365e-07
2.61227e-07
1.07667e-07
2.1675e-07
8.51977e-08
1.79686e-07
7.09548e-08
1.47587e-07
6.14264e-08
1.18932e-07
5.48191e-08
9.27114e-08
5.01558e-08
6.8204e-08
4.68731e-08
4.48656e-08
4.4634e-08
2.22572e-08
4.3236e-08
4.25634e-08
-2.43738e-08
6.69372e-08
-4.91298e-08
6.7992e-08
-7.46798e-08
7.01841e-08
-1.01501e-07
7.36938e-08
-1.30181e-07
7.88367e-08
-1.61499e-07
8.61366e-08
-1.9654e-07
9.64671e-08
-2.36923e-07
1.11338e-07
-2.85236e-07
1.3351e-07
-3.45961e-07
1.68392e-07
-4.27925e-07
2.27329e-07
-5.56787e-07
3.35626e-07
-9.10195e-07
5.9625e-07
-4.81155e-07
2.82962e-06
-1.2667e-07
3.17259e-06
-2.29171e-06
2.41594e-06
-3.78787e-06
6.74668e-07
-4.02668e-06
2.59611e-07
-4.01768e-06
-5.56265e-08
-4.29586e-06
6.46329e-07
-4.28498e-06
-5.35981e-09
-4.34888e-06
1.37448e-07
-4.31957e-06
-8.44768e-08
-4.27614e-06
-1.37546e-07
-4.16818e-06
-2.90389e-07
-4.11276e-06
-1.67862e-07
-4.06295e-06
-1.46153e-07
-4.0141e-06
-1.43223e-07
-3.9571e-06
-1.69207e-07
-3.85509e-06
-2.84037e-07
-3.74102e-06
-3.33806e-07
-3.55797e-06
-5.44101e-07
-3.40753e-06
-4.37569e-07
-3.19893e-06
-6.00888e-07
-2.91525e-06
-8.10197e-07
-2.53759e-06
-1.06739e-06
-2.0497e-06
-1.36181e-06
-1.44803e-06
-1.65935e-06
-7.51191e-07
-1.90515e-06
-3.92816e-17
-2.04475e-06
7.51191e-07
-2.04475e-06
1.44803e-06
-1.90515e-06
2.0497e-06
-1.65935e-06
2.53759e-06
-1.36181e-06
2.91525e-06
-1.06739e-06
3.19893e-06
-8.10197e-07
3.40753e-06
-6.00888e-07
3.55797e-06
-4.37569e-07
3.74102e-06
-5.44101e-07
3.85509e-06
-3.33806e-07
3.9571e-06
-2.84037e-07
4.0141e-06
-1.69207e-07
4.06295e-06
-1.43223e-07
4.11276e-06
-1.46153e-07
4.16818e-06
-1.67862e-07
4.27614e-06
-2.90389e-07
4.31957e-06
-1.37546e-07
4.34888e-06
-8.44768e-08
4.28498e-06
1.37448e-07
4.29586e-06
-5.35981e-09
4.01768e-06
6.46329e-07
4.02668e-06
-5.56265e-08
3.78787e-06
2.59611e-07
2.29171e-06
6.74668e-07
1.2667e-07
2.41594e-06
4.81155e-07
3.17259e-06
9.10195e-07
2.82962e-06
5.56787e-07
5.9625e-07
4.27925e-07
3.35626e-07
3.45961e-07
2.27329e-07
2.85236e-07
1.68392e-07
2.36923e-07
1.3351e-07
1.9654e-07
1.11338e-07
1.61499e-07
9.64671e-08
1.30181e-07
8.61366e-08
1.01501e-07
7.88367e-08
7.46798e-08
7.36938e-08
4.91298e-08
7.01841e-08
2.43738e-08
6.7992e-08
6.69372e-08
-2.66612e-08
9.35984e-08
-5.3736e-08
9.50668e-08
-8.16694e-08
9.81174e-08
-1.10975e-07
1.02999e-07
-1.42284e-07
1.10146e-07
-1.76426e-07
1.20278e-07
-2.14547e-07
1.34588e-07
-2.58339e-07
1.5513e-07
-3.10455e-07
1.85627e-07
-3.75406e-07
2.33342e-07
-4.61912e-07
3.13836e-07
-5.92776e-07
4.6649e-07
-8.44749e-07
8.48222e-07
-5.04159e-07
2.48903e-06
-1.77775e-07
2.8462e-06
-3.40675e-08
2.27223e-06
-3.54678e-07
9.95279e-07
-3.80198e-06
3.70691e-06
-4.12228e-06
2.64671e-07
-4.60473e-06
1.12878e-06
-4.57461e-06
-3.54721e-08
-4.68455e-06
2.47384e-07
-4.65094e-06
-1.18085e-07
-4.61697e-06
-1.71515e-07
-4.48568e-06
-4.21678e-07
-4.4358e-06
-2.17745e-07
-4.3855e-06
-1.96457e-07
-4.33642e-06
-1.92299e-07
-4.28227e-06
-2.23358e-07
-4.1686e-06
-3.97711e-07
-4.0571e-06
-4.45302e-07
-3.88715e-06
-7.14053e-07
-3.73954e-06
-5.85179e-07
-3.53003e-06
-8.10399e-07
-3.23995e-06
-1.10028e-06
-2.84458e-06
-1.46276e-06
-2.31828e-06
-1.88811e-06
-1.65005e-06
-2.32758e-06
-8.60132e-07
-2.69507e-06
-3.06626e-17
-2.90488e-06
8.60132e-07
-2.90488e-06
1.65005e-06
-2.69507e-06
2.31828e-06
-2.32758e-06
2.84458e-06
-1.88811e-06
3.23995e-06
-1.46276e-06
3.53003e-06
-1.10028e-06
3.73954e-06
-8.10399e-07
3.88715e-06
-5.85179e-07
4.0571e-06
-7.14053e-07
4.1686e-06
-4.45302e-07
4.28227e-06
-3.97711e-07
4.33642e-06
-2.23358e-07
4.3855e-06
-1.92299e-07
4.4358e-06
-1.96457e-07
4.48568e-06
-2.17745e-07
4.61697e-06
-4.21678e-07
4.65094e-06
-1.71515e-07
4.68455e-06
-1.18085e-07
4.57461e-06
2.47384e-07
4.60473e-06
-3.54721e-08
4.12228e-06
1.12878e-06
3.80198e-06
2.64671e-07
3.54678e-07
3.70691e-06
3.40675e-08
9.95279e-07
1.77775e-07
2.27223e-06
5.04159e-07
2.8462e-06
8.44749e-07
2.48903e-06
5.92776e-07
8.48222e-07
4.61912e-07
4.6649e-07
3.75406e-07
3.13836e-07
3.10455e-07
2.33342e-07
2.58339e-07
1.85627e-07
2.14547e-07
1.5513e-07
1.76426e-07
1.34588e-07
1.42284e-07
1.20278e-07
1.10975e-07
1.10146e-07
8.16694e-08
1.02999e-07
5.3736e-08
9.81174e-08
2.66612e-08
9.50668e-08
9.35984e-08
-2.91212e-08
1.2272e-07
-5.86866e-08
1.24632e-07
-8.91732e-08
1.28604e-07
-1.21129e-07
1.34954e-07
-1.55223e-07
1.44241e-07
-1.92324e-07
1.57379e-07
-2.33621e-07
1.75885e-07
-2.80829e-07
2.02338e-07
-3.36568e-07
2.41365e-07
-4.05095e-07
3.0187e-07
-4.94009e-07
4.02749e-07
-6.18593e-07
5.91075e-07
-7.90806e-07
1.02043e-06
-5.23427e-07
2.22165e-06
-2.4247e-07
2.56524e-06
-1.43e-07
2.17276e-06
-5.92778e-07
1.44506e-06
1.20264e-07
2.99387e-06
-5.24994e-07
9.09929e-07
-4.49812e-06
5.1019e-06
-4.74277e-06
2.09186e-07
-5.0179e-06
5.22512e-07
-4.99409e-06
-1.41899e-07
-4.99127e-06
-1.74329e-07
-4.82137e-06
-5.91584e-07
-4.78829e-06
-2.50825e-07
-4.73893e-06
-2.45817e-07
-4.69124e-06
-2.39984e-07
-4.64627e-06
-2.68334e-07
-4.51401e-06
-5.29967e-07
-4.41248e-06
-5.46836e-07
-4.27569e-06
-8.50839e-07
-4.14125e-06
-7.1962e-07
-3.94143e-06
-1.01022e-06
-3.65765e-06
-1.38406e-06
-3.25584e-06
-1.86457e-06
-2.69207e-06
-2.45188e-06
-1.93888e-06
-3.08077e-06
-1.01823e-06
-3.61572e-06
-3.14833e-17
-3.92311e-06
1.01823e-06
-3.92311e-06
1.93888e-06
-3.61572e-06
2.69207e-06
-3.08077e-06
3.25584e-06
-2.45188e-06
3.65765e-06
-1.86457e-06
3.94143e-06
-1.38406e-06
4.14125e-06
-1.01022e-06
4.27569e-06
-7.1962e-07
4.41248e-06
-8.50839e-07
4.51401e-06
-5.46836e-07
4.64627e-06
-5.29967e-07
4.69124e-06
-2.68334e-07
4.73893e-06
-2.39984e-07
4.78829e-06
-2.45817e-07
4.82137e-06
-2.50825e-07
4.99127e-06
-5.91584e-07
4.99409e-06
-1.74329e-07
5.0179e-06
-1.41899e-07
4.74277e-06
5.22512e-07
4.49812e-06
2.09186e-07
5.24994e-07
5.1019e-06
-1.20264e-07
9.09929e-07
5.92778e-07
2.99387e-06
1.43e-07
1.44506e-06
2.4247e-07
2.17276e-06
5.23427e-07
2.56524e-06
7.90806e-07
2.22165e-06
6.18593e-07
1.02043e-06
4.94009e-07
5.91075e-07
4.05095e-07
4.02749e-07
3.36568e-07
3.0187e-07
2.80829e-07
2.41365e-07
2.33621e-07
2.02338e-07
1.92324e-07
1.75885e-07
1.55223e-07
1.57379e-07
1.21129e-07
1.44241e-07
8.91732e-08
1.34954e-07
5.86866e-08
1.28604e-07
2.91212e-08
1.24632e-07
1.2272e-07
-3.17505e-08
1.5447e-07
-6.39737e-08
1.56855e-07
-9.71754e-08
1.61806e-07
-1.31933e-07
1.69712e-07
-1.68945e-07
1.81253e-07
-2.09104e-07
1.97539e-07
-2.53609e-07
2.2039e-07
-3.04137e-07
2.52866e-07
-3.63134e-07
3.00362e-07
-4.34279e-07
3.73015e-07
-5.23099e-07
4.91569e-07
-6.35758e-07
7.03734e-07
-7.4783e-07
1.13251e-06
-5.39914e-07
2.01373e-06
-3.05007e-07
2.33034e-06
-2.29267e-07
2.09702e-06
-4.96036e-07
1.71183e-06
-7.53137e-08
2.57315e-06
-7.5574e-07
1.59036e-06
4.4934e-07
3.89682e-06
-5.55193e-07
1.21372e-06
-4.78814e-06
4.75546e-06
-5.15743e-06
2.2739e-07
-5.34904e-06
1.72892e-08
-5.14189e-06
-7.98742e-07
-5.16161e-06
-2.31101e-07
-5.11879e-06
-2.88639e-07
-5.07647e-06
-2.823e-07
-5.05448e-06
-2.90326e-07
-4.88898e-06
-6.95466e-07
-4.80885e-06
-6.26964e-07
-4.73676e-06
-9.22934e-07
-4.63168e-06
-8.24695e-07
-4.45694e-06
-1.18496e-06
-4.20296e-06
-1.63804e-06
-3.82123e-06
-2.2463e-06
-3.23143e-06
-3.04168e-06
-2.36853e-06
-3.94367e-06
-1.25708e-06
-4.72717e-06
-5.09064e-17
-5.18019e-06
1.25708e-06
-5.18019e-06
2.36853e-06
-4.72717e-06
3.23143e-06
-3.94367e-06
3.82123e-06
-3.04168e-06
4.20296e-06
-2.2463e-06
4.45694e-06
-1.63804e-06
4.63168e-06
-1.18496e-06
4.73676e-06
-8.24695e-07
4.80885e-06
-9.22934e-07
4.88898e-06
-6.26964e-07
5.05448e-06
-6.95466e-07
5.07647e-06
-2.90326e-07
5.11879e-06
-2.823e-07
5.16161e-06
-2.88639e-07
5.14189e-06
-2.31101e-07
5.34904e-06
-7.98742e-07
5.15743e-06
1.72892e-08
4.78814e-06
2.2739e-07
5.55193e-07
4.75546e-06
-4.4934e-07
1.21372e-06
7.5574e-07
3.89682e-06
7.53137e-08
1.59036e-06
4.96036e-07
2.57315e-06
2.29267e-07
1.71183e-06
3.05007e-07
2.09702e-06
5.39914e-07
2.33034e-06
7.4783e-07
2.01373e-06
6.35758e-07
1.13251e-06
5.23099e-07
7.03734e-07
4.34279e-07
4.91569e-07
3.63134e-07
3.73015e-07
3.04137e-07
3.00362e-07
2.53609e-07
2.52866e-07
2.09104e-07
2.2039e-07
1.68945e-07
1.97539e-07
1.31933e-07
1.81253e-07
9.71754e-08
1.69712e-07
6.39737e-08
1.61806e-07
3.17505e-08
1.56855e-07
1.5447e-07
-3.45392e-08
1.89009e-07
-6.95753e-08
1.91892e-07
-1.05638e-07
1.97868e-07
-1.43325e-07
2.07399e-07
-1.83353e-07
2.2128e-07
-2.26615e-07
2.40801e-07
-2.74276e-07
2.68052e-07
-3.27898e-07
3.06488e-07
-3.89596e-07
3.6206e-07
-4.62135e-07
4.45553e-07
-5.48346e-07
5.7778e-07
-6.45981e-07
8.01369e-07
-7.14734e-07
1.20126e-06
-5.54285e-07
1.85329e-06
-3.62473e-07
2.13853e-06
-2.97584e-07
2.03213e-06
-4.40943e-07
1.85518e-06
-2.00271e-07
2.33247e-06
-5.52773e-07
1.94286e-06
1.71763e-07
3.17228e-06
-4.94955e-07
1.88044e-06
6.35008e-07
3.62549e-06
-4.49267e-07
1.31166e-06
-3.92205e-06
3.49007e-06
-5.0776e-06
3.56804e-07
-5.4491e-06
1.40402e-07
-5.48305e-06
-2.54688e-07
-5.47354e-06
-2.91814e-07
-5.5127e-06
-2.51168e-07
-5.28396e-06
-9.24206e-07
-5.24448e-06
-6.66444e-07
-5.28684e-06
-8.80576e-07
-5.23696e-06
-8.74571e-07
-5.10368e-06
-1.31824e-06
-4.9221e-06
-1.81961e-06
-4.62144e-06
-2.54697e-06
-4.04684e-06
-3.61627e-06
-3.04031e-06
-4.9502e-06
-1.6361e-06
-6.13138e-06
-3.63683e-17
-6.8163e-06
1.6361e-06
-6.8163e-06
3.04031e-06
-6.13138e-06
4.04684e-06
-4.9502e-06
4.62144e-06
-3.61627e-06
4.9221e-06
-2.54697e-06
5.10368e-06
-1.81961e-06
5.23696e-06
-1.31824e-06
5.28684e-06
-8.74571e-07
5.24448e-06
-8.80576e-07
5.28396e-06
-6.66444e-07
5.5127e-06
-9.24206e-07
5.47354e-06
-2.51168e-07
5.48305e-06
-2.91814e-07
5.4491e-06
-2.54688e-07
5.0776e-06
1.40402e-07
3.92205e-06
3.56804e-07
4.49267e-07
3.49007e-06
-6.35008e-07
1.31166e-06
4.94955e-07
3.62549e-06
-1.71763e-07
1.88044e-06
5.52773e-07
3.17228e-06
2.00271e-07
1.94286e-06
4.40943e-07
2.33247e-06
2.97584e-07
1.85518e-06
3.62473e-07
2.03213e-06
5.54285e-07
2.13853e-06
7.14734e-07
1.85329e-06
6.45981e-07
1.20126e-06
5.48346e-07
8.01369e-07
4.62135e-07
5.7778e-07
3.89596e-07
4.45553e-07
3.27898e-07
3.6206e-07
2.74276e-07
3.06488e-07
2.26615e-07
2.68052e-07
1.83353e-07
2.40801e-07
1.43325e-07
2.2128e-07
1.05638e-07
2.07399e-07
6.95753e-08
1.97868e-07
3.45392e-08
1.91892e-07
1.89009e-07
-3.74683e-08
2.26478e-07
-7.54511e-08
2.29874e-07
-1.14493e-07
2.3691e-07
-1.55204e-07
2.4811e-07
-1.98294e-07
2.64371e-07
-2.44632e-07
2.87139e-07
-2.95297e-07
3.18717e-07
-3.51643e-07
3.62834e-07
-4.15293e-07
4.2571e-07
-4.87836e-07
5.18096e-07
-5.69236e-07
6.5918e-07
-6.50931e-07
8.83064e-07
-6.90025e-07
1.24035e-06
-5.6687e-07
1.73013e-06
-4.12893e-07
1.98455e-06
-3.51884e-07
1.97113e-06
-4.14892e-07
1.91819e-06
-2.75779e-07
2.19336e-06
-4.29218e-07
2.0963e-06
2.32581e-09
2.74074e-06
-2.91534e-07
2.1743e-06
3.63229e-07
2.97073e-06
-1.45891e-07
1.82079e-06
6.33118e-07
2.71106e-06
-3.76681e-08
1.02759e-06
-1.17991e-06
1.28265e-06
-5.06378e-06
3.62918e-06
-5.57662e-06
2.21024e-07
-5.94364e-06
1.15856e-07
-5.64144e-06
-1.22641e-06
-5.69724e-06
-6.10645e-07
-5.93952e-06
-6.38292e-07
-5.99515e-06
-8.18945e-07
-5.89431e-06
-1.41908e-06
-5.8629e-06
-1.85103e-06
-5.78639e-06
-2.62348e-06
-5.35681e-06
-4.04585e-06
-4.15533e-06
-6.15169e-06
-2.2723e-06
-8.01441e-06
-1.11075e-17
-9.08859e-06
2.2723e-06
-9.08859e-06
4.15533e-06
-8.01441e-06
5.35681e-06
-6.15169e-06
5.78639e-06
-4.04585e-06
5.8629e-06
-2.62348e-06
5.89431e-06
-1.85103e-06
5.99515e-06
-1.41908e-06
5.93952e-06
-8.18945e-07
5.69724e-06
-6.38292e-07
5.64144e-06
-6.10645e-07
5.94364e-06
-1.22641e-06
5.57662e-06
1.15856e-07
5.06378e-06
2.21024e-07
1.17991e-06
3.62918e-06
3.76681e-08
1.28265e-06
-6.33118e-07
1.02759e-06
1.45891e-07
2.71106e-06
-3.63229e-07
1.82079e-06
2.91534e-07
2.97073e-06
-2.32581e-09
2.1743e-06
4.29218e-07
2.74074e-06
2.75779e-07
2.0963e-06
4.14892e-07
2.19336e-06
3.51884e-07
1.91819e-06
4.12893e-07
1.97113e-06
5.6687e-07
1.98455e-06
6.90025e-07
1.73013e-06
6.50931e-07
1.24035e-06
5.69236e-07
8.83064e-07
4.87836e-07
6.5918e-07
4.15293e-07
5.18096e-07
3.51643e-07
4.2571e-07
2.95297e-07
3.62834e-07
2.44632e-07
3.18717e-07
1.98294e-07
2.87139e-07
1.55204e-07
2.64371e-07
1.14493e-07
2.4811e-07
7.54511e-08
2.3691e-07
3.74683e-08
2.29874e-07
2.26478e-07
-4.05075e-08
2.66985e-07
-8.15375e-08
2.70904e-07
-1.23639e-07
2.79011e-07
-1.67414e-07
2.91885e-07
-2.13549e-07
3.10506e-07
-2.62847e-07
3.36437e-07
-3.16245e-07
3.72115e-07
-3.74796e-07
4.21385e-07
-4.39496e-07
4.9041e-07
-5.10624e-07
5.89225e-07
-5.85559e-07
7.34114e-07
-6.52048e-07
9.49554e-07
-6.71971e-07
1.26028e-06
-5.77674e-07
1.63583e-06
-4.55197e-07
1.86207e-06
-3.95127e-07
1.91105e-06
-4.07385e-07
1.93045e-06
-3.19301e-07
2.10528e-06
-3.59112e-07
2.13611e-06
-9.55993e-08
2.47723e-06
-1.8176e-07
2.26046e-06
1.99143e-07
2.58983e-06
-5.75454e-09
2.02568e-06
4.02717e-07
2.30259e-06
8.09563e-09
1.42221e-06
-2.861e-07
1.57684e-06
6.87618e-07
2.65546e-06
-1.06601e-07
1.01524e-06
-1.63765e-06
1.6469e-06
-4.97079e-06
2.10673e-06
-5.78813e-06
2.06701e-07
-6.53862e-06
1.12199e-07
-6.91178e-06
-4.45785e-07
-6.70412e-06
-1.62675e-06
-6.99864e-06
-1.5565e-06
-7.50109e-06
-2.12103e-06
-7.64282e-06
-3.90412e-06
-6.13307e-06
-7.66144e-06
-3.40464e-06
-1.07428e-05
5.47522e-18
-1.24932e-05
3.40464e-06
-1.24932e-05
6.13307e-06
-1.07428e-05
7.64282e-06
-7.66144e-06
7.50109e-06
-3.90412e-06
6.99864e-06
-2.12103e-06
6.70412e-06
-1.5565e-06
6.91178e-06
-1.62675e-06
6.53862e-06
-4.45785e-07
5.78813e-06
1.12199e-07
4.97079e-06
2.06701e-07
1.63765e-06
2.10673e-06
1.06601e-07
1.6469e-06
-6.87618e-07
1.01524e-06
2.861e-07
2.65546e-06
-8.09563e-09
1.57684e-06
-4.02717e-07
1.42221e-06
5.75454e-09
2.30259e-06
-1.99143e-07
2.02568e-06
1.8176e-07
2.58983e-06
9.55993e-08
2.26046e-06
3.59112e-07
2.47723e-06
3.19301e-07
2.13611e-06
4.07385e-07
2.10528e-06
3.95127e-07
1.93045e-06
4.55197e-07
1.91105e-06
5.77674e-07
1.86207e-06
6.71971e-07
1.63583e-06
6.52048e-07
1.26028e-06
5.85559e-07
9.49554e-07
5.10624e-07
7.34114e-07
4.39496e-07
5.89225e-07
3.74796e-07
4.9041e-07
3.16245e-07
4.21385e-07
2.62847e-07
3.72115e-07
2.13549e-07
3.36437e-07
1.67414e-07
3.10506e-07
1.23639e-07
2.91885e-07
8.15375e-08
2.79011e-07
4.05075e-08
2.70904e-07
2.66985e-07
-4.36127e-08
3.10598e-07
-8.77425e-08
3.15034e-07
-1.32926e-07
3.24195e-07
-1.79742e-07
3.387e-07
-2.28821e-07
3.59585e-07
-2.8086e-07
3.88476e-07
-3.36595e-07
4.2785e-07
-3.96697e-07
4.81488e-07
-4.61451e-07
5.55164e-07
-5.29863e-07
6.57636e-07
-5.97346e-07
8.01598e-07
-6.50411e-07
1.00262e-06
-6.58749e-07
1.26862e-06
-5.86446e-07
1.56353e-06
-4.89061e-07
1.76469e-06
-4.29342e-07
1.85134e-06
-4.10386e-07
1.91149e-06
-3.4379e-07
2.03868e-06
-3.22775e-07
2.11509e-06
-1.50042e-07
2.3045e-06
-1.30701e-07
2.24111e-06
1.00827e-07
2.3583e-06
5.14113e-08
2.0751e-06
2.58191e-07
2.09581e-06
4.11128e-08
1.63929e-06
-8.89591e-08
1.70691e-06
4.12288e-07
2.15421e-06
3.62719e-08
1.39126e-06
7.1238e-08
1.61194e-06
4.3782e-07
1.74015e-06
-2.03248e-07
8.47768e-07
-1.42687e-06
1.33582e-06
-3.82148e-06
1.94883e-06
-5.59659e-06
1.48362e-07
-7.23502e-06
8.19352e-08
-9.41313e-06
5.70737e-08
-1.19136e-05
-1.40367e-06
-9.75372e-06
-9.82129e-06
-5.50668e-06
-1.49899e-05
3.06016e-17
-1.79999e-05
5.50668e-06
-1.79999e-05
9.75372e-06
-1.49899e-05
1.19136e-05
-9.82129e-06
9.41313e-06
-1.40367e-06
7.23502e-06
5.70737e-08
5.59659e-06
8.19352e-08
3.82148e-06
1.48362e-07
1.42687e-06
1.94883e-06
2.03248e-07
1.33582e-06
-4.3782e-07
8.47768e-07
-7.1238e-08
1.74015e-06
-3.62719e-08
1.61194e-06
-4.12288e-07
1.39126e-06
8.89591e-08
2.15421e-06
-4.11128e-08
1.70691e-06
-2.58191e-07
1.63929e-06
-5.14113e-08
2.09581e-06
-1.00827e-07
2.0751e-06
1.30701e-07
2.3583e-06
1.50042e-07
2.24111e-06
3.22775e-07
2.3045e-06
3.4379e-07
2.11509e-06
4.10386e-07
2.03868e-06
4.29342e-07
1.91149e-06
4.89061e-07
1.85134e-06
5.86446e-07
1.76469e-06
6.58749e-07
1.56353e-06
6.50411e-07
1.26862e-06
5.97346e-07
1.00262e-06
5.29863e-07
8.01598e-07
4.61451e-07
6.57636e-07
3.96697e-07
5.55164e-07
3.36595e-07
4.81488e-07
2.8086e-07
4.2785e-07
2.28821e-07
3.88476e-07
1.79742e-07
3.59585e-07
1.32926e-07
3.387e-07
8.77425e-08
3.24195e-07
4.36127e-08
3.15034e-07
3.10598e-07
-4.67229e-08
3.57321e-07
-9.39407e-08
3.62252e-07
-1.4216e-07
3.72415e-07
-1.91907e-07
3.88447e-07
-2.43731e-07
4.11409e-07
-2.9818e-07
4.42924e-07
-3.55735e-07
4.85405e-07
-4.16631e-07
5.42384e-07
-4.80434e-07
6.18966e-07
-5.45065e-07
7.22267e-07
-6.04773e-07
8.61307e-07
-6.46681e-07
1.04453e-06
-6.48576e-07
1.27051e-06
-5.92784e-07
1.50774e-06
-5.14685e-07
1.68659e-06
-4.55827e-07
1.79248e-06
-4.18227e-07
1.8739e-06
-3.57916e-07
1.97837e-06
-3.0653e-07
2.06371e-06
-1.80465e-07
2.17843e-06
-1.13968e-07
2.17462e-06
3.95692e-08
2.20476e-06
6.15842e-08
2.05308e-06
1.68706e-07
1.98869e-06
6.20519e-08
1.74594e-06
1.45992e-08
1.75437e-06
2.60878e-07
1.90794e-06
9.51237e-08
1.55701e-06
1.10289e-07
1.59677e-06
2.56425e-07
1.59401e-06
-1.00373e-07
1.20457e-06
-2.77823e-07
1.51327e-06
7.04242e-07
9.66764e-07
2.5889e-07
5.93713e-07
-1.55704e-07
4.96529e-07
-7.13878e-07
6.15248e-07
-2.66998e-06
5.52431e-07
-1.19172e-05
-5.74117e-07
-8.80958e-06
-1.80975e-05
3.91787e-17
-2.68095e-05
8.80958e-06
-2.68095e-05
1.19172e-05
-1.80975e-05
2.66998e-06
-5.74117e-07
7.13878e-07
5.52431e-07
1.55704e-07
6.15248e-07
-2.5889e-07
4.96529e-07
-7.04242e-07
5.93713e-07
2.77823e-07
9.66764e-07
1.00373e-07
1.51327e-06
-2.56425e-07
1.20457e-06
-1.10289e-07
1.59401e-06
-9.51237e-08
1.59677e-06
-2.60878e-07
1.55701e-06
-1.45992e-08
1.90794e-06
-6.20519e-08
1.75437e-06
-1.68706e-07
1.74594e-06
-6.15842e-08
1.98869e-06
-3.95692e-08
2.05308e-06
1.13968e-07
2.20476e-06
1.80465e-07
2.17462e-06
3.0653e-07
2.17843e-06
3.57916e-07
2.06371e-06
4.18227e-07
1.97837e-06
4.55827e-07
1.8739e-06
5.14685e-07
1.79248e-06
5.92784e-07
1.68659e-06
6.48576e-07
1.50774e-06
6.46681e-07
1.27051e-06
6.04773e-07
1.04453e-06
5.45065e-07
8.61307e-07
4.80434e-07
7.22267e-07
4.16631e-07
6.18966e-07
3.55735e-07
5.42384e-07
2.9818e-07
4.85405e-07
2.43731e-07
4.42924e-07
1.91907e-07
4.11409e-07
1.4216e-07
3.88447e-07
9.39407e-08
3.72415e-07
4.67229e-08
3.62252e-07
3.57321e-07
-4.97592e-08
4.0708e-07
-9.99706e-08
4.12463e-07
-1.51088e-07
4.23532e-07
-2.03561e-07
4.40921e-07
-2.57823e-07
4.65671e-07
-3.14235e-07
4.99337e-07
-3.72989e-07
5.44158e-07
-4.33868e-07
6.03264e-07
-4.95788e-07
6.80886e-07
-5.55894e-07
7.82373e-07
-6.08055e-07
9.13468e-07
-6.41119e-07
1.07759e-06
-6.39805e-07
1.2692e-06
-5.96224e-07
1.46416e-06
-5.32573e-07
1.62294e-06
-4.75399e-07
1.7353e-06
-4.27202e-07
1.8257e-06
-3.66826e-07
1.91799e-06
-3.01598e-07
1.99848e-06
-1.99088e-07
2.07592e-06
-1.15909e-07
2.09144e-06
-2.35953e-09
2.09121e-06
4.81211e-08
2.0026e-06
1.11807e-07
1.92501e-06
7.0601e-08
1.78715e-06
6.23428e-08
1.76262e-06
1.80268e-07
1.79001e-06
1.16328e-07
1.62095e-06
1.20135e-07
1.59296e-06
1.63762e-07
1.55039e-06
-1.69595e-08
1.38529e-06
-2.82127e-08
1.52452e-06
2.02671e-07
7.3588e-07
1.35528e-07
6.60856e-07
1.19128e-08
6.20144e-07
-4.63287e-09
6.31794e-07
-8.89385e-08
6.36737e-07
-4.12263e-07
-2.50792e-07
-3.63432e-06
-1.48754e-05
2.34845e-17
-3.04438e-05
3.63432e-06
-3.04438e-05
4.12263e-07
-1.48754e-05
8.89385e-08
-2.50792e-07
4.63287e-09
6.36737e-07
-1.19128e-08
6.31794e-07
-1.35528e-07
6.20144e-07
-2.02671e-07
6.60856e-07
2.82127e-08
7.3588e-07
1.69595e-08
1.52452e-06
-1.63762e-07
1.38529e-06
-1.20135e-07
1.55039e-06
-1.16328e-07
1.59296e-06
-1.80268e-07
1.62095e-06
-6.23428e-08
1.79001e-06
-7.0601e-08
1.76262e-06
-1.11807e-07
1.78715e-06
-4.81211e-08
1.92501e-06
2.35953e-09
2.0026e-06
1.15909e-07
2.09121e-06
1.99088e-07
2.09144e-06
3.01598e-07
2.07592e-06
3.66826e-07
1.99848e-06
4.27202e-07
1.91799e-06
4.75399e-07
1.8257e-06
5.32573e-07
1.7353e-06
5.96224e-07
1.62294e-06
6.39805e-07
1.46416e-06
6.41119e-07
1.2692e-06
6.08055e-07
1.07759e-06
5.55894e-07
9.13468e-07
4.95788e-07
7.82373e-07
4.33868e-07
6.80886e-07
3.72989e-07
6.03264e-07
3.14235e-07
5.44158e-07
2.57823e-07
4.99337e-07
2.03561e-07
4.65671e-07
1.51088e-07
4.40921e-07
9.99706e-08
4.23532e-07
4.97592e-08
4.12463e-07
4.0708e-07
-5.26233e-08
4.59703e-07
-1.05633e-07
4.65473e-07
-1.59405e-07
4.77304e-07
-2.14289e-07
4.95804e-07
-2.70568e-07
5.21949e-07
-3.28394e-07
5.57163e-07
-3.87651e-07
6.03415e-07
-4.47705e-07
6.63318e-07
-5.06959e-07
7.40139e-07
-5.62138e-07
8.37552e-07
-6.07364e-07
9.58694e-07
-6.33654e-07
1.10388e-06
-6.30996e-07
1.26654e-06
-5.96326e-07
1.42949e-06
-5.43357e-07
1.56997e-06
-4.88622e-07
1.68057e-06
-4.35068e-07
1.77214e-06
-3.73134e-07
1.85606e-06
-3.02694e-07
1.92804e-06
-2.12732e-07
1.98596e-06
-1.27215e-07
2.00592e-06
-3.47482e-08
1.99875e-06
2.46179e-08
1.94324e-06
7.25989e-08
1.87703e-06
6.8536e-08
1.79121e-06
7.83182e-08
1.75284e-06
1.36366e-07
1.73196e-06
1.17432e-07
1.63989e-06
1.16314e-07
1.59408e-06
1.19698e-07
1.547e-06
3.19327e-08
1.47305e-06
3.49903e-08
1.52147e-06
8.44477e-08
6.86423e-07
7.38471e-08
6.71457e-07
3.44706e-08
6.59521e-07
5.83667e-09
6.60428e-07
-2.53988e-08
6.67972e-07
-6.93731e-08
-2.06818e-07
-6.09328e-07
-1.43354e-05
6.76181e-18
-3.10531e-05
6.09328e-07
-3.10531e-05
6.93731e-08
-1.43354e-05
2.53988e-08
-2.06818e-07
-5.83667e-09
6.67972e-07
-3.44706e-08
6.60428e-07
-7.38471e-08
6.59521e-07
-8.44477e-08
6.71457e-07
-3.49903e-08
6.86423e-07
-3.19327e-08
1.52147e-06
-1.19698e-07
1.47305e-06
-1.16314e-07
1.547e-06
-1.17432e-07
1.59408e-06
-1.36366e-07
1.63989e-06
-7.83182e-08
1.73196e-06
-6.8536e-08
1.75284e-06
-7.25989e-08
1.79121e-06
-2.46179e-08
1.87703e-06
3.47482e-08
1.94324e-06
1.27215e-07
1.99875e-06
2.12732e-07
2.00592e-06
3.02694e-07
1.98596e-06
3.73134e-07
1.92804e-06
4.35068e-07
1.85606e-06
4.88622e-07
1.77214e-06
5.43357e-07
1.68057e-06
5.96326e-07
1.56997e-06
6.30996e-07
1.42949e-06
6.33654e-07
1.26654e-06
6.07364e-07
1.10388e-06
5.62138e-07
9.58694e-07
5.06959e-07
8.37552e-07
4.47705e-07
7.40139e-07
3.87651e-07
6.63318e-07
3.28394e-07
6.03415e-07
2.70568e-07
5.57163e-07
2.14289e-07
5.21949e-07
1.59405e-07
4.95804e-07
1.05633e-07
4.77304e-07
5.26233e-08
4.65473e-07
4.59703e-07
-5.51993e-08
5.14902e-07
-1.10695e-07
5.20969e-07
-1.66762e-07
5.33371e-07
-2.23621e-07
5.52663e-07
-2.8139e-07
5.79718e-07
-3.39996e-07
6.15769e-07
-3.99031e-07
6.6245e-07
-4.57512e-07
7.21798e-07
-5.13512e-07
7.96139e-07
-5.63674e-07
8.87715e-07
-6.02781e-07
9.97801e-07
-6.23986e-07
1.12508e-06
-6.20946e-07
1.2635e-06
-5.92728e-07
1.40127e-06
-5.47677e-07
1.52492e-06
-4.95948e-07
1.62884e-06
-4.40554e-07
1.71675e-06
-3.77835e-07
1.79334e-06
-3.06713e-07
1.85692e-06
-2.24613e-07
1.90386e-06
-1.42666e-07
1.92397e-06
-6.23496e-08
1.91843e-06
-1.90786e-09
1.88279e-06
4.21605e-08
1.83296e-06
5.84186e-08
1.77495e-06
7.67845e-08
1.73448e-06
1.09368e-07
1.69938e-06
1.08802e-07
1.64045e-06
1.07021e-07
1.59586e-06
9.90002e-08
1.55502e-06
5.61631e-08
1.51589e-06
5.22733e-08
1.52536e-06
5.95439e-08
6.79152e-07
5.46135e-08
6.76387e-07
3.98125e-08
6.74322e-07
2.39679e-08
6.76272e-07
9.27978e-09
6.82661e-07
-6.68426e-09
-1.90854e-07
-2.87608e-07
-1.40545e-05
2.61619e-17
-3.13407e-05
2.87608e-07
-3.13407e-05
6.68426e-09
-1.40545e-05
-9.27978e-09
-1.90854e-07
-2.39679e-08
6.82661e-07
-3.98125e-08
6.76272e-07
-5.46135e-08
6.74322e-07
-5.95439e-08
6.76387e-07
-5.22733e-08
6.79152e-07
-5.61631e-08
1.52536e-06
-9.90002e-08
1.51589e-06
-1.07021e-07
1.55502e-06
-1.08802e-07
1.59586e-06
-1.09368e-07
1.64045e-06
-7.67845e-08
1.69938e-06
-5.84186e-08
1.73448e-06
-4.21605e-08
1.77495e-06
1.90786e-09
1.83296e-06
6.23496e-08
1.88279e-06
1.42666e-07
1.91843e-06
2.24613e-07
1.92397e-06
3.06713e-07
1.90386e-06
3.77835e-07
1.85692e-06
4.40554e-07
1.79334e-06
4.95948e-07
1.71675e-06
5.47677e-07
1.62884e-06
5.92728e-07
1.52492e-06
6.20946e-07
1.40127e-06
6.23986e-07
1.2635e-06
6.02781e-07
1.12508e-06
5.63674e-07
9.97801e-07
5.13512e-07
8.87715e-07
4.57512e-07
7.96139e-07
3.99031e-07
7.21798e-07
3.39996e-07
6.6245e-07
2.8139e-07
6.15769e-07
2.23621e-07
5.79718e-07
1.66762e-07
5.52663e-07
1.10695e-07
5.33371e-07
5.51993e-08
5.20969e-07
5.14902e-07
-5.73573e-08
5.7226e-07
-1.14899e-07
5.78511e-07
-1.72776e-07
5.91248e-07
-2.31063e-07
6.1095e-07
-2.89699e-07
6.38355e-07
-3.48396e-07
6.74466e-07
-4.06493e-07
7.20548e-07
-4.62761e-07
7.78066e-07
-5.15131e-07
8.48509e-07
-5.60427e-07
9.3301e-07
-5.94287e-07
1.03166e-06
-6.11697e-07
1.14249e-06
-6.08703e-07
1.26051e-06
-5.8517e-07
1.37774e-06
-5.46119e-07
1.48587e-06
-4.97791e-07
1.58051e-06
-4.42981e-07
1.66194e-06
-3.81024e-07
1.73138e-06
-3.11753e-07
1.78765e-06
-2.35796e-07
1.8279e-06
-1.59392e-07
1.84757e-06
-8.71047e-08
1.84614e-06
-2.82708e-08
1.82396e-06
1.57759e-08
1.78891e-06
4.28132e-08
1.74792e-06
6.57829e-08
1.71151e-06
8.90072e-08
1.67615e-06
9.59139e-08
1.63355e-06
9.59314e-08
1.59584e-06
8.8031e-08
1.56292e-06
6.65733e-08
1.53735e-06
5.93242e-08
1.53261e-06
5.79571e-08
6.80519e-07
5.4409e-08
6.79936e-07
4.88533e-08
6.79878e-07
4.4074e-08
6.81051e-07
4.35294e-08
6.83205e-07
2.44047e-08
-1.71729e-07
-2.1198e-07
-1.38181e-05
1.19044e-17
-3.15527e-05
2.1198e-07
-3.15527e-05
-2.44047e-08
-1.38181e-05
-4.35294e-08
-1.71729e-07
-4.4074e-08
6.83205e-07
-4.88533e-08
6.81051e-07
-5.4409e-08
6.79878e-07
-5.79571e-08
6.79936e-07
-5.93242e-08
6.80519e-07
-6.65733e-08
1.53261e-06
-8.8031e-08
1.53735e-06
-9.59314e-08
1.56292e-06
-9.59139e-08
1.59584e-06
-8.90072e-08
1.63355e-06
-6.57829e-08
1.67615e-06
-4.28132e-08
1.71151e-06
-1.57759e-08
1.74792e-06
2.82708e-08
1.78891e-06
8.71047e-08
1.82396e-06
1.59392e-07
1.84614e-06
2.35796e-07
1.84757e-06
3.11753e-07
1.8279e-06
3.81024e-07
1.78765e-06
4.42981e-07
1.73138e-06
4.97791e-07
1.66194e-06
5.46119e-07
1.58051e-06
5.8517e-07
1.48587e-06
6.08703e-07
1.37774e-06
6.11697e-07
1.26051e-06
5.94287e-07
1.14249e-06
5.60427e-07
1.03166e-06
5.15131e-07
9.3301e-07
4.62761e-07
8.48509e-07
4.06493e-07
7.78066e-07
3.48396e-07
7.20548e-07
2.89699e-07
6.74466e-07
2.31063e-07
6.38355e-07
1.72776e-07
6.1095e-07
1.14899e-07
5.91248e-07
5.73573e-08
5.78511e-07
5.7226e-07