/*--------------------------------*- C++ -*----------------------------------*\
  =========                 |
  \\      /  F ield         | OpenFOAM: The Open Source CFD Toolbox
   \\    /   O peration     | Website:  https://openfoam.org
    \\  /    A nd           | Version:  10
     \\/     M anipulation  |
\*---------------------------------------------------------------------------*/
FoamFile
{
    format      ascii;
    class       surfaceScalarField;
    location    "0.48";
    object      phi;
}
// * * * * * * * * * * * * * * * * * * * * * * * * * * * * * * * * * * * * * //

dimensions      [0 3 -1 0 0 0 0];

internalField   nonuniform List<scalar> 
24170
(
1.29785e-09
-1.29785e-09
2.40299e-09
-1.10513e-09
3.2685e-09
-8.65514e-10
3.91019e-09
-6.4169e-10
4.37099e-09
-4.60802e-10
4.69746e-09
-3.26465e-10
4.92955e-09
-2.32089e-10
5.09832e-09
-1.6877e-10
5.22701e-09
-1.28686e-10
5.33312e-09
-1.06114e-10
5.43066e-09
-9.754e-11
5.53233e-09
-1.01673e-10
5.65225e-09
-1.1992e-10
5.81045e-09
-1.58198e-10
6.04327e-09
-2.32819e-10
6.43537e-09
-3.92097e-10
7.25486e-09
-8.19491e-10
-2.51879e-09
9.77365e-09
1.51031e-09
-2.80816e-09
2.79112e-09
-2.38595e-09
3.7893e-09
-1.8637e-09
4.52585e-09
-1.37823e-09
5.05259e-09
-9.87542e-10
5.42447e-09
-6.98351e-10
5.688e-09
-4.95611e-10
5.87885e-09
-3.59627e-10
6.02344e-09
-2.7327e-10
6.14136e-09
-2.24043e-10
6.24804e-09
-2.04214e-10
6.35711e-09
-2.10742e-10
6.48327e-09
-2.46087e-10
6.6466e-09
-3.21522e-10
6.88115e-09
-4.67374e-10
7.2552e-09
-7.66147e-10
7.90724e-09
-1.47153e-09
-3.44186e-09
8.83031e-09
1.70099e-09
-4.50916e-09
3.13355e-09
-3.8185e-09
4.23946e-09
-2.96961e-09
5.047e-09
-2.18577e-09
5.61824e-09
-1.55878e-09
6.0169e-09
-1.09701e-09
6.2958e-09
-7.74508e-10
6.49481e-09
-5.58639e-10
6.64298e-09
-4.21441e-10
6.76157e-09
-3.42629e-10
6.86693e-09
-3.09573e-10
6.97312e-09
-3.16932e-10
7.09452e-09
-3.6749e-10
7.24909e-09
-4.76088e-10
7.46278e-09
-6.81071e-10
7.77189e-09
-1.07525e-09
8.18438e-09
-1.88402e-09
-3.58574e-09
8.32825e-09
1.91238e-09
-6.42153e-09
3.50783e-09
-5.41395e-09
4.7236e-09
-4.18538e-09
5.59888e-09
-3.06106e-09
6.20913e-09
-2.16903e-09
6.62868e-09
-1.51657e-09
6.91749e-09
-1.06332e-09
7.11987e-09
-7.6102e-10
7.2675e-09
-5.69072e-10
7.38311e-09
-4.58239e-10
7.48373e-09
-4.10194e-10
7.58334e-09
-4.16543e-10
7.69506e-09
-4.79207e-10
7.83282e-09
-6.13849e-10
8.01098e-09
-8.59227e-10
8.23278e-09
-1.29706e-09
8.42816e-09
-2.0794e-09
-3.38256e-09
8.22499e-09
2.15932e-09
-8.58085e-09
3.93812e-09
-7.19276e-09
5.27026e-09
-5.51752e-09
6.21156e-09
-4.00236e-09
6.85558e-09
-2.81304e-09
7.28993e-09
-1.95092e-09
7.58287e-09
-1.35626e-09
7.78352e-09
-9.61663e-10
7.92614e-09
-7.11691e-10
8.03472e-09
-5.6682e-10
8.12661e-09
-5.02088e-10
8.21517e-09
-5.05107e-10
8.3114e-09
-5.75435e-10
8.42398e-09
-7.26429e-10
8.55512e-09
-9.90369e-10
8.68325e-09
-1.42519e-09
8.71062e-09
-2.10677e-09
-3.03909e-09
8.36715e-09
2.45715e-09
-1.1038e-08
4.44738e-09
-9.18299e-09
5.90381e-09
-6.97396e-09
6.90787e-09
-5.00641e-09
7.57805e-09
-3.48322e-09
8.01884e-09
-2.39172e-09
8.30827e-09
-1.64568e-09
8.50056e-09
-1.15396e-09
8.63247e-09
-8.43603e-10
8.72892e-09
-6.63268e-10
8.80714e-09
-5.80312e-10
8.87934e-09
-5.77307e-10
8.95378e-09
-6.49873e-10
9.0336e-09
-8.06252e-10
9.11094e-09
-1.0677e-09
9.1508e-09
-1.46505e-09
9.06012e-09
-2.01608e-09
-2.65081e-09
8.67184e-09
2.82638e-09
-1.38644e-08
5.0645e-09
-1.14211e-08
6.65286e-09
-8.56231e-09
7.71262e-09
-6.06618e-09
8.3971e-09
-4.16769e-09
8.83233e-09
-2.82695e-09
9.10772e-09
-1.92107e-09
9.28287e-09
-1.32911e-09
9.39671e-09
-9.57439e-10
9.4746e-09
-7.41162e-10
9.53318e-09
-6.38884e-10
9.58299e-09
-6.27124e-10
9.62932e-09
-6.96198e-10
9.67039e-09
-8.47327e-10
9.6918e-09
-1.08911e-09
9.65547e-09
-1.42872e-09
9.48801e-09
-1.84862e-09
-2.26146e-09
9.09866e-09
3.29687e-09
-1.71613e-08
5.82935e-09
-1.39536e-08
7.55449e-09
-1.02874e-08
8.6561e-09
-7.16779e-09
9.33632e-09
-4.84791e-09
9.74868e-09
-3.23932e-09
9.99562e-09
-2.168e-09
1.0142e-08
-1.47552e-09
1.02284e-08
-1.04377e-09
1.02798e-08
-7.92561e-10
1.03116e-08
-6.70756e-10
1.03325e-08
-6.48007e-10
1.03448e-08
-7.08447e-10
1.0343e-08
-8.45554e-10
1.03101e-08
-1.05619e-09
1.02119e-08
-1.33057e-09
9.99823e-09
-1.63495e-09
-1.89087e-09
9.62764e-09
3.91443e-09
-2.10757e-08
6.79932e-09
-1.68385e-08
8.65871e-09
-1.21468e-08
9.7766e-09
-8.28569e-09
1.04239e-08
-5.4952e-09
1.07887e-08
-3.60409e-09
1.09876e-08
-2.36692e-09
1.10901e-08
-1.57801e-09
1.1137e-08
-1.09071e-09
1.11523e-08
-8.07841e-10
1.11494e-08
-6.67826e-10
1.11344e-08
-6.33046e-10
1.11072e-08
-6.81235e-10
1.10602e-08
-7.98576e-10
1.09768e-08
-9.72747e-10
1.08304e-08
-1.18419e-09
1.05912e-08
-1.39575e-09
-1.54662e-09
1.02469e-08
4.75254e-09
-2.58282e-08
8.05959e-09
-2.01455e-08
1.00342e-08
-1.41215e-08
1.11231e-08
-9.3746e-09
1.16936e-08
-6.06572e-09
1.19759e-08
-3.8863e-09
1.21005e-08
-2.4916e-09
1.21397e-08
-1.61715e-09
1.21326e-08
-1.08358e-09
1.21003e-08
-7.75588e-10
1.20535e-08
-6.20998e-10
1.19955e-08
-5.75111e-10
1.19241e-08
-6.09785e-10
1.18308e-08
-7.05292e-10
1.17014e-08
-8.43354e-10
1.15178e-08
-1.00057e-09
1.12654e-08
-1.14338e-09
-1.22885e-09
1.09477e-08
5.93467e-09
-3.17629e-08
9.73995e-09
-2.39508e-08
1.17762e-08
-1.61577e-08
1.27579e-08
-1.03563e-08
1.31854e-08
-6.49323e-09
1.33363e-08
-4.03723e-09
1.33524e-08
-2.50764e-09
1.33038e-08
-1.56855e-09
1.32249e-08
-1.0047e-09
1.31319e-08
-6.8262e-10
1.30312e-08
-5.20305e-10
1.29231e-08
-4.66955e-10
1.28031e-08
-4.89821e-10
1.2663e-08
-5.65224e-10
1.24918e-08
-6.7207e-10
1.22784e-08
-7.87218e-10
1.20186e-08
-8.83553e-10
-9.32709e-10
1.17224e-08
6.37308e-09
-3.8136e-08
1.00245e-08
-2.76023e-08
1.16977e-08
-1.78308e-08
1.2341e-08
-1.09996e-08
1.2514e-08
-6.66625e-09
1.24871e-08
-4.01028e-09
1.2381e-08
-2.40155e-09
1.22477e-08
-1.43524e-09
1.21083e-08
-8.65366e-10
1.19703e-08
-5.44615e-10
1.18344e-08
-3.84429e-10
1.16979e-08
-3.30379e-10
1.15553e-08
-3.4723e-10
1.13997e-08
-4.09678e-10
1.1224e-08
-4.96361e-10
1.10231e-08
-5.8628e-10
1.07976e-08
-6.58048e-10
-6.92475e-10
1.05573e-08
9.52128e-09
-4.76573e-08
1.41719e-08
-3.22528e-08
1.58399e-08
-1.94988e-08
1.62057e-08
-1.13654e-08
1.60877e-08
-6.54833e-09
1.58198e-08
-3.74236e-09
1.55253e-08
-2.10705e-09
1.52449e-08
-1.15485e-09
1.49881e-08
-6.08566e-10
1.47531e-08
-3.09606e-10
1.45341e-08
-1.65414e-10
1.43231e-08
-1.19327e-10
1.41115e-08
-1.3567e-10
1.38915e-08
-1.89713e-10
1.36569e-08
-2.61763e-10
1.34051e-08
-3.34434e-10
1.31393e-08
-3.92274e-10
-4.2337e-10
1.28702e-08
1.54535e-08
-6.31108e-08
2.10443e-08
-3.78436e-08
2.20784e-08
-2.05329e-08
2.16524e-08
-1.09394e-08
2.09043e-08
-5.80028e-09
2.01795e-08
-3.01748e-09
1.95561e-08
-1.48372e-09
1.90335e-08
-6.32184e-10
1.85927e-08
-1.67795e-10
1.82121e-08
7.09385e-11
1.78712e-08
1.75543e-10
1.75534e-08
1.98405e-10
1.72465e-08
1.71287e-10
1.69409e-08
1.15895e-10
1.66307e-08
4.83712e-11
1.6315e-08
-1.86362e-11
1.59981e-08
-7.53775e-11
-1.1534e-10
1.569e-08
2.84098e-08
-9.15206e-08
3.32904e-08
-4.27242e-08
3.17769e-08
-1.90195e-08
2.94144e-08
-8.57686e-09
2.74083e-08
-3.79421e-09
2.58729e-08
-1.48205e-09
2.4711e-08
-3.21809e-10
2.38176e-08
2.61189e-10
2.31045e-08
5.45347e-10
2.25096e-08
6.65851e-10
2.19929e-08
6.92252e-10
2.15267e-08
6.64545e-10
2.10914e-08
6.06656e-10
2.06734e-08
5.33813e-10
2.02656e-08
4.56236e-10
1.98661e-08
3.80802e-10
1.94791e-08
3.11641e-10
2.50346e-10
1.91134e-08
6.29921e-08
-1.54513e-07
5.6444e-08
-3.61761e-08
4.68188e-08
-9.39427e-09
4.02151e-08
-1.97311e-09
3.59724e-08
4.48447e-10
3.3174e-08
1.3164e-09
3.12276e-08
1.62458e-09
2.97971e-08
1.69165e-09
2.8694e-08
1.64841e-09
2.78043e-08
1.55559e-09
2.70541e-08
1.44244e-09
2.6395e-08
1.32363e-09
2.5795e-08
1.20667e-09
2.52335e-08
1.09532e-09
2.46986e-08
9.91167e-10
2.41852e-08
8.94212e-10
2.3694e-08
8.02834e-10
7.13512e-10
2.32308e-08
1.83827e-07
1.61564e-07
9.77813e-08
4.98698e-08
6.73507e-08
2.10363e-08
5.37248e-08
1.16528e-08
4.64184e-08
7.75483e-09
4.19811e-08
5.75376e-09
3.90484e-08
4.55726e-09
3.69759e-08
3.7641e-09
3.54237e-08
3.20066e-09
3.41981e-08
2.78115e-09
3.31824e-08
2.45817e-09
3.2303e-08
2.20306e-09
3.15125e-08
1.99714e-09
3.07803e-08
1.82747e-09
3.00869e-08
1.68457e-09
2.94199e-08
1.56119e-09
2.8771e-08
1.45175e-09
1.35231e-09
2.81322e-08
7.72196e-08
8.43445e-08
7.55723e-08
5.15171e-08
6.5679e-08
3.09297e-08
5.77328e-08
1.95989e-08
5.22111e-08
1.32766e-08
4.83965e-08
9.56836e-09
4.5684e-08
7.26973e-09
4.36762e-08
5.77191e-09
4.21221e-08
4.75474e-09
4.08623e-08
4.04095e-09
3.97935e-08
3.52699e-09
3.88475e-08
3.14909e-09
3.79786e-08
2.86597e-09
3.71565e-08
2.64965e-09
3.63607e-08
2.48033e-09
3.55785e-08
2.34338e-09
3.48027e-08
2.22751e-09
2.12358e-09
3.40315e-08
3.61928e-08
4.81518e-08
5.04981e-08
3.72117e-08
5.43399e-08
2.70879e-08
5.43282e-08
1.96106e-08
5.31555e-08
1.44493e-08
5.17844e-08
1.09394e-08
5.05135e-08
8.54064e-09
4.94032e-08
6.88222e-09
4.8436e-08
5.72194e-09
4.75744e-08
4.90256e-09
4.67807e-08
4.32072e-09
4.60228e-08
3.90701e-09
4.52751e-08
3.6136e-09
4.45181e-08
3.40674e-09
4.37362e-08
3.26215e-09
4.29175e-08
3.16206e-09
4.20521e-08
3.09297e-09
3.04333e-09
4.11323e-08
1.46279e-08
3.35238e-08
2.38209e-08
2.80188e-08
2.88168e-08
2.2092e-08
3.13556e-08
1.70718e-08
3.25924e-08
1.32124e-08
3.31645e-08
1.03673e-08
3.33983e-08
8.30683e-09
3.34549e-08
6.82564e-09
3.34111e-08
5.76576e-09
3.33015e-08
5.01214e-09
3.314e-08
4.48228e-09
3.29302e-08
4.11681e-09
3.26715e-08
3.8723e-09
3.23618e-08
3.71644e-09
3.19986e-08
3.62535e-09
3.15781e-08
3.58248e-09
3.10923e-08
3.57881e-09
3.61301e-09
3.05226e-08
8.88941e-09
2.46344e-08
1.55308e-08
2.13774e-08
2.00013e-08
1.76215e-08
2.28905e-08
1.41827e-08
2.4748e-08
1.13549e-08
2.59594e-08
9.15585e-09
2.67678e-08
7.49843e-09
2.7319e-08
6.27441e-09
2.76985e-08
5.38633e-09
2.79549e-08
4.75573e-09
2.81151e-08
4.32206e-09
2.8193e-08
4.03893e-09
2.81954e-08
3.86989e-09
2.8127e-08
3.78488e-09
2.79946e-08
3.75767e-09
2.7812e-08
3.76513e-09
2.75994e-08
3.79141e-09
3.84147e-09
2.73709e-08
6.08248e-09
1.8552e-08
1.10248e-08
1.6435e-08
1.47322e-08
1.39142e-08
1.74164e-08
1.14984e-08
1.93461e-08
9.42527e-09
2.07468e-08
7.75517e-09
2.17827e-08
6.4625e-09
2.25656e-08
5.49151e-09
2.31686e-08
4.78329e-09
2.36381e-08
4.28627e-09
2.40015e-08
3.95861e-09
2.42734e-08
3.76703e-09
2.44591e-08
3.68426e-09
2.45585e-08
3.68542e-09
2.45733e-08
3.74291e-09
2.45214e-08
3.81706e-09
2.44765e-08
3.83632e-09
3.65801e-09
2.46599e-08
4.47999e-09
1.4072e-08
8.29177e-09
1.26233e-08
1.13351e-08
1.08709e-08
1.3689e-08
9.14448e-09
1.54925e-08
7.62175e-09
1.68815e-08
6.36619e-09
1.79665e-08
5.37746e-09
1.88304e-08
4.62765e-09
1.9532e-08
4.08164e-09
2.01117e-08
3.70665e-09
2.05946e-08
3.47567e-09
2.09939e-08
3.36777e-09
2.1311e-08
3.36711e-09
2.15349e-08
3.46151e-09
2.16362e-08
3.64159e-09
2.15524e-08
3.90085e-09
2.1164e-08
4.22477e-09
4.52044e-09
2.03016e-08
3.45941e-09
1.06126e-08
6.48495e-09
9.59771e-09
8.99571e-09
8.36015e-09
1.10205e-08
7.1197e-09
1.26363e-08
6.00592e-09
1.3929e-08
5.07347e-09
1.49753e-08
4.3312e-09
1.58371e-08
3.76584e-09
1.65619e-08
3.35683e-09
1.71844e-08
3.08412e-09
1.77284e-08
2.93172e-09
1.82075e-08
2.88869e-09
1.86256e-08
2.94895e-09
1.89766e-08
3.1106e-09
1.92399e-08
3.37822e-09
1.93627e-08
3.77802e-09
1.91837e-08
4.4038e-09
5.48712e-09
1.8217e-08
2.75556e-09
7.85699e-09
5.20804e-09
7.14524e-09
7.29494e-09
6.27325e-09
9.0251e-09
5.38954e-09
1.04442e-08
4.58681e-09
1.16095e-08
3.90817e-09
1.25762e-08
3.36452e-09
1.33919e-08
2.95016e-09
1.40954e-08
2.65333e-09
1.47171e-08
2.4624e-09
1.52798e-08
2.36902e-09
1.57988e-08
2.36967e-09
1.62822e-08
2.46557e-09
1.67332e-08
2.65952e-09
1.7164e-08
2.94743e-09
1.76388e-08
3.30326e-09
1.83366e-08
3.706e-09
8.95387e-09
1.48698e-08
2.24031e-09
5.61668e-09
4.25745e-09
5.1281e-09
6.00303e-09
4.52767e-09
7.47778e-09
3.9148e-09
8.71065e-09
3.35394e-09
9.74184e-09
2.87698e-09
1.06126e-08
2.49376e-09
1.13605e-08
2.20229e-09
1.20177e-08
1.99612e-09
1.26112e-08
1.86893e-09
1.31628e-08
1.81737e-09
1.36894e-08
1.84307e-09
1.4201e-08
1.95397e-09
1.46982e-08
2.16229e-09
1.51795e-08
2.46621e-09
1.57223e-08
2.76046e-09
1.68844e-08
2.54389e-09
8.42933e-09
1.74089e-08
1.84509e-09
3.77159e-09
3.5196e-09
3.45359e-09
4.98549e-09
3.06178e-09
6.24031e-09
2.65997e-09
7.30361e-09
2.29064e-09
8.20494e-09
1.97565e-09
8.97615e-09
1.72254e-09
9.64742e-09
1.53102e-09
1.02458e-08
1.39776e-09
1.07951e-08
1.31964e-09
1.13163e-08
1.29611e-09
1.18279e-08
1.33156e-09
1.23428e-08
1.43907e-09
1.28576e-08
1.64746e-09
1.33155e-08
2.00833e-09
1.35232e-08
2.55275e-09
1.31739e-08
2.8932e-09
5.24222e-09
1.6361e-08
1.52925e-09
2.24234e-09
2.92488e-09
2.05796e-09
4.15654e-09
1.83012e-09
5.22073e-09
1.59578e-09
6.13143e-09
1.37994e-09
6.91123e-09
1.19585e-09
7.58535e-09
1.04843e-09
8.17839e-09
9.37985e-10
8.71312e-09
8.63029e-10
9.21045e-09
8.22306e-10
9.69015e-09
8.16409e-10
1.01718e-08
8.49911e-10
1.06748e-08
9.36094e-10
1.12106e-08
1.11166e-09
1.17345e-08
1.48437e-09
1.19105e-08
2.37678e-09
1.01972e-08
4.60649e-09
7.52361e-10
1.46871e-08
1.26271e-09
9.79633e-10
2.41993e-09
9.00736e-10
3.44724e-09
8.02811e-10
4.34113e-09
7.01889e-10
5.11209e-09
6.08977e-10
5.77789e-09
5.30046e-10
6.35885e-09
4.67472e-10
6.8752e-09
4.21634e-10
7.34606e-09
3.92167e-10
7.7895e-09
3.78866e-10
8.22343e-09
3.82479e-10
8.66748e-09
4.05869e-10
9.14641e-09
4.57164e-10
9.69687e-09
5.61196e-10
1.03711e-08
8.10181e-10
1.11115e-08
1.63631e-09
8.79069e-09
6.92733e-09
-4.06935e-09
1.36124e-08
9.79633e-10
1.88037e-09
2.68318e-09
3.38507e-09
3.99405e-09
4.52409e-09
4.99156e-09
5.4132e-09
5.80536e-09
6.18423e-09
6.56671e-09
6.97258e-09
7.42974e-09
7.99094e-09
8.80112e-09
1.04374e-08
1.73648e-08
1.32954e-08
2.17214e-10
-2.17214e-10
4.35734e-10
-2.1852e-10
6.55367e-10
-2.19633e-10
8.75911e-10
-2.20544e-10
1.09716e-09
-2.21249e-10
1.3189e-09
-2.2174e-10
1.54091e-09
-2.22013e-10
1.76298e-09
-2.22064e-10
1.98487e-09
-2.21888e-10
2.20635e-09
-2.21485e-10
2.4272e-09
-2.20852e-10
2.64719e-09
-2.1999e-10
2.86609e-09
-2.189e-10
3.08368e-09
-2.17583e-10
3.29972e-09
-2.16042e-10
3.514e-09
-2.14283e-10
3.72631e-09
-2.1231e-10
3.93644e-09
-2.10129e-10
4.14419e-09
-2.07748e-10
4.34936e-09
-2.05174e-10
4.55178e-09
-2.02417e-10
4.75126e-09
-1.99486e-10
4.94766e-09
-1.96391e-10
5.1408e-09
-1.93143e-10
5.33055e-09
-1.89753e-10
5.51678e-09
-1.86233e-10
5.69938e-09
-1.82594e-10
5.87823e-09
-1.78847e-10
6.05323e-09
-1.75006e-10
6.22431e-09
-1.71081e-10
6.3914e-09
-1.67085e-10
6.55443e-09
-1.63028e-10
6.71335e-09
-1.58922e-10
6.86813e-09
-1.54778e-10
7.01873e-09
-1.50607e-10
7.16515e-09
-1.46417e-10
7.30737e-09
-1.4222e-10
7.44539e-09
-1.38023e-10
7.57923e-09
-1.33836e-10
7.7089e-09
-1.29667e-10
7.83442e-09
-1.25523e-10
7.95583e-09
-1.21411e-10
8.07317e-09
-1.17338e-10
8.18648e-09
-1.13309e-10
8.29581e-09
-1.0933e-10
8.40122e-09
-1.05406e-10
8.50276e-09
-1.01542e-10
8.6005e-09
-9.7741e-11
8.6945e-09
-9.40068e-11
8.78485e-09
-9.03428e-11
8.8716e-09
-8.67513e-11
8.95483e-09
-8.3235e-11
9.03463e-09
-7.97955e-11
9.11106e-09
-7.64348e-11
9.18422e-09
-7.31538e-11
9.25417e-09
-6.99537e-11
9.32101e-09
-6.68354e-11
9.38481e-09
-6.3799e-11
9.44565e-09
-6.0845e-11
9.50362e-09
-5.79732e-11
9.55881e-09
-5.51836e-11
9.61128e-09
-5.24758e-11
9.66113e-09
-4.98493e-11
9.70844e-09
-4.73032e-11
9.75327e-09
-4.48369e-11
9.79572e-09
-4.24493e-11
9.83586e-09
-4.01394e-11
9.87377e-09
-3.7906e-11
9.90952e-09
-3.57481e-11
9.94318e-09
-3.36638e-11
9.97483e-09
-3.16524e-11
1.00045e-08
-2.9712e-11
1.00324e-08
-2.78412e-11
1.00584e-08
-2.60384e-11
1.00827e-08
-2.43021e-11
1.01054e-08
-2.26308e-11
1.01264e-08
-2.10225e-11
1.01459e-08
-1.9476e-11
1.01638e-08
-1.79892e-11
1.01804e-08
-1.65608e-11
1.01956e-08
-1.51889e-11
1.02095e-08
-1.38718e-11
1.02221e-08
-1.26081e-11
1.02335e-08
-1.13958e-11
1.02437e-08
-1.02336e-11
1.02528e-08
-9.11944e-12
1.02609e-08
-8.05213e-12
1.02679e-08
-7.02976e-12
1.0274e-08
-6.05094e-12
1.02791e-08
-5.11414e-12
1.02833e-08
-4.21764e-12
1.02866e-08
-3.36013e-12
1.02892e-08
-2.53996e-12
1.02909e-08
-1.75597e-12
1.02919e-08
-1.00639e-12
1.02922e-08
-2.90109e-13
1.02918e-08
3.94204e-13
1.02908e-08
1.04815e-12
1.02891e-08
1.67273e-12
1.02869e-08
2.26936e-12
1.0284e-08
2.83908e-12
1.02806e-08
3.38334e-12
1.02767e-08
3.90291e-12
1.02723e-08
4.39938e-12
1.02675e-08
4.87334e-12
1.02621e-08
5.32621e-12
1.02564e-08
5.75882e-12
1.02502e-08
6.17223e-12
1.02436e-08
6.56729e-12
1.02367e-08
6.94501e-12
1.02294e-08
7.30627e-12
1.02217e-08
7.6519e-12
1.02137e-08
7.98262e-12
1.02054e-08
8.29932e-12
1.01968e-08
8.60276e-12
1.0188e-08
8.89374e-12
1.01788e-08
9.17267e-12
1.01693e-08
9.44071e-12
1.01596e-08
9.69792e-12
1.01497e-08
9.94548e-12
1.01395e-08
1.01835e-11
1.01291e-08
1.04129e-11
1.01185e-08
1.0634e-11
1.01076e-08
1.08475e-11
1.00966e-08
1.10538e-11
1.00853e-08
1.12532e-11
1.00739e-08
1.14465e-11
1.00622e-08
1.16338e-11
1.00504e-08
1.18158e-11
1.00384e-08
1.19927e-11
1.00263e-08
1.21649e-11
1.00139e-08
1.23329e-11
1.00014e-08
1.24967e-11
9.98877e-09
1.2657e-11
9.97596e-09
1.28139e-11
9.96299e-09
1.29678e-11
9.94987e-09
1.31188e-11
9.9366e-09
1.32676e-11
9.92319e-09
1.34141e-11
9.90963e-09
1.35586e-11
9.89593e-09
1.37015e-11
9.88208e-09
1.38429e-11
9.8681e-09
1.39834e-11
9.85398e-09
1.41229e-11
9.83972e-09
1.4262e-11
9.82532e-09
1.44008e-11
9.81078e-09
1.45398e-11
9.7961e-09
1.46793e-11
9.78128e-09
1.482e-11
9.76631e-09
1.49623e-11
9.75121e-09
1.51067e-11
9.73595e-09
1.52543e-11
9.72055e-09
1.5406e-11
9.70498e-09
1.55628e-11
9.68926e-09
1.57263e-11
9.67336e-09
1.58985e-11
9.65728e-09
1.60818e-11
9.641e-09
1.62792e-11
9.6245e-09
1.64945e-11
9.60777e-09
1.67328e-11
9.59077e-09
1.70005e-11
9.57346e-09
1.7306e-11
9.5558e-09
1.76602e-11
9.53773e-09
1.80773e-11
9.51915e-09
1.85764e-11
9.49997e-09
1.91826e-11
9.48004e-09
1.99296e-11
9.45917e-09
2.08636e-11
9.43713e-09
2.2048e-11
9.41355e-09
2.35719e-11
9.38799e-09
2.55635e-11
9.35978e-09
2.82122e-11
9.32797e-09
3.18082e-11
9.29115e-09
3.68181e-11
9.24711e-09
4.40392e-11
9.19216e-09
5.49545e-11
9.11949e-09
7.26659e-11
9.01462e-09
1.04877e-10
8.8383e-09
1.76321e-10
4.01103e-10
8.43719e-09
2.1809e-10
-4.35304e-10
4.37486e-10
-4.37916e-10
6.57993e-10
-4.40139e-10
8.79404e-10
-4.41956e-10
1.10151e-09
-4.43355e-10
1.32409e-09
-4.44324e-10
1.54693e-09
-4.44852e-10
1.7698e-09
-4.44932e-10
1.99247e-09
-4.44556e-10
2.21471e-09
-4.43721e-10
2.43628e-09
-4.42423e-10
2.65695e-09
-4.40664e-10
2.8765e-09
-4.38445e-10
3.09468e-09
-4.3577e-10
3.31129e-09
-4.32647e-10
3.52609e-09
-4.29083e-10
3.73887e-09
-4.2509e-10
3.94942e-09
-4.2068e-10
4.15754e-09
-4.15869e-10
4.36304e-09
-4.10672e-10
4.56573e-09
-4.05109e-10
4.76544e-09
-3.99198e-10
4.96201e-09
-3.9296e-10
5.15528e-09
-3.86417e-10
5.34512e-09
-3.79591e-10
5.53139e-09
-3.72506e-10
5.71399e-09
-3.65185e-10
5.89279e-09
-3.57652e-10
6.06772e-09
-3.49932e-10
6.23868e-09
-3.42047e-10
6.40562e-09
-3.34021e-10
6.56847e-09
-3.25877e-10
6.72718e-09
-3.17638e-10
6.88173e-09
-3.09325e-10
7.03208e-09
-3.0096e-10
7.17823e-09
-2.92561e-10
7.32016e-09
-2.84149e-10
7.45787e-09
-2.75741e-10
7.59139e-09
-2.67354e-10
7.72073e-09
-2.59005e-10
7.84592e-09
-2.50709e-10
7.96698e-09
-2.42478e-10
8.08397e-09
-2.34327e-10
8.19693e-09
-2.26267e-10
8.30591e-09
-2.18308e-10
8.41096e-09
-2.1046e-10
8.51215e-09
-2.02733e-10
8.60954e-09
-1.95133e-10
8.70321e-09
-1.87669e-10
8.79321e-09
-1.80345e-10
8.87962e-09
-1.73167e-10
8.96253e-09
-1.66141e-10
9.042e-09
-1.59269e-10
9.11812e-09
-1.52554e-10
9.19097e-09
-1.46e-10
9.26062e-09
-1.39608e-10
9.32717e-09
-1.33379e-10
9.39068e-09
-1.27315e-10
9.45125e-09
-1.21416e-10
9.50896e-09
-1.15681e-10
9.56389e-09
-1.10111e-10
9.61612e-09
-1.04704e-10
9.66573e-09
-9.94596e-11
9.7128e-09
-9.43763e-11
9.75741e-09
-8.94523e-11
9.79965e-09
-8.46858e-11
9.83959e-09
-8.00745e-11
9.8773e-09
-7.56163e-11
9.91286e-09
-7.13082e-11
9.94634e-09
-6.71481e-11
9.97782e-09
-6.31328e-11
1.00074e-08
-5.92597e-11
1.00351e-08
-5.55255e-11
1.00609e-08
-5.19271e-11
1.00851e-08
-4.84616e-11
1.01076e-08
-4.51256e-11
1.01285e-08
-4.19158e-11
1.01478e-08
-3.88288e-11
1.01657e-08
-3.58616e-11
1.01822e-08
-3.30104e-11
1.01972e-08
-3.02723e-11
1.0211e-08
-2.76436e-11
1.02235e-08
-2.51214e-11
1.02348e-08
-2.27018e-11
1.0245e-08
-2.0382e-11
1.0254e-08
-1.81584e-11
1.0262e-08
-1.60282e-11
1.0269e-08
-1.39877e-11
1.02749e-08
-1.20341e-11
1.028e-08
-1.01642e-11
1.02842e-08
-8.3749e-12
1.02875e-08
-6.66327e-12
1.02899e-08
-5.02643e-12
1.02916e-08
-3.46142e-12
1.02926e-08
-1.96543e-12
1.02929e-08
-5.35723e-13
1.02924e-08
8.30494e-13
1.02913e-08
2.13554e-12
1.02896e-08
3.38245e-12
1.02873e-08
4.57323e-12
1.02844e-08
5.71068e-12
1.0281e-08
6.79686e-12
1.02771e-08
7.83434e-12
1.02727e-08
8.82525e-12
1.02678e-08
9.77162e-12
1.02624e-08
1.06756e-11
1.02566e-08
1.15393e-11
1.02505e-08
1.23647e-11
1.02439e-08
1.31534e-11
1.02369e-08
1.39077e-11
1.02296e-08
1.46289e-11
1.02219e-08
1.53189e-11
1.02139e-08
1.59793e-11
1.02056e-08
1.66119e-11
1.0197e-08
1.72177e-11
1.01881e-08
1.77987e-11
1.01789e-08
1.83561e-11
1.01694e-08
1.8891e-11
1.01597e-08
1.9405e-11
1.01498e-08
1.98992e-11
1.01396e-08
2.03748e-11
1.01292e-08
2.0833e-11
1.01185e-08
2.12747e-11
1.01077e-08
2.1701e-11
1.00966e-08
2.21131e-11
1.00854e-08
2.25117e-11
1.00739e-08
2.28977e-11
1.00623e-08
2.32721e-11
1.00505e-08
2.36356e-11
1.00385e-08
2.39891e-11
1.00263e-08
2.43332e-11
1.0014e-08
2.46687e-11
1.00015e-08
2.49962e-11
9.9888e-09
2.53165e-11
9.97598e-09
2.56302e-11
9.96301e-09
2.59377e-11
9.94989e-09
2.62398e-11
9.93662e-09
2.65369e-11
9.9232e-09
2.68297e-11
9.90964e-09
2.71186e-11
9.89594e-09
2.74043e-11
9.8821e-09
2.7687e-11
9.86811e-09
2.79677e-11
9.85399e-09
2.82466e-11
9.83973e-09
2.85245e-11
9.82533e-09
2.88021e-11
9.81079e-09
2.90799e-11
9.79611e-09
2.93589e-11
9.78129e-09
2.964e-11
9.76632e-09
2.99242e-11
9.75122e-09
3.02129e-11
9.73596e-09
3.05079e-11
9.72056e-09
3.08106e-11
9.705e-09
3.11239e-11
9.68927e-09
3.14505e-11
9.67338e-09
3.17944e-11
9.6573e-09
3.21601e-11
9.64103e-09
3.25538e-11
9.62454e-09
3.29831e-11
9.60781e-09
3.34581e-11
9.59082e-09
3.39916e-11
9.57353e-09
3.45998e-11
9.55588e-09
3.53048e-11
9.53782e-09
3.61349e-11
9.51927e-09
3.71272e-11
9.50012e-09
3.8332e-11
9.48024e-09
3.98159e-11
9.45943e-09
4.16701e-11
9.43746e-09
4.40195e-11
9.41399e-09
4.70402e-11
9.38857e-09
5.09838e-11
9.36056e-09
5.62207e-11
9.32905e-09
6.33169e-11
9.2927e-09
7.31736e-11
9.24942e-09
8.73151e-11
9.19586e-09
1.08521e-10
9.12612e-09
1.42402e-10
9.02909e-09
2.01908e-10
8.88307e-09
3.22338e-10
6.16566e-10
8.66761e-09
2.19858e-10
-6.55162e-10
4.41022e-10
-6.59081e-10
6.63292e-10
-6.62408e-10
8.86454e-10
-6.65118e-10
1.11029e-09
-6.67191e-10
1.33457e-09
-6.68609e-10
1.55908e-09
-6.69357e-10
1.78357e-09
-6.69422e-10
2.00781e-09
-6.68794e-10
2.23155e-09
-6.67469e-10
2.45457e-09
-6.65442e-10
2.67662e-09
-6.62713e-10
2.89747e-09
-6.59288e-10
3.11687e-09
-6.55173e-10
3.3346e-09
-6.50378e-10
3.55043e-09
-6.44919e-10
3.76416e-09
-6.38811e-10
3.97555e-09
-6.32075e-10
4.18442e-09
-6.24735e-10
4.39056e-09
-6.16816e-10
4.5938e-09
-6.08346e-10
4.79395e-09
-5.99356e-10
4.99087e-09
-5.89877e-10
5.1844e-09
-5.79943e-10
5.3744e-09
-5.6959e-10
5.56074e-09
-5.58851e-10
5.74332e-09
-5.47764e-10
5.92203e-09
-5.36364e-10
6.09679e-09
-5.24688e-10
6.26751e-09
-5.12772e-10
6.43414e-09
-5.00651e-10
6.59663e-09
-4.8836e-10
6.75492e-09
-4.75933e-10
6.909e-09
-4.63401e-10
7.05883e-09
-4.50796e-10
7.20442e-09
-4.38149e-10
7.34576e-09
-4.25488e-10
7.48286e-09
-4.12839e-10
7.61574e-09
-4.00229e-10
7.74441e-09
-3.87679e-10
7.86892e-09
-3.75214e-10
7.98929e-09
-3.62853e-10
8.10558e-09
-3.50615e-10
8.21783e-09
-3.38518e-10
8.3261e-09
-3.26577e-10
8.43045e-09
-3.14807e-10
8.53093e-09
-3.03219e-10
8.62763e-09
-2.91827e-10
8.7206e-09
-2.80639e-10
8.80992e-09
-2.69665e-10
8.89566e-09
-2.58912e-10
8.97791e-09
-2.48387e-10
9.05673e-09
-2.38096e-10
9.13222e-09
-2.28042e-10
9.20445e-09
-2.1823e-10
9.27351e-09
-2.08662e-10
9.33947e-09
-1.9934e-10
9.40242e-09
-1.90265e-10
9.46244e-09
-1.81438e-10
9.51962e-09
-1.72858e-10
9.57403e-09
-1.64525e-10
9.62576e-09
-1.56437e-10
9.6749e-09
-1.48592e-10
9.72151e-09
-1.4099e-10
9.76568e-09
-1.33626e-10
9.8075e-09
-1.26497e-10
9.84702e-09
-1.19602e-10
9.88434e-09
-1.12935e-10
9.91953e-09
-1.06494e-10
9.95265e-09
-1.00273e-10
9.98379e-09
-9.42701e-11
1.0013e-08
-8.84794e-11
1.00404e-08
-8.28965e-11
1.0066e-08
-7.75171e-11
1.00898e-08
-7.23361e-11
1.01121e-08
-6.7349e-11
1.01327e-08
-6.25506e-11
1.01518e-08
-5.7936e-11
1.01694e-08
-5.35002e-11
1.01857e-08
-4.92382e-11
1.02005e-08
-4.51451e-11
1.02141e-08
-4.12158e-11
1.02264e-08
-3.74452e-11
1.02376e-08
-3.38285e-11
1.02476e-08
-3.03608e-11
1.02564e-08
-2.70369e-11
1.02643e-08
-2.38524e-11
1.02711e-08
-2.08022e-11
1.02769e-08
-1.78817e-11
1.02818e-08
-1.50865e-11
1.02859e-08
-1.24117e-11
1.02891e-08
-9.85296e-12
1.02914e-08
-7.40596e-12
1.0293e-08
-5.06622e-12
1.02939e-08
-2.82971e-12
1.02941e-08
-6.92244e-13
1.02935e-08
1.35019e-12
1.02924e-08
3.30161e-12
1.02906e-08
5.16563e-12
1.02882e-08
6.94625e-12
1.02853e-08
8.6469e-12
1.02818e-08
1.02712e-11
1.02778e-08
1.18225e-11
1.02733e-08
1.33042e-11
1.02684e-08
1.47194e-11
1.0263e-08
1.60714e-11
1.02572e-08
1.7363e-11
1.02509e-08
1.85975e-11
1.02443e-08
1.97773e-11
1.02373e-08
2.09052e-11
1.023e-08
2.19841e-11
1.02223e-08
2.30164e-11
1.02143e-08
2.40043e-11
1.02059e-08
2.49505e-11
1.01973e-08
2.58572e-11
1.01883e-08
2.67264e-11
1.01791e-08
2.75602e-11
1.01697e-08
2.83609e-11
1.01599e-08
2.913e-11
1.015e-08
2.98696e-11
1.01398e-08
3.05814e-11
1.01293e-08
3.12673e-11
1.01187e-08
3.19284e-11
1.01078e-08
3.25669e-11
1.00967e-08
3.31836e-11
1.00855e-08
3.37804e-11
1.0074e-08
3.43585e-11
1.00624e-08
3.4919e-11
1.00505e-08
3.54635e-11
1.00385e-08
3.59929e-11
1.00264e-08
3.65082e-11
1.0014e-08
3.70108e-11
1.00015e-08
3.75015e-11
9.98885e-09
3.79814e-11
9.97603e-09
3.84511e-11
9.96305e-09
3.8912e-11
9.94993e-09
3.93645e-11
9.93666e-09
3.98099e-11
9.92324e-09
4.02485e-11
9.90967e-09
4.06814e-11
9.89597e-09
4.11094e-11
9.88212e-09
4.15333e-11
9.86814e-09
4.19539e-11
9.85401e-09
4.23719e-11
9.83975e-09
4.27885e-11
9.82534e-09
4.32044e-11
9.8108e-09
4.36206e-11
9.79612e-09
4.40388e-11
9.7813e-09
4.44599e-11
9.76634e-09
4.48858e-11
9.75124e-09
4.53183e-11
9.73599e-09
4.57597e-11
9.72058e-09
4.62131e-11
9.70503e-09
4.66819e-11
9.68931e-09
4.71705e-11
9.67342e-09
4.76847e-11
9.65734e-09
4.82313e-11
9.64108e-09
4.88193e-11
9.6246e-09
4.94602e-11
9.60789e-09
5.01687e-11
9.59092e-09
5.09637e-11
9.57365e-09
5.18697e-11
9.55603e-09
5.29189e-11
9.53802e-09
5.4153e-11
9.51952e-09
5.56275e-11
9.50043e-09
5.74157e-11
9.48063e-09
5.96165e-11
9.45994e-09
6.23635e-11
9.43812e-09
6.58404e-11
9.41485e-09
7.03043e-11
9.38972e-09
7.6122e-11
9.36211e-09
8.38302e-11
9.33118e-09
9.42408e-11
9.29572e-09
1.08634e-10
9.2539e-09
1.29134e-10
9.20292e-09
1.59504e-10
9.13835e-09
2.06974e-10
9.05344e-09
2.86812e-10
8.94152e-09
4.34258e-10
7.31932e-10
8.82616e-09
2.22549e-10
-8.77711e-10
4.46406e-10
-8.82938e-10
6.71359e-10
-8.87361e-10
8.97185e-10
-8.90944e-10
1.12365e-09
-8.93659e-10
1.35053e-09
-8.95482e-10
1.57756e-09
-8.96393e-10
1.80451e-09
-8.96375e-10
2.03114e-09
-8.95417e-10
2.25718e-09
-8.93511e-10
2.48239e-09
-8.90653e-10
2.70652e-09
-8.86846e-10
2.92933e-09
-8.82094e-10
3.15057e-09
-8.7641e-10
3.37e-09
-8.6981e-10
3.58739e-09
-8.62313e-10
3.80253e-09
-8.53944e-10
4.01519e-09
-8.44733e-10
4.22516e-09
-8.34712e-10
4.43226e-09
-8.23917e-10
4.63631e-09
-8.12388e-10
4.83712e-09
-8.00168e-10
5.03454e-09
-7.873e-10
5.22843e-09
-7.73832e-10
5.41865e-09
-7.5981e-10
5.60508e-09
-7.45283e-10
5.78762e-09
-7.30301e-10
5.96617e-09
-7.14913e-10
6.14065e-09
-6.99168e-10
6.31099e-09
-6.83114e-10
6.47714e-09
-6.668e-10
6.63905e-09
-6.50271e-10
6.79669e-09
-6.33573e-10
6.95004e-09
-6.16749e-10
7.09908e-09
-5.9984e-10
7.24382e-09
-5.82887e-10
7.38426e-09
-5.65926e-10
7.52041e-09
-5.48994e-10
7.6523e-09
-5.32123e-10
7.77997e-09
-5.15345e-10
7.90344e-09
-4.98688e-10
8.02277e-09
-4.82179e-10
8.138e-09
-4.65843e-10
8.24918e-09
-4.49702e-10
8.35638e-09
-4.33776e-10
8.45966e-09
-4.18085e-10
8.55908e-09
-4.02643e-10
8.65472e-09
-3.87466e-10
8.74665e-09
-3.72568e-10
8.83494e-09
-3.57958e-10
8.91968e-09
-3.43647e-10
9.00093e-09
-3.29643e-10
9.07879e-09
-3.15954e-10
9.15333e-09
-3.02583e-10
9.22464e-09
-2.89536e-10
9.29279e-09
-2.76817e-10
9.35788e-09
-2.64427e-10
9.41998e-09
-2.52367e-10
9.47918e-09
-2.40638e-10
9.53556e-09
-2.29239e-10
9.58921e-09
-2.1817e-10
9.6402e-09
-2.07428e-10
9.68862e-09
-1.9701e-10
9.73454e-09
-1.86914e-10
9.77805e-09
-1.77136e-10
9.81923e-09
-1.67672e-10
9.85814e-09
-1.58518e-10
9.89488e-09
-1.49668e-10
9.9295e-09
-1.41118e-10
9.96209e-09
-1.32862e-10
9.99271e-09
-1.24894e-10
1.00214e-08
-1.17208e-10
1.00483e-08
-1.09799e-10
1.00735e-08
-1.0266e-10
1.00969e-08
-9.57846e-11
1.01188e-08
-8.91664e-11
1.0139e-08
-8.27991e-11
1.01577e-08
-7.66756e-11
1.0175e-08
-7.07897e-11
1.01909e-08
-6.51343e-11
1.02055e-08
-5.97032e-11
1.02188e-08
-5.44893e-11
1.02308e-08
-4.94861e-11
1.02417e-08
-4.46872e-11
1.02514e-08
-4.00856e-11
1.026e-08
-3.56754e-11
1.02676e-08
-3.14496e-11
1.02742e-08
-2.74024e-11
1.02799e-08
-2.3527e-11
1.02846e-08
-1.98177e-11
1.02885e-08
-1.62683e-11
1.02915e-08
-1.28729e-11
1.02937e-08
-9.62555e-12
1.02951e-08
-6.52056e-12
1.02959e-08
-3.55257e-12
1.02959e-08
-7.15838e-13
1.02952e-08
1.99496e-12
1.0294e-08
4.58491e-12
1.02921e-08
7.05899e-12
1.02896e-08
9.4225e-12
1.02866e-08
1.16798e-11
1.0283e-08
1.3836e-11
1.02789e-08
1.58954e-11
1.02744e-08
1.78624e-11
1.02693e-08
1.97414e-11
1.02639e-08
2.15364e-11
1.0258e-08
2.32515e-11
1.02517e-08
2.48905e-11
1.0245e-08
2.64573e-11
1.0238e-08
2.79553e-11
1.02306e-08
2.93881e-11
1.02228e-08
3.07592e-11
1.02148e-08
3.20717e-11
1.02064e-08
3.33285e-11
1.01977e-08
3.4533e-11
1.01887e-08
3.56879e-11
1.01795e-08
3.67959e-11
1.017e-08
3.78597e-11
1.01602e-08
3.8882e-11
1.01503e-08
3.9865e-11
1.014e-08
4.08111e-11
1.01296e-08
4.17229e-11
1.01189e-08
4.26019e-11
1.0108e-08
4.34507e-11
1.00969e-08
4.42709e-11
1.00856e-08
4.50645e-11
1.00742e-08
4.58335e-11
1.00625e-08
4.65791e-11
1.00507e-08
4.73034e-11
1.00387e-08
4.80076e-11
1.00265e-08
4.86935e-11
1.00141e-08
4.93621e-11
1.00016e-08
5.00152e-11
9.98893e-09
5.06539e-11
9.9761e-09
5.12792e-11
9.96312e-09