/*--------------------------------*- C++ -*----------------------------------*\
  =========                 |
  \\      /  F ield         | OpenFOAM: The Open Source CFD Toolbox
   \\    /   O peration     | Website:  https://openfoam.org
    \\  /    A nd           | Version:  10
     \\/     M anipulation  |
\*---------------------------------------------------------------------------*/
FoamFile
{
    format      ascii;
    class       volVectorField;
    location    "0.48";
    object      Ub;
}
// * * * * * * * * * * * * * * * * * * * * * * * * * * * * * * * * * * * * * //

dimensions      [0 1 -1 0 0 0 0];

internalField   nonuniform List<vector> 
12225
(
(0.00193284 -0.000397913 0)
(0.00550373 -0.000352396 0)
(0.00841397 -0.000286921 0)
(0.0106173 -0.000221093 0)
(0.0122049 -0.000164991 0)
(0.0133141 -0.000121466 0)
(0.0140776 -8.97318e-05 0)
(0.0146038 -6.78075e-05 0)
(0.0149753 -5.37313e-05 0)
(0.0152542 -4.6046e-05 0)
(0.0154882 -4.39855e-05 0)
(0.0157175 -4.7644e-05 0)
(0.015982 -5.83907e-05 0)
(0.0163322 -8.00374e-05 0)
(0.0168505 -0.000122395 0)
(0.0177129 -0.0002142 0)
(0.0194333 -0.0004653 0)
(0.0242594 -0.00148703 0)
(0.00214465 -0.00126524 0)
(0.00610204 -0.00111889 0)
(0.00931962 -0.000909415 0)
(0.0117525 -0.000699597 0)
(0.0135073 -0.000521322 0)
(0.014739 -0.000383326 0)
(0.0155942 -0.000282846 0)
(0.0161914 -0.000213419 0)
(0.0166196 -0.000168707 0)
(0.0169446 -0.000143999 0)
(0.0172161 -0.000136765 0)
(0.0174747 -0.000147137 0)
(0.0177598 -0.000179116 0)
(0.0181191 -0.000243931 0)
(0.0186262 -0.00036992 0)
(0.019421 -0.000635723 0)
(0.0207862 -0.00130623 0)
(0.0229025 -0.00352938 0)
(0.00227053 -0.00226663 0)
(0.00644726 -0.00199907 0)
(0.00981724 -0.00161919 0)
(0.0123415 -0.00124112 0)
(0.0141437 -0.000921599 0)
(0.0153952 -0.000675302 0)
(0.016254 -0.000496464 0)
(0.0168451 -0.000372995 0)
(0.0172615 -0.000293241 0)
(0.0175705 -0.000248561 0)
(0.0178218 -0.000234182 0)
(0.0180556 -0.00024991 0)
(0.0183085 -0.000301929 0)
(0.018622 -0.000407759 0)
(0.019052 -0.000609878 0)
(0.0196772 -0.00101559 0)
(0.0205524 -0.00192155 0)
(0.021206 -0.00417608 0)
(0.00239296 -0.00339891 0)
(0.00677622 -0.00298624 0)
(0.0102753 -0.0024064 0)
(0.0128617 -0.00183441 0)
(0.0146823 -0.00135464 0)
(0.0159277 -0.000987044 0)
(0.0167682 -0.000721289 0)
(0.0173359 -0.000538218 0)
(0.0177265 -0.000419795 0)
(0.0180081 -0.000352699 0)
(0.0182301 -0.000329368 0)
(0.0184307 -0.000348733 0)
(0.0186426 -0.000418227 0)
(0.0188981 -0.00055925 0)
(0.0192304 -0.000820831 0)
(0.019659 -0.00131267 0)
(0.0201006 -0.00227621 0)
(0.0200191 -0.00415044 0)
(0.00252974 -0.00467892 0)
(0.00713723 -0.00408999 0)
(0.010763 -0.00327336 0)
(0.0133961 -0.00247724 0)
(0.0152148 -0.00181614 0)
(0.0164346 -0.00131369 0)
(0.0172406 -0.000952631 0)
(0.0177715 -0.00070482 0)
(0.0181257 -0.000544517 0)
(0.0183714 -0.000452836 0)
(0.0185568 -0.000418741 0)
(0.0187171 -0.00043951 0)
(0.0188799 -0.000522452 0)
(0.0190669 -0.000689617 0)
(0.0192894 -0.000988257 0)
(0.0195236 -0.00150997 0)
(0.0196322 -0.00240931 0)
(0.0191977 -0.00383145 0)
(0.00269321 -0.00613349 0)
(0.00756153 -0.00532589 0)
(0.0113202 -0.00422475 0)
(0.0139864 -0.00316762 0)
(0.0157827 -0.00230119 0)
(0.0169568 -0.00164957 0)
(0.0177108 -0.00118503 0)
(0.018191 -0.000867856 0)
(0.0184979 -0.000662951 0)
(0.018699 -0.000544802 0)
(0.0188402 -0.000498071 0)
(0.0189532 -0.000517435 0)
(0.0190595 -0.000608429 0)
(0.0191706 -0.000790394 0)
(0.0192805 -0.00110199 0)
(0.019342 -0.00160629 0)
(0.0192176 -0.00237696 0)
(0.0186305 -0.00339965 0)
(0.00289688 -0.00780094 0)
(0.00808128 -0.00671492 0)
(0.0119838 -0.0052657 0)
(0.0146671 -0.00390177 0)
(0.016416 -0.0028025 0)
(0.0175199 -0.00198678 0)
(0.0182018 -0.00141116 0)
(0.0186157 -0.00102088 0)
(0.0188631 -0.000769409 0)
(0.0190099 -0.000623377 0)
(0.019099 -0.000562218 0)
(0.0191576 -0.000576959 0)
(0.0192014 -0.000669731 0)
(0.0192331 -0.000854368 0)
(0.0192356 -0.00115693 0)
(0.0191556 -0.00161091 0)
(0.018881 -0.0022314 0)
(0.0182471 -0.00293864 0)
(0.00315869 -0.00973559 0)
(0.00873712 -0.0082842 0)
(0.0127966 -0.00640039 0)
(0.0154738 -0.00467219 0)
(0.0171421 -0.00330875 0)
(0.0181453 -0.002314 0)
(0.0187306 -0.00162101 0)
(0.0190595 -0.00115535 0)
(0.0192335 -0.000856587 0)
(0.0193155 -0.000682072 0)
(0.0193441 -0.000605056 0)
(0.0193419 -0.000611935 0)
(0.0193187 -0.000700096 0)
(0.0192712 -0.00087613 0)
(0.0191774 -0.00115255 0)
(0.0189887 -0.00153825 0)
(0.0186253 -0.00201392 0)
(0.0179997 -0.0024868 0)
(0.00350472 -0.0120157 0)
(0.0095856 -0.010068 0)
(0.0138133 -0.00762954 0)
(0.0164478 -0.00546478 0)
(0.0179895 -0.00380241 0)
(0.0188523 -0.00261497 0)
(0.0193108 -0.00180091 0)
(0.0195329 -0.00126009 0)
(0.0196178 -0.000915221 0)
(0.0196234 -0.000712943 0)
(0.0195832 -0.00061946 0)
(0.0195143 -0.000615772 0)
(0.0194216 -0.000693715 0)
(0.019298 -0.000852157 0)
(0.0191214 -0.00109155 0)
(0.0188534 -0.00140372 0)
(0.0184434 -0.00175413 0)
(0.0178519 -0.00206081 0)
(0.00397546 -0.0147573 0)
(0.0107102 -0.0121082 0)
(0.0151078 -0.00894573 0)
(0.0176392 -0.00625422 0)
(0.0189889 -0.00425653 0)
(0.0196593 -0.00286663 0)
(0.0199541 -0.00193246 0)
(0.0200438 -0.00132063 0)
(0.0200218 -0.000933755 0)
(0.0199389 -0.000706471 0)
(0.0198214 -0.000597332 0)
(0.0196809 -0.000581579 0)
(0.0195179 -0.000645364 0)
(0.0193232 -0.000780495 0)
(0.0190776 -0.000978263 0)
(0.0187538 -0.00122092 0)
(0.0183234 -0.00147116 0)
(0.017774 -0.00166551 0)
(0.0046371 -0.0181384 0)
(0.0122401 -0.0144528 0)
(0.0167835 -0.010324 0)
(0.0191104 -0.00699645 0)
(0.0201735 -0.00463021 0)
(0.0205833 -0.00303663 0)
(0.0206689 -0.00199125 0)
(0.0205966 -0.0013186 0)
(0.0204487 -0.000898096 0)
(0.0202647 -0.000651512 0)
(0.0200622 -0.000529681 0)
(0.0198462 -0.000502289 0)
(0.0196133 -0.000550376 0)
(0.0193534 -0.000660183 0)
(0.019051 -0.000817227 0)
(0.0186882 -0.00100014 0)
(0.0182516 -0.00117554 0)
(0.0177414 -0.00129826 0)
(0.00553654 -0.0220322 0)
(0.0142376 -0.0169115 0)
(0.0188419 -0.0115999 0)
(0.0208233 -0.00758059 0)
(0.0214953 -0.00485701 0)
(0.021581 -0.00308773 0)
(0.0214214 -0.00195772 0)
(0.0211673 -0.0012448 0)
(0.0208826 -0.000805221 0)
(0.0205922 -0.000548969 0)
(0.0203033 -0.000420378 0)
(0.0200139 -0.00038476 0)
(0.0197168 -0.000419418 0)
(0.0194011 -0.0005071 0)
(0.019054 -0.000630713 0)
(0.018664 -0.00076906 0)
(0.0182251 -0.000894796 0)
(0.0177421 -0.000976837 0)
(0.00678999 -0.0270598 0)
(0.0168884 -0.0196494 0)
(0.0213725 -0.0127507 0)
(0.022792 -0.00794599 0)
(0.0229323 -0.00488208 0)
(0.0226169 -0.00297762 0)
(0.0221728 -0.00179985 0)
(0.0217175 -0.00107449 0)
(0.021287 -0.000635307 0)
(0.0208872 -0.000382494 0)
(0.0205127 -0.000255722 0)
(0.0201535 -0.000217204 0)
(0.0197976 -0.000242175 0)
(0.0194331 -0.000312037 0)
(0.0190493 -0.000409555 0)
(0.0186388 -0.000515908 0)
(0.0181999 -0.000610041 0)
(0.0177377 -0.000671084 0)
(0.00904617 -0.0349574 0)
(0.0213563 -0.0230272 0)
(0.0252119 -0.0136845 0)
(0.0255374 -0.00793157 0)
(0.0248149 -0.00456651 0)
(0.0239138 -0.00259892 0)
(0.0230827 -0.00143493 0)
(0.0223675 -0.000742107 0)
(0.021757 -0.000334945 0)
(0.0212278 -0.000106955 0)
(0.0207552 4.69797e-06 0)
(0.0203172 3.82019e-05 0)
(0.019897 1.78532e-05 0)
(0.0194814 -3.84737e-05 0)
(0.0190608 -0.000115363 0)
(0.0186299 -0.000197956 0)
(0.0181882 -0.000271787 0)
(0.0177395 -0.000324171 0)
(0.0136499 -0.0488232 0)
(0.0296352 -0.0264828 0)
(0.0312301 -0.0135302 0)
(0.0293385 -0.00694556 0)
(0.027206 -0.00355118 0)
(0.0254674 -0.00173152 0)
(0.0241312 -0.000722135 0)
(0.0231008 -0.000154187 0)
(0.0222838 0.000163021 0)
(0.0216077 0.000330474 0)
(0.0210234 0.000404237 0)
(0.0204987 0.000417425 0)
(0.0200107 0.000390689 0)
(0.0195432 0.000338675 0)
(0.0190856 0.000272936 0)
(0.0186321 0.00020317 0)
(0.0181814 0.000137347 0)
(0.0177348 8.12366e-05 0)
(0.0248378 -0.077707 0)
(0.0470838 -0.0259467 0)
(0.0406843 -0.00972555 0)
(0.0342581 -0.00375692 0)
(0.0299504 -0.00123906 0)
(0.0271398 -6.37992e-05 0)
(0.0252313 0.00052154 0)
(0.0238585 0.000812388 0)
(0.0228148 0.000948141 0)
(0.0219813 0.00099735 0)
(0.0212842 0.000995404 0)
(0.0206757 0.000962685 0)
(0.0201237 0.000911524 0)
(0.0196073 0.000849943 0)
(0.0191131 0.000783453 0)
(0.0186328 0.000715682 0)
(0.0181621 0.000648273 0)
(0.0176987 0.000580368 0)
(0.0594749 0.00222731 0)
(0.0911032 0.00450434 0)
(0.0534017 0.00398667 0)
(0.0391259 0.00344947 0)
(0.0323259 0.00304091 0)
(0.0284932 0.00272508 0)
(0.0260709 0.00247683 0)
(0.0244098 0.00227174 0)
(0.0231919 0.00209794 0)
(0.022245 0.00194911 0)
(0.0214688 0.00182074 0)
(0.0208018 0.00170934 0)
(0.0202049 0.00161199 0)
(0.0196525 0.00152615 0)
(0.0191276 0.00144938 0)
(0.0186185 0.00137906 0)
(0.0181159 0.00131199 0)
(0.0176093 0.00124407 0)
(0.0204871 0.0776647 0)
(0.0405275 0.0333392 0)
(0.0374439 0.0177862 0)
(0.0326852 0.01113 0)
(0.0290827 0.00779135 0)
(0.0265725 0.00590276 0)
(0.0248038 0.00473676 0)
(0.0235107 0.00396947 0)
(0.0225214 0.00344096 0)
(0.0217273 0.00306539 0)
(0.0210588 0.00279312 0)
(0.0204705 0.00259345 0)
(0.0199321 0.00244612 0)
(0.019423 0.00233687 0)
(0.0189288 0.00225491 0)
(0.0184392 0.00219152 0)
(0.0179457 0.00213905 0)
(0.0174391 0.00209032 0)
(0.00786817 0.0418185 0)
(0.0188379 0.0291507 0)
(0.0227616 0.019835 0)
(0.0235657 0.0139453 0)
(0.023275 0.0102557 0)
(0.0226852 0.0078873 0)
(0.0220707 0.00632088 0)
(0.0215098 0.00525766 0)
(0.0210116 0.00452283 0)
(0.0205645 0.0040107 0)
(0.020152 0.00365491 0)
(0.0197587 0.00341197 0)
(0.019372 0.00325208 0)
(0.0189813 0.00315388 0)
(0.0185777 0.00310126 0)
(0.018153 0.00308136 0)
(0.0176976 0.00308287 0)
(0.0171969 0.00309349 0)
(0.00433686 0.0257426 0)
(0.0113927 0.0213965 0)
(0.015581 0.0167835 0)
(0.0177876 0.0130208 0)
(0.0188734 0.0102101 0)
(0.0193714 0.00817596 0)
(0.0195682 0.0067194 0)
(0.0196086 0.00568128 0)
(0.0195635 0.00494651 0)
(0.0194657 0.00443442 0)
(0.0193297 0.00408862 0)
(0.0191603 0.00386898 0)
(0.0189578 0.00374616 0)
(0.0187204 0.00369795 0)
(0.0184445 0.00370718 0)
(0.0181246 0.00376054 0)
(0.0177486 0.00384776 0)
(0.0172871 0.00395847 0)
(0.00302076 0.0182957 0)
(0.00829286 0.0161698 0)
(0.0120525 0.0135235 0)
(0.0145277 0.0110684 0)
(0.0161076 0.00904582 0)
(0.0171118 0.00747245 0)
(0.017755 0.00628706 0)
(0.0181698 0.0054146 0)
(0.0184352 0.00478861 0)
(0.0185968 0.0043563 0)
(0.0186799 0.00407732 0)
(0.018698 0.0039208 0)
(0.018657 0.00386231 0)
(0.0185592 0.00388131 0)
(0.0184052 0.00395927 0)
(0.018195 0.004079 0)
(0.0179235 0.004226 0)
(0.0175535 0.00439045 0)
(0.00236778 0.0135526 0)
(0.00665467 0.0123465 0)
(0.010007 0.0107103 0)
(0.0124709 0.00906959 0)
(0.0142349 0.00762957 0)
(0.015493 0.00645369 0)
(0.0163981 0.00553677 0)
(0.0170582 0.00484833 0)
(0.0175457 0.00435322 0)
(0.017907 0.00401992 0)
(0.0181704 0.00382256 0)
(0.0183515 0.00374035 0)
(0.0184565 0.00375564 0)
(0.0184851 0.0038511 0)
(0.0184328 0.0040057 0)
(0.018296 0.00418774 0)
(0.0180785 0.00434105 0)
(0.0177695 0.00434947 0)
(0.00199676 0.0102076 0)
(0.00568806 0.00945928 0)
(0.00872974 0.00839145 0)
(0.0111124 0.00726707 0)
(0.0129345 0.00623859 0)
(0.0143199 0.00537131 0)
(0.0153796 0.00467996 0)
(0.0162004 0.00415575 0)
(0.0168458 0.00378192 0)
(0.0173597 0.00354145 0)
(0.0177708 0.00342007 0)
(0.0180948 0.0034068 0)
(0.0183362 0.00349293 0)
(0.0184873 0.00366996 0)
(0.0185232 0.00392592 0)
(0.0183868 0.0042375 0)
(0.0179479 0.00454152 0)
(0.0167859 0.00458714 0)
(0.00176438 0.00769643 0)
(0.00506778 0.00720787 0)
(0.00787866 0.0064876 0)
(0.0101702 0.00570478 0)
(0.0119974 0.00496894 0)
(0.0134446 0.00433524 0)
(0.0145956 0.00382337 0)
(0.0155217 0.00343435 0)
(0.016279 0.00316172 0)
(0.016909 0.00299779 0)
(0.0174405 0.00293684 0)
(0.0178908 0.00297629 0)
(0.0182661 0.00311666 0)
(0.0185597 0.00336083 0)
(0.0187468 0.00371398 0)
(0.0187613 0.00418793 0)
(0.0183882 0.00479569 0)
(0.0160309 0.00505922 0)
(0.00160712 0.00573506 0)
(0.00464079 0.00540855 0)
(0.00727633 0.00491612 0)
(0.00948214 0.00436947 0)
(0.0112908 0.00384628 0)
(0.0127634 0.00338964 0)
(0.0139664 0.00301819 0)
(0.0149604 0.00273678 0)
(0.0157958 0.00254432 0)
(0.0165125 0.00243873 0)
(0.01714 0.00241995 0)
(0.0176983 0.0024915 0)
(0.0181971 0.00266085 0)
(0.0186351 0.00293772 0)
(0.0190035 0.00332931 0)
(0.0192939 0.00383277 0)
(0.0193805 0.00442119 0)
(0.0110585 0.00345833 0)
(0.00149282 0.00416357 0)
(0.00432623 0.00394553 0)
(0.00682237 0.00361105 0)
(0.00894912 0.00323435 0)
(0.0107269 0.00286954 0)
(0.0122028 0.00254856 0)
(0.0134319 0.00228681 0)
(0.0144672 0.00208995 0)
(0.015355 0.00195935 0)
(0.0161341 0.00189592 0)
(0.0168353 0.00190279 0)
(0.0174814 0.00198728 0)
(0.0180854 0.00216216 0)
(0.018644 0.00244315 0)
(0.0191326 0.00283304 0)
(0.0195215 0.00325278 0)
(0.019617 0.00329988 0)
(0.009804 0.000897643 0)
(0.00140283 0.00288421 0)
(0.00407554 0.00274272 0)
(0.0064529 0.00252267 0)
(0.00850376 0.00227237 0)
(0.0102417 0.00202817 0)
(0.011705 0.00181245 0)
(0.0129411 0.00163676 0)
(0.0139975 0.0015061 0)
(0.0149174 0.00142263 0)
(0.0157388 0.00138844 0)
(0.0164936 0.00140788 0)
(0.0172085 0.00148998 0)
(0.0179011 0.00165148 0)
(0.0185661 0.00191992 0)
(0.0191279 0.00232652 0)
(0.0192979 0.00281923 0)
(0.0176542 0.0026713 0)
(0.00804317 1.15174e-05 0)
(0.00132346 0.0018339 0)
(0.00385175 0.00174852 0)
(0.00611607 0.00161413 0)
(0.00808681 0.0014602 0)
(0.0097736 0.00130942 0)
(0.011209 0.00117617 0)
(0.012435 0.00106821 0)
(0.0134951 0.000989265 0)
(0.0144301 0.000941342 0)
(0.0152767 0.000926609 0)
(0.016068 0.000949162 0)
(0.0168342 0.00101743 0)
(0.0176017 0.00114884 0)
(0.0183816 0.00138149 0)
(0.0191064 0.00180246 0)
(0.0193097 0.00258233 0)
(0.0154876 0.00315631 0)
(0.00589771 1.90208e-07 0)
(0.00123597 0.000972308 0)
(0.00360201 0.000928928 0)
(0.00573192 0.000859824 0)
(0.00759808 0.000780308 0)
(0.00920798 0.000702345 0)
(0.0105903 0.000633675 0)
(0.0117831 0.000578644 0)
(0.0128266 0.000539519 0)
(0.0137592 0.000517719 0)
(0.0146162 0.000514863 0)
(0.0154307 0.000533856 0)
(0.0162354 0.000580602 0)
(0.0170656 0.000668171 0)
(0.0179626 0.000830455 0)
(0.0189608 0.00117309 0)
(0.0198213 0.00207027 0)
(0.013294 0.00327609 0)
(0.00321678 3.12639e-12 0)
(0.00102086 0.000292404 0)
(0.00297695 0.000279728 0)
(0.00474059 0.000259334 0)
(0.00628778 0.000235802 0)
(0.00762533 0.000212752 0)
(0.00877935 0.000192556 0)
(0.00978533 0.000176588 0)
(0.0106817 0.000165611 0)
(0.0115066 0.000160155 0)
(0.0122969 0.000160845 0)
(0.0130887 0.000168756 0)
(0.01392 0.000186011 0)
(0.0148353 0.000217415 0)
(0.015901 0.00027635 0)
(0.0172559 0.000410799 0)
(0.0191752 0.000834267 0)
(0.0108599 0.0014841 0)
(0.000699676 -1.07822e-14 0)
(5.46503e-34 -1.32977e-33 -1.71804e-59)
(1.644e-33 -1.32823e-33 1.71475e-59)
(2.74854e-33 -1.32563e-33 0)
(3.85915e-33 -1.32195e-33 0)
(4.97483e-33 -1.3172e-33 0)
(6.09452e-33 -1.31135e-33 -1.68769e-59)
(7.21717e-33 -1.30442e-33 0)
(8.34166e-33 -1.2964e-33 0)
(9.46689e-33 -1.2873e-33 0)
(1.05917e-32 -1.27714e-33 0)
(1.1715e-32 -1.26594e-33 1.62236e-59)
(1.28356e-32 -1.25372e-33 0)
(1.39523e-32 -1.2405e-33 0)
(1.50641e-32 -1.22633e-33 0)
(1.61697e-32 -1.21125e-33 0)
(1.72681e-32 -1.19529e-33 1.52449e-59)
(1.83581e-32 -1.1785e-33 0)
(1.94388e-32 -1.16093e-33 0)
(2.0509e-32 -1.14264e-33 0)
(2.15678e-32 -1.12369e-33 0)
(2.26141e-32 -1.10412e-33 0)
(2.36472e-32 -1.08401e-33 0)
(2.4666e-32 -1.06341e-33 0)
(2.56699e-32 -1.04238e-33 1.31694e-59)
(2.6658e-32 -1.02099e-33 -1.28814e-59)
(2.76296e-32 -9.99307e-34 1.25896e-59)
(2.85842e-32 -9.77379e-34 1.22949e-59)
(2.9521e-32 -9.55273e-34 0)
(3.04396e-32 -9.33047e-34 0)
(3.13395e-32 -9.10757e-34 -1.14013e-59)
(3.22202e-32 -8.88458e-34 -1.11027e-59)
(3.30815e-32 -8.66202e-34 0)
(3.3923e-32 -8.44038e-34 0)
(3.47445e-32 -8.22013e-34 -1.02141e-59)
(3.55458e-32 -8.0017e-34 0)
(3.63267e-32 -7.78549e-34 0)
(3.70872e-32 -7.57188e-34 9.34862e-60)
(3.78272e-32 -7.36121e-34 0)
(3.85467e-32 -7.15378e-34 8.79101e-60)
(3.92458e-32 -6.94988e-34 1.70385e-59)
(3.99246e-32 -6.74976e-34 0)
(4.05831e-32 -6.55364e-34 0)
(4.12215e-32 -6.3617e-34 0)
(4.18401e-32 -6.17411e-34 0)
(4.2439e-32 -5.99101e-34 0)
(4.30185e-32 -5.81252e-34 1.40094e-59)
(4.35788e-32 -5.63872e-34 1.35469e-59)
(4.41202e-32 -5.46968e-34 1.30971e-59)
(4.46432e-32 -5.30546e-34 0)
(4.51478e-32 -5.14608e-34 -1.22364e-59)
(4.56346e-32 -4.99157e-34 0)
(4.61039e-32 -4.84191e-34 1.14276e-59)
(4.65561e-32 -4.69709e-34 1.10425e-59)
(4.69914e-32 -4.55709e-34 0)
(4.74103e-32 -4.42186e-34 0)
(4.78133e-32 -4.29135e-34 0)
(4.82007e-32 -4.1655e-34 9.6296e-60)
(4.85728e-32 -4.04425e-34 0)
(4.89302e-32 -3.92751e-34 0)
(4.92731e-32 -3.8152e-34 0)
(4.96021e-32 -3.70723e-34 0)
(4.99175e-32 -3.60352e-34 0)
(5.02197e-32 -3.50395e-34 0)
(5.05092e-32 -3.40845e-34 0)
(5.07862e-32 -3.31689e-34 0)
(5.10513e-32 -3.22917e-34 -7.14193e-60)
(5.13048e-32 -3.14519e-34 0)
(5.1547e-32 -3.06485e-34 0)
(5.17785e-32 -2.98802e-34 6.5014e-60)
(5.19994e-32 -2.9146e-34 6.30639e-60)
(5.22103e-32 -2.84449e-34 0)
(5.24115e-32 -2.77758e-34 -5.94247e-60)
(5.26032e-32 -2.71375e-34 5.77294e-60)
(5.27859e-32 -2.6529e-34 0)
(5.296e-32 -2.59493e-34 -5.45738e-60)
(5.31256e-32 -2.53973e-34 0)
(5.32833e-32 -2.4872e-34 0)
(5.34332e-32 -2.43724e-34 5.03861e-60)
(5.35756e-32 -2.38975e-34 0)
(5.3711e-32 -2.34464e-34 -4.79267e-60)
(5.38395e-32 -2.3018e-34 0)
(5.39615e-32 -2.26115e-34 4.57094e-60)
(5.40772e-32 -2.2226e-34 4.46856e-60)
(5.41868e-32 -2.18606e-34 4.37152e-60)
(5.42908e-32 -2.15144e-34 8.55917e-60)
(5.43892e-32 -2.11867e-34 -8.38505e-60)
(5.44824e-32 -2.08765e-34 0)
(5.45706e-32 -2.05832e-34 0)
(5.4654e-32 -2.03059e-34 0)
(5.47328e-32 -2.0044e-34 -7.7781e-60)
(5.48072e-32 -1.97967e-34 -7.64671e-60)
(5.48775e-32 -1.95633e-34 7.52275e-60)
(5.49438e-32 -1.93432e-34 0)
(5.50063e-32 -1.91357e-34 -7.29563e-60)
(5.50653e-32 -1.89403e-34 -7.19178e-60)
(5.51209e-32 -1.87563e-34 -7.09403e-60)
(5.51732e-32 -1.85831e-34 0)
(5.52224e-32 -1.84203e-34 0)
(5.52687e-32 -1.82673e-34 0)
(5.53122e-32 -1.81235e-34 -6.75785e-60)
(5.53531e-32 -1.79885e-34 0)
(5.53915e-32 -1.78619e-34 0)
(5.54275e-32 -1.77431e-34 6.55578e-60)
(5.54613e-32 -1.76318e-34 0)
(5.5493e-32 -1.75276e-34 0)
(5.55227e-32 -1.743e-34 6.3894e-60)
(5.55505e-32 -1.73387e-34 0)
(5.55765e-32 -1.72534e-34 0)
(5.56009e-32 -1.71736e-34 -6.25317e-60)
(5.56236e-32 -1.70992e-34 -6.21359e-60)
(5.56448e-32 -1.70297e-34 0)
(5.56647e-32 -1.69648e-34 6.1422e-60)
(5.56832e-32 -1.69044e-34 0)
(5.57004e-32 -1.68481e-34 -6.08019e-60)
(5.57165e-32 -1.67957e-34 0)
(5.57315e-32 -1.6747e-34 -6.02642e-60)
(5.57454e-32 -1.67017e-34 -6.00236e-60)
(5.57584e-32 -1.66596e-34 0)
(5.57704e-32 -1.66205e-34 0)
(5.57816e-32 -1.65842e-34 0)
(5.5792e-32 -1.65505e-34 0)
(5.58017e-32 -1.65193e-34 0)
(5.58106e-32 -1.64904e-34 0)
(5.58189e-32 -1.64637e-34 0)
(5.58266e-32 -1.64389e-34 -5.86267e-60)
(5.58337e-32 -1.64161e-34 5.85054e-60)
(5.58402e-32 -1.63949e-34 0)
(5.58463e-32 -1.63754e-34 0)
(5.58519e-32 -1.63574e-34 0)
(5.58571e-32 -1.63408e-34 0)
(5.58618e-32 -1.63255e-34 1.16048e-59)
(5.58662e-32 -1.63115e-34 0)
(5.58702e-32 -1.62985e-34 -1.1576e-59)
(5.5874e-32 -1.62865e-34 1.15633e-59)
(5.58774e-32 -1.62755e-34 0)
(5.58805e-32 -1.62654e-34 0)
(5.58834e-32 -1.62561e-34 0)
(5.5886e-32 -1.62476e-34 -1.15219e-59)
(5.58884e-32 -1.62397e-34 -1.15135e-59)
(5.58906e-32 -1.62324e-34 0)
(5.58926e-32 -1.62257e-34 -1.14986e-59)
(5.58944e-32 -1.62195e-34 -1.1492e-59)
(5.58961e-32 -1.62137e-34 1.14859e-59)
(5.58976e-32 -1.62083e-34 0)
(5.58989e-32 -1.62032e-34 0)
(5.59001e-32 -1.61983e-34 1.14696e-59)
(5.59011e-32 -1.61937e-34 0)
(5.5902e-32 -1.61892e-34 0)
(5.59027e-32 -1.61847e-34 0)
(5.59033e-32 -1.61801e-34 0)
(5.59038e-32 -1.61754e-34 -1.14456e-59)
(5.59041e-32 -1.61704e-34 -1.14403e-59)
(5.59042e-32 -1.61649e-34 0)
(5.59041e-32 -1.61588e-34 -1.14284e-59)
(5.59038e-32 -1.61518e-34 0)
(5.59032e-32 -1.61437e-34 0)
(5.59023e-32 -1.61341e-34 -1.1403e-59)
(5.5901e-32 -1.61225e-34 0)
(5.58992e-32 -1.61084e-34 -1.13767e-59)
(5.58968e-32 -1.6091e-34 0)
(5.58937e-32 -1.60695e-34 0)
(5.58896e-32 -1.60425e-34 -1.13095e-59)
(5.58844e-32 -1.60086e-34 0)
(5.58776e-32 -1.59657e-34 -1.12312e-59)
(5.58688e-32 -1.59111e-34 0)
(5.58576e-32 -1.58415e-34 0)
(5.58431e-32 -1.57519e-34 0)
(5.58244e-32 -1.56362e-34 1.08955e-59)
(5.58001e-32 -1.54854e-34 0)
(5.57686e-32 -1.52876e-34 -1.05403e-59)
(5.57273e-32 -1.50251e-34 0)
(5.56729e-32 -1.46722e-34 0)
(5.56005e-32 -1.41897e-34 0)
(5.55031e-32 -1.35147e-34 0)
(5.53695e-32 -1.25396e-34 0)
(5.5182e-32 -1.10652e-34 0)
(5.49088e-32 -8.67484e-35 0)
(5.44853e-32 -4.33538e-35 -1.32554e-60)
(5.3749e-32 5.26555e-35 0)
(5.21171e-32 3.537e-34 0)
(5.48706e-34 -3.67073e-33 4.74235e-59)
(1.65062e-33 -3.66608e-33 -4.73243e-59)
(2.75957e-33 -3.65823e-33 0)
(3.87457e-33 -3.64715e-33 9.40936e-59)
(4.99461e-33 -3.6328e-33 0)
(6.1186e-33 -3.61517e-33 -4.66527e-59)
(7.24547e-33 -3.59425e-33 -9.25669e-59)
(8.3741e-33 -3.57005e-33 -9.18881e-59)
(9.50334e-33 -3.54261e-33 0)
(1.06321e-32 -3.51196e-33 -9.02798e-59)
(1.17591e-32 -3.47816e-33 4.48154e-59)
(1.28832e-32 -3.4413e-33 0)
(1.40034e-32 -3.40145e-33 0)
(1.51183e-32 -3.35873e-33 0)
(1.62269e-32 -3.31324e-33 0)
(1.7328e-32 -3.26513e-33 4.19962e-59)
(1.84206e-32 -3.21453e-33 0)
(1.95036e-32 -3.16159e-33 8.08041e-59)
(2.05758e-32 -3.10648e-33 0)
(2.16364e-32 -3.04937e-33 0)
(2.26843e-32 -2.99044e-33 -7.62298e-59)
(2.37187e-32 -2.92987e-33 0)
(2.47386e-32 -2.86784e-33 7.29637e-59)
(2.57433e-32 -2.80455e-33 3.5944e-59)
(2.6732e-32 -2.74018e-33 -3.51004e-59)
(2.7704e-32 -2.67491e-33 3.42454e-59)
(2.86586e-32 -2.60895e-33 3.33815e-59)
(2.95954e-32 -2.54245e-33 0)
(3.05137e-32 -2.47561e-33 0)
(3.14131e-32 -2.40859e-33 -3.07595e-59)
(3.22933e-32 -2.34156e-33 -8.88855e-59)
(3.31538e-32 -2.27466e-33 0)
(3.39943e-32 -2.20806e-33 0)
(3.48147e-32 -2.14188e-33 -2.72722e-59)
(3.56148e-32 -2.07627e-33 0)
(3.63944e-32 -2.01133e-33 0)
(3.71535e-32 -1.94718e-33 2.47282e-59)
(3.7892e-32 -1.88393e-33 0)
(3.861e-32 -1.82166e-33 6.83542e-59)
(3.93074e-32 -1.76045e-33 4.45786e-59)
(3.99845e-32 -1.70039e-33 0)
(4.06413e-32 -1.64154e-33 0)
(4.1278e-32 -1.58395e-33 -7.79898e-59)
(4.18948e-32 -1.52767e-33 -7.5022e-59)
(4.24919e-32 -1.47274e-33 -7.2126e-59)
(4.30696e-32 -1.4192e-33 1.04972e-58)
(4.36281e-32 -1.36707e-33 3.4308e-59)
(4.41678e-32 -1.31638e-33 -3.08992e-59)
(4.4689e-32 -1.26713e-33 6.12889e-59)
(4.51919e-32 -1.21935e-33 -3.04524e-59)
(4.5677e-32 -1.17302e-33 0)
(4.61446e-32 -1.12815e-33 2.80725e-59)
(4.65951e-32 -1.08474e-33 7.86188e-59)
(4.70288e-32 -1.04277e-33 0)
(4.74461e-32 -1.00223e-33 0)
(4.78475e-32 -9.63113e-34 0)
(4.82334e-32 -9.25394e-34 2.27821e-59)
(4.86041e-32 -8.89052e-34 0)
(4.896e-32 -8.54065e-34 3.95304e-59)
(4.93016e-32 -8.20408e-34 0)
(4.96292e-32 -7.88053e-34 3.60545e-59)
(4.99433e-32 -7.56973e-34 0)
(5.02443e-32 -7.27139e-34 -3.28472e-59)
(5.05325e-32 -6.98519e-34 0)
(5.08084e-32 -6.71085e-34 2.9896e-59)
(5.10724e-32 -6.44802e-34 -4.39743e-59)
(5.13248e-32 -6.1964e-34 0)
(5.1566e-32 -5.95566e-34 -2.59203e-59)
(5.17964e-32 -5.72547e-34 1.35771e-59)
(5.20165e-32 -5.50551e-34 1.30033e-59)
(5.22264e-32 -5.29545e-34 0)
(5.24267e-32 -5.09497e-34 -3.33218e-59)
(5.26176e-32 -4.90374e-34 1.14336e-59)
(5.27996e-32 -4.72145e-34 0)
(5.29728e-32 -4.54777e-34 -1.0505e-59)
(5.31378e-32 -4.3824e-34 -1.76383e-59)
(5.32947e-32 -4.22503e-34 0)
(5.3444e-32 -4.07536e-34 9.27278e-60)
(5.35858e-32 -3.93309e-34 0)
(5.37206e-32 -3.79793e-34 6.01247e-60)
(5.38485e-32 -3.66961e-34 0)
(5.39699e-32 -3.54783e-34 -5.34834e-60)
(5.40851e-32 -3.43234e-34 7.59549e-60)
(5.41943e-32 -3.32288e-34 1.93708e-59)
(5.42978e-32 -3.21917e-34 3.71088e-59)
(5.43958e-32 -3.12098e-34 -3.55628e-59)
(5.44886e-32 -3.02807e-34 0)
(5.45764e-32 -2.9402e-34 0)
(5.46594e-32 -2.85714e-34 0)
(5.47379e-32 -2.77867e-34 6.6114e-60)
(5.4812e-32 -2.70458e-34 -1.13942e-59)
(5.48819e-32 -2.63467e-34 1.10295e-59)
(5.4948e-32 -2.56873e-34 0)
(5.50102e-32 -2.50659e-34 -2.58887e-59)
(5.50689e-32 -2.44804e-34 -1.00558e-59)
(5.51242e-32 -2.39292e-34 -9.76819e-60)
(5.51763e-32 -2.34105e-34 0)
(5.52253e-32 -2.29227e-34 0)
(5.52714e-32 -2.24642e-34 0)
(5.53148e-32 -2.20335e-34 -8.77915e-60)
(5.53555e-32 -2.16292e-34 0)
(5.53937e-32 -2.12498e-34 -1.15093e-59)
(5.54296e-32 -2.0894e-34 -2.95002e-60)
(5.54633e-32 -2.05606e-34 1.07836e-59)
(5.54948e-32 -2.02484e-34 0)
(5.55244e-32 -1.9956e-34 1.78422e-59)
(5.5552e-32 -1.96826e-34 0)
(5.55779e-32 -1.94269e-34 9.58968e-60)
(5.56022e-32 -1.9188e-34 -1.66326e-59)
(5.56248e-32 -1.89649e-34 -1.62812e-59)
(5.5646e-32 -1.87567e-34 0)
(5.56657e-32 -1.85625e-34 -1.71124e-60)
(5.56841e-32 -1.83815e-34 8.48879e-60)
(5.57013e-32 -1.82129e-34 -6.78573e-60)
(5.57173e-32 -1.8056e-34 0)
(5.57322e-32 -1.79099e-34 -6.62761e-60)
(5.57461e-32 -1.77742e-34 1.29222e-60)
(5.5759e-32 -1.7648e-34 0)
(5.5771e-32 -1.75308e-34 7.59275e-60)
(5.57822e-32 -1.74221e-34 7.4782e-60)
(5.57925e-32 -1.73213e-34 7.372e-60)
(5.58021e-32 -1.72278e-34 0)
(5.5811e-32 -1.71413e-34 0)
(5.58193e-32 -1.70612e-34 0)
(5.58269e-32 -1.69871e-34 -1.31659e-59)
(5.5834e-32 -1.69185e-34 6.11029e-60)
(5.58405e-32 -1.68552e-34 0)
(5.58466e-32 -1.67968e-34 -6.81951e-60)
(5.58521e-32 -1.67429e-34 -6.76269e-60)
(5.58573e-32 -1.66932e-34 0)
(5.5862e-32 -1.66473e-34 1.19375e-59)
(5.58664e-32 -1.66051e-34 -1.32351e-59)
(5.58704e-32 -1.65662e-34 -1.18529e-59)
(5.58741e-32 -1.65305e-34 2.48933e-59)
(5.58775e-32 -1.64975e-34 0)
(5.58806e-32 -1.64673e-34 0)
(5.58835e-32 -1.64394e-34 0)
(5.58861e-32 -1.64137e-34 -1.16936e-59)
(5.58885e-32 -1.63901e-34 -2.44511e-59)
(5.58907e-32 -1.63683e-34 -1.27362e-59)
(5.58927e-32 -1.63482e-34 -1.16253e-59)
(5.58945e-32 -1.63295e-34 -2.42604e-59)
(5.58961e-32 -1.63122e-34 1.15877e-59)
(5.58976e-32 -1.6296e-34 0)
(5.58989e-32 -1.62807e-34 0)
(5.59001e-32 -1.62662e-34 2.40614e-59)
(5.59011e-32 -1.62523e-34 0)
(5.5902e-32 -1.62388e-34 0)
(5.59028e-32 -1.62253e-34 -1.2436e-59)
(5.59034e-32 -1.62117e-34 0)
(5.59038e-32 -1.61976e-34 -2.38467e-59)
(5.59041e-32 -1.61826e-34 -1.1453e-59)
(5.59043e-32 -1.61663e-34 0)
(5.59042e-32 -1.6148e-34 -2.36928e-59)
(5.59039e-32 -1.61272e-34 0)
(5.59033e-32 -1.6103e-34 0)
(5.59024e-32 -1.60742e-34 -1.13411e-59)
(5.59011e-32 -1.60397e-34 -1.20526e-59)
(5.58994e-32 -1.59975e-34 -1.1262e-59)
(5.5897e-32 -1.59456e-34 0)
(5.5894e-32 -1.58812e-34 0)
(5.58899e-32 -1.58007e-34 -2.26222e-59)
(5.58848e-32 -1.56995e-34 0)
(5.58781e-32 -1.55715e-34 -2.19166e-59)
(5.58695e-32 -1.54087e-34 0)
(5.58584e-32 -1.52008e-34 0)
(5.58441e-32 -1.49337e-34 0)
(5.58257e-32 -1.45884e-34 9.81205e-60)
(5.58019e-32 -1.41391e-34 0)
(5.57709e-32 -1.35494e-34 -8.74288e-60)
(5.57303e-32 -1.27676e-34 0)
(5.56769e-32 -1.17177e-34 0)
(5.56061e-32 -1.02838e-34 -2.61357e-61)
(5.55109e-32 -8.28159e-35 -3.84322e-60)
(5.5381e-32 -5.39846e-35 0)
(5.52e-32 -1.06185e-35 0)
(5.49397e-32 5.89674e-35 0)
(5.45487e-32 1.82427e-34 6.86334e-59)
(5.39274e-32 4.3996e-34 0)
(5.29471e-32 1.13372e-33 -5.08896e-58)
(5.53153e-34 -6.02592e-33 3.11466e-58)
(1.66397e-33 -6.01807e-33 -3.96085e-62)
(2.78182e-33 -6.00485e-33 0)
(3.90569e-33 -5.98617e-33 9.25324e-62)
(5.03451e-33 -5.96198e-33 0)
(6.16718e-33 -5.93225e-33 0)
(7.30257e-33 -5.89698e-33 -3.04004e-58)
(8.43952e-33 -5.85619e-33 -1.5098e-58)
(9.57685e-33 -5.80994e-33 1.49504e-58)
(1.07134e-32 -5.75829e-33 -1.48342e-58)
(1.18479e-32 -5.70135e-33 0)
(1.29793e-32 -5.63925e-33 0)
(1.41062e-32 -5.57214e-33 -1.43037e-58)
(1.52276e-32 -5.5002e-33 -2.82195e-58)
(1.63421e-32 -5.42362e-33 2.78079e-58)
(1.74488e-32 -5.34265e-33 0)
(1.85465e-32 -5.25751e-33 2.69179e-58)
(1.9634e-32 -5.16848e-33 1.32675e-58)
(2.07104e-32 -5.07582e-33 0)
(2.17745e-32 -4.97984e-33 2.54366e-58)
(2.28255e-32 -4.88082e-33 -1.25088e-58)
(2.38625e-32 -4.77909e-33 -2.43692e-58)
(2.48845e-32 -4.67496e-33 1.1967e-58)
(2.58908e-32 -4.56874e-33 0)
(2.68806e-32 -4.46076e-33 2.26807e-58)
(2.78533e-32 -4.35133e-33 2.21012e-58)
(2.88082e-32 -4.24075e-33 0)
(2.97447e-32 -4.12935e-33 2.09268e-58)
(3.06625e-32 -4.0174e-33 0)
(3.15609e-32 -3.9052e-33 1.97422e-58)
(3.24398e-32 -3.79302e-33 -9.65153e-59)
(3.32986e-32 -3.68111e-33 0)
(3.41372e-32 -3.56974e-33 0)
(3.49554e-32 -3.45912e-33 0)
(3.57531e-32 -3.34947e-33 0)
(3.653e-32 -3.24099e-33 0)
(3.72862e-32 -3.13387e-33 0)
(3.80217e-32 -3.02827e-33 1.51171e-58)
(3.87365e-32 -2.92434e-33 -7.19339e-59)
(3.94307e-32 -2.82223e-33 0)
(4.01044e-32 -2.72204e-33 0)
(4.07577e-32 -2.6239e-33 0)
(4.13909e-32 -2.52788e-33 -2.51604e-58)
(4.20042e-32 -2.43407e-33 -1.21872e-58)
(4.25977e-32 -2.34254e-33 -2.01166e-60)
(4.31718e-32 -2.25334e-33 2.03874e-60)
(4.37268e-32 -2.1665e-33 -1.05811e-58)
(4.42629e-32 -2.08207e-33 -1.0346e-58)
(4.47805e-32 -2.00007e-33 1.96229e-58)
(4.528e-32 -1.9205e-33 9.28731e-59)
(4.57616e-32 -1.84338e-33 0)
(4.62258e-32 -1.7687e-33 8.48909e-59)
(4.6673e-32 -1.69644e-33 1.64388e-58)
(4.71034e-32 -1.6266e-33 0)
(4.75176e-32 -1.55916e-33 0)
(4.79159e-32 -1.49407e-33 -7.0454e-59)
(4.82987e-32 -1.43132e-33 0)
(4.86665e-32 -1.37087e-33 0)
(4.90196e-32 -1.31268e-33 1.85074e-58)
(4.93584e-32 -1.2567e-33 1.15956e-58)
(4.96833e-32 -1.20289e-33 5.74961e-59)
(4.99948e-32 -1.15121e-33 0)
(5.02933e-32 -1.1016e-33 -5.22017e-59)
(5.05791e-32 -1.05401e-33 0)
(5.08527e-32 -1.0084e-33 1.37189e-58)
(5.11144e-32 -9.647e-34 -4.50467e-59)
(5.13647e-32 -9.22868e-34 -8.08698e-59)
(5.16039e-32 -8.82846e-34 -1.17433e-58)
(5.18323e-32 -8.4458e-34 0)
(5.20505e-32 -8.08015e-34 6.88e-59)
(5.22586e-32 -7.73097e-34 0)
(5.24572e-32 -7.39772e-34 2.83374e-59)
(5.26464e-32 -7.07986e-34 5.82884e-59)
(5.28268e-32 -6.77685e-34 5.51044e-59)
(5.29985e-32 -6.48818e-34 -5.20709e-59)
(5.3162e-32 -6.21332e-34 2.2081e-59)
(5.33176e-32 -5.95176e-34 0)
(5.34655e-32 -5.70299e-34 0)
(5.36061e-32 -5.46654e-34 -4.13353e-59)
(5.37397e-32 -5.24191e-34 -1.69499e-59)
(5.38665e-32 -5.02864e-34 0)
(5.39869e-32 -4.82626e-34 -1.98527e-59)
(5.4101e-32 -4.63432e-34 0)
(5.42093e-32 -4.45239e-34 -1.27795e-59)
(5.43119e-32 -4.28004e-34 6.28638e-59)
(5.4409e-32 -4.11686e-34 -5.94434e-59)
(5.4501e-32 -3.96245e-34 2.55299e-59)
(5.4588e-32 -3.81641e-34 0)
(5.46702e-32 -3.67837e-34 -2.25447e-59)
(5.4748e-32 -3.54797e-34 4.7519e-59)
(5.48215e-32 -3.42485e-34 0)
(5.48908e-32 -3.30866e-34 0)
(5.49563e-32 -3.19909e-34 0)