/*--------------------------------*- C++ -*----------------------------------*\
  =========                 |
  \\      /  F ield         | OpenFOAM: The Open Source CFD Toolbox
   \\    /   O peration     | Website:  https://openfoam.org
    \\  /    A nd           | Version:  10
     \\/     M anipulation  |
\*---------------------------------------------------------------------------*/
FoamFile
{
    format      ascii;
    class       surfaceScalarField;
    location    "2.3";
    object      phi;
}
// * * * * * * * * * * * * * * * * * * * * * * * * * * * * * * * * * * * * * //

dimensions      [0 3 -1 0 0 0 0];

internalField   nonuniform List<scalar> 
24170
(
1.46529e-09
-1.46529e-09
2.71879e-09
-1.25349e-09
3.70932e-09
-9.90538e-10
4.45592e-09
-7.46597e-10
5.00805e-09
-5.52132e-10
5.41918e-09
-4.11127e-10
5.73532e-09
-3.16142e-10
5.99262e-09
-2.57303e-10
6.21883e-09
-2.26206e-10
6.43599e-09
-2.17155e-10
6.66343e-09
-2.27447e-10
6.92117e-09
-2.57741e-10
7.23451e-09
-3.13338e-10
7.64257e-09
-4.08063e-10
8.21858e-09
-5.76009e-10
9.13211e-09
-9.1353e-10
1.0909e-08
-1.77684e-09
-5.08677e-09
1.59957e-08
1.65927e-09
-3.12456e-09
3.07289e-09
-2.66711e-09
4.18335e-09
-2.101e-09
5.0146e-09
-1.57785e-09
5.62488e-09
-1.1624e-09
6.07599e-09
-8.62241e-10
6.42057e-09
-6.6072e-10
6.69957e-09
-5.36303e-10
6.94416e-09
-4.70798e-10
7.17889e-09
-4.51884e-10
7.42506e-09
-4.73618e-10
7.70437e-09
-5.3705e-10
8.04369e-09
-6.5266e-10
8.48322e-09
-8.47587e-10
9.09362e-09
-1.18641e-09
1.00167e-08
-1.8366e-09
1.15418e-08
-3.30193e-09
-7.28062e-09
1.37356e-08
1.8534e-09
-4.97796e-09
3.4235e-09
-4.23721e-09
4.64717e-09
-3.32467e-09
5.5554e-09
-2.48608e-09
6.21665e-09
-1.82366e-09
6.70172e-09
-1.3473e-09
7.0698e-09
-1.0288e-09
7.36637e-09
-8.32873e-10
7.62559e-09
-7.30021e-10
7.874e-09
-7.00293e-10
8.13418e-09
-7.33792e-10
8.42843e-09
-8.31307e-10
8.78314e-09
-1.00737e-09
9.23487e-09
-1.29931e-09
9.83956e-09
-1.79111e-09
1.06793e-08
-2.67637e-09
1.17953e-08
-4.41786e-09
-8.01363e-09
1.25283e-08
2.06969e-09
-7.04765e-09
3.80889e-09
-5.97642e-09
5.14934e-09
-4.66512e-09
6.13275e-09
-3.46949e-09
6.841e-09
-2.5319e-09
7.3556e-09
-1.8619e-09
7.74307e-09
-1.41627e-09
8.05348e-09
-1.14328e-09
8.3238e-09
-1.00034e-09
8.58214e-09
-9.58636e-10
8.85172e-09
-1.00337e-09
9.15436e-09
-1.13395e-09
9.51388e-09
-1.36689e-09
9.95904e-09
-1.74447e-09
1.05233e-08
-2.35538e-09
1.12242e-08
-3.37728e-09
1.19459e-08
-5.13949e-09
-8.05812e-09
1.19904e-08
2.32166e-09
-9.36931e-09
4.25063e-09
-7.90539e-09
5.7145e-09
-6.12899e-09
6.77151e-09
-4.52651e-09
7.52177e-09
-3.28216e-09
8.06016e-09
-2.40029e-09
8.46157e-09
-1.81768e-09
8.78089e-09
-1.46261e-09
9.05767e-09
-1.27712e-09
9.32112e-09
-1.22208e-09
9.59434e-09
-1.27659e-09
9.89753e-09
-1.43714e-09
1.025e-08
-1.71937e-09
1.06699e-08
-2.16436e-09
1.11661e-08
-2.85155e-09
1.17049e-08
-3.91613e-09
1.21072e-08
-5.54175e-09
-7.7974e-09
1.18464e-08
2.62444e-09
-1.19937e-08
4.77116e-09
-1.00521e-08
6.36612e-09
-7.72395e-09
7.49321e-09
-5.6536e-09
8.27771e-09
-4.06665e-09
8.83147e-09
-2.95405e-09
9.2391e-09
-2.22531e-09
9.56051e-09
-1.78402e-09
9.83746e-09
-1.55408e-09
1.00997e-08
-1.4843e-09
1.03693e-08
-1.54623e-09
1.06638e-08
-1.73164e-09
1.09966e-08
-2.05216e-09
1.13741e-08
-2.54181e-09
1.17835e-08
-3.26096e-09
1.21609e-08
-4.29351e-09
1.23267e-08
-5.70756e-09
-7.4123e-09
1.19416e-08
2.99838e-09
-1.49921e-08
5.39912e-09
-1.24528e-08
7.13227e-09
-9.4571e-09
8.3218e-09
-6.84313e-09
9.12816e-09
-4.87302e-09
9.68489e-09
-3.51079e-09
1.00878e-08
-2.62826e-09
1.0402e-08
-2.09815e-09
1.06708e-08
-1.82286e-09
1.09236e-08
-1.73718e-09
1.11809e-08
-1.80354e-09
1.14564e-08
-2.00709e-09
1.17568e-08
-2.35258e-09
1.20776e-08
-2.86262e-09
1.23908e-08
-3.57416e-09
1.26216e-08
-4.5243e-09
1.26212e-08
-5.70716e-09
-6.98415e-09
1.21931e-08
3.47328e-09
-1.84654e-08
6.17412e-09
-1.51537e-08
8.04943e-09
-1.13324e-08
9.28651e-09
-8.08021e-09
1.00953e-08
-5.68181e-09
1.0637e-08
-4.05245e-09
1.10201e-08
-3.01137e-09
1.13144e-08
-2.39245e-09
1.15642e-08
-2.07265e-09
1.17976e-08
-1.97065e-09
1.20324e-08
-2.03828e-09
1.22777e-08
-2.2524e-09
1.25339e-08
-2.60876e-09
1.27877e-08
-3.11641e-09
1.30029e-08
-3.78942e-09
1.31082e-08
-4.62955e-09
1.2994e-08
-5.59304e-09
-6.5474e-09
1.25573e-08
4.09482e-09
-2.25602e-08
7.15317e-09
-1.8212e-08
9.16674e-09
-1.3346e-08
1.04243e-08
-9.33775e-09
1.12055e-08
-6.46307e-09
1.17063e-08
-4.55319e-09
1.20489e-08
-3.35399e-09
1.23069e-08
-2.65046e-09
1.25241e-08
-2.2898e-09
1.2726e-08
-2.17261e-09
1.29267e-08
-2.23894e-09
1.31306e-08
-2.45628e-09
1.33321e-08
-2.81034e-09
1.35124e-08
-3.29669e-09
1.36335e-08
-3.91046e-09
1.36349e-08
-4.63101e-09
1.34435e-08
-5.40162e-09
-6.11515e-09
1.30113e-08
4.93638e-09
-2.74966e-08
8.42093e-09
-2.16966e-08
1.05516e-08
-1.54767e-08
1.17822e-08
-1.05683e-08
1.24902e-08
-7.17114e-09
1.29136e-08
-4.97658e-09
1.31881e-08
-3.62848e-09
1.33888e-08
-2.85112e-09
1.35565e-08
-2.45757e-09
1.37129e-08
-2.32896e-09
1.3867e-08
-2.39303e-09
1.40184e-08
-2.60768e-09
1.41569e-08
-2.94884e-09
1.42606e-08
-3.40043e-09
1.42943e-08
-3.94415e-09
1.42114e-08
-4.54812e-09
1.39667e-08
-5.15689e-09
-5.69106e-09
1.35426e-08
6.12136e-09
-3.3618e-08
1.01063e-08
-2.56816e-08
1.22972e-08
-1.76676e-08
1.34196e-08
-1.16906e-08
1.39859e-08
-7.7375e-09
1.42814e-08
-5.27207e-09
1.44517e-08
-3.79873e-09
1.45687e-08
-2.96816e-09
1.46672e-08
-2.55602e-09
1.4762e-08
-2.42379e-09
1.48564e-08
-2.48749e-09
1.4945e-08
-2.69626e-09
1.50139e-08
-3.01775e-09
1.50407e-08
-3.42723e-09
1.49951e-08
-3.89856e-09
1.48437e-08
-4.3967e-09
1.45609e-08
-4.87404e-09
-5.27475e-09
1.41445e-08
6.52799e-09
-4.0146e-08
1.03286e-08
-2.94822e-08
1.21275e-08
-1.94665e-08
1.28867e-08
-1.24498e-08
1.3177e-08
-8.02782e-09
1.32743e-08
-5.3694e-09
1.33016e-08
-3.82594e-09
1.33108e-08
-2.97738e-09
1.33222e-08
-2.56743e-09
1.33409e-08
-2.44254e-09
1.3364e-08
-2.51055e-09
1.33826e-08
-2.71489e-09
1.3383e-08
-3.01813e-09
1.33468e-08
-3.39097e-09
1.32526e-08
-3.80435e-09
1.30804e-08
-4.2245e-09
1.28183e-08
-4.612e-09
-4.92659e-09
1.24702e-08
9.70156e-09
-4.98475e-08
1.45188e-08
-3.42995e-08
1.63204e-08
-2.12681e-08
1.68107e-08
-1.294e-08
1.68232e-08
-8.04032e-09
1.66966e-08
-5.24283e-09
1.6555e-08
-3.68436e-09
1.64377e-08
-2.86005e-09
1.63515e-08
-2.48125e-09
1.62907e-08
-2.38176e-09
1.62439e-08
-2.46371e-09
1.6196e-08
-2.66697e-09
1.61291e-08
-2.95122e-09
1.60232e-08
-3.28512e-09
1.58586e-08
-3.63972e-09
1.56194e-08
-3.98533e-09
1.52992e-08
-4.2918e-09
-4.53217e-09
1.49048e-08
1.56652e-08
-6.55127e-08
2.14286e-08
-4.00629e-08
2.25897e-08
-2.24292e-08
2.22881e-08
-1.26384e-08
2.16797e-08
-7.43201e-09
2.11118e-08
-4.67493e-09
2.06603e-08
-3.2328e-09
2.03203e-08
-2.52005e-09
2.00671e-08
-2.22807e-09
1.98735e-08
-2.18816e-09
1.97137e-08
-2.30387e-09
1.95632e-08
-2.51655e-09
1.93991e-08
-2.78706e-09
1.91997e-08
-3.08572e-09
1.8947e-08
-3.38702e-09
1.86292e-08
-3.66752e-09
1.82437e-08
-3.90631e-09
-4.08703e-09
1.77985e-08
2.8662e-08
-9.41747e-08
3.36809e-08
-4.50818e-08
3.2258e-08
-2.10063e-08
3.00074e-08
-1.03878e-08
2.81461e-08
-5.5707e-09
2.67817e-08
-3.31045e-09
2.58074e-08
-2.25855e-09
2.51077e-08
-1.82031e-09
2.45925e-08
-1.71293e-09
2.41961e-08
-1.7917e-09
2.3869e-08
-1.97684e-09
2.35733e-08
-2.22077e-09
2.32783e-08
-2.49209e-09
2.29602e-08
-2.7676e-09
2.26017e-08
-3.02855e-09
2.21935e-08
-3.25934e-09
2.17349e-08
-3.44764e-09
-3.58526e-09
2.12331e-08
6.3244e-08
-1.57419e-07
5.66827e-08
-3.85205e-08
4.70832e-08
-1.14068e-08
4.05894e-08
-3.89403e-09
3.64922e-08
-1.47349e-09
3.38607e-08
-6.78957e-10
3.2109e-08
-5.06929e-10
3.08952e-08
-6.06501e-10
3.00155e-08
-8.3318e-10
2.93428e-08
-1.11901e-09
2.87935e-08
-1.42754e-09
2.831e-08
-1.73732e-09
2.78519e-08
-2.03396e-09
2.7391e-08
-2.30666e-09
2.69093e-08
-2.54689e-09
2.63981e-08
-2.74811e-09
2.58564e-08
-2.90597e-09
-3.01864e-09
2.52898e-08
1.8298e-07
1.59142e-07
9.67827e-08
4.76764e-08
6.65539e-08
1.8822e-08
5.32218e-08
9.43811e-09
4.62366e-08
5.51173e-09
4.21174e-08
3.44021e-09
3.94784e-08
2.13212e-09
3.76748e-08
1.19708e-09
3.63688e-08
4.72786e-10
3.53652e-08
-1.15346e-10
3.45417e-08
-6.04067e-10
3.38247e-08
-1.02039e-09
3.31657e-08
-1.37494e-09
3.25329e-08
-1.6738e-09
3.19068e-08
-1.92082e-09
3.12776e-08
-2.11888e-09
3.06424e-08
-2.27079e-09
-2.37976e-09
3.00035e-08
7.72293e-08
8.19125e-08
7.54045e-08
4.95012e-08
6.53389e-08
2.88876e-08
5.73273e-08
1.74498e-08
5.18334e-08
1.10056e-08
4.81088e-08
7.16482e-09
4.55205e-08
4.72039e-09
4.36528e-08
3.06475e-09
4.22439e-08
1.88173e-09
4.11291e-08
9.99413e-10
4.0205e-08
3.20106e-10
3.93948e-08
-2.10238e-10
3.86484e-08
-6.28517e-10
3.79381e-08
-9.63515e-10
3.72474e-08
-1.23007e-09
3.65674e-08
-1.43891e-09
3.5895e-08
-1.59836e-09
-1.71532e-09
3.52305e-08
3.59374e-08
4.59751e-08
5.01214e-08
3.53171e-08
5.38039e-08
2.52051e-08
5.36288e-08
1.76249e-08
5.2318e-08
1.23165e-08
5.08418e-08
8.64094e-09
4.94958e-08
6.06644e-09
4.83346e-08
4.22589e-09
4.73366e-08
2.8798e-09
4.6462e-08
1.87395e-09
4.56737e-08
1.1084e-09
4.4946e-08
5.17478e-10
4.42604e-08
5.70806e-11
4.35954e-08
-2.98474e-10
4.29415e-08
-5.76228e-10
4.22949e-08
-7.92253e-10
4.16545e-08
-9.58009e-10
-1.08249e-09
4.10217e-08
1.43028e-08
3.16724e-08
2.32894e-08
2.63305e-08
2.80989e-08
2.03956e-08
3.0452e-08
1.52718e-08
3.15058e-08
1.12626e-08
3.19011e-08
8.24566e-09
3.19662e-08
6.00136e-09
3.18634e-08
4.32867e-09
3.16715e-08
3.07173e-09
3.14282e-08
2.11722e-09
3.11518e-08
1.38478e-09
3.08516e-08
8.17746e-10
3.05327e-08
3.7597e-10
3.02035e-08
3.07359e-11
2.98626e-08
-2.35351e-10
2.95127e-08
-4.42328e-10
2.91568e-08
-6.02197e-10
-7.23884e-10
2.87982e-08
8.56892e-09
2.31035e-08
1.49654e-08
1.9934e-08
1.92134e-08
1.61476e-08
2.18818e-08
1.26034e-08
2.3515e-08
9.62943e-09
2.44986e-08
7.26203e-09
2.50771e-08
5.4229e-09
2.53986e-08
4.00712e-09
2.55522e-08
2.91818e-09
2.55916e-08
2.0778e-09
2.55504e-08
1.426e-09
2.54502e-08
9.17928e-10
2.53058e-08
5.20348e-10
2.51279e-08
2.08608e-10
2.49277e-08
-3.51022e-11
2.47085e-08
-2.23156e-10
2.44756e-08
-3.69296e-10
-4.81632e-10
2.42334e-08
5.78625e-09
1.73172e-08
1.04782e-08
1.52421e-08
1.39503e-08
1.26755e-08
1.6398e-08
1.01557e-08
1.80829e-08
7.94449e-09
1.92288e-08
6.11615e-09
2.00001e-08
4.65162e-09
2.05102e-08
3.49696e-09
2.08358e-08
2.59261e-09
2.10283e-08
1.88527e-09
2.1123e-08
1.3313e-09
2.11445e-08
8.9644e-10
2.11105e-08
5.54382e-10
2.10341e-08
2.85044e-10
2.09259e-08
7.31001e-11
2.07945e-08
-9.17439e-11
2.06448e-08
-2.19637e-10
-3.18683e-10
2.04818e-08
4.21494e-09
1.31023e-08
7.78907e-09
1.16679e-08
1.06019e-08
9.86263e-09
1.27197e-08
8.03793e-09
1.4275e-08
6.38925e-09
1.54007e-08
4.99047e-09
1.62066e-08
3.84569e-09
1.67762e-08
2.92739e-09
1.71704e-08
2.19833e-09
1.74336e-08
1.6221e-09
1.75977e-08
1.16721e-09
1.76862e-08
8.07941e-10
1.77166e-08
5.23988e-10
1.77021e-08
2.99505e-10
1.7653e-08
1.22211e-10
1.75784e-08
-1.71449e-11
1.74838e-08
-1.25026e-10
-2.09074e-10
1.73742e-08
3.22739e-09
9.87488e-09
6.03684e-09
8.85849e-09
8.33233e-09
7.56714e-09
1.01324e-08
6.23784e-09
1.15083e-08
5.01341e-09
1.25426e-08
3.95617e-09
1.33104e-08
3.07782e-09
1.38734e-08
2.36444e-09
1.42793e-08
1.7924e-09
1.45648e-08
1.33668e-09
1.47573e-08
9.74652e-10
1.48779e-08
6.8731e-10
1.49427e-08
4.59273e-10
1.49638e-08
2.78355e-10
1.4951e-08
1.3498e-10
1.49123e-08
2.16329e-11
1.48537e-08
-6.65099e-11
-1.35229e-10
1.47799e-08
2.55582e-09
7.31906e-09
4.8171e-09
6.59721e-09
6.70914e-09
5.6751e-09
8.23229e-09
4.71468e-09
9.42709e-09
3.81861e-09
1.03477e-08
3.03557e-09
1.10474e-08
2.37816e-09
1.15723e-08
1.8395e-09
1.19603e-08
1.4044e-09
1.22412e-08
1.05572e-09
1.24385e-08
7.77394e-10
1.25702e-08
5.55598e-10
1.26505e-08
3.78982e-10
1.26904e-08
2.38434e-10
1.26987e-08
1.26726e-10
1.26822e-08
3.81511e-11
1.26469e-08
-3.12712e-11
-8.53248e-11
1.2597e-08
2.07068e-09
5.24838e-09
3.9219e-09
4.74599e-09
5.49491e-09
4.10209e-09
6.7833e-09
3.42629e-09
7.81156e-09
2.79036e-09
8.61705e-09
2.23008e-09
9.23895e-09
1.75626e-09
9.71285e-09
1.36559e-09
1.00689e-08
1.04837e-09
1.03316e-08
7.93022e-10
1.05206e-08
5.88432e-10
1.06513e-08
4.24879e-10
1.0736e-08
2.94273e-10
1.07843e-08
1.90069e-10
1.0804e-08
1.07037e-10
1.08012e-08
4.10275e-11
1.07809e-08
-1.10457e-11
-5.15211e-11
1.07471e-08
1.70293e-09
3.54545e-09
3.23576e-09
3.21317e-09
4.55147e-09
2.78637e-09
5.64156e-09
2.3362e-09
6.52174e-09
1.91017e-09
7.21907e-09
1.53275e-09
7.76338e-09
1.21196e-09
8.18268e-09
9.46285e-10
8.50133e-09
7.29726e-10
8.73952e-09
5.54825e-10
8.91368e-09
4.14281e-10
9.03692e-09
3.01634e-10
9.11973e-09
2.11464e-10
9.17044e-09
1.39355e-10
9.19571e-09
8.17658e-11
9.20087e-09
3.58733e-11
9.19037e-09
-5.50662e-13
-2.87655e-11
9.16762e-09
1.41249e-09
2.13295e-09
2.68958e-09
1.93608e-09
3.79311e-09
1.68284e-09
4.71444e-09
1.41487e-09
5.4643e-09
1.16032e-09
6.06309e-09
9.33963e-10
6.53414e-09
7.40901e-10
6.89992e-09
5.80504e-10
7.18027e-09
4.49381e-10
7.39189e-09
3.43205e-10
7.54849e-09
2.57682e-10
7.66114e-09
1.88981e-10
7.73873e-09
1.3387e-10
7.78838e-09
8.97044e-11
7.81579e-09
5.4354e-11
7.82555e-09
2.61162e-11
7.82137e-09
3.62662e-12
-1.38169e-11
7.80642e-09
1.17324e-09
9.59717e-10
2.23716e-09
8.72151e-10
3.1606e-09
7.59404e-10
3.93563e-09
6.39846e-10
4.56995e-09
5.25994e-10
5.07941e-09
4.24496e-10
5.48261e-09
3.37709e-10
5.79768e-09
2.65432e-10
6.04085e-09
2.06211e-10
6.2259e-09
1.58152e-10
6.36423e-09
1.19359e-10
6.46508e-09
8.81308e-11
6.53592e-09
6.30276e-11
6.58276e-09
4.28667e-11
6.61042e-09
2.66937e-11
6.62279e-09
1.37434e-11
6.62301e-09
3.40267e-12
-4.59363e-12
6.61379e-09
9.59717e-10
1.83187e-09
2.59127e-09
3.23112e-09
3.75711e-09
4.18161e-09
4.51932e-09
4.78475e-09
4.99096e-09
5.14911e-09
5.26847e-09
5.3566e-09
5.41963e-09
5.4625e-09
5.48919e-09
5.50293e-09
5.50633e-09
5.50174e-09
2.11064e-10
-2.11064e-10
4.23443e-10
-2.12379e-10
6.36984e-10
-2.13542e-10
8.51527e-10
-2.14543e-10
1.0669e-09
-2.15372e-10
1.28292e-09
-2.16017e-10
1.49939e-09
-2.1647e-10
1.7161e-09
-2.16719e-10
1.93286e-09
-2.1676e-10
2.14945e-09
-2.16589e-10
2.36566e-09
-2.16211e-10
2.5813e-09
-2.15636e-10
2.79618e-09
-2.14883e-10
3.01016e-09
-2.13978e-10
3.22312e-09
-2.12961e-10
3.43501e-09
-2.11886e-10
3.64583e-09
-2.10817e-10
3.85566e-09
-2.09834e-10
4.06468e-09
-2.09023e-10
4.27316e-09
-2.08476e-10
4.48144e-09
-2.08282e-10
4.68997e-09
-2.08526e-10
4.89925e-09
-2.09283e-10
5.10987e-09
-2.10619e-10
5.32246e-09
-2.12594e-10
5.53772e-09
-2.15255e-10
5.75636e-09
-2.18641e-10
5.97914e-09
-2.22779e-10
6.20681e-09
-2.27677e-10
6.44014e-09
-2.33321e-10
6.67981e-09
-2.39671e-10
6.92646e-09
-2.46655e-10
7.18064e-09
-2.54177e-10
7.44278e-09
-2.62141e-10
7.71326e-09
-2.70483e-10
7.99248e-09
-2.79216e-10
8.28096e-09
-2.88484e-10
8.57955e-09
-2.98591e-10
8.88957e-09
-3.10021e-10
9.21303e-09
-3.23453e-10
9.5528e-09
-3.39775e-10
9.91293e-09
-3.60122e-10
1.02989e-08
-3.85965e-10
1.07182e-08
-4.19268e-10
1.11809e-08
-4.62734e-10
1.17011e-08
-5.20215e-10
1.22984e-08
-5.97334e-10
1.30008e-08
-7.02377e-10
1.38481e-08
-8.47262e-10
1.48948e-08
-1.04674e-09
1.62022e-08
-1.30738e-09
2.00258e-08
-3.82357e-09
1.87249e-08
1.3009e-09
1.78759e-08
8.49007e-10
1.72416e-08
6.34293e-10
1.67277e-08
5.13887e-10
1.62911e-08
4.36594e-10
1.59086e-08
3.82457e-10
1.55663e-08
3.42335e-10
1.52551e-08
3.11236e-10
1.49689e-08
2.8613e-10
1.47038e-08
2.6511e-10
1.44568e-08
2.46973e-10
1.42259e-08
2.30963e-10
1.40093e-08
2.16594e-10
1.38057e-08
2.03547e-10
1.36141e-08
1.91602e-10
1.34335e-08
1.80603e-10
1.32631e-08
1.70427e-10
1.31021e-08
1.60981e-10
1.29499e-08
1.52186e-10
1.2806e-08
1.43977e-10
1.26697e-08
1.36301e-10
1.25406e-08
1.29109e-10
1.24182e-08
1.22361e-10
1.23022e-08
1.1602e-10
1.21921e-08
1.10054e-10
1.20877e-08
1.04436e-10
1.19885e-08
9.91393e-11
1.18944e-08
9.4142e-11
1.1805e-08
8.94239e-11
1.172e-08
8.49667e-11
1.16393e-08
8.07537e-11
1.15625e-08
7.677e-11
1.14895e-08
7.30021e-11
1.14201e-08
6.94376e-11
1.1354e-08
6.60648e-11
1.12911e-08
6.28735e-11
1.12313e-08
5.98539e-11
1.11743e-08
5.69969e-11
1.112e-08
5.42944e-11
1.10682e-08
5.17384e-11
1.10189e-08
4.93219e-11
1.09719e-08
4.70376e-11
1.0927e-08
4.48795e-11
1.08841e-08
4.28412e-11
1.08432e-08
4.0917e-11
1.08041e-08
3.91017e-11
1.07667e-08
3.73898e-11
1.0731e-08
3.57764e-11
1.06967e-08
3.42568e-11
1.06639e-08
3.28267e-11
1.06324e-08
3.14815e-11
1.06022e-08
3.02174e-11
1.05732e-08
2.90301e-11
1.05452e-08
2.79162e-11
1.05184e-08
2.6872e-11
1.04925e-08
2.5894e-11
1.04675e-08
2.49789e-11
1.04434e-08
2.41236e-11
1.042e-08
2.33251e-11
1.03975e-08
2.25805e-11
1.03756e-08
2.1887e-11
1.03543e-08
2.12419e-11
1.03337e-08
2.06428e-11
1.03136e-08
2.00874e-11
1.0294e-08
1.9573e-11
1.02749e-08
1.90978e-11
1.02563e-08
1.86593e-11
1.0238e-08
1.8256e-11
1.02201e-08
1.78854e-11
1.02026e-08
1.75462e-11
1.01853e-08
1.72363e-11
1.01684e-08
1.69543e-11
1.01517e-08
1.66984e-11
1.01352e-08
1.64671e-11
1.0119e-08
1.62593e-11
1.01029e-08
1.60733e-11
1.0087e-08
1.5908e-11
1.00712e-08
1.57623e-11
1.00556e-08
1.56346e-11
1.00401e-08
1.55244e-11
1.00246e-08
1.54301e-11
1.00093e-08
1.53512e-11
9.994e-09
1.52866e-11
9.97876e-09
1.52355e-11
9.96357e-09
1.51968e-11
9.9484e-09
1.51703e-11
9.93324e-09
1.51549e-11
9.91809e-09
1.515e-11
9.90294e-09
1.51552e-11
9.88777e-09
1.51697e-11
9.87257e-09
1.51932e-11
9.85735e-09
1.52253e-11
9.84208e-09
1.52655e-11
9.82677e-09
1.53135e-11
9.8114e-09
1.53691e-11
9.79597e-09
1.54322e-11
9.78046e-09
1.55028e-11
9.76488e-09
1.55809e-11
9.74922e-09
1.56666e-11
9.73346e-09
1.57605e-11
9.71759e-09
1.58631e-11
9.70162e-09
1.59751e-11
9.68552e-09
1.60979e-11
9.66929e-09
1.62328e-11
9.65291e-09
1.63822e-11
9.63636e-09
1.65487e-11
9.61962e-09
1.6736e-11
9.60267e-09
1.69487e-11
9.58548e-09
1.71933e-11
9.568e-09
1.74777e-11
9.55019e-09
1.78128e-11
9.53198e-09
1.82125e-11
9.51328e-09
1.86958e-11
9.49399e-09
1.92877e-11
9.47397e-09
2.00216e-11
9.45303e-09
2.09435e-11
9.43091e-09
2.21169e-11
9.40728e-09
2.36305e-11
9.38167e-09
2.56124e-11
9.35342e-09
2.82519e-11
9.32158e-09
3.18386e-11
9.28474e-09
3.68389e-11
9.24069e-09
4.40495e-11
9.18574e-09
5.49523e-11
9.11309e-09
7.26467e-11
9.00826e-09
1.04831e-10
8.83204e-09
1.7622e-10
4.00839e-10
8.4312e-09
2.42575e-10
-4.53638e-10
4.86716e-10
-4.56521e-10
7.32267e-10
-4.59092e-10
9.79064e-10
-4.6134e-10
1.22694e-09
-4.63249e-10
1.47574e-09
-4.64816e-10
1.72532e-09
-4.66047e-10
1.97555e-09
-4.66953e-10
2.22634e-09
-4.67551e-10
2.47761e-09
-4.67861e-10
2.72931e-09
-4.67902e-10
2.98137e-09
-4.677e-10
3.23377e-09
-4.6728e-10
3.48646e-09
-4.66672e-10
3.73941e-09
-4.65906e-10
3.99254e-09
-4.65018e-10
4.24577e-09
-4.64048e-10
4.49897e-09
-4.63039e-10
4.75199e-09
-4.62039e-10
5.00462e-09
-4.61102e-10
5.25662e-09
-4.60286e-10
5.50775e-09
-4.59658e-10
5.75776e-09
-4.59287e-10
6.00639e-09
-4.59249e-10
6.25342e-09
-4.59626e-10
6.49867e-09
-4.60505e-10
6.74201e-09
-4.6198e-10
6.98338e-09
-4.64148e-10
7.22281e-09
-4.67111e-10
7.46046e-09
-4.70968e-10
7.6966e-09
-4.75817e-10
7.9317e-09
-4.81756e-10
8.16642e-09
-4.88893e-10
8.40165e-09
-4.97369e-10
8.63854e-09
-5.0738e-10
8.87854e-09
-5.19217e-10
9.12336e-09
-5.33303e-10
9.37501e-09
-5.50234e-10
9.6358e-09
-5.70814e-10
9.90846e-09
-5.96111e-10
1.01962e-08
-6.27514e-10
1.05029e-08
-6.66835e-10
1.08334e-08
-7.16463e-10
1.11938e-08
-7.79622e-10
1.15918e-08
-8.60777e-10
1.20379e-08
-9.66326e-10
1.25464e-08
-1.10582e-09
1.31384e-08
-1.29433e-09
1.38485e-08
-1.55737e-09
1.47441e-08
-1.94234e-09
1.59776e-08
-2.54089e-09
1.74831e-08
-5.32914e-09
1.7849e-08
9.35071e-10
1.74626e-08
1.23541e-09
1.70119e-08
1.08499e-09
1.65815e-08
9.44278e-10
1.61895e-08
8.28541e-10
1.5834e-08
7.38021e-10
1.55089e-08
6.67412e-10
1.52091e-08
6.11008e-10
1.49308e-08
5.64406e-10
1.46713e-08
5.2463e-10
1.44285e-08
4.89787e-10
1.42008e-08
4.58686e-10
1.39868e-08
4.30561e-10
1.37855e-08
4.04897e-10
1.35957e-08
3.81326e-10
1.34168e-08
3.59571e-10
1.32478e-08
3.39415e-10
1.30881e-08
3.20683e-10
1.2937e-08
3.03229e-10
1.27941e-08
2.86929e-10
1.26587e-08
2.71676e-10
1.25305e-08
2.5738e-10
1.24089e-08
2.43959e-10
1.22935e-08
2.31345e-10
1.21841e-08
2.19473e-10
1.20803e-08
2.08289e-10
1.19817e-08
1.97744e-10
1.1888e-08
1.87792e-10
1.1799e-08
1.78394e-10
1.17145e-08
1.69514e-10
1.16341e-08
1.6112e-10
1.15577e-08
1.53181e-10
1.1485e-08
1.45672e-10
1.14159e-08
1.38566e-10
1.13501e-08
1.31842e-10
1.12875e-08
1.2548e-10
1.12279e-08
1.19459e-10
1.11712e-08
1.13762e-10
1.11171e-08
1.08373e-10
1.10655e-08
1.03275e-10
1.10164e-08
9.84555e-11
1.09695e-08
9.38996e-11
1.09248e-08
8.9595e-11
1.08821e-08
8.55294e-11
1.08414e-08
8.16914e-11
1.08024e-08
7.807e-11
1.07651e-08
7.46552e-11
1.07295e-08
7.14366e-11
1.06953e-08
6.84054e-11
1.06626e-08
6.55522e-11
1.06312e-08
6.28688e-11
1.06011e-08
6.03468e-11
1.05721e-08
5.79784e-11
1.05443e-08
5.57562e-11
1.05175e-08
5.36729e-11
1.04917e-08
5.17219e-11
1.04667e-08
4.98963e-11
1.04427e-08
4.81901e-11
1.04194e-08
4.65971e-11
1.03969e-08
4.51116e-11
1.0375e-08
4.37281e-11
1.03538e-08
4.24415e-11
1.03332e-08
4.12463e-11
1.03132e-08
4.01381e-11
1.02936e-08
3.91123e-11
1.02746e-08
3.81641e-11
1.02559e-08
3.72897e-11
1.02377e-08
3.6485e-11
1.02199e-08
3.57462e-11
1.02023e-08
3.50695e-11
1.01851e-08
3.44515e-11
1.01682e-08
3.38889e-11
1.01515e-08
3.33788e-11
1.01351e-08
3.29179e-11
1.01188e-08
3.25033e-11
1.01027e-08
3.21327e-11
1.00869e-08
3.18032e-11
1.00711e-08
3.15126e-11
1.00555e-08
3.12584e-11
1.004e-08
3.10387e-11
1.00245e-08
3.08511e-11
1.00092e-08
3.0694e-11
9.99392e-09
3.05655e-11
9.97869e-09
3.04637e-11
9.9635e-09
3.03874e-11
9.94834e-09
3.03346e-11
9.93319e-09
3.03043e-11
9.91805e-09
3.02951e-11
9.90289e-09
3.03058e-11
9.88773e-09
3.03352e-11
9.87254e-09
3.03826e-11
9.85732e-09
3.04469e-11
9.84206e-09
3.05275e-11
9.82675e-09
3.06238e-11
9.81138e-09
3.07353e-11
9.79595e-09
3.08616e-11
9.78045e-09
3.10028e-11
9.76487e-09
3.1159e-11
9.74921e-09
3.13305e-11
9.73345e-09
3.15183e-11
9.71759e-09
3.17231e-11
9.70162e-09
3.1947e-11
9.68552e-09
3.21921e-11
9.66929e-09
3.24617e-11
9.65292e-09
3.27597e-11
9.63637e-09
3.30918e-11
9.61965e-09
3.34651e-11
9.6027e-09
3.38891e-11
9.58552e-09
3.43763e-11
9.56806e-09
3.49426e-11
9.55026e-09
3.56094e-11
9.53207e-09
3.64048e-11
9.5134e-09
3.73656e-11
9.49414e-09
3.85417e-11
9.47417e-09
3.99995e-11
9.45328e-09
4.18297e-11
9.43124e-09
4.4157e-11
9.40771e-09
4.71572e-11
9.38224e-09
5.10815e-11
9.3542e-09
5.62999e-11
9.32266e-09
6.33777e-11
9.28628e-09
7.32155e-11
9.24299e-09
8.73362e-11
9.18943e-09
1.08517e-10
9.11971e-09
1.42365e-10
9.02272e-09
2.01821e-10
8.87678e-09
3.22158e-10
6.16169e-10
8.66145e-09
2.55106e-10
-7.08745e-10
5.11889e-10
-7.13303e-10
7.70138e-10
-7.17341e-10
1.02965e-09
-7.20848e-10
1.2902e-09
-7.23807e-10
1.55161e-09
-7.26221e-10
1.81367e-09
-7.28111e-10
2.07623e-09
-7.29507e-10
2.33912e-09
-7.30447e-10
2.60223e-09
-7.30971e-10
2.86545e-09
-7.31119e-10
3.12868e-09
-7.3093e-10
3.39184e-09
-7.3044e-10
3.65485e-09
-7.2968e-10
3.91762e-09
-7.28676e-10
4.18004e-09
-7.27442e-10
4.44198e-09
-7.25983e-10
4.70324e-09
-7.24298e-10
4.96357e-09
-7.22378e-10
5.22269e-09
-7.20221e-10
5.48024e-09
-7.17838e-10
5.73586e-09
-7.15268e-10
5.98915e-09
-7.12579e-10
6.23978e-09
-7.09877e-10
6.48745e-09
-7.07302e-10
6.73197e-09
-7.05027e-10
6.97324e-09
-7.03245e-10
7.21126e-09
-7.0217e-10
7.44618e-09
-7.02027e-10
7.67826e-09
-7.03051e-10
7.90793e-09
-7.05485e-10
8.13575e-09
-7.09583e-10
8.36249e-09
-7.15628e-10
8.58906e-09
-7.23943e-10
8.8166e-09
-7.3492e-10
9.04644e-09
-7.49052e-10
9.2801e-09
-7.66965e-10
9.51933e-09
-7.89461e-10
9.76608e-09
-8.17566e-10
1.00226e-08
-8.52587e-10
1.02912e-08
-8.96193e-10
1.05749e-08
-9.50525e-10
1.08768e-08
-1.01836e-09
1.12006e-08
-1.10335e-09
1.15501e-08
-1.21036e-09
1.19298e-08
-1.34599e-09
1.23431e-08
-1.51917e-09
1.27907e-08
-1.74184e-09
1.3262e-08
-2.02874e-09
1.37125e-08
-2.39283e-09
1.39942e-08
-2.82259e-09
1.18591e-08
-3.19401e-09
1.76006e-08
-4.8064e-09
1.71654e-08
1.67053e-09
1.67392e-08
1.51124e-09
1.63604e-08
1.32311e-09
1.60185e-08
1.17043e-09
1.57018e-08
1.05473e-09
1.54042e-08
9.64959e-10
1.51235e-08
8.91769e-10
1.48585e-08
8.29349e-10
1.46087e-08
7.7442e-10
1.43734e-08
7.2515e-10
1.41516e-08
6.80445e-10
1.39426e-08
6.39584e-10
1.37454e-08
6.02042e-10
1.35593e-08
5.67409e-10
1.33836e-08
5.35349e-10
1.32174e-08
5.05582e-10
1.30602e-08
4.77873e-10
1.29114e-08
4.52021e-10
1.27705e-08
4.27852e-10
1.2637e-08
4.05219e-10
1.25103e-08
3.83988e-10
1.23903e-08
3.64046e-10
1.22763e-08
3.4529e-10
1.21682e-08
3.2763e-10
1.20655e-08
3.10986e-10
1.19679e-08
2.95286e-10
1.18752e-08
2.80464e-10
1.17872e-08
2.66463e-10
1.17035e-08
2.53229e-10
1.16239e-08
2.40716e-10
1.15482e-08
2.28878e-10
1.14762e-08
2.17678e-10
1.14076e-08
2.07079e-10
1.13424e-08
1.97048e-10
1.12804e-08
1.87553e-10
1.12213e-08
1.78568e-10
1.1165e-08
1.70065e-10
1.11113e-08
1.6202e-10
1.10602e-08
1.5441e-10
1.10114e-08
1.47214e-10
1.09649e-08
1.40412e-10
1.09205e-08
1.33984e-10
1.08781e-08
1.27912e-10
1.08376e-08
1.22181e-10
1.07989e-08
1.16772e-10
1.07619e-08
1.11672e-10
1.07265e-08
1.06865e-10
1.06926e-08
1.02338e-10
1.066e-08
9.80762e-11
1.06288e-08
9.40681e-11
1.05989e-08
9.0301e-11
1.05701e-08
8.67634e-11
1.05424e-08
8.3444e-11
1.05158e-08
8.03323e-11
1.04901e-08
7.7418e-11
1.04653e-08
7.46912e-11
1.04413e-08
7.21425e-11
1.04181e-08
6.97632e-11
1.03957e-08
6.75444e-11
1.0374e-08
6.54779e-11
1.03528e-08
6.3556e-11
1.03323e-08
6.17712e-11
1.03123e-08
6.01161e-11
1.02929e-08
5.85839e-11
1.02739e-08
5.71681e-11
1.02553e-08
5.58623e-11
1.02371e-08
5.46606e-11
1.02193e-08
5.35574e-11
1.02018e-08
5.25471e-11
1.01847e-08
5.16245e-11
1.01678e-08
5.07849e-11
1.01511e-08
5.00233e-11
1.01347e-08
4.93354e-11
1.01185e-08
4.87171e-11
1.01025e-08
4.8164e-11
1.00866e-08
4.76726e-11
1.00709e-08
4.72393e-11
1.00553e-08
4.68604e-11
1.00398e-08
4.6533e-11
1.00244e-08
4.62539e-11
1.0009e-08
4.60201e-11
9.99377e-09
4.58289e-11
9.97856e-09
4.5678e-11
9.96338e-09
4.55648e-11
9.94823e-09
4.54872e-11
9.93309e-09
4.54429e-11
9.91795e-09
4.54302e-11
9.90281e-09
4.54472e-11
9.88766e-09
4.54924e-11
9.87247e-09
4.55642e-11
9.85726e-09
4.56614e-11
9.842e-09
4.5783e-11
9.8267e-09
4.59279e-11
9.81134e-09
4.60954e-11
9.79592e-09
4.62854e-11
9.78042e-09
4.64974e-11
9.76485e-09
4.67318e-11
9.74919e-09
4.69891e-11
9.73344e-09
4.72703e-11
9.71758e-09
4.75773e-11
9.70162e-09
4.79125e-11
9.68553e-09
4.82793e-11
9.66931e-09
4.86823e-11
9.65294e-09
4.91277e-11
9.63641e-09
4.96237e-11
9.61969e-09
5.01808e-11
9.60277e-09
5.08131e-11
9.58561e-09
5.15389e-11
9.56817e-09
5.23821e-11
9.5504e-09
5.33742e-11
9.53225e-09
5.45565e-11
9.51363e-09
5.59839e-11
9.49445e-09
5.77292e-11
9.47455e-09
5.98909e-11
9.45378e-09
6.26021e-11
9.43189e-09
6.6046e-11
9.40857e-09
7.04794e-11
9.38338e-09
7.62682e-11
9.35574e-09
8.39487e-11
9.32478e-09
9.43321e-11
9.2893e-09
1.08697e-10
9.24747e-09
1.29166e-10
9.19649e-09
1.595e-10
9.13193e-09
2.06924e-10
9.04706e-09
2.86693e-10
8.93519e-09
4.34023e-10
7.31475e-10
8.81989e-09
2.64265e-10
-9.73009e-10
5.30304e-10
-9.79343e-10
7.97853e-10
-9.8489e-10
1.06664e-09
-9.89633e-10
1.33638e-09
-9.93551e-10
1.6068e-09
-9.96642e-10
1.87761e-09
-9.98922e-10
2.14853e-09
-1.00042e-09
2.41927e-09
-1.00118e-09
2.68955e-09
-1.00125e-09
2.9591e-09
-1.00067e-09
3.22767e-09
-9.99498e-10
3.495e-09
-9.9777e-10
3.76085e-09
-9.95531e-10
4.02499e-09
-9.92819e-10
4.28722e-09
-9.89666e-10
4.54733e-09
-9.86096e-10
4.80516e-09
-9.8213e-10
5.06057e-09
-9.77788e-10
5.31345e-09
-9.73099e-10
5.56372e-09
-9.68107e-10
5.81133e-09
-9.62881e-10
6.05627e-09
-9.57518e-10
6.29854e-09
-9.52148e-10
6.53817e-09
-9.46935e-10
6.77522e-09
-9.42075e-10
7.00977e-09
-9.37795e-10
7.24195e-09
-9.34349e-10
7.47194e-09
-9.32015e-10
7.69999e-09
-9.31097e-10
7.92642e-09
-9.31922e-10
8.15169e-09
-9.34849e-10
8.37634e-09
-9.40274e-10
8.60104e-09
-9.48648e-10
8.82661e-09
-9.60493e-10
9.05399e-09
-9.7643e-10
9.28423e-09
-9.97208e-10
9.51851e-09
-1.02374e-09
9.7581e-09
-1.05715e-09
1.00043e-08
-1.09883e-09
1.02586e-08
-1.15049e-09
1.05224e-08
-1.21429e-09
1.0797e-08
-1.29295e-09
1.10835e-08
-1.3899e-09
1.13827e-08
-1.50954e-09
1.16943e-08
-1.65754e-09
1.20163e-08
-1.84121e-09
1.23446e-08
-2.0701e-09
1.26728e-08
-2.35693e-09
1.29999e-08
-2.72001e-09
1.33688e-08
-3.1915e-09
1.40206e-08
-3.84579e-09
1.41737e-08
-4.95947e-09
1.68623e-08
-1.01812e-09
1.63736e-08
1.99999e-09
1.60673e-08
1.62935e-09
1.57982e-08
1.43955e-09
1.55321e-08
1.32081e-09
1.52672e-08
1.22995e-09
1.50078e-08
1.1511e-09
1.4758e-08
1.07915e-09
1.45198e-08
1.01265e-09
1.42938e-08
9.51135e-10
1.408e-08
8.94308e-10
1.38777e-08
8.41813e-10
1.36865e-08
7.93267e-10
1.35056e-08
7.48286e-10
1.33345e-08
7.06517e-10
1.31724e-08
6.67644e-10
1.30189e-08
6.31388e-10
1.28734e-08
5.9751e-10
1.27354e-08
5.65796e-10
1.26046e-08
5.36062e-10
1.24804e-08
5.08144e-10
1.23626e-08
4.81898e-10
1.22507e-08
4.57195e-10
1.21444e-08
4.3392e-10
1.20434e-08
4.1197e-10
1.19474e-08
3.91253e-10
1.18562e-08
3.71685e-10
1.17695e-08
3.53192e-10
1.1687e-08
3.35706e-10
1.16086e-08
3.19165e-10
1.15339e-08
3.03513e-10
1.14629e-08
2.88699e-10
1.13953e-08
2.74676e-10
1.1331e-08
2.61401e-10
1.12697e-08
2.48833e-10
1.12113e-08
2.36938e-10
1.11557e-08
2.25678e-10
1.11027e-08
2.15024e-10
1.10522e-08
2.04945e-10
1.1004e-08
1.95413e-10
1.0958e-08
1.86401e-10
1.09141e-08
1.77884e-10
1.08721e-08
1.6984e-10
1.08321e-08
1.62245e-10
1.07938e-08
1.55078e-10
1.07571e-08
1.48318e-10
1.07221e-08
1.41948e-10
1.06884e-08
1.35947e-10
1.06562e-08
1.30299e-10
1.06253e-08
1.24987e-10
1.05956e-08
1.19993e-10
1.05671e-08
1.15304e-10
1.05396e-08
1.10905e-10
1.05132e-08
1.0678e-10
1.04877e-08
1.02917e-10
1.0463e-08
9.93028e-11
1.04393e-08
9.59246e-11
1.04163e-08
9.27708e-11
1.0394e-08
8.983e-11
1.03724e-08
8.70913e-11
1.03514e-08
8.4544e-11
1.0331e-08
8.21785e-11
1.03111e-08
7.99852e-11
1.02917e-08
7.79546e-11
1.02728e-08
7.60785e-11
1.02543e-08
7.43484e-11
1.02362e-08
7.27564e-11
1.02185e-08
7.12947e-11
1.02011e-08
6.99566e-11
1.0184e-08
6.87346e-11
1.01671e-08
6.76226e-11
1.01505e-08
6.66143e-11
1.01342e-08
6.57036e-11
1.0118e-08
6.48853e-11
1.0102e-08
6.41535e-11
1.00862e-08
6.35037e-11
1.00705e-08
6.29307e-11
1.00549e-08
6.24301e-11
1.00395e-08
6.19976e-11
1.00241e-08
6.16292e-11
1.00088e-08
6.13211e-11
9.99355e-09
6.10695e-11
9.97835e-09
6.08713e-11
9.9632e-09
6.07231e-11
9.94806e-09
6.0622e-11
9.93294e-09
6.05653e-11
9.91782e-09