/*--------------------------------*- C++ -*----------------------------------*\
  =========                 |
  \\      /  F ield         | OpenFOAM: The Open Source CFD Toolbox
   \\    /   O peration     | Website:  https://openfoam.org
    \\  /    A nd           | Version:  10
     \\/     M anipulation  |
\*---------------------------------------------------------------------------*/
FoamFile
{
    format      ascii;
    class       volScalarField;
    location    "2.3";
    object      Sb;
}
// * * * * * * * * * * * * * * * * * * * * * * * * * * * * * * * * * * * * * //

dimensions      [0 0 0 0 0 0 0];

internalField   nonuniform List<scalar> 
12225
(
0.875193
0.874208
0.872981
0.871638
0.870267
0.868924
0.867645
0.866452
0.865358
0.864372
0.863504
0.862765
0.862172
0.861755
0.861571
0.861748
0.862631
0.865271
0.886953
0.885707
0.884171
0.882508
0.880826
0.879194
0.877651
0.876222
0.874919
0.873752
0.872728
0.871857
0.871156
0.870655
0.870411
0.870536
0.871266
0.873004
0.89433
0.892867
0.891079
0.889158
0.887232
0.885375
0.883631
0.882022
0.880562
0.879257
0.878113
0.877139
0.87635
0.875771
0.875449
0.875465
0.875951
0.877021
0.900185
0.898511
0.896484
0.894323
0.89217
0.890107
0.88818
0.88641
0.884809
0.88338
0.882128
0.881057
0.88018
0.879516
0.879097
0.878972
0.879196
0.879764
0.905308
0.903417
0.901146
0.898744
0.896367
0.894103
0.891999
0.890073
0.888335
0.886786
0.885427
0.884259
0.883289
0.882529
0.881996
0.881711
0.881681
0.881857
0.910042
0.907917
0.905389
0.902736
0.90013
0.897662
0.895378
0.893296
0.89142
0.88975
0.888281
0.887011
0.885941
0.885074
0.884414
0.88396
0.883694
0.883554
0.914573
0.912191
0.909384
0.906466
0.903618
0.900938
0.898468
0.896224
0.894207
0.89241
0.890827
0.889448
0.88827
0.887286
0.886489
0.885865
0.885381
0.884979
0.919022
0.91635
0.913237
0.91003
0.906925
0.90402
0.901355
0.898942
0.896777
0.894848
0.893143
0.891648
0.890353
0.889243
0.888304
0.887511
0.886829
0.886205
0.923479
0.920473
0.917018
0.913495
0.910111
0.906965
0.904094
0.901502
0.89918
0.897111
0.895276
0.893658
0.892237
0.890996
0.889911
0.888955
0.888092
0.887277
0.928017
0.92462
0.920778
0.916904
0.913216
0.909809
0.906716
0.903935
0.901446
0.899229
0.897257
0.895507
0.893955
0.892577
0.891347
0.890234
0.889204
0.888222
0.932705
0.928844
0.924555
0.920288
0.916264
0.912575
0.909244
0.906259
0.903595
0.90122
0.899103
0.897214
0.895526
0.894009
0.892634
0.891371
0.890189
0.889058
0.937614
0.933188
0.928379
0.923666
0.91927
0.915273
0.911686
0.908486
0.905634
0.903093
0.900824
0.898791
0.896962
0.895304
0.893787
0.892381
0.891057
0.889791
0.942041
0.937016
0.93168
0.926529
0.921777
0.917493
0.91367
0.910272
0.907252
0.904561
0.902156
0.899995
0.898042
0.896264
0.894628
0.893107
0.891673
0.890304
0.947407
0.941546
0.935507
0.929791
0.924592
0.919953
0.915845
0.912212
0.908991
0.906125
0.903562
0.901255
0.899164
0.897254
0.895491
0.893847
0.892298
0.890821
0.954004
0.946932
0.93993
0.933471
0.927705
0.922629
0.918178
0.914267
0.910815
0.90775
0.90501
0.902542
0.900302
0.898249
0.896349
0.894573
0.892896
0.891299
0.962337
0.953437
0.945055
0.937585
0.931086
0.925472
0.920615
0.916389
0.912684
0.909408
0.906481
0.903839
0.901429
0.899208
0.897141
0.895199
0.893363
0.891614
0.974013
0.962335
0.951839
0.942924
0.935459
0.929162
0.923784
0.919131
0.915056
0.911431
0.908148
0.905156
0.902412
0.899879
0.897526
0.895329
0.893269
0.89133
0.958734
0.950665
0.943089
0.936226
0.930118
0.924714
0.91993
0.915676
0.91187
0.908453
0.905386
0.902576
0.899959
0.897518
0.895235
0.893097
0.891088
0.889197
0.943713
0.938234
0.932669
0.927365
0.922449
0.917951
0.913856
0.910128
0.906728
0.903615
0.900753
0.898134
0.895745
0.89352
0.891437
0.889481
0.887642
0.885907
0.932917
0.928913
0.924571
0.920249
0.916112
0.91223
0.908624
0.905288
0.902203
0.899348
0.8967
0.894237
0.891942
0.889834
0.887857
0.885995
0.884239
0.882582
0.923657
0.920593
0.917108
0.913518
0.909991
0.906614
0.903424
0.900432
0.897636
0.895024
0.892584
0.8903
0.88816
0.886153
0.884294
0.882543
0.880889
0.879326
0.915482
0.913047
0.910182
0.907151
0.904111
0.90115
0.898315
0.895626
0.893089
0.8907
0.888455
0.886342
0.884354
0.88248
0.880722
0.879076
0.87752
0.876047
0.908067
0.906076
0.903676
0.901083
0.898438
0.895825
0.893294
0.890871
0.888566
0.886382
0.884316
0.882364
0.88052
0.878775
0.877125
0.875578
0.874114
0.872728
0.901164
0.899503
0.897463
0.895221
0.892903
0.890586
0.888319
0.886131
0.884036
0.882038
0.880139
0.878337
0.876627
0.875006
0.873468
0.872014
0.870641
0.869339
0.894557
0.893152
0.8914
0.889449
0.887407
0.885346
0.883313
0.881336
0.879431
0.877605
0.875861
0.874199
0.872618
0.871113
0.869681
0.86832
0.867033
0.865811
0.888031
0.886834
0.88532
0.883615
0.881813
0.879979
0.878156
0.876371
0.874642
0.872977
0.871379
0.869851
0.868391
0.866998
0.86567
0.864403
0.863201
0.862057
0.881321
0.880297
0.878988
0.8775
0.875912
0.874284
0.872655
0.871051
0.869488
0.867976
0.866519
0.865121
0.86378
0.862497
0.86127
0.860097
0.85898
0.857915
0.874003
0.873132
0.872008
0.870717
0.869329
0.867896
0.866453
0.865024
0.863625
0.862264
0.860949
0.85968
0.858461
0.857289
0.856166
0.855089
0.854058
0.853075
0.865164
0.864438
0.86349
0.862393
0.861205
0.859969
0.858716
0.857469
0.85624
0.85504
0.853874
0.852746
0.851656
0.850606
0.849595
0.848623
0.847688
0.846795
0.851327
0.850754
0.849996
0.849109
0.84814
0.847122
0.846082
0.845038
0.844002
0.842983
0.841986
0.841015
0.840071
0.839157
0.838271
0.837415
0.836588
0.835798
0.753316
0.753353
0.753398
0.753447
0.753502
0.753562
0.753629
0.753705
0.753792
0.753894
0.754012
0.754151
0.754315
0.754506
0.75473
0.754992
0.755297
0.755652
0.756064
0.756541
0.757093
0.757729
0.758461
0.759301
0.76026
0.761352
0.762588
0.763978
0.765528
0.767238
0.769097
0.771083
0.77316
0.77528
0.777384
0.779411
0.781305
0.78302
0.784523
0.785798
0.786837
0.78764
0.788202
0.78851
0.788525
0.788157
0.787195
0.785129
0.780456
0.766653
0.647715
0.0369839
1.60289e-06
1.1e-06
1.1e-06
1.1e-06
1.1e-06
1.1e-06
1.1e-06
1.1e-06
1.1e-06
1.1e-06
1.1e-06
1.1e-06
1.1e-06
1.1e-06
1.1e-06
1.1e-06
1.1e-06
1.1e-06
1.1e-06
1.1e-06
1.1e-06
1.1e-06
1.1e-06
1.1e-06
1.1e-06
1.1e-06
1.1e-06
1.1e-06
1.1e-06
1.1e-06
1.1e-06
1.1e-06
1.1e-06
1.1e-06
1.1e-06
1.1e-06
1.1e-06
1.1e-06
1.1e-06
1.1e-06
1.1e-06
1.1e-06
1.1e-06
1.1e-06
1.1e-06
1.1e-06
1.1e-06
1.1e-06
1.1e-06
1.1e-06
1.1e-06
1.1e-06
1.1e-06
1.1e-06
1.1e-06
1.1e-06
1.1e-06
1.1e-06
1.1e-06
1.1e-06
1.1e-06
1.1e-06
1.1e-06
1.1e-06
1.1e-06
1.1e-06
1.1e-06
1.1e-06
1.1e-06
1.1e-06
1.1e-06
1.1e-06
1.1e-06
1.1e-06
1.1e-06
1.1e-06
1.1e-06
1.1e-06
1.1e-06
1.1e-06
1.1e-06
1.1e-06
1.1e-06
1.1e-06
1.1e-06
1.1e-06
1.1e-06
1.1e-06
1.1e-06
1.1e-06
1.1e-06
1.1e-06
1.1e-06
1.1e-06
1.1e-06
1.1e-06
1.1e-06
1.1e-06
1.1e-06
1.1e-06
1.1e-06
1.1e-06
1.1e-06
1.1e-06
1.1e-06
1.1e-06
1.1e-06
1.1e-06
1.1e-06
1.1e-06
1.1e-06
1.1e-06
1.1e-06
1.1e-06
1.1e-06
1.1e-06
1.1e-06
1.1e-06
1.1e-06
1.1e-06
1.1e-06
1.1e-06
1.1e-06
1.1e-06
1.1e-06
1.1e-06
1.1e-06
1.1e-06
0.803917
0.803963
0.80402
0.804088
0.804164
0.804253
0.804365
0.804511
0.804703
0.804952
0.805268
0.805658
0.806125
0.806673
0.8073
0.807998
0.808758
0.809563
0.810392
0.811221
0.812026
0.812782
0.813466
0.81406
0.814548
0.814921
0.815171
0.815297
0.815299
0.815181
0.814951
0.814614
0.814179
0.813653
0.813041
0.812349
0.811583
0.810747
0.809844
0.808877
0.807845
0.806743
0.805561
0.804273
0.802832
0.801147
0.79904
0.796123
0.791412
0.781493
0.741423
0.213418
5.96787e-05
1.1e-06
1.1e-06
1.1e-06
1.1e-06
1.1e-06
1.1e-06
1.1e-06
1.1e-06
1.1e-06
1.1e-06
1.1e-06
1.1e-06
1.1e-06
1.1e-06
1.1e-06
1.1e-06
1.1e-06
1.1e-06
1.1e-06
1.1e-06
1.1e-06
1.1e-06
1.1e-06
1.1e-06
1.1e-06
1.1e-06
1.1e-06
1.1e-06
1.1e-06
1.1e-06
1.1e-06
1.1e-06
1.1e-06
1.1e-06
1.1e-06
1.1e-06
1.1e-06
1.1e-06
1.1e-06
1.1e-06
1.1e-06
1.1e-06
1.1e-06
1.1e-06
1.1e-06
1.1e-06
1.1e-06
1.1e-06
1.1e-06
1.1e-06
1.1e-06
1.1e-06
1.1e-06
1.1e-06
1.1e-06
1.1e-06
1.1e-06
1.1e-06
1.1e-06
1.1e-06
1.1e-06
1.1e-06
1.1e-06
1.1e-06
1.1e-06
1.1e-06
1.1e-06
1.1e-06
1.1e-06
1.1e-06
1.1e-06
1.1e-06
1.1e-06
1.1e-06
1.1e-06
1.1e-06
1.1e-06
1.1e-06
1.1e-06
1.1e-06
1.1e-06
1.1e-06
1.1e-06
1.1e-06
1.1e-06
1.1e-06
1.1e-06
1.1e-06
1.1e-06
1.1e-06
1.1e-06
1.1e-06
1.1e-06
1.1e-06
1.1e-06
1.1e-06
1.1e-06
1.1e-06
1.1e-06
1.1e-06
1.1e-06
1.1e-06
1.1e-06
1.1e-06
1.1e-06
1.1e-06
1.1e-06
1.1e-06
1.1e-06
1.1e-06
1.1e-06
1.1e-06
1.1e-06
1.1e-06
1.1e-06
1.1e-06
1.1e-06
1.1e-06
1.1e-06
1.1e-06
1.1e-06
1.1e-06
1.1e-06
1.1e-06
1.1e-06
1.1e-06
1.1e-06
0.816281
0.816336
0.816391
0.816447
0.8165
0.816555
0.816619
0.816705
0.816824
0.816987
0.817202
0.817478
0.817819
0.818228
0.818704
0.819244
0.819836
0.820468
0.821116
0.821757
0.822363
0.822906
0.823361
0.823708
0.82393
0.824019
0.82397
0.823784
0.823465
0.823022
0.822464
0.821801
0.821046
0.820207
0.819297
0.818325
0.817298
0.816225
0.815111
0.813961
0.812773
0.811545
0.810262
0.808903
0.807423
0.805747
0.803736
0.801115
0.797267
0.790451
0.773118
0.614967
0.01389
1.10392e-06
1.1e-06
1.1e-06
1.1e-06
1.1e-06
1.1e-06
1.1e-06
1.1e-06
1.1e-06
1.1e-06
1.1e-06
1.1e-06
1.1e-06
1.1e-06
1.1e-06
1.1e-06
1.1e-06
1.1e-06
1.1e-06
1.1e-06
1.1e-06
1.1e-06
1.1e-06
1.1e-06
1.1e-06
1.1e-06
1.1e-06
1.1e-06
1.1e-06
1.1e-06
1.1e-06
1.1e-06
1.1e-06
1.1e-06
1.1e-06
1.1e-06
1.1e-06
1.1e-06
1.1e-06
1.1e-06
1.1e-06
1.1e-06
1.1e-06
1.1e-06
1.1e-06
1.1e-06
1.1e-06
1.1e-06
1.1e-06
1.1e-06
1.1e-06
1.1e-06
1.1e-06
1.1e-06
1.1e-06
1.1e-06
1.1e-06
1.1e-06
1.1e-06
1.1e-06
1.1e-06
1.1e-06
1.1e-06
1.1e-06
1.1e-06
1.1e-06
1.1e-06
1.1e-06
1.1e-06
1.1e-06
1.1e-06
1.1e-06
1.1e-06
1.1e-06
1.1e-06
1.1e-06
1.1e-06
1.1e-06
1.1e-06
1.1e-06
1.1e-06
1.1e-06
1.1e-06
1.1e-06
1.1e-06
1.1e-06
1.1e-06
1.1e-06
1.1e-06
1.1e-06
1.1e-06
1.1e-06
1.1e-06
1.1e-06
1.1e-06
1.1e-06
1.1e-06
1.1e-06
1.1e-06
1.1e-06
1.1e-06
1.1e-06
1.1e-06
1.1e-06
1.1e-06
1.1e-06
1.1e-06
1.1e-06
1.1e-06
1.1e-06
1.1e-06
1.1e-06
1.1e-06
1.1e-06
1.1e-06
1.1e-06
1.1e-06
1.1e-06
1.1e-06
1.1e-06
1.1e-06
1.1e-06
1.1e-06
1.1e-06
1.1e-06
1.1e-06
1.1e-06
0.823251
0.82333
0.823401
0.823465
0.82352
0.823565
0.823604
0.823641
0.823682
0.823732
0.823795
0.823875
0.823972
0.824087
0.82422
0.824368
0.824527
0.82469
0.824849
0.824993
0.825113
0.825197
0.825236
0.82522
0.825142
0.824996
0.824778
0.824485
0.824116
0.823673
0.823159
0.822577
0.821933
0.821231
0.820477
0.819677
0.818835
0.817955
0.817039
0.816086
0.815093
0.814052
0.812948
0.81176
0.810448
0.808952
0.80717
0.804915
0.80181
0.796946
0.787416
0.755773
0.315575
0.00020944
1.1e-06
1.1e-06
1.1e-06
1.1e-06
1.1e-06
1.1e-06
1.1e-06
1.1e-06
1.1e-06
1.1e-06
1.1e-06
1.1e-06
1.1e-06
1.1e-06
1.1e-06
1.1e-06
1.1e-06
1.1e-06
1.1e-06
1.1e-06
1.1e-06
1.1e-06
1.1e-06
1.1e-06
1.1e-06
1.1e-06
1.1e-06
1.1e-06
1.1e-06
1.1e-06
1.1e-06
1.1e-06
1.1e-06
1.1e-06
1.1e-06
1.1e-06
1.1e-06
1.1e-06
1.1e-06
1.1e-06
1.1e-06
1.1e-06
1.1e-06
1.1e-06
1.1e-06
1.1e-06
1.1e-06
1.1e-06
1.1e-06
1.1e-06
1.1e-06
1.1e-06
1.1e-06
1.1e-06
1.1e-06
1.1e-06
1.1e-06
1.1e-06
1.1e-06
1.1e-06
1.1e-06
1.1e-06
1.1e-06
1.1e-06
1.1e-06
1.1e-06
1.1e-06
1.1e-06
1.1e-06
1.1e-06
1.1e-06
1.1e-06
1.1e-06
1.1e-06
1.1e-06
1.1e-06
1.1e-06
1.1e-06
1.1e-06
1.1e-06
1.1e-06
1.1e-06
1.1e-06
1.1e-06
1.1e-06
1.1e-06
1.1e-06
1.1e-06
1.1e-06
1.1e-06
1.1e-06
1.1e-06
1.1e-06
1.1e-06
1.1e-06
1.1e-06
1.1e-06
1.1e-06
1.1e-06
1.1e-06
1.1e-06
1.1e-06
1.1e-06
1.1e-06
1.1e-06
1.1e-06
1.1e-06
1.1e-06
1.1e-06
1.1e-06
1.1e-06
1.1e-06
1.1e-06
1.1e-06
1.1e-06
1.1e-06
1.1e-06
1.1e-06
1.1e-06
1.1e-06
1.1e-06
1.1e-06
1.1e-06
1.1e-06
1.1e-06
1.1e-06
0.828292
0.828403
0.828499
0.828581
0.828648
0.828697
0.82873
0.828748
0.828754
0.82875
0.828739
0.828722
0.828699
0.828671
0.828638
0.828598
0.82855
0.828491
0.828417
0.828325
0.82821
0.828068
0.827894
0.827685
0.827437
0.827146
0.82681
0.826428
0.825997
0.825519
0.824994
0.824424
0.823809
0.823153
0.822459
0.821727
0.82096
0.820159
0.819323
0.818449
0.817533
0.816566
0.815535
0.814419
0.813188
0.811795
0.810166
0.808175
0.80559
0.80192
0.795899
0.782932
0.721887
0.119631
1.35024e-05
1.1e-06
1.1e-06
1.1e-06
1.1e-06
1.1e-06
1.1e-06
1.1e-06
1.1e-06
1.1e-06
1.1e-06
1.1e-06
1.1e-06
1.1e-06
1.1e-06
1.1e-06
1.1e-06
1.1e-06
1.1e-06
1.1e-06
1.1e-06
1.1e-06
1.1e-06
1.1e-06
1.1e-06
1.1e-06
1.1e-06
1.1e-06
1.1e-06
1.1e-06
1.1e-06
1.1e-06
1.1e-06
1.1e-06
1.1e-06
1.1e-06
1.1e-06
1.1e-06
1.1e-06
1.1e-06
1.1e-06
1.1e-06
1.1e-06
1.1e-06
1.1e-06
1.1e-06
1.1e-06
1.1e-06
1.1e-06
1.1e-06
1.1e-06
1.1e-06
1.1e-06
1.1e-06
1.1e-06
1.1e-06
1.1e-06
1.1e-06
1.1e-06
1.1e-06
1.1e-06
1.1e-06
1.1e-06
1.1e-06
1.1e-06
1.1e-06
1.1e-06
1.1e-06
1.1e-06
1.1e-06
1.1e-06
1.1e-06
1.1e-06
1.1e-06
1.1e-06
1.1e-06
1.1e-06
1.1e-06
1.1e-06
1.1e-06
1.1e-06
1.1e-06
1.1e-06
1.1e-06
1.1e-06
1.1e-06
1.1e-06
1.1e-06
1.1e-06
1.1e-06
1.1e-06
1.1e-06
1.1e-06
1.1e-06
1.1e-06
1.1e-06
1.1e-06
1.1e-06
1.1e-06
1.1e-06
1.1e-06
1.1e-06
1.1e-06
1.1e-06
1.1e-06
1.1e-06
1.1e-06
1.1e-06
1.1e-06
1.1e-06
1.1e-06
1.1e-06
1.1e-06
1.1e-06
1.1e-06
1.1e-06
1.1e-06
1.1e-06
1.1e-06
1.1e-06
1.1e-06
1.1e-06
1.1e-06
1.1e-06
1.1e-06
1.1e-06
0.83237
0.832518
0.832644
0.83275
0.832834
0.832895
0.832932
0.832947
0.832939
0.83291
0.832861
0.832793
0.832706
0.832601
0.832477
0.832334
0.832173
0.831991
0.831788
0.831563
0.831315
0.831041
0.83074
0.83041
0.83005
0.829659
0.829235
0.828778
0.828287
0.827762
0.827203
0.826611
0.825986
0.825329
0.824641
0.823923
0.823174
0.822393
0.821579
0.820729
0.819836
0.818893
0.817889
0.816806
0.81562
0.814296
0.81278
0.810987
0.808769
0.805848
0.801608
0.794375
0.777296
0.652983
0.0284138
1.32905e-06
1.1e-06
1.1e-06
1.1e-06
1.1e-06
1.1e-06
1.1e-06
1.1e-06
1.1e-06
1.1e-06
1.1e-06
1.1e-06
1.1e-06
1.1e-06
1.1e-06
1.1e-06
1.1e-06
1.1e-06
1.1e-06
1.1e-06
1.1e-06
1.1e-06
1.1e-06
1.1e-06
1.1e-06
1.1e-06
1.1e-06
1.1e-06
1.1e-06
1.1e-06
1.1e-06
1.1e-06
1.1e-06
1.1e-06
1.1e-06
1.1e-06
1.1e-06
1.1e-06
1.1e-06
1.1e-06
1.1e-06
1.1e-06
1.1e-06
1.1e-06
1.1e-06
1.1e-06
1.1e-06
1.1e-06
1.1e-06
1.1e-06
1.1e-06
1.1e-06
1.1e-06
1.1e-06
1.1e-06
1.1e-06
1.1e-06
1.1e-06
1.1e-06
1.1e-06
1.1e-06
1.1e-06
1.1e-06
1.1e-06
1.1e-06
1.1e-06
1.1e-06
1.1e-06
1.1e-06
1.1e-06
1.1e-06
1.1e-06
1.1e-06
1.1e-06
1.1e-06
1.1e-06
1.1e-06
1.1e-06
1.1e-06
1.1e-06
1.1e-06
1.1e-06
1.1e-06
1.1e-06
1.1e-06
1.1e-06
1.1e-06
1.1e-06
1.1e-06
1.1e-06
1.1e-06
1.1e-06
1.1e-06
1.1e-06
1.1e-06
1.1e-06
1.1e-06
1.1e-06
1.1e-06
1.1e-06
1.1e-06
1.1e-06
1.1e-06
1.1e-06
1.1e-06
1.1e-06
1.1e-06
1.1e-06
1.1e-06
1.1e-06
1.1e-06
1.1e-06
1.1e-06
1.1e-06
1.1e-06
1.1e-06
1.1e-06
1.1e-06
1.1e-06
1.1e-06
1.1e-06
1.1e-06
1.1e-06
1.1e-06
1.1e-06
0.835886
0.836072
0.836232
0.836365
0.836471
0.836548
0.836596
0.836614
0.836603
0.836562
0.836493
0.836395
0.83627
0.836117
0.835937
0.835731
0.835499
0.835241
0.834957
0.834647
0.834311
0.833949
0.833561
0.833147
0.832706
0.832238
0.831743
0.831221
0.830672
0.830096
0.829494
0.828864
0.828209
0.827527
0.826819
0.826084
0.825322
0.824532
0.82371
0.822854
0.821958
0.821015
0.820016
0.818947
0.817788
0.816513
0.815082
0.813437
0.81148
0.809044
0.805798
0.800991
0.79244
0.769869
0.517991
0.00320268
1.1e-06
1.1e-06
1.1e-06
1.1e-06
1.1e-06
1.1e-06
1.1e-06
1.1e-06
1.1e-06
1.1e-06
1.1e-06
1.1e-06
1.1e-06
1.1e-06
1.1e-06
1.1e-06
1.1e-06
1.1e-06
1.1e-06
1.1e-06
1.1e-06
1.1e-06
1.1e-06
1.1e-06
1.1e-06
1.1e-06
1.1e-06
1.1e-06
1.1e-06
1.1e-06
1.1e-06
1.1e-06
1.1e-06
1.1e-06
1.1e-06
1.1e-06
1.1e-06
1.1e-06
1.1e-06
1.1e-06
1.1e-06
1.1e-06
1.1e-06
1.1e-06
1.1e-06
1.1e-06
1.1e-06
1.1e-06
1.1e-06
1.1e-06
1.1e-06
1.1e-06
1.1e-06
1.1e-06
1.1e-06
1.1e-06
1.1e-06
1.1e-06
1.1e-06
1.1e-06
1.1e-06
1.1e-06
1.1e-06
1.1e-06
1.1e-06
1.1e-06
1.1e-06
1.1e-06
1.1e-06
1.1e-06
1.1e-06
1.1e-06
1.1e-06
1.1e-06
1.1e-06
1.1e-06
1.1e-06
1.1e-06
1.1e-06
1.1e-06
1.1e-06
1.1e-06
1.1e-06
1.1e-06
1.1e-06
1.1e-06
1.1e-06
1.1e-06
1.1e-06
1.1e-06
1.1e-06
1.1e-06
1.1e-06
1.1e-06
1.1e-06
1.1e-06
1.1e-06
1.1e-06
1.1e-06
1.1e-06
1.1e-06
1.1e-06
1.1e-06
1.1e-06
1.1e-06
1.1e-06
1.1e-06
1.1e-06
1.1e-06
1.1e-06
1.1e-06
1.1e-06
1.1e-06
1.1e-06
1.1e-06
1.1e-06
1.1e-06
1.1e-06
1.1e-06
1.1e-06
1.1e-06
1.1e-06
1.1e-06
1.1e-06
0.839042
0.839268
0.839463
0.839627
0.839758
0.839854
0.839915
0.839941
0.83993
0.839884
0.839801
0.839684
0.839532
0.839346
0.839127
0.838875
0.838592
0.838278
0.837934
0.837562
0.837161
0.836732
0.836277
0.835796
0.835289
0.834757
0.8342
0.833619
0.833014
0.832386
0.831735
0.831062
0.830365
0.829646
0.828905
0.828139
0.82735
0.826534
0.82569
0.824814
0.823902
0.822947
0.821943
0.820876
0.819734
0.818494
0.817128
0.815594
0.813825
0.811715
0.809069
0.805501
0.800085
0.789928
0.758568
0.350383
0.000347515
1.1e-06
1.1e-06
1.1e-06
1.1e-06
1.1e-06
1.1e-06
1.1e-06
1.1e-06
1.1e-06
1.1e-06
1.1e-06
1.1e-06
1.1e-06
1.1e-06
1.1e-06
1.1e-06
1.1e-06
1.1e-06
1.1e-06
1.1e-06
1.1e-06
1.1e-06
1.1e-06
1.1e-06
1.1e-06
1.1e-06
1.1e-06
1.1e-06
1.1e-06
1.1e-06
1.1e-06
1.1e-06
1.1e-06
1.1e-06
1.1e-06
1.1e-06
1.1e-06
1.1e-06
1.1e-06
1.1e-06
1.1e-06
1.1e-06
1.1e-06
1.1e-06
1.1e-06
1.1e-06
1.1e-06
1.1e-06
1.1e-06
1.1e-06
1.1e-06
1.1e-06
1.1e-06
1.1e-06
1.1e-06
1.1e-06
1.1e-06
1.1e-06
1.1e-06
1.1e-06
1.1e-06
1.1e-06
1.1e-06
1.1e-06
1.1e-06
1.1e-06
1.1e-06
1.1e-06
1.1e-06
1.1e-06
1.1e-06
1.1e-06
1.1e-06
1.1e-06
1.1e-06
1.1e-06
1.1e-06
1.1e-06
1.1e-06
1.1e-06
1.1e-06
1.1e-06
1.1e-06
1.1e-06
1.1e-06
1.1e-06
1.1e-06
1.1e-06
1.1e-06
1.1e-06
1.1e-06
1.1e-06
1.1e-06
1.1e-06
1.1e-06
1.1e-06
1.1e-06
1.1e-06
1.1e-06
1.1e-06
1.1e-06
1.1e-06
1.1e-06
1.1e-06
1.1e-06
1.1e-06
1.1e-06
1.1e-06
1.1e-06
1.1e-06
1.1e-06
1.1e-06
1.1e-06
1.1e-06
1.1e-06
1.1e-06
1.1e-06
1.1e-06
1.1e-06
1.1e-06
1.1e-06
1.1e-06
1.1e-06
0.841954
0.842221
0.842454
0.842649
0.842807
0.842924
0.843
0.843035
0.843027
0.842977
0.842885
0.842752
0.842578
0.842364
0.842112
0.841823
0.841497
0.841137
0.840743
0.840317
0.839861
0.839376
0.838863
0.838323
0.837757
0.837167
0.836553
0.835916
0.835258
0.834578
0.833877
0.833156
0.832415
0.831654
0.830872
0.830069
0.829244
0.828396
0.827522
0.82662
0.825686
0.824714
0.823698
0.822629
0.821496
0.820281
0.818964
0.817512
0.815881
0.813996
0.811738
0.808882
0.804969
0.798847
0.786588
0.73944
0.196591
5.23557e-05
1.1e-06
1.1e-06
1.1e-06
1.1e-06
1.1e-06
1.1e-06
1.1e-06
1.1e-06
1.1e-06
1.1e-06
1.1e-06
1.1e-06
1.1e-06
1.1e-06
1.1e-06
1.1e-06
1.1e-06
1.1e-06
1.1e-06
1.1e-06
1.1e-06
1.1e-06
1.1e-06
1.1e-06
1.1e-06
1.1e-06
1.1e-06
1.1e-06
1.1e-06
1.1e-06
1.1e-06
1.1e-06
1.1e-06
1.1e-06
1.1e-06
1.1e-06
1.1e-06
1.1e-06
1.1e-06
1.1e-06
1.1e-06
1.1e-06
1.1e-06
1.1e-06
1.1e-06
1.1e-06
1.1e-06
1.1e-06
1.1e-06
1.1e-06
1.1e-06
1.1e-06
1.1e-06
1.1e-06
1.1e-06
1.1e-06
1.1e-06
1.1e-06
1.1e-06
1.1e-06
1.1e-06
1.1e-06
1.1e-06
1.1e-06
1.1e-06
1.1e-06
1.1e-06
1.1e-06
1.1e-06
1.1e-06
1.1e-06
1.1e-06
1.1e-06
1.1e-06
1.1e-06
1.1e-06
1.1e-06
1.1e-06
1.1e-06
1.1e-06
1.1e-06
1.1e-06
1.1e-06
1.1e-06
1.1e-06
1.1e-06
1.1e-06
1.1e-06
1.1e-06
1.1e-06
1.1e-06
1.1e-06
1.1e-06
1.1e-06
1.1e-06
1.1e-06
1.1e-06
1.1e-06
1.1e-06
1.1e-06
1.1e-06
1.1e-06
1.1e-06
1.1e-06
1.1e-06
1.1e-06
1.1e-06
1.1e-06
1.1e-06
1.1e-06
1.1e-06
1.1e-06
1.1e-06
1.1e-06
1.1e-06
1.1e-06
1.1e-06
1.1e-06
1.1e-06
1.1e-06
1.1e-06
1.1e-06
0.844689
0.844999
0.845271
0.8455
0.845686
0.845826
0.845918
0.845963
0.845958
0.845906
0.845805
0.845657
0.845462
0.845222
0.844939
0.844614
0.844248
0.843844
0.843404
0.842929
0.842422
0.841884
0.841316
0.840722
0.840101
0.839456
0.838787
0.838097
0.837385
0.836654
0.835903
0.835134
0.834346
0.83354
0.832716
0.831872
0.83101
0.830126
0.82922
0.828289
0.827329
0.826337
0.825307
0.824232
0.823102
0.821904
0.820623
0.819234
0.817703
0.815979
0.813983
0.811575
0.808497
0.804193
0.797208
0.782052
0.701608
0.0759512
5.28936e-06
1.1e-06
1.1e-06
1.1e-06
1.1e-06
1.1e-06
1.1e-06
1.1e-06
1.1e-06
1.1e-06
1.1e-06
1.1e-06
1.1e-06
1.1e-06
1.1e-06
1.1e-06
1.1e-06
1.1e-06
1.1e-06
1.1e-06
1.1e-06
1.1e-06
1.1e-06
1.1e-06
1.1e-06
1.1e-06
1.1e-06
1.1e-06
1.1e-06
1.1e-06
1.1e-06
1.1e-06
1.1e-06
1.1e-06
1.1e-06
1.1e-06
1.1e-06
1.1e-06
1.1e-06
1.1e-06
1.1e-06
1.1e-06
1.1e-06
1.1e-06
1.1e-06
1.1e-06
1.1e-06
1.1e-06
1.1e-06
1.1e-06
1.1e-06
1.1e-06
1.1e-06
1.1e-06
1.1e-06
1.1e-06
1.1e-06
1.1e-06
1.1e-06
1.1e-06
1.1e-06
1.1e-06
1.1e-06
1.1e-06
1.1e-06
1.1e-06
1.1e-06
1.1e-06
1.1e-06
1.1e-06
1.1e-06
1.1e-06
1.1e-06
1.1e-06
1.1e-06
1.1e-06
1.1e-06
1.1e-06
1.1e-06
1.1e-06
1.1e-06
1.1e-06
1.1e-06
1.1e-06
1.1e-06
1.1e-06
1.1e-06
1.1e-06
1.1e-06
1.1e-06
1.1e-06
1.1e-06
1.1e-06
1.1e-06
1.1e-06
1.1e-06
1.1e-06
1.1e-06
1.1e-06
1.1e-06
1.1e-06
1.1e-06
1.1e-06
1.1e-06
1.1e-06
1.1e-06
1.1e-06
1.1e-06
1.1e-06
1.1e-06
1.1e-06
1.1e-06
1.1e-06
1.1e-06
1.1e-06
1.1e-06
1.1e-06
1.1e-06
1.1e-06
1.1e-06
1.1e-06
1.1e-06
0.847285
0.847642
0.847955
0.848221
0.848437
0.8486
0.84871
0.848765
0.848765
0.848709
0.848599
0.848435
0.848219
0.847952
0.847637
0.847276
0.84687
0.846423
0.845937
0.845413
0.844855
0.844265
0.843645
0.842997
0.842322
0.841623
0.840901
0.840158
0.839394
0.838612
0.837811
0.836994
0.836159
0.835308
0.83444
0.833556
0.832654
0.831734
0.830795
0.829833
0.828848
0.827834
0.826788
0.825703
0.824573
0.823387
0.822132
0.820789
0.819333
0.817728
0.815915
0.813804
0.811237
0.807907
0.803133
0.79502
0.775462
0.607692
0.0131178
1.10638e-06
1.1e-06
1.1e-06
1.1e-06
1.1e-06
1.1e-06
1.1e-06
1.1e-06
1.1e-06
1.1e-06
1.1e-06
1.1e-06
1.1e-06
1.1e-06
1.1e-06
1.1e-06
1.1e-06
1.1e-06
1.1e-06
1.1e-06
1.1e-06
1.1e-06
1.1e-06
1.1e-06
1.1e-06
1.1e-06
1.1e-06
1.1e-06
1.1e-06
1.1e-06
1.1e-06
1.1e-06
1.1e-06
1.1e-06
1.1e-06
1.1e-06
1.1e-06
1.1e-06
1.1e-06
1.1e-06
1.1e-06
1.1e-06
1.1e-06
1.1e-06
1.1e-06
1.1e-06
1.1e-06
1.1e-06
1.1e-06
1.1e-06
1.1e-06
1.1e-06
1.1e-06
1.1e-06
1.1e-06
1.1e-06
1.1e-06
1.1e-06
1.1e-06
1.1e-06
1.1e-06
1.1e-06
1.1e-06
1.1e-06
1.1e-06
1.1e-06
1.1e-06
1.1e-06
1.1e-06
1.1e-06
1.1e-06
1.1e-06
1.1e-06
1.1e-06
1.1e-06
1.1e-06
1.1e-06
1.1e-06
1.1e-06
1.1e-06
1.1e-06
1.1e-06
1.1e-06
1.1e-06
1.1e-06
1.1e-06
1.1e-06
1.1e-06
1.1e-06
1.1e-06
1.1e-06
1.1e-06
1.1e-06
1.1e-06
1.1e-06
1.1e-06
1.1e-06
1.1e-06
1.1e-06
1.1e-06
1.1e-06
1.1e-06
1.1e-06
1.1e-06
1.1e-06
1.1e-06
1.1e-06
1.1e-06
1.1e-06
1.1e-06
1.1e-06
1.1e-06
1.1e-06
1.1e-06
1.1e-06
1.1e-06
1.1e-06
1.1e-06
1.1e-06
1.1e-06
1.1e-06
0.849767
0.850173
0.850531
0.850835
0.851084
0.851273
0.851401
0.851467
0.851471
0.851411
0.851291
0.85111
0.85087
0.850575
0.850226
0.849827
0.84938
0.848887
0.848353
0.847781
0.847171
0.846529
0.845856
0.845154
0.844426
0.843673
0.842898
0.842103
0.841288
0.840456
0.839606
0.838741
0.83786
0.836964
0.836054
0.835129
0.834188
0.833232
0.832259
0.831268
0.830255
0.829219
0.828156
0.827061
0.825927
0.824748
0.823511
0.822203
0.820804
0.819285
0.817606
0.815703
0.81347
0.810721
0.807086
0.801697
0.791927
0.763925
0.405256
0.000706482
1.1e-06
1.1e-06
1.1e-06
1.1e-06
1.1e-06
1.1e-06
1.1e-06
1.1e-06
1.1e-06
1.1e-06
1.1e-06
1.1e-06
1.1e-06
1.1e-06
1.1e-06
1.1e-06
1.1e-06
1.1e-06
1.1e-06
1.1e-06
1.1e-06
1.1e-06
1.1e-06
1.1e-06
1.1e-06
1.1e-06
1.1e-06
1.1e-06
1.1e-06
1.1e-06
1.1e-06
1.1e-06
1.1e-06
1.1e-06
1.1e-06
1.1e-06
1.1e-06
1.1e-06
1.1e-06
1.1e-06
1.1e-06
1.1e-06
1.1e-06
1.1e-06
1.1e-06
1.1e-06
1.1e-06
1.1e-06
1.1e-06
1.1e-06
1.1e-06
1.1e-06
1.1e-06
1.1e-06
1.1e-06
1.1e-06
1.1e-06
1.1e-06
1.1e-06
1.1e-06
1.1e-06
1.1e-06
1.1e-06
1.1e-06
1.1e-06
1.1e-06
1.1e-06
1.1e-06
1.1e-06
1.1e-06
1.1e-06
1.1e-06
1.1e-06
1.1e-06
1.1e-06
1.1e-06
1.1e-06
1.1e-06
1.1e-06
1.1e-06
1.1e-06
1.1e-06
1.1e-06
1.1e-06
1.1e-06
1.1e-06
1.1e-06
1.1e-06
1.1e-06
1.1e-06
1.1e-06
1.1e-06
1.1e-06
1.1e-06
1.1e-06
1.1e-06
1.1e-06
1.1e-06
1.1e-06
1.1e-06
1.1e-06
1.1e-06
1.1e-06
1.1e-06
1.1e-06
1.1e-06
1.1e-06
1.1e-06
1.1e-06
1.1e-06
1.1e-06
1.1e-06
1.1e-06
1.1e-06
1.1e-06
1.1e-06
1.1e-06
1.1e-06
1.1e-06
1.1e-06
0.852144
0.852605
0.853011
0.853358
0.853642
0.853859
0.854007
0.854084
0.854091
0.854027
0.853894
0.853694
0.853429
0.853102
0.852717
0.852277
0.851785
0.851246
0.850662
0.850038
0.849376
0.84868
0.847953
0.847198
0.846416
0.84561
0.844783
0.843937
0.843072
0.84219
0.841292
0.84038
0.839455
0.838516
0.837564
0.836599
0.835621
0.83463
0.833624
0.832602
0.831564
0.830505
0.829424
0.828317
0.827178
0.826
0.824776
0.823494
0.822137
0.820685
0.819105
0.817351
0.81535
0.812978
0.810011
0.805983
0.799737
0.78733
0.739671
0.185084
4.70321e-05
1.1e-06
1.1e-06
1.1e-06
1.1e-06
1.1e-06
1.1e-06
1.1e-06
1.1e-06
1.1e-06
1.1e-06
1.1e-06
1.1e-06
1.1e-06
1.1e-06
1.1e-06
1.1e-06
1.1e-06
1.1e-06
1.1e-06
1.1e-06
1.1e-06
1.1e-06
1.1e-06
1.1e-06
1.1e-06
1.1e-06
1.1e-06
1.1e-06
1.1e-06
1.1e-06
1.1e-06
1.1e-06
1.1e-06
1.1e-06
1.1e-06
1.1e-06
1.1e-06
1.1e-06
1.1e-06
1.1e-06
1.1e-06
1.1e-06
1.1e-06
1.1e-06
1.1e-06
1.1e-06
1.1e-06
1.1e-06
1.1e-06
1.1e-06
1.1e-06
1.1e-06
1.1e-06
1.1e-06
1.1e-06
1.1e-06
1.1e-06
1.1e-06
1.1e-06
1.1e-06
1.1e-06
1.1e-06
1.1e-06
1.1e-06
1.1e-06
1.1e-06
1.1e-06
1.1e-06
1.1e-06
1.1e-06
1.1e-06
1.1e-06
1.1e-06
1.1e-06
1.1e-06
1.1e-06
1.1e-06
1.1e-06
1.1e-06
1.1e-06
1.1e-06
1.1e-06
1.1e-06
1.1e-06
1.1e-06
1.1e-06
1.1e-06
1.1e-06
1.1e-06
1.1e-06
1.1e-06
1.1e-06
1.1e-06
1.1e-06
1.1e-06
1.1e-06
1.1e-06
1.1e-06
1.1e-06
1.1e-06
1.1e-06
1.1e-06
1.1e-06
1.1e-06
1.1e-06
1.1e-06
1.1e-06
1.1e-06
1.1e-06
1.1e-06
1.1e-06
1.1e-06
1.1e-06
1.1e-06
1.1e-06
1.1e-06
1.1e-06
1.1e-06
1.1e-06
0.854424
0.854944
0.855404
0.855797
0.85612
0.856367
0.856536
0.856626
0.856635
0.856566
0.856418
0.856196
0.855902
0.855541
0.855115
0.854631
0.854092
0.853502
0.852866
0.852188
0.851472
0.850722
0.84994
0.84913
0.848295
0.847437
0.846559
0.845661
0.844747
0.843818
0.842874
0.841917
0.840948
0.839968
0.838976
0.837973
0.83696
0.835934
0.834897
0.833847
0.832783
0.831702
0.830603
0.829482
0.828335
0.827157
0.82594
0.824676
0.823352
0.821949
0.820445
0.818803
0.81697
0.814858
0.812322
0.80908
0.80453
0.797056
0.780295
0.674597
0.0422691
2.05512e-06
1.1e-06
1.1e-06
1.1e-06
1.1e-06
1.1e-06
1.1e-06
1.1e-06
1.1e-06
1.1e-06
1.1e-06
1.1e-06
1.1e-06
1.1e-06
1.1e-06
1.1e-06
1.1e-06
1.1e-06
1.1e-06
1.1e-06
1.1e-06
1.1e-06
1.1e-06
1.1e-06
1.1e-06
1.1e-06
1.1e-06
1.1e-06
1.1e-06
1.1e-06
1.1e-06
1.1e-06
1.1e-06
1.1e-06
1.1e-06
1.1e-06
1.1e-06
1.1e-06
1.1e-06
1.1e-06
1.1e-06
1.1e-06
1.1e-06
1.1e-06
1.1e-06
1.1e-06
1.1e-06
1.1e-06
1.1e-06
1.1e-06
1.1e-06
1.1e-06
1.1e-06
1.1e-06
1.1e-06
1.1e-06
1.1e-06
1.1e-06
1.1e-06
1.1e-06
1.1e-06
1.1e-06
1.1e-06
1.1e-06
1.1e-06
1.1e-06
1.1e-06
1.1e-06
1.1e-06
1.1e-06
1.1e-06
1.1e-06
1.1e-06
1.1e-06
1.1e-06
1.1e-06
1.1e-06
1.1e-06
1.1e-06
1.1e-06
1.1e-06
1.1e-06
1.1e-06
1.1e-06
1.1e-06
1.1e-06
1.1e-06
1.1e-06
1.1e-06
1.1e-06
1.1e-06
1.1e-06
1.1e-06
1.1e-06
1.1e-06
1.1e-06
1.1e-06
1.1e-06
1.1e-06
1.1e-06
1.1e-06
1.1e-06
1.1e-06
1.1e-06
1.1e-06
1.1e-06
1.1e-06
1.1e-06
1.1e-06
1.1e-06
1.1e-06
1.1e-06
1.1e-06
1.1e-06
1.1e-06
1.1e-06
1.1e-06
1.1e-06
1.1e-06
0.856607
0.857192
0.857712
0.858157
0.858523
0.858803
0.858995
0.859097
0.859109
0.859031
0.858866
0.858618
0.858292
0.857891
0.857422
0.856889
0.856298
0.855655
0.854964
0.854231
0.853459
0.852653
0.851816
0.850952
0.850064
0.849154
0.848225
0.847279
0.846317
0.845342
0.844354
0.843355
0.842345
0.841325
0.840296
0.839258
0.83821
0.837153
0.836086
0.835009
0.83392
0.832817
0.8317
0.830565
0.829409
0.828227
0.827014
0.825763
0.824462
0.823098
0.821651
0.820095
0.818387
0.816464
0.814224
0.811484
0.807886
0.802611
0.79324
0.767777
0.457206
0.00142207
1.1e-06
1.1e-06
1.1e-06
1.1e-06
1.1e-06
1.1e-06
1.1e-06
1.1e-06
1.1e-06
1.1e-06
1.1e-06
1.1e-06
1.1e-06
1.1e-06
1.1e-06
1.1e-06
1.1e-06
1.1e-06
1.1e-06
1.1e-06
1.1e-06
1.1e-06
1.1e-06
1.1e-06
1.1e-06
1.1e-06
1.1e-06
1.1e-06
1.1e-06
1.1e-06
1.1e-06
1.1e-06
1.1e-06
1.1e-06
1.1e-06
1.1e-06
1.1e-06
1.1e-06
1.1e-06
1.1e-06
1.1e-06
1.1e-06
1.1e-06
1.1e-06
1.1e-06
1.1e-06
1.1e-06
1.1e-06
1.1e-06
1.1e-06
1.1e-06
1.1e-06
1.1e-06
1.1e-06
1.1e-06
1.1e-06
1.1e-06
1.1e-06
1.1e-06
1.1e-06
1.1e-06
1.1e-06
1.1e-06
1.1e-06
1.1e-06
1.1e-06
1.1e-06
1.1e-06
1.1e-06
1.1e-06
1.1e-06
1.1e-06
1.1e-06
1.1e-06
1.1e-06
1.1e-06
1.1e-06
1.1e-06
1.1e-06
1.1e-06
1.1e-06
1.1e-06
1.1e-06
1.1e-06
1.1e-06
1.1e-06
1.1e-06
1.1e-06
1.1e-06
1.1e-06
1.1e-06
1.1e-06
1.1e-06
1.1e-06
1.1e-06
1.1e-06
1.1e-06
1.1e-06
1.1e-06
1.1e-06
1.1e-06
1.1e-06
1.1e-06
1.1e-06
1.1e-06
1.1e-06
1.1e-06
1.1e-06
1.1e-06
1.1e-06
1.1e-06
1.1e-06
1.1e-06
1.1e-06
1.1e-06
1.1e-06
1.1e-06
1.1e-06
0.858688
0.859348
0.859935
0.860439
0.860853
0.86117
0.861387
0.861502
0.861514
0.861425
0.86124
0.860962
0.860597
0.860152
0.859633
0.859048
0.858401
0.857701
0.856953
0.856161
0.855332
0.854469
0.853577
0.852659
0.851719
0.850759
0.849781
0.848788
0.847781
0.846763
0.845733
0.844694
0.843646
0.84259
0.841526
0.840455
0.839376
0.83829
0.837196
0.836093
0.834981
0.833858
0.832723
0.831574
0.830408
0.829221
0.828008
0.826764
0.82548
0.824144
0.822742
0.821251
0.819639
0.817859
0.815834
0.813439
0.810439
0.806356
0.800003
0.787343
0.73821
0.174856
4.20848e-05
1.1e-06
1.1e-06
1.1e-06
1.1e-06
1.1e-06
1.1e-06
1.1e-06
1.1e-06
1.1e-06
1.1e-06
1.1e-06
1.1e-06
1.1e-06
1.1e-06
1.1e-06
1.1e-06
1.1e-06
1.1e-06
1.1e-06
1.1e-06
1.1e-06
1.1e-06
1.1e-06
1.1e-06
1.1e-06
1.1e-06
1.1e-06
1.1e-06
1.1e-06
1.1e-06
1.1e-06
1.1e-06
1.1e-06
1.1e-06
1.1e-06
1.1e-06
1.1e-06
1.1e-06
1.1e-06
1.1e-06
1.1e-06
1.1e-06
1.1e-06
1.1e-06
1.1e-06
1.1e-06
1.1e-06
1.1e-06
1.1e-06
1.1e-06
1.1e-06
1.1e-06
1.1e-06
1.1e-06
1.1e-06
1.1e-06
1.1e-06
1.1e-06
1.1e-06
1.1e-06
1.1e-06
1.1e-06
1.1e-06
1.1e-06
1.1e-06
1.1e-06
1.1e-06
1.1e-06
1.1e-06
1.1e-06
1.1e-06
1.1e-06
1.1e-06
1.1e-06
1.1e-06
1.1e-06
1.1e-06
1.1e-06
1.1e-06
1.1e-06
1.1e-06
1.1e-06
1.1e-06
1.1e-06
1.1e-06
1.1e-06
1.1e-06
1.1e-06
1.1e-06
1.1e-06
1.1e-06
1.1e-06
1.1e-06
1.1e-06
1.1e-06
1.1e-06
1.1e-06
1.1e-06
1.1e-06
1.1e-06
1.1e-06
1.1e-06
1.1e-06
1.1e-06
1.1e-06
1.1e-06
1.1e-06
1.1e-06
1.1e-06
1.1e-06
1.1e-06
1.1e-06
1.1e-06
1.1e-06
1.1e-06
1.1e-06
1.1e-06
0.860773
0.861524
0.862193
0.862769
0.863242
0.863605
0.863852
0.86398
0.863991
0.863886
0.863673
0.863356
0.862944
0.862445
0.861868
0.86122
0.86051
0.859745
0.858932
0.858077
0.857186
0.856263
0.855313
0.854339
0.853345
0.852334
0.851307
0.850267
0.849216
0.848155
0.847085
0.846007
0.844922
0.843831
0.842734
0.841631
0.840523
0.839408
0.838288
0.837161
0.836027
0.834884
0.833732
0.832568
0.831391
0.830197
0.828983
0.827743
0.826471
0.825157
0.82379
0.822352
0.820818
0.819153
0.8173
0.81517
0.812607
0.809313
0.804641
0.796825
0.778639
0.642787
0.0236659
1.25168e-06
1.1e-06
1.1e-06
1.1e-06
1.1e-06
1.1e-06