/*--------------------------------*- C++ -*----------------------------------*\
  =========                 |
  \\      /  F ield         | OpenFOAM: The Open Source CFD Toolbox
   \\    /   O peration     | Website:  https://openfoam.org
    \\  /    A nd           | Version:  10
     \\/     M anipulation  |
\*---------------------------------------------------------------------------*/
FoamFile
{
    format      ascii;
    class       volVectorField;
    location    "0.118";
    object      U;
}
// * * * * * * * * * * * * * * * * * * * * * * * * * * * * * * * * * * * * * //

dimensions      [0 1 -1 0 0 0 0];

internalField   nonuniform List<vector> 
4000
(
(5.00002 -7.3595e-05 0)
(5.00015 -0.000220902 0)
(5.00044 -0.000368239 0)
(5.00089 -0.000515785 0)
(5.00148 -0.000663673 0)
(5.00222 -0.000812011 0)
(5.00311 -0.000960946 0)
(5.00414 -0.00111059 0)
(5.00533 -0.00126113 0)
(5.00667 -0.0014127 0)
(5.00816 -0.00156556 0)
(5.0098 -0.00171984 0)
(5.0116 -0.00187588 0)
(5.01355 -0.00203383 0)
(5.01566 -0.00219408 0)
(5.01794 -0.00235682 0)
(5.02038 -0.00252248 0)
(5.02298 -0.0026913 0)
(5.02576 -0.00286378 0)
(5.0287 -0.00304015 0)
(5.03183 -0.003221 0)
(5.03514 -0.00340659 0)
(5.03864 -0.00359753 0)
(5.04233 -0.00379413 0)
(5.04622 -0.00399705 0)
(5.05031 -0.00420661 0)
(5.05462 -0.00442351 0)
(5.05915 -0.00464811 0)
(5.0639 -0.00488114 0)
(5.0689 -0.00512297 0)
(5.07413 -0.00537438 0)
(5.07963 -0.00563576 0)
(5.08539 -0.00590792 0)
(5.09142 -0.00619126 0)
(5.09775 -0.00648662 0)
(5.10437 -0.00679441 0)
(5.11131 -0.00711552 0)
(5.11858 -0.00745034 0)
(5.12619 -0.00779977 0)
(5.13415 -0.00816423 0)
(5.14248 -0.00854463 0)
(5.15121 -0.00894137 0)
(5.16033 -0.00935538 0)
(5.16988 -0.00978703 0)
(5.17987 -0.0102372 0)
(5.19031 -0.0107064 0)
(5.20124 -0.0111953 0)
(5.21266 -0.0117044 0)
(5.2246 -0.0122344 0)
(5.23708 -0.0127856 0)
(5.25012 -0.0133587 0)
(5.26374 -0.013954 0)
(5.27797 -0.0145719 0)
(5.29283 -0.0152125 0)
(5.30834 -0.0158763 0)
(5.32453 -0.0165629 0)
(5.34141 -0.0172726 0)
(5.35902 -0.0180049 0)
(5.37736 -0.0187595 0)
(5.39648 -0.0195355 0)
(5.41638 -0.0203323 0)
(5.43709 -0.0211484 0)
(5.45862 -0.0219827 0)
(5.481 -0.0228329 0)
(5.50424 -0.0236972 0)
(5.52835 -0.0245726 0)
(5.55335 -0.0254563 0)
(5.57923 -0.0263446 0)
(5.60601 -0.0272337 0)
(5.63369 -0.0281188 0)
(5.66224 -0.0289953 0)
(5.69168 -0.0298574 0)
(5.72197 -0.0306995 0)
(5.7531 -0.031515 0)
(5.78504 -0.0322978 0)
(5.81775 -0.0330407 0)
(5.85119 -0.0337371 0)
(5.88531 -0.0343797 0)
(5.92004 -0.0349623 0)
(5.95534 -0.035478 0)
(5.99112 -0.0359212 0)
(6.02731 -0.0362862 0)
(6.06384 -0.0365688 0)
(6.10061 -0.036765 0)
(6.13753 -0.0368724 0)
(6.17452 -0.0368891 0)
(6.21148 -0.0368149 0)
(6.24832 -0.0366501 0)
(6.28495 -0.0363967 0)
(6.32129 -0.0360571 0)
(6.35723 -0.0356352 0)
(6.39271 -0.0351353 0)
(6.42765 -0.0345626 0)
(6.46198 -0.0339228 0)
(6.49563 -0.0332222 0)
(6.52854 -0.0324672 0)
(6.56067 -0.0316643 0)
(6.59196 -0.0308204 0)
(6.62239 -0.029942 0)
(6.65191 -0.0290355 0)
(6.68051 -0.0281072 0)
(6.70816 -0.027163 0)
(6.73486 -0.0262085 0)
(6.7606 -0.025249 0)
(6.78537 -0.0242893 0)
(6.80917 -0.0233339 0)
(6.83202 -0.0223868 0)
(6.85392 -0.0214517 0)
(6.8749 -0.0205317 0)
(6.89496 -0.0196297 0)
(6.91412 -0.018748 0)
(6.93241 -0.0178888 0)
(6.94985 -0.0170534 0)
(6.96647 -0.0162435 0)
(6.98229 -0.0154597 0)
(6.99734 -0.0147031 0)
(7.01164 -0.0139737 0)
(7.02523 -0.0132722 0)
(7.03813 -0.0125983 0)
(7.05037 -0.0119521 0)
(7.06198 -0.0113331 0)
(7.07298 -0.0107412 0)
(7.08341 -0.0101755 0)
(7.09328 -0.00963587 0)
(7.10263 -0.0091212 0)
(7.11147 -0.00863105 0)
(7.11984 -0.00816434 0)
(7.12776 -0.00772052 0)
(7.13524 -0.00729842 0)
(7.14231 -0.00689747 0)
(7.149 -0.00651647 0)
(7.15531 -0.00615488 0)
(7.16127 -0.00581154 0)
(7.1669 -0.00548592 0)
(7.17221 -0.00517692 0)
(7.17722 -0.00488406 0)
(7.18195 -0.00460628 0)
(7.1864 -0.00434315 0)
(7.19061 -0.00409366 0)
(7.19457 -0.0038574 0)
(7.1983 -0.00363341 0)
(7.20181 -0.00342133 0)
(7.20512 -0.00322028 0)
(7.20824 -0.00302993 0)
(7.21117 -0.00284951 0)
(7.21392 -0.00267874 0)
(7.21651 -0.00251693 0)
(7.21895 -0.00236385 0)
(7.22123 -0.00221887 0)
(7.22338 -0.00208178 0)
(7.22539 -0.00195199 0)
(7.22728 -0.00182928 0)
(7.22905 -0.00171312 0)
(7.23071 -0.00160327 0)
(7.23226 -0.00149926 0)
(7.23372 -0.00140088 0)
(7.23507 -0.00130771 0)
(7.23634 -0.0012196 0)
(7.23753 -0.00113621 0)
(7.23863 -0.0010574 0)
(7.23966 -0.000982933 0)
(7.24062 -0.000912656 0)
(7.24151 -0.000846381 0)
(7.24234 -0.000783932 0)
(7.24311 -0.00072515 0)
(7.24382 -0.000669811 0)
(7.24448 -0.000617781 0)
(7.24509 -0.000568791 0)
(7.24565 -0.000522738 0)
(7.24617 -0.000479332 0)
(7.24665 -0.000438514 0)
(7.24709 -0.000399996 0)
(7.24749 -0.000363778 0)
(7.24785 -0.000329584 0)
(7.24818 -0.00029748 0)
(7.24848 -0.000267195 0)
(7.24875 -0.000238855 0)
(7.24899 -0.000212183 0)
(7.24921 -0.000187349 0)
(7.24941 -0.000164057 0)
(7.24958 -0.000142508 0)
(7.24973 -0.000122378 0)
(7.24986 -0.000103886 0)
(7.24997 -8.6682e-05 0)
(7.25007 -7.10032e-05 0)
(7.25015 -5.64739e-05 0)
(7.25022 -4.33518e-05 0)
(7.25028 -3.12533e-05 0)
(7.25033 -2.0453e-05 0)
(7.25036 -1.05762e-05 0)
(7.25039 -1.91039e-06 0)
(7.25042 5.89843e-06 0)
(7.25043 1.25472e-05 0)
(7.25044 1.83729e-05 0)
(7.25045 2.29921e-05 0)
(7.25045 2.67604e-05 0)
(7.25045 2.92177e-05 0)
(7.25045 3.06665e-05 0)
(7.25045 3.13798e-05 0)
(7.25044 3.16975e-05 0)
(5.00002 -0.000220469 0)
(5.00015 -0.000661781 0)
(5.00044 -0.00110326 0)
(5.00088 -0.00154538 0)
(5.00148 -0.0019885 0)
(5.00221 -0.00243295 0)
(5.0031 -0.00287911 0)
(5.00413 -0.00332737 0)
(5.00531 -0.00377822 0)
(5.00665 -0.00423214 0)
(5.00813 -0.00468977 0)
(5.00977 -0.00515169 0)
(5.01156 -0.00561869 0)
(5.0135 -0.00609144 0)
(5.01561 -0.0065709 0)
(5.01787 -0.00705784 0)
(5.0203 -0.00755339 0)
(5.02289 -0.00805844 0)
(5.02565 -0.00857425 0)
(5.02858 -0.00910184 0)
(5.03169 -0.0096426 0)
(5.03498 -0.0101977 0)
(5.03846 -0.0107685 0)
(5.04212 -0.0113564 0)
(5.04599 -0.0119631 0)
(5.05005 -0.0125897 0)
(5.05433 -0.013238 0)
(5.05883 -0.0139095 0)
(5.06355 -0.014606 0)
(5.06851 -0.0153291 0)
(5.07371 -0.0160805 0)
(5.07916 -0.016862 0)
(5.08488 -0.0176755 0)
(5.09087 -0.0185226 0)
(5.09714 -0.0194055 0)
(5.10372 -0.0203258 0)
(5.1106 -0.0212857 0)
(5.11781 -0.0222869 0)
(5.12536 -0.0233317 0)
(5.13326 -0.0244216 0)
(5.14154 -0.0255591 0)
(5.15019 -0.0267458 0)
(5.15925 -0.027984 0)
(5.16872 -0.0292754 0)
(5.17864 -0.0306222 0)
(5.18901 -0.032026 0)
(5.19985 -0.0334891 0)
(5.2112 -0.0350128 0)
(5.22305 -0.0365993 0)
(5.23545 -0.0382499 0)
(5.2484 -0.0399662 0)
(5.26194 -0.0417494 0)
(5.27608 -0.0436008 0)
(5.29085 -0.0455209 0)
(5.30627 -0.0475108 0)
(5.32237 -0.0495702 0)
(5.33916 -0.0516993 0)
(5.35668 -0.053897 0)
(5.37494 -0.0561626 0)
(5.39397 -0.0584937 0)
(5.41379 -0.0608883 0)
(5.43443 -0.0633423 0)
(5.4559 -0.065852 0)
(5.47822 -0.0684114 0)
(5.50141 -0.0710145 0)
(5.52549 -0.0736531 0)
(5.55046 -0.0763184 0)
(5.57634 -0.0789995 0)
(5.60313 -0.0816849 0)
(5.63083 -0.0843605 0)
(5.65944 -0.0870119 0)
(5.68894 -0.0896221 0)
(5.71933 -0.0921736 0)
(5.75059 -0.0946471 0)
(5.78267 -0.0970227 0)
(5.81556 -0.0992794 0)
(5.8492 -0.101396 0)
(5.88355 -0.103352 0)
(5.91855 -0.105125 0)
(5.95412 -0.106697 0)
(5.99021 -0.108048 0)
(6.02673 -0.109162 0)
(6.0636 -0.110025 0)
(6.10072 -0.110625 0)
(6.13801 -0.110954 0)
(6.17536 -0.111007 0)
(6.21269 -0.110783 0)
(6.2499 -0.110284 0)
(6.28688 -0.109514 0)
(6.32356 -0.108482 0)
(6.35983 -0.1072 0)
(6.39562 -0.105681 0)
(6.43084 -0.103942 0)
(6.46542 -0.102 0)
(6.49931 -0.0998735 0)
(6.53243 -0.0975829 0)
(6.56474 -0.0951486 0)
(6.59619 -0.0925909 0)
(6.62674 -0.0899302 0)
(6.65637 -0.087186 0)
(6.68504 -0.0843776 0)
(6.71275 -0.0815229 0)
(6.73949 -0.078639 0)
(6.76523 -0.0757418 0)
(6.79 -0.0728459 0)
(6.81378 -0.0699647 0)
(6.83659 -0.0671101 0)
(6.85845 -0.064293 0)
(6.87935 -0.0615228 0)
(6.89934 -0.058808 0)
(6.91842 -0.0561553 0)
(6.93662 -0.053571 0)
(6.95397 -0.0510597 0)
(6.97048 -0.0486255 0)
(6.9862 -0.046271 0)
(7.00114 -0.0439987 0)
(7.01533 -0.0418096 0)
(7.02881 -0.0397045 0)
(7.0416 -0.0376833 0)
(7.05373 -0.0357458 0)
(7.06523 -0.0338908 0)
(7.07613 -0.0321171 0)
(7.08645 -0.030423 0)
(7.09623 -0.0288067 0)
(7.10548 -0.0272658 0)
(7.11423 -0.0257983 0)
(7.12251 -0.0244015 0)
(7.13033 -0.023073 0)
(7.13773 -0.02181 0)
(7.14472 -0.0206102 0)
(7.15132 -0.0194705 0)
(7.15756 -0.0183888 0)
(7.16345 -0.017362 0)
(7.16901 -0.0163881 0)
(7.17426 -0.0154642 0)
(7.17921 -0.0145885 0)
(7.18387 -0.0137581 0)
(7.18827 -0.0129714 0)
(7.19242 -0.0122259 0)
(7.19633 -0.0115199 0)
(7.20001 -0.010851 0)
(7.20348 -0.0102179 0)
(7.20675 -0.00961817 0)
(7.20982 -0.00905058 0)
(7.21271 -0.00851308 0)
(7.21543 -0.00800443 0)
(7.21798 -0.00752284 0)
(7.22038 -0.00706719 0)
(7.22264 -0.0066359 0)
(7.22475 -0.00622799 0)
(7.22674 -0.00584206 0)
(7.2286 -0.00547721 0)
(7.23034 -0.00513218 0)
(7.23197 -0.00480614 0)
(7.2335 -0.00449793 0)
(7.23493 -0.00420677 0)
(7.23627 -0.00393163 0)
(7.23751 -0.0036718 0)
(7.23868 -0.00342637 0)
(7.23976 -0.0031947 0)
(7.24077 -0.00297601 0)
(7.24171 -0.00276971 0)
(7.24259 -0.00257511 0)
(7.2434 -0.00239165 0)
(7.24415 -0.00221873 0)
(7.24485 -0.00205574 0)
(7.2455 -0.00190217 0)
(7.24609 -0.00175739 0)
(7.24664 -0.00162095 0)
(7.24715 -0.00149224 0)
(7.24761 -0.0013709 0)
(7.24804 -0.00125638 0)
(7.24843 -0.00114844 0)
(7.24878 -0.00104662 0)
(7.2491 -0.0009508 0)
(7.24939 -0.000860625 0)
(7.24965 -0.000776077 0)
(7.24989 -0.000696856 0)
(7.2501 -0.00062302 0)
(7.25028 -0.000554274 0)
(7.25044 -0.000490715 0)
(7.25058 -0.000431998 0)
(7.25071 -0.000378229 0)
(7.25081 -0.00032899 0)
(7.2509 -0.000284381 0)
(7.25098 -0.000243907 0)
(7.25104 -0.00020766 0)
(7.25109 -0.000175096 0)
(7.25113 -0.000146315 0)
(7.25117 -0.000120755 0)
(7.25119 -9.85359e-05 0)
(7.25121 -7.91163e-05 0)
(7.25122 -6.2657e-05 0)
(7.25122 -4.86645e-05 0)
(7.25122 -3.74269e-05 0)
(7.25122 -2.84735e-05 0)
(7.25121 -2.22869e-05 0)
(7.2512 -1.85183e-05 0)
(7.2512 -1.72806e-05 0)
(7.25119 -1.89327e-05 0)
(5.00002 -0.000366783 0)
(5.00015 -0.0011009 0)
(5.00044 -0.00183538 0)
(5.00088 -0.00257087 0)
(5.00147 -0.0033079 0)
(5.0022 -0.00404698 0)
(5.00308 -0.00478871 0)
(5.00411 -0.00553372 0)
(5.00528 -0.0062828 0)
(5.00661 -0.00703678 0)
(5.00808 -0.00779662 0)
(5.00971 -0.00856338 0)
(5.01148 -0.00933825 0)
(5.01341 -0.0101225 0)
(5.0155 -0.0109175 0)
(5.01774 -0.0117248 0)
(5.02015 -0.0125461 0)
(5.02271 -0.0133831 0)
(5.02544 -0.0142376 0)
(5.02834 -0.0151116 0)
(5.03141 -0.0160072 0)
(5.03466 -0.0169265 0)
(5.0381 -0.0178718 0)
(5.04172 -0.0188454 0)
(5.04553 -0.0198499 0)
(5.04954 -0.0208876 0)
(5.05376 -0.0219613 0)
(5.0582 -0.0230735 0)
(5.06285 -0.0242272 0)
(5.06774 -0.025425 0)
(5.07286 -0.02667 0)
(5.07823 -0.027965 0)
(5.08386 -0.0293132 0)
(5.08976 -0.0307175 0)
(5.09594 -0.0321813 0)
(5.10241 -0.0337075 0)
(5.10919 -0.0352995 0)
(5.11629 -0.0369605 0)
(5.12373 -0.0386939 0)
(5.13151 -0.0405029 0)
(5.13965 -0.0423909 0)
(5.14817 -0.0443612 0)
(5.15709 -0.0464173 0)
(5.16643 -0.0485623 0)
(5.17619 -0.0507997 0)
(5.18641 -0.0531326 0)
(5.1971 -0.0555643 0)
(5.20828 -0.0580978 0)
(5.21997 -0.0607362 0)
(5.23219 -0.063482 0)
(5.24497 -0.0663381 0)
(5.25833 -0.0693067 0)
(5.27229 -0.0723898 0)
(5.28688 -0.0755891 0)
(5.30212 -0.0789057 0)
(5.31803 -0.0823404 0)
(5.33464 -0.085893 0)
(5.35198 -0.0895629 0)
(5.37007 -0.0933483 0)
(5.38893 -0.0972465 0)
(5.40859 -0.101254 0)
(5.42908 -0.105365 0)
(5.45041 -0.109572 0)
(5.47261 -0.113868 0)
(5.4957 -0.118242 0)
(5.5197 -0.122681 0)
(5.54462 -0.12717 0)
(5.57047 -0.131693 0)
(5.59727 -0.136229 0)
(5.62502 -0.140755 0)
(5.65372 -0.145246 0)
(5.68336 -0.149675 0)
(5.71394 -0.154011 0)
(5.74544 -0.158221 0)
(5.77782 -0.162271 0)
(5.81106 -0.166124 0)
(5.84511 -0.169744 0)
(5.87993 -0.173092 0)
(5.91544 -0.176133 0)
(5.9516 -0.178831 0)
(5.98831 -0.181153 0)
(6.02549 -0.18307 0)
(6.06305 -0.184556 0)
(6.1009 -0.185591 0)
(6.13893 -0.18616 0)
(6.17704 -0.186254 0)
(6.21512 -0.185872 0)
(6.25307 -0.185016 0)
(6.29078 -0.183696 0)
(6.32815 -0.181927 0)
(6.36508 -0.17973 0)
(6.40149 -0.17713 0)
(6.43729 -0.174154 0)
(6.4724 -0.170835 0)
(6.50675 -0.167204 0)
(6.5403 -0.163299 0)
(6.57297 -0.159152 0)
(6.60472 -0.154801 0)
(6.63553 -0.150279 0)
(6.66536 -0.145621 0)
(6.69419 -0.14086 0)
(6.72201 -0.136026 0)
(6.7488 -0.131149 0)
(6.77457 -0.126254 0)
(6.79931 -0.121368 0)
(6.82304 -0.116512 0)
(6.84577 -0.111706 0)
(6.86752 -0.106969 0)
(6.88829 -0.102315 0)
(6.90812 -0.0977581 0)
(6.92703 -0.0933099 0)
(6.94505 -0.0889801 0)
(6.96219 -0.0847762 0)
(6.9785 -0.0807046 0)
(6.994 -0.0767699 0)
(7.00873 -0.0729752 0)
(7.0227 -0.0693225 0)
(7.03596 -0.0658127 0)
(7.04853 -0.0624455 0)
(7.06044 -0.0592198 0)
(7.07172 -0.0561336 0)
(7.08241 -0.0531846 0)
(7.09252 -0.0503694 0)
(7.10209 -0.0476847 0)
(7.11115 -0.0451267 0)
(7.11971 -0.0426911 0)
(7.1278 -0.0403738 0)
(7.13545 -0.0381703 0)
(7.14268 -0.0360763 0)
(7.14951 -0.0340872 0)
(7.15595 -0.0321985 0)
(7.16204 -0.0304061 0)
(7.16779 -0.0287053 0)
(7.17321 -0.0270922 0)
(7.17833 -0.0255624 0)
(7.18315 -0.0241121 0)
(7.1877 -0.0227374 0)
(7.19199 -0.0214345 0)
(7.19604 -0.0202001 0)
(7.19984 -0.0190306 0)
(7.20343 -0.0179229 0)
(7.20681 -0.0168739 0)
(7.20999 -0.0158807 0)
(7.21298 -0.0149404 0)
(7.21579 -0.0140502 0)
(7.21843 -0.0132075 0)
(7.22092 -0.0124099 0)
(7.22325 -0.0116548 0)
(7.22544 -0.0109401 0)
(7.2275 -0.0102636 0)
(7.22942 -0.00962338 0)
(7.23123 -0.00901756 0)
(7.23292 -0.00844448 0)
(7.23451 -0.00790255 0)
(7.23599 -0.00739031 0)
(7.23737 -0.00690631 0)
(7.23867 -0.00644921 0)
(7.23988 -0.00601766 0)
(7.241 -0.00561036 0)
(7.24205 -0.00522604 0)
(7.24303 -0.00486346 0)
(7.24394 -0.00452145 0)
(7.24478 -0.00419883 0)
(7.24557 -0.00389453 0)
(7.24629 -0.00360748 0)
(7.24697 -0.0033367 0)
(7.24759 -0.00308123 0)
(7.24816 -0.00284016 0)
(7.24869 -0.00261267 0)
(7.24918 -0.00239791 0)
(7.24962 -0.00219518 0)
(7.25003 -0.00200376 0)
(7.2504 -0.00182308 0)
(7.25074 -0.00165258 0)
(7.25105 -0.00149183 0)
(7.25132 -0.00134045 0)
(7.25157 -0.00119816 0)
(7.25179 -0.00106475 0)
(7.25198 -0.000940015 0)
(7.25215 -0.000823878 0)
(7.2523 -0.000716163 0)
(7.25243 -0.000616806 0)
(7.25254 -0.000525616 0)
(7.25264 -0.00044247 0)
(7.25271 -0.000367125 0)
(7.25278 -0.000299352 0)
(7.25283 -0.000238861 0)
(7.25287 -0.000185325 0)
(7.2529 -0.00013844 0)
(7.25292 -9.78155e-05 0)
(7.25294 -6.31703e-05 0)
(7.25295 -3.40932e-05 0)
(7.25295 -1.03712e-05 0)
(7.25295 8.39123e-06 0)
(7.25294 2.23184e-05 0)
(7.25293 3.17628e-05 0)
(7.25293 3.67623e-05 0)
(7.25291 3.76479e-05 0)
(7.2529 3.45894e-05 0)
(7.25287 2.53509e-05 0)
(5.00002 -0.000512378 0)
(5.00015 -0.00153778 0)
(5.00044 -0.0025636 0)
(5.00087 -0.00359065 0)
(5.00146 -0.00461954 0)
(5.00219 -0.00565094 0)
(5.00306 -0.00668561 0)
(5.00408 -0.00772443 0)
(5.00525 -0.00876839 0)
(5.00656 -0.00981867 0)
(5.00802 -0.0108766 0)
(5.00962 -0.0119435 0)
(5.01138 -0.0130212 0)
(5.01329 -0.0141114 0)
(5.01535 -0.0152161 0)
(5.01756 -0.0163374 0)
(5.01993 -0.0174776 0)
(5.02245 -0.0186391 0)
(5.02514 -0.0198246 0)
(5.02799 -0.0210368 0)
(5.03101 -0.0222786 0)
(5.03421 -0.0235531 0)
(5.03757 -0.0248634 0)
(5.04113 -0.0262128 0)
(5.04486 -0.0276048 0)
(5.04879 -0.0290429 0)
(5.05293 -0.0305307 0)
(5.05727 -0.0320722 0)
(5.06182 -0.0336711 0)
(5.06659 -0.0353314 0)
(5.0716 -0.0370572 0)
(5.07685 -0.0388527 0)
(5.08235 -0.0407222 0)
(5.08812 -0.04267 0)
(5.09415 -0.0447005 0)
(5.10048 -0.0468182 0)
(5.1071 -0.0490278 0)
(5.11403 -0.0513337 0)
(5.12129 -0.0537408 0)
(5.12888 -0.0562537 0)
(5.13684 -0.0588771 0)
(5.14516 -0.0616159 0)
(5.15387 -0.0644747 0)
(5.16299 -0.0674585 0)
(5.17254 -0.0705718 0)
(5.18252 -0.0738195 0)
(5.19297 -0.0772061 0)
(5.20391 -0.0807361 0)
(5.21535 -0.0844139 0)
(5.22732 -0.0882436 0)
(5.23983 -0.0922293 0)
(5.25292 -0.0963744 0)
(5.26661 -0.100682 0)
(5.28092 -0.105156 0)
(5.29588 -0.109796 0)
(5.31151 -0.114607 0)
(5.32785 -0.119586 0)
(5.34491 -0.124736 0)
(5.36272 -0.130053 0)
(5.38132 -0.135535 0)
(5.40073 -0.141177 0)
(5.42098 -0.146973 0)
(5.44209 -0.152915 0)
(5.46409 -0.158991 0)
(5.48701 -0.165188 0)
(5.51087 -0.171489 0)
(5.53569 -0.177874 0)
(5.56149 -0.184319 0)
(5.58829 -0.190797 0)
(5.61609 -0.197277 0)
(5.64491 -0.203721 0)
(5.67475 -0.210091 0)
(5.70559 -0.216343 0)
(5.73744 -0.222428 0)
(5.77026 -0.228296 0)
(5.80402 -0.233893 0)
(5.8387 -0.239162 0)
(5.87422 -0.244048 0)
(5.91054 -0.248494 0)
(5.94758 -0.252447 0)
(5.98525 -0.255855 0)
(6.02346 -0.258673 0)
(6.06211 -0.260862 0)
(6.10109 -0.262389 0)
(6.14028 -0.263233 0)
(6.17956 -0.263379 0)
(6.21881 -0.262824 0)
(6.25791 -0.261574 0)
(6.29674 -0.259645 0)
(6.33519 -0.257061 0)
(6.37315 -0.253854 0)
(6.41051 -0.250062 0)
(6.44719 -0.245728 0)
(6.48311 -0.240902 0)
(6.51818 -0.235633 0)
(6.55236 -0.229973 0)
(6.58557 -0.223976 0)
(6.61779 -0.217695 0)
(6.64897 -0.211179 0)
(6.6791 -0.20448 0)
(6.70814 -0.197645 0)
(6.7361 -0.190718 0)
(6.76297 -0.183741 0)
(6.78875 -0.176751 0)
(6.81345 -0.169785 0)
(6.83708 -0.162873 0)
(6.85967 -0.156044 0)
(6.88123 -0.149323 0)
(6.90179 -0.14273 0)
(6.92137 -0.136285 0)
(6.94001 -0.130002 0)
(6.95773 -0.123895 0)
(6.97457 -0.117973 0)
(6.99056 -0.112245 0)
(7.00573 -0.106717 0)
(7.02011 -0.101392 0)
(7.03374 -0.0962715 0)
(7.04666 -0.091357 0)
(7.05889 -0.0866471 0)
(7.07046 -0.0821397 0)
(7.08142 -0.0778315 0)
(7.09178 -0.0737183 0)
(7.10158 -0.0697954 0)
(7.11084 -0.0660572 0)
(7.1196 -0.0624979 0)
(7.12788 -0.0591113 0)
(7.13569 -0.0558911 0)
(7.14308 -0.0528307 0)
(7.15005 -0.0499236 0)
(7.15664 -0.0471634 0)
(7.16285 -0.0445437 0)
(7.16872 -0.0420582 0)
(7.17425 -0.0397009 0)
(7.17947 -0.0374657 0)
(7.1844 -0.0353469 0)
(7.18904 -0.0333388 0)
(7.19341 -0.0314362 0)
(7.19754 -0.0296336 0)
(7.20142 -0.0279261 0)
(7.20508 -0.0263089 0)
(7.20853 -0.0247773 0)
(7.21177 -0.023327 0)
(7.21482 -0.0219538 0)
(7.21769 -0.0206538 0)
(7.22038 -0.0194233 0)
(7.22292 -0.0182587 0)
(7.2253 -0.0171566 0)
(7.22754 -0.0161138 0)
(7.22963 -0.015127 0)
(7.2316 -0.0141933 0)
(7.23345 -0.0133099 0)
(7.23518 -0.0124741 0)
(7.23679 -0.0116833 0)
(7.23831 -0.0109354 0)
(7.23972 -0.0102281 0)
(7.24104 -0.00955973 0)
(7.24227 -0.00892834 0)
(7.24342 -0.00833223 0)
(7.24449 -0.00776979 0)
(7.24549 -0.00723937 0)
(7.24642 -0.00673938 0)
(7.24728 -0.00626821 0)
(7.24808 -0.00582426 0)
(7.24882 -0.00540601 0)
(7.24951 -0.00501185 0)
(7.25014 -0.0046404 0)
(7.25073 -0.00429017 0)
(7.25127 -0.00395991 0)
(7.25177 -0.00364832 0)
(7.25223 -0.00335432 0)
(7.25265 -0.00307682 0)
(7.25303 -0.00281492 0)
(7.25338 -0.00256778 0)
(7.25369 -0.00233464 0)
(7.25397 -0.0021149 0)
(7.25423 -0.00190798 0)
(7.25445 -0.00171345 0)
(7.25465 -0.00153093 0)
(7.25483 -0.00136013 0)
(7.25498 -0.00120079 0)
(7.25511 -0.00105268 0)
(7.25522 -0.000915625 0)
(7.25531 -0.000789349 0)
(7.25538 -0.000673655 0)
(7.25544 -0.000568189 0)
(7.25549 -0.000472645 0)
(7.25552 -0.000386589 0)
(7.25555 -0.000309593 0)
(7.25556 -0.000241191 0)
(7.25557 -0.00018088 0)
(7.25557 -0.000128232 0)
(7.25557 -8.27462e-05 0)
(7.25556 -4.40895e-05 0)
(7.25554 -1.18461e-05 0)
(7.25552 1.41754e-05 0)
(7.2555 3.42591e-05 0)
(7.25548 4.82941e-05 0)
(7.25545 5.68008e-05 0)
(7.25544 5.83002e-05 0)
(7.2554 5.59171e-05 0)
(5.00002 -0.000656998 0)
(5.00015 -0.00197168 0)
(5.00043 -0.00328674 0)
(5.00087 -0.00460299 0)
(5.00145 -0.0059211 0)
(5.00217 -0.00724179 0)
(5.00304 -0.00856592 0)
(5.00405 -0.00989453 0)
(5.0052 -0.0112288 0)
(5.0065 -0.0125702 0)
(5.00794 -0.0139204 0)
(5.00953 -0.0152811 0)
(5.01126 -0.0166546 0)
(5.01313 -0.018043 0)
(5.01516 -0.019449 0)
(5.01733 -0.0208752 0)
(5.01966 -0.0223248 0)
(5.02213 -0.0238007 0)
(5.02477 -0.0253065 0)
(5.02755 -0.0268457 0)
(5.03051 -0.0284221 0)
(5.03362 -0.0300397 0)
(5.03691 -0.0317025 0)
(5.04037 -0.0334149 0)
(5.04401 -0.0351813 0)
(5.04783 -0.0370064 0)
(5.05185 -0.0388948 0)
(5.05606 -0.0408516 0)
(5.06048 -0.0428817 0)
(5.06512 -0.0449903 0)
(5.06997 -0.0471826 0)
(5.07506 -0.0494641 0)
(5.08039 -0.0518403 0)
(5.08598 -0.0543168 0)
(5.09182 -0.0568993 0)
(5.09794 -0.0595936 0)
(5.10435 -0.0624056 0)
(5.11106 -0.0653412 0)
(5.11809 -0.0684067 0)
(5.12544 -0.071608 0)
(5.13314 -0.0749513 0)
(5.1412 -0.0784429 0)
(5.14963 -0.082089 0)
(5.15847 -0.0858959 0)
(5.16771 -0.0898697 0)
(5.17739 -0.0940168 0)
(5.18753 -0.0983432 0)
(5.19813 -0.102855 0)
(5.20923 -0.107558 0)
(5.22085 -0.112459 0)
(5.23301 -0.117562 0)
(5.24574 -0.122872 0)
(5.25905 -0.128396 0)
(5.27299 -0.134136 0)
(5.28756 -0.140097 0)
(5.30281 -0.146281 0)
(5.31876 -0.152691 0)
(5.33544 -0.159327 0)
(5.35287 -0.166188 0)
(5.3711 -0.173273 0)
(5.39015 -0.180577 0)
(5.41005 -0.188093 0)
(5.43084 -0.195814 0)
(5.45255 -0.203725 0)
(5.47521 -0.211813 0)
(5.49885 -0.220056 0)
(5.5235 -0.228431 0)
(5.54919 -0.236909 0)
(5.57594 -0.245455 0)
(5.60378 -0.254029 0)
(5.63272 -0.262585 0)
(5.66278 -0.27107 0)
(5.69395 -0.279426 0)
(5.72624 -0.287587 0)
(5.75962 -0.295483 0)
(5.79409 -0.30304 0)
(5.82959 -0.310178 0)
(5.86608 -0.316818 0)
(5.90349 -0.322877 0)
(5.94175 -0.328279 0)
(5.98076 -0.332948 0)
(6.02041 -0.336817 0)
(6.06059 -0.339827 0)
(6.10115 -0.341933 0)
(6.14198 -0.343101 0)
(6.18291 -0.343312 0)
(6.22382 -0.34256 0)
(6.26454 -0.340857 0)
(6.30495 -0.338225 0)
(6.3449 -0.334703 0)
(6.38428 -0.330336 0)
(6.42297 -0.325182 0)
(6.46086 -0.319304 0)
(6.49787 -0.312772 0)
(6.53392 -0.305658 0)
(6.56894 -0.298035 0)
(6.60288 -0.289979 0)
(6.6357 -0.281562 0)
(6.66736 -0.272856 0)
(6.69785 -0.263927 0)
(6.72716 -0.254839 0)
(6.75528 -0.245652 0)
(6.78222 -0.236422 0)
(6.80798 -0.227197 0)
(6.83259 -0.218024 0)
(6.85607 -0.208944 0)
(6.87844 -0.199991 0)
(6.89973 -0.191198 0)
(6.91997 -0.182591 0)
(6.9392 -0.174193 0)
(6.95745 -0.166023 0)
(6.97476 -0.158096 0)
(6.99117 -0.150424 0)
(7.00671 -0.143016 0)
(7.02142 -0.135878 0)
(7.03534 -0.129013 0)
(7.04851 -0.122423 0)
(7.06096 -0.116106 0)
(7.07273 -0.110061 0)
(7.08385 -0.104284 0)
(7.09436 -0.0987685 0)
(7.10429 -0.093509 0)
(7.11367 -0.0884982 0)
(7.12252 -0.0837281 0)
(7.13088 -0.0791906 0)
(7.13878 -0.0748769 0)
(7.14623 -0.0707781 0)
(7.15327 -0.0668855 0)
(7.1599 -0.06319 0)
(7.16617 -0.059683 0)
(7.17208 -0.0563558 0)
(7.17765 -0.0532001 0)
(7.1829 -0.0502077 0)
(7.18786 -0.0473709 0)
(7.19253 -0.0446821 0)
(7.19693 -0.0421343 0)
(7.20107 -0.0397205 0)
(7.20498 -0.037434 0)
(7.20866 -0.0352686 0)
(7.21212 -0.0332181 0)
(7.21538 -0.0312765 0)
(7.21844 -0.0294383 0)
(7.22133 -0.0276979 0)
(7.22404 -0.0260501 0)
(7.22658 -0.0244902 0)
(7.22898 -0.0230135 0)
(7.23122 -0.0216157 0)
(7.23333 -0.0202928 0)
(7.2353 -0.0190409 0)
(7.23716 -0.0178563 0)
(7.23889 -0.0167356 0)
(7.24052 -0.0156755 0)
(7.24204 -0.0146726 0)
(7.24346 -0.0137241 0)
(7.24478 -0.0128271 0)
(7.24602 -0.011979 0)
(7.24717 -0.0111775 0)
(7.24824 -0.0104205 0)
(7.24924 -0.00970589 0)
(7.25017 -0.00903185 0)
(7.25103 -0.00839648 0)
(7.25183 -0.00779794 0)
(7.25257 -0.00723429 0)
(7.25326 -0.00670364 0)
(7.25389 -0.00620392 0)
(7.25448 -0.00573326 0)
(7.25502 -0.00528955 0)
(7.25552 -0.00487106 0)
(7.25597 -0.00447587 0)
(7.25639 -0.00410253 0)
(7.25678 -0.00374948 0)
(7.25712 -0.00341566 0)
(7.25744 -0.00310001 0)
(7.25772 -0.00280181 0)
(7.25798 -0.00252047 0)
(7.25821 -0.00225556 0)
(7.2584 -0.0020068 0)
(7.25858 -0.00177393 0)
(7.25873 -0.0015568 0)
(7.25885 -0.0013552 0)
(7.25896 -0.00116896 0)
(7.25904 -0.000997831 0)
(7.25911 -0.000841493 0)
(7.25916 -0.000699638 0)
(7.2592 -0.000571747 0)
(7.25923 -0.000457379 0)
(7.25924 -0.000355854 0)
(7.25925 -0.000266572 0)
(7.25924 -0.000188773 0)
(7.25923 -0.00012172 0)
(7.25922 -6.46884e-05 0)
(7.2592 -1.68795e-05 0)
(7.25918 2.23013e-05 0)
(7.25915 5.36095e-05 0)
(7.25912 7.74755e-05 0)
(7.25909 9.45029e-05 0)
(7.25906 0.000104883 0)
(7.25901 0.000109277 0)
(7.25899 0.000106801 0)
(7.25892 9.68524e-05 0)
(5.00002 -0.000800689 0)
(5.00015 -0.00240276 0)
(5.00043 -0.00400496 0)
(5.00086 -0.00560801 0)
(5.00144 -0.00721249 0)
(5.00216 -0.00881906 0)
(5.00301 -0.0104286 0)
(5.00401 -0.0120422 0)
(5.00516 -0.0136613 0)
(5.00644 -0.0152874 0)
(5.00786 -0.0169225 0)
(5.00942 -0.0185689 0)
(5.01113 -0.020229 0)
(5.01297 -0.0219057 0)
(5.01495 -0.023602 0)
(5.01708 -0.0253213 0)
(5.01935 -0.0270674 0)
(5.02177 -0.028844 0)
(5.02433 -0.0306553 0)
(5.02705 -0.0325059 0)
(5.02991 -0.0344002 0)
(5.03294 -0.0363433 0)
(5.03612 -0.0383401 0)
(5.03947 -0.040396 0)
(5.04298 -0.0425164 0)
(5.04667 -0.0447071 0)
(5.05055 -0.0469738 0)
(5.05461 -0.0493226 0)
(5.05886 -0.0517599 0)
(5.06332 -0.0542918 0)
(5.06799 -0.0569249 0)
(5.07287 -0.059666 0)
(5.07799 -0.0625219 0)
(5.08335 -0.0654994 0)
(5.08896 -0.0686057 0)
(5.09482 -0.071848 0)
(5.10097 -0.0752336 0)
(5.1074 -0.07877 0)
(5.11414 -0.0824646 0)
(5.12118 -0.0863251 0)
(5.12857 -0.0903592 0)
(5.13629 -0.0945746 0)
(5.14439 -0.0989791 0)
(5.15286 -0.103581 0)
(5.16173 -0.108387 0)
(5.17103 -0.113407 0)
(5.18076 -0.118647 0)
(5.19095 -0.124115 0)
(5.20162 -0.12982 0)
(5.2128 -0.135768 0)
(5.22451 -0.141968 0)
(5.23678 -0.148426 0)
(5.24962 -0.155149 0)
(5.26307 -0.162144 0)
(5.27716 -0.169415 0)
(5.29191 -0.176969 0)
(5.30736 -0.184809 0)
(5.32353 -0.192938 0)
(5.34047 -0.201357 0)
(5.3582 -0.210067 0)
(5.37677 -0.219064 0)
(5.3962 -0.228343 0)
(5.41655 -0.237897 0)
(5.43784 -0.247714 0)
(5.46012 -0.257778 0)
(5.48343 -0.268067 0)
(5.5078 -0.278556 0)
(5.53329 -0.289211 0)
(5.55992 -0.299993 0)
(5.58773 -0.310853 0)
(5.61676 -0.321735 0)
(5.64703 -0.332574 0)
(5.67855 -0.343295 0)
(5.71135 -0.353814 0)
(5.74541 -0.364038 0)
(5.78073 -0.373866 0)
(5.81727 -0.383192 0)
(5.85499 -0.391902 0)
(5.89382 -0.399883 0)
(5.93368 -0.407022 0)
(5.97445 -0.413212 0)
(6.01602 -0.418355 0)
(6.05823 -0.422366 0)
(6.10093 -0.425178 0)
(6.14395 -0.426741 0)
(6.18711 -0.427031 0)
(6.23023 -0.426042 0)
(6.27313 -0.423793 0)
(6.31563 -0.420319 0)
(6.35759 -0.415676 0)
(6.39884 -0.409933 0)
(6.43926 -0.403173 0)
(6.47874 -0.395486 0)
(6.51716 -0.386969 0)
(6.55445 -0.377724 0)
(6.59055 -0.367851 0)
(6.6254 -0.357451 0)
(6.65896 -0.346623 0)
(6.69121 -0.335459 0)
(6.72213 -0.324048 0)
(6.75174 -0.312473 0)
(6.78003 -0.300809 0)
(6.80702 -0.289126 0)
(6.83273 -0.277487 0)
(6.85719 -0.265946 0)
(6.88044 -0.254554 0)
(6.9025 -0.243354 0)
(6.92341 -0.232381 0)
(6.94323 -0.221668 0)
(6.96198 -0.211241 0)
(6.97972 -0.201122 0)
(6.99648 -0.191325 0)
(7.01232 -0.181865 0)
(7.02728 -0.172751 0)
(7.0414 -0.163986 0)
(7.05472 -0.155574 0)
(7.06729 -0.147514 0)
(7.07914 -0.139804 0)
(7.09032 -0.132438 0)
(7.10087 -0.12541 0)
(7.11081 -0.118712 0)
(7.12018 -0.112334 0)
(7.12903 -0.106266 0)
(7.13736 -0.100497 0)
(7.14522 -0.0950153 0)
(7.15264 -0.0898096 0)
(7.15963 -0.0848682 0)
(7.16622 -0.0801792 0)
(7.17243 -0.0757314 0)
(7.17829 -0.0715133 0)
(7.18381 -0.0675143 0)
(7.18902 -0.0637236 0)
(7.19392 -0.060131 0)
(7.19854 -0.0567268 0)
(7.20289 -0.0535015 0)
(7.20699 -0.0504461 0)
(7.21085 -0.0475522 0)
(7.21448 -0.0448115 0)
(7.21789 -0.0422166 0)
(7.22111 -0.03976 0)
(7.22413 -0.0374347 0)
(7.22697 -0.0352341 0)
(7.22964 -0.0331516 0)
(7.23215 -0.0311809 0)
(7.2345 -0.0293159 0)
(7.23671 -0.0275509 0)
(7.23879 -0.0258802 0)
(7.24073 -0.0242988 0)
(7.24255 -0.0228018 0)
(7.24425 -0.0213848 0)
(7.24585 -0.020044 0)
(7.24734 -0.0187752 0)
(7.24873 -0.0175753 0)
(7.25003 -0.0164406 0)
(7.25124 -0.0153681 0)
(7.25236 -0.0143547 0)
(7.25341 -0.0133975 0)
(7.25438 -0.0124939 0)
(7.25528 -0.0116414 0)
(7.25612 -0.0108377 0)
(7.25689 -0.0100804 0)
(7.2576 -0.00936765 0)
(7.25826 -0.00869701 0)
(7.25887 -0.00806633 0)
(7.25944 -0.00747315 0)
(7.25995 -0.00691505 0)
(7.26043 -0.00638939 0)
(7.26087 -0.00589364 0)
(7.26128 -0.00542522 0)
(7.26164 -0.00498183 0)
(7.26198 -0.00456128 0)
(7.26228 -0.00416189 0)
(7.26255 -0.00378216 0)
(7.26279 -0.00342122 0)
(7.26301 -0.00307842 0)
(7.26319 -0.00275359 0)
(7.26335 -0.0024468 0)
(7.26348 -0.00215826 0)
(7.26359 -0.00188836 0)
(7.26367 -0.0016373 0)
(7.26373 -0.00140531 0)
(7.26378 -0.00119229 0)
(7.26381 -0.000998007 0)
(7.26382 -0.000821942 0)
(7.26382 -0.000663369 0)
(7.26381 -0.000521467 0)
(7.26378 -0.000395179 0)
(7.26376 -0.000283578 0)
(7.26372 -0.000185515 0)
(7.26368 -0.000100137 0)
(7.26364 -2.64273e-05 0)
(7.26359 3.62887e-05 0)
(7.26354 8.87297e-05 0)
(7.26349 0.000131362 0)
(7.26344 0.000164494 0)
(7.26338 0.000188462 0)
(7.26333 0.000203238 0)
(7.26327 0.000209781 0)
(7.26323 0.000207073 0)
(7.26314 0.00019963 0)
(5.00002 -0.000943744 0)
(5.00015 -0.00283183 0)
(5.00043 -0.00471957 0)
(5.00086 -0.00660735 0)
(5.00143 -0.00849548 0)
(5.00215 -0.0103844 0)
(5.003 -0.012275 0)
(5.00399 -0.0141682 0)
(5.00512 -0.0160655 0)
(5.00639 -0.0179687 0)
(5.00779 -0.0198801 0)
(5.00933 -0.0218022 0)
(5.011 -0.023738 0)
(5.01281 -0.025691 0)
(5.01475 -0.0276647 0)
(5.01683 -0.0296634 0)
(5.01904 -0.0316914 0)
(5.02139 -0.0337536 0)
(5.02388 -0.0358548 0)
(5.02651 -0.0380006 0)
(5.02928 -0.0401964 0)
(5.03219 -0.0424482 0)
(5.03526 -0.0447621 0)
(5.03847 -0.0471444 0)
(5.04185 -0.0496016 0)
(5.04538 -0.0521406 0)
(5.04909 -0.0547683 0)
(5.05297 -0.0574918 0)
(5.05703 -0.0603185 0)
(5.06128 -0.063256 0)
(5.06572 -0.066312 0)
(5.07037 -0.0694943 0)
(5.07524 -0.0728111 0)
(5.08032 -0.0762706 0)
(5.08565 -0.0798811 0)
(5.09122 -0.0836512 0)
(5.09705 -0.0875895 0)
(5.10315 -0.091705 0)
(5.10954 -0.0960064 0)
(5.11622 -0.100503 0)
(5.12322 -0.105204 0)
(5.13055 -0.110118 0)
(5.13822 -0.115256 0)
(5.14627 -0.120626 0)
(5.15469 -0.126238 0)
(5.16351 -0.132102 0)
(5.17276 -0.138227 0)
(5.18245 -0.144623 0)
(5.19261 -0.1513 0)
(5.20325 -0.158268 0)
(5.21441 -0.165536 0)
(5.2261 -0.173114 0)
(5.23837 -0.18101 0)
(5.25122 -0.189235 0)
(5.2647 -0.197795 0)
(5.27883 -0.2067 0)
(5.29365 -0.215956 0)
(5.30919 -0.22557 0)
(5.32548 -0.235545 0)
(5.34258 -0.245886 0)
(5.36051 -0.256594 0)
(5.37933 -0.267666 0)
(5.39907 -0.279098 0)
(5.41979 -0.290882 0)
(5.44153 -0.303003 0)
(5.46435 -0.315443 0)
(5.4883 -0.328175 0)
(5.51344 -0.341167 0)
(5.53981 -0.354374 0)
(5.56749 -0.367743 0)
(5.59651 -0.381211 0)
(5.62692 -0.394699 0)
(5.65877 -0.408116 0)
(5.69209 -0.421358 0)
(5.7269 -0.434304 0)
(5.7632 -0.446822 0)