/*--------------------------------*- C++ -*----------------------------------*\
  =========                 |
  \\      /  F ield         | OpenFOAM: The Open Source CFD Toolbox
   \\    /   O peration     | Website:  https://openfoam.org
    \\  /    A nd           | Version:  10
     \\/     M anipulation  |
\*---------------------------------------------------------------------------*/
FoamFile
{
    format      ascii;
    class       surfaceScalarField;
    location    "8000";
    object      phi;
}
// * * * * * * * * * * * * * * * * * * * * * * * * * * * * * * * * * * * * * //

dimensions      [0 3 -1 0 0 0 0];

internalField   nonuniform List<scalar> 
6280
(
-1.30433e-07
1.30433e-07
-2.59133e-07
1.28701e-07
-3.86658e-07
1.27525e-07
-5.13524e-07
1.26865e-07
-6.40215e-07
1.26691e-07
-7.67194e-07
1.2698e-07
-8.94909e-07
1.27715e-07
-1.0238e-06
1.28888e-07
-1.15429e-06
1.30493e-07
-1.28682e-06
1.32531e-07
-1.42183e-06
1.35007e-07
-1.55976e-06
1.3793e-07
-1.70107e-06
1.41315e-07
-1.84625e-06
1.45181e-07
-1.99581e-06
1.49551e-07
-2.15026e-06
1.54456e-07
-2.3102e-06
1.59935e-07
-2.47623e-06
1.66037e-07
-2.64906e-06
1.72828e-07
-2.82946e-06
1.80396e-07
-3.01832e-06
1.88863e-07
-3.21673e-06
1.98406e-07
-3.42601e-06
2.09284e-07
-3.6479e-06
2.21888e-07
-3.88471e-06
2.36815e-07
-4.1397e-06
2.54987e-07
-4.41755e-06
2.77845e-07
-4.7252e-06
3.07655e-07
-5.0732e-06
3.47994e-07
-5.47773e-06
4.04534e-07
-5.96403e-06
4.86303e-07
-6.57174e-06
6.07705e-07
-7.36353e-06
7.91788e-07
-8.43906e-06
1.07553e-06
-9.95747e-06
1.51841e-06
-1.21738e-05
2.21629e-06
-1.54977e-05
3.32395e-06
-1.83418e-05
2.84412e-06
-1.86083e-05
2.66502e-07
1.20719e-07
-1.8729e-05
-1.29221e-07
2.59653e-07
-2.56711e-07
2.56191e-07
-3.83009e-07
2.53823e-07
-5.08613e-07
2.52469e-07
-6.33992e-07
2.52069e-07
-7.5959e-07
2.52578e-07
-8.85837e-07
2.53962e-07
-1.01315e-06
2.56202e-07
-1.14195e-06
2.59287e-07
-1.27263e-06
2.63217e-07
-1.40562e-06
2.67999e-07
-1.54134e-06
2.7365e-07
-1.68022e-06
2.80193e-07
-1.8227e-06
2.8766e-07
-1.96924e-06
2.96093e-07
-2.12033e-06
3.05541e-07
-2.27646e-06
3.16064e-07
-2.43815e-06
3.27734e-07
-2.60596e-06
3.40638e-07
-2.78045e-06
3.54885e-07
-2.9622e-06
3.70611e-07
-3.15178e-06
3.87987e-07
-3.34974e-06
4.07241e-07
-3.55652e-06
4.28673e-07
-3.7724e-06
4.52687e-07
-3.99724e-06
4.79831e-07
-4.23024e-06
5.10845e-07
-4.4693e-06
5.46714e-07
-4.71003e-06
5.88723e-07
-4.94396e-06
6.38462e-07
-5.15539e-06
6.97742e-07
-5.31594e-06
7.68252e-07
-5.37487e-06
8.50714e-07
-5.24233e-06
9.42994e-07
-4.76013e-06
1.03622e-06
-3.65096e-06
1.10712e-06
-1.43055e-06
1.10354e-06
4.9609e-07
9.17478e-07
1.44665e-07
6.17927e-07
4.08099e-07
-1.42716e-07
-1.26839e-07
3.86492e-07
-2.51951e-07
3.81304e-07
-3.7584e-07
3.77711e-07
-4.98968e-07
3.75598e-07
-6.21772e-07
3.74873e-07
-7.44664e-07
3.75469e-07
-8.68038e-07
3.77336e-07
-9.92278e-07
3.80442e-07
-1.11776e-06
3.84768e-07
-1.24485e-06
3.9031e-07
-1.37393e-06
3.97075e-07
-1.50536e-06
4.0508e-07
-1.63952e-06
4.14355e-07
-1.7768e-06
4.24938e-07
-1.91758e-06
4.36876e-07
-2.06227e-06
4.50226e-07
-2.21125e-06
4.65052e-07
-2.36495e-06
4.81426e-07
-2.52373e-06
4.99423e-07
-2.68797e-06
5.19123e-07
-2.85796e-06
5.40603e-07
-3.0339e-06
5.6393e-07
-3.21581e-06
5.89147e-07
-3.40339e-06
6.16251e-07
-3.59586e-06
6.45158e-07
-3.79167e-06
6.75643e-07
-3.98808e-06
7.07248e-07
-4.18051e-06
7.39144e-07
-4.3617e-06
7.69914e-07
-4.52048e-06
7.97242e-07
-4.64022e-06
8.17484e-07
-4.69706e-06
8.25093e-07
-4.6583e-06
8.11956e-07
-4.48207e-06
7.6676e-07
-4.12066e-06
6.74804e-07
-3.53263e-06
5.19094e-07
-2.71367e-06
2.84575e-07
-1.76523e-06
-3.09563e-08
-7.54844e-07
-3.92464e-07
-6.68378e-07
3.21634e-07
-1.23368e-07
5.0986e-07
-2.45017e-07
5.02953e-07
-3.65398e-07
4.98093e-07
-4.84928e-07
4.95128e-07
-6.03995e-07
4.9394e-07
-7.22964e-07
4.94438e-07
-8.42182e-07
4.96555e-07
-9.61984e-07
5.00244e-07
-1.08269e-06
5.05476e-07
-1.20462e-06
5.1224e-07
-1.32809e-06
5.20538e-07
-1.45339e-06
5.30385e-07
-1.58084e-06
5.41809e-07
-1.71076e-06
5.5485e-07
-1.84343e-06
5.69554e-07
-1.97919e-06
5.85981e-07
-2.11833e-06
6.04193e-07
-2.26116e-06
6.2426e-07
-2.40799e-06
6.46248e-07
-2.55909e-06
6.70222e-07
-2.71472e-06
6.9623e-07
-2.87508e-06
7.24294e-07
-3.04032e-06
7.54391e-07
-3.21049e-06
7.86419e-07
-3.38549e-06
8.20158e-07
-3.56505e-06
8.55206e-07
-3.74868e-06
8.90878e-07
-3.93561e-06
9.26069e-07
-4.12474e-06
9.59042e-07
-4.3146e-06
9.8711e-07
-4.50327e-06
1.00615e-06
-4.68805e-06
1.00987e-06
-4.86467e-06
9.8857e-07
-5.02509e-06
9.27183e-07
-5.15221e-06
8.01925e-07
-5.20761e-06
5.74497e-07
-5.10494e-06
1.81904e-07
-4.65426e-06
-4.81636e-07
-3.4497e-06
-1.59703e-06
-4.24005e-06
1.2197e-07
-1.18923e-07
6.28783e-07
-2.3614e-07
6.2017e-07
-3.52038e-07
6.13991e-07
-4.66975e-07
6.10065e-07
-5.81281e-07
6.08246e-07
-6.95264e-07
6.08421e-07
-8.09213e-07
6.10504e-07
-9.23403e-07
6.14434e-07
-1.03809e-06
6.20167e-07
-1.15353e-06
6.27682e-07
-1.26997e-06
6.36971e-07
-1.38763e-06
6.48044e-07
-1.50674e-06
6.60921e-07
-1.62753e-06
6.75639e-07
-1.75022e-06
6.92242e-07
-1.87502e-06
7.10787e-07
-2.00217e-06
7.31339e-07
-2.13188e-06
7.53971e-07
-2.26439e-06
7.78759e-07
-2.39995e-06
8.05786e-07
-2.53886e-06
8.35133e-07
-2.68144e-06
8.6688e-07
-2.82815e-06
9.01101e-07
-2.9796e-06
9.37866e-07
-3.13668e-06
9.77241e-07
-3.30078e-06
1.0193e-06
-3.47405e-06
1.06415e-06
-3.65998e-06
1.112e-06
-3.86419e-06
1.16325e-06
-4.09584e-06
1.21876e-06
-4.36987e-06
1.28018e-06
-4.7107e-06
1.3507e-06
-5.15841e-06
1.43629e-06
-5.77907e-06
1.54784e-06
-6.68211e-06
1.70497e-06
-8.05014e-06
1.94253e-06
-1.01901e-05
2.32189e-06
-1.36221e-05
2.95033e-06
-1.91614e-05
3.94232e-06
-2.46022e-05
1.20075e-06
-1.13648e-07
7.42431e-07
-2.25606e-07
7.32129e-07
-3.36194e-07
7.24579e-07
-4.45701e-07
7.19571e-07
-5.54392e-07
7.16937e-07
-6.62512e-07
7.16541e-07
-7.70285e-07
7.18278e-07
-8.7792e-07
7.22068e-07
-9.85607e-07
7.27854e-07
-1.09352e-06
7.35599e-07
-1.20184e-06
7.45283e-07
-1.3107e-06
7.56902e-07
-1.42024e-06
7.70468e-07
-1.53061e-06
7.86005e-07
-1.64192e-06
8.03551e-07
-1.75429e-06
8.23156e-07
-1.86783e-06
8.44882e-07
-1.98266e-06
8.68803e-07
-2.09891e-06
8.95007e-07
-2.21672e-06
9.23595e-07
-2.33627e-06
9.54687e-07
-2.45782e-06
9.88427e-07
-2.58171e-06
1.02499e-06
-2.70843e-06
1.0646e-06
-2.83873e-06
1.10754e-06
-2.97363e-06
1.15421e-06
-3.11463e-06
1.20515e-06
-3.26377e-06
1.26114e-06
-3.42378e-06
1.32327e-06
-3.59813e-06
1.3931e-06
-3.79078e-06
1.47283e-06
-4.00554e-06
1.56546e-06
-4.24421e-06
1.67496e-06
-4.50268e-06
1.8063e-06
-4.76276e-06
1.96505e-06
-4.97643e-06
2.1562e-06
-5.0356e-06
2.38106e-06
-4.71611e-06
2.63084e-06
-3.31168e-06
2.53789e-06
-2.90827e-05
1.16877e-06
-1.07701e-07
8.50132e-07
-2.13739e-07
8.38166e-07
-3.18356e-07
8.29196e-07
-4.21772e-07
8.22988e-07
-5.24186e-07
8.1935e-07
-6.25773e-07
8.18128e-07
-7.26693e-07
8.19197e-07
-8.27084e-07
8.22459e-07
-9.27066e-07
8.27837e-07
-1.02674e-06
8.35277e-07
-1.1262e-06
8.44743e-07
-1.22551e-06
8.56212e-07
-1.32473e-06
8.6968e-07
-1.42387e-06
8.85154e-07
-1.52298e-06
9.02655e-07
-1.62204e-06
9.22218e-07
-1.72105e-06
9.43888e-07
-1.81997e-06
9.67726e-07
-1.91877e-06
9.93808e-07
-2.0174e-06
1.02223e-06
-2.11581e-06
1.0531e-06
-2.21394e-06
1.08656e-06
-2.31174e-06
1.12278e-06
-2.40913e-06
1.16199e-06
-2.50606e-06
1.20446e-06
-2.60238e-06
1.25053e-06
-2.69787e-06
1.30064e-06
-2.79206e-06
1.35532e-06
-2.88401e-06
1.41523e-06
-2.97203e-06
1.48112e-06
-3.05304e-06
1.55384e-06
-3.1218e-06
1.63422e-06
-3.16974e-06
1.7229e-06
-3.18352e-06
1.82008e-06
-3.14353e-06
1.92506e-06
-3.02293e-06
2.0356e-06
-2.78911e-06
2.14725e-06
-2.41099e-06
2.25271e-06
-1.64776e-06
1.77465e-06
-3.12685e-05
5.38089e-07
-1.01253e-07
9.51385e-07
-2.00878e-07
9.37791e-07
-2.99041e-07
9.27359e-07
-3.95893e-07
9.1984e-07
-4.91564e-07
9.15021e-07
-5.86166e-07
9.1273e-07
-6.7979e-07
9.12822e-07
-7.7251e-07
9.15179e-07
-8.64379e-07
9.19706e-07
-9.5543e-07
9.26328e-07
-1.04567e-06
9.34987e-07
-1.1351e-06
9.4564e-07
-1.22368e-06
9.58259e-07
-1.31135e-06
9.72827e-07
-1.39804e-06
9.89341e-07
-1.48363e-06
1.00781e-06
-1.56798e-06
1.02824e-06
-1.65092e-06
1.05067e-06
-1.73225e-06
1.07514e-06
-1.81171e-06
1.10169e-06
-1.88901e-06
1.13039e-06
-1.96377e-06
1.16132e-06
-2.03556e-06
1.19457e-06
-2.10381e-06
1.23024e-06
-2.16781e-06
1.26846e-06
-2.22665e-06
1.30936e-06
-2.27909e-06
1.35308e-06
-2.3235e-06
1.39973e-06
-2.35769e-06
1.44941e-06
-2.37871e-06
1.50214e-06
-2.38265e-06
1.55779e-06
-2.36446e-06
1.61602e-06
-2.31777e-06
1.67621e-06
-2.23495e-06
1.73726e-06
-2.10744e-06
1.79756e-06
-1.92668e-06
1.85484e-06
-1.68562e-06
1.90619e-06
-1.38113e-06
1.94821e-06
-9.44234e-07
1.33776e-06
-3.2568e-05
3.55225e-07
-9.44746e-08
1.04586e-06
-1.87364e-07
1.03068e-06
-2.78766e-07
1.01876e-06
-3.68763e-07
1.00984e-06
-4.57422e-07
1.00368e-06
-5.44794e-07
1.0001e-06
-6.30911e-07
9.98939e-07
-7.15787e-07
1.00005e-06
-7.99414e-07
1.00333e-06
-8.81762e-07
1.00868e-06
-9.6278e-07
1.016e-06
-1.04239e-06
1.02525e-06
-1.12049e-06
1.03636e-06
-1.19694e-06
1.04928e-06
-1.27159e-06
1.06399e-06
-1.34422e-06
1.08044e-06
-1.41462e-06
1.09863e-06
-1.48248e-06
1.11854e-06
-1.54749e-06
1.14015e-06
-1.60925e-06
1.16345e-06
-1.66731e-06
1.18845e-06
-1.72111e-06
1.21513e-06
-1.77002e-06
1.24348e-06
-1.81326e-06
1.27348e-06
-1.8499e-06
1.3051e-06
-1.87881e-06
1.33827e-06
-1.89864e-06
1.37291e-06
-1.90775e-06
1.40885e-06
-1.9042e-06
1.44586e-06
-1.88568e-06
1.48363e-06
-1.84957e-06
1.52167e-06
-1.79293e-06
1.55938e-06
-1.71267e-06
1.59594e-06
-1.60573e-06
1.63033e-06
-1.4695e-06
1.66132e-06
-1.30218e-06
1.68752e-06
-1.10341e-06
1.70742e-06
-8.74732e-07
1.71954e-06
-6.09589e-07
1.07262e-06
-3.35134e-05
3.35835e-07
-8.7526e-08
1.13339e-06
-1.73521e-07
1.11668e-06
-2.58019e-07
1.10326e-06
-3.41041e-07
1.09286e-06
-4.22601e-07
1.08524e-06
-5.02695e-07
1.0802e-06
-5.81303e-07
1.07755e-06
-6.58388e-07
1.07714e-06
-7.33894e-07
1.07884e-06
-8.07741e-07
1.08252e-06
-8.79827e-07
1.08809e-06
-9.50024e-07
1.09545e-06
-1.01818e-06
1.10451e-06
-1.0841e-06
1.1152e-06
-1.14757e-06
1.12746e-06
-1.20834e-06
1.14121e-06
-1.26612e-06
1.1564e-06
-1.32055e-06
1.17297e-06
-1.37127e-06
1.19086e-06
-1.41781e-06
1.21e-06
-1.45968e-06
1.23032e-06
-1.49629e-06
1.25174e-06
-1.527e-06
1.27418e-06
-1.55103e-06
1.29752e-06
-1.56756e-06
1.32163e-06
-1.57562e-06
1.34633e-06
-1.57414e-06
1.37143e-06
-1.56194e-06
1.39665e-06
-1.53777e-06
1.42169e-06
-1.50029e-06
1.44614e-06
-1.44817e-06
1.46955e-06
-1.38014e-06
1.49136e-06
-1.29514e-06
1.51094e-06
-1.19241e-06
1.5276e-06
-1.07168e-06
1.54059e-06
-9.3333e-07
1.54917e-06
-7.78492e-07
1.55258e-06
-6.09151e-07
1.55019e-06
-4.33579e-07
8.97048e-07
-3.42929e-05
3.45937e-07
-8.05535e-08
1.21394e-06
-1.59641e-07
1.19576e-06
-2.37239e-07
1.18086e-06
-3.13322e-07
1.16894e-06
-3.87853e-07
1.15977e-06
-4.60785e-07
1.15313e-06
-5.3206e-07
1.14882e-06
-6.01599e-07
1.14668e-06
-6.6931e-07
1.14655e-06
-7.35078e-07
1.14829e-06
-7.98767e-07
1.15178e-06
-8.60217e-07
1.1569e-06
-9.19244e-07
1.16354e-06
-9.75634e-07
1.17159e-06
-1.02914e-06
1.18097e-06
-1.0795e-06
1.19157e-06
-1.12639e-06
1.20329e-06
-1.16947e-06
1.21605e-06
-1.20834e-06
1.22974e-06
-1.24259e-06
1.24425e-06
-1.27175e-06
1.25947e-06
-1.29528e-06
1.27528e-06
-1.31263e-06
1.29153e-06
-1.3232e-06
1.30809e-06
-1.32634e-06
1.32476e-06
-1.32137e-06
1.34136e-06
-1.3076e-06
1.35766e-06
-1.28434e-06
1.37339e-06
-1.25093e-06
1.38828e-06
-1.20678e-06
1.40199e-06
-1.15141e-06
1.41419e-06
-1.08453e-06
1.42447e-06
-1.00605e-06
1.43246e-06
-9.16195e-07
1.43775e-06
-8.15553e-07
1.43995e-06
-7.05104e-07
1.43872e-06
-5.86265e-07
1.43375e-06
-4.60896e-07
1.42482e-06
-3.34383e-07
7.70535e-07
-3.49846e-05
3.57299e-07
-7.36824e-08
1.28762e-06
-1.45972e-07
1.26805e-06
-2.16802e-07
1.25169e-06
-2.86105e-07
1.23824e-06
-3.53809e-07
1.22747e-06
-4.19833e-07
1.21915e-06
-4.84087e-07
1.21308e-06
-5.46469e-07
1.20906e-06
-6.06861e-07
1.20694e-06
-6.65128e-07
1.20656e-06
-7.21118e-07
1.20777e-06
-7.74657e-07
1.21044e-06
-8.25552e-07
1.21443e-06
-8.73583e-07
1.21963e-06
-9.18511e-07
1.2259e-06
-9.60066e-07
1.23312e-06
-9.97957e-07
1.24118e-06
-1.03186e-06
1.24996e-06
-1.06143e-06
1.25931e-06
-1.0863e-06
1.26911e-06
-1.10607e-06
1.27923e-06
-1.12031e-06
1.28952e-06
-1.12861e-06
1.29983e-06
-1.13051e-06
1.30999e-06
-1.12559e-06
1.31984e-06
-1.11341e-06
1.32918e-06
-1.09359e-06
1.33783e-06
-1.06578e-06
1.34559e-06
-1.02973e-06
1.35223e-06
-9.8528e-07
1.35754e-06
-9.32406e-07
1.36131e-06
-8.7125e-07
1.36332e-06
-8.02144e-07
1.36335e-06
-7.25632e-07
1.36124e-06
-6.42481e-07
1.3568e-06
-5.53686e-07
1.34992e-06
-4.60446e-07
1.34051e-06
-3.6413e-07
1.32851e-06
-2.67523e-07
6.73927e-07
-3.56286e-05
3.76431e-07
-6.70139e-08
1.35464e-06
-1.32717e-07
1.33376e-06
-1.97009e-07
1.31598e-06
-2.59791e-07
1.30103e-06
-3.20966e-07
1.28865e-06
-3.80431e-07
1.27862e-06
-4.38077e-07
1.27072e-06
-4.93787e-07
1.26477e-06
-5.47431e-07
1.26059e-06
-5.98868e-07
1.258e-06
-6.47943e-07
1.25684e-06
-6.94486e-07
1.25698e-06
-7.3831e-07
1.25825e-06
-7.79211e-07
1.26053e-06
-8.16968e-07
1.26365e-06
-8.51341e-07
1.2675e-06
-8.82075e-07
1.27192e-06
-9.08896e-07
1.27678e-06
-9.31516e-07
1.28193e-06
-9.49632e-07
1.28723e-06
-9.62933e-07
1.29253e-06
-9.71102e-07
1.29769e-06
-9.73827e-07
1.30255e-06
-9.708e-07
1.30697e-06
-9.61739e-07
1.31078e-06
-9.4639e-07
1.31383e-06
-9.24547e-07
1.31599e-06
-8.96069e-07
1.31711e-06
-8.60894e-07
1.31705e-06
-8.19061e-07
1.31571e-06
-7.70725e-07
1.31298e-06
-7.16176e-07
1.30877e-06
-6.55852e-07
1.30303e-06
-5.90344e-07
1.29573e-06
-5.20402e-07
1.28686e-06
-4.46926e-07
1.27645e-06
-3.70961e-07
1.26454e-06
-2.93673e-07
1.25122e-06
-2.14058e-07
5.94312e-07
-3.62472e-05
4.04552e-07
-6.06242e-08
1.41526e-06
-1.20026e-07
1.39316e-06
-1.78081e-07
1.37403e-06
-2.34672e-07
1.35762e-06
-2.89685e-07
1.34366e-06
-3.43003e-07
1.33194e-06
-3.9451e-07
1.32223e-06
-4.44083e-07
1.31434e-06
-4.91593e-07
1.30809e-06
-5.36902e-07
1.30331e-06
-5.79867e-07
1.29981e-06
-6.2033e-07
1.29744e-06
-6.58126e-07
1.29605e-06
-6.93078e-07
1.29548e-06
-7.25e-07
1.29558e-06
-7.53692e-07
1.29619e-06
-7.78948e-07
1.29717e-06
-8.00549e-07
1.29838e-06
-8.1827e-07
1.29965e-06
-8.31882e-07
1.30084e-06
-8.41151e-07
1.3018e-06
-8.45846e-07
1.30239e-06
-8.45742e-07
1.30245e-06
-8.40624e-07
1.30185e-06
-8.30298e-07
1.30045e-06
-8.14599e-07
1.29813e-06
-7.93397e-07
1.29479e-06
-7.66614e-07
1.29032e-06
-7.34232e-07
1.28467e-06
-6.9631e-07
1.27779e-06
-6.52995e-07
1.26966e-06
-6.04534e-07
1.26031e-06
-5.51289e-07
1.24978e-06
-4.93741e-07
1.23818e-06
-4.32498e-07
1.22562e-06
-3.68289e-07
1.21224e-06
-3.01959e-07
1.19821e-06
-2.34445e-07
1.18371e-06
-1.65657e-07
5.25524e-07
-3.68544e-05
4.41579e-07
-5.45653e-08
1.46983e-06
-1.08001e-07
1.44659e-06
-1.60169e-07
1.4262e-06
-2.1094e-07
1.40839e-06
-2.60193e-07
1.39291e-06
-3.07807e-07
1.37955e-06
-3.53665e-07
1.36809e-06
-3.97647e-07
1.35833e-06
-4.39634e-07
1.35008e-06
-4.79501e-07
1.34317e-06
-5.1712e-07
1.33743e-06
-5.52361e-07
1.33268e-06
-5.85087e-07
1.32878e-06
-6.15158e-07
1.32555e-06
-6.42427e-07
1.32284e-06
-6.66746e-07
1.32051e-06
-6.87961e-07
1.31839e-06
-7.05914e-07
1.31633e-06
-7.20447e-07
1.31418e-06
-7.31397e-07
1.31179e-06
-7.38604e-07
1.30901e-06
-7.41903e-07
1.30569e-06
-7.41137e-07
1.30168e-06
-7.36148e-07
1.29686e-06
-7.26786e-07
1.29109e-06
-7.12908e-07
1.28426e-06
-6.94386e-07
1.27627e-06
-6.71106e-07
1.26704e-06
-6.42981e-07
1.25655e-06
-6.09957e-07
1.24476e-06
-5.72026e-07
1.23173e-06
-5.2924e-07
1.21752e-06
-4.81733e-07
1.20228e-06
-4.29735e-07
1.18618e-06
-3.73602e-07
1.16948e-06
-3.13828e-07
1.15246e-06
-2.5106e-07
1.13544e-06
-1.86104e-07
1.11875e-06
-1.19765e-07
4.59185e-07
-3.74607e-05
4.86527e-07
-4.88677e-08
1.51869e-06
-9.67002e-08
1.49443e-06
-1.43354e-07
1.47286e-06
-1.88696e-07
1.45373e-06
-2.32603e-07
1.43682e-06
-2.74959e-07
1.42191e-06
-3.15649e-07
1.40878e-06
-3.54566e-07
1.39724e-06
-3.91603e-07
1.38712e-06
-4.26655e-07
1.37822e-06
-4.59618e-07
1.37039e-06
-4.90391e-07
1.36346e-06
-5.18871e-07
1.35726e-06
-5.4496e-07
1.35164e-06
-5.68557e-07
1.34644e-06
-5.89568e-07
1.34152e-06
-6.07896e-07
1.33672e-06
-6.23448e-07
1.33188e-06
-6.36133e-07
1.32687e-06
-6.45859e-07
1.32152e-06
-6.52536e-07
1.31569e-06
-6.56071e-07
1.30922e-06
-6.56365e-07
1.30198e-06
-6.53315e-07
1.29381e-06
-6.468e-07
1.28457e-06
-6.36686e-07
1.27414e-06
-6.22811e-07
1.26239e-06
-6.04987e-07
1.24922e-06
-5.8299e-07
1.23455e-06
-5.56563e-07
1.21834e-06
-5.25418e-07
1.20058e-06
-4.89249e-07
1.18135e-06
-4.47758e-07
1.16079e-06
-4.00697e-07
1.13912e-06
-3.47918e-07
1.1167e-06
-2.89441e-07
1.09399e-06
-2.25514e-07
1.07151e-06
-1.56625e-07
1.04986e-06
-8.51559e-08
3.87716e-07
-3.8075e-05
5.29137e-07
-4.35433e-08
1.56224e-06
-8.6146e-08
1.53703e-06
-1.27664e-07
1.51437e-06
-1.67968e-07
1.49404e-06
-2.06937e-07
1.47579e-06
-2.4446e-07
1.45943e-06
-2.80435e-07
1.44475e-06
-3.14767e-07
1.43158e-06
-3.47366e-07
1.41972e-06
-3.78148e-07
1.40901e-06
-4.07037e-07
1.39928e-06
-4.33962e-07
1.39038e-06
-4.58858e-07
1.38215e-06
-4.81667e-07
1.37445e-06
-5.02339e-07
1.36711e-06
-5.20831e-07
1.36001e-06
-5.37109e-07
1.353e-06
-5.51147e-07
1.34592e-06
-5.62926e-07
1.33864e-06
-5.72432e-07
1.33102e-06
-5.79657e-07
1.32291e-06
-5.84595e-07
1.31416e-06
-5.87233e-07
1.30462e-06
-5.87546e-07
1.29412e-06
-5.85489e-07
1.28252e-06
-5.80976e-07
1.26963e-06
-5.73872e-07
1.25529e-06
-5.63959e-07
1.23931e-06
-5.50918e-07
1.22151e-06
-5.34297e-07
1.20172e-06
-5.13481e-07
1.17977e-06
-4.87671e-07
1.15554e-06
-4.55882e-07
1.129e-06
-4.16976e-07
1.10022e-06
-3.69764e-07
1.06949e-06
-3.13219e-07
1.03744e-06
-2.46846e-07
1.00514e-06
-1.71289e-07
9.74305e-07
-9.00171e-08
3.06444e-07
-3.8694e-05
5.29029e-07
-3.85904e-08
1.60083e-06
-7.63328e-08
1.57477e-06
-1.13087e-07
1.55113e-06
-1.48729e-07
1.52968e-06
-1.83144e-07
1.51021e-06
-2.16231e-07
1.49252e-06
-2.47899e-07
1.47642e-06
-2.78067e-07
1.46174e-06
-3.06663e-07
1.44831e-06
-3.33626e-07
1.43597e-06
-3.58904e-07
1.42456e-06
-3.82456e-07
1.41393e-06
-4.04252e-07
1.40395e-06
-4.24273e-07
1.39447e-06
-4.42515e-07
1.38536e-06
-4.58988e-07
1.37648e-06
-4.73714e-07
1.36772e-06
-4.86734e-07
1.35894e-06
-4.98104e-07
1.35001e-06
-5.07897e-07
1.34082e-06
-5.16201e-07
1.33122e-06
-5.23119e-07
1.32108e-06
-5.28765e-07
1.31026e-06
-5.33254e-07
1.29861e-06
-5.36697e-07
1.28596e-06
-5.39186e-07
1.27212e-06
-5.40764e-07
1.25686e-06
-5.41398e-07
1.23994e-06
-5.40924e-07
1.22104e-06
-5.38979e-07
1.19977e-06
-5.34896e-07
1.17568e-06
-5.27573e-07
1.14822e-06
-5.1529e-07
1.11671e-06
-4.95489e-07
1.08041e-06
-4.64523e-07
1.03853e-06
-4.17437e-07
9.90355e-07
-3.47897e-07
9.35602e-07
-2.48544e-07
8.74952e-07
-9.71631e-08
1.55064e-07
-3.93264e-05
5.35182e-07
-3.39978e-08
1.63482e-06
-6.72362e-08
1.60801e-06
-9.95816e-08
1.58347e-06
-1.30915e-07
1.56101e-06
-1.61132e-07
1.54042e-06
-1.90141e-07
1.52152e-06
-2.1786e-07
1.50414e-06
-2.44224e-07
1.48811e-06
-2.69176e-07
1.47327e-06
-2.92673e-07
1.45947e-06
-3.14686e-07
1.44657e-06
-3.35198e-07
1.43444e-06
-3.54208e-07
1.42296e-06
-3.7173e-07
1.41199e-06
-3.87796e-07
1.40142e-06
-4.02459e-07
1.39115e-06
-4.1579e-07
1.38105e-06
-4.27888e-07
1.37104e-06
-4.38873e-07
1.361e-06
-4.489e-07
1.35084e-06
-4.5815e-07
1.34047e-06
-4.66845e-07
1.32977e-06
-4.75244e-07
1.31866e-06
-4.83647e-07
1.30701e-06
-4.92404e-07
1.29472e-06
-5.01908e-07
1.28162e-06
-5.12603e-07
1.26756e-06
-5.24969e-07
1.25231e-06
-5.39508e-07
1.23558e-06
-5.56699e-07
1.21696e-06
-5.76918e-07
1.1959e-06
-6.00283e-07
1.17159e-06
-6.2637e-07
1.1428e-06
-6.53697e-07
1.10774e-06
-6.78814e-07
1.06364e-06
-6.94698e-07
1.00624e-06
-6.87957e-07
9.28862e-07
-6.33985e-07
8.2098e-07
-9.97726e-08
-3.79149e-07
-3.99763e-05
5.50104e-07
-2.9749e-08
1.66457e-06
-5.88219e-08
1.63708e-06
-8.7092e-08
1.61174e-06
-1.14448e-07
1.58837e-06
-1.40791e-07
1.56677e-06
-1.6604e-07
1.54677e-06
-1.90122e-07
1.52822e-06
-2.12983e-07
1.51097e-06
-2.34578e-07
1.49486e-06
-2.54878e-07
1.47977e-06
-2.7387e-07
1.46556e-06
-2.91554e-07
1.45213e-06
-3.07947e-07
1.43935e-06
-3.23086e-07
1.42713e-06
-3.37026e-07
1.41536e-06
-3.49846e-07
1.40397e-06
-3.61648e-07
1.39285e-06
-3.72563e-07
1.38195e-06
-3.82754e-07
1.37119e-06
-3.92422e-07
1.36051e-06
-4.01812e-07
1.34986e-06
-4.1122e-07
1.33918e-06
-4.21007e-07
1.32845e-06
-4.31612e-07
1.31762e-06
-4.43573e-07
1.30668e-06
-4.57559e-07
1.29561e-06
-4.74405e-07
1.28441e-06
-4.95173e-07
1.27308e-06
-5.21239e-07
1.26164e-06
-5.54416e-07
1.25014e-06
-5.97147e-07
1.23863e-06
-6.52794e-07
1.22723e-06
-7.26094e-07
1.2161e-06
-8.23868e-07
1.20552e-06
-9.56154e-07
1.19593e-06
-1.13803e-06
1.18811e-06
-1.39254e-06
1.18338e-06
-1.75537e-06
1.18381e-06
-8.32517e-08
-2.05127e-06
-4.0642e-05
5.82483e-07
-2.58259e-08
1.6904e-06
-5.10528e-08
1.66231e-06
-7.55602e-08
1.63625e-06
-9.92428e-08
1.61205e-06
-1.22009e-07
1.58953e-06
-1.43783e-07
1.56855e-06
-1.645e-07
1.54894e-06
-1.84111e-07
1.53058e-06
-2.02582e-07
1.51333e-06
-2.19889e-07
1.49708e-06
-2.36029e-07
1.4817e-06
-2.51008e-07
1.46711e-06
-2.64854e-07
1.4532e-06
-2.7761e-07
1.43988e-06
-2.89339e-07
1.42709e-06
-3.00124e-07
1.41475e-06
-3.10073e-07
1.4028e-06
-3.19321e-07
1.3912e-06
-3.2803e-07
1.3799e-06
-3.36401e-07
1.36888e-06
-3.44673e-07
1.35813e-06
-3.53134e-07
1.34764e-06
-3.62132e-07
1.33744e-06
-3.72086e-07
1.32757e-06
-3.83509e-07
1.3181e-06
-3.97031e-07
1.30913e-06
-4.13434e-07
1.30081e-06
-4.33704e-07
1.29335e-06
-4.59101e-07
1.28704e-06
-4.9126e-07
1.2823e-06
-5.32329e-07
1.2797e-06
-5.8518e-07
1.28008e-06
-6.53703e-07
1.28462e-06
-7.43224e-07
1.29504e-06
-8.6112e-07
1.31383e-06
-1.01768e-06
1.34467e-06
-1.22731e-06
1.39301e-06
-1.50947e-06
1.46597e-06
-7.69868e-08
-3.48375e-06
-4.13234e-05
6.04443e-07
-2.22113e-08
1.71261e-06
-4.3894e-08
1.68399e-06
-6.49327e-08
1.65729e-06
-8.52267e-08
1.63234e-06
-1.04689e-07
1.60899e-06
-1.23247e-07
1.5871e-06
-1.40841e-07
1.56653e-06
-1.57426e-07
1.54716e-06
-1.72968e-07
1.52887e-06
-1.87448e-07
1.51156e-06
-2.00862e-07
1.49512e-06
-2.13217e-07
1.47946e-06
-2.24539e-07
1.46452e-06
-2.34863e-07
1.45021e-06
-2.44247e-07
1.43648e-06
-2.52759e-07
1.42326e-06
-2.6049e-07
1.41053e-06
-2.67547e-07
1.39826e-06
-2.7406e-07
1.38641e-06
-2.80177e-07
1.375e-06
-2.86074e-07
1.36403e-06
-2.91951e-07
1.35352e-06
-2.98035e-07
1.34353e-06
-3.04585e-07
1.33412e-06
-3.11886e-07
1.3254e-06
-3.20254e-07
1.3175e-06
-3.3003e-07
1.31058e-06
-3.41564e-07
1.30488e-06
-3.55194e-07
1.30067e-06
-3.71196e-07
1.2983e-06
-3.89699e-07
1.29821e-06
-4.10534e-07
1.30092e-06
-4.32969e-07
1.30706e-06
-4.5526e-07
1.31733e-06
-4.73897e-07
1.33246e-06
-4.8234e-07
1.35311e-06
-4.68933e-07
1.37961e-06
-4.11723e-07
1.40876e-06
-1.47469e-07
-3.74801e-06
-4.2037e-05
5.66053e-07
-1.88908e-08
1.7315e-06
-3.73166e-08
1.70242e-06
-5.51657e-08
1.67514e-06
-7.23401e-08
1.64952e-06
-8.87557e-08
1.62541e-06
-1.04341e-07
1.60269e-06
-1.19038e-07
1.58123e-06
-1.32801e-07
1.56093e-06
-1.45596e-07
1.54167e-06
-1.57401e-07
1.52336e-06
-1.68206e-07
1.50592e-06
-1.78014e-07
1.48927e-06
-1.86837e-07
1.47334e-06
-1.947e-07
1.45807e-06
-2.0164e-07
1.44341e-06
-2.07701e-07
1.42933e-06
-2.1294e-07
1.41577e-06
-2.17424e-07
1.40274e-06
-2.21226e-07
1.39022e-06
-2.24426e-07
1.3782e-06
-2.2711e-07
1.36671e-06
-2.29362e-07
1.35577e-06
-2.31261e-07
1.34543e-06
-2.32876e-07
1.33574e-06
-2.34248e-07
1.32677e-06
-2.3538e-07
1.31863e-06
-2.36208e-07
1.31141e-06
-2.36568e-07
1.30524e-06
-2.36149e-07
1.30025e-06
-2.34419e-07
1.29657e-06
-2.30534e-07
1.29432e-06
-2.2321e-07
1.29359e-06
-2.10554e-07
1.2944e-06
-1.89871e-07
1.29664e-06
-1.57433e-07
1.30002e-06
-1.08281e-07
1.30396e-06
-3.61412e-08
1.30747e-06
6.67906e-08
1.30582e-06
-2.03976e-07
-3.47724e-06
-4.27755e-05
5.34596e-07
-1.58534e-08
1.74735e-06
-3.1299e-08
1.71786e-06
-4.62269e-08
1.69007e-06
-6.0541e-08
1.66383e-06
-7.41577e-08
1.63903e-06
-8.70057e-08
1.61554e-06
-9.90257e-08
1.59325e-06
-1.10169e-07
1.57207e-06
-1.20399e-07
1.5519e-06
-1.29688e-07
1.53265e-06
-1.38018e-07
1.51425e-06
-1.45381e-07
1.49663e-06
-1.51775e-07
1.47974e-06
-1.57209e-07
1.46351e-06
-1.61695e-07
1.4479e-06
-1.65251e-07
1.43288e-06
-1.679e-07
1.41842e-06
-1.69663e-07
1.4045e-06
-1.70562e-07
1.39112e-06
-1.70613e-07
1.37825e-06
-1.69823e-07
1.36592e-06
-1.68184e-07
1.35413e-06
-1.65665e-07
1.34291e-06
-1.62205e-07
1.33228e-06
-1.57699e-07
1.32227e-06
-1.51985e-07
1.31292e-06
-1.44828e-07
1.30425e-06
-1.35897e-07
1.29631e-06
-1.24741e-07
1.28909e-06
-1.10764e-07
1.28259e-06
-9.31988e-08
1.27676e-06
-7.10845e-08
1.27148e-06
-4.32584e-08
1.26658e-06
-8.37149e-09
1.26176e-06
3.50537e-08
1.2566e-06
8.84984e-08
1.25051e-06
1.53229e-07
1.24274e-06
2.29861e-07
1.22919e-06
-2.30464e-07
-3.01691e-06
-4.35293e-05
5.2327e-07
-1.30915e-08
1.76045e-06
-2.58261e-08
1.7306e-06
-3.80952e-08
1.70234e-06
-4.98029e-08
1.67554e-06
-6.08652e-08
1.65009e-06
-7.12098e-08
1.62588e-06
-8.07749e-08
1.60282e-06
-8.95087e-08
1.5808e-06
-9.73686e-08
1.55976e-06
-1.04321e-07
1.5396e-06
-1.10338e-07
1.52027e-06
-1.15402e-07
1.5017e-06
-1.19497e-07
1.48383e-06
-1.22614e-07
1.46662e-06
-1.24747e-07
1.45003e-06
-1.25888e-07
1.43402e-06
-1.26032e-07
1.41857e-06
-1.25167e-07
1.40364e-06
-1.23278e-07
1.38923e-06
-1.20336e-07
1.37531e-06
-1.16301e-07
1.36188e-06
-1.11112e-07
1.34894e-06
-1.04685e-07
1.33648e-06
-9.69035e-08
1.3245e-06
-8.76171e-08
1.31298e-06
-7.66315e-08
1.30193e-06
-6.37056e-08
1.29133e-06
-4.85478e-08
1.28115e-06
-3.08178e-08
1.27136e-06
-1.01342e-08
1.26191e-06
1.39083e-08
1.25271e-06
4.17059e-08
1.24368e-06
7.35947e-08
1.23469e-06
1.09772e-07
1.22558e-06
1.50189e-07
1.21618e-06
1.94405e-07
1.2063e-06
2.41408e-07
1.19573e-06
2.89335e-07
1.18127e-06
-2.46891e-07
-2.48069e-06
-4.42834e-05
5.07231e-07
-1.06e-08
1.77105e-06
-2.08887e-08
1.74089e-06
-3.07576e-08
1.7122e-06
-4.01109e-08
1.68489e-06
-4.88638e-08
1.65884e-06
-5.6942e-08
1.63396e-06
-6.42813e-08
1.61016e-06
-7.08258e-08
1.58735e-06
-7.65282e-08
1.56546e-06
-8.13478e-08
1.54442e-06
-8.52503e-08
1.52417e-06
-8.82067e-08
1.50465e-06
-9.01914e-08
1.48582e-06
-9.1182e-08
1.46761e-06
-9.11567e-08
1.45001e-06
-9.00935e-08
1.43296e-06
-8.79675e-08
1.41644e-06
-8.47493e-08
1.40042e-06
-8.0402e-08
1.38488e-06
-7.4879e-08
1.36979e-06
-6.81202e-08
1.35513e-06
-6.00497e-08
1.34087e-06
-5.0572e-08
1.327e-06
-3.95693e-08
1.31349e-06
-2.68992e-08
1.30031e-06
-1.23932e-08
1.28742e-06
4.14247e-09
1.27479e-06
2.29233e-08
1.26237e-06
4.41789e-08
1.25011e-06
6.81398e-08
1.23795e-06
9.50157e-08
1.22584e-06
1.24964e-07
1.21373e-06
1.58045e-07
1.20161e-06
1.9416e-07
1.18946e-06
2.32974e-07
1.17737e-06
2.73805e-07
1.16547e-06
3.15501e-07
1.15404e-06
3.56139e-07
1.14063e-06
-2.37791e-07
-1.88676e-06
-4.49888e-05
4.67661e-07
-8.37558e-09
1.77942e-06
-1.64803e-08
1.74899e-06
-2.42062e-08
1.71993e-06
-3.1457e-08
1.69214e-06
-3.81472e-08
1.66553e-06
-4.4201e-08
1.64001e-06
-4.95516e-08
1.61551e-06
-5.41399e-08
1.59194e-06
-5.79143e-08
1.56923e-06
-6.08292e-08
1.54734e-06
-6.28442e-08
1.52619e-06
-6.39232e-08
1.50573e-06
-6.40334e-08
1.48593e-06
-6.3144e-08
1.46672e-06
-6.12253e-08
1.44809e-06
-5.82468e-08
1.42998e-06
-5.41764e-08
1.41237e-06
-4.89785e-08
1.39522e-06
-4.26126e-08
1.37851e-06
-3.50312e-08
1.36221e-06
-2.61784e-08
1.34627e-06
-1.59877e-08
1.33068e-06
-4.38069e-09
1.3154e-06
8.73528e-09
1.30038e-06
2.34681e-08
1.28558e-06
3.99426e-08
1.27095e-06
5.83008e-08
1.25644e-06
7.87033e-08
1.24197e-06
1.01329e-07
1.22748e-06
1.26376e-07
1.2129e-06
1.54062e-07
1.19815e-06
1.84625e-07
1.18317e-06
2.1833e-07
1.1679e-06
2.5547e-07
1.15232e-06
2.96379e-07
1.13646e-06
3.41434e-07
1.12041e-06
3.91048e-07
1.10442e-06
4.45408e-07
1.08627e-06
-1.52775e-07
-1.28858e-06
-4.54945e-05
3.52878e-07
-6.41527e-09
1.78584e-06
-1.25958e-08
1.75517e-06
-1.84343e-08
1.72577e-06
-2.38347e-08
1.69754e-06
-2.8711e-08
1.67041e-06
-3.29865e-08
1.64429e-06
-3.65925e-08
1.61911e-06
-3.94679e-08
1.59481e-06
-4.15578e-08
1.57132e-06
-4.28133e-08
1.54859e-06
-4.31899e-08
1.52656e-06
-4.26474e-08
1.50519e-06
-4.11488e-08
1.48443e-06
-3.86594e-08
1.46424e-06
-3.51464e-08
1.44458e-06
-3.05776e-08
1.42541e-06
-2.49213e-08
1.40671e-06
-1.81449e-08
1.38845e-06
-1.02149e-08
1.37058e-06
-1.09595e-09
1.35309e-06
9.24985e-09
1.33593e-06
2.08633e-08
1.31907e-06
3.37887e-08
1.30247e-06
4.8075e-08
1.28609e-06
6.37764e-08
1.26988e-06
8.09543e-08
1.25377e-06
9.96801e-08
1.23771e-06
1.20039e-07
1.22161e-06
1.42139e-07
1.20538e-06
1.6612e-07
1.18892e-06
1.92171e-07
1.1721e-06
2.20564e-07
1.15478e-06
2.51696e-07
1.13677e-06
2.86163e-07
1.11786e-06
3.24879e-07
1.09774e-06
3.69274e-07
1.07602e-06
4.21612e-07
1.05208e-06
4.85234e-07
1.02265e-06
3.56183e-08
-8.3896e-07
-4.56288e-05
1.6996e-07
-4.71565e-09
1.79055e-06
-9.2288e-09
1.75968e-06
-1.34335e-08
1.72997e-06
-1.72345e-08
1.70134e-06
-2.05464e-08
1.67372e-06
-2.3292e-08
1.64704e-06
-2.54021e-08
1.62122e-06
-2.68142e-08
1.59622e-06
-2.74719e-08
1.57198e-06
-2.73241e-08
1.54844e-06
-2.63241e-08
1.52556e-06
-2.44296e-08
1.5033e-06
-2.16017e-08
1.4816e-06
-1.78045e-08
1.46044e-06
-1.30049e-08
1.43978e-06
-7.17263e-09
1.41958e-06
-2.79645e-10
1.39982e-06
7.69927e-09
1.38047e-06
1.67864e-08
1.3615e-06
2.70004e-08
1.34287e-06
3.83558e-08
1.32457e-06
5.08617e-08
1.30656e-06
6.4521e-08
1.28881e-06
7.93288e-08
1.27128e-06
9.52719e-08
1.25393e-06
1.12327e-07
1.23672e-06
1.30463e-07
1.21957e-06
1.49636e-07
1.20244e-06
1.69797e-07
1.18522e-06
1.9089e-07
1.16783e-06
2.12854e-07
1.15014e-06
2.35624e-07
1.13201e-06
2.59122e-07
1.11327e-06
2.83234e-07
1.09375e-06
3.07756e-07
1.07322e-06
3.32276e-07
1.0515e-06
3.55959e-07
1.0284e-06
3.76896e-07
1.00171e-06
3.57243e-08
-4.97789e-07
-4.57421e-05
1.49009e-07
-3.27185e-09
1.79382e-06
-6.3699e-09
1.76278e-06
-9.19059e-09
1.73279e-06
-1.16406e-08
1.70379e-06
-1.36356e-08
1.67572e-06
-1.50996e-08
1.6485e-06
-1.59635e-08
1.62209e-06
-1.61647e-08
1.59643e-06
-1.56461e-08
1.57146e-06
-1.43557e-08
1.54715e-06
-1.2246e-08
1.52345e-06
-9.27354e-09
1.50032e-06
-5.39852e-09
1.47773e-06
-5.84807e-10
1.45562e-06
5.20019e-09
1.43399e-06
1.19853e-08
1.4128e-06
1.9795e-08
1.39201e-06
2.8649e-08
1.37161e-06
3.85608e-08
1.35158e-06
4.95364e-08
1.3319e-06
6.15725e-08
1.31254e-06
7.46535e-08
1.29348e-06
8.8749e-08
1.27472e-06
1.0381e-07
1.25622e-06
1.19764e-07
1.23798e-06
1.36511e-07
1.21997e-06