/*--------------------------------*- C++ -*----------------------------------*\
| =========                 |                                                 |
| \\      /  F ield         | foam-extend: Open Source CFD                    |
|  \\    /   O peration     | Version:     5.0                                |
|   \\  /    A nd           | Web:         http://www.foam-extend.org         |
|    \\/     M anipulation  |                                                 |
\*---------------------------------------------------------------------------*/
FoamFile
{
    version     2.0;
    format      ascii;
    class       volScalarField;
    location    "7";
    object      CO2.gas;
}
// * * * * * * * * * * * * * * * * * * * * * * * * * * * * * * * * * * * * * //

dimensions      [0 0 0 0 0 0 0];

internalField   nonuniform List<scalar> 
100
(
0.0884486
0.0870291
0.0858577
0.0843983
0.0829904
0.081634
0.0804366
0.0793147
0.0780624
0.0768045
0.0757796
0.0746345
0.0738264
0.0728225
0.0718055
0.0707375
0.0697425
0.0689558
0.0679955
0.0670186
0.0662194
0.0653499
0.0646072
0.063816
0.0630122
0.0623281
0.0615887
0.0608639
0.0601545
0.0595021
0.0587444
0.0581342
0.0574696
0.0569283
0.0563327
0.0557582
0.0552257
0.0546405
0.0540535
0.0535932
0.0532062
0.0526403
0.0521913
0.0518121
0.0513432
0.0508709
0.0504449
0.0499391
0.0495608
0.0491718
0.0487451
0.0483137
0.0479205
0.0475196
0.0471033
0.0467377
0.0463443
0.0460056
0.0456799
0.0453352
0.0450372
0.0447224
0.0444251
0.0440925
0.0437917
0.0434748
0.0431815
0.0429027
0.0425964
0.0423343
0.0420232
0.041723
0.0414157
0.0411717
0.0409008
0.0406152
0.0403613
0.0401484
0.0398794
0.039629
0.0393859
0.0391473
0.0388998
0.0386578
0.0384104
0.0381591
0.0379385
0.0377091
0.0374612
0.0372159
0.0369936
0.0367723
0.0365541
0.0363452
0.0361724
0.0359536
0.035767
0.0355749
0.0354409
0.0353347
)
;

boundaryField
{
    inlet
    {
        type            fixedValue;
        value           uniform 0.2;
    }
    outlet
    {
        type            zeroGradient;
    }
    yzfaces
    {
        type            empty;
    }
}


// ************************************************************************* //
