/*--------------------------------*- C++ -*----------------------------------*\
  =========                 |
  \\      /  F ield         | OpenFOAM: The Open Source CFD Toolbox
   \\    /   O peration     | Website:  https://openfoam.org
    \\  /    A nd           | Version:  10
     \\/     M anipulation  |
\*---------------------------------------------------------------------------*/
FoamFile
{
    format      ascii;
    class       volVectorField;
    location    "2.02";
    object      Ua;
}
// * * * * * * * * * * * * * * * * * * * * * * * * * * * * * * * * * * * * * //

dimensions      [0 1 -1 0 0 0 0];

internalField   nonuniform List<vector> 
12225
(
(1.94753e-05 -2.50462e-06 0)
(5.69279e-05 -2.3445e-06 0)
(9.08662e-05 -2.04995e-06 0)
(0.000120742 -1.71763e-06 0)
(0.000146778 -1.41298e-06 0)
(0.000169592 -1.1685e-06 0)
(0.000189915 -9.95213e-07 0)
(0.000208448 -8.94064e-07 0)
(0.000225816 -8.63858e-07 0)
(0.000242578 -9.0643e-07 0)
(0.000259266 -1.03086e-06 0)
(0.000276445 -1.25911e-06 0)
(0.000294824 -1.63703e-06 0)
(0.000315436 -2.26064e-06 0)
(0.000340079 -3.3495e-06 0)
(0.000372531 -5.49884e-06 0)
(0.000423165 -1.08285e-05 0)
(0.00053364 -3.02666e-05 0)
(1.31911e-05 -6.47174e-06 0)
(3.88538e-05 -6.09609e-06 0)
(6.27641e-05 -5.36758e-06 0)
(8.45317e-05 -4.52897e-06 0)
(0.000104167 -3.75028e-06 0)
(0.000121926 -3.1202e-06 0)
(0.00013817 -2.67221e-06 0)
(0.000153281 -2.41285e-06 0)
(0.000167624 -2.34223e-06 0)
(0.000181545 -2.46789e-06 0)
(0.00019539 -2.81636e-06 0)
(0.000209539 -3.44851e-06 0)
(0.000224465 -4.48899e-06 0)
(0.000240856 -6.19465e-06 0)
(0.000259831 -9.13883e-06 0)
(0.000283441 -1.48003e-05 0)
(0.000315321 -2.78869e-05 0)
(0.000354158 -6.78319e-05 0)
(1.01813e-05 -8.86991e-06 0)
(3.01771e-05 -8.43192e-06 0)
(4.9223e-05 -7.49682e-06 0)
(6.70121e-05 -6.38456e-06 0)
(8.34706e-05 -5.33118e-06 0)
(9.86968e-05 -4.46806e-06 0)
(0.000112884 -3.85142e-06 0)
(0.000126263 -3.49868e-06 0)
(0.000139075 -3.41655e-06 0)
(0.000151558 -3.62101e-06 0)
(0.00016396 -4.15443e-06 0)
(0.000176558 -5.10788e-06 0)
(0.000189688 -6.66212e-06 0)
(0.000203811 -9.17869e-06 0)
(0.000219573 -1.34272e-05 0)
(0.000237796 -2.122e-05 0)
(0.000258398 -3.73349e-05 0)
(0.000272226 -7.5e-05 0)
(8.2431e-06 -1.04151e-05 0)
(2.45738e-05 -9.99464e-06 0)
(4.04376e-05 -8.97196e-06 0)
(5.5586e-05 -7.70965e-06 0)
(6.99045e-05 -6.48916e-06 0)
(8.34023e-05 -5.4765e-06 0)
(9.61718e-05 -4.74998e-06 0)
(0.00010835 -4.34006e-06 0)
(0.000120094 -4.26238e-06 0)
(0.000131572 -4.54219e-06 0)
(0.000142961 -5.23555e-06 0)
(0.000154458 -6.45597e-06 0)
(0.000166293 -8.42088e-06 0)
(0.000178735 -1.15473e-05 0)
(0.000192054 -1.66664e-05 0)
(0.000206225 -2.55192e-05 0)
(0.000219557 -4.18137e-05 0)
(0.000223752 -7.23182e-05 0)
(6.84082e-06 -1.13568e-05 0)
(2.05071e-05 -1.10064e-05 0)
(3.40284e-05 -9.97481e-06 0)
(4.72009e-05 -8.64602e-06 0)
(5.98916e-05 -7.33292e-06 0)
(7.20556e-05 -6.22987e-06 0)
(8.37188e-05 -5.43582e-06 0)
(9.49525e-05 -4.99503e-06 0)
(0.000105854 -4.93303e-06 0)
(0.000116534 -5.28408e-06 0)
(0.000127115 -6.11503e-06 0)
(0.000137729 -7.5537e-06 0)
(0.000148509 -9.83481e-06 0)
(0.000159572 -1.33854e-05 0)
(0.000170902 -1.89893e-05 0)
(0.000181999 -2.80807e-05 0)
(0.000190809 -4.30718e-05 0)
(0.000191551 -6.6589e-05 0)
(5.76227e-06 -1.18231e-05 0)
(1.73687e-05 -1.15795e-05 0)
(2.90545e-05 -1.05952e-05 0)
(4.06516e-05 -9.26134e-06 0)
(5.20215e-05 -7.91228e-06 0)
(6.30867e-05 -6.76516e-06 0)
(7.38277e-05 -5.93748e-06 0)
(8.42676e-05 -5.48707e-06 0)
(9.44569e-05 -5.44932e-06 0)
(0.000104462 -5.86652e-06 0)
(0.000114357 -6.81276e-06 0)
(0.000124216 -8.4218e-06 0)
(0.000134096 -1.09273e-05 0)
(0.00014399 -1.47284e-05 0)
(0.000153704 -2.04906e-05 0)
(0.000162544 -2.92583e-05 0)
(0.000168691 -4.2364e-05 0)
(0.000168565 -6.03101e-05 0)
(4.90164e-06 -1.18935e-05 0)
(1.48557e-05 -1.17828e-05 0)
(2.50479e-05 -1.0886e-05 0)
(3.53394e-05 -9.59357e-06 0)
(4.55949e-05 -8.25332e-06 0)
(5.57186e-05 -7.10009e-06 0)
(6.56599e-05 -6.26737e-06 0)
(7.54061e-05 -5.82544e-06 0)
(8.49703e-05 -5.81879e-06 0)
(9.43811e-05 -6.29608e-06 0)
(0.000103673 -7.33486e-06 0)
(0.000112871 -9.06676e-06 0)
(0.000121969 -1.1709e-05 0)
(0.000130877 -1.56059e-05 0)
(0.000139306 -2.12727e-05 0)
(0.000146563 -2.93858e-05 0)
(0.000151251 -4.0537e-05 0)
(0.000151309 -5.43493e-05 0)
(4.19832e-06 -1.16248e-05 0)
(1.27942e-05 -1.1664e-05 0)
(2.17405e-05 -1.08827e-05 0)
(3.09225e-05 -9.66632e-06 0)
(4.02136e-05 -8.37056e-06 0)
(4.95101e-05 -7.24302e-06 0)
(5.87408e-05 -6.43002e-06 0)
(6.78658e-05 -6.01243e-06 0)
(7.68684e-05 -6.04248e-06 0)
(8.57457e-05 -6.57318e-06 0)
(9.44973e-05 -7.68173e-06 0)
(0.00010311 -9.49066e-06 0)
(0.000111531 -1.21894e-05 0)
(0.000119619 -1.60538e-05 0)
(0.000127064 -2.14479e-05 0)
(0.000133262 -2.87549e-05 0)
(0.000137239 -3.81283e-05 0)
(0.000137865 -4.89469e-05 0)
(3.61409e-06 -1.10623e-05 0)
(1.10748e-05 -1.12602e-05 0)
(1.89633e-05 -1.06114e-05 0)
(2.71854e-05 -9.49565e-06 0)
(3.56279e-05 -8.27251e-06 0)
(4.4186e-05 -7.19742e-06 0)
(5.27757e-05 -6.42581e-06 0)
(6.13368e-05 -6.04675e-06 0)
(6.98284e-05 -6.11826e-06 0)
(7.82214e-05 -6.69552e-06 0)
(8.64873e-05 -7.85196e-06 0)
(9.45824e-05 -9.69577e-06 0)
(0.000102423 -1.23821e-05 0)
(0.000109848 -1.61162e-05 0)
(0.000116564 -2.11303e-05 0)
(0.000122096 -2.76014e-05 0)
(0.000125802 -3.5461e-05 0)
(0.000127093 -4.4113e-05 0)
(3.12294e-06 -1.02466e-05 0)
(9.62263e-06 -1.06031e-05 0)
(1.66006e-05 -1.0093e-05 0)
(2.39817e-05 -9.09365e-06 0)
(3.1669e-05 -7.96465e-06 0)
(3.95617e-05 -6.9644e-06 0)
(4.75687e-05 -6.25325e-06 0)
(5.56145e-05 -5.9255e-06 0)
(6.36388e-05 -6.04278e-06 0)
(7.15913e-05 -6.66018e-06 0)
(7.9421e-05 -7.84463e-06 0)
(8.70625e-05 -9.68684e-06 0)
(9.44152e-05 -1.23061e-05 0)
(0.000101317 -1.58427e-05 0)
(0.000107516 -2.04267e-05 0)
(0.000112658 -2.61049e-05 0)
(0.000116343 -3.27196e-05 0)
(0.000118275 -3.97851e-05 0)
(2.70589e-06 -9.21664e-06 0)
(8.38272e-06 -9.72175e-06 0)
(1.45676e-05 -9.34624e-06 0)
(2.12045e-05 -8.47054e-06 0)
(2.82151e-05 -7.4513e-06 0)
(3.5506e-05 -6.54439e-06 0)
(4.29821e-05 -5.91044e-06 0)
(5.05567e-05 -5.64563e-06 0)
(5.81542e-05 -5.8128e-06 0)
(6.57072e-05 -6.46493e-06 0)
(7.31481e-05 -7.66063e-06 0)
(8.03972e-05 -9.47207e-06 0)
(8.73477e-05 -1.19847e-05 0)
(9.38494e-05 -1.52852e-05 0)
(9.96972e-05 -1.94307e-05 0)
(0.000104641 -2.43957e-05 0)
(0.000108436 -3.0004e-05 0)
(0.000110943 -3.58874e-05 0)
(2.31906e-06 -8.10514e-06 0)
(7.23699e-06 -8.73134e-06 0)
(1.27008e-05 -8.47116e-06 0)
(1.86719e-05 -7.71228e-06 0)
(2.50845e-05 -6.80516e-06 0)
(3.18477e-05 -5.99845e-06 0)
(3.88611e-05 -5.44899e-06 0)
(4.60278e-05 -5.25191e-06 0)
(5.32601e-05 -5.46925e-06 0)
(6.04783e-05 -6.15087e-06 0)
(6.76043e-05 -7.34698e-06 0)
(7.45521e-05 -9.11334e-06 0)
(8.12165e-05 -1.15082e-05 0)
(8.74644e-05 -1.45792e-05 0)
(9.3132e-05 -1.83383e-05 0)
(9.80397e-05 -2.27262e-05 0)
(0.000102032 -2.75776e-05 0)
(0.000105039 -3.26156e-05 0)
(2.06712e-06 -6.88921e-06 0)
(6.47382e-06 -7.60388e-06 0)
(1.14218e-05 -7.43775e-06 0)
(1.68941e-05 -6.78944e-06 0)
(2.28438e-05 -5.99887e-06 0)
(2.91888e-05 -5.30188e-06 0)
(3.5829e-05 -4.84701e-06 0)
(4.26625e-05 -4.72533e-06 0)
(4.95937e-05 -4.99631e-06 0)
(5.65344e-05 -5.7056e-06 0)
(6.33989e-05 -6.89518e-06 0)
(7.00973e-05 -8.60629e-06 0)
(7.65279e-05 -1.08755e-05 0)
(8.25733e-05 -1.37229e-05 0)
(8.81028e-05 -1.71338e-05 0)
(9.29877e-05 -2.10365e-05 0)
(9.71309e-05 -2.52873e-05 0)
(0.000100502 -2.96779e-05 0)
(1.81478e-06 -5.4376e-06 0)
(5.69775e-06 -6.19192e-06 0)
(1.01058e-05 -6.09489e-06 0)
(1.50588e-05 -5.5576e-06 0)
(2.05311e-05 -4.90019e-06 0)
(2.64478e-05 -4.336e-06 0)
(3.27071e-05 -3.99844e-06 0)
(3.92008e-05 -3.97037e-06 0)
(4.58258e-05 -4.30614e-06 0)
(5.24861e-05 -5.04567e-06 0)
(5.90907e-05 -6.22173e-06 0)
(6.55483e-05 -7.86145e-06 0)
(7.17636e-05 -9.98244e-06 0)
(7.7637e-05 -1.25841e-05 0)
(8.3069e-05 -1.56359e-05 0)
(8.79733e-05 -1.90663e-05 0)
(9.2294e-05 -2.27592e-05 0)
(9.60239e-05 -2.65643e-05 0)
(1.54996e-06 -3.77911e-06 0)
(4.87449e-06 -4.46099e-06 0)
(8.7087e-06 -4.3827e-06 0)
(1.31299e-05 -3.94963e-06 0)
(1.81294e-05 -3.44207e-06 0)
(2.36305e-05 -3.03576e-06 0)
(2.95231e-05 -2.84014e-06 0)
(3.56896e-05 -2.92517e-06 0)
(4.20186e-05 -3.33744e-06 0)
(4.8408e-05 -4.10976e-06 0)
(5.47634e-05 -5.26578e-06 0)
(6.0996e-05 -6.82078e-06 0)
(6.70213e-05 -8.77886e-06 0)
(7.27602e-05 -1.11275e-05 0)
(7.81429e-05 -1.38312e-05 0)
(8.31163e-05 -1.68278e-05 0)
(8.76519e-05 -2.00287e-05 0)
(9.17521e-05 -2.33286e-05 0)
(1.21772e-06 -1.97442e-06 0)
(3.86463e-06 -2.37456e-06 0)
(7.06244e-06 -2.24821e-06 0)
(1.09575e-05 -1.91577e-06 0)
(1.55286e-05 -1.57848e-06 0)
(2.06702e-05 -1.3544e-06 0)
(2.62464e-05 -1.32071e-06 0)
(3.21221e-05 -1.53149e-06 0)
(3.81763e-05 -2.02499e-06 0)
(4.43058e-05 -2.82902e-06 0)
(5.04242e-05 -3.96242e-06 0)
(5.6459e-05 -5.43406e-06 0)
(6.23474e-05 -7.24128e-06 0)
(6.80351e-05 -9.36692e-06 0)
(7.34765e-05 -1.17768e-05 0)
(7.86372e-05 -1.44188e-05 0)
(8.34967e-05 -1.72258e-05 0)
(8.80509e-05 -2.0122e-05 0)
(6.22063e-07 5.46515e-09 0)
(2.15076e-06 1.4522e-07 0)
(4.46438e-06 3.40292e-07 0)
(7.74215e-06 5.37981e-07 0)
(1.18527e-05 6.79626e-07 0)
(1.66138e-05 7.0432e-07 0)
(2.18661e-05 5.59296e-07 0)
(2.74775e-05 2.04172e-07 0)
(3.33344e-05 -3.89527e-07 0)
(3.93611e-05 -1.26827e-06 0)
(4.55101e-05 -2.45734e-06 0)
(5.17113e-05 -3.92217e-06 0)
(5.78817e-05 -5.65661e-06 0)
(6.39503e-05 -7.64139e-06 0)
(6.98571e-05 -9.84443e-06 0)
(7.55545e-05 -1.22221e-05 0)
(8.10087e-05 -1.47223e-05 0)
(8.62001e-05 -1.72889e-05 0)
(1.46149e-06 2.37094e-06 0)
(4.47662e-06 3.21259e-06 0)
(7.79024e-06 3.59171e-06 0)
(1.15742e-05 3.70072e-06 0)
(1.58941e-05 3.63412e-06 0)
(2.07299e-05 3.40924e-06 0)
(2.60098e-05 3.01505e-06 0)
(3.16414e-05 2.43587e-06 0)
(3.75299e-05 1.65941e-06 0)
(4.35647e-05 6.51219e-07 0)
(4.96258e-05 -6.0152e-07 0)
(5.56842e-05 -2.14244e-06 0)
(6.17487e-05 -3.9185e-06 0)
(6.77646e-05 -5.85953e-06 0)
(7.36662e-05 -7.93839e-06 0)
(7.94042e-05 -1.01213e-05 0)
(8.4943e-05 -1.23705e-05 0)
(9.02596e-05 -1.46475e-05 0)
(2.05358e-06 5.64811e-06 0)
(6.30305e-06 6.96259e-06 0)
(1.08432e-05 7.56239e-06 0)
(1.56955e-05 7.65053e-06 0)
(2.08815e-05 7.38971e-06 0)
(2.63977e-05 6.87836e-06 0)
(3.22113e-05 6.16852e-06 0)
(3.82686e-05 5.28621e-06 0)
(4.45045e-05 4.24498e-06 0)
(5.08509e-05 3.05296e-06 0)
(5.72425e-05 1.72067e-06 0)
(6.35723e-05 1.71808e-07 0)
(6.97427e-05 -1.54561e-06 0)
(7.57588e-05 -3.45724e-06 0)
(8.16293e-05 -5.42874e-06 0)
(8.73226e-05 -7.438e-06 0)
(9.28177e-05 -9.46127e-06 0)
(9.81019e-05 -1.1475e-05 0)
(2.35494e-06 9.33015e-06 0)
(7.27226e-06 1.06468e-05 0)
(1.2576e-05 1.12296e-05 0)
(1.82208e-05 1.12123e-05 0)
(2.41735e-05 1.07558e-05 0)
(3.03975e-05 9.9894e-06 0)
(3.68457e-05 9.00243e-06 0)
(4.34622e-05 7.85263e-06 0)
(5.01865e-05 6.57631e-06 0)
(5.69581e-05 5.19705e-06 0)
(6.37197e-05 3.73188e-06 0)
(7.04195e-05 2.1939e-06 0)
(7.69963e-05 5.88432e-07 0)
(8.33654e-05 -1.18052e-06 0)
(8.952e-05 -3.05251e-06 0)
(9.54891e-05 -4.91562e-06 0)
(0.000101253 -6.75628e-06 0)
(0.000106798 -8.56113e-06 0)
(2.82323e-06 1.25445e-05 0)
(8.66987e-06 1.36114e-05 0)
(1.4891e-05 1.39835e-05 0)
(2.14332e-05 1.37567e-05 0)
(2.82418e-05 1.30801e-05 0)
(3.52614e-05 1.20889e-05 0)
(4.24341e-05 1.08859e-05 0)
(4.97002e-05 9.542e-06 0)
(5.70005e-05 8.10399e-06 0)
(6.42789e-05 6.60216e-06 0)
(7.14843e-05 5.05679e-06 0)
(7.85722e-05 3.48261e-06 0)
(8.55049e-05 1.89151e-06 0)
(9.22298e-05 2.77668e-07 0)
(9.86919e-05 -1.45932e-06 0)
(0.0001049 -3.21367e-06 0)
(0.000110877 -4.92073e-06 0)
(0.000116615 -6.57331e-06 0)
(3.40107e-06 1.51908e-05 0)
(1.03728e-05 1.59573e-05 0)
(1.76661e-05 1.60592e-05 0)
(2.52322e-05 1.55867e-05 0)
(3.3006e-05 1.46842e-05 0)
(4.09197e-05 1.34883e-05 0)
(4.89068e-05 1.21067e-05 0)
(5.69037e-05 1.06154e-05 0)
(6.48521e-05 9.06507e-06 0)
(7.26999e-05 7.48796e-06 0)
(8.04022e-05 5.90446e-06 0)
(8.79215e-05 4.32794e-06 0)
(9.52277e-05 2.76793e-06 0)
(0.000102298 1.23187e-06 0)
(0.000109078 -3.16041e-07 0)
(0.000115552 -1.94583e-06 0)
(0.000121752 -3.52076e-06 0)
(0.000127681 -5.02888e-06 0)
(4.10584e-06 1.70928e-05 0)
(1.24423e-05 1.757e-05 0)
(2.10151e-05 1.74009e-05 0)
(2.97782e-05 1.66894e-05 0)
(3.86608e-05 1.55824e-05 0)
(4.75877e-05 1.42177e-05 0)
(5.64877e-05 1.27032e-05 0)
(6.52968e-05 1.11155e-05 0)
(7.39599e-05 9.50441e-06 0)
(8.2431e-05 7.90086e-06 0)
(9.06727e-05 6.323e-06 0)
(9.86563e-05 4.78135e-06 0)
(0.00010636 3.28219e-06 0)
(0.000113771 1.82959e-06 0)
(0.000120874 4.26559e-07 0)
(0.000127633 -1.03242e-06 0)
(0.000134054 -2.4692e-06 0)
(0.000140171 -3.83198e-06 0)
(4.96188e-06 1.8162e-05 0)
(1.49527e-05 1.8385e-05 0)
(2.50627e-05 1.79778e-05 0)
(3.52416e-05 1.70645e-05 0)
(4.54133e-05 1.5798e-05 0)
(5.54994e-05 1.43161e-05 0)
(6.54289e-05 1.27246e-05 0)
(7.51424e-05 1.1097e-05 0)
(8.45921e-05 9.47963e-06 0)
(9.37418e-05 7.89967e-06 0)
(0.000102565 6.37164e-06 0)
(0.000111044 4.90245e-06 0)
(0.000119169 3.49482e-06 0)
(0.000126934 2.14941e-06 0)
(0.00013434 8.6596e-07 0)
(0.000141367 -3.97262e-07 0)
(0.000148016 -1.6875e-06 0)
(0.000154321 -2.90105e-06 0)
(6.00622e-06 1.8357e-05 0)
(1.80126e-05 1.83712e-05 0)
(2.99831e-05 1.77786e-05 0)
(4.18537e-05 1.67217e-05 0)
(5.35425e-05 1.53583e-05 0)
(6.49714e-05 1.38241e-05 0)
(7.60759e-05 1.22202e-05 0)
(8.68071e-05 1.06144e-05 0)
(9.71311e-05 9.04753e-06 0)
(0.000107026 7.54185e-06 0)
(0.000116482 6.1075e-06 0)
(0.000125494 4.74759e-06 0)
(0.000134066 3.46148e-06 0)
(0.000142206 2.24685e-06 0)
(0.000149924 1.10086e-06 0)
(0.000157219 1.32784e-08 0)
(0.000164095 -1.11163e-06 0)
(0.00017058 -2.17133e-06 0)
(7.29829e-06 1.76543e-05 0)
(2.17948e-05 1.75106e-05 0)
(3.60503e-05 1.6798e-05 0)
(4.99763e-05 1.5671e-05 0)
(6.34833e-05 1.4287e-05 0)
(7.64989e-05 1.27761e-05 0)
(8.89723e-05 1.12317e-05 0)
(0.000100874 9.71357e-06 0)
(0.000112191 8.25597e-06 0)
(0.000122924 6.87561e-06 0)
(0.000133082 5.57823e-06 0)
(0.000142681 4.36344e-06 0)
(0.000151742 3.22779e-06 0)
(0.000160286 2.16665e-06 0)
(0.000168338 1.1752e-06 0)
(0.000175921 2.48776e-07 0)
(0.000183038 -6.91202e-07 0)
(0.000189713 -1.5923e-06 0)
(8.94266e-06 1.60213e-05 0)
(2.66034e-05 1.57752e-05 0)
(4.37466e-05 1.50188e-05 0)
(6.02456e-05 1.39077e-05 0)
(7.60027e-05 1.25917e-05 0)
(9.0957e-05 1.11897e-05 0)
(0.000105082 9.78353e-06 0)
(0.00011838 8.42359e-06 0)
(0.000130868 7.13659e-06 0)
(0.00014258 5.93373e-06 0)
(0.000153552 4.81686e-06 0)
(0.000163826 3.78286e-06 0)
(0.000173443 2.82632e-06 0)
(0.000182445 1.94117e-06 0)
(0.000190873 1.12153e-06 0)
(0.000198763 3.61973e-07 0)
(0.000206136 -3.8762e-07 0)
(0.00021302 -1.12516e-06 0)
(1.11509e-05 1.33777e-05 0)
(3.30547e-05 1.30908e-05 0)
(5.40512e-05 1.2379e-05 0)
(7.39566e-05 1.13852e-05 0)
(9.26633e-05 1.02405e-05 0)
(0.000110133 9.0455e-06 0)
(0.00012638 7.86678e-06 0)
(0.000141452 6.74321e-06 0)
(0.000155418 5.69375e-06 0)
(0.000168354 4.72467e-06 0)
(0.000180337 3.83489e-06 0)
(0.000191443 3.01968e-06 0)
(0.000201744 2.27283e-06 0)
(0.000211306 1.58795e-06 0)
(0.00022019 9.59029e-07 0)
(0.00022845 3.80769e-07 0)
(0.000236123 -1.74814e-07 0)
(0.000243251 -7.42164e-07 0)
(1.44643e-05 9.50275e-06 0)
(4.27267e-05 9.24888e-06 0)
(6.94759e-05 8.69264e-06 0)
(9.44359e-05 7.94421e-06 0)
(0.000117488 7.10146e-06 0)
(0.000138635 6.2367e-06 0)
(0.000157962 5.3962e-06 0)
(0.000175594 4.60548e-06 0)
(0.000191679 3.87574e-06 0)
(0.000206363 3.20936e-06 0)
(0.000219786 2.60386e-06 0)
(0.000232076 2.05448e-06 0)
(0.000243348 1.55574e-06 0)
(0.000253705 1.10226e-06 0)
(0.000263238 6.89123e-07 0)
(0.000272027 3.1208e-07 0)
(0.000280131 -3.93325e-08 0)
(0.000287611 -4.26023e-07 0)
(2.13004e-05 3.61621e-06 0)
(6.26848e-05 3.50795e-06 0)
(0.000101309 3.2846e-06 0)
(0.000136706 2.99023e-06 0)
(0.00016874 2.66317e-06 0)
(0.000197513 2.33114e-06 0)
(0.000223258 2.01145e-06 0)
(0.000246272 1.71324e-06 0)
(0.000266863 1.44022e-06 0)
(0.000285325 1.19275e-06 0)
(0.000301922 9.69468e-07 0)
(0.000316888 7.68224e-07 0)
(0.000330424 5.86675e-07 0)
(0.000342706 4.22572e-07 0)
(0.000353882 2.739e-07 0)
(0.000364082 1.38927e-07 0)
(0.000373412 1.62366e-08 0)
(0.000381894 -1.30075e-07 0)
(3.15557e-05 -1.6856e-05 -2.17487e-31)
(9.47667e-05 -1.68382e-05 2.16509e-31)
(0.00015801 -1.67997e-05 0)
(0.000221044 -1.67454e-05 0)
(0.000283626 -1.66729e-05 0)
(0.00034548 -1.65699e-05 -2.10082e-31)
(0.000406278 -1.6422e-05 0)
(0.000465641 -1.62199e-05 0)
(0.000523139 -1.59624e-05 0)
(0.000578303 -1.56563e-05 0)
(0.000630628 -1.53156e-05 1.90506e-31)
(0.000679578 -1.49602e-05 0)
(0.000724591 -1.46147e-05 0)
(0.000765089 -1.4307e-05 0)
(0.000800493 -1.40662e-05 0)
(0.000830256 -1.39196e-05 1.70105e-31)
(0.000853912 -1.38913e-05 0)
(0.000871157 -1.39992e-05 0)
(0.000881957 -1.42557e-05 0)
(0.0008867 -1.46742e-05 0)
(0.000886359 -1.52731e-05 0)
(0.000882611 -1.60757e-05 0)
(0.000877809 -1.71123e-05 0)
(0.00087476 -1.84286e-05 2.27858e-31)
(0.000876403 -2.01029e-05 -2.49478e-31)
(0.000885552 -2.22701e-05 2.77381e-31)
(0.000904935 -2.51589e-05 3.14489e-31)
(0.000937642 -2.91571e-05 0)
(0.00098815 -3.49393e-05 0)
(0.00106437 -4.37447e-05 -5.52822e-31)
(0.00118243 -5.80376e-05 -7.3616e-31)
(0.00138125 -8.3248e-05 0)
(0.00179168 -0.000133323 0)
(0.00351526 -0.000255199 -3.25687e-30)
(0.0143181 -0.000735317 0)
(0.0259784 -0.00346756 0)
(0.0271807 0.00173715 -2.27729e-29)
(0.0254359 0.00102394 0)
(0.0241223 0.00103566 -1.36704e-29)
(0.0228791 0.000897806 -2.37479e-29)
(0.0217871 0.000786384 0)
(0.0208264 0.00068315 0)
(0.0199847 0.00059352 0)
(0.0192445 0.000519885 0)
(0.0185875 0.000460126 0)
(0.0179984 0.000411213 -1.10545e-29)
(0.0174655 0.000370612 -9.99243e-30)
(0.0169794 0.000336403 -9.09668e-30)
(0.0165333 0.000307145 0)
(0.0161216 0.000281747 7.66361e-30)
(0.0157401 0.000259392 0)
(0.0153854 0.000239474 -6.5535e-30)
(0.0150549 0.000221554 -6.08247e-30)
(0.0147463 0.000205309 0)
(0.0144577 0.000190503 0)
(0.0141876 0.000176957 0)
(0.0139344 0.000164532 -4.58204e-30)
(0.0136969 0.000153114 0)
(0.0134739 0.000142605 0)
(0.0132643 0.000132922 0)
(0.0130673 0.000123988 0)
(0.0128819 0.000115736 0)
(0.0127073 0.000108105 0)
(0.0125428 0.000101039 0)
(0.0123877 9.44867e-05 0)
(0.0122414 8.84033e-05 2.57418e-30)
(0.0121033 8.27476e-05 0)
(0.0119729 7.74826e-05 0)
(0.0118498 7.25752e-05 -2.15579e-30)
(0.0117334 6.79959e-05 -2.03467e-30)
(0.0116235 6.37181e-05 0)
(0.0115195 5.97179e-05 1.81564e-30)
(0.0114213 5.59742e-05 -1.71655e-30)
(0.0113284 5.24675e-05 0)
(0.0112407 4.91808e-05 1.53668e-30)
(0.0111577 4.60983e-05 0)
(0.0110792 4.32058e-05 0)
(0.011005 4.04906e-05 -1.30648e-30)
(0.0109349 3.79407e-05 0)
(0.0108687 3.55455e-05 1.17543e-30)
(0.0108061 3.3295e-05 0)
(0.010747 3.11803e-05 -1.05972e-30)
(0.0106912 2.91929e-05 -1.00703e-30)
(0.0106384 2.7325e-05 -9.575e-31)
(0.0105887 2.55695e-05 -1.82189e-30)
(0.0105417 2.39196e-05 1.73438e-30)
(0.0104974 2.23691e-05 0)
(0.0104556 2.09122e-05 0)
(0.0104162 1.95434e-05 0)
(0.010379 1.82576e-05 1.43398e-30)
(0.0103441 1.70501e-05 1.3699e-30)
(0.0103111 1.59163e-05 -1.30973e-30)
(0.0102801 1.4852e-05 0)
(0.0102509 1.38532e-05 1.20022e-30)
(0.0102234 1.29161e-05 1.15049e-30)
(0.0101976 1.20373e-05 1.10383e-30)
(0.0101733 1.12133e-05 0)
(0.0101505 1.04411e-05 0)
(0.0101291 9.71753e-06 0)
(0.010109 9.0399e-06 9.44687e-31)
(0.0100902 8.40552e-06 0)
(0.0100725 7.81187e-06 0)
(0.0100559 7.25656e-06 -8.49978e-31)
(0.0100404 6.73735e-06 0)
(0.0100258 6.2521e-06 0)
(0.0100122 5.7988e-06 -7.72555e-31)
(0.00999951 5.37555e-06 0)
(0.00998761 4.98053e-06 0)
(0.00997648 4.61206e-06 7.09512e-31)
(0.0099661 4.2685e-06 6.9126e-31)
(0.0099564 3.94835e-06 0)
(0.00994735 3.65016e-06 -6.58411e-31)
(0.00993892 3.37258e-06 0)
(0.00993106 3.11431e-06 6.29936e-31)
(0.00992374 2.87414e-06 0)
(0.00991692 2.65094e-06 6.05315e-31)
(0.00991058 2.44361e-06 5.94292e-31)
(0.00990469 2.25114e-06 0)
(0.00989921 2.07257e-06 0)
(0.00989413 1.907e-06 0)
(0.00988941 1.75356e-06 0)
(0.00988503 1.61146e-06 0)
(0.00988097 1.47993e-06 0)
(0.00987721 1.35828e-06 0)
(0.00987373 1.24583e-06 5.30633e-31)
(0.00987051 1.14194e-06 -5.25106e-31)
(0.00986753 1.04604e-06 0)
(0.00986478 9.57568e-07 0)
(0.00986224 8.76002e-07 0)
(0.0098599 8.00859e-07 0)
(0.00985774 7.31683e-07 -1.00659e-30)
(0.00985575 6.68048e-07 0)
(0.00985391 6.09556e-07 9.936e-31)
(0.00985222 5.55837e-07 -9.87887e-31)
(0.00985067 5.06543e-07 0)
(0.00984924 4.61353e-07 0)
(0.00984793 4.19968e-07 0)
(0.00984672 3.82112e-07 9.69409e-31)
(0.00984561 3.4753e-07 9.65728e-31)
(0.0098446 3.15986e-07 0)
(0.00984367 2.87267e-07 9.5931e-31)
(0.00984281 2.61177e-07 9.56528e-31)
(0.00984203 2.37544e-07 -9.54015e-31)
(0.00984131 2.16211e-07 0)
(0.00984064 1.97047e-07 0)
(0.00984003 1.7994e-07 -9.47871e-31)
(0.00983947 1.64801e-07 0)
(0.00983895 1.5157e-07 0)
(0.00983846 1.40213e-07 0)
(0.00983801 1.30732e-07 0)
(0.00983758 1.23165e-07 9.41767e-31)
(0.00983717 1.176e-07 9.41153e-31)
(0.00983677 1.14179e-07 0)
(0.00983637 1.13112e-07 9.40615e-31)
(0.00983597 1.14697e-07 0)
(0.00983556 1.19338e-07 0)
(0.00983511 1.2757e-07 9.41991e-31)
(0.00983463 1.40105e-07 0)
(0.00983408 1.57869e-07 9.45028e-31)
(0.00983346 1.82073e-07 0)
(0.00983272 2.14292e-07 0)
(0.00983184 2.5658e-07 9.5502e-31)
(0.00983076 3.11616e-07 0)
(0.00982943 3.82917e-07 9.67854e-31)
(0.00982777 4.75114e-07 0)
(0.00982568 5.94356e-07 0)
(0.00982303 7.48878e-07 0)
(0.00981965 9.49835e-07 -1.02555e-30)
(0.00981531 1.21256e-06 0)
(0.00980969 1.55849e-06 1.08754e-30)
(0.00980237 2.01832e-06 0)
(0.00979274 2.63726e-06 0)
(0.00977996 3.48439e-06 0)
(0.00976277 4.67043e-06 0)
(0.00973924 6.38427e-06 0)
(0.00970623 8.97664e-06 0)
(0.00965814 1.31801e-05 0)
(0.00958363 2.08121e-05 -6.11394e-30)
(0.00945409 3.76986e-05 0)
(0.00916703 9.06493e-05 0)
(9.07917e-06 -4.238e-05 5.47425e-31)
(2.72864e-05 -4.23005e-05 -5.45753e-31)
(4.55486e-05 -4.2195e-05 0)
(6.38216e-05 -4.20714e-05 1.08451e-30)
(8.20666e-05 -4.19307e-05 0)
(0.000100201 -4.17404e-05 -5.38299e-31)
(0.000118071 -4.14587e-05 -1.06611e-30)
(0.000135468 -4.10541e-05 -1.05483e-30)
(0.000152171 -4.05134e-05 0)
(0.000167983 -3.98414e-05 -1.02194e-30)
(0.000182763 -3.90578e-05 5.02652e-31)
(0.000196443 -3.81956e-05 0)
(0.000209045 -3.73019e-05 0)
(0.000220699 -3.64366e-05 0)
(0.000231634 -3.56692e-05 0)
(0.000242163 -3.50725e-05 4.50443e-31)
(0.000252654 -3.4716e-05 0)
(0.000263471 -3.46594e-05 8.83481e-31)
(0.00027493 -3.49523e-05 0)
(0.000287326 -3.5641e-05 0)
(0.000301008 -3.67766e-05 -9.36439e-31)
(0.000316414 -3.84214e-05 0)
(0.000334042 -4.06587e-05 1.03523e-30)
(0.000354408 -4.36123e-05 5.59491e-31)
(0.000378068 -4.74773e-05 -6.09166e-31)
(0.000405688 -5.25579e-05 6.74506e-31)
(0.000438164 -5.93301e-05 7.61651e-31)
(0.000476811 -6.85732e-05 0)
(0.00052363 -8.15862e-05 0)
(0.000581693 -0.000100615 -1.29356e-30)
(0.000655851 -0.000129796 -4.99401e-30)
(0.000754207 -0.000177417 0)
(0.000892381 -0.000262357 0)
(0.00111155 -0.000440191 -5.67621e-30)
(0.00163908 -0.00101228 0)
(0.00763828 -0.0039309 0)
(0.0167558 0.00107025 -1.40305e-29)
(0.0225211 -0.00145798 0)
(0.0239064 0.00343608 -1.34642e-28)
(0.0224946 0.00262841 -6.84738e-29)
(0.0214588 0.00233818 0)
(0.0205337 0.00201645 0)
(0.019739 0.00174286 9.19675e-29)
(0.0190455 0.00152754 8.07706e-29)
(0.0184268 0.00135566 7.18258e-29)
(0.0178672 0.00121497 -9.63277e-29)
(0.0173568 0.00109767 -2.87839e-29)
(0.016888 0.000998386 2.70038e-29)
(0.0164553 0.000913103 -4.87602e-29)
(0.016054 0.000838754 2.20603e-29)
(0.0156808 0.000773038 0)
(0.0153329 0.000714265 -1.88253e-29)
(0.0150079 0.000661216 -5.30476e-29)
(0.0147039 0.000613006 0)
(0.0144193 0.000568987 0)
(0.0141527 0.000528664 0)
(0.0139026 0.000491644 -1.30369e-29)
(0.0136679 0.000457604 0)
(0.0134474 0.000426264 -2.33072e-29)
(0.0132402 0.000397377 0)
(0.0130452 0.000370721 -2.03978e-29)
(0.0128617 0.000346096 0)
(0.0126887 0.000323319 1.79134e-29)
(0.0125257 0.000302223 0)
(0.012372 0.000282659 -1.57815e-29)
(0.0122269 0.00026449 2.19541e-29)
(0.01209 0.000247595 0)
(0.0119606 0.000231864 1.31166e-29)
(0.0118384 0.000217199 -5.89395e-30)
(0.0117229 0.000203511 -5.53741e-30)
(0.0116137 0.000190722 0)
(0.0115105 0.000178761 1.52214e-29)
(0.0114129 0.000167565 -4.60091e-30)
(0.0113206 0.000157077 0)
(0.0112334 0.000147245 4.0714e-30)
(0.0111509 0.000138022 8.18864e-30)
(0.0110729 0.000129368 0)
(0.0109992 0.000121242 -3.39372e-30)
(0.0109295 0.000113611 0)
(0.0108636 0.000106442 -3.52091e-30)
(0.0108014 9.97064e-05 0)
(0.0107426 9.33761e-05 3.17458e-30)
(0.0106871 8.74265e-05 -2.51224e-30)
(0.0106346 8.18345e-05 -7.60149e-30)
(0.0105851 7.65785e-05 -1.43761e-29)
(0.0105384 7.16387e-05 1.35989e-29)
(0.0104943 6.69962e-05 0)
(0.0104527 6.26338e-05 0)
(0.0104135 5.85351e-05 0)
(0.0103766 5.46849e-05 -4.29703e-30)
(0.0103417 5.10689e-05 3.12852e-30)
(0.0103089 4.76735e-05 -2.95143e-30)
(0.0102781 4.44862e-05 0)
(0.010249 4.14949e-05 8.85542e-30)
(0.0102217 3.86886e-05 2.48281e-30)
(0.010196 3.60565e-05 2.34552e-30)
(0.0101718 3.35887e-05 0)
(0.0101491 3.12757e-05 0)
(0.0101278 2.91087e-05 0)
(0.0101078 2.70791e-05 1.87723e-30)
(0.0100891 2.5179e-05 0)
(0.0100715 2.34009e-05 4.32182e-30)
(0.010055 2.17376e-05 2.54814e-30)
(0.0100395 2.01824e-05 -3.98301e-30)
(0.010025 1.87289e-05 0)
(0.0100115 1.73711e-05 -5.05783e-30)
(0.0099988 1.61033e-05 0)
(0.00998695 1.49201e-05 -3.42898e-30)
(0.00997588 1.38163e-05 4.49808e-30)
(0.00996554 1.27872e-05 4.33604e-30)
(0.00995589 1.18282e-05 0)
(0.00994688 1.0935e-05 1.97435e-30)
(0.00993848 1.01034e-05 -2.92178e-30)
(0.00993066 9.32977e-06 9.51248e-31)
(0.00992337 8.61033e-06 0)
(0.00991658 7.94169e-06 8.78824e-31)
(0.00991027 7.32062e-06 -1.78232e-30)
(0.0099044 6.74405e-06 0)
(0.00989895 6.20911e-06 -2.51166e-30)
(0.00989388 5.7131e-06 -2.45942e-30)
(0.00988918 5.25344e-06 -2.411e-30)
(0.00988482 4.82775e-06 0)
(0.00988078 4.43374e-06 0)
(0.00987704 4.06929e-06 0)
(0.00987357 3.73241e-06 2.90996e-30)
(0.00987037 3.42119e-06 -6.42934e-31)
(0.0098674 3.13389e-06 0)
(0.00986466 2.86884e-06 2.15981e-30)
(0.00986213 2.62448e-06 2.13407e-30)
(0.0098598 2.39936e-06 0)
(0.00985765 2.19212e-06 -1.15758e-30)
(0.00985566 2.00148e-06 4.13686e-30)
(0.00985383 1.82624e-06 1.1194e-30)
(0.00985215 1.6653e-06 -5.1686e-30)
(0.0098506 1.51762e-06 0)
(0.00984918 1.38223e-06 0)
(0.00984787 1.25824e-06 0)
(0.00984667 1.14482e-06 1.04827e-30)
(0.00984557 1.04121e-06 4.97191e-30)
(0.00984456 9.467e-07 3.91453e-30)
(0.00984363 8.60652e-07 1.01859e-30)
(0.00984278 7.82482e-07 4.89033e-30)
(0.009842 7.11666e-07 -1.00304e-30)
(0.00984128 6.47744e-07 0)
(0.00984062 5.90315e-07 0)
(0.00984001 5.39045e-07 -4.81352e-30)
(0.00983945 4.9367e-07 0)
(0.00983894 4.54005e-07 0)
(0.00983845 4.19951e-07 3.8033e-30)
(0.009838 3.91508e-07 0)
(0.00983757 3.68795e-07 4.75955e-30)
(0.00983716 3.52068e-07 9.65396e-31)
(0.00983677 3.4175e-07 0)
(0.00983637 3.38472e-07 4.74958e-30)
(0.00983597 3.43119e-07 0)
(0.00983556 3.56892e-07 0)
(0.00983512 3.81398e-07 9.68237e-31)
(0.00983465 4.18752e-07 3.80162e-30)
(0.00983411 4.71722e-07 9.77482e-31)
(0.00983349 5.43919e-07 0)
(0.00983276 6.40043e-07 0)
(0.00983189 7.66218e-07 4.88014e-30)
(0.00983082 9.30442e-07 0)
(0.00982951 1.1432e-06 4.99596e-30)
(0.00982788 1.41829e-06 0)
(0.00982582 1.77404e-06 0)
(0.00982321 2.23497e-06 0)
(0.00981989 2.83427e-06 -1.22042e-30)
(0.00981561 3.61753e-06 0)
(0.00981009 4.6484e-06 1.40707e-30)
(0.00980289 6.01785e-06 0)
(0.00979345 7.85953e-06 0)
(0.00978094 1.0377e-05 5.84064e-30)
(0.00976415 1.38948e-05 -6.56176e-30)
(0.00974127 1.89624e-05 0)
(0.00970939 2.6587e-05 0)
(0.00966358 3.88238e-05 0)
(0.00959478 6.05369e-05 1.79553e-29)
(0.00948546 0.000105833 0)
(0.00931302 0.000227858 -1.01276e-28)
(6.69929e-06 -5.8135e-05 3.00471e-30)
(2.01365e-05 -5.80219e-05 -4.78524e-34)
(3.36317e-05 -5.79104e-05 0)
(4.71746e-05 -5.77999e-05 1.11686e-33)
(6.07642e-05 -5.77054e-05 0)
(7.43668e-05 -5.76019e-05 0)
(8.78724e-05 -5.74483e-05 -2.95963e-30)
(0.00010111 -5.72102e-05 -1.47407e-30)
(0.000113884 -5.68681e-05 1.46193e-30)
(0.000126007 -5.64173e-05 -1.4524e-30)
(0.000137315 -5.58648e-05 0)
(0.000147685 -5.52293e-05 0)
(0.000157054 -5.45426e-05 -1.39876e-30)
(0.000165449 -5.38511e-05 -2.76059e-30)
(0.000173005 -5.32153e-05 2.72665e-30)
(0.000179969 -5.27085e-05 0)
(0.000186674 -5.24115e-05 2.68316e-30)
(0.000193498 -5.24061e-05 1.34553e-30)
(0.000200828 -5.27695e-05 0)
(0.000209036 -5.35764e-05 2.74021e-30)
(0.000218471 -5.49078e-05 -1.40902e-30)
(0.000229466 -5.68638e-05 -2.90728e-30)
(0.000242345 -5.95757e-05 1.52855e-30)
(0.000257446 -6.32204e-05 0)
(0.000275152 -6.80444e-05 3.47882e-30)
(0.000295889 -7.43935e-05 3.80413e-30)
(0.000320084 -8.2757e-05 0)
(0.00034822 -9.3857e-05 4.80295e-30)
(0.000380922 -0.000108778 0)
(0.000418917 -0.00012917 6.61856e-30)
(0.00046293 -0.000157583 -4.05156e-30)
(0.000513546 -0.000198051 0)
(0.000570696 -0.000256985 0)
(0.000633294 -0.000344969 0)
(0.000701533 -0.000481281 0)
(0.000793019 -0.000712986 0)
(0.0013698 -0.000962129 0)
(0.00671164 -0.00296558 1.52366e-28)
(0.0148049 0.00154166 4.12489e-29)
(0.0197374 0.000902669 0)
(0.0208464 0.00395145 0)
(0.0199227 0.00323384 0)
(0.0192486 0.00275559 2.89465e-28)
(0.0186667 0.00243484 1.27641e-28)
(0.0181252 0.00218003 -8.55614e-31)
(0.0176203 0.00196611 8.31789e-31)
(0.0171508 0.00178476 9.46989e-29)
(0.0167137 0.00162971 8.58325e-29)
(0.0163055 0.00149541 -1.58471e-28)
(0.0159235 0.00137731 -7.34608e-29)
(0.0155656 0.00127202 0)
(0.01523 0.00117711 -6.30125e-29)
(0.0149154 0.00109091 -1.16318e-28)
(0.0146203 0.00101219 0)
(0.0143435 0.000940068 0)
(0.0140837 0.000873853 4.7172e-29)
(0.0138398 0.000812971 0)
(0.0136106 0.000756935 0)
(0.0133951 0.000705309 -1.14451e-28)
(0.0131923 0.000657702 -7.17421e-29)
(0.0130014 0.000613756 -3.29582e-29)
(0.0128215 0.000573143 0)
(0.0126519 0.000535564 2.88828e-29)
(0.0124919 0.000500746 0)
(0.0123408 0.000468444 -7.73154e-29)
(0.0121982 0.000438433 2.38184e-29)
(0.0120635 0.000410514 4.58637e-29)
(0.0119361 0.000384508 6.41444e-29)
(0.0118157 0.000360253 0)
(0.0117019 0.000337606 -3.82228e-29)
(0.0115943 0.000316438 0)
(0.0114925 0.000296634 -1.75062e-29)
(0.0113962 0.000278091 -3.19824e-29)
(0.0113051 0.000260714 -3.01599e-29)
(0.011219 0.00024442 2.84508e-29)