/*--------------------------------*- C++ -*----------------------------------*\
  =========                 |
  \\      /  F ield         | OpenFOAM: The Open Source CFD Toolbox
   \\    /   O peration     | Website:  https://openfoam.org
    \\  /    A nd           | Version:  10
     \\/     M anipulation  |
\*---------------------------------------------------------------------------*/
FoamFile
{
    format      ascii;
    class       surfaceScalarField;
    location    "0.11";
    object      phi;
}
// * * * * * * * * * * * * * * * * * * * * * * * * * * * * * * * * * * * * * //

dimensions      [0 3 -1 0 0 0 0];

internalField   nonuniform List<scalar> 
24170
(
6.87889e-09
-6.87889e-09
1.11368e-08
-4.2579e-09
1.2319e-08
-1.18224e-09
1.21524e-08
1.66597e-10
1.14955e-08
6.56973e-10
1.07425e-08
7.52918e-10
1.00693e-08
6.73276e-10
9.53479e-09
5.34466e-10
9.14523e-09
3.89559e-10
8.88873e-09
2.56505e-10
8.7522e-09
1.36532e-10
8.729e-09
2.31936e-11
8.82406e-09
-9.50605e-11
9.06159e-09
-2.37528e-10
9.50453e-09
-4.42933e-10
1.03166e-08
-8.12042e-10
1.20236e-08
-1.70704e-09
-5.05723e-09
1.70808e-08
7.48494e-09
-1.43638e-08
1.20871e-08
-8.86001e-09
1.32766e-08
-2.37175e-09
1.3055e-08
3.8812e-10
1.23286e-08
1.38339e-09
1.151e-08
1.57155e-09
1.07832e-08
1.40005e-09
1.02087e-08
1.10902e-09
9.79082e-09
8.07409e-10
9.51576e-09
5.31564e-10
9.3687e-09
2.83595e-10
9.34174e-09
5.01528e-11
9.43876e-09
-1.92087e-10
9.68227e-09
-4.81035e-10
1.01287e-08
-8.89354e-10
1.09061e-08
-1.58948e-09
1.22832e-08
-3.08407e-09
-7.04537e-09
1.42713e-08
8.28963e-09
-2.26535e-08
1.33206e-08
-1.3891e-08
1.4402e-08
-3.45313e-09
1.4063e-08
7.27089e-10
1.32321e-08
2.21438e-09
1.23271e-08
2.47648e-09
1.15361e-08
2.19109e-09
1.09163e-08
1.72877e-09
1.04678e-08
1.25593e-09
1.01728e-08
8.26619e-10
1.00135e-08
4.42845e-10
9.97983e-09
8.38374e-11
1.00728e-08
-2.85073e-10
1.03093e-08
-7.17547e-10
1.07289e-08
-1.30897e-09
1.13977e-08
-2.25823e-09
1.23365e-08
-4.0229e-09
-7.57298e-09
1.28641e-08
3.83927e-09
-2.64927e-08
1.49113e-08
-2.49631e-08
1.57363e-08
-4.27815e-09
1.51948e-08
1.26866e-09
1.42125e-08
3.19669e-09
1.31942e-08
3.49476e-09
1.23254e-08
3.05981e-09
1.16547e-08
2.39952e-09
1.11731e-08
1.73749e-09
1.08567e-08
1.14302e-09
1.06835e-08
6.16101e-10
1.06395e-08
1.27837e-10
1.07212e-08
-3.66758e-10
1.09362e-08
-9.32554e-10
1.13008e-08
-1.67362e-09
1.18175e-08
-2.77495e-09
1.23576e-08
-4.56298e-09
-7.4402e-09
1.22248e-08
1.79959e-09
-2.82923e-08
3.73194e-09
-2.68954e-08
1.73113e-08
-1.78575e-08
1.64687e-08
2.11121e-09
1.52753e-08
4.39008e-09
1.41089e-08
4.66117e-09
1.31464e-08
4.02236e-09
1.24185e-08
3.12744e-09
1.19019e-08
2.25406e-09
1.15632e-08
1.48173e-09
1.13742e-08
8.05086e-10
1.1316e-08
1.86056e-10
1.13786e-08
-4.29341e-10
1.1558e-08
-1.11202e-09
1.18464e-08
-1.96197e-09
1.21974e-08
-3.126e-09
1.2426e-08
-4.79151e-09
-7.0296e-09
1.20154e-08
1.99277e-09
-3.02851e-08
3.01092e-09
-2.79135e-08
8.8661e-09
-2.37127e-08
1.79007e-08
-6.92344e-09
1.64233e-08
5.86754e-09
1.50649e-08
6.01959e-09
1.39901e-08
5.0971e-09
1.31994e-08
3.91818e-09
1.26469e-08
2.8065e-09
1.22859e-08
1.84277e-09
1.208e-08
1.01098e-09
1.20039e-08
2.62161e-10
1.204e-08
-4.65479e-10
1.21724e-08
-1.24435e-09
1.23722e-08
-2.16185e-09
1.25657e-08
-3.31945e-09
1.25711e-08
-4.79691e-09
-6.51678e-09
1.20583e-08
2.2475e-09
-3.25326e-08
3.48079e-09
-2.91468e-08
3.08353e-09
-2.33154e-08
1.89737e-08
-2.28136e-08
1.76533e-08
7.18788e-09
1.60479e-08
7.62498e-09
1.48419e-08
6.30314e-09
1.39849e-08
4.77521e-09
1.33981e-08
3.39331e-09
1.30164e-08
2.22439e-09
1.27937e-08
1.23375e-09
1.2697e-08
3.58807e-10
1.2701e-08
-4.69441e-10
1.27786e-08
-1.322e-09
1.28872e-08
-2.27036e-09
1.29437e-08
-3.37595e-09
1.27985e-08
-4.65175e-09
-5.9789e-09
1.22606e-08
2.62124e-09
-3.51538e-08
4.25394e-09
-3.07795e-08
5.94659e-09
-2.50081e-08
5.70978e-09
-2.25768e-08
1.90096e-08
-6.11197e-09
1.70315e-08
9.60307e-09
1.56782e-08
7.6565e-09
1.47567e-08
5.69665e-09
1.41414e-08
4.00861e-09
1.3744e-08
2.62179e-09
1.35067e-08
1.47113e-09
1.33888e-08
4.76667e-10
1.33576e-08
-4.38234e-10
1.33779e-08
-1.34231e-09
1.34e-08
-2.29242e-09
1.33454e-08
-3.32136e-09
1.31035e-08
-4.40989e-09
-5.44819e-09
1.25728e-08
3.15227e-09
-3.83061e-08
5.15503e-09
-3.27823e-08
6.44965e-09
-2.63027e-08
4.66991e-09
-2.0797e-08
1.88864e-08
-2.03284e-08
1.7957e-08
1.05325e-08
1.64626e-08
9.1509e-09
1.54893e-08
6.66993e-09
1.48588e-08
4.6391e-09
1.44552e-08
3.02541e-09
1.42088e-08
1.71746e-09
1.40722e-08
6.13349e-10
1.40065e-08
-3.72553e-10
1.3972e-08
-1.30779e-09
1.39183e-08
-2.23874e-09
1.37789e-08
-3.18193e-09
1.34782e-08
-4.10924e-09
-4.93736e-09
1.29674e-08
3.90701e-09
-4.22131e-08
6.31145e-09
-3.51867e-08
7.61761e-09
-2.76089e-08
8.51882e-09
-2.16982e-08
7.77732e-09
-1.95869e-08
1.90181e-08
-7.08256e-10
1.71433e-08
1.10256e-08
1.61478e-08
7.66545e-09
1.55272e-08
5.25971e-09
1.51337e-08
3.41888e-09
1.48889e-08
1.96224e-09
1.474e-08
7.62329e-10
1.46448e-08
-2.77435e-10
1.45628e-08
-1.22576e-09
1.44478e-08
-2.12374e-09
1.42477e-08
-2.98186e-09
1.39146e-08
-3.77609e-09
-4.45113e-09
1.34284e-08
5.00153e-09
-4.72146e-08
7.84937e-09
-3.80346e-08
9.06655e-09
-2.8826e-08
9.12321e-09
-2.17549e-08
5.60772e-09
-1.60714e-08
1.94848e-08
-1.45853e-08
1.75797e-08
1.29307e-08
1.66873e-08
8.55783e-09
1.61196e-08
5.82741e-09
1.57614e-08
3.77703e-09
1.55349e-08
2.18874e-09
1.53852e-08
9.12031e-10
1.52704e-08
-1.6256e-10
1.51523e-08
-1.10768e-09
1.49924e-08
-1.96384e-09
1.47529e-08
-2.74237e-09
1.44056e-08
-3.42882e-09
-3.99132e-09
1.39458e-08
5.50919e-09
-5.27238e-08
8.29135e-09
-4.08167e-08
9.18927e-09
-2.9724e-08
9.05707e-09
-2.16227e-08
8.47066e-09
-1.5485e-08
1.26962e-08
-1.88108e-08
1.48957e-08
1.07312e-08
1.43993e-08
9.05422e-09
1.3997e-08
6.22972e-09
1.37476e-08
4.02636e-09
1.3589e-08
2.34744e-09
1.34752e-08
1.02582e-09
1.33738e-08
-6.11984e-11
1.32576e-08
-9.91448e-10
1.31011e-08
-1.80735e-09
1.28824e-08
-2.5237e-09
1.25884e-08
-3.13477e-09
-3.62391e-09
1.22209e-08
8.43039e-09
-6.11542e-08
1.20045e-08
-4.43909e-08
1.27039e-08
-3.04233e-08
1.22152e-08
-2.1134e-08
1.20391e-08
-1.53089e-08
7.0528e-09
-1.38245e-08
1.76019e-08
1.82113e-10
1.67288e-08
9.92738e-09
1.63529e-08
6.60562e-09
1.61606e-08
4.21868e-09
1.60403e-08
2.46765e-09
1.59413e-08
1.12483e-09
1.58336e-08
4.65511e-11
1.56942e-08
-8.52015e-10
1.55034e-08
-1.61658e-09
1.52464e-08
-2.2667e-09
1.49171e-08
-2.80545e-09
-3.22854e-09
1.45217e-08
1.40567e-08
-7.52109e-08
1.83136e-08
-4.86477e-08
1.81453e-08
-3.0255e-08
1.6588e-08
-1.95767e-08
1.45811e-08
-1.33021e-08
9.61154e-09
-8.85502e-09
1.97426e-08
-9.9489e-09
1.89378e-08
1.07321e-08
1.87889e-08
6.75451e-09
1.87736e-08
4.23401e-09
1.87632e-08
2.47806e-09
1.87207e-08
1.16734e-09
1.8631e-08
1.36249e-10
1.84836e-08
-7.04656e-10
1.82698e-08
-1.40284e-09
1.79847e-08
-1.9815e-09
1.76297e-08
-2.45046e-09
-2.81391e-09
1.7215e-08
2.65826e-08
-1.01794e-07
2.98411e-08
-5.19062e-08
2.68769e-08
-2.72909e-08
2.31503e-08
-1.585e-08
1.9837e-08
-9.98877e-09
1.72437e-08
-6.26172e-09
1.92685e-08
-1.19737e-08
2.04564e-08
9.54422e-09
2.10995e-08
6.11146e-09
2.15049e-08
3.82856e-09
2.1729e-08
2.25403e-09
2.18127e-08
1.08362e-09
2.17832e-08
1.65714e-10
2.16562e-08
-5.77698e-10
2.14411e-08
-1.18772e-09
2.11458e-08
-1.68619e-09
2.07806e-08
-2.08521e-09
-2.39282e-09
2.03595e-08
6.05946e-08
-1.62388e-07
5.22006e-08
-4.35122e-08
4.08671e-08
-1.59574e-08
3.2661e-08
-7.6439e-09
2.71109e-08
-4.43869e-09
2.40877e-08
-3.2385e-09
1.76942e-08
-5.58027e-09
2.14181e-08
5.82035e-09
2.32916e-08
4.23799e-09
2.43772e-08
2.74291e-09
2.49727e-08
1.65852e-09
2.52591e-08
7.97235e-10
2.53377e-08
8.71752e-11
2.52653e-08
-5.05309e-10
2.50761e-08
-9.98545e-10
2.47937e-08
-1.40379e-09
2.44375e-08
-1.72904e-09
-1.98121e-09
2.40259e-08
1.81973e-07
1.55617e-07
9.36031e-08
4.48575e-08
6.06491e-08
1.69966e-08
4.46543e-08
8.35097e-09
3.50893e-08
5.12624e-09
2.78553e-08
3.99554e-09
1.62145e-08
6.06047e-09
2.24553e-08
-4.20365e-10
2.60456e-08
6.47657e-10
2.78437e-08
9.44769e-10
2.87852e-08
7.17013e-10
2.92577e-08
3.24771e-10
2.9442e-08
-9.71168e-11
2.94321e-08
-4.95453e-10
2.92826e-08
-8.4903e-10
2.9029e-08
-1.1502e-09
2.86976e-08
-1.39764e-09
-1.59329e-09
2.83097e-08
7.35794e-08
8.20378e-08
6.91651e-08
4.92718e-08
5.69095e-08
2.92522e-08
4.68512e-08
1.84093e-08
3.96791e-08
1.22983e-08
3.51197e-08
8.55497e-09
3.11826e-08
9.99757e-09
3.17686e-08
-1.00634e-09
3.25997e-08
-1.83421e-10
3.33995e-08
1.44905e-10
3.39636e-08
1.52959e-10
3.42916e-08
-3.23315e-12
3.44239e-08
-2.29443e-10
3.44014e-08
-4.72948e-10
3.42579e-08
-7.05556e-10
3.40208e-08
-9.13063e-10
3.37124e-08
-1.08923e-09
-1.23238e-09
3.33515e-08
3.27831e-08
4.92547e-08
4.37623e-08
3.82926e-08
4.46113e-08
2.84032e-08
4.16661e-08
2.13545e-08
3.80838e-08
1.58806e-08
3.47267e-08
1.19121e-08
4.32603e-08
1.464e-09
4.16592e-08
5.94674e-10
4.09943e-08
4.81471e-10
4.07732e-08
3.66057e-10
4.07114e-08
2.1475e-10
4.06718e-08
3.63615e-11
4.05944e-08
-1.52077e-10
4.04576e-08
-3.36086e-10
4.02579e-08
-5.05866e-10
4.00006e-08
-6.5577e-10
3.96946e-08
-7.83229e-10
-8.87783e-10
3.935e-08
1.28651e-08
3.63896e-08
1.98442e-08
3.13135e-08
2.30194e-08
2.52279e-08
2.23344e-08
2.20396e-08
2.33134e-08
1.49016e-08
3.17978e-08
3.4277e-09
3.11397e-08
2.12209e-09
3.02729e-08
1.46149e-09
2.97487e-08
1.00563e-09
2.94449e-08
6.69882e-10
2.92591e-08
4.00487e-10
2.91242e-08
1.71337e-10
2.90006e-08
-2.84891e-11
2.88676e-08
-2.03104e-10
2.87158e-08
-3.54113e-10
2.85426e-08
-4.82516e-10
2.83488e-08
-5.89432e-10
-6.7628e-10
2.81373e-08
8.0087e-09
2.83809e-08
1.21653e-08
2.71568e-08
1.70896e-08
2.03036e-08
2.09865e-08
1.81428e-08
2.82595e-08
7.62854e-09
2.70596e-08
4.6276e-09
2.61919e-08
2.98983e-09
2.56674e-08
1.98592e-09
2.53438e-08
1.32927e-09
2.51399e-08
8.73798e-10
2.50013e-08
5.39056e-10
2.48921e-08
2.80517e-10
2.479e-08
7.36074e-11
2.46823e-08
-9.54153e-11
2.45628e-08
-2.3457e-10
2.44292e-08
-3.48917e-10
2.42818e-08
-4.42008e-10
-5.16616e-10
2.41221e-08
6.77293e-09
2.1608e-08
1.32999e-08
2.06299e-08
1.61611e-08
1.74423e-08
2.21739e-08
1.213e-08
2.21872e-08
7.61531e-09
2.19409e-08
4.87386e-09
2.17341e-08
3.19662e-09
2.1589e-08
2.13104e-09
2.14915e-08
1.42674e-09
2.14235e-08
9.41862e-10
2.13686e-08
5.93896e-10
2.13148e-08
3.34311e-10
2.12541e-08
1.34352e-10
2.11819e-08
-2.3254e-11
2.10965e-08
-1.49157e-10
2.09978e-08
-2.50208e-10
2.08869e-08
-3.31075e-10
-3.95151e-10
2.07654e-08
5.13774e-09
1.64703e-08
9.81092e-09
1.59567e-08
1.40459e-08
1.32074e-08
1.64399e-08
9.73599e-09
1.74217e-08
6.63349e-09
1.78511e-08
4.44445e-09
1.8063e-08
2.98473e-09
1.818e-08
2.01403e-09
1.82489e-08
1.35788e-09
1.82878e-08
9.0297e-10
1.83036e-08
5.78054e-10
1.82991e-08
3.38819e-10
1.82757e-08
1.57772e-10
1.82347e-08
1.77436e-11
1.81777e-08
-9.21659e-11
1.81065e-08
-1.79075e-10
1.80233e-08
-2.4782e-10
-3.01845e-10
1.793e-08
3.65585e-09
1.28144e-08
7.60878e-09
1.20038e-08
1.07559e-08
1.00603e-08
1.28393e-08
7.65262e-09
1.40337e-08
5.43904e-09
1.47213e-08
3.75688e-09
1.51347e-08
2.57135e-09
1.53937e-08
1.75496e-09
1.55597e-08
1.19191e-09
1.56648e-08
7.97912e-10
1.57266e-08
5.16169e-10
1.57557e-08
3.09711e-10
1.57587e-08
1.54796e-10
1.57403e-08
3.61993e-11
1.5704e-08
-5.59354e-11
1.56531e-08
-1.2812e-10
1.55901e-08
-1.84787e-10
-2.29073e-10
1.55173e-08
3.0864e-09
9.72801e-09
6.1124e-09
8.97776e-09
8.6033e-09
7.56937e-09
1.03926e-08
5.86328e-09
1.15635e-08
4.26822e-09
1.23144e-08
3.00597e-09
1.28007e-08
2.08508e-09
1.31201e-08
1.43548e-09
1.33313e-08
9.80694e-10
1.34694e-08
6.59906e-10
1.35556e-08
4.29937e-10
1.36036e-08
2.61676e-10
1.36225e-08
1.35956e-10
1.36184e-08
4.02561e-11
1.35961e-08
-3.36401e-11
1.35592e-08
-9.12068e-11
1.35106e-08
-1.36182e-10
-1.71202e-10
1.34527e-08
2.59863e-09
7.12938e-09
5.04323e-09
6.53316e-09
7.08639e-09
5.52622e-09
8.6232e-09
4.32646e-09
9.69742e-09
3.194e-09
1.04265e-08
2.27688e-09
1.09182e-08
1.59338e-09
1.12501e-08
1.10358e-09
1.14737e-08
7.57128e-10
1.16222e-08
5.11321e-10
1.17175e-08
3.34694e-10
1.17737e-08
2.05504e-10
1.18004e-08
1.09185e-10
1.18046e-08
3.61016e-11
1.17911e-08
-2.01283e-11
1.17636e-08
-6.37807e-11
1.17252e-08
-9.77824e-11
-1.24197e-10
1.16782e-08
2.20465e-09
4.92473e-09
4.24072e-09
4.4971e-09
5.95594e-09
3.811e-09
7.28028e-09
3.00212e-09
8.23977e-09
2.23451e-09
8.91204e-09
1.60461e-09
9.3763e-09
1.12913e-09
9.69482e-09
7.85063e-10
9.91186e-09
5.40087e-10
1.00576e-08
3.65603e-10
1.01523e-08
2.40014e-10
1.02096e-08
1.4815e-10
1.02391e-08
7.97358e-11
1.02472e-08
2.79193e-11
1.0239e-08
-1.18645e-11
1.02179e-08
-4.26857e-11
1.01867e-08
-6.66496e-11
-8.52396e-11
1.01478e-08
1.8869e-09
3.03782e-09
3.61475e-09
2.76925e-09
5.07661e-09
2.34913e-09
6.22191e-09
1.85683e-09
7.06813e-09
1.38829e-09
7.6717e-09
1.00104e-09
8.09419e-09
7.06635e-10
8.38684e-09
4.92415e-10
8.58762e-09
3.39306e-10
8.72322e-09
2.30005e-10
8.81199e-09
1.51249e-10
8.8665e-09
9.36357e-11
8.89548e-09
5.07536e-11
8.9051e-09
1.83062e-11
8.89981e-09
-6.57778e-12
8.88296e-09
-2.58337e-11
8.8571e-09
-4.07903e-11
-5.23838e-11
8.82424e-09
1.62701e-09
1.41081e-09
3.11116e-09
1.28511e-09
4.36963e-09
1.09066e-09
5.36299e-09
8.63461e-10
6.10433e-09
6.46945e-10
6.63798e-09
4.67393e-10
7.01418e-09
3.30432e-10
7.27609e-09
2.30509e-10
7.45643e-09
1.5896e-10
7.57861e-09
1.07826e-10
7.6589e-09
7.09622e-11
7.70854e-09
4.3993e-11
7.73537e-09
2.39245e-11
7.74493e-09
8.74626e-12
7.74124e-09
-2.88774e-12
7.72729e-09
-1.18856e-11
7.70537e-09
-1.88712e-11
-2.42841e-11
7.67727e-09
1.41081e-09
2.69592e-09
3.78658e-09
4.65004e-09
5.29699e-09
5.76438e-09
6.09481e-09
6.32532e-09
6.48428e-09
6.59211e-09
6.66307e-09
6.70706e-09
6.73099e-09
6.73973e-09
6.73684e-09
6.72496e-09
6.70609e-09
6.6818e-09
2.44418e-10
-2.44418e-10
4.90223e-10
-2.45806e-10
7.37116e-10
-2.46893e-10
9.84785e-10
-2.47669e-10
1.23291e-09
-2.48125e-10
1.48116e-09
-2.48255e-10
1.72922e-09
-2.48054e-10
1.97674e-09
-2.47522e-10
2.2234e-09
-2.46656e-10
2.46886e-09
-2.4546e-10
2.71279e-09
-2.43938e-10
2.95489e-09
-2.42096e-10
3.19483e-09
-2.39941e-10
3.43232e-09
-2.37486e-10
3.66706e-09
-2.3474e-10
3.89878e-09
-2.31718e-10
4.12721e-09
-2.28435e-10
4.35212e-09
-2.24907e-10
4.57327e-09
-2.2115e-10
4.79045e-09
-2.17184e-10
5.00348e-09
-2.13025e-10
5.21217e-09
-2.08693e-10
5.41638e-09
-2.04208e-10
5.61597e-09
-1.99588e-10
5.81082e-09
-1.94852e-10
6.00084e-09
-1.90018e-10
6.18594e-09
-1.85105e-10
6.36607e-09
-1.8013e-10
6.54118e-09
-1.7511e-10
6.71124e-09
-1.70061e-10
6.87624e-09
-1.64998e-10
7.03617e-09
-1.59934e-10
7.19106e-09
-1.54885e-10
7.34092e-09
-1.4986e-10
7.48579e-09
-1.44873e-10
7.62572e-09
-1.39932e-10
7.76077e-09
-1.35049e-10
7.891e-09
-1.3023e-10
8.01649e-09
-1.25483e-10
8.1373e-09
-1.20815e-10
8.25353e-09
-1.16232e-10
8.36527e-09
-1.11739e-10
8.47261e-09
-1.07339e-10
8.57565e-09
-1.03037e-10
8.67448e-09
-9.88356e-11
8.76922e-09
-9.47366e-11
8.85996e-09
-9.07418e-11
8.94681e-09
-8.68525e-11
9.02988e-09
-8.30694e-11
9.10928e-09
-7.93932e-11
9.1851e-09
-7.58234e-11
9.25746e-09
-7.23599e-11
9.32646e-09
-6.90019e-11
9.39221e-09
-6.57488e-11
9.45481e-09
-6.2599e-11
9.51436e-09
-5.95513e-11
9.57097e-09
-5.66043e-11
9.62472e-09
-5.37561e-11
9.67573e-09
-5.1005e-11
9.72408e-09
-4.8349e-11
9.76986e-09
-4.57862e-11
9.81318e-09
-4.33144e-11
9.85411e-09
-4.09316e-11
9.89274e-09
-3.86353e-11
9.92917e-09
-3.64236e-11
9.96346e-09
-3.42941e-11
9.99571e-09
-3.22446e-11
1.0026e-08
-3.02728e-11
1.00544e-08
-2.83766e-11
1.00809e-08
-2.65534e-11
1.01057e-08
-2.48015e-11
1.01288e-08
-2.31183e-11
1.01503e-08
-2.15017e-11
1.01703e-08
-1.99497e-11
1.01887e-08
-1.846e-11
1.02058e-08
-1.70308e-11
1.02214e-08
-1.56597e-11
1.02358e-08
-1.4345e-11
1.02489e-08
-1.30845e-11
1.02607e-08
-1.18766e-11
1.02715e-08
-1.0719e-11
1.02811e-08
-9.61017e-12
1.02896e-08
-8.54833e-12
1.02971e-08
-7.5316e-12
1.03037e-08
-6.55838e-12
1.03093e-08
-5.62681e-12
1.03141e-08
-4.73558e-12
1.03179e-08
-3.88282e-12
1.0321e-08
-3.06721e-12
1.03233e-08
-2.28727e-12
1.03248e-08
-1.54135e-12
1.03257e-08
-8.28257e-13
1.03258e-08
-1.46437e-13
1.03253e-08
5.05136e-13
1.03242e-08
1.12813e-12
1.03225e-08
1.72348e-12
1.03202e-08
2.29239e-12
1.03173e-08
2.83632e-12
1.0314e-08
3.35609e-12
1.03101e-08
3.85298e-12
1.03058e-08
4.32786e-12
1.0301e-08
4.78201e-12
1.02958e-08
5.21604e-12
1.02902e-08
5.63138e-12
1.02841e-08
6.02844e-12
1.02777e-08
6.40851e-12
1.0271e-08
6.77222e-12
1.02638e-08
7.1205e-12
1.02564e-08
7.45402e-12
1.02486e-08
7.77365e-12
1.02405e-08
8.08011e-12
1.02322e-08
8.3741e-12
1.02235e-08
8.65619e-12
1.02146e-08
8.92712e-12
1.02054e-08
9.1875e-12
1.01959e-08
9.43803e-12
1.01863e-08
9.67898e-12
1.01764e-08
9.91138e-12
1.01662e-08
1.01352e-11
1.01559e-08
1.03514e-11
1.01453e-08
1.05601e-11
1.01345e-08
1.07621e-11
1.01236e-08
1.09575e-11
1.01124e-08
1.11471e-11
1.01011e-08
1.1331e-11
1.00896e-08
1.15096e-11
1.00779e-08
1.16835e-11
1.00661e-08
1.18527e-11
1.0054e-08
1.20178e-11
1.00419e-08
1.21791e-11
1.00295e-08
1.23366e-11
1.0017e-08
1.24911e-11
1.00044e-08
1.26424e-11
9.99161e-09
1.2791e-11
9.97867e-09
1.29372e-11
9.96559e-09
1.30812e-11
9.95237e-09
1.32229e-11
9.939e-09
1.33632e-11
9.9255e-09
1.35018e-11
9.91186e-09
1.3639e-11
9.89809e-09
1.37751e-11
9.88418e-09
1.39104e-11
9.87013e-09
1.40452e-11
9.85595e-09
1.41795e-11
9.84164e-09
1.43138e-11
9.82719e-09
1.44481e-11
9.81261e-09
1.4583e-11
9.79789e-09
1.47189e-11
9.78303e-09
1.48562e-11
9.76804e-09
1.49953e-11
9.7529e-09
1.51369e-11
9.73762e-09
1.52819e-11
9.72219e-09
1.54312e-11
9.7066e-09
1.55858e-11
9.69085e-09
1.57474e-11
9.67494e-09
1.59178e-11
9.65884e-09
1.60995e-11
9.64254e-09
1.62954e-11
9.62603e-09
1.65094e-11
9.60929e-09
1.67464e-11
9.59227e-09
1.70131e-11
9.57496e-09
1.73176e-11
9.55728e-09
1.76709e-11
9.5392e-09
1.80873e-11
9.52061e-09
1.85857e-11
9.50142e-09
1.91913e-11
9.48148e-09
1.99378e-11
9.46061e-09
2.08713e-11
9.43856e-09
2.20554e-11
9.41498e-09
2.35791e-11
9.38941e-09
2.55706e-11
9.36119e-09
2.82194e-11
9.32937e-09
3.18156e-11
9.29255e-09
3.68259e-11
9.2485e-09
4.40478e-11
9.19353e-09
5.49645e-11
9.12085e-09
7.26783e-11
9.01596e-09
1.04894e-10
8.83961e-09
1.76348e-10
4.01164e-10
8.43845e-09
2.45769e-10
-4.90187e-10
4.92925e-10
-4.92961e-10
7.41158e-10
-4.95126e-10
9.90148e-10
-4.96659e-10
1.23957e-09
-4.97544e-10
1.48908e-09
-4.97769e-10
1.73835e-09
-4.97326e-10
1.98704e-09
-4.9621e-10
2.23481e-09
-4.94421e-10
2.48131e-09
-4.91965e-10
2.72623e-09
-4.88851e-10
2.96922e-09
-4.85092e-10
3.20999e-09
-4.80705e-10
3.44821e-09
-4.75712e-10
3.68361e-09
-4.70137e-10
3.9159e-09
-4.64009e-10
4.14482e-09
-4.57358e-10
4.37013e-09
-4.50216e-10
4.5916e-09
-4.4262e-10
4.80902e-09
-4.34606e-10
5.02221e-09
-4.2621e-10
5.23099e-09
-4.17472e-10
5.43521e-09
-4.08431e-10
5.63475e-09
-3.99124e-10
5.82948e-09
-3.89589e-10
6.01933e-09
-3.79865e-10
6.20421e-09
-3.69987e-10
6.38407e-09
-3.5999e-10
6.55887e-09
-3.49907e-10
6.72858e-09
-3.39772e-10
6.89319e-09
-3.29612e-10
7.05272e-09
-3.19458e-10
7.20717e-09
-3.09335e-10
7.35657e-09
-2.99267e-10
7.50098e-09
-2.89277e-10
7.64043e-09
-2.79385e-10
7.77499e-09
-2.69609e-10
7.90473e-09
-2.59966e-10
8.02971e-09
-2.5047e-10
8.15003e-09
-2.41135e-10
8.26577e-09
-2.31971e-10
8.37702e-09
-2.22989e-10
8.48388e-09
-2.14197e-10
8.58644e-09
-2.056e-10
8.68481e-09
-1.97206e-10
8.7791e-09
-1.89018e-10
8.86939e-09
-1.8104e-10
8.95581e-09
-1.73273e-10
9.03846e-09
-1.6572e-10
9.11745e-09
-1.5838e-10
9.19288e-09
-1.51254e-10
9.26486e-09
-1.4434e-10
9.3335e-09
-1.37638e-10
9.39889e-09
-1.31145e-10
9.46115e-09
-1.24859e-10
9.52038e-09
-1.18777e-10
9.57667e-09
-1.12896e-10
9.63013e-09
-1.07213e-10
9.68085e-09
-1.01724e-10
9.72892e-09
-9.64245e-11
9.77445e-09
-9.13111e-11
9.81751e-09
-8.63794e-11
9.85821e-09
-8.16251e-11
9.89662e-09
-7.70439e-11
9.93282e-09
-7.26312e-11
9.96691e-09
-6.83827e-11
9.99896e-09
-6.42937e-11
1.0029e-08
-6.036e-11
1.00572e-08
-5.65766e-11
1.00836e-08
-5.29395e-11
1.01083e-08
-4.9444e-11
1.01312e-08
-4.60858e-11
1.01526e-08
-4.28607e-11
1.01724e-08
-3.9764e-11
1.01908e-08
-3.6792e-11
1.02077e-08
-3.39402e-11
1.02232e-08
-3.12047e-11
1.02374e-08
-2.85814e-11
1.02504e-08
-2.60666e-11
1.02622e-08
-2.36561e-11
1.02728e-08
-2.13466e-11
1.02824e-08
-1.9134e-11
1.02908e-08
-1.70152e-11
1.02983e-08
-1.49863e-11
1.03048e-08
-1.30442e-11
1.03103e-08
-1.11854e-11
1.0315e-08
-9.40686e-12
1.03188e-08
-7.70512e-12
1.03218e-08
-6.07757e-12
1.03241e-08
-4.52087e-12
1.03255e-08
-3.03235e-12
1.03263e-08
-1.6091e-12
1.03264e-08
-2.48533e-13
1.03259e-08
1.05208e-12
1.03247e-08
2.2953e-12
1.0323e-08
3.48357e-12
1.03206e-08
4.61939e-12
1.03178e-08
5.70478e-12
1.03144e-08
6.74247e-12
1.03105e-08
7.73413e-12
1.03061e-08
8.68224e-12
1.03013e-08
9.58854e-12
1.02961e-08
1.04553e-11
1.02904e-08
1.12842e-11
1.02844e-08
1.20771e-11
1.0278e-08
1.28358e-11
1.02712e-08
1.3562e-11
1.0264e-08
1.42573e-11
1.02566e-08
1.49233e-11
1.02488e-08
1.55616e-11
1.02407e-08
1.61734e-11
1.02323e-08
1.67603e-11
1.02236e-08
1.73237e-11
1.02147e-08
1.78649e-11
1.02055e-08
1.83848e-11
1.01961e-08
1.88851e-11
1.01864e-08
1.93666e-11
1.01764e-08
1.98304e-11
1.01663e-08
2.02777e-11
1.01559e-08
2.07094e-11
1.01454e-08
2.11265e-11
1.01346e-08
2.15299e-11
1.01236e-08
2.19205e-11
1.01125e-08
2.2299e-11
1.01012e-08
2.26665e-11
1.00896e-08
2.30235e-11
1.0078e-08
2.33707e-11
1.00661e-08
2.37089e-11
1.00541e-08
2.40388e-11
1.00419e-08
2.4361e-11
1.00296e-08
2.46761e-11
1.00171e-08
2.49846e-11
1.00044e-08
2.52871e-11
9.99163e-09
2.55841e-11
9.97869e-09
2.58763e-11
9.96561e-09
2.61638e-11
9.95238e-09
2.64476e-11
9.93902e-09
2.67276e-11
9.92552e-09
2.70047e-11
9.91188e-09
2.7279e-11
9.8981e-09
2.75514e-11
9.88419e-09
2.78217e-11
9.87014e-09
2.80911e-11
9.85596e-09
2.83595e-11
9.84165e-09
2.86279e-11
9.8272e-09
2.88966e-11
9.81262e-09
2.91664e-11
9.7979e-09
2.94379e-11
9.78304e-09
2.97122e-11
9.76805e-09
2.99902e-11
9.75291e-09
3.02732e-11
9.73763e-09
3.0563e-11
9.7222e-09
3.0861e-11
9.70662e-09
3.117e-11
9.69087e-09
3.14927e-11
9.67495e-09
3.1833e-11
9.65886e-09
3.21954e-11
9.64257e-09
3.25862e-11
9.62606e-09
3.30128e-11
9.60933e-09
3.34854e-11
9.59232e-09
3.40167e-11
9.57502e-09
3.4623e-11
9.55736e-09
3.53262e-11
9.53929e-09
3.61547e-11
9.52073e-09
3.71457e-11
9.50158e-09
3.83493e-11
9.48168e-09
3.98323e-11
9.46087e-09
4.16856e-11
9.43889e-09
4.40343e-11
9.41541e-09
4.70546e-11
9.38999e-09
5.0998e-11
9.36197e-09
5.62349e-11
9.33045e-09
6.33315e-11
9.29409e-09
7.31891e-11
9.25081e-09
8.73322e-11
9.19723e-09
1.08541e-10
9.12748e-09
1.42426e-10
9.03044e-09
2.01941e-10
8.8844e-09
3.22388e-10
6.1666e-10
8.6689e-09
2.48509e-10
-7.38696e-10
4.98401e-10
-7.42853e-10
7.49349e-10
-7.46074e-10
1.00102e-09
-7.48327e-10
1.25306e-09
-7.49586e-10
1.50512e-09
-7.49834e-10
1.75686e-09
-7.49058e-10
2.0079e-09
-7.47254e-10
2.2579e-09
-7.44424e-10
2.50652e-09
-7.40576e-10
2.75339e-09
-7.35727e-10
2.9982e-09
-7.29898e-10
3.24061e-09
-7.23118e-10
3.48032e-09
-7.15421e-10
3.71703e-09
-7.06846e-10
3.95046e-09
-6.97438e-10
4.18034e-09
-6.87246e-10
4.40645e-09
-6.7632e-10
4.62854e-09
-6.64716e-10
4.84643e-09
-6.5249e-10
5.05992e-09
-6.397e-10
5.26885e-09
-6.26405e-10
5.47308e-09
-6.12664e-10
5.6725e-09
-5.98537e-10
5.86699e-09
-5.8408e-10
6.05647e-09
-5.69351e-10
6.24089e-09
-5.54403e-10
6.42019e-09
-5.3929e-10
6.59434e-09
-5.24062e-10
6.76334e-09
-5.08766e-10
6.92717e-09
-4.93447e-10
7.08586e-09
-4.78147e-10
7.23943e-09
-4.62904e-10
7.38792e-09
-4.47756e-10
7.53138e-09
-4.32733e-10
7.66986e-09
-4.17867e-10
7.80343e-09
-4.03184e-10
7.93218e-09
-3.88707e-10
8.05617e-09
-3.74459e-10
8.17549e-09
-3.60458e-10
8.29024e-09
-3.4672e-10
8.40051e-09
-3.33259e-10
8.5064e-09
-3.20087e-10
8.60801e-09
-3.07213e-10
8.70545e-09
-2.94645e-10
8.79882e-09
-2.82389e-10
8.88823e-09
-2.70449e-10
8.97378e-09
-2.5883e-10
9.0556e-09
-2.47531e-10
9.13377e-09
-2.36554e-10
9.20841e-09
-2.25898e-10
9.27964e-09
-2.15562e-10
9.34754e-09
-2.05543e-10
9.41223e-09
-1.95837e-10
9.47382e-09
-1.86443e-10
9.53239e-09
-1.77354e-10
9.58806e-09
-1.68566e-10
9.64092e-09
-1.60074e-10
9.69107e-09
-1.51872e-10
9.7386e-09
-1.43954e-10
9.7836e-09
-1.36314e-10
9.82617e-09
-1.28947e-10
9.86639e-09
-1.21844e-10
9.90434e-09
-1.15e-10
9.94012e-09
-1.08408e-10
9.9738e-09
-1.02061e-10
1.00055e-08
-9.5953e-11
1.00352e-08
-9.00764e-11
1.0063e-08
-8.44247e-11
1.00891e-08
-7.89912e-11
1.01134e-08
-7.37694e-11
1.01361e-08
-6.87527e-11
1.01571e-08
-6.39344e-11
1.01767e-08
-5.93084e-11
1.01948e-08
-5.48681e-11
1.02114e-08
-5.06076e-11
1.02267e-08
-4.65207e-11
1.02408e-08
-4.26013e-11
1.02535e-08
-3.88439e-11
1.02651e-08
-3.52424e-11
1.02756e-08
-3.17915e-11
1.02849e-08
-2.84856e-11
1.02932e-08
-2.53194e-11
1.03005e-08
-2.22877e-11
1.03069e-08
-1.93856e-11
1.03123e-08
-1.66078e-11
1.03168e-08
-1.39498e-11
1.03205e-08
-1.14068e-11
1.03234e-08
-8.97411e-12
1.03256e-08
-6.64771e-12
1.0327e-08
-4.42287e-12
1.03276e-08
-2.29564e-12
1.03277e-08
-2.61963e-13
1.0327e-08
1.68227e-12
1.03258e-08
3.54067e-12
1.03239e-08
5.317e-12
1.03215e-08
7.01485e-12
1.03186e-08
8.63777e-12
1.03152e-08
1.01889e-11
1.03112e-08
1.16718e-11
1.03068e-08
1.30893e-11
1.0302e-08
1.44446e-11
1.02967e-08
1.57406e-11
1.0291e-08
1.69801e-11
1.02849e-08
1.81659e-11
1.02784e-08
1.93006e-11
1.02716e-08
2.03866e-11
1.02644e-08
2.14267e-11
1.02569e-08
2.24229e-11
1.02491e-08
2.33775e-11
1.0241e-08
2.4293e-11
1.02326e-08
2.51711e-11
1.02239e-08
2.60139e-11
1.02149e-08
2.68236e-11
1.02057e-08
2.76018e-11
1.01963e-08
2.83503e-11
1.01866e-08
2.90708e-11
1.01766e-08
2.97651e-11
1.01665e-08
3.04346e-11
1.01561e-08
3.10808e-11
1.01455e-08
3.17051e-11
1.01347e-08
3.23092e-11
1.01238e-08
3.28938e-11
1.01126e-08
3.34608e-11
1.01013e-08
3.40108e-11
1.00897e-08
3.45454e-11
1.0078e-08
3.50655e-11
1.00662e-08
3.55721e-11
1.00541e-08
3.60662e-11
1.0042e-08
3.65489e-11
1.00296e-08
3.70208e-11
1.00171e-08
3.7483e-11
1.00045e-08
3.79363e-11
9.99167e-09
3.83815e-11
9.97873e-09
3.8819e-11
9.96564e-09
3.92501e-11
9.95242e-09
3.96751e-11
9.93905e-09
4.0095e-11
9.92554e-09
4.05102e-11
9.9119e-09
4.09214e-11
9.89812e-09
4.13293e-11
9.88421e-09
4.17348e-11
9.87016e-09
4.21384e-11
9.85598e-09
4.25408e-11
9.84167e-09
4.2943e-11
9.82722e-09
4.33457e-11
9.81263e-09
4.37498e-11
9.79791e-09
4.41569e-11
9.78306e-09
4.45679e-11
9.76806e-09
4.49844e-11
9.75293e-09
4.54084e-11
9.73765e-09
4.58421e-11
9.72222e-09
4.62884e-11
9.70664e-09
4.67508e-11
9.6909e-09
4.72335e-11
9.67499e-09
4.77423e-11
9.6589e-09
4.82841e-11
9.64262e-09
4.88677e-11
9.62613e-09
4.95046e-11
9.6094e-09
5.02095e-11
9.59242e-09
5.10012e-11
9.57514e-09
5.19043e-11
9.55751e-09
5.29509e-11
9.53949e-09
5.41827e-11
9.52098e-09
5.56552e-11
9.50188e-09
5.74416e-11
9.48208e-09
5.96409e-11
9.46137e-09
6.23866e-11
9.43955e-09
6.58625e-11
9.41628e-09
7.03258e-11
9.39113e-09
7.61431e-11
9.36351e-09
8.38514e-11
9.33258e-09
9.42626e-11
9.29711e-09
1.08657e-10
9.25529e-09
1.29159e-10
9.2043e-09
1.59533e-10
9.13971e-09
2.0701e-10
9.05479e-09
2.86859e-10
8.94286e-09
4.34326e-10
7.32044e-10
8.82747e-09
2.52714e-10
-9.9141e-10
5.06803e-10
-9.96942e-10
7.61917e-10
-1.00119e-09
1.01769e-09
-1.0041e-09
1.27375e-09
-1.00564e-09
1.52971e-09
-1.0058e-09
1.7852e-09
-1.00455e-09
2.03984e-09
-1.00189e-09
2.29325e-09
-9.97834e-10
2.54506e-09
-9.92387e-10
2.79491e-09
-9.85578e-10
3.04246e-09
-9.7744e-10
3.28735e-09
-9.68015e-10
3.52929e-09
-9.57354e-10
3.76796e-09
-9.45515e-10
4.00308e-09
-9.3256e-10
4.23439e-09
-9.18559e-10
4.46166e-09
-9.03585e-10
4.68466e-09
-8.87715e-10
4.90319e-09
-8.71027e-10
5.1171e-09
-8.53603e-10
5.32621e-09
-8.35523e-10
5.53042e-09
-8.16868e-10
5.7296e-09
-7.97719e-10
5.92367e-09
-7.78153e-10
6.11257e-09
-7.58248e-10
6.29624e-09
-7.38076e-10
6.47466e-09
-7.17708e-10
6.64781e-09
-6.9721e-10
6.81569e-09
-6.76646e-10
6.97832e-09
-6.56074e-10
7.13572e-09
-6.35549e-10
7.28794e-09
-6.15122e-10
7.43502e-09
-5.94839e-10
7.57703e-09
-5.74743e-10
7.71404e-09
-5.54873e-10
7.84611e-09
-5.35262e-10
7.97335e-09
-5.15941e-10
8.09583e-09
-4.96937e-10
8.21364e-09
-4.78274e-10
8.32689e-09
-4.59972e-10
8.43568e-09
-4.42049e-10
8.54012e-09
-4.24518e-10
8.6403e-09
-4.07392e-10
8.73633e-09
-3.9068e-10
8.82833e-09
-3.74389e-10
8.91641e-09
-3.58524e-10
9.00066e-09
-3.43088e-10
9.08122e-09
-3.28083e-10
9.15817e-09
-3.13509e-10
9.23164e-09
-2.99364e-10
9.30172e-09
-2.85646e-10
9.36853e-09
-2.72351e-10
9.43217e-09
-2.59475e-10
9.49274e-09
-2.47013e-10
9.55034e-09
-2.34957e-10
9.60508e-09
-2.23303e-10
9.65705e-09
-2.12041e-10
9.70634e-09
-2.01165e-10
9.75305e-09
-1.90667e-10
9.79728e-09
-1.80538e-10
9.8391e-09
-1.70769e-10
9.87861e-09
-1.61353e-10
9.91589e-09
-1.5228e-10
9.95102e-09
-1.43541e-10
9.98409e-09
-1.35127e-10
1.00152e-08
-1.2703e-10
1.00443e-08
-1.19239e-10
1.00716e-08
-1.11747e-10
1.00972e-08
-1.04544e-10
1.01211e-08
-9.76211e-11
1.01433e-08
-9.09701e-11
1.01639e-08
-8.45824e-11
1.01831e-08
-7.84492e-11
1.02008e-08
-7.25623e-11
1.02171e-08
-6.69133e-11
1.0232e-08
-6.14946e-11
1.02457e-08
-5.62977e-11
1.02582e-08
-5.13154e-11
1.02695e-08
-4.65397e-11
1.02797e-08
-4.19637e-11
1.02888e-08
-3.75796e-11
1.02968e-08
-3.33807e-11
1.03039e-08
-2.93601e-11
1.031e-08
-2.55108e-11
1.03152e-08
-2.18267e-11
1.03196e-08
-1.8301e-11
1.03231e-08
-1.4928e-11
1.03258e-08
-1.17011e-11
1.03278e-08
-8.61477e-12
1.0329e-08
-5.66329e-12
1.03296e-08
-2.84112e-12
1.03295e-08
-1.42816e-13
1.03287e-08
2.43682e-12
1.03274e-08
4.90263e-12
1.03254e-08
7.25979e-12
1.03229e-08
9.51301e-12
1.03199e-08
1.16668e-11
1.03164e-08
1.37254e-11
1.03123e-08
1.56936e-11
1.03078e-08
1.75751e-11
1.03029e-08
1.93742e-11
1.02976e-08
2.10948e-11
1.02918e-08
2.27403e-11
1.02857e-08
2.43148e-11
1.02791e-08
2.58214e-11
1.02723e-08
2.72637e-11
1.0265e-08
2.86447e-11
1.02575e-08
2.99678e-11
1.02496e-08
3.12359e-11
1.02415e-08
3.24517e-11
1.0233e-08
3.36183e-11
1.02243e-08
3.47382e-11
1.02153e-08
3.58138e-11
1.02061e-08
3.68479e-11
1.01966e-08
3.78427e-11
1.01868e-08
3.88003e-11
1.01769e-08
3.9723e-11
1.01667e-08
4.0613e-11
1.01563e-08
4.14722e-11
1.01457e-08
4.23022e-11
1.01349e-08
4.31054e-11
1.01239e-08
4.3883e-11
1.01128e-08
4.46369e-11
1.01014e-08
4.53687e-11
1.00899e-08
4.60797e-11
1.00782e-08
4.67717e-11
1.00663e-08
4.74457e-11
1.00542e-08
4.81033e-11
1.00421e-08
4.87455e-11
1.00297e-08
4.93737e-11
1.00172e-08
4.99888e-11
1.00045e-08
5.05923e-11
9.99174e-09
5.11848e-11
9.97879e-09
5.17675e-11
9.9657e-09
5.23415e-11
9.95246e-09
5.29074e-11