/*--------------------------------*- C++ -*----------------------------------*\
  =========                 |
  \\      /  F ield         | OpenFOAM: The Open Source CFD Toolbox
   \\    /   O peration     | Website:  https://openfoam.org
    \\  /    A nd           | Version:  10
     \\/     M anipulation  |
\*---------------------------------------------------------------------------*/
FoamFile
{
    format      ascii;
    class       volVectorField;
    location    "0.11";
    object      Ub;
}
// * * * * * * * * * * * * * * * * * * * * * * * * * * * * * * * * * * * * * //

dimensions      [0 1 -1 0 0 0 0];

internalField   nonuniform List<vector> 
12225
(
(6.12922e-32 -1.25081e-32 0)
(1.60523e-31 -8.12192e-33 0)
(2.08996e-31 -2.46385e-33 0)
(2.18045e-31 1.76278e-34 0)
(2.10707e-31 1.2264e-33 0)
(1.98145e-31 1.49531e-33 0)
(1.85437e-31 1.38171e-33 0)
(1.74676e-31 1.1145e-33 0)
(1.66443e-31 8.07212e-34 0)
(1.60686e-31 5.02849e-34 0)
(1.57184e-31 2.06771e-34 0)
(1.55761e-31 -9.64539e-35 0)
(1.56401e-31 -4.39946e-34 0)
(1.59365e-31 -8.85978e-34 0)
(1.65428e-31 -1.56857e-33 0)
(1.7661e-31 -2.84834e-33 0)
(1.99055e-31 -6.04455e-33 0)
(2.59326e-31 -1.83155e-32 0)
(6.22261e-32 -1.19833e-18 0)
(1.62712e-31 -2.4686e-32 0)
(2.10861e-31 -7.08243e-33 0)
(2.18908e-31 9.6353e-34 0)
(2.11027e-31 4.1492e-33 0)
(1.98183e-31 4.95384e-33 0)
(1.85335e-31 4.59103e-33 0)
(1.74516e-31 3.7625e-33 0)
(1.66266e-31 2.81529e-33 0)
(1.60505e-31 1.8799e-33 0)
(1.56996e-31 9.72015e-34 0)
(1.55549e-31 4.45087e-35 0)
(1.56132e-31 -1.00231e-33 0)
(1.58963e-31 -2.35288e-33 0)
(1.64699e-31 -4.39349e-33 0)
(1.74873e-31 -8.10722e-33 0)
(1.92784e-31 -1.6673e-32 0)
(2.20761e-31 -4.3606e-32 0)
(4.00572e-19 -1.38994e-05 0)
(4.00572e-19 -1.02116e-14 0)
(2.15038e-31 -1.15046e-32 0)
(2.20797e-31 2.10042e-33 0)
(2.11722e-31 7.43967e-33 0)
(1.98257e-31 8.7469e-33 0)
(1.85102e-31 8.0703e-33 0)
(1.74158e-31 6.61413e-33 0)
(1.65872e-31 4.97e-33 0)
(1.60104e-31 3.35681e-33 0)
(1.5658e-31 1.79856e-33 0)
(1.55084e-31 2.14958e-34 0)
(1.55544e-31 -1.55859e-33 0)
(1.581e-31 -3.81668e-33 0)
(1.63189e-31 -7.14436e-33 0)
(1.71631e-31 -1.2892e-32 0)
(1.84101e-31 -2.46541e-32 0)
(1.95476e-31 -5.26367e-32 0)
(4.04695e-06 -0.00691981 0)
(4.04695e-06 -0.00013092 0)
(2.91187e-15 -1.25668e-17 0)
(2.23858e-31 3.88648e-33 0)
(2.1283e-31 1.12708e-32 0)
(1.98351e-31 1.29793e-32 0)
(1.84694e-31 1.1875e-32 0)
(1.73552e-31 9.69544e-33 0)
(1.65213e-31 7.28316e-33 0)
(1.59437e-31 4.94083e-33 0)
(1.55894e-31 2.69578e-33 0)
(1.54321e-31 4.33303e-34 0)
(1.54594e-31 -2.06996e-33 0)
(1.56741e-31 -5.19357e-33 0)
(1.60936e-31 -9.63548e-33 0)
(1.67315e-31 -1.68143e-32 0)
(1.74964e-31 -2.97508e-32 0)
(1.77911e-31 -5.4054e-32 0)
(0.00176488 -0.01518 0)
(0.00184333 -0.00783109 0)
(7.84495e-05 -3.52431e-06 0)
(5.46035e-18 -2.01865e-22 0)
(2.14357e-31 1.58676e-32 0)
(1.98422e-31 1.77872e-32 0)
(1.84046e-31 1.60728e-32 0)
(1.72631e-31 1.3035e-32 0)
(1.64227e-31 9.76557e-33 0)
(1.58452e-31 6.63794e-33 0)
(1.54889e-31 3.67324e-33 0)
(1.53219e-31 7.20604e-34 0)
(1.53249e-31 -2.49233e-33 0)
(1.54883e-31 -6.39649e-33 0)
(1.58042e-31 -1.17096e-32 0)
(1.6236e-31 -1.96853e-32 0)
(1.66274e-31 -3.23996e-32 0)
(1.65044e-31 -5.21035e-32 0)
(0.00204576 -0.0173459 0)
(0.00495085 -0.0162513 0)
(0.00291482 -0.00631599 0)
(9.7338e-06 -3.18971e-10 0)
(3.77851e-22 2.13195e-32 0)
(1.9839e-31 2.33436e-32 0)
(1.8306e-31 2.07429e-32 0)
(1.71306e-31 1.66611e-32 0)
(1.62844e-31 1.24243e-32 0)
(1.57088e-31 8.45068e-33 0)
(1.53516e-31 4.73878e-33 0)
(1.5174e-31 1.09814e-33 0)
(1.51488e-31 -2.78134e-33 0)
(1.52549e-31 -7.34731e-33 0)
(1.54642e-31 -1.32604e-32 0)
(1.57121e-31 -2.14868e-32 0)
(1.58373e-31 -3.32058e-32 0)
(1.55176e-31 -4.87887e-32 0)
(0.002205 -0.0189404 0)
(0.00555791 -0.0176599 0)
(0.00583102 -0.0136388 0)
(0.00247816 -0.000132028 0)
(4.38921e-08 -3.27097e-17 0)
(4.58229e-31 2.98661e-32 0)
(1.81587e-31 2.59711e-32 0)
(1.69459e-31 2.05955e-32 0)
(1.60972e-31 1.52576e-32 0)
(1.55279e-31 1.03746e-32 0)
(1.51726e-31 5.89547e-33 0)
(1.49848e-31 1.58369e-33 0)
(1.49303e-31 -2.89874e-33 0)
(1.49783e-31 -7.98764e-33 0)
(1.50877e-31 -1.424e-32 0)
(1.51847e-31 -2.23138e-32 0)
(1.51326e-31 -3.27241e-32 0)
(1.47311e-31 -4.5017e-32 0)
(0.00242988 -0.0206263 0)
(0.00633013 -0.0188382 0)
(0.00916326 -0.0154072 0)
(0.00536267 -0.00688836 0)
(9.96643e-05 -1.88291e-09 0)
(2.45814e-17 3.47916e-32 0)
(1.79409e-31 3.1838e-32 0)
(1.66932e-31 2.48419e-32 0)
(1.58503e-31 1.82473e-32 0)
(1.52948e-31 1.23927e-32 0)
(1.49466e-31 7.13711e-33 0)
(1.47518e-31 2.18659e-33 0)
(1.467e-31 -2.81898e-33 0)
(1.46641e-31 -8.28637e-33 0)
(1.46873e-31 -1.46548e-32 0)
(1.46695e-31 -2.23201e-32 0)
(1.45069e-31 -3.13903e-32 0)
(1.40831e-31 -4.11812e-32 0)
(0.00275048 -0.0225609 0)
(0.00721103 -0.0201776 0)
(0.00993752 -0.0166974 0)
(0.00900293 -0.0135837 0)
(0.00352619 -6.88375e-05 0)
(2.3123e-07 -3.39076e-19 0)
(1.48345e-27 3.83659e-32 0)
(1.63516e-31 2.9366e-32 0)
(1.55308e-31 2.13457e-32 0)
(1.50016e-31 1.44678e-32 0)
(1.4669e-31 8.44235e-33 0)
(1.4473e-31 2.90202e-33 0)
(1.43694e-31 -2.53533e-33 0)
(1.43181e-31 -8.24306e-33 0)
(1.4273e-31 -1.45543e-32 0)
(1.41742e-31 -2.16782e-32 0)
(1.3949e-31 -2.95207e-32 0)
(1.35337e-31 -3.74424e-32 0)
(0.00320265 -0.0248842 0)
(0.00834021 -0.0217364 0)
(0.0112564 -0.0177444 0)
(0.0127021 -0.0141298 0)
(0.0066513 -0.00571507 0)
(6.7988e-05 -4.14108e-10 0)
(1.18803e-17 4.43996e-32 0)
(1.5896e-31 3.40668e-32 0)
(1.51244e-31 2.44573e-32 0)
(1.46402e-31 1.65327e-32 0)
(1.43354e-31 9.76756e-33 0)
(1.41474e-31 3.70492e-33 0)
(1.40308e-31 -2.06457e-33 0)
(1.39462e-31 -7.88764e-33 0)
(1.38522e-31 -1.40185e-32 0)
(1.37017e-31 -2.0555e-32 0)
(1.34471e-31 -2.73365e-32 0)
(1.30559e-31 -3.38633e-32 0)
(0.00384707 -0.0277826 0)
(0.00984782 -0.0235571 0)
(0.0128585 -0.0187257 0)
(0.0136014 -0.0147197 0)
(0.0101523 -0.0110321 0)
(0.00340886 -1.38872e-06 0)
(1.7475e-07 6.67403e-29 0)
(2.52004e-28 3.85746e-32 0)
(1.46158e-31 2.74127e-32 0)
(1.42033e-31 1.84798e-32 0)
(1.39428e-31 1.10392e-32 0)
(1.37752e-31 4.54442e-33 0)
(1.36574e-31 -1.44979e-33 0)
(1.35536e-31 -7.27741e-33 0)
(1.34297e-31 -1.31453e-32 0)
(1.32518e-31 -1.91006e-32 0)
(1.29904e-31 -2.49916e-32 0)
(1.26308e-31 -3.04673e-32 0)
(0.00472971 -0.0311761 0)
(0.0118093 -0.0254881 0)
(0.0148548 -0.0195434 0)
(0.0153091 -0.0148445 0)
(0.0141826 -0.0107201 0)
(0.00665427 -0.000827689 0)
(5.47421e-06 7.45037e-22 0)
(4.58583e-21 4.18905e-32 0)
(1.40523e-31 2.98252e-32 0)
(1.37298e-31 2.00535e-32 0)
(1.35279e-31 1.20786e-32 0)
(1.33931e-31 5.28502e-33 0)
(1.32866e-31 -8.16726e-34 0)
(1.31789e-31 -6.56288e-33 0)
(1.3044e-31 -1.21404e-32 0)
(1.28583e-31 -1.75848e-32 0)
(1.26046e-31 -2.27814e-32 0)
(1.22772e-31 -2.74978e-32 0)
(0.00595811 -0.0356488 0)
(0.0144003 -0.0276535 0)
(0.0173035 -0.0201755 0)
(0.0172586 -0.0147372 0)
(0.0163659 -0.0106984 0)
(0.00854275 -0.00484098 0)
(0.000574205 -1.38312e-16 0)
(1.08879e-12 4.06086e-32 0)
(1.34297e-31 3.17606e-32 0)
(1.3199e-31 2.11976e-32 0)
(1.30721e-31 1.28312e-32 0)
(1.29831e-31 5.88312e-33 0)
(1.28992e-31 -2.04525e-34 0)
(1.27988e-31 -5.78323e-33 0)
(1.26648e-31 -1.10374e-32 0)
(1.2483e-31 -1.6011e-32 0)
(1.2245e-31 -2.06331e-32 0)
(1.19508e-31 -2.47597e-32 0)
(0.00817748 -0.0428284 0)
(0.0187849 -0.0303128 0)
(0.0210416 -0.0204518 0)
(0.0198541 -0.0141254 0)
(0.0174729 -0.0100827 0)
(0.0122767 -0.00699321 0)
(0.00422416 -2.51544e-06 0)
(4.13513e-07 6.43012e-27 0)
(1.88328e-26 3.30658e-32 0)
(1.2509e-31 2.17356e-32 0)
(1.25004e-31 1.31837e-32 0)
(1.24828e-31 6.28088e-33 0)
(1.24388e-31 3.73527e-34 0)
(1.23598e-31 -4.90867e-33 0)
(1.22396e-31 -9.75247e-33 0)
(1.20734e-31 -1.42171e-32 0)
(1.18602e-31 -1.82748e-32 0)
(1.16039e-31 -2.18521e-32 0)
(0.0127251 -0.0557474 0)
(0.0269579 -0.0328774 0)
(0.0269718 -0.0194833 0)
(0.0235937 -0.0123663 0)
(0.0199533 -0.00829665 0)
(0.0162987 -0.0051844 0)
(0.00720926 -0.000205884 0)
(9.19098e-06 9.45991e-21 0)
(6.8e-20 3.18368e-32 0)
(1.1639e-31 2.07249e-32 0)
(1.18109e-31 1.26073e-32 0)
(1.1895e-31 6.16505e-33 0)
(1.19098e-31 7.22391e-34 0)
(1.18671e-31 -4.07214e-33 0)
(1.17736e-31 -8.39023e-33 0)
(1.16342e-31 -1.22965e-32 0)
(1.14538e-31 -1.57927e-32 0)
(1.12389e-31 -1.88521e-32 0)
(0.0238535 -0.0833694 0)
(0.0443461 -0.0312888 0)
(0.0364529 -0.0146996 0)
(0.0285981 -0.00824378 0)
(0.0229385 -0.00518221 0)
(0.0189418 -0.00337486 0)
(0.00893682 -0.000961845 0)
(0.000295835 2.22732e-15 0)
(4.11578e-13 2.55499e-32 0)
(1.06829e-31 1.68621e-32 0)
(1.10596e-31 1.03959e-32 0)
(1.12572e-31 5.12481e-33 0)
(1.1339e-31 5.78722e-34 0)
(1.13404e-31 -3.46424e-33 0)
(1.12818e-31 -7.10604e-33 0)
(1.11761e-31 -1.03851e-32 0)
(1.1033e-31 -1.33065e-32 0)
(1.08609e-31 -1.5863e-32 0)
(0.0588554 -0.00213804 0)
(0.0890841 0.00044181 0)
(0.0497414 0.000354171 0)
(0.0337706 0.000249079 0)
(0.0252924 0.00024846 0)
(0.0194339 0.000273216 0)
(0.0101671 6.50905e-05 0)
(0.00176775 2.22511e-15 0)
(1.47645e-08 1.31435e-32 0)
(1.34891e-31 9.39151e-33 0)
(1.04107e-31 6.24842e-33 0)
(1.06707e-31 2.99194e-33 0)
(1.07914e-31 -1.90749e-34 0)
(1.08235e-31 -3.21344e-33 0)
(1.07942e-31 -6.03024e-33 0)
(1.07201e-31 -8.61169e-33 0)
(1.06125e-31 -1.0937e-32 0)
(1.04803e-31 -1.29929e-32 0)
(0.019473 0.0749775 0)
(0.0377149 0.0308411 0)
(0.0331615 0.0156946 0)
(0.0270762 0.00936647 0)
(0.0222468 0.00623388 0)
(0.0184153 0.00440148 0)
(0.00843002 0.000873211 0)
(0.00010485 1.20697e-15 0)
(2.6426e-15 2.17532e-33 0)
(9.95344e-32 2.66122e-33 0)
(1.01591e-31 2.18586e-33 0)
(1.02937e-31 7.42091e-34 0)
(1.03631e-31 -1.11769e-33 0)
(1.03797e-31 -3.11475e-33 0)
(1.03546e-31 -5.09959e-33 0)
(1.02972e-31 -6.98809e-33 0)
(1.02149e-31 -8.73202e-33 0)
(1.0114e-31 -1.03049e-32 0)
(0.00705504 0.0412171 0)
(0.0164131 0.0284833 0)
(0.0188002 0.0193648 0)
(0.0181015 0.0137008 0)
(0.0161906 0.00974447 0)
(0.0090673 0.00389647 0)
(0.00153597 4.96463e-05 0)
(2.38432e-09 1.20917e-15 0)
(1.05232e-31 5.79624e-34 0)
(1.0116e-31 1.16203e-33 0)
(1.0081e-31 8.3057e-34 0)
(1.00684e-31 -6.85305e-35 0)
(1.00539e-31 -1.27859e-33 0)
(1.00274e-31 -2.62877e-33 0)
(9.9858e-32 -4.00958e-33 0)
(9.92926e-32 -5.35223e-33 0)
(9.85957e-32 -6.61461e-33 0)
(9.77908e-32 -7.77235e-33 0)
(0.00372256 0.0265608 0)
(0.00940727 0.0222973 0)
(0.0121547 0.0176331 0)
(0.0124088 0.0143102 0)
(0.00700942 0.00621945 0)
(0.00107062 0.000937205 0)
(2.38792e-09 1.63295e-09 0)
(1.07824e-31 4.82721e-33 0)
(1.01434e-31 3.53685e-33 0)
(1.00034e-31 2.52202e-33 0)
(9.92071e-32 1.49849e-33 0)
(9.86652e-32 4.22127e-34 0)
(9.82282e-32 -6.90274e-34 0)
(9.77946e-32 -1.80589e-33 0)
(9.73134e-32 -2.89326e-33 0)
(9.67642e-32 -3.92773e-33 0)
(9.61439e-32 -4.89218e-33 0)
(9.54589e-32 -5.77612e-33 0)
(0.00256498 0.019587 0)
(0.00636074 0.0180837 0)
(0.00851864 0.0137992 0)
(0.00481696 0.00712332 0)
(9.40798e-05 0.000856234 0)
(3.62341e-11 2.03032e-09 0)
(1.05191e-31 1.19268e-32 0)
(1.00672e-31 8.06972e-33 0)
(9.90254e-32 5.64538e-33 0)
(9.80013e-32 3.83735e-33 0)
(9.73365e-32 2.37359e-33 0)
(9.68555e-32 1.10837e-33 0)
(9.64454e-32 -2.95537e-35 0)
(9.60381e-32 -1.07197e-33 0)
(9.5597e-32 -2.03152e-33 0)
(9.51056e-32 -2.91249e-33 0)
(9.45601e-32 -3.71625e-33 0)
(9.39639e-32 -4.44375e-33 0)
(0.0017832 0.0129831 0)
(0.00248942 0.00907956 0)
(0.000706705 0.00563094 0)
(4.91162e-07 8.93565e-05 0)
(3.60749e-16 3.66576e-11 0)
(9.84319e-32 2.10993e-32 0)
(9.73913e-32 1.40195e-32 0)
(9.66066e-32 9.6684e-33 0)
(9.60656e-32 6.69272e-33 0)
(9.56965e-32 4.54193e-33 0)
(9.54224e-32 2.89548e-33 0)
(9.51802e-32 1.56643e-33 0)
(9.49248e-32 4.47186e-34 0)
(9.46284e-32 -5.23522e-34 0)
(9.4277e-32 -1.38051e-33 0)
(9.38665e-32 -2.14389e-33 0)
(9.3399e-32 -2.82588e-33 0)
(9.28807e-32 -3.43459e-33 0)
(1.4362e-08 0.0045798 0)
(1.43627e-08 0.000919298 0)
(7.50871e-13 2.30247e-06 0)
(1.67363e-22 4.13584e-16 0)
(8.67361e-32 2.99529e-32 0)
(9.0351e-32 2.03453e-32 0)
(9.19937e-32 1.40078e-32 0)
(9.28361e-32 9.73551e-33 0)
(9.33123e-32 6.76386e-33 0)
(9.35883e-32 4.6175e-33 0)
(9.37285e-32 3.00071e-33 0)
(9.37575e-32 1.7303e-33 0)
(9.3686e-32 6.93588e-34 0)
(9.3521e-32 -1.78447e-34 0)
(9.327e-32 -9.28176e-34 0)
(9.29418e-32 -1.58196e-33 0)
(9.25463e-32 -2.15666e-33 0)
(9.2094e-32 -2.66363e-33 0)
(2.19652e-25 7.59908e-07 0)
(2.19652e-25 2.11342e-10 0)
(5.41542e-32 1.67505e-22 0)
(6.9426e-32 3.51089e-32 0)
(7.90706e-32 2.5345e-32 0)
(8.46082e-32 1.78871e-32 0)
(8.78476e-32 1.25745e-32 0)
(8.98262e-32 8.83754e-33 0)
(9.10768e-32 6.17983e-33 0)
(9.18743e-32 4.24459e-33 0)
(9.23655e-32 2.79097e-33 0)
(9.26332e-32 1.66116e-33 0)
(9.27276e-32 7.5344e-34 0)
(9.26821e-32 2.85393e-36 0)
(9.25212e-32 -6.32069e-34 0)
(9.22646e-32 -1.17802e-33 0)
(9.19292e-32 -1.65252e-33 0)
(9.15296e-32 -2.06746e-33 0)
(1.04318e-32 4.43209e-25 0)
(3.10911e-32 3.91823e-32 0)
(4.97377e-32 3.41691e-32 0)
(6.42046e-32 2.72536e-32 0)
(7.42096e-32 2.03477e-32 0)
(8.07049e-32 1.47214e-32 0)
(8.48865e-32 1.05123e-32 0)
(8.76099e-32 7.45614e-33 0)
(8.94036e-32 5.24176e-33 0)
(9.05839e-32 3.61492e-33 0)
(9.13418e-32 2.3913e-33 0)
(9.17957e-32 1.44433e-33 0)
(9.20217e-32 6.89571e-34 0)
(9.20717e-32 7.15051e-35 0)
(9.19826e-32 -4.46169e-34 0)
(9.17825e-32 -8.873e-34 0)
(9.14934e-32 -1.26778e-33 0)
(9.11335e-32 -1.5985e-33 0)
(1.00892e-32 3.00946e-32 0)
(2.96695e-32 2.88365e-32 0)
(4.70932e-32 2.53398e-32 0)
(6.09924e-32 2.05069e-32 0)
(7.11297e-32 1.56044e-32 0)
(7.8131e-32 1.14644e-32 0)
(8.28707e-32 8.27047e-33 0)
(8.60683e-32 5.90086e-33 0)
(8.82249e-32 4.16042e-33 0)
(8.96698e-32 2.87249e-33 0)
(9.06164e-32 1.90161e-33 0)
(9.12043e-32 1.15144e-33 0)
(9.15263e-32 5.5604e-34 0)
(9.16464e-32 7.12073e-35 0)
(9.16101e-32 -3.32432e-34 0)
(9.14511e-32 -6.74429e-34 0)
(9.11956e-32 -9.67943e-34 0)
(9.0864e-32 -1.22203e-33 0)
(9.83235e-33 2.14735e-32 0)
(2.87452e-32 2.04597e-32 0)
(4.54752e-32 1.8021e-32 0)
(5.90311e-32 1.47035e-32 0)
(6.92165e-32 1.13076e-32 0)
(7.64939e-32 8.38039e-33 0)
(8.15627e-32 6.07914e-33 0)
(8.50537e-32 4.34786e-33 0)
(8.74422e-32 3.06461e-33 0)
(8.906e-32 2.11008e-33 0)
(9.01321e-32 1.38913e-33 0)
(9.08102e-32 8.32357e-34 0)
(9.11973e-32 3.91448e-34 0)
(9.13651e-32 3.35864e-35 0)
(9.13648e-32 -2.63265e-34 0)
(9.12339e-32 -5.13894e-34 0)
(9.10009e-32 -7.28318e-34 0)
(9.06883e-32 -9.13451e-34 0)
(9.66658e-33 1.41298e-32 0)
(2.81849e-32 1.3423e-32 0)
(4.45257e-32 1.18342e-32 0)
(5.78822e-32 9.69412e-33 0)
(6.80847e-32 7.49256e-33 0)
(7.5512e-32 5.57262e-33 0)
(8.07684e-32 4.04646e-33 0)
(8.44321e-32 2.88858e-33 0)
(8.69599e-32 2.02546e-33 0)
(8.86832e-32 1.38132e-33 0)
(8.98326e-32 8.94128e-34 0)
(9.05666e-32 5.17934e-34 0)
(9.09944e-32 2.20382e-34 0)
(9.11921e-32 -2.06803e-35 0)
(9.12143e-32 -2.20223e-34 0)
(9.11008e-32 -3.88344e-34 0)
(9.0882e-32 -5.31909e-34 0)
(9.05812e-32 -6.55666e-34 0)
(9.57457e-33 7.82293e-33 0)
(2.7883e-32 7.4181e-33 0)
(4.40226e-32 6.53678e-33 0)
(5.72742e-32 5.35611e-33 0)
(6.74825e-32 4.13837e-33 0)
(7.49855e-32 3.06995e-33 0)
(8.03397e-32 2.21562e-33 0)
(8.40949e-32 1.56448e-33 0)
(8.66974e-32 1.07757e-33 0)
(8.84777e-32 7.13526e-34 0)
(8.96692e-32 4.37964e-34 0)
(9.04338e-32 2.25185e-34 0)
(9.08838e-32 5.69867e-35 0)
(9.10979e-32 -7.91478e-35 0)
(9.11325e-32 -1.91709e-34 0)
(9.10287e-32 -2.8644e-34 0)
(9.08176e-32 -3.67252e-34 0)
(9.05232e-32 -4.36856e-34 0)
(9.53684e-33 2.37053e-33 0)
(2.77608e-32 2.2409e-33 0)
(4.38205e-32 1.96224e-33 0)
(5.703e-32 1.58978e-33 0)
(6.72401e-32 1.20521e-33 0)
(7.47728e-32 8.66955e-34 0)
(8.0166e-32 5.95805e-34 0)
(8.39578e-32 3.8874e-34 0)
(8.65906e-32 2.33698e-34 0)
(8.8394e-32 1.17685e-34 0)
(8.96026e-32 2.98387e-35 0)
(9.03796e-32 -3.79939e-35 0)
(9.08388e-32 -9.16011e-35 0)
(9.10596e-32 -1.34972e-34 0)
(9.10992e-32 -1.70816e-34 0)
(9.09993e-32 -2.00968e-34 0)
(9.07914e-32 -2.26678e-34 0)
(9.04997e-32 -2.48815e-34 0)
(6.14946e-34 -1.47606e-33 -1.90704e-59)
(1.84969e-33 -1.47389e-33 1.90278e-59)
(3.09173e-33 -1.4701e-33 0)
(4.33957e-33 -1.46466e-33 0)
(5.59161e-33 -1.45757e-33 0)
(6.84627e-33 -1.44884e-33 -1.8645e-59)
(8.10188e-33 -1.43848e-33 0)
(9.35681e-33 -1.42652e-33 0)
(1.06094e-32 -1.41299e-33 0)
(1.18579e-32 -1.39795e-33 0)
(1.31008e-32 -1.38144e-33 1.77001e-59)
(1.43363e-32 -1.36355e-33 0)
(1.55629e-32 -1.34433e-33 0)
(1.67791e-32 -1.32388e-33 0)
(1.79834e-32 -1.30228e-33 0)
(1.91742e-32 -1.27962e-33 1.63123e-59)
(2.03503e-32 -1.256e-33 0)
(2.15103e-32 -1.23153e-33 0)
(2.2653e-32 -1.20631e-33 0)
(2.37774e-32 -1.18043e-33 0)
(2.48823e-32 -1.15401e-33 0)
(2.59669e-32 -1.12714e-33 0)
(2.70302e-32 -1.09993e-33 0)
(2.80716e-32 -1.07248e-33 1.35301e-59)
(2.90903e-32 -1.04487e-33 -1.31612e-59)
(3.00859e-32 -1.0172e-33 1.27918e-59)
(3.10578e-32 -9.8955e-34 1.2423e-59)
(3.20056e-32 -9.62004e-34 0)
(3.29291e-32 -9.34635e-34 0)
(3.3828e-32 -9.07512e-34 -1.133e-59)
(3.47021e-32 -8.80697e-34 -1.09731e-59)
(3.55516e-32 -8.54247e-34 0)
(3.63762e-32 -8.28214e-34 0)
(3.71761e-32 -8.02644e-34 -9.93507e-60)
(3.79515e-32 -7.77576e-34 0)
(3.87025e-32 -7.53045e-34 0)
(3.94294e-32 -7.29081e-34 8.9577e-60)
(4.01324e-32 -7.05709e-34 0)
(4.08118e-32 -6.82949e-34 8.34513e-60)
(4.14681e-32 -6.60817e-34 1.61027e-59)
(4.21015e-32 -6.39325e-34 0)
(4.27126e-32 -6.1848e-34 0)
(4.33017e-32 -5.9829e-34 0)
(4.38694e-32 -5.78754e-34 0)
(4.44161e-32 -5.59873e-34 0)
(4.49422e-32 -5.41643e-34 1.29401e-59)
(4.54484e-32 -5.2406e-34 1.24736e-59)
(4.59351e-32 -5.07115e-34 1.20241e-59)
(4.64028e-32 -4.90801e-34 0)
(4.68521e-32 -4.75106e-34 -1.11751e-59)
(4.72835e-32 -4.60019e-34 0)
(4.76974e-32 -4.45527e-34 1.03905e-59)
(4.80945e-32 -4.31617e-34 1.00216e-59)
(4.84752e-32 -4.18275e-34 0)
(4.88401e-32 -4.05485e-34 0)
(4.91897e-32 -3.93234e-34 0)
(4.95245e-32 -3.81504e-34 8.69241e-60)
(4.98449e-32 -3.7028e-34 0)
(5.01514e-32 -3.59547e-34 0)
(5.04446e-32 -3.49288e-34 0)
(5.07249e-32 -3.39488e-34 0)
(5.09928e-32 -3.30131e-34 0)
(5.12487e-32 -3.21201e-34 0)
(5.1493e-32 -3.12683e-34 0)
(5.17262e-32 -3.04562e-34 0)
(5.19487e-32 -2.96823e-34 -6.44621e-60)
(5.21609e-32 -2.8945e-34 0)
(5.23632e-32 -2.82431e-34 0)
(5.25559e-32 -2.7575e-34 5.88717e-60)
(5.27396e-32 -2.69394e-34 5.71852e-60)
(5.29144e-32 -2.63351e-34 0)
(5.30808e-32 -2.57607e-34 -5.40578e-60)
(5.32392e-32 -2.52149e-34 5.26096e-60)
(5.33897e-32 -2.46966e-34 0)
(5.35329e-32 -2.42046e-34 -4.99286e-60)
(5.36689e-32 -2.37377e-34 0)
(5.37981e-32 -2.32949e-34 0)
(5.39207e-32 -2.28751e-34 4.64005e-60)
(5.40371e-32 -2.24772e-34 0)
(5.41475e-32 -2.21003e-34 -4.43442e-60)
(5.42522e-32 -2.17435e-34 0)
(5.43514e-32 -2.14057e-34 4.25004e-60)
(5.44454e-32 -2.10862e-34 4.16523e-60)
(5.45344e-32 -2.0784e-34 4.08502e-60)
(5.46187e-32 -2.04984e-34 8.01842e-60)
(5.46984e-32 -2.02286e-34 -7.87513e-60)
(5.47738e-32 -1.99737e-34 0)
(5.4845e-32 -1.97332e-34 0)
(5.49123e-32 -1.95062e-34 0)
(5.49759e-32 -1.92922e-34 -7.37795e-60)
(5.50359e-32 -1.90904e-34 -7.2708e-60)
(5.50925e-32 -1.89003e-34 7.16985e-60)
(5.51458e-32 -1.87213e-34 0)
(5.51961e-32 -1.85528e-34 -6.9853e-60)
(5.52435e-32 -1.83943e-34 -6.90108e-60)
(5.52881e-32 -1.82452e-34 -6.8219e-60)
(5.53301e-32 -1.81051e-34 0)
(5.53696e-32 -1.79734e-34 0)
(5.54067e-32 -1.78498e-34 0)
(5.54416e-32 -1.77339e-34 -6.55031e-60)
(5.54743e-32 -1.76251e-34 0)
(5.55051e-32 -1.75231e-34 0)
(5.55339e-32 -1.74275e-34 6.38761e-60)
(5.5561e-32 -1.73381e-34 0)
(5.55863e-32 -1.72543e-34 0)
(5.561e-32 -1.7176e-34 6.25393e-60)
(5.56322e-32 -1.71027e-34 0)
(5.5653e-32 -1.70343e-34 0)
(5.56725e-32 -1.69703e-34 -6.14469e-60)
(5.56906e-32 -1.69107e-34 -6.11299e-60)
(5.57076e-32 -1.6855e-34 0)
(5.57234e-32 -1.68032e-34 6.05583e-60)
(5.57382e-32 -1.67548e-34 0)
(5.57519e-32 -1.67098e-34 -6.00624e-60)
(5.57647e-32 -1.66679e-34 0)
(5.57767e-32 -1.6629e-34 -5.96326e-60)
(5.57878e-32 -1.65928e-34 -5.94405e-60)
(5.57981e-32 -1.65591e-34 0)
(5.58077e-32 -1.65279e-34 0)
(5.58167e-32 -1.64989e-34 0)
(5.58249e-32 -1.64721e-34 0)
(5.58326e-32 -1.64472e-34 0)
(5.58398e-32 -1.64241e-34 0)
(5.58464e-32 -1.64028e-34 0)
(5.58525e-32 -1.63831e-34 -5.83256e-60)
(5.58581e-32 -1.63648e-34 5.82289e-60)
(5.58633e-32 -1.6348e-34 0)
(5.58682e-32 -1.63324e-34 0)
(5.58726e-32 -1.63181e-34 0)
(5.58767e-32 -1.63049e-34 0)
(5.58805e-32 -1.62927e-34 1.1569e-59)
(5.5884e-32 -1.62814e-34 0)
(5.58872e-32 -1.62711e-34 -1.15461e-59)
(5.58902e-32 -1.62615e-34 1.15359e-59)
(5.58929e-32 -1.62528e-34 0)
(5.58954e-32 -1.62447e-34 0)
(5.58977e-32 -1.62373e-34 0)
(5.58998e-32 -1.62304e-34 -1.15028e-59)
(5.59017e-32 -1.62241e-34 -1.14961e-59)
(5.59034e-32 -1.62183e-34 0)
(5.5905e-32 -1.62129e-34 -1.14842e-59)
(5.59065e-32 -1.62078e-34 -1.14789e-59)
(5.59077e-32 -1.62031e-34 1.14739e-59)
(5.59089e-32 -1.61987e-34 0)
(5.59099e-32 -1.61945e-34 0)
(5.59109e-32 -1.61905e-34 1.14606e-59)
(5.59116e-32 -1.61867e-34 0)
(5.59123e-32 -1.61828e-34 0)
(5.59129e-32 -1.61789e-34 0)
(5.59133e-32 -1.6175e-34 0)
(5.59136e-32 -1.61707e-34 -1.14398e-59)
(5.59137e-32 -1.61662e-34 -1.14351e-59)
(5.59137e-32 -1.61612e-34 0)
(5.59135e-32 -1.61554e-34 -1.1424e-59)
(5.59131e-32 -1.61488e-34 0)
(5.59124e-32 -1.6141e-34 0)
(5.59114e-32 -1.61317e-34 -1.13997e-59)
(5.591e-32 -1.61204e-34 0)
(5.59081e-32 -1.61065e-34 -1.13739e-59)
(5.59057e-32 -1.60893e-34 0)
(5.59025e-32 -1.60679e-34 0)
(5.58983e-32 -1.60411e-34 -1.13072e-59)
(5.5893e-32 -1.60073e-34 0)
(5.58862e-32 -1.59646e-34 -1.12292e-59)
(5.58774e-32 -1.59101e-34 0)
(5.58661e-32 -1.58406e-34 0)
(5.58516e-32 -1.57511e-34 0)
(5.58329e-32 -1.56354e-34 1.08939e-59)
(5.58086e-32 -1.54847e-34 0)
(5.5777e-32 -1.52869e-34 -1.05389e-59)
(5.57357e-32 -1.50244e-34 0)
(5.56813e-32 -1.46716e-34 0)
(5.56089e-32 -1.41891e-34 0)
(5.55114e-32 -1.3514e-34 0)
(5.53778e-32 -1.25388e-34 0)
(5.51903e-32 -1.10642e-34 0)
(5.4917e-32 -8.67351e-35 0)
(5.44935e-32 -4.33342e-35 -1.33111e-60)
(5.3757e-32 5.2689e-35 0)
(5.21249e-32 3.53778e-34 0)
(6.18346e-34 -4.11217e-33 5.31265e-59)
(1.85989e-33 -4.10561e-33 -5.29978e-59)
(3.10872e-33 -4.09413e-33 0)
(4.36327e-33 -4.07767e-33 1.05199e-58)
(5.62192e-33 -4.05622e-33 0)
(6.88304e-33 -4.0298e-33 -5.20027e-59)
(8.14492e-33 -3.99845e-33 -1.02973e-58)
(9.40588e-33 -3.96227e-33 -1.01978e-58)
(1.06642e-32 -3.92136e-33 0)
(1.19182e-32 -3.87587e-33 -9.96261e-59)
(1.31662e-32 -3.82598e-33 4.92943e-59)
(1.44065e-32 -3.7719e-33 0)
(1.56376e-32 -3.71384e-33 0)
(1.68577e-32 -3.65205e-33 0)
(1.80655e-32 -3.58682e-33 0)
(1.92595e-32 -3.51842e-33 4.52472e-59)
(2.04383e-32 -3.44716e-33 0)
(2.16007e-32 -3.37333e-33 8.61784e-59)
(2.27453e-32 -3.29725e-33 0)
(2.38711e-32 -3.21924e-33 0)
(2.49771e-32 -3.13961e-33 -7.99774e-59)
(2.60623e-32 -3.05866e-33 0)
(2.7126e-32 -2.97671e-33 7.56651e-59)
(2.81673e-32 -2.89404e-33 3.70721e-59)
(2.91857e-32 -2.81094e-33 -3.5986e-59)
(3.01805e-32 -2.72768e-33 3.48981e-59)
(3.11515e-32 -2.64451e-33 3.38117e-59)
(3.20981e-32 -2.56167e-33 0)
(3.30201e-32 -2.47939e-33 0)
(3.39174e-32 -2.39787e-33 -3.05913e-59)
(3.47897e-32 -2.31729e-33 -8.77973e-59)
(3.56372e-32 -2.23783e-33 0)
(3.64597e-32 -2.15965e-33 0)
(3.72574e-32 -2.08287e-33 -2.64806e-59)
(3.80305e-32 -2.00761e-33 0)
(3.87791e-32 -1.93398e-33 0)
(3.95035e-32 -1.86207e-33 2.36004e-59)
(4.0204e-32 -1.79195e-33 0)
(4.0881e-32 -1.72367e-33 6.44207e-59)
(4.15347e-32 -1.65729e-33 4.18592e-59)
(4.21657e-32 -1.59283e-33 0)
(4.27743e-32 -1.53033e-33 0)
(4.33609e-32 -1.46979e-33 -7.18914e-59)
(4.39262e-32 -1.41123e-33 -6.88102e-59)
(4.44705e-32 -1.35463e-33 -6.58329e-59)
(4.49943e-32 -1.29999e-33 9.55002e-59)
(4.54982e-32 -1.24729e-33 3.11675e-59)
(4.59826e-32 -1.19651e-33 -2.76721e-59)
(4.64482e-32 -1.14762e-33 5.49442e-59)
(4.68954e-32 -1.1006e-33 -2.73425e-59)
(4.73247e-32 -1.05539e-33 0)
(4.77367e-32 -1.01197e-33 2.50319e-59)
(4.81319e-32 -9.70301e-34 6.95631e-59)
(4.85108e-32 -9.3033e-34 0)
(4.88739e-32 -8.92017e-34 0)
(4.92218e-32 -8.55315e-34 0)
(4.95549e-32 -8.20179e-34 2.00312e-59)
(4.98737e-32 -7.86559e-34 0)
(5.01788e-32 -7.5441e-34 3.42633e-59)
(5.04706e-32 -7.23682e-34 0)
(5.07495e-32 -6.94329e-34 3.11033e-59)
(5.1016e-32 -6.66303e-34 0)
(5.12707e-32 -6.39556e-34 -2.82224e-59)
(5.15138e-32 -6.14044e-34 0)
(5.17458e-32 -5.89719e-34 2.5601e-59)
(5.19672e-32 -5.66539e-34 -3.77995e-59)
(5.21784e-32 -5.44457e-34 0)
(5.23797e-32 -5.23433e-34 -2.21143e-59)
(5.25715e-32 -5.03424e-34 1.1772e-59)
(5.27543e-32 -4.84389e-34 1.12756e-59)
(5.29283e-32 -4.66288e-34 0)
(5.30939e-32 -4.49084e-34 -2.85581e-59)
(5.32515e-32 -4.32738e-34 9.92878e-60)
(5.34013e-32 -4.17214e-34 0)
(5.35438e-32 -4.02478e-34 -9.13967e-60)
(5.36791e-32 -3.88495e-34 -1.50154e-59)
(5.38077e-32 -3.75232e-34 0)
(5.39298e-32 -3.62657e-34 8.10123e-60)
(5.40456e-32 -3.5074e-34 0)
(5.41555e-32 -3.39452e-34 4.93887e-60)
(5.42597e-32 -3.28763e-34 0)
(5.43585e-32 -3.18647e-34 -4.38671e-60)
(5.4452e-32 -3.09076e-34 6.70384e-60)
(5.45406e-32 -3.00025e-34 1.6828e-59)
(5.46245e-32 -2.9147e-34 3.23095e-59)
(5.47038e-32 -2.83388e-34 -3.10371e-59)
(5.47789e-32 -2.75755e-34 0)
(5.48498e-32 -2.68549e-34 0)
(5.49168e-32 -2.61751e-34 0)
(5.498e-32 -2.5534e-34 5.41248e-60)
(5.50398e-32 -2.49296e-34 -1.02894e-59)
(5.50961e-32 -2.43602e-34 9.99239e-60)
(5.51492e-32 -2.3824e-34 0)
(5.51993e-32 -2.33192e-34 -2.31351e-59)
(5.52464e-32 -2.28444e-34 -9.20158e-60)
(5.52909e-32 -2.23978e-34 -8.96862e-60)
(5.53326e-32 -2.19781e-34 0)
(5.5372e-32 -2.15838e-34 0)
(5.54089e-32 -2.12136e-34 0)
(5.54436e-32 -2.08662e-34 -8.16957e-60)
(5.54762e-32 -2.05403e-34 0)
(5.55069e-32 -2.02348e-34 -1.04385e-59)
(5.55356e-32 -1.99485e-34 -2.4462e-60)
(5.55625e-32 -1.96805e-34 9.85478e-60)
(5.55877e-32 -1.94296e-34 0)
(5.56113e-32 -1.91949e-34 1.66411e-59)
(5.56335e-32 -1.89755e-34 0)
(5.56542e-32 -1.87704e-34 8.8965e-60)
(5.56735e-32 -1.8579e-34 -1.56712e-59)
(5.56916e-32 -1.84002e-34 -1.53897e-59)
(5.57085e-32 -1.82335e-34 0)
(5.57242e-32 -1.80781e-34 -1.45251e-60)
(5.57389e-32 -1.79333e-34 8.01499e-60)
(5.57526e-32 -1.77985e-34 -6.56904e-60)
(5.57654e-32 -1.7673e-34 0)
(5.57773e-32 -1.75563e-34 -6.44266e-60)
(5.57884e-32 -1.74478e-34 1.11753e-60)
(5.57986e-32 -1.73471e-34 0)
(5.58082e-32 -1.72535e-34 7.29899e-60)
(5.58171e-32 -1.71667e-34 7.20755e-60)
(5.58253e-32 -1.70863e-34 7.1228e-60)
(5.5833e-32 -1.70117e-34 0)
(5.58401e-32 -1.69427e-34 0)
(5.58467e-32 -1.68788e-34 0)
(5.58527e-32 -1.68196e-34 -1.29002e-59)
(5.58584e-32 -1.6765e-34 6.02977e-60)
(5.58636e-32 -1.67146e-34 0)
(5.58684e-32 -1.6668e-34 -6.68216e-60)
(5.58728e-32 -1.6625e-34 -6.63685e-60)
(5.58769e-32 -1.65853e-34 0)
(5.58807e-32 -1.65488e-34 1.18338e-59)
(5.58842e-32 -1.65151e-34 -1.30423e-59)
(5.58874e-32 -1.64841e-34 -1.17663e-59)
(5.58903e-32 -1.64556e-34 2.46534e-59)
(5.5893e-32 -1.64293e-34 0)
(5.58955e-32 -1.64051e-34 0)
(5.58978e-32 -1.63829e-34 0)
(5.58999e-32 -1.63623e-34 -1.16392e-59)
(5.59018e-32 -1.63434e-34 -2.43e-59)
(5.59035e-32 -1.63259e-34 -1.26437e-59)
(5.59051e-32 -1.63097e-34 -1.15843e-59)
(5.59065e-32 -1.62947e-34 -2.41467e-59)
(5.59078e-32 -1.62806e-34 1.1554e-59)
(5.5909e-32 -1.62674e-34 0)
(5.591e-32 -1.62549e-34 0)
(5.59109e-32 -1.62429e-34 2.3984e-59)
(5.59117e-32 -1.62313e-34 0)
(5.59124e-32 -1.62198e-34 0)
(5.59129e-32 -1.62082e-34 -1.23967e-59)
(5.59133e-32 -1.61963e-34 0)
(5.59136e-32 -1.61837e-34 -2.3799e-59)
(5.59138e-32 -1.61701e-34 -1.14391e-59)
(5.59138e-32 -1.6155e-34 0)
(5.59136e-32 -1.6138e-34 -2.36571e-59)
(5.59131e-32 -1.61182e-34 0)
(5.59125e-32 -1.60949e-34 0)
(5.59115e-32 -1.6067e-34 -1.13327e-59)
(5.59101e-32 -1.60331e-34 -1.20358e-59)
(5.59083e-32 -1.59917e-34 -1.12552e-59)
(5.59059e-32 -1.59404e-34 0)
(5.59027e-32 -1.58765e-34 0)
(5.58987e-32 -1.57965e-34 -2.26051e-59)
(5.58934e-32 -1.56957e-34 0)
(5.58867e-32 -1.55681e-34 -2.19022e-59)
(5.58781e-32 -1.54057e-34 0)
(5.5867e-32 -1.51981e-34 0)
(5.58527e-32 -1.49312e-34 0)
(5.58342e-32 -1.45862e-34 9.80891e-60)
(5.58103e-32 -1.4137e-34 0)
(5.57793e-32 -1.35474e-34 -8.74003e-60)
(5.57387e-32 -1.27657e-34 0)
(5.56853e-32 -1.17157e-34 0)
(5.56144e-32 -1.02819e-34 -2.54127e-61)
(5.55192e-32 -8.27945e-35 -3.85079e-60)
(5.53893e-32 -5.39601e-35 0)
(5.52082e-32 -1.05886e-35 0)
(5.49479e-32 5.90068e-35 0)
(5.45569e-32 1.82484e-34 6.86498e-59)
(5.39354e-32 4.40054e-34 0)
(5.2955e-32 1.13392e-33 -5.08984e-58)
(6.2524e-34 -6.77029e-33 3.49941e-58)
(1.88058e-33 -6.75917e-33 -4.47622e-62)
(3.14315e-33 -6.7397e-33 0)
(4.4113e-33 -6.71179e-33 1.04508e-61)
(5.68335e-33 -6.67542e-33 0)
(6.95753e-33 -6.63062e-33 0)
(8.2321e-33 -6.57749e-33 -3.39076e-58)
(9.50527e-33 -6.51617e-33 -1.6799e-58)
(1.07752e-32 -6.44688e-33 1.65884e-58)
(1.20403e-32 -6.36985e-33 -1.64088e-58)
(1.32986e-32 -6.28542e-33 0)
(1.45485e-32 -6.19392e-33 0)
(1.57884e-32 -6.09576e-33 -1.56453e-58)
(1.70166e-32 -5.99137e-33 -3.07335e-58)
(1.82315e-32 -5.88121e-33 3.01468e-58)
(1.94318e-32 -5.76577e-33 0)
(2.0616e-32 -5.64558e-33 2.88948e-58)
(2.17829e-32 -5.52114e-33 1.41689e-58)
(2.29312e-32 -5.393e-33 0)
(2.40599e-32 -5.26169e-33 2.68614e-58)
(2.51679e-32 -5.12773e-33 -1.3136e-58)
(2.62544e-32 -4.99167e-33 -2.54343e-58)
(2.73186e-32 -4.854e-33 1.24183e-58)
(2.83597e-32 -4.71521e-33 0)
(2.93773e-32 -4.57579e-33 2.32401e-58)
(3.03707e-32 -4.43619e-33 2.25043e-58)
(3.13396e-32 -4.29683e-33 0)
(3.22837e-32 -4.1581e-33 2.10395e-58)
(3.32028e-32 -4.02038e-33 0)
(3.40966e-32 -3.88401e-33 1.95968e-58)
(3.49653e-32 -3.74929e-33 -9.52657e-59)
(3.58087e-32 -3.6165e-33 0)
(3.66269e-32 -3.48591e-33 0)
(3.74201e-32 -3.35771e-33 0)
(3.81885e-32 -3.23212e-33 0)
(3.89323e-32 -3.10929e-33 0)
(3.96518e-32 -2.98937e-33 0)
(4.03473e-32 -2.87247e-33 1.42787e-58)
(4.10193e-32 -2.75869e-33 -6.74363e-59)
(4.1668e-32 -2.6481e-33 0)
(4.22939e-32 -2.54075e-33 0)
(4.28975e-32 -2.43668e-33 0)
(4.34792e-32 -2.33591e-33 -2.31261e-58)
(4.40396e-32 -2.23844e-33 -1.11565e-58)
(4.45791e-32 -2.14426e-33 -2.1052e-60)
(4.50983e-32 -2.05336e-33 2.12969e-60)
(4.55976e-32 -1.96571e-33 -9.51653e-59)
(4.60776e-32 -1.88126e-33 -9.29073e-59)
(4.65388e-32 -1.79997e-33 1.75124e-58)
(4.69818e-32 -1.72178e-33 8.23582e-59)
(4.7407e-32 -1.64663e-33 0)
(4.78151e-32 -1.57446e-33 7.46239e-59)
(4.82064e-32 -1.50519e-33 1.44252e-58)
(4.85817e-32 -1.43876e-33 0)
(4.89413e-32 -1.37509e-33 0)
(4.92857e-32 -1.3141e-33 -6.09558e-59)
(4.96156e-32 -1.25572e-33 0)
(4.99313e-32 -1.19986e-33 0)
(5.02334e-32 -1.14644e-33 1.58833e-58)
(5.05223e-32 -1.09539e-33 9.8947e-59)
(5.07985e-32 -1.04663e-33 4.93119e-59)
(5.10624e-32 -1.00006e-33 0)