/*--------------------------------*- C++ -*----------------------------------*\
  =========                 |
  \\      /  F ield         | OpenFOAM: The Open Source CFD Toolbox
   \\    /   O peration     | Website:  https://openfoam.org
    \\  /    A nd           | Version:  10
     \\/     M anipulation  |
\*---------------------------------------------------------------------------*/
FoamFile
{
    format      ascii;
    class       surfaceScalarField;
    location    "0.16";
    object      phi;
}
// * * * * * * * * * * * * * * * * * * * * * * * * * * * * * * * * * * * * * //

dimensions      [0 3 -1 0 0 0 0];

internalField   nonuniform List<scalar> 
24170
(
2.12667e-09
-2.12667e-09
4.70762e-09
-2.58095e-09
1.12916e-08
-6.58396e-09
3.46697e-08
-2.33782e-08
2.00151e-08
1.46546e-08
1.54005e-08
4.61456e-09
1.29174e-08
2.4832e-09
1.13611e-08
1.55627e-09
1.0342e-08
1.01908e-09
9.67918e-09
6.6282e-10
9.27345e-09
4.05728e-10
9.06889e-09
2.0456e-10
9.04014e-09
2.87483e-11
9.19205e-09
-1.51912e-10
9.57476e-09
-3.8271e-10
1.0343e-08
-7.68247e-10
1.2015e-08
-1.67197e-09
-5.01723e-09
1.70322e-08
2.36938e-09
-4.49604e-09
4.96743e-09
-5.17901e-09
8.11281e-09
-9.72934e-09
1.32282e-08
-2.84935e-08
2.08209e-08
7.06192e-09
1.63657e-08
9.06973e-09
1.37798e-08
5.06911e-09
1.21363e-08
3.19985e-09
1.10553e-08
2.10006e-09
1.03509e-08
1.36721e-09
9.91902e-09
8.37591e-10
9.70011e-09
4.2347e-10
9.66612e-09
6.27448e-11
9.81906e-09
-3.04857e-10
1.02019e-08
-7.65519e-10
1.09333e-08
-1.49971e-09
1.2275e-08
-3.01367e-09
-6.9765e-09
1.42343e-08
2.63445e-09
-7.13049e-09
5.31482e-09
-7.85938e-09
7.71298e-09
-1.21275e-08
2.97528e-09
-2.37558e-08
2.13071e-08
-1.12699e-08
1.72395e-08
1.31373e-08
1.46193e-08
7.68931e-09
1.29127e-08
4.90647e-09
1.17802e-08
3.23255e-09
1.10394e-08
2.10804e-09
1.05836e-08
1.29335e-09
1.035e-08
6.57141e-10
1.03065e-08
1.06236e-10
1.04487e-08
-4.47132e-10
1.08024e-08
-1.11914e-09
1.14239e-08
-2.12126e-09
1.23281e-08
-3.91784e-09
-7.4805e-09
1.28321e-08
2.84972e-09
-9.98022e-09
5.54554e-09
-1.05552e-08
7.50523e-09
-1.40872e-08
5.27039e-09
-2.1521e-08
1.80187e-08
-2.40182e-08
1.8009e-08
1.3147e-08
1.54135e-08
1.02848e-08
1.36743e-08
6.64569e-09
1.2505e-08
4.40183e-09
1.17356e-08
2.87744e-09
1.12598e-08
1.76914e-09
1.10115e-08
9.05398e-10
1.09539e-08
1.6387e-10
1.10729e-08
-5.66108e-10
1.13705e-08
-1.41681e-09
1.18399e-08
-2.59067e-09
1.23466e-08
-4.42451e-09
-7.32675e-09
1.21929e-08
3.05646e-09
-1.30367e-08
5.75682e-09
-1.32556e-08
7.4643e-09
-1.57947e-08
6.59888e-09
-2.06556e-08
3.625e-09
-2.10443e-08
1.89398e-08
-2.16778e-09
1.61376e-08
1.3087e-08
1.44016e-08
8.38169e-09
1.32146e-08
5.58886e-09
1.24277e-08
3.66432e-09
1.19378e-08
2.259e-09
1.16763e-08
1.16692e-09
1.16004e-08
2.39796e-10
1.16846e-08
-6.50354e-10
1.1907e-08
-1.63913e-09
1.2212e-08
-2.89569e-09
1.24089e-08
-4.62148e-09
-6.89697e-09
1.19792e-08
3.27802e-09
-1.63147e-08
5.99842e-09
-1.5976e-08
7.54628e-09
-1.73425e-08
6.87241e-09
-1.99817e-08
4.30855e-09
-1.84805e-08
1.79334e-08
-1.57927e-08
1.67271e-08
1.42934e-08
1.50726e-08
1.00361e-08
1.38907e-08
6.77078e-09
1.3101e-08
4.45401e-09
1.26059e-08
2.75415e-09
1.23344e-08
1.43844e-09
1.22377e-08
3.36482e-10
1.22791e-08
-6.9176e-10
1.24164e-08
-1.77642e-09
1.25668e-08
-3.04612e-09
1.25435e-08
-4.59813e-09
-6.36696e-09
1.20134e-08
3.54026e-09
-1.98549e-08
6.31575e-09
-1.87515e-08
7.78801e-09
-1.88148e-08
7.44248e-09
-1.96362e-08
7.12547e-09
-1.81635e-08
9.76042e-09
-1.84276e-08
1.73471e-08
6.70667e-09
1.5669e-08
1.17142e-08
1.45115e-08
7.92833e-09
1.37377e-08
5.22773e-09
1.32497e-08
3.24218e-09
1.29744e-08
1.71377e-09
1.28575e-08
4.53382e-10
1.28529e-08
-6.87219e-10
1.29054e-08
-1.82894e-09
1.29241e-08
-3.06482e-09
1.27544e-08
-4.42839e-09
-5.81475e-09
1.22022e-08
3.87814e-09
-2.37331e-08
6.75978e-09
-2.16331e-08
8.21402e-09
-2.0269e-08
8.08153e-09
-1.95037e-08
7.43692e-09
-1.75188e-08
3.73921e-09
-1.47299e-08
1.82986e-08
-7.85274e-09
1.61477e-08
1.38651e-08
1.50495e-08
9.02657e-09
1.43166e-08
5.96064e-09
1.38529e-08
3.7059e-09
1.35841e-08
1.98259e-09
1.34518e-08
5.8567e-10
1.34042e-08
-6.39615e-10
1.33808e-08
-1.80553e-09
1.32963e-08
-2.98036e-09
1.30358e-08
-4.16794e-09
-5.27396e-09
1.24951e-08
4.34249e-09
-2.80756e-08
7.3956e-09
-2.46862e-08
8.86578e-09
-2.17392e-08
8.87511e-09
-1.9513e-08
8.24169e-09
-1.68854e-08
6.76367e-09
-1.32519e-08
1.58148e-08
-1.69038e-08
1.63479e-08
1.3332e-08
1.54733e-08
9.90117e-09
1.48133e-08
6.62063e-09
1.43973e-08
4.12195e-09
1.41507e-08
2.22913e-09
1.40132e-08
7.23203e-10
1.39316e-08
-5.58062e-10
1.38477e-08
-1.72155e-09
1.36896e-08
-2.82228e-09
1.33787e-08
-3.85703e-09
-4.75904e-09
1.28637e-08
5.01136e-09
-3.30869e-08
8.31327e-09
-2.79881e-08
9.80389e-09
-2.32298e-08
9.88291e-09
-1.9592e-08
9.39605e-09
-1.63986e-08
9.74e-09
-1.35958e-08
7.82166e-09
-1.49855e-08
1.67486e-08
4.40505e-09
1.57798e-08
1.08699e-08
1.5201e-08
7.19951e-09
1.48637e-08
4.45925e-09
1.4662e-08
2.43074e-09
1.45353e-08
8.49932e-10
1.44347e-08
-4.57463e-10
1.43099e-08
-1.59673e-09
1.41062e-08
-2.61852e-09
1.37737e-08
-3.52463e-09
-4.27677e-09
1.32915e-08
6.0118e-09
-3.90987e-08
9.64478e-09
-3.16211e-08
1.1114e-08
-2.46991e-08
1.11429e-08
-1.96209e-08
1.05461e-08
-1.58017e-08
9.77943e-09
-1.28292e-08
5.36842e-09
-1.05745e-08
1.74556e-08
-7.68209e-09
1.58764e-08
1.24491e-08
1.54401e-08
7.63581e-09
1.52332e-08
4.66618e-09
1.51078e-08
2.55616e-09
1.50137e-08
9.44025e-10
1.49136e-08
-3.57425e-10
1.47701e-08
-1.4532e-09
1.4546e-08
-2.3944e-09
1.42134e-08
-3.1921e-09
-3.83124e-09
1.37679e-08
6.29188e-09
-4.53906e-08
9.67197e-09
-3.50012e-08
1.08038e-08
-2.58309e-08
1.06609e-08
-1.9478e-08
9.98663e-09
-1.51275e-08
9.10722e-09
-1.19498e-08
7.37839e-09
-8.84566e-09
1.29556e-08
-1.32593e-08
1.30691e-08
1.23356e-08
1.30811e-08
7.6238e-09
1.30724e-08
4.67495e-09
1.30546e-08
2.57392e-09
1.30202e-08
9.78474e-10
1.29534e-08
-2.9067e-10
1.28352e-08
-1.335e-09
1.26473e-08
-2.20649e-09
1.23788e-08
-2.92358e-09
-3.48557e-09
1.20331e-08
9.24897e-09
-5.46396e-08
1.34471e-08
-3.91993e-08
1.44269e-08
-2.68108e-08
1.38983e-08
-1.89493e-08
1.28381e-08
-1.40672e-08
1.17587e-08
-1.08704e-08
1.14895e-08
-8.57648e-09
1.12509e-08
-1.30208e-08
1.43856e-08
9.20089e-09
1.49044e-08
7.10499e-09
1.51172e-08
4.46212e-09
1.52216e-08
2.46955e-09
1.52529e-08
9.47178e-10
1.5214e-08
-2.51752e-10
1.50986e-08
-1.21961e-09
1.48998e-08
-2.00773e-09
1.46167e-08
-2.64046e-09
-3.12771e-09
1.42588e-08
1.48986e-08
-6.95381e-08
1.97992e-08
-4.41e-08
1.99649e-08
-2.69765e-08
1.8508e-08
-1.74924e-08
1.66921e-08
-1.22513e-08
1.50342e-08
-9.2126e-09
1.39829e-08
-7.52519e-09
8.64442e-09
-7.68225e-09
1.60625e-08
1.78278e-09
1.67878e-08
6.37974e-09
1.72758e-08
3.97407e-09
1.75743e-08
2.17108e-09
1.77254e-08
7.96041e-10
1.77528e-08
-2.79136e-10
1.76689e-08
-1.13569e-09
1.74823e-08
-1.82117e-09
1.72039e-08
-2.36201e-09
-2.77366e-09
1.68498e-08
2.74458e-08
-9.69839e-08
3.13501e-08
-4.80043e-08
2.87541e-08
-2.43804e-08
2.51799e-08
-1.39182e-08
2.19079e-08
-8.97931e-09
1.90951e-08
-6.39975e-09
1.64302e-08
-4.86033e-09
1.22199e-08
-3.47193e-09
1.7332e-08
-3.32936e-09
1.85933e-08
5.11841e-09
1.95077e-08
3.05973e-09
2.01041e-08
1.57463e-09
2.04484e-08
4.51785e-10
2.0595e-08
-4.25768e-10
2.05828e-08
-1.12352e-09
2.04406e-08
-1.67891e-09
2.01928e-08
-2.11421e-09
-2.44425e-09
1.98634e-08
6.14827e-08
-1.58467e-07
5.36841e-08
-4.02057e-08
4.2723e-08
-1.34193e-08
3.4664e-08
-5.85915e-09
2.88968e-08
-3.21213e-09
2.457e-08
-2.07296e-09
2.1146e-08
-1.43628e-09
1.85463e-08
-8.72324e-10
1.78979e-08
-2.6809e-09
2.02649e-08
2.75139e-09
2.18688e-08
1.45588e-09
2.28944e-08
5.48996e-10
2.35079e-08
-1.61724e-10
2.38253e-08
-7.43209e-10
2.39242e-08
-1.22239e-09
2.38581e-08
-1.61279e-09
2.3667e-08
-1.92313e-09
-2.16065e-09
2.33834e-08
1.82465e-07
1.59037e-07
9.46804e-08
4.75784e-08
6.22579e-08
1.90032e-08
4.66475e-08
9.75118e-09
3.74689e-08
5.96651e-09
3.13125e-08
4.08342e-09
2.6942e-08
2.93425e-09
2.41929e-08
1.8768e-09
1.79831e-08
3.52887e-09
2.2412e-08
-1.67753e-09
2.48895e-08
-1.02166e-09
2.63511e-08
-9.12603e-10
2.72141e-08
-1.02465e-09
2.7689e-08
-1.21809e-09
2.78955e-08
-1.42893e-09
2.79091e-08
-1.62641e-09
2.77818e-08
-1.79582e-09
-1.93104e-09
2.75522e-08
7.43647e-08
8.46722e-08
7.0453e-08
5.14901e-08
5.85246e-08
3.09316e-08
4.86006e-08
1.96752e-08
4.11187e-08
1.34484e-08
3.52922e-08
9.90993e-09
3.02614e-08
7.965e-09
2.49096e-08
7.22865e-09
2.70319e-08
1.40654e-09
2.90207e-08
-3.66635e-09
3.0552e-08
-2.55293e-09
3.16234e-08
-1.98399e-09
3.23199e-08
-1.72119e-09
3.27268e-08
-1.62495e-09
3.29126e-08
-1.61471e-09
3.29302e-08
-1.64408e-09
3.28209e-08
-1.68649e-09
-1.72711e-09
3.2617e-08
3.3213e-08
5.14593e-08
4.4702e-08
4.00011e-08
4.60518e-08
2.95817e-08
4.38026e-08
2.19244e-08
4.06564e-08
1.65947e-08
3.77504e-08
1.28159e-08
3.5737e-08
9.97839e-09
3.47775e-08
8.18811e-09
4.00729e-08
-3.88884e-09
3.94814e-08
-3.07482e-09
3.93922e-08
-2.46372e-09
3.94657e-08
-2.05751e-09
3.95473e-08
-1.80276e-09
3.9573e-08
-1.65065e-09
3.95222e-08
-1.56395e-09
3.93946e-08
-1.51641e-09
3.91984e-08
-1.49033e-09
-1.47424e-09
3.89455e-08
1.2677e-08
3.87823e-08
1.99436e-08
3.27346e-08
2.32225e-08
2.63028e-08
2.41376e-08
2.10093e-08
2.3763e-08
1.69692e-08
2.28922e-08
1.36867e-08
2.1921e-08
1.09495e-08
3.26043e-08
-2.49518e-09
3.1208e-08
-2.4925e-09
3.03456e-08
-2.21244e-09
2.98243e-08
-1.94243e-09
2.94917e-08
-1.72488e-09
2.92535e-08
-1.56453e-09
2.9055e-08
-1.4522e-09
2.88665e-08
-1.37549e-09
2.86732e-08
-1.32304e-09
2.84687e-08
-1.28583e-09
-1.25725e-09
2.82517e-08
7.24008e-09
3.15422e-08
1.22036e-08
2.7771e-08
1.53947e-08
2.31117e-08
1.69743e-08
1.94297e-08
1.70906e-08
1.68529e-08
1.79309e-08
1.28465e-08
2.96634e-08
-7.82982e-10
2.85081e-08
-1.33988e-09
2.75064e-08
-1.49079e-09
2.67867e-08
-1.49277e-09
2.62723e-08
-1.42804e-09
2.58929e-08
-1.34542e-09
2.5596e-08
-1.26768e-09
2.53465e-08
-1.20271e-09
2.51221e-08
-1.15108e-09
2.49095e-08
-1.11045e-09
2.47014e-08
-1.07771e-09
-1.04999e-09
2.44941e-08
4.67572e-09
2.68665e-08
7.86033e-09
2.45864e-08
1.09111e-08
2.00608e-08
1.28393e-08
1.75016e-08
1.54527e-08
1.42395e-08
2.65418e-08
1.75739e-09
2.54579e-08
3.00875e-10
2.45501e-08
-4.32046e-10
2.38583e-08
-7.98977e-10
2.3327e-08
-9.61493e-10
2.29141e-08
-1.01517e-09
2.25845e-08
-1.01581e-09
2.23108e-08
-9.93951e-10
2.20731e-08
-9.64954e-10
2.18577e-08
-9.35683e-10
2.16558e-08
-9.08562e-10
2.1462e-08
-8.83906e-10
-8.61178e-10
2.12732e-08
3.42621e-09
2.34402e-08
4.69723e-09
2.33154e-08
8.7939e-09
1.59642e-08
1.37368e-08
1.25586e-08
2.27742e-08
5.2021e-09
2.21117e-08
2.41992e-09
2.15032e-08
9.09396e-10
2.09909e-08
8.02088e-11
2.05605e-08
-3.68599e-10
2.01998e-08
-6.00739e-10
1.98957e-08
-7.11104e-10
1.96352e-08
-7.55349e-10
1.94067e-08
-7.65413e-10
1.92007e-08
-7.58935e-10
1.90102e-08
-7.4517e-10
1.88303e-08
-7.28648e-10
1.86577e-08
-7.11356e-10
-6.93997e-10
1.84905e-08
5.21055e-09
1.82297e-08
8.64836e-09
1.98776e-08
1.3249e-08
1.13635e-08
1.77852e-08
8.0224e-09
1.8344e-08
4.6433e-09
1.83462e-08
2.41775e-09
1.81701e-08
1.0855e-09
1.79386e-08
3.11732e-10
1.76976e-08
-1.27598e-10
1.7466e-08
-3.69149e-10
1.72505e-08
-4.95553e-10
1.70515e-08
-5.56445e-10
1.68673e-08
-5.81143e-10
1.66949e-08
-5.86524e-10
1.65317e-08
-5.81993e-10
1.63756e-08
-5.7259e-10
1.62252e-08
-5.60879e-10
-5.48079e-10
1.60792e-08
4.16416e-09
1.40655e-08
1.02456e-08
1.37962e-08
1.24681e-08
9.14099e-09
1.42283e-08
6.26224e-09
1.50592e-08
3.81237e-09
1.53731e-08
2.10378e-09
1.54344e-08
1.02427e-09
1.53732e-08
3.72913e-10
1.52542e-08
-8.55364e-12
1.51104e-08
-2.2535e-10
1.49587e-08
-3.43863e-10
1.48072e-08
-4.04959e-10
1.46593e-08
-4.33283e-10
1.45162e-08
-4.43362e-10
1.43777e-08
-4.43544e-10
1.42436e-08
-4.38483e-10
1.41134e-08
-4.30691e-10
-4.21465e-10
1.39868e-08
3.72564e-09
1.03399e-08
7.84272e-09
9.67912e-09
1.01321e-08
6.85157e-09
1.17009e-08
4.69352e-09
1.25835e-08
2.9297e-09
1.30179e-08
1.66943e-09
1.31934e-08
8.4874e-10
1.32248e-08
3.415e-10
1.31778e-08
3.8514e-11
1.30895e-08
-1.37083e-10
1.2981e-08
-2.35358e-10
1.28638e-08
-2.87726e-10
1.27439e-08
-3.13411e-10
1.26244e-08
-3.23911e-10
1.25068e-08
-3.25946e-10
1.23917e-08
-3.23348e-10
1.22793e-08
-3.1824e-10
-3.11764e-10
1.21696e-08
3.19756e-09
7.14233e-09
6.33772e-09
6.53895e-09
8.41033e-09
4.77896e-09
9.81387e-09
3.28998e-09
1.06616e-08
2.08193e-09
1.11231e-08
1.20796e-09
1.13428e-08
6.29078e-10
1.14182e-08
2.66066e-10
1.14101e-08
4.65974e-11
1.13551e-08
-8.2078e-11
1.12748e-08
-1.55051e-10
1.11817e-08
-1.94629e-10
1.10829e-08
-2.14591e-10
1.09822e-08
-2.23254e-10
1.08818e-08
-2.25529e-10
1.07827e-08
-2.24246e-10
1.06855e-08
-2.21001e-10
-2.16665e-10
1.05904e-08
2.73906e-09
4.40327e-09
5.2894e-09
3.98861e-09
7.10745e-09
2.96091e-09
8.35075e-09
2.04669e-09
9.12791e-09
1.30478e-09
9.5714e-09
7.64465e-10
9.7972e-09
4.03287e-10
9.88831e-09
1.74952e-10
9.89895e-09
3.59614e-11
9.86292e-09
-4.60565e-11
9.80078e-09
-9.29042e-11
9.7247e-09
-1.18549e-10
9.64178e-09
-1.31668e-10
9.55605e-09
-1.37526e-10
9.46977e-09
-1.39247e-10
9.38416e-09
-1.38645e-10
9.29991e-09
-1.36748e-10
-1.34126e-10
9.21737e-09
2.35913e-09
2.04414e-09
4.50461e-09
1.84313e-09
6.08788e-09
1.37764e-09
7.18019e-09
9.54376e-10
7.87445e-09
6.10519e-10
8.27959e-09
3.59324e-10
8.49218e-09
1.90693e-10
8.58346e-09
8.36769e-11
8.6011e-09
1.83232e-11
8.5754e-09
-2.03591e-11
8.52502e-09
-4.25277e-11
8.46119e-09
-5.47146e-11
8.39051e-09
-6.09891e-11
8.31681e-09
-6.38257e-11
8.24226e-09
-6.46968e-11
8.16807e-09
-6.44598e-11
8.09493e-09
-6.36027e-11
-6.23973e-11
8.0232e-09
2.04414e-09
3.88727e-09
5.26491e-09
6.21929e-09
6.82981e-09
7.18913e-09
7.37982e-09
7.4635e-09
7.48182e-09
7.46147e-09
7.41894e-09
7.36422e-09
7.30323e-09
7.23941e-09
7.17471e-09
7.11025e-09
7.04665e-09
6.98425e-09
2.43833e-10
-2.43833e-10
4.89052e-10
-2.45219e-10
7.35357e-10
-2.46305e-10
9.82439e-10
-2.47082e-10
1.22998e-09
-2.47541e-10
1.47766e-09
-2.47676e-10
1.72514e-09
-2.47483e-10
1.9721e-09
-2.46959e-10
2.2182e-09
-2.46104e-10
2.46312e-09
-2.4492e-10
2.70653e-09
-2.43412e-10
2.94812e-09
-2.41586e-10
3.18757e-09
-2.3945e-10
3.42458e-09
-2.37013e-10
3.65887e-09
-2.34288e-10
3.89016e-09
-2.31289e-10
4.11819e-09
-2.28029e-10
4.34271e-09
-2.24525e-10
4.56351e-09
-2.20794e-10
4.78036e-09
-2.16854e-10
4.99308e-09
-2.12722e-10
5.2015e-09
-2.08418e-10
5.40546e-09
-2.03961e-10
5.60483e-09
-1.99369e-10
5.79949e-09
-1.94661e-10
5.98935e-09
-1.89855e-10
6.17432e-09
-1.8497e-10
6.35434e-09
-1.80023e-10
6.52937e-09
-1.7503e-10
6.69938e-09
-1.70007e-10
6.86435e-09
-1.6497e-10
7.02428e-09
-1.59931e-10
7.17918e-09
-1.54905e-10
7.32909e-09
-1.49904e-10
7.47403e-09
-1.44939e-10
7.61405e-09
-1.40019e-10
7.7492e-09
-1.35155e-10
7.87956e-09
-1.30355e-10
8.00518e-09
-1.25625e-10
8.12616e-09
-1.20974e-10
8.24256e-09
-1.16406e-10
8.35449e-09
-1.11926e-10
8.46203e-09
-1.07539e-10
8.56527e-09
-1.03248e-10
8.66433e-09
-9.9056e-11
8.7593e-09
-9.49656e-11
8.85027e-09
-9.09783e-11
8.93737e-09
-8.70954e-11
9.02069e-09
-8.33176e-11
9.10033e-09
-7.96456e-11
9.17641e-09
-7.60791e-11
9.24903e-09
-7.2618e-11
9.31829e-09
-6.92614e-11
9.3843e-09
-6.60088e-11
9.44716e-09
-6.28588e-11
9.50697e-09
-5.98101e-11
9.56383e-09
-5.68615e-11
9.61784e-09
-5.4011e-11
9.6691e-09
-5.12571e-11
9.7177e-09
-4.85978e-11
9.76373e-09
-4.60311e-11
9.80728e-09
-4.35551e-11
9.84845e-09
-4.11676e-11
9.88732e-09
-3.88664e-11
9.92397e-09
-3.66494e-11
9.95848e-09
-3.45144e-11
9.99094e-09
-3.24591e-11
1.00214e-08
-3.04814e-11
1.005e-08
-2.85792e-11
1.00767e-08
-2.67499e-11
1.01017e-08
-2.49918e-11
1.0125e-08
-2.33023e-11
1.01467e-08
-2.16794e-11
1.01668e-08
-2.01211e-11
1.01855e-08
-1.86252e-11
1.02027e-08
-1.71897e-11
1.02185e-08
-1.58125e-11
1.0233e-08
-1.44917e-11
1.02462e-08
-1.32252e-11
1.02582e-08
-1.20113e-11
1.0269e-08
-1.0848e-11
1.02788e-08
-9.7335e-12
1.02874e-08
-8.66614e-12
1.02951e-08
-7.64403e-12
1.03018e-08
-6.66557e-12
1.03075e-08
-5.72891e-12
1.03123e-08
-4.83275e-12
1.03163e-08
-3.97522e-12
1.03194e-08
-3.15499e-12
1.03218e-08
-2.37059e-12
1.03234e-08
-1.62037e-12
1.03243e-08
-9.03144e-13
1.03246e-08
-2.17347e-13
1.03241e-08
4.38044e-13
1.03231e-08
1.0647e-12
1.03214e-08
1.66356e-12
1.03192e-08
2.23583e-12
1.03164e-08
2.78297e-12
1.03131e-08
3.3058e-12
1.03093e-08
3.80562e-12
1.0305e-08
4.28327e-12
1.03002e-08
4.74008e-12
1.02951e-08
5.17663e-12
1.02895e-08
5.59436e-12
1.02835e-08
5.9937e-12
1.02771e-08
6.37592e-12
1.02704e-08
6.74168e-12
1.02633e-08
7.09189e-12
1.02558e-08
7.42725e-12
1.02481e-08
7.74861e-12
1.024e-08
8.0567e-12
1.02317e-08
8.35223e-12
1.0223e-08
8.63577e-12
1.02141e-08
8.90806e-12
1.0205e-08
9.16973e-12
1.01955e-08
9.42147e-12
1.01859e-08
9.66356e-12
1.0176e-08
9.89703e-12
1.01659e-08
1.01218e-11
1.01555e-08
1.0339e-11
1.0145e-08
1.05486e-11
1.01342e-08
1.07514e-11
1.01233e-08
1.09476e-11
1.01121e-08
1.11379e-11
1.01008e-08
1.13225e-11
1.00893e-08
1.15016e-11
1.00776e-08
1.16761e-11
1.00658e-08
1.18459e-11
1.00538e-08
1.20115e-11
1.00416e-08
1.21733e-11
1.00293e-08
1.23312e-11
1.00168e-08
1.24861e-11
1.00042e-08
1.26378e-11
9.99137e-09
1.27868e-11
9.97843e-09
1.29332e-11
9.96536e-09
1.30775e-11
9.95214e-09
1.32196e-11
9.93878e-09
1.33601e-11
9.92528e-09
1.34989e-11
9.91164e-09
1.36363e-11
9.89787e-09
1.37727e-11
9.88396e-09
1.39081e-11
9.86992e-09
1.40431e-11
9.85574e-09
1.41776e-11
9.84143e-09
1.4312e-11
9.82698e-09
1.44465e-11
9.8124e-09
1.45815e-11
9.79768e-09
1.47175e-11
9.78283e-09
1.48548e-11
9.76783e-09
1.49941e-11
9.7527e-09
1.51358e-11
9.73742e-09
1.52808e-11
9.72199e-09
1.54302e-11
9.7064e-09
1.55849e-11
9.69066e-09
1.57465e-11
9.67474e-09
1.5917e-11
9.65864e-09
1.60987e-11
9.64234e-09
1.62946e-11
9.62584e-09
1.65087e-11
9.60909e-09
1.67458e-11
9.59208e-09
1.70124e-11
9.57476e-09
1.73169e-11
9.55709e-09
1.76703e-11
9.539e-09
1.80867e-11
9.52042e-09
1.85851e-11
9.50123e-09
1.91908e-11
9.48129e-09
1.99372e-11
9.46042e-09
2.08708e-11
9.43837e-09
2.20548e-11
9.41479e-09
2.35785e-11
9.38922e-09
2.557e-11
9.361e-09
2.82187e-11
9.32918e-09
3.18148e-11
9.29236e-09
3.68251e-11
9.24831e-09
4.40469e-11
9.19335e-09
5.49634e-11
9.12067e-09
7.26768e-11
9.01578e-09
1.04892e-10
8.83943e-09
1.76344e-10
4.01156e-10
8.43828e-09
2.45177e-10
-4.8901e-10
4.91737e-10
-4.9178e-10
7.39375e-10
-4.93943e-10
9.87771e-10
-4.95478e-10
1.2366e-09
-4.9637e-10
1.48553e-09
-4.96605e-10
1.73422e-09
-4.96176e-10
1.98234e-09
-4.95077e-10
2.22955e-09
-4.93311e-10
2.47551e-09
-4.9088e-10
2.71989e-09
-4.87795e-10
2.96237e-09
-4.84068e-10
3.20264e-09
-4.79717e-10
3.44039e-09
-4.74763e-10
3.67533e-09
-4.69231e-10
3.90719e-09
-4.63148e-10
4.13571e-09
-4.56544e-10
4.36063e-09
-4.49452e-10
4.58175e-09
-4.41907e-10
4.79884e-09
-4.33946e-10
5.01172e-09
-4.25605e-10
5.22022e-09
-4.16923e-10
5.4242e-09
-4.07937e-10
5.62352e-09
-3.98687e-10
5.81807e-09
-3.89209e-10
6.00776e-09
-3.79542e-10
6.1925e-09
-3.6972e-10
6.37226e-09
-3.59778e-10
6.54698e-09
-3.4975e-10
6.71664e-09
-3.39667e-10
6.88123e-09
-3.2956e-10
7.04076e-09
-3.19456e-10
7.19523e-09
-3.09381e-10
7.34469e-09
-2.99359e-10
7.48916e-09
-2.89413e-10
7.6287e-09
-2.79563e-10
7.76337e-09
-2.69826e-10
7.89324e-09
-2.6022e-10
8.01837e-09
-2.50759e-10
8.13886e-09
-2.41456e-10
8.25477e-09
-2.32322e-10
8.36621e-09
-2.23367e-10
8.47327e-09
-2.14599e-10
8.57605e-09
-2.06025e-10
8.67464e-09
-1.9765e-10
8.76916e-09
-1.89479e-10
8.8597e-09
-1.81516e-10
8.94636e-09
-1.73761e-10
9.02926e-09
-1.66218e-10
9.1085e-09
-1.58887e-10
9.18419e-09
-1.51767e-10
9.25643e-09
-1.44858e-10
9.32533e-09
-1.38158e-10
9.39099e-09
-1.31667e-10
9.45351e-09
-1.2538e-10
9.51299e-09
-1.19296e-10
9.56954e-09
-1.13412e-10
9.62326e-09
-1.07724e-10
9.67423e-09
-1.02229e-10
9.72255e-09
-9.69226e-11
9.76832e-09
-9.18015e-11
9.81163e-09
-8.68612e-11
9.85256e-09
-8.20975e-11
9.8912e-09
-7.75063e-11
9.92763e-09
-7.3083e-11
9.96194e-09
-6.88234e-11
9.99421e-09
-6.47229e-11
1.00245e-08
-6.07773e-11
1.00529e-08
-5.69818e-11
1.00795e-08
-5.33324e-11
1.01043e-08
-4.98244e-11
1.01275e-08
-4.64537e-11
1.0149e-08
-4.32159e-11
1.0169e-08
-4.01066e-11
1.01875e-08
-3.7122e-11
1.02046e-08
-3.42578e-11
1.02203e-08
-3.15099e-11
1.02346e-08
-2.88744e-11
1.02478e-08
-2.63476e-11
1.02597e-08
-2.39253e-11
1.02704e-08
-2.16042e-11
1.02801e-08
-1.93804e-11
1.02887e-08
-1.72505e-11
1.02962e-08
-1.52109e-11
1.03028e-08
-1.32583e-11
1.03085e-08
-1.13892e-11
1.03132e-08
-9.60089e-12
1.03172e-08
-7.88961e-12
1.03203e-08
-6.25284e-12
1.03226e-08
-4.68723e-12
1.03241e-08
-3.19012e-12
1.0325e-08
-1.75861e-12
1.03252e-08
-3.90102e-13
1.03247e-08
9.18142e-13
1.03236e-08
2.16867e-12
1.03219e-08
3.36395e-12
1.03196e-08
4.50647e-12
1.03168e-08
5.59827e-12
1.03135e-08
6.64208e-12
1.03096e-08
7.63957e-12
1.03053e-08
8.59325e-12
1.03006e-08
9.50485e-12
1.02954e-08
1.03766e-11
1.02897e-08
1.12103e-11
1.02837e-08
1.20078e-11
1.02773e-08
1.27708e-11
1.02706e-08
1.3501e-11
1.02635e-08
1.42002e-11
1.0256e-08
1.48698e-11
1.02483e-08
1.55116e-11
1.02402e-08
1.61267e-11
1.02318e-08
1.67167e-11
1.02232e-08
1.72829e-11
1.02143e-08
1.78269e-11
1.02051e-08
1.83493e-11
1.01957e-08
1.8852e-11
1.0186e-08
1.93358e-11
1.01761e-08
1.98017e-11
1.01659e-08
2.0251e-11
1.01556e-08
2.06846e-11
1.0145e-08
2.11035e-11
1.01343e-08
2.15086e-11
1.01233e-08
2.19006e-11
1.01122e-08
2.22806e-11
1.01009e-08
2.26494e-11
1.00894e-08
2.30077e-11
1.00777e-08
2.3356e-11
1.00658e-08
2.36953e-11
1.00538e-08
2.40263e-11
1.00416e-08
2.43494e-11
1.00293e-08
2.46653e-11
1.00168e-08
2.49747e-11
1.00042e-08
2.52779e-11
9.99139e-09
2.55756e-11
9.97845e-09
2.58685e-11
9.96537e-09
2.61566e-11
9.95215e-09
2.64409e-11
9.93879e-09
2.67215e-11
9.92529e-09
2.69989e-11
9.91165e-09
2.72738e-11
9.89788e-09
2.75465e-11
9.88397e-09
2.78172e-11
9.86993e-09
2.80869e-11
9.85575e-09
2.83556e-11
9.84144e-09
2.86243e-11
9.82699e-09
2.88933e-11
9.81241e-09
2.91633e-11
9.79769e-09
2.9435e-11
9.78284e-09
2.97095e-11
9.76784e-09
2.99878e-11
9.75271e-09
3.0271e-11
9.73743e-09
3.05609e-11
9.722e-09
3.08589e-11
9.70641e-09
3.11681e-11
9.69067e-09
3.14909e-11
9.67476e-09
3.18313e-11
9.65866e-09
3.21938e-11
9.64237e-09
3.25847e-11
9.62587e-09
3.30114e-11
9.60913e-09
3.3484e-11
9.59213e-09
3.40154e-11
9.57482e-09
3.46217e-11
9.55717e-09
3.5325e-11
9.5391e-09
3.61536e-11
9.52054e-09
3.71446e-11
9.50138e-09
3.83482e-11
9.48149e-09
3.98311e-11
9.46068e-09
4.16845e-11
9.4387e-09
4.40332e-11
9.41522e-09
4.70534e-11
9.3898e-09
5.09967e-11
9.36178e-09
5.62336e-11
9.33027e-09
6.33301e-11
9.2939e-09
7.31875e-11
9.25062e-09
8.73303e-11
9.19705e-09
1.08538e-10
9.1273e-09
1.42423e-10
9.03025e-09
2.01936e-10
8.88422e-09
3.22382e-10
6.16647e-10
8.66873e-09
2.47901e-10
-7.3691e-10
4.97182e-10
-7.4106e-10
7.47519e-10
-7.4428e-10
9.98578e-10
-7.46537e-10
1.25001e-09
-7.47806e-10
1.50148e-09
-7.4807e-10
1.75262e-09
-7.47316e-10
2.00308e-09
-7.4554e-10
2.25251e-09
-7.42743e-10
2.50057e-09
-7.38934e-10
2.7469e-09
-7.3413e-10
2.99119e-09
-7.28351e-10
3.23309e-09
-7.21626e-10
3.47232e-09
-7.13989e-10
3.70857e-09
-7.05479e-10
3.94156e-09
-6.9614e-10
4.17104e-09
-6.8602e-10
4.39676e-09
-6.7517e-10
4.61849e-09
-6.63645e-10
4.83605e-09
-6.515e-10
5.04923e-09
-6.38793e-10
5.2579e-09
-6.25583e-10
5.46189e-09
-6.11928e-10
5.66109e-09
-5.97887e-10
5.85539e-09
-5.83516e-10
6.04472e-09
-5.68873e-10
6.22901e-09
-5.5401e-10
6.40822e-09
-5.38981e-10
6.5823e-09
-5.23835e-10
6.75125e-09
-5.08619e-10
6.91507e-09
-4.93378e-10
7.07377e-09
-4.78153e-10
7.22737e-09
-4.62984e-10
7.37592e-09
-4.47904e-10
7.51945e-09
-4.32948e-10
7.65803e-09
-4.18145e-10
7.79173e-09
-4.0352e-10
7.92061e-09
-3.891e-10
8.04475e-09
-3.74903e-10
8.16425e-09
-3.6095e-10
8.27918e-09
-3.47256e-10
8.38965e-09
-3.33835e-10
8.49575e-09
-3.20699e-10
8.59758e-09
-3.07857e-10
8.69525e-09
-2.95318e-10
8.78886e-09
-2.83087e-10
8.87851e-09
-2.7117e-10
8.96432e-09
-2.59568e-10
9.04638e-09
-2.48285e-10
9.12482e-09
-2.3732e-10
9.19972e-09
-2.26673e-10
9.27121e-09
-2.16343e-10
9.33937e-09
-2.06327e-10
9.40433e-09
-1.96623e-10
9.46618e-09
-1.87227e-10
9.52502e-09
-1.78135e-10
9.58095e-09
-1.69341e-10
9.63406e-09
-1.60842e-10
9.68447e-09
-1.52631e-10
9.73225e-09
-1.44703e-10
9.7775e-09
-1.37051e-10
9.8203e-09
-1.2967e-10
9.86076e-09
-1.22553e-10
9.89895e-09
-1.15694e-10
9.93495e-09
-1.09086e-10
9.96885e-09
-1.02723e-10
1.00007e-08
-9.65967e-11
1.00306e-08
-9.07022e-11
1.00587e-08
-8.50323e-11
1.00849e-08
-7.95801e-11
1.01095e-08
-7.43396e-11
1.01323e-08
-6.93039e-11
1.01536e-08
-6.44666e-11
1.01733e-08
-5.98216e-11
1.01915e-08
-5.53624e-11
1.02083e-08
-5.10832e-11
1.02238e-08
-4.69777e-11
1.0238e-08
-4.30401e-11
1.02509e-08
-3.92646e-11
1.02626e-08
-3.56454e-11
1.02732e-08
-3.21772e-11
1.02827e-08
-2.88543e-11
1.02911e-08
-2.56715e-11
1.02985e-08
-2.26237e-11
1.03049e-08
-1.97059e-11
1.03105e-08
-1.69128e-11
1.03151e-08
-1.424e-11
1.03189e-08
-1.16827e-11
1.03219e-08
-9.23628e-12
1.03241e-08
-6.89654e-12
1.03256e-08
-4.65886e-12
1.03263e-08
-2.51925e-12
1.03264e-08
-4.73688e-13
1.03258e-08
1.48196e-12
1.03247e-08
3.3513e-12
1.03229e-08
5.13813e-12
1.03205e-08
6.84601e-12
1.03177e-08
8.47851e-12
1.03143e-08
1.00388e-11
1.03104e-08
1.15304e-11
1.0306e-08
1.29562e-11
1.03012e-08
1.43194e-11
1.0296e-08
1.5623e-11
1.02903e-08
1.68697e-11
1.02842e-08
1.80622e-11
1.02778e-08
1.92033e-11
1.0271e-08
2.02955e-11
1.02639e-08
2.13414e-11
1.02564e-08
2.2343e-11
1.02486e-08
2.33028e-11
1.02405e-08
2.42231e-11
1.02321e-08
2.51058e-11
1.02235e-08
2.5953e-11
1.02145e-08
2.67667e-11
1.02053e-08
2.75487e-11
1.01959e-08
2.83009e-11
1.01862e-08
2.90248e-11
1.01763e-08
2.97223e-11
1.01661e-08
3.03947e-11
1.01558e-08
3.10437e-11
1.01452e-08
3.16707e-11
1.01344e-08
3.22772e-11
1.01235e-08
3.28641e-11
1.01123e-08
3.34333e-11
1.0101e-08
3.39853e-11
1.00894e-08
3.45218e-11
1.00778e-08
3.50436e-11
1.00659e-08
3.55518e-11
1.00539e-08
3.60474e-11
1.00417e-08
3.65315e-11
1.00294e-08
3.70047e-11
1.00169e-08
3.74682e-11
1.00042e-08
3.79226e-11
9.99143e-09
3.83688e-11
9.97849e-09
3.88073e-11
9.96541e-09
3.92393e-11
9.95218e-09
3.96651e-11
9.93882e-09
4.00857e-11
9.92532e-09
4.05016e-11
9.91168e-09
4.09135e-11
9.8979e-09
4.1322e-11
9.88399e-09
4.1728e-11
9.86995e-09
4.21322e-11
9.85577e-09
4.2535e-11
9.84145e-09
4.29377e-11
9.82701e-09
4.33407e-11
9.81242e-09
4.37453e-11
9.79771e-09
4.41526e-11
9.78285e-09
4.45639e-11
9.76786e-09
4.49808e-11
9.75273e-09
4.5405e-11
9.73745e-09
4.58389e-11
9.72202e-09
4.62854e-11
9.70644e-09
4.6748e-11
9.6907e-09
4.72309e-11
9.67479e-09
4.77398e-11
9.6587e-09
4.82817e-11
9.64242e-09
4.88655e-11
9.62593e-09
4.95025e-11
9.60921e-09
5.02075e-11
9.59223e-09
5.09993e-11
9.57494e-09
5.19025e-11
9.55732e-09
5.29491e-11
9.53929e-09
5.4181e-11
9.52078e-09
5.56535e-11
9.50169e-09
5.74399e-11
9.48188e-09
5.96392e-11
9.46118e-09
6.23849e-11
9.43936e-09
6.58608e-11
9.41609e-09
7.03241e-11
9.39094e-09
7.61413e-11
9.36333e-09
8.38494e-11
9.33239e-09
9.42605e-11
9.29693e-09
1.08655e-10
9.2551e-09
1.29156e-10
9.20411e-09
1.59529e-10
9.13953e-09
2.07006e-10
9.05461e-09
2.86853e-10
8.94268e-09
4.34317e-10
7.32029e-10
8.82729e-09
2.52082e-10
-9.88992e-10
5.05536e-10
-9.94515e-10
7.60014e-10
-9.98759e-10
1.01515e-09
-1.00168e-09
1.27058e-09
-1.00324e-09
1.52593e-09
-1.00341e-09
1.7808e-09
-1.00219e-09
2.03484e-09
-9.99576e-10
2.28766e-09
-9.95563e-10
2.5389e-09
-9.90171e-10
2.78819e-09
-9.83423e-10
3.0352e-09
-9.75355e-10
3.27958e-09
-9.66007e-10
3.52102e-09
-9.55429e-10
3.75922e-09
-9.43679e-10
3.99389e-09
-9.30819e-10
4.22479e-09
-9.16917e-10
4.45167e-09
-9.02047e-10
4.67431e-09
-8.86285e-10
4.89252e-09
-8.69708e-10
5.10612e-09
-8.52397e-10
5.31497e-09
-8.34432e-10
5.51893e-09
-8.15894e-10
5.71791e-09
-7.96862e-10
5.91181e-09
-7.77413e-10
6.10056e-09
-7.57624e-10
6.28411e-09
-7.37567e-10
6.46245e-09
-7.17312e-10
6.63554e-09
-6.96925e-10
6.80339e-09
-6.76469e-10
6.96601e-09
-6.56001e-10
7.12343e-09
-6.35577e-10
7.2757e-09
-6.15247e-10
7.42285e-09
-5.95057e-10
7.56495e-09
-5.7505e-10
7.70207e-09
-5.55263e-10
7.83428e-09
-5.3573e-10
7.96166e-09
-5.16483e-10
8.0843e-09
-4.97547e-10
8.2023e-09
-4.78948e-10
8.31575e-09
-4.60704e-10
8.42475e-09
-4.42833e-10
8.5294e-09
-4.2535e-10
8.62981e-09
-4.08267e-10
8.72608e-09
-3.91592e-10
8.81833e-09
-3.75334e-10
8.90666e-09
-3.59497e-10
8.99118e-09
-3.44085e-10
9.07199e-09
-3.29099e-10
9.14921e-09
-3.1454e-10
9.22294e-09
-3.00406e-10
9.2933e-09
-2.86696e-10
9.36037e-09
-2.73405e-10
9.42428e-09
-2.6053e-10
9.48512e-09
-2.48065e-10
9.54299e-09
-2.36004e-10
9.59799e-09
-2.24341e-10
9.65021e-09
-2.13069e-10
9.69976e-09
-2.02181e-10
9.74673e-09
-1.91668e-10
9.7912e-09
-1.81522e-10
9.83327e-09
-1.71736e-10
9.87301e-09
-1.623e-10
9.91053e-09
-1.53207e-10
9.94589e-09
-1.44446e-10
9.97917e-09
-1.36009e-10
1.00105e-08
-1.27888e-10
1.00398e-08
-1.20073e-10
1.00674e-08
-1.12556e-10
1.00931e-08
-1.05328e-10
1.01171e-08
-9.83805e-11
1.01395e-08
-9.17041e-11
1.01604e-08
-8.52909e-11
1.01797e-08
-7.91323e-11
1.01975e-08
-7.32201e-11
1.0214e-08
-6.75461e-11
1.02291e-08
-6.21026e-11
1.0243e-08
-5.68813e-11
1.02556e-08
-5.18749e-11
1.0267e-08
-4.70755e-11
1.02773e-08
-4.24763e-11
1.02865e-08
-3.80697e-11
1.02947e-08
-3.38486e-11
1.03019e-08
-2.98066e-11
1.03081e-08
-2.59363e-11
1.03134e-08
-2.2232e-11
1.03179e-08
-1.86866e-11
1.03215e-08
-1.52946e-11
1.03243e-08
-1.20493e-11
1.03264e-08
-8.94524e-12
1.03277e-08
-5.97667e-12
1.03283e-08
-3.13806e-12
1.03282e-08
-4.23943e-13
1.03276e-08
2.17087e-12
1.03263e-08
4.65123e-12
1.03244e-08
7.02231e-12
1.03219e-08
9.28886e-12
1.03189e-08
1.14554e-11
1.03155e-08
1.35262e-11
1.03115e-08
1.5506e-11
1.0307e-08
1.73985e-11
1.03022e-08
1.92081e-11
1.02968e-08
2.09387e-11
1.02911e-08
2.25937e-11
1.0285e-08
2.41772e-11
1.02785e-08
2.56923e-11
1.02717e-08
2.71427e-11
1.02645e-08
2.85314e-11
1.0257e-08
2.98618e-11
1.02491e-08
3.11367e-11
1.0241e-08
3.2359e-11
1.02326e-08
3.35317e-11
1.02239e-08
3.46573e-11
1.02149e-08
3.57384e-11
1.02057e-08
3.67775e-11
1.01962e-08
3.77771e-11
1.01865e-08
3.87392e-11
1.01765e-08
3.96662e-11
1.01664e-08
4.05602e-11
1.0156e-08
4.1423e-11
1.01454e-08
4.22565e-11
1.01346e-08
4.3063e-11
1.01236e-08
4.38436e-11
1.01125e-08
4.46004e-11
1.01011e-08
4.53348e-11
1.00896e-08
4.60483e-11
1.00779e-08
4.67426e-11
1.0066e-08
4.74187e-11
1.0054e-08
4.80784e-11
1.00418e-08
4.87224e-11
1.00294e-08
4.93523e-11
1.00169e-08
4.99691e-11
1.00043e-08
5.0574e-11
9.99149e-09
5.1168e-11