/*--------------------------------*- C++ -*----------------------------------*\
  =========                 |
  \\      /  F ield         | OpenFOAM: The Open Source CFD Toolbox
   \\    /   O peration     | Website:  https://openfoam.org
    \\  /    A nd           | Version:  10
     \\/     M anipulation  |
\*---------------------------------------------------------------------------*/
FoamFile
{
    format      ascii;
    class       volScalarField;
    location    "4.6";
    object      p;
}
// * * * * * * * * * * * * * * * * * * * * * * * * * * * * * * * * * * * * * //

dimensions      [1 -1 -2 0 0 0 0];

internalField   nonuniform List<scalar> 
12225
(
9.884e+06
9.88403e+06
9.88411e+06
9.88425e+06
9.88446e+06
9.88477e+06
9.88525e+06
9.88592e+06
9.88688e+06
9.88821e+06
9.89001e+06
9.89242e+06
9.89556e+06
9.8996e+06
9.90472e+06
9.91114e+06
9.91927e+06
9.93001e+06
9.88399e+06
9.88403e+06
9.88411e+06
9.88424e+06
9.88445e+06
9.88476e+06
9.88523e+06
9.8859e+06
9.88685e+06
9.88816e+06
9.88995e+06
9.89233e+06
9.89544e+06
9.89944e+06
9.90451e+06
9.91086e+06
9.9188e+06
9.92888e+06
9.88399e+06
9.88402e+06
9.8841e+06
9.88422e+06
9.88443e+06
9.88473e+06
9.88519e+06
9.88584e+06
9.88677e+06
9.88805e+06
9.8898e+06
9.89213e+06
9.89518e+06
9.8991e+06
9.90406e+06
9.91024e+06
9.91785e+06
9.92707e+06
9.88398e+06
9.88401e+06
9.88408e+06
9.8842e+06
9.8844e+06
9.88469e+06
9.88513e+06
9.88575e+06
9.88664e+06
9.88788e+06
9.88956e+06
9.8918e+06
9.89475e+06
9.89854e+06
9.90333e+06
9.90925e+06
9.91643e+06
9.9248e+06
9.88396e+06
9.884e+06
9.88406e+06
9.88418e+06
9.88436e+06
9.88463e+06
9.88504e+06
9.88563e+06
9.88646e+06
9.88762e+06
9.8892e+06
9.89133e+06
9.89412e+06
9.89773e+06
9.90227e+06
9.90787e+06
9.91456e+06
9.92217e+06
9.88395e+06
9.88398e+06
9.88404e+06
9.88414e+06
9.8843e+06
9.88455e+06
9.88492e+06
9.88545e+06
9.88621e+06
9.88727e+06
9.88872e+06
9.89068e+06
9.89327e+06
9.89662e+06
9.90085e+06
9.90605e+06
9.91222e+06
9.91916e+06
9.88393e+06
9.88395e+06
9.88401e+06
9.88409e+06
9.88423e+06
9.88445e+06
9.88477e+06
9.88523e+06
9.88589e+06
9.88682e+06
9.8881e+06
9.88984e+06
9.89216e+06
9.89517e+06
9.89902e+06
9.90377e+06
9.9094e+06
9.91575e+06
9.88391e+06
9.88393e+06
9.88397e+06
9.88404e+06
9.88415e+06
9.88432e+06
9.88458e+06
9.88495e+06
9.88549e+06
9.88626e+06
9.88732e+06
9.88878e+06
9.89075e+06
9.89336e+06
9.89673e+06
9.90095e+06
9.90604e+06
9.91186e+06
9.88388e+06
9.88389e+06
9.88392e+06
9.88397e+06
9.88405e+06
9.88417e+06
9.88435e+06
9.88462e+06
9.88501e+06
9.88558e+06
9.88637e+06
9.88749e+06
9.88903e+06
9.89113e+06
9.89393e+06
9.89754e+06
9.90203e+06
9.90736e+06
9.88385e+06
9.88386e+06
9.88387e+06
9.88389e+06
9.88393e+06
9.88399e+06
9.88409e+06
9.88423e+06
9.88445e+06
9.88478e+06
9.88525e+06
9.88596e+06
9.88698e+06
9.88846e+06
9.89055e+06
9.89343e+06
9.89725e+06
9.90208e+06
9.88382e+06
9.88381e+06
9.88381e+06
9.88381e+06
9.8838e+06
9.8838e+06
9.8838e+06
9.8838e+06
9.88382e+06
9.88387e+06
9.88397e+06
9.88418e+06
9.88458e+06
9.8853e+06
9.88652e+06
9.88849e+06
9.8915e+06
9.89576e+06
9.88378e+06
9.88377e+06
9.88376e+06
9.88372e+06
9.88367e+06
9.8836e+06
9.88351e+06
9.88337e+06
9.88319e+06
9.88295e+06
9.88267e+06
9.88236e+06
9.88208e+06
9.88195e+06
9.88216e+06
9.88304e+06
9.88504e+06
9.88862e+06
9.88375e+06
9.88373e+06
9.8837e+06
9.88364e+06
9.88355e+06
9.88341e+06
9.88321e+06
9.88293e+06
9.88254e+06
9.88201e+06
9.88132e+06
9.88044e+06
9.8794e+06
9.87828e+06
9.87725e+06
9.87672e+06
9.87733e+06
9.87994e+06
9.88372e+06
9.88369e+06
9.88364e+06
9.88354e+06
9.8834e+06
9.88319e+06
9.88288e+06
9.88244e+06
9.88181e+06
9.88095e+06
9.87977e+06
9.87821e+06
9.87622e+06
9.87377e+06
9.87097e+06
9.86819e+06
9.86628e+06
9.86686e+06
9.88368e+06
9.88365e+06
9.88357e+06
9.88345e+06
9.88326e+06
9.88298e+06
9.88256e+06
9.88196e+06
9.8811e+06
9.87988e+06
9.8782e+06
9.8759e+06
9.8728e+06
9.86869e+06
9.8634e+06
9.85693e+06
9.8499e+06
9.8448e+06
9.88365e+06
9.88361e+06
9.88353e+06
9.88338e+06
9.88316e+06
9.88283e+06
9.88233e+06
9.88162e+06
9.88058e+06
9.87912e+06
9.87705e+06
9.87415e+06
9.8701e+06
9.86441e+06
9.85631e+06
9.84457e+06
9.82693e+06
9.79921e+06
1.98792e+07
1.97957e+07
1.97347e+07
1.9683e+07
1.96358e+07
1.9591e+07
1.95473e+07
1.9504e+07
1.94608e+07
1.94175e+07
1.93737e+07
1.9329e+07
1.92831e+07
1.92356e+07
1.91858e+07
1.91329e+07
1.90757e+07
1.90127e+07
1.9815e+07
1.97734e+07
1.97259e+07
1.96795e+07
1.96349e+07
1.9592e+07
1.95501e+07
1.9509e+07
1.94682e+07
1.94277e+07
1.93873e+07
1.9347e+07
1.93069e+07
1.9267e+07
1.92279e+07
1.91903e+07
1.91558e+07
1.91269e+07
1.97474e+07
1.97266e+07
1.96957e+07
1.96606e+07
1.96238e+07
1.95865e+07
1.95493e+07
1.95123e+07
1.94757e+07
1.94397e+07
1.94044e+07
1.937e+07
1.93367e+07
1.93049e+07
1.92752e+07
1.92479e+07
1.92238e+07
1.92036e+07
1.97036e+07
1.96902e+07
1.96679e+07
1.96405e+07
1.96101e+07
1.95782e+07
1.95457e+07
1.9513e+07
1.94806e+07
1.94488e+07
1.94179e+07
1.9388e+07
1.93596e+07
1.93328e+07
1.93081e+07
1.92855e+07
1.92654e+07
1.92479e+07
1.96771e+07
1.96668e+07
1.96488e+07
1.96258e+07
1.95995e+07
1.95713e+07
1.95421e+07
1.95126e+07
1.94832e+07
1.94543e+07
1.94263e+07
1.93994e+07
1.93739e+07
1.93499e+07
1.93278e+07
1.93075e+07
1.92893e+07
1.92731e+07
1.96588e+07
1.96502e+07
1.96348e+07
1.96146e+07
1.95912e+07
1.95656e+07
1.95389e+07
1.95117e+07
1.94845e+07
1.94578e+07
1.94319e+07
1.9407e+07
1.93835e+07
1.93613e+07
1.93408e+07
1.9322e+07
1.93049e+07
1.92895e+07
1.96461e+07
1.96385e+07
1.96247e+07
1.96064e+07
1.95849e+07
1.95612e+07
1.95362e+07
1.95107e+07
1.94852e+07
1.946e+07
1.94356e+07
1.94122e+07
1.93899e+07
1.9369e+07
1.93496e+07
1.93316e+07
1.93152e+07
1.93004e+07
1.96373e+07
1.96303e+07
1.96176e+07
1.96005e+07
1.95802e+07
1.95579e+07
1.95342e+07
1.95099e+07
1.94855e+07
1.94614e+07
1.9438e+07
1.94155e+07
1.93942e+07
1.93741e+07
1.93554e+07
1.9338e+07
1.93221e+07
1.93076e+07
1.96312e+07
1.96246e+07
1.96125e+07
1.95963e+07
1.95769e+07
1.95554e+07
1.95326e+07
1.95091e+07
1.94855e+07
1.94622e+07
1.94395e+07
1.94177e+07
1.9397e+07
1.93775e+07
1.93592e+07
1.93423e+07
1.93267e+07
1.93124e+07
1.9627e+07
1.96207e+07
1.96091e+07
1.95934e+07
1.95746e+07
1.95537e+07
1.95315e+07
1.95086e+07
1.94855e+07
1.94627e+07
1.94405e+07
1.94191e+07
1.93988e+07
1.93796e+07
1.93617e+07
1.93451e+07
1.93297e+07
1.93156e+07
1.96243e+07
1.96182e+07
1.96069e+07
1.95915e+07
1.95731e+07
1.95526e+07
1.95307e+07
1.95082e+07
1.94854e+07
1.9463e+07
1.94411e+07
1.942e+07
1.93999e+07
1.9381e+07
1.93633e+07
1.93468e+07
1.93316e+07
1.93175e+07
1.96227e+07
1.96166e+07
1.96055e+07
1.95903e+07
1.95721e+07
1.95519e+07
1.95302e+07
1.95079e+07
1.94854e+07
1.94631e+07
1.94414e+07
1.94205e+07
1.94006e+07
1.93818e+07
1.93642e+07
1.93478e+07
1.93327e+07
1.93187e+07
1.96218e+07
1.96158e+07
1.96047e+07
1.95897e+07
1.95716e+07
1.95515e+07
1.95299e+07
1.95077e+07
1.94853e+07
1.94632e+07
1.94416e+07
1.94208e+07
1.94009e+07
1.93822e+07
1.93647e+07
1.93484e+07
1.93333e+07
1.93193e+07
1.96214e+07
1.96154e+07
1.96044e+07
1.95894e+07
1.95714e+07
1.95513e+07
1.95298e+07
1.95077e+07
1.94853e+07
1.94632e+07
1.94416e+07
1.94209e+07
1.94011e+07
1.93824e+07
1.93649e+07
1.93486e+07
1.93335e+07
1.93196e+07
1.0052e+07
1.0052e+07
1.00521e+07
1.00523e+07
1.00525e+07
1.00528e+07
1.00532e+07
1.00536e+07
1.0054e+07
1.00546e+07
1.00552e+07
1.00558e+07
1.00565e+07
1.00573e+07
1.00582e+07
1.00591e+07
1.006e+07
1.00611e+07
1.00622e+07
1.00633e+07
1.00646e+07
1.00659e+07
1.00672e+07
1.00686e+07
1.00701e+07
1.00716e+07
1.00732e+07
1.00749e+07
1.00766e+07
1.00783e+07
1.00801e+07
1.0082e+07
1.00839e+07
1.00859e+07
1.00879e+07
1.009e+07
1.00921e+07
1.00943e+07
1.00965e+07
1.00987e+07
1.0101e+07
1.01034e+07
1.01057e+07
1.01082e+07
1.01106e+07
1.01131e+07
1.01156e+07
1.01182e+07
1.01208e+07
1.01234e+07
1.0126e+07
1.01287e+07
1.01314e+07
1.01341e+07
1.01369e+07
1.01397e+07
1.01425e+07
1.01453e+07
1.01482e+07
1.01511e+07
1.0154e+07
1.01569e+07
1.01598e+07
1.01628e+07
1.01657e+07
1.01687e+07
1.01717e+07
1.01748e+07
1.01778e+07
1.01809e+07
1.01839e+07
1.0187e+07
1.01901e+07
1.01932e+07
1.01963e+07
1.01995e+07
1.02026e+07
1.02058e+07
1.0209e+07
1.02121e+07
1.02153e+07
1.02185e+07
1.02218e+07
1.0225e+07
1.02282e+07
1.02315e+07
1.02347e+07
1.0238e+07
1.02413e+07
1.02446e+07
1.02479e+07
1.02512e+07
1.02545e+07
1.02578e+07
1.02612e+07
1.02645e+07
1.02679e+07
1.02712e+07
1.02746e+07
1.0278e+07
1.02814e+07
1.02848e+07
1.02882e+07
1.02916e+07
1.02951e+07
1.02985e+07
1.0302e+07
1.03055e+07
1.0309e+07
1.03124e+07
1.0316e+07
1.03195e+07
1.0323e+07
1.03266e+07
1.03301e+07
1.03337e+07
1.03373e+07
1.03409e+07
1.03445e+07
1.03481e+07
1.03518e+07
1.03554e+07
1.03591e+07
1.03628e+07
1.03665e+07
1.03703e+07
1.0374e+07
1.03778e+07
1.03816e+07
1.03854e+07
1.03893e+07
1.03931e+07
1.0397e+07
1.04009e+07
1.04049e+07
1.04088e+07
1.04128e+07
1.04168e+07
1.04208e+07
1.04249e+07
1.0429e+07
1.0433e+07
1.04372e+07
1.04413e+07
1.04455e+07
1.04497e+07
1.04539e+07
1.04581e+07
1.04623e+07
1.04665e+07
1.04708e+07
1.0475e+07
1.04793e+07
1.04835e+07
1.04877e+07
1.04919e+07
1.0496e+07
1.05001e+07
1.05042e+07
1.05082e+07
1.0512e+07
1.05158e+07
1.05194e+07
1.05228e+07
1.05261e+07
1.05291e+07
1.05318e+07
1.05343e+07
1.05364e+07
1.05381e+07
1.05393e+07
1.054e+07
1.05401e+07
1.05397e+07
1.05385e+07
1.05366e+07
1.05339e+07
1.05305e+07
1.05262e+07
1.05211e+07
1.00517e+07
1.00518e+07
1.00519e+07
1.00521e+07
1.00523e+07
1.00526e+07
1.00529e+07
1.00533e+07
1.00538e+07
1.00543e+07
1.00549e+07
1.00556e+07
1.00563e+07
1.00571e+07
1.00579e+07
1.00589e+07
1.00598e+07
1.00609e+07
1.0062e+07
1.00632e+07
1.00644e+07
1.00657e+07
1.0067e+07
1.00685e+07
1.00699e+07
1.00715e+07
1.00731e+07
1.00747e+07
1.00764e+07
1.00782e+07
1.008e+07
1.00819e+07
1.00838e+07
1.00858e+07
1.00878e+07
1.00899e+07
1.0092e+07
1.00942e+07
1.00964e+07
1.00987e+07
1.0101e+07
1.01033e+07
1.01057e+07
1.01081e+07
1.01106e+07
1.0113e+07
1.01156e+07
1.01181e+07
1.01207e+07
1.01233e+07
1.0126e+07
1.01287e+07
1.01314e+07
1.01341e+07
1.01369e+07
1.01397e+07
1.01425e+07
1.01453e+07
1.01482e+07
1.0151e+07
1.01539e+07
1.01569e+07
1.01598e+07
1.01628e+07
1.01657e+07
1.01687e+07
1.01717e+07
1.01748e+07
1.01778e+07
1.01809e+07
1.01839e+07
1.0187e+07
1.01901e+07
1.01932e+07
1.01963e+07
1.01995e+07
1.02026e+07
1.02058e+07
1.0209e+07
1.02121e+07
1.02153e+07
1.02186e+07
1.02218e+07
1.0225e+07
1.02282e+07
1.02315e+07
1.02347e+07
1.0238e+07
1.02413e+07
1.02446e+07
1.02479e+07
1.02512e+07
1.02545e+07
1.02578e+07
1.02612e+07
1.02645e+07
1.02679e+07
1.02712e+07
1.02746e+07
1.0278e+07
1.02814e+07
1.02848e+07
1.02882e+07
1.02916e+07
1.02951e+07
1.02985e+07
1.0302e+07
1.03055e+07
1.0309e+07
1.03124e+07
1.0316e+07
1.03195e+07
1.0323e+07
1.03266e+07
1.03301e+07
1.03337e+07
1.03373e+07
1.03409e+07
1.03445e+07
1.03481e+07
1.03518e+07
1.03554e+07
1.03591e+07
1.03628e+07
1.03665e+07
1.03703e+07
1.0374e+07
1.03778e+07
1.03816e+07
1.03854e+07
1.03893e+07
1.03931e+07
1.0397e+07
1.04009e+07
1.04049e+07
1.04088e+07
1.04128e+07
1.04168e+07
1.04208e+07
1.04249e+07
1.04289e+07
1.0433e+07
1.04372e+07
1.04413e+07
1.04455e+07
1.04497e+07
1.04539e+07
1.04581e+07
1.04623e+07
1.04665e+07
1.04708e+07
1.0475e+07
1.04793e+07
1.04835e+07
1.04877e+07
1.04919e+07
1.04961e+07
1.05002e+07
1.05042e+07
1.05082e+07
1.05121e+07
1.05158e+07
1.05194e+07
1.05229e+07
1.05261e+07
1.05292e+07
1.05319e+07
1.05344e+07
1.05365e+07
1.05382e+07
1.05394e+07
1.05401e+07
1.05403e+07
1.05398e+07
1.05386e+07
1.05368e+07
1.05341e+07
1.05306e+07
1.05263e+07
1.05212e+07
1.00512e+07
1.00513e+07
1.00514e+07
1.00516e+07
1.00518e+07
1.00521e+07
1.00524e+07
1.00528e+07
1.00533e+07
1.00539e+07
1.00545e+07
1.00551e+07
1.00559e+07
1.00567e+07
1.00575e+07
1.00584e+07
1.00594e+07
1.00605e+07
1.00616e+07
1.00628e+07
1.0064e+07
1.00653e+07
1.00667e+07
1.00681e+07
1.00696e+07
1.00712e+07
1.00728e+07
1.00745e+07
1.00762e+07
1.0078e+07
1.00798e+07
1.00817e+07
1.00836e+07
1.00856e+07
1.00877e+07
1.00897e+07
1.00919e+07
1.00941e+07
1.00963e+07
1.00985e+07
1.01009e+07
1.01032e+07
1.01056e+07
1.0108e+07
1.01105e+07
1.0113e+07
1.01155e+07
1.01181e+07
1.01207e+07
1.01233e+07
1.0126e+07
1.01286e+07
1.01314e+07
1.01341e+07
1.01369e+07
1.01396e+07
1.01425e+07
1.01453e+07
1.01482e+07
1.0151e+07
1.01539e+07
1.01569e+07
1.01598e+07
1.01628e+07
1.01657e+07
1.01687e+07
1.01717e+07
1.01748e+07
1.01778e+07
1.01809e+07
1.01839e+07
1.0187e+07
1.01901e+07
1.01932e+07
1.01964e+07
1.01995e+07
1.02027e+07
1.02058e+07
1.0209e+07
1.02122e+07
1.02154e+07
1.02186e+07
1.02218e+07
1.0225e+07
1.02283e+07
1.02315e+07
1.02348e+07
1.0238e+07
1.02413e+07
1.02446e+07
1.02479e+07
1.02512e+07
1.02545e+07
1.02579e+07
1.02612e+07
1.02645e+07
1.02679e+07
1.02713e+07
1.02746e+07
1.0278e+07
1.02814e+07
1.02848e+07
1.02882e+07
1.02917e+07
1.02951e+07
1.02986e+07
1.0302e+07
1.03055e+07
1.0309e+07
1.03125e+07
1.0316e+07
1.03195e+07
1.0323e+07
1.03266e+07
1.03301e+07
1.03337e+07
1.03373e+07
1.03409e+07
1.03445e+07
1.03481e+07
1.03518e+07
1.03554e+07
1.03591e+07
1.03628e+07
1.03665e+07
1.03703e+07
1.0374e+07
1.03778e+07
1.03816e+07
1.03854e+07
1.03893e+07
1.03931e+07
1.0397e+07
1.04009e+07
1.04049e+07
1.04088e+07
1.04128e+07
1.04168e+07
1.04208e+07
1.04249e+07
1.04289e+07
1.0433e+07
1.04372e+07
1.04413e+07
1.04455e+07
1.04497e+07
1.04539e+07
1.04581e+07
1.04623e+07
1.04665e+07
1.04708e+07
1.0475e+07
1.04793e+07
1.04835e+07
1.04877e+07
1.04919e+07
1.04961e+07
1.05002e+07
1.05043e+07
1.05082e+07
1.05121e+07
1.05159e+07
1.05195e+07
1.0523e+07
1.05263e+07
1.05293e+07
1.05321e+07
1.05345e+07
1.05367e+07
1.05384e+07
1.05396e+07
1.05404e+07
1.05405e+07
1.05401e+07
1.05389e+07
1.05371e+07
1.05344e+07
1.05309e+07
1.05266e+07
1.05214e+07
1.00504e+07
1.00505e+07
1.00506e+07
1.00508e+07
1.0051e+07
1.00513e+07
1.00517e+07
1.00521e+07
1.00526e+07
1.00532e+07
1.00538e+07
1.00544e+07
1.00552e+07
1.0056e+07
1.00569e+07
1.00578e+07
1.00588e+07
1.00599e+07
1.0061e+07
1.00622e+07
1.00635e+07
1.00648e+07
1.00662e+07
1.00677e+07
1.00692e+07
1.00708e+07
1.00724e+07
1.00741e+07
1.00758e+07
1.00776e+07
1.00795e+07
1.00814e+07
1.00833e+07
1.00853e+07
1.00874e+07
1.00895e+07
1.00916e+07
1.00938e+07
1.00961e+07
1.00984e+07
1.01007e+07
1.0103e+07
1.01054e+07
1.01079e+07
1.01104e+07
1.01129e+07
1.01154e+07
1.0118e+07
1.01206e+07
1.01232e+07
1.01259e+07
1.01286e+07
1.01313e+07
1.01341e+07
1.01368e+07
1.01396e+07
1.01424e+07
1.01453e+07
1.01482e+07
1.0151e+07
1.01539e+07
1.01569e+07
1.01598e+07
1.01628e+07
1.01658e+07
1.01688e+07
1.01718e+07
1.01748e+07
1.01778e+07
1.01809e+07
1.0184e+07
1.01871e+07
1.01902e+07
1.01933e+07
1.01964e+07
1.01995e+07
1.02027e+07
1.02059e+07
1.0209e+07
1.02122e+07
1.02154e+07
1.02186e+07
1.02218e+07
1.02251e+07
1.02283e+07
1.02315e+07
1.02348e+07
1.02381e+07
1.02413e+07
1.02446e+07
1.02479e+07
1.02512e+07
1.02546e+07
1.02579e+07
1.02612e+07
1.02646e+07
1.02679e+07
1.02713e+07
1.02747e+07
1.0278e+07
1.02814e+07
1.02849e+07
1.02883e+07
1.02917e+07
1.02951e+07
1.02986e+07
1.0302e+07
1.03055e+07
1.0309e+07
1.03125e+07
1.0316e+07
1.03195e+07
1.0323e+07
1.03266e+07
1.03301e+07
1.03337e+07
1.03373e+07
1.03409e+07
1.03445e+07
1.03481e+07
1.03518e+07
1.03555e+07
1.03591e+07
1.03628e+07
1.03666e+07
1.03703e+07
1.0374e+07
1.03778e+07
1.03816e+07
1.03854e+07
1.03893e+07
1.03931e+07
1.0397e+07
1.04009e+07
1.04049e+07
1.04088e+07
1.04128e+07
1.04168e+07
1.04208e+07
1.04249e+07
1.04289e+07
1.0433e+07
1.04372e+07
1.04413e+07
1.04455e+07
1.04497e+07
1.04539e+07
1.04581e+07
1.04623e+07
1.04666e+07
1.04708e+07
1.04751e+07
1.04793e+07
1.04836e+07
1.04878e+07
1.0492e+07
1.04962e+07
1.05003e+07
1.05044e+07
1.05083e+07
1.05122e+07
1.0516e+07
1.05197e+07
1.05232e+07
1.05265e+07
1.05295e+07
1.05323e+07
1.05348e+07
1.0537e+07
1.05387e+07
1.054e+07
1.05408e+07
1.0541e+07
1.05405e+07
1.05394e+07
1.05376e+07
1.05349e+07
1.05314e+07
1.05271e+07
1.05218e+07
1.00494e+07
1.00495e+07
1.00496e+07
1.00498e+07
1.005e+07
1.00503e+07
1.00507e+07
1.00511e+07
1.00516e+07
1.00522e+07
1.00528e+07
1.00535e+07
1.00543e+07
1.00551e+07
1.0056e+07
1.0057e+07
1.0058e+07
1.00591e+07
1.00603e+07
1.00615e+07
1.00628e+07
1.00642e+07
1.00656e+07
1.0067e+07
1.00686e+07
1.00702e+07
1.00718e+07
1.00736e+07
1.00753e+07
1.00771e+07
1.0079e+07
1.0081e+07
1.00829e+07
1.0085e+07
1.0087e+07
1.00892e+07
1.00913e+07
1.00936e+07
1.00958e+07
1.00981e+07
1.01005e+07
1.01028e+07
1.01053e+07
1.01077e+07
1.01102e+07
1.01127e+07
1.01153e+07
1.01179e+07
1.01205e+07
1.01231e+07
1.01258e+07
1.01285e+07
1.01313e+07
1.0134e+07
1.01368e+07
1.01396e+07
1.01424e+07
1.01453e+07
1.01481e+07
1.0151e+07
1.0154e+07
1.01569e+07
1.01598e+07
1.01628e+07
1.01658e+07
1.01688e+07
1.01718e+07
1.01748e+07
1.01779e+07
1.01809e+07
1.0184e+07
1.01871e+07
1.01902e+07
1.01933e+07
1.01965e+07
1.01996e+07
1.02027e+07
1.02059e+07
1.02091e+07
1.02123e+07
1.02155e+07
1.02187e+07
1.02219e+07
1.02251e+07
1.02284e+07
1.02316e+07
1.02349e+07
1.02381e+07
1.02414e+07
1.02447e+07
1.0248e+07
1.02513e+07
1.02546e+07
1.02579e+07
1.02613e+07
1.02646e+07
1.0268e+07
1.02713e+07
1.02747e+07
1.02781e+07
1.02815e+07
1.02849e+07
1.02883e+07
1.02917e+07
1.02952e+07
1.02986e+07
1.03021e+07
1.03055e+07
1.0309e+07
1.03125e+07
1.0316e+07
1.03195e+07
1.03231e+07
1.03266e+07
1.03302e+07
1.03337e+07
1.03373e+07
1.03409e+07
1.03445e+07
1.03482e+07
1.03518e+07
1.03555e+07
1.03591e+07
1.03628e+07
1.03666e+07
1.03703e+07
1.03741e+07
1.03778e+07
1.03816e+07
1.03854e+07
1.03893e+07
1.03931e+07
1.0397e+07
1.04009e+07
1.04049e+07
1.04088e+07
1.04128e+07
1.04168e+07
1.04208e+07
1.04249e+07
1.04289e+07
1.0433e+07
1.04372e+07
1.04413e+07
1.04455e+07
1.04497e+07
1.04539e+07
1.04581e+07
1.04623e+07
1.04666e+07
1.04708e+07
1.04751e+07
1.04794e+07
1.04836e+07
1.04879e+07
1.04921e+07
1.04963e+07
1.05004e+07
1.05045e+07
1.05085e+07
1.05124e+07
1.05162e+07
1.05199e+07
1.05234e+07
1.05267e+07
1.05298e+07
1.05326e+07
1.05352e+07
1.05374e+07
1.05391e+07
1.05405e+07
1.05413e+07
1.05415e+07
1.05411e+07
1.054e+07
1.05382e+07
1.05356e+07
1.05321e+07
1.05277e+07
1.05224e+07
1.00481e+07
1.00482e+07
1.00483e+07
1.00485e+07
1.00488e+07
1.00491e+07
1.00495e+07
1.00499e+07
1.00504e+07
1.0051e+07
1.00517e+07
1.00524e+07
1.00532e+07
1.0054e+07
1.0055e+07
1.0056e+07
1.0057e+07
1.00581e+07
1.00593e+07
1.00606e+07
1.00619e+07
1.00633e+07
1.00648e+07
1.00663e+07
1.00678e+07
1.00695e+07
1.00712e+07
1.00729e+07
1.00747e+07
1.00766e+07
1.00785e+07
1.00804e+07
1.00824e+07
1.00845e+07
1.00866e+07
1.00888e+07
1.0091e+07
1.00932e+07
1.00955e+07
1.00978e+07
1.01002e+07
1.01026e+07
1.0105e+07
1.01075e+07
1.011e+07
1.01126e+07
1.01151e+07
1.01177e+07
1.01204e+07
1.0123e+07
1.01257e+07
1.01284e+07
1.01312e+07
1.0134e+07
1.01368e+07
1.01396e+07
1.01424e+07
1.01453e+07
1.01481e+07
1.0151e+07
1.0154e+07
1.01569e+07
1.01599e+07
1.01628e+07
1.01658e+07
1.01688e+07
1.01718e+07
1.01749e+07
1.01779e+07
1.0181e+07
1.01841e+07
1.01872e+07
1.01903e+07
1.01934e+07
1.01965e+07
1.01997e+07
1.02028e+07
1.0206e+07
1.02092e+07
1.02123e+07
1.02155e+07
1.02187e+07
1.0222e+07
1.02252e+07
1.02284e+07
1.02317e+07
1.02349e+07
1.02382e+07
1.02415e+07
1.02448e+07
1.02481e+07
1.02514e+07
1.02547e+07
1.0258e+07
1.02613e+07
1.02647e+07
1.0268e+07
1.02714e+07
1.02748e+07
1.02782e+07
1.02815e+07
1.0285e+07
1.02884e+07
1.02918e+07
1.02952e+07
1.02987e+07
1.03021e+07
1.03056e+07
1.03091e+07
1.03126e+07
1.03161e+07
1.03196e+07
1.03231e+07
1.03266e+07
1.03302e+07
1.03338e+07
1.03373e+07
1.03409e+07
1.03446e+07
1.03482e+07
1.03518e+07
1.03555e+07
1.03592e+07
1.03629e+07
1.03666e+07
1.03703e+07
1.03741e+07
1.03778e+07
1.03816e+07
1.03855e+07
1.03893e+07
1.03931e+07
1.0397e+07
1.04009e+07
1.04049e+07
1.04088e+07
1.04128e+07
1.04168e+07
1.04208e+07
1.04249e+07
1.0429e+07
1.04331e+07
1.04372e+07
1.04413e+07
1.04455e+07
1.04497e+07
1.04539e+07
1.04581e+07
1.04624e+07
1.04666e+07
1.04709e+07
1.04752e+07
1.04794e+07
1.04837e+07
1.04879e+07
1.04922e+07
1.04964e+07
1.05005e+07
1.05046e+07
1.05087e+07
1.05126e+07
1.05164e+07
1.05201e+07
1.05237e+07
1.0527e+07
1.05302e+07
1.05331e+07
1.05356e+07
1.05379e+07
1.05397e+07
1.05411e+07
1.05419e+07
1.05422e+07
1.05419e+07
1.05408e+07
1.0539e+07
1.05364e+07
1.05329e+07
1.05285e+07
1.05232e+07
1.00466e+07
1.00466e+07
1.00468e+07
1.0047e+07
1.00472e+07
1.00476e+07
1.0048e+07
1.00484e+07
1.0049e+07
1.00496e+07
1.00503e+07
1.0051e+07
1.00518e+07
1.00527e+07
1.00537e+07
1.00547e+07
1.00558e+07
1.0057e+07
1.00582e+07
1.00595e+07
1.00609e+07
1.00623e+07
1.00638e+07
1.00653e+07
1.0067e+07
1.00686e+07
1.00704e+07
1.00721e+07
1.0074e+07
1.00759e+07
1.00778e+07
1.00798e+07
1.00819e+07
1.0084e+07
1.00861e+07
1.00883e+07
1.00905e+07
1.00928e+07
1.00951e+07
1.00975e+07
1.00999e+07
1.01023e+07
1.01048e+07
1.01073e+07
1.01098e+07
1.01124e+07
1.0115e+07
1.01176e+07
1.01202e+07
1.01229e+07
1.01256e+07
1.01284e+07
1.01311e+07
1.01339e+07
1.01367e+07
1.01395e+07
1.01424e+07
1.01453e+07
1.01481e+07
1.01511e+07
1.0154e+07
1.01569e+07
1.01599e+07
1.01629e+07
1.01659e+07
1.01689e+07
1.01719e+07
1.01749e+07
1.0178e+07
1.01811e+07
1.01842e+07
1.01872e+07
1.01904e+07
1.01935e+07
1.01966e+07
1.01997e+07
1.02029e+07
1.02061e+07
1.02092e+07
1.02124e+07
1.02156e+07
1.02188e+07
1.02221e+07
1.02253e+07
1.02285e+07
1.02318e+07
1.0235e+07
1.02383e+07
1.02416e+07
1.02448e+07
1.02481e+07
1.02514e+07
1.02548e+07
1.02581e+07
1.02614e+07
1.02648e+07
1.02681e+07
1.02715e+07
1.02748e+07
1.02782e+07
1.02816e+07
1.0285e+07
1.02884e+07
1.02919e+07
1.02953e+07
1.02987e+07
1.03022e+07
1.03056e+07
1.03091e+07
1.03126e+07
1.03161e+07
1.03196e+07
1.03232e+07
1.03267e+07
1.03302e+07
1.03338e+07
1.03374e+07
1.0341e+07
1.03446e+07
1.03482e+07
1.03519e+07
1.03555e+07
1.03592e+07
1.03629e+07
1.03666e+07
1.03703e+07
1.03741e+07
1.03779e+07
1.03817e+07
1.03855e+07
1.03893e+07
1.03932e+07
1.0397e+07
1.04009e+07
1.04049e+07
1.04088e+07
1.04128e+07
1.04168e+07
1.04208e+07
1.04249e+07
1.0429e+07
1.04331e+07
1.04372e+07
1.04413e+07
1.04455e+07
1.04497e+07
1.04539e+07
1.04582e+07
1.04624e+07
1.04667e+07
1.04709e+07
1.04752e+07
1.04795e+07
1.04838e+07
1.0488e+07
1.04923e+07
1.04965e+07
1.05007e+07
1.05048e+07
1.05089e+07
1.05128e+07
1.05167e+07
1.05204e+07
1.0524e+07
1.05274e+07
1.05306e+07
1.05335e+07
1.05362e+07
1.05385e+07
1.05404e+07
1.05418e+07
1.05427e+07
1.05431e+07
1.05428e+07
1.05418e+07
1.054e+07
1.05374e+07
1.05339e+07
1.05295e+07
1.05241e+07
1.00447e+07
1.00448e+07
1.00449e+07
1.00452e+07
1.00454e+07
1.00458e+07
1.00462e+07
1.00467e+07
1.00473e+07
1.00479e+07
1.00486e+07
1.00494e+07
1.00503e+07
1.00512e+07
1.00522e+07
1.00533e+07
1.00544e+07
1.00556e+07
1.00569e+07
1.00582e+07
1.00596e+07
1.00611e+07
1.00627e+07
1.00643e+07
1.00659e+07
1.00676e+07
1.00694e+07
1.00713e+07
1.00731e+07
1.00751e+07
1.00771e+07
1.00791e+07
1.00812e+07
1.00833e+07
1.00855e+07
1.00878e+07
1.009e+07
1.00923e+07
1.00947e+07
1.00971e+07
1.00995e+07
1.0102e+07
1.01045e+07
1.0107e+07
1.01095e+07
1.01121e+07
1.01148e+07
1.01174e+07
1.01201e+07
1.01228e+07
1.01255e+07
1.01283e+07
1.0131e+07
1.01338e+07
1.01367e+07
1.01395e+07
1.01424e+07
1.01453e+07
1.01482e+07
1.01511e+07
1.0154e+07
1.0157e+07
1.01599e+07
1.01629e+07
1.01659e+07
1.01689e+07
1.0172e+07
1.0175e+07
1.01781e+07
1.01812e+07
1.01842e+07
1.01873e+07
1.01904e+07
1.01936e+07
1.01967e+07
1.01998e+07
1.0203e+07
1.02062e+07
1.02093e+07
1.02125e+07
1.02157e+07
1.02189e+07
1.02222e+07
1.02254e+07
1.02286e+07
1.02319e+07
1.02351e+07
1.02384e+07
1.02417e+07
1.0245e+07
1.02482e+07
1.02515e+07
1.02549e+07
1.02582e+07
1.02615e+07
1.02649e+07
1.02682e+07
1.02716e+07
1.02749e+07
1.02783e+07
1.02817e+07
1.02851e+07
1.02885e+07
1.02919e+07
1.02954e+07
1.02988e+07
1.03023e+07
1.03057e+07
1.03092e+07
1.03127e+07
1.03162e+07
1.03197e+07
1.03232e+07
1.03267e+07
1.03303e+07
1.03339e+07
1.03374e+07
1.0341e+07
1.03446e+07
1.03483e+07
1.03519e+07
1.03556e+07
1.03592e+07
1.03629e+07
1.03666e+07
1.03704e+07
1.03741e+07
1.03779e+07
1.03817e+07
1.03855e+07
1.03893e+07
1.03932e+07
1.03971e+07
1.0401e+07
1.04049e+07
1.04088e+07
1.04128e+07
1.04168e+07
1.04208e+07
1.04249e+07
1.0429e+07
1.04331e+07
1.04372e+07
1.04414e+07
1.04455e+07
1.04497e+07
1.0454e+07
1.04582e+07
1.04625e+07
1.04667e+07
1.0471e+07
1.04753e+07
1.04796e+07
1.04839e+07
1.04882e+07
1.04924e+07
1.04967e+07
1.05009e+07
1.0505e+07
1.05091e+07
1.05131e+07
1.0517e+07
1.05208e+07
1.05244e+07
1.05279e+07
1.05311e+07
1.05341e+07
1.05368e+07
1.05392e+07
1.05411e+07
1.05427e+07
1.05437e+07
1.05441e+07
1.05438e+07
1.05429e+07
1.05412e+07
1.05386e+07
1.05351e+07
1.05307e+07
1.05252e+07
1.00426e+07
1.00427e+07
1.00428e+07
1.0043e+07
1.00433e+07
1.00437e+07
1.00441e+07
1.00447e+07
1.00453e+07
1.00459e+07
1.00467e+07
1.00475e+07
1.00484e+07
1.00494e+07
1.00504e+07
1.00516e+07
1.00528e+07
1.0054e+07
1.00554e+07
1.00568e+07
1.00582e+07
1.00598e+07
1.00614e+07
1.0063e+07
1.00647e+07
1.00665e+07
1.00684e+07
1.00702e+07
1.00722e+07
1.00742e+07
1.00762e+07
1.00783e+07
1.00805e+07
1.00826e+07
1.00849e+07
1.00871e+07
1.00895e+07
1.00918e+07
1.00942e+07
1.00966e+07
1.00991e+07
1.01016e+07
1.01041e+07
1.01067e+07
1.01093e+07
1.01119e+07
1.01145e+07
1.01172e+07
1.01199e+07
1.01226e+07
1.01254e+07
1.01282e+07
1.0131e+07
1.01338e+07
1.01366e+07
1.01395e+07
1.01424e+07
1.01453e+07
1.01482e+07
1.01511e+07
1.01541e+07
1.0157e+07
1.016e+07
1.0163e+07
1.0166e+07
1.0169e+07
1.01721e+07
1.01751e+07
1.01782e+07
1.01813e+07
1.01843e+07
1.01874e+07
1.01906e+07
1.01937e+07
1.01968e+07
1.02e+07
1.02031e+07
1.02063e+07
1.02095e+07
1.02127e+07
1.02159e+07
1.02191e+07
1.02223e+07
1.02255e+07
1.02287e+07
1.0232e+07
1.02352e+07
1.02385e+07
1.02418e+07
1.02451e+07
1.02484e+07
1.02517e+07
1.0255e+07
1.02583e+07
1.02616e+07
1.0265e+07
1.02683e+07
1.02717e+07
1.0275e+07
1.02784e+07
1.02818e+07
1.02852e+07
1.02886e+07
1.0292e+07
1.02955e+07
1.02989e+07
1.03023e+07
1.03058e+07
1.03093e+07
1.03128e+07
1.03163e+07
1.03198e+07
1.03233e+07
1.03268e+07
1.03304e+07
1.03339e+07
1.03375e+07
1.03411e+07
1.03447e+07
1.03483e+07
1.03519e+07
1.03556e+07
1.03593e+07
1.0363e+07
1.03667e+07
1.03704e+07
1.03741e+07
1.03779e+07
1.03817e+07
1.03855e+07
1.03893e+07
1.03932e+07
1.03971e+07
1.0401e+07
1.04049e+07
1.04089e+07
1.04128e+07
1.04168e+07
1.04209e+07
1.04249e+07
1.0429e+07
1.04331e+07
1.04372e+07
1.04414e+07
1.04456e+07
1.04498e+07
1.0454e+07
1.04582e+07
1.04625e+07
1.04668e+07
1.04711e+07
1.04754e+07
1.04797e+07
1.0484e+07
1.04883e+07
1.04926e+07
1.04968e+07
1.05011e+07
1.05052e+07
1.05094e+07
1.05134e+07
1.05174e+07
1.05212e+07
1.05249e+07
1.05284e+07
1.05317e+07
1.05348e+07
1.05375e+07
1.054e+07
1.0542e+07
1.05436e+07
1.05447e+07
1.05452e+07
1.05451e+07
1.05442e+07
1.05425e+07
1.054e+07
1.05365e+07
1.0532e+07
1.05265e+07
1.00401e+07
1.00402e+07
1.00404e+07
1.00406e+07
1.00409e+07
1.00413e+07
1.00418e+07
1.00423e+07
1.0043e+07
1.00437e+07
1.00445e+07
1.00454e+07
1.00463e+07
1.00474e+07
1.00485e+07
1.00497e+07
1.00509e+07
1.00522e+07
1.00536e+07
1.00551e+07
1.00566e+07
1.00582e+07
1.00599e+07
1.00616e+07
1.00634e+07
1.00653e+07
1.00672e+07
1.00691e+07
1.00711e+07
1.00732e+07
1.00753e+07
1.00774e+07
1.00796e+07
1.00819e+07
1.00842e+07
1.00865e+07
1.00888e+07
1.00912e+07
1.00937e+07
1.00962e+07
1.00987e+07
1.01012e+07
1.01038e+07
1.01064e+07
1.0109e+07
1.01116e+07
1.01143e+07
1.0117e+07
1.01197e+07
1.01225e+07
1.01253e+07
1.01281e+07
1.01309e+07
1.01337e+07
1.01366e+07
1.01395e+07
1.01424e+07
1.01453e+07
1.01482e+07
1.01511e+07
1.01541e+07
1.01571e+07
1.01601e+07
1.01631e+07
1.01661e+07
1.01691e+07
1.01722e+07
1.01752e+07
1.01783e+07
1.01814e+07
1.01845e+07
1.01876e+07
1.01907e+07
1.01938e+07
1.0197e+07
1.02001e+07
1.02033e+07
1.02064e+07
1.02096e+07
1.02128e+07
1.0216e+07
1.02192e+07
1.02224e+07
1.02257e+07
1.02289e+07
1.02321e+07
1.02354e+07
1.02387e+07
1.02419e+07
1.02452e+07
1.02485e+07
1.02518e+07
1.02551e+07
1.02584e+07
1.02618e+07
1.02651e+07
1.02684e+07
1.02718e+07
1.02752e+07
1.02785e+07
1.02819e+07
1.02853e+07
1.02887e+07
1.02921e+07
1.02956e+07
1.0299e+07
1.03024e+07
1.03059e+07
1.03094e+07
1.03128e+07
1.03163e+07
1.03198e+07
1.03234e+07
1.03269e+07
1.03304e+07
1.0334e+07
1.03376e+07
1.03411e+07
1.03447e+07
1.03484e+07
1.0352e+07
1.03556e+07
1.03593e+07
1.0363e+07
1.03667e+07
1.03704e+07
1.03742e+07
1.03779e+07
1.03817e+07
1.03855e+07
1.03894e+07
1.03932e+07
1.03971e+07
1.0401e+07
1.04049e+07
1.04089e+07
1.04128e+07
1.04168e+07
1.04209e+07
1.04249e+07
1.0429e+07
1.04331e+07
1.04373e+07
1.04414e+07
1.04456e+07
1.04498e+07
1.0454e+07
1.04583e+07
1.04626e+07
1.04668e+07
1.04712e+07
1.04755e+07
1.04798e+07
1.04841e+07
1.04884e+07
1.04927e+07
1.0497e+07
1.05013e+07
1.05055e+07
1.05097e+07
1.05138e+07
1.05178e+07
1.05216e+07
1.05254e+07
1.0529e+07
1.05324e+07
1.05355e+07
1.05384e+07
1.05409e+07
1.0543e+07
1.05447e+07
1.05459e+07
1.05465e+07
1.05464e+07
1.05456e+07
1.0544e+07
1.05415e+07
1.05381e+07
1.05336e+07
1.05281e+07
1.00373e+07
1.00374e+07
1.00376e+07
1.00378e+07
1.00382e+07
1.00386e+07
1.00391e+07
1.00397e+07
1.00404e+07
1.00412e+07
1.0042e+07
1.0043e+07
1.0044e+07
1.00451e+07
1.00463e+07
1.00475e+07
1.00489e+07
1.00503e+07
1.00517e+07
1.00533e+07
1.00549e+07
1.00566e+07
1.00583e+07
1.00601e+07
1.0062e+07
1.00639e+07
1.00659e+07
1.00679e+07
1.007e+07
1.00721e+07
1.00743e+07
1.00765e+07
1.00787e+07
1.0081e+07
1.00834e+07
1.00858e+07
1.00882e+07
1.00906e+07
1.00931e+07
1.00956e+07
1.00982e+07
1.01008e+07
1.01034e+07
1.0106e+07
1.01087e+07
1.01114e+07
1.01141e+07
1.01168e+07
1.01196e+07
1.01224e+07
1.01252e+07
1.0128e+07
1.01308e+07
1.01337e+07
1.01366e+07
1.01394e+07
1.01424e+07
1.01453e+07
1.01482e+07
1.01512e+07
1.01542e+07
1.01572e+07
1.01602e+07
1.01632e+07
1.01662e+07
1.01692e+07
1.01723e+07
1.01754e+07
1.01784e+07
1.01815e+07
1.01846e+07
1.01877e+07
1.01908e+07
1.0194e+07
1.01971e+07
1.02003e+07
1.02034e+07
1.02066e+07
1.02098e+07
1.0213e+07
1.02162e+07
1.02194e+07
1.02226e+07
1.02258e+07
1.02291e+07
1.02323e+07
1.02355e+07
1.02388e+07
1.02421e+07
1.02454e+07
1.02487e+07
1.02519e+07
1.02553e+07
1.02586e+07
1.02619e+07
1.02652e+07
1.02686e+07
1.02719e+07
1.02753e+07
1.02787e+07
1.0282e+07
1.02854e+07
1.02888e+07
1.02922e+07
1.02957e+07
1.02991e+07
1.03025e+07
1.0306e+07
1.03095e+07
1.03129e+07
1.03164e+07
1.03199e+07
1.03234e+07
1.0327e+07
1.03305e+07
1.03341e+07
1.03376e+07
1.03412e+07
1.03448e+07
1.03484e+07
1.03521e+07
1.03557e+07
1.03594e+07
1.0363e+07
1.03668e+07
1.03705e+07
1.03742e+07
1.0378e+07
1.03818e+07