/*--------------------------------*- C++ -*----------------------------------*\
  =========                 |
  \\      /  F ield         | OpenFOAM: The Open Source CFD Toolbox
   \\    /   O peration     | Website:  https://openfoam.org
    \\  /    A nd           | Version:  10
     \\/     M anipulation  |
\*---------------------------------------------------------------------------*/
FoamFile
{
    format      ascii;
    class       volScalarField;
    location    "24750";
    object      p;
}
// * * * * * * * * * * * * * * * * * * * * * * * * * * * * * * * * * * * * * //

dimensions      [1 -1 -2 0 0 0 0];

internalField   nonuniform List<scalar> 
3200
(
100.483
100.556
100.712
100.978
101.411
102.134
134.185
308.127
463.815
609.03
746.809
878.739
1005.8
1128.63
1247.73
1363.43
1476.02
1585.71
1692.7
1797.13
1899.15
1998.85
2096.35
2191.72
2285.05
2370.01
2440.61
2496.39
2542.75
2583.27
2620.04
2654.23
2686.49
2717.1
2746.1
2773.29
2798.22
2820.04
2837.41
2848.18
97.8758
97.92
98.0052
98.1237
98.2505
98.3105
98.0932
97.6299
97.2706
96.9773
96.728
96.5095
96.3137
96.135
95.9698
95.8151
95.6686
95.5287
95.3936
95.262
95.1327
95.0045
94.8762
94.7474
94.6074
93.6917
94.0263
105.38
126.605
152.913
181.742
211.746
242.256
273.012
304.032
335.57
368.139
402.563
440.054
475.315
95.1762
95.1927
95.2197
95.2449
95.2464
95.1908
95.0423
94.819
94.5857
94.3633
94.1568
93.9662
93.7896
93.6251
93.4708
93.3249
93.1859
93.0526
92.9238
92.7982
92.6748
92.552
92.4279
92.2995
92.1615
92.0064
91.97
91.9808
91.9745
91.9575
91.9334
91.9045
91.8722
91.8371
91.7998
91.7603
91.7185
91.6739
91.6088
91.3473
92.442
92.4417
92.4371
92.4204
92.3809
92.3072
92.1929
92.0456
91.882
91.7143
91.5491
91.3895
91.2368
91.0911
90.952
90.8189
90.6913
90.5685
90.4499
90.335
90.2233
90.1147
90.0093
89.9078
89.8124
89.7282
89.666
89.6201
89.581
89.5444
89.5086
89.4727
89.4364
89.3997
89.3626
89.3255
89.2884
89.2521
89.2172
89.0394
89.7084
89.7002
89.682
89.65
89.6001
89.5287
89.4351
89.3228
89.198
89.0666
88.9331
88.8003
88.6701
88.5434
88.4206
88.3019
88.1873
88.0766
87.9697
87.8666
87.7672
87.672
87.5812
87.4956
87.4163
87.3447
87.2817
87.2263
87.1767
87.1311
87.0882
87.0471
87.0075
86.9689
86.9312
86.8943
86.8584
86.8234
86.7896
86.621
86.992
86.981
86.9585
86.9231
86.8735
86.8091
86.7302
86.6391
86.5385
86.4319
86.3218
86.2105
86.0995
85.99
85.8827
85.7779
85.6761
85.5774
85.4819
85.3899
85.3014
85.2168
85.1364
85.0604
84.9893
84.9234
84.8626
84.8066
84.7548
84.7064
84.6608
84.6176
84.5762
84.5365
84.4982
84.4613
84.4255
84.391
84.3575
84.1959
84.2988
84.2874
84.2648
84.2308
84.1853
84.1285
84.0612
83.9849
83.9013
83.8124
83.72
83.6257
83.5306
83.4359
83.3422
83.2501
83.1601
83.0724
82.9873
82.905
82.8258
82.7498
82.6773
82.6084
82.5432
82.4817
82.4239
82.3696
82.3184
82.2701
82.2243
82.1807
82.139
82.0992
82.0609
82.0241
81.9886
81.9544
81.9214
81.7667
81.6295
81.6188
81.5978
81.5668
81.5263
81.4767
81.4188
81.3539
81.283
81.2076
81.1289
81.0481
80.9661
80.8838
80.8019
80.7209
80.6412
80.5633
80.4873
80.4135
80.3422
80.2735
80.2076
80.1445
80.0842
80.0268
79.9722
79.9203
79.8709
79.8239
79.7791
79.7362
79.6951
79.6558
79.618
79.5817
79.5467
79.513
79.4805
79.3325
78.9826
78.973
78.9541
78.9266
78.8909
78.8477
78.7977
78.7418
78.681
78.6163
78.5485
78.4786
78.4073
78.3354
78.2635
78.1919
78.1212
78.0517
77.9837
77.9174
77.8529
77.7905
77.7302
77.6721
77.6163
77.5628
77.5114
77.4622
77.415
77.3699
77.3265
77.2849
77.2449
77.2065
77.1695
77.1339
77.0996
77.0665
77.0346
76.8932
76.3561
76.3476
76.3309
76.3066
76.2754
76.2377
76.1942
76.1458
76.0931
76.0369
75.978
75.917
75.8546
75.7914
75.7279
75.6645
75.6015
75.5393
75.4781
75.4182
75.3597
75.3028
75.2475
75.194
75.1422
75.0922
75.044
74.9975
74.9527
74.9096
74.868
74.8279
74.7893
74.752
74.716
74.6813
74.6477
74.6153
74.584
74.4491
73.7477
73.7401
73.7255
73.7041
73.6767
73.6437
73.6058
73.5635
73.5175
73.4683
73.4167
73.3632
73.3082
73.2523
73.1959
73.1393
73.083
73.0271
72.9719
72.9175
72.8643
72.8122
72.7614
72.7119
72.6638
72.6171
72.5719
72.5281
72.4856
72.4446
72.4048
72.3663
72.3291
72.2931
72.2582
72.2244
72.1917
72.16
72.1293
72.0008
71.1552
71.1485
71.1356
71.1168
71.0927
71.0637
71.0304
70.9933
70.9528
70.9096
70.864
70.8166
70.7679
70.7182
70.6678
70.6171
70.5664
70.516
70.4659
70.4165
70.3678
70.32
70.2731
70.2273
70.1826
70.139
70.0965
70.0552
70.015
69.976
69.938
69.9012
69.8654
69.8306
69.7968
69.7641
69.7322
69.7012
69.6711
69.5489
68.5767
68.5708
68.5594
68.5428
68.5215
68.496
68.4665
68.4337
68.3979
68.3596
68.3192
68.277
68.2335
68.189
68.1438
68.0982
68.0524
68.0066
67.9611
67.9159
67.8713
67.8272
67.7839
67.7414
67.6997
67.6589
67.619
67.5801
67.542
67.5049
67.4687
67.4334
67.399
67.3655
67.3329
67.3011
67.2701
67.2399
67.2104
67.0941
66.0106
66.0053
65.9952
65.9806
65.9617
65.939
65.9129
65.8837
65.8519
65.8177
65.7816
65.7439
65.7049
65.6649
65.6241
65.5828
65.5412
65.4996
65.4579
65.4165
65.3754
65.3348
65.2946
65.2551
65.2161
65.1779
65.1404
65.1036
65.0675
65.0323
64.9977
64.964
64.9309
64.8987
64.8671
64.8362
64.8061
64.7766
64.7478
64.6374
63.4554
63.4508
63.4418
63.4287
63.4119
63.3917
63.3684
63.3423
63.3138
63.2832
63.2508
63.2169
63.1817
63.1455
63.1086
63.0711
63.0332
62.9951
62.9569
62.9188
62.8808
62.8432
62.8059
62.769
62.7326
62.6967
62.6613
62.6265
62.5924
62.5588
62.5258
62.4935
62.4618
62.4307
62.4002
62.3703
62.341
62.3123
62.2841
62.1794
60.91
60.9059
60.8978
60.8862
60.8711
60.853
60.8321
60.8087
60.7831
60.7556
60.7263
60.6957
60.6638
60.6309
60.5973
60.5631
60.5284
60.4934
60.4583
60.4231
60.388
60.353
60.3182
60.2837
60.2496
60.2158
60.1825
60.1496
60.1172
60.0852
60.0537
60.0228
59.9923
59.9623
59.9329
59.9039
59.8754
59.8474
59.8199
59.7208
58.3734
58.3697
58.3625
58.352
58.3384
58.3221
58.3033
58.2822
58.2591
58.2342
58.2077
58.1798
58.1509
58.1209
58.0902
58.0588
58.0269
57.9947
57.9623
57.9297
57.8971
57.8645
57.8321
57.7998
57.7677
57.7359
57.7044
57.6733
57.6425
57.612
57.5819
57.5523
57.523
57.4941
57.4657
57.4376
57.41
57.3827
57.3558
57.2623
55.8446
55.8413
55.8347
55.8253
55.8131
55.7983
55.7813
55.7622
55.7412
55.7186
55.6945
55.6691
55.6427
55.6152
55.5871
55.5582
55.5289
55.4991
55.4691
55.4389
55.4085
55.3782
55.3478
55.3175
55.2874
55.2574
55.2276
55.198
55.1688
55.1397
55.111
55.0826
55.0545
55.0267
54.9992
54.972
54.9452
54.9187
54.8925
54.8042
53.3229
53.3198
53.3139
53.3054
53.2943
53.2809
53.2655
53.2481
53.229
53.2084
53.1864
53.1632
53.139
53.1138
53.0879
53.0613
53.0342
53.0067
52.9788
52.9507
52.9224
52.8941
52.8656
52.8372
52.8088
52.7805
52.7523
52.7243
52.6964
52.6688
52.6413
52.6141
52.5871
52.5603
52.5338
52.5076
52.4816
52.4558
52.4303
52.3473
50.8075
50.8048
50.7994
50.7916
50.7816
50.7694
50.7553
50.7395
50.7221
50.7032
50.6831
50.6618
50.6396
50.6164
50.5925
50.568
50.5429
50.5174
50.4915
50.4653
50.4389
50.4124
50.3857
50.359
50.3322
50.3055
50.2789
50.2523
50.2258
50.1994
50.1732
50.1471
50.1212
50.0955
50.0699
50.0446
50.0194
49.9945
49.9696
49.8917
48.298
48.2955
48.2906
48.2835
48.2744
48.2633
48.2504
48.236
48.22
48.2028
48.1843
48.1647
48.1443
48.1229
48.1009
48.0782
48.055
48.0313
48.0072
47.9828
47.9581
47.9333
47.9082
47.8831
47.8579
47.8327
47.8075
47.7823
47.7571
47.732
47.707
47.682
47.6572
47.6325
47.6079
47.5834
47.5591
47.535
47.5109
47.438
45.7938
45.7915
45.787
45.7806
45.7722
45.7621
45.7503
45.7371
45.7225
45.7066
45.6896
45.6717
45.6528
45.6331
45.6127
45.5917
45.5702
45.5482
45.5258
45.503
45.48
45.4567
45.4333
45.4097
45.386
45.3622
45.3383
45.3145
45.2906
45.2667
45.2428
45.219
45.1953
45.1716
45.148
45.1244
45.101
45.0777
45.0543
44.9864
43.2944
43.2923
43.2882
43.2823
43.2746
43.2654
43.2546
43.2425
43.2291
43.2145
43.1989
43.1824
43.165
43.1468
43.128
43.1086
43.0886
43.0682
43.0473
43.0261
43.0046
42.9829
42.9609
42.9388
42.9165
42.8941
42.8716
42.849
42.8264
42.8037
42.781
42.7584
42.7357
42.713
42.6904
42.6678
42.6453
42.6228
42.6003
42.5372
40.7994
40.7974
40.7937
40.7883
40.7813
40.7728
40.763
40.7519
40.7396
40.7262
40.7119
40.6967
40.6806
40.6639
40.6465
40.6285
40.61
40.5911
40.5717
40.552
40.532
40.5117
40.4912
40.4704
40.4495
40.4285
40.4073
40.386
40.3647
40.3432
40.3217
40.3002
40.2786
40.257
40.2354
40.2138
40.1922
40.1706
40.1489
40.0906
38.3084
38.3066
38.3032
38.2983
38.2919
38.2841
38.2751
38.2649
38.2537
38.2414
38.2282
38.2143
38.1995
38.1841
38.1681
38.1515
38.1344
38.1169
38.0989
38.0806
38.062
38.0432
38.024
38.0047
37.9851
37.9654
37.9456
37.9256
37.9055
37.8853
37.865
37.8446
37.8242
37.8036
37.7831
37.7625
37.7419
37.7212
37.7004
37.6469
35.8211
35.8195
35.8164
35.8118
35.806
35.7989
35.7907
35.7814
35.7711
35.7599
35.7478
35.735
35.7214
35.7073
35.6925
35.6773
35.6615
35.6454
35.6288
35.6119
35.5947
35.5772
35.5594
35.5414
35.5233
35.5049
35.4864
35.4677
35.4489
35.4299
35.4109
35.3917
35.3725
35.3531
35.3337
35.3141
35.2945
35.2748
35.2551
35.2062
33.3371
33.3356
33.3328
33.3287
33.3234
33.3169
33.3094
33.3009
33.2915
33.2813
33.2703
33.2586
33.2462
33.2332
33.2197
33.2057
33.1913
33.1764
33.1612
33.1456
33.1298
33.1137
33.0973
33.0807
33.0639
33.0469
33.0297
33.0124
32.9949
32.9773
32.9595
32.9416
32.9236
32.9055
32.8872
32.8688
32.8504
32.8318
32.813
32.769
30.8562
30.8549
30.8523
30.8486
30.8438
30.8379
30.8311
30.8234
30.8148
30.8055
30.7955
30.7848
30.7736
30.7617
30.7494
30.7367
30.7235
30.7099
30.696
30.6818
30.6673
30.6525
30.6375
30.6223
30.6069
30.5913
30.5755
30.5596
30.5435
30.5272
30.5109
30.4943
30.4776
30.4608
30.4439
30.4267
30.4095
30.3921
30.3745
30.3353
28.3781
28.3769
28.3746
28.3712
28.3668
28.3615
28.3554
28.3484
28.3407
28.3322
28.3232
28.3135
28.3033
28.2926
28.2815
28.2699
28.258
28.2457
28.233
28.2201
28.207
28.1936
28.18
28.1662
28.1522
28.138
28.1237
28.1092
28.0945
28.0798
28.0648
28.0498
28.0345
28.0192
28.0036
27.9879
27.972
27.9559
27.9397
27.9053
25.9024
25.9013
25.8993
25.8963
25.8923
25.8876
25.882
25.8758
25.8688
25.8613
25.8531
25.8445
25.8353
25.8257
25.8156
25.8052
25.7945
25.7834
25.7721
25.7605
25.7487
25.7367
25.7244
25.712
25.6995
25.6868
25.674
25.661
25.6479
25.6347
25.6213
25.6079
25.5942
25.5805
25.5665
25.5524
25.5381
25.5235
25.5087
25.4792
23.429
23.4281
23.4262
23.4235
23.42
23.4158
23.4109
23.4053
23.3991
23.3924
23.3851
23.3774
23.3692
23.3606
23.3517
23.3425
23.3329
23.3231
23.313
23.3027
23.2922
23.2815
23.2707
23.2597
23.2486
23.2374
23.2261
23.2148
23.2033
23.1917
23.1801
23.1683
23.1565
23.1445
23.1324
23.1202
23.1077
23.095
23.0819
23.0576
20.9576
20.9568
20.9552
20.9528
20.9497
20.946
20.9416
20.9367
20.9312
20.9253
20.9189
20.9121
20.9049
20.8973
20.8895
20.8813
20.8729
20.8643
20.8554
20.8464
20.8372
20.8279
20.8185
20.8089
20.7993
20.7896
20.7799
20.7701
20.7603
20.7505
20.7406
20.7308
20.7209
20.711
20.7011
20.6911
20.681
20.6706
20.6599
20.6413
18.488
18.4873
18.4858
18.4838
18.4811
18.4778
18.4741
18.4698
18.465
18.4599
18.4543
18.4484
18.4421
18.4355
18.4287
18.4217
18.4144
18.4069
18.3992
18.3915
18.3835
18.3755
18.3674
18.3593
18.3511
18.3429
18.3347
18.3265
18.3184
18.3103
18.3023
18.2944
18.2866
18.279
18.2715
18.2642
18.2572
18.2505
18.2441
18.2333
16.0199
16.0193
16.0181
16.0163
16.014
16.0112
16.008
16.0043
16.0002
15.9958
15.991
15.986
15.9806
15.975
15.9692
15.9632
15.957
15.9506
15.9442
15.9376
15.9309
15.9241
15.9174
15.9106
15.9037
15.897
15.8902
15.8836
15.877
15.8705
15.8642
15.8581
15.8523
15.8466
15.8414
15.8365
15.832
15.8282
15.8251
15.8229
13.5531
13.5526
13.5516
13.5501
13.5482
13.5458
13.5431
13.5401
13.5367
13.533
13.529
13.5247
13.5203
13.5156
13.5108
13.5058
13.5006
13.4953
13.49
13.4845
13.479
13.4735
13.4679
13.4624
13.4569
13.4514
13.446
13.4407
13.4356
13.4305
13.4257
13.4211
13.4168
13.4128
13.4091
13.4059
13.4031
13.4008
13.3991
13.3982
11.0874
11.087
11.0862
11.085
11.0834
11.0815
11.0793
11.0768
11.0741
11.0711
11.0679
11.0645
11.0608
11.0571
11.0532
11.0491
11.045
11.0407
11.0364
11.0321
11.0277
11.0233
11.0189
11.0145
11.0102
11.0059
11.0017
10.9977
10.9937
10.99
10.9864
10.983
10.9799
10.977
10.9745
10.9723
10.9704
10.969
10.968
10.9674
8.62264
8.62231
8.62167
8.62075
8.61954
8.61808
8.61639
8.61447
8.61235
8.61004
8.60756
8.60492
8.60215
8.59925
8.59624
8.59314
8.58996
8.58672
8.58343
8.58011
8.57677
8.57343
8.57011
8.56681
8.56356
8.56038
8.55728
8.55428
8.5514
8.54866
8.54608
8.54368
8.54148
8.53949
8.53775
8.53626
8.53503
8.53408
8.53342
8.53304
6.15854
6.15831
6.15785
6.15719
6.15634
6.1553
6.1541
6.15274
6.15123
6.1496
6.14784
6.14597
6.144
6.14195
6.13982
6.13763
6.13539
6.13311
6.13079
6.12845
6.12611
6.12377
6.12145
6.11916
6.1169
6.1147
6.11257
6.11052
6.10856
6.1067
6.10497
6.10336
6.1019
6.1006
6.09946
6.09849
6.0977
6.0971
6.09668
6.09643
3.69493
3.69479
3.69452
3.69412
3.69361
3.693
3.69228
3.69146
3.69056
3.68959
3.68854
3.68742
3.68625
3.68503
3.68376
3.68245
3.68112
3.67976
3.67838
3.677
3.67561
3.67423
3.67286
3.67151
3.67018
3.66889
3.66764
3.66645
3.66531
3.66423
3.66323
3.66231
3.66148
3.66074
3.66009
3.65955
3.6591
3.65876
3.65853
3.65839
1.23161
1.23156
1.23147
1.23134
1.23117
1.23097
1.23073
1.23046
1.23016
1.22983
1.22948
1.22911
1.22872
1.22832
1.2279
1.22746
1.22702
1.22657
1.22611
1.22565
1.22519
1.22474
1.22428
1.22384
1.2234
1.22298
1.22257
1.22217
1.2218
1.22145
1.22112
1.22082
1.22055
1.22031
1.2201
1.21992
1.21978
1.21967
1.21959
1.21955
2849.63
2841.69
2827.28
2808.59
2787.03
2763.46
2738.4
2712.17
2684.86
2656.45
2626.71
2595.18
2560.94
2522.29
2476.1
2416.68
2339.37
2249.09
2156.48
2062.11
1965.95
1867.95
1768.06
1666.22
1562.38
1456.48
1348.43
1238.15
1125.54
1010.47
892.8
772.31
648.719
521.597
390.224
253.181
108.096
103.406
102.755
102.477
475.895
440.777
406.529
375.581
346.556
318.57
291.072
263.74
236.425
209.131
182.041
155.611
130.763
109.284
94.5878
93.2055
94.0939
94.4636
94.6416
94.8093
94.9705
95.1283
95.2853
95.4436
95.6052
95.7721
95.9462
96.13
96.326
96.5376
96.7692
97.0267
97.3186
97.6578
98.0648
98.5741
99.2305
99.4891
99.4805
99.4386
91.3055
91.4155
91.4746
91.526
91.5737
91.6185
91.6609
91.7008
91.7381
91.7725
91.803
91.8284
91.8465
91.8534
91.8432
91.8051
91.9357
92.0931
92.2446
92.3927
92.5392
92.6856
92.8333
92.9837
93.138
93.2976
93.4641
93.6392
93.8249
94.0234
94.2376
94.4705
94.726
95.0073
95.3158
95.6452
95.9643
96.1755
96.2763
96.3123
88.9561
89.0275
89.0659
89.1058
89.1464
89.1871
89.2274
89.2671
89.3061
89.3442
89.3813
89.4175
89.4533
89.4899
89.5305
89.5824
89.6625
89.7626
89.8745
89.994
90.1188
90.2481
90.3815
90.5191
90.6616
90.8095
90.9636
91.1249
91.2946
91.4736
91.6632
91.8642
92.0768
92.2999
92.5291
92.755
92.9592
93.1156
93.2147
93.2616
86.5451
86.6129
86.6489
86.6859
86.724
86.763
86.8027
86.843
86.884
86.9257
86.9684
87.0126
87.0591
87.1091
87.1646
87.228
87.302
87.3866
87.4803
87.5818
87.6898
87.8035
87.9224
88.0462
88.1751
88.3091
88.4485
88.5936
88.7448
88.9023
89.0661
89.2358
89.4102
89.5867
89.761
89.9261
90.0724
90.189
90.269
90.3095
84.1259
84.1916
84.2267
84.2629
84.3003
84.3388
84.3785
84.4195
84.4618
84.5057
84.5514
84.5994
84.6502
84.7046
84.7635
84.8279
84.8986
84.9759
85.0597
85.1497
85.2454
85.3464
85.4525
85.5633
85.6786
85.7984
85.9227
86.0513
86.184
86.3207
86.4607
86.6029
86.746
86.8873
87.0233
87.1494
87.2597
87.3484
87.4106
87.4429
81.7021
81.7657
81.8003
81.836
81.8729
81.9111
81.9508
81.9919
82.0347
82.0793
82.126
82.175
82.2268
82.2817
82.3403
82.4029
82.4701
82.542
82.6187
82.7002
82.7863
82.877
82.9719
83.0708
83.1737
83.2801
83.39
83.503
83.6187
83.7365
83.8557
83.9751
84.0932
84.2078
84.3163
84.4154
84.5013
84.5702
84.6188
84.6441
79.2736
79.3351
79.3692
79.4043
79.4407
79.4785
79.5178
79.5586
79.6011
79.6454
79.6918
79.7403
79.7913
79.845
79.9017
79.9617
80.025
80.092
80.1628
80.2372
80.3154
80.3971
80.4823
80.5708
80.6624
80.7568
80.8536
80.9525
81.0531
81.1546
81.2562
81.3568
81.4551
81.5493
81.6374
81.717
81.7854
81.8401
81.8785
81.8986
76.84
76.8996
76.933
76.9675
77.0033
77.0405
77.079
77.1191
77.1608
77.2042
77.2495
77.2967
77.3461
77.3979
77.452
77.5088
77.5684
77.6308
77.6961
77.7643
77.8355
77.9095
77.9862
78.0654
78.147
78.2307
78.316
78.4027
78.4901
78.5777
78.6646
78.75
78.8325
78.9108
78.9834
79.0484
79.104
79.1482
79.1791
79.1952
74.4015
74.4591
74.4919
74.5258
74.5609
74.5972
74.6349
74.674
74.7145
74.7566
74.8004
74.8459
74.8933
74.9426
74.994
75.0476
75.1033
75.1614
75.2217
75.2844
75.3493
75.4164
75.4856
75.5567
75.6296
75.7038
75.7792
75.8552
75.9315
76.0073
76.0821
76.155
76.2249
76.2908
76.3513
76.4053
76.4511
76.4873
76.5127
76.5258
71.9585
72.0142
72.0464
72.0795
72.1138
72.1492
72.1859
72.2238
72.263
72.3036
72.3457
72.3893
72.4345
72.4813
72.5299
72.5802
72.6323
72.6862
72.742
72.7996
72.8589
72.9199
72.9825
73.0465
73.1116
73.1777
73.2444
73.3114
73.3782
73.4442
73.5089
73.5715
73.6313
73.6872
73.7384
73.7837
73.822
73.8522
73.8732
73.8842
69.5116
69.5654
69.597
69.6293
69.6628
69.6972
69.7327
69.7694
69.8072
69.8463
69.8866
69.9282
69.9711
70.0155
70.0612
70.1084
70.1571
70.2072
70.2588
70.3118
70.3661
70.4216
70.4783
70.536
70.5945
70.6535
70.7128
70.7721
70.8308
70.8886
70.9449
70.9991
71.0506
71.0986
71.1422
71.1807
71.2131
71.2386
71.2563
71.2655
67.0616
67.1135
67.1444
67.176
67.2085
67.2419
67.2763
67.3117
67.3481
67.3856
67.4241
67.4637
67.5045
67.5464
67.5895
67.6337
67.6792
67.7257
67.7735
67.8223
67.8721
67.9228
67.9743
68.0265
68.0792
68.1321
68.185
68.2376
68.2895
68.3404
68.3897
68.437
68.4817
68.5232
68.5607
68.5937
68.6215
68.6432
68.6583
68.6661
64.6092
64.6592
64.6894
64.7202
64.7518
64.7842
64.8175
64.8516
64.8866
64.9224
64.9592
64.9969
65.0355
65.0751
65.1157
65.1572
65.1996
65.243
65.2872
65.3322
65.3779
65.4243
65.4713
65.5187
65.5662
65.6138
65.6613
65.7082
65.7543
65.7994
65.8428
65.8844
65.9235
65.9596
65.9922
66.0208
66.0448
66.0635
66.0765
66.0832
62.1551
62.2032
62.2327
62.2627
62.2934
62.3248
62.3569
62.3898
62.4233
62.4577
62.4927
62.5286
62.5652
62.6026
62.6408
62.6797
62.7194
62.7597
62.8007
62.8424
62.8845
62.9271
62.97
63.0131
63.0562
63.0992
63.1419
63.1839
63.2252
63.2652
63.3038
63.3405
63.3749
63.4066
63.4352
63.4601
63.481
63.4973
63.5086
63.5144
59.7
59.7463
59.775
59.8042
59.834
59.8644
59.8954
59.927
59.9592
59.992
60.0255
60.0596
60.0943
60.1296
60.1656
60.2021
60.2392
60.2768
60.3149
60.3535
60.3923
60.4315
60.4708
60.5101
60.5494
60.5884
60.6269
60.6648
60.7018
60.7376
60.772
60.8046
60.8351
60.8631
60.8883
60.9103
60.9286
60.9429
60.9528
60.9579
57.2446
57.289
57.3169
57.3453
57.3742
57.4036
57.4335
57.4638
57.4947
57.5261
57.558
57.5904
57.6233
57.6567
57.6906
57.7249
57.7597
57.7948
57.8303
57.866
57.9019
57.938
57.9741
58.0101
58.046
58.0814
58.1164
58.1506
58.184
58.2162
58.247
58.2761
58.3033
58.3283
58.3506
58.37
58.3862
58.3989
58.4076
58.412
54.7895
54.8319
54.8591
54.8866
54.9146
54.943
54.9717
55.0009
55.0305
55.0605
55.0909
55.1218
55.153
55.1845
55.2165
55.2487
55.2813
55.3141
55.3472
55.3803
55.4136
55.447
55.4802
55.5133
55.5461
55.5784
55.6102
55.6413
55.6715
55.7005
55.7283
55.7544
55.7788
55.8011
55.8211
55.8384
55.8528
55.864
55.8717
55.8757
52.335
52.3755
52.402
52.4287
52.4557
52.483
52.5107
52.5387
52.5671
52.5957
52.6247
52.654
52.6836
52.7134
52.7435
52.7739
52.8044
52.8351
52.8659
52.8968
52.9277
52.9585
52.9892
53.0196
53.0497
53.0793
53.1083
53.1366
53.164
53.1904
53.2154
53.239
53.261
53.281
53.2989
53.3144
53.3273
53.3373
53.3442
53.3477
49.8818
49.9204
49.946
49.9718
49.9979
50.0242
50.0508
50.0777
50.1048
50.1322
50.1597
50.1875
50.2156
50.2438
50.2722
50.3007
50.3293
50.3581
50.3868
50.4156
50.4443
50.4728
50.5011
50.5292
50.5568
50.584
50.6106
50.6364
50.6614
50.6853
50.708
50.7294
50.7492
50.7673
50.7834
50.7973
50.8089
50.8179
50.8241
50.8272
47.4301
47.4668
47.4915
47.5165
47.5416
47.5669
47.5924
47.6181
47.644
47.6701
47.6963
47.7227
47.7492
47.7759
47.8026
47.8294
47.8563
47.8832
47.91
47.9368
47.9634
47.9899
48.0161
48.042
48.0675
48.0924
48.1168
48.1404
48.1632
48.185
48.2057
48.2251
48.243
48.2594
48.2739
48.2865
48.2969
48.305
48.3106
48.3135
44.9803
45.0151
45.0389
45.0629
45.0871
45.1114
45.1358
45.1604
45.185
45.2098
45.2347
45.2597
45.2848
45.3099
45.3351
45.3603
45.3855
45.4106
45.4357
45.4606
45.4853
45.5099
45.5341
45.558
45.5815
45.6044
45.6268
45.6484
45.6693
45.6892
45.708
45.7256
45.742
45.7568
45.77
45.7814
45.7908
45.7981
45.8031
45.8057
42.5327
42.5655
42.5885
42.6116
42.6347
42.6579
42.6812
42.7046
42.7281
42.7516
42.7752
42.7988
42.8225
42.8461
42.8698
42.8934
42.917
42.9404
42.9638
42.987
43.01
43.0327
43.0551
43.0772
43.0988
43.1199
43.1404
43.1603
43.1793
43.1975
43.2147
43.2308
43.2456
43.2591
43.271
43.2814
43.2899
43.2966
43.3011
43.3034
40.0876
40.1185
40.1405
40.1625
40.1846
40.2067
40.2289
40.2511
40.2734
40.2956
40.3179
40.3402
40.3624
40.3846
40.4068
40.4289
40.4508
40.4727
40.4944
40.516
40.5373
40.5583
40.579
40.5994
40.6193
40.6387
40.6575
40.6757
40.6931
40.7097
40.7254
40.7401
40.7536
40.7658
40.7767
40.7861
40.7938
40.7998
40.804
40.8061
37.6452
37.674
37.695
37.716
37.737
37.758
37.779
37.8
37.821
37.842
37.8629
37.8838
37.9046
37.9254
37.9461
37.9667
37.9871
38.0075
38.0276
38.0475
38.0672
38.0866
38.1057
38.1245
38.1427
38.1606
38.1778
38.1945
38.2104
38.2256
38.2399
38.2532
38.2655
38.2767
38.2866
38.2951
38.3021
38.3075
38.3113
38.3132
35.2056
35.2324
35.2524
35.2723
35.2921
35.312
35.3317
35.3515
35.3712
35.3908
35.4104
35.4299
35.4493
35.4686
35.4878
35.5069
35.5258
35.5446
35.5632
35.5816
35.5998
35.6176
35.6352
35.6523
35.6691
35.6854
35.7012
35.7164
35.7309
35.7448
35.7578
35.7699
35.7811
35.7912
35.8002
35.8079
35.8143
35.8192
35.8226
35.8244
32.7691
32.7939
32.8127
32.8314
32.85
32.8686
32.8871
32.9055
32.9239
32.9421
32.9603
32.9783
32.9963
33.0141
33.0319
33.0494
33.0669
33.0842
33.1012
33.1181
33.1347
33.1511
33.1671
33.1828
33.1981
33.213
33.2274
33.2412
33.2545
33.267
33.2789
33.2899
33.3
33.3092
33.3173
33.3243
33.3301
33.3346
33.3376
33.3392
30.3359
30.3585
30.3761
30.3935
30.4109
30.4281
30.4452
30.4622
30.4791
30.4959
30.5126
30.5292
30.5456
30.562
30.5782
30.5943
30.6102
30.626
30.6415
30.6569
30.672
30.6869
30.7015
30.7158
30.7297
30.7432
30.7562
30.7688
30.7808
30.7922
30.8029
30.8128
30.822
30.8303
30.8376
30.8439
30.8492
30.8532
30.856
30.8574
27.9062
27.9266
27.9428
27.9589
27.9748
27.9905
28.0061
28.0216
28.037
28.0522
28.0673
28.0823
28.0972
28.112
28.1267
28.1412
28.1556
28.1699
28.1839
28.1978
28.2115
28.2249
28.2381
28.251
28.2636
28.2757
28.2875
28.2988
28.3096
28.3199
28.3295
28.3385
28.3467
28.3542
28.3608
28.3665
28.3711
28.3748
28.3772
28.3785
25.4804
25.4984
25.5131
25.5276
25.5418
25.5559
25.5698
25.5836
25.5972
25.6108
25.6242
25.6376
25.6509
25.664
25.6771
25.6901
25.7029
25.7157
25.7283
25.7407
25.7529
25.765
25.7767
25.7883
25.7995
25.8104
25.821
25.8311
25.8407
25.8499
25.8585
25.8666
25.8739
25.8806
25.8865
25.8916
25.8958
25.899
25.9012
25.9024
23.0589
23.0743
23.0871
23.0996
23.1119
23.124
23.136
23.1479
23.1597
23.1714
23.1831
23.1947
23.2063
23.2178
23.2293
23.2406
23.252
23.2632
23.2743
23.2853
23.2961
23.3067
23.3172
23.3274
23.3373
23.347
23.3564
23.3653
23.3739
23.3821
23.3897
23.3968
23.4034
23.4093
23.4145
23.419
23.4227
23.4256
23.4276
23.4286
20.6426
20.6547
20.6649
20.675
20.6848
20.6946
20.7043
20.7141
20.7239
20.7336
20.7434
20.7533
20.7631
20.773
20.7828
20.7926
20.8024
20.8121
20.8217
20.8313
20.8407
20.85
20.8592
20.8681
20.8768
20.8853
20.8935
20.9014
20.9089
20.9161
20.9228
20.9291
20.9348
20.94
20.9446
20.9486
20.9518
20.9543
20.9561
20.9569
18.2329
18.2399
18.2462
18.2527
18.2595
18.2666
18.2739
18.2814
18.289
18.2968
18.3047
18.3128
18.3209
18.3291
18.3373
18.3456
18.3539
18.3621
18.3704
18.3785
18.3866
18.3946
18.4025
18.4102
18.4177
18.4251
18.4322
18.439
18.4455
18.4517
18.4576
18.463
18.468
18.4725
18.4765
18.4799
18.4827
18.4849
18.4864
18.4872
15.8225
15.8237
15.8261
15.8294
15.8334
15.838
15.843
15.8484
15.8541
15.86
15.8662
15.8725
15.8791
15.8857
15.8924
15.8992
15.9061
15.913
15.9199
15.9267
15.9335
15.9403
15.9469
15.9535
15.9599
15.9661
15.9721
15.9779
15.9835
15.9888
15.9938
15.9984
16.0026
16.0065
16.0099
16.0128
16.0152
16.0171
16.0184
16.019
13.3979
13.3984
13.3996
13.4014
13.4039
13.4068
13.4102
13.414
13.4181
13.4225
13.4272
13.4321
13.4372
13.4424
13.4478
13.4533
13.4588
13.4644
13.47
13.4756
13.4812
13.4868
13.4923
13.4977
13.503
13.5082
13.5132
13.518
13.5226
13.527
13.5312
13.535
13.5386
13.5418
13.5446
13.5471
13.5491
13.5507
13.5517
13.5523
10.9672
10.9675
10.9682
10.9693
10.9709
10.9729
10.9752
10.9778
10.9808
10.984
10.9875
10.9911
10.995
10.999
11.0031
11.0074
11.0117
11.0161
11.0206
11.025
11.0295
11.0339
11.0383
11.0426
11.0469
11.0511
11.0551
11.059
11.0627
11.0663
11.0696
11.0727
11.0756
11.0782
11.0805
11.0825
11.0841
11.0854
11.0862
11.0867
8.53293
8.5331
8.53355
8.5343
8.53533
8.53664
8.53821
8.54004
8.5421
8.54438
8.54686
8.54951
8.55232
8.55527
8.55833
8.56149
8.56473
8.56804
8.57138
8.57475
8.57813
8.58151
8.58486
8.58817
8.59143
8.59461
8.59771
8.6007
8.60357
8.6063
8.60887
8.61127
8.61348
8.61548
8.61725
8.61877
8.62003
8.621
8.62167
8.62201
6.09636
6.09647
6.09676
6.09723
6.09789
6.09873
6.09975
6.10095
6.10231
6.10383
6.10549
6.10728
6.10919
6.1112
6.1133
6.11548
6.11772
6.12002
6.12235
6.1247
6.12707
6.12944
6.1318
6.13413
6.13642
6.13867
6.14086
6.14297
6.145
6.14693
6.14875
6.15045
6.15202
6.15344
6.15469
6.15577
6.15666
6.15735
6.15782
6.15807
3.65835
3.65841
3.65857
3.65883
3.6592
3.65968
3.66026
3.66093
3.66171
3.66258
3.66353
3.66457
3.66567
3.66684
3.66807
3.66935
3.67066
3.67201
3.67339
3.67478
3.67618
3.67758
3.67898
3.68037
3.68173
3.68307
3.68437
3.68563
3.68684
3.68799
3.68908
3.69009
3.69103
3.69187
3.69262
3.69327
3.6938
3.69421
3.69449
3.69464
1.21954
1.21956
1.21961
1.21969
1.21981
1.21996
1.22015
1.22037
1.22062
1.22091
1.22122
1.22156
1.22192
1.2223
1.22271
1.22313
1.22356
1.22401
1.22446
1.22492
1.22538
1.22585
1.22631
1.22677
1.22722
1.22767
1.2281
1.22852
1.22892
1.2293
1.22966
1.23
1.23031
1.23059
1.23084
1.23106
1.23123
1.23137
1.23146
1.23151
)
;

boundaryField
{
    top
    {
        type            fixedValue;
        value           uniform 0;
    }
    inlet
    {
        type            darcyGradPressure;
        gradient        nonuniform List<scalar> 
80
(
9.81
9.81
9.81
9.81
9.81
9.81
452.331
9329.95
9650.25
9729.11
9761.55
9778.04
9787.51
9793.41
9797.31
9800.01
9801.95
9803.38
9804.47
9805.31
9805.98
9806.51
9806.94
9807.3
9807.61
9807.84
9808.02
9808.16
9808.28
9808.38
9808.47
9808.55
9808.62
9808.67
9808.73
9808.78
9808.82
9808.87
9808.92
9808.98
9809.7
9809.68
9809.66
9809.65
9809.63
9809.62
9809.6
9809.58
9809.56
9809.54
9809.51
9809.48
9809.45
9809.41
9809.36
9809.31
9809.23
9809.13
9809.01
9808.87
9808.7
9808.48
9808.22
9807.87
9807.42
9806.83
9806.02
9804.9
9803.26
9800.8
9796.88
9790.18
9777.55
9749.83
9668.9
9125.68
37.1326
9.81
9.81
9.81
)
;
        value           nonuniform List<scalar> 
80
(
101.709
101.782
101.938
102.204
102.638
103.36
190.727
1474.37
1670.1
1825.17
1967
2100.99
2229.23
2352.81
2472.39
2588.43
2701.26
2811.14
2918.26
3022.8
3124.89
3224.66
3322.21
3417.64
3511
3595.99
3666.62
3722.41
3768.78
3809.32
3846.09
3880.3
3912.56
3943.18
3972.19
3999.39
4024.32
4046.15
4063.53
4074.3
4075.84
4067.9
4053.49
4034.8
4013.23
3989.66
3964.6
3938.36
3911.05
3882.64
3852.9
3821.37
3787.12
3748.46
3702.27
3642.84
3565.52
3475.23
3382.61
3288.22
3192.04
3094.01
2994.09
2892.21
2788.31
2682.33
2574.18
2463.76
2350.95
2235.57
2117.41
1996.08
1870.91
1740.33
1598.84
1393.89
112.737
104.633
103.982
103.703
)
;
    }
    axis
    {
        type            darcyGradPressure;
        gradient        uniform -0;
        value           nonuniform List<scalar> 
80
(
100.483
97.8758
95.1762
92.442
89.7084
86.992
84.2988
81.6295
78.9826
76.3561
73.7477
71.1552
68.5767
66.0106
63.4554
60.91
58.3734
55.8446
53.3229
50.8075
48.298
45.7938
43.2944
40.7994
38.3084
35.8211
33.3371
30.8562
28.3781
25.9024
23.429
20.9576
18.488
16.0199
13.5531
11.0874
8.62264
6.15854
3.69493
1.23161
102.477
99.4386
96.3123
93.2616
90.3095
87.4429
84.6441
81.8986
79.1952
76.5258
73.8842
71.2655
68.6661
66.0832
63.5144
60.9579
58.412
55.8757
53.3477
50.8272
48.3135
45.8057
43.3034
40.8061
38.3132
35.8244
33.3392
30.8574
28.3785
25.9024
23.4286
20.9569
18.4872
16.019
13.5523
11.0867
8.62201
6.15807
3.69464
1.23151
)
;
    }
    frontAndBack
    {
        type            empty;
    }
}


// ************************************************************************* //
