/*--------------------------------*- C++ -*----------------------------------*\
  =========                 |
  \\      /  F ield         | OpenFOAM: The Open Source CFD Toolbox
   \\    /   O peration     | Website:  https://openfoam.org
    \\  /    A nd           | Version:  10
     \\/     M anipulation  |
\*---------------------------------------------------------------------------*/
FoamFile
{
    format      ascii;
    class       surfaceScalarField;
    location    "24750";
    object      phi;
}
// * * * * * * * * * * * * * * * * * * * * * * * * * * * * * * * * * * * * * //

dimensions      [0 3 -1 0 0 0 0];

internalField   nonuniform List<scalar> 
6280
(
-6.0457e-07
6.0457e-07
-1.3109e-06
7.06333e-07
-2.27315e-06
9.62244e-07
-3.76662e-06
1.49347e-06
-6.35163e-06
2.58501e-06
-1.12327e-05
4.88107e-06
-1.56325e-05
4.39983e-06
-1.5978e-05
3.45473e-07
-1.61997e-05
2.21727e-07
-1.63646e-05
1.64852e-07
-1.64935e-05
1.28946e-07
-1.65976e-05
1.04027e-07
-1.66834e-05
8.58587e-08
-1.67556e-05
7.21618e-08
-1.68171e-05
6.15651e-08
-1.68703e-05
5.31907e-08
-1.69168e-05
4.64521e-08
-1.69577e-05
4.09455e-08
-1.69941e-05
3.63851e-08
-1.70267e-05
3.25635e-08
-1.7056e-05
2.93273e-08
-1.70826e-05
2.65615e-08
-1.71067e-05
2.4178e-08
-1.71288e-05
2.21037e-08
-1.59453e-05
-1.18355e-06
-1.35348e-05
-2.41051e-06
-1.09167e-05
-2.61804e-06
-9.26261e-06
-1.65413e-06
-8.26173e-06
-1.00089e-06
-7.64732e-06
-6.14412e-07
-7.25393e-06
-3.93385e-07
-6.97861e-06
-2.75319e-07
-6.75267e-06
-2.25938e-07
-6.52244e-06
-2.30229e-07
-6.23491e-06
-2.87532e-07
-5.82474e-06
-4.10175e-07
-5.19949e-06
-6.25246e-07
-4.2195e-06
-9.79989e-07
-2.66653e-06
-1.55297e-06
-2.25738e-06
-4.09149e-07
-3.63795e-07
9.68365e-07
-7.15323e-07
1.05786e-06
-1.01251e-06
1.25943e-06
-1.10289e-06
1.58385e-06
-5.30997e-07
2.01312e-06
1.958e-06
2.39207e-06
4.25004e-06
2.1078e-06
3.3553e-06
1.24021e-06
2.78716e-06
7.89868e-07
2.41249e-06
5.39523e-07
2.1521e-06
3.89332e-07
1.96348e-06
2.92643e-07
1.82294e-06
2.26399e-07
1.71664e-06
1.7847e-07
1.63614e-06
1.42055e-07
1.57624e-06
1.13098e-07
1.53366e-06
8.90291e-08
1.50647e-06
6.81318e-08
1.49363e-06
4.92329e-08
1.4946e-06
3.15904e-08
1.50895e-06
1.49744e-08
1.53549e-06
2.30779e-11
1.57057e-06
-1.08986e-08
1.60453e-06
-1.18571e-08
4.38028e-07
-1.70492e-08
-4.46304e-08
-1.92785e-06
-1.68466e-06
-9.78009e-07
-3.34239e-06
3.58896e-09
-4.35019e-06
6.92039e-09
-4.97355e-06
8.94768e-09
-5.37693e-06
9.98565e-09
-5.66262e-06
1.03776e-08
-5.89893e-06
1.03659e-08
-6.13926e-06
1.01008e-08
-6.43645e-06
9.6623e-09
-6.8557e-06
9.07291e-09
-7.48924e-06
8.2934e-09
-8.47406e-06
4.8308e-09
-8.29403e-06
-1.73299e-06
-1.039e-05
-1.61459e-07
-1.35568e-07
1.10393e-06
-2.26607e-07
1.1489e-06
-2.15422e-07
1.24824e-06
-1.34916e-08
1.38192e-06
4.92239e-07
1.50739e-06
1.3385e-06
1.5458e-06
2.04847e-06
1.39783e-06
2.17822e-06
1.11046e-06
2.11418e-06
8.53905e-07
1.99755e-06
6.56159e-07
1.87757e-06
5.09309e-07
1.77004e-06
4.00175e-07
1.67876e-06
3.17673e-07
1.60351e-06
2.53716e-07
1.54294e-06
2.02625e-07
1.49564e-06
1.60398e-07
1.46055e-06
1.24128e-07
1.4371e-06
9.15741e-08
1.4255e-06
6.08401e-08
1.42702e-06
3.00706e-08
1.44491e-06
-2.91574e-09
1.48614e-06
-4.1215e-08
1.56518e-06
-8.99352e-08
1.71169e-06
-1.58369e-07
1.95902e-06
-2.6438e-07
4.68993e-07
-4.37818e-07
-1.42331e-07
-3.66684e-07
8.3765e-08
-2.22507e-07
2.31096e-07
-1.40411e-07
3.32355e-07
-9.23109e-08
4.05973e-07
-6.36324e-08
4.62965e-07
-4.66139e-08
5.10404e-07
-3.70735e-08
5.53326e-07
-3.28208e-08
5.95871e-07
-3.2883e-08
6.4211e-07
-3.71664e-08
6.96789e-07
-4.63854e-08
7.63806e-07
-6.21865e-08
5.85655e-07
-1.55484e-06
-9.82075e-06
1.64491e-08
2.39877e-09
1.10153e-06
3.87926e-08
1.11251e-06
1.42557e-07
1.14448e-06
3.43502e-07
1.18097e-06
6.52651e-07
1.19824e-06
1.02959e-06
1.16886e-06
1.35192e-06
1.07551e-06
1.52719e-06
9.35187e-07
1.59414e-06
7.86962e-07
1.59852e-06
6.51774e-07
1.57146e-06
5.36367e-07
1.5311e-06
4.40538e-07
1.48726e-06
3.61512e-07
1.445e-06
2.95978e-07
1.40675e-06
2.40873e-07
1.37355e-06
1.93598e-07
1.34568e-06
1.52001e-07
1.32296e-06
1.14288e-07
1.30488e-06
7.8921e-08
1.29043e-06
4.45251e-08
1.27768e-06
9.83792e-09
1.26273e-06
-2.62681e-08
1.23737e-06
-6.45743e-08
1.18387e-06
-1.04869e-07
1.06377e-06
-1.44286e-07
7.99336e-07
-1.73381e-07
6.00956e-07
-1.68305e-07
5.20965e-07
-1.42516e-07
4.95497e-07
-1.14942e-07
4.94792e-07
-9.16061e-08
5.04885e-07
-7.37257e-08
5.19177e-07
-6.09056e-08
5.3445e-07
-5.23467e-08
5.48893e-07
-4.72638e-08
5.60993e-07
-4.49832e-08
5.68729e-07
-4.49025e-08
5.68714e-07
-4.63698e-08
5.54981e-07
-4.84541e-08
4.70616e-07
-1.47048e-06
-9.39421e-06
4.4076e-08
6.74619e-08
1.03407e-06
1.53249e-07
1.02672e-06
2.72845e-07
1.02488e-06
4.34224e-07
1.01959e-06
6.32228e-07
1.00024e-06
8.43428e-07
9.57663e-07
1.03015e-06
8.88788e-07
1.16528e-06
8.00057e-07
1.2488e-06
7.03441e-07
1.292e-06
6.08568e-07
1.30748e-06
5.20896e-07
1.30542e-06
4.42589e-07
1.29312e-06
3.73814e-07
1.27537e-06
3.13729e-07
1.25515e-06
2.61095e-07
1.23415e-06
2.14597e-07
1.21315e-06
1.72998e-07
1.19223e-06
1.35209e-07
1.17084e-06
1.00317e-07
1.14776e-06
6.76065e-08
1.12099e-06
3.66053e-08
1.08756e-06
7.16433e-09
1.04339e-06
-2.04079e-08
9.83683e-07
-4.51617e-08
9.04742e-07
-6.53441e-08
8.09866e-07
-7.85054e-08
7.24141e-07
-8.2579e-08
6.61131e-07
-7.95064e-08
6.18993e-07
-7.28048e-08
5.92465e-07
-6.50782e-08
5.76569e-07
-5.78298e-08
5.67439e-07
-5.17749e-08
5.62245e-07
-4.71523e-08
5.58916e-07
-4.39356e-08
5.55888e-07
-4.19551e-08
5.51946e-07
-4.096e-08
5.46224e-07
-4.06479e-08
5.38437e-07
-4.06673e-08
4.58846e-07
-1.39088e-06
-8.97775e-06
4.23769e-08
9.07286e-08
9.43344e-07
1.89319e-07
9.28129e-07
3.02199e-07
9.12005e-07
4.30897e-07
8.90897e-07
5.70612e-07
8.60523e-07
7.10376e-07
8.17898e-07
8.36423e-07
7.62741e-07
9.38589e-07
6.97891e-07
1.01402e-06
6.28007e-07
1.06505e-06
5.57544e-07
1.0962e-06
4.89737e-07
1.11232e-06
4.26472e-07
1.11758e-06
3.68561e-07
1.11521e-06
3.16098e-07
1.10754e-06
2.68765e-07
1.09609e-06
2.2604e-07
1.08174e-06
1.87349e-07
1.06481e-06
1.52142e-07
1.04517e-06
1.19959e-07
1.02231e-06
9.04669e-08
9.95421e-07
6.34904e-08
9.63546e-07
3.90399e-08
9.25813e-07
1.7325e-08
8.81913e-07
-1.26218e-09
8.32796e-07
-1.62269e-08
7.81445e-07
-2.71541e-08
7.32873e-07
-3.40071e-08
6.90777e-07
-3.74101e-08
6.56336e-07
-3.83641e-08
6.29105e-07
-3.78472e-08
6.07903e-07
-3.66281e-08
5.9136e-07
-3.52322e-08
5.78184e-07
-3.3976e-08
5.67268e-07
-3.30191e-08
5.57725e-07
-3.24124e-08
5.48902e-07
-3.21374e-08
5.40392e-07
-3.2138e-08
5.32052e-07
-3.23267e-08
4.53413e-07
-1.31224e-06
-8.56563e-06
4.13002e-08
9.37328e-08
8.49611e-07
1.8982e-07
8.32042e-07
2.90605e-07
8.11219e-07
3.95915e-07
7.85588e-07
5.02796e-07
7.53641e-07
6.06119e-07
7.14575e-07
7.00125e-07
6.68734e-07
7.80391e-07
6.17626e-07
8.44947e-07
5.63451e-07
8.94025e-07
5.08466e-07
9.29226e-07
4.54537e-07
9.52725e-07
4.02972e-07
9.66735e-07
3.54552e-07
9.73203e-07
3.0963e-07
9.73698e-07
2.6827e-07
9.69383e-07
2.30355e-07
9.61051e-07
1.95681e-07
9.49174e-07
1.64019e-07
9.33972e-07
1.35161e-07
9.15488e-07
1.08951e-07
8.9368e-07
8.5298e-08
8.68538e-07
6.41825e-08
8.40219e-07
4.56434e-08
8.09208e-07
2.97494e-08
7.7643e-07
1.6551e-08
7.43258e-07
6.0173e-09
7.11273e-07
-2.02157e-09
6.81756e-07
-7.89289e-09
6.55415e-07
-1.20234e-08
6.32422e-07
-1.48544e-08
6.12574e-07
-1.67798e-08
5.95457e-07
-1.81159e-08
5.80578e-07
-1.90967e-08
5.67441e-07
-1.98823e-08
5.55602e-07
-2.05732e-08
5.44691e-07
-2.12261e-08
5.34422e-07
-2.18687e-08
5.24589e-07
-2.24942e-08
4.48045e-07
-1.2357e-06
-8.15785e-06
4.02593e-08
8.81584e-08
7.61453e-07
1.76135e-07
7.44066e-07
2.64526e-07
7.22828e-07
3.52766e-07
6.97348e-07
4.39117e-07
6.6729e-07
5.21042e-07
6.3265e-07
5.95863e-07
5.93913e-07
6.61462e-07
5.52027e-07
7.16691e-07
5.08222e-07
7.61383e-07
4.63774e-07
7.96111e-07
4.19809e-07
8.21871e-07
3.77212e-07
8.39828e-07
3.36595e-07
8.51123e-07
2.98335e-07
8.56772e-07
2.6262e-07
8.57619e-07
2.29509e-07
8.54324e-07
1.98975e-07
8.47391e-07
1.70952e-07
8.37193e-07
1.45359e-07
8.24026e-07
1.22118e-07
8.08157e-07
1.01168e-07
7.8988e-07
8.24595e-08
7.6957e-07
6.59526e-08
7.47721e-07
5.15992e-08
7.24945e-07
3.93272e-08
7.01938e-07
2.90235e-08
6.79392e-07
2.05248e-08
6.57878e-07
1.36208e-08
6.37782e-07
8.07281e-09
6.1929e-07
3.63768e-09
6.02421e-07
8.87098e-11
5.87077e-07
-2.77106e-09
5.73083e-07
-5.10316e-09
5.60235e-07
-7.03382e-09
5.48319e-07
-8.65767e-09
5.37136e-07
-1.00431e-08
5.26505e-07
-1.12378e-08
5.16274e-07
-1.22629e-08
4.42218e-07
-1.16164e-06
-7.75456e-06
3.89349e-08
7.96477e-08
6.81805e-07
1.5809e-07
6.65624e-07
2.35214e-07
6.45704e-07
3.10413e-07
6.22149e-07
3.82612e-07
5.95091e-07
4.50449e-07
5.64813e-07
5.12557e-07
5.31805e-07
5.67844e-07
4.96741e-07
6.15656e-07
4.60411e-07
6.55812e-07
4.23617e-07
6.88528e-07
3.87093e-07
7.14293e-07
3.51447e-07
7.33742e-07
3.17145e-07
7.47562e-07
2.84515e-07
7.56417e-07
2.53765e-07
7.60914e-07
2.25012e-07
7.61583e-07
1.98307e-07
7.5888e-07
1.73655e-07
7.53205e-07
1.51034e-07
7.44914e-07
1.30409e-07
7.3435e-07
1.11732e-07
7.21859e-07
9.49504e-08
7.07809e-07
8.00024e-08
6.92596e-07
6.68129e-08
6.76633e-07
5.52901e-08
6.60334e-07
4.53222e-08
6.44081e-07
3.67775e-08
6.28193e-07
2.95089e-08
6.12905e-07
2.33607e-08
5.98365e-07
1.81782e-08
5.84638e-07
1.38153e-08
5.71727e-07
1.01401e-08
5.59585e-07
7.03856e-09
5.48137e-07
4.41474e-09
5.37289e-07
2.19052e-09
5.26942e-07
3.03656e-10
5.16999e-07
-1.29453e-09
5.07374e-07
-2.63851e-09
4.35887e-07
-1.09016e-06
-7.35597e-06
3.72975e-08
7.07139e-08
6.11091e-07
1.39904e-07
5.96433e-07
2.07202e-07
5.78407e-07
2.72053e-07
5.57298e-07
3.33737e-07
5.33407e-07
3.91453e-07
5.07098e-07
4.44437e-07
4.7882e-07
4.92083e-07
4.49095e-07
5.34013e-07
4.1848e-07
5.70098e-07
3.87532e-07
6.00431e-07
3.56761e-07
6.25274e-07
3.26604e-07
6.45004e-07
2.97416e-07
6.60052e-07
2.69467e-07
6.70869e-07
2.42948e-07
6.77896e-07
2.17985e-07
6.81547e-07
1.94655e-07
6.8221e-07
1.72992e-07
6.80243e-07
1.53001e-07
6.75984e-07
1.34668e-07
6.69756e-07
1.1796e-07
6.61876e-07
1.02831e-07
6.52656e-07
8.92221e-08
6.42405e-07
7.70637e-08
6.31422e-07
6.62734e-08
6.19986e-07
5.67582e-08
6.08347e-07
4.84162e-08
5.96717e-07
4.11397e-08
5.85258e-07
3.48189e-08
5.7409e-07
2.93462e-08
5.63286e-07
2.46191e-08
5.52883e-07
2.05437e-08
5.42886e-07
1.70357e-08
5.33279e-07
1.40214e-08
5.24032e-07
1.14378e-08
5.15104e-07
9.23162e-09
5.06451e-07
7.35858e-09
4.98036e-07
5.77594e-09
4.29121e-07
-1.02124e-06
-6.96227e-06
3.54172e-08
6.2375e-08
5.48716e-07
1.23216e-07
5.35592e-07
1.82089e-07
5.19533e-07
2.38517e-07
5.0087e-07
2.91979e-07
4.79944e-07
3.4196e-07
4.57118e-07
3.87994e-07
4.32787e-07
4.29718e-07
4.0737e-07
4.66906e-07
3.81292e-07
4.99475e-07
3.54963e-07
5.27475e-07
3.28761e-07
5.51065e-07
3.03013e-07
5.70486e-07
2.77996e-07
5.86026e-07
2.53926e-07
5.98004e-07
2.3097e-07
6.06745e-07
2.09244e-07
6.12574e-07
1.88827e-07
6.15802e-07
1.69763e-07
6.16733e-07
1.52071e-07
6.15655e-07
1.35746e-07
6.12845e-07
1.20769e-07
6.08572e-07
1.07104e-07
6.03091e-07
9.47034e-08
5.96644e-07
8.35104e-08
5.89459e-07
7.34585e-08
5.81743e-07
6.44747e-08
5.73678e-07
5.6481e-08
5.65421e-07
4.93967e-08
5.57099e-07
4.31409e-08
5.48811e-07
3.76344e-08
5.40628e-07
3.28016e-08
5.326e-07
2.85719e-08
5.24755e-07
2.4881e-08
5.17105e-07
2.16707e-08
5.09653e-07
1.88897e-08
5.02392e-07
1.64928e-08
4.9531e-07
1.44408e-08
4.88402e-07
1.26841e-08
4.22001e-07
-9.54841e-07
-6.57365e-06
3.33778e-08
5.4969e-08
4.93747e-07
1.08514e-07
4.82048e-07
1.60218e-07
4.67829e-07
2.09676e-07
4.51413e-07
2.56495e-07
4.33125e-07
3.00313e-07
4.13299e-07
3.40824e-07
3.92276e-07
3.77795e-07
3.70399e-07
4.11083e-07
3.48004e-07
4.40636e-07
3.25411e-07
4.66487e-07
3.02909e-07
4.88746e-07
2.80755e-07
5.07576e-07
2.59166e-07
5.23182e-07
2.38319e-07
5.35798e-07
2.18354e-07
5.45668e-07
1.99374e-07
5.53045e-07
1.8145e-07
5.58178e-07
1.6463e-07
5.61313e-07
1.48935e-07
5.62689e-07
1.3437e-07
5.62534e-07
1.20924e-07
5.61068e-07
1.0857e-07
5.58498e-07
9.7274e-08
5.55017e-07
8.69915e-08
5.50804e-07
7.76712e-08
5.46022e-07
6.92571e-08
5.40813e-07
6.16897e-08
5.35302e-07
5.49076e-08
5.29593e-07
4.88495e-08
5.23773e-07
4.34552e-08
5.17907e-07
3.86669e-08
5.12049e-07
3.44298e-08
5.06237e-07
3.06932e-08
5.00498e-07
2.74104e-08
4.94848e-07
2.45388e-08
4.89301e-07
2.20402e-08
4.83861e-07
1.98803e-08
4.78542e-07
1.8004e-08
4.14573e-07
-8.90873e-07
-6.19033e-06
3.12562e-08
4.85397e-08
4.45208e-07
9.58027e-08
4.34785e-07
1.41418e-07
4.22213e-07
1.85047e-07
4.07784e-07
2.26381e-07
3.91791e-07
2.65153e-07
3.74527e-07
3.01147e-07
3.56283e-07
3.34201e-07
3.37344e-07
3.64222e-07
3.17984e-07
3.91176e-07
2.98457e-07
4.1509e-07
2.78995e-07
4.36042e-07
2.59803e-07
4.54153e-07
2.41055e-07
4.69574e-07
2.22898e-07
4.8248e-07
2.05448e-07
4.9306e-07
1.88794e-07
5.0151e-07
1.73e-07
5.0803e-07
1.5811e-07
5.12816e-07
1.44149e-07
5.16062e-07
1.31124e-07
5.17954e-07
1.19031e-07
5.18671e-07
1.07854e-07
5.18379e-07
9.75657e-08
5.17236e-07
8.81345e-08
5.15386e-07
7.95213e-08
5.1296e-07
7.16834e-08
5.10074e-07
6.45754e-08
5.06832e-07
5.815e-08
5.03321e-07
5.23601e-08
4.99617e-07
4.71589e-08
4.95783e-07
4.2501e-08
4.9187e-07
3.83431e-08
4.87919e-07
3.46442e-08
4.83963e-07
3.13662e-08
4.80028e-07
2.84737e-08
4.76134e-07
2.59339e-08
4.72297e-07
2.37171e-08
4.68537e-07
2.1764e-08
4.06914e-07
-8.29249e-07
-5.81251e-06
2.9092e-08
4.30133e-08
4.02194e-07
8.48997e-08
3.92898e-07
1.25341e-07
3.81772e-07
1.64055e-07
3.6907e-07
2.00795e-07
3.5505e-07
2.35357e-07
3.39965e-07
2.67578e-07
3.24062e-07
2.97343e-07
3.07579e-07
3.24585e-07
2.90742e-07
3.49282e-07
2.7376e-07
3.71456e-07
2.5682e-07
3.91168e-07
2.40091e-07
4.08508e-07
2.23715e-07
4.23593e-07
2.07814e-07
4.36556e-07
1.92485e-07
4.47546e-07
1.77804e-07
4.56716e-07
1.6383e-07
4.64225e-07
1.50601e-07
4.70232e-07
1.38142e-07
4.74892e-07
1.26464e-07
4.78357e-07
1.15567e-07
4.8077e-07
1.0544e-07
4.8227e-07
9.60663e-08
4.82983e-07
8.74212e-08
4.83028e-07
7.94761e-08
4.82513e-07
7.21986e-08
4.81535e-07
6.55535e-08
4.8018e-07
5.95047e-08
4.78526e-07
5.40149e-08
4.76637e-07
4.90476e-08
4.74572e-07
4.45664e-08
4.72378e-07
4.05365e-08
4.70098e-07
3.69245e-08
4.67765e-07
3.36988e-08
4.65409e-07
3.08295e-08
4.63054e-07
2.82889e-08
4.6072e-07
2.60512e-08
4.5843e-07
2.40545e-08
3.99027e-07
-7.69846e-07
-5.4404e-06
2.69203e-08
3.82776e-08
3.63917e-07
7.55663e-08
3.5561e-07
1.11598e-07
3.4574e-07
1.46139e-07
3.34529e-07
1.78991e-07
3.22198e-07
2.09991e-07
3.08964e-07
2.39016e-07
2.95038e-07
2.65976e-07
2.80618e-07
2.90824e-07
2.65895e-07
3.13544e-07
2.51039e-07
3.34156e-07
2.36209e-07
3.52705e-07
2.21542e-07
3.69263e-07
2.07157e-07
3.8392e-07
1.93156e-07
3.96783e-07
1.79622e-07
4.07966e-07
1.66621e-07
4.17594e-07
1.54202e-07
4.25792e-07
1.42403e-07
4.32688e-07
1.31246e-07
4.38408e-07
1.20744e-07
4.43076e-07
1.10899e-07
4.46808e-07
1.01708e-07
4.49718e-07
9.31565e-08
4.5191e-07
8.52289e-08
4.53483e-07
7.79036e-08
4.54526e-07
7.11558e-08
4.55121e-07
6.49587e-08
4.55341e-07
5.92838e-08
4.55254e-07
5.41022e-08
4.54918e-07
4.93843e-08
4.54383e-07
4.5101e-08
4.53695e-07
4.1224e-08
4.52894e-07
3.77257e-08
4.52014e-07
3.45795e-08
4.51083e-07
3.17604e-08
4.50127e-07
2.92445e-08
4.49169e-07
2.70092e-08
4.48232e-07
2.49919e-08
3.90927e-07
-7.12542e-07
-5.07424e-06
2.47693e-08
3.42159e-08
3.29701e-07
6.75647e-08
3.22261e-07
9.98231e-08
3.13482e-07
1.30798e-07
3.03554e-07
1.60329e-07
2.92668e-07
1.88285e-07
2.81008e-07
2.14568e-07
2.68755e-07
2.3911e-07
2.56077e-07
2.61873e-07
2.43132e-07
2.82847e-07
2.30065e-07
3.02047e-07
2.17009e-07
3.19512e-07
2.04077e-07
3.35296e-07
1.91372e-07
3.49473e-07
1.7898e-07
3.62126e-07
1.66969e-07
3.73347e-07
1.55399e-07
3.83236e-07
1.44314e-07
3.91894e-07
1.33745e-07
3.99425e-07
1.23715e-07
4.05931e-07
1.14238e-07
4.11513e-07
1.05318e-07
4.16267e-07
9.69535e-08
4.20286e-07
8.91375e-08
4.23657e-07
8.18579e-08
4.26462e-07
7.50988e-08
4.28776e-07
6.88417e-08
4.30669e-07
6.30658e-08
4.32203e-07
5.7749e-08
4.33438e-07
5.2868e-08
4.34422e-07
4.83994e-08
4.35204e-07
4.43194e-08
4.35823e-07
4.06047e-08
4.36317e-07
3.72323e-08
4.36716e-07
3.418e-08
4.3705e-07
3.14264e-08
4.37344e-07
2.89511e-08
4.37618e-07
2.67344e-08
4.37896e-07
2.47144e-08
3.82607e-07
-6.57253e-07
-4.71428e-06
2.26464e-08
3.07205e-08
2.9898e-07
6.06795e-08
2.92302e-07
8.96921e-08
2.84469e-07
1.176e-07
2.75646e-07
1.44271e-07
2.65997e-07
1.696e-07
2.55679e-07
1.93508e-07
2.44847e-07
2.15942e-07
2.33643e-07
2.36872e-07
2.22202e-07
2.56291e-07
2.10646e-07
2.74211e-07
1.99088e-07
2.90664e-07
1.87625e-07
3.05694e-07
1.76343e-07
3.19359e-07
1.65315e-07
3.31726e-07
1.54602e-07
3.42872e-07
1.44254e-07
3.52874e-07
1.34311e-07
3.61818e-07
1.24801e-07
3.69786e-07
1.15747e-07
3.76862e-07
1.07161e-07
3.8313e-07
9.90502e-08
3.88669e-07
9.14148e-08
3.93555e-07
8.42509e-08
3.97862e-07
7.75507e-08
4.01659e-07
7.13025e-08
4.05008e-07
6.54925e-08
4.07969e-07
6.01047e-08
4.10596e-07
5.51216e-08
4.12939e-07
5.05248e-08
4.15043e-07
4.62953e-08
4.16949e-07
4.24137e-08
4.18693e-07
3.88607e-08
4.20308e-07
3.56171e-08
4.21824e-07
3.26642e-08
4.23267e-07
2.99837e-08
4.2466e-07
2.7558e-08
4.26024e-07
2.53702e-08
4.27378e-07
2.33608e-08
3.7405e-07
-6.03925e-07
-4.36079e-06
2.05535e-08
2.76971e-08
2.71283e-07
5.47236e-08
2.65275e-07
8.09268e-08
2.58266e-07
1.06177e-07
2.50396e-07
1.30365e-07
2.41808e-07
1.53408e-07
2.32637e-07
1.7524e-07
2.23014e-07
1.9582e-07
2.13063e-07
2.15123e-07
2.02898e-07
2.33145e-07
1.92624e-07
2.49897e-07
1.82337e-07
2.65403e-07
1.72119e-07
2.797e-07
1.62045e-07
2.92836e-07
1.52179e-07
3.04866e-07
1.42572e-07
3.1585e-07
1.3327e-07
3.25854e-07
1.24306e-07
3.34947e-07
1.15709e-07
3.43196e-07
1.07498e-07
3.50673e-07
9.96851e-08
3.57444e-07
9.22791e-08
3.63576e-07
8.52823e-08
3.69134e-07
7.86931e-08
3.74178e-07
7.25063e-08
3.78767e-07
6.6714e-08
3.82954e-07
6.13058e-08
3.86789e-07
5.62694e-08
3.90319e-07
5.15912e-08
3.93588e-07
4.72565e-08
3.96633e-07
4.32498e-08
3.99492e-07
3.95553e-08
4.02195e-07
3.6157e-08
4.04774e-07
3.30389e-08
4.07253e-07
3.01849e-08
4.09657e-07
2.75794e-08
4.12008e-07
2.52072e-08
4.14325e-07
2.30534e-08
4.16623e-07
2.10626e-08
3.65229e-07
-5.52531e-07
-4.01405e-06
1.84872e-08
2.50653e-08
2.46218e-07
4.95379e-08
2.40803e-07
7.32923e-08
2.34511e-07
9.62219e-08
2.27467e-07
1.18239e-07
2.19791e-07
1.39273e-07
2.11602e-07
1.59274e-07
2.03013e-07
1.78207e-07
1.9413e-07
1.96054e-07
1.85051e-07
2.12811e-07
1.75868e-07
2.28487e-07
1.6666e-07
2.43104e-07
1.57503e-07
2.56691e-07
1.48458e-07
2.69289e-07
1.39581e-07
2.80941e-07
1.3092e-07
2.91699e-07
1.22511e-07
3.01617e-07
1.14389e-07
3.10751e-07
1.06575e-07
3.19158e-07
9.90906e-08
3.26896e-07
9.19471e-08
3.34022e-07
8.51531e-08
3.40592e-07
7.87126e-08
3.46659e-07
7.2626e-08
3.52275e-07
6.68903e-08
3.57488e-07
6.15003e-08
3.62346e-07
5.64485e-08
3.6689e-07
5.17255e-08
3.7116e-07
4.73208e-08
3.75194e-07
4.32228e-08
3.79024e-07
3.94189e-08
3.82683e-07
3.58963e-08
3.86199e-07
3.26417e-08
3.89596e-07
2.96415e-08
3.92899e-07
2.68824e-08
3.96127e-07
2.43507e-08
3.99301e-07
2.20334e-08
4.02437e-07
1.99172e-08
4.05547e-07
1.79525e-08
3.56115e-07
-5.03099e-07
-3.67437e-06
1.64417e-08
2.27575e-08
2.2346e-07
4.49892e-08
2.18571e-07
6.65924e-08
2.12908e-07
8.74797e-08
2.06579e-07
1.07579e-07
1.99691e-07
1.26835e-07
1.92346e-07
1.45205e-07
1.84643e-07
1.62663e-07
1.76673e-07
1.79193e-07
1.68521e-07
1.94793e-07
1.60267e-07
2.09472e-07
1.51981e-07
2.23248e-07
1.43727e-07
2.36146e-07
1.3556e-07
2.48199e-07
1.27528e-07
2.59445e-07
1.19674e-07
2.69925e-07
1.12031e-07
2.79685e-07
1.04628e-07
2.88773e-07
9.74881e-08
2.97235e-07
9.06281e-08
3.05121e-07
8.4061e-08
3.12479e-07
7.77955e-08
3.19355e-07
7.18365e-08
3.25795e-07
6.61859e-08
3.31843e-07
6.08426e-08
3.3754e-07
5.58036e-08
3.42925e-07
5.10634e-08
3.48035e-07
4.66156e-08
3.52904e-07
4.24518e-08
3.57563e-07
3.85631e-08
3.62042e-07
3.49396e-08
3.66368e-07
3.15708e-08
3.70564e-07
2.84457e-08
3.74652e-07
2.55532e-08
3.78653e-07
2.2882e-08
3.82583e-07
2.04206e-08
3.86459e-07
1.81576e-08
3.90294e-07
1.60817e-08
3.94096e-07
1.41511e-08
3.46656e-07
-4.5566e-07
-3.34211e-06
1.43988e-08
2.07171e-08
2.02743e-07
4.09663e-08
1.98322e-07
6.06636e-08
1.93211e-07
7.97375e-08
1.87506e-07
9.81298e-08
1.81299e-07
1.15795e-07
1.74682e-07
1.32699e-07
1.67739e-07
1.4882e-07
1.60551e-07
1.64148e-07
1.53193e-07
1.78682e-07
1.45734e-07
1.92428e-07
1.38235e-07
2.05403e-07
1.30752e-07
2.17628e-07
1.23334e-07
2.29132e-07
1.16025e-07
2.39946e-07
1.0886e-07
2.50105e-07
1.01871e-07
2.59649e-07
9.50847e-08
2.68616e-07
8.85207e-08
2.77048e-07
8.2196e-08
2.84986e-07
7.61232e-08
2.9247e-07
7.03112e-08
2.99541e-07
6.47656e-08
3.06237e-07
5.94896e-08
3.12596e-07
5.44837e-08
3.18653e-07
4.97465e-08
3.24442e-07
4.52747e-08
3.29994e-07
4.10637e-08
3.35338e-07
3.71076e-08
3.40502e-07
3.33995e-08
3.4551e-07
2.99317e-08
3.50385e-07
2.6696e-08
3.55147e-07
2.36835e-08
3.59815e-07
2.08852e-08
3.64405e-07
1.82918e-08
3.68932e-07
1.58937e-08
3.73408e-07
1.36817e-08
3.77843e-07
1.16464e-08
3.82237e-07
9.7569e-09
3.36781e-07
-4.10203e-07
-3.01767e-06
1.23384e-08
1.88973e-08
1.83846e-07
3.73769e-08
1.79842e-07
5.53701e-08
1.75218e-07
7.2819e-08
1.70057e-07
8.9676e-08
1.64442e-07
1.05904e-07
1.58453e-07
1.21477e-07
1.52166e-07
1.36378e-07
1.45651e-07
1.50598e-07
1.38973e-07
1.64137e-07
1.32195e-07
1.77002e-07
1.25369e-07
1.89208e-07
1.18546e-07
2.00773e-07
1.11769e-07
2.11721e-07
1.05077e-07
2.2208e-07
9.8501e-08
2.31881e-07
9.20709e-08
2.41156e-07
8.581e-08
2.49939e-07
7.97376e-08
2.58265e-07
7.38695e-08
2.6617e-07
6.82179e-08
2.7369e-07
6.27919e-08
2.80857e-07
5.7598e-08
2.87707e-07
5.264e-08
2.94271e-07
4.79199e-08
3.0058e-07
4.34377e-08
3.06662e-07
3.91919e-08
3.12546e-07
3.51798e-08
3.18257e-07
3.13974e-08
3.23816e-07
2.78397e-08
3.29247e-07
2.45011e-08
3.34568e-07
2.13752e-08
3.39796e-07
1.84552e-08
3.44948e-07
1.57337e-08
3.50036e-07
1.32031e-08
3.55074e-07
1.08556e-08
3.60073e-07
8.68297e-09
3.65042e-07
6.67721e-09
3.6998e-07
4.81889e-09
3.26417e-07
-3.6664e-07
-2.7015e-06
1.02434e-08
1.7259e-08
1.66587e-07
3.41442e-08
1.62957e-07
5.05997e-08
1.58762e-07
6.65782e-08
1.54078e-07
8.20414e-08
1.48979e-07
9.69596e-08
1.43535e-07
1.11312e-07
1.37814e-07
1.25084e-07
1.31878e-07
1.38271e-07
1.25786e-07
1.50874e-07
1.19592e-07
1.629e-07
1.13344e-07
1.7436e-07
1.07086e-07
1.85272e-07
1.00857e-07
1.95658e-07
9.46913e-08
2.0554e-07
8.86187e-08
2.14946e-07
8.26649e-08
2.23904e-07
7.68518e-08
2.32444e-07
7.11974e-08
2.40597e-07
6.57167e-08
2.48394e-07
6.04215e-08
2.55864e-07
5.53211e-08
2.6304e-07
5.04224e-08
2.6995e-07
4.57303e-08
2.76622e-07
4.12476e-08
2.83084e-07
3.69758e-08
2.89361e-07
3.2915e-08
2.95476e-07
2.9064e-08
3.01453e-07
2.54205e-08
3.07311e-07
2.19816e-08
3.13069e-07
1.87434e-08
3.18743e-07
1.57016e-08
3.24347e-07
1.2851e-08
3.29894e-07
1.01861e-08
3.35397e-07
7.70095e-09
3.40863e-07
5.38894e-09
3.46303e-07
3.24306e-09
3.51725e-07
1.25564e-09
3.57124e-07
-5.80281e-10
3.15543e-07
-3.25059e-07
-2.39407e-06
8.11887e-09
1.57702e-08
1.50817e-07
3.12052e-08
1.47522e-07
4.62595e-08
1.43708e-07
6.08946e-08
1.39443e-07
7.50798e-08
1.34794e-07
8.87911e-08
1.29824e-07
1.02012e-07
1.24593e-07
1.14732e-07
1.19158e-07
1.26947e-07
1.13571e-07
1.3866e-07
1.07879e-07
1.49876e-07
1.02128e-07
1.60608e-07
9.63542e-08
1.70871e-07
9.05946e-08
1.80682e-07
8.48797e-08
1.90064e-07
7.92365e-08
1.99041e-07
7.36886e-08
2.07637e-07
6.8256e-08
2.15878e-07
6.29557e-08
2.23793e-07
5.78017e-08
2.31409e-07
5.28058e-08
2.38753e-07
4.79771e-08
2.45852e-07
4.33229e-08
2.52734e-07
3.88486e-08
2.59423e-07
3.45583e-08
2.65945e-07
3.04543e-08
2.72322e-07
2.65382e-08
2.78575e-07
2.28104e-08
2.84726e-07
1.92702e-08
2.90791e-07
1.59165e-08
2.96787e-07
1.27474e-08
3.02728e-07
9.76049e-09
3.08626e-07
6.95271e-09
3.14492e-07
4.32067e-09
3.20332e-07
1.86052e-09
3.26153e-07
-4.31959e-10
3.31957e-07
-2.56134e-09
3.37745e-07
-4.53254e-09
3.435e-07
-6.33459e-09
3.04077e-07
-2.85636e-07
-2.09596e-06
5.96531e-09
1.44044e-08
1.36412e-07
2.85078e-08
1.33419e-07
4.22731e-08
1.29943e-07
5.56691e-08
1.26047e-07
6.8671e-08
1.21792e-07
8.12597e-08
1.17235e-07
9.3422e-08
1.12431e-07
1.0515e-07
1.0743e-07
1.16442e-07
1.02279e-07
1.273e-07
9.70215e-08
1.37731e-07
9.1697e-08
1.47744e-07
8.63406e-08
1.57355e-07
8.09841e-08
1.66579e-07
7.56554e-08
1.75436e-07
7.03794e-08
1.83948e-07
6.51774e-08
1.92136e-07
6.0068e-08
2.00024e-07
5.5067e-08
2.07638e-07
5.01877e-08
2.15003e-07
4.54412e-08
2.22143e-07
4.08367e-08
2.29085e-07
3.63816e-08
2.35851e-07
3.20819e-08
2.42468e-07
2.7942e-08
2.48956e-07
2.39656e-08
2.55339e-07
2.01552e-08
2.61637e-07
1.65125e-08
2.67869e-07
1.30386e-08
2.74051e-07
9.73403e-09
2.802e-07
6.59873e-09
2.86328e-07
3.63226e-09
2.92447e-07
8.33791e-10
2.98566e-07
-1.79788e-09
3.0469e-07
-4.26424e-09
3.10825e-07
-6.567e-09
3.16972e-07
-8.70797e-09
3.23128e-07
-1.06888e-08
3.29273e-07
-1.24793e-08
2.91833e-07
-2.48197e-07
-1.80785e-06
3.72354e-09
1.314e-08
1.23272e-07
2.60094e-08
1.20549e-07
3.85781e-08
1.17374e-07
5.08206e-08
1.13804e-07
6.27169e-08
1.09896e-07
7.42517e-08
1.057e-07
8.54146e-08
1.01268e-07
9.62001e-08
9.66441e-08
1.06607e-07
9.18722e-08
1.16637e-07
8.69911e-08
1.26298e-07
8.20364e-08
1.35598e-07
7.70401e-08
1.44551e-07
7.20311e-08
1.53172e-07
6.70348e-08
1.61477e-07
6.20739e-08
1.69487e-07
5.71678e-08
1.77221e-07
5.23337e-08
1.84702e-07
4.75862e-08
1.91952e-07
4.29376e-08
1.98995e-07
3.83986e-08
2.05854e-07
3.39778e-08
2.12553e-07
2.96827e-08
2.19115e-07
2.55192e-08
2.25565e-07
2.14924e-08
2.31924e-07
1.76063e-08
2.38215e-07
1.38645e-08
2.44458e-07
1.02696e-08
2.50672e-07
6.82415e-09
2.56876e-07
3.53015e-09
2.63086e-07
3.89349e-10
2.69315e-07
-2.59678e-09
2.75575e-07
-5.42704e-09
2.81878e-07
-8.10055e-09
2.88231e-07
-1.06168e-08
2.9464e-07
-1.29759e-08
3.0111e-07
-1.51784e-08
3.07647e-07
-1.72257e-08
3.14241e-07
-1.90732e-08
2.78709e-07
-2.12664e-07
-1.53059e-06
1.44253e-09
1.19594e-08
1.11313e-07
2.36755e-08
1.08833e-07
3.51237e-08
1.05926e-07
4.62833e-08
1.02645e-07
5.71379e-08
9.9041e-08
6.76751e-08
9.51629e-08
7.78867e-08
9.10559e-08
8.77685e-08
8.67623e-08
9.73198e-08
8.23209e-08
1.06543e-07
7.77675e-08
1.15445e-07
7.31346e-08
1.24034e-07
6.84514e-08
1.32321e-07
6.37441e-08
1.4032e-07
5.90361e-08
1.48046e-07
5.43478e-08
1.55516e-07
4.96971e-08
1.6275e-07
4.50997e-08
1.69768e-07
4.05688e-08
1.76589e-07
3.61158e-08
1.83237e-07
3.17505e-08
1.89734e-07
2.74809e-08
1.96103e-07
2.3314e-08
2.02367e-07
1.92553e-08
2.08549e-07
1.531e-08
2.14674e-07
1.14821e-08
2.20762e-07
7.77551e-09
2.26838e-07
4.19359e-09
2.32923e-07
7.39677e-10
2.39036e-07
-2.58297e-09
2.45196e-07
-5.771e-09
2.51421e-07
-8.821e-09
2.57723e-07
-1.17295e-08
2.64115e-07
-1.44929e-08
2.70607e-07
-1.71081e-08
2.77203e-07
-1.95721e-08
2.83908e-07
-2.1883e-08
2.90722e-07
-2.40401e-08
2.97633e-07
-2.59841e-08
2.64366e-07
-1.79398e-07
-1.26513e-06
-1.09424e-09
1.08483e-08
1.00464e-07
2.14783e-08
9.82032e-08
3.18694e-08
9.55348e-08
4.20046e-08
9.25096e-08
5.18703e-08
8.91753e-08
6.14565e-08
8.55768e-08
7.07564e-08
8.1756e-08
7.97666e-08
7.7752e-08
8.84868e-08
7.36007e-08
9.69196e-08
6.93348e-08
1.0507e-07
6.49841e-08
1.12946e-07
6.05755e-08
1.20557e-07
5.6133e-08
1.27915e-07
5.16779e-08
1.35034e-07
4.72289e-08
1.41929e-07
4.28022e-08
1.48617e-07
3.84119e-08
1.55115e-07
3.40701e-08
1.61444e-07
2.9787e-08
1.67624e-07
2.55711e-08
1.73675e-07
2.14296e-08
1.79621e-07
1.73684e-08
1.85483e-07
1.33924e-08
1.91288e-07
9.50572e-09
1.97058e-07
5.71203e-09
2.02819e-07
2.01459e-09
2.08596e-07
-1.58339e-09
2.14414e-07
-5.07856e-09
2.20298e-07
-8.46718e-09
2.26272e-07
-1.17449e-08
2.32358e-07
-1.49068e-08
2.38575e-07
-1.79467e-08
2.4494e-07
-2.08579e-08
2.51465e-07
-2.36326e-08
2.58155e-07
-2.62625e-08
2.65011e-07
-2.8739e-08
2.72025e-07
-3.10539e-08
2.7917e-07
-3.31291e-08
2.48343e-07
-1.48571e-07
-1.01267e-06
-4.1168e-09
9.79555e-09
9.06689e-08
1.93955e-08
8.86033e-08
2.87826e-08
8.61477e-08
3.79425e-08
8.33497e-08
4.68639e-08
8.02539e-08
5.55381e-08
7.69025e-08
6.39596e-08
7.33346e-08
7.21253e-08
6.95863e-08
8.00349e-08
6.56911e-08
8.76902e-08
6.16794e-08
9.50955e-08
5.75788e-08
1.02257e-07
5.34139e-08
1.09183e-07
4.9207e-08
1.15884e-07
4.49775e-08
1.2237e-07
4.07427e-08
1.28655e-07
3.65172e-08
1.34753e-07
3.23137e-08
1.4068e-07
2.8143e-08
1.46453e-07
2.40139e-08
1.52091e-07
1.99338e-08
1.57612e-07
1.59084e-08
1.63038e-07
1.19423e-08
1.68391e-07
8.03901e-09
1.73696e-07
4.20109e-09
1.78977e-07
4.30581e-10
1.84263e-07
-3.27088e-09
1.89581e-07
-6.90176e-09
1.94963e-07
-1.04603e-08
2.0044e-07
-1.3944e-08
2.06045e-07
-1.73497e-08
2.1181e-07
-2.06724e-08
2.17769e-07
-2.39052e-08
2.2395e-07
-2.7039e-08
2.30379e-07
-3.00616e-08
2.37074e-07
-3.29577e-08
2.44044e-07
-3.57093e-08
2.51286e-07
-3.82957e-08
2.58776e-07
-4.0619e-08
2.30774e-07
-1.20569e-07
-7.74934e-07
-6.95787e-09
8.79221e-09
8.18767e-08
1.74097e-08
7.99857e-08
2.58379e-08
7.77195e-08
3.40645e-08
7.51231e-08
4.20795e-08
7.22389e-08
4.98756e-08
6.91064e-08
5.74477e-08
6.57625e-08
6.47927e-08
6.22413e-08
7.19099e-08
5.85739e-08
7.88004e-08
5.47889e-08
8.54672e-08
5.0912e-08
9.19148e-08
4.69663e-08
9.81495e-08
4.29723e-08
1.04179e-07
3.89482e-08
1.10012e-07
3.49098e-08
1.15658e-07
3.08705e-08
1.2113e-07
2.68419e-08
1.2644e-07
2.28335e-08
1.31601e-07
1.88529e-08
1.36628e-07
1.49061e-08
1.41539e-07
1.09974e-08
1.46352e-07
7.12989e-09
1.51086e-07
3.30513e-09
1.55763e-07
-4.76382e-10
1.60409e-07
-4.21514e-09
1.6505e-07
-7.91247e-09
1.69719e-07
-1.15703e-08
1.74449e-07
-1.51907e-08
1.79281e-07
-1.87757e-08
1.84258e-07
-2.23269e-08
1.8943e-07
-2.58442e-08
1.9485e-07
-2.93255e-08
2.00576e-07
-3.27648e-08
2.06666e-07
-3.61511e-08
2.13174e-07
-3.94661e-08
2.20147e-07
-4.26817e-08
2.27609e-07
-4.57584e-08
2.35559e-07
-4.85687e-08
2.10961e-07
-9.59711e-08
-5.54322e-07
-9.65182e-09
7.83126e-09
7.40455e-08
1.55074e-08
7.23096e-08
2.30155e-08
7.02114e-08
3.0345e-08
6.77936e-08
3.74871e-08
6.50968e-08
4.4435e-08
6.21585e-08
5.11838e-08
5.90137e-08
5.77304e-08
5.56947e-08
6.40733e-08
5.22311e-08
7.02125e-08
4.86497e-08
7.61495e-08
4.4975e-08
8.18871e-08
4.12287e-08
8.74292e-08
3.74302e-08
9.27808e-08
3.35967e-08
9.79478e-08
2.97428e-08
1.02937e-07
2.58813e-08
1.07756e-07
2.20227e-08
1.12414e-07
1.81757e-08
1.1692e-07
1.43469e-08
1.21285e-07