/*--------------------------------*- C++ -*----------------------------------*\
  =========                 |
  \\      /  F ield         | OpenFOAM: The Open Source CFD Toolbox
   \\    /   O peration     | Website:  https://openfoam.org
    \\  /    A nd           | Version:  10
     \\/     M anipulation  |
\*---------------------------------------------------------------------------*/
FoamFile
{
    format      ascii;
    class       surfaceScalarField;
    location    "1.66";
    object      phi;
}
// * * * * * * * * * * * * * * * * * * * * * * * * * * * * * * * * * * * * * //

dimensions      [0 3 -1 0 0 0 0];

internalField   nonuniform List<scalar> 
24170
(
1.44709e-09
-1.44709e-09
2.68645e-09
-1.23936e-09
3.66858e-09
-9.82129e-10
4.41241e-09
-7.43836e-10
4.96656e-09
-5.5415e-10
5.38351e-09
-4.16949e-10
5.70852e-09
-3.25012e-10
5.9773e-09
-2.68779e-10
6.21746e-09
-2.40159e-10
6.45122e-09
-2.33757e-10
6.69842e-09
-2.47198e-10
6.97997e-09
-2.81558e-10
7.32277e-09
-3.42795e-10
7.76871e-09
-4.45944e-10
8.39645e-09
-6.27741e-10
9.38806e-09
-9.91604e-10
1.13071e-08
-1.91907e-09
-5.46491e-09
1.6772e-08
1.64469e-09
-3.09177e-09
3.04719e-09
-2.64186e-09
4.15169e-09
-2.08663e-09
4.98222e-09
-1.57437e-09
5.59629e-09
-1.16822e-09
6.05488e-09
-8.75539e-10
6.40997e-09
-6.80105e-10
6.70217e-09
-5.60981e-10
6.96261e-09
-5.00591e-10
7.21607e-09
-4.87219e-10
7.48445e-09
-5.15581e-10
7.79049e-09
-5.87593e-10
8.16277e-09
-7.15074e-10
8.64443e-09
-9.27607e-10
9.31159e-09
-1.2949e-09
1.0317e-08
-1.99702e-09
1.19726e-08
-3.57468e-09
-7.84907e-09
1.43568e-08
1.84129e-09
-4.93306e-09
3.40226e-09
-4.20284e-09
4.62157e-09
-3.30594e-09
5.53037e-09
-2.48317e-09
6.19653e-09
-1.83438e-09
6.69012e-09
-1.36912e-09
7.06977e-09
-1.05976e-09
7.38066e-09
-8.71873e-10
7.65697e-09
-7.76899e-10
7.92553e-09
-7.55776e-10
8.20954e-09
-7.99599e-10
8.53239e-09
-9.10443e-10
8.92214e-09
-1.10482e-09
9.41804e-09
-1.42351e-09
1.00805e-08
-1.95737e-09
1.09984e-08
-2.91495e-09
1.22178e-08
-4.79404e-09
-8.66834e-09
1.30371e-08
2.05982e-09
-6.99289e-09
3.79171e-09
-5.93473e-09
5.12926e-09
-4.64348e-09
6.11445e-09
-3.46836e-09
6.82866e-09
-2.54859e-09
7.35274e-09
-1.8932e-09
7.75271e-09
-1.45973e-09
8.07842e-09
-1.19758e-09
8.36688e-09
-1.06536e-09
8.64652e-09
-1.03542e-09
8.94118e-09
-1.09426e-09
9.27369e-09
-1.24296e-09
9.66936e-09
-1.50048e-09
1.01591e-08
-1.91324e-09
1.07791e-08
-2.57738e-09
1.15489e-08
-3.68477e-09
1.23455e-08
-5.59064e-09
-8.74531e-09
1.24225e-08
2.31401e-09
-9.3069e-09
4.23743e-09
-7.85814e-09
5.69985e-09
-6.1059e-09
6.75987e-09
-4.52838e-09
7.51713e-09
-3.30585e-09
8.06592e-09
-2.442e-09
8.4807e-09
-1.87451e-09
8.81618e-09
-1.53306e-09
9.11196e-09
-1.36114e-09
9.39759e-09
-1.32104e-09
9.69673e-09
-1.3934e-09
1.00304e-08
-1.57666e-09
1.04192e-08
-1.88921e-09
1.08823e-08
-2.37641e-09
1.14297e-08
-3.12473e-09
1.20256e-08
-4.28066e-09
1.24782e-08
-6.04324e-09
-8.48972e-09
1.22226e-08
2.61903e-09
-1.19259e-08
4.76197e-09
-1.00011e-08
6.35699e-09
-7.70092e-09
7.48837e-09
-5.65976e-09
8.28094e-09
-4.09842e-09
8.84601e-09
-3.00707e-09
9.2678e-09
-2.2963e-09
9.60606e-09
-1.87133e-09
9.90267e-09
-1.65774e-09
1.01876e-08
-1.60598e-09
1.04835e-08
-1.68932e-09
1.08085e-08
-1.9016e-09
1.11765e-08
-2.25726e-09
1.15944e-08
-2.79431e-09
1.20486e-08
-3.57891e-09
1.24705e-08
-4.70251e-09
1.26671e-08
-6.23988e-09
-8.09572e-09
1.22731e-08
2.99529e-09
-1.49212e-08
5.39407e-09
-1.23999e-08
7.12886e-09
-9.43572e-09
8.32402e-09
-6.85491e-09
9.13954e-09
-4.91394e-09
9.70845e-09
-3.57597e-09
1.01262e-08
-2.71408e-09
1.04577e-08
-2.20284e-09
1.07465e-08
-1.94653e-09
1.10223e-08
-1.88172e-09
1.13056e-08
-1.97267e-09
1.16106e-08
-2.2066e-09
1.19442e-08
-2.59086e-09
1.23013e-08
-3.15142e-09
1.26517e-08
-3.92933e-09
1.29149e-08
-4.9657e-09
1.29305e-08
-6.25549e-09
-7.65112e-09
1.24859e-08
3.47257e-09
-1.83938e-08
6.17333e-09
-1.51006e-08
8.05197e-09
-1.13144e-08
9.29611e-09
-8.09905e-09
1.01152e-08
-5.73302e-09
1.06698e-08
-4.13061e-09
1.10683e-08
-3.11256e-09
1.13803e-08
-2.51481e-09
1.16501e-08
-2.21634e-09
1.19061e-08
-2.13771e-09
1.2166e-08
-2.23257e-09
1.24391e-08
-2.47973e-09
1.27254e-08
-2.87712e-09
1.30103e-08
-3.4363e-09
1.32547e-08
-4.17374e-09
1.33814e-08
-5.09243e-09
1.32722e-08
-6.14628e-09
-7.19354e-09
1.28146e-08
4.0966e-09
-2.24904e-08
7.15678e-09
-1.81608e-08
9.17548e-09
-1.33331e-08
1.04416e-08
-9.3652e-09
1.12343e-08
-6.52569e-09
1.17487e-08
-4.64505e-09
1.2107e-08
-3.47087e-09
1.23827e-08
-2.79046e-09
1.26194e-08
-2.4531e-09
1.2843e-08
-2.3613e-09
1.30673e-08
-2.45682e-09
1.32964e-08
-2.70885e-09
1.3524e-08
-3.10479e-09
1.37295e-08
-3.64176e-09
1.38716e-08
-4.31587e-09
1.38851e-08
-5.10588e-09
1.36902e-08
-5.95143e-09
-6.73761e-09
1.32343e-08
4.9407e-09
-2.74311e-08
8.42906e-09
-2.16492e-08
1.05668e-08
-1.54708e-08
1.18077e-08
-1.0606e-08
1.25283e-08
-7.24631e-09
1.29659e-08
-5.08268e-09
1.32561e-08
-3.76111e-09
1.3474e-08
-3.00832e-09
1.36605e-08
-2.63955e-09
1.38369e-08
-2.53775e-09
1.40123e-08
-2.63219e-09
1.41856e-08
-2.88214e-09
1.43454e-08
-3.26465e-09
1.44681e-08
-3.76438e-09
1.45151e-08
-4.36292e-09
1.44361e-08
-5.02683e-09
1.41815e-08
-5.69688e-09
-6.28775e-09
1.37317e-08
6.12824e-09
-3.35593e-08
1.01191e-08
-2.564e-08
1.23193e-08
-1.76711e-08
1.34537e-08
-1.17404e-08
1.40337e-08
-7.82627e-09
1.43438e-08
-5.39276e-09
1.45295e-08
-3.9468e-09
1.46628e-08
-3.14169e-09
1.47785e-08
-2.75521e-09
1.48913e-08
-2.65051e-09
1.5004e-08
-2.74492e-09
1.51104e-08
-2.98855e-09
1.51954e-08
-3.34968e-09
1.52347e-08
-3.80363e-09
1.51953e-08
-4.3235e-09
1.50407e-08
-4.87231e-09
1.4743e-08
-5.39917e-09
-5.84396e-09
1.42992e-08
6.5367e-09
-4.0096e-08
1.03445e-08
-2.94478e-08
1.21534e-08
-1.948e-08
1.29242e-08
-1.25112e-08
1.32266e-08
-8.1287e-09
1.33362e-08
-5.50232e-09
1.33757e-08
-3.98637e-09
1.33975e-08
-3.16349e-09
1.34218e-08
-2.77944e-09
1.34534e-08
-2.68215e-09
1.3489e-08
-2.78051e-09
1.35191e-08
-3.01863e-09
1.35287e-08
-3.35931e-09
1.3498e-08
-3.77292e-09
1.34038e-08
-4.22935e-09
1.32244e-08
-4.69287e-09
1.29465e-08
-5.12132e-09
-5.47132e-09
1.25739e-08
9.71312e-09
-4.98091e-08
1.45406e-08
-3.42752e-08
1.63561e-08
-2.12956e-08
1.68614e-08
-1.30165e-08
1.68884e-08
-8.15569e-09
1.67755e-08
-5.38943e-09
1.6647e-08
-3.85787e-09
1.65424e-08
-3.05887e-09
1.64686e-08
-2.70562e-09
1.64196e-08
-2.63315e-09
1.63834e-08
-2.74437e-09
1.63443e-08
-2.97947e-09
1.6283e-08
-3.29801e-09
1.61781e-08
-3.66807e-09
1.60083e-08
-4.05951e-09
1.57563e-08
-4.4409e-09
1.5415e-08
-4.77999e-09
-5.04772e-09
1.49914e-08
1.56793e-08
-6.54885e-08
2.1458e-08
-4.00539e-08
2.26392e-08
-2.24767e-08
2.23569e-08
-1.27342e-08
2.17653e-08
-7.56415e-09
2.12119e-08
-4.83594e-09
2.0773e-08
-3.41902e-09
2.04445e-08
-2.73033e-09
2.02016e-08
-2.46276e-09
2.00169e-08
-2.44847e-09
1.9864e-08
-2.59144e-09
1.97176e-08
-2.83305e-09
1.95533e-08
-3.13379e-09
1.93485e-08
-3.46323e-09
1.90838e-08
-3.79475e-09
1.87464e-08
-4.10352e-09
1.83336e-08
-4.36716e-09
-4.568e-09
1.78538e-08
2.86777e-08
-9.41661e-08
3.37226e-08
-4.50989e-08
3.23295e-08
-2.10836e-08
3.01029e-08
-1.05075e-08
2.82592e-08
-5.72049e-09
2.69078e-08
-3.48455e-09
2.59436e-08
-2.45483e-09
2.52517e-08
-2.03843e-09
2.47424e-08
-1.95347e-09
2.43495e-08
-2.05554e-09
2.40231e-08
-2.26502e-09
2.37241e-08
-2.53407e-09
2.34211e-08
-2.83079e-09
2.30891e-08
-3.13124e-09
2.27101e-08
-3.41574e-09
2.22743e-08
-3.66771e-09
2.1781e-08
-3.87391e-09
-4.02542e-09
2.12384e-08
6.32682e-08
-1.57434e-07
5.67599e-08
-3.85906e-08
4.72013e-08
-1.15249e-08
4.07308e-08
-4.03713e-09
3.66459e-08
-1.63556e-09
3.40207e-08
-8.59316e-10
3.22719e-08
-7.0605e-10
3.10585e-08
-8.25029e-10
3.01767e-08
-1.0717e-09
2.94989e-08
-1.37775e-09
2.89407e-08
-1.70682e-09
2.84438e-08
-2.03715e-09
2.79669e-08
-2.35386e-09
2.74812e-08
-2.64556e-09
2.69686e-08
-2.9031e-09
2.64201e-08
-3.11928e-09
2.58355e-08
-3.28926e-09
-3.41085e-09
2.52209e-08
1.83198e-07
1.59036e-07
9.70592e-08
4.75478e-08
6.68322e-08
1.87021e-08
5.34864e-08
9.30867e-09
4.64849e-08
5.36601e-09
4.23489e-08
3.27665e-09
3.96924e-08
1.95042e-09
3.78704e-08
9.97028e-10
3.65445e-08
2.5413e-10
3.55166e-08
-3.49827e-10
3.46667e-08
-8.56913e-10
3.392e-08
-1.29042e-09
3.3227e-08
-1.66086e-09
3.25556e-08
-1.97414e-09
3.18862e-08
-2.23376e-09
3.12092e-08
-2.44226e-09
3.05222e-08
-2.6022e-09
-2.71667e-09
2.9828e-08
7.72505e-08
8.17856e-08
7.54743e-08
4.9324e-08
6.54562e-08
2.87202e-08
5.74725e-08
1.72923e-08
5.19889e-08
1.08496e-08
4.82619e-08
7.0037e-09
4.56622e-08
4.55006e-09
4.37764e-08
2.88288e-09
4.23434e-08
1.6871e-09
4.12019e-08
7.91639e-10
4.0246e-08
9.8974e-11
3.93953e-08
-4.39722e-10
3.86043e-08
-8.69855e-10
3.78454e-08
-1.21523e-09
3.71021e-08
-1.49047e-09
3.6366e-08
-1.70616e-09
3.56344e-08
-1.87055e-09
-1.99056e-09
3.49083e-08
3.5956e-08
4.58297e-08
5.01389e-08
3.51411e-08
5.38282e-08
2.50309e-08
5.36601e-08
1.74604e-08
5.23502e-08
1.21596e-08
5.08667e-08
8.48715e-09
4.95051e-08
5.91174e-09
4.83207e-08
4.06726e-09
4.72925e-08
2.7153e-09
4.63817e-08
1.70247e-09
4.55511e-08
9.29523e-10
4.478e-08
3.3137e-10
4.40439e-08
-1.33718e-10
4.33231e-08
-4.94415e-10
4.26098e-08
-7.77192e-10
4.19007e-08
-9.97049e-10
4.11955e-08
-1.1654e-09
-1.29123e-09
4.04962e-08
1.43109e-08
3.15187e-08
2.3289e-08
2.6163e-08
2.80884e-08
2.02316e-08
3.04313e-08
1.51175e-08
3.14735e-08
1.11174e-08
3.18542e-08
8.10639e-09
3.19013e-08
5.86469e-09
3.17768e-08
4.19175e-09
3.15596e-08
2.9325e-09
3.12877e-08
1.97437e-09
3.09796e-08
1.23763e-09
3.06448e-08
6.66125e-10
3.0291e-08
2.20116e-10
2.99235e-08
-1.26945e-10
2.95421e-08
-3.9582e-10
2.91504e-08
-6.05287e-10
2.87517e-08
-7.66756e-10
-8.89145e-10
2.83497e-08
8.56546e-09
2.29533e-08
1.49488e-08
1.97797e-08
1.91813e-08
1.5999e-08
2.1834e-08
1.24648e-08
2.3451e-08
9.50037e-09
2.44172e-08
7.14018e-09
2.49765e-08
5.30542e-09
2.52768e-08
3.89146e-09
2.54069e-08
2.80234e-09
2.54209e-08
1.96044e-09
2.53522e-08
1.3063e-09
2.52228e-08
7.95545e-10
2.50476e-08
3.95289e-10
2.48395e-08
8.11481e-11
2.46063e-08
-1.62642e-10
2.43533e-08
-3.52308e-10
2.40861e-08
-4.9948e-10
-6.12217e-10
2.38091e-08
5.77537e-09
1.71779e-08
1.04512e-08
1.51038e-08
1.39057e-08
1.25446e-08
1.63357e-08
1.00348e-08
1.8003e-08
7.83309e-09
1.91309e-08
6.01232e-09
1.98834e-08
4.55292e-09
2.03737e-08
3.40113e-09
2.06782e-08
2.49782e-09
2.08485e-08
1.79021e-09
2.09196e-08
1.23512e-09
2.09165e-08
7.98704e-10
2.08568e-08
4.54958e-10
2.07539e-08
1.84034e-10
2.06201e-08
-2.87751e-11
2.04613e-08
-1.93502e-10
2.02838e-08
-3.22041e-10
-4.21307e-10
2.00929e-08
4.1998e-09
1.29781e-08
7.75622e-09
1.15474e-08
1.05507e-08
9.75003e-09
1.26505e-08
7.93498e-09
1.41882e-08
6.29543e-09
1.52965e-08
4.90405e-09
1.60849e-08
3.76455e-09
1.66365e-08
2.84953e-09
1.70122e-08
2.12212e-09
1.7256e-08
1.54632e-09
1.74001e-08
1.09104e-09
1.74679e-08
7.30919e-10
1.7477e-08
4.4591e-10
1.74406e-08
2.20379e-10
1.73696e-08
4.21958e-11
1.72728e-08
-9.662e-11
1.71557e-08
-2.04939e-10
-2.89115e-10
1.70235e-08
3.21005e-09
9.76807e-09
6.0011e-09
8.75634e-09
8.27831e-09
7.47281e-09
1.00608e-08
6.15245e-09
1.14199e-08
4.93638e-09
1.2438e-08
3.88598e-09
1.31899e-08
3.01263e-09
1.37369e-08
2.30255e-09
1.41266e-08
1.73236e-09
1.43955e-08
1.27742e-09
1.45711e-08
9.15425e-10
1.46744e-08
6.27657e-10
1.47213e-08
3.98969e-10
1.47244e-08
2.17349e-10
1.46932e-08
7.3348e-11
1.46364e-08
-3.98135e-11
1.45594e-08
-1.27935e-10
-1.96756e-10
1.44671e-08
2.53754e-09
7.23053e-09
4.7804e-09
6.51347e-09
6.65468e-09
5.59852e-09
8.16114e-09
4.64599e-09
9.34028e-09
3.75723e-09
1.02461e-08
2.98019e-09
1.09314e-08
2.32726e-09
1.14424e-08
1.79162e-09
1.18164e-08
1.35834e-09
1.20833e-08
1.01055e-09
1.22662e-08
7.32461e-10
1.23834e-08
5.10495e-10
1.24489e-08
3.33487e-10
1.24737e-08
1.92471e-10
1.24668e-08
8.03244e-11
1.24354e-08
-8.44502e-12
1.23849e-08
-7.74284e-11
-1.31534e-10
1.23197e-08
2.05225e-09
5.17828e-09
3.88547e-09
4.68025e-09
5.44153e-09
4.04246e-09
6.71427e-09
3.37325e-09
7.72813e-09
2.74337e-09
8.52024e-09
2.18808e-09
9.12949e-09
1.71801e-09
9.59119e-09
1.32992e-09
9.93522e-09
1.0143e-09
1.0186e-08
7.59811e-10
1.03629e-08
5.55542e-10
1.04814e-08
3.91963e-10
1.05538e-08
2.61135e-10
1.05896e-08
1.56627e-10
1.05966e-08
7.3295e-11
1.05811e-08
7.05563e-12
1.05483e-08
-4.45558e-11
-8.50909e-11
1.05018e-08
1.68483e-09
3.49345e-09
3.20034e-09
3.16474e-09
4.50004e-09
2.74276e-09
5.57561e-09
2.29769e-09
6.44266e-09
1.87632e-09
7.12801e-09
1.50274e-09
7.66117e-09
1.18485e-09
8.06989e-09
9.21205e-10
8.37825e-09
7.05938e-10
8.6063e-09
5.31761e-10
8.77031e-09
3.91534e-10
8.88334e-09
2.78934e-10
8.95582e-09
1.88653e-10
8.99609e-09
1.16361e-10
9.01081e-09
5.85764e-11
9.00534e-09
1.25189e-11
8.98432e-09
-2.35313e-11
-5.18041e-11
8.95103e-09
1.39498e-09
2.09848e-09
2.65558e-09
1.90414e-09
3.7441e-09
1.65424e-09
4.65202e-09
1.38976e-09
5.38995e-09
1.13839e-09
5.97803e-09
9.14658e-10
6.43929e-09
7.23591e-10
6.7959e-09
5.646e-10
7.06744e-09
4.34393e-10
7.27045e-09
3.28753e-10
7.41849e-09
2.4349e-10
7.52256e-09
1.74865e-10
7.5915e-09
1.19718e-10
7.6324e-09
7.54612e-11
7.65097e-09
4.00042e-11
7.65182e-09
1.16712e-11
7.63887e-09
-1.05828e-11
-2.79717e-11
7.61503e-09
1.15637e-09
9.42108e-10
2.20462e-09
8.55896e-10
3.11396e-09
7.44894e-10
3.87657e-09
6.2715e-10
4.50001e-09
5.14948e-10
4.99986e-09
4.14812e-10
5.39438e-09
3.2907e-10
5.70144e-09
2.57542e-10
5.93701e-09
1.98823e-10
6.11469e-09
1.51073e-10
6.24573e-09
1.12449e-10
6.3393e-09
8.1295e-11
6.40281e-09
5.62061e-11
6.44224e-09
3.60276e-11
6.46242e-09
1.98247e-11
6.46725e-09
6.84458e-12
6.46001e-09
-3.34791e-12
-1.11645e-11
6.44321e-09
9.42108e-10
1.798e-09
2.5429e-09
3.17005e-09
3.685e-09
4.09981e-09
4.42888e-09
4.68642e-09
4.88524e-09
5.03632e-09
5.14876e-09
5.23006e-09
5.28627e-09
5.32229e-09
5.34212e-09
5.34896e-09
5.34561e-09
5.33445e-09
2.25761e-09
-2.25761e-09
4.46384e-09
-2.20623e-09
6.52226e-09
-2.05842e-09
8.369e-09
-1.84673e-09
9.72052e-09
-1.35153e-09
1.05879e-08
-8.67346e-10
1.10515e-08
-4.6361e-10
1.15942e-08
-5.42735e-10
1.2301e-08
-7.06808e-10
1.32141e-08
-9.13052e-10
1.40725e-08
-8.58438e-10
1.46508e-08
-5.78288e-10
1.50868e-08
-4.35997e-10
1.54647e-08
-3.77933e-10
1.58407e-08
-3.75984e-10
1.6251e-08
-4.10306e-10
1.67032e-08
-4.52219e-10
1.71399e-08
-4.36713e-10
1.75026e-08
-3.62688e-10
1.77972e-08
-2.94591e-10
1.80422e-08
-2.45007e-10
1.82516e-08
-2.09342e-10
1.84283e-08
-1.76683e-10
1.85635e-08
-1.35286e-10
1.865e-08
-8.64199e-11
1.869e-08
-4.00303e-11
1.86884e-08
1.57684e-12
1.8648e-08
4.04028e-11
1.85699e-08
7.80881e-11
1.84562e-08
1.13774e-10
1.83098e-08
1.46336e-10
1.81348e-08
1.75012e-10
1.79356e-08
1.99182e-10
1.77171e-08
2.18552e-10
1.74839e-08
2.33177e-10
1.72405e-08
2.43387e-10
1.69908e-08
2.49685e-10
1.67382e-08
2.52646e-10
1.64853e-08
2.52848e-10
1.62345e-08
2.50823e-10
1.59875e-08
2.47046e-10
1.57455e-08
2.4192e-10
1.55098e-08
2.35784e-10
1.52808e-08
2.28917e-10
1.50593e-08
2.21545e-10
1.48454e-08
2.13849e-10
1.46395e-08
2.05975e-10
1.44414e-08
1.98035e-10
1.42513e-08
1.90119e-10
1.4069e-08
1.82295e-10
1.38944e-08
1.74616e-10
1.37273e-08
1.67119e-10
1.35674e-08
1.59835e-10
1.34147e-08
1.52782e-10
1.32687e-08
1.45974e-10
1.31293e-08
1.3942e-10
1.29962e-08
1.33122e-10
1.28691e-08
1.27081e-10
1.27478e-08
1.21294e-10
1.2632e-08
1.15758e-10
1.25216e-08
1.10466e-10
1.24161e-08
1.05412e-10
1.23156e-08
1.00589e-10
1.22196e-08
9.59872e-11
1.2128e-08
9.15995e-11
1.20405e-08
8.74174e-11
1.19571e-08
8.34323e-11
1.18775e-08
7.96361e-11
1.18015e-08
7.60205e-11
1.17289e-08
7.25781e-11
1.16596e-08
6.93009e-11
1.15934e-08
6.61818e-11
1.15302e-08
6.3214e-11
1.14698e-08
6.03904e-11
1.14121e-08
5.7705e-11
1.13569e-08
5.51514e-11
1.13042e-08
5.27239e-11
1.12538e-08
5.04168e-11
1.12056e-08
4.8225e-11
1.11594e-08
4.61432e-11
1.11153e-08
4.41666e-11
1.1073e-08
4.22907e-11
1.10325e-08
4.05108e-11
1.09936e-08
3.88228e-11
1.09564e-08
3.72227e-11
1.09207e-08
3.57067e-11
1.08864e-08
3.42707e-11
1.08535e-08
3.29116e-11
1.08219e-08
3.16257e-11
1.07915e-08
3.04097e-11
1.07622e-08
2.92608e-11
1.07341e-08
2.81757e-11
1.07069e-08
2.71517e-11
1.06807e-08
2.61858e-11
1.06554e-08
2.52757e-11
1.0631e-08
2.44186e-11
1.06074e-08
2.3612e-11
1.05846e-08
2.28539e-11
1.05624e-08
2.21418e-11
1.05409e-08
2.14737e-11
1.05201e-08
2.08473e-11
1.04998e-08
2.02611e-11
1.04801e-08
1.97125e-11
1.04609e-08
1.92005e-11
1.04422e-08
1.87227e-11
1.04239e-08
1.82778e-11
1.04061e-08
1.7864e-11
1.03886e-08
1.748e-11
1.03715e-08
1.7124e-11
1.03547e-08
1.6795e-11
1.03382e-08
1.64914e-11
1.0322e-08
1.6212e-11
1.0306e-08
1.59555e-11
1.02903e-08
1.57208e-11
1.02748e-08
1.55068e-11
1.02595e-08
1.53124e-11
1.02443e-08
1.51364e-11
1.02293e-08
1.49783e-11
1.02145e-08
1.48366e-11
1.01998e-08
1.47109e-11
1.01852e-08
1.45999e-11
1.01707e-08
1.45032e-11
1.01563e-08
1.44198e-11
1.01419e-08
1.43491e-11
1.01276e-08
1.42904e-11
1.01134e-08
1.42428e-11
1.00992e-08
1.42061e-11
1.0085e-08
1.41793e-11
1.00708e-08
1.41621e-11
1.00567e-08
1.4154e-11
1.00425e-08
1.41542e-11
1.00284e-08
1.41626e-11
1.00142e-08
1.41784e-11
9.99999e-09
1.42015e-11
9.98576e-09
1.42313e-11
9.97149e-09
1.42677e-11
9.95718e-09
1.43099e-11
9.94282e-09
1.43582e-11
9.92841e-09
1.44118e-11
9.91394e-09
1.44706e-11
9.89941e-09
1.45345e-11
9.8848e-09
1.46031e-11
9.87013e-09
1.46765e-11
9.85537e-09
1.47544e-11
9.84054e-09
1.48368e-11
9.82561e-09
1.49234e-11
9.8106e-09
1.50146e-11
9.79549e-09
1.51103e-11
9.78028e-09
1.52108e-11
9.76496e-09
1.53163e-11
9.74953e-09
1.5427e-11
9.73399e-09
1.55438e-11
9.71832e-09
1.56673e-11
9.70253e-09
1.57984e-11
9.68659e-09
1.59386e-11
9.6705e-09
1.60894e-11
9.65424e-09
1.62533e-11
9.63781e-09
1.64329e-11
9.62118e-09
1.66321e-11
9.60432e-09
1.68557e-11
9.58721e-09
1.71102e-11
9.56981e-09
1.74035e-11
9.55206e-09
1.77467e-11
9.53391e-09
1.81539e-11
9.51526e-09
1.86439e-11
9.49602e-09
1.92419e-11
9.47604e-09
1.99813e-11
9.45513e-09
2.09083e-11
9.43305e-09
2.20863e-11
9.40944e-09
2.36042e-11
9.38385e-09
2.55902e-11
9.35562e-09
2.82334e-11
9.3238e-09
3.18239e-11
9.28697e-09
3.6828e-11
9.24292e-09
4.40427e-11
9.18797e-09
5.49502e-11
9.11532e-09
7.26509e-11
9.01048e-09
1.04845e-10
8.83423e-09
1.76253e-10
4.0093e-10
8.4333e-09
1.11387e-09
-3.37148e-09
2.30633e-09
-3.39869e-09
3.67958e-09
-3.43167e-09
5.30082e-09
-3.46797e-09
7.47958e-09
-3.53029e-09
1.03549e-08
-3.74269e-09
1.05204e-08
-6.29095e-10
1.07796e-08
-8.01924e-10
1.14208e-08
-1.34805e-09
1.34316e-08
-2.9238e-09
1.51652e-08
-2.5921e-09
1.52024e-08
-6.15435e-10
1.53134e-08
-5.47027e-10
1.54815e-08
-5.46011e-10
1.57269e-08
-6.21396e-10
1.61127e-08
-7.96131e-10
1.67671e-08
-1.10662e-09
1.74024e-08
-1.07195e-09
1.77394e-08
-6.99755e-10
1.79675e-08
-5.2269e-10
1.81634e-08
-4.40876e-10
1.83603e-08
-4.06252e-10
1.8562e-08
-3.78324e-10
1.87173e-08
-2.90648e-10
1.87927e-08
-1.61833e-10
1.88152e-08
-6.24944e-11
1.88026e-08
1.4209e-11
1.87562e-08
8.67253e-11
1.867e-08
1.64349e-10
1.85452e-08
2.38595e-10
1.83861e-08
3.05427e-10
1.81971e-08
3.6399e-10
1.79837e-08
4.12595e-10
1.77516e-08
4.5066e-10
1.75062e-08
4.78541e-10
1.72524e-08
4.97221e-10
1.69941e-08
5.0798e-10
1.67346e-08
5.12155e-10
1.64764e-08
5.10999e-10
1.62216e-08
5.05619e-10
1.59717e-08
4.96961e-10
1.57278e-08
4.85814e-10
1.54908e-08
4.72829e-10
1.52612e-08
4.58536e-10
1.50393e-08
4.43359e-10
1.48255e-08
4.2764e-10
1.46199e-08
4.11645e-10
1.44223e-08
3.95586e-10
1.42328e-08
3.79625e-10
1.40512e-08
3.63889e-10
1.38774e-08
3.48473e-10
1.3711e-08
3.33447e-10
1.3552e-08
3.18864e-10
1.34e-08
3.04759e-10
1.32549e-08
2.91155e-10
1.31162e-08
2.78064e-10
1.29838e-08
2.65493e-10
1.28575e-08
2.53439e-10
1.27369e-08
2.41897e-10
1.26218e-08
2.30857e-10
1.25119e-08
2.20307e-10
1.24071e-08
2.10232e-10
1.23071e-08
2.00617e-10
1.22116e-08
1.91446e-10
1.21205e-08
1.82701e-10
1.20336e-08
1.74366e-10
1.19506e-08
1.66424e-10
1.18714e-08
1.58858e-10
1.17957e-08
1.51652e-10
1.17235e-08
1.44791e-10
1.16546e-08
1.38259e-10
1.15887e-08
1.32042e-10
1.15258e-08
1.26126e-10
1.14657e-08
1.20498e-10
1.14082e-08
1.15145e-10
1.13533e-08
1.10054e-10
1.13009e-08
1.05214e-10
1.12507e-08
1.00615e-10
1.12026e-08
9.62445e-11
1.11567e-08
9.20938e-11
1.11127e-08
8.81526e-11
1.10706e-08
8.44119e-11
1.10302e-08
8.08627e-11
1.09916e-08
7.74968e-11
1.09545e-08
7.43059e-11
1.09189e-08
7.12825e-11
1.08847e-08
6.84189e-11
1.08519e-08
6.57084e-11
1.08204e-08
6.31438e-11
1.07901e-08
6.07189e-11
1.0761e-08
5.84274e-11
1.07329e-08
5.62633e-11
1.07058e-08
5.42208e-11
1.06797e-08
5.22945e-11
1.06545e-08
5.04791e-11
1.06301e-08
4.87695e-11
1.06066e-08
4.71611e-11
1.05838e-08
4.56488e-11
1.05617e-08
4.42287e-11
1.05403e-08
4.28959e-11
1.05195e-08
4.16469e-11
1.04993e-08
4.04772e-11
1.04796e-08
3.93835e-11
1.04604e-08
3.8362e-11
1.04417e-08
3.74092e-11
1.04235e-08
3.65218e-11
1.04057e-08
3.56966e-11
1.03882e-08
3.49307e-11
1.03711e-08
3.42209e-11
1.03544e-08
3.35648e-11
1.03379e-08
3.29593e-11
1.03217e-08
3.24022e-11
1.03058e-08
3.18907e-11
1.02901e-08
3.1423e-11
1.02746e-08
3.09961e-11
1.02593e-08
3.06086e-11
1.02442e-08
3.02581e-11
1.02292e-08
2.99426e-11
1.02144e-08
2.96605e-11
1.01997e-08
2.94099e-11
1.01851e-08
2.9189e-11
1.01706e-08
2.89964e-11
1.01562e-08
2.88304e-11
1.01418e-08
2.86896e-11
1.01275e-08
2.85728e-11
1.01133e-08
2.84785e-11
1.00991e-08
2.84054e-11
1.00849e-08
2.83525e-11
1.00708e-08
2.83186e-11
1.00566e-08
2.83026e-11
1.00425e-08
2.83036e-11
1.00283e-08
2.83207e-11
1.00142e-08
2.83528e-11
9.99996e-09
2.83993e-11
9.98573e-09
2.84594e-11
9.97146e-09
2.85321e-11
9.95716e-09
2.86171e-11
9.9428e-09
2.87136e-11
9.92839e-09
2.8821e-11
9.91392e-09
2.89389e-11
9.89939e-09
2.90669e-11
9.88479e-09
2.92043e-11
9.87011e-09
2.93512e-11
9.85536e-09
2.9507e-11
9.84053e-09
2.96718e-11
9.8256e-09
2.98453e-11
9.81059e-09
3.00278e-11
9.79548e-09
3.02191e-11
9.78027e-09
3.042e-11
9.76496e-09
3.06308e-11
9.74953e-09
3.08523e-11
9.73399e-09
3.10857e-11
9.71833e-09
3.13323e-11
9.70253e-09
3.15943e-11
9.6866e-09
3.18742e-11
9.67051e-09
3.21754e-11
9.65426e-09
3.25022e-11
9.63783e-09
3.28606e-11
9.62121e-09
3.32578e-11
9.60436e-09
3.37035e-11
9.58726e-09
3.42104e-11
9.56987e-09
3.47945e-11
9.55214e-09
3.54776e-11
9.534e-09
3.62877e-11
9.51539e-09
3.72619e-11
9.49618e-09
3.84502e-11
9.47624e-09
3.9919e-11
9.45539e-09
4.17594e-11
9.43338e-09
4.4096e-11
9.40988e-09
4.71048e-11
9.38443e-09
5.10371e-11
9.3564e-09
5.62631e-11
9.32488e-09
6.33483e-11
9.28851e-09
7.31936e-11
9.24523e-09
8.73224e-11
9.19167e-09
1.08513e-10
9.12195e-09
1.42373e-10
9.02495e-09
2.01847e-10
8.87898e-09
3.22217e-10
6.16305e-10
8.66361e-09
7.20831e-11
-3.44356e-09
1.36636e-10
-3.46325e-09
1.78582e-10
-3.47361e-09
1.72258e-10
-3.46165e-09
5.95168e-11
-3.41754e-09
-3.59822e-10
-3.32335e-09
2.07525e-09
-3.06416e-09
4.60827e-09
-3.33495e-09
7.54339e-09
-4.28317e-09
1.06789e-08
-6.05929e-09
1.51063e-08
-7.0195e-09
1.4815e-08
-3.24135e-10
1.46689e-08
-4.00922e-10
1.4622e-08
-4.99127e-10
1.46433e-08
-6.42672e-10
1.47747e-08
-9.27511e-10
1.6842e-08
-3.17396e-09
1.86929e-08
-2.92286e-09
1.83514e-08
-3.58264e-10
1.82502e-08
-4.21509e-10
1.82858e-08
-4.76441e-10
1.84578e-08
-5.78219e-10
1.88447e-08
-7.65236e-10
1.91213e-08
-5.67315e-10
1.90983e-08
-1.38769e-10
1.90459e-08
-1.01499e-11
1.90156e-08
4.45806e-11
1.89791e-08
1.23153e-10
1.88782e-08
2.65289e-10
1.87279e-08
3.88944e-10
1.85418e-08
4.91499e-10
1.83222e-08
5.83528e-10
1.80778e-08
6.56996e-10
1.78168e-08
7.11658e-10
1.75462e-08
7.49164e-10
1.72713e-08
7.72104e-10
1.69961e-08
7.83176e-10
1.67235e-08
7.84831e-10
1.64553e-08
7.79129e-10
1.61932e-08
7.67754e-10
1.59381e-08
7.52072e-10
1.56907e-08
7.33193e-10
1.54515e-08
7.12013e-10
1.52208e-08
6.89248e-10
1.49987e-08
6.65467e-10
1.47852e-08
6.4112e-10
1.45803e-08
6.16556e-10
1.43839e-08
5.92051e-10
1.41957e-08
5.67815e-10
1.40155e-08
5.44011e-10
1.38433e-08
5.20761e-10
1.36785e-08
4.98155e-10
1.35212e-08
4.76255e-10
1.33708e-08
4.55106e-10
1.32272e-08
4.34733e-10
1.30901e-08
4.15149e-10
1.29593e-08
3.96357e-10
1.28344e-08
3.7835e-10
1.27151e-08
3.61116e-10
1.26014e-08
3.44639e-10
1.24928e-08
3.28897e-10
1.23891e-08
3.13868e-10
1.22902e-08
2.99528e-10
1.21958e-08
2.8585e-10
1.21057e-08
2.7281e-10
1.20197e-08
2.60381e-10
1.19376e-08
2.48538e-10
1.18592e-08
2.37255e-10
1.17843e-08
2.26509e-10
1.17128e-08
2.16277e-10
1.16446e-08
2.06535e-10
1.15794e-08
1.97262e-10
1.1517e-08
1.88438e-10
1.14575e-08
1.80042e-10
1.14006e-08
1.72055e-10
1.13462e-08
1.6446e-10
1.12942e-08
1.57239e-10
1.12444e-08
1.50376e-10
1.11968e-08
1.43855e-10
1.11512e-08
1.3766e-10
1.11076e-08
1.31778e-10
1.10658e-08
1.26195e-10
1.10258e-08
1.20898e-10
1.09874e-08
1.15874e-10
1.09506e-08
1.11111e-10
1.09153e-08
1.06597e-10
1.08814e-08
1.02323e-10
1.08488e-08
9.82761e-11
1.08175e-08
9.44476e-11
1.07874e-08
9.08272e-11
1.07584e-08
8.74059e-11
1.07305e-08
8.41748e-11
1.07036e-08
8.11252e-11
1.06776e-08
7.82492e-11
1.06526e-08
7.55386e-11
1.06284e-08
7.2986e-11
1.06049e-08
7.05842e-11
1.05823e-08
6.83264e-11
1.05603e-08
6.62056e-11
1.0539e-08
6.42158e-11
1.05183e-08
6.23507e-11
1.04981e-08
6.06044e-11
1.04786e-08
5.89713e-11
1.04595e-08
5.74461e-11
1.04409e-08
5.60234e-11
1.04227e-08
5.46986e-11
1.04049e-08
5.34666e-11
1.03875e-08
5.23232e-11
1.03705e-08
5.12638e-11
1.03538e-08
5.02841e-11
1.03373e-08
4.93805e-11
1.03212e-08
4.8549e-11
1.03053e-08
4.77857e-11
1.02896e-08
4.70875e-11
1.02742e-08
4.64509e-11
1.02589e-08
4.58728e-11
1.02438e-08
4.53499e-11
1.02289e-08
4.48796e-11
1.02141e-08
4.44589e-11
1.01994e-08
4.40853e-11
1.01848e-08
4.37563e-11
1.01704e-08
4.34695e-11
1.0156e-08
4.32223e-11
1.01416e-08
4.30132e-11
1.01274e-08
4.28394e-11
1.01132e-08
4.26995e-11
1.0099e-08
4.25914e-11
1.00848e-08
4.25133e-11
1.00707e-08
4.24637e-11
1.00565e-08
4.2441e-11
1.00424e-08
4.24434e-11
1.00282e-08
4.247e-11
1.00141e-08
4.25192e-11
9.99988e-09
4.25897e-11
9.98566e-09
4.26804e-11
9.9714e-09
4.27904e-11
9.9571e-09
4.29184e-11
9.94275e-09
4.30638e-11
9.92835e-09
4.32255e-11
9.91388e-09
4.34028e-11
9.89936e-09
4.3595e-11
9.88476e-09
4.38017e-11
9.87009e-09
4.40223e-11
9.85534e-09
4.42562e-11
9.84051e-09
4.45036e-11
9.82559e-09
4.4764e-11
9.81058e-09
4.50376e-11
9.79547e-09
4.53249e-11
9.78027e-09
4.56261e-11
9.76495e-09
4.59421e-11
9.74953e-09
4.62741e-11
9.73399e-09
4.66236e-11
9.71833e-09
4.6993e-11
9.70254e-09
4.73852e-11
9.68661e-09
4.78039e-11
9.67053e-09
4.82542e-11
9.65429e-09
4.87428e-11
9.63788e-09
4.9278e-11
9.62126e-09
4.98708e-11
9.60443e-09
5.05356e-11
9.58735e-09
5.12908e-11
9.56998e-09
5.21607e-11
9.55228e-09
5.31771e-11
9.53419e-09
5.43815e-11
9.51562e-09
5.58289e-11
9.49648e-09
5.75924e-11
9.47663e-09
5.97706e-11
9.45589e-09
6.24969e-11
9.43403e-09
6.59547e-11
9.41074e-09
7.04009e-11
9.38557e-09
7.62017e-11
9.35794e-09
8.38936e-11
9.327e-09
9.4288e-11
9.29153e-09
1.08664e-10
9.24971e-09
1.29145e-10
9.19873e-09
1.59493e-10
9.13417e-09
2.06934e-10
9.04929e-09
2.86728e-10
8.9374e-09
4.34099e-10
7.3163e-10
8.82208e-09
1.11562e-10
-3.55512e-09
2.25194e-10
-3.57688e-09
3.43481e-10
-3.5919e-09
4.81037e-10
-3.59921e-09
6.62018e-10
-3.59853e-09
9.43062e-10
-3.6044e-09
1.51894e-09
-3.64005e-09
1.96396e-09
-3.77996e-09
1.69622e-09
-4.01543e-09
-1.50318e-10
-4.21275e-09
-3.15751e-09
-4.01231e-09
-4.12563e-10
-3.06908e-09
1.83987e-09
-2.65336e-09
3.95473e-09
-2.61398e-09
6.28136e-09
-2.96931e-09
9.31108e-09
-3.95723e-09
1.2351e-08
-6.21391e-09
1.73124e-08
-7.88421e-09
1.72702e-08
-3.1605e-10
1.72518e-08
-4.03107e-10
1.72975e-08
-5.22179e-10
1.74758e-08
-7.5654e-10
1.93647e-08
-2.65415e-09
2.04564e-08
-1.659e-09
1.94954e-08
8.22262e-10
1.92104e-08
2.74862e-10
1.92452e-08
9.71723e-12
1.93878e-08
-1.9434e-11
1.92255e-08
4.27585e-10
1.9008e-08
6.0644e-10
1.87865e-08
7.1304e-10
1.85111e-08
8.58939e-10
1.82122e-08
9.55899e-10
1.7903e-08
1.02079e-09
1.75928e-08
1.05941e-09
1.72866e-08
1.07826e-09
1.69875e-08
1.08231e-09
1.66969e-08
1.07545e-09
1.64156e-08
1.06042e-09
1.61441e-08
1.03928e-09
1.58826e-08
1.01359e-09
1.56311e-08
9.84649e-10
1.53896e-08
9.53469e-10
1.5158e-08
9.20854e-10
1.49361e-08
8.87427e-10
1.47235e-08
8.53675e-10
1.45201e-08
8.19975e-10
1.43255e-08
7.86617e-10
1.41395e-08
7.53825e-10
1.39618e-08
7.21771e-10
1.37919e-08
6.9058e-10
1.36298e-08
6.60344e-10
1.34749e-08
6.31125e-10
1.3327e-08
6.02962e-10
1.31859e-08
5.75876e-10
1.30512e-08
5.49873e-10
1.29226e-08
5.24946e-10
1.27998e-08
5.01082e-10
1.26827e-08
4.78257e-10
1.25709e-08
4.56445e-10
1.24642e-08
4.35616e-10
1.23623e-08
4.15735e-10
1.22651e-08
3.96768e-10
1.21722e-08
3.78681e-10
1.20836e-08
3.61437e-10
1.1999e-08
3.45002e-10
1.19182e-08
3.29342e-10
1.1841e-08
3.14422e-10
1.17673e-08
3.00212e-10
1.16969e-08
2.86679e-10
1.16297e-08
2.73793e-10
1.15654e-08
2.61527e-10
1.1504e-08
2.49853e-10
1.14453e-08
2.38745e-10
1.13892e-08
2.28177e-10
1.13355e-08
2.18126e-10
1.12842e-08
2.0857e-10
1.1235e-08
1.99486e-10
1.1188e-08
1.90854e-10
1.11431e-08
1.82654e-10
1.11e-08
1.74867e-10
1.10587e-08
1.67475e-10
1.10191e-08
1.60461e-10
1.09812e-08
1.53808e-10
1.09448e-08
1.475e-10
1.09099e-08
1.41523e-10
1.08763e-08
1.35862e-10
1.08441e-08
1.30502e-10
1.08131e-08
1.25431e-10
1.07833e-08
1.20636e-10
1.07546e-08
1.16104e-10
1.0727e-08
1.11824e-10
1.07003e-08
1.07784e-10
1.06746e-08
1.03974e-10
1.06497e-08
1.00383e-10
1.06257e-08
9.70013e-11
1.06025e-08
9.38195e-11
1.058e-08
9.08283e-11
1.05582e-08
8.80187e-11
1.0537e-08
8.53826e-11
1.05164e-08
8.29116e-11
1.04965e-08
8.05982e-11
1.0477e-08
7.84349e-11
1.0458e-08
7.64143e-11
1.04395e-08
7.45299e-11
1.04214e-08
7.27749e-11
1.04038e-08
7.11432e-11
1.03865e-08
6.96286e-11
1.03695e-08
6.82256e-11
1.03529e-08
6.69284e-11
1.03365e-08
6.57317e-11
1.03204e-08
6.46308e-11
1.03046e-08
6.36206e-11
1.0289e-08
6.26963e-11
1.02736e-08
6.18538e-11
1.02584e-08
6.10889e-11
1.02433e-08
6.03973e-11
1.02284e-08
5.97752e-11
1.02137e-08
5.92193e-11
1.0199e-08
5.87256e-11
1.01845e-08
5.8291e-11
1.017e-08
5.79125e-11
1.01557e-08
5.75867e-11
1.01414e-08
5.7311e-11
1.01271e-08
5.70826e-11
1.01129e-08
5.68988e-11
1.00988e-08
5.67574e-11
1.00846e-08
5.66557e-11
1.00705e-08
5.65919e-11
1.00564e-08
5.65636e-11
1.00422e-08
5.6569e-11
1.00281e-08
5.66062e-11
1.0014e-08
5.66734e-11
9.99977e-09
5.6769e-11
9.98556e-09
5.68914e-11
9.97131e-09
5.70394e-11
9.95702e-09
5.72112e-11
9.94268e-09
5.74061e-11
9.92828e-09
5.76226e-11
9.91382e-09
5.786e-11
9.8993e-09
5.8117e-11
9.88471e-09
5.83933e-11
9.87005e-09
5.86879e-11