/*--------------------------------*- C++ -*----------------------------------*\
  =========                 |
  \\      /  F ield         | OpenFOAM: The Open Source CFD Toolbox
   \\    /   O peration     | Website:  https://openfoam.org
    \\  /    A nd           | Version:  10
     \\/     M anipulation  |
\*---------------------------------------------------------------------------*/
FoamFile
{
    format      ascii;
    class       volScalarField;
    location    "1.36";
    object      p;
}
// * * * * * * * * * * * * * * * * * * * * * * * * * * * * * * * * * * * * * //

dimensions      [1 -1 -2 0 0 0 0];

internalField   nonuniform List<scalar> 
12225
(
1.63072e+07
1.62508e+07
1.615e+07
1.60169e+07
1.58623e+07
1.56941e+07
1.55179e+07
1.53374e+07
1.51549e+07
1.49717e+07
1.47884e+07
1.4605e+07
1.44209e+07
1.4235e+07
1.40453e+07
1.38485e+07
1.36376e+07
1.3395e+07
1.63094e+07
1.62529e+07
1.61517e+07
1.60183e+07
1.58634e+07
1.56949e+07
1.55186e+07
1.5338e+07
1.51555e+07
1.49723e+07
1.47891e+07
1.46057e+07
1.44218e+07
1.42362e+07
1.40472e+07
1.38516e+07
1.36438e+07
1.34133e+07
1.63145e+07
1.62574e+07
1.61554e+07
1.60213e+07
1.58657e+07
1.56968e+07
1.55201e+07
1.53393e+07
1.51567e+07
1.49735e+07
1.47904e+07
1.46073e+07
1.44239e+07
1.4239e+07
1.40513e+07
1.38581e+07
1.3656e+07
1.3441e+07
1.63229e+07
1.62649e+07
1.61617e+07
1.60262e+07
1.58695e+07
1.56998e+07
1.55225e+07
1.53414e+07
1.51587e+07
1.49756e+07
1.47926e+07
1.461e+07
1.44272e+07
1.42436e+07
1.40578e+07
1.38682e+07
1.36732e+07
1.34734e+07
1.63353e+07
1.6276e+07
1.61708e+07
1.60334e+07
1.58751e+07
1.57041e+07
1.55261e+07
1.53445e+07
1.51615e+07
1.49785e+07
1.47959e+07
1.46138e+07
1.4432e+07
1.425e+07
1.40668e+07
1.38817e+07
1.36945e+07
1.3508e+07
1.63527e+07
1.62915e+07
1.61834e+07
1.60433e+07
1.58827e+07
1.57101e+07
1.55309e+07
1.53486e+07
1.51654e+07
1.49824e+07
1.48002e+07
1.46189e+07
1.44385e+07
1.42584e+07
1.40784e+07
1.38983e+07
1.37189e+07
1.35438e+07
1.6376e+07
1.63121e+07
1.62002e+07
1.60563e+07
1.58927e+07
1.57178e+07
1.55371e+07
1.53539e+07
1.51703e+07
1.49874e+07
1.48057e+07
1.46255e+07
1.44466e+07
1.42689e+07
1.40925e+07
1.39176e+07
1.37457e+07
1.35801e+07
1.64066e+07
1.63389e+07
1.62218e+07
1.6073e+07
1.59053e+07
1.57275e+07
1.55449e+07
1.53606e+07
1.51765e+07
1.49937e+07
1.48126e+07
1.46335e+07
1.44565e+07
1.42815e+07
1.41089e+07
1.39393e+07
1.37743e+07
1.36167e+07
1.64462e+07
1.63733e+07
1.62491e+07
1.60937e+07
1.59208e+07
1.57393e+07
1.55543e+07
1.53686e+07
1.51839e+07
1.50012e+07
1.48209e+07
1.46431e+07
1.44682e+07
1.42961e+07
1.41275e+07
1.3963e+07
1.38042e+07
1.36533e+07
1.6497e+07
1.64167e+07
1.62829e+07
1.61189e+07
1.59395e+07
1.57534e+07
1.55654e+07
1.5378e+07
1.51926e+07
1.501e+07
1.48305e+07
1.46543e+07
1.44816e+07
1.43126e+07
1.41479e+07
1.39883e+07
1.38351e+07
1.36899e+07
1.65619e+07
1.64711e+07
1.63243e+07
1.6149e+07
1.59614e+07
1.57697e+07
1.55781e+07
1.53888e+07
1.52026e+07
1.50201e+07
1.48414e+07
1.46669e+07
1.44965e+07
1.43307e+07
1.41699e+07
1.40149e+07
1.38666e+07
1.37263e+07
1.66381e+07
1.6533e+07
1.63698e+07
1.61813e+07
1.59842e+07
1.57864e+07
1.55911e+07
1.53997e+07
1.52127e+07
1.50303e+07
1.48526e+07
1.46796e+07
1.45115e+07
1.43485e+07
1.41912e+07
1.404e+07
1.38958e+07
1.37594e+07
1.67319e+07
1.66065e+07
1.64217e+07
1.62169e+07
1.60089e+07
1.58042e+07
1.56047e+07
1.54111e+07
1.52233e+07
1.50411e+07
1.48643e+07
1.4693e+07
1.45272e+07
1.4367e+07
1.42129e+07
1.40653e+07
1.39248e+07
1.37918e+07
1.68701e+07
1.67084e+07
1.64896e+07
1.62613e+07
1.60386e+07
1.58251e+07
1.56206e+07
1.54244e+07
1.52357e+07
1.50538e+07
1.48783e+07
1.4709e+07
1.45458e+07
1.43888e+07
1.42382e+07
1.40944e+07
1.39576e+07
1.38282e+07
1.70848e+07
1.68499e+07
1.65752e+07
1.63134e+07
1.60718e+07
1.58476e+07
1.56376e+07
1.54388e+07
1.52494e+07
1.50681e+07
1.48943e+07
1.47274e+07
1.45672e+07
1.44137e+07
1.42669e+07
1.4127e+07
1.3994e+07
1.38682e+07
1.74463e+07
1.7038e+07
1.66705e+07
1.63647e+07
1.61017e+07
1.58671e+07
1.56521e+07
1.54516e+07
1.52623e+07
1.50825e+07
1.49111e+07
1.47472e+07
1.45906e+07
1.44409e+07
1.42981e+07
1.41622e+07
1.40332e+07
1.39109e+07
1.81425e+07
1.72259e+07
1.67318e+07
1.63879e+07
1.61117e+07
1.58726e+07
1.56569e+07
1.54575e+07
1.52707e+07
1.5094e+07
1.49262e+07
1.47663e+07
1.46139e+07
1.44686e+07
1.43302e+07
1.41986e+07
1.40735e+07
1.39548e+07
1.7284e+07
1.69426e+07
1.66094e+07
1.63213e+07
1.60701e+07
1.58451e+07
1.56391e+07
1.54475e+07
1.52674e+07
1.5097e+07
1.49351e+07
1.47809e+07
1.46339e+07
1.44938e+07
1.43603e+07
1.42333e+07
1.41125e+07
1.39976e+07
1.67041e+07
1.65638e+07
1.63708e+07
1.61663e+07
1.59654e+07
1.57726e+07
1.55886e+07
1.54132e+07
1.52457e+07
1.50856e+07
1.49326e+07
1.47862e+07
1.46462e+07
1.45125e+07
1.43848e+07
1.42629e+07
1.41467e+07
1.4036e+07
1.63713e+07
1.62909e+07
1.61626e+07
1.6011e+07
1.58498e+07
1.56864e+07
1.55246e+07
1.53662e+07
1.52122e+07
1.5063e+07
1.49191e+07
1.47804e+07
1.46471e+07
1.45191e+07
1.43965e+07
1.42791e+07
1.41668e+07
1.40596e+07
1.61807e+07
1.61228e+07
1.60243e+07
1.59009e+07
1.57636e+07
1.56196e+07
1.54731e+07
1.53271e+07
1.5183e+07
1.50421e+07
1.49049e+07
1.4772e+07
1.46436e+07
1.45198e+07
1.44009e+07
1.42866e+07
1.41772e+07
1.40723e+07
1.60542e+07
1.60076e+07
1.59255e+07
1.58193e+07
1.56976e+07
1.55669e+07
1.54316e+07
1.52947e+07
1.51583e+07
1.50236e+07
1.48918e+07
1.47633e+07
1.46387e+07
1.45182e+07
1.4402e+07
1.42903e+07
1.41829e+07
1.40799e+07
1.59686e+07
1.59282e+07
1.58558e+07
1.57603e+07
1.56488e+07
1.55273e+07
1.53999e+07
1.52696e+07
1.51387e+07
1.50087e+07
1.48808e+07
1.47556e+07
1.46339e+07
1.45158e+07
1.44018e+07
1.42918e+07
1.4186e+07
1.40844e+07
1.59102e+07
1.58735e+07
1.58072e+07
1.57185e+07
1.56138e+07
1.54984e+07
1.53764e+07
1.52508e+07
1.51239e+07
1.49973e+07
1.48722e+07
1.47495e+07
1.46298e+07
1.45135e+07
1.4401e+07
1.42923e+07
1.41877e+07
1.4087e+07
1.58706e+07
1.58363e+07
1.57737e+07
1.56894e+07
1.55892e+07
1.5478e+07
1.53597e+07
1.52373e+07
1.51132e+07
1.49889e+07
1.48658e+07
1.47448e+07
1.46265e+07
1.45115e+07
1.44001e+07
1.42923e+07
1.41885e+07
1.40886e+07
1.58443e+07
1.58114e+07
1.57513e+07
1.56698e+07
1.55725e+07
1.54641e+07
1.53482e+07
1.5228e+07
1.51057e+07
1.4983e+07
1.48612e+07
1.47414e+07
1.46241e+07
1.451e+07
1.43993e+07
1.42922e+07
1.41889e+07
1.40894e+07
1.58274e+07
1.57954e+07
1.57368e+07
1.56571e+07
1.55616e+07
1.54549e+07
1.53407e+07
1.52218e+07
1.51007e+07
1.4979e+07
1.48582e+07
1.47391e+07
1.46225e+07
1.45089e+07
1.43986e+07
1.4292e+07
1.41891e+07
1.40899e+07
1.58172e+07
1.57857e+07
1.5728e+07
1.56493e+07
1.5555e+07
1.54493e+07
1.5336e+07
1.5218e+07
1.50976e+07
1.49766e+07
1.48563e+07
1.47376e+07
1.46214e+07
1.45082e+07
1.43982e+07
1.42918e+07
1.41891e+07
1.40902e+07
1.58117e+07
1.57805e+07
1.57232e+07
1.56451e+07
1.55513e+07
1.54462e+07
1.53334e+07
1.52159e+07
1.50959e+07
1.49752e+07
1.48552e+07
1.47368e+07
1.46208e+07
1.45078e+07
1.4398e+07
1.42917e+07
1.41891e+07
1.40903e+07
1.58094e+07
1.57783e+07
1.57212e+07
1.56434e+07
1.55499e+07
1.5445e+07
1.53324e+07
1.5215e+07
1.50952e+07
1.49747e+07
1.48548e+07
1.47365e+07
1.46206e+07
1.45076e+07
1.43979e+07
1.42917e+07
1.41891e+07
1.40903e+07
1.07461e+07
1.0746e+07
1.07459e+07
1.07457e+07
1.07455e+07
1.07452e+07
1.07448e+07
1.07444e+07
1.07439e+07
1.07433e+07
1.07427e+07
1.0742e+07
1.07413e+07
1.07405e+07
1.07396e+07
1.07387e+07
1.07377e+07
1.07367e+07
1.07356e+07
1.07345e+07
1.07333e+07
1.0732e+07
1.07308e+07
1.07294e+07
1.0728e+07
1.07266e+07
1.07252e+07
1.07237e+07
1.07222e+07
1.07206e+07
1.0719e+07
1.07174e+07
1.07157e+07
1.07141e+07
1.07124e+07
1.07106e+07
1.07089e+07
1.07071e+07
1.07054e+07
1.07036e+07
1.07017e+07
1.06999e+07
1.0698e+07
1.06962e+07
1.06943e+07
1.06924e+07
1.06905e+07
1.06886e+07
1.06866e+07
1.06847e+07
1.06827e+07
1.06807e+07
1.06787e+07
1.06767e+07
1.06747e+07
1.06726e+07
1.06706e+07
1.06685e+07
1.06664e+07
1.06643e+07
1.06622e+07
1.06601e+07
1.0658e+07
1.06558e+07
1.06536e+07
1.06515e+07
1.06493e+07
1.06471e+07
1.06448e+07
1.06426e+07
1.06403e+07
1.0638e+07
1.06358e+07
1.06334e+07
1.06311e+07
1.06288e+07
1.06264e+07
1.06241e+07
1.06217e+07
1.06193e+07
1.06168e+07
1.06144e+07
1.06119e+07
1.06094e+07
1.06069e+07
1.06044e+07
1.06019e+07
1.05993e+07
1.05968e+07
1.05942e+07
1.05916e+07
1.05889e+07
1.05863e+07
1.05836e+07
1.05809e+07
1.05782e+07
1.05755e+07
1.05727e+07
1.057e+07
1.05672e+07
1.05644e+07
1.05615e+07
1.05587e+07
1.05558e+07
1.05529e+07
1.055e+07
1.0547e+07
1.0544e+07
1.0541e+07
1.0538e+07
1.0535e+07
1.05319e+07
1.05289e+07
1.05257e+07
1.05226e+07
1.05195e+07
1.05163e+07
1.05131e+07
1.05098e+07
1.05066e+07
1.05033e+07
1.05e+07
1.04967e+07
1.04933e+07
1.04899e+07
1.04865e+07
1.04831e+07
1.04796e+07
1.04761e+07
1.04726e+07
1.04691e+07
1.04655e+07
1.04619e+07
1.04583e+07
1.04546e+07
1.04509e+07
1.04472e+07
1.04435e+07
1.04397e+07
1.04359e+07
1.04321e+07
1.04282e+07
1.04243e+07
1.04204e+07
1.04165e+07
1.04125e+07
1.04085e+07
1.04044e+07
1.04004e+07
1.03963e+07
1.03921e+07
1.0388e+07
1.03838e+07
1.03795e+07
1.03753e+07
1.0371e+07
1.03666e+07
1.03623e+07
1.03579e+07
1.03534e+07
1.0349e+07
1.03445e+07
1.03399e+07
1.03353e+07
1.03307e+07
1.03261e+07
1.03214e+07
1.03167e+07
1.0312e+07
1.03072e+07
1.03024e+07
1.02975e+07
1.02926e+07
1.02877e+07
1.02828e+07
1.02778e+07
1.02728e+07
1.02678e+07
1.02629e+07
1.02579e+07
1.07464e+07
1.07463e+07
1.07462e+07
1.0746e+07
1.07457e+07
1.07454e+07
1.07451e+07
1.07446e+07
1.07441e+07
1.07436e+07
1.07429e+07
1.07423e+07
1.07415e+07
1.07407e+07
1.07398e+07
1.07389e+07
1.07379e+07
1.07369e+07
1.07358e+07
1.07346e+07
1.07334e+07
1.07322e+07
1.07309e+07
1.07295e+07
1.07281e+07
1.07267e+07
1.07252e+07
1.07237e+07
1.07222e+07
1.07206e+07
1.0719e+07
1.07174e+07
1.07158e+07
1.07141e+07
1.07124e+07
1.07107e+07
1.07089e+07
1.07071e+07
1.07054e+07
1.07036e+07
1.07017e+07
1.06999e+07
1.0698e+07
1.06962e+07
1.06943e+07
1.06924e+07
1.06905e+07
1.06886e+07
1.06866e+07
1.06847e+07
1.06827e+07
1.06807e+07
1.06787e+07
1.06767e+07
1.06747e+07
1.06726e+07
1.06706e+07
1.06685e+07
1.06664e+07
1.06643e+07
1.06622e+07
1.06601e+07
1.0658e+07
1.06558e+07
1.06536e+07
1.06515e+07
1.06493e+07
1.0647e+07
1.06448e+07
1.06426e+07
1.06403e+07
1.0638e+07
1.06358e+07
1.06334e+07
1.06311e+07
1.06288e+07
1.06264e+07
1.0624e+07
1.06217e+07
1.06193e+07
1.06168e+07
1.06144e+07
1.06119e+07
1.06094e+07
1.06069e+07
1.06044e+07
1.06019e+07
1.05993e+07
1.05968e+07
1.05942e+07
1.05916e+07
1.05889e+07
1.05863e+07
1.05836e+07
1.05809e+07
1.05782e+07
1.05755e+07
1.05727e+07
1.057e+07
1.05672e+07
1.05644e+07
1.05615e+07
1.05587e+07
1.05558e+07
1.05529e+07
1.055e+07
1.0547e+07
1.0544e+07
1.0541e+07
1.0538e+07
1.0535e+07
1.05319e+07
1.05288e+07
1.05257e+07
1.05226e+07
1.05194e+07
1.05163e+07
1.05131e+07
1.05098e+07
1.05066e+07
1.05033e+07
1.05e+07
1.04967e+07
1.04933e+07
1.04899e+07
1.04865e+07
1.04831e+07
1.04796e+07
1.04761e+07
1.04726e+07
1.04691e+07
1.04655e+07
1.04619e+07
1.04583e+07
1.04546e+07
1.04509e+07
1.04472e+07
1.04435e+07
1.04397e+07
1.04359e+07
1.04321e+07
1.04282e+07
1.04243e+07
1.04204e+07
1.04165e+07
1.04125e+07
1.04085e+07
1.04044e+07
1.04004e+07
1.03963e+07
1.03921e+07
1.0388e+07
1.03838e+07
1.03795e+07
1.03753e+07
1.0371e+07
1.03666e+07
1.03623e+07
1.03579e+07
1.03534e+07
1.0349e+07
1.03445e+07
1.03399e+07
1.03353e+07
1.03307e+07
1.03261e+07
1.03214e+07
1.03167e+07
1.0312e+07
1.03072e+07
1.03024e+07
1.02975e+07
1.02926e+07
1.02877e+07
1.02828e+07
1.02778e+07
1.02728e+07
1.02678e+07
1.02628e+07
1.02579e+07
1.07469e+07
1.07468e+07
1.07467e+07
1.07465e+07
1.07463e+07
1.07459e+07
1.07456e+07
1.07451e+07
1.07446e+07
1.0744e+07
1.07434e+07
1.07427e+07
1.07419e+07
1.07411e+07
1.07402e+07
1.07393e+07
1.07383e+07
1.07372e+07
1.07361e+07
1.07349e+07
1.07337e+07
1.07324e+07
1.07311e+07
1.07297e+07
1.07283e+07
1.07269e+07
1.07254e+07
1.07239e+07
1.07223e+07
1.07207e+07
1.07191e+07
1.07175e+07
1.07158e+07
1.07141e+07
1.07124e+07
1.07107e+07
1.07089e+07
1.07072e+07
1.07054e+07
1.07036e+07
1.07017e+07
1.06999e+07
1.0698e+07
1.06962e+07
1.06943e+07
1.06924e+07
1.06905e+07
1.06885e+07
1.06866e+07
1.06846e+07
1.06827e+07
1.06807e+07
1.06787e+07
1.06767e+07
1.06747e+07
1.06726e+07
1.06706e+07
1.06685e+07
1.06664e+07
1.06643e+07
1.06622e+07
1.06601e+07
1.06579e+07
1.06558e+07
1.06536e+07
1.06514e+07
1.06492e+07
1.0647e+07
1.06448e+07
1.06426e+07
1.06403e+07
1.0638e+07
1.06357e+07
1.06334e+07
1.06311e+07
1.06288e+07
1.06264e+07
1.0624e+07
1.06217e+07
1.06192e+07
1.06168e+07
1.06144e+07
1.06119e+07
1.06094e+07
1.06069e+07
1.06044e+07
1.06019e+07
1.05993e+07
1.05968e+07
1.05942e+07
1.05916e+07
1.05889e+07
1.05863e+07
1.05836e+07
1.05809e+07
1.05782e+07
1.05755e+07
1.05727e+07
1.057e+07
1.05672e+07
1.05643e+07
1.05615e+07
1.05587e+07
1.05558e+07
1.05529e+07
1.05499e+07
1.0547e+07
1.0544e+07
1.0541e+07
1.0538e+07
1.0535e+07
1.05319e+07
1.05288e+07
1.05257e+07
1.05226e+07
1.05194e+07
1.05163e+07
1.05131e+07
1.05098e+07
1.05066e+07
1.05033e+07
1.05e+07
1.04967e+07
1.04933e+07
1.04899e+07
1.04865e+07
1.04831e+07
1.04796e+07
1.04761e+07
1.04726e+07
1.04691e+07
1.04655e+07
1.04619e+07
1.04583e+07
1.04546e+07
1.04509e+07
1.04472e+07
1.04435e+07
1.04397e+07
1.04359e+07
1.04321e+07
1.04282e+07
1.04243e+07
1.04204e+07
1.04165e+07
1.04125e+07
1.04085e+07
1.04044e+07
1.04004e+07
1.03963e+07
1.03921e+07
1.0388e+07
1.03838e+07
1.03795e+07
1.03753e+07
1.0371e+07
1.03666e+07
1.03623e+07
1.03579e+07
1.03534e+07
1.0349e+07
1.03445e+07
1.03399e+07
1.03353e+07
1.03307e+07
1.03261e+07
1.03214e+07
1.03167e+07
1.0312e+07
1.03072e+07
1.03024e+07
1.02975e+07
1.02926e+07
1.02877e+07
1.02828e+07
1.02778e+07
1.02728e+07
1.02678e+07
1.02628e+07
1.02578e+07
1.07477e+07
1.07477e+07
1.07475e+07
1.07473e+07
1.0747e+07
1.07467e+07
1.07463e+07
1.07458e+07
1.07453e+07
1.07447e+07
1.07441e+07
1.07433e+07
1.07425e+07
1.07417e+07
1.07408e+07
1.07398e+07
1.07388e+07
1.07377e+07
1.07365e+07
1.07353e+07
1.07341e+07
1.07328e+07
1.07314e+07
1.073e+07
1.07286e+07
1.07271e+07
1.07256e+07
1.07241e+07
1.07225e+07
1.07209e+07
1.07193e+07
1.07176e+07
1.07159e+07
1.07142e+07
1.07125e+07
1.07108e+07
1.0709e+07
1.07072e+07
1.07054e+07
1.07036e+07
1.07018e+07
1.06999e+07
1.06981e+07
1.06962e+07
1.06943e+07
1.06924e+07
1.06905e+07
1.06885e+07
1.06866e+07
1.06846e+07
1.06827e+07
1.06807e+07
1.06787e+07
1.06767e+07
1.06746e+07
1.06726e+07
1.06705e+07
1.06685e+07
1.06664e+07
1.06643e+07
1.06622e+07
1.06601e+07
1.06579e+07
1.06558e+07
1.06536e+07
1.06514e+07
1.06492e+07
1.0647e+07
1.06448e+07
1.06426e+07
1.06403e+07
1.0638e+07
1.06357e+07
1.06334e+07
1.06311e+07
1.06288e+07
1.06264e+07
1.0624e+07
1.06216e+07
1.06192e+07
1.06168e+07
1.06144e+07
1.06119e+07
1.06094e+07
1.06069e+07
1.06044e+07
1.06019e+07
1.05993e+07
1.05968e+07
1.05942e+07
1.05916e+07
1.05889e+07
1.05863e+07
1.05836e+07
1.05809e+07
1.05782e+07
1.05755e+07
1.05727e+07
1.057e+07
1.05672e+07
1.05643e+07
1.05615e+07
1.05586e+07
1.05558e+07
1.05529e+07
1.05499e+07
1.0547e+07
1.0544e+07
1.0541e+07
1.0538e+07
1.0535e+07
1.05319e+07
1.05288e+07
1.05257e+07
1.05226e+07
1.05194e+07
1.05163e+07
1.05131e+07
1.05098e+07
1.05066e+07
1.05033e+07
1.05e+07
1.04967e+07
1.04933e+07
1.04899e+07
1.04865e+07
1.04831e+07
1.04796e+07
1.04761e+07
1.04726e+07
1.04691e+07
1.04655e+07
1.04619e+07
1.04583e+07
1.04546e+07
1.04509e+07
1.04472e+07
1.04435e+07
1.04397e+07
1.04359e+07
1.04321e+07
1.04282e+07
1.04243e+07
1.04204e+07
1.04165e+07
1.04125e+07
1.04085e+07
1.04044e+07
1.04004e+07
1.03963e+07
1.03921e+07
1.0388e+07
1.03838e+07
1.03795e+07
1.03753e+07
1.0371e+07
1.03666e+07
1.03623e+07
1.03579e+07
1.03534e+07
1.0349e+07
1.03444e+07
1.03399e+07
1.03353e+07
1.03307e+07
1.03261e+07
1.03214e+07
1.03167e+07
1.0312e+07
1.03072e+07
1.03024e+07
1.02975e+07
1.02926e+07
1.02877e+07
1.02828e+07
1.02778e+07
1.02728e+07
1.02678e+07
1.02628e+07
1.02577e+07
1.07489e+07
1.07488e+07
1.07486e+07
1.07485e+07
1.07481e+07
1.07477e+07
1.07472e+07
1.07468e+07
1.07463e+07
1.07457e+07
1.0745e+07
1.07442e+07
1.07434e+07
1.07425e+07
1.07415e+07
1.07405e+07
1.07395e+07
1.07383e+07
1.07371e+07
1.07359e+07
1.07346e+07
1.07332e+07
1.07318e+07
1.07304e+07
1.07289e+07
1.07274e+07
1.07259e+07
1.07243e+07
1.07227e+07
1.07211e+07
1.07194e+07
1.07177e+07
1.0716e+07
1.07143e+07
1.07126e+07
1.07108e+07
1.0709e+07
1.07073e+07
1.07054e+07
1.07036e+07
1.07018e+07
1.06999e+07
1.06981e+07
1.06962e+07
1.06943e+07
1.06924e+07
1.06905e+07
1.06885e+07
1.06866e+07
1.06846e+07
1.06826e+07
1.06807e+07
1.06787e+07
1.06766e+07
1.06746e+07
1.06726e+07
1.06705e+07
1.06685e+07
1.06664e+07
1.06643e+07
1.06622e+07
1.06601e+07
1.06579e+07
1.06558e+07
1.06536e+07
1.06514e+07
1.06492e+07
1.0647e+07
1.06448e+07
1.06425e+07
1.06403e+07
1.0638e+07
1.06357e+07
1.06334e+07
1.06311e+07
1.06288e+07
1.06264e+07
1.0624e+07
1.06216e+07
1.06192e+07
1.06168e+07
1.06144e+07
1.06119e+07
1.06094e+07
1.06069e+07
1.06044e+07
1.06019e+07
1.05993e+07
1.05968e+07
1.05942e+07
1.05915e+07
1.05889e+07
1.05863e+07
1.05836e+07
1.05809e+07
1.05782e+07
1.05755e+07
1.05727e+07
1.05699e+07
1.05672e+07
1.05643e+07
1.05615e+07
1.05586e+07
1.05558e+07
1.05529e+07
1.05499e+07
1.0547e+07
1.0544e+07
1.0541e+07
1.0538e+07
1.0535e+07
1.05319e+07
1.05288e+07
1.05257e+07
1.05226e+07
1.05194e+07
1.05163e+07
1.05131e+07
1.05098e+07
1.05066e+07
1.05033e+07
1.05e+07
1.04967e+07
1.04933e+07
1.04899e+07
1.04865e+07
1.04831e+07
1.04796e+07
1.04761e+07
1.04726e+07
1.04691e+07
1.04655e+07
1.04619e+07
1.04583e+07
1.04546e+07
1.04509e+07
1.04472e+07
1.04435e+07
1.04397e+07
1.04359e+07
1.04321e+07
1.04282e+07
1.04243e+07
1.04204e+07
1.04165e+07
1.04125e+07
1.04085e+07
1.04044e+07
1.04004e+07
1.03963e+07
1.03921e+07
1.03879e+07
1.03837e+07
1.03795e+07
1.03752e+07
1.03709e+07
1.03666e+07
1.03623e+07
1.03579e+07
1.03534e+07
1.03489e+07
1.03444e+07
1.03399e+07
1.03353e+07
1.03307e+07
1.03261e+07
1.03214e+07
1.03167e+07
1.03119e+07
1.03072e+07
1.03023e+07
1.02975e+07
1.02926e+07
1.02877e+07
1.02827e+07
1.02778e+07
1.02728e+07
1.02678e+07
1.02627e+07
1.02577e+07
1.07528e+07
1.07524e+07
1.07517e+07
1.07506e+07
1.07501e+07
1.07488e+07
1.07483e+07
1.07478e+07
1.07475e+07
1.0747e+07
1.07462e+07
1.07453e+07
1.07444e+07
1.07434e+07
1.07425e+07
1.07415e+07
1.07403e+07
1.07391e+07
1.07379e+07
1.07366e+07
1.07352e+07
1.07338e+07
1.07324e+07
1.07309e+07
1.07294e+07
1.07278e+07
1.07262e+07
1.07246e+07
1.0723e+07
1.07213e+07
1.07196e+07
1.07179e+07
1.07162e+07
1.07144e+07
1.07127e+07
1.07109e+07
1.07091e+07
1.07073e+07
1.07055e+07
1.07036e+07
1.07018e+07
1.06999e+07
1.06981e+07
1.06962e+07
1.06943e+07
1.06924e+07
1.06904e+07
1.06885e+07
1.06866e+07
1.06846e+07
1.06826e+07
1.06806e+07
1.06786e+07
1.06766e+07
1.06746e+07
1.06726e+07
1.06705e+07
1.06684e+07
1.06664e+07
1.06643e+07
1.06622e+07
1.066e+07
1.06579e+07
1.06557e+07
1.06536e+07
1.06514e+07
1.06492e+07
1.0647e+07
1.06448e+07
1.06425e+07
1.06403e+07
1.0638e+07
1.06357e+07
1.06334e+07
1.06311e+07
1.06287e+07
1.06264e+07
1.0624e+07
1.06216e+07
1.06192e+07
1.06168e+07
1.06144e+07
1.06119e+07
1.06094e+07
1.06069e+07
1.06044e+07
1.06019e+07
1.05993e+07
1.05967e+07
1.05942e+07
1.05915e+07
1.05889e+07
1.05863e+07
1.05836e+07
1.05809e+07
1.05782e+07
1.05755e+07
1.05727e+07
1.05699e+07
1.05671e+07
1.05643e+07
1.05615e+07
1.05586e+07
1.05558e+07
1.05529e+07
1.05499e+07
1.0547e+07
1.0544e+07
1.0541e+07
1.0538e+07
1.0535e+07
1.05319e+07
1.05288e+07
1.05257e+07
1.05226e+07
1.05194e+07
1.05163e+07
1.05131e+07
1.05098e+07
1.05066e+07
1.05033e+07
1.05e+07
1.04966e+07
1.04933e+07
1.04899e+07
1.04865e+07
1.04831e+07
1.04796e+07
1.04761e+07
1.04726e+07
1.04691e+07
1.04655e+07
1.04619e+07
1.04583e+07
1.04546e+07
1.04509e+07
1.04472e+07
1.04435e+07
1.04397e+07
1.04359e+07
1.04321e+07
1.04282e+07
1.04243e+07
1.04204e+07
1.04165e+07
1.04125e+07
1.04085e+07
1.04044e+07
1.04004e+07
1.03963e+07
1.03921e+07
1.03879e+07
1.03837e+07
1.03795e+07
1.03752e+07
1.03709e+07
1.03666e+07
1.03622e+07
1.03578e+07
1.03534e+07
1.03489e+07
1.03444e+07
1.03399e+07
1.03353e+07
1.03307e+07
1.03261e+07
1.03214e+07
1.03167e+07
1.03119e+07
1.03072e+07
1.03023e+07
1.02975e+07
1.02926e+07
1.02877e+07
1.02827e+07
1.02778e+07
1.02727e+07
1.02677e+07
1.02627e+07
1.02576e+07
1.08459e+07
1.08452e+07
1.08441e+07
1.08426e+07
1.08413e+07
1.08405e+07
1.0825e+07
1.07935e+07
1.07587e+07
1.07508e+07
1.0748e+07
1.07465e+07
1.07454e+07
1.07444e+07
1.07436e+07
1.07427e+07
1.07415e+07
1.07401e+07
1.07388e+07
1.07374e+07
1.0736e+07
1.07345e+07
1.0733e+07
1.07315e+07
1.07299e+07
1.07283e+07
1.07266e+07
1.0725e+07
1.07233e+07
1.07216e+07
1.07198e+07
1.07181e+07
1.07163e+07
1.07146e+07
1.07128e+07
1.0711e+07
1.07092e+07
1.07073e+07
1.07055e+07
1.07037e+07
1.07018e+07
1.06999e+07
1.06981e+07
1.06962e+07
1.06943e+07
1.06924e+07
1.06904e+07
1.06885e+07
1.06865e+07
1.06846e+07
1.06826e+07
1.06806e+07
1.06786e+07
1.06766e+07
1.06746e+07
1.06725e+07
1.06705e+07
1.06684e+07
1.06663e+07
1.06642e+07
1.06621e+07
1.066e+07
1.06579e+07
1.06557e+07
1.06536e+07
1.06514e+07
1.06492e+07
1.0647e+07
1.06448e+07
1.06425e+07
1.06403e+07
1.0638e+07
1.06357e+07
1.06334e+07
1.06311e+07
1.06287e+07
1.06264e+07
1.0624e+07
1.06216e+07
1.06192e+07
1.06168e+07
1.06143e+07
1.06119e+07
1.06094e+07
1.06069e+07
1.06044e+07
1.06019e+07
1.05993e+07
1.05967e+07
1.05941e+07
1.05915e+07
1.05889e+07
1.05863e+07
1.05836e+07
1.05809e+07
1.05782e+07
1.05755e+07
1.05727e+07
1.05699e+07
1.05671e+07
1.05643e+07
1.05615e+07
1.05586e+07
1.05558e+07
1.05529e+07
1.05499e+07
1.0547e+07
1.0544e+07
1.0541e+07
1.0538e+07
1.0535e+07
1.05319e+07
1.05288e+07
1.05257e+07
1.05226e+07
1.05194e+07
1.05163e+07
1.0513e+07
1.05098e+07
1.05066e+07
1.05033e+07
1.05e+07
1.04966e+07
1.04933e+07
1.04899e+07
1.04865e+07
1.04831e+07
1.04796e+07
1.04761e+07
1.04726e+07
1.04691e+07
1.04655e+07
1.04619e+07
1.04583e+07
1.04546e+07
1.04509e+07
1.04472e+07
1.04435e+07
1.04397e+07
1.04359e+07
1.04321e+07
1.04282e+07
1.04243e+07
1.04204e+07
1.04165e+07
1.04125e+07
1.04085e+07
1.04044e+07
1.04004e+07
1.03962e+07
1.03921e+07
1.03879e+07
1.03837e+07
1.03795e+07
1.03752e+07
1.03709e+07
1.03666e+07
1.03622e+07
1.03578e+07
1.03534e+07
1.03489e+07
1.03444e+07
1.03399e+07
1.03353e+07
1.03307e+07
1.03261e+07
1.03214e+07
1.03167e+07
1.03119e+07
1.03072e+07
1.03023e+07
1.02975e+07
1.02926e+07
1.02877e+07
1.02827e+07
1.02777e+07
1.02727e+07
1.02677e+07
1.02626e+07
1.02575e+07
1.09311e+07
1.093e+07
1.09279e+07
1.09248e+07
1.09205e+07
1.09142e+07
1.09046e+07
1.08928e+07
1.08831e+07
1.08818e+07
1.08926e+07
1.0888e+07
1.08691e+07
1.08331e+07
1.07732e+07
1.07471e+07
1.07431e+07
1.07412e+07
1.07396e+07
1.07382e+07
1.07369e+07
1.07353e+07
1.07337e+07
1.07321e+07
1.07304e+07
1.07288e+07
1.07271e+07
1.07253e+07
1.07236e+07
1.07218e+07
1.07201e+07
1.07183e+07
1.07165e+07
1.07147e+07
1.07129e+07
1.07111e+07
1.07092e+07
1.07074e+07
1.07055e+07
1.07037e+07
1.07018e+07
1.06999e+07
1.06981e+07
1.06962e+07
1.06942e+07
1.06923e+07
1.06904e+07
1.06885e+07
1.06865e+07
1.06845e+07
1.06826e+07
1.06806e+07
1.06786e+07
1.06766e+07
1.06745e+07
1.06725e+07
1.06704e+07
1.06684e+07
1.06663e+07
1.06642e+07
1.06621e+07
1.066e+07
1.06578e+07
1.06557e+07
1.06535e+07
1.06514e+07
1.06492e+07
1.0647e+07
1.06447e+07
1.06425e+07
1.06402e+07
1.0638e+07
1.06357e+07
1.06334e+07
1.0631e+07
1.06287e+07
1.06264e+07
1.0624e+07
1.06216e+07
1.06192e+07
1.06168e+07
1.06143e+07
1.06119e+07
1.06094e+07
1.06069e+07
1.06044e+07
1.06018e+07
1.05993e+07
1.05967e+07
1.05941e+07
1.05915e+07
1.05889e+07
1.05862e+07
1.05836e+07
1.05809e+07
1.05782e+07
1.05755e+07
1.05727e+07
1.05699e+07
1.05671e+07
1.05643e+07
1.05615e+07
1.05586e+07
1.05558e+07
1.05529e+07
1.05499e+07
1.0547e+07
1.0544e+07
1.0541e+07
1.0538e+07
1.0535e+07
1.05319e+07
1.05288e+07
1.05257e+07
1.05226e+07
1.05194e+07
1.05162e+07
1.0513e+07
1.05098e+07
1.05066e+07
1.05033e+07
1.05e+07
1.04966e+07
1.04933e+07
1.04899e+07
1.04865e+07
1.04831e+07
1.04796e+07
1.04761e+07
1.04726e+07
1.0469e+07
1.04655e+07
1.04619e+07
1.04583e+07
1.04546e+07
1.04509e+07
1.04472e+07
1.04435e+07
1.04397e+07
1.04359e+07
1.04321e+07
1.04282e+07
1.04243e+07
1.04204e+07
1.04165e+07
1.04125e+07
1.04085e+07
1.04044e+07
1.04003e+07
1.03962e+07
1.03921e+07
1.03879e+07
1.03837e+07
1.03795e+07
1.03752e+07
1.03709e+07
1.03666e+07
1.03622e+07
1.03578e+07
1.03534e+07
1.03489e+07
1.03444e+07
1.03399e+07
1.03353e+07
1.03307e+07
1.03261e+07
1.03214e+07
1.03167e+07
1.03119e+07
1.03071e+07
1.03023e+07
1.02975e+07
1.02926e+07
1.02877e+07
1.02827e+07
1.02777e+07
1.02727e+07
1.02676e+07
1.02625e+07
1.02574e+07
1.10155e+07
1.10141e+07
1.10117e+07
1.10081e+07
1.10033e+07
1.09972e+07
1.09897e+07
1.09814e+07
1.09731e+07
1.09657e+07
1.09584e+07
1.09477e+07
1.09323e+07
1.0913e+07
1.0893e+07
1.08823e+07
1.08871e+07
1.08757e+07
1.08488e+07
1.08025e+07
1.07419e+07
1.07363e+07
1.07344e+07
1.07328e+07
1.07311e+07
1.07293e+07
1.07275e+07
1.07257e+07
1.07239e+07
1.07221e+07
1.07203e+07
1.07185e+07
1.07166e+07
1.07148e+07
1.0713e+07
1.07111e+07
1.07093e+07
1.07074e+07
1.07056e+07
1.07037e+07
1.07018e+07
1.06999e+07
1.0698e+07
1.06961e+07
1.06942e+07
1.06923e+07
1.06904e+07
1.06884e+07
1.06865e+07
1.06845e+07
1.06825e+07
1.06805e+07
1.06785e+07
1.06765e+07
1.06745e+07
1.06725e+07
1.06704e+07
1.06683e+07
1.06663e+07
1.06642e+07
1.06621e+07
1.066e+07
1.06578e+07
1.06557e+07
1.06535e+07
1.06513e+07
1.06491e+07
1.06469e+07
1.06447e+07
1.06425e+07
1.06402e+07
1.06379e+07
1.06357e+07
1.06334e+07
1.0631e+07
1.06287e+07
1.06263e+07
1.0624e+07
1.06216e+07
1.06192e+07
1.06168e+07
1.06143e+07
1.06119e+07
1.06094e+07
1.06069e+07
1.06044e+07
1.06018e+07
1.05993e+07
1.05967e+07
1.05941e+07
1.05915e+07
1.05889e+07
1.05862e+07
1.05836e+07
1.05809e+07
1.05782e+07
1.05754e+07
1.05727e+07
1.05699e+07
1.05671e+07
1.05643e+07
1.05615e+07
1.05586e+07
1.05557e+07
1.05528e+07
1.05499e+07
1.0547e+07
1.0544e+07
1.0541e+07
1.0538e+07
1.0535e+07
1.05319e+07
1.05288e+07
1.05257e+07
1.05226e+07
1.05194e+07
1.05162e+07
1.0513e+07
1.05098e+07
1.05066e+07
1.05033e+07
1.05e+07
1.04966e+07
1.04933e+07
1.04899e+07
1.04865e+07
1.04831e+07
1.04796e+07
1.04761e+07
1.04726e+07
1.0469e+07
1.04655e+07
1.04619e+07
1.04582e+07
1.04546e+07
1.04509e+07
1.04472e+07
1.04435e+07
1.04397e+07
1.04359e+07
1.04321e+07
1.04282e+07
1.04243e+07
1.04204e+07
1.04165e+07
1.04125e+07
1.04085e+07
1.04044e+07
1.04003e+07
1.03962e+07
1.03921e+07
1.03879e+07
1.03837e+07
1.03795e+07
1.03752e+07
1.03709e+07
1.03666e+07
1.03622e+07
1.03578e+07
1.03534e+07
1.03489e+07
1.03444e+07
1.03399e+07
1.03353e+07
1.03307e+07
1.03261e+07
1.03214e+07
1.03167e+07
1.03119e+07
1.03071e+07
1.03023e+07
1.02975e+07
1.02926e+07
1.02876e+07
1.02827e+07
1.02777e+07
1.02726e+07
1.02676e+07
1.02625e+07
1.02573e+07
1.11017e+07
1.11003e+07
1.10977e+07
1.10939e+07
1.10889e+07
1.10828e+07
1.10755e+07
1.10672e+07
1.10581e+07
1.10482e+07
1.10372e+07
1.10246e+07
1.10103e+07
1.09946e+07
1.09786e+07
1.09638e+07
1.09498e+07
1.09325e+07
1.09106e+07
1.08854e+07
1.08622e+07
1.08524e+07
1.08258e+07
1.07799e+07
1.07333e+07
1.07298e+07
1.0728e+07
1.07261e+07
1.07242e+07
1.07224e+07
1.07205e+07
1.07186e+07
1.07168e+07
1.07149e+07
1.0713e+07
1.07112e+07
1.07093e+07
1.07074e+07
1.07056e+07
1.07037e+07
1.07018e+07
1.06999e+07
1.0698e+07
1.06961e+07
1.06942e+07
1.06923e+07
1.06903e+07
1.06884e+07
1.06864e+07
1.06845e+07
1.06825e+07
1.06805e+07
1.06785e+07
1.06765e+07
1.06745e+07
1.06724e+07
1.06704e+07
1.06683e+07
1.06662e+07
1.06641e+07
1.0662e+07
1.06599e+07
1.06578e+07
1.06556e+07
1.06535e+07
1.06513e+07
1.06491e+07
1.06469e+07
1.06447e+07
1.06424e+07
1.06402e+07
1.06379e+07
1.06356e+07
1.06333e+07
1.0631e+07
1.06287e+07
1.06263e+07
1.0624e+07
1.06216e+07
1.06192e+07
1.06167e+07
1.06143e+07
1.06118e+07
1.06094e+07
1.06069e+07
1.06044e+07
1.06018e+07
1.05993e+07
1.05967e+07
1.05941e+07
1.05915e+07
1.05889e+07
1.05862e+07
1.05836e+07
1.05809e+07
1.05782e+07
1.05754e+07
1.05727e+07
1.05699e+07
1.05671e+07
1.05643e+07
1.05615e+07
1.05586e+07
1.05557e+07
1.05528e+07
1.05499e+07
1.0547e+07
1.0544e+07
1.0541e+07
1.0538e+07
1.0535e+07
1.05319e+07
1.05288e+07
1.05257e+07
1.05226e+07
1.05194e+07
1.05162e+07
1.0513e+07
1.05098e+07
1.05066e+07
1.05033e+07
1.05e+07
1.04966e+07
1.04933e+07
1.04899e+07
1.04865e+07
1.04831e+07
1.04796e+07
1.04761e+07
1.04726e+07
1.0469e+07
1.04655e+07
1.04619e+07
1.04582e+07
1.04546e+07
1.04509e+07
1.04472e+07
1.04435e+07
1.04397e+07
1.04359e+07
1.04321e+07
1.04282e+07
1.04243e+07
1.04204e+07
1.04164e+07
1.04125e+07
1.04085e+07
1.04044e+07
1.04003e+07
1.03962e+07
1.03921e+07
1.03879e+07
1.03837e+07
1.03795e+07
1.03752e+07
1.03709e+07
1.03666e+07
1.03622e+07
1.03578e+07
1.03534e+07
1.03489e+07
1.03444e+07
1.03399e+07
1.03353e+07
1.03307e+07
1.03261e+07
1.03214e+07
1.03167e+07
1.03119e+07
1.03071e+07
1.03023e+07
1.02974e+07
1.02926e+07
1.02876e+07
1.02827e+07
1.02776e+07
1.02726e+07
1.02675e+07
1.02624e+07
1.02573e+07
1.1191e+07
1.11894e+07
1.11866e+07
1.11826e+07
1.11774e+07
1.11709e+07
1.11632e+07
1.11543e+07
1.11442e+07
1.1133e+07
1.11207e+07
1.1107e+07
1.10921e+07
1.10761e+07
1.10593e+07
1.10418e+07
1.10235e+07
1.10036e+07
1.0982e+07
1.0959e+07
1.09355e+07
1.09119e+07
1.08848e+07
1.08537e+07
1.08225e+07
1.07953e+07
1.07464e+07
1.07267e+07
1.07245e+07
1.07226e+07
1.07206e+07
1.07187e+07
1.07168e+07
1.07149e+07
1.0713e+07
1.07112e+07
1.07093e+07
1.07074e+07
1.07055e+07
1.07036e+07
1.07018e+07
1.06999e+07
1.0698e+07
1.06961e+07
1.06941e+07
1.06922e+07
1.06903e+07
1.06883e+07
1.06864e+07
1.06844e+07
1.06824e+07
1.06804e+07
1.06784e+07
1.06764e+07
1.06744e+07
1.06724e+07
1.06703e+07
1.06683e+07
1.06662e+07
1.06641e+07
1.0662e+07
1.06599e+07
1.06577e+07
1.06556e+07
1.06534e+07
1.06513e+07
1.06491e+07
1.06469e+07
1.06447e+07
1.06424e+07
1.06402e+07
1.06379e+07
1.06356e+07
1.06333e+07
1.0631e+07
1.06287e+07
1.06263e+07
1.06239e+07
1.06215e+07
1.06191e+07
1.06167e+07
1.06143e+07
1.06118e+07
1.06094e+07
1.06069e+07
1.06043e+07
1.06018e+07
1.05993e+07
1.05967e+07
1.05941e+07
1.05915e+07
1.05889e+07
1.05862e+07
1.05836e+07
1.05809e+07
1.05782e+07
1.05754e+07
1.05727e+07
1.05699e+07
1.05671e+07
1.05643e+07
1.05615e+07
1.05586e+07
1.05557e+07
1.05528e+07
1.05499e+07
1.0547e+07
1.0544e+07
1.0541e+07
1.0538e+07
1.0535e+07
1.05319e+07
1.05288e+07
1.05257e+07
1.05226e+07
1.05194e+07
1.05162e+07
1.0513e+07
1.05098e+07
1.05065e+07
1.05033e+07
1.05e+07
1.04966e+07
1.04933e+07
1.04899e+07
1.04865e+07