/*--------------------------------*- C++ -*----------------------------------*\
  =========                 |
  \\      /  F ield         | OpenFOAM: The Open Source CFD Toolbox
   \\    /   O peration     | Website:  https://openfoam.org
    \\  /    A nd           | Version:  10
     \\/     M anipulation  |
\*---------------------------------------------------------------------------*/
FoamFile
{
    format      ascii;
    class       volVectorField;
    location    "1.36";
    object      Ua;
}
// * * * * * * * * * * * * * * * * * * * * * * * * * * * * * * * * * * * * * //

dimensions      [0 1 -1 0 0 0 0];

internalField   nonuniform List<vector> 
12225
(
(3.13826e-05 -4.04014e-06 0)
(9.17535e-05 -3.78423e-06 0)
(0.000146516 -3.31441e-06 0)
(0.000194809 -2.78554e-06 0)
(0.000237008 -2.30206e-06 0)
(0.000274112 -1.91582e-06 0)
(0.0003073 -1.64445e-06 0)
(0.000337702 -1.48974e-06 0)
(0.000366332 -1.45035e-06 0)
(0.000394097 -1.53016e-06 0)
(0.000421868 -1.74516e-06 0)
(0.000450585 -2.13292e-06 0)
(0.000481423 -2.7711e-06 0)
(0.000516122 -3.82167e-06 0)
(0.000557702 -5.65452e-06 0)
(0.000612534 -9.27223e-06 0)
(0.000698109 -1.82489e-05 0)
(0.000884801 -5.10583e-05 0)
(2.13707e-05 -1.04734e-05 0)
(6.29471e-05 -9.87132e-06 0)
(0.000101688 -8.7056e-06 0)
(0.000136967 -7.36678e-06 0)
(0.000168815 -6.12748e-06 0)
(0.00019766 -5.1296e-06 0)
(0.000224099 -4.42689e-06 0)
(0.000248763 -4.03056e-06 0)
(0.000272257 -3.94232e-06 0)
(0.000295157 -4.17683e-06 0)
(0.000318043 -4.78077e-06 0)
(0.000341555 -5.85864e-06 0)
(0.000366508 -7.62249e-06 0)
(0.000394074 -1.05077e-05 0)
(0.000426187 -1.54851e-05 0)
(0.000466388 -2.50584e-05 0)
(0.00052102 -4.7206e-05 0)
(0.000588483 -0.000114928 0)
(1.65897e-05 -1.44164e-05 0)
(4.91712e-05 -1.37119e-05 0)
(8.0203e-05 -1.22093e-05 0)
(0.000109188 -1.04265e-05 0)
(0.000136018 -8.74397e-06 0)
(0.000160866 -7.37291e-06 0)
(0.000184061 -6.40397e-06 0)
(0.000205993 -5.86617e-06 0)
(0.000227067 -5.77255e-06 0)
(0.000247689 -6.15274e-06 0)
(0.000268282 -7.08128e-06 0)
(0.000289322 -8.71529e-06 0)
(0.000311398 -1.13643e-05 0)
(0.000335311 -1.56452e-05 0)
(0.000362209 -2.28704e-05 0)
(0.000393569 -3.61317e-05 0)
(0.000429431 -6.35929e-05 0)
(0.000454574 -0.000127931 0)
(1.34906e-05 -1.69869e-05 0)
(4.02171e-05 -1.6309e-05 0)
(6.61769e-05 -1.46603e-05 0)
(9.09648e-05 -1.26306e-05 0)
(0.000114404 -1.06757e-05 0)
(0.000136522 -9.06365e-06 0)
(0.000157486 -7.92102e-06 0)
(0.000177532 -7.29829e-06 0)
(0.000196932 -7.22363e-06 0)
(0.000215976 -7.74284e-06 0)
(0.000234974 -8.95471e-06 0)
(0.00025427 -1.10562e-05 0)
(0.000274273 -1.44218e-05 0)
(0.000295469 -1.9768e-05 0)
(0.000318358 -2.85218e-05 0)
(0.000342972 -4.36753e-05 0)
(0.000366541 -7.16167e-05 0)
(0.000375033 -0.000124078 0)
(1.12358e-05 -1.85773e-05 0)
(3.36819e-05 -1.80115e-05 0)
(5.58872e-05 -1.63439e-05 0)
(7.75183e-05 -1.42019e-05 0)
(9.83664e-05 -1.20942e-05 0)
(0.000118371 -1.03355e-05 0)
(0.000137588 -9.08648e-06 0)
(0.000156149 -8.42021e-06 0)
(0.000174226 -8.38155e-06 0)
(0.000192018 -9.03204e-06 0)
(0.00020974 -1.04897e-05 0)
(0.00022763 -1.29777e-05 0)
(0.000245935 -1.69027e-05 0)
(0.000264874 -2.3003e-05 0)
(0.000284459 -3.26337e-05 0)
(0.000303883 -4.82777e-05 0)
(0.000319692 -7.41288e-05 0)
(0.000322004 -0.000114821 0)
(9.49297e-06 -1.93897e-05 0)
(2.86137e-05 -1.89965e-05 0)
(4.78627e-05 -1.74013e-05 0)
(6.69645e-05 -1.52467e-05 0)
(8.57005e-05 -1.30776e-05 0)
(0.000103956 -1.12468e-05 0)
(0.000121712 -9.94549e-06 0)
(0.000139019 -9.26918e-06 0)
(0.000155974 -9.27935e-06 0)
(0.000172699 -1.00515e-05 0)
(0.000189332 -1.1717e-05 0)
(0.000206012 -1.45103e-05 0)
(0.000222851 -1.88393e-05 0)
(0.000239858 -2.53981e-05 0)
(0.000256722 -3.53455e-05 0)
(0.000272287 -5.05038e-05 0)
(0.000283448 -7.32171e-05 0)
(0.000284026 -0.000104438 0)
(8.09623e-06 -1.955e-05 0)
(2.45374e-05 -1.93721e-05 0)
(4.13698e-05 -1.79158e-05 0)
(5.83659e-05 -1.58242e-05 0)
(7.53114e-05 -1.36665e-05 0)
(9.20603e-05 -1.18249e-05 0)
(0.000108542 -1.05171e-05 0)
(0.000124748 -9.85923e-06 0)
(0.000140712 -9.92815e-06 0)
(0.000156494 -1.08105e-05 0)
(0.000172161 -1.26441e-05 0)
(0.00018777 -1.56613e-05 0)
(0.000203322 -2.02433e-05 0)
(0.000218677 -2.69936e-05 0)
(0.000233357 -3.68155e-05 0)
(0.000246175 -5.09012e-05 0)
(0.000254732 -7.03123e-05 0)
(0.000255428 -9.44541e-05 0)
(6.95017e-06 -1.91479e-05 0)
(2.11799e-05 -1.9214e-05 0)
(3.59877e-05 -1.79427e-05 0)
(5.11861e-05 -1.59711e-05 0)
(6.65749e-05 -1.38828e-05 0)
(8.19938e-05 -1.2082e-05 0)
(9.73375e-05 -1.08074e-05 0)
(0.000112551 -1.0193e-05 0)
(0.000127619 -1.03284e-05 0)
(0.000142546 -1.1308e-05 0)
(0.000157341 -1.32695e-05 0)
(0.000171992 -1.64305e-05 0)
(0.000186418 -2.11259e-05 0)
(0.000200387 -2.78427e-05 0)
(0.000213369 -3.72249e-05 0)
(0.000224325 -4.99568e-05 0)
(0.000231557 -6.63343e-05 0)
(0.000233075 -8.53149e-05 0)
(5.99452e-06 -1.8256e-05 0)
(1.83687e-05 -1.8581e-05 0)
(3.14505e-05 -1.75228e-05 0)
(4.50871e-05 -1.5712e-05 0)
(5.90995e-05 -1.37394e-05 0)
(7.3325e-05 -1.20227e-05 0)
(8.76362e-05 -1.08161e-05 0)
(0.000101944 -1.02671e-05 0)
(0.000116189 -1.04753e-05 0)
(0.000130334 -1.15386e-05 0)
(0.000144338 -1.35886e-05 0)
(0.000158134 -1.68189e-05 0)
(0.000171585 -2.15057e-05 0)
(0.000184418 -2.80146e-05 0)
(0.000196127 -3.67616e-05 0)
(0.000205883 -4.80703e-05 0)
(0.000212559 -6.18433e-05 0)
(0.000215098 -7.70646e-05 0)
(5.18822e-06 -1.69389e-05 0)
(1.59856e-05 -1.75236e-05 0)
(2.75761e-05 -1.66897e-05 0)
(3.98386e-05 -1.50657e-05 0)
(5.26204e-05 -1.3244e-05 0)
(6.57651e-05 -1.16478e-05 0)
(7.91318e-05 -1.05397e-05 0)
(9.2605e-05 -1.0076e-05 0)
(0.000106094 -1.03622e-05 0)
(0.00011952 -1.14961e-05 0)
(0.000132806 -1.35981e-05 0)
(0.000145845 -1.68318e-05 0)
(0.000158466 -2.14115e-05 0)
(0.000170392 -2.75901e-05 0)
(0.000181182 -3.56046e-05 0)
(0.000190215 -4.55495e-05 0)
(0.000196773 -5.71643e-05 0)
(0.000200317 -6.96148e-05 0)
(4.50121e-06 -1.52602e-05 0)
(1.39438e-05 -1.60887e-05 0)
(2.42305e-05 -1.5473e-05 0)
(3.52722e-05 -1.40484e-05 0)
(4.69466e-05 -1.24033e-05 0)
(5.91083e-05 -1.09576e-05 0)
(7.16093e-05 -9.97461e-06 0)
(8.43143e-05 -9.61392e-06 0)
(9.71051e-05 -9.9829e-06 0)
(0.000109875 -1.11756e-05 0)
(0.000122514 -1.32979e-05 0)
(0.000134889 -1.64812e-05 0)
(0.000146819 -2.08807e-05 0)
(0.00015804 -2.66553e-05 0)
(0.000168191 -3.39134e-05 0)
(0.000176827 -4.26203e-05 0)
(0.000183504 -5.24776e-05 0)
(0.000187957 -6.2849e-05 0)
(3.86215e-06 -1.34376e-05 0)
(1.20517e-05 -1.44654e-05 0)
(2.11495e-05 -1.40373e-05 0)
(3.10951e-05 -1.28016e-05 0)
(4.17867e-05 -1.13374e-05 0)
(5.30825e-05 -1.00532e-05 0)
(6.48244e-05 -9.20669e-06 0)
(7.68594e-05 -8.95564e-06 0)
(8.90481e-05 -9.40608e-06 0)
(0.000101262 -1.06463e-05 0)
(0.000113371 -1.27676e-05 0)
(0.00012523 -1.58721e-05 0)
(0.000136658 -2.00675e-05 0)
(0.000147419 -2.54435e-05 0)
(0.000157223 -3.20283e-05 0)
(0.000165745 -3.9725e-05 0)
(0.000172699 -4.82509e-05 0)
(0.000177945 -5.71255e-05 0)
(3.44419e-06 -1.14345e-05 0)
(1.07862e-05 -1.26088e-05 0)
(1.90303e-05 -1.23342e-05 0)
(2.8152e-05 -1.12777e-05 0)
(3.80799e-05 -1.00018e-05 0)
(4.86856e-05 -8.89464e-06 0)
(5.98109e-05 -8.20033e-06 0)
(7.12932e-05 -8.07029e-06 0)
(8.2979e-05 -8.60597e-06 0)
(9.4724e-05 -9.88819e-06 0)
(0.000106385 -1.19934e-05 0)
(0.000117809 -1.49982e-05 0)
(0.000128819 -1.89713e-05 0)
(0.000139206 -2.39538e-05 0)
(0.000148735 -2.99251e-05 0)
(0.000157172 -3.67649e-05 0)
(0.000164334 -4.42258e-05 0)
(0.000170153 -5.19446e-05 0)
(3.02472e-06 -9.03487e-06 0)
(9.49687e-06 -1.02761e-05 0)
(1.68456e-05 -1.01144e-05 0)
(2.51077e-05 -9.23846e-06 0)
(3.42462e-05 -8.17828e-06 0)
(4.41429e-05 -7.28521e-06 0)
(5.46352e-05 -6.77914e-06 0)
(6.55492e-05 -6.7981e-06 0)
(7.67178e-05 -7.4348e-06 0)
(8.7983e-05 -8.75973e-06 0)
(9.91914e-05 -1.08328e-05 0)
(0.000110186 -1.37052e-05 0)
(0.000120801 -1.74119e-05 0)
(0.000130857 -2.1956e-05 0)
(0.000140174 -2.72881e-05 0)
(0.000148593 -3.32859e-05 0)
(0.000156003 -3.97481e-05 0)
(0.000162378 -4.64112e-05 0)
(2.58361e-06 -6.28334e-06 0)
(8.1264e-06 -7.40756e-06 0)
(1.45217e-05 -7.27676e-06 0)
(2.19019e-05 -6.57089e-06 0)
(3.02572e-05 -5.75407e-06 0)
(3.94639e-05 -5.11584e-06 0)
(4.93425e-05 -4.83712e-06 0)
(5.97022e-05 -5.03483e-06 0)
(7.03612e-05 -5.78848e-06 0)
(8.11504e-05 -7.15578e-06 0)
(9.19112e-05 -9.18023e-06 0)
(0.000102491 -1.18914e-05 0)
(0.000112742 -1.52996e-05 0)
(0.000122521 -1.93854e-05 0)
(0.000131699 -2.40889e-05 0)
(0.000140173 -2.93018e-05 0)
(0.000147881 -3.48695e-05 0)
(0.000154816 -4.06063e-05 0)
(2.02872e-06 -3.27561e-06 0)
(6.44168e-06 -3.94031e-06 0)
(1.17776e-05 -3.73026e-06 0)
(1.8283e-05 -3.1884e-06 0)
(2.5928e-05 -2.64832e-06 0)
(3.45372e-05 -2.30457e-06 0)
(4.3882e-05 -2.28515e-06 0)
(5.37378e-05 -2.68093e-06 0)
(6.39071e-05 -3.55747e-06 0)
(7.42218e-05 -4.96255e-06 0)
(8.45397e-05 -6.93026e-06 0)
(9.47365e-05 -9.47716e-06 0)
(0.0001047 -1.25997e-05 0)
(0.000114326 -1.62685e-05 0)
(0.000123526 -2.04241e-05 0)
(0.000132227 -2.49754e-05 0)
(0.000140384 -2.98048e-05 0)
(0.000147981 -3.47792e-05 0)
(1.02786e-06 9.98355e-09 0)
(3.57138e-06 2.42508e-07 0)
(7.4261e-06 5.64212e-07 0)
(1.28733e-05 8.85735e-07 0)
(1.97096e-05 1.10925e-06 0)
(2.7648e-05 1.13333e-06 0)
(3.64355e-05 8.69289e-07 0)
(4.5856e-05 2.48082e-07 0)
(5.57189e-05 -7.80175e-07 0)
(6.58752e-05 -2.29931e-06 0)
(7.62199e-05 -4.33124e-06 0)
(8.66305e-05 -6.8303e-06 0)
(9.69628e-05 -9.7856e-06 0)
(0.000107091 -1.31636e-05 0)
(0.00011691 -1.69085e-05 0)
(0.000126337 -2.09447e-05 0)
(0.000135314 -2.51819e-05 0)
(0.000143809 -2.95233e-05 0)
(2.41781e-06 3.91943e-06 0)
(7.40272e-06 5.30526e-06 0)
(1.28734e-05 5.91899e-06 0)
(1.91149e-05 6.08894e-06 0)
(2.62406e-05 5.97125e-06 0)
(3.42231e-05 5.59211e-06 0)
(4.29468e-05 4.93018e-06 0)
(5.2259e-05 3.95649e-06 0)
(6.19994e-05 2.648e-06 0)
(7.19947e-05 9.41167e-07 0)
(8.20582e-05 -1.16611e-06 0)
(9.21054e-05 -3.76322e-06 0)
(0.000102115 -6.7345e-06 0)
(0.000112003 -9.98102e-06 0)
(0.000121669 -1.34561e-05 0)
(0.000131033 -1.71016e-05 0)
(0.000140039 -2.0853e-05 0)
(0.000148649 -2.46441e-05 0)
(3.37855e-06 9.2979e-06 0)
(1.03651e-05 1.14376e-05 0)
(1.78186e-05 1.23978e-05 0)
(2.57726e-05 1.25223e-05 0)
(3.42642e-05 1.20809e-05 0)
(4.32893e-05 1.12335e-05 0)
(5.27944e-05 1.00623e-05 0)
(6.26902e-05 8.60693e-06 0)
(7.28677e-05 6.88756e-06 0)
(8.32123e-05 4.91696e-06 0)
(9.36133e-05 2.71026e-06 0)
(0.000103916 1.36123e-07 0)
(0.000113967 -2.70694e-06 0)
(0.000123748 -5.84897e-06 0)
(0.000133265 -9.08743e-06 0)
(0.000142466 -1.23844e-05 0)
(0.000151316 -1.56993e-05 0)
(0.000159793 -1.89921e-05 0)
(3.85616e-06 1.52635e-05 0)
(1.19044e-05 1.73931e-05 0)
(2.0573e-05 1.83165e-05 0)
(2.9781e-05 1.8263e-05 0)
(3.94723e-05 1.74998e-05 0)
(4.95859e-05 1.62378e-05 0)
(6.00441e-05 1.46212e-05 0)
(7.07543e-05 1.27419e-05 0)
(8.1616e-05 1.06572e-05 0)
(9.25287e-05 8.40479e-06 0)
(0.000103397 6.01185e-06 0)
(0.000114136 3.50088e-06 0)
(0.000124666 8.72657e-07 0)
(0.000134849 -2.00373e-06 0)
(0.000144648 -5.02957e-06 0)
(0.000154111 -8.03554e-06 0)
(0.000163213 -1.09986e-05 0)
(0.000171936 -1.38964e-05 0)
(4.59743e-06 2.03905e-05 0)
(1.41154e-05 2.21074e-05 0)
(2.42301e-05 2.26863e-05 0)
(3.48436e-05 2.22932e-05 0)
(4.58613e-05 2.11755e-05 0)
(5.71902e-05 1.95542e-05 0)
(6.87344e-05 1.75954e-05 0)
(8.03954e-05 1.5413e-05 0)
(9.20762e-05 1.30814e-05 0)
(0.000103685 1.06491e-05 0)
(0.000115139 8.14872e-06 0)
(0.000126365 5.60432e-06 0)
(0.000137304 3.03609e-06 0)
(0.0001479 4.32423e-07 0)
(0.000158058 -2.34705e-06 0)
(0.000167763 -5.14272e-06 0)
(0.000177059 -7.85512e-06 0)
(0.000185944 -1.04723e-05 0)
(5.50672e-06 2.45379e-05 0)
(1.67922e-05 2.57657e-05 0)
(2.85839e-05 2.5909e-05 0)
(4.07879e-05 2.51233e-05 0)
(5.32902e-05 2.36475e-05 0)
(6.59765e-05 2.17048e-05 0)
(7.87366e-05 1.94687e-05 0)
(9.14671e-05 1.70616e-05 0)
(0.000104073 1.45643e-05 0)
(0.000116472 1.20282e-05 0)
(0.000128591 9.48586e-06 0)
(0.000140373 6.95905e-06 0)
(0.00015177 4.46344e-06 0)
(0.000162748 2.01175e-06 0)
(0.000173252 -4.48751e-07 0)
(0.000183253 -3.01579e-06 0)
(0.000192774 -5.49158e-06 0)
(0.000201832 -7.85307e-06 0)
(6.60954e-06 2.74463e-05 0)
(2.00267e-05 2.82065e-05 0)
(3.38073e-05 2.79174e-05 0)
(4.78589e-05 2.67549e-05 0)
(6.20564e-05 2.49606e-05 0)
(7.62731e-05 2.27583e-05 0)
(9.03917e-05 2.03222e-05 0)
(0.000104309 1.77746e-05 0)
(0.000117937 1.51953e-05 0)
(0.000131203 1.26331e-05 0)
(0.000144051 1.0117e-05 0)
(0.000156436 7.6639e-06 0)
(0.000168327 5.284e-06 0)
(0.000179706 2.98411e-06 0)
(0.000190563 7.69363e-07 0)
(0.00020085 -1.50536e-06 0)
(0.000210572 -3.74361e-06 0)
(0.000219786 -5.85741e-06 0)
(7.9417e-06 2.89976e-05 0)
(2.39287e-05 2.93494e-05 0)
(4.00857e-05 2.86845e-05 0)
(5.63109e-05 2.72089e-05 0)
(7.24698e-05 2.51718e-05 0)
(8.84304e-05 2.27959e-05 0)
(0.000104077 2.02514e-05 0)
(0.000119313 1.76551e-05 0)
(0.000134067 1.50808e-05 0)
(0.000148281 1.25713e-05 0)
(0.000161917 1.01496e-05 0)
(0.000174951 7.82666e-06 0)
(0.00018737 5.60688e-06 0)
(0.000199172 3.49148e-06 0)
(0.000210363 1.48024e-06 0)
(0.000220925 -4.74638e-07 0)
(0.000230874 -2.46929e-06 0)
(0.000240254 -4.33687e-06 0)
(9.55799e-06 2.91475e-05 0)
(2.86588e-05 2.91661e-05 0)
(4.7677e-05 2.82125e-05 0)
(6.64869e-05 2.65196e-05 0)
(8.49445e-05 2.43421e-05 0)
(0.000102919 2.18982e-05 0)
(0.000120305 1.93492e-05 0)
(0.000137027 1.68024e-05 0)
(0.000153033 1.43225e-05 0)
(0.000168292 1.19444e-05 0)
(0.000182792 9.68398e-06 0)
(0.000196532 7.54608e-06 0)
(0.000209521 5.52974e-06 0)
(0.000221777 3.63137e-06 0)
(0.000233322 1.84658e-06 0)
(0.000244185 1.67861e-07 0)
(0.000254363 -1.55325e-06 0)
(0.000263885 -3.17412e-06 0)
(1.15467e-05 2.78789e-05 0)
(3.44738e-05 2.76477e-05 0)
(5.69879e-05 2.65116e-05 0)
(7.89241e-05 2.47197e-05 0)
(0.000100127 2.25244e-05 0)
(0.000120475 2.01329e-05 0)
(0.000139888 1.76929e-05 0)
(0.000158319 1.5299e-05 0)
(0.000175754 1.30048e-05 0)
(0.000192196 1.08363e-05 0)
(0.000207666 8.80248e-06 0)
(0.000222195 6.9026e-06 0)
(0.00023582 5.13128e-06 0)
(0.00024858 3.48133e-06 0)
(0.000260521 1.94526e-06 0)
(0.000271686 5.16064e-07 0)
(0.000282096 -9.0759e-07 0)
(0.00029179 -2.27972e-06 0)
(1.40638e-05 2.51598e-05 0)
(4.18268e-05 2.47685e-05 0)
(6.87374e-05 2.35716e-05 0)
(9.45716e-05 2.18176e-05 0)
(0.000119162 1.97442e-05 0)
(0.000142408 1.7539e-05 0)
(0.000164268 1.5331e-05 0)
(0.000184747 1.31989e-05 0)
(0.000203879 1.11843e-05 0)
(0.00022172 9.30447e-06 0)
(0.000238334 7.56229e-06 0)
(0.000253792 5.9528e-06 0)
(0.000268165 4.46758e-06 0)
(0.000281523 3.09724e-06 0)
(0.000293934 1.83264e-06 0)
(0.000305465 6.6538e-07 0)
(0.000316157 -4.65107e-07 0)
(0.000326066 -1.58508e-06 0)
(1.74268e-05 2.08855e-05 0)
(5.16428e-05 2.04326e-05 0)
(8.43958e-05 1.93146e-05 0)
(0.000115375 1.77569e-05 0)
(0.000144402 1.59658e-05 0)
(0.000171412 1.40986e-05 0)
(0.000196429 1.22592e-05 0)
(0.000219534 1.05079e-05 0)
(0.000240836 8.87412e-06 0)
(0.000260462 7.36737e-06 0)
(0.000278537 5.98593e-06 0)
(0.000295187 4.72243e-06 0)
(0.000310527 3.5673e-06 0)
(0.000324667 2.51068e-06 0)
(0.000337705 1.54331e-06 0)
(0.000349734 6.56882e-07 0)
(0.000360823 -1.79446e-07 0)
(0.000371049 -1.0414e-06 0)
(2.24636e-05 1.47429e-05 0)
(6.63377e-05 1.43451e-05 0)
(0.000107814 1.34779e-05 0)
(0.000146448 1.23134e-05 0)
(0.000182048 1.10041e-05 0)
(0.000214618 9.66195e-06 0)
(0.000244292 8.35856e-06 0)
(0.000271272 7.13323e-06 0)
(0.000295788 6.00315e-06 0)
(0.000318074 4.9719e-06 0)
(0.000338352 4.03563e-06 0)
(0.000356824 3.18706e-06 0)
(0.000373675 2.4178e-06 0)
(0.000389066 1.7196e-06 0)
(0.000403143 1.08497e-06 0)
(0.000416035 5.07281e-07 0)
(0.000427852 -2.46996e-08 0)
(0.000438704 -6.21316e-07 0)
(3.33675e-05 5.58463e-06 0)
(9.82004e-05 5.41577e-06 0)
(0.000158727 5.0693e-06 0)
(0.000214233 4.61358e-06 0)
(0.000264518 4.10788e-06 0)
(0.000309739 3.5949e-06 0)
(0.000350262 3.10122e-06 0)
(0.000386547 2.64088e-06 0)
(0.000419068 2.21949e-06 0)
(0.000448277 1.83762e-06 0)
(0.000474583 1.49317e-06 0)
(0.000498345 1.18286e-06 0)
(0.000519875 9.03145e-07 0)
(0.000539439 6.50595e-07 0)
(0.00055727 4.22147e-07 0)
(0.000573565 2.15136e-07 0)
(0.000588499 2.74025e-08 0)
(0.000602111 -2.03373e-07 0)
(0.000223432 -0.000477577 -6.16989e-30)
(0.000671276 -0.000475129 6.13297e-30)
(0.00111943 -0.000470493 0)
(0.00156586 -0.00046381 0)
(0.00200868 -0.000455391 0)
(0.00244645 -0.000445929 -5.73462e-30)
(0.00287836 -0.000436063 0)
(0.00330402 -0.000426096 0)
(0.00372315 -0.000415903 0)
(0.00413518 -0.000405068 0)
(0.00453912 -0.000393204 5.02846e-30)
(0.00493369 -0.000380181 0)
(0.00531758 -0.000366131 0)
(0.00568965 -0.00035129 0)
(0.00604895 -0.000335841 0)
(0.00639465 -0.000319853 4.05851e-30)
(0.00672591 -0.000303335 0)
(0.00704194 -0.000286322 0)
(0.00734199 -0.000268919 0)
(0.00762543 -0.000251286 0)
(0.00789181 -0.000233608 0)
(0.00814088 -0.00021606 0)
(0.00837257 -0.000198795 0)
(0.00858697 -0.000181945 2.25021e-30)
(0.00878431 -0.00016562 -2.03689e-30)
(0.00896495 -0.000149915 1.83178e-30)
(0.00912936 -0.000134908 1.63588e-30)
(0.00927811 -0.000120666 0)
(0.00941186 -0.000107241 0)
(0.00953134 -9.46748e-05 -1.11113e-30)
(0.00963735 -8.2994e-05 -9.58907e-31)
(0.00973073 -7.22136e-05 0)
(0.00981234 -6.23345e-05 0)
(0.0098831 -5.33452e-05 -5.72803e-31)
(0.00994389 -4.52219e-05 0)
(0.0099956 -3.79311e-05 0)
(0.0100391 -3.14307e-05 2.87724e-31)
(0.0100752 -2.56722e-05 0)
(0.0101047 -2.0603e-05 1.47004e-31)
(0.0101283 -1.61681e-05 1.78813e-31)
(0.0101468 -1.23119e-05 0)
(0.0101607 -8.9792e-06 0)
(0.0101707 -6.11695e-06 0)
(0.0101772 -3.67449e-06 0)
(0.0101807 -1.60443e-06 0)
(0.0101817 1.37106e-07 -2.43927e-31)
(0.0101805 1.59028e-06 -2.81461e-31)
(0.0101775 2.79152e-06 -3.12442e-31)
(0.0101729 3.7736e-06 0)
(0.0101671 4.56579e-06 3.5806e-31)
(0.0101602 5.19409e-06 0)
(0.0101525 5.68148e-06 -3.86555e-31)
(0.0101441 6.04815e-06 -3.95838e-31)
(0.0101352 6.3118e-06 0)
(0.0101258 6.48788e-06 0)
(0.0101162 6.58987e-06 0)
(0.0101064 6.62944e-06 -4.09969e-31)
(0.0100965 6.61676e-06 0)
(0.0100866 6.56059e-06 0)
(0.0100766 6.46853e-06 0)
(0.0100668 6.34713e-06 0)
(0.0100571 6.20203e-06 0)
(0.0100476 6.0381e-06 0)
(0.0100382 5.8595e-06 0)
(0.0100291 5.66981e-06 0)
(0.0100201 5.47208e-06 3.78018e-31)
(0.0100115 5.26894e-06 0)
(0.0100031 5.06259e-06 0)
(0.00999493 4.85491e-06 -3.61467e-31)
(0.00998706 4.64748e-06 -3.55925e-31)
(0.00997948 4.44163e-06 0)
(0.00997217 4.23845e-06 3.44996e-31)
(0.00996514 4.03886e-06 -3.39673e-31)
(0.00995839 3.8436e-06 0)
(0.00995191 3.65325e-06 3.29393e-31)
(0.00994571 3.46829e-06 0)
(0.00993977 3.28908e-06 0)
(0.0099341 3.11587e-06 -3.15079e-31)
(0.00992868 2.94886e-06 0)
(0.00992351 2.78817e-06 3.06359e-31)
(0.00991858 2.63385e-06 0)
(0.00991388 2.48591e-06 -2.98321e-31)
(0.00990941 2.34432e-06 -2.94554e-31)
(0.00990517 2.20901e-06 -2.90956e-31)
(0.00990113 2.07989e-06 -5.75042e-31)
(0.0098973 1.95683e-06 5.68504e-31)
(0.00989367 1.83969e-06 0)
(0.00989022 1.72833e-06 0)
(0.00988696 1.62256e-06 0)
(0.00988387 1.52221e-06 5.45396e-31)
(0.00988094 1.42711e-06 5.40344e-31)
(0.00987818 1.33706e-06 -5.35556e-31)
(0.00987557 1.25186e-06 0)
(0.00987311 1.17134e-06 5.26748e-31)
(0.00987078 1.0953e-06 5.22712e-31)
(0.00986859 1.02354e-06 5.18898e-31)
(0.00986652 9.55879e-07 0)
(0.00986458 8.92135e-07 0)
(0.00986275 8.32124e-07 0)
(0.00986102 7.7567e-07 5.05726e-31)
(0.0098594 7.22599e-07 0)
(0.00985788 6.72746e-07 0)
(0.00985645 6.25947e-07 -4.97766e-31)
(0.00985511 5.82046e-07 0)
(0.00985386 5.40891e-07 0)
(0.00985268 5.02338e-07 -4.912e-31)
(0.00985157 4.66245e-07 0)
(0.00985054 4.32479e-07 0)
(0.00984958 4.0091e-07 4.85809e-31)
(0.00984867 3.71416e-07 4.84241e-31)
(0.00984783 3.43877e-07 0)
(0.00984704 3.18182e-07 -4.81415e-31)
(0.0098463 2.94223e-07 0)
(0.00984562 2.71897e-07 4.78952e-31)
(0.00984498 2.51107e-07 0)
(0.00984438 2.31761e-07 4.76821e-31)
(0.00984383 2.13769e-07 4.7586e-31)
(0.00984331 1.97049e-07 0)
(0.00984283 1.81522e-07 0)
(0.00984239 1.67112e-07 0)
(0.00984197 1.53749e-07 0)
(0.00984159 1.41365e-07 0)
(0.00984123 1.29897e-07 0)
(0.0098409 1.19285e-07 0)
(0.0098406 1.09475e-07 4.70321e-31)
(0.00984032 1.00412e-07 -4.69834e-31)
(0.00984005 9.20469e-08 0)
(0.00983981 8.4334e-08 0)
(0.00983959 7.72299e-08 0)
(0.00983938 7.06943e-08 0)
(0.00983919 6.46897e-08 -9.3587e-31)
(0.00983901 5.91818e-08 0)
(0.00983885 5.41391e-08 9.34749e-31)
(0.0098387 4.95328e-08 -9.3426e-31)
(0.00983856 4.53372e-08 0)
(0.00983843 4.15296e-08 0)
(0.00983832 3.80904e-08 0)
(0.00983821 3.50035e-08 9.32715e-31)
(0.0098381 3.22565e-08 9.3242e-31)
(0.00983801 2.98407e-08 0)
(0.00983792 2.77527e-08 9.31934e-31)
(0.00983784 2.59938e-08 9.3174e-31)
(0.00983776 2.45716e-08 -9.31591e-31)
(0.00983768 2.35011e-08 0)
(0.00983761 2.2806e-08 0)
(0.00983753 2.25206e-08 -9.31358e-31)
(0.00983746 2.26922e-08 0)
(0.00983738 2.33838e-08 0)
(0.0098373 2.46786e-08 0)
(0.00983722 2.66842e-08 0)
(0.00983712 2.95392e-08 9.32043e-31)
(0.00983701 3.34212e-08 9.32435e-31)
(0.00983689 3.85566e-08 0)
(0.00983674 4.52344e-08 9.33631e-31)
(0.00983657 5.38229e-08 0)
(0.00983636 6.4791e-08 0)
(0.0098361 7.87372e-08 9.37035e-31)
(0.00983578 9.64261e-08 0)
(0.00983539 1.18837e-07 9.41116e-31)
(0.0098349 1.47227e-07 0)
(0.00983428 1.83214e-07 0)
(0.00983351 2.28891e-07 9.52315e-31)
(0.00983253 2.86976e-07 0)
(0.00983129 3.61017e-07 9.65766e-31)
(0.00982971 4.55678e-07 0)
(0.0098277 5.77136e-07 0)
(0.00982511 7.33653e-07 0)
(0.00982179 9.3641e-07 -1.02436e-30)
(0.0098175 1.20076e-06 0)
(0.00981192 1.54817e-06 1.08669e-30)
(0.00980464 2.00936e-06 0)
(0.00979505 2.62957e-06 0)
(0.0097823 3.4779e-06 0)
(0.00976513 4.66512e-06 0)
(0.00974162 6.38019e-06 0)
(0.00970862 8.97392e-06 0)
(0.00966054 1.31791e-05 0)
(0.00958603 2.08136e-05 -6.1147e-30)
(0.00945648 3.77049e-05 0)
(0.00916936 9.06697e-05 0)
(0.000228189 -0.0014429 1.86409e-29)
(0.000685371 -0.0014351 -1.85239e-29)
(0.00114232 -0.00142035 0)
(0.00159645 -0.00139875 3.60813e-29)
(0.00204479 -0.00137037 0)
(0.00248525 -0.00133922 -1.72796e-29)
(0.00291788 -0.00130832 -3.36814e-29)
(0.0033439 -0.00127893 -3.29016e-29)
(0.00376445 -0.00124998 0)
(0.00417946 -0.00121895 -3.13118e-29)
(0.00458736 -0.00118377 1.52458e-29)
(0.00498582 -0.0011441 0)
(0.00537283 -0.00110099 0)
(0.00574716 -0.00105574 0)
(0.0061082 -0.00100909 0)
(0.00645545 -0.000961056 1.23451e-29)
(0.00678816 -0.000911342 0)
(0.00710536 -0.000859914 2.18927e-29)
(0.00740605 -0.000807133 0)
(0.0076895 -0.000753615 0)
(0.00795523 -0.000700011 -1.77192e-29)
(0.00820307 -0.000646886 0)
(0.00843304 -0.000594703 1.49745e-29)
(0.00864531 -0.000543843 6.92694e-30)
(0.00884019 -0.000494626 -6.28853e-30)
(0.00901811 -0.000447322 5.67504e-30)
(0.00917958 -0.000402161 5.08945e-30)
(0.00932524 -0.000359336 0)
(0.00945578 -0.000319005 0)
(0.00957199 -0.000281288 -3.52256e-30)
(0.0096747 -0.000246267 -8.97774e-30)
(0.0097648 -0.000213984 0)
(0.00984321 -0.000184438 0)
(0.00991087 -0.00015759 -1.91981e-30)
(0.00996871 -0.000133364 0)
(0.0100176 -0.000111651 0)
(0.0100585 -9.23196e-05 1.07446e-30)
(0.0100922 -7.52189e-05 0)
(0.0101195 -6.01859e-05 1.73637e-30)
(0.0101412 -4.70513e-05 9.76821e-31)
(0.0101578 -3.56449e-05 0)
(0.0101701 -2.57993e-05 0)
(0.0101787 -1.73535e-05 6.40917e-32)
(0.0101839 -1.01549e-05 4.36749e-31)
(0.0101864 -4.06098e-06 7.52019e-31)
(0.0101864 1.05962e-06 -1.28464e-30)
(0.0101844 5.32689e-06 -3.78141e-31)
(0.0101807 8.84937e-06 9.49828e-31)
(0.0101755 1.17245e-05 -1.56708e-30)
(0.0101692 1.40393e-05 6.02992e-31)
(0.0101618 1.58707e-05 0)
(0.0101537 1.72868e-05 -6.86572e-31)
(0.010145 1.83472e-05 -2.62037e-30)
(0.0101358 1.91042e-05 0)
(0.0101262 1.96036e-05 0)
(0.0101164 1.98849e-05 0)
(0.0101064 1.99828e-05 -7.55146e-31)
(0.0100964 1.9927e-05 0)
(0.0100864 1.97436e-05 -1.97324e-30)
(0.0100764 1.94548e-05 0)
(0.0100665 1.90799e-05 -1.93705e-30)
(0.0100567 1.86357e-05 0)
(0.0100471 1.81364e-05 1.88645e-30)
(0.0100377 1.75944e-05 0)
(0.0100286 1.70202e-05 -1.82699e-30)
(0.0100197 1.64227e-05 2.45633e-30)
(0.010011 1.58097e-05 0)
(0.0100026 1.51878e-05 1.7298e-30)
(0.00999443 1.45624e-05 -6.12389e-31)
(0.00998657 1.39383e-05 -5.96075e-31)
(0.009979 1.33193e-05 0)
(0.0099717 1.27086e-05 2.16265e-30)
(0.00996468 1.2109e-05 -5.48269e-31)
(0.00995795 1.15225e-05 0)
(0.00995149 1.09511e-05 5.18027e-31)
(0.0099453 1.03959e-05 1.47666e-30)
(0.00993938 9.85811e-06 0)
(0.00993372 9.33847e-06 -4.7592e-31)
(0.00992832 8.83751e-06 0)
(0.00992316 8.35556e-06 -9.18824e-31)
(0.00991825 7.89279e-06 0)
(0.00991357 7.44921e-06 8.94714e-31)
(0.00990912 7.02472e-06 -4.15532e-31)
(0.00990489 6.61909e-06 -1.68253e-30)
(0.00990087 6.23203e-06 -3.30408e-30)
(0.00989705 5.86318e-06 3.24599e-30)
(0.00989343 5.5121e-06 0)
(0.00989 5.17833e-06 0)
(0.00988675 4.86136e-06 0)
(0.00988367 4.56066e-06 -1.63586e-30)
(0.00988076 4.27567e-06 6.87602e-31)
(0.00987801 4.00583e-06 -6.7352e-31)
(0.00987541 3.75056e-06 0)
(0.00987296 3.50929e-06 2.87521e-30)
(0.00987064 3.28144e-06 6.35726e-31)
(0.00986846 3.06644e-06 6.24507e-31)
(0.0098664 2.86373e-06 0)
(0.00986446 2.67274e-06 0)
(0.00986264 2.49295e-06 0)
(0.00986092 2.32381e-06 5.85759e-31)
(0.00985931 2.16482e-06 0)
(0.00985779 2.01546e-06 2.07027e-30)
(0.00985637 1.87525e-06 1.49316e-30)
(0.00985504 1.74373e-06 -2.04166e-30)
(0.00985379 1.62044e-06 0)
(0.00985261 1.50493e-06 -2.55954e-30)
(0.00985151 1.39681e-06 0)
(0.00985049 1.29565e-06 -1.99447e-30)
(0.00984952 1.20107e-06 2.51168e-30)
(0.00984862 1.11271e-06 2.49777e-30)
(0.00984778 1.03021e-06 0)
(0.009847 9.53236e-07 1.44416e-30)
(0.00984627 8.81458e-07 -1.95084e-30)
(0.00984558 8.14574e-07 5.07006e-31)
(0.00984495 7.52291e-07 0)
(0.00984435 6.94332e-07 5.00734e-31)
(0.0098438 6.40433e-07 -1.42754e-30)
(0.00984329 5.90343e-07 0)
(0.00984281 5.43826e-07 -1.91528e-30)
(0.00984237 5.00656e-07 -1.91074e-30)
(0.00984195 4.6062e-07 -1.90652e-30)
(0.00984157 4.2352e-07 0)
(0.00984122 3.89163e-07 0)
(0.00984089 3.57373e-07 0)
(0.00984058 3.27981e-07 2.37416e-30)
(0.0098403 3.00829e-07 -4.80195e-31)
(0.00984004 2.75769e-07 0)
(0.0098398 2.52662e-07 1.88461e-30)
(0.00983958 2.31378e-07 1.88237e-30)
(0.00983937 2.11797e-07 0)
(0.00983918 1.93807e-07 -9.4922e-31)
(0.00983901 1.77305e-07 3.75334e-30)
(0.00983884 1.62196e-07 9.45921e-31)
(0.00983869 1.48394e-07 -4.69171e-30)
(0.00983856 1.35822e-07 0)
(0.00983843 1.24413e-07 0)
(0.00983831 1.14107e-07 0)
(0.0098382 1.04855e-07 9.39937e-31)
(0.0098381 9.6621e-08 4.67538e-30)
(0.00983801 8.9379e-08 3.73477e-30)
(0.00983792 8.31176e-08 9.37658e-31)
(0.00983783 7.78409e-08 4.66942e-30)
(0.00983775 7.35715e-08 -9.36657e-31)
(0.00983768 7.03542e-08 0)
(0.0098376 6.82592e-08 0)
(0.00983753 6.73888e-08 -4.66604e-30)
(0.00983746 6.7884e-08 0)
(0.00983738 6.99332e-08 0)
(0.0098373 7.37841e-08 3.73128e-30)
(0.00983722 7.97581e-08 0)
(0.00983712 8.82687e-08 4.67232e-30)
(0.00983702 9.98458e-08 9.39303e-31)
(0.0098369 1.15166e-07 0)
(0.00983675 1.35091e-07 4.68667e-30)
(0.00983658 1.60721e-07 0)
(0.00983637 1.93454e-07 0)
(0.00983612 2.35079e-07 9.53202e-31)
(0.00983581 2.87876e-07 3.77499e-30)
(0.00983542 3.54768e-07 9.65513e-31)
(0.00983493 4.39506e-07 0)
(0.00983433 5.46919e-07 0)
(0.00983357 6.83252e-07 4.8552e-30)
(0.0098326 8.5661e-07 0)
(0.00983138 1.07757e-06 4.97649e-30)
(0.00982982 1.36005e-06 0)
(0.00982784 1.72244e-06 0)
(0.0098253 2.18935e-06 0)
(0.00982203 2.79405e-06 -1.21646e-30)
(0.0098178 3.58218e-06 0)
(0.00981232 4.61749e-06 1.40408e-30)
(0.00980517 5.99101e-06 0)
(0.00979576 7.83648e-06 0)
(0.00978327 1.03575e-05 5.8375e-30)
(0.00976651 1.38789e-05 -6.55936e-30)
(0.00974365 1.89501e-05 0)
(0.00971178 2.65788e-05 0)
(0.00966599 3.88206e-05 0)
(0.00959718 6.05409e-05 1.79575e-29)
(0.00948785 0.00010585 0)
(0.00931538 0.000227907 -1.01298e-28)
(0.000238644 -0.00244075 1.26155e-28)
(0.000716259 -0.00242594 -1.70407e-32)
(0.00119306 -0.00239988 0)
(0.0016673 -0.00236239 3.94907e-32)
(0.00212914 -0.00229642 0)
(0.00257122 -0.00223059 0)
(0.00299858 -0.00217347 -1.12012e-28)
(0.00341934 -0.00212914 -5.48754e-29)
(0.00384081 -0.00209153 5.37926e-29)
(0.00426424 -0.00204827 -5.2745e-29)
(0.00468416 -0.00199076 0)
(0.00509312 -0.00192012 0)
(0.0054866 -0.00184272 -4.72444e-29)
(0.00586414 -0.00176417 -9.03743e-29)
(0.00622739 -0.00168623 8.62934e-29)
(0.00657748 -0.00160705 0)
(0.00691368 -0.00152417 7.7818e-29)
(0.00723396 -0.00143697 3.6803e-29)
(0.00753638 -0.00134664 0)
(0.00781982 -0.00125503 6.37757e-29)
(0.00808399 -0.00116367 -2.96983e-29)
(0.00832903 -0.00107353 -5.43201e-29)
(0.00855523 -0.000985308 2.50656e-29)
(0.00876297 -0.000899558 0)
(0.00895272 -0.000816756 4.09569e-29)
(0.009125 -0.000737313 3.68255e-29)
(0.00928045 -0.000661591 0)
(0.00941977 -0.000589898 2.91625e-29)
(0.00954376 -0.000522495 0)
(0.00965328 -0.000459582 2.23923e-29)
(0.00974927 -0.000401294 -9.91283e-30)
(0.00983272 -0.000347694 0)
(0.00990462 -0.00029877 0)
(0.009966 -0.00025444 0)
(0.0100179 -0.000214557 0)
(0.0100612 -0.000178918 0)
(0.0100968 -0.000147281 0)
(0.0101257 -0.000119376 4.73719e-30)
(0.0101486 -9.49122e-05 -1.495e-30)
(0.0101663 -7.35954e-05 0)
(0.0101794 -5.51309e-05 0)
(0.0101886 -3.92325e-05 0)
(0.0101943 -2.56272e-05 -2.42987e-31)
(0.0101971 -1.40586e-05 2.36176e-31)
(0.0101974 -4.28861e-06 -4.81507e-31)
(0.0101955 3.90069e-06 4.81416e-31)
(0.0101919 1.07073e-05 1.99729e-30)
(0.0101868 1.63096e-05 1.8052e-30)
(0.0101804 2.0867e-05 -4.56112e-30)
(0.0101731 2.45212e-05 -2.70878e-30)
(0.0101649 2.73974e-05 0)
(0.010156 2.96058e-05 -2.96924e-30)
(0.0101467 3.12431e-05 -5.626e-30)
(0.0101369 3.23936e-05 0)
(0.0101269 3.31309e-05 0)
(0.0101168 3.35191e-05 3.16598e-30)
(0.0101065 3.36136e-05 0)
(0.0100962 3.34626e-05 0)
(0.010086 3.31077e-05 -8.94483e-30)
(0.0100758 3.2585e-05 -6.22378e-30)
(0.0100658 3.19254e-05 -2.60108e-30)
(0.0100559 3.11558e-05 0)
(0.0100463 3.02992e-05 2.51517e-30)
(0.0100368 2.93754e-05 0)
(0.0100276 2.84013e-05 -8.19283e-30)
(0.0100187 2.73915e-05 2.36224e-30)
(0.01001 2.63583e-05 5.56132e-30)
(0.0100016 2.53124e-05 7.70391e-30)
(0.00999344 2.42624e-05 0)
(0.00998559 2.32161e-05 -5.22951e-30)
(0.00997803 2.21796e-05 0)
(0.00997076 2.1158e-05 -2.97704e-30)
(0.00996377 2.01558e-05 -4.90691e-30)
(0.00995706 1.91764e-05 -4.80373e-30)
(0.00995064 1.82225e-05 4.70329e-30)