/*--------------------------------*- C++ -*----------------------------------*\
  =========                 |
  \\      /  F ield         | OpenFOAM: The Open Source CFD Toolbox
   \\    /   O peration     | Website:  https://openfoam.org
    \\  /    A nd           | Version:  10
     \\/     M anipulation  |
\*---------------------------------------------------------------------------*/
FoamFile
{
    format      ascii;
    class       volScalarField;
    location    "5500";
    object      p;
}
// * * * * * * * * * * * * * * * * * * * * * * * * * * * * * * * * * * * * * //

dimensions      [1 -1 -2 0 0 0 0];

internalField   nonuniform List<scalar> 
3200
(
109.101
109.109
109.126
109.151
109.183
109.223
109.268
109.32
109.377
109.439
109.506
109.578
109.653
109.732
109.814
109.899
109.986
110.074
110.164
110.255
110.346
110.437
110.528
110.617
110.704
110.789
110.871
110.95
111.024
111.093
111.157
111.214
111.264
111.306
111.34
111.366
111.382
111.389
111.386
111.375
106.63
106.638
106.656
106.68
106.713
106.752
106.798
106.85
106.907
106.97
107.037
107.109
107.185
107.265
107.348
107.433
107.521
107.611
107.702
107.794
107.887
107.98
108.073
108.165
108.256
108.344
108.43
108.513
108.592
108.667
108.736
108.799
108.856
108.905
108.945
108.976
108.998
109.008
109.009
108.998
104.14
104.149
104.166
104.191
104.224
104.263
104.31
104.362
104.42
104.483
104.551
104.624
104.701
104.782
104.866
104.953
105.043
105.135
105.229
105.324
105.421
105.518
105.615
105.712
105.809
105.904
105.998
106.09
106.179
106.264
106.345
106.421
106.492
106.555
106.61
106.655
106.689
106.71
106.718
106.711
101.632
101.641
101.659
101.684
101.717
101.757
101.803
101.856
101.915
101.979
102.048
102.122
102.201
102.283
102.369
102.459
102.551
102.646
102.744
102.843
102.944
103.047
103.15
103.255
103.359
103.464
103.568
103.672
103.775
103.877
103.976
104.073
104.166
104.254
104.336
104.408
104.47
104.517
104.544
104.55
99.1057
99.1147
99.1322
99.1577
99.1909
99.2312
99.2784
99.3319
99.3915
99.4567
99.5272
99.6027
99.6828
99.7673
99.8557
99.9479
100.043
100.142
100.244
100.348
100.454
100.563
100.674
100.786
100.9
101.015
101.132
101.251
101.37
101.491
101.613
101.737
101.862
101.987
102.113
102.236
102.355
102.463
102.552
102.606
96.5602
96.5692
96.5869
96.6127
96.6462
96.687
96.7347
96.789
96.8494
96.9157
96.9875
97.0645
97.1464
97.233
97.3239
97.4189
97.5177
97.6202
97.726
97.835
97.9471
98.0621
98.1798
98.3003
98.4234
98.5493
98.6781
98.81
98.9454
99.0849
99.2294
99.38
99.5382
99.7062
99.8868
100.084
100.302
100.547
100.828
101.155
93.9955
94.0047
94.0225
94.0485
94.0823
94.1235
94.1718
94.2267
94.288
94.3553
94.4284
94.5068
94.5905
94.6791
94.7724
94.8701
94.9721
95.0782
95.1881
95.3018
95.4191
95.5399
95.6641
95.7917
95.9226
96.0571
96.1952
96.3372
96.4836
96.635
96.7926
96.9576
97.1323
97.3196
97.5238
97.7514
98.0115
98.318
98.6917
99.1665
91.4117
91.4209
91.4388
91.465
91.4991
91.5406
91.5893
91.6448
91.7068
91.7749
91.849
91.9288
92.0139
92.1043
92.1997
92.2999
92.4047
92.514
92.6276
92.7454
92.8672
92.9931
93.1227
93.2562
93.3933
93.5341
93.6785
93.8265
93.9782
94.1336
94.2928
94.456
94.6234
94.7953
94.9716
95.1521
95.3357
95.5192
95.6962
95.8645
88.8085
88.8177
88.8357
88.862
88.8962
88.9379
88.9869
89.0427
89.1052
89.1739
89.2488
89.3294
89.4158
89.5075
89.6046
89.7067
89.8138
89.9257
90.0424
90.1636
90.2892
90.4193
90.5535
90.6918
90.8341
90.98
91.1293
91.2816
91.4365
91.5934
91.7513
91.9094
92.0661
92.2197
92.3679
92.5078
92.6356
92.7466
92.8353
92.9021
86.1859
86.1951
86.2131
86.2393
86.2735
86.3153
86.3643
86.4202
86.4828
86.5518
86.627
86.7082
86.7951
86.8877
86.9858
87.0893
87.198
87.3118
87.4306
87.5545
87.6831
87.8166
87.9547
88.0973
88.2443
88.3953
88.55
88.7078
88.8682
89.0302
89.1925
89.3535
89.5111
89.6626
89.8048
89.9337
90.045
90.1339
90.1956
90.2301
83.544
83.5531
83.571
83.5971
83.631
83.6726
83.7213
83.777
83.8394
83.9082
83.9833
84.0644
84.1514
84.2442
84.3426
84.4465
84.5559
84.6707
84.7908
84.9162
85.0469
85.1828
85.3239
85.4702
85.6217
85.7781
85.9393
86.105
86.2749
86.4482
86.6241
86.8012
86.9776
87.1508
87.3172
87.472
87.6092
87.7212
87.7994
87.8401
80.8828
80.8918
80.9095
80.9352
80.9688
81.0099
81.0581
81.1132
81.1749
81.243
81.3174
81.3979
81.4842
81.5764
81.6742
81.7777
81.8867
82.0013
82.1214
82.2471
82.3783
82.5152
82.658
82.8066
82.9612
83.1221
83.2895
83.4636
83.6448
83.8332
84.0293
84.2332
84.4451
84.6645
84.8902
85.1193
85.3458
85.558
85.7334
85.8436
78.2027
78.2115
78.2288
78.2541
78.287
78.3273
78.3747
78.4288
78.4894
78.5563
78.6295
78.7085
78.7935
78.8841
78.9804
79.0823
79.1898
79.3028
79.4214
79.5456
79.6755
79.8114
79.9533
80.1015
80.2565
80.4186
80.5884
80.7668
80.9548
81.1536
81.3654
81.5925
81.8386
82.109
82.411
82.7561
83.1612
83.6529
84.273
85.6311
75.5039
75.5125
75.5293
75.554
75.5861
75.6253
75.6714
75.7241
75.7832
75.8484
75.9196
75.9967
76.0794
76.1677
76.2614
76.3606
76.4652
76.5752
76.6905
76.8114
76.9378
77.0699
77.2079
77.3521
77.5029
77.6607
77.8262
78.0002
78.1836
78.3778
78.5845
78.8059
79.045
79.3053
79.5916
79.9099
80.2676
80.6732
81.1478
110.308
72.7869
72.7952
72.8115
72.8354
72.8664
72.9044
72.9489
72.9998
73.0569
73.1199
73.1886
73.2629
73.3426
73.4277
73.5179
73.6133
73.7138
73.8193
73.9298
74.0453
74.166
74.2918
74.4228
74.5594
74.7015
74.8495
75.0038
75.1646
75.3325
75.5079
75.6913
75.8832
76.084
76.2936
76.5114
76.7358
76.963
77.1865
77.4436
94.3293
70.0524
70.0604
70.076
70.0989
70.1287
70.1651
70.2078
70.2566
70.3112
70.3715
70.4372
70.5082
70.5843
70.6653
70.7512
70.8418
70.9371
71.0369
71.1412
71.2499
71.363
71.4804
71.6022
71.7282
71.8586
71.9932
72.132
72.2749
72.4218
72.5725
72.7265
72.8832
73.0418
73.2007
73.3582
73.5115
73.6571
73.7905
73.9572
83.4961
67.301
67.3086
67.3235
67.3453
67.3736
67.4083
67.4489
67.4952
67.5471
67.6043
67.6665
67.7337
67.8055
67.882
67.9628
68.048
68.1372
68.2305
68.3276
68.4284
68.5328
68.6407
68.7519
68.8662
68.9833
69.1032
69.2253
69.3495
69.4751
69.6017
69.7284
69.8543
69.9783
70.099
70.2148
70.3238
70.4239
70.5128
70.6338
77.121
64.5336
64.5408
64.5548
64.5754
64.6022
64.6348
64.6731
64.7168
64.7656
64.8194
64.8778
64.9408
65.008
65.0794
65.1548
65.2339
65.3167
65.4028
65.4923
65.5847
65.68
65.778
65.8783
65.9806
66.0848
66.1903
66.2969
66.4038
66.5107
66.6168
66.7213
66.8234
66.9221
67.0164
67.1051
67.1872
67.2614
67.3269
67.424
72.3464
61.751
61.7577
61.7709
61.7902
61.8152
61.8458
61.8816
61.9224
61.968
62.0181
62.0725
62.131
62.1934
62.2595
62.3291
62.402
62.478
62.5569
62.6385
62.7225
62.8088
62.897
62.9869
63.0781
63.1703
63.2631
63.356
63.4484
63.54
63.63
63.7177
63.8025
63.8836
63.9602
64.0316
64.097
64.1559
64.2077
64.2916
68.2435
58.9541
58.9604
58.9727
58.9906
59.0139
59.0423
59.0755
59.1133
59.1555
59.2018
59.252
59.3059
59.3632
59.4239
59.4876
59.5543
59.6235
59.6952
59.7692
59.8451
59.9227
60.0018
60.0821
60.1633
60.245
60.3269
60.4084
60.4893
60.569
60.647
60.7227
60.7956
60.865
60.9303
60.991
61.0464
61.096
61.1396
61.2152
64.4822
56.1441
56.1499
56.1612
56.1777
56.1992
56.2253
56.2559
56.2906
56.3293
56.3717
56.4177
56.4669
56.5193
56.5745
56.6324
56.6928
56.7554
56.8202
56.8867
56.9549
57.0245
57.0952
57.1669
57.2392
57.3118
57.3846
57.457
57.5289
57.5998
57.6693
57.7371
57.8025
57.8652
57.9245
57.9798
58.0305
58.0758
58.1152
58.187
60.887
53.3218
53.3271
53.3374
53.3526
53.3722
53.396
53.4239
53.4556
53.4908
53.5294
53.5711
53.6157
53.663
53.7129
53.7651
53.8194
53.8756
53.9336
53.9931
54.054
54.116
54.1791
54.2429
54.3073
54.372
54.437
54.502
54.5668
54.6313
54.6951
54.758
54.8198
54.8802
54.9386
54.9945
55.047
55.095
55.137
55.2173
57.4157
50.4883
50.4932
50.5025
50.5162
50.534
50.5556
50.5809
50.6095
50.6413
50.676
50.7135
50.7536
50.796
50.8406
50.8872
50.9356
50.9856
51.0371
51.0899
51.1438
51.1987
51.2545
51.311
51.368
51.4256
51.4836
51.542
51.6007
51.6597
51.7192
51.7791
51.8396
51.9009
51.9629
52.0259
52.0896
52.1535
52.2165
52.376
54.3332
47.6447
47.6491
47.6575
47.6698
47.6858
47.7052
47.7278
47.7534
47.7818
47.8129
47.8463
47.8819
47.9196
47.9591
48.0002
48.0429
48.087
48.1322
48.1785
48.2257
48.2737
48.3224
48.3717
48.4216
48.472
48.523
48.5746
48.6269
48.68
48.7343
48.7902
48.8482
48.909
48.9739
49.0442
49.1221
49.2109
49.3149
49.8105
51.6247
44.792
44.7959
44.8034
44.8144
44.8286
44.8458
44.8659
44.8886
44.9138
44.9412
44.9706
45.002
45.035
45.0696
45.1055
45.1427
45.181
45.2201
45.2601
45.3008
45.342
45.3837
45.4259
45.4685
45.5114
45.5548
45.5987
45.6431
45.6884
45.7347
45.7824
45.8319
45.8841
45.9397
45.9998
46.0661
46.1406
46.226
47.0399
48.8492
41.9311
41.9345
41.9412
41.9509
41.9634
41.9786
41.9962
42.0161
42.0382
42.0621
42.0878
42.115
42.1436
42.1735
42.2045
42.2363
42.269
42.3023
42.3362
42.3705
42.405
42.4399
42.4748
42.5099
42.545
42.5802
42.6155
42.6508
42.6862
42.7219
42.7578
42.794
42.8306
42.8676
42.9049
42.942
42.9781
43.012
43.3457
45.6755
39.0631
39.0661
39.0719
39.0803
39.0912
39.1044
39.1198
39.1371
39.1561
39.1768
39.1988
39.2222
39.2466
39.2721
39.2983
39.3251
39.3525
39.3802
39.4082
39.4363
39.4645
39.4926
39.5204
39.5481
39.5754
39.6022
39.6286
39.6544
39.6795
39.7038
39.7273
39.7496
39.7705
39.7896
39.8063
39.8198
39.8291
39.8327
39.829
42.5499
36.1887
36.1913
36.1963
36.2036
36.213
36.2244
36.2376
36.2524
36.2686
36.2862
36.3049
36.3247
36.3452
36.3664
36.3882
36.4104
36.4328
36.4553
36.4778
36.5001
36.5222
36.5439
36.565
36.5856
36.6054
36.6243
36.6423
36.6591
36.6746
36.6887
36.7011
36.7116
36.7198
36.7254
36.7279
36.7268
36.7214
36.7111
36.6952
39.5246
33.309
33.3112
33.3155
33.3217
33.3297
33.3393
33.3505
33.363
33.3767
33.3915
33.4071
33.4235
33.4404
33.4578
33.4755
33.4933
33.5112
33.5289
33.5463
33.5634
33.5799
33.5957
33.6107
33.6249
33.6379
33.6497
33.6602
33.6692
33.6765
33.682
33.6855
33.6867
33.6855
33.6816
33.6748
33.6648
33.6516
33.6349
33.6148
36.3546
30.4246
30.4264
30.43
30.4353
30.442
30.4501
30.4594
30.4698
30.4812
30.4934
30.5062
30.5195
30.5332
30.5472
30.5612
30.5751
30.5889
30.6023
30.6153
30.6276
30.6392
30.6499
30.6595
30.668
30.6752
30.681
30.6852
30.6876
30.6882
30.6867
30.6831
30.6772
30.6689
30.658
30.6445
30.6283
30.6093
30.5876
30.5633
32.8051
27.5362
27.5378
27.5408
27.5451
27.5507
27.5574
27.5651
27.5736
27.5829
27.5928
27.6031
27.6137
27.6245
27.6354
27.6462
27.6568
27.667
27.6767
27.6858
27.694
27.7014
27.7078
27.7129
27.7167
27.7191
27.7199
27.7189
27.716
27.7112
27.7043
27.6952
27.6837
27.6699
27.6537
27.6351
27.6139
27.5902
27.5637
27.5341
28.4349
24.6446
24.6459
24.6484
24.6519
24.6565
24.6619
24.6682
24.675
24.6825
24.6903
24.6984
24.7067
24.7151
24.7233
24.7314
24.739
24.7462
24.7528
24.7587
24.7637
24.7676
24.7704
24.772
24.7721
24.7706
24.7675
24.7626
24.7557
24.7467
24.7356
24.7222
24.7065
24.6884
24.6681
24.6456
24.6212
24.5952
24.5679
24.5399
24.5338
21.7504
21.7514
21.7534
21.7563
21.7599
21.7643
21.7692
21.7747
21.7805
21.7866
21.7929
21.7992
21.8054
21.8115
21.8172
21.8226
21.8273
21.8314
21.8347
21.8371
21.8384
21.8386
21.8374
21.8348
21.8306
21.8248
21.817
21.8073
21.7955
21.7814
21.7648
21.7457
21.724
21.6995
21.6725
21.6432
21.6126
21.5825
21.5565
21.5547
18.854
18.8548
18.8563
18.8586
18.8615
18.8649
18.8688
18.873
18.8775
18.8821
18.8868
18.8915
18.896
18.9003
18.9042
18.9077
18.9106
18.9128
18.9142
18.9147
18.9141
18.9125
18.9096
18.9052
18.8994
18.892
18.8828
18.8717
18.8584
18.8429
18.8249
18.8039
18.7797
18.7515
18.7184
18.6789
18.6303
18.5687
18.487
18.4224
15.9558
15.9565
15.9577
15.9594
15.9616
15.9643
15.9672
15.9704
15.9738
15.9772
15.9807
15.984
15.9872
15.9901
15.9926
15.9947
15.9962
15.9971
15.9972
15.9965
15.9948
15.9921
15.9883
15.9832
15.9768
15.969
15.9596
15.9486
15.9358
15.9211
15.9043
15.8854
15.8641
15.8404
15.814
15.785
15.7538
15.7211
15.6891
15.6621
13.0564
13.0568
13.0578
13.0591
13.0607
13.0627
13.0649
13.0672
13.0697
13.0722
13.0746
13.0769
13.079
13.0809
13.0824
13.0835
13.0841
13.0841
13.0835
13.0822
13.08
13.077
13.073
13.0679
13.0618
13.0546
13.0461
13.0363
13.0252
13.0128
12.999
12.9838
12.9674
12.9497
12.9311
12.9117
12.8921
12.873
12.855
12.8392
10.1559
10.1562
10.1569
10.1578
10.159
10.1604
10.162
10.1637
10.1654
10.1671
10.1687
10.1703
10.1716
10.1728
10.1736
10.1741
10.1742
10.1738
10.1728
10.1713
10.1691
10.1663
10.1627
10.1583
10.1531
10.147
10.1401
10.1322
10.1235
10.1139
10.1034
10.0922
10.0804
10.068
10.0553
10.0425
10.0299
10.0178
10.0064
9.99616
7.25469
7.25492
7.25537
7.256
7.2568
7.25774
7.25877
7.25986
7.26098
7.26209
7.26314
7.26409
7.26491
7.26554
7.26595
7.2661
7.26594
7.26543
7.26453
7.2632
7.26142
7.25914
7.25633
7.25297
7.24905
7.24455
7.23947
7.23381
7.2276
7.22087
7.21367
7.20607
7.19815
7.19002
7.18181
7.17364
7.16567
7.15804
7.15087
7.14428
4.353
4.35313
4.35339
4.35376
4.35422
4.35475
4.35534
4.35595
4.35658
4.3572
4.35778
4.35829
4.35872
4.35903
4.3592
4.35921
4.35903
4.35863
4.358
4.35711
4.35595
4.35449
4.35272
4.35063
4.34821
4.34545
4.34238
4.33898
4.33529
4.33133
4.32713
4.32274
4.3182
4.31359
4.30897
4.3044
4.29996
4.29571
4.2917
4.28798
1.45103
1.45107
1.45116
1.45128
1.45143
1.4516
1.45179
1.45199
1.45219
1.45239
1.45257
1.45273
1.45287
1.45296
1.453
1.45299
1.45292
1.45277
1.45255
1.45224
1.45183
1.45133
1.45073
1.45002
1.4492
1.44828
1.44725
1.44612
1.4449
1.44359
1.44221
1.44078
1.4393
1.43781
1.43631
1.43484
1.43341
1.43204
1.43075
1.42954
111.354
111.324
111.285
111.235
111.176
111.108
111.031
110.946
110.854
110.756
110.652
110.544
110.432
110.317
110.2
110.082
109.963
109.844
109.725
109.608
109.492
109.379
109.268
109.16
109.055
108.954
108.857
108.765
108.677
108.594
108.518
108.446
108.382
108.324
108.272
108.229
108.193
108.165
108.146
108.137
108.977
108.945
108.902
108.848
108.782
108.707
108.623
108.53
108.431
108.326
108.215
108.101
107.984
107.864
107.744
107.622
107.5
107.379
107.259
107.14
107.023
106.908
106.797
106.688
106.583
106.481
106.384
106.292
106.204
106.121
106.044
105.973
105.909
105.85
105.799
105.756
105.72
105.692
105.673
105.664
106.69
106.653
106.6
106.532
106.452
106.359
106.258
106.149
106.033
105.913
105.79
105.664
105.537
105.408
105.28
105.152
105.025
104.9
104.776
104.655
104.535
104.419
104.306
104.196
104.09
103.988
103.891
103.798
103.71
103.627
103.55
103.479
103.415
103.357
103.306
103.262
103.226
103.199
103.18
103.17
104.529
104.479
104.403
104.306
104.192
104.066
103.932
103.794
103.652
103.509
103.365
103.223
103.081
102.941
102.803
102.667
102.534
102.403
102.275
102.15
102.028
101.909
101.795
101.684
101.577
101.474
101.376
101.283
101.195
101.112
101.036
100.965
100.9
100.842
100.791
100.748
100.712
100.685
100.666
100.657
102.601
102.51
102.363
102.189
102.003
101.813
101.625
101.441
101.263
101.09
100.922
100.76
100.603
100.451
100.302
100.158
100.018
99.8824
99.7502
99.622
99.4976
99.3772
99.261
99.1489
99.0413
98.9383
98.84
98.7468
98.6588
98.5764
98.4997
98.4291
98.3648
98.3072
98.2567
98.2135
98.1781
98.1509
98.1323
98.1227
101.624
100.968
100.519
100.139
99.8121
99.5245
99.2674
99.0339
98.8191
98.6193
98.4316
98.254
98.0848
97.9229
97.7674
97.6176
97.4731
97.3335
97.1985
97.068
96.942
96.8205
96.7034
96.5908
96.4829
96.3798
96.2816
96.1886
96.101
96.0189
95.9426
95.8725
95.8087
95.7516
95.7014
95.6587
95.6236
95.5966
95.5782
95.5687
107.083
98.6017
98.0751
97.65
97.2947
96.9894
96.7206
96.4791
96.2585
96.0543
95.863
95.6825
95.5109
95.3469
95.1897
95.0385
94.8927
94.7522
94.6165
94.4856
94.3593
94.2376
94.1206
94.0083
93.9008
93.7981
93.7006
93.6082
93.5212
93.4399
93.3644
93.2949
93.2318
93.1754
93.1258
93.0836
93.049
93.0224
93.0042
92.9948
101.468
94.9824
94.7893
94.5846
94.3734
94.1637
93.9593
93.7619
93.5718
93.3888
93.2127
93.0429
92.879
92.7207
92.5675
92.4194
92.276
92.1373
92.0032
91.8736
91.7485
91.628
91.5122
91.401
91.2946
91.1931
91.0966
91.0054
90.9196
90.8394
90.7649
90.6965
90.6344
90.5788
90.5301
90.4885
90.4545
90.4283
90.4105
90.4013
94.3835
91.735
91.6466
91.5399
91.4142
91.2751
91.1274
90.9746
90.8191
90.6629
90.5072
90.3532
90.2014
90.0524
89.9066
89.7642
89.6255
89.4906
89.3596
89.2328
89.1102
88.9919
88.8781
88.7689
88.6643
88.5647
88.47
88.3804
88.2962
88.2175
88.1445
88.0775
88.0166
87.9622
87.9145
87.8738
87.8405
87.8149
87.7974
87.7885
90.2404
88.7487
88.694
88.6233
88.5339
88.4292
88.3124
88.1864
88.0537
87.9165
87.7765
87.6354
87.4942
87.3539
87.2152
87.0789
86.9453
86.8149
86.6879
86.5646
86.4453
86.33
86.219
86.1124
86.0104
85.9132
85.8208
85.7334
85.6513
85.5746
85.5035
85.4381
85.3788
85.3258
85.2794
85.2398
85.2074
85.1825
85.1655
85.1568
87.8334
85.9592
85.903
85.8356
85.7518
85.6541
85.5449
85.4267
85.3015
85.1716
85.0384
84.9036
84.7683
84.6335
84.4999
84.3684
84.2393
84.1131
83.9901
83.8707
83.755
83.6433
83.5357
83.4323
83.3335
83.2392
83.1496
83.065
82.9854
82.9111
82.8422
82.779
82.7216
82.6703
82.6254
82.587
82.5557
82.5316
82.5151
82.5067
85.825
83.32
83.2447
83.1599
83.0592
82.9466
82.8251
82.6974
82.5657
82.4316
82.2963
82.1611
82.0266
81.8937
81.7628
81.6344
81.5088
81.3864
81.2674
81.1519
81.0403
80.9325
80.8288
80.7292
80.634
80.5433
80.4571
80.3757
80.2992
80.2277
80.1615
80.1006
80.0455
79.9961
79.9529
79.9161
79.8859
79.8628
79.847
79.8388
85.5858
80.8804
80.7326
80.5907
80.4398
80.2859
80.132
79.9798
79.8302
79.6836
79.5403
79.4003
79.2638
79.1308
79.0013
78.8754
78.7531
78.6345
78.5197
78.4087
78.3015
78.1982
78.099
78.0039
77.9129
77.8263
77.744
77.6663
77.5933
77.5251
77.4619
77.4038
77.3511
77.3041
77.2628
77.2277
77.1989
77.1768
77.1617
77.1539
100.967
78.8621
78.3558
78.0693
77.8233
77.6057
77.409
77.228
77.0592
76.9004
76.7499
76.6064
76.469
76.3371
76.2101
76.0879
75.9699
75.8562
75.7465
75.6407
75.5389
75.441
75.347
75.257
75.1709
75.089
75.0112
74.9377
74.8686
74.8041
74.7443
74.6894
74.6395
74.5949
74.5559
74.5226
74.4953
74.4744
74.46
74.4527
88.7786
76.0758
75.4714
75.2087
74.9708
74.7547
74.5574
74.3758
74.2076
74.0506
73.9031
73.7636
73.6313
73.505
73.3843
73.2685
73.1573
73.0503
72.9474
72.8483
72.7531
72.6615
72.5737
72.4895
72.4091
72.3325
72.2597
72.191
72.1263
72.0658
72.0098
71.9583
71.9115
71.8697
71.833
71.8017
71.7761
71.7564
71.7429
71.736
80.4195
73.0432
72.3431
72.1289
71.9309
71.7473
71.5765
71.417
71.2676
71.1269
70.9939
70.8677
70.7475
70.6326
70.5226
70.4169
70.3153
70.2175
70.1233
70.0326
69.9452
69.8611
69.7804
69.7029
69.6288
69.5581
69.4909
69.4273
69.3675
69.3115
69.2595
69.2116
69.1682
69.1293
69.0951
69.066
69.0421
69.0238
69.0112
69.0048
74.658
69.6543
69.0457
68.9014
68.7622
68.6282
68.4992
68.3753
68.2563
68.1418
68.0316
67.9255
67.8232
67.7244
67.6289
67.5365
67.4471
67.3606
67.2768
67.1958
67.1175
67.0419
66.9691
66.899
66.8318
66.7676
66.7064
66.6483
66.5936
66.5423
66.4946
66.4507
66.4107
66.3749
66.3434
66.3165
66.2945
66.2776
66.266
66.26
69.8537
66.0055
65.6916
65.6177
65.5389
65.4568
65.3729
65.2881
65.2031
65.1184
65.0345
64.9516
64.87
64.7897
64.7108
64.6336
64.5579
64.484
64.4118
64.3415
64.2731
64.2066
64.1423
64.0801
64.0202
63.9627
63.9078
63.8556
63.8062
63.7598
63.7166
63.6767
63.6403
63.6077
63.579
63.5544
63.5343
63.5188
63.5082
63.5027
65.4947
62.4473
62.3851
62.3612
62.3284
62.2884
62.2426
62.1922
62.1382
62.0815
62.0228
61.9626
61.9015
61.8398
61.7779
61.716
61.6545
61.5935
61.5332
61.4738
61.4155
61.3585
61.3028
61.2487
61.1963
61.1458
61.0972
61.0509
61.0069
60.9655
60.9268
60.891
60.8583
60.8289
60.803
60.7808
60.7626
60.7485
60.7389
60.734
61.3874
59.1413
59.16
59.1677
59.1657
59.1552
59.1375
59.1136
59.0844
59.0507
59.0133
58.9729
58.9301
58.8853
58.839
58.7915
58.7434
58.6947
58.6459
58.5972
58.5488
58.5009
58.4538
58.4076
58.3625
58.3188
58.2766
58.2361
58.1975
58.161
58.1268
58.095
58.066
58.0398
58.0166
57.9968
57.9805
57.9679
57.9592
57.9548
57.349
55.9872
56.022
56.047
56.0632
56.0712
56.072
56.0663
56.0549
56.0384
56.0176
55.9929
55.9651
55.9344
55.9015
55.8667
55.8303
55.7928
55.7544
55.7155
55.6763
55.637
55.5979
55.5592
55.5212
55.484
55.4479
55.413
55.3796
55.3479
55.318
55.2902
55.2646
55.2416
55.2211
55.2036
55.1891
55.1779
55.1703
55.1663
53.3388
52.923
52.9636
52.9959
53.0207
53.0385
53.0498
53.0553
53.0554
53.0507
53.0416
53.0286
53.0122
52.9927
52.9705
52.9461
52.9197
52.8918
52.8625
52.8322
52.8011
52.7696
52.7378
52.706
52.6745
52.6434
52.6129
52.5833
52.5548
52.5276
52.5019
52.4778
52.4556
52.4355
52.4176
52.4023
52.3896
52.3798
52.373
52.3696
49.93
49.9369
49.9739
50.0054
50.0315
50.0524
50.0683
50.0795
50.0862
50.0887
50.0873
50.0824
50.0741
50.0629
50.049
50.0328
50.0145
49.9943
49.9726
49.9497
49.9257
49.9009
49.8756
49.85
49.8242
49.7986
49.7733
49.7486
49.7246
49.7015
49.6796
49.659
49.64
49.6226
49.6072
49.5939
49.5829
49.5744
49.5685
49.5655
46.9952
47.002
47.032
47.0591
47.083
47.1034
47.1203
47.1338
47.1437
47.1503
47.1536
47.1539
47.1513
47.146
47.1383
47.1282
47.1161
47.1022
47.0867
47.0698
47.0517
47.0326
47.0129
46.9925
46.9719
46.9511
46.9305
46.91
46.8901
46.8708
46.8524
46.835
46.8188
46.8041
46.7909
46.7795
46.7701
46.7628
46.7577
46.7551
44.084
44.0913
44.117
44.1407
44.1622
44.1813
44.1979
44.2119
44.2232
44.232
44.2381
44.2417
44.2428
44.2416
44.2382
44.2327
44.2253
44.2162
44.2056
44.1935
44.1802
44.1659
44.1508
44.135
44.1187
44.1021
44.0855
44.0689
44.0525
44.0366
44.0213
44.0068
43.9932
43.9808
43.9697
43.96
43.952
43.9458
43.9415
43.9393
41.1903
41.1979
41.2205
41.2417
41.2612
41.279
41.2948
41.3087
41.3205
41.3302
41.3379
41.3434
41.3469
41.3485
41.3481
41.3459
41.3421
41.3366
41.3297
41.3214
41.312
41.3015
41.2902
41.2781
41.2655
41.2525
41.2393
41.2259
41.2127
41.1997
41.1872
41.1752
41.164
41.1536
41.1443
41.1362
41.1295
41.1242
41.1206
41.1188
38.3114
38.3185
38.3387
38.3578
38.3756
38.392
38.4069
38.4203
38.432
38.4421
38.4505
38.4572
38.4621
38.4655
38.4671
38.4673
38.4659
38.4631
38.459
38.4537
38.4472
38.4398
38.4315
38.4225
38.4129
38.4029
38.3925
38.382
38.3714
38.361
38.3508
38.341
38.3318
38.3233
38.3156
38.3089
38.3033
38.2989
38.2959
38.2943
35.4435
35.4503
35.4685
35.4858
35.5021
35.5172
35.5312
35.5439
35.5552
35.5652
35.5738
35.581
35.5868
35.5912
35.5942
35.5959
35.5962
35.5954
35.5933
35.5902
35.586
35.581
35.5751
35.5685
35.5614
35.5537
35.5457
35.5375
35.5292
35.5209
35.5127
35.5048
35.4973
35.4904
35.4841
35.4786
35.474
35.4704
35.4679
35.4666
32.5851
32.5915
32.6081
32.6239
32.6387
32.6527
32.6656
32.6774
32.6882
32.6978
32.7063
32.7135
32.7196
32.7246
32.7283
32.7309
32.7324
32.7328
32.7322
32.7307
32.7282
32.7249
32.7209
32.7162
32.711
32.7053
32.6992
32.6929
32.6864
32.6799
32.6734
32.6671
32.6611
32.6555
32.6504
32.6459
32.6422
32.6392
32.6372
32.6361
29.7355
29.7413
29.7563
29.7706
29.7841
29.7968
29.8086
29.8195
29.8294
29.8384
29.8464
29.8534
29.8594
29.8645
29.8685
29.8716
29.8737
29.8749
29.8753
29.8748
29.8735
29.8716
29.8689
29.8657
29.8619
29.8577
29.8532
29.8484
29.8434
29.8383
29.8333
29.8283
29.8235
29.8191
29.815
29.8114
29.8083
29.8059
29.8043
29.8034
26.8939
26.8989
26.9124
26.9252
26.9372
26.9485
26.9591
26.9688
26.9777
26.9858
26.9931
26.9995
27.0051
27.0099
27.0139
27.0171
27.0195
27.0211
27.022
27.0222
27.0217
27.0206
27.019
27.0168
27.0142
27.0112
27.0078
27.0042
27.0004
26.9965
26.9926
26.9887
26.985
26.9814
26.9782
26.9753
26.9729
26.971
26.9696
26.969
24.0614
24.0644
24.0759
24.0869
24.0973
24.107
24.1161
24.1245
24.1321
24.1391
24.1454
24.1509
24.1559
24.1601
24.1637
24.1667
24.169
24.1707
24.1718
24.1724
24.1724
24.1719
24.1709
24.1695
24.1677
24.1655
24.1631
24.1604
24.1575
24.1546
24.1516
24.1486
24.1456
24.1429
24.1403
24.1381
24.1361
24.1346
24.1336
24.133
21.2335
21.2348
21.2448
21.2544
21.2633
21.2714
21.2789
21.2856
21.2917
21.2973
21.3022
21.3067
21.3106
21.3141
21.3171
21.3196
21.3216
21.3231
21.3242
21.3249
21.3251
21.3249
21.3244
21.3235
21.3222
21.3207
21.319
21.317
21.3149
21.3126
21.3103
21.308
21.3058
21.3036
21.3017
21.2999
21.2984
21.2972
21.2964
21.2959
18.3953
18.4039
18.4181
18.4282
18.4358
18.4419
18.4471
18.4516
18.4557
18.4593
18.4627
18.4657
18.4685
18.4709
18.4731
18.475
18.4765
18.4777
18.4786
18.4792
18.4795
18.4795
18.4792
18.4786
18.4777
18.4767
18.4754
18.474
18.4724
18.4707
18.469
18.4672
18.4655
18.4639
18.4624
18.461
18.4598
18.4589
18.4583
18.458
15.6428
15.6312
15.6248
15.6215
15.6201
15.6198
15.6203
15.6212
15.6224
15.6237
15.6252
15.6267
15.6282
15.6296
15.6309
15.632
15.633
15.6339
15.6345
15.6349
15.6352
15.6352
15.635
15.6346
15.634
15.6332
15.6323
15.6313
15.6301
15.6289
15.6276
15.6263
15.625
15.6238
15.6226
15.6216
15.6207
15.62
15.6195
15.6193
12.826
12.8153
12.8069
12.8006
12.7959
12.7926
12.7904
12.7889
12.7881
12.7877
12.7877
12.788
12.7884
12.7889
12.7894
12.79
12.7905
12.791
12.7913
12.7916
12.7917
12.7917
12.7915
12.7913
12.7908
12.7903
12.7896
12.7889
12.7881
12.7872
12.7862
12.7853
12.7843
12.7834
12.7825
12.7818
12.7811
12.7806
12.7802
12.78
9.98704
9.97903
9.97213
9.96633
9.96158
9.95776
9.95477
9.95249
9.95081
9.94961
9.94881
9.94832
9.94807
9.948
9.94804
9.94817
9.94833
9.94849
9.94863
9.94872
9.94875
9.94871
9.94859
9.94838
9.94808
9.9477
9.94724
9.94671
9.94613
9.94549
9.94483
9.94415
9.94347
9.94281
9.9422
9.94165
9.94118
9.9408
9.94053
9.9404
7.13827
7.13281
7.1279
7.12359
7.11986
7.11671
7.1141
7.11198
7.11029
7.10898
7.108
7.10729
7.10679
7.10647
7.10628
7.10618
7.10614
7.10614
7.10615
7.10615
7.10613
7.10607
7.10597
7.10581
7.10561
7.10535
7.10505
7.10469
7.1043
7.10388
7.10344
7.10299
7.10254
7.1021
7.10169
7.10132
7.101
7.10075
7.10057
7.10048
4.28455
4.28138
4.27848
4.27587
4.27355
4.27155
4.26983
4.2684
4.26722
4.26627
4.26553
4.26496
4.26453
4.26423
4.26402
4.26388
4.2638
4.26374
4.26371
4.26368
4.26364
4.26359
4.26352
4.26343
4.26331
4.26316
4.26298
4.26278
4.26255
4.26231
4.26206
4.2618
4.26154
4.26129
4.26106
4.26084
4.26066
4.26052
4.26041
4.26036
1.42842
1.42739
1.42643
1.42556
1.42478
1.42409
1.4235
1.423
1.42258
1.42224
1.42197
1.42175
1.42159
1.42147
1.42139
1.42133
1.42129
1.42126
1.42124
1.42123
1.42121
1.42119
1.42117
1.42113
1.42109
1.42104
1.42099
1.42092
1.42085
1.42077
1.42069
1.4206
1.42052
1.42044
1.42036
1.42029
1.42023
1.42018
1.42015
1.42013
)
;

boundaryField
{
    top
    {
        type            fixedValue;
        value           uniform 0;
    }
    inlet
    {
        type            darcyGradPressure;
        gradient        nonuniform List<scalar> 
80
(
9.81
9.81
9.81
9.81
9.81
9.81
9.81
9.81
9.81
9.81
9.81
9.81
9.81
9.81
9.81
9.81
9.81
9.81
9.81
9.81
9.81
9.81
9.81
9.81
9.81
9.81
9.81
9.81
9.81
9.81
9.81
9.81
9.81
9.81
9.81
9.81
9.81
9.81
9.81
9.81
9.81
9.81
9.81
9.81
9.81
9.81
9.81
9.81
9.81
9.81
9.81
9.81
9.81
9.81
9.81
9.81
9.81
9.81
9.81
9.81
9.81
9.81
9.81
9.81
9.81
9.81
9.81
9.81
9.81
9.81
9.81
9.81
9.81
9.81
9.81
9.81
9.81
9.81
9.81
9.81
)
;
        value           nonuniform List<scalar> 
80
(
110.327
110.336
110.353
110.377
110.41
110.449
110.494
110.546
110.603
110.666
110.733
110.804
110.88
110.958
111.04
111.125
111.212
111.301
111.39
111.481
111.572
111.663
111.754
111.843
111.93
112.015
112.097
112.176
112.25
112.319
112.383
112.44
112.49
112.532
112.566
112.592
112.608
112.615
112.613
112.601
112.581
112.551
112.511
112.462
112.403
112.334
112.257
112.173
112.081
111.982
111.878
111.77
111.658
111.543
111.426
111.308
111.189
111.07
110.952
110.834
110.719
110.605
110.494
110.386
110.281
110.18
110.083
109.991
109.903
109.821
109.744
109.673
109.608
109.55
109.499
109.455
109.419
109.391
109.372
109.363
)
;
    }
    axis
    {
        type            darcyGradPressure;
        gradient        uniform -0;
        value           nonuniform List<scalar> 
80
(
109.101
106.63
104.14
101.632
99.1057
96.5602
93.9955
91.4117
88.8085
86.1859
83.544
80.8828
78.2027
75.5039
72.7869
70.0524
67.301
64.5336
61.751
58.9541
56.1441
53.3218
50.4883
47.6447
44.792
41.9311
39.0631
36.1887
33.309
30.4246
27.5362
24.6446
21.7504
18.854
15.9558
13.0564
10.1559
7.25469
4.353
1.45103
108.137
105.664
103.17
100.657
98.1227
95.5687
92.9948
90.4013
87.7885
85.1568
82.5067
79.8388
77.1539
74.4527
71.736
69.0048
66.26
63.5027
60.734
57.9548
55.1663
52.3696
49.5655
46.7551
43.9393
41.1188
38.2943
35.4666
32.6361
29.8034
26.969
24.133
21.2959
18.458
15.6193
12.78
9.9404
7.10048
4.26036
1.42013
)
;
    }
    frontAndBack
    {
        type            empty;
    }
}


// ************************************************************************* //
