/*--------------------------------*- C++ -*----------------------------------*\
  =========                 |
  \\      /  F ield         | OpenFOAM: The Open Source CFD Toolbox
   \\    /   O peration     | Website:  https://openfoam.org
    \\  /    A nd           | Version:  10
     \\/     M anipulation  |
\*---------------------------------------------------------------------------*/
FoamFile
{
    format      ascii;
    class       volScalarField;
    location    "0.002";
    object      p;
}
// * * * * * * * * * * * * * * * * * * * * * * * * * * * * * * * * * * * * * //

dimensions      [0 2 -2 0 0 0 0];

internalField   nonuniform List<scalar> 
4000
(
11.4593
11.4592
11.4589
11.4583
11.4573
11.456
11.4544
11.4524
11.4501
11.4474
11.4445
11.4412
11.4376
11.4336
11.4294
11.4248
11.4199
11.4146
11.409
11.4031
11.3968
11.3901
11.3831
11.3757
11.368
11.3597
11.3512
11.3421
11.3326
11.3226
11.3121
11.301
11.2895
11.2772
11.2644
11.2508
11.2365
11.2214
11.2055
11.1886
11.1709
11.152
11.1322
11.1109
11.0887
11.0648
11.0398
11.0129
10.9847
10.9544
10.9226
10.8883
10.8524
10.8137
10.7731
10.7295
10.6836
10.6344
10.5826
10.5272
10.469
10.4068
10.3414
10.2717
10.1986
10.1208
10.0393
9.9529
9.86264
9.76713
9.66765
9.56273
9.45376
9.33926
9.22073
9.09667
8.96869
8.8353
8.6982
8.55593
8.41026
8.25977
8.10628
7.94844
7.78807
7.6239
7.45774
7.28838
7.11762
6.9443
6.77017
6.59414
6.41788
6.24038
6.06322
5.88546
5.70855
5.53166
5.35611
5.18114
5.00796
4.83589
4.66601
4.49773
4.33199
4.16831
4.00747
3.8491
3.69385
3.54144
3.39242
3.24657
3.10436
2.96563
2.83075
2.69962
2.57251
2.4494
2.33044
2.21566
2.10512
1.99887
1.8969
1.79928
1.70591
1.61687
1.53201
1.4514
1.37483
1.30235
1.23373
1.16901
1.1079
1.05044
0.996345
0.945614
0.897957
0.853363
0.811552
0.772487
0.735914
0.70177
0.669833
0.640018
0.612141
0.58609
0.561729
0.538918
0.51757
0.497519
0.478728
0.461004
0.444362
0.428582
0.413729
0.399557
0.38618
0.373325
0.361153
0.349367
0.33817
0.327242
0.316827
0.306581
0.296785
0.287074
0.277763
0.268467
0.259532
0.250552
0.241903
0.233161
0.224726
0.216158
0.20788
0.199436
0.191271
0.182913
0.174824
0.166521
0.158483
0.150213
0.142205
0.133953
0.125961
0.117716
0.10973
0.101484
0.0934957
0.0852391
0.0772403
0.0689682
0.0609586
0.052677
0.0446801
0.0364215
0.0284451
0.020326
0.0121379
0.00399936
11.4608
11.4608
11.4605
11.4598
11.4588
11.4575
11.4559
11.4539
11.4516
11.4489
11.446
11.4427
11.4391
11.4351
11.4309
11.4263
11.4214
11.4161
11.4106
11.4046
11.3984
11.3918
11.3848
11.3775
11.3698
11.3616
11.3531
11.3441
11.3348
11.3248
11.3145
11.3035
11.2921
11.28
11.2673
11.2539
11.2399
11.2249
11.2093
11.1927
11.1752
11.1566
11.1371
11.1162
11.0943
11.0708
11.0461
11.0197
10.9919
10.9621
10.9307
10.897
10.8615
10.8234
10.7833
10.7403
10.6949
10.6464
10.5952
10.5404
10.4827
10.4211
10.3563
10.2872
10.2145
10.1373
10.0562
9.97025
9.88024
9.78507
9.68569
9.58095
9.4719
9.3574
9.23859
9.11432
8.98584
8.85204
8.71422
8.57133
8.42474
8.27345
8.11888
7.96008
7.79851
7.63326
7.46582
7.29532
7.12323
6.94876
6.77331
6.59615
6.41861
6.24003
6.06166
5.88289
5.70486
5.52703
5.35045
5.17463
5.00052
4.82767
4.65695
4.48798
4.32149
4.15717
3.99566
3.83671
3.68086
3.52791
3.37835
3.23203
3.08933
2.95019
2.8149
2.68343
2.556
2.43264
2.31346
2.19852
2.08788
1.98159
1.87964
1.78209
1.68887
1.60003
1.51544
1.43514
1.35894
1.28688
1.21872
1.15449
1.09392
1.03702
0.983512
0.933371
0.886333
0.842346
0.801159
0.762701
0.726738
0.693184
0.661832
0.632577
0.605246
0.579717
0.555856
0.533524
0.512626
0.493007
0.474615
0.457276
0.440981
0.42554
0.410984
0.397108
0.383982
0.371382
0.359419
0.347852
0.336826
0.326084
0.315805
0.305717
0.296027
0.286449
0.277219
0.268035
0.259158
0.250273
0.241663
0.233001
0.22459
0.216089
0.207822
0.199436
0.191269
0.182961
0.174862
0.166603
0.158547
0.150316
0.142284
0.134067
0.126047
0.117834
0.109816
0.101599
0.0935766
0.0853478
0.0773124
0.069067
0.0610191
0.0527639
0.0447251
0.0364927
0.0284708
0.0203591
0.0121593
0.00400497
11.4638
11.4638
11.4635
11.4628
11.4619
11.4605
11.4589
11.4569
11.4546
11.452
11.449
11.4457
11.4421
11.4382
11.4339
11.4293
11.4245
11.4192
11.4137
11.4078
11.4017
11.3951
11.3882
11.381
11.3734
11.3654
11.357
11.3482
11.339
11.3293
11.3192
11.3085
11.2974
11.2856
11.2732
11.2602
11.2465
11.232
11.2169
11.2007
11.1838
11.1658
11.1468
11.1266
11.1054
11.0827
11.0588
11.0332
11.0062
10.9774
10.9469
10.9143
10.8798
10.8428
10.8038
10.762
10.7178
10.6705
10.6205
10.5669
10.5105
10.4501
10.3864
10.3184
10.2468
10.1706
10.0905
10.0053
9.91603
9.82143
9.72244
9.61795
9.50893
9.39429
9.2751
9.15027
9.02098
8.88617
8.7471
8.60277
8.45452
8.30141
8.14483
7.98389
7.82004
7.65244
7.48254
7.30957
7.13495
6.95798
6.78001
6.6004
6.42044
6.23953
6.05887
5.87791
5.69777
5.51793
5.33941
5.16175
4.98587
4.81137
4.63905
4.46857
4.30064
4.13496
3.97214
3.81194
3.65489
3.50081
3.35015
3.20281
3.05915
2.91911
2.78299
2.65078
2.52269
2.39877
2.27913
2.16385
2.05297
1.94657
1.84464
1.74724
1.65429
1.56585
1.48178
1.40211
1.32666
1.25544
1.18822
1.125
1.06552
1.00975
0.957433
0.908508
0.86271
0.819973
0.780039
0.742824
0.708091
0.675741
0.645566
0.617451
0.591221
0.566751
0.543902
0.522534
0.502551
0.483798
0.466219
0.449646
0.434065
0.419293
0.405356
0.392057
0.37946
0.367352
0.355836
0.344684
0.334032
0.323636
0.313666
0.303863
0.294426
0.285082
0.276054
0.267059
0.258343
0.249608
0.241123
0.23258
0.224264
0.215856
0.207659
0.199343
0.191227
0.182971
0.174907
0.166685
0.15865
0.150445
0.142423
0.134223
0.126204
0.118
0.109978
0.101765
0.0937326
0.0855033
0.0774543
0.0692053
0.0611409
0.0528797
0.0448211
0.0365798
0.0285351
0.020408
0.0121903
0.0040164
11.4685
11.4685
11.4682
11.4675
11.4665
11.4651
11.4635
11.4615
11.4592
11.4565
11.4536
11.4502
11.4466
11.4427
11.4385
11.4339
11.4291
11.4239
11.4184
11.4126
11.4065
11.4001
11.3933
11.3862
11.3788
11.371
11.3629
11.3543
11.3454
11.336
11.3263
11.3159
11.3052
11.2939
11.2821
11.2695
11.2565
11.2426
11.2282
11.2128
11.1967
11.1795
11.1615
11.1423
11.1221
11.1005
11.0778
11.0534
11.0278
11.0003
10.9713
10.9402
10.9073
10.8721
10.8348
10.7947
10.7523
10.7069
10.6588
10.6072
10.5526
10.4941
10.4322
10.3661
10.2962
10.2216
10.1429
10.0592
9.97098
9.87732
9.77902
9.67496
9.56608
9.45127
9.33157
9.20589
9.07539
8.93902
8.79804
8.65147
8.50066
8.34469
8.18498
8.0207
7.8533
7.68201
7.50831
7.33147
7.15295
6.97208
6.79026
6.60686
6.4232
6.23869
6.05457
5.87028
5.68693
5.50404
5.32261
5.14218
4.96366
4.78664
4.61193
4.43917
4.26906
4.10131
3.9365
3.77439
3.61551
3.45968
3.30735
3.15841
3.01324
2.87179
2.73437
2.60098
2.47185
2.34702
2.22665
2.11079
1.99953
1.89294
1.79102
1.69383
1.60129
1.51347
1.4302
1.35152
1.27723
1.20733
1.14158
1.07994
1.02215
0.968165
0.917687
0.870655
0.82678
0.785981
0.747983
0.712688
0.679848
0.649351
0.620979
0.594611
0.570066
0.54721
0.525903
0.506002
0.487408
0.469965
0.45362
0.438203
0.423702
0.409935
0.396932
0.384496
0.372697
0.361324
0.350482
0.339946
0.329857
0.319974
0.31047
0.301088
0.292031
0.283029
0.274309
0.265588
0.257116
0.248599
0.240307
0.231933
0.223765
0.215487
0.207402
0.199183
0.191149
0.182964
0.174957
0.166784
0.158787
0.150614
0.142615
0.134431
0.126423
0.118226
0.110204
0.101989
0.09395
0.0857124
0.0776509
0.0693885
0.0613071
0.0530286
0.0449495
0.0366876
0.0286196
0.0204688
0.0122274
0.00402999
11.4747
11.4747
11.4744
11.4737
11.4727
11.4713
11.4697
11.4676
11.4653
11.4626
11.4596
11.4563
11.4527
11.4487
11.4445
11.44
11.4352
11.43
11.4246
11.4189
11.4129
11.4066
11.4
11.3931
11.3859
11.3783
11.3705
11.3623
11.3537
11.3447
11.3354
11.3256
11.3155
11.3047
11.2936
11.2818
11.2695
11.2565
11.2429
11.2285
11.2135
11.1974
11.1807
11.1628
11.144
11.1239
11.1027
11.0801
11.0562
11.0306
11.0036
10.9746
10.9439
10.9108
10.8759
10.8382
10.7984
10.7555
10.7099
10.661
10.609
10.5532
10.4939
10.4303
10.3629
10.2906
10.2141
10.1323
10.0458
9.95357
9.85636
9.75301
9.64444
9.52949
9.40919
9.2824
9.1503
9.01181
8.86821
8.71852
8.56414
8.40417
8.24009
8.0711
7.89874
7.72228
7.54327
7.36103
7.1771
6.99083
6.8037
6.61511
6.4264
6.23702
6.04822
5.85944
5.67183
5.48487
5.29957
5.11547
4.93345
4.75312
4.57524
4.39947
4.22648
4.05596
3.88849
3.72383
3.56247
3.40426
3.24964
3.09851
2.95126
2.80785
2.6686
2.53355
2.40293
2.27682
2.15538
2.0387
1.92688
1.82
1.71807
1.62117
1.52921
1.44224
1.36011
1.28284
1.2102
1.14217
1.07847
1.01908
0.963664
0.912168
0.864269
0.819877
0.778677
0.740564
0.70524
0.672591
0.642348
0.614387
0.588476
0.564484
0.542221
0.521547
0.50232
0.484389
0.467658
0.451966
0.437265
0.423383
0.410314
0.397875
0.386105
0.374805
0.364054
0.353641
0.34368
0.333948
0.324591
0.315372
0.30647
0.297632
0.289065
0.280502
0.272175
0.263804
0.255645
0.247404
0.239355
0.231194
0.223213
0.215096
0.207151
0.199052
0.19112
0.183019
0.175084
0.166968
0.159017
0.150879
0.142906
0.134741
0.126743
0.11855
0.110527
0.102305
0.0942548
0.0860024
0.0779226
0.0696392
0.061534
0.0532298
0.0451229
0.0368319
0.0287334
0.0205513
0.0122781
0.00404889
11.4826
11.4825
11.4822
11.4815
11.4805
11.4791
11.4774
11.4753
11.4729
11.4702
11.4672
11.4638
11.4602
11.4562
11.452
11.4474
11.4426
11.4375
11.4322
11.4266
11.4207
11.4145
11.4082
11.4015
11.3945
11.3873
11.3798
11.3719
11.3638
11.3553
11.3466
11.3374
11.3279
11.3179
11.3075
11.2966
11.2853
11.2733
11.2609
11.2477
11.234
11.2193
11.2041
11.1878
11.1707
11.1525
11.1333
11.1128
11.0911
11.0679
11.0433
11.0169
10.9889
10.9588
10.9268
10.8923
10.8556
10.816
10.7739
10.7284
10.6799
10.6275
10.5718
10.5116
10.4475
10.3784
10.3048
10.2257
10.1417
10.0515
9.95594
9.85375
9.7458
9.63087
9.50995
9.38187
9.24778
9.10658
8.95958
8.80579
8.64668
8.48138
8.31147
8.13619
7.95721
7.77384
7.58778
7.3984
7.20734
7.01402
6.81998
6.62467
6.42949
6.2339
6.03917
5.84476
5.65181
5.45979
5.26971
5.08108
4.89477
4.71036
4.5286
4.34913
4.17258
3.99864
3.82785
3.65997
3.49549
3.33424
3.17667
3.0227
2.87271
2.72671
2.58504
2.44774
2.31511
2.18723
2.06432
1.9465
1.83387
1.72657
1.6246
1.52806
1.43686
1.35105
1.27046
1.19508
1.12465
1.05914
0.998222
0.941823
0.889589
0.841415
0.796939
0.756037
0.718356
0.683763
0.651931
0.62272
0.595839
0.571146
0.548395
0.527439
0.508085
0.490179
0.473578
0.458127
0.443732
0.43023
0.417577
0.4056
0.394303
0.383503
0.373246
0.363339
0.353867
0.344623
0.335731
0.32697
0.318497
0.310077
0.301897
0.293707
0.285723
0.27768
0.269819
0.261861
0.254068
0.246148
0.238383
0.230469
0.222703
0.214771
0.206985
0.199021
0.191203
0.183196
0.175337
0.167284
0.159381
0.151278
0.14333
0.13518
0.127189
0.118995
0.110965
0.10273
0.0946617
0.0863869
0.0782808
0.0699678
0.0618302
0.0534911
0.0453475
0.0370183
0.0288803
0.0206577
0.0123436
0.00407329
11.4921
11.492
11.4917
11.491
11.4899
11.4884
11.4867
11.4845
11.4821
11.4793
11.4762
11.4727
11.469
11.465
11.4608
11.4562
11.4514
11.4464
11.4411
11.4356
11.4298
11.4238
11.4176
11.4112
11.4045
11.3976
11.3905
11.3831
11.3755
11.3676
11.3595
11.3509
11.3422
11.3331
11.3237
11.3138
11.3036
11.2928
11.2817
11.2699
11.2577
11.2448
11.2313
11.2169
11.2019
11.1858
11.169
11.151
11.132
11.1115
11.09
11.0667
11.0421
11.0154
10.9871
10.9564
10.9237
10.8882
10.8503
10.8091
10.7651
10.7172
10.6659
10.6102
10.5505
10.4856
10.4161
10.3407
10.2601
10.1729
10.0797
9.97938
9.87257
9.75799
9.63658
9.5071
9.37066
9.22614
9.07486
8.91584
8.75062
8.57839
8.40087
8.21738
8.02974
7.8374
7.64219
7.44361
7.24342
7.04115
6.83841
6.63472
6.43154
6.22834
6.02642
5.82523
5.62591
5.42791
5.2322
5.03827
4.84696
4.65781
4.47153
4.28772
4.107
3.92902
3.75429
3.58255
3.41427
3.2493
3.08806
2.93051
2.77705
2.62771
2.48286
2.34262
2.20729
2.07704
1.95212
1.83271
1.71896
1.61103
1.50895
1.41285
1.32263
1.23834
1.15977
1.08689
1.01939
0.957199
0.899927
0.847453
0.799358
0.75549
0.715428
0.679003
0.645814
0.61569
0.588265
0.56337
0.54069
0.520057
0.501212
0.483992
0.468195
0.453661
0.440246
0.427788
0.4162
0.405316
0.395102
0.385385
0.376181
0.367308
0.358825
0.350541
0.342556
0.334666
0.327007
0.319362
0.311899
0.304388
0.297027
0.28957
0.282242
0.274783
0.26744
0.25994
0.25255
0.244984
0.237528
0.229881
0.222346
0.214612
0.206994
0.199171
0.191469
0.183558
0.175776
0.167781
0.159923
0.151851
0.143922
0.13578
0.127788
0.119586
0.111539
0.103283
0.0951869
0.08688
0.0787376
0.0703849
0.0622045
0.0538203
0.0456296
0.0372518
0.0290641
0.0207907
0.0124252
0.00410355
11.5033
11.5032
11.5029
11.5021
11.501
11.4994
11.4976
11.4953
11.4928
11.4898
11.4866
11.4831
11.4793
11.4752
11.4709
11.4663
11.4615
11.4564
11.4512
11.4457
11.4401
11.4342
11.4282
11.422
11.4157
11.4091
11.4025
11.3955
11.3885
11.3812
11.3738
11.366
11.3582
11.35
11.3416
11.3328
11.3239
11.3145
11.3049
11.2947
11.2843
11.2732
11.2617
11.2495
11.2368
11.2233
11.2092
11.194
11.1781
11.161
11.1429
11.1233
11.1026
11.08
11.0561
11.03
11.0021
10.9716
10.9388
10.903
10.8645
10.8222
10.7766
10.7265
10.6725
10.6131
10.549
10.4787
10.4028
10.3198
10.2302
10.1327
10.0279
9.91425
9.79272
9.66189
9.52284
9.37435
9.21779
9.05217
8.87914
8.69798
8.51058
8.31643
8.11759
7.91366
7.70673
7.49644
7.28475
7.0713
6.85784
6.64393
6.43111
6.21886
6.00849
5.79945
5.59281
5.38801
5.18596
4.98611
4.78922
4.5948
4.40349
4.21485
4.02943
3.84686
3.6676
3.49137
3.31862
3.14918
2.98349
2.82152
2.6637
2.5101
2.36115
2.21703
2.07812
1.94468
1.81701
1.6954
1.58004
1.47119
1.36889
1.27331
1.18434
1.10202
1.0261
0.956504
0.892851
0.834996
0.782467
0.735069
0.692298
0.653932
0.619472
0.588692
0.561128
0.536562
0.514583
0.494987
0.477429
0.461717
0.447576
0.434829
0.423267
0.412723
0.403056
0.394101
0.38578
0.377928
0.370522
0.363396
0.356577
0.349891
0.34341
0.336951
0.330629
0.324244
0.31795
0.311534
0.305179
0.29866
0.292188
0.285522
0.278898
0.272061
0.265268
0.258249
0.251283
0.244083
0.236945
0.229571
0.22227
0.214732
0.20728
0.199592
0.192002
0.184178
0.176463
0.168518
0.160694
0.152641
0.14472
0.136575
0.128571
0.120348
0.112274
0.103983
0.0958475
0.0874963
0.0793057
0.0709013
0.0626663
0.0542251
0.0459754
0.0375375
0.0292884
0.0209527
0.0125245
0.00414012
11.5162
11.5162
11.5158
11.5149
11.5137
11.5121
11.5101
11.5077
11.505
11.5019
11.4985
11.4948
11.4909
11.4866
11.4822
11.4775
11.4726
11.4675
11.4623
11.4568
11.4513
11.4456
11.4398
11.4338
11.4278
11.4216
11.4154
11.4089
11.4025
11.3958
11.3892
11.3823
11.3753
11.3682
11.3609
11.3534
11.3459
11.338
11.3299
11.3215
11.313
11.304
11.2948
11.285
11.2749
11.2642
11.2531
11.2412
11.2287
11.2153
11.2011
11.1858
11.1696
11.1518
11.1329
11.1122
11.0899
11.0653
11.0388
11.0094
10.9775
10.9422
10.9036
10.8608
10.8139
10.7618
10.7047
10.6412
10.5717
10.4947
10.4104
10.3172
10.2157
10.1041
9.98321
9.85138
9.70959
9.55652
9.39352
9.21961
9.03658
8.84384
8.64359
8.43554
8.22212
8.00322
7.78126
7.55613
7.33004
7.1028
6.87629
6.65017
6.426
6.20328
5.98329
5.76542
5.5507
5.33849
5.12961
4.92343
4.72062
4.5206
4.32394
4.13013
3.93966
3.75206
3.56778
3.38646
3.20855
3.03386
2.86282
2.69544
2.53217
2.37316
2.21889
2.06966
1.92595
1.78815
1.65668
1.53197
1.41431
1.30407
1.20136
1.10638
1.01902
0.939305
0.866887
0.801636
0.743043
0.690864
0.644501
0.603651
0.567691
0.536304
0.508893
0.485154
0.464549
0.446802
0.431451
0.418253
0.406831
0.396971
0.388384
0.380878
0.374247
0.368315
0.362952
0.357993
0.353376
0.348939
0.344679
0.340435
0.336256
0.331973
0.327683
0.323207
0.31868
0.313913
0.309075
0.303963
0.298776
0.293296
0.287749
0.2819
0.275999
0.269795
0.263558
0.257022
0.250474
0.243634
0.236805
0.229691
0.22261
0.215254
0.207951
0.200382
0.192885
0.185131
0.177467
0.169554
0.161746
0.153696
0.145765
0.137601
0.129568
0.121308
0.11319
0.10485
0.0966603
0.0882506
0.0799975
0.0715276
0.0632243
0.0547128
0.0463912
0.0378802
0.0295569
0.0211464
0.012643
0.00418345
11.5311
11.531
11.5306
11.5296
11.5283
11.5265
11.5243
11.5217
11.5187
11.5154
11.5118
11.5079
11.5037
11.4992
11.4946
11.4897
11.4847
11.4795
11.4742
11.4688
11.4633
11.4577
11.4521
11.4463
11.4406
11.4347
11.4289
11.423
11.4172
11.4112
11.4053
11.3993
11.3933
11.3873
11.3812
11.375
11.3689
11.3626
11.3563
11.3498
11.3433
11.3365
11.3297
11.3226
11.3153
11.3077
11.2998
11.2914
11.2828
11.2735
11.2637
11.2531
11.2419
11.2296
11.2164
11.2018
11.186
11.1683
11.149
11.1273
11.1034
11.0764
11.0465
11.0126
10.9749
10.932
10.8841
10.8298
10.7691
10.7004
10.6237
10.5372
10.4411
10.3334
10.2145
10.0825
9.93823
9.78005
9.60929
9.42492
9.22896
9.02103
8.80377
8.57734
8.34472
8.10629
7.86495
7.62098
7.37693
7.1328
6.89065
6.65016
6.41294
6.17844
5.94785
5.72047
5.49721
5.2773
5.06144
4.84886
4.64011
4.43449
4.23246
4.0334
3.8377
3.64484
3.45514
3.26823
3.08449
2.9037
2.72631
2.55232
2.38224
2.2163
2.05509
1.89904
1.74879
1.60494
1.46811
1.33893
1.21791
1.10557
1.00213
0.907875
0.82265
0.746429
0.678741
0.619316
0.567463
0.522775
0.484465
0.452077
0.424827
0.402267
0.383678
0.368659
0.356585
0.347114
0.339733
0.334154
0.329977
0.326964
0.32482
0.323345
0.322339
0.32163
0.321102
0.320601
0.320082
0.319399
0.31857
0.317449
0.316108
0.314393
0.312424
0.310035
0.307385
0.304296
0.300959
0.297179
0.293177
0.288741
0.284116
0.279075
0.27388
0.268289
0.262584
0.256504
0.250347
0.243836
0.237285
0.230401
0.223508
0.216303
0.209118
0.201639
0.194207
0.186495
0.178853
0.170946
0.163129
0.155058
0.147096
0.138889
0.130807
0.12249
0.11431
0.105902
0.0976409
0.0891558
0.0808241
0.0722731
0.0638864
0.05529
0.0468821
0.038284
0.0298729
0.021374
0.0127819
0.00423391
11.5479
11.5479
11.5474
11.5463
11.5448
11.5427
11.5403
11.5374
11.5341
11.5304
11.5265
11.5222
11.5177
11.5129
11.508
11.5028
11.4976
11.4923
11.4869
11.4813
11.4759
11.4703
11.4648
11.4592
11.4538
11.4483
11.4429
11.4375
11.4322
11.4269
11.4218
11.4167
11.4117
11.4068
11.402
11.3972
11.3925
11.3879
11.3834
11.3788
11.3745
11.37
11.3658
11.3614
11.3571
11.3527
11.3484
11.3438
11.3393
11.3343
11.3294
11.3239
11.3183
11.3119
11.3051
11.2973
11.2889
11.279
11.2681
11.2553
11.2408
11.2238
11.2043
11.1813
11.1549
11.1238
11.0879
11.0456
10.9969
10.9398
10.8741
10.7977
10.7103
10.6095
10.4952
10.3649
10.219
10.0555
9.87549
9.67786
9.46486
9.23651
8.99619
8.74485
8.48642
8.22208
7.95551
7.68754
7.42114
7.15653
6.8959
6.63894
6.38716
6.13988
5.89813
5.66103
5.42927
5.2019
4.97941
4.76086
4.54662
4.33583
4.1288
3.92477
3.724
3.52587
3.33059
3.1377
2.94751
2.75976
2.57487
2.39284
2.21424
2.03938
1.86898
1.70367
1.54435
1.3919
1.24729
1.11152
0.985429
0.869861
0.765227
0.67189
0.589641
0.518317
0.457202
0.405778
0.363061
0.328378
0.300676
0.279272
0.26317
0.251758
0.244165
0.239878
0.238178
0.238655
0.240744
0.244124
0.248376
0.253249
0.258453
0.263792
0.269083
0.274167
0.278956
0.283312
0.287223
0.29056
0.293376
0.295543
0.297166
0.29811
0.298523
0.298259
0.297502
0.296089
0.294236
0.291762
0.288908
0.285474
0.281723
0.277436
0.272894
0.26786
0.26263
0.256949
0.251126
0.244891
0.238563
0.231857
0.225104
0.218002
0.21089
0.203457
0.196048
0.18834
0.180685
0.172749
0.164891
0.156768
0.148745
0.14047
0.132313
0.123916
0.115651
0.107155
0.098802
0.0902227
0.0817945
0.0731454
0.064659
0.0559619
0.0474524
0.0387524
0.0302389
0.0216372
0.0129421
0.00429178
11.5671
11.567
11.5664
11.5651
11.5634
11.561
11.5582
11.5548
11.5511
11.5469
11.5425
11.5377
11.5327
11.5275
11.5222
11.5167
11.5112
11.5055
11.4999
11.4943
11.4887
11.4831
11.4777
11.4723
11.467
11.4618
11.4568
11.4519
11.4472
11.4426
11.4383
11.434
11.4301
11.4262
11.4227
11.4192
11.4161
11.4131
11.4104
11.4079
11.4058
11.4037
11.402
11.4005
11.3993
11.3983
11.3976
11.397
11.3967
11.3965
11.3966
11.3966
11.3968
11.3969
11.3971
11.3968
11.3964
11.3953
11.3938
11.3911
11.3875
11.382
11.3749
11.3651
11.3526
11.3361
11.3154
11.2889
11.2562
11.2153
11.1655
11.1043
11.0307
10.9418
10.8365
10.7116
10.5665
10.3984
10.2077
9.99307
9.75698
9.50017
9.22739
8.94112
8.64699
8.34761
8.04784
7.74923
7.45523
7.16621
6.88433
6.60912
6.34183
6.08148
5.82877
5.58251
5.34309
5.10925
4.88122
4.65781
4.43916
4.22421
4.01307
3.80483
3.59959
3.39656
3.19583
2.99682
2.79972
2.60419
2.41056
2.21883
2.02956
1.84313
1.66044
1.48235
1.31011
1.14508
0.988798
0.84291
0.708927
0.588302
0.481802
0.389882
0.312129
0.248037
0.196424
0.156308
0.126227
0.105098
0.0914836
0.0843984
0.0825782
0.0852096
0.0912544
0.100081
0.110881
0.123183
0.136386
0.150152
0.164059
0.177864
0.191298
0.204186
0.21638
0.227751
0.238249
0.247769
0.256341
0.263867
0.270442
0.275967
0.280585
0.284187
0.286957
0.28877
0.289843
0.290031
0.289578
0.288319
0.286518
0.283988
0.281012
0.277382
0.273396
0.268824
0.263977
0.258606
0.253033
0.246992
0.240812
0.234211
0.227528
0.220464
0.213366
0.205922
0.198484
0.190729
0.183015
0.175008
0.16707
0.158859
0.150741
0.142366
0.134105
0.125601
0.117226
0.108619
0.100152
0.0914583
0.0829145
0.0741493
0.065546
0.0567318
0.0481049
0.0392875
0.0306565
0.0219371
0.0131245
0.00435723
11.5888
11.5887
11.5879
11.5865
11.5843
11.5815
11.5781
11.5742
11.5698
11.565
11.5599
11.5544
11.5488
11.543
11.5371
11.5311
11.5251
11.5191
11.5132
11.5073
11.5015
11.4959
11.4904
11.4851
11.48
11.4751
11.4704
11.466
11.4618
11.4578
11.4542
11.4508
11.4478
11.4451
11.4427
11.4406
11.439
11.4377
11.4368
11.4363
11.4363
11.4366
11.4376
11.4389
11.4408
11.4432
11.4462
11.4496
11.4537
11.4583
11.4636
11.4693
11.4758
11.4825
11.4901
11.4978
11.5061
11.5145
11.5233
11.5318
11.5404
11.5481
11.5553
11.5609
11.565
11.5663
11.5647
11.5584
11.5469
11.5281
11.5008
11.4621
11.4103
11.3414
11.2533
11.1411
11.0024
10.8326
10.6306
10.3939
10.1252
9.82653
9.50556
9.16802
8.82283
8.47508
8.13132
7.79391
7.46654
7.14939
6.84424
6.55004
6.2675
5.99505
5.73286
5.47923
5.23411
4.99585
4.76433
4.53806
4.3169
4.09955
3.88589
3.67482
3.46625
3.25922
3.05365
2.84879
2.64464
2.44072
2.23721
2.03396
1.83147
1.6301
1.43084
1.23482
1.04374
0.859675
0.685114
0.522915
0.376024
0.247306
0.138224
0.0491167
-0.0210957
-0.0737787
-0.11104
-0.134693
-0.146953
-0.149506
-0.144296
-0.132692
-0.116263
-0.0960369
-0.073213
-0.0485252
-0.0228479
0.00331784
0.0293663
0.054969
0.0797354
0.103458
0.125916
0.146981
0.166563
0.18458
0.201044
0.215895
0.229222
0.240971
0.251288
0.260113
0.267637
0.273783
0.278778
0.282523
0.28527
0.286899
0.287683
0.287475
0.286564
0.28478
0.282425
0.279304
0.27573
0.271485
0.266892
0.261711
0.256273
0.250318
0.244185
0.237595
0.230895
0.223789
0.216628
0.209104
0.201573
0.193713
0.185886
0.177757
0.169693
0.161352
0.153101
0.144591
0.136194
0.127553
0.119041
0.110297
0.101694
0.0928646
0.0841856
0.0752858
0.0665483
0.0576005
0.0488404
0.0398902
0.0311266
0.0222746
0.0133295
0.00443034
11.6136
11.6134
11.6125
11.6106
11.6079
11.6045
11.6003
11.5955
11.5903
11.5845
11.5785
11.5722
11.5657
11.5591
11.5524
11.5458
11.5392
11.5326
11.5263
11.5201
11.5141
11.5082
11.5027
11.4974
11.4924
11.4877
11.4833
11.4792
11.4755
11.4722
11.4692
11.4666
11.4646
11.4628
11.4616
11.4608
11.4606
11.4609
11.4618
11.4632
11.4653
11.4679
11.4714
11.4755
11.4805
11.4861
11.4928
11.5002
11.5087
11.518
11.5286
11.54
11.5527
11.5664
11.5814
11.5974
11.6149
11.6332
11.653
11.6735
11.6953
11.7176
11.7407
11.7639
11.7872
11.8096
11.831
11.8498
11.8655
11.8759
11.8798
11.8738
11.8556
11.82
11.7633
11.6782
11.5589
11.3967
11.1862
10.9213
10.6036
10.2384
9.84049
9.42339
9.00272
8.58755
8.1862
7.80115
7.43542
7.08806
6.75964
6.44794
6.15258
5.87105
5.6027
5.34517
5.09781
4.85852
4.62673
4.40063
4.17978
3.96262
3.74879
3.537
3.32694
3.11748
2.90831
2.69849
2.48777
2.27542
2.06133
1.84504
1.62673
1.40648
1.18511
0.963756
0.744554
0.530525
0.325727
0.135158
-0.0345765
-0.176347
-0.287677
-0.369775
-0.42588
-0.459375
-0.474101
-0.473229
-0.460045
-0.437017
-0.406681
-0.370807
-0.331254
-0.289225
-0.24603
-0.202445
-0.159354
-0.11723
-0.0766296
-0.0378196
-0.00111476
0.0333549
0.0654537
0.0951332
0.122389
0.147216
0.169705
0.189865
0.207858
0.223687
0.237564
0.249477
0.259672
0.268115
0.275076
0.280492
0.284654
0.287468
0.289237
0.289837
0.289584
0.288323
0.286377
0.283563
0.280213
0.276118
0.271613
0.266466
0.261019
0.255017
0.248807
0.242116
0.235293
0.228048
0.220737
0.213052
0.205354
0.197322
0.189319
0.181014
0.172773
0.164254
0.155829
0.147146
0.138578
0.129769
0.121093
0.112186
0.103424
0.094438
0.0856044
0.0765522
0.0676638
0.0585667
0.0496581
0.0405605
0.0316496
0.0226503
0.0135577
0.00451129
11.6422
11.6419
11.6407
11.6383
11.6348
11.6303
11.625
11.6191
11.6125
11.6056
11.5983
11.5908
11.5832
11.5755
11.568
11.5604
11.5531
11.5459
11.539
11.5323
11.5259
11.5198
11.5141
11.5087
11.5038
11.4992
11.495
11.4913
11.488
11.4852
11.4829
11.481
11.4797
11.4789
11.4788
11.4792
11.4804
11.4821
11.4846
11.4878
11.4919
11.4967
11.5026
11.5093
11.5172
11.526
11.5361
11.5473
11.56
11.5739
11.5895
11.6065
11.6253
11.6457
11.6682
11.6925
11.719
11.7474
11.7784
11.8113
11.8469
11.8846
11.9248
11.9671
12.0117
12.0579
12.1059
12.1544
12.2034
12.2508
12.2958
12.3353
12.3667
12.3845
12.3835
12.3535
12.2838
12.1564
11.9524
11.6506
11.2395
10.7455
10.2039
9.65262
9.11848
8.61323
8.14307
7.70728
7.30519
6.93289
6.58815
6.26681
5.96664
5.684
5.41705
5.16277
4.91975
4.68552
4.45899
4.23817
4.02221
3.80947
3.59928
3.39024
3.1818
2.97273
2.76246
2.54988
2.33441
2.11501
1.89109
1.66169
1.42624
1.18399
0.934714
0.678627
0.417258
0.154198
-0.104315
-0.352292
-0.568342
-0.727837
-0.834092
-0.896575
-0.924119
-0.923918
-0.902474
-0.864742
-0.815232
-0.757186
-0.693651
-0.626676
-0.558281
-0.489708
-0.422252
-0.356618
-0.293592
-0.233526
-0.17685
-0.123691
-0.0742291
-0.0284605
0.0136108
0.0520571
0.0869946
0.118522
0.146838
0.172039
0.194377
0.21393
0.230985
0.245591
0.258056
0.268393
0.276925
0.283626
0.288828
0.292466
0.294878
0.295962
0.296059
0.295031
0.293224
0.290466
0.287105
0.282941
0.278324
0.273026
0.267399
0.261194
0.254764
0.247838
0.240774
0.233281
0.22572
0.217785
0.209837
0.201559
0.193314
0.184772
0.1763
0.167557
0.158912
0.150018
0.141244
0.132237
0.123367
0.114274
0.10533
0.0961675
0.0871613
0.0779404
0.0688862
0.0596258
0.0505557
0.0412978
0.0322266
0.0230662
0.0138111
0.00460106
11.6755
11.6752
11.6735
11.6702
11.6654
11.6595
11.6526
11.6449
11.6367
11.628
11.6191
11.61
11.601
11.592
11.5832
11.5746
11.5664
11.5584
11.5508
11.5435
11.5367
11.5302
11.5243
11.5188
11.5138
11.5092
11.5053
11.5018
11.4989
11.4964
11.4947
11.4934
11.4929
11.493
11.4938
11.4953
11.4976
11.5006
11.5046
11.5094
11.5153
11.5221
11.5301
11.5392
11.5497
11.5614
11.5746
11.5893
11.6058
11.624
11.6442
11.6664
11.6909
11.7177
11.7472
11.7793
11.8145
11.8527
11.8945
11.9396
11.9889
12.0419
12.0995
12.1614
12.2283
12.2997
12.3765
12.458
12.5447
12.6356
12.7308
12.8284
12.9273
13.0237
13.1137
13.1883
13.2358
13.23
13.1267
12.847
12.1949
11.3918
10.5582
9.77124
9.06741
8.44588
7.90101
7.4192
6.99241
6.6091
6.26373
5.9478
5.65789
5.38774
5.13532
4.89587
4.66822
4.44869
4.2366
4.02903
3.82563
3.62402
3.42404
3.22365
3.02265
2.81918
2.61302
2.40246
2.18709
1.96522
1.7361
1.49784
1.24912
0.987435
0.710424
0.414449
0.0960285
-0.247078
-0.608122
-0.965485
-1.27756
-1.4503
-1.5263
-1.54249
-1.51669
-1.46123
-1.38541
-1.29577
-1.19761
-1.09456
-0.989781
-0.885305
-0.783013
-0.683975
-0.589264
-0.49936
-0.414809
-0.335734
-0.26233
-0.194517
-0.132261
-0.0753739
-0.0236749
0.023066
0.0651206
0.102719
0.136188
0.165732
0.191708
0.21428
0.233819
0.250441
0.264524
0.276131
0.28564
0.293063
0.298776
0.302742
0.305334
0.306469
0.306516
0.305353
0.303343
0.300327
0.296667
0.292171
0.2872
0.281531
0.275524
0.268934
0.262119
0.25481
0.247369
0.239507
0.231586
0.223301
0.215016
0.206412
0.197855
0.189012
0.180253
0.171235
0.162327
0.153181
0.144168
0.134931
0.125842
0.116539
0.107393
0.098036
0.0888416
0.0794383
0.0702062
0.0607719
0.0515304
0.0421028
0.0328619
0.0235299
0.0140991
0.00470629
11.7155
11.715
11.7125
11.7076
11.7008
11.6925
11.6832
11.673
11.6624
11.6515
11.6404
11.6294
11.6186
11.608
11.5978
11.5879
11.5786
11.5696
11.5612
11.5533
11.5459
11.5391
11.5328
11.5271
11.522
11.5175
11.5136
11.5103
11.5076
11.5056
11.5043
11.5036
11.5037
11.5044
11.5061
11.5085
11.5118
11.516
11.5212
11.5274
11.5348
11.5433
11.5532
11.5643
11.577
11.5912
11.6072
11.6249
11.6447
11.6666
11.6909
11.7176
11.7471
11.7795
11.8153
11.8543
11.8974
11.9443
11.996
12.0523
12.1142
12.1817
12.2556
12.3362
12.4244
12.5206
12.6258
12.7404
12.8658
13.0023
13.1515
13.3136
13.4905
13.6826
13.8924
14.1213
14.3739
14.6552
14.9715
15.3591
15.5023
13.8019
11.9698
10.5004
9.38343
8.51954
7.83127
7.26532
6.78843
6.3773
6.0172
5.69631
5.40696
5.1421
4.89716
4.66748
4.45011
4.24177
4.04047
3.84379
3.65032
3.45816
3.26607
3.07265
2.87721
2.67839
2.47514
2.26607
2.05003
1.82546
1.59083
1.34406
1.08262
0.802774
0.498677
0.159871
-0.234197
-0.723835
-1.3345
-2.27126
-2.4831
-2.50309
-2.45072
-2.3613
-2.24189
-2.10256
-1.9512
-1.79337
-1.63372
-1.47533
-1.3209
-1.17201
-1.03015
-0.895961
-0.770155
-0.652831
-0.544192
-0.444027
-0.352231
-0.26843
-0.192334
-0.12351
-0.0615607
-0.00605633
0.0434552
0.0873643
0.126144
0.160126
0.189785
0.215383
0.237385
0.255983
0.271629
0.284441
0.294857
0.302932
0.309084
0.313311
0.316016
0.317143
0.317083
0.315732
0.313473
0.310158
0.306163
0.301303
0.29595
0.289888
0.283483
0.276492
0.269279
0.261579
0.253755
0.245519
0.237237
0.228603
0.219982
0.211056
0.202191
0.193054
0.184014
0.174728
0.165566
0.156178
0.146934
0.137477
0.128179
0.118676
0.109338
0.0997969
0.0904249
0.0808493
0.0714499
0.0618516
0.0524494
0.0428618
0.0334611
0.0239668
0.0143703
0.00480838
11.765
11.7643
11.7599
11.752
11.7417
11.7297
11.7167
11.7031
11.6892
11.6753
11.6616
11.6482
11.6352
11.6228
11.6109
11.5996
11.589
11.579
11.5697
11.561
11.5531
11.5458
11.5392
11.5333
11.5281
11.5235
11.5197
11.5164
11.514
11.5122
11.5113
11.511
11.5116
11.513
11.5153
11.5184
11.5225
11.5276
11.5339
11.5411
11.5498
11.5596
11.571
11.5837
11.5982
11.6144
11.6326
11.6527
11.6752
11.7
11.7276
11.7579
11.7916
11.8285
11.8694
11.9141
11.9636
12.0179
12.0778
12.1435
12.216
12.2956
12.3835
12.4801
12.5869
12.7045
12.8348
12.9788
13.1387
13.3161
13.514
13.7345
13.982
14.2602
14.5761
14.9375
15.3572
15.8519
16.4513
17.1665
18.1148
17.8458
15.987
14.0151
12.3944
11.0854
10.0138
9.11855
8.35935
7.70615
7.13878
6.64032
6.19891
5.80359
5.44663
5.1204
4.81961
4.53876
4.27404
4.02134
3.77783
3.54029
3.30647
3.07372
2.84009
2.60323
2.36118
2.11156