/*--------------------------------*- C++ -*----------------------------------*\
  =========                 |
  \\      /  F ield         | OpenFOAM: The Open Source CFD Toolbox
   \\    /   O peration     | Website:  https://openfoam.org
    \\  /    A nd           | Version:  11
     \\/     M anipulation  |
\*---------------------------------------------------------------------------*/
FoamFile
{
    format      ascii;
    class       volScalarField;
    location    "45";
    object      p;
}
// * * * * * * * * * * * * * * * * * * * * * * * * * * * * * * * * * * * * * //

dimensions      [0 2 -2 0 0 0 0];

internalField   nonuniform List<scalar> 
2048
(
0.736707
0.734373
0.729672
0.722392
0.712381
0.699484
0.683517
0.664269
0.641545
0.615205
0.585204
0.551639
0.514779
0.475102
0.433293
0.390223
0.346886
0.304299
0.263397
0.224926
0.189405
0.157136
0.128255
0.102775
0.080621
0.0616467
0.0456546
0.0324076
0.0216388
0.0130571
0.00635089
0.00119245
-0.00275785
-0.00584642
-0.00842057
-0.0108212
-0.0133734
-0.0163756
-0.0200865
-0.0247116
-0.0303888
-0.0371756
-0.0450375
-0.0538401
-0.0633469
-0.0732235
-0.0830523
-0.0923545
-0.100622
-0.107364
-0.112139
-0.114616
-0.114578
-0.111965
-0.106876
-0.099565
-0.0903559
-0.0797077
-0.0679665
-0.0557087
-0.0429881
-0.0306411
-0.0178964
-0.00672016
0.739112
0.736807
0.732157
0.724947
0.715013
0.702183
0.686246
0.666968
0.644122
0.617539
0.587152
0.553038
0.515469
0.474948
0.432217
0.388227
0.344065
0.300829
0.25949
0.220788
0.185202
0.152995
0.124265
0.0990019
0.0771076
0.0584209
0.0427338
0.0298043
0.0193632
0.0111179
0.00475488
-5.58729e-05
-0.00365754
-0.00640175
-0.00864324
-0.0107326
-0.0130062
-0.0157749
-0.0193102
-0.0238293
-0.0294801
-0.0363271
-0.0443387
-0.0533788
-0.0632034
-0.0734642
-0.0837232
-0.0934747
-0.102182
-0.109321
-0.114421
-0.117123
-0.117193
-0.114565
-0.109344
-0.1018
-0.0922829
-0.0812847
-0.0691841
-0.056589
-0.0435716
-0.0309925
-0.0180587
-0.0067788
0.743903
0.741655
0.737115
0.73006
0.720298
0.707622
0.691772
0.672455
0.649381
0.622319
0.591149
0.555914
0.516886
0.474615
0.429958
0.384042
0.338163
0.293599
0.251398
0.212266
0.176592
0.144546
0.116156
0.0913561
0.0700054
0.0519109
0.0368466
0.0245624
0.0147856
0.00722083
0.0015521
-0.00255469
-0.00544924
-0.00749354
-0.00905748
-0.0105113
-0.0122148
-0.0145044
-0.0176782
-0.0219784
-0.0275739
-0.0345444
-0.0428656
-0.052398
-0.0628814
-0.0739393
-0.0850915
-0.0957793
-0.105406
-0.113376
-0.119158
-0.122331
-0.122622
-0.119952
-0.114445
-0.106404
-0.0962355
-0.0844977
-0.0716421
-0.0583403
-0.0447125
-0.0316561
-0.0183625
-0.00687304
0.751011
0.74886
0.744508
0.737716
0.72826
0.715871
0.700216
0.680906
0.657545
0.629787
0.597416
0.560422
0.519074
0.474008
0.426259
0.377248
0.32865
0.28205
0.238595
0.198901
0.163191
0.131482
0.103691
0.0796598
0.0591787
0.0420107
0.0279093
0.0166166
0.00785628
0.00133063
-0.00327868
-0.00630936
-0.00811924
-0.0090857
-0.00960242
-0.0100707
-0.0108865
-0.0124271
-0.0150335
-0.0189876
-0.024493
-0.0316551
-0.0404628
-0.0507734
-0.0623044
-0.0746349
-0.0872186
-0.0994116
-0.110514
-0.119818
-0.126698
-0.130632
-0.131276
-0.128524
-0.122529
-0.113658
-0.102411
-0.0894569
-0.0753697
-0.060926
-0.0463308
-0.0325362
-0.0187261
-0.00696444
0.760328
0.758328
0.754267
0.747892
0.738927
0.727029
0.71176
0.692597
0.668982
0.640373
0.606377
0.566858
0.522093
0.47288
0.420548
0.367014
0.314579
0.265267
0.220279
0.180016
0.144443
0.113371
0.0865487
0.0636778
0.0444496
0.0285799
0.0158087
0.00587564
-0.00149668
-0.00660629
-0.00977111
-0.0113304
-0.01165
-0.0111267
-0.0101879
-0.00927939
-0.00884782
-0.00933091
-0.0111323
-0.0145915
-0.0199628
-0.0273911
-0.0368875
-0.0483083
-0.0613421
-0.075508
-0.0901696
-0.104563
-0.117841
-0.129131
-0.137618
-0.142644
-0.143776
-0.140889
-0.134152
-0.124016
-0.111131
-0.0963402
-0.0804091
-0.064275
-0.0482837
-0.0334606
-0.0190062
-0.00697771
0.77169
0.769913
0.766282
0.760531
0.752319
0.741209
0.726626
0.707879
0.684189
0.654722
0.618767
0.57586
0.526208
0.470878
0.411754
0.351751
0.294241
0.241715
0.195175
0.154587
0.119555
0.0896294
0.0643192
0.0431208
0.0256054
0.011455
0.000414878
-0.00776706
-0.0133628
-0.016663
-0.0179762
-0.0176365
-0.0160196
-0.0135467
-0.0106911
-0.00795758
-0.00585717
-0.00491506
-0.00562471
-0.00840483
-0.0135817
-0.0213588
-0.0317817
-0.0447096
-0.0597957
-0.0764798
-0.0939992
-0.111419
-0.127713
-0.141845
-0.152677
-0.159255
-0.16101
-0.157875
-0.150047
-0.138072
-0.122813
-0.105371
-0.0867915
-0.0682527
-0.0503274
-0.034141
-0.0189715
-0.00677993
0.784854
0.783392
0.780374
0.775524
0.768426
0.758537
0.745087
0.727183
0.703747
0.673595
0.635582
0.588546
0.532331
0.468041
0.398584
0.329179
0.265113
0.209123
0.161411
0.12114
0.0874338
0.0594956
0.0364836
0.017622
0.00237721
-0.00956168
-0.0184208
-0.0244318
-0.0278478
-0.0289408
-0.027997
-0.0253084
-0.0212582
-0.0163171
-0.0110173
-0.00593792
-0.00166384
0.0011504
0.0018986
5.89599e-05
-0.00479713
-0.0129588
-0.0245263
-0.0393724
-0.0571144
-0.0770978
-0.0984044
-0.11986
-0.140149
-0.158014
-0.171983
-0.180959
-0.183753
-0.180313
-0.170971
-0.156448
-0.137882
-0.116741
-0.0944728
-0.072603
-0.0520545
-0.0340966
-0.0182315
-0.00614682
0.799482
0.798449
0.796261
0.792667
0.787159
0.779119
0.767483
0.751123
0.728408
0.697805
0.657636
0.605888
0.541804
0.464995
0.380002
0.297032
0.224553
0.164961
0.1168
0.0779917
0.0469741
0.0223537
0.0027127
-0.0130064
-0.0253273
-0.0344828
-0.0406605
-0.0440631
-0.0448991
-0.0434057
-0.0398795
-0.0344787
-0.0275425
-0.0196429
-0.011397
-0.00345249
0.00358241
0.00875974
0.0113979
0.0108726
0.00662815
-0.00173333
-0.0143903
-0.0312549
-0.051933
-0.0756989
-0.101482
-0.127899
-0.153308
-0.175919
-0.194034
-0.206007
-0.21084
-0.207574
-0.196666
-0.179118
-0.156409
-0.130489
-0.103351
-0.0770426
-0.0530018
-0.0327361
-0.0162325
-0.00466526
0.815124
0.814643
0.813525
0.811595
0.808256
0.802932
0.794141
0.780637
0.759536
0.728942
0.685597
0.627419
0.553659
0.45927
0.352019
0.251136
0.168792
0.105922
0.0587804
0.0236864
-0.00207175
-0.0211535
-0.0359277
-0.0475587
-0.0562649
-0.0620931
-0.065183
-0.065686
-0.0637136
-0.0594127
-0.053221
-0.0450035
-0.0350732
-0.0240672
-0.0127212
-0.00194205
0.00822172
0.0160949
0.0209766
0.0221571
0.0189668
0.0109126
-0.00225607
-0.0205016
-0.0434564
-0.0703855
-0.100166
-0.131292
-0.161897
-0.189808
-0.212904
-0.228464
-0.236679
-0.234831
-0.223312
-0.203292
-0.17654
-0.145526
-0.112854
-0.0812854
-0.0529544
-0.0298175
-0.0126988
-0.00207909
0.831217
0.831403
0.831581
0.831723
0.831161
0.829574
0.825017
0.816627
0.799359
0.771223
0.722927
0.653728
0.560225
0.434813
0.297831
0.179786
0.0913933
0.0294116
-0.0120738
-0.0384158
-0.0541006
-0.0642335
-0.0723507
-0.0790976
-0.0839301
-0.0865653
-0.0869846
-0.0851755
-0.0811016
-0.0748688
-0.0662982
-0.0558034
-0.0436153
-0.0302555
-0.0163277
-0.00248913
0.00949016
0.019426
0.0263257
0.0292255
0.0273561
0.0201618
0.00735506
-0.0110655
-0.0347852
-0.063133
-0.0950398
-0.129011
-0.163144
-0.195211
-0.222807
-0.243729
-0.25419
-0.254693
-0.24409
-0.223169
-0.193796
-0.158789
-0.121235
-0.0846524
-0.0519143
-0.0257281
-0.00792874
0.00134795
0.847094
0.848024
0.849681
0.852208
0.854958
0.858005
0.859192
0.858669
0.849422
0.830966
0.781751
0.700638
0.557207
0.369167
0.199938
0.079805
0.000865895
-0.0485144
-0.0757464
-0.0870819
-0.0885828
-0.0888627
-0.0910048
-0.0938368
-0.0961371
-0.0973168
-0.096969
-0.0947449
-0.0902782
-0.0837992
-0.0751239
-0.0643707
-0.0518373
-0.0380094
-0.0235258
-0.00923325
0.00377607
0.0146941
0.0226734
0.0267906
0.0263343
0.0206755
0.00943199
-0.00752889
-0.0300468
-0.0576105
-0.0892968
-0.123728
-0.15906
-0.193021
-0.223006
-0.24629
-0.26022
-0.263087
-0.254294
-0.234045
-0.203999
-0.16703
-0.126427
-0.0862882
-0.0500418
-0.0213813
-0.00297427
0.00469155
0.862012
0.863707
0.86694
0.871981
0.878385
0.886516
0.894646
0.903798
0.907467
0.908132
0.87718
0.815014
0.603784
0.302448
0.104493
0.00132871
-0.0548647
-0.0865612
-0.101672
-0.103744
-0.0974669
-0.0948289
-0.0952508
-0.0962649
-0.0972592
-0.0978346
-0.0974552
-0.0956051
-0.0922443
-0.0868977
-0.0794664
-0.070041
-0.0588691
-0.0463771
-0.0331441
-0.0199164
-0.00755152
0.00311075
0.0112655
0.0161638
0.0169708
0.0130551
0.00395146
-0.0105981
-0.030583
-0.0556597
-0.0850835
-0.117652
-0.151662
-0.184933
-0.214905
-0.238869
-0.254234
-0.259053
-0.252102
-0.233555
-0.204678
-0.168073
-0.126941
-0.085497
-0.0474628
-0.0172776
0.00173097
0.00783794
0.875192
0.877617
0.882386
0.889854
0.899904
0.913037
0.928454
0.947324
0.966156
0.988523
0.998363
1.01163
0.877226
0.379006
0.121071
-0.00111272
-0.0584519
-0.0842004
-0.095974
-0.100281
-0.0937742
-0.0911404
-0.0918326
-0.0929601
-0.0942655
-0.0952192
-0.0953655
-0.0943061
-0.0918404
-0.0877627
-0.0819716
-0.0745031
-0.0655317
-0.0553704
-0.0444636
-0.0333896
-0.0228104
-0.0134202
-0.00595293
-0.00102534
0.000590117
-0.0017116
-0.00842742
-0.0198909
-0.0362135
-0.0572184
-0.0823685
-0.110699
-0.140768
-0.170645
-0.198014
-0.220381
-0.235326
-0.240868
-0.235738
-0.219623
-0.193567
-0.159653
-0.120715
-0.0806497
-0.0432204
-0.0131987
0.00561566
0.0101647
0.885889
0.888952
0.895046
0.904643
0.917867
0.935465
0.957275
0.984878
1.01678
1.05637
1.09513
1.13838
1.09163
0.639318
0.35112
0.171429
0.0568544
-0.0134844
-0.0561136
-0.0851136
-0.0903011
-0.0875293
-0.0887578
-0.0896636
-0.0907844
-0.0917191
-0.0920949
-0.0916289
-0.0901495
-0.0875211
-0.083631
-0.0784854
-0.0721914
-0.0649547
-0.0570776
-0.0489498
-0.0410287
-0.0338059
-0.027809
-0.0235877
-0.0216802
-0.0225981
-0.0267946
-0.0346238
-0.0462886
-0.0617763
-0.0807859
-0.102654
-0.126293
-0.150171
-0.172424
-0.190901
-0.203496
-0.208451
-0.204576
-0.191359
-0.169411
-0.140332
-0.10641
-0.0708231
-0.036956
-0.00924962
0.00842884
0.0114936
0.893465
0.897004
0.904072
0.915261
0.930822
0.951803
0.978235
1.01238
1.05255
1.10354
1.15427
1.21492
1.18899
0.732057
0.427955
0.230423
0.0991223
0.0149809
-0.0387616
-0.0791283
-0.0872101
-0.0838093
-0.0850958
-0.0858631
-0.0868683
-0.0878435
-0.0884794
-0.0886561
-0.088227
-0.0870926
-0.0851971
-0.0825423
-0.0791864
-0.0752437
-0.0708771
-0.066283
-0.0616921
-0.0573493
-0.0534988
-0.0505703
-0.0487955
-0.0485096
-0.0500572
-0.0537672
-0.059911
-0.0686438
-0.0799327
-0.0934763
-0.108632
-0.124386
-0.139391
-0.152034
-0.160666
-0.163833
-0.160463
-0.150499
-0.133722
-0.111276
-0.0847787
-0.0564759
-0.0290703
-0.00625965
0.00823229
0.0100677
0.897457
0.901246
0.908838
0.920869
0.937698
0.960451
0.989386
1.02675
1.07123
1.12688
1.18351
1.24899
1.23296
0.790494
0.484164
0.275212
0.13097
0.0358043
-0.0263433
-0.0745156
-0.0844886
-0.0806304
-0.0818512
-0.0824537
-0.0833294
-0.0842779
-0.0852245
-0.0860091
-0.086588
-0.0869365
-0.0870502
-0.0869445
-0.0866482
-0.0861951
-0.085613
-0.084914
-0.0840888
-0.0830997
-0.0818378
-0.0806178
-0.0792483
-0.0778514
-0.0766146
-0.0758094
-0.0757657
-0.076819
-0.0792394
-0.0831411
-0.0883966
-0.094581
-0.100959
-0.106547
-0.110246
-0.111007
-0.108034
-0.101088
-0.0900719
-0.0754408
-0.0581051
-0.0393652
-0.02093
-0.00525883
0.00469694
0.00562555
0.897611
0.901403
0.909
0.921039
0.937879
0.960646
0.9896
1.02699
1.07149
1.12718
1.18385
1.24936
1.23342
0.791158
0.48504
0.276292
0.13225
0.0372686
-0.0247072
-0.0727804
-0.0825381
-0.0785436
-0.0795307
-0.0798861
-0.0805886
-0.0815186
-0.0826446
-0.0839521
-0.0854689
-0.0872388
-0.0893088
-0.0917149
-0.0944655
-0.0975251
-0.100799
-0.104119
-0.107241
-0.109834
-0.111491
-0.111994
-0.111096
-0.108579
-0.104423
-0.0988271
-0.0921873
-0.0850466
-0.0780157
-0.0716663
-0.0664239
-0.0624815
-0.0597508
-0.0578852
-0.0563481
-0.0545218
-0.0518506
-0.0480116
-0.0428096
-0.0363631
-0.0289839
-0.021117
-0.0132511
-0.00611185
-0.000914012
0.000943368
0.893926
0.897472
0.904555
0.915767
0.931361
0.952384
0.978871
1.01308
1.05334
1.10442
1.15527
1.21605
1.19036
0.734026
0.43058
0.233689
0.103001
0.0194122
-0.0338233
-0.0738392
-0.0813267
-0.0775178
-0.0780785
-0.0780903
-0.0785538
-0.0793952
-0.080657
-0.0824251
-0.0848068
-0.0879111
-0.0918323
-0.096627
-0.102289
-0.108722
-0.115715
-0.122925
-0.129873
-0.135961
-0.140547
-0.142579
-0.142078
-0.138342
-0.131146
-0.120629
-0.107285
-0.0919005
-0.0754648
-0.0590324
-0.0435802
-0.0298915
-0.0184759
-0.00955751
-0.00310204
0.0011309
0.00349327
0.00438593
0.00399676
0.00255724
0.000219932
-0.0027142
-0.00553029
-0.00711072
-0.00654224
-0.00333224
0.886649
0.889723
0.895841
0.905476
0.918752
0.936419
0.958319
0.986031
1.01806
1.05781
1.09678
1.14024
1.09394
0.642622
0.355455
0.176784
0.0632049
-0.00621134
-0.0479829
-0.0762418
-0.0805714
-0.077016
-0.0769512
-0.0765541
-0.0767444
-0.0774705
-0.0788543
-0.0810615
-0.0842646
-0.0886247
-0.0942709
-0.101273
-0.109606
-0.119117
-0.129486
-0.140198
-0.150535
-0.159609
-0.166401
-0.169988
-0.169616
-0.164422
-0.154063
-0.138671
-0.118881
-0.0957554
-0.0706751
-0.0451599
-0.0206886
0.00145076
0.0202714
0.0351135
0.0456321
0.0517783
0.0537405
0.0519278
0.0465436
0.0381614
0.0273517
0.0150695
0.00294189
-0.00650592
-0.0107893
-0.00755253
0.876239
0.87868
0.88348
0.890998
0.901117
0.914342
0.929878
0.948894
0.967914
0.990495
1.00063
1.01418
0.880336
0.383519
0.127161
0.00660572
-0.0491563
-0.0735332
-0.0841614
-0.0871537
-0.0804942
-0.0765943
-0.0753452
-0.0746021
-0.074527
-0.0751848
-0.0767579
-0.07946
-0.0835017
-0.0890734
-0.0963194
-0.105305
-0.115978
-0.128117
-0.141297
-0.154841
-0.167802
-0.17904
-0.187236
-0.191654
-0.190671
-0.183551
-0.169895
-0.149902
-0.124381
-0.0946707
-0.0624934
-0.029757
0.00166582
0.0301207
0.0543057
0.0733058
0.0865581
0.0938227
0.09517
0.0909441
0.0815375
0.0677316
0.0504552
0.0312242
0.0121552
-0.00315849
-0.0117244
-0.0111919
0.86333
0.865044
0.868315
0.873415
0.879903
0.888144
0.896417
0.905742
0.909638
0.910568
0.879985
0.818295
0.607896
0.30788
0.111552
0.0100999
-0.0444808
-0.0747002
-0.0884516
-0.0892604
-0.0818015
-0.0769404
-0.0746227
-0.0730864
-0.0724057
-0.0728593
-0.0745949
-0.0777872
-0.0826403
-0.0893337
-0.097989
-0.108634
-0.121156
-0.135255
-0.150403
-0.165766
-0.180177
-0.192303
-0.200932
-0.204462
-0.201903
-0.192332
-0.175413
-0.151493
-0.121564
-0.0871672
-0.0502352
-0.012889
0.0227785
0.054901
0.081997
0.103036
0.117399
0.124799
0.125227
0.119033
0.106759
0.0893266
0.067921
0.044485
0.0213166
0.00216699
-0.0097202
-0.0106053
0.848665
0.849616
0.851315
0.853909
0.856753
0.859923
0.861268
0.860941
0.851941
0.83379
0.784973
0.704388
0.56168
0.374596
0.206587
0.0878558
0.0103995
-0.0374352
-0.0630819
-0.0726938
-0.0720576
-0.069499
-0.0685406
-0.0686741
-0.0693638
-0.0707634
-0.0732629
-0.0772247
-0.082932
-0.090587
-0.100297
-0.112045
-0.125645
-0.140691
-0.156547
-0.172274
-0.186449
-0.197674
-0.204784
-0.206376
-0.201344
-0.189005
-0.169283
-0.142733
-0.110493
-0.0741681
-0.035658
0.00301157
0.0398428
0.0729867
0.10086
0.122281
0.136528
0.143337
0.142684
0.135053
0.121068
0.101845
0.0786552
0.0536959
0.0291798
0.00870041
-0.00445754
-0.00786308
0.833019
0.833227
0.833451
0.833665
0.833203
0.831747
0.827356
0.819173
0.802159
0.774339
0.72643
0.657709
0.564796
0.440093
0.303979
0.186973
0.0997605
0.0390897
-0.000921118
-0.0255472
-0.0391849
-0.0469774
-0.0528583
-0.0578471
-0.0619803
-0.0657514
-0.0699656
-0.0753039
-0.0821928
-0.0908578
-0.10137
-0.113653
-0.127446
-0.142261
-0.157411
-0.172151
-0.1839
-0.192938
-0.197469
-0.196346
-0.188771
-0.174384
-0.153336
-0.126309
-0.0944523
-0.0592732
-0.0224865
0.014125
0.0488391
0.0800992
0.106575
0.127185
0.141162
0.14806
0.147224
0.13933
0.12499
0.105583
0.0824816
0.0579454
0.0340577
0.0138869
0.000465425
-0.00494608
0.817133
0.816676
0.815605
0.81375
0.810513
0.805324
0.796701
0.783404
0.762555
0.732261
0.689274
0.631514
0.558247
0.464426
0.35783
0.257713
0.176241
0.114332
0.0682443
0.0343085
0.00979049
-0.0080653
-0.0218684
-0.0331388
-0.0426029
-0.050936
-0.0589223
-0.0672502
-0.076384
-0.0865766
-0.0979064
-0.110293
-0.123473
-0.136921
-0.149938
-0.161508
-0.171486
-0.177783
-0.179638
-0.17636
-0.167428
-0.15269
-0.132415
-0.107282
-0.0783098
-0.0467646
-0.0140575
0.0183714
0.0491279
0.0769178
0.100517
0.118962
0.131781
0.13818
0.137961
0.131174
0.118543
0.101188
0.0802654
0.0578728
0.0359736
0.0171253
0.00393304
-0.00272602
0.801674
0.800665
0.798525
0.795006
0.789601
0.781695
0.770224
0.754065
0.73159
0.701265
0.661418
0.610033
0.546357
0.469998
0.385496
0.303063
0.23116
0.172163
0.124588
0.0863259
0.0557599
0.0313973
0.0116269
-0.00491999
-0.0191677
-0.0317973
-0.0434375
-0.0546554
-0.0658773
-0.0773615
-0.0891953
-0.101314
-0.113497
-0.125308
-0.136311
-0.145885
-0.153425
-0.157435
-0.157467
-0.153158
-0.144171
-0.130444
-0.112272
-0.0902534
-0.0652285
-0.0382095
-0.010314
0.0173061
0.0435191
0.0672499
0.0876179
0.104062
0.115666
0.121712
0.121873
0.116547
0.1062
0.0916905
0.0740307
0.0549454
0.0360631
0.0194055
0.00689984
-0.00057565
0.787206
0.785767
0.782796
0.778021
0.771024
0.761264
0.747974
0.73026
0.707048
0.677149
0.639419
0.592693
0.536808
0.47286
0.403747
0.334679
0.270928
0.215204
0.167669
0.127437
0.0935626
0.0651451
0.0411728
0.0206252
0.00267679
-0.0132894
-0.027788
-0.0412787
-0.054133
-0.0665969
-0.0787716
-0.0906227
-0.101992
-0.11258
-0.122059
-0.129923
-0.135501
-0.137984
-0.137053
-0.132474
-0.12404
-0.111754
-0.0958935
-0.0769635
-0.0556415
-0.0327365
-0.00914429
0.0142086
0.0364192
0.0566581
0.0742161
0.0884281
0.0986233
0.104137
0.104959
0.101305
0.0934412
0.0820299
0.0678949
0.0523475
0.0365919
0.0222464
0.0103395
0.00210372
0.774177
0.772422
0.768838
0.763158
0.755045
0.744059
0.729628
0.711059
0.687574
0.658335
0.622627
0.579977
0.530585
0.475503
0.416598
0.356767
0.299358
0.246829
0.200135
0.159185
0.123509
0.0925515
0.06568
0.042208
0.0214998
0.00302998
-0.0136407
-0.0288953
-0.04305
-0.0563257
-0.0688285
-0.0805508
-0.0913813
-0.101106
-0.109432
-0.115965
-0.12025
-0.121837
-0.120449
-0.115914
-0.108135
-0.0971725
-0.0832838
-0.0668975
-0.0485763
-0.0289837
-0.00884576
0.0110906
0.0300936
0.0474753
0.0626109
0.0748966
0.0838366
0.0891101
0.0906093
0.0883835
0.0826573
0.0739348
0.0628306
0.0503214
0.0371813
0.0247569
0.0132182
0.00432428
0.762926
0.760948
0.756931
0.750626
0.741755
0.729976
0.71485
0.695854
0.672425
0.64402
0.610237
0.570931
0.526365
0.477321
0.425105
0.371609
0.319104
0.269573
0.224169
0.183232
0.146651
0.114141
0.0853335
0.0597953
0.0370704
0.016735
-0.00158277
-0.0182052
-0.0333975
-0.0473513
-0.0601691
-0.0718603
-0.082346
-0.0914657
-0.0989921
-0.104657
-0.108168
-0.10922
-0.107595
-0.103187
-0.0959867
-0.0860959
-0.0737564
-0.0593432
-0.043336
-0.0262898
-0.00880632
0.00849391
0.0249967
0.0401183
0.0533445
0.0642112
0.0723336
0.0774373
0.0793838
0.078201
0.0740641
0.0673469
0.0584775
0.0482088
0.0369662
0.0259266
0.0146983
0.00546505
0.753695
0.751566
0.747257
0.740533
0.731167
0.718892
0.703372
0.684217
0.661027
0.633451
0.601265
0.564445
0.523247
0.478285
0.430569
0.381491
0.332688
0.285703
0.241632
0.201028
0.164041
0.130604
0.100538
0.0735793
0.0494144
0.027715
0.00817385
-0.00947988
-0.0254703
-0.0399629
-0.0530538
-0.0647642
-0.075043
-0.0837774
-0.0908042
-0.0959319
-0.0989544
-0.0996658
-0.0979192
-0.0936661
-0.0869457
-0.0778866
-0.0667218
-0.0537879
-0.0395046
-0.0243511
-0.00884228
0.00649271
0.0211378
0.0346041
0.0464386
0.056257
0.0637518
0.0686799
0.0709071
0.070446
0.0674112
0.0620861
0.0547555
0.0460291
0.0360985
0.026037
0.015187
0.00591559
0.746652
0.744425
0.739928
0.732937
0.723263
0.710696
0.694975
0.675803
0.652888
0.625992
0.594983
0.559893
0.520976
0.47876
0.434073
0.388011
0.341829
0.296759
0.253797
0.213588
0.176452
0.14248
0.111621
0.0837267
0.0585801
0.035931
0.0155276
-0.00286021
-0.0194264
-0.0343176
-0.0476244
-0.0593769
-0.0695459
-0.0780519
-0.0847732
-0.0895657
-0.092283
-0.092791
-0.0909997
-0.0868957
-0.0805456
-0.0720945
-0.0617715
-0.0498879
-0.0368232
-0.0230048
-0.00888654
0.0050685
0.0184082
0.0307019
0.0415519
0.0506266
0.0576612
0.0624435
0.0648455
0.0648589
0.0625507
0.0581459
0.0518322
0.0441269
0.0350859
0.0257098
0.0152381
0.00604797
0.741905
0.739619
0.735011
0.727865
0.718016
0.705291
0.689479
0.67034
0.647644
0.621214
0.590973
0.556984
0.5195
0.479
0.436197
0.392009
0.347479
0.303659
0.261467
0.22158
0.184414
0.150158
0.118842
0.0903845
0.064632
0.0413868
0.0204368
0.00157985
-0.0153583
-0.0305122
-0.0439687
-0.0557629
-0.0658789
-0.0742566
-0.0808009
-0.0854001
-0.0879456
-0.0883457
-0.0865455
-0.0825536
-0.0764526
-0.0683975
-0.058616
-0.0474045
-0.0351172
-0.0221487
-0.00891538
0.00415953
0.0166631
0.0282042
0.03843
0.047036
0.0537743
0.058454
0.0609524
0.0612479
0.0593777
0.0555306
0.0498351
0.0427523
0.034267
0.0253268
0.015142
0.00604584
0.73952
0.737207
0.732546
0.72533
0.715402
0.702609
0.686763
0.667652
0.645074
0.61888
0.589018
0.555566
0.518778
0.479106
0.437205
0.39391
0.350173
0.306965
0.265163
0.225456
0.188297
0.153921
0.122397
0.0936768
0.0676369
0.0441055
0.0228912
0.0038061
-0.0133143
-0.0285987
-0.0421318
-0.0539506
-0.0640452
-0.0723649
-0.0788287
-0.0833415
-0.0858114
-0.0861655
-0.084366
-0.0804331
-0.0744567
-0.0665968
-0.0570802
-0.0461966
-0.0342879
-0.0217332
-0.00893123
0.00371443
0.0158115
0.0269893
0.0369136
0.0452906
0.0518829
0.0565093
0.0590494
0.0594764
0.0578124
0.0542282
0.0488254
0.0420367
0.0338197
0.0250883
0.0150616
0.00601829
)
;

boundaryField
{
    inlet
    {
        type            zeroGradient;
    }
    outlet
    {
        type            fixedValue;
        value           uniform 0;
    }
    top
    {
        type            symmetryPlane;
    }
    bottom
    {
        type            symmetryPlane;
    }
    frontAndBack
    {
        type            empty;
    }
}


// ************************************************************************* //
