/*--------------------------------*- C++ -*----------------------------------*\
  =========                 |
  \\      /  F ield         | OpenFOAM: The Open Source CFD Toolbox
   \\    /   O peration     | Website:  https://openfoam.org
    \\  /    A nd           | Version:  10
     \\/     M anipulation  |
\*---------------------------------------------------------------------------*/
FoamFile
{
    format      ascii;
    class       volVectorField;
    location    "68";
    object      Ub;
}
// * * * * * * * * * * * * * * * * * * * * * * * * * * * * * * * * * * * * * //

dimensions      [0 1 -1 0 0 0 0];

internalField   nonuniform List<vector> 
100
(
(2.18262e-07 0 0)
(6.57681e-07 0 0)
(1.10544e-06 0 0)
(1.56128e-06 0 0)
(2.02132e-06 0 0)
(2.48389e-06 0 0)
(2.94815e-06 0 0)
(3.41358e-06 0 0)
(3.87988e-06 0 0)
(4.34684e-06 0 0)
(4.81431e-06 0 0)
(5.28221e-06 0 0)
(5.75047e-06 0 0)
(6.21905e-06 0 0)
(6.68792e-06 0 0)
(7.15706e-06 0 0)
(7.62646e-06 0 0)
(8.09611e-06 0 0)
(8.56602e-06 0 0)
(9.03618e-06 0 0)
(9.50661e-06 0 0)
(9.97731e-06 0 0)
(1.04483e-05 0 0)
(1.09196e-05 0 0)
(1.13911e-05 0 0)
(1.1863e-05 0 0)
(1.23352e-05 0 0)
(1.28078e-05 0 0)
(1.32807e-05 0 0)
(1.3754e-05 0 0)
(1.42276e-05 0 0)
(1.47017e-05 0 0)
(1.51761e-05 0 0)
(1.5651e-05 0 0)
(1.61263e-05 0 0)
(1.66021e-05 0 0)
(1.70783e-05 0 0)
(1.7555e-05 0 0)
(1.80322e-05 0 0)
(1.851e-05 0 0)
(1.89882e-05 0 0)
(1.9467e-05 0 0)
(1.99464e-05 0 0)
(2.04263e-05 0 0)
(2.09068e-05 0 0)
(2.13879e-05 0 0)
(2.18697e-05 0 0)
(2.23521e-05 0 0)
(2.28351e-05 0 0)
(2.33188e-05 0 0)
(2.38032e-05 0 0)
(2.42883e-05 0 0)
(2.47741e-05 0 0)
(2.52607e-05 0 0)
(2.5748e-05 0 0)
(2.62361e-05 0 0)
(2.6725e-05 0 0)
(2.72147e-05 0 0)
(2.77052e-05 0 0)
(2.81966e-05 0 0)
(2.86889e-05 0 0)
(2.91821e-05 0 0)
(2.96762e-05 0 0)
(3.01712e-05 0 0)
(3.06672e-05 0 0)
(3.11642e-05 0 0)
(3.16623e-05 0 0)
(3.21614e-05 0 0)
(3.26615e-05 0 0)
(3.31628e-05 0 0)
(3.36652e-05 0 0)
(3.41688e-05 0 0)
(3.46736e-05 0 0)
(3.51796e-05 0 0)
(3.56869e-05 0 0)
(3.61955e-05 0 0)
(3.67055e-05 0 0)
(3.72169e-05 0 0)
(3.77298e-05 0 0)
(3.82441e-05 0 0)
(3.87601e-05 0 0)
(3.92776e-05 0 0)
(3.97968e-05 0 0)
(4.03178e-05 0 0)
(4.08406e-05 0 0)
(4.13653e-05 0 0)
(4.18919e-05 0 0)
(4.24207e-05 0 0)
(4.29516e-05 0 0)
(4.34847e-05 0 0)
(4.40203e-05 0 0)
(4.45584e-05 0 0)
(4.50991e-05 0 0)
(4.56426e-05 0 0)
(4.61891e-05 0 0)
(4.67388e-05 0 0)
(4.72918e-05 0 0)
(4.78484e-05 0 0)
(4.84089e-05 0 0)
(4.89734e-05 0 0)
)
;

boundaryField
{
    inlet
    {
        type            fixedValue;
        value           uniform (0 0 0);
    }
    outlet
    {
        type            zeroGradient;
    }
    yzfaces
    {
        type            empty;
    }
}


// ************************************************************************* //
