/*--------------------------------*- C++ -*----------------------------------*\
  =========                 |
  \\      /  F ield         | OpenFOAM: The Open Source CFD Toolbox
   \\    /   O peration     | Website:  https://openfoam.org
    \\  /    A nd           | Version:  10
     \\/     M anipulation  |
\*---------------------------------------------------------------------------*/
FoamFile
{
    format      ascii;
    class       volVectorField;
    location    "19250";
    object      Ua;
}
// * * * * * * * * * * * * * * * * * * * * * * * * * * * * * * * * * * * * * //

dimensions      [0 1 -1 0 0 0 0];

internalField   nonuniform List<vector> 
3200
(
(-5.42054e-07 7.82815e-07 0)
(-1.63684e-06 8.12556e-07 0)
(-2.77438e-06 8.75114e-07 0)
(-4.00186e-06 9.78947e-07 0)
(-5.37995e-06 1.14034e-06 0)
(-6.99523e-06 1.38873e-06 0)
(-8.98146e-06 1.7776e-06 0)
(-1.15594e-05 2.40669e-06 0)
(-1.51143e-05 3.46845e-06 0)
(-2.03529e-05 5.34702e-06 0)
(-2.86287e-05 8.83329e-06 0)
(-4.26324e-05 1.55989e-05 0)
(-3.6143e-05 2.49036e-05 0)
(-1.1787e-05 5.34727e-05 0)
(-2.02532e-06 1.05686e-05 0)
(-9.803e-07 5.435e-06 0)
(-5.86958e-07 3.44606e-06 0)
(-3.8981e-07 2.41262e-06 0)
(-2.76419e-07 1.79583e-06 0)
(-2.05367e-07 1.39532e-06 0)
(-1.58076e-07 1.11956e-06 0)
(-1.25133e-07 9.21241e-07 0)
(-1.01343e-07 7.73651e-07 0)
(-8.36519e-08 6.6073e-07 0)
(-7.01701e-08 5.72334e-07 0)
(-5.96813e-08 5.01783e-07 0)
(-5.13748e-08 4.44535e-07 0)
(-4.47083e-08 3.9741e-07 0)
(-3.91752e-08 3.53895e-07 0)
(-3.43547e-08 3.16142e-07 0)
(-3.029e-08 2.86106e-07 0)
(-2.70272e-08 2.61683e-07 0)
(-2.43239e-08 2.41441e-07 0)
(-2.19632e-08 2.24311e-07 0)
(-1.97474e-08 2.09426e-07 0)
(-1.74799e-08 1.96003e-07 0)
(-1.4951e-08 1.83356e-07 0)
(-1.19096e-08 1.70948e-07 0)
(-7.99266e-09 1.58162e-07 0)
(-2.98906e-09 1.43459e-07 0)
(-4.98722e-07 2.28587e-06 0)
(-1.50073e-06 2.36497e-06 0)
(-2.52484e-06 2.52961e-06 0)
(-3.59708e-06 2.79782e-06 0)
(-4.74336e-06 3.20308e-06 0)
(-5.98742e-06 3.80211e-06 0)
(-7.34248e-06 4.68932e-06 0)
(-8.78771e-06 6.02258e-06 0)
(-1.02071e-05 8.06907e-06 0)
(-1.1237e-05 1.1287e-05 0)
(-1.08933e-05 1.64701e-05 0)
(-6.67051e-06 2.50005e-05 0)
(5.16601e-06 3.49061e-05 0)
(1.27919e-05 1.29395e-05 0)
(1.03226e-05 6.52166e-06 0)
(7.16661e-06 4.77213e-06 0)
(4.69625e-06 3.79895e-06 0)
(2.63714e-06 3.22517e-06 0)
(7.85983e-07 2.90314e-06 0)
(-1.00527e-06 2.76887e-06 0)
(-2.86473e-06 2.80503e-06 0)
(-4.93011e-06 3.03148e-06 0)
(-7.37973e-06 3.51067e-06 0)
(-1.04752e-05 4.3681e-06 0)
(-1.46304e-05 5.83499e-06 0)
(-2.05292e-05 8.3293e-06 0)
(-2.93357e-05 1.26064e-05 0)
(-3.68803e-05 1.94717e-05 0)
(-2.11896e-05 8.74411e-06 0)
(-2.39217e-06 1.2289e-06 0)
(-1.22362e-06 9.67181e-07 0)
(-7.8426e-07 8.294e-07 0)
(-5.50379e-07 7.25223e-07 0)
(-4.07018e-07 6.39022e-07 0)
(-3.11364e-07 5.64147e-07 0)
(-2.42843e-07 4.95652e-07 0)
(-1.89279e-07 4.28594e-07 0)
(-1.41123e-07 3.57062e-07 0)
(-8.72705e-08 2.7239e-07 0)
(-2.88921e-08 1.86319e-07 0)
(-4.26798e-07 3.62247e-06 0)
(-1.27741e-06 3.72787e-06 0)
(-2.12528e-06 3.94355e-06 0)
(-2.97414e-06 4.28483e-06 0)
(-3.82007e-06 4.77847e-06 0)
(-4.64533e-06 5.46463e-06 0)
(-5.4075e-06 6.3987e-06 0)
(-6.02148e-06 7.65037e-06 0)
(-6.33272e-06 9.2933e-06 0)
(-6.08636e-06 1.13687e-05 0)
(-4.92069e-06 1.37831e-05 0)
(-2.48847e-06 1.60495e-05 0)
(9.76745e-07 1.66661e-05 0)
(3.50303e-06 1.30343e-05 0)
(4.01487e-06 1.00506e-05 0)
(3.4812e-06 8.13628e-06 0)
(2.53568e-06 6.93017e-06 0)
(1.43648e-06 6.20785e-06 0)
(2.81745e-07 5.84458e-06 0)
(-8.94471e-07 5.78169e-06 0)
(-2.07824e-06 6.00902e-06 0)
(-3.24985e-06 6.55975e-06 0)
(-4.35773e-06 7.51493e-06 0)
(-5.27705e-06 9.01802e-06 0)
(-5.73214e-06 1.13014e-05 0)
(-5.14575e-06 1.4729e-05 0)
(-2.34582e-06 1.98619e-05 0)
(4.75911e-06 2.69889e-05 0)
(1.06914e-05 1.48173e-05 0)
(1.02082e-05 5.6728e-06 0)
(7.63102e-06 4.4005e-06 0)
(5.62592e-06 3.6219e-06 0)
(3.99567e-06 3.10441e-06 0)
(2.59818e-06 2.75474e-06 0)
(1.33553e-06 2.52687e-06 0)
(1.30935e-07 2.40247e-06 0)
(-1.0899e-06 2.38583e-06 0)
(-2.13219e-06 2.41533e-06 0)
(-1.40239e-06 6.76724e-07 0)
(-8.54133e-08 1.64194e-07 0)
(-3.45158e-07 4.7373e-06 0)
(-1.02727e-06 4.84625e-06 0)
(-1.68972e-06 5.06518e-06 0)
(-2.32322e-06 5.40111e-06 0)
(-2.91134e-06 5.86578e-06 0)
(-3.42661e-06 6.47369e-06 0)
(-3.82618e-06 7.23807e-06 0)
(-4.04793e-06 8.16277e-06 0)
(-4.0104e-06 9.22739e-06 0)
(-3.62324e-06 1.03622e-05 0)
(-2.82088e-06 1.14127e-05 0)
(-1.63378e-06 1.2107e-05 0)
(-2.91067e-07 1.20852e-05 0)
(7.65431e-07 1.11783e-05 0)
(1.26825e-06 1.00606e-05 0)
(1.29523e-06 9.08144e-06 0)
(1.00349e-06 8.3426e-06 0)
(5.22575e-07 7.85699e-06 0)
(-5.61845e-08 7.61315e-06 0)
(-6.67178e-07 7.59924e-06 0)
(-1.25555e-06 7.81054e-06 0)
(-1.76388e-06 8.24966e-06 0)
(-2.12055e-06 8.92176e-06 0)
(-2.2306e-06 9.82324e-06 0)
(-1.9729e-06 1.09184e-05 0)
(-1.21589e-06 1.20933e-05 0)
(1.18913e-07 1.30661e-05 0)
(1.87983e-06 1.32174e-05 0)
(3.2975e-06 1.13765e-05 0)
(3.7577e-06 9.2307e-06 0)
(3.50829e-06 7.73612e-06 0)
(2.93431e-06 6.68841e-06 0)
(2.22532e-06 5.949e-06 0)
(1.47748e-06 5.42881e-06 0)
(7.47258e-07 5.07147e-06 0)
(8.17694e-08 4.843e-06 0)
(-4.59351e-07 4.7264e-06 0)
(-8.13696e-07 4.62856e-06 0)
(-5.01546e-07 9.8518e-07 0)
(7.86736e-09 5.3865e-08 0)
(-2.68064e-07 5.62289e-06 0)
(-7.93963e-07 5.72063e-06 0)
(-1.29341e-06 5.91381e-06 0)
(-1.75289e-06 6.20215e-06 0)
(-2.15497e-06 6.58576e-06 0)
(-2.47714e-06 7.06259e-06 0)
(-2.6914e-06 7.62484e-06 0)
(-2.76594e-06 8.25367e-06 0)
(-2.67007e-06 8.91277e-06 0)
(-2.38433e-06 9.54209e-06 0)
(-1.91628e-06 1.00559e-05 0)
(-1.31867e-06 1.03541e-05 0)
(-6.97253e-07 1.03586e-05 0)
(-1.84174e-07 1.00799e-05 0)
(1.33372e-07 9.65925e-06 0)
(2.46129e-07 9.22655e-06 0)
(1.90063e-07 8.86239e-06 0)
(1.56305e-08 8.60817e-06 0)
(-2.26771e-07 8.48149e-06 0)
(-4.90852e-07 8.48673e-06 0)
(-7.33821e-07 8.62019e-06 0)
(-9.14679e-07 8.87107e-06 0)
(-9.93542e-07 9.21914e-06 0)
(-9.33701e-07 9.62966e-06 0)
(-7.08247e-07 1.00465e-05 0)
(-3.12971e-07 1.03858e-05 0)
(2.1438e-07 1.05354e-05 0)
(7.74969e-07 1.03761e-05 0)
(1.21484e-06 9.8563e-06 0)
(1.41966e-06 9.17013e-06 0)
(1.38324e-06 8.5013e-06 0)
(1.15513e-06 7.91918e-06 0)
(7.8812e-07 7.44043e-06 0)
(3.23715e-07 7.05785e-06 0)
(-2.09587e-07 6.75236e-06 0)
(-7.94665e-07 6.49615e-06 0)
(-1.42464e-06 6.2505e-06 0)
(-2.10366e-06 5.95873e-06 0)
(-1.24174e-06 1.17108e-06 0)
(1.06992e-08 1.4709e-08 0)
(-2.02762e-07 6.30284e-06 0)
(-5.98366e-07 6.38315e-06 0)
(-9.67881e-07 6.53974e-06 0)
(-1.29838e-06 6.76832e-06 0)
(-1.57589e-06 7.0632e-06 0)
(-1.78536e-06 7.41572e-06 0)
(-1.91156e-06 7.81239e-06 0)
(-1.94108e-06 8.23295e-06 0)
(-1.86585e-06 8.64901e-06 0)
(-1.68773e-06 9.02449e-06 0)
(-1.4234e-06 9.31938e-06 0)
(-1.10679e-06 9.49848e-06 0)
(-7.85633e-07 9.54479e-06 0)
(-5.09437e-07 9.47228e-06 0)
(-3.12584e-07 9.32506e-06 0)
(-2.06e-07 9.15319e-06 0)
(-1.8142e-07 8.99749e-06 0)
(-2.19329e-07 8.88547e-06 0)
(-2.95346e-07 8.83243e-06 0)
(-3.84108e-07 8.84376e-06 0)
(-4.61431e-07 8.91675e-06 0)
(-5.05749e-07 9.04151e-06 0)
(-4.99672e-07 9.20105e-06 0)
(-4.32182e-07 9.37132e-06 0)
(-3.01601e-07 9.52181e-06 0)
(-1.18829e-07 9.6181e-06 0)
(9.05313e-08 9.6279e-06 0)
(2.87742e-07 9.53147e-06 0)
(4.29221e-07 9.33517e-06 0)
(4.81647e-07 9.07857e-06 0)
(4.31126e-07 8.80849e-06 0)
(2.78594e-07 8.56021e-06 0)
(3.07389e-08 8.35607e-06 0)
(-3.07098e-07 8.20856e-06 0)
(-7.36023e-07 8.12393e-06 0)
(-1.26805e-06 8.10514e-06 0)
(-1.93144e-06 8.15436e-06 0)
(-2.77674e-06 8.27461e-06 0)
(-1.62559e-06 1.9239e-06 0)
(1.24489e-08 1.07497e-08 0)
(-1.51055e-07 6.81381e-06 0)
(-4.4471e-07 6.87627e-06 0)
(-7.16079e-07 6.99681e-06 0)
(-9.54633e-07 7.16987e-06 0)
(-1.15035e-06 7.38821e-06 0)
(-1.29401e-06 7.64226e-06 0)
(-1.37803e-06 7.91954e-06 0)
(-1.39772e-06 8.20437e-06 0)
(-1.3529e-06 8.47823e-06 0)
(-1.24948e-06 8.72123e-06 0)
(-1.10039e-06 8.9149e-06 0)
(-9.2493e-07 9.04614e-06 0)
(-7.45976e-07 9.11131e-06 0)
(-5.85194e-07 9.11844e-06 0)
(-4.58048e-07 9.08515e-06 0)
(-3.71188e-07 9.03268e-06 0)
(-3.22986e-07 8.98047e-06 0)
(-3.05808e-07 8.94329e-06 0)
(-3.08592e-07 8.93027e-06 0)
(-3.19048e-07 8.945e-06 0)
(-3.25388e-07 8.98608e-06 0)
(-3.17699e-07 9.04776e-06 0)
(-2.89132e-07 9.12071e-06 0)
(-2.36947e-07 9.193e-06 0)
(-1.63342e-07 9.25158e-06 0)
(-7.57666e-08 9.28433e-06 0)
(1.363e-08 9.28276e-06 0)
(8.97907e-08 9.24486e-06 0)
(1.37727e-07 9.17698e-06 0)
(1.45837e-07 9.09322e-06 0)
(1.07845e-07 9.01143e-06 0)
(2.25728e-08 8.94945e-06 0)
(-1.0747e-07 8.92366e-06 0)
(-2.77518e-07 8.94935e-06 0)
(-4.81355e-07 9.04207e-06 0)
(-7.11166e-07 9.21996e-06 0)
(-9.5605e-07 9.50673e-06 0)
(-1.19621e-06 9.93249e-06 0)
(-6.09145e-07 2.2451e-06 0)
(5.37368e-08 9.08508e-09 0)
(-1.11759e-07 7.19336e-06 0)
(-3.28589e-07 7.24036e-06 0)
(-5.27836e-07 7.33043e-06 0)
(-7.01568e-07 7.45829e-06 0)
(-8.4292e-07 7.61726e-06 0)
(-9.46388e-07 7.79917e-06 0)
(-1.00832e-06 7.99433e-06 0)
(-1.02752e-06 8.19185e-06 0)
(-1.00583e-06 8.38023e-06 0)
(-9.48454e-07 8.54849e-06 0)
(-8.63864e-07 8.68762e-06 0)
(-7.6292e-07 8.79213e-06 0)
(-6.5733e-07 8.86126e-06 0)
(-5.57694e-07 8.89913e-06 0)
(-4.71733e-07 8.91368e-06 0)
(-4.03354e-07 8.91454e-06 0)
(-3.5271e-07 8.91102e-06 0)
(-3.1698e-07 8.91063e-06 0)
(-2.91457e-07 8.9183e-06 0)
(-2.70657e-07 8.93625e-06 0)
(-2.49306e-07 8.96407e-06 0)
(-2.23152e-07 8.99919e-06 0)
(-1.8958e-07 9.03748e-06 0)
(-1.48015e-07 9.07397e-06 0)
(-1.00056e-07 9.10379e-06 0)
(-4.92809e-08 9.12319e-06 0)
(-6.80103e-10 9.13044e-06 0)
(4.02598e-08 9.12665e-06 0)
(6.86767e-08 9.11594e-06 0)
(8.1398e-08 9.10499e-06 0)
(7.76726e-08 9.10214e-06 0)
(5.94883e-08 9.11633e-06 0)
(3.16473e-08 9.15647e-06 0)
(1.86791e-09 9.23116e-06 0)
(-1.88577e-08 9.34867e-06 0)
(-1.54799e-08 9.517e-06 0)
(3.24338e-08 9.74373e-06 0)
(1.53059e-07 1.00292e-05 0)
(1.60257e-07 1.6471e-06 0)
(4.3113e-08 8.51313e-09 0)
(-8.25691e-08 7.474e-06 0)
(-2.42646e-07 7.50877e-06 0)
(-3.89471e-07 7.57508e-06 0)
(-5.17294e-07 7.66859e-06 0)
(-6.21471e-07 7.7839e-06 0)
(-6.98668e-07 7.9147e-06 0)
(-7.47092e-07 8.05403e-06 0)
(-7.66725e-07 8.19458e-06 0)
(-7.59446e-07 8.32921e-06 0)
(-7.28987e-07 8.45158e-06 0)
(-6.80622e-07 8.55691e-06 0)
(-6.20575e-07 8.64249e-06 0)
(-5.55215e-07 8.70802e-06 0)
(-4.90192e-07 8.75551e-06 0)
(-4.29731e-07 8.78868e-06 0)
(-3.76266e-07 8.81207e-06 0)
(-3.30446e-07 8.83021e-06 0)
(-2.91447e-07 8.84691e-06 0)
(-2.57463e-07 8.86483e-06 0)
(-2.26237e-07 8.88536e-06 0)
(-1.95554e-07 8.90864e-06 0)
(-1.63653e-07 8.93383e-06 0)
(-1.29503e-07 8.95941e-06 0)
(-9.29435e-08 8.98363e-06 0)
(-5.4658e-08 9.00494e-06 0)
(-1.59953e-08 9.02239e-06 0)
(2.13564e-08 9.036e-06 0)
(5.57947e-08 9.04689e-06 0)
(8.62608e-08 9.05726e-06 0)
(1.12651e-07 9.07015e-06 0)
(1.36122e-07 9.08901e-06 0)
(1.59265e-07 9.11727e-06 0)
(1.86176e-07 9.15787e-06 0)
(2.22472e-07 9.21281e-06 0)
(2.75249e-07 9.28265e-06 0)
(3.52998e-07 9.36597e-06 0)
(4.65395e-07 9.45849e-06 0)
(6.23043e-07 9.54386e-06 0)
(3.81843e-07 1.29221e-06 0)
(5.80682e-09 6.9313e-09 0)
(-6.11046e-08 7.68149e-06 0)
(-1.79577e-07 7.70704e-06 0)
(-2.88308e-07 7.75567e-06 0)
(-3.832e-07 7.82402e-06 0)
(-4.61095e-07 7.908e-06 0)
(-5.19887e-07 8.00302e-06 0)
(-5.58628e-07 8.10418e-06 0)
(-5.7757e-07 8.20662e-06 0)
(-5.78146e-07 8.30579e-06 0)
(-5.62823e-07 8.39784e-06 0)
(-5.3485e-07 8.47994e-06 0)
(-4.97886e-07 8.55049e-06 0)
(-4.55583e-07 8.60922e-06 0)
(-4.1117e-07 8.65697e-06 0)
(-3.67152e-07 8.69548e-06 0)
(-3.25142e-07 8.72693e-06 0)
(-2.8587e-07 8.75356e-06 0)
(-2.49317e-07 8.77733e-06 0)
(-2.14939e-07 8.79971e-06 0)
(-1.81917e-07 8.82159e-06 0)
(-1.49391e-07 8.84331e-06 0)
(-1.16655e-07 8.86476e-06 0)
(-8.32711e-08 8.88553e-06 0)
(-4.91243e-08 8.90516e-06 0)
(-1.4384e-08 8.92326e-06 0)
(2.05947e-08 8.93969e-06 0)
(5.54234e-08 8.95471e-06 0)
(8.98586e-08 8.96892e-06 0)
(1.23973e-07 8.98322e-06 0)
(1.58294e-07 8.99871e-06 0)
(1.93876e-07 9.01637e-06 0)
(2.32306e-07 9.03694e-06 0)
(2.75624e-07 9.06053e-06 0)
(3.2615e-07 9.08648e-06 0)
(3.8622e-07 9.11301e-06 0)
(4.57776e-07 9.13699e-06 0)
(5.41794e-07 9.15371e-06 0)
(6.37674e-07 9.1474e-06 0)
(3.52984e-07 1.2793e-06 0)
(-2.51255e-08 6.61016e-09 0)
(-4.53386e-08 7.83521e-06 0)
(-1.3329e-07 7.85402e-06 0)
(-2.14163e-07 7.88979e-06 0)
(-2.85052e-07 7.94002e-06 0)
(-3.43771e-07 8.00174e-06 0)
(-3.88926e-07 8.07166e-06 0)
(-4.19942e-07 8.14639e-06 0)
(-4.37049e-07 8.22262e-06 0)
(-4.41215e-07 8.29739e-06 0)
(-4.34016e-07 8.36822e-06 0)
(-4.17456e-07 8.43327e-06 0)
(-3.93745e-07 8.49146e-06 0)
(-3.65069e-07 8.54244e-06 0)
(-3.33384e-07 8.58648e-06 0)
(-3.00268e-07 8.62436e-06 0)
(-2.66841e-07 8.6571e-06 0)
(-2.33767e-07 8.6858e-06 0)
(-2.01314e-07 8.71149e-06 0)
(-1.69453e-07 8.735e-06 0)
(-1.37978e-07 8.7569e-06 0)
(-1.06612e-07 8.77751e-06 0)
(-7.50985e-08 8.79697e-06 0)
(-4.32544e-08 8.81527e-06 0)
(-1.09895e-08 8.83235e-06 0)
(2.17082e-08 8.84817e-06 0)
(5.4815e-08 8.86279e-06 0)
(8.83301e-08 8.87632e-06 0)
(1.22337e-07 8.889e-06 0)
(1.57053e-07 8.90107e-06 0)
(1.92857e-07 8.91277e-06 0)
(2.30283e-07 8.92415e-06 0)
(2.69975e-07 8.93507e-06 0)
(3.12599e-07 8.94503e-06 0)
(3.58726e-07 8.95313e-06 0)
(4.08669e-07 8.95802e-06 0)
(4.62315e-07 8.95795e-06 0)
(5.18949e-07 8.95081e-06 0)
(5.77314e-07 8.92399e-06 0)
(3.02113e-07 1.31859e-06 0)
(-4.44486e-08 6.4874e-09 0)
(-3.37011e-08 7.94936e-06 0)
(-9.9122e-08 7.96329e-06 0)
(-1.59417e-07 7.9898e-06 0)
(-2.12512e-07 8.02707e-06 0)
(-2.5687e-07 8.07296e-06 0)
(-2.91517e-07 8.12513e-06 0)
(-3.16054e-07 8.18122e-06 0)
(-3.30618e-07 8.23897e-06 0)
(-3.35822e-07 8.29636e-06 0)
(-3.32653e-07 8.3517e-06 0)
(-3.22356e-07 8.40375e-06 0)
(-3.06297e-07 8.45167e-06 0)
(-2.85834e-07 8.4951e-06 0)
(-2.62205e-07 8.53402e-06 0)
(-2.36451e-07 8.56872e-06 0)
(-2.09372e-07 8.59965e-06 0)
(-1.81522e-07 8.62735e-06 0)
(-1.53237e-07 8.65234e-06 0)
(-1.24679e-07 8.67507e-06 0)
(-9.58889e-08 8.69591e-06 0)
(-6.68407e-08 8.7151e-06 0)
(-3.74805e-08 8.73281e-06 0)
(-7.7557e-09 8.74912e-06 0)
(2.23734e-08 8.76407e-06 0)
(5.29355e-08 8.77772e-06 0)
(8.39598e-08 8.79008e-06 0)
(1.15492e-07 8.80121e-06 0)
(1.4761e-07 8.81115e-06 0)
(1.80429e-07 8.8199e-06 0)
(2.14097e-07 8.82742e-06 0)
(2.48774e-07 8.83356e-06 0)
(2.84597e-07 8.83809e-06 0)
(3.2163e-07 8.8406e-06 0)
(3.59803e-07 8.84058e-06 0)
(3.98842e-07 8.83743e-06 0)
(4.38205e-07 8.8305e-06 0)
(4.77014e-07 8.81919e-06 0)
(5.14167e-07 8.79172e-06 0)
(2.5773e-07 1.37322e-06 0)
(-5.74236e-08 6.35155e-09 0)
(-2.5036e-08 8.03418e-06 0)
(-7.36662e-08 8.04461e-06 0)
(-1.18575e-07 8.06446e-06 0)
(-1.58271e-07 8.09242e-06 0)
(-1.91647e-07 8.12697e-06 0)
(-2.17998e-07 8.16643e-06 0)
(-2.37012e-07 8.20915e-06 0)
(-2.48744e-07 8.25354e-06 0)
(-2.53561e-07 8.2982e-06 0)
(-2.52077e-07 8.34194e-06 0)
(-2.45068e-07 8.38383e-06 0)
(-2.33398e-07 8.42325e-06 0)
(-2.17935e-07 8.45981e-06 0)
(-1.9949e-07 8.49339e-06 0)
(-1.78773e-07 8.52402e-06 0)
(-1.56364e-07 8.55186e-06 0)
(-1.32708e-07 8.57715e-06 0)
(-1.08128e-07 8.60015e-06 0)
(-8.28359e-08 8.6211e-06 0)
(-5.69676e-08 8.6402e-06 0)
(-3.06009e-08 8.65762e-06 0)
(-3.7794e-09 8.67348e-06 0)
(2.34728e-08 8.68786e-06 0)
(5.11415e-08 8.70081e-06 0)
(7.9219e-08 8.71238e-06 0)
(1.07703e-07 8.72257e-06 0)
(1.36599e-07 8.7314e-06 0)
(1.65918e-07 8.73884e-06 0)
(1.95673e-07 8.74486e-06 0)
(2.25874e-07 8.74936e-06 0)
(2.56514e-07 8.75224e-06 0)
(2.87554e-07 8.75334e-06 0)
(3.18908e-07 8.75245e-06 0)
(3.50434e-07 8.74936e-06 0)
(3.81929e-07 8.74388e-06 0)
(4.13145e-07 8.73586e-06 0)
(4.43829e-07 8.72523e-06 0)
(4.73959e-07 8.69982e-06 0)
(2.44151e-07 1.43171e-06 0)
(-5.00445e-08 6.29303e-09 0)
(-1.85146e-08 8.09708e-06 0)
(-5.44906e-08 8.10496e-06 0)
(-8.77514e-08 8.12e-06 0)
(-1.17211e-07 8.14123e-06 0)
(-1.42057e-07 8.16756e-06 0)
(-1.61759e-07 8.19779e-06 0)
(-1.76063e-07 8.23075e-06 0)
(-1.84965e-07 8.2653e-06 0)
(-1.88674e-07 8.30043e-06 0)
(-1.87565e-07 8.33528e-06 0)
(-1.82129e-07 8.36915e-06 0)
(-1.72919e-07 8.40153e-06 0)
(-1.60505e-07 8.43209e-06 0)
(-1.45433e-07 8.46063e-06 0)
(-1.282e-07 8.48707e-06 0)
(-1.0923e-07 8.51145e-06 0)
(-8.88766e-08 8.53383e-06 0)
(-6.74182e-08 8.55431e-06 0)
(-4.50689e-08 8.57302e-06 0)
(-2.19893e-08 8.59006e-06 0)
(1.70102e-09 8.60552e-06 0)
(2.59126e-08 8.61947e-06 0)
(5.05767e-08 8.63198e-06 0)
(7.5638e-08 8.64308e-06 0)
(1.0105e-07 8.6528e-06 0)
(1.26772e-07 8.66114e-06 0)
(1.52764e-07 8.6681e-06 0)
(1.78986e-07 8.67367e-06 0)
(2.05392e-07 8.6778e-06 0)
(2.31925e-07 8.68044e-06 0)
(2.58513e-07 8.68154e-06 0)
(2.8506e-07 8.68102e-06 0)
(3.11445e-07 8.6788e-06 0)
(3.37515e-07 8.6748e-06 0)
(3.63091e-07 8.66896e-06 0)
(3.87965e-07 8.66124e-06 0)
(4.11906e-07 8.6516e-06 0)
(4.34804e-07 8.62695e-06 0)
(2.22581e-07 1.49107e-06 0)
(-5.10056e-08 6.34664e-09 0)
(-1.35502e-08 8.14338e-06 0)
(-3.98783e-08 8.14941e-06 0)
(-6.42136e-08 8.16093e-06 0)
(-8.57539e-08 8.17725e-06 0)
(-1.03892e-07 8.19755e-06 0)
(-1.18222e-07 8.22098e-06 0)
(-1.28528e-07 8.24669e-06 0)
(-1.34774e-07 8.27385e-06 0)
(-1.37068e-07 8.30172e-06 0)
(-1.35638e-07 8.32966e-06 0)
(-1.30795e-07 8.35713e-06 0)
(-1.22901e-07 8.38373e-06 0)
(-1.12335e-07 8.40914e-06 0)
(-9.94753e-08 8.43317e-06 0)
(-8.46742e-08 8.45569e-06 0)
(-6.82493e-08 8.47666e-06 0)
(-5.04766e-08 8.49607e-06 0)
(-3.15897e-08 8.51393e-06 0)
(-1.17826e-08 8.53029e-06 0)
(8.78559e-09 8.5452e-06 0)
(2.99841e-08 8.55869e-06 0)
(5.17048e-08 8.5708e-06 0)
(7.38564e-08 8.58157e-06 0)
(9.63595e-08 8.59102e-06 0)
(1.19143e-07 8.59917e-06 0)
(1.42139e-07 8.60602e-06 0)
(1.65283e-07 8.61157e-06 0)
(1.88507e-07 8.61582e-06 0)
(2.1174e-07 8.61876e-06 0)
(2.34902e-07 8.62037e-06 0)
(2.57903e-07 8.62063e-06 0)
(2.80642e-07 8.61954e-06 0)
(3.03002e-07 8.61707e-06 0)
(3.2485e-07 8.61323e-06 0)
(3.4604e-07 8.60805e-06 0)
(3.66407e-07 8.60154e-06 0)
(3.85769e-07 8.59378e-06 0)
(4.04068e-07 8.57098e-06 0)
(2.06004e-07 1.55284e-06 0)
(-5.1324e-08 6.4005e-09 0)
(-9.72874e-09 8.177e-06 0)
(-2.86183e-08 8.18167e-06 0)
(-4.60374e-08 8.19059e-06 0)
(-6.13853e-08 8.20325e-06 0)
(-7.42009e-08 8.21907e-06 0)
(-8.41663e-08 8.23742e-06 0)
(-9.11008e-08 8.25766e-06 0)
(-9.49481e-08 8.27919e-06 0)
(-9.57586e-08 8.30145e-06 0)
(-9.36677e-08 8.32396e-06 0)
(-8.88736e-08 8.3463e-06 0)
(-8.16153e-08 8.36814e-06 0)
(-7.21526e-08 8.38921e-06 0)
(-6.07502e-08 8.40931e-06 0)
(-4.76641e-08 8.42832e-06 0)
(-3.31334e-08 8.44616e-06 0)
(-1.73749e-08 8.46277e-06 0)
(-5.81196e-10 8.47813e-06 0)
(1.70792e-08 8.49223e-06 0)
(3.54598e-08 8.5051e-06 0)
(5.44334e-08 8.51673e-06 0)
(7.38886e-08 8.52714e-06 0)
(9.37267e-08 8.53636e-06 0)
(1.13859e-07 8.54438e-06 0)
(1.34203e-07 8.55123e-06 0)
(1.54681e-07 8.55691e-06 0)
(1.75217e-07 8.56143e-06 0)
(1.95738e-07 8.56479e-06 0)
(2.16165e-07 8.567e-06 0)
(2.36422e-07 8.56807e-06 0)
(2.56427e-07 8.56802e-06 0)
(2.76094e-07 8.56685e-06 0)
(2.95336e-07 8.5646e-06 0)
(3.1406e-07 8.56131e-06 0)
(3.32172e-07 8.55704e-06 0)
(3.49571e-07 8.55187e-06 0)
(3.66147e-07 8.54593e-06 0)
(3.81895e-07 8.52478e-06 0)
(1.94366e-07 1.6166e-06 0)
(-5.21385e-08 6.50348e-09 0)
(-6.75667e-09 8.20081e-06 0)
(-1.98523e-08 8.20445e-06 0)
(-3.18594e-08 8.21143e-06 0)
(-4.23214e-08 8.22135e-06 0)
(-5.0883e-08 8.23379e-06 0)
(-5.72925e-08 8.24828e-06 0)
(-6.13973e-08 8.26434e-06 0)
(-6.31349e-08 8.28152e-06 0)
(-6.25206e-08 8.29941e-06 0)
(-5.96332e-08 8.31761e-06 0)
(-5.45995e-08 8.33582e-06 0)
(-4.75799e-08 8.35374e-06 0)
(-3.87551e-08 8.37117e-06 0)
(-2.83141e-08 8.38792e-06 0)
(-1.64462e-08 8.40388e-06 0)
(-3.33351e-09 8.41893e-06 0)
(1.08528e-08 8.43302e-06 0)
(2.59551e-08 8.4461e-06 0)
(4.18299e-08 8.45815e-06 0)
(5.83474e-08 8.46915e-06 0)
(7.53907e-08 8.4791e-06 0)
(9.28539e-08 8.48801e-06 0)
(1.1064e-07 8.49586e-06 0)
(1.28661e-07 8.50268e-06 0)
(1.46834e-07 8.50847e-06 0)
(1.6508e-07 8.51323e-06 0)
(1.83324e-07 8.51698e-06 0)
(2.01494e-07 8.51974e-06 0)
(2.19519e-07 8.52152e-06 0)
(2.37331e-07 8.52233e-06 0)
(2.54863e-07 8.52219e-06 0)
(2.72053e-07 8.52115e-06 0)
(2.88846e-07 8.51922e-06 0)
(3.05198e-07 8.51644e-06 0)
(3.21086e-07 8.51286e-06 0)
(3.36521e-07 8.50852e-06 0)
(3.51572e-07 8.50346e-06 0)
(3.66533e-07 8.48241e-06 0)
(1.86833e-07 1.68183e-06 0)
(-5.44913e-08 6.54932e-09 0)
(-4.42433e-09 8.21696e-06 0)
(-1.2967e-08 8.21982e-06 0)
(-2.07036e-08 8.22532e-06 0)
(-2.72821e-08 8.23317e-06 0)
(-3.24253e-08 8.24302e-06 0)
(-3.59319e-08 8.25454e-06 0)
(-3.7673e-08 8.26736e-06 0)
(-3.75867e-08 8.28115e-06 0)
(-3.56686e-08 8.29557e-06 0)
(-3.19628e-08 8.31034e-06 0)
(-2.65509e-08 8.3252e-06 0)
(-1.95422e-08 8.33992e-06 0)
(-1.10642e-08 8.35431e-06 0)
(-1.25491e-09 8.36824e-06 0)
(9.74385e-09 8.38156e-06 0)
(2.17915e-08 8.3942e-06 0)
(3.4752e-08 8.40608e-06 0)
(4.84963e-08 8.41716e-06 0)
(6.29037e-08 8.42739e-06 0)
(7.78617e-08 8.43675e-06 0)
(9.32664e-08 8.44523e-06 0)
(1.09021e-07 8.45281e-06 0)
(1.25037e-07 8.45951e-06 0)
(1.41232e-07 8.46532e-06 0)
(1.57526e-07 8.47024e-06 0)
(1.73846e-07 8.47429e-06 0)
(1.90123e-07 8.47748e-06 0)
(2.0629e-07 8.47982e-06 0)
(2.22284e-07 8.48134e-06 0)
(2.38042e-07 8.48205e-06 0)
(2.53504e-07 8.48198e-06 0)
(2.68613e-07 8.48116e-06 0)
(2.83311e-07 8.47961e-06 0)
(2.97536e-07 8.47737e-06 0)
(3.11221e-07 8.47447e-06 0)
(3.24283e-07 8.47093e-06 0)
(3.36605e-07 8.46677e-06 0)
(3.48139e-07 8.44591e-06 0)
(1.72528e-07 1.75046e-06 0)
(-5.98063e-08 6.48191e-09 0)
(-2.58038e-09 8.22707e-06 0)
(-7.51924e-09 8.22935e-06 0)
(-1.18632e-08 8.23371e-06 0)
(-1.53373e-08 8.23994e-06 0)
(-1.77226e-08 8.2478e-06 0)
(-1.88564e-08 8.257e-06 0)
(-1.86305e-08 8.26729e-06 0)
(-1.69865e-08 8.27839e-06 0)
(-1.391e-08 8.29006e-06 0)
(-9.42401e-09 8.30207e-06 0)
(-3.58114e-09 8.31421e-06 0)
(3.54299e-09 8.32629e-06 0)
(1.18565e-08 8.33817e-06 0)
(2.1257e-08 8.34972e-06 0)
(3.16363e-08 8.36082e-06 0)
(4.28846e-08 8.3714e-06 0)
(5.48929e-08 8.38138e-06 0)
(6.75554e-08 8.39072e-06 0)
(8.07709e-08 8.39937e-06 0)
(9.44431e-08 8.40731e-06 0)
(1.08481e-07 8.41452e-06 0)
(1.22801e-07 8.42099e-06 0)
(1.37321e-07 8.42671e-06 0)
(1.51968e-07 8.43168e-06 0)
(1.66672e-07 8.43591e-06 0)
(1.81366e-07 8.4394e-06 0)
(1.95988e-07 8.44217e-06 0)
(2.1048e-07 8.44423e-06 0)
(2.24788e-07 8.4456e-06 0)
(2.3886e-07 8.4463e-06 0)
(2.52646e-07 8.44637e-06 0)
(2.661e-07 8.44583e-06 0)
(2.7918e-07 8.44472e-06 0)
(2.91844e-07 8.44308e-06 0)
(3.04055e-07 8.44095e-06 0)
(3.15778e-07 8.43838e-06 0)
(3.26989e-07 8.43546e-06 0)
(3.37837e-07 8.41539e-06 0)
(1.69587e-07 1.82351e-06 0)
(-5.61488e-08 6.44015e-09 0)
(-1.11434e-09 8.23241e-06 0)
(-3.185e-09 8.23422e-06 0)
(-4.82041e-09 8.2377e-06 0)
(-5.80296e-09 8.24267e-06 0)
(-5.95741e-09 8.24895e-06 0)
(-5.15133e-09 8.25634e-06 0)
(-3.29355e-09 8.26461e-06 0)
(-3.31052e-10 8.27358e-06 0)
(3.75515e-09 8.28304e-06 0)
(8.95489e-09 8.29281e-06 0)
(1.5234e-08 8.30272e-06 0)
(2.25392e-08 8.31264e-06 0)
(3.08031e-08 8.32243e-06 0)
(3.99483e-08 8.33199e-06 0)
(4.98909e-08 8.34122e-06 0)
(6.05438e-08 8.35005e-06 0)
(7.1819e-08 8.35842e-06 0)
(8.36292e-08 8.36628e-06 0)
(9.58894e-08 8.37359e-06 0)
(1.08518e-07 8.38032e-06 0)
(1.21436e-07 8.38645e-06 0)
(1.3457e-07 8.39198e-06 0)
(1.4785e-07 8.39688e-06 0)
(1.6121e-07 8.40117e-06 0)
(1.74589e-07 8.40483e-06 0)
(1.87929e-07 8.40789e-06 0)
(2.01178e-07 8.41034e-06 0)
(2.14285e-07 8.41221e-06 0)
(2.27207e-07 8.41351e-06 0)
(2.39901e-07 8.41425e-06 0)
(2.52331e-07 8.41447e-06 0)
(2.64463e-07 8.4142e-06 0)
(2.76268e-07 8.41346e-06 0)
(2.87723e-07 8.41229e-06 0)
(2.98808e-07 8.41072e-06 0)
(3.09511e-07 8.40881e-06 0)
(3.1983e-07 8.4066e-06 0)
(3.29893e-07 8.38647e-06 0)
(1.67806e-07 1.90036e-06 0)
(-5.21191e-08 6.45713e-09 0)
(5.52675e-11 8.23394e-06 0)
(2.74908e-10 8.23538e-06 0)
(8.08148e-10 8.23816e-06 0)
(1.82966e-09 8.24214e-06 0)
(3.4814e-09 8.24717e-06 0)
(5.8723e-09 8.2531e-06 0)
(9.07942e-09 8.25977e-06 0)
(1.31501e-08 8.26701e-06 0)
(1.81049e-08 8.27467e-06 0)
(2.39412e-08 8.28262e-06 0)
(3.06368e-08 8.29071e-06 0)
(3.81536e-08 8.29884e-06 0)
(4.64411e-08 8.3069e-06 0)
(5.54395e-08 8.31479e-06 0)
(6.50827e-08 8.32245e-06 0)
(7.53006e-08 8.32981e-06 0)
(8.6021e-08 8.33681e-06 0)
(9.71713e-08 8.34342e-06 0)
(1.0868e-07 8.34959e-06 0)
(1.20476e-07 8.3553e-06 0)
(1.32493e-07 8.36053e-06 0)
(1.44667e-07 8.36527e-06 0)
(1.56936e-07 8.36951e-06 0)
(1.69243e-07 8.37324e-06 0)
(1.81534e-07 8.37647e-06 0)
(1.93761e-07 8.37919e-06 0)
(2.05879e-07 8.38141e-06 0)
(2.17846e-07 8.38315e-06 0)
(2.29626e-07 8.38441e-06 0)
(2.41186e-07 8.38522e-06 0)
(2.525e-07 8.38559e-06 0)
(2.63542e-07 8.38554e-06 0)
(2.74295e-07 8.3851e-06 0)
(2.84742e-07 8.38429e-06 0)
(2.94874e-07 8.38315e-06 0)
(3.04683e-07 8.3817e-06 0)
(3.14165e-07 8.37998e-06 0)
(3.23471e-07 8.35958e-06 0)
(1.66964e-07 1.98224e-06 0)
(-4.7677e-08 6.47525e-09 0)
(9.89102e-10 8.23243e-06 0)
(3.03877e-09 8.23358e-06 0)
(5.30888e-09 8.2358e-06 0)
(7.94179e-09 8.23898e-06 0)
(1.10541e-08 8.24301e-06 0)
(1.47366e-08 8.24776e-06 0)
(1.90548e-08 8.25312e-06 0)
(2.40507e-08 8.25895e-06 0)
(2.97452e-08 8.26515e-06 0)
(3.61399e-08 8.27159e-06 0)
(4.32205e-08 8.27817e-06 0)
(5.09594e-08 8.28481e-06 0)
(5.93178e-08 8.29142e-06 0)
(6.82488e-08 8.29792e-06 0)
(7.76992e-08 8.30426e-06 0)
(8.76115e-08 8.31038e-06 0)
(9.79256e-08 8.31623e-06 0)
(1.0858e-07 8.32178e-06 0)
(1.19513e-07 8.32699e-06 0)
(1.30665e-07 8.33185e-06 0)
(1.41977e-07 8.33634e-06 0)
(1.53391e-07 8.34043e-06 0)
(1.64854e-07 8.34413e-06 0)
(1.76317e-07 8.34742e-06 0)
(1.87731e-07 8.3503e-06 0)
(1.99055e-07 8.35278e-06 0)
(2.10248e-07 8.35485e-06 0)
(2.21278e-07 8.35652e-06 0)
(2.32114e-07 8.3578e-06 0)
(2.42731e-07 8.35869e-06 0)
(2.53107e-07 8.35921e-06 0)
(2.63228e-07 8.35937e-06 0)
(2.7308e-07 8.35919e-06 0)
(2.82657e-07 8.35868e-06 0)
(2.91957e-07 8.35787e-06 0)
(3.00982e-07 8.35677e-06 0)
(3.09739e-07 8.35541e-06 0)
(3.1837e-07 8.33459e-06 0)
(1.66849e-07 2.07005e-06 0)
(-4.29805e-08 6.49413e-09 0)
(1.73255e-09 8.2285e-06 0)
(5.24014e-09 8.22941e-06 0)
(8.89679e-09 8.23117e-06 0)
(1.28205e-08 8.2337e-06 0)
(1.71088e-08 8.2369e-06 0)
(2.18383e-08 8.24069e-06 0)
(2.70656e-08 8.24497e-06 0)
(3.28282e-08 8.24965e-06 0)
(3.91463e-08 8.25462e-06 0)
(4.60245e-08 8.25981e-06 0)
(5.34539e-08 8.26513e-06 0)
(6.1414e-08 8.27052e-06 0)
(6.98749e-08 8.27591e-06 0)
(7.87988e-08 8.28123e-06 0)
(8.81421e-08 8.28645e-06 0)
(9.78567e-08 8.29151e-06 0)
(1.07892e-07 8.29638e-06 0)
(1.18194e-07 8.30104e-06 0)
(1.28709e-07 8.30545e-06 0)
(1.39385e-07 8.3096e-06 0)
(1.50167e-07 8.31346e-06 0)
(1.61006e-07 8.31704e-06 0)
(1.71852e-07 8.32031e-06 0)
(1.82659e-07 8.32327e-06 0)
(1.93386e-07 8.32591e-06 0)
(2.03992e-07 8.32823e-06 0)
(2.14443e-07 8.33022e-06 0)
(2.2471e-07 8.33189e-06 0)
(2.34766e-07 8.33324e-06 0)
(2.4459e-07 8.33426e-06 0)
(2.54166e-07 8.33496e-06 0)
(2.63482e-07 8.33535e-06 0)
(2.72532e-07 8.33543e-06 0)
(2.81313e-07 8.3352e-06 0)
(2.89825e-07 8.33469e-06 0)
(2.98074e-07 8.3339e-06 0)
(3.06065e-07 8.33283e-06 0)
(3.13956e-07 8.31152e-06 0)
(1.67039e-07 2.16491e-06 0)
(-3.81295e-08 6.51384e-09 0)
(2.31964e-09 8.22265e-06 0)
(6.9792e-09 8.22336e-06 0)
(1.17334e-08 8.22474e-06 0)
(1.66821e-08 8.22673e-06 0)
(2.19082e-08 8.22925e-06 0)
(2.74781e-08 8.23223e-06 0)
(3.34412e-08 8.23561e-06 0)
(3.98318e-08 8.2393e-06 0)
(4.66694e-08 8.24325e-06 0)
(5.39608e-08 8.24737e-06 0)
(6.1701e-08 8.25162e-06 0)
(6.98751e-08 8.25594e-06 0)
(7.84596e-08 8.26028e-06 0)
(8.74237e-08 8.26459e-06 0)
(9.67312e-08 8.26884e-06 0)
(1.06341e-07 8.273e-06 0)
(1.16209e-07 8.27703e-06 0)
(1.26288e-07 8.28092e-06 0)
(1.3653e-07 8.28465e-06 0)
(1.46885e-07 8.2882e-06 0)
(1.57305e-07 8.29155e-06 0)
(1.67742e-07 8.29471e-06 0)
(1.78149e-07 8.29765e-06 0)
(1.88483e-07 8.30038e-06 0)
(1.98701e-07 8.30287e-06 0)
(2.08767e-07 8.30512e-06 0)
(2.18645e-07 8.30713e-06 0)
(2.28307e-07 8.30889e-06 0)
(2.37729e-07 8.31039e-06 0)
(2.46891e-07 8.31161e-06 0)
(2.55779e-07 8.31257e-06 0)
(2.64385e-07 8.31324e-06 0)
(2.72705e-07 8.31363e-06 0)
(2.80741e-07 8.31373e-06 0)
(2.88497e-07 8.31355e-06 0)
(2.95984e-07 8.31309e-06 0)
(3.03213e-07 8.31234e-06 0)
(3.10286e-07 8.29067e-06 0)
(1.67505e-07 2.26821e-06 0)
(-3.31811e-08 6.53463e-09 0)
(2.77578e-09 8.21529e-06 0)
(8.3308e-09 8.21584e-06 0)
(1.39394e-08 8.2169e-06 0)
(1.96881e-08 8.21842e-06 0)
(2.56493e-08 8.22036e-06 0)
(3.18814e-08 8.22265e-06 0)
(3.84291e-08 8.22526e-06 0)
(4.53243e-08 8.22811e-06 0)
(5.25866e-08 8.23116e-06 0)
(6.02244e-08 8.23437e-06 0)
(6.82363e-08 8.23769e-06 0)
(7.66119e-08 8.24107e-06 0)
(8.53332e-08 8.24449e-06 0)
(9.43751e-08 8.2479e-06 0)
(1.03707e-07 8.2513e-06 0)
(1.13294e-07 8.25465e-06 0)
(1.23097e-07 8.25795e-06 0)
(1.33073e-07 8.26116e-06 0)
(1.43178e-07 8.2643e-06 0)
(1.53365e-07 8.26733e-06 0)
(1.63586e-07 8.27026e-06 0)
(1.73796e-07 8.27308e-06 0)
(1.83945e-07 8.27578e-06 0)
(1.9399e-07 8.27835e-06 0)
(2.03885e-07 8.28079e-06 0)
(2.13592e-07 8.28308e-06 0)
(2.23071e-07 8.2852e-06 0)
(2.32292e-07 8.28715e-06 0)
(2.41228e-07 8.28891e-06 0)
(2.49856e-07 8.29046e-06 0)
(2.58163e-07 8.29178e-06 0)
(2.66139e-07 8.29285e-06 0)
(2.73784e-07 8.29366e-06 0)
(2.81103e-07 8.2942e-06 0)
(2.88106e-07 8.29444e-06 0)
(2.94808e-07 8.29437e-06 0)
(3.0123e-07 8.29401e-06 0)
(3.07441e-07 8.27231e-06 0)
(1.68341e-07 2.38161e-06 0)
(-2.81308e-08 6.55656e-09 0)
(3.11976e-09 8.20678e-06 0)
(9.35029e-09 8.20718e-06 0)
(1.56042e-08 8.20796e-06 0)
(2.19581e-08 8.20908e-06 0)
(2.84771e-08 8.21051e-06 0)
(3.52142e-08 8.21221e-06 0)
(4.22109e-08 8.21413e-06 0)
(4.94978e-08 8.21624e-06 0)
(5.70953e-08 8.21851e-06 0)
(6.5014e-08 8.22089e-06 0)
(7.32558e-08 8.22337e-06 0)
(8.18149e-08 8.22591e-06 0)
(9.0678e-08 8.22849e-06 0)
(9.98258e-08 8.23109e-06 0)
(1.09233e-07 8.23371e-06 0)
(1.1887e-07 8.23632e-06 0)
(1.28701e-07 8.23893e-06 0)
(1.38688e-07 8.24152e-06 0)
(1.48789e-07 8.24411e-06 0)
(1.5896e-07 8.24667e-06 0)
(1.69152e-07 8.24922e-06 0)
(1.79317e-07 8.25176e-06 0)
(1.89405e-07 8.25427e-06 0)
(1.99364e-07 8.25677e-06 0)
(2.09146e-07 8.25923e-06 0)
(2.18702e-07 8.26164e-06 0)
(2.27986e-07 8.264e-06 0)
(2.36957e-07 8.26628e-06 0)
(2.45579e-07 8.26845e-06 0)
(2.53823e-07 8.27049e-06 0)
(2.61669e-07 8.27235e-06 0)
(2.69103e-07 8.27401e-06 0)
(2.76123e-07 8.27544e-06 0)
(2.82737e-07 8.27658e-06 0)
(2.8896e-07 8.27741e-06 0)
(2.94819e-07 8.27791e-06 0)
(3.00346e-07 8.27805e-06 0)
(3.05531e-07 8.25678e-06 0)
(1.69614e-07 2.50737e-06 0)