/*--------------------------------*- C++ -*----------------------------------*\
  =========                 |
  \\      /  F ield         | OpenFOAM: The Open Source CFD Toolbox
   \\    /   O peration     | Website:  https://openfoam.org
    \\  /    A nd           | Version:  10
     \\/     M anipulation  |
\*---------------------------------------------------------------------------*/
FoamFile
{
    format      ascii;
    class       surfaceScalarField;
    location    "1.29";
    object      phi;
}
// * * * * * * * * * * * * * * * * * * * * * * * * * * * * * * * * * * * * * //

dimensions      [0 3 -1 0 0 0 0];

internalField   nonuniform List<scalar> 
24170
(
1.4272e-09
-1.4272e-09
2.64983e-09
-1.22262e-09
3.61939e-09
-9.69562e-10
4.35453e-09
-7.35135e-10
4.90292e-09
-5.48397e-10
5.31606e-09
-4.1314e-10
5.63835e-09
-3.22287e-10
5.90482e-09
-2.66472e-10
6.14259e-09
-2.37764e-10
6.37345e-09
-2.30868e-10
6.6169e-09
-2.43444e-10
6.89343e-09
-2.7653e-10
7.22937e-09
-3.35944e-10
7.66576e-09
-4.36393e-10
8.2796e-09
-6.13835e-10
9.24917e-09
-9.69574e-10
1.11267e-08
-1.87755e-09
-5.35266e-09
1.64794e-08
1.62672e-09
-3.05392e-09
3.01399e-09
-2.6099e-09
4.10707e-09
-2.06264e-09
4.92975e-09
-1.55782e-09
5.53872e-09
-1.15736e-09
5.99401e-09
-8.68432e-10
6.34679e-09
-6.75061e-10
6.637e-09
-5.56686e-10
6.89528e-09
-4.96041e-10
7.14601e-09
-4.81603e-10
7.41072e-09
-5.08154e-10
7.71172e-09
-5.77529e-10
8.07705e-09
-7.01271e-10
8.54897e-09
-9.08321e-10
9.20208e-09
-1.26694e-09
1.01861e-08
-1.95356e-09
1.18067e-08
-3.49817e-09
-7.68631e-09
1.41403e-08
1.82418e-09
-4.8781e-09
3.37046e-09
-4.15618e-09
4.5786e-09
-3.27078e-09
5.47962e-09
-2.45884e-09
6.14062e-09
-1.81836e-09
6.63073e-09
-1.35854e-09
7.00781e-09
-1.05214e-09
7.3164e-09
-8.65279e-10
7.59019e-09
-7.6983e-10
7.8556e-09
-7.47017e-10
8.13548e-09
-7.88028e-10
8.45277e-09
-8.94824e-10
8.83501e-09
-1.08351e-09
9.32069e-09
-1.394e-09
9.96897e-09
-1.91522e-09
1.08669e-08
-2.85152e-09
1.20594e-08
-4.69066e-09
-8.48448e-09
1.28576e-08
2.04349e-09
-6.9216e-09
3.76115e-09
-5.87383e-09
5.08776e-09
-4.59739e-09
6.06522e-09
-3.4363e-09
6.77414e-09
-2.52729e-09
7.29453e-09
-1.87893e-09
7.69164e-09
-1.44924e-09
8.01468e-09
-1.18833e-09
8.30021e-09
-1.05535e-09
8.57625e-09
-1.02306e-09
8.86628e-09
-1.07806e-09
9.19275e-09
-1.22129e-09
9.58047e-09
-1.47123e-09
1.00597e-08
-1.87327e-09
1.06661e-08
-2.52152e-09
1.14184e-08
-3.60385e-09
1.21958e-08
-5.46806e-09
-8.55437e-09
1.22657e-08
2.29847e-09
-9.22007e-09
4.20812e-09
-7.78348e-09
5.65987e-09
-6.04913e-09
6.71224e-09
-4.48867e-09
7.46415e-09
-3.2792e-09
8.00906e-09
-2.42384e-09
8.42068e-09
-1.86086e-09
8.75313e-09
-1.52077e-09
9.04556e-09
-1.34778e-09
9.32713e-09
-1.30463e-09
9.62119e-09
-1.37212e-09
9.94844e-09
-1.54854e-09
1.0329e-08
-1.85176e-09
1.07818e-08
-2.3261e-09
1.13164e-08
-3.05613e-09
1.18977e-08
-4.18515e-09
1.23373e-08
-5.90768e-09
-8.29818e-09
1.20811e-08
2.60432e-09
-1.18244e-08
4.73402e-09
-9.91318e-09
6.3187e-09
-7.63381e-09
7.44259e-09
-5.61256e-09
8.22981e-09
-4.06642e-09
8.79084e-09
-2.98487e-09
9.20919e-09
-2.27921e-09
9.54407e-09
-1.85566e-09
9.83692e-09
-1.64063e-09
1.01174e-08
-1.5851e-09
1.04078e-08
-1.66256e-09
1.0726e-08
-1.86672e-09
1.10858e-08
-2.21153e-09
1.14937e-08
-2.73405e-09
1.19365e-08
-3.49888e-09
1.23466e-08
-4.59531e-09
1.25349e-08
-6.09599e-09
-7.90642e-09
1.21432e-08
2.9815e-09
-1.48059e-08
5.36761e-09
-1.22993e-08
7.0925e-09
-9.3587e-09
8.28045e-09
-6.80051e-09
9.09071e-09
-4.87668e-09
9.65549e-09
-3.54965e-09
1.00696e-08
-2.69332e-09
1.03974e-08
-2.18346e-09
1.06821e-08
-1.92528e-09
1.09529e-08
-1.85599e-09
1.12305e-08
-1.9401e-09
1.15285e-08
-2.16478e-09
1.1854e-08
-2.53695e-09
1.22017e-08
-3.08182e-09
1.25422e-08
-3.83935e-09
1.27963e-08
-4.84943e-09
1.28069e-08
-6.10654e-09
-7.46527e-09
1.23657e-08
3.4598e-09
-1.82657e-08
6.14855e-09
-1.4988e-08
8.01787e-09
-1.1228e-08
9.25524e-09
-8.03788e-09
1.00693e-08
-5.69071e-09
1.06198e-08
-4.10014e-09
1.10144e-08
-3.08794e-09
1.13223e-08
-2.49141e-09
1.15877e-08
-2.19061e-09
1.18385e-08
-2.1068e-09
1.20923e-08
-2.19396e-09
1.23584e-08
-2.43091e-09
1.26368e-08
-2.8153e-09
1.29131e-08
-3.35816e-09
1.31491e-08
-4.07533e-09
1.3269e-08
-4.96934e-09
1.3157e-08
-5.99456e-09
-7.01159e-09
1.27034e-08
4.08495e-09
-2.23506e-08
7.1339e-09
-1.8037e-08
9.14406e-09
-1.32382e-08
1.04041e-08
-9.29788e-09
1.1192e-08
-6.47869e-09
1.17024e-08
-4.61051e-09
1.20567e-08
-3.44227e-09
1.23281e-08
-2.76278e-09
1.25601e-08
-2.42257e-09
1.27782e-08
-2.32492e-09
1.29962e-08
-2.412e-09
1.32184e-08
-2.65309e-09
1.34386e-08
-3.03546e-09
1.36364e-08
-3.55597e-09
1.37715e-08
-4.21046e-09
1.378e-08
-4.9778e-09
1.35839e-08
-5.79849e-09
-6.5597e-09
1.3132e-08
4.9303e-09
-2.72809e-08
8.40834e-09
-2.1515e-08
1.05386e-08
-1.53685e-08
1.17742e-08
-1.05334e-08
1.24907e-08
-7.19515e-09
1.29244e-08
-5.04428e-09
1.32106e-08
-3.72845e-09
1.3424e-08
-2.97616e-09
1.36054e-08
-2.60397e-09
1.37762e-08
-2.49568e-09
1.39452e-08
-2.58108e-09
1.41117e-08
-2.81959e-09
1.42646e-08
-3.1883e-09
1.43804e-08
-3.67183e-09
1.44218e-08
-4.25182e-09
1.43392e-08
-4.89523e-09
1.40846e-08
-5.54382e-09
-6.1139e-09
1.36388e-08
6.1192e-09
-3.34001e-08
1.01009e-08
-2.54967e-08
1.22951e-08
-1.75627e-08
1.34254e-08
-1.16638e-08
1.4002e-08
-7.7717e-09
1.43085e-08
-5.3508e-09
1.44901e-08
-3.91009e-09
1.46188e-08
-3.10486e-09
1.47292e-08
-2.71434e-09
1.48361e-08
-2.6026e-09
1.49426e-08
-2.6875e-09
1.50424e-08
-2.91945e-09
1.5121e-08
-3.26685e-09
1.51543e-08
-3.70521e-09
1.51104e-08
-4.20785e-09
1.49535e-08
-4.73836e-09
1.46564e-08
-5.24673e-09
-5.67412e-09
1.42166e-08
6.53095e-09
-3.99311e-08
1.03325e-08
-2.92983e-08
1.21379e-08
-1.93681e-08
1.29065e-08
-1.24323e-08
1.32067e-08
-8.07189e-09
1.33134e-08
-5.45753e-09
1.33494e-08
-3.94614e-09
1.33671e-08
-3.1225e-09
1.33866e-08
-2.73387e-09
1.34131e-08
-2.62912e-09
1.34434e-08
-2.71773e-09
1.3468e-08
-2.94414e-09
1.34726e-08
-3.27139e-09
1.34375e-08
-3.67012e-09
1.33402e-08
-4.11057e-09
1.31594e-08
-4.55758e-09
1.28825e-08
-4.9698e-09
-5.30483e-09
1.25132e-08
9.70747e-09
-4.96385e-08
1.45293e-08
-3.41202e-08
1.63431e-08
-2.11819e-08
1.68476e-08
-1.29368e-08
1.6873e-08
-8.09728e-09
1.67572e-08
-5.34182e-09
1.66248e-08
-3.81368e-09
1.65153e-08
-3.01303e-09
1.6436e-08
-2.65456e-09
1.63811e-08
-2.57424e-09
1.6339e-08
-2.67557e-09
1.6294e-08
-2.89913e-09
1.62274e-08
-3.2048e-09
1.61182e-08
-3.56097e-09
1.59456e-08
-3.93792e-09
1.56928e-08
-4.30478e-09
1.53529e-08
-4.62995e-09
-4.88508e-09
1.49332e-08
1.56735e-08
-6.53121e-08
2.14492e-08
-3.98958e-08
2.26324e-08
-2.23651e-08
2.23519e-08
-1.26563e-08
2.17599e-08
-7.50529e-09
2.12037e-08
-4.78561e-09
2.07604e-08
-3.37037e-09
2.04262e-08
-2.67884e-09
2.0177e-08
-2.40533e-09
1.99856e-08
-2.38289e-09
1.98261e-08
-2.51603e-09
1.96735e-08
-2.74653e-09
1.95039e-08
-3.03525e-09
1.92951e-08
-3.3521e-09
1.9028e-08
-3.67087e-09
1.86904e-08
-3.96721e-09
1.82797e-08
-4.21924e-09
-4.40979e-09
1.78044e-08
2.86708e-08
-9.39828e-08
3.37209e-08
-4.4946e-08
3.23376e-08
-2.09817e-08
3.01166e-08
-1.04353e-08
2.82736e-08
-5.66228e-09
2.69192e-08
-3.43122e-09
2.59497e-08
-2.40086e-09
2.52511e-08
-1.98028e-09
2.47345e-08
-1.88874e-09
2.43342e-08
-1.98253e-09
2.40007e-08
-2.18252e-09
2.36954e-08
-2.44124e-09
2.33873e-08
-2.72711e-09
2.30517e-08
-3.01654e-09
2.26711e-08
-3.29025e-09
2.22359e-08
-3.53201e-09
2.17456e-08
-3.72895e-09
-3.87247e-09
2.12083e-08
6.32663e-08
-1.57249e-07
5.67872e-08
-3.84668e-08
4.72491e-08
-1.14436e-08
4.07854e-08
-3.9716e-09
3.66987e-08
-1.5756e-09
3.40677e-08
-8.00254e-10
3.23116e-08
-6.44691e-10
3.10902e-08
-7.58873e-10
3.02002e-08
-9.9882e-10
2.95145e-08
-1.29676e-09
2.89489e-08
-1.61694e-09
2.84456e-08
-1.93795e-09
2.79638e-08
-2.24529e-09
2.74751e-08
-2.5279e-09
2.69617e-08
-2.77687e-09
2.6415e-08
-2.98528e-09
2.58345e-08
-3.14846e-09
-3.26436e-09
2.52264e-08
1.83356e-07
1.59137e-07
9.7262e-08
4.76276e-08
6.70285e-08
1.87899e-08
5.3663e-08
9.39391e-09
4.66399e-08
5.44742e-09
4.24831e-08
3.35653e-09
3.98071e-08
2.03136e-09
3.79671e-08
1.08115e-09
3.66253e-08
3.42982e-10
3.55851e-08
-2.56534e-10
3.47253e-08
-7.57217e-10
3.39714e-08
-1.18403e-09
3.3274e-08
-1.54791e-09
3.26011e-08
-1.85493e-09
3.19329e-08
-2.10876e-09
3.12598e-08
-2.3121e-09
3.05789e-08
-2.46763e-09
-2.57852e-09
2.98931e-08
7.72641e-08
8.18725e-08
7.5528e-08
4.93636e-08
6.55497e-08
2.87683e-08
5.75903e-08
1.73533e-08
5.21176e-08
1.09201e-08
4.8393e-08
7.0811e-09
4.57912e-08
4.63318e-09
4.3901e-08
2.97131e-09
4.24633e-08
1.78077e-09
4.13162e-08
8.90538e-10
4.03559e-08
2.03022e-10
3.95048e-08
-3.32877e-10
3.87151e-08
-7.58264e-10
3.79595e-08
-1.09931e-09
3.72215e-08
-1.37071e-09
3.64926e-08
-1.58316e-09
3.57699e-08
-1.74496e-09
-1.86303e-09
3.50544e-08
3.59852e-08
4.58873e-08
5.01806e-08
3.51682e-08
5.38896e-08
2.50593e-08
5.37428e-08
1.75001e-08
5.24511e-08
1.22118e-08
5.09818e-08
8.55036e-09
4.96309e-08
5.98411e-09
4.84549e-08
4.14727e-09
4.74339e-08
2.80177e-09
4.653e-08
1.7945e-09
4.57066e-08
1.02638e-09
4.49413e-08
4.32432e-10
4.42139e-08
-3.0801e-11
4.3503e-08
-3.88442e-10
4.28011e-08
-6.68861e-10
4.21049e-08
-8.86958e-10
4.14141e-08
-1.05409e-09
-1.17921e-09
4.07302e-08
1.43367e-08
3.15505e-08
2.33259e-08
2.6179e-08
2.81352e-08
2.025e-08
3.04889e-08
1.51464e-08
3.1542e-08
1.11587e-08
3.19333e-08
8.15914e-09
3.19901e-08
5.92724e-09
3.1875e-08
4.26241e-09
3.1667e-08
3.00981e-09
3.14043e-08
2.05712e-09
3.11059e-08
1.32483e-09
3.07813e-08
7.56955e-10
3.04367e-08
3.13827e-10
3.00808e-08
-3.25056e-11
2.97115e-08
-2.99576e-10
2.93324e-08
-5.0786e-10
2.8947e-08
-6.68676e-10
-7.9086e-10
2.85586e-08
8.58395e-09
2.29666e-08
1.4977e-08
1.9786e-08
1.92173e-08
1.60097e-08
2.18782e-08
1.24855e-08
2.35042e-08
9.53272e-09
2.44798e-08
7.18351e-09
2.50488e-08
5.35823e-09
2.53591e-08
3.95213e-09
2.54995e-08
2.86938e-09
2.55241e-08
2.03257e-09
2.54664e-08
1.38247e-09
2.53485e-08
8.74864e-10
2.51853e-08
4.77014e-10
2.49882e-08
1.64631e-10
2.47679e-08
-7.93016e-11
2.45282e-08
-2.68105e-10
2.42743e-08
-4.14845e-10
-5.27553e-10
2.4011e-08
5.78783e-09
1.71788e-08
1.04712e-08
1.51026e-08
1.39319e-08
1.2549e-08
1.63686e-08
1.00488e-08
1.80434e-08
7.85787e-09
1.91798e-08
6.0472e-09
1.99414e-08
4.59654e-09
2.04416e-08
3.45197e-09
2.07565e-08
2.55448e-09
2.09376e-08
1.85146e-09
2.10201e-08
1.29994e-09
2.10287e-08
8.66254e-10
2.09812e-08
5.24538e-10
2.08908e-08
2.55077e-10
2.07686e-08
4.28241e-11
2.06226e-08
-1.22054e-10
2.04582e-08
-2.5044e-10
-3.49845e-10
2.02805e-08
4.20771e-09
1.2971e-08
7.76932e-09
1.1541e-08
1.05685e-08
9.74976e-09
1.26737e-08
7.9437e-09
1.42177e-08
6.31379e-09
1.53335e-08
4.93141e-09
1.61304e-08
3.79968e-09
1.66913e-08
2.89107e-09
1.7077e-08
2.16877e-09
1.73315e-08
1.59699e-09
1.74866e-08
1.14478e-09
1.75659e-08
7.86971e-10
1.75868e-08
5.03649e-10
1.75626e-08
2.79287e-10
1.75036e-08
1.01823e-10
1.74191e-08
-3.75616e-11
1.73144e-08
-1.45718e-10
-2.3e-10
1.71945e-08
3.21454e-09
9.75651e-09
6.00872e-09
8.7468e-09
8.28916e-09
7.46932e-09
1.00758e-08
6.15702e-09
1.14403e-08
4.94938e-09
1.24649e-08
3.90675e-09
1.32245e-08
3.04008e-09
1.37801e-08
2.33546e-09
1.41793e-08
1.76963e-09
1.44582e-08
1.31807e-09
1.46443e-08
9.58654e-10
1.47585e-08
6.72801e-10
1.48166e-08
4.45494e-10
1.48311e-08
2.6482e-10
1.48115e-08
1.21419e-10
1.4766e-08
7.95029e-12
1.47005e-08
-8.02224e-11
-1.49196e-10
1.46197e-08
2.53947e-09
7.21704e-09
4.78375e-09
6.50253e-09
6.65997e-09
5.5931e-09
8.16949e-09
4.6475e-09
9.35305e-09
3.76582e-09
1.02645e-08
2.99525e-09
1.09568e-08
2.34783e-09
1.14756e-08
1.81669e-09
1.18582e-08
1.38697e-09
1.21344e-08
1.04194e-09
1.23271e-08
7.65929e-10
1.24544e-08
5.45501e-10
1.25303e-08
3.69593e-10
1.25658e-08
2.29324e-10
1.25696e-08
1.17641e-10
1.25486e-08
2.89605e-11
1.25088e-08
-4.04796e-11
-9.47119e-11
1.24543e-08
2.05228e-09
5.16476e-09
3.88553e-09
4.66927e-09
5.44246e-09
4.03618e-09
6.71734e-09
3.37262e-09
7.73475e-09
2.74841e-09
8.53176e-09
2.19824e-09
9.14707e-09
1.73252e-09
9.6158e-09
1.34796e-09
9.96765e-09
1.03512e-09
1.02268e-08
7.82763e-10
1.04127e-08
5.80103e-10
1.05404e-08
4.17706e-10
1.06223e-08
2.87721e-10
1.06679e-08
1.83782e-10
1.06847e-08
1.00798e-10
1.0679e-08
3.47135e-11
1.06559e-08
-1.7379e-11
-5.79791e-11
1.06191e-08
1.68344e-09
3.48132e-09
3.19792e-09
3.1548e-09
4.49761e-09
2.73649e-09
5.57453e-09
2.2957e-09
6.44437e-09
1.87857e-09
7.13383e-09
1.50878e-09
7.67227e-09
1.19409e-09
8.0872e-09
9.33027e-10
8.40253e-09
7.19786e-10
8.63813e-09
5.47163e-10
8.81013e-09
4.08103e-10
8.93148e-09
2.96359e-10
9.01251e-09
2.06688e-10
9.06148e-09
1.3481e-10
9.085e-09
7.72822e-11
9.08836e-09
3.13521e-11
9.07605e-09
-5.07149e-12
-3.33596e-11
9.05143e-09
1.39254e-09
2.08878e-09
2.65126e-09
1.89607e-09
3.73905e-09
1.6487e-09
4.64765e-09
1.3871e-09
5.38767e-09
1.13854e-09
5.97913e-09
9.17316e-10
6.44487e-09
7.28347e-10
6.80685e-09
5.71046e-10
7.08447e-09
4.42163e-10
7.2941e-09
3.37537e-10
7.44916e-09
2.53037e-10
7.56055e-09
1.84975e-10
7.637e-09
1.30233e-10
7.68556e-09
8.62546e-11
7.71186e-09
5.09777e-11
7.72047e-09
2.2749e-11
7.71514e-09
2.55625e-13
-1.71476e-11
7.69893e-09
1.15302e-09
9.35761e-10
2.19862e-09
8.50463e-10
3.10652e-09
7.40801e-10
3.86908e-09
6.24546e-10
4.49384e-09
5.13781e-10
4.99624e-09
4.14918e-10
5.39434e-09
3.30243e-10
5.70581e-09
2.59577e-10
5.94644e-09
2.01537e-10
6.12966e-09
1.54313e-10
6.26661e-09
1.1609e-10
6.36635e-09
8.52379e-11
6.43621e-09
6.03729e-11
6.4821e-09
4.03568e-11
6.50881e-09
2.42678e-11
6.5202e-09
1.13656e-11
6.5194e-09
1.05556e-12
-6.77973e-12
6.50903e-09
9.35761e-10
1.78622e-09
2.52703e-09
3.15157e-09
3.66535e-09
4.08027e-09
4.41051e-09
4.67009e-09
4.87163e-09
5.02594e-09
5.14203e-09
5.22727e-09
5.28764e-09
5.328e-09
5.35227e-09
5.36363e-09
5.36469e-09
5.35791e-09
4.2022e-10
-4.2022e-10
8.42314e-10
-4.22094e-10
1.26531e-09
-4.22996e-10
1.68834e-09
-4.23033e-10
2.11069e-09
-4.22344e-10
2.53174e-09
-4.21054e-10
2.95095e-09
-4.19204e-10
3.36764e-09
-4.16699e-10
3.78097e-09
-4.13326e-10
4.18979e-09
-4.08818e-10
4.59274e-09
-4.02954e-10
4.98837e-09
-3.95627e-10
5.37522e-09
-3.8685e-10
5.75193e-09
-3.76709e-10
6.11725e-09
-3.65317e-10
6.47003e-09
-3.52783e-10
6.80923e-09
-3.39205e-10
7.13393e-09
-3.24693e-10
7.4433e-09
-3.09377e-10
7.73671e-09
-2.93407e-10
8.01366e-09
-2.76948e-10
8.27383e-09
-2.60176e-10
8.5171e-09
-2.43268e-10
8.7435e-09
-2.26402e-10
8.95325e-09
-2.09745e-10
9.1467e-09
-1.93451e-10
9.32436e-09
-1.77658e-10
9.48684e-09
-1.6248e-10
9.63485e-09
-1.48008e-10
9.76916e-09
-1.3431e-10
9.89059e-09
-1.21432e-10
9.99999e-09
-1.09398e-10
1.00982e-08
-9.82154e-11
1.01861e-08
-8.78763e-11
1.02644e-08
-7.83608e-11
1.03341e-08
-6.96397e-11
1.03958e-08
-6.16764e-11
1.04502e-08
-5.44293e-11
1.0498e-08
-4.78534e-11
1.05399e-08
-4.19025e-11
1.05765e-08
-3.65297e-11
1.06082e-08
-3.16884e-11
1.06355e-08
-2.73338e-11
1.06589e-08
-2.34232e-11
1.06788e-08
-1.99155e-11
1.06956e-08
-1.67731e-11
1.07096e-08
-1.39607e-11
1.0721e-08
-1.14455e-11
1.07302e-08
-9.19781e-12
1.07374e-08
-7.19074e-12
1.07428e-08
-5.39917e-12
1.07466e-08
-3.80101e-12
1.0749e-08
-2.37574e-12
1.07501e-08
-1.10548e-12
1.07501e-08
2.66146e-14
1.0749e-08
1.03524e-12
1.07471e-08
1.9334e-12
1.07444e-08
2.73356e-12
1.07409e-08
3.44603e-12
1.07368e-08
4.08064e-12
1.07322e-08
4.64601e-12
1.0727e-08
5.14979e-12
1.07214e-08
5.59888e-12
1.07154e-08
5.99967e-12
1.07091e-08
6.35752e-12
1.07024e-08
6.67745e-12
1.06954e-08
6.96391e-12
1.06882e-08
7.22082e-12
1.06808e-08
7.45151e-12
1.06731e-08
7.6596e-12
1.06653e-08
7.8473e-12
1.06572e-08
8.01746e-12
1.06491e-08
8.1723e-12
1.06407e-08
8.31359e-12
1.06323e-08
8.44324e-12
1.06237e-08
8.5626e-12
1.06151e-08
8.67323e-12
1.06063e-08
8.77613e-12
1.05974e-08
8.87268e-12
1.05885e-08
8.9635e-12
1.05794e-08
9.04963e-12
1.05703e-08
9.13181e-12
1.05611e-08
9.21046e-12
1.05518e-08
9.28636e-12
1.05424e-08
9.35991e-12
1.0533e-08
9.43173e-12
1.05235e-08
9.50192e-12
1.05139e-08
9.5711e-12
1.05043e-08
9.63936e-12
1.04946e-08
9.70697e-12
1.04848e-08
9.77433e-12
1.0475e-08
9.84144e-12
1.0465e-08
9.90867e-12
1.04551e-08
9.97587e-12
1.0445e-08
1.00435e-11
1.04349e-08
1.01115e-11
1.04247e-08
1.01799e-11
1.04145e-08
1.0249e-11
1.04042e-08
1.03186e-11
1.03938e-08
1.0389e-11
1.03833e-08
1.046e-11
1.03728e-08
1.0532e-11
1.03622e-08
1.06046e-11
1.03515e-08
1.06783e-11
1.03407e-08
1.07526e-11
1.03299e-08
1.08279e-11
1.0319e-08
1.09041e-11
1.0308e-08
1.09813e-11
1.0297e-08
1.10594e-11
1.02858e-08
1.11384e-11
1.02746e-08
1.12184e-11
1.02633e-08
1.12993e-11
1.02519e-08
1.13812e-11
1.02405e-08
1.14639e-11
1.02289e-08
1.15477e-11
1.02173e-08
1.16325e-11
1.02056e-08
1.1718e-11
1.01938e-08
1.18047e-11
1.01819e-08
1.18921e-11
1.01699e-08
1.19807e-11
1.01578e-08
1.207e-11
1.01457e-08
1.21604e-11
1.01334e-08
1.22515e-11
1.01211e-08
1.23438e-11
1.01086e-08
1.24369e-11
1.00961e-08
1.25309e-11
1.00835e-08
1.26259e-11
1.00708e-08
1.27218e-11
1.00579e-08
1.28186e-11
1.0045e-08
1.29164e-11
1.0032e-08
1.3015e-11
1.00189e-08
1.31148e-11
1.00057e-08
1.32153e-11
9.99236e-09
1.33168e-11
9.97894e-09
1.34194e-11
9.96542e-09
1.3523e-11
9.95179e-09
1.36274e-11
9.93806e-09
1.37331e-11
9.92422e-09
1.38398e-11
9.91027e-09
1.39476e-11
9.89621e-09
1.40566e-11
9.88205e-09
1.41669e-11
9.86777e-09
1.42786e-11
9.85338e-09
1.43918e-11
9.83887e-09
1.45065e-11
9.82425e-09
1.4623e-11
9.80951e-09
1.47415e-11
9.79464e-09
1.48622e-11
9.77966e-09
1.49857e-11
9.76455e-09
1.51122e-11
9.7493e-09
1.52421e-11
9.73393e-09
1.53765e-11
9.71841e-09
1.55161e-11
9.70275e-09
1.56618e-11
9.68693e-09
1.58154e-11
9.67096e-09
1.59784e-11
9.6548e-09
1.61533e-11
9.63846e-09
1.63431e-11
9.62191e-09
1.65515e-11
9.60512e-09
1.67834e-11
9.58808e-09
1.70454e-11
9.57073e-09
1.73457e-11
9.55304e-09
1.76951e-11
9.53493e-09
1.81079e-11
9.51633e-09
1.86031e-11
9.49712e-09
1.92057e-11
9.47717e-09
1.99493e-11
9.45629e-09
2.08802e-11
9.43423e-09
2.20617e-11
9.41065e-09
2.35829e-11
9.38508e-09
2.55718e-11
9.35686e-09
2.82179e-11
9.32505e-09
3.18111e-11
9.28823e-09
3.68179e-11
9.24419e-09
4.40354e-11
9.18925e-09
5.4946e-11
9.1166e-09
7.26507e-11
9.01175e-09
1.04851e-10
8.83548e-09
1.7627e-10
4.0098e-10
8.4345e-09
4.24855e-10
-8.45075e-10
8.51227e-10
-8.48466e-10
1.27787e-09
-8.49638e-10
1.7038e-09
-8.48969e-10
2.1284e-09
-8.46935e-10
2.55144e-09
-8.44098e-10
2.97293e-09
-8.40692e-10
3.39268e-09
-8.36448e-10
3.80998e-09
-8.30625e-10
4.22346e-09
-8.22303e-10
4.6313e-09
-8.10794e-10
5.03157e-09
-7.95892e-10
5.42253e-09
-7.77813e-10
5.80276e-09
-7.56943e-10
6.17106e-09
-7.33619e-10
6.52634e-09
-7.08056e-10
6.86754e-09
-6.80403e-10
7.19368e-09
-6.50839e-10
7.50393e-09
-6.19621e-10
7.79759e-09
-5.87072e-10
8.07419e-09
-5.5355e-10
8.33344e-09
-5.19425e-10
8.57524e-09
-4.85069e-10
8.79969e-09
-4.50851e-10
9.00707e-09
-4.17118e-10
9.19781e-09
-3.84193e-10
9.3725e-09
-3.52352e-10
9.53185e-09
-3.21826e-10
9.67663e-09
-2.92794e-10
9.8077e-09
-2.6538e-10
9.92594e-09
-2.39666e-10
1.00322e-08
-2.15689e-10
1.01275e-08
-1.93452e-10
1.02125e-08
-1.7293e-10
1.02882e-08
-1.54074e-10
1.03554e-08
-1.36818e-10
1.04148e-08
-1.21083e-10
1.04672e-08
-1.06779e-10
1.05131e-08
-9.38138e-11
1.05533e-08
-8.2091e-11
1.05883e-08
-7.15147e-11
1.06186e-08
-6.19908e-11
1.06447e-08
-5.34286e-11
1.0667e-08
-4.57419e-11
1.0686e-08
-3.88496e-11
1.07019e-08
-3.26759e-11
1.0715e-08
-2.7151e-11
1.07258e-08
-2.22103e-11
1.07344e-08
-1.77954e-11
1.07411e-08
-1.38523e-11
1.0746e-08
-1.03327e-11
1.07494e-08
-7.19259e-12
1.07514e-08
-4.39188e-12
1.07522e-08
-1.89513e-12
1.07519e-08
3.30224e-13
1.07506e-08
2.31293e-12
1.07485e-08
4.07947e-12
1.07456e-08
5.65289e-12
1.07419e-08
7.05453e-12
1.07377e-08
8.30327e-12
1.0733e-08
9.41573e-12
1.07277e-08
1.04074e-11
1.0722e-08
1.12918e-11
1.07159e-08
1.20811e-11
1.07095e-08
1.27861e-11
1.07028e-08
1.34165e-11
1.06957e-08
1.39812e-11
1.06885e-08
1.44876e-11
1.0681e-08
1.49431e-11
1.06733e-08
1.53535e-11
1.06654e-08
1.57244e-11
1.06574e-08
1.60605e-11
1.06492e-08
1.63664e-11
1.06408e-08
1.6646e-11
1.06324e-08
1.69024e-11
1.06238e-08
1.71389e-11
1.06151e-08
1.7358e-11
1.06063e-08
1.75623e-11
1.05974e-08
1.77536e-11
1.05885e-08
1.79341e-11
1.05794e-08
1.81051e-11
1.05703e-08
1.82684e-11
1.05611e-08
1.84249e-11
1.05518e-08
1.85761e-11
1.05424e-08
1.87226e-11
1.0533e-08
1.88657e-11
1.05235e-08
1.90056e-11
1.05139e-08
1.91436e-11
1.05043e-08
1.92797e-11
1.04946e-08
1.94148e-11
1.04848e-08
1.95492e-11
1.04749e-08
1.96834e-11
1.0465e-08
1.98175e-11
1.04551e-08
1.99519e-11
1.0445e-08
2.0087e-11
1.04349e-08
2.02228e-11
1.04247e-08
2.03597e-11
1.04145e-08
2.04976e-11
1.04042e-08
2.0637e-11
1.03938e-08
2.07776e-11
1.03833e-08
2.09198e-11
1.03728e-08
2.10635e-11
1.03622e-08
2.12089e-11
1.03515e-08
2.13561e-11
1.03407e-08
2.15049e-11
1.03299e-08
2.16555e-11
1.0319e-08
2.1808e-11
1.0308e-08
2.19623e-11
1.0297e-08
2.21184e-11
1.02858e-08
2.22766e-11
1.02746e-08
2.24365e-11
1.02633e-08
2.25983e-11
1.02519e-08
2.2762e-11
1.02405e-08
2.29277e-11
1.02289e-08
2.30951e-11
1.02173e-08
2.32646e-11
1.02056e-08
2.34359e-11
1.01938e-08
2.3609e-11
1.01819e-08
2.37841e-11
1.01699e-08
2.39611e-11
1.01578e-08
2.41399e-11
1.01457e-08
2.43206e-11
1.01334e-08
2.4503e-11
1.01211e-08
2.46874e-11
1.01086e-08
2.48737e-11
1.00961e-08
2.50618e-11
1.00835e-08
2.52517e-11
1.00708e-08
2.54434e-11
1.00579e-08
2.56371e-11
1.0045e-08
2.58326e-11
1.0032e-08
2.603e-11
1.00189e-08
2.62293e-11
1.00057e-08
2.64304e-11
9.99236e-09
2.66335e-11
9.97894e-09
2.68387e-11
9.96542e-09
2.70456e-11
9.95179e-09
2.72549e-11
9.93806e-09
2.7466e-11
9.92422e-09
2.76794e-11
9.91027e-09
2.78951e-11
9.89621e-09
2.81132e-11
9.88205e-09
2.83337e-11
9.86777e-09
2.8557e-11
9.85338e-09
2.87831e-11
9.83887e-09
2.90126e-11
9.82425e-09
2.92456e-11
9.80951e-09
2.94825e-11
9.79465e-09
2.97239e-11
9.77966e-09
2.99706e-11
9.76455e-09
3.02234e-11
9.74931e-09
3.04832e-11
9.73393e-09
3.07518e-11
9.71842e-09
3.10304e-11
9.70276e-09
3.13217e-11
9.68695e-09
3.16283e-11
9.67097e-09
3.19538e-11
9.65482e-09
3.23028e-11
9.63848e-09
3.26813e-11
9.62194e-09
3.30968e-11
9.60516e-09
3.35592e-11
9.58813e-09
3.40812e-11
9.57079e-09
3.46791e-11
9.55311e-09
3.53746e-11
9.53503e-09
3.6196e-11
9.51645e-09
3.71805e-11
9.49728e-09
3.8378e-11
9.47737e-09
3.98553e-11
9.45655e-09
4.17033e-11
9.43456e-09
4.40469e-11
9.41108e-09
4.70622e-11
9.38565e-09
5.10004e-11
9.35764e-09
5.6232e-11
9.32613e-09
6.33226e-11
9.28977e-09
7.31733e-11
9.2465e-09
8.73076e-11
9.19294e-09
1.08504e-10
9.12322e-09
1.42372e-10
9.02621e-09
2.01857e-10
8.88024e-09
3.22247e-10
6.16379e-10
8.66484e-09
4.35839e-10
-1.28091e-09
8.71966e-10
-1.28459e-09
1.30632e-09
-1.28399e-09
1.73762e-09
-1.28027e-09
2.16496e-09
-1.27428e-09
2.58966e-09
-1.2688e-09
3.01381e-09
-1.26484e-09
3.43908e-09
-1.26171e-09
3.8653e-09
-1.25685e-09
4.29003e-09
-1.24704e-09
4.70945e-09
-1.23021e-09
5.12001e-09
-1.20645e-09
5.5194e-09
-1.1772e-09
5.90646e-09
-1.14401e-09
6.28052e-09
-1.10768e-09
6.64076e-09
-1.06829e-09
6.98605e-09
-1.0257e-09
7.31521e-09
-9.79999e-10
7.62722e-09
-9.31631e-10
7.92136e-09
-8.81204e-10
8.19715e-09
-8.29345e-10
8.45438e-09
-7.76655e-10
8.69304e-09
-7.23727e-10
8.91334e-09
-6.71147e-10
9.1157e-09
-6.19481e-10
9.30074e-09
-5.69238e-10
9.46924e-09
-5.20853e-10
9.62208e-09
-4.74667e-10
9.76022e-09
-4.30928e-10
9.88464e-09
-3.898e-10
9.99634e-09
-3.51372e-10
1.00963e-08
-3.15668e-10
1.01855e-08
-2.82666e-10
1.02649e-08
-2.523e-10
1.03353e-08
-2.24475e-10
1.03976e-08
-1.99073e-10
1.04524e-08
-1.7596e-10
1.05007e-08
-1.54991e-10
1.05429e-08
-1.36016e-10
1.05796e-08
-1.18883e-10
1.06116e-08
-1.03445e-10
1.06391e-08
-8.95563e-11
1.06628e-08
-7.70796e-11
1.06829e-08
-6.58853e-11
1.06999e-08
-5.58518e-11
1.07141e-08
-4.68668e-11
1.07258e-08
-3.88272e-11
1.07352e-08
-3.16381e-11
1.07427e-08
-2.52135e-11
1.07483e-08
-1.94751e-11
1.07523e-08
-1.4352e-11
1.07549e-08
-9.78002e-12
1.07562e-08
-5.70174e-12
1.07564e-08
-2.06481e-12
1.07555e-08
1.17743e-12
1.07538e-08
4.0674e-12
1.07512e-08
6.64268e-12
1.07479e-08
8.93749e-12
1.0744e-08
1.09824e-11
1.07395e-08
1.28045e-11
1.07345e-08
1.44288e-11
1.0729e-08
1.58771e-11
1.07231e-08
1.71694e-11
1.07169e-08
1.83231e-11
1.07103e-08
1.93541e-11
1.07035e-08
2.02766e-11
1.06963e-08
2.11034e-11
1.0689e-08
2.18455e-11
1.06814e-08
2.2513e-11
1.06736e-08
2.31152e-11
1.06657e-08
2.36597e-11
1.06576e-08
2.41537e-11
1.06494e-08
2.46038e-11
1.0641e-08
2.50152e-11
1.06325e-08
2.53932e-11
1.06239e-08
2.5742e-11
1.06152e-08
2.60657e-11
1.06064e-08
2.63677e-11
1.05975e-08
2.66509e-11
1.05885e-08
2.69184e-11
1.05794e-08
2.71722e-11
1.05703e-08
2.74146e-11
1.05611e-08
2.76474e-11
1.05518e-08
2.78723e-11
1.05424e-08
2.80906e-11
1.0533e-08
2.83038e-11
1.05235e-08
2.85128e-11
1.05139e-08
2.87186e-11
1.05043e-08
2.89223e-11
1.04945e-08
2.91241e-11
1.04848e-08
2.93252e-11
1.04749e-08
2.95259e-11
1.0465e-08
2.97267e-11
1.0455e-08
2.99281e-11
1.0445e-08
3.01304e-11
1.04349e-08
3.0334e-11
1.04247e-08
3.05391e-11
1.04145e-08
3.0746e-11
1.04041e-08
3.09547e-11
1.03938e-08
3.11657e-11
1.03833e-08
3.13789e-11
1.03728e-08
3.15944e-11
1.03622e-08
3.18125e-11
1.03515e-08
3.20331e-11
1.03407e-08
3.22564e-11
1.03299e-08
3.24824e-11
1.0319e-08
3.27111e-11
1.0308e-08
3.29427e-11
1.0297e-08
3.3177e-11
1.02858e-08
3.3414e-11
1.02746e-08
3.3654e-11
1.02633e-08
3.38968e-11
1.02519e-08
3.41423e-11
1.02405e-08
3.43908e-11
1.02289e-08
3.46422e-11
1.02173e-08
3.48963e-11
1.02056e-08
3.51532e-11
1.01938e-08
3.54131e-11
1.01819e-08
3.56757e-11
1.01699e-08
3.59411e-11
1.01578e-08
3.62093e-11
1.01457e-08
3.64804e-11
1.01334e-08
3.67541e-11
1.01211e-08
3.70308e-11
1.01086e-08
3.73101e-11
1.00961e-08
3.75923e-11
1.00835e-08
3.78772e-11
1.00708e-08
3.81649e-11
1.00579e-08
3.84554e-11
1.0045e-08
3.87487e-11
1.0032e-08
3.90447e-11
1.00189e-08
3.93437e-11
1.00057e-08
3.96455e-11
9.99236e-09
3.99502e-11
9.97894e-09
4.02577e-11
9.96542e-09
4.05683e-11
9.95179e-09
4.08819e-11
9.93806e-09
4.11988e-11
9.92422e-09
4.15189e-11
9.91027e-09
4.18423e-11
9.89622e-09
4.21693e-11
9.88205e-09
4.25001e-11
9.86777e-09
4.2835e-11
9.85338e-09
4.31741e-11
9.83887e-09
4.35182e-11
9.82425e-09
4.38674e-11
9.80951e-09
4.42225e-11
9.79465e-09
4.45845e-11
9.77967e-09
4.49542e-11
9.76456e-09
4.5333e-11
9.74932e-09
4.57223e-11
9.73395e-09
4.61243e-11
9.71844e-09
4.65417e-11
9.70278e-09
4.69776e-11
9.68697e-09
4.74362e-11
9.671e-09
4.7923e-11
9.65486e-09
4.84446e-11
9.63853e-09
4.901e-11
9.622e-09
4.96302e-11
9.60524e-09
5.03199e-11
9.58822e-09
5.10977e-11
9.57091e-09
5.19881e-11
9.55326e-09
5.30231e-11
9.53522e-09
5.42443e-11
9.51669e-09
5.5707e-11
9.49758e-09
5.74844e-11
9.47776e-09
5.96753e-11
9.45705e-09
6.24131e-11
9.43522e-09
6.58814e-11
9.41194e-09
7.03372e-11
9.3868e-09
7.61469e-11
9.35918e-09
8.38471e-11
9.32826e-09
9.42496e-11
9.29279e-09
1.08634e-10
9.25098e-09
1.29123e-10
9.2e-09
1.5948e-10
9.13544e-09
2.06932e-10
9.05056e-09
2.86741e-10
8.93867e-09
4.34137e-10
7.31714e-10
8.82334e-09
4.58957e-10
-1.73987e-09
9.13823e-10
-1.73946e-09
1.36112e-09
-1.73129e-09
1.80112e-09
-1.72027e-09
2.22516e-09
-1.69832e-09
2.6423e-09
-1.68594e-09
3.06198e-09
-1.68453e-09
3.49321e-09
-1.69294e-09
3.93785e-09
-1.70148e-09
4.38837e-09
-1.69756e-09
4.83228e-09
-1.67413e-09
5.26091e-09
-1.63508e-09
5.67192e-09
-1.58821e-09
6.06707e-09
-1.53916e-09
6.44857e-09
-1.48918e-09
6.81642e-09
-1.43614e-09
7.16861e-09
-1.37789e-09
7.50284e-09
-1.31423e-09
7.8176e-09
-1.24639e-09
8.11223e-09
-1.17583e-09
8.38646e-09
-1.10358e-09
8.64022e-09
-1.03042e-09
8.87362e-09
-9.57124e-10
9.08704e-09
-8.84568e-10
9.28117e-09
-8.13605e-10
9.45693e-09
-7.44999e-10
9.61543e-09
-6.79359e-10
9.75789e-09
-6.17119e-10
9.88552e-09
-5.58558e-10
9.99954e-09
-5.03825e-10
1.01011e-08
-4.52967e-10
1.01914e-08
-4.05953e-10
1.02714e-08
-3.62695e-10
1.03422e-08
-3.23057e-10
1.04046e-08
-2.86872e-10
1.04595e-08
-2.53949e-10
1.05076e-08
-2.24082e-10
1.05497e-08
-1.97056e-10
1.05863e-08
-1.72655e-10
1.06181e-08
-1.50666e-10
1.06455e-08
-1.30882e-10
1.06691e-08
-1.13106e-10
1.06891e-08
-9.71534e-11
1.07061e-08
-8.28496e-11
1.07203e-08
-7.0035e-11
1.0732e-08
-5.85629e-11
1.07415e-08
-4.82985e-11
1.07489e-08
-3.91199e-11
1.07546e-08
-3.0916e-11
1.07588e-08
-2.35867e-11
1.07614e-08
-1.70415e-11
1.07629e-08
-1.11985e-11
1.07632e-08
-5.98445e-12
1.07624e-08
-1.33273e-12
1.07608e-08
2.8159e-12
1.07583e-08
6.5152e-12
1.07552e-08
9.81334e-12
1.07513e-08
1.27536e-11
1.0747e-08
1.53747e-11
1.0742e-08
1.77118e-11
1.07367e-08
1.97962e-11
1.07309e-08
2.16558e-11
1.07248e-08
2.33159e-11
1.07183e-08
2.47991e-11
1.07115e-08
2.61254e-11
1.07045e-08
2.73133e-11
1.06972e-08
2.83785e-11
1.06897e-08
2.93356e-11
1.0682e-08
3.01974e-11
1.06742e-08
3.09755e-11
1.06661e-08
3.168e-11
1.0658e-08
3.23201e-11
1.06497e-08
3.29037e-11
1.06413e-08
3.34381e-11
1.06327e-08
3.39298e-11
1.06241e-08
3.43844e-11
1.06153e-08
3.48065e-11
1.06065e-08
3.52013e-11
1.05976e-08
3.55721e-11
1.05886e-08
3.59227e-11
1.05795e-08
3.62559e-11
1.05703e-08
3.65748e-11
1.05611e-08
3.68815e-11
1.05518e-08
3.71779e-11
1.05424e-08
3.74665e-11
1.0533e-08
3.77482e-11
1.05235e-08
3.80249e-11
1.05139e-08
3.82976e-11
1.05042e-08
3.85676e-11
1.04945e-08
3.88357e-11
1.04847e-08
3.91027e-11
1.04749e-08
3.93694e-11
1.0465e-08
3.96365e-11
1.0455e-08
3.99045e-11
1.0445e-08
4.01737e-11
1.04349e-08
4.04447e-11
1.04247e-08
4.07179e-11
1.04144e-08
4.09935e-11
1.04041e-08
4.12716e-11
1.03937e-08
4.15528e-11
1.03833e-08
4.18369e-11
1.03727e-08
4.21243e-11
1.03621e-08
4.24151e-11
1.03515e-08
4.27092e-11
1.03407e-08
4.30069e-11
1.03299e-08
4.33082e-11
1.0319e-08
4.36133e-11
1.0308e-08
4.39219e-11
1.02969e-08
4.42344e-11
1.02858e-08
4.45506e-11
1.02746e-08
4.48705e-11
1.02633e-08
4.51943e-11
1.02519e-08
4.55219e-11
1.02405e-08
4.58532e-11
1.02289e-08
4.61883e-11
1.02173e-08
4.65274e-11
1.02056e-08
4.687e-11
1.01938e-08
4.72164e-11
1.01819e-08
4.75667e-11
1.01699e-08
4.79207e-11
1.01578e-08
4.82782e-11
1.01457e-08
4.86398e-11
1.01334e-08
4.90048e-11
1.01211e-08
4.93737e-11
1.01086e-08
4.97462e-11
1.00961e-08
5.01224e-11
1.00835e-08
5.05024e-11
1.00708e-08
5.08859e-11
1.00579e-08
5.12734e-11
1.0045e-08
5.16644e-11
1.0032e-08
5.20592e-11
1.00189e-08
5.24577e-11
1.00057e-08
5.28602e-11
9.99236e-09
5.32664e-11
9.97894e-09
5.36764e-11
9.96542e-09
5.40907e-11
9.95179e-09
5.45088e-11
9.93806e-09
5.49312e-11
9.92422e-09
5.53578e-11
9.91027e-09
5.57891e-11