/*--------------------------------*- C++ -*----------------------------------*\
  =========                 |
  \\      /  F ield         | OpenFOAM: The Open Source CFD Toolbox
   \\    /   O peration     | Website:  https://openfoam.org
    \\  /    A nd           | Version:  10
     \\/     M anipulation  |
\*---------------------------------------------------------------------------*/
FoamFile
{
    format      ascii;
    class       volVectorField;
    location    "16400";
    object      Ua;
}
// * * * * * * * * * * * * * * * * * * * * * * * * * * * * * * * * * * * * * //

dimensions      [0 1 -1 0 0 0 0];

internalField   nonuniform List<vector> 
6400
(
(-4.10241e-07 8.33894e-08 0)
(-1.23978e-06 8.523e-08 0)
(-2.09749e-06 8.91153e-08 0)
(-3.00576e-06 9.55093e-08 0)
(-3.99354e-06 1.05275e-07 0)
(-5.10169e-06 1.19979e-07 0)
(-6.39329e-06 1.42563e-07 0)
(-7.97458e-06 1.78863e-07 0)
(-1.0036e-05 2.40156e-07 0)
(-1.27855e-05 3.18728e-07 0)
(-1.088e-05 -6.88863e-07 0)
(-3.80929e-06 4.76207e-05 0)
(-1.30629e-07 1.05964e-06 0)
(-3.61295e-08 2.74166e-07 0)
(-1.87858e-08 1.4235e-07 0)
(-1.23677e-08 9.29864e-08 0)
(-9.02998e-09 6.78704e-08 0)
(-7.03194e-09 5.30199e-08 0)
(-5.77373e-09 4.32628e-08 0)
(-4.85169e-09 3.64703e-08 0)
(-4.15217e-09 3.15113e-08 0)
(-3.61581e-09 2.77563e-08 0)
(-3.22772e-09 2.48214e-08 0)
(-2.92243e-09 2.24944e-08 0)
(-2.65818e-09 2.05901e-08 0)
(-2.42325e-09 1.90134e-08 0)
(-2.22055e-09 1.77116e-08 0)
(-2.05451e-09 1.66146e-08 0)
(-1.90731e-09 1.56901e-08 0)
(-1.77385e-09 1.48909e-08 0)
(-1.65328e-09 1.41957e-08 0)
(-1.52528e-09 1.3594e-08 0)
(-1.41273e-09 1.3105e-08 0)
(-1.31637e-09 1.29071e-08 0)
(-1.19706e-09 1.27284e-08 0)
(-1.0489e-09 1.2572e-08 0)
(-8.6755e-10 1.24397e-08 0)
(-6.51998e-10 1.23393e-08 0)
(-4.05539e-10 1.22744e-08 0)
(-1.37646e-10 1.22205e-08 0)
(1.37646e-10 1.22205e-08 0)
(4.05539e-10 1.22744e-08 0)
(6.51998e-10 1.23393e-08 0)
(8.6755e-10 1.24397e-08 0)
(1.0489e-09 1.2572e-08 0)
(1.19706e-09 1.27284e-08 0)
(1.31637e-09 1.29071e-08 0)
(1.41273e-09 1.3105e-08 0)
(1.52528e-09 1.3594e-08 0)
(1.65328e-09 1.41957e-08 0)
(1.77385e-09 1.48909e-08 0)
(1.90731e-09 1.56901e-08 0)
(2.05451e-09 1.66146e-08 0)
(2.22055e-09 1.77116e-08 0)
(2.42325e-09 1.90134e-08 0)
(2.65818e-09 2.05901e-08 0)
(2.92243e-09 2.24944e-08 0)
(3.22772e-09 2.48214e-08 0)
(3.61581e-09 2.77563e-08 0)
(4.15217e-09 3.15113e-08 0)
(4.85169e-09 3.64703e-08 0)
(5.77373e-09 4.32628e-08 0)
(7.03194e-09 5.30199e-08 0)
(9.02998e-09 6.78704e-08 0)
(1.23677e-08 9.29864e-08 0)
(1.87858e-08 1.4235e-07 0)
(3.61295e-08 2.74166e-07 0)
(1.30629e-07 1.05964e-06 0)
(3.80929e-06 4.76207e-05 0)
(1.088e-05 -6.88863e-07 0)
(1.27855e-05 3.18728e-07 0)
(1.0036e-05 2.40156e-07 0)
(7.97458e-06 1.78863e-07 0)
(6.39329e-06 1.42563e-07 0)
(5.10169e-06 1.19979e-07 0)
(3.99354e-06 1.05275e-07 0)
(3.00576e-06 9.55093e-08 0)
(2.09749e-06 8.91153e-08 0)
(1.23978e-06 8.523e-08 0)
(4.10241e-07 8.33894e-08 0)
(-4.09849e-07 2.58155e-07 0)
(-1.23856e-06 2.63845e-07 0)
(-2.0953e-06 2.75855e-07 0)
(-3.00232e-06 2.95615e-07 0)
(-3.98832e-06 3.25783e-07 0)
(-5.09375e-06 3.71179e-07 0)
(-6.38074e-06 4.40841e-07 0)
(-7.95378e-06 5.5272e-07 0)
(-1.00062e-05 7.42901e-07 0)
(-1.29855e-05 1.03911e-06 0)
(-2.19644e-05 2.22466e-07 0)
(-1.8353e-05 2.47572e-05 0)
(-4.06009e-06 1.19163e-05 0)
(-3.22962e-07 1.32793e-06 0)
(-6.61147e-08 3.48273e-07 0)
(-3.47762e-08 1.8267e-07 0)
(-2.34314e-08 1.23628e-07 0)
(-1.75554e-08 9.34866e-08 0)
(-1.41337e-08 7.48919e-08 0)
(-1.17285e-08 6.24763e-08 0)
(-9.95523e-09 5.35994e-08 0)
(-8.61808e-09 4.70224e-08 0)
(-7.66647e-09 4.19341e-08 0)
(-6.92576e-09 3.79112e-08 0)
(-6.28966e-09 3.46488e-08 0)
(-5.72628e-09 3.19563e-08 0)
(-5.24164e-09 2.97529e-08 0)
(-4.8479e-09 2.78979e-08 0)
(-4.49898e-09 2.63304e-08 0)
(-4.1837e-09 2.49868e-08 0)
(-3.90259e-09 2.3817e-08 0)
(-3.60757e-09 2.27978e-08 0)
(-3.34934e-09 2.19632e-08 0)
(-3.12832e-09 2.16207e-08 0)
(-2.85348e-09 2.13087e-08 0)
(-2.50936e-09 2.10331e-08 0)
(-2.08347e-09 2.07989e-08 0)
(-1.57122e-09 2.06203e-08 0)
(-9.79773e-10 2.05025e-08 0)
(-3.32992e-10 2.04086e-08 0)
(3.32992e-10 2.04086e-08 0)
(9.79773e-10 2.05025e-08 0)
(1.57122e-09 2.06203e-08 0)
(2.08347e-09 2.07989e-08 0)
(2.50936e-09 2.10331e-08 0)
(2.85348e-09 2.13087e-08 0)
(3.12832e-09 2.16207e-08 0)
(3.34934e-09 2.19632e-08 0)
(3.60757e-09 2.27978e-08 0)
(3.90259e-09 2.3817e-08 0)
(4.1837e-09 2.49868e-08 0)
(4.49898e-09 2.63304e-08 0)
(4.8479e-09 2.78979e-08 0)
(5.24164e-09 2.97529e-08 0)
(5.72628e-09 3.19563e-08 0)
(6.28966e-09 3.46488e-08 0)
(6.92576e-09 3.79112e-08 0)
(7.66647e-09 4.19341e-08 0)
(8.61808e-09 4.70224e-08 0)
(9.95523e-09 5.35994e-08 0)
(1.17285e-08 6.24763e-08 0)
(1.41337e-08 7.48919e-08 0)
(1.75554e-08 9.34866e-08 0)
(2.34314e-08 1.23628e-07 0)
(3.47762e-08 1.8267e-07 0)
(6.61147e-08 3.48273e-07 0)
(3.22962e-07 1.32793e-06 0)
(4.06009e-06 1.19163e-05 0)
(1.8353e-05 2.47572e-05 0)
(2.19644e-05 2.22466e-07 0)
(1.29855e-05 1.03911e-06 0)
(1.00062e-05 7.42901e-07 0)
(7.95378e-06 5.5272e-07 0)
(6.38074e-06 4.40841e-07 0)
(5.09375e-06 3.71179e-07 0)
(3.98832e-06 3.25783e-07 0)
(3.00232e-06 2.95615e-07 0)
(2.0953e-06 2.75855e-07 0)
(1.23856e-06 2.63845e-07 0)
(4.09849e-07 2.58155e-07 0)
(-4.08949e-07 4.49534e-07 0)
(-1.23576e-06 4.59413e-07 0)
(-2.09027e-06 4.80258e-07 0)
(-2.99443e-06 5.14534e-07 0)
(-3.97638e-06 5.6682e-07 0)
(-5.07557e-06 6.45391e-07 0)
(-6.35207e-06 7.65718e-07 0)
(-7.90598e-06 9.58542e-07 0)
(-9.92517e-06 1.28843e-06 0)
(-1.289e-05 1.88285e-06 0)
(-1.95205e-05 3.00199e-06 0)
(-1.8086e-05 2.08219e-05 0)
(-7.02165e-06 2.16537e-05 0)
(-3.16067e-06 7.52442e-06 0)
(-2.1567e-06 8.27928e-06 0)
(-1.36932e-07 7.6398e-07 0)
(-5.36033e-08 3.09827e-07 0)
(-3.47847e-08 2.0435e-07 0)
(-2.64495e-08 1.54517e-07 0)
(-2.12721e-08 1.2523e-07 0)
(-1.77254e-08 1.05598e-07 0)
(-1.51543e-08 9.17131e-08 0)
(-1.33932e-08 8.12564e-08 0)
(-1.20493e-08 7.3104e-08 0)
(-1.09095e-08 6.66065e-08 0)
(-9.90668e-09 6.1289e-08 0)
(-9.04918e-09 5.69927e-08 0)
(-8.36554e-09 5.33898e-08 0)
(-7.75877e-09 5.03448e-08 0)
(-7.21272e-09 4.7764e-08 0)
(-6.73838e-09 4.55218e-08 0)
(-6.25182e-09 4.35665e-08 0)
(-5.82967e-09 4.19642e-08 0)
(-5.46829e-09 4.13069e-08 0)
(-5.01507e-09 4.07105e-08 0)
(-4.43844e-09 4.01861e-08 0)
(-3.70969e-09 3.97453e-08 0)
(-2.81434e-09 3.94126e-08 0)
(-1.76273e-09 3.91929e-08 0)
(-6.00496e-10 3.90195e-08 0)
(6.00496e-10 3.90195e-08 0)
(1.76273e-09 3.91929e-08 0)
(2.81434e-09 3.94126e-08 0)
(3.70969e-09 3.97453e-08 0)
(4.43844e-09 4.01861e-08 0)
(5.01507e-09 4.07105e-08 0)
(5.46829e-09 4.13069e-08 0)
(5.82967e-09 4.19642e-08 0)
(6.25182e-09 4.35665e-08 0)
(6.73838e-09 4.55218e-08 0)
(7.21272e-09 4.7764e-08 0)
(7.75877e-09 5.03448e-08 0)
(8.36554e-09 5.33898e-08 0)
(9.04918e-09 5.69927e-08 0)
(9.90668e-09 6.1289e-08 0)
(1.09095e-08 6.66065e-08 0)
(1.20493e-08 7.3104e-08 0)
(1.33932e-08 8.12564e-08 0)
(1.51543e-08 9.17131e-08 0)
(1.77254e-08 1.05598e-07 0)
(2.12721e-08 1.2523e-07 0)
(2.64495e-08 1.54517e-07 0)
(3.47847e-08 2.0435e-07 0)
(5.36033e-08 3.09827e-07 0)
(1.36932e-07 7.6398e-07 0)
(2.1567e-06 8.27928e-06 0)
(3.16067e-06 7.52442e-06 0)
(7.02165e-06 2.16537e-05 0)
(1.8086e-05 2.08219e-05 0)
(1.95205e-05 3.00199e-06 0)
(1.289e-05 1.88285e-06 0)
(9.92517e-06 1.28843e-06 0)
(7.90598e-06 9.58542e-07 0)
(6.35207e-06 7.65718e-07 0)
(5.07557e-06 6.45391e-07 0)
(3.97638e-06 5.6682e-07 0)
(2.99443e-06 5.14534e-07 0)
(2.09027e-06 4.80258e-07 0)
(1.23576e-06 4.59413e-07 0)
(4.08949e-07 4.49534e-07 0)
(-4.07403e-07 6.5881e-07 0)
(-1.23095e-06 6.73213e-07 0)
(-2.08165e-06 7.03589e-07 0)
(-2.98089e-06 7.53493e-07 0)
(-3.95593e-06 8.29506e-07 0)
(-5.04452e-06 9.43472e-07 0)
(-6.30323e-06 1.1174e-06 0)
(-7.82439e-06 1.39485e-06 0)
(-9.77704e-06 1.86962e-06 0)
(-1.25554e-05 2.77188e-06 0)
(-1.73456e-05 5.01913e-06 0)
(-1.59969e-05 1.80922e-05 0)
(-7.82854e-06 1.94869e-05 0)
(-5.97428e-06 1.31607e-05 0)
(-7.61122e-06 1.59494e-05 0)
(-4.24562e-06 1.18068e-05 0)
(-6.14102e-07 2.15329e-06 0)
(-1.0295e-07 6.35224e-07 0)
(-5.20017e-08 3.14305e-07 0)
(-3.67064e-08 2.25169e-07 0)
(-2.88727e-08 1.79823e-07 0)
(-2.3905e-08 1.52009e-07 0)
(-2.08036e-08 1.32611e-07 0)
(-1.85477e-08 1.18102e-07 0)
(-1.66864e-08 1.06933e-07 0)
(-1.5075e-08 9.79505e-08 0)
(-1.37143e-08 9.08601e-08 0)
(-1.26677e-08 8.49657e-08 0)
(-1.1735e-08 7.99952e-08 0)
(-1.09e-08 7.5857e-08 0)
(-1.02069e-08 7.2277e-08 0)
(-9.5241e-09 6.91568e-08 0)
(-8.94164e-09 6.66021e-08 0)
(-8.4435e-09 6.55566e-08 0)
(-7.81008e-09 6.46111e-08 0)
(-6.98155e-09 6.37812e-08 0)
(-5.89597e-09 6.30867e-08 0)
(-4.51459e-09 6.25637e-08 0)
(-2.84728e-09 6.2214e-08 0)
(-9.73539e-10 6.19438e-08 0)
(9.73539e-10 6.19438e-08 0)
(2.84728e-09 6.2214e-08 0)
(4.51459e-09 6.25637e-08 0)
(5.89597e-09 6.30867e-08 0)
(6.98155e-09 6.37812e-08 0)
(7.81008e-09 6.46111e-08 0)
(8.4435e-09 6.55566e-08 0)
(8.94164e-09 6.66021e-08 0)
(9.5241e-09 6.91568e-08 0)
(1.02069e-08 7.2277e-08 0)
(1.09e-08 7.5857e-08 0)
(1.1735e-08 7.99952e-08 0)
(1.26677e-08 8.49657e-08 0)
(1.37143e-08 9.08601e-08 0)
(1.5075e-08 9.79505e-08 0)
(1.66864e-08 1.06933e-07 0)
(1.85477e-08 1.18102e-07 0)
(2.08036e-08 1.32611e-07 0)
(2.3905e-08 1.52009e-07 0)
(2.88727e-08 1.79823e-07 0)
(3.67064e-08 2.25169e-07 0)
(5.20017e-08 3.14305e-07 0)
(1.0295e-07 6.35224e-07 0)
(6.14102e-07 2.15329e-06 0)
(4.24562e-06 1.18068e-05 0)
(7.61122e-06 1.59494e-05 0)
(5.97428e-06 1.31607e-05 0)
(7.82854e-06 1.94869e-05 0)
(1.59969e-05 1.80922e-05 0)
(1.73456e-05 5.01913e-06 0)
(1.25554e-05 2.77188e-06 0)
(9.77704e-06 1.86962e-06 0)
(7.82439e-06 1.39485e-06 0)
(6.30323e-06 1.1174e-06 0)
(5.04452e-06 9.43472e-07 0)
(3.95593e-06 8.29506e-07 0)
(2.98089e-06 7.53493e-07 0)
(2.08165e-06 7.03589e-07 0)
(1.23095e-06 6.73213e-07 0)
(4.07403e-07 6.5881e-07 0)
(-4.05049e-07 8.87241e-07 0)
(-1.22363e-06 9.06486e-07 0)
(-2.06853e-06 9.47043e-07 0)
(-2.96033e-06 1.01358e-06 0)
(-3.92494e-06 1.11471e-06 0)
(-4.99762e-06 1.26581e-06 0)
(-6.22987e-06 1.49518e-06 0)
(-7.70236e-06 1.85825e-06 0)
(-9.55229e-06 2.47417e-06 0)
(-1.20368e-05 3.64343e-06 0)
(-1.5423e-05 6.42854e-06 0)
(-1.42199e-05 1.59671e-05 0)
(-8.28379e-06 1.76748e-05 0)
(-6.33999e-06 1.39037e-05 0)
(-6.95405e-06 1.58261e-05 0)
(-1.38406e-06 2.07877e-05 0)
(-3.40525e-06 6.03156e-06 0)
(-5.84297e-06 1.42558e-05 0)
(-5.35364e-07 1.71359e-06 0)
(-1.06912e-07 6.35052e-07 0)
(-5.3947e-08 3.37872e-07 0)
(-3.85039e-08 2.50102e-07 0)
(-3.15295e-08 2.05943e-07 0)
(-2.72704e-08 1.77945e-07 0)
(-2.4098e-08 1.58466e-07 0)
(-2.15115e-08 1.4362e-07 0)
(-1.94008e-08 1.32482e-07 0)
(-1.7883e-08 1.23421e-07 0)
(-1.65232e-08 1.15853e-07 0)
(-1.53155e-08 1.09741e-07 0)
(-1.43867e-08 1.04498e-07 0)
(-1.3533e-08 9.99492e-08 0)
(-1.2829e-08 9.62406e-08 0)
(-1.22319e-08 9.47327e-08 0)
(-1.14575e-08 9.33722e-08 0)
(-1.03955e-08 9.21712e-08 0)
(-8.91472e-09 9.1154e-08 0)
(-6.91985e-09 9.03757e-08 0)
(-4.40916e-09 8.98377e-08 0)
(-1.51584e-09 8.94371e-08 0)
(1.51584e-09 8.94371e-08 0)
(4.40916e-09 8.98377e-08 0)
(6.91985e-09 9.03757e-08 0)
(8.91472e-09 9.1154e-08 0)
(1.03955e-08 9.21712e-08 0)
(1.14575e-08 9.33722e-08 0)
(1.22319e-08 9.47327e-08 0)
(1.2829e-08 9.62406e-08 0)
(1.3533e-08 9.99492e-08 0)
(1.43867e-08 1.04498e-07 0)
(1.53155e-08 1.09741e-07 0)
(1.65232e-08 1.15853e-07 0)
(1.7883e-08 1.23421e-07 0)
(1.94008e-08 1.32482e-07 0)
(2.15115e-08 1.4362e-07 0)
(2.4098e-08 1.58466e-07 0)
(2.72704e-08 1.77945e-07 0)
(3.15295e-08 2.05943e-07 0)
(3.85039e-08 2.50102e-07 0)
(5.3947e-08 3.37872e-07 0)
(1.06912e-07 6.35052e-07 0)
(5.35364e-07 1.71359e-06 0)
(5.84297e-06 1.42558e-05 0)
(3.40525e-06 6.03156e-06 0)
(1.38406e-06 2.07877e-05 0)
(6.95405e-06 1.58261e-05 0)
(6.33999e-06 1.39037e-05 0)
(8.28379e-06 1.76748e-05 0)
(1.42199e-05 1.59671e-05 0)
(1.5423e-05 6.42854e-06 0)
(1.20368e-05 3.64343e-06 0)
(9.55229e-06 2.47417e-06 0)
(7.70236e-06 1.85825e-06 0)
(6.22987e-06 1.49518e-06 0)
(4.99762e-06 1.26581e-06 0)
(3.92494e-06 1.11471e-06 0)
(2.96033e-06 1.01358e-06 0)
(2.06853e-06 9.47043e-07 0)
(1.22363e-06 9.06486e-07 0)
(4.05049e-07 8.87241e-07 0)
(-4.01696e-07 1.13601e-06 0)
(-1.21322e-06 1.16038e-06 0)
(-2.04989e-06 1.21167e-06 0)
(-2.93117e-06 1.29567e-06 0)
(-3.88114e-06 1.42293e-06 0)
(-4.93171e-06 1.61215e-06 0)
(-6.12761e-06 1.89723e-06 0)
(-7.53426e-06 2.34326e-06 0)
(-9.24821e-06 3.08642e-06 0)
(-1.1386e-05 4.45189e-06 0)
(-1.37307e-05 7.37283e-06 0)
(-1.27003e-05 1.43364e-05 0)
(-8.42088e-06 1.61783e-05 0)
(-6.50903e-06 1.42114e-05 0)
(-6.17299e-06 1.55906e-05 0)
(-2.55008e-06 1.82157e-05 0)
(-4.51947e-06 9.83404e-06 0)
(-7.17884e-07 2.4652e-05 0)
(-3.10788e-07 5.73367e-06 0)
(-5.13251e-06 1.18654e-05 0)
(-8.42167e-07 2.4287e-06 0)
(-1.36811e-07 7.26723e-07 0)
(-6.21214e-08 4.0285e-07 0)
(-4.38133e-08 2.85501e-07 0)
(-3.54638e-08 2.34889e-07 0)
(-3.02962e-08 2.04721e-07 0)
(-2.66213e-08 1.85345e-07 0)
(-2.43331e-08 1.70806e-07 0)
(-2.2321e-08 1.59165e-07 0)
(-2.05749e-08 1.50323e-07 0)
(-1.93929e-08 1.429e-07 0)
(-1.84333e-08 1.36557e-07 0)
(-1.76994e-08 1.31456e-07 0)
(-1.71003e-08 1.29414e-07 0)
(-1.63065e-08 1.27577e-07 0)
(-1.51177e-08 1.2592e-07 0)
(-1.32538e-08 1.24453e-07 0)
(-1.04903e-08 1.23278e-07 0)
(-6.78337e-09 1.2241e-07 0)
(-2.35051e-09 1.21795e-07 0)
(2.35051e-09 1.21795e-07 0)
(6.78337e-09 1.2241e-07 0)
(1.04903e-08 1.23278e-07 0)
(1.32538e-08 1.24453e-07 0)
(1.51177e-08 1.2592e-07 0)
(1.63065e-08 1.27577e-07 0)
(1.71003e-08 1.29414e-07 0)
(1.76994e-08 1.31456e-07 0)
(1.84333e-08 1.36557e-07 0)
(1.93929e-08 1.429e-07 0)
(2.05749e-08 1.50323e-07 0)
(2.2321e-08 1.59165e-07 0)
(2.43331e-08 1.70806e-07 0)
(2.66213e-08 1.85345e-07 0)
(3.02962e-08 2.04721e-07 0)
(3.54638e-08 2.34889e-07 0)
(4.38133e-08 2.85501e-07 0)
(6.21214e-08 4.0285e-07 0)
(1.36811e-07 7.26723e-07 0)
(8.42167e-07 2.4287e-06 0)
(5.13251e-06 1.18654e-05 0)
(3.10788e-07 5.73367e-06 0)
(7.17884e-07 2.4652e-05 0)
(4.51947e-06 9.83404e-06 0)
(2.55008e-06 1.82157e-05 0)
(6.17299e-06 1.55906e-05 0)
(6.50903e-06 1.42114e-05 0)
(8.42088e-06 1.61783e-05 0)
(1.27003e-05 1.43364e-05 0)
(1.37307e-05 7.37283e-06 0)
(1.1386e-05 4.45189e-06 0)
(9.24821e-06 3.08642e-06 0)
(7.53426e-06 2.34326e-06 0)
(6.12761e-06 1.89723e-06 0)
(4.93171e-06 1.61215e-06 0)
(3.88114e-06 1.42293e-06 0)
(2.93117e-06 1.29567e-06 0)
(2.04989e-06 1.21167e-06 0)
(1.21322e-06 1.16038e-06 0)
(4.01696e-07 1.13601e-06 0)
(-3.97131e-07 1.40618e-06 0)
(-1.19905e-06 1.43588e-06 0)
(-2.02457e-06 1.49831e-06 0)
(-2.89169e-06 1.60028e-06 0)
(-3.82212e-06 1.75413e-06 0)
(-4.84355e-06 1.98142e-06 0)
(-5.99245e-06 2.32044e-06 0)
(-7.31634e-06 2.84248e-06 0)
(-8.86841e-06 3.68954e-06 0)
(-1.06497e-05 5.16901e-06 0)
(-1.2243e-05 7.97616e-06 0)
(-1.13882e-05 1.30981e-05 0)
(-8.31281e-06 1.49473e-05 0)
(-6.52243e-06 1.41919e-05 0)
(-5.67508e-06 1.52019e-05 0)
(-3.21856e-06 1.6566e-05 0)
(-3.74577e-06 1.23057e-05 0)
(-1.22617e-06 2.00619e-05 0)
(-6.79602e-07 9.99898e-06 0)
(1.35266e-06 2.04971e-05 0)
(2.41918e-06 6.28031e-06 0)
(-6.14168e-06 5.93894e-06 0)
(-4.91342e-06 1.29477e-05 0)
(-2.70506e-07 9.91793e-07 0)
(-9.08224e-08 5.40546e-07 0)
(-5.20481e-08 3.42769e-07 0)
(-3.91227e-08 2.73011e-07 0)
(-3.37184e-08 2.37528e-07 0)
(-2.99204e-08 2.14766e-07 0)
(-2.70226e-08 2.00218e-07 0)
(-2.54573e-08 1.89052e-07 0)
(-2.44635e-08 1.80056e-07 0)
(-2.38473e-08 1.73141e-07 0)
(-2.34334e-08 1.70487e-07 0)
(-2.29039e-08 1.68124e-07 0)
(-2.19047e-08 1.65896e-07 0)
(-1.98163e-08 1.63692e-07 0)
(-1.61168e-08 1.61798e-07 0)
(-1.06425e-08 1.60238e-07 0)
(-3.72913e-09 1.59184e-07 0)
(3.72913e-09 1.59184e-07 0)
(1.06425e-08 1.60238e-07 0)
(1.61168e-08 1.61798e-07 0)
(1.98163e-08 1.63692e-07 0)
(2.19047e-08 1.65896e-07 0)
(2.29039e-08 1.68124e-07 0)
(2.34334e-08 1.70487e-07 0)
(2.38473e-08 1.73141e-07 0)
(2.44635e-08 1.80056e-07 0)
(2.54573e-08 1.89052e-07 0)
(2.70226e-08 2.00218e-07 0)
(2.99204e-08 2.14766e-07 0)
(3.37184e-08 2.37528e-07 0)
(3.91227e-08 2.73011e-07 0)
(5.20481e-08 3.42769e-07 0)
(9.08224e-08 5.40546e-07 0)
(2.70506e-07 9.91793e-07 0)
(4.91342e-06 1.29477e-05 0)
(6.14168e-06 5.93894e-06 0)
(-2.41918e-06 6.28031e-06 0)
(-1.35266e-06 2.04971e-05 0)
(6.79602e-07 9.99898e-06 0)
(1.22617e-06 2.00619e-05 0)
(3.74577e-06 1.23057e-05 0)
(3.21856e-06 1.6566e-05 0)
(5.67508e-06 1.52019e-05 0)
(6.52243e-06 1.41919e-05 0)
(8.31281e-06 1.49473e-05 0)
(1.13882e-05 1.30981e-05 0)
(1.2243e-05 7.97616e-06 0)
(1.06497e-05 5.16901e-06 0)
(8.86841e-06 3.68954e-06 0)
(7.31634e-06 2.84248e-06 0)
(5.99245e-06 2.32044e-06 0)
(4.84355e-06 1.98142e-06 0)
(3.82212e-06 1.75413e-06 0)
(2.89169e-06 1.60028e-06 0)
(2.02457e-06 1.49831e-06 0)
(1.19905e-06 1.43588e-06 0)
(3.97131e-07 1.40618e-06 0)
(-3.91119e-07 1.69855e-06 0)
(-1.18041e-06 1.7337e-06 0)
(-1.99134e-06 1.80744e-06 0)
(-2.84007e-06 1.92749e-06 0)
(-3.74543e-06 2.10766e-06 0)
(-4.73012e-06 2.37163e-06 0)
(-5.82121e-06 2.76038e-06 0)
(-7.04736e-06 3.34705e-06 0)
(-8.42173e-06 4.26776e-06 0)
(-9.8668e-06 5.78217e-06 0)
(-1.09327e-05 8.34066e-06 0)
(-1.02407e-05 1.21625e-05 0)
(-8.02552e-06 1.39346e-05 0)
(-6.41329e-06 1.39451e-05 0)
(-5.34028e-06 1.47322e-05 0)
(-3.55995e-06 1.54752e-05 0)
(-3.29725e-06 1.34812e-05 0)
(-1.52458e-06 1.73066e-05 0)
(-6.96417e-07 1.22393e-05 0)
(7.26175e-07 1.69853e-05 0)
(1.05107e-06 9.28855e-06 0)
(-3.68137e-06 1.1441e-05 0)
(2.12162e-06 2.2384e-05 0)
(1.30632e-06 4.89753e-06 0)
(-4.77234e-06 1.05342e-05 0)
(-1.3518e-06 3.20829e-06 0)
(-1.9297e-07 8.0205e-07 0)
(-8.05159e-08 4.94315e-07 0)
(-4.92867e-08 3.41633e-07 0)
(-3.80057e-08 2.81754e-07 0)
(-3.39963e-08 2.52245e-07 0)
(-3.23906e-08 2.34684e-07 0)
(-3.18638e-08 2.2372e-07 0)
(-3.1854e-08 2.19974e-07 0)
(-3.21422e-08 2.16851e-07 0)
(-3.21459e-08 2.13779e-07 0)
(-3.03844e-08 2.10015e-07 0)
(-2.56407e-08 2.06665e-07 0)
(-1.74484e-08 2.03432e-07 0)
(-6.21055e-09 2.01303e-07 0)
(6.21055e-09 2.01303e-07 0)
(1.74484e-08 2.03432e-07 0)
(2.56407e-08 2.06665e-07 0)
(3.03844e-08 2.10015e-07 0)
(3.21459e-08 2.13779e-07 0)
(3.21422e-08 2.16851e-07 0)
(3.1854e-08 2.19974e-07 0)
(3.18638e-08 2.2372e-07 0)
(3.23906e-08 2.34684e-07 0)
(3.39963e-08 2.52245e-07 0)
(3.80057e-08 2.81754e-07 0)
(4.92867e-08 3.41633e-07 0)
(8.05159e-08 4.94315e-07 0)
(1.9297e-07 8.0205e-07 0)
(1.3518e-06 3.20829e-06 0)
(4.77234e-06 1.05342e-05 0)
(-1.30632e-06 4.89753e-06 0)
(-2.12162e-06 2.2384e-05 0)
(3.68137e-06 1.1441e-05 0)
(-1.05107e-06 9.28855e-06 0)
(-7.26175e-07 1.69853e-05 0)
(6.96417e-07 1.22393e-05 0)
(1.52458e-06 1.73066e-05 0)
(3.29725e-06 1.34812e-05 0)
(3.55995e-06 1.54752e-05 0)
(5.34028e-06 1.47322e-05 0)
(6.41329e-06 1.39451e-05 0)
(8.02552e-06 1.39346e-05 0)
(1.02407e-05 1.21625e-05 0)
(1.09327e-05 8.34066e-06 0)
(9.8668e-06 5.78217e-06 0)
(8.42173e-06 4.26776e-06 0)
(7.04736e-06 3.34705e-06 0)
(5.82121e-06 2.76038e-06 0)
(4.73012e-06 2.37163e-06 0)
(3.74543e-06 2.10766e-06 0)
(2.84007e-06 1.92749e-06 0)
(1.99134e-06 1.80744e-06 0)
(1.18041e-06 1.7337e-06 0)
(3.91119e-07 1.69855e-06 0)
(-3.83411e-07 2.01362e-06 0)
(-1.15654e-06 2.05418e-06 0)
(-1.94892e-06 2.13911e-06 0)
(-2.77451e-06 2.27678e-06 0)
(-3.64879e-06 2.48204e-06 0)
(-4.58889e-06 2.77975e-06 0)
(-5.61206e-06 3.21143e-06 0)
(-6.72893e-06 3.84749e-06 0)
(-7.92063e-06 4.80821e-06 0)
(-9.06797e-06 6.29116e-06 0)
(-9.77327e-06 8.54574e-06 0)
(-9.22276e-06 1.14544e-05 0)
(-7.61515e-06 1.30983e-05 0)
(-6.2084e-06 1.35566e-05 0)
(-5.0848e-06 1.42258e-05 0)
(-3.69464e-06 1.46986e-05 0)
(-3.04384e-06 1.38786e-05 0)
(-1.70267e-06 1.565e-05 0)
(-8.08766e-07 1.31939e-05 0)
(2.12439e-07 1.50437e-05 0)
(3.22368e-07 1.10572e-05 0)
(-1.84881e-06 1.24339e-05 0)
(1.31288e-06 1.77924e-05 0)
(1.81389e-06 9.59227e-06 0)
(3.69982e-06 1.80442e-05 0)
(6.3079e-06 7.08636e-06 0)
(-1.84821e-06 3.63104e-06 0)
(-5.23984e-06 8.83176e-06 0)
(-1.71291e-06 3.69591e-06 0)
(-2.25732e-07 8.18029e-07 0)
(-9.20265e-08 5.0514e-07 0)
(-5.75792e-08 3.86834e-07 0)
(-4.86962e-08 3.17487e-07 0)
(-4.6451e-08 2.97904e-07 0)
(-4.70822e-08 2.85684e-07 0)
(-4.94524e-08 2.7709e-07 0)
(-4.92013e-08 2.66862e-07 0)
(-4.33572e-08 2.5999e-07 0)
(-3.08085e-08 2.518e-07 0)
(-1.12005e-08 2.46635e-07 0)
(1.12005e-08 2.46635e-07 0)
(3.08085e-08 2.518e-07 0)
(4.33572e-08 2.5999e-07 0)
(4.92013e-08 2.66862e-07 0)
(4.94524e-08 2.7709e-07 0)
(4.70822e-08 2.85684e-07 0)
(4.6451e-08 2.97904e-07 0)
(4.86962e-08 3.17487e-07 0)
(5.75792e-08 3.86834e-07 0)
(9.20265e-08 5.0514e-07 0)
(2.25732e-07 8.18029e-07 0)
(1.71291e-06 3.69591e-06 0)
(5.23984e-06 8.83176e-06 0)
(1.84821e-06 3.63104e-06 0)
(-6.3079e-06 7.08636e-06 0)
(-3.69982e-06 1.80442e-05 0)
(-1.81389e-06 9.59227e-06 0)
(-1.31288e-06 1.77924e-05 0)
(1.84881e-06 1.24339e-05 0)
(-3.22368e-07 1.10572e-05 0)
(-2.12439e-07 1.50437e-05 0)
(8.08766e-07 1.31939e-05 0)
(1.70267e-06 1.565e-05 0)
(3.04384e-06 1.38786e-05 0)
(3.69464e-06 1.46986e-05 0)
(5.0848e-06 1.42258e-05 0)
(6.2084e-06 1.35566e-05 0)
(7.61515e-06 1.30983e-05 0)
(9.22276e-06 1.14544e-05 0)
(9.77327e-06 8.54574e-06 0)
(9.06797e-06 6.29116e-06 0)
(7.92063e-06 4.80821e-06 0)
(6.72893e-06 3.84749e-06 0)
(5.61206e-06 3.21143e-06 0)
(4.58889e-06 2.77975e-06 0)
(3.64879e-06 2.48204e-06 0)
(2.77451e-06 2.27678e-06 0)
(1.94892e-06 2.13911e-06 0)
(1.15654e-06 2.05418e-06 0)
(3.83411e-07 2.01362e-06 0)
(-3.73759e-07 2.3514e-06 0)
(-1.1267e-06 2.39719e-06 0)
(-1.89608e-06 2.49277e-06 0)
(-2.69334e-06 2.64694e-06 0)
(-3.53028e-06 2.87497e-06 0)
(-4.41821e-06 3.20174e-06 0)
(-5.36485e-06 3.66714e-06 0)
(-6.36543e-06 4.33457e-06 0)
(-7.37945e-06 5.30205e-06 0)
(-8.2758e-06 6.7044e-06 0)
(-8.74023e-06 8.64967e-06 0)
(-8.30713e-06 1.09138e-05 0)
(-7.12687e-06 1.24033e-05 0)
(-5.92986e-06 1.30937e-05 0)
(-4.85524e-06 1.37084e-05 0)
(-3.70187e-06 1.40855e-05 0)
(-2.8971e-06 1.38389e-05 0)
(-1.81301e-06 1.46125e-05 0)
(-9.56186e-07 1.34507e-05 0)
(-1.7785e-07 1.39887e-05 0)
(-4.33584e-08 1.20026e-05 0)
(-8.52332e-07 1.27906e-05 0)
(9.31504e-07 1.52565e-05 0)
(1.73848e-06 1.1538e-05 0)
(3.0719e-06 1.46728e-05 0)
(4.11392e-06 8.86072e-06 0)
(1.43296e-07 7.18351e-06 0)
(1.75387e-06 1.50059e-05 0)
(4.80549e-06 7.47699e-06 0)
(1.24824e-07 2.96456e-06 0)
(-8.58303e-06 3.48508e-06 0)
(-7.29974e-06 1.41597e-05 0)
(-6.40792e-07 9.13277e-07 0)
(-3.27558e-07 6.82199e-07 0)
(-2.08711e-07 5.54836e-07 0)
(-1.53481e-07 4.74888e-07 0)
(-1.14208e-07 4.0107e-07 0)
(-8.63317e-08 3.45758e-07 0)
(-6.27911e-08 3.07521e-07 0)
(-2.32031e-08 2.91343e-07 0)
(2.32031e-08 2.91343e-07 0)
(6.27911e-08 3.07521e-07 0)
(8.63317e-08 3.45758e-07 0)
(1.14208e-07 4.0107e-07 0)
(1.53481e-07 4.74888e-07 0)
(2.08711e-07 5.54836e-07 0)
(3.27558e-07 6.82199e-07 0)
(6.40792e-07 9.13277e-07 0)
(7.29974e-06 1.41597e-05 0)
(8.58303e-06 3.48508e-06 0)
(-1.24824e-07 2.96456e-06 0)
(-4.80549e-06 7.47699e-06 0)
(-1.75387e-06 1.50059e-05 0)
(-1.43296e-07 7.18351e-06 0)
(-4.11392e-06 8.86072e-06 0)
(-3.0719e-06 1.46728e-05 0)
(-1.73848e-06 1.1538e-05 0)
(-9.31504e-07 1.52565e-05 0)
(8.52332e-07 1.27906e-05 0)
(4.33584e-08 1.20026e-05 0)
(1.7785e-07 1.39887e-05 0)
(9.56186e-07 1.34507e-05 0)
(1.81301e-06 1.46125e-05 0)
(2.8971e-06 1.38389e-05 0)
(3.70187e-06 1.40855e-05 0)
(4.85524e-06 1.37084e-05 0)
(5.92986e-06 1.30937e-05 0)
(7.12687e-06 1.24033e-05 0)
(8.30713e-06 1.09138e-05 0)
(8.74023e-06 8.64967e-06 0)
(8.2758e-06 6.7044e-06 0)
(7.37945e-06 5.30205e-06 0)
(6.36543e-06 4.33457e-06 0)
(5.36485e-06 3.66714e-06 0)
(4.41821e-06 3.20174e-06 0)
(3.53028e-06 2.87497e-06 0)
(2.69334e-06 2.64694e-06 0)
(1.89608e-06 2.49277e-06 0)
(1.1267e-06 2.39719e-06 0)
(3.73759e-07 2.3514e-06 0)
(-3.61931e-07 2.71133e-06 0)
(-1.09022e-06 2.76191e-06 0)
(-1.83176e-06 2.86716e-06 0)
(-2.59524e-06 3.03592e-06 0)
(-3.38863e-06 3.28321e-06 0)
(-4.21758e-06 3.63274e-06 0)
(-5.08136e-06 4.12064e-06 0)
(-5.96367e-06 4.80026e-06 0)
(-6.81277e-06 5.74481e-06 0)
(-7.50568e-06 7.03513e-06 0)
(-7.81236e-06 8.69292e-06 0)
(-7.47366e-06 1.04949e-05 0)
(-6.59515e-06 1.18211e-05 0)
(-5.59637e-06 1.26053e-05 0)
(-4.62146e-06 1.31956e-05 0)
(-3.63008e-06 1.35519e-05 0)
(-2.80001e-06 1.35715e-05 0)
(-1.88206e-06 1.39035e-05 0)
(-1.09994e-06 1.3359e-05 0)
(-4.58721e-07 1.33884e-05 0)
(-2.28785e-07 1.24223e-05 0)
(-3.52186e-07 1.28119e-05 0)
(7.36545e-07 1.38445e-05 0)
(1.5354e-06 1.2164e-05 0)
(2.44981e-06 1.29557e-05 0)
(2.85359e-06 9.88435e-06 0)
(1.0096e-06 8.95863e-06 0)
(1.66098e-06 1.21451e-05 0)
(2.74171e-06 8.35924e-06 0)
(-3.04199e-07 5.82827e-06 0)
(-5.36113e-06 7.64051e-06 0)
(1.56781e-06 2.28719e-05 0)
(8.02652e-06 5.1138e-06 0)
(2.11444e-06 4.15872e-06 0)
(-4.12641e-06 4.83133e-06 0)
(-5.51974e-06 6.16569e-06 0)
(-2.08739e-06 1.67827e-06 0)
(-5.42928e-07 5.97967e-07 0)
(-2.22443e-07 3.76562e-07 0)
(-6.72125e-08 3.24563e-07 0)
(6.72125e-08 3.24563e-07 0)
(2.22443e-07 3.76562e-07 0)
(5.42928e-07 5.97967e-07 0)
(2.08739e-06 1.67827e-06 0)
(5.51974e-06 6.16569e-06 0)
(4.12641e-06 4.83133e-06 0)
(-2.11444e-06 4.15872e-06 0)
(-8.02652e-06 5.1138e-06 0)
(-1.56781e-06 2.28719e-05 0)
(5.36113e-06 7.64051e-06 0)
(3.04199e-07 5.82827e-06 0)
(-2.74171e-06 8.35924e-06 0)
(-1.66098e-06 1.21451e-05 0)
(-1.0096e-06 8.95863e-06 0)
(-2.85359e-06 9.88435e-06 0)
(-2.44981e-06 1.29557e-05 0)
(-1.5354e-06 1.2164e-05 0)
(-7.36545e-07 1.38445e-05 0)
(3.52186e-07 1.28119e-05 0)
(2.28785e-07 1.24223e-05 0)
(4.58721e-07 1.33884e-05 0)
(1.09994e-06 1.3359e-05 0)
(1.88206e-06 1.39035e-05 0)
(2.80001e-06 1.35715e-05 0)
(3.63008e-06 1.35519e-05 0)
(4.62146e-06 1.31956e-05 0)
(5.59637e-06 1.26053e-05 0)
(6.59515e-06 1.18211e-05 0)
(7.47366e-06 1.04949e-05 0)
(7.81236e-06 8.69292e-06 0)
(7.50568e-06 7.03513e-06 0)
(6.81277e-06 5.74481e-06 0)
(5.96367e-06 4.80026e-06 0)
(5.08136e-06 4.12064e-06 0)
(4.21758e-06 3.63274e-06 0)
(3.38863e-06 3.28321e-06 0)
(2.59524e-06 3.03592e-06 0)
(1.83176e-06 2.86716e-06 0)
(1.09022e-06 2.76191e-06 0)
(3.61931e-07 2.71133e-06 0)
(-3.47742e-07 3.09207e-06 0)
(-1.04655e-06 3.14679e-06 0)
(-1.75517e-06 3.2602e-06 0)
(-2.47942e-06 3.44082e-06 0)
(-3.2235e-06 3.70272e-06 0)
(-3.98793e-06 4.06728e-06 0)
(-4.76533e-06 4.56528e-06 0)
(-5.53215e-06 5.23834e-06 0)
(-6.23419e-06 6.13605e-06 0)
(-6.76722e-06 7.29826e-06 0)
(-6.97218e-06 8.70201e-06 0)
(-6.70798e-06 1.01638e-05 0)
(-6.04502e-06 1.13297e-05 0)
(-5.22403e-06 1.21239e-05 0)
(-4.36958e-06 1.26977e-05 0)
(-3.50698e-06 1.30575e-05 0)
(-2.7177e-06 1.31973e-05 0)
(-1.92044e-06 1.33595e-05 0)
(-1.21885e-06 1.31081e-05 0)
(-6.53663e-07 1.29933e-05 0)
(-3.34979e-07 1.25206e-05 0)
(-1.37017e-07 1.26656e-05 0)
(6.02442e-07 1.30177e-05 0)
(1.28087e-06 1.22005e-05 0)
(1.90795e-06 1.20986e-05 0)
(2.08949e-06 1.04327e-05 0)
(1.27343e-06 9.81327e-06 0)
(1.44099e-06 1.08627e-05 0)
(1.61317e-06 8.99136e-06 0)
(-2.20608e-07 7.7865e-06 0)
(-2.43328e-06 9.51554e-06 0)
(5.56862e-07 1.57679e-05 0)
(3.72982e-06 9.64345e-06 0)
(2.17271e-06 8.41079e-06 0)
(1.05194e-06 9.18837e-06 0)
(1.64104e-06 1.06436e-05 0)
(3.24922e-07 5.57179e-06 0)
(-1.45527e-06 1.65474e-06 0)
(-7.38976e-07 6.06054e-07 0)
(-1.95533e-07 3.24014e-07 0)
(1.95533e-07 3.24014e-07 0)
(7.38976e-07 6.06054e-07 0)
(1.45527e-06 1.65474e-06 0)
(-3.24922e-07 5.57179e-06 0)
(-1.64104e-06 1.06436e-05 0)
(-1.05194e-06 9.18837e-06 0)
(-2.17271e-06 8.41079e-06 0)
(-3.72982e-06 9.64345e-06 0)
(-5.56862e-07 1.57679e-05 0)
(2.43328e-06 9.51554e-06 0)
(2.20608e-07 7.7865e-06 0)
(-1.61317e-06 8.99136e-06 0)
(-1.44099e-06 1.08627e-05 0)
(-1.27343e-06 9.81327e-06 0)
(-2.08949e-06 1.04327e-05 0)
(-1.90795e-06 1.20986e-05 0)
(-1.28087e-06 1.22005e-05 0)
(-6.02442e-07 1.30177e-05 0)
(1.37017e-07 1.26656e-05 0)
(3.34979e-07 1.25206e-05 0)
(6.53663e-07 1.29933e-05 0)
(1.21885e-06 1.31081e-05 0)
(1.92044e-06 1.33595e-05 0)
(2.7177e-06 1.31973e-05 0)
(3.50698e-06 1.30575e-05 0)
(4.36958e-06 1.26977e-05 0)
(5.22403e-06 1.21239e-05 0)
(6.04502e-06 1.13297e-05 0)
(6.70798e-06 1.01638e-05 0)
(6.97218e-06 8.70201e-06 0)
(6.76722e-06 7.29826e-06 0)
(6.23419e-06 6.13605e-06 0)
(5.53215e-06 5.23834e-06 0)
(4.76533e-06 4.56528e-06 0)
(3.98793e-06 4.06728e-06 0)
(3.2235e-06 3.70272e-06 0)
(2.47942e-06 3.44082e-06 0)
(1.75517e-06 3.2602e-06 0)
(1.04655e-06 3.14679e-06 0)
(3.47742e-07 3.09207e-06 0)
(-3.31079e-07 3.49144e-06 0)
(-9.95415e-07 3.54937e-06 0)
(-1.66599e-06 3.66893e-06 0)
(-2.34581e-06 3.85788e-06 0)
(-3.03564e-06 4.12875e-06 0)
(-3.73176e-06 4.49967e-06 0)
(-4.42221e-06 4.99509e-06 0)
(-5.08028e-06 5.64483e-06 0)
(-5.65551e-06 6.47842e-06 0)
(-6.06583e-06 7.50818e-06 0)
(-6.20589e-06 8.69354e-06 0)
(-6.0001e-06 9.89708e-06 0)
(-5.49393e-06 1.09121e-05 0)
(-4.8267e-06 1.16691e-05 0)
(-4.09601e-06 1.22222e-05 0)
(-3.34769e-06 1.25872e-05 0)
(-2.63005e-06 1.2782e-05 0)
(-1.93089e-06 1.28962e-05 0)
(-1.30413e-06 1.27911e-05 0)
(-7.85914e-07 1.26735e-05 0)
(-4.11507e-07 1.24306e-05 0)
(-8.01953e-08 1.24402e-05 0)
(4.7555e-07 1.24853e-05 0)
(1.01868e-06 1.20171e-05 0)
(1.46105e-06 1.16571e-05 0)
(1.58152e-06 1.0698e-05 0)
(1.23732e-06 1.02185e-05 0)
(1.19817e-06 1.03874e-05 0)
(1.03914e-06 9.4679e-06 0)
(-3.54768e-09 8.98268e-06 0)
(-9.43558e-07 1.01417e-05 0)
(3.53608e-07 1.26626e-05 0)
(1.81421e-06 1.05946e-05 0)
(1.5057e-06 9.85566e-06 0)
(1.09924e-06 9.72376e-06 0)
(8.53087e-07 9.70477e-06 0)
(2.82382e-07 8.96841e-06 0)
(-3.55881e-07 2.62131e-06 0)
(-4.33066e-07 6.09717e-07 0)
(-1.80423e-07 2.43816e-07 0)
(1.80423e-07 2.43816e-07 0)
(4.33066e-07 6.09717e-07 0)
(3.55881e-07 2.62131e-06 0)
(-2.82382e-07 8.96841e-06 0)
(-8.53087e-07 9.70477e-06 0)
(-1.09924e-06 9.72376e-06 0)
(-1.5057e-06 9.85566e-06 0)
(-1.81421e-06 1.05946e-05 0)
(-3.53608e-07 1.26626e-05 0)
(9.43558e-07 1.01417e-05 0)
(3.54768e-09 8.98268e-06 0)
(-1.03914e-06 9.4679e-06 0)
(-1.19817e-06 1.03874e-05 0)
(-1.23732e-06 1.02185e-05 0)
(-1.58152e-06 1.0698e-05 0)
(-1.46105e-06 1.16571e-05 0)
(-1.01868e-06 1.20171e-05 0)
(-4.7555e-07 1.24853e-05 0)
(8.01953e-08 1.24402e-05 0)
(4.11507e-07 1.24306e-05 0)
(7.85914e-07 1.26735e-05 0)
(1.30413e-06 1.27911e-05 0)
(1.93089e-06 1.28962e-05 0)
(2.63005e-06 1.2782e-05 0)
(3.34769e-06 1.25872e-05 0)
(4.09601e-06 1.22222e-05 0)
(4.8267e-06 1.16691e-05 0)
(5.49393e-06 1.09121e-05 0)
(6.0001e-06 9.89708e-06 0)
(6.20589e-06 8.69354e-06 0)
(6.06583e-06 7.50818e-06 0)
(5.65551e-06 6.47842e-06 0)
(5.08028e-06 5.64483e-06 0)
(4.42221e-06 4.99509e-06 0)
(3.73176e-06 4.49967e-06 0)
(3.03564e-06 4.12875e-06 0)