/*--------------------------------*- C++ -*----------------------------------*\
  =========                 |
  \\      /  F ield         | OpenFOAM: The Open Source CFD Toolbox
   \\    /   O peration     | Website:  https://openfoam.org
    \\  /    A nd           | Version:  10
     \\/     M anipulation  |
\*---------------------------------------------------------------------------*/
FoamFile
{
    format      ascii;
    class       surfaceScalarField;
    location    "1900";
    object      phi;
}
// * * * * * * * * * * * * * * * * * * * * * * * * * * * * * * * * * * * * * //

dimensions      [0 3 -1 0 0 0 0];

internalField   nonuniform List<scalar> 
12640
(
-1.24352e-09
1.24352e-09
-2.4788e-09
1.23528e-09
-3.69762e-09
1.21882e-09
-4.89181e-09
1.19419e-09
-6.05329e-09
1.16148e-09
-7.17406e-09
1.12077e-09
-8.24628e-09
1.07222e-09
-9.26228e-09
1.01599e-09
-1.02146e-08
9.52292e-10
-1.10959e-08
8.81375e-10
-1.18995e-08
8.03536e-10
-1.26186e-08
7.19125e-10
-1.32471e-08
6.28544e-10
-1.37794e-08
5.32257e-10
-1.42102e-08
4.3079e-10
-1.45349e-08
3.24733e-10
-1.47497e-08
2.14748e-10
-1.48512e-08
1.01565e-10
-1.48372e-08
-1.40189e-11
-1.47061e-08
-1.31136e-10
-1.44572e-08
-2.48858e-10
-1.4091e-08
-3.66198e-10
-1.36089e-08
-4.82119e-10
-1.30134e-08
-5.95546e-10
-1.2308e-08
-7.05378e-10
-1.14975e-08
-8.10498e-10
-1.05877e-08
-9.09798e-10
-9.5855e-09
-1.00219e-09
-8.49887e-09
-1.08663e-09
-7.33674e-09
-1.16213e-09
-6.10896e-09
-1.22778e-09
-4.82616e-09
-1.28279e-09
-4.24201e-09
-5.8415e-10
-3.65027e-09
-5.91747e-10
-3.05197e-09
-5.98296e-10
-2.44819e-09
-6.03778e-10
-1.84001e-09
-6.08181e-10
-1.22852e-09
-6.11493e-10
-6.14814e-10
-6.13706e-10
2.84061e-17
-6.14814e-10
6.14814e-10
-6.14814e-10
1.22852e-09
-6.13706e-10
1.84001e-09
-6.11493e-10
2.44819e-09
-6.08181e-10
3.05197e-09
-6.03778e-10
3.65027e-09
-5.98296e-10
4.24201e-09
-5.91747e-10
4.82616e-09
-5.8415e-10
6.10896e-09
-1.28279e-09
7.33674e-09
-1.22778e-09
8.49887e-09
-1.16213e-09
9.5855e-09
-1.08663e-09
1.05877e-08
-1.00219e-09
1.14975e-08
-9.09798e-10
1.2308e-08
-8.10498e-10
1.30134e-08
-7.05378e-10
1.36089e-08
-5.95546e-10
1.4091e-08
-4.82119e-10
1.44572e-08
-3.66198e-10
1.47061e-08
-2.48858e-10
1.48372e-08
-1.31136e-10
1.48512e-08
-1.40189e-11
1.47497e-08
1.01565e-10
1.45349e-08
2.14748e-10
1.42102e-08
3.24733e-10
1.37794e-08
4.3079e-10
1.32471e-08
5.32257e-10
1.26186e-08
6.28544e-10
1.18995e-08
7.19125e-10
1.10959e-08
8.03536e-10
1.02146e-08
8.81375e-10
9.26228e-09
9.52292e-10
8.24628e-09
1.01599e-09
7.17406e-09
1.07222e-09
6.05329e-09
1.12077e-09
4.89181e-09
1.16148e-09
3.69762e-09
1.19419e-09
2.4788e-09
1.21882e-09
1.24352e-09
1.23528e-09
1.24352e-09
-1.36432e-09
2.60784e-09
-2.71959e-09
2.59055e-09
-4.05681e-09
2.55604e-09
-5.36702e-09
2.5044e-09
-6.64133e-09
2.43579e-09
-7.871e-09
2.35044e-09
-9.0474e-09
2.24863e-09
-1.01621e-08
2.13071e-09
-1.1207e-08
1.99713e-09
-1.2174e-08
1.84842e-09
-1.30557e-08
1.68519e-09
-1.38447e-08
1.50817e-09
-1.45344e-08
1.31822e-09
-1.51184e-08
1.1163e-09
-1.55911e-08
9.03509e-10
-1.59475e-08
6.81095e-10
-1.61832e-08
4.50442e-10
-1.62947e-08
2.13077e-10
-1.62794e-08
-2.93222e-11
-1.61356e-08
-2.74941e-10
-1.58626e-08
-5.2183e-10
-1.54609e-08
-7.67921e-10
-1.4932e-08
-1.01104e-09
-1.42786e-08
-1.24893e-09
-1.35047e-08
-1.47928e-09
-1.26155e-08
-1.69975e-09
-1.16172e-08
-1.90802e-09
-1.05176e-08
-2.1018e-09
-9.32536e-09
-2.2789e-09
-8.05024e-09
-2.43725e-09
-6.70307e-09
-2.57495e-09
-5.29553e-09
-2.69033e-09
-4.65458e-09
-1.22511e-09
-4.00528e-09
-1.24104e-09
-3.3488e-09
-1.25478e-09
-2.6863e-09
-1.26628e-09
-2.01897e-09
-1.27551e-09
-1.348e-09
-1.28246e-09
-6.74609e-10
-1.2871e-09
3.1984e-17
-1.28942e-09
6.74609e-10
-1.28942e-09
1.348e-09
-1.2871e-09
2.01897e-09
-1.28246e-09
2.6863e-09
-1.27551e-09
3.3488e-09
-1.26628e-09
4.00528e-09
-1.25478e-09
4.65458e-09
-1.24104e-09
5.29553e-09
-1.22511e-09
6.70307e-09
-2.69033e-09
8.05024e-09
-2.57495e-09
9.32536e-09
-2.43725e-09
1.05176e-08
-2.2789e-09
1.16172e-08
-2.1018e-09
1.26155e-08
-1.90802e-09
1.35047e-08
-1.69975e-09
1.42786e-08
-1.47928e-09
1.4932e-08
-1.24893e-09
1.54609e-08
-1.01104e-09
1.58626e-08
-7.67921e-10
1.61356e-08
-5.2183e-10
1.62794e-08
-2.74941e-10
1.62947e-08
-2.93223e-11
1.61832e-08
2.13077e-10
1.59475e-08
4.50442e-10
1.55911e-08
6.81095e-10
1.51184e-08
9.03509e-10
1.45344e-08
1.1163e-09
1.38447e-08
1.31822e-09
1.30557e-08
1.50817e-09
1.2174e-08
1.68519e-09
1.1207e-08
1.84842e-09
1.01621e-08
1.99713e-09
9.0474e-09
2.13071e-09
7.871e-09
2.24863e-09
6.64133e-09
2.35044e-09
5.36702e-09
2.43579e-09
4.05681e-09
2.5044e-09
2.71959e-09
2.55604e-09
1.36432e-09
2.59055e-09
2.60784e-09
-1.4974e-09
4.10524e-09
-2.98489e-09
4.07804e-09
-4.45256e-09
4.02372e-09
-5.8906e-09
3.94244e-09
-7.28926e-09
3.83445e-09
-8.63893e-09
3.70011e-09
-9.93016e-09
3.53986e-09
-1.11537e-08
3.35426e-09
-1.23006e-08
3.14401e-09
-1.33621e-08
2.90992e-09
-1.43299e-08
2.65299e-09
-1.51961e-08
2.37436e-09
-1.59532e-08
2.07535e-09
-1.65944e-08
1.75751e-09
-1.71135e-08
1.42255e-09
-1.75048e-08
1.07243e-09
-1.77637e-08
7.0934e-10
-1.78863e-08
3.35675e-10
-1.78697e-08
-4.59233e-11
-1.7712e-08
-4.32597e-10
-1.74126e-08
-8.21279e-10
-1.69718e-08
-1.20871e-09
-1.63914e-08
-1.59147e-09
-1.56743e-08
-1.966e-09
-1.48249e-08
-2.32867e-09
-1.38488e-08
-2.6758e-09
-1.27531e-08
-3.00371e-09
-1.15461e-08
-3.30882e-09
-1.02373e-08
-3.58767e-09
-8.83758e-09
-3.83701e-09
-7.35869e-09
-4.05384e-09
-5.81351e-09
-4.23551e-09
-5.10987e-09
-1.92875e-09
-4.39706e-09
-1.95384e-09
-3.67637e-09
-1.97547e-09
-2.94907e-09
-1.99358e-09
-2.21647e-09
-2.00812e-09
-1.47987e-09
-2.01906e-09
-7.40601e-10
-2.02637e-09
3.59951e-17
-2.03002e-09
7.40601e-10
-2.03002e-09
1.47987e-09
-2.02637e-09
2.21647e-09
-2.01906e-09
2.94907e-09
-2.00812e-09
3.67637e-09
-1.99358e-09
4.39706e-09
-1.97547e-09
5.10987e-09
-1.95384e-09
5.81351e-09
-1.92875e-09
7.35869e-09
-4.23551e-09
8.83758e-09
-4.05384e-09
1.02373e-08
-3.83701e-09
1.15461e-08
-3.58767e-09
1.27531e-08
-3.30882e-09
1.38488e-08
-3.00371e-09
1.48249e-08
-2.6758e-09
1.56743e-08
-2.32867e-09
1.63914e-08
-1.966e-09
1.69718e-08
-1.59147e-09
1.74126e-08
-1.20871e-09
1.7712e-08
-8.21279e-10
1.78697e-08
-4.32597e-10
1.78863e-08
-4.59234e-11
1.77637e-08
3.35675e-10
1.75048e-08
7.0934e-10
1.71135e-08
1.07243e-09
1.65944e-08
1.42255e-09
1.59532e-08
1.75751e-09
1.51961e-08
2.07535e-09
1.43299e-08
2.37436e-09
1.33621e-08
2.65299e-09
1.23006e-08
2.90992e-09
1.11537e-08
3.14401e-09
9.93016e-09
3.35426e-09
8.63893e-09
3.53986e-09
7.28926e-09
3.70011e-09
5.8906e-09
3.83445e-09
4.45256e-09
3.94244e-09
2.98489e-09
4.02372e-09
1.4974e-09
4.07804e-09
4.10524e-09
-1.64426e-09
5.7495e-09
-3.27764e-09
5.71141e-09
-4.88927e-09
5.63535e-09
-6.46838e-09
5.52155e-09
-8.00428e-09
5.37035e-09
-9.48641e-09
5.18224e-09
-1.09044e-08
4.95785e-09
-1.22481e-08
4.69797e-09
-1.35077e-08
4.40356e-09
-1.46735e-08
4.07578e-09
-1.57365e-08
3.71599e-09
-1.6688e-08
3.32581e-09
-1.75197e-08
2.9071e-09
-1.82242e-08
2.46198e-09
-1.87945e-08
1.99289e-09
-1.92247e-08
1.50256e-09
-1.95094e-08
9.94032e-10
-1.96444e-08
4.70689e-10
-1.96265e-08
-6.37828e-11
-1.94537e-08
-6.0538e-10
-1.91252e-08
-1.14981e-09
-1.86414e-08
-1.6925e-09
-1.80042e-08
-2.22866e-09
-1.72169e-08
-2.75333e-09
-1.62842e-08
-3.26138e-09
-1.52123e-08
-3.74768e-09
-1.4009e-08
-4.20707e-09
-1.26832e-08
-4.63453e-09
-1.12457e-08
-5.02521e-09
-9.70819e-09
-5.37454e-09
-8.08369e-09
-5.67834e-09
-6.38632e-09
-5.93288e-09
-5.61336e-09
-2.70171e-09
-4.83034e-09
-2.73687e-09
-4.03864e-09
-2.76717e-09
-3.23968e-09
-2.79254e-09
-2.43488e-09
-2.81291e-09
-1.6257e-09
-2.82824e-09
-8.13583e-10
-2.83848e-09
3.95729e-17
-2.84361e-09
8.13583e-10
-2.84361e-09
1.6257e-09
-2.83848e-09
2.43488e-09
-2.82824e-09
3.23968e-09
-2.81291e-09
4.03864e-09
-2.79254e-09
4.83034e-09
-2.76717e-09
5.61336e-09
-2.73687e-09
6.38632e-09
-2.70171e-09
8.08369e-09
-5.93288e-09
9.70819e-09
-5.67834e-09
1.12457e-08
-5.37454e-09
1.26832e-08
-5.02521e-09
1.4009e-08
-4.63453e-09
1.52123e-08
-4.20707e-09
1.62842e-08
-3.74768e-09
1.72169e-08
-3.26138e-09
1.80042e-08
-2.75333e-09
1.86414e-08
-2.22866e-09
1.91252e-08
-1.6925e-09
1.94537e-08
-1.14981e-09
1.96265e-08
-6.0538e-10
1.96444e-08
-6.37829e-11
1.95094e-08
4.70689e-10
1.92247e-08
9.94032e-10
1.87945e-08
1.50256e-09
1.82242e-08
1.99289e-09
1.75197e-08
2.46198e-09
1.6688e-08
2.9071e-09
1.57365e-08
3.32581e-09
1.46735e-08
3.71599e-09
1.35077e-08
4.07578e-09
1.22481e-08
4.40356e-09
1.09044e-08
4.69797e-09
9.48641e-09
4.95785e-09
8.00428e-09
5.18224e-09
6.46838e-09
5.37035e-09
4.88927e-09
5.52155e-09
3.27764e-09
5.63535e-09
1.64426e-09
5.71141e-09
5.7495e-09
-1.80662e-09
7.55612e-09
-3.60128e-09
7.50608e-09
-5.37209e-09
7.40616e-09
-7.10719e-09
7.25665e-09
-8.79485e-09
7.05801e-09
-1.04235e-08
6.81088e-09
-1.19817e-08
6.51608e-09
-1.34584e-08
6.17465e-09
-1.48427e-08
5.78784e-09
-1.61241e-08
5.35717e-09
-1.72925e-08
4.88444e-09
-1.83384e-08
4.37175e-09
-1.92529e-08
3.82156e-09
-2.00276e-08
3.23664e-09
-2.06549e-08
2.62021e-09
-2.11282e-08
1.97583e-09
-2.14416e-08
1.30752e-09
-2.15907e-08
6.19696e-10
-2.15717e-08
-8.27821e-11
-2.13824e-08
-7.94659e-10
-2.10219e-08
-1.51029e-09
-2.04907e-08
-2.22367e-09
-1.97909e-08
-2.92851e-09
-1.89259e-08
-3.61825e-09
-1.79011e-08
-4.2862e-09
-1.67232e-08
-4.92557e-09
-1.54007e-08
-5.52959e-09
-1.39436e-08
-6.09164e-09
-1.23635e-08
-6.60535e-09
-1.06733e-08
-7.0647e-09
-8.88745e-09
-7.4642e-09
-7.0214e-09
-7.79894e-09
-6.1716e-09
-3.55151e-09
-5.31073e-09
-3.59774e-09
-4.44031e-09
-3.63759e-09
-3.56189e-09
-3.67095e-09
-2.67706e-09
-3.69775e-09
-1.7874e-09
-3.7179e-09
-8.94505e-10
-3.73137e-09
4.19576e-17
-3.73811e-09
8.94505e-10
-3.73811e-09
1.7874e-09
-3.73137e-09
2.67706e-09
-3.7179e-09
3.56189e-09
-3.69775e-09
4.44031e-09
-3.67095e-09
5.31073e-09
-3.63759e-09
6.1716e-09
-3.59774e-09
7.0214e-09
-3.55151e-09
8.88745e-09
-7.79894e-09
1.06733e-08
-7.4642e-09
1.23635e-08
-7.0647e-09
1.39436e-08
-6.60535e-09
1.54007e-08
-6.09164e-09
1.67232e-08
-5.52959e-09
1.79011e-08
-4.92557e-09
1.89259e-08
-4.2862e-09
1.97909e-08
-3.61825e-09
2.04907e-08
-2.92851e-09
2.10219e-08
-2.22367e-09
2.13824e-08
-1.51029e-09
2.15717e-08
-7.94659e-10
2.15907e-08
-8.27821e-11
2.14416e-08
6.19696e-10
2.11282e-08
1.30752e-09
2.06549e-08
1.97583e-09
2.00276e-08
2.62021e-09
1.92529e-08
3.23664e-09
1.83384e-08
3.82156e-09
1.72925e-08
4.37175e-09
1.61241e-08
4.88444e-09
1.48427e-08
5.35717e-09
1.34584e-08
5.78784e-09
1.19817e-08
6.17465e-09
1.04235e-08
6.51608e-09
8.79485e-09
6.81088e-09
7.10719e-09
7.05801e-09
5.37209e-09
7.25665e-09
3.60128e-09
7.40616e-09
1.80662e-09
7.50608e-09
7.55612e-09
-1.98652e-09
9.54264e-09
-3.95992e-09
9.47948e-09
-5.90712e-09
9.35336e-09
-7.81511e-09
9.16464e-09
-9.67101e-09
8.91391e-09
-1.14621e-08
8.60196e-09
-1.31758e-08
8.22983e-09
-1.48e-08
7.79882e-09
-1.63227e-08
7.31051e-09
-1.77323e-08
6.76681e-09
-1.90179e-08
6.16999e-09
-2.01688e-08
5.5227e-09
-2.11753e-08
4.82801e-09
-2.20281e-08
4.08945e-09
-2.27189e-08
3.31105e-09
-2.32404e-08
2.49731e-09
-2.35862e-08
1.65329e-09
-2.37511e-08
7.8459e-10
-2.37312e-08
-1.02686e-10
-2.35239e-08
-1.00189e-09
-2.31283e-08
-1.9059e-09
-2.25449e-08
-2.80713e-09
-2.17758e-08
-3.69762e-09
-2.08249e-08
-4.5691e-09
-1.9698e-08
-5.41309e-09
-1.84026e-08
-6.22102e-09
-1.69478e-08
-6.98433e-09
-1.53448e-08
-7.69464e-09
-1.36063e-08
-8.34389e-09
-1.17465e-08
-8.92448e-09
-9.78129e-09
-9.42943e-09
-7.72769e-09
-9.85253e-09
-6.79246e-09
-4.48674e-09
-5.84501e-09
-4.54518e-09
-4.88705e-09
-4.59556e-09
-3.92027e-09
-4.63773e-09
-2.94642e-09
-4.6716e-09
-1.96724e-09
-4.69708e-09
-9.84512e-10
-4.7141e-09
4.35827e-17
-4.72262e-09
9.84512e-10
-4.72262e-09
1.96724e-09
-4.7141e-09
2.94642e-09
-4.69708e-09
3.92027e-09
-4.6716e-09
4.88705e-09
-4.63773e-09
5.84501e-09
-4.59556e-09
6.79246e-09
-4.54518e-09
7.72769e-09
-4.48674e-09
9.78129e-09
-9.85253e-09
1.17465e-08
-9.42943e-09
1.36063e-08
-8.92448e-09
1.53448e-08
-8.34389e-09
1.69478e-08
-7.69464e-09
1.84026e-08
-6.98433e-09
1.9698e-08
-6.22102e-09
2.08249e-08
-5.41309e-09
2.17758e-08
-4.5691e-09
2.25449e-08
-3.69762e-09
2.31283e-08
-2.80713e-09
2.35239e-08
-1.9059e-09
2.37312e-08
-1.00189e-09
2.37511e-08
-1.02686e-10
2.35862e-08
7.8459e-10
2.32404e-08
1.65329e-09
2.27189e-08
2.49731e-09
2.20281e-08
3.31105e-09
2.11753e-08
4.08945e-09
2.01688e-08
4.82801e-09
1.90179e-08
5.5227e-09
1.77323e-08
6.16999e-09
1.63227e-08
6.76681e-09
1.48e-08
7.31051e-09
1.31758e-08
7.79882e-09
1.14621e-08
8.22983e-09
9.67101e-09
8.60196e-09
7.81511e-09
8.91391e-09
5.90712e-09
9.16464e-09
3.95992e-09
9.35336e-09
1.98652e-09
9.47948e-09
9.54264e-09
-2.18643e-09
1.17291e-08
-4.35844e-09
1.16515e-08
-6.50167e-09
1.14966e-08
-8.60183e-09
1.12648e-08
-1.06448e-08
1.09568e-08
-1.26165e-08
1.05737e-08
-1.45032e-08
1.01166e-08
-1.62915e-08
9.58711e-09
-1.79682e-08
8.98725e-09
-1.95207e-08
8.31931e-09
-2.09368e-08
7.58607e-09
-2.22048e-08
6.79076e-09
-2.3314e-08
5.93717e-09
-2.42542e-08
5.02961e-09
-2.50161e-08
4.073e-09
-2.55917e-08
3.07291e-09
-2.59739e-08
2.03551e-09
-2.6157e-08
9.67672e-10
-2.61366e-08
-1.23088e-10
-2.59099e-08
-1.22861e-09
-2.54756e-08
-2.34014e-09
-2.48344e-08
-3.44836e-09
-2.39886e-08
-4.54347e-09
-2.29423e-08
-5.6153e-09
-2.1702e-08
-6.65341e-09
-2.02758e-08
-7.64725e-09
-1.86739e-08
-8.58627e-09
-1.69083e-08
-9.46017e-09
-1.49932e-08
-1.0259e-08
-1.29443e-08
-1.09734e-08
-1.0779e-08
-1.15947e-08
-8.51615e-09
-1.21154e-08
-7.48556e-09
-5.51733e-09
-6.44149e-09
-5.58925e-09
-5.3858e-09
-5.65124e-09
-4.32038e-09
-5.70315e-09
-3.24715e-09
-5.74483e-09
-2.16804e-09
-5.77619e-09
-1.085e-09
-5.79714e-09
4.32018e-17
-5.80763e-09
1.085e-09
-5.80763e-09
2.16804e-09
-5.79714e-09
3.24715e-09
-5.77619e-09
4.32038e-09
-5.74483e-09
5.3858e-09
-5.70315e-09
6.44149e-09
-5.65124e-09
7.48556e-09
-5.58925e-09
8.51615e-09
-5.51733e-09
1.0779e-08
-1.21154e-08
1.29443e-08
-1.15947e-08
1.49932e-08
-1.09734e-08
1.69083e-08
-1.0259e-08
1.86739e-08
-9.46017e-09
2.02758e-08
-8.58627e-09
2.1702e-08
-7.64725e-09
2.29423e-08
-6.65341e-09
2.39886e-08
-5.6153e-09
2.48344e-08
-4.54347e-09
2.54756e-08
-3.44836e-09
2.59099e-08
-2.34014e-09
2.61366e-08
-1.22861e-09
2.6157e-08
-1.23088e-10
2.59739e-08
9.67672e-10
2.55917e-08
2.03551e-09
2.50161e-08
3.07291e-09
2.42542e-08
4.073e-09
2.3314e-08
5.02961e-09
2.22048e-08
5.93717e-09
2.09368e-08
6.79076e-09
1.95207e-08
7.58607e-09
1.79682e-08
8.31931e-09
1.62915e-08
8.98725e-09
1.45032e-08
9.58711e-09
1.26165e-08
1.01166e-08
1.06448e-08
1.05737e-08
8.60183e-09
1.09568e-08
6.50167e-09
1.12648e-08
4.35844e-09
1.14966e-08
2.18643e-09
1.16515e-08
1.17291e-08
-2.4093e-09
1.41384e-08
-4.80276e-09
1.4045e-08
-7.16458e-09
1.38584e-08
-9.47906e-09
1.35793e-08
-1.17306e-08
1.32084e-08
-1.39039e-08
1.27469e-08
-1.59837e-08
1.21964e-08
-1.79553e-08
1.15587e-08
-1.98042e-08
1.08361e-08
-2.15164e-08
1.00315e-08
-2.30785e-08
9.14819e-09
-2.44778e-08
8.19e-09
-2.57021e-08
7.16149e-09
-2.67403e-08
6.06786e-09
-2.75823e-08
4.91501e-09
-2.8219e-08
3.70961e-09
-2.86427e-08
2.45912e-09
-2.88468e-08
1.17178e-09
-2.88265e-08
-1.43339e-10
-2.85787e-08
-1.47643e-09
-2.81019e-08
-2.81691e-09
-2.73967e-08
-4.15357e-09
-2.64656e-08
-5.47458e-09
-2.53133e-08
-6.76765e-09
-2.39465e-08
-8.0202e-09
-2.23743e-08
-9.21946e-09
-2.06078e-08
-1.03527e-08
-1.86605e-08
-1.14075e-08
-1.65478e-08
-1.23717e-08
-1.42872e-08
-1.32341e-08
-1.18977e-08
-1.39842e-08
-9.40028e-09
-1.46128e-08
-8.26279e-09
-6.65482e-09
-7.11039e-09
-6.74166e-09
-5.94513e-09
-6.81651e-09
-4.7691e-09
-6.87918e-09
-3.58442e-09
-6.92951e-09
-2.39324e-09
-6.96737e-09
-1.19771e-09
-6.99267e-09
4.06603e-17
-7.00533e-09
1.19771e-09
-7.00533e-09
2.39324e-09
-6.99267e-09
3.58442e-09
-6.96737e-09
4.7691e-09
-6.92951e-09
5.94513e-09
-6.87918e-09
7.11039e-09
-6.81651e-09
8.26279e-09
-6.74166e-09
9.40028e-09
-6.65482e-09
1.18977e-08
-1.46128e-08
1.42872e-08
-1.39842e-08
1.65478e-08
-1.32341e-08
1.86605e-08
-1.23717e-08
2.06078e-08
-1.14075e-08
2.23743e-08
-1.03527e-08
2.39465e-08
-9.21946e-09
2.53133e-08
-8.0202e-09
2.64656e-08
-6.76765e-09
2.73967e-08
-5.47458e-09
2.81019e-08
-4.15357e-09
2.85787e-08
-2.81691e-09
2.88265e-08
-1.47643e-09
2.88468e-08
-1.43339e-10
2.86427e-08
1.17178e-09
2.8219e-08
2.45912e-09
2.75823e-08
3.70961e-09
2.67403e-08
4.91501e-09
2.57021e-08
6.06786e-09
2.44778e-08
7.16149e-09
2.30785e-08
8.19e-09
2.15164e-08
9.14819e-09
1.98042e-08
1.00315e-08
1.79553e-08
1.08361e-08
1.59837e-08
1.15587e-08
1.39039e-08
1.21964e-08
1.17306e-08
1.27469e-08
9.47906e-09
1.32084e-08
7.16458e-09
1.35793e-08
4.80276e-09
1.38584e-08
2.4093e-09
1.4045e-08
1.41384e-08
-2.65877e-09
1.67971e-08
-5.30011e-09
1.66863e-08
-7.90666e-09
1.6465e-08
-1.04611e-08
1.61337e-08
-1.29464e-08
1.56937e-08
-1.53455e-08
1.5146e-08
-1.76418e-08
1.44927e-08
-1.9819e-08
1.37359e-08
-2.18611e-08
1.28783e-08
-2.37528e-08
1.19232e-08
-2.54791e-08
1.08745e-08
-2.7026e-08
9.73691e-09
-2.83802e-08
8.51565e-09
-2.95292e-08
7.2169e-09
-3.04619e-08
5.84764e-09
-3.1168e-08
4.41577e-09
-3.1639e-08
2.93012e-09
-3.18677e-08
1.40047e-09
-3.18486e-08
-1.62438e-10
-3.15781e-08
-1.74695e-09
-3.10545e-08
-3.34051e-09
-3.02783e-08
-4.92977e-09
-2.92522e-08
-6.50067e-09
-2.79813e-08
-8.03861e-09
-2.64729e-08
-9.52857e-09
-2.4737e-08
-1.09553e-08
-2.27859e-08
-1.23038e-08
-2.06344e-08
-1.3559e-08
-1.82995e-08
-1.47066e-08
-1.58005e-08
-1.57331e-08
-1.31586e-08
-1.66261e-08
-1.0397e-08
-1.73745e-08
-9.13901e-09
-7.91276e-09
-7.86451e-09
-8.01616e-09
-6.57574e-09
-8.10528e-09
-5.27502e-09
-8.1799e-09
-3.96469e-09
-8.23983e-09
-2.64715e-09
-8.28492e-09
-1.32478e-09
-8.31504e-09
3.70797e-17
-8.33012e-09
1.32478e-09
-8.33012e-09
2.64715e-09
-8.31504e-09
3.96469e-09
-8.28492e-09
5.27502e-09
-8.23983e-09
6.57574e-09
-8.1799e-09
7.86451e-09
-8.10528e-09
9.13901e-09
-8.01616e-09
1.0397e-08
-7.91276e-09
1.31586e-08
-1.73745e-08
1.58005e-08
-1.66261e-08
1.82995e-08
-1.57331e-08
2.06344e-08
-1.47066e-08
2.27859e-08
-1.3559e-08
2.4737e-08
-1.23038e-08
2.64729e-08
-1.09553e-08
2.79813e-08
-9.52857e-09
2.92522e-08
-8.03861e-09
3.02783e-08
-6.50067e-09
3.10545e-08
-4.92977e-09
3.15781e-08
-3.34051e-09
3.18486e-08
-1.74695e-09
3.18677e-08
-1.62438e-10
3.1639e-08
1.40047e-09
3.1168e-08
2.93012e-09
3.04619e-08
4.41577e-09
2.95292e-08
5.84764e-09
2.83802e-08
7.2169e-09
2.7026e-08
8.51565e-09
2.54791e-08
9.73691e-09
2.37528e-08
1.08745e-08
2.18611e-08
1.19232e-08
1.9819e-08
1.28783e-08
1.76418e-08
1.37359e-08
1.53455e-08
1.44927e-08
1.29464e-08
1.5146e-08
1.04611e-08
1.56937e-08
7.90666e-09
1.61337e-08
5.30011e-09
1.6465e-08
2.65877e-09
1.66863e-08
1.67971e-08
-2.93931e-09
1.97364e-08
-5.85944e-09
1.96064e-08
-8.74127e-09
1.93468e-08
-1.15658e-08
1.89582e-08
-1.43141e-08
1.8442e-08
-1.69675e-08
1.77995e-08
-1.95078e-08
1.70329e-08
-2.19168e-08
1.61449e-08
-2.41769e-08
1.51384e-08
-2.62713e-08
1.40175e-08
-2.81833e-08
1.27866e-08
-2.98974e-08
1.1451e-08
-3.13988e-08
1.00171e-08
-3.26738e-08
8.49189e-09
-3.37098e-08
6.88362e-09
-3.44956e-08
5.20152e-09
-3.50213e-08
3.4559e-09
-3.52791e-08
1.65824e-09
-3.52627e-08
-1.78883e-10
-3.49678e-08
-2.04178e-09
-3.43926e-08
-3.9157e-09
-3.35375e-08
-5.78495e-09
-3.24051e-08
-7.633e-09
-3.10011e-08
-9.44263e-09
-2.93335e-08
-1.11962e-08
-2.74133e-08
-1.28756e-08
-2.52538e-08
-1.44632e-08
-2.28716e-08
-1.59412e-08
-2.02853e-08
-1.72928e-08
-1.75165e-08
-1.85019e-08
-1.45887e-08
-1.95539e-08
-1.15275e-08
-2.04356e-08
-1.0133e-08
-9.30729e-09
-8.72004e-09
-9.42912e-09
-7.29118e-09
-9.53414e-09
-5.84901e-09
-9.62207e-09
-4.39615e-09
-9.69269e-09
-2.93525e-09
-9.74582e-09
-1.46897e-09
-9.78132e-09
3.36103e-17
-9.79909e-09
1.46897e-09
-9.79909e-09
2.93525e-09
-9.78132e-09
4.39615e-09
-9.74582e-09
5.84901e-09
-9.69269e-09
7.29118e-09
-9.62207e-09
8.72004e-09
-9.53414e-09
1.0133e-08
-9.42912e-09
1.15275e-08
-9.30729e-09
1.45887e-08
-2.04356e-08
1.75165e-08
-1.95539e-08
2.02853e-08
-1.85019e-08
2.28716e-08
-1.72928e-08
2.52538e-08
-1.59412e-08
2.74133e-08
-1.44632e-08
2.93335e-08
-1.28756e-08
3.10011e-08
-1.11962e-08
3.24051e-08
-9.44263e-09
3.35375e-08
-7.633e-09
3.43926e-08
-5.78495e-09
3.49678e-08
-3.9157e-09
3.52627e-08
-2.04178e-09
3.52791e-08
-1.78883e-10
3.50213e-08
1.65824e-09
3.44956e-08
3.4559e-09
3.37098e-08
5.20152e-09
3.26738e-08
6.88362e-09
3.13988e-08
8.49189e-09
2.98974e-08
1.00171e-08
2.81833e-08
1.1451e-08
2.62713e-08
1.27866e-08
2.41769e-08
1.40175e-08
2.19168e-08
1.51384e-08
1.95078e-08
1.61449e-08
1.69675e-08
1.70329e-08
1.43141e-08
1.77995e-08
1.15658e-08
1.8442e-08
8.74127e-09
1.89582e-08
5.85944e-09
1.93468e-08
2.93931e-09
1.96064e-08
1.97364e-08
-3.25651e-09
2.2993e-08
-6.49189e-09
2.28418e-08
-9.68508e-09
2.254e-08
-1.28151e-08
2.20883e-08
-1.58612e-08
2.1488e-08
-1.88027e-08
2.0741e-08
-2.16193e-08
1.98496e-08
-2.42912e-08
1.88168e-08
-2.6799e-08
1.76462e-08
-2.91237e-08
1.63422e-08
-3.12471e-08
1.491e-08
-3.31518e-08
1.33558e-08
-3.48215e-08
1.16868e-08
-3.62408e-08
9.91116e-09
-3.73956e-08
8.03844e-09
-3.82734e-08
6.07927e-09
-3.88631e-08
4.04565e-09
-3.91557e-08
1.95086e-09
-3.91441e-08
-1.90459e-10
-3.88235e-08
-2.36239e-09
-3.81915e-08
-4.54775e-09
-3.72482e-08
-6.72826e-09
-3.59966e-08
-8.88459e-09
-3.44425e-08
-1.09967e-08
-3.25949e-08
-1.30438e-08
-3.04657e-08
-1.50049e-08
-2.80697e-08
-1.68592e-08
-2.5425e-08
-1.85859e-08
-2.25527e-08
-2.01652e-08
-1.94764e-08
-2.15783e-08
-1.62224e-08
-2.28079e-08
-1.28193e-08
-2.38387e-08
-1.12688e-08
-1.08578e-08
-9.69768e-09
-1.10002e-08
-8.10879e-09
-1.1123e-08
-6.505e-09
-1.12259e-08
-4.88926e-09
-1.13084e-08
-3.26452e-09
-1.13706e-08
-1.63376e-09
-1.14121e-08
3.13299e-17
-1.14329e-08
1.63376e-09
-1.14329e-08
3.26452e-09
-1.14121e-08
4.88926e-09
-1.13706e-08
6.505e-09
-1.13084e-08
8.10879e-09
-1.12259e-08
9.69768e-09
-1.1123e-08
1.12688e-08
-1.10002e-08
1.28193e-08
-1.08578e-08
1.62224e-08
-2.38387e-08
1.94764e-08
-2.28079e-08
2.25527e-08
-2.15783e-08
2.5425e-08
-2.01652e-08
2.80697e-08
-1.85859e-08
3.04657e-08
-1.68592e-08
3.25949e-08
-1.50049e-08
3.44425e-08
-1.30438e-08
3.59966e-08
-1.09967e-08
3.72482e-08
-8.88459e-09
3.81915e-08
-6.72826e-09
3.88235e-08
-4.54775e-09
3.91441e-08
-2.36239e-09
3.91557e-08
-1.90459e-10
3.88631e-08
1.95086e-09
3.82734e-08
4.04565e-09
3.73956e-08
6.07927e-09
3.62408e-08
8.03844e-09
3.48215e-08
9.91116e-09
3.31518e-08
1.16868e-08
3.12471e-08
1.33558e-08
2.91237e-08
1.491e-08
2.6799e-08
1.63422e-08
2.42912e-08
1.76462e-08
2.16193e-08
1.88168e-08
1.88027e-08
1.98496e-08
1.58612e-08
2.0741e-08
1.28151e-08
2.1488e-08
9.68508e-09
2.20883e-08
6.49189e-09
2.254e-08
3.25651e-09
2.28418e-08
2.2993e-08
-3.61741e-09
2.66104e-08
-7.21153e-09
2.64359e-08
-1.07591e-08
2.60876e-08
-1.4237e-08
2.55662e-08
-1.76223e-08
2.48733e-08
-2.08921e-08
2.40109e-08
-2.40242e-08
2.29817e-08
-2.69964e-08
2.1789e-08
-2.97872e-08
2.0437e-08
-3.23756e-08
1.89306e-08
-3.47414e-08
1.72758e-08
-3.68653e-08
1.54796e-08
-3.87288e-08
1.35503e-08
-4.03148e-08
1.14972e-08
-4.16075e-08
9.33114e-09
-4.25927e-08
7.06448e-09
-4.3258e-08
4.71095e-09
-4.3593e-08
2.28585e-09
-4.35895e-08
-1.93922e-10
-4.32419e-08
-2.70998e-09
-4.25472e-08
-5.24247e-09
-4.15053e-08
-7.77019e-09
-4.01191e-08
-1.02707e-08
-3.8395e-08
-1.27208e-08
-3.63426e-08
-1.50962e-08
-3.39749e-08
-1.73726e-08
-3.13085e-08
-1.95256e-08
-2.83633e-08
-2.15311e-08
-2.51627e-08
-2.33658e-08
-2.17331e-08
-2.50078e-08
-1.81041e-08
-2.6437e-08
-1.43075e-08
-2.76352e-08
-1.25775e-08
-1.25879e-08
-1.08242e-08
-1.27535e-08
-9.05096e-09
-1.28963e-08
-7.26098e-09
-1.30158e-08
-5.45755e-09
-1.31119e-08
-3.644e-09
-1.31841e-08
-1.82369e-09
-1.32324e-08
2.92812e-17
-1.32565e-08
1.82369e-09
-1.32565e-08
3.644e-09
-1.32324e-08
5.45755e-09
-1.31841e-08
7.26098e-09
-1.31119e-08
9.05096e-09
-1.30158e-08
1.08242e-08
-1.28963e-08
1.25775e-08
-1.27535e-08
1.43075e-08
-1.25879e-08
1.81041e-08
-2.76352e-08
2.17331e-08
-2.6437e-08
2.51627e-08
-2.50078e-08
2.83633e-08
-2.33658e-08
3.13085e-08
-2.15311e-08
3.39749e-08
-1.95256e-08
3.63426e-08
-1.73726e-08
3.8395e-08
-1.50962e-08
4.01191e-08
-1.27208e-08
4.15053e-08
-1.02707e-08
4.25472e-08
-7.77019e-09
4.32419e-08
-5.24247e-09
4.35895e-08
-2.70998e-09
4.3593e-08
-1.93922e-10
4.3258e-08
2.28585e-09
4.25927e-08
4.71095e-09
4.16075e-08
7.06448e-09
4.03148e-08
9.33114e-09
3.87288e-08
1.14972e-08
3.68653e-08
1.35503e-08
3.47414e-08
1.54796e-08
3.23756e-08
1.72758e-08
2.97872e-08
1.89306e-08
2.69964e-08
2.0437e-08
2.40242e-08
2.1789e-08
2.08921e-08
2.29817e-08
1.76223e-08
2.40109e-08
1.4237e-08
2.48733e-08
1.07591e-08
2.55662e-08
7.21153e-09
2.60876e-08
3.61741e-09
2.64359e-08
2.66104e-08
-4.03098e-09
3.06413e-08
-8.03623e-09
3.04412e-08
-1.19901e-08
3.00414e-08
-1.5867e-08
2.94431e-08
-1.96415e-08
2.86478e-08
-2.32886e-08
2.76579e-08
-2.67832e-08
2.64763e-08
-3.0101e-08
2.51068e-08
-3.32181e-08
2.3554e-08
-3.6111e-08
2.18235e-08
-3.87572e-08
1.9922e-08
-4.1135e-08
1.78574e-08
-4.32238e-08
1.56391e-08
-4.50044e-08
1.32777e-08
-4.64588e-08
1.07855e-08
-4.75709e-08
8.17661e-09
-4.83266e-08
5.46663e-09
-4.87139e-08
2.67313e-09
-4.87233e-08
-1.84551e-10
-4.8348e-08
-3.08528e-09
-4.75842e-08
-6.0062e-09
-4.64316e-08
-8.92286e-09
-4.48929e-08
-1.18094e-08
-4.29748e-08
-1.46389e-08
-4.06877e-08
-1.73833e-08
-3.80459e-08
-2.00144e-08
-3.50678e-08
-2.25037e-08
-3.17754e-08
-2.48234e-08
-2.8195e-08
-2.69462e-08
-2.43561e-08
-2.88467e-08
-2.02919e-08
-3.05012e-08
-1.60384e-08
-3.18887e-08
-1.40996e-08
-1.45267e-08
-1.21346e-08
-1.47185e-08
-1.0147e-08
-1.48839e-08
-8.14046e-09
-1.50224e-08
-6.11872e-09
-1.51336e-08
-4.08552e-09
-1.52173e-08
-2.04468e-09
-1.52732e-08
1.95241e-17
-1.53012e-08
2.04468e-09
-1.53012e-08
4.08552e-09
-1.52732e-08
6.11872e-09
-1.52173e-08
8.14046e-09
-1.51336e-08
1.0147e-08
-1.50224e-08
1.21346e-08
-1.48839e-08
1.40996e-08
-1.47185e-08
1.60384e-08
-1.45267e-08
2.02919e-08
-3.18887e-08
2.43561e-08
-3.05012e-08
2.8195e-08
-2.88467e-08
3.17754e-08
-2.69462e-08
3.50678e-08
-2.48234e-08
3.80459e-08
-2.25037e-08
4.06877e-08
-2.00144e-08
4.29748e-08
-1.73833e-08
4.48929e-08
-1.46389e-08
4.64316e-08
-1.18094e-08
4.75842e-08
-8.92286e-09
4.8348e-08
-6.0062e-09
4.87233e-08
-3.08528e-09
4.87139e-08
-1.84551e-10
4.83266e-08
2.67313e-09
4.75709e-08
5.46663e-09
4.64588e-08
8.17661e-09
4.50044e-08
1.07855e-08
4.32238e-08
1.32777e-08
4.1135e-08
1.56391e-08
3.87572e-08
1.78574e-08
3.6111e-08
1.9922e-08
3.32181e-08
2.18235e-08
3.0101e-08
2.3554e-08
2.67832e-08
2.51068e-08
2.32886e-08
2.64763e-08
1.96415e-08
2.76579e-08
1.5867e-08
2.86478e-08
1.19901e-08
2.94431e-08
8.03623e-09
3.00414e-08
4.03098e-09
3.04412e-08
3.06413e-08
-4.50867e-09
3.515e-08
-8.98889e-09
3.49214e-08
-1.34123e-08
3.44648e-08
-1.77505e-08
3.37813e-08
-2.19755e-08
3.28728e-08
-2.60594e-08
3.17418e-08
-2.99745e-08
3.03914e-08
-3.36936e-08
2.88259e-08
-3.719e-08
2.70504e-08
-4.04377e-08
2.50712e-08
-4.34113e-08
2.28956e-08
-4.60865e-08
2.05326e-08
-4.844e-08
1.79927e-08
-5.04501e-08
1.52877e-08
-5.20963e-08
1.24317e-08
-5.33602e-08
9.44054e-09
-5.42255e-08
6.33195e-09
-5.46783e-08
3.12593e-09
-5.47074e-08
-1.55477e-10
-5.43046e-08
-3.48809e-09
-5.34651e-08
-6.84572e-09
-5.21876e-08
-1.02003e-08
-5.0475e-08
-1.3522e-08
-4.83341e-08
-1.67798e-08
-4.57761e-08
-1.99413e-08
-4.28166e-08
-2.29738e-08
-3.9476e-08
-2.58444e-08
-3.5779e-08
-2.85204e-08
-3.17548e-08
-3.09704e-08
-2.74368e-08
-3.31646e-08
-2.28625e-08
-3.50756e-08
-1.80727e-08
-3.66785e-08
-1.58888e-08
-1.67105e-08
-1.36751e-08
-1.69322e-08
-1.14356e-08
-1.71233e-08
-9.17455e-09
-1.72834e-08
-6.89616e-09
-1.7412e-08
-4.60471e-09
-1.75088e-08
-2.30454e-09
-1.75734e-08
3.56796e-17
-1.76058e-08
2.30454e-09
-1.76058e-08
4.60471e-09
-1.75734e-08
6.89616e-09
-1.75088e-08
9.17455e-09
-1.7412e-08
1.14356e-08
-1.72834e-08
1.36751e-08
-1.71233e-08
1.58888e-08
-1.69322e-08
1.80727e-08
-1.67105e-08
2.28625e-08
-3.66785e-08
2.74368e-08
-3.50756e-08
3.17548e-08
-3.31646e-08
3.5779e-08
-3.09704e-08
3.9476e-08
-2.85204e-08
4.28166e-08
-2.58444e-08
4.57761e-08
-2.29738e-08
4.83341e-08
-1.99413e-08
5.0475e-08
-1.67798e-08
5.21876e-08
-1.3522e-08
5.34651e-08
-1.02003e-08
5.43046e-08
-6.84572e-09
5.47074e-08
-3.48809e-09
5.46783e-08
-1.55477e-10
5.42255e-08
3.12593e-09
5.33602e-08
6.33195e-09
5.20963e-08
9.44054e-09
5.04501e-08
1.24317e-08
4.844e-08
1.52877e-08
4.60865e-08
1.79927e-08
4.34113e-08
2.05326e-08
4.04377e-08
2.28956e-08
3.719e-08
2.50712e-08
3.36936e-08
2.70504e-08
2.99745e-08
2.88259e-08
2.60594e-08
3.03914e-08
2.19755e-08
3.17418e-08
1.77505e-08
3.28728e-08
1.34123e-08
3.37813e-08
8.98889e-09
3.44648e-08
4.50867e-09
3.49214e-08
3.515e-08
-5.06529e-09
4.02153e-08
-1.00991e-08
3.99552e-08
-1.50699e-08
3.94356e-08
-1.99465e-08
3.86579e-08
-2.46974e-08
3.76238e-08
-2.92919e-08
3.63362e-08
-3.3699e-08
3.47986e-08
-3.78886e-08
3.30154e-08
-4.18306e-08
3.09924e-08
-4.54958e-08
2.87364e-08
-4.88558e-08
2.62556e-08
-5.1883e-08
2.35599e-08
-5.45511e-08
2.06607e-08
-5.68351e-08
1.75717e-08
-5.87117e-08
1.43084e-08
-6.01597e-08
1.08885e-08
-6.116e-08
7.33224e-09
-6.16962e-08
3.66216e-09
-6.1755e-08
-9.66893e-11
-6.13263e-08
-3.91677e-09
-6.04039e-08
-7.76814e-09
-5.89855e-08
-1.16186e-08
-5.70735e-08
-1.54341e-08
-5.46747e-08
-1.91785e-08
-5.18012e-08
-2.28148e-08
-4.84701e-08
-2.63049e-08
-4.47039e-08
-2.96106e-08
-4.05302e-08
-3.26941e-08
-3.5982e-08
-3.55186e-08
-3.10971e-08
-3.80495e-08
-2.59181e-08
-4.02545e-08
-2.04917e-08
-4.21049e-08
-1.80168e-08
-1.91855e-08
-1.55075e-08
-1.94415e-08
-1.29685e-08
-1.96623e-08
-1.04048e-08
-1.98472e-08
-7.82113e-09
-1.99957e-08
-5.22245e-09
-2.01074e-08
-2.61374e-09
-2.01821e-08
4.78235e-17
-2.02195e-08
2.61374e-09
-2.02195e-08
5.22245e-09
-2.01821e-08
7.82113e-09
-2.01074e-08
1.04048e-08
-1.99957e-08
1.29685e-08
-1.98472e-08
1.55075e-08
-1.96623e-08
1.80168e-08
-1.94415e-08
2.04917e-08
-1.91855e-08
2.59181e-08
-4.21049e-08
3.10971e-08
-4.02545e-08
3.5982e-08
-3.80495e-08
4.05302e-08
-3.55186e-08
4.47039e-08
-3.26941e-08
4.84701e-08
-2.96106e-08
5.18012e-08
-2.63049e-08
5.46747e-08
-2.28148e-08
5.70735e-08
-1.91785e-08
5.89855e-08
-1.54341e-08
6.04039e-08
-1.16186e-08
6.13263e-08
-7.76814e-09
6.1755e-08
-3.91677e-09
6.16962e-08
-9.66894e-11
6.116e-08
3.66216e-09
6.01597e-08
7.33224e-09
5.87117e-08
1.08885e-08
5.68351e-08
1.43084e-08
5.45511e-08
1.75717e-08
5.1883e-08
2.06607e-08
4.88558e-08