/*--------------------------------*- C++ -*----------------------------------*\
  =========                 |
  \\      /  F ield         | OpenFOAM: The Open Source CFD Toolbox
   \\    /   O peration     | Website:  https://openfoam.org
    \\  /    A nd           | Version:  10
     \\/     M anipulation  |
\*---------------------------------------------------------------------------*/
FoamFile
{
    format      ascii;
    class       volScalarField;
    location    "3";
    object      p;
}
// * * * * * * * * * * * * * * * * * * * * * * * * * * * * * * * * * * * * * //

dimensions      [1 -1 -2 0 0 0 0];

internalField   nonuniform List<scalar> 
12225
(
2.41218e+07
2.41123e+07
2.40951e+07
2.40719e+07
2.40443e+07
2.40135e+07
2.39805e+07
2.39458e+07
2.39099e+07
2.38731e+07
2.38356e+07
2.37974e+07
2.37584e+07
2.37186e+07
2.36775e+07
2.36344e+07
2.35879e+07
2.35343e+07
2.41221e+07
2.41126e+07
2.40953e+07
2.40721e+07
2.40445e+07
2.40137e+07
2.39806e+07
2.39459e+07
2.391e+07
2.38733e+07
2.38357e+07
2.37976e+07
2.37586e+07
2.37189e+07
2.36779e+07
2.36351e+07
2.35893e+07
2.35382e+07
2.41229e+07
2.41133e+07
2.40959e+07
2.40726e+07
2.40449e+07
2.4014e+07
2.39809e+07
2.39462e+07
2.39103e+07
2.38736e+07
2.38361e+07
2.37979e+07
2.37591e+07
2.37195e+07
2.36788e+07
2.36365e+07
2.35919e+07
2.35442e+07
2.4124e+07
2.41144e+07
2.40968e+07
2.40734e+07
2.40455e+07
2.40146e+07
2.39814e+07
2.39467e+07
2.39108e+07
2.3874e+07
2.38366e+07
2.37986e+07
2.37599e+07
2.37205e+07
2.36802e+07
2.36387e+07
2.35956e+07
2.35512e+07
2.41258e+07
2.41159e+07
2.40982e+07
2.40745e+07
2.40465e+07
2.40154e+07
2.39821e+07
2.39473e+07
2.39114e+07
2.38747e+07
2.38373e+07
2.37994e+07
2.3761e+07
2.37219e+07
2.36822e+07
2.36416e+07
2.36003e+07
2.35587e+07
2.41282e+07
2.41181e+07
2.41001e+07
2.4076e+07
2.40477e+07
2.40165e+07
2.39831e+07
2.39482e+07
2.39123e+07
2.38756e+07
2.38384e+07
2.38006e+07
2.37625e+07
2.37238e+07
2.36848e+07
2.36453e+07
2.36056e+07
2.35665e+07
2.41314e+07
2.4121e+07
2.41025e+07
2.4078e+07
2.40494e+07
2.40178e+07
2.39843e+07
2.39493e+07
2.39134e+07
2.38768e+07
2.38396e+07
2.38021e+07
2.37643e+07
2.37262e+07
2.36879e+07
2.36495e+07
2.36114e+07
2.35744e+07
2.41355e+07
2.41247e+07
2.41056e+07
2.40806e+07
2.40515e+07
2.40196e+07
2.39858e+07
2.39507e+07
2.39147e+07
2.38782e+07
2.38412e+07
2.3804e+07
2.37665e+07
2.3729e+07
2.36915e+07
2.36542e+07
2.36176e+07
2.35823e+07
2.41407e+07
2.41293e+07
2.41094e+07
2.40837e+07
2.4054e+07
2.40216e+07
2.39876e+07
2.39524e+07
2.39164e+07
2.38799e+07
2.38431e+07
2.38062e+07
2.37692e+07
2.37323e+07
2.36956e+07
2.36594e+07
2.36241e+07
2.35902e+07
2.41473e+07
2.41351e+07
2.41141e+07
2.40874e+07
2.40569e+07
2.40241e+07
2.39897e+07
2.39543e+07
2.39183e+07
2.38819e+07
2.38453e+07
2.38087e+07
2.37722e+07
2.3736e+07
2.37001e+07
2.3665e+07
2.36308e+07
2.35981e+07
2.41554e+07
2.41421e+07
2.41197e+07
2.40918e+07
2.40604e+07
2.40269e+07
2.39921e+07
2.39565e+07
2.39205e+07
2.38842e+07
2.38478e+07
2.38116e+07
2.37756e+07
2.374e+07
2.3705e+07
2.36708e+07
2.36377e+07
2.3606e+07
2.41647e+07
2.41499e+07
2.41258e+07
2.40964e+07
2.40639e+07
2.40298e+07
2.39946e+07
2.39588e+07
2.39227e+07
2.38865e+07
2.38504e+07
2.38145e+07
2.3779e+07
2.3744e+07
2.37097e+07
2.36763e+07
2.3644e+07
2.36131e+07
2.41758e+07
2.41589e+07
2.41326e+07
2.41014e+07
2.40678e+07
2.40328e+07
2.39971e+07
2.39611e+07
2.3925e+07
2.38889e+07
2.38531e+07
2.38176e+07
2.37825e+07
2.37481e+07
2.37145e+07
2.36818e+07
2.36503e+07
2.36201e+07
2.41914e+07
2.4171e+07
2.41412e+07
2.41076e+07
2.40723e+07
2.40364e+07
2.40002e+07
2.39639e+07
2.39278e+07
2.38919e+07
2.38563e+07
2.38212e+07
2.37867e+07
2.3753e+07
2.37201e+07
2.36882e+07
2.36575e+07
2.3628e+07
2.42144e+07
2.41871e+07
2.41519e+07
2.41148e+07
2.40775e+07
2.40403e+07
2.40035e+07
2.3967e+07
2.39309e+07
2.38952e+07
2.386e+07
2.38255e+07
2.37916e+07
2.37585e+07
2.37264e+07
2.36953e+07
2.36653e+07
2.36366e+07
2.42498e+07
2.42074e+07
2.41634e+07
2.41218e+07
2.40822e+07
2.4044e+07
2.40066e+07
2.397e+07
2.39341e+07
2.38987e+07
2.3864e+07
2.38301e+07
2.37969e+07
2.37646e+07
2.37333e+07
2.3703e+07
2.36738e+07
2.36457e+07
2.43089e+07
2.4226e+07
2.41707e+07
2.41253e+07
2.40844e+07
2.40457e+07
2.40084e+07
2.39721e+07
2.39366e+07
2.39018e+07
2.38678e+07
2.38346e+07
2.38022e+07
2.37708e+07
2.37403e+07
2.37108e+07
2.36823e+07
2.3655e+07
2.4235e+07
2.4198e+07
2.41571e+07
2.41175e+07
2.40793e+07
2.40425e+07
2.40065e+07
2.39714e+07
2.3937e+07
2.39033e+07
2.38703e+07
2.38381e+07
2.38068e+07
2.37763e+07
2.37467e+07
2.37181e+07
2.36904e+07
2.36638e+07
2.41745e+07
2.4156e+07
2.41289e+07
2.4098e+07
2.40656e+07
2.40327e+07
2.39996e+07
2.39668e+07
2.39342e+07
2.39022e+07
2.38707e+07
2.38398e+07
2.38097e+07
2.37803e+07
2.37518e+07
2.37241e+07
2.36973e+07
2.36714e+07
2.41345e+07
2.41223e+07
2.41022e+07
2.40773e+07
2.40496e+07
2.40204e+07
2.39902e+07
2.39597e+07
2.39292e+07
2.38987e+07
2.38687e+07
2.38391e+07
2.381e+07
2.37817e+07
2.3754e+07
2.37271e+07
2.3701e+07
2.36758e+07
2.41096e+07
2.41e+07
2.40834e+07
2.40619e+07
2.40372e+07
2.40104e+07
2.39824e+07
2.39536e+07
2.39245e+07
2.38953e+07
2.38663e+07
2.38376e+07
2.38094e+07
2.37817e+07
2.37547e+07
2.37284e+07
2.37028e+07
2.3678e+07
2.40921e+07
2.40839e+07
2.40693e+07
2.405e+07
2.40273e+07
2.40023e+07
2.39758e+07
2.39483e+07
2.39203e+07
2.38921e+07
2.38639e+07
2.3836e+07
2.38084e+07
2.37813e+07
2.37547e+07
2.37288e+07
2.37036e+07
2.36791e+07
2.40798e+07
2.40724e+07
2.40591e+07
2.40411e+07
2.40198e+07
2.39961e+07
2.39706e+07
2.39441e+07
2.39169e+07
2.38894e+07
2.38619e+07
2.38344e+07
2.38073e+07
2.37806e+07
2.37544e+07
2.37289e+07
2.37039e+07
2.36797e+07
2.40711e+07
2.40642e+07
2.40517e+07
2.40347e+07
2.40143e+07
2.39914e+07
2.39667e+07
2.39409e+07
2.39143e+07
2.38873e+07
2.38602e+07
2.38331e+07
2.38064e+07
2.378e+07
2.37541e+07
2.37287e+07
2.3704e+07
2.36799e+07
2.40651e+07
2.40585e+07
2.40465e+07
2.40301e+07
2.40103e+07
2.3988e+07
2.39639e+07
2.39385e+07
2.39123e+07
2.38857e+07
2.38589e+07
2.38321e+07
2.38056e+07
2.37794e+07
2.37537e+07
2.37285e+07
2.37039e+07
2.368e+07
2.4061e+07
2.40546e+07
2.40429e+07
2.40269e+07
2.40076e+07
2.39856e+07
2.39619e+07
2.39368e+07
2.39109e+07
2.38845e+07
2.3858e+07
2.38314e+07
2.3805e+07
2.3779e+07
2.37534e+07
2.37283e+07
2.37039e+07
2.368e+07
2.40583e+07
2.40521e+07
2.40406e+07
2.40248e+07
2.40057e+07
2.39841e+07
2.39605e+07
2.39357e+07
2.391e+07
2.38838e+07
2.38573e+07
2.38309e+07
2.38046e+07
2.37787e+07
2.37532e+07
2.37282e+07
2.37038e+07
2.368e+07
2.40567e+07
2.40505e+07
2.40392e+07
2.40235e+07
2.40046e+07
2.39831e+07
2.39597e+07
2.3935e+07
2.39094e+07
2.38833e+07
2.38569e+07
2.38305e+07
2.38044e+07
2.37785e+07
2.3753e+07
2.37281e+07
2.37037e+07
2.36799e+07
2.40558e+07
2.40497e+07
2.40384e+07
2.40228e+07
2.4004e+07
2.39825e+07
2.39592e+07
2.39346e+07
2.39091e+07
2.3883e+07
2.38567e+07
2.38304e+07
2.38042e+07
2.37784e+07
2.37529e+07
2.3728e+07
2.37037e+07
2.36799e+07
2.40554e+07
2.40493e+07
2.4038e+07
2.40225e+07
2.40037e+07
2.39823e+07
2.3959e+07
2.39344e+07
2.39089e+07
2.38829e+07
2.38566e+07
2.38303e+07
2.38041e+07
2.37783e+07
2.37529e+07
2.3728e+07
2.37036e+07
2.36799e+07
2.30222e+07
2.30219e+07
2.30212e+07
2.302e+07
2.30185e+07
2.30166e+07
2.30142e+07
2.30115e+07
2.30083e+07
2.30046e+07
2.30006e+07
2.29961e+07
2.29911e+07
2.29857e+07
2.29799e+07
2.29735e+07
2.29667e+07
2.29595e+07
2.29517e+07
2.29435e+07
2.29348e+07
2.29256e+07
2.29159e+07
2.29057e+07
2.2895e+07
2.28838e+07
2.28722e+07
2.286e+07
2.28473e+07
2.28341e+07
2.28204e+07
2.28062e+07
2.27915e+07
2.27762e+07
2.27605e+07
2.27442e+07
2.27274e+07
2.27101e+07
2.26923e+07
2.26739e+07
2.26551e+07
2.26357e+07
2.26158e+07
2.25953e+07
2.25743e+07
2.25528e+07
2.25308e+07
2.25082e+07
2.2485e+07
2.24614e+07
2.24372e+07
2.24124e+07
2.23871e+07
2.23613e+07
2.23349e+07
2.23079e+07
2.22804e+07
2.22523e+07
2.22236e+07
2.21944e+07
2.21646e+07
2.21342e+07
2.21033e+07
2.20717e+07
2.20396e+07
2.20068e+07
2.19735e+07
2.19395e+07
2.1905e+07
2.18698e+07
2.1834e+07
2.17975e+07
2.17605e+07
2.17227e+07
2.16844e+07
2.16453e+07
2.16056e+07
2.15653e+07
2.15242e+07
2.14825e+07
2.14401e+07
2.1397e+07
2.13532e+07
2.13087e+07
2.12634e+07
2.12175e+07
2.11708e+07
2.11233e+07
2.10751e+07
2.10262e+07
2.09765e+07
2.09259e+07
2.08746e+07
2.08224e+07
2.07694e+07
2.07155e+07
2.06607e+07
2.06049e+07
2.05481e+07
2.04902e+07
2.04312e+07
2.0371e+07
2.03096e+07
2.02468e+07
2.01825e+07
2.01166e+07
2.00491e+07
1.99796e+07
1.99083e+07
1.98349e+07
1.97594e+07
1.96815e+07
1.96018e+07
1.95228e+07
1.94453e+07
1.93681e+07
1.92928e+07
1.92189e+07
1.91462e+07
1.90746e+07
1.90039e+07
1.8934e+07
1.88649e+07
1.87963e+07
1.87282e+07
1.86605e+07
1.85931e+07
1.85259e+07
1.84588e+07
1.83918e+07
1.83249e+07
1.82578e+07
1.81907e+07
1.81235e+07
1.8056e+07
1.79884e+07
1.79205e+07
1.78524e+07
1.77839e+07
1.77151e+07
1.76459e+07
1.75764e+07
1.75065e+07
1.74362e+07
1.73654e+07
1.72942e+07
1.72225e+07
1.71504e+07
1.70778e+07
1.70047e+07
1.69311e+07
1.6857e+07
1.67823e+07
1.67071e+07
1.66314e+07
1.65552e+07
1.64783e+07
1.64009e+07
1.6323e+07
1.62444e+07
1.61653e+07
1.60856e+07
1.60053e+07
1.59244e+07
1.58429e+07
1.57608e+07
1.56781e+07
1.55947e+07
1.55108e+07
1.54263e+07
1.53412e+07
1.52555e+07
1.51692e+07
1.50824e+07
1.49951e+07
1.49073e+07
1.48193e+07
1.47311e+07
1.4643e+07
1.45559e+07
2.30234e+07
2.3023e+07
2.30222e+07
2.30211e+07
2.30195e+07
2.30176e+07
2.30152e+07
2.30125e+07
2.30092e+07
2.30056e+07
2.30015e+07
2.2997e+07
2.29921e+07
2.29866e+07
2.29808e+07
2.29744e+07
2.29676e+07
2.29604e+07
2.29526e+07
2.29444e+07
2.29356e+07
2.29264e+07
2.29167e+07
2.29065e+07
2.28959e+07
2.28847e+07
2.2873e+07
2.28608e+07
2.28481e+07
2.28349e+07
2.28212e+07
2.2807e+07
2.27922e+07
2.2777e+07
2.27612e+07
2.2745e+07
2.27282e+07
2.27109e+07
2.26931e+07
2.26747e+07
2.26558e+07
2.26364e+07
2.26165e+07
2.25961e+07
2.25751e+07
2.25536e+07
2.25315e+07
2.2509e+07
2.24859e+07
2.24622e+07
2.2438e+07
2.24133e+07
2.2388e+07
2.23621e+07
2.23357e+07
2.23088e+07
2.22813e+07
2.22532e+07
2.22246e+07
2.21953e+07
2.21656e+07
2.21352e+07
2.21043e+07
2.20727e+07
2.20406e+07
2.20079e+07
2.19746e+07
2.19406e+07
2.19061e+07
2.18709e+07
2.18351e+07
2.17987e+07
2.17617e+07
2.1724e+07
2.16857e+07
2.16467e+07
2.1607e+07
2.15667e+07
2.15257e+07
2.14841e+07
2.14417e+07
2.13987e+07
2.13549e+07
2.13105e+07
2.12653e+07
2.12194e+07
2.11727e+07
2.11254e+07
2.10772e+07
2.10283e+07
2.09786e+07
2.09281e+07
2.08767e+07
2.08246e+07
2.07715e+07
2.07175e+07
2.06626e+07
2.06068e+07
2.05499e+07
2.0492e+07
2.0433e+07
2.03729e+07
2.03115e+07
2.02489e+07
2.0185e+07
2.01197e+07
2.00529e+07
1.99844e+07
1.99142e+07
1.98416e+07
1.97653e+07
1.96837e+07
1.96009e+07
1.95213e+07
1.94448e+07
1.93665e+07
1.92914e+07
1.92178e+07
1.91452e+07
1.90736e+07
1.9003e+07
1.89333e+07
1.88642e+07
1.87957e+07
1.87277e+07
1.866e+07
1.85927e+07
1.85255e+07
1.84585e+07
1.83916e+07
1.83246e+07
1.82576e+07
1.81905e+07
1.81233e+07
1.80559e+07
1.79883e+07
1.79204e+07
1.78522e+07
1.77838e+07
1.7715e+07
1.76459e+07
1.75763e+07
1.75064e+07
1.74361e+07
1.73653e+07
1.72941e+07
1.72225e+07
1.71504e+07
1.70778e+07
1.70047e+07
1.69311e+07
1.68569e+07
1.67823e+07
1.67071e+07
1.66314e+07
1.65551e+07
1.64783e+07
1.64009e+07
1.6323e+07
1.62444e+07
1.61653e+07
1.60856e+07
1.60053e+07
1.59244e+07
1.58429e+07
1.57608e+07
1.56781e+07
1.55947e+07
1.55108e+07
1.54263e+07
1.53411e+07
1.52554e+07
1.51691e+07
1.50823e+07
1.4995e+07
1.49073e+07
1.48192e+07
1.47309e+07
1.46427e+07
1.45551e+07
2.30256e+07
2.30252e+07
2.30244e+07
2.30233e+07
2.30217e+07
2.30197e+07
2.30174e+07
2.30146e+07
2.30113e+07
2.30077e+07
2.30036e+07
2.29991e+07
2.29941e+07
2.29886e+07
2.29827e+07
2.29764e+07
2.29695e+07
2.29622e+07
2.29544e+07
2.29462e+07
2.29374e+07
2.29282e+07
2.29184e+07
2.29082e+07
2.28975e+07
2.28863e+07
2.28746e+07
2.28623e+07
2.28496e+07
2.28364e+07
2.28226e+07
2.28084e+07
2.27936e+07
2.27784e+07
2.27626e+07
2.27463e+07
2.27295e+07
2.27122e+07
2.26943e+07
2.2676e+07
2.26571e+07
2.26377e+07
2.26177e+07
2.25973e+07
2.25763e+07
2.25547e+07
2.25327e+07
2.25101e+07
2.2487e+07
2.24633e+07
2.24391e+07
2.24144e+07
2.23891e+07
2.23632e+07
2.23368e+07
2.23099e+07
2.22824e+07
2.22543e+07
2.22256e+07
2.21964e+07
2.21667e+07
2.21363e+07
2.21053e+07
2.20738e+07
2.20417e+07
2.2009e+07
2.19757e+07
2.19417e+07
2.19072e+07
2.18721e+07
2.18363e+07
2.17999e+07
2.17629e+07
2.17252e+07
2.16869e+07
2.16479e+07
2.16083e+07
2.1568e+07
2.1527e+07
2.14853e+07
2.1443e+07
2.14e+07
2.13562e+07
2.13118e+07
2.12666e+07
2.12207e+07
2.11741e+07
2.11267e+07
2.10785e+07
2.10296e+07
2.09799e+07
2.09294e+07
2.0878e+07
2.08258e+07
2.07727e+07
2.07188e+07
2.06639e+07
2.0608e+07
2.05512e+07
2.04933e+07
2.04343e+07
2.03743e+07
2.03131e+07
2.02507e+07
2.0187e+07
2.0122e+07
2.00555e+07
1.99876e+07
1.99181e+07
1.98466e+07
1.97727e+07
1.96966e+07
1.96199e+07
1.95423e+07
1.94506e+07
1.93625e+07
1.92889e+07
1.92156e+07
1.91432e+07
1.90718e+07
1.90014e+07
1.89318e+07
1.88629e+07
1.87946e+07
1.87267e+07
1.86591e+07
1.85919e+07
1.85248e+07
1.84579e+07
1.8391e+07
1.83241e+07
1.82572e+07
1.81902e+07
1.8123e+07
1.80556e+07
1.7988e+07
1.79202e+07
1.7852e+07
1.77836e+07
1.77148e+07
1.76457e+07
1.75762e+07
1.75063e+07
1.7436e+07
1.73653e+07
1.72941e+07
1.72224e+07
1.71503e+07
1.70777e+07
1.70046e+07
1.6931e+07
1.68569e+07
1.67823e+07
1.67071e+07
1.66314e+07
1.65551e+07
1.64783e+07
1.64009e+07
1.63229e+07
1.62444e+07
1.61653e+07
1.60856e+07
1.60053e+07
1.59244e+07
1.58429e+07
1.57607e+07
1.5678e+07
1.55947e+07
1.55108e+07
1.54262e+07
1.53411e+07
1.52554e+07
1.51691e+07
1.50822e+07
1.49949e+07
1.49071e+07
1.48189e+07
1.47305e+07
1.46421e+07
1.45539e+07
2.3029e+07
2.30286e+07
2.30278e+07
2.30267e+07
2.30251e+07
2.30231e+07
2.30207e+07
2.30179e+07
2.30147e+07
2.3011e+07
2.30068e+07
2.30023e+07
2.29972e+07
2.29918e+07
2.29858e+07
2.29794e+07
2.29725e+07
2.29651e+07
2.29573e+07
2.2949e+07
2.29402e+07
2.29309e+07
2.29211e+07
2.29108e+07
2.29e+07
2.28888e+07
2.2877e+07
2.28647e+07
2.28519e+07
2.28387e+07
2.28249e+07
2.28106e+07
2.27958e+07
2.27805e+07
2.27646e+07
2.27483e+07
2.27314e+07
2.27141e+07
2.26962e+07
2.26778e+07
2.26589e+07
2.26394e+07
2.26194e+07
2.25989e+07
2.25779e+07
2.25564e+07
2.25343e+07
2.25117e+07
2.24885e+07
2.24648e+07
2.24406e+07
2.24159e+07
2.23905e+07
2.23647e+07
2.23383e+07
2.23113e+07
2.22838e+07
2.22557e+07
2.2227e+07
2.21978e+07
2.2168e+07
2.21377e+07
2.21067e+07
2.20752e+07
2.2043e+07
2.20103e+07
2.1977e+07
2.19431e+07
2.19086e+07
2.18734e+07
2.18376e+07
2.18012e+07
2.17642e+07
2.17265e+07
2.16882e+07
2.16492e+07
2.16096e+07
2.15693e+07
2.15284e+07
2.14867e+07
2.14444e+07
2.14014e+07
2.13576e+07
2.13132e+07
2.1268e+07
2.12221e+07
2.11755e+07
2.11281e+07
2.108e+07
2.1031e+07
2.09813e+07
2.09308e+07
2.08794e+07
2.08272e+07
2.07742e+07
2.07202e+07
2.06653e+07
2.06095e+07
2.05527e+07
2.04948e+07
2.0436e+07
2.0376e+07
2.03149e+07
2.02527e+07
2.01892e+07
2.01245e+07
2.00585e+07
1.9991e+07
1.9922e+07
1.98514e+07
1.9779e+07
1.97051e+07
1.96301e+07
1.95536e+07
1.94726e+07
1.93898e+07
1.92872e+07
1.92125e+07
1.91402e+07
1.90691e+07
1.8999e+07
1.89296e+07
1.8861e+07
1.87929e+07
1.87252e+07
1.86578e+07
1.85907e+07
1.85238e+07
1.8457e+07
1.83902e+07
1.83234e+07
1.82566e+07
1.81896e+07
1.81225e+07
1.80552e+07
1.79876e+07
1.79198e+07
1.78517e+07
1.77833e+07
1.77146e+07
1.76455e+07
1.7576e+07
1.75061e+07
1.74358e+07
1.73651e+07
1.72939e+07
1.72223e+07
1.71502e+07
1.70776e+07
1.70045e+07
1.69309e+07
1.68568e+07
1.67822e+07
1.6707e+07
1.66313e+07
1.65551e+07
1.64782e+07
1.64009e+07
1.63229e+07
1.62444e+07
1.61652e+07
1.60855e+07
1.60052e+07
1.59243e+07
1.58428e+07
1.57607e+07
1.5678e+07
1.55947e+07
1.55107e+07
1.54262e+07
1.5341e+07
1.52553e+07
1.5169e+07
1.50821e+07
1.49947e+07
1.49069e+07
1.48186e+07
1.47301e+07
1.46414e+07
1.45526e+07
2.30338e+07
2.30334e+07
2.30326e+07
2.30314e+07
2.30298e+07
2.30278e+07
2.30254e+07
2.30225e+07
2.30192e+07
2.30155e+07
2.30113e+07
2.30067e+07
2.30016e+07
2.2996e+07
2.299e+07
2.29835e+07
2.29766e+07
2.29692e+07
2.29612e+07
2.29528e+07
2.2944e+07
2.29346e+07
2.29247e+07
2.29144e+07
2.29035e+07
2.28922e+07
2.28803e+07
2.28679e+07
2.28551e+07
2.28417e+07
2.28279e+07
2.28135e+07
2.27986e+07
2.27833e+07
2.27674e+07
2.2751e+07
2.2734e+07
2.27166e+07
2.26987e+07
2.26802e+07
2.26612e+07
2.26417e+07
2.26217e+07
2.26012e+07
2.25801e+07
2.25585e+07
2.25364e+07
2.25137e+07
2.24905e+07
2.24668e+07
2.24425e+07
2.24177e+07
2.23924e+07
2.23665e+07
2.23401e+07
2.23131e+07
2.22855e+07
2.22574e+07
2.22287e+07
2.21995e+07
2.21697e+07
2.21393e+07
2.21083e+07
2.20768e+07
2.20447e+07
2.20119e+07
2.19786e+07
2.19447e+07
2.19101e+07
2.1875e+07
2.18392e+07
2.18028e+07
2.17658e+07
2.17281e+07
2.16898e+07
2.16508e+07
2.16112e+07
2.15709e+07
2.15299e+07
2.14883e+07
2.1446e+07
2.14029e+07
2.13592e+07
2.13148e+07
2.12696e+07
2.12237e+07
2.11771e+07
2.11297e+07
2.10816e+07
2.10326e+07
2.09829e+07
2.09324e+07
2.0881e+07
2.08288e+07
2.07758e+07
2.07218e+07
2.0667e+07
2.06112e+07
2.05544e+07
2.04967e+07
2.04379e+07
2.0378e+07
2.03171e+07
2.0255e+07
2.01918e+07
2.01273e+07
2.00616e+07
1.99946e+07
1.99261e+07
1.98563e+07
1.97849e+07
1.97122e+07
1.96382e+07
1.95628e+07
1.9485e+07
1.9405e+07
1.93182e+07
1.92169e+07
1.91362e+07
1.90654e+07
1.89957e+07
1.89268e+07
1.88584e+07
1.87906e+07
1.87232e+07
1.86561e+07
1.85892e+07
1.85224e+07
1.84558e+07
1.83891e+07
1.83225e+07
1.82557e+07
1.81889e+07
1.81218e+07
1.80546e+07
1.79871e+07
1.79194e+07
1.78513e+07
1.7783e+07
1.77143e+07
1.76452e+07
1.75758e+07
1.75059e+07
1.74357e+07
1.7365e+07
1.72938e+07
1.72222e+07
1.71501e+07
1.70775e+07
1.70044e+07
1.69308e+07
1.68567e+07
1.67821e+07
1.6707e+07
1.66313e+07
1.6555e+07
1.64782e+07
1.64008e+07
1.63229e+07
1.62443e+07
1.61652e+07
1.60855e+07
1.60052e+07
1.59243e+07
1.58428e+07
1.57607e+07
1.56779e+07
1.55946e+07
1.55107e+07
1.54261e+07
1.53409e+07
1.52552e+07
1.51688e+07
1.50819e+07
1.49945e+07
1.49066e+07
1.48182e+07
1.47295e+07
1.46405e+07
1.45512e+07
2.30398e+07
2.30394e+07
2.30386e+07
2.30374e+07
2.30358e+07
2.30337e+07
2.30313e+07
2.30284e+07
2.3025e+07
2.30212e+07
2.3017e+07
2.30123e+07
2.30071e+07
2.30015e+07
2.29954e+07
2.29888e+07
2.29818e+07
2.29742e+07
2.29662e+07
2.29577e+07
2.29487e+07
2.29393e+07
2.29293e+07
2.29188e+07
2.29079e+07
2.28964e+07
2.28845e+07
2.2872e+07
2.28591e+07
2.28456e+07
2.28316e+07
2.28172e+07
2.28022e+07
2.27867e+07
2.27708e+07
2.27543e+07
2.27373e+07
2.27197e+07
2.27017e+07
2.26832e+07
2.26641e+07
2.26446e+07
2.26245e+07
2.26039e+07
2.25827e+07
2.25611e+07
2.25389e+07
2.25162e+07
2.24929e+07
2.24692e+07
2.24449e+07
2.242e+07
2.23946e+07
2.23687e+07
2.23422e+07
2.23152e+07
2.22876e+07
2.22595e+07
2.22308e+07
2.22015e+07
2.21717e+07
2.21412e+07
2.21103e+07
2.20787e+07
2.20465e+07
2.20138e+07
2.19804e+07
2.19465e+07
2.19119e+07
2.18768e+07
2.1841e+07
2.18046e+07
2.17675e+07
2.17298e+07
2.16915e+07
2.16525e+07
2.16129e+07
2.15726e+07
2.15317e+07
2.149e+07
2.14477e+07
2.14047e+07
2.13609e+07
2.13165e+07
2.12714e+07
2.12255e+07
2.11788e+07
2.11315e+07
2.10833e+07
2.10344e+07
2.09847e+07
2.09342e+07
2.08828e+07
2.08306e+07
2.07776e+07
2.07237e+07
2.06688e+07
2.06131e+07
2.05564e+07
2.04987e+07
2.044e+07
2.03803e+07
2.03195e+07
2.02576e+07
2.01945e+07
2.01304e+07
2.00649e+07
1.99983e+07
1.99303e+07
1.98611e+07
1.97905e+07
1.97186e+07
1.96455e+07
1.95709e+07
1.94946e+07
1.94162e+07
1.93343e+07
1.92464e+07
1.91424e+07
1.90608e+07
1.89916e+07
1.89232e+07
1.88553e+07
1.87879e+07
1.87208e+07
1.86539e+07
1.85873e+07
1.85207e+07
1.84543e+07
1.83878e+07
1.83213e+07
1.82547e+07
1.8188e+07
1.8121e+07
1.80539e+07
1.79865e+07
1.79188e+07
1.78509e+07
1.77826e+07
1.77139e+07
1.76449e+07
1.75755e+07
1.75057e+07
1.74354e+07
1.73647e+07
1.72936e+07
1.7222e+07
1.71499e+07
1.70774e+07
1.70043e+07
1.69307e+07
1.68567e+07
1.6782e+07
1.67069e+07
1.66312e+07
1.65549e+07
1.64781e+07
1.64008e+07
1.63228e+07
1.62443e+07
1.61652e+07
1.60855e+07
1.60052e+07
1.59243e+07
1.58427e+07
1.57606e+07
1.56779e+07
1.55946e+07
1.55106e+07
1.5426e+07
1.53408e+07
1.52551e+07
1.51687e+07
1.50817e+07
1.49943e+07
1.49062e+07
1.48177e+07
1.47288e+07
1.46395e+07
1.45497e+07
2.30472e+07
2.30468e+07
2.30459e+07
2.30447e+07
2.3043e+07
2.30409e+07
2.30384e+07
2.30355e+07
2.3032e+07
2.30282e+07
2.30238e+07
2.30191e+07
2.30138e+07
2.30081e+07
2.30019e+07
2.29952e+07
2.2988e+07
2.29804e+07
2.29722e+07
2.29636e+07
2.29545e+07
2.29449e+07
2.29348e+07
2.29242e+07
2.29131e+07
2.29015e+07
2.28894e+07
2.28769e+07
2.28638e+07
2.28502e+07
2.28361e+07
2.28215e+07
2.28065e+07
2.27909e+07
2.27748e+07
2.27582e+07
2.27411e+07
2.27235e+07
2.27053e+07
2.26867e+07
2.26676e+07
2.26479e+07
2.26277e+07
2.2607e+07
2.25858e+07
2.25641e+07
2.25419e+07
2.25191e+07
2.24958e+07
2.24719e+07
2.24476e+07
2.24227e+07
2.23972e+07
2.23712e+07
2.23447e+07
2.23176e+07
2.229e+07
2.22618e+07
2.22331e+07
2.22038e+07
2.21739e+07
2.21434e+07
2.21124e+07
2.20808e+07
2.20486e+07
2.20159e+07
2.19825e+07
2.19485e+07
2.19139e+07
2.18788e+07
2.18429e+07
2.18065e+07
2.17695e+07
2.17318e+07
2.16934e+07
2.16545e+07
2.16148e+07
2.15745e+07
2.15336e+07
2.14919e+07
2.14496e+07
2.14066e+07
2.13628e+07
2.13184e+07
2.12732e+07
2.12273e+07
2.11807e+07
2.11333e+07
2.10852e+07
2.10363e+07
2.09866e+07
2.09361e+07
2.08847e+07
2.08326e+07
2.07795e+07
2.07256e+07
2.06708e+07
2.06151e+07
2.05585e+07
2.05009e+07
2.04423e+07
2.03827e+07
2.0322e+07
2.02603e+07
2.01975e+07
2.01335e+07
2.00684e+07
2.00021e+07
1.99345e+07
1.98658e+07
1.97958e+07
1.97246e+07
1.96521e+07
1.95783e+07
1.95029e+07
1.94258e+07
1.93462e+07
1.92631e+07
1.91733e+07
1.90639e+07
1.89868e+07
1.8919e+07
1.88516e+07
1.87846e+07
1.87179e+07
1.86514e+07
1.8585e+07
1.85188e+07
1.84525e+07
1.83863e+07
1.83199e+07
1.82535e+07
1.81869e+07
1.81201e+07
1.80531e+07
1.79858e+07
1.79182e+07
1.78503e+07
1.7782e+07
1.77135e+07
1.76445e+07
1.75751e+07
1.75053e+07
1.74351e+07
1.73645e+07
1.72934e+07
1.72218e+07
1.71498e+07
1.70772e+07
1.70042e+07
1.69306e+07
1.68565e+07
1.67819e+07
1.67068e+07
1.66311e+07
1.65549e+07
1.64781e+07
1.64007e+07
1.63227e+07
1.62442e+07
1.61651e+07
1.60854e+07
1.60051e+07
1.59242e+07
1.58427e+07
1.57606e+07
1.56778e+07
1.55945e+07
1.55105e+07
1.54259e+07
1.53407e+07
1.52549e+07
1.51685e+07
1.50815e+07
1.4994e+07
1.49059e+07
1.48172e+07
1.47281e+07
1.46385e+07
1.45483e+07
2.30559e+07
2.30554e+07
2.30546e+07
2.30533e+07
2.30516e+07
2.30494e+07
2.30468e+07
2.30438e+07
2.30403e+07
2.30363e+07
2.30319e+07
2.3027e+07
2.30216e+07
2.30158e+07
2.30094e+07
2.30026e+07
2.29953e+07
2.29875e+07
2.29792e+07
2.29704e+07
2.29612e+07
2.29514e+07
2.29412e+07
2.29304e+07
2.29192e+07
2.29074e+07
2.28952e+07
2.28825e+07
2.28693e+07
2.28555e+07
2.28413e+07
2.28266e+07
2.28114e+07
2.27956e+07
2.27794e+07
2.27627e+07
2.27455e+07
2.27277e+07
2.27095e+07
2.26908e+07
2.26715e+07
2.26517e+07
2.26315e+07
2.26107e+07
2.25894e+07
2.25675e+07
2.25452e+07
2.25223e+07
2.2499e+07
2.2475e+07
2.24506e+07
2.24256e+07
2.24001e+07
2.23741e+07
2.23475e+07
2.23203e+07
2.22927e+07
2.22644e+07
2.22356e+07
2.22063e+07
2.21764e+07
2.21459e+07
2.21148e+07
2.20832e+07
2.20509e+07
2.20181e+07
2.19847e+07
2.19507e+07
2.19161e+07
2.18809e+07
2.18451e+07
2.18086e+07
2.17716e+07
2.17339e+07
2.16955e+07
2.16565e+07
2.16169e+07
2.15766e+07
2.15356e+07
2.14939e+07
2.14516e+07
2.14086e+07
2.13648e+07
2.13204e+07
2.12752e+07
2.12293e+07
2.11827e+07
2.11353e+07
2.10872e+07
2.10383e+07
2.09886e+07
2.09381e+07
2.08868e+07
2.08346e+07
2.07816e+07
2.07277e+07
2.0673e+07
2.06173e+07
2.05608e+07
2.05032e+07
2.04447e+07
2.03852e+07
2.03247e+07
2.02631e+07
2.02005e+07
2.01367e+07
2.00719e+07
2.00059e+07
1.99387e+07
1.98704e+07
1.98009e+07
1.97302e+07
1.96583e+07
1.95851e+07
1.95105e+07
1.94343e+07
1.93561e+07
1.92754e+07
1.91907e+07
1.90977e+07
1.89856e+07
1.89143e+07
1.88474e+07
1.87809e+07
1.87146e+07
1.86485e+07
1.85825e+07
1.85165e+07
1.84505e+07
1.83845e+07
1.83184e+07
1.82521e+07
1.81857e+07
1.8119e+07
1.80521e+07
1.79849e+07
1.79174e+07
1.78496e+07
1.77815e+07
1.77129e+07
1.7644e+07
1.75747e+07
1.7505e+07
1.74348e+07
1.73642e+07
1.72931e+07
1.72216e+07
1.71496e+07
1.7077e+07
1.7004e+07
1.69305e+07
1.68564e+07
1.67818e+07
1.67067e+07
1.6631e+07
1.65548e+07
1.6478e+07
1.64006e+07
1.63227e+07
1.62442e+07
1.61651e+07
1.60854e+07
1.60051e+07
1.59241e+07
1.58426e+07
1.57605e+07
1.56778e+07
1.55944e+07
1.55104e+07
1.54258e+07
1.53406e+07
1.52548e+07
1.51683e+07
1.50813e+07
1.49936e+07
1.49054e+07
1.48167e+07
1.47273e+07
1.46374e+07
1.45468e+07
2.30659e+07
2.30654e+07
2.30645e+07
2.30632e+07
2.30614e+07
2.30592e+07
2.30565e+07
2.30534e+07
2.30498e+07
2.30457e+07
2.30412e+07
2.30361e+07
2.30306e+07
2.30246e+07
2.30181e+07
2.30111e+07
2.30036e+07
2.29957e+07
2.29872e+07
2.29782e+07
2.29688e+07
2.29588e+07
2.29484e+07
2.29375e+07
2.29261e+07
2.29141e+07
2.29017e+07
2.28888e+07
2.28754e+07
2.28615e+07
2.28471e+07
2.28323e+07
2.28169e+07
2.2801e+07
2.27846e+07
2.27678e+07
2.27504e+07
2.27325e+07
2.27141e+07
2.26953e+07
2.26759e+07
2.2656e+07
2.26356e+07
2.26147e+07
2.25933e+07
2.25714e+07
2.25489e+07
2.2526e+07
2.25025e+07
2.24785e+07
2.2454e+07
2.24289e+07
2.24033e+07
2.23772e+07
2.23505e+07
2.23233e+07
2.22956e+07
2.22673e+07
2.22384e+07
2.2209e+07
2.2179e+07
2.21485e+07
2.21174e+07
2.20857e+07
2.20535e+07
2.20206e+07
2.19872e+07
2.19531e+07
2.19185e+07
2.18832e+07
2.18474e+07
2.18109e+07
2.17738e+07
2.17361e+07
2.16977e+07
2.16587e+07
2.1619e+07
2.15787e+07
2.15377e+07
2.1496e+07
2.14537e+07
2.14107e+07
2.13669e+07
2.13225e+07
2.12773e+07
2.12314e+07
2.11848e+07
2.11374e+07
2.10893e+07
2.10404e+07
2.09907e+07
2.09402e+07
2.08889e+07
2.08368e+07
2.07838e+07
2.073e+07
2.06752e+07
2.06196e+07
2.05631e+07
2.05057e+07
2.04472e+07
2.03878e+07
2.03274e+07
2.0266e+07
2.02036e+07
2.014e+07
2.00754e+07
2.00097e+07
1.99429e+07
1.98749e+07
1.98058e+07
1.97356e+07
1.96642e+07
1.95915e+07
1.95175e+07
1.9442e+07
1.93648e+07
1.92855e+07
1.92032e+07
1.91156e+07
1.90134e+07
1.89098e+07
1.88427e+07
1.87767e+07
1.87109e+07
1.86452e+07
1.85796e+07
1.8514e+07
1.84483e+07
1.83825e+07
1.83166e+07
1.82506e+07
1.81843e+07
1.81178e+07
1.8051e+07
1.7984e+07
1.79166e+07
1.78489e+07
1.77808e+07
1.77124e+07
1.76435e+07
1.75743e+07
1.75046e+07
1.74345e+07
1.73639e+07
1.72928e+07
1.72213e+07
1.71493e+07
1.70768e+07
1.70038e+07
1.69303e+07
1.68563e+07
1.67817e+07
1.67066e+07
1.66309e+07
1.65547e+07
1.64779e+07
1.64005e+07
1.63226e+07
1.62441e+07
1.6165e+07
1.60853e+07
1.6005e+07
1.59241e+07
1.58426e+07
1.57604e+07
1.56777e+07
1.55943e+07
1.55103e+07
1.54257e+07
1.53405e+07
1.52546e+07
1.51681e+07
1.5081e+07
1.49933e+07
1.4905e+07
1.48161e+07
1.47266e+07
1.46364e+07
1.45454e+07
2.30773e+07
2.30768e+07
2.30758e+07
2.30745e+07
2.30726e+07
2.30703e+07
2.30675e+07
2.30643e+07
2.30606e+07
2.30563e+07
2.30516e+07
2.30464e+07
2.30407e+07
2.30345e+07
2.30278e+07
2.30207e+07
2.3013e+07
2.30048e+07
2.29961e+07
2.2987e+07
2.29773e+07
2.29671e+07
2.29565e+07
2.29454e+07
2.29337e+07
2.29216e+07
2.2909e+07
2.28959e+07
2.28823e+07
2.28682e+07
2.28536e+07
2.28385e+07
2.2823e+07
2.28069e+07
2.27904e+07
2.27733e+07
2.27558e+07
2.27378e+07
2.27192e+07
2.27002e+07
2.26807e+07
2.26607e+07
2.26401e+07
2.26191e+07
2.25976e+07
2.25755e+07
2.2553e+07
2.25299e+07
2.25063e+07
2.24822e+07
2.24576e+07
2.24324e+07
2.24068e+07
2.23806e+07
2.23538e+07
2.23265e+07
2.22987e+07
2.22703e+07
2.22414e+07
2.22119e+07
2.21819e+07
2.21513e+07
2.21202e+07
2.20884e+07
2.20561e+07
2.20232e+07
2.19897e+07
2.19557e+07
2.1921e+07
2.18857e+07
2.18498e+07
2.18133e+07
2.17762e+07
2.17384e+07
2.17e+07
2.1661e+07
2.16213e+07
2.15809e+07
2.15399e+07
2.14982e+07
2.14559e+07
2.14128e+07
2.13691e+07
2.13246e+07
2.12795e+07
2.12336e+07
2.11869e+07
2.11396e+07
2.10914e+07
2.10425e+07
2.09928e+07
2.09424e+07
2.08911e+07
2.0839e+07
2.0786e+07
2.07322e+07
2.06776e+07
2.0622e+07
2.05655e+07
2.05082e+07
2.04498e+07
2.03905e+07
2.03303e+07
2.0269e+07
2.02067e+07
2.01434e+07
2.0079e+07
2.00135e+07
1.9947e+07
1.98793e+07
1.98106e+07
1.97407e+07
1.96697e+07
1.95975e+07
1.9524e+07
1.94491e+07
1.93727e+07
1.92943e+07
1.92135e+07
1.91288e+07
1.90361e+07
1.89202e+07
1.88375e+07
1.87722e+07
1.87069e+07
1.86416e+07
1.85764e+07
1.85112e+07
1.84458e+07
1.83803e+07
1.83147e+07
1.82489e+07
1.81828e+07
1.81165e+07
1.80499e+07
1.79829e+07
1.79157e+07
1.78481e+07
1.77801e+07
1.77117e+07
1.7643e+07
1.75738e+07
1.75041e+07
1.74341e+07
1.73635e+07
1.72925e+07
1.72211e+07
1.71491e+07
1.70766e+07
1.70036e+07
1.69301e+07
1.68561e+07
1.67815e+07
1.67064e+07
1.66308e+07
1.65546e+07
1.64778e+07
1.64005e+07
1.63225e+07
1.6244e+07
1.61649e+07
1.60852e+07
1.60049e+07
1.5924e+07
1.58425e+07
1.57604e+07
1.56776e+07
1.55942e+07
1.55102e+07
1.54256e+07
1.53403e+07
1.52544e+07
1.51679e+07
1.50807e+07
1.4993e+07
1.49045e+07
1.48155e+07
1.47258e+07
1.46353e+07
1.45441e+07
2.30901e+07
2.30895e+07
2.30886e+07
2.30871e+07
2.30852e+07
2.30828e+07
2.30799e+07
2.30765e+07
2.30726e+07
2.30682e+07
2.30633e+07
2.30579e+07
2.3052e+07
2.30456e+07
2.30387e+07
2.30313e+07
2.30233e+07
2.30149e+07
2.3006e+07
2.29966e+07
2.29867e+07
2.29763e+07
2.29654e+07
2.2954e+07
2.29421e+07
2.29298e+07
2.29169e+07
2.29036e+07
2.28897e+07
2.28754e+07
2.28606e+07
2.28453e+07
2.28296e+07
2.28133e+07
2.27966e+07
2.27794e+07
2.27616e+07
2.27434e+07
2.27247e+07
2.27055e+07
2.26859e+07
2.26657e+07
2.2645e+07
2.26238e+07
2.26022e+07
2.258e+07
2.25573e+07
2.25341e+07
2.25104e+07
2.24862e+07
2.24615e+07
2.24362e+07
2.24104e+07
2.23841e+07
2.23573e+07
2.23299e+07
2.2302e+07
2.22736e+07
2.22446e+07
2.22151e+07
2.2185e+07
2.21543e+07
2.21231e+07
2.20913e+07
2.20589e+07
2.2026e+07
2.19924e+07
2.19583e+07
2.19236e+07
2.18883e+07
2.18523e+07
2.18158e+07
2.17786e+07
2.17408e+07
2.17024e+07
2.16633e+07
2.16236e+07
2.15833e+07
2.15422e+07
2.15005e+07
2.14581e+07
2.14151e+07
2.13713e+07
2.13269e+07
2.12817e+07
2.12358e+07
2.11891e+07
2.11418e+07
2.10936e+07
2.10447e+07
2.09951e+07
2.09446e+07
2.08933e+07
2.08412e+07
2.07883e+07
2.07346e+07
2.06799e+07
2.06244e+07
2.0568e+07
2.05107e+07
2.04525e+07
2.03933e+07
2.03331e+07
2.0272e+07
2.02098e+07
2.01467e+07
2.00825e+07
2.00173e+07
1.9951e+07
1.98836e+07
1.98152e+07
1.97456e+07
1.9675e+07
1.96032e+07
1.95301e+07
1.94557e+07
1.93798e+07
1.93022e+07
1.92225e+07
1.91396e+07
1.90516e+07
1.89524e+07
1.8836e+07
1.87673e+07
1.87025e+07
1.86378e+07
1.8573e+07