/*--------------------------------*- C++ -*----------------------------------*\
  =========                 |
  \\      /  F ield         | OpenFOAM: The Open Source CFD Toolbox
   \\    /   O peration     | Website:  https://openfoam.org
    \\  /    A nd           | Version:  10
     \\/     M anipulation  |
\*---------------------------------------------------------------------------*/
FoamFile
{
    format      ascii;
    class       volVectorField;
    location    "1.9";
    object      Ua;
}
// * * * * * * * * * * * * * * * * * * * * * * * * * * * * * * * * * * * * * //

dimensions      [0 1 -1 0 0 0 0];

internalField   nonuniform List<vector> 
12225
(
(2.10014e-05 -2.70163e-06 0)
(6.13932e-05 -2.52957e-06 0)
(9.80069e-05 -2.21317e-06 0)
(0.000130256 -1.85653e-06 0)
(0.000158386 -1.53008e-06 0)
(0.000183064 -1.26884e-06 0)
(0.000205081 -1.08478e-06 0)
(0.000225195 -9.79037e-07 0)
(0.000244084 -9.50565e-07 0)
(0.000262357 -1.00168e-06 0)
(0.000280594 -1.14268e-06 0)
(0.000299416 -1.39807e-06 0)
(0.000319603 -1.81868e-06 0)
(0.000342296 -2.51067e-06 0)
(0.000369477 -3.71639e-06 0)
(0.000405319 -6.09215e-06 0)
(0.000461254 -1.19736e-05 0)
(0.000583179 -3.33979e-05 0)
(1.42382e-05 -6.98372e-06 0)
(4.19398e-05 -6.57999e-06 0)
(6.7755e-05 -5.79722e-06 0)
(9.12658e-05 -4.89697e-06 0)
(0.000112487 -4.06241e-06 0)
(0.000131697 -3.38915e-06 0)
(0.000149289 -2.91348e-06 0)
(0.000165678 -2.64283e-06 0)
(0.000181263 -2.57794e-06 0)
(0.000196421 -2.72788e-06 0)
(0.000211532 -3.12265e-06 0)
(0.000227013 -3.83018e-06 0)
(0.000243391 -4.9887e-06 0)
(0.000261422 -6.88237e-06 0)
(0.000282351 -1.01445e-05 0)
(0.000308445 -1.64068e-05 0)
(0.000343736 -3.08606e-05 0)
(0.000386849 -7.49296e-05 0)
(1.09978e-05 -9.57694e-06 0)
(3.25986e-05 -9.10619e-06 0)
(5.31768e-05 -8.10109e-06 0)
(7.24033e-05 -6.90673e-06 0)
(9.02013e-05 -5.77761e-06 0)
(0.00010668 -4.85543e-06 0)
(0.00012205 -4.20116e-06 0)
(0.000136565 -3.83412e-06 0)
(0.000150488 -3.76247e-06 0)
(0.00016408 -4.00485e-06 0)
(0.000177616 -4.60907e-06 0)
(0.000191399 -5.67672e-06 0)
(0.000205805 -7.40846e-06 0)
(0.000221343 -1.02046e-05 0)
(0.000238734 -1.49161e-05 0)
(0.000258893 -2.35452e-05 0)
(0.000281751 -4.13684e-05 0)
(0.000297256 -8.29949e-05 0)
(8.9092e-06 -1.12503e-05 0)
(2.65605e-05 -1.07986e-05 0)
(4.37098e-05 -9.69914e-06 0)
(6.00905e-05 -8.34347e-06 0)
(7.55813e-05 -7.03519e-06 0)
(9.01949e-05 -5.95355e-06 0)
(0.000104034 -5.18338e-06 0)
(0.000117249 -4.75828e-06 0)
(0.000130014 -4.69629e-06 0)
(0.000142513 -5.0264e-06 0)
(0.000154943 -5.81179e-06 0)
(0.000167521 -7.17915e-06 0)
(0.000180504 -9.37004e-06 0)
(0.000194192 -1.28467e-05 0)
(0.000208889 -1.85292e-05 0)
(0.000224574 -2.83437e-05 0)
(0.000239395 -4.63919e-05 0)
(0.000244211 -8.01673e-05 0)
(7.39686e-06 -1.22721e-05 0)
(2.21747e-05 -1.18959e-05 0)
(3.67979e-05 -1.07869e-05 0)
(5.10476e-05 -9.35984e-06 0)
(6.47824e-05 -7.95246e-06 0)
(7.79564e-05 -6.77476e-06 0)
(9.05999e-05 -5.93394e-06 0)
(0.000102793 -5.47865e-06 0)
(0.000114643 -5.43779e-06 0)
(0.000126274 -5.85043e-06 0)
(0.000137822 -6.79179e-06 0)
(0.000149431 -8.40466e-06 0)
(0.000161255 -1.09501e-05 0)
(0.000173422 -1.49019e-05 0)
(0.000185921 -2.11292e-05 0)
(0.000198203 -3.12209e-05 0)
(0.000208008 -4.7851e-05 0)
(0.000208954 -7.39405e-05 0)
(6.23284e-06 -1.27801e-05 0)
(1.87878e-05 -1.25193e-05 0)
(3.14302e-05 -1.14611e-05 0)
(4.39797e-05 -1.00287e-05 0)
(5.62888e-05 -8.58316e-06 0)
(6.82759e-05 -7.35906e-06 0)
(7.99224e-05 -6.48382e-06 0)
(9.12557e-05 -6.02083e-06 0)
(0.000102333 -6.00982e-06 0)
(0.000113228 -6.49873e-06 0)
(0.000124025 -7.57095e-06 0)
(0.000134808 -9.37602e-06 0)
(0.000145639 -1.21742e-05 0)
(0.000156515 -1.64089e-05 0)
(0.000167223 -2.28192e-05 0)
(0.000177 -3.25644e-05 0)
(0.000183837 -4.71263e-05 0)
(0.000183773 -6.70754e-05 0)
(5.30344e-06 -1.28598e-05 0)
(1.60739e-05 -1.27424e-05 0)
(2.71035e-05 -1.17787e-05 0)
(3.82433e-05 -1.0391e-05 0)
(4.93487e-05 -8.95537e-06 0)
(6.03182e-05 -7.72562e-06 0)
(7.10995e-05 -6.8465e-06 0)
(8.16809e-05 -6.39493e-06 0)
(9.20788e-05 -6.42061e-06 0)
(0.000102326 -6.97853e-06 0)
(0.000112463 -8.15597e-06 0)
(0.000122518 -1.01003e-05 0)
(0.000132487 -1.30537e-05 0)
(0.00014227 -1.73996e-05 0)
(0.000151552 -2.37111e-05 0)
(0.000159563 -3.27412e-05 0)
(0.000164762 -4.51519e-05 0)
(0.000164859 -6.0537e-05 0)
(4.54349e-06 -1.25724e-05 0)
(1.38465e-05 -1.26169e-05 0)
(2.35299e-05 -1.17777e-05 0)
(3.34707e-05 -1.04721e-05 0)
(4.35338e-05 -9.08473e-06 0)
(5.36087e-05 -7.88343e-06 0)
(6.36207e-05 -7.02684e-06 0)
(7.35283e-05 -6.60344e-06 0)
(8.33154e-05 -6.67132e-06 0)
(9.29805e-05 -7.29026e-06 0)
(0.000102525 -8.54721e-06 0)
(0.000111935 -1.05795e-05 0)
(0.000121154 -1.35989e-05 0)
(0.000130028 -1.79131e-05 0)
(0.000138211 -2.39282e-05 0)
(0.000145038 -3.20726e-05 0)
(0.000149425 -4.25221e-05 0)
(0.000150117 -5.45964e-05 0)
(3.91188e-06 -1.19668e-05 0)
(1.19877e-05 -1.21826e-05 0)
(2.05275e-05 -1.14862e-05 0)
(2.94306e-05 -1.02892e-05 0)
(3.85758e-05 -8.9804e-06 0)
(4.78516e-05 -7.83624e-06 0)
(5.7169e-05 -7.0253e-06 0)
(6.64644e-05 -6.64495e-06 0)
(7.56951e-05 -6.75963e-06 0)
(8.48309e-05 -7.43141e-06 0)
(9.38419e-05 -8.74309e-06 0)
(0.000102681 -1.08162e-05 0)
(0.000111257 -1.38246e-05 0)
(0.000119391 -1.79978e-05 0)
(0.000126758 -2.35961e-05 0)
(0.000132832 -3.0819e-05 0)
(0.000136897 -3.95954e-05 0)
(0.000138296 -4.92696e-05 0)
(3.38065e-06 -1.10864e-05 0)
(1.0417e-05 -1.14737e-05 0)
(1.7972e-05 -1.0927e-05 0)
(2.59653e-05 -9.85541e-06 0)
(3.42933e-05 -8.64828e-06 0)
(4.28485e-05 -7.58522e-06 0)
(5.15339e-05 -6.84023e-06 0)
(6.02692e-05 -6.51635e-06 0)
(6.89906e-05 -6.68189e-06 0)
(7.76441e-05 -7.39878e-06 0)
(8.61752e-05 -8.74256e-06 0)
(9.45125e-05 -1.08154e-05 0)
(0.000102545 -1.37514e-05 0)
(0.000110094 -1.77083e-05 0)
(0.000116879 -2.28326e-05 0)
(0.000122507 -2.91793e-05 0)
(0.000126529 -3.65771e-05 0)
(0.000128613 -4.44908e-05 0)
(2.92939e-06 -9.97378e-06 0)
(9.07536e-06 -1.05215e-05 0)
(1.57721e-05 -1.012e-05 0)
(2.29599e-05 -9.18176e-06 0)
(3.05552e-05 -8.09304e-06 0)
(3.84582e-05 -7.1309e-06 0)
(4.65674e-05 -6.46964e-06 0)
(5.47901e-05 -6.21437e-06 0)
(6.30456e-05 -6.43464e-06 0)
(7.12611e-05 -7.18999e-06 0)
(7.93635e-05 -8.54666e-06 0)
(8.72657e-05 -1.05862e-05 0)
(9.48497e-05 -1.34053e-05 0)
(0.000101949 -1.71018e-05 0)
(0.000108335 -2.17414e-05 0)
(0.000113728 -2.72983e-05 0)
(0.000117854 -3.35796e-05 0)
(0.000120555 -4.01788e-05 0)
(2.51075e-06 -8.77214e-06 0)
(7.83539e-06 -9.4507e-06 0)
(1.37517e-05 -9.17359e-06 0)
(2.02187e-05 -8.36132e-06 0)
(2.71661e-05 -7.39351e-06 0)
(3.4497e-05 -6.53953e-06 0)
(4.21036e-05 -5.96962e-06 0)
(4.98821e-05 -5.78773e-06 0)
(5.77384e-05 -6.06253e-06 0)
(6.55863e-05 -6.84997e-06 0)
(7.33409e-05 -8.20694e-06 0)
(8.09077e-05 -1.01967e-05 0)
(8.81707e-05 -1.28856e-05 0)
(9.49817e-05 -1.63281e-05 0)
(0.000101158 -2.05396e-05 0)
(0.000106499 -2.54561e-05 0)
(0.000110828 -3.08959e-05 0)
(0.000114065 -3.65533e-05 0)
(2.23792e-06 -7.45691e-06 0)
(7.00893e-06 -8.23111e-06 0)
(1.23665e-05 -8.05544e-06 0)
(1.82932e-05 -7.36236e-06 0)
(2.47388e-05 -6.52019e-06 0)
(3.16158e-05 -5.78449e-06 0)
(3.88166e-05 -5.31661e-06 0)
(4.62317e-05 -5.21608e-06 0)
(5.37581e-05 -5.54868e-06 0)
(6.13003e-05 -6.36567e-06 0)
(6.87649e-05 -7.71465e-06 0)
(7.6053e-05 -9.64273e-06 0)
(8.30523e-05 -1.21919e-05 0)
(8.96319e-05 -1.53862e-05 0)
(9.56458e-05 -1.92107e-05 0)
(0.000100949 -2.35874e-05 0)
(0.000105432 -2.83582e-05 0)
(0.000109058 -3.32927e-05 0)
(1.96462e-06 -5.88616e-06 0)
(6.16841e-06 -6.70323e-06 0)
(1.09412e-05 -6.60202e-06 0)
(1.63052e-05 -6.0286e-06 0)
(2.22332e-05 -5.32992e-06 0)
(2.86451e-05 -4.73729e-06 0)
(3.54312e-05 -4.39571e-06 0)
(4.24752e-05 -4.39583e-06 0)
(4.96655e-05 -4.79777e-06 0)
(5.68981e-05 -5.64632e-06 0)
(6.40734e-05 -6.97877e-06 0)
(7.10912e-05 -8.82641e-06 0)
(7.7846e-05 -1.121e-05 0)
(8.42267e-05 -1.41303e-05 0)
(9.01221e-05 -1.75546e-05 0)
(9.54346e-05 -2.14046e-05 0)
(0.0001001 -2.55525e-05 0)
(0.000104108 -2.98317e-05 0)
(1.67781e-06 -4.09083e-06 0)
(5.27678e-06 -4.82964e-06 0)
(9.42803e-06 -4.74845e-06 0)
(1.42157e-05 -4.28728e-06 0)
(1.96309e-05 -3.75002e-06 0)
(2.55912e-05 -3.32734e-06 0)
(3.19777e-05 -3.13836e-06 0)
(3.86636e-05 -3.25969e-06 0)
(4.5528e-05 -3.74289e-06 0)
(5.24601e-05 -4.62478e-06 0)
(5.93567e-05 -5.9324e-06 0)
(6.61202e-05 -7.68373e-06 0)
(7.26571e-05 -9.88436e-06 0)
(7.88793e-05 -1.25214e-05 0)
(8.47084e-05 -1.55566e-05 0)
(9.00838e-05 -1.89214e-05 0)
(9.4972e-05 -2.25183e-05 0)
(9.93737e-05 -2.62303e-05 0)
(1.31795e-06 -2.13618e-06 0)
(4.1831e-06 -2.57075e-06 0)
(7.64507e-06 -2.43718e-06 0)
(1.18624e-05 -2.08411e-06 0)
(1.68126e-05 -1.72995e-06 0)
(2.23818e-05 -1.50302e-06 0)
(2.84226e-05 -1.48753e-06 0)
(3.47889e-05 -1.7429e-06 0)
(4.13493e-05 -2.31154e-06 0)
(4.79916e-05 -3.22476e-06 0)
(5.46218e-05 -4.50403e-06 0)
(6.116e-05 -6.15994e-06 0)
(6.75366e-05 -8.1903e-06 0)
(7.36906e-05 -1.05768e-05 0)
(7.95704e-05 -1.32821e-05 0)
(8.51361e-05 -1.62488e-05 0)
(9.03635e-05 -1.94027e-05 0)
(9.52467e-05 -2.26595e-05 0)
(6.72239e-07 5.66418e-09 0)
(2.32651e-06 1.55675e-07 0)
(4.83095e-06 3.63511e-07 0)
(8.37725e-06 5.71226e-07 0)
(1.28245e-05 7.14683e-07 0)
(1.79766e-05 7.27326e-07 0)
(2.3662e-05 5.513e-07 0)
(2.9738e-05 1.42024e-07 0)
(3.60811e-05 -5.32274e-07 0)
(4.26104e-05 -1.53276e-06 0)
(4.92701e-05 -2.86865e-06 0)
(5.59795e-05 -4.5123e-06 0)
(6.26486e-05 -6.45714e-06 0)
(6.91991e-05 -8.68223e-06 0)
(7.55645e-05 -1.11523e-05 0)
(8.1692e-05 -1.38193e-05 0)
(8.7544e-05 -1.66252e-05 0)
(9.30985e-05 -1.95078e-05 0)
(1.58026e-06 2.56181e-06 0)
(4.84022e-06 3.46954e-06 0)
(8.42208e-06 3.87437e-06 0)
(1.25114e-05 3.98485e-06 0)
(1.71791e-05 3.90257e-06 0)
(2.24036e-05 3.64551e-06 0)
(2.81074e-05 3.20085e-06 0)
(3.41901e-05 2.5508e-06 0)
(4.05485e-05 1.68124e-06 0)
(4.70605e-05 5.4443e-07 0)
(5.3598e-05 -8.54972e-07 0)
(6.01357e-05 -2.59642e-06 0)
(6.66753e-05 -4.57908e-06 0)
(7.31484e-05 -6.74725e-06 0)
(7.94865e-05 -9.07095e-06 0)
(8.56367e-05 -1.15127e-05 0)
(9.15605e-05 -1.40307e-05 0)
(9.72333e-05 -1.65819e-05 0)
(2.2186e-06 6.09805e-06 0)
(6.80893e-06 7.51292e-06 0)
(1.17116e-05 8.15323e-06 0)
(1.69494e-05 8.23877e-06 0)
(2.25451e-05 7.94504e-06 0)
(2.84947e-05 7.37769e-06 0)
(3.47623e-05 6.59215e-06 0)
(4.12894e-05 5.61577e-06 0)
(4.80049e-05 4.46259e-06 0)
(5.48344e-05 3.14096e-06 0)
(6.17064e-05 1.66212e-06 0)
(6.85009e-05 -7.9234e-08 0)
(7.512e-05 -2.00932e-06 0)
(8.15712e-05 -4.13419e-06 0)
(8.78539e-05 -6.32821e-06 0)
(9.39351e-05 -8.56666e-06 0)
(9.97925e-05 -1.0823e-05 0)
(0.000105413 -1.30709e-05 0)
(2.54213e-06 1.00623e-05 0)
(7.84957e-06 1.14774e-05 0)
(1.3572e-05 1.20975e-05 0)
(1.96591e-05 1.20678e-05 0)
(2.60746e-05 1.1562e-05 0)
(3.27783e-05 1.0719e-05 0)
(3.97188e-05 9.63487e-06 0)
(4.6835e-05 8.37126e-06 0)
(5.40611e-05 6.96694e-06 0)
(6.13311e-05 5.44708e-06 0)
(6.85824e-05 3.82994e-06 0)
(7.57587e-05 2.12991e-06 0)
(8.27874e-05 3.31361e-07 0)
(8.95885e-05 -1.64912e-06 0)
(9.61583e-05 -3.72314e-06 0)
(0.000102515 -5.78999e-06 0)
(0.000108638 -7.83421e-06 0)
(0.000114516 -9.84072e-06 0)
(3.04468e-06 1.35147e-05 0)
(9.34909e-06 1.46594e-05 0)
(1.60548e-05 1.50518e-05 0)
(2.31024e-05 1.47961e-05 0)
(3.0432e-05 1.4053e-05 0)
(3.79829e-05 1.29683e-05 0)
(4.56922e-05 1.16524e-05 0)
(5.34946e-05 1.01815e-05 0)
(6.13258e-05 8.60564e-06 0)
(6.91246e-05 6.95737e-06 0)
(7.68356e-05 5.25855e-06 0)
(8.44104e-05 3.52525e-06 0)
(9.18081e-05 1.77053e-06 0)
(9.89645e-05 -3.32347e-08 0)
(0.000105834 -1.97259e-06 0)
(0.000112431 -3.91193e-06 0)
(0.000118767 -5.80131e-06 0)
(0.000124834 -7.63237e-06 0)
(3.66411e-06 1.63494e-05 0)
(1.11741e-05 1.71702e-05 0)
(1.90276e-05 1.72716e-05 0)
(2.71698e-05 1.67516e-05 0)
(3.55293e-05 1.5766e-05 0)
(4.40319e-05 1.44622e-05 0)
(5.26051e-05 1.29558e-05 0)
(6.118e-05 1.13286e-05 0)
(6.96931e-05 9.63495e-06 0)
(7.80879e-05 7.90953e-06 0)
(8.63156e-05 6.17437e-06 0)
(9.43358e-05 4.44407e-06 0)
(0.000102116 2.72917e-06 0)
(0.000109632 1.0381e-06 0)
(0.000116823 -6.97853e-07 0)
(0.000123677 -2.5044e-06 0)
(0.000130229 -4.24242e-06 0)
(0.00013648 -5.90848e-06 0)
(4.41894e-06 1.83798e-05 0)
(1.33901e-05 1.8889e-05 0)
(2.26121e-05 1.86992e-05 0)
(3.2033e-05 1.79229e-05 0)
(4.15748e-05 1.67189e-05 0)
(5.11553e-05 1.52352e-05 0)
(6.06971e-05 1.35883e-05 0)
(7.01308e-05 1.18602e-05 0)
(7.93965e-05 1.01046e-05 0)
(8.84445e-05 8.35483e-06 0)
(9.72345e-05 6.63042e-06 0)
(0.000105735 4.94292e-06 0)
(0.000113925 3.29934e-06 0)
(0.000121787 1.7044e-06 0)
(0.000129299 1.52408e-07 0)
(0.000136436 -1.48009e-06 0)
(0.000143211 -3.06154e-06 0)
(0.00014965 -4.56325e-06 0)
(5.33509e-06 1.9513e-05 0)
(1.60762e-05 1.97489e-05 0)
(2.69414e-05 1.93039e-05 0)
(3.78737e-05 1.83121e-05 0)
(4.87894e-05 1.69384e-05 0)
(5.96028e-05 1.53311e-05 0)
(7.02369e-05 1.36042e-05 0)
(8.0627e-05 1.18364e-05 0)
(9.07216e-05 1.00778e-05 0)
(0.000100482 8.3575e-06 0)
(0.000109879 6.69127e-06 0)
(0.000118894 5.08673e-06 0)
(0.000127515 3.54702e-06 0)
(0.00013574 2.07314e-06 0)
(0.000143567 6.65047e-07 0)
(0.000150976 -7.55975e-07 0)
(0.000157969 -2.17291e-06 0)
(0.000164585 -3.50728e-06 0)
(6.45196e-06 1.97068e-05 0)
(1.9348e-05 1.97185e-05 0)
(3.22007e-05 1.90753e-05 0)
(4.49381e-05 1.7931e-05 0)
(5.747e-05 1.64555e-05 0)
(6.97114e-05 1.47948e-05 0)
(8.1592e-05 1.30576e-05 0)
(9.30589e-05 1.13168e-05 0)
(0.000104075 9.61623e-06 0)
(0.000114618 7.97992e-06 0)
(0.000124676 6.41887e-06 0)
(0.000134245 4.93657e-06 0)
(0.000143328 3.53255e-06 0)
(0.000151936 2.20458e-06 0)
(0.000160079 9.49828e-07 0)
(0.000167752 -2.62068e-07 0)
(0.000174968 -1.50661e-06 0)
(0.000181764 -2.66988e-06 0)
(7.83284e-06 1.89377e-05 0)
(2.33894e-05 1.87803e-05 0)
(3.86816e-05 1.80097e-05 0)
(5.3611e-05 1.67921e-05 0)
(6.80796e-05 1.5297e-05 0)
(8.2008e-05 1.36644e-05 0)
(9.53409e-05 1.19943e-05 0)
(0.000108046 1.03513e-05 0)
(0.00012011 8.77195e-06 0)
(0.000131534 7.27435e-06 0)
(0.000142326 5.86475e-06 0)
(0.000152506 4.5429e-06 0)
(0.000162095 3.30527e-06 0)
(0.000171118 2.14711e-06 0)
(0.000179601 1.06346e-06 0)
(0.000187562 4.61563e-08 0)
(0.000195014 -1.00751e-06 0)
(0.000201993 -1.99519e-06 0)
(9.58901e-06 1.71728e-05 0)
(2.8524e-05 1.69061e-05 0)
(4.68974e-05 1.60899e-05 0)
(6.45698e-05 1.48917e-05 0)
(8.1434e-05 1.34724e-05 0)
(9.74235e-05 1.19596e-05 0)
(0.00011251 1.04414e-05 0)
(0.000126693 8.97179e-06 0)
(0.000139994 7.57941e-06 0)
(0.000152447 6.27637e-06 0)
(0.000164093 5.06475e-06 0)
(0.000174976 3.94134e-06 0)
(0.000185143 2.90048e-06 0)
(0.000194637 1.93584e-06 0)
(0.000203503 1.04127e-06 0)
(0.000211782 2.11055e-07 0)
(0.000219495 -6.34107e-07 0)
(0.000226676 -1.44136e-06 0)
(1.19458e-05 1.43277e-05 0)
(3.5408e-05 1.4018e-05 0)
(5.78906e-05 1.32514e-05 0)
(7.91926e-05 1.21812e-05 0)
(9.91968e-05 1.09486e-05 0)
(0.000117861 9.66107e-06 0)
(0.000135199 8.39023e-06 0)
(0.000151263 7.17774e-06 0)
(0.000166126 6.04395e-06 0)
(0.00017987 4.99563e-06 0)
(0.000192578 4.03172e-06 0)
(0.000204333 3.14725e-06 0)
(0.000215212 2.33568e-06 0)
(0.000225286 1.59027e-06 0)
(0.000234621 9.04725e-07 0)
(0.000243277 2.7343e-07 0)
(0.000251294 -3.57107e-07 0)
(0.000258716 -9.77633e-07 0)
(1.54802e-05 1.01688e-05 0)
(4.57243e-05 9.89539e-06 0)
(7.43398e-05 9.29727e-06 0)
(0.000101028 8.49262e-06 0)
(0.000125659 7.58635e-06 0)
(0.000148236 6.65596e-06 0)
(0.000168848 5.751e-06 0)
(0.000187631 4.89885e-06 0)
(0.00020474 4.11152e-06 0)
(0.000220335 3.39159e-06 0)
(0.000234565 2.73648e-06 0)
(0.000247567 2.14116e-06 0)
(0.000259466 1.59985e-06 0)
(0.000270373 1.10685e-06 0)
(0.000280386 6.56996e-07 0)
(0.000289591 2.4576e-07 0)
(0.000298053 -1.59242e-07 0)
(0.000305841 -5.84244e-07 0)
(2.2804e-05 3.86719e-06 0)
(6.71072e-05 3.75077e-06 0)
(0.000108449 3.51085e-06 0)
(0.000146327 3.19467e-06 0)
(0.000180596 2.84328e-06 0)
(0.000211362 2.48638e-06 0)
(0.000238875 2.14248e-06 0)
(0.000263452 1.8214e-06 0)
(0.000285422 1.52708e-06 0)
(0.0003051 1.25995e-06 0)
(0.000322767 1.01857e-06 0)
(0.000338676 8.00666e-07 0)
(0.000353041 6.03761e-07 0)
(0.000366051 4.25478e-07 0)
(0.000377866 2.63687e-07 0)
(0.000388624 1.16546e-07 0)
(0.000398421 -2.73475e-08 0)
(0.000407281 -1.89513e-07 0)
(6.34853e-05 -2.6219e-05 -3.38123e-31)
(0.000190413 -2.62152e-05 3.36576e-31)
(0.000316523 -2.61847e-05 0)
(0.000440622 -2.61514e-05 0)
(0.000561497 -2.61075e-05 0)
(0.00067768 -2.60193e-05 -3.28292e-31)
(0.000787547 -2.58722e-05 0)
(0.000889464 -2.56904e-05 0)
(0.000981894 -2.55374e-05 0)
(0.00106348 -2.55048e-05 0)
(0.00113316 -2.57066e-05 3.18874e-31)
(0.00119032 -2.6282e-05 0)
(0.00123518 -2.74041e-05 0)
(0.00126931 -2.92924e-05 0)
(0.00129632 -3.22473e-05 0)
(0.00132275 -3.67356e-05 4.59182e-31)
(0.00135895 -4.35752e-05 0)
(0.00142364 -5.40087e-05 0)
(0.00155132 -7.11723e-05 0)
(0.00181026 -0.000102092 0)
(0.00240945 -0.000163018 0)
(0.00495038 -0.000298577 0)
(0.0157251 -0.000636031 0)
(0.0271121 -0.000760534 9.50963e-30)
(0.0314821 -0.00122409 -1.54493e-29)
(0.034353 -0.00211161 2.68864e-29)
(0.0341924 0.00239574 -3.13678e-29)
(0.0318246 0.00167468 0)
(0.0304427 0.000682966 0)
(0.029851 0.00031804 4.46295e-30)
(0.0292682 0.000657372 8.84183e-30)
(0.028234 0.00105975 0)
(0.0270269 0.000930117 0)
(0.0259621 0.000810687 1.07844e-29)
(0.0249843 0.000774384 0)
(0.0240509 0.000726256 0)
(0.0231658 0.000684967 -9.12645e-30)
(0.0223255 0.000643593 0)
(0.0215316 0.000601324 -8.0261e-30)
(0.0207856 0.000558845 -1.49365e-29)
(0.0200878 0.000517328 0)
(0.0194372 0.000477623 0)
(0.018832 0.000440251 0)
(0.0182697 0.000405491 0)
(0.0177475 0.000373446 0)
(0.0172624 0.000344089 -9.30203e-30)
(0.0168115 0.000317304 -8.59902e-30)
(0.016392 0.000292927 -7.95897e-30)
(0.0160012 0.000270764 0)
(0.0156367 0.000250615 6.8474e-30)
(0.0152962 0.00023228 0)
(0.0149778 0.000215572 -5.92601e-30)
(0.0146797 0.000200316 -5.52462e-30)
(0.0144001 0.000186357 0)
(0.0141377 0.000173554 0)
(0.0138912 0.000161785 0)
(0.0136593 0.000150942 -4.22424e-30)
(0.0134411 0.000140931 0)
(0.0132355 0.00013167 0)
(0.0130418 0.000123088 0)
(0.0128591 0.000115122 0)
(0.0126867 0.000107717 0)
(0.0125241 0.000100825 0)
(0.0123705 9.44026e-05 0)
(0.0122255 8.84118e-05 0)
(0.0120885 8.28188e-05 2.42621e-30)
(0.0119591 7.75928e-05 0)
(0.0118368 7.27063e-05 0)
(0.0117212 6.81344e-05 -2.03796e-30)
(0.0116119 6.38543e-05 -1.92475e-30)
(0.0115087 5.98453e-05 0)
(0.0114111 5.60886e-05 1.71926e-30)
(0.0113188 5.25669e-05 -1.62605e-30)
(0.0112316 4.92642e-05 0)
(0.0111492 4.61659e-05 1.45659e-30)
(0.0110713 4.32585e-05 0)
(0.0109977 4.05296e-05 0)
(0.0109281 3.79678e-05 -1.23945e-30)
(0.0108624 3.55623e-05 0)
(0.0108003 3.33034e-05 1.11586e-30)
(0.0107417 3.11818e-05 0)
(0.0106864 2.91892e-05 -1.00682e-30)
(0.0106341 2.73175e-05 -9.57204e-31)
(0.0105848 2.55595e-05 -9.10595e-31)
(0.0105382 2.39082e-05 -1.73362e-30)
(0.0104943 2.23573e-05 1.65137e-30)
(0.0104529 2.09008e-05 0)
(0.0104139 1.95331e-05 0)
(0.0103771 1.82489e-05 0)
(0.0103424 1.70434e-05 1.36947e-30)
(0.0103097 1.59118e-05 1.30943e-30)
(0.010279 1.485e-05 -1.25308e-30)
(0.01025 1.38537e-05 0)
(0.0102228 1.29193e-05 1.15061e-30)
(0.0101972 1.2043e-05 1.10411e-30)
(0.0101731 1.12215e-05 1.0605e-30)
(0.0101505 1.04516e-05 0)
(0.0101293 9.73035e-06 0)
(0.0101093 9.0548e-06 0)
(0.0100906 8.42232e-06 9.11888e-31)
(0.010073 7.83038e-06 0)
(0.0100565 7.27658e-06 0)
(0.0100411 6.75869e-06 -8.2354e-31)
(0.0100266 6.27457e-06 0)
(0.0100131 5.8222e-06 0)
(0.0100004 5.3997e-06 -7.51363e-31)
(0.00998857 5.00526e-06 0)
(0.00997749 4.6372e-06 0)
(0.00996713 4.29391e-06 6.92623e-31)
(0.00995746 3.97387e-06 6.75621e-31)
(0.00994844 3.67567e-06 0)
(0.00994001 3.39795e-06 -6.45025e-31)
(0.00993216 3.13944e-06 0)
(0.00992485 2.89894e-06 6.18508e-31)
(0.00991803 2.67532e-06 0)
(0.00991169 2.4675e-06 5.95584e-31)
(0.00990579 2.27447e-06 5.85321e-31)
(0.0099003 2.09529e-06 0)
(0.0098952 1.92905e-06 0)
(0.00989047 1.77491e-06 0)
(0.00988608 1.63208e-06 0)
(0.009882 1.49981e-06 0)
(0.00987822 1.37739e-06 0)
(0.00987473 1.26415e-06 0)
(0.00987149 1.15948e-06 5.26063e-31)
(0.00986849 1.06279e-06 -5.20919e-31)
(0.00986572 9.73535e-07 0)
(0.00986316 8.91192e-07 0)
(0.0098608 8.15281e-07 0)
(0.00985861 7.45348e-07 0)
(0.0098566 6.80971e-07 -1.00124e-30)
(0.00985475 6.21752e-07 0)
(0.00985304 5.67321e-07 9.89151e-31)
(0.00985147 5.17334e-07 -9.83835e-31)
(0.00985002 4.71468e-07 0)
(0.00984869 4.29423e-07 0)
(0.00984747 3.90923e-07 0)
(0.00984635 3.55711e-07 9.66644e-31)
(0.00984532 3.23549e-07 9.63221e-31)
(0.00984437 2.9422e-07 0)
(0.0098435 2.67526e-07 9.57253e-31)
(0.00984271 2.43287e-07 9.54668e-31)
(0.00984198 2.21343e-07 -9.52335e-31)
(0.0098413 2.01551e-07 0)
(0.00984069 1.83792e-07 0)
(0.00984012 1.67964e-07 -9.4664e-31)
(0.00983959 1.5399e-07 0)
(0.00983911 1.41818e-07 0)
(0.00983865 1.31424e-07 0)
(0.00983822 1.22816e-07 0)
(0.00983782 1.16043e-07 9.41053e-31)
(0.00983743 1.11196e-07 9.40516e-31)
(0.00983705 1.08426e-07 0)
(0.00983667 1.07949e-07 9.40109e-31)
(0.00983629 1.10067e-07 0)
(0.00983589 1.15189e-07 0)
(0.00983546 1.23857e-07 9.4164e-31)
(0.00983499 1.36784e-07 0)
(0.00983446 1.54903e-07 9.44757e-31)
(0.00983384 1.79426e-07 0)
(0.00983311 2.11933e-07 0)
(0.00983224 2.54479e-07 9.5484e-31)
(0.00983117 3.09749e-07 0)
(0.00982984 3.8126e-07 9.67722e-31)
(0.00982819 4.73647e-07 0)
(0.00982611 5.93061e-07 0)
(0.00982347 7.4774e-07 0)
(0.00982009 9.48839e-07 -1.02549e-30)
(0.00981575 1.21169e-06 0)
(0.00981013 1.55774e-06 1.08751e-30)
(0.00980281 2.01769e-06 0)
(0.00979319 2.63675e-06 0)
(0.00978041 3.48399e-06 0)
(0.00976323 4.67015e-06 0)
(0.0097397 6.38414e-06 0)
(0.00970668 8.97668e-06 0)
(0.00965859 1.31804e-05 0)
(0.00958408 2.08128e-05 -6.11417e-30)
(0.00945454 3.77001e-05 0)
(0.00916747 9.06534e-05 0)
(1.33505e-05 -6.31868e-05 8.16195e-31)
(4.01415e-05 -6.31459e-05 -8.14717e-31)
(6.70501e-05 -6.31361e-05 0)
(9.40357e-05 -6.32048e-05 1.62936e-30)
(0.000121056 -6.33528e-05 0)
(0.000147898 -6.3461e-05 -8.18467e-31)
(0.000174161 -6.34344e-05 -1.63152e-30)
(0.000199425 -6.32661e-05 -1.62597e-30)
(0.000223416 -6.30399e-05 0)
(0.000246102 -6.28977e-05 -1.61424e-30)
(0.000267705 -6.30299e-05 8.11481e-31)
(0.00028872 -6.36837e-05 0)
(0.00030993 -6.5192e-05 0)
(0.000332385 -6.79788e-05 0)
(0.000357334 -7.25934e-05 0)
(0.000386234 -7.9813e-05 1.027e-30)
(0.000420943 -9.0847e-05 0)
(0.000462433 -0.000107542 2.75804e-30)
(0.000512573 -0.00013387 0)
(0.000576238 -0.000178032 0)
(0.000656532 -0.000257694 -6.63022e-30)
(0.00074426 -0.000417678 0)
(0.000786999 -0.000779372 2.01091e-29)
(0.000989557 -0.000915462 1.18204e-29)
(0.00267837 -0.00140847 -1.81724e-29)
(0.00952182 -0.00238007 3.06492e-29)
(0.0198297 0.00211688 -2.75942e-29)
(0.0259863 0.00130197 0)
(0.0279057 0.000156414 0)
(0.0296774 -0.0011433 -1.44265e-29)
(0.0304754 0.00174831 6.9588e-29)
(0.028693 0.00463933 0)
(0.0266203 0.00276188 0)
(0.0257094 0.00221024 2.88702e-29)
(0.0248497 0.00235311 0)
(0.0239092 0.00216062 0)
(0.0230358 0.00205448 -2.68255e-29)
(0.022195 0.00193235 0)
(0.0214003 0.00180382 -7.12044e-29)
(0.0206565 0.00167357 -4.37483e-29)
(0.0199639 0.00154708 0)
(0.0193206 0.00142687 0)
(0.0187238 0.00131425 6.97133e-29)
(0.0181703 0.00120989 6.42657e-29)
(0.0176569 0.00111397 5.92581e-29)
(0.0171803 0.00102628 -8.16144e-29)
(0.0167373 0.000946419 -2.48595e-29)
(0.016325 0.000873814 2.37438e-29)
(0.0159409 0.000807854 -4.32704e-29)
(0.0155823 0.000747908 1.97009e-29)
(0.0152471 0.000693368 0)
(0.0149335 0.000643661 -1.69908e-29)
(0.0146395 0.000598265 -4.81225e-29)
(0.0143636 0.000556712 0)
(0.0141045 0.000518585 0)
(0.0138608 0.000483522 0)
(0.0136316 0.000451204 -1.19852e-29)
(0.0134156 0.000421354 0)
(0.0132122 0.000393729 -2.1603e-29)
(0.0130203 0.000368119 0)
(0.0128393 0.000344339 -1.90144e-29)
(0.0126685 0.000322227 0)
(0.0125073 0.000301641 1.67756e-29)
(0.012355 0.000282453 0)
(0.0122111 0.000264551 -1.48301e-29)
(0.0120752 0.000247835 2.06445e-29)
(0.0119467 0.000232213 0)
(0.0118253 0.000217604 1.23666e-29)
(0.0117106 0.000203933 -5.54801e-30)
(0.0116021 0.000191133 -5.21459e-30)
(0.0114995 0.000179143 0)
(0.0114026 0.000167906 1.43668e-29)
(0.0113109 0.00015737 -4.33497e-30)
(0.0112243 0.000147489 0)
(0.0111424 0.000138219 3.83594e-30)
(0.0110649 0.00012952 7.74093e-30)
(0.0109918 0.000121353 0)
(0.0109226 0.000113687 -3.1966e-30)
(0.0108573 0.000106487 0)
(0.0107956 9.97261e-05 -3.34248e-30)
(0.0107373 9.33758e-05 0)
(0.0106822 8.74109e-05 3.01611e-30)
(0.0106302 8.1808e-05 -2.36566e-30)
(0.0105812 7.6545e-05 -7.18499e-30)
(0.0105349 7.16014e-05 -1.35923e-29)
(0.0104912 6.69581e-05 1.28619e-29)
(0.01045 6.25972e-05 0)
(0.0104112 5.8502e-05 0)
(0.0103745 5.46568e-05 0)
(0.01034 5.1047e-05 -4.10379e-30)
(0.0103076 4.76586e-05 2.9506e-30)
(0.010277 4.44788e-05 -2.78476e-30)
(0.0102482 4.14954e-05 0)
(0.0102211 3.8697e-05 8.41486e-30)
(0.0101956 3.60727e-05 2.34634e-30)
(0.0101716 3.36125e-05 2.21802e-30)
(0.0101491 3.13068e-05 0)
(0.010128 2.91465e-05 0)
(0.0101081 2.71232e-05 0)
(0.0100895 2.52289e-05 1.78071e-30)
(0.010072 2.34559e-05 0)
(0.0100556 2.17972e-05 4.15301e-30)
(0.0100402 2.0246e-05 2.46894e-30)
(0.0100258 1.8796e-05 -3.83707e-30)
(0.0100123 1.7441e-05 0)
(0.00999971 1.61755e-05 -4.86961e-30)
(0.00998791 1.4994e-05 0)
(0.00997688 1.38915e-05 -3.32072e-30)
(0.00996657 1.28632e-05 4.34806e-30)
(0.00995694 1.19045e-05 4.19711e-30)
(0.00994796 1.10113e-05 0)
(0.00993957 1.01794e-05 1.93425e-30)
(0.00993175 9.405e-06 -2.8483e-30)
(0.00992447 8.68457e-06 9.17601e-31)
(0.00991768 8.01468e-06 0)
(0.00991137 7.39213e-06 8.50167e-31)
(0.00990549 6.81389e-06 -1.75544e-30)
(0.00990003 6.27712e-06 0)
(0.00989496 5.77913e-06 -2.46645e-30)
(0.00989024 5.31739e-06 -2.41782e-30)
(0.00988587 4.88951e-06 -2.37275e-30)
(0.00988181 4.49325e-06 0)
(0.00987805 4.12651e-06 0)
(0.00987456 3.78728e-06 0)
(0.00987134 3.47372e-06 2.86931e-30)
(0.00986835 3.18406e-06 -6.30579e-31)
(0.0098656 2.91666e-06 0)
(0.00986305 2.66998e-06 2.13894e-30)
(0.00986069 2.44256e-06 2.11498e-30)
(0.00985852 2.23305e-06 0)
(0.00985652 2.04018e-06 -1.14177e-30)
(0.00985467 1.86277e-06 4.1078e-30)
(0.00985297 1.6997e-06 1.10623e-30)
(0.0098514 1.54994e-06 -5.13246e-30)
(0.00984996 1.41253e-06 0)
(0.00984864 1.28656e-06 0)
(0.00984742 1.17122e-06 0)
(0.0098463 1.06572e-06 1.04005e-30)
(0.00984528 9.69361e-07 4.94948e-30)
(0.00984434 8.81487e-07 3.90096e-30)
(0.00984347 8.01506e-07 1.01246e-30)
(0.00984268 7.28879e-07 4.87365e-30)
(0.00984195 6.63125e-07 -9.98012e-31)
(0.00984128 6.0382e-07 0)
(0.00984067 5.50599e-07 0)
(0.0098401 5.03163e-07 -4.80243e-30)
(0.00983958 4.61278e-07 0)
(0.00983909 4.24786e-07 0)
(0.00983864 3.93615e-07 3.79792e-30)
(0.00983822 3.67791e-07 0)
(0.00983781 3.47454e-07 4.75304e-30)
(0.00983743 3.3288e-07 9.63437e-31)
(0.00983705 3.24513e-07 0)
(0.00983668 3.23001e-07 4.74493e-30)
(0.0098363 3.29245e-07 0)
(0.0098359 3.44462e-07 0)
(0.00983547 3.70271e-07 9.6712e-31)
(0.00983501 4.08802e-07 3.7997e-30)
(0.00983448 4.62833e-07 9.76598e-31)
(0.00983387 5.35986e-07 0)
(0.00983315 6.32972e-07 0)
(0.00983229 7.59924e-07 4.87838e-30)
(0.00983123 9.24848e-07 0)
(0.00982993 1.13823e-06 4.99462e-30)
(0.0098283 1.41389e-06 0)
(0.00982625 1.77016e-06 0)
(0.00982365 2.23156e-06 0)
(0.00982032 2.83129e-06 -1.22015e-30)
(0.00981606 3.61494e-06 0)
(0.00981053 4.64617e-06 1.40688e-30)
(0.00980334 6.01597e-06 0)
(0.0097939 7.85799e-06 0)
(0.00978139 1.03758e-05 5.84056e-30)
(0.0097646 1.3894e-05 -6.56176e-30)
(0.00974172 1.8962e-05 0)
(0.00970984 2.65871e-05 0)
(0.00966404 3.88247e-05 0)
(0.00959523 6.05389e-05 1.7956e-29)
(0.00948591 0.000105837 0)
(0.00931346 0.000227868 -1.0128e-28)
(9.35159e-06 -8.29922e-05 4.28948e-30)
(2.81253e-05 -8.29951e-05 -6.68473e-34)
(4.70244e-05 -8.31613e-05 0)
(6.60735e-05 -8.35157e-05 1.56444e-33)
(8.53187e-05 -8.4109e-05 0)
(0.000104642 -8.48277e-05 0)
(0.00012366 -8.55552e-05 -4.40849e-30)
(0.000141888 -8.62443e-05 -2.22266e-30)
(0.000158893 -8.69243e-05 2.23568e-30)
(0.000174369 -8.76758e-05 -2.25813e-30)
(0.000188135 -8.86193e-05 0)
(0.000200175 -8.99334e-05 0)
(0.000210713 -9.18794e-05 -2.36009e-30)
(0.000220236 -9.48015e-05 -4.86991e-30)
(0.000229383 -9.91431e-05 5.09307e-30)
(0.000238804 -0.000105489 0)
(0.000248927 -0.000114568 5.88775e-30)
(0.000259897 -0.000127328 3.27908e-30)
(0.000271529 -0.000144965 0)
(0.000282882 -0.000169045 8.6993e-30)
(0.000291698 -0.000201329 -5.19046e-30)
(0.00029405 -0.000242518 -1.24962e-29)
(0.000286206 -0.000288425 7.44207e-30)
(0.000273559 -0.000320564 0)
(0.000257399 -0.000365896 1.88798e-29)
(0.000200757 -0.000457402 2.36186e-29)
(0.000103978 -0.000448365 0)
(0.000158646 -0.000498991 2.57747e-29)
(0.000544396 -0.000656711 0)
(0.00305504 -0.00165776 8.5271e-29)
(0.010751 0.000738067 1.95862e-29)
(0.0186621 0.00314091 0)
(0.0228243 0.000850422 0)
(0.0252369 0.00167038 0)
(0.0249123 0.00480333 0)
(0.0235771 0.00337324 0)
(0.022807 0.00346234 0)
(0.0219342 0.00323498 -1.70351e-28)
(0.0211306 0.00300843 7.9761e-29)
(0.0203908 0.00277723 0)
(0.0197115 0.00256008 0)
(0.019085 0.00235672 0)
(0.0185065 0.00216777 2.28511e-28)
(0.0179718 0.00199389 1.04779e-28)
(0.0174766 0.00183497 -8.25026e-31)
(0.0170173 0.00169033 8.03347e-31)
(0.0165904 0.00155898 8.29471e-29)
(0.0161927 0.00143981 7.59656e-29)
(0.0158217 0.00133168 -1.41428e-28)
(0.0154749 0.00123348 -6.59612e-29)
(0.0151502 0.00114414 0)
(0.0148457 0.00106269 -5.70424e-29)
(0.01456 0.000988258 -1.05621e-28)
(0.0142914 0.000920075 0)
(0.0140387 0.000857462 0)
(0.0138008 0.000799827 4.33049e-29)
(0.0135766 0.000746656 0)
(0.0133653 0.000697502 0)
(0.0131659 0.000651976 -1.06092e-28)
(0.0129777 0.00060974 -6.67221e-29)
(0.0128001 0.000570496 -3.07027e-29)
(0.0126323 0.000533983 0)
(0.0124738 0.000499971 2.70258e-29)
(0.0123241 0.000468254 0)
(0.0121825 0.000438651 -7.26349e-29)
(0.0120487 0.000410998 2.23859e-29)
(0.0119222 0.000385146 4.32007e-29)
(0.0118025 0.000360962 6.04422e-29)
(0.0116894 0.000338327 0)
(0.0115825 0.000317128 -3.60715e-29)
(0.0114813 0.000297265 0)
(0.0113856 0.000278646 -1.6556e-29)
(0.0112952 0.000261187 -3.0206e-29)
(0.0112096 0.000244808 -2.84883e-29)
(0.0111287 0.00022944 2.68764e-29)
(0.0110523 0.000215015 -1.32034e-29)
(0.01098 0.000201473 0)
(0.0109116 0.000188757 0)
(0.0108471 0.000176815 2.13553e-29)