/*--------------------------------*- C++ -*----------------------------------*\
  =========                 |
  \\      /  F ield         | OpenFOAM: The Open Source CFD Toolbox
   \\    /   O peration     | Website:  https://openfoam.org
    \\  /    A nd           | Version:  10
     \\/     M anipulation  |
\*---------------------------------------------------------------------------*/
FoamFile
{
    format      ascii;
    class       volVectorField;
    location    "4200";
    object      Ua;
}
// * * * * * * * * * * * * * * * * * * * * * * * * * * * * * * * * * * * * * //

dimensions      [0 1 -1 0 0 0 0];

internalField   nonuniform List<vector> 
6400
(
(-8.46228e-08 1.72012e-08 0)
(-2.53577e-07 1.71419e-08 0)
(-4.21651e-07 1.70224e-08 0)
(-5.88245e-07 1.68412e-08 0)
(-7.52743e-07 1.65961e-08 0)
(-9.14498e-07 1.62838e-08 0)
(-1.07283e-06 1.59006e-08 0)
(-1.22702e-06 1.54419e-08 0)
(-1.37631e-06 1.49025e-08 0)
(-1.51985e-06 1.42765e-08 0)
(-1.65679e-06 1.35575e-08 0)
(-1.78615e-06 1.27387e-08 0)
(-1.90694e-06 1.18131e-08 0)
(-2.01805e-06 1.07734e-08 0)
(-2.11835e-06 9.61274e-09 0)
(-2.20659e-06 8.32462e-09 0)
(-2.28151e-06 6.90356e-09 0)
(-2.34177e-06 5.34545e-09 0)
(-2.38601e-06 3.64822e-09 0)
(-2.41288e-06 1.81239e-09 0)
(-2.42101e-06 -1.58099e-10 0)
(-2.40914e-06 -2.25519e-09 0)
(-2.37608e-06 -4.46591e-09 0)
(-2.32079e-06 -6.77163e-09 0)
(-2.24248e-06 -9.14752e-09 0)
(-2.14059e-06 -1.15621e-08 0)
(-2.01495e-06 -1.39774e-08 0)
(-1.86576e-06 -1.63491e-08 0)
(-1.69369e-06 -1.86274e-08 0)
(-1.49992e-06 -2.07588e-08 0)
(-1.28618e-06 -2.26883e-08 0)
(-1.05472e-06 -2.43613e-08 0)
(-8.79445e-07 -2.53479e-08 0)
(-7.67418e-07 -2.58882e-08 0)
(-6.53182e-07 -2.63582e-08 0)
(-5.37051e-07 -2.67547e-08 0)
(-4.19353e-07 -2.70752e-08 0)
(-3.00424e-07 -2.73175e-08 0)
(-1.8061e-07 -2.748e-08 0)
(-6.02628e-08 -2.75615e-08 0)
(6.02628e-08 -2.75615e-08 0)
(1.8061e-07 -2.748e-08 0)
(3.00424e-07 -2.73175e-08 0)
(4.19353e-07 -2.70752e-08 0)
(5.37051e-07 -2.67547e-08 0)
(6.53182e-07 -2.63582e-08 0)
(7.67418e-07 -2.58882e-08 0)
(8.79445e-07 -2.53479e-08 0)
(1.05472e-06 -2.43613e-08 0)
(1.28618e-06 -2.26883e-08 0)
(1.49992e-06 -2.07588e-08 0)
(1.69369e-06 -1.86274e-08 0)
(1.86576e-06 -1.63491e-08 0)
(2.01495e-06 -1.39774e-08 0)
(2.14059e-06 -1.15621e-08 0)
(2.24248e-06 -9.14752e-09 0)
(2.32079e-06 -6.77163e-09 0)
(2.37608e-06 -4.46591e-09 0)
(2.40914e-06 -2.25519e-09 0)
(2.42101e-06 -1.58099e-10 0)
(2.41288e-06 1.81239e-09 0)
(2.38601e-06 3.64822e-09 0)
(2.34177e-06 5.34545e-09 0)
(2.28151e-06 6.90356e-09 0)
(2.20659e-06 8.32462e-09 0)
(2.11835e-06 9.61274e-09 0)
(2.01805e-06 1.07734e-08 0)
(1.90694e-06 1.18131e-08 0)
(1.78615e-06 1.27387e-08 0)
(1.65679e-06 1.35575e-08 0)
(1.51985e-06 1.42765e-08 0)
(1.37631e-06 1.49025e-08 0)
(1.22702e-06 1.54419e-08 0)
(1.07283e-06 1.59006e-08 0)
(9.14498e-07 1.62838e-08 0)
(7.52743e-07 1.65961e-08 0)
(5.88245e-07 1.68412e-08 0)
(4.21651e-07 1.70224e-08 0)
(2.53577e-07 1.71419e-08 0)
(8.46228e-08 1.72012e-08 0)
(-8.46355e-08 5.32719e-08 0)
(-2.53615e-07 5.30882e-08 0)
(-4.21715e-07 5.27183e-08 0)
(-5.88336e-07 5.21574e-08 0)
(-7.52862e-07 5.13983e-08 0)
(-9.14647e-07 5.04314e-08 0)
(-1.07301e-06 4.92449e-08 0)
(-1.22724e-06 4.78246e-08 0)
(-1.37655e-06 4.61544e-08 0)
(-1.52014e-06 4.42161e-08 0)
(-1.65711e-06 4.19899e-08 0)
(-1.78652e-06 3.94547e-08 0)
(-1.90736e-06 3.65885e-08 0)
(-2.01852e-06 3.33691e-08 0)
(-2.11887e-06 2.9775e-08 0)
(-2.20717e-06 2.57862e-08 0)
(-2.28214e-06 2.13856e-08 0)
(-2.34246e-06 1.65605e-08 0)
(-2.38676e-06 1.13045e-08 0)
(-2.41369e-06 5.61906e-09 0)
(-2.42188e-06 -4.83592e-10 0)
(-2.41006e-06 -6.97853e-09 0)
(-2.37704e-06 -1.38256e-08 0)
(-2.32179e-06 -2.09672e-08 0)
(-2.2435e-06 -2.83264e-08 0)
(-2.14162e-06 -3.58059e-08 0)
(-2.01597e-06 -4.32877e-08 0)
(-1.86675e-06 -5.06346e-08 0)
(-1.69463e-06 -5.76926e-08 0)
(-1.50079e-06 -6.42961e-08 0)
(-1.28695e-06 -7.02738e-08 0)
(-1.05536e-06 -7.54573e-08 0)
(-8.79995e-07 -7.85141e-08 0)
(-7.67902e-07 -8.01882e-08 0)
(-6.53597e-07 -8.16443e-08 0)
(-5.37395e-07 -8.2873e-08 0)
(-4.19623e-07 -8.38661e-08 0)
(-3.00618e-07 -8.46169e-08 0)
(-1.80727e-07 -8.51203e-08 0)
(-6.03019e-08 -8.53728e-08 0)
(6.03019e-08 -8.53728e-08 0)
(1.80727e-07 -8.51203e-08 0)
(3.00618e-07 -8.46169e-08 0)
(4.19623e-07 -8.38661e-08 0)
(5.37395e-07 -8.2873e-08 0)
(6.53597e-07 -8.16443e-08 0)
(7.67902e-07 -8.01882e-08 0)
(8.79995e-07 -7.85141e-08 0)
(1.05536e-06 -7.54573e-08 0)
(1.28695e-06 -7.02738e-08 0)
(1.50079e-06 -6.42961e-08 0)
(1.69463e-06 -5.76926e-08 0)
(1.86675e-06 -5.06346e-08 0)
(2.01597e-06 -4.32877e-08 0)
(2.14162e-06 -3.58059e-08 0)
(2.2435e-06 -2.83264e-08 0)
(2.32179e-06 -2.09672e-08 0)
(2.37704e-06 -1.38256e-08 0)
(2.41006e-06 -6.97853e-09 0)
(2.42188e-06 -4.83592e-10 0)
(2.41369e-06 5.61905e-09 0)
(2.38676e-06 1.13045e-08 0)
(2.34246e-06 1.65605e-08 0)
(2.28214e-06 2.13856e-08 0)
(2.20717e-06 2.57862e-08 0)
(2.11887e-06 2.9775e-08 0)
(2.01852e-06 3.33691e-08 0)
(1.90736e-06 3.65885e-08 0)
(1.78652e-06 3.94547e-08 0)
(1.65711e-06 4.19899e-08 0)
(1.52014e-06 4.42161e-08 0)
(1.37655e-06 4.61544e-08 0)
(1.22724e-06 4.78246e-08 0)
(1.07301e-06 4.92449e-08 0)
(9.14647e-07 5.04314e-08 0)
(7.52862e-07 5.13983e-08 0)
(5.88336e-07 5.21574e-08 0)
(4.21715e-07 5.27183e-08 0)
(2.53615e-07 5.30882e-08 0)
(8.46355e-08 5.32719e-08 0)
(-8.46646e-08 9.28451e-08 0)
(-2.53702e-07 9.25251e-08 0)
(-4.21862e-07 9.18807e-08 0)
(-5.88545e-07 9.09037e-08 0)
(-7.53135e-07 8.95814e-08 0)
(-9.14987e-07 8.78972e-08 0)
(-1.07342e-06 8.58304e-08 0)
(-1.22773e-06 8.33564e-08 0)
(-1.37713e-06 8.04469e-08 0)
(-1.5208e-06 7.70703e-08 0)
(-1.65787e-06 7.31921e-08 0)
(-1.78738e-06 6.87754e-08 0)
(-1.90832e-06 6.37819e-08 0)
(-2.0196e-06 5.81729e-08 0)
(-2.12007e-06 5.19108e-08 0)
(-2.20849e-06 4.49608e-08 0)
(-2.2836e-06 3.72928e-08 0)
(-2.34406e-06 2.88848e-08 0)
(-2.3885e-06 1.97252e-08 0)
(-2.41555e-06 9.81685e-09 0)
(-2.42387e-06 -8.19398e-10 0)
(-2.41217e-06 -1.21402e-08 0)
(-2.37925e-06 -2.40757e-08 0)
(-2.32408e-06 -3.65255e-08 0)
(-2.24585e-06 -4.93558e-08 0)
(-2.14399e-06 -6.2397e-08 0)
(-2.01832e-06 -7.54433e-08 0)
(-1.86903e-06 -8.82554e-08 0)
(-1.69679e-06 -1.00565e-07 0)
(-1.50278e-06 -1.12083e-07 0)
(-1.28871e-06 -1.2251e-07 0)
(-1.05685e-06 -1.31552e-07 0)
(-8.81261e-07 -1.36885e-07 0)
(-7.69017e-07 -1.39805e-07 0)
(-6.54554e-07 -1.42346e-07 0)
(-5.38187e-07 -1.44489e-07 0)
(-4.20244e-07 -1.46222e-07 0)
(-3.01065e-07 -1.47532e-07 0)
(-1.80997e-07 -1.4841e-07 0)
(-6.03919e-08 -1.48851e-07 0)
(6.03919e-08 -1.48851e-07 0)
(1.80997e-07 -1.4841e-07 0)
(3.01065e-07 -1.47532e-07 0)
(4.20244e-07 -1.46222e-07 0)
(5.38187e-07 -1.44489e-07 0)
(6.54554e-07 -1.42346e-07 0)
(7.69017e-07 -1.39805e-07 0)
(8.81261e-07 -1.36885e-07 0)
(1.05685e-06 -1.31552e-07 0)
(1.28871e-06 -1.2251e-07 0)
(1.50278e-06 -1.12083e-07 0)
(1.69679e-06 -1.00565e-07 0)
(1.86903e-06 -8.82554e-08 0)
(2.01832e-06 -7.54433e-08 0)
(2.14399e-06 -6.2397e-08 0)
(2.24585e-06 -4.93558e-08 0)
(2.32408e-06 -3.65255e-08 0)
(2.37925e-06 -2.40757e-08 0)
(2.41217e-06 -1.21402e-08 0)
(2.42387e-06 -8.19398e-10 0)
(2.41555e-06 9.81685e-09 0)
(2.3885e-06 1.97252e-08 0)
(2.34406e-06 2.88848e-08 0)
(2.2836e-06 3.72928e-08 0)
(2.20849e-06 4.49608e-08 0)
(2.12007e-06 5.19108e-08 0)
(2.0196e-06 5.81729e-08 0)
(1.90832e-06 6.37819e-08 0)
(1.78738e-06 6.87754e-08 0)
(1.65787e-06 7.31921e-08 0)
(1.5208e-06 7.70703e-08 0)
(1.37713e-06 8.04469e-08 0)
(1.22773e-06 8.33564e-08 0)
(1.07342e-06 8.58304e-08 0)
(9.14987e-07 8.78972e-08 0)
(7.53135e-07 8.95814e-08 0)
(5.88545e-07 9.09037e-08 0)
(4.21862e-07 9.18807e-08 0)
(2.53702e-07 9.25251e-08 0)
(8.46646e-08 9.28451e-08 0)
(-8.47147e-08 1.36271e-07 0)
(-2.53853e-07 1.35801e-07 0)
(-4.22116e-07 1.34856e-07 0)
(-5.88906e-07 1.33424e-07 0)
(-7.53606e-07 1.31485e-07 0)
(-9.15575e-07 1.29015e-07 0)
(-1.07414e-06 1.25984e-07 0)
(-1.22857e-06 1.22356e-07 0)
(-1.37811e-06 1.1809e-07 0)
(-1.52194e-06 1.13138e-07 0)
(-1.65917e-06 1.0745e-07 0)
(-1.78885e-06 1.00972e-07 0)
(-1.90998e-06 9.36478e-08 0)
(-2.02146e-06 8.54203e-08 0)
(-2.12214e-06 7.62342e-08 0)
(-2.21079e-06 6.6038e-08 0)
(-2.28612e-06 5.47878e-08 0)
(-2.34681e-06 4.24507e-08 0)
(-2.39149e-06 2.90095e-08 0)
(-2.41877e-06 1.44679e-08 0)
(-2.42732e-06 -1.14373e-09 0)
(-2.41582e-06 -1.77621e-08 0)
(-2.38308e-06 -3.52851e-08 0)
(-2.32805e-06 -5.35658e-08 0)
(-2.2499e-06 -7.24079e-08 0)
(-2.14808e-06 -9.15623e-08 0)
(-2.02237e-06 -1.10727e-07 0)
(-1.87297e-06 -1.29551e-07 0)
(-1.70052e-06 -1.47639e-07 0)
(-1.50622e-06 -1.64566e-07 0)
(-1.29177e-06 -1.79892e-07 0)
(-1.05943e-06 -1.93185e-07 0)
(-8.8345e-07 -2.01025e-07 0)
(-7.70944e-07 -2.05319e-07 0)
(-6.56207e-07 -2.09054e-07 0)
(-5.39555e-07 -2.12205e-07 0)
(-4.21318e-07 -2.14753e-07 0)
(-3.01837e-07 -2.16679e-07 0)
(-1.81462e-07 -2.1797e-07 0)
(-6.05474e-08 -2.18618e-07 0)
(6.05474e-08 -2.18618e-07 0)
(1.81462e-07 -2.1797e-07 0)
(3.01837e-07 -2.16679e-07 0)
(4.21318e-07 -2.14753e-07 0)
(5.39555e-07 -2.12205e-07 0)
(6.56207e-07 -2.09054e-07 0)
(7.70944e-07 -2.05319e-07 0)
(8.8345e-07 -2.01025e-07 0)
(1.05943e-06 -1.93185e-07 0)
(1.29177e-06 -1.79892e-07 0)
(1.50622e-06 -1.64566e-07 0)
(1.70052e-06 -1.47639e-07 0)
(1.87297e-06 -1.29551e-07 0)
(2.02237e-06 -1.10727e-07 0)
(2.14808e-06 -9.15623e-08 0)
(2.2499e-06 -7.24079e-08 0)
(2.32805e-06 -5.35658e-08 0)
(2.38308e-06 -3.52851e-08 0)
(2.41582e-06 -1.77621e-08 0)
(2.42732e-06 -1.14373e-09 0)
(2.41877e-06 1.44679e-08 0)
(2.39149e-06 2.90095e-08 0)
(2.34681e-06 4.24507e-08 0)
(2.28612e-06 5.47878e-08 0)
(2.21079e-06 6.6038e-08 0)
(2.12214e-06 7.62342e-08 0)
(2.02146e-06 8.54203e-08 0)
(1.90998e-06 9.36478e-08 0)
(1.78885e-06 1.00972e-07 0)
(1.65917e-06 1.0745e-07 0)
(1.52194e-06 1.13138e-07 0)
(1.37811e-06 1.1809e-07 0)
(1.22857e-06 1.22356e-07 0)
(1.07414e-06 1.25984e-07 0)
(9.15575e-07 1.29015e-07 0)
(7.53606e-07 1.31485e-07 0)
(5.88906e-07 1.33424e-07 0)
(4.22116e-07 1.34856e-07 0)
(2.53853e-07 1.35801e-07 0)
(8.47147e-08 1.36271e-07 0)
(-8.47917e-08 1.83937e-07 0)
(-2.54085e-07 1.83304e-07 0)
(-4.22506e-07 1.82031e-07 0)
(-5.89458e-07 1.801e-07 0)
(-7.54329e-07 1.77487e-07 0)
(-9.16477e-07 1.74158e-07 0)
(-1.07523e-06 1.70072e-07 0)
(-1.22986e-06 1.65182e-07 0)
(-1.37962e-06 1.5943e-07 0)
(-1.52368e-06 1.52754e-07 0)
(-1.66116e-06 1.45086e-07 0)
(-1.79112e-06 1.36351e-07 0)
(-1.91253e-06 1.26475e-07 0)
(-2.02432e-06 1.1538e-07 0)
(-2.12532e-06 1.0299e-07 0)
(-2.2143e-06 8.92371e-08 0)
(-2.28999e-06 7.40604e-08 0)
(-2.35104e-06 5.7415e-08 0)
(-2.39608e-06 3.92773e-08 0)
(-2.42372e-06 1.96515e-08 0)
(-2.4326e-06 -1.42203e-09 0)
(-2.42142e-06 -2.38588e-08 0)
(-2.38895e-06 -4.75216e-08 0)
(-2.33414e-06 -7.22129e-08 0)
(-2.25614e-06 -9.76679e-08 0)
(-2.15437e-06 -1.23551e-07 0)
(-2.02861e-06 -1.49454e-07 0)
(-1.87902e-06 -1.74902e-07 0)
(-1.70627e-06 -1.99361e-07 0)
(-1.51152e-06 -2.22255e-07 0)
(-1.29647e-06 -2.42988e-07 0)
(-1.06339e-06 -2.60972e-07 0)
(-8.86819e-07 -2.71582e-07 0)
(-7.7391e-07 -2.77393e-07 0)
(-6.58751e-07 -2.82448e-07 0)
(-5.4166e-07 -2.86713e-07 0)
(-4.22971e-07 -2.90162e-07 0)
(-3.03026e-07 -2.92768e-07 0)
(-1.82179e-07 -2.94517e-07 0)
(-6.07868e-08 -2.95394e-07 0)
(6.07868e-08 -2.95394e-07 0)
(1.82179e-07 -2.94517e-07 0)
(3.03026e-07 -2.92768e-07 0)
(4.22971e-07 -2.90162e-07 0)
(5.4166e-07 -2.86713e-07 0)
(6.58751e-07 -2.82448e-07 0)
(7.7391e-07 -2.77393e-07 0)
(8.86819e-07 -2.71582e-07 0)
(1.06339e-06 -2.60972e-07 0)
(1.29647e-06 -2.42988e-07 0)
(1.51152e-06 -2.22255e-07 0)
(1.70627e-06 -1.99361e-07 0)
(1.87902e-06 -1.74902e-07 0)
(2.02861e-06 -1.49454e-07 0)
(2.15437e-06 -1.23551e-07 0)
(2.25614e-06 -9.76679e-08 0)
(2.33414e-06 -7.22129e-08 0)
(2.38895e-06 -4.75216e-08 0)
(2.42142e-06 -2.38588e-08 0)
(2.4326e-06 -1.42203e-09 0)
(2.42372e-06 1.96515e-08 0)
(2.39608e-06 3.92773e-08 0)
(2.35104e-06 5.7415e-08 0)
(2.28999e-06 7.40604e-08 0)
(2.2143e-06 8.92371e-08 0)
(2.12532e-06 1.0299e-07 0)
(2.02432e-06 1.1538e-07 0)
(1.91253e-06 1.26475e-07 0)
(1.79112e-06 1.36351e-07 0)
(1.66116e-06 1.45086e-07 0)
(1.52368e-06 1.52754e-07 0)
(1.37962e-06 1.5943e-07 0)
(1.22986e-06 1.65182e-07 0)
(1.07523e-06 1.70072e-07 0)
(9.16477e-07 1.74158e-07 0)
(7.54329e-07 1.77487e-07 0)
(5.89458e-07 1.801e-07 0)
(4.22506e-07 1.82031e-07 0)
(2.54085e-07 1.83304e-07 0)
(8.47917e-08 1.83937e-07 0)
(-8.49024e-08 2.36277e-07 0)
(-2.54419e-07 2.35466e-07 0)
(-4.23067e-07 2.33834e-07 0)
(-5.90254e-07 2.31358e-07 0)
(-7.55369e-07 2.28008e-07 0)
(-9.17775e-07 2.23741e-07 0)
(-1.0768e-06 2.18503e-07 0)
(-1.23173e-06 2.12233e-07 0)
(-1.3818e-06 2.04858e-07 0)
(-1.52619e-06 1.96298e-07 0)
(-1.66403e-06 1.86464e-07 0)
(-1.79437e-06 1.75261e-07 0)
(-1.9162e-06 1.62593e-07 0)
(-2.02843e-06 1.48359e-07 0)
(-2.12989e-06 1.32463e-07 0)
(-2.21937e-06 1.14814e-07 0)
(-2.29556e-06 9.53345e-08 0)
(-2.35713e-06 7.3966e-08 0)
(-2.40269e-06 5.06766e-08 0)
(-2.43085e-06 2.54707e-08 0)
(-2.44022e-06 -1.60148e-09 0)
(-2.42949e-06 -3.04326e-08 0)
(-2.39742e-06 -6.0848e-08 0)
(-2.34293e-06 -9.25949e-08 0)
(-2.26513e-06 -1.25334e-07 0)
(-2.16344e-06 -1.58635e-07 0)
(-2.03761e-06 -1.91972e-07 0)
(-1.88777e-06 -2.24735e-07 0)
(-1.71457e-06 -2.56235e-07 0)
(-1.51916e-06 -2.85728e-07 0)
(-1.30325e-06 -3.12446e-07 0)
(-1.06912e-06 -3.35628e-07 0)
(-8.91687e-07 -3.49306e-07 0)
(-7.78198e-07 -3.56798e-07 0)
(-6.62429e-07 -3.63317e-07 0)
(-5.44704e-07 -3.68818e-07 0)
(-4.2536e-07 -3.73264e-07 0)
(-3.04744e-07 -3.76627e-07 0)
(-1.83214e-07 -3.78881e-07 0)
(-6.11329e-08 -3.80012e-07 0)
(6.11329e-08 -3.80012e-07 0)
(1.83214e-07 -3.78881e-07 0)
(3.04744e-07 -3.76627e-07 0)
(4.2536e-07 -3.73264e-07 0)
(5.44704e-07 -3.68818e-07 0)
(6.62429e-07 -3.63317e-07 0)
(7.78198e-07 -3.56798e-07 0)
(8.91687e-07 -3.49306e-07 0)
(1.06912e-06 -3.35628e-07 0)
(1.30325e-06 -3.12446e-07 0)
(1.51916e-06 -2.85728e-07 0)
(1.71457e-06 -2.56235e-07 0)
(1.88777e-06 -2.24735e-07 0)
(2.03761e-06 -1.91972e-07 0)
(2.16344e-06 -1.58635e-07 0)
(2.26513e-06 -1.25334e-07 0)
(2.34293e-06 -9.25949e-08 0)
(2.39742e-06 -6.0848e-08 0)
(2.42949e-06 -3.04326e-08 0)
(2.44022e-06 -1.60148e-09 0)
(2.43085e-06 2.54707e-08 0)
(2.40269e-06 5.06766e-08 0)
(2.35713e-06 7.3966e-08 0)
(2.29556e-06 9.53345e-08 0)
(2.21937e-06 1.14814e-07 0)
(2.12989e-06 1.32463e-07 0)
(2.02843e-06 1.48359e-07 0)
(1.9162e-06 1.62593e-07 0)
(1.79437e-06 1.75261e-07 0)
(1.66403e-06 1.86464e-07 0)
(1.52619e-06 1.96298e-07 0)
(1.3818e-06 2.04858e-07 0)
(1.23173e-06 2.12233e-07 0)
(1.0768e-06 2.18503e-07 0)
(9.17775e-07 2.23741e-07 0)
(7.55369e-07 2.28008e-07 0)
(5.90254e-07 2.31358e-07 0)
(4.23067e-07 2.33834e-07 0)
(2.54419e-07 2.35466e-07 0)
(8.49024e-08 2.36277e-07 0)
(-8.50553e-08 2.93774e-07 0)
(-2.54879e-07 2.92769e-07 0)
(-4.23841e-07 2.90745e-07 0)
(-5.91352e-07 2.87677e-07 0)
(-7.56805e-07 2.83523e-07 0)
(-9.19567e-07 2.78232e-07 0)
(-1.07897e-06 2.71738e-07 0)
(-1.2343e-06 2.63963e-07 0)
(-1.3848e-06 2.54816e-07 0)
(-1.52966e-06 2.44199e-07 0)
(-1.668e-06 2.32e-07 0)
(-1.79888e-06 2.18101e-07 0)
(-1.92128e-06 2.02382e-07 0)
(-2.03411e-06 1.84716e-07 0)
(-2.13622e-06 1.64983e-07 0)
(-2.22637e-06 1.4307e-07 0)
(-2.30327e-06 1.18878e-07 0)
(-2.36556e-06 9.23323e-08 0)
(-2.41184e-06 6.3392e-08 0)
(-2.44071e-06 3.206e-08 0)
(-2.45078e-06 -1.60337e-09 0)
(-2.44068e-06 -3.74674e-08 0)
(-2.40916e-06 -7.53172e-08 0)
(-2.3551e-06 -1.1484e-07 0)
(-2.27761e-06 -1.55617e-07 0)
(-2.17603e-06 -1.97111e-07 0)
(-2.0501e-06 -2.38671e-07 0)
(-1.89992e-06 -2.79533e-07 0)
(-1.7261e-06 -3.18838e-07 0)
(-1.52979e-06 -3.55655e-07 0)
(-1.31269e-06 -3.8902e-07 0)
(-1.07709e-06 -4.17981e-07 0)
(-8.98457e-07 -4.35075e-07 0)
(-7.84159e-07 -4.44439e-07 0)
(-6.67543e-07 -4.52587e-07 0)
(-5.48937e-07 -4.59463e-07 0)
(-4.28683e-07 -4.65022e-07 0)
(-3.07135e-07 -4.69226e-07 0)
(-1.84655e-07 -4.72044e-07 0)
(-6.16143e-08 -4.73459e-07 0)
(6.16143e-08 -4.73459e-07 0)
(1.84655e-07 -4.72044e-07 0)
(3.07135e-07 -4.69226e-07 0)
(4.28683e-07 -4.65022e-07 0)
(5.48937e-07 -4.59463e-07 0)
(6.67543e-07 -4.52587e-07 0)
(7.84159e-07 -4.44439e-07 0)
(8.98457e-07 -4.35075e-07 0)
(1.07709e-06 -4.17981e-07 0)
(1.31269e-06 -3.8902e-07 0)
(1.52979e-06 -3.55655e-07 0)
(1.7261e-06 -3.18838e-07 0)
(1.89992e-06 -2.79533e-07 0)
(2.0501e-06 -2.38671e-07 0)
(2.17603e-06 -1.97111e-07 0)
(2.27761e-06 -1.55617e-07 0)
(2.3551e-06 -1.1484e-07 0)
(2.40916e-06 -7.53172e-08 0)
(2.44068e-06 -3.74674e-08 0)
(2.45078e-06 -1.60337e-09 0)
(2.44071e-06 3.206e-08 0)
(2.41184e-06 6.3392e-08 0)
(2.36556e-06 9.23323e-08 0)
(2.30327e-06 1.18878e-07 0)
(2.22637e-06 1.4307e-07 0)
(2.13622e-06 1.64983e-07 0)
(2.03411e-06 1.84716e-07 0)
(1.92128e-06 2.02382e-07 0)
(1.79888e-06 2.18101e-07 0)
(1.668e-06 2.32e-07 0)
(1.52966e-06 2.44199e-07 0)
(1.3848e-06 2.54816e-07 0)
(1.2343e-06 2.63963e-07 0)
(1.07897e-06 2.71738e-07 0)
(9.19567e-07 2.78232e-07 0)
(7.56805e-07 2.83523e-07 0)
(5.91352e-07 2.87677e-07 0)
(4.23841e-07 2.90745e-07 0)
(2.54879e-07 2.92769e-07 0)
(8.50553e-08 2.93774e-07 0)
(-8.52605e-08 3.56973e-07 0)
(-2.55498e-07 3.55756e-07 0)
(-4.24881e-07 3.53307e-07 0)
(-5.92827e-07 3.49593e-07 0)
(-7.58734e-07 3.44565e-07 0)
(-9.21974e-07 3.3816e-07 0)
(-1.08188e-06 3.30298e-07 0)
(-1.23776e-06 3.20883e-07 0)
(-1.38884e-06 3.09808e-07 0)
(-1.53432e-06 2.96948e-07 0)
(-1.67333e-06 2.82171e-07 0)
(-1.80493e-06 2.65332e-07 0)
(-1.9281e-06 2.46282e-07 0)
(-2.04175e-06 2.24869e-07 0)
(-2.14473e-06 2.00943e-07 0)
(-2.2358e-06 1.74365e-07 0)
(-2.31364e-06 1.45014e-07 0)
(-2.3769e-06 1.12796e-07 0)
(-2.42417e-06 7.7657e-08 0)
(-2.45401e-06 3.95979e-08 0)
(-2.465e-06 -1.31238e-09 0)
(-2.45576e-06 -4.49189e-08 0)
(-2.42499e-06 -9.09644e-08 0)
(-2.37154e-06 -1.39073e-07 0)
(-2.29445e-06 -1.88736e-07 0)
(-2.19304e-06 -2.39305e-07 0)
(-2.06698e-06 -2.89985e-07 0)
(-1.91634e-06 -3.39845e-07 0)
(-1.7417e-06 -3.87834e-07 0)
(-1.54418e-06 -4.32812e-07 0)
(-1.32547e-06 -4.73596e-07 0)
(-1.08788e-06 -5.09014e-07 0)
(-9.07631e-07 -5.29927e-07 0)
(-7.9224e-07 -5.41386e-07 0)
(-6.74476e-07 -5.51357e-07 0)
(-5.54676e-07 -5.59773e-07 0)
(-4.33188e-07 -5.66578e-07 0)
(-3.10375e-07 -5.71724e-07 0)
(-1.86609e-07 -5.75175e-07 0)
(-6.2267e-08 -5.76906e-07 0)
(6.2267e-08 -5.76906e-07 0)
(1.86609e-07 -5.75175e-07 0)
(3.10375e-07 -5.71724e-07 0)
(4.33188e-07 -5.66578e-07 0)
(5.54676e-07 -5.59773e-07 0)
(6.74476e-07 -5.51357e-07 0)
(7.9224e-07 -5.41386e-07 0)
(9.07631e-07 -5.29927e-07 0)
(1.08788e-06 -5.09014e-07 0)
(1.32547e-06 -4.73596e-07 0)
(1.54418e-06 -4.32812e-07 0)
(1.7417e-06 -3.87834e-07 0)
(1.91634e-06 -3.39845e-07 0)
(2.06698e-06 -2.89985e-07 0)
(2.19304e-06 -2.39305e-07 0)
(2.29445e-06 -1.88736e-07 0)
(2.37154e-06 -1.39073e-07 0)
(2.42499e-06 -9.09644e-08 0)
(2.45576e-06 -4.49189e-08 0)
(2.465e-06 -1.31238e-09 0)
(2.45401e-06 3.95979e-08 0)
(2.42417e-06 7.7657e-08 0)
(2.3769e-06 1.12796e-07 0)
(2.31364e-06 1.45014e-07 0)
(2.2358e-06 1.74365e-07 0)
(2.14473e-06 2.00943e-07 0)
(2.04175e-06 2.24869e-07 0)
(1.9281e-06 2.46282e-07 0)
(1.80493e-06 2.65332e-07 0)
(1.67333e-06 2.82171e-07 0)
(1.53432e-06 2.96948e-07 0)
(1.38884e-06 3.09808e-07 0)
(1.23776e-06 3.20883e-07 0)
(1.08188e-06 3.30298e-07 0)
(9.21974e-07 3.3816e-07 0)
(7.58734e-07 3.44565e-07 0)
(5.92827e-07 3.49593e-07 0)
(4.24881e-07 3.53307e-07 0)
(2.55498e-07 3.55756e-07 0)
(8.52605e-08 3.56973e-07 0)
(-8.55305e-08 4.26485e-07 0)
(-2.56311e-07 4.25039e-07 0)
(-4.26249e-07 4.22128e-07 0)
(-5.94767e-07 4.17714e-07 0)
(-7.61271e-07 4.11738e-07 0)
(-9.2514e-07 4.04124e-07 0)
(-1.08572e-06 3.94776e-07 0)
(-1.2423e-06 3.83581e-07 0)
(-1.39415e-06 3.70409e-07 0)
(-1.54046e-06 3.55112e-07 0)
(-1.68035e-06 3.3753e-07 0)
(-1.8129e-06 3.17489e-07 0)
(-1.93708e-06 2.94811e-07 0)
(-2.05182e-06 2.69311e-07 0)
(-2.15595e-06 2.40809e-07 0)
(-2.24822e-06 2.09134e-07 0)
(-2.32732e-06 1.7414e-07 0)
(-2.39187e-06 1.35708e-07 0)
(-2.44044e-06 9.37707e-08 0)
(-2.47157e-06 4.83219e-08 0)
(-2.4838e-06 -5.61612e-10 0)
(-2.4757e-06 -5.27014e-08 0)
(-2.44594e-06 -1.07796e-07 0)
(-2.3933e-06 -1.65403e-07 0)
(-2.31677e-06 -2.24917e-07 0)
(-2.21559e-06 -2.85565e-07 0)
(-2.08938e-06 -3.46397e-07 0)
(-1.93815e-06 -4.06295e-07 0)
(-1.76243e-06 -4.63991e-07 0)
(-1.5633e-06 -5.18111e-07 0)
(-1.34246e-06 -5.6722e-07 0)
(-1.10224e-06 -6.09895e-07 0)
(-9.19846e-07 -6.35107e-07 0)
(-8.03e-07 -6.48924e-07 0)
(-6.8371e-07 -6.6095e-07 0)
(-5.6232e-07 -6.71102e-07 0)
(-4.3919e-07 -6.79312e-07 0)
(-3.14693e-07 -6.8552e-07 0)
(-1.89211e-07 -6.89684e-07 0)
(-6.31366e-08 -6.91774e-07 0)
(6.31366e-08 -6.91774e-07 0)
(1.89211e-07 -6.89684e-07 0)
(3.14693e-07 -6.8552e-07 0)
(4.3919e-07 -6.79312e-07 0)
(5.6232e-07 -6.71102e-07 0)
(6.8371e-07 -6.6095e-07 0)
(8.03e-07 -6.48924e-07 0)
(9.19846e-07 -6.35107e-07 0)
(1.10224e-06 -6.09895e-07 0)
(1.34246e-06 -5.6722e-07 0)
(1.5633e-06 -5.18111e-07 0)
(1.76243e-06 -4.63991e-07 0)
(1.93815e-06 -4.06295e-07 0)
(2.08938e-06 -3.46397e-07 0)
(2.21559e-06 -2.85565e-07 0)
(2.31677e-06 -2.24917e-07 0)
(2.3933e-06 -1.65403e-07 0)
(2.44594e-06 -1.07796e-07 0)
(2.4757e-06 -5.27014e-08 0)
(2.4838e-06 -5.61612e-10 0)
(2.47157e-06 4.83219e-08 0)
(2.44044e-06 9.37707e-08 0)
(2.39187e-06 1.35708e-07 0)
(2.32732e-06 1.7414e-07 0)
(2.24822e-06 2.09134e-07 0)
(2.15595e-06 2.40809e-07 0)
(2.05182e-06 2.69311e-07 0)
(1.93708e-06 2.94811e-07 0)
(1.8129e-06 3.17489e-07 0)
(1.68035e-06 3.3753e-07 0)
(1.54046e-06 3.55112e-07 0)
(1.39415e-06 3.70409e-07 0)
(1.2423e-06 3.83581e-07 0)
(1.08572e-06 3.94776e-07 0)
(9.2514e-07 4.04124e-07 0)
(7.61271e-07 4.11738e-07 0)
(5.94767e-07 4.17714e-07 0)
(4.26249e-07 4.22128e-07 0)
(2.56311e-07 4.25039e-07 0)
(8.55305e-08 4.26485e-07 0)
(-8.58798e-08 5.03006e-07 0)
(-2.57364e-07 5.01312e-07 0)
(-4.28019e-07 4.97902e-07 0)
(-5.97277e-07 4.92731e-07 0)
(-7.64555e-07 4.85729e-07 0)
(-9.29239e-07 4.76807e-07 0)
(-1.09068e-06 4.65852e-07 0)
(-1.24819e-06 4.5273e-07 0)
(-1.40103e-06 4.37287e-07 0)
(-1.5484e-06 4.19347e-07 0)
(-1.68945e-06 3.98721e-07 0)
(-1.82323e-06 3.75205e-07 0)
(-1.94873e-06 3.48582e-07 0)
(-2.06489e-06 3.18634e-07 0)
(-2.17051e-06 2.85144e-07 0)
(-2.26435e-06 2.47909e-07 0)
(-2.34509e-06 2.06747e-07 0)
(-2.41133e-06 1.61513e-07 0)
(-2.4616e-06 1.1212e-07 0)
(-2.49442e-06 5.85517e-08 0)
(-2.50828e-06 8.8859e-10 0)
(-2.5017e-06 -6.06686e-08 0)
(-2.47327e-06 -1.25774e-07 0)
(-2.42171e-06 -1.93914e-07 0)
(-2.34593e-06 -2.64383e-07 0)
(-2.24509e-06 -3.36269e-07 0)
(-2.1187e-06 -4.08451e-07 0)
(-1.96672e-06 -4.79602e-07 0)
(-1.78961e-06 -5.48211e-07 0)
(-1.5884e-06 -6.12633e-07 0)
(-1.36479e-06 -6.71146e-07 0)
(-1.12112e-06 -7.22037e-07 0)
(-9.35908e-07 -7.52126e-07 0)
(-8.17153e-07 -7.6862e-07 0)
(-6.95857e-07 -7.82979e-07 0)
(-5.72378e-07 -7.95104e-07 0)
(-4.47088e-07 -8.0491e-07 0)
(-3.20375e-07 -8.12327e-07 0)
(-1.92637e-07 -8.17302e-07 0)
(-6.42813e-08 -8.19799e-07 0)
(6.42813e-08 -8.19799e-07 0)
(1.92637e-07 -8.17302e-07 0)
(3.20375e-07 -8.12327e-07 0)
(4.47088e-07 -8.0491e-07 0)
(5.72378e-07 -7.95104e-07 0)
(6.95857e-07 -7.82979e-07 0)
(8.17153e-07 -7.6862e-07 0)
(9.35908e-07 -7.52126e-07 0)
(1.12112e-06 -7.22037e-07 0)
(1.36479e-06 -6.71146e-07 0)
(1.5884e-06 -6.12633e-07 0)
(1.78961e-06 -5.48211e-07 0)
(1.96672e-06 -4.79602e-07 0)
(2.1187e-06 -4.08451e-07 0)
(2.24509e-06 -3.36269e-07 0)
(2.34593e-06 -2.64383e-07 0)
(2.42171e-06 -1.93914e-07 0)
(2.47327e-06 -1.25774e-07 0)
(2.5017e-06 -6.06686e-08 0)
(2.50828e-06 8.8859e-10 0)
(2.49442e-06 5.85517e-08 0)
(2.4616e-06 1.1212e-07 0)
(2.41133e-06 1.61513e-07 0)
(2.34509e-06 2.06747e-07 0)
(2.26435e-06 2.47909e-07 0)
(2.17051e-06 2.85144e-07 0)
(2.06489e-06 3.18634e-07 0)
(1.94873e-06 3.48582e-07 0)
(1.82323e-06 3.75205e-07 0)
(1.68945e-06 3.98721e-07 0)
(1.5484e-06 4.19347e-07 0)
(1.40103e-06 4.37287e-07 0)
(1.24819e-06 4.5273e-07 0)
(1.09068e-06 4.65852e-07 0)
(9.29239e-07 4.76807e-07 0)
(7.64555e-07 4.85729e-07 0)
(5.97277e-07 4.92731e-07 0)
(4.28019e-07 4.97902e-07 0)
(2.57364e-07 5.01312e-07 0)
(8.58798e-08 5.03006e-07 0)
(-8.63258e-08 5.87327e-07 0)
(-2.58708e-07 5.85367e-07 0)
(-4.30279e-07 5.81421e-07 0)
(-6.00484e-07 5.75434e-07 0)
(-7.68749e-07 5.67329e-07 0)
(-9.34475e-07 5.56999e-07 0)
(-1.09702e-06 5.44312e-07 0)
(-1.25572e-06 5.29112e-07 0)
(-1.40983e-06 5.11217e-07 0)
(-1.55857e-06 4.90423e-07 0)
(-1.70108e-06 4.66507e-07 0)
(-1.83645e-06 4.39226e-07 0)
(-1.96365e-06 4.08328e-07 0)
(-2.08162e-06 3.73552e-07 0)
(-2.18917e-06 3.3464e-07 0)
(-2.28504e-06 2.91347e-07 0)
(-2.3679e-06 2.43452e-07 0)
(-2.43631e-06 1.9078e-07 0)
(-2.4888e-06 1.33213e-07 0)
(-2.52381e-06 7.07196e-08 0)
(-2.5398e-06 3.38055e-09 0)
(-2.5352e-06 -6.85857e-08 0)
(-2.50853e-06 -1.44791e-07 0)
(-2.45841e-06 -2.24647e-07 0)
(-2.38364e-06 -3.07341e-07 0)
(-2.28327e-06 -3.91814e-07 0)
(-2.15671e-06 -4.76752e-07 0)
(-2.00381e-06 -5.60594e-07 0)
(-1.82493e-06 -6.41553e-07 0)
(-1.62106e-06 -7.17673e-07 0)
(-1.39387e-06 -7.86898e-07 0)
(-1.14573e-06 -8.47174e-07 0)
(-9.56857e-07 -8.82845e-07 0)
(-8.35616e-07 -9.02406e-07 0)
(-7.11708e-07 -9.19441e-07 0)
(-5.85505e-07 -9.33829e-07 0)
(-4.57398e-07 -9.45469e-07 0)
(-3.27794e-07 -9.54274e-07 0)
(-1.9711e-07 -9.60181e-07 0)
(-6.5776e-08 -9.63145e-07 0)
(6.5776e-08 -9.63145e-07 0)
(1.9711e-07 -9.60181e-07 0)
(3.27794e-07 -9.54274e-07 0)
(4.57398e-07 -9.45469e-07 0)
(5.85505e-07 -9.33829e-07 0)
(7.11708e-07 -9.19441e-07 0)
(8.35616e-07 -9.02406e-07 0)
(9.56857e-07 -8.82845e-07 0)
(1.14573e-06 -8.47174e-07 0)
(1.39387e-06 -7.86898e-07 0)
(1.62106e-06 -7.17673e-07 0)
(1.82493e-06 -6.41553e-07 0)
(2.00381e-06 -5.60594e-07 0)
(2.15671e-06 -4.76752e-07 0)
(2.28327e-06 -3.91814e-07 0)
(2.38364e-06 -3.07341e-07 0)
(2.45841e-06 -2.24647e-07 0)
(2.50853e-06 -1.44791e-07 0)
(2.5352e-06 -6.85857e-08 0)
(2.5398e-06 3.38055e-09 0)
(2.52381e-06 7.07196e-08 0)
(2.4888e-06 1.33213e-07 0)
(2.43631e-06 1.9078e-07 0)
(2.3679e-06 2.43452e-07 0)
(2.28504e-06 2.91347e-07 0)
(2.18917e-06 3.3464e-07 0)
(2.08162e-06 3.73552e-07 0)
(1.96365e-06 4.08328e-07 0)
(1.83645e-06 4.39226e-07 0)
(1.70108e-06 4.66507e-07 0)
(1.55857e-06 4.90423e-07 0)
(1.40983e-06 5.11217e-07 0)
(1.25572e-06 5.29112e-07 0)
(1.09702e-06 5.44312e-07 0)
(9.34475e-07 5.56999e-07 0)
(7.68749e-07 5.67329e-07 0)
(6.00484e-07 5.75434e-07 0)
(4.30279e-07 5.81421e-07 0)
(2.58708e-07 5.85367e-07 0)
(8.63258e-08 5.87327e-07 0)
(-8.68891e-08 6.80358e-07 0)
(-2.60406e-07 6.78113e-07 0)
(-4.33134e-07 6.73593e-07 0)
(-6.04534e-07 6.66735e-07 0)
(-7.74049e-07 6.57448e-07 0)
(-9.41092e-07 6.4561e-07 0)
(-1.10504e-06 6.31067e-07 0)
(-1.26524e-06 6.13638e-07 0)
(-1.42096e-06 5.93111e-07 0)
(-1.57143e-06 5.69249e-07 0)
(-1.71581e-06 5.41791e-07 0)
(-1.85319e-06 5.10453e-07 0)
(-1.98256e-06 4.74937e-07 0)
(-2.10284e-06 4.34937e-07 0)
(-2.21285e-06 3.90146e-07 0)
(-2.31132e-06 3.4027e-07 0)
(-2.39689e-06 2.85042e-07 0)
(-2.4681e-06 2.24242e-07 0)
(-2.52344e-06 1.57718e-07 0)
(-2.56129e-06 8.54146e-08 0)
(-2.58003e-06 7.40196e-09 0)
(-2.57802e-06 -7.60891e-08 0)
(-2.55366e-06 -1.64631e-07 0)
(-2.50545e-06 -2.57564e-07 0)
(-2.43205e-06 -3.53961e-07 0)
(-2.33236e-06 -4.52605e-07 0)
(-2.20566e-06 -5.51969e-07 0)
(-2.05163e-06 -6.50228e-07 0)
(-1.87054e-06 -7.45279e-07 0)
(-1.66329e-06 -8.34802e-07 0)
(-1.43152e-06 -9.16348e-07 0)
(-1.17763e-06 -9.87456e-07 0)
(-9.84038e-07 -1.02959e-06 0)
(-8.59582e-07 -1.05271e-06 0)
(-7.3229e-07 -1.07284e-06 0)
(-6.02555e-07 -1.08986e-06 0)
(-4.70792e-07 -1.10363e-06 0)
(-3.37433e-07 -1.11405e-06 0)
(-2.02923e-07 -1.12104e-06 0)
(-6.77184e-08 -1.12455e-06 0)
(6.77184e-08 -1.12455e-06 0)
(2.02923e-07 -1.12104e-06 0)
(3.37433e-07 -1.11405e-06 0)
(4.70792e-07 -1.10363e-06 0)
(6.02555e-07 -1.08986e-06 0)
(7.3229e-07 -1.07284e-06 0)
(8.59582e-07 -1.05271e-06 0)
(9.84038e-07 -1.02959e-06 0)
(1.17763e-06 -9.87456e-07 0)
(1.43152e-06 -9.16348e-07 0)
(1.66329e-06 -8.34802e-07 0)
(1.87054e-06 -7.45279e-07 0)
(2.05163e-06 -6.50228e-07 0)
(2.20566e-06 -5.51969e-07 0)
(2.33236e-06 -4.52605e-07 0)
(2.43205e-06 -3.53961e-07 0)
(2.50545e-06 -2.57564e-07 0)
(2.55366e-06 -1.64631e-07 0)
(2.57802e-06 -7.60891e-08 0)
(2.58003e-06 7.40196e-09 0)
(2.56129e-06 8.54146e-08 0)
(2.52344e-06 1.57718e-07 0)
(2.4681e-06 2.24242e-07 0)
(2.39689e-06 2.85042e-07 0)
(2.31132e-06 3.4027e-07 0)
(2.21285e-06 3.90146e-07 0)
(2.10284e-06 4.34937e-07 0)
(1.98256e-06 4.74937e-07 0)
(1.85319e-06 5.10453e-07 0)
(1.71581e-06 5.41791e-07 0)
(1.57143e-06 5.69249e-07 0)
(1.42096e-06 5.93111e-07 0)
(1.26524e-06 6.13638e-07 0)
(1.10504e-06 6.31067e-07 0)
(9.41092e-07 6.4561e-07 0)
(7.74049e-07 6.57448e-07 0)
(6.04534e-07 6.66735e-07 0)
(4.33134e-07 6.73593e-07 0)
(2.60406e-07 6.78113e-07 0)
(8.68891e-08 6.80358e-07 0)
(-8.75935e-08 7.83147e-07 0)
(-2.62529e-07 7.806e-07 0)
(-4.36704e-07 7.75471e-07 0)
(-6.09601e-07 7.67688e-07 0)
(-7.80679e-07 7.57147e-07 0)
(-9.49373e-07 7.43705e-07 0)
(-1.11508e-06 7.27188e-07 0)
(-1.27715e-06 7.07384e-07 0)
(-1.4349e-06 6.8405e-07 0)
(-1.58755e-06 6.56911e-07 0)
(-1.73429e-06 6.25662e-07 0)
(-1.8742e-06 5.89973e-07 0)
(-2.0063e-06 5.49496e-07 0)
(-2.12951e-06 5.03869e-07 0)
(-2.24263e-06 4.52728e-07 0)
(-2.34441e-06 3.95721e-07 0)
(-2.43343e-06 3.32523e-07 0)
(-2.50823e-06 2.62859e-07 0)
(-2.56721e-06 1.86531e-07 0)
(-2.60872e-06 1.03444e-07 0)
(-2.63103e-06 1.36473e-08 0)
(-2.63238e-06 -8.26269e-08 0)
(-2.61105e-06 -1.84921e-07 0)
(-2.56538e-06 -2.92506e-07 0)
(-2.49383e-06 -4.04341e-07 0)
(-2.39515e-06 -5.19037e-07 0)
(-2.26838e-06 -6.34836e-07 0)
(-2.11304e-06 -7.49612e-07 0)
(-1.92922e-06 -8.60896e-07 0)
(-1.71773e-06 -9.65941e-07 0)
(-1.48013e-06 -1.06183e-06 0)
(-1.21888e-06 -1.14559e-06 0)
(-1.01922e-06 -1.19531e-06 0)
(-8.90619e-07 -1.2226e-06 0)
(-7.58956e-07 -1.24639e-06 0)
(-6.24654e-07 -1.26651e-06 0)
(-4.88157e-07 -1.28279e-06 0)
(-3.49933e-07 -1.29511e-06 0)
(-2.10462e-07 -1.30338e-06 0)
(-7.02378e-08 -1.30753e-06 0)
(7.02378e-08 -1.30753e-06 0)
(2.10462e-07 -1.30338e-06 0)
(3.49933e-07 -1.29511e-06 0)
(4.88157e-07 -1.28279e-06 0)
(6.24654e-07 -1.26651e-06 0)
(7.58956e-07 -1.24639e-06 0)
(8.90619e-07 -1.2226e-06 0)
(1.01922e-06 -1.19531e-06 0)
(1.21888e-06 -1.14559e-06 0)
(1.48013e-06 -1.06183e-06 0)
(1.71773e-06 -9.65941e-07 0)
(1.92922e-06 -8.60896e-07 0)
(2.11304e-06 -7.49612e-07 0)
(2.26838e-06 -6.34836e-07 0)
(2.39515e-06 -5.19037e-07 0)
(2.49383e-06 -4.04341e-07 0)
(2.56538e-06 -2.92506e-07 0)
(2.61105e-06 -1.84921e-07 0)