/*--------------------------------*- C++ -*----------------------------------*\
  =========                 |
  \\      /  F ield         | OpenFOAM: The Open Source CFD Toolbox
   \\    /   O peration     | Website:  https://openfoam.org
    \\  /    A nd           | Version:  10
     \\/     M anipulation  |
\*---------------------------------------------------------------------------*/
FoamFile
{
    format      ascii;
    class       volVectorField;
    location    "4200";
    object      Ub;
}
// * * * * * * * * * * * * * * * * * * * * * * * * * * * * * * * * * * * * * //

dimensions      [0 1 -1 0 0 0 0];

internalField   nonuniform List<vector> 
6400
(
(-1.50737e-21 -9.87899e-16 0)
(-4.51691e-21 -9.87899e-16 0)
(-7.51078e-21 -9.87899e-16 0)
(-1.04783e-20 -9.87899e-16 0)
(-1.34085e-20 -9.87899e-16 0)
(-1.62898e-20 -9.87899e-16 0)
(-1.91102e-20 -9.87899e-16 0)
(-2.18568e-20 -9.87899e-16 0)
(-2.45159e-20 -9.87899e-16 0)
(-2.70729e-20 -9.87899e-16 0)
(-2.9512e-20 -9.87899e-16 0)
(-3.18164e-20 -9.87899e-16 0)
(-3.39679e-20 -9.87899e-16 0)
(-3.59472e-20 -9.87899e-16 0)
(-3.77337e-20 -9.87899e-16 0)
(-3.93056e-20 -9.87899e-16 0)
(-4.064e-20 -9.87899e-16 0)
(-4.17134e-20 -9.87899e-16 0)
(-4.25016e-20 -9.87899e-16 0)
(-4.29801e-20 -9.87899e-16 0)
(-4.31251e-20 -9.87899e-16 0)
(-4.29136e-20 -9.87899e-16 0)
(-4.23246e-20 -9.87899e-16 0)
(-4.13398e-20 -9.87899e-16 0)
(-3.99448e-20 -9.87899e-16 0)
(-3.813e-20 -9.87899e-16 0)
(-3.58919e-20 -9.87899e-16 0)
(-3.32344e-20 -9.87899e-16 0)
(-3.01693e-20 -9.87899e-16 0)
(-2.67178e-20 -9.87899e-16 0)
(-2.29105e-20 -9.87899e-16 0)
(-1.87874e-20 -9.879e-16 0)
(-1.56654e-20 -9.879e-16 0)
(-1.36699e-20 -9.879e-16 0)
(-1.1635e-20 -9.879e-16 0)
(-9.5664e-21 -9.879e-16 0)
(-7.46986e-21 -9.879e-16 0)
(-5.3514e-21 -9.879e-16 0)
(-3.21718e-21 -9.879e-16 0)
(-1.07345e-21 -9.879e-16 0)
(1.07345e-21 -9.879e-16 0)
(3.21718e-21 -9.879e-16 0)
(5.3514e-21 -9.879e-16 0)
(7.46986e-21 -9.879e-16 0)
(9.5664e-21 -9.879e-16 0)
(1.1635e-20 -9.879e-16 0)
(1.36699e-20 -9.879e-16 0)
(1.56654e-20 -9.879e-16 0)
(1.87874e-20 -9.879e-16 0)
(2.29105e-20 -9.87899e-16 0)
(2.67178e-20 -9.87899e-16 0)
(3.01693e-20 -9.87899e-16 0)
(3.32344e-20 -9.87899e-16 0)
(3.58919e-20 -9.87899e-16 0)
(3.813e-20 -9.87899e-16 0)
(3.99448e-20 -9.87899e-16 0)
(4.13398e-20 -9.87899e-16 0)
(4.23246e-20 -9.87899e-16 0)
(4.29136e-20 -9.87899e-16 0)
(4.31251e-20 -9.87899e-16 0)
(4.29801e-20 -9.87899e-16 0)
(4.25016e-20 -9.87899e-16 0)
(4.17134e-20 -9.87899e-16 0)
(4.064e-20 -9.87899e-16 0)
(3.93056e-20 -9.87899e-16 0)
(3.77337e-20 -9.87899e-16 0)
(3.59472e-20 -9.87899e-16 0)
(3.39679e-20 -9.87899e-16 0)
(3.18164e-20 -9.87899e-16 0)
(2.9512e-20 -9.87899e-16 0)
(2.70729e-20 -9.87899e-16 0)
(2.45159e-20 -9.87899e-16 0)
(2.18568e-20 -9.87899e-16 0)
(1.91102e-20 -9.87899e-16 0)
(1.62898e-20 -9.87899e-16 0)
(1.34085e-20 -9.87899e-16 0)
(1.04783e-20 -9.87899e-16 0)
(7.51078e-21 -9.87899e-16 0)
(4.51691e-21 -9.87899e-16 0)
(1.50737e-21 -9.87899e-16 0)
(-1.50759e-21 -9.87898e-16 0)
(-4.51759e-21 -9.87898e-16 0)
(-7.51191e-21 -9.87898e-16 0)
(-1.04799e-20 -9.87898e-16 0)
(-1.34106e-20 -9.87898e-16 0)
(-1.62924e-20 -9.87898e-16 0)
(-1.91133e-20 -9.87898e-16 0)
(-2.18605e-20 -9.87898e-16 0)
(-2.45203e-20 -9.87898e-16 0)
(-2.7078e-20 -9.87898e-16 0)
(-2.95178e-20 -9.87898e-16 0)
(-3.1823e-20 -9.87898e-16 0)
(-3.39753e-20 -9.87898e-16 0)
(-3.59555e-20 -9.87898e-16 0)
(-3.77429e-20 -9.87898e-16 0)
(-3.93158e-20 -9.87898e-16 0)
(-4.06513e-20 -9.87898e-16 0)
(-4.17258e-20 -9.87898e-16 0)
(-4.25149e-20 -9.87898e-16 0)
(-4.29945e-20 -9.87898e-16 0)
(-4.31405e-20 -9.87899e-16 0)
(-4.29299e-20 -9.87899e-16 0)
(-4.23417e-20 -9.87899e-16 0)
(-4.13576e-20 -9.87899e-16 0)
(-3.9963e-20 -9.87899e-16 0)
(-3.81483e-20 -9.87899e-16 0)
(-3.591e-20 -9.87899e-16 0)
(-3.3252e-20 -9.87899e-16 0)
(-3.0186e-20 -9.879e-16 0)
(-2.67332e-20 -9.879e-16 0)
(-2.29241e-20 -9.879e-16 0)
(-1.8799e-20 -9.879e-16 0)
(-1.56752e-20 -9.879e-16 0)
(-1.36785e-20 -9.879e-16 0)
(-1.16424e-20 -9.879e-16 0)
(-9.57251e-21 -9.879e-16 0)
(-7.47466e-21 -9.879e-16 0)
(-5.35485e-21 -9.879e-16 0)
(-3.21926e-21 -9.879e-16 0)
(-1.07415e-21 -9.879e-16 0)
(1.07415e-21 -9.879e-16 0)
(3.21926e-21 -9.879e-16 0)
(5.35485e-21 -9.879e-16 0)
(7.47466e-21 -9.879e-16 0)
(9.57251e-21 -9.879e-16 0)
(1.16424e-20 -9.879e-16 0)
(1.36785e-20 -9.879e-16 0)
(1.56752e-20 -9.879e-16 0)
(1.8799e-20 -9.879e-16 0)
(2.29241e-20 -9.879e-16 0)
(2.67332e-20 -9.879e-16 0)
(3.0186e-20 -9.879e-16 0)
(3.3252e-20 -9.87899e-16 0)
(3.591e-20 -9.87899e-16 0)
(3.81483e-20 -9.87899e-16 0)
(3.9963e-20 -9.87899e-16 0)
(4.13576e-20 -9.87899e-16 0)
(4.23417e-20 -9.87899e-16 0)
(4.29299e-20 -9.87899e-16 0)
(4.31405e-20 -9.87899e-16 0)
(4.29945e-20 -9.87898e-16 0)
(4.25149e-20 -9.87898e-16 0)
(4.17258e-20 -9.87898e-16 0)
(4.06513e-20 -9.87898e-16 0)
(3.93158e-20 -9.87898e-16 0)
(3.77429e-20 -9.87898e-16 0)
(3.59555e-20 -9.87898e-16 0)
(3.39753e-20 -9.87898e-16 0)
(3.1823e-20 -9.87898e-16 0)
(2.95178e-20 -9.87898e-16 0)
(2.7078e-20 -9.87898e-16 0)
(2.45203e-20 -9.87898e-16 0)
(2.18605e-20 -9.87898e-16 0)
(1.91133e-20 -9.87898e-16 0)
(1.62924e-20 -9.87898e-16 0)
(1.34106e-20 -9.87898e-16 0)
(1.04799e-20 -9.87898e-16 0)
(7.51191e-21 -9.87898e-16 0)
(4.51759e-21 -9.87898e-16 0)
(1.50759e-21 -9.87898e-16 0)
(-1.50811e-21 -9.87897e-16 0)
(-4.51915e-21 -9.87897e-16 0)
(-7.51454e-21 -9.87897e-16 0)
(-1.04836e-20 -9.87897e-16 0)
(-1.34154e-20 -9.87897e-16 0)
(-1.62985e-20 -9.87897e-16 0)
(-1.91207e-20 -9.87897e-16 0)
(-2.18692e-20 -9.87897e-16 0)
(-2.45304e-20 -9.87897e-16 0)
(-2.70897e-20 -9.87897e-16 0)
(-2.95312e-20 -9.87897e-16 0)
(-3.18382e-20 -9.87897e-16 0)
(-3.39925e-20 -9.87897e-16 0)
(-3.59747e-20 -9.87897e-16 0)
(-3.77643e-20 -9.87898e-16 0)
(-3.93395e-20 -9.87898e-16 0)
(-4.06773e-20 -9.87898e-16 0)
(-4.17542e-20 -9.87898e-16 0)
(-4.25458e-20 -9.87898e-16 0)
(-4.30277e-20 -9.87898e-16 0)
(-4.3176e-20 -9.87899e-16 0)
(-4.29675e-20 -9.87899e-16 0)
(-4.23811e-20 -9.87899e-16 0)
(-4.13984e-20 -9.87899e-16 0)
(-4.00048e-20 -9.87899e-16 0)
(-3.81905e-20 -9.879e-16 0)
(-3.59519e-20 -9.879e-16 0)
(-3.32926e-20 -9.879e-16 0)
(-3.02245e-20 -9.879e-16 0)
(-2.67687e-20 -9.87901e-16 0)
(-2.29556e-20 -9.87901e-16 0)
(-1.88255e-20 -9.87901e-16 0)
(-1.56977e-20 -9.87901e-16 0)
(-1.36983e-20 -9.87901e-16 0)
(-1.16594e-20 -9.87901e-16 0)
(-9.58661e-21 -9.87901e-16 0)
(-7.48572e-21 -9.87901e-16 0)
(-5.36281e-21 -9.87901e-16 0)
(-3.22405e-21 -9.87901e-16 0)
(-1.07575e-21 -9.87901e-16 0)
(1.07575e-21 -9.87901e-16 0)
(3.22405e-21 -9.87901e-16 0)
(5.36281e-21 -9.87901e-16 0)
(7.48572e-21 -9.87901e-16 0)
(9.58661e-21 -9.87901e-16 0)
(1.16594e-20 -9.87901e-16 0)
(1.36983e-20 -9.87901e-16 0)
(1.56977e-20 -9.87901e-16 0)
(1.88255e-20 -9.87901e-16 0)
(2.29556e-20 -9.87901e-16 0)
(2.67687e-20 -9.87901e-16 0)
(3.02245e-20 -9.879e-16 0)
(3.32926e-20 -9.879e-16 0)
(3.59519e-20 -9.879e-16 0)
(3.81905e-20 -9.879e-16 0)
(4.00048e-20 -9.87899e-16 0)
(4.13984e-20 -9.87899e-16 0)
(4.23811e-20 -9.87899e-16 0)
(4.29675e-20 -9.87899e-16 0)
(4.3176e-20 -9.87899e-16 0)
(4.30277e-20 -9.87898e-16 0)
(4.25458e-20 -9.87898e-16 0)
(4.17542e-20 -9.87898e-16 0)
(4.06773e-20 -9.87898e-16 0)
(3.93395e-20 -9.87898e-16 0)
(3.77643e-20 -9.87898e-16 0)
(3.59747e-20 -9.87897e-16 0)
(3.39925e-20 -9.87897e-16 0)
(3.18382e-20 -9.87897e-16 0)
(2.95312e-20 -9.87897e-16 0)
(2.70897e-20 -9.87897e-16 0)
(2.45304e-20 -9.87897e-16 0)
(2.18692e-20 -9.87897e-16 0)
(1.91207e-20 -9.87897e-16 0)
(1.62985e-20 -9.87897e-16 0)
(1.34154e-20 -9.87897e-16 0)
(1.04836e-20 -9.87897e-16 0)
(7.51454e-21 -9.87897e-16 0)
(4.51915e-21 -9.87897e-16 0)
(1.50811e-21 -9.87897e-16 0)
(-1.50901e-21 -9.87896e-16 0)
(-4.52184e-21 -9.87896e-16 0)
(-7.51907e-21 -9.87896e-16 0)
(-1.04901e-20 -9.87896e-16 0)
(-1.34238e-20 -9.87896e-16 0)
(-1.6309e-20 -9.87896e-16 0)
(-1.91334e-20 -9.87896e-16 0)
(-2.18843e-20 -9.87896e-16 0)
(-2.4548e-20 -9.87896e-16 0)
(-2.71099e-20 -9.87896e-16 0)
(-2.95544e-20 -9.87897e-16 0)
(-3.18645e-20 -9.87897e-16 0)
(-3.40221e-20 -9.87897e-16 0)
(-3.60079e-20 -9.87897e-16 0)
(-3.78012e-20 -9.87897e-16 0)
(-3.93803e-20 -9.87897e-16 0)
(-4.07222e-20 -9.87898e-16 0)
(-4.18032e-20 -9.87898e-16 0)
(-4.2599e-20 -9.87898e-16 0)
(-4.30851e-20 -9.87898e-16 0)
(-4.32373e-20 -9.87899e-16 0)
(-4.30325e-20 -9.87899e-16 0)
(-4.24492e-20 -9.87899e-16 0)
(-4.14691e-20 -9.87899e-16 0)
(-4.00771e-20 -9.879e-16 0)
(-3.82633e-20 -9.879e-16 0)
(-3.60241e-20 -9.879e-16 0)
(-3.33628e-20 -9.87901e-16 0)
(-3.02911e-20 -9.87901e-16 0)
(-2.683e-20 -9.87901e-16 0)
(-2.301e-20 -9.87902e-16 0)
(-1.88714e-20 -9.87902e-16 0)
(-1.57367e-20 -9.87902e-16 0)
(-1.37327e-20 -9.87902e-16 0)
(-1.16889e-20 -9.87902e-16 0)
(-9.61098e-21 -9.87902e-16 0)
(-7.50485e-21 -9.87902e-16 0)
(-5.37657e-21 -9.87902e-16 0)
(-3.23235e-21 -9.87902e-16 0)
(-1.07852e-21 -9.87902e-16 0)
(1.07852e-21 -9.87902e-16 0)
(3.23235e-21 -9.87902e-16 0)
(5.37657e-21 -9.87902e-16 0)
(7.50485e-21 -9.87902e-16 0)
(9.61098e-21 -9.87902e-16 0)
(1.16889e-20 -9.87902e-16 0)
(1.37327e-20 -9.87902e-16 0)
(1.57367e-20 -9.87902e-16 0)
(1.88714e-20 -9.87902e-16 0)
(2.301e-20 -9.87902e-16 0)
(2.683e-20 -9.87901e-16 0)
(3.02911e-20 -9.87901e-16 0)
(3.33628e-20 -9.87901e-16 0)
(3.60241e-20 -9.879e-16 0)
(3.82633e-20 -9.879e-16 0)
(4.00771e-20 -9.879e-16 0)
(4.14691e-20 -9.87899e-16 0)
(4.24492e-20 -9.87899e-16 0)
(4.30325e-20 -9.87899e-16 0)
(4.32373e-20 -9.87899e-16 0)
(4.30851e-20 -9.87898e-16 0)
(4.2599e-20 -9.87898e-16 0)
(4.18032e-20 -9.87898e-16 0)
(4.07222e-20 -9.87898e-16 0)
(3.93803e-20 -9.87897e-16 0)
(3.78012e-20 -9.87897e-16 0)
(3.60079e-20 -9.87897e-16 0)
(3.40221e-20 -9.87897e-16 0)
(3.18645e-20 -9.87897e-16 0)
(2.95544e-20 -9.87897e-16 0)
(2.71099e-20 -9.87896e-16 0)
(2.4548e-20 -9.87896e-16 0)
(2.18843e-20 -9.87896e-16 0)
(1.91334e-20 -9.87896e-16 0)
(1.6309e-20 -9.87896e-16 0)
(1.34238e-20 -9.87896e-16 0)
(1.04901e-20 -9.87896e-16 0)
(7.51907e-21 -9.87896e-16 0)
(4.52184e-21 -9.87896e-16 0)
(1.50901e-21 -9.87896e-16 0)
(-1.51038e-21 -9.87895e-16 0)
(-4.52597e-21 -9.87895e-16 0)
(-7.52601e-21 -9.87895e-16 0)
(-1.04999e-20 -9.87895e-16 0)
(-1.34367e-20 -9.87895e-16 0)
(-1.6325e-20 -9.87895e-16 0)
(-1.91528e-20 -9.87895e-16 0)
(-2.19073e-20 -9.87896e-16 0)
(-2.45749e-20 -9.87896e-16 0)
(-2.7141e-20 -9.87896e-16 0)
(-2.95899e-20 -9.87896e-16 0)
(-3.19048e-20 -9.87896e-16 0)
(-3.40675e-20 -9.87896e-16 0)
(-3.60587e-20 -9.87896e-16 0)
(-3.78578e-20 -9.87897e-16 0)
(-3.94429e-20 -9.87897e-16 0)
(-4.07911e-20 -9.87897e-16 0)
(-4.18785e-20 -9.87897e-16 0)
(-4.26808e-20 -9.87898e-16 0)
(-4.31732e-20 -9.87898e-16 0)
(-4.33315e-20 -9.87899e-16 0)
(-4.31322e-20 -9.87899e-16 0)
(-4.25539e-20 -9.87899e-16 0)
(-4.15776e-20 -9.879e-16 0)
(-4.01881e-20 -9.879e-16 0)
(-3.83754e-20 -9.87901e-16 0)
(-3.61351e-20 -9.87901e-16 0)
(-3.34707e-20 -9.87902e-16 0)
(-3.03935e-20 -9.87902e-16 0)
(-2.69243e-20 -9.87902e-16 0)
(-2.30937e-20 -9.87903e-16 0)
(-1.8942e-20 -9.87903e-16 0)
(-1.57967e-20 -9.87903e-16 0)
(-1.37855e-20 -9.87903e-16 0)
(-1.17342e-20 -9.87904e-16 0)
(-9.64848e-21 -9.87904e-16 0)
(-7.53429e-21 -9.87904e-16 0)
(-5.39774e-21 -9.87904e-16 0)
(-3.24511e-21 -9.87904e-16 0)
(-1.08278e-21 -9.87904e-16 0)
(1.08278e-21 -9.87904e-16 0)
(3.24511e-21 -9.87904e-16 0)
(5.39774e-21 -9.87904e-16 0)
(7.53429e-21 -9.87904e-16 0)
(9.64848e-21 -9.87904e-16 0)
(1.17342e-20 -9.87904e-16 0)
(1.37855e-20 -9.87903e-16 0)
(1.57967e-20 -9.87903e-16 0)
(1.8942e-20 -9.87903e-16 0)
(2.30937e-20 -9.87903e-16 0)
(2.69243e-20 -9.87902e-16 0)
(3.03935e-20 -9.87902e-16 0)
(3.34707e-20 -9.87902e-16 0)
(3.61351e-20 -9.87901e-16 0)
(3.83754e-20 -9.87901e-16 0)
(4.01881e-20 -9.879e-16 0)
(4.15776e-20 -9.879e-16 0)
(4.25539e-20 -9.87899e-16 0)
(4.31322e-20 -9.87899e-16 0)
(4.33315e-20 -9.87899e-16 0)
(4.31732e-20 -9.87898e-16 0)
(4.26808e-20 -9.87898e-16 0)
(4.18785e-20 -9.87897e-16 0)
(4.07911e-20 -9.87897e-16 0)
(3.94429e-20 -9.87897e-16 0)
(3.78578e-20 -9.87897e-16 0)
(3.60587e-20 -9.87896e-16 0)
(3.40675e-20 -9.87896e-16 0)
(3.19048e-20 -9.87896e-16 0)
(2.95899e-20 -9.87896e-16 0)
(2.7141e-20 -9.87896e-16 0)
(2.45749e-20 -9.87896e-16 0)
(2.19073e-20 -9.87896e-16 0)
(1.91528e-20 -9.87895e-16 0)
(1.6325e-20 -9.87895e-16 0)
(1.34367e-20 -9.87895e-16 0)
(1.04999e-20 -9.87895e-16 0)
(7.52601e-21 -9.87895e-16 0)
(4.52597e-21 -9.87895e-16 0)
(1.51038e-21 -9.87895e-16 0)
(-1.51235e-21 -9.87894e-16 0)
(-4.53191e-21 -9.87894e-16 0)
(-7.536e-21 -9.87894e-16 0)
(-1.05141e-20 -9.87894e-16 0)
(-1.34552e-20 -9.87894e-16 0)
(-1.63481e-20 -9.87895e-16 0)
(-1.91808e-20 -9.87895e-16 0)
(-2.19405e-20 -9.87895e-16 0)
(-2.46137e-20 -9.87895e-16 0)
(-2.71857e-20 -9.87895e-16 0)
(-2.96411e-20 -9.87895e-16 0)
(-3.19628e-20 -9.87895e-16 0)
(-3.41329e-20 -9.87896e-16 0)
(-3.6132e-20 -9.87896e-16 0)
(-3.79394e-20 -9.87896e-16 0)
(-3.95331e-20 -9.87896e-16 0)
(-4.08904e-20 -9.87897e-16 0)
(-4.1987e-20 -9.87897e-16 0)
(-4.27986e-20 -9.87898e-16 0)
(-4.33002e-20 -9.87898e-16 0)
(-4.34672e-20 -9.87899e-16 0)
(-4.32761e-20 -9.87899e-16 0)
(-4.27048e-20 -9.879e-16 0)
(-4.1734e-20 -9.879e-16 0)
(-4.03483e-20 -9.87901e-16 0)
(-3.8537e-20 -9.87901e-16 0)
(-3.62955e-20 -9.87902e-16 0)
(-3.36265e-20 -9.87903e-16 0)
(-3.05413e-20 -9.87903e-16 0)
(-2.70605e-20 -9.87904e-16 0)
(-2.32146e-20 -9.87904e-16 0)
(-1.90441e-20 -9.87904e-16 0)
(-1.58834e-20 -9.87905e-16 0)
(-1.38619e-20 -9.87905e-16 0)
(-1.17997e-20 -9.87905e-16 0)
(-9.7027e-21 -9.87905e-16 0)
(-7.57685e-21 -9.87905e-16 0)
(-5.42835e-21 -9.87905e-16 0)
(-3.26356e-21 -9.87905e-16 0)
(-1.08895e-21 -9.87905e-16 0)
(1.08895e-21 -9.87905e-16 0)
(3.26356e-21 -9.87905e-16 0)
(5.42835e-21 -9.87905e-16 0)
(7.57685e-21 -9.87905e-16 0)
(9.7027e-21 -9.87905e-16 0)
(1.17997e-20 -9.87905e-16 0)
(1.38619e-20 -9.87905e-16 0)
(1.58834e-20 -9.87905e-16 0)
(1.90441e-20 -9.87904e-16 0)
(2.32146e-20 -9.87904e-16 0)
(2.70605e-20 -9.87904e-16 0)
(3.05413e-20 -9.87903e-16 0)
(3.36265e-20 -9.87903e-16 0)
(3.62955e-20 -9.87902e-16 0)
(3.8537e-20 -9.87901e-16 0)
(4.03483e-20 -9.87901e-16 0)
(4.1734e-20 -9.879e-16 0)
(4.27048e-20 -9.879e-16 0)
(4.32761e-20 -9.87899e-16 0)
(4.34672e-20 -9.87899e-16 0)
(4.33002e-20 -9.87898e-16 0)
(4.27986e-20 -9.87898e-16 0)
(4.1987e-20 -9.87897e-16 0)
(4.08904e-20 -9.87897e-16 0)
(3.95331e-20 -9.87896e-16 0)
(3.79394e-20 -9.87896e-16 0)
(3.6132e-20 -9.87896e-16 0)
(3.41329e-20 -9.87896e-16 0)
(3.19628e-20 -9.87895e-16 0)
(2.96411e-20 -9.87895e-16 0)
(2.71857e-20 -9.87895e-16 0)
(2.46137e-20 -9.87895e-16 0)
(2.19405e-20 -9.87895e-16 0)
(1.91808e-20 -9.87895e-16 0)
(1.63481e-20 -9.87895e-16 0)
(1.34552e-20 -9.87894e-16 0)
(1.05141e-20 -9.87894e-16 0)
(7.536e-21 -9.87894e-16 0)
(4.53191e-21 -9.87894e-16 0)
(1.51235e-21 -9.87894e-16 0)
(-1.51507e-21 -9.87893e-16 0)
(-4.54012e-21 -9.87893e-16 0)
(-7.54979e-21 -9.87893e-16 0)
(-1.05336e-20 -9.87893e-16 0)
(-1.34808e-20 -9.87893e-16 0)
(-1.63801e-20 -9.87894e-16 0)
(-1.92194e-20 -9.87894e-16 0)
(-2.19863e-20 -9.87894e-16 0)
(-2.46672e-20 -9.87894e-16 0)
(-2.72475e-20 -9.87894e-16 0)
(-2.97118e-20 -9.87894e-16 0)
(-3.2043e-20 -9.87895e-16 0)
(-3.42233e-20 -9.87895e-16 0)
(-3.62332e-20 -9.87895e-16 0)
(-3.80521e-20 -9.87896e-16 0)
(-3.96579e-20 -9.87896e-16 0)
(-4.10276e-20 -9.87896e-16 0)
(-4.21371e-20 -9.87897e-16 0)
(-4.29616e-20 -9.87897e-16 0)
(-4.34759e-20 -9.87898e-16 0)
(-4.36552e-20 -9.87899e-16 0)
(-4.34753e-20 -9.87899e-16 0)
(-4.29139e-20 -9.879e-16 0)
(-4.1951e-20 -9.87901e-16 0)
(-4.05706e-20 -9.87901e-16 0)
(-3.87613e-20 -9.87902e-16 0)
(-3.65179e-20 -9.87903e-16 0)
(-3.38428e-20 -9.87903e-16 0)
(-3.07467e-20 -9.87904e-16 0)
(-2.72498e-20 -9.87905e-16 0)
(-2.33827e-20 -9.87905e-16 0)
(-1.9186e-20 -9.87906e-16 0)
(-1.6004e-20 -9.87906e-16 0)
(-1.39681e-20 -9.87906e-16 0)
(-1.18908e-20 -9.87907e-16 0)
(-9.77811e-21 -9.87907e-16 0)
(-7.63604e-21 -9.87907e-16 0)
(-5.47093e-21 -9.87907e-16 0)
(-3.28923e-21 -9.87907e-16 0)
(-1.09752e-21 -9.87907e-16 0)
(1.09752e-21 -9.87907e-16 0)
(3.28923e-21 -9.87907e-16 0)
(5.47093e-21 -9.87907e-16 0)
(7.63604e-21 -9.87907e-16 0)
(9.77811e-21 -9.87907e-16 0)
(1.18908e-20 -9.87907e-16 0)
(1.39681e-20 -9.87906e-16 0)
(1.6004e-20 -9.87906e-16 0)
(1.9186e-20 -9.87906e-16 0)
(2.33827e-20 -9.87905e-16 0)
(2.72498e-20 -9.87905e-16 0)
(3.07467e-20 -9.87904e-16 0)
(3.38428e-20 -9.87903e-16 0)
(3.65179e-20 -9.87903e-16 0)
(3.87613e-20 -9.87902e-16 0)
(4.05706e-20 -9.87901e-16 0)
(4.1951e-20 -9.87901e-16 0)
(4.29139e-20 -9.879e-16 0)
(4.34753e-20 -9.87899e-16 0)
(4.36552e-20 -9.87899e-16 0)
(4.34759e-20 -9.87898e-16 0)
(4.29616e-20 -9.87897e-16 0)
(4.21371e-20 -9.87897e-16 0)
(4.10276e-20 -9.87896e-16 0)
(3.96579e-20 -9.87896e-16 0)
(3.80521e-20 -9.87896e-16 0)
(3.62332e-20 -9.87895e-16 0)
(3.42233e-20 -9.87895e-16 0)
(3.2043e-20 -9.87895e-16 0)
(2.97118e-20 -9.87894e-16 0)
(2.72475e-20 -9.87894e-16 0)
(2.46672e-20 -9.87894e-16 0)
(2.19863e-20 -9.87894e-16 0)
(1.92194e-20 -9.87894e-16 0)
(1.63801e-20 -9.87894e-16 0)
(1.34808e-20 -9.87893e-16 0)
(1.05336e-20 -9.87893e-16 0)
(7.54979e-21 -9.87893e-16 0)
(4.54012e-21 -9.87893e-16 0)
(1.51507e-21 -9.87893e-16 0)
(-1.51873e-21 -9.87892e-16 0)
(-4.55113e-21 -9.87892e-16 0)
(-7.56832e-21 -9.87892e-16 0)
(-1.05599e-20 -9.87892e-16 0)
(-1.35152e-20 -9.87892e-16 0)
(-1.64229e-20 -9.87892e-16 0)
(-1.92714e-20 -9.87893e-16 0)
(-2.20479e-20 -9.87893e-16 0)
(-2.47391e-20 -9.87893e-16 0)
(-2.73306e-20 -9.87893e-16 0)
(-2.98067e-20 -9.87893e-16 0)
(-3.21508e-20 -9.87894e-16 0)
(-3.43448e-20 -9.87894e-16 0)
(-3.63694e-20 -9.87895e-16 0)
(-3.82037e-20 -9.87895e-16 0)
(-3.98258e-20 -9.87895e-16 0)
(-4.12124e-20 -9.87896e-16 0)
(-4.23392e-20 -9.87897e-16 0)
(-4.31812e-20 -9.87897e-16 0)
(-4.37127e-20 -9.87898e-16 0)
(-4.39085e-20 -9.87899e-16 0)
(-4.3744e-20 -9.87899e-16 0)
(-4.31959e-20 -9.879e-16 0)
(-4.22438e-20 -9.87901e-16 0)
(-4.08706e-20 -9.87902e-16 0)
(-3.90642e-20 -9.87903e-16 0)
(-3.68187e-20 -9.87904e-16 0)
(-3.41354e-20 -9.87905e-16 0)
(-3.10246e-20 -9.87905e-16 0)
(-2.75061e-20 -9.87906e-16 0)
(-2.36103e-20 -9.87907e-16 0)
(-1.93782e-20 -9.87908e-16 0)
(-1.61674e-20 -9.87908e-16 0)
(-1.4112e-20 -9.87908e-16 0)
(-1.20143e-20 -9.87908e-16 0)
(-9.88033e-21 -9.87908e-16 0)
(-7.7163e-21 -9.87909e-16 0)
(-5.52865e-21 -9.87909e-16 0)
(-3.32402e-21 -9.87909e-16 0)
(-1.10915e-21 -9.87909e-16 0)
(1.10915e-21 -9.87909e-16 0)
(3.32402e-21 -9.87909e-16 0)
(5.52865e-21 -9.87909e-16 0)
(7.7163e-21 -9.87909e-16 0)
(9.88033e-21 -9.87908e-16 0)
(1.20143e-20 -9.87908e-16 0)
(1.4112e-20 -9.87908e-16 0)
(1.61674e-20 -9.87908e-16 0)
(1.93782e-20 -9.87908e-16 0)
(2.36103e-20 -9.87907e-16 0)
(2.75061e-20 -9.87906e-16 0)
(3.10246e-20 -9.87905e-16 0)
(3.41354e-20 -9.87905e-16 0)
(3.68187e-20 -9.87904e-16 0)
(3.90642e-20 -9.87903e-16 0)
(4.08706e-20 -9.87902e-16 0)
(4.22438e-20 -9.87901e-16 0)
(4.31959e-20 -9.879e-16 0)
(4.3744e-20 -9.87899e-16 0)
(4.39085e-20 -9.87899e-16 0)
(4.37127e-20 -9.87898e-16 0)
(4.31812e-20 -9.87897e-16 0)
(4.23392e-20 -9.87897e-16 0)
(4.12124e-20 -9.87896e-16 0)
(3.98258e-20 -9.87895e-16 0)
(3.82037e-20 -9.87895e-16 0)
(3.63694e-20 -9.87895e-16 0)
(3.43448e-20 -9.87894e-16 0)
(3.21508e-20 -9.87894e-16 0)
(2.98067e-20 -9.87893e-16 0)
(2.73306e-20 -9.87893e-16 0)
(2.47391e-20 -9.87893e-16 0)
(2.20479e-20 -9.87893e-16 0)
(1.92714e-20 -9.87893e-16 0)
(1.64229e-20 -9.87892e-16 0)
(1.35152e-20 -9.87892e-16 0)
(1.05599e-20 -9.87892e-16 0)
(7.56832e-21 -9.87892e-16 0)
(4.55113e-21 -9.87892e-16 0)
(1.51873e-21 -9.87892e-16 0)
(-1.52354e-21 -9.87891e-16 0)
(-4.56562e-21 -9.87891e-16 0)
(-7.59268e-21 -9.87891e-16 0)
(-1.05945e-20 -9.87891e-16 0)
(-1.35604e-20 -9.87891e-16 0)
(-1.64793e-20 -9.87891e-16 0)
(-1.93397e-20 -9.87891e-16 0)
(-2.21289e-20 -9.87892e-16 0)
(-2.48337e-20 -9.87892e-16 0)
(-2.74399e-20 -9.87892e-16 0)
(-2.99318e-20 -9.87892e-16 0)
(-3.22928e-20 -9.87893e-16 0)
(-3.45049e-20 -9.87893e-16 0)
(-3.65487e-20 -9.87894e-16 0)
(-3.84035e-20 -9.87894e-16 0)
(-4.00471e-20 -9.87895e-16 0)
(-4.14561e-20 -9.87895e-16 0)
(-4.26059e-20 -9.87896e-16 0)
(-4.3471e-20 -9.87897e-16 0)
(-4.40255e-20 -9.87898e-16 0)
(-4.42434e-20 -9.87899e-16 0)
(-4.40992e-20 -9.87899e-16 0)
(-4.35691e-20 -9.879e-16 0)
(-4.26314e-20 -9.87901e-16 0)
(-4.12681e-20 -9.87903e-16 0)
(-3.94659e-20 -9.87904e-16 0)
(-3.72177e-20 -9.87905e-16 0)
(-3.45238e-20 -9.87906e-16 0)
(-3.13937e-20 -9.87907e-16 0)
(-2.78467e-20 -9.87908e-16 0)
(-2.3913e-20 -9.87909e-16 0)
(-1.9634e-20 -9.87909e-16 0)
(-1.6385e-20 -9.8791e-16 0)
(-1.43037e-20 -9.8791e-16 0)
(-1.21788e-20 -9.8791e-16 0)
(-1.00165e-20 -9.8791e-16 0)
(-7.8232e-21 -9.87911e-16 0)
(-5.60556e-21 -9.87911e-16 0)
(-3.37039e-21 -9.87911e-16 0)
(-1.12464e-21 -9.87911e-16 0)
(1.12464e-21 -9.87911e-16 0)
(3.37039e-21 -9.87911e-16 0)
(5.60556e-21 -9.87911e-16 0)
(7.8232e-21 -9.87911e-16 0)
(1.00165e-20 -9.8791e-16 0)
(1.21788e-20 -9.8791e-16 0)
(1.43037e-20 -9.8791e-16 0)
(1.6385e-20 -9.8791e-16 0)
(1.9634e-20 -9.87909e-16 0)
(2.3913e-20 -9.87909e-16 0)
(2.78467e-20 -9.87908e-16 0)
(3.13937e-20 -9.87907e-16 0)
(3.45238e-20 -9.87906e-16 0)
(3.72177e-20 -9.87905e-16 0)
(3.94659e-20 -9.87904e-16 0)
(4.12681e-20 -9.87903e-16 0)
(4.26314e-20 -9.87901e-16 0)
(4.35691e-20 -9.879e-16 0)
(4.40992e-20 -9.87899e-16 0)
(4.42434e-20 -9.87899e-16 0)
(4.40255e-20 -9.87898e-16 0)
(4.3471e-20 -9.87897e-16 0)
(4.26059e-20 -9.87896e-16 0)
(4.14561e-20 -9.87895e-16 0)
(4.00471e-20 -9.87895e-16 0)
(3.84035e-20 -9.87894e-16 0)
(3.65487e-20 -9.87894e-16 0)
(3.45049e-20 -9.87893e-16 0)
(3.22928e-20 -9.87893e-16 0)
(2.99318e-20 -9.87892e-16 0)
(2.74399e-20 -9.87892e-16 0)
(2.48337e-20 -9.87892e-16 0)
(2.21289e-20 -9.87892e-16 0)
(1.93397e-20 -9.87891e-16 0)
(1.64793e-20 -9.87891e-16 0)
(1.35604e-20 -9.87891e-16 0)
(1.05945e-20 -9.87891e-16 0)
(7.59268e-21 -9.87891e-16 0)
(4.56562e-21 -9.87891e-16 0)
(1.52354e-21 -9.87891e-16 0)
(-1.52976e-21 -9.8789e-16 0)
(-4.58437e-21 -9.8789e-16 0)
(-7.62421e-21 -9.8789e-16 0)
(-1.06392e-20 -9.8789e-16 0)
(-1.36189e-20 -9.8789e-16 0)
(-1.65523e-20 -9.8789e-16 0)
(-1.94281e-20 -9.8789e-16 0)
(-2.22338e-20 -9.8789e-16 0)
(-2.49563e-20 -9.87891e-16 0)
(-2.75814e-20 -9.87891e-16 0)
(-3.00938e-20 -9.87891e-16 0)
(-3.24767e-20 -9.87892e-16 0)
(-3.47124e-20 -9.87892e-16 0)
(-3.67814e-20 -9.87893e-16 0)
(-3.86628e-20 -9.87893e-16 0)
(-4.03345e-20 -9.87894e-16 0)
(-4.17726e-20 -9.87895e-16 0)
(-4.29524e-20 -9.87896e-16 0)
(-4.38479e-20 -9.87897e-16 0)
(-4.44325e-20 -9.87897e-16 0)
(-4.46794e-20 -9.87898e-16 0)
(-4.45622e-20 -9.879e-16 0)
(-4.40559e-20 -9.87901e-16 0)
(-4.31375e-20 -9.87902e-16 0)
(-4.17875e-20 -9.87903e-16 0)
(-3.99912e-20 -9.87905e-16 0)
(-3.774e-20 -9.87906e-16 0)
(-3.50328e-20 -9.87907e-16 0)
(-3.18779e-20 -9.87908e-16 0)
(-2.82939e-20 -9.87909e-16 0)
(-2.43107e-20 -9.8791e-16 0)
(-1.99703e-20 -9.87911e-16 0)
(-1.66711e-20 -9.87912e-16 0)
(-1.45558e-20 -9.87912e-16 0)
(-1.23952e-20 -9.87912e-16 0)
(-1.01956e-20 -9.87913e-16 0)
(-7.96389e-21 -9.87913e-16 0)
(-5.70678e-21 -9.87913e-16 0)
(-3.43141e-21 -9.87913e-16 0)
(-1.14503e-21 -9.87913e-16 0)
(1.14503e-21 -9.87913e-16 0)
(3.43141e-21 -9.87913e-16 0)
(5.70678e-21 -9.87913e-16 0)
(7.96389e-21 -9.87913e-16 0)
(1.01956e-20 -9.87913e-16 0)
(1.23952e-20 -9.87912e-16 0)
(1.45558e-20 -9.87912e-16 0)
(1.66711e-20 -9.87912e-16 0)
(1.99703e-20 -9.87911e-16 0)
(2.43107e-20 -9.8791e-16 0)
(2.82939e-20 -9.87909e-16 0)
(3.18779e-20 -9.87908e-16 0)
(3.50328e-20 -9.87907e-16 0)
(3.774e-20 -9.87906e-16 0)
(3.99912e-20 -9.87905e-16 0)
(4.17875e-20 -9.87903e-16 0)
(4.31375e-20 -9.87902e-16 0)
(4.40559e-20 -9.87901e-16 0)
(4.45622e-20 -9.879e-16 0)
(4.46794e-20 -9.87898e-16 0)
(4.44325e-20 -9.87897e-16 0)
(4.38479e-20 -9.87897e-16 0)
(4.29524e-20 -9.87896e-16 0)
(4.17726e-20 -9.87895e-16 0)
(4.03345e-20 -9.87894e-16 0)
(3.86628e-20 -9.87893e-16 0)
(3.67814e-20 -9.87893e-16 0)
(3.47124e-20 -9.87892e-16 0)
(3.24767e-20 -9.87892e-16 0)
(3.00938e-20 -9.87891e-16 0)
(2.75814e-20 -9.87891e-16 0)
(2.49563e-20 -9.87891e-16 0)
(2.22338e-20 -9.8789e-16 0)
(1.94281e-20 -9.8789e-16 0)
(1.65523e-20 -9.8789e-16 0)
(1.36189e-20 -9.8789e-16 0)
(1.06392e-20 -9.8789e-16 0)
(7.62421e-21 -9.8789e-16 0)
(4.58437e-21 -9.8789e-16 0)
(1.52976e-21 -9.8789e-16 0)
(-1.5377e-21 -9.87888e-16 0)
(-4.60832e-21 -9.87888e-16 0)
(-7.66447e-21 -9.87888e-16 0)
(-1.06963e-20 -9.87888e-16 0)
(-1.36936e-20 -9.87888e-16 0)
(-1.66456e-20 -9.87889e-16 0)
(-1.95411e-20 -9.87889e-16 0)
(-2.23679e-20 -9.87889e-16 0)
(-2.5113e-20 -9.87889e-16 0)
(-2.77625e-20 -9.8789e-16 0)
(-3.0301e-20 -9.8789e-16 0)
(-3.27122e-20 -9.87891e-16 0)
(-3.49781e-20 -9.87891e-16 0)
(-3.70794e-20 -9.87892e-16 0)
(-3.89952e-20 -9.87893e-16 0)
(-4.0703e-20 -9.87893e-16 0)
(-4.21789e-20 -9.87894e-16 0)
(-4.33976e-20 -9.87895e-16 0)
(-4.43324e-20 -9.87896e-16 0)
(-4.49561e-20 -9.87897e-16 0)
(-4.52409e-20 -9.87898e-16 0)
(-4.5159e-20 -9.879e-16 0)
(-4.4684e-20 -9.87901e-16 0)
(-4.37912e-20 -9.87903e-16 0)
(-4.24593e-20 -9.87904e-16 0)
(-4.06715e-20 -9.87905e-16 0)
(-3.84171e-20 -9.87907e-16 0)
(-3.56934e-20 -9.87908e-16 0)
(-3.2507e-20 -9.8791e-16 0)
(-2.88756e-20 -9.87911e-16 0)
(-2.48287e-20 -9.87913e-16 0)
(-2.04086e-20 -9.87914e-16 0)
(-1.70443e-20 -9.87914e-16 0)
(-1.48847e-20 -9.87915e-16 0)
(-1.26775e-20 -9.87915e-16 0)
(-1.04295e-20 -9.87915e-16 0)
(-8.14754e-21 -9.87915e-16 0)
(-5.83892e-21 -9.87916e-16 0)
(-3.51109e-21 -9.87916e-16 0)
(-1.17165e-21 -9.87916e-16 0)
(1.17165e-21 -9.87916e-16 0)
(3.51109e-21 -9.87916e-16 0)
(5.83892e-21 -9.87916e-16 0)
(8.14754e-21 -9.87915e-16 0)
(1.04295e-20 -9.87915e-16 0)
(1.26775e-20 -9.87915e-16 0)
(1.48847e-20 -9.87915e-16 0)
(1.70443e-20 -9.87914e-16 0)
(2.04086e-20 -9.87914e-16 0)
(2.48287e-20 -9.87913e-16 0)
(2.88756e-20 -9.87911e-16 0)
(3.2507e-20 -9.8791e-16 0)
(3.56934e-20 -9.87908e-16 0)
(3.84171e-20 -9.87907e-16 0)
(4.06715e-20 -9.87905e-16 0)
(4.24593e-20 -9.87904e-16 0)
(4.37912e-20 -9.87903e-16 0)
(4.4684e-20 -9.87901e-16 0)
(4.5159e-20 -9.879e-16 0)
(4.52409e-20 -9.87898e-16 0)
(4.49561e-20 -9.87897e-16 0)
(4.43324e-20 -9.87896e-16 0)
(4.33976e-20 -9.87895e-16 0)
(4.21789e-20 -9.87894e-16 0)
(4.0703e-20 -9.87893e-16 0)
(3.89952e-20 -9.87893e-16 0)
(3.70794e-20 -9.87892e-16 0)
(3.49781e-20 -9.87891e-16 0)
(3.27122e-20 -9.87891e-16 0)
(3.0301e-20 -9.8789e-16 0)
(2.77625e-20 -9.8789e-16 0)
(2.5113e-20 -9.87889e-16 0)
(2.23679e-20 -9.87889e-16 0)
(1.95411e-20 -9.87889e-16 0)
(1.66456e-20 -9.87889e-16 0)
(1.36936e-20 -9.87888e-16 0)
(1.06963e-20 -9.87888e-16 0)
(7.66447e-21 -9.87888e-16 0)
(4.60832e-21 -9.87888e-16 0)
(1.5377e-21 -9.87888e-16 0)
(-1.54774e-21 -9.87886e-16 0)
(-4.63855e-21 -9.87886e-16 0)
(-7.71532e-21 -9.87887e-16 0)
(-1.07684e-20 -9.87887e-16 0)
(-1.3788e-20 -9.87887e-16 0)
(-1.67635e-20 -9.87887e-16 0)
(-1.96839e-20 -9.87887e-16 0)
(-2.25374e-20 -9.87888e-16 0)
(-2.53112e-20 -9.87888e-16 0)
(-2.79916e-20 -9.87888e-16 0)
(-3.05634e-20 -9.87889e-16 0)
(-3.30105e-20 -9.87889e-16 0)
(-3.53149e-20 -9.8789e-16 0)
(-3.74574e-20 -9.87891e-16 0)
(-3.9417e-20 -9.87892e-16 0)
(-4.1171e-20 -9.87892e-16 0)
(-4.26953e-20 -9.87893e-16 0)
(-4.39638e-20 -9.87895e-16 0)
(-4.49494e-20 -9.87896e-16 0)
(-4.56237e-20 -9.87897e-16 0)
(-4.59575e-20 -9.87898e-16 0)
(-4.59218e-20 -9.879e-16 0)
(-4.54879e-20 -9.87901e-16 0)
(-4.46291e-20 -9.87903e-16 0)
(-4.33215e-20 -9.87905e-16 0)
(-4.15459e-20 -9.87907e-16 0)
(-3.92889e-20 -9.87908e-16 0)
(-3.65452e-20 -9.8791e-16 0)
(-3.33195e-20 -9.87912e-16 0)
(-2.96279e-20 -9.87913e-16 0)
(-2.54993e-20 -9.87915e-16 0)
(-2.09769e-20 -9.87916e-16 0)
(-1.75285e-20 -9.87917e-16 0)
(-1.53116e-20 -9.87917e-16 0)
(-1.30441e-20 -9.87918e-16 0)
(-1.07332e-20 -9.87918e-16 0)
(-8.38612e-21 -9.87918e-16 0)
(-6.01062e-21 -9.87918e-16 0)
(-3.61462e-21 -9.87918e-16 0)
(-1.20625e-21 -9.87919e-16 0)
(1.20625e-21 -9.87919e-16 0)
(3.61462e-21 -9.87918e-16 0)
(6.01062e-21 -9.87918e-16 0)
(8.38612e-21 -9.87918e-16 0)
(1.07332e-20 -9.87918e-16 0)
(1.30441e-20 -9.87918e-16 0)
(1.53116e-20 -9.87917e-16 0)
(1.75285e-20 -9.87917e-16 0)
(2.09769e-20 -9.87916e-16 0)
(2.54993e-20 -9.87915e-16 0)
(2.96279e-20 -9.87913e-16 0)
(3.33195e-20 -9.87912e-16 0)
(3.65452e-20 -9.8791e-16 0)
(3.92889e-20 -9.87908e-16 0)
(4.15459e-20 -9.87907e-16 0)
(4.33215e-20 -9.87905e-16 0)
(4.46291e-20 -9.87903e-16 0)
(4.54879e-20 -9.87901e-16 0)
(4.59218e-20 -9.879e-16 0)
(4.59575e-20 -9.87898e-16 0)
(4.56237e-20 -9.87897e-16 0)
(4.49494e-20 -9.87896e-16 0)
(4.39638e-20 -9.87895e-16 0)
(4.26953e-20 -9.87893e-16 0)
(4.1171e-20 -9.87892e-16 0)
(3.9417e-20 -9.87892e-16 0)
(3.74574e-20 -9.87891e-16 0)
(3.53149e-20 -9.8789e-16 0)
(3.30105e-20 -9.87889e-16 0)
(3.05634e-20 -9.87889e-16 0)
(2.79916e-20 -9.87888e-16 0)
(2.53112e-20 -9.87888e-16 0)
(2.25374e-20 -9.87888e-16 0)
(1.96839e-20 -9.87887e-16 0)
(1.67635e-20 -9.87887e-16 0)
(1.3788e-20 -9.87887e-16 0)
(1.07684e-20 -9.87887e-16 0)
(7.71532e-21 -9.87887e-16 0)
(4.63855e-21 -9.87886e-16 0)
(1.54774e-21 -9.87886e-16 0)
(-1.56029e-21 -9.87885e-16 0)
(-4.67637e-21 -9.87885e-16 0)
(-7.77892e-21 -9.87885e-16 0)
(-1.08587e-20 -9.87885e-16 0)
(-1.39061e-20 -9.87885e-16 0)
(-1.6911e-20 -9.87885e-16 0)
(-1.98627e-20 -9.87886e-16 0)
(-2.27497e-20 -9.87886e-16 0)
(-2.55595e-20 -9.87886e-16 0)
(-2.82787e-20 -9.87887e-16 0)
(-3.08925e-20 -9.87887e-16 0)
(-3.33848e-20 -9.87888e-16 0)
(-3.57378e-20 -9.87889e-16 0)
(-3.79324e-20 -9.8789e-16 0)
(-3.99476e-20 -9.8789e-16 0)
(-4.17604e-20 -9.87891e-16 0)
(-4.33462e-20 -9.87893e-16 0)
(-4.46786e-20 -9.87894e-16 0)
(-4.57292e-20 -9.87895e-16 0)
(-4.64686e-20 -9.87897e-16 0)
(-4.68659e-20 -9.87898e-16 0)
(-4.68901e-20 -9.879e-16 0)
(-4.65102e-20 -9.87902e-16 0)
(-4.56965e-20 -9.87904e-16 0)
(-4.44221e-20 -9.87906e-16 0)
(-4.26643e-20 -9.87908e-16 0)
(-4.04061e-20 -9.8791e-16 0)
(-3.76391e-20 -9.87912e-16 0)
(-3.43649e-20 -9.87914e-16 0)
(-3.05975e-20 -9.87916e-16 0)
(-2.63653e-20 -9.87917e-16 0)
(-2.17117e-20 -9.87919e-16 0)
(-1.81552e-20 -9.8792e-16 0)
(-1.58644e-20 -9.8792e-16 0)
(-1.35191e-20 -9.87921e-16 0)
(-1.11268e-20 -9.87921e-16 0)
(-8.69545e-21 -9.87921e-16 0)
(-6.23328e-21 -9.87922e-16 0)
(-3.74891e-21 -9.87922e-16 0)
(-1.25113e-21 -9.87922e-16 0)
(1.25113e-21 -9.87922e-16 0)
(3.74891e-21 -9.87922e-16 0)
(6.23328e-21 -9.87922e-16 0)
(8.69545e-21 -9.87921e-16 0)