/*--------------------------------*- C++ -*----------------------------------*\
  =========                 |
  \\      /  F ield         | OpenFOAM: The Open Source CFD Toolbox
   \\    /   O peration     | Website:  https://openfoam.org
    \\  /    A nd           | Version:  10
     \\/     M anipulation  |
\*---------------------------------------------------------------------------*/
FoamFile
{
    format      ascii;
    class       volScalarField;
    location    "0.053";
    object      pPrime2Mean;
}
// * * * * * * * * * * * * * * * * * * * * * * * * * * * * * * * * * * * * * //

dimensions      [0 4 -4 0 0 0 0];

internalField   nonuniform List<scalar> 
12225
(
7.95491e+06
7.82914e+06
7.69958e+06
7.57432e+06
7.45376e+06
7.33761e+06
7.22561e+06
7.11745e+06
7.01282e+06
6.91136e+06
6.81265e+06
6.71625e+06
6.62159e+06
6.52796e+06
6.43438e+06
6.3393e+06
6.23996e+06
6.12937e+06
7.9551e+06
7.82922e+06
7.69965e+06
7.5744e+06
7.45384e+06
7.3377e+06
7.22571e+06
7.11757e+06
7.01297e+06
6.91154e+06
6.81288e+06
6.71654e+06
6.62198e+06
6.52851e+06
6.43519e+06
6.34061e+06
6.24245e+06
6.13555e+06
7.95539e+06
7.8294e+06
7.69981e+06
7.57456e+06
7.45401e+06
7.33789e+06
7.22593e+06
7.11784e+06
7.01329e+06
6.91193e+06
6.81338e+06
6.71719e+06
6.62284e+06
6.5297e+06
6.43693e+06
6.34339e+06
6.24743e+06
6.14705e+06
7.95572e+06
7.82967e+06
7.70008e+06
7.57484e+06
7.4543e+06
7.33822e+06
7.22631e+06
7.11828e+06
7.01382e+06
6.91259e+06
6.8142e+06
6.71825e+06
6.62425e+06
6.53163e+06
6.43972e+06
6.3477e+06
6.25471e+06
6.16085e+06
7.95607e+06
7.83006e+06
7.70047e+06
7.57524e+06
7.45474e+06
7.3387e+06
7.22686e+06
7.11893e+06
7.0146e+06
6.91355e+06
6.81541e+06
6.71979e+06
6.62628e+06
6.53439e+06
6.44363e+06
6.3535e+06
6.26383e+06
6.17575e+06
7.95662e+06
7.83061e+06
7.70101e+06
7.5758e+06
7.45533e+06
7.33936e+06
7.22762e+06
7.11982e+06
7.01568e+06
6.91486e+06
6.81705e+06
6.72189e+06
6.62901e+06
6.53804e+06
6.44866e+06
6.36068e+06
6.27438e+06
6.19118e+06
7.95734e+06
7.83133e+06
7.70173e+06
7.57653e+06
7.45612e+06
7.34023e+06
7.22862e+06
7.121e+06
7.01708e+06
6.91658e+06
6.81919e+06
6.72459e+06
6.63249e+06
6.54262e+06
6.45481e+06
6.3691e+06
6.28601e+06
6.20687e+06
7.95823e+06
7.83226e+06
7.70266e+06
7.57748e+06
7.45713e+06
7.34135e+06
7.22989e+06
7.12249e+06
7.01887e+06
6.91875e+06
6.82187e+06
6.72795e+06
6.63676e+06
6.54813e+06
6.46202e+06
6.3786e+06
6.29846e+06
6.2227e+06
7.95954e+06
7.83346e+06
7.70383e+06
7.57868e+06
7.4584e+06
7.34275e+06
7.23149e+06
7.12435e+06
7.02108e+06
6.92143e+06
6.82514e+06
6.732e+06
6.64184e+06
6.55457e+06
6.47021e+06
6.38903e+06
6.31154e+06
6.2386e+06
7.96103e+06
7.83496e+06
7.70528e+06
7.58015e+06
7.45996e+06
7.34447e+06
7.23344e+06
7.12662e+06
7.02376e+06
6.92465e+06
6.82905e+06
6.73679e+06
6.64775e+06
6.56189e+06
6.4793e+06
6.40023e+06
6.32511e+06
6.25454e+06
7.96329e+06
7.83683e+06
7.70706e+06
7.58193e+06
7.46184e+06
7.34653e+06
7.23577e+06
7.12932e+06
7.02695e+06
6.92844e+06
6.83361e+06
6.74231e+06
6.65446e+06
6.57005e+06
6.48918e+06
6.41208e+06
6.33906e+06
6.27051e+06
7.96526e+06
7.83888e+06
7.70901e+06
7.58389e+06
7.46389e+06
7.34878e+06
7.23831e+06
7.13224e+06
7.03036e+06
6.93248e+06
6.83841e+06
6.74805e+06
6.66132e+06
6.57823e+06
6.49888e+06
6.42343e+06
6.35211e+06
6.28516e+06
7.96815e+06
7.84127e+06
7.71124e+06
7.58611e+06
7.46623e+06
7.35133e+06
7.24117e+06
7.13553e+06
7.03418e+06
6.93695e+06
6.84369e+06
6.75428e+06
6.66868e+06
6.58688e+06
6.50895e+06
6.43502e+06
6.36521e+06
6.29965e+06
7.9719e+06
7.84447e+06
7.7142e+06
7.58905e+06
7.4693e+06
7.35467e+06
7.24491e+06
7.13978e+06
7.03909e+06
6.94266e+06
6.85035e+06
6.76206e+06
6.67773e+06
6.59735e+06
6.52095e+06
6.44858e+06
6.38029e+06
6.31613e+06
7.97683e+06
7.84864e+06
7.71807e+06
7.59289e+06
7.47332e+06
7.35902e+06
7.24975e+06
7.14526e+06
7.04537e+06
6.94988e+06
6.85867e+06
6.77164e+06
6.6887e+06
6.60983e+06
6.535e+06
6.46421e+06
6.39743e+06
6.33461e+06
7.98278e+06
7.85395e+06
7.72305e+06
7.59784e+06
7.47849e+06
7.36461e+06
7.25594e+06
7.15221e+06
7.05324e+06
6.95884e+06
6.86887e+06
6.7832e+06
6.70175e+06
6.62443e+06
6.55117e+06
6.48192e+06
6.41658e+06
6.35505e+06
7.99007e+06
7.86044e+06
7.72923e+06
7.60405e+06
7.48499e+06
7.37163e+06
7.26366e+06
7.16082e+06
7.0629e+06
6.96969e+06
6.88105e+06
6.79681e+06
6.71686e+06
6.64107e+06
6.56934e+06
6.50154e+06
6.43755e+06
6.37722e+06
7.99802e+06
7.86791e+06
7.73655e+06
7.61153e+06
7.49286e+06
7.38012e+06
7.27296e+06
7.17111e+06
7.07432e+06
6.98237e+06
6.89509e+06
6.81228e+06
6.73379e+06
6.65946e+06
6.58914e+06
6.52267e+06
6.4599e+06
6.40065e+06
8.00654e+06
7.87601e+06
7.74467e+06
7.61995e+06
7.50183e+06
7.38982e+06
7.28357e+06
7.18277e+06
7.08714e+06
6.99645e+06
6.91048e+06
6.82903e+06
6.75189e+06
6.67888e+06
6.60982e+06
6.54453e+06
6.48282e+06
6.42451e+06
8.01194e+06
7.88177e+06
7.75081e+06
7.62658e+06
7.50905e+06
7.39772e+06
7.29223e+06
7.19226e+06
7.09751e+06
7.00774e+06
6.92271e+06
6.84219e+06
6.76597e+06
6.69385e+06
6.62562e+06
6.56109e+06
6.50007e+06
6.44238e+06
8.01407e+06
7.88485e+06
7.75452e+06
7.63082e+06
7.5138e+06
7.403e+06
7.29805e+06
7.19864e+06
7.10447e+06
7.01529e+06
6.93085e+06
6.85091e+06
6.77526e+06
6.70367e+06
6.63593e+06
6.57186e+06
6.51125e+06
6.45392e+06
8.01568e+06
7.88681e+06
7.75698e+06
7.63376e+06
7.51718e+06
7.4068e+06
7.30227e+06
7.20328e+06
7.10953e+06
7.02077e+06
6.93674e+06
6.85721e+06
6.78193e+06
6.7107e+06
6.64331e+06
6.57954e+06
6.51921e+06
6.46211e+06
8.01532e+06
7.88769e+06
7.7585e+06
7.63574e+06
7.51954e+06
7.40949e+06
7.30528e+06
7.2066e+06
7.11315e+06
7.02469e+06
6.94095e+06
6.86169e+06
6.78668e+06
6.7157e+06
6.64853e+06
6.58497e+06
6.52482e+06
6.46789e+06
8.01541e+06
7.88819e+06
7.75946e+06
7.63706e+06
7.52115e+06
7.41137e+06
7.30739e+06
7.20893e+06
7.1157e+06
7.02744e+06
6.9439e+06
6.86483e+06
6.79e+06
6.71919e+06
6.65218e+06
6.58876e+06
6.52874e+06
6.47192e+06
8.01519e+06
7.88836e+06
7.76003e+06
7.63792e+06
7.52224e+06
7.41265e+06
7.30884e+06
7.21054e+06
7.11746e+06
7.02934e+06
6.94594e+06
6.867e+06
6.79229e+06
6.7216e+06
6.65469e+06
6.59137e+06
6.53143e+06
6.47469e+06
8.01425e+06
7.8883e+06
7.76035e+06
7.63847e+06
7.52296e+06
7.4135e+06
7.30981e+06
7.21162e+06
7.11864e+06
7.03062e+06
6.94731e+06
6.86845e+06
6.79383e+06
6.72321e+06
6.65637e+06
6.59311e+06
6.53323e+06
6.47654e+06
8.0136e+06
7.8882e+06
7.76053e+06
7.63882e+06
7.52342e+06
7.41405e+06
7.31044e+06
7.21231e+06
7.1194e+06
7.03144e+06
6.94819e+06
6.86939e+06
6.79482e+06
6.72425e+06
6.65745e+06
6.59423e+06
6.53439e+06
6.47773e+06
8.01326e+06
7.88813e+06
7.76063e+06
7.63902e+06
7.5237e+06
7.41438e+06
7.31082e+06
7.21273e+06
7.11986e+06
7.03194e+06
6.94872e+06
6.86996e+06
6.79542e+06
6.72487e+06
6.65811e+06
6.59491e+06
6.53509e+06
6.47845e+06
8.01311e+06
7.88809e+06
7.76068e+06
7.63913e+06
7.52384e+06
7.41456e+06
7.31102e+06
7.21296e+06
7.12011e+06
7.03221e+06
6.94901e+06
6.87027e+06
6.79574e+06
6.72521e+06
6.65846e+06
6.59528e+06
6.53547e+06
6.47883e+06
8.01306e+06
7.88807e+06
7.7607e+06
7.63917e+06
7.5239e+06
7.41463e+06
7.3111e+06
7.21305e+06
7.12021e+06
7.03232e+06
6.94913e+06
6.87039e+06
6.79587e+06
6.72535e+06
6.6586e+06
6.59543e+06
6.53562e+06
6.47899e+06
5.18077e+06
5.18036e+06
5.17953e+06
5.17827e+06
5.17657e+06
5.17443e+06
5.17183e+06
5.16878e+06
5.16527e+06
5.16129e+06
5.15685e+06
5.15192e+06
5.14651e+06
5.14062e+06
5.13423e+06
5.12734e+06
5.11996e+06
5.11209e+06
5.10371e+06
5.09484e+06
5.08547e+06
5.07562e+06
5.06528e+06
5.05445e+06
5.04315e+06
5.03137e+06
5.01913e+06
5.00642e+06
4.99325e+06
4.97963e+06
4.96555e+06
4.95102e+06
4.93606e+06
4.92067e+06
4.90484e+06
4.88859e+06
4.87193e+06
4.85486e+06
4.83741e+06
4.81956e+06
4.80133e+06
4.78271e+06
4.76371e+06
4.74433e+06
4.72457e+06
4.70446e+06
4.68399e+06
4.66316e+06
4.64199e+06
4.62048e+06
4.59865e+06
4.5765e+06
4.55405e+06
4.53131e+06
4.50826e+06
4.48493e+06
4.46132e+06
4.43744e+06
4.41328e+06
4.38884e+06
4.36415e+06
4.3392e+06
4.314e+06
4.28855e+06
4.26286e+06
4.23692e+06
4.21073e+06
4.1843e+06
4.15763e+06
4.13072e+06
4.10359e+06
4.07622e+06
4.04864e+06
4.02084e+06
3.99284e+06
3.96464e+06
3.93624e+06
3.90766e+06
3.87889e+06
3.84996e+06
3.82085e+06
3.79158e+06
3.76214e+06
3.73255e+06
3.7028e+06
3.6729e+06
3.64285e+06
3.61265e+06
3.5823e+06
3.55182e+06
3.52119e+06
3.49042e+06
3.45952e+06
3.42849e+06
3.39733e+06
3.36605e+06
3.33464e+06
3.30311e+06
3.27146e+06
3.2397e+06
3.20782e+06
3.17584e+06
3.14375e+06
3.11157e+06
3.07929e+06
3.04691e+06
3.01445e+06
2.9819e+06
2.94927e+06
2.91656e+06
2.88378e+06
2.85092e+06
2.81799e+06
2.785e+06
2.75194e+06
2.71882e+06
2.68564e+06
2.6524e+06
2.61911e+06
2.58577e+06
2.55238e+06
2.51894e+06
2.48547e+06
2.45196e+06
2.41841e+06
2.38483e+06
2.35123e+06
2.3176e+06
2.28396e+06
2.25029e+06
2.21662e+06
2.18294e+06
2.14926e+06
2.11557e+06
2.0819e+06
2.04823e+06
2.01457e+06
1.98094e+06
1.94733e+06
1.91375e+06
1.8802e+06
1.84669e+06
1.81322e+06
1.7798e+06
1.74644e+06
1.71313e+06
1.67989e+06
1.64672e+06
1.61363e+06
1.58062e+06
1.54769e+06
1.51486e+06
1.48213e+06
1.44951e+06
1.41701e+06
1.38462e+06
1.35236e+06
1.32023e+06
1.28825e+06
1.25641e+06
1.22474e+06
1.19322e+06
1.16188e+06
1.13072e+06
1.09975e+06
1.06898e+06
1.03842e+06
1.00807e+06
977959
948085
918465
889112
860041
831273
802828
774735
747032
719776
693062
667101
5.18266e+06
5.18224e+06
5.18141e+06
5.18014e+06
5.17843e+06
5.17627e+06
5.17366e+06
5.1706e+06
5.16707e+06
5.16307e+06
5.1586e+06
5.15365e+06
5.14822e+06
5.14229e+06
5.13587e+06
5.12896e+06
5.12154e+06
5.11363e+06
5.10522e+06
5.09631e+06
5.0869e+06
5.07701e+06
5.06662e+06
5.05575e+06
5.04441e+06
5.03259e+06
5.02031e+06
5.00756e+06
4.99435e+06
4.98068e+06
4.96658e+06
4.95203e+06
4.93704e+06
4.92162e+06
4.90576e+06
4.88948e+06
4.87279e+06
4.85569e+06
4.8382e+06
4.82032e+06
4.80205e+06
4.7834e+06
4.76436e+06
4.74494e+06
4.72516e+06
4.70502e+06
4.68452e+06
4.66367e+06
4.64248e+06
4.62095e+06
4.5991e+06
4.57693e+06
4.55446e+06
4.53169e+06
4.50863e+06
4.48528e+06
4.46165e+06
4.43775e+06
4.41357e+06
4.38913e+06
4.36442e+06
4.33947e+06
4.31426e+06
4.2888e+06
4.26309e+06
4.23713e+06
4.21093e+06
4.18449e+06
4.15781e+06
4.1309e+06
4.10375e+06
4.07637e+06
4.04878e+06
4.02097e+06
3.99296e+06
3.96475e+06
3.93634e+06
3.90776e+06
3.87899e+06
3.85004e+06
3.82093e+06
3.79165e+06
3.76221e+06
3.73262e+06
3.70287e+06
3.67296e+06
3.64291e+06
3.6127e+06
3.58236e+06
3.55187e+06
3.52124e+06
3.49047e+06
3.45957e+06
3.42853e+06
3.39737e+06
3.36608e+06
3.33467e+06
3.30314e+06
3.27149e+06
3.23972e+06
3.20784e+06
3.17586e+06
3.14377e+06
3.11159e+06
3.0793e+06
3.04693e+06
3.01446e+06
2.98191e+06
2.94928e+06
2.91657e+06
2.88379e+06
2.85093e+06
2.818e+06
2.78501e+06
2.75194e+06
2.71882e+06
2.68564e+06
2.6524e+06
2.61911e+06
2.58577e+06
2.55238e+06
2.51895e+06
2.48547e+06
2.45196e+06
2.41841e+06
2.38484e+06
2.35123e+06
2.3176e+06
2.28396e+06
2.2503e+06
2.21662e+06
2.18294e+06
2.14926e+06
2.11557e+06
2.0819e+06
2.04823e+06
2.01457e+06
1.98094e+06
1.94733e+06
1.91375e+06
1.8802e+06
1.84669e+06
1.81322e+06
1.7798e+06
1.74644e+06
1.71313e+06
1.67989e+06
1.64672e+06
1.61363e+06
1.58062e+06
1.54769e+06
1.51486e+06
1.48213e+06
1.44951e+06
1.41701e+06
1.38462e+06
1.35236e+06
1.32023e+06
1.28825e+06
1.25641e+06
1.22474e+06
1.19322e+06
1.16188e+06
1.13072e+06
1.09975e+06
1.06898e+06
1.03842e+06
1.00807e+06
977956
948081
918460
889105
860033
831261
802812
774713
747000
719726
692973
666888
5.18641e+06
5.18599e+06
5.18514e+06
5.18386e+06
5.18213e+06
5.17996e+06
5.17733e+06
5.17424e+06
5.17068e+06
5.16665e+06
5.16213e+06
5.15713e+06
5.15164e+06
5.14566e+06
5.13918e+06
5.13219e+06
5.1247e+06
5.11672e+06
5.10823e+06
5.09924e+06
5.08976e+06
5.07978e+06
5.06931e+06
5.05836e+06
5.04693e+06
5.03503e+06
5.02266e+06
5.00983e+06
4.99654e+06
4.9828e+06
4.96861e+06
4.95399e+06
4.93893e+06
4.92344e+06
4.90753e+06
4.89118e+06
4.87443e+06
4.85728e+06
4.83973e+06
4.82179e+06
4.80346e+06
4.78474e+06
4.76563e+06
4.74616e+06
4.72633e+06
4.70613e+06
4.68558e+06
4.66468e+06
4.64344e+06
4.62187e+06
4.59998e+06
4.57777e+06
4.55525e+06
4.53245e+06
4.50935e+06
4.48596e+06
4.46229e+06
4.43835e+06
4.41415e+06
4.38968e+06
4.36495e+06
4.33997e+06
4.31474e+06
4.28926e+06
4.26352e+06
4.23755e+06
4.21133e+06
4.18486e+06
4.15816e+06
4.13123e+06
4.10406e+06
4.07667e+06
4.04905e+06
4.02123e+06
3.9932e+06
3.96497e+06
3.93655e+06
3.90795e+06
3.87917e+06
3.85021e+06
3.82109e+06
3.7918e+06
3.76236e+06
3.73275e+06
3.70299e+06
3.67308e+06
3.64302e+06
3.61281e+06
3.58246e+06
3.55197e+06
3.52133e+06
3.49056e+06
3.45965e+06
3.42861e+06
3.39744e+06
3.36614e+06
3.33473e+06
3.30319e+06
3.27154e+06
3.23977e+06
3.20789e+06
3.1759e+06
3.14381e+06
3.11162e+06
3.07933e+06
3.04695e+06
3.01449e+06
2.98193e+06
2.9493e+06
2.91659e+06
2.8838e+06
2.85094e+06
2.81801e+06
2.78502e+06
2.75196e+06
2.71883e+06
2.68565e+06
2.65241e+06
2.61912e+06
2.58578e+06
2.55239e+06
2.51895e+06
2.48548e+06
2.45196e+06
2.41842e+06
2.38484e+06
2.35123e+06
2.31761e+06
2.28396e+06
2.2503e+06
2.21662e+06
2.18294e+06
2.14926e+06
2.11558e+06
2.0819e+06
2.04823e+06
2.01458e+06
1.98094e+06
1.94733e+06
1.91375e+06
1.8802e+06
1.84669e+06
1.81322e+06
1.7798e+06
1.74644e+06
1.71313e+06
1.67989e+06
1.64672e+06
1.61363e+06
1.58062e+06
1.54769e+06
1.51486e+06
1.48213e+06
1.44951e+06
1.41701e+06
1.38462e+06
1.35236e+06
1.32023e+06
1.28825e+06
1.25641e+06
1.22473e+06
1.19322e+06
1.16188e+06
1.13072e+06
1.09975e+06
1.06898e+06
1.03841e+06
1.00807e+06
977950
948073
918449
889092
860015
831238
802781
774670
746938
719630
692809
666557
5.19207e+06
5.19164e+06
5.19078e+06
5.18947e+06
5.18773e+06
5.18553e+06
5.18286e+06
5.17973e+06
5.17611e+06
5.17202e+06
5.16743e+06
5.16235e+06
5.15677e+06
5.15069e+06
5.14411e+06
5.13702e+06
5.12942e+06
5.12132e+06
5.11272e+06
5.10361e+06
5.09401e+06
5.08392e+06
5.07333e+06
5.06226e+06
5.05071e+06
5.03868e+06
5.02619e+06
5.01323e+06
4.99982e+06
4.98596e+06
4.97166e+06
4.95691e+06
4.94174e+06
4.92614e+06
4.91012e+06
4.89368e+06
4.87684e+06
4.85959e+06
4.84196e+06
4.82394e+06
4.80552e+06
4.78672e+06
4.76753e+06
4.74798e+06
4.72807e+06
4.70779e+06
4.68716e+06
4.66619e+06
4.64488e+06
4.62323e+06
4.60127e+06
4.579e+06
4.55643e+06
4.53356e+06
4.5104e+06
4.48696e+06
4.46324e+06
4.43926e+06
4.41501e+06
4.3905e+06
4.36574e+06
4.34072e+06
4.31545e+06
4.28993e+06
4.26416e+06
4.23815e+06
4.2119e+06
4.18541e+06
4.15868e+06
4.13171e+06
4.10451e+06
4.07709e+06
4.04945e+06
4.0216e+06
3.99355e+06
3.9653e+06
3.93685e+06
3.90823e+06
3.87943e+06
3.85046e+06
3.82132e+06
3.79202e+06
3.76256e+06
3.73295e+06
3.70318e+06
3.67326e+06
3.64319e+06
3.61298e+06
3.58262e+06
3.55211e+06
3.52147e+06
3.49069e+06
3.45977e+06
3.42872e+06
3.39754e+06
3.36624e+06
3.33482e+06
3.30327e+06
3.27161e+06
3.23984e+06
3.20795e+06
3.17596e+06
3.14386e+06
3.11167e+06
3.07938e+06
3.04699e+06
3.01452e+06
2.98197e+06
2.94933e+06
2.91662e+06
2.88383e+06
2.85097e+06
2.81803e+06
2.78504e+06
2.75197e+06
2.71885e+06
2.68566e+06
2.65242e+06
2.61913e+06
2.58579e+06
2.5524e+06
2.51896e+06
2.48548e+06
2.45197e+06
2.41842e+06
2.38485e+06
2.35124e+06
2.31761e+06
2.28396e+06
2.2503e+06
2.21663e+06
2.18295e+06
2.14926e+06
2.11558e+06
2.0819e+06
2.04823e+06
2.01458e+06
1.98094e+06
1.94733e+06
1.91375e+06
1.8802e+06
1.84669e+06
1.81322e+06
1.7798e+06
1.74644e+06
1.71313e+06
1.67989e+06
1.64672e+06
1.61363e+06
1.58062e+06
1.54769e+06
1.51486e+06
1.48213e+06
1.44951e+06
1.41701e+06
1.38462e+06
1.35236e+06
1.32023e+06
1.28825e+06
1.25641e+06
1.22473e+06
1.19322e+06
1.16188e+06
1.13072e+06
1.09974e+06
1.06897e+06
1.03841e+06
1.00806e+06
977940
948061
918434
889072
859990
831204
802736
774608
746849
719496
692593
666174
5.19968e+06
5.19923e+06
5.19835e+06
5.19703e+06
5.19525e+06
5.193e+06
5.19028e+06
5.18707e+06
5.18338e+06
5.17919e+06
5.1745e+06
5.16931e+06
5.16361e+06
5.1574e+06
5.15068e+06
5.14345e+06
5.1357e+06
5.12745e+06
5.11869e+06
5.10943e+06
5.09967e+06
5.08941e+06
5.07866e+06
5.06743e+06
5.05572e+06
5.04353e+06
5.03087e+06
5.01776e+06
5.00419e+06
4.99016e+06
4.9757e+06
4.9608e+06
4.94548e+06
4.92973e+06
4.91356e+06
4.89699e+06
4.88002e+06
4.86266e+06
4.8449e+06
4.82676e+06
4.80823e+06
4.78933e+06
4.77004e+06
4.75039e+06
4.73038e+06
4.71e+06
4.68927e+06
4.66819e+06
4.64677e+06
4.62503e+06
4.60298e+06
4.58062e+06
4.55796e+06
4.53501e+06
4.51178e+06
4.48828e+06
4.4645e+06
4.44045e+06
4.41614e+06
4.39158e+06
4.36676e+06
4.34169e+06
4.31638e+06
4.29081e+06
4.265e+06
4.23895e+06
4.21266e+06
4.18612e+06
4.15935e+06
4.13234e+06
4.10511e+06
4.07765e+06
4.04998e+06
4.02209e+06
3.994e+06
3.96572e+06
3.93725e+06
3.9086e+06
3.87977e+06
3.85078e+06
3.82162e+06
3.79231e+06
3.76283e+06
3.73321e+06
3.70343e+06
3.67349e+06
3.64342e+06
3.61319e+06
3.58282e+06
3.55231e+06
3.52165e+06
3.49086e+06
3.45993e+06
3.42887e+06
3.39769e+06
3.36637e+06
3.33494e+06
3.30339e+06
3.27172e+06
3.23993e+06
3.20804e+06
3.17604e+06
3.14393e+06
3.11173e+06
3.07943e+06
3.04705e+06
3.01457e+06
2.98201e+06
2.94937e+06
2.91665e+06
2.88386e+06
2.851e+06
2.81806e+06
2.78506e+06
2.752e+06
2.71887e+06
2.68568e+06
2.65244e+06
2.61915e+06
2.5858e+06
2.55241e+06
2.51897e+06
2.48549e+06
2.45198e+06
2.41843e+06
2.38485e+06
2.35125e+06
2.31762e+06
2.28397e+06
2.25031e+06
2.21663e+06
2.18295e+06
2.14927e+06
2.11558e+06
2.0819e+06
2.04823e+06
2.01458e+06
1.98095e+06
1.94734e+06
1.91375e+06
1.8802e+06
1.84669e+06
1.81323e+06
1.77981e+06
1.74644e+06
1.71314e+06
1.67989e+06
1.64672e+06
1.61363e+06
1.58062e+06
1.54769e+06
1.51486e+06
1.48214e+06
1.44951e+06
1.41701e+06
1.38462e+06
1.35236e+06
1.32023e+06
1.28825e+06
1.25641e+06
1.22473e+06
1.19322e+06
1.16187e+06
1.13071e+06
1.09974e+06
1.06897e+06
1.0384e+06
1.00805e+06
977928
948046
918414
889046
859957
831161
802677
774528
746737
719332
692341
665770
5.20928e+06
5.20883e+06
5.20793e+06
5.20656e+06
5.20473e+06
5.20241e+06
5.1996e+06
5.1963e+06
5.1925e+06
5.18819e+06
5.18337e+06
5.17804e+06
5.17219e+06
5.16582e+06
5.15893e+06
5.15151e+06
5.14358e+06
5.13514e+06
5.12618e+06
5.11672e+06
5.10675e+06
5.09629e+06
5.08533e+06
5.07389e+06
5.06197e+06
5.04957e+06
5.03671e+06
5.02339e+06
5.00962e+06
4.9954e+06
4.98074e+06
4.96565e+06
4.95014e+06
4.93421e+06
4.91787e+06
4.90113e+06
4.884e+06
4.86647e+06
4.84856e+06
4.83027e+06
4.81161e+06
4.79257e+06
4.77316e+06
4.75338e+06
4.73324e+06
4.71273e+06
4.69187e+06
4.67066e+06
4.64912e+06
4.62726e+06
4.60509e+06
4.58262e+06
4.55985e+06
4.53681e+06
4.51348e+06
4.48989e+06
4.46603e+06
4.44191e+06
4.41754e+06
4.3929e+06
4.36802e+06
4.34289e+06
4.31752e+06
4.2919e+06
4.26603e+06
4.23993e+06
4.21358e+06
4.187e+06
4.16018e+06
4.13313e+06
4.10585e+06
4.07834e+06
4.05062e+06
4.02269e+06
3.99456e+06
3.96624e+06
3.93773e+06
3.90905e+06
3.88019e+06
3.85117e+06
3.82199e+06
3.79266e+06
3.76317e+06
3.73352e+06
3.70373e+06
3.67378e+06
3.64369e+06
3.61346e+06
3.58308e+06
3.55255e+06
3.52189e+06
3.49109e+06
3.46014e+06
3.42907e+06
3.39787e+06
3.36654e+06
3.33509e+06
3.30353e+06
3.27185e+06
3.24005e+06
3.20815e+06
3.17614e+06
3.14402e+06
3.11181e+06
3.07951e+06
3.04711e+06
3.01463e+06
2.98207e+06
2.94942e+06
2.9167e+06
2.8839e+06
2.85103e+06
2.8181e+06
2.78509e+06
2.75202e+06
2.71889e+06
2.68571e+06
2.65246e+06
2.61917e+06
2.58582e+06
2.55242e+06
2.51899e+06
2.48551e+06
2.45199e+06
2.41844e+06
2.38486e+06
2.35126e+06
2.31763e+06
2.28398e+06
2.25031e+06
2.21664e+06
2.18296e+06
2.14927e+06
2.11559e+06
2.08191e+06
2.04824e+06
2.01458e+06
1.98095e+06
1.94734e+06
1.91376e+06
1.88021e+06
1.84669e+06
1.81323e+06
1.77981e+06
1.74644e+06
1.71314e+06
1.6799e+06
1.64673e+06
1.61363e+06
1.58062e+06
1.54769e+06
1.51486e+06
1.48214e+06
1.44951e+06
1.41701e+06
1.38462e+06
1.35236e+06
1.32023e+06
1.28825e+06
1.25641e+06
1.22473e+06
1.19321e+06
1.16187e+06
1.13071e+06
1.09973e+06
1.06896e+06
1.03839e+06
1.00804e+06
977914
948027
918390
889015
859916
831108
802607
774433
746605
719146
692068
665362
5.22098e+06
5.2205e+06
5.21955e+06
5.21813e+06
5.21622e+06
5.21381e+06
5.2109e+06
5.20747e+06
5.20353e+06
5.19907e+06
5.19409e+06
5.18858e+06
5.18254e+06
5.17596e+06
5.16886e+06
5.16123e+06
5.15307e+06
5.14438e+06
5.13519e+06
5.12548e+06
5.11526e+06
5.10454e+06
5.09333e+06
5.08164e+06
5.06946e+06
5.05682e+06
5.04371e+06
5.03014e+06
5.01612e+06
5.00166e+06
4.98677e+06
4.97145e+06
4.95571e+06
4.93956e+06
4.92301e+06
4.90607e+06
4.88874e+06
4.87102e+06
4.85293e+06
4.83447e+06
4.81563e+06
4.79643e+06
4.77686e+06
4.75693e+06
4.73664e+06
4.71598e+06
4.69496e+06
4.6736e+06
4.65191e+06
4.6299e+06
4.60759e+06
4.58498e+06
4.56209e+06
4.53893e+06
4.5155e+06
4.4918e+06
4.46785e+06
4.44364e+06
4.41918e+06
4.39447e+06
4.36951e+06
4.34431e+06
4.31887e+06
4.29318e+06
4.26726e+06
4.24109e+06
4.21469e+06
4.18805e+06
4.16117e+06
4.13407e+06
4.10673e+06
4.07917e+06
4.05139e+06
4.02341e+06
3.99523e+06
3.96686e+06
3.93831e+06
3.90958e+06
3.88069e+06
3.85164e+06
3.82244e+06
3.79307e+06
3.76356e+06
3.7339e+06
3.70408e+06
3.67412e+06
3.64402e+06
3.61377e+06
3.58338e+06
3.55284e+06
3.52217e+06
3.49135e+06
3.4604e+06
3.42931e+06
3.39808e+06
3.36674e+06
3.33528e+06
3.3037e+06
3.272e+06
3.24019e+06
3.20828e+06
3.17626e+06
3.14413e+06
3.11191e+06
3.07959e+06
3.04719e+06
3.0147e+06
2.98213e+06
2.94948e+06
2.91675e+06
2.88395e+06
2.85108e+06
2.81814e+06
2.78513e+06
2.75206e+06
2.71893e+06
2.68573e+06
2.65249e+06
2.61919e+06
2.58584e+06
2.55244e+06
2.519e+06
2.48552e+06
2.45201e+06
2.41845e+06
2.38487e+06
2.35127e+06
2.31764e+06
2.28399e+06
2.25032e+06
2.21664e+06
2.18296e+06
2.14928e+06
2.11559e+06
2.08191e+06
2.04824e+06
2.01459e+06
1.98095e+06
1.94734e+06
1.91376e+06
1.88021e+06
1.8467e+06
1.81323e+06
1.77981e+06
1.74644e+06
1.71314e+06
1.6799e+06
1.64673e+06
1.61363e+06
1.58062e+06
1.5477e+06
1.51487e+06
1.48214e+06
1.44951e+06
1.41701e+06
1.38462e+06
1.35236e+06
1.32023e+06
1.28824e+06
1.25641e+06
1.22473e+06
1.19321e+06
1.16187e+06
1.1307e+06
1.09973e+06
1.06895e+06
1.03838e+06
1.00802e+06
977897
948006
918362
888980
859870
831047
802527
774326
746460
718943
691783
664961
5.23481e+06
5.23429e+06
5.23329e+06
5.23179e+06
5.22978e+06
5.22725e+06
5.2242e+06
5.22062e+06
5.21651e+06
5.21186e+06
5.20668e+06
5.20094e+06
5.19467e+06
5.18785e+06
5.18049e+06
5.17259e+06
5.16416e+06
5.1552e+06
5.14571e+06
5.13571e+06
5.12519e+06
5.11418e+06
5.10267e+06
5.09067e+06
5.07819e+06
5.06525e+06
5.05184e+06
5.03798e+06
5.02368e+06
5.00894e+06
4.99376e+06
4.97817e+06
4.96217e+06
4.94577e+06
4.92897e+06
4.91179e+06
4.89423e+06
4.8763e+06
4.85799e+06
4.83933e+06
4.8203e+06
4.80091e+06
4.78117e+06
4.76105e+06
4.74058e+06
4.71974e+06
4.69855e+06
4.67701e+06
4.65514e+06
4.63296e+06
4.61048e+06
4.58771e+06
4.56467e+06
4.54137e+06
4.51781e+06
4.494e+06
4.46994e+06
4.44563e+06
4.42107e+06
4.39627e+06
4.37123e+06
4.34594e+06
4.32043e+06
4.29467e+06
4.26867e+06
4.24244e+06
4.21597e+06
4.18927e+06
4.16233e+06
4.13516e+06
4.10775e+06
4.08013e+06
4.05229e+06
4.02425e+06
3.99601e+06
3.96758e+06
3.93898e+06
3.91021e+06
3.88128e+06
3.8522e+06
3.82296e+06
3.79357e+06
3.76402e+06
3.73434e+06
3.7045e+06
3.67452e+06
3.64439e+06
3.61413e+06
3.58372e+06
3.55317e+06
3.52248e+06
3.49165e+06
3.46068e+06
3.42958e+06
3.39834e+06
3.36697e+06
3.33549e+06
3.30389e+06
3.27218e+06
3.24036e+06
3.20843e+06
3.17639e+06
3.14425e+06
3.11202e+06
3.0797e+06
3.04728e+06
3.01478e+06
2.9822e+06
2.94955e+06
2.91681e+06
2.88401e+06
2.85113e+06
2.81818e+06
2.78517e+06
2.7521e+06
2.71896e+06
2.68577e+06
2.65252e+06
2.61922e+06
2.58586e+06
2.55247e+06
2.51902e+06
2.48554e+06
2.45202e+06
2.41847e+06
2.38489e+06
2.35128e+06
2.31765e+06
2.284e+06
2.25033e+06
2.21665e+06
2.18297e+06
2.14928e+06
2.1156e+06
2.08192e+06
2.04825e+06
2.01459e+06
1.98096e+06
1.94735e+06
1.91376e+06
1.88021e+06
1.8467e+06
1.81323e+06
1.77981e+06
1.74645e+06
1.71314e+06
1.6799e+06
1.64673e+06
1.61363e+06
1.58062e+06
1.5477e+06
1.51487e+06
1.48214e+06
1.44951e+06
1.41701e+06
1.38462e+06
1.35236e+06
1.32023e+06
1.28824e+06
1.25641e+06
1.22472e+06
1.19321e+06
1.16186e+06
1.1307e+06
1.09972e+06
1.06894e+06
1.03837e+06
1.00801e+06
977878
947981
918331
888939
859818
830980
802439
774209
746303
718731
691494
664570
5.25085e+06
5.25029e+06
5.24922e+06
5.24762e+06
5.24549e+06
5.24282e+06
5.2396e+06
5.23583e+06
5.2315e+06
5.22662e+06
5.22119e+06
5.21519e+06
5.20863e+06
5.20152e+06
5.19385e+06
5.18564e+06
5.17688e+06
5.16758e+06
5.15776e+06
5.14742e+06
5.13655e+06
5.12519e+06
5.11333e+06
5.10098e+06
5.08815e+06
5.07486e+06
5.06111e+06
5.04691e+06
5.03227e+06
5.0172e+06
5.00171e+06
4.98581e+06
4.9695e+06
4.95281e+06
4.93573e+06
4.91828e+06
4.90046e+06
4.88228e+06
4.86374e+06
4.84485e+06
4.82561e+06
4.80602e+06
4.78606e+06
4.76575e+06
4.74507e+06
4.72402e+06
4.70262e+06
4.68088e+06
4.65881e+06
4.63642e+06
4.61374e+06
4.59079e+06
4.56758e+06
4.54412e+06
4.52042e+06
4.49648e+06
4.47229e+06
4.44786e+06
4.4232e+06
4.3983e+06
4.37316e+06
4.34779e+06
4.32218e+06
4.29634e+06
4.27027e+06
4.24396e+06
4.21742e+06
4.19064e+06
4.16363e+06
4.13639e+06
4.10892e+06
4.08122e+06
4.05331e+06
4.0252e+06
3.99689e+06
3.96841e+06
3.93975e+06
3.91093e+06
3.88196e+06
3.85283e+06
3.82355e+06
3.79413e+06
3.76456e+06
3.73484e+06
3.70498e+06
3.67497e+06
3.64482e+06
3.61453e+06
3.5841e+06
3.55353e+06
3.52283e+06
3.49198e+06
3.461e+06
3.42988e+06
3.39862e+06
3.36724e+06
3.33573e+06
3.30411e+06
3.27238e+06
3.24055e+06
3.2086e+06
3.17655e+06
3.14439e+06
3.11215e+06
3.07981e+06
3.04738e+06
3.01488e+06
2.98229e+06
2.94962e+06
2.91688e+06
2.88407e+06
2.85119e+06
2.81824e+06
2.78522e+06
2.75214e+06
2.719e+06
2.6858e+06
2.65255e+06
2.61925e+06
2.58589e+06
2.55249e+06
2.51905e+06
2.48556e+06
2.45204e+06
2.41849e+06
2.3849e+06
2.35129e+06
2.31766e+06
2.28401e+06
2.25034e+06
2.21666e+06
2.18298e+06
2.14929e+06
2.1156e+06
2.08192e+06
2.04825e+06
2.0146e+06
1.98096e+06
1.94735e+06
1.91377e+06
1.88022e+06
1.8467e+06
1.81324e+06
1.77982e+06
1.74645e+06
1.71314e+06
1.6799e+06
1.64673e+06
1.61364e+06
1.58062e+06
1.5477e+06
1.51487e+06
1.48214e+06
1.44951e+06
1.41701e+06
1.38462e+06
1.35236e+06
1.32023e+06
1.28824e+06
1.2564e+06
1.22472e+06
1.1932e+06
1.16186e+06
1.13069e+06
1.09971e+06
1.06893e+06
1.03835e+06
1.00799e+06
977857
947954
918297
888896
859762
830908
802345
774085
746140
718514
691206
664194
5.26922e+06
5.26861e+06
5.26745e+06
5.26574e+06
5.26346e+06
5.26062e+06
5.25719e+06
5.25319e+06
5.2486e+06
5.24344e+06
5.2377e+06
5.23138e+06
5.22449e+06
5.21703e+06
5.209e+06
5.20041e+06
5.19127e+06
5.18158e+06
5.17136e+06
5.16062e+06
5.14935e+06
5.13758e+06
5.12531e+06
5.11256e+06
5.09933e+06
5.08564e+06
5.0715e+06
5.05692e+06
5.0419e+06
5.02645e+06
5.0106e+06
4.99434e+06
4.97769e+06
4.96066e+06
4.94327e+06
4.92552e+06
4.90741e+06
4.88896e+06
4.87017e+06
4.85103e+06
4.83155e+06
4.81172e+06
4.79154e+06
4.77099e+06
4.75008e+06
4.72881e+06
4.70717e+06
4.68519e+06
4.66289e+06
4.64028e+06
4.61738e+06
4.59423e+06
4.57083e+06
4.54719e+06
4.52333e+06
4.49923e+06
4.4749e+06
4.45035e+06
4.42556e+06
4.40054e+06
4.3753e+06
4.34982e+06
4.32412e+06
4.29819e+06
4.27203e+06
4.24564e+06
4.21902e+06
4.19216e+06
4.16507e+06
4.13775e+06
4.1102e+06
4.08242e+06
4.05444e+06
4.02625e+06
3.99787e+06
3.96932e+06
3.9406e+06
3.91173e+06
3.88271e+06
3.85354e+06
3.82423e+06
3.79477e+06
3.76516e+06
3.73541e+06
3.70551e+06
3.67547e+06
3.64529e+06
3.61497e+06
3.58452e+06
3.55393e+06
3.52321e+06
3.49235e+06
3.46135e+06
3.43021e+06
3.39893e+06
3.36752e+06
3.336e+06
3.30436e+06
3.27261e+06
3.24075e+06
3.20878e+06
3.17671e+06
3.14455e+06
3.11228e+06
3.07993e+06
3.04749e+06
3.01498e+06
2.98238e+06
2.94971e+06
2.91696e+06
2.88414e+06
2.85125e+06
2.8183e+06
2.78527e+06
2.75219e+06
2.71905e+06
2.68584e+06
2.65259e+06
2.61928e+06
2.58592e+06
2.55252e+06
2.51907e+06
2.48559e+06
2.45206e+06
2.41851e+06
2.38492e+06
2.35131e+06
2.31767e+06
2.28402e+06
2.25035e+06
2.21667e+06
2.18299e+06
2.1493e+06
2.11561e+06
2.08193e+06
2.04826e+06
2.01461e+06
1.98097e+06
1.94736e+06
1.91377e+06
1.88022e+06
1.84671e+06
1.81324e+06
1.77982e+06
1.74645e+06
1.71315e+06
1.6799e+06
1.64673e+06
1.61364e+06
1.58062e+06
1.5477e+06
1.51487e+06
1.48214e+06
1.44952e+06
1.41701e+06
1.38462e+06
1.35235e+06
1.32023e+06
1.28824e+06
1.2564e+06
1.22472e+06
1.1932e+06
1.16185e+06
1.13068e+06
1.0997e+06
1.06892e+06
1.03834e+06
1.00798e+06
977834
947926
918261
888849
859703
830831
802246
773957
745973
718296
690923
663834
5.29007e+06
5.2894e+06
5.28815e+06
5.2863e+06
5.28384e+06
5.28078e+06
5.27711e+06
5.27283e+06
5.26794e+06
5.26244e+06
5.25633e+06
5.24963e+06
5.24234e+06
5.23446e+06
5.226e+06
5.21697e+06
5.20738e+06
5.19724e+06
5.18656e+06
5.17534e+06
5.16361e+06
5.15138e+06
5.13864e+06
5.12543e+06
5.11175e+06
5.0976e+06
5.08301e+06
5.06799e+06
5.05254e+06
5.03667e+06
5.02041e+06
5.00375e+06
4.98672e+06
4.96933e+06
4.95158e+06
4.93349e+06
4.91507e+06
4.89631e+06
4.87723e+06
4.85781e+06
4.83806e+06
4.81797e+06
4.79753e+06
4.77672e+06
4.75556e+06
4.73402e+06
4.71213e+06
4.6899e+06
4.66735e+06
4.64449e+06
4.62136e+06
4.59799e+06
4.57438e+06
4.55055e+06
4.52651e+06
4.50225e+06
4.47777e+06
4.45307e+06
4.42815e+06
4.403e+06
4.37763e+06
4.35204e+06
4.32623e+06
4.30019e+06
4.27393e+06
4.24745e+06
4.22074e+06
4.1938e+06
4.16662e+06
4.13921e+06
4.11158e+06
4.08372e+06
4.05565e+06
4.02739e+06
3.99894e+06
3.97031e+06
3.94153e+06
3.91261e+06
3.88354e+06
3.85432e+06
3.82497e+06
3.79547e+06
3.76583e+06
3.73604e+06
3.70611e+06
3.67603e+06
3.64582e+06
3.61546e+06
3.58498e+06
3.55437e+06
3.52363e+06
3.49275e+06
3.46173e+06
3.43057e+06
3.39927e+06
3.36783e+06
3.33629e+06
3.30462e+06
3.27285e+06
3.24097e+06
3.20899e+06
3.1769e+06
3.14471e+06
3.11243e+06
3.08007e+06
3.04762e+06
3.01509e+06
2.98248e+06
2.9498e+06
2.91704e+06
2.88422e+06
2.85132e+06
2.81836e+06
2.78533e+06
2.75224e+06
2.7191e+06
2.68589e+06
2.65263e+06
2.61932e+06
2.58596e+06
2.55255e+06
2.5191e+06
2.48561e+06
2.45208e+06
2.41853e+06
2.38494e+06
2.35132e+06
2.31769e+06
2.28403e+06
2.25036e+06
2.21668e+06
2.183e+06
2.14931e+06
2.11562e+06
2.08194e+06
2.04827e+06
2.01461e+06
1.98098e+06
1.94736e+06
1.91378e+06
1.88023e+06
1.84671e+06
1.81324e+06
1.77982e+06
1.74646e+06
1.71315e+06
1.67991e+06
1.64674e+06
1.61364e+06
1.58063e+06
1.5477e+06
1.51487e+06
1.48214e+06
1.44952e+06
1.41701e+06
1.38462e+06
1.35235e+06
1.32023e+06
1.28824e+06
1.2564e+06
1.22472e+06
1.1932e+06
1.16185e+06
1.13068e+06
1.09969e+06
1.06891e+06
1.03833e+06
1.00796e+06
977811
947896
918223
888801
859641
830752
802144
773827
745805
718081