/*--------------------------------*- C++ -*----------------------------------*\
  =========                 |
  \\      /  F ield         | OpenFOAM: The Open Source CFD Toolbox
   \\    /   O peration     | Website:  https://openfoam.org
    \\  /    A nd           | Version:  10
     \\/     M anipulation  |
\*---------------------------------------------------------------------------*/
FoamFile
{
    format      ascii;
    class       volScalarField;
    location    "44";
    object      xH2O;
}
// * * * * * * * * * * * * * * * * * * * * * * * * * * * * * * * * * * * * * //

dimensions      [0 0 0 0 0 0 0];

internalField   nonuniform List<scalar> 
100
(
0.964648
0.964649
0.964651
0.964653
0.964656
0.964658
0.964661
0.964665
0.964668
0.964672
0.964676
0.96468
0.964684
0.964689
0.964693
0.964698
0.964703
0.964708
0.964713
0.964719
0.964724
0.96473
0.964736
0.964742
0.964748
0.964754
0.964761
0.964767
0.964774
0.964781
0.964788
0.964795
0.964802
0.96481
0.964817
0.964825
0.964833
0.964841
0.964849
0.964857
0.964865
0.964873
0.964882
0.96489
0.964899
0.964908
0.964917
0.964926
0.964935
0.964944
0.964954
0.964963
0.964973
0.964983
0.964993
0.965003
0.965013
0.965023
0.965033
0.965044
0.965054
0.965065
0.965076
0.965087
0.965098
0.965109
0.96512
0.965131
0.965143
0.965154
0.965166
0.965178
0.96519
0.965202
0.965214
0.965227
0.965239
0.965252
0.965265
0.965278
0.965292
0.965306
0.96532
0.965335
0.965351
0.965369
0.965397
1
1
1
1
1
1
1
1
1
1
1
1
1
)
;

boundaryField
{
    inlet
    {
        type            zeroGradient;
    }
    outlet
    {
        type            zeroGradient;
    }
    yzfaces
    {
        type            empty;
    }
}


// ************************************************************************* //
