/*--------------------------------*- C++ -*----------------------------------*\
  =========                 |
  \\      /  F ield         | OpenFOAM: The Open Source CFD Toolbox
   \\    /   O peration     | Website:  https://openfoam.org
    \\  /    A nd           | Version:  10
     \\/     M anipulation  |
\*---------------------------------------------------------------------------*/
FoamFile
{
    format      ascii;
    class       volVectorField;
    location    "7800";
    object      Ua;
}
// * * * * * * * * * * * * * * * * * * * * * * * * * * * * * * * * * * * * * //

dimensions      [0 1 -1 0 0 0 0];

internalField   nonuniform List<vector> 
6400
(
(-2.34843e-07 4.77363e-08 0)
(-7.05508e-07 4.79353e-08 0)
(-1.17913e-06 4.83365e-08 0)
(-1.65772e-06 4.8946e-08 0)
(-2.14337e-06 4.97735e-08 0)
(-2.63831e-06 5.08324e-08 0)
(-3.1449e-06 5.21401e-08 0)
(-3.66568e-06 5.37191e-08 0)
(-4.20347e-06 5.55972e-08 0)
(-4.76138e-06 5.78091e-08 0)
(-5.34291e-06 6.03977e-08 0)
(-5.95202e-06 6.34156e-08 0)
(-6.59326e-06 6.69281e-08 0)
(-7.27189e-06 7.10161e-08 0)
(-7.99407e-06 7.57804e-08 0)
(-8.76707e-06 8.13474e-08 0)
(-9.59959e-06 8.78773e-08 0)
(-1.05021e-05 9.55749e-08 0)
(-1.14874e-05 1.04705e-07 0)
(-1.25713e-05 1.15612e-07 0)
(-1.37735e-05 1.28758e-07 0)
(-1.51191e-05 1.44762e-07 0)
(-1.66404e-05 1.64475e-07 0)
(-1.83798e-05 1.8909e-07 0)
(-2.03939e-05 2.2032e-07 0)
(-2.27602e-05 2.60679e-07 0)
(-2.55872e-05 3.13966e-07 0)
(-2.90312e-05 3.86077e-07 0)
(-3.33234e-05 4.8639e-07 0)
(-3.88154e-05 6.29979e-07 0)
(-4.60482e-05 8.40226e-07 0)
(-5.58196e-05 1.14598e-06 0)
(-6.45772e-05 1.4269e-06 0)
(-7.11178e-05 1.56449e-06 0)
(-7.79805e-05 1.57421e-06 0)
(-8.41394e-05 1.24259e-06 0)
(-8.71807e-05 1.48352e-07 0)
(-8.23764e-05 -2.3456e-06 0)
(-6.28077e-05 -6.60426e-06 0)
(-2.41838e-05 -1.10606e-05 0)
(2.41838e-05 -1.10606e-05 0)
(6.28077e-05 -6.60426e-06 0)
(8.23764e-05 -2.3456e-06 0)
(8.71807e-05 1.48352e-07 0)
(8.41394e-05 1.24259e-06 0)
(7.79805e-05 1.57421e-06 0)
(7.11178e-05 1.56449e-06 0)
(6.45772e-05 1.4269e-06 0)
(5.58196e-05 1.14598e-06 0)
(4.60482e-05 8.40226e-07 0)
(3.88154e-05 6.29979e-07 0)
(3.33234e-05 4.8639e-07 0)
(2.90312e-05 3.86077e-07 0)
(2.55872e-05 3.13966e-07 0)
(2.27602e-05 2.60679e-07 0)
(2.03939e-05 2.2032e-07 0)
(1.83798e-05 1.8909e-07 0)
(1.66404e-05 1.64475e-07 0)
(1.51191e-05 1.44762e-07 0)
(1.37735e-05 1.28758e-07 0)
(1.25713e-05 1.15612e-07 0)
(1.14874e-05 1.04705e-07 0)
(1.05021e-05 9.55749e-08 0)
(9.59959e-06 8.78773e-08 0)
(8.76707e-06 8.13474e-08 0)
(7.99407e-06 7.57804e-08 0)
(7.27189e-06 7.10161e-08 0)
(6.59326e-06 6.69281e-08 0)
(5.95202e-06 6.34156e-08 0)
(5.34291e-06 6.03977e-08 0)
(4.76138e-06 5.78091e-08 0)
(4.20347e-06 5.55972e-08 0)
(3.66568e-06 5.37191e-08 0)
(3.1449e-06 5.21401e-08 0)
(2.63831e-06 5.08324e-08 0)
(2.14337e-06 4.97735e-08 0)
(1.65772e-06 4.8946e-08 0)
(1.17913e-06 4.83365e-08 0)
(7.05508e-07 4.79353e-08 0)
(2.34843e-07 4.77363e-08 0)
(-2.348e-07 1.47821e-07 0)
(-7.0538e-07 1.48438e-07 0)
(-1.17891e-06 1.4968e-07 0)
(-1.65741e-06 1.51567e-07 0)
(-2.14297e-06 1.54129e-07 0)
(-2.63781e-06 1.57407e-07 0)
(-3.14428e-06 1.61456e-07 0)
(-3.66494e-06 1.66344e-07 0)
(-4.2026e-06 1.72159e-07 0)
(-4.76036e-06 1.79007e-07 0)
(-5.34172e-06 1.87021e-07 0)
(-5.95063e-06 1.96364e-07 0)
(-6.59164e-06 2.07237e-07 0)
(-7.27e-06 2.19892e-07 0)
(-7.99187e-06 2.3464e-07 0)
(-8.76449e-06 2.51873e-07 0)
(-9.59656e-06 2.72085e-07 0)
(-1.04985e-05 2.95911e-07 0)
(-1.14831e-05 3.24167e-07 0)
(-1.25661e-05 3.57925e-07 0)
(-1.37672e-05 3.98606e-07 0)
(-1.51115e-05 4.48126e-07 0)
(-1.66309e-05 5.09117e-07 0)
(-1.83679e-05 5.85266e-07 0)
(-2.03787e-05 6.81859e-07 0)
(-2.27403e-05 8.06663e-07 0)
(-2.55605e-05 9.71403e-07 0)
(-2.89944e-05 1.19427e-06 0)
(-3.32714e-05 1.50421e-06 0)
(-3.874e-05 1.94777e-06 0)
(-4.59383e-05 2.59749e-06 0)
(-5.56715e-05 3.54495e-06 0)
(-6.44283e-05 4.42733e-06 0)
(-7.10472e-05 4.8757e-06 0)
(-7.81349e-05 4.95715e-06 0)
(-8.48231e-05 4.03151e-06 0)
(-8.89012e-05 7.961e-07 0)
(-8.56143e-05 -6.83942e-06 0)
(-6.69865e-05 -2.04047e-05 0)
(-2.63206e-05 -3.53246e-05 0)
(2.63206e-05 -3.53246e-05 0)
(6.69865e-05 -2.04047e-05 0)
(8.56143e-05 -6.83942e-06 0)
(8.89012e-05 7.961e-07 0)
(8.48231e-05 4.03151e-06 0)
(7.81349e-05 4.95715e-06 0)
(7.10472e-05 4.8757e-06 0)
(6.44283e-05 4.42733e-06 0)
(5.56715e-05 3.54495e-06 0)
(4.59383e-05 2.59749e-06 0)
(3.874e-05 1.94777e-06 0)
(3.32714e-05 1.50421e-06 0)
(2.89944e-05 1.19427e-06 0)
(2.55605e-05 9.71403e-07 0)
(2.27403e-05 8.06663e-07 0)
(2.03787e-05 6.81859e-07 0)
(1.83679e-05 5.85266e-07 0)
(1.66309e-05 5.09117e-07 0)
(1.51115e-05 4.48126e-07 0)
(1.37672e-05 3.98606e-07 0)
(1.25661e-05 3.57925e-07 0)
(1.14831e-05 3.24167e-07 0)
(1.04985e-05 2.95911e-07 0)
(9.59656e-06 2.72085e-07 0)
(8.76449e-06 2.51873e-07 0)
(7.99187e-06 2.3464e-07 0)
(7.27e-06 2.19892e-07 0)
(6.59164e-06 2.07237e-07 0)
(5.95063e-06 1.96364e-07 0)
(5.34172e-06 1.87021e-07 0)
(4.76036e-06 1.79007e-07 0)
(4.2026e-06 1.72159e-07 0)
(3.66494e-06 1.66344e-07 0)
(3.14428e-06 1.61456e-07 0)
(2.63781e-06 1.57407e-07 0)
(2.14297e-06 1.54129e-07 0)
(1.65741e-06 1.51567e-07 0)
(1.17891e-06 1.4968e-07 0)
(7.0538e-07 1.48438e-07 0)
(2.348e-07 1.47821e-07 0)
(-2.34703e-07 2.57564e-07 0)
(-7.05086e-07 2.58637e-07 0)
(-1.17841e-06 2.60801e-07 0)
(-1.6567e-06 2.64087e-07 0)
(-2.14205e-06 2.6855e-07 0)
(-2.63665e-06 2.74259e-07 0)
(-3.14287e-06 2.81311e-07 0)
(-3.66325e-06 2.89825e-07 0)
(-4.2006e-06 2.99951e-07 0)
(-4.75801e-06 3.11877e-07 0)
(-5.33897e-06 3.25832e-07 0)
(-5.94743e-06 3.42101e-07 0)
(-6.58792e-06 3.61036e-07 0)
(-7.26567e-06 3.8307e-07 0)
(-7.98681e-06 4.08748e-07 0)
(-8.75857e-06 4.38748e-07 0)
(-9.58959e-06 4.73934e-07 0)
(-1.04903e-05 5.15404e-07 0)
(-1.14733e-05 5.64582e-07 0)
(-1.25544e-05 6.23326e-07 0)
(-1.3753e-05 6.94104e-07 0)
(-1.5094e-05 7.80243e-07 0)
(-1.66092e-05 8.86309e-07 0)
(-1.83406e-05 1.0187e-06 0)
(-2.03436e-05 1.18656e-06 0)
(-2.26945e-05 1.40335e-06 0)
(-2.54992e-05 1.68936e-06 0)
(-2.89102e-05 2.07602e-06 0)
(-3.31523e-05 2.61336e-06 0)
(-3.85672e-05 3.38201e-06 0)
(-4.56855e-05 4.50881e-06 0)
(-5.53268e-05 6.16133e-06 0)
(-6.40702e-05 7.74395e-06 0)
(-7.0846e-05 8.60744e-06 0)
(-7.84095e-05 8.94239e-06 0)
(-8.62616e-05 7.72161e-06 0)
(-9.27314e-05 2.71147e-06 0)
(-9.32129e-05 -1.01387e-05 0)
(-7.73841e-05 -3.5159e-05 0)
(-3.18236e-05 -6.60377e-05 0)
(3.18236e-05 -6.60377e-05 0)
(7.73841e-05 -3.5159e-05 0)
(9.32129e-05 -1.01387e-05 0)
(9.27314e-05 2.71147e-06 0)
(8.62616e-05 7.72161e-06 0)
(7.84095e-05 8.94239e-06 0)
(7.0846e-05 8.60744e-06 0)
(6.40702e-05 7.74395e-06 0)
(5.53268e-05 6.16133e-06 0)
(4.56855e-05 4.50881e-06 0)
(3.85672e-05 3.38201e-06 0)
(3.31523e-05 2.61336e-06 0)
(2.89102e-05 2.07602e-06 0)
(2.54992e-05 1.68936e-06 0)
(2.26945e-05 1.40335e-06 0)
(2.03436e-05 1.18656e-06 0)
(1.83406e-05 1.0187e-06 0)
(1.66092e-05 8.86309e-07 0)
(1.5094e-05 7.80243e-07 0)
(1.3753e-05 6.94104e-07 0)
(1.25544e-05 6.23326e-07 0)
(1.14733e-05 5.64582e-07 0)
(1.04903e-05 5.15404e-07 0)
(9.58959e-06 4.73934e-07 0)
(8.75857e-06 4.38748e-07 0)
(7.98681e-06 4.08748e-07 0)
(7.26567e-06 3.8307e-07 0)
(6.58792e-06 3.61036e-07 0)
(5.94743e-06 3.42101e-07 0)
(5.33897e-06 3.25832e-07 0)
(4.75801e-06 3.11877e-07 0)
(4.2006e-06 2.99951e-07 0)
(3.66325e-06 2.89825e-07 0)
(3.14287e-06 2.81311e-07 0)
(2.63665e-06 2.74259e-07 0)
(2.14205e-06 2.6855e-07 0)
(1.6567e-06 2.64087e-07 0)
(1.17841e-06 2.60801e-07 0)
(7.05086e-07 2.58637e-07 0)
(2.34703e-07 2.57564e-07 0)
(-2.34535e-07 3.77864e-07 0)
(-7.04579e-07 3.79437e-07 0)
(-1.17756e-06 3.82609e-07 0)
(-1.65549e-06 3.87427e-07 0)
(-2.14045e-06 3.93969e-07 0)
(-2.63465e-06 4.0234e-07 0)
(-3.14043e-06 4.12677e-07 0)
(-3.66033e-06 4.25157e-07 0)
(-4.19714e-06 4.40001e-07 0)
(-4.75395e-06 4.57481e-07 0)
(-5.33423e-06 4.77935e-07 0)
(-5.94192e-06 5.01779e-07 0)
(-6.5815e-06 5.29527e-07 0)
(-7.25819e-06 5.61814e-07 0)
(-7.97808e-06 5.99435e-07 0)
(-8.74836e-06 6.43385e-07 0)
(-9.57758e-06 6.94922e-07 0)
(-1.04761e-05 7.55655e-07 0)
(-1.14564e-05 8.2766e-07 0)
(-1.25341e-05 9.13651e-07 0)
(-1.37284e-05 1.01723e-06 0)
(-1.50639e-05 1.14324e-06 0)
(-1.65719e-05 1.29833e-06 0)
(-1.82935e-05 1.49181e-06 0)
(-2.02834e-05 1.73699e-06 0)
(-2.26158e-05 2.05337e-06 0)
(-2.5394e-05 2.47036e-06 0)
(-2.87657e-05 3.03346e-06 0)
(-3.29481e-05 3.81504e-06 0)
(-3.82708e-05 4.93211e-06 0)
(-4.52502e-05 6.57139e-06 0)
(-5.47194e-05 8.9962e-06 0)
(-6.34031e-05 1.14166e-05 0)
(-7.03753e-05 1.28705e-05 0)
(-7.86193e-05 1.3816e-05 0)
(-8.82781e-05 1.29973e-05 0)
(-9.8833e-05 7.36526e-06 0)
(-0.000106724 -9.76537e-06 0)
(-9.8225e-05 -4.93705e-05 0)
(-4.36e-05 -0.000109859 0)
(4.36e-05 -0.000109859 0)
(9.8225e-05 -4.93705e-05 0)
(0.000106724 -9.76537e-06 0)
(9.8833e-05 7.36526e-06 0)
(8.82781e-05 1.29973e-05 0)
(7.86193e-05 1.3816e-05 0)
(7.03753e-05 1.28705e-05 0)
(6.34031e-05 1.14166e-05 0)
(5.47194e-05 8.9962e-06 0)
(4.52502e-05 6.57139e-06 0)
(3.82708e-05 4.93211e-06 0)
(3.29481e-05 3.81504e-06 0)
(2.87657e-05 3.03346e-06 0)
(2.5394e-05 2.47036e-06 0)
(2.26158e-05 2.05337e-06 0)
(2.02834e-05 1.73699e-06 0)
(1.82935e-05 1.49181e-06 0)
(1.65719e-05 1.29833e-06 0)
(1.50639e-05 1.14324e-06 0)
(1.37284e-05 1.01723e-06 0)
(1.25341e-05 9.13651e-07 0)
(1.14564e-05 8.2766e-07 0)
(1.04761e-05 7.55655e-07 0)
(9.57758e-06 6.94922e-07 0)
(8.74836e-06 6.43385e-07 0)
(7.97808e-06 5.99435e-07 0)
(7.25819e-06 5.61814e-07 0)
(6.5815e-06 5.29527e-07 0)
(5.94192e-06 5.01779e-07 0)
(5.33423e-06 4.77935e-07 0)
(4.75395e-06 4.57481e-07 0)
(4.19714e-06 4.40001e-07 0)
(3.66033e-06 4.25157e-07 0)
(3.14043e-06 4.12677e-07 0)
(2.63465e-06 4.0234e-07 0)
(2.14045e-06 3.93969e-07 0)
(1.65549e-06 3.87427e-07 0)
(1.17756e-06 3.82609e-07 0)
(7.04579e-07 3.79437e-07 0)
(2.34535e-07 3.77864e-07 0)
(-2.34277e-07 5.0969e-07 0)
(-7.03801e-07 5.1181e-07 0)
(-1.17625e-06 5.16084e-07 0)
(-1.65363e-06 5.22577e-07 0)
(-2.13801e-06 5.31392e-07 0)
(-2.63158e-06 5.4267e-07 0)
(-3.13669e-06 5.56598e-07 0)
(-3.65585e-06 5.73412e-07 0)
(-4.19184e-06 5.93408e-07 0)
(-4.74773e-06 6.16955e-07 0)
(-5.32697e-06 6.44505e-07 0)
(-5.93346e-06 6.76617e-07 0)
(-6.57166e-06 7.13982e-07 0)
(-7.24673e-06 7.57455e-07 0)
(-7.96471e-06 8.081e-07 0)
(-8.73271e-06 8.67252e-07 0)
(-9.55918e-06 9.36601e-07 0)
(-1.04543e-05 1.0183e-06 0)
(-1.14305e-05 1.11514e-06 0)
(-1.2503e-05 1.23073e-06 0)
(-1.36908e-05 1.36991e-06 0)
(-1.50178e-05 1.53914e-06 0)
(-1.65148e-05 1.7473e-06 0)
(-1.82218e-05 2.00677e-06 0)
(-2.01916e-05 2.33524e-06 0)
(-2.24959e-05 2.7586e-06 0)
(-2.52338e-05 3.31575e-06 0)
(-2.85461e-05 4.06681e-06 0)
(-3.26381e-05 5.10729e-06 0)
(-3.78208e-05 6.59216e-06 0)
(-4.45849e-05 8.77321e-06 0)
(-5.37614e-05 1.20338e-05 0)
(-6.22726e-05 1.54563e-05 0)
(-6.93735e-05 1.77387e-05 0)
(-7.8309e-05 1.98374e-05 0)
(-9.01477e-05 2.0641e-05 0)
(-0.000106542 1.69432e-05 0)
(-0.000127801 -5.0952e-07 0)
(-0.000136714 -5.78563e-05 0)
(-6.69726e-05 -0.000144646 0)
(6.69726e-05 -0.000144646 0)
(0.000136714 -5.78563e-05 0)
(0.000127801 -5.0952e-07 0)
(0.000106542 1.69432e-05 0)
(9.01477e-05 2.0641e-05 0)
(7.8309e-05 1.98374e-05 0)
(6.93735e-05 1.77387e-05 0)
(6.22726e-05 1.54563e-05 0)
(5.37614e-05 1.20338e-05 0)
(4.45849e-05 8.77321e-06 0)
(3.78208e-05 6.59216e-06 0)
(3.26381e-05 5.10729e-06 0)
(2.85461e-05 4.06681e-06 0)
(2.52338e-05 3.31575e-06 0)
(2.24959e-05 2.7586e-06 0)
(2.01916e-05 2.33524e-06 0)
(1.82218e-05 2.00677e-06 0)
(1.65148e-05 1.7473e-06 0)
(1.50178e-05 1.53914e-06 0)
(1.36908e-05 1.36991e-06 0)
(1.2503e-05 1.23073e-06 0)
(1.14305e-05 1.11514e-06 0)
(1.04543e-05 1.0183e-06 0)
(9.55918e-06 9.36601e-07 0)
(8.73271e-06 8.67252e-07 0)
(7.96471e-06 8.081e-07 0)
(7.24673e-06 7.57455e-07 0)
(6.57166e-06 7.13982e-07 0)
(5.93346e-06 6.76617e-07 0)
(5.32697e-06 6.44505e-07 0)
(4.74773e-06 6.16955e-07 0)
(4.19184e-06 5.93408e-07 0)
(3.65585e-06 5.73412e-07 0)
(3.13669e-06 5.56598e-07 0)
(2.63158e-06 5.4267e-07 0)
(2.13801e-06 5.31392e-07 0)
(1.65363e-06 5.22577e-07 0)
(1.17625e-06 5.16084e-07 0)
(7.03801e-07 5.1181e-07 0)
(2.34277e-07 5.0969e-07 0)
(-2.33906e-07 6.54085e-07 0)
(-7.02682e-07 6.56802e-07 0)
(-1.17437e-06 6.62278e-07 0)
(-1.65095e-06 6.70598e-07 0)
(-2.13449e-06 6.81893e-07 0)
(-2.62717e-06 6.96343e-07 0)
(-3.13131e-06 7.14187e-07 0)
(-3.64941e-06 7.35727e-07 0)
(-4.18422e-06 7.61342e-07 0)
(-4.7388e-06 7.915e-07 0)
(-5.31654e-06 8.26782e-07 0)
(-5.92131e-06 8.679e-07 0)
(-6.55752e-06 9.15735e-07 0)
(-7.23027e-06 9.71377e-07 0)
(-7.94551e-06 1.03618e-06 0)
(-8.71024e-06 1.11185e-06 0)
(-9.53277e-06 1.20054e-06 0)
(-1.04231e-05 1.30498e-06 0)
(-1.13934e-05 1.42871e-06 0)
(-1.24585e-05 1.57634e-06 0)
(-1.36369e-05 1.75397e-06 0)
(-1.49519e-05 1.96979e-06 0)
(-1.64332e-05 2.235e-06 0)
(-1.81192e-05 2.56522e-06 0)
(-2.00604e-05 2.98266e-06 0)
(-2.2325e-05 3.51977e-06 0)
(-2.5006e-05 4.22512e-06 0)
(-2.82344e-05 5.17355e-06 0)
(-3.21992e-05 6.48371e-06 0)
(-3.71837e-05 8.34875e-06 0)
(-4.36363e-05 1.10886e-05 0)
(-5.23449e-05 1.5228e-05 0)
(-6.04671e-05 1.97996e-05 0)
(-6.7432e-05 2.31522e-05 0)
(-7.66352e-05 2.702e-05 0)
(-9.01055e-05 3.10742e-05 0)
(-0.000112764 3.38122e-05 0)
(-0.000156513 2.8455e-05 0)
(-0.000148913 -8.5326e-05 0)
(-5.60335e-05 -8.06621e-05 0)
(5.60335e-05 -8.06621e-05 0)
(0.000148913 -8.5326e-05 0)
(0.000156513 2.8455e-05 0)
(0.000112764 3.38122e-05 0)
(9.01055e-05 3.10742e-05 0)
(7.66352e-05 2.702e-05 0)
(6.7432e-05 2.31522e-05 0)
(6.04671e-05 1.97996e-05 0)
(5.23449e-05 1.5228e-05 0)
(4.36363e-05 1.10886e-05 0)
(3.71837e-05 8.34875e-06 0)
(3.21992e-05 6.48371e-06 0)
(2.82344e-05 5.17355e-06 0)
(2.5006e-05 4.22512e-06 0)
(2.2325e-05 3.51977e-06 0)
(2.00604e-05 2.98266e-06 0)
(1.81192e-05 2.56522e-06 0)
(1.64332e-05 2.235e-06 0)
(1.49519e-05 1.96979e-06 0)
(1.36369e-05 1.75397e-06 0)
(1.24585e-05 1.57634e-06 0)
(1.13934e-05 1.42871e-06 0)
(1.04231e-05 1.30498e-06 0)
(9.53277e-06 1.20054e-06 0)
(8.71024e-06 1.11185e-06 0)
(7.94551e-06 1.03618e-06 0)
(7.23027e-06 9.71377e-07 0)
(6.55752e-06 9.15735e-07 0)
(5.92131e-06 8.679e-07 0)
(5.31654e-06 8.26782e-07 0)
(4.7388e-06 7.915e-07 0)
(4.18422e-06 7.61342e-07 0)
(3.64941e-06 7.35727e-07 0)
(3.13131e-06 7.14187e-07 0)
(2.62717e-06 6.96343e-07 0)
(2.13449e-06 6.81893e-07 0)
(1.65095e-06 6.70598e-07 0)
(1.17437e-06 6.62278e-07 0)
(7.02682e-07 6.56802e-07 0)
(2.33906e-07 6.54085e-07 0)
(-2.33394e-07 8.1216e-07 0)
(-7.01137e-07 8.15527e-07 0)
(-1.17177e-06 8.22313e-07 0)
(-1.64725e-06 8.32622e-07 0)
(-2.12964e-06 8.46617e-07 0)
(-2.62108e-06 8.6452e-07 0)
(-3.12388e-06 8.86626e-07 0)
(-3.64052e-06 9.13307e-07 0)
(-4.17371e-06 9.45032e-07 0)
(-4.72646e-06 9.82379e-07 0)
(-5.30214e-06 1.02606e-06 0)
(-5.90454e-06 1.07696e-06 0)
(-6.53802e-06 1.13616e-06 0)
(-7.20758e-06 1.205e-06 0)
(-7.91905e-06 1.28515e-06 0)
(-8.67928e-06 1.3787e-06 0)
(-9.4964e-06 1.48829e-06 0)
(-1.03802e-05 1.61729e-06 0)
(-1.13423e-05 1.77001e-06 0)
(-1.23973e-05 1.9521e-06 0)
(-1.35629e-05 2.17099e-06 0)
(-1.48615e-05 2.43667e-06 0)
(-1.63213e-05 2.76274e-06 0)
(-1.79788e-05 3.16808e-06 0)
(-1.98813e-05 3.67953e-06 0)
(-2.20921e-05 4.33603e-06 0)
(-2.46964e-05 5.19565e-06 0)
(-2.78122e-05 6.34742e-06 0)
(-3.16065e-05 7.932e-06 0)
(-3.63247e-05 1.01786e-05 0)
(-4.23495e-05 1.3473e-05 0)
(-5.03569e-05 1.84875e-05 0)
(-5.77542e-05 2.42529e-05 0)
(-6.40656e-05 2.87813e-05 0)
(-7.24412e-05 3.4742e-05 0)
(-8.49818e-05 4.31178e-05 0)
(-0.000107934 5.64954e-05 0)
(-0.000163787 8.20113e-05 0)
(-0.000109668 -8.07845e-05 0)
(-7.47875e-06 -5.33224e-06 0)
(7.47875e-06 -5.33224e-06 0)
(0.000109668 -8.07845e-05 0)
(0.000163787 8.20113e-05 0)
(0.000107934 5.64954e-05 0)
(8.49818e-05 4.31178e-05 0)
(7.24412e-05 3.4742e-05 0)
(6.40656e-05 2.87813e-05 0)
(5.77542e-05 2.42529e-05 0)
(5.03569e-05 1.84875e-05 0)
(4.23495e-05 1.3473e-05 0)
(3.63247e-05 1.01786e-05 0)
(3.16065e-05 7.932e-06 0)
(2.78122e-05 6.34742e-06 0)
(2.46964e-05 5.19565e-06 0)
(2.20921e-05 4.33603e-06 0)
(1.98813e-05 3.67953e-06 0)
(1.79788e-05 3.16808e-06 0)
(1.63213e-05 2.76274e-06 0)
(1.48615e-05 2.43667e-06 0)
(1.35629e-05 2.17099e-06 0)
(1.23973e-05 1.9521e-06 0)
(1.13423e-05 1.77001e-06 0)
(1.03802e-05 1.61729e-06 0)
(9.4964e-06 1.48829e-06 0)
(8.67928e-06 1.3787e-06 0)
(7.91905e-06 1.28515e-06 0)
(7.20758e-06 1.205e-06 0)
(6.53802e-06 1.13616e-06 0)
(5.90454e-06 1.07696e-06 0)
(5.30214e-06 1.02606e-06 0)
(4.72646e-06 9.82379e-07 0)
(4.17371e-06 9.45032e-07 0)
(3.64052e-06 9.13307e-07 0)
(3.12388e-06 8.86626e-07 0)
(2.62108e-06 8.6452e-07 0)
(2.12964e-06 8.46617e-07 0)
(1.64725e-06 8.32622e-07 0)
(1.17177e-06 8.22313e-07 0)
(7.01137e-07 8.15527e-07 0)
(2.33394e-07 8.1216e-07 0)
(-2.32706e-07 9.85093e-07 0)
(-6.99064e-07 9.89166e-07 0)
(-1.16828e-06 9.97374e-07 0)
(-1.64229e-06 1.00984e-06 0)
(-2.12313e-06 1.02677e-06 0)
(-2.61292e-06 1.04842e-06 0)
(-3.11392e-06 1.07515e-06 0)
(-3.6286e-06 1.10741e-06 0)
(-4.15961e-06 1.14576e-06 0)
(-4.70992e-06 1.1909e-06 0)
(-5.28284e-06 1.24368e-06 0)
(-5.88208e-06 1.30516e-06 0)
(-6.5119e-06 1.37664e-06 0)
(-7.17719e-06 1.45973e-06 0)
(-7.88362e-06 1.55643e-06 0)
(-8.63786e-06 1.66925e-06 0)
(-9.44777e-06 1.80132e-06 0)
(-1.03227e-05 1.95667e-06 0)
(-1.12741e-05 2.14044e-06 0)
(-1.23156e-05 2.35933e-06 0)
(-1.34643e-05 2.62217e-06 0)
(-1.47411e-05 2.94072e-06 0)
(-1.61726e-05 3.33102e-06 0)
(-1.77926e-05 3.81522e-06 0)
(-1.96444e-05 4.42459e-06 0)
(-2.1785e-05 5.20432e-06 0)
(-2.42897e-05 6.22132e-06 0)
(-2.726e-05 7.57745e-06 0)
(-3.0835e-05 9.43259e-06 0)
(-3.52109e-05 1.20465e-05 0)
(-4.06779e-05 1.58595e-05 0)
(-4.77148e-05 2.16665e-05 0)
(-5.39872e-05 2.84691e-05 0)
(-5.90011e-05 3.397e-05 0)
(-6.50723e-05 4.15255e-05 0)
(-7.24407e-05 5.27561e-05 0)
(-7.99817e-05 7.172e-05 0)
(-6.60762e-05 0.000104419 0)
(-2.53824e-05 -2.27814e-05 0)
(-1.05481e-06 -7.48709e-07 0)
(1.05481e-06 -7.48709e-07 0)
(2.53824e-05 -2.27814e-05 0)
(6.60762e-05 0.000104419 0)
(7.99817e-05 7.172e-05 0)
(7.24407e-05 5.27561e-05 0)
(6.50723e-05 4.15255e-05 0)
(5.90011e-05 3.397e-05 0)
(5.39872e-05 2.84691e-05 0)
(4.77148e-05 2.16665e-05 0)
(4.06779e-05 1.58595e-05 0)
(3.52109e-05 1.20465e-05 0)
(3.0835e-05 9.43259e-06 0)
(2.726e-05 7.57745e-06 0)
(2.42897e-05 6.22132e-06 0)
(2.1785e-05 5.20432e-06 0)
(1.96444e-05 4.42459e-06 0)
(1.77926e-05 3.81522e-06 0)
(1.61726e-05 3.33102e-06 0)
(1.47411e-05 2.94072e-06 0)
(1.34643e-05 2.62217e-06 0)
(1.23156e-05 2.35933e-06 0)
(1.12741e-05 2.14044e-06 0)
(1.03227e-05 1.95667e-06 0)
(9.44777e-06 1.80132e-06 0)
(8.63786e-06 1.66925e-06 0)
(7.88362e-06 1.55643e-06 0)
(7.17719e-06 1.45973e-06 0)
(6.5119e-06 1.37664e-06 0)
(5.88208e-06 1.30516e-06 0)
(5.28284e-06 1.24368e-06 0)
(4.70992e-06 1.1909e-06 0)
(4.15961e-06 1.14576e-06 0)
(3.6286e-06 1.10741e-06 0)
(3.11392e-06 1.07515e-06 0)
(2.61292e-06 1.04842e-06 0)
(2.12313e-06 1.02677e-06 0)
(1.64229e-06 1.00984e-06 0)
(1.16828e-06 9.97374e-07 0)
(6.99064e-07 9.89166e-07 0)
(2.32706e-07 9.85093e-07 0)
(-2.31802e-07 1.17412e-06 0)
(-6.9634e-07 1.17896e-06 0)
(-1.16369e-06 1.1887e-06 0)
(-1.63577e-06 1.20351e-06 0)
(-2.11457e-06 1.22361e-06 0)
(-2.60219e-06 1.24932e-06 0)
(-3.10084e-06 1.28105e-06 0)
(-3.61294e-06 1.31933e-06 0)
(-4.1411e-06 1.36484e-06 0)
(-4.68821e-06 1.41838e-06 0)
(-5.25751e-06 1.48097e-06 0)
(-5.85261e-06 1.55385e-06 0)
(-6.47764e-06 1.63855e-06 0)
(-7.13735e-06 1.73695e-06 0)
(-7.83721e-06 1.85141e-06 0)
(-8.58363e-06 1.98485e-06 0)
(-9.38414e-06 2.14094e-06 0)
(-1.02477e-05 2.32437e-06 0)
(-1.1185e-05 2.54113e-06 0)
(-1.22092e-05 2.79898e-06 0)
(-1.33359e-05 3.10812e-06 0)
(-1.45847e-05 3.48211e-06 0)
(-1.59798e-05 3.93933e-06 0)
(-1.75517e-05 4.505e-06 0)
(-1.93389e-05 5.21457e-06 0)
(-2.13906e-05 6.1188e-06 0)
(-2.377e-05 7.29217e-06 0)
(-2.65587e-05 8.84696e-06 0)
(-2.98624e-05 1.09574e-05 0)
(-3.3817e-05 1.3904e-05 0)
(-3.85963e-05 1.8159e-05 0)
(-4.44161e-05 2.45764e-05 0)
(-4.92486e-05 3.20295e-05 0)
(-5.26005e-05 3.79997e-05 0)
(-5.59525e-05 4.60095e-05 0)
(-5.85474e-05 5.71935e-05 0)
(-5.80166e-05 7.33605e-05 0)
(-3.52512e-05 8.29789e-05 0)
(-8.02229e-06 4.2184e-06 0)
(-1.0331e-06 1.44991e-06 0)
(1.0331e-06 1.44991e-06 0)
(8.02229e-06 4.2184e-06 0)
(3.52512e-05 8.29789e-05 0)
(5.80166e-05 7.33605e-05 0)
(5.85474e-05 5.71935e-05 0)
(5.59525e-05 4.60095e-05 0)
(5.26005e-05 3.79997e-05 0)
(4.92486e-05 3.20295e-05 0)
(4.44161e-05 2.45764e-05 0)
(3.85963e-05 1.8159e-05 0)
(3.3817e-05 1.3904e-05 0)
(2.98624e-05 1.09574e-05 0)
(2.65587e-05 8.84696e-06 0)
(2.377e-05 7.29217e-06 0)
(2.13906e-05 6.1188e-06 0)
(1.93389e-05 5.21457e-06 0)
(1.75517e-05 4.505e-06 0)
(1.59798e-05 3.93933e-06 0)
(1.45847e-05 3.48211e-06 0)
(1.33359e-05 3.10812e-06 0)
(1.22092e-05 2.79898e-06 0)
(1.1185e-05 2.54113e-06 0)
(1.02477e-05 2.32437e-06 0)
(9.38414e-06 2.14094e-06 0)
(8.58363e-06 1.98485e-06 0)
(7.83721e-06 1.85141e-06 0)
(7.13735e-06 1.73695e-06 0)
(6.47764e-06 1.63855e-06 0)
(5.85261e-06 1.55385e-06 0)
(5.25751e-06 1.48097e-06 0)
(4.68821e-06 1.41838e-06 0)
(4.1411e-06 1.36484e-06 0)
(3.61294e-06 1.31933e-06 0)
(3.10084e-06 1.28105e-06 0)
(2.60219e-06 1.24932e-06 0)
(2.11457e-06 1.22361e-06 0)
(1.63577e-06 1.20351e-06 0)
(1.16369e-06 1.1887e-06 0)
(6.9634e-07 1.17896e-06 0)
(2.31802e-07 1.17412e-06 0)
(-2.30634e-07 1.38051e-06 0)
(-6.92818e-07 1.38618e-06 0)
(-1.15776e-06 1.39759e-06 0)
(-1.62734e-06 1.41491e-06 0)
(-2.10351e-06 1.43843e-06 0)
(-2.58832e-06 1.4685e-06 0)
(-3.08394e-06 1.50562e-06 0)
(-3.59271e-06 1.55039e-06 0)
(-4.11719e-06 1.60358e-06 0)
(-4.66019e-06 1.66615e-06 0)
(-5.22482e-06 1.73926e-06 0)
(-5.81459e-06 1.82435e-06 0)
(-6.43348e-06 1.92318e-06 0)
(-7.08603e-06 2.03793e-06 0)
(-7.77746e-06 2.1713e-06 0)
(-8.51387e-06 2.32665e-06 0)
(-9.30237e-06 2.50819e-06 0)
(-1.01514e-05 2.72127e-06 0)
(-1.10709e-05 2.97272e-06 0)
(-1.20729e-05 3.27134e-06 0)
(-1.31718e-05 3.62866e-06 0)
(-1.43852e-05 4.05994e-06 0)
(-1.57347e-05 4.5857e-06 0)
(-1.72467e-05 5.23396e-06 0)
(-1.89536e-05 6.04369e-06 0)
(-2.08958e-05 7.07018e-06 0)
(-2.31222e-05 8.39357e-06 0)
(-2.56918e-05 1.01329e-05 0)
(-2.86719e-05 1.24698e-05 0)
(-3.21313e-05 1.56909e-05 0)
(-3.61155e-05 2.02676e-05 0)
(-4.05632e-05 2.70228e-05 0)
(-4.38435e-05 3.46014e-05 0)
(-4.558e-05 4.04634e-05 0)
(-4.66781e-05 4.79107e-05 0)
(-4.6316e-05 5.73977e-05 0)
(-4.29957e-05 6.91592e-05 0)
(-2.44192e-05 6.29814e-05 0)
(-5.38327e-06 2.71162e-06 0)
(-1.14307e-06 1.83962e-06 0)
(1.14307e-06 1.83962e-06 0)
(5.38327e-06 2.71162e-06 0)
(2.44192e-05 6.29814e-05 0)
(4.29957e-05 6.91592e-05 0)
(4.6316e-05 5.73977e-05 0)
(4.66781e-05 4.79107e-05 0)
(4.558e-05 4.04634e-05 0)
(4.38435e-05 3.46014e-05 0)
(4.05632e-05 2.70228e-05 0)
(3.61155e-05 2.02676e-05 0)
(3.21313e-05 1.56909e-05 0)
(2.86719e-05 1.24698e-05 0)
(2.56918e-05 1.01329e-05 0)
(2.31222e-05 8.39357e-06 0)
(2.08958e-05 7.07018e-06 0)
(1.89536e-05 6.04369e-06 0)
(1.72467e-05 5.23396e-06 0)
(1.57347e-05 4.5857e-06 0)
(1.43852e-05 4.05994e-06 0)
(1.31718e-05 3.62866e-06 0)
(1.20729e-05 3.27134e-06 0)
(1.10709e-05 2.97272e-06 0)
(1.01514e-05 2.72127e-06 0)
(9.30237e-06 2.50819e-06 0)
(8.51387e-06 2.32665e-06 0)
(7.77746e-06 2.1713e-06 0)
(7.08603e-06 2.03793e-06 0)
(6.43348e-06 1.92318e-06 0)
(5.81459e-06 1.82435e-06 0)
(5.22482e-06 1.73926e-06 0)
(4.66019e-06 1.66615e-06 0)
(4.11719e-06 1.60358e-06 0)
(3.59271e-06 1.55039e-06 0)
(3.08394e-06 1.50562e-06 0)
(2.58832e-06 1.4685e-06 0)
(2.10351e-06 1.43843e-06 0)
(1.62734e-06 1.41491e-06 0)
(1.15776e-06 1.39759e-06 0)
(6.92818e-07 1.38618e-06 0)
(2.30634e-07 1.38051e-06 0)
(-2.29144e-07 1.60559e-06 0)
(-6.88323e-07 1.61213e-06 0)
(-1.15019e-06 1.62532e-06 0)
(-1.61659e-06 1.64536e-06 0)
(-2.0894e-06 1.67254e-06 0)
(-2.57063e-06 1.70729e-06 0)
(-3.06239e-06 1.75016e-06 0)
(-3.56693e-06 1.80187e-06 0)
(-4.08674e-06 1.86328e-06 0)
(-4.6245e-06 1.93547e-06 0)
(-5.18322e-06 2.01979e-06 0)
(-5.76624e-06 2.11786e-06 0)
(-6.37735e-06 2.23169e-06 0)
(-7.02084e-06 2.36375e-06 0)
(-7.70164e-06 2.51709e-06 0)
(-8.42544e-06 2.69549e-06 0)
(-9.19885e-06 2.90371e-06 0)
(-1.00296e-05 3.14774e-06 0)
(-1.09268e-05 3.43519e-06 0)
(-1.19012e-05 3.77588e-06 0)
(-1.29656e-05 4.18252e-06 0)
(-1.41354e-05 4.67191e-06 0)
(-1.54288e-05 5.26639e-06 0)
(-1.68674e-05 5.99624e-06 0)
(-1.84772e-05 6.9031e-06 0)
(-2.0288e-05 8.04524e-06 0)
(-2.23332e-05 9.50578e-06 0)
(-2.4647e-05 1.14057e-05 0)
(-2.72565e-05 1.39252e-05 0)
(-3.01624e-05 1.73394e-05 0)
(-3.32885e-05 2.20809e-05 0)
(-3.63443e-05 2.88517e-05 0)
(-3.81769e-05 3.6045e-05 0)
(-3.86188e-05 4.13538e-05 0)
(-3.81958e-05 4.76866e-05 0)
(-3.63244e-05 5.50847e-05 0)
(-3.22392e-05 6.32755e-05 0)
(-1.75846e-05 4.80795e-05 0)
(-3.83481e-06 1.62258e-06 0)
(-1.01954e-06 1.50931e-06 0)
(1.01954e-06 1.50931e-06 0)
(3.83481e-06 1.62258e-06 0)
(1.75846e-05 4.80795e-05 0)
(3.22392e-05 6.32755e-05 0)
(3.63244e-05 5.50847e-05 0)
(3.81958e-05 4.76866e-05 0)
(3.86188e-05 4.13538e-05 0)
(3.81769e-05 3.6045e-05 0)
(3.63443e-05 2.88517e-05 0)
(3.32885e-05 2.20809e-05 0)
(3.01624e-05 1.73394e-05 0)
(2.72565e-05 1.39252e-05 0)
(2.4647e-05 1.14057e-05 0)
(2.23332e-05 9.50578e-06 0)
(2.0288e-05 8.04524e-06 0)
(1.84772e-05 6.9031e-06 0)
(1.68674e-05 5.99624e-06 0)
(1.54288e-05 5.26639e-06 0)
(1.41354e-05 4.67191e-06 0)
(1.29656e-05 4.18252e-06 0)
(1.19012e-05 3.77588e-06 0)
(1.09268e-05 3.43519e-06 0)
(1.00296e-05 3.14774e-06 0)
(9.19885e-06 2.90371e-06 0)
(8.42544e-06 2.69549e-06 0)
(7.70164e-06 2.51709e-06 0)
(7.02084e-06 2.36375e-06 0)
(6.37735e-06 2.23169e-06 0)
(5.76624e-06 2.11786e-06 0)
(5.18322e-06 2.01979e-06 0)
(4.6245e-06 1.93547e-06 0)
(4.08674e-06 1.86328e-06 0)
(3.56693e-06 1.80187e-06 0)
(3.06239e-06 1.75016e-06 0)
(2.57063e-06 1.70729e-06 0)
(2.0894e-06 1.67254e-06 0)
(1.61659e-06 1.64536e-06 0)
(1.15019e-06 1.62532e-06 0)
(6.88323e-07 1.61213e-06 0)
(2.29144e-07 1.60559e-06 0)
(-2.27263e-07 1.85063e-06 0)
(-6.82654e-07 1.85812e-06 0)
(-1.14065e-06 1.87321e-06 0)
(-1.60303e-06 1.89612e-06 0)
(-2.07162e-06 1.9272e-06 0)
(-2.54834e-06 1.96693e-06 0)
(-3.03523e-06 2.01593e-06 0)
(-3.53447e-06 2.075e-06 0)
(-4.04839e-06 2.14512e-06 0)
(-4.57959e-06 2.22751e-06 0)
(-5.1309e-06 2.32366e-06 0)
(-5.70548e-06 2.43542e-06 0)
(-6.30687e-06 2.56501e-06 0)
(-6.93908e-06 2.71521e-06 0)
(-7.60666e-06 2.88939e-06 0)
(-8.31481e-06 3.09176e-06 0)
(-9.06953e-06 3.32759e-06 0)
(-9.87775e-06 3.60344e-06 0)
(-1.07475e-05 3.92767e-06 0)
(-1.16882e-05 4.31095e-06 0)
(-1.27106e-05 4.76706e-06 0)
(-1.38274e-05 5.31396e-06 0)
(-1.50532e-05 5.97543e-06 0)
(-1.64045e-05 6.78325e-06 0)
(-1.78994e-05 7.78052e-06 0)
(-1.9557e-05 9.02654e-06 0)
(-2.1394e-05 1.06041e-05 0)
(-2.34197e-05 1.26305e-05 0)
(-2.56225e-05 1.52745e-05 0)
(-2.79423e-05 1.87817e-05 0)
(-3.0207e-05 2.35121e-05 0)
(-3.19872e-05 2.99858e-05 0)
(-3.26293e-05 3.64168e-05 0)
(-3.2188e-05 4.09335e-05 0)
(-3.09089e-05 4.60025e-05 0)
(-2.84479e-05 5.15013e-05 0)
(-2.4451e-05 5.70987e-05 0)
(-1.29922e-05 3.67897e-05 0)
(-2.81151e-06 9.81815e-07 0)
(-8.32526e-07 1.0688e-06 0)
(8.32526e-07 1.0688e-06 0)
(2.81151e-06 9.81815e-07 0)
(1.29922e-05 3.67897e-05 0)
(2.4451e-05 5.70987e-05 0)
(2.84479e-05 5.15013e-05 0)
(3.09089e-05 4.60025e-05 0)
(3.2188e-05 4.09335e-05 0)
(3.26293e-05 3.64168e-05 0)
(3.19872e-05 2.99858e-05 0)
(3.0207e-05 2.35121e-05 0)
(2.79423e-05 1.87817e-05 0)
(2.56225e-05 1.52745e-05 0)
(2.34197e-05 1.26305e-05 0)
(2.1394e-05 1.06041e-05 0)
(1.9557e-05 9.02654e-06 0)
(1.78994e-05 7.78052e-06 0)
(1.64045e-05 6.78325e-06 0)
(1.50532e-05 5.97543e-06 0)
(1.38274e-05 5.31396e-06 0)
(1.27106e-05 4.76706e-06 0)
(1.16882e-05 4.31095e-06 0)
(1.07475e-05 3.92767e-06 0)
(9.87775e-06 3.60344e-06 0)
(9.06953e-06 3.32759e-06 0)
(8.31481e-06 3.09176e-06 0)
(7.60666e-06 2.88939e-06 0)
(6.93908e-06 2.71521e-06 0)
(6.30687e-06 2.56501e-06 0)
(5.70548e-06 2.43542e-06 0)
(5.1309e-06 2.32366e-06 0)
(4.57959e-06 2.22751e-06 0)
(4.04839e-06 2.14512e-06 0)
(3.53447e-06 2.075e-06 0)
(3.03523e-06 2.01593e-06 0)
(2.54834e-06 1.96693e-06 0)
(2.07162e-06 1.9272e-06 0)
(1.60303e-06 1.89612e-06 0)
(1.14065e-06 1.87321e-06 0)
(6.82654e-07 1.85812e-06 0)
(2.27263e-07 1.85063e-06 0)
(-2.24915e-07 2.1169e-06 0)
(-6.75575e-07 2.12539e-06 0)
(-1.12873e-06 2.14248e-06 0)
(-1.5861e-06 2.16844e-06 0)
(-2.04942e-06 2.20364e-06 0)
(-2.52053e-06 2.24862e-06 0)
(-3.00137e-06 2.30407e-06 0)
(-3.49399e-06 2.37088e-06 0)
(-4.00062e-06 2.45015e-06 0)
(-4.52368e-06 2.54322e-06 0)
(-5.06582e-06 2.65175e-06 0)
(-5.62997e-06 2.77776e-06 0)
(-6.21938e-06 2.92373e-06 0)
(-6.8377e-06 3.09268e-06 0)
(-7.48905e-06 3.28832e-06 0)
(-8.17806e-06 3.51524e-06 0)
(-8.90999e-06 3.77913e-06 0)
(-9.69085e-06 4.08711e-06 0)
(-1.05274e-05 4.44813e-06 0)
(-1.14274e-05 4.87354e-06 0)
(-1.23996e-05 5.37789e-06 0)
(-1.34535e-05 5.97998e-06 0)
(-1.45997e-05 6.70435e-06 0)
(-1.58491e-05 7.58334e-06 0)
(-1.72119e-05 8.66006e-06 0)
(-1.86957e-05 9.99254e-06 0)
(-2.03014e-05 1.16596e-05 0)
(-2.20149e-05 1.37689e-05 0)
(-2.37916e-05 1.64685e-05 0)
(-2.55254e-05 1.99594e-05 0)
(-2.69876e-05 2.45078e-05 0)
(-2.77085e-05 3.04344e-05 0)
(-2.74836e-05 3.59074e-05 0)
(-2.6538e-05 3.95741e-05 0)
(-2.48963e-05 4.34689e-05 0)
(-2.23816e-05 4.74377e-05 0)
(-1.88499e-05 5.12139e-05 0)
(-9.86588e-06 2.82863e-05 0)
(-2.12291e-06 6.13479e-07 0)
(-6.64743e-07 7.14699e-07 0)
(6.64743e-07 7.14699e-07 0)
(2.12291e-06 6.13479e-07 0)
(9.86588e-06 2.82863e-05 0)
(1.88499e-05 5.12139e-05 0)
(2.23816e-05 4.74377e-05 0)
(2.48963e-05 4.34689e-05 0)
(2.6538e-05 3.95741e-05 0)
(2.74836e-05 3.59074e-05 0)
(2.77085e-05 3.04344e-05 0)
(2.69876e-05 2.45078e-05 0)
(2.55254e-05 1.99594e-05 0)
(2.37916e-05 1.64685e-05 0)
(2.20149e-05 1.37689e-05 0)
(2.03014e-05 1.16596e-05 0)
(1.86957e-05 9.99254e-06 0)
(1.72119e-05 8.66006e-06 0)
(1.58491e-05 7.58334e-06 0)
(1.45997e-05 6.70435e-06 0)
(1.34535e-05 5.97998e-06 0)
(1.23996e-05 5.37789e-06 0)
(1.14274e-05 4.87354e-06 0)
(1.05274e-05 4.44813e-06 0)
(9.69085e-06 4.08711e-06 0)
(8.90999e-06 3.77913e-06 0)
(8.17806e-06 3.51524e-06 0)
(7.48905e-06 3.28832e-06 0)
(6.8377e-06 3.09268e-06 0)
(6.21938e-06 2.92373e-06 0)
(5.62997e-06 2.77776e-06 0)
(5.06582e-06 2.65175e-06 0)
(4.52368e-06 2.54322e-06 0)
(4.00062e-06 2.45015e-06 0)
(3.49399e-06 2.37088e-06 0)
(3.00137e-06 2.30407e-06 0)
(2.52053e-06 2.24862e-06 0)
(2.04942e-06 2.20364e-06 0)