/*--------------------------------*- C++ -*----------------------------------*\
  =========                 |
  \\      /  F ield         | OpenFOAM: The Open Source CFD Toolbox
   \\    /   O peration     | Website:  https://openfoam.org
    \\  /    A nd           | Version:  10
     \\/     M anipulation  |
\*---------------------------------------------------------------------------*/
FoamFile
{
    format      ascii;
    class       volVectorField;
    location    "7800";
    object      Ub;
}
// * * * * * * * * * * * * * * * * * * * * * * * * * * * * * * * * * * * * * //

dimensions      [0 1 -1 0 0 0 0];

internalField   nonuniform List<vector> 
6400
(
(-4.18322e-21 -9.87899e-16 0)
(-1.25671e-20 -9.87899e-16 0)
(-2.10036e-20 -9.87899e-16 0)
(-2.95286e-20 -9.87899e-16 0)
(-3.81796e-20 -9.87899e-16 0)
(-4.69958e-20 -9.87899e-16 0)
(-5.60195e-20 -9.87899e-16 0)
(-6.52961e-20 -9.87899e-16 0)
(-7.48757e-20 -9.87899e-16 0)
(-8.48137e-20 -9.87899e-16 0)
(-9.51724e-20 -9.87898e-16 0)
(-1.06022e-19 -9.87898e-16 0)
(-1.17445e-19 -9.87898e-16 0)
(-1.29533e-19 -9.87898e-16 0)
(-1.42397e-19 -9.87898e-16 0)
(-1.56166e-19 -9.87898e-16 0)
(-1.70996e-19 -9.87898e-16 0)
(-1.87072e-19 -9.87898e-16 0)
(-2.04623e-19 -9.87898e-16 0)
(-2.2393e-19 -9.87898e-16 0)
(-2.45344e-19 -9.87897e-16 0)
(-2.69313e-19 -9.87897e-16 0)
(-2.96412e-19 -9.87897e-16 0)
(-3.27396e-19 -9.87896e-16 0)
(-3.63273e-19 -9.87896e-16 0)
(-4.05424e-19 -9.87895e-16 0)
(-4.55781e-19 -9.87894e-16 0)
(-5.17127e-19 -9.87893e-16 0)
(-5.93583e-19 -9.87891e-16 0)
(-6.91413e-19 -9.87888e-16 0)
(-8.20249e-19 -9.87885e-16 0)
(-9.94304e-19 -9.87879e-16 0)
(-1.1503e-18 -9.87874e-16 0)
(-1.26681e-18 -9.87872e-16 0)
(-1.38905e-18 -9.87872e-16 0)
(-1.49876e-18 -9.87877e-16 0)
(-1.55293e-18 -9.87897e-16 0)
(-1.46736e-18 -9.87941e-16 0)
(-1.11878e-18 -9.88017e-16 0)
(-4.30782e-19 -9.88097e-16 0)
(4.30782e-19 -9.88097e-16 0)
(1.11878e-18 -9.88017e-16 0)
(1.46736e-18 -9.87941e-16 0)
(1.55293e-18 -9.87897e-16 0)
(1.49876e-18 -9.87877e-16 0)
(1.38905e-18 -9.87872e-16 0)
(1.26681e-18 -9.87872e-16 0)
(1.1503e-18 -9.87874e-16 0)
(9.94304e-19 -9.87879e-16 0)
(8.20249e-19 -9.87885e-16 0)
(6.91413e-19 -9.87888e-16 0)
(5.93583e-19 -9.87891e-16 0)
(5.17127e-19 -9.87893e-16 0)
(4.55781e-19 -9.87894e-16 0)
(4.05424e-19 -9.87895e-16 0)
(3.63273e-19 -9.87896e-16 0)
(3.27396e-19 -9.87896e-16 0)
(2.96412e-19 -9.87897e-16 0)
(2.69313e-19 -9.87897e-16 0)
(2.45344e-19 -9.87897e-16 0)
(2.2393e-19 -9.87898e-16 0)
(2.04623e-19 -9.87898e-16 0)
(1.87072e-19 -9.87898e-16 0)
(1.70996e-19 -9.87898e-16 0)
(1.56166e-19 -9.87898e-16 0)
(1.42397e-19 -9.87898e-16 0)
(1.29533e-19 -9.87898e-16 0)
(1.17445e-19 -9.87898e-16 0)
(1.06022e-19 -9.87898e-16 0)
(9.51724e-20 -9.87898e-16 0)
(8.48137e-20 -9.87899e-16 0)
(7.48757e-20 -9.87899e-16 0)
(6.52961e-20 -9.87899e-16 0)
(5.60195e-20 -9.87899e-16 0)
(4.69958e-20 -9.87899e-16 0)
(3.81796e-20 -9.87899e-16 0)
(2.95286e-20 -9.87899e-16 0)
(2.10036e-20 -9.87899e-16 0)
(1.25671e-20 -9.87899e-16 0)
(4.18322e-21 -9.87899e-16 0)
(-4.18245e-21 -9.87896e-16 0)
(-1.25648e-20 -9.87896e-16 0)
(-2.09997e-20 -9.87896e-16 0)
(-2.95231e-20 -9.87896e-16 0)
(-3.81723e-20 -9.87896e-16 0)
(-4.69868e-20 -9.87896e-16 0)
(-5.60084e-20 -9.87896e-16 0)
(-6.52829e-20 -9.87896e-16 0)
(-7.486e-20 -9.87895e-16 0)
(-8.47953e-20 -9.87895e-16 0)
(-9.51509e-20 -9.87895e-16 0)
(-1.05997e-19 -9.87895e-16 0)
(-1.17416e-19 -9.87895e-16 0)
(-1.29499e-19 -9.87895e-16 0)
(-1.42357e-19 -9.87894e-16 0)
(-1.5612e-19 -9.87894e-16 0)
(-1.70941e-19 -9.87894e-16 0)
(-1.87008e-19 -9.87893e-16 0)
(-2.04546e-19 -9.87893e-16 0)
(-2.23838e-19 -9.87892e-16 0)
(-2.45233e-19 -9.87891e-16 0)
(-2.69177e-19 -9.87891e-16 0)
(-2.96243e-19 -9.87889e-16 0)
(-3.27183e-19 -9.87888e-16 0)
(-3.63001e-19 -9.87886e-16 0)
(-4.05068e-19 -9.87884e-16 0)
(-4.55304e-19 -9.87881e-16 0)
(-5.16472e-19 -9.87877e-16 0)
(-5.92656e-19 -9.87872e-16 0)
(-6.90068e-19 -9.87864e-16 0)
(-8.18289e-19 -9.87852e-16 0)
(-9.91665e-19 -9.87835e-16 0)
(-1.14765e-18 -9.8782e-16 0)
(-1.26555e-18 -9.87812e-16 0)
(-1.3918e-18 -9.8781e-16 0)
(-1.51094e-18 -9.87827e-16 0)
(-1.58358e-18 -9.87884e-16 0)
(-1.52503e-18 -9.8802e-16 0)
(-1.19322e-18 -9.88262e-16 0)
(-4.68843e-19 -9.88528e-16 0)
(4.68843e-19 -9.88528e-16 0)
(1.19322e-18 -9.88262e-16 0)
(1.52503e-18 -9.8802e-16 0)
(1.58358e-18 -9.87884e-16 0)
(1.51094e-18 -9.87827e-16 0)
(1.3918e-18 -9.8781e-16 0)
(1.26555e-18 -9.87812e-16 0)
(1.14765e-18 -9.8782e-16 0)
(9.91665e-19 -9.87835e-16 0)
(8.18289e-19 -9.87852e-16 0)
(6.90068e-19 -9.87864e-16 0)
(5.92656e-19 -9.87872e-16 0)
(5.16472e-19 -9.87877e-16 0)
(4.55304e-19 -9.87881e-16 0)
(4.05068e-19 -9.87884e-16 0)
(3.63001e-19 -9.87886e-16 0)
(3.27183e-19 -9.87888e-16 0)
(2.96243e-19 -9.87889e-16 0)
(2.69177e-19 -9.87891e-16 0)
(2.45233e-19 -9.87891e-16 0)
(2.23838e-19 -9.87892e-16 0)
(2.04546e-19 -9.87893e-16 0)
(1.87008e-19 -9.87893e-16 0)
(1.70941e-19 -9.87894e-16 0)
(1.5612e-19 -9.87894e-16 0)
(1.42357e-19 -9.87894e-16 0)
(1.29499e-19 -9.87895e-16 0)
(1.17416e-19 -9.87895e-16 0)
(1.05997e-19 -9.87895e-16 0)
(9.51509e-20 -9.87895e-16 0)
(8.47953e-20 -9.87895e-16 0)
(7.486e-20 -9.87895e-16 0)
(6.52829e-20 -9.87896e-16 0)
(5.60084e-20 -9.87896e-16 0)
(4.69868e-20 -9.87896e-16 0)
(3.81723e-20 -9.87896e-16 0)
(2.95231e-20 -9.87896e-16 0)
(2.09997e-20 -9.87896e-16 0)
(1.25648e-20 -9.87896e-16 0)
(4.18245e-21 -9.87896e-16 0)
(-4.18072e-21 -9.87894e-16 0)
(-1.25596e-20 -9.87894e-16 0)
(-2.09909e-20 -9.87894e-16 0)
(-2.95105e-20 -9.87894e-16 0)
(-3.81559e-20 -9.87894e-16 0)
(-4.69661e-20 -9.87894e-16 0)
(-5.59832e-20 -9.87893e-16 0)
(-6.52527e-20 -9.87893e-16 0)
(-7.48243e-20 -9.87893e-16 0)
(-8.47534e-20 -9.87893e-16 0)
(-9.5102e-20 -9.87893e-16 0)
(-1.0594e-19 -9.87892e-16 0)
(-1.17349e-19 -9.87892e-16 0)
(-1.29422e-19 -9.87892e-16 0)
(-1.42267e-19 -9.87891e-16 0)
(-1.56015e-19 -9.87891e-16 0)
(-1.70817e-19 -9.8789e-16 0)
(-1.86861e-19 -9.87889e-16 0)
(-2.04372e-19 -9.87888e-16 0)
(-2.23628e-19 -9.87887e-16 0)
(-2.44979e-19 -9.87886e-16 0)
(-2.68866e-19 -9.87885e-16 0)
(-2.95857e-19 -9.87883e-16 0)
(-3.26697e-19 -9.8788e-16 0)
(-3.62377e-19 -9.87877e-16 0)
(-4.04252e-19 -9.87874e-16 0)
(-4.54213e-19 -9.87868e-16 0)
(-5.14971e-19 -9.87862e-16 0)
(-5.90534e-19 -9.87852e-16 0)
(-6.86989e-19 -9.87838e-16 0)
(-8.13787e-19 -9.87818e-16 0)
(-9.85526e-19 -9.87789e-16 0)
(-1.14127e-18 -9.87761e-16 0)
(-1.26197e-18 -9.87745e-16 0)
(-1.39669e-18 -9.87739e-16 0)
(-1.53656e-18 -9.87761e-16 0)
(-1.6518e-18 -9.8785e-16 0)
(-1.66038e-18 -9.88079e-16 0)
(-1.37843e-18 -9.88525e-16 0)
(-5.66868e-19 -9.89079e-16 0)
(5.66868e-19 -9.89079e-16 0)
(1.37843e-18 -9.88525e-16 0)
(1.66038e-18 -9.88079e-16 0)
(1.6518e-18 -9.8785e-16 0)
(1.53656e-18 -9.87761e-16 0)
(1.39669e-18 -9.87739e-16 0)
(1.26197e-18 -9.87745e-16 0)
(1.14127e-18 -9.87761e-16 0)
(9.85526e-19 -9.87789e-16 0)
(8.13787e-19 -9.87818e-16 0)
(6.86989e-19 -9.87838e-16 0)
(5.90534e-19 -9.87852e-16 0)
(5.14971e-19 -9.87862e-16 0)
(4.54213e-19 -9.87868e-16 0)
(4.04252e-19 -9.87874e-16 0)
(3.62377e-19 -9.87877e-16 0)
(3.26697e-19 -9.8788e-16 0)
(2.95857e-19 -9.87883e-16 0)
(2.68866e-19 -9.87885e-16 0)
(2.44979e-19 -9.87886e-16 0)
(2.23628e-19 -9.87887e-16 0)
(2.04372e-19 -9.87888e-16 0)
(1.86861e-19 -9.87889e-16 0)
(1.70817e-19 -9.8789e-16 0)
(1.56015e-19 -9.87891e-16 0)
(1.42267e-19 -9.87891e-16 0)
(1.29422e-19 -9.87892e-16 0)
(1.17349e-19 -9.87892e-16 0)
(1.0594e-19 -9.87892e-16 0)
(9.5102e-20 -9.87893e-16 0)
(8.47534e-20 -9.87893e-16 0)
(7.48243e-20 -9.87893e-16 0)
(6.52527e-20 -9.87893e-16 0)
(5.59832e-20 -9.87893e-16 0)
(4.69661e-20 -9.87894e-16 0)
(3.81559e-20 -9.87894e-16 0)
(2.95105e-20 -9.87894e-16 0)
(2.09909e-20 -9.87894e-16 0)
(1.25596e-20 -9.87894e-16 0)
(4.18072e-21 -9.87894e-16 0)
(-4.17772e-21 -9.87892e-16 0)
(-1.25505e-20 -9.87892e-16 0)
(-2.09756e-20 -9.87892e-16 0)
(-2.94889e-20 -9.87892e-16 0)
(-3.81275e-20 -9.87891e-16 0)
(-4.69305e-20 -9.87891e-16 0)
(-5.59398e-20 -9.87891e-16 0)
(-6.52007e-20 -9.87891e-16 0)
(-7.47628e-20 -9.87891e-16 0)
(-8.46812e-20 -9.8789e-16 0)
(-9.50176e-20 -9.8789e-16 0)
(-1.05842e-19 -9.8789e-16 0)
(-1.17235e-19 -9.87889e-16 0)
(-1.29289e-19 -9.87889e-16 0)
(-1.42112e-19 -9.87888e-16 0)
(-1.55833e-19 -9.87887e-16 0)
(-1.70603e-19 -9.87886e-16 0)
(-1.86608e-19 -9.87885e-16 0)
(-2.0407e-19 -9.87884e-16 0)
(-2.23267e-19 -9.87882e-16 0)
(-2.44541e-19 -9.8788e-16 0)
(-2.6833e-19 -9.87878e-16 0)
(-2.95192e-19 -9.87875e-16 0)
(-3.25859e-19 -9.87872e-16 0)
(-3.61305e-19 -9.87868e-16 0)
(-4.02851e-19 -9.87862e-16 0)
(-4.52338e-19 -9.87855e-16 0)
(-5.12397e-19 -9.87844e-16 0)
(-5.86897e-19 -9.87831e-16 0)
(-6.8171e-19 -9.87811e-16 0)
(-8.06032e-19 -9.87781e-16 0)
(-9.74706e-19 -9.87738e-16 0)
(-1.12939e-18 -9.87695e-16 0)
(-1.25358e-18 -9.87669e-16 0)
(-1.40043e-18 -9.87652e-16 0)
(-1.57248e-18 -9.87667e-16 0)
(-1.76049e-18 -9.87767e-16 0)
(-1.90105e-18 -9.88072e-16 0)
(-1.74967e-18 -9.88778e-16 0)
(-7.76645e-19 -9.03258e-11 0)
(7.76645e-19 -9.03258e-11 0)
(1.74967e-18 -9.88778e-16 0)
(1.90105e-18 -9.88072e-16 0)
(1.76049e-18 -9.87767e-16 0)
(1.57248e-18 -9.87667e-16 0)
(1.40043e-18 -9.87652e-16 0)
(1.25358e-18 -9.87669e-16 0)
(1.12939e-18 -9.87695e-16 0)
(9.74706e-19 -9.87738e-16 0)
(8.06032e-19 -9.87781e-16 0)
(6.8171e-19 -9.87811e-16 0)
(5.86897e-19 -9.87831e-16 0)
(5.12397e-19 -9.87844e-16 0)
(4.52338e-19 -9.87855e-16 0)
(4.02851e-19 -9.87862e-16 0)
(3.61305e-19 -9.87868e-16 0)
(3.25859e-19 -9.87872e-16 0)
(2.95192e-19 -9.87875e-16 0)
(2.6833e-19 -9.87878e-16 0)
(2.44541e-19 -9.8788e-16 0)
(2.23267e-19 -9.87882e-16 0)
(2.0407e-19 -9.87884e-16 0)
(1.86608e-19 -9.87885e-16 0)
(1.70603e-19 -9.87886e-16 0)
(1.55833e-19 -9.87887e-16 0)
(1.42112e-19 -9.87888e-16 0)
(1.29289e-19 -9.87889e-16 0)
(1.17235e-19 -9.87889e-16 0)
(1.05842e-19 -9.8789e-16 0)
(9.50176e-20 -9.8789e-16 0)
(8.46812e-20 -9.8789e-16 0)
(7.47628e-20 -9.87891e-16 0)
(6.52007e-20 -9.87891e-16 0)
(5.59398e-20 -9.87891e-16 0)
(4.69305e-20 -9.87891e-16 0)
(3.81275e-20 -9.87891e-16 0)
(2.94889e-20 -9.87892e-16 0)
(2.09756e-20 -9.87892e-16 0)
(1.25505e-20 -9.87892e-16 0)
(4.17772e-21 -9.87892e-16 0)
(-4.17312e-21 -9.87889e-16 0)
(-1.25367e-20 -9.87889e-16 0)
(-2.09523e-20 -9.87889e-16 0)
(-2.94557e-20 -9.87889e-16 0)
(-3.80839e-20 -9.87889e-16 0)
(-4.68758e-20 -9.87889e-16 0)
(-5.58731e-20 -9.87889e-16 0)
(-6.51209e-20 -9.87888e-16 0)
(-7.46684e-20 -9.87888e-16 0)
(-8.45704e-20 -9.87888e-16 0)
(-9.48883e-20 -9.87887e-16 0)
(-1.05691e-19 -9.87886e-16 0)
(-1.1706e-19 -9.87886e-16 0)
(-1.29085e-19 -9.87885e-16 0)
(-1.41874e-19 -9.87884e-16 0)
(-1.55554e-19 -9.87883e-16 0)
(-1.70276e-19 -9.87882e-16 0)
(-1.86221e-19 -9.8788e-16 0)
(-2.03609e-19 -9.87879e-16 0)
(-2.22714e-19 -9.87877e-16 0)
(-2.43871e-19 -9.87874e-16 0)
(-2.6751e-19 -9.87871e-16 0)
(-2.94175e-19 -9.87867e-16 0)
(-3.2458e-19 -9.87863e-16 0)
(-3.59668e-19 -9.87857e-16 0)
(-4.00714e-19 -9.87849e-16 0)
(-4.49485e-19 -9.87839e-16 0)
(-5.08485e-19 -9.87826e-16 0)
(-5.81376e-19 -9.87808e-16 0)
(-6.73694e-19 -9.87781e-16 0)
(-7.94181e-19 -9.87742e-16 0)
(-9.57641e-19 -9.87684e-16 0)
(-1.10925e-18 -9.87623e-16 0)
(-1.23574e-18 -9.87583e-16 0)
(-1.3949e-18 -9.87545e-16 0)
(-1.60578e-18 -9.87531e-16 0)
(-1.89782e-18 -9.87597e-16 0)
(-2.2765e-18 -9.87908e-16 0)
(-2.3562e-13 -1.77884e-15 0)
(-2.35619e-13 -3.5856e-05 0)
(2.35619e-13 -3.5856e-05 0)
(2.3562e-13 -1.77884e-15 0)
(2.2765e-18 -9.87908e-16 0)
(1.89782e-18 -9.87597e-16 0)
(1.60578e-18 -9.87531e-16 0)
(1.3949e-18 -9.87545e-16 0)
(1.23574e-18 -9.87583e-16 0)
(1.10925e-18 -9.87623e-16 0)
(9.57641e-19 -9.87684e-16 0)
(7.94181e-19 -9.87742e-16 0)
(6.73694e-19 -9.87781e-16 0)
(5.81376e-19 -9.87808e-16 0)
(5.08485e-19 -9.87826e-16 0)
(4.49485e-19 -9.87839e-16 0)
(4.00714e-19 -9.87849e-16 0)
(3.59668e-19 -9.87857e-16 0)
(3.2458e-19 -9.87863e-16 0)
(2.94175e-19 -9.87867e-16 0)
(2.6751e-19 -9.87871e-16 0)
(2.43871e-19 -9.87874e-16 0)
(2.22714e-19 -9.87877e-16 0)
(2.03609e-19 -9.87879e-16 0)
(1.86221e-19 -9.8788e-16 0)
(1.70276e-19 -9.87882e-16 0)
(1.55554e-19 -9.87883e-16 0)
(1.41874e-19 -9.87884e-16 0)
(1.29085e-19 -9.87885e-16 0)
(1.1706e-19 -9.87886e-16 0)
(1.05691e-19 -9.87886e-16 0)
(9.48883e-20 -9.87887e-16 0)
(8.45704e-20 -9.87888e-16 0)
(7.46684e-20 -9.87888e-16 0)
(6.51209e-20 -9.87888e-16 0)
(5.58731e-20 -9.87889e-16 0)
(4.68758e-20 -9.87889e-16 0)
(3.80839e-20 -9.87889e-16 0)
(2.94557e-20 -9.87889e-16 0)
(2.09523e-20 -9.87889e-16 0)
(1.25367e-20 -9.87889e-16 0)
(4.17312e-21 -9.87889e-16 0)
(-4.16652e-21 -9.87887e-16 0)
(-1.25167e-20 -9.87887e-16 0)
(-2.09188e-20 -9.87887e-16 0)
(-2.9408e-20 -9.87887e-16 0)
(-3.80213e-20 -9.87886e-16 0)
(-4.67973e-20 -9.87886e-16 0)
(-5.57773e-20 -9.87886e-16 0)
(-6.50062e-20 -9.87885e-16 0)
(-7.45327e-20 -9.87885e-16 0)
(-8.44112e-20 -9.87884e-16 0)
(-9.47024e-20 -9.87884e-16 0)
(-1.05475e-19 -9.87883e-16 0)
(-1.16808e-19 -9.87882e-16 0)
(-1.28791e-19 -9.87881e-16 0)
(-1.41532e-19 -9.8788e-16 0)
(-1.55154e-19 -9.87879e-16 0)
(-1.69805e-19 -9.87877e-16 0)
(-1.85665e-19 -9.87875e-16 0)
(-2.02948e-19 -9.87873e-16 0)
(-2.21921e-19 -9.8787e-16 0)
(-2.42912e-19 -9.87867e-16 0)
(-2.66336e-19 -9.87863e-16 0)
(-2.92721e-19 -9.87859e-16 0)
(-3.22753e-19 -9.87853e-16 0)
(-3.57332e-19 -9.87845e-16 0)
(-3.97671e-19 -9.87836e-16 0)
(-4.45427e-19 -9.87823e-16 0)
(-5.02934e-19 -9.87806e-16 0)
(-5.73558e-19 -9.87783e-16 0)
(-6.62346e-19 -9.8775e-16 0)
(-7.77284e-19 -9.87701e-16 0)
(-9.32409e-19 -9.87627e-16 0)
(-1.07709e-18 -9.87546e-16 0)
(-1.20115e-18 -9.87486e-16 0)
(-1.36509e-18 -9.87417e-16 0)
(-1.60503e-18 -9.87345e-16 0)
(-2.00864e-18 -9.87296e-16 0)
(-5.4355e-18 -9.87631e-16 0)
(-1.23168e-06 -2.19035e-07 0)
(-1.23168e-06 -0.000185745 0)
(1.23168e-06 -0.000185745 0)
(1.23168e-06 -2.19035e-07 0)
(5.4355e-18 -9.87631e-16 0)
(2.00864e-18 -9.87296e-16 0)
(1.60503e-18 -9.87345e-16 0)
(1.36509e-18 -9.87417e-16 0)
(1.20115e-18 -9.87486e-16 0)
(1.07709e-18 -9.87546e-16 0)
(9.32409e-19 -9.87627e-16 0)
(7.77284e-19 -9.87701e-16 0)
(6.62346e-19 -9.8775e-16 0)
(5.73558e-19 -9.87783e-16 0)
(5.02934e-19 -9.87806e-16 0)
(4.45427e-19 -9.87823e-16 0)
(3.97671e-19 -9.87836e-16 0)
(3.57332e-19 -9.87845e-16 0)
(3.22753e-19 -9.87853e-16 0)
(2.92721e-19 -9.87859e-16 0)
(2.66336e-19 -9.87863e-16 0)
(2.42912e-19 -9.87867e-16 0)
(2.21921e-19 -9.8787e-16 0)
(2.02948e-19 -9.87873e-16 0)
(1.85665e-19 -9.87875e-16 0)
(1.69805e-19 -9.87877e-16 0)
(1.55154e-19 -9.87879e-16 0)
(1.41532e-19 -9.8788e-16 0)
(1.28791e-19 -9.87881e-16 0)
(1.16808e-19 -9.87882e-16 0)
(1.05475e-19 -9.87883e-16 0)
(9.47024e-20 -9.87884e-16 0)
(8.44112e-20 -9.87884e-16 0)
(7.45327e-20 -9.87885e-16 0)
(6.50062e-20 -9.87885e-16 0)
(5.57773e-20 -9.87886e-16 0)
(4.67973e-20 -9.87886e-16 0)
(3.80213e-20 -9.87886e-16 0)
(2.9408e-20 -9.87887e-16 0)
(2.09188e-20 -9.87887e-16 0)
(1.25167e-20 -9.87887e-16 0)
(4.16652e-21 -9.87887e-16 0)
(-4.15739e-21 -9.87884e-16 0)
(-1.24892e-20 -9.87884e-16 0)
(-2.08724e-20 -9.87884e-16 0)
(-2.93422e-20 -9.87884e-16 0)
(-3.79348e-20 -9.87883e-16 0)
(-4.66888e-20 -9.87883e-16 0)
(-5.56451e-20 -9.87883e-16 0)
(-6.48478e-20 -9.87882e-16 0)
(-7.43454e-20 -9.87882e-16 0)
(-8.41915e-20 -9.87881e-16 0)
(-9.44459e-20 -9.8788e-16 0)
(-1.05176e-19 -9.87879e-16 0)
(-1.1646e-19 -9.87878e-16 0)
(-1.28387e-19 -9.87877e-16 0)
(-1.4106e-19 -9.87876e-16 0)
(-1.54602e-19 -9.87874e-16 0)
(-1.69157e-19 -9.87872e-16 0)
(-1.849e-19 -9.8787e-16 0)
(-2.02038e-19 -9.87867e-16 0)
(-2.2083e-19 -9.87864e-16 0)
(-2.41593e-19 -9.8786e-16 0)
(-2.64725e-19 -9.87855e-16 0)
(-2.90728e-19 -9.87849e-16 0)
(-3.20252e-19 -9.87842e-16 0)
(-3.54142e-19 -9.87833e-16 0)
(-3.93522e-19 -9.87821e-16 0)
(-4.39912e-19 -9.87806e-16 0)
(-4.95413e-19 -9.87785e-16 0)
(-5.63e-19 -9.87757e-16 0)
(-6.47044e-19 -9.87717e-16 0)
(-7.54363e-19 -9.87659e-16 0)
(-8.96997e-19 -9.87569e-16 0)
(-1.02876e-18 -9.87466e-16 0)
(-1.14119e-18 -9.87386e-16 0)
(-1.29038e-18 -9.8728e-16 0)
(-1.51376e-18 -9.8713e-16 0)
(-1.92313e-18 -9.86892e-16 0)
(-1.50068e-09 -4.86045e-13 0)
(-8.28561e-06 -9.94392e-05 0)
(-8.28411e-06 -0.000315201 0)
(8.28411e-06 -0.000315201 0)
(8.28561e-06 -9.94392e-05 0)
(1.50068e-09 -4.86045e-13 0)
(1.92313e-18 -9.86892e-16 0)
(1.51376e-18 -9.8713e-16 0)
(1.29038e-18 -9.8728e-16 0)
(1.14119e-18 -9.87386e-16 0)
(1.02876e-18 -9.87466e-16 0)
(8.96997e-19 -9.87569e-16 0)
(7.54363e-19 -9.87659e-16 0)
(6.47044e-19 -9.87717e-16 0)
(5.63e-19 -9.87757e-16 0)
(4.95413e-19 -9.87785e-16 0)
(4.39912e-19 -9.87806e-16 0)
(3.93522e-19 -9.87821e-16 0)
(3.54142e-19 -9.87833e-16 0)
(3.20252e-19 -9.87842e-16 0)
(2.90728e-19 -9.87849e-16 0)
(2.64725e-19 -9.87855e-16 0)
(2.41593e-19 -9.8786e-16 0)
(2.2083e-19 -9.87864e-16 0)
(2.02038e-19 -9.87867e-16 0)
(1.849e-19 -9.8787e-16 0)
(1.69157e-19 -9.87872e-16 0)
(1.54602e-19 -9.87874e-16 0)
(1.4106e-19 -9.87876e-16 0)
(1.28387e-19 -9.87877e-16 0)
(1.1646e-19 -9.87878e-16 0)
(1.05176e-19 -9.87879e-16 0)
(9.44459e-20 -9.8788e-16 0)
(8.41915e-20 -9.87881e-16 0)
(7.43454e-20 -9.87882e-16 0)
(6.48478e-20 -9.87882e-16 0)
(5.56451e-20 -9.87883e-16 0)
(4.66888e-20 -9.87883e-16 0)
(3.79348e-20 -9.87883e-16 0)
(2.93422e-20 -9.87884e-16 0)
(2.08724e-20 -9.87884e-16 0)
(1.24892e-20 -9.87884e-16 0)
(4.15739e-21 -9.87884e-16 0)
(-4.14514e-21 -9.87881e-16 0)
(-1.24523e-20 -9.87881e-16 0)
(-2.08103e-20 -9.87881e-16 0)
(-2.92538e-20 -9.87881e-16 0)
(-3.78188e-20 -9.8788e-16 0)
(-4.65433e-20 -9.8788e-16 0)
(-5.54677e-20 -9.87879e-16 0)
(-6.46355e-20 -9.87879e-16 0)
(-7.40943e-20 -9.87878e-16 0)
(-8.38969e-20 -9.87877e-16 0)
(-9.41021e-20 -9.87876e-16 0)
(-1.04776e-19 -9.87875e-16 0)
(-1.15995e-19 -9.87874e-16 0)
(-1.27846e-19 -9.87873e-16 0)
(-1.40429e-19 -9.87871e-16 0)
(-1.53864e-19 -9.87869e-16 0)
(-1.68291e-19 -9.87866e-16 0)
(-1.83877e-19 -9.87864e-16 0)
(-2.00823e-19 -9.8786e-16 0)
(-2.19376e-19 -9.87856e-16 0)
(-2.39837e-19 -9.87852e-16 0)
(-2.62581e-19 -9.87846e-16 0)
(-2.8808e-19 -9.87839e-16 0)
(-3.16936e-19 -9.87831e-16 0)
(-3.49922e-19 -9.8782e-16 0)
(-3.88052e-19 -9.87806e-16 0)
(-4.32667e-19 -9.87788e-16 0)
(-4.85576e-19 -9.87764e-16 0)
(-5.49258e-19 -9.8773e-16 0)
(-6.27205e-19 -9.87684e-16 0)
(-7.24586e-19 -9.87616e-16 0)
(-8.49934e-19 -9.87513e-16 0)
(-9.61664e-19 -9.87391e-16 0)
(-1.05097e-18 -9.87293e-16 0)
(-1.15912e-18 -9.87159e-16 0)
(-1.29037e-18 -9.86959e-16 0)
(-7.46888e-16 -9.86622e-16 0)
(-6.06657e-06 -8.91476e-10 0)
(-7.91798e-06 -0.000250273 0)
(-1.85141e-06 -0.000334875 0)
(1.85141e-06 -0.000334875 0)
(7.91798e-06 -0.000250273 0)
(6.06657e-06 -8.91476e-10 0)
(7.46888e-16 -9.86622e-16 0)
(1.29037e-18 -9.86959e-16 0)
(1.15912e-18 -9.87159e-16 0)
(1.05097e-18 -9.87293e-16 0)
(9.61664e-19 -9.87391e-16 0)
(8.49934e-19 -9.87513e-16 0)
(7.24586e-19 -9.87616e-16 0)
(6.27205e-19 -9.87684e-16 0)
(5.49258e-19 -9.8773e-16 0)
(4.85576e-19 -9.87764e-16 0)
(4.32667e-19 -9.87788e-16 0)
(3.88052e-19 -9.87806e-16 0)
(3.49922e-19 -9.8782e-16 0)
(3.16936e-19 -9.87831e-16 0)
(2.8808e-19 -9.87839e-16 0)
(2.62581e-19 -9.87846e-16 0)
(2.39837e-19 -9.87852e-16 0)
(2.19376e-19 -9.87856e-16 0)
(2.00823e-19 -9.8786e-16 0)
(1.83877e-19 -9.87864e-16 0)
(1.68291e-19 -9.87866e-16 0)
(1.53864e-19 -9.87869e-16 0)
(1.40429e-19 -9.87871e-16 0)
(1.27846e-19 -9.87873e-16 0)
(1.15995e-19 -9.87874e-16 0)
(1.04776e-19 -9.87875e-16 0)
(9.41021e-20 -9.87876e-16 0)
(8.38969e-20 -9.87877e-16 0)
(7.40943e-20 -9.87878e-16 0)
(6.46355e-20 -9.87879e-16 0)
(5.54677e-20 -9.87879e-16 0)
(4.65433e-20 -9.8788e-16 0)
(3.78188e-20 -9.8788e-16 0)
(2.92538e-20 -9.87881e-16 0)
(2.08103e-20 -9.87881e-16 0)
(1.24523e-20 -9.87881e-16 0)
(4.14514e-21 -9.87881e-16 0)
(-4.12905e-21 -9.87878e-16 0)
(-1.24038e-20 -9.87878e-16 0)
(-2.07285e-20 -9.87877e-16 0)
(-2.91376e-20 -9.87877e-16 0)
(-3.76664e-20 -9.87877e-16 0)
(-4.63522e-20 -9.87876e-16 0)
(-5.52346e-20 -9.87876e-16 0)
(-6.43565e-20 -9.87875e-16 0)
(-7.37645e-20 -9.87874e-16 0)
(-8.35102e-20 -9.87873e-16 0)
(-9.36509e-20 -9.87872e-16 0)
(-1.04251e-19 -9.87871e-16 0)
(-1.15385e-19 -9.87869e-16 0)
(-1.27136e-19 -9.87868e-16 0)
(-1.39603e-19 -9.87866e-16 0)
(-1.52898e-19 -9.87863e-16 0)
(-1.67158e-19 -9.8786e-16 0)
(-1.8254e-19 -9.87857e-16 0)
(-1.99237e-19 -9.87853e-16 0)
(-2.17479e-19 -9.87849e-16 0)
(-2.37549e-19 -9.87843e-16 0)
(-2.59794e-19 -9.87836e-16 0)
(-2.84645e-19 -9.87828e-16 0)
(-3.12646e-19 -9.87818e-16 0)
(-3.44481e-19 -9.87806e-16 0)
(-3.81027e-19 -9.8779e-16 0)
(-4.2341e-19 -9.87769e-16 0)
(-4.73085e-19 -9.87741e-16 0)
(-5.31933e-19 -9.87703e-16 0)
(-6.02375e-19 -9.87651e-16 0)
(-6.87508e-19 -9.87575e-16 0)
(-7.91176e-19 -9.87461e-16 0)
(-8.77256e-19 -9.87328e-16 0)
(-9.36962e-19 -9.87222e-16 0)
(-9.9667e-19 -9.87079e-16 0)
(-1.04289e-18 -9.8688e-16 0)
(-1.05235e-12 -9.8664e-16 0)
(-9.22943e-06 -1.5366e-08 0)
(-1.14115e-05 -0.000313738 0)
(-2.18209e-06 -0.000342692 0)
(2.18209e-06 -0.000342692 0)
(1.14115e-05 -0.000313738 0)
(9.22943e-06 -1.5366e-08 0)
(1.05235e-12 -9.8664e-16 0)
(1.04289e-18 -9.8688e-16 0)
(9.9667e-19 -9.87079e-16 0)
(9.36962e-19 -9.87222e-16 0)
(8.77256e-19 -9.87328e-16 0)
(7.91176e-19 -9.87461e-16 0)
(6.87508e-19 -9.87575e-16 0)
(6.02375e-19 -9.87651e-16 0)
(5.31933e-19 -9.87703e-16 0)
(4.73085e-19 -9.87741e-16 0)
(4.2341e-19 -9.87769e-16 0)
(3.81027e-19 -9.8779e-16 0)
(3.44481e-19 -9.87806e-16 0)
(3.12646e-19 -9.87818e-16 0)
(2.84645e-19 -9.87828e-16 0)
(2.59794e-19 -9.87836e-16 0)
(2.37549e-19 -9.87843e-16 0)
(2.17479e-19 -9.87849e-16 0)
(1.99237e-19 -9.87853e-16 0)
(1.8254e-19 -9.87857e-16 0)
(1.67158e-19 -9.8786e-16 0)
(1.52898e-19 -9.87863e-16 0)
(1.39603e-19 -9.87866e-16 0)
(1.27136e-19 -9.87868e-16 0)
(1.15385e-19 -9.87869e-16 0)
(1.04251e-19 -9.87871e-16 0)
(9.36509e-20 -9.87872e-16 0)
(8.35102e-20 -9.87873e-16 0)
(7.37645e-20 -9.87874e-16 0)
(6.43565e-20 -9.87875e-16 0)
(5.52346e-20 -9.87876e-16 0)
(4.63522e-20 -9.87876e-16 0)
(3.76664e-20 -9.87877e-16 0)
(2.91376e-20 -9.87877e-16 0)
(2.07285e-20 -9.87877e-16 0)
(1.24038e-20 -9.87878e-16 0)
(4.12905e-21 -9.87878e-16 0)
(-4.10824e-21 -9.87874e-16 0)
(-1.2341e-20 -9.87874e-16 0)
(-2.06229e-20 -9.87874e-16 0)
(-2.89875e-20 -9.87873e-16 0)
(-3.74694e-20 -9.87873e-16 0)
(-4.61052e-20 -9.87872e-16 0)
(-5.49335e-20 -9.87872e-16 0)
(-6.39962e-20 -9.87871e-16 0)
(-7.33387e-20 -9.8787e-16 0)
(-8.3011e-20 -9.87869e-16 0)
(-9.30686e-20 -9.87868e-16 0)
(-1.03574e-19 -9.87866e-16 0)
(-1.14598e-19 -9.87864e-16 0)
(-1.26222e-19 -9.87862e-16 0)
(-1.38538e-19 -9.8786e-16 0)
(-1.51656e-19 -9.87857e-16 0)
(-1.65701e-19 -9.87854e-16 0)
(-1.80824e-19 -9.8785e-16 0)
(-1.97203e-19 -9.87846e-16 0)
(-2.15051e-19 -9.8784e-16 0)
(-2.34626e-19 -9.87834e-16 0)
(-2.56241e-19 -9.87826e-16 0)
(-2.80279e-19 -9.87817e-16 0)
(-3.07211e-19 -9.87805e-16 0)
(-3.37617e-19 -9.87791e-16 0)
(-3.72212e-19 -9.87773e-16 0)
(-4.11871e-19 -9.87749e-16 0)
(-4.57642e-19 -9.87718e-16 0)
(-5.10726e-19 -9.87676e-16 0)
(-5.72348e-19 -9.87619e-16 0)
(-6.43317e-19 -9.87537e-16 0)
(-7.22543e-19 -9.87417e-16 0)
(-7.80975e-19 -9.87282e-16 0)
(-8.11908e-19 -9.87178e-16 0)
(-8.31467e-19 -9.87045e-16 0)
(-8.25056e-19 -9.86876e-16 0)
(-1.42746e-11 -9.87046e-16 0)
(-7.82427e-06 -8.1301e-08 0)
(-1.05486e-05 -0.000333301 0)
(-2.7243e-06 -0.000350225 0)
(2.7243e-06 -0.000350225 0)
(1.05486e-05 -0.000333301 0)
(7.82427e-06 -8.1301e-08 0)
(1.42746e-11 -9.87046e-16 0)
(8.25056e-19 -9.86876e-16 0)
(8.31467e-19 -9.87045e-16 0)
(8.11908e-19 -9.87178e-16 0)
(7.80975e-19 -9.87282e-16 0)
(7.22543e-19 -9.87417e-16 0)
(6.43317e-19 -9.87537e-16 0)
(5.72348e-19 -9.87619e-16 0)
(5.10726e-19 -9.87676e-16 0)
(4.57642e-19 -9.87718e-16 0)
(4.11871e-19 -9.87749e-16 0)
(3.72212e-19 -9.87773e-16 0)
(3.37617e-19 -9.87791e-16 0)
(3.07211e-19 -9.87805e-16 0)
(2.80279e-19 -9.87817e-16 0)
(2.56241e-19 -9.87826e-16 0)
(2.34626e-19 -9.87834e-16 0)
(2.15051e-19 -9.8784e-16 0)
(1.97203e-19 -9.87846e-16 0)
(1.80824e-19 -9.8785e-16 0)
(1.65701e-19 -9.87854e-16 0)
(1.51656e-19 -9.87857e-16 0)
(1.38538e-19 -9.8786e-16 0)
(1.26222e-19 -9.87862e-16 0)
(1.14598e-19 -9.87864e-16 0)
(1.03574e-19 -9.87866e-16 0)
(9.30686e-20 -9.87868e-16 0)
(8.3011e-20 -9.87869e-16 0)
(7.33387e-20 -9.8787e-16 0)
(6.39962e-20 -9.87871e-16 0)
(5.49335e-20 -9.87872e-16 0)
(4.61052e-20 -9.87872e-16 0)
(3.74694e-20 -9.87873e-16 0)
(2.89875e-20 -9.87873e-16 0)
(2.06229e-20 -9.87874e-16 0)
(1.2341e-20 -9.87874e-16 0)
(4.10824e-21 -9.87874e-16 0)
(-4.08169e-21 -9.8787e-16 0)
(-1.2261e-20 -9.8787e-16 0)
(-2.04882e-20 -9.8787e-16 0)
(-2.87959e-20 -9.87869e-16 0)
(-3.72181e-20 -9.87869e-16 0)
(-4.57902e-20 -9.87868e-16 0)
(-5.45497e-20 -9.87867e-16 0)
(-6.35371e-20 -9.87866e-16 0)
(-7.27962e-20 -9.87865e-16 0)
(-8.23753e-20 -9.87864e-16 0)
(-9.23276e-20 -9.87863e-16 0)
(-1.02713e-19 -9.87861e-16 0)
(-1.13598e-19 -9.87859e-16 0)
(-1.25061e-19 -9.87856e-16 0)
(-1.37188e-19 -9.87854e-16 0)
(-1.50081e-19 -9.8785e-16 0)
(-1.63857e-19 -9.87847e-16 0)
(-1.78655e-19 -9.87842e-16 0)
(-1.94637e-19 -9.87837e-16 0)
(-2.11994e-19 -9.87831e-16 0)
(-2.30954e-19 -9.87824e-16 0)
(-2.51791e-19 -9.87815e-16 0)
(-2.74829e-19 -9.87805e-16 0)
(-3.00456e-19 -9.87792e-16 0)
(-3.29131e-19 -9.87776e-16 0)
(-3.61387e-19 -9.87755e-16 0)
(-3.97817e-19 -9.87729e-16 0)
(-4.39032e-19 -9.87695e-16 0)
(-4.85514e-19 -9.8765e-16 0)
(-5.37276e-19 -9.8759e-16 0)
(-5.9296e-19 -9.87505e-16 0)
(-6.47393e-19 -9.87385e-16 0)
(-6.80037e-19 -9.87256e-16 0)
(-6.87909e-19 -9.87162e-16 0)
(-6.80373e-19 -9.87049e-16 0)
(-6.47249e-19 -9.86917e-16 0)
(-5.60955e-11 -9.88351e-16 0)
(-6.27463e-06 -2.51073e-07 0)
(-8.96054e-06 -0.00034703 0)
(-2.68596e-06 -0.000358229 0)
(2.68596e-06 -0.000358229 0)
(8.96054e-06 -0.00034703 0)
(6.27463e-06 -2.51073e-07 0)
(5.60955e-11 -9.88351e-16 0)
(6.47249e-19 -9.86917e-16 0)
(6.80373e-19 -9.87049e-16 0)
(6.87909e-19 -9.87162e-16 0)
(6.80037e-19 -9.87256e-16 0)
(6.47393e-19 -9.87385e-16 0)
(5.9296e-19 -9.87505e-16 0)
(5.37276e-19 -9.8759e-16 0)
(4.85514e-19 -9.8765e-16 0)
(4.39032e-19 -9.87695e-16 0)
(3.97817e-19 -9.87729e-16 0)
(3.61387e-19 -9.87755e-16 0)
(3.29131e-19 -9.87776e-16 0)
(3.00456e-19 -9.87792e-16 0)
(2.74829e-19 -9.87805e-16 0)
(2.51791e-19 -9.87815e-16 0)
(2.30954e-19 -9.87824e-16 0)
(2.11994e-19 -9.87831e-16 0)
(1.94637e-19 -9.87837e-16 0)
(1.78655e-19 -9.87842e-16 0)
(1.63857e-19 -9.87847e-16 0)
(1.50081e-19 -9.8785e-16 0)
(1.37188e-19 -9.87854e-16 0)
(1.25061e-19 -9.87856e-16 0)
(1.13598e-19 -9.87859e-16 0)
(1.02713e-19 -9.87861e-16 0)
(9.23276e-20 -9.87863e-16 0)
(8.23753e-20 -9.87864e-16 0)
(7.27962e-20 -9.87865e-16 0)
(6.35371e-20 -9.87866e-16 0)
(5.45497e-20 -9.87867e-16 0)
(4.57902e-20 -9.87868e-16 0)
(3.72181e-20 -9.87869e-16 0)
(2.87959e-20 -9.87869e-16 0)
(2.04882e-20 -9.8787e-16 0)
(1.2261e-20 -9.8787e-16 0)
(4.08169e-21 -9.8787e-16 0)
(-4.04819e-21 -9.87866e-16 0)
(-1.216e-20 -9.87865e-16 0)
(-2.03182e-20 -9.87865e-16 0)
(-2.85544e-20 -9.87865e-16 0)
(-3.69013e-20 -9.87864e-16 0)
(-4.53931e-20 -9.87863e-16 0)
(-5.4066e-20 -9.87863e-16 0)
(-6.29587e-20 -9.87862e-16 0)
(-7.21132e-20 -9.8786e-16 0)
(-8.15754e-20 -9.87859e-16 0)
(-9.13957e-20 -9.87857e-16 0)
(-1.01631e-19 -9.87855e-16 0)
(-1.12343e-19 -9.87853e-16 0)
(-1.23604e-19 -9.8785e-16 0)
(-1.35496e-19 -9.87847e-16 0)
(-1.4811e-19 -9.87843e-16 0)
(-1.61554e-19 -9.87839e-16 0)
(-1.7595e-19 -9.87834e-16 0)
(-1.91443e-19 -9.87829e-16 0)
(-2.08199e-19 -9.87822e-16 0)
(-2.26411e-19 -9.87814e-16 0)
(-2.46305e-19 -9.87804e-16 0)
(-2.68139e-19 -9.87792e-16 0)
(-2.92209e-19 -9.87778e-16 0)
(-3.18839e-19 -9.8776e-16 0)
(-3.48365e-19 -9.87738e-16 0)
(-3.81087e-19 -9.8771e-16 0)
(-4.1717e-19 -9.87674e-16 0)
(-4.56408e-19 -9.87626e-16 0)
(-4.9773e-19 -9.87564e-16 0)
(-5.38072e-19 -9.8748e-16 0)
(-5.69782e-19 -9.87364e-16 0)
(-5.81219e-19 -9.8725e-16 0)
(-5.73358e-19 -9.87169e-16 0)
(-5.50574e-19 -9.87079e-16 0)
(-5.07343e-19 -9.86981e-16 0)
(-1.32959e-10 -9.9136e-16 0)
(-5.03248e-06 -5.65472e-07 0)
(-7.43452e-06 -0.000357368 0)
(-2.40218e-06 -0.000366148 0)
(2.40218e-06 -0.000366148 0)
(7.43452e-06 -0.000357368 0)
(5.03248e-06 -5.65472e-07 0)
(1.32959e-10 -9.9136e-16 0)
(5.07343e-19 -9.86981e-16 0)
(5.50574e-19 -9.87079e-16 0)
(5.73358e-19 -9.87169e-16 0)
(5.81219e-19 -9.8725e-16 0)
(5.69782e-19 -9.87364e-16 0)
(5.38072e-19 -9.8748e-16 0)
(4.9773e-19 -9.87564e-16 0)
(4.56408e-19 -9.87626e-16 0)
(4.1717e-19 -9.87674e-16 0)
(3.81087e-19 -9.8771e-16 0)
(3.48365e-19 -9.87738e-16 0)
(3.18839e-19 -9.8776e-16 0)
(2.92209e-19 -9.87778e-16 0)
(2.68139e-19 -9.87792e-16 0)
(2.46305e-19 -9.87804e-16 0)
(2.26411e-19 -9.87814e-16 0)
(2.08199e-19 -9.87822e-16 0)
(1.91443e-19 -9.87829e-16 0)
(1.7595e-19 -9.87834e-16 0)
(1.61554e-19 -9.87839e-16 0)
(1.4811e-19 -9.87843e-16 0)
(1.35496e-19 -9.87847e-16 0)
(1.23604e-19 -9.8785e-16 0)
(1.12343e-19 -9.87853e-16 0)
(1.01631e-19 -9.87855e-16 0)
(9.13957e-20 -9.87857e-16 0)
(8.15754e-20 -9.87859e-16 0)
(7.21132e-20 -9.8786e-16 0)
(6.29587e-20 -9.87862e-16 0)
(5.4066e-20 -9.87863e-16 0)
(4.53931e-20 -9.87863e-16 0)
(3.69013e-20 -9.87864e-16 0)
(2.85544e-20 -9.87865e-16 0)
(2.03182e-20 -9.87865e-16 0)
(1.216e-20 -9.87865e-16 0)
(4.04819e-21 -9.87866e-16 0)
(-4.00636e-21 -9.87861e-16 0)
(-1.20339e-20 -9.87861e-16 0)
(-2.01059e-20 -9.8786e-16 0)
(-2.82528e-20 -9.8786e-16 0)
(-3.65059e-20 -9.87859e-16 0)
(-4.48977e-20 -9.87858e-16 0)
(-5.34627e-20 -9.87857e-16 0)
(-6.22377e-20 -9.87856e-16 0)
(-7.12623e-20 -9.87855e-16 0)
(-8.05795e-20 -9.87853e-16 0)
(-9.02365e-20 -9.87851e-16 0)
(-1.00285e-19 -9.87849e-16 0)
(-1.10785e-19 -9.87846e-16 0)
(-1.21799e-19 -9.87843e-16 0)
(-1.33401e-19 -9.8784e-16 0)
(-1.45674e-19 -9.87836e-16 0)
(-1.58712e-19 -9.87831e-16 0)
(-1.72621e-19 -9.87826e-16 0)
(-1.87523e-19 -9.87819e-16 0)
(-2.03554e-19 -9.87812e-16 0)
(-2.20871e-19 -9.87803e-16 0)
(-2.39644e-19 -9.87792e-16 0)
(-2.60062e-19 -9.87779e-16 0)
(-2.82317e-19 -9.87763e-16 0)
(-3.06592e-19 -9.87744e-16 0)
(-3.33023e-19 -9.87721e-16 0)
(-3.61625e-19 -9.87691e-16 0)
(-3.92148e-19 -9.87653e-16 0)
(-4.23796e-19 -9.87605e-16 0)
(-4.54679e-19 -9.87543e-16 0)
(-4.80725e-19 -9.87462e-16 0)
(-4.93565e-19 -9.87356e-16 0)
(-4.8956e-19 -9.87259e-16 0)
(-4.72717e-19 -9.87194e-16 0)
(-4.43473e-19 -9.87124e-16 0)
(-3.99899e-19 -9.87054e-16 0)
(-2.39416e-10 -9.97086e-16 0)
(-4.11162e-06 -1.05614e-06 0)
(-6.20137e-06 -0.000365676 0)
(-2.08999e-06 -0.000373702 0)