/*--------------------------------*- C++ -*----------------------------------*\
  =========                 |
  \\      /  F ield         | OpenFOAM: The Open Source CFD Toolbox
   \\    /   O peration     | Website:  https://openfoam.org
    \\  /    A nd           | Version:  10
     \\/     M anipulation  |
\*---------------------------------------------------------------------------*/
FoamFile
{
    format      ascii;
    class       surfaceScalarField;
    location    "7250";
    object      phi;
}
// * * * * * * * * * * * * * * * * * * * * * * * * * * * * * * * * * * * * * //

dimensions      [0 3 -1 0 0 0 0];

internalField   nonuniform List<scalar> 
6280
(
-1.14342e-07
1.14342e-07
-2.27016e-07
1.12673e-07
-3.38368e-07
1.11352e-07
-4.48717e-07
1.10349e-07
-5.58358e-07
1.0964e-07
-6.67562e-07
1.09204e-07
-7.76584e-07
1.09022e-07
-8.85662e-07
1.09078e-07
-9.95022e-07
1.0936e-07
-1.10488e-06
1.09857e-07
-1.21544e-06
1.1056e-07
-1.3269e-06
1.11465e-07
-1.43947e-06
1.12568e-07
-1.55334e-06
1.13872e-07
-1.66873e-06
1.15385e-07
-1.78585e-06
1.17123e-07
-1.90497e-06
1.19113e-07
-2.02636e-06
1.21397e-07
-2.1504e-06
1.24039e-07
-2.27754e-06
1.27134e-07
-2.40835e-06
1.30818e-07
-2.54364e-06
1.3529e-07
-2.68447e-06
1.40829e-07
-2.83231e-06
1.47835e-07
-2.98918e-06
1.56871e-07
-3.15791e-06
1.68735e-07
-3.34247e-06
1.8456e-07
-3.54843e-06
2.05956e-07
-3.78367e-06
2.35237e-07
-4.05941e-06
2.75742e-07
-4.39176e-06
3.32353e-07
-4.80405e-06
4.12284e-07
-5.33038e-06
5.26334e-07
-6.02125e-06
6.9087e-07
-6.95226e-06
9.31005e-07
-8.23796e-06
1.2857e-06
-1.00539e-05
1.81598e-06
-1.26721e-05
2.61814e-06
-1.63812e-05
3.70911e-06
1.37842e-06
-1.77596e-05
-1.13603e-07
2.27945e-07
-2.25543e-07
2.24614e-07
-3.36163e-07
2.21971e-07
-4.45774e-07
2.19961e-07
-5.54666e-07
2.18532e-07
-6.63106e-07
2.17644e-07
-7.71342e-07
2.17259e-07
-8.79609e-07
2.17345e-07
-9.88125e-07
2.17876e-07
-1.0971e-06
2.1883e-07
-1.20672e-06
2.20187e-07
-1.31719e-06
2.21934e-07
-1.42869e-06
2.24061e-07
-1.54138e-06
2.26565e-07
-1.65545e-06
2.29451e-07
-1.77106e-06
2.32735e-07
-1.88839e-06
2.36446e-07
-2.00763e-06
2.40632e-07
-2.12896e-06
2.45372e-07
-2.2526e-06
2.50779e-07
-2.37881e-06
2.5702e-07
-2.50785e-06
2.6433e-07
-2.64006e-06
2.73042e-07
-2.77584e-06
2.83616e-07
-2.91565e-06
2.96682e-07
-3.06001e-06
3.13094e-07
-3.20945e-06
3.33997e-07
-3.36439e-06
3.60903e-07
-3.52493e-06
3.95778e-07
-3.69032e-06
4.41127e-07
-3.85801e-06
5.00048e-07
-4.02195e-06
5.76217e-07
-4.1693e-06
6.7369e-07
-4.2748e-06
7.96369e-07
-4.29059e-06
9.46797e-07
-4.12863e-06
1.12374e-06
-3.63021e-06
1.31756e-06
-2.51386e-06
1.50179e-06
-4.22752e-07
1.618e-06
1.38166e-06
-4.25991e-07
-1.12138e-07
3.40083e-07
-2.22626e-07
3.35102e-07
-3.31794e-07
3.3114e-07
-4.39944e-07
3.28111e-07
-5.47355e-07
3.25943e-07
-6.54282e-07
3.24572e-07
-7.60967e-07
3.23943e-07
-8.67632e-07
3.2401e-07
-9.74486e-07
3.2473e-07
-1.08173e-06
3.26069e-07
-1.18953e-06
3.27994e-07
-1.29808e-06
3.30479e-07
-1.40752e-06
3.33501e-07
-1.518e-06
3.37043e-07
-1.62964e-06
3.41093e-07
-1.74254e-06
3.45643e-07
-1.8568e-06
3.50698e-07
-1.97243e-06
3.56268e-07
-2.08944e-06
3.62383e-07
-2.20775e-06
3.69087e-07
-2.32719e-06
3.76454e-07
-2.44744e-06
3.84587e-07
-2.56803e-06
3.93634e-07
-2.68821e-06
4.03796e-07
-2.80687e-06
4.15342e-07
-2.9224e-06
4.2862e-07
-3.03247e-06
4.4407e-07
-3.1338e-06
4.62228e-07
-3.22174e-06
4.83722e-07
-3.28986e-06
5.09244e-07
-3.3293e-06
5.39486e-07
-3.3281e-06
5.75018e-07
-3.2705e-06
6.16086e-07
-3.13644e-06
6.62307e-07
-2.90188e-06
7.12241e-07
-2.54103e-06
7.6289e-07
-2.03274e-06
8.09268e-07
-1.37539e-06
8.44428e-07
-6.18219e-07
8.60835e-07
7.72047e-07
-8.60835e-09
-1.09974e-07
4.50057e-07
-2.18318e-07
4.43446e-07
-3.25344e-07
4.38166e-07
-4.31338e-07
4.34105e-07
-5.36563e-07
4.31167e-07
-6.41262e-07
4.29271e-07
-7.45662e-07
4.28343e-07
-8.49974e-07
4.28322e-07
-9.54394e-07
4.29151e-07
-1.05911e-06
4.30781e-07
-1.16428e-06
4.33167e-07
-1.27007e-06
4.36269e-07
-1.37662e-06
4.40048e-07
-1.48404e-06
4.44466e-07
-1.59244e-06
4.49488e-07
-1.70187e-06
4.55075e-07
-1.81236e-06
4.61187e-07
-1.92387e-06
4.6778e-07
-2.03629e-06
4.74802e-07
-2.14939e-06
4.8219e-07
-2.2628e-06
4.89867e-07
-2.37595e-06
4.97736e-07
-2.48799e-06
5.0567e-07
-2.59769e-06
5.13498e-07
-2.70335e-06
5.20999e-07
-2.8026e-06
5.27872e-07
-2.89225e-06
5.33722e-07
-2.96806e-06
5.38032e-07
-3.02447e-06
5.40132e-07
-3.05441e-06
5.39185e-07
-3.0491e-06
5.34177e-07
-2.99803e-06
5.2395e-07
-2.88923e-06
5.07288e-07
-2.71004e-06
4.83113e-07
-2.44861e-06
4.50812e-07
-2.09647e-06
4.10755e-07
-1.6522e-06
3.6499e-07
-1.12576e-06
3.1799e-07
-5.41982e-07
2.77058e-07
2.23185e-07
6.88073e-09
-1.07153e-07
5.5721e-07
-2.127e-07
5.48994e-07
-3.16933e-07
5.42398e-07
-4.20115e-07
5.37287e-07
-5.22491e-07
5.33543e-07
-6.24287e-07
5.31067e-07
-7.25715e-07
5.29771e-07
-8.26969e-07
5.29577e-07
-9.28236e-07
5.30417e-07
-1.02969e-06
5.32231e-07
-1.13148e-06
5.34962e-07
-1.23377e-06
5.38556e-07
-1.33668e-06
5.42963e-07
-1.44034e-06
5.48129e-07
-1.54486e-06
5.53999e-07
-1.65029e-06
5.60509e-07
-1.75669e-06
5.67587e-07
-1.86405e-06
5.75142e-07
-1.97231e-06
5.83065e-07
-2.08133e-06
5.9121e-07
-2.19086e-06
5.99393e-07
-2.30049e-06
6.07368e-07
-2.40963e-06
6.1481e-07
-2.51742e-06
6.2129e-07
-2.62266e-06
6.26238e-07
-2.72369e-06
6.28899e-07
-2.81825e-06
6.28281e-07
-2.9033e-06
6.23088e-07
-2.97482e-06
6.11645e-07
-3.02744e-06
5.91812e-07
-3.05418e-06
5.60917e-07
-3.04594e-06
5.15705e-07
-2.99103e-06
4.52377e-07
-2.87471e-06
3.668e-07
-2.67896e-06
2.55054e-07
-2.38283e-06
1.14627e-07
-1.96462e-06
-5.32171e-08
-1.40768e-06
-2.38951e-07
-7.14062e-07
-4.1656e-07
-4.85562e-07
-5.31483e-09
-1.03725e-07
6.60934e-07
-2.05876e-07
6.51145e-07
-3.06715e-07
6.43237e-07
-4.06482e-07
6.37054e-07
-5.05398e-07
6.3246e-07
-6.03669e-07
6.29339e-07
-7.01488e-07
6.27589e-07
-7.99034e-07
6.27123e-07
-8.96477e-07
6.27861e-07
-9.9398e-07
6.29733e-07
-1.09169e-06
6.32677e-07
-1.18977e-06
6.36631e-07
-1.28835e-06
6.41539e-07
-1.38756e-06
6.47341e-07
-1.48754e-06
6.53977e-07
-1.58841e-06
6.61379e-07
-1.69029e-06
6.69466e-07
-1.79329e-06
6.78144e-07
-1.89752e-06
6.87293e-07
-2.00307e-06
6.96765e-07
-2.11004e-06
7.06365e-07
-2.21852e-06
7.15845e-07
-2.32859e-06
7.24876e-07
-2.44033e-06
7.3303e-07
-2.55383e-06
7.39743e-07
-2.6692e-06
7.44269e-07
-2.78654e-06
7.45619e-07
-2.90592e-06
7.42468e-07
-3.0273e-06
7.3303e-07
-3.15035e-06
7.14863e-07
-3.27401e-06
6.8457e-07
-3.39564e-06
6.37342e-07
-3.50947e-06
5.66204e-07
-3.60349e-06
4.6082e-07
-3.65394e-06
3.05499e-07
-3.61523e-06
7.59236e-08
-3.40216e-06
-2.66288e-07
-2.85851e-06
-7.82603e-07
-1.70253e-06
-1.57254e-06
-2.32271e-06
1.34617e-07
-9.97533e-08
7.60687e-07
-1.97969e-07
7.49361e-07
-2.94877e-07
7.40145e-07
-3.90687e-07
7.32864e-07
-4.85594e-07
7.27367e-07
-5.79781e-07
7.23525e-07
-6.73416e-07
7.21224e-07
-7.66659e-07
7.20366e-07
-8.59665e-07
7.20866e-07
-9.5258e-07
7.22648e-07
-1.04555e-06
7.25645e-07
-1.13871e-06
7.29797e-07
-1.23222e-06
7.35047e-07
-1.32622e-06
7.41342e-07
-1.42087e-06
7.4863e-07
-1.51635e-06
7.56857e-07
-1.61285e-06
7.65966e-07
-1.7106e-06
7.75894e-07
-1.80988e-06
7.86568e-07
-1.91101e-06
7.97903e-07
-2.01445e-06
8.09798e-07
-2.12074e-06
8.22133e-07
-2.23062e-06
8.34764e-07
-2.34511e-06
8.4752e-07
-2.46557e-06
8.60201e-07
-2.59388e-06
8.72577e-07
-2.73265e-06
8.84391e-07
-2.88555e-06
8.95368e-07
-3.05775e-06
9.0523e-07
-3.25663e-06
9.13741e-07
-3.49283e-06
9.20766e-07
-3.78188e-06
9.26394e-07
-4.14683e-06
9.31159e-07
-4.62243e-06
9.36415e-07
-5.26195e-06
9.45026e-07
-6.1486e-06
9.62572e-07
-7.41439e-06
9.99494e-07
-9.27186e-06
1.07487e-06
-1.20497e-05
1.20532e-06
-1.47131e-05
3.40637e-07
-9.53115e-08
8.55999e-07
-1.89126e-07
8.43175e-07
-2.81636e-07
8.32655e-07
-3.73021e-07
8.24248e-07
-4.63444e-07
8.1779e-07
-5.53059e-07
8.13139e-07
-6.42008e-07
8.10173e-07
-7.30427e-07
8.08786e-07
-8.18447e-07
8.08886e-07
-9.06194e-07
8.10395e-07
-9.93795e-07
8.13246e-07
-1.08138e-06
8.1738e-07
-1.16908e-06
8.22747e-07
-1.25704e-06
8.29304e-07
-1.34543e-06
8.37017e-07
-1.43443e-06
8.45856e-07
-1.52426e-06
8.55798e-07
-1.61519e-06
8.66828e-07
-1.70757e-06
8.78941e-07
-1.80181e-06
8.9214e-07
-1.89845e-06
9.06447e-07
-1.99823e-06
9.21905e-07
-2.10205e-06
9.38591e-07
-2.21117e-06
9.56631e-07
-2.32719e-06
9.76222e-07
-2.45228e-06
9.9767e-07
-2.58933e-06
1.02144e-06
-2.74219e-06
1.04823e-06
-2.91603e-06
1.07907e-06
-3.1178e-06
1.11552e-06
-3.35689e-06
1.15985e-06
-3.64595e-06
1.21546e-06
-4.00214e-06
1.28735e-06
-4.44864e-06
1.38291e-06
-5.0167e-06
1.51309e-06
-5.74818e-06
1.69405e-06
-6.6983e-06
1.94961e-06
-7.9383e-06
2.31488e-06
-9.44996e-06
2.71698e-06
-2.69854e-05
2.82241e-06
-9.04806e-08
9.46479e-07
-1.79508e-07
9.32203e-07
-2.67237e-07
9.20384e-07
-3.5381e-07
9.10821e-07
-4.39357e-07
9.03338e-07
-5.24e-07
8.97782e-07
-6.0785e-07
8.94023e-07
-6.91013e-07
8.91949e-07
-7.73591e-07
8.91464e-07
-8.55681e-07
8.92485e-07
-9.3738e-07
8.94945e-07
-1.01879e-06
8.98786e-07
-1.1e-06
9.03965e-07
-1.18115e-06
9.10447e-07
-1.26234e-06
9.18212e-07
-1.34374e-06
9.27251e-07
-1.42551e-06
9.37569e-07
-1.50787e-06
9.49188e-07
-1.59108e-06
9.6215e-07
-1.67546e-06
9.76523e-07
-1.76142e-06
9.92407e-07
-1.84946e-06
1.00994e-06
-1.94019e-06
1.02932e-06
-2.03437e-06
1.05081e-06
-2.13292e-06
1.07477e-06
-2.23693e-06
1.10168e-06
-2.34764e-06
1.13215e-06
-2.46642e-06
1.16701e-06
-2.59468e-06
1.20732e-06
-2.7336e-06
1.25444e-06
-2.88378e-06
1.31003e-06
-3.04446e-06
1.37614e-06
-3.21225e-06
1.45514e-06
-3.3789e-06
1.54957e-06
-3.52764e-06
1.66183e-06
-3.62701e-06
1.79342e-06
-3.62097e-06
1.94357e-06
-3.41276e-06
2.10667e-06
-2.55566e-06
1.85987e-06
-3.03714e-05
8.30267e-07
-8.53481e-08
1.03183e-06
-1.69291e-07
1.01615e-06
-2.51943e-07
1.00304e-06
-3.33409e-07
9.92287e-07
-4.13784e-07
9.83712e-07
-4.93153e-07
9.77151e-07
-5.71596e-07
9.72466e-07
-6.49184e-07
9.69538e-07
-7.25984e-07
9.68263e-07
-8.02056e-07
9.68557e-07
-8.77459e-07
9.70348e-07
-9.52249e-07
9.73576e-07
-1.02648e-06
9.78198e-07
-1.10022e-06
9.84181e-07
-1.17351e-06
9.9151e-07
-1.24644e-06
1.00018e-06
-1.31908e-06
1.01021e-06
-1.39152e-06
1.02163e-06
-1.46387e-06
1.03449e-06
-1.53622e-06
1.04888e-06
-1.60873e-06
1.06491e-06
-1.6815e-06
1.08272e-06
-1.75467e-06
1.10249e-06
-1.82833e-06
1.12448e-06
-1.90252e-06
1.14895e-06
-1.97712e-06
1.17628e-06
-2.05183e-06
1.20686e-06
-2.126e-06
1.24118e-06
-2.19842e-06
1.27975e-06
-2.2671e-06
1.32311e-06
-2.32886e-06
1.37179e-06
-2.37889e-06
1.42617e-06
-2.41018e-06
1.48643e-06
-2.41289e-06
1.55228e-06
-2.37382e-06
1.62276e-06
-2.27633e-06
1.69593e-06
-2.10125e-06
1.76848e-06
-1.83007e-06
1.8355e-06
-1.32114e-06
1.35094e-06
-3.20888e-05
3.96336e-07
-8.0005e-08
1.11183e-06
-1.58657e-07
1.0948e-06
-2.36029e-07
1.08041e-06
-3.12189e-07
1.06845e-06
-3.87196e-07
1.05872e-06
-4.611e-07
1.05106e-06
-5.33945e-07
1.04531e-06
-6.05768e-07
1.04136e-06
-6.76597e-07
1.03909e-06
-7.46454e-07
1.03841e-06
-8.15353e-07
1.03925e-06
-8.83303e-07
1.04153e-06
-9.50305e-07
1.0452e-06
-1.01635e-06
1.05023e-06
-1.08143e-06
1.05659e-06
-1.14552e-06
1.06427e-06
-1.20858e-06
1.07327e-06
-1.27056e-06
1.08362e-06
-1.33141e-06
1.09534e-06
-1.39103e-06
1.10849e-06
-1.44927e-06
1.12315e-06
-1.50596e-06
1.1394e-06
-1.56082e-06
1.15736e-06
-1.61349e-06
1.17714e-06
-1.66342e-06
1.19889e-06
-1.70989e-06
1.22275e-06
-1.75188e-06
1.24885e-06
-1.78802e-06
1.27732e-06
-1.81648e-06
1.30821e-06
-1.83487e-06
1.3415e-06
-1.84013e-06
1.37705e-06
-1.82847e-06
1.41452e-06
-1.79538e-06
1.45333e-06
-1.7357e-06
1.4926e-06
-1.644e-06
1.53106e-06
-1.51512e-06
1.56706e-06
-1.34521e-06
1.59856e-06
-1.13297e-06
1.62327e-06
-8.36746e-07
1.05471e-06
-3.32323e-05
3.06683e-07
-7.45418e-08
1.18637e-06
-1.47786e-07
1.16804e-06
-2.19769e-07
1.15239e-06
-2.90521e-07
1.1392e-06
-3.60067e-07
1.12826e-06
-4.28424e-07
1.11941e-06
-4.95602e-07
1.11249e-06
-5.61605e-07
1.10736e-06
-6.26424e-07
1.10391e-06
-6.90045e-07
1.10203e-06
-7.5244e-07
1.10164e-06
-8.13571e-07
1.10266e-06
-8.73388e-07
1.10502e-06
-9.31825e-07
1.10866e-06
-9.88799e-07
1.11356e-06
-1.04421e-06
1.11968e-06
-1.09793e-06
1.12699e-06
-1.14979e-06
1.13548e-06
-1.19962e-06
1.14517e-06
-1.24716e-06
1.15604e-06
-1.29213e-06
1.16812e-06
-1.33414e-06
1.18142e-06
-1.37275e-06
1.19596e-06
-1.40738e-06
1.21177e-06
-1.43732e-06
1.22883e-06
-1.46172e-06
1.24714e-06
-1.47951e-06
1.26664e-06
-1.48943e-06
1.28725e-06
-1.49001e-06
1.30878e-06
-1.47952e-06
1.33102e-06
-1.45607e-06
1.35359e-06
-1.4176e-06
1.37605e-06
-1.36204e-06
1.39778e-06
-1.28747e-06
1.41803e-06
-1.19236e-06
1.43595e-06
-1.07584e-06
1.45054e-06
-9.38073e-07
1.46079e-06
-7.8051e-07
1.4657e-06
-5.91174e-07
8.65376e-07
-3.41343e-05
3.10875e-07
-6.90445e-08
1.25542e-06
-1.36852e-07
1.23585e-06
-2.03424e-07
1.21896e-06
-2.68758e-07
1.20453e-06
-3.32848e-07
1.19235e-06
-3.95682e-07
1.18225e-06
-4.57241e-07
1.17405e-06
-5.17498e-07
1.16762e-06
-5.76415e-07
1.16283e-06
-6.33946e-07
1.15957e-06
-6.90029e-07
1.15773e-06
-7.44592e-07
1.15722e-06
-7.97542e-07
1.15797e-06
-8.48771e-07
1.15989e-06
-8.98147e-07
1.16294e-06
-9.45515e-07
1.16704e-06
-9.90688e-07
1.17216e-06
-1.03345e-06
1.17824e-06
-1.07353e-06
1.18525e-06
-1.11063e-06
1.19314e-06
-1.14439e-06
1.20188e-06
-1.17439e-06
1.21141e-06
-1.20013e-06
1.2217e-06
-1.22104e-06
1.23268e-06
-1.23647e-06
1.24427e-06
-1.24569e-06
1.25636e-06
-1.24789e-06
1.26884e-06
-1.24216e-06
1.28152e-06
-1.22758e-06
1.2942e-06
-1.20317e-06
1.30661e-06
-1.168e-06
1.31843e-06
-1.12124e-06
1.32929e-06
-1.06222e-06
1.33876e-06
-9.90561e-07
1.34637e-06
-9.06245e-07
1.35163e-06
-8.09741e-07
1.35404e-06
-7.02074e-07
1.35313e-06
-5.84858e-07
1.34849e-06
-4.50754e-07
7.31272e-07
-3.49182e-05
3.33136e-07
-6.3591e-08
1.31901e-06
-1.2601e-07
1.29827e-06
-1.87229e-07
1.28018e-06
-2.47217e-07
1.26452e-06
-3.05943e-07
1.25108e-06
-3.6337e-07
1.23967e-06
-4.19457e-07
1.23014e-06
-4.74153e-07
1.22232e-06
-5.27399e-07
1.21608e-06
-5.79125e-07
1.21129e-06
-6.29249e-07
1.20785e-06
-6.77673e-07
1.20564e-06
-7.24283e-07
1.20458e-06
-7.68946e-07
1.20456e-06
-8.11507e-07
1.2055e-06
-8.51786e-07
1.20732e-06
-8.89574e-07
1.20995e-06
-9.24631e-07
1.2133e-06
-9.56684e-07
1.2173e-06
-9.85419e-07
1.22188e-06
-1.01048e-06
1.22694e-06
-1.03148e-06
1.23241e-06
-1.04797e-06
1.23819e-06
-1.05948e-06
1.24419e-06
-1.06548e-06
1.25027e-06
-1.06544e-06
1.25632e-06
-1.0588e-06
1.2622e-06
-1.04501e-06
1.26773e-06
-1.02355e-06
1.27274e-06
-9.93974e-07
1.27703e-06
-9.55929e-07
1.28038e-06
-9.09216e-07
1.28257e-06
-8.53826e-07
1.28337e-06
-7.89987e-07
1.28253e-06
-7.18196e-07
1.27984e-06
-6.39241e-07
1.27508e-06
-5.54205e-07
1.26809e-06
-4.64439e-07
1.25872e-06
-3.63794e-07
6.30627e-07
-3.56392e-05
3.57164e-07
-5.82477e-08
1.37726e-06
-1.15393e-07
1.35541e-06
-1.71383e-07
1.33617e-06
-2.26165e-07
1.3193e-06
-2.7969e-07
1.3046e-06
-3.31901e-07
1.29188e-06
-3.82741e-07
1.28098e-06
-4.32144e-07
1.27172e-06
-4.80039e-07
1.26397e-06
-5.26344e-07
1.2576e-06
-5.70965e-07
1.25247e-06
-6.13797e-07
1.24848e-06
-6.5472e-07
1.2455e-06
-6.93595e-07
1.24343e-06
-7.30267e-07
1.24217e-06
-7.64558e-07
1.24161e-06
-7.96269e-07
1.24166e-06
-8.25172e-07
1.2422e-06
-8.51017e-07
1.24315e-06
-8.73523e-07
1.24438e-06
-8.92383e-07
1.2458e-06
-9.07262e-07
1.24729e-06
-9.17802e-07
1.24873e-06
-9.23626e-07
1.25001e-06
-9.24346e-07
1.25099e-06
-9.19575e-07
1.25155e-06
-9.08938e-07
1.25156e-06
-8.92098e-07
1.25089e-06
-8.68771e-07
1.24941e-06
-8.38754e-07
1.24701e-06
-8.01959e-07
1.24359e-06
-7.58433e-07
1.23905e-06
-7.08392e-07
1.23333e-06
-6.52242e-07
1.22638e-06
-5.90595e-07
1.21819e-06
-5.24273e-07
1.20876e-06
-4.54295e-07
1.19811e-06
-3.81857e-07
1.18629e-06
-2.98275e-07
5.47045e-07
-3.63283e-05
3.90895e-07
-5.30679e-08
1.43033e-06
-1.05106e-07
1.40745e-06
-1.56044e-07
1.38711e-06
-2.05813e-07
1.36907e-06
-2.5435e-07
1.35314e-06
-3.01587e-07
1.33912e-06
-3.47457e-07
1.32685e-06
-3.91889e-07
1.31615e-06
-4.34804e-07
1.30689e-06
-4.76121e-07
1.29891e-06
-5.15746e-07
1.2921e-06
-5.53579e-07
1.28631e-06
-5.89507e-07
1.28143e-06
-6.23407e-07
1.27733e-06
-6.55138e-07
1.2739e-06
-6.84549e-07
1.27102e-06
-7.11467e-07
1.26858e-06
-7.35707e-07
1.26644e-06
-7.57061e-07
1.2645e-06
-7.75303e-07
1.26263e-06
-7.90191e-07
1.26069e-06
-8.01463e-07
1.25856e-06
-8.08841e-07
1.25611e-06
-8.12036e-07
1.2532e-06
-8.10751e-07
1.24971e-06
-8.04692e-07
1.24549e-06
-7.93571e-07
1.24044e-06
-7.77125e-07
1.23444e-06
-7.55129e-07
1.22742e-06
-7.27416e-07
1.2193e-06
-6.93898e-07
1.21007e-06
-6.54593e-07
1.19974e-06
-6.09654e-07
1.18839e-06
-5.59396e-07
1.17612e-06
-5.04324e-07
1.16312e-06
-4.45151e-07
1.14959e-06
-3.82811e-07
1.13577e-06
-3.18446e-07
1.12192e-06
-2.42726e-07
4.71325e-07
-3.70042e-05
4.33114e-07
-4.80911e-08
1.47842e-06
-9.52278e-08
1.45459e-06
-1.41327e-07
1.43321e-06
-1.86311e-07
1.41406e-06
-2.30107e-07
1.39694e-06
-2.72642e-07
1.38166e-06
-3.13846e-07
1.36805e-06
-3.53647e-07
1.35595e-06
-3.9197e-07
1.34521e-06
-4.28739e-07
1.33568e-06
-4.63871e-07
1.32723e-06
-4.97282e-07
1.31972e-06
-5.28877e-07
1.31302e-06
-5.58558e-07
1.30701e-06
-5.86218e-07
1.30156e-06
-6.11743e-07
1.29655e-06
-6.35007e-07
1.29184e-06
-6.55878e-07
1.28732e-06
-6.74211e-07
1.28283e-06
-6.8985e-07
1.27826e-06
-7.02626e-07
1.27347e-06
-7.1236e-07
1.2683e-06
-7.18856e-07
1.26261e-06
-7.21903e-07
1.25625e-06
-7.21275e-07
1.24908e-06
-7.16727e-07
1.24094e-06
-7.07999e-07
1.23171e-06
-6.94809e-07
1.22125e-06
-6.76866e-07
1.20947e-06
-6.53866e-07
1.1963e-06
-6.25515e-07
1.18172e-06
-5.91541e-07
1.16577e-06
-5.51737e-07
1.14858e-06
-5.06004e-07
1.13039e-06
-4.54418e-07
1.11153e-06
-3.97314e-07
1.09248e-06
-3.35375e-07
1.07383e-06
-2.69709e-07
1.05625e-06
-1.9523e-07
3.96846e-07
-3.76788e-05
4.79358e-07
-4.33436e-08
1.52176e-06
-8.58095e-08
1.49706e-06
-1.27307e-07
1.47471e-06
-1.67753e-07
1.4545e-06
-2.0707e-07
1.43625e-06
-2.45186e-07
1.41977e-06
-2.82031e-07
1.40489e-06
-3.17538e-07
1.39146e-06
-3.5164e-07
1.37931e-06
-3.84272e-07
1.36831e-06
-4.1537e-07
1.35833e-06
-4.44868e-07
1.34922e-06
-4.727e-07
1.34085e-06
-4.98802e-07
1.33311e-06
-5.23106e-07
1.32587e-06
-5.45545e-07
1.31899e-06
-5.66052e-07
1.31235e-06
-5.84557e-07
1.30582e-06
-6.00991e-07
1.29927e-06
-6.1528e-07
1.29255e-06
-6.27349e-07
1.28553e-06
-6.37113e-07
1.27806e-06
-6.4448e-07
1.26997e-06
-6.49339e-07
1.26111e-06
-6.51555e-07
1.2513e-06
-6.5096e-07
1.24035e-06
-6.47331e-07
1.22808e-06
-6.40382e-07
1.2143e-06
-6.29731e-07
1.19882e-06
-6.14886e-07
1.18145e-06
-5.95216e-07
1.16205e-06
-5.69938e-07
1.14049e-06
-5.38117e-07
1.11676e-06
-4.987e-07
1.09097e-06
-4.50604e-07
1.06344e-06
-3.92888e-07
1.03477e-06
-3.25037e-07
1.00598e-06
-2.47389e-07
9.78606e-07
-1.5838e-07
3.07838e-07
-3.8363e-05
5.25892e-07
-3.8841e-08
1.5606e-06
-7.68803e-08
1.53509e-06
-1.14024e-07
1.51185e-06
-1.50186e-07
1.49067e-06
-1.8529e-07
1.47136e-06
-2.19264e-07
1.45375e-06
-2.52043e-07
1.43767e-06
-2.83568e-07
1.42298e-06
-3.13783e-07
1.40953e-06
-3.42636e-07
1.39717e-06
-3.70083e-07
1.38577e-06
-3.96082e-07
1.37521e-06
-4.20595e-07
1.36537e-06
-4.43594e-07
1.35611e-06
-4.65054e-07
1.34733e-06
-4.84959e-07
1.33889e-06
-5.033e-07
1.33069e-06
-5.20078e-07
1.3226e-06
-5.35304e-07
1.31449e-06
-5.48998e-07
1.30625e-06
-5.61192e-07
1.29773e-06
-5.71924e-07
1.28879e-06
-5.81238e-07
1.27929e-06
-5.89177e-07
1.26905e-06
-5.95776e-07
1.25789e-06
-6.01042e-07
1.24561e-06
-6.04936e-07
1.23198e-06
-6.07336e-07
1.2167e-06
-6.0799e-07
1.19948e-06
-6.06448e-07
1.17991e-06
-6.01966e-07
1.15757e-06
-5.93386e-07
1.13191e-06
-5.78982e-07
1.10236e-06
-5.56276e-07
1.06827e-06
-5.21872e-07
1.02903e-06
-4.7134e-07
9.84235e-07
-3.99332e-07
9.33975e-07
-3.00189e-07
8.79463e-07
-1.56236e-07
1.63885e-07
-3.90569e-05
5.3759e-07
-3.45898e-08
1.59519e-06
-6.84523e-08
1.56896e-06
-1.01492e-07
1.54489e-06
-1.33624e-07
1.5228e-06
-1.64771e-07
1.5025e-06
-1.94867e-07
1.48384e-06
-2.23851e-07
1.46666e-06
-2.51672e-07
1.4508e-06
-2.78284e-07
1.43614e-06
-3.03652e-07
1.42254e-06
-3.27746e-07
1.40987e-06
-3.50546e-07
1.39802e-06
-3.72044e-07
1.38687e-06
-3.92241e-07
1.37631e-06
-4.1115e-07
1.36624e-06
-4.288e-07
1.35654e-06
-4.45237e-07
1.34713e-06
-4.60524e-07
1.33789e-06
-4.74747e-07
1.32872e-06
-4.88017e-07
1.31952e-06
-5.00474e-07
1.31018e-06
-5.12287e-07
1.30061e-06
-5.23662e-07
1.29066e-06
-5.34843e-07
1.28023e-06
-5.46111e-07
1.26916e-06
-5.5779e-07
1.25729e-06
-5.70233e-07
1.24442e-06
-5.83818e-07
1.23029e-06
-5.98912e-07
1.21457e-06
-6.15823e-07
1.19682e-06
-6.347e-07
1.17644e-06
-6.55363e-07
1.15257e-06
-6.76991e-07
1.12399e-06
-6.97605e-07
1.08888e-06
-7.1316e-07
1.04459e-06
-7.16016e-07
9.87091e-07
-6.92343e-07
9.10302e-07
-6.17763e-07
8.04883e-07
-1.58184e-07
-2.95694e-07
-3.97681e-05
5.53033e-07
-3.05913e-08
1.62578e-06
-6.05265e-08
1.59889e-06
-8.97101e-08
1.57407e-06
-1.18058e-07
1.55115e-06
-1.45495e-07
1.52994e-06
-1.71957e-07
1.51031e-06
-1.9739e-07
1.49209e-06
-2.21748e-07
1.47516e-06
-2.44995e-07
1.45939e-06
-2.67105e-07
1.44464e-06
-2.88063e-07
1.43082e-06
-3.07865e-07
1.41782e-06
-3.26521e-07
1.40552e-06
-3.44055e-07
1.39384e-06
-3.60508e-07
1.38269e-06
-3.75938e-07
1.37197e-06
-3.90428e-07
1.36162e-06
-4.04083e-07
1.35154e-06
-4.17042e-07
1.34168e-06
-4.29477e-07
1.33195e-06
-4.41604e-07
1.32231e-06
-4.53688e-07
1.31269e-06
-4.66059e-07
1.30303e-06
-4.79124e-07
1.2933e-06
-4.93389e-07
1.28343e-06
-5.0948e-07
1.27339e-06
-5.2819e-07
1.26313e-06
-5.5052e-07
1.25262e-06
-5.77762e-07
1.24181e-06
-6.11599e-07
1.23066e-06
-6.54263e-07
1.21911e-06
-7.08764e-07
1.20708e-06
-7.79232e-07
1.19446e-06
-8.71436e-07
1.18109e-06
-9.93571e-07
1.16672e-06
-1.15748e-06
1.151e-06
-1.3805e-06
1.13333e-06
-1.68831e-06
1.11269e-06
-1.43627e-07
-1.84038e-06
-4.04981e-05
5.8639e-07
-2.68436e-08
1.65263e-06
-5.30983e-08
1.62515e-06
-7.86687e-08
1.59964e-06
-1.03471e-07
1.57595e-06
-1.27432e-07
1.5539e-06
-1.5049e-07
1.53336e-06
-1.72592e-07
1.51419e-06
-1.93698e-07
1.49627e-06
-2.13776e-07
1.47946e-06
-2.32807e-07
1.46368e-06
-2.50783e-07
1.4488e-06
-2.67708e-07
1.43474e-06
-2.83602e-07
1.42142e-06
-2.98497e-07
1.40874e-06
-3.12446e-07
1.39664e-06
-3.25518e-07
1.38505e-06
-3.37807e-07
1.37391e-06
-3.49431e-07
1.36317e-06
-3.60539e-07
1.35278e-06
-3.71315e-07
1.34273e-06
-3.81986e-07
1.33298e-06
-3.92829e-07
1.32353e-06
-4.04185e-07
1.31439e-06
-4.16475e-07
1.30559e-06
-4.30217e-07
1.29717e-06
-4.4606e-07
1.28923e-06
-4.64824e-07
1.28189e-06
-4.87555e-07
1.27535e-06
-5.15614e-07
1.26987e-06
-5.50794e-07
1.26584e-06
-5.95503e-07
1.26382e-06
-6.53037e-07
1.26461e-06
-7.27981e-07
1.2694e-06
-8.26835e-07
1.27994e-06
-9.58965e-07
1.29885e-06
-1.13808e-06
1.33011e-06
-1.38452e-06
1.37977e-06
-1.72816e-06
1.45634e-06
-1.28798e-07
-3.43975e-06
-4.12453e-05
6.18353e-07
-2.33445e-08
1.67597e-06
-4.61624e-08
1.64796e-06
-6.8358e-08
1.62184e-06
-8.98473e-08
1.59744e-06
-1.10557e-07
1.57461e-06
-1.30427e-07
1.55323e-06
-1.49404e-07
1.53317e-06
-1.67448e-07
1.51431e-06
-1.84531e-07
1.49655e-06
-2.00632e-07
1.47978e-06
-2.15745e-07
1.46391e-06
-2.29875e-07
1.44887e-06
-2.43038e-07
1.43458e-06
-2.55266e-07
1.42097e-06
-2.66605e-07
1.40798e-06
-2.77117e-07
1.39556e-06
-2.86882e-07
1.38367e-06
-2.95999e-07
1.37228e-06
-3.04589e-07
1.36137e-06
-3.12798e-07
1.35094e-06
-3.20796e-07
1.34098e-06
-3.28787e-07
1.33152e-06
-3.37007e-07
1.32261e-06
-3.45728e-07
1.31431e-06
-3.55265e-07
1.30671e-06
-3.65975e-07
1.29994e-06
-3.7826e-07
1.29418e-06
-3.92559e-07
1.28965e-06
-4.09336e-07
1.28665e-06
-4.29043e-07
1.28555e-06
-4.52055e-07
1.28683e-06
-4.78532e-07
1.29109e-06
-5.08187e-07
1.29905e-06
-5.39842e-07
1.3116e-06
-5.70673e-07
1.32968e-06
-5.9487e-07
1.35431e-06
-6.01346e-07
1.38625e-06
-5.67983e-07
1.42297e-06
-1.93495e-07
-3.81423e-06
-4.20268e-05
5.88052e-07
-2.00925e-08
1.69606e-06
-3.97156e-08
1.66759e-06
-5.87725e-08
1.6409e-06
-7.71781e-08
1.61584e-06
-9.48585e-08
1.59229e-06
-1.11751e-07
1.57012e-06
-1.27802e-07
1.54922e-06
-1.42969e-07
1.52948e-06
-1.57222e-07
1.5108e-06
-1.70536e-07
1.49309e-06
-1.829e-07
1.47628e-06
-1.94313e-07
1.46029e-06
-2.04782e-07
1.44505e-06
-2.14326e-07
1.43051e-06
-2.22975e-07
1.41663e-06
-2.30768e-07
1.40335e-06
-2.37758e-07
1.39066e-06
-2.44003e-07
1.37853e-06
-2.49575e-07
1.36695e-06
-2.54554e-07
1.35592e-06
-2.59025e-07
1.34545e-06
-2.63078e-07
1.33558e-06
-2.66802e-07
1.32633e-06
-2.70278e-07
1.31778e-06
-2.7357e-07
1.31e-06
-2.76706e-07
1.30307e-06
-2.79656e-07
1.29713e-06
-2.82297e-07
1.29229e-06
-2.84362e-07
1.28871e-06
-2.85369e-07
1.28655e-06
-2.84517e-07
1.28598e-06
-2.80542e-07
1.28711e-06
-2.71535e-07
1.29005e-06
-2.54697e-07
1.29476e-06
-2.26061e-07
1.30105e-06
-1.80197e-07
1.30844e-06
-1.10018e-07
1.31607e-06
-6.24928e-09
1.3192e-06
-2.60144e-07
-3.56034e-06
-4.28396e-05
5.52656e-07
-1.70878e-08
1.71315e-06
-3.37583e-08
1.68426e-06
-4.99128e-08
1.65705e-06
-6.54644e-08
1.63139e-06
-8.03369e-08
1.60717e-06
-9.44646e-08
1.58425e-06
-1.07792e-07
1.56255e-06
-1.20272e-07
1.54196e-06
-1.31867e-07
1.52239e-06
-1.4255e-07
1.50377e-06
-1.52299e-07
1.48603e-06
-1.61102e-07
1.46909e-06
-1.68954e-07
1.4529e-06
-1.75858e-07
1.43741e-06
-1.8182e-07
1.42259e-06
-1.86855e-07
1.40839e-06
-1.9098e-07
1.39478e-06
-1.94214e-07
1.38176e-06
-1.96574e-07
1.36931e-06
-1.98078e-07
1.35742e-06
-1.98732e-07
1.34611e-06
-1.98531e-07
1.33538e-06
-1.97448e-07
1.32525e-06
-1.95427e-07
1.31576e-06
-1.9237e-07
1.30694e-06
-1.88118e-07
1.29882e-06
-1.82438e-07
1.29145e-06
-1.74992e-07
1.28484e-06
-1.65311e-07
1.27903e-06
-1.52759e-07
1.274e-06
-1.36497e-07
1.26971e-06
-1.15444e-07
1.26606e-06
-8.82506e-08
1.26285e-06
-5.32791e-08
1.25979e-06
-8.63234e-09
1.2564e-06
4.77696e-08
1.25204e-06
1.18023e-07
1.24581e-06
2.03831e-07
1.2334e-06
-2.885e-07
-3.06801e-06
-4.36709e-05
5.42845e-07
-1.43321e-08
1.72748e-06
-2.82942e-08
1.69822e-06
-4.17854e-08
1.67054e-06
-5.47161e-08
1.64432e-06
-6.70075e-08
1.61946e-06
-7.85904e-08
1.59584e-06
-8.94048e-08
1.57336e-06
-9.93993e-08
1.55195e-06
-1.0853e-07
1.53152e-06
-1.16761e-07
1.51201e-06
-1.24063e-07
1.49333e-06
-1.30411e-07
1.47544e-06
-1.35786e-07
1.45828e-06
-1.40175e-07
1.4418e-06
-1.43564e-07
1.42598e-06
-1.45942e-07
1.41077e-06
-1.47299e-07
1.39614e-06
-1.47621e-07
1.38208e-06
-1.46886e-07
1.36857e-06
-1.45066e-07
1.3556e-06
-1.42119e-07
1.34316e-06
-1.37984e-07
1.33124e-06
-1.32576e-07
1.31984e-06
-1.25779e-07
1.30897e-06
-1.17441e-07
1.2986e-06
-1.07362e-07
1.28874e-06
-9.52917e-08
1.27938e-06
-8.09216e-08
1.27047e-06
-6.3883e-08
1.26199e-06
-4.3752e-08
1.25387e-06
-2.00622e-08
1.24602e-06
7.6661e-09
1.23833e-06
3.98774e-08
1.23064e-06
7.69021e-08
1.22276e-06
1.18842e-07
1.21446e-06
1.65408e-07
1.20548e-06
2.15707e-07
1.19552e-06
2.678e-07
1.1813e-06
-3.06073e-07
-2.49413e-06
-4.45063e-05
5.29254e-07
-1.18284e-08
1.73931e-06
-2.33294e-08
1.70972e-06
-3.44001e-08
1.68161e-06
-4.49485e-08
1.65487e-06
-5.48928e-08
1.6294e-06
-6.41602e-08
1.6051e-06
-7.26867e-08
1.58189e-06
-8.04155e-08
1.55968e-06
-8.7297e-08
1.53841e-06
-9.32874e-08
1.518e-06
-9.83482e-08
1.49839e-06
-1.02445e-07
1.47953e-06
-1.05548e-07
1.46138e-06
-1.07627e-07
1.44388e-06
-1.08656e-07
1.42701e-06
-1.08606e-07
1.41072e-06
-1.07447e-07
1.39498e-06
-1.05144e-07
1.37978e-06
-1.01656e-07
1.36509e-06
-9.69336e-08
1.35088e-06
-9.09133e-08
1.33714e-06
-8.35175e-08
1.32384e-06
-7.46496e-08
1.31098e-06
-6.41912e-08
1.29851e-06
-5.19989e-08
1.28641e-06
-3.79028e-08
1.27465e-06
-2.17066e-08
1.26318e-06
-3.18969e-09
1.25196e-06
1.78848e-08
1.24092e-06
4.1757e-08
1.23e-06
6.86481e-08
1.21913e-06
9.87264e-08
1.20825e-06
1.32059e-07
1.19731e-06
1.68546e-07
1.18627e-06
2.07835e-07
1.17517e-06
2.49211e-07
1.1641e-06
2.91482e-07
1.15325e-06
3.32647e-07
1.14014e-06
-2.98984e-07
-1.8625e-06
-4.52985e-05
4.93233e-07
-9.57934e-09
1.74889e-06
-1.88701e-08
1.71901e-06
-2.77676e-08
1.69051e-06
-3.61778e-08
1.66328e-06
-4.40165e-08
1.63724e-06
-5.12081e-08
1.61229e-06
-5.76848e-08
1.58837e-06
-6.33854e-08
1.56538e-06
-6.8255e-08
1.54328e-06
-7.22438e-08
1.52198e-06
-7.53063e-08
1.50145e-06
-7.74004e-08
1.48163e-06
-7.84866e-08
1.46247e-06
-7.8527e-08
1.44392e-06
-7.74845e-08
1.42596e-06
-7.5321e-08
1.40855e-06
-7.1997e-08
1.39166e-06
-6.74698e-08
1.37525e-06
-6.16925e-08
1.35931e-06
-5.4612e-08
1.3438e-06
-4.61679e-08
1.32869e-06
-3.62911e-08
1.31397e-06
-2.49018e-08
1.29959e-06
-1.19084e-08
1.28551e-06
2.79363e-09
1.27171e-06
1.93232e-08
1.25812e-06
3.7814e-08
1.24469e-06
5.84146e-08
1.23136e-06
8.12887e-08
1.21804e-06
1.06614e-07
1.20467e-06
1.34581e-07
1.19117e-06
1.6539e-07
1.17744e-06
1.99246e-07
1.16345e-06
2.36351e-07
1.14917e-06
2.76884e-07
1.13464e-06
3.20958e-07
1.12002e-06
3.6854e-07
1.10566e-06
4.19006e-07
1.08967e-06
-2.25385e-07
-1.21811e-06
-4.59153e-05
3.91432e-07
-7.58691e-09
1.75648e-06
-1.49204e-08
1.72635e-06
-2.18951e-08
1.69748e-06
-2.8416e-08
1.6698e-06
-3.43972e-08
1.64322e-06
-3.97612e-08
1.61766e-06
-4.44376e-08
1.59304e-06
-4.83622e-08
1.56931e-06
-5.14761e-08
1.54639e-06
-5.37252e-08
1.52423e-06
-5.5059e-08
1.50279e-06
-5.54303e-08
1.482e-06
-5.47941e-08
1.46183e-06
-5.3107e-08
1.44224e-06
-5.03269e-08
1.42318e-06
-4.64118e-08
1.40464e-06
-4.13199e-08
1.38657e-06
-3.50087e-08
1.36894e-06
-2.74346e-08
1.35173e-06
-1.85533e-08
1.33492e-06
-8.31893e-09
1.31846e-06
3.31517e-09
1.30233e-06
1.63968e-08
1.2865e-06
3.09744e-08
1.27094e-06
4.70976e-08
1.25558e-06
6.48176e-08
1.2404e-06
8.41891e-08
1.22532e-06
1.05275e-07
1.21027e-06
1.28153e-07
1.19517e-06
1.52931e-07
1.1799e-06
1.79767e-07
1.16433e-06
2.08907e-07
1.1483e-06
2.40745e-07
1.13162e-06
2.75907e-07
1.11401e-06
3.15406e-07
1.09514e-06
3.60866e-07
1.07456e-06
4.14901e-07
1.05163e-06
4.81388e-07
1.02319e-06
-1.61962e-08
-7.20529e-07
-4.60867e-05
1.55184e-07
-5.85091e-09
1.76233e-06
-1.14805e-08
1.73198e-06
-1.67838e-08
1.70279e-06
-2.16662e-08
1.67469e-06
-2.60417e-08
1.6476e-06
-2.98319e-08
1.62145e-06
-3.29652e-08
1.59618e-06
-3.53758e-08
1.57172e-06
-3.70027e-08
1.54802e-06
-3.77891e-08
1.52502e-06
-3.76816e-08
1.50268e-06
-3.66301e-08
1.48095e-06
-3.45864e-08
1.45979e-06
-3.15045e-08
1.43915e-06
-2.73402e-08
1.41902e-06
-2.20507e-08
1.39935e-06
-1.55946e-08
1.38011e-06
-7.93275e-09
1.36128e-06
9.72009e-10
1.34283e-06
1.11533e-08
1.32473e-06
2.26401e-08
1.30697e-06
3.54551e-08
1.28952e-06
4.96121e-08
1.27235e-06
6.51136e-08
1.25543e-06
8.19473e-08
1.23875e-06