/*--------------------------------*- C++ -*----------------------------------*\
  =========                 |
  \\      /  F ield         | OpenFOAM: The Open Source CFD Toolbox
   \\    /   O peration     | Website:  https://openfoam.org
    \\  /    A nd           | Version:  10
     \\/     M anipulation  |
\*---------------------------------------------------------------------------*/
FoamFile
{
    format      ascii;
    class       volVectorField;
    location    "39";
    object      Ua;
}
// * * * * * * * * * * * * * * * * * * * * * * * * * * * * * * * * * * * * * //

dimensions      [0 1 -1 0 0 0 0];

internalField   nonuniform List<vector> 
100
(
(0.000200511 0 0)
(0.000400624 0 0)
(0.000399821 0 0)
(0.00039901 0 0)
(0.000398194 0 0)
(0.000397375 0 0)
(0.000396554 0 0)
(0.000395731 0 0)
(0.000394908 0 0)
(0.000394083 0 0)
(0.000393257 0 0)
(0.000392431 0 0)
(0.000391603 0 0)
(0.000390774 0 0)
(0.000389944 0 0)
(0.000389113 0 0)
(0.00038828 0 0)
(0.000387447 0 0)
(0.000386611 0 0)
(0.000385774 0 0)
(0.000384936 0 0)
(0.000384096 0 0)
(0.000383254 0 0)
(0.00038241 0 0)
(0.000381565 0 0)
(0.000380717 0 0)
(0.000379867 0 0)
(0.000379015 0 0)
(0.00037816 0 0)
(0.000377303 0 0)
(0.000376443 0 0)
(0.000375581 0 0)
(0.000374716 0 0)
(0.000373848 0 0)
(0.000372976 0 0)
(0.000372102 0 0)
(0.000371224 0 0)
(0.000370342 0 0)
(0.000369457 0 0)
(0.000368567 0 0)
(0.000367673 0 0)
(0.000366775 0 0)
(0.000365872 0 0)
(0.000364964 0 0)
(0.000364051 0 0)
(0.000363132 0 0)
(0.000362207 0 0)
(0.000361275 0 0)
(0.000360336 0 0)
(0.00035939 0 0)
(0.000358435 0 0)
(0.00035747 0 0)
(0.000356496 0 0)
(0.000355511 0 0)
(0.000354513 0 0)
(0.000353501 0 0)
(0.000352474 0 0)
(0.000351428 0 0)
(0.000350363 0 0)
(0.000349273 0 0)
(0.000348156 0 0)
(0.000347005 0 0)
(0.000345815 0 0)
(0.000344577 0 0)
(0.000343278 0 0)
(0.000341903 0 0)
(0.000340429 0 0)
(0.000338822 0 0)
(0.000337034 0 0)
(0.000334986 0 0)
(0.000332546 0 0)
(0.000329469 0 0)
(0.000325246 0 0)
(0.000318604 0 0)
(0.000305155 0 0)
(0.000253378 0 0)
(0.000105616 0 0)
(1.69413e-07 0 0)
(0 0 0)
(0 0 0)
(0 0 0)
(0 0 0)
(0 0 0)
(0 0 0)
(0 0 0)
(0 0 0)
(0 0 0)
(0 0 0)
(0 0 0)
(0 0 0)
(0 0 0)
(0 0 0)
(0 0 0)
(0 0 0)
(0 0 0)
(0 0 0)
(0 0 0)
(0 0 0)
(0 0 0)
(0 0 0)
)
;

boundaryField
{
    inlet
    {
        type            fixedValue;
        value           uniform (0 0 0);
    }
    outlet
    {
        type            zeroGradient;
    }
    yzfaces
    {
        type            empty;
    }
}


// ************************************************************************* //
