/*--------------------------------*- C++ -*----------------------------------*\
  =========                 |
  \\      /  F ield         | OpenFOAM: The Open Source CFD Toolbox
   \\    /   O peration     | Website:  https://openfoam.org
    \\  /    A nd           | Version:  10
     \\/     M anipulation  |
\*---------------------------------------------------------------------------*/
FoamFile
{
    format      ascii;
    class       volScalarField;
    location    "500";
    object      p;
}
// * * * * * * * * * * * * * * * * * * * * * * * * * * * * * * * * * * * * * //

dimensions      [1 -1 -2 0 0 0 0];

internalField   nonuniform List<scalar> 
3200
(
101.072
101.072
101.073
101.074
101.076
101.078
101.081
101.083
101.086
101.089
101.092
101.096
101.099
101.103
101.106
101.109
101.113
101.116
101.119
101.122
101.125
101.128
101.131
101.133
101.136
101.138
101.14
101.142
101.143
101.145
101.146
101.147
101.148
101.149
101.149
101.15
101.15
101.15
101.15
101.15
98.618
98.6185
98.6195
98.6209
98.6227
98.6248
98.6273
98.63
98.6329
98.6361
98.6394
98.6428
98.6463
98.6498
98.6533
98.6569
98.6603
98.6637
98.667
98.6702
98.6733
98.6762
98.679
98.6816
98.684
98.6862
98.6883
98.6902
98.6918
98.6933
98.6946
98.6957
98.6966
98.6974
98.6979
98.6983
98.6986
98.6987
98.6986
98.6984
96.1635
96.164
96.165
96.1664
96.1683
96.1706
96.1732
96.176
96.1791
96.1824
96.1859
96.1895
96.1931
96.1968
96.2005
96.2042
96.2079
96.2115
96.215
96.2183
96.2216
96.2246
96.2276
96.2303
96.2329
96.2352
96.2374
96.2394
96.2411
96.2427
96.2441
96.2453
96.2463
96.247
96.2477
96.2481
96.2484
96.2484
96.2484
96.2482
93.7078
93.7083
93.7094
93.711
93.713
93.7154
93.7182
93.7212
93.7246
93.7281
93.7318
93.7357
93.7396
93.7436
93.7476
93.7516
93.7555
93.7594
93.7631
93.7667
93.7702
93.7736
93.7767
93.7797
93.7824
93.785
93.7874
93.7895
93.7914
93.7931
93.7946
93.7959
93.797
93.7979
93.7985
93.799
93.7993
93.7995
93.7994
93.7992
91.2509
91.2515
91.2527
91.2544
91.2566
91.2593
91.2623
91.2656
91.2693
91.2731
91.2772
91.2814
91.2857
91.2901
91.2945
91.2988
91.3031
91.3074
91.3115
91.3155
91.3193
91.323
91.3265
91.3297
91.3328
91.3356
91.3382
91.3406
91.3427
91.3446
91.3463
91.3477
91.3489
91.3499
91.3507
91.3513
91.3516
91.3518
91.3517
91.3515
88.7928
88.7935
88.7948
88.7967
88.7991
88.802
88.8054
88.8091
88.8131
88.8174
88.8219
88.8266
88.8314
88.8362
88.8411
88.846
88.8508
88.8555
88.8601
88.8646
88.8689
88.873
88.8769
88.8805
88.884
88.8872
88.8901
88.8928
88.8952
88.8973
88.8992
88.9008
88.9022
88.9034
88.9042
88.9049
88.9053
88.9055
88.9055
88.9053
86.3332
86.334
86.3355
86.3376
86.3403
86.3436
86.3473
86.3515
86.356
86.3608
86.3659
86.3712
86.3766
86.382
86.3875
86.393
86.3984
86.4038
86.409
86.414
86.4189
86.4236
86.428
86.4322
86.4361
86.4397
86.443
86.4461
86.4489
86.4513
86.4535
86.4554
86.457
86.4583
86.4593
86.4601
86.4606
86.4609
86.4609
86.4607
83.8721
83.873
83.8746
83.877
83.8801
83.8838
83.888
83.8927
83.8979
83.9033
83.9091
83.915
83.9212
83.9274
83.9337
83.9399
83.9461
83.9522
83.9581
83.9639
83.9695
83.9748
83.9799
83.9847
83.9892
83.9934
83.9972
84.0007
84.0039
84.0068
84.0093
84.0115
84.0134
84.0149
84.0161
84.0171
84.0177
84.018
84.0181
84.0179
81.4092
81.4101
81.412
81.4147
81.4182
81.4224
81.4273
81.4326
81.4385
81.4447
81.4513
81.4581
81.4651
81.4722
81.4794
81.4866
81.4937
81.5007
81.5076
81.5142
81.5207
81.5268
81.5327
81.5382
81.5434
81.5483
81.5528
81.5569
81.5606
81.564
81.5669
81.5695
81.5717
81.5735
81.575
81.5761
81.5768
81.5773
81.5774
81.5773
78.9442
78.9453
78.9474
78.9505
78.9545
78.9593
78.9649
78.971
78.9777
78.9849
78.9924
79.0002
79.0083
79.0165
79.0248
79.0331
79.0413
79.0494
79.0573
79.065
79.0725
79.0797
79.0865
79.0929
79.099
79.1047
79.1099
79.1147
79.1191
79.123
79.1265
79.1296
79.1322
79.1343
79.1361
79.1374
79.1384
79.1389
79.1391
79.139
76.4768
76.4781
76.4806
76.4841
76.4887
76.4942
76.5006
76.5076
76.5153
76.5235
76.5322
76.5413
76.5506
76.56
76.5696
76.5792
76.5887
76.5981
76.6074
76.6163
76.625
76.6334
76.6414
76.6489
76.6561
76.6627
76.6689
76.6746
76.6797
76.6844
76.6885
76.6921
76.6952
76.6978
76.6998
76.7015
76.7026
76.7033
76.7036
76.7035
74.0069
74.0083
74.0111
74.0152
74.0205
74.0268
74.0341
74.0422
74.051
74.0605
74.0705
74.081
74.0917
74.1027
74.1138
74.1249
74.136
74.147
74.1577
74.1682
74.1784
74.1882
74.1975
74.2064
74.2148
74.2227
74.2299
74.2366
74.2427
74.2482
74.2531
74.2574
74.2611
74.2642
74.2667
74.2687
74.2701
74.271
74.2714
74.2713
71.5338
71.5355
71.5387
71.5434
71.5494
71.5567
71.565
71.5744
71.5846
71.5955
71.607
71.6191
71.6315
71.6443
71.6571
71.6701
71.683
71.6958
71.7084
71.7207
71.7326
71.7441
71.7551
71.7656
71.7755
71.7848
71.7934
71.8013
71.8086
71.8151
71.821
71.8261
71.8305
71.8342
71.8373
71.8397
71.8414
71.8425
71.843
71.8429
69.0573
69.0592
69.0629
69.0682
69.0751
69.0834
69.093
69.1038
69.1155
69.1281
69.1414
69.1554
69.1698
69.1845
69.1995
69.2146
69.2296
69.2446
69.2593
69.2737
69.2877
69.3013
69.3143
69.3266
69.3384
69.3494
69.3596
69.3691
69.3777
69.3855
69.3925
69.3987
69.404
69.4085
69.4121
69.415
69.4171
69.4185
69.4192
69.4191
66.5767
66.5789
66.5831
66.5892
66.5971
66.6067
66.6176
66.63
66.6435
66.658
66.6733
66.6894
66.7061
66.7232
66.7406
66.7581
66.7757
66.7932
66.8104
66.8274
66.8439
66.8598
66.8752
66.8898
66.9037
66.9168
66.929
66.9403
66.9507
66.9601
66.9684
66.9758
66.9823
66.9877
66.9921
66.9957
66.9983
67
67.0008
67.0008
64.0916
64.0941
64.0989
64.1059
64.1149
64.1257
64.1383
64.1524
64.1679
64.1846
64.2023
64.2208
64.2401
64.2599
64.2801
64.3005
64.321
64.3414
64.3617
64.3816
64.401
64.4198
64.438
64.4554
64.472
64.4876
64.5022
64.5157
64.5281
64.5394
64.5495
64.5585
64.5662
64.5728
64.5783
64.5826
64.5858
64.5879
64.589
64.5891
61.6012
61.604
61.6095
61.6174
61.6277
61.6401
61.6544
61.6705
61.6882
61.7073
61.7276
61.749
61.7712
61.7941
61.8175
61.8413
61.8652
61.8891
61.9128
61.9362
61.9591
61.9814
62.003
62.0237
62.0434
62.0621
62.0796
62.0958
62.1108
62.1244
62.1367
62.1476
62.157
62.1651
62.1717
62.177
62.1809
62.1836
62.185
62.1852
59.105
59.1082
59.1143
59.1233
59.1349
59.149
59.1652
59.1836
59.2037
59.2255
59.2488
59.2733
59.2989
59.3254
59.3525
59.38
59.4079
59.4358
59.4636
59.4911
59.5181
59.5445
59.5702
59.5948
59.6184
59.6408
59.6619
59.6815
59.6996
59.7162
59.7311
59.7444
59.7559
59.7658
59.774
59.7805
59.7854
59.7887
59.7905
59.7908
56.602
56.6056
56.6126
56.6227
56.6357
56.6516
56.67
56.6907
56.7136
56.7385
56.765
56.793
56.8224
56.8528
56.8841
56.916
56.9484
56.981
57.0135
57.0459
57.0778
57.1091
57.1396
57.1691
57.1974
57.2243
57.2498
57.2736
57.2956
57.3158
57.3341
57.3504
57.3646
57.3768
57.387
57.3951
57.4012
57.4054
57.4077
57.4081
54.0916
54.0956
54.1033
54.1147
54.1293
54.1471
54.1678
54.1912
54.217
54.2451
54.2752
54.3072
54.3407
54.3756
54.4116
54.4485
54.486
54.524
54.5621
54.6001
54.6378
54.6749
54.7112
54.7465
54.7805
54.8131
54.8439
54.8729
54.8999
54.9247
54.9473
54.9674
54.9851
55.0004
55.0131
55.0232
55.031
55.0363
55.0392
55.0399
51.5727
51.5772
51.5858
51.5984
51.6147
51.6345
51.6576
51.6838
51.7128
51.7444
51.7785
51.8147
51.8528
51.8926
51.9338
51.9763
52.0197
52.0638
52.1083
52.1529
52.1974
52.2414
52.2847
52.327
52.368
52.4074
52.445
52.4806
52.5138
52.5446
52.5726
52.5978
52.62
52.6392
52.6552
52.6682
52.678
52.6848
52.6886
52.6896
49.0445
49.0494
49.0589
49.0728
49.0909
49.1128
49.1384
49.1675
49.1999
49.2352
49.2734
49.3141
49.3572
49.4024
49.4494
49.4981
49.548
49.5991
49.6508
49.7031
49.7554
49.8076
49.8593
49.9101
49.9596
50.0076
50.0537
50.0975
50.1387
50.1771
50.2123
50.2441
50.2723
50.2968
50.3174
50.3341
50.3468
50.3557
50.3607
50.3621
46.5061
46.5114
46.5218
46.537
46.5568
46.5809
46.609
46.6411
46.6769
46.7161
46.7586
46.8041
46.8524
46.9033
46.9566
47.012
47.0692
47.1279
47.1879
47.2489
47.3104
47.3721
47.4337
47.4947
47.5547
47.6132
47.6699
47.7243
47.7758
47.8242
47.8689
47.9096
47.946
47.9777
48.0046
48.0266
48.0434
48.0552
48.062
48.064
43.9564
43.9622
43.9734
43.9899
44.0113
44.0375
44.0682
44.1033
44.1424
44.1855
44.2324
44.2828
44.3365
44.3934
44.4532
44.5158
44.5808
44.648
44.7171
44.7878
44.8598
44.9326
45.0058
45.079
45.1516
45.2233
45.2933
45.3611
45.4261
45.4876
45.5452
45.5981
45.6458
45.6878
45.7237
45.7532
45.7761
45.7922
45.8016
45.8044
41.3946
41.4008
41.4128
41.4305
41.4535
41.4817
41.5148
41.5526
41.595
41.6419
41.693
41.7482
41.8074
41.8703
41.9369
42.0068
42.08
42.1562
42.2352
42.3166
42.4001
42.4854
42.572
42.6596
42.7474
42.8351
42.9217
43.0067
43.0893
43.1685
43.2436
43.3135
43.3774
43.4343
43.4836
43.5246
43.5566
43.5795
43.593
43.5973
38.8198
38.8263
38.8391
38.8578
38.8822
38.9121
38.9474
38.9878
39.0332
39.0836
39.1387
39.1984
39.2627
39.3315
39.4046
39.4819
39.5633
39.6487
39.7378
39.8305
39.9265
40.0256
40.1273
40.2312
40.3369
40.4437
40.5509
40.6577
40.7631
40.866
40.9652
41.0593
41.1468
41.2263
41.2964
41.3556
41.4026
41.4367
41.4572
41.4641
36.2312
36.238
36.2513
36.2709
36.2965
36.3279
36.3649
36.4075
36.4555
36.5088
36.5674
36.6312
36.7001
36.7741
36.8532
36.9374
37.0266
37.1208
37.22
37.324
37.4327
37.5461
37.6639
37.7859
37.9116
38.0406
38.1724
38.3061
38.4406
38.5748
38.7072
38.8359
38.9587
39.0734
39.1771
39.2671
39.3407
39.3954
39.4293
39.4415
33.6282
33.6353
33.649
33.6692
33.6956
33.728
33.7664
33.8106
33.8605
33.9161
33.9774
34.0444
34.117
34.1954
34.2796
34.3696
34.4656
34.5676
34.6758
34.7902
34.911
35.0382
35.1719
35.3122
35.459
35.6121
35.7714
35.9365
36.1065
36.2807
36.4574
36.6349
36.8105
36.9808
37.1414
37.2872
37.4121
37.5095
37.5733
37.5985
31.0105
31.0176
31.0316
31.052
31.0789
31.1119
31.151
31.1961
31.2472
31.3042
31.3672
31.4362
31.5113
31.5927
31.6804
31.7747
31.8758
31.9838
32.099
32.2218
32.3525
32.4914
32.6391
32.7958
32.9621
33.1384
33.3253
33.5232
33.7322
33.9527
34.1843
34.4263
34.6769
34.9333
35.1906
35.4412
35.6742
35.8741
36.0211
36.0921
28.3778
28.3849
28.3988
28.4192
28.446
28.479
28.5182
28.5634
28.6146
28.672
28.7355
28.8052
28.8813
28.964
29.0533
29.1497
29.2534
29.3647
29.4841
29.6119
29.7488
29.8954
30.0523
30.2205
30.401
30.595
30.8037
31.0288
31.2723
31.5362
31.823
32.1356
32.4768
32.8492
33.2545
33.6919
34.1549
34.626
35.0656
35.3948
25.7301
25.737
25.7506
25.7707
25.7969
25.8293
25.8677
25.9121
25.9626
26.0191
26.0817
26.1506
26.2259
26.3078
26.3966
26.4925
26.5959
26.7072
26.8268
26.9553
27.0933
27.2416
27.4011
27.5728
27.758
27.9583
28.1755
28.4122
28.6713
28.9567
29.2736
29.6289
30.032
30.4966
31.0424
31.6993
32.5136
33.5587
34.9542
42.9914
23.0677
23.0744
23.0875
23.1067
23.1319
23.163
23.1999
23.2426
23.2911
23.3455
23.4058
23.4722
23.5449
23.6239
23.7097
23.8024
23.9023
24.01
24.1257
24.2499
24.3834
24.5267
24.6806
24.8461
25.0243
25.2165
25.4243
25.6495
25.8945
26.1621
26.4557
26.7792
27.1375
27.5359
27.9798
28.4733
29.0169
29.6016
30.3456
80.2028
20.3914
20.3976
20.4099
20.4279
20.4515
20.4807
20.5153
20.5553
20.6008
20.6519
20.7085
20.7708
20.839
20.9131
20.9935
21.0803
21.1738
21.2743
21.3822
21.4977
21.6212
21.7534
21.8945
22.0452
22.2061
22.3778
22.5609
22.7563
22.9646
23.1865
23.4226
23.6733
23.9387
24.2185
24.512
24.8181
25.1363
25.4687
26.4268
64.5538
17.7019
17.7076
17.7187
17.7352
17.7567
17.7833
17.8149
17.8514
17.8929
17.9394
17.991
18.0478
18.1098
18.1772
18.2502
18.3288
18.4132
18.5037
18.6004
18.7035
18.8132
18.9296
19.0529
19.1832
19.3204
19.4647
19.6157
19.7732
19.9364
20.1042
20.275
20.4464
20.6148
20.7747
20.9185
21.0347
21.1063
21.1073
20.9976
20.8697
15.0004
15.0054
15.0153
15.0298
15.0488
15.0723
15.1001
15.1324
15.169
15.21
15.2554
15.3053
15.3598
15.4189
15.4827
15.5513
15.6247
15.7031
15.7864
15.8748
15.968
16.0662
16.1692
16.2767
16.3885
16.504
16.6225
16.7433
16.8652
16.9866
17.1056
17.2198
17.3263
17.4216
17.5017
17.5625
17.6003
17.6132
17.6039
17.5842
12.2883
12.2925
12.3009
12.3132
12.3293
12.3491
12.3727
12.4
12.4309
12.4655
12.5039
12.5459
12.5917
12.6413
12.6948
12.752
12.8131
12.878
12.9467
13.019
13.0948
13.174
13.2562
13.3411
13.4282
13.5169
13.6065
13.696
13.7844
13.8705
13.9527
14.0295
14.0993
14.1603
14.211
14.2501
14.277
14.2921
14.2965
14.2923
9.56719
9.5706
9.57727
9.58708
9.59995
9.61581
9.63463
9.65637
9.68103
9.70861
9.7391
9.77251
9.80885
9.84812
9.89031
9.93539
9.98333
10.034
10.0875
10.1434
10.2017
10.2621
10.3243
10.3879
10.4525
10.5175
10.5823
10.6462
10.7083
10.7678
10.8238
10.8754
10.9217
10.9619
10.9953
11.0215
11.0405
11.0523
11.0575
11.0566
6.83895
6.84144
6.84629
6.85344
6.86281
6.87436
6.88805
6.90387
6.9218
6.94183
6.96395
6.98817
7.01447
7.04285
7.07326
7.10569
7.14007
7.17632
7.21434
7.254
7.2951
7.33745
7.38078
7.42479
7.4691
7.51333
7.55701
7.59965
7.64073
7.67971
7.71607
7.74928
7.77889
7.80451
7.82587
7.8428
7.85525
7.86331
7.86716
7.86703
4.10549
4.107
4.10995
4.11429
4.11999
4.127
4.13532
4.14492
4.1558
4.16795
4.18136
4.19602
4.21193
4.22907
4.24742
4.26694
4.2876
4.30933
4.33206
4.35569
4.3801
4.40515
4.43066
4.45645
4.4823
4.50794
4.53313
4.55757
4.58098
4.60308
4.62357
4.64222
4.65879
4.67311
4.68506
4.69456
4.7016
4.70622
4.70849
4.70854
1.36885
1.36936
1.37035
1.3718
1.37371
1.37607
1.37886
1.38208
1.38572
1.38979
1.39428
1.39919
1.40452
1.41025
1.41638
1.42289
1.42978
1.43702
1.44458
1.45242
1.46051
1.4688
1.47722
1.48571
1.4942
1.5026
1.51083
1.51879
1.5264
1.53356
1.54019
1.5462
1.55154
1.55616
1.56
1.56307
1.56534
1.56684
1.56759
1.56762
101.149
101.149
101.148
101.147
101.147
101.145
101.144
101.143
101.141
101.139
101.137
101.135
101.132
101.13
101.127
101.124
101.121
101.118
101.114
101.111
101.107
101.103
101.099
101.095
101.091
101.087
101.083
101.079
101.075
101.071
101.067
101.064
101.06
101.057
101.055
101.052
101.05
101.049
101.048
101.047
98.698
98.6975
98.6969
98.6961
98.6951
98.694
98.6926
98.6911
98.6894
98.6876
98.6855
98.6832
98.6807
98.6781
98.6752
98.6722
98.669
98.6656
98.6621
98.6584
98.6546
98.6507
98.6466
98.6425
98.6384
98.6342
98.63
98.6259
98.6218
98.6178
98.614
98.6104
98.607
98.6039
98.6011
98.5987
98.5966
98.595
98.594
98.5934
96.2478
96.2473
96.2466
96.2458
96.2448
96.2436
96.2422
96.2407
96.2389
96.2369
96.2348
96.2324
96.2298
96.227
96.2241
96.2209
96.2176
96.214
96.2103
96.2065
96.2025
96.1984
96.1942
96.1899
96.1855
96.1811
96.1768
96.1725
96.1682
96.1641
96.1601
96.1563
96.1528
96.1495
96.1466
96.144
96.1419
96.1403
96.1391
96.1385
93.7988
93.7983
93.7976
93.7967
93.7957
93.7944
93.7929
93.7913
93.7894
93.7873
93.785
93.7825
93.7797
93.7768
93.7736
93.7702
93.7667
93.7629
93.7589
93.7548
93.7506
93.7462
93.7417
93.7371
93.7325
93.7278
93.7232
93.7186
93.714
93.7096
93.7054
93.7014
93.6976
93.6941
93.691
93.6883
93.686
93.6843
93.6831
93.6824
91.3512
91.3506
91.3499
91.3489
91.3478
91.3464
91.3449
91.3431
91.341
91.3388
91.3363
91.3335
91.3305
91.3273
91.3239
91.3202
91.3163
91.3122
91.308
91.3035
91.2989
91.2941
91.2892
91.2843
91.2792
91.2742
91.2691
91.2641
91.2592
91.2545
91.2499
91.2455
91.2414
91.2377
91.2343
91.2314
91.2289
91.227
91.2257
91.225
88.9049
88.9044
88.9036
88.9025
88.9013
88.8998
88.8981
88.8961
88.8939
88.8914
88.8886
88.8856
88.8823
88.8788
88.875
88.871
88.8667
88.8622
88.8574
88.8525
88.8474
88.8421
88.8368
88.8313
88.8258
88.8202
88.8146
88.8091
88.8037
88.7985
88.7935
88.7887
88.7842
88.7801
88.7764
88.7732
88.7705
88.7684
88.7669
88.7662
86.4603
86.4597
86.4588
86.4577
86.4563
86.4547
86.4528
86.4506
86.4481
86.4453
86.4423
86.4389
86.4352
86.4313
86.427
86.4225
86.4177
86.4127
86.4074
86.4019
86.3962
86.3903
86.3843
86.3782
86.372
86.3658
86.3596
86.3535
86.3475
86.3417
86.3361
86.3307
86.3258
86.3212
86.3171
86.3135
86.3105
86.3082
86.3066
86.3058
84.0175
84.0168
84.0159
84.0146
84.0131
84.0113
84.0091
84.0067
84.0039
84.0007
83.9973
83.9935
83.9893
83.9849
83.9801
83.975
83.9695
83.9638
83.9579
83.9517
83.9452
83.9386
83.9318
83.925
83.918
83.911
83.9041
83.8972
83.8904
83.8839
83.8776
83.8716
83.866
83.8609
83.8563
83.8523
83.849
83.8464
83.8446
83.8437
81.5768
81.576
81.575
81.5736
81.5719
81.5698
81.5674
81.5646
81.5614
81.5578
81.5539
81.5495
81.5448
81.5397
81.5343
81.5284
81.5223
81.5158
81.509
81.5019
81.4946
81.4871
81.4794
81.4715
81.4636
81.4557
81.4478
81.44
81.4324
81.425
81.4179
81.4111
81.4048
81.399
81.3938
81.3893
81.3856
81.3827
81.3806
81.3796
79.1385
79.1376
79.1365
79.1349
79.1329
79.1306
79.1278
79.1246
79.1209
79.1168
79.1123
79.1073
79.1019
79.096
79.0898
79.0831
79.076
79.0685
79.0607
79.0526
79.0442
79.0356
79.0268
79.0179
79.0089
78.9998
78.9908
78.9819
78.9732
78.9648
78.9567
78.949
78.9419
78.9353
78.9295
78.9244
78.9201
78.9168
78.9145
78.9134
76.7029
76.702
76.7007
76.6989
76.6966
76.6939
76.6907
76.687
76.6828
76.6781
76.6728
76.6671
76.6608
76.654
76.6468
76.639
76.6308
76.6222
76.6132
76.6039
76.5942
76.5843
76.5742
76.5639
76.5536
76.5432
76.5329
76.5228
76.5128
76.5032
76.494
76.4852
76.4771
76.4696
76.4629
76.4571
76.4523
76.4486
76.446
76.4446
74.2707
74.2697
74.2681
74.2661
74.2635
74.2603
74.2566
74.2523
74.2474
74.2419
74.2358
74.2291
74.2218
74.2139
74.2055
74.1965
74.187
74.177
74.1666
74.1558
74.1446
74.1331
74.1215
74.1096
74.0977
74.0858
74.0739
74.0623
74.0509
74.0399
74.0293
74.0193
74.01
74.0015
73.9939
73.9873
73.9818
73.9776
73.9746
73.9731
71.8423
71.8411
71.8394
71.837
71.834
71.8303
71.8259
71.8209
71.8152
71.8087
71.8016
71.7938
71.7852
71.776
71.7662
71.7557
71.7446
71.733
71.7208
71.7083
71.6953
71.682
71.6685
71.6548
71.6411
71.6273
71.6137
71.6003
71.5872
71.5746
71.5625
71.5511
71.5405
71.5308
71.5221
71.5146
71.5083
71.5035
71.5001
71.4984
69.4185
69.4171
69.4151
69.4123
69.4088
69.4045
69.3994
69.3934
69.3867
69.3791
69.3707
69.3615
69.3515
69.3407
69.3291
69.3168
69.3039
69.2903
69.2761
69.2614
69.2464
69.2309
69.2153
69.1994
69.1835
69.1676
69.1519
69.1365
69.1215
69.107
69.0932
69.0801
69.068
69.0569
69.047
69.0384
69.0313
69.0258
69.022
69.0201
67.0001
66.9985
66.9962
66.9929
66.9887
66.9836
66.9776
66.9706
66.9626
66.9537
66.9437
66.9328
66.921
66.9082
66.8946
66.8802
66.8649
66.849
66.8324
66.8153
66.7977
66.7798
66.7615
66.7432
66.7248
66.7064
66.6883
66.6706
66.6533
66.6367
66.6209
66.606
66.5921
66.5795
66.5682
66.5585
66.5504
66.5441
66.5398
66.5376
64.5882
64.5864
64.5836
64.5798
64.5748
64.5688
64.5616
64.5532
64.5437
64.5331
64.5213
64.5083
64.4943
64.4792
64.4631
64.446
64.4281
64.4093
64.3899
64.3699
64.3493
64.3284
64.3072
64.2859
64.2645
64.2434
64.2225
64.2021
64.1823
64.1633
64.1451
64.1281
64.1123
64.098
64.0852
64.0741
64.065
64.0579
64.053
64.0505
62.1842
62.1821
62.1788
62.1742
62.1682
62.161
62.1524
62.1424
62.131
62.1182
62.1041
62.0887
62.0719
62.054
62.0349
62.0147
61.9935
61.9714
61.9485
61.925
61.9009
61.8765
61.8518
61.8271
61.8024
61.778
61.754
61.7305
61.7078
61.6861
61.6654
61.646
61.6281
61.6118
61.5973
61.5848
61.5744
61.5664
61.5609
61.5581
59.7897
59.7872
59.7832
59.7777
59.7705
59.7618
59.7514
59.7393
59.7256
59.7102
59.6932
59.6747
59.6546
59.6332
59.6104
59.5863
59.5612
59.5351
59.5082
59.4805
59.4524
59.4239
59.3952
59.3665
59.3379
59.3098
59.2822
59.2553
59.2293
59.2045
59.181
59.159
59.1386
59.1202
59.1038
59.0897
59.0781
59.0691
59.0629
59.0597
57.4069
57.4039
57.399
57.3923
57.3836
57.3729
57.3602
57.3455
57.3288
57.3101
57.2896
57.2672
57.243
57.2173
57.19
57.1613
57.1314
57.1005
57.0687
57.0362
57.0032
56.9699
56.9366
56.9033
56.8704
56.8379
56.8063
56.7755
56.746
56.7177
56.6911
56.6662
56.6432
56.6225
56.6041
56.5883
56.5752
56.5651
56.5582
56.5546
55.0384
55.0347
55.0288
55.0205
55.0098
54.9966
54.981
54.9629
54.9424
54.9196
54.8945
54.8672
54.8379
54.8068
54.774
54.7397
54.7041
54.6673
54.6297
54.5915
54.5529
54.514
54.4753
54.4368
54.3988
54.3616
54.3254
54.2904
54.2568
54.2249
54.1948
54.1668
54.141
54.1178
54.0972
54.0795
54.065
54.0537
54.046
54.0421
52.6878
52.6833
52.6759
52.6655
52.6521
52.6357
52.6162
52.5937
52.5683
52.5401
52.5092
52.4758
52.4401
52.4023
52.3626
52.3214
52.2788
52.2351
52.1907
52.1457
52.1004
52.0552
52.0102
51.9658
51.9223
51.8797
51.8385
51.7988
51.7608
51.7248
51.6911
51.6597
51.631
51.6051
51.5822
51.5626
51.5465
51.5341
51.5256
51.5212
50.36
50.3543
50.3449
50.3317
50.3146
50.2938
50.2691
50.2407
50.2088
50.1736
50.1352
50.0939
50.0501
50.0039
49.9558
49.906
49.855
49.803
49.7504
49.6975
49.6446
49.592
49.5401
49.4891
49.4392
49.3908
49.3441
49.2993
49.2567
49.2164
49.1787
49.1439
49.112
49.0834
49.0582
49.0366
49.0189
49.0052
48.9959
48.9911
48.0613
48.0539
48.0417
48.0246
48.0025
47.9755
47.9437
47.9074
47.8668
47.8221
47.7739
47.7224
47.6681
47.6114
47.5528
47.4926
47.4314
47.3695
47.3073
47.2452
47.1836
47.1227
47.063
47.0046
46.948
46.8932
46.8407
46.7905
46.7429
46.6982
46.6565
46.6181
46.583
46.5516
46.524
46.5005
46.4812
46.4663
46.4561
46.4509
45.801
45.7912
45.7749
45.752
45.7226
45.6868
45.645
45.5976
45.545
45.4877
45.4263
45.3615
45.2938
45.2238
45.1521
45.0793
45.0058
44.9322
44.8589
44.7863
44.7149
44.6448
44.5765
44.5103
44.4463
44.3849
44.3262
44.2705
44.2179
44.1687
44.123
44.0809
44.0428
44.0086
43.9787
43.9532
43.9324
43.9163
43.9054
43.8998
43.5927
43.5792
43.5566
43.5249
43.4844
43.4356
43.3791
43.3157
43.2462
43.1715
43.0925
43.0101
42.9252
42.8385
42.7507
42.6626
42.5747
42.4876
42.4017
42.3174
42.2351
42.1551
42.0778
42.0032
41.9317
41.8635
41.7987
41.7374
41.6799
41.6262
41.5766
41.5311
41.49
41.4533
41.4212
41.3939
41.3716
41.3545
41.3428
41.3368
41.4577
41.4381
41.405
41.359
41.3008
41.2316
41.1527
41.0657
40.972
40.873
40.7702
40.6648
40.5579
40.4505
40.3433
40.2372
40.1327
40.0304
39.9306
39.8337
39.74
39.6497
39.563
39.4802
39.4012
39.3263
39.2555
39.189
39.1268
39.0691
39.0159
38.9673
38.9234
38.8844
38.8504
38.8215
38.7979
38.7799
38.7676
38.7613
39.4319
39.4009
39.3488
39.2772
39.1886
39.0857
38.9715
38.8487
38.7198
38.5871
38.4524
38.3174
38.1831
38.0508
37.9211
37.7947
37.6719
37.5533
37.439
37.3292
37.2241
37.1237
37.0281
36.9373
36.8514
36.7704
36.6943
36.6231
36.5568
36.4955
36.4393
36.388
36.3419
36.301
36.2654
36.2352
36.2106
36.1918
36.179
36.1724
37.5832
37.5277
37.4353
37.3128
37.1673
37.0057
36.8339
36.6565
36.4772
36.2987
36.123
35.9516
35.7853
35.6249
35.4708
35.323
35.1818
35.0471
34.9188
34.7969
34.6813
34.5718
34.4684
34.3708
34.279
34.1929
34.1125
34.0375
33.968
33.904
33.8454
33.7922
33.7444
33.7021
33.6654
33.6343
33.609
33.5897
33.5765
33.5698
36.0662
35.9403
35.7417
35.5022
35.2426
34.9767
34.7129
34.4561
34.2094
33.9741
33.7508
33.5395
33.34
33.1517
32.9742
32.8069
32.6493
32.5007
32.3608
32.2291
32.1052
31.9887
31.8793
31.7768
31.6808
31.5912
31.5077
31.4303
31.3588
31.2931
31.2331
31.1788
31.1301
31.0871
31.0498
31.0183
30.9927
30.9731
30.9598
30.953
35.6278
34.9151
34.336
33.8078
33.3306
32.9006
32.5127
32.1617
31.8429
31.552
31.2856
31.0405
30.8143
30.6049
30.4104
30.2295
30.0608
29.9033
29.7562
29.6186
29.4899
29.3695
29.257
29.152
29.0541
28.9629
28.8784
28.8001
28.728
28.6618
28.6016
28.5471
28.4984
28.4555
28.4183
28.3869
28.3614
28.3419
28.3287
28.3219
47.3659
33.4645
32.4575
31.6645
31.0189
30.4796
30.0193
29.6193
29.2667
28.9522
28.6688
28.4115
28.1764
27.9604
27.7612
27.5768
27.4057
27.2465
27.0983
26.9601
26.8312
26.711
26.5989
26.4944
26.3972
26.3069
26.2232
26.146
26.0748
26.0097
25.9505
25.897
25.8493
25.8072
25.7707
25.74
25.7151
25.6961
25.6832
25.6766
59.6905
29.4802
28.8216
28.3205
27.8614
27.4447
27.0674
26.7255
26.4147
26.1311
25.8714
25.6327
25.4124
25.2086
25.0195
24.8438
24.6801
24.5275
24.3851
24.2522
24.1281
24.0123
23.9042
23.8035
23.7098
23.6229
23.5423
23.4679
23.3995
23.3369
23.28
23.2286
23.1828
23.1424
23.1075
23.0781
23.0542
23.036
23.0236
23.0173
40.4217
25.2268
24.8505
24.5978
24.3409
24.0849
23.8341
23.5913
23.3584
23.1364
22.9258
22.7265
22.5383
22.3609
22.1939
22.0367
21.8889
21.75
21.6195
21.4971
21.3823
21.2749
21.1743
21.0805
20.993
20.9117
20.8363
20.7666
20.7026
20.644
20.5906
20.5426
20.4996
20.4618
20.4292
20.4016
20.3793
20.3623
20.3507
20.3448
20.8388
20.8985
20.9199
20.8727
20.78
20.6578
20.5171
20.3655
20.2084
20.0498
19.8924
19.7379
19.5878
19.4429
19.3037
19.1705
19.0436
18.923
18.8087
18.7006
18.5986
18.5026
18.4124
18.3279
18.2489
18.1754
18.107
18.0438
17.9856
17.9322
17.8837
17.8399
17.8009
17.7664
17.7367
17.7116
17.6912
17.6757
17.6652
17.6598
17.5653
17.5476
17.521
17.4787
17.4193
17.3441
17.2557
17.1569
17.0506
16.9393
16.8251
16.7098
16.5948
16.4814
16.3704
16.2625
16.1582
16.0579
15.9619
15.8703
15.7832
15.7008
15.6229
15.5496
15.4809
15.4167
15.3569
15.3015
15.2504
15.2035
15.1609
15.1223
15.0879
15.0575
15.0313
15.0092
14.9912
14.9776
14.9683
14.9635
14.2815
14.2643
14.2396
14.2064
14.164
14.1126
14.0528
13.9857
13.9123
13.834
13.7522
13.668
13.5825
13.4968
13.4115
13.3275
13.2453
13.1654
13.0882
13.0139
12.9428
12.8751
12.8107
12.75
12.6927
12.6391
12.589
12.5425
12.4995
12.46
12.424
12.3915
12.3624
12.3367
12.3146
12.2959
12.2807
12.2691
12.2613
12.2572
11.0501
11.0383
11.0207
10.9973
10.968
10.9329
10.8922
10.8464
10.7961
10.7419
10.6846
10.6249
10.5636
10.5013
10.4387
10.3764
10.3148
10.2544
10.1956
10.1386
10.0837
10.0311
9.98091
9.93329
9.88831
9.84601
9.80643
9.76959
9.73548
9.70411
9.67548
9.64957
9.6264
9.60595
9.58825
9.57332
9.56121
9.55198
9.5457
9.54249
7.86319
7.85566
7.84433
7.82915
7.81014
7.78735
7.76095
7.73116
7.69828
7.6627
7.6248
7.58504
7.54387
7.50172
7.45903
7.41619
7.37357
7.3315
7.29026
7.2501
7.21123
7.17382
7.13801
7.10391
7.0716
7.04114
7.01257
6.98593
6.96124
6.9385
6.91772
6.8989
6.88206
6.86719
6.85431
6.84345
6.83463
6.82791
6.82334
6.821
4.70648
4.70232
4.696
4.68749
4.67681
4.66399
4.64912
4.6323
4.61369
4.59348
4.57187
4.54909
4.52539
4.50102
4.47621
4.45119
4.42619
4.40141
4.37702
4.35318
4.33003
4.30768
4.28623
4.26575
4.24631
4.22796
4.21071
4.19461
4.17967
4.1659
4.15331
4.14189
4.13167
4.12265
4.11483
4.10823
4.10288
4.09879
4.09601
4.09459
1.56697
1.56564
1.56361
1.56087
1.55743
1.55329
1.54849
1.54305
1.53702
1.53046
1.52344
1.51602
1.50828
1.50031
1.49217
1.48395
1.47571
1.46753
1.45946
1.45156
1.44387
1.43644
1.4293
1.42248
1.41599
1.40986
1.4041
1.39871
1.39371
1.3891
1.38488
1.38106
1.37763
1.37461
1.37199
1.36977
1.36798
1.36661
1.36567
1.3652
)
;

boundaryField
{
    top
    {
        type            fixedValue;
        value           uniform 0;
    }
    inlet
    {
        type            darcyGradPressure;
        gradient        nonuniform List<scalar> 
80
(
9.81
9.81
9.81
9.81
9.81
9.81
9.81
9.81
9.81
9.81
9.81
9.81
9.81
9.81
9.81
9.81
9.81
9.81
9.81
9.81
9.81
9.81
9.81
9.81
9.81
9.81
9.81
9.81
9.81
9.81
9.81
9.81
9.81
9.81
9.81
9.81
9.81
9.81
9.81
9.81
9.81
9.81
9.81
9.81
9.81
9.81
9.81
9.81
9.81
9.81
9.81
9.81
9.81
9.81
9.81
9.81
9.81
9.81
9.81
9.81
9.81
9.81
9.81
9.81
9.81
9.81
9.81
9.81
9.81
9.81
9.81
9.81
9.81
9.81
9.81
9.81
9.81
9.81
9.81
9.81
)
;
        value           nonuniform List<scalar> 
80
(
102.298
102.298
102.299
102.301
102.302
102.304
102.307
102.309
102.312
102.315
102.319
102.322
102.325
102.329
102.332
102.336
102.339
102.342
102.346
102.349
102.352
102.355
102.357
102.36
102.362
102.364
102.366
102.368
102.37
102.371
102.372
102.373
102.374
102.375
102.376
102.376
102.376
102.376
102.376
102.376
102.376
102.375
102.375
102.374
102.373
102.372
102.37
102.369
102.367
102.365
102.363
102.361
102.359
102.356
102.353
102.35
102.347
102.344
102.34
102.337
102.333
102.329
102.325
102.321
102.317
102.313
102.309
102.305
102.301
102.297
102.293
102.29
102.287
102.284
102.281
102.278
102.276
102.275
102.274
102.273
)
;
    }
    axis
    {
        type            darcyGradPressure;
        gradient        uniform -0;
        value           nonuniform List<scalar> 
80
(
101.072
98.618
96.1635
93.7078
91.2509
88.7928
86.3332
83.8721
81.4092
78.9442
76.4768
74.0069
71.5338
69.0573
66.5767
64.0916
61.6012
59.105
56.602
54.0916
51.5727
49.0445
46.5061
43.9564
41.3946
38.8198
36.2312
33.6282
31.0105
28.3778
25.7301
23.0677
20.3914
17.7019
15.0004
12.2883
9.56719
6.83895
4.10549
1.36885
101.047
98.5934
96.1385
93.6824
91.225
88.7662
86.3058
83.8437
81.3796
78.9134
76.4446
73.9731
71.4984
69.0201
66.5376
64.0505
61.5581
59.0597
56.5546
54.0421
51.5212
48.9911
46.4509
43.8998
41.3368
38.7613
36.1724
33.5698
30.953
28.3219
25.6766
23.0173
20.3448
17.6598
14.9635
12.2572
9.54249
6.821
4.09459
1.3652
)
;
    }
    frontAndBack
    {
        type            empty;
    }
}


// ************************************************************************* //
