/*--------------------------------*- C++ -*----------------------------------*\
  =========                 |
  \\      /  F ield         | OpenFOAM: The Open Source CFD Toolbox
   \\    /   O peration     | Website:  https://openfoam.org
    \\  /    A nd           | Version:  10
     \\/     M anipulation  |
\*---------------------------------------------------------------------------*/
FoamFile
{
    format      ascii;
    class       volVectorField;
    location    "500";
    object      Ua;
}
// * * * * * * * * * * * * * * * * * * * * * * * * * * * * * * * * * * * * * //

dimensions      [0 1 -1 0 0 0 0];

internalField   nonuniform List<vector> 
3200
(
(-8.0176e-09 1.15787e-08 0)
(-2.38187e-08 1.14422e-08 0)
(-3.90717e-08 1.11776e-08 0)
(-5.36274e-08 1.0794e-08 0)
(-6.73569e-08 1.03012e-08 0)
(-8.01518e-08 9.70927e-09 0)
(-9.19227e-08 9.02864e-09 0)
(-1.02599e-07 8.26977e-09 0)
(-1.12126e-07 7.44317e-09 0)
(-1.20467e-07 6.55924e-09 0)
(-1.276e-07 5.6282e-09 0)
(-1.33517e-07 4.65999e-09 0)
(-1.3822e-07 3.66422e-09 0)
(-1.41727e-07 2.65009e-09 0)
(-1.44061e-07 1.62636e-09 0)
(-1.45258e-07 6.01264e-10 0)
(-1.4536e-07 -4.17477e-10 0)
(-1.44414e-07 -1.42273e-09 0)
(-1.42475e-07 -2.40793e-09 0)
(-1.39601e-07 -3.36713e-09 0)
(-1.35853e-07 -4.295e-09 0)
(-1.31296e-07 -5.1868e-09 0)
(-1.25995e-07 -6.03841e-09 0)
(-1.20017e-07 -6.84628e-09 0)
(-1.13428e-07 -7.60747e-09 0)
(-1.06296e-07 -8.31957e-09 0)
(-9.8684e-08 -8.98069e-09 0)
(-9.06571e-08 -9.58948e-09 0)
(-8.2277e-08 -1.0145e-08 0)
(-7.3603e-08 -1.06468e-08 0)
(-6.46923e-08 -1.10949e-08 0)
(-5.5599e-08 -1.14894e-08 0)
(-4.63745e-08 -1.18311e-08 0)
(-3.70669e-08 -1.21209e-08 0)
(-2.77212e-08 -1.236e-08 0)
(-1.83791e-08 -1.25497e-08 0)
(-9.07917e-09 -1.26917e-08 0)
(1.43249e-10 -1.27878e-08 0)
(9.25603e-09 -1.28399e-08 0)
(1.82301e-08 -1.28499e-08 0)
(-8.21654e-09 3.50235e-08 0)
(-2.44101e-08 3.46112e-08 0)
(-4.00433e-08 3.38119e-08 0)
(-5.49638e-08 3.26534e-08 0)
(-6.90402e-08 3.11649e-08 0)
(-8.21616e-08 2.9377e-08 0)
(-9.42366e-08 2.73209e-08 0)
(-1.05193e-07 2.50282e-08 0)
(-1.14974e-07 2.25305e-08 0)
(-1.23544e-07 1.98594e-08 0)
(-1.30877e-07 1.70454e-08 0)
(-1.36966e-07 1.41188e-08 0)
(-1.41813e-07 1.11084e-08 0)
(-1.45435e-07 8.04202e-09 0)
(-1.47856e-07 4.94618e-09 0)
(-1.49112e-07 1.84577e-09 0)
(-1.49244e-07 -1.23588e-09 0)
(-1.48302e-07 -4.27718e-09 0)
(-1.46341e-07 -7.25826e-09 0)
(-1.4342e-07 -1.01611e-08 0)
(-1.39602e-07 -1.29695e-08 0)
(-1.34952e-07 -1.56691e-08 0)
(-1.29537e-07 -1.82474e-08 0)
(-1.23426e-07 -2.06935e-08 0)
(-1.16687e-07 -2.29986e-08 0)
(-1.09387e-07 -2.51553e-08 0)
(-1.01594e-07 -2.71579e-08 0)
(-9.33731e-08 -2.90021e-08 0)
(-8.47875e-08 -3.06851e-08 0)
(-7.58986e-08 -3.22056e-08 0)
(-6.67651e-08 -3.35633e-08 0)
(-5.74426e-08 -3.4759e-08 0)
(-4.79839e-08 -3.57947e-08 0)
(-3.84387e-08 -3.66731e-08 0)
(-2.88532e-08 -3.73978e-08 0)
(-1.92704e-08 -3.79731e-08 0)
(-9.7301e-09 -3.84038e-08 0)
(-2.68603e-10 -3.86954e-08 0)
(9.08092e-09 -3.88536e-08 0)
(1.82885e-08 -3.88844e-08 0)
(-8.61837e-09 5.93359e-08 0)
(-2.56049e-08 5.86396e-08 0)
(-4.20061e-08 5.72898e-08 0)
(-5.76639e-08 5.5333e-08 0)
(-7.24414e-08 5.28187e-08 0)
(-8.6223e-08 4.9798e-08 0)
(-9.89133e-08 4.63236e-08 0)
(-1.10436e-07 4.24486e-08 0)
(-1.20734e-07 3.82263e-08 0)
(-1.29765e-07 3.37094e-08 0)
(-1.37505e-07 2.89499e-08 0)
(-1.43944e-07 2.39984e-08 0)
(-1.49083e-07 1.89038e-08 0)
(-1.5294e-07 1.37129e-08 0)
(-1.55538e-07 8.47057e-09 0)
(-1.56914e-07 3.21891e-09 0)
(-1.5711e-07 -2.00256e-09 0)
(-1.56178e-07 -7.15718e-09 0)
(-1.54174e-07 -1.22112e-08 0)
(-1.5116e-07 -1.71341e-08 0)
(-1.47201e-07 -2.18981e-08 0)
(-1.42364e-07 -2.64789e-08 0)
(-1.3672e-07 -3.08549e-08 0)
(-1.30341e-07 -3.50078e-08 0)
(-1.23297e-07 -3.89222e-08 0)
(-1.15659e-07 -4.25854e-08 0)
(-1.07499e-07 -4.59876e-08 0)
(-9.8885e-08 -4.91214e-08 0)
(-8.98833e-08 -5.1982e-08 0)
(-8.05589e-08 -5.45668e-08 0)
(-7.09736e-08 -5.68753e-08 0)
(-6.11863e-08 -5.89089e-08 0)
(-5.12527e-08 -6.06705e-08 0)
(-4.12253e-08 -6.21651e-08 0)
(-3.11533e-08 -6.33984e-08 0)
(-2.1082e-08 -6.43778e-08 0)
(-1.10538e-08 -6.51115e-08 0)
(-1.10704e-09 -6.56086e-08 0)
(8.72298e-09 -6.58788e-08 0)
(1.84045e-08 -6.59326e-08 0)
(-9.23108e-09 8.51135e-08 0)
(-2.74266e-08 8.41195e-08 0)
(-4.49994e-08 8.21925e-08 0)
(-6.1782e-08 7.93987e-08 0)
(-7.76297e-08 7.5808e-08 0)
(-9.24197e-08 7.14932e-08 0)
(-1.06051e-07 6.65289e-08 0)
(-1.18441e-07 6.09905e-08 0)
(-1.29528e-07 5.49535e-08 0)
(-1.39268e-07 4.8493e-08 0)
(-1.47632e-07 4.16827e-08 0)
(-1.54609e-07 3.45946e-08 0)
(-1.602e-07 2.72985e-08 0)
(-1.64419e-07 1.98613e-08 0)
(-1.67293e-07 1.23468e-08 0)
(-1.68857e-07 4.81557e-09 0)
(-1.69156e-07 -2.67585e-09 0)
(-1.68244e-07 -1.00747e-08 0)
(-1.66179e-07 -1.73326e-08 0)
(-1.63026e-07 -2.44051e-08 0)
(-1.58854e-07 -3.12524e-08 0)
(-1.53735e-07 -3.78391e-08 0)
(-1.47744e-07 -4.4134e-08 0)
(-1.40955e-07 -5.01103e-08 0)
(-1.33447e-07 -5.57455e-08 0)
(-1.25294e-07 -6.1021e-08 0)
(-1.16572e-07 -6.59222e-08 0)
(-1.07356e-07 -7.04384e-08 0)
(-9.77169e-08 -7.45622e-08 0)
(-8.77248e-08 -7.82895e-08 0)
(-7.74464e-08 -8.16194e-08 0)
(-6.69455e-08 -8.45535e-08 0)
(-5.62827e-08 -8.70962e-08 0)
(-4.55147e-08 -8.92539e-08 0)
(-3.46949e-08 -9.10353e-08 0)
(-2.3873e-08 -9.24506e-08 0)
(-1.30946e-08 -9.35115e-08 0)
(-2.40179e-09 -9.42312e-08 0)
(8.16706e-09 -9.46237e-08 0)
(1.85773e-08 -9.47039e-08 0)
(-1.00666e-08 1.12982e-07 0)
(-2.9911e-08 1.11672e-07 0)
(-4.9082e-08 1.0913e-07 0)
(-6.73999e-08 1.05445e-07 0)
(-8.47093e-08 1.00707e-07 0)
(-1.00878e-07 9.50121e-08 0)
(-1.15796e-07 8.84572e-08 0)
(-1.29375e-07 8.1141e-08 0)
(-1.41546e-07 7.31625e-08 0)
(-1.5226e-07 6.46198e-08 0)
(-1.61485e-07 5.56097e-08 0)
(-1.69205e-07 4.62266e-08 0)
(-1.75421e-07 3.65623e-08 0)
(-1.80146e-07 2.67052e-08 0)
(-1.83405e-07 1.67394e-08 0)
(-1.85236e-07 6.74512e-09 0)
(-1.85686e-07 -3.20258e-09 0)
(-1.84809e-07 -1.30336e-08 0)
(-1.82669e-07 -2.26831e-08 0)
(-1.79334e-07 -3.2092e-08 0)
(-1.74878e-07 -4.12067e-08 0)
(-1.69378e-07 -4.99795e-08 0)
(-1.62915e-07 -5.83684e-08 0)
(-1.55571e-07 -6.6337e-08 0)
(-1.47428e-07 -7.38546e-08 0)
(-1.38571e-07 -8.08959e-08 0)
(-1.29081e-07 -8.74408e-08 0)
(-1.19039e-07 -9.34742e-08 0)
(-1.08525e-07 -9.89858e-08 0)
(-9.76147e-08 -1.0397e-07 0)
(-8.63829e-08 -1.08424e-07 0)
(-7.48997e-08 -1.1235e-07 0)
(-6.32321e-08 -1.15754e-07 0)
(-5.14434e-08 -1.18644e-07 0)
(-3.95926e-08 -1.21031e-07 0)
(-2.77349e-08 -1.22928e-07 0)
(-1.59215e-08 -1.24352e-07 0)
(-4.19902e-09 -1.25319e-07 0)
(7.38965e-09 -1.25849e-07 0)
(1.88059e-08 -1.25961e-07 0)
(-1.11409e-08 1.4361e-07 0)
(-3.31056e-08 1.41957e-07 0)
(-5.43325e-08 1.38754e-07 0)
(-7.46269e-08 1.34107e-07 0)
(-9.38197e-08 1.28131e-07 0)
(-1.11767e-07 1.20944e-07 0)
(-1.28348e-07 1.12669e-07 0)
(-1.43465e-07 1.03427e-07 0)
(-1.57041e-07 9.33421e-08 0)
(-1.69021e-07 8.25371e-08 0)
(-1.79367e-07 7.11328e-08 0)
(-1.88061e-07 5.92476e-08 0)
(-1.95097e-07 4.69968e-08 0)
(-2.0049e-07 3.44916e-08 0)
(-2.04263e-07 2.18385e-08 0)
(-2.06454e-07 9.13888e-09 0)
(-2.07113e-07 -3.51183e-09 0)
(-2.06298e-07 -1.60242e-08 0)
(-2.04075e-07 -2.83155e-08 0)
(-2.00518e-07 -4.03097e-08 0)
(-1.95707e-07 -5.19379e-08 0)
(-1.89725e-07 -6.31382e-08 0)
(-1.82661e-07 -7.3856e-08 0)
(-1.74605e-07 -8.40441e-08 0)
(-1.65648e-07 -9.36619e-08 0)
(-1.55881e-07 -1.02676e-07 0)
(-1.45397e-07 -1.1106e-07 0)
(-1.34286e-07 -1.18793e-07 0)
(-1.22637e-07 -1.25861e-07 0)
(-1.10534e-07 -1.32256e-07 0)
(-9.80622e-08 -1.37974e-07 0)
(-8.52999e-08 -1.43017e-07 0)
(-7.23229e-08 -1.47391e-07 0)
(-5.92027e-08 -1.51107e-07 0)
(-4.60064e-08 -1.54178e-07 0)
(-3.27965e-08 -1.56621e-07 0)
(-1.96311e-08 -1.58456e-07 0)
(-6.56348e-09 -1.59705e-07 0)
(6.35778e-09 -1.60392e-07 0)
(1.90885e-08 -1.60542e-07 0)
(-1.24737e-08 1.77713e-07 0)
(-3.70696e-08 1.7569e-07 0)
(-6.08491e-08 1.71765e-07 0)
(-8.35995e-08 1.66071e-07 0)
(-1.05135e-07 1.58746e-07 0)
(-1.25298e-07 1.49932e-07 0)
(-1.43955e-07 1.39776e-07 0)
(-1.60995e-07 1.28427e-07 0)
(-1.76334e-07 1.16033e-07 0)
(-1.89906e-07 1.02742e-07 0)
(-2.01668e-07 8.87025e-08 0)
(-2.11594e-07 7.40573e-08 0)
(-2.19676e-07 5.89471e-08 0)
(-2.25925e-07 4.35078e-08 0)
(-2.30363e-07 2.78703e-08 0)
(-2.3303e-07 1.21594e-08 0)
(-2.33976e-07 -3.50691e-09 0)
(-2.33262e-07 -1.90176e-08 0)
(-2.30958e-07 -3.42694e-08 0)
(-2.27146e-07 -4.91672e-08 0)
(-2.2191e-07 -6.36243e-08 0)
(-2.15343e-07 -7.75624e-08 0)
(-2.07542e-07 -9.09123e-08 0)
(-1.98607e-07 -1.03613e-07 0)
(-1.88638e-07 -1.15613e-07 0)
(-1.7774e-07 -1.26869e-07 0)
(-1.66015e-07 -1.37346e-07 0)
(-1.53565e-07 -1.47017e-07 0)
(-1.40491e-07 -1.55862e-07 0)
(-1.26889e-07 -1.6387e-07 0)
(-1.12855e-07 -1.71035e-07 0)
(-9.84799e-08 -1.77357e-07 0)
(-8.385e-08 -1.82845e-07 0)
(-6.90476e-08 -1.8751e-07 0)
(-5.415e-08 -1.91367e-07 0)
(-3.92293e-08 -1.94439e-07 0)
(-2.43526e-08 -1.96749e-07 0)
(-9.58153e-09 -1.98325e-07 0)
(5.02751e-09 -1.99196e-07 0)
(1.94234e-08 -1.99394e-07 0)
(-1.40888e-08 2.16074e-07 0)
(-4.18738e-08 2.13644e-07 0)
(-6.8749e-08 2.08931e-07 0)
(-9.44809e-08 2.0209e-07 0)
(-1.18866e-07 1.93284e-07 0)
(-1.41727e-07 1.82683e-07 0)
(-1.62917e-07 1.70458e-07 0)
(-1.82312e-07 1.56785e-07 0)
(-1.99814e-07 1.4184e-07 0)
(-2.15348e-07 1.25798e-07 0)
(-2.2886e-07 1.08833e-07 0)
(-2.40318e-07 9.11162e-08 0)
(-2.49709e-07 7.28158e-08 0)
(-2.57038e-07 5.40946e-08 0)
(-2.62326e-07 3.51098e-08 0)
(-2.65611e-07 1.60122e-08 0)
(-2.66945e-07 -3.05471e-09 0)
(-2.66391e-07 -2.19556e-08 0)
(-2.64025e-07 -4.05638e-08 0)
(-2.59933e-07 -5.87619e-08 0)
(-2.54208e-07 -7.64425e-08 0)
(-2.46952e-07 -9.3508e-08 0)
(-2.38272e-07 -1.09871e-07 0)
(-2.28278e-07 -1.25456e-07 0)
(-2.17085e-07 -1.40196e-07 0)
(-2.0481e-07 -1.54035e-07 0)
(-1.91568e-07 -1.66928e-07 0)
(-1.77477e-07 -1.7884e-07 0)
(-1.62651e-07 -1.89744e-07 0)
(-1.47203e-07 -1.99623e-07 0)
(-1.31242e-07 -2.08469e-07 0)
(-1.14873e-07 -2.16282e-07 0)
(-9.81968e-08 -2.23067e-07 0)
(-8.13094e-08 -2.28839e-07 0)
(-6.4301e-08 -2.33616e-07 0)
(-4.72562e-08 -2.37424e-07 0)
(-3.02535e-08 -2.40291e-07 0)
(-1.33654e-08 -2.42251e-07 0)
(3.34185e-09 -2.4334e-07 0)
(1.98081e-08 -2.43598e-07 0)
(-1.60134e-08 2.59546e-07 0)
(-4.75994e-08 2.56671e-07 0)
(-7.81672e-08 2.51092e-07 0)
(-1.0746e-07 2.4299e-07 0)
(-1.35253e-07 2.32555e-07 0)
(-1.6135e-07 2.19983e-07 0)
(-1.85585e-07 2.05472e-07 0)
(-2.07819e-07 1.89227e-07 0)
(-2.27939e-07 1.7145e-07 0)
(-2.45856e-07 1.52346e-07 0)
(-2.61507e-07 1.32116e-07 0)
(-2.74848e-07 1.10962e-07 0)
(-2.85858e-07 8.90806e-08 0)
(-2.94536e-07 6.66634e-08 0)
(-3.009e-07 4.38971e-08 0)
(-3.04984e-07 2.09615e-08 0)
(-3.0684e-07 -1.97141e-09 0)
(-3.06534e-07 -2.47385e-08 0)
(-3.04145e-07 -4.71862e-08 0)
(-2.99765e-07 -6.91712e-08 0)
(-2.93496e-07 -9.05612e-08 0)
(-2.85449e-07 -1.11236e-07 0)
(-2.75741e-07 -1.31086e-07 0)
(-2.64499e-07 -1.50017e-07 0)
(-2.51849e-07 -1.67943e-07 0)
(-2.37925e-07 -1.84794e-07 0)
(-2.2286e-07 -2.00511e-07 0)
(-2.06786e-07 -2.15046e-07 0)
(-1.89838e-07 -2.28365e-07 0)
(-1.72145e-07 -2.40445e-07 0)
(-1.53835e-07 -2.5127e-07 0)
(-1.35032e-07 -2.60839e-07 0)
(-1.15853e-07 -2.69157e-07 0)
(-9.64121e-08 -2.76238e-07 0)
(-7.68154e-08 -2.82104e-07 0)
(-5.71633e-08 -2.86785e-07 0)
(-3.75491e-08 -2.90315e-07 0)
(-1.80591e-08 -2.92733e-07 0)
(1.22777e-09 -2.94084e-07 0)
(2.02397e-08 -2.94416e-07 0)
(-1.82778e-08 3.09068e-07 0)
(-5.43373e-08 3.05704e-07 0)
(-8.9255e-08 2.99174e-07 0)
(-1.22749e-07 2.89686e-07 0)
(-1.5457e-07 2.77457e-07 0)
(-1.84501e-07 2.6271e-07 0)
(-2.12356e-07 2.45672e-07 0)
(-2.37977e-07 2.26574e-07 0)
(-2.61234e-07 2.05648e-07 0)
(-2.82023e-07 1.83128e-07 0)
(-3.00263e-07 1.59245e-07 0)
(-3.159e-07 1.34231e-07 0)
(-3.28901e-07 1.08314e-07 0)
(-3.39256e-07 8.1717e-08 0)
(-3.46976e-07 5.46585e-08 0)
(-3.52091e-07 2.73504e-08 0)
(-3.54649e-07 -3.13349e-12 0)
(-3.54717e-07 -2.72072e-08 0)
(-3.52377e-07 -5.40769e-08 0)
(-3.47726e-07 -8.04386e-08 0)
(-3.40873e-07 -1.06131e-07 0)
(-3.3194e-07 -1.31005e-07 0)
(-3.21057e-07 -1.54926e-07 0)
(-3.08364e-07 -1.77773e-07 0)
(-2.94006e-07 -1.99441e-07 0)
(-2.78132e-07 -2.19838e-07 0)
(-2.60897e-07 -2.38888e-07 0)
(-2.42453e-07 -2.56528e-07 0)
(-2.22957e-07 -2.72712e-07 0)
(-2.0256e-07 -2.87405e-07 0)
(-1.81412e-07 -3.00587e-07 0)
(-1.5966e-07 -3.12251e-07 0)
(-1.37443e-07 -3.224e-07 0)
(-1.14896e-07 -3.31048e-07 0)
(-9.2147e-08 -3.3822e-07 0)
(-6.93157e-08 -3.43949e-07 0)
(-4.65142e-08 -3.48275e-07 0)
(-2.38465e-08 -3.51247e-07 0)
(-1.40783e-09 -3.52916e-07 0)
(2.07152e-08 -3.53341e-07 0)
(-2.09148e-08 3.65669e-07 0)
(-6.2186e-08 3.61769e-07 0)
(-1.02177e-07 3.54197e-07 0)
(-1.40578e-07 3.43189e-07 0)
(-1.77116e-07 3.28989e-07 0)
(-2.1155e-07 3.11847e-07 0)
(-2.43673e-07 2.92018e-07 0)
(-2.73303e-07 2.69761e-07 0)
(-3.00292e-07 2.45336e-07 0)
(-3.24514e-07 2.19006e-07 0)
(-3.45873e-07 1.91034e-07 0)
(-3.64297e-07 1.61682e-07 0)
(-3.79738e-07 1.31211e-07 0)
(-3.92172e-07 9.98765e-08 0)
(-4.016e-07 6.79332e-08 0)
(-4.08043e-07 3.56278e-08 0)
(-4.11544e-07 3.20024e-09 0)
(-4.12167e-07 -2.91181e-08 0)
(-4.09994e-07 -6.11061e-08 0)
(-4.05125e-07 -9.25543e-08 0)
(-3.97677e-07 -1.23266e-07 0)
(-3.8778e-07 -1.53059e-07 0)
(-3.75579e-07 -1.81765e-07 0)
(-3.61227e-07 -2.09234e-07 0)
(-3.44889e-07 -2.3533e-07 0)
(-3.26735e-07 -2.59938e-07 0)
(-3.06941e-07 -2.82957e-07 0)
(-2.85687e-07 -3.04305e-07 0)
(-2.63152e-07 -3.23919e-07 0)
(-2.39517e-07 -3.4175e-07 0)
(-2.14958e-07 -3.57768e-07 0)
(-1.8965e-07 -3.71957e-07 0)
(-1.6376e-07 -3.84317e-07 0)
(-1.3745e-07 -3.94861e-07 0)
(-1.10875e-07 -4.03614e-07 0)
(-8.41795e-08 -4.10615e-07 0)
(-5.74998e-08 -4.1591e-07 0)
(-3.09625e-08 -4.19556e-07 0)
(-4.6837e-09 -4.21615e-07 0)
(2.12307e-08 -4.22158e-07 0)
(-2.39589e-08 4.30474e-07 0)
(-7.12486e-08 4.25992e-07 0)
(-1.17105e-07 4.17286e-07 0)
(-1.61191e-07 4.04619e-07 0)
(-2.03208e-07 3.88264e-07 0)
(-2.42892e-07 3.68496e-07 0)
(-2.8001e-07 3.45598e-07 0)
(-3.14357e-07 3.19855e-07 0)
(-3.4576e-07 2.91554e-07 0)
(-3.74071e-07 2.60987e-07 0)
(-3.99171e-07 2.28446e-07 0)
(-4.20967e-07 1.94225e-07 0)
(-4.39391e-07 1.58617e-07 0)
(-4.54401e-07 1.21915e-07 0)
(-4.65981e-07 8.44087e-08 0)
(-4.74139e-07 4.63839e-08 0)
(-4.78906e-07 8.12063e-09 0)
(-4.8034e-07 -3.01087e-08 0)
(-4.78518e-07 -6.8041e-08 0)
(-4.73542e-07 -1.05425e-07 0)
(-4.65531e-07 -1.42021e-07 0)
(-4.54623e-07 -1.77605e-07 0)
(-4.40976e-07 -2.1197e-07 0)
(-4.24759e-07 -2.44926e-07 0)
(-4.06155e-07 -2.76303e-07 0)
(-3.8536e-07 -3.05949e-07 0)
(-3.62574e-07 -3.33734e-07 0)
(-3.38005e-07 -3.59549e-07 0)
(-3.11866e-07 -3.83307e-07 0)
(-2.84368e-07 -4.04939e-07 0)
(-2.55723e-07 -4.24401e-07 0)
(-2.26138e-07 -4.41664e-07 0)
(-1.95817e-07 -4.56722e-07 0)
(-1.64955e-07 -4.69583e-07 0)
(-1.33741e-07 -4.80274e-07 0)
(-1.02353e-07 -4.88835e-07 0)
(-7.09566e-08 -4.95321e-07 0)
(-3.97086e-08 -4.99796e-07 0)
(-8.7521e-09 -5.02338e-07 0)
(2.1782e-08 -5.03029e-07 0)
(-2.74444e-08 5.04708e-07 0)
(-8.16284e-08 4.99599e-07 0)
(-1.34213e-07 4.89667e-07 0)
(-1.84836e-07 4.75206e-07 0)
(-2.33173e-07 4.56513e-07 0)
(-2.78936e-07 4.33889e-07 0)
(-3.21864e-07 4.0764e-07 0)
(-3.61729e-07 3.78074e-07 0)
(-3.9833e-07 3.45504e-07 0)
(-4.31492e-07 3.10247e-07 0)
(-4.61068e-07 2.72623e-07 0)
(-4.86938e-07 2.32956e-07 0)
(-5.09007e-07 1.91572e-07 0)
(-5.27209e-07 1.48799e-07 0)
(-5.41504e-07 1.04965e-07 0)
(-5.51878e-07 6.03976e-08 0)
(-5.58347e-07 1.54197e-08 0)
(-5.60951e-07 -2.96498e-08 0)
(-5.59759e-07 -7.44996e-08 0)
(-5.54867e-07 -1.18828e-07 0)
(-5.46392e-07 -1.62347e-07 0)
(-5.3448e-07 -2.0478e-07 0)
(-5.19293e-07 -2.45871e-07 0)
(-5.0102e-07 -2.85381e-07 0)
(-4.79861e-07 -3.23092e-07 0)
(-4.56037e-07 -3.58808e-07 0)
(-4.29779e-07 -3.92359e-07 0)
(-4.01326e-07 -4.23599e-07 0)
(-3.70928e-07 -4.52407e-07 0)
(-3.38837e-07 -4.78689e-07 0)
(-3.05304e-07 -5.02373e-07 0)
(-2.70581e-07 -5.23417e-07 0)
(-2.34915e-07 -5.418e-07 0)
(-1.98545e-07 -5.57523e-07 0)
(-1.61703e-07 -5.70611e-07 0)
(-1.24608e-07 -5.81107e-07 0)
(-8.74671e-08 -5.89072e-07 0)
(-5.04748e-08 -5.94581e-07 0)
(-1.38098e-08 -5.97725e-07 0)
(2.23641e-08 -5.98606e-07 0)
(-3.14035e-08 5.89695e-07 0)
(-9.34233e-08 5.83916e-07 0)
(-1.53667e-07 5.72676e-07 0)
(-2.1175e-07 5.56296e-07 0)
(-2.67327e-07 5.35096e-07 0)
(-3.20083e-07 5.09397e-07 0)
(-3.69734e-07 4.79524e-07 0)
(-4.16023e-07 4.45805e-07 0)
(-4.58719e-07 4.08573e-07 0)
(-4.97616e-07 3.68165e-07 0)
(-5.32534e-07 3.24924e-07 0)
(-5.63319e-07 2.79202e-07 0)
(-5.89842e-07 2.31355e-07 0)
(-6.12003e-07 1.81744e-07 0)
(-6.29727e-07 1.30735e-07 0)
(-6.42973e-07 7.86977e-08 0)
(-6.51725e-07 2.60031e-08 0)
(-6.56002e-07 -2.69796e-08 0)
(-6.55852e-07 -7.98848e-08 0)
(-6.51355e-07 -1.32354e-07 0)
(-6.42622e-07 -1.84036e-07 0)
(-6.29794e-07 -2.34597e-07 0)
(-6.1304e-07 -2.83716e-07 0)
(-5.92557e-07 -3.31092e-07 0)
(-5.68567e-07 -3.76447e-07 0)
(-5.41314e-07 -4.19527e-07 0)
(-5.11059e-07 -4.60107e-07 0)
(-4.78082e-07 -4.97988e-07 0)
(-4.42672e-07 -5.33005e-07 0)
(-4.0513e-07 -5.65022e-07 0)
(-3.65759e-07 -5.93937e-07 0)
(-3.24862e-07 -6.19677e-07 0)
(-2.82742e-07 -6.42202e-07 0)
(-2.39695e-07 -6.61501e-07 0)
(-1.96007e-07 -6.7759e-07 0)
(-1.51953e-07 -6.90512e-07 0)
(-1.07793e-07 -7.00335e-07 0)
(-6.37714e-08 -7.07146e-07 0)
(-2.01143e-08 -7.11052e-07 0)
(2.29712e-08 -7.12174e-07 0)
(-3.58642e-08 6.8684e-07 0)
(-1.06718e-07 6.80359e-07 0)
(-1.75611e-07 6.67747e-07 0)
(-2.42146e-07 6.49346e-07 0)
(-3.05956e-07 6.25496e-07 0)
(-3.66707e-07 5.96533e-07 0)
(-4.2409e-07 5.62795e-07 0)
(-4.7782e-07 5.24621e-07 0)
(-5.27634e-07 4.82355e-07 0)
(-5.73291e-07 4.3635e-07 0)
(-6.14571e-07 3.86964e-07 0)
(-6.51279e-07 3.34567e-07 0)
(-6.83241e-07 2.7954e-07 0)
(-7.10314e-07 2.22275e-07 0)
(-7.32378e-07 1.63172e-07 0)
(-7.49347e-07 1.02643e-07 0)
(-7.61165e-07 4.11067e-08 0)
(-7.67812e-07 -2.10142e-08 0)
(-7.69301e-07 -8.32933e-08 0)
(-7.65686e-07 -1.45306e-07 0)
(-7.57054e-07 -2.06632e-07 0)
(-7.43535e-07 -2.66862e-07 0)
(-7.25292e-07 -3.25597e-07 0)
(-7.02526e-07 -3.82459e-07 0)
(-6.75471e-07 -4.3709e-07 0)
(-6.44395e-07 -4.8916e-07 0)
(-6.09592e-07 -5.38368e-07 0)
(-5.7138e-07 -5.84447e-07 0)
(-5.301e-07 -6.27166e-07 0)
(-4.86105e-07 -6.66331e-07 0)
(-4.39761e-07 -7.0179e-07 0)
(-3.91439e-07 -7.33428e-07 0)
(-3.41511e-07 -7.61173e-07 0)
(-2.90344e-07 -7.8499e-07 0)
(-2.38299e-07 -8.04882e-07 0)
(-1.85722e-07 -8.20887e-07 0)
(-1.32943e-07 -8.33075e-07 0)
(-8.02749e-08 -8.41546e-07 0)
(-2.80065e-08 -8.46426e-07 0)
(2.35955e-08 -8.47862e-07 0)
(-4.0846e-08 7.97622e-07 0)
(-1.21572e-07 7.90421e-07 0)
(-2.00153e-07 7.76397e-07 0)
(-2.76183e-07 7.55911e-07 0)
(-3.49288e-07 7.29316e-07 0)
(-4.19116e-07 6.96954e-07 0)
(-4.85337e-07 6.59166e-07 0)
(-5.4764e-07 6.16293e-07 0)
(-6.0573e-07 5.68679e-07 0)
(-6.59325e-07 5.16677e-07 0)
(-7.08162e-07 4.60653e-07 0)
(-7.51995e-07 4.00985e-07 0)
(-7.90598e-07 3.38067e-07 0)
(-8.23768e-07 2.72312e-07 0)
(-8.51328e-07 2.04149e-07 0)
(-8.73129e-07 1.34027e-07 0)
(-8.89056e-07 6.24094e-08 0)
(-8.99032e-07 -1.02256e-08 0)
(-9.03018e-07 -8.33877e-08 0)
(-9.01017e-07 -1.56579e-07 0)
(-8.93079e-07 -2.293e-07 0)
(-8.79299e-07 -3.01049e-07 0)
(-8.59822e-07 -3.71336e-07 0)
(-8.34838e-07 -4.39682e-07 0)
(-8.04584e-07 -5.0563e-07 0)
(-7.69343e-07 -5.68744e-07 0)
(-7.29437e-07 -6.28626e-07 0)
(-6.85227e-07 -6.84909e-07 0)
(-6.37106e-07 -7.37271e-07 0)
(-5.85492e-07 -7.85435e-07 0)
(-5.30827e-07 -8.29173e-07 0)
(-4.73562e-07 -8.68309e-07 0)
(-4.1416e-07 -9.02715e-07 0)
(-3.53081e-07 -9.32319e-07 0)
(-2.90781e-07 -9.57095e-07 0)
(-2.27704e-07 -9.7707e-07 0)
(-1.64274e-07 -9.92311e-07 0)
(-1.00896e-07 -1.00293e-06 0)
(-3.79468e-08 -1.00907e-06 0)
(2.4227e-08 -1.01092e-06 0)
(-4.63561e-08 9.23556e-07 0)
(-1.3801e-07 9.15637e-07 0)
(-2.27339e-07 9.00201e-07 0)
(-3.13945e-07 8.77623e-07 0)
(-3.97453e-07 8.48258e-07 0)
(-4.77505e-07 8.12446e-07 0)
(-5.5376e-07 7.70516e-07 0)
(-6.2588e-07 7.22795e-07 0)
(-6.9354e-07 6.69615e-07 0)
(-7.56419e-07 6.11315e-07 0)
(-8.14203e-07 5.48246e-07 0)
(-8.66589e-07 4.80781e-07 0)
(-9.13287e-07 4.09313e-07 0)
(-9.5402e-07 3.34259e-07 0)
(-9.88536e-07 2.56065e-07 0)
(-1.01661e-06 1.75205e-07 0)
(-1.03803e-06 9.21801e-08 0)
(-1.05265e-06 7.51977e-09 0)
(-1.06035e-06 -7.82225e-08 0)
(-1.06104e-06 -1.64472e-07 0)
(-1.05473e-06 -2.50637e-07 0)
(-1.04143e-06 -3.36117e-07 0)
(-1.02126e-06 -4.20306e-07 0)
(-9.94358e-07 -5.02602e-07 0)
(-9.60954e-07 -5.82418e-07 0)
(-9.21328e-07 -6.59186e-07 0)
(-8.75821e-07 -7.32367e-07 0)
(-8.24831e-07 -8.01464e-07 0)
(-7.68804e-07 -8.66021e-07 0)
(-7.08232e-07 -9.25642e-07 0)
(-6.43643e-07 -9.79984e-07 0)
(-5.75593e-07 -1.02877e-06 0)
(-5.04655e-07 -1.0718e-06 0)
(-4.31414e-07 -1.10892e-06 0)
(-3.56452e-07 -1.14007e-06 0)
(-2.80344e-07 -1.16524e-06 0)
(-2.03645e-07 -1.18449e-06 0)
(-1.26887e-07 -1.19793e-06 0)
(-5.05678e-08 -1.20574e-06 0)
(2.48506e-08 -1.20814e-06 0)
(-5.23843e-08 1.06615e-06 0)
(-1.56004e-07 1.05755e-06 0)
(-2.57133e-07 1.04075e-06 0)
(-3.55397e-07 1.01615e-06 0)
(-4.50439e-07 9.84096e-07 0)
(-5.41908e-07 9.449e-07 0)
(-6.29459e-07 8.98869e-07 0)
(-7.12741e-07 8.463e-07 0)
(-7.914e-07 7.8749e-07 0)
(-8.65077e-07 7.22742e-07 0)
(-9.33407e-07 6.52375e-07 0)
(-9.96024e-07 5.7673e-07 0)
(-1.05256e-06 4.96174e-07 0)
(-1.10266e-06 4.1111e-07 0)
(-1.14597e-06 3.21976e-07 0)
(-1.18215e-06 2.29253e-07 0)
(-1.2109e-06 1.33463e-07 0)
(-1.23195e-06 3.51735e-08 0)
(-1.24505e-06 -6.50075e-08 0)
(-1.25003e-06 -1.6643e-07 0)
(-1.24676e-06 -2.6841e-07 0)
(-1.23516e-06 -3.70231e-07 0)
(-1.21526e-06 -4.71156e-07 0)
(-1.18713e-06 -5.70436e-07 0)
(-1.15095e-06 -6.67317e-07 0)
(-1.10697e-06 -7.61057e-07 0)
(-1.05552e-06 -8.50935e-07 0)
(-9.97025e-07 -9.36265e-07 0)
(-9.31977e-07 -1.01641e-06 0)
(-8.60942e-07 -1.09079e-06 0)
(-7.84549e-07 -1.15889e-06 0)
(-7.03476e-07 -1.22029e-06 0)
(-6.18442e-07 -1.27464e-06 0)
(-5.3019e-07 -1.3217e-06 0)
(-4.39475e-07 -1.36131e-06 0)
(-3.47051e-07 -1.3934e-06 0)
(-2.53656e-07 -1.41801e-06 0)
(-1.60001e-07 -1.43524e-06 0)
(-6.67599e-08 -1.4453e-06 0)
(2.54424e-08 -1.44843e-06 0)
(-5.8897e-08 1.22686e-06 0)
(-1.75457e-07 1.21763e-06 0)
(-2.89383e-07 1.19961e-06 0)
(-4.00349e-07 1.17316e-06 0)
(-5.08037e-07 1.13862e-06 0)
(-6.12122e-07 1.09627e-06 0)
(-7.1227e-07 1.04636e-06 0)
(-8.0813e-07 9.89148e-07 0)
(-8.9933e-07 9.24866e-07 0)
(-9.85479e-07 8.53755e-07 0)
(-1.06616e-06 7.76073e-07 0)
(-1.14095e-06 6.92099e-07 0)
(-1.2094e-06 6.02143e-07 0)
(-1.27105e-06 5.06558e-07 0)
(-1.32542e-06 4.05745e-07 0)
(-1.37207e-06 3.00157e-07 0)
(-1.41055e-06 1.90308e-07 0)
(-1.44041e-06 7.67757e-08 0)
(-1.46128e-06 -3.97968e-08 0)
(-1.4728e-06 -1.58701e-07 0)
(-1.47467e-06 -2.79165e-07 0)
(-1.46669e-06 -4.00359e-07 0)
(-1.44869e-06 -5.214e-07 0)
(-1.42066e-06 -6.41365e-07 0)
(-1.38262e-06 -7.59301e-07 0)
(-1.33477e-06 -8.74242e-07 0)
(-1.27739e-06 -9.85223e-07 0)
(-1.21087e-06 -1.0913e-06 0)
(-1.13573e-06 -1.19158e-06 0)
(-1.05262e-06 -1.28521e-06 0)
(-9.62254e-07 -1.37143e-06 0)
(-8.65464e-07 -1.44957e-06 0)
(-7.63144e-07 -1.51908e-06 0)
(-6.56246e-07 -1.57952e-06 0)
(-5.45761e-07 -1.63059e-06 0)
(-4.32691e-07 -1.6721e-06 0)
(-3.18035e-07 -1.70403e-06 0)
(-2.02765e-07 -1.72646e-06 0)
(-8.78098e-08 -1.7396e-06 0)
(2.59618e-08 -1.74377e-06 0)
(-6.58312e-08 1.40699e-06 0)
(-1.96183e-07 1.39725e-06 0)
(-3.23791e-07 1.37821e-06 0)
(-4.48409e-07 1.35022e-06 0)
(-5.69781e-07 1.31356e-06 0)
(-6.87634e-07 1.26848e-06 0)
(-8.01667e-07 1.21517e-06 0)
(-9.11547e-07 1.15379e-06 0)
(-1.0169e-06 1.0845e-06 0)
(-1.11733e-06 1.00744e-06 0)
(-1.21237e-06 9.22772e-07 0)
(-1.30154e-06 8.30676e-07 0)
(-1.3843e-06 7.31365e-07 0)
(-1.4601e-06 6.25097e-07 0)
(-1.52833e-06 5.12185e-07 0)
(-1.5884e-06 3.93011e-07 0)
(-1.63967e-06 2.6803e-07 0)
(-1.68153e-06 1.37785e-07 0)
(-1.71337e-06 2.91067e-09 0)
(-1.73461e-06 -1.35863e-07 0)
(-1.74473e-06 -2.77706e-07 0)
(-1.74325e-06 -4.21688e-07 0)
(-1.72982e-06 -5.66786e-07 0)
(-1.70416e-06 -7.1189e-07 0)
(-1.66611e-06 -8.55816e-07 0)
(-1.61569e-06 -9.97324e-07 0)
(-1.55303e-06 -1.13513e-06 0)
(-1.47845e-06 -1.26796e-06 0)
(-1.39245e-06 -1.39453e-06 0)
(-1.29567e-06 -1.51361e-06 0)
(-1.18894e-06 -1.62406e-06 0)
(-1.07323e-06 -1.72483e-06 0)
(-9.49665e-07 -1.81501e-06 0)
(-8.19458e-07 -1.89386e-06 0)
(-6.83916e-07 -1.9608e-06 0)
(-5.44398e-07 -2.01546e-06 0)
(-4.02279e-07 -2.05766e-06 0)
(-2.58919e-07 -2.08741e-06 0)
(-1.15634e-07 -2.10492e-06 0)
(2.63356e-08 -2.11056e-06 0)
(-7.30879e-08 1.60761e-06 0)
(-2.17891e-07 1.59753e-06 0)
(-3.59885e-07 1.57778e-06 0)
(-4.98935e-07 1.5487e-06 0)
(-6.34883e-07 1.51052e-06 0)
(-7.67536e-07 1.46339e-06 0)
(-8.96657e-07 1.40744e-06 0)
(-1.02196e-06 1.34272e-06 0)
(-1.1431e-06 1.26926e-06 0)
(-1.25967e-06 1.1871e-06 0)
(-1.37121e-06 1.09625e-06 0)
(-1.47718e-06 9.96745e-07 0)
(-1.57698e-06 8.88652e-07 0)
(-1.66996e-06 7.72077e-07 0)
(-1.75539e-06 6.47185e-07 0)
(-1.83249e-06 5.14215e-07 0)
(-1.90046e-06 3.73495e-07 0)
(-1.95843e-06 2.25458e-07 0)
(-2.00554e-06 7.06543e-08 0)
(-2.0409e-06 -9.02323e-08 0)
(-2.06368e-06 -2.56377e-07 0)
(-2.07306e-06 -4.26805e-07 0)
(-2.06832e-06 -6.00388e-07 0)
(-2.04882e-06 -7.75847e-07 0)
(-2.01407e-06 -9.51757e-07 0)
(-1.96375e-06 -1.12656e-06 0)
(-1.89771e-06 -1.29861e-06 0)
(-1.81605e-06 -1.46615e-06 0)
(-1.7191e-06 -1.62739e-06 0)
(-1.60744e-06 -1.78057e-06 0)
(-1.48192e-06 -1.92395e-06 0)
(-1.34366e-06 -2.05588e-06 0)
(-1.19399e-06 -2.17489e-06 0)
(-1.03447e-06 -2.27969e-06 0)
(-8.66844e-07 -2.36925e-06 0)
(-6.9296e-07 -2.44278e-06 0)
(-5.1476e-07 -2.49983e-06 0)
(-3.34198e-07 -2.54023e-06 0)
(-1.53193e-07 -2.56414e-06 0)
(2.64246e-08 -2.57196e-06 0)
(-8.05275e-08 1.82946e-06 0)
(-2.40164e-07 1.81925e-06 0)
(-3.96982e-07 1.79923e-06 0)
(-5.50994e-07 1.76969e-06 0)
(-7.02175e-07 1.73078e-06 0)
(-8.5045e-07 1.68259e-06 0)
(-9.95679e-07 1.62511e-06 0)
(-1.13766e-06 1.55828e-06 0)
(-1.27611e-06 1.482e-06 0)
(-1.41066e-06 1.39613e-06 0)
(-1.54088e-06 1.30051e-06 0)
(-1.66621e-06 1.19499e-06 0)
(-1.78602e-06 1.07942e-06 0)
(-1.89959e-06 9.53696e-07 0)
(-2.00607e-06 8.17758e-07 0)
(-2.10454e-06 6.71613e-07 0)
(-2.19398e-06 5.15363e-07 0)
(-2.27328e-06 3.49224e-07 0)
(-2.34127e-06 1.73549e-07 0)
(-2.39671e-06 -1.11465e-08 0)
(-2.43834e-06 -2.04162e-07 0)
(-2.46489e-06 -4.04591e-07 0)
(-2.47511e-06 -6.11301e-07 0)
(-2.46784e-06 -8.22922e-07 0)
(-2.44202e-06 -1.03784e-06 0)
(-2.39677e-06 -1.25419e-06 0)
(-2.33141e-06 -1.4699e-06 0)
(-2.24557e-06 -1.68266e-06 0)
(-2.13917e-06 -1.89004e-06 0)
(-2.01252e-06 -2.08946e-06 0)
(-1.86632e-06 -2.27832e-06 0)
(-1.70169e-06 -2.45406e-06 0)
(-1.52017e-06 -2.61426e-06 0)
(-1.32369e-06 -2.75668e-06 0)
(-1.11454e-06 -2.87944e-06 0)
(-8.95292e-07 -2.98101e-06 0)
(-6.68734e-07 -3.06033e-06 0)
(-4.37757e-07 -3.11684e-06 0)
(-2.05258e-07 -3.15048e-06 0)
(2.59511e-08 -3.1617e-06 0)
(-8.79659e-08 2.07279e-06 0)
(-2.62455e-07 2.06274e-06 0)
(-4.34175e-07 2.043e-06 0)
(-6.03329e-07 2.01381e-06 0)
(-7.70063e-07 1.97523e-06 0)
(-9.34456e-07 1.92726e-06 0)
(-1.09651e-06 1.86976e-06 0)
(-1.25615e-06 1.80253e-06 0)
(-1.4132e-06 1.72532e-06 0)
(-1.56739e-06 1.63778e-06 0)
(-1.71834e-06 1.53956e-06 0)
(-1.86556e-06 1.43026e-06 0)
(-2.00844e-06 1.30948e-06 0)
(-2.14622e-06 1.17684e-06 0)
(-2.27802e-06 1.03194e-06 0)
(-2.40279e-06 8.74482e-07 0)
(-2.51935e-06 7.04208e-07 0)
(-2.62636e-06 5.20977e-07 0)
(-2.72234e-06 3.24781e-07 0)
(-2.80565e-06 1.15787e-07 0)
(-2.87454e-06 -1.05626e-07 0)
(-2.92717e-06 -3.38824e-07 0)
(-2.96161e-06 -5.82879e-07 0)
(-2.97594e-06 -8.36525e-07 0)
(-2.96825e-06 -1.09812e-06 0)
(-2.93677e-06 -1.36564e-06 0)
(-2.87991e-06 -1.63663e-06 0)
(-2.79637e-06 -1.90822e-06 0)
(-2.68523e-06 -2.17716e-06 0)
(-2.54609e-06 -2.43989e-06 0)
(-2.37908e-06 -2.69254e-06 0)
(-2.18501e-06 -2.93114e-06 0)
(-1.9654e-06 -3.1517e-06 0)
(-1.72247e-06 -3.35037e-06 0)
(-1.45917e-06 -3.52366e-06 0)
(-1.17905e-06 -3.66859e-06 0)
(-8.86167e-07 -3.78283e-06 0)
(-5.84938e-07 -3.86489e-06 0)
(-2.7993e-07 -3.91416e-06 0)
(2.4331e-08 -3.93095e-06 0)
(-9.51741e-08 2.33727e-06 0)
(-2.84079e-07 2.32772e-06 0)
(-4.7033e-07 2.30894e-06 0)
(-6.54354e-07 2.28108e-06 0)
(-8.36506e-07 2.24414e-06 0)
(-1.01706e-06 2.19799e-06 0)
(-1.19621e-06 2.14237e-06 0)
(-1.37404e-06 2.07696e-06 0)
(-1.55055e-06 2.00129e-06 0)
(-1.72563e-06 1.91485e-06 0)
(-1.89903e-06 1.81705e-06 0)
(-2.07039e-06 1.70723e-06 0)
(-2.2392e-06 1.58468e-06 0)
(-2.40478e-06 1.44868e-06 0)
(-2.56628e-06 1.29845e-06 0)
(-2.72265e-06 1.13325e-06 0)
(-2.87264e-06 9.52349e-07 0)
(-3.01475e-06 7.55077e-07 0)
(-3.14727e-06 5.40864e-07 0)
(-3.2682e-06 3.09284e-07 0)
(-3.37533e-06 6.01069e-08 0)
(-3.46615e-06 -2.06633e-07 0)
(-3.53796e-06 -4.90571e-07 0)
(-3.58785e-06 -7.90928e-07 0)
(-3.61276e-06 -1.10643e-06 0)
(-3.60959e-06 -1.43523e-06 0)
(-3.57526e-06 -1.77483e-06 0)
(-3.50691e-06 -2.122e-06 0)
(-3.40198e-06 -2.47277e-06 0)
(-3.2585e-06 -2.8224e-06 0)
(-3.07518e-06 -3.16546e-06 0)
(-2.85171e-06 -3.49589e-06 0)
(-2.58889e-06 -3.80724e-06 0)
(-2.28879e-06 -4.09286e-06 0)
(-1.95482e-06 -4.34627e-06 0)
(-1.59174e-06 -4.56152e-06 0)
(-1.20551e-06 -4.73356e-06 0)
(-8.03035e-07 -4.85866e-06 0)
(-3.9187e-07 -4.93468e-06 0)
(2.02504e-08 -4.96128e-06 0)
(-1.01883e-07 2.62186e-06 0)
(-3.04227e-07 2.6132e-06 0)
(-5.04093e-07 2.59614e-06 0)
(-7.02164e-07 2.57076e-06 0)
(-8.99035e-07 2.53697e-06 0)
(-1.09521e-06 2.49453e-06 0)
(-1.2911e-06 2.44308e-06 0)
(-1.48704e-06 2.38214e-06 0)
(-1.68323e-06 2.31111e-06 0)
(-1.87978e-06 2.22927e-06 0)
(-2.07669e-06 2.1358e-06 0)
(-2.2738e-06 2.0298e-06 0)
(-2.47081e-06 1.91024e-06 0)
(-2.66726e-06 1.77602e-06 0)
(-2.86249e-06 1.62595e-06 0)
(-3.05559e-06 1.45877e-06 0)
(-3.24542e-06 1.27316e-06 0)
(-3.43053e-06 1.06779e-06 0)
(-3.60916e-06 8.41296e-07 0)
(-3.77916e-06 5.92391e-07 0)
(-3.93796e-06 3.1988e-07 0)
(-4.08256e-06 2.27495e-08 0)
(-4.20948e-06 -2.99737e-07 0)
(-4.31477e-06 -6.47925e-07 0)
(-4.39398e-06 -1.02162e-06 0)
(-4.44227e-06 -1.41995e-06 0)
(-4.45445e-06 -1.84116e-06 0)
(-4.42513e-06 -2.28242e-06 0)
(-4.34896e-06 -2.73965e-06 0)
(-4.22088e-06 -3.20738e-06 0)
(-4.03652e-06 -3.67857e-06 0)
(-3.79258e-06 -4.14466e-06 0)
(-3.48735e-06 -4.59561e-06 0)
(-3.12116e-06 -5.02017e-06 0)
(-2.69681e-06 -5.40637e-06 0)
(-2.21985e-06 -5.74221e-06 0)
(-1.69869e-06 -6.01648e-06 0)
(-1.14434e-06 -6.21984e-06 0)
(-5.69873e-07 -6.34577e-06 0)
(1.04857e-08 -6.39149e-06 0)