/*--------------------------------*- C++ -*----------------------------------*\
  =========                 |
  \\      /  F ield         | OpenFOAM: The Open Source CFD Toolbox
   \\    /   O peration     | Website:  https://openfoam.org
    \\  /    A nd           | Version:  10
     \\/     M anipulation  |
\*---------------------------------------------------------------------------*/
FoamFile
{
    format      ascii;
    class       volVectorField;
    location    "0.092";
    object      U;
}
// * * * * * * * * * * * * * * * * * * * * * * * * * * * * * * * * * * * * * //

dimensions      [0 1 -1 0 0 0 0];

internalField   nonuniform List<vector> 
4000
(
(5.00002 -7.36424e-05 0)
(5.00015 -0.000220981 0)
(5.00044 -0.000368361 0)
(5.00089 -0.000515943 0)
(5.00149 -0.000663832 0)
(5.00223 -0.000812163 0)
(5.00311 -0.000961083 0)
(5.00415 -0.00111074 0)
(5.00534 -0.0012613 0)
(5.00668 -0.00141291 0)
(5.00817 -0.00156579 0)
(5.00981 -0.00172012 0)
(5.01161 -0.00187616 0)
(5.01357 -0.00203412 0)
(5.01568 -0.00219435 0)
(5.01796 -0.00235709 0)
(5.0204 -0.00252273 0)
(5.023 -0.00269156 0)
(5.02578 -0.00286403 0)
(5.02873 -0.00304044 0)
(5.03186 -0.0032213 0)
(5.03517 -0.00340693 0)
(5.03867 -0.0035979 0)
(5.04236 -0.00379454 0)
(5.04626 -0.00399747 0)
(5.05035 -0.00420705 0)
(5.05466 -0.00442394 0)
(5.05919 -0.00464854 0)
(5.06395 -0.00488154 0)
(5.06895 -0.00512335 0)
(5.07419 -0.00537473 0)
(5.07968 -0.0056361 0)
(5.08545 -0.00590823 0)
(5.09149 -0.00619159 0)
(5.09781 -0.00648696 0)
(5.10444 -0.0067948 0)
(5.11139 -0.00711595 0)
(5.11866 -0.00745087 0)
(5.12627 -0.00780039 0)
(5.13423 -0.00816498 0)
(5.14257 -0.0085455 0)
(5.1513 -0.00894241 0)
(5.16043 -0.00935654 0)
(5.16998 -0.00978837 0)
(5.17997 -0.0102387 0)
(5.19042 -0.010708 0)
(5.20135 -0.0111971 0)
(5.21278 -0.0117063 0)
(5.22473 -0.0122364 0)
(5.23721 -0.0127878 0)
(5.25026 -0.013361 0)
(5.26389 -0.0139563 0)
(5.27813 -0.0145744 0)
(5.29299 -0.0152151 0)
(5.30851 -0.0158789 0)
(5.3247 -0.0165656 0)
(5.34159 -0.0172754 0)
(5.3592 -0.0180078 0)
(5.37756 -0.0187625 0)
(5.39668 -0.0195386 0)
(5.41659 -0.0203355 0)
(5.43731 -0.0211518 0)
(5.45885 -0.0219861 0)
(5.48124 -0.0228365 0)
(5.50449 -0.0237009 0)
(5.52861 -0.0245764 0)
(5.55362 -0.0254604 0)
(5.57951 -0.0263488 0)
(5.6063 -0.0272381 0)
(5.63399 -0.0281234 0)
(5.66256 -0.029 0)
(5.692 -0.0298623 0)
(5.72231 -0.0307046 0)
(5.75345 -0.0315203 0)
(5.7854 -0.0323033 0)
(5.81813 -0.0330463 0)
(5.85158 -0.0337429 0)
(5.88571 -0.0343858 0)
(5.92046 -0.0349685 0)
(5.95577 -0.0354844 0)
(5.99156 -0.0359277 0)
(6.02777 -0.0362929 0)
(6.06431 -0.0365757 0)
(6.10109 -0.036772 0)
(6.13803 -0.0368796 0)
(6.17504 -0.0368965 0)
(6.21202 -0.0368225 0)
(6.24887 -0.0366579 0)
(6.28552 -0.0364049 0)
(6.32187 -0.0360657 0)
(6.35784 -0.0356443 0)
(6.39334 -0.0351448 0)
(6.42829 -0.0345727 0)
(6.46264 -0.0339334 0)
(6.49631 -0.0332331 0)
(6.52924 -0.0324782 0)
(6.56138 -0.0316753 0)
(6.5927 -0.0308311 0)
(6.62314 -0.0299523 0)
(6.65269 -0.0290454 0)
(6.68131 -0.0281167 0)
(6.70898 -0.0271725 0)
(6.73571 -0.0262183 0)
(6.76146 -0.0252595 0)
(6.78626 -0.0243011 0)
(6.81009 -0.0233473 0)
(6.83296 -0.0224022 0)
(6.85489 -0.0214692 0)
(6.87589 -0.0205515 0)
(6.89598 -0.0196516 0)
(6.91517 -0.0187717 0)
(6.93349 -0.0179139 0)
(6.95097 -0.0170797 0)
(6.96762 -0.0162705 0)
(6.98347 -0.0154872 0)
(6.99855 -0.0147309 0)
(7.01289 -0.0140018 0)
(7.02652 -0.0133007 0)
(7.03945 -0.0126273 0)
(7.05174 -0.0119819 0)
(7.06339 -0.0113641 0)
(7.07444 -0.0107737 0)
(7.08491 -0.0102099 0)
(7.09483 -0.00967235 0)
(7.10423 -0.00916004 0)
(7.11313 -0.00867254 0)
(7.12156 -0.00820859 0)
(7.12953 -0.00776773 0)
(7.13707 -0.00734866 0)
(7.14421 -0.00695093 0)
(7.15096 -0.00657323 0)
(7.15734 -0.00621516 0)
(7.16338 -0.00587544 0)
(7.16909 -0.00555374 0)
(7.17448 -0.00524883 0)
(7.17958 -0.00496047 0)
(7.1844 -0.00468746 0)
(7.18896 -0.00442966 0)
(7.19326 -0.00418592 0)
(7.19734 -0.00395615 0)
(7.20118 -0.00373924 0)
(7.20482 -0.00353511 0)
(7.20826 -0.00334266 0)
(7.21152 -0.00316183 0)
(7.2146 -0.00299147 0)
(7.21751 -0.00283155 0)
(7.22027 -0.00268089 0)
(7.22288 -0.0025395 0)
(7.22535 -0.0024062 0)
(7.2277 -0.00228111 0)
(7.22992 -0.00216307 0)
(7.23203 -0.00205235 0)
(7.23404 -0.00194785 0)
(7.23594 -0.00185 0)
(7.23775 -0.00175774 0)
(7.23947 -0.00167165 0)
(7.24111 -0.00159073 0)
(7.24268 -0.00151566 0)
(7.24417 -0.00144543 0)
(7.24559 -0.00138082 0)
(7.24696 -0.00132082 0)
(7.24826 -0.0012662 0)
(7.24952 -0.00121599 0)
(7.25072 -0.00117095 0)
(7.25189 -0.0011301 0)
(7.25301 -0.0010942 0)
(7.2541 -0.00106227 0)
(7.25516 -0.00103505 0)
(7.2562 -0.00101155 0)
(7.25721 -0.000992518 0)
(7.25821 -0.000976927 0)
(7.2592 -0.000965555 0)
(7.26018 -0.000957288 0)
(7.26115 -0.000952989 0)
(7.26213 -0.000951409 0)
(7.26311 -0.000953562 0)
(7.26409 -0.00095801 0)
(7.26509 -0.000966008 0)
(7.2661 -0.00097587 0)
(7.26712 -0.000989188 0)
(7.26816 -0.00100397 0)
(7.26922 -0.00102221 0)
(7.27029 -0.00104157 0)
(7.2714 -0.00106453 0)
(7.27252 -0.00108829 0)
(7.27367 -0.00111586 0)
(7.27485 -0.00114396 0)
(7.27606 -0.00117612 0)
(7.2773 -0.00120855 0)
(7.27857 -0.00124532 0)
(7.27989 -0.00128205 0)
(7.28123 -0.0013233 0)
(7.28262 -0.00136398 0)
(7.28405 -0.00140929 0)
(7.28552 -0.00145282 0)
(7.28702 -0.00150201 0)
(7.28855 -0.00154719 0)
(7.29022 -0.00160202 0)
(7.29155 -0.00163676 0)
(7.29404 -0.00173432 0)
(5.00002 -0.00022053 0)
(5.00015 -0.000661843 0)
(5.00044 -0.00110335 0)
(5.00089 -0.0015455 0)
(5.00148 -0.00198861 0)
(5.00222 -0.00243304 0)
(5.00311 -0.0028792 0)
(5.00414 -0.00332749 0)
(5.00532 -0.00377838 0)
(5.00666 -0.00423236 0)
(5.00815 -0.00469003 0)
(5.00978 -0.00515198 0)
(5.01158 -0.00561898 0)
(5.01352 -0.00609173 0)
(5.01563 -0.00657115 0)
(5.01789 -0.00705809 0)
(5.02032 -0.00755362 0)
(5.02291 -0.0080587 0)
(5.02567 -0.00857453 0)
(5.02861 -0.0091022 0)
(5.03172 -0.00964303 0)
(5.03501 -0.0101982 0)
(5.03849 -0.0107692 0)
(5.04216 -0.0113572 0)
(5.04603 -0.0119639 0)
(5.0501 -0.0125907 0)
(5.05438 -0.0132391 0)
(5.05887 -0.0139107 0)
(5.0636 -0.0146074 0)
(5.06856 -0.0153305 0)
(5.07376 -0.016082 0)
(5.07922 -0.0168635 0)
(5.08493 -0.0176771 0)
(5.09093 -0.0185243 0)
(5.09721 -0.0194073 0)
(5.10379 -0.0203276 0)
(5.11068 -0.0212876 0)
(5.11789 -0.0222889 0)
(5.12544 -0.0233337 0)
(5.13335 -0.0244238 0)
(5.14162 -0.0255614 0)
(5.15028 -0.0267483 0)
(5.15934 -0.0279866 0)
(5.16882 -0.0292781 0)
(5.17874 -0.0306251 0)
(5.18912 -0.0320291 0)
(5.19997 -0.0334924 0)
(5.21131 -0.0350164 0)
(5.22318 -0.0366031 0)
(5.23558 -0.0382539 0)
(5.24854 -0.0399705 0)
(5.26208 -0.041754 0)
(5.27623 -0.0436056 0)
(5.29101 -0.0455261 0)
(5.30643 -0.0475162 0)
(5.32254 -0.0495759 0)
(5.33934 -0.0517053 0)
(5.35686 -0.0539034 0)
(5.37513 -0.0561693 0)
(5.39417 -0.0585008 0)
(5.414 -0.0608957 0)
(5.43465 -0.0633501 0)
(5.45612 -0.0658601 0)
(5.47846 -0.06842 0)
(5.50166 -0.0710235 0)
(5.52574 -0.0736625 0)
(5.55073 -0.0763282 0)
(5.57661 -0.0790098 0)
(5.60341 -0.0816956 0)
(5.63112 -0.0843717 0)
(5.65974 -0.0870236 0)
(5.68926 -0.0896342 0)
(5.71966 -0.0921863 0)
(5.75093 -0.0946602 0)
(5.78303 -0.0970364 0)
(5.81593 -0.0992936 0)
(5.84958 -0.101411 0)
(5.88395 -0.103367 0)
(5.91895 -0.105141 0)
(5.95455 -0.106713 0)
(5.99065 -0.108064 0)
(6.02718 -0.109179 0)
(6.06406 -0.110042 0)
(6.1012 -0.110643 0)
(6.1385 -0.110973 0)
(6.17588 -0.111027 0)
(6.21322 -0.110803 0)
(6.25044 -0.110304 0)
(6.28744 -0.109535 0)
(6.32413 -0.108504 0)
(6.36042 -0.107222 0)
(6.39623 -0.105704 0)
(6.43147 -0.103966 0)
(6.46607 -0.102025 0)
(6.49997 -0.0998998 0)
(6.53312 -0.0976107 0)
(6.56544 -0.0951778 0)
(6.59691 -0.0926214 0)
(6.62749 -0.0899617 0)
(6.65713 -0.0872184 0)
(6.68583 -0.0844107 0)
(6.71356 -0.0815567 0)
(6.74032 -0.0786735 0)
(6.76609 -0.0757772 0)
(6.79087 -0.0728825 0)
(6.81468 -0.0700029 0)
(6.83752 -0.0671505 0)
(6.85939 -0.064336 0)
(6.88033 -0.0615689 0)
(6.90034 -0.0588573 0)
(6.91945 -0.0562082 0)
(6.93768 -0.0536274 0)
(6.95506 -0.0511195 0)
(6.97161 -0.0486887 0)
(6.98736 -0.0463375 0)
(7.00233 -0.0440685 0)
(7.01656 -0.0418827 0)
(7.03008 -0.0397813 0)
(7.0429 -0.037764 0)
(7.05508 -0.0358309 0)
(7.06662 -0.0339806 0)
(7.07756 -0.0322125 0)
(7.08792 -0.0305243 0)
(7.09774 -0.0289147 0)
(7.10704 -0.0273809 0)
(7.11585 -0.0259211 0)
(7.12418 -0.0245323 0)
(7.13206 -0.0232124 0)
(7.13952 -0.0219584 0)
(7.14657 -0.0207682 0)
(7.15324 -0.0196385 0)
(7.15955 -0.0185674 0)
(7.16551 -0.017552 0)
(7.17114 -0.0165902 0)
(7.17647 -0.0156792 0)
(7.1815 -0.0148173 0)
(7.18626 -0.0140016 0)
(7.19076 -0.0132308 0)
(7.195 -0.012502 0)
(7.19902 -0.0118142 0)
(7.20281 -0.0111648 0)
(7.2064 -0.0105527 0)
(7.20979 -0.00997543 0)
(7.213 -0.0094322 0)
(7.21603 -0.00892061 0)
(7.2189 -0.00843985 0)
(7.22162 -0.00798757 0)
(7.22419 -0.00756298 0)
(7.22662 -0.00716376 0)
(7.22893 -0.00678921 0)
(7.23112 -0.00643704 0)
(7.2332 -0.00610675 0)
(7.23517 -0.00579615 0)
(7.23705 -0.00550503 0)
(7.23882 -0.00523137 0)
(7.24052 -0.00497532 0)
(7.24213 -0.00473506 0)
(7.24366 -0.00451112 0)
(7.24512 -0.00430186 0)
(7.24652 -0.00410814 0)
(7.24786 -0.00392847 0)
(7.24913 -0.00376392 0)
(7.25036 -0.00361314 0)
(7.25154 -0.0034773 0)
(7.25267 -0.00335506 0)
(7.25376 -0.00324764 0)
(7.25482 -0.00315363 0)
(7.25586 -0.00307422 0)
(7.25686 -0.00300783 0)
(7.25785 -0.00295558 0)
(7.25881 -0.00291565 0)
(7.25977 -0.00288907 0)
(7.26072 -0.00287372 0)
(7.26167 -0.00287064 0)
(7.26261 -0.00287735 0)
(7.26356 -0.002895 0)
(7.26451 -0.00292081 0)
(7.26547 -0.00295622 0)
(7.26645 -0.00299816 0)
(7.26744 -0.00304858 0)
(7.26844 -0.00310413 0)
(7.26946 -0.00316746 0)
(7.27051 -0.00323494 0)
(7.27157 -0.00331001 0)
(7.27266 -0.0033887 0)
(7.27377 -0.00347521 0)
(7.27491 -0.00356512 0)
(7.27607 -0.00366332 0)
(7.27726 -0.00376482 0)
(7.27849 -0.00387511 0)
(7.27975 -0.00398838 0)
(7.28105 -0.00411056 0)
(7.28239 -0.00423481 0)
(7.28376 -0.00436778 0)
(7.28517 -0.0045008 0)
(7.28662 -0.00464356 0)
(7.28809 -0.00478208 0)
(7.28969 -0.00493963 0)
(7.291 -0.00505352 0)
(7.29338 -0.00533029 0)
(5.00002 -0.000366801 0)
(5.00015 -0.00110087 0)
(5.00044 -0.00183535 0)
(5.00088 -0.00257085 0)
(5.00148 -0.00330788 0)
(5.00221 -0.00404698 0)
(5.00309 -0.00478874 0)
(5.00412 -0.0055338 0)
(5.0053 -0.00628293 0)
(5.00662 -0.00703695 0)
(5.0081 -0.00779682 0)
(5.00972 -0.0085636 0)
(5.0115 -0.00933846 0)
(5.01343 -0.0101227 0)
(5.01552 -0.0109177 0)
(5.01776 -0.0117251 0)
(5.02017 -0.0125464 0)
(5.02273 -0.0133834 0)
(5.02547 -0.0142379 0)
(5.02837 -0.015112 0)
(5.03144 -0.0160076 0)
(5.0347 -0.016927 0)
(5.03813 -0.0178723 0)
(5.04175 -0.018846 0)
(5.04557 -0.0198505 0)
(5.04958 -0.0208884 0)
(5.05381 -0.0219621 0)
(5.05824 -0.0230745 0)
(5.0629 -0.0242283 0)
(5.06779 -0.0254263 0)
(5.07291 -0.0266714 0)
(5.07829 -0.0279666 0)
(5.08392 -0.029315 0)
(5.08982 -0.0307196 0)
(5.09601 -0.0321835 0)
(5.10248 -0.0337099 0)
(5.10927 -0.0353021 0)
(5.11637 -0.0369633 0)
(5.1238 -0.0386969 0)
(5.13159 -0.0405061 0)
(5.13974 -0.0423943 0)
(5.14826 -0.0443648 0)
(5.15719 -0.0464211 0)
(5.16653 -0.0485663 0)
(5.1763 -0.050804 0)
(5.18652 -0.0531372 0)
(5.19721 -0.0555692 0)
(5.2084 -0.058103 0)
(5.22009 -0.0607417 0)
(5.23232 -0.063488 0)
(5.24511 -0.0663445 0)
(5.25848 -0.0693135 0)
(5.27244 -0.0723971 0)
(5.28704 -0.0755969 0)
(5.30228 -0.0789141 0)
(5.3182 -0.0823492 0)
(5.33482 -0.0859025 0)
(5.35217 -0.0895729 0)
(5.37026 -0.0933589 0)
(5.38913 -0.0972577 0)
(5.4088 -0.101266 0)
(5.4293 -0.105377 0)
(5.45064 -0.109585 0)
(5.47285 -0.113882 0)
(5.49595 -0.118256 0)
(5.51995 -0.122696 0)
(5.54488 -0.127186 0)
(5.57075 -0.131709 0)
(5.59756 -0.136246 0)
(5.62532 -0.140773 0)
(5.65403 -0.145265 0)
(5.68368 -0.149695 0)
(5.71427 -0.154032 0)
(5.74578 -0.158243 0)
(5.77817 -0.162293 0)
(5.81143 -0.166147 0)
(5.84549 -0.169767 0)
(5.88032 -0.173117 0)
(5.91585 -0.176158 0)
(5.95202 -0.178857 0)
(5.98874 -0.18118 0)
(6.02594 -0.183097 0)
(6.06352 -0.184584 0)
(6.10138 -0.18562 0)
(6.13943 -0.186191 0)
(6.17755 -0.186286 0)
(6.21565 -0.185904 0)
(6.25361 -0.185049 0)
(6.29134 -0.18373 0)
(6.32872 -0.181962 0)
(6.36567 -0.179766 0)
(6.4021 -0.177166 0)
(6.43792 -0.174191 0)
(6.47304 -0.170873 0)
(6.50742 -0.167244 0)
(6.54098 -0.163339 0)
(6.57367 -0.159195 0)
(6.60545 -0.154846 0)
(6.63628 -0.150328 0)
(6.66613 -0.145674 0)
(6.69498 -0.140916 0)
(6.72282 -0.136085 0)
(6.74963 -0.131211 0)
(6.77542 -0.126319 0)
(6.80019 -0.121435 0)
(6.82394 -0.116581 0)
(6.8467 -0.111776 0)
(6.86846 -0.107041 0)
(6.88927 -0.102389 0)
(6.90912 -0.0978351 0)
(6.92806 -0.0933906 0)
(6.9461 -0.0890652 0)
(6.96328 -0.0848667 0)
(6.97962 -0.0808012 0)
(6.99516 -0.0768731 0)
(7.00991 -0.0730856 0)
(7.02392 -0.0694404 0)
(7.03721 -0.0659383 0)
(7.04982 -0.0625791 0)
(7.06177 -0.0593615 0)
(7.07309 -0.0562837 0)
(7.08382 -0.0533433 0)
(7.09398 -0.0505373 0)
(7.1036 -0.0478623 0)
(7.1127 -0.0453145 0)
(7.12131 -0.04289 0)
(7.12946 -0.0405845 0)
(7.13716 -0.0383937 0)
(7.14445 -0.0363133 0)
(7.15134 -0.0343387 0)
(7.15785 -0.0324656 0)
(7.164 -0.0306899 0)
(7.16982 -0.0290072 0)
(7.17532 -0.0274135 0)
(7.18051 -0.025905 0)
(7.18542 -0.0244777 0)
(7.19006 -0.023128 0)
(7.19444 -0.0218524 0)
(7.19858 -0.0206473 0)
(7.20249 -0.0195095 0)
(7.20619 -0.0184357 0)
(7.20968 -0.0174228 0)
(7.21298 -0.016468 0)
(7.2161 -0.0155684 0)
(7.21905 -0.0147213 0)
(7.22184 -0.0139244 0)
(7.22448 -0.0131751 0)
(7.22698 -0.012471 0)
(7.22935 -0.0118098 0)
(7.2316 -0.0111892 0)
(7.23373 -0.0106069 0)
(7.23575 -0.0100605 0)
(7.23767 -0.00954791 0)
(7.2395 -0.00906685 0)
(7.24123 -0.0086155 0)
(7.24288 -0.00819181 0)
(7.24445 -0.00779441 0)
(7.24594 -0.00742176 0)
(7.24737 -0.007073 0)
(7.24872 -0.00674723 0)
(7.25002 -0.0064441 0)
(7.25126 -0.00616331 0)
(7.25245 -0.00590489 0)
(7.25359 -0.00566899 0)
(7.25468 -0.00545581 0)
(7.25574 -0.00526573 0)
(7.25676 -0.00509885 0)
(7.25775 -0.00495551 0)
(7.25872 -0.00483548 0)
(7.25967 -0.00473887 0)
(7.2606 -0.00466489 0)
(7.26152 -0.00461332 0)
(7.26244 -0.00458276 0)
(7.26335 -0.0045726 0)
(7.26427 -0.00458094 0)
(7.26519 -0.0046069 0)
(7.26612 -0.00464832 0)
(7.26706 -0.00470425 0)
(7.26802 -0.00477259 0)
(7.26899 -0.00485265 0)
(7.26998 -0.00494269 0)
(7.27098 -0.00504249 0)
(7.27201 -0.0051509 0)
(7.27306 -0.00526828 0)
(7.27414 -0.00539409 0)
(7.27523 -0.00552913 0)
(7.27636 -0.00567325 0)
(7.2775 -0.00582747 0)
(7.27868 -0.00599167 0)
(7.27989 -0.00616676 0)
(7.28114 -0.00635225 0)
(7.28242 -0.00654865 0)
(7.28375 -0.0067549 0)
(7.28511 -0.00697116 0)
(7.28651 -0.00719559 0)
(7.28794 -0.00742944 0)
(7.28941 -0.00766604 0)
(7.291 -0.0079251 0)
(7.2923 -0.00812562 0)
(7.29466 -0.00857709 0)
(5.00002 -0.000512383 0)
(5.00015 -0.00153773 0)
(5.00044 -0.00256357 0)
(5.00088 -0.00359064 0)
(5.00147 -0.00461957 0)
(5.0022 -0.005651 0)
(5.00307 -0.0066857 0)
(5.00409 -0.00772454 0)
(5.00526 -0.00876852 0)
(5.00657 -0.00981882 0)
(5.00803 -0.0108767 0)
(5.00964 -0.0119437 0)
(5.0114 -0.0130214 0)
(5.01331 -0.0141117 0)
(5.01537 -0.0152164 0)
(5.01758 -0.0163378 0)
(5.01995 -0.0174781 0)
(5.02248 -0.0186397 0)
(5.02517 -0.0198253 0)
(5.02802 -0.0210377 0)
(5.03104 -0.0222796 0)
(5.03424 -0.0235542 0)
(5.03761 -0.0248646 0)
(5.04116 -0.0262141 0)
(5.0449 -0.0276062 0)
(5.04884 -0.0290443 0)
(5.05297 -0.0305322 0)
(5.05731 -0.0320737 0)
(5.06187 -0.0336726 0)
(5.06665 -0.035333 0)
(5.07166 -0.0370589 0)
(5.07691 -0.0388545 0)
(5.08241 -0.0407241 0)
(5.08818 -0.0426721 0)
(5.09422 -0.0447028 0)
(5.10054 -0.0468209 0)
(5.10717 -0.0490307 0)
(5.1141 -0.051337 0)
(5.12136 -0.0537444 0)
(5.12896 -0.0562576 0)
(5.13692 -0.0588815 0)
(5.14525 -0.0616206 0)
(5.15397 -0.0644799 0)
(5.16309 -0.0674641 0)
(5.17264 -0.0705779 0)
(5.18263 -0.073826 0)
(5.19309 -0.077213 0)
(5.20403 -0.0807435 0)
(5.21547 -0.0844218 0)
(5.22745 -0.0882521 0)
(5.23997 -0.0922382 0)
(5.25306 -0.0963839 0)
(5.26676 -0.100692 0)
(5.28108 -0.105166 0)
(5.29604 -0.109808 0)
(5.31168 -0.114619 0)
(5.32802 -0.119599 0)
(5.34509 -0.124749 0)
(5.36291 -0.130067 0)
(5.38152 -0.13555 0)
(5.40094 -0.141193 0)
(5.42119 -0.14699 0)
(5.44232 -0.152933 0)
(5.46433 -0.15901 0)
(5.48726 -0.165208 0)
(5.51112 -0.17151 0)
(5.53595 -0.177896 0)
(5.56177 -0.184342 0)
(5.58857 -0.190821 0)
(5.61639 -0.197301 0)
(5.64522 -0.203747 0)
(5.67507 -0.210118 0)
(5.70592 -0.216371 0)
(5.73778 -0.222457 0)
(5.77061 -0.228326 0)
(5.80439 -0.233924 0)
(5.83908 -0.239194 0)
(5.87461 -0.244081 0)
(5.91095 -0.248529 0)
(5.948 -0.252483 0)
(5.98568 -0.255892 0)
(6.02391 -0.258711 0)
(6.06257 -0.260901 0)
(6.10157 -0.26243 0)
(6.14077 -0.263275 0)
(6.18007 -0.263422 0)
(6.21934 -0.262868 0)
(6.25846 -0.26162 0)
(6.2973 -0.259693 0)
(6.33577 -0.257111 0)
(6.37374 -0.253906 0)
(6.41113 -0.250116 0)
(6.44782 -0.245784 0)
(6.48376 -0.240959 0)
(6.51885 -0.235691 0)
(6.55304 -0.230032 0)
(6.58627 -0.224036 0)
(6.61851 -0.217755 0)
(6.64971 -0.211241 0)
(6.67986 -0.204545 0)
(6.70892 -0.197713 0)
(6.7369 -0.19079 0)
(6.76379 -0.183817 0)
(6.7896 -0.176833 0)
(6.81432 -0.169873 0)
(6.83798 -0.162966 0)
(6.86059 -0.156143 0)
(6.88218 -0.149426 0)
(6.90276 -0.142838 0)
(6.92237 -0.136397 0)
(6.94103 -0.13012 0)
(6.95878 -0.124018 0)
(6.97565 -0.118103 0)
(6.99167 -0.112382 0)
(7.00687 -0.106861 0)
(7.02128 -0.101545 0)
(7.03495 -0.0964342 0)
(7.0479 -0.0915298 0)
(7.06017 -0.0868307 0)
(7.07178 -0.0823345 0)
(7.08278 -0.0780379 0)
(7.09318 -0.0739368 0)
(7.10302 -0.0700266 0)
(7.11233 -0.0663017 0)
(7.12114 -0.0627567 0)
(7.12946 -0.0593852 0)
(7.13733 -0.0561813 0)
(7.14477 -0.0531385 0)
(7.1518 -0.0502505 0)
(7.15844 -0.0475106 0)
(7.16472 -0.0449127 0)
(7.17065 -0.0424503 0)
(7.17625 -0.0401176 0)
(7.18154 -0.0379085 0)
(7.18654 -0.0358175 0)
(7.19126 -0.0338393 0)
(7.19572 -0.031969 0)
(7.19993 -0.0302015 0)
(7.2039 -0.0285325 0)
(7.20766 -0.0269575 0)
(7.21121 -0.0254721 0)
(7.21456 -0.0240722 0)
(7.21772 -0.0227536 0)
(7.22072 -0.0215123 0)
(7.22355 -0.0203444 0)
(7.22623 -0.0192459 0)
(7.22876 -0.0182133 0)
(7.23116 -0.0172431 0)
(7.23343 -0.0163319 0)
(7.23559 -0.0154765 0)
(7.23763 -0.014674 0)
(7.23957 -0.0139212 0)
(7.24141 -0.0132154 0)
(7.24317 -0.0125538 0)
(7.24483 -0.0119339 0)
(7.24642 -0.0113528 0)
(7.24793 -0.0108089 0)
(7.24937 -0.0102996 0)
(7.25074 -0.0098238 0)
(7.25205 -0.00937979 0)
(7.25329 -0.00896708 0)
(7.25448 -0.00858489 0)
(7.25562 -0.00823334 0)
(7.25671 -0.00791247 0)
(7.25775 -0.00762272 0)
(7.25876 -0.00736469 0)
(7.25973 -0.00713872 0)
(7.26067 -0.00694559 0)
(7.26158 -0.00678506 0)
(7.26247 -0.00665763 0)
(7.26336 -0.00656222 0)
(7.26423 -0.00649867 0)
(7.26509 -0.00646491 0)
(7.26596 -0.00646001 0)
(7.26684 -0.00648109 0)
(7.26772 -0.00652655 0)
(7.26862 -0.0065931 0)
(7.26953 -0.00667887 0)
(7.27046 -0.00678078 0)
(7.2714 -0.00689725 0)
(7.27237 -0.00702596 0)
(7.27336 -0.00716611 0)
(7.27437 -0.00731654 0)
(7.2754 -0.00747753 0)
(7.27645 -0.00764906 0)
(7.27753 -0.00783233 0)
(7.27863 -0.00802804 0)
(7.27976 -0.00823785 0)
(7.28091 -0.00846247 0)
(7.2821 -0.00870338 0)
(7.28332 -0.00896064 0)
(7.28458 -0.00923493 0)
(7.28588 -0.00952535 0)
(7.28722 -0.00983155 0)
(7.2886 -0.0101516 0)
(7.29002 -0.0104856 0)
(7.29147 -0.0108249 0)
(7.29305 -0.0111947 0)
(7.29435 -0.0114798 0)
(7.29669 -0.0121138 0)
(5.00002 -0.000656998 0)
(5.00015 -0.00197162 0)
(5.00043 -0.00328668 0)
(5.00087 -0.00460294 0)
(5.00145 -0.00592107 0)
(5.00218 -0.00724178 0)
(5.00305 -0.00856592 0)
(5.00406 -0.00989454 0)
(5.00521 -0.0112289 0)
(5.00651 -0.0125703 0)
(5.00795 -0.0139205 0)
(5.00954 -0.0152812 0)
(5.01127 -0.0166547 0)
(5.01315 -0.0180432 0)
(5.01518 -0.0194491 0)
(5.01735 -0.0208754 0)
(5.01968 -0.0223249 0)
(5.02216 -0.0238009 0)
(5.02479 -0.0253068 0)
(5.02758 -0.026846 0)
(5.03053 -0.0284225 0)
(5.03365 -0.0300402 0)
(5.03694 -0.0317032 0)
(5.0404 -0.0334158 0)
(5.04404 -0.0351825 0)
(5.04787 -0.0370078 0)
(5.05189 -0.0388965 0)
(5.05611 -0.0408535 0)
(5.06053 -0.0428838 0)
(5.06517 -0.0449926 0)
(5.07003 -0.0471852 0)
(5.07512 -0.0494669 0)
(5.08045 -0.0518433 0)
(5.08604 -0.0543199 0)
(5.09189 -0.0569026 0)
(5.09801 -0.0595971 0)
(5.10442 -0.0624094 0)
(5.11114 -0.0653454 0)
(5.11816 -0.0684111 0)
(5.12552 -0.0716128 0)
(5.13322 -0.0749566 0)
(5.14129 -0.0784486 0)
(5.14973 -0.0820952 0)
(5.15857 -0.0859025 0)
(5.16782 -0.0898769 0)
(5.1775 -0.0940246 0)
(5.18764 -0.0983516 0)
(5.19825 -0.102864 0)
(5.20936 -0.107568 0)
(5.22098 -0.112469 0)
(5.23315 -0.117573 0)
(5.24588 -0.122884 0)
(5.2592 -0.128408 0)
(5.27314 -0.134149 0)
(5.28772 -0.140111 0)
(5.30298 -0.146296 0)
(5.31893 -0.152707 0)
(5.33562 -0.159343 0)
(5.35306 -0.166206 0)
(5.3713 -0.173292 0)
(5.39035 -0.180597 0)
(5.41027 -0.188115 0)
(5.43107 -0.195836 0)
(5.45278 -0.203749 0)
(5.47545 -0.211838 0)
(5.4991 -0.220082 0)
(5.52376 -0.228459 0)
(5.54946 -0.236938 0)
(5.57622 -0.245486 0)
(5.60407 -0.254061 0)
(5.63303 -0.262618 0)
(5.66309 -0.271105 0)
(5.69428 -0.279462 0)
(5.72658 -0.287624 0)
(5.75998 -0.295522 0)
(5.79445 -0.30308 0)
(5.82997 -0.31022 0)
(5.86647 -0.316861 0)
(5.9039 -0.322922 0)
(5.94217 -0.328326 0)
(5.98119 -0.332996 0)
(6.02086 -0.336866 0)
(6.06105 -0.339879 0)
(6.10163 -0.341986 0)
(6.14247 -0.343155 0)
(6.18342 -0.343367 0)
(6.22434 -0.342617 0)
(6.26508 -0.340914 0)
(6.3055 -0.338284 0)
(6.34547 -0.334763 0)
(6.38487 -0.330399 0)
(6.42357 -0.325248 0)
(6.46149 -0.319374 0)
(6.49851 -0.312845 0)
(6.53458 -0.305735 0)
(6.56962 -0.298116 0)
(6.60358 -0.290063 0)
(6.63642 -0.281648 0)
(6.6681 -0.272943 0)
(6.69861 -0.264015 0)
(6.72794 -0.254929 0)
(6.75608 -0.245745 0)
(6.78303 -0.236517 0)
(6.80882 -0.227297 0)
(6.83346 -0.21813 0)
(6.85696 -0.209056 0)
(6.87935 -0.20011 0)
(6.90066 -0.191325 0)
(6.92093 -0.182725 0)
(6.94019 -0.174335 0)
(6.95847 -0.166173 0)
(6.9758 -0.158254 0)
(6.99224 -0.150589 0)
(7.00781 -0.143189 0)
(7.02255 -0.136059 0)
(7.0365 -0.129204 0)
(7.0497 -0.122624 0)
(7.06219 -0.116319 0)
(7.07399 -0.110286 0)
(7.08515 -0.104522 0)
(7.0957 -0.0990217 0)
(7.10567 -0.093778 0)
(7.11509 -0.088784 0)
(7.12399 -0.0840317 0)
(7.1324 -0.0795129 0)
(7.14034 -0.0752189 0)
(7.14784 -0.0711411 0)
(7.15492 -0.0672707 0)
(7.16161 -0.0635992 0)
(7.16793 -0.0601178 0)
(7.1739 -0.0568185 0)
(7.17954 -0.0536927 0)
(7.18486 -0.0507326 0)
(7.18988 -0.0479302 0)
(7.19462 -0.0452782 0)
(7.1991 -0.0427692 0)
(7.20332 -0.0403966 0)
(7.20731 -0.038154 0)
(7.21107 -0.0360356 0)
(7.21462 -0.0340359 0)
(7.21797 -0.0321498 0)
(7.22114 -0.0303725 0)
(7.22412 -0.0286992 0)
(7.22695 -0.0271251 0)
(7.22962 -0.0256455 0)
(7.23215 -0.0242555 0)
(7.23454 -0.0229502 0)
(7.2368 -0.0217246 0)
(7.23895 -0.0205737 0)
(7.24098 -0.0194928 0)
(7.24291 -0.0184773 0)
(7.24475 -0.017523 0)
(7.24649 -0.0166261 0)
(7.24815 -0.0157827 0)
(7.24972 -0.0149899 0)
(7.25122 -0.0142443 0)
(7.25265 -0.0135441 0)
(7.25401 -0.0128863 0)
(7.25531 -0.0122701 0)
(7.25655 -0.0116934 0)
(7.25772 -0.0111563 0)
(7.25884 -0.0106576 0)
(7.25991 -0.0101983 0)
(7.26093 -0.00977837 0)
(7.2619 -0.00939903 0)
(7.26284 -0.00906138 0)
(7.26373 -0.00876635 0)
(7.2646 -0.00851544 0)
(7.26544 -0.00830881 0)
(7.26626 -0.00814759 0)
(7.26707 -0.00803058 0)
(7.26787 -0.00795785 0)
(7.26867 -0.00792656 0)
(7.26948 -0.00793531 0)
(7.2703 -0.00797983 0)
(7.27114 -0.00805733 0)
(7.27199 -0.00816281 0)
(7.27286 -0.00829269 0)
(7.27376 -0.00844229 0)
(7.27468 -0.00860829 0)
(7.27563 -0.00878738 0)
(7.2766 -0.00897747 0)
(7.27759 -0.00917737 0)
(7.2786 -0.00938683 0)
(7.27963 -0.00960673 0)
(7.28069 -0.00983862 0)
(7.28176 -0.0100847 0)
(7.28286 -0.0103475 0)
(7.28398 -0.0106292 0)
(7.28513 -0.0109323 0)
(7.28632 -0.0112577 0)
(7.28754 -0.0116069 0)
(7.28881 -0.0119789 0)
(7.29012 -0.0123734 0)
(7.29147 -0.0127876 0)
(7.29287 -0.0132216 0)
(7.2943 -0.0136636 0)
(7.29588 -0.0141468 0)
(7.29717 -0.0145175 0)
(7.29954 -0.0153522 0)
(5.00002 -0.000800682 0)
(5.00015 -0.00240268 0)
(5.00043 -0.00400488 0)
(5.00087 -0.00560794 0)
(5.00145 -0.00721243 0)
(5.00216 -0.00881902 0)
(5.00302 -0.0104286 0)
(5.00402 -0.0120422 0)
(5.00517 -0.0136613 0)
(5.00645 -0.0152875 0)
(5.00787 -0.0169227 0)
(5.00944 -0.0185692 0)
(5.01114 -0.0202294 0)
(5.01299 -0.0219062 0)
(5.01497 -0.0236026 0)
(5.0171 -0.025322 0)
(5.01938 -0.0270681 0)
(5.02179 -0.0288448 0)
(5.02436 -0.0306562 0)
(5.02707 -0.0325068 0)
(5.02994 -0.0344011 0)
(5.03297 -0.0363442 0)
(5.03615 -0.038341 0)
(5.0395 -0.0403969 0)
(5.04302 -0.0425174 0)
(5.04671 -0.0447082 0)
(5.05059 -0.0469751 0)
(5.05465 -0.0493242 0)
(5.05891 -0.0517617 0)
(5.06337 -0.0542939 0)
(5.06804 -0.0569274 0)
(5.07293 -0.0596689 0)
(5.07805 -0.0625251 0)
(5.08341 -0.065503 0)
(5.08902 -0.0686097 0)
(5.09489 -0.0718523 0)
(5.10104 -0.0752383 0)
(5.10748 -0.078775 0)
(5.11421 -0.08247 0)
(5.12127 -0.0863309 0)
(5.12865 -0.0903654 0)
(5.13638 -0.0945813 0)
(5.14448 -0.0989864 0)
(5.15296 -0.103589 0)
(5.16183 -0.108396 0)
(5.17113 -0.113416 0)
(5.18087 -0.118656 0)
(5.19107 -0.124126 0)
(5.20175 -0.129831 0)
(5.21293 -0.13578 0)
(5.22465 -0.141981 0)
(5.23692 -0.14844 0)
(5.24977 -0.155164 0)
(5.26322 -0.162159 0)
(5.27732 -0.169432 0)
(5.29207 -0.176987 0)
(5.30753 -0.184828 0)
(5.32371 -0.192958 0)
(5.34066 -0.201379 0)
(5.3584 -0.21009 0)
(5.37697 -0.219088 0)
(5.39641 -0.228369 0)
(5.41677 -0.237924 0)
(5.43807 -0.247743 0)
(5.46036 -0.257808 0)
(5.48367 -0.268099 0)
(5.50806 -0.278589 0)
(5.53356 -0.289246 0)
(5.5602 -0.300029 0)
(5.58802 -0.310891 0)
(5.61706 -0.321775 0)
(5.64734 -0.332616 0)
(5.67888 -0.343338 0)
(5.71169 -0.353859 0)
(5.74576 -0.364085 0)
(5.78109 -0.373916 0)
(5.81764 -0.383243 0)
(5.85538 -0.391955 0)
(5.89422 -0.399938 0)
(5.93409 -0.407079 0)
(5.97488 -0.413271 0)
(6.01646 -0.418416 0)
(6.05869 -0.422429 0)
(6.10141 -0.425242 0)
(6.14444 -0.426808 0)
(6.18762 -0.4271 0)
(6.23075 -0.426113 0)
(6.27366 -0.423866 0)
(6.31619 -0.420393 0)
(6.35816 -0.415751 0)
(6.39943 -0.410009 0)
(6.43987 -0.40325 0)
(6.47936 -0.395564 0)
(6.5178 -0.38705 0)
(6.55511 -0.377808 0)
(6.59122 -0.367939 0)
(6.62609 -0.357545 0)
(6.65967 -0.346723 0)
(6.69194 -0.335565 0)
(6.72289 -0.324159 0)
(6.75252 -0.312588 0)
(6.78083 -0.300928 0)
(6.80784 -0.289249 0)
(6.83357 -0.277613 0)
(6.85805 -0.266077 0)
(6.88131 -0.254691 0)
(6.9034 -0.243496 0)
(6.92434 -0.232532 0)
(6.94418 -0.221828 0)
(6.96296 -0.211411 0)
(6.98072 -0.201301 0)
(6.99752 -0.191516 0)
(7.01338 -0.182067 0)
(7.02837 -0.172963 0)
(7.04252 -0.16421 0)
(7.05587 -0.15581 0)
(7.06847 -0.147762 0)
(7.08036 -0.140065 0)
(7.09157 -0.132714 0)
(7.10215 -0.125701 0)
(7.11212 -0.11902 0)
(7.12154 -0.11266 0)
(7.13042 -0.106612 0)
(7.1388 -0.100864 0)
(7.1467 -0.0954047 0)
(7.15416 -0.0902227 0)
(7.1612 -0.0853059 0)
(7.16784 -0.0806425 0)
(7.1741 -0.0762213 0)
(7.18001 -0.0720309 0)
(7.18559 -0.0680611 0)
(7.19085 -0.0643015 0)
(7.19581 -0.0607428 0)
(7.2005 -0.0573755 0)
(7.20491 -0.0541909 0)
(7.20908 -0.0511803 0)
(7.21301 -0.0483355 0)
(7.21671 -0.0456485 0)
(7.22021 -0.0431117 0)
(7.2235 -0.0407181 0)
(7.22661 -0.0384609 0)
(7.22954 -0.0363344 0)
(7.2323 -0.0343328 0)
(7.23491 -0.0324511 0)
(7.23737 -0.0306843 0)
(7.2397 -0.0290274 0)
(7.2419 -0.0274751 0)
(7.24399 -0.0260219 0)
(7.24598 -0.0246619 0)
(7.24786 -0.0233887 0)
(7.24965 -0.0221959 0)
(7.25135 -0.0210771 0)
(7.25297 -0.0200262 0)
(7.25451 -0.0190373 0)
(7.25598 -0.0181056 0)
(7.25738 -0.0172263 0)
(7.25871 -0.0163963 0)
(7.25998 -0.0156121 0)
(7.26119 -0.0148727 0)
(7.26234 -0.0141757 0)
(7.26342 -0.0135223 0)
(7.26446 -0.0129113 0)
(7.26543 -0.0123452 0)
(7.26636 -0.0118243 0)
(7.26723 -0.0113515 0)
(7.26807 -0.0109286 0)
(7.26886 -0.0105581 0)
(7.26962 -0.0102424 0)
(7.27035 -0.00998289 0)
(7.27106 -0.00978168 0)
(7.27176 -0.00963799 0)
(7.27246 -0.00955266 0)
(7.27316 -0.00952203 0)
(7.27388 -0.00954481 0)
(7.27461 -0.00961464 0)
(7.27537 -0.00972795 0)
(7.27616 -0.00987673 0)
(7.27697 -0.010056 0)
(7.27783 -0.0102579 0)
(7.27871 -0.0104778 0)
(7.27963 -0.0107101 0)
(7.28057 -0.010952 0)
(7.28154 -0.0112017 0)
(7.28253 -0.0114593 0)
(7.28353 -0.0117267 0)
(7.28456 -0.0120069 0)
(7.28559 -0.012304 0)
(7.28664 -0.0126225 0)
(7.28772 -0.0129666 0)
(7.28881 -0.0133404 0)
(7.28994 -0.0137459 0)
(7.2911 -0.0141848 0)
(7.29231 -0.0146563 0)
(7.29356 -0.0151588 0)
(7.29486 -0.0156884 0)
(7.29621 -0.0162436 0)
(7.29761 -0.0168092 0)
(7.29915 -0.0174258 0)
(7.30042 -0.0179017 0)
(7.30275 -0.0189836 0)
(5.00002 -0.000943733 0)
(5.00015 -0.00283175 0)
(5.00043 -0.00471948 0)
(5.00086 -0.00660727 0)
(5.00144 -0.00849541 0)
(5.00215 -0.0103844 0)
(5.00301 -0.0122749 0)
(5.004 -0.0141681 0)
(5.00513 -0.0160654 0)
(5.0064 -0.0179686 0)
(5.00781 -0.01988 0)
(5.00935 -0.0218021 0)
(5.01102 -0.0237379 0)
(5.01283 -0.0256909 0)
(5.01477 -0.0276647 0)
(5.01685 -0.0296635 0)
(5.01906 -0.0316917 0)
(5.02142 -0.033754 0)
(5.0239 -0.0358555 0)
(5.02653 -0.0380015 0)
(5.0293 -0.0401976 0)
(5.03222 -0.0424496 0)
(5.03529 -0.0447636 0)
(5.03851 -0.0471461 0)
(5.04188 -0.0496034 0)
(5.04542 -0.0521425 0)
(5.04913 -0.0547702 0)
(5.05301 -0.0574939 0)
(5.05707 -0.0603207 0)
(5.06133 -0.0632584 0)
(5.06577 -0.0663147 0)
(5.07043 -0.0694973 0)
(5.07529 -0.0728145 0)
(5.08039 -0.0762743 0)
(5.08571 -0.0798853 0)
(5.09129 -0.0836558 0)
(5.09712 -0.0875947 0)
(5.10322 -0.0917106 0)
(5.10961 -0.0960126 0)
(5.1163 -0.10051 0)
(5.1233 -0.105211 0)
(5.13064 -0.110126 0)
(5.13832 -0.115264 0)
(5.14636 -0.120635 0)
(5.15479 -0.126248 0)
(5.16362 -0.132112 0)
(5.17287 -0.138238 0)
(5.18257 -0.144635 0)
(5.19273 -0.151313 0)
(5.20338 -0.158282 0)
(5.21454 -0.165551 0)
(5.22624 -0.17313 0)
(5.23851 -0.181027 0)
(5.25137 -0.189253 0)
(5.26485 -0.197815 0)
(5.27899 -0.206721 0)
(5.29382 -0.215978 0)
(5.30936 -0.225593 0)
(5.32567 -0.23557 0)
(5.34277 -0.245913 0)
(5.36071 -0.256622 0)
(5.37954 -0.267696 0)
(5.39929 -0.27913 0)
(5.42001 -0.290915 0)
(5.44177 -0.303038 0)
(5.46459 -0.31548 0)
(5.48855 -0.328214 0)
(5.5137 -0.341208 0)
(5.54009 -0.354417 0)
(5.56777 -0.367789 0)
(5.5968 -0.381259 0)
(5.62723 -0.394749 0)
(5.65909 -0.408168 0)
(5.69242 -0.421412 0)
(5.72724 -0.434361 0)
(5.76356 -0.446881 0)
(5.80135 -0.458829 0)
(5.84059 -0.47005 0)
(5.8812 -0.480384 0)
(5.9231 -0.489672 0)
(5.96616 -0.497758 0)
(6.01023 -0.5045 0)
(6.05513 -0.509771 0)
(6.10066 -0.513473 0)