/*--------------------------------*- C++ -*----------------------------------*\
  =========                 |
  \\      /  F ield         | OpenFOAM: The Open Source CFD Toolbox
   \\    /   O peration     | Website:  https://openfoam.org
    \\  /    A nd           | Version:  11
     \\/     M anipulation  |
\*---------------------------------------------------------------------------*/
FoamFile
{
    format      ascii;
    class       volScalarField;
    location    "14";
    object      p;
}
// * * * * * * * * * * * * * * * * * * * * * * * * * * * * * * * * * * * * * //

dimensions      [0 2 -2 0 0 0 0];

internalField   nonuniform List<scalar> 
2048
(
0.363469
0.361121
0.356388
0.349058
0.338972
0.325968
0.309849
0.290392
0.26738
0.240645
0.210109
0.175824
0.138007
0.0970685
0.0536181
0.00843822
-0.0375768
-0.0835147
-0.128556
-0.172071
-0.213657
-0.253121
-0.290425
-0.325632
-0.358859
-0.390252
-0.419956
-0.448092
-0.474745
-0.499955
-0.523715
-0.545971
-0.566627
-0.585545
-0.602558
-0.617475
-0.630091
-0.640195
-0.64758
-0.652046
-0.653408
-0.651507
-0.646211
-0.637425
-0.625093
-0.609214
-0.589846
-0.567105
-0.541165
-0.512265
-0.480706
-0.446857
-0.411117
-0.37395
-0.335793
-0.297164
-0.258432
-0.220163
-0.182493
-0.146147
-0.110713
-0.0775399
-0.044873
-0.0161295
0.36589
0.36357
0.358891
0.351635
0.341631
0.3287
0.312622
0.293146
0.270026
0.243068
0.212168
0.177362
0.138869
0.0971261
0.0527986
0.0067515
-0.040028
-0.0865486
-0.131953
-0.175622
-0.217195
-0.25653
-0.293631
-0.328593
-0.361569
-0.392729
-0.422233
-0.450215
-0.476763
-0.501918
-0.525671
-0.547966
-0.568697
-0.587722
-0.604866
-0.619931
-0.632707
-0.642977
-0.650527
-0.655154
-0.656673
-0.65492
-0.649758
-0.641084
-0.628836
-0.613011
-0.593663
-0.570904
-0.544901
-0.515893
-0.484177
-0.450126
-0.414142
-0.376698
-0.338238
-0.299294
-0.260241
-0.221662
-0.18369
-0.147075
-0.11138
-0.0780018
-0.0451045
-0.0162413
0.370708
0.368449
0.363885
0.35679
0.346969
0.334206
0.318233
0.298741
0.275423
0.248022
0.216384
0.180513
0.140627
0.0972124
0.0510514
0.00318531
-0.0451869
-0.092895
-0.139007
-0.182944
-0.224446
-0.263474
-0.300122
-0.334561
-0.367005
-0.397677
-0.426771
-0.454438
-0.480774
-0.505822
-0.529569
-0.551946
-0.572838
-0.592086
-0.609502
-0.624872
-0.637976
-0.648584
-0.656474
-0.661435
-0.663273
-0.66182
-0.65693
-0.648484
-0.636413
-0.620707
-0.601411
-0.578622
-0.552499
-0.523273
-0.491242
-0.45678
-0.4203
-0.38229
-0.343211
-0.30362
-0.263913
-0.224696
-0.186116
-0.148946
-0.112736
-0.0789197
-0.0455989
-0.0164362
0.377857
0.375697
0.371327
0.364507
0.355006
0.34255
0.326798
0.307347
0.283785
0.255742
0.222971
0.185422
0.143316
0.097227
0.0481163
-0.00267707
-0.0535737
-0.103095
-0.150212
-0.194448
-0.235724
-0.274175
-0.310032
-0.343593
-0.375174
-0.405071
-0.433523
-0.460702
-0.486716
-0.511611
-0.535364
-0.557889
-0.579046
-0.598653
-0.616499
-0.632349
-0.645962
-0.657096
-0.665515
-0.670998
-0.673339
-0.672359
-0.667887
-0.659791
-0.647999
-0.632493
-0.613296
-0.590482
-0.564189
-0.534643
-0.502136
-0.467048
-0.429805
-0.390916
-0.350876
-0.310277
-0.269551
-0.229343
-0.189821
-0.151793
-0.114795
-0.0803075
-0.0463553
-0.0167194
0.387223
0.385218
0.381147
0.374756
0.365765
0.353826
0.338492
0.319232
0.295471
0.266648
0.23234
0.192375
0.146985
0.096911
0.0434143
-0.0116676
-0.0661219
-0.118032
-0.166324
-0.210742
-0.251487
-0.28893
-0.323516
-0.355733
-0.386048
-0.414841
-0.442392
-0.4689
-0.494487
-0.519195
-0.542987
-0.565747
-0.587303
-0.607438
-0.625904
-0.642436
-0.656764
-0.668624
-0.67777
-0.683978
-0.687038
-0.686759
-0.682883
-0.675268
-0.663868
-0.648662
-0.629632
-0.606814
-0.580319
-0.550357
-0.517214
-0.481272
-0.442974
-0.402864
-0.361478
-0.319466
-0.27731
-0.235713
-0.194878
-0.155657
-0.117579
-0.0821717
-0.0473714
-0.0170889
0.398637
0.396859
0.393229
0.387476
0.37926
0.368138
0.35353
0.334736
0.310967
0.28137
0.24521
0.201991
0.151881
0.0958975
0.0358641
-0.0253714
-0.0845187
-0.139197
-0.188543
-0.232749
-0.272394
-0.308146
-0.340757
-0.371003
-0.399542
-0.426838
-0.453203
-0.478853
-0.50392
-0.528434
-0.552329
-0.575448
-0.597574
-0.618441
-0.637754
-0.655203
-0.67048
-0.683289
-0.693362
-0.700469
-0.704438
-0.705152
-0.702103
-0.695151
-0.684304
-0.669533
-0.650774
-0.628006
-0.601305
-0.570852
-0.536916
-0.499881
-0.460211
-0.418495
-0.37533
-0.33144
-0.287384
-0.243945
-0.201377
-0.160593
-0.121115
-0.0845199
-0.0486487
-0.0175334
0.411853
0.410396
0.407387
0.402553
0.395473
0.385603
0.37217
0.354276
0.330834
0.300647
0.262553
0.215365
0.158895
0.0942089
0.0241685
-0.0460522
-0.11124
-0.168779
-0.218618
-0.26177
-0.299313
-0.332303
-0.361934
-0.389373
-0.415478
-0.440777
-0.465607
-0.490199
-0.514674
-0.539024
-0.563124
-0.586763
-0.609659
-0.631486
-0.651887
-0.6705
-0.68697
-0.70096
-0.71217
-0.720335
-0.725297
-0.727169
-0.725135
-0.719092
-0.709049
-0.69493
-0.676618
-0.654043
-0.627222
-0.596284
-0.561466
-0.523142
-0.481799
-0.438081
-0.392666
-0.346383
-0.299899
-0.254108
-0.209343
-0.166592
-0.125383
-0.087328
-0.0501796
-0.0180362
0.426526
0.425504
0.423336
0.419773
0.414307
0.406318
0.394741
0.378448
0.355803
0.325266
0.285153
0.233433
0.169337
0.0924435
0.00727955
-0.0759625
-0.148884
-0.209224
-0.258588
-0.299244
-0.332994
-0.361572
-0.386876
-0.410475
-0.433317
-0.455949
-0.478764
-0.502023
-0.525804
-0.550006
-0.574408
-0.598706
-0.622537
-0.645494
-0.667149
-0.687082
-0.704895
-0.720232
-0.73278
-0.742252
-0.748391
-0.751051
-0.749998
-0.745081
-0.736122
-0.72294
-0.70537
-0.683288
-0.656632
-0.625445
-0.589894
-0.55032
-0.507212
-0.461265
-0.413252
-0.364132
-0.314723
-0.266069
-0.218637
-0.173504
-0.130251
-0.090472
-0.0518935
-0.0184984
0.442204
0.441739
0.44065
0.438767
0.435491
0.430248
0.421555
0.408171
0.387209
0.356785
0.313631
0.255682
0.18219
0.0880839
-0.0188222
-0.119284
-0.201228
-0.26386
-0.311011
-0.34653
-0.373404
-0.39487
-0.41404
-0.432624
-0.451283
-0.470485
-0.490707
-0.512248
-0.535107
-0.559047
-0.583705
-0.608647
-0.633395
-0.657439
-0.680271
-0.701411
-0.720427
-0.736952
-0.750685
-0.761379
-0.768746
-0.772089
-0.771973
-0.768226
-0.76049
-0.74848
-0.731986
-0.710822
-0.684827
-0.653928
-0.618187
-0.577861
-0.533403
-0.485517
-0.43505
-0.383091
-0.330631
-0.278899
-0.228555
-0.180794
-0.135339
-0.0936746
-0.053686
-0.0187628
0.458318
0.458522
0.458739
0.458941
0.458461
0.45698
0.452553
0.444327
0.427251
0.399373
0.351387
0.282642
0.189713
0.0650672
-0.0708255
-0.18754
-0.274576
-0.335259
-0.37549
-0.400674
-0.415408
-0.425868
-0.436979
-0.449781
-0.464039
-0.479892
-0.497734
-0.517748
-0.539805
-0.56355
-0.588491
-0.614062
-0.639651
-0.664643
-0.688447
-0.71053
-0.730431
-0.747772
-0.762243
-0.773596
-0.781622
-0.786111
-0.786844
-0.783973
-0.777221
-0.766283
-0.750902
-0.730824
-0.7058
-0.675646
-0.640307
-0.59993
-0.554879
-0.505818
-0.453616
-0.399441
-0.344442
-0.290013
-0.237056
-0.186879
-0.139491
-0.0961163
-0.0551398
-0.0186074
0.474195
0.475147
0.47685
0.479447
0.482294
0.485465
0.486809
0.486472
0.477458
0.459291
0.410465
0.329992
0.187492
0.00106668
-0.165878
-0.283532
-0.360202
-0.407546
-0.433022
-0.442689
-0.442167
-0.441584
-0.445911
-0.454754
-0.466959
-0.482
-0.49968
-0.519804
-0.54209
-0.566149
-0.591482
-0.617509
-0.643602
-0.669122
-0.693451
-0.716033
-0.736387
-0.754127
-0.768948
-0.780615
-0.788952
-0.793738
-0.795083
-0.792683
-0.786434
-0.776113
-0.761437
-0.742097
-0.71779
-0.688265
-0.65338
-0.613189
-0.567971
-0.518323
-0.465097
-0.409488
-0.352753
-0.296387
-0.24154
-0.189587
-0.140964
-0.0964877
-0.0554113
-0.0178008
0.48909
0.49081
0.494094
0.499211
0.505723
0.513988
0.522292
0.531635
0.53556
0.536479
0.505924
0.444276
0.234276
-0.0641406
-0.258526
-0.358435
-0.412158
-0.442115
-0.456117
-0.457388
-0.450036
-0.447666
-0.450876
-0.458224
-0.469222
-0.483594
-0.501025
-0.521163
-0.543618
-0.56793
-0.593562
-0.619908
-0.646318
-0.672131
-0.696712
-0.719494
-0.739991
-0.757821
-0.772697
-0.784405
-0.792778
-0.79766
-0.798989
-0.796548
-0.790347
-0.78014
-0.765615
-0.746448
-0.72231
-0.692921
-0.658101
-0.617852
-0.572403
-0.522306
-0.468394
-0.411867
-0.354046
-0.296462
-0.240484
-0.1875
-0.138456
-0.0937139
-0.0536606
-0.0162076
0.502223
0.504673
0.509496
0.517044
0.527206
0.540476
0.556069
0.575129
0.594206
0.616782
0.626939
0.640287
0.506406
0.0117841
-0.242298
-0.361108
-0.415789
-0.439907
-0.451233
-0.456308
-0.44923
-0.447855
-0.452104
-0.459928
-0.471128
-0.485475
-0.50275
-0.522694
-0.544959
-0.569099
-0.594579
-0.620794
-0.647087
-0.672793
-0.697273
-0.719954
-0.740354
-0.75809
-0.772872
-0.784483
-0.792748
-0.797501
-0.798581
-0.796131
-0.78977
-0.779368
-0.764625
-0.745208
-0.720788
-0.691084
-0.655914
-0.615272
-0.569383
-0.518779
-0.464309
-0.407171
-0.348726
-0.290491
-0.233995
-0.180614
-0.13178
-0.0875078
-0.049469
-0.0136857
0.512844
0.515933
0.52208
0.531758
0.545092
0.562827
0.584804
0.612588
0.64469
0.684459
0.723429
0.766762
0.720683
0.271415
-0.0137859
-0.190894
-0.303351
-0.372245
-0.414196
-0.444473
-0.448054
-0.447052
-0.452173
-0.460067
-0.471183
-0.485314
-0.50232
-0.521965
-0.543912
-0.567722
-0.592871
-0.618766
-0.644766
-0.670218
-0.694493
-0.717021
-0.737314
-0.75498
-0.769715
-0.781286
-0.7895
-0.794175
-0.795163
-0.792494
-0.785823
-0.775057
-0.759866
-0.739928
-0.714929
-0.684606
-0.648807
-0.607555
-0.561105
-0.510014
-0.455133
-0.39756
-0.338827
-0.280375
-0.22378
-0.170461
-0.122124
-0.0786696
-0.043145
-0.0099839
0.520317
0.523881
0.531001
0.542267
0.557934
0.579043
0.605629
0.639933
0.680283
0.731401
0.782283
0.842977
0.817491
0.363309
0.0619755
-0.133208
-0.262559
-0.345263
-0.398092
-0.437715
-0.446041
-0.443937
-0.449503
-0.457552
-0.468716
-0.482834
-0.499757
-0.519247
-0.540979
-0.564532
-0.589398
-0.615003
-0.640727
-0.665938
-0.690021
-0.712416
-0.732633
-0.750269
-0.765005
-0.776583
-0.784781
-0.789385
-0.7902
-0.787006
-0.780157
-0.768981
-0.753262
-0.732712
-0.707044
-0.67603
-0.639557
-0.597691
-0.550736
-0.499272
-0.444156
-0.386518
-0.327749
-0.269403
-0.213
-0.160002
-0.112051
-0.069268
-0.0361243
-0.00494329
0.524179
0.527992
0.535632
0.547735
0.56466
0.58753
0.616602
0.654103
0.698729
0.754482
0.81122
0.876682
0.86102
0.421048
0.117149
-0.0897529
-0.23224
-0.325975
-0.386963
-0.432501
-0.443871
-0.441393
-0.446831
-0.454971
-0.466251
-0.480442
-0.497379
-0.516816
-0.53844
-0.561843
-0.586536
-0.61196
-0.637511
-0.662569
-0.686532
-0.708844
-0.729016
-0.746637
-0.761375
-0.772959
-0.781152
-0.785731
-0.786455
-0.783124
-0.775686
-0.764135
-0.748047
-0.727079
-0.700952
-0.669466
-0.632544
-0.590285
-0.543024
-0.49136
-0.436169
-0.378592
-0.319987
-0.26183
-0.205614
-0.153053
-0.105181
-0.062388
-0.0318802
-0.000236666
0.524178
0.527991
0.535631
0.547734
0.56466
0.587529
0.616602
0.654102
0.698728
0.754481
0.811219
0.876681
0.861019
0.421046
0.117147
-0.0897555
-0.232243
-0.325979
-0.386968
-0.432509
-0.443879
-0.441401
-0.446842
-0.454987
-0.466273
-0.48047
-0.497414
-0.516858
-0.538486
-0.561891
-0.586583
-0.612004
-0.637549
-0.6626
-0.686553
-0.708854
-0.729014
-0.746622
-0.761347
-0.772917
-0.781096
-0.78566
-0.78637
-0.783033
-0.775591
-0.764031
-0.747932
-0.726961
-0.700838
-0.66936
-0.632449
-0.590206
-0.542964
-0.491319
-0.436149
-0.378592
-0.320006
-0.261863
-0.205658
-0.153103
-0.105234
-0.0624397
-0.03192
-0.00026119
0.520315
0.523879
0.530999
0.542265
0.557932
0.579041
0.605627
0.63993
0.680281
0.731398
0.782279
0.842973
0.817486
0.363303
0.061968
-0.133216
-0.262568
-0.345273
-0.398105
-0.437736
-0.446058
-0.443962
-0.449535
-0.457597
-0.468778
-0.482915
-0.499857
-0.519364
-0.541108
-0.564666
-0.589532
-0.615128
-0.640837
-0.666026
-0.690083
-0.712446
-0.732629
-0.750229
-0.764927
-0.776467
-0.784627
-0.789191
-0.789976
-0.786787
-0.779879
-0.768675
-0.752944
-0.732393
-0.706736
-0.675744
-0.639305
-0.597483
-0.550578
-0.49917
-0.444112
-0.386528
-0.327808
-0.269502
-0.213126
-0.160142
-0.112192
-0.0693963
-0.0362262
-0.00499701
0.512841
0.51593
0.522077
0.531755
0.545089
0.562823
0.5848
0.612584
0.644686
0.684453
0.723422
0.766754
0.720673
0.271404
-0.0137978
-0.190906
-0.303365
-0.372262
-0.414215
-0.444504
-0.44808
-0.447085
-0.452219
-0.460134
-0.471276
-0.485436
-0.50247
-0.52214
-0.544104
-0.567923
-0.59307
-0.618951
-0.644927
-0.670347
-0.694581
-0.717062
-0.737304
-0.754916
-0.769595
-0.781109
-0.789266
-0.793884
-0.794812
-0.792062
-0.785389
-0.774608
-0.759409
-0.739474
-0.714494
-0.684206
-0.648458
-0.607271
-0.560896
-0.509887
-0.455089
-0.39759
-0.338926
-0.280529
-0.223969
-0.170665
-0.122324
-0.0788443
-0.043275
-0.0100437
0.502218
0.504669
0.509491
0.51704
0.527201
0.540472
0.556064
0.575124
0.5942
0.616775
0.626931
0.640276
0.50639
0.0117664
-0.242315
-0.361125
-0.415807
-0.439929
-0.451259
-0.456339
-0.449256
-0.447891
-0.452159
-0.46001
-0.471242
-0.485625
-0.502935
-0.522908
-0.545194
-0.569342
-0.594819
-0.621016
-0.64728
-0.672945
-0.697375
-0.719998
-0.740336
-0.758005
-0.772719
-0.784262
-0.792459
-0.797148
-0.798169
-0.795652
-0.78926
-0.778838
-0.764087
-0.744679
-0.720286
-0.690627
-0.65552
-0.614959
-0.569161
-0.518654
-0.46428
-0.407232
-0.348863
-0.290686
-0.234225
-0.180856
-0.132009
-0.0877016
-0.0496052
-0.0137427
0.489085
0.490805
0.494089
0.499206
0.505718
0.513982
0.522286
0.531628
0.535553
0.53647
0.505914
0.444263
0.234258
-0.0641611
-0.258547
-0.358456
-0.412181
-0.44214
-0.456143
-0.457412
-0.450058
-0.4477
-0.450933
-0.458314
-0.469351
-0.483763
-0.501232
-0.521402
-0.543878
-0.568198
-0.593824
-0.62015
-0.646526
-0.672292
-0.696818
-0.719534
-0.739962
-0.757718
-0.772518
-0.784151
-0.792452
-0.797263
-0.798518
-0.796032
-0.789797
-0.77957
-0.765041
-0.745887
-0.721783
-0.692448
-0.657701
-0.617541
-0.572193
-0.522201
-0.46839
-0.411955
-0.354211
-0.296681
-0.240732
-0.187752
-0.138688
-0.0939039
-0.0537886
-0.0162579
0.474189
0.475141
0.476844
0.47944
0.482287
0.485458
0.486801
0.486464
0.477449
0.459281
0.410453
0.329978
0.187473
0.00104467
-0.165903
-0.283557
-0.360228
-0.407573
-0.433049
-0.442716
-0.442194
-0.441624
-0.445977
-0.454856
-0.467102
-0.482185
-0.499903
-0.520057
-0.542364
-0.566429
-0.591754
-0.617759
-0.643815
-0.669285
-0.693554
-0.716068
-0.736348
-0.754011
-0.768753
-0.780342
-0.788605
-0.793326
-0.794605
-0.792156
-0.785873
-0.775536
-0.760859
-0.741539
-0.717272
-0.687807
-0.653001
-0.612904
-0.567789
-0.518245
-0.465118
-0.409596
-0.352929
-0.296608
-0.241782
-0.189824
-0.141176
-0.0966565
-0.0555208
-0.0178421
0.458311
0.458515
0.458732
0.458934
0.458453
0.456972
0.452545
0.444317
0.427241
0.399361
0.351374
0.282626
0.189695
0.0650456
-0.0708504
-0.187568
-0.274606
-0.335292
-0.375525
-0.400713
-0.415452
-0.425927
-0.437061
-0.449895
-0.46419
-0.480082
-0.497959
-0.518003
-0.540079
-0.563829
-0.588761
-0.614306
-0.639857
-0.664797
-0.68854
-0.710553
-0.73038
-0.747643
-0.762036
-0.773309
-0.781256
-0.785681
-0.786365
-0.783452
-0.776671
-0.765721
-0.750347
-0.730296
-0.705317
-0.675228
-0.63997
-0.599685
-0.554732
-0.505768
-0.453655
-0.399554
-0.34461
-0.290215
-0.237269
-0.187084
-0.139668
-0.0962535
-0.0552253
-0.0186389
0.442196
0.441731
0.440642
0.438758
0.435482
0.430239
0.421545
0.40816
0.387197
0.356772
0.313616
0.255665
0.182172
0.088062
-0.0188477
-0.119313
-0.201261
-0.263897
-0.311054
-0.346579
-0.373463
-0.394943
-0.414134
-0.432744
-0.451435
-0.470668
-0.490919
-0.512483
-0.535356
-0.559297
-0.583943
-0.608862
-0.633572
-0.657567
-0.680341
-0.701414
-0.72036
-0.736811
-0.75047
-0.761089
-0.768384
-0.771674
-0.771513
-0.767731
-0.759973
-0.747959
-0.731478
-0.710345
-0.684399
-0.653565
-0.6179
-0.57766
-0.533288
-0.485486
-0.435093
-0.383192
-0.330775
-0.279066
-0.228727
-0.180956
-0.135476
-0.0937777
-0.0537477
-0.0187851
0.426517
0.425495
0.423327
0.419764
0.414297
0.406308
0.39473
0.378436
0.35579
0.325252
0.285137
0.233415
0.169317
0.0924203
0.00725275
-0.0759934
-0.148919
-0.209264
-0.258636
-0.299299
-0.333059
-0.361651
-0.386972
-0.410593
-0.433459
-0.456115
-0.478951
-0.502227
-0.526015
-0.550216
-0.574606
-0.59888
-0.622677
-0.645589
-0.667192
-0.687065
-0.704814
-0.720085
-0.732568
-0.741979
-0.748064
-0.75067
-0.749577
-0.744633
-0.73566
-0.72248
-0.704927
-0.682878
-0.656269
-0.625141
-0.589658
-0.550155
-0.50712
-0.46124
-0.413285
-0.364211
-0.314833
-0.266197
-0.218766
-0.173624
-0.130351
-0.0905459
-0.051936
-0.0185137
0.411843
0.410386
0.407377
0.402543
0.395462
0.385592
0.372158
0.354263
0.33082
0.300632
0.262536
0.215346
0.158874
0.0941842
0.0241401
-0.0460849
-0.111278
-0.168822
-0.218669
-0.261829
-0.299382
-0.332384
-0.36203
-0.389485
-0.415609
-0.440926
-0.46577
-0.490373
-0.514852
-0.539198
-0.563286
-0.586904
-0.609769
-0.631557
-0.651912
-0.670474
-0.686888
-0.700823
-0.711979
-0.720094
-0.725013
-0.726835
-0.724767
-0.718704
-0.708652
-0.694538
-0.676244
-0.653699
-0.626919
-0.596032
-0.56127
-0.523006
-0.481721
-0.438056
-0.392687
-0.346439
-0.29998
-0.254201
-0.209438
-0.166679
-0.125455
-0.0873804
-0.0502086
-0.0180466
0.398627
0.396849
0.393218
0.387465
0.379249
0.368126
0.353517
0.334723
0.310952
0.281353
0.245192
0.201971
0.151858
0.0958715
0.0358342
-0.0254058
-0.0845583
-0.139243
-0.188596
-0.23281
-0.272464
-0.308228
-0.340851
-0.37111
-0.399663
-0.426972
-0.453348
-0.479005
-0.504072
-0.528582
-0.552464
-0.575564
-0.597663
-0.618496
-0.637768
-0.655173
-0.670404
-0.683165
-0.693191
-0.700255
-0.704185
-0.704861
-0.701784
-0.694817
-0.683965
-0.669201
-0.650457
-0.627717
-0.601051
-0.57064
-0.536751
-0.499764
-0.460141
-0.418468
-0.375339
-0.331478
-0.287441
-0.244013
-0.201446
-0.160656
-0.121167
-0.0845574
-0.0486689
-0.0175406
0.387212
0.385207
0.381136
0.374744
0.365753
0.353813
0.338479
0.319218
0.295456
0.266631
0.232321
0.192354
0.146961
0.0968837
0.0433831
-0.0117034
-0.066163
-0.118079
-0.166378
-0.210804
-0.251558
-0.289011
-0.323608
-0.355836
-0.386161
-0.414964
-0.442523
-0.469035
-0.494621
-0.519323
-0.543102
-0.565844
-0.587376
-0.60748
-0.625911
-0.642404
-0.656691
-0.66851
-0.677616
-0.683786
-0.686812
-0.686503
-0.682606
-0.674977
-0.663575
-0.648374
-0.62936
-0.606566
-0.580102
-0.550176
-0.517072
-0.481171
-0.442911
-0.402837
-0.361481
-0.319492
-0.277351
-0.235763
-0.194929
-0.155705
-0.117618
-0.0821992
-0.0473859
-0.0170941
0.377845
0.375686
0.371316
0.364495
0.354993
0.342537
0.326784
0.307332
0.283768
0.255724
0.222951
0.1854
0.143292
0.0971988
0.048084
-0.00271401
-0.053616
-0.103143
-0.150268
-0.194511
-0.235796
-0.274255
-0.310122
-0.343692
-0.375282
-0.405187
-0.433643
-0.460824
-0.486837
-0.511725
-0.535465
-0.557972
-0.579106
-0.598687
-0.6165
-0.632316
-0.645893
-0.656989
-0.665372
-0.670822
-0.673134
-0.672129
-0.667639
-0.659533
-0.647739
-0.63224
-0.613057
-0.590263
-0.563998
-0.534484
-0.502011
-0.466958
-0.429748
-0.390889
-0.350874
-0.310295
-0.269581
-0.229381
-0.189861
-0.151829
-0.114825
-0.0803286
-0.0463664
-0.0167235
0.370697
0.368437
0.363873
0.356778
0.346956
0.334193
0.318218
0.298725
0.275406
0.248003
0.216364
0.18049
0.140601
0.0971833
0.0510183
0.00314748
-0.0452301
-0.0929443
-0.139063
-0.183007
-0.224517
-0.263554
-0.30021
-0.334657
-0.367108
-0.397786
-0.426884
-0.454552
-0.480885
-0.505925
-0.52966
-0.552021
-0.572891
-0.592114
-0.609499
-0.624838
-0.637908
-0.648483
-0.65634
-0.661271
-0.663083
-0.661608
-0.656702
-0.648248
-0.636176
-0.620477
-0.601194
-0.578425
-0.552326
-0.523129
-0.491128
-0.456697
-0.420247
-0.382263
-0.343207
-0.303633
-0.263937
-0.224727
-0.186148
-0.148976
-0.11276
-0.0789369
-0.0456081
-0.0164397
0.365878
0.363558
0.358879
0.351623
0.341618
0.328686
0.312608
0.29313
0.270009
0.243049
0.212147
0.177339
0.138843
0.0970965
0.0527649
0.00671304
-0.0400719
-0.0865985
-0.13201
-0.175685
-0.217267
-0.25661
-0.293718
-0.328688
-0.36167
-0.392834
-0.422342
-0.450324
-0.476868
-0.502015
-0.525756
-0.548034
-0.568745
-0.587745
-0.604861
-0.619896
-0.632641
-0.642879
-0.650398
-0.654998
-0.656493
-0.654719
-0.649544
-0.640862
-0.628613
-0.612795
-0.59346
-0.57072
-0.54474
-0.515758
-0.484071
-0.450048
-0.414091
-0.376672
-0.338232
-0.299303
-0.260261
-0.221688
-0.183718
-0.147101
-0.111401
-0.0780168
-0.0451128
-0.0162445
0.363457
0.361109
0.356376
0.349046
0.338958
0.325954
0.309834
0.290376
0.267362
0.240626
0.210088
0.1758
0.13798
0.0970386
0.0535841
0.00839943
-0.037621
-0.083565
-0.128613
-0.172135
-0.213728
-0.2532
-0.290512
-0.325725
-0.358959
-0.390356
-0.420062
-0.448198
-0.474847
-0.500048
-0.523797
-0.546037
-0.566672
-0.585566
-0.602552
-0.617439
-0.630025
-0.640099
-0.647454
-0.651893
-0.653232
-0.651311
-0.646003
-0.63721
-0.624878
-0.609005
-0.58965
-0.566927
-0.541009
-0.512136
-0.480604
-0.446782
-0.411068
-0.373925
-0.335786
-0.297173
-0.258451
-0.220188
-0.182518
-0.146171
-0.110732
-0.077554
-0.044881
-0.0161328
)
;

boundaryField
{
    inlet
    {
        type            zeroGradient;
    }
    outlet
    {
        type            fixedValue;
        value           uniform 0;
    }
    top
    {
        type            symmetryPlane;
    }
    bottom
    {
        type            symmetryPlane;
    }
    frontAndBack
    {
        type            empty;
    }
}


// ************************************************************************* //
