/*--------------------------------*- C++ -*----------------------------------*\
  =========                 |
  \\      /  F ield         | OpenFOAM: The Open Source CFD Toolbox
   \\    /   O peration     | Website:  https://openfoam.org
    \\  /    A nd           | Version:  10
     \\/     M anipulation  |
\*---------------------------------------------------------------------------*/
FoamFile
{
    format      ascii;
    class       volScalarField;
    location    "0.098";
    object      p;
}
// * * * * * * * * * * * * * * * * * * * * * * * * * * * * * * * * * * * * * //

dimensions      [0 2 -2 0 0 0 0];

internalField   nonuniform List<scalar> 
4000
(
13.7946
13.794
13.7926
13.7903
13.7874
13.7837
13.7792
13.7741
13.7681
13.7614
13.754
13.7457
13.7367
13.727
13.7164
13.705
13.6928
13.6797
13.6658
13.6509
13.6352
13.6185
13.6009
13.5823
13.5627
13.5421
13.5203
13.4974
13.4734
13.4481
13.4215
13.3936
13.3644
13.3337
13.3014
13.2676
13.2322
13.195
13.1561
13.1152
13.0724
13.0275
12.9805
12.9312
12.8795
12.8253
12.7686
12.7091
12.6468
12.5815
12.5131
12.4415
12.3665
12.288
12.2057
12.1197
12.0296
11.9355
11.837
11.734
11.6264
11.514
11.3966
11.2742
11.1465
11.0135
10.875
10.7308
10.581
10.4254
10.2641
10.0969
9.92389
9.74519
9.56081
9.37093
9.17569
8.97535
8.77014
8.5604
8.34647
8.1288
7.90778
7.68395
7.45778
7.22988
7.00074
6.77101
6.54123
6.31202
6.08391
5.85753
5.63334
5.41194
5.19373
4.97924
4.7688
4.56286
4.36166
4.16558
3.97477
3.78952
3.60992
3.43616
3.26826
3.10635
2.95036
2.80039
2.6563
2.51812
2.38568
2.25898
2.1378
2.0221
1.91165
1.8064
1.70608
1.61064
1.51979
1.43348
1.35142
1.27358
1.19963
1.12956
1.06305
1.0001
0.940383
0.883919
0.830374
0.779799
0.731852
0.686612
0.643728
0.603311
0.564998
0.528936
0.494745
0.462608
0.43213
0.403528
0.376387
0.350964
0.32682
0.304255
0.282801
0.2628
0.243755
0.226054
0.209166
0.193525
0.178563
0.164766
0.151525
0.13938
0.127675
0.11701
0.106681
0.0973468
0.0882503
0.0801178
0.0721298
0.0650843
0.058093
0.0520319
0.0459365
0.0407667
0.0354727
0.0311072
0.0265269
0.0228847
0.0189346
0.0159396
0.0125429
0.0101255
0.00721066
0.00530788
0.00281235
0.0013701
-0.000760993
-0.00178921
-0.00360024
-0.00425033
-0.00577654
-0.00607854
-0.0073435
-0.00731397
-0.00833135
-0.00798898
-0.00878296
-0.00816797
-0.00878307
-0.00795306
-0.0084318
-0.00741642
-0.0076857
-0.00636451
-0.00636013
-0.00483433
-0.00446172
0.00186468
13.7975
13.7969
13.7955
13.7933
13.7903
13.7866
13.7822
13.7771
13.7711
13.7645
13.757
13.7488
13.7399
13.7301
13.7196
13.7083
13.6961
13.6831
13.6692
13.6545
13.6389
13.6223
13.6048
13.5863
13.5668
13.5463
13.5247
13.502
13.4781
13.453
13.4266
13.3989
13.3699
13.3394
13.3074
13.2739
13.2387
13.2018
13.1631
13.1226
13.0801
13.0355
12.9888
12.9399
12.8886
12.8348
12.7784
12.7194
12.6575
12.5926
12.5247
12.4535
12.3789
12.3008
12.2191
12.1335
12.0439
11.9501
11.852
11.7494
11.6422
11.5302
11.4131
11.2909
11.1635
11.0306
10.8921
10.7479
10.598
10.4422
10.2804
10.1128
9.93914
9.75965
9.57434
9.38336
9.18686
8.98509
8.7783
8.56683
8.35104
8.13137
7.90827
7.68227
7.45389
7.22373
6.99236
6.76041
6.52847
6.29718
6.0671
5.83885
5.61295
5.38998
5.17037
4.95463
4.74313
4.53629
4.33438
4.13774
3.94655
3.76107
3.58138
3.40767
3.23993
3.07829
2.92267
2.77314
2.62957
2.49198
2.36019
2.23417
2.11372
1.99879
1.88914
1.7847
1.68521
1.59059
1.50058
1.41509
1.33385
1.25678
1.18361
1.11428
1.0485
0.986229
0.927186
0.871353
0.818435
0.768441
0.721075
0.676369
0.634022
0.594094
0.556276
0.520658
0.486922
0.455187
0.425124
0.396883
0.37012
0.345018
0.321217
0.298933
0.277786
0.258028
0.239258
0.221766
0.205126
0.189665
0.174932
0.161295
0.14827
0.136267
0.124769
0.114231
0.104097
0.0948699
0.0859545
0.0779048
0.0700801
0.0630906
0.0562447
0.0502136
0.0442493
0.0390886
0.0339187
0.0295481
0.0250931
0.0214388
0.017622
0.0146119
0.0113598
0.00892504
0.00616556
0.00423986
0.00190712
0.000431289
-0.00153441
-0.00261229
-0.00425938
-0.00497898
-0.00634444
-0.00673632
-0.00784307
-0.00792168
-0.0087789
-0.00855587
-0.00918031
-0.00868797
-0.00912079
-0.0084159
-0.00870337
-0.00781817
-0.00789007
-0.00669123
-0.0064888
-0.00504696
-0.00468474
0.00189207
13.8034
13.8028
13.8014
13.7992
13.7962
13.7926
13.7882
13.783
13.7772
13.7705
13.7631
13.755
13.7461
13.7364
13.726
13.7148
13.7027
13.6899
13.6761
13.6616
13.6461
13.6297
13.6125
13.5942
13.575
13.5547
13.5334
13.511
13.4874
13.4627
13.4367
13.4095
13.3808
13.3508
13.3193
13.2863
13.2516
13.2153
13.1772
13.1373
13.0954
13.0515
13.0055
12.9573
12.9067
12.8537
12.7981
12.7399
12.6788
12.6148
12.5477
12.4774
12.4038
12.3266
12.2457
12.161
12.0723
11.9794
11.8822
11.7804
11.674
11.5626
11.4462
11.3246
11.1975
11.0649
10.9266
10.7824
10.6322
10.476
10.3136
10.145
9.97012
9.78909
9.60191
9.40872
9.20968
9.00503
8.79503
8.58004
8.36044
8.13671
7.90933
7.6789
7.44597
7.21122
6.97525
6.73877
6.50242
6.26688
6.03278
5.80077
5.5714
5.34527
5.12285
4.90464
4.69102
4.48241
4.27908
4.08135
3.88941
3.70347
3.52363
3.35003
3.18267
3.02161
2.8668
2.71824
2.5758
2.43946
2.30903
2.18446
2.06553
1.95217
1.84413
1.74133
1.64349
1.55053
1.46217
1.37832
1.29869
1.22321
1.15158
1.08375
1.01942
0.958557
0.900868
0.84633
0.794662
0.745861
0.699642
0.656028
0.61473
0.575797
0.538934
0.504218
0.471347
0.440426
0.411145
0.383639
0.357584
0.333149
0.309992
0.288314
0.267754
0.248546
0.230308
0.213309
0.197144
0.182119
0.167806
0.154548
0.141892
0.130221
0.11905
0.108806
0.0989686
0.0900083
0.0813663
0.0735607
0.0659902
0.0592239
0.0526129
0.0467835
0.0410342
0.0360529
0.0310783
0.0268661
0.0225889
0.0190743
0.0154201
0.0125334
0.00943055
0.00710351
0.00447974
0.00264513
0.000432952
-0.000970363
-0.00283259
-0.00385771
-0.00541879
-0.00610458
-0.00739943
-0.00777223
-0.00881882
-0.00888781
-0.00968902
-0.0094574
-0.010022
-0.00951671
-0.00988325
-0.00916029
-0.00937446
-0.00846415
-0.00845035
-0.0072086
-0.00690195
-0.00538255
-0.00492741
0.001865
13.8122
13.8116
13.8102
13.808
13.8051
13.8014
13.7971
13.792
13.7861
13.7796
13.7723
13.7642
13.7554
13.7459
13.7356
13.7245
13.7126
13.6999
13.6864
13.6721
13.6569
13.6408
13.6239
13.606
13.5871
13.5673
13.5464
13.5244
13.5014
13.4772
13.4518
13.4251
13.3972
13.3678
13.3371
13.3048
13.271
13.2355
13.1983
13.1592
13.1183
13.0754
13.0305
12.9833
12.9339
12.882
12.8276
12.7706
12.7108
12.6481
12.5823
12.5133
12.441
12.3652
12.2858
12.2024
12.1151
12.0236
11.9277
11.8272
11.7219
11.6117
11.4963
11.3756
11.2493
11.1172
10.9792
10.8351
10.6847
10.5279
10.3645
10.1946
10.0179
9.83458
9.64461
9.4481
9.24519
9.03614
8.82119
8.60076
8.37526
8.14522
7.91118
7.67383
7.4338
7.19187
6.94873
6.7052
6.46198
6.21987
5.97954
5.74174
5.50705
5.27611
5.04942
4.82751
4.61076
4.39957
4.1942
3.99495
3.80198
3.61548
3.43552
3.2622
3.09549
2.93543
2.78192
2.63493
2.49429
2.35995
2.23169
2.10941
1.99287
1.88197
1.77644
1.67617
1.58087
1.49044
1.4046
1.32323
1.24604
1.17295
1.10366
1.0381
0.975972
0.917231
0.861588
0.809014
0.759227
0.712224
0.667723
0.625747
0.586014
0.548573
0.513134
0.479773
0.448192
0.418496
0.390378
0.363973
0.338961
0.315511
0.29329
0.2725
0.252787
0.234386
0.216922
0.200659
0.185198
0.170837
0.157153
0.14448
0.132369
0.121198
0.110489
0.100664
0.0912165
0.0826119
0.0743073
0.0668155
0.0595513
0.0530761
0.0467564
0.0412068
0.0357404
0.0310304
0.0263304
0.0223788
0.0183633
0.0150936
0.0116835
0.00902129
0.00613989
0.00401275
0.00158441
-7.75574e-05
-0.002123
-0.00338181
-0.00510555
-0.00601202
-0.00745993
-0.00804727
-0.00924698
-0.00953239
-0.0104936
-0.0104779
-0.0111961
-0.0108761
-0.0113559
-0.0107565
-0.0110366
-0.0102151
-0.0103428
-0.00933017
-0.00922574
-0.00786934
-0.00745909
-0.00580453
-0.00522284
0.00183606
13.8239
13.8233
13.8219
13.8197
13.8168
13.8132
13.8089
13.8039
13.7981
13.7916
13.7843
13.7764
13.7677
13.7583
13.7482
13.7373
13.7257
13.7132
13.7
13.686
13.6711
13.6554
13.6389
13.6214
13.6031
13.5838
13.5635
13.5422
13.5198
13.4963
13.4717
13.4458
13.4187
13.3903
13.3604
13.3292
13.2964
13.262
13.226
13.1882
13.1486
13.107
13.0634
13.0177
12.9697
12.9194
12.8666
12.8112
12.7531
12.6922
12.6282
12.561
12.4906
12.4167
12.3391
12.2577
12.1722
12.0826
11.9885
11.8899
11.7863
11.6778
11.5639
11.4445
11.3193
11.1882
11.0508
10.9069
10.7564
10.599
10.4346
10.263
10.084
9.89778
9.70412
9.50318
9.29504
9.07996
8.85821
8.63022
8.39646
8.15755
7.91414
7.66702
7.41697
7.1649
6.91166
6.65821
6.40539
6.1541
5.90515
5.65934
5.41734
5.17985
4.9474
4.72054
4.49964
4.28512
4.07719
3.87613
3.68204
3.49507
3.31522
3.14255
2.97697
2.81849
2.66693
2.52224
2.3842
2.25271
2.12751
2.00847
1.89529
1.78785
1.68582
1.58908
1.49732
1.41039
1.328
1.25003
1.17617
1.10631
1.04017
0.977664
0.918491
0.862596
0.809693
0.759745
0.712471
0.667865
0.625649
0.585844
0.548176
0.512696
0.479125
0.447544
0.417665
0.389593
0.363027
0.338101
0.314499
0.292384
0.271428
0.251828
0.233241
0.215899
0.19944
0.184132
0.169585
0.1561
0.143258
0.13139
0.120049
0.109603
0.0995755
0.0903789
0.0815119
0.0734323
0.0656099
0.0585514
0.0516903
0.0455825
0.0396159
0.0343976
0.0292619
0.0248701
0.0204951
0.0168582
0.0131649
0.0102031
0.007104
0.00473085
0.00213475
0.000263371
-0.00191935
-0.00337023
-0.00521897
-0.00631588
-0.00789286
-0.00868149
-0.010024
-0.0105226
-0.0116401
-0.0118433
-0.0127232
-0.0126095
-0.0132288
-0.0127814
-0.0131371
-0.0123801
-0.0125152
-0.0115165
-0.0114914
-0.010298
-0.0100459
-0.0085168
-0.00797312
-0.0061693
-0.00547998
0.00184982
13.8385
13.8379
13.8365
13.8344
13.8315
13.8279
13.8236
13.8186
13.8129
13.8064
13.7993
13.7915
13.783
13.7737
13.7638
13.7531
13.7417
13.7296
13.7167
13.7031
13.6887
13.6735
13.6574
13.6405
13.6228
13.6042
13.5846
13.564
13.5425
13.5199
13.4962
13.4714
13.4453
13.418
13.3894
13.3594
13.328
13.295
13.2604
13.2242
13.1861
13.1462
13.1044
13.0605
13.0144
12.966
12.9152
12.8619
12.8059
12.7472
12.6855
12.6206
12.5525
12.481
12.4059
12.3269
12.244
12.1568
12.0652
11.9689
11.8677
11.7614
11.6496
11.5321
11.4086
11.2789
11.1426
10.9994
10.8491
10.6913
10.5258
10.3524
10.1709
9.98114
9.78298
9.57648
9.36169
9.13884
8.9082
8.67024
8.42551
8.17474
7.91873
7.65845
7.39488
7.12915
6.86232
6.59556
6.32993
6.0665
5.8062
5.54997
5.29856
5.05272
4.81301
4.57999
4.35403
4.1355
3.92462
3.72158
3.52644
3.33928
3.16001
2.98862
2.82494
2.66888
2.52021
2.37881
2.24439
2.1168
1.99574
1.88101
1.7723
1.66941
1.57201
1.4799
1.39275
1.31039
1.23249
1.1589
1.0893
1.02359
0.961448
0.902791
0.847326
0.794992
0.745506
0.698833
0.654696
0.613087
0.573731
0.536646
0.501561
0.468524
0.437265
0.407865
0.38005
0.353933
0.329231
0.306081
0.284184
0.263701
0.244309
0.226199
0.209025
0.193011
0.177797
0.163647
0.150184
0.13771
0.125824
0.114861
0.104387
0.0947696
0.0855404
0.0771006
0.0689549
0.0615457
0.0543519
0.0478648
0.0415347
0.0359055
0.03039
0.0255867
0.0208594
0.0168604
0.0128917
0.00965997
0.00639482
0.00386104
0.00120837
-0.00073169
-0.00289212
-0.00436255
-0.00616177
-0.00728484
-0.00883996
-0.00971133
-0.0111042
-0.0117749
-0.0130361
-0.0135017
-0.0146076
-0.0148168
-0.015704
-0.0155807
-0.0161759
-0.0156586
-0.015925
-0.0150158
-0.0149868
-0.0137567
-0.0135071
-0.0120259
-0.0115112
-0.00966219
-0.00884099
-0.00673047
-0.00578134
0.00188408
13.8559
13.8554
13.854
13.8518
13.8489
13.8454
13.8411
13.8362
13.8305
13.8241
13.8171
13.8094
13.801
13.792
13.7822
13.7718
13.7607
13.749
13.7365
13.7232
13.7093
13.6946
13.6792
13.663
13.6459
13.6281
13.6093
13.5897
13.5691
13.5476
13.525
13.5014
13.4766
13.4506
13.4234
13.3949
13.3651
13.3338
13.3009
13.2665
13.2304
13.1925
13.1527
13.111
13.0671
13.0211
12.9728
12.922
12.8686
12.8125
12.7536
12.6916
12.6264
12.5578
12.4857
12.4098
12.33
12.246
12.1575
12.0643
11.9662
11.8629
11.7539
11.6391
11.5181
11.3906
11.256
11.1142
10.9646
10.8069
10.6407
10.4657
10.2815
10.0879
9.88459
9.6715
9.44862
9.21611
8.97422
8.72349
8.46452
8.19823
7.92564
7.64797
7.36654
7.08278
6.7981
6.51395
6.23166
5.95256
5.67778
5.40841
5.14531
4.88928
4.6409
4.40069
4.16899
3.94611
3.73217
3.52731
3.33148
3.14468
2.96674
2.79753
2.63678
2.48429
2.33975
2.20292
2.07346
1.95111
1.83551
1.72641
1.62345
1.52638
1.43483
1.34855
1.26719
1.19054
1.11823
1.0501
0.985805
0.925203
0.867986
0.814049
0.763103
0.71508
0.669707
0.626949
0.586546
0.548493
0.512535
0.478692
0.446707
0.416622
0.388173
0.361432
0.33613
0.312374
0.289893
0.268832
0.248911
0.230308
0.212721
0.196353
0.180867
0.166486
0.152839
0.140176
0.128107
0.116925
0.106224
0.096344
0.0868628
0.0781555
0.069776
0.0621285
0.0547371
0.0480349
0.0415173
0.0356543
0.0299152
0.024817
0.0198013
0.0154413
0.0111414
0.0075333
0.003967
0.00113019
-0.00170114
-0.0037874
-0.00594197
-0.00737049
-0.00898118
-0.00991241
-0.0111658
-0.0117911
-0.0128798
-0.0133667
-0.0144346
-0.0148759
-0.015974
-0.0163576
-0.0174338
-0.0176578
-0.0185879
-0.018506
-0.0191491
-0.0186374
-0.0189054
-0.0179277
-0.0178295
-0.0164487
-0.0160578
-0.0143565
-0.0136474
-0.0115323
-0.010485
-0.00807311
-0.00679675
0.00164901
13.8762
13.8757
13.8743
13.8721
13.8692
13.8657
13.8614
13.8565
13.8508
13.8445
13.8376
13.83
13.8218
13.8129
13.8034
13.7933
13.7825
13.7711
13.759
13.7463
13.7329
13.7189
13.7041
13.6887
13.6725
13.6555
13.6378
13.6192
13.5998
13.5795
13.5582
13.536
13.5127
13.4883
13.4628
13.436
13.408
13.3786
13.3478
13.3156
13.2817
13.2461
13.2088
13.1696
13.1284
13.0851
13.0396
12.9917
12.9414
12.8885
12.8328
12.7741
12.7124
12.6474
12.5789
12.5067
12.4307
12.3505
12.2659
12.1767
12.0825
11.983
11.8778
11.7667
11.6491
11.5247
11.3929
11.2534
11.1055
10.9488
10.7827
10.6066
10.42
10.2225
10.0137
9.79312
9.56074
9.31656
9.06079
8.79395
8.5168
8.23044
7.93619
7.63571
7.33076
7.02331
6.71527
6.40856
6.10488
5.80588
5.51294
5.22732
4.95
4.68184
4.42341
4.17518
3.9374
3.71022
3.49365
3.28766
3.09207
2.90673
2.73134
2.56566
2.40929
2.26192
2.12311
1.99251
1.86967
1.75424
1.64577
1.54393
1.44829
1.35856
1.27429
1.19523
1.12097
1.05126
0.985725
0.924155
0.866197
0.811691
0.76032
0.711971
0.666359
0.623413
0.582869
0.544685
0.508613
0.474645
0.442545
0.412344
0.383812
0.357006
0.33169
0.307938
0.285499
0.264466
0.244576
0.225953
0.208324
0.191859
0.176276
0.161795
0.148113
0.135478
0.123545
0.112569
0.102152
0.0925656
0.0833803
0.0749051
0.0667051
0.0591432
0.0517856
0.0450444
0.0384744
0.0325193
0.0267073
0.0215053
0.0164111
0.0119216
0.00750558
0.00370392
-4.68248e-05
-0.00314994
-0.00621379
-0.0085819
-0.0109289
-0.012544
-0.0141915
-0.0151114
-0.0161712
-0.0165587
-0.0172463
-0.0173495
-0.0179345
-0.0180068
-0.0187151
-0.0189085
-0.0198206
-0.0201085
-0.0211234
-0.021319
-0.0222155
-0.0220687
-0.0226161
-0.0219295
-0.0219944
-0.0207132
-0.0203097
-0.0185193
-0.0177582
-0.015594
-0.0145033
-0.0119472
-0.0106264
-0.007912
-0.00681079
0.00255991
13.8994
13.8988
13.8974
13.8952
13.8923
13.8887
13.8844
13.8795
13.8738
13.8676
13.8607
13.8531
13.845
13.8363
13.827
13.8171
13.8067
13.7957
13.784
13.7718
13.759
13.7456
13.7316
13.7169
13.7016
13.6856
13.6689
13.6515
13.6334
13.6144
13.5946
13.5739
13.5523
13.5297
13.506
13.4812
13.4553
13.4282
13.3997
13.3698
13.3385
13.3056
13.2711
13.2348
13.1966
13.1565
13.1143
13.0698
13.0231
12.9738
12.9219
12.8672
12.8095
12.7487
12.6845
12.6168
12.5453
12.4697
12.3899
12.3055
12.2162
12.1216
12.0214
11.9151
11.8023
11.6824
11.5549
11.4191
11.2744
11.1201
10.9553
10.7794
10.5914
10.3907
10.1764
9.94794
9.70483
9.44685
9.17405
8.88694
8.58641
8.27394
7.95137
7.62097
7.28524
6.94686
6.60848
6.27269
5.94177
5.61781
5.3025
4.99726
4.70316
4.42105
4.15144
3.8947
3.65091
3.42006
3.2019
2.99619
2.8025
2.62048
2.44962
2.2895
2.13959
1.99942
1.86843
1.74614
1.63199
1.52553
1.42619
1.33356
1.24713
1.16654
1.09129
1.02107
0.955442
0.894117
0.836688
0.782919
0.73244
0.685068
0.640483
0.59857
0.559058
0.521894
0.48684
0.453875
0.422765
0.393503
0.365856
0.339841
0.315238
0.292104
0.270232
0.249718
0.230349
0.212244
0.195166
0.179251
0.164228
0.150251
0.137022
0.124733
0.11308
0.102326
0.0921547
0.0828715
0.0741104
0.0661683
0.0586095
0.05172
0.0450282
0.038849
0.0327243
0.0270341
0.0213505
0.0161155
0.0109093
0.00621312
0.00158751
-0.00245808
-0.00639938
-0.00969751
-0.0128766
-0.0153628
-0.0177393
-0.0193883
-0.0209643
-0.0218055
-0.0226552
-0.0228085
-0.0231056
-0.0227976
-0.0228263
-0.0223854
-0.0225075
-0.0222838
-0.0228158
-0.0230238
-0.0240697
-0.0246434
-0.0260089
-0.026607
-0.0278855
-0.0280518
-0.0288256
-0.0282076
-0.0282441
-0.0267429
-0.0260651
-0.0238147
-0.0226021
-0.0198327
-0.0182364
-0.0150809
-0.0133586
-0.0100826
-0.00888959
0.00298208
13.9255
13.9249
13.9234
13.9212
13.9182
13.9145
13.9101
13.9051
13.8994
13.8931
13.8862
13.8787
13.8707
13.8622
13.8531
13.8435
13.8334
13.8228
13.8117
13.8001
13.7879
13.7753
13.7621
13.7484
13.7341
13.7193
13.7038
13.6878
13.671
13.6536
13.6354
13.6165
13.5967
13.5761
13.5545
13.532
13.5084
13.4837
13.4578
13.4307
13.4022
13.3723
13.3408
13.3078
13.273
13.2364
13.1978
13.1572
13.1144
13.0692
13.0216
12.9713
12.9182
12.8621
12.8029
12.7402
12.674
12.604
12.5298
12.4512
12.3678
12.2793
12.1853
12.0853
11.9788
11.8652
11.7437
11.6137
11.4743
11.3245
11.1634
10.9897
10.8023
10.5999
10.3814
10.1454
9.89106
9.61755
9.3245
9.01211
8.68129
8.33389
7.9727
7.60137
7.22389
6.84427
6.4662
6.0931
5.72794
5.37337
5.03142
4.70365
4.39104
4.09427
3.81362
3.54919
3.30077
3.06805
2.8505
2.64755
2.45848
2.28261
2.11918
1.96752
1.82687
1.69662
1.57604
1.46453
1.36142
1.26614
1.17805
1.09664
1.02133
0.95167
0.887129
0.827334
0.771804
0.72022
0.672147
0.627321
0.585358
0.546061
0.50911
0.474385
0.441633
0.410806
0.381694
0.354308
0.328465
0.304201
0.281324
0.259859
0.239589
0.220547
0.202526
0.185601
0.169583
0.154595
0.140443
0.127295
0.114939
0.103567
0.0929134
0.0831617
0.0739738
0.0655586
0.0575636
0.0502854
0.0433751
0.0371798
0.0312972
0.0260562
0.0209838
0.0163821
0.0117504
0.0074068
0.00288291
-0.00143767
-0.00595885
-0.0102126
-0.0145585
-0.0184626
-0.0222892
-0.0254638
-0.0284022
-0.0305086
-0.0322879
-0.0331358
-0.0336747
-0.0333021
-0.0327684
-0.0314672
-0.0302645
-0.0285383
-0.0272524
-0.025736
-0.0250014
-0.0242543
-0.0245091
-0.0247664
-0.0260423
-0.0270685
-0.0289385
-0.0300974
-0.0318485
-0.0323639
-0.0333117
-0.0326279
-0.0324273
-0.0304365
-0.0291916
-0.026188
-0.0242727
-0.0207221
-0.0186195
-0.0150722
-0.0134686
-0.0106014
-0.00977437
0.0017743
13.9545
13.9539
13.9524
13.95
13.9469
13.943
13.9385
13.9333
13.9274
13.921
13.914
13.9064
13.8984
13.8898
13.8808
13.8714
13.8615
13.8512
13.8405
13.8293
13.8178
13.8058
13.7934
13.7806
13.7674
13.7537
13.7395
13.7248
13.7096
13.6938
13.6774
13.6603
13.6426
13.6242
13.6049
13.5849
13.5639
13.5419
13.519
13.4949
13.4696
13.443
13.4151
13.3857
13.3547
13.3221
13.2877
13.2514
13.213
13.1725
13.1297
13.0844
13.0365
12.9859
12.9323
12.8755
12.8154
12.7517
12.6841
12.6123
12.5362
12.4551
12.3689
12.2768
12.1785
12.0733
11.9603
11.8387
11.7075
11.5655
11.4113
11.2434
11.06
10.8592
10.6389
10.3973
10.1322
9.84207
9.52589
9.18339
8.81525
8.42346
8.01144
7.58457
7.14956
6.71326
6.28152
5.85922
5.4503
5.05796
4.68442
4.33115
3.99882
3.68759
3.39716
3.12701
2.87636
2.64444
2.43026
2.23292
2.05134
1.88455
1.73148
1.5912
1.46273
1.34522
1.23781
1.13975
1.05025
0.968659
0.894232
0.826386
0.764451
0.707917
0.65619
0.608834
0.565319
0.525274
0.488218
0.453842
0.421728
0.391668
0.363365
0.336758
0.311662
0.288065
0.265771
0.244767
0.224884
0.20617
0.188494
0.171928
0.156323
0.141727
0.127956
0.115053
0.102839
0.0913972
0.0805588
0.0704554
0.0609149
0.0521517
0.0439993
0.0367338
0.0301013
0.0243263
0.0190098
0.0143622
0.00994612
0.0060523
0.00224991
-0.00111187
-0.00447769
-0.0074879
-0.0106131
-0.0135332
-0.0167475
-0.0199588
-0.0236135
-0.0273319
-0.0314333
-0.0354096
-0.0394961
-0.0430912
-0.0464369
-0.0488706
-0.050711
-0.0512933
-0.0511262
-0.0496233
-0.047506
-0.0442727
-0.0408366
-0.0368134
-0.0332602
-0.0298513
-0.0276493
-0.0262085
-0.0264073
-0.0274438
-0.0299859
-0.0328266
-0.0366148
-0.0397537
-0.043171
-0.0449535
-0.0465625
-0.0458576
-0.0449965
-0.0416328
-0.0385198
-0.0330553
-0.0284661
-0.0219311
-0.0170033
-0.0107896
-0.00715533
-0.00385359
-0.00195317
0.00013292
13.9868
13.9861
13.9844
13.9818
13.9784
13.9743
13.9695
13.964
13.9579
13.9513
13.9442
13.9366
13.9286
13.9202
13.9114
13.9023
13.8928
13.883
13.8728
13.8624
13.8516
13.8405
13.8291
13.8173
13.8053
13.7929
13.7801
13.7669
13.7533
13.7393
13.7248
13.7098
13.6943
13.6781
13.6613
13.6438
13.6256
13.6066
13.5866
13.5658
13.5438
13.5208
13.4966
13.4711
13.4442
13.4158
13.3858
13.3541
13.3205
13.285
13.2474
13.2075
13.1653
13.1205
13.0731
13.0227
12.9693
12.9127
12.8525
12.7887
12.7207
12.6484
12.5714
12.4891
12.4011
12.3066
12.205
12.0952
11.9761
11.8463
11.704
11.5474
11.3738
11.1806
10.9643
10.7214
10.4478
10.1398
9.79419
9.40969
8.98763
8.53275
8.05174
7.55264
7.0444
6.53602
6.03557
5.55022
5.08568
4.64601
4.23351
3.84934
3.49369
3.16612
2.8655
2.59044
2.33932
2.11058
1.90262
1.71398
1.54319
1.38891
1.24977
1.12454
1.01198
0.911034
0.820618
0.739841
0.667766
0.603623
0.546578
0.495955
0.451007
0.411147
0.375713
0.344197
0.316006
0.290685
0.267683
0.246589
0.226902
0.208302
0.190476
0.173462
0.157261
0.142017
0.127649
0.114198
0.10151
0.0895876
0.0782773
0.0676308
0.0575569
0.0481446
0.0392945
0.0310565
0.0232912
0.0160475
0.00921019
0.00287672
-0.00308327
-0.00854758
-0.0136688
-0.0181776
-0.0221715
-0.025273
-0.0277297
-0.0292985
-0.0304824
-0.0311207
-0.0317864
-0.0322601
-0.0330755
-0.0339054
-0.0351908
-0.0365712
-0.0384666
-0.0405697
-0.0432798
-0.0463028
-0.0499238
-0.0537403
-0.0578803
-0.0618055
-0.0655716
-0.0684867
-0.0705875
-0.071101
-0.070304
-0.0675467
-0.0634397
-0.057504
-0.0507241
-0.0429196
-0.0353578
-0.0281003
-0.0224649
-0.0185426
-0.0173587
-0.0185629
-0.0224691
-0.0280779
-0.0352984
-0.0425298
-0.0498682
-0.0553471
-0.059695
-0.0607692
-0.0606411
-0.0571453
-0.053139
-0.0459917
-0.0393664
-0.0305777
-0.0235994
-0.0152449
-0.00909828
-0.00400588
0.00321075
-0.00468946
14.0224
14.0216
14.0198
14.0168
14.013
14.0083
14.0029
13.9968
13.9901
13.9829
13.9751
13.967
13.9585
13.9498
13.9407
13.9314
13.9219
13.9122
13.9023
13.8923
13.8821
13.8717
13.8611
13.8504
13.8395
13.8285
13.8172
13.8057
13.7939
13.7819
13.7695
13.7568
13.7438
13.7303
13.7163
13.7018
13.6868
13.6711
13.6546
13.6375
13.6194
13.6005
13.5805
13.5594
13.537
13.5134
13.4884
13.4618
13.4336
13.4036
13.3718
13.3379
13.3019
13.2636
13.2229
13.1797
13.1337
13.0849
13.033
12.9778
12.9192
12.8569
12.7905
12.7198
12.6442
12.5631
12.476
12.3818
12.2794
12.1674
12.0439
11.9065
11.7522
11.5773
11.3773
11.1466
10.8784
10.5649
10.197
9.7655
9.26509
8.70083
8.09244
7.46598
6.84101
6.22746
5.63216
5.06334
4.52835
4.03155
3.57429
3.1565
2.77718
2.43481
2.1273
1.8523
1.60724
1.38965
1.19705
1.02725
0.878062
0.747562
0.633827
0.535146
0.449841
0.376463
0.313617
0.260133
0.214874
0.176904
0.145283
0.119249
0.0980173
0.0809584
0.067401
0.0568014
0.0485374
0.0420731
0.0367597
0.0320351
0.0272929
0.022143
0.016384
0.0103133
0.00415959
-0.00186445
-0.00773474
-0.013265
-0.0184535
-0.0232502
-0.0278111
-0.0321631
-0.0364193
-0.040524
-0.0445099
-0.0482907
-0.0519009
-0.0552867
-0.0585097
-0.0614616
-0.0641367
-0.0663837
-0.0683167
-0.0698109
-0.0710066
-0.0715396
-0.0714708
-0.0703714
-0.0686299
-0.0661132
-0.0634919
-0.0606994
-0.0584343
-0.0565518
-0.0556523
-0.0555537
-0.0566965
-0.058742
-0.0618972
-0.065732
-0.0703076
-0.0752001
-0.0804112
-0.0854653
-0.0902478
-0.0940787
-0.0967701
-0.0975227
-0.0963598
-0.0925199
-0.0863558
-0.0774109
-0.0666838
-0.0543466
-0.0419838
-0.0302799
-0.0208928
-0.0144407
-0.0118582
-0.0134335
-0.0191439
-0.0281128
-0.039438
-0.0514324
-0.0631901
-0.072421
-0.0790883
-0.0804961
-0.0785415
-0.0711725
-0.0618163
-0.0484131
-0.0349879
-0.0201041
-0.00922592
-0.000697673
0.00228097
0.00154461
0.00421457
-0.00779786
14.0619
14.061
14.0588
14.0553
14.0509
14.0457
14.0399
14.0334
14.0264
14.019
14.0112
14.0031
13.9946
13.986
13.9772
13.9681
13.959
13.9497
13.9403
13.9309
13.9213
13.9117
13.9021
13.8924
13.8826
13.8727
13.8628
13.8528
13.8427
13.8325
13.8221
13.8115
13.8007
13.7897
13.7784
13.7668
13.7547
13.7423
13.7293
13.7157
13.7015
13.6866
13.6708
13.6542
13.6365
13.6178
13.5978
13.5765
13.5538
13.5296
13.5037
13.4761
13.4465
13.415
13.3814
13.3455
13.3074
13.2668
13.2236
13.1778
13.1291
13.0776
13.0229
12.9649
12.9034
12.8379
12.768
12.693
12.612
12.5236
12.4262
12.3171
12.193
12.0491
11.8794
11.6759
11.4293
11.1288
10.7632
10.3167
9.77061
9.09605
8.30089
7.45054
6.60475
5.78972
5.01923
4.3068
3.66146
3.08596
2.57871
2.13599
1.75256
1.42259
1.13999
0.899096
0.694561
0.521709
0.376312
0.254821
0.154047
0.0713122
0.00411838
-0.0496435
-0.0919691
-0.124492
-0.148757
-0.165977
-0.177319
-0.183658
-0.185872
-0.184581
-0.18045
-0.173918
-0.165503
-0.155547
-0.144531
-0.132875
-0.121313
-0.110753
-0.102717
-0.0982501
-0.096457
-0.0956934
-0.0952714
-0.0950594
-0.0950766
-0.0951083
-0.0950889
-0.0949228
-0.0947213
-0.0945269
-0.0944683
-0.0945876
-0.0949555
-0.0955917
-0.0964758
-0.0975452
-0.0987252
-0.0999304
-0.101054
-0.101909
-0.102362
-0.102222
-0.101563
-0.100206
-0.0982048
-0.0951558
-0.0912781
-0.0864081
-0.0812056
-0.0756974
-0.0705008
-0.0656099
-0.0618018
-0.0593073
-0.0587238
-0.0600461
-0.0633565
-0.0683255
-0.0746244
-0.0817488
-0.0892922
-0.096807
-0.103684
-0.109208
-0.112853
-0.114153
-0.112841
-0.108174
-0.0999732
-0.0878335
-0.0724065
-0.0542134
-0.0350536
-0.0167695
-0.00177483
0.00749893
0.010584
0.00690324
-0.00337409
-0.0190619
-0.0378771
-0.0584967
-0.0778328
-0.0933066
-0.104463
-0.109716
-0.110273
-0.102308
-0.0888466
-0.0692521
-0.0476972
-0.0207653
0.00587423
0.0307969
0.0434161
0.0413651
0.027486
0.00482817
14.1062
14.105
14.1021
14.0974
14.0912
14.0839
14.076
14.0674
14.0584
14.0492
14.0397
14.0302
14.0207
14.0112
14.0018
13.9924
13.9832
13.9741
13.9651
13.9563
13.9476
13.939
13.9306
13.9223
13.9142
13.9061
13.8982
13.8903
13.8825
13.8748
13.8671
13.8594
13.8517
13.8439
13.836
13.8279
13.8197
13.8112
13.8024
13.7932
13.7836
13.7734
13.7626
13.7511
13.7387
13.7255
13.7112
13.6959
13.6792
13.6612
13.6418
13.6207
13.598
13.5736
13.5472
13.519
13.4887
13.4564
13.422
13.3855
13.3469
13.3062
13.2635
13.2187
13.172
13.1233
13.0726
13.0199
12.965
12.9073
12.8459
12.7792
12.704
12.6151
12.5034
12.3544
12.1442
11.8407
11.4008
10.792
10.0043
9.1065
8.10346
7.05464
5.99913
4.96834
4.01381
3.17702
2.47103
1.89023
1.42163
1.04912
0.75559
0.524789
0.342882
0.198747
0.0839251
-0.00800166
-0.0816451
-0.140453
-0.186857
-0.22283
-0.249839
-0.269251
-0.28211
-0.289475
-0.292119
-0.29087
-0.286288
-0.279014
-0.269431
-0.25803
-0.245048
-0.230863
-0.215596
-0.199534
-0.182714
-0.165362
-0.147609
-0.130013
-0.115154
-0.10823
-0.10622
-0.105457
-0.10495
-0.104723
-0.104649
-0.104511
-0.104221
-0.103777
-0.10324
-0.10268
-0.102192
-0.10185
-0.101728
-0.101863
-0.102313
-0.103122
-0.10422
-0.105474
-0.106746
-0.107917
-0.108775
-0.109084
-0.108717
-0.107519
-0.105324
-0.10202
-0.0976877
-0.0922475
-0.08639
-0.0804469
-0.0746731
-0.0690608
-0.064372
-0.0610551
-0.0598509
-0.0608599
-0.0641704
-0.0695311
-0.0766941
-0.0853046
-0.094999
-0.10526
-0.115116
-0.123415
-0.129143
-0.131883
-0.131283
-0.126802
-0.117987
-0.104443
-0.0863316
-0.0641474
-0.0397735
-0.0158821
0.00486905
0.0190617
0.0236183
0.0185064
0.00541564
-0.0149617
-0.0410417
-0.0687529
-0.0948825
-0.115123
-0.126345
-0.128842
-0.127571
-0.118941
-0.103677
-0.0821505
-0.0638655
-0.0498716
-0.029855
0.00211418
0.034671
0.049897
0.0441273
0.0190718
14.1563
14.1548
14.1515
14.1465
14.1404
14.1335
14.1257
14.1171
14.1079
14.0984
14.0886
14.0787
14.0687
14.0586
14.0487
14.0389
14.0292
14.0197
14.0104
14.0014
13.9926
13.9841
13.9759
13.968
13.9604
13.953
13.946
13.9393
13.9328
13.9266
13.9207
13.915
13.9095
13.9041
13.8989
13.8939
13.8888
13.8838
13.8787
13.8735
13.868
13.8623
13.8563
13.8497
13.8426
13.8348
13.8263
13.8168
13.8063
13.7947
13.7818
13.7675
13.7518
13.7345
13.7156
13.695
13.6726
13.6486
13.6229
13.5957
13.5671
13.5372
13.5065
13.4752
13.4438
13.413
13.3835
13.3563
13.3327
13.3143
13.3031
13.3015
13.3119
13.3365
13.3749
13.4225
13.4535
13.4255
13.1754
12.5591
10.9571
8.87853
7.15607
5.88079
4.79226
3.81277
2.97439
2.28934
1.74183
1.30839
0.966468
0.696829
0.483096
0.312457
0.174991
0.0636735
-0.0267984
-0.100072
-0.159076
-0.205848
-0.242245
-0.269609
-0.289328
-0.302406
-0.309949
-0.312713
-0.311568
-0.307053
-0.29984
-0.290286
-0.278906
-0.265918
-0.25172
-0.236428
-0.220361
-0.203572
-0.186338
-0.168746
-0.151164
-0.134044
-0.120874
-0.115945
-0.114632
-0.113715
-0.112743
-0.111842
-0.110971
-0.110014
-0.10896
-0.107826
-0.106673
-0.10557
-0.1046
-0.103869
-0.103496
-0.103546
-0.104017
-0.104876
-0.106087
-0.107465
-0.108942
-0.110247
-0.111267
-0.111618
-0.111372
-0.110141
-0.107879
-0.104326
-0.0995206
-0.0931441
-0.0860761
-0.0786704
-0.071365
-0.0644319
-0.0585365
-0.0541762
-0.052164
-0.0527959
-0.0563453
-0.0623835
-0.070571
-0.0800031
-0.0905813
-0.101644
-0.112967
-0.122663
-0.130289
-0.134288
-0.134889
-0.130467
-0.121497
-0.106555
-0.0864018
-0.0601526
-0.0302093
0.000814611
0.0279144
0.0473001
0.0545034
0.0483357
0.0312349
0.00421429
-0.030481
-0.0656619
-0.0998826
-0.127798
-0.144156
-0.147259
-0.141822
-0.122071
-0.0935783
-0.0594772
-0.029113
-0.0135187
-0.0125715
-0.00591578
0.00146388
0.0086736
0.0094224
0.00344717
14.2151
14.2113
14.2015
14.1878
14.1736
14.1603
14.1475
14.1349
14.1225
14.1107
14.0995
14.0888
14.0786
14.0688
14.0595
14.0506
14.0422
14.0341
14.0265
14.0193
14.0125
14.006
14
13.9944
13.9893
13.9845
13.9802
13.9763
13.9728
13.9697
13.9671
13.9648
13.9629
13.9613
13.9601
13.9592
13.9585
13.958
13.9576
13.9573
13.9571
13.9567
13.9562
13.9554
13.9542
13.9525
13.9502
13.9471
13.9432
13.9383
13.9324
13.9252
13.9168
13.9071
13.896
13.8835
13.8698
13.8548
13.8387
13.8218
13.8043
13.7867
13.7693
13.7527
13.7377
13.7252
13.7162
13.7122
13.7151
13.7275
13.7535
13.7995
13.8758
13.9981
14.1884
14.4803
14.9067
15.5456
16.3451
17.5711
17.456
13.1865
9.70501
7.34681
5.46693
4.02778
2.98314
2.22391
1.67047
1.26285
0.955997
0.718449
0.528844
0.373228
0.242765
0.132075
0.0378852
-0.0418113
-0.108434
-0.16311
-0.206943
-0.241009
-0.266443
-0.284332
-0.295758
-0.30168