/*--------------------------------*- C++ -*----------------------------------*\
  =========                 |
  \\      /  F ield         | OpenFOAM: The Open Source CFD Toolbox
   \\    /   O peration     | Website:  https://openfoam.org
    \\  /    A nd           | Version:  10
     \\/     M anipulation  |
\*---------------------------------------------------------------------------*/
FoamFile
{
    format      ascii;
    class       surfaceScalarField;
    location    "0.18";
    object      phi;
}
// * * * * * * * * * * * * * * * * * * * * * * * * * * * * * * * * * * * * * //

dimensions      [0 3 -1 0 0 0 0];

internalField   nonuniform List<scalar> 
24170
(
1.52311e-09
-1.52311e-09
2.97006e-09
-1.44694e-09
4.49958e-09
-1.52953e-09
7.02792e-09
-2.52834e-09
2.03257e-08
-1.32978e-08
2.12987e-08
-9.72989e-10
1.42621e-08
7.0366e-09
1.18186e-08
2.44351e-09
1.04943e-08
1.32424e-09
9.69645e-09
7.97893e-10
9.22311e-09
4.73333e-10
8.98253e-09
2.4058e-10
8.93408e-09
4.845e-11
9.07505e-09
-1.40968e-10
9.4511e-09
-3.76049e-10
1.02133e-08
-7.62182e-10
1.18738e-08
-1.66051e-09
-4.97753e-09
1.68513e-08
1.86674e-09
-3.38985e-09
3.60888e-09
-3.18909e-09
5.36176e-09
-3.2824e-09
7.51832e-09
-4.68489e-09
6.06111e-09
-1.18406e-08
1.93137e-08
-1.42256e-08
1.49489e-08
1.14014e-08
1.25803e-08
4.81216e-09
1.1204e-08
2.70049e-09
1.03632e-08
1.63872e-09
9.86195e-09
9.74588e-10
9.60581e-09
4.96716e-10
9.55143e-09
1.0283e-10
9.69313e-09
-2.82667e-10
1.00693e-08
-7.52201e-10
1.07952e-08
-1.48811e-09
1.21288e-08
-2.99406e-09
-6.92544e-09
1.40767e-08
2.10717e-09
-5.49702e-09
4.0419e-09
-5.12382e-09
5.90006e-09
-5.14056e-09
7.83422e-09
-6.61905e-09
7.69508e-09
-1.17014e-08
1.66922e-08
-2.32227e-08
1.54711e-08
1.26225e-08
1.32964e-08
6.98688e-09
1.19074e-08
4.08942e-09
1.10384e-08
2.50776e-09
1.05152e-08
1.49779e-09
1.02448e-08
7.6712e-10
1.01812e-08
1.66476e-10
1.03125e-08
-4.14006e-10
1.066e-08
-1.09975e-09
1.12775e-08
-2.10552e-09
1.21779e-08
-3.89446e-09
-7.43147e-09
1.26839e-08
2.33965e-09
-7.83668e-09
4.44555e-09
-7.22972e-09
6.36765e-09
-7.06266e-09
8.14741e-09
-8.39881e-09
9.35801e-09
-1.2912e-08
9.91083e-09
-2.37755e-08
1.60477e-08
6.48562e-09
1.3958e-08
9.07661e-09
1.259e-08
5.45734e-09
1.17109e-08
3.38685e-09
1.11741e-08
2.0346e-09
1.08918e-08
1.04945e-09
1.08154e-08
2.42837e-10
1.09246e-08
-5.23149e-10
1.12174e-08
-1.39261e-09
1.16848e-08
-2.57284e-09
1.21918e-08
-4.40149e-09
-7.28591e-09
1.20462e-08
2.59145e-09
-1.04281e-08
4.86642e-09
-9.50468e-09
6.82581e-09
-9.02205e-09
8.41734e-09
-9.99034e-09
8.93135e-09
-1.34261e-08
3.45714e-09
-1.83013e-08
1.68511e-08
-6.90837e-09
1.45415e-08
1.13863e-08
1.32355e-08
6.7633e-09
1.23675e-08
4.2549e-09
1.18279e-08
2.57421e-09
1.15375e-08
1.33987e-09
1.14457e-08
3.3462e-10
1.15221e-08
-5.9963e-10
1.17416e-08
-1.61211e-09
1.20471e-08
-2.8783e-09
1.2248e-08
-4.60242e-09
-6.86722e-09
1.18293e-08
2.87893e-09
-1.33071e-08
5.33067e-09
-1.19564e-08
7.31177e-09
-1.10031e-08
8.72507e-09
-1.14036e-08
8.91228e-09
-1.36133e-08
5.90098e-09
-1.529e-08
1.5605e-08
-1.66124e-08
1.49701e-08
1.20212e-08
1.38272e-08
7.90616e-09
1.29928e-08
5.08935e-09
1.24636e-08
3.1034e-09
1.2171e-08
1.63249e-09
1.20629e-08
4.42683e-10
1.20997e-08
-6.36437e-10
1.2237e-08
-1.74937e-09
1.23908e-08
-3.0321e-09
1.23745e-08
-4.58615e-09
-6.34995e-09
1.18572e-08
3.22149e-09
-1.65286e-08
5.86725e-09
-1.46022e-08
7.86274e-09
-1.29986e-08
9.12619e-09
-1.26671e-08
9.2713e-09
-1.37584e-08
8.61191e-09
-1.46306e-08
1.13239e-08
-1.93244e-08
1.54253e-08
7.91976e-09
1.43598e-08
8.97166e-09
1.35697e-08
5.87946e-09
1.30666e-08
3.60648e-09
1.27804e-08
1.91867e-09
1.26583e-08
5.64851e-10
1.26535e-08
-6.31642e-10
1.27096e-08
-1.80548e-09
1.2735e-08
-3.05752e-09
1.25753e-08
-4.42644e-09
-5.81186e-09
1.20372e-08
3.64763e-09
-2.01762e-08
6.51583e-09
-1.74704e-08
8.5222e-09
-1.5005e-08
9.65305e-09
-1.37979e-08
9.74714e-09
-1.38525e-08
9.17603e-09
-1.40595e-08
4.36264e-09
-1.4511e-08
1.64462e-08
-4.16375e-09
1.48131e-08
1.06048e-08
1.40766e-08
6.61591e-09
1.36206e-08
4.06243e-09
1.33532e-08
2.1861e-09
1.32232e-08
6.94844e-10
1.31809e-08
-5.89325e-10
1.31656e-08
-1.79018e-09
1.30917e-08
-2.98361e-09
1.28443e-08
-4.17903e-09
-5.28675e-09
1.23192e-08
4.20197e-09
-2.43781e-08
7.33407e-09
-2.06025e-08
9.34527e-09
-1.70162e-08
1.03438e-08
-1.47965e-08
1.03482e-08
-1.38568e-08
9.49668e-09
-1.3208e-08
6.38728e-09
-1.14016e-08
1.58629e-08
-1.36393e-08
1.50111e-08
1.14565e-08
1.44843e-08
7.14265e-09
1.41087e-08
4.43806e-09
1.38766e-08
2.41823e-09
1.37499e-08
8.21538e-10
1.36803e-08
-5.19759e-10
1.36099e-08
-1.71978e-09
1.34669e-08
-2.84053e-09
1.31723e-08
-3.88452e-09
-4.78951e-09
1.26751e-08
4.95711e-09
-2.93353e-08
8.40789e-09
-2.40533e-08
1.04049e-08
-1.90132e-08
1.12497e-08
-1.56412e-08
1.11539e-08
-1.37611e-08
1.04065e-08
-1.24606e-08
9.61809e-09
-1.06131e-08
1.26773e-08
-1.66986e-08
1.501e-08
9.12393e-09
1.47924e-08
7.36019e-09
1.45169e-08
4.7136e-09
1.43386e-08
2.59648e-09
1.42315e-08
9.28699e-10
1.41507e-08
-4.39007e-10
1.4046e-08
-1.61511e-09
1.38625e-08
-2.65702e-09
1.35504e-08
-3.57241e-09
-4.3275e-09
1.30884e-08
6.03587e-09
-3.53711e-08
9.86805e-09
-2.78854e-08
1.17992e-08
-2.09443e-08
1.24306e-08
-1.62726e-08
1.21814e-08
-1.35119e-08
1.14741e-08
-1.17533e-08
1.13374e-08
-1.04764e-08
6.79009e-09
-1.21513e-08
1.54857e-08
4.28276e-10
1.5037e-08
7.80894e-09
1.48319e-08
4.91865e-09
1.47283e-08
2.70014e-09
1.46626e-08
9.9433e-10
1.45919e-08
-3.68228e-10
1.44764e-08
-1.49964e-09
1.42787e-08
-2.45935e-09
1.39711e-08
-3.26479e-09
-3.90543e-09
1.3549e-08
6.36412e-09
-4.17352e-08
9.93936e-09
-3.14607e-08
1.14268e-08
-2.24318e-08
1.17001e-08
-1.65459e-08
1.12818e-08
-1.30936e-08
1.05159e-08
-1.09874e-08
9.55216e-09
-9.5127e-09
5.6431e-09
-8.24226e-09
1.32279e-08
-7.15649e-09
1.27447e-08
8.2921e-09
1.26783e-08
4.98501e-09
1.26812e-08
2.69732e-09
1.2681e-08
9.94538e-10
1.26484e-08
-3.35652e-10
1.25614e-08
-1.41267e-09
1.24015e-08
-2.29948e-09
1.21583e-08
-3.02151e-09
-3.58255e-09
1.18354e-08
9.38299e-09
-5.11182e-08
1.38251e-08
-3.59028e-08
1.51731e-08
-2.37799e-08
1.50379e-08
-1.64106e-08
1.42164e-08
-1.22722e-08
1.30944e-08
-9.86543e-09
1.17552e-08
-8.17347e-09
9.59443e-09
-6.08149e-09
1.41622e-08
-1.17242e-08
1.43625e-08
8.09177e-09
1.45624e-08
4.78508e-09
1.47189e-08
2.54087e-09
1.4809e-08
9.04404e-10
1.48233e-08
-3.49965e-10
1.47539e-08
-1.34325e-09
1.45947e-08
-2.14024e-09
1.43458e-08
-2.77262e-09
-3.25461e-09
1.40178e-08
1.51038e-08
-6.6222e-08
2.0296e-08
-4.1095e-08
2.08348e-08
-2.43187e-08
1.97472e-08
-1.53229e-08
1.8168e-08
-1.0693e-08
1.65203e-08
-8.2177e-09
1.50497e-08
-6.70287e-09
1.44024e-08
-5.43417e-09
1.41312e-08
-1.14531e-08
1.5747e-08
6.47601e-09
1.64479e-08
4.08419e-09
1.68848e-08
2.10394e-09
1.71416e-08
6.4761e-10
1.72528e-08
-4.61153e-10
1.72366e-08
-1.32704e-09
1.71056e-08
-2.0093e-09
1.68736e-08
-2.54062e-09
-2.93989e-09
1.65589e-08
2.77277e-08
-9.39497e-08
3.19636e-08
-4.53309e-08
2.97378e-08
-2.20928e-08
2.65143e-08
-1.20994e-08
2.35129e-08
-7.69162e-09
2.09486e-08
-5.65342e-09
1.89604e-08
-4.71467e-09
1.80582e-08
-4.53197e-09
1.31971e-08
-6.59198e-09
1.70312e-08
2.64193e-09
1.83353e-08
2.78012e-09
1.91776e-08
1.26158e-09
1.96928e-08
1.32462e-10
1.99655e-08
-7.33837e-10
2.005e-08
-1.4116e-09
1.99842e-08
-1.9435e-09
1.97983e-08
-2.35466e-09
-2.66144e-09
1.95198e-08
6.18408e-08
-1.55791e-07
5.4391e-08
-3.78812e-08
4.37851e-08
-1.14869e-08
3.60502e-08
-4.36459e-09
3.05366e-08
-2.17794e-09
2.63909e-08
-1.50772e-09
2.30618e-08
-1.38561e-09
2.00385e-08
-1.5087e-09
1.51982e-08
-1.7517e-09
1.82974e-08
-4.57255e-10
2.0377e-08
7.00587e-10
2.17364e-08
-9.78544e-11
2.25843e-08
-7.15461e-10
2.30717e-08
-1.22118e-09
2.3298e-08
-1.63792e-09
2.33304e-08
-1.9759e-09
2.32173e-08
-2.24163e-09
-2.4409e-09
2.29968e-08
1.828e-07
1.61374e-07
9.53784e-08
4.95405e-08
6.33154e-08
2.05761e-08
4.80057e-08
1.09451e-08
3.90283e-08
6.7995e-09
3.29075e-08
4.61308e-09
2.8189e-08
3.33282e-09
2.40509e-08
2.6294e-09
1.97243e-08
2.57494e-09
2.00874e-08
-8.20387e-10
2.32338e-08
-2.44575e-09
2.50916e-08
-1.95574e-09
2.62198e-08
-1.84365e-09
2.68856e-08
-1.88692e-09
2.72356e-08
-1.98791e-09
2.73601e-08
-2.10045e-09
2.73204e-08
-2.20193e-09
-2.28161e-09
2.71611e-08
7.48067e-08
8.65668e-08
7.12132e-08
5.31339e-08
5.95362e-08
3.22531e-08
4.98222e-08
2.06591e-08
4.25322e-08
1.40894e-08
3.69778e-08
1.01675e-08
3.26228e-08
7.68783e-09
2.925e-08
6.00219e-09
2.45935e-08
7.23144e-09
2.81246e-08
-4.35154e-09
2.95377e-08
-3.85881e-09
3.07011e-08
-3.11917e-09
3.1536e-08
-2.67857e-09
3.20763e-08
-2.42714e-09
3.23767e-08
-2.28837e-09
3.24892e-08
-2.21287e-09
3.2457e-08
-2.1698e-09
-2.14046e-09
3.23159e-08
3.35136e-08
5.30532e-08
4.52417e-08
4.14059e-08
4.67462e-08
3.07486e-08
4.45777e-08
2.28276e-08
4.13568e-08
1.73103e-08
3.80083e-08
1.3516e-08
3.4835e-08
1.08612e-08
3.18609e-08
8.97624e-09
3.73564e-08
1.73598e-09
3.83648e-08
-5.36e-09
3.87012e-08
-4.19513e-09
3.90028e-08
-3.4208e-09
3.92252e-08
-2.90096e-09
3.9347e-08
-2.549e-09
3.93661e-08
-2.30746e-09
3.9291e-08
-2.13773e-09
3.91351e-08
-2.01393e-09
-1.91881e-09
3.89135e-08
1.27679e-08
4.02853e-08
2.01262e-08
3.40475e-08
2.34283e-08
2.74465e-08
2.44652e-08
2.17908e-08
2.43093e-08
1.74662e-08
2.35348e-08
1.42905e-08
2.24454e-08
1.19506e-08
2.50806e-08
6.341e-09
3.19714e-08
-5.15483e-09
3.08975e-08
-4.28613e-09
3.02767e-08
-3.57433e-09
2.98853e-08
-3.02935e-09
2.96062e-08
-2.62189e-09
2.93766e-08
-2.31938e-09
2.9163e-08
-2.09387e-09
2.89487e-08
-1.92338e-09
2.87262e-08
-1.79146e-09
-1.68614e-09
2.84935e-08
7.24108e-09
3.30443e-08
1.23008e-08
2.89879e-08
1.52857e-08
2.44616e-08
1.70113e-08
2.00652e-08
1.77934e-08
1.66841e-08
1.79084e-08
1.41755e-08
2.06168e-08
9.24221e-09
3.0691e-08
-3.73323e-09
2.90873e-08
-3.55116e-09
2.79971e-08
-3.19587e-09
2.72447e-08
-2.82196e-09
2.67023e-08
-2.48692e-09
2.62873e-08
-2.20689e-09
2.59482e-08
-1.98025e-09
2.56533e-08
-1.79905e-09
2.5384e-08
-1.65398e-09
2.5129e-08
-1.53656e-09
-1.43973e-09
2.48826e-08
4.56312e-09
2.84811e-08
8.14478e-09
2.54062e-08
1.03746e-08
2.22318e-08
1.2315e-08
1.81249e-08
1.34831e-08
1.55159e-08
1.74091e-08
1.02495e-08
2.82797e-08
-1.62837e-09
2.67834e-08
-2.23698e-09
2.56251e-08
-2.39286e-09
2.47523e-08
-2.32309e-09
2.40896e-08
-2.15922e-09
2.35735e-08
-1.9708e-09
2.31569e-08
-1.79036e-09
2.28072e-08
-1.63051e-09
2.25021e-08
-1.49395e-09
2.22271e-08
-1.37897e-09
2.19728e-08
-1.28224e-09
-1.20021e-09
2.17332e-08
3.00973e-09
2.54714e-08
5.79925e-09
2.26167e-08
6.90694e-09
2.11241e-08
9.53572e-09
1.54961e-08
1.58374e-08
9.21428e-09
2.5112e-08
9.74854e-10
2.40226e-08
-5.38919e-10
2.3073e-08
-1.28741e-09
2.22802e-08
-1.60002e-09
2.16311e-08
-1.67408e-09
2.11006e-08
-1.62871e-09
2.06617e-08
-1.53186e-09
2.0291e-08
-1.41969e-09
1.99704e-08
-1.30988e-09
1.96863e-08
-1.20986e-09
1.94291e-08
-1.12176e-09
1.91921e-08
-1.04519e-09
-9.78707e-10
1.89706e-08
1.8932e-09
2.35782e-08
4.68085e-09
1.9829e-08
8.0325e-09
1.77724e-08
1.59289e-08
7.59968e-09
2.13389e-08
3.80432e-09
2.09295e-08
1.3842e-09
2.03792e-08
1.14189e-11
1.98125e-08
-7.20694e-10
1.92834e-08
-1.07097e-09
1.8812e-08
-1.20261e-09
1.83997e-08
-1.21645e-09
1.80402e-08
-1.17231e-09
1.77244e-08
-1.10392e-09
1.74437e-08
-1.02922e-09
1.71908e-08
-9.56962e-10
1.69599e-08
-8.90796e-10
1.67464e-08
-8.3172e-10
-7.79447e-10
1.65471e-08
4.60138e-09
1.89768e-08
8.13371e-09
1.62967e-08
1.54795e-08
1.04266e-08
1.70184e-08
6.06074e-09
1.75675e-08
3.2553e-09
1.75824e-08
1.36923e-09
1.73568e-08
2.37017e-10
1.70317e-08
-3.9561e-10
1.66794e-08
-7.18576e-10
1.63352e-08
-8.58505e-10
1.60146e-08
-8.95838e-10
1.57219e-08
-8.79561e-10
1.54562e-08
-8.3822e-10
1.52146e-08
-7.87635e-10
1.49937e-08
-7.36027e-10
1.47901e-08
-6.87254e-10
1.46012e-08
-6.4279e-10
-6.02878e-10
1.44246e-08
5.29294e-09
1.36839e-08
1.00041e-08
1.15855e-08
1.2642e-08
7.78872e-09
1.40168e-08
4.68597e-09
1.46996e-08
2.57252e-09
1.49111e-08
1.15773e-09
1.4862e-08
2.86146e-10
1.46807e-08
-2.14349e-10
1.44412e-08
-4.79086e-10
1.41842e-08
-6.01543e-10
1.39308e-08
-6.42376e-10
1.36904e-08
-6.39185e-10
1.34665e-08
-6.14303e-10
1.32593e-08
-5.80408e-10
1.30675e-08
-5.44305e-10
1.28896e-08
-5.09362e-10
1.27239e-08
-4.77019e-10
-4.47689e-10
1.25687e-08
4.33374e-09
9.35015e-09
8.04169e-09
7.87755e-09
1.03978e-08
5.4326e-09
1.17474e-08
3.33642e-09
1.24605e-08
1.85938e-09
1.27514e-08
8.66848e-10
1.27906e-08
2.46974e-10
1.26908e-08
-1.14635e-10
1.25215e-08
-3.09766e-10
1.23231e-08
-4.03136e-10
1.21181e-08
-4.37323e-10
1.19179e-08
-4.39021e-10
1.17279e-08
-4.2427e-10
1.15498e-08
-4.02299e-10
1.13836e-08
-3.78151e-10
1.12286e-08
-3.54391e-10
1.10838e-08
-3.32174e-10
-3.1189e-10
1.0948e-08
3.6187e-09
5.73144e-09
6.67676e-09
4.81949e-09
8.74178e-09
3.36758e-09
9.98614e-09
2.09206e-09
1.06692e-08
1.17636e-09
1.09774e-08
5.58606e-10
1.10544e-08
1.69968e-10
1.09985e-08
-5.87064e-11
1.08722e-08
-1.83443e-10
1.07132e-08
-2.44185e-10
1.05433e-08
-2.67426e-10
1.03742e-08
-2.69883e-10
1.02116e-08
-2.61668e-10
1.00579e-08
-2.48641e-10
9.91379e-09
-2.34036e-10
9.77892e-09
-2.1952e-10
9.65261e-09
-2.05864e-10
-1.93347e-10
9.53407e-09
3.07772e-09
2.65373e-09
5.66732e-09
2.22988e-09
7.4675e-09
1.5674e-09
8.58055e-09
9.79004e-10
9.20403e-09
5.52884e-10
9.49788e-09
2.64756e-10
9.58498e-09
8.28759e-11
9.55084e-09
-2.45728e-11
9.45088e-09
-8.34776e-11
9.31908e-09
-1.12392e-10
9.17533e-09
-1.23668e-10
9.03057e-09
-1.25127e-10
8.89041e-09
-1.21511e-10
8.75735e-09
-1.1558e-10
8.63218e-09
-1.08863e-10
8.51481e-09
-1.02153e-10
8.40477e-09
-9.58226e-11
-9.00088e-11
8.30143e-09
2.65373e-09
4.88361e-09
6.45101e-09
7.43002e-09
7.9829e-09
8.24766e-09
8.33053e-09
8.30596e-09
8.22248e-09
8.11009e-09
7.98642e-09
7.86129e-09
7.73978e-09
7.6242e-09
7.51534e-09
7.41319e-09
7.31737e-09
7.22736e-09
2.43074e-10
-2.43074e-10
4.87531e-10
-2.44457e-10
7.33075e-10
-2.45543e-10
9.79397e-10
-2.46322e-10
1.22618e-09
-2.46786e-10
1.47311e-09
-2.46929e-10
1.71986e-09
-2.46746e-10
1.96609e-09
-2.46235e-10
2.21149e-09
-2.45396e-10
2.45572e-09
-2.44231e-10
2.69846e-09
-2.42743e-10
2.9394e-09
-2.4094e-10
3.17823e-09
-2.38829e-10
3.41465e-09
-2.3642e-10
3.64838e-09
-2.33725e-10
3.87913e-09
-2.30756e-10
4.10666e-09
-2.27529e-10
4.33072e-09
-2.24059e-10
4.55109e-09
-2.20363e-10
4.76755e-09
-2.16459e-10
4.97991e-09
-2.12364e-10
5.18801e-09
-2.08097e-10
5.39168e-09
-2.03677e-10
5.59081e-09
-1.99122e-10
5.78526e-09
-1.94452e-10
5.97494e-09
-1.89683e-10
6.15977e-09
-1.84834e-10
6.3397e-09
-1.79922e-10
6.51466e-09
-1.74964e-10
6.68464e-09
-1.69975e-10
6.84961e-09
-1.6497e-10
7.00957e-09
-1.59963e-10
7.16453e-09
-1.54967e-10
7.31453e-09
-1.49994e-10
7.45958e-09
-1.45055e-10
7.59974e-09
-1.4016e-10
7.73506e-09
-1.3532e-10
7.8656e-09
-1.30541e-10
7.99144e-09
-1.25832e-10
8.11263e-09
-1.21199e-10
8.22928e-09
-1.16647e-10
8.34147e-09
-1.12183e-10
8.44927e-09
-1.07809e-10
8.5528e-09
-1.0353e-10
8.65215e-09
-9.93485e-11
8.74742e-09
-9.5267e-11
8.83871e-09
-9.12871e-11
8.92612e-09
-8.74103e-11
9.00975e-09
-8.36372e-11
9.08972e-09
-7.99687e-11
9.16613e-09
-7.64045e-11
9.23907e-09
-7.29446e-11
9.30866e-09
-6.95882e-11
9.375e-09
-6.63349e-11
9.43818e-09
-6.31832e-11
9.49831e-09
-6.0132e-11
9.55549e-09
-5.71802e-11
9.60982e-09
-5.43257e-11
9.66138e-09
-5.15673e-11
9.71029e-09
-4.89028e-11
9.75662e-09
-4.63305e-11
9.80047e-09
-4.38484e-11
9.84192e-09
-4.14545e-11
9.88107e-09
-3.91465e-11
9.91799e-09
-3.69224e-11
9.95277e-09
-3.47801e-11
9.98549e-09
-3.27174e-11
1.00162e-08
-3.07321e-11
1.0045e-08
-2.88221e-11
1.0072e-08
-2.6985e-11
1.00972e-08
-2.5219e-11
1.01208e-08
-2.35217e-11
1.01427e-08
-2.18909e-11
1.0163e-08
-2.03248e-11
1.01818e-08
-1.88211e-11
1.01992e-08
-1.73779e-11
1.02152e-08
-1.59932e-11
1.02298e-08
-1.4665e-11
1.02432e-08
-1.33912e-11
1.02554e-08
-1.21702e-11
1.02664e-08
-1.09999e-11
1.02763e-08
-9.87853e-12
1.02851e-08
-8.80454e-12
1.02929e-08
-7.77597e-12
1.02997e-08
-6.79124e-12
1.03055e-08
-5.84852e-12
1.03104e-08
-4.94648e-12
1.03145e-08
-4.08327e-12
1.03178e-08
-3.25757e-12
1.03203e-08
-2.46788e-12
1.0322e-08
-1.71259e-12
1.0323e-08
-9.90471e-13
1.03233e-08
-2.99983e-13
1.03229e-08
3.59908e-13
1.03219e-08
9.9087e-13
1.03203e-08
1.59386e-12
1.03181e-08
2.17007e-12
1.03154e-08
2.72097e-12
1.03122e-08
3.2474e-12
1.03084e-08
3.75064e-12
1.03042e-08
4.23156e-12
1.02995e-08
4.69147e-12
1.02944e-08
5.13097e-12
1.02888e-08
5.5515e-12
1.02829e-08
5.95349e-12
1.02765e-08
6.33823e-12
1.02698e-08
6.70637e-12
1.02628e-08
7.05883e-12
1.02554e-08
7.39632e-12
1.02476e-08
7.7197e-12
1.02396e-08
8.02969e-12
1.02313e-08
8.32701e-12
1.02227e-08
8.61224e-12
1.02138e-08
8.88612e-12
1.02046e-08
9.14929e-12
1.01952e-08
9.40244e-12
1.01856e-08
9.64585e-12
1.01757e-08
9.88056e-12
1.01656e-08
1.01065e-11
1.01553e-08
1.03248e-11
1.01447e-08
1.05354e-11
1.0134e-08
1.07392e-11
1.01231e-08
1.09363e-11
1.01119e-08
1.11274e-11
1.01006e-08
1.13128e-11
1.00891e-08
1.14927e-11
1.00775e-08
1.16678e-11
1.00656e-08
1.18382e-11
1.00536e-08
1.20044e-11
1.00415e-08
1.21667e-11
1.00291e-08
1.23252e-11
1.00167e-08
1.24806e-11
1.0004e-08
1.26327e-11
9.99124e-09
1.27821e-11
9.97831e-09
1.29289e-11
9.96524e-09
1.30735e-11
9.95202e-09
1.32159e-11
9.93866e-09
1.33567e-11
9.92517e-09
1.34958e-11
9.91154e-09
1.36335e-11
9.89777e-09
1.37701e-11
9.88386e-09
1.39057e-11
9.86982e-09
1.40409e-11
9.85564e-09
1.41755e-11
9.84133e-09
1.43101e-11
9.82689e-09
1.44448e-11
9.81231e-09
1.45799e-11
9.79759e-09
1.4716e-11
9.78274e-09
1.48535e-11
9.76775e-09
1.49929e-11
9.75261e-09
1.51347e-11
9.73733e-09
1.52798e-11
9.7219e-09
1.54293e-11
9.70632e-09
1.5584e-11
9.69057e-09
1.57458e-11
9.67466e-09
1.59163e-11
9.65856e-09
1.60981e-11
9.64226e-09
1.6294e-11
9.62576e-09
1.65081e-11
9.60901e-09
1.67452e-11
9.592e-09
1.7012e-11
9.57468e-09
1.73165e-11
9.55701e-09
1.76699e-11
9.53893e-09
1.80863e-11
9.52034e-09
1.85847e-11
9.50115e-09
1.91904e-11
9.48121e-09
1.99369e-11
9.46034e-09
2.08704e-11
9.43829e-09
2.20545e-11
9.41471e-09
2.35782e-11
9.38914e-09
2.55697e-11
9.36092e-09
2.82184e-11
9.32911e-09
3.18145e-11
9.29228e-09
3.68247e-11
9.24824e-09
4.40464e-11
9.19327e-09
5.49629e-11
9.1206e-09
7.26762e-11
9.01571e-09
1.04891e-10
8.83936e-09
1.76343e-10
4.01152e-10
8.43821e-09
2.44407e-10
-4.87481e-10
4.90195e-10
-4.90245e-10
7.37059e-10
-4.92408e-10
9.84685e-10
-4.93948e-10
1.23275e-09
-4.9485e-10
1.48092e-09
-4.95101e-10
1.72887e-09
-4.94693e-10
1.97625e-09
-4.93621e-10
2.22274e-09
-4.91886e-10
2.46801e-09
-4.89493e-10
2.71171e-09
-4.8645e-10
2.95354e-09
-4.8277e-10
3.19319e-09
-4.78471e-10
3.43034e-09
-4.73573e-10
3.66471e-09
-4.681e-10
3.89604e-09
-4.6208e-10
4.12405e-09
-4.55542e-10
4.34851e-09
-4.48519e-10
4.56919e-09
-4.41046e-10
4.78589e-09
-4.33157e-10
4.99842e-09
-4.2489e-10
5.2066e-09
-4.16283e-10
5.4103e-09
-4.07373e-10
5.60937e-09
-3.98198e-10
5.80372e-09
-3.88795e-10
5.99324e-09
-3.79202e-10
6.17785e-09
-3.69453e-10
6.35751e-09
-3.59582e-10
6.53217e-09
-3.49624e-10
6.70181e-09
-3.39609e-10
6.8664e-09
-3.29566e-10
7.02597e-09
-3.19524e-10
7.18051e-09
-3.09509e-10
7.33006e-09
-2.99544e-10
7.47465e-09
-2.89651e-10
7.61434e-09
-2.7985e-10
7.74919e-09
-2.70161e-10
7.87924e-09
-2.60598e-10
8.00459e-09
-2.51177e-10
8.1253e-09
-2.41911e-10
8.24146e-09
-2.3281e-10
8.35316e-09
-2.23885e-10
8.4605e-09
-2.15144e-10
8.56356e-09
-2.06593e-10
8.66245e-09
-1.98239e-10
8.75727e-09
-1.90085e-10
8.84812e-09
-1.82136e-10
8.9351e-09
-1.74394e-10
9.01833e-09
-1.6686e-10
9.09789e-09
-1.59536e-10
9.17391e-09
-1.5242e-10
9.24648e-09
-1.45513e-10
9.3157e-09
-1.38814e-10
9.38169e-09
-1.3232e-10
9.44454e-09
-1.2603e-10
9.50435e-09
-1.19941e-10
9.56122e-09
-1.1405e-10
9.61524e-09
-1.08354e-10
9.66653e-09
-1.0285e-10
9.71516e-09
-9.75332e-11
9.76123e-09
-9.24007e-11
9.80483e-09
-8.74482e-11
9.84604e-09
-8.26715e-11
9.88496e-09
-7.80666e-11
9.92167e-09
-7.36291e-11
9.95625e-09
-6.93549e-11
9.98877e-09
-6.52393e-11
1.00193e-08
-6.12784e-11
1.0048e-08
-5.74673e-11
1.00748e-08
-5.38022e-11
1.00998e-08
-5.02785e-11
1.01232e-08
-4.6892e-11
1.0145e-08
-4.36384e-11
1.01651e-08
-4.05135e-11
1.01838e-08
-3.75134e-11
1.02011e-08
-3.46339e-11
1.0217e-08
-3.18709e-11
1.02315e-08
-2.92205e-11
1.02448e-08
-2.66791e-11
1.02569e-08
-2.42426e-11
1.02678e-08
-2.19075e-11
1.02776e-08
-1.967e-11
1.02863e-08
-1.75269e-11
1.0294e-08
-1.54744e-11
1.03007e-08
-1.35092e-11
1.03065e-08
-1.16281e-11
1.03114e-08
-9.82798e-12
1.03154e-08
-8.10535e-12
1.03186e-08
-6.45764e-12
1.0321e-08
-4.88148e-12
1.03227e-08
-3.37422e-12
1.03236e-08
-1.93295e-12
1.03239e-08
-5.55072e-13
1.03235e-08
7.62158e-13
1.03224e-08
2.02129e-12
1.03208e-08
3.22481e-12
1.03186e-08
4.37521e-12
1.03159e-08
5.47453e-12
1.03126e-08
6.52551e-12
1.03088e-08
7.52984e-12
1.03045e-08
8.49003e-12
1.02998e-08
9.40781e-12
1.02947e-08
1.02855e-11
1.02891e-08
1.11248e-11
1.02831e-08
1.19275e-11
1.02768e-08
1.26955e-11
1.027e-08
1.34305e-11
1.0263e-08
1.41342e-11
1.02556e-08
1.48081e-11
1.02478e-08
1.54539e-11
1.02398e-08
1.60728e-11
1.02314e-08
1.66664e-11
1.02228e-08
1.72359e-11
1.02139e-08
1.77831e-11
1.02048e-08
1.83085e-11
1.01953e-08
1.8814e-11
1.01857e-08
1.93005e-11
1.01758e-08
1.97689e-11
1.01657e-08
2.02205e-11
1.01554e-08
2.06563e-11
1.01448e-08
2.10772e-11
1.01341e-08
2.14841e-11
1.01231e-08
2.1878e-11
1.0112e-08
2.22596e-11
1.01007e-08
2.263e-11
1.00892e-08
2.29897e-11
1.00775e-08
2.33394e-11
1.00657e-08
2.368e-11
1.00537e-08
2.40121e-11
1.00415e-08
2.43363e-11
1.00292e-08
2.46532e-11
1.00167e-08
2.49635e-11
1.0004e-08
2.52676e-11
9.99126e-09
2.55662e-11
9.97833e-09
2.58598e-11
9.96525e-09
2.61486e-11
9.95204e-09
2.64335e-11
9.93868e-09
2.67147e-11
9.92518e-09
2.69927e-11
9.91155e-09
2.72681e-11
9.89778e-09
2.75413e-11
9.88387e-09
2.78124e-11
9.86983e-09
2.80825e-11
9.85565e-09
2.83516e-11
9.84134e-09
2.86206e-11
9.8269e-09
2.88899e-11
9.81232e-09
2.91602e-11
9.7976e-09
2.94322e-11
9.78275e-09
2.97069e-11
9.76775e-09
2.99854e-11
9.75262e-09
3.02688e-11
9.73734e-09
3.05588e-11
9.72191e-09
3.08571e-11
9.70633e-09
3.11664e-11
9.69059e-09
3.14893e-11
9.67467e-09
3.18299e-11
9.65858e-09
3.21925e-11
9.64229e-09
3.25834e-11
9.62579e-09
3.30103e-11
9.60905e-09
3.3483e-11
9.59205e-09
3.40144e-11
9.57474e-09
3.46208e-11
9.55709e-09
3.53242e-11
9.53902e-09
3.61528e-11
9.52046e-09
3.71439e-11
9.50131e-09
3.83475e-11
9.48141e-09
3.98305e-11
9.4606e-09
4.16838e-11
9.43862e-09
4.40326e-11
9.41515e-09
4.70528e-11
9.38972e-09
5.09961e-11
9.36171e-09
5.6233e-11
9.33019e-09
6.33294e-11
9.29383e-09
7.31868e-11
9.25055e-09
8.73295e-11
9.19697e-09
1.08537e-10
9.12723e-09
1.42422e-10
9.03018e-09
2.01935e-10
8.88415e-09
3.22379e-10
6.16642e-10
8.66866e-09
2.47108e-10
-7.34589e-10
4.95594e-10
-7.38731e-10
7.45136e-10
-7.4195e-10
9.95403e-10
-7.44215e-10
1.24605e-09
-7.455e-10
1.49674e-09
-7.45788e-10
1.74711e-09
-7.45067e-10
1.99683e-09
-7.43332e-10
2.24552e-09
-7.40585e-10
2.49287e-09
-7.36834e-10
2.73851e-09
-7.32095e-10
2.98213e-09
-7.26389e-10
3.2234e-09
-7.19743e-10
3.46202e-09
-7.12192e-10
3.6977e-09
-7.03774e-10
3.93015e-09
-6.94532e-10
4.15912e-09
-6.84513e-10
4.38437e-09
-6.73769e-10
4.60568e-09
-6.62352e-10
4.82284e-09
-6.50318e-10
5.03567e-09
-6.37725e-10
5.24402e-09
-6.24629e-10
5.44773e-09
-6.11089e-10
5.6467e-09
-5.97162e-10
5.84081e-09
-5.82905e-10
6.02998e-09
-5.68374e-10
6.21415e-09
-5.53622e-10
6.39327e-09
-5.387e-10
6.5673e-09
-5.23659e-10
6.73624e-09
-5.08545e-10
6.90007e-09
-4.93402e-10
7.05882e-09
-4.78271e-10
7.2125e-09
-4.6319e-10
7.36115e-09
-4.48196e-10
7.50482e-09
-4.33319e-10
7.64356e-09
-4.18591e-10
7.77744e-09
-4.04036e-10
7.90652e-09
-3.8968e-10
8.03088e-09
-3.75543e-10
8.15062e-09
-3.61644e-10
8.26581e-09
-3.47999e-10
8.37655e-09
-3.34623e-10
8.48293e-09
-3.21526e-10
8.58505e-09
-3.08719e-10
8.68303e-09
-2.9621e-10
8.77695e-09
-2.84005e-10
8.86692e-09
-2.72109e-10
8.95305e-09
-2.60525e-10
9.03544e-09
-2.49254e-10
9.11421e-09
-2.38299e-10
9.18944e-09
-2.27658e-10
9.26126e-09
-2.17331e-10
9.32976e-09
-2.07315e-10
9.39505e-09
-1.97608e-10
9.45722e-09
-1.88206e-10
9.51639e-09
-1.79105e-10
9.57264e-09
-1.70301e-10
9.62607e-09
-1.61789e-10
9.67679e-09
-1.53564e-10
9.72488e-09
-1.4562e-10
9.77043e-09
-1.37951e-10
9.81353e-09
-1.30552e-10
9.85427e-09
-1.23415e-10
9.89274e-09
-1.16535e-10
9.92902e-09
-1.09905e-10
9.96318e-09
-1.0352e-10
9.99531e-09
-9.73711e-11
1.00255e-08
-9.14535e-11
1.00538e-08
-8.57601e-11
1.00803e-08
-8.02843e-11
1.0105e-08
-7.502e-11
1.01281e-08
-6.99606e-11
1.01495e-08
-6.50996e-11
1.01695e-08
-6.04311e-11
1.01879e-08
-5.59486e-11
1.02049e-08
-5.16464e-11
1.02205e-08
-4.75182e-11
1.02349e-08
-4.35582e-11
1.0248e-08
-3.97608e-11
1.02598e-08
-3.61202e-11
1.02706e-08
-3.2631e-11
1.02802e-08
-2.92877e-11
1.02887e-08
-2.6085e-11
1.02963e-08
-2.30179e-11
1.03029e-08
-2.00813e-11
1.03085e-08
-1.72701e-11
1.03133e-08
-1.45797e-11
1.03172e-08
-1.20054e-11
1.03202e-08
-9.5426e-12
1.03225e-08
-7.18707e-12
1.03241e-08
-4.93419e-12
1.0325e-08
-2.77998e-12
1.03251e-08
-7.20389e-13
1.03246e-08
1.24871e-12
1.03235e-08
3.13093e-12
1.03218e-08
4.93008e-12
1.03195e-08
6.64974e-12
1.03167e-08
8.29349e-12
1.03134e-08
9.86449e-12
1.03095e-08
1.13663e-11
1.03052e-08
1.28019e-11
1.03005e-08
1.41744e-11
1.02953e-08
1.54867e-11
1.02896e-08
1.67417e-11
1.02836e-08
1.79422e-11
1.02772e-08
1.90909e-11
1.02705e-08
2.01901e-11
1.02634e-08
2.12427e-11
1.02559e-08
2.22507e-11
1.02482e-08
2.32165e-11
1.02401e-08
2.41425e-11
1.02317e-08
2.50306e-11
1.02231e-08
2.58828e-11
1.02142e-08
2.67012e-11
1.0205e-08
2.74878e-11
1.01956e-08
2.82441e-11
1.01859e-08
2.8972e-11
1.0176e-08
2.96732e-11
1.01659e-08
3.03491e-11
1.01555e-08
3.10013e-11
1.0145e-08
3.16314e-11
1.01342e-08
3.22407e-11
1.01232e-08
3.28303e-11
1.01121e-08
3.34019e-11
1.01008e-08
3.39563e-11
1.00893e-08
3.44949e-11
1.00776e-08
3.50188e-11
1.00657e-08
3.55288e-11
1.00537e-08
3.60263e-11
1.00416e-08
3.6512e-11
1.00292e-08
3.69867e-11
1.00167e-08
3.74515e-11
1.00041e-08
3.79073e-11
9.9913e-09
3.83547e-11
9.97837e-09
3.87943e-11
9.96529e-09
3.92273e-11
9.95207e-09
3.96541e-11
9.93871e-09
4.00757e-11
9.92521e-09
4.04923e-11
9.91157e-09
4.09049e-11
9.8978e-09
4.13142e-11
9.88389e-09
4.17209e-11
9.86985e-09
4.21256e-11
9.85567e-09
4.2529e-11
9.84136e-09
4.29322e-11
9.82691e-09
4.33357e-11
9.81233e-09
4.37406e-11
9.79762e-09
4.41484e-11
9.78276e-09
4.456e-11
9.76777e-09
4.49772e-11
9.75264e-09
4.54017e-11
9.73736e-09
4.58359e-11
9.72194e-09
4.62826e-11
9.70636e-09
4.67454e-11
9.69062e-09
4.72286e-11
9.67471e-09
4.77377e-11
9.65862e-09
4.82797e-11
9.64234e-09
4.88637e-11
9.62585e-09
4.95008e-11
9.60913e-09
5.02059e-11
9.59215e-09
5.09978e-11
9.57487e-09
5.19011e-11
9.55724e-09
5.29478e-11
9.53921e-09
5.41798e-11
9.52071e-09
5.56523e-11
9.50161e-09
5.74389e-11
9.48181e-09
5.96382e-11
9.46111e-09
6.2384e-11
9.43928e-09
6.58599e-11
9.41601e-09
7.03231e-11
9.39087e-09
7.61403e-11
9.36325e-09
8.38484e-11
9.33232e-09
9.42594e-11
9.29685e-09
1.08654e-10
9.25503e-09
1.29155e-10
9.20404e-09
1.59528e-10
9.13945e-09
2.07004e-10
9.05454e-09
2.8685e-10
8.9426e-09
4.34313e-10
7.32023e-10
8.82722e-09
2.51254e-10
-9.85843e-10
5.03878e-10
-9.91355e-10
7.57527e-10
-9.95599e-10
1.01184e-09
-9.98528e-10
1.26645e-09
-1.00011e-09
1.52098e-09
-1.00032e-09
1.77507e-09
-9.99151e-10
2.02832e-09
-9.9659e-10
2.28039e-09
-9.92647e-10
2.53089e-09
-9.87334e-10
2.77947e-09
-9.80678e-10
3.02579e-09
-9.7271e-10
3.26952e-09
-9.63472e-10
3.51034e-09
-9.53013e-10
3.74795e-09
-9.41389e-10
3.98208e-09
-9.28663e-10
4.21247e-09
-9.14901e-10
4.43888e-09
-9.00176e-10
4.66109e-09
-8.84562e-10
4.87891e-09
-8.68137e-10
5.09216e-09
-8.5098e-10
5.3007e-09
-8.33171e-10
5.5044e-09
-8.14789e-10
5.70315e-09
-7.95912e-10
5.89687e-09
-7.76618e-10
6.08547e-09
-7.5698e-10
6.26892e-09
-7.37072e-10
6.44719e-09
-7.16962e-10
6.62024e-09
-6.96716e-10
6.78809e-09
-6.76396e-10
6.95075e-09
-6.5606e-10
7.10824e-09
-6.35761e-10
7.2606e-09
-6.1555e-10
7.40788e-09
-5.95473e-10
7.55013e-09
-5.75571e-10
7.68743e-09
-5.55884e-10
7.81983e-09
-5.36443e-10
7.94743e-09
-5.17281e-10
8.07032e-09
-4.98425e-10
8.18857e-09
-4.79897e-10
8.30229e-09
-4.61718e-10
8.41157e-09
-4.43905e-10
8.51652e-09
-4.26473e-10
8.61723e-09
-4.09435e-10
8.71382e-09
-3.92799e-10
8.80639e-09
-3.76574e-10
8.89504e-09
-3.60764e-10
8.97989e-09
-3.45373e-10
9.06104e-09
-3.30404e-10
9.1386e-09
-3.15857e-10
9.21267e-09
-3.0173e-10
9.28336e-09
-2.88022e-10
9.35078e-09
-2.7473e-10
9.41502e-09
-2.61849e-10
9.47619e-09
-2.49376e-10
9.53439e-09
-2.37303e-10
9.58971e-09
-2.25626e-10
9.64226e-09
-2.14337e-10
9.69212e-09
-2.03428e-10
9.7394e-09
-1.92894e-10
9.78417e-09
-1.82724e-10
9.82653e-09
-1.72913e-10
9.86657e-09
-1.6345e-10
9.90436e-09
-1.54328e-10
9.93999e-09
-1.45538e-10
9.97355e-09
-1.37072e-10
1.00051e-08
-1.2892e-10
1.00347e-08
-1.21074e-10
1.00625e-08
-1.13526e-10
1.00885e-08
-1.06266e-10
1.01127e-08
-9.92863e-11
1.01353e-08
-9.25781e-11
1.01564e-08
-8.61333e-11
1.01759e-08
-7.99432e-11
1.01939e-08
-7.39998e-11
1.02106e-08
-6.82951e-11
1.02259e-08
-6.28213e-11
1.02399e-08
-5.75701e-11
1.02527e-08
-5.25346e-11
1.02643e-08
-4.77066e-11
1.02747e-08
-4.30795e-11
1.02841e-08
-3.86456e-11
1.02924e-08
-3.43981e-11
1.02997e-08
-3.03303e-11
1.03061e-08
-2.64351e-11
1.03115e-08
-2.27066e-11
1.0316e-08
-1.91378e-11
1.03198e-08
-1.57231e-11
1.03227e-08
-1.24561e-11
1.03248e-08
-9.33102e-12
1.03262e-08
-6.34225e-12
1.03269e-08
-3.48422e-12
1.0327e-08
-7.5147e-13
1.03264e-08
1.86121e-12
1.03251e-08
4.35868e-12
1.03233e-08
6.74614e-12
1.03209e-08
9.02834e-12
1.0318e-08
1.12098e-11
1.03146e-08
1.32948e-11
1.03107e-08
1.52882e-11
1.03063e-08
1.71937e-11
1.03014e-08
1.90156e-11
1.02962e-08
2.07578e-11
1.02905e-08
2.2424e-11
1.02844e-08
2.4018e-11
1.02779e-08
2.55431e-11
1.02711e-08
2.70029e-11
1.0264e-08
2.84005e-11
1.02565e-08
2.97394e-11
1.02487e-08
3.10222e-11
1.02406e-08
3.2252e-11
1.02322e-08
3.34319e-11
1.02235e-08
3.45642e-11
1.02145e-08
3.56515e-11
1.02053e-08
3.66966e-11
1.01959e-08
3.77018e-11
1.01862e-08
3.86691e-11
1.01763e-08
3.9601e-11
1.01661e-08
4.04996e-11
1.01557e-08
4.13667e-11
1.01452e-08
4.22043e-11
1.01344e-08
4.30145e-11
1.01234e-08
4.37987e-11
1.01123e-08
4.45588e-11
1.01009e-08
4.52963e-11
1.00894e-08
4.60127e-11
1.00777e-08
4.67097e-11
1.00659e-08
4.73883e-11
1.00538e-08
4.80502e-11
1.00416e-08
4.86965e-11
1.00293e-08
4.93284e-11
1.00168e-08
4.9947e-11