/*--------------------------------*- C++ -*----------------------------------*\
  =========                 |
  \\      /  F ield         | OpenFOAM: The Open Source CFD Toolbox
   \\    /   O peration     | Website:  https://openfoam.org
    \\  /    A nd           | Version:  10
     \\/     M anipulation  |
\*---------------------------------------------------------------------------*/
FoamFile
{
    format      ascii;
    class       volVectorField;
    location    "0.8";
    object      Ua;
}
// * * * * * * * * * * * * * * * * * * * * * * * * * * * * * * * * * * * * * //

dimensions      [0 1 -1 0 0 0 0];

internalField   nonuniform List<vector> 
12225
(
(6.34575e-07 -1.27826e-07 0)
(1.39145e-06 -2.566e-08 0)
(6.20392e-07 1.95242e-07 0)
(-2.80713e-06 5.76895e-07 0)
(-1.03495e-05 1.18754e-06 0)
(-2.39579e-05 2.12416e-06 0)
(-4.62177e-05 3.51414e-06 0)
(-8.04553e-05 5.51435e-06 0)
(-0.000130789 8.30569e-06 0)
(-0.000202102 1.20822e-05 0)
(-0.000299919 1.70378e-05 0)
(-0.000430244 2.33632e-05 0)
(-0.000599544 3.12918e-05 0)
(-0.000815428 4.1291e-05 0)
(-0.00108951 5.46961e-05 0)
(-0.00144746 7.59426e-05 0)
(-0.00196946 0.000122797 0)
(-0.00301536 0.000293456 0)
(6.56328e-07 -3.9735e-07 0)
(1.46219e-06 -8.49469e-08 0)
(7.57548e-07 5.90564e-07 0)
(-2.57203e-06 1.75775e-06 0)
(-9.96781e-06 3.62554e-06 0)
(-2.33603e-05 6.49102e-06 0)
(-4.53109e-05 1.07447e-05 0)
(-7.91207e-05 1.6868e-05 0)
(-0.000128885 2.54164e-05 0)
(-0.000199465 3.69865e-05 0)
(-0.000296371 5.21734e-05 0)
(-0.000425575 7.15573e-05 0)
(-0.000593428 9.58292e-05 0)
(-0.000807106 0.000126332 0)
(-0.00107665 0.000166808 0)
(-0.00142106 0.000229146 0)
(-0.0018813 0.000355905 0)
(-0.0024854 0.000732851 0)
(7.04304e-07 -7.02015e-07 0)
(1.61823e-06 -1.69096e-07 0)
(1.0601e-06 9.83386e-07 0)
(-2.05333e-06 2.9751e-06 0)
(-9.12546e-06 6.16338e-06 0)
(-2.20409e-05 1.1057e-05 0)
(-4.3308e-05 1.8326e-05 0)
(-7.61713e-05 2.87975e-05 0)
(-0.000124672 4.34286e-05 0)
(-0.000193631 6.32485e-05 0)
(-0.000288521 8.92816e-05 0)
(-0.000415255 0.000122508 0)
(-0.000579956 0.000164031 0)
(-0.000788978 0.000215845 0)
(-0.00104956 0.000283263 0)
(-0.00137085 0.000381954 0)
(-0.0017573 0.000559221 0)
(-0.00213261 0.000955598 0)
(7.83226e-07 -1.05922e-06 0)
(1.87493e-06 -2.99304e-07 0)
(1.55796e-06 1.34442e-06 0)
(-1.19949e-06 4.18602e-06 0)
(-7.73811e-06 8.73719e-06 0)
(-1.98662e-05 1.57283e-05 0)
(-4.00039e-05 2.61235e-05 0)
(-7.1301e-05 4.11169e-05 0)
(-0.000117709 6.20954e-05 0)
(-0.000183977 9.05552e-05 0)
(-0.000275527 0.000127982 0)
(-0.000398195 0.000175758 0)
(-0.000557821 0.000235299 0)
(-0.000759721 0.000308856 0)
(-0.00100786 0.000401995 0)
(-0.00130202 0.000529801 0)
(-0.00162414 0.0007303 0)
(-0.00188399 0.00107997 0)
(8.97839e-07 -1.4921e-06 0)
(2.24781e-06 -5.04166e-07 0)
(2.28134e-06 1.63343e-06 0)
(4.17923e-08 5.33052e-06 0)
(-5.71955e-06 1.12565e-05 0)
(-1.66986e-05 2.03702e-05 0)
(-3.51844e-05 3.3942e-05 0)
(-6.41857e-05 5.3553e-05 0)
(-0.000107519 8.10497e-05 0)
(-0.000169826 0.000118435 0)
(-0.000256465 0.000167696 0)
(-0.00037321 0.000230623 0)
(-0.000525652 0.000308814 0)
(-0.000718145 0.000404282 0)
(-0.000951782 0.000521405 0)
(-0.00121962 0.000671129 0)
(-0.00149398 0.000876496 0)
(-0.00169968 0.00116592 0)
(1.05256e-06 -2.03059e-06 0)
(2.75127e-06 -8.21076e-07 0)
(3.25852e-06 1.79708e-06 0)
(1.71987e-06 6.32812e-06 0)
(-2.98743e-06 1.35985e-05 0)
(-1.24043e-05 2.4798e-05 0)
(-2.86378e-05 4.15114e-05 0)
(-5.44981e-05 6.57235e-05 0)
(-9.36096e-05 9.97716e-05 0)
(-0.000150463 0.000146214 0)
(-0.000230341 0.000207593 0)
(-0.000339009 0.000286136 0)
(-0.000481979 0.000383516 0)
(-0.000663048 0.000501038 0)
(-0.000881538 0.000640674 0)
(-0.00112714 0.0008071 0)
(-0.00137099 0.00100827 0)
(-0.00155706 0.00124401 0)
(1.25093e-06 -2.71237e-06 0)
(3.39703e-06 -1.2975e-06 0)
(4.51264e-06 1.76699e-06 0)
(3.87568e-06 7.0746e-06 0)
(5.28113e-07 1.56027e-05 0)
(-6.86645e-06 2.8768e-05 0)
(-2.01724e-05 4.84711e-05 0)
(-4.19311e-05 7.71123e-05 0)
(-7.55011e-05 0.00011755 0)
(-0.000125162 0.000172956 0)
(-0.000196109 0.000246515 0)
(-0.000294191 0.000340967 0)
(-0.000425147 0.000458055 0)
(-0.00059294 0.000598077 0)
(-0.0007967 0.000759846 0)
(-0.00102591 0.000940943 0)
(-0.00125485 0.00113646 0)
(-0.00144253 0.0013311 0)
(1.49493e-06 -3.5835e-06 0)
(4.19168e-06 -1.99182e-06 0)
(6.05708e-06 1.45837e-06 0)
(6.53389e-06 7.43951e-06 0)
(4.87199e-06 1.70659e-05 0)
(-3.77884e-09 3.19685e-05 0)
(-9.64375e-06 5.43548e-05 0)
(-2.6234e-05 8.70436e-05 0)
(-5.27715e-05 0.000133442 0)
(-9.32381e-05 0.000197401 0)
(-0.000152707 0.000282875 0)
(-0.000237225 0.000393299 0)
(-0.000353176 0.000530655 0)
(-0.00050567 0.000694283 0)
(-0.000695496 0.000879665 0)
(-0.000914659 0.00107734 0)
(-0.0011424 0.0012717 0)
(-0.00134716 0.00143885 0)
(1.78396e-06 -4.69837e-06 0)
(5.13358e-06 -2.97343e-06 0)
(7.8894e-06 7.69892e-07 0)
(9.69233e-06 7.26571e-06 0)
(1.00469e-05 1.77407e-05 0)
(8.20287e-06 3.40149e-05 0)
(3.00643e-06 5.85797e-05 0)
(-7.26784e-06 9.46587e-05 0)
(-2.51282e-05 0.000146223 0)
(-5.4127e-05 0.00021788 0)
(-9.91304e-05 0.000314529 0)
(-0.000166459 0.000440617 0)
(-0.000263596 0.000598828 0)
(-0.000397943 0.000788111 0)
(-0.000574016 0.00100115 0)
(-0.000788964 0.00122197 0)
(-0.00102799 0.00142512 0)
(-0.00126424 0.00157877 0)
(2.11365e-06 -6.11854e-06 0)
(6.20898e-06 -4.32129e-06 0)
(9.98369e-06 -4.14239e-07 0)
(1.33083e-05 6.3722e-06 0)
(1.59908e-05 1.7338e-05 0)
(1.76748e-05 3.44512e-05 0)
(1.7696e-05 6.04426e-05 0)
(1.49161e-05 9.89019e-05 0)
(7.48333e-06 0.000154354 0)
(-7.52226e-06 0.000232231 0)
(-3.45664e-05 0.000338594 0)
(-8.01858e-05 0.000479382 0)
(-0.000153303 0.00065885 0)
(-0.000264764 0.00087683 0)
(-0.00042516 0.00112472 0)
(-0.000639987 0.00138108 0)
(-0.000902421 0.00160976 0)
(-0.00118751 0.00176648 0)
(2.47438e-06 -7.90991e-06 0)
(7.38743e-06 -6.12055e-06 0)
(1.22815e-05 -2.21876e-06 0)
(1.72821e-05 4.56277e-06 0)
(2.25481e-05 1.55384e-05 0)
(2.81891e-05 3.2763e-05 0)
(3.41301e-05 5.9134e-05 0)
(3.99656e-05 9.85276e-05 0)
(4.47163e-05 0.000155963 0)
(4.63993e-05 0.000237717 0)
(4.13291e-05 0.000351233 0)
(2.31096e-05 0.000504565 0)
(-1.85792e-05 0.000704846 0)
(-9.88898e-05 0.000955076 0)
(-0.000237104 0.00124846 0)
(-0.000451909 0.00156057 0)
(-0.000749951 0.00184277 0)
(-0.00110898 0.0020274 0)
(2.81866e-06 -9.92908e-06 0)
(8.51525e-06 -8.23115e-06 0)
(1.44839e-05 -4.50824e-06 0)
(2.10942e-05 1.9613e-06 0)
(2.88662e-05 1.24327e-05 0)
(3.84018e-05 2.89709e-05 0)
(5.0255e-05 5.45364e-05 0)
(6.48355e-05 9.3154e-05 0)
(8.22051e-05 0.000150179 0)
(0.000101633 0.000232593 0)
(0.000120752 0.000349216 0)
(0.000134104 0.000510577 0)
(0.000130903 0.000727873 0)
(9.2166e-05 0.00100993 0)
(-1.15417e-05 0.00135643 0)
(-0.00021788 0.00174558 0)
(-0.000558189 0.0021176 0)
(-0.00102247 0.0023672 0)
(3.15392e-06 -1.23458e-05 0)
(9.61908e-06 -1.08433e-05 0)
(1.66431e-05 -7.50541e-06 0)
(2.4828e-05 -1.71592e-06 0)
(3.50771e-05 7.61062e-06 0)
(4.85306e-05 2.24598e-05 0)
(6.64265e-05 4.57227e-05 0)
(9.00917e-05 8.13805e-05 0)
(0.000120835 0.000134878 0)
(0.000159576 0.000213638 0)
(0.000205984 0.000327687 0)
(0.000256752 0.000490269 0)
(0.000302395 0.000718003 0)
(0.000321962 0.00102939 0)
(0.000275845 0.00143882 0)
(0.000100459 0.00194066 0)
(-0.000281409 0.00247557 0)
(-0.000902859 0.00288063 0)
(3.4973e-06 -1.56252e-05 0)
(1.07659e-05 -1.44854e-05 0)
(1.88954e-05 -1.18349e-05 0)
(2.86964e-05 -7.26557e-06 0)
(4.1531e-05 -8.56004e-08 0)
(5.92099e-05 1.15001e-05 0)
(8.37855e-05 3.01169e-05 0)
(0.000117722 5.93846e-05 0)
(0.000163995 0.000104397 0)
(0.000225965 0.000172459 0)
(0.000306825 0.000274214 0)
(0.000408094 0.000425348 0)
(0.000526082 0.000648983 0)
(0.000644267 0.000978358 0)
(0.000718254 0.00145749 0)
(0.000650498 0.00213147 0)
(0.000264049 0.00300091 0)
(-0.000652145 0.00387053 0)
(3.77417e-06 -1.99897e-05 0)
(1.17479e-05 -1.94765e-05 0)
(2.08593e-05 -1.78845e-05 0)
(3.19567e-05 -1.51735e-05 0)
(4.69361e-05 -1.15762e-05 0)
(6.84414e-05 -5.53805e-06 0)
(9.93606e-05 5.00371e-06 0)
(0.000143385 2.27326e-05 0)
(0.000205466 5.14999e-05 0)
(0.000292195 9.71083e-05 0)
(0.000412152 0.000168694 0)
(0.000575932 0.000281285 0)
(0.000794906 0.00046065 0)
(0.0010759 0.000752644 0)
(0.00140345 0.00124118 0)
(0.0016857 0.00208226 0)
(0.00159588 0.0035654 0)
(0.000117355 0.00621291 0)
(3.81837e-06 -2.55274e-05 0)
(1.21659e-05 -2.61287e-05 0)
(2.18864e-05 -2.58968e-05 0)
(3.3194e-05 -2.53019e-05 0)
(4.86577e-05 -2.71898e-05 0)
(7.2089e-05 -2.96081e-05 0)
(0.00010683 -3.14043e-05 0)
(0.000157408 -3.17102e-05 0)
(0.000230384 -2.92956e-05 0)
(0.000335319 -2.22767e-05 0)
(0.000486513 -7.48534e-06 0)
(0.000706159 2.08198e-05 0)
(0.00103039 7.37296e-05 0)
(0.00152138 0.000173898 0)
(0.00229271 0.000369906 0)
(0.00356446 0.000770415 0)
(0.00578701 0.00162736 0)
(0.00992726 0.00354261 0)
(1.376e-07 -1.42142e-05 0)
(2.58664e-07 -1.49281e-05 0)
(2.37914e-07 -1.5196e-05 0)
(2.35486e-07 -1.54177e-05 0)
(2.607e-07 -2.03923e-05 0)
(3.19357e-07 -2.80244e-05 0)
(4.00112e-07 -3.74112e-05 0)
(5.04103e-07 -4.88646e-05 0)
(6.3799e-07 -6.28417e-05 0)
(8.12353e-07 -8.01357e-05 0)
(1.04421e-06 -0.000101982 0)
(1.36088e-06 -0.000130263 0)
(1.80692e-06 -0.000167873 0)
(2.4571e-06 -0.000219343 0)
(3.44108e-06 -0.000291914 0)
(4.99256e-06 -0.000397427 0)
(7.55137e-06 -0.000555662 0)
(1.19855e-05 -0.000800453 0)
(1.36471e-05 1.51708e-05 0)
(4.10929e-05 1.70075e-05 0)
(7.05335e-05 1.61254e-05 0)
(0.000104414 1.35944e-05 0)
(0.00014167 7.25723e-06 0)
(0.000180002 -1.5649e-06 0)
(0.000218921 -1.25492e-05 0)
(0.000259287 -2.72214e-05 0)
(0.000301772 -4.44887e-05 0)
(0.000346071 -6.52258e-05 0)
(0.000391941 -9.0619e-05 0)
(0.000439012 -0.000122292 0)
(0.000486493 -0.000162477 0)
(0.000532634 -0.00021425 0)
(0.000573739 -0.000281869 0)
(0.000602361 -0.000371242 0)
(0.000604008 -0.000490625 0)
(0.000551205 -0.000651793 0)
(1.97016e-05 4.49911e-05 0)
(5.93565e-05 4.8955e-05 0)
(9.95975e-05 4.6832e-05 0)
(0.000140611 4.0776e-05 0)
(0.000182319 3.17148e-05 0)
(0.000224481 2.05433e-05 0)
(0.000266918 7.12595e-06 0)
(0.000308636 -9.94387e-06 0)
(0.000349244 -3.10193e-05 0)
(0.000388994 -5.52644e-05 0)
(0.000427294 -8.34813e-05 0)
(0.000463245 -0.000116581 0)
(0.000495537 -0.000155467 0)
(0.000522343 -0.000200863 0)
(0.000541269 -0.000252969 0)
(0.000549497 -0.000310829 0)
(0.000544384 -0.00037122 0)
(0.000524985 -0.000426735 0)
(2.20782e-05 6.95996e-05 0)
(6.67675e-05 7.29516e-05 0)
(0.000112109 6.9848e-05 0)
(0.000157494 6.22044e-05 0)
(0.000202569 5.13998e-05 0)
(0.000247055 3.83094e-05 0)
(0.000290704 2.3271e-05 0)
(0.000333208 6.27026e-06 0)
(0.000373576 -1.49328e-05 0)
(0.000411349 -3.9398e-05 0)
(0.000446488 -6.65145e-05 0)
(0.000478138 -9.65161e-05 0)
(0.000505316 -0.000129395 0)
(0.000526963 -0.000164772 0)
(0.000542057 -0.000201746 0)
(0.000549827 -0.000238769 0)
(0.000550068 -0.0002736 0)
(0.000543501 -0.000303525 0)
(2.4942e-05 8.58617e-05 0)
(7.51402e-05 8.75858e-05 0)
(0.000125483 8.33561e-05 0)
(0.000175193 7.47543e-05 0)
(0.000223773 6.31044e-05 0)
(0.000270873 4.92739e-05 0)
(0.000316184 3.36926e-05 0)
(0.000359362 1.64877e-05 0)
(0.000399918 -2.88297e-06 0)
(0.000437157 -2.59134e-05 0)
(0.000470588 -5.07244e-05 0)
(0.000499867 -7.7082e-05 0)
(0.000524474 -0.000104704 0)
(0.000543915 -0.000133045 0)
(0.000557832 -0.000161268 0)
(0.000566129 -0.000188281 0)
(0.000569088 -0.00021285 0)
(0.000567414 -0.000233807 0)
(2.80057e-05 9.56634e-05 0)
(8.40053e-05 9.58751e-05 0)
(0.0001395 9.07039e-05 0)
(0.000193672 8.15299e-05 0)
(0.000245948 6.95723e-05 0)
(0.000295918 5.56713e-05 0)
(0.000343243 4.03037e-05 0)
(0.000387604 2.3693e-05 0)
(0.000428684 5.93281e-06 0)
(0.000465748 -1.45479e-05 0)
(0.0004984 -3.66069e-05 0)
(0.000526639 -5.93422e-05 0)
(0.000550135 -8.24305e-05 0)
(0.000568685 -0.000105381 0)
(0.000582263 -0.00012756 0)
(0.000591055 -0.000148249 0)
(0.000595471 -0.00016674 0)
(0.000596124 -0.000182447 0)
(3.14023e-05 9.95524e-05 0)
(9.38216e-05 9.85899e-05 0)
(0.000154987 9.27871e-05 0)
(0.000214053 8.34126e-05 0)
(0.000270408 7.15946e-05 0)
(0.000323612 5.81354e-05 0)
(0.000373327 4.35243e-05 0)
(0.000419264 2.80277e-05 0)
(0.00046115 1.17875e-05 0)
(0.00049859 -5.67236e-06 0)
(0.000531279 -2.48389e-05 0)
(0.000559094 -4.41699e-05 0)
(0.000581973 -6.33548e-05 0)
(0.000599995 -8.1995e-05 0)
(0.000613344 -9.9632e-05 0)
(0.000622331 -0.000115792 0)
(0.000627401 -0.000130048 0)
(0.000629109 -0.000142073 0)
(3.52461e-05 9.81941e-05 0)
(0.000104945 9.6422e-05 0)
(0.000172548 9.03383e-05 0)
(0.000237166 8.11344e-05 0)
(0.000298157 6.9857e-05 0)
(0.00035508 5.72612e-05 0)
(0.000407625 4.38253e-05 0)
(0.000455561 2.98291e-05 0)
(0.000498704 1.54421e-05 0)
(0.000536964 7.15984e-07 0)
(0.000569932 -1.54342e-05 0)
(0.000597507 -3.15792e-05 0)
(0.000620052 -4.72933e-05 0)
(0.000637733 -6.22834e-05 0)
(0.000650816 -7.62308e-05 0)
(0.000659688 -8.88227e-05 0)
(0.000664835 -9.97924e-05 0)
(0.000666806 -0.000108952 0)
(3.96786e-05 9.22401e-05 0)
(0.000117793 8.99953e-05 0)
(0.000192861 8.39793e-05 0)
(0.000263917 7.53056e-05 0)
(0.000330296 6.49358e-05 0)
(0.000391574 5.35662e-05 0)
(0.000447493 4.16451e-05 0)
(0.000497903 2.94432e-05 0)
(0.000542726 1.71294e-05 0)
(0.000581954 4.83281e-06 0)
(0.000615412 -8.14529e-06 0)
(0.000643171 -2.12178e-05 0)
(0.000665583 -3.37368e-05 0)
(0.000682916 -4.54946e-05 0)
(0.000695563 -5.62671e-05 0)
(0.000704007 -6.58472e-05 0)
(0.000708782 -7.40698e-05 0)
(0.000710448 -8.0832e-05 0)
(4.49213e-05 8.22598e-05 0)
(0.000133013 7.98424e-05 0)
(0.000216961 7.42257e-05 0)
(0.00029569 6.64249e-05 0)
(0.000368508 5.73021e-05 0)
(0.000435028 4.74802e-05 0)
(0.000495067 3.73629e-05 0)
(0.000548575 2.71966e-05 0)
(0.000595591 1.71345e-05 0)
(0.00063621 7.28666e-06 0)
(0.000670569 -2.4864e-06 0)
(0.000698741 -1.2629e-05 0)
(0.000721006 -2.21637e-05 0)
(0.00073791 -3.09477e-05 0)
(0.000749975 -3.88465e-05 0)
(0.000757742 -4.57368e-05 0)
(0.000761787 -5.15217e-05 0)
(0.000762698 -5.6146e-05 0)
(5.14034e-05 6.87038e-05 0)
(0.000151861 6.63832e-05 0)
(0.000246867 6.14805e-05 0)
(0.000335194 5.48812e-05 0)
(0.000416123 4.73264e-05 0)
(0.000489316 3.93493e-05 0)
(0.00055469 3.12967e-05 0)
(0.000612321 2.33814e-05 0)
(0.000662383 1.57352e-05 0)
(0.000705121 8.45161e-06 0)
(0.000740868 1.62591e-06 0)
(0.000769718 -5.36536e-06 0)
(0.000792064 -1.19879e-05 0)
(0.000808646 -1.7921e-05 0)
(0.000820042 -2.30942e-05 0)
(0.000826917 -2.7454e-05 0)
(0.000829942 -3.09551e-05 0)
(0.000829755 -3.35591e-05 0)
(6.02144e-05 5.1907e-05 0)
(0.000177546 4.99346e-05 0)
(0.000287778 4.60565e-05 0)
(0.000389481 4.09887e-05 0)
(0.000481898 3.53236e-05 0)
(0.000564756 2.9488e-05 0)
(0.000638091 2.37617e-05 0)
(0.000702126 1.8319e-05 0)
(0.000757188 1.32683e-05 0)
(0.000803678 8.6825e-06 0)
(0.00084206 4.61862e-06 0)
(0.000872871 9.7141e-07 0)
(0.000896453 -2.35254e-06 0)
(0.000913317 -5.10508e-06 0)
(0.00092438 -7.27309e-06 0)
(0.000930562 -8.85985e-06 0)
(0.000932788 -9.86277e-06 0)
(0.00093193 -1.0247e-05 0)
(7.57886e-05 3.22986e-05 0)
(0.00022321 3.09355e-05 0)
(0.000361206 2.8424e-05 0)
(0.000488058 2.52607e-05 0)
(0.000602928 2.18579e-05 0)
(0.000705583 1.85186e-05 0)
(0.000796156 1.54506e-05 0)
(0.000874984 1.2792e-05 0)
(0.00094252 1.06358e-05 0)
(0.000999296 9.04545e-06 0)
(0.00104593 8.06426e-06 0)
(0.00108319 7.72871e-06 0)
(0.00111192 7.9883e-06 0)
(0.00113306 8.79789e-06 0)
(0.0011477 1.01131e-05 0)
(0.00115707 1.19059e-05 0)
(0.00116259 1.41966e-05 0)
(0.00116595 1.70919e-05 0)
(0.000151811 1.0848e-05 0)
(0.000450729 1.03543e-05 0)
(0.000739659 9.48809e-06 0)
(0.0010181 8.43609e-06 0)
(0.00128664 7.3552e-06 0)
(0.00154659 6.36421e-06 0)
(0.00179959 5.54857e-06 0)
(0.0020474 4.96941e-06 0)
(0.00229172 4.67104e-06 0)
(0.00253412 4.68516e-06 0)
(0.00277599 5.03197e-06 0)
(0.00301851 5.72198e-06 0)
(0.00326257 6.73256e-06 0)
(0.00350874 8.03791e-06 0)
(0.00375747 9.61019e-06 0)
(0.0040093 1.14362e-05 0)
(0.00426529 1.35436e-05 0)
(0.0045274 1.60219e-05 0)
(-7.89852e-06 1.68827e-05 2.18111e-31)
(-2.37539e-05 1.68466e-05 -2.17456e-31)
(-3.96912e-05 1.6781e-05 0)
(-5.56826e-05 1.66859e-05 0)
(-7.16992e-05 1.65609e-05 0)
(-8.77116e-05 1.64062e-05 2.1101e-31)
(-0.00010369 1.62221e-05 0)
(-0.000119603 1.60091e-05 0)
(-0.000135421 1.57676e-05 0)
(-0.000151114 1.54987e-05 0)
(-0.00016665 1.52033e-05 -1.94531e-31)
(-0.000181999 1.48826e-05 0)
(-0.000197133 1.45379e-05 0)
(-0.000212022 1.41708e-05 0)
(-0.00022664 1.37828e-05 0)
(-0.000240959 1.33757e-05 -1.70032e-31)
(-0.000254954 1.29512e-05 0)
(-0.000268601 1.25114e-05 0)
(-0.000281879 1.20582e-05 0)
(-0.000294766 1.15936e-05 0)
(-0.000307245 1.11196e-05 0)
(-0.000319297 1.06382e-05 0)
(-0.000330909 1.01515e-05 0)
(-0.000342066 9.66139e-06 -1.20833e-31)
(-0.000352759 9.16986e-06 1.14353e-31)
(-0.000362978 8.67877e-06 -1.07886e-31)
(-0.000372716 8.18991e-06 -1.01452e-31)
(-0.000381968 7.70499e-06 0)
(-0.000390731 7.22565e-06 0)
(-0.000399004 6.7534e-06 8.25754e-32)
(-0.000406787 6.28965e-06 7.64899e-32)
(-0.000414082 5.83572e-06 0)
(-0.000420894 5.39278e-06 0)
(-0.000427229 4.96192e-06 5.9088e-32)
(-0.000433092 4.54409e-06 0)
(-0.000438494 4.14012e-06 0)
(-0.000443443 3.75075e-06 -4.32426e-32)
(-0.00044795 3.37658e-06 0)
(-0.000452028 3.01812e-06 -3.36721e-32)
(-0.000455689 2.67575e-06 -5.84079e-32)
(-0.000458947 2.34977e-06 0)
(-0.000461817 2.04036e-06 0)
(-0.000464315 1.74762e-06 0)
(-0.000466455 1.47156e-06 0)
(-0.000468254 1.21209e-06 0)
(-0.000469728 9.69048e-07 -1.39593e-32)
(-0.000470894 7.42208e-07 -8.06823e-33)
(-0.000471769 5.31262e-07 -2.5947e-33)
(-0.00047237 3.35841e-07 0)
(-0.000472713 1.55522e-07 -7.14022e-33)
(-0.000472815 -1.0175e-08 0)
(-0.000472693 -1.61772e-07 1.53416e-32)
(-0.000472361 -2.99834e-07 1.89027e-32)
(-0.000471837 -4.2496e-07 0)
(-0.000471135 -5.37776e-07 0)
(-0.000470269 -6.38935e-07 0)
(-0.000469254 -7.29103e-07 2.99255e-32)
(-0.000468104 -8.0896e-07 0)
(-0.000466831 -8.79192e-07 0)
(-0.000465447 -9.40487e-07 0)
(-0.000463963 -9.93526e-07 0)
(-0.000462391 -1.03899e-06 0)
(-0.00046074 -1.07753e-06 0)
(-0.000459019 -1.10979e-06 0)
(-0.000457237 -1.13641e-06 0)
(-0.000455401 -1.15797e-06 -4.06846e-32)
(-0.000453518 -1.17507e-06 0)
(-0.000451595 -1.18823e-06 0)
(-0.000449636 -1.19798e-06 4.15825e-32)
(-0.000447647 -1.2048e-06 4.17121e-32)
(-0.000445632 -1.20915e-06 0)
(-0.000443594 -1.21144e-06 -4.17878e-32)
(-0.000441536 -1.21206e-06 4.17553e-32)
(-0.000439461 -1.21136e-06 0)
(-0.000437369 -1.20967e-06 -4.15953e-32)
(-0.000435264 -1.20728e-06 0)
(-0.000433145 -1.20445e-06 0)
(-0.000431013 -1.20142e-06 4.12318e-32)
(-0.000428868 -1.19839e-06 0)
(-0.000426709 -1.19554e-06 -4.09783e-32)
(-0.000424538 -1.19304e-06 0)
(-0.000422351 -1.19102e-06 4.07587e-32)
(-0.000420149 -1.1896e-06 4.06699e-32)
(-0.00041793 -1.18889e-06 4.0599e-32)
(-0.000415692 -1.18895e-06 8.10957e-32)
(-0.000413434 -1.18988e-06 -8.10371e-32)
(-0.000411154 -1.19172e-06 0)
(-0.00040885 -1.19452e-06 0)
(-0.000406519 -1.19833e-06 0)
(-0.00040416 -1.20316e-06 -8.12858e-32)
(-0.000401769 -1.20906e-06 -8.14777e-32)
(-0.000399345 -1.21602e-06 8.17234e-32)
(-0.000396884 -1.22408e-06 0)
(-0.000394385 -1.23324e-06 -8.23794e-32)
(-0.000391844 -1.24352e-06 -8.27908e-32)
(-0.000389258 -1.25492e-06 -8.32579e-32)
(-0.000386624 -1.26744e-06 0)
(-0.00038394 -1.28111e-06 0)
(-0.000381203 -1.29593e-06 0)
(-0.000378408 -1.31192e-06 -8.56926e-32)
(-0.000375553 -1.32908e-06 0)
(-0.000372634 -1.34744e-06 0)
(-0.000369648 -1.36702e-06 8.81275e-32)
(-0.000366591 -1.38784e-06 0)
(-0.000363458 -1.40994e-06 0)
(-0.000360247 -1.43334e-06 9.11123e-32)
(-0.000356953 -1.45809e-06 0)
(-0.000353571 -1.48423e-06 0)
(-0.000350097 -1.51181e-06 -9.46897e-32)
(-0.000346525 -1.54089e-06 -9.60246e-32)
(-0.000342852 -1.57154e-06 0)
(-0.000339071 -1.60384e-06 9.89269e-32)
(-0.000335177 -1.63785e-06 0)
(-0.000331164 -1.67369e-06 -1.02165e-31)
(-0.000327025 -1.71144e-06 0)
(-0.000322753 -1.75123e-06 -1.05776e-31)
(-0.000318342 -1.79317e-06 -1.07736e-31)
(-0.000313783 -1.83742e-06 0)
(-0.000309068 -1.88413e-06 0)
(-0.000304188 -1.93346e-06 0)
(-0.000299133 -1.98561e-06 0)
(-0.000293894 -2.04079e-06 0)
(-0.000288458 -2.09923e-06 0)
(-0.000282814 -2.16119e-06 0)
(-0.000276948 -2.22696e-06 -1.28208e-31)
(-0.000270847 -2.29685e-06 1.31533e-31)
(-0.000264494 -2.37121e-06 0)
(-0.000257872 -2.45044e-06 0)
(-0.000250964 -2.53497e-06 0)
(-0.000243749 -2.62527e-06 0)
(-0.000236205 -2.72189e-06 3.03743e-31)
(-0.000228307 -2.82541e-06 0)
(-0.00022003 -2.93649e-06 -3.24405e-31)
(-0.000211342 -3.05588e-06 3.35929e-31)
(-0.000202213 -3.1844e-06 0)
(-0.000192606 -3.32296e-06 0)
(-0.000182482 -3.47259e-06 0)
(-0.000171797 -3.63442e-06 -3.92015e-31)
(-0.000160503 -3.80975e-06 -4.09076e-31)
(-0.000148545 -3.99999e-06 0)
(-0.000135864 -4.20674e-06 -4.47797e-31)
(-0.000122392 -4.43179e-06 -4.69795e-31)
(-0.000108056 -4.67715e-06 4.9381e-31)
(-9.27725e-05 -4.94504e-06 0)
(-7.64485e-05 -5.23797e-06 0)
(-5.89804e-05 -5.55874e-06 5.8033e-31)
(-4.02522e-05 -5.91048e-06 0)
(-2.01338e-05 -6.29668e-06 0)
(1.52047e-06 -6.72125e-06 0)
(2.48738e-05 -7.18852e-06 0)
(5.01092e-05 -7.70332e-06 -7.91773e-31)
(7.7432e-05 -8.27104e-06 -8.47892e-31)
(0.000107072 -8.89759e-06 0)
(0.000139288 -9.58955e-06 -9.78382e-31)
(0.000174369 -1.03541e-05 0)
(0.000212637 -1.11991e-05 0)
(0.000254454 -1.21331e-05 -1.23051e-30)
(0.000300223 -1.31654e-05 0)
(0.000350393 -1.43057e-05 -1.44609e-30)
(0.00040546 -1.55644e-05 0)
(0.000465975 -1.69523e-05 0)
(0.000532542 -1.84801e-05 -1.8605e-30)
(0.000605823 -2.01585e-05 0)
(0.000686537 -2.19975e-05 -2.20965e-30)
(0.000775459 -2.40057e-05 0)
(0.000873411 -2.61895e-05 0)
(0.000981257 -2.85518e-05 0)
(0.00109989 -3.1091e-05 3.11086e-30)
(0.00123019 -3.37983e-05 0)
(0.00137304 -3.66558e-05 -3.66045e-30)
(0.0015292 -3.96329e-05 0)
(0.00169933 -4.2682e-05 0)
(0.00188384 -4.57318e-05 0)
(0.00208276 -4.86767e-05 0)
(0.00229559 -5.13578e-05 0)
(0.00252089 -5.35224e-05 0)
(0.00275568 -5.47214e-05 0)
(0.00299378 -5.39914e-05 1.05997e-29)
(0.00322056 -4.85624e-05 0)
(0.00338803 -2.6493e-05 0)
(-7.95987e-06 5.07794e-05 -6.56024e-31)
(-2.3938e-05 5.06699e-05 6.54044e-31)
(-3.99978e-05 5.04716e-05 0)
(-5.61104e-05 5.01836e-05 -1.29456e-30)
(-7.22465e-05 4.98055e-05 0)
(-8.83758e-05 4.93376e-05 6.36629e-31)
(-0.000104467 4.87806e-05 1.25601e-30)
(-0.00012049 4.81361e-05 1.2386e-30)
(-0.000136413 4.7406e-05 0)
(-0.000152205 4.65929e-05 1.19721e-30)
(-0.000167834 4.56998e-05 -5.88675e-31)
(-0.00018327 4.47305e-05 0)
(-0.000198484 4.3689e-05 0)
(-0.000213446 4.25798e-05 0)
(-0.000228129 4.14079e-05 0)
(-0.000242505 4.01786e-05 -5.16433e-31)
(-0.000256549 3.88974e-05 0)
(-0.000270238 3.75702e-05 -9.58406e-31)
(-0.000283548 3.62029e-05 0)
(-0.000296461 3.48016e-05 0)
(-0.000308956 3.33724e-05 8.48065e-31)
(-0.000321018 3.19214e-05 0)
(-0.000332632 3.04547e-05 -7.71529e-31)
(-0.000343785 2.89784e-05 -3.70478e-31)
(-0.000354466 2.74981e-05 3.5122e-31)
(-0.000364667 2.60196e-05 -3.31991e-31)
(-0.000374381 2.45483e-05 -3.1286e-31)
(-0.000383604 2.30893e-05 0)
(-0.000392333 2.16474e-05 0)
(-0.000400567 2.02273e-05 2.56703e-31)
(-0.000408307 1.88331e-05 7.06137e-31)
(-0.000415556 1.74689e-05 0)
(-0.000422319 1.6138e-05 0)
(-0.000428601 1.48438e-05 1.86792e-31)
(-0.000434411 1.3589e-05 0)
(-0.000439757 1.23762e-05 0)
(-0.000444648 1.12076e-05 -1.39605e-31)
(-0.000449098 1.00848e-05 0)
(-0.000453117 9.00948e-06 -3.2259e-31)
(-0.000456719 7.98269e-06 -1.95565e-31)
(-0.000459919 7.0053e-06 0)
(-0.000462731 6.07784e-06 0)
(-0.000465171 5.20059e-06 2.24934e-31)
(-0.000467254 4.37353e-06 1.8198e-31)
(-0.000468998 3.5964e-06 1.41638e-31)
(-0.000470418 2.86869e-06 -1.6693e-31)
(-0.000471532 2.18969e-06 -4.54696e-32)
(-0.000472357 1.55845e-06 6.8287e-33)
(-0.000472909 9.73862e-07 -5.68744e-33)
(-0.000473206 4.34631e-07 6.2944e-35)
(-0.000473263 -6.06944e-08 0)
(-0.000473099 -5.13699e-07 2.44483e-32)
(-0.000472727 -9.26089e-07 1.2762e-31)
(-0.000472165 -1.29968e-06 0)
(-0.000471428 -1.63635e-06 0)
(-0.000470529 -1.93808e-06 0)
(-0.000469484 -2.20688e-06 6.81306e-32)
(-0.000468305 -2.4448e-06 0)
(-0.000467006 -2.65389e-06 1.81305e-31)
(-0.000465598 -2.83623e-06 0)
(-0.000464093 -2.99388e-06 1.98607e-31)
(-0.000462501 -3.12886e-06 0)
(-0.000460832 -3.24316e-06 -2.11187e-31)
(-0.000459095 -3.33872e-06 0)
(-0.000457299 -3.41741e-06 2.19862e-31)
(-0.000455451 -3.48104e-06 -3.23712e-31)
(-0.000453558 -3.53132e-06 0)
(-0.000451625 -3.5699e-06 -2.27209e-31)
(-0.000449659 -3.59832e-06 1.0363e-31)
(-0.000447663 -3.61804e-06 1.04093e-31)
(-0.000445642 -3.6304e-06 0)
(-0.0004436 -3.63666e-06 -3.34381e-31)
(-0.000441538 -3.63798e-06 1.04464e-31)
(-0.00043946 -3.63541e-06 0)
(-0.000437367 -3.62993e-06 -1.04157e-31)
(-0.00043526 -3.6224e-06 -2.28378e-31)
(-0.00043314 -3.6136e-06 0)
(-0.000431008 -3.60423e-06 1.03343e-31)
(-0.000428863 -3.59491e-06 0)
(-0.000426706 -3.58619e-06 1.22923e-31)
(-0.000424535 -3.57853e-06 0)
(-0.00042235 -3.57234e-06 -1.22257e-31)
(-0.000420149 -3.56799e-06 1.0215e-31)
(-0.000417931 -3.56576e-06 3.25853e-31)
(-0.000415696 -3.5659e-06 6.51201e-31)
(-0.000413439 -3.56864e-06 -6.51092e-31)
(-0.000411161 -3.57413e-06 0)
(-0.000408859 -3.58252e-06 0)
(-0.00040653 -3.59393e-06 0)
(-0.000404173 -3.60844e-06 2.43805e-31)
(-0.000401784 -3.62612e-06 -2.06438e-31)
(-0.000399362 -3.64703e-06 2.07404e-31)
(-0.000396903 -3.67122e-06 0)
(-0.000394406 -3.69872e-06 -6.66774e-31)
(-0.000391867 -3.72956e-06 -2.11317e-31)
(-0.000389283 -3.76376e-06 -2.12963e-31)
(-0.000386652 -3.80136e-06 0)
(-0.00038397 -3.84238e-06 0)
(-0.000381234 -3.88686e-06 0)
(-0.000378441 -3.93482e-06 -2.21295e-31)
(-0.000375588 -3.98632e-06 0)
(-0.000372671 -4.04141e-06 -4.88259e-31)
(-0.000369687 -4.10014e-06 -2.6434e-31)
(-0.000366632 -4.16261e-06 4.9965e-31)
(-0.000363501 -4.22888e-06 0)
(-0.000360292 -4.29908e-06 7.51833e-31)
(-0.000357 -4.37331e-06 0)
(-0.00035362 -4.45171e-06 5.27085e-31)
(-0.000350148 -4.53443e-06 -7.8594e-31)
(-0.000346579 -4.62166e-06 -7.98627e-31)
(-0.000342908 -4.71358e-06 0)
(-0.000339129 -4.81043e-06 -2.96732e-31)
(-0.000335238 -4.91244e-06 5.71251e-31)
(-0.000331227 -5.0199e-06 -2.75163e-31)
(-0.000327091 -5.13311e-06 0)
(-0.000322822 -5.25242e-06 -2.86787e-31)
(-0.000318414 -5.3782e-06 3.23151e-31)
(-0.000313858 -5.51087e-06 0)
(-0.000309147 -5.65091e-06 6.42679e-31)
(-0.00030427 -5.79882e-06 6.57052e-31)
(-0.00029922 -5.95518e-06 6.72265e-31)
(-0.000293984 -6.12062e-06 0)
(-0.000288553 -6.29584e-06 0)
(-0.000282914 -6.4816e-06 0)
(-0.000277053 -6.67878e-06 -1.10126e-30)
(-0.000270957 -6.88831e-06 3.68911e-31)
(-0.00026461 -7.11125e-06 0)
(-0.000257996 -7.34876e-06 -8.08572e-31)
(-0.000251095 -7.60215e-06 -8.33468e-31)
(-0.000243887 -7.87285e-06 0)
(-0.000236351 -8.16247e-06 8.66299e-31)
(-0.000228463 -8.47278e-06 -1.83843e-30)
(-0.000220195 -8.80576e-06 -9.31289e-31)
(-0.000211518 -9.16364e-06 2.94237e-30)
(-0.000202401 -9.54886e-06 0)
(-0.000192807 -9.96417e-06 0)
(-0.000182697 -1.04126e-05 0)
(-0.000172027 -1.08977e-05 -1.14304e-30)
(-0.00016075 -1.14232e-05 -3.61929e-30)
(-0.00014881 -1.19934e-05 -2.53638e-30)
(-0.00013615 -1.26131e-05 -1.31702e-30)
(-0.000122701 -1.32876e-05 -4.17964e-30)
(-0.000108389 -1.40229e-05 1.46017e-30)
(-9.31332e-05 -1.48258e-05 0)
(-7.68393e-05 -1.57037e-05 0)
(-5.94045e-05 -1.66651e-05 5.19744e-30)
(-4.0713e-05 -1.77193e-05 0)
(-2.06351e-05 -1.88767e-05 0)
(9.74282e-07 -2.01492e-05 -4.16638e-30)
(2.42781e-05 -2.15496e-05 0)
(4.9459e-05 -2.30926e-05 -7.13978e-30)
(7.67216e-05 -2.47941e-05 -2.5564e-30)
(0.000106296 -2.6672e-05 0)
(0.000138439 -2.8746e-05 -8.85142e-30)
(0.000173439 -3.10377e-05 0)
(0.000211619 -3.35706e-05 0)
(0.00025334 -3.63704e-05 -3.73669e-30)
(0.000299004 -3.94649e-05 -8.04819e-30)
(0.000349059 -4.28835e-05 -4.40108e-30)
(0.000404002 -4.66573e-05 0)
(0.000464384 -5.08185e-05 0)
(0.000530808 -5.53999e-05 -1.6934e-29)
(0.000603939 -6.04333e-05 0)
(0.000684496 -6.59489e-05 -2.01336e-29)
(0.000773255 -7.19728e-05 0)
(0.000871043 -7.85243e-05 0)
(0.000978728 -8.56128e-05 0)
(0.0010972 -9.32334e-05 9.53649e-30)
(0.00122737 -0.000101361 0)
(0.00137011 -0.000109941 -1.12383e-29)
(0.0015262 -0.000118884 0)
(0.00169632 -0.000128049 0)
(0.00188089 -0.000137222 -2.76663e-29)
(0.00208001 -0.000146091 2.94252e-29)
(0.00229322 -0.000154188 0)
(0.00251923 -0.000160776 0)
(0.00275536 -0.00016457 0)
(0.00299647 -0.000162941 -3.19975e-29)
(0.00323279 -0.000149041 0)
(0.00345072 -9.87374e-05 3.82298e-29)
(-8.08422e-06 8.50732e-05 -4.39721e-30)
(-2.43112e-05 8.48874e-05 5.78531e-34)
(-4.06189e-05 8.45511e-05 0)
(-5.69773e-05 8.40626e-05 -1.34971e-33)
(-7.33553e-05 8.34215e-05 0)
(-8.9721e-05 8.26283e-05 0)
(-0.000106042 8.16843e-05 4.21045e-30)
(-0.000122286 8.05923e-05 2.07748e-30)
(-0.000138421 7.93556e-05 -2.04148e-30)
(-0.000154413 7.79788e-05 2.00841e-30)
(-0.00017023 7.64673e-05 0)
(-0.000185841 7.48274e-05 0)
(-0.000201216 7.30661e-05 1.87446e-30)
(-0.000216324 7.11914e-05 3.64985e-30)
(-0.000231136 6.92118e-05 -3.54541e-30)
(-0.000245626 6.71362e-05 0)
(-0.000259768 6.49743e-05 -3.32228e-30)
(-0.000273539 6.2736e-05 -1.60877e-30)
(-0.000286914 6.04314e-05 0)
(-0.000299876 5.80709e-05 -2.9597e-30)
(-0.000312404 5.56648e-05 1.42415e-30)
(-0.000324484 5.32235e-05 2.70562e-30)
(-0.0003361 5.07574e-05 -1.29618e-30)
(-0.000347242 4.82765e-05 0)
(-0.000357898 4.57905e-05 -2.31661e-30)
(-0.000368062 4.3309e-05 -2.18687e-30)
(-0.000377726 4.08409e-05 0)
(-0.000386889 3.83949e-05 -1.93016e-30)
(-0.000395548 3.59791e-05 0)
(-0.000403703 3.36011e-05 -1.67994e-30)
(-0.000411356 3.12679e-05 7.88831e-31)
(-0.000418511 2.8986e-05 0)
(-0.000425174 2.67611e-05 0)
(-0.000431352 2.45987e-05 0)
(-0.000437052 2.25033e-05 0)
(-0.000442284 2.04791e-05 0)
(-0.000447061 1.85296e-05 0)
(-0.000451393 1.66576e-05 -7.97233e-31)
(-0.000455294 1.48656e-05 3.41268e-31)
(-0.000458779 1.31554e-05 0)
(-0.00046186 1.15283e-05 0)
(-0.000464556 9.98519e-06 0)
(-0.00046688 8.52637e-06 7.71376e-31)
(-0.00046885 7.15176e-06 3.2546e-31)
(-0.000470483 5.86086e-06 2.22162e-32)
(-0.000471795 4.65275e-06 -2.22779e-32)
(-0.000472804 3.52617e-06 1.15323e-31)
(-0.000473528 2.4795e-06 8.34681e-32)
(-0.000473983 1.5108e-06 -4.43093e-32)
(-0.000474186 6.17875e-07 3.52277e-32)