/*--------------------------------*- C++ -*----------------------------------*\
  =========                 |
  \\      /  F ield         | OpenFOAM: The Open Source CFD Toolbox
   \\    /   O peration     | Website:  https://openfoam.org
    \\  /    A nd           | Version:  10
     \\/     M anipulation  |
\*---------------------------------------------------------------------------*/
FoamFile
{
    format      ascii;
    class       volScalarField;
    location    "0.2";
    object      p;
}
// * * * * * * * * * * * * * * * * * * * * * * * * * * * * * * * * * * * * * //

dimensions      [1 -1 -2 0 0 0 0];

internalField   nonuniform List<scalar> 
12225
(
2.19058e+07
2.19055e+07
2.1905e+07
2.19042e+07
2.19033e+07
2.19021e+07
2.19009e+07
2.18994e+07
2.18979e+07
2.18964e+07
2.18948e+07
2.18931e+07
2.18915e+07
2.18899e+07
2.18883e+07
2.18866e+07
2.18848e+07
2.18823e+07
2.19058e+07
2.19055e+07
2.1905e+07
2.19042e+07
2.19033e+07
2.19022e+07
2.19009e+07
2.18995e+07
2.1898e+07
2.18964e+07
2.18948e+07
2.18931e+07
2.18915e+07
2.18899e+07
2.18883e+07
2.18867e+07
2.18849e+07
2.18826e+07
2.19058e+07
2.19056e+07
2.1905e+07
2.19043e+07
2.19033e+07
2.19022e+07
2.19009e+07
2.18995e+07
2.1898e+07
2.18964e+07
2.18948e+07
2.18931e+07
2.18915e+07
2.18899e+07
2.18884e+07
2.18868e+07
2.1885e+07
2.18831e+07
2.19059e+07
2.19056e+07
2.19051e+07
2.19043e+07
2.19034e+07
2.19022e+07
2.19009e+07
2.18995e+07
2.1898e+07
2.18964e+07
2.18948e+07
2.18932e+07
2.18915e+07
2.189e+07
2.18884e+07
2.18869e+07
2.18853e+07
2.18837e+07
2.19059e+07
2.19057e+07
2.19051e+07
2.19044e+07
2.19034e+07
2.19023e+07
2.1901e+07
2.18996e+07
2.18981e+07
2.18965e+07
2.18948e+07
2.18932e+07
2.18916e+07
2.189e+07
2.18885e+07
2.1887e+07
2.18856e+07
2.18843e+07
2.1906e+07
2.19057e+07
2.19052e+07
2.19045e+07
2.19035e+07
2.19024e+07
2.19011e+07
2.18997e+07
2.18981e+07
2.18965e+07
2.18949e+07
2.18932e+07
2.18916e+07
2.189e+07
2.18885e+07
2.18872e+07
2.18859e+07
2.18849e+07
2.19061e+07
2.19059e+07
2.19053e+07
2.19046e+07
2.19036e+07
2.19025e+07
2.19012e+07
2.18998e+07
2.18982e+07
2.18966e+07
2.1895e+07
2.18933e+07
2.18916e+07
2.18901e+07
2.18886e+07
2.18873e+07
2.18862e+07
2.18854e+07
2.19063e+07
2.1906e+07
2.19055e+07
2.19048e+07
2.19038e+07
2.19027e+07
2.19014e+07
2.18999e+07
2.18984e+07
2.18967e+07
2.18951e+07
2.18933e+07
2.18917e+07
2.18901e+07
2.18886e+07
2.18874e+07
2.18865e+07
2.18859e+07
2.19065e+07
2.19062e+07
2.19057e+07
2.1905e+07
2.1904e+07
2.19029e+07
2.19016e+07
2.19001e+07
2.18986e+07
2.18969e+07
2.18952e+07
2.18934e+07
2.18917e+07
2.18901e+07
2.18886e+07
2.18874e+07
2.18866e+07
2.18862e+07
2.19067e+07
2.19065e+07
2.1906e+07
2.19052e+07
2.19043e+07
2.19031e+07
2.19018e+07
2.19004e+07
2.18988e+07
2.18971e+07
2.18953e+07
2.18935e+07
2.18917e+07
2.189e+07
2.18885e+07
2.18873e+07
2.18865e+07
2.18862e+07
2.1907e+07
2.19068e+07
2.19063e+07
2.19055e+07
2.19046e+07
2.19035e+07
2.19022e+07
2.19007e+07
2.18991e+07
2.18974e+07
2.18955e+07
2.18936e+07
2.18917e+07
2.18899e+07
2.18883e+07
2.1887e+07
2.18861e+07
2.1886e+07
2.19074e+07
2.19071e+07
2.19066e+07
2.19059e+07
2.1905e+07
2.19039e+07
2.19026e+07
2.19011e+07
2.18995e+07
2.18977e+07
2.18958e+07
2.18938e+07
2.18918e+07
2.18898e+07
2.18879e+07
2.18864e+07
2.18854e+07
2.18853e+07
2.19078e+07
2.19075e+07
2.1907e+07
2.19063e+07
2.19054e+07
2.19043e+07
2.1903e+07
2.19015e+07
2.18999e+07
2.18981e+07
2.18961e+07
2.1894e+07
2.18918e+07
2.18896e+07
2.18874e+07
2.18856e+07
2.18843e+07
2.1884e+07
2.19083e+07
2.19081e+07
2.19076e+07
2.19069e+07
2.19061e+07
2.1905e+07
2.19037e+07
2.19022e+07
2.19005e+07
2.18986e+07
2.18966e+07
2.18943e+07
2.18919e+07
2.18893e+07
2.18867e+07
2.18842e+07
2.18822e+07
2.18813e+07
2.1909e+07
2.19088e+07
2.19084e+07
2.19078e+07
2.19069e+07
2.19059e+07
2.19046e+07
2.19031e+07
2.19014e+07
2.18995e+07
2.18974e+07
2.1895e+07
2.18923e+07
2.18892e+07
2.18858e+07
2.18821e+07
2.18782e+07
2.18754e+07
2.191e+07
2.19099e+07
2.19095e+07
2.19089e+07
2.19081e+07
2.19071e+07
2.19059e+07
2.19045e+07
2.19028e+07
2.19009e+07
2.18987e+07
2.18962e+07
2.18933e+07
2.18898e+07
2.18854e+07
2.18798e+07
2.1872e+07
2.18604e+07
2.72772e+07
2.71372e+07
2.70198e+07
2.6911e+07
2.68063e+07
2.67045e+07
2.6605e+07
2.65079e+07
2.6413e+07
2.63204e+07
2.623e+07
2.61419e+07
2.6056e+07
2.5972e+07
2.58899e+07
2.58093e+07
2.57297e+07
2.56504e+07
2.71977e+07
2.71141e+07
2.70132e+07
2.691e+07
2.68086e+07
2.67092e+07
2.66116e+07
2.65157e+07
2.64217e+07
2.63298e+07
2.62401e+07
2.61527e+07
2.60679e+07
2.59858e+07
2.59067e+07
2.5831e+07
2.57593e+07
2.56925e+07
2.70728e+07
2.70256e+07
2.6954e+07
2.68708e+07
2.67822e+07
2.66913e+07
2.65996e+07
2.65082e+07
2.64177e+07
2.63286e+07
2.62413e+07
2.61562e+07
2.60736e+07
2.59938e+07
2.5917e+07
2.58435e+07
2.57738e+07
2.57079e+07
2.69744e+07
2.69413e+07
2.6886e+07
2.68168e+07
2.67392e+07
2.66566e+07
2.65713e+07
2.64847e+07
2.6398e+07
2.63117e+07
2.62266e+07
2.6143e+07
2.60613e+07
2.59818e+07
2.59046e+07
2.58298e+07
2.57577e+07
2.56878e+07
2.69071e+07
2.68801e+07
2.6833e+07
2.67717e+07
2.67008e+07
2.66237e+07
2.65427e+07
2.64594e+07
2.63751e+07
2.62906e+07
2.62066e+07
2.61234e+07
2.60415e+07
2.59609e+07
2.58818e+07
2.58031e+07
2.57268e+07
2.56385e+07
2.68561e+07
2.68324e+07
2.67899e+07
2.67334e+07
2.66668e+07
2.65932e+07
2.6515e+07
2.64338e+07
2.63508e+07
2.6267e+07
2.61831e+07
2.60992e+07
2.60157e+07
2.59313e+07
2.5847e+07
2.5745e+07
2.56767e+07
2.562e+07
2.68174e+07
2.67954e+07
2.67556e+07
2.67019e+07
2.66378e+07
2.65662e+07
2.64895e+07
2.64091e+07
2.63265e+07
2.62422e+07
2.61572e+07
2.60697e+07
2.59819e+07
2.58758e+07
2.58034e+07
2.57403e+07
2.56788e+07
2.56205e+07
2.6788e+07
2.6767e+07
2.67286e+07
2.66763e+07
2.66133e+07
2.65427e+07
2.64663e+07
2.63856e+07
2.63024e+07
2.62148e+07
2.61269e+07
2.60209e+07
2.59415e+07
2.58721e+07
2.58046e+07
2.57406e+07
2.56793e+07
2.56207e+07
2.67658e+07
2.67451e+07
2.67073e+07
2.66555e+07
2.65926e+07
2.65218e+07
2.64448e+07
2.63615e+07
2.62762e+07
2.61743e+07
2.60895e+07
2.60148e+07
2.59415e+07
2.58718e+07
2.58048e+07
2.57408e+07
2.56795e+07
2.56207e+07
2.67488e+07
2.6728e+07
2.66901e+07
2.66381e+07
2.65739e+07
2.65018e+07
2.64223e+07
2.63287e+07
2.62444e+07
2.61662e+07
2.60882e+07
2.60135e+07
2.59411e+07
2.58715e+07
2.58048e+07
2.57408e+07
2.56795e+07
2.56206e+07
2.67353e+07
2.67138e+07
2.66751e+07
2.66221e+07
2.65538e+07
2.64762e+07
2.63992e+07
2.63214e+07
2.62419e+07
2.6164e+07
2.60871e+07
2.60127e+07
2.59406e+07
2.58713e+07
2.58047e+07
2.57408e+07
2.56794e+07
2.56205e+07
2.6723e+07
2.66995e+07
2.66583e+07
2.66046e+07
2.6542e+07
2.64712e+07
2.63961e+07
2.63188e+07
2.62402e+07
2.61626e+07
2.60863e+07
2.60121e+07
2.59404e+07
2.58712e+07
2.58047e+07
2.57408e+07
2.56794e+07
2.56205e+07
2.67141e+07
2.66929e+07
2.6654e+07
2.66015e+07
2.65393e+07
2.64691e+07
2.63944e+07
2.63174e+07
2.62393e+07
2.61619e+07
2.60859e+07
2.60119e+07
2.59402e+07
2.58711e+07
2.58046e+07
2.57407e+07
2.56794e+07
2.56204e+07
2.67124e+07
2.66914e+07
2.66526e+07
2.66003e+07
2.65382e+07
2.64682e+07
2.63937e+07
2.63168e+07
2.62389e+07
2.61616e+07
2.60857e+07
2.60117e+07
2.59401e+07
2.58711e+07
2.58046e+07
2.57407e+07
2.56794e+07
2.56204e+07
2.17773e+07
2.17772e+07
2.17769e+07
2.17766e+07
2.17761e+07
2.17755e+07
2.17748e+07
2.17739e+07
2.17729e+07
2.17718e+07
2.17705e+07
2.1769e+07
2.17674e+07
2.17656e+07
2.17637e+07
2.17616e+07
2.17593e+07
2.17568e+07
2.17541e+07
2.17512e+07
2.17481e+07
2.17448e+07
2.17413e+07
2.17375e+07
2.17334e+07
2.17291e+07
2.17246e+07
2.17197e+07
2.17146e+07
2.17091e+07
2.17034e+07
2.16973e+07
2.16909e+07
2.16841e+07
2.16769e+07
2.16694e+07
2.16614e+07
2.16531e+07
2.16443e+07
2.16351e+07
2.16254e+07
2.16153e+07
2.16047e+07
2.15935e+07
2.15819e+07
2.15697e+07
2.1557e+07
2.15437e+07
2.15299e+07
2.15155e+07
2.15004e+07
2.14848e+07
2.14685e+07
2.14516e+07
2.14341e+07
2.14159e+07
2.1397e+07
2.13775e+07
2.13573e+07
2.13364e+07
2.13148e+07
2.12925e+07
2.12696e+07
2.12459e+07
2.12215e+07
2.11964e+07
2.11706e+07
2.11441e+07
2.11169e+07
2.1089e+07
2.10603e+07
2.1031e+07
2.1001e+07
2.09703e+07
2.09389e+07
2.09068e+07
2.08741e+07
2.08407e+07
2.08066e+07
2.07718e+07
2.07364e+07
2.07004e+07
2.06637e+07
2.06264e+07
2.05884e+07
2.05499e+07
2.05107e+07
2.04709e+07
2.04306e+07
2.03896e+07
2.03481e+07
2.03059e+07
2.02632e+07
2.022e+07
2.01761e+07
2.01318e+07
2.00868e+07
2.00414e+07
1.99954e+07
1.99488e+07
1.99018e+07
1.98542e+07
1.9806e+07
1.97574e+07
1.97082e+07
1.96586e+07
1.96084e+07
1.95577e+07
1.95066e+07
1.94549e+07
1.94027e+07
1.935e+07
1.92969e+07
1.92432e+07
1.9189e+07
1.91344e+07
1.90792e+07
1.90236e+07
1.89675e+07
1.89108e+07
1.88537e+07
1.87961e+07
1.8738e+07
1.86794e+07
1.86203e+07
1.85607e+07
1.85006e+07
1.84401e+07
1.8379e+07
1.83174e+07
1.82553e+07
1.81927e+07
1.81296e+07
1.80659e+07
1.80018e+07
1.79371e+07
1.7872e+07
1.78063e+07
1.77401e+07
1.76733e+07
1.7606e+07
1.75382e+07
1.74699e+07
1.7401e+07
1.73315e+07
1.72615e+07
1.7191e+07
1.71199e+07
1.70482e+07
1.6976e+07
1.69033e+07
1.68299e+07
1.6756e+07
1.66815e+07
1.66064e+07
1.65307e+07
1.64545e+07
1.63776e+07
1.63002e+07
1.62221e+07
1.61434e+07
1.60642e+07
1.59843e+07
1.59038e+07
1.58227e+07
1.5741e+07
1.56587e+07
1.55757e+07
1.54921e+07
1.54079e+07
1.53232e+07
1.52378e+07
1.51519e+07
1.50654e+07
1.49784e+07
1.4891e+07
1.48033e+07
1.47154e+07
1.46276e+07
1.45408e+07
2.17778e+07
2.17777e+07
2.17774e+07
2.17771e+07
2.17766e+07
2.1776e+07
2.17753e+07
2.17744e+07
2.17734e+07
2.17723e+07
2.1771e+07
2.17696e+07
2.1768e+07
2.17662e+07
2.17643e+07
2.17622e+07
2.17599e+07
2.17574e+07
2.17547e+07
2.17519e+07
2.17488e+07
2.17455e+07
2.17419e+07
2.17382e+07
2.17341e+07
2.17298e+07
2.17253e+07
2.17205e+07
2.17153e+07
2.17099e+07
2.17042e+07
2.16981e+07
2.16917e+07
2.16849e+07
2.16778e+07
2.16702e+07
2.16623e+07
2.1654e+07
2.16452e+07
2.1636e+07
2.16263e+07
2.16162e+07
2.16056e+07
2.15945e+07
2.15828e+07
2.15707e+07
2.1558e+07
2.15447e+07
2.15309e+07
2.15164e+07
2.15014e+07
2.14858e+07
2.14695e+07
2.14526e+07
2.1435e+07
2.14168e+07
2.1398e+07
2.13784e+07
2.13582e+07
2.13373e+07
2.13157e+07
2.12934e+07
2.12704e+07
2.12467e+07
2.12223e+07
2.11972e+07
2.11714e+07
2.11448e+07
2.11176e+07
2.10896e+07
2.1061e+07
2.10317e+07
2.10016e+07
2.09709e+07
2.09395e+07
2.09074e+07
2.08746e+07
2.08412e+07
2.08071e+07
2.07723e+07
2.07369e+07
2.07008e+07
2.06641e+07
2.06268e+07
2.05888e+07
2.05502e+07
2.0511e+07
2.04712e+07
2.04308e+07
2.03899e+07
2.03483e+07
2.03062e+07
2.02635e+07
2.02202e+07
2.01763e+07
2.01319e+07
2.0087e+07
2.00415e+07
1.99955e+07
1.9949e+07
1.99019e+07
1.98543e+07
1.98061e+07
1.97575e+07
1.97083e+07
1.96587e+07
1.96085e+07
1.95578e+07
1.95066e+07
1.94549e+07
1.94028e+07
1.93501e+07
1.92969e+07
1.92432e+07
1.91891e+07
1.91344e+07
1.90793e+07
1.90236e+07
1.89675e+07
1.89109e+07
1.88537e+07
1.87961e+07
1.8738e+07
1.86794e+07
1.86203e+07
1.85607e+07
1.85007e+07
1.84401e+07
1.8379e+07
1.83174e+07
1.82553e+07
1.81927e+07
1.81296e+07
1.80659e+07
1.80018e+07
1.79371e+07
1.7872e+07
1.78063e+07
1.774e+07
1.76733e+07
1.7606e+07
1.75382e+07
1.74698e+07
1.7401e+07
1.73315e+07
1.72615e+07
1.7191e+07
1.71199e+07
1.70482e+07
1.6976e+07
1.69032e+07
1.68299e+07
1.6756e+07
1.66815e+07
1.66064e+07
1.65307e+07
1.64545e+07
1.63776e+07
1.63001e+07
1.62221e+07
1.61434e+07
1.60642e+07
1.59843e+07
1.59038e+07
1.58227e+07
1.5741e+07
1.56586e+07
1.55757e+07
1.54921e+07
1.54079e+07
1.53231e+07
1.52378e+07
1.51518e+07
1.50653e+07
1.49783e+07
1.48909e+07
1.48031e+07
1.47152e+07
1.46273e+07
1.454e+07
2.17788e+07
2.17787e+07
2.17785e+07
2.17781e+07
2.17777e+07
2.17771e+07
2.17763e+07
2.17755e+07
2.17745e+07
2.17734e+07
2.17721e+07
2.17707e+07
2.17691e+07
2.17673e+07
2.17654e+07
2.17633e+07
2.17611e+07
2.17586e+07
2.1756e+07
2.17531e+07
2.17501e+07
2.17468e+07
2.17433e+07
2.17395e+07
2.17355e+07
2.17313e+07
2.17267e+07
2.17219e+07
2.17168e+07
2.17114e+07
2.17057e+07
2.16997e+07
2.16933e+07
2.16866e+07
2.16794e+07
2.16719e+07
2.16641e+07
2.16557e+07
2.1647e+07
2.16378e+07
2.16282e+07
2.16181e+07
2.16075e+07
2.15964e+07
2.15848e+07
2.15726e+07
2.15599e+07
2.15467e+07
2.15328e+07
2.15184e+07
2.15033e+07
2.14877e+07
2.14714e+07
2.14545e+07
2.14369e+07
2.14187e+07
2.13998e+07
2.13803e+07
2.136e+07
2.13391e+07
2.13175e+07
2.12951e+07
2.12721e+07
2.12483e+07
2.12239e+07
2.11987e+07
2.11729e+07
2.11463e+07
2.1119e+07
2.1091e+07
2.10623e+07
2.1033e+07
2.10029e+07
2.09721e+07
2.09406e+07
2.09085e+07
2.08757e+07
2.08422e+07
2.0808e+07
2.07732e+07
2.07377e+07
2.07016e+07
2.06649e+07
2.06275e+07
2.05895e+07
2.05509e+07
2.05117e+07
2.04718e+07
2.04314e+07
2.03904e+07
2.03488e+07
2.03066e+07
2.02639e+07
2.02206e+07
2.01767e+07
2.01323e+07
2.00874e+07
2.00418e+07
1.99958e+07
1.99492e+07
1.99021e+07
1.98545e+07
1.98064e+07
1.97577e+07
1.97085e+07
1.96588e+07
1.96087e+07
1.9558e+07
1.95068e+07
1.94551e+07
1.94029e+07
1.93502e+07
1.9297e+07
1.92433e+07
1.91892e+07
1.91345e+07
1.90793e+07
1.90237e+07
1.89675e+07
1.89109e+07
1.88538e+07
1.87962e+07
1.87381e+07
1.86795e+07
1.86204e+07
1.85608e+07
1.85007e+07
1.84401e+07
1.8379e+07
1.83174e+07
1.82553e+07
1.81927e+07
1.81296e+07
1.80659e+07
1.80018e+07
1.79372e+07
1.7872e+07
1.78063e+07
1.77401e+07
1.76733e+07
1.7606e+07
1.75382e+07
1.74698e+07
1.74009e+07
1.73315e+07
1.72615e+07
1.7191e+07
1.71199e+07
1.70482e+07
1.6976e+07
1.69032e+07
1.68299e+07
1.6756e+07
1.66815e+07
1.66064e+07
1.65307e+07
1.64544e+07
1.63776e+07
1.63001e+07
1.62221e+07
1.61434e+07
1.60642e+07
1.59843e+07
1.59038e+07
1.58227e+07
1.5741e+07
1.56586e+07
1.55757e+07
1.54921e+07
1.54079e+07
1.53231e+07
1.52377e+07
1.51517e+07
1.50652e+07
1.49782e+07
1.48908e+07
1.48029e+07
1.47148e+07
1.46267e+07
1.45389e+07
2.17804e+07
2.17802e+07
2.178e+07
2.17797e+07
2.17792e+07
2.17786e+07
2.17779e+07
2.17771e+07
2.17761e+07
2.1775e+07
2.17737e+07
2.17723e+07
2.17707e+07
2.1769e+07
2.17671e+07
2.17651e+07
2.17628e+07
2.17604e+07
2.17578e+07
2.1755e+07
2.1752e+07
2.17487e+07
2.17453e+07
2.17415e+07
2.17376e+07
2.17334e+07
2.17289e+07
2.17241e+07
2.17191e+07
2.17137e+07
2.17081e+07
2.17021e+07
2.16957e+07
2.1689e+07
2.1682e+07
2.16745e+07
2.16667e+07
2.16584e+07
2.16497e+07
2.16406e+07
2.1631e+07
2.16209e+07
2.16103e+07
2.15993e+07
2.15877e+07
2.15755e+07
2.15628e+07
2.15496e+07
2.15358e+07
2.15213e+07
2.15063e+07
2.14906e+07
2.14743e+07
2.14574e+07
2.14398e+07
2.14216e+07
2.14027e+07
2.13831e+07
2.13628e+07
2.13418e+07
2.13201e+07
2.12977e+07
2.12746e+07
2.12508e+07
2.12263e+07
2.12011e+07
2.11752e+07
2.11485e+07
2.11212e+07
2.10931e+07
2.10644e+07
2.10349e+07
2.10047e+07
2.09739e+07
2.09424e+07
2.09101e+07
2.08772e+07
2.08437e+07
2.08095e+07
2.07746e+07
2.07391e+07
2.07029e+07
2.06661e+07
2.06286e+07
2.05906e+07
2.05519e+07
2.05126e+07
2.04727e+07
2.04323e+07
2.03912e+07
2.03496e+07
2.03073e+07
2.02646e+07
2.02212e+07
2.01773e+07
2.01329e+07
2.00879e+07
2.00423e+07
1.99963e+07
1.99497e+07
1.99025e+07
1.98549e+07
1.98067e+07
1.9758e+07
1.97088e+07
1.96591e+07
1.96089e+07
1.95582e+07
1.9507e+07
1.94553e+07
1.94031e+07
1.93504e+07
1.92972e+07
1.92435e+07
1.91893e+07
1.91346e+07
1.90794e+07
1.90238e+07
1.89676e+07
1.8911e+07
1.88539e+07
1.87962e+07
1.87381e+07
1.86795e+07
1.86204e+07
1.85608e+07
1.85007e+07
1.84401e+07
1.8379e+07
1.83174e+07
1.82553e+07
1.81927e+07
1.81296e+07
1.8066e+07
1.80018e+07
1.79372e+07
1.7872e+07
1.78063e+07
1.77401e+07
1.76733e+07
1.7606e+07
1.75382e+07
1.74698e+07
1.74009e+07
1.73315e+07
1.72615e+07
1.7191e+07
1.71199e+07
1.70482e+07
1.6976e+07
1.69032e+07
1.68299e+07
1.6756e+07
1.66815e+07
1.66064e+07
1.65307e+07
1.64544e+07
1.63776e+07
1.63001e+07
1.62221e+07
1.61434e+07
1.60641e+07
1.59843e+07
1.59038e+07
1.58227e+07
1.57409e+07
1.56586e+07
1.55756e+07
1.5492e+07
1.54078e+07
1.5323e+07
1.52376e+07
1.51517e+07
1.50651e+07
1.49781e+07
1.48905e+07
1.48026e+07
1.47144e+07
1.4626e+07
1.45375e+07
2.17824e+07
2.17823e+07
2.17821e+07
2.17817e+07
2.17813e+07
2.17807e+07
2.178e+07
2.17792e+07
2.17782e+07
2.17771e+07
2.17759e+07
2.17745e+07
2.1773e+07
2.17713e+07
2.17694e+07
2.17674e+07
2.17652e+07
2.17628e+07
2.17603e+07
2.17575e+07
2.17545e+07
2.17513e+07
2.17479e+07
2.17443e+07
2.17404e+07
2.17362e+07
2.17318e+07
2.17271e+07
2.17221e+07
2.17168e+07
2.17112e+07
2.17053e+07
2.1699e+07
2.16924e+07
2.16854e+07
2.1678e+07
2.16702e+07
2.1662e+07
2.16534e+07
2.16443e+07
2.16347e+07
2.16247e+07
2.16142e+07
2.16031e+07
2.15915e+07
2.15794e+07
2.15668e+07
2.15535e+07
2.15397e+07
2.15253e+07
2.15102e+07
2.14946e+07
2.14783e+07
2.14613e+07
2.14437e+07
2.14254e+07
2.14064e+07
2.13868e+07
2.13665e+07
2.13454e+07
2.13237e+07
2.13012e+07
2.1278e+07
2.12542e+07
2.12296e+07
2.12043e+07
2.11782e+07
2.11515e+07
2.11241e+07
2.10959e+07
2.10671e+07
2.10375e+07
2.10072e+07
2.09763e+07
2.09447e+07
2.09124e+07
2.08794e+07
2.08457e+07
2.08114e+07
2.07764e+07
2.07408e+07
2.07045e+07
2.06677e+07
2.06301e+07
2.0592e+07
2.05533e+07
2.05139e+07
2.04739e+07
2.04334e+07
2.03923e+07
2.03506e+07
2.03083e+07
2.02655e+07
2.02221e+07
2.01781e+07
2.01336e+07
2.00886e+07
2.0043e+07
1.99969e+07
1.99502e+07
1.9903e+07
1.98554e+07
1.98072e+07
1.97584e+07
1.97092e+07
1.96595e+07
1.96092e+07
1.95585e+07
1.95073e+07
1.94555e+07
1.94033e+07
1.93506e+07
1.92974e+07
1.92437e+07
1.91895e+07
1.91348e+07
1.90796e+07
1.90239e+07
1.89678e+07
1.89111e+07
1.8854e+07
1.87963e+07
1.87382e+07
1.86796e+07
1.86205e+07
1.85609e+07
1.85008e+07
1.84402e+07
1.83791e+07
1.83175e+07
1.82554e+07
1.81927e+07
1.81296e+07
1.8066e+07
1.80018e+07
1.79372e+07
1.7872e+07
1.78063e+07
1.77401e+07
1.76733e+07
1.7606e+07
1.75382e+07
1.74698e+07
1.7401e+07
1.73315e+07
1.72615e+07
1.7191e+07
1.71199e+07
1.70482e+07
1.6976e+07
1.69032e+07
1.68299e+07
1.6756e+07
1.66814e+07
1.66064e+07
1.65307e+07
1.64544e+07
1.63776e+07
1.63001e+07
1.62221e+07
1.61434e+07
1.60641e+07
1.59843e+07
1.59038e+07
1.58226e+07
1.57409e+07
1.56586e+07
1.55756e+07
1.5492e+07
1.54078e+07
1.5323e+07
1.52375e+07
1.51515e+07
1.5065e+07
1.49779e+07
1.48903e+07
1.48022e+07
1.47138e+07
1.46251e+07
1.45361e+07
2.17849e+07
2.17848e+07
2.17846e+07
2.17843e+07
2.17838e+07
2.17833e+07
2.17826e+07
2.17818e+07
2.17808e+07
2.17798e+07
2.17786e+07
2.17772e+07
2.17757e+07
2.17741e+07
2.17723e+07
2.17703e+07
2.17682e+07
2.17658e+07
2.17633e+07
2.17606e+07
2.17577e+07
2.17546e+07
2.17512e+07
2.17477e+07
2.17438e+07
2.17398e+07
2.17354e+07
2.17308e+07
2.17259e+07
2.17207e+07
2.17152e+07
2.17093e+07
2.17031e+07
2.16966e+07
2.16896e+07
2.16823e+07
2.16746e+07
2.16665e+07
2.16579e+07
2.16489e+07
2.16394e+07
2.16294e+07
2.16189e+07
2.16079e+07
2.15964e+07
2.15843e+07
2.15717e+07
2.15585e+07
2.15447e+07
2.15302e+07
2.15152e+07
2.14995e+07
2.14832e+07
2.14662e+07
2.14486e+07
2.14302e+07
2.14112e+07
2.13915e+07
2.13711e+07
2.135e+07
2.13281e+07
2.13056e+07
2.12823e+07
2.12583e+07
2.12336e+07
2.12082e+07
2.11821e+07
2.11552e+07
2.11277e+07
2.10994e+07
2.10704e+07
2.10407e+07
2.10104e+07
2.09793e+07
2.09475e+07
2.09151e+07
2.0882e+07
2.08482e+07
2.08138e+07
2.07787e+07
2.0743e+07
2.07066e+07
2.06696e+07
2.0632e+07
2.05938e+07
2.05549e+07
2.05155e+07
2.04754e+07
2.04348e+07
2.03936e+07
2.03518e+07
2.03095e+07
2.02666e+07
2.02231e+07
2.01791e+07
2.01345e+07
2.00894e+07
2.00438e+07
1.99976e+07
1.99509e+07
1.99037e+07
1.9856e+07
1.98077e+07
1.9759e+07
1.97097e+07
1.96599e+07
1.96097e+07
1.95589e+07
1.95076e+07
1.94559e+07
1.94036e+07
1.93509e+07
1.92976e+07
1.92439e+07
1.91897e+07
1.9135e+07
1.90798e+07
1.90241e+07
1.89679e+07
1.89113e+07
1.88541e+07
1.87965e+07
1.87383e+07
1.86797e+07
1.86206e+07
1.8561e+07
1.85009e+07
1.84402e+07
1.83791e+07
1.83175e+07
1.82554e+07
1.81928e+07
1.81297e+07
1.8066e+07
1.80019e+07
1.79372e+07
1.7872e+07
1.78063e+07
1.77401e+07
1.76733e+07
1.7606e+07
1.75382e+07
1.74699e+07
1.7401e+07
1.73315e+07
1.72615e+07
1.7191e+07
1.71199e+07
1.70482e+07
1.6976e+07
1.69032e+07
1.68299e+07
1.67559e+07
1.66814e+07
1.66064e+07
1.65307e+07
1.64544e+07
1.63776e+07
1.63001e+07
1.6222e+07
1.61434e+07
1.60641e+07
1.59842e+07
1.59037e+07
1.58226e+07
1.57409e+07
1.56585e+07
1.55755e+07
1.54919e+07
1.54077e+07
1.53229e+07
1.52374e+07
1.51514e+07
1.50648e+07
1.49776e+07
1.48899e+07
1.48017e+07
1.47131e+07
1.46241e+07
1.45347e+07
2.17879e+07
2.17878e+07
2.17876e+07
2.17873e+07
2.17869e+07
2.17863e+07
2.17857e+07
2.17849e+07
2.1784e+07
2.17829e+07
2.17818e+07
2.17805e+07
2.1779e+07
2.17774e+07
2.17757e+07
2.17738e+07
2.17717e+07
2.17694e+07
2.1767e+07
2.17643e+07
2.17615e+07
2.17585e+07
2.17552e+07
2.17517e+07
2.1748e+07
2.1744e+07
2.17397e+07
2.17352e+07
2.17304e+07
2.17253e+07
2.17199e+07
2.17141e+07
2.1708e+07
2.17016e+07
2.16948e+07
2.16875e+07
2.16799e+07
2.16719e+07
2.16634e+07
2.16544e+07
2.1645e+07
2.16351e+07
2.16247e+07
2.16138e+07
2.16023e+07
2.15903e+07
2.15777e+07
2.15645e+07
2.15507e+07
2.15362e+07
2.15212e+07
2.15055e+07
2.14891e+07
2.14721e+07
2.14544e+07
2.1436e+07
2.14169e+07
2.13971e+07
2.13766e+07
2.13554e+07
2.13335e+07
2.13108e+07
2.12875e+07
2.12634e+07
2.12385e+07
2.1213e+07
2.11867e+07
2.11597e+07
2.1132e+07
2.11036e+07
2.10745e+07
2.10446e+07
2.10141e+07
2.09829e+07
2.0951e+07
2.09184e+07
2.08852e+07
2.08513e+07
2.08167e+07
2.07815e+07
2.07456e+07
2.07091e+07
2.0672e+07
2.06343e+07
2.05959e+07
2.05569e+07
2.05174e+07
2.04772e+07
2.04365e+07
2.03952e+07
2.03533e+07
2.03109e+07
2.02679e+07
2.02243e+07
2.01802e+07
2.01356e+07
2.00904e+07
2.00447e+07
1.99985e+07
1.99518e+07
1.99045e+07
1.98567e+07
1.98084e+07
1.97596e+07
1.97103e+07
1.96605e+07
1.96102e+07
1.95594e+07
1.95081e+07
1.94563e+07
1.9404e+07
1.93512e+07
1.9298e+07
1.92442e+07
1.919e+07
1.91352e+07
1.908e+07
1.90243e+07
1.89681e+07
1.89114e+07
1.88543e+07
1.87966e+07
1.87385e+07
1.86798e+07
1.86207e+07
1.85611e+07
1.85009e+07
1.84403e+07
1.83792e+07
1.83176e+07
1.82555e+07
1.81928e+07
1.81297e+07
1.80661e+07
1.80019e+07
1.79372e+07
1.78721e+07
1.78063e+07
1.77401e+07
1.76733e+07
1.76061e+07
1.75382e+07
1.74699e+07
1.7401e+07
1.73315e+07
1.72615e+07
1.7191e+07
1.71199e+07
1.70482e+07
1.6976e+07
1.69032e+07
1.68299e+07
1.67559e+07
1.66814e+07
1.66063e+07
1.65307e+07
1.64544e+07
1.63776e+07
1.63001e+07
1.6222e+07
1.61434e+07
1.60641e+07
1.59842e+07
1.59037e+07
1.58226e+07
1.57408e+07
1.56585e+07
1.55755e+07
1.54919e+07
1.54076e+07
1.53228e+07
1.52373e+07
1.51512e+07
1.50646e+07
1.49773e+07
1.48895e+07
1.48012e+07
1.47124e+07
1.46231e+07
1.45332e+07
2.17914e+07
2.17913e+07
2.17911e+07
2.17908e+07
2.17904e+07
2.17898e+07
2.17892e+07
2.17885e+07
2.17876e+07
2.17866e+07
2.17855e+07
2.17842e+07
2.17828e+07
2.17813e+07
2.17796e+07
2.17778e+07
2.17757e+07
2.17736e+07
2.17712e+07
2.17687e+07
2.17659e+07
2.1763e+07
2.17598e+07
2.17564e+07
2.17528e+07
2.17489e+07
2.17448e+07
2.17404e+07
2.17357e+07
2.17307e+07
2.17254e+07
2.17198e+07
2.17138e+07
2.17075e+07
2.17008e+07
2.16937e+07
2.16861e+07
2.16782e+07
2.16698e+07
2.1661e+07
2.16517e+07
2.16418e+07
2.16315e+07
2.16206e+07
2.16092e+07
2.15972e+07
2.15847e+07
2.15715e+07
2.15577e+07
2.15433e+07
2.15282e+07
2.15125e+07
2.14961e+07
2.14791e+07
2.14613e+07
2.14428e+07
2.14237e+07
2.14038e+07
2.13832e+07
2.13619e+07
2.13398e+07
2.1317e+07
2.12935e+07
2.12692e+07
2.12443e+07
2.12186e+07
2.11921e+07
2.1165e+07
2.11371e+07
2.11085e+07
2.10792e+07
2.10492e+07
2.10185e+07
2.09871e+07
2.0955e+07
2.09223e+07
2.08889e+07
2.08548e+07
2.08201e+07
2.07847e+07
2.07487e+07
2.0712e+07
2.06747e+07
2.06369e+07
2.05984e+07
2.05593e+07
2.05196e+07
2.04793e+07
2.04385e+07
2.03971e+07
2.03551e+07
2.03125e+07
2.02694e+07
2.02258e+07
2.01816e+07
2.01369e+07
2.00916e+07
2.00458e+07
1.99995e+07
1.99527e+07
1.99054e+07
1.98575e+07
1.98092e+07
1.97603e+07
1.9711e+07
1.96611e+07
1.96108e+07
1.95599e+07
1.95086e+07
1.94567e+07
1.94044e+07
1.93516e+07
1.92983e+07
1.92445e+07
1.91903e+07
1.91355e+07
1.90803e+07
1.90245e+07
1.89683e+07
1.89116e+07
1.88545e+07
1.87968e+07
1.87386e+07
1.868e+07
1.86208e+07
1.85612e+07
1.85011e+07
1.84404e+07
1.83793e+07
1.83177e+07
1.82555e+07
1.81929e+07
1.81298e+07
1.80661e+07
1.8002e+07
1.79373e+07
1.78721e+07
1.78064e+07
1.77401e+07
1.76734e+07
1.76061e+07
1.75383e+07
1.74699e+07
1.7401e+07
1.73315e+07
1.72615e+07
1.7191e+07
1.71199e+07
1.70482e+07
1.6976e+07
1.69032e+07
1.68299e+07
1.67559e+07
1.66814e+07
1.66063e+07
1.65307e+07
1.64544e+07
1.63775e+07
1.63001e+07
1.6222e+07
1.61434e+07
1.60641e+07
1.59842e+07
1.59037e+07
1.58226e+07
1.57408e+07
1.56584e+07
1.55754e+07
1.54918e+07
1.54075e+07
1.53227e+07
1.52372e+07
1.5151e+07
1.50643e+07
1.4977e+07
1.48891e+07
1.48007e+07
1.47117e+07
1.46221e+07
1.45318e+07
2.17953e+07
2.17952e+07
2.1795e+07
2.17947e+07
2.17943e+07
2.17938e+07
2.17932e+07
2.17925e+07
2.17917e+07
2.17907e+07
2.17896e+07
2.17884e+07
2.17871e+07
2.17857e+07
2.1784e+07
2.17823e+07
2.17804e+07
2.17783e+07
2.1776e+07
2.17736e+07
2.17709e+07
2.17681e+07
2.17651e+07
2.17618e+07
2.17583e+07
2.17546e+07
2.17506e+07
2.17463e+07
2.17417e+07
2.17369e+07
2.17317e+07
2.17262e+07
2.17204e+07
2.17142e+07
2.17076e+07
2.17007e+07
2.16933e+07
2.16855e+07
2.16772e+07
2.16685e+07
2.16593e+07
2.16496e+07
2.16393e+07
2.16285e+07
2.16172e+07
2.16052e+07
2.15927e+07
2.15796e+07
2.15658e+07
2.15514e+07
2.15363e+07
2.15206e+07
2.15042e+07
2.14871e+07
2.14692e+07
2.14507e+07
2.14314e+07
2.14114e+07
2.13907e+07
2.13692e+07
2.1347e+07
2.13241e+07
2.13004e+07
2.1276e+07
2.12508e+07
2.12249e+07
2.11983e+07
2.1171e+07
2.11429e+07
2.11141e+07
2.10846e+07
2.10544e+07
2.10235e+07
2.09919e+07
2.09596e+07
2.09267e+07
2.08931e+07
2.08588e+07
2.08239e+07
2.07883e+07
2.07521e+07
2.07153e+07
2.06779e+07
2.06398e+07
2.06012e+07
2.05619e+07
2.05221e+07
2.04817e+07
2.04407e+07
2.03992e+07
2.03571e+07
2.03144e+07
2.02712e+07
2.02274e+07
2.01831e+07
2.01383e+07
2.0093e+07
2.00471e+07
2.00007e+07
1.99538e+07
1.99064e+07
1.98585e+07
1.98101e+07
1.97612e+07
1.97117e+07
1.96618e+07
1.96114e+07
1.95605e+07
1.95091e+07
1.94573e+07
1.94049e+07
1.93521e+07
1.92987e+07
1.92449e+07
1.91906e+07
1.91358e+07
1.90806e+07
1.90248e+07
1.89686e+07
1.89119e+07
1.88547e+07
1.8797e+07
1.87388e+07
1.86801e+07
1.8621e+07
1.85613e+07
1.85012e+07
1.84405e+07
1.83794e+07
1.83178e+07
1.82556e+07
1.8193e+07
1.81298e+07
1.80662e+07
1.8002e+07
1.79373e+07
1.78721e+07
1.78064e+07
1.77402e+07
1.76734e+07
1.76061e+07
1.75383e+07
1.74699e+07
1.7401e+07
1.73315e+07
1.72616e+07
1.7191e+07
1.71199e+07
1.70482e+07
1.6976e+07
1.69032e+07
1.68299e+07
1.67559e+07
1.66814e+07
1.66063e+07
1.65307e+07
1.64544e+07
1.63775e+07
1.63001e+07
1.6222e+07
1.61433e+07
1.60641e+07
1.59842e+07
1.59037e+07
1.58225e+07
1.57408e+07
1.56584e+07
1.55754e+07
1.54917e+07
1.54074e+07
1.53225e+07
1.5237e+07
1.51509e+07
1.50641e+07
1.49767e+07
1.48887e+07
1.48001e+07
1.47109e+07
1.4621e+07
1.45304e+07
2.17996e+07
2.17995e+07
2.17993e+07
2.17991e+07
2.17987e+07
2.17982e+07
2.17976e+07
2.1797e+07
2.17962e+07
2.17953e+07
2.17943e+07
2.17931e+07
2.17919e+07
2.17905e+07
2.1789e+07
2.17873e+07
2.17855e+07
2.17835e+07
2.17814e+07
2.1779e+07
2.17765e+07
2.17738e+07
2.17709e+07
2.17678e+07
2.17645e+07
2.17609e+07
2.1757e+07
2.17529e+07
2.17485e+07
2.17438e+07
2.17388e+07
2.17335e+07
2.17278e+07
2.17218e+07
2.17154e+07
2.17086e+07
2.17014e+07
2.16937e+07
2.16856e+07
2.1677e+07
2.16679e+07
2.16583e+07
2.16482e+07
2.16375e+07
2.16262e+07
2.16144e+07
2.16019e+07
2.15888e+07
2.1575e+07
2.15606e+07
2.15456e+07
2.15298e+07
2.15133e+07
2.14961e+07
2.14782e+07
2.14596e+07
2.14402e+07
2.14201e+07
2.13992e+07
2.13776e+07
2.13552e+07
2.13321e+07
2.13082e+07
2.12836e+07
2.12583e+07
2.12321e+07
2.12053e+07
2.11777e+07
2.11494e+07
2.11204e+07
2.10907e+07
2.10602e+07
2.10291e+07
2.09973e+07
2.09648e+07
2.09316e+07
2.08978e+07
2.08633e+07
2.08282e+07
2.07924e+07
2.0756e+07
2.0719e+07
2.06814e+07
2.06431e+07
2.06043e+07
2.05649e+07
2.05249e+07
2.04843e+07
2.04432e+07
2.04015e+07
2.03593e+07
2.03165e+07
2.02731e+07
2.02293e+07
2.01849e+07
2.01399e+07
2.00945e+07
2.00485e+07
2.0002e+07
1.99551e+07
1.99076e+07
1.98596e+07
1.98111e+07
1.97621e+07
1.97126e+07
1.96626e+07
1.96122e+07
1.95612e+07
1.95098e+07
1.94579e+07
1.94055e+07
1.93526e+07
1.92992e+07
1.92454e+07
1.9191e+07
1.91362e+07
1.90809e+07
1.90251e+07
1.89689e+07
1.89121e+07
1.88549e+07
1.87972e+07
1.8739e+07
1.86803e+07
1.86211e+07
1.85615e+07
1.85013e+07
1.84407e+07
1.83795e+07
1.83179e+07
1.82557e+07
1.81931e+07
1.81299e+07
1.80663e+07
1.80021e+07
1.79374e+07
1.78722e+07
1.78065e+07
1.77402e+07
1.76734e+07
1.76061e+07
1.75383e+07
1.74699e+07
1.7401e+07
1.73316e+07
1.72616e+07
1.7191e+07
1.71199e+07
1.70482e+07
1.6976e+07
1.69032e+07
1.68299e+07
1.67559e+07
1.66814e+07
1.66063e+07
1.65307e+07
1.64544e+07
1.63775e+07
1.63001e+07
1.6222e+07
1.61433e+07
1.6064e+07
1.59841e+07
1.59036e+07
1.58225e+07
1.57407e+07
1.56583e+07
1.55753e+07
1.54916e+07
1.54073e+07
1.53224e+07
1.52368e+07
1.51506e+07
1.50638e+07
1.49763e+07
1.48882e+07
1.47995e+07
1.47101e+07
1.462e+07
1.45291e+07
2.18043e+07
2.18042e+07
2.18041e+07
2.18038e+07
2.18034e+07
2.1803e+07
2.18025e+07
2.18018e+07
2.18011e+07
2.18003e+07
2.17993e+07
2.17983e+07
2.17971e+07
2.17958e+07
2.17944e+07
2.17928e+07
2.17911e+07
2.17893e+07
2.17873e+07
2.17851e+07
2.17827e+07
2.17802e+07
2.17774e+07
2.17744e+07
2.17713e+07
2.17678e+07
2.17642e+07
2.17602e+07
2.1756e+07
2.17515e+07
2.17467e+07
2.17416e+07
2.17361e+07
2.17303e+07
2.1724e+07
2.17174e+07
2.17104e+07
2.17029e+07
2.16949e+07
2.16865e+07
2.16776e+07
2.16681e+07
2.16581e+07
2.16475e+07
2.16364e+07
2.16246e+07
2.16122e+07
2.15991e+07
2.15854e+07
2.1571e+07
2.15559e+07
2.15401e+07
2.15236e+07
2.15063e+07
2.14883e+07
2.14696e+07
2.14501e+07
2.14298e+07
2.14088e+07
2.1387e+07
2.13644e+07
2.13411e+07
2.1317e+07
2.12921e+07
2.12665e+07
2.12402e+07
2.12131e+07
2.11853e+07
2.11567e+07
2.11274e+07
2.10974e+07
2.10667e+07
2.10353e+07
2.10033e+07
2.09705e+07
2.09371e+07
2.0903e+07
2.08683e+07
2.08329e+07
2.07969e+07
2.07603e+07
2.07231e+07
2.06852e+07
2.06468e+07
2.06078e+07
2.05682e+07
2.0528e+07
2.04872e+07
2.04459e+07
2.04041e+07
2.03617e+07
2.03188e+07
2.02753e+07
2.02313e+07
2.01867e+07
2.01417e+07
2.00961e+07
2.00501e+07
2.00035e+07
1.99564e+07
1.99088e+07
1.98607e+07
1.98122e+07
1.97631e+07
1.97135e+07
1.96635e+07
1.9613e+07
1.9562e+07
1.95105e+07
1.94585e+07
1.94061e+07
1.93531e+07
1.92997e+07
1.92458e+07
1.91915e+07
1.91366e+07
1.90813e+07
1.90255e+07
1.89692e+07
1.89124e+07
1.88552e+07
1.87974e+07
1.87392e+07
1.86805e+07
1.86213e+07
1.85616e+07
1.85015e+07