/*--------------------------------*- C++ -*----------------------------------*\
  =========                 |
  \\      /  F ield         | OpenFOAM: The Open Source CFD Toolbox
   \\    /   O peration     | Website:  https://openfoam.org
    \\  /    A nd           | Version:  10
     \\/     M anipulation  |
\*---------------------------------------------------------------------------*/
FoamFile
{
    format      ascii;
    class       volVectorField;
    location    "0.2";
    object      Ua;
}
// * * * * * * * * * * * * * * * * * * * * * * * * * * * * * * * * * * * * * //

dimensions      [0 1 -1 0 0 0 0];

internalField   nonuniform List<vector> 
12225
(
(2.05777e-05 -4.14509e-06 0)
(6.11463e-05 -4.19447e-06 0)
(0.000100675 -4.26995e-06 0)
(0.000139288 -4.34254e-06 0)
(0.000176844 -4.38202e-06 0)
(0.000212966 -4.35741e-06 0)
(0.000247081 -4.2378e-06 0)
(0.000278465 -3.99601e-06 0)
(0.000306335 -3.61691e-06 0)
(0.000329999 -3.11264e-06 0)
(0.000349119 -2.54792e-06 0)
(0.000364125 -2.07959e-06 0)
(0.000376865 -2.01994e-06 0)
(0.000391643 -2.95371e-06 0)
(0.000417173 -6.02438e-06 0)
(0.000471516 -1.3904e-05 0)
(0.000600281 -3.53203e-05 0)
(0.00097655 -0.000114798 0)
(2.05672e-05 -1.27305e-05 0)
(6.1119e-05 -1.28831e-05 0)
(0.000100641 -1.31163e-05 0)
(0.000139262 -1.33411e-05 0)
(0.000176841 -1.34645e-05 0)
(0.000213004 -1.33916e-05 0)
(0.000247178 -1.30271e-05 0)
(0.000278639 -1.22868e-05 0)
(0.000306592 -1.11227e-05 0)
(0.000330322 -9.56905e-06 0)
(0.000349442 -7.81896e-06 0)
(0.000364294 -6.34406e-06 0)
(0.000376561 -6.08361e-06 0)
(0.000390208 -8.78461e-06 0)
(0.000413093 -1.77955e-05 0)
(0.000460142 -4.05464e-05 0)
(0.000559382 -9.8511e-05 0)
(0.000737489 -0.00027747 0)
(2.05437e-05 -2.19244e-05 0)
(6.1058e-05 -2.21905e-05 0)
(0.000100566 -2.25975e-05 0)
(0.000139202 -2.29914e-05 0)
(0.000176832 -2.32124e-05 0)
(0.000213085 -2.30966e-05 0)
(0.000247392 -2.24794e-05 0)
(0.000279022 -2.12132e-05 0)
(0.000307162 -1.92096e-05 0)
(0.000331044 -1.65161e-05 0)
(0.000350178 -1.3445e-05 0)
(0.000364712 -1.07715e-05 0)
(0.000375974 -1.00424e-05 0)
(0.000387247 -1.40987e-05 0)
(0.000404784 -2.81853e-05 0)
(0.000438761 -6.29413e-05 0)
(0.000500419 -0.000143717 0)
(0.000567996 -0.000338561 0)
(2.05038e-05 -3.17629e-05 0)
(6.09547e-05 -3.21565e-05 0)
(0.000100438 -3.27591e-05 0)
(0.0001391 -3.33459e-05 0)
(0.000176814 -3.3686e-05 0)
(0.000213216 -3.3542e-05 0)
(0.000247743 -3.26735e-05 0)
(0.000279659 -3.08607e-05 0)
(0.000308115 -2.79621e-05 0)
(0.000332267 -2.40203e-05 0)
(0.000351457 -1.94394e-05 0)
(0.000365527 -1.52582e-05 0)
(0.000375264 -1.35586e-05 0)
(0.000382949 -1.81058e-05 0)
(0.000392792 -3.55128e-05 0)
(0.000410215 -7.77665e-05 0)
(0.000435695 -0.000167801 0)
(0.000439316 -0.000346543 0)
(2.04433e-05 -4.22816e-05 0)
(6.07977e-05 -4.28217e-05 0)
(0.000100244 -4.36493e-05 0)
(0.000138942 -4.44624e-05 0)
(0.000176777 -4.49543e-05 0)
(0.0002134 -4.48094e-05 0)
(0.000248253 -4.37044e-05 0)
(0.000280594 -4.13357e-05 0)
(0.000309536 -3.74896e-05 0)
(0.000334121 -3.21729e-05 0)
(0.000353467 -2.58329e-05 0)
(0.000366999 -1.96951e-05 0)
(0.000374779 -1.6249e-05 0)
(0.000377859 -1.99323e-05 0)
(0.00037829 -3.81333e-05 0)
(0.000377703 -8.2714e-05 0)
(0.000371594 -0.000171663 0)
(0.000335786 -0.000325282 0)
(2.03564e-05 -5.35143e-05 0)
(6.0572e-05 -5.4227e-05 0)
(9.99623e-05 -5.53194e-05 0)
(0.000138708 -5.64046e-05 0)
(0.000176708 -5.70958e-05 0)
(0.000213632 -5.69951e-05 0)
(0.000248937 -5.56881e-05 0)
(0.000281879 -5.27729e-05 0)
(0.000311521 -4.79369e-05 0)
(0.000336774 -4.1106e-05 0)
(0.000356476 -3.26962e-05 0)
(0.00036953 -2.40019e-05 0)
(0.000375127 -1.77368e-05 0)
(0.000372938 -1.8714e-05 0)
(0.000362979 -3.45845e-05 0)
(0.000344316 -7.63224e-05 0)
(0.000311361 -0.000157177 0)
(0.000248638 -0.000285599 0)
(2.0235e-05 -6.54915e-05 0)
(6.02567e-05 -6.64125e-05 0)
(9.95668e-05 -6.78234e-05 0)
(0.000138369 -6.92427e-05 0)
(0.000176583 -7.02005e-05 0)
(0.000213901 -7.0213e-05 0)
(0.000249807 -6.87666e-05 0)
(0.00028356 -6.53434e-05 0)
(0.000314181 -5.94989e-05 0)
(0.000340436 -5.10165e-05 0)
(0.000360842 -4.01777e-05 0)
(0.000373707 -2.81836e-05 0)
(0.000377228 -1.77354e-05 0)
(0.000369612 -1.37055e-05 0)
(0.000349028 -2.36583e-05 0)
(0.000312978 -5.7613e-05 0)
(0.000256789 -0.000125699 0)
(0.00017284 -0.000231388 0)
(2.00679e-05 -7.82366e-05 0)
(5.98231e-05 -7.94156e-05 0)
(9.90194e-05 -8.12172e-05 0)
(0.000137886 -8.30534e-05 0)
(0.000176363 -8.43706e-05 0)
(0.00021418 -8.45975e-05 0)
(0.000250858 -8.31137e-05 0)
(0.000285678 -7.92667e-05 0)
(0.000317632 -7.24402e-05 0)
(0.000345354 -6.21998e-05 0)
(0.00036703 -4.856e-05 0)
(0.00038033 -3.24186e-05 0)
(0.000382377 -1.61708e-05 0)
(0.000369841 -4.41437e-06 0)
(0.00033913 -4.4288e-06 0)
(0.000286668 -2.57069e-05 0)
(0.000209282 -7.73686e-05 0)
(0.000105519 -0.000162558 0)
(1.98392e-05 -9.17615e-05 0)
(5.92309e-05 -9.32689e-05 0)
(9.82679e-05 -9.55578e-05 0)
(0.0001372 -9.79202e-05 0)
(0.000175991 -9.97215e-05 0)
(0.000214418 -0.000100306 0)
(0.00025206 -9.89415e-05 0)
(0.000288249 -9.48227e-05 0)
(0.000321982 -8.71202e-05 0)
(0.0003518 -7.50962e-05 0)
(0.000375601 -5.83406e-05 0)
(0.000390426 -3.71884e-05 0)
(0.000392292 -1.33631e-05 0)
(0.00037622 9.20814e-06 0)
(0.000336705 2.3693e-05 0)
(0.000268902 2.04827e-05 0)
(0.000170682 -1.0714e-05 0)
(4.52551e-05 -7.6097e-05 0)
(1.95255e-05 -0.000106059 0)
(5.8423e-05 -0.000107997 0)
(9.72394e-05 -0.000110902 0)
(0.00013623 -0.000113932 0)
(0.00017538 -0.000116381 0)
(0.000214528 -0.000117521 0)
(0.000253342 -0.000116505 0)
(0.000291242 -0.000112365 0)
(0.000327295 -0.000104021 0)
(0.000360033 -9.0348e-05 0)
(0.000387169 -7.03389e-05 0)
(0.000405225 -4.34612e-05 0)
(0.000409146 -1.03006e-05 0)
(0.000392154 2.64464e-05 0)
(0.000346321 6.07532e-05 0)
(0.000264519 8.23983e-05 0)
(0.000144194 7.77811e-05 0)
(-8.08878e-06 3.41884e-05 0)
(1.90918e-05 -0.00012109 0)
(5.73167e-05 -0.00012361 0)
(9.58333e-05 -0.000127305 0)
(0.000134864 -0.00013118 0)
(0.000174402 -0.000134489 0)
(0.000214372 -0.000136447 0)
(0.000254564 -0.000136105 0)
(0.000294545 -0.000132329 0)
(0.000333539 -0.000123773 0)
(0.000370212 -0.00010886 0)
(0.0004023 -8.5827e-05 0)
(0.000426051 -5.2941e-05 0)
(0.00043553 -9.05915e-06 0)
(0.000422051 4.52308e-05 0)
(0.000374394 0.000105655 0)
(0.000281054 0.000161628 0)
(0.000135945 0.000194348 0)
(-5.29734e-05 0.000179474 0)
(1.85337e-05 -0.000135504 0)
(5.59168e-05 -0.00013876 0)
(9.40703e-05 -0.000143374 0)
(0.000133104 -0.000148212 0)
(0.000173002 -0.000152533 0)
(0.000213789 -0.000155534 0)
(0.000255411 -0.000156183 0)
(0.000297628 -0.000153212 0)
(0.000339918 -0.000145043 0)
(0.000381261 -0.000129673 0)
(0.000419722 -0.000104555 0)
(0.000451729 -6.65969e-05 0)
(0.000471021 -1.24772e-05 0)
(0.000467348 6.02809e-05 0)
(0.000425586 0.000150762 0)
(0.000327048 0.000249843 0)
(0.000156457 0.000333512 0)
(-8.2021e-05 0.000359727 0)
(1.77832e-05 -0.000150088 0)
(5.40781e-05 -0.000154407 0)
(9.17951e-05 -0.000160183 0)
(0.000130793 -0.000166188 0)
(0.000171018 -0.000171778 0)
(0.000212625 -0.000176182 0)
(0.000255753 -0.000178309 0)
(0.000300408 -0.0001768 0)
(0.000346419 -0.000169916 0)
(0.000393277 -0.000155309 0)
(0.000439725 -0.000129697 0)
(0.000482966 -8.85255e-05 0)
(0.000517241 -2.57671e-05 0)
(0.000531583 6.56137e-05 0)
(0.000506892 0.000191333 0)
(0.000414026 0.000349152 0)
(0.000218891 0.000514525 0)
(-9.19115e-05 0.000618998 0)
(1.65366e-05 -0.000166863 0)
(5.11466e-05 -0.000173078 0)
(8.82956e-05 -0.00018055 0)
(0.000127187 -0.000188147 0)
(0.00016768 -0.000195531 0)
(0.000210144 -0.000202058 0)
(0.000254995 -0.000206582 0)
(0.000302567 -0.000207723 0)
(0.000353209 -0.000203715 0)
(0.000407264 -0.000192055 0)
(0.000464826 -0.000168937 0)
(0.000525063 -0.00012843 0)
(0.000584699 -6.1347e-05 0)
(0.000634803 4.602e-05 0)
(0.000654495 0.000212279 0)
(0.000600386 0.000456778 0)
(0.000395779 0.000779813 0)
(-4.89492e-05 0.00109688 0)
(1.42641e-05 -0.000185147 0)
(4.61794e-05 -0.000195304 0)
(8.27831e-05 -0.000205214 0)
(0.000121462 -0.000214863 0)
(0.000161969 -0.000224722 0)
(0.000205095 -0.000234454 0)
(0.000251645 -0.000242771 0)
(0.000302299 -0.000248409 0)
(0.000358044 -0.000249905 0)
(0.000420431 -0.000245153 0)
(0.000491745 -0.00023071 0)
(0.000575003 -0.000200585 0)
(0.000673424 -0.000144091 0)
(0.000788195 -4.1787e-05 0)
(0.000910942 0.000142238 0)
(0.00100057 0.000474943 0)
(0.00091496 0.00108063 0)
(0.000214336 0.00218355 0)
(9.47988e-06 -0.000202111 0)
(3.7002e-05 -0.000222434 0)
(7.40381e-05 -0.000235228 0)
(0.000112366 -0.000247008 0)
(0.000152122 -0.000260047 0)
(0.000195144 -0.000274646 0)
(0.000242788 -0.0002887 0)
(0.00029579 -0.000301313 0)
(0.000355568 -0.000311888 0)
(0.000424784 -0.00031976 0)
(0.000508122 -0.000323783 0)
(0.000613615 -0.000321605 0)
(0.00075519 -0.000308457 0)
(0.000957888 -0.00027451 0)
(0.00126884 -0.000198802 0)
(0.00178115 -3.47173e-05 0)
(0.00268769 0.00032543 0)
(0.00440575 0.00113882 0)
(2.47882e-06 -0.000103578 0)
(4.99843e-06 -0.000118312 0)
(5.15523e-06 -0.000125733 0)
(5.47189e-06 -0.000132232 0)
(5.93575e-06 -0.000145027 0)
(6.51982e-06 -0.000161388 0)
(7.18279e-06 -0.000177371 0)
(7.87808e-06 -0.000192229 0)
(8.59398e-06 -0.000205866 0)
(9.33362e-06 -0.000218654 0)
(1.01118e-05 -0.000231332 0)
(1.09532e-05 -0.000245162 0)
(1.18947e-05 -0.000261957 0)
(1.29966e-05 -0.000284312 0)
(1.43657e-05 -0.000316235 0)
(1.62015e-05 -0.000364353 0)
(1.88943e-05 -0.000440242 0)
(2.32475e-05 -0.000564752 0)
(6.0877e-05 6.87637e-05 0)
(0.000178919 7.41406e-05 0)
(0.000295145 6.95092e-05 0)
(0.000414333 6.02304e-05 0)
(0.000535664 4.46477e-05 0)
(0.000656535 2.68845e-05 0)
(0.000773335 9.88416e-06 0)
(0.000884168 -5.80022e-06 0)
(0.00098748 -2.00753e-05 0)
(0.00108227 -3.32667e-05 0)
(0.00116782 -4.73343e-05 0)
(0.00124386 -6.34557e-05 0)
(0.00131065 -8.2208e-05 0)
(0.00136844 -0.000105753 0)
(0.00141664 -0.000136954 0)
(0.00145226 -0.000179618 0)
(0.00146747 -0.000238873 0)
(0.00144553 -0.000321513 0)
(7.96924e-05 0.000197126 0)
(0.000236784 0.00021228 0)
(0.00038882 0.000205515 0)
(0.000535391 0.000187914 0)
(0.000677401 0.000167142 0)
(0.000815865 0.000146156 0)
(0.000950823 0.000126236 0)
(0.00108186 0.000107876 0)
(0.00120837 9.12313e-05 0)
(0.00132962 7.62881e-05 0)
(0.00144508 6.17334e-05 0)
(0.00155426 4.74878e-05 0)
(0.00165636 3.46234e-05 0)
(0.00175052 2.34465e-05 0)
(0.00183581 1.46927e-05 0)
(0.00191128 1.03606e-05 0)
(0.00197664 1.37935e-05 0)
(0.00203268 3.56198e-05 0)
(8.43569e-05 0.000298974 0)
(0.000253355 0.000315555 0)
(0.000420578 0.000311282 0)
(0.000582923 0.000295695 0)
(0.00073974 0.000275938 0)
(0.000891336 0.000255932 0)
(0.00103805 0.000237643 0)
(0.00118013 0.000222027 0)
(0.00131778 0.000209609 0)
(0.0014513 0.000200899 0)
(0.00158121 0.000196548 0)
(0.00170831 0.000197595 0)
(0.00183391 0.000205304 0)
(0.00195996 0.000222844 0)
(0.00209027 0.000253272 0)
(0.00222984 0.000309352 0)
(0.00239797 0.000382037 0)
(0.00258723 0.000623925 0)
(9.15758e-05 0.000365675 0)
(0.000275326 0.000379487 0)
(0.000457734 0.000376377 0)
(0.000635183 0.000363864 0)
(0.000806413 0.000348044 0)
(0.000971498 0.000332708 0)
(0.0011311 0.000320156 0)
(0.00128616 0.000311779 0)
(0.001438 0.000308463 0)
(0.00158835 0.000311715 0)
(0.00174008 0.000322576 0)
(0.00189725 0.00034562 0)
(0.00206847 0.000382787 0)
(0.00226706 0.000455417 0)
(0.00253736 0.000564923 0)
(0.00293492 0.00097111 0)
(0.00425936 0.00117919 0)
(0.00808559 0.00122671 0)
(0.000100383 0.000409475 0)
(0.000301518 0.000420895 0)
(0.000500941 0.000419425 0)
(0.000695046 0.000411259 0)
(0.000882385 0.000401718 0)
(0.00106328 0.000393975 0)
(0.00123919 0.000390773 0)
(0.00141212 0.000394347 0)
(0.00158586 0.000405537 0)
(0.00176517 0.000430739 0)
(0.00196178 0.00046903 0)
(0.00219165 0.000552373 0)
(0.0025192 0.000675541 0)
(0.00308196 0.00116541 0)
(0.00539967 0.00153896 0)
(0.0100658 0.00105138 0)
(0.0139854 0.000692177 0)
(0.0156981 0.000681918 0)
(0.000111359 0.00043565 0)
(0.000333993 0.000446222 0)
(0.000554194 0.000447826 0)
(0.000768685 0.000445982 0)
(0.000975981 0.000446108 0)
(0.00117749 0.000449709 0)
(0.00137717 0.000461176 0)
(0.00157891 0.000486722 0)
(0.00179621 0.000523332 0)
(0.00204277 0.000610092 0)
(0.00239157 0.000724536 0)
(0.00298154 0.00122924 0)
(0.00541632 0.00174063 0)
(0.0103862 0.00116684 0)
(0.0146763 0.00101888 0)
(0.0163306 0.000267599 0)
(0.0164951 -0.00026422 0)
(0.0163669 -7.36636e-05 0)
(0.000125372 0.000450358 0)
(0.000375435 0.000462612 0)
(0.000622407 0.000469814 0)
(0.000864358 0.000477487 0)
(0.00109951 0.00049424 0)
(0.00133261 0.000516527 0)
(0.00157709 0.000554783 0)
(0.0018418 0.000639224 0)
(0.00219974 0.000744428 0)
(0.00275739 0.00121103 0)
(0.00487516 0.00179143 0)
(0.00976848 0.00142939 0)
(0.0145824 0.00129869 0)
(0.0165376 0.000333049 0)
(0.0166902 -0.00016774 0)
(0.0165722 -6.43065e-05 0)
(0.016521 -7.93118e-05 0)
(0.0164675 -2.13702e-05 0)
(0.000144415 0.000462423 0)
(0.000431824 0.000481109 0)
(0.000716528 0.000499031 0)
(0.00100208 0.000522729 0)
(0.00128641 0.00057596 0)
(0.00158737 0.000643305 0)
(0.00197104 0.000763123 0)
(0.00252717 0.00118406 0)
(0.00437365 0.0017573 0)
(0.00891586 0.00162589 0)
(0.0139656 0.00151912 0)
(0.0164053 0.000733742 0)
(0.0167428 5.70484e-05 0)
(0.0166638 6.77483e-05 0)
(0.0166334 -2.73712e-05 0)
(0.0165824 -2.79375e-05 0)
(0.0165472 -2.12023e-05 0)
(0.016521 1.10806e-05 0)
(0.000174519 0.000491316 0)
(0.00052237 0.000529552 0)
(0.000874963 0.00057579 0)
(0.00126138 0.000642837 0)
(0.00170136 0.000833588 0)
(0.00236455 0.00119652 0)
(0.00426913 0.00171277 0)
(0.00842403 0.00164028 0)
(0.0132009 0.00170808 0)
(0.0158974 0.00115611 0)
(0.0164804 0.000365087 0)
(0.0165407 0.000330114 0)
(0.0166147 0.000129972 0)
(0.0166115 6.55786e-05 0)
(0.0166005 1.25015e-05 0)
(0.0165793 -1.57307e-06 0)
(0.0165621 2.62341e-06 0)
(0.0165522 2.31985e-05 0)
(0.000245152 0.00062129 0)
(0.00075579 0.000753986 0)
(0.00137838 0.000976295 0)
(0.00247316 0.00131499 0)
(0.00478446 0.00158665 0)
(0.00853988 0.00157213 0)
(0.0124849 0.001841 0)
(0.0148702 0.00132119 0)
(0.0156545 0.000708671 0)
(0.0160365 0.000629604 0)
(0.0163255 0.000335375 0)
(0.0164577 0.000234077 0)
(0.0165417 0.000119038 0)
(0.0165709 5.9522e-05 0)
(0.0165783 2.25185e-05 0)
(0.0165745 8.91368e-06 0)
(0.0165699 1.05164e-05 0)
(0.0165704 2.3762e-05 0)
(0.000733901 0.00119737 0)
(0.00255135 0.00130948 0)
(0.00511465 0.00140021 0)
(0.00816973 0.00158536 0)
(0.0109615 0.00166806 0)
(0.0128342 0.00120075 0)
(0.0139809 0.000951785 0)
(0.0148875 0.000795787 0)
(0.0155291 0.000508829 0)
(0.0159478 0.000404133 0)
(0.0162391 0.000241944 0)
(0.0164023 0.000158558 0)
(0.0164988 8.73937e-05 0)
(0.0165448 4.51056e-05 0)
(0.0165642 2.02063e-05 0)
(0.0165706 1.01003e-05 0)
(0.016574 1.04863e-05 0)
(0.0165808 1.86533e-05 0)
(0.0015375 0.00124312 0)
(0.00450682 0.00122941 0)
(0.00713744 0.00108526 0)
(0.00932124 0.000935221 0)
(0.0112058 0.000876366 0)
(0.0127597 0.000674394 0)
(0.0139148 0.000537246 0)
(0.0148146 0.000439954 0)
(0.0154625 0.000294153 0)
(0.0158982 0.000224225 0)
(0.0161941 0.000140234 0)
(0.0163713 9.03332e-05 0)
(0.0164758 5.1318e-05 0)
(0.0165303 2.70429e-05 0)
(0.0165564 1.29095e-05 0)
(0.0165682 6.95207e-06 0)
(0.0165759 6.95157e-06 0)
(0.0165862 1.13361e-05 0)
(0.00154528 0.000410296 0)
(0.00450323 0.000390695 0)
(0.00711146 0.000344411 0)
(0.00929967 0.000297856 0)
(0.0111776 0.000276703 0)
(0.0127229 0.000214844 0)
(0.0138873 0.000171083 0)
(0.0147854 0.000139037 0)
(0.0154358 9.44671e-05 0)
(0.0158779 7.10122e-05 0)
(0.0161761 4.50918e-05 0)
(0.0163586 2.89119e-05 0)
(0.0164665 1.66016e-05 0)
(0.0165244 8.8284e-06 0)
(0.0165532 4.31238e-06 0)
(0.0165672 2.38256e-06 0)
(0.0165767 2.35276e-06 0)
(0.0165883 3.71916e-06 0)
(2.44695e-05 -5.23024e-05 -6.75704e-31)
(7.366e-05 -5.23405e-05 6.75615e-31)
(0.00012332 -5.24406e-05 0)
(0.000173514 -5.2604e-05 0)
(0.000224308 -5.28316e-05 0)
(0.000275773 -5.31244e-05 -6.83361e-31)
(0.000327981 -5.34833e-05 0)
(0.000381006 -5.39088e-05 0)
(0.000434924 -5.44017e-05 0)
(0.000489815 -5.49621e-05 0)
(0.00054576 -5.55905e-05 7.12048e-31)
(0.000602842 -5.62868e-05 0)
(0.000661146 -5.70508e-05 0)
(0.000720759 -5.78823e-05 0)
(0.000781769 -5.87805e-05 0)
(0.000844264 -5.97446e-05 7.62214e-31)
(0.000908335 -6.07735e-05 0)
(0.000974073 -6.18658e-05 0)
(0.00104157 -6.30197e-05 0)
(0.00111091 -6.42332e-05 0)
(0.0011822 -6.55039e-05 0)
(0.00125551 -6.68289e-05 0)
(0.00133094 -6.82052e-05 0)
(0.00140857 -6.96291e-05 8.83307e-31)
(0.00148849 -7.10965e-05 -9.01329e-31)
(0.00157077 -7.26031e-05 9.1983e-31)
(0.0016555 -7.41438e-05 9.38743e-31)
(0.00174274 -7.57133e-05 0)
(0.00183256 -7.73057e-05 0)
(0.00192502 -7.89145e-05 -9.97222e-31)
(0.00202018 -8.0533e-05 -1.01702e-30)
(0.00211808 -8.21538e-05 0)
(0.00221876 -8.37691e-05 0)
(0.00232225 -8.53706e-05 -1.07597e-30)
(0.00242856 -8.69496e-05 0)
(0.0025377 -8.84971e-05 0)
(0.00264967 -9.00037e-05 1.13199e-30)
(0.00276446 -9.14599e-05 0)
(0.00288201 -9.28557e-05 1.16611e-30)
(0.00300231 -9.41812e-05 2.36364e-30)
(0.00312527 -9.54263e-05 0)
(0.00325084 -9.65813e-05 0)
(0.00337891 -9.76362e-05 0)
(0.00350939 -9.85817e-05 0)
(0.00364215 -9.94085e-05 0)
(0.00377706 -0.000100108 2.49856e-30)
(0.00391396 -0.000100673 2.50992e-30)
(0.00405269 -0.000101095 2.51756e-30)
(0.00419307 -0.000101368 0)
(0.00433491 -0.000101488 -2.52105e-30)
(0.00447799 -0.000101449 0)
(0.00462211 -0.000101248 2.50807e-30)
(0.00476704 -0.000100883 2.49522e-30)
(0.00491255 -0.000100354 0)
(0.00505839 -9.96608e-05 0)
(0.00520433 -9.88051e-05 0)
(0.00535011 -9.77898e-05 2.4015e-30)
(0.00549549 -9.66192e-05 0)
(0.00564022 -9.52985e-05 0)
(0.00578406 -9.38341e-05 0)
(0.00592677 -9.22334e-05 0)
(0.00606811 -9.05046e-05 0)
(0.00620787 -8.86568e-05 0)
(0.00634581 -8.66997e-05 0)
(0.00648175 -8.46434e-05 0)
(0.00661548 -8.24987e-05 -1.97635e-30)
(0.00674682 -8.02762e-05 0)
(0.00687561 -7.79872e-05 0)
(0.0070017 -7.56425e-05 1.79001e-30)
(0.00712494 -7.3253e-05 1.72533e-30)
(0.00724522 -7.08296e-05 0)
(0.00736242 -6.83825e-05 -1.59383e-30)
(0.00747646 -6.59219e-05 1.52753e-30)
(0.00758726 -6.34572e-05 0)
(0.00769476 -6.09976e-05 -1.39508e-30)
(0.0077989 -5.85515e-05 0)
(0.00789965 -5.61267e-05 0)
(0.007997 -5.37306e-05 1.2001e-30)
(0.00809093 -5.13696e-05 0)
(0.00818146 -4.90499e-05 -1.07475e-30)
(0.00826858 -4.67766e-05 0)
(0.00835233 -4.45545e-05 9.54511e-31)
(0.00843275 -4.23875e-05 8.966e-31)
(0.00850987 -4.02792e-05 8.40281e-31)
(0.00858375 -3.82324e-05 1.57126e-30)
(0.00865444 -3.62495e-05 -1.4654e-30)
(0.008722 -3.43322e-05 0)
(0.00878652 -3.2482e-05 0)
(0.00884806 -3.06997e-05 0)
(0.00890669 -2.89858e-05 -1.07797e-30)
(0.00896251 -2.73406e-05 -9.90276e-31)
(0.00901559 -2.57636e-05 9.06245e-31)
(0.00906602 -2.42545e-05 0)
(0.00911389 -2.28126e-05 -7.49039e-31)
(0.00915928 -2.14367e-05 -6.75759e-31)
(0.00920229 -2.01256e-05 -6.05949e-31)
(0.00924301 -1.88781e-05 0)
(0.00928152 -1.76925e-05 0)
(0.00931791 -1.65671e-05 0)
(0.00935227 -1.55003e-05 -3.59744e-31)
(0.00938468 -1.44901e-05 0)
(0.00941524 -1.35347e-05 0)
(0.00944402 -1.2632e-05 2.07127e-31)
(0.00947111 -1.17801e-05 0)
(0.00949659 -1.09769e-05 0)
(0.00952052 -1.02206e-05 7.88445e-32)
(0.009543 -9.50891e-06 0)
(0.00956409 -8.84002e-06 0)
(0.00958386 -8.21193e-06 2.79887e-32)
(0.00960238 -7.62269e-06 5.9326e-32)
(0.00961972 -7.07042e-06 0)
(0.00963593 -6.55327e-06 -1.16201e-31)
(0.0096511 -6.06943e-06 0)
(0.00966526 -5.61716e-06 1.65979e-31)
(0.00967847 -5.19477e-06 0)
(0.0096908 -4.80062e-06 2.09402e-31)
(0.00970229 -4.43312e-06 2.28938e-31)
(0.00971299 -4.09077e-06 0)
(0.00972295 -3.77211e-06 0)
(0.00973222 -3.47574e-06 0)
(0.00974083 -3.20033e-06 0)
(0.00974882 -2.9446e-06 0)
(0.00975624 -2.70732e-06 0)
(0.00976312 -2.48735e-06 0)
(0.0097695 -2.28359e-06 3.43245e-31)
(0.0097754 -2.09498e-06 -3.5327e-31)
(0.00978086 -1.92053e-06 0)
(0.00978592 -1.75931e-06 0)
(0.00979059 -1.61042e-06 0)
(0.0097949 -1.47303e-06 0)
(0.00979887 -1.34635e-06 -7.86165e-31)
(0.00980254 -1.22962e-06 0)
(0.00980592 -1.12213e-06 8.10015e-31)
(0.00980903 -1.02324e-06 -8.20535e-31)
(0.00981189 -9.32313e-07 0)
(0.00981452 -8.4876e-07 0)
(0.00981693 -7.72032e-07 0)
(0.00981914 -7.01611e-07 8.54751e-31)
(0.00982118 -6.37008e-07 8.61622e-31)
(0.00982303 -5.77764e-07 0)
(0.00982474 -5.23448e-07 8.73696e-31)
(0.00982629 -4.73649e-07 8.78988e-31)
(0.00982771 -4.27982e-07 -8.83849e-31)
(0.009829 -3.86079e-07 0)
(0.00983018 -3.47587e-07 0)
(0.00983124 -3.12168e-07 -8.96158e-31)
(0.00983221 -2.79491e-07 0)
(0.00983308 -2.4923e-07 0)
(0.00983386 -2.21059e-07 0)
(0.00983456 -1.94644e-07 0)
(0.00983518 -1.6964e-07 9.11265e-31)
(0.00983572 -1.45676e-07 9.13794e-31)
(0.00983618 -1.22346e-07 0)
(0.00983657 -9.91997e-08 9.1868e-31)
(0.00983687 -7.5716e-08 0)
(0.0098371 -5.1287e-08 0)
(0.00983724 -2.51858e-08 9.26397e-31)
(0.00983727 3.46999e-09 0)
(0.0098372 3.57681e-08 9.32698e-31)
(0.009837 7.30649e-08 0)
(0.00983665 1.17071e-07 0)
(0.00983611 1.69963e-07 9.46467e-31)
(0.00983534 2.34535e-07 0)
(0.00983429 3.14409e-07 9.6123e-31)
(0.00983288 4.14312e-07 0)
(0.00983102 5.40482e-07 0)
(0.00982857 7.0124e-07 0)
(0.00982537 9.07817e-07 -1.02175e-30)
(0.00982118 1.17562e-06 0)
(0.0098157 1.52616e-06 1.08477e-30)
(0.0098085 1.99022e-06 0)
(0.00979899 2.61308e-06 0)
(0.0097863 3.46391e-06 0)
(0.00976919 4.65355e-06 0)
(0.00974572 6.37108e-06 0)
(0.00971276 8.96748e-06 0)
(0.0096647 1.31759e-05 0)
(0.00959019 2.08151e-05 -6.1158e-30)
(0.00946061 3.77153e-05 0)
(0.00917339 9.07056e-05 0)
(2.43398e-05 -0.00015663 2.02353e-30)
(7.32702e-05 -0.000156745 -2.02328e-30)
(0.000122669 -0.000157047 0)
(0.000172601 -0.000157538 4.06412e-30)
(0.000223135 -0.000158224 0)
(0.000274339 -0.000159105 -2.05314e-30)
(0.000326287 -0.000160185 -4.12527e-30)
(0.000379053 -0.000161465 -4.15588e-30)
(0.000432716 -0.000162948 0)
(0.000487354 -0.000164635 -4.2327e-30)
(0.00054305 -0.000166526 2.14588e-30)
(0.000599887 -0.000168621 0)
(0.000657952 -0.00017092 0)
(0.000717331 -0.000173422 0)
(0.000778113 -0.000176125 0)
(0.000840389 -0.000179027 2.30394e-30)
(0.000904249 -0.000182123 0)
(0.000969785 -0.000185411 4.74695e-30)
(0.00103709 -0.000188884 0)
(0.00110625 -0.000192537 0)
(0.00117737 -0.000196362 -5.02023e-30)
(0.00125053 -0.000200351 0)
(0.00132582 -0.000204494 5.22343e-30)
(0.00140333 -0.000208781 2.68187e-30)
(0.00148314 -0.0002132 -2.73803e-30)
(0.00156533 -0.000217736 2.7957e-30)
(0.00164999 -0.000222377 2.85467e-30)
(0.00173719 -0.000227104 0)
(0.00182698 -0.0002319 0)
(0.00191944 -0.000236747 -3.03722e-30)
(0.00201462 -0.000241623 -9.24978e-30)
(0.00211257 -0.000246506 0)
(0.00221332 -0.000251373 0)
(0.00231691 -0.000256199 -3.28394e-30)
(0.00242335 -0.000260958 0)
(0.00253265 -0.000265622 0)
(0.0026448 -0.000270163 3.46055e-30)
(0.0027598 -0.000274552 0)
(0.00287759 -0.00027876 1.06388e-29)
(0.00299815 -0.000282756 7.23829e-30)
(0.00312141 -0.00028651 0)
(0.00324729 -0.000289992 0)
(0.00337571 -0.000293173 -1.48379e-29)
(0.00350655 -0.000296024 -1.49729e-29)
(0.0036397 -0.000298517 -1.50892e-29)
(0.00377501 -0.000300627 2.28674e-29)
(0.00391233 -0.000302329 7.72264e-30)
(0.0040515 -0.000303601 -7.56093e-30)
(0.00419232 -0.000304426 1.53425e-29)
(0.0043346 -0.000304785 -7.77617e-30)
(0.00447814 -0.000304667 0)
(0.00462272 -0.000304061 7.75066e-30)
(0.0047681 -0.000302962 2.29312e-29)
(0.00491405 -0.000301366 0)
(0.00506033 -0.000299276 0)
(0.00520668 -0.000296697 0)
(0.00535287 -0.000293637 7.46396e-30)
(0.00549863 -0.00029011 0)
(0.00564373 -0.000286131 1.42596e-29)
(0.0057879 -0.000281719 0)
(0.00593092 -0.000276898 1.37552e-29)
(0.00607255 -0.000271692 0)
(0.00621256 -0.000266129 -1.31718e-29)
(0.00635073 -0.000260238 0)
(0.00648687 -0.000254049 1.25214e-29)
(0.00662076 -0.000247595 -1.8419e-29)
(0.00675224 -0.000240909 0)
(0.00688114 -0.000234023 -1.14489e-29)
(0.0070073 -0.000226971 5.70163e-30)
(0.0071306 -0.000219787 5.513e-30)
(0.0072509 -0.000212501 0)
(0.00736811 -0.000205145 -1.50388e-29)
(0.00748212 -0.00019775 4.93507e-30)
(0.00759287 -0.000190344 0)
(0.0077003 -0.000182955 -4.54747e-30)
(0.00780436 -0.000175607 -8.34163e-30)
(0.00790502 -0.000168324 0)
(0.00800225 -0.000161129 3.97615e-30)
(0.00809606 -0.00015404 0)
(0.00818644 -0.000147076 3.22198e-30)
(0.00827342 -0.000140252 0)
(0.00835702 -0.000133583 -2.86111e-30)
(0.00843727 -0.00012708 3.08573e-30)
(0.00851423 -0.000120753 8.35911e-30)
(0.00858794 -0.000114612 1.57484e-29)
(0.00865846 -0.000108663 -1.4809e-29)
(0.00872586 -0.000102912 0)
(0.00879021 -9.73622e-05 0)
(0.00885158 -9.20167e-05 0)
(0.00891005 -8.68768e-05 3.22925e-30)
(0.0089657 -8.19429e-05 -3.813e-30)
(0.00901862 -7.72144e-05 3.56604e-30)
(0.00906889 -7.26897e-05 0)
(0.00911661 -6.83663e-05 -8.451e-30)
(0.00916185 -6.42414e-05 -2.88859e-30)
(0.00920472 -6.03111e-05 -2.68338e-30)
(0.0092453 -5.65714e-05 0)
(0.00928367 -5.30175e-05 0)
(0.00931993 -4.96444e-05 0)
(0.00935417 -4.64468e-05 -1.95955e-30)
(0.00938647 -4.34191e-05 0)
(0.00941691 -4.05555e-05 -2.41473e-30)
(0.00944559 -3.78502e-05 -6.18784e-31)
(0.00947258 -3.52971e-05 1.86051e-30)
(0.00949795 -3.28903e-05 0)
(0.0095218 -3.06236e-05 2.50158e-30)
(0.00954419 -2.84911e-05 0)
(0.00956519 -2.64867e-05 9.32036e-31)
(0.00958489 -2.46046e-05 -1.55316e-30)
(0.00960334 -2.2839e-05 -1.27495e-30)
(0.00962061 -2.11841e-05 0)
(0.00963676 -1.96345e-05 3.50019e-31)
(0.00965186 -1.81848e-05 5.72813e-32)
(0.00966596 -1.68297e-05 -4.13661e-31)
(0.00967913 -1.55641e-05 0)
(0.00969141 -1.43831e-05 -2.85972e-31)
(0.00970285 -1.3282e-05 -6.87806e-31)
(0.00971351 -1.22563e-05 0)
(0.00972343 -1.13015e-05 -6.67952e-31)
(0.00973266 -1.04136e-05 -7.61511e-31)
(0.00974123 -9.5884e-06 -8.48451e-31)
(0.00974919 -8.8222e-06 0)
(0.00975658 -8.11131e-06 0)
(0.00976343 -7.45227e-06 0)
(0.00976979 -6.84177e-06 1.24544e-30)
(0.00977567 -6.27669e-06 -1.37094e-31)
(0.00978111 -5.75404e-06 0)
(0.00978614 -5.27101e-06 1.30334e-30)
(0.00979079 -4.82495e-06 1.35034e-30)
(0.00979508 -4.41332e-06 0)
(0.00979904 -4.03377e-06 -5.08309e-31)
(0.00980269 -3.68404e-06 2.94111e-30)
(0.00980606 -3.36202e-06 5.7843e-31)
(0.00980916 -3.06574e-06 -3.68077e-30)
(0.009812 -2.79331e-06 0)
(0.00981462 -2.54299e-06 0)
(0.00981703 -2.31311e-06 0)
(0.00981923 -2.10213e-06 7.09948e-31)
(0.00982126 -1.90858e-06 4.04543e-30)
(0.00982311 -1.73109e-06 3.35268e-30)
(0.0098248 -1.56836e-06 7.65661e-31)
(0.00982635 -1.41917e-06 4.19963e-30)
(0.00982776 -1.28235e-06 -7.95514e-31)
(0.00982905 -1.15682e-06 0)
(0.00983022 -1.04151e-06 0)
(0.00983129 -9.35404e-07 -4.35204e-30)
(0.00983225 -8.37518e-07 0)
(0.00983312 -7.46876e-07 0)
(0.0098339 -6.625e-07 3.57773e-30)
(0.00983459 -5.83395e-07 0)
(0.00983521 -5.08521e-07 4.4863e-30)
(0.00983575 -4.36774e-07 8.83698e-31)
(0.00983621 -3.66943e-07 0)
(0.00983659 -2.97674e-07 4.55236e-30)
(0.0098369 -2.27416e-07 0)
(0.00983713 -1.5435e-07 0)
(0.00983727 -7.63076e-08 9.21114e-31)
(0.00983731 9.34845e-09 3.71796e-30)
(0.00983724 1.05865e-07 9.39949e-31)
(0.00983705 2.17291e-07 0)
(0.0098367 3.48731e-07 0)
(0.00983617 5.0668e-07 4.80166e-30)
(0.00983542 6.99477e-07 0)
(0.00983438 9.37916e-07 4.93459e-30)
(0.009833 1.23609e-06 0)
(0.00983116 1.6126e-06 0)
(0.00982876 2.09222e-06 0)
(0.00982561 2.70836e-06 -1.20794e-30)
(0.00982149 3.50684e-06 0)
(0.00981611 4.55153e-06 1.39762e-30)
(0.00980904 5.93364e-06 0)
(0.0097997 7.78705e-06 0)
(0.00978728 1.03156e-05 5.83034e-30)
(0.00977057 1.38442e-05 -6.55371e-30)
(0.00974775 1.89228e-05 0)
(0.00971592 2.65594e-05 0)
(0.00967015 3.88108e-05 0)
(0.00960135 6.05446e-05 1.79606e-29)
(0.009492 0.000105878 0)
(0.00931948 0.000227994 -1.01337e-28)
(2.40795e-05 -0.000260124 1.34452e-29)
(7.24877e-05 -0.000260317 -1.72537e-33)
(0.000121362 -0.000260825 0)
(0.00017077 -0.00026165 4.04581e-33)
(0.000220778 -0.0002628 0)
(0.000271458 -0.000264278 0)
(0.000322885 -0.000266089 -1.37184e-29)
(0.000375133 -0.000268237 -6.91604e-30)
(0.000428282 -0.000270724 6.96768e-30)
(0.000482412 -0.000273551 -7.04835e-30)
(0.000537608 -0.000276722 0)
(0.000593953 -0.000280235 0)
(0.000651536 -0.00028409 -7.29738e-30)
(0.000710444 -0.000288286 -1.48033e-29)
(0.00077077 -0.000292818 1.50291e-29)
(0.000832604 -0.000297685 0)
(0.000896039 -0.000302878 1.55315e-29)
(0.000961169 -0.000308393 7.92637e-30)
(0.00102809 -0.00031422 0)
(0.00109689 -0.000320348 1.64062e-29)
(0.00116767 -0.000326767 -8.39157e-30)
(0.00124052 -0.000333461 -1.70637e-29)
(0.00131553 -0.000340416 8.73741e-30)
(0.00139279 -0.000347613 0)
(0.00147239 -0.000355031 1.81461e-29)
(0.0015544 -0.00036265 1.85283e-29)
(0.00163892 -0.000370443 0)
(0.00172602 -0.000378384 1.93174e-29)
(0.00181577 -0.000386442 0)
(0.00190822 -0.000394587 2.01293e-29)
(0.00200345 -0.000402782 -1.0317e-29)
(0.00210149 -0.000410991 0)
(0.00220238 -0.000419174 0)
(0.00230617 -0.000427289 0)
(0.00241286 -0.000435293 0)
(0.00252247 -0.000443138 0)
(0.00263499 -0.000450779 0)
(0.00275041 -0.000458165 2.32969e-29)
(0.00286869 -0.000465246 -1.17553e-29)
(0.00298978 -0.000471972 0)
(0.00311363 -0.000478291 0)
(0.00324015 -0.000484153 0)
(0.00336926 -0.000489508 -4.98183e-29)
(0.00350084 -0.000494307 -2.52244e-29)
(0.00363476 -0.000498504 -1.71682e-31)
(0.00377089 -0.000502055 1.78109e-31)
(0.00390905 -0.00050492 -2.55499e-29)
(0.00404909 -0.000507062 -2.58321e-29)
(0.00419081 -0.000508449 5.15829e-29)
(0.004334 -0.000509053 2.57034e-29)
(0.00447845 -0.000508853 0)
(0.00462394 -0.000507832 2.55992e-29)
(0.00477023 -0.00050598 5.11908e-29)
(0.00491707 -0.000503294 0)
(0.00506422 -0.000499776 0)
(0.00521142 -0.000495436 -2.48751e-29)
(0.00535842 -0.00049029 0)
(0.00550495 -0.000484358 0)
(0.00565078 -0.00047767 7.195e-29)
(0.00579563 -0.000470257 4.69813e-29)
(0.00593928 -0.000462158 2.33321e-29)
(0.00608148 -0.000453416 0)
(0.006222 -0.000444077 -2.23706e-29)
(0.00636063 -0.000434191 0)
(0.00649715 -0.000423809 6.32768e-29)
(0.00663138 -0.000412987 -2.07247e-29)
(0.00676313 -0.00040178 -3.96268e-29)
(0.00689224 -0.000390242 -5.79214e-29)
(0.00701856 -0.000378431 0)
(0.00714195 -0.000366401 3.58614e-29)
(0.0072623 -0.000354206 0)
(0.0073795 -0.000341899 1.62819e-29)
(0.00749346 -0.00032953 3.19495e-29)
(0.00760412 -0.000317147 3.06378e-29)