/*--------------------------------*- C++ -*----------------------------------*\
  =========                 |
  \\      /  F ield         | OpenFOAM: The Open Source CFD Toolbox
   \\    /   O peration     | Website:  https://openfoam.org
    \\  /    A nd           | Version:  10
     \\/     M anipulation  |
\*---------------------------------------------------------------------------*/
FoamFile
{
    format      ascii;
    class       volScalarField;
    location    "21700";
    object      p;
}
// * * * * * * * * * * * * * * * * * * * * * * * * * * * * * * * * * * * * * //

dimensions      [1 -1 -2 0 0 0 0];

internalField   nonuniform List<scalar> 
6400
(
104.566
104.685
123.529
342.806
549.114
722.955
901.087
1074.99
1247.6
1416.73
1582.9
1741.05
1897.01
2056.39
2215.22
2373.28
2531.84
2689.43
2845.68
3000.24
3152.44
3302.84
3451.75
3598.98
3744.61
3888.99
4032.29
4174.38
4314.93
4453.6
4589.43
4719.98
4807.01
4857.49
4904.05
4945.65
4981.13
5009.22
5028.74
5038.76
5038.76
5028.74
5009.22
4981.13
4945.65
4904.05
4857.49
4807.01
4719.98
4589.43
4453.6
4314.93
4174.38
4032.29
3888.99
3744.61
3598.98
3451.75
3302.84
3152.44
3000.24
2845.68
2689.43
2531.84
2373.28
2215.22
2056.39
1897.01
1741.05
1582.9
1416.73
1247.6
1074.99
901.087
722.955
549.114
342.806
123.529
104.685
104.566
104.267
104.387
104.782
104.914
256.687
428.695
607.229
781.019
953.727
1122.85
1289.25
1447.14
1602.86
1762.41
1921.25
2079.26
2237.88
2395.49
2551.75
2706.34
2858.52
3008.91
3157.83
3305.05
3450.67
3595.05
3738.36
3880.45
4021.02
4159.73
4295.67
4426.44
4513.71
4564.38
4611.16
4653.03
4688.79
4717.14
4736.87
4747.01
4747.01
4736.87
4717.14
4688.79
4653.03
4611.16
4564.38
4513.71
4426.44
4295.67
4159.73
4021.02
3880.45
3738.36
3595.05
3450.67
3305.05
3157.83
3008.91
2858.52
2706.34
2551.75
2395.49
2237.88
2079.26
1921.25
1762.41
1602.86
1447.14
1289.25
1122.85
953.727
781.019
607.229
428.695
256.687
104.914
104.782
104.387
104.267
103.933
104.045
104.344
104.347
104.197
105.332
285.092
458.557
631.547
800.617
967.597
1124.87
1280
1439.98
1598.85
1756.72
1915.51
2073.15
2229.45
2384.11
2536.24
2686.59
2835.54
2982.75
3128.34
3272.69
3416.02
3558.15
3698.75
3837.56
3973.74
4105
4192.83
4243.93
4291.25
4333.74
4370.15
4399.13
4419.35
4429.76
4429.76
4419.35
4399.13
4370.15
4333.74
4291.25
4243.93
4192.83
4105
3973.74
3837.56
3698.75
3558.15
3416.02
3272.69
3128.34
2982.75
2835.54
2686.59
2536.24
2384.11
2229.45
2073.15
1915.51
1756.72
1598.85
1439.98
1280
1124.87
967.597
800.617
631.547
458.557
285.092
105.332
104.197
104.347
104.344
104.045
103.933
103.559
103.659
103.882
103.9
103.812
103.985
103.745
104.646
278.376
447.257
615.412
771.487
925.53
1086.39
1245.28
1402.87
1561.97
1719.67
1876.04
2030.84
2182.85
2333.15
2482.15
2629.34
2774.87
2919.19
3062.54
3204.73
3345.39
3484.36
3620.97
3753.06
3841.86
3893.71
3941.95
3985.52
4023.1
4053.19
4074.3
4085.2
4085.2
4074.3
4053.19
4023.1
3985.52
3941.95
3893.71
3841.86
3753.06
3620.97
3484.36
3345.39
3204.73
3062.54
2919.19
2774.87
2629.34
2482.15
2333.15
2182.85
2030.84
1876.04
1719.67
1561.97
1402.87
1245.28
1086.39
925.53
771.487
615.412
447.257
278.376
104.646
103.745
103.985
103.812
103.9
103.882
103.659
103.559
103.141
103.227
103.391
103.417
103.369
103.466
103.316
103.41
103.13
103.316
230.694
384.001
536.142
698.654
857.527
1014.62
1174.29
1332.05
1488.51
1643.57
1795.37
1945.58
2094.67
2241.83
2387.26
2531.53
2674.93
2817.21
2957.94
3097.15
3234.39
3367.76
3458.01
3511.01
3560.68
3605.97
3645.43
3677.34
3699.9
3711.62
3711.62
3699.9
3677.34
3645.43
3605.97
3560.68
3511.01
3458.01
3367.76
3234.39
3097.15
2957.94
2817.21
2674.93
2531.53
2387.26
2241.83
2094.67
1945.58
1795.37
1643.57
1488.51
1332.05
1174.29
1014.62
857.527
698.654
536.142
384.001
230.694
103.316
103.13
103.41
103.316
103.466
103.369
103.417
103.391
103.227
103.141
102.676
102.745
102.865
102.894
102.871
102.92
102.824
102.849
102.658
102.648
102.418
102.374
107.78
273.663
432.336
588.467
749.214
906.993
1063.57
1219.08
1370.51
1520.57
1669.84
1816.96
1962.21
2106.42
2249.88
2392.32
2533.12
2672.63
2810.74
2945.96
3038.24
3092.85
3144.62
3192.48
3234.82
3269.57
3294.44
3307.47
3307.47
3294.44
3269.57
3234.82
3192.48
3144.62
3092.85
3038.24
2945.96
2810.74
2672.63
2533.12
2392.32
2249.88
2106.42
1962.21
1816.96
1669.84
1520.57
1370.51
1219.08
1063.57
906.993
749.214
588.467
432.336
273.663
107.78
102.374
102.418
102.648
102.658
102.849
102.824
102.92
102.871
102.894
102.865
102.745
102.676
102.157
102.212
102.298
102.326
102.316
102.336
102.271
102.257
102.121
102.07
101.906
101.868
102.041
101.651
101.567
120.272
283.294
440.87
597.562
753.932
904.642
1054.48
1204.1
1351.15
1496.13
1640.21
1783.79
1926.46
2067.31
2207.17
2346.41
2484.19
2579.09
2635.88
2690.58
2742.17
2788.87
2828.04
2856.58
2871.71
2871.71
2856.58
2828.04
2788.87
2742.17
2690.58
2635.88
2579.09
2484.19
2346.41
2207.17
2067.31
1926.46
1783.79
1640.21
1496.13
1351.15
1204.1
1054.48
904.642
753.932
597.562
440.87
283.294
120.272
101.567
101.651
102.041
101.868
101.906
102.07
102.121
102.257
102.271
102.336
102.316
102.326
102.298
102.212
102.157
101.582
101.623
101.683
101.708
101.704
101.707
101.659
101.624
101.52
101.451
101.329
101.285
101.339
101.087
100.997
101.071
100.647
100.503
102.001
244.983
393.795
543.265
693.61
840.496
985.016
1128.92
1272.69
1415.73
1556.54
1696.74
1837.35
1978.6
2076.65
2136.19
2194.8
2251.73
2305.04
2351.19
2385.67
2404.28
2404.28
2385.67
2351.19
2305.04
2251.73
2194.8
2136.19
2076.65
1978.6
1837.35
1696.74
1556.54
1415.73
1272.69
1128.92
985.016
840.496
693.61
543.265
393.795
244.983
102.001
100.503
100.647
101.071
100.997
101.087
101.339
101.285
101.329
101.451
101.52
101.624
101.659
101.707
101.704
101.708
101.683
101.623
101.582
100.944
100.973
101.015
101.034
101.032
101.024
100.984
100.94
100.855
100.781
100.683
100.63
100.616
100.443
100.346
100.316
100.029
99.8794
99.8534
99.4465
99.2335
99.1948
137.571
281.004
424.528
568.13
712.213
855.924
996.402
1136.83
1278.92
1425
1526.34
1588.99
1652.59
1717
1780.47
1838
1882.48
1907.17
1907.17
1882.48
1838
1780.47
1717
1652.59
1588.99
1526.34
1425
1278.92
1136.83
996.402
855.924
712.213
568.13
424.528
281.004
137.571
99.1948
99.2335
99.4465
99.8534
99.8794
100.029
100.316
100.346
100.443
100.616
100.63
100.683
100.781
100.855
100.94
100.984
101.024
101.032
101.034
101.015
100.973
100.944
100.239
100.259
100.286
100.299
100.296
100.282
100.246
100.198
100.125
100.051
99.9657
99.904
99.8535
99.7218
99.6194
99.5361
99.3244
99.1721
99.0658
98.7747
98.5765
98.4861
98.4219
98.0213
97.8023
97.7378
104.175
243.037
382.15
522.437
665.754
819.144
922.674
988.142
1057.38
1131.81
1211.38
1288.46
1350.56
1386.78
1386.78
1350.56
1288.46
1211.38
1131.81
1057.38
988.142
922.674
819.144
665.754
522.437
382.15
243.037
104.175
97.7378
97.8023
98.0213
98.4219
98.4861
98.5765
98.7747
99.0658
99.1721
99.3244
99.5361
99.6194
99.7218
99.8535
99.904
99.9657
100.051
100.125
100.198
100.246
100.282
100.296
100.299
100.286
100.259
100.239
99.4604
99.4732
99.4899
99.4971
99.4911
99.4732
99.4379
99.3895
99.3235
99.2518
99.174
99.1054
99.0359
98.9242
98.8182
98.7104
98.5384
98.3857
98.2441
98.0165
97.8313
97.7055
97.5766
97.2894
97.0839
96.9756
96.9225
96.4524
96.1525
95.9704
96.0099
165.947
260.815
326.481
400.306
486.153
592.768
705.269
799.104
860.063
860.063
799.104
705.269
592.768
486.153
400.306
326.481
260.815
165.947
96.0099
95.9704
96.1525
96.4524
96.9225
96.9756
97.0839
97.2894
97.5766
97.7055
97.8313
98.0165
98.2441
98.3857
98.5384
98.7104
98.8182
98.9242
99.0359
99.1054
99.174
99.2518
99.3235
99.3895
99.4379
99.4732
99.4911
99.4971
99.4899
99.4732
99.4604
98.6034
98.6106
98.6193
98.6208
98.6116
98.5907
98.5556
98.5077
98.4462
98.3773
98.3031
98.2298
98.1506
98.0478
97.94
97.8224
97.6709
97.5202
97.3665
97.1734
96.9976
96.8502
96.693
96.4641
96.2693
96.1245
95.9799
95.6455
95.3702
95.1663
95.0039
94.6519
94.4199
94.2968
94.1949
94.1247
93.7207
135.872
256.699
376.244
376.244
256.699
135.872
93.7207
94.1247
94.1949
94.2968
94.4199
94.6519
95.0039
95.1663
95.3702
95.6455
95.9799
96.1245
96.2693
96.4641
96.693
96.8502
96.9976
97.1734
97.3665
97.5202
97.6709
97.8224
97.94
98.0478
98.1506
98.2298
98.3031
98.3773
98.4462
98.5077
98.5556
98.5907
98.6116
98.6208
98.6193
98.6106
98.6034
97.6609
97.6641
97.6667
97.6633
97.6508
97.6275
97.5921
97.545
97.4865
97.42
97.3475
97.2714
97.1875
97.0883
96.9799
96.8597
96.7192
96.5719
96.4169
96.2428
96.0737
95.9154
95.7476
95.5476
95.3593
95.191
95.0088
94.7411
94.4885
94.2706
94.0611
93.7691
93.5614
93.4396
93.3218
93.1986
93.0407
92.8923
92.3751
121.183
121.183
92.3751
92.8923
93.0407
93.1986
93.3218
93.4396
93.5614
93.7691
94.0611
94.2706
94.4885
94.7411
95.0088
95.191
95.3593
95.5476
95.7476
95.9154
96.0737
96.2428
96.4169
96.5719
96.7192
96.8597
96.9799
97.0883
97.1875
97.2714
97.3475
97.42
97.4865
97.545
97.5921
97.6275
97.6508
97.6633
97.6667
97.6641
97.6609
96.626
96.6262
96.6243
96.6167
96.6011
96.5759
96.54
96.4936
96.4371
96.3724
96.3008
96.2232
96.1373
96.0395
95.9315
95.8119
95.678
95.5349
95.383
95.2201
95.0561
94.8937
94.7235
94.5377
94.3531
94.1726
93.9777
93.743
93.5077
93.2848
93.0598
92.799
92.6079
92.4913
92.3751
92.2565
92.1326
92.0105
91.6245
88.9662
88.9662
91.6245
92.0105
92.1326
92.2565
92.3751
92.4913
92.6079
92.799
93.0598
93.2848
93.5077
93.743
93.9777
94.1726
94.3531
94.5377
94.7235
94.8937
95.0561
95.2201
95.383
95.5349
95.678
95.8119
95.9315
96.0395
96.1373
96.2232
96.3008
96.3724
96.4371
96.4936
96.54
96.5759
96.6011
96.6167
96.6243
96.6262
96.626
95.4907
95.4888
95.4835
95.4727
95.4545
95.4276
95.3912
95.3452
95.29
95.2266
95.1557
95.0776
94.9909
94.8942
94.7872
94.6695
94.5403
94.4016
94.2544
94.0988
93.9393
93.7769
93.6078
93.4294
93.2476
93.0626
92.8657
92.6486
92.4259
92.2047
91.9787
91.7368
91.5593
91.4505
91.3425
91.2358
91.1319
91.0352
90.7464
88.898
88.898
90.7464
91.0352
91.1319
91.2358
91.3425
91.4505
91.5593
91.7368
91.9787
92.2047
92.4259
92.6486
92.8657
93.0626
93.2476
93.4294
93.6078
93.7769
93.9393
94.0988
94.2544
94.4016
94.5403
94.6695
94.7872
94.8942
94.9909
95.0776
95.1557
95.2266
95.29
95.3452
95.3912
95.4276
95.4545
95.4727
95.4835
95.4888
95.4907
94.2467
94.2433
94.2356
94.2222
94.2018
94.1735
94.1366
94.0909
94.0365
93.9741
93.9039
93.8259
93.7394
93.6437
93.5384
93.4231
93.2979
93.1636
93.0212
92.8713
92.716
92.5558
92.3893
92.2158
92.0368
91.8521
91.6577
91.4514
91.2386
91.0227
90.8021
90.574
90.408
90.3065
90.2062
90.1081
90.0133
89.9234
89.6535
87.9646
87.9646
89.6535
89.9234
90.0133
90.1081
90.2062
90.3065
90.408
90.574
90.8021
91.0227
91.2386
91.4514
91.6577
91.8521
92.0368
92.2158
92.3893
92.5558
92.716
92.8713
93.0212
93.1636
93.2979
93.4231
93.5384
93.6437
93.7394
93.8259
93.9039
93.9741
94.0365
94.0909
94.1366
94.1735
94.2018
94.2222
94.2356
94.2433
94.2467
92.7981
92.7936
92.784
92.7687
92.7466
92.7171
92.6797
92.6341
92.5805
92.5189
92.4495
92.3721
92.2865
92.1922
92.089
91.9766
91.8554
91.7257
91.5881
91.4435
91.2928
91.1361
90.9733
90.8041
90.6288
90.4471
90.2575
90.0597
89.8558
89.6475
89.4351
89.219
89.0628
88.9673
88.8729
88.7802
88.6897
88.6017
88.3388
86.7466
86.7466
88.3388
88.6017
88.6897
88.7802
88.8729
88.9673
89.0628
89.219
89.4351
89.6475
89.8558
90.0597
90.2575
90.4471
90.6288
90.8041
90.9733
91.1361
91.2928
91.4435
91.5881
91.7257
91.8554
91.9766
92.089
92.1922
92.2865
92.3721
92.4495
92.5189
92.5805
92.6341
92.6797
92.7171
92.7466
92.7687
92.784
92.7936
92.7981
91.2046
91.1994
91.1887
91.172
91.1487
91.1184
91.0807
91.0353
90.9823
90.9215
90.853
90.7767
90.6925
90.6
90.4992
90.39
90.2726
90.1472
90.0145
89.8747
89.7286
89.5762
89.4177
89.253
89.0822
88.905
88.7212
88.5308
88.3349
88.1346
87.9307
87.7246
87.5757
87.4845
87.3939
87.3044
87.2161
87.1291
86.8735
85.3992
85.3992
86.8735
87.1291
87.2161
87.3044
87.3939
87.4845
87.5757
87.7246
87.9307
88.1346
88.3349
88.5308
88.7212
88.905
89.0822
89.253
89.4177
89.5762
89.7286
89.8747
90.0145
90.1472
90.2726
90.39
90.4992
90.6
90.6925
90.7767
90.853
90.9215
90.9823
91.0353
91.0807
91.1184
91.1487
91.172
91.1887
91.1994
91.2046
89.6164
89.6108
89.5994
89.5819
89.5579
89.5272
89.4893
89.4442
89.3917
89.3318
89.2644
89.1894
89.1067
89.0162
88.9178
88.8116
88.6977
88.5763
88.4477
88.3124
88.1706
88.0225
87.8684
87.7081
87.5419
87.3696
87.1913
87.0074
86.8184
86.6252
86.4287
86.2302
86.0864
85.9981
85.91
85.8225
85.7355
85.6492
85.4005
84.0394
84.0394
85.4005
85.6492
85.7355
85.8225
85.91
85.9981
86.0864
86.2302
86.4287
86.6252
86.8184
87.0074
87.1913
87.3696
87.5419
87.7081
87.8684
88.0225
88.1706
88.3124
88.4477
88.5763
88.6977
88.8116
88.9178
89.0162
89.1067
89.1894
89.2644
89.3318
89.3917
89.4442
89.4893
89.5272
89.5579
89.5819
89.5994
89.6108
89.6164
88.0337
88.0279
88.0161
87.9982
87.9739
87.943
87.9053
87.8605
87.8087
87.7496
87.6833
87.6097
87.5287
87.4402
87.3443
87.2409
87.1302
87.0124
86.8878
86.7565
86.6188
86.4749
86.325
86.1692
86.0075
85.8402
85.6672
85.489
85.3061
85.1191
84.9289
84.7363
84.5963
84.51
84.4238
84.3377
84.2517
84.1659
83.9241
82.6707
82.6707
83.9241
84.1659
84.2517
84.3377
84.4238
84.51
84.5963
84.7363
84.9289
85.1191
85.3061
85.489
85.6672
85.8402
86.0075
86.1692
86.325
86.4749
86.6188
86.7565
86.8878
87.0124
87.1302
87.2409
87.3443
87.4402
87.5287
87.6097
87.6833
87.7496
87.8087
87.8605
87.9053
87.943
87.9739
87.9982
88.0161
88.0279
88.0337
86.4569
86.451
86.439
86.421
86.3966
86.3657
86.3282
86.2839
86.2328
86.1747
86.1095
86.0374
85.9581
85.8717
85.7781
85.6775
85.5699
85.4555
85.3344
85.2069
85.0732
84.9334
84.7877
84.6361
84.479
84.3163
84.1483
83.9754
83.7979
83.6163
83.4313
83.2436
83.1066
83.022
82.9371
82.8521
82.7669
82.6815
82.4464
81.2956
81.2956
82.4464
82.6815
82.7669
82.8521
82.9371
83.022
83.1066
83.2436
83.4313
83.6163
83.7979
83.9754
84.1483
84.3163
84.479
84.6361
84.7877
84.9334
85.0732
85.2069
85.3344
85.4555
85.5699
85.6775
85.7781
85.8717
85.9581
86.0374
86.1095
86.1747
86.2328
86.2839
86.3282
86.3657
86.3966
86.421
86.439
86.451
86.4569
84.886
84.8801
84.8681
84.85
84.8257
84.795
84.7579
84.7142
84.6638
84.6067
84.5429
84.4722
84.3947
84.3103
84.2191
84.1211
84.0164
83.9052
83.7876
83.6637
83.5337
83.3978
83.2561
83.1087
82.9559
82.7977
82.6344
82.4663
82.2937
82.1169
81.9365
81.753
81.6184
81.5352
81.4514
81.3673
81.2828
81.1978
80.9693
79.9162
79.9162
80.9693
81.1978
81.2828
81.3673
81.4514
81.5352
81.6184
81.753
81.9365
82.1169
82.2937
82.4663
82.6344
82.7977
82.9559
83.1087
83.2561
83.3978
83.5337
83.6637
83.7876
83.9052
84.0164
84.1211
84.2191
84.3103
84.3947
84.4722
84.5429
84.6067
84.6638
84.7142
84.7579
84.795
84.8257
84.85
84.8681
84.8801
84.886
83.3211
83.3152
83.3032
83.2853
83.2611
83.2308
83.1941
83.1511
83.1016
83.0456
82.983
82.9138
82.8381
82.7557
82.6668
82.5714
82.4695
82.3613
82.2469
82.1265
82.0001
81.8679
81.7301
81.5868
81.4381
81.2842
81.1254
80.9617
80.7936
80.6212
80.4449
80.265
80.1327
80.0506
79.9679
79.8846
79.8007
79.7161
79.4943
78.5343
78.5343
79.4943
79.7161
79.8007
79.8846
79.9679
80.0506
80.1327
80.265
80.4449
80.6212
80.7936
80.9617
81.1254
81.2842
81.4381
81.5868
81.7301
81.8679
82.0001
82.1265
82.2469
82.3613
82.4695
82.5714
82.6668
82.7557
82.8381
82.9138
82.983
83.0456
83.1016
83.1511
83.1941
83.2308
83.2611
83.2853
83.3032
83.3152
83.3211
81.7622
81.7563
81.7444
81.7266
81.7028
81.6729
81.6368
81.5945
81.5459
81.491
81.4297
81.3621
81.2881
81.2077
81.121
81.0281
80.9289
80.8237
80.7124
80.5952
80.4723
80.3437
80.2096
80.0702
79.9255
79.7758
79.6211
79.4617
79.2977
79.1294
78.9569
78.7804
78.6501
78.5692
78.4875
78.405
78.3217
78.2376
78.0226
77.1511
77.1511
78.0226
78.2376
78.3217
78.405
78.4875
78.5692
78.6501
78.7804
78.9569
79.1294
79.2977
79.4617
79.6211
79.7758
79.9255
80.0702
80.2096
80.3437
80.4723
80.5952
80.7124
80.8237
80.9289
81.0281
81.121
81.2077
81.2881
81.3621
81.4297
81.491
81.5459
81.5945
81.6368
81.6729
81.7028
81.7266
81.7444
81.7563
81.7622
80.2091
80.2033
80.1916
80.1741
80.1506
80.1211
80.0856
80.0441
79.9965
79.9427
79.8828
79.8167
79.7445
79.6661
79.5816
79.491
79.3945
79.292
79.1837
79.0697
78.9501
78.825
78.6946
78.5589
78.418
78.2722
78.1216
77.9662
77.8062
77.6417
77.4729
77.2997
77.1714
77.0916
77.0109
76.9293
76.8468
76.7633
76.5554
75.7679
75.7679
76.5554
76.7633
76.8468
76.9293
77.0109
77.0916
77.1714
77.2997
77.4729
77.6417
77.8062
77.9662
78.1216
78.2722
78.418
78.5589
78.6946
78.825
78.9501
79.0697
79.1837
79.292
79.3945
79.491
79.5816
79.6661
79.7445
79.8167
79.8828
79.9427
79.9965
80.0441
80.0856
80.1211
80.1506
80.1741
80.1916
80.2033
80.2091
78.6619
78.6562
78.6447
78.6274
78.6043
78.5754
78.5406
78.4999
78.4532
78.4006
78.342
78.2775
78.207
78.1305
78.0481
77.9599
77.8659
77.7661
77.6607
77.5498
77.4334
77.3117
77.1847
77.0526
76.9155
76.7735
76.6268
76.4753
76.3191
76.1585
75.9932
75.8233
75.6972
75.6186
75.539
75.4584
75.3768
75.294
75.0935
74.3855
74.3855
75.0935
75.294
75.3768
75.4584
75.539
75.6186
75.6972
75.8233
75.9932
76.1585
76.3191
76.4753
76.6268
76.7735
76.9155
77.0526
77.1847
77.3117
77.4334
77.5498
77.6607
77.7661
77.8659
77.9599
78.0481
78.1305
78.207
78.2775
78.342
78.4006
78.4532
78.4999
78.5406
78.5754
78.6043
78.6274
78.6447
78.6562
78.6619
77.1205
77.1148
77.1035
77.0866
77.0639
77.0355
77.0014
76.9616
76.9159
76.8645
76.8073
76.7442
76.6754
76.6009
76.5206
76.4346
76.343
76.2459
76.1433
76.0353
75.9221
75.8036
75.68
75.5514
75.418
75.2797
75.1366
74.989
74.8367
74.6797
74.5182
74.3517
74.2279
74.1507
74.0723
73.9929
73.9123
73.8304
73.6378
73.0048
73.0048
73.6378
73.8304
73.9123
73.9929
74.0723
74.1507
74.2279
74.3517
74.5182
74.6797
74.8367
74.989
75.1366
75.2797
75.418
75.5514
75.68
75.8036
75.9221
76.0353
76.1433
76.2459
76.343
76.4346
76.5206
76.6009
76.6754
76.7442
76.8073
76.8645
76.9159
76.9616
77.0014
77.0355
77.0639
77.0866
77.1035
77.1148
77.1205
75.5846
75.5791
75.568
75.5514
75.5292
75.5014
75.468
75.429
75.3844
75.3341
75.2783
75.2168
75.1496
75.0769
74.9987
74.915
74.8258
74.7312
74.6313
74.5262
74.4159
74.3006
74.1803
74.0551
73.9252
73.7905
73.6512
73.5073
73.3588
73.2057
73.0479
72.8852
72.7639
72.6882
72.6113
72.5333
72.454
72.3733
72.1891
71.6266
71.6266
72.1891
72.3733
72.454
72.5333
72.6113
72.6882
72.7639
72.8852
73.0479
73.2057
73.3588
73.5073
73.6512
73.7905
73.9252
74.0551
74.1803
74.3006
74.4159
74.5262
74.6313
74.7312
74.8258
74.915
74.9987
75.0769
75.1496
75.2168
75.2783
75.3341
75.3844
75.429
75.468
75.5014
75.5292
75.5514
75.568
75.5791
75.5846
74.0544
74.0489
74.0381
74.0218
74.0001
73.9729
73.9402
73.9021
73.8585
73.8094
73.7549
73.6949
73.6294
73.5586
73.4823
73.4007
73.3139
73.2218
73.1245
73.0222
72.9148
72.8026
72.6855
72.5636
72.4371
72.306
72.1703
72.0302
71.8856
71.7364
71.5826
71.4239
71.3055
71.2315
71.1564
71.08
71.0024
70.9233
70.7484
70.2515
70.2515
70.7484
70.9233
71.0024
71.08
71.1564
71.2315
71.3055
71.4239
71.5826
71.7364
71.8856
72.0302
72.1703
72.306
72.4371
72.5636
72.6855
72.8026
72.9148
73.0222
73.1245
73.2218
73.3139
73.4007
73.4823
73.5586
73.6294
73.6949
73.7549
73.8094
73.8585
73.9021
73.9402
73.9729
74.0001
74.0218
74.0381
74.0489
74.0544
72.5295
72.5242
72.5136
72.4976
72.4764
72.4498
72.4179
72.3807
72.3381
72.2902
72.237
72.1785
72.1146
72.0456
71.9713
71.8918
71.8072
71.7175
71.6228
71.5231
71.4187
71.3094
71.1954
71.0768
70.9536
70.826
70.694
70.5576
70.4169
70.2717
70.1221
69.9678
69.8527
69.7808
69.7077
69.6334
69.5578
69.4808
69.3161
68.8798
68.8798
69.3161
69.4808
69.5578
69.6334
69.7077
69.7808
69.8527
69.9678
70.1221
70.2717
70.4169
70.5576
70.694
70.826
70.9536
71.0768
71.1954
71.3094
71.4187
71.5231
71.6228
71.7175
71.8072
71.8918
71.9713
72.0456
72.1146
72.1785
72.237
72.2902
72.3381
72.3807
72.4179
72.4498
72.4764
72.4976
72.5136
72.5242
72.5295
71.0099
71.0048
70.9944
70.9788
70.9581
70.9321
70.9009
70.8646
70.823
70.7763
70.7244
70.6673
70.6051
70.5378
70.4654
70.388
70.3056
70.2182
70.126
70.029
69.9273
69.8209
69.7099
69.5945
69.4746
69.3504
69.222
69.0893
68.9525
68.8115
68.6663
68.5168
68.4053
68.3358
68.2652
68.1934
68.1204
68.0461
67.8927
67.5117
67.5117
67.8927
68.0461
68.1204
68.1934
68.2652
68.3358
68.4053
68.5168
68.6663
68.8115
68.9525
69.0893
69.222
69.3504
69.4746
69.5945
69.7099
69.8209
69.9273
70.029
70.126
70.2182
70.3056
70.388
70.4654
70.5378
70.6051
70.6673
70.7244
70.7763
70.823
70.8646
70.9009
70.9321
70.9581
70.9788
70.9944
71.0048
71.0099
69.4956
69.4905
69.4804
69.4652
69.4449
69.4196
69.3892
69.3537
69.3132
69.2676
69.217
69.1613
69.1007
69.0351
68.9646
68.8891
68.8089
68.7238
68.634
68.5396
68.4405
68.337
68.2289
68.1166
67.9999
67.8791
67.7542
67.6253
67.4924
67.3556
67.215
67.0704
66.9631
66.8961
66.8283
66.7596
66.6898
66.6188
66.4781
66.1464
66.1464
66.4781
66.6188
66.6898
66.7596
66.8283
66.8961
66.9631
67.0704
67.215
67.3556
67.4924
67.6253
67.7542
67.8791
67.9999
68.1166
68.2289
68.337
68.4405
68.5396
68.634
68.7238
68.8089
68.8891
68.9646
69.0351
69.1007
69.1613
69.217
69.2676
69.3132
69.3537
69.3892
69.4196
69.4449
69.4652
69.4804
69.4905
69.4956
67.9863
67.9813
67.9714
67.9566
67.9368
67.9121
67.8824
67.8478
67.8083
67.7639
67.7145
67.6603
67.6012
67.5373
67.4686
67.3952
67.317
67.2342
67.1467
67.0548
66.9583
66.8575
66.7523
66.6429
66.5294
66.4119
66.2904
66.1651
66.0361
65.9035
65.7675
65.6281
65.5251
65.4611
65.3964
65.331
65.265
65.1982
65.0714
64.7821
64.7821
65.0714
65.1982
65.265
65.331
65.3964
65.4611
65.5251
65.6281
65.7675
65.9035
66.0361
66.1651
66.2904
66.4119
66.5294
66.6429
66.7523
66.8575
66.9583
67.0548
67.1467
67.2342
67.317
67.3952
67.4686
67.5373
67.6012
67.6603
67.7145
67.7639
67.8083
67.8478
67.8824
67.9121
67.9368
67.9566
67.9714
67.9813
67.9863
66.4819
66.4771
66.4675
66.453
66.4337
66.4096
66.3807
66.3469
66.3084
66.2651
66.217
66.1642
66.1066
66.0444
65.9774
65.9059
65.8298
65.7491
65.664
65.5744
65.4805
65.3823
65.2799
65.1735
65.063
64.9486
64.8304
64.7087
64.5834
64.4549
64.3234
64.1891
64.0904
64.0292
63.9678
63.906
63.844
63.7818
63.6698
63.4147
63.4147
63.6698
63.7818
63.844
63.906
63.9678
64.0292
64.0904
64.1891
64.3234
64.4549
64.5834
64.7087
64.8304
64.9486
65.063
65.1735
65.2799
65.3823
65.4805
65.5744
65.664
65.7491
65.8298
65.9059
65.9774
66.0444
66.1066
66.1642
66.217
66.2651
66.3084
66.3469
66.3807
66.4096
66.4337
66.453
66.4675
66.4771
66.4819
64.9824
64.9777
64.9683
64.9542
64.9354
64.9119
64.8837
64.8508
64.8133
64.7711
64.7242
64.6728
64.6167
64.5561
64.4909
64.4212
64.3471
64.2685
64.1856
64.0984
64.0069
63.9113
63.8117
63.708
63.6004
63.4891
63.3741
63.2557
63.134
63.0093
62.882
62.7524
62.6577
62.5992
62.5407
62.4822
62.4239
62.366
62.2678
62.0368
62.0368
62.2678
62.366
62.4239
62.4822
62.5407
62.5992
62.6577
62.7524
62.882
63.0093
63.134
63.2557
63.3741
63.4891
63.6004
63.708
63.8117
63.9113
64.0069
64.0984
64.1856
64.2685
64.3471
64.4212
64.4909
64.5561
64.6167
64.6728
64.7242
64.7711
64.8133
64.8508
64.8837
64.9119
64.9354
64.9542
64.9683
64.9777
64.9824
63.4876
63.483
63.4738
63.4601
63.4418
63.4189
63.3914
63.3594
63.3228
63.2817
63.2361
63.1859
63.1313
63.0723
63.0088
62.941
62.8688
62.7923
62.7116
62.6266
62.5376
62.4444
62.3474
62.2464
62.1416
62.0332
61.9213
61.806
61.6876
61.5664
61.4428
61.3173
61.2258
61.1695
61.1133
61.0572
61.0016
60.9466
60.8586
60.6415
60.6415
60.8586
60.9466
61.0016
61.0572
61.1133
61.1695
61.2258
61.3173
61.4428
61.5664
61.6876
61.806
61.9213
62.0332
62.1416
62.2464
62.3474
62.4444
62.5376
62.6266
62.7116
62.7923
62.8688
62.941
63.0088
63.0723
63.1313
63.1859
63.2361
63.2817
63.3228
63.3594
63.3914
63.4189
63.4418
63.4601
63.4738
63.483
63.4876
61.9973
61.9929
61.9839
61.9705
61.9527
61.9304
61.9037
61.8725
61.8369
61.7968
61.7524
61.7036
61.6504
61.593
61.5312
61.4651
61.3948
61.3203
61.2417
61.159
61.0722
60.9815
60.8869
60.7886
60.6865
60.5808
60.4717
60.3594
60.244
60.1259
60.0055
59.8833
59.7943
59.7395
59.6848
59.6303
59.5761
59.5224
59.4416
59.2323
59.2323
59.4416
59.5224
59.5761
59.6303
59.6848
59.7395
59.7943
59.8833
60.0055
60.1259
60.244
60.3594
60.4717
60.5808
60.6865
60.7886
60.8869
60.9815
61.0722
61.159
61.2417
61.3203
61.3948
61.4651
61.5312
61.593
61.6504
61.7036
61.7524
61.7968
61.8369
61.8725
61.9037
61.9304
61.9527
61.9705
61.9839
61.9929
61.9973
60.5116
60.5072
60.4985
60.4855
60.4681
60.4464
60.4204
60.39
60.3553
60.3164
60.2731
60.2256
60.1739
60.1179
60.0578
59.9934
59.925
59.8525
59.7759
59.6954
59.6109
59.5225
59.4303
59.3344
59.2349
59.1319
59.0255
58.9158
58.8031
58.6877
58.5699
58.4503
58.3629
58.3091
58.2553
58.2016
58.1481
58.095
58.0207
57.8175
57.8175
58.0207
58.095
58.1481
58.2016
58.2553
58.3091
58.3629
58.4503
58.5699
58.6877
58.8031
58.9158
59.0255
59.1319
59.2349
59.3344
59.4303
59.5225
59.6109
59.6954
59.7759
59.8525
59.925
59.9934
60.0578
60.1179
60.1739
60.2256
60.2731
60.3164
60.3553
60.39
60.4204
60.4464
60.4681
60.4855
60.4985
60.5072
60.5116
59.0301
59.0259
59.0174
59.0047
58.9878
58.9667
58.9414
58.9118
58.8781
58.8402
58.7981
58.7519
58.7015
58.6471
58.5885
58.5259
58.4593
58.3887
58.3141
58.2357
58.1534
58.0673
57.9774
57.884
57.7869
57.6863
57.5824
57.4753
57.365
57.252
57.1363
57.0184
56.9321
56.8787
56.8252
56.7718
56.7184
56.6654
56.5977
56.4003
56.4003
56.5977
56.6654
56.7184
56.7718
56.8252
56.8787
56.9321
57.0184
57.1363
57.252
57.365
57.4753
57.5824
57.6863
57.7869
57.884
57.9774
58.0673
58.1534
58.2357
58.3141
58.3887
58.4593
58.5259
58.5885
58.6471
58.7015
58.7519
58.7981
58.8402
58.8781
58.9118
58.9414
58.9667
58.9878
59.0047
59.0174
59.0259
59.0301
57.5529
57.5488
57.5406
57.5282
57.5118
57.4912
57.4666
57.4379
57.405
57.3682
57.3272
57.2823
57.2333
57.1803
57.1233
57.0624
56.9976
56.9288
56.8562
56.7798
56.6997
56.6158
56.5282
56.437
56.3423
56.2441
56.1426
56.0378
55.9298
55.8188
55.7049
55.5883
55.5023
55.449
55.3952
55.3412
55.287
55.2332
55.1721
54.9818
54.9818
55.1721
55.2332
55.287
55.3412
55.3952
55.449
55.5023
55.5883
55.7049
55.8188
55.9298
56.0378
56.1426
56.2441
56.3423
56.437
56.5282
56.6158
56.6997
56.7798
56.8562
56.9288
56.9976
57.0624
57.1233
57.1803
57.2333
57.2823
57.3272
57.3682
57.405
57.4379
57.4666
57.4912
57.5118
57.5282
57.5406
57.5488
57.5529
56.0798
56.0758
56.0678
56.0558
56.0399
56.0199
55.9959
55.968
55.9361
55.9002
55.8604
55.8167
55.769
55.7175
55.6621
55.6028
55.5397
55.4728
55.4022
55.3278
55.2497
55.168
55.0826
54.9937
54.9012
54.8053
54.706
54.6034
54.4975
54.3884
54.2762
54.1607
54.0748
54.0212
53.9667
53.9111
53.854
53.7948
53.7325
53.6243
53.6243
53.7325
53.7948
53.854
53.9111
53.9667
54.0212
54.0748
54.1607
54.2762
54.3884
54.4975
54.6034
54.706
54.8053
54.9012
54.9937
55.0826
55.168
55.2497
55.3278
55.4022
55.4728
55.5397
55.6028
55.6621
55.7175
55.769
55.8167
55.8604
55.9002
55.9361
55.968
55.9959
56.0199
56.0399
56.0558
56.0678
56.0758
56.0798
54.6109
54.607
54.5992
54.5875
54.572
54.5526
54.5293
54.5021
54.4711
54.4363
54.3976
54.3551
54.3088
54.2586
54.2048
54.1471
54.0858
54.0207
53.9519
53.8795
53.8035
53.7238
53.6406
53.5539
53.4637
53.37
53.2729
53.1724
53.0686
52.9613
52.8507
52.7365
52.6512
52.5979
52.5437
52.4885
52.4321
52.3747
52.3153
52.2113
52.2113
52.3153
52.3747
52.4321
52.4885
52.5437
52.5979
52.6512
52.7365
52.8507
52.9613
53.0686
53.1724
53.2729
53.37
53.4637
53.5539
53.6406
53.7238
53.8035
53.8795
53.9519
54.0207
54.0858
54.1471
54.2048
54.2586
54.3088
54.3551
54.3976
54.4363
54.4711
54.5021
54.5293
54.5526
54.572
54.5875
54.5992
54.607
54.6109
53.1457
53.142
53.1344
53.1231
53.108
53.0891
53.0665
53.0402
53.01
52.9762
52.9386
52.8973
52.8523
52.8036
52.7512
52.6952
52.6355
52.5722
52.5053
52.4348
52.3608
52.2832
52.2022
52.1176
52.0295
51.938
51.8431
51.7448
51.6429
51.5376
51.4288
51.3162
51.232
51.1793
51.1258
51.0713
51.0159
50.9596
50.9014
50.8005
50.8005
50.9014
50.9596
51.0159
51.0713
51.1258
51.1793
51.232
51.3162
51.4288
51.5376
51.6429
51.7448
51.8431
51.938
52.0295
52.1176
52.2022
52.2832
52.3608
52.4348
52.5053
52.5722
52.6355
52.6952
52.7512
52.8036
52.8523
52.8973
52.9386
52.9762
53.01
53.0402
53.0665
53.0891
53.108
53.1231
53.1344
53.142
53.1457
51.6844
51.6808
51.6734
51.6624
51.6478
51.6295
51.6075
51.5819
51.5527
51.5198
51.4833
51.4432
51.3995
51.3522
51.3013
51.2469
51.1889
51.1273
51.0623
50.9937
50.9217
50.8462
50.7672
50.6848
50.5989
50.5096
50.4168
50.3206
50.2208
50.1175
50.0106
49.8998
49.8169
49.7651
49.7124
49.6589
49.6045
49.5491
49.492
49.3942
49.3942
49.492
49.5491
49.6045
49.6589
49.7124
49.7651
49.8169
49.8998
50.0106
50.1175
50.2208
50.3206
50.4168
50.5096
50.5989
50.6848
50.7672
50.8462
50.9217
50.9937
51.0623
51.1273
51.1889
51.2469
51.3013
51.3522
51.3995
51.4432
51.4833
51.5198
51.5527
51.5819
51.6075
51.6295
51.6478
51.6624
51.6734
51.6808
51.6844
50.2268
50.2232
50.2161
50.2054
50.1912
50.1735
50.1522
50.1273
50.099
50.0671
50.0316
49.9927
49.9503
49.9044
49.855
49.8021
49.7458
49.686
49.6228
49.5561
49.4861
49.4126
49.3357
49.2554
49.1716
49.0845
48.9939
48.8999
48.8023
48.7011
48.5962
48.4875
48.4061
48.3552
48.3035
48.2509
48.1975
48.1432
48.0872
47.9925
47.9925
48.0872
48.1432
48.1975
48.2509
48.3035
48.3552
48.4061
48.4875
48.5962
48.7011
48.8023
48.8999
48.9939
49.0845
49.1716
49.2554
49.3357
49.4126
49.4861
49.5561
49.6228
49.686
49.7458
49.8021
49.855
49.9044
49.9503
49.9927
50.0316
50.0671
50.099
50.1273
50.1522
50.1735
50.1912
50.2054
50.2161
50.2232
50.2268
48.7727
48.7692
48.7623
48.752
48.7382
48.721
48.7003
48.6763
48.6488
48.6178
48.5835
48.5457
48.5046
48.46
48.4121
48.3608
48.3061
48.2481
48.1867
48.1219
48.0538
47.9824
47.9076
47.8294
47.7478
47.6629
47.5745
47.4827
47.3873
47.2883
47.1857
47.0792
46.9994
46.9495
46.8988
46.8473
46.795
46.7418
46.6869
46.5952
46.5952
46.6869
46.7418
46.795
46.8473
46.8988
46.9495
46.9994
47.0792
47.1857
47.2883
47.3873
47.4827
47.5745
47.6629
47.7478
47.8294
47.9076
47.9824
48.0538
48.1219
48.1867
48.2481
48.3061
48.3608
48.4121
48.46
48.5046
48.5457
48.5835
48.6178
48.6488
48.6763
48.7003
48.721
48.7382
48.752
48.7623
48.7692
48.7727
47.322
47.3187
47.312
47.302
47.2886
47.272
47.252
47.2286
47.202
47.172
47.1387
47.1022
47.0623
47.0191
46.9726
46.9229
46.8699
46.8136
46.754
46.6911
46.625
46.5555
46.4828
46.4068
46.3274
46.2447
46.1586
46.069
45.9759
45.8793
45.7789
45.6748
45.5967