/*--------------------------------*- C++ -*----------------------------------*\
  =========                 |
  \\      /  F ield         | OpenFOAM: The Open Source CFD Toolbox
   \\    /   O peration     | Website:  https://openfoam.org
    \\  /    A nd           | Version:  10
     \\/     M anipulation  |
\*---------------------------------------------------------------------------*/
FoamFile
{
    format      ascii;
    class       surfaceScalarField;
    location    "1600";
    object      phi;
}
// * * * * * * * * * * * * * * * * * * * * * * * * * * * * * * * * * * * * * //

dimensions      [0 3 -1 0 0 0 0];

internalField   nonuniform List<scalar> 
12640
(
-1.00326e-09
1.00326e-09
-1.99966e-09
9.96392e-10
-2.98233e-09
9.82676e-10
-3.9445e-09
9.62169e-10
-4.87945e-09
9.34954e-10
-5.7806e-09
9.01143e-10
-6.64148e-09
8.60878e-10
-7.45581e-09
8.14335e-10
-8.21753e-09
7.61724e-10
-8.92083e-09
7.03294e-10
-9.56016e-09
6.39333e-10
-1.01303e-08
5.70169e-10
-1.06265e-08
4.96177e-10
-1.10443e-08
4.17778e-10
-1.13797e-08
3.35439e-10
-1.16294e-08
2.49677e-10
-1.17905e-08
1.61058e-10
-1.18607e-08
7.01953e-11
-1.18384e-08
-2.22497e-11
-1.17228e-08
-1.15573e-10
-1.15138e-08
-2.0903e-10
-1.1212e-08
-3.01842e-10
-1.08188e-08
-3.93203e-10
-1.03365e-08
-4.82286e-10
-9.76821e-09
-5.68255e-10
-9.11794e-09
-6.50274e-10
-8.39042e-09
-7.27518e-10
-7.59123e-09
-7.99187e-10
-6.72672e-09
-8.64519e-10
-5.80391e-09
-9.22801e-10
-4.83053e-09
-9.73383e-10
-3.81484e-09
-1.01569e-09
-3.35266e-09
-4.62185e-10
-2.88464e-09
-4.68017e-10
-2.4116e-09
-4.73042e-10
-1.93435e-09
-4.77247e-10
-1.45373e-09
-4.80623e-10
-9.70565e-10
-4.83162e-10
-4.85707e-10
-4.84858e-10
4.87887e-18
-4.85707e-10
4.85707e-10
-4.85707e-10
9.70565e-10
-4.84858e-10
1.45373e-09
-4.83162e-10
1.93435e-09
-4.80623e-10
2.4116e-09
-4.77247e-10
2.88464e-09
-4.73042e-10
3.35266e-09
-4.68017e-10
3.81484e-09
-4.62185e-10
4.83053e-09
-1.01569e-09
5.80391e-09
-9.73383e-10
6.72672e-09
-9.22801e-10
7.59123e-09
-8.64519e-10
8.39042e-09
-7.99187e-10
9.11794e-09
-7.27518e-10
9.76821e-09
-6.50274e-10
1.03365e-08
-5.68255e-10
1.08188e-08
-4.82286e-10
1.1212e-08
-3.93203e-10
1.15138e-08
-3.01842e-10
1.17228e-08
-2.0903e-10
1.18384e-08
-1.15573e-10
1.18607e-08
-2.22497e-11
1.17905e-08
7.01953e-11
1.16294e-08
1.61058e-10
1.13797e-08
2.49677e-10
1.10443e-08
3.35439e-10
1.06265e-08
4.17778e-10
1.01303e-08
4.96177e-10
9.56016e-09
5.70169e-10
8.92083e-09
6.39333e-10
8.21753e-09
7.03294e-10
7.45581e-09
7.61724e-10
6.64148e-09
8.14335e-10
5.7806e-09
8.60878e-10
4.87945e-09
9.01143e-10
3.9445e-09
9.34954e-10
2.98233e-09
9.62169e-10
1.99966e-09
9.82676e-10
1.00326e-09
9.96392e-10
1.00326e-09
-1.10073e-09
2.10399e-09
-2.19392e-09
2.08958e-09
-3.27207e-09
2.06082e-09
-4.32772e-09
2.01782e-09
-5.35351e-09
1.96075e-09
-6.34222e-09
1.88985e-09
-7.28675e-09
1.80541e-09
-8.18022e-09
1.70781e-09
-9.01597e-09
1.59748e-09
-9.78763e-09
1.47495e-09
-1.04891e-08
1.34082e-09
-1.11147e-08
1.19577e-09
-1.16591e-08
1.04061e-09
-1.21176e-08
8.76194e-10
-1.24856e-08
7.03519e-10
-1.27596e-08
5.23664e-10
-1.29364e-08
3.37816e-10
-1.30135e-08
1.47262e-10
-1.29891e-08
-4.6612e-11
-1.28623e-08
-2.4233e-10
-1.2633e-08
-4.3833e-10
-1.23019e-08
-6.32979e-10
-1.18705e-08
-8.24586e-10
-1.13414e-08
-1.01142e-09
-1.07179e-08
-1.19172e-09
-1.00045e-08
-1.36374e-09
-9.20623e-09
-1.52574e-09
-8.32936e-09
-1.67606e-09
-7.3808e-09
-1.81308e-09
-6.36828e-09
-1.93532e-09
-5.30026e-09
-2.04141e-09
-4.18581e-09
-2.13014e-09
-3.67868e-09
-9.69313e-10
-3.16515e-09
-9.81545e-10
-2.64611e-09
-9.92083e-10
-2.12246e-09
-1.0009e-09
-1.59509e-09
-1.00798e-09
-1.06495e-09
-1.01331e-09
-5.3294e-10
-1.01687e-09
5.20417e-18
-1.01865e-09
5.3294e-10
-1.01865e-09
1.06495e-09
-1.01687e-09
1.59509e-09
-1.01331e-09
2.12246e-09
-1.00798e-09
2.64611e-09
-1.0009e-09
3.16515e-09
-9.92083e-10
3.67868e-09
-9.81545e-10
4.18581e-09
-9.69313e-10
5.30026e-09
-2.13014e-09
6.36828e-09
-2.04141e-09
7.3808e-09
-1.93532e-09
8.32936e-09
-1.81308e-09
9.20623e-09
-1.67606e-09
1.00045e-08
-1.52574e-09
1.07179e-08
-1.36374e-09
1.13414e-08
-1.19172e-09
1.18705e-08
-1.01142e-09
1.23019e-08
-8.24586e-10
1.2633e-08
-6.32979e-10
1.28623e-08
-4.3833e-10
1.29891e-08
-2.4233e-10
1.30135e-08
-4.6612e-11
1.29364e-08
1.47262e-10
1.27596e-08
3.37816e-10
1.24856e-08
5.23664e-10
1.21176e-08
7.03519e-10
1.16591e-08
8.76194e-10
1.11147e-08
1.04061e-09
1.04891e-08
1.19577e-09
9.78763e-09
1.34082e-09
9.01597e-09
1.47495e-09
8.18022e-09
1.59748e-09
7.28675e-09
1.70781e-09
6.34222e-09
1.80541e-09
5.35351e-09
1.88985e-09
4.32772e-09
1.96075e-09
3.27207e-09
2.01782e-09
2.19392e-09
2.06082e-09
1.10073e-09
2.08958e-09
2.10399e-09
-1.20813e-09
3.31213e-09
-2.40799e-09
3.28945e-09
-3.59135e-09
3.24417e-09
-4.75001e-09
3.17649e-09
-5.87592e-09
3.08666e-09
-6.96113e-09
2.97505e-09
-7.99787e-09
2.84215e-09
-8.97857e-09
2.68851e-09
-9.89595e-09
2.51485e-09
-1.0743e-08
2.32198e-09
-1.1513e-08
2.11084e-09
-1.21998e-08
1.88253e-09
-1.27974e-08
1.63828e-09
-1.33007e-08
1.37947e-09
-1.37048e-08
1.10765e-09
-1.40057e-08
8.24523e-10
-1.41998e-08
5.31958e-10
-1.42846e-08
2.31981e-10
-1.42579e-08
-7.32278e-11
-1.41189e-08
-3.81344e-10
-1.38674e-08
-6.89909e-10
-1.3504e-08
-9.96352e-10
-1.30306e-08
-1.29801e-09
-1.24498e-08
-1.59216e-09
-1.17655e-08
-1.87602e-09
-1.09824e-08
-2.14685e-09
-1.01062e-08
-2.40192e-09
-9.14368e-09
-2.63859e-09
-8.10243e-09
-2.85433e-09
-6.99095e-09
-3.04679e-09
-5.81853e-09
-3.21383e-09
-4.59512e-09
-3.35355e-09
-4.03841e-09
-1.52602e-09
-3.47467e-09
-1.54528e-09
-2.90487e-09
-1.56188e-09
-2.33001e-09
-1.57576e-09
-1.75108e-09
-1.58691e-09
-1.16909e-09
-1.5953e-09
-5.85057e-10
-1.6009e-09
4.17375e-18
-1.6037e-09
5.85057e-10
-1.6037e-09
1.16909e-09
-1.6009e-09
1.75108e-09
-1.5953e-09
2.33001e-09
-1.58691e-09
2.90487e-09
-1.57577e-09
3.47467e-09
-1.56188e-09
4.03841e-09
-1.54528e-09
4.59512e-09
-1.52602e-09
5.81853e-09
-3.35355e-09
6.99095e-09
-3.21383e-09
8.10243e-09
-3.04679e-09
9.14368e-09
-2.85433e-09
1.01062e-08
-2.63859e-09
1.09824e-08
-2.40192e-09
1.17655e-08
-2.14685e-09
1.24498e-08
-1.87602e-09
1.30306e-08
-1.59216e-09
1.3504e-08
-1.29801e-09
1.38674e-08
-9.96352e-10
1.41189e-08
-6.89909e-10
1.42579e-08
-3.81344e-10
1.42846e-08
-7.32278e-11
1.41998e-08
2.31981e-10
1.40057e-08
5.31958e-10
1.37048e-08
8.24523e-10
1.33007e-08
1.10765e-09
1.27974e-08
1.37947e-09
1.21998e-08
1.63828e-09
1.1513e-08
1.88253e-09
1.0743e-08
2.11084e-09
9.89595e-09
2.32198e-09
8.97857e-09
2.51485e-09
7.99787e-09
2.68851e-09
6.96113e-09
2.84215e-09
5.87592e-09
2.97505e-09
4.75001e-09
3.08666e-09
3.59135e-09
3.17649e-09
2.40799e-09
3.24417e-09
1.20813e-09
3.28945e-09
3.31213e-09
-1.32667e-09
4.6388e-09
-2.64426e-09
4.60704e-09
-3.94373e-09
4.54364e-09
-5.21611e-09
4.44886e-09
-6.45253e-09
4.32308e-09
-7.64428e-09
4.1668e-09
-8.78282e-09
3.98069e-09
-9.85987e-09
3.76556e-09
-1.08674e-08
3.52237e-09
-1.17977e-08
3.25228e-09
-1.26435e-08
2.95661e-09
-1.33978e-08
2.63688e-09
-1.40543e-08
2.29482e-09
-1.46072e-08
1.93237e-09
-1.50513e-08
1.55169e-09
-1.53819e-08
1.15516e-09
-1.55954e-08
7.45408e-10
-1.56887e-08
3.25263e-10
-1.56597e-08
-1.02221e-10
-1.55072e-08
-5.33787e-10
-1.52311e-08
-9.65993e-10
-1.48322e-08
-1.39524e-09
-1.43125e-08
-1.81779e-09
-1.36748e-08
-2.22983e-09
-1.29233e-08
-2.62748e-09
-1.20633e-08
-3.00688e-09
-1.1101e-08
-3.36421e-09
-1.00439e-08
-3.69576e-09
-8.90018e-09
-3.998e-09
-7.67934e-09
-4.26764e-09
-6.39151e-09
-4.50166e-09
-5.04766e-09
-4.6974e-09
-4.43613e-09
-2.13755e-09
-3.81688e-09
-2.16454e-09
-3.19097e-09
-2.18778e-09
-2.5595e-09
-2.20724e-09
-1.92355e-09
-2.22286e-09
-1.28424e-09
-2.23461e-09
-6.42681e-10
-2.24246e-09
2.60162e-18
-2.24638e-09
6.42681e-10
-2.24638e-09
1.28424e-09
-2.24246e-09
1.92355e-09
-2.23461e-09
2.5595e-09
-2.22286e-09
3.19097e-09
-2.20724e-09
3.81688e-09
-2.18778e-09
4.43613e-09
-2.16454e-09
5.04766e-09
-2.13755e-09
6.39151e-09
-4.6974e-09
7.67934e-09
-4.50166e-09
8.90018e-09
-4.26764e-09
1.00439e-08
-3.998e-09
1.1101e-08
-3.69576e-09
1.20633e-08
-3.36421e-09
1.29233e-08
-3.00688e-09
1.36748e-08
-2.62748e-09
1.43125e-08
-2.22983e-09
1.48322e-08
-1.81779e-09
1.52311e-08
-1.39524e-09
1.55072e-08
-9.65993e-10
1.56597e-08
-5.33787e-10
1.56887e-08
-1.02221e-10
1.55954e-08
3.25263e-10
1.53819e-08
7.45408e-10
1.50513e-08
1.15516e-09
1.46072e-08
1.55169e-09
1.40543e-08
1.93237e-09
1.33978e-08
2.29482e-09
1.26435e-08
2.63688e-09
1.17977e-08
2.95661e-09
1.08674e-08
3.25228e-09
9.85987e-09
3.52237e-09
8.78282e-09
3.76556e-09
7.64428e-09
3.98069e-09
6.45253e-09
4.1668e-09
5.21611e-09
4.32308e-09
3.94373e-09
4.44886e-09
2.64426e-09
4.54364e-09
1.32667e-09
4.60704e-09
4.6388e-09
-1.45775e-09
6.09655e-09
-2.90554e-09
6.05482e-09
-4.33342e-09
5.97153e-09
-5.73157e-09
5.847e-09
-7.09022e-09
5.68174e-09
-8.39983e-09
5.47641e-09
-9.65102e-09
5.23188e-09
-1.08347e-08
4.94921e-09
-1.1942e-08
4.62967e-09
-1.29645e-08
4.27478e-09
-1.38941e-08
3.88626e-09
-1.47233e-08
3.46612e-09
-1.54451e-08
3.01662e-09
-1.60531e-08
2.54031e-09
-1.65414e-08
2.04003e-09
-1.69052e-08
1.51891e-09
-1.71401e-08
9.80385e-10
-1.72431e-08
4.28184e-10
-1.72116e-08
-1.33683e-10
-1.70445e-08
-7.00937e-10
-1.67414e-08
-1.26905e-09
-1.63033e-08
-1.8333e-09
-1.57324e-08
-2.38877e-09
-1.50317e-08
-2.93044e-09
-1.4206e-08
-3.45321e-09
-1.32609e-08
-3.952e-09
-1.22033e-08
-4.42179e-09
-1.10414e-08
-4.85771e-09
-9.78425e-09
-5.25511e-09
-8.44225e-09
-5.60964e-09
-7.02656e-09
-5.91735e-09
-5.54924e-09
-6.17473e-09
-4.87696e-09
-2.80983e-09
-4.19618e-09
-2.84531e-09
-3.50809e-09
-2.87588e-09
-2.81386e-09
-2.90147e-09
-2.11472e-09
-2.92201e-09
-1.41187e-09
-2.93745e-09
-7.06554e-10
-2.94777e-09
9.74763e-19
-2.95294e-09
7.06554e-10
-2.95294e-09
1.41187e-09
-2.94777e-09
2.11472e-09
-2.93745e-09
2.81386e-09
-2.92201e-09
3.50809e-09
-2.90147e-09
4.19618e-09
-2.87588e-09
4.87696e-09
-2.84531e-09
5.54924e-09
-2.80983e-09
7.02656e-09
-6.17473e-09
8.44225e-09
-5.91735e-09
9.78425e-09
-5.60964e-09
1.10414e-08
-5.25511e-09
1.22033e-08
-4.85771e-09
1.32609e-08
-4.42179e-09
1.4206e-08
-3.952e-09
1.50317e-08
-3.45321e-09
1.57324e-08
-2.93044e-09
1.63033e-08
-2.38877e-09
1.67414e-08
-1.8333e-09
1.70445e-08
-1.26905e-09
1.72116e-08
-7.00937e-10
1.72431e-08
-1.33683e-10
1.71401e-08
4.28184e-10
1.69052e-08
9.80385e-10
1.65414e-08
1.51891e-09
1.60531e-08
2.04003e-09
1.54451e-08
2.54031e-09
1.47233e-08
3.01662e-09
1.38941e-08
3.46612e-09
1.29645e-08
3.88626e-09
1.1942e-08
4.27478e-09
1.08347e-08
4.62967e-09
9.65102e-09
4.94921e-09
8.39983e-09
5.23188e-09
7.09022e-09
5.47641e-09
5.73157e-09
5.68174e-09
4.33342e-09
5.847e-09
2.90554e-09
5.97153e-09
1.45775e-09
6.05482e-09
6.09655e-09
-1.60305e-09
7.6996e-09
-3.19515e-09
7.64693e-09
-4.7654e-09
7.54178e-09
-6.30297e-09
7.38457e-09
-7.79717e-09
7.17594e-09
-9.23748e-09
6.91672e-09
-1.06136e-08
6.608e-09
-1.19155e-08
6.25113e-09
-1.31336e-08
5.84771e-09
-1.42584e-08
5.39962e-09
-1.52812e-08
4.90907e-09
-1.61937e-08
4.37857e-09
-1.6988e-08
3.81097e-09
-1.76572e-08
3.2095e-09
-1.81949e-08
2.57773e-09
-1.85956e-08
1.91961e-09
-1.88547e-08
1.23947e-09
-1.89685e-08
5.42032e-10
-1.89346e-08
-1.67656e-10
-1.87513e-08
-8.84186e-10
-1.84185e-08
-1.60184e-09
-1.79372e-08
-2.31465e-09
-1.73095e-08
-3.01641e-09
-1.65392e-08
-3.70076e-09
-1.56312e-08
-4.36128e-09
-1.45916e-08
-4.99153e-09
-1.34283e-08
-5.58515e-09
-1.215e-08
-6.136e-09
-1.07669e-08
-6.6382e-09
-9.29029e-09
-7.08623e-09
-7.73253e-09
-7.47511e-09
-6.10685e-09
-7.8004e-09
-5.36705e-09
-3.54964e-09
-4.61788e-09
-3.59448e-09
-3.86065e-09
-3.63312e-09
-3.09666e-09
-3.66545e-09
-2.32726e-09
-3.69141e-09
-1.55377e-09
-3.71094e-09
-7.77568e-10
-3.72398e-09
-4.90126e-19
-3.73051e-09
7.77568e-10
-3.73051e-09
1.55377e-09
-3.72398e-09
2.32726e-09
-3.71094e-09
3.09666e-09
-3.69141e-09
3.86065e-09
-3.66545e-09
4.61788e-09
-3.63312e-09
5.36705e-09
-3.59448e-09
6.10685e-09
-3.54964e-09
7.73253e-09
-7.8004e-09
9.29029e-09
-7.47511e-09
1.07669e-08
-7.08623e-09
1.215e-08
-6.6382e-09
1.34283e-08
-6.136e-09
1.45916e-08
-5.58515e-09
1.56312e-08
-4.99153e-09
1.65392e-08
-4.36128e-09
1.73095e-08
-3.70076e-09
1.79372e-08
-3.01641e-09
1.84185e-08
-2.31465e-09
1.87513e-08
-1.60184e-09
1.89346e-08
-8.84186e-10
1.89685e-08
-1.67656e-10
1.88547e-08
5.42032e-10
1.85956e-08
1.23947e-09
1.81949e-08
1.91961e-09
1.76572e-08
2.57773e-09
1.6988e-08
3.2095e-09
1.61937e-08
3.81097e-09
1.52812e-08
4.37857e-09
1.42584e-08
4.90907e-09
1.31336e-08
5.39962e-09
1.19155e-08
5.84771e-09
1.06136e-08
6.25113e-09
9.23748e-09
6.608e-09
7.79717e-09
6.91672e-09
6.30297e-09
7.17594e-09
4.7654e-09
7.38457e-09
3.19515e-09
7.54178e-09
1.60305e-09
7.64693e-09
7.6996e-09
-1.76457e-09
9.46417e-09
-3.51711e-09
9.39947e-09
-5.24563e-09
9.2703e-09
-6.93824e-09
9.07718e-09
-8.58317e-09
8.82087e-09
-1.01689e-08
8.50241e-09
-1.1684e-08
8.12314e-09
-1.31176e-08
7.68469e-09
-1.44589e-08
7.18902e-09
-1.56977e-08
6.63846e-09
-1.68243e-08
6.03569e-09
-1.78296e-08
5.3838e-09
-1.87049e-08
4.6863e-09
-1.94425e-08
3.94711e-09
-2.00354e-08
3.17064e-09
-2.04776e-08
2.36174e-09
-2.07638e-08
1.52572e-09
-2.08901e-08
6.68369e-10
-2.08537e-08
-2.04099e-10
-2.06528e-08
-1.08504e-09
-2.02872e-08
-1.96744e-09
-1.9758e-08
-2.84393e-09
-1.90675e-08
-3.7069e-09
-1.82197e-08
-4.54852e-09
-1.72201e-08
-5.36089e-09
-1.60755e-08
-6.13608e-09
-1.47944e-08
-6.86628e-09
-1.33865e-08
-7.54389e-09
-1.1863e-08
-8.16169e-09
-1.02364e-08
-8.71289e-09
-8.52017e-09
-9.19133e-09
-6.72903e-09
-9.59154e-09
-5.91389e-09
-4.36477e-09
-5.08842e-09
-4.41995e-09
-4.25405e-09
-4.46749e-09
-3.41223e-09
-4.50727e-09
-2.56443e-09
-4.53922e-09
-1.71212e-09
-4.56324e-09
-8.56813e-10
-4.57929e-09
-9.25248e-19
-4.58732e-09
8.56813e-10
-4.58732e-09
1.71212e-09
-4.57929e-09
2.56443e-09
-4.56324e-09
3.41223e-09
-4.53922e-09
4.25405e-09
-4.50727e-09
5.08842e-09
-4.46749e-09
5.91389e-09
-4.41995e-09
6.72903e-09
-4.36477e-09
8.52017e-09
-9.59154e-09
1.02364e-08
-9.19133e-09
1.1863e-08
-8.71289e-09
1.33865e-08
-8.16169e-09
1.47944e-08
-7.54389e-09
1.60755e-08
-6.86628e-09
1.72201e-08
-6.13608e-09
1.82197e-08
-5.36089e-09
1.90675e-08
-4.54852e-09
1.9758e-08
-3.7069e-09
2.02872e-08
-2.84393e-09
2.06528e-08
-1.96744e-09
2.08537e-08
-1.08504e-09
2.08901e-08
-2.04099e-10
2.07638e-08
6.68369e-10
2.04776e-08
1.52572e-09
2.00354e-08
2.36174e-09
1.94425e-08
3.17064e-09
1.87049e-08
3.94711e-09
1.78296e-08
4.6863e-09
1.68243e-08
5.3838e-09
1.56977e-08
6.03569e-09
1.44589e-08
6.63846e-09
1.31176e-08
7.18902e-09
1.1684e-08
7.68469e-09
1.01689e-08
8.12314e-09
8.58317e-09
8.50241e-09
6.93824e-09
8.82087e-09
5.24563e-09
9.07718e-09
3.51711e-09
9.2703e-09
1.76457e-09
9.39947e-09
9.46417e-09
-1.94475e-09
1.14089e-08
-3.87626e-09
1.1331e-08
-5.78136e-09
1.11754e-08
-7.64695e-09
1.09428e-08
-9.4601e-09
1.0634e-08
-1.12081e-08
1.02504e-08
-1.28784e-08
9.7935e-09
-1.44591e-08
9.26529e-09
-1.59381e-08
8.66812e-09
-1.73045e-08
8.00477e-09
-1.85472e-08
7.27848e-09
-1.96564e-08
6.49294e-09
-2.06225e-08
5.65238e-09
-2.14369e-08
4.76151e-09
-2.20919e-08
3.82564e-09
-2.25807e-08
2.85059e-09
-2.28977e-08
1.84276e-09
-2.30385e-08
8.09117e-10
-2.29997e-08
-2.42851e-10
-2.27796e-08
-1.30514e-09
-2.23778e-08
-2.36928e-09
-2.17953e-08
-3.42641e-09
-2.10349e-08
-4.46732e-09
-2.01008e-08
-5.48259e-09
-1.89991e-08
-6.46265e-09
-1.77372e-08
-7.39794e-09
-1.63245e-08
-8.27902e-09
-1.47717e-08
-9.09672e-09
-1.30911e-08
-9.84228e-09
-1.12964e-08
-1.05075e-08
-9.40278e-09
-1.1085e-08
-7.42628e-09
-1.1568e-08
-6.52674e-09
-5.26431e-09
-5.61577e-09
-5.33092e-09
-4.69496e-09
-5.3883e-09
-3.76591e-09
-5.43633e-09
-2.83024e-09
-5.47488e-09
-1.8896e-09
-5.50388e-09
-9.45631e-10
-5.52325e-09
-4.30993e-19
-5.53295e-09
9.45631e-10
-5.53295e-09
1.8896e-09
-5.52325e-09
2.83024e-09
-5.50388e-09
3.76591e-09
-5.47488e-09
4.69496e-09
-5.43633e-09
5.61577e-09
-5.3883e-09
6.52674e-09
-5.33092e-09
7.42628e-09
-5.26431e-09
9.40278e-09
-1.1568e-08
1.12964e-08
-1.1085e-08
1.30911e-08
-1.05075e-08
1.47717e-08
-9.84228e-09
1.63245e-08
-9.09672e-09
1.77372e-08
-8.27902e-09
1.89991e-08
-7.39794e-09
2.01008e-08
-6.46265e-09
2.10349e-08
-5.48259e-09
2.17953e-08
-4.46732e-09
2.23778e-08
-3.42641e-09
2.27796e-08
-2.36928e-09
2.29997e-08
-1.30514e-09
2.30385e-08
-2.42851e-10
2.28977e-08
8.09117e-10
2.25807e-08
1.84276e-09
2.20919e-08
2.85059e-09
2.14369e-08
3.82564e-09
2.06225e-08
4.76151e-09
1.96564e-08
5.65238e-09
1.85472e-08
6.49294e-09
1.73045e-08
7.27848e-09
1.59381e-08
8.00477e-09
1.44591e-08
8.66812e-09
1.28784e-08
9.26529e-09
1.12081e-08
9.7935e-09
9.4601e-09
1.02504e-08
7.64695e-09
1.0634e-08
5.78136e-09
1.09428e-08
3.87626e-09
1.11754e-08
1.94475e-09
1.1331e-08
1.14089e-08
-2.14655e-09
1.35555e-08
-4.27854e-09
1.3463e-08
-6.38144e-09
1.32783e-08
-8.44086e-09
1.30022e-08
-1.04425e-08
1.26357e-08
-1.23725e-08
1.21803e-08
-1.42169e-08
1.1638e-08
-1.59625e-08
1.10109e-08
-1.75963e-08
1.03019e-08
-1.91058e-08
9.51428e-09
-2.04792e-08
8.65186e-09
-2.17053e-08
7.71901e-09
-2.27736e-08
6.72071e-09
-2.36747e-08
5.66257e-09
-2.43999e-08
4.55084e-09
-2.49417e-08
3.39244e-09
-2.52939e-08
2.19497e-09
-2.54515e-08
9.66667e-10
-2.54108e-08
-2.83566e-10
-2.51697e-08
-1.54622e-09
-2.47277e-08
-2.81125e-09
-2.4086e-08
-4.06809e-09
-2.32475e-08
-5.30581e-09
-2.22169e-08
-6.51319e-09
-2.10007e-08
-7.67884e-09
-1.96073e-08
-8.79138e-09
-1.80468e-08
-9.83954e-09
-1.63311e-08
-1.08124e-08
-1.44739e-08
-1.16995e-08
-1.24903e-08
-1.24911e-08
-1.03969e-08
-1.31783e-08
-8.2117e-09
-1.37533e-08
-7.21711e-09
-6.2589e-09
-6.20985e-09
-6.33818e-09
-5.19168e-09
-6.40647e-09
-4.16437e-09
-6.46364e-09
-3.12972e-09
-6.50953e-09
-2.08955e-09
-6.54405e-09
-1.0457e-09
-6.56711e-09
-6.50521e-19
-6.57865e-09
1.0457e-09
-6.57865e-09
2.08955e-09
-6.56711e-09
3.12972e-09
-6.54405e-09
4.16437e-09
-6.50953e-09
5.19168e-09
-6.46364e-09
6.20985e-09
-6.40647e-09
7.21711e-09
-6.33818e-09
8.2117e-09
-6.2589e-09
1.03969e-08
-1.37533e-08
1.24903e-08
-1.31783e-08
1.44739e-08
-1.24911e-08
1.63311e-08
-1.16995e-08
1.80468e-08
-1.08124e-08
1.96073e-08
-9.83954e-09
2.10007e-08
-8.79138e-09
2.22169e-08
-7.67884e-09
2.32475e-08
-6.51319e-09
2.4086e-08
-5.30581e-09
2.47277e-08
-4.06809e-09
2.51697e-08
-2.81125e-09
2.54108e-08
-1.54622e-09
2.54515e-08
-2.83566e-10
2.52939e-08
9.66667e-10
2.49417e-08
2.19497e-09
2.43999e-08
3.39244e-09
2.36747e-08
4.55084e-09
2.27736e-08
5.66257e-09
2.17053e-08
6.72071e-09
2.04792e-08
7.71901e-09
1.91058e-08
8.65186e-09
1.75963e-08
9.51428e-09
1.59625e-08
1.03019e-08
1.42169e-08
1.10109e-08
1.23725e-08
1.1638e-08
1.04425e-08
1.21803e-08
8.44086e-09
1.26357e-08
6.38144e-09
1.30022e-08
4.27854e-09
1.32783e-08
2.14655e-09
1.3463e-08
1.35555e-08
-2.37368e-09
1.59292e-08
-4.7313e-09
1.58206e-08
-7.05688e-09
1.56039e-08
-9.33454e-09
1.52798e-08
-1.15486e-08
1.48497e-08
-1.36835e-08
1.43153e-08
-1.57242e-08
1.36786e-08
-1.76559e-08
1.29426e-08
-1.94642e-08
1.21103e-08
-2.11355e-08
1.11855e-08
-2.26565e-08
1.01729e-08
-2.4015e-08
9.07744e-09
-2.51992e-08
7.90496e-09
-2.61987e-08
6.66204e-09
-2.70038e-08
5.35599e-09
-2.76063e-08
3.99491e-09
-2.79991e-08
2.58771e-09
-2.81764e-08
1.14404e-09
-2.81344e-08
-3.25633e-10
-2.78704e-08
-1.81016e-09
-2.7384e-08
-3.29771e-09
-2.66762e-08
-4.77589e-09
-2.57502e-08
-6.23182e-09
-2.46111e-08
-7.65228e-09
-2.3266e-08
-9.02387e-09
-2.17243e-08
-1.03331e-08
-1.9997e-08
-1.15668e-08
-1.80973e-08
-1.27121e-08
-1.60403e-08
-1.37565e-08
-1.38429e-08
-1.46886e-08
-1.15234e-08
-1.54978e-08
-9.10184e-09
-1.61748e-08
-7.99957e-09
-7.36118e-09
-6.8832e-09
-7.45454e-09
-5.75469e-09
-7.53498e-09
-4.61601e-09
-7.60231e-09
-3.46918e-09
-7.65637e-09
-2.3162e-09
-7.69702e-09
-1.15913e-09
-7.72418e-09
-1.0842e-18
-7.73778e-09
1.15913e-09
-7.73778e-09
2.3162e-09
-7.72418e-09
3.46918e-09
-7.69702e-09
4.61601e-09
-7.65637e-09
5.75469e-09
-7.60231e-09
6.8832e-09
-7.53498e-09
7.99957e-09
-7.45454e-09
9.10184e-09
-7.36118e-09
1.15234e-08
-1.61748e-08
1.38429e-08
-1.54978e-08
1.60403e-08
-1.46886e-08
1.80973e-08
-1.37565e-08
1.9997e-08
-1.27121e-08
2.17243e-08
-1.15668e-08
2.3266e-08
-1.03331e-08
2.46111e-08
-9.02387e-09
2.57502e-08
-7.65228e-09
2.66762e-08
-6.23182e-09
2.7384e-08
-4.77589e-09
2.78704e-08
-3.29771e-09
2.81344e-08
-1.81016e-09
2.81764e-08
-3.25633e-10
2.79991e-08
1.14404e-09
2.76063e-08
2.58771e-09
2.70038e-08
3.99491e-09
2.61987e-08
5.35599e-09
2.51992e-08
6.66204e-09
2.4015e-08
7.90496e-09
2.26565e-08
9.07744e-09
2.11355e-08
1.01729e-08
1.94642e-08
1.11855e-08
1.76559e-08
1.21103e-08
1.57242e-08
1.29426e-08
1.36835e-08
1.36786e-08
1.15486e-08
1.43153e-08
9.33454e-09
1.48497e-08
7.05688e-09
1.52798e-08
4.7313e-09
1.56039e-08
2.37368e-09
1.58206e-08
1.59292e-08
-2.63073e-09
1.85599e-08
-5.24376e-09
1.84336e-08
-7.82143e-09
1.81815e-08
-1.03462e-08
1.78046e-08
-1.28008e-08
1.73043e-08
-1.51681e-08
1.66825e-08
-1.74313e-08
1.59419e-08
-1.95741e-08
1.50854e-08
-2.15808e-08
1.41169e-08
-2.34359e-08
1.30407e-08
-2.5125e-08
1.1862e-08
-2.66342e-08
1.05867e-08
-2.79508e-08
9.22155e-09
-2.90629e-08
7.77412e-09
-2.99598e-08
6.2529e-09
-3.06322e-08
4.66729e-09
-3.10721e-08
3.02761e-09
-3.12732e-08
1.34512e-09
-3.12308e-08
-3.68049e-10
-3.0942e-08
-2.09889e-09
-3.04061e-08
-3.83363e-09
-2.96242e-08
-5.5578e-09
-2.85996e-08
-7.25638e-09
-2.7338e-08
-8.91392e-09
-2.58471e-08
-1.05148e-08
-2.41371e-08
-1.20432e-08
-2.22204e-08
-1.34836e-08
-2.01115e-08
-1.48209e-08
-1.78272e-08
-1.60408e-08
-1.53862e-08
-1.71296e-08
-1.2809e-08
-1.8075e-08
-1.01178e-08
-1.8866e-08
-8.89265e-09
-8.58631e-09
-7.65179e-09
-8.69541e-09
-6.39736e-09
-8.78941e-09
-5.13159e-09
-8.86809e-09
-3.8567e-09
-8.93126e-09
-2.57495e-09
-8.97877e-09
-1.28862e-09
-9.01051e-09
6.46978e-19
-9.0264e-09
1.28862e-09
-9.0264e-09
2.57495e-09
-9.01051e-09
3.8567e-09
-8.97877e-09
5.13159e-09
-8.93126e-09
6.39736e-09
-8.86809e-09
7.65179e-09
-8.78941e-09
8.89265e-09
-8.69541e-09
1.01178e-08
-8.58631e-09
1.2809e-08
-1.8866e-08
1.53862e-08
-1.8075e-08
1.78272e-08
-1.71296e-08
2.01115e-08
-1.60408e-08
2.22204e-08
-1.48209e-08
2.41371e-08
-1.34836e-08
2.58471e-08
-1.20432e-08
2.7338e-08
-1.05148e-08
2.85996e-08
-8.91392e-09
2.96242e-08
-7.25638e-09
3.04061e-08
-5.5578e-09
3.0942e-08
-3.83363e-09
3.12308e-08
-2.09889e-09
3.12732e-08
-3.68049e-10
3.10721e-08
1.34512e-09
3.06322e-08
3.02761e-09
2.99598e-08
4.66729e-09
2.90629e-08
6.2529e-09
2.79508e-08
7.77412e-09
2.66342e-08
9.22155e-09
2.5125e-08
1.05867e-08
2.34359e-08
1.1862e-08
2.15808e-08
1.30407e-08
1.95741e-08
1.41169e-08
1.74313e-08
1.50854e-08
1.51681e-08
1.59419e-08
1.28008e-08
1.66825e-08
1.03462e-08
1.73043e-08
7.82143e-09
1.78046e-08
5.24376e-09
1.81815e-08
2.63073e-09
1.84336e-08
1.85599e-08
-2.92355e-09
2.14834e-08
-5.82753e-09
2.13376e-08
-8.69245e-09
2.10465e-08
-1.14989e-08
2.06111e-08
-1.42278e-08
2.00332e-08
-1.68602e-08
1.93149e-08
-1.93775e-08
1.84592e-08
-2.17616e-08
1.74695e-08
-2.3995e-08
1.63503e-08
-2.60607e-08
1.51064e-08
-2.79424e-08
1.37438e-08
-2.9625e-08
1.22692e-08
-3.10938e-08
1.06904e-08
-3.23359e-08
9.01613e-09
-3.3339e-08
7.25608e-09
-3.40928e-08
5.42107e-09
-3.45882e-08
3.52303e-09
-3.4818e-08
1.57491e-09
-3.47768e-08
-4.0924e-10
-3.44613e-08
-2.4144e-09
-3.38703e-08
-4.42462e-09
-3.3005e-08
-6.42314e-09
-3.18689e-08
-8.39252e-09
-3.04679e-08
-1.03148e-08
-2.88109e-08
-1.21718e-08
-2.69087e-08
-1.39453e-08
-2.47753e-08
-1.5617e-08
-2.24268e-08
-1.71695e-08
-1.98818e-08
-1.85858e-08
-1.71611e-08
-1.98502e-08
-1.42879e-08
-2.09483e-08
-1.12867e-08
-2.18672e-08
-9.92031e-09
-9.95273e-09
-8.53624e-09
-1.00795e-08
-7.13696e-09
-1.01887e-08
-5.72493e-09
-1.02801e-08
-4.30268e-09
-1.03535e-08
-2.87274e-09
-1.04087e-08
-1.43766e-09
-1.04456e-08
5.10352e-18
-1.04641e-08
1.43766e-09
-1.04641e-08
2.87274e-09
-1.04456e-08
4.30268e-09
-1.04087e-08
5.72493e-09
-1.03535e-08
7.13696e-09
-1.02801e-08
8.53624e-09
-1.01887e-08
9.92031e-09
-1.00795e-08
1.12867e-08
-9.95273e-09
1.42879e-08
-2.18672e-08
1.71611e-08
-2.09483e-08
1.98818e-08
-1.98502e-08
2.24268e-08
-1.85858e-08
2.47753e-08
-1.71695e-08
2.69087e-08
-1.5617e-08
2.88109e-08
-1.39453e-08
3.04679e-08
-1.21718e-08
3.18689e-08
-1.03148e-08
3.3005e-08
-8.39252e-09
3.38703e-08
-6.42314e-09
3.44613e-08
-4.42462e-09
3.47768e-08
-2.4144e-09
3.4818e-08
-4.0924e-10
3.45882e-08
1.57491e-09
3.40928e-08
3.52303e-09
3.3339e-08
5.42107e-09
3.23359e-08
7.25608e-09
3.10938e-08
9.01613e-09
2.9625e-08
1.06904e-08
2.79424e-08
1.22692e-08
2.60607e-08
1.37438e-08
2.3995e-08
1.51064e-08
2.17616e-08
1.63503e-08
1.93775e-08
1.74695e-08
1.68602e-08
1.84592e-08
1.42278e-08
1.93149e-08
1.14989e-08
2.00332e-08
8.69245e-09
2.06111e-08
5.82753e-09
2.10465e-08
2.92355e-09
2.13376e-08
2.14834e-08
-3.25955e-09
2.4743e-08
-6.49745e-09
2.45755e-08
-9.69211e-09
2.42411e-08
-1.28221e-08
2.37411e-08
-1.58661e-08
2.30772e-08
-1.88032e-08
2.2252e-08
-2.16129e-08
2.12688e-08
-2.42749e-08
2.01316e-08
-2.67698e-08
1.88451e-08
-2.90785e-08
1.74152e-08
-3.11831e-08
1.58484e-08
-3.30664e-08
1.41525e-08
-3.47122e-08
1.23362e-08
-3.61056e-08
1.04095e-08
-3.72331e-08
8.38359e-09
-3.80827e-08
6.27073e-09
-3.86443e-08
4.08458e-09
-3.89094e-08
1.84004e-09
-3.88719e-08
-4.46794e-10
-3.85276e-08
-2.75863e-09
-3.78752e-08
-5.07709e-09
-3.69155e-08
-7.38284e-09
-3.56522e-08
-9.65575e-09
-3.4092e-08
-1.18751e-08
-3.22441e-08
-1.40197e-08
-3.01209e-08
-1.60685e-08
-2.77376e-08
-1.80003e-08
-2.51123e-08
-1.97948e-08
-2.22657e-08
-2.14324e-08
-1.92213e-08
-2.28946e-08
-1.60048e-08
-2.41647e-08
-1.26441e-08
-2.52279e-08
-1.11137e-08
-1.14831e-08
-9.56343e-09
-1.16298e-08
-7.99596e-09
-1.17562e-08
-6.41411e-09
-1.1862e-08
-4.82072e-09
-1.19469e-08
-3.21865e-09
-1.20108e-08
-1.61078e-09
-1.20535e-08
1.19347e-17
-1.20748e-08
1.61078e-09
-1.20748e-08
3.21865e-09
-1.20535e-08
4.82072e-09
-1.20108e-08
6.41411e-09
-1.19469e-08
7.99596e-09
-1.1862e-08
9.56343e-09
-1.17562e-08
1.11137e-08
-1.16298e-08
1.26441e-08
-1.14831e-08
1.60048e-08
-2.52279e-08
1.92213e-08
-2.41647e-08
2.22657e-08
-2.28946e-08
2.51123e-08
-2.14324e-08
2.77376e-08
-1.97948e-08
3.01209e-08
-1.80003e-08
3.22441e-08
-1.60685e-08
3.4092e-08
-1.40197e-08
3.56522e-08
-1.18751e-08
3.69155e-08
-9.65575e-09
3.78752e-08
-7.38284e-09
3.85276e-08
-5.07709e-09
3.88719e-08
-2.75863e-09
3.89094e-08
-4.46794e-10
3.86443e-08
1.84004e-09
3.80827e-08
4.08458e-09
3.72331e-08
6.27073e-09
3.61056e-08
8.38359e-09
3.47122e-08
1.04095e-08
3.30664e-08
1.23362e-08
3.11831e-08
1.41525e-08
2.90785e-08
1.58484e-08
2.67698e-08
1.74152e-08
2.42749e-08
1.88451e-08
2.16129e-08
2.01316e-08
1.88032e-08
2.12688e-08
1.58661e-08
2.2252e-08
1.28221e-08
2.30772e-08
9.69211e-09
2.37411e-08
6.49745e-09
2.42411e-08
3.25955e-09
2.45755e-08
2.4743e-08
-3.64829e-09
2.83913e-08
-7.27257e-09
2.81998e-08
-1.08489e-08
2.78174e-08
-1.43534e-08
2.72456e-08
-1.77626e-08
2.64864e-08
-2.10531e-08
2.55426e-08
-2.42021e-08
2.44178e-08
-2.7187e-08
2.31165e-08
-2.99861e-08
2.16442e-08
-3.25782e-08
2.00072e-08
-3.49429e-08
1.82131e-08
-3.70611e-08
1.62706e-08
-3.89144e-08
1.41895e-08
-4.04861e-08
1.19812e-08
-4.17607e-08
9.65822e-09
-4.27246e-08
7.23465e-09
-4.3366e-08
4.72601e-09
-4.36753e-08
2.1493e-09
-4.3645e-08
-4.77068e-10
-4.32704e-08
-3.13329e-09
-4.25492e-08
-5.79828e-09
-4.14822e-08
-8.44981e-09
-4.00733e-08
-1.10647e-08
-3.83293e-08
-1.3619e-08
-3.62607e-08
-1.60884e-08
-3.38809e-08
-1.84483e-08
-3.12068e-08
-2.06743e-08
-2.82588e-08
-2.27429e-08
-2.506e-08
-2.46311e-08
-2.1637e-08
-2.63177e-08
-1.80187e-08
-2.77831e-08
-1.42367e-08
-2.90099e-08
-1.2514e-08
-1.32057e-08
-1.07688e-08
-1.3375e-08
-9.00401e-09
-1.35209e-08
-7.22292e-09
-1.3643e-08
-5.42871e-09
-1.37411e-08
-3.62464e-09
-1.38149e-08
-1.81397e-09
-1.38641e-08
3.64385e-17
-1.38888e-08
1.81397e-09
-1.38888e-08
3.62464e-09
-1.38641e-08
5.42871e-09
-1.38149e-08
7.22292e-09
-1.37411e-08
9.00401e-09
-1.3643e-08
1.07688e-08
-1.35209e-08
1.2514e-08
-1.3375e-08
1.42367e-08
-1.32057e-08
1.80187e-08
-2.90099e-08
2.1637e-08
-2.77831e-08
2.506e-08
-2.63177e-08
2.82588e-08
-2.46311e-08
3.12068e-08
-2.27429e-08
3.38809e-08
-2.06743e-08
3.62607e-08
-1.84483e-08
3.83293e-08
-1.60884e-08
4.00733e-08
-1.3619e-08
4.14822e-08
-1.10647e-08
4.25492e-08
-8.44981e-09
4.32704e-08
-5.79828e-09
4.3645e-08
-3.13329e-09
4.36753e-08
-4.77068e-10
4.3366e-08
2.1493e-09
4.27246e-08
4.72601e-09
4.17607e-08
7.23465e-09
4.04861e-08
9.65822e-09
3.89144e-08
1.19812e-08
3.70611e-08
1.41895e-08
3.49429e-08
1.62706e-08
3.25782e-08
1.82131e-08
2.99861e-08
2.00072e-08
2.7187e-08
2.16442e-08
2.42021e-08
2.31165e-08
2.10531e-08
2.44178e-08
1.77626e-08
2.55426e-08
1.43534e-08
2.64864e-08
1.08489e-08
2.72456e-08
7.27257e-09
2.78174e-08
3.64829e-09
2.81998e-08
2.83913e-08
-4.10213e-09
3.24934e-08
-8.17757e-09
3.22752e-08
-1.21997e-08
3.18395e-08
-1.6142e-08
3.11879e-08
-1.99782e-08
3.03226e-08
-2.36824e-08
2.92467e-08
-2.7229e-08
2.79643e-08
-3.05928e-08
2.64803e-08
-3.37493e-08
2.48008e-08
-3.66749e-08
2.29328e-08
-3.93466e-08
2.08848e-08
-4.17426e-08
1.86666e-08
-4.38423e-08
1.62892e-08
-4.56263e-08
1.37653e-08
-4.70772e-08
1.11091e-08
-4.81791e-08
8.33658e-09
-4.89184e-08
5.46531e-09
-4.92837e-08
2.51459e-09
-4.92662e-08
-4.94592e-10
-4.88599e-08
-3.53962e-09
-4.80618e-08
-6.59637e-09
-4.68722e-08
-9.63934e-09
-4.52951e-08
-1.26419e-08
-4.33377e-08
-1.55764e-08
-4.10112e-08
-1.84148e-08
-3.83307e-08
-2.11288e-08
-3.5315e-08
-2.369e-08
-3.19868e-08
-2.60711e-08
-2.83724e-08
-2.82455e-08
-2.45017e-08
-3.01884e-08
-2.04077e-08
-3.1877e-08
-1.61264e-08
-3.32911e-08
-1.41759e-08
-1.51563e-08
-1.21994e-08
-1.53515e-08
-1.02006e-08
-1.55197e-08
-8.18304e-09
-1.56606e-08
-6.15048e-09
-1.57737e-08
-4.10662e-09
-1.58587e-08
-2.0552e-09
-1.59156e-08
3.091e-17
-1.5944e-08
2.0552e-09
-1.5944e-08
4.10662e-09
-1.59156e-08
6.15048e-09
-1.58587e-08
8.18304e-09
-1.57737e-08
1.02006e-08
-1.56606e-08
1.21994e-08
-1.55197e-08
1.41759e-08
-1.53515e-08
1.61264e-08
-1.51563e-08
2.04077e-08
-3.32911e-08
2.45017e-08
-3.1877e-08
2.83724e-08
-3.01884e-08
3.19868e-08
-2.82455e-08
3.5315e-08
-2.60711e-08
3.83307e-08
-2.369e-08
4.10112e-08
-2.11288e-08
4.33377e-08
-1.84148e-08
4.52951e-08
-1.55764e-08
4.68722e-08
-1.26419e-08
4.80618e-08
-9.63934e-09
4.88599e-08
-6.59637e-09
4.92662e-08
-3.53962e-09
4.92837e-08
-4.94592e-10
4.89184e-08
2.51459e-09
4.81791e-08
5.46531e-09
4.70772e-08
8.33658e-09
4.56263e-08
1.11091e-08