/*--------------------------------*- C++ -*----------------------------------*\
  =========                 |
  \\      /  F ield         | OpenFOAM: The Open Source CFD Toolbox
   \\    /   O peration     | Website:  https://openfoam.org
    \\  /    A nd           | Version:  10
     \\/     M anipulation  |
\*---------------------------------------------------------------------------*/
FoamFile
{
    format      ascii;
    class       volScalarField;
    location    "2.22";
    object      p;
}
// * * * * * * * * * * * * * * * * * * * * * * * * * * * * * * * * * * * * * //

dimensions      [1 -1 -2 0 0 0 0];

internalField   nonuniform List<scalar> 
12225
(
1.73769e+07
1.73236e+07
1.72283e+07
1.71027e+07
1.69571e+07
1.67989e+07
1.66337e+07
1.64648e+07
1.62945e+07
1.6124e+07
1.59538e+07
1.5784e+07
1.5614e+07
1.5443e+07
1.52692e+07
1.50895e+07
1.48978e+07
1.46787e+07
1.73791e+07
1.73256e+07
1.72299e+07
1.7104e+07
1.69581e+07
1.67997e+07
1.66343e+07
1.64653e+07
1.6295e+07
1.61245e+07
1.59544e+07
1.57846e+07
1.56149e+07
1.54441e+07
1.52708e+07
1.50922e+07
1.49033e+07
1.46949e+07
1.73839e+07
1.73299e+07
1.72334e+07
1.71068e+07
1.69602e+07
1.68014e+07
1.66357e+07
1.64665e+07
1.62961e+07
1.61256e+07
1.59555e+07
1.5786e+07
1.56167e+07
1.54466e+07
1.52744e+07
1.50979e+07
1.49139e+07
1.47192e+07
1.73919e+07
1.7337e+07
1.72393e+07
1.71114e+07
1.69638e+07
1.68042e+07
1.66379e+07
1.64684e+07
1.62978e+07
1.61273e+07
1.59575e+07
1.57883e+07
1.56196e+07
1.54505e+07
1.528e+07
1.51067e+07
1.4929e+07
1.47476e+07
1.74038e+07
1.73476e+07
1.7248e+07
1.71182e+07
1.6969e+07
1.68082e+07
1.66411e+07
1.64712e+07
1.63004e+07
1.61299e+07
1.59603e+07
1.57916e+07
1.56237e+07
1.5456e+07
1.52878e+07
1.51184e+07
1.49476e+07
1.47779e+07
1.74203e+07
1.73623e+07
1.726e+07
1.71276e+07
1.69762e+07
1.68137e+07
1.66455e+07
1.64749e+07
1.63038e+07
1.61333e+07
1.5964e+07
1.57961e+07
1.56293e+07
1.54634e+07
1.52979e+07
1.51328e+07
1.49689e+07
1.48092e+07
1.74426e+07
1.73819e+07
1.7276e+07
1.71399e+07
1.69855e+07
1.68209e+07
1.66512e+07
1.64797e+07
1.63082e+07
1.61377e+07
1.59689e+07
1.58018e+07
1.56363e+07
1.54725e+07
1.53102e+07
1.51497e+07
1.49923e+07
1.48408e+07
1.74719e+07
1.74076e+07
1.72965e+07
1.71556e+07
1.69973e+07
1.68299e+07
1.66583e+07
1.64857e+07
1.63136e+07
1.61432e+07
1.59749e+07
1.58088e+07
1.56449e+07
1.54834e+07
1.53244e+07
1.51686e+07
1.50171e+07
1.48726e+07
1.75099e+07
1.74405e+07
1.73225e+07
1.71752e+07
1.70119e+07
1.68409e+07
1.6667e+07
1.64929e+07
1.63203e+07
1.61498e+07
1.59821e+07
1.58171e+07
1.56551e+07
1.54961e+07
1.53405e+07
1.51891e+07
1.50431e+07
1.49044e+07
1.75586e+07
1.7482e+07
1.73548e+07
1.71992e+07
1.70295e+07
1.6854e+07
1.66771e+07
1.65014e+07
1.6328e+07
1.61576e+07
1.59904e+07
1.58268e+07
1.56667e+07
1.55104e+07
1.53583e+07
1.52111e+07
1.50699e+07
1.49361e+07
1.7621e+07
1.75342e+07
1.73943e+07
1.72278e+07
1.70501e+07
1.68691e+07
1.66888e+07
1.65111e+07
1.63368e+07
1.61664e+07
1.6e+07
1.58377e+07
1.56796e+07
1.5526e+07
1.53773e+07
1.52341e+07
1.50972e+07
1.49677e+07
1.76944e+07
1.75937e+07
1.74378e+07
1.72584e+07
1.70716e+07
1.68847e+07
1.67007e+07
1.65209e+07
1.63458e+07
1.61754e+07
1.60097e+07
1.58487e+07
1.56926e+07
1.55415e+07
1.53957e+07
1.52559e+07
1.51225e+07
1.49964e+07
1.77849e+07
1.76644e+07
1.74876e+07
1.72923e+07
1.70949e+07
1.69012e+07
1.67132e+07
1.65312e+07
1.63552e+07
1.61848e+07
1.60199e+07
1.58603e+07
1.57062e+07
1.55575e+07
1.54146e+07
1.52778e+07
1.51476e+07
1.50244e+07
1.79187e+07
1.77628e+07
1.75528e+07
1.73347e+07
1.71229e+07
1.69207e+07
1.67278e+07
1.65432e+07
1.63662e+07
1.61959e+07
1.6032e+07
1.58742e+07
1.57223e+07
1.55763e+07
1.54365e+07
1.5303e+07
1.5176e+07
1.50559e+07
1.81272e+07
1.78996e+07
1.7635e+07
1.73844e+07
1.71542e+07
1.69416e+07
1.67432e+07
1.6556e+07
1.63781e+07
1.62083e+07
1.60458e+07
1.589e+07
1.57407e+07
1.55978e+07
1.54612e+07
1.53311e+07
1.52075e+07
1.50904e+07
1.848e+07
1.80823e+07
1.77269e+07
1.74333e+07
1.71823e+07
1.69595e+07
1.67562e+07
1.65671e+07
1.63893e+07
1.62207e+07
1.60602e+07
1.5907e+07
1.57608e+07
1.56212e+07
1.54882e+07
1.53615e+07
1.52413e+07
1.51273e+07
1.91646e+07
1.82655e+07
1.77861e+07
1.74551e+07
1.71913e+07
1.6964e+07
1.67598e+07
1.65717e+07
1.63959e+07
1.62301e+07
1.60728e+07
1.59232e+07
1.57807e+07
1.5645e+07
1.55158e+07
1.53928e+07
1.52761e+07
1.51652e+07
1.8321e+07
1.79891e+07
1.76673e+07
1.73908e+07
1.71509e+07
1.69371e+07
1.67421e+07
1.65613e+07
1.63917e+07
1.62315e+07
1.60795e+07
1.5935e+07
1.57974e+07
1.56663e+07
1.55414e+07
1.54226e+07
1.53096e+07
1.52021e+07
1.77567e+07
1.76217e+07
1.74367e+07
1.72414e+07
1.70502e+07
1.68673e+07
1.66933e+07
1.65277e+07
1.63699e+07
1.62194e+07
1.60757e+07
1.59383e+07
1.5807e+07
1.56817e+07
1.5562e+07
1.54477e+07
1.53388e+07
1.5235e+07
1.74356e+07
1.73588e+07
1.72366e+07
1.70923e+07
1.69394e+07
1.67847e+07
1.66319e+07
1.64825e+07
1.63374e+07
1.61972e+07
1.60619e+07
1.59317e+07
1.58065e+07
1.56864e+07
1.55714e+07
1.54612e+07
1.53559e+07
1.52552e+07
1.72525e+07
1.71975e+07
1.7104e+07
1.6987e+07
1.6857e+07
1.67209e+07
1.65827e+07
1.64451e+07
1.63094e+07
1.61769e+07
1.6048e+07
1.59231e+07
1.58025e+07
1.56863e+07
1.55746e+07
1.54673e+07
1.53645e+07
1.5266e+07
1.71315e+07
1.70873e+07
1.70096e+07
1.6909e+07
1.67941e+07
1.66707e+07
1.65432e+07
1.64142e+07
1.62858e+07
1.61592e+07
1.60352e+07
1.59145e+07
1.57974e+07
1.56843e+07
1.55751e+07
1.54701e+07
1.53692e+07
1.52724e+07
1.70497e+07
1.70115e+07
1.69431e+07
1.68529e+07
1.67477e+07
1.66331e+07
1.6513e+07
1.63903e+07
1.62672e+07
1.61449e+07
1.60246e+07
1.5907e+07
1.57926e+07
1.56817e+07
1.55745e+07
1.54712e+07
1.53717e+07
1.52762e+07
1.69941e+07
1.69595e+07
1.68968e+07
1.68131e+07
1.67144e+07
1.66057e+07
1.64908e+07
1.63725e+07
1.62531e+07
1.6134e+07
1.60164e+07
1.59011e+07
1.57886e+07
1.56793e+07
1.55735e+07
1.54714e+07
1.5373e+07
1.52784e+07
1.69565e+07
1.69241e+07
1.68651e+07
1.67856e+07
1.66911e+07
1.65863e+07
1.64749e+07
1.63598e+07
1.62429e+07
1.61261e+07
1.60103e+07
1.58966e+07
1.57855e+07
1.56773e+07
1.55726e+07
1.54713e+07
1.53737e+07
1.52797e+07
1.69315e+07
1.69005e+07
1.68438e+07
1.6767e+07
1.66753e+07
1.65731e+07
1.64641e+07
1.63509e+07
1.62359e+07
1.61205e+07
1.6006e+07
1.58934e+07
1.57832e+07
1.56758e+07
1.55717e+07
1.54711e+07
1.53739e+07
1.52804e+07
1.69155e+07
1.68853e+07
1.683e+07
1.67549e+07
1.6665e+07
1.65645e+07
1.64569e+07
1.63451e+07
1.62312e+07
1.61168e+07
1.60031e+07
1.58912e+07
1.57816e+07
1.56748e+07
1.55711e+07
1.54708e+07
1.5374e+07
1.52807e+07
1.69058e+07
1.68761e+07
1.68216e+07
1.67476e+07
1.66587e+07
1.65592e+07
1.64525e+07
1.63415e+07
1.62282e+07
1.61144e+07
1.60013e+07
1.58898e+07
1.57806e+07
1.56741e+07
1.55707e+07
1.54706e+07
1.5374e+07
1.52809e+07
1.69005e+07
1.68711e+07
1.68171e+07
1.67436e+07
1.66552e+07
1.65563e+07
1.64501e+07
1.63395e+07
1.62266e+07
1.61132e+07
1.60003e+07
1.5889e+07
1.578e+07
1.56737e+07
1.55705e+07
1.54705e+07
1.5374e+07
1.5281e+07
1.68984e+07
1.68691e+07
1.68152e+07
1.67419e+07
1.66538e+07
1.65551e+07
1.64491e+07
1.63387e+07
1.6226e+07
1.61126e+07
1.59999e+07
1.58887e+07
1.57797e+07
1.56735e+07
1.55703e+07
1.54705e+07
1.5374e+07
1.5281e+07
1.26182e+07
1.2617e+07
1.26147e+07
1.26111e+07
1.26062e+07
1.26001e+07
1.25927e+07
1.2584e+07
1.25739e+07
1.25625e+07
1.25497e+07
1.25354e+07
1.25198e+07
1.25027e+07
1.24841e+07
1.2464e+07
1.24425e+07
1.24195e+07
1.23949e+07
1.23688e+07
1.23411e+07
1.23118e+07
1.22809e+07
1.22483e+07
1.22141e+07
1.21781e+07
1.21404e+07
1.21009e+07
1.20596e+07
1.20164e+07
1.19713e+07
1.19241e+07
1.18749e+07
1.18235e+07
1.17699e+07
1.17138e+07
1.16551e+07
1.15937e+07
1.15293e+07
1.14617e+07
1.13903e+07
1.13148e+07
1.12346e+07
1.11487e+07
1.10558e+07
1.0954e+07
1.08391e+07
1.07173e+07
1.07126e+07
1.0709e+07
1.07056e+07
1.07024e+07
1.06992e+07
1.0696e+07
1.0693e+07
1.06899e+07
1.0687e+07
1.0684e+07
1.06811e+07
1.06782e+07
1.06753e+07
1.06725e+07
1.06697e+07
1.06669e+07
1.06641e+07
1.06613e+07
1.06586e+07
1.06558e+07
1.06531e+07
1.06504e+07
1.06477e+07
1.0645e+07
1.06423e+07
1.06396e+07
1.06369e+07
1.06342e+07
1.06315e+07
1.06289e+07
1.06262e+07
1.06235e+07
1.06208e+07
1.06181e+07
1.06154e+07
1.06127e+07
1.061e+07
1.06073e+07
1.06046e+07
1.06018e+07
1.05991e+07
1.05963e+07
1.05936e+07
1.05908e+07
1.0588e+07
1.05852e+07
1.05824e+07
1.05796e+07
1.05768e+07
1.05739e+07
1.0571e+07
1.05682e+07
1.05653e+07
1.05624e+07
1.05594e+07
1.05565e+07
1.05535e+07
1.05505e+07
1.05475e+07
1.05445e+07
1.05415e+07
1.05384e+07
1.05353e+07
1.05322e+07
1.05291e+07
1.0526e+07
1.05228e+07
1.05196e+07
1.05164e+07
1.05132e+07
1.05099e+07
1.05067e+07
1.05034e+07
1.05e+07
1.04967e+07
1.04933e+07
1.04899e+07
1.04865e+07
1.04831e+07
1.04796e+07
1.04761e+07
1.04726e+07
1.0469e+07
1.04654e+07
1.04618e+07
1.04582e+07
1.04545e+07
1.04508e+07
1.04471e+07
1.04434e+07
1.04396e+07
1.04358e+07
1.0432e+07
1.04281e+07
1.04242e+07
1.04203e+07
1.04164e+07
1.04124e+07
1.04084e+07
1.04043e+07
1.04002e+07
1.03961e+07
1.0392e+07
1.03878e+07
1.03836e+07
1.03794e+07
1.03751e+07
1.03708e+07
1.03665e+07
1.03621e+07
1.03577e+07
1.03533e+07
1.03488e+07
1.03443e+07
1.03398e+07
1.03352e+07
1.03306e+07
1.0326e+07
1.03213e+07
1.03166e+07
1.03119e+07
1.03071e+07
1.03023e+07
1.02974e+07
1.02925e+07
1.02876e+07
1.02827e+07
1.02777e+07
1.02727e+07
1.02678e+07
1.02628e+07
1.02578e+07
1.26228e+07
1.26216e+07
1.26193e+07
1.26157e+07
1.26108e+07
1.26047e+07
1.25972e+07
1.25885e+07
1.25784e+07
1.25669e+07
1.2554e+07
1.25397e+07
1.2524e+07
1.25069e+07
1.24883e+07
1.24682e+07
1.24466e+07
1.24235e+07
1.23989e+07
1.23727e+07
1.2345e+07
1.23157e+07
1.22848e+07
1.22523e+07
1.22181e+07
1.21822e+07
1.21446e+07
1.21052e+07
1.2064e+07
1.2021e+07
1.1976e+07
1.1929e+07
1.18799e+07
1.18287e+07
1.17752e+07
1.17194e+07
1.1661e+07
1.16e+07
1.1536e+07
1.14689e+07
1.13983e+07
1.13239e+07
1.12451e+07
1.11611e+07
1.10709e+07
1.09725e+07
1.0862e+07
1.07277e+07
1.0712e+07
1.07086e+07
1.07053e+07
1.07021e+07
1.0699e+07
1.06959e+07
1.06928e+07
1.06898e+07
1.06868e+07
1.06839e+07
1.0681e+07
1.06781e+07
1.06752e+07
1.06724e+07
1.06696e+07
1.06668e+07
1.0664e+07
1.06613e+07
1.06585e+07
1.06558e+07
1.06531e+07
1.06503e+07
1.06476e+07
1.06449e+07
1.06422e+07
1.06396e+07
1.06369e+07
1.06342e+07
1.06315e+07
1.06288e+07
1.06261e+07
1.06235e+07
1.06208e+07
1.06181e+07
1.06154e+07
1.06127e+07
1.061e+07
1.06073e+07
1.06045e+07
1.06018e+07
1.05991e+07
1.05963e+07
1.05936e+07
1.05908e+07
1.0588e+07
1.05852e+07
1.05824e+07
1.05796e+07
1.05768e+07
1.05739e+07
1.0571e+07
1.05682e+07
1.05653e+07
1.05624e+07
1.05594e+07
1.05565e+07
1.05535e+07
1.05505e+07
1.05475e+07
1.05445e+07
1.05415e+07
1.05384e+07
1.05353e+07
1.05322e+07
1.05291e+07
1.0526e+07
1.05228e+07
1.05196e+07
1.05164e+07
1.05132e+07
1.05099e+07
1.05067e+07
1.05034e+07
1.05e+07
1.04967e+07
1.04933e+07
1.04899e+07
1.04865e+07
1.04831e+07
1.04796e+07
1.04761e+07
1.04726e+07
1.0469e+07
1.04654e+07
1.04618e+07
1.04582e+07
1.04545e+07
1.04508e+07
1.04471e+07
1.04434e+07
1.04396e+07
1.04358e+07
1.0432e+07
1.04281e+07
1.04242e+07
1.04203e+07
1.04164e+07
1.04124e+07
1.04084e+07
1.04043e+07
1.04002e+07
1.03961e+07
1.0392e+07
1.03878e+07
1.03836e+07
1.03794e+07
1.03751e+07
1.03708e+07
1.03665e+07
1.03621e+07
1.03577e+07
1.03533e+07
1.03488e+07
1.03443e+07
1.03398e+07
1.03352e+07
1.03306e+07
1.0326e+07
1.03213e+07
1.03166e+07
1.03119e+07
1.03071e+07
1.03023e+07
1.02974e+07
1.02925e+07
1.02876e+07
1.02827e+07
1.02777e+07
1.02727e+07
1.02677e+07
1.02628e+07
1.02578e+07
1.26323e+07
1.26311e+07
1.26287e+07
1.26251e+07
1.26202e+07
1.2614e+07
1.26066e+07
1.25978e+07
1.25876e+07
1.25761e+07
1.25631e+07
1.25488e+07
1.2533e+07
1.25157e+07
1.2497e+07
1.24769e+07
1.24552e+07
1.2432e+07
1.24073e+07
1.23811e+07
1.23534e+07
1.2324e+07
1.22931e+07
1.22606e+07
1.22264e+07
1.21905e+07
1.2153e+07
1.21137e+07
1.20725e+07
1.20296e+07
1.19847e+07
1.19379e+07
1.18891e+07
1.18381e+07
1.1785e+07
1.17296e+07
1.16717e+07
1.16113e+07
1.15482e+07
1.14822e+07
1.1413e+07
1.13404e+07
1.12641e+07
1.11837e+07
1.10988e+07
1.1009e+07
1.0914e+07
1.08141e+07
1.07127e+07
1.0708e+07
1.07048e+07
1.07017e+07
1.06987e+07
1.06956e+07
1.06926e+07
1.06896e+07
1.06866e+07
1.06837e+07
1.06808e+07
1.06779e+07
1.06751e+07
1.06723e+07
1.06695e+07
1.06667e+07
1.06639e+07
1.06611e+07
1.06584e+07
1.06557e+07
1.0653e+07
1.06503e+07
1.06476e+07
1.06449e+07
1.06422e+07
1.06395e+07
1.06368e+07
1.06341e+07
1.06314e+07
1.06288e+07
1.06261e+07
1.06234e+07
1.06207e+07
1.0618e+07
1.06153e+07
1.06126e+07
1.06099e+07
1.06072e+07
1.06045e+07
1.06018e+07
1.0599e+07
1.05963e+07
1.05935e+07
1.05908e+07
1.0588e+07
1.05852e+07
1.05824e+07
1.05796e+07
1.05767e+07
1.05739e+07
1.0571e+07
1.05681e+07
1.05653e+07
1.05623e+07
1.05594e+07
1.05565e+07
1.05535e+07
1.05505e+07
1.05475e+07
1.05445e+07
1.05415e+07
1.05384e+07
1.05353e+07
1.05322e+07
1.05291e+07
1.0526e+07
1.05228e+07
1.05196e+07
1.05164e+07
1.05132e+07
1.05099e+07
1.05067e+07
1.05034e+07
1.05e+07
1.04967e+07
1.04933e+07
1.04899e+07
1.04865e+07
1.0483e+07
1.04796e+07
1.04761e+07
1.04726e+07
1.0469e+07
1.04654e+07
1.04618e+07
1.04582e+07
1.04545e+07
1.04508e+07
1.04471e+07
1.04434e+07
1.04396e+07
1.04358e+07
1.0432e+07
1.04281e+07
1.04242e+07
1.04203e+07
1.04164e+07
1.04124e+07
1.04084e+07
1.04043e+07
1.04002e+07
1.03961e+07
1.0392e+07
1.03878e+07
1.03836e+07
1.03794e+07
1.03751e+07
1.03708e+07
1.03665e+07
1.03621e+07
1.03577e+07
1.03533e+07
1.03488e+07
1.03443e+07
1.03398e+07
1.03352e+07
1.03306e+07
1.0326e+07
1.03213e+07
1.03166e+07
1.03119e+07
1.03071e+07
1.03023e+07
1.02974e+07
1.02925e+07
1.02876e+07
1.02827e+07
1.02777e+07
1.02727e+07
1.02677e+07
1.02627e+07
1.02577e+07
1.26468e+07
1.26456e+07
1.26431e+07
1.26395e+07
1.26345e+07
1.26283e+07
1.26208e+07
1.26119e+07
1.26017e+07
1.259e+07
1.2577e+07
1.25626e+07
1.25467e+07
1.25294e+07
1.25106e+07
1.24903e+07
1.24685e+07
1.24452e+07
1.24204e+07
1.23941e+07
1.23663e+07
1.23368e+07
1.23058e+07
1.22732e+07
1.2239e+07
1.22031e+07
1.21655e+07
1.21262e+07
1.20851e+07
1.20423e+07
1.19975e+07
1.19509e+07
1.19023e+07
1.18517e+07
1.1799e+07
1.17441e+07
1.16869e+07
1.16273e+07
1.15653e+07
1.15006e+07
1.14332e+07
1.13629e+07
1.12895e+07
1.1213e+07
1.11333e+07
1.10505e+07
1.0965e+07
1.08773e+07
1.07873e+07
1.07077e+07
1.07043e+07
1.07013e+07
1.06982e+07
1.06952e+07
1.06922e+07
1.06893e+07
1.06863e+07
1.06834e+07
1.06805e+07
1.06777e+07
1.06748e+07
1.0672e+07
1.06692e+07
1.06665e+07
1.06637e+07
1.0661e+07
1.06582e+07
1.06555e+07
1.06528e+07
1.06501e+07
1.06474e+07
1.06447e+07
1.06421e+07
1.06394e+07
1.06367e+07
1.0634e+07
1.06314e+07
1.06287e+07
1.0626e+07
1.06233e+07
1.06207e+07
1.0618e+07
1.06153e+07
1.06126e+07
1.06099e+07
1.06072e+07
1.06045e+07
1.06017e+07
1.0599e+07
1.05963e+07
1.05935e+07
1.05907e+07
1.0588e+07
1.05852e+07
1.05824e+07
1.05795e+07
1.05767e+07
1.05739e+07
1.0571e+07
1.05681e+07
1.05652e+07
1.05623e+07
1.05594e+07
1.05565e+07
1.05535e+07
1.05505e+07
1.05475e+07
1.05445e+07
1.05415e+07
1.05384e+07
1.05353e+07
1.05322e+07
1.05291e+07
1.0526e+07
1.05228e+07
1.05196e+07
1.05164e+07
1.05132e+07
1.05099e+07
1.05067e+07
1.05034e+07
1.05e+07
1.04967e+07
1.04933e+07
1.04899e+07
1.04865e+07
1.0483e+07
1.04796e+07
1.04761e+07
1.04725e+07
1.0469e+07
1.04654e+07
1.04618e+07
1.04582e+07
1.04545e+07
1.04508e+07
1.04471e+07
1.04434e+07
1.04396e+07
1.04358e+07
1.0432e+07
1.04281e+07
1.04242e+07
1.04203e+07
1.04163e+07
1.04124e+07
1.04084e+07
1.04043e+07
1.04002e+07
1.03961e+07
1.0392e+07
1.03878e+07
1.03836e+07
1.03794e+07
1.03751e+07
1.03708e+07
1.03665e+07
1.03621e+07
1.03577e+07
1.03533e+07
1.03488e+07
1.03443e+07
1.03398e+07
1.03352e+07
1.03306e+07
1.0326e+07
1.03213e+07
1.03166e+07
1.03118e+07
1.03071e+07
1.03023e+07
1.02974e+07
1.02925e+07
1.02876e+07
1.02827e+07
1.02777e+07
1.02727e+07
1.02677e+07
1.02627e+07
1.02577e+07
1.26662e+07
1.2665e+07
1.26625e+07
1.26588e+07
1.26538e+07
1.26475e+07
1.26399e+07
1.26309e+07
1.26205e+07
1.26088e+07
1.25956e+07
1.25811e+07
1.25651e+07
1.25476e+07
1.25286e+07
1.25082e+07
1.24863e+07
1.24629e+07
1.24379e+07
1.24115e+07
1.23834e+07
1.23539e+07
1.23227e+07
1.229e+07
1.22557e+07
1.22197e+07
1.2182e+07
1.21427e+07
1.21017e+07
1.20588e+07
1.20142e+07
1.19678e+07
1.19195e+07
1.18692e+07
1.18169e+07
1.17626e+07
1.17062e+07
1.16476e+07
1.15867e+07
1.15235e+07
1.14579e+07
1.13898e+07
1.13193e+07
1.12463e+07
1.11709e+07
1.10933e+07
1.10137e+07
1.09324e+07
1.08491e+07
1.0761e+07
1.07039e+07
1.07007e+07
1.06977e+07
1.06947e+07
1.06918e+07
1.06888e+07
1.06859e+07
1.06831e+07
1.06802e+07
1.06774e+07
1.06745e+07
1.06718e+07
1.0669e+07
1.06662e+07
1.06635e+07
1.06608e+07
1.0658e+07
1.06553e+07
1.06526e+07
1.065e+07
1.06473e+07
1.06446e+07
1.06419e+07
1.06393e+07
1.06366e+07
1.06339e+07
1.06313e+07
1.06286e+07
1.06259e+07
1.06233e+07
1.06206e+07
1.06179e+07
1.06152e+07
1.06125e+07
1.06098e+07
1.06071e+07
1.06044e+07
1.06017e+07
1.0599e+07
1.05962e+07
1.05935e+07
1.05907e+07
1.05879e+07
1.05851e+07
1.05823e+07
1.05795e+07
1.05767e+07
1.05738e+07
1.0571e+07
1.05681e+07
1.05652e+07
1.05623e+07
1.05594e+07
1.05564e+07
1.05535e+07
1.05505e+07
1.05475e+07
1.05445e+07
1.05414e+07
1.05384e+07
1.05353e+07
1.05322e+07
1.05291e+07
1.0526e+07
1.05228e+07
1.05196e+07
1.05164e+07
1.05132e+07
1.05099e+07
1.05066e+07
1.05033e+07
1.05e+07
1.04967e+07
1.04933e+07
1.04899e+07
1.04865e+07
1.0483e+07
1.04796e+07
1.04761e+07
1.04725e+07
1.0469e+07
1.04654e+07
1.04618e+07
1.04582e+07
1.04545e+07
1.04508e+07
1.04471e+07
1.04434e+07
1.04396e+07
1.04358e+07
1.0432e+07
1.04281e+07
1.04242e+07
1.04203e+07
1.04163e+07
1.04124e+07
1.04084e+07
1.04043e+07
1.04002e+07
1.03961e+07
1.0392e+07
1.03878e+07
1.03836e+07
1.03794e+07
1.03751e+07
1.03708e+07
1.03665e+07
1.03621e+07
1.03577e+07
1.03533e+07
1.03488e+07
1.03443e+07
1.03398e+07
1.03352e+07
1.03306e+07
1.0326e+07
1.03213e+07
1.03166e+07
1.03118e+07
1.03071e+07
1.03022e+07
1.02974e+07
1.02925e+07
1.02876e+07
1.02827e+07
1.02777e+07
1.02727e+07
1.02677e+07
1.02626e+07
1.02576e+07
1.26907e+07
1.26894e+07
1.26869e+07
1.26831e+07
1.2678e+07
1.26716e+07
1.26639e+07
1.26547e+07
1.26442e+07
1.26323e+07
1.2619e+07
1.26042e+07
1.2588e+07
1.25704e+07
1.25512e+07
1.25306e+07
1.25084e+07
1.24848e+07
1.24596e+07
1.24329e+07
1.24047e+07
1.2375e+07
1.23436e+07
1.23107e+07
1.22762e+07
1.22401e+07
1.22024e+07
1.2163e+07
1.21219e+07
1.20791e+07
1.20346e+07
1.19883e+07
1.19402e+07
1.18903e+07
1.18385e+07
1.17848e+07
1.17291e+07
1.16715e+07
1.16118e+07
1.155e+07
1.14862e+07
1.14202e+07
1.13522e+07
1.12822e+07
1.12102e+07
1.11365e+07
1.10613e+07
1.09846e+07
1.09063e+07
1.08258e+07
1.07406e+07
1.07002e+07
1.06972e+07
1.06942e+07
1.06913e+07
1.06883e+07
1.06855e+07
1.06826e+07
1.06798e+07
1.0677e+07
1.06742e+07
1.06714e+07
1.06686e+07
1.06659e+07
1.06632e+07
1.06605e+07
1.06578e+07
1.06551e+07
1.06524e+07
1.06497e+07
1.06471e+07
1.06444e+07
1.06417e+07
1.06391e+07
1.06364e+07
1.06338e+07
1.06311e+07
1.06285e+07
1.06258e+07
1.06231e+07
1.06205e+07
1.06178e+07
1.06151e+07
1.06124e+07
1.06097e+07
1.0607e+07
1.06043e+07
1.06016e+07
1.05989e+07
1.05962e+07
1.05934e+07
1.05906e+07
1.05879e+07
1.05851e+07
1.05823e+07
1.05795e+07
1.05766e+07
1.05738e+07
1.05709e+07
1.05681e+07
1.05652e+07
1.05623e+07
1.05594e+07
1.05564e+07
1.05535e+07
1.05505e+07
1.05475e+07
1.05445e+07
1.05414e+07
1.05384e+07
1.05353e+07
1.05322e+07
1.05291e+07
1.05259e+07
1.05228e+07
1.05196e+07
1.05164e+07
1.05132e+07
1.05099e+07
1.05066e+07
1.05033e+07
1.05e+07
1.04967e+07
1.04933e+07
1.04899e+07
1.04865e+07
1.0483e+07
1.04796e+07
1.04761e+07
1.04725e+07
1.0469e+07
1.04654e+07
1.04618e+07
1.04582e+07
1.04545e+07
1.04508e+07
1.04471e+07
1.04434e+07
1.04396e+07
1.04358e+07
1.0432e+07
1.04281e+07
1.04242e+07
1.04203e+07
1.04163e+07
1.04124e+07
1.04083e+07
1.04043e+07
1.04002e+07
1.03961e+07
1.0392e+07
1.03878e+07
1.03836e+07
1.03794e+07
1.03751e+07
1.03708e+07
1.03665e+07
1.03621e+07
1.03577e+07
1.03533e+07
1.03488e+07
1.03443e+07
1.03398e+07
1.03352e+07
1.03306e+07
1.0326e+07
1.03213e+07
1.03166e+07
1.03118e+07
1.03071e+07
1.03022e+07
1.02974e+07
1.02925e+07
1.02876e+07
1.02826e+07
1.02777e+07
1.02727e+07
1.02676e+07
1.02626e+07
1.02575e+07
1.27203e+07
1.2719e+07
1.27164e+07
1.27125e+07
1.27073e+07
1.27007e+07
1.26928e+07
1.26835e+07
1.26728e+07
1.26607e+07
1.26471e+07
1.26321e+07
1.26156e+07
1.25977e+07
1.25782e+07
1.25573e+07
1.25349e+07
1.25109e+07
1.24855e+07
1.24585e+07
1.243e+07
1.23999e+07
1.23683e+07
1.23352e+07
1.23005e+07
1.22642e+07
1.22263e+07
1.21868e+07
1.21456e+07
1.21028e+07
1.20584e+07
1.20122e+07
1.19644e+07
1.19148e+07
1.18634e+07
1.18103e+07
1.17553e+07
1.16986e+07
1.16399e+07
1.15795e+07
1.15172e+07
1.14531e+07
1.13873e+07
1.13197e+07
1.12506e+07
1.118e+07
1.11081e+07
1.1035e+07
1.09608e+07
1.08852e+07
1.08077e+07
1.07258e+07
1.06966e+07
1.06936e+07
1.06906e+07
1.06877e+07
1.06849e+07
1.06821e+07
1.06793e+07
1.06765e+07
1.06737e+07
1.0671e+07
1.06683e+07
1.06655e+07
1.06628e+07
1.06602e+07
1.06575e+07
1.06548e+07
1.06521e+07
1.06495e+07
1.06468e+07
1.06442e+07
1.06415e+07
1.06389e+07
1.06363e+07
1.06336e+07
1.0631e+07
1.06283e+07
1.06257e+07
1.0623e+07
1.06203e+07
1.06177e+07
1.0615e+07
1.06123e+07
1.06096e+07
1.0607e+07
1.06043e+07
1.06015e+07
1.05988e+07
1.05961e+07
1.05933e+07
1.05906e+07
1.05878e+07
1.0585e+07
1.05822e+07
1.05794e+07
1.05766e+07
1.05738e+07
1.05709e+07
1.0568e+07
1.05651e+07
1.05622e+07
1.05593e+07
1.05564e+07
1.05534e+07
1.05505e+07
1.05475e+07
1.05444e+07
1.05414e+07
1.05384e+07
1.05353e+07
1.05322e+07
1.05291e+07
1.05259e+07
1.05228e+07
1.05196e+07
1.05164e+07
1.05132e+07
1.05099e+07
1.05066e+07
1.05033e+07
1.05e+07
1.04967e+07
1.04933e+07
1.04899e+07
1.04865e+07
1.0483e+07
1.04796e+07
1.04761e+07
1.04725e+07
1.0469e+07
1.04654e+07
1.04618e+07
1.04582e+07
1.04545e+07
1.04508e+07
1.04471e+07
1.04434e+07
1.04396e+07
1.04358e+07
1.0432e+07
1.04281e+07
1.04242e+07
1.04203e+07
1.04163e+07
1.04124e+07
1.04083e+07
1.04043e+07
1.04002e+07
1.03961e+07
1.0392e+07
1.03878e+07
1.03836e+07
1.03794e+07
1.03751e+07
1.03708e+07
1.03665e+07
1.03621e+07
1.03577e+07
1.03533e+07
1.03488e+07
1.03443e+07
1.03398e+07
1.03352e+07
1.03306e+07
1.0326e+07
1.03213e+07
1.03166e+07
1.03118e+07
1.0307e+07
1.03022e+07
1.02974e+07
1.02925e+07
1.02876e+07
1.02826e+07
1.02776e+07
1.02726e+07
1.02676e+07
1.02625e+07
1.02574e+07
1.27551e+07
1.27537e+07
1.2751e+07
1.2747e+07
1.27417e+07
1.27349e+07
1.27268e+07
1.27172e+07
1.27062e+07
1.26938e+07
1.26799e+07
1.26646e+07
1.26478e+07
1.26294e+07
1.26096e+07
1.25883e+07
1.25655e+07
1.25412e+07
1.25153e+07
1.2488e+07
1.24591e+07
1.24287e+07
1.23967e+07
1.23633e+07
1.23283e+07
1.22917e+07
1.22536e+07
1.22139e+07
1.21726e+07
1.21298e+07
1.20853e+07
1.20393e+07
1.19916e+07
1.19422e+07
1.18912e+07
1.18386e+07
1.17843e+07
1.17283e+07
1.16707e+07
1.16114e+07
1.15505e+07
1.1488e+07
1.14239e+07
1.13585e+07
1.12916e+07
1.12236e+07
1.11544e+07
1.10842e+07
1.1013e+07
1.0941e+07
1.08679e+07
1.0793e+07
1.07136e+07
1.06928e+07
1.06899e+07
1.0687e+07
1.06842e+07
1.06814e+07
1.06787e+07
1.06759e+07
1.06732e+07
1.06705e+07
1.06678e+07
1.06651e+07
1.06624e+07
1.06598e+07
1.06571e+07
1.06545e+07
1.06518e+07
1.06492e+07
1.06466e+07
1.06439e+07
1.06413e+07
1.06387e+07
1.0636e+07
1.06334e+07
1.06308e+07
1.06281e+07
1.06255e+07
1.06229e+07
1.06202e+07
1.06176e+07
1.06149e+07
1.06122e+07
1.06095e+07
1.06069e+07
1.06042e+07
1.06014e+07
1.05987e+07
1.0596e+07
1.05933e+07
1.05905e+07
1.05877e+07
1.0585e+07
1.05822e+07
1.05794e+07
1.05766e+07
1.05737e+07
1.05709e+07
1.0568e+07
1.05651e+07
1.05622e+07
1.05593e+07
1.05564e+07
1.05534e+07
1.05504e+07
1.05474e+07
1.05444e+07
1.05414e+07
1.05383e+07
1.05353e+07
1.05322e+07
1.0529e+07
1.05259e+07
1.05228e+07
1.05196e+07
1.05164e+07
1.05131e+07
1.05099e+07
1.05066e+07
1.05033e+07
1.05e+07
1.04967e+07
1.04933e+07
1.04899e+07
1.04865e+07
1.0483e+07
1.04795e+07
1.04761e+07
1.04725e+07
1.0469e+07
1.04654e+07
1.04618e+07
1.04582e+07
1.04545e+07
1.04508e+07
1.04471e+07
1.04434e+07
1.04396e+07
1.04358e+07
1.0432e+07
1.04281e+07
1.04242e+07
1.04203e+07
1.04163e+07
1.04124e+07
1.04083e+07
1.04043e+07
1.04002e+07
1.03961e+07
1.0392e+07
1.03878e+07
1.03836e+07
1.03794e+07
1.03751e+07
1.03708e+07
1.03665e+07
1.03621e+07
1.03577e+07
1.03533e+07
1.03488e+07
1.03443e+07
1.03398e+07
1.03352e+07
1.03306e+07
1.0326e+07
1.03213e+07
1.03166e+07
1.03118e+07
1.0307e+07
1.03022e+07
1.02974e+07
1.02925e+07
1.02876e+07
1.02826e+07
1.02776e+07
1.02726e+07
1.02675e+07
1.02624e+07
1.02573e+07
1.27952e+07
1.27938e+07
1.2791e+07
1.27868e+07
1.27812e+07
1.27742e+07
1.27658e+07
1.27559e+07
1.27446e+07
1.27318e+07
1.27175e+07
1.27018e+07
1.26845e+07
1.26657e+07
1.26454e+07
1.26236e+07
1.26003e+07
1.25755e+07
1.25492e+07
1.25213e+07
1.2492e+07
1.24611e+07
1.24287e+07
1.23948e+07
1.23595e+07
1.23225e+07
1.22841e+07
1.22442e+07
1.22027e+07
1.21597e+07
1.21152e+07
1.20691e+07
1.20215e+07
1.19724e+07
1.19217e+07
1.18694e+07
1.18157e+07
1.17604e+07
1.17035e+07
1.16452e+07
1.15855e+07
1.15243e+07
1.14618e+07
1.1398e+07
1.1333e+07
1.1267e+07
1.11999e+07
1.11321e+07
1.10634e+07
1.09941e+07
1.09241e+07
1.08531e+07
1.07805e+07
1.07028e+07
1.06891e+07
1.06862e+07
1.06835e+07
1.06807e+07
1.0678e+07
1.06753e+07
1.06726e+07
1.067e+07
1.06673e+07
1.06646e+07
1.0662e+07
1.06594e+07
1.06567e+07
1.06541e+07
1.06515e+07
1.06489e+07
1.06463e+07
1.06437e+07
1.0641e+07
1.06384e+07
1.06358e+07
1.06332e+07
1.06306e+07
1.0628e+07
1.06253e+07
1.06227e+07
1.062e+07
1.06174e+07
1.06147e+07
1.06121e+07
1.06094e+07
1.06067e+07
1.0604e+07
1.06013e+07
1.05986e+07
1.05959e+07
1.05932e+07
1.05904e+07
1.05877e+07
1.05849e+07
1.05821e+07
1.05793e+07
1.05765e+07
1.05737e+07
1.05708e+07
1.0568e+07
1.05651e+07
1.05622e+07
1.05593e+07
1.05563e+07
1.05534e+07
1.05504e+07
1.05474e+07
1.05444e+07
1.05414e+07
1.05383e+07
1.05352e+07
1.05321e+07
1.0529e+07
1.05259e+07
1.05227e+07
1.05196e+07
1.05164e+07
1.05131e+07
1.05099e+07
1.05066e+07
1.05033e+07
1.05e+07
1.04966e+07
1.04933e+07
1.04899e+07
1.04865e+07
1.0483e+07
1.04795e+07
1.0476e+07
1.04725e+07
1.0469e+07
1.04654e+07
1.04618e+07
1.04582e+07
1.04545e+07
1.04508e+07
1.04471e+07
1.04434e+07
1.04396e+07
1.04358e+07
1.04319e+07
1.04281e+07
1.04242e+07
1.04203e+07
1.04163e+07
1.04124e+07
1.04083e+07
1.04043e+07
1.04002e+07
1.03961e+07
1.0392e+07
1.03878e+07
1.03836e+07
1.03794e+07
1.03751e+07
1.03708e+07
1.03665e+07
1.03621e+07
1.03577e+07
1.03533e+07
1.03488e+07
1.03443e+07
1.03398e+07
1.03352e+07
1.03306e+07
1.0326e+07
1.03213e+07
1.03166e+07
1.03118e+07
1.0307e+07
1.03022e+07
1.02974e+07
1.02925e+07
1.02875e+07
1.02826e+07
1.02776e+07
1.02726e+07
1.02675e+07
1.02624e+07
1.02572e+07
1.28408e+07
1.28392e+07
1.28363e+07
1.28319e+07
1.28261e+07
1.28188e+07
1.281e+07
1.27998e+07
1.2788e+07
1.27747e+07
1.27599e+07
1.27436e+07
1.27258e+07
1.27064e+07
1.26855e+07
1.26631e+07
1.26392e+07
1.26138e+07
1.25868e+07
1.25584e+07
1.25285e+07
1.2497e+07
1.24641e+07
1.24297e+07
1.23939e+07
1.23565e+07
1.23177e+07
1.22774e+07
1.22356e+07
1.21924e+07
1.21477e+07
1.21016e+07
1.2054e+07
1.20049e+07
1.19544e+07
1.19025e+07
1.18491e+07
1.17943e+07
1.17381e+07
1.16806e+07
1.16218e+07
1.15617e+07
1.15004e+07
1.1438e+07
1.13745e+07
1.13101e+07
1.12448e+07
1.11788e+07
1.11122e+07
1.1045e+07
1.09773e+07
1.09091e+07
1.08402e+07
1.07696e+07
1.06939e+07
1.06853e+07
1.06826e+07
1.06799e+07
1.06773e+07
1.06746e+07
1.0672e+07
1.06694e+07
1.06667e+07
1.06641e+07
1.06615e+07
1.06589e+07
1.06563e+07
1.06537e+07
1.06511e+07
1.06485e+07
1.06459e+07
1.06433e+07
1.06408e+07
1.06382e+07
1.06356e+07
1.0633e+07
1.06303e+07
1.06277e+07
1.06251e+07
1.06225e+07
1.06199e+07
1.06172e+07
1.06146e+07
1.06119e+07
1.06093e+07
1.06066e+07
1.06039e+07
1.06012e+07
1.05985e+07
1.05958e+07
1.05931e+07
1.05904e+07
1.05876e+07
1.05848e+07
1.0582e+07
1.05792e+07
1.05764e+07
1.05736e+07
1.05708e+07
1.05679e+07
1.0565e+07
1.05621e+07
1.05592e+07
1.05563e+07
1.05533e+07
1.05504e+07
1.05474e+07
1.05444e+07
1.05413e+07
1.05383e+07
1.05352e+07
1.05321e+07
1.0529e+07
1.05259e+07
1.05227e+07
1.05195e+07
1.05163e+07
1.05131e+07
1.05099e+07
1.05066e+07
1.05033e+07
1.05e+07
1.04966e+07
1.04933e+07
1.04899e+07
1.04864e+07
1.0483e+07
1.04795e+07
1.0476e+07
1.04725e+07
1.0469e+07
1.04654e+07
1.04618e+07
1.04582e+07
1.04545e+07
1.04508e+07
1.04471e+07
1.04433e+07
1.04396e+07
1.04358e+07
1.04319e+07
1.04281e+07
1.04242e+07
1.04203e+07
1.04163e+07
1.04123e+07
1.04083e+07
1.04043e+07
1.04002e+07
1.03961e+07
1.0392e+07
1.03878e+07
1.03836e+07
1.03794e+07
1.03751e+07
1.03708e+07
1.03665e+07
1.03621e+07
1.03577e+07
1.03533e+07
1.03488e+07
1.03443e+07
1.03398e+07
1.03352e+07
1.03306e+07
1.0326e+07
1.03213e+07
1.03166e+07
1.03118e+07
1.0307e+07
1.03022e+07
1.02973e+07
1.02925e+07
1.02875e+07
1.02826e+07
1.02776e+07
1.02725e+07
1.02674e+07
1.02623e+07
1.02572e+07
1.2892e+07
1.28903e+07
1.28872e+07
1.28826e+07
1.28764e+07
1.28688e+07
1.28596e+07
1.28488e+07
1.28365e+07
1.28227e+07
1.28072e+07
1.27903e+07
1.27717e+07
1.27516e+07
1.273e+07
1.27069e+07
1.26822e+07
1.2656e+07
1.26283e+07
1.25992e+07
1.25685e+07
1.25364e+07
1.25028e+07
1.24678e+07
1.24313e+07
1.23934e+07
1.23541e+07
1.23134e+07
1.22712e+07
1.22277e+07
1.21827e+07
1.21364e+07
1.20887e+07
1.20396e+07
1.19891e+07
1.19374e+07
1.18843e+07
1.18299e+07
1.17742e+07
1.17173e+07
1.16592e+07
1.15999e+07
1.15396e+07
1.14783e+07
1.1416e+07
1.13528e+07
1.1289e+07
1.12244e+07
1.11593e+07
1.10938e+07
1.10279e+07
1.09617e+07
1.08952e+07
1.08283e+07
1.076e+07
1.06869e+07
1.06816e+07
1.0679e+07
1.06764e+07
1.06739e+07
1.06713e+07
1.06687e+07
1.06661e+07
1.06636e+07
1.0661e+07
1.06584e+07
1.06559e+07
1.06533e+07
1.06507e+07
1.06482e+07
1.06456e+07
1.0643e+07
1.06404e+07
1.06379e+07
1.06353e+07
1.06327e+07
1.06301e+07
1.06275e+07
1.06249e+07
1.06223e+07
1.06197e+07
1.06171e+07
1.06144e+07
1.06118e+07
1.06091e+07
1.06065e+07
1.06038e+07
1.06011e+07
1.05984e+07
1.05957e+07
1.0593e+07
1.05903e+07
1.05875e+07
1.05847e+07
1.0582e+07
1.05792e+07
1.05764e+07
1.05735e+07
1.05707e+07
1.05678e+07
1.0565e+07
1.05621e+07
1.05592e+07
1.05562e+07
1.05533e+07
1.05503e+07
1.05473e+07
1.05443e+07
1.05413e+07
1.05383e+07
1.05352e+07
1.05321e+07
1.0529e+07
1.05259e+07
1.05227e+07
1.05195e+07
1.05163e+07
1.05131e+07
1.05098e+07
1.05066e+07
1.05033e+07
1.05e+07
1.04966e+07
1.04933e+07
1.04899e+07
1.04864e+07
1.0483e+07
1.04795e+07
1.0476e+07
1.04725e+07