/*--------------------------------*- C++ -*----------------------------------*\
  =========                 |
  \\      /  F ield         | OpenFOAM: The Open Source CFD Toolbox
   \\    /   O peration     | Website:  https://openfoam.org
    \\  /    A nd           | Version:  10
     \\/     M anipulation  |
\*---------------------------------------------------------------------------*/
FoamFile
{
    format      ascii;
    class       surfaceScalarField;
    location    "2.22";
    object      phi;
}
// * * * * * * * * * * * * * * * * * * * * * * * * * * * * * * * * * * * * * //

dimensions      [0 3 -1 0 0 0 0];

internalField   nonuniform List<scalar> 
24170
(
1.46334e-09
-1.46334e-09
2.71532e-09
-1.25198e-09
3.70495e-09
-9.8963e-10
4.45124e-09
-7.46291e-10
5.00357e-09
-5.52334e-10
5.4153e-09
-4.1173e-10
5.73236e-09
-3.17063e-10
5.99085e-09
-2.5849e-10
6.21849e-09
-2.2764e-10
6.43734e-09
-2.18844e-10
6.66677e-09
-2.29434e-10
6.92688e-09
-2.60104e-10
7.24309e-09
-3.16216e-10
7.65479e-09
-4.11701e-10
8.23568e-09
-5.80884e-10
9.15642e-09
-9.20745e-10
1.09462e-08
-1.78974e-09
-5.1206e-09
1.60668e-08
1.65772e-09
-3.12106e-09
3.07016e-09
-2.66442e-09
4.17999e-09
-2.09946e-09
5.01117e-09
-1.57747e-09
5.62183e-09
-1.163e-09
6.07372e-09
-8.63621e-10
6.41939e-09
-6.62732e-10
6.69975e-09
-5.38853e-10
6.94597e-09
-4.73857e-10
7.18261e-09
-4.5548e-10
7.43101e-09
-4.77842e-10
7.71298e-09
-5.42073e-10
8.05554e-09
-6.58773e-10
8.49914e-09
-8.55299e-10
9.11494e-09
-1.19669e-09
1.00457e-08
-1.85152e-09
1.15828e-08
-3.32686e-09
-7.33192e-09
1.37942e-08
1.85215e-09
-4.97321e-09
3.4213e-09
-4.23357e-09
4.64453e-09
-3.32268e-09
5.55283e-09
-2.48576e-09
6.2146e-09
-1.82477e-09
6.70056e-09
-1.34958e-09
7.06985e-09
-1.03203e-09
7.36791e-09
-8.36911e-10
7.6289e-09
-7.34842e-10
7.87937e-09
-7.05949e-10
8.14195e-09
-7.4043e-10
8.43907e-09
-8.39192e-10
8.79724e-09
-1.01695e-09
9.25327e-09
-1.31133e-09
9.86351e-09
-1.80693e-09
1.07107e-08
-2.6987e-09
1.18363e-08
-4.45252e-09
-8.0732e-09
1.25776e-08
2.06869e-09
-7.0419e-09
3.80716e-09
-5.97205e-09
5.14734e-09
-4.66286e-09
6.13096e-09
-3.46939e-09
6.83985e-09
-2.53366e-09
7.35546e-09
-1.86519e-09
7.74424e-09
-1.42081e-09
8.05625e-09
-1.14892e-09
8.32845e-09
-1.00704e-09
8.58898e-09
-9.6648e-10
8.86111e-09
-1.01256e-09
9.16677e-09
-1.14484e-09
9.52988e-09
-1.38006e-09
9.97943e-09
-1.76087e-09
1.05491e-08
-2.37662e-09
1.12567e-08
-3.40625e-09
1.19855e-08
-5.18138e-09
-8.12119e-09
1.20335e-08
2.32092e-09
-9.36282e-09
4.24935e-09
-7.90048e-09
5.71311e-09
-6.12662e-09
6.77048e-09
-4.52676e-09
7.52151e-09
-3.28469e-09
8.06101e-09
-2.40469e-09
8.46384e-09
-1.82364e-09
8.78486e-09
-1.46994e-09
9.06362e-09
-1.2858e-09
9.32936e-09
-1.23222e-09
9.60524e-09
-1.28843e-09
9.91152e-09
-1.45113e-09
1.02676e-08
-1.73618e-09
1.06918e-08
-2.18506e-09
1.1193e-08
-2.87784e-09
1.17375e-08
-3.95071e-09
1.21448e-08
-5.5887e-09
-7.86153e-09
1.18852e-08
2.62394e-09
-1.19868e-08
4.77034e-09
-1.00469e-08
6.36536e-09
-7.72165e-09
7.49296e-09
-5.65435e-09
8.27835e-09
-4.07007e-09
8.83333e-09
-2.95967e-09
9.24247e-09
-2.23278e-09
9.56566e-09
-1.79314e-09
9.84468e-09
-1.56482e-09
1.01093e-08
-1.4968e-09
1.03816e-08
-1.56079e-09
1.06792e-08
-1.74874e-09
1.10156e-08
-2.07255e-09
1.13971e-08
-2.56658e-09
1.1811e-08
-3.29175e-09
1.21929e-08
-4.33261e-09
1.23621e-08
-5.75785e-09
-7.47625e-09
1.19768e-08
2.99815e-09
-1.49849e-08
5.39877e-09
-1.24475e-08
7.13217e-09
-9.45505e-09
8.32235e-09
-6.84453e-09
9.12973e-09
-4.87745e-09
9.68779e-09
-3.51773e-09
1.00923e-08
-2.63732e-09
1.04083e-08
-2.10912e-09
1.06792e-08
-1.83572e-09
1.09345e-08
-1.75208e-09
1.11945e-08
-1.82081e-09
1.1473e-08
-2.02724e-09
1.17768e-08
-2.37637e-09
1.21014e-08
-2.89112e-09
1.24184e-08
-3.60879e-09
1.26526e-08
-4.56684e-09
1.26542e-08
-5.75946e-09
-7.04725e-09
1.22252e-08
3.47331e-09
-1.84582e-08
6.17425e-09
-1.51484e-08
8.05001e-09
-1.13308e-08
9.2879e-09
-8.08243e-09
1.00978e-08
-5.6874e-09
1.06409e-08
-4.06082e-09
1.10257e-08
-3.02209e-09
1.13219e-08
-2.40531e-09
1.15738e-08
-2.08764e-09
1.18097e-08
-1.98793e-09
1.20471e-08
-2.05819e-09
1.22953e-08
-2.27547e-09
1.25546e-08
-2.6357e-09
1.28117e-08
-3.14817e-09
1.30301e-08
-3.82717e-09
1.31378e-08
-4.67455e-09
1.30247e-08
-5.64635e-09
-6.60924e-09
1.25866e-08
4.09514e-09
-2.25534e-08
7.1538e-09
-1.82071e-08
9.16801e-09
-1.3345e-08
1.04265e-08
-9.34096e-09
1.12091e-08
-6.46993e-09
1.17113e-08
-4.56307e-09
1.20557e-08
-3.36642e-09
1.23156e-08
-2.66524e-09
1.25348e-08
-2.3069e-09
1.27391e-08
-2.19221e-09
1.29423e-08
-2.26137e-09
1.31489e-08
-2.48204e-09
1.33532e-08
-2.84008e-09
1.35363e-08
-3.3312e-09
1.36597e-08
-3.95061e-09
1.36628e-08
-4.67762e-09
1.34716e-08
-5.45518e-09
-6.17546e-09
1.30378e-08
4.93699e-09
-2.74903e-08
8.42207e-09
-2.16922e-08
1.05536e-08
-1.54766e-08
1.17853e-08
-1.05727e-08
1.24948e-08
-7.17941e-09
1.29198e-08
-4.98803e-09
1.3196e-08
-3.64265e-09
1.33986e-08
-2.86778e-09
1.35684e-08
-2.4767e-09
1.37269e-08
-2.35074e-09
1.38833e-08
-2.41777e-09
1.40371e-08
-2.63583e-09
1.41779e-08
-2.98095e-09
1.42839e-08
-3.43711e-09
1.43192e-08
-3.986e-09
1.42372e-08
-4.5956e-09
1.39922e-08
-5.21012e-09
-5.74962e-09
1.35663e-08
6.12226e-09
-3.36126e-08
1.0108e-08
-2.56779e-08
1.23e-08
-1.76686e-08
1.34237e-08
-1.16964e-08
1.39916e-08
-7.7473e-09
1.42887e-08
-5.28515e-09
1.44607e-08
-3.81461e-09
1.45796e-08
-2.98662e-09
1.46799e-08
-2.57706e-09
1.47767e-08
-2.44756e-09
1.48732e-08
-2.51427e-09
1.49638e-08
-2.72643e-09
1.50346e-08
-3.05174e-09
1.5063e-08
-3.46548e-09
1.50184e-08
-3.94143e-09
1.48672e-08
-4.44439e-09
1.45836e-08
-4.92645e-09
-5.33138e-09
1.41653e-08
6.52907e-09
-4.01417e-08
1.03306e-08
-2.94795e-08
1.21307e-08
-1.94686e-08
1.28912e-08
-1.24569e-08
1.31828e-08
-8.03899e-09
1.32816e-08
-5.38387e-09
1.33102e-08
-3.84322e-09
1.33208e-08
-2.99726e-09
1.33337e-08
-2.58992e-09
1.33539e-08
-2.46778e-09
1.33784e-08
-2.53878e-09
1.33984e-08
-2.74642e-09
1.34e-08
-3.0533e-09
1.33646e-08
-3.43008e-09
1.32707e-08
-3.84761e-09
1.30983e-08
-4.27193e-09
1.28352e-08
-4.66339e-09
-4.98143e-09
1.24853e-08
9.70299e-09
-4.98447e-08
1.45215e-08
-3.4298e-08
1.63247e-08
-2.12719e-08
1.68167e-08
-1.29488e-08
1.68308e-08
-8.05313e-09
1.67058e-08
-5.25885e-09
1.65657e-08
-3.70313e-09
1.64498e-08
-2.8814e-09
1.63651e-08
-2.50518e-09
1.63057e-08
-2.40839e-09
1.62602e-08
-2.49326e-09
1.62134e-08
-2.69966e-09
1.61474e-08
-2.98728e-09
1.6042e-08
-3.32471e-09
1.58773e-08
-3.68291e-09
1.56374e-08
-4.03202e-09
1.53157e-08
-4.3417e-09
-4.58482e-09
1.49191e-08
1.56669e-08
-6.55116e-08
2.14322e-08
-4.00632e-08
2.25956e-08
-2.24353e-08
2.22961e-08
-1.26494e-08
2.16897e-08
-7.44673e-09
2.11235e-08
-4.69261e-09
2.06734e-08
-3.25306e-09
2.03348e-08
-2.54277e-09
2.00829e-08
-2.25326e-09
1.98904e-08
-2.21595e-09
1.97316e-08
-2.3344e-09
1.95819e-08
-2.54997e-09
1.94181e-08
-2.82348e-09
1.92186e-08
-3.12521e-09
1.89652e-08
-3.42952e-09
1.8646e-08
-3.71285e-09
1.82585e-08
-3.95416e-09
-4.13698e-09
1.78106e-08
2.8664e-08
-9.41756e-08
3.3686e-08
-4.50851e-08
3.22664e-08
-2.10157e-08
3.00185e-08
-1.04015e-08
2.81592e-08
-5.58745e-09
2.67963e-08
-3.32968e-09
2.58233e-08
-2.28006e-09
2.51246e-08
-1.84405e-09
2.46103e-08
-1.73898e-09
2.42145e-08
-1.82014e-09
2.38878e-08
-2.00777e-09
2.35921e-08
-2.25426e-09
2.32968e-08
-2.52815e-09
2.29778e-08
-2.80619e-09
2.26178e-08
-3.06955e-09
2.22075e-08
-3.30252e-09
2.1746e-08
-3.49272e-09
-3.63187e-09
2.12409e-08
6.32472e-08
-1.57423e-07
5.66917e-08
-3.85296e-08
4.70966e-08
-1.14206e-08
4.06055e-08
-3.91038e-09
3.65098e-08
-1.49174e-09
3.38792e-08
-6.9906e-10
3.21281e-08
-5.28952e-10
3.09145e-08
-6.30527e-10
3.00348e-08
-8.59287e-10
2.93619e-08
-1.14724e-09
2.88121e-08
-1.45792e-09
2.83277e-08
-1.76983e-09
2.78681e-08
-2.06856e-09
2.74051e-08
-2.34324e-09
2.69209e-08
-2.5853e-09
2.64065e-08
-2.78813e-09
2.58611e-08
-2.94733e-09
-3.06107e-09
2.52903e-08
1.83004e-07
1.5913e-07
9.68125e-08
4.76614e-08
6.6584e-08
1.88079e-08
5.32507e-08
9.423e-09
4.6264e-08
5.49495e-09
4.21433e-08
3.42158e-09
3.95028e-08
2.11162e-09
3.76976e-08
1.17467e-09
3.63898e-08
4.48448e-10
3.53839e-08
-1.41277e-10
3.45579e-08
-6.31933e-10
3.38382e-08
-1.05014e-09
3.31761e-08
-1.40642e-09
3.25397e-08
-1.70685e-09
3.19096e-08
-1.95526e-09
3.1276e-08
-2.15452e-09
3.06361e-08
-2.3074e-09
-2.41711e-09
2.99921e-08
7.7232e-08
8.18977e-08
7.54125e-08
4.9481e-08
6.53519e-08
2.88684e-08
5.73433e-08
1.74316e-08
5.18507e-08
1.09876e-08
4.8126e-08
7.14627e-09
4.55367e-08
4.70087e-09
4.36674e-08
3.04401e-09
4.22562e-08
1.85963e-09
4.1139e-08
9.75903e-10
4.02119e-08
2.95176e-10
3.93978e-08
-2.36017e-10
3.8647e-08
-6.55601e-10
3.79319e-08
-9.91801e-10
3.72361e-08
-1.25941e-09
3.65507e-08
-1.46912e-09
3.58725e-08
-1.62926e-09
-1.74674e-09
3.52022e-08
3.59395e-08
4.59582e-08
5.01236e-08
3.5297e-08
5.38068e-08
2.51852e-08
5.36325e-08
1.76059e-08
5.23218e-08
1.22983e-08
5.0845e-08
8.62309e-09
4.94974e-08
6.04848e-09
4.83339e-08
4.20749e-09
4.73327e-08
2.86075e-09
4.64545e-08
1.85412e-09
4.5662e-08
1.08774e-09
4.493e-08
4.95989e-10
4.42395e-08
3.48101e-11
4.35689e-08
-3.21121e-10
4.2909e-08
-5.99545e-10
4.2256e-08
-8.16136e-10
4.16091e-08
-9.82338e-10
-1.10714e-09
4.09695e-08
1.43036e-08
3.16545e-08
2.32894e-08
2.63112e-08
2.80978e-08
2.03767e-08
3.04497e-08
1.5254e-08
3.15023e-08
1.12457e-08
3.1896e-08
8.22938e-09
3.19591e-08
5.98535e-09
3.1854e-08
4.3126e-09
3.16594e-08
3.05538e-09
3.14131e-08
2.10044e-09
3.11333e-08
1.36749e-09
3.08294e-08
7.99905e-10
3.05066e-08
3.57589e-10
3.01736e-08
1.18999e-11
2.98284e-08
-2.5433e-10
2.9474e-08
-4.61711e-10
2.91135e-08
-6.21906e-10
-7.43831e-10
2.87502e-08
8.56848e-09
2.30861e-08
1.49635e-08
1.99162e-08
1.92098e-08
1.61304e-08
2.18764e-08
1.25874e-08
2.35078e-08
9.61435e-09
2.44894e-08
7.24771e-09
2.50658e-08
5.40902e-09
2.5385e-08
3.99342e-09
2.55359e-08
2.90442e-09
2.55725e-08
2.06384e-09
2.55283e-08
1.41173e-09
2.54249e-08
9.03306e-10
2.52771e-08
5.05353e-10
2.50958e-08
1.93245e-10
2.48919e-08
-5.05199e-11
2.46691e-08
-2.38823e-10
2.44323e-08
-3.85173e-10
-4.97671e-10
2.41862e-08
5.78497e-09
1.73011e-08
1.04751e-08
1.52261e-08
1.39452e-08
1.26603e-08
1.63909e-08
1.01417e-08
1.80738e-08
7.93142e-09
1.92176e-08
6.10388e-09
1.99868e-08
4.63989e-09
2.04947e-08
3.48551e-09
2.08179e-08
2.58125e-09
2.10078e-08
1.87385e-09
2.10999e-08
1.31971e-09
2.11186e-08
8.84627e-10
2.10816e-08
5.42319e-10
2.10021e-08
2.72733e-10
2.0891e-08
6.05698e-11
2.07564e-08
-1.04259e-10
2.06036e-08
-2.32299e-10
-3.31464e-10
2.04374e-08
4.21318e-09
1.30879e-08
7.78529e-09
1.1654e-08
1.05961e-08
9.84956e-09
1.27118e-08
8.02591e-09
1.4265e-08
6.3782e-09
1.53887e-08
4.98022e-09
1.61926e-08
3.836e-09
1.67601e-08
2.91803e-09
1.71522e-08
2.18913e-09
1.74131e-08
1.61293e-09
1.75749e-08
1.15795e-09
1.76609e-08
7.98549e-10
1.76888e-08
5.14428e-10
1.76718e-08
2.89771e-10
1.762e-08
1.12311e-10
1.75428e-08
-2.70355e-11
1.74456e-08
-1.35033e-10
-2.19166e-10
1.73333e-08
3.22539e-09
9.86252e-09
6.03273e-09
8.84667e-09
8.32612e-09
7.55617e-09
1.01242e-08
6.22784e-09
1.14981e-08
5.00432e-09
1.25305e-08
3.94782e-09
1.32965e-08
3.07e-09
1.38575e-08
2.35697e-09
1.42616e-08
1.78512e-09
1.4545e-08
1.32946e-09
1.47356e-08
9.67413e-10
1.48541e-08
6.79991e-10
1.49167e-08
4.51843e-10
1.49357e-08
2.70802e-10
1.49207e-08
1.2731e-10
1.48798e-08
1.38659e-11
1.4819e-08
-7.42338e-11
-1.43021e-10
1.47428e-08
2.55371e-09
7.30882e-09
4.81287e-09
6.5875e-09
6.70286e-09
5.66618e-09
8.22407e-09
4.70662e-09
9.41703e-09
3.81135e-09
1.03359e-08
3.02896e-09
1.10339e-08
2.37204e-09
1.15571e-08
1.83371e-09
1.19434e-08
1.3988e-09
1.22227e-08
1.05021e-09
1.24182e-08
7.71883e-10
1.25482e-08
5.50045e-10
1.26266e-08
3.73356e-10
1.26647e-08
2.32722e-10
1.26711e-08
1.20926e-10
1.26527e-08
3.22665e-11
1.26156e-08
-3.71255e-11
-9.1226e-11
1.25638e-08
2.06855e-09
5.24027e-09
3.91769e-09
4.73836e-09
5.48874e-09
4.09514e-09
6.7753e-09
3.42006e-09
7.80185e-09
2.78479e-09
8.60575e-09
2.22507e-09
9.22613e-09
1.75166e-09
9.69856e-09
1.36128e-09
1.00531e-08
1.04422e-09
1.03144e-08
7.88962e-10
1.05019e-08
5.84396e-10
1.06311e-08
4.20823e-10
1.07143e-08
2.90173e-10
1.07611e-08
1.8591e-10
1.07792e-08
1.02815e-10
1.07747e-08
3.67455e-11
1.07529e-08
-1.53019e-11
-5.58161e-11
1.07175e-08
1.70084e-09
3.53943e-09
3.23165e-09
3.20755e-09
4.5455e-09
2.78129e-09
5.63388e-09
2.33168e-09
6.5125e-09
1.90617e-09
7.20839e-09
1.52917e-09
7.75135e-09
1.2087e-09
8.16937e-09
9.43257e-10
8.48675e-09
7.2684e-10
8.7237e-09
5.52015e-10
8.8966e-09
4.115e-10
9.01857e-09
2.98847e-10
9.10009e-09
2.08651e-10
9.1495e-09
1.36506e-10
9.17344e-09
7.88753e-11
9.17724e-09
3.29423e-11
9.16539e-09
-3.45542e-12
-3.17003e-11
9.14128e-09
1.41046e-09
2.12897e-09
2.68562e-09
1.93238e-09
3.78739e-09
1.67952e-09
4.70714e-09
1.41193e-09
5.45557e-09
1.15774e-09
6.05307e-09
9.31678e-10
6.52293e-09
7.38841e-10
6.88759e-09
5.78601e-10
7.16685e-09
4.4758e-10
7.3774e-09
3.41463e-10
7.53293e-09
2.55965e-10
7.64451e-09
1.87267e-10
7.72102e-09
1.32144e-10
7.76957e-09
8.79575e-11
7.79586e-09
5.25834e-11
7.80448e-09
2.43224e-11
7.79921e-09
1.81614e-12
-1.55934e-11
7.7831e-09
1.17127e-09
9.57708e-10
2.23336e-09
8.70293e-10
3.15514e-09
7.5774e-10
3.92869e-09
6.38385e-10
4.56171e-09
5.24718e-10
5.07001e-09
4.23373e-10
5.47215e-09
3.36704e-10
5.78624e-09
2.64511e-10
6.02847e-09
2.05346e-10
6.21261e-09
1.57321e-10
6.35003e-09
1.18545e-10
6.44998e-09
8.73217e-11
6.51991e-09
6.2216e-11
6.56582e-09
4.20481e-11
6.59253e-09
2.58657e-11
6.60395e-09
1.29059e-11
6.60321e-09
2.55614e-12
-5.40615e-12
6.59302e-09
9.57708e-10
1.828e-09
2.58574e-09
3.22413e-09
3.74884e-09
4.17222e-09
4.50892e-09
4.77343e-09
4.97878e-09
5.1361e-09
5.25464e-09
5.34197e-09
5.40418e-09
5.44623e-09
5.4721e-09
5.485e-09
5.48756e-09
5.48215e-09
2.16735e-10
-2.16735e-10
4.34845e-10
-2.1811e-10
6.54199e-10
-2.19355e-10
8.74657e-10
-2.20458e-10
1.09606e-09
-2.21407e-10
1.31825e-09
-2.2219e-10
1.54105e-09
-2.22794e-10
1.76426e-09
-2.23208e-10
1.98769e-09
-2.2343e-10
2.21115e-09
-2.2346e-10
2.43446e-09
-2.23311e-10
2.65746e-09
-2.23005e-10
2.88004e-09
-2.22577e-10
3.10212e-09
-2.22079e-10
3.3237e-09
-2.2158e-10
3.54486e-09
-2.21164e-10
3.7658e-09
-2.20937e-10
3.98681e-09
-2.21011e-10
4.20831e-09
-2.21505e-10
4.43085e-09
-2.22534e-10
4.65505e-09
-2.24206e-10
4.88167e-09
-2.26619e-10
5.11154e-09
-2.29862e-10
5.34555e-09
-2.3401e-10
5.58467e-09
-2.3912e-10
5.82989e-09
-2.45224e-10
6.08221e-09
-2.52321e-10
6.34258e-09
-2.60368e-10
6.61186e-09
-2.69286e-10
6.89083e-09
-2.78967e-10
7.18015e-09
-2.89314e-10
7.48043e-09
-3.00286e-10
7.79239e-09
-3.11962e-10
8.117e-09
-3.24603e-10
8.45569e-09
-3.38693e-10
8.81067e-09
-3.54976e-10
9.18514e-09
-3.74476e-10
9.58371e-09
-3.98565e-10
1.00128e-08
-4.29066e-10
1.04812e-08
-4.68462e-10
1.10014e-08
-5.20207e-10
1.15906e-08
-5.89167e-10
1.22727e-08
-6.82101e-10
1.30804e-08
-8.07714e-10
1.4055e-08
-9.74549e-10
1.52357e-08
-1.18074e-09
1.66143e-08
-1.37859e-09
2.19621e-08
-5.34775e-09
2.04054e-08
1.5567e-09
1.92816e-08
1.12376e-09
1.84526e-08
8.29e-10
1.78128e-08
6.39756e-10
1.72937e-08
5.19124e-10
1.68529e-08
4.40823e-10
1.64648e-08
3.88121e-10
1.6114e-08
3.50822e-10
1.57911e-08
3.22819e-10
1.54907e-08
3.00483e-10
1.5209e-08
2.81669e-10
1.49439e-08
2.65123e-10
1.46937e-08
2.50124e-10
1.44575e-08
2.36263e-10
1.42342e-08
2.23314e-10
1.4023e-08
2.1115e-10
1.38233e-08
1.99697e-10
1.36344e-08
1.88907e-10
1.34557e-08
1.78744e-10
1.32865e-08
1.69176e-10
1.31263e-08
1.60169e-10
1.29746e-08
1.51694e-10
1.28309e-08
1.43719e-10
1.26947e-08
1.36212e-10
1.25655e-08
1.29143e-10
1.24431e-08
1.22484e-10
1.23269e-08
1.16208e-10
1.22166e-08
1.10289e-10
1.21119e-08
1.04704e-10
1.20124e-08
9.94303e-11
1.1918e-08
9.4449e-11
1.18282e-08
8.97412e-11
1.1743e-08
8.52902e-11
1.16619e-08
8.10805e-11
1.15848e-08
7.70977e-11
1.15114e-08
7.3329e-11
1.14417e-08
6.97622e-11
1.13753e-08
6.63865e-11
1.13121e-08
6.31912e-11
1.12519e-08
6.01672e-11
1.11946e-08
5.73054e-11
1.114e-08
5.45974e-11
1.1088e-08
5.20359e-11
1.10384e-08
4.96132e-11
1.09911e-08
4.73228e-11
1.09459e-08
4.51579e-11
1.09028e-08
4.31129e-11
1.08616e-08
4.11816e-11
1.08223e-08
3.93587e-11
1.07846e-08
3.76392e-11
1.07486e-08
3.60179e-11
1.07141e-08
3.44903e-11
1.06811e-08
3.30517e-11
1.06494e-08
3.16981e-11
1.06189e-08
3.04251e-11
1.05897e-08
2.92291e-11
1.05616e-08
2.81061e-11
1.05345e-08
2.70528e-11
1.05085e-08
2.60656e-11
1.04833e-08
2.51414e-11
1.04591e-08
2.42768e-11
1.04356e-08
2.3469e-11
1.04129e-08
2.27152e-11
1.03909e-08
2.20125e-11
1.03695e-08
2.13584e-11
1.03488e-08
2.07502e-11
1.03286e-08
2.01857e-11
1.03089e-08
1.96627e-11
1.02897e-08
1.91786e-11
1.0271e-08
1.87319e-11
1.02527e-08
1.83199e-11
1.02347e-08
1.79414e-11
1.02171e-08
1.75941e-11
1.01999e-08
1.72765e-11
1.01829e-08
1.69868e-11
1.01662e-08
1.67236e-11
1.01497e-08
1.64853e-11
1.01334e-08
1.62704e-11
1.01173e-08
1.60778e-11
1.01014e-08
1.59059e-11
1.00857e-08
1.57538e-11
1.007e-08
1.56202e-11
1.00545e-08
1.55039e-11
1.00391e-08
1.54042e-11
1.00238e-08
1.53197e-11
1.00086e-08
1.52498e-11
9.99337e-09
1.51936e-11
9.97822e-09
1.51502e-11
9.9631e-09
1.51187e-11
9.948e-09
1.50988e-11
9.93291e-09
1.50895e-11
9.91782e-09
1.50902e-11
9.90272e-09
1.51005e-11
9.8876e-09
1.51198e-11
9.87245e-09
1.51478e-11
9.85727e-09
1.51839e-11
9.84204e-09
1.52278e-11
9.82676e-09
1.52792e-11
9.81142e-09
1.5338e-11
9.79602e-09
1.54039e-11
9.78054e-09
1.54772e-11
9.76498e-09
1.55577e-11
9.74934e-09
1.56456e-11
9.7336e-09
1.57415e-11
9.71775e-09
1.5846e-11
9.70179e-09
1.59597e-11
9.68571e-09
1.6084e-11
9.66949e-09
1.62203e-11
9.65311e-09
1.6371e-11
9.63658e-09
1.65387e-11
9.61985e-09
1.6727e-11
9.60291e-09
1.69407e-11
9.58572e-09
1.71861e-11
9.56825e-09
1.74713e-11
9.55044e-09
1.78071e-11
9.53224e-09
1.82075e-11
9.51354e-09
1.86914e-11
9.49426e-09
1.92838e-11
9.47424e-09
2.00182e-11
9.4533e-09
2.09406e-11
9.43119e-09
2.21144e-11
9.40756e-09
2.36284e-11
9.38195e-09
2.56107e-11
9.3537e-09
2.82505e-11
9.32186e-09
3.18376e-11
9.28502e-09
3.68383e-11
9.24097e-09
4.40493e-11
9.18602e-09
5.49526e-11
9.11337e-09
7.26477e-11
9.00854e-09
1.04833e-10
8.83231e-09
1.76225e-10
4.00851e-10
8.43146e-09
2.49872e-10
-4.66607e-10
5.01395e-10
-4.69633e-10
7.54444e-10
-4.72403e-10
1.00889e-09
-4.74906e-10
1.26461e-09
-4.77126e-10
1.52148e-09
-4.79064e-10
1.77942e-09
-4.80732e-10
2.03836e-09
-4.8215e-10
2.29828e-09
-4.83342e-10
2.55915e-09
-4.84331e-10
2.82098e-09
-4.85145e-10
3.08379e-09
-4.85812e-10
3.34758e-09
-4.86365e-10
3.61234e-09
-4.86842e-10
3.87805e-09
-4.87287e-10
4.14463e-09
-4.87751e-10
4.41199e-09
-4.88292e-10
4.67996e-09
-4.88981e-10
4.94835e-09
-4.89895e-10
5.21694e-09
-4.91124e-10
5.4855e-09
-4.92766e-10
5.7538e-09
-4.94922e-10
6.02164e-09
-4.97701e-10
6.28884e-09
-5.01209e-10
6.55528e-09
-5.05561e-10
6.82093e-09
-5.10877e-10
7.08589e-09
-5.1728e-10
7.35042e-09
-5.24901e-10
7.61502e-09
-5.33879e-10
7.88043e-09
-5.44377e-10
8.14772e-09
-5.56605e-10
8.41829e-09
-5.70861e-10
8.69391e-09
-5.87578e-10
8.97669e-09
-6.07383e-10
9.26915e-09
-6.31158e-10
9.57429e-09
-6.60111e-10
9.89569e-09
-6.95877e-10
1.02378e-08
-7.40655e-10
1.06061e-08
-7.97435e-10
1.10081e-08
-8.70368e-10
1.14532e-08
-9.65379e-10
1.19553e-08
-1.09126e-09
1.2535e-08
-1.26173e-09
1.3227e-08
-1.49974e-09
1.40996e-08
-1.84719e-09
1.53079e-08
-2.38902e-09
1.7241e-08
-3.31168e-09
1.69889e-08
-5.09562e-09
1.94958e-08
-9.50254e-10
1.86754e-08
1.94421e-09
1.80684e-08
1.43592e-09
1.75706e-08
1.13755e-09
1.71379e-08
9.51905e-10
1.67486e-08
8.30034e-10
1.63913e-08
7.45433e-10
1.60591e-08
6.83099e-10
1.57476e-08
6.3428e-10
1.54543e-08
5.938e-10
1.51773e-08
5.58602e-10
1.49156e-08
5.2691e-10
1.4668e-08
4.97712e-10
1.44338e-08
4.70453e-10
1.42123e-08
4.44831e-10
1.40027e-08
4.2068e-10
1.38045e-08
3.97904e-10
1.3617e-08
3.76432e-10
1.34395e-08
3.56202e-10
1.32716e-08
3.37156e-10
1.31125e-08
3.1923e-10
1.29618e-08
3.02363e-10
1.28191e-08
2.86491e-10
1.26837e-08
2.71551e-10
1.25554e-08
2.57482e-10
1.24336e-08
2.44228e-10
1.23181e-08
2.31734e-10
1.22085e-08
2.1995e-10
1.21043e-08
2.08828e-10
1.20054e-08
1.98327e-10
1.19115e-08
1.88405e-10
1.18222e-08
1.79026e-10
1.17373e-08
1.70158e-10
1.16566e-08
1.61769e-10
1.15799e-08
1.53832e-10
1.15069e-08
1.46321e-10
1.14375e-08
1.39211e-10
1.13714e-08
1.32481e-10
1.13084e-08
1.26111e-10
1.12485e-08
1.20082e-10
1.11915e-08
1.14375e-10
1.11371e-08
1.08975e-10
1.10853e-08
1.03867e-10
1.10358e-08
9.90352e-11
1.09887e-08
9.44669e-11
1.09437e-08
9.01492e-11
1.09007e-08
8.607e-11
1.08597e-08
8.22179e-11
1.08205e-08
7.8582e-11
1.0783e-08
7.51517e-11
1.07471e-08
7.19177e-11
1.07127e-08
6.88702e-11
1.06797e-08
6.60006e-11
1.06481e-08
6.33e-11
1.06178e-08
6.07607e-11
1.05887e-08
5.83748e-11
1.05606e-08
5.61346e-11
1.05336e-08
5.40333e-11
1.05076e-08
5.20639e-11
1.04826e-08
5.022e-11
1.04584e-08
4.84952e-11
1.04349e-08
4.68839e-11
1.04123e-08
4.538e-11
1.03903e-08
4.39782e-11
1.0369e-08
4.26731e-11
1.03483e-08
4.14602e-11
1.03281e-08
4.0334e-11
1.03085e-08
3.92906e-11
1.02894e-08
3.83253e-11
1.02707e-08
3.74338e-11
1.02524e-08
3.66125e-11
1.02344e-08
3.58573e-11
1.02169e-08
3.51647e-11
1.01996e-08
3.45313e-11
1.01827e-08
3.39536e-11
1.0166e-08
3.34286e-11
1.01495e-08
3.29535e-11
1.01332e-08
3.25252e-11
1.01172e-08
3.2141e-11
1.01013e-08
3.17986e-11
1.00855e-08
3.14954e-11
1.00699e-08
3.12291e-11
1.00544e-08
3.09976e-11
1.0039e-08
3.07988e-11
1.00237e-08
3.06307e-11
1.00085e-08
3.04916e-11
9.99329e-09
3.03799e-11
9.97815e-09
3.02935e-11
9.96304e-09
3.02314e-11
9.94794e-09
3.01919e-11
9.93286e-09
3.01737e-11
9.91778e-09
3.01757e-11
9.90268e-09
3.01968e-11
9.88756e-09
3.02358e-11
9.87242e-09
3.02919e-11
9.85724e-09
3.03643e-11
9.84201e-09
3.04524e-11
9.82674e-09
3.05555e-11
9.8114e-09
3.06732e-11
9.796e-09
3.08053e-11
9.78053e-09
3.09517e-11
9.76497e-09
3.11127e-11
9.74933e-09
3.12887e-11
9.73359e-09
3.14805e-11
9.71775e-09
3.16889e-11
9.70179e-09
3.19162e-11
9.68571e-09
3.21644e-11
9.66949e-09
3.24368e-11
9.65313e-09
3.27373e-11
9.63659e-09
3.30717e-11
9.61987e-09
3.34471e-11
9.60294e-09
3.38731e-11
9.58577e-09
3.4362e-11
9.56831e-09
3.49298e-11
9.55052e-09
3.55981e-11
9.53233e-09
3.63948e-11
9.51366e-09
3.73568e-11
9.49441e-09
3.8534e-11
9.47444e-09
3.99928e-11
9.45356e-09
4.18239e-11
9.43152e-09
4.41521e-11
9.40799e-09
4.71531e-11
9.38253e-09
5.10781e-11
9.35448e-09
5.62972e-11
9.32294e-09
6.33757e-11
9.28656e-09
7.32142e-11
9.24328e-09
8.73358e-11
9.18971e-09
1.08518e-10
9.11999e-09
1.42367e-10
9.023e-09
2.01825e-10
8.87706e-09
3.22166e-10
6.16187e-10
8.66172e-09
2.62928e-10
-7.29535e-10
5.27617e-10
-7.34321e-10
7.93883e-10
-7.3867e-10
1.06155e-09
-7.42577e-10
1.33046e-09
-7.46029e-10
1.60043e-09
-7.49038e-10
1.87134e-09
-7.51641e-10
2.14307e-09
-7.53885e-10
2.41555e-09
-7.55821e-10
2.68872e-09
-7.57498e-10
2.96254e-09
-7.58962e-10
3.23698e-09
-7.60255e-10
3.51203e-09
-7.61411e-10
3.78764e-09
-7.62457e-10
4.06376e-09
-7.6341e-10
4.34029e-09
-7.64274e-10
4.61704e-09
-7.65043e-10
4.89377e-09
-7.65711e-10
5.17015e-09
-7.66279e-10
5.4458e-09
-7.6677e-10
5.72028e-09
-7.67247e-10
5.99317e-09
-7.67812e-10
6.26409e-09
-7.68619e-10
6.53274e-09
-7.69865e-10
6.79897e-09
-7.71783e-10
7.06273e-09
-7.74641e-10
7.32418e-09
-7.78731e-10
7.58366e-09
-7.84375e-10
7.8417e-09
-7.91923e-10
8.09909e-09
-8.01768e-10
8.35685e-09
-8.14367e-10
8.61626e-09
-8.30272e-10
8.87886e-09
-8.50178e-10
9.14646e-09
-8.74977e-10
9.42112e-09
-9.0582e-10
9.70521e-09
-9.44206e-10
1.00014e-08
-9.92079e-10
1.03127e-08
-1.05198e-09
1.06426e-08
-1.12726e-09
1.09946e-08
-1.22239e-09
1.13726e-08
-1.34344e-09
1.17802e-08
-1.49879e-09
1.22186e-08
-1.70017e-09
1.2683e-08
-1.96413e-09
1.31492e-08
-2.31336e-09
1.35356e-08
-2.77549e-09
1.35915e-08
-3.3675e-09
1.2517e-08
-4.02121e-09
1.65483e-08
-4.98148e-09
1.76309e-08
8.61585e-10
1.746e-08
1.60677e-09
1.71954e-08
1.40216e-09
1.68932e-08
1.25413e-09
1.65797e-08
1.14357e-09
1.62674e-08
1.05773e-09
1.59625e-08
9.87994e-10
1.56681e-08
9.2865e-10
1.53859e-08
8.7604e-10
1.51165e-08
8.27942e-10
1.48603e-08
7.83093e-10
1.46172e-08
7.40825e-10
1.43869e-08
7.00816e-10
1.41688e-08
6.62919e-10
1.39624e-08
6.27056e-10
1.37671e-08
5.93173e-10
1.35824e-08
5.61211e-10
1.34075e-08
5.31099e-10
1.32419e-08
5.02753e-10
1.3085e-08
4.76082e-10
1.29364e-08
4.50989e-10
1.27955e-08
4.27378e-10
1.26619e-08
4.05153e-10
1.25352e-08
3.84222e-10
1.24149e-08
3.645e-10
1.23007e-08
3.45906e-10
1.21923e-08
3.28363e-10
1.20893e-08
3.11802e-10
1.19915e-08
2.96161e-10
1.18985e-08
2.81379e-10
1.18101e-08
2.67404e-10
1.17261e-08
2.54186e-10
1.16462e-08
2.4168e-10
1.15702e-08
2.29844e-10
1.14979e-08
2.18641e-10
1.1429e-08
2.08036e-10
1.13635e-08
1.97995e-10
1.13012e-08
1.8849e-10
1.12417e-08
1.79492e-10
1.11851e-08
1.70975e-10
1.11312e-08
1.62915e-10
1.10798e-08
1.55289e-10
1.10307e-08
1.48076e-10
1.0984e-08
1.41255e-10
1.09393e-08
1.34808e-10
1.08966e-08
1.28717e-10
1.08559e-08
1.22964e-10
1.08169e-08
1.17534e-10
1.07797e-08
1.12412e-10
1.0744e-08
1.07582e-10
1.07099e-08
1.0303e-10
1.06771e-08
9.87442e-11
1.06457e-08
9.47108e-11
1.06156e-08
9.0918e-11
1.05866e-08
8.73541e-11
1.05587e-08
8.4008e-11
1.05319e-08
8.08693e-11
1.0506e-08
7.79277e-11
1.0481e-08
7.51735e-11
1.04569e-08
7.25974e-11
1.04336e-08
7.01904e-11
1.04111e-08
6.79442e-11
1.03892e-08
6.58504e-11
1.0368e-08
6.39013e-11
1.03473e-08
6.20895e-11
1.03273e-08
6.04078e-11
1.03077e-08
5.88494e-11
1.02886e-08
5.74077e-11
1.027e-08
5.60766e-11
1.02517e-08
5.48501e-11
1.02339e-08
5.37224e-11
1.02164e-08
5.26883e-11
1.01991e-08
5.17427e-11
1.01822e-08
5.08803e-11
1.01656e-08
5.00969e-11
1.01491e-08
4.93876e-11
1.01329e-08
4.87485e-11
1.01169e-08
4.81755e-11
1.0101e-08
4.76646e-11
1.00853e-08
4.72125e-11
1.00697e-08
4.68156e-11
1.00542e-08
4.64705e-11
1.00388e-08
4.61745e-11
1.00235e-08
4.59244e-11
1.00083e-08
4.57176e-11
9.99315e-09
4.55514e-11
9.97802e-09
4.54236e-11
9.96292e-09
4.53317e-11
9.94784e-09
4.52738e-11
9.93276e-09
4.52477e-11
9.91769e-09
4.52517e-11
9.9026e-09
4.52842e-11
9.88749e-09
4.53437e-11
9.87236e-09
4.54287e-11
9.85718e-09
4.55379e-11
9.84196e-09
4.56706e-11
9.82669e-09
4.58257e-11
9.81136e-09
4.60026e-11
9.79597e-09
4.62012e-11
9.7805e-09
4.64211e-11
9.76495e-09
4.66627e-11
9.74931e-09
4.69265e-11
9.73358e-09
4.72137e-11
9.71774e-09
4.75263e-11
9.70179e-09
4.78665e-11
9.68572e-09
4.82378e-11
9.66951e-09
4.8645e-11
9.65315e-09
4.90943e-11
9.63663e-09
4.95937e-11
9.61992e-09
5.0154e-11
9.60301e-09
5.07892e-11
9.58585e-09
5.15175e-11
9.56842e-09
5.23631e-11
9.55066e-09
5.33573e-11
9.53251e-09
5.45416e-11
9.5139e-09
5.59707e-11
9.49472e-09
5.77177e-11
9.47483e-09
5.98808e-11
9.45406e-09
6.25934e-11
9.43217e-09
6.60386e-11
9.40885e-09
7.04731e-11
9.38367e-09
7.62631e-11
9.35602e-09
8.39447e-11
9.32507e-09
9.43291e-11
9.28958e-09
1.08695e-10
9.24775e-09
1.29166e-10
9.19677e-09
1.59501e-10
9.13221e-09
2.06927e-10
9.04734e-09
2.86699e-10
8.93547e-09
4.34034e-10
7.31496e-10
8.82016e-09
2.72099e-10
-1.00163e-09
5.46056e-10
-1.00828e-09
8.21626e-10
-1.01424e-09
1.09856e-09
-1.01951e-09
1.37661e-09
-1.02408e-09
1.65551e-09
-1.02794e-09
1.93501e-09
-1.03114e-09
2.21483e-09
-1.03371e-09
2.49473e-09
-1.03572e-09
2.77444e-09
-1.03721e-09
3.05373e-09
-1.03825e-09
3.33236e-09
-1.03888e-09
3.6101e-09
-1.03915e-09
3.88674e-09
-1.0391e-09
4.16209e-09
-1.03876e-09
4.43596e-09
-1.03814e-09
4.7082e-09
-1.03728e-09
4.97868e-09
-1.03619e-09
5.24732e-09
-1.03491e-09
5.51403e-09
-1.03349e-09
5.77881e-09
-1.03202e-09
6.04164e-09
-1.03065e-09
6.30256e-09
-1.02954e-09
6.56163e-09
-1.02893e-09
6.81894e-09
-1.0291e-09
7.07465e-09
-1.03035e-09
7.32897e-09
-1.03305e-09
7.5822e-09
-1.03761e-09
7.83477e-09
-1.04449e-09
8.08722e-09
-1.05422e-09
8.34024e-09
-1.06739e-09
8.5947e-09
-1.08473e-09
8.85158e-09
-1.10706e-09
9.11204e-09
-1.13544e-09
9.37732e-09
-1.1711e-09
9.64873e-09
-1.21562e-09
9.92759e-09
-1.27093e-09
1.02151e-08
-1.33947e-09
1.05121e-08
-1.42426e-09
1.08188e-08
-1.52912e-09
1.11342e-08
-1.65881e-09
1.14546e-08
-1.81922e-09
1.17718e-08
-2.01733e-09
1.20684e-08
-2.2608e-09
1.23113e-08
-2.5562e-09
1.24401e-08
-2.90428e-09
1.23617e-08
-3.28912e-09
1.19994e-08
-3.65896e-09
1.09369e-08
-3.91891e-09
1.67318e-08
-4.93335e-09
1.70343e-08
1.30425e-09
1.68892e-08
1.54734e-09
1.6666e-08
1.4773e-09
1.64043e-08
1.40523e-09
1.61259e-08
1.33615e-09
1.58432e-08
1.27073e-09
1.55636e-08
1.20826e-09
1.52916e-08
1.14798e-09
1.503e-08
1.08954e-09
1.47802e-08
1.03294e-09
1.45426e-08
9.78365e-10
1.43174e-08
9.26042e-10
1.41042e-08
8.76163e-10
1.39024e-08
8.28839e-10
1.37115e-08
7.84098e-10
1.35308e-08
7.41904e-10
1.33597e-08
7.02174e-10
1.31976e-08
6.64795e-10
1.30441e-08
6.29639e-10
1.28985e-08
5.96572e-10
1.27604e-08
5.6546e-10
1.26294e-08
5.36173e-10
1.2505e-08
5.08587e-10
1.23869e-08
4.82587e-10
1.22748e-08
4.58065e-10
1.21682e-08
4.34922e-10
1.2067e-08
4.13067e-10
1.19707e-08
3.92417e-10
1.18792e-08
3.72896e-10
1.17922e-08
3.54433e-10
1.17094e-08
3.36964e-10
1.16306e-08
3.20431e-10
1.15557e-08
3.0478e-10
1.14844e-08
2.89962e-10
1.14165e-08
2.75931e-10
1.13518e-08
2.62644e-10
1.12903e-08
2.50063e-10
1.12316e-08
2.38151e-10
1.11757e-08
2.26874e-10
1.11224e-08
2.16201e-10
1.10716e-08
2.06101e-10
1.10231e-08
1.96547e-10
1.09769e-08
1.87512e-10
1.09327e-08
1.78971e-10
1.08905e-08
1.709e-10
1.08502e-08
1.63278e-10
1.08117e-08
1.56083e-10
1.07748e-08
1.49295e-10
1.07395e-08
1.42894e-10
1.07056e-08
1.36862e-10
1.06732e-08
1.31181e-10
1.06421e-08
1.25835e-10
1.06122e-08
1.20809e-10
1.05835e-08
1.16085e-10
1.05558e-08
1.1165e-10
1.05292e-08
1.0749e-10
1.05035e-08
1.03591e-10
1.04788e-08
9.994e-11
1.04548e-08
9.65256e-11
1.04317e-08
9.33353e-11
1.04093e-08
9.0358e-11
1.03875e-08
8.7583e-11
1.03664e-08
8.49999e-11
1.03459e-08
8.25986e-11
1.0326e-08
8.03699e-11
1.03065e-08
7.83048e-11
1.02875e-08
7.63944e-11
1.0269e-08
7.46305e-11
1.02508e-08
7.30056e-11
1.0233e-08
7.15117e-11
1.02156e-08
7.01418e-11
1.01984e-08
6.88893e-11
1.01816e-08
6.77472e-11
1.0165e-08
6.67098e-11
1.01486e-08
6.57709e-11
1.01324e-08
6.49249e-11
1.01164e-08
6.41667e-11
1.01006e-08
6.34909e-11
1.00849e-08
6.28931e-11
1.00693e-08
6.23684e-11
1.00539e-08
6.19127e-11
1.00386e-08
6.15218e-11
1.00233e-08
6.11921e-11
1.00081e-08
6.09197e-11
9.99294e-09
6.07012e-11
9.97783e-09
6.05336e-11
9.96274e-09
6.04137e-11
9.94768e-09
6.03388e-11
9.93262e-09
6.03062e-11
9.91756e-09
6.03137e-11