/*--------------------------------*- C++ -*----------------------------------*\
  =========                 |
  \\      /  F ield         | OpenFOAM: The Open Source CFD Toolbox
   \\    /   O peration     | Website:  https://openfoam.org
    \\  /    A nd           | Version:  10
     \\/     M anipulation  |
\*---------------------------------------------------------------------------*/
FoamFile
{
    format      ascii;
    class       volScalarField;
    location    "2.22";
    object      Sb;
}
// * * * * * * * * * * * * * * * * * * * * * * * * * * * * * * * * * * * * * //

dimensions      [0 0 0 0 0 0 0];

internalField   nonuniform List<scalar> 
12225
(
0.873955
0.872962
0.871725
0.870373
0.868992
0.86764
0.866353
0.865153
0.864052
0.863061
0.86219
0.861449
0.860856
0.86044
0.860261
0.860447
0.861346
0.86402
0.885815
0.88456
0.883012
0.881336
0.879642
0.877999
0.876447
0.875009
0.873698
0.872525
0.871496
0.870622
0.869921
0.869421
0.869181
0.869313
0.870056
0.871816
0.893255
0.89178
0.889978
0.888043
0.886102
0.884231
0.882475
0.880856
0.879387
0.878074
0.876925
0.875947
0.875155
0.874576
0.874257
0.87428
0.874775
0.875859
0.899162
0.897474
0.895429
0.893251
0.891081
0.889004
0.887062
0.88528
0.883668
0.88223
0.880971
0.879895
0.879015
0.878349
0.877932
0.877811
0.878041
0.878617
0.904331
0.902423
0.900132
0.897711
0.895315
0.893034
0.890913
0.888973
0.887223
0.885664
0.884296
0.883122
0.882147
0.881384
0.880851
0.880568
0.880541
0.88072
0.909108
0.906964
0.904413
0.901739
0.899111
0.896623
0.894321
0.892223
0.890334
0.888651
0.887172
0.885895
0.884819
0.883948
0.883285
0.882831
0.882564
0.882424
0.913681
0.911277
0.908445
0.905501
0.90263
0.899927
0.897438
0.895176
0.893144
0.891333
0.889738
0.888351
0.887165
0.886175
0.885373
0.884746
0.884259
0.883854
0.918172
0.915474
0.912334
0.909099
0.905967
0.903037
0.90035
0.897918
0.895735
0.893791
0.892072
0.890567
0.889262
0.888145
0.887199
0.886401
0.885713
0.885084
0.922671
0.919636
0.91615
0.912596
0.909182
0.906008
0.903113
0.900499
0.898158
0.896072
0.894223
0.892592
0.89116
0.889909
0.888816
0.887853
0.886981
0.886158
0.927252
0.923823
0.919945
0.916036
0.912315
0.908879
0.905759
0.902953
0.900444
0.898207
0.896219
0.894455
0.89289
0.891501
0.89026
0.889137
0.888098
0.887106
0.931986
0.928088
0.923758
0.919452
0.915391
0.91167
0.908309
0.905298
0.902611
0.900215
0.89808
0.896175
0.894472
0.892942
0.891555
0.89028
0.889086
0.887943
0.936943
0.932474
0.92762
0.922862
0.918425
0.914393
0.910774
0.907544
0.904668
0.902104
0.899815
0.897764
0.895918
0.894245
0.892714
0.891294
0.889957
0.888678
0.941415
0.93634
0.930952
0.925753
0.920957
0.916633
0.912776
0.909347
0.906299
0.903584
0.901157
0.898977
0.897006
0.895211
0.89356
0.892024
0.890575
0.889192
0.946835
0.940915
0.934817
0.929046
0.923799
0.919117
0.914971
0.911304
0.908054
0.905162
0.902575
0.900246
0.898136
0.896207
0.894428
0.892768
0.891203
0.88971
0.953499
0.946356
0.939285
0.932762
0.926941
0.921818
0.917325
0.913378
0.909894
0.9068
0.904035
0.901544
0.899283
0.89721
0.895291
0.893497
0.891803
0.89019
0.961922
0.952928
0.944462
0.936918
0.930356
0.924689
0.919786
0.915521
0.911781
0.908474
0.905519
0.902852
0.900419
0.898176
0.896088
0.894127
0.892271
0.890504
0.973729
0.961922
0.951319
0.942316
0.934778
0.92842
0.92299
0.918292
0.914177
0.910514
0.907197
0.904175
0.901404
0.898846
0.896471
0.894253
0.892172
0.890214
0.958284
0.950132
0.942482
0.935553
0.929387
0.923932
0.919104
0.91481
0.910968
0.907521
0.904427
0.901587
0.898943
0.896477
0.894172
0.892012
0.889984
0.888075
0.943115
0.937582
0.931964
0.92661
0.921648
0.917109
0.912977
0.909215
0.905784
0.902643
0.899755
0.897115
0.894705
0.892458
0.890354
0.88838
0.886523
0.884772
0.932217
0.928174
0.923792
0.91943
0.915255
0.911339
0.907701
0.904335
0.901223
0.898343
0.895671
0.893187
0.890873
0.888748
0.886752
0.884872
0.883101
0.881428
0.922874
0.91978
0.916263
0.91264
0.909083
0.905676
0.902458
0.899441
0.89662
0.893986
0.891525
0.889222
0.887064
0.885041
0.883167
0.881401
0.879732
0.878155
0.914628
0.912169
0.909279
0.906221
0.903154
0.900168
0.897309
0.894597
0.892039
0.889631
0.887366
0.885237
0.883232
0.881343
0.879573
0.877913
0.876344
0.874859
0.907151
0.905141
0.90272
0.900104
0.897436
0.894802
0.89225
0.889807
0.887483
0.885282
0.8832
0.881232
0.879372
0.877614
0.875951
0.874392
0.872917
0.87152
0.90019
0.898514
0.896456
0.894196
0.891858
0.889523
0.887238
0.885033
0.88292
0.880907
0.878994
0.877177
0.875455
0.873821
0.87227
0.870808
0.869425
0.868112
0.893531
0.892114
0.890347
0.88838
0.886321
0.884244
0.882195
0.880203
0.878283
0.876443
0.874686
0.873012
0.871418
0.869902
0.86846
0.867089
0.865794
0.864563
0.886955
0.885747
0.884221
0.882502
0.880686
0.878838
0.877001
0.875203
0.873461
0.871783
0.870174
0.868634
0.867164
0.865761
0.864422
0.863146
0.861936
0.860784
0.880194
0.879161
0.877842
0.876342
0.874743
0.873102
0.871461
0.869845
0.868271
0.866747
0.86528
0.863872
0.862521
0.861229
0.859993
0.858811
0.857686
0.856613
0.872822
0.871944
0.870811
0.869511
0.868113
0.866669
0.865216
0.863776
0.862367
0.860996
0.859671
0.858393
0.857165
0.855985
0.854853
0.853768
0.852731
0.851741
0.863918
0.863187
0.862232
0.861127
0.85993
0.858685
0.857423
0.856166
0.854928
0.853719
0.852544
0.851407
0.850309
0.84925
0.848231
0.847251
0.84631
0.845409
0.849957
0.849379
0.848614
0.84772
0.846741
0.845714
0.844665
0.84361
0.842564
0.841535
0.840528
0.839546
0.838592
0.837667
0.836771
0.835904
0.835067
0.834269
0.746499
0.746557
0.74663
0.746717
0.746818
0.746934
0.747067
0.74722
0.747398
0.747604
0.747844
0.748123
0.748446
0.74882
0.749253
0.749753
0.750329
0.750992
0.751755
0.752631
0.753634
0.754778
0.75608
0.757552
0.759206
0.761049
0.763078
0.765277
0.767615
0.770045
0.772503
0.774916
0.777211
0.779323
0.781204
0.782823
0.784165
0.785227
0.786003
0.786485
0.78664
0.78639
0.785548
0.783649
0.779323
0.766752
0.668048
0.052662
2.33762e-06
1.1e-06
1.1e-06
1.1e-06
1.1e-06
1.1e-06
1.1e-06
1.1e-06
1.1e-06
1.1e-06
1.1e-06
1.1e-06
1.1e-06
1.1e-06
1.1e-06
1.1e-06
1.1e-06
1.1e-06
1.1e-06
1.1e-06
1.1e-06
1.1e-06
1.1e-06
1.1e-06
1.1e-06
1.1e-06
1.1e-06
1.1e-06
1.1e-06
1.1e-06
1.1e-06
1.1e-06
1.1e-06
1.1e-06
1.1e-06
1.1e-06
1.1e-06
1.1e-06
1.1e-06
1.1e-06
1.1e-06
1.1e-06
1.1e-06
1.1e-06
1.1e-06
1.1e-06
1.1e-06
1.1e-06
1.1e-06
1.1e-06
1.1e-06
1.1e-06
1.1e-06
1.1e-06
1.1e-06
1.1e-06
1.1e-06
1.1e-06
1.1e-06
1.1e-06
1.1e-06
1.1e-06
1.1e-06
1.1e-06
1.1e-06
1.1e-06
1.1e-06
1.1e-06
1.1e-06
1.1e-06
1.1e-06
1.1e-06
1.1e-06
1.1e-06
1.1e-06
1.1e-06
1.1e-06
1.1e-06
1.1e-06
1.1e-06
1.1e-06
1.1e-06
1.1e-06
1.1e-06
1.1e-06
1.1e-06
1.1e-06
1.1e-06
1.1e-06
1.1e-06
1.1e-06
1.1e-06
1.1e-06
1.1e-06
1.1e-06
1.1e-06
1.1e-06
1.1e-06
1.1e-06
1.1e-06
1.1e-06
1.1e-06
1.1e-06
1.1e-06
1.1e-06
1.1e-06
1.1e-06
1.1e-06
1.1e-06
1.1e-06
1.1e-06
1.1e-06
1.1e-06
1.1e-06
1.1e-06
1.1e-06
1.1e-06
1.1e-06
1.1e-06
1.1e-06
1.1e-06
1.1e-06
1.1e-06
1.1e-06
1.1e-06
1.1e-06
1.1e-06
1.1e-06
1.1e-06
1.1e-06
1.1e-06
1.1e-06
0.801938
0.801991
0.802063
0.802149
0.802249
0.802371
0.802528
0.802738
0.803015
0.803372
0.803819
0.80436
0.804998
0.805728
0.806541
0.807422
0.808348
0.809293
0.810226
0.811118
0.811941
0.812672
0.813292
0.813786
0.814144
0.81436
0.814434
0.81437
0.814173
0.813851
0.813411
0.812862
0.812209
0.811455
0.810604
0.809658
0.808615
0.807472
0.80622
0.804843
0.803304
0.801533
0.799382
0.79653
0.792168
0.78365
0.755124
0.341973
0.000273617
1.1e-06
1.1e-06
1.1e-06
1.1e-06
1.1e-06
1.1e-06
1.1e-06
1.1e-06
1.1e-06
1.1e-06
1.1e-06
1.1e-06
1.1e-06
1.1e-06
1.1e-06
1.1e-06
1.1e-06
1.1e-06
1.1e-06
1.1e-06
1.1e-06
1.1e-06
1.1e-06
1.1e-06
1.1e-06
1.1e-06
1.1e-06
1.1e-06
1.1e-06
1.1e-06
1.1e-06
1.1e-06
1.1e-06
1.1e-06
1.1e-06
1.1e-06
1.1e-06
1.1e-06
1.1e-06
1.1e-06
1.1e-06
1.1e-06
1.1e-06
1.1e-06
1.1e-06
1.1e-06
1.1e-06
1.1e-06
1.1e-06
1.1e-06
1.1e-06
1.1e-06
1.1e-06
1.1e-06
1.1e-06
1.1e-06
1.1e-06
1.1e-06
1.1e-06
1.1e-06
1.1e-06
1.1e-06
1.1e-06
1.1e-06
1.1e-06
1.1e-06
1.1e-06
1.1e-06
1.1e-06
1.1e-06
1.1e-06
1.1e-06
1.1e-06
1.1e-06
1.1e-06
1.1e-06
1.1e-06
1.1e-06
1.1e-06
1.1e-06
1.1e-06
1.1e-06
1.1e-06
1.1e-06
1.1e-06
1.1e-06
1.1e-06
1.1e-06
1.1e-06
1.1e-06
1.1e-06
1.1e-06
1.1e-06
1.1e-06
1.1e-06
1.1e-06
1.1e-06
1.1e-06
1.1e-06
1.1e-06
1.1e-06
1.1e-06
1.1e-06
1.1e-06
1.1e-06
1.1e-06
1.1e-06
1.1e-06
1.1e-06
1.1e-06
1.1e-06
1.1e-06
1.1e-06
1.1e-06
1.1e-06
1.1e-06
1.1e-06
1.1e-06
1.1e-06
1.1e-06
1.1e-06
1.1e-06
1.1e-06
1.1e-06
1.1e-06
1.1e-06
1.1e-06
1.1e-06
1.1e-06
1.1e-06
1.1e-06
0.814861
0.814919
0.814981
0.815045
0.815108
0.815178
0.815267
0.815394
0.815574
0.815821
0.816144
0.81655
0.817044
0.817624
0.818284
0.819013
0.819788
0.820583
0.821365
0.822097
0.822746
0.823282
0.82368
0.823925
0.824006
0.823922
0.823674
0.823271
0.822722
0.822039
0.821235
0.820323
0.819315
0.818219
0.817047
0.815805
0.814498
0.813128
0.81169
0.810172
0.808545
0.806753
0.804689
0.802139
0.798633
0.792939
0.780483
0.71877
0.114296
1.13659e-05
1.1e-06
1.1e-06
1.1e-06
1.1e-06
1.1e-06
1.1e-06
1.1e-06
1.1e-06
1.1e-06
1.1e-06
1.1e-06
1.1e-06
1.1e-06
1.1e-06
1.1e-06
1.1e-06
1.1e-06
1.1e-06
1.1e-06
1.1e-06
1.1e-06
1.1e-06
1.1e-06
1.1e-06
1.1e-06
1.1e-06
1.1e-06
1.1e-06
1.1e-06
1.1e-06
1.1e-06
1.1e-06
1.1e-06
1.1e-06
1.1e-06
1.1e-06
1.1e-06
1.1e-06
1.1e-06
1.1e-06
1.1e-06
1.1e-06
1.1e-06
1.1e-06
1.1e-06
1.1e-06
1.1e-06
1.1e-06
1.1e-06
1.1e-06
1.1e-06
1.1e-06
1.1e-06
1.1e-06
1.1e-06
1.1e-06
1.1e-06
1.1e-06
1.1e-06
1.1e-06
1.1e-06
1.1e-06
1.1e-06
1.1e-06
1.1e-06
1.1e-06
1.1e-06
1.1e-06
1.1e-06
1.1e-06
1.1e-06
1.1e-06
1.1e-06
1.1e-06
1.1e-06
1.1e-06
1.1e-06
1.1e-06
1.1e-06
1.1e-06
1.1e-06
1.1e-06
1.1e-06
1.1e-06
1.1e-06
1.1e-06
1.1e-06
1.1e-06
1.1e-06
1.1e-06
1.1e-06
1.1e-06
1.1e-06
1.1e-06
1.1e-06
1.1e-06
1.1e-06
1.1e-06
1.1e-06
1.1e-06
1.1e-06
1.1e-06
1.1e-06
1.1e-06
1.1e-06
1.1e-06
1.1e-06
1.1e-06
1.1e-06
1.1e-06
1.1e-06
1.1e-06
1.1e-06
1.1e-06
1.1e-06
1.1e-06
1.1e-06
1.1e-06
1.1e-06
1.1e-06
1.1e-06
1.1e-06
1.1e-06
1.1e-06
1.1e-06
1.1e-06
1.1e-06
1.1e-06
1.1e-06
1.1e-06
0.822016
0.822097
0.82217
0.822239
0.822299
0.822351
0.822399
0.822453
0.822519
0.822604
0.822713
0.822847
0.823009
0.823198
0.82341
0.823639
0.823877
0.824113
0.824333
0.824523
0.824668
0.824757
0.824777
0.824719
0.824577
0.824344
0.824019
0.823602
0.823094
0.822498
0.821821
0.821068
0.820245
0.819358
0.818413
0.817413
0.81636
0.815252
0.814081
0.812832
0.811477
0.809972
0.808237
0.806134
0.803392
0.799422
0.792608
0.776394
0.661094
0.035846
1.5678e-06
1.1e-06
1.1e-06
1.1e-06
1.1e-06
1.1e-06
1.1e-06
1.1e-06
1.1e-06
1.1e-06
1.1e-06
1.1e-06
1.1e-06
1.1e-06
1.1e-06
1.1e-06
1.1e-06
1.1e-06
1.1e-06
1.1e-06
1.1e-06
1.1e-06
1.1e-06
1.1e-06
1.1e-06
1.1e-06
1.1e-06
1.1e-06
1.1e-06
1.1e-06
1.1e-06
1.1e-06
1.1e-06
1.1e-06
1.1e-06
1.1e-06
1.1e-06
1.1e-06
1.1e-06
1.1e-06
1.1e-06
1.1e-06
1.1e-06
1.1e-06
1.1e-06
1.1e-06
1.1e-06
1.1e-06
1.1e-06
1.1e-06
1.1e-06
1.1e-06
1.1e-06
1.1e-06
1.1e-06
1.1e-06
1.1e-06
1.1e-06
1.1e-06
1.1e-06
1.1e-06
1.1e-06
1.1e-06
1.1e-06
1.1e-06
1.1e-06
1.1e-06
1.1e-06
1.1e-06
1.1e-06
1.1e-06
1.1e-06
1.1e-06
1.1e-06
1.1e-06
1.1e-06
1.1e-06
1.1e-06
1.1e-06
1.1e-06
1.1e-06
1.1e-06
1.1e-06
1.1e-06
1.1e-06
1.1e-06
1.1e-06
1.1e-06
1.1e-06
1.1e-06
1.1e-06
1.1e-06
1.1e-06
1.1e-06
1.1e-06
1.1e-06
1.1e-06
1.1e-06
1.1e-06
1.1e-06
1.1e-06
1.1e-06
1.1e-06
1.1e-06
1.1e-06
1.1e-06
1.1e-06
1.1e-06
1.1e-06
1.1e-06
1.1e-06
1.1e-06
1.1e-06
1.1e-06
1.1e-06
1.1e-06
1.1e-06
1.1e-06
1.1e-06
1.1e-06
1.1e-06
1.1e-06
1.1e-06
1.1e-06
1.1e-06
1.1e-06
1.1e-06
1.1e-06
1.1e-06
1.1e-06
0.827138
0.82725
0.827347
0.827432
0.827501
0.827552
0.827588
0.827611
0.827626
0.827635
0.82764
0.827644
0.827647
0.827648
0.827646
0.827638
0.827622
0.82759
0.82754
0.827463
0.827355
0.82721
0.827022
0.826785
0.826496
0.826152
0.825749
0.825287
0.824766
0.824186
0.823549
0.822859
0.822116
0.821323
0.820483
0.819596
0.81866
0.817672
0.816624
0.815501
0.814281
0.812931
0.811393
0.809578
0.807327
0.804337
0.79993
0.792209
0.772934
0.599239
0.0129848
1.10336e-06
1.1e-06
1.1e-06
1.1e-06
1.1e-06
1.1e-06
1.1e-06
1.1e-06
1.1e-06
1.1e-06
1.1e-06
1.1e-06
1.1e-06
1.1e-06
1.1e-06
1.1e-06
1.1e-06
1.1e-06
1.1e-06
1.1e-06
1.1e-06
1.1e-06
1.1e-06
1.1e-06
1.1e-06
1.1e-06
1.1e-06
1.1e-06
1.1e-06
1.1e-06
1.1e-06
1.1e-06
1.1e-06
1.1e-06
1.1e-06
1.1e-06
1.1e-06
1.1e-06
1.1e-06
1.1e-06
1.1e-06
1.1e-06
1.1e-06
1.1e-06
1.1e-06
1.1e-06
1.1e-06
1.1e-06
1.1e-06
1.1e-06
1.1e-06
1.1e-06
1.1e-06
1.1e-06
1.1e-06
1.1e-06
1.1e-06
1.1e-06
1.1e-06
1.1e-06
1.1e-06
1.1e-06
1.1e-06
1.1e-06
1.1e-06
1.1e-06
1.1e-06
1.1e-06
1.1e-06
1.1e-06
1.1e-06
1.1e-06
1.1e-06
1.1e-06
1.1e-06
1.1e-06
1.1e-06
1.1e-06
1.1e-06
1.1e-06
1.1e-06
1.1e-06
1.1e-06
1.1e-06
1.1e-06
1.1e-06
1.1e-06
1.1e-06
1.1e-06
1.1e-06
1.1e-06
1.1e-06
1.1e-06
1.1e-06
1.1e-06
1.1e-06
1.1e-06
1.1e-06
1.1e-06
1.1e-06
1.1e-06
1.1e-06
1.1e-06
1.1e-06
1.1e-06
1.1e-06
1.1e-06
1.1e-06
1.1e-06
1.1e-06
1.1e-06
1.1e-06
1.1e-06
1.1e-06
1.1e-06
1.1e-06
1.1e-06
1.1e-06
1.1e-06
1.1e-06
1.1e-06
1.1e-06
1.1e-06
1.1e-06
1.1e-06
1.1e-06
1.1e-06
1.1e-06
1.1e-06
0.831253
0.831402
0.831529
0.831636
0.831721
0.831782
0.831819
0.831833
0.831826
0.831798
0.831753
0.831689
0.831608
0.831509
0.831393
0.831257
0.831102
0.830925
0.830724
0.830497
0.830242
0.829955
0.829636
0.829281
0.828888
0.828455
0.827982
0.827467
0.82691
0.826311
0.82567
0.824988
0.824265
0.823503
0.8227
0.821856
0.820968
0.820032
0.819039
0.817978
0.816832
0.815575
0.814167
0.812548
0.810622
0.808219
0.805014
0.800271
0.791882
0.770222
0.549583
0.00616365
1.10008e-06
1.1e-06
1.1e-06
1.1e-06
1.1e-06
1.1e-06
1.1e-06
1.1e-06
1.1e-06
1.1e-06
1.1e-06
1.1e-06
1.1e-06
1.1e-06
1.1e-06
1.1e-06
1.1e-06
1.1e-06
1.1e-06
1.1e-06
1.1e-06
1.1e-06
1.1e-06
1.1e-06
1.1e-06
1.1e-06
1.1e-06
1.1e-06
1.1e-06
1.1e-06
1.1e-06
1.1e-06
1.1e-06
1.1e-06
1.1e-06
1.1e-06
1.1e-06
1.1e-06
1.1e-06
1.1e-06
1.1e-06
1.1e-06
1.1e-06
1.1e-06
1.1e-06
1.1e-06
1.1e-06
1.1e-06
1.1e-06
1.1e-06
1.1e-06
1.1e-06
1.1e-06
1.1e-06
1.1e-06
1.1e-06
1.1e-06
1.1e-06
1.1e-06
1.1e-06
1.1e-06
1.1e-06
1.1e-06
1.1e-06
1.1e-06
1.1e-06
1.1e-06
1.1e-06
1.1e-06
1.1e-06
1.1e-06
1.1e-06
1.1e-06
1.1e-06
1.1e-06
1.1e-06
1.1e-06
1.1e-06
1.1e-06
1.1e-06
1.1e-06
1.1e-06
1.1e-06
1.1e-06
1.1e-06
1.1e-06
1.1e-06
1.1e-06
1.1e-06
1.1e-06
1.1e-06
1.1e-06
1.1e-06
1.1e-06
1.1e-06
1.1e-06
1.1e-06
1.1e-06
1.1e-06
1.1e-06
1.1e-06
1.1e-06
1.1e-06
1.1e-06
1.1e-06
1.1e-06
1.1e-06
1.1e-06
1.1e-06
1.1e-06
1.1e-06
1.1e-06
1.1e-06
1.1e-06
1.1e-06
1.1e-06
1.1e-06
1.1e-06
1.1e-06
1.1e-06
1.1e-06
1.1e-06
1.1e-06
1.1e-06
1.1e-06
1.1e-06
1.1e-06
1.1e-06
0.834781
0.834969
0.835131
0.835265
0.835371
0.835447
0.835493
0.835508
0.835493
0.835449
0.835375
0.835274
0.835144
0.834987
0.834802
0.83459
0.834351
0.834085
0.833791
0.833468
0.833117
0.832737
0.832326
0.831885
0.831413
0.830909
0.830372
0.829803
0.829201
0.828565
0.827897
0.827196
0.826462
0.825694
0.824891
0.824052
0.823174
0.822251
0.821278
0.820245
0.819138
0.817938
0.816617
0.815134
0.813427
0.811395
0.808862
0.805485
0.800481
0.791558
0.767805
0.507456
0.0032678
1.1e-06
1.1e-06
1.1e-06
1.1e-06
1.1e-06
1.1e-06
1.1e-06
1.1e-06
1.1e-06
1.1e-06
1.1e-06
1.1e-06
1.1e-06
1.1e-06
1.1e-06
1.1e-06
1.1e-06
1.1e-06
1.1e-06
1.1e-06
1.1e-06
1.1e-06
1.1e-06
1.1e-06
1.1e-06
1.1e-06
1.1e-06
1.1e-06
1.1e-06
1.1e-06
1.1e-06
1.1e-06
1.1e-06
1.1e-06
1.1e-06
1.1e-06
1.1e-06
1.1e-06
1.1e-06
1.1e-06
1.1e-06
1.1e-06
1.1e-06
1.1e-06
1.1e-06
1.1e-06
1.1e-06
1.1e-06
1.1e-06
1.1e-06
1.1e-06
1.1e-06
1.1e-06
1.1e-06
1.1e-06
1.1e-06
1.1e-06
1.1e-06
1.1e-06
1.1e-06
1.1e-06
1.1e-06
1.1e-06
1.1e-06
1.1e-06
1.1e-06
1.1e-06
1.1e-06
1.1e-06
1.1e-06
1.1e-06
1.1e-06
1.1e-06
1.1e-06
1.1e-06
1.1e-06
1.1e-06
1.1e-06
1.1e-06
1.1e-06
1.1e-06
1.1e-06
1.1e-06
1.1e-06
1.1e-06
1.1e-06
1.1e-06
1.1e-06
1.1e-06
1.1e-06
1.1e-06
1.1e-06
1.1e-06
1.1e-06
1.1e-06
1.1e-06
1.1e-06
1.1e-06
1.1e-06
1.1e-06
1.1e-06
1.1e-06
1.1e-06
1.1e-06
1.1e-06
1.1e-06
1.1e-06
1.1e-06
1.1e-06
1.1e-06
1.1e-06
1.1e-06
1.1e-06
1.1e-06
1.1e-06
1.1e-06
1.1e-06
1.1e-06
1.1e-06
1.1e-06
1.1e-06
1.1e-06
1.1e-06
1.1e-06
1.1e-06
1.1e-06
1.1e-06
0.837935
0.838164
0.838362
0.838527
0.838658
0.838753
0.838811
0.838832
0.838816
0.838764
0.838674
0.838548
0.838387
0.83819
0.83796
0.837696
0.837399
0.83707
0.836709
0.836318
0.835897
0.835446
0.834965
0.834456
0.833918
0.833351
0.832756
0.832133
0.831482
0.830803
0.830096
0.829362
0.828599
0.827807
0.826984
0.82613
0.825241
0.824313
0.82334
0.822315
0.821227
0.820062
0.818799
0.81741
0.815853
0.814064
0.81194
0.809296
0.805772
0.800532
0.79108
0.76492
0.460132
0.00161527
1.1e-06
1.1e-06
1.1e-06
1.1e-06
1.1e-06
1.1e-06
1.1e-06
1.1e-06
1.1e-06
1.1e-06
1.1e-06
1.1e-06
1.1e-06
1.1e-06
1.1e-06
1.1e-06
1.1e-06
1.1e-06
1.1e-06
1.1e-06
1.1e-06
1.1e-06
1.1e-06
1.1e-06
1.1e-06
1.1e-06
1.1e-06
1.1e-06
1.1e-06
1.1e-06
1.1e-06
1.1e-06
1.1e-06
1.1e-06
1.1e-06
1.1e-06
1.1e-06
1.1e-06
1.1e-06
1.1e-06
1.1e-06
1.1e-06
1.1e-06
1.1e-06
1.1e-06
1.1e-06
1.1e-06
1.1e-06
1.1e-06
1.1e-06
1.1e-06
1.1e-06
1.1e-06
1.1e-06
1.1e-06
1.1e-06
1.1e-06
1.1e-06
1.1e-06
1.1e-06
1.1e-06
1.1e-06
1.1e-06
1.1e-06
1.1e-06
1.1e-06
1.1e-06
1.1e-06
1.1e-06
1.1e-06
1.1e-06
1.1e-06
1.1e-06
1.1e-06
1.1e-06
1.1e-06
1.1e-06
1.1e-06
1.1e-06
1.1e-06
1.1e-06
1.1e-06
1.1e-06
1.1e-06
1.1e-06
1.1e-06
1.1e-06
1.1e-06
1.1e-06
1.1e-06
1.1e-06
1.1e-06
1.1e-06
1.1e-06
1.1e-06
1.1e-06
1.1e-06
1.1e-06
1.1e-06
1.1e-06
1.1e-06
1.1e-06
1.1e-06
1.1e-06
1.1e-06
1.1e-06
1.1e-06
1.1e-06
1.1e-06
1.1e-06
1.1e-06
1.1e-06
1.1e-06
1.1e-06
1.1e-06
1.1e-06
1.1e-06
1.1e-06
1.1e-06
1.1e-06
1.1e-06
1.1e-06
1.1e-06
1.1e-06
1.1e-06
1.1e-06
0.840836
0.841108
0.841344
0.841542
0.8417
0.841816
0.841889
0.841919
0.841905
0.841847
0.841746
0.841602
0.841416
0.841189
0.840922
0.840616
0.840273
0.839894
0.83948
0.839033
0.838554
0.838043
0.837503
0.836934
0.836337
0.835713
0.835063
0.834387
0.833686
0.83296
0.83221
0.831435
0.830635
0.82981
0.828958
0.828078
0.827168
0.826223
0.825239
0.824211
0.82313
0.821985
0.820761
0.819437
0.817984
0.816359
0.814497
0.812288
0.809542
0.805871
0.800371
0.790259
0.760562
0.397326
0.000679445
1.1e-06
1.1e-06
1.1e-06
1.1e-06
1.1e-06
1.1e-06
1.1e-06
1.1e-06
1.1e-06
1.1e-06
1.1e-06
1.1e-06
1.1e-06
1.1e-06
1.1e-06
1.1e-06
1.1e-06
1.1e-06
1.1e-06
1.1e-06
1.1e-06
1.1e-06
1.1e-06
1.1e-06
1.1e-06
1.1e-06
1.1e-06
1.1e-06
1.1e-06
1.1e-06
1.1e-06
1.1e-06
1.1e-06
1.1e-06
1.1e-06
1.1e-06
1.1e-06
1.1e-06
1.1e-06
1.1e-06
1.1e-06
1.1e-06
1.1e-06
1.1e-06
1.1e-06
1.1e-06
1.1e-06
1.1e-06
1.1e-06
1.1e-06
1.1e-06
1.1e-06
1.1e-06
1.1e-06
1.1e-06
1.1e-06
1.1e-06
1.1e-06
1.1e-06
1.1e-06
1.1e-06
1.1e-06
1.1e-06
1.1e-06
1.1e-06
1.1e-06
1.1e-06
1.1e-06
1.1e-06
1.1e-06
1.1e-06
1.1e-06
1.1e-06
1.1e-06
1.1e-06
1.1e-06
1.1e-06
1.1e-06
1.1e-06
1.1e-06
1.1e-06
1.1e-06
1.1e-06
1.1e-06
1.1e-06
1.1e-06
1.1e-06
1.1e-06
1.1e-06
1.1e-06
1.1e-06
1.1e-06
1.1e-06
1.1e-06
1.1e-06
1.1e-06
1.1e-06
1.1e-06
1.1e-06
1.1e-06
1.1e-06
1.1e-06
1.1e-06
1.1e-06
1.1e-06
1.1e-06
1.1e-06
1.1e-06
1.1e-06
1.1e-06
1.1e-06
1.1e-06
1.1e-06
1.1e-06
1.1e-06
1.1e-06
1.1e-06
1.1e-06
1.1e-06
1.1e-06
1.1e-06
1.1e-06
1.1e-06
1.1e-06
1.1e-06
0.843557
0.843873
0.84415
0.844382
0.844568
0.844707
0.844797
0.844836
0.844826
0.844764
0.844653
0.844493
0.844285
0.84403
0.84373
0.843387
0.843002
0.842577
0.842115
0.841617
0.841084
0.84052
0.839924
0.8393
0.838648
0.837969
0.837266
0.836538
0.835787
0.835013
0.834217
0.833399
0.832559
0.831696
0.83081
0.829899
0.828961
0.827994
0.826994
0.825956
0.824873
0.823738
0.822538
0.821259
0.819879
0.818367
0.816681
0.814749
0.812459
0.809604
0.805765
0.799934
0.788889
0.753262
0.313909
0.000240892
1.1e-06
1.1e-06
1.1e-06
1.1e-06
1.1e-06
1.1e-06
1.1e-06
1.1e-06
1.1e-06
1.1e-06
1.1e-06
1.1e-06
1.1e-06
1.1e-06
1.1e-06
1.1e-06
1.1e-06
1.1e-06
1.1e-06
1.1e-06
1.1e-06
1.1e-06
1.1e-06
1.1e-06
1.1e-06
1.1e-06
1.1e-06
1.1e-06
1.1e-06
1.1e-06
1.1e-06
1.1e-06
1.1e-06
1.1e-06
1.1e-06
1.1e-06
1.1e-06
1.1e-06
1.1e-06
1.1e-06
1.1e-06
1.1e-06
1.1e-06
1.1e-06
1.1e-06
1.1e-06
1.1e-06
1.1e-06
1.1e-06
1.1e-06
1.1e-06
1.1e-06
1.1e-06
1.1e-06
1.1e-06
1.1e-06
1.1e-06
1.1e-06
1.1e-06
1.1e-06
1.1e-06
1.1e-06
1.1e-06
1.1e-06
1.1e-06
1.1e-06
1.1e-06
1.1e-06
1.1e-06
1.1e-06
1.1e-06
1.1e-06
1.1e-06
1.1e-06
1.1e-06
1.1e-06
1.1e-06
1.1e-06
1.1e-06
1.1e-06
1.1e-06
1.1e-06
1.1e-06
1.1e-06
1.1e-06
1.1e-06
1.1e-06
1.1e-06
1.1e-06
1.1e-06
1.1e-06
1.1e-06
1.1e-06
1.1e-06
1.1e-06
1.1e-06
1.1e-06
1.1e-06
1.1e-06
1.1e-06
1.1e-06
1.1e-06
1.1e-06
1.1e-06
1.1e-06
1.1e-06
1.1e-06
1.1e-06
1.1e-06
1.1e-06
1.1e-06
1.1e-06
1.1e-06
1.1e-06
1.1e-06
1.1e-06
1.1e-06
1.1e-06
1.1e-06
1.1e-06
1.1e-06
1.1e-06
1.1e-06
1.1e-06
0.846138
0.846503
0.846821
0.847091
0.847308
0.847471
0.847578
0.847628
0.847621
0.847557
0.847435
0.847259
0.847028
0.846745
0.846412
0.846032
0.845606
0.845136
0.844627
0.844079
0.843495
0.842878
0.84223
0.841551
0.840846
0.840114
0.839358
0.838579
0.837778
0.836956
0.836113
0.835251
0.834368
0.833466
0.832543
0.831599
0.830631
0.829639
0.828618
0.827566
0.826476
0.825343
0.824158
0.822909
0.821579
0.820148
0.818583
0.816838
0.814838
0.812461
0.809481
0.805431
0.799152
0.786725
0.74022
0.212225
6.81283e-05
1.1e-06
1.1e-06
1.1e-06
1.1e-06
1.1e-06
1.1e-06
1.1e-06
1.1e-06
1.1e-06
1.1e-06
1.1e-06
1.1e-06
1.1e-06
1.1e-06
1.1e-06
1.1e-06
1.1e-06
1.1e-06
1.1e-06
1.1e-06
1.1e-06
1.1e-06
1.1e-06
1.1e-06
1.1e-06
1.1e-06
1.1e-06
1.1e-06
1.1e-06
1.1e-06
1.1e-06
1.1e-06
1.1e-06
1.1e-06
1.1e-06
1.1e-06
1.1e-06
1.1e-06
1.1e-06
1.1e-06
1.1e-06
1.1e-06
1.1e-06
1.1e-06
1.1e-06
1.1e-06
1.1e-06
1.1e-06
1.1e-06
1.1e-06
1.1e-06
1.1e-06
1.1e-06
1.1e-06
1.1e-06
1.1e-06
1.1e-06
1.1e-06
1.1e-06
1.1e-06
1.1e-06
1.1e-06
1.1e-06
1.1e-06
1.1e-06
1.1e-06
1.1e-06
1.1e-06
1.1e-06
1.1e-06
1.1e-06
1.1e-06
1.1e-06
1.1e-06
1.1e-06
1.1e-06
1.1e-06
1.1e-06
1.1e-06
1.1e-06
1.1e-06
1.1e-06
1.1e-06
1.1e-06
1.1e-06
1.1e-06
1.1e-06
1.1e-06
1.1e-06
1.1e-06
1.1e-06
1.1e-06
1.1e-06
1.1e-06
1.1e-06
1.1e-06
1.1e-06
1.1e-06
1.1e-06
1.1e-06
1.1e-06
1.1e-06
1.1e-06
1.1e-06
1.1e-06
1.1e-06
1.1e-06
1.1e-06
1.1e-06
1.1e-06
1.1e-06
1.1e-06
1.1e-06
1.1e-06
1.1e-06
1.1e-06
1.1e-06
1.1e-06
1.1e-06
1.1e-06
1.1e-06
1.1e-06
1.1e-06
0.848605
0.849021
0.849385
0.849694
0.849945
0.850134
0.85026
0.850321
0.850318
0.850249
0.850117
0.849922
0.849668
0.849355
0.848988
0.848568
0.8481
0.847585
0.847027
0.846429
0.845794
0.845124
0.844422
0.843691
0.842932
0.842148
0.84134
0.84051
0.839659
0.838789
0.8379
0.836993
0.836068
0.835126
0.834166
0.833187
0.832188
0.831169
0.830125
0.829056
0.827956
0.82682
0.825642
0.824412
0.823118
0.821743
0.820265
0.818649
0.816845
0.814773
0.812298
0.809165
0.804841
0.797941
0.783418
0.714515
0.107009
1.16619e-05
1.1e-06
1.1e-06
1.1e-06
1.1e-06
1.1e-06
1.1e-06
1.1e-06
1.1e-06
1.1e-06
1.1e-06
1.1e-06
1.1e-06
1.1e-06
1.1e-06
1.1e-06
1.1e-06
1.1e-06
1.1e-06
1.1e-06
1.1e-06
1.1e-06
1.1e-06
1.1e-06
1.1e-06
1.1e-06
1.1e-06
1.1e-06
1.1e-06
1.1e-06
1.1e-06
1.1e-06
1.1e-06
1.1e-06
1.1e-06
1.1e-06
1.1e-06
1.1e-06
1.1e-06
1.1e-06
1.1e-06
1.1e-06
1.1e-06
1.1e-06
1.1e-06
1.1e-06
1.1e-06
1.1e-06
1.1e-06
1.1e-06
1.1e-06
1.1e-06
1.1e-06
1.1e-06
1.1e-06
1.1e-06
1.1e-06
1.1e-06
1.1e-06
1.1e-06
1.1e-06
1.1e-06
1.1e-06
1.1e-06
1.1e-06
1.1e-06
1.1e-06
1.1e-06
1.1e-06
1.1e-06
1.1e-06
1.1e-06
1.1e-06
1.1e-06
1.1e-06
1.1e-06
1.1e-06
1.1e-06
1.1e-06
1.1e-06
1.1e-06
1.1e-06
1.1e-06
1.1e-06
1.1e-06
1.1e-06
1.1e-06
1.1e-06
1.1e-06
1.1e-06
1.1e-06
1.1e-06
1.1e-06
1.1e-06
1.1e-06
1.1e-06
1.1e-06
1.1e-06
1.1e-06
1.1e-06
1.1e-06
1.1e-06
1.1e-06
1.1e-06
1.1e-06
1.1e-06
1.1e-06
1.1e-06
1.1e-06
1.1e-06
1.1e-06
1.1e-06
1.1e-06
1.1e-06
1.1e-06
1.1e-06
1.1e-06
1.1e-06
1.1e-06
1.1e-06
1.1e-06
1.1e-06
1.1e-06
0.85097
0.851441
0.851856
0.852208
0.852495
0.852713
0.852859
0.852931
0.852931
0.852857
0.852712
0.852498
0.852217
0.851872
0.851468
0.851007
0.850493
0.84993
0.849322
0.848673
0.847984
0.847261
0.846506
0.845721
0.844909
0.844073
0.843213
0.842333
0.841434
0.840516
0.839581
0.838631
0.837664
0.836682
0.835685
0.834671
0.833642
0.832594
0.831527
0.830438
0.829325
0.828182
0.827005
0.825787
0.824517
0.823183
0.821767
0.820244
0.818578
0.816713
0.81456
0.811967
0.808642
0.803951
0.796173
0.778346
0.654583
0.0303068
1.45309e-06
1.1e-06
1.1e-06
1.1e-06
1.1e-06
1.1e-06
1.1e-06
1.1e-06
1.1e-06
1.1e-06
1.1e-06
1.1e-06
1.1e-06
1.1e-06
1.1e-06
1.1e-06
1.1e-06
1.1e-06
1.1e-06
1.1e-06
1.1e-06
1.1e-06
1.1e-06
1.1e-06
1.1e-06
1.1e-06
1.1e-06
1.1e-06
1.1e-06
1.1e-06
1.1e-06
1.1e-06
1.1e-06
1.1e-06
1.1e-06
1.1e-06
1.1e-06
1.1e-06
1.1e-06
1.1e-06
1.1e-06
1.1e-06
1.1e-06
1.1e-06
1.1e-06
1.1e-06
1.1e-06
1.1e-06
1.1e-06
1.1e-06
1.1e-06
1.1e-06
1.1e-06
1.1e-06
1.1e-06
1.1e-06
1.1e-06
1.1e-06
1.1e-06
1.1e-06
1.1e-06
1.1e-06
1.1e-06
1.1e-06
1.1e-06
1.1e-06
1.1e-06
1.1e-06
1.1e-06
1.1e-06
1.1e-06
1.1e-06
1.1e-06
1.1e-06
1.1e-06
1.1e-06
1.1e-06
1.1e-06
1.1e-06
1.1e-06
1.1e-06
1.1e-06
1.1e-06
1.1e-06
1.1e-06
1.1e-06
1.1e-06
1.1e-06
1.1e-06
1.1e-06
1.1e-06
1.1e-06
1.1e-06
1.1e-06
1.1e-06
1.1e-06
1.1e-06
1.1e-06
1.1e-06
1.1e-06
1.1e-06
1.1e-06
1.1e-06
1.1e-06
1.1e-06
1.1e-06
1.1e-06
1.1e-06
1.1e-06
1.1e-06
1.1e-06
1.1e-06
1.1e-06
1.1e-06
1.1e-06
1.1e-06
1.1e-06
1.1e-06
1.1e-06
1.1e-06
1.1e-06
1.1e-06
0.853239
0.853771
0.85424
0.854641
0.854968
0.855216
0.855383
0.855468
0.85547
0.85539
0.85523
0.854993
0.854683
0.854303
0.853857
0.853351
0.852789
0.852176
0.851515
0.850812
0.850069
0.849292
0.848482
0.847643
0.846779
0.84589
0.84498
0.844051
0.843104
0.84214
0.841161
0.840168
0.839161
0.83814
0.837107
0.83606
0.834999
0.833924
0.832833
0.831724
0.830595
0.829443
0.828263
0.82705
0.825795
0.82449
0.823119
0.821664
0.820098
0.818379
0.816446
0.814199
0.81146
0.807884
0.802685
0.79358
0.769713
0.50114
0.00264887
1.1e-06
1.1e-06
1.1e-06
1.1e-06
1.1e-06
1.1e-06
1.1e-06
1.1e-06
1.1e-06
1.1e-06
1.1e-06
1.1e-06
1.1e-06
1.1e-06
1.1e-06
1.1e-06
1.1e-06
1.1e-06
1.1e-06
1.1e-06
1.1e-06
1.1e-06
1.1e-06
1.1e-06
1.1e-06
1.1e-06
1.1e-06
1.1e-06
1.1e-06
1.1e-06
1.1e-06
1.1e-06
1.1e-06
1.1e-06
1.1e-06
1.1e-06
1.1e-06
1.1e-06
1.1e-06
1.1e-06
1.1e-06
1.1e-06
1.1e-06
1.1e-06
1.1e-06
1.1e-06
1.1e-06
1.1e-06
1.1e-06
1.1e-06
1.1e-06
1.1e-06
1.1e-06
1.1e-06
1.1e-06
1.1e-06
1.1e-06
1.1e-06
1.1e-06
1.1e-06
1.1e-06
1.1e-06
1.1e-06
1.1e-06
1.1e-06
1.1e-06
1.1e-06
1.1e-06
1.1e-06
1.1e-06
1.1e-06
1.1e-06
1.1e-06
1.1e-06
1.1e-06
1.1e-06
1.1e-06
1.1e-06
1.1e-06
1.1e-06
1.1e-06
1.1e-06
1.1e-06
1.1e-06
1.1e-06
1.1e-06
1.1e-06
1.1e-06
1.1e-06
1.1e-06
1.1e-06
1.1e-06
1.1e-06
1.1e-06
1.1e-06
1.1e-06
1.1e-06
1.1e-06
1.1e-06
1.1e-06
1.1e-06
1.1e-06
1.1e-06
1.1e-06
1.1e-06
1.1e-06
1.1e-06
1.1e-06
1.1e-06
1.1e-06
1.1e-06
1.1e-06
1.1e-06
1.1e-06
1.1e-06
1.1e-06
1.1e-06
1.1e-06
1.1e-06
1.1e-06
1.1e-06
0.855413
0.856012
0.856543
0.856997
0.857368
0.85765
0.857841
0.857938
0.857941
0.857853
0.857675
0.857412
0.857067
0.856647
0.856157
0.855602
0.854988
0.854321
0.853605
0.852846
0.852047
0.851214
0.850349
0.849457
0.84854
0.8476
0.846641
0.845664
0.844671
0.843663
0.842641
0.841607
0.840562
0.839505
0.838437
0.837358
0.836268
0.835165
0.834051
0.832921
0.831776
0.830612
0.829426
0.828213
0.826968
0.825681
0.824343
0.822938
0.821446
0.819834
0.818059
0.816049
0.813687
0.810762
0.806845
0.800907
0.789631
0.75216
0.272034
0.000149343
1.1e-06
1.1e-06
1.1e-06
1.1e-06
1.1e-06
1.1e-06
1.1e-06
1.1e-06
1.1e-06
1.1e-06
1.1e-06
1.1e-06
1.1e-06
1.1e-06
1.1e-06
1.1e-06
1.1e-06
1.1e-06
1.1e-06
1.1e-06
1.1e-06
1.1e-06
1.1e-06
1.1e-06
1.1e-06
1.1e-06
1.1e-06
1.1e-06
1.1e-06
1.1e-06
1.1e-06
1.1e-06
1.1e-06
1.1e-06
1.1e-06
1.1e-06
1.1e-06
1.1e-06
1.1e-06
1.1e-06
1.1e-06
1.1e-06
1.1e-06
1.1e-06
1.1e-06
1.1e-06
1.1e-06
1.1e-06
1.1e-06
1.1e-06
1.1e-06
1.1e-06
1.1e-06
1.1e-06
1.1e-06
1.1e-06
1.1e-06
1.1e-06
1.1e-06
1.1e-06
1.1e-06
1.1e-06
1.1e-06
1.1e-06
1.1e-06
1.1e-06
1.1e-06
1.1e-06
1.1e-06
1.1e-06
1.1e-06
1.1e-06
1.1e-06
1.1e-06
1.1e-06
1.1e-06
1.1e-06
1.1e-06
1.1e-06
1.1e-06
1.1e-06
1.1e-06
1.1e-06
1.1e-06
1.1e-06
1.1e-06
1.1e-06
1.1e-06
1.1e-06
1.1e-06
1.1e-06
1.1e-06
1.1e-06
1.1e-06
1.1e-06
1.1e-06
1.1e-06
1.1e-06
1.1e-06
1.1e-06
1.1e-06
1.1e-06
1.1e-06
1.1e-06
1.1e-06
1.1e-06
1.1e-06
1.1e-06
1.1e-06
1.1e-06
1.1e-06
1.1e-06
1.1e-06
1.1e-06
1.1e-06
1.1e-06
1.1e-06
1.1e-06
1.1e-06
1.1e-06
0.857488
0.858164
0.858763
0.859278
0.859698
0.860018
0.860234
0.860344
0.860347
0.860247
0.860047
0.859753
0.859369
0.858904
0.858364
0.857755
0.857085
0.85636
0.855587
0.854769
0.853914
0.853024
0.852105
0.851159
0.85019
0.849201
0.848194
0.847171
0.846134
0.845085
0.844023
0.842951
0.84187
0.840779
0.839679
0.83857
0.837452
0.836324
0.835186
0.834037
0.832875
0.831699
0.830504
0.829289
0.828047
0.826773
0.825457
0.824089
0.82265
0.821119
0.81946
0.817622
0.815521
0.813018
0.809849
0.80546
0.798423
0.783474
0.709412
0.0891649
8.22005e-06
1.1e-06
1.1e-06
1.1e-06
1.1e-06
1.1e-06
1.1e-06
1.1e-06
1.1e-06
1.1e-06
1.1e-06
1.1e-06
1.1e-06
1.1e-06
1.1e-06
1.1e-06
1.1e-06
1.1e-06
1.1e-06
1.1e-06
1.1e-06
1.1e-06
1.1e-06
1.1e-06
1.1e-06
1.1e-06
1.1e-06
1.1e-06
1.1e-06
1.1e-06
1.1e-06
1.1e-06
1.1e-06
1.1e-06
1.1e-06
1.1e-06
1.1e-06
1.1e-06
1.1e-06
1.1e-06
1.1e-06
1.1e-06
1.1e-06
1.1e-06
1.1e-06
1.1e-06
1.1e-06
1.1e-06
1.1e-06
1.1e-06
1.1e-06
1.1e-06
1.1e-06
1.1e-06
1.1e-06
1.1e-06
1.1e-06
1.1e-06
1.1e-06
1.1e-06
1.1e-06
1.1e-06
1.1e-06
1.1e-06
1.1e-06
1.1e-06
1.1e-06
1.1e-06
1.1e-06
1.1e-06
1.1e-06
1.1e-06
1.1e-06
1.1e-06
1.1e-06
1.1e-06
1.1e-06
1.1e-06
1.1e-06
1.1e-06
1.1e-06
1.1e-06
1.1e-06
1.1e-06
1.1e-06
1.1e-06
1.1e-06
1.1e-06
1.1e-06
1.1e-06
1.1e-06
1.1e-06
1.1e-06
1.1e-06
1.1e-06
1.1e-06
1.1e-06
1.1e-06
1.1e-06
1.1e-06
1.1e-06
1.1e-06
1.1e-06
1.1e-06
1.1e-06
1.1e-06
1.1e-06
1.1e-06
1.1e-06
1.1e-06
1.1e-06
1.1e-06
1.1e-06
1.1e-06
1.1e-06
1.1e-06
1.1e-06
1.1e-06
1.1e-06
1.1e-06
0.859569
0.860338
0.861023
0.861611
0.862091
0.862457
0.862702
0.862825
0.862827
0.86271
0.862481
0.862146
0.861714
0.861194
0.860594
0.859923
0.859189
0.858399
0.857561
0.85668
0.855763
0.854814
0.853837
0.852836
0.851815
0.850775
0.84972
0.848652
0.847572
0.846481
0.84538
0.844272
0.843155
0.842031
0.8409
0.839763
0.838618
0.837466
0.836306
0.835137
0.833958
0.832768
0.831564
0.830343
0.829102
0.827835
0.826535
0.825193
0.823797
0.822328
0.820761
0.819058
0.817158
0.814967
0.812317
0.808883
0.803944
0.795468
0.774479
0.571
0.00744851
1.1004e-06
1.1e-06
1.1e-06
1.1e-06
1.1e-06
1.1e-06
1.1e-06
1.1e-06
1.1e-06
1.1e-06
1.1e-06
1.1e-06
1.1e-06