/*--------------------------------*- C++ -*----------------------------------*\
  =========                 |
  \\      /  F ield         | OpenFOAM: The Open Source CFD Toolbox
   \\    /   O peration     | Website:  https://openfoam.org
    \\  /    A nd           | Version:  10
     \\/     M anipulation  |
\*---------------------------------------------------------------------------*/
FoamFile
{
    format      ascii;
    class       volScalarField;
    location    "0.032";
    object      p;
}
// * * * * * * * * * * * * * * * * * * * * * * * * * * * * * * * * * * * * * //

dimensions      [0 2 -2 0 0 0 0];

internalField   nonuniform List<scalar> 
4000
(
5.96058
5.96021
5.95915
5.95732
5.95479
5.95159
5.94774
5.94314
5.93782
5.93169
5.92482
5.91712
5.90867
5.89938
5.88933
5.87842
5.86674
5.85416
5.84078
5.82646
5.81131
5.79517
5.77816
5.7601
5.74112
5.721
5.6999
5.67757
5.65418
5.62948
5.60361
5.57631
5.54774
5.51761
5.4861
5.45289
5.41816
5.38156
5.34331
5.30301
5.26089
5.21654
5.17018
5.12139
5.07037
5.01671
4.9606
4.9016
4.83991
4.77507
4.70728
4.63605
4.5616
4.48341
4.4017
4.31595
4.22636
4.13241
4.0343
3.93149
3.8242
3.7119
3.59478
3.47234
3.3448
3.21164
3.07312
2.92875
2.7788
2.62284
2.46118
2.29345
2.12
1.94053
1.75547
1.56459
1.36841
1.16678
0.960335
0.748996
0.533502
0.313848
0.0908877
-0.13534
-0.363873
-0.594655
-0.826628
-1.05976
-1.2929
-1.5261
-1.75814
-1.98915
-2.21789
-2.44461
-2.66805
-2.88863
-3.10504
-3.31788
-3.52585
-3.72973
-3.92818
-4.1222
-4.31039
-4.49399
-4.67153
-4.84446
-5.01124
-5.17352
-5.32968
-5.48158
-5.62749
-5.76947
-5.90566
-6.03833
-6.16549
-6.2896
-6.40851
-6.52488
-6.63639
-6.7459
-6.85088
-6.95446
-7.05382
-7.15238
-7.24706
-7.34154
-7.43243
-7.52371
-7.61164
-7.70053
-7.78622
-7.87337
-7.95736
-8.04321
-8.1258
-8.21046
-8.29157
-8.37475
-8.45385
-8.53472
-8.61069
-8.68778
-8.75888
-8.83005
-8.89386
-8.95631
-9.00981
-9.06021
-9.09997
-9.13463
-9.15699
-9.17219
-9.17359
-9.16581
-9.1431
-9.10942
-9.06011
-8.99841
-8.92096
-8.83016
-8.72404
-8.60415
-8.46995
-8.32205
-8.16136
-7.98753
-7.80282
-7.6059
-7.40031
-7.18377
-6.96088
-6.72848
-6.4921
-6.24773
-6.00165
-5.74908
-5.4969
-5.23966
-4.98465
-4.72586
-4.47086
-4.21316
-3.96051
-3.70605
-3.4576
-3.20801
-2.96509
-2.72149
-2.48497
-2.24804
-2.01838
-1.78844
-1.56579
-1.34288
-1.1272
-0.91136
-0.702013
-0.495432
-0.285833
-0.106908
5.96348
5.96312
5.96207
5.96024
5.95772
5.95453
5.95068
5.9461
5.9408
5.9347
5.92785
5.92019
5.91178
5.90254
5.89253
5.88168
5.87005
5.85754
5.84423
5.83
5.81494
5.7989
5.782
5.76406
5.74519
5.72522
5.70425
5.6821
5.65887
5.63435
5.60867
5.58159
5.55323
5.52334
5.49206
5.45912
5.42464
5.38834
5.35037
5.3104
5.26858
5.22458
5.17855
5.13014
5.07948
5.02622
4.97049
4.91191
4.85063
4.78623
4.71886
4.64809
4.57407
4.49635
4.41508
4.32979
4.24063
4.14713
4.04942
3.94703
3.8401
3.72816
3.61134
3.48918
3.36183
3.22884
3.09036
2.94599
2.79591
2.63975
2.47774
2.30955
2.13547
1.95525
1.76926
1.57732
1.37989
1.17688
0.968857
0.755832
0.538478
0.316883
0.0918396
-0.136505
-0.367253
-0.600228
-0.834445
-1.06973
-1.30504
-1.54025
-1.77427
-2.00707
-2.23753
-2.46574
-2.69059
-2.9123
-3.12978
-3.34341
-3.55209
-3.7564
-3.95524
-4.14935
-4.33764
-4.52103
-4.69841
-4.87088
-5.03728
-5.19889
-5.3545
-5.50556
-5.6508
-5.7918
-5.92721
-6.05881
-6.18513
-6.3081
-6.42614
-6.54134
-6.65197
-6.76028
-6.8644
-6.96676
-7.0653
-7.16266
-7.25657
-7.34989
-7.44011
-7.53031
-7.61772
-7.70566
-7.79105
-7.87745
-7.96144
-8.04684
-8.12982
-8.21443
-8.29645
-8.38009
-8.4607
-8.54263
-8.62079
-8.69958
-8.77355
-8.84705
-8.91434
-8.97966
-9.03711
-9.09074
-9.13467
-9.17269
-9.19919
-9.21761
-9.22281
-9.21786
-9.19834
-9.16686
-9.11992
-9.05964
-8.98358
-8.89331
-8.78758
-8.66733
-8.5325
-8.38343
-8.22121
-8.0455
-7.85849
-7.65917
-7.4507
-7.23138
-7.00522
-6.76986
-6.53
-6.28265
-6.03305
-5.77764
-5.52206
-5.26222
-5.00403
-4.74298
-4.48511
-4.22554
-3.97039
-3.71447
-3.46391
-3.21327
-2.96864
-2.72438
-2.48651
-2.24927
-2.01859
-1.78865
-1.56526
-1.3426
-1.12639
-0.910991
-0.701286
-0.495117
-0.285863
-0.106482
5.96932
5.96896
5.96792
5.9661
5.9636
5.96042
5.9566
5.95205
5.94678
5.94073
5.93393
5.92634
5.91799
5.90883
5.89892
5.88817
5.87666
5.86428
5.85111
5.83705
5.82216
5.80633
5.78963
5.77193
5.75331
5.73362
5.71295
5.69111
5.66822
5.64407
5.61877
5.59209
5.56417
5.53475
5.50395
5.47152
5.43758
5.40185
5.36446
5.32511
5.28394
5.24061
5.19528
5.14758
5.09767
5.04518
4.99025
4.93249
4.87205
4.80851
4.74201
4.67214
4.59902
4.52221
4.44185
4.35748
4.26922
4.17661
4.07975
3.9782
3.87204
3.76083
3.64465
3.52305
3.39614
3.26348
3.12517
2.98081
2.83053
2.67397
2.51129
2.34219
2.16691
1.98519
1.79736
1.60326
1.40332
1.19749
0.986297
0.769805
0.548686
0.323088
0.0938164
-0.138905
-0.374154
-0.611668
-0.850433
-1.09019
-1.32987
-1.56925
-1.80725
-2.04374
-2.27763
-2.50891
-2.73652
-2.96061
-3.18012
-3.39539
-3.60538
-3.81062
-4.01007
-4.20445
-4.39274
-4.57581
-4.75265
-4.9243
-5.08971
-5.25009
-5.40436
-5.55388
-5.69749
-5.83671
-5.97031
-6.09995
-6.22431
-6.34523
-6.46126
-6.57435
-6.68294
-6.78913
-6.89121
-6.99146
-7.088
-7.18331
-7.2753
-7.36667
-7.45511
-7.54355
-7.62942
-7.71587
-7.80007
-7.88542
-7.96875
-8.05372
-8.13677
-8.2218
-8.30485
-8.39
-8.47284
-8.55755
-8.6393
-8.72229
-8.80124
-8.88031
-8.95387
-9.02593
-9.09065
-9.1518
-9.20353
-9.24934
-9.2836
-9.30948
-9.32182
-9.32342
-9.30985
-9.28351
-9.24089
-9.18396
-9.11033
-9.02146
-8.91614
-8.79532
-8.65899
-8.50751
-8.34206
-8.16238
-7.97072
-7.76621
-7.55203
-7.32668
-7.09416
-6.85231
-6.60579
-6.35185
-6.09565
-5.83387
-5.57201
-5.30626
-5.04236
-4.77604
-4.51315
-4.24908
-3.98971
-3.73011
-3.47615
-3.22267
-2.97544
-2.72913
-2.48942
-2.25084
-2.01899
-1.78833
-1.56432
-1.34144
-1.12506
-0.909805
-0.70023
-0.494393
-0.285573
-0.10621
5.97808
5.97771
5.97668
5.97488
5.97239
5.96924
5.96545
5.96095
5.95573
5.94974
5.94301
5.9355
5.92725
5.91821
5.90843
5.89783
5.88649
5.8743
5.86135
5.84753
5.8329
5.81736
5.80098
5.78363
5.76539
5.7461
5.72587
5.70451
5.68213
5.65852
5.63379
5.60774
5.58046
5.55173
5.52167
5.49
5.45687
5.42198
5.38548
5.34706
5.30685
5.26453
5.22024
5.17363
5.12485
5.07352
5.01979
4.96326
4.90409
4.84185
4.77668
4.70816
4.63641
4.56099
4.48203
4.39905
4.31218
4.22094
4.12542
4.02516
3.92023
3.81016
3.69503
3.57435
3.44819
3.3161
3.17814
3.03388
2.88341
2.72632
2.56275
2.39235
2.21532
2.03138
1.84082
1.64347
1.43974
1.22957
1.01351
0.791659
0.564709
0.332875
0.0970202
-0.142542
-0.384815
-0.629426
-0.875281
-1.12201
-1.36846
-1.61434
-1.85846
-2.10065
-2.33976
-2.57575
-2.80752
-3.0352
-3.25773
-3.47545
-3.68734
-3.89392
-4.09421
-4.28892
-4.47708
-4.65959
-4.83548
-5.0058
-5.16957
-5.32802
-5.4801
-5.6272
-5.76821
-5.90464
-6.03533
-6.16194
-6.28322
-6.40097
-6.51382
-6.6237
-6.72908
-6.83205
-6.93095
-7.02802
-7.12144
-7.21366
-7.30265
-7.39108
-7.47673
-7.56246
-7.64583
-7.72997
-7.81215
-7.89577
-7.97781
-8.06194
-8.14476
-8.23023
-8.31451
-8.40177
-8.48769
-8.57658
-8.66358
-8.75303
-8.83955
-8.92738
-9.01067
-9.09348
-9.16963
-9.2429
-9.307
-9.36542
-9.41205
-9.45004
-9.47375
-9.48598
-9.48187
-9.46382
-9.42804
-9.37651
-9.30665
-9.21998
-9.11524
-8.99343
-8.85461
-8.69923
-8.52858
-8.3425
-8.14345
-7.93062
-7.70745
-7.47248
-7.22998
-6.97783
-6.72095
-6.45661
-6.19018
-5.91837
-5.64687
-5.37186
-5.09923
-4.82468
-4.55421
-4.28313
-4.01744
-3.75214
-3.49316
-3.23527
-2.98429
-2.73481
-2.49252
-2.25189
-2.01848
-1.78672
-1.56202
-1.3388
-1.12239
-0.907361
-0.698227
-0.492947
-0.284886
-0.105765
5.98972
5.98937
5.98834
5.98656
5.98409
5.98097
5.97721
5.97275
5.96759
5.96167
5.95503
5.94763
5.9395
5.9306
5.92099
5.91059
5.89946
5.88753
5.87486
5.86134
5.84707
5.8319
5.81595
5.79905
5.78131
5.76256
5.74291
5.72218
5.70046
5.67757
5.65362
5.62838
5.60197
5.57416
5.54506
5.51441
5.48235
5.4486
5.41328
5.37608
5.33717
5.29619
5.2533
5.20814
5.16086
5.11109
5.05897
5.0041
4.94663
4.88615
4.82277
4.75608
4.6862
4.61267
4.53562
4.45456
4.3696
4.28026
4.18661
4.08817
3.98499
3.87657
3.76297
3.64365
3.51867
3.38751
3.2502
3.10626
2.95572
2.79812
2.63354
2.46156
2.28233
2.09551
1.90136
1.69966
1.49079
1.27469
1.05193
0.822618
0.587513
0.346919
0.101783
-0.147444
-0.399646
-0.654291
-0.910152
-1.1667
-1.42266
-1.67758
-1.93022
-2.18026
-2.42652
-2.66887
-2.90621
-3.13863
-3.36509
-3.58593
-3.80017
-4.00835
-4.20955
-4.4045
-4.59231
-4.77389
-4.94835
-5.11677
-5.27822
-5.43396
-5.58301
-5.72677
-5.86418
-5.99678
-6.12345
-6.24589
-6.36289
-6.47626
-6.5847
-6.6901
-6.79102
-6.8895
-6.98395
-7.07658
-7.16565
-7.25354
-7.33833
-7.4226
-7.50427
-7.58611
-7.66584
-7.74652
-7.8256
-7.90647
-7.98628
-8.06876
-8.15072
-8.23621
-8.32159
-8.4112
-8.50084
-8.59504
-8.68894
-8.78713
-8.88403
-8.98412
-9.08114
-9.17933
-9.27191
-9.36276
-9.44485
-9.5217
-9.58641
-9.64212
-9.68246
-9.71022
-9.7199
-9.71393
-9.68804
-9.64428
-9.57979
-9.49621
-9.39216
-9.26881
-9.12625
-8.9651
-8.78684
-8.59146
-8.38171
-8.15688
-7.92079
-7.67206
-7.41533
-7.14854
-6.87699
-6.59794
-6.31715
-6.03124
-5.74629
-5.45835
-5.17362
-4.88769
-4.60679
-4.3261
-4.05179
-3.77874
-3.51301
-3.24921
-2.99326
-2.73961
-2.49398
-2.25074
-2.01544
-1.78238
-1.55698
-1.33353
-1.11733
-0.902851
-0.694582
-0.490315
-0.283533
-0.105034
6.00425
6.00389
6.00287
6.0011
5.99865
5.99556
5.99184
5.98742
5.98232
5.97648
5.96993
5.96264
5.95465
5.94592
5.9365
5.92633
5.91547
5.90383
5.8915
5.87836
5.86451
5.84981
5.83437
5.81803
5.8009
5.78282
5.76389
5.74393
5.72305
5.70105
5.67805
5.65382
5.62849
5.60182
5.57393
5.54455
5.51383
5.48148
5.44763
5.41198
5.37468
5.33538
5.29424
5.2509
5.20552
5.1577
5.10761
5.05483
4.99952
4.94125
4.88016
4.81579
4.74829
4.67718
4.60258
4.524
4.44154
4.35468
4.26351
4.16749
4.06667
3.96051
3.84903
3.73167
3.60843
3.47872
3.34255
3.19932
3.04903
2.89111
2.72557
2.55191
2.37017
2.17996
1.98141
1.77429
1.55889
1.33516
1.10364
0.864505
0.618564
0.36625
0.108635
-0.15363
-0.41925
-0.687456
-0.956823
-1.22658
-1.49529
-1.7623
-2.0262
-2.28657
-2.5421
-2.79261
-3.03695
-3.27519
-3.50633
-3.7307
-3.94741
-4.15705
-4.35879
-4.55343
-4.74018
-4.92003
-5.09216
-5.25773
-5.41588
-5.56791
-5.71292
-5.85232
-5.98512
-6.11286
-6.23449
-6.35171
-6.46339
-6.57132
-6.67426
-6.77408
-6.8694
-6.96224
-7.05107
-7.13805
-7.22154
-7.30383
-7.38313
-7.46191
-7.53822
-7.61476
-7.68938
-7.7651
-7.83955
-7.91611
-7.9922
-8.0716
-8.15141
-8.23585
-8.32156
-8.41317
-8.50668
-8.60699
-8.70929
-8.81853
-8.92897
-9.04539
-9.16105
-9.28037
-9.39579
-9.51123
-9.61864
-9.72149
-9.81174
-9.89246
-9.95623
-10.0058
-10.0347
-10.0455
-10.0332
-10
-9.94268
-9.86301
-9.7595
-9.63357
-9.48543
-9.3159
-9.12679
-8.91827
-8.69353
-8.45204
-8.19811
-7.93046
-7.6543
-7.36759
-7.07618
-6.77731
-6.47725
-6.17255
-5.86971
-5.56468
-5.26404
-4.96321
-4.66873
-4.3756
-4.09022
-3.80727
-3.53298
-3.26177
-2.99967
-2.74092
-2.49133
-2.24505
-2.00767
-1.77332
-1.54741
-1.32406
-1.10855
-0.895191
-0.688452
-0.485903
-0.281185
-0.103884
6.02163
6.02128
6.02026
6.01849
6.01605
6.01297
6.00928
6.0049
5.99985
5.99407
5.98762
5.98044
5.97261
5.96405
5.95485
5.94493
5.93436
5.92306
5.91112
5.89842
5.88505
5.8709
5.85605
5.84038
5.82397
5.80667
5.78859
5.76955
5.74966
5.72872
5.70685
5.68383
5.65979
5.63447
5.60802
5.58016
5.55105
5.52038
5.4883
5.4545
5.41913
5.38185
5.34283
5.30168
5.25857
5.21312
5.16548
5.11523
5.06254
5.00696
4.94865
4.88713
4.82255
4.75442
4.68287
4.60737
4.52804
4.44432
4.3563
4.26341
4.16568
4.06251
3.95392
3.83927
3.71851
3.59101
3.45666
3.31482
3.16535
3.0076
2.84144
2.66626
2.48195
2.288
2.08442
1.87086
1.64752
1.41431
1.17173
0.920019
0.660059
0.392466
0.118494
-0.160914
-0.444199
-0.730244
-1.01735
-1.30441
-1.58975
-1.87244
-2.15093
-2.42458
-2.692
-2.95287
-3.20602
-3.45147
-3.68824
-3.91667
-4.13597
-4.34678
-4.54841
-4.74177
-4.92621
-5.10283
-5.27099
-5.43193
-5.58495
-5.73141
-5.87054
-6.00378
-6.13026
-6.2515
-6.36658
-6.47717
-6.58225
-6.68353
-6.77987
-6.87306
-6.96181
-7.04803
-7.13033
-7.21073
-7.28769
-7.3634
-7.43615
-7.50829
-7.57798
-7.64777
-7.7157
-7.78465
-7.85251
-7.92261
-7.99271
-8.06665
-8.14194
-8.22306
-8.3071
-8.39911
-8.49549
-8.6017
-8.71313
-8.83535
-8.96245
-9.09972
-9.23981
-9.38744
-9.53392
-9.68321
-9.82577
-9.96489
-10.0909
-10.2066
-10.3031
-10.3829
-10.4386
-10.4724
-10.4787
-10.4598
-10.4118
-10.3371
-10.2338
-10.1039
-9.9477
-9.76636
-9.56214
-9.33552
-9.0903
-8.82616
-8.54814
-8.2551
-7.95299
-7.63983
-7.3222
-6.99728
-6.67204
-6.34289
-6.01694
-5.68994
-5.36895
-5.0492
-4.73757
-4.42884
-4.12968
-3.83453
-3.54978
-3.26964
-3.00022
-2.73554
-2.48145
-2.23189
-1.99245
-1.75705
-1.53106
-1.30842
-1.09436
-0.882988
-0.678752
-0.478939
-0.277398
-0.102134
6.04186
6.0415
6.04048
6.0387
6.03625
6.03317
6.02948
6.02512
6.0201
6.01438
6.008
6.00093
5.99323
5.98485
5.97587
5.96621
5.95596
5.94504
5.93351
5.9213
5.90848
5.89494
5.88077
5.86584
5.85026
5.83386
5.81675
5.79876
5.78001
5.76029
5.73973
5.7181
5.69554
5.6718
5.64702
5.62092
5.59367
5.56495
5.53494
5.50329
5.47018
5.43526
5.3987
5.36011
5.31968
5.277
5.23224
5.18497
5.13537
5.08297
5.02795
4.96982
4.90873
4.84418
4.77629
4.70453
4.62902
4.54917
4.46507
4.3761
4.2823
4.18302
4.07824
3.96726
3.84999
3.72569
3.59419
3.45472
3.30704
3.15033
2.98431
2.80818
2.62165
2.42401
2.21503
1.9942
1.76152
1.51679
1.26045
0.992775
0.714755
0.427281
0.131924
-0.169912
-0.476222
-0.785361
-1.0952
-1.40418
-1.71033
-2.01242
-2.30873
-2.59844
-2.88012
-3.1534
-3.4171
-3.67123
-3.91484
-4.14829
-4.37083
-4.58318
-4.78472
-4.97647
-5.15791
-5.33027
-5.49306
-5.64767
-5.79358
-5.93227
-6.06316
-6.18776
-6.30536
-6.41756
-6.5236
-6.62518
-6.72136
-6.81388
-6.90164
-6.98641
-7.06696
-7.14515
-7.21963
-7.29233
-7.36178
-7.42998
-7.49532
-7.5599
-7.62199
-7.68388
-7.74378
-7.80433
-7.86369
-7.92503
-7.98653
-8.05206
-8.11971
-8.19423
-8.27343
-8.36296
-8.45994
-8.57066
-8.69107
-8.82758
-8.97439
-9.13751
-9.30899
-9.49386
-9.68205
-9.87735
-10.0681
-10.2572
-10.4325
-10.5963
-10.7376
-10.8588
-10.9504
-11.0151
-11.0458
-11.0452
-11.009
-10.9398
-10.8359
-10.6996
-10.5316
-10.3337
-10.1086
-9.85731
-9.58443
-9.28997
-8.97992
-8.65334
-8.31716
-7.96949
-7.61782
-7.25934
-6.90179
-6.54151
-6.18627
-5.83164
-5.48522
-5.14197
-4.80922
-4.48144
-4.16559
-3.85581
-3.55869
-3.26812
-2.99032
-2.71904
-2.46014
-2.20731
-1.9661
-1.7302
-1.50492
-1.28397
-1.0725
-0.864398
-0.664053
-0.46841
-0.271594
-0.0995644
6.06495
6.06458
6.06353
6.06172
6.05924
6.05613
6.05241
6.04802
6.043
6.03729
6.03095
6.02396
6.01637
6.00816
5.99939
5.99
5.98007
5.96953
5.95846
5.94677
5.93454
5.92167
5.90826
5.89416
5.87949
5.86409
5.84808
5.83127
5.8138
5.79545
5.77636
5.75631
5.73542
5.71346
5.69057
5.66647
5.64132
5.61482
5.58714
5.55793
5.52739
5.49515
5.46139
5.42572
5.38833
5.34881
5.30735
5.2635
5.21744
5.16872
5.1175
5.06329
5.00627
4.9459
4.88233
4.815
4.74404
4.66885
4.58951
4.50538
4.41649
4.32214
4.2223
4.11619
4.00368
3.88393
3.7567
3.62105
3.47661
3.32239
3.15788
2.98205
2.7943
2.59363
2.3795
2.15105
1.90796
1.64977
1.37665
1.08885
0.787396
0.473544
0.149386
-0.182871
-0.520378
-0.860547
-1.20046
-1.53782
-1.87014
-2.19575
-2.51276
-2.82023
-3.11689
-3.40246
-3.67603
-3.93782
-4.18712
-4.42446
-4.64926
-4.86233
-5.06316
-5.2528
-5.43083
-5.5985
-5.75543
-5.90306
-6.04103
-6.17091
-6.29227
-6.40671
-6.51372
-6.61501
-6.71002
-6.80047
-6.88563
-6.96718
-7.04419
-7.11838
-7.18865
-7.25679
-7.32157
-7.3848
-7.44507
-7.50418
-7.56055
-7.61597
-7.66874
-7.72076
-7.77035
-7.81976
-7.86742
-7.91619
-7.96473
-8.01686
-8.07144
-8.13357
-8.20214
-8.28365
-8.37647
-8.48817
-8.61572
-8.76705
-8.93677
-9.13216
-9.34466
-9.57989
-9.82575
-10.0856
-10.3446
-10.6044
-10.8494
-11.0808
-11.2844
-11.4621
-11.6023
-11.7076
-11.7698
-11.7919
-11.7693
-11.7052
-11.5982
-11.4511
-11.2655
-11.0436
-10.7892
-10.5039
-10.1935
-9.85831
-9.50566
-9.13488
-8.75416
-8.36172
-7.96623
-7.56484
-7.16632
-6.76683
-6.37498
-5.98607
-5.60836
-5.23645
-4.87814
-4.52753
-4.1919
-3.86499
-3.55359
-3.25121
-2.96416
-2.68583
-2.4221
-2.16633
-1.92403
-1.68859
-1.46524
-1.24741
-1.04016
-0.837099
-0.642539
-0.453015
-0.263006
-0.0958853
6.09094
6.09056
6.08946
6.08758
6.08502
6.08181
6.07801
6.07354
6.06845
6.06269
6.05634
6.04938
6.04186
6.03377
6.02518
6.01604
6.00643
5.99627
5.98566
5.97451
5.96291
5.95076
5.93815
5.92495
5.91129
5.89699
5.88219
5.86671
5.85067
5.83387
5.81645
5.79817
5.77919
5.75926
5.73851
5.71669
5.69394
5.66996
5.64494
5.61851
5.59089
5.56169
5.53111
5.49876
5.46483
5.42889
5.39116
5.35118
5.30915
5.26458
5.21768
5.16794
5.11555
5.05995
5.00134
4.93912
4.87346
4.80372
4.73002
4.65168
4.56875
4.48049
4.38685
4.28702
4.18081
4.0673
3.94614
3.81629
3.67717
3.52758
3.36674
3.1933
3.00626
2.8042
2.58605
2.35049
2.09665
1.82363
1.53116
1.21921
0.888643
0.540892
0.178561
-0.195064
-0.575783
-0.959449
-1.34173
-1.71903
-2.08776
-2.44536
-2.78941
-3.11869
-3.43202
-3.72942
-4.01053
-4.27614
-4.52625
-4.76201
-4.98344
-5.19178
-5.38689
-5.57
-5.74083
-5.90067
-6.04914
-6.18768
-6.31593
-6.43546
-6.54591
-6.64892
-6.74415
-6.83342
-6.91633
-6.99467
-7.06783
-7.13756
-7.20304
-7.266
-7.32546
-7.38318
-7.43801
-7.49169
-7.54288
-7.59317
-7.64092
-7.68753
-7.73113
-7.77306
-7.8115
-7.84808
-7.88126
-7.91333
-7.94331
-7.97478
-8.00751
-8.04703
-8.09384
-8.15574
-8.23324
-8.33597
-8.46302
-8.6248
-8.81743
-9.05047
-9.3154
-9.61883
-9.94612
-10.2993
-10.6583
-11.022
-11.3691
-11.6981
-11.9905
-12.247
-12.4536
-12.6129
-12.7154
-12.7652
-12.7572
-12.6959
-12.5803
-12.4147
-12.2013
-11.9436
-11.6467
-11.3132
-10.9502
-10.559
-10.1485
-9.71832
-9.27837
-8.82709
-8.37454
-7.91787
-7.46706
-7.01805
-6.58041
-6.14907
-5.73299
-5.32634
-4.93739
-4.55973
-4.20097
-3.85435
-3.5268
-3.21137
-2.91442
-2.62892
-2.3607
-2.10277
-1.86052
-1.62702
-1.40735
-1.19466
-0.993838
-0.798206
-0.611955
-0.431144
-0.250683
-0.0907845
6.11992
6.1195
6.11832
6.11632
6.1136
6.11023
6.10624
6.10161
6.09636
6.09048
6.08404
6.07702
6.06952
6.0615
6.05306
6.04413
6.03481
6.02503
6.01487
6.00426
5.99328
5.98183
5.97003
5.95773
5.94507
5.93188
5.9183
5.90415
5.88956
5.87434
5.85863
5.8422
5.8252
5.80738
5.78891
5.7695
5.74932
5.72806
5.70591
5.68252
5.65809
5.63224
5.60519
5.57651
5.54643
5.5145
5.48096
5.44532
5.40782
5.36795
5.32594
5.28126
5.23413
5.18399
5.13106
5.07472
5.01519
4.9518
4.88473
4.81326
4.73749
4.65665
4.57073
4.47886
4.38085
4.27572
4.16304
4.04164
3.91078
3.76902
3.61524
3.44766
3.26474
3.06439
2.8447
2.60349
2.33889
2.04926
1.73369
1.39208
1.02544
0.635828
0.226525
-0.19797
-0.631992
-1.06977
-1.50561
-1.93451
-2.35152
-2.75273
-3.13467
-3.4954
-3.83332
-4.14838
-4.4405
-4.71105
-4.9609
-5.19217
-5.40592
-5.6043
-5.78799
-5.95881
-6.11689
-6.26372
-6.39906
-6.52429
-6.63904
-6.74474
-6.84098
-6.92937
-7.00969
-7.08374
-7.1513
-7.21417
-7.27198
-7.32649
-7.37716
-7.42575
-7.47154
-7.51625
-7.55892
-7.60114
-7.64163
-7.68176
-7.71986
-7.75686
-7.79073
-7.82209
-7.84887
-7.87165
-7.88868
-7.90106
-7.90786
-7.91169
-7.91317
-7.91789
-7.9286
-7.9548
-8.00046
-8.07839
-8.19163
-8.35481
-8.56793
-8.84514
-9.17985
-9.58065
-10.0295
-10.5247
-11.0372
-11.559
-12.0592
-12.5314
-12.9504
-13.3155
-13.6102
-13.8384
-13.99
-14.0706
-14.0756
-14.0111
-13.8772
-13.6798
-13.4227
-13.1109
-12.7515
-12.3482
-11.9105
-11.4405
-10.9495
-10.4378
-9.9174
-9.3871
-8.85875
-8.32955
-7.81088
-7.29841
-6.80275
-6.31834
-5.85487
-5.40587
-4.98005
-4.57036
-4.18461
-3.8154
-3.46976
-3.14014
-2.83285
-2.54038
-2.26842
-2.00955
-1.76901
-1.53948
-1.32585
-1.12095
-0.929421
-0.744294
-0.569588
-0.40082
-0.233397
-0.0838877
6.15205
6.15158
6.15026
6.14805
6.14506
6.1414
6.1371
6.13216
6.1266
6.12044
6.11377
6.10658
6.09899
6.09097
6.08262
6.0739
6.0649
6.05556
6.04596
6.03603
6.02585
6.01534
6.00458
5.99345
5.98207
5.97029
5.95824
5.94573
5.93291
5.91957
5.90586
5.89156
5.87682
5.86139
5.84544
5.82868
5.8113
5.79298
5.77393
5.75379
5.73277
5.71049
5.68719
5.66241
5.63643
5.60877
5.57968
5.54867
5.51601
5.48116
5.44439
5.40515
5.36371
5.31947
5.27271
5.2228
5.17002
5.11368
5.05402
4.99034
4.9228
4.85062
4.77385
4.69164
4.60385
4.50946
4.40805
4.29836
4.17956
4.05001
3.90827
3.75214
3.5794
3.38706
3.17192
2.93014
2.65766
2.35032
2.0047
1.61915
1.19514
0.738297
0.257087
-0.238808
-0.740249
-1.24022
-1.73346
-2.21539
-2.68122
-3.12699
-3.54917
-3.94542
-4.31355
-4.65275
-4.96248
-5.24391
-5.49821
-5.72809
-5.93549
-6.12352
-6.29386
-6.44921
-6.59051
-6.71984
-6.83743
-6.9449
-7.04203
-7.13019
-7.20905
-7.28009
-7.34311
-7.39973
-7.44974
-7.49485
-7.53484
-7.57148
-7.60454
-7.63593
-7.66538
-7.69494
-7.72414
-7.75464
-7.78507
-7.81603
-7.84496
-7.87175
-7.89373
-7.91068
-7.92009
-7.92158
-7.91289
-7.89377
-7.86301
-7.82205
-7.77231
-7.71949
-7.66933
-7.63379
-7.62225
-7.65197
-7.73236
-7.88435
-8.11519
-8.44657
-8.87766
-9.4203
-10.0523
-10.7623
-11.5056
-12.2593
-12.9788
-13.6489
-14.2386
-14.7453
-15.1513
-15.4627
-15.6713
-15.7849
-15.8004
-15.7258
-15.5629
-15.3192
-15.0006
-14.6137
-14.1681
-13.6691
-13.1291
-12.5518
-11.9513
-11.3294
-10.7007
-10.0649
-9.43599
-8.81152
-8.20452
-7.61042
-7.04093
-6.4899
-5.96764
-5.46689
-4.99667
-4.54904
-4.1319
-3.73701
-3.37131
-3.02653
-2.70881
-2.41
-2.1356
-1.87766
-1.64117
-1.4184
-1.21395
-1.02031
-0.841832
-0.671203
-0.512219
-0.359794
-0.20983
-0.0748539
6.18761
6.18704
6.1855
6.18294
6.17954
6.17542
6.17066
6.16525
6.15924
6.15263
6.14552
6.13793
6.12996
6.12162
6.113
6.10409
6.09498
6.08562
6.07612
6.0664
6.05658
6.04657
6.03647
6.02618
6.01582
6.00524
5.99457
5.98365
5.97259
5.96121
5.94966
5.93768
5.92546
5.91272
5.89965
5.88593
5.87179
5.85687
5.8414
5.82501
5.80793
5.78976
5.77074
5.75043
5.72911
5.70627
5.68221
5.65641
5.62916
5.59991
5.56898
5.53576
5.5006
5.46287
5.42293
5.38011
5.33478
5.28624
5.23484
5.17988
5.12162
5.05934
4.9932
4.9224
4.84693
4.76583
4.67879
4.58458
4.4824
4.37056
4.24745
4.11063
3.95732
3.78385
3.58577
3.35763
3.09274
2.7831
2.41933
1.99132
1.492
0.924238
0.306826
-0.331006
-0.963945
-1.57778
-2.1656
-2.72263
-3.24585
-3.73471
-4.18969
-4.61144
-4.99941
-5.35325
-5.67234
-5.95757
-6.21
-6.43239
-6.62701
-6.79742
-6.94592
-7.07585
-7.18891
-7.28797
-7.37412
-7.44961
-7.51486
-7.57171
-7.62026
-7.66217
-7.6974
-7.72743
-7.75203
-7.77256
-7.78878
-7.8022
-7.81268
-7.82199
-7.83011
-7.83949
-7.85105
-7.86843
-7.89254
-7.92391
-7.95828
-7.99269
-8.0217
-8.04248
-8.05058
-8.04377
-8.01807
-7.971
-7.89916
-7.80166
-7.68091
-7.54487
-7.40306
-7.26994
-7.16027
-7.0951
-7.09235
-7.18285
-7.38425
-7.73148
-8.24497
-8.9501
-9.81685
-10.8087
-11.8489
-12.8886
-13.866
-14.7583
-15.5327
-16.1889
-16.7131
-17.115
-17.3901
-17.5492
-17.5907
-17.5237
-17.3501
-17.0778
-16.7133
-16.2634
-15.7393
-15.1474
-14.5027
-13.8109
-13.0897
-12.3428
-11.5887
-10.8288
-10.0803
-9.34177
-8.62857
-7.9363
-7.27817
-6.64753
-6.05547
-5.49383
-4.97189
-4.48067
-4.02802
-3.60469
-3.21739
-2.85696
-2.52925
-2.22535
-1.95043
-1.69597
-1.46659
-1.25412
-1.06281
-0.884774
-0.724015
-0.572867
-0.43486
-0.304249
-0.17753
-0.0626081
6.22709
6.22636
6.2244
6.2212
6.21701
6.21208
6.20657
6.20051
6.19399
6.18703
6.17975
6.17217
6.16439
6.15638
6.14823
6.13988
6.1314
6.12274
6.11398
6.10504
6.09603
6.08687
6.07769
6.06839
6.0591
6.0497
6.04034
6.03084
6.02138
6.01175
6.00211
5.99224
5.98231
5.97205
5.96166
5.95083
5.93977
5.92815
5.91619
5.90351
5.89036
5.87632
5.86166
5.84591
5.82937
5.81151
5.79266
5.77226
5.75065
5.72723
5.70237
5.67544
5.64683
5.6159
5.58306
5.54765
5.5101
5.46974
5.42701
5.38125
5.33288
5.28122
5.22664
5.16844
5.10684
5.04104
4.97101
4.89572
4.8146
4.72612
4.62878
4.52
4.39658
4.25395
4.08604
3.88517
3.64185
3.34547
2.98505
2.54588
2.01001
1.34774
0.561131
-0.291957
-1.15355
-1.99019
-2.77802
-3.49772
-4.14064
-4.70909
-5.20994
-5.6506
-6.03644
-6.3723
-6.66185
-6.90961
-7.11937
-7.29603
-7.4433
-7.56583
-7.66658
-7.74936
-7.81614
-7.86993
-7.91203
-7.9449
-7.9693
-7.98728
-7.99926
-8.00697
-8.01051
-8.01137
-8.00926
-8.00551
-7.99943
-7.99202
-7.98266
-7.973
-7.96261
-7.95271
-7.9422
-7.93626
-7.9396
-7.95677
-7.98677
-8.0264
-8.06886
-8.10797
-8.13657
-8.14848
-8.13657
-8.09535
-8.01485
-7.88535
-7.70271
-7.47958
-7.23639
-6.99718
-6.78142
-6.6073
-6.49079
-6.4774
-6.61038
-6.96454
-7.58436
-8.48961
-9.62088
-10.9048
-12.2287
-13.5215
-14.7082
-15.7646
-16.6596
-17.4006
-17.9809
-18.4193
-18.7174
-18.8924
-18.9454
-18.8864
-18.7162
-18.4411
-18.0653
-17.5933
-17.0341
-16.3926
-15.6837
-14.9133
-14.1011
-13.2531
-12.3912
-11.5193
-10.6587
-9.8099
-8.99148
-8.20018
-7.45132
-6.73849
-6.07392
-5.44901
-4.87342
-4.33734
-3.84856
-3.39688
-2.98875
-2.61411
-2.27844
-1.97209
-1.69981
-1.45249
-1.23436
-1.03678
-0.863601
-0.706589
-0.569358
-0.443898
-0.333427
-0.231452
-0.135157
-0.0464907
6.27129
6.2704
6.26794
6.26382
6.25833
6.25182
6.24448
6.23641
6.22775
6.21864
6.2093
6.19986
6.19049
6.18124
6.1722
6.16332
6.15465
6.14612
6.13776
6.12949
6.12139
6.11335
6.10547
6.09765
6.09002
6.08243
6.07504
6.06768
6.0605
6.05332
6.04631
6.03923
6.03227
6.02516
6.01812
6.01083
6.00352
5.99584
5.98804
5.97972
5.97116
5.9619
5.95225
5.9417
5.93056
5.91831
5.90527
5.89086
5.87544
5.85839
5.8401
5.81992
5.79828
5.77451
5.74908
5.72132
5.69175
5.65971
5.62576
5.58928
5.55086
5.50993
5.46709
5.42184
5.37475
5.32533
5.27409
5.22051
5.1648
5.10619
5.04413
4.97692
4.90189
4.81427
4.70537
4.56125
4.35779
4.06282
3.63083
3.02831
2.23994
1.3423
0.354907
-0.666247
-1.70226
-2.73463
-3.70614
-4.56043
-5.27528
-5.857
-6.324
-6.69658
-6.99319
-7.22919
-7.41752
-7.56792
-7.68877
-7.78546
-7.86331
-7.92496
-7.97423
-8.01195
-8.04117
-8.06165
-8.07634
-8.08425
-8.08835
-8.08706
-8.08365
-8.07609
-8.06781
-8.05619
-8.04492
-8.03125
-8.01936
-8.00508
-7.99226
-7.9762
-7.96461
-7.95425
-7.94596
-7.94891
-7.95727
-7.97056
-7.99399
-8.02726
-8.06736
-8.11043
-8.1513
-8.18302
-8.19989
-8.19611
-8.16479
-8.08933
-7.95978
-7.75964
-7.49997
-7.21009
-6.93418
-6.71474
-6.5874
-6.59244
-6.75829
-7.1627
-7.89917
-8.97954
-10.3091
-11.781
-13.2646
-14.6797
-15.951
-17.0546
-17.9653
-18.6948
-19.245
-19.6398
-19.8872
-20.0091
-20.0121
-19.9082
-19.6992
-19.3901
-18.9842
-18.4841
-17.8958
-17.2213
-16.4727
-15.6535
-14.7829
-13.8664
-12.928
-11.9729
-11.0258
-10.0888
-9.184
-8.3094
-7.48282
-6.69858
-5.97038
-5.2896
-4.66656
-4.09092
-3.57059
-3.09468
-2.6695
-2.28431
-1.94431
-1.63923
-1.37347
-1.13742
-0.934928
-0.757011
-0.607139
-0.476816
-0.369277
-0.276255
-0.200729
-0.135388
-0.0787384
-0.0241246
6.32115
6.31959
6.31615
6.31109
6.30515
6.29881
6.29206
6.28468
6.27657
6.26777
6.25846
6.24881
6.23904
6.22923
6.21956
6.21001
6.20072
6.19161
6.1828
6.17421
6.16595
6.15793
6.15027
6.14287
6.13586
6.12909
6.12273
6.11659
6.11085
6.10531
6.10014
6.09513
6.09046
6.08587
6.08159
6.07731
6.07327
6.06912
6.06511
6.06086
6.05664
6.05199
6.04721
6.04179
6.03605
6.02943
6.02226
6.01394
6.00483
5.99428
5.9827
5.9694
5.95484
5.93832
5.92037
5.90029
5.87869
5.85491
5.82966
5.80236
5.77381
5.74358
5.71256
5.6805
5.64845
5.61638
5.5856
5.55642
5.53059
5.50911
5.49449
5.48879
5.49534
5.51697
5.55449
5.60476
5.64369
5.63165
5.40777
4.82538
3.25284
1.15867
-0.590112
-1.86901
-2.94642
-3.92109
-4.76692
-5.46403
-6.02095
-6.46004
-6.80537
-7.07875
-7.2963
-7.47169
-7.61332
-7.72934
-7.82346
-7.90088
-7.96279
-8.01283
-8.05098
-8.08049
-8.10104
-8.11573
-8.12382
-8.12806
-8.12732
-8.12411
-8.1172
-8.10897
-8.09792
-8.08635
-8.07226
-8.05846
-8.0429
-8.02825
-8.0115
-7.9937
-7.97563
-7.95309
-7.92665
-7.92992
-7.94755
-7.9732
-8.00796
-8.04978
-8.09498
-8.14107
-8.18325
-8.21501
-8.2335
-8.23736
-8.22683
-8.19018
-8.12642
-8.02679
-7.88912
-7.72924
-7.57193
-7.44713
-7.40387
-7.51116
-7.80803
-8.34944
-9.1911
-10.3253
-11.6715
-13.1199
-14.5566
-15.9009
-17.0986
-18.1211
-18.9601
-19.6172
-20.1084
-20.4435
-20.6423
-20.7121
-20.6707
-20.5191
-20.2691
-19.9171
-19.4746
-18.9373
-18.3168
-17.6085
-16.8265
-15.9697
-15.0579
-14.0951
-13.1063
-12.0971
-11.0934
-10.0982
-9.13515
-8.20309
-7.3217
-6.48629
-5.71207
-4.99092
-4.33374
-3.73007
-3.18783
-2.69587
-2.26049
-1.87071
-1.53155
-1.23244
-0.977495
-0.75685
-0.574067
-0.420049
-0.297987
-0.199316
-0.126992
-0.0726299
-0.0390834
-0.0180916
-0.0100432
0.00387694
6.3805
6.3774
6.36854
6.3551
6.34049
6.32665
6.31385
6.30174
6.29015
6.279
6.26836
6.25818
6.2485
6.23923
6.2304
6.2219
6.21381
6.20602
6.19865
6.19162
6.18506
6.1789
6.17325
6.16803
6.16335
6.15909
6.15537
6.15203
6.14923
6.14677
6.14482
6.14316
6.142
6.14109
6.14065
6.14039
6.14057
6.14085
6.1415
6.14212
6.143
6.14369
6.14449
6.14488
6.14519
6.14482
6.14415
6.1425
6.1403
6.13683
6.13254
6.1267
6.11984
6.11121
6.10141
6.08976
6.07695
6.06237
6.04686
6.02993
6.01258
5.99452
5.97689
5.95968
5.94422
5.93078
5.92096
5.91543
5.91634
5.92541
5.94704
5.98728
6.05782
6.17555
6.36433
6.65829
7.08976
7.73898
8.55813
9.83077
9.78223
5.4795
1.98942
-0.36319
-2.24681
-3.69481
-4.74723
-5.51331
-6.07261
-6.48491
-6.79537
-7.03593
-7.22823
-7.38673
-7.52045
-7.6351
-7.73377
-7.81844
-7.88994
-7.94919
-7.99675
-8.03381
-8.06129
-8.08068
-8.09296
-8.09956
-8.10118
-8.09906
-8.09356
-8.0857
-8.07558
-8.06414
-8.05124
-8.03786
-8.02363
-8.0096
-7.99582
-7.98196
-7.97433
-7.95547
-7.96761
-7.97503
-7.9861
-8.01084
-8.04922
-8.0977
-8.15118
-8.20498
-8.25348
-8.29193
-8.31678
-8.32878
-8.32783
-8.3115
-8.28556
-8.26004
-8.2357
-8.21267
-8.18775
-8.17651
-8.20928
-8.36156
-8.63319
-9.05816
-9.75636
-10.7939
-12.0707
-13.4869
-14.8831
-16.2016
-17.361
-18.3729
-19.1924
-19.8475
-20.3204
-20.6479
-20.8225
-20.8748
-20.805
-20.632
-20.3513
-19.9714
-19.4935
-18.9244
-18.2691
-17.5309
-16.719
-15.8367
-14.8999
-13.914
-12.9005
-11.8661
-10.8346
-9.8116
-8.82067
-7.86228
-6.95552
-6.09729
-5.30347
-4.56548
-3.89455
-3.27926
-2.72804
-2.22949
-1.79089
-1.40157
-1.06698
-0.776549
-0.534345
-0.330438
-0.168419
-0.0392773
0.0537334
0.119056
0.153728
0.166053
0.152936
0.123491
0.0741634
0.0396145
6.45105
6.45952
6.45852
6.44866
6.43539
6.42084
6.40519
6.38864
6.37186
6.35546
6.33986
6.32521
6.31154
6.2987
6.28663
6.27516
6.26431
6.25399
6.24431
6.23523
6.22692
6.21933
6.21261
6.20666
6.20164
6.19738
6.19404
6.1914
6.18964
6.18852
6.18825
6.18857
6.18971
6.19141
6.19393
6.19696
6.20081
6.20511
6.2102