/*--------------------------------*- C++ -*----------------------------------*\
  =========                 |
  \\      /  F ield         | OpenFOAM: The Open Source CFD Toolbox
   \\    /   O peration     | Website:  https://openfoam.org
    \\  /    A nd           | Version:  10
     \\/     M anipulation  |
\*---------------------------------------------------------------------------*/
FoamFile
{
    format      ascii;
    class       volVectorField;
    location    "0.032";
    object      U;
}
// * * * * * * * * * * * * * * * * * * * * * * * * * * * * * * * * * * * * * //

dimensions      [0 1 -1 0 0 0 0];

internalField   nonuniform List<vector> 
4000
(
(5.00002 -7.24644e-05 0)
(5.00007 -0.000217582 0)
(5.00027 -0.000363497 0)
(5.00063 -0.000509731 0)
(5.00113 -0.000656185 0)
(5.00178 -0.000803259 0)
(5.00258 -0.000950747 0)
(5.00352 -0.00109923 0)
(5.00462 -0.00124842 0)
(5.00586 -0.00139901 0)
(5.00726 -0.00155058 0)
(5.00881 -0.00170398 0)
(5.01051 -0.00185872 0)
(5.01237 -0.00201579 0)
(5.01439 -0.00217468 0)
(5.01657 -0.0023365 0)
(5.0189 -0.00250072 0)
(5.02141 -0.00266858 0)
(5.02408 -0.0028395 0)
(5.02693 -0.00301487 0)
(5.02995 -0.00319404 0)
(5.03316 -0.00337857 0)
(5.03655 -0.00356771 0)
(5.04013 -0.0037632 0)
(5.04391 -0.0039642 0)
(5.0479 -0.0041726 0)
(5.05209 -0.00438747 0)
(5.0565 -0.00461089 0)
(5.06114 -0.0048418 0)
(5.06602 -0.00508246 0)
(5.07114 -0.0053317 0)
(5.07651 -0.00559194 0)
(5.08215 -0.0058619 0)
(5.08806 -0.00614417 0)
(5.09427 -0.00643734 0)
(5.10077 -0.00674419 0)
(5.10758 -0.00706314 0)
(5.11472 -0.00739717 0)
(5.1222 -0.00774454 0)
(5.13003 -0.0081084 0)
(5.13823 -0.00848685 0)
(5.14683 -0.00888324 0)
(5.15582 -0.00929547 0)
(5.16524 -0.00972705 0)
(5.1751 -0.0101757 0)
(5.18541 -0.0106451 0)
(5.19621 -0.0111327 0)
(5.2075 -0.0116425 0)
(5.21931 -0.0121715 0)
(5.23166 -0.0127238 0)
(5.24458 -0.0132963 0)
(5.25808 -0.0138931 0)
(5.27219 -0.0145108 0)
(5.28693 -0.0151536 0)
(5.30232 -0.0158176 0)
(5.31839 -0.0165071 0)
(5.33516 -0.0172176 0)
(5.35266 -0.0179534 0)
(5.3709 -0.0187095 0)
(5.38991 -0.0194899 0)
(5.40972 -0.0202889 0)
(5.43034 -0.0211104 0)
(5.45179 -0.0219477 0)
(5.47409 -0.0228044 0)
(5.49726 -0.0236729 0)
(5.52131 -0.0245561 0)
(5.54625 -0.0254454 0)
(5.57209 -0.026343 0)
(5.59883 -0.0272394 0)
(5.62648 -0.0281358 0)
(5.65502 -0.0290215 0)
(5.68446 -0.0298971 0)
(5.71476 -0.0307509 0)
(5.74593 -0.0315826 0)
(5.77791 -0.03238 0)
(5.81068 -0.033142 0)
(5.84421 -0.0338563 0)
(5.87843 -0.0345216 0)
(5.9133 -0.0351257 0)
(5.94875 -0.0356677 0)
(5.98471 -0.0361366 0)
(6.02112 -0.036532 0)
(6.05788 -0.0368446 0)
(6.09493 -0.0370754 0)
(6.13216 -0.0372174 0)
(6.1695 -0.0372731 0)
(6.20685 -0.0372382 0)
(6.24412 -0.0371168 0)
(6.28123 -0.0369076 0)
(6.31808 -0.036616 0)
(6.3546 -0.0362433 0)
(6.39071 -0.035796 0)
(6.42632 -0.0352776 0)
(6.46138 -0.0346951 0)
(6.49582 -0.0340541 0)
(6.52959 -0.0333612 0)
(6.56263 -0.0326233 0)
(6.5949 -0.0318466 0)
(6.62638 -0.0310389 0)
(6.65702 -0.030205 0)
(6.68682 -0.0293537 0)
(6.71575 -0.028488 0)
(6.7438 -0.0276173 0)
(6.77097 -0.0267428 0)
(6.79727 -0.0258741 0)
(6.82269 -0.0250107 0)
(6.84725 -0.0241624 0)
(6.87096 -0.0233267 0)
(6.89384 -0.0225139 0)
(6.91592 -0.0217193 0)
(6.93721 -0.0209536 0)
(6.95774 -0.0202104 0)
(6.97754 -0.0195009 0)
(6.99665 -0.0188168 0)
(7.01508 -0.0181699 0)
(7.03288 -0.0175502 0)
(7.05007 -0.0169701 0)
(7.0667 -0.0164181 0)
(7.08279 -0.0159073 0)
(7.09838 -0.0154247 0)
(7.1135 -0.014984 0)
(7.12819 -0.0145712 0)
(7.14249 -0.0142003 0)
(7.15643 -0.0138564 0)
(7.17004 -0.0135535 0)
(7.18335 -0.0132758 0)
(7.1964 -0.0130372 0)
(7.20922 -0.0128211 0)
(7.22184 -0.0126401 0)
(7.23429 -0.0124772 0)
(7.24659 -0.0123429 0)
(7.25875 -0.0122197 0)
(7.27081 -0.0121147 0)
(7.28275 -0.0120103 0)
(7.29461 -0.0119086 0)
(7.30636 -0.0117926 0)
(7.318 -0.0116579 0)
(7.32949 -0.0114887 0)
(7.34082 -0.0112732 0)
(7.35189 -0.0109986 0)
(7.36271 -0.0106449 0)
(7.37311 -0.0102043 0)
(7.38308 -0.00964889 0)
(7.39243 -0.00897893 0)
(7.4011 -0.00815961 0)
(7.40889 -0.00720229 0)
(7.4157 -0.00606753 0)
(7.4213 -0.00478095 0)
(7.42559 -0.00330035 0)
(7.42833 -0.00166596 0)
(7.42942 0.000166653 0)
(7.42861 0.0021422 0)
(7.42579 0.00430399 0)
(7.42078 0.00658262 0)
(7.41346 0.00902022 0)
(7.40369 0.011537 0)
(7.39139 0.0141735 0)
(7.37646 0.0168439 0)
(7.35885 0.0195866 0)
(7.33855 0.0223147 0)
(7.31552 0.0250644 0)
(7.28982 0.0277521 0)
(7.26143 0.0304111 0)
(7.23049 0.0329658 0)
(7.19701 0.0354458 0)
(7.16118 0.0377867 0)
(7.12302 0.0400139 0)
(7.08278 0.0420769 0)
(7.0405 0.0439957 0)
(6.99644 0.0457355 0)
(6.95067 0.04731 0)
(6.90347 0.048701 0)
(6.85492 0.0499151 0)
(6.80528 0.0509504 0)
(6.75464 0.0518058 0)
(6.70326 0.0524952 0)
(6.65122 0.0530092 0)
(6.59877 0.0533761 0)
(6.54598 0.0535781 0)
(6.49307 0.0536562 0)
(6.44011 0.0535842 0)
(6.38727 0.053414 0)
(6.33462 0.0531113 0)
(6.28231 0.052737 0)
(6.23038 0.0522492 0)
(6.17896 0.0517157 0)
(6.12808 0.0510878 0)
(6.07782 0.0504386 0)
(6.0282 0.0497131 0)
(5.97929 0.0489881 0)
(5.93109 0.0482032 0)
(5.88363 0.0474375 0)
(5.83694 0.0466261 0)
(5.79099 0.0458494 0)
(5.7459 0.0450383 0)
(5.70131 0.0442722 0)
(5.65848 0.0434896 0)
(5.61348 0.0427197 0)
(5.57853 0.0420863 0)
(5.51565 0.0409572 0)
(5.00002 -0.000217923 0)
(5.00007 -0.000656219 0)
(5.00027 -0.00109536 0)
(5.00062 -0.00153476 0)
(5.00112 -0.0019749 0)
(5.00177 -0.00241654 0)
(5.00257 -0.00285966 0)
(5.00351 -0.00330524 0)
(5.0046 -0.00375316 0)
(5.00584 -0.00420456 0)
(5.00723 -0.00465927 0)
(5.00878 -0.00511865 0)
(5.01047 -0.00558255 0)
(5.01232 -0.00605261 0)
(5.01433 -0.0065287 0)
(5.0165 -0.00701274 0)
(5.01882 -0.00750462 0)
(5.02132 -0.00800652 0)
(5.02398 -0.00851836 0)
(5.02681 -0.00904256 0)
(5.02981 -0.00957903 0)
(5.033 -0.0101305 0)
(5.03637 -0.0106968 0)
(5.03992 -0.0112809 0)
(5.04368 -0.0118827 0)
(5.04764 -0.0125055 0)
(5.0518 -0.0131489 0)
(5.05618 -0.0138164 0)
(5.06079 -0.0145079 0)
(5.06563 -0.0152271 0)
(5.07071 -0.0159736 0)
(5.07604 -0.0167514 0)
(5.08164 -0.01756 0)
(5.08751 -0.0184037 0)
(5.09366 -0.019282 0)
(5.10011 -0.0201993 0)
(5.10687 -0.0211549 0)
(5.11396 -0.0221537 0)
(5.12138 -0.0231946 0)
(5.12915 -0.0242828 0)
(5.13729 -0.025417 0)
(5.14582 -0.0266027 0)
(5.15475 -0.0278384 0)
(5.16409 -0.0291297 0)
(5.17388 -0.0304748 0)
(5.18412 -0.0318796 0)
(5.19484 -0.0333419 0)
(5.20605 -0.0348678 0)
(5.21778 -0.0364546 0)
(5.23005 -0.0381085 0)
(5.24288 -0.0398264 0)
(5.25629 -0.0416143 0)
(5.27031 -0.0434685 0)
(5.28496 -0.0453948 0)
(5.30026 -0.0473889 0)
(5.31624 -0.0494561 0)
(5.33293 -0.051591 0)
(5.35034 -0.0537985 0)
(5.3685 -0.0560716 0)
(5.38743 -0.0584145 0)
(5.40716 -0.0608187 0)
(5.4277 -0.063287 0)
(5.44909 -0.0658087 0)
(5.47133 -0.0683852 0)
(5.49445 -0.0710035 0)
(5.51847 -0.0736625 0)
(5.54338 -0.0763467 0)
(5.56921 -0.0790526 0)
(5.59597 -0.0817615 0)
(5.62364 -0.0844671 0)
(5.65223 -0.0871478 0)
(5.68173 -0.0897942 0)
(5.71213 -0.092382 0)
(5.74341 -0.0948993 0)
(5.77554 -0.0973194 0)
(5.80849 -0.0996288 0)
(5.84221 -0.1018 0)
(5.87665 -0.103818 0)
(5.91177 -0.105656 0)
(5.9475 -0.107302 0)
(5.98376 -0.10873 0)
(6.02048 -0.10993 0)
(6.05757 -0.110883 0)
(6.09496 -0.111582 0)
(6.13255 -0.112015 0)
(6.17025 -0.11218 0)
(6.20795 -0.112074 0)
(6.24558 -0.1117 0)
(6.28302 -0.111062 0)
(6.32021 -0.11017 0)
(6.35703 -0.109034 0)
(6.39343 -0.107669 0)
(6.42932 -0.106091 0)
(6.46462 -0.104317 0)
(6.49928 -0.102367 0)
(6.53324 -0.10026 0)
(6.56644 -0.0980182 0)
(6.59886 -0.0956603 0)
(6.63044 -0.0932088 0)
(6.66117 -0.0906814 0)
(6.69103 -0.0881006 0)
(6.71999 -0.085481 0)
(6.74806 -0.0828446 0)
(6.77522 -0.0802024 0)
(6.80149 -0.0775755 0)
(6.82686 -0.0749709 0)
(6.85136 -0.0724086 0)
(6.875 -0.0698916 0)
(6.89779 -0.0674388 0)
(6.91977 -0.0650493 0)
(6.94095 -0.062741 0)
(6.96137 -0.0605096 0)
(6.98104 -0.0583721 0)
(7.00001 -0.056321 0)
(7.01831 -0.0543732 0)
(7.03597 -0.0525178 0)
(7.05302 -0.0507717 0)
(7.0695 -0.0491214 0)
(7.08545 -0.047584 0)
(7.10089 -0.0461438 0)
(7.11587 -0.044818 0)
(7.13042 -0.0435892 0)
(7.14458 -0.0424742 0)
(7.15838 -0.0414546 0)
(7.17186 -0.0405463 0)
(7.18504 -0.0397294 0)
(7.19798 -0.0390184 0)
(7.21069 -0.0383919 0)
(7.22321 -0.0378609 0)
(7.23557 -0.0374025 0)
(7.24781 -0.037022 0)
(7.25993 -0.036694 0)
(7.27198 -0.0364156 0)
(7.28394 -0.0361579 0)
(7.29587 -0.0359071 0)
(7.30772 -0.03563 0)
(7.31953 -0.0352994 0)
(7.33123 -0.034878 0)
(7.34285 -0.0343241 0)
(7.35428 -0.0335979 0)
(7.36552 -0.032644 0)
(7.37643 -0.0314242 0)
(7.38698 -0.0298727 0)
(7.39699 -0.0279592 0)
(7.40638 -0.0256134 0)
(7.41496 -0.0228215 0)
(7.4226 -0.0195168 0)
(7.42908 -0.0157108 0)
(7.43428 -0.0113458 0)
(7.43794 -0.00646017 0)
(7.43993 -0.00100763 0)
(7.44001 0.00494041 0)
(7.43804 0.0114121 0)
(7.43382 0.0183055 0)
(7.42723 0.0256338 0)
(7.41812 0.0332716 0)
(7.40638 0.0412204 0)
(7.39193 0.0493398 0)
(7.37471 0.0576244 0)
(7.35469 0.0659284 0)
(7.33185 0.0742435 0)
(7.30624 0.0824281 0)
(7.27786 0.0904744 0)
(7.24684 0.0982533 0)
(7.21321 0.10576 0)
(7.17715 0.112884 0)
(7.13872 0.119625 0)
(7.09813 0.125897 0)
(7.05549 0.131703 0)
(7.01102 0.136983 0)
(6.96484 0.141744 0)
(6.9172 0.145955 0)
(6.86821 0.149622 0)
(6.81813 0.152743 0)
(6.76708 0.155323 0)
(6.7153 0.157385 0)
(6.6629 0.158932 0)
(6.61011 0.16001 0)
(6.55703 0.160615 0)
(6.50385 0.160812 0)
(6.45067 0.160592 0)
(6.39766 0.160035 0)
(6.34488 0.159123 0)
(6.29248 0.157948 0)
(6.24052 0.156483 0)
(6.18909 0.154829 0)
(6.13825 0.152949 0)
(6.08807 0.150949 0)
(6.03857 0.148783 0)
(5.9898 0.14656 0)
(5.94178 0.144224 0)
(5.89453 0.141884 0)
(5.84806 0.139477 0)
(5.80236 0.13711 0)
(5.75753 0.134713 0)
(5.71321 0.132386 0)
(5.67064 0.130073 0)
(5.62597 0.127772 0)
(5.59129 0.125834 0)
(5.52879 0.122531 0)
(5.00002 -0.000363542 0)
(5.00007 -0.00109696 0)
(5.00026 -0.00182972 0)
(5.00061 -0.00256203 0)
(5.00111 -0.00329545 0)
(5.00176 -0.00403081 0)
(5.00255 -0.00476866 0)
(5.00348 -0.00550979 0)
(5.00457 -0.00625482 0)
(5.0058 -0.00700469 0)
(5.00718 -0.0077602 0)
(5.00871 -0.0085225 0)
(5.0104 -0.00929262 0)
(5.01223 -0.010072 0)
(5.01422 -0.0108618 0)
(5.01637 -0.0116637 0)
(5.01867 -0.0124793 0)
(5.02114 -0.0133104 0)
(5.02377 -0.0141587 0)
(5.02657 -0.0150263 0)
(5.02953 -0.0159152 0)
(5.03268 -0.0168277 0)
(5.03601 -0.0177659 0)
(5.03952 -0.0187324 0)
(5.04322 -0.0197293 0)
(5.04713 -0.0207596 0)
(5.05123 -0.0218256 0)
(5.05555 -0.0229302 0)
(5.06009 -0.024076 0)
(5.06486 -0.0252661 0)
(5.06986 -0.0265032 0)
(5.07511 -0.0277907 0)
(5.08062 -0.0291311 0)
(5.0864 -0.0305282 0)
(5.09245 -0.0319845 0)
(5.0988 -0.0335039 0)
(5.10546 -0.035089 0)
(5.11243 -0.0367438 0)
(5.11973 -0.0384711 0)
(5.12738 -0.0402748 0)
(5.13539 -0.0421577 0)
(5.14379 -0.0441239 0)
(5.15258 -0.046176 0)
(5.16178 -0.0483183 0)
(5.17141 -0.0505532 0)
(5.1815 -0.052885 0)
(5.19206 -0.0553159 0)
(5.2031 -0.0578501 0)
(5.21467 -0.0604895 0)
(5.22676 -0.0632381 0)
(5.23942 -0.0660974 0)
(5.25265 -0.0690709 0)
(5.26649 -0.0721596 0)
(5.28095 -0.0753662 0)
(5.29607 -0.078691 0)
(5.31186 -0.0821356 0)
(5.32836 -0.0856992 0)
(5.34559 -0.089382 0)
(5.36357 -0.0931814 0)
(5.38233 -0.0970959 0)
(5.40189 -0.101121 0)
(5.42229 -0.105252 0)
(5.44353 -0.109481 0)
(5.46565 -0.113802 0)
(5.48866 -0.118202 0)
(5.51259 -0.122672 0)
(5.53744 -0.127194 0)
(5.56324 -0.131754 0)
(5.59 -0.13633 0)
(5.61771 -0.140902 0)
(5.64639 -0.145443 0)
(5.67602 -0.149928 0)
(5.70659 -0.154326 0)
(5.7381 -0.158604 0)
(5.77051 -0.16273 0)
(5.80379 -0.166666 0)
(5.83791 -0.170377 0)
(5.87281 -0.173826 0)
(5.90843 -0.176976 0)
(5.94471 -0.179793 0)
(5.98158 -0.182245 0)
(6.01894 -0.184302 0)
(6.05672 -0.185939 0)
(6.09482 -0.187136 0)
(6.13313 -0.187879 0)
(6.17156 -0.188159 0)
(6.20999 -0.187973 0)
(6.24834 -0.187325 0)
(6.28649 -0.186225 0)
(6.32435 -0.184689 0)
(6.36182 -0.182736 0)
(6.39882 -0.180391 0)
(6.43526 -0.177684 0)
(6.47107 -0.174644 0)
(6.50618 -0.171307 0)
(6.54054 -0.167705 0)
(6.57409 -0.163877 0)
(6.60679 -0.159856 0)
(6.63861 -0.155679 0)
(6.66952 -0.15138 0)
(6.6995 -0.146993 0)
(6.72855 -0.142549 0)
(6.75665 -0.138077 0)
(6.78381 -0.133605 0)
(6.81003 -0.12916 0)
(6.83532 -0.124764 0)
(6.85971 -0.120438 0)
(6.88321 -0.1162 0)
(6.90583 -0.112069 0)
(6.92762 -0.108057 0)
(6.9486 -0.104178 0)
(6.96879 -0.100441 0)
(6.98823 -0.0968576 0)
(7.00696 -0.093432 0)
(7.025 -0.0901725 0)
(7.04239 -0.0870814 0)
(7.05918 -0.0841642 0)
(7.07539 -0.0814212 0)
(7.09106 -0.0788561 0)
(7.10622 -0.0764677 0)
(7.12093 -0.0742581 0)
(7.1352 -0.0722254 0)
(7.14908 -0.07037 0)
(7.16261 -0.0686897 0)
(7.17582 -0.0671826 0)
(7.18875 -0.0658462 0)
(7.20143 -0.0646753 0)
(7.2139 -0.0636663 0)
(7.2262 -0.062809 0)
(7.23835 -0.062097 0)
(7.25041 -0.061512 0)
(7.26239 -0.0610423 0)
(7.27434 -0.0606583 0)
(7.28626 -0.0603393 0)
(7.2982 -0.0600406 0)
(7.31015 -0.0597284 0)
(7.32214 -0.0593406 0)
(7.33413 -0.0588271 0)
(7.34614 -0.058108 0)
(7.35809 -0.0571163 0)
(7.36998 -0.0557581 0)
(7.38168 -0.053953 0)
(7.39314 -0.0516018 0)
(7.4042 -0.0486195 0)
(7.41476 -0.0449149 0)
(7.42461 -0.0404127 0)
(7.43361 -0.0350462 0)
(7.44151 -0.028765 0)
(7.44815 -0.0215389 0)
(7.45325 -0.013349 0)
(7.45664 -0.00420454 0)
(7.45806 0.00586745 0)
(7.45733 0.0168072 0)
(7.45422 0.0285501 0)
(7.44859 0.0409963 0)
(7.44026 0.0540486 0)
(7.42912 0.0675797 0)
(7.41507 0.0814709 0)
(7.39804 0.0955814 0)
(7.37801 0.109783 0)
(7.35495 0.123936 0)
(7.32892 0.137912 0)
(7.29994 0.151584 0)
(7.26815 0.164836 0)
(7.23359 0.177557 0)
(7.19646 0.189653 0)
(7.15685 0.201037 0)
(7.11499 0.211639 0)
(7.07099 0.221399 0)
(7.02511 0.230272 0)
(6.97749 0.238228 0)
(6.9284 0.245247 0)
(6.87797 0.251325 0)
(6.82648 0.256464 0)
(6.77405 0.260683 0)
(6.72094 0.264007 0)
(6.66729 0.26647 0)
(6.61332 0.268113 0)
(6.55915 0.268984 0)
(6.50497 0.269135 0)
(6.4509 0.268621 0)
(6.39709 0.267501 0)
(6.34362 0.265834 0)
(6.29063 0.263683 0)
(6.23818 0.261104 0)
(6.18637 0.258162 0)
(6.13525 0.254907 0)
(6.08487 0.251401 0)
(6.03526 0.247691 0)
(5.98646 0.243831 0)
(5.9385 0.239861 0)
(5.89136 0.235829 0)
(5.84508 0.231766 0)
(5.79961 0.227712 0)
(5.75506 0.22369 0)
(5.71107 0.219728 0)
(5.66885 0.215862 0)
(5.62459 0.211999 0)
(5.59022 0.208707 0)
(5.52837 0.203263 0)
(5.00002 -0.000508234 0)
(5.00007 -0.00153448 0)
(5.00026 -0.00255885 0)
(5.00061 -0.00358203 0)
(5.0011 -0.00460637 0)
(5.00174 -0.00563291 0)
(5.00253 -0.00666248 0)
(5.00345 -0.00769596 0)
(5.00453 -0.00873432 0)
(5.00575 -0.00977873 0)
(5.00712 -0.0108304 0)
(5.00863 -0.0118909 0)
(5.0103 -0.0129618 0)
(5.01211 -0.0140449 0)
(5.01407 -0.015142 0)
(5.01619 -0.0162555 0)
(5.01846 -0.0173875 0)
(5.02088 -0.0185406 0)
(5.02347 -0.0197173 0)
(5.02622 -0.0209204 0)
(5.02914 -0.0221528 0)
(5.03222 -0.0234177 0)
(5.03549 -0.0247181 0)
(5.03893 -0.0260574 0)
(5.04256 -0.0274392 0)
(5.04638 -0.0288669 0)
(5.0504 -0.0303443 0)
(5.05462 -0.0318753 0)
(5.05906 -0.0334636 0)
(5.06372 -0.0351135 0)
(5.06861 -0.0368289 0)
(5.07374 -0.0386143 0)
(5.07912 -0.0404738 0)
(5.08476 -0.0424119 0)
(5.09067 -0.044433 0)
(5.09686 -0.0465419 0)
(5.10336 -0.0487429 0)
(5.11016 -0.051041 0)
(5.11729 -0.0534407 0)
(5.12475 -0.055947 0)
(5.13257 -0.0585645 0)
(5.14076 -0.0612983 0)
(5.14934 -0.064153 0)
(5.15833 -0.0671336 0)
(5.16774 -0.0702447 0)
(5.17759 -0.0734914 0)
(5.18791 -0.076878 0)
(5.19871 -0.0804095 0)
(5.21002 -0.0840898 0)
(5.22185 -0.0879237 0)
(5.23424 -0.0919146 0)
(5.2472 -0.0960667 0)
(5.26076 -0.100383 0)
(5.27494 -0.104866 0)
(5.28978 -0.109519 0)
(5.30529 -0.114342 0)
(5.3215 -0.119337 0)
(5.33845 -0.124504 0)
(5.35615 -0.12984 0)
(5.37464 -0.135343 0)
(5.39395 -0.141009 0)
(5.41409 -0.146831 0)
(5.43511 -0.152802 0)
(5.45702 -0.15891 0)
(5.47986 -0.165142 0)
(5.50363 -0.171482 0)
(5.52838 -0.177911 0)
(5.55412 -0.184404 0)
(5.58086 -0.190935 0)
(5.60861 -0.197474 0)
(5.63739 -0.203985 0)
(5.6672 -0.210429 0)
(5.69802 -0.216763 0)
(5.72986 -0.222939 0)
(5.76269 -0.228908 0)
(5.79648 -0.234617 0)
(5.83119 -0.24001 0)
(5.86678 -0.245032 0)
(5.90317 -0.249629 0)
(5.94031 -0.253745 0)
(5.97811 -0.257331 0)
(6.01648 -0.260343 0)
(6.05532 -0.26274 0)
(6.09451 -0.264492 0)
(6.13396 -0.265577 0)
(6.17353 -0.26598 0)
(6.21311 -0.265699 0)
(6.25258 -0.264741 0)
(6.29182 -0.26312 0)
(6.33073 -0.260861 0)
(6.3692 -0.257997 0)
(6.40712 -0.254564 0)
(6.44442 -0.250608 0)
(6.481 -0.246177 0)
(6.5168 -0.24132 0)
(6.55176 -0.236089 0)
(6.58583 -0.23054 0)
(6.61896 -0.224722 0)
(6.65112 -0.21869 0)
(6.68229 -0.212492 0)
(6.71245 -0.206178 0)
(6.7416 -0.199791 0)
(6.76974 -0.193374 0)
(6.79687 -0.186968 0)
(6.82301 -0.180608 0)
(6.84816 -0.174327 0)
(6.87236 -0.168155 0)
(6.89562 -0.162117 0)
(6.91798 -0.156239 0)
(6.93947 -0.150539 0)
(6.96011 -0.145035 0)
(6.97996 -0.139742 0)
(6.99903 -0.134672 0)
(7.01737 -0.129835 0)
(7.03501 -0.125238 0)
(7.052 -0.120886 0)
(7.06837 -0.116785 0)
(7.08416 -0.112936 0)
(7.09941 -0.109341 0)
(7.11415 -0.106002 0)
(7.12843 -0.102916 0)
(7.14229 -0.100085 0)
(7.15575 -0.0975056 0)
(7.16887 -0.0951779 0)
(7.18166 -0.0930972 0)
(7.19419 -0.0912644 0)
(7.20648 -0.089671 0)
(7.21857 -0.088318 0)
(7.23051 -0.0871906 0)
(7.24233 -0.086288 0)
(7.25408 -0.0855849 0)
(7.26581 -0.0850744 0)
(7.27756 -0.0847152 0)
(7.28936 -0.084488 0)
(7.30127 -0.0843296 0)
(7.3133 -0.0842003 0)
(7.3255 -0.0840098 0)
(7.33786 -0.083691 0)
(7.35042 -0.0831246 0)
(7.36312 -0.082212 0)
(7.37597 -0.0808098 0)
(7.38885 -0.0787914 0)
(7.40172 -0.0760024 0)
(7.4144 -0.0723011 0)
(7.4268 -0.0675451 0)
(7.43866 -0.0616012 0)
(7.44983 -0.0543669 0)
(7.45999 -0.0457447 0)
(7.46895 -0.0356943 0)
(7.47638 -0.0241688 0)
(7.48204 -0.0111907 0)
(7.48561 0.00321363 0)
(7.48687 0.0189326 0)
(7.48554 0.0358851 0)
(7.48143 0.0538949 0)
(7.47433 0.0728313 0)
(7.46411 0.0924762 0)
(7.45065 0.112668 0)
(7.43386 0.13317 0)
(7.41374 0.153807 0)
(7.39024 0.174348 0)
(7.36346 0.194621 0)
(7.33342 0.214415 0)
(7.30028 0.233575 0)
(7.26412 0.251925 0)
(7.22517 0.269336 0)
(7.18353 0.285673 0)
(7.13948 0.300843 0)
(7.09317 0.314756 0)
(7.04489 0.327352 0)
(6.9948 0.338589 0)
(6.94323 0.348443 0)
(6.89031 0.356913 0)
(6.83636 0.364007 0)
(6.78154 0.369759 0)
(6.72613 0.374205 0)
(6.67027 0.377408 0)
(6.61421 0.379423 0)
(6.55808 0.380333 0)
(6.50209 0.380208 0)
(6.44635 0.379143 0)
(6.39103 0.377213 0)
(6.33622 0.374521 0)
(6.28204 0.371144 0)
(6.22856 0.367183 0)
(6.17588 0.362713 0)
(6.12403 0.357829 0)
(6.07306 0.3526 0)
(6.02301 0.347113 0)
(5.97389 0.341428 0)
(5.92572 0.335621 0)
(5.87848 0.32974 0)
(5.8322 0.323851 0)
(5.78681 0.317987 0)
(5.74243 0.312206 0)
(5.69866 0.306521 0)
(5.65671 0.301007 0)
(5.6128 0.295518 0)
(5.57868 0.290846 0)
(5.51743 0.2832 0)
(5.00002 -0.000651881 0)
(5.00006 -0.00196866 0)
(5.00026 -0.00328251 0)
(5.0006 -0.00459426 0)
(5.00109 -0.00590692 0)
(5.00173 -0.00722169 0)
(5.0025 -0.00853952 0)
(5.00342 -0.00986146 0)
(5.00448 -0.0111887 0)
(5.00569 -0.0125226 0)
(5.00704 -0.0138649 0)
(5.00854 -0.0152174 0)
(5.01017 -0.0165821 0)
(5.01196 -0.0179613 0)
(5.01389 -0.0193576 0)
(5.01596 -0.0207737 0)
(5.01819 -0.0222127 0)
(5.02057 -0.0236776 0)
(5.0231 -0.0251719 0)
(5.02579 -0.0266991 0)
(5.02864 -0.0282631 0)
(5.03165 -0.0298678 0)
(5.03483 -0.0315173 0)
(5.03818 -0.0332161 0)
(5.04171 -0.0349685 0)
(5.04542 -0.0367792 0)
(5.04932 -0.038653 0)
(5.05342 -0.0405948 0)
(5.05773 -0.0426098 0)
(5.06224 -0.0447032 0)
(5.06698 -0.0468803 0)
(5.07195 -0.0491466 0)
(5.07715 -0.0515077 0)
(5.08261 -0.0539693 0)
(5.08833 -0.0565372 0)
(5.09432 -0.0592174 0)
(5.1006 -0.0620157 0)
(5.10718 -0.0649385 0)
(5.11407 -0.0679917 0)
(5.12129 -0.0711818 0)
(5.12885 -0.0745147 0)
(5.13678 -0.0779972 0)
(5.14508 -0.0816353 0)
(5.15377 -0.0854355 0)
(5.16288 -0.0894041 0)
(5.17242 -0.0935476 0)
(5.18242 -0.097872 0)
(5.19288 -0.102384 0)
(5.20385 -0.107089 0)
(5.21533 -0.111993 0)
(5.22736 -0.117101 0)
(5.23995 -0.122419 0)
(5.25313 -0.127952 0)
(5.26693 -0.133705 0)
(5.28138 -0.13968 0)
(5.2965 -0.14588 0)
(5.31232 -0.152309 0)
(5.32888 -0.158966 0)
(5.3462 -0.165851 0)
(5.36431 -0.172963 0)
(5.38325 -0.180296 0)
(5.40304 -0.187845 0)
(5.42373 -0.195601 0)
(5.44534 -0.203553 0)
(5.4679 -0.211684 0)
(5.49145 -0.219975 0)
(5.51602 -0.228403 0)
(5.54163 -0.23694 0)
(5.56831 -0.245552 0)
(5.59608 -0.254198 0)
(5.62497 -0.262835 0)
(5.65497 -0.271411 0)
(5.6861 -0.279867 0)
(5.71836 -0.28814 0)
(5.75173 -0.296163 0)
(5.78619 -0.303859 0)
(5.8217 -0.311152 0)
(5.85821 -0.317963 0)
(5.89567 -0.324213 0)
(5.934 -0.329822 0)
(5.9731 -0.334719 0)
(6.01287 -0.338834 0)
(6.05319 -0.342112 0)
(6.09394 -0.344504 0)
(6.13498 -0.34598 0)
(6.17616 -0.346517 0)
(6.21735 -0.346114 0)
(6.25841 -0.34478 0)
(6.29919 -0.34254 0)
(6.33956 -0.339429 0)
(6.37941 -0.335497 0)
(6.41861 -0.330801 0)
(6.45708 -0.325404 0)
(6.49472 -0.319377 0)
(6.53145 -0.312793 0)
(6.56722 -0.305725 0)
(6.60197 -0.29825 0)
(6.63566 -0.290438 0)
(6.66826 -0.282363 0)
(6.69976 -0.274091 0)
(6.73015 -0.265686 0)
(6.75942 -0.257208 0)
(6.78758 -0.248712 0)
(6.81465 -0.240248 0)
(6.84065 -0.231864 0)
(6.86559 -0.223599 0)
(6.88951 -0.215492 0)
(6.91245 -0.207576 0)
(6.93443 -0.199878 0)
(6.95549 -0.192425 0)
(6.97568 -0.185237 0)
(6.99503 -0.178333 0)
(7.01358 -0.171727 0)
(7.03139 -0.165431 0)
(7.04848 -0.159454 0)
(7.06491 -0.153803 0)
(7.08071 -0.148483 0)
(7.09593 -0.143496 0)
(7.11061 -0.138844 0)
(7.12478 -0.134527 0)
(7.13849 -0.130544 0)
(7.15178 -0.126895 0)
(7.16468 -0.123577 0)
(7.17723 -0.120591 0)
(7.18947 -0.117932 0)
(7.20144 -0.115603 0)
(7.21318 -0.113598 0)
(7.22474 -0.111922 0)
(7.23615 -0.110562 0)
(7.24748 -0.109523 0)
(7.25877 -0.108783 0)
(7.27008 -0.108341 0)
(7.28147 -0.108154 0)
(7.293 -0.108208 0)
(7.30476 -0.108428 0)
(7.31677 -0.108773 0)
(7.32914 -0.109129 0)
(7.34189 -0.109412 0)
(7.35508 -0.109459 0)
(7.36869 -0.109135 0)
(7.38278 -0.108232 0)
(7.39723 -0.106566 0)
(7.41203 -0.103901 0)
(7.42699 -0.100019 0)
(7.44199 -0.094696 0)
(7.45674 -0.0877189 0)
(7.47105 -0.0789198 0)
(7.48452 -0.068139 0)
(7.49688 -0.0553082 0)
(7.50772 -0.0403504 0)
(7.51673 -0.0233024 0)
(7.52347 -0.00418751 0)
(7.52766 0.0168149 0)
(7.52894 0.0395841 0)
(7.52706 0.063858 0)
(7.52176 0.0894412 0)
(7.51287 0.116013 0)
(7.50025 0.143338 0)
(7.48381 0.171075 0)
(7.46354 0.198974 0)
(7.43941 0.226704 0)
(7.41152 0.254028 0)
(7.37994 0.280647 0)
(7.34487 0.306351 0)
(7.3064 0.330895 0)
(7.26482 0.354106 0)
(7.22029 0.375802 0)
(7.17313 0.39586 0)
(7.12353 0.41416 0)
(7.07184 0.430633 0)
(7.01827 0.445224 0)
(6.96318 0.457911 0)
(6.90676 0.4687 0)
(6.84938 0.477613 0)
(6.7912 0.484704 0)
(6.73255 0.49003 0)
(6.6736 0.493687 0)
(6.61462 0.495755 0)
(6.55576 0.496356 0)
(6.49725 0.495589 0)
(6.43919 0.49359 0)
(6.38177 0.490464 0)
(6.32508 0.486355 0)
(6.26924 0.481369 0)
(6.21432 0.475645 0)
(6.1604 0.469283 0)
(6.10751 0.462417 0)
(6.05571 0.455135 0)
(6.00499 0.447557 0)
(5.95538 0.43976 0)
(5.90687 0.431847 0)
(5.85944 0.42388 0)
(5.81309 0.415947 0)
(5.76775 0.40809 0)
(5.7235 0.400384 0)
(5.67996 0.392845 0)
(5.6383 0.385571 0)
(5.59475 0.378372 0)
(5.56091 0.372263 0)
(5.50031 0.362363 0)
(5.00002 -0.000794606 0)
(5.00006 -0.00239985 0)
(5.00026 -0.0040011 0)
(5.0006 -0.00559906 0)
(5.00108 -0.00719722 0)
(5.00171 -0.00879686 0)
(5.00248 -0.010399 0)
(5.00339 -0.0120046 0)
(5.00444 -0.0136153 0)
(5.00563 -0.0152324 0)
(5.00697 -0.0168581 0)
(5.00844 -0.0184944 0)
(5.01005 -0.0201439 0)
(5.0118 -0.0218094 0)
(5.01369 -0.023494 0)
(5.01572 -0.0252011 0)
(5.01789 -0.0269344 0)
(5.02021 -0.0286978 0)
(5.02268 -0.0304955 0)
(5.02529 -0.0323319 0)
(5.02805 -0.0342117 0)
(5.03097 -0.0361398 0)
(5.03405 -0.0381214 0)
(5.03729 -0.0401617 0)
(5.0407 -0.0422663 0)
(5.04428 -0.0444409 0)
(5.04804 -0.0466915 0)
(5.05198 -0.0490242 0)
(5.05612 -0.0514451 0)
(5.06046 -0.0539608 0)
(5.06501 -0.0565778 0)
(5.06977 -0.0593029 0)
(5.07476 -0.062143 0)
(5.07999 -0.0651052 0)
(5.08547 -0.0681966 0)
(5.09121 -0.0714244 0)
(5.09722 -0.0747962 0)
(5.10352 -0.0783195 0)
(5.11012 -0.0820018 0)
(5.11703 -0.085851 0)
(5.12428 -0.0898747 0)
(5.13186 -0.094081 0)
(5.13981 -0.0984777 0)
(5.14815 -0.103073 0)
(5.15688 -0.107874 0)
(5.16603 -0.112891 0)
(5.17561 -0.118129 0)
(5.18566 -0.123598 0)
(5.1962 -0.129305 0)
(5.20723 -0.135258 0)
(5.2188 -0.141464 0)
(5.23092 -0.14793 0)
(5.24362 -0.154664 0)
(5.25694 -0.161672 0)
(5.27089 -0.168959 0)
(5.2855 -0.176531 0)
(5.30082 -0.184391 0)
(5.31686 -0.192543 0)
(5.33368 -0.200988 0)
(5.35128 -0.209726 0)
(5.36973 -0.218754 0)
(5.38905 -0.228068 0)
(5.40928 -0.23766 0)
(5.43046 -0.247519 0)
(5.45263 -0.257628 0)
(5.47584 -0.267969 0)
(5.50012 -0.278514 0)
(5.52551 -0.289231 0)
(5.55205 -0.300083 0)
(5.57978 -0.311021 0)
(5.60872 -0.321991 0)
(5.63892 -0.332928 0)
(5.67037 -0.34376 0)
(5.70311 -0.354404 0)
(5.73712 -0.364769 0)
(5.77239 -0.374756 0)
(5.8089 -0.384259 0)
(5.84661 -0.393168 0)
(5.88544 -0.401371 0)
(5.92532 -0.408757 0)
(5.96614 -0.415221 0)
(6.00778 -0.420663 0)
(6.0501 -0.425002 0)
(6.09293 -0.428168 0)
(6.13612 -0.430113 0)
(6.17948 -0.430809 0)
(6.22284 -0.430252 0)
(6.26602 -0.428455 0)
(6.30885 -0.425456 0)
(6.35117 -0.421309 0)
(6.39285 -0.416085 0)
(6.43374 -0.409864 0)
(6.47372 -0.402739 0)
(6.51272 -0.39481 0)
(6.55064 -0.386179 0)
(6.58742 -0.376949 0)
(6.62302 -0.367225 0)
(6.65739 -0.357105 0)
(6.69052 -0.346686 0)
(6.72239 -0.336057 0)
(6.75302 -0.325303 0)
(6.78241 -0.314499 0)
(6.81056 -0.303716 0)
(6.83753 -0.293017 0)
(6.86332 -0.282456 0)
(6.88797 -0.272084 0)
(6.91153 -0.261945 0)
(6.93403 -0.252073 0)
(6.95552 -0.242503 0)
(6.97604 -0.233261 0)
(6.99564 -0.224369 0)
(7.01437 -0.215846 0)
(7.03227 -0.207706 0)
(7.0494 -0.19996 0)
(7.06579 -0.192617 0)
(7.08151 -0.185682 0)
(7.09659 -0.179158 0)
(7.11109 -0.173046 0)
(7.12503 -0.167348 0)
(7.13847 -0.16206 0)
(7.15145 -0.157183 0)
(7.164 -0.152713 0)
(7.17617 -0.14865 0)
(7.18798 -0.144993 0)
(7.19949 -0.141742 0)
(7.21072 -0.138902 0)
(7.22172 -0.136472 0)
(7.23253 -0.134466 0)
(7.2432 -0.13288 0)
(7.25379 -0.131734 0)
(7.26436 -0.131012 0)
(7.27497 -0.130736 0)
(7.28573 -0.130868 0)
(7.2967 -0.131414 0)
(7.30802 -0.1323 0)
(7.31976 -0.133496 0)
(7.33206 -0.134869 0)
(7.34502 -0.136328 0)
(7.35875 -0.137663 0)
(7.37331 -0.138698 0)
(7.38879 -0.139142 0)
(7.40513 -0.138729 0)
(7.42236 -0.137108 0)
(7.44028 -0.133947 0)
(7.45877 -0.128891 0)
(7.47748 -0.121603 0)
(7.49615 -0.111805 0)
(7.51427 -0.0992396 0)
(7.53146 -0.0837886 0)
(7.54714 -0.0653336 0)
(7.56091 -0.0439328 0)
(7.57216 -0.0196022 0)
(7.5805 0.00738853 0)
(7.58546 0.0368484 0)
(7.5867 0.0683961 0)
(7.58391 0.101739 0)
(7.57685 0.136419 0)
(7.56537 0.172096 0)
(7.54937 0.208293 0)
(7.52884 0.244662 0)
(7.50379 0.280749 0)
(7.47435 0.316229 0)
(7.44062 0.350702 0)
(7.40286 0.383886 0)
(7.36122 0.415455 0)
(7.31606 0.445187 0)
(7.26758 0.472844 0)
(7.21621 0.498271 0)
(7.16218 0.521321 0)
(7.10592 0.541912 0)
(7.0477 0.559986 0)
(6.98794 0.575526 0)
(6.9269 0.588556 0)
(6.86498 0.599117 0)
(6.80241 0.607299 0)
(6.73955 0.613188 0)
(6.67661 0.616922 0)
(6.61389 0.61862 0)
(6.55154 0.618452 0)
(6.48982 0.616557 0)
(6.42884 0.613121 0)
(6.36881 0.608289 0)
(6.30978 0.602251 0)
(6.25191 0.595149 0)
(6.19524 0.587169 0)
(6.13984 0.578441 0)
(6.08574 0.569138 0)
(6.03297 0.559375 0)
(5.98152 0.549306 0)
(5.93139 0.539027 0)
(5.88256 0.528672 0)
(5.83498 0.518316 0)
(5.78863 0.50807 0)
(5.74344 0.497987 0)
(5.69946 0.488158 0)
(5.65628 0.478602 0)
(5.61506 0.469438 0)
(5.57204 0.460432 0)
(5.5386 0.452823 0)
(5.47889 0.440628 0)
(5.00002 -0.000936713 0)
(5.00006 -0.00282897 0)
(5.00025 -0.00471602 0)
(5.00059 -0.00659814 0)
(5.00108 -0.00847914 0)
(5.00171 -0.0103602 0)
(5.00247 -0.0122422 0)
(5.00337 -0.0141263 0)
(5.00441 -0.0160139 0)
(5.00559 -0.0179067 0)
(5.0069 -0.019807 0)
(5.00835 -0.0217173 0)
(5.00993 -0.0236406 0)
(5.01164 -0.0255801 0)
(5.01349 -0.0275397 0)
(5.01547 -0.0295234 0)
(5.01759 -0.0315355 0)
(5.01984 -0.0335808 0)
(5.02223 -0.0356644 0)
(5.02475 -0.0377914 0)
(5.02742 -0.0399677 0)
(5.03023 -0.0421989 0)
(5.03319 -0.0444913 0)
(5.0363 -0.0468511 0)
(5.03956 -0.0492851 0)
(5.04299 -0.0518001 0)
(5.04658 -0.0544031 0)
(5.05034 -0.0571014 0)
(5.05428 -0.0599024 0)
(5.05841 -0.0628139 0)
(5.06273 -0.0658438 0)
(5.06726 -0.069 0)
(5.072 -0.0722908 0)
(5.07696 -0.0757247 0)
(5.08215 -0.0793101 0)
(5.08759 -0.0830559 0)
(5.09328 -0.0869708 0)
(5.09924 -0.0910639 0)
(5.10549 -0.0953443 0)
(5.11203 -0.0998215 0)
(5.11889 -0.104505 0)
(5.12608 -0.109403 0)
(5.13361 -0.114527 0)
(5.1415 -0.119886 0)
(5.14978 -0.125488 0)
(5.15846 -0.131346 0)
(5.16755 -0.137467 0)
(5.1771 -0.143863 0)
(5.1871 -0.150542 0)
(5.1976 -0.157515 0)
(5.20861 -0.164791 0)
(5.22016 -0.172379 0)
(5.23227 -0.18029 0)
(5.24498 -0.188531 0)
(5.25832 -0.197112 0)
(5.27231 -0.20604 0)
(5.28699 -0.215322 0)
(5.30239 -0.224965 0)
(5.31855 -0.234973 0)
(5.33552 -0.245349 0)
(5.35332 -0.256094 0)
(5.37201 -0.267208 0)
(5.39163 -0.278685 0)
(5.41223 -0.290517 0)
(5.43385 -0.30269 0)
(5.45655 -0.315187 0)
(5.48039 -0.327982 0)
(5.50542 -0.341041 0)
(5.53168 -0.354324 0)
(5.55925 -0.367777 0)
(5.58816 -0.38134 0)
(5.61847 -0.394933 0)
(5.65022 -0.408471 0)
(5.68345 -0.421848 0)
(5.71817 -0.434948 0)
(5.75438 -0.44764 0)
(5.79209 -0.459782 0)
(5.83124 -0.471221 0)
(5.87179 -0.481801 0)
(5.91363 -0.491362 0)
(5.95666 -0.499753 0)
(6.00072 -0.506834 0)
(6.04564 -0.512482 0)
(6.09122 -0.5166 0)
(6.13724 -0.51912 0)
(6.18348 -0.520005 0)
(6.2297 -0.519252 0)
(6.27568 -0.516885 0)
(6.32122 -0.512962 0)
(6.3661 -0.50756 0)
(6.41016 -0.500779 0)
(6.45324 -0.492735 0)
(6.4952 -0.483555 0)
(6.53593 -0.473373 0)
(6.57536 -0.462328 0)
(6.6134 -0.450557 0)
(6.65003 -0.438198 0)
(6.68521 -0.42538 0)
(6.71893 -0.41223 0)
(6.75119 -0.398863 0)
(6.78202 -0.385389 0)
(6.81143 -0.371904 0)
(6.83946 -0.358498 0)
(6.86615 -0.345247 0)
(6.89154 -0.332223 0)
(6.91568 -0.319484 0)
(6.93863 -0.307081 0)
(6.96044 -0.295057 0)
(6.98116 -0.283448 0)
(7.00086 -0.272282 0)
(7.01958 -0.261582 0)
(7.03739 -0.251366 0)
(7.05435 -0.241645 0)
(7.0705 -0.232429 0)
(7.0859 -0.22372 0)
(7.10062 -0.21552 0)
(7.11469 -0.207827 0)
(7.12817 -0.200637 0)
(7.14109 -0.193944 0)
(7.15352 -0.187742 0)
(7.16548 -0.182023 0)
(7.17702 -0.176781 0)