/*--------------------------------*- C++ -*----------------------------------*\
  =========                 |
  \\      /  F ield         | OpenFOAM: The Open Source CFD Toolbox
   \\    /   O peration     | Website:  https://openfoam.org
    \\  /    A nd           | Version:  10
     \\/     M anipulation  |
\*---------------------------------------------------------------------------*/
FoamFile
{
    format      ascii;
    class       volVectorField;
    location    "0.9";
    object      Ua;
}
// * * * * * * * * * * * * * * * * * * * * * * * * * * * * * * * * * * * * * //

dimensions      [0 1 -1 0 0 0 0];

internalField   nonuniform List<vector> 
12225
(
(5.07966e-05 -6.49714e-06 0)
(0.000148567 -6.08456e-06 0)
(0.000237389 -5.32768e-06 0)
(0.000315906 -4.47468e-06 0)
(0.000384729 -3.69211e-06 0)
(0.000445457 -3.06206e-06 0)
(0.000499966 -2.61191e-06 0)
(0.000550046 -2.34368e-06 0)
(0.000597289 -2.25427e-06 0)
(0.000643113 -2.34863e-06 0)
(0.000688868 -2.65056e-06 0)
(0.000735998 -3.21743e-06 0)
(0.000786311 -4.1691e-06 0)
(0.000842481 -5.75724e-06 0)
(0.000909182 -8.55984e-06 0)
(0.00099634 -1.41528e-05 0)
(0.00113145 -2.81919e-05 0)
(0.0014263 -8.01646e-05 0)
(3.45406e-05 -1.69301e-05 0)
(0.000101727 -1.5955e-05 0)
(0.00016429 -1.40674e-05 0)
(0.000221205 -1.18968e-05 0)
(0.000272525 -9.88027e-06 0)
(0.000318953 -8.24367e-06 0)
(0.000361465 -7.071e-06 0)
(0.000401088 -6.37777e-06 0)
(0.000438798 -6.164e-06 0)
(0.000475522 -6.44973e-06 0)
(0.000512185 -7.30523e-06 0)
(0.00054981 -8.89137e-06 0)
(0.000589688 -1.1538e-05 0)
(0.000633694 -1.59272e-05 0)
(0.000684932 -2.35887e-05 0)
(0.000749145 -3.84916e-05 0)
(0.000836831 -7.3365e-05 0)
(0.000946846 -0.000181246 0)
(2.70308e-05 -2.34656e-05 0)
(8.01093e-05 -2.23176e-05 0)
(0.000130626 -1.98675e-05 0)
(0.00017775 -1.69565e-05 0)
(0.000221306 -1.4199e-05 0)
(0.000261589 -1.19336e-05 0)
(0.00029915 -1.03029e-05 0)
(0.000334637 -9.35008e-06 0)
(0.000368719 -9.09194e-06 0)
(0.000402063 -9.5713e-06 0)
(0.000435365 -1.09021e-05 0)
(0.000469402 -1.3329e-05 0)
(0.000505144 -1.73392e-05 0)
(0.000543916 -2.39104e-05 0)
(0.000587641 -3.51356e-05 0)
(0.000638873 -5.59766e-05 0)
(0.00069811 -9.96269e-05 0)
(0.000741723 -0.000203056 0)
(2.21306e-05 -2.78088e-05 0)
(6.597e-05 -2.66986e-05 0)
(0.000108527 -2.39941e-05 0)
(0.000149115 -2.06598e-05 0)
(0.000187448 -1.74359e-05 0)
(0.000223583 -1.47542e-05 0)
(0.000257808 -1.2816e-05 0)
(0.000290528 -1.16982e-05 0)
(0.000322202 -1.14414e-05 0)
(0.000353317 -1.21141e-05 0)
(0.000384393 -1.38695e-05 0)
(0.000416015 -1.70179e-05 0)
(0.000448875 -2.21556e-05 0)
(0.000483812 -3.04308e-05 0)
(0.000521733 -4.41453e-05 0)
(0.000562869 -6.81582e-05 0)
(0.000603056 -0.000112925 0)
(0.000619941 -0.000197879 0)
(1.8538e-05 -3.05613e-05 0)
(5.55718e-05 -2.96301e-05 0)
(9.21932e-05 -2.688e-05 0)
(0.000127835 -2.33421e-05 0)
(0.000162157 -1.98466e-05 0)
(0.000195072 -1.69031e-05 0)
(0.000226688 -1.47682e-05 0)
(0.000257239 -1.35556e-05 0)
(0.000287026 -1.33328e-05 0)
(0.000316391 -1.41938e-05 0)
(0.00034571 -1.63241e-05 0)
(0.000375395 -2.00792e-05 0)
(0.000405888 -2.61133e-05 0)
(0.000437603 -3.56219e-05 0)
(0.000470651 -5.08143e-05 0)
(0.000503862 -7.57677e-05 0)
(0.000531804 -0.000117436 0)
(0.000538491 -0.000183674 0)
(1.57419e-05 -3.2035e-05 0)
(4.74511e-05 -3.13835e-05 0)
(7.9365e-05 -2.87393e-05 0)
(0.000111015 -2.51627e-05 0)
(0.000142045 -2.15467e-05 0)
(0.000172277 -1.84645e-05 0)
(0.000201699 -1.62232e-05 0)
(0.000230412 -1.49733e-05 0)
(0.000258593 -1.48093e-05 0)
(0.000286464 -1.58488e-05 0)
(0.000314275 -1.83005e-05 0)
(0.000342281 -2.25421e-05 0)
(0.000370704 -2.92351e-05 0)
(0.000399611 -3.95151e-05 0)
(0.000428574 -5.52899e-05 0)
(0.000455796 -7.95857e-05 0)
(0.000476295 -0.000116348 0)
(0.000479944 -0.000167327 0)
(1.34868e-05 -3.24246e-05 0)
(4.08773e-05 -3.21252e-05 0)
(6.89166e-05 -2.96979e-05 0)
(9.72192e-05 -2.6209e-05 0)
(0.000125436 -2.25938e-05 0)
(0.000153341 -1.94756e-05 0)
(0.000180834 -1.72051e-05 0)
(0.000207918 -1.59671e-05 0)
(0.000234669 -1.58816e-05 0)
(0.000261205 -1.70854e-05 0)
(0.000287663 -1.97999e-05 0)
(0.000314161 -2.44024e-05 0)
(0.000340738 -3.15172e-05 0)
(0.000367208 -4.21401e-05 0)
(0.000392841 -5.77732e-05 0)
(0.000415748 -8.04194e-05 0)
(0.000432018 -0.000111908 0)
(0.000435683 -0.000151368 0)
(1.16254e-05 -3.18697e-05 0)
(3.54299e-05 -3.1971e-05 0)
(6.02016e-05 -2.98389e-05 0)
(8.56257e-05 -2.65339e-05 0)
(0.000111379 -2.30176e-05 0)
(0.000137211 -1.99502e-05 0)
(0.000162963 -1.7718e-05 0)
(0.000188565 -1.65352e-05 0)
(0.000214007 -1.65439e-05 0)
(0.000239318 -1.78943e-05 0)
(0.000264536 -2.081e-05 0)
(0.000289665 -2.5647e-05 0)
(0.0003146 -3.29583e-05 0)
(0.000338995 -4.3555e-05 0)
(0.000362011 -5.85182e-05 0)
(0.000381964 -7.90149e-05 0)
(0.000396054 -0.000105591 0)
(0.000400939 -0.00013658 0)
(1.00644e-05 -3.04834e-05 0)
(3.0842e-05 -3.10115e-05 0)
(5.28101e-05 -2.92235e-05 0)
(7.57158e-05 -2.61721e-05 0)
(9.9273e-05 -2.28332e-05 0)
(0.000123228 -1.98904e-05 0)
(0.000147386 -1.7756e-05 0)
(0.000171617 -1.6667e-05 0)
(0.000195843 -1.67824e-05 0)
(0.000220016 -1.82599e-05 0)
(0.000244091 -2.13146e-05 0)
(0.000267978 -2.62655e-05 0)
(0.000291474 -3.35731e-05 0)
(0.000314148 -4.38506e-05 0)
(0.000335187 -5.78048e-05 0)
(0.000353227 -7.60006e-05 0)
(0.000366383 -9.83127e-05 0)
(0.000372857 -0.000123084 0)
(8.73981e-06 -2.83679e-05 0)
(2.69302e-05 -2.93256e-05 0)
(4.64605e-05 -2.79021e-05 0)
(6.71347e-05 -2.51499e-05 0)
(8.87132e-05 -2.2049e-05 0)
(0.000110953 -1.92931e-05 0)
(0.000133638 -1.73087e-05 0)
(0.000156593 -1.63481e-05 0)
(0.000179683 -1.65808e-05 0)
(0.000202796 -1.81655e-05 0)
(0.000225818 -2.13002e-05 0)
(0.000248589 -2.62566e-05 0)
(0.000270844 -3.33944e-05 0)
(0.000292133 -4.31421e-05 0)
(0.000311735 -5.59078e-05 0)
(0.000328613 -7.18689e-05 0)
(0.000341555 -9.0614e-05 0)
(0.000349625 -0.000110767 0)
(7.60471e-06 -2.56252e-05 0)
(2.3559e-05 -2.69877e-05 0)
(4.09445e-05 -2.59207e-05 0)
(5.96222e-05 -2.34903e-05 0)
(7.94056e-05 -2.0672e-05 0)
(0.000100072 -1.81543e-05 0)
(0.000121392 -1.63658e-05 0)
(0.000143157 -1.55644e-05 0)
(0.000165185 -1.59236e-05 0)
(0.000187314 -1.75967e-05 0)
(0.000209373 -2.07591e-05 0)
(0.000231153 -2.56299e-05 0)
(0.000252359 -3.24721e-05 0)
(0.000272562 -4.15568e-05 0)
(0.000291158 -5.30763e-05 0)
(0.000307395 -6.69857e-05 0)
(0.000320512 -8.28002e-05 0)
(0.000330041 -9.94634e-05 0)
(6.54185e-06 -2.26146e-05 0)
(2.04142e-05 -2.431e-05 0)
(3.58305e-05 -2.35505e-05 0)
(5.27026e-05 -2.14269e-05 0)
(7.08798e-05 -1.89001e-05 0)
(9.01456e-05 -1.66409e-05 0)
(0.000110256 -1.50685e-05 0)
(0.00013097 -1.44388e-05 0)
(0.000152071 -1.49234e-05 0)
(0.000173353 -1.66668e-05 0)
(0.000194612 -1.98202e-05 0)
(0.00021561 -2.45556e-05 0)
(0.000236048 -3.10557e-05 0)
(0.000255534 -3.94766e-05 0)
(0.000273576 -4.9873e-05 0)
(0.000289622 -6.20925e-05 0)
(0.000303177 -7.56699e-05 0)
(0.000313983 -8.98044e-05 0)
(5.84283e-06 -1.92796e-05 0)
(1.82995e-05 -2.12212e-05 0)
(3.22943e-05 -2.07143e-05 0)
(4.78014e-05 -1.88831e-05 0)
(6.47211e-05 -1.66611e-05 0)
(8.286e-05 -1.46861e-05 0)
(0.000101974 -1.33564e-05 0)
(0.000121807 -1.29173e-05 0)
(0.000142116 -1.35333e-05 0)
(0.00016267 -1.53367e-05 0)
(0.000183235 -1.84544e-05 0)
(0.000203557 -2.30153e-05 0)
(0.000223341 -2.91375e-05 0)
(0.000242235 -3.6894e-05 0)
(0.000259839 -4.62568e-05 0)
(0.000275749 -5.70308e-05 0)
(0.000289644 -6.88061e-05 0)
(0.000301392 -8.09754e-05 0)
(5.13815e-06 -1.52624e-05 0)
(1.61354e-05 -1.73188e-05 0)
(2.86332e-05 -1.69987e-05 0)
(4.27103e-05 -1.54629e-05 0)
(5.83238e-05 -1.35905e-05 0)
(7.52957e-05 -1.19598e-05 0)
(9.33749e-05 -1.09302e-05 0)
(0.000112289 -1.07259e-05 0)
(0.000131771 -1.14969e-05 0)
(0.000151562 -1.33585e-05 0)
(0.000171409 -1.64099e-05 0)
(0.000191048 -2.07376e-05 0)
(0.000210199 -2.64024e-05 0)
(0.000228559 -3.34132e-05 0)
(0.000245819 -4.16909e-05 0)
(0.000261699 -5.1034e-05 0)
(0.000276 -6.11061e-05 0)
(0.000288659 -7.14645e-05 0)
(4.39324e-06 -1.06308e-05 0)
(1.38234e-05 -1.24954e-05 0)
(2.472e-05 -1.22267e-05 0)
(3.73251e-05 -1.09715e-05 0)
(5.16381e-05 -9.49565e-06 0)
(6.7463e-05 -8.27452e-06 0)
(8.45183e-05 -7.60582e-06 0)
(0.000102507 -7.68102e-06 0)
(0.00012114 -8.62924e-06 0)
(0.000140141 -1.05445e-05 0)
(0.000159246 -1.34985e-05 0)
(0.000178199 -1.75411e-05 0)
(0.000196751 -2.26901e-05 0)
(0.000214655 -2.89137e-05 0)
(0.000231685 -3.61114e-05 0)
(0.000247651 -4.41005e-05 0)
(0.000262427 -5.26198e-05 0)
(0.000275981 -6.13555e-05 0)
(3.45054e-06 -5.53726e-06 0)
(1.09646e-05 -6.63653e-06 0)
(2.00724e-05 -6.23506e-06 0)
(3.12155e-05 -5.25169e-06 0)
(4.43547e-05 -4.23533e-06 0)
(5.91742e-05 -3.50169e-06 0)
(7.52758e-05 -3.25886e-06 0)
(9.23146e-05 -3.65473e-06 0)
(0.000110019 -4.796e-06 0)
(0.000128154 -6.75898e-06 0)
(0.000146498 -9.59533e-06 0)
(0.000164831 -1.33316e-05 0)
(0.000182937 -1.7959e-05 0)
(0.000200609 -2.34259e-05 0)
(0.000217663 -2.96302e-05 0)
(0.000233951 -3.64177e-05 0)
(0.000249374 -4.35908e-05 0)
(0.000263892 -5.09282e-05 0)
(1.7377e-06 2.46896e-08 0)
(6.05598e-06 4.41024e-07 0)
(1.26102e-05 1.03394e-06 0)
(2.18784e-05 1.66149e-06 0)
(3.35717e-05 2.16758e-06 0)
(4.727e-05 2.38845e-06 0)
(6.2579e-05 2.17893e-06 0)
(7.91254e-05 1.42539e-06 0)
(9.65621e-05 4.63281e-08 0)
(0.000114581 -2.01131e-06 0)
(0.00013294 -4.87092e-06 0)
(0.000151438 -8.46231e-06 0)
(0.000169862 -1.27291e-05 0)
(0.000188001 -1.76141e-05 0)
(0.000205679 -2.3024e-05 0)
(0.000222762 -2.8834e-05 0)
(0.000239157 -3.48977e-05 0)
(0.000254813 -4.10596e-05 0)
(4.07512e-06 6.63166e-06 0)
(1.24695e-05 8.98442e-06 0)
(2.16759e-05 1.00677e-05 0)
(3.21969e-05 1.04582e-05 0)
(4.42557e-05 1.04259e-05 0)
(5.78364e-05 1.00152e-05 0)
(7.2764e-05 9.18724e-06 0)
(8.87884e-05 7.89175e-06 0)
(0.00010564 6.09127e-06 0)
(0.00012306 3.76641e-06 0)
(0.000140782 8.20749e-07 0)
(0.000158557 -2.65284e-06 0)
(0.00017625 -6.80445e-06 0)
(0.000193781 -1.13834e-05 0)
(0.00021102 -1.62623e-05 0)
(0.000227841 -2.13492e-05 0)
(0.000244154 -2.65423e-05 0)
(0.000259901 -3.17385e-05 0)
(5.65677e-06 1.56671e-05 0)
(1.73503e-05 1.92647e-05 0)
(2.98213e-05 2.09249e-05 0)
(4.31409e-05 2.12479e-05 0)
(5.73917e-05 2.06937e-05 0)
(7.25856e-05 1.95287e-05 0)
(8.86477e-05 1.78876e-05 0)
(0.000105438 1.58351e-05 0)
(0.000122781 1.34049e-05 0)
(0.000140491 1.06206e-05 0)
(0.000158385 7.50621e-06 0)
(0.000176297 4.09352e-06 0)
(0.00019403 2.04212e-07 0)
(0.000211405 -3.91643e-06 0)
(0.000228368 -8.35151e-06 0)
(0.000244902 -1.28287e-05 0)
(0.000260964 -1.72776e-05 0)
(0.000276522 -2.16378e-05 0)
(6.41698e-06 2.5548e-05 0)
(1.98134e-05 2.9121e-05 0)
(3.42469e-05 3.07225e-05 0)
(4.95845e-05 3.07569e-05 0)
(6.57435e-05 2.96788e-05 0)
(8.26351e-05 2.78411e-05 0)
(0.000100142 2.5482e-05 0)
(0.00011812 2.27527e-05 0)
(0.000136412 1.97479e-05 0)
(0.000154857 1.65293e-05 0)
(0.000173306 1.31423e-05 0)
(0.000191622 9.62527e-06 0)
(0.000209691 6.01501e-06 0)
(0.000227416 2.35126e-06 0)
(0.000244669 -1.51636e-06 0)
(0.000261378 -5.45617e-06 0)
(0.000277574 -9.32598e-06 0)
(0.000293261 -1.3043e-05 0)
(7.59869e-06 3.38635e-05 0)
(2.33393e-05 3.67492e-05 0)
(4.00767e-05 3.77844e-05 0)
(5.764e-05 3.72644e-05 0)
(7.58752e-05 3.56093e-05 0)
(9.46359e-05 3.31883e-05 0)
(0.000113773 3.02762e-05 0)
(0.000133135 2.706e-05 0)
(0.00015257 2.36618e-05 0)
(0.000171939 2.01603e-05 0)
(0.000191115 1.66081e-05 0)
(0.00020999 1.30438e-05 0)
(0.000228474 9.49862e-06 0)
(0.000246498 6.00086e-06 0)
(0.000264011 2.57754e-06 0)
(0.00028095 -8.65236e-07 0)
(0.000297273 -4.29944e-06 0)
(0.000313014 -7.58604e-06 0)
(9.03992e-06 4.04273e-05 0)
(2.75788e-05 4.25035e-05 0)
(4.69603e-05 4.28253e-05 0)
(6.70119e-05 4.16671e-05 0)
(8.75418e-05 3.94324e-05 0)
(0.000108366 3.64925e-05 0)
(0.00012931 3.3134e-05 0)
(0.000150217 2.9557e-05 0)
(0.000170943 2.58928e-05 0)
(0.000191364 2.22242e-05 0)
(0.000211377 1.8603e-05 0)
(0.000230899 1.50624e-05 0)
(0.000249869 1.16257e-05 0)
(0.000268241 8.31075e-06 0)
(0.00028599 5.13298e-06 0)
(0.000303103 2.10583e-06 0)
(0.000319558 -8.51049e-07 0)
(0.000335348 -3.74382e-06 0)
(1.07765e-05 4.48648e-05 0)
(3.26655e-05 4.61693e-05 0)
(5.51555e-05 4.57866e-05 0)
(7.80692e-05 4.40195e-05 0)
(0.000101192 4.12733e-05 0)
(0.000124317 3.79179e-05 0)
(0.000147261 3.42392e-05 0)
(0.000169867 3.04365e-05 0)
(0.000192005 2.6638e-05 0)
(0.000213575 2.29218e-05 0)
(0.000234498 1.93328e-05 0)
(0.00025472 1.58958e-05 0)
(0.000274208 1.26247e-05 0)
(0.000292946 9.52743e-06 0)
(0.00031093 6.60903e-06 0)
(0.000328173 3.87306e-06 0)
(0.000344693 1.32204e-06 0)
(0.000360492 -1.12815e-06 0)
(1.28589e-05 4.70352e-05 0)
(3.87561e-05 4.76675e-05 0)
(6.49299e-05 4.66757e-05 0)
(9.11811e-05 4.44069e-05 0)
(0.000117277 4.12748e-05 0)
(0.000143002 3.76449e-05 0)
(0.000168174 3.37941e-05 0)
(0.000192653 2.99114e-05 0)
(0.000216335 2.61145e-05 0)
(0.000239148 2.24709e-05 0)
(0.000261048 1.90153e-05 0)
(0.000282015 1.57628e-05 0)
(0.000302047 1.27177e-05 0)
(0.000321157 9.87894e-06 0)
(0.00033937 7.24308e-06 0)
(0.000356721 4.80576e-06 0)
(0.00037325 2.56237e-06 0)
(0.000389004 5.08101e-07 0)
(1.53662e-05 4.69163e-05 0)
(4.60823e-05 4.70012e-05 0)
(7.66556e-05 4.55443e-05 0)
(0.000106844 4.29315e-05 0)
(0.000136398 3.95806e-05 0)
(0.000165103 3.58461e-05 0)
(0.000192799 3.19886e-05 0)
(0.000219375 2.81799e-05 0)
(0.000244768 2.45225e-05 0)
(0.000268948 2.10703e-05 0)
(0.000291914 1.78466e-05 0)
(0.000313687 1.48567e-05 0)
(0.000334301 1.20965e-05 0)
(0.000353804 9.55738e-06 0)
(0.00037225 7.22952e-06 0)
(0.000389699 5.10282e-06 0)
(0.000406214 3.16762e-06 0)
(0.000421861 1.41478e-06 0)
(1.84276e-05 4.4527e-05 0)
(5.50196e-05 4.42018e-05 0)
(9.09283e-05 4.24536e-05 0)
(0.000125846 3.96883e-05 0)
(0.000159506 3.63151e-05 0)
(0.000191709 3.26671e-05 0)
(0.000222334 2.89807e-05 0)
(0.000251325 2.54057e-05 0)
(0.000278674 2.20263e-05 0)
(0.000304411 1.88821e-05 0)
(0.000328589 1.59851e-05 0)
(0.000351277 1.33322e-05 0)
(0.000372556 1.09127e-05 0)
(0.000392509 8.71282e-06 0)
(0.000411225 6.71825e-06 0)
(0.000428792 4.91544e-06 0)
(0.000445298 3.29181e-06 0)
(0.000460828 1.83584e-06 0)
(2.22752e-05 3.98628e-05 0)
(6.62424e-05 3.92745e-05 0)
(0.000108818 3.7431e-05 0)
(0.000149603 3.47312e-05 0)
(0.000188312 3.15557e-05 0)
(0.000224784 2.82028e-05 0)
(0.000258961 2.48767e-05 0)
(0.000290867 2.17009e-05 0)
(0.000320576 1.87397e-05 0)
(0.000348196 1.60191e-05 0)
(0.00037385 1.35417e-05 0)
(0.000397669 1.12983e-05 0)
(0.000419786 9.27382e-06 0)
(0.00044033 7.45176e-06 0)
(0.000459429 5.81596e-06 0)
(0.000477201 4.35148e-06 0)
(0.000493761 3.04484e-06 0)
(0.000509217 1.88394e-06 0)
(2.73934e-05 3.28115e-05 0)
(8.11623e-05 3.21197e-05 0)
(0.000132573 3.04017e-05 0)
(0.000181099 2.80146e-05 0)
(0.000226443 2.52844e-05 0)
(0.000268505 2.24582e-05 0)
(0.000307333 1.96984e-05 0)
(0.000343068 1.70988e-05 0)
(0.000375901 1.47041e-05 0)
(0.000406047 1.25282e-05 0)
(0.000433722 1.05673e-05 0)
(0.000459138 8.8088e-06 0)
(0.000482493 7.2366e-06 0)
(0.000503973 5.83417e-06 0)
(0.000523749 4.58593e-06 0)
(0.000541979 3.47783e-06 0)
(0.000558807 2.49744e-06 0)
(0.000574367 1.63378e-06 0)
(3.51273e-05 2.2964e-05 0)
(0.000103712 2.23539e-05 0)
(0.000168488 2.10269e-05 0)
(0.000228743 1.92522e-05 0)
(0.000284176 1.72672e-05 0)
(0.0003348 1.52457e-05 0)
(0.000380833 1.32984e-05 0)
(0.000422601 1.14855e-05 0)
(0.000460475 9.83301e-06 0)
(0.000494828 8.34582e-06 0)
(0.000526013 7.01741e-06 0)
(0.000554353 5.83592e-06 0)
(0.00058014 4.78781e-06 0)
(0.000603631 3.85978e-06 0)
(0.000625058 3.03964e-06 0)
(0.000644627 2.31663e-06 0)
(0.00066252 1.68134e-06 0)
(0.000678902 1.12563e-06 0)
(5.43665e-05 8.64856e-06 0)
(0.00016006 8.38959e-06 0)
(0.000258929 7.86117e-06 0)
(0.000349927 7.16927e-06 0)
(0.000432783 6.40538e-06 0)
(0.000507767 5.63525e-06 0)
(0.000575459 4.89957e-06 0)
(0.000636571 4.21971e-06 0)
(0.000691834 3.6041e-06 0)
(0.000741936 3.05341e-06 0)
(0.000787497 2.56423e-06 0)
(0.000829057 2.13139e-06 0)
(0.00086708 1.74925e-06 0)
(0.000901965 1.41241e-06 0)
(0.000934052 1.11601e-06 0)
(0.000963634 8.55784e-07 0)
(0.000990961 6.28065e-07 0)
(0.00101625 4.29686e-07 0)
(0.000108388 -0.000231674 -2.99303e-30)
(0.000326025 -0.000231309 2.98574e-30)
(0.000544975 -0.000230673 0)
(0.000764984 -0.000229762 0)
(0.000985788 -0.000228573 0)
(0.00120711 -0.000227102 -2.92098e-30)
(0.00142868 -0.00022535 0)
(0.0016502 -0.000223316 0)
(0.00187138 -0.000221004 0)
(0.00209193 -0.000218416 0)
(0.00231153 -0.000215561 2.75877e-30)
(0.0025299 -0.000212446 0)
(0.00274673 -0.000209081 0)
(0.00296174 -0.000205481 0)
(0.00317465 -0.000201658 0)
(0.00338517 -0.00019763 2.51434e-30)
(0.00359305 -0.000193413 0)
(0.00379803 -0.000189026 0)
(0.00399989 -0.000184489 0)
(0.0041984 -0.000179823 0)
(0.00439336 -0.000175046 0)
(0.0045846 -0.000170182 0)
(0.00477196 -0.000165249 0)
(0.00495528 -0.000160269 2.01293e-30)
(0.00513445 -0.000155261 -1.94609e-30)
(0.00530937 -0.000150244 1.87918e-30)
(0.00547995 -0.000145235 1.81243e-30)
(0.00564613 -0.000140252 0)
(0.00580787 -0.00013531 0)
(0.00596514 -0.000130423 -1.61526e-30)
(0.00611792 -0.000125603 -1.55116e-30)
(0.00626622 -0.000120862 0)
(0.00641006 -0.000116209 0)
(0.00654946 -0.000111653 -1.36576e-30)
(0.00668446 -0.0001072 0)
(0.00681513 -0.000102857 0)
(0.0069415 -9.86282e-05 1.1928e-30)
(0.00706366 -9.45169e-05 0)
(0.00718167 -9.05257e-05 1.08524e-30)
(0.00729561 -8.66563e-05 2.06777e-30)
(0.00740557 -8.29095e-05 0)
(0.00751163 -7.92856e-05 0)
(0.00761388 -7.5784e-05 0)
(0.00771241 -7.24039e-05 0)
(0.00780732 -6.91439e-05 0)
(0.00789869 -6.60023e-05 1.51964e-30)
(0.00798663 -6.2977e-05 1.43936e-30)
(0.00807122 -6.00657e-05 1.36211e-30)
(0.00815256 -5.72658e-05 0)
(0.00823076 -5.45748e-05 -1.2164e-30)
(0.00830589 -5.19898e-05 0)
(0.00837805 -4.9508e-05 1.08195e-30)
(0.00844733 -4.71264e-05 1.01875e-30)
(0.00851382 -4.48421e-05 0)
(0.00857762 -4.26521e-05 0)
(0.00863879 -4.05534e-05 0)
(0.00869744 -3.85431e-05 7.90978e-31)
(0.00875365 -3.66183e-05 0)
(0.00880748 -3.4776e-05 0)
(0.00885904 -3.30135e-05 0)
(0.00890838 -3.13279e-05 0)
(0.00895559 -2.97166e-05 0)
(0.00900075 -2.81768e-05 0)
(0.00904392 -2.6706e-05 0)
(0.00908518 -2.53016e-05 0)
(0.00912459 -2.39612e-05 -4.03957e-31)
(0.00916223 -2.26823e-05 0)
(0.00919815 -2.14627e-05 0)
(0.00923242 -2.03e-05 3.06773e-31)
(0.00926511 -1.9192e-05 2.77356e-31)
(0.00929627 -1.81366e-05 0)
(0.00932596 -1.71318e-05 -2.22669e-31)
(0.00935424 -1.61755e-05 1.97279e-31)
(0.00938117 -1.52657e-05 0)
(0.00940679 -1.44007e-05 -1.50159e-31)
(0.00943116 -1.35784e-05 0)
(0.00945434 -1.27973e-05 0)
(0.00947636 -1.20554e-05 8.78973e-32)
(0.00949728 -1.13513e-05 0)
(0.00951714 -1.06833e-05 -5.14638e-32)
(0.00953599 -1.00498e-05 0)
(0.00955387 -9.44928e-06 1.86962e-32)
(0.00957082 -8.88038e-06 3.59164e-33)
(0.00958689 -8.34165e-06 -1.07132e-32)
(0.00960211 -7.83175e-06 -4.85034e-32)
(0.00961652 -7.34937e-06 7.41265e-32)
(0.00963015 -6.89326e-06 0)
(0.00964305 -6.46218e-06 0)
(0.00965524 -6.05499e-06 0)
(0.00966676 -5.67055e-06 1.63288e-31)
(0.00967764 -5.30778e-06 1.82559e-31)
(0.0096879 -4.96563e-06 -2.00731e-31)
(0.00969759 -4.6431e-06 0)
(0.00970673 -4.33923e-06 2.34003e-31)
(0.00971534 -4.05308e-06 2.49207e-31)
(0.00972345 -3.78377e-06 2.63513e-31)
(0.00973108 -3.53045e-06 0)
(0.00973827 -3.2923e-06 0)
(0.00974502 -3.06852e-06 0)
(0.00975137 -2.85837e-06 3.12673e-31)
(0.00975734 -2.66114e-06 0)
(0.00976294 -2.47612e-06 0)
(0.0097682 -2.30266e-06 -3.42193e-31)
(0.00977313 -2.14013e-06 0)
(0.00977775 -1.98794e-06 0)
(0.00978208 -1.8455e-06 -3.66486e-31)
(0.00978613 -1.71226e-06 0)
(0.00978992 -1.58771e-06 0)
(0.00979347 -1.47135e-06 3.86366e-31)
(0.00979678 -1.36271e-06 3.92139e-31)
(0.00979988 -1.26133e-06 0)
(0.00980277 -1.16678e-06 -4.02554e-31)
(0.00980547 -1.07867e-06 0)
(0.00980798 -9.96591e-07 4.11596e-31)
(0.00981033 -9.2019e-07 0)
(0.00981251 -8.49114e-07 4.19436e-31)
(0.00981454 -7.83034e-07 4.22944e-31)
(0.00981643 -7.21638e-07 0)
(0.00981818 -6.64629e-07 0)
(0.00981982 -6.11728e-07 0)
(0.00982133 -5.62669e-07 0)
(0.00982273 -5.17202e-07 0)
(0.00982404 -4.75092e-07 0)
(0.00982524 -4.36115e-07 0)
(0.00982636 -4.00061e-07 4.43306e-31)
(0.0098274 -3.66732e-07 -4.45074e-31)
(0.00982835 -3.35941e-07 0)
(0.00982924 -3.07512e-07 0)
(0.00983005 -2.81278e-07 0)
(0.0098308 -2.57085e-07 0)
(0.0098315 -2.34785e-07 -9.04179e-31)
(0.00983214 -2.1424e-07 0)
(0.00983272 -1.95318e-07 9.08378e-31)
(0.00983327 -1.77898e-07 -9.10231e-31)
(0.00983376 -1.61862e-07 0)
(0.00983422 -1.47101e-07 0)
(0.00983464 -1.33509e-07 0)
(0.00983502 -1.20988e-07 9.16285e-31)
(0.00983537 -1.09441e-07 9.17511e-31)
(0.00983569 -9.87763e-08 0)
(0.00983598 -8.8903e-08 9.19689e-31)
(0.00983624 -7.97326e-08 9.20658e-31)
(0.00983648 -7.11757e-08 -9.2157e-31)
(0.00983669 -6.3142e-08 0)
(0.00983688 -5.55375e-08 0)
(0.00983705 -4.82626e-08 -9.23993e-31)
(0.0098372 -4.12097e-08 0)
(0.00983732 -3.42595e-08 0)
(0.00983742 -2.72772e-08 0)
(0.0098375 -2.01072e-08 0)
(0.00983756 -1.25665e-08 9.2773e-31)
(0.00983759 -4.43662e-09 9.28574e-31)
(0.00983759 4.5468e-09 0)
(0.00983755 1.47075e-08 9.30551e-31)
(0.00983748 2.64458e-08 0)
(0.00983736 4.02604e-08 0)
(0.00983719 5.6777e-08 9.34867e-31)
(0.00983695 7.67853e-08 0)
(0.00983662 1.01287e-07 9.39417e-31)
(0.00983619 1.31561e-07 0)
(0.00983563 1.69245e-07 0)
(0.00983491 2.16451e-07 9.5116e-31)
(0.00983397 2.75911e-07 0)
(0.00983277 3.51189e-07 9.64889e-31)
(0.00983123 4.46965e-07 0)
(0.00982924 5.69428e-07 0)
(0.00982669 7.26853e-07 0)
(0.00982339 9.30432e-07 -1.0239e-30)
(0.00981912 1.19553e-06 0)
(0.00981357 1.54363e-06 1.08637e-30)
(0.0098063 2.00547e-06 0)
(0.00979672 2.62628e-06 0)
(0.00978399 3.47521e-06 0)
(0.00976683 4.66304e-06 0)
(0.00974333 6.37877e-06 0)
(0.00971033 8.97328e-06 0)
(0.00966225 1.31795e-05 0)
(0.00958774 2.08156e-05 -6.11544e-30)
(0.00945817 3.77102e-05 0)
(0.009171 9.06847e-05 0)
(0.000108951 -0.000696226 8.99463e-30)
(0.000327719 -0.000695126 -8.97266e-30)
(0.0005478 -0.00069321 0)
(0.000768938 -0.000690465 1.78118e-29)
(0.000990865 -0.00068688 0)
(0.0012133 -0.000682446 -8.80608e-30)
(0.00143597 -0.00067716 -1.74363e-29)
(0.00165856 -0.000671024 -1.72672e-29)
(0.00188078 -0.000664043 0)
(0.00210233 -0.000656232 -1.68639e-29)
(0.00232289 -0.000647609 8.34273e-30)
(0.00254216 -0.000638202 0)
(0.00275983 -0.000628042 0)
(0.00297562 -0.000617168 0)
(0.00318923 -0.000605625 0)
(0.00340038 -0.000593462 7.63017e-30)
(0.00360881 -0.000580732 0)
(0.00381427 -0.000567493 1.44892e-29)
(0.00401651 -0.000553804 0)
(0.00421533 -0.000539726 0)
(0.00441052 -0.000525323 -1.3371e-29)
(0.00460191 -0.000510658 0)
(0.00478933 -0.000495793 1.25898e-29)
(0.00497265 -0.000480789 6.15535e-30)
(0.00515175 -0.000465707 -5.9583e-30)
(0.00532653 -0.000450603 5.76102e-30)
(0.00549692 -0.00043553 5.5642e-30)
(0.00566286 -0.00042054 0)
(0.0058243 -0.000405678 0)
(0.00598123 -0.000390985 -4.98276e-30)
(0.00613365 -0.000376501 -1.42364e-29)
(0.00628155 -0.000362257 0)
(0.00642496 -0.000348283 0)
(0.00656392 -0.000334604 -4.24716e-30)
(0.00669847 -0.000321239 0)
(0.00682866 -0.000308206 0)
(0.00695456 -0.000295519 3.73739e-30)
(0.00707625 -0.000283187 0)
(0.00719378 -0.000271217 1.00916e-29)
(0.00730725 -0.000259615 6.53836e-30)
(0.00741674 -0.000248382 0)
(0.00752234 -0.000237519 0)
(0.00762413 -0.000227024 -1.10168e-29)
(0.00772222 -0.000216894 -1.04839e-29)
(0.0078167 -0.000207125 -9.96989e-30)
(0.00790765 -0.000197711 1.43986e-29)
(0.00799518 -0.000188647 4.68764e-30)
(0.00807938 -0.000179924 -4.07867e-30)
(0.00816035 -0.000171536 8.09756e-30)
(0.00823817 -0.000163475 -4.03122e-30)
(0.00831295 -0.000155731 0)
(0.00838477 -0.000148297 3.63542e-30)
(0.00845372 -0.000141163 9.94895e-30)
(0.0085199 -0.00013432 0)
(0.00858339 -0.00012776 0)
(0.00864428 -0.000121474 0)
(0.00870266 -0.000115453 2.77892e-30)
(0.00875859 -0.000109687 0)
(0.00881218 -0.000104169 4.55321e-30)
(0.00886349 -9.88898e-05 0)
(0.0089126 -9.38411e-05 4.00978e-30)
(0.0089596 -8.90146e-05 0)
(0.00900454 -8.44026e-05 -3.51314e-30)
(0.00904751 -7.9997e-05 0)
(0.00908858 -7.57905e-05 3.05997e-30)
(0.00912781 -7.17755e-05 -4.48855e-30)
(0.00916527 -6.79448e-05 0)
(0.00920103 -6.42916e-05 -2.45488e-30)
(0.00923514 -6.08089e-05 1.35384e-30)
(0.00926768 -5.74901e-05 1.26728e-30)
(0.0092987 -5.43289e-05 0)
(0.00932825 -5.13191e-05 -2.87853e-30)
(0.0093564 -4.84545e-05 1.03162e-30)
(0.0093832 -4.57294e-05 0)
(0.00940871 -4.31381e-05 -8.9296e-31)
(0.00943297 -4.06752e-05 -1.21203e-30)
(0.00945604 -3.83352e-05 0)
(0.00947796 -3.61131e-05 7.09736e-31)
(0.00949879 -3.4004e-05 0)
(0.00951856 -3.20028e-05 1.53071e-31)
(0.00953732 -3.01052e-05 0)
(0.00955512 -2.83064e-05 -5.49336e-32)
(0.009572 -2.66023e-05 4.61664e-31)
(0.00958799 -2.49885e-05 8.05983e-31)
(0.00960314 -2.34611e-05 1.3715e-30)
(0.00961749 -2.20161e-05 -1.14399e-30)
(0.00963106 -2.06498e-05 0)
(0.0096439 -1.93585e-05 0)
(0.00965604 -1.81387e-05 0)
(0.0096675 -1.69871e-05 -4.91247e-31)
(0.00967833 -1.59004e-05 -3.65034e-31)
(0.00968856 -1.48755e-05 3.11565e-31)
(0.0096982 -1.39093e-05 0)
(0.0097073 -1.2999e-05 2.75719e-31)
(0.00971587 -1.21418e-05 -1.68947e-31)
(0.00972394 -1.13351e-05 -1.26859e-31)
(0.00973154 -1.05763e-05 0)
(0.0097387 -9.86283e-06 0)
(0.00974542 -9.19248e-06 0)
(0.00975175 -8.56296e-06 1.77709e-32)
(0.00975769 -7.97211e-06 0)
(0.00976326 -7.41786e-06 1.07703e-30)
(0.0097685 -6.89824e-06 1.02713e-30)
(0.00977341 -6.41136e-06 -1.18303e-30)
(0.00977801 -5.95543e-06 0)
(0.00978232 -5.52872e-06 -1.45205e-30)
(0.00978635 -5.1296e-06 0)
(0.00979013 -4.75649e-06 -1.3573e-30)
(0.00979366 -4.40791e-06 1.62856e-30)
(0.00979696 -4.08244e-06 1.67982e-30)
(0.00980004 -3.77873e-06 0)
(0.00980292 -3.4955e-06 1.20792e-30)
(0.00980561 -3.23153e-06 -1.51789e-30)
(0.00980811 -2.98565e-06 3.0877e-31)
(0.00981044 -2.75677e-06 0)
(0.00981262 -2.54384e-06 3.31826e-31)
(0.00981464 -2.34588e-06 -1.26903e-30)
(0.00981652 -2.16195e-06 0)
(0.00981827 -1.99117e-06 -1.64853e-30)
(0.00981989 -1.83269e-06 -1.66523e-30)
(0.0098214 -1.68571e-06 -1.68071e-30)
(0.0098228 -1.54951e-06 0)
(0.0098241 -1.42335e-06 0)
(0.0098253 -1.30658e-06 0)
(0.00982641 -1.19857e-06 2.13405e-30)
(0.00982744 -1.09872e-06 -4.07233e-31)
(0.00982839 -1.00648e-06 0)
(0.00982927 -9.21305e-07 1.76123e-30)
(0.00983009 -8.42714e-07 1.76952e-30)
(0.00983084 -7.70235e-07 0)
(0.00983153 -7.03426e-07 -8.55725e-31)
(0.00983216 -6.41875e-07 3.58135e-30)
(0.00983275 -5.85189e-07 8.68068e-31)
(0.00983329 -5.33e-07 -4.4778e-30)
(0.00983378 -4.84959e-07 0)
(0.00983424 -4.40737e-07 0)
(0.00983465 -4.00021e-07 0)
(0.00983503 -3.62511e-07 8.91313e-31)
(0.00983538 -3.2792e-07 4.54241e-30)
(0.0098357 -2.95973e-07 3.65421e-30)
(0.00983599 -2.66398e-07 9.01337e-31)
(0.00983625 -2.3893e-07 4.57041e-30)
(0.00983649 -2.13302e-07 -9.06876e-31)
(0.0098367 -1.89243e-07 0)
(0.00983689 -1.66471e-07 0)
(0.00983706 -1.44691e-07 -4.60003e-30)
(0.0098372 -1.23578e-07 0)
(0.00983733 -1.02778e-07 0)
(0.00983743 -8.1887e-08 3.69914e-30)
(0.00983751 -6.04399e-08 0)
(0.00983757 -3.78903e-08 4.6334e-30)
(0.0098376 -1.35857e-08 9.27629e-31)
(0.0098376 1.32635e-08 0)
(0.00983756 4.36241e-08 4.65869e-30)
(0.00983749 7.86911e-08 0)
(0.00983738 1.19953e-07 0)
(0.00983721 1.69279e-07 9.46501e-31)
(0.00983697 2.29025e-07 3.76326e-30)
(0.00983665 3.02183e-07 9.60192e-31)
(0.00983623 3.92567e-07 0)
(0.00983568 5.05065e-07 0)
(0.00983496 6.45975e-07 4.8443e-30)
(0.00983404 8.23453e-07 0)
(0.00983286 1.04813e-06 4.96805e-30)
(0.00983134 1.33394e-06 0)
(0.00982939 1.69934e-06 0)
(0.00982687 2.16897e-06 0)
(0.00982363 2.77613e-06 -1.21476e-30)
(0.00981943 3.56651e-06 0)
(0.00981397 4.60388e-06 1.40283e-30)
(0.00980683 5.97933e-06 0)
(0.00979743 7.82663e-06 0)
(0.00978496 1.03495e-05 5.83647e-30)
(0.00976821 1.38726e-05 -6.55871e-30)
(0.00974535 1.89459e-05 0)
(0.00971349 2.65768e-05 0)
(0.0096677 3.88216e-05 0)
(0.00959889 6.05466e-05 1.79597e-29)
(0.00948955 0.000105864 0)
(0.00931705 0.000227945 -1.01315e-28)
(0.000110086 -0.00116441 6.01854e-29)
(0.000331127 -0.00116256 -7.88012e-33)
(0.000553486 -0.00115934 0)
(0.000776902 -0.00115473 1.84042e-32)
(0.0010011 -0.00114869 0)
(0.00122578 -0.00114123 0)
(0.00145066 -0.00113233 -5.83685e-29)
(0.00167542 -0.00112198 -2.89234e-29)
(0.00189975 -0.00111021 2.85635e-29)
(0.00212333 -0.00109702 -2.8257e-29)
(0.00234582 -0.00108246 0)
(0.00256692 -0.00106657 0)
(0.0027863 -0.00104941 -2.69291e-29)
(0.00300366 -0.00103104 -5.2878e-29)
(0.00321869 -0.00101155 5.18397e-29)
(0.0034311 -0.000991015 0)
(0.00364064 -0.000969531 4.96077e-29)
(0.00384703 -0.000947198 2.43028e-29)
(0.00405005 -0.000924118 0)
(0.00424947 -0.000900396 4.59472e-29)
(0.0044451 -0.00087614 -2.24378e-29)
(0.00463677 -0.000851458 -4.33623e-29)
(0.00482431 -0.000826456 2.11356e-29)
(0.00500761 -0.000801239 0)
(0.00518654 -0.000775908 3.93787e-29)
(0.00536104 -0.000750559 3.80434e-29)
(0.00553102 -0.000725281 0)
(0.00569644 -0.00070016 3.53903e-29)
(0.00585728 -0.000675271 0)
(0.00601352 -0.000650684 3.27876e-29)
(0.00616518 -0.000626461 -1.59025e-29)
(0.00631226 -0.000602656 0)
(0.00645481 -0.000579316 0)
(0.00659287 -0.000556482 0)
(0.00672649 -0.000534185 0)
(0.00685574 -0.000512452 0)
(0.00698069 -0.000491305 0)
(0.00710141 -0.000470759 2.33316e-29)
(0.00721798 -0.000450824 -1.09718e-29)
(0.0073305 -0.000431507 0)
(0.00743905 -0.000412811 0)
(0.00754372 -0.000394735 0)
(0.00764461 -0.000377276 -3.72045e-29)
(0.00774182 -0.000360428 -1.79025e-29)
(0.00783543 -0.000344183 -3.70016e-31)
(0.00792554 -0.000328532 3.74266e-31)
(0.00801226 -0.000313463 -1.50706e-29)
(0.00809567 -0.000298964 -1.46915e-29)
(0.00817588 -0.000285023 2.75404e-29)
(0.00825297 -0.000271626 1.28736e-29)
(0.00832704 -0.000258757 0)
(0.00839818 -0.000246403 1.15491e-29)
(0.00846648 -0.00023455 2.22529e-29)
(0.00853204 -0.00022318 0)
(0.00859493 -0.000212281 0)
(0.00865524 -0.000201837 -9.20861e-30)
(0.00871306 -0.000191832 0)
(0.00876847 -0.000182254 0)
(0.00882155 -0.000173086 2.35125e-29)
(0.00887238 -0.000164315 1.4476e-29)
(0.00892103 -0.000155927 7.21872e-30)
(0.00896758 -0.000147908 0)
(0.00901211 -0.000140245 -6.39942e-30)
(0.00905468 -0.000132926 0)
(0.00909536 -0.000125937 1.60965e-29)
(0.00913423 -0.000119266 -5.30329e-30)