/*--------------------------------*- C++ -*----------------------------------*\
  =========                 |
  \\      /  F ield         | OpenFOAM: The Open Source CFD Toolbox
   \\    /   O peration     | Website:  https://openfoam.org
    \\  /    A nd           | Version:  10
     \\/     M anipulation  |
\*---------------------------------------------------------------------------*/
FoamFile
{
    format      ascii;
    class       volScalarField;
    location    "1000";
    object      p;
}
// * * * * * * * * * * * * * * * * * * * * * * * * * * * * * * * * * * * * * //

dimensions      [1 -1 -2 0 0 0 0];

internalField   nonuniform List<scalar> 
6400
(
103.407
103.407
103.408
103.41
103.412
103.415
103.418
103.422
103.426
103.431
103.436
103.441
103.446
103.452
103.458
103.465
103.471
103.478
103.484
103.491
103.497
103.503
103.509
103.515
103.521
103.526
103.531
103.536
103.54
103.543
103.547
103.549
103.551
103.551
103.552
103.553
103.553
103.554
103.554
103.554
103.554
103.554
103.554
103.553
103.553
103.552
103.551
103.551
103.549
103.547
103.543
103.54
103.536
103.531
103.526
103.521
103.515
103.509
103.503
103.497
103.491
103.484
103.478
103.471
103.465
103.458
103.452
103.446
103.441
103.436
103.431
103.426
103.422
103.418
103.415
103.412
103.41
103.408
103.407
103.407
103.113
103.113
103.114
103.116
103.118
103.121
103.124
103.128
103.132
103.137
103.142
103.147
103.152
103.158
103.164
103.171
103.177
103.184
103.19
103.197
103.203
103.209
103.215
103.221
103.227
103.232
103.237
103.242
103.246
103.249
103.253
103.255
103.257
103.257
103.258
103.259
103.259
103.26
103.26
103.26
103.26
103.26
103.26
103.259
103.259
103.258
103.257
103.257
103.255
103.253
103.249
103.246
103.242
103.237
103.232
103.227
103.221
103.215
103.209
103.203
103.197
103.19
103.184
103.177
103.171
103.164
103.158
103.152
103.147
103.142
103.137
103.132
103.128
103.124
103.121
103.118
103.116
103.114
103.113
103.113
102.79
102.791
102.792
102.794
102.796
102.799
102.802
102.805
102.81
102.814
102.819
102.824
102.83
102.836
102.842
102.848
102.855
102.861
102.868
102.874
102.88
102.887
102.893
102.899
102.904
102.91
102.915
102.919
102.923
102.927
102.93
102.933
102.934
102.935
102.936
102.936
102.937
102.937
102.937
102.937
102.937
102.937
102.937
102.937
102.936
102.936
102.935
102.934
102.933
102.93
102.927
102.923
102.919
102.915
102.91
102.904
102.899
102.893
102.887
102.88
102.874
102.868
102.861
102.855
102.848
102.842
102.836
102.83
102.824
102.819
102.814
102.81
102.805
102.802
102.799
102.796
102.794
102.792
102.791
102.79
102.437
102.437
102.438
102.44
102.442
102.445
102.448
102.452
102.456
102.46
102.465
102.471
102.476
102.482
102.488
102.494
102.501
102.507
102.514
102.52
102.527
102.533
102.539
102.545
102.551
102.556
102.561
102.566
102.57
102.573
102.577
102.579
102.581
102.581
102.582
102.583
102.583
102.584
102.584
102.584
102.584
102.584
102.584
102.583
102.583
102.582
102.581
102.581
102.579
102.577
102.573
102.57
102.566
102.561
102.556
102.551
102.545
102.539
102.533
102.527
102.52
102.514
102.507
102.501
102.494
102.488
102.482
102.476
102.471
102.465
102.46
102.456
102.452
102.448
102.445
102.442
102.44
102.438
102.437
102.437
102.048
102.049
102.05
102.052
102.054
102.057
102.06
102.064
102.068
102.072
102.077
102.083
102.088
102.094
102.1
102.107
102.113
102.119
102.126
102.132
102.139
102.145
102.151
102.157
102.163
102.168
102.173
102.178
102.182
102.186
102.189
102.191
102.193
102.194
102.194
102.195
102.195
102.196
102.196
102.196
102.196
102.196
102.196
102.195
102.195
102.194
102.194
102.193
102.191
102.189
102.186
102.182
102.178
102.173
102.168
102.163
102.157
102.151
102.145
102.139
102.132
102.126
102.119
102.113
102.107
102.1
102.094
102.088
102.083
102.077
102.072
102.068
102.064
102.06
102.057
102.054
102.052
102.05
102.049
102.048
101.623
101.623
101.624
101.626
101.628
101.631
101.634
101.638
101.642
101.647
101.652
101.657
101.663
101.669
101.675
101.681
101.687
101.694
101.701
101.707
101.713
101.72
101.726
101.732
101.738
101.743
101.748
101.753
101.757
101.76
101.763
101.766
101.768
101.768
101.769
101.77
101.77
101.771
101.771
101.771
101.771
101.771
101.771
101.77
101.77
101.769
101.768
101.768
101.766
101.763
101.76
101.757
101.753
101.748
101.743
101.738
101.732
101.726
101.72
101.713
101.707
101.701
101.694
101.687
101.681
101.675
101.669
101.663
101.657
101.652
101.647
101.642
101.638
101.634
101.631
101.628
101.626
101.624
101.623
101.623
101.156
101.156
101.157
101.159
101.161
101.164
101.167
101.171
101.175
101.18
101.185
101.19
101.196
101.202
101.208
101.214
101.221
101.227
101.234
101.24
101.247
101.253
101.259
101.265
101.271
101.276
101.281
101.286
101.29
101.294
101.297
101.3
101.301
101.302
101.303
101.303
101.304
101.304
101.304
101.305
101.305
101.304
101.304
101.304
101.303
101.303
101.302
101.301
101.3
101.297
101.294
101.29
101.286
101.281
101.276
101.271
101.265
101.259
101.253
101.247
101.24
101.234
101.227
101.221
101.214
101.208
101.202
101.196
101.19
101.185
101.18
101.175
101.171
101.167
101.164
101.161
101.159
101.157
101.156
101.156
100.644
100.644
100.645
100.647
100.649
100.652
100.655
100.659
100.663
100.668
100.673
100.678
100.684
100.69
100.696
100.702
100.709
100.715
100.722
100.729
100.735
100.741
100.748
100.754
100.759
100.765
100.77
100.775
100.779
100.782
100.786
100.788
100.79
100.791
100.791
100.792
100.792
100.793
100.793
100.793
100.793
100.793
100.793
100.792
100.792
100.791
100.791
100.79
100.788
100.786
100.782
100.779
100.775
100.77
100.765
100.759
100.754
100.748
100.741
100.735
100.729
100.722
100.715
100.709
100.702
100.696
100.69
100.684
100.678
100.673
100.668
100.663
100.659
100.655
100.652
100.649
100.647
100.645
100.644
100.644
100.082
100.082
100.083
100.085
100.087
100.09
100.093
100.097
100.101
100.106
100.111
100.116
100.122
100.128
100.134
100.141
100.147
100.154
100.161
100.167
100.174
100.18
100.186
100.193
100.198
100.204
100.209
100.213
100.218
100.221
100.225
100.227
100.229
100.23
100.23
100.231
100.231
100.232
100.232
100.232
100.232
100.232
100.232
100.231
100.231
100.23
100.23
100.229
100.227
100.225
100.221
100.218
100.213
100.209
100.204
100.198
100.193
100.186
100.18
100.174
100.167
100.161
100.154
100.147
100.141
100.134
100.128
100.122
100.116
100.111
100.106
100.101
100.097
100.093
100.09
100.087
100.085
100.083
100.082
100.082
99.4651
99.4657
99.4668
99.4685
99.4708
99.4736
99.4769
99.4807
99.4849
99.4896
99.4947
99.5002
99.506
99.512
99.5183
99.5248
99.5314
99.5381
99.5448
99.5515
99.5581
99.5646
99.571
99.5771
99.5829
99.5884
99.5935
99.5982
99.6025
99.6063
99.6095
99.6122
99.6138
99.6146
99.6153
99.6159
99.6164
99.6168
99.617
99.6171
99.6171
99.617
99.6168
99.6164
99.6159
99.6153
99.6146
99.6138
99.6122
99.6095
99.6063
99.6025
99.5982
99.5935
99.5884
99.5829
99.5771
99.571
99.5646
99.5581
99.5515
99.5448
99.5381
99.5314
99.5248
99.5183
99.512
99.506
99.5002
99.4947
99.4896
99.4849
99.4807
99.4769
99.4736
99.4708
99.4685
99.4668
99.4657
99.4651
98.7888
98.7894
98.7905
98.7923
98.7945
98.7974
98.8007
98.8046
98.8089
98.8136
98.8188
98.8243
98.8301
98.8363
98.8426
98.8492
98.8559
98.8626
98.8694
98.8762
98.8829
98.8895
98.8959
98.9021
98.908
98.9135
98.9187
98.9235
98.9278
98.9316
98.9349
98.9377
98.9392
98.9401
98.9408
98.9414
98.9419
98.9423
98.9425
98.9426
98.9426
98.9425
98.9423
98.9419
98.9414
98.9408
98.9401
98.9392
98.9377
98.9349
98.9316
98.9278
98.9235
98.9187
98.9135
98.908
98.9021
98.8959
98.8895
98.8829
98.8762
98.8694
98.8626
98.8559
98.8492
98.8426
98.8363
98.8301
98.8243
98.8188
98.8136
98.8089
98.8046
98.8007
98.7974
98.7945
98.7923
98.7905
98.7894
98.7888
98.0468
98.0474
98.0486
98.0504
98.0527
98.0555
98.0589
98.0628
98.0672
98.072
98.0773
98.0829
98.0888
98.095
98.1015
98.1081
98.1149
98.1217
98.1287
98.1355
98.1424
98.149
98.1555
98.1618
98.1678
98.1735
98.1787
98.1836
98.188
98.1918
98.1952
98.198
98.1996
98.2004
98.2012
98.2018
98.2023
98.2027
98.2029
98.203
98.203
98.2029
98.2027
98.2023
98.2018
98.2012
98.2004
98.1996
98.198
98.1952
98.1918
98.188
98.1836
98.1787
98.1735
98.1678
98.1618
98.1555
98.149
98.1424
98.1355
98.1287
98.1217
98.1149
98.1081
98.1015
98.095
98.0888
98.0829
98.0773
98.072
98.0672
98.0628
98.0589
98.0555
98.0527
98.0504
98.0486
98.0474
98.0468
97.2329
97.2335
97.2347
97.2364
97.2388
97.2417
97.2452
97.2491
97.2536
97.2585
97.2638
97.2695
97.2756
97.2819
97.2885
97.2952
97.3021
97.3091
97.3162
97.3232
97.3301
97.3369
97.3436
97.35
97.3561
97.3618
97.3672
97.3722
97.3766
97.3806
97.384
97.3869
97.3885
97.3894
97.3901
97.3907
97.3912
97.3916
97.3919
97.392
97.392
97.3919
97.3916
97.3912
97.3907
97.3901
97.3894
97.3885
97.3869
97.384
97.3806
97.3766
97.3722
97.3672
97.3618
97.3561
97.35
97.3436
97.3369
97.3301
97.3232
97.3162
97.3091
97.3021
97.2952
97.2885
97.2819
97.2756
97.2695
97.2638
97.2585
97.2536
97.2491
97.2452
97.2417
97.2388
97.2364
97.2347
97.2335
97.2329
96.3398
96.3405
96.3417
96.3435
96.3459
96.3489
96.3524
96.3565
96.361
96.366
96.3715
96.3773
96.3835
96.3899
96.3967
96.4036
96.4106
96.4178
96.425
96.4322
96.4393
96.4463
96.4531
96.4596
96.4659
96.4718
96.4773
96.4824
96.487
96.491
96.4945
96.4974
96.4991
96.5
96.5008
96.5014
96.5019
96.5023
96.5026
96.5027
96.5027
96.5026
96.5023
96.5019
96.5014
96.5008
96.5
96.4991
96.4974
96.4945
96.491
96.487
96.4824
96.4773
96.4718
96.4659
96.4596
96.4531
96.4463
96.4393
96.4322
96.425
96.4178
96.4106
96.4036
96.3967
96.3899
96.3835
96.3773
96.3715
96.366
96.361
96.3565
96.3524
96.3489
96.3459
96.3435
96.3417
96.3405
96.3398
95.3601
95.3607
95.3619
95.3638
95.3663
95.3693
95.373
95.3771
95.3818
95.3869
95.3925
95.3985
95.4049
95.4115
95.4184
95.4255
95.4328
95.4402
95.4476
95.455
95.4623
95.4695
95.4765
95.4832
95.4897
95.4957
95.5014
95.5066
95.5114
95.5156
95.5192
95.5222
95.5239
95.5248
95.5256
95.5263
95.5268
95.5272
95.5275
95.5276
95.5276
95.5275
95.5272
95.5268
95.5263
95.5256
95.5248
95.5239
95.5222
95.5192
95.5156
95.5114
95.5066
95.5014
95.4957
95.4897
95.4832
95.4765
95.4695
95.4623
95.455
95.4476
95.4402
95.4328
95.4255
95.4184
95.4115
95.4049
95.3985
95.3925
95.3869
95.3818
95.3771
95.373
95.3693
95.3663
95.3638
95.3619
95.3607
95.3601
94.285
94.2857
94.287
94.2889
94.2915
94.2946
94.2984
94.3027
94.3075
94.3128
94.3186
94.3248
94.3313
94.3382
94.3453
94.3527
94.3602
94.3679
94.3755
94.3832
94.3908
94.3982
94.4054
94.4124
94.4191
94.4254
94.4313
94.4367
94.4417
94.446
94.4497
94.4529
94.4546
94.4556
94.4564
94.4571
94.4577
94.4581
94.4584
94.4585
94.4585
94.4584
94.4581
94.4577
94.4571
94.4564
94.4556
94.4546
94.4529
94.4497
94.446
94.4417
94.4367
94.4313
94.4254
94.4191
94.4124
94.4054
94.3982
94.3908
94.3832
94.3755
94.3679
94.3602
94.3527
94.3453
94.3382
94.3313
94.3248
94.3186
94.3128
94.3075
94.3027
94.2984
94.2946
94.2915
94.2889
94.287
94.2857
94.285
93.0306
93.0313
93.0326
93.0347
93.0373
93.0406
93.0445
93.049
93.054
93.0596
93.0656
93.072
93.0789
93.0861
93.0935
93.1012
93.1091
93.117
93.125
93.133
93.141
93.1488
93.1564
93.1637
93.1707
93.1773
93.1835
93.1892
93.1943
93.1989
93.2028
93.2061
93.2079
93.2089
93.2098
93.2105
93.2111
93.2116
93.2119
93.212
93.212
93.2119
93.2116
93.2111
93.2105
93.2098
93.2089
93.2079
93.2061
93.2028
93.1989
93.1943
93.1892
93.1835
93.1773
93.1707
93.1637
93.1564
93.1488
93.141
93.133
93.125
93.117
93.1091
93.1012
93.0935
93.0861
93.0789
93.072
93.0656
93.0596
93.054
93.049
93.0445
93.0406
93.0373
93.0347
93.0326
93.0313
93.0306
91.6462
91.6469
91.6483
91.6504
91.6532
91.6567
91.6608
91.6655
91.6708
91.6766
91.683
91.6898
91.697
91.7045
91.7124
91.7205
91.7288
91.7372
91.7457
91.7541
91.7625
91.7707
91.7788
91.7865
91.7939
91.8009
91.8075
91.8135
91.8189
91.8238
91.8279
91.8314
91.8334
91.8345
91.8354
91.8362
91.8368
91.8372
91.8376
91.8377
91.8377
91.8376
91.8372
91.8368
91.8362
91.8354
91.8345
91.8334
91.8314
91.8279
91.8238
91.8189
91.8135
91.8075
91.8009
91.7939
91.7865
91.7788
91.7707
91.7625
91.7541
91.7457
91.7372
91.7288
91.7205
91.7124
91.7045
91.697
91.6898
91.683
91.6766
91.6708
91.6655
91.6608
91.6567
91.6532
91.6504
91.6483
91.6469
91.6462
90.2611
90.2618
90.2633
90.2655
90.2685
90.2721
90.2765
90.2815
90.287
90.2932
90.2999
90.3071
90.3147
90.3227
90.331
90.3396
90.3484
90.3573
90.3663
90.3753
90.3842
90.3929
90.4014
90.4097
90.4175
90.425
90.432
90.4384
90.4442
90.4493
90.4538
90.4575
90.4596
90.4607
90.4617
90.4626
90.4632
90.4637
90.464
90.4642
90.4642
90.464
90.4637
90.4632
90.4626
90.4617
90.4607
90.4596
90.4575
90.4538
90.4493
90.4442
90.4384
90.432
90.425
90.4175
90.4097
90.4014
90.3929
90.3842
90.3753
90.3663
90.3573
90.3484
90.3396
90.331
90.3227
90.3147
90.3071
90.2999
90.2932
90.287
90.2815
90.2765
90.2721
90.2685
90.2655
90.2633
90.2618
90.2611
88.8752
88.876
88.8776
88.8799
88.8831
88.8869
88.8915
88.8968
88.9027
88.9092
88.9163
88.924
88.9321
88.9406
88.9494
88.9585
88.9679
88.9774
88.9869
88.9965
89.006
89.0153
89.0244
89.0332
89.0416
89.0496
89.057
89.0639
89.0701
89.0756
89.0804
89.0843
89.0866
89.0878
89.0889
89.0898
89.0905
89.091
89.0914
89.0915
89.0915
89.0914
89.091
89.0905
89.0898
89.0889
89.0878
89.0866
89.0843
89.0804
89.0756
89.0701
89.0639
89.057
89.0496
89.0416
89.0332
89.0244
89.0153
89.006
88.9965
88.9869
88.9774
88.9679
88.9585
88.9494
88.9406
88.9321
88.924
88.9163
88.9092
88.9027
88.8968
88.8915
88.8869
88.8831
88.8799
88.8776
88.876
88.8752
87.4885
87.4894
87.491
87.4936
87.4969
87.501
87.5059
87.5115
87.5178
87.5247
87.5323
87.5404
87.549
87.5581
87.5675
87.5772
87.5872
87.5973
87.6076
87.6178
87.6279
87.6379
87.6477
87.6571
87.6661
87.6747
87.6827
87.69
87.6967
87.7026
87.7078
87.712
87.7145
87.7158
87.7169
87.7179
87.7186
87.7192
87.7196
87.7198
87.7198
87.7196
87.7192
87.7186
87.7179
87.7169
87.7158
87.7145
87.712
87.7078
87.7026
87.6967
87.69
87.6827
87.6747
87.6661
87.6571
87.6477
87.6379
87.6279
87.6178
87.6076
87.5973
87.5872
87.5772
87.5675
87.5581
87.549
87.5404
87.5323
87.5247
87.5178
87.5115
87.5059
87.501
87.4969
87.4936
87.491
87.4894
87.4885
86.101
86.1019
86.1037
86.1064
86.1099
86.1143
86.1195
86.1254
86.1322
86.1396
86.1476
86.1563
86.1655
86.1752
86.1853
86.1957
86.2064
86.2172
86.2282
86.2391
86.25
86.2608
86.2712
86.2814
86.2911
86.3003
86.3089
86.3169
86.3241
86.3305
86.336
86.3406
86.3432
86.3447
86.3459
86.3469
86.3477
86.3484
86.3488
86.349
86.349
86.3488
86.3484
86.3477
86.3469
86.3459
86.3447
86.3432
86.3406
86.336
86.3305
86.3241
86.3169
86.3089
86.3003
86.2911
86.2814
86.2712
86.2608
86.25
86.2391
86.2282
86.2172
86.2064
86.1957
86.1853
86.1752
86.1655
86.1563
86.1476
86.1396
86.1322
86.1254
86.1195
86.1143
86.1099
86.1064
86.1037
86.1019
86.101
84.7126
84.7135
84.7155
84.7183
84.7221
84.7268
84.7323
84.7387
84.7459
84.7538
84.7624
84.7717
84.7815
84.7919
84.8027
84.8139
84.8254
84.837
84.8488
84.8606
84.8723
84.8839
84.8952
84.9061
84.9166
84.9266
84.9359
84.9445
84.9523
84.9592
84.9652
84.9702
84.973
84.9746
84.9759
84.977
84.9779
84.9786
84.979
84.9792
84.9792
84.979
84.9786
84.9779
84.977
84.9759
84.9746
84.973
84.9702
84.9652
84.9592
84.9523
84.9445
84.9359
84.9266
84.9166
84.9061
84.8952
84.8839
84.8723
84.8606
84.8488
84.837
84.8254
84.8139
84.8027
84.7919
84.7815
84.7717
84.7624
84.7538
84.7459
84.7387
84.7323
84.7268
84.7221
84.7183
84.7155
84.7135
84.7126
83.3232
83.3242
83.3263
83.3293
83.3334
83.3384
83.3443
83.3511
83.3588
83.3673
83.3765
83.3865
83.3971
83.4082
83.4198
83.4318
83.4442
83.4567
83.4694
83.4821
83.4948
83.5073
83.5195
83.5313
83.5426
83.5534
83.5635
83.5728
83.5813
83.5888
83.5953
83.6007
83.6038
83.6055
83.607
83.6082
83.6091
83.6099
83.6104
83.6106
83.6106
83.6104
83.6099
83.6091
83.6082
83.607
83.6055
83.6038
83.6007
83.5953
83.5888
83.5813
83.5728
83.5635
83.5534
83.5426
83.5313
83.5195
83.5073
83.4948
83.4821
83.4694
83.4567
83.4442
83.4318
83.4198
83.4082
83.3971
83.3865
83.3765
83.3673
83.3588
83.3511
83.3443
83.3384
83.3334
83.3293
83.3263
83.3242
83.3232
81.9328
81.9339
81.9361
81.9394
81.9437
81.949
81.9554
81.9627
81.9709
81.9801
81.99
82.0007
82.012
82.024
82.0365
82.0494
82.0627
82.0763
82.09
82.1037
82.1174
82.1309
82.1441
82.157
82.1693
82.181
82.1919
82.2021
82.2113
82.2195
82.2266
82.2325
82.2359
82.2377
82.2393
82.2406
82.2416
82.2424
82.243
82.2432
82.2432
82.243
82.2424
82.2416
82.2406
82.2393
82.2377
82.2359
82.2325
82.2266
82.2195
82.2113
82.2021
82.1919
82.181
82.1693
82.157
82.1441
82.1309
82.1174
82.1037
82.09
82.0763
82.0627
82.0494
82.0365
82.024
82.012
82.0007
81.99
81.9801
81.9709
81.9627
81.9554
81.949
81.9437
81.9394
81.9361
81.9339
81.9328
80.5413
80.5425
80.5448
80.5483
80.553
80.5587
80.5655
80.5734
80.5822
80.592
80.6027
80.6141
80.6264
80.6393
80.6527
80.6667
80.681
80.6957
80.7105
80.7253
80.7402
80.7548
80.7692
80.7831
80.7965
80.8092
80.8212
80.8322
80.8423
80.8512
80.859
80.8654
80.8691
80.8711
80.8728
80.8743
80.8754
80.8763
80.8769
80.8772
80.8772
80.8769
80.8763
80.8754
80.8743
80.8728
80.8711
80.8691
80.8654
80.859
80.8512
80.8423
80.8322
80.8212
80.8092
80.7965
80.7831
80.7692
80.7548
80.7402
80.7253
80.7105
80.6957
80.681
80.6667
80.6527
80.6393
80.6264
80.6141
80.6027
80.592
80.5822
80.5734
80.5655
80.5587
80.553
80.5483
80.5448
80.5425
80.5413
79.1487
79.1499
79.1524
79.1562
79.1611
79.1673
79.1746
79.183
79.1925
79.2031
79.2145
79.2269
79.2401
79.2539
79.2685
79.2835
79.2991
79.3149
79.3309
79.347
79.3631
79.3791
79.3947
79.4098
79.4244
79.4383
79.4513
79.4634
79.4744
79.4842
79.4927
79.4997
79.5038
79.506
79.5079
79.5094
79.5107
79.5117
79.5123
79.5126
79.5126
79.5123
79.5117
79.5107
79.5094
79.5079
79.506
79.5038
79.4997
79.4927
79.4842
79.4744
79.4634
79.4513
79.4383
79.4244
79.4098
79.3947
79.3791
79.3631
79.347
79.3309
79.3149
79.2991
79.2835
79.2685
79.2539
79.2401
79.2269
79.2145
79.2031
79.1925
79.183
79.1746
79.1673
79.1611
79.1562
79.1524
79.1499
79.1487
77.7547
77.7561
77.7588
77.7628
77.7681
77.7747
77.7826
77.7916
77.8019
77.8132
77.8255
77.8388
77.853
77.868
77.8837
77.9
77.9168
77.9339
77.9513
77.9688
77.9863
78.0036
78.0206
78.0371
78.053
78.0682
78.0825
78.0957
78.1077
78.1184
78.1277
78.1355
78.1399
78.1424
78.1444
78.1462
78.1476
78.1486
78.1493
78.1497
78.1497
78.1493
78.1486
78.1476
78.1462
78.1444
78.1424
78.1399
78.1355
78.1277
78.1184
78.1077
78.0957
78.0825
78.0682
78.053
78.0371
78.0206
78.0036
77.9863
77.9688
77.9513
77.9339
77.9168
77.9
77.8837
77.868
77.853
77.8388
77.8255
77.8132
77.8019
77.7916
77.7826
77.7747
77.7681
77.7628
77.7588
77.7561
77.7547
76.3595
76.3609
76.3638
76.3681
76.3738
76.3809
76.3894
76.3991
76.4101
76.4222
76.4355
76.4499
76.4652
76.4813
76.4983
76.5159
76.5341
76.5527
76.5715
76.5906
76.6096
76.6284
76.647
76.665
76.6824
76.699
76.7146
76.7291
76.7423
76.7541
76.7643
76.7729
76.7778
76.7804
76.7827
76.7846
76.7862
76.7873
76.7881
76.7885
76.7885
76.7881
76.7873
76.7862
76.7846
76.7827
76.7804
76.7778
76.7729
76.7643
76.7541
76.7423
76.7291
76.7146
76.699
76.6824
76.665
76.647
76.6284
76.6096
76.5906
76.5715
76.5527
76.5341
76.5159
76.4983
76.4813
76.4652
76.4499
76.4355
76.4222
76.4101
76.3991
76.3894
76.3809
76.3738
76.3681
76.3638
76.3609
76.3595
74.9628
74.9643
74.9674
74.972
74.9782
74.9858
74.9948
75.0053
75.0171
75.0302
75.0445
75.0599
75.0765
75.0939
75.1122
75.1313
75.151
75.1711
75.1916
75.2123
75.233
75.2536
75.2738
75.2936
75.3126
75.3308
75.3479
75.3639
75.3784
75.3914
75.4026
75.412
75.4174
75.4204
75.4229
75.425
75.4267
75.428
75.4288
75.4293
75.4293
75.4288
75.428
75.4267
75.425
75.4229
75.4204
75.4174
75.412
75.4026
75.3914
75.3784
75.3639
75.3479
75.3308
75.3126
75.2936
75.2738
75.2536
75.233
75.2123
75.1916
75.1711
75.151
75.1313
75.1122
75.0939
75.0765
75.0599
75.0445
75.0302
75.0171
75.0053
74.9948
74.9858
74.9782
74.972
74.9674
74.9643
74.9628
73.5645
73.5662
73.5695
73.5744
73.581
73.5892
73.5989
73.6101
73.6228
73.6369
73.6523
73.669
73.6868
73.7056
73.7255
73.7461
73.7674
73.7893
73.8116
73.8341
73.8566
73.8791
73.9012
73.9228
73.9437
73.9636
73.9825
74
74.016
74.0303
74.0427
74.0531
74.0591
74.0624
74.0651
74.0675
74.0694
74.0708
74.0717
74.0722
74.0722
74.0717
74.0708
74.0694
74.0675
74.0651
74.0624
74.0591
74.0531
74.0427
74.0303
74.016
74
73.9825
73.9636
73.9437
73.9228
73.9012
73.8791
73.8566
73.8341
73.8116
73.7893
73.7674
73.7461
73.7255
73.7056
73.6868
73.669
73.6523
73.6369
73.6228
73.6101
73.5989
73.5892
73.581
73.5744
73.5695
73.5662
73.5645
72.1646
72.1663
72.1699
72.1752
72.1823
72.191
72.2015
72.2135
72.2272
72.2423
72.2589
72.2768
72.2961
72.3164
72.3378
72.3602
72.3833
72.407
72.4313
72.4558
72.4804
72.5049
72.5291
72.5527
72.5756
72.5976
72.6183
72.6376
72.6553
72.6711
72.6849
72.6964
72.703
72.7066
72.7097
72.7123
72.7144
72.7159
72.717
72.7175
72.7175
72.717
72.7159
72.7144
72.7123
72.7097
72.7066
72.703
72.6964
72.6849
72.6711
72.6553
72.6376
72.6183
72.5976
72.5756
72.5527
72.5291
72.5049
72.4804
72.4558
72.4313
72.407
72.3833
72.3602
72.3378
72.3164
72.2961
72.2768
72.2589
72.2423
72.2272
72.2135
72.2015
72.191
72.1823
72.1752
72.1699
72.1663
72.1646
70.7629
70.7648
70.7686
70.7743
70.7818
70.7912
70.8024
70.8154
70.83
70.8463
70.8641
70.8835
70.9042
70.9262
70.9493
70.9735
70.9985
71.0243
71.0507
71.0773
71.1042
71.131
71.1575
71.1834
71.2086
71.2328
71.2556
71.2769
71.2965
71.314
71.3292
71.342
71.3494
71.3534
71.3568
71.3597
71.362
71.3637
71.3649
71.3655
71.3655
71.3649
71.3637
71.362
71.3597
71.3568
71.3534
71.3494
71.342
71.3292
71.314
71.2965
71.2769
71.2556
71.2328
71.2086
71.1834
71.1575
71.131
71.1042
71.0773
71.0507
71.0243
70.9985
70.9735
70.9493
70.9262
70.9042
70.8835
70.8641
70.8463
70.83
70.8154
70.8024
70.7912
70.7818
70.7743
70.7686
70.7648
70.7629
69.3592
69.3613
69.3654
69.3714
69.3795
69.3896
69.4016
69.4155
69.4312
69.4487
69.4679
69.4887
69.511
69.5347
69.5597
69.5859
69.6131
69.6411
69.6697
69.6988
69.7281
69.7574
69.7864
69.8149
69.8426
69.8692
69.8944
69.918
69.9397
69.9591
69.976
69.9903
69.9984
70.0029
70.0067
70.0099
70.0125
70.0144
70.0157
70.0164
70.0164
70.0157
70.0144
70.0125
70.0099
70.0067
70.0029
69.9984
69.9903
69.976
69.9591
69.9397
69.918
69.8944
69.8692
69.8426
69.8149
69.7864
69.7574
69.7281
69.6988
69.6697
69.6411
69.6131
69.5859
69.5597
69.5347
69.511
69.4887
69.4679
69.4487
69.4312
69.4155
69.4016
69.3896
69.3795
69.3714
69.3654
69.3613
69.3592
67.9536
67.9558
67.9601
67.9666
67.9753
67.986
67.9989
68.0138
68.0306
68.0494
68.07
68.0924
68.1164
68.142
68.169
68.1973
68.2268
68.2572
68.2883
68.32
68.352
68.384
68.4158
68.4472
68.4777
68.507
68.5349
68.5611
68.5851
68.6067
68.6255
68.6414
68.6505
68.6555
68.6598
68.6634
68.6663
68.6684
68.6699
68.6706
68.6706
68.6699
68.6684
68.6663
68.6634
68.6598
68.6555
68.6505
68.6414
68.6255
68.6067
68.5851
68.5611
68.5349
68.507
68.4777
68.4472
68.4158
68.384
68.352
68.32
68.2883
68.2572
68.2268
68.1973
68.169
68.142
68.1164
68.0924
68.07
68.0494
68.0306
68.0138
67.9989
67.986
67.9753
67.9666
67.9601
67.9558
67.9536
66.5457
66.5481
66.5527
66.5597
66.5689
66.5804
66.5942
66.6101
66.6281
66.6482
66.6704
66.6944
66.7203
66.7479
66.777
66.8076
66.8395
66.8725
66.9064
66.9409
66.9758
67.0109
67.0458
67.0802
67.1139
67.1463
67.1772
67.2062
67.2329
67.257
67.278
67.2958
67.306
67.3116
67.3164
67.3204
67.3236
67.326
67.3277
67.3285
67.3285
67.3277
67.326
67.3236
67.3204
67.3164
67.3116
67.306
67.2958
67.278
67.257
67.2329
67.2062
67.1772
67.1463
67.1139
67.0802
67.0458
67.0109
66.9758
66.9409
66.9064
66.8725
66.8395
66.8076
66.777
66.7479
66.7203
66.6944
66.6704
66.6482
66.6281
66.6101
66.5942
66.5804
66.5689
66.5597
66.5527
66.5481
66.5457
65.1356
65.1381
65.143
65.1504
65.1603
65.1726
65.1872
65.2042
65.2236
65.2451
65.2688
65.2946
65.3224
65.3521
65.3836
65.4167
65.4512
65.4869
65.5238
65.5614
65.5995
65.6379
65.6762
65.7141
65.7512
65.7871
65.8214
65.8536
65.8834
65.9103
65.9338
65.9537
65.9652
65.9715
65.9768
65.9814
65.985
65.9877
65.9896
65.9905
65.9905
65.9896
65.9877
65.985
65.9814
65.9768
65.9715
65.9652
65.9537
65.9338
65.9103
65.8834
65.8536
65.8214
65.7871
65.7512
65.7141
65.6762
65.6379
65.5995
65.5614
65.5238
65.4869
65.4512
65.4167
65.3836
65.3521
65.3224
65.2946
65.2688
65.2451
65.2236
65.2042
65.1872
65.1726
65.1603
65.1504
65.143
65.1381
65.1356
63.7229
63.7256
63.7308
63.7387
63.7492
63.7623
63.778
63.7961
63.8167
63.8398
63.8652
63.8929
63.9227
63.9547
63.9885
64.0242
64.0616
64.1003
64.1403
64.1813
64.223
64.265
64.3071
64.3488
64.3898
64.4296
64.4676
64.5035
64.5368
64.5669
64.5933
64.6157
64.6286
64.6357
64.6417
64.6468
64.6509
64.654
64.6561
64.6571
64.6571
64.6561
64.654
64.6509
64.6468
64.6417
64.6357
64.6286
64.6157
64.5933
64.5669
64.5368
64.5035
64.4676
64.4296
64.3898
64.3488
64.3071
64.265
64.223
64.1813
64.1403
64.1003
64.0616
64.0242
63.9885
63.9547
63.9227
63.8929
63.8652
63.8398
63.8167
63.7961
63.778
63.7623
63.7492
63.7387
63.7308
63.7256
63.7229
62.3077
62.3105
62.3161
62.3244
62.3356
62.3495
62.3662
62.3855
62.4075
62.4321
62.4593
62.4889
62.5209
62.5552
62.5917
62.6302
62.6705
62.7125
62.756
62.8006
62.8461
62.8921
62.9383
62.9843
63.0296
63.0737
63.116
63.1561
63.1933
63.2271
63.2569
63.2821
63.2967
63.3047
63.3116
63.3174
63.322
63.3255
63.3279
63.329
63.329
63.3279
63.3255
63.322
63.3174
63.3116
63.3047
63.2967
63.2821
63.2569
63.2271
63.1933
63.1561
63.116
63.0737
63.0296
62.9843
62.9383
62.8921
62.8461
62.8006
62.756
62.7125
62.6705
62.6302
62.5917
62.5552
62.5209
62.4889
62.4593
62.4321
62.4075
62.3855
62.3662
62.3495
62.3356
62.3244
62.3161
62.3105
62.3077
60.8896
60.8925
60.8985
60.9074
60.9192
60.934
60.9517
60.9723
60.9957
61.0219
61.0509
61.0826
61.1168
61.1536
61.1928
61.2343
61.2778
61.3233
61.3704
61.4189
61.4686
61.519
61.5698
61.6205
61.6706
61.7195
61.7667
61.8115
61.8533
61.8913
61.925
61.9535
61.9701
61.9792
61.987
61.9936
61.9989
62.0029
62.0055
62.0069
62.0069
62.0055
62.0029
61.9989
61.9936
61.987
61.9792
61.9701
61.9535
61.925
61.8913
61.8533
61.8115
61.7667
61.7195
61.6706
61.6205
61.5698
61.519
61.4686
61.4189
61.3704
61.3233
61.2778
61.2343
61.1928
61.1536
61.1168
61.0826
61.0509
61.0219
60.9957
60.9723
60.9517
60.934
60.9192
60.9074
60.8985
60.8925
60.8896
59.4685
59.4717
59.4779
59.4874
59.4999
59.5156
59.5343
59.5562
59.581
59.6089
59.6398
59.6736
59.7102
59.7496
59.7917
59.8362
59.8832
59.9323
59.9834
60.0362
60.0904
60.1456
60.2013
60.2572
60.3127
60.3671
60.4198
60.47
60.517
60.5599
60.598
60.6305
60.6494
60.6598
60.6687
60.6762
60.6823
60.6868
60.6899
60.6914
60.6914
60.6899
60.6868
60.6823
60.6762
60.6687
60.6598
60.6494
60.6305
60.598
60.5599
60.517
60.47
60.4198
60.3671
60.3127
60.2572
60.2013
60.1456
60.0904
60.0362
59.9834
59.9323
59.8832
59.8362
59.7917
59.7496
59.7102
59.6736
59.6398
59.6089
59.581
59.5562
59.5343
59.5156
59.4999
59.4874
59.4779
59.4717
59.4685
58.0444
58.0477
58.0543
58.0643
58.0775
58.0941
58.1139
58.137
58.1634
58.193
58.2258
58.2618
58.3009
58.343
58.388
58.4359
58.4864
58.5394
58.5948
58.6521
58.7111
58.7715
58.8328
58.8944
58.9559
59.0164
59.0753
59.1317
59.1847
59.2333
59.2767
59.3138
59.3355
59.3473
59.3576
59.3662
59.3732
59.3784
59.382
59.3837
59.3837
59.382
59.3784
59.3732
59.3662
59.3576
59.3473
59.3355
59.3138
59.2767
59.2333
59.1847
59.1317
59.0753
59.0164
58.9559
58.8944
58.8328
58.7715
58.7111
58.6521
58.5948
58.5394
58.4864
58.4359
58.388
58.343
58.3009
58.2618
58.2258
58.193
58.1634
58.137
58.1139
58.0941
58.0775
58.0643
58.0543
58.0477
58.0444
56.6169
56.6204
56.6274
56.6378
56.6518
56.6693
56.6902
56.7147
56.7426
56.7739
56.8087
56.8469
56.8885
56.9334
56.9816
57.0328
57.0871
57.1443
57.2041
57.2663
57.3306
57.3966
57.4638
57.5318
57.5999
57.6673
57.7333
57.7967
57.8567
57.912
57.9616
58.0042
58.0292
58.0428
58.0547
58.0647
58.0727
58.0788
58.0829
58.085
58.085
58.0829
58.0788
58.0727
58.0647
58.0547
58.0428
58.0292
58.0042
57.9616
57.912
57.8567
57.7967
57.7333
57.6673
57.5999
57.5318
57.4638
57.3966
57.3306
57.2663
57.2041
57.1443
57.0871
57.0328
56.9816
56.9334
56.8885
56.8469
56.8087
56.7739
56.7426
56.7147
56.6902
56.6693
56.6518
56.6378
56.6274
56.6204
56.6169
55.1859
55.1896
55.1969
55.2079
55.2226
55.241
55.2631
55.2888
55.3182
55.3514
55.3882
55.4287
55.4729
55.5206
55.572
55.6268
55.685
55.7464
55.811
55.8783
55.9483
56.0203
56.0942
56.1691
56.2446
56.3198
56.3937
56.4653
56.5334
56.5965
56.6534
56.7026
56.7316
56.7475
56.7612
56.7729
56.7823
56.7894
56.7942
56.7966
56.7966
56.7942
56.7894
56.7823
56.7729
56.7612
56.7475
56.7316
56.7026
56.6534
56.5965
56.5334
56.4653
56.3937
56.3198
56.2446
56.1691
56.0942
56.0203
55.9483
55.8783
55.811
55.7464
55.685
55.6268
55.572
55.5206
55.4729
55.4287
55.3882
55.3514
55.3182
55.2888
55.2631
55.241
55.2226
55.2079
55.1969
55.1896
55.1859
53.7513
53.7551
53.7628
53.7744
53.7898
53.809
53.8322
53.8593
53.8902
53.9251
53.964
54.0068
54.0536
54.1043
54.1589
54.2173
54.2796
54.3456
54.415
54.4879
54.5638
54.6424
54.7233
54.806
54.8896
54.9735
55.0565
55.1374
55.2149
55.2873
55.353
55.4101
55.444
55.4625
55.4787
55.4924
55.5035
55.5118
55.5175
55.5203
55.5203
55.5175
55.5118
55.5035
55.4924
55.4787
55.4625
55.444
55.4101
55.353
55.2873
55.2149
55.1374
55.0565
54.9735
54.8896
54.806
54.7233
54.6424
54.5638
54.4879
54.415
54.3456
54.2796
54.2173
54.1589
54.1043
54.0536
54.0068
53.964
53.9251
53.8902
53.8593
53.8322
53.809
53.7898
53.7744
53.7628
53.7551
53.7513
52.3128
52.3168
52.3249
52.3369
52.353
52.3732
52.3974
52.4258
52.4583
52.495
52.5359
52.581
52.6303
52.684
52.7419
52.8041
52.8705
52.9411
53.0158
53.0943
53.1766
53.2622
53.3508
53.4418
53.5345
53.628
53.7213
53.813
53.9015
53.9848
54.0611
54.1279
54.1678
54.1897
54.2089
54.2251
54.2382
54.2482
54.2549
54.2583
54.2583
54.2549
54.2482
54.2382
54.2251
54.2089
54.1897
54.1678
54.1279
54.0611
53.9848
53.9015
53.813
53.7213
53.628
53.5345
53.4418
53.3508
53.2622
53.1766
53.0943
53.0158
52.9411
52.8705
52.8041
52.7419
52.684
52.6303
52.581
52.5359
52.495
52.4583
52.4258
52.3974
52.3732
52.353
52.3369
52.3249
52.3168
52.3128
50.8703
50.8745
50.8829
50.8954
50.9122
50.9332
50.9585
50.9882
51.0222
51.0606
51.1035
51.1509
51.2028
51.2594
51.3207
51.3866
51.4573
51.5326
51.6126
51.6971
51.786
51.879
51.9758
52.0758
52.1785
52.2829
52.3878
52.4918
52.5931
52.6895
52.7785
52.8573
52.9047
52.9309
52.9538
52.9733
52.9892
53.0012
53.0093