/*--------------------------------*- C++ -*----------------------------------*\
  =========                 |
  \\      /  F ield         | OpenFOAM: The Open Source CFD Toolbox
   \\    /   O peration     | Website:  https://openfoam.org
    \\  /    A nd           | Version:  11
     \\/     M anipulation  |
\*---------------------------------------------------------------------------*/
FoamFile
{
    format      ascii;
    class       volScalarField;
    location    "4";
    object      p;
}
// * * * * * * * * * * * * * * * * * * * * * * * * * * * * * * * * * * * * * //

dimensions      [0 2 -2 0 0 0 0];

internalField   nonuniform List<scalar> 
2048
(
0.250273
0.247944
0.24325
0.235982
0.225983
0.213102
0.197152
0.177924
0.155225
0.128916
0.0989612
0.0654656
0.0287191
-0.010774
-0.0522842
-0.0948768
-0.137467
-0.178908
-0.218095
-0.254054
-0.285984
-0.313241
-0.335299
-0.351725
-0.362185
-0.366455
-0.364601
-0.356862
-0.343717
-0.325909
-0.304412
-0.280332
-0.254794
-0.228841
-0.203353
-0.179013
-0.156295
-0.135487
-0.116718
-0.100002
-0.0852713
-0.0724051
-0.0612521
-0.0516471
-0.0434217
-0.036412
-0.0304633
-0.0254333
-0.0211931
-0.0176278
-0.0146359
-0.0121288
-0.0100296
-0.00827213
-0.00679944
-0.00556335
-0.00452152
-0.00363996
-0.00288544
-0.00223687
-0.00166179
-0.00115795
-0.000674762
-0.000257509
0.252675
0.250374
0.245732
0.238534
0.228614
0.215801
0.199883
0.180627
0.157806
0.131256
0.100912
0.0668641
0.0293987
-0.0109575
-0.0534234
-0.09699
-0.140489
-0.182705
-0.222505
-0.258932
-0.291225
-0.318778
-0.341087
-0.35772
-0.368322
-0.37261
-0.370633
-0.362595
-0.348964
-0.330498
-0.308214
-0.28328
-0.256882
-0.230115
-0.203904
-0.178963
-0.155779
-0.134635
-0.115648
-0.0988106
-0.0840353
-0.0711818
-0.0600819
-0.0505561
-0.0424248
-0.0355156
-0.0296678
-0.024735
-0.0205858
-0.0171038
-0.0141869
-0.0117465
-0.00970605
-0.00799997
-0.00657195
-0.00537455
-0.00436625
-0.00351376
-0.0027846
-0.00215828
-0.0016031
-0.00111714
-0.000650748
-0.000248893
0.257457
0.255215
0.250684
0.243642
0.233897
0.22124
0.205413
0.18612
0.163075
0.136047
0.104919
0.0697427
0.0307992
-0.0113424
-0.0557976
-0.101395
-0.146776
-0.190567
-0.231583
-0.268922
-0.301924
-0.330069
-0.352892
-0.369955
-0.380863
-0.385228
-0.38303
-0.374399
-0.359772
-0.339949
-0.316038
-0.289327
-0.261135
-0.232681
-0.204985
-0.178818
-0.154689
-0.13287
-0.113448
-0.096376
-0.0815227
-0.0687063
-0.0577229
-0.0483638
-0.0404268
-0.033723
-0.02808
-0.0233435
-0.0193774
-0.0160626
-0.0132959
-0.0109888
-0.0090655
-0.00746164
-0.00612235
-0.00500172
-0.00405982
-0.00326481
-0.0025858
-0.00200333
-0.00148753
-0.00103653
-0.00060377
-0.000231405
0.264553
0.262408
0.258066
0.251291
0.241854
0.229489
0.213861
0.194582
0.171254
0.143534
0.111207
0.0742628
0.0329781
-0.0120052
-0.0596393
-0.108481
-0.156821
-0.203015
-0.245817
-0.284455
-0.318471
-0.347496
-0.371137
-0.38894
-0.400412
-0.404969
-0.402502
-0.392983
-0.376789
-0.354807
-0.328313
-0.298779
-0.267726
-0.236578
-0.206532
-0.178457
-0.152884
-0.130055
-0.11
-0.0926023
-0.0776598
-0.0649263
-0.0541419
-0.0450533
-0.037424
-0.0310403
-0.0257126
-0.0212757
-0.0175867
-0.0145233
-0.0119815
-0.00987303
-0.00812372
-0.00667121
-0.00546297
-0.00445548
-0.00361129
-0.00290067
-0.00229522
-0.00177694
-0.00131877
-0.000918852
-0.00053526
-0.000205763
0.273853
0.271859
0.267811
0.261454
0.252514
0.240645
0.22541
0.206285
0.182713
0.15415
0.120202
0.0807311
0.0360105
-0.0131678
-0.0654827
-0.119029
-0.171512
-0.2209
-0.26595
-0.306166
-0.341405
-0.371551
-0.396357
-0.41537
-0.427908
-0.432911
-0.430227
-0.419541
-0.401132
-0.376019
-0.345748
-0.312101
-0.27691
-0.241894
-0.208492
-0.17772
-0.150145
-0.12596
-0.105094
-0.0873183
-0.0723193
-0.0597545
-0.0492852
-0.0405969
-0.033408
-0.0274728
-0.0225806
-0.0185525
-0.0152382
-0.0125122
-0.0102698
-0.00842439
-0.00690419
-0.00565001
-0.00461277
-0.00375233
-0.00303471
-0.00243313
-0.00192246
-0.00148674
-0.00110258
-0.000768137
-0.000447581
-0.000172925
0.28519
0.28342
0.279805
0.274076
0.265894
0.25482
0.24028
0.221581
0.197946
0.168538
0.132644
0.0897917
0.0401798
-0.01515
-0.0743461
-0.13455
-0.192455
-0.245642
-0.29315
-0.335005
-0.371518
-0.402912
-0.429211
-0.450044
-0.464402
-0.47063
-0.467947
-0.455784
-0.434431
-0.405068
-0.369526
-0.330044
-0.289011
-0.24865
-0.210726
-0.176402
-0.146249
-0.120366
-0.0985345
-0.0803614
-0.0653786
-0.0531093
-0.0431081
-0.03498
-0.0283864
-0.0230433
-0.0187153
-0.0152095
-0.0123686
-0.0100647
-0.00819414
-0.00667321
-0.00543409
-0.00442205
-0.00359269
-0.00291036
-0.00234548
-0.00187508
-0.0014781
-0.00114114
-0.000845302
-0.000588835
-0.000343254
-0.000133697
0.298322
0.296869
0.293869
0.289046
0.281983
0.272138
0.258741
0.240898
0.217533
0.187458
0.149526
0.102567
0.0464089
-0.0178853
-0.0874618
-0.157217
-0.222
-0.279267
-0.328996
-0.372202
-0.409823
-0.44254
-0.470815
-0.494289
-0.511391
-0.520471
-0.518349
-0.504275
-0.47896
-0.443957
-0.401345
-0.35385
-0.304684
-0.256913
-0.21287
-0.173927
-0.140591
-0.112747
-0.0899131
-0.0714432
-0.0566503
-0.0448821
-0.0355602
-0.0281943
-0.0223808
-0.0177931
-0.0141708
-0.0113075
-0.00904067
-0.00724255
-0.00581289
-0.00467309
-0.00376142
-0.00302945
-0.00243905
-0.00196033
-0.0015693
-0.00124758
-0.000979067
-0.000753382
-0.000556872
-0.000387927
-0.000226507
-8.98104e-05
0.312909
0.311886
0.309719
0.306156
0.30069
0.292703
0.281131
0.264848
0.242222
0.21172
0.171659
0.120023
0.0560316
-0.0207457
-0.105836
-0.189203
-0.262562
-0.323864
-0.374948
-0.418511
-0.456561
-0.490736
-0.522298
-0.550419
-0.572459
-0.585344
-0.584894
-0.568891
-0.53838
-0.495634
-0.443324
-0.384978
-0.3249
-0.26725
-0.215124
-0.1702
-0.132888
-0.102742
-0.0788788
-0.0602748
-0.0459289
-0.0349487
-0.0265848
-0.0202324
-0.0154153
-0.0117647
-0.00899775
-0.00689921
-0.00530573
-0.00409369
-0.00316969
-0.00246319
-0.00192095
-0.00150283
-0.00117855
-0.000925352
-0.000725862
-0.000567229
-0.000438992
-0.000334351
-0.000245514
-0.000171136
-0.000100489
-4.21597e-05
0.328499
0.32803
0.326935
0.325041
0.321751
0.316488
0.307774
0.294362
0.273372
0.242906
0.199703
0.14168
0.0680558
-0.0262261
-0.1335
-0.234697
-0.317812
-0.38233
-0.432505
-0.47341
-0.509019
-0.543958
-0.581131
-0.617721
-0.6476
-0.665715
-0.668434
-0.651986
-0.616513
-0.564123
-0.498447
-0.424864
-0.349716
-0.278842
-0.216347
-0.164148
-0.122318
-0.0898051
-0.0651128
-0.0466988
-0.0331633
-0.023326
-0.0162423
-0.0111828
-0.00759676
-0.00507491
-0.0033168
-0.00210359
-0.00127687
-0.000722492
-0.00035853
-0.000126406
1.55014e-05
9.65522e-05
0.000137233
0.000151732
0.000149663
0.000137553
0.00011954
9.84444e-05
7.57254e-05
5.23942e-05
2.92293e-05
6.94684e-06
0.344529
0.344728
0.344932
0.345114
0.344606
0.343088
0.33862
0.330339
0.313205
0.285228
0.237115
0.168119
0.0747951
-0.0504294
-0.187417
-0.305642
-0.394557
-0.457526
-0.500909
-0.531832
-0.556459
-0.587911
-0.631929
-0.680875
-0.723264
-0.750635
-0.758308
-0.744522
-0.707672
-0.647488
-0.567646
-0.4757
-0.381073
-0.292568
-0.216297
-0.154812
-0.107687
-0.0728585
-0.0478135
-0.0302139
-0.0181059
-0.00995172
-0.00459062
-0.00117082
0.000920576
0.00211753
0.00272313
0.00294671
0.00293139
0.002774
0.00253918
0.00226932
0.00199136
0.00172165
0.00146926
0.00123861
0.0010307
0.000845101
0.000679164
0.000531427
0.00039674
0.000275697
0.000158839
5.6366e-05
0.360329
0.361274
0.362958
0.365528
0.368335
0.37146
0.372744
0.372345
0.363254
0.344989
0.296008
0.215149
0.071966
-0.115865
-0.285225
-0.405519
-0.484995
-0.534643
-0.562539
-0.575076
-0.578589
-0.603215
-0.6534
-0.712563
-0.765331
-0.803114
-0.820644
-0.814225
-0.781384
-0.71953
-0.631205
-0.524676
-0.411875
-0.305134
-0.213684
-0.141688
-0.0886964
-0.0516454
-0.0267806
-0.0107086
-0.000735912
0.00512693
0.00828498
0.00970376
0.0100356
0.00971528
0.00902912
0.00816261
0.00723349
0.00631417
0.00544679
0.00465345
0.00394311
0.00331649
0.00276916
0.00229424
0.00188299
0.00152731
0.0012173
0.000946925
0.000704271
0.000489477
0.000282688
0.000103885
0.375157
0.376868
0.380129
0.385214
0.391678
0.399892
0.408123
0.41741
0.421245
0.422128
0.391449
0.329614
0.118756
-0.182456
-0.380611
-0.484038
-0.540874
-0.572938
-0.58906
-0.590598
-0.582176
-0.612953
-0.670768
-0.73451
-0.791231
-0.832903
-0.854655
-0.85311
-0.821991
-0.75908
-0.666254
-0.551035
-0.42605
-0.305908
-0.202543
-0.122006
-0.064386
-0.0260602
-0.00223521
0.0115089
0.0186327
0.0216015
0.0220724
0.0211187
0.0194186
0.0173914
0.0152897
0.0132597
0.0113803
0.0096877
0.00819225
0.0068887
0.00576316
0.00479767
0.00397265
0.00326914
0.00266849
0.00215496
0.00171166
0.0013282
0.000986202
0.000685525
0.000396253
0.000147984
0.388233
0.390673
0.39547
0.402983
0.413093
0.426309
0.44183
0.460839
0.479843
0.502436
0.512563
0.526194
0.392381
-0.105624
-0.363533
-0.4857
-0.543311
-0.569159
-0.58331
-0.595248
-0.586815
-0.623727
-0.688777
-0.757519
-0.817329
-0.859893
-0.880216
-0.874413
-0.83847
-0.770634
-0.671965
-0.550119
-0.417663
-0.28993
-0.180011
-0.0950117
-0.0354888
0.00239332
0.0240876
0.0347732
0.0385281
0.0382246
0.0357419
0.0322441
0.0284182
0.0246489
0.0211366
0.0179719
0.0151822
0.0127594
0.0106775
0.00890154
0.00739424
0.00611901
0.00504152
0.00413131
0.00336033
0.00270569
0.00214393
0.00166068
0.00123141
0.00085607
0.000494676
0.000187726
0.398811
0.401888
0.40801
0.417649
0.430931
0.448609
0.470522
0.498259
0.530331
0.570143
0.6092
0.652778
0.606506
0.154668
-0.13294
-0.31169
-0.424755
-0.492572
-0.532783
-0.562929
-0.577206
-0.618328
-0.68716
-0.758743
-0.820534
-0.863133
-0.880962
-0.870675
-0.828718
-0.754907
-0.64931
-0.522957
-0.387712
-0.258505
-0.14806
-0.0634459
-0.0052977
0.030252
0.0489198
0.0562546
0.0566667
0.0532605
0.0480413
0.0422143
0.0364532
0.0311016
0.0263089
0.0221151
0.0185014
0.0154205
0.0128128
0.0106164
0.00877217
0.00722606
0.00593
0.00484272
0.0039274
0.00315449
0.00249445
0.00192927
0.00142878
0.000993521
0.000573318
0.000222385
0.406256
0.409808
0.4169
0.428127
0.443741
0.464795
0.491321
0.525591
0.565929
0.617121
0.668135
0.729108
0.703734
0.247457
-0.0556941
-0.251528
-0.37977
-0.457965
-0.502786
-0.515144
-0.544681
-0.590112
-0.659384
-0.731592
-0.79447
-0.837126
-0.853011
-0.838636
-0.792565
-0.714295
-0.606932
-0.480016
-0.346662
-0.221012
-0.114692
-0.034028
0.0205545
0.0527876
0.0683317
0.0727468
0.070484
0.0646885
0.0573884
0.049789
0.0425474
0.0359792
0.0301998
0.0252136
0.0209679
0.0173849
0.0143789
0.0118665
0.00977076
0.00802401
0.00656719
0.00535054
0.00433044
0.00347223
0.00274175
0.00211827
0.00156724
0.00109015
0.000627986
0.000249003
0.410103
0.413903
0.421516
0.433579
0.450453
0.473268
0.502284
0.539756
0.584378
0.64022
0.697111
0.762896
0.747413
0.30562
0.000442881
-0.206326
-0.346456
-0.433257
-0.481832
-0.479988
-0.513454
-0.560265
-0.629949
-0.703142
-0.76695
-0.80952
-0.823612
-0.80554
-0.75617
-0.675774
-0.568756
-0.444314
-0.315147
-0.194473
-0.0927396
-0.0161725
0.0354326
0.0652283
0.0787381
0.0814225
0.077667
0.0705845
0.062186
0.0536638
0.0456599
0.0384715
0.0321933
0.0268086
0.0222454
0.018409
0.0152003
0.012525
0.0102982
0.00844572
0.00690353
0.00561789
0.00454193
0.00363836
0.00287059
0.00221647
0.00163897
0.00114025
0.000656124
0.000263713
0.410103
0.413903
0.421516
0.433579
0.450453
0.473268
0.502284
0.539756
0.584378
0.64022
0.697111
0.762896
0.747413
0.305621
0.000444025
-0.206325
-0.346454
-0.433255
-0.481829
-0.479982
-0.513447
-0.560257
-0.629941
-0.703132
-0.766941
-0.809511
-0.823605
-0.805532
-0.756162
-0.675766
-0.568748
-0.444308
-0.315144
-0.194472
-0.0927403
-0.0161738
0.0354316
0.0652278
0.0787383
0.081423
0.0776676
0.0705851
0.0621865
0.0536641
0.04566
0.0384715
0.0321931
0.0268083
0.022245
0.0184086
0.0151999
0.0125246
0.0102978
0.00844535
0.00690319
0.00561759
0.00454166
0.00363812
0.00287039
0.0022163
0.00163883
0.00114015
0.000656055
0.000263681
0.406255
0.409807
0.4169
0.428127
0.443741
0.464795
0.491321
0.525591
0.565929
0.617121
0.668136
0.729109
0.703736
0.24746
-0.0556905
-0.251524
-0.379764
-0.457958
-0.502778
-0.515128
-0.544665
-0.590094
-0.659364
-0.73157
-0.794449
-0.837106
-0.852993
-0.83862
-0.792548
-0.714278
-0.606916
-0.480003
-0.346655
-0.221011
-0.114694
-0.0340314
0.0205519
0.0527867
0.0683324
0.0727486
0.0704861
0.0646905
0.0573899
0.04979
0.0425477
0.035979
0.0301992
0.0252127
0.0209668
0.0173837
0.0143777
0.0118653
0.00976961
0.00802293
0.0065662
0.00534963
0.00432964
0.00347153
0.00274114
0.00211777
0.00156683
0.00108984
0.00062778
0.000248908
0.398811
0.401888
0.408009
0.417649
0.430931
0.448608
0.470522
0.498259
0.530331
0.570144
0.609201
0.65278
0.606509
0.154672
-0.132934
-0.311684
-0.424747
-0.492562
-0.532771
-0.562911
-0.577188
-0.618307
-0.687139
-0.758719
-0.820512
-0.863114
-0.880947
-0.870662
-0.828705
-0.754893
-0.649292
-0.522943
-0.387706
-0.258505
-0.148064
-0.0634508
-0.00530087
0.0302514
0.0489214
0.0562576
0.0566702
0.0532636
0.0480437
0.0422157
0.0364536
0.0311012
0.0263078
0.0221136
0.0184996
0.0154186
0.0128108
0.0106145
0.00877031
0.0072243
0.00592838
0.00484125
0.00392608
0.00315334
0.00249346
0.00192844
0.00142811
0.000993015
0.000572979
0.00022223
0.388232
0.390672
0.395469
0.402982
0.413092
0.426308
0.441829
0.460839
0.479844
0.502437
0.512565
0.526197
0.392385
-0.105617
-0.363525
-0.48569
-0.5433
-0.569146
-0.583296
-0.595231
-0.586799
-0.62371
-0.688758
-0.7575
-0.817312
-0.859879
-0.880205
-0.874405
-0.838461
-0.770623
-0.671951
-0.550108
-0.417659
-0.289932
-0.180016
-0.0950168
-0.0354914
0.00239383
0.0240906
0.0347775
0.0385327
0.0382286
0.0357448
0.0322457
0.0284186
0.0246483
0.0211352
0.0179699
0.0151798
0.0127569
0.0106748
0.00889896
0.00739174
0.00611665
0.00503934
0.00412933
0.00335855
0.00270414
0.00214259
0.00165955
0.0012305
0.000855378
0.000494212
0.000187515
0.375156
0.376866
0.380127
0.385213
0.391677
0.399891
0.408123
0.41741
0.421245
0.422129
0.391451
0.329617
0.118761
-0.182449
-0.380602
-0.484027
-0.540862
-0.572924
-0.589045
-0.590583
-0.582162
-0.612938
-0.670751
-0.734493
-0.791216
-0.832892
-0.854647
-0.853104
-0.821985
-0.759071
-0.666244
-0.551027
-0.426048
-0.305911
-0.202548
-0.12201
-0.0643868
-0.0260578
-0.00223058
0.0115146
0.0186384
0.0216063
0.0220758
0.0211206
0.0194191
0.0173907
0.015288
0.0132574
0.0113775
0.00968471
0.00818915
0.00688561
0.00576016
0.00479482
0.00396999
0.00326671
0.0026663
0.00215304
0.00171
0.00132681
0.000985075
0.000684663
0.000395674
0.000147723
0.360328
0.361272
0.362957
0.365527
0.368334
0.371459
0.372744
0.372345
0.363254
0.344989
0.29601
0.215152
0.0719702
-0.115859
-0.285218
-0.40551
-0.484984
-0.534631
-0.562526
-0.575062
-0.578575
-0.6032
-0.653384
-0.712547
-0.765317
-0.803104
-0.820638
-0.814221
-0.78138
-0.719523
-0.631198
-0.524671
-0.411874
-0.305136
-0.213687
-0.141689
-0.0886946
-0.0516409
-0.0267743
-0.0107016
-0.000729267
0.00513249
0.00828902
0.00970615
0.0100364
0.00971479
0.00902756
0.00816026
0.0072306
0.00631095
0.0054434
0.00465002
0.00393974
0.00331326
0.00276613
0.00229145
0.00188047
0.00152508
0.00121536
0.000945294
0.000702948
0.000488464
0.000282006
0.000103579
0.344527
0.344726
0.34493
0.345112
0.344604
0.343087
0.338619
0.330338
0.313205
0.285229
0.237117
0.168121
0.0747978
-0.0504256
-0.187412
-0.305636
-0.39455
-0.457518
-0.5009
-0.531822
-0.556448
-0.5879
-0.631918
-0.680865
-0.723256
-0.750631
-0.758306
-0.744521
-0.707669
-0.647484
-0.567641
-0.475696
-0.38107
-0.292567
-0.216296
-0.15481
-0.107683
-0.0728518
-0.0478056
-0.0302056
-0.0180981
-0.00994521
-0.00458575
-0.00116771
0.000922002
0.00211749
0.00272191
0.00294458
0.0029286
0.00277077
0.0025357
0.00226574
0.00198778
0.00171818
0.00146597
0.00123556
0.00102792
0.000842618
0.000677
0.000529594
0.000395248
0.000274552
0.000158066
5.60224e-05
0.328497
0.328028
0.326933
0.325039
0.321749
0.316487
0.307773
0.294361
0.273372
0.242906
0.199703
0.141681
0.0680573
-0.026224
-0.133498
-0.234693
-0.317807
-0.382325
-0.4325
-0.473404
-0.509013
-0.543952
-0.581125
-0.617716
-0.647598
-0.665713
-0.668433
-0.651985
-0.616511
-0.564118
-0.498441
-0.424858
-0.349711
-0.278838
-0.216342
-0.164143
-0.12231
-0.0897963
-0.0651032
-0.0466891
-0.0331544
-0.0233184
-0.0162364
-0.0111788
-0.00759451
-0.00507425
-0.00331745
-0.00210529
-0.00127936
-0.000725537
-0.000361934
-0.000130004
1.18454e-05
9.29497e-05
0.000133773
0.000148485
0.000146681
0.000134875
0.000117193
9.64457e-05
7.40926e-05
5.11381e-05
2.83796e-05
6.57133e-06
0.312906
0.311884
0.309717
0.306154
0.300688
0.292701
0.281129
0.264846
0.242221
0.211719
0.171659
0.120023
0.0560319
-0.0207449
-0.105835
-0.189202
-0.26256
-0.323862
-0.374946
-0.418509
-0.456559
-0.490734
-0.522296
-0.550418
-0.572457
-0.585342
-0.584892
-0.568888
-0.538375
-0.495627
-0.443316
-0.38497
-0.324892
-0.267242
-0.215116
-0.170191
-0.132878
-0.102731
-0.0788677
-0.0602638
-0.0459188
-0.03494
-0.0265779
-0.0202273
-0.0154121
-0.0117632
-0.00899769
-0.00690033
-0.00530776
-0.00409641
-0.00317288
-0.00246668
-0.00192457
-0.00150646
-0.00118209
-0.000928713
-0.000728978
-0.00057005
-0.000441479
-0.00033648
-0.00024726
-0.000172482
-0.000101402
-4.25609e-05
0.298319
0.296867
0.293866
0.289043
0.281981
0.272135
0.258738
0.240896
0.217531
0.187457
0.149525
0.102567
0.0464083
-0.0178857
-0.0874621
-0.157217
-0.222
-0.279267
-0.328996
-0.372202
-0.409824
-0.44254
-0.470815
-0.494288
-0.51139
-0.520469
-0.518347
-0.504271
-0.478953
-0.443948
-0.401334
-0.35384
-0.304674
-0.256903
-0.212859
-0.173916
-0.14058
-0.112735
-0.0899007
-0.0714312
-0.0566392
-0.0448724
-0.0355522
-0.0281883
-0.0223767
-0.0177908
-0.01417
-0.011308
-0.00904217
-0.00724485
-0.00581578
-0.00467637
-0.00376492
-0.00303304
-0.0024426
-0.00196375
-0.00157249
-0.0012505
-0.000981656
-0.00075561
-0.000558706
-0.000389343
-0.00022747
-9.02318e-05
0.285187
0.283417
0.279802
0.274073
0.265891
0.254817
0.240277
0.221579
0.197944
0.168536
0.132642
0.0897901
0.0401784
-0.0151514
-0.0743475
-0.134551
-0.192457
-0.245644
-0.293151
-0.335007
-0.371519
-0.402913
-0.429212
-0.450044
-0.4644
-0.470628
-0.467943
-0.455778
-0.434422
-0.405057
-0.369514
-0.330031
-0.288999
-0.248638
-0.210714
-0.176389
-0.146236
-0.120353
-0.0985213
-0.0803486
-0.0653667
-0.0530989
-0.0430993
-0.0349731
-0.0283815
-0.0230401
-0.0187138
-0.0152094
-0.0123696
-0.0100665
-0.00819668
-0.00667624
-0.00543742
-0.00442554
-0.0035962
-0.00291377
-0.00234872
-0.00187805
-0.00148076
-0.00114344
-0.000847202
-0.000590307
-0.000344257
-0.000134134
0.273849
0.271856
0.267807
0.261451
0.25251
0.240642
0.225406
0.206282
0.18271
0.154147
0.120199
0.0807288
0.0360083
-0.01317
-0.065485
-0.119032
-0.171515
-0.220902
-0.265953
-0.306168
-0.341408
-0.371553
-0.396358
-0.41537
-0.427907
-0.432908
-0.430222
-0.419533
-0.401121
-0.376007
-0.345734
-0.312087
-0.276896
-0.241881
-0.208478
-0.177706
-0.150131
-0.125946
-0.10508
-0.0873049
-0.0723069
-0.0597434
-0.0492759
-0.0405894
-0.0334024
-0.027469
-0.0225783
-0.0185517
-0.0152386
-0.0125136
-0.010272
-0.00842715
-0.00690734
-0.00565338
-0.00461622
-0.00375573
-0.00303796
-0.00243615
-0.00192518
-0.0014891
-0.00110453
-0.000769656
-0.00044862
-0.000173376
0.264549
0.262404
0.258062
0.251287
0.24185
0.229485
0.213858
0.194578
0.171251
0.143531
0.111204
0.0742599
0.0329752
-0.0120081
-0.0596423
-0.108484
-0.156825
-0.203019
-0.24582
-0.284459
-0.318474
-0.347498
-0.371138
-0.38894
-0.40041
-0.404965
-0.402496
-0.392974
-0.376777
-0.354794
-0.328298
-0.298764
-0.267711
-0.236563
-0.206518
-0.178442
-0.152869
-0.130041
-0.109986
-0.0925884
-0.077647
-0.0649148
-0.0541321
-0.0450453
-0.0374178
-0.0310358
-0.0257098
-0.0212744
-0.0175867
-0.0145244
-0.0119834
-0.00987558
-0.00812672
-0.0066745
-0.00546639
-0.00445889
-0.00361457
-0.00290374
-0.002298
-0.00177936
-0.00132079
-0.000920425
-0.00053634
-0.000206232
0.257453
0.25521
0.25068
0.243638
0.233893
0.221236
0.205409
0.186116
0.163071
0.136043
0.104915
0.0697392
0.0307957
-0.0113459
-0.0558012
-0.101399
-0.14678
-0.190572
-0.231587
-0.268925
-0.301927
-0.330071
-0.352893
-0.369955
-0.38086
-0.385224
-0.383023
-0.374389
-0.359759
-0.339934
-0.316022
-0.289311
-0.261119
-0.232665
-0.204969
-0.178802
-0.154673
-0.132855
-0.113433
-0.0963619
-0.0815096
-0.0686945
-0.0577127
-0.0483554
-0.0404202
-0.0337181
-0.0280768
-0.0233419
-0.0193771
-0.0160634
-0.0132976
-0.0109912
-0.00906841
-0.00746488
-0.00612575
-0.00500515
-0.00406316
-0.00326794
-0.00258865
-0.00200582
-0.00148962
-0.00103817
-0.000604894
-0.000231892
0.252671
0.250369
0.245728
0.23853
0.22861
0.215796
0.199879
0.180622
0.157802
0.131252
0.100908
0.0668601
0.0293947
-0.0109615
-0.0534276
-0.0969943
-0.140494
-0.18271
-0.222509
-0.258935
-0.291228
-0.31878
-0.341088
-0.357719
-0.368319
-0.372605
-0.370624
-0.362585
-0.348951
-0.330483
-0.308198
-0.283263
-0.256865
-0.230098
-0.203888
-0.178947
-0.155763
-0.13462
-0.115633
-0.0987964
-0.0840221
-0.0711699
-0.0600715
-0.0505474
-0.0424178
-0.0355103
-0.0296642
-0.024733
-0.0205852
-0.0171043
-0.0141884
-0.0117488
-0.00970886
-0.00800316
-0.00657534
-0.005378
-0.00436961
-0.00351694
-0.00278751
-0.00216084
-0.00160525
-0.00111882
-0.000651906
-0.000249392
0.250269
0.247939
0.243246
0.235977
0.225978
0.213097
0.197147
0.17792
0.15522
0.128912
0.0989567
0.0654612
0.0287148
-0.0107783
-0.0522886
-0.0948814
-0.137472
-0.178913
-0.218099
-0.254058
-0.285987
-0.313243
-0.3353
-0.351724
-0.362181
-0.366449
-0.364592
-0.356851
-0.343703
-0.325894
-0.304396
-0.280315
-0.254777
-0.228824
-0.203337
-0.178997
-0.15628
-0.135472
-0.116703
-0.099988
-0.0852582
-0.0723932
-0.0612417
-0.0516383
-0.0434146
-0.0364066
-0.0304595
-0.0254311
-0.0211923
-0.0176282
-0.0146373
-0.0121309
-0.0100323
-0.00827524
-0.00680279
-0.00556677
-0.00452488
-0.00364316
-0.00288837
-0.00223946
-0.00166396
-0.00115965
-0.000675937
-0.000258015
)
;

boundaryField
{
    inlet
    {
        type            zeroGradient;
    }
    outlet
    {
        type            fixedValue;
        value           uniform 0;
    }
    top
    {
        type            symmetryPlane;
    }
    bottom
    {
        type            symmetryPlane;
    }
    frontAndBack
    {
        type            empty;
    }
}


// ************************************************************************* //
