/*--------------------------------*- C++ -*----------------------------------*\
  =========                 |
  \\      /  F ield         | OpenFOAM: The Open Source CFD Toolbox
   \\    /   O peration     | Website:  https://openfoam.org
    \\  /    A nd           | Version:  11
     \\/     M anipulation  |
\*---------------------------------------------------------------------------*/
FoamFile
{
    format      ascii;
    class       volVectorField;
    location    "4";
    object      U;
}
// * * * * * * * * * * * * * * * * * * * * * * * * * * * * * * * * * * * * * //

dimensions      [0 1 -1 0 0 0 0];

internalField   nonuniform List<vector> 
2048
(
(1.00014 -0.000598308 0)
(1.00256 -0.00180267 0)
(1.00733 -0.00302936 0)
(1.01461 -0.00429226 0)
(1.02448 -0.00560142 0)
(1.03702 -0.00695944 0)
(1.0523 -0.00835875 0)
(1.07039 -0.00977954 0)
(1.09131 -0.0111888 0)
(1.11502 -0.0125402 0)
(1.14135 -0.0137746 0)
(1.17003 -0.014823 0)
(1.20062 -0.0156115 0)
(1.23254 -0.0160704 0)
(1.2651 -0.0161455 0)
(1.29749 -0.0158093 0)
(1.32886 -0.0150672 0)
(1.3584 -0.013956 0)
(1.38538 -0.0125328 0)
(1.4092 -0.0108557 0)
(1.42938 -0.00897126 0)
(1.44556 -0.00691152 0)
(1.45744 -0.00469998 0)
(1.46475 -0.00236052 0)
(1.46726 7.84178e-05 0)
(1.46481 0.00256312 0)
(1.45739 0.00502754 0)
(1.44507 0.00738637 0)
(1.42812 0.0095417 0)
(1.40701 0.0113952 0)
(1.38243 0.0128634 0)
(1.35522 0.0138917 0)
(1.32634 0.0144601 0)
(1.29675 0.0145826 0)
(1.26734 0.0143052 0)
(1.23889 0.0136998 0)
(1.21198 0.0128536 0)
(1.187 0.0118553 0)
(1.16419 0.0107834 0)
(1.14361 0.00970082 0)
(1.12522 0.00865318 0)
(1.10891 0.00766994 0)
(1.09451 0.00676712 0)
(1.08185 0.00595053 0)
(1.07075 0.00521922 0)
(1.06103 0.00456823 0)
(1.05254 0.00399079 0)
(1.04514 0.00347964 0)
(1.0387 0.00302784 0)
(1.03311 0.00262907 0)
(1.02826 0.00227776 0)
(1.02406 0.00196897 0)
(1.02044 0.00169839 0)
(1.01732 0.00146203 0)
(1.01464 0.00125651 0)
(1.01234 0.0010783 0)
(1.01037 0.00092506 0)
(1.00866 0.000792964 0)
(1.00723 0.00068177 0)
(1.00595 0.000585191 0)
(1.00494 0.000509139 0)
(1.00388 0.0004372 0)
(1.0033 0.000395819 0)
(1.00213 0.000331446 0)
(1.00014 -0.00178958 0)
(1.00253 -0.00539194 0)
(1.00725 -0.00906328 0)
(1.01446 -0.0128483 0)
(1.02425 -0.0167797 0)
(1.03672 -0.0208675 0)
(1.05197 -0.0250907 0)
(1.07008 -0.0293909 0)
(1.09112 -0.0336686 0)
(1.11505 -0.037782 0)
(1.14174 -0.0415491 0)
(1.17092 -0.0447578 0)
(1.20215 -0.0471802 0)
(1.23485 -0.0485989 0)
(1.26826 -0.048843 0)
(1.30152 -0.0478231 0)
(1.33371 -0.0455568 0)
(1.36398 -0.0421676 0)
(1.39155 -0.0378415 0)
(1.41585 -0.032762 0)
(1.43642 -0.0270682 0)
(1.45293 -0.0208518 0)
(1.46507 -0.0141775 0)
(1.47258 -0.00711434 0)
(1.4752 0.000251723 0)
(1.47275 0.00777058 0)
(1.46517 0.0152432 0)
(1.45252 0.0224066 0)
(1.43505 0.0289561 0)
(1.41323 0.0345895 0)
(1.38779 0.0390497 0)
(1.35962 0.0421625 0)
(1.32975 0.0438613 0)
(1.29918 0.0441932 0)
(1.26886 0.043308 0)
(1.23962 0.0414307 0)
(1.21205 0.038827 0)
(1.18657 0.0357653 0)
(1.16338 0.0324863 0)
(1.14255 0.0291838 0)
(1.124 0.0259973 0)
(1.10761 0.0230156 0)
(1.0932 0.0202849 0)
(1.08057 0.0178204 0)
(1.06953 0.0156171 0)
(1.05989 0.0136586 0)
(1.0515 0.0119235 0)
(1.04419 0.0103895 0)
(1.03785 0.00903517 0)
(1.03234 0.00784116 0)
(1.02758 0.00679038 0)
(1.02347 0.00586765 0)
(1.01992 0.00505976 0)
(1.01687 0.0043545 0)
(1.01425 0.00374161 0)
(1.012 0.00321035 0)
(1.01008 0.0027537 0)
(1.00842 0.00236007 0)
(1.00702 0.00202888 0)
(1.00577 0.00174106 0)
(1.00479 0.00151469 0)
(1.00376 0.00130013 0)
(1.0032 0.00117719 0)
(1.00207 0.000985091 0)
(1.00013 -0.00295818 0)
(1.00247 -0.00891559 0)
(1.00707 -0.0149969 0)
(1.01412 -0.0212852 0)
(1.02374 -0.0278435 0)
(1.03606 -0.0346959 0)
(1.05121 -0.0418157 0)
(1.06935 -0.0491108 0)
(1.09058 -0.056416 0)
(1.11494 -0.0634859 0)
(1.14233 -0.0699997 0)
(1.17252 -0.0755807 0)
(1.20507 -0.0798223 0)
(1.23935 -0.0823357 0)
(1.27452 -0.0828107 0)
(1.30957 -0.0810777 0)
(1.34346 -0.0771748 0)
(1.37518 -0.0713518 0)
(1.40394 -0.0639681 0)
(1.42918 -0.055356 0)
(1.45052 -0.0457485 0)
(1.46766 -0.035282 0)
(1.48034 -0.024042 0)
(1.48826 -0.0121202 0)
(1.49113 0.000351048 0)
(1.4887 0.0131235 0)
(1.48084 0.0258667 0)
(1.46753 0.0381206 0)
(1.449 0.0493383 0)
(1.42573 0.0589844 0)
(1.39853 0.0666145 0)
(1.3684 0.0719204 0)
(1.33647 0.0747692 0)
(1.3039 0.0752352 0)
(1.27175 0.0735904 0)
(1.24091 0.0702465 0)
(1.21203 0.0656772 0)
(1.18553 0.0603498 0)
(1.16161 0.0546777 0)
(1.14028 0.0489915 0)
(1.12145 0.0435289 0)
(1.10493 0.0384391 0)
(1.09051 0.0337977 0)
(1.07796 0.0296264 0)
(1.06705 0.0259123 0)
(1.05758 0.0226231 0)
(1.04937 0.0197189 0)
(1.04227 0.0171584 0)
(1.03611 0.0149034 0)
(1.0308 0.0129195 0)
(1.02622 0.0111768 0)
(1.02227 0.00964893 0)
(1.01887 0.00831317 0)
(1.01596 0.00714865 0)
(1.01346 0.00613793 0)
(1.01132 0.00526281 0)
(1.0095 0.00451136 0)
(1.00792 0.00386418 0)
(1.0066 0.00332014 0)
(1.00542 0.00284752 0)
(1.0045 0.00247619 0)
(1.00353 0.00212401 0)
(1.003 0.00192269 0)
(1.00194 0.00160739 0)
(1.00013 -0.00408134 0)
(1.00236 -0.0123098 0)
(1.00678 -0.0207333 0)
(1.01356 -0.0294841 0)
(1.02286 -0.0386671 0)
(1.03488 -0.0483325 0)
(1.04982 -0.0584625 0)
(1.06792 -0.068941 0)
(1.08937 -0.079548 0)
(1.11432 -0.0899258 0)
(1.14275 -0.0995882 0)
(1.17447 -0.107944 0)
(1.20905 -0.114341 0)
(1.2458 -0.118169 0)
(1.28373 -0.118939 0)
(1.32161 -0.116383 0)
(1.35812 -0.110604 0)
(1.39205 -0.102064 0)
(1.42255 -0.0913666 0)
(1.44916 -0.0790199 0)
(1.47161 -0.0653502 0)
(1.48972 -0.0505196 0)
(1.50323 -0.0345982 0)
(1.51185 -0.0176385 0)
(1.51517 0.000239911 0)
(1.51284 0.0186548 0)
(1.50461 0.0371393 0)
(1.49031 0.0549974 0)
(1.47013 0.0713817 0)
(1.44461 0.0854585 0)
(1.41467 0.0965466 0)
(1.38146 0.10419 0)
(1.34632 0.108198 0)
(1.31063 0.108675 0)
(1.27565 0.106025 0)
(1.2424 0.100875 0)
(1.21157 0.0939584 0)
(1.18359 0.0859912 0)
(1.1586 0.077594 0)
(1.13659 0.0692493 0)
(1.11737 0.0612936 0)
(1.10071 0.0539302 0)
(1.08632 0.0472559 0)
(1.07392 0.0412911 0)
(1.06325 0.0360081 0)
(1.05406 0.0313534 0)
(1.04616 0.0272631 0)
(1.03936 0.0236732 0)
(1.03351 0.0205243 0)
(1.02849 0.0177637 0)
(1.02417 0.015346 0)
(1.02047 0.0132317 0)
(1.01731 0.0113873 0)
(1.0146 0.00978217 0)
(1.01229 0.00839119 0)
(1.01031 0.00718845 0)
(1.00864 0.00615687 0)
(1.00719 0.00526936 0)
(1.00598 0.00452386 0)
(1.00491 0.0038768 0)
(1.00406 0.00336856 0)
(1.00318 0.00288692 0)
(1.0027 0.00261145 0)
(1.00175 0.00218029 0)
(1.00012 -0.00513352 0)
(1.0022 -0.0155012 0)
(1.00631 -0.0261561 0)
(1.01267 -0.0372969 0)
(1.02147 -0.0490851 0)
(1.03298 -0.0616158 0)
(1.04749 -0.0748997 0)
(1.06537 -0.0888113 0)
(1.08696 -0.103105 0)
(1.11255 -0.117308 0)
(1.1423 -0.130767 0)
(1.1761 -0.142595 0)
(1.21355 -0.151753 0)
(1.25382 -0.157285 0)
(1.29572 -0.158408 0)
(1.33763 -0.154734 0)
(1.37777 -0.146585 0)
(1.41462 -0.134831 0)
(1.44735 -0.120417 0)
(1.47566 -0.104041 0)
(1.49952 -0.086105 0)
(1.51888 -0.0667775 0)
(1.53358 -0.0460719 0)
(1.54331 -0.0239056 0)
(1.54744 -0.00028746 0)
(1.54541 0.0243464 0)
(1.53679 0.0492888 0)
(1.52121 0.0735068 0)
(1.49874 0.0958016 0)
(1.47002 0.114989 0)
(1.43617 0.130039 0)
(1.39862 0.140238 0)
(1.35898 0.14533 0)
(1.31894 0.145537 0)
(1.28003 0.141482 0)
(1.24347 0.134066 0)
(1.21005 0.124306 0)
(1.18016 0.113201 0)
(1.15389 0.101608 0)
(1.13109 0.0901923 0)
(1.11149 0.0794062 0)
(1.09474 0.0695125 0)
(1.08047 0.0606226 0)
(1.06834 0.052743 0)
(1.05804 0.0458166 0)
(1.04927 0.039755 0)
(1.04181 0.0344606 0)
(1.03545 0.0298385 0)
(1.03003 0.0258033 0)
(1.02541 0.0222807 0)
(1.02146 0.0192073 0)
(1.01811 0.0165291 0)
(1.01525 0.0142001 0)
(1.01281 0.0121792 0)
(1.01075 0.0104324 0)
(1.00899 0.00892558 0)
(1.00751 0.00763576 0)
(1.00624 0.00652805 0)
(1.00517 0.00559878 0)
(1.00423 0.00479328 0)
(1.0035 0.00416084 0)
(1.00274 0.00356215 0)
(1.00232 0.00321943 0)
(1.0015 0.00268355 0)
(1.0001 -0.00608022 0)
(1.00195 -0.0183904 0)
(1.00562 -0.0311019 0)
(1.01134 -0.0445092 0)
(1.01937 -0.0588425 0)
(1.03005 -0.0742806 0)
(1.04381 -0.0908813 0)
(1.06114 -0.108528 0)
(1.08259 -0.12699 0)
(1.10871 -0.145665 0)
(1.13989 -0.163814 0)
(1.17629 -0.18017 0)
(1.21758 -0.193169 0)
(1.26276 -0.201243 0)
(1.31025 -0.202912 0)
(1.35771 -0.1976 0)
(1.40255 -0.186234 0)
(1.44298 -0.170466 0)
(1.47832 -0.151738 0)
(1.5086 -0.130933 0)
(1.53408 -0.108474 0)
(1.55493 -0.0844907 0)
(1.57115 -0.0588573 0)
(1.58247 -0.0312299 0)
(1.58798 -0.001529 0)
(1.5867 0.0301561 0)
(1.57781 0.0626472 0)
(1.56066 0.0942979 0)
(1.53527 0.12346 0)
(1.50232 0.148611 0)
(1.46313 0.168334 0)
(1.41957 0.181506 0)
(1.37382 0.187645 0)
(1.32804 0.187082 0)
(1.2841 0.180815 0)
(1.2434 0.170223 0)
(1.20677 0.156773 0)
(1.1746 0.141819 0)
(1.14684 0.126473 0)
(1.12323 0.111561 0)
(1.10333 0.0976249 0)
(1.08665 0.0849635 0)
(1.07271 0.0736872 0)
(1.06106 0.0637778 0)
(1.05132 0.0551405 0)
(1.04315 0.0476436 0)
(1.0363 0.0411457 0)
(1.03053 0.0355124 0)
(1.02566 0.0306241 0)
(1.02156 0.0263785 0)
(1.0181 0.02269 0)
(1.01517 0.0194869 0)
(1.0127 0.0167097 0)
(1.01062 0.0143063 0)
(1.00887 0.0122338 0)
(1.00738 0.01045 0)
(1.00614 0.0089261 0)
(1.00508 0.00761991 0)
(1.00419 0.00652568 0)
(1.00342 0.00557883 0)
(1.00281 0.0048357 0)
(1.0022 0.00413352 0)
(1.00185 0.00373093 0)
(1.0012 0.00310273 0)
(1.00009 -0.00687661 0)
(1.00161 -0.0208512 0)
(1.00464 -0.0353504 0)
(1.00944 -0.0508261 0)
(1.01632 -0.0675568 0)
(1.02571 -0.0859152 0)
(1.03822 -0.105988 0)
(1.05447 -0.127757 0)
(1.07533 -0.151014 0)
(1.10158 -0.174924 0)
(1.13398 -0.198849 0)
(1.17334 -0.220949 0)
(1.21945 -0.239331 0)
(1.27131 -0.251362 0)
(1.32684 -0.25394 0)
(1.38212 -0.246252 0)
(1.43318 -0.230544 0)
(1.47786 -0.20972 0)
(1.51596 -0.185935 0)
(1.54804 -0.160298 0)
(1.57478 -0.133231 0)
(1.59676 -0.104676 0)
(1.61438 -0.0741038 0)
(1.62742 -0.0405218 0)
(1.6349 -0.00403916 0)
(1.63523 0.0355658 0)
(1.6265 0.0770405 0)
(1.60781 0.11789 0)
(1.57919 0.155569 0)
(1.54134 0.187916 0)
(1.49557 0.213057 0)
(1.44419 0.229562 0)
(1.39021 0.236807 0)
(1.33677 0.235202 0)
(1.28638 0.226077 0)
(1.24068 0.21134 0)
(1.20049 0.19305 0)
(1.16594 0.173085 0)
(1.1368 0.152948 0)
(1.11254 0.133705 0)
(1.09255 0.116008 0)
(1.07617 0.100169 0)
(1.06279 0.0862553 0)
(1.05187 0.0741757 0)
(1.04294 0.0637582 0)
(1.03562 0.0548004 0)
(1.02958 0.0471009 0)
(1.02458 0.0404765 0)
(1.02044 0.0347683 0)
(1.01699 0.0298425 0)
(1.01411 0.0255885 0)
(1.01172 0.0219145 0)
(1.00972 0.0187446 0)
(1.00805 0.0160134 0)
(1.00666 0.0136674 0)
(1.0055 0.011655 0)
(1.00454 0.00994047 0)
(1.00373 0.00847436 0)
(1.00306 0.00724803 0)
(1.00248 0.00618847 0)
(1.00202 0.00535705 0)
(1.00157 0.00457231 0)
(1.00132 0.00412169 0)
(1.00085 0.00341919 0)
(1.00005 -0.00746788 0)
(1.00115 -0.0227344 0)
(1.0033 -0.0386191 0)
(1.00685 -0.0558689 0)
(1.01204 -0.0746667 0)
(1.01953 -0.0959023 0)
(1.03001 -0.119454 0)
(1.04435 -0.145897 0)
(1.06396 -0.174812 0)
(1.08959 -0.205118 0)
(1.12293 -0.236454 0)
(1.16536 -0.265434 0)
(1.21661 -0.290573 0)
(1.27768 -0.307757 0)
(1.34571 -0.311111 0)
(1.41269 -0.300023 0)
(1.47143 -0.278854 0)
(1.5194 -0.251785 0)
(1.55748 -0.222021 0)
(1.58753 -0.191089 0)
(1.61147 -0.159809 0)
(1.63105 -0.127795 0)
(1.64772 -0.0931963 0)
(1.66131 -0.0539141 0)
(1.67054 -0.00955501 0)
(1.67386 0.0387538 0)
(1.66795 0.0900868 0)
(1.65057 0.141964 0)
(1.62135 0.19097 0)
(1.58061 0.233367 0)
(1.52937 0.265745 0)
(1.47011 0.285867 0)
(1.40682 0.293214 0)
(1.34402 0.288927 0)
(1.28551 0.275297 0)
(1.23365 0.255099 0)
(1.18935 0.231031 0)
(1.15246 0.205399 0)
(1.12231 0.179983 0)
(1.09796 0.156015 0)
(1.07848 0.134229 0)
(1.06297 0.114947 0)
(1.05066 0.0981957 0)
(1.04086 0.0838219 0)
(1.03305 0.0715741 0)
(1.0268 0.0611666 0)
(1.02176 0.0523187 0)
(1.01769 0.0447775 0)
(1.0144 0.0383282 0)
(1.01172 0.032795 0)
(1.00954 0.0280377 0)
(1.00777 0.0239439 0)
(1.00633 0.0204234 0)
(1.00516 0.0174001 0)
(1.0042 0.0148118 0)
(1.00341 0.0125991 0)
(1.00277 0.01072 0)
(1.00224 0.00911823 0)
(1.00181 0.00778156 0)
(1.00144 0.00662978 0)
(1.00116 0.00572657 0)
(1.00089 0.00487636 0)
(1.00073 0.00438697 0)
(1.00047 0.00362629 0)
(0.999993 -0.00779468 0)
(1.00059 -0.0238778 0)
(1.00152 -0.0405795 0)
(1.00356 -0.0591967 0)
(1.00622 -0.0794149 0)
(1.01128 -0.103408 0)
(1.01813 -0.129883 0)
(1.02972 -0.161833 0)
(1.04635 -0.197032 0)
(1.07032 -0.236157 0)
(1.10502 -0.278577 0)
(1.14975 -0.316023 0)
(1.20706 -0.350315 0)
(1.28397 -0.374299 0)
(1.37069 -0.377429 0)
(1.44917 -0.360803 0)
(1.50769 -0.331632 0)
(1.54638 -0.295124 0)
(1.56932 -0.256503 0)
(1.58188 -0.21821 0)
(1.58905 -0.183078 0)
(1.59517 -0.150312 0)
(1.60342 -0.114809 0)
(1.61457 -0.0729205 0)
(1.62519 -0.0230409 0)
(1.63409 0.0334316 0)
(1.63799 0.0942135 0)
(1.6328 0.157556 0)
(1.61581 0.220536 0)
(1.58504 0.277968 0)
(1.53977 0.323724 0)
(1.48167 0.352869 0)
(1.41503 0.3633 0)
(1.34582 0.356307 0)
(1.27991 0.335801 0)
(1.22145 0.306713 0)
(1.17237 0.273537 0)
(1.13277 0.239627 0)
(1.10167 0.207174 0)
(1.07767 0.177444 0)
(1.05933 0.151038 0)
(1.04537 0.128102 0)
(1.03473 0.108491 0)
(1.02662 0.091891 0)
(1.02042 0.077911 0)
(1.01568 0.0661501 0)
(1.01206 0.0562381 0)
(1.00928 0.0478565 0)
(1.00716 0.0407432 0)
(1.00552 0.0346876 0)
(1.00425 0.0295219 0)
(1.00327 0.0251112 0)
(1.00251 0.0213464 0)
(1.00192 0.018135 0)
(1.00146 0.0154016 0)
(1.0011 0.0130759 0)
(1.00082 0.011108 0)
(1.00061 0.00943503 0)
(1.00044 0.00804084 0)
(1.00031 0.0068408 0)
(1.00021 0.00589924 0)
(1.00015 0.00501332 0)
(1.00009 0.00450208 0)
(1.00006 0.00370762 0)
(0.999888 -0.00780834 0)
(0.999993 -0.02411 0)
(0.999244 -0.0409177 0)
(0.999746 -0.0603233 0)
(0.99858 -0.0809717 0)
(1.00132 -0.107408 0)
(1.00121 -0.135193 0)
(1.01071 -0.173814 0)
(1.01759 -0.213419 0)
(1.04196 -0.267067 0)
(1.07343 -0.324855 0)
(1.12035 -0.376711 0)
(1.1948 -0.439132 0)
(1.29512 -0.476037 0)
(1.38781 -0.470102 0)
(1.44749 -0.434236 0)
(1.46702 -0.383649 0)
(1.46067 -0.326309 0)
(1.43508 -0.271209 0)
(1.40416 -0.22056 0)
(1.37272 -0.181918 0)
(1.34847 -0.151596 0)
(1.34013 -0.120307 0)
(1.34819 -0.0825481 0)
(1.36572 -0.0367146 0)
(1.38913 0.0178569 0)
(1.41392 0.0799623 0)
(1.43701 0.148518 0)
(1.45348 0.221383 0)
(1.45741 0.29299 0)
(1.44462 0.355339 0)
(1.41401 0.400328 0)
(1.368 0.422381 0)
(1.31213 0.420485 0)
(1.25335 0.398368 0)
(1.19781 0.362651 0)
(1.14942 0.320283 0)
(1.10978 0.276767 0)
(1.0788 0.235649 0)
(1.05545 0.198783 0)
(1.03834 0.166833 0)
(1.02607 0.13974 0)
(1.01745 0.117059 0)
(1.0115 0.0981972 0)
(1.00745 0.0825463 0)
(1.0047 0.0695528 0)
(1.00282 0.0587394 0)
(1.00151 0.0497061 0)
(1.00057 0.0421245 0)
(0.999887 0.0357302 0)
(0.999406 0.0303143 0)
(0.999083 0.0257133 0)
(0.998888 0.0217999 0)
(0.998796 0.0184712 0)
(0.998778 0.0156454 0)
(0.998813 0.013248 0)
(0.998879 0.0112248 0)
(0.998968 0.00950973 0)
(0.999059 0.00808339 0)
(0.999169 0.00685875 0)
(0.999256 0.0058979 0)
(0.999388 0.00499619 0)
(0.999443 0.00447391 0)
(0.999636 0.00366493 0)
(0.999759 -0.00748722 0)
(0.999353 -0.0232535 0)
(0.996604 -0.039432 0)
(0.995526 -0.0587065 0)
(0.989409 -0.0787683 0)
(0.990129 -0.106567 0)
(0.979017 -0.133582 0)
(0.988728 -0.178922 0)
(0.97175 -0.217026 0)
(1.00706 -0.294637 0)
(1.00207 -0.357204 0)
(1.07646 -0.456333 0)
(1.16865 -0.594784 0)
(1.25508 -0.621377 0)
(1.28495 -0.560962 0)
(1.25066 -0.467785 0)
(1.17186 -0.371493 0)
(1.08617 -0.281943 0)
(0.989565 -0.210502 0)
(0.915008 -0.147796 0)
(0.838671 -0.114121 0)
(0.793764 -0.0988146 0)
(0.798653 -0.085418 0)
(0.835501 -0.0653782 0)
(0.883699 -0.035316 0)
(0.936848 0.00753824 0)
(0.991179 0.0630451 0)
(1.04675 0.130925 0)
(1.10051 0.207507 0)
(1.1463 0.287004 0)
(1.17869 0.361136 0)
(1.19412 0.420055 0)
(1.19187 0.455294 0)
(1.17474 0.462995 0)
(1.14808 0.445207 0)
(1.11766 0.40854 0)
(1.08795 0.36128 0)
(1.06172 0.310807 0)
(1.04025 0.262323 0)
(1.02376 0.218736 0)
(1.01182 0.181174 0)
(1.00365 0.149658 0)
(0.998374 0.123653 0)
(0.995166 0.102413 0)
(0.993321 0.0851603 0)
(0.992325 0.0711566 0)
(0.991851 0.0597411 0)
(0.991722 0.0503527 0)
(0.991851 0.0425433 0)
(0.992192 0.035977 0)
(0.992704 0.0304139 0)
(0.993339 0.025685 0)
(0.99404 0.0216679 0)
(0.994757 0.018265 0)
(0.995445 0.0153948 0)
(0.996079 0.0129787 0)
(0.99664 0.0109554 0)
(0.997138 0.00925209 0)
(0.997557 0.00784191 0)
(0.997948 0.00663561 0)
(0.998248 0.00568926 0)
(0.998598 0.00480278 0)
(0.99877 0.0042871 0)
(0.999196 0.00348974 0)
(0.999679 -0.00682647 0)
(0.998579 -0.0211773 0)
(0.994005 -0.0360555 0)
(0.990757 -0.0538677 0)
(0.980086 -0.072688 0)
(0.97722 -0.0992995 0)
(0.955358 -0.124941 0)
(0.962218 -0.171969 0)
(0.915141 -0.205714 0)
(0.962683 -0.304459 0)
(0.864815 -0.344591 0)
(1.02968 -0.562775 0)
(0.977892 -0.717706 0)
(0.957021 -0.63343 0)
(0.847995 -0.478574 0)
(0.686467 -0.328424 0)
(0.531018 -0.207026 0)
(0.414148 -0.121412 0)
(0.316473 -0.0760444 0)
(0.263407 -0.0154472 0)
(0.222813 -0.0729315 0)
(0.293114 -0.145216 0)
(0.3978 -0.172594 0)
(0.486792 -0.163062 0)
(0.553662 -0.128206 0)
(0.605378 -0.0764589 0)
(0.648548 -0.0118726 0)
(0.692692 0.0639344 0)
(0.738498 0.147936 0)
(0.786894 0.236342 0)
(0.835314 0.32189 0)
(0.878821 0.394219 0)
(0.913293 0.443195 0)
(0.937458 0.463077 0)
(0.95264 0.454419 0)
(0.961239 0.423149 0)
(0.965499 0.377774 0)
(0.967203 0.326533 0)
(0.967708 0.275669 0)
(0.967938 0.229007 0)
(0.968392 0.188366 0)
(0.969227 0.154215 0)
(0.970401 0.12623 0)
(0.97181 0.103663 0)
(0.973385 0.085591 0)
(0.975115 0.0710828 0)
(0.977013 0.059315 0)
(0.979084 0.0496342 0)
(0.981289 0.0415675 0)
(0.983551 0.0347938 0)
(0.98577 0.0290974 0)
(0.987853 0.0243225 0)
(0.989727 0.0203418 0)
(0.991356 0.0170386 0)
(0.992733 0.0143055 0)
(0.993881 0.0120396 0)
(0.994827 0.0101601 0)
(0.995623 0.00858376 0)
(0.996277 0.00727694 0)
(0.996873 0.00615422 0)
(0.997335 0.0052677 0)
(0.997865 0.00443258 0)
(0.998132 0.0039433 0)
(0.998772 0.00318389 0)
(0.999681 -0.00580907 0)
(0.997672 -0.0179068 0)
(0.991782 -0.0307475 0)
(0.98559 -0.0457767 0)
(0.972001 -0.0626272 0)
(0.962612 -0.0850497 0)
(0.935433 -0.109564 0)
(0.92874 -0.149101 0)
(0.869085 -0.18426 0)
(0.892408 -0.271844 0)
(0.724663 -0.301097 0)
(0.911753 -0.590183 0)
(0.333712 -0.394633 0)
(0.237826 -0.239145 0)
(0.118307 -0.179872 0)
(0.0548326 -0.137923 0)
(0.0288725 -0.098769 0)
(0.0176805 -0.0696111 0)
(0.0141573 -0.0493007 0)
(0.00967925 -0.0338945 0)
(0.105785 -0.248633 0)
(0.196016 -0.316315 0)
(0.266698 -0.301545 0)
(0.302105 -0.251677 0)
(0.319666 -0.186417 0)
(0.329422 -0.11492 0)
(0.338257 -0.0410421 0)
(0.352476 0.0333767 0)
(0.374849 0.112311 0)
(0.409992 0.19446 0)
(0.458321 0.274958 0)
(0.515267 0.346074 0)
(0.575288 0.397696 0)
(0.63447 0.423018 0)
(0.69039 0.421171 0)
(0.741308 0.396775 0)
(0.785903 0.357441 0)
(0.823569 0.311015 0)
(0.854482 0.263743 0)
(0.879371 0.21969 0)
(0.899215 0.180972 0)
(0.915027 0.148278 0)
(0.927748 0.121377 0)
(0.938193 0.0995423 0)
(0.947013 0.0818736 0)
(0.954671 0.0675134 0)
(0.961447 0.055756 0)
(0.967466 0.0460724 0)
(0.972764 0.0380832 0)
(0.977337 0.0315094 0)
(0.981192 0.0261279 0)
(0.984369 0.0217433 0)
(0.98694 0.0181773 0)
(0.989003 0.0152676 0)
(0.990659 0.012876 0)
(0.992012 0.0108865 0)
(0.993132 0.00921745 0)
(0.994103 0.0077965 0)
(0.994931 0.00659941 0)
(0.995714 0.0055587 0)
(0.996341 0.00472704 0)
(0.997066 0.00394365 0)
(0.997445 0.00347877 0)
(0.998319 0.00276575 0)
(0.999686 -0.00443323 0)
(0.996875 -0.0136263 0)
(0.989873 -0.0235314 0)
(0.981052 -0.0349564 0)
(0.965081 -0.0483395 0)
(0.949486 -0.065207 0)
(0.918886 -0.0859919 0)
(0.896812 -0.11412 0)
(0.83614 -0.149214 0)
(0.815377 -0.201403 0)
(0.672812 -0.257104 0)
(0.735172 -0.384484 0)
(0.312308 -0.266813 0)
(0.300573 -0.254282 0)
(0.208096 -0.231728 0)
(0.12878 -0.18281 0)
(0.0774425 -0.129599 0)
(0.0451723 -0.0886752 0)
(0.0283954 -0.0652896 0)
(0.0190981 -0.0724376 0)
(0.0862827 -0.299437 0)
(0.036959 -0.305088 0)
(0.0106921 -0.256843 0)
(-0.0295553 -0.200482 0)
(-0.0568804 -0.141606 0)
(-0.0741337 -0.0833857 0)
(-0.0801993 -0.0246167 0)
(-0.0765304 0.0367161 0)
(-0.0550544 0.101219 0)
(-0.0147287 0.167138 0)
(0.0453265 0.23129 0)
(0.120906 0.287604 0)
(0.20733 0.328734 0)
(0.300555 0.349274 0)
(0.395868 0.348308 0)
(0.488244 0.329175 0)
(0.573345 0.297816 0)
(0.648344 0.260496 0)
(0.712115 0.222218 0)
(0.764952 0.186248 0)
(0.808041 0.154307 0)
(0.84294 0.126972 0)
(0.871217 0.104118 0)
(0.894246 0.085262 0)
(0.913121 0.0698132 0)
(0.928654 0.0572046 0)
(0.941431 0.0469475 0)
(0.951888 0.0386352 0)
(0.960377 0.0319259 0)
(0.967213 0.0265242 0)
(0.97269 0.0221713 0)
(0.97708 0.0186422 0)
(0.980624 0.0157493 0)
(0.98353 0.013342 0)
(0.985952 0.0113092 0)
(0.988017 0.00956935 0)
(0.989794 0.00807303 0)
(0.991363 0.00677779 0)
(0.992715 0.00567553 0)
(0.99396 0.00471929 0)
(0.994957 0.00395422 0)
(0.996024 0.00324811 0)
(0.996609 0.00282426 0)
(0.997794 0.0021972 0)
(0.999653 -0.00277076 0)
(0.996364 -0.00855163 0)
(0.988322 -0.014742 0)
(0.977973 -0.0220207 0)
(0.959427 -0.0303624 0)
(0.940784 -0.0413968 0)
(0.904623 -0.0541123 0)
(0.877467 -0.0732782 0)
(0.80501 -0.0931133 0)
(0.779189 -0.129926 0)
(0.615643 -0.152732 0)
(0.684684 -0.238318 0)
(0.291273 -0.144307 0)
(0.300366 -0.113148 0)
(0.215525 -0.0978953 0)
(0.13901 -0.0804197 0)
(0.0868597 -0.0618018 0)
(0.0509842 -0.0475389 0)
(0.0235122 -0.0420913 0)
(0.0151821 -0.0736005 0)
(-0.0239506 -0.234205 0)
(-0.189803 -0.213853 0)
(-0.284846 -0.181742 0)
(-0.376195 -0.143046 0)
(-0.438283 -0.100165 0)
(-0.480862 -0.0579102 0)
(-0.498496 -0.0149743 0)
(-0.497664 0.0297998 0)
(-0.470875 0.0752255 0)
(-0.420383 0.120597 0)
(-0.345784 0.162996 0)
(-0.249481 0.198803 0)
(-0.135791 0.224126 0)
(-0.0105013 0.23592 0)
(0.119566 0.233877 0)
(0.247117 0.220231 0)
(0.366224 0.198983 0)
(0.472743 0.17424 0)
(0.56473 0.149035 0)
(0.642195 0.125325 0)
(0.70637 0.104164 0)
(0.759028 0.0859401 0)
(0.802029 0.070628 0)
(0.83708 0.057978 0)
(0.865639 0.0476479 0)
(0.888911 0.0392778 0)
(0.907884 0.0325277 0)
(0.923376 0.0270922 0)
(0.936064 0.0227048 0)
(0.946507 0.0191389 0)
(0.955162 0.0162072 0)
(0.962394 0.0137612 0)
(0.968482 0.0116885 0)
(0.973643 0.00990805 0)
(0.978031 0.00836543 0)
(0.981775 0.00702338 0)
(0.984952 0.00586096 0)
(0.987664 0.00485701 0)
(0.989924 0.00400822 0)
(0.991886 0.00328287 0)
(0.993421 0.0027076 0)
(0.994926 0.00219016 0)
(0.995774 0.00187784 0)
(0.997293 0.00143254 0)
(0.999645 -0.000946264 0)
(0.996072 -0.00290751 0)
(0.987539 -0.00503582 0)
(0.976257 -0.00749315 0)
(0.956573 -0.01041 0)
(0.935863 -0.0140902 0)
(0.897656 -0.0186698 0)
(0.866299 -0.0248664 0)
(0.791162 -0.0323053 0)
(0.757889 -0.0434387 0)
(0.594251 -0.0526569 0)
(0.653361 -0.0777957 0)
(0.27431 -0.0453833 0)
(0.293767 -0.0417397 0)
(0.218877 -0.0407191 0)
(0.147301 -0.034316 0)
(0.0947928 -0.0259014 0)
(0.0557928 -0.0193701 0)
(0.0195623 -0.0170436 0)
(0.00724729 -0.0313788 0)
(-0.103888 -0.0862078 0)
(-0.330073 -0.0776719 0)
(-0.470518 -0.0647435 0)
(-0.597944 -0.050432 0)
(-0.686348 -0.0354669 0)
(-0.746767 -0.0204406 0)
(-0.773973 -0.00511436 0)
(-0.773403 0.0107502 0)
(-0.743213 0.0272774 0)
(-0.68555 0.0437938 0)
(-0.600125 0.0590482 0)
(-0.489786 0.0716248 0)
(-0.359183 0.0801433 0)
(-0.214981 0.0837113 0)
(-0.0648456 0.0824941 0)
(0.0830684 0.077248 0)
(0.222139 0.0695304 0)
(0.347443 0.060809 0)
(0.45645 0.05205 0)
(0.549013 0.0438735 0)
(0.626368 0.0366114 0)
(0.690376 0.03038 0)
(0.743064 0.0251577 0)
(0.786355 0.0208477 0)
(0.821951 0.0173223 0)
(0.851301 0.0144498 0)
(0.875603 0.0121092 0)
(0.895835 0.0101951 0)
(0.912778 0.00861937 0)
(0.927049 0.00730972 0)
(0.939127 0.00620855 0)
(0.949379 0.00527131 0)
(0.958089 0.00446501 0)
(0.965478 0.003766 0)
(0.971721 0.00315835 0)
(0.976973 0.00263068 0)
(0.981351 0.00217608 0)
(0.985001 0.00178677 0)
(0.987977 0.00146052 0)
(0.990482 0.001185 0)
(0.99241 0.000968079 0)
(0.99422 0.000775988 0)
(0.995252 0.00065984 0)
(0.996987 0.000497704 0)
(0.999645 0.000947074 0)
(0.996072 0.00290796 0)
(0.987539 0.0050358 0)
(0.976257 0.00749261 0)
(0.956573 0.0104088 0)
(0.935863 0.0140883 0)
(0.897655 0.0186673 0)
(0.866299 0.0248631 0)
(0.791162 0.0323013 0)
(0.757888 0.043434 0)
(0.594251 0.0526517 0)
(0.653361 0.0777891 0)
(0.27431 0.0453799 0)
(0.293767 0.0417369 0)
(0.218877 0.0407159 0)
(0.147301 0.0343119 0)
(0.0947924 0.0258964 0)
(0.0557923 0.0193637 0)
(0.0195608 0.0170351 0)
(0.00724519 0.0313614 0)
(-0.1039 0.0861583 0)
(-0.330091 0.077626 0)
(-0.470542 0.0647086 0)
(-0.597973 0.0504106 0)
(-0.68638 0.0354612 0)
(-0.746802 0.0204495 0)
(-0.774011 0.00513581 0)
(-0.77344 -0.0107177 0)
(-0.743248 -0.0272343 0)
(-0.685584 -0.0437402 0)
(-0.600156 -0.058985 0)
(-0.489814 -0.0715543 0)
(-0.359207 -0.0800705 0)
(-0.215002 -0.0836429 0)
(-0.0648636 -0.0824357 0)
(0.0830542 -0.0772035 0)
(0.222128 -0.0695012 0)
(0.347436 -0.0607941 0)
(0.456446 -0.0520466 0)
(0.549013 -0.0438785 0)
(0.626369 -0.0366218 0)
(0.690379 -0.0303934 0)
(0.743068 -0.0251723 0)
(0.786359 -0.0208625 0)
(0.821955 -0.0173366 0)
(0.851305 -0.0144635 0)
(0.875607 -0.0121222 0)
(0.895839 -0.0102075 0)
(0.912782 -0.00863131 0)
(0.927053 -0.00732124 0)
(0.93913 -0.00621971 0)
(0.949382 -0.00528215 0)
(0.958091 -0.00447552 0)
(0.96548 -0.00377615 0)
(0.971722 -0.0031681 0)
(0.976975 -0.00263998 0)
(0.981353 -0.0021849 0)
(0.985002 -0.00179507 0)
(0.987978 -0.00146831 0)
(0.990483 -0.00119224 0)
(0.992411 -0.000974848 0)
(0.994221 -0.000782177 0)
(0.995252 -0.000665729 0)
(0.996988 -0.000502863 0)
(0.999653 0.00277157 0)
(0.996364 0.0085521 0)
(0.988322 0.014742 0)
(0.977973 0.0220202 0)
(0.959427 0.0303613 0)
(0.940784 0.041395 0)
(0.904622 0.0541098 0)
(0.877466 0.073275 0)
(0.805009 0.0931094 0)
(0.779188 0.129921 0)
(0.615642 0.152727 0)
(0.684683 0.238311 0)
(0.291272 0.144304 0)
(0.300366 0.113145 0)
(0.215524 0.0978922 0)
(0.139009 0.0804158 0)
(0.0868588 0.0617971 0)
(0.0509828 0.0475333 0)
(0.0235088 0.0420846 0)
(0.0151787 0.0735916 0)
(-0.0239725 0.234166 0)
(-0.189839 0.213815 0)
(-0.284898 0.181716 0)
(-0.376259 0.143028 0)
(-0.438355 0.100162 0)
(-0.480942 0.0579198 0)
(-0.498577 0.014993 0)
(-0.497744 -0.0297705 0)
(-0.470952 -0.0751889 0)
(-0.420455 -0.120552 0)
(-0.345849 -0.162943 0)
(-0.249537 -0.198742 0)
(-0.13584 -0.224062 0)
(-0.0105429 -0.235859 0)
(0.119532 -0.233825 0)
(0.247091 -0.220193 0)
(0.366207 -0.198961 0)
(0.472734 -0.174232 0)
(0.564729 -0.149037 0)
(0.6422 -0.125334 0)
(0.706379 -0.104177 0)
(0.759041 -0.0859554 0)
(0.802044 -0.0706437 0)
(0.837096 -0.0579933 0)
(0.865654 -0.0476624 0)
(0.888925 -0.0392914 0)
(0.907898 -0.0325404 0)
(0.923389 -0.0271042 0)
(0.936075 -0.0227162 0)
(0.946517 -0.0191498 0)
(0.955171 -0.0162178 0)
(0.962401 -0.0137715 0)
(0.968489 -0.0116984 0)
(0.973649 -0.00991764 0)
(0.978036 -0.00837466 0)
(0.981779 -0.00703221 0)
(0.984956 -0.00586936 0)
(0.987667 -0.00486494 0)
(0.989927 -0.00401569 0)
(0.991889 -0.00328984 0)
(0.993423 -0.00271413 0)
(0.994927 -0.00219615 0)
(0.995775 -0.00188356 0)
(0.997295 -0.00143757 0)
(0.999686 0.00443404 0)
(0.996875 0.0136268 0)
(0.989873 0.0235315 0)
(0.981052 0.0349559 0)
(0.965081 0.0483385 0)
(0.949486 0.0652053 0)
(0.918886 0.0859896 0)
(0.896812 0.114117 0)
(0.836139 0.149211 0)
(0.815376 0.201399 0)
(0.67281 0.257099 0)
(0.735171 0.384477 0)
(0.312307 0.266809 0)
(0.300571 0.254279 0)
(0.208095 0.231725 0)
(0.128779 0.182806 0)
(0.0774412 0.129594 0)
(0.0451707 0.0886701 0)
(0.0283923 0.0652847 0)
(0.0190957 0.072436 0)
(0.0862659 0.299416 0)
(0.0369264 0.305062 0)
(0.0106394 0.256823 0)
(-0.0296274 0.200474 0)
(-0.056958 0.14161 0)
(-0.0742169 0.0833989 0)
(-0.0802821 0.0246357 0)
(-0.0766098 -0.0366945 0)
(-0.0551306 -0.101195 0)
(-0.0148003 -0.167107 0)
(0.045264 -0.23125 0)
(0.120855 -0.287554 0)
(0.207288 -0.328679 0)
(0.300522 -0.349221 0)
(0.395845 -0.348266 0)
(0.48823 -0.329148 0)
(0.573339 -0.297804 0)
(0.648348 -0.260498 0)
(0.712127 -0.222228 0)
(0.76497 -0.186265 0)
(0.808064 -0.154325 0)
(0.842966 -0.126991 0)
(0.871245 -0.104135 0)
(0.894274 -0.0852772 0)
(0.913148 -0.0698267 0)
(0.92868 -0.0572166 0)
(0.941454 -0.0469585 0)
(0.951908 -0.0386455 0)
(0.960396 -0.0319356 0)
(0.96723 -0.0265336 0)
(0.972704 -0.0221804 0)
(0.977092 -0.0186511 0)
(0.980635 -0.0157579 0)
(0.983539 -0.0133505 0)
(0.98596 -0.0113174 0)
(0.988024 -0.00957727 0)
(0.9898 -0.00808062 0)
(0.991368 -0.00678502 0)
(0.992719 -0.00568239 0)
(0.993963 -0.00472574 0)
(0.99496 -0.00396032 0)
(0.996027 -0.00325374 0)
(0.996611 -0.00282966 0)
(0.997796 -0.00220198 0)
(0.999681 0.00580989 0)
(0.997672 0.0179073 0)
(0.991782 0.0307476 0)
(0.98559 0.0457763 0)
(0.972001 0.0626263 0)
(0.962612 0.0850482 0)
(0.935432 0.109562 0)
(0.928739 0.149098 0)
(0.869083 0.184257 0)
(0.892407 0.271839 0)
(0.724662 0.301093 0)
(0.911751 0.590176 0)
(0.33371 0.39463 0)
(0.237825 0.239143 0)
(0.118306 0.17987 0)
(0.054832 0.13792 0)
(0.0288717 0.0987655 0)
(0.0176796 0.0696075 0)
(0.0141559 0.0492978 0)
(0.0096786 0.0338952 0)
(0.105782 0.248631 0)
(0.196001 0.316309 0)
(0.266672 0.301539 0)
(0.302068 0.251681 0)
(0.319621 0.186428 0)
(0.329373 0.114936 0)
(0.338207 0.0410615 0)
(0.352428 -0.033357 0)
(0.374804 -0.112291 0)
(0.409949 -0.194437 0)
(0.458283 -0.274925 0)
(0.515237 -0.346033 0)
(0.575266 -0.397649 0)
(0.634457 -0.422973 0)
(0.690387 -0.421136 0)
(0.741315 -0.396756 0)
(0.78592 -0.357438 0)
(0.823592 -0.311024 0)
(0.854511 -0.263761 0)
(0.879405 -0.219711 0)
(0.899251 -0.180994 0)
(0.915064 -0.148299 0)
(0.927785 -0.121395 0)
(0.938229 -0.0995569 0)
(0.947047 -0.0818854 0)
(0.954703 -0.0675231 0)
(0.961476 -0.0557641 0)
(0.967493 -0.0460797 0)
(0.972787 -0.0380901 0)
(0.977357 -0.0315161 0)
(0.98121 -0.0261346 0)
(0.984384 -0.0217501 0)
(0.986953 -0.0181841 0)
(0.989014 -0.0152744 0)
(0.990669 -0.0128827 0)
(0.99202 -0.0108931 0)
(0.993139 -0.00922397 0)
(0.994109 -0.00780281 0)
(0.994936 -0.00660548 0)
(0.995719 -0.00556448 0)
(0.996345 -0.00473256 0)
(0.99707 -0.0039488 0)
(0.997448 -0.00348374 0)
(0.998321 -0.0027702 0)
(0.999679 0.0068273 0)
(0.998579 0.0211779 0)
(0.994005 0.0360556 0)
(0.990757 0.0538675 0)
(0.980086 0.0726872 0)
(0.97722 0.0992981 0)
(0.955358 0.124939 0)
(0.962217 0.171966 0)
(0.91514 0.205711 0)
(0.962681 0.304455 0)