/*--------------------------------*- C++ -*----------------------------------*\
  =========                 |
  \\      /  F ield         | OpenFOAM: The Open Source CFD Toolbox
   \\    /   O peration     | Website:  https://openfoam.org
    \\  /    A nd           | Version:  10
     \\/     M anipulation  |
\*---------------------------------------------------------------------------*/
FoamFile
{
    format      ascii;
    class       volVectorField;
    location    "0.06";
    object      UMean;
}
// * * * * * * * * * * * * * * * * * * * * * * * * * * * * * * * * * * * * * //

dimensions      [0 1 -1 0 0 0 0];

internalField   nonuniform List<vector> 
12225
(
(9.84744 0.046212 0)
(9.56217 0.0615311 0)
(9.26745 0.0592588 0)
(8.9661 0.0575881 0)
(8.67095 0.0565556 0)
(8.38798 0.0555297 0)
(8.11747 0.0539188 0)
(7.85849 0.0529028 0)
(7.60857 0.0510404 0)
(7.36829 0.0510686 0)
(7.13295 0.0487739 0)
(6.90758 0.0513635 0)
(6.6775 0.0475528 0)
(6.46257 0.0564462 0)
(6.21815 0.0480578 0)
(6.0105 0.0722711 0)
(5.71666 0.0490502 0)
(5.52097 0.104895 0)
(10.0143 0.0509094 0)
(10.0817 0.0730447 0)
(10.1234 0.0723911 0)
(10.137 0.0733193 0)
(10.1339 0.0762493 0)
(10.1218 0.0787274 0)
(10.1021 0.0808434 0)
(10.0765 0.0823528 0)
(10.0432 0.0845472 0)
(10.0055 0.0860489 0)
(9.95905 0.0894194 0)
(9.91122 0.0912028 0)
(9.85145 0.0976037 0)
(9.7942 0.100297 0)
(9.71713 0.113564 0)
(9.64866 0.11784 0)
(9.54751 0.140698 0)
(9.45928 0.139037 0)
(10.0055 0.0322297 0)
(10.0456 0.0539124 0)
(10.0772 0.0561002 0)
(10.0944 0.0578274 0)
(10.1047 0.0616819 0)
(10.1138 0.0658077 0)
(10.123 0.0688264 0)
(10.1314 0.0720095 0)
(10.1388 0.0744929 0)
(10.1442 0.0785509 0)
(10.1485 0.0814017 0)
(10.1503 0.0876508 0)
(10.1521 0.0917157 0)
(10.1508 0.102552 0)
(10.152 0.110091 0)
(10.15 0.127884 0)
(10.1564 0.140674 0)
(10.1597 0.152087 0)
(9.99521 0.027618 0)
(10.0261 0.0559425 0)
(10.052 0.0613585 0)
(10.0664 0.0627576 0)
(10.0744 0.066152 0)
(10.0809 0.0700786 0)
(10.0876 0.0734491 0)
(10.0944 0.0760941 0)
(10.1006 0.0789487 0)
(10.1061 0.0818996 0)
(10.1112 0.0859306 0)
(10.1158 0.0903554 0)
(10.1206 0.0967681 0)
(10.1258 0.104224 0)
(10.1332 0.114661 0)
(10.1437 0.126733 0)
(10.1601 0.138464 0)
(10.183 0.146556 0)
(9.98816 0.0233229 0)
(10.0134 0.0472054 0)
(10.0359 0.0538804 0)
(10.0497 0.0556136 0)
(10.0577 0.058663 0)
(10.0637 0.0628189 0)
(10.0697 0.0664924 0)
(10.0757 0.0697148 0)
(10.0813 0.0726587 0)
(10.0864 0.0761583 0)
(10.0909 0.0800784 0)
(10.0953 0.0851244 0)
(10.0997 0.0911104 0)
(10.105 0.0986778 0)
(10.1119 0.107738 0)
(10.122 0.117308 0)
(10.1356 0.126124 0)
(10.153 0.128483 0)
(9.98156 0.0170541 0)
(10.003 0.0431278 0)
(10.0228 0.0524998 0)
(10.0362 0.0555683 0)
(10.0448 0.0588782 0)
(10.0514 0.0631436 0)
(10.0576 0.0671889 0)
(10.0638 0.0705896 0)
(10.0695 0.0737349 0)
(10.0747 0.0771347 0)
(10.0795 0.0810705 0)
(10.0842 0.0858171 0)
(10.0892 0.0914606 0)
(10.0951 0.0982137 0)
(10.1025 0.105697 0)
(10.1124 0.113263 0)
(10.1244 0.118934 0)
(10.1383 0.120365 0)
(9.98132 0.0161678 0)
(9.99728 0.0380742 0)
(10.0131 0.0478918 0)
(10.025 0.0516287 0)
(10.0335 0.0547275 0)
(10.0402 0.058686 0)
(10.0465 0.0627239 0)
(10.0529 0.0662923 0)
(10.059 0.0696024 0)
(10.0646 0.0731385 0)
(10.0698 0.077197 0)
(10.0749 0.0819184 0)
(10.0802 0.0873706 0)
(10.0864 0.093466 0)
(10.0937 0.0998925 0)
(10.1028 0.105889 0)
(10.1131 0.110224 0)
(10.1244 0.111795 0)
(9.99596 0.0136125 0)
(10.0107 0.0327783 0)
(10.0243 0.0441801 0)
(10.0348 0.0494285 0)
(10.0428 0.0529497 0)
(10.0493 0.0568394 0)
(10.055 0.0609544 0)
(10.0606 0.0648134 0)
(10.0661 0.0683965 0)
(10.0713 0.0720382 0)
(10.0764 0.0760135 0)
(10.0816 0.0804817 0)
(10.0871 0.0854442 0)
(10.0933 0.0907991 0)
(10.1003 0.0961823 0)
(10.1083 0.101052 0)
(10.117 0.1046 0)
(10.1259 0.106263 0)
(9.99222 0.0126611 0)
(10.0048 0.0298875 0)
(10.0157 0.0407594 0)
(10.0247 0.0465247 0)
(10.0326 0.0503086 0)
(10.0395 0.0540525 0)
(10.0457 0.0579728 0)
(10.0518 0.0617481 0)
(10.0579 0.065297 0)
(10.0639 0.0688382 0)
(10.0698 0.0726504 0)
(10.0758 0.0768835 0)
(10.082 0.0814958 0)
(10.0888 0.0863283 0)
(10.096 0.0910382 0)
(10.104 0.0952655 0)
(10.1122 0.0984393 0)
(10.1206 0.100395 0)
(9.9816 0.01137 0)
(9.99345 0.0259826 0)
(10.0035 0.0364235 0)
(10.0118 0.0429816 0)
(10.0199 0.0473599 0)
(10.0274 0.0511371 0)
(10.0341 0.0549179 0)
(10.0403 0.0586887 0)
(10.0462 0.0623457 0)
(10.0519 0.0659723 0)
(10.0576 0.0696997 0)
(10.0634 0.0736527 0)
(10.0695 0.0777911 0)
(10.0763 0.0820539 0)
(10.0833 0.0861276 0)
(10.0911 0.0898453 0)
(10.0987 0.0927295 0)
(10.1068 0.0949041 0)
(9.97044 0.0107486 0)
(9.98127 0.0237972 0)
(9.98974 0.0330528 0)
(9.99693 0.0394395 0)
(10.0042 0.0440327 0)
(10.0111 0.0478952 0)
(10.0175 0.0517068 0)
(10.0235 0.0555518 0)
(10.0295 0.0592815 0)
(10.0355 0.0628852 0)
(10.0413 0.0664458 0)
(10.0473 0.0701093 0)
(10.0533 0.0738392 0)
(10.0597 0.077638 0)
(10.0663 0.0812224 0)
(10.0733 0.0845601 0)
(10.0804 0.0872437 0)
(10.0876 0.0895464 0)
(9.99021 0.00994972 0)
(9.99969 0.0211742 0)
(10.0073 0.0300281 0)
(10.0137 0.0366702 0)
(10.0203 0.0414783 0)
(10.0267 0.045329 0)
(10.0329 0.0489235 0)
(10.0389 0.0525207 0)
(10.0449 0.0560823 0)
(10.0509 0.059575 0)
(10.0571 0.0630083 0)
(10.0633 0.0664832 0)
(10.0696 0.0699414 0)
(10.076 0.0733932 0)
(10.0825 0.0765938 0)
(10.089 0.0795958 0)
(10.0957 0.0820513 0)
(10.1019 0.0843325 0)
(9.99198 0.0103284 0)
(10.0017 0.0179678 0)
(10.0089 0.0264269 0)
(10.0149 0.0332102 0)
(10.0214 0.0381042 0)
(10.028 0.0419667 0)
(10.0344 0.0454826 0)
(10.0405 0.0489319 0)
(10.0466 0.0523013 0)
(10.0529 0.0555973 0)
(10.0593 0.058821 0)
(10.0659 0.062057 0)
(10.0726 0.0652798 0)
(10.0794 0.0685105 0)
(10.0862 0.071563 0)
(10.0929 0.0744848 0)
(10.0997 0.0769987 0)
(10.106 0.0794104 0)
(10.0072 0.00996402 0)
(10.0193 0.0168467 0)
(10.0269 0.0241922 0)
(10.0317 0.0303192 0)
(10.037 0.0350263 0)
(10.0432 0.0388648 0)
(10.0498 0.0423545 0)
(10.0562 0.0456673 0)
(10.0624 0.0488046 0)
(10.0684 0.0518095 0)
(10.0745 0.0547394 0)
(10.0806 0.0576804 0)
(10.0868 0.0605834 0)
(10.0932 0.0634824 0)
(10.0998 0.0661795 0)
(10.1064 0.0688016 0)
(10.1133 0.07102 0)
(10.1199 0.0732881 0)
(10.0036 0.00409375 0)
(10.0145 0.0130756 0)
(10.0213 0.0198745 0)
(10.0254 0.0251541 0)
(10.03 0.0294459 0)
(10.0357 0.0331048 0)
(10.0421 0.0363965 0)
(10.0485 0.0395182 0)
(10.055 0.0425402 0)
(10.0614 0.0454701 0)
(10.068 0.048259 0)
(10.0747 0.0509311 0)
(10.0815 0.0534462 0)
(10.0883 0.0558905 0)
(10.0952 0.0581521 0)
(10.1022 0.0603996 0)
(10.1091 0.0623623 0)
(10.1161 0.0644313 0)
(10.0033 0.00606055 0)
(10.0132 0.0131412 0)
(10.0193 0.0182307 0)
(10.0233 0.0225399 0)
(10.0281 0.0264318 0)
(10.0339 0.0298583 0)
(10.0403 0.0327938 0)
(10.0468 0.0353726 0)
(10.0531 0.0377478 0)
(10.0594 0.0400538 0)
(10.0658 0.0422998 0)
(10.0723 0.0445366 0)
(10.0788 0.0466863 0)
(10.0854 0.0488363 0)
(10.092 0.0508097 0)
(10.0986 0.0527939 0)
(10.1051 0.0544407 0)
(10.1118 0.0562041 0)
(9.99094 -6.16146e-06 0)
(9.99928 0.0058394 0)
(10.0041 0.0104292 0)
(10.0074 0.0142948 0)
(10.0117 0.0175987 0)
(10.0173 0.0204708 0)
(10.0235 0.0230419 0)
(10.0299 0.0253967 0)
(10.0363 0.0275647 0)
(10.0427 0.0295984 0)
(10.0492 0.031494 0)
(10.0558 0.0333054 0)
(10.0624 0.0349756 0)
(10.0692 0.0365922 0)
(10.076 0.0380133 0)
(10.0828 0.039416 0)
(10.0896 0.0405127 0)
(10.0965 0.0417066 0)
(10.0019 0.00826611 0)
(10.011 0.00888209 0)
(10.0161 0.0105343 0)
(10.0192 0.0126094 0)
(10.0232 0.0147052 0)
(10.0287 0.0166327 0)
(10.0351 0.0183421 0)
(10.0417 0.0198886 0)
(10.0482 0.0213344 0)
(10.0545 0.0227302 0)
(10.0609 0.0240391 0)
(10.0672 0.0252775 0)
(10.0736 0.0263896 0)
(10.08 0.0274619 0)
(10.0865 0.0284016 0)
(10.0929 0.0293788 0)
(10.0993 0.030148 0)
(10.1056 0.0310383 0)
(9.99139 -0.00425164 0)
(10.0031 -0.0021979 0)
(10.0104 -0.000782292 0)
(10.0144 0.000215971 0)
(10.0186 0.00109768 0)
(10.0238 0.00201276 0)
(10.0298 0.00297605 0)
(10.036 0.00400244 0)
(10.0423 0.00505758 0)
(10.0486 0.00608982 0)
(10.0547 0.00701544 0)
(10.0608 0.0078216 0)
(10.0668 0.00845069 0)
(10.0728 0.00896579 0)
(10.0787 0.00929046 0)
(10.0846 0.00956857 0)
(10.0904 0.00962221 0)
(10.0963 0.00972544 0)
(9.99162 -0.00262905 0)
(9.9996 -0.00200219 0)
(10.0041 -0.00234142 0)
(10.0074 -0.0025221 0)
(10.0119 -0.00228337 0)
(10.0175 -0.00187799 0)
(10.0236 -0.00151169 0)
(10.0296 -0.00117281 0)
(10.0355 -0.000769322 0)
(10.0414 -0.000239238 0)
(10.0473 0.000359747 0)
(10.0533 0.000955011 0)
(10.0593 0.00142501 0)
(10.0653 0.00176313 0)
(10.0712 0.00188779 0)
(10.077 0.00189688 0)
(10.0826 0.00166715 0)
(10.0882 0.00139803 0)
(9.98073 -0.00217072 0)
(9.9886 -0.00652817 0)
(9.99345 -0.00936937 0)
(9.99701 -0.0109657 0)
(10.0017 -0.0118079 0)
(10.0074 -0.0122259 0)
(10.0135 -0.0123868 0)
(10.0196 -0.0124196 0)
(10.0256 -0.0124289 0)
(10.0317 -0.0124666 0)
(10.0378 -0.0125659 0)
(10.044 -0.0126946 0)
(10.0503 -0.0128468 0)
(10.0564 -0.0129771 0)
(10.0625 -0.0131434 0)
(10.0683 -0.0133129 0)
(10.074 -0.0136214 0)
(10.0795 -0.0139696 0)
(9.99074 -0.00214723 0)
(10 -0.00857734 0)
(10.0067 -0.0116633 0)
(10.0121 -0.0132288 0)
(10.0183 -0.0142842 0)
(10.0251 -0.0151054 0)
(10.0319 -0.0157322 0)
(10.0385 -0.0161827 0)
(10.045 -0.0165132 0)
(10.0513 -0.0167688 0)
(10.0575 -0.0169855 0)
(10.0635 -0.0171583 0)
(10.0693 -0.0173178 0)
(10.0749 -0.0174622 0)
(10.0804 -0.0176757 0)
(10.0857 -0.0179486 0)
(10.091 -0.0183986 0)
(10.0961 -0.0189359 0)
(9.98817 -0.00179621 0)
(10.0026 -0.0129291 0)
(10.0121 -0.0195332 0)
(10.0181 -0.0228599 0)
(10.0241 -0.0243824 0)
(10.0306 -0.0251845 0)
(10.0373 -0.0258167 0)
(10.0437 -0.0264049 0)
(10.0499 -0.0269257 0)
(10.0558 -0.0273491 0)
(10.0615 -0.0276873 0)
(10.067 -0.027969 0)
(10.0724 -0.0282524 0)
(10.0776 -0.0285619 0)
(10.0828 -0.0289617 0)
(10.0879 -0.0294439 0)
(10.0928 -0.0300775 0)
(10.0976 -0.030794 0)
(9.99761 -0.0109171 0)
(10.013 -0.0153551 0)
(10.0244 -0.0205994 0)
(10.0317 -0.0238561 0)
(10.0379 -0.0252841 0)
(10.0441 -0.0260238 0)
(10.0504 -0.0266658 0)
(10.0567 -0.0272561 0)
(10.063 -0.0277053 0)
(10.0691 -0.0280138 0)
(10.0751 -0.0282734 0)
(10.0809 -0.0285599 0)
(10.0866 -0.0289186 0)
(10.0922 -0.0293446 0)
(10.0977 -0.0298602 0)
(10.103 -0.0304375 0)
(10.1081 -0.0311291 0)
(10.113 -0.0318794 0)
(9.99339 -0.0147787 0)
(10.0049 -0.0249481 0)
(10.0152 -0.0309832 0)
(10.0233 -0.0338381 0)
(10.0304 -0.0351058 0)
(10.0371 -0.0360443 0)
(10.0438 -0.0369674 0)
(10.0506 -0.0377733 0)
(10.0575 -0.0384124 0)
(10.0642 -0.0389433 0)
(10.0707 -0.0394328 0)
(10.077 -0.0399038 0)
(10.0831 -0.0403714 0)
(10.089 -0.0408394 0)
(10.0947 -0.0413402 0)
(10.1002 -0.041883 0)
(10.1056 -0.0425133 0)
(10.1106 -0.0432075 0)
(10.0092 -0.00951661 0)
(10.0274 -0.0233422 0)
(10.0423 -0.028557 0)
(10.0524 -0.0303422 0)
(10.0598 -0.031697 0)
(10.0663 -0.0332927 0)
(10.0728 -0.0347763 0)
(10.0795 -0.0358276 0)
(10.0861 -0.0364922 0)
(10.0925 -0.0369771 0)
(10.0986 -0.0374397 0)
(10.1044 -0.0379416 0)
(10.1101 -0.0384971 0)
(10.1157 -0.039086 0)
(10.121 -0.0397087 0)
(10.1262 -0.0403508 0)
(10.131 -0.0410412 0)
(10.1356 -0.0417606 0)
(9.97893 -0.0263824 0)
(9.99967 -0.0390285 0)
(10.017 -0.0431279 0)
(10.0281 -0.0436996 0)
(10.0359 -0.0444112 0)
(10.0427 -0.0456146 0)
(10.0496 -0.0466432 0)
(10.0568 -0.0472742 0)
(10.0637 -0.0476964 0)
(10.0703 -0.048108 0)
(10.0766 -0.0485711 0)
(10.0827 -0.049065 0)
(10.0887 -0.0495542 0)
(10.0944 -0.0500228 0)
(10.1 -0.0504786 0)
(10.1054 -0.0509369 0)
(10.1105 -0.051424 0)
(10.1153 -0.0519415 0)
(9.98259 -0.0189025 0)
(10.0065 -0.031416 0)
(10.0271 -0.0346666 0)
(10.0403 -0.0357553 0)
(10.0493 -0.0376634 0)
(10.0574 -0.0397875 0)
(10.0658 -0.0413247 0)
(10.0743 -0.0422787 0)
(10.0825 -0.0429616 0)
(10.0902 -0.0436119 0)
(10.0975 -0.0442924 0)
(10.1043 -0.0450202 0)
(10.1108 -0.0457451 0)
(10.1169 -0.0464714 0)
(10.1227 -0.0471401 0)
(10.1281 -0.0478061 0)
(10.1335 -0.048437 0)
(10.1383 -0.0491264 0)
(9.99308 -0.0389009 0)
(10.0361 -0.0547575 0)
(10.0684 -0.0535948 0)
(10.0871 -0.0529523 0)
(10.098 -0.0540738 0)
(10.1054 -0.0550977 0)
(10.1106 -0.0555943 0)
(10.1138 -0.0558714 0)
(10.1151 -0.0561325 0)
(10.1144 -0.0564282 0)
(10.1119 -0.056721 0)
(10.1079 -0.0570302 0)
(10.1024 -0.057311 0)
(10.0958 -0.0576161 0)
(10.088 -0.057872 0)
(10.0798 -0.0581766 0)
(10.0703 -0.0584534 0)
(10.061 -0.0588718 0)
(9.89959 -0.0342273 0)
(9.74176 -0.0470327 0)
(9.57748 -0.0457697 0)
(9.40799 -0.0446673 0)
(9.24178 -0.0446356 0)
(9.08281 -0.0445127 0)
(8.93158 -0.0440643 0)
(8.78748 -0.0434376 0)
(8.64984 -0.0427318 0)
(8.51839 -0.041997 0)
(8.39272 -0.0412583 0)
(8.27283 -0.0405628 0)
(8.15806 -0.0399112 0)
(8.04869 -0.0393397 0)
(7.94352 -0.0388064 0)
(7.84369 -0.0383568 0)
(7.74676 -0.0379246 0)
(7.65582 -0.037611 0)
(-0.153584 0.30986 2.3982e-21)
(-0.338812 0.145798 -2.362e-21)
(-0.415875 5.29281e-05 0)
(-0.397513 -0.125162 0)
(-0.254931 -0.247279 0)
(-0.0212652 -0.336186 2.2823e-21)
(0.281022 -0.384256 0)
(0.617471 -0.391211 0)
(0.954308 -0.36891 0)
(1.26744 -0.326726 0)
(1.54222 -0.27447 -2.10546e-21)
(1.77401 -0.223907 0)
(1.96087 -0.171963 0)
(2.0977 -0.111032 0)
(2.18373 -0.0457822 0)
(2.2168 0.0178171 -1.70781e-21)
(2.19515 0.0507867 0)
(2.14353 0.0581243 0)
(2.06183 0.0820634 0)
(1.95243 0.114493 0)
(1.80457 0.145044 0)
(1.61931 0.166212 0)
(1.38972 0.191076 0)
(1.14449 0.219626 -1.6602e-21)
(0.85615 0.262566 1.6658e-21)
(0.573304 0.222607 -1.66051e-21)
(0.303969 0.148817 -1.64255e-21)
(0.031347 0.0636212 0)
(-0.20844 0.0267384 0)
(-0.470248 0.117855 1.53122e-21)
(-0.76949 0.191584 1.47681e-21)
(-1.10401 0.228955 0)
(-1.45179 0.235488 0)
(-1.77628 0.211808 1.25574e-21)
(-2.05199 0.170224 0)
(-2.27356 0.1232 0)
(-2.43374 0.077902 -1.05434e-21)
(-2.54275 0.0501366 0)
(-2.62642 0.0459385 -9.20402e-22)
(-2.71793 0.071826 -1.67578e-21)
(-2.84381 0.102983 0)
(-3.00234 0.109037 0)
(-3.17946 0.107221 0)
(-3.3568 0.0597411 0)
(-3.46448 0.0214291 0)
(-3.55252 0.0274773 -1.16909e-21)
(-3.63331 -0.0569579 -1.11811e-21)
(-3.73573 -0.0701953 -1.05767e-21)
(-3.84414 0.087008 0)
(-4.05915 0.159168 1.04385e-21)
(-4.22652 0.128343 0)
(-4.36989 0.112155 -9.98362e-22)
(-4.49684 0.0977428 -9.63052e-22)
(-4.60443 0.0799229 0)
(-4.68312 0.0542048 0)
(-4.74732 -0.00390515 0)
(-4.79443 0.011697 -7.93025e-22)
(-4.88056 0.0483855 0)
(-4.94912 0.0368168 0)
(-4.993 0.0322144 0)
(-5.02038 0.0186565 0)
(-5.01697 0.00221396 0)
(-4.99072 -0.0156042 0)
(-4.94273 -0.0293856 0)
(-4.88006 -0.039888 0)
(-4.80824 -0.0460724 3.56548e-22)
(-4.73336 -0.0497004 0)
(-4.65879 -0.050916 0)
(-4.58747 -0.0499678 -4.97345e-22)
(-4.51902 -0.048713 -5.87979e-22)
(-4.44896 -0.0494346 0)
(-4.37228 -0.0518501 8.18034e-22)
(-4.28236 -0.0573447 -9.49598e-22)
(-4.17657 -0.0641312 0)
(-4.06071 -0.0682718 1.22306e-21)
(-3.93641 -0.0707543 0)
(-3.80202 -0.0737484 0)
(-3.65955 -0.0765671 -1.60802e-21)
(-3.51418 -0.0773194 0)
(-3.3699 -0.0752279 1.83707e-21)
(-3.23091 -0.0703314 0)
(-3.10002 -0.0632099 -2.06114e-21)
(-2.9811 -0.0541163 -2.18009e-21)
(-2.87671 -0.0471736 -2.30603e-21)
(-2.7854 -0.0455073 -4.87356e-21)
(-2.70035 -0.0450431 5.13328e-21)
(-2.59884 -0.0649739 0)
(-2.51038 -0.0786407 0)
(-2.45079 -0.0143863 0)
(-2.46876 0.0253247 6.05959e-21)
(-2.45483 0.0071393 6.16848e-21)
(-2.40483 -0.00789276 -6.22341e-21)
(-2.33294 -0.0230111 0)
(-2.23521 -0.0354427 6.26982e-21)
(-2.12048 -0.0455287 6.28363e-21)
(-1.98904 -0.0535434 6.29799e-21)
(-1.84529 -0.0599062 0)
(-1.68995 -0.0651467 0)
(-1.52487 -0.0695631 0)
(-1.35035 -0.0734332 6.4461e-21)
(-1.1673 -0.0770648 0)
(-0.97612 -0.0801642 0)
(-0.777063 -0.082874 -6.78421e-21)
(-0.570943 -0.085079 0)
(-0.358853 -0.0867757 0)
(-0.141811 -0.087911 -7.37405e-21)
(0.0791664 -0.0884848 0)
(0.302799 -0.0884883 0)
(0.527825 -0.0879535 8.1046e-21)
(0.752893 -0.0868367 8.34764e-21)
(0.976648 -0.0851347 0)
(1.19761 -0.0828463 -8.79003e-21)
(1.41441 -0.0800702 0)
(1.62601 -0.0769528 9.13697e-21)
(1.8318 -0.0736701 0)
(2.03138 -0.070425 9.36808e-21)
(2.22461 -0.0671625 9.43985e-21)
(2.41149 -0.0639591 0)
(2.59183 -0.0607576 0)
(2.76539 -0.0574773 0)
(2.93191 -0.0540971 0)
(3.09109 -0.0506053 0)
(3.24247 -0.0472123 0)
(3.38564 -0.0437927 0)
(3.52093 -0.0403829 9.09534e-21)
(3.64811 -0.0368933 -8.9625e-21)
(3.76698 -0.0333525 0)
(3.87724 -0.029748 0)
(3.97854 -0.0260761 0)
(4.07053 -0.0223681 0)
(4.15294 -0.0186695 -1.63319e-20)
(4.2256 -0.0150207 0)
(4.2885 -0.0114499 1.56548e-20)
(4.34165 -0.0079727 -1.53238e-20)
(4.38518 -0.00458789 0)
(4.41913 -0.00127632 0)
(4.44354 0.00197109 0)
(4.45851 0.00515277 1.41174e-20)
(4.46415 0.00826066 1.38547e-20)
(4.46057 0.0112823 0)
(4.44798 0.0142075 1.33834e-20)
(4.42654 0.0170045 1.31754e-20)
(4.39656 0.019637 -1.29853e-20)
(4.35841 0.0220988 0)
(4.31246 0.0243881 0)
(4.25919 0.0264287 -1.25128e-20)
(4.19917 0.0281449 0)
(4.13308 0.0295569 0)
(4.06166 0.0307806 0)
(3.98551 0.031719 0)
(3.90562 0.0315813 1.19388e-20)
(3.82481 0.0294792 1.18339e-20)
(3.7473 0.0258779 0)
(3.67606 0.0221206 1.16231e-20)
(3.61207 0.0188758 0)
(3.55515 0.01629 0)
(3.50426 0.0145743 1.13159e-20)
(3.45783 0.0137809 0)
(3.41414 0.0137017 1.11132e-20)
(3.37176 0.0139457 0)
(3.32988 0.0141153 0)
(3.28846 0.0143269 1.08011e-20)
(3.24691 0.0150566 0)
(3.20445 0.015577 1.05908e-20)
(3.1623 0.0139623 0)
(3.12596 0.00983432 0)
(3.09911 0.00493839 0)
(3.08263 0.00133372 -1.01968e-20)
(3.07184 0.000169194 0)
(3.06441 0.000718517 1.00251e-20)
(3.05469 0.00235144 0)
(3.04323 0.00392936 0)
(3.02502 0.0063692 0)
(3.00154 0.00748706 0)
(2.9712 0.011333 0)
(2.92546 0.01088 0)
(2.88577 0.0208115 0)
(2.78208 0.0165756 -1.87531e-20)
(2.75208 0.0511983 0)
(2.44915 0.0381373 0)
(-0.00395835 0.631195 -7.13048e-21)
(0.0386309 0.35223 7.03298e-21)
(0.0859728 0.0773752 0)
(0.228644 -0.201557 -4.5149e-21)
(0.452947 -0.53433 0)
(0.745342 -0.809356 -2.28664e-21)
(1.0583 -0.96734 4.34681e-21)
(1.35885 -1.01703 4.26104e-21)
(1.62918 -0.980041 0)
(1.86033 -0.881121 3.98325e-21)
(2.04564 -0.748314 2.1089e-21)
(2.18398 -0.602159 0)
(2.27677 -0.455154 0)
(2.32785 -0.31481 0)
(2.34594 -0.179899 0)
(2.33738 -0.0394276 1.7113e-21)
(2.30066 0.0882357 0)
(2.22795 0.188168 -2.98392e-21)
(2.12343 0.265727 0)
(1.99352 0.339846 0)
(1.8263 0.449729 2.9987e-21)
(1.62491 0.565561 0)
(1.39759 0.644775 -3.0597e-21)
(1.16018 0.70608 1.6665e-21)
(0.928065 0.71897 -1.6726e-21)
(0.669491 0.70158 1.66767e-21)
(0.356652 0.754713 1.65e-21)
(-0.01508 0.802382 0)
(-0.430959 0.809652 0)
(-0.873069 0.807869 -1.53728e-21)
(-1.27557 0.819971 1.18268e-21)
(-1.62786 0.829587 0)
(-1.95549 0.79973 0)
(-2.23829 0.716153 -1.25985e-21)
(-2.48726 0.589179 0)
(-2.69628 0.439452 0)
(-2.85479 0.283634 1.05975e-21)
(-2.97701 0.17228 0)
(-3.08841 0.154061 -4.90239e-22)
(-3.20381 0.223049 1.68676e-21)
(-3.33256 0.305301 0)
(-3.47618 0.37459 0)
(-3.62298 0.383498 2.0132e-21)
(-3.80717 0.309907 1.94602e-21)
(-4.01851 0.247055 1.84954e-21)
(-4.19286 0.211287 -5.79667e-22)
(-4.40369 0.289609 1.1264e-21)
(-4.63485 0.348489 2.57533e-21)
(-4.74578 0.344792 -1.43006e-21)
(-4.85542 0.320951 -1.05302e-21)
(-4.91916 0.268541 0)
(-4.97672 0.232424 1.00682e-21)
(-5.00508 0.186901 -3.35688e-22)
(-5.03086 0.141349 0)
(-5.04854 0.115048 0)
(-5.10603 0.134993 0)
(-5.14658 0.140779 7.98691e-22)
(-5.17113 0.11662 0)
(-5.17423 0.0739752 -9.46941e-22)
(-5.16047 0.0328067 0)
(-5.13039 -0.0140616 -7.23895e-22)
(-5.08269 -0.0588484 0)
(-5.02324 -0.098586 5.38403e-22)
(-4.95281 -0.126777 0)
(-4.87666 -0.142869 -4.57231e-22)
(-4.79895 -0.146592 1.1341e-22)
(-4.72451 -0.141339 0)
(-4.65585 -0.131575 6.34409e-22)
(-4.59337 -0.123352 4.97507e-22)
(-4.5341 -0.121851 5.8812e-22)
(-4.47434 -0.130043 0)
(-4.40839 -0.149802 6.6386e-22)
(-4.32561 -0.178148 9.49956e-22)
(-4.23057 -0.200999 0)
(-4.12239 -0.213341 -1.22372e-21)
(-3.99874 -0.228507 2.61027e-21)
(-3.86667 -0.244672 0)
(-3.73089 -0.252167 1.6086e-21)
(-3.5939 -0.250434 0)
(-3.45597 -0.242045 -5.41759e-21)
(-3.31951 -0.228455 0)
(-3.1889 -0.209521 6.07891e-21)
(-3.06867 -0.186928 2.18039e-21)
(-2.96089 -0.164243 -2.19644e-21)
(-2.87209 -0.146818 -4.66123e-21)
(-2.79727 -0.148205 4.92448e-21)
(-2.73719 -0.134112 0)
(-2.7407 -0.0683933 0)
(-2.69931 -0.0356651 0)
(-2.63375 -0.0500397 -1.77387e-20)
(-2.52949 -0.0882721 -6.17004e-21)
(-2.40589 -0.122881 6.22548e-21)
(-2.26481 -0.155589 0)
(-2.11031 -0.181809 5.94116e-21)
(-1.94595 -0.203034 -6.28506e-21)
(-1.77354 -0.219516 -6.29877e-21)
(-1.59523 -0.232581 0)
(-1.41158 -0.243226 0)
(-1.22331 -0.252413 0)
(-1.03036 -0.260893 -6.44386e-21)
(-0.832452 -0.269017 0)
(-0.628948 -0.27671 1.30896e-20)
(-0.419585 -0.283872 2.01638e-20)
(-0.204247 -0.290136 -1.37368e-20)
(0.0169497 -0.295179 0)
(0.243297 -0.298682 -7.22755e-21)
(0.473651 -0.300504 0)
(0.706856 -0.300619 -1.55884e-20)
(0.94163 -0.299075 7.99325e-21)
(1.17675 -0.295785 8.24714e-21)
(1.4108 -0.290703 0)
(1.64228 -0.283868 2.62859e-20)
(1.86972 -0.275525 -1.78806e-20)
(2.09201 -0.266145 -9.13494e-21)
(2.30853 -0.256243 0)
(2.51906 -0.246332 -9.36587e-21)
(2.72358 -0.236535 -2.82596e-20)
(2.92208 -0.226843 0)
(3.11448 -0.217151 -1.89468e-20)
(3.30052 -0.207225 -1.89292e-20)
(3.47983 -0.19693 -1.8861e-20)
(3.65206 -0.186341 0)
(3.81678 -0.176014 0)
(3.97366 -0.16561 0)
(4.12299 -0.15517 9.05542e-21)
(4.26463 -0.144696 8.95845e-21)
(4.39839 -0.134118 0)
(4.52404 -0.123376 1.7288e-20)
(4.64124 -0.112454 1.69666e-20)
(4.74967 -0.101416 0)
(4.84907 -0.0903712 1.63249e-20)
(4.9393 -0.0794435 3.19198e-20)
(5.02034 -0.068728 -1.56482e-20)
(5.09226 -0.0582817 -1.52716e-20)
(5.15519 -0.0481224 0)
(5.20931 -0.0382425 0)
(5.25487 -0.0286337 0)
(5.29204 -0.0193063 -1.41114e-20)
(5.32101 -0.0102835 1.3811e-20)
(5.34202 -0.00159154 2.71714e-20)
(5.35528 0.00673805 -1.33775e-20)
(5.36111 0.0146854 1.31349e-20)
(5.35977 0.0222088 1.29793e-20)
(5.35156 0.0292538 0)
(5.33689 0.0357555 0)
(5.31623 0.0416785 -1.24759e-20)
(5.29016 0.0470166 0)
(5.25911 0.0516987 0)
(5.22361 0.0556293 2.42604e-20)
(5.18441 0.0587807 0)
(5.14206 0.0608506 1.19093e-20)
(5.09675 0.060995 -1.18267e-20)
(5.0491 0.058595 0)
(5.00028 0.0540948 1.16086e-20)
(4.95194 0.0486499 0)
(4.90603 0.0432339 0)
(4.86398 0.0383528 -1.13086e-20)
(4.82645 0.0343941 2.24162e-20)
(4.7935 0.0316303 -1.11059e-20)
(4.76466 0.0299577 0)
(4.7393 0.0289477 0)
(4.71684 0.0281457 1.07935e-20)
(4.6969 0.0273464 0)
(4.6799 0.0264231 1.05831e-20)
(4.66631 0.0245581 0)
(4.65635 0.0206122 0)
(4.6499 0.0152793 0)
(4.64583 0.0102356 1.01893e-20)
(4.64351 0.00710724 0)
(4.64243 0.00565809 -1.00176e-20)
(4.64168 0.00662973 0)
(4.63899 0.00812357 0)
(4.63504 0.0126135 1.95148e-20)
(4.62425 0.0150636 -1.93395e-20)
(4.61386 0.0237391 0)
(4.58555 0.0249974 0)
(4.56877 0.0441181 0)
(4.50088 0.0424555 5.61501e-20)
(4.4871 0.095873 0)
(4.32485 0.0967721 -3.69275e-20)
(0.0752591 0.343529 -2.16216e-23)
(0.210624 0.0728618 -9.38211e-21)
(0.423108 -0.328892 0)
(0.731765 -0.799086 9.03034e-21)
(1.06896 -1.21795 0)
(1.37237 -1.49251 0)
(1.60822 -1.59343 -3.02425e-22)
(1.7797 -1.55098 -4.26736e-21)
(1.89677 -1.40203 -3.68746e-21)
(1.97497 -1.18489 -3.98802e-21)
(2.01559 -0.943064 0)
(2.02812 -0.704971 0)
(2.01252 -0.477858 2.9781e-21)
(1.97175 -0.268245 5.6979e-21)
(1.90705 -0.0809467 -5.49536e-21)
(1.82309 0.0882049 0)
(1.72702 0.246136 -5.25978e-21)
(1.6084 0.389243 2.98567e-21)
(1.47227 0.513143 0)
(1.30291 0.660702 -5.2541e-21)
(1.11758 0.808256 -3.00324e-21)
(0.927465 0.926184 5.37089e-21)
(0.732643 1.01907 3.06617e-21)
(0.539921 1.06378 0)
(0.332824 1.1021 -5.49469e-21)
(0.0624855 1.21409 -5.4713e-21)
(-0.227526 1.3221 0)
(-0.54394 1.42942 -5.29564e-21)
(-0.878776 1.50229 0)
(-1.21934 1.51891 -4.91115e-21)
(-1.55889 1.47518 -2.67846e-21)
(-1.86651 1.39076 0)
(-2.14397 1.27488 0)
(-2.3794 1.12029 0)
(-2.59542 0.943954 0)
(-2.77608 0.743003 0)
(-2.94529 0.553724 0)
(-3.09955 0.422043 -2.31318e-21)
(-3.26465 0.398272 3.41135e-21)
(-3.44957 0.460416 0)
(-3.62777 0.536232 0)
(-3.82469 0.576922 0)
(-3.98057 0.634012 -7.73612e-22)
(-4.17812 0.638779 -1.95539e-21)
(-4.35779 0.598607 -2.96711e-21)
(-4.52941 0.571956 2.76201e-21)
(-4.68294 0.547657 8.81327e-22)
(-4.79835 0.502148 -1.51689e-21)
(-4.84979 0.447184 7.66254e-22)
(-4.88553 0.383577 -6.12724e-22)
(-4.88967 0.312883 0)
(-4.89133 0.244022 -5.74156e-22)
(-4.87978 0.186431 7.21783e-22)
(-4.89372 0.162736 0)
(-4.90839 0.156561 0)
(-4.91745 0.14959 5.79173e-22)
(-4.89711 0.120104 0)
(-4.8668 0.0811294 0)
(-4.83014 0.0369922 6.07717e-23)
(-4.79199 -0.0110939 -7.46514e-22)
(-4.75028 -0.0653711 7.16866e-22)
(-4.70644 -0.118716 0)
(-4.65847 -0.166528 -5.29848e-22)
(-4.60712 -0.202031 0)
(-4.55258 -0.222704 2.02354e-22)
(-4.49652 -0.227886 -4.60944e-22)
(-4.43915 -0.221161 3.93942e-22)
(-4.38143 -0.208547 -1.0996e-23)
(-4.3224 -0.19624 0)
(-4.26212 -0.192087 -1.37223e-21)
(-4.20129 -0.202026 0)
(-4.13629 -0.228022 -3.95161e-21)
(-4.06118 -0.265031 -3.08709e-21)
(-3.97741 -0.301301 -3.70155e-21)
(-3.87802 -0.339016 4.30755e-21)
(-3.77059 -0.369077 -7.49582e-21)
(-3.65889 -0.382413 0)
(-3.53669 -0.387758 0)
(-3.4059 -0.391125 6.44556e-21)
(-3.2725 -0.386094 1.04673e-20)
(-3.14318 -0.368324 0)
(-3.02513 -0.337973 -4.0122e-21)
(-2.92091 -0.299952 0)
(-2.83173 -0.259579 1.32039e-20)
(-2.7572 -0.225377 3.12149e-22)
(-2.70467 -0.192841 -3.49471e-22)
(-2.67333 -0.145347 -1.01377e-20)
(-2.62386 -0.117802 0)
(-2.52208 -0.129675 1.0833e-20)
(-2.39491 -0.170906 5.73875e-22)
(-2.24876 -0.221203 0)
(-2.09799 -0.267631 0)
(-1.93962 -0.30865 0)
(-1.77804 -0.341106 -1.22085e-20)
(-1.61167 -0.366806 0)
(-1.44208 -0.386321 0)
(-1.26886 -0.401457 0)
(-1.09228 -0.413624 0)
(-0.911833 -0.424526 0)
(-0.727031 -0.435188 -1.23641e-20)
(-0.536911 -0.446171 0)
(-0.34078 -0.457389 -1.30811e-20)
(-0.138097 -0.468432 -1.3375e-20)
(0.071079 -0.478595 1.373e-20)
(0.286357 -0.487135 0)
(0.506829 -0.493289 1.45944e-20)
(0.73141 -0.496682 0)
(0.958928 -0.49724 1.55851e-20)
(1.18825 -0.494927 -1.6093e-20)
(1.41832 -0.489728 -4.945e-20)
(1.64774 -0.48156 0)
(1.87484 -0.47042 -5.22277e-20)
(2.09792 -0.456663 -1.76452e-20)
(2.31567 -0.441091 0)
(2.52744 -0.424658 -3.67395e-20)
(2.73311 -0.408168 -3.71601e-20)
(2.93289 -0.39206 5.62822e-20)
(3.12686 -0.376196 0)
(3.31507 -0.360327 1.89451e-20)
(3.49717 -0.344009 1.89275e-20)
(3.67264 -0.327065 5.64319e-20)
(3.84085 -0.309888 0)
(4.00128 -0.292713 0)
(4.15391 -0.275501 0)
(4.29883 -0.258414 1.80196e-20)
(4.43604 -0.241395 0)
(4.56544 -0.224266 0)
(4.68684 -0.206881 -1.72839e-20)
(4.79994 -0.189197 -1.69629e-20)
(4.90442 -0.171304 0)
(5.00004 -0.153389 0)
(5.08669 -0.135668 -3.19146e-20)
(5.1644 -0.118322 0)
(5.23327 -0.101452 3.05852e-20)
(5.29348 -0.0851093 2.98686e-20)
(5.3452 -0.0692927 0)
(5.38861 -0.0539821 0)
(5.42389 -0.0391892 -2.81143e-20)
(5.45125 -0.024951 -6.45921e-23)
(5.47092 -0.0113097 -6.21136e-23)
(5.48322 0.00169102 0)
(5.48846 0.0140048 -5.2548e-20)
(5.487 0.0255674 0)
(5.47923 0.0363102 0)
(5.46566 0.046151 0)
(5.44682 0.0549601 2.49808e-20)
(5.42329 0.0626639 0)
(5.39583 0.0692819 -4.88781e-20)
(5.36523 0.0747873 -2.42586e-20)
(5.33212 0.0790592 0)
(5.29709 0.0817887 -2.3839e-20)
(5.26061 0.0823461 0)
(5.22281 0.0803423 0)
(5.18384 0.0762715 -6.96377e-20)
(5.14427 0.0709319 4.60203e-20)
(5.10498 0.0647192 0)
(5.06712 0.0579998 4.5226e-20)
(5.03219 0.0515918 -2.24136e-20)
(5.00144 0.0462713 0)
(4.97525 0.0421826 0)
(4.95337 0.0388924 0)
(4.93551 0.0359249 -6.47493e-20)
(4.92165 0.0331482 0)
(4.91196 0.0300395 -2.11639e-20)
(4.9065 0.0254535 0)
(4.90427 0.0184302 0)
(4.90426 0.0103664 0)
(4.90539 0.00374162 0)
(4.90823 0.000413221 0)
(4.91219 -0.00052841 0)
(4.91791 0.00158288 -3.97122e-20)
(4.92245 0.00439548 0)
(4.92756 0.010668 -1.95116e-20)
(4.92724 0.0149868 5.79925e-20)
(4.92813 0.0258912 0)
(4.91704 0.0305488 0)
(4.91211 0.052285 -3.76371e-20)
(4.88251 0.0597634 -3.74046e-20)
(4.87387 0.112216 3.70406e-20)
(4.81952 0.135874 3.69177e-20)
(0.0209638 -0.0345192 1.4222e-20)
(0.272226 -0.444884 1.40547e-20)
(0.658109 -1.07712 9.09611e-21)
(1.01667 -1.57158 4.22725e-21)
(1.30054 -1.88717 0)
(1.469 -1.96679 -7.85951e-21)
(1.53699 -1.85278 3.34078e-21)
(1.54377 -1.64052 0)
(1.51193 -1.3804 3.68818e-21)
(1.46999 -1.09921 0)
(1.41965 -0.823279 -5.69697e-21)
(1.3645 -0.556785 0)
(1.29902 -0.302241 -2.9762e-21)
(1.22149 -0.064865 -5.6938e-21)
(1.12616 0.150481 5.49147e-21)
(1.01434 0.342266 0)
(0.886844 0.523398 5.25725e-21)
(0.744656 0.686028 0)
(0.583941 0.844276 0)
(0.402674 1.01066 5.25636e-21)
(0.223783 1.15548 0)
(0.0458467 1.27241 -7.79984e-22)
(-0.12272 1.34749 0)
(-0.309173 1.42925 0)
(-0.534158 1.55906 8.69606e-22)
(-0.770923 1.69013 5.48304e-21)
(-1.01209 1.81291 4.49775e-21)
(-1.2489 1.91039 5.31111e-21)
(-1.47802 1.96532 0)
(-1.70021 1.9717 8.9557e-21)
(-1.92646 1.92177 0)
(-2.15015 1.81841 3.54573e-21)
(-2.36995 1.67384 0)
(-2.57379 1.49294 0)
(-2.77163 1.28657 -2.65793e-21)
(-2.9517 1.05396 0)
(-3.13752 0.857726 2.02759e-21)
(-3.32728 0.746229 6.4184e-22)
(-3.54089 0.756173 -3.3152e-21)
(-3.76935 0.838697 2.00471e-21)
(-3.99044 0.924033 0)
(-4.18544 0.939647 0)
(-4.33863 0.923584 -2.82832e-22)
(-4.46782 0.862969 0)
(-4.56876 0.798782 1.11367e-21)
(-4.65291 0.748504 -9.98413e-22)
(-4.69936 0.67649 -8.82984e-22)
(-4.71351 0.585649 0)
(-4.70033 0.4907 6.67818e-22)
(-4.67738 0.393391 6.09484e-22)
(-4.64391 0.305413 3.9335e-22)
(-4.62194 0.241402 5.69869e-22)
(-4.6116 0.209179 5.78886e-22)
(-4.61952 0.19088 0)
(-4.61611 0.162226 0)
(-4.59851 0.123385 -5.72136e-22)
(-4.56622 0.0772659 0)
(-4.53593 0.0343619 0)
(-4.50409 -0.0115847 8.63338e-22)
(-4.47331 -0.0625064 7.28462e-22)
(-4.44187 -0.118127 0)
(-4.41159 -0.173669 0)
(-4.37998 -0.223294 0)
(-4.34737 -0.260978 0)
(-4.3114 -0.283933 2.22567e-22)
(-4.27 -0.292343 5.02497e-22)
(-4.22029 -0.289468 -3.69816e-22)
(-4.1619 -0.280909 -4.26302e-22)
(-4.09565 -0.272444 0)
(-4.02048 -0.270711 6.99083e-22)
(-3.94105 -0.28573 0)
(-3.85578 -0.321621 2.45619e-21)
(-3.76434 -0.369837 5.38474e-22)
(-3.6655 -0.418426 3.681e-21)
(-3.55748 -0.450868 -4.28728e-21)
(-3.44346 -0.477957 3.88985e-22)
(-3.31315 -0.514882 0)
(-3.17495 -0.540892 -5.6398e-21)
(-3.03965 -0.546377 -6.4285e-21)
(-2.91378 -0.531115 -1.34946e-20)
(-2.80181 -0.496893 0)
(-2.70512 -0.447811 7.49089e-21)
(-2.62231 -0.390529 0)
(-2.55315 -0.333177 -1.70906e-20)