/*--------------------------------*- C++ -*----------------------------------*\
  =========                 |
  \\      /  F ield         | OpenFOAM: The Open Source CFD Toolbox
   \\    /   O peration     | Website:  https://openfoam.org
    \\  /    A nd           | Version:  11
     \\/     M anipulation  |
\*---------------------------------------------------------------------------*/
FoamFile
{
    format      ascii;
    class       volVectorField;
    location    "53";
    object      U;
}
// * * * * * * * * * * * * * * * * * * * * * * * * * * * * * * * * * * * * * //

dimensions      [0 1 -1 0 0 0 0];

internalField   nonuniform List<vector> 
2048
(
(1.00013 -0.000570687 0)
(1.00244 -0.00171936 0)
(1.007 -0.00289099 0)
(1.01394 -0.0041005 0)
(1.02338 -0.00535904 0)
(1.03538 -0.00667038 0)
(1.05004 -0.00802819 0)
(1.06743 -0.00941417 0)
(1.08759 -0.0107971 0)
(1.1105 -0.0121327 0)
(1.13601 -0.013365 0)
(1.16388 -0.014429 0)
(1.19372 -0.0152566 0)
(1.22499 -0.015786 0)
(1.25708 -0.0159733 0)
(1.28926 -0.0158045 0)
(1.32083 -0.0153019 0)
(1.35112 -0.014524 0)
(1.37962 -0.0135537 0)
(1.40597 -0.0124791 0)
(1.43003 -0.0113779 0)
(1.45183 -0.0103117 0)
(1.47148 -0.00932632 0)
(1.48921 -0.00845336 0)
(1.50528 -0.0077094 0)
(1.51995 -0.00709462 0)
(1.5335 -0.0065922 0)
(1.54612 -0.00616976 0)
(1.55797 -0.00578049 0)
(1.56906 -0.00536594 0)
(1.5793 -0.00485883 0)
(1.58843 -0.0041872 0)
(1.59608 -0.00328248 0)
(1.60171 -0.00207684 0)
(1.60466 -0.000525483 0)
(1.60423 0.00138287 0)
(1.5997 0.00363085 0)
(1.59037 0.0061674 0)
(1.5757 0.00890195 0)
(1.55535 0.0117109 0)
(1.52928 0.0144486 0)
(1.49778 0.016963 0)
(1.46142 0.0191129 0)
(1.42108 0.020784 0)
(1.37783 0.0218965 0)
(1.33289 0.0224067 0)
(1.28753 0.0223009 0)
(1.24302 0.0215907 0)
(1.20057 0.0202979 0)
(1.16135 0.0184574 0)
(1.12635 0.0160875 0)
(1.09679 0.0132323 0)
(1.07324 0.00987157 0)
(1.05741 0.00608818 0)
(1.04873 0.00179648 0)
(1.05084 -0.00280213 0)
(1.05942 -0.00787928 0)
(1.08417 -0.0130628 0)
(1.10969 -0.0185326 0)
(1.16319 -0.0239745 0)
(1.19915 -0.0289896 0)
(1.29163 -0.0345319 0)
(1.31867 -0.0376535 0)
(1.47073 -0.0438704 0)
(1.00013 -0.00170694 0)
(1.00241 -0.00514254 0)
(1.00692 -0.00864898 0)
(1.0138 -0.012274 0)
(1.02316 -0.0160536 0)
(1.0351 -0.0200012 0)
(1.04972 -0.0240995 0)
(1.06714 -0.0282946 0)
(1.08741 -0.0324921 0)
(1.11053 -0.0365565 0)
(1.13639 -0.0403146 0)
(1.16475 -0.0435662 0)
(1.1952 -0.0461002 0)
(1.22721 -0.0477221 0)
(1.26008 -0.0482917 0)
(1.29304 -0.0477594 0)
(1.32531 -0.0461936 0)
(1.35615 -0.0437817 0)
(1.38502 -0.0407883 0)
(1.41157 -0.0374889 0)
(1.43569 -0.034122 0)
(1.45743 -0.0308735 0)
(1.47694 -0.0278826 0)
(1.49447 -0.0252453 0)
(1.51032 -0.0230118 0)
(1.52479 -0.0211821 0)
(1.53817 -0.0197054 0)
(1.55071 -0.0184825 0)
(1.56257 -0.0173707 0)
(1.57379 -0.0161897 0)
(1.58429 -0.014731 0)
(1.59383 -0.0127735 0)
(1.602 -0.0100977 0)
(1.60825 -0.00651993 0)
(1.61187 -0.00187953 0)
(1.61208 0.00386793 0)
(1.60811 0.010686 0)
(1.59919 0.0184124 0)
(1.58468 0.0267551 0)
(1.56421 0.0353259 0)
(1.53772 0.0436798 0)
(1.50548 0.051352 0)
(1.46812 0.0579068 0)
(1.42658 0.0629894 0)
(1.38202 0.0663562 0)
(1.33572 0.067881 0)
(1.28901 0.0675327 0)
(1.24321 0.0653577 0)
(1.19954 0.0614284 0)
(1.15919 0.0558581 0)
(1.12315 0.0487011 0)
(1.09261 0.0400951 0)
(1.06817 0.0299723 0)
(1.05152 0.0185902 0)
(1.04212 0.00565986 0)
(1.0436 -0.00820072 0)
(1.05181 -0.0235922 0)
(1.0763 -0.0392258 0)
(1.1021 -0.0559392 0)
(1.15589 -0.0722889 0)
(1.19295 -0.0878067 0)
(1.28591 -0.10422 0)
(1.31423 -0.114027 0)
(1.4663 -0.132181 0)
(1.00013 -0.00282137 0)
(1.00235 -0.00850233 0)
(1.00675 -0.0143099 0)
(1.01347 -0.0203322 0)
(1.02266 -0.0266375 0)
(1.03445 -0.0332556 0)
(1.04899 -0.0401659 0)
(1.06643 -0.0472831 0)
(1.0869 -0.0544499 0)
(1.11044 -0.0614314 0)
(1.13698 -0.0679199 0)
(1.16631 -0.0735575 0)
(1.19802 -0.0779636 0)
(1.23153 -0.0807861 0)
(1.26603 -0.0817632 0)
(1.30061 -0.0807898 0)
(1.33431 -0.077987 0)
(1.36627 -0.0737103 0)
(1.39588 -0.0684518 0)
(1.42281 -0.062704 0)
(1.44701 -0.0568791 0)
(1.46859 -0.0512953 0)
(1.48779 -0.0461911 0)
(1.50489 -0.0417307 0)
(1.52026 -0.0379989 0)
(1.53428 -0.0349952 0)
(1.5473 -0.0326332 0)
(1.55963 -0.0307442 0)
(1.57149 -0.0290825 0)
(1.58297 -0.0273346 0)
(1.594 -0.0251343 0)
(1.60435 -0.0220876 0)
(1.61359 -0.017803 0)
(1.62112 -0.0119375 0)
(1.62614 -0.00424885 0)
(1.62774 0.00541382 0)
(1.62499 0.0169944 0)
(1.61694 0.0302323 0)
(1.60281 0.0446091 0)
(1.58212 0.059412 0)
(1.55476 0.0738418 0)
(1.52103 0.0870831 0)
(1.48163 0.0983761 0)
(1.43764 0.107104 0)
(1.39038 0.112851 0)
(1.34131 0.115414 0)
(1.29187 0.114771 0)
(1.24346 0.111031 0)
(1.19734 0.104348 0)
(1.15472 0.0949305 0)
(1.11657 0.0828774 0)
(1.08408 0.0684176 0)
(1.05782 0.0514233 0)
(1.03949 0.0322975 0)
(1.0286 0.0105419 0)
(1.0287 -0.0127991 0)
(1.03614 -0.0389052 0)
(1.05992 -0.065372 0)
(1.08656 -0.0941343 0)
(1.1398 -0.121666 0)
(1.17876 -0.148581 0)
(1.26814 -0.175061 0)
(1.29813 -0.192096 0)
(1.44108 -0.219895 0)
(1.00012 -0.00389195 0)
(1.00225 -0.0117367 0)
(1.00646 -0.0197794 0)
(1.01292 -0.0281592 0)
(1.02181 -0.0369883 0)
(1.03331 -0.0463246 0)
(1.04764 -0.0561582 0)
(1.06504 -0.0663822 0)
(1.08573 -0.0767864 0)
(1.10985 -0.0870266 0)
(1.1374 -0.0966326 0)
(1.16822 -0.105038 0)
(1.20189 -0.111622 0)
(1.23774 -0.115822 0)
(1.27483 -0.117212 0)
(1.31199 -0.115609 0)
(1.34795 -0.111227 0)
(1.38162 -0.104675 0)
(1.4123 -0.0967458 0)
(1.43974 -0.0881818 0)
(1.46398 -0.0795826 0)
(1.48525 -0.0714117 0)
(1.50387 -0.0640199 0)
(1.52022 -0.0576469 0)
(1.53479 -0.0524111 0)
(1.54803 -0.0483077 0)
(1.56043 -0.0452132 0)
(1.57237 -0.042886 0)
(1.58417 -0.040968 0)
(1.59599 -0.0389954 0)
(1.60782 -0.0364207 0)
(1.61942 -0.0326462 0)
(1.63036 -0.0270712 0)
(1.6399 -0.0191255 0)
(1.64715 -0.00839607 0)
(1.65102 0.00534546 0)
(1.65032 0.0220168 0)
(1.6438 0.0412626 0)
(1.63039 0.0623555 0)
(1.60942 0.0842122 0)
(1.58075 0.105565 0)
(1.54469 0.125126 0)
(1.5021 0.141732 0)
(1.45428 0.154479 0)
(1.40283 0.16279 0)
(1.34946 0.166418 0)
(1.29583 0.165383 0)
(1.24346 0.1599 0)
(1.19366 0.15025 0)
(1.14765 0.136771 0)
(1.10634 0.119636 0)
(1.0709 0.099154 0)
(1.04186 0.0751413 0)
(1.02092 0.0480901 0)
(1.0076 0.0172555 0)
(1.00541 -0.0159449 0)
(1.01158 -0.053391 0)
(1.03403 -0.0914696 0)
(1.0604 -0.132817 0)
(1.10835 -0.170756 0)
(1.14326 -0.207728 0)
(1.21719 -0.241124 0)
(1.24231 -0.263727 0)
(1.36025 -0.297634 0)
(1.00011 -0.00489368 0)
(1.00209 -0.0147737 0)
(1.006 -0.0249432 0)
(1.01205 -0.0356094 0)
(1.02045 -0.0469435 0)
(1.03145 -0.0590494 0)
(1.04537 -0.071948 0)
(1.06256 -0.0855243 0)
(1.08338 -0.0995428 0)
(1.10814 -0.113548 0)
(1.13699 -0.1269 0)
(1.16984 -0.138742 0)
(1.20628 -0.14807 0)
(1.24552 -0.153981 0)
(1.28637 -0.155762 0)
(1.32725 -0.153126 0)
(1.36639 -0.146523 0)
(1.40235 -0.137012 0)
(1.43439 -0.125786 0)
(1.46238 -0.113862 0)
(1.48654 -0.102028 0)
(1.50724 -0.0909085 0)
(1.52491 -0.0809845 0)
(1.54011 -0.0725809 0)
(1.55342 -0.0658472 0)
(1.56547 -0.0607686 0)
(1.57685 -0.0571793 0)
(1.58811 -0.0547575 0)
(1.59968 -0.0530204 0)
(1.61182 -0.051329 0)
(1.62461 -0.048922 0)
(1.63786 -0.0449553 0)
(1.6511 -0.0385565 0)
(1.66355 -0.0289146 0)
(1.67405 -0.0153428 0)
(1.68124 0.00260066 0)
(1.68359 0.0249517 0)
(1.67952 0.0510951 0)
(1.6675 0.079922 0)
(1.64648 0.109976 0)
(1.61613 0.139482 0)
(1.57684 0.166524 0)
(1.52974 0.189358 0)
(1.47652 0.206682 0)
(1.41921 0.217758 0)
(1.35989 0.222374 0)
(1.30051 0.220708 0)
(1.24276 0.213179 0)
(1.18803 0.20025 0)
(1.13751 0.182419 0)
(1.09201 0.159977 0)
(1.05267 0.13329 0)
(1.01987 0.102111 0)
(0.995225 0.0670452 0)
(0.978257 0.0270065 0)
(0.972977 -0.0166408 0)
(0.976945 -0.0660764 0)
(0.994614 -0.115056 0)
(1.01164 -0.165557 0)
(1.04015 -0.207699 0)
(1.05469 -0.249521 0)
(1.10116 -0.285324 0)
(1.11301 -0.313629 0)
(1.2074 -0.356003 0)
(1.0001 -0.00579265 0)
(1.00185 -0.0175156 0)
(1.00533 -0.0296406 0)
(1.01076 -0.0424717 0)
(1.0184 -0.056252 0)
(1.02858 -0.0711687 0)
(1.04176 -0.0872935 0)
(1.05842 -0.104519 0)
(1.07911 -0.122628 0)
(1.10439 -0.141033 0)
(1.13465 -0.159005 0)
(1.17006 -0.175313 0)
(1.21027 -0.188417 0)
(1.25428 -0.19681 0)
(1.30051 -0.199074 0)
(1.34659 -0.194744 0)
(1.38994 -0.184869 0)
(1.42874 -0.171326 0)
(1.46235 -0.155863 0)
(1.49088 -0.139784 0)
(1.51476 -0.124064 0)
(1.53448 -0.109493 0)
(1.55065 -0.0966921 0)
(1.564 -0.0860753 0)
(1.57531 -0.0778279 0)
(1.58538 -0.0719325 0)
(1.59498 -0.0681794 0)
(1.6048 -0.06615 0)
(1.61547 -0.0652131 0)
(1.62743 -0.0645316 0)
(1.64086 -0.0630874 0)
(1.65567 -0.0597226 0)
(1.6714 -0.0532163 0)
(1.68724 -0.0423602 0)
(1.70198 -0.0262532 0)
(1.71398 -0.00429847 0)
(1.72114 0.0240793 0)
(1.72112 0.0584164 0)
(1.71188 0.0967463 0)
(1.69191 0.136841 0)
(1.66036 0.176261 0)
(1.61743 0.212355 0)
(1.56458 0.242679 0)
(1.5042 0.265435 0)
(1.4391 0.279664 0)
(1.372 0.285216 0)
(1.30524 0.282538 0)
(1.24072 0.272412 0)
(1.17982 0.255653 0)
(1.12372 0.233022 0)
(1.07308 0.204914 0)
(1.02894 0.171746 0)
(0.991397 0.133389 0)
(0.961725 0.0902547 0)
(0.940174 0.0407948 0)
(0.930759 -0.0134497 0)
(0.927136 -0.0722282 0)
(0.926153 -0.12432 0)
(0.913741 -0.173342 0)
(0.906472 -0.211979 0)
(0.896489 -0.261257 0)
(0.924515 -0.304878 0)
(0.938225 -0.352785 0)
(1.02848 -0.407545 0)
(1.00008 -0.00654461 0)
(1.00151 -0.0198377 0)
(1.00437 -0.0336539 0)
(1.00889 -0.0484544 0)
(1.0154 -0.064536 0)
(1.02432 -0.0822747 0)
(1.03627 -0.101782 0)
(1.05187 -0.123038 0)
(1.07198 -0.145858 0)
(1.0974 -0.169417 0)
(1.12888 -0.193081 0)
(1.16722 -0.215054 0)
(1.21219 -0.233433 0)
(1.26278 -0.245669 0)
(1.31685 -0.248676 0)
(1.37046 -0.241765 0)
(1.41955 -0.227241 0)
(1.46188 -0.208268 0)
(1.49713 -0.18729 0)
(1.52576 -0.165937 0)
(1.54844 -0.14541 0)
(1.56583 -0.126677 0)
(1.5788 -0.110478 0)
(1.58834 -0.0972783 0)
(1.59548 -0.0873145 0)
(1.60125 -0.0806216 0)
(1.60662 -0.07699 0)
(1.61254 -0.0758966 0)
(1.61984 -0.0765302 0)
(1.62917 -0.0778479 0)
(1.64098 -0.0785609 0)
(1.65541 -0.0771564 0)
(1.67225 -0.0719408 0)
(1.69083 -0.0611962 0)
(1.70986 -0.0433785 0)
(1.72804 -0.0175286 0)
(1.7433 0.0164491 0)
(1.75174 0.0594589 0)
(1.74983 0.109283 0)
(1.73532 0.162489 0)
(1.70635 0.215196 0)
(1.66225 0.263262 0)
(1.6044 0.303052 0)
(1.53608 0.332192 0)
(1.46149 0.349757 0)
(1.3847 0.355981 0)
(1.30888 0.351826 0)
(1.2363 0.33856 0)
(1.16831 0.317418 0)
(1.10574 0.289522 0)
(1.04917 0.255454 0)
(0.999408 0.215727 0)
(0.955748 0.170358 0)
(0.92036 0.118755 0)
(0.89443 0.0590994 0)
(0.874585 -0.0025167 0)
(0.845275 -0.0572724 0)
(0.803668 -0.0978528 0)
(0.753506 -0.141428 0)
(0.725782 -0.190219 0)
(0.722459 -0.268672 0)
(0.756411 -0.333056 0)
(0.792263 -0.410257 0)
(0.868379 -0.459202 0)
(1.00005 -0.00709528 0)
(1.00106 -0.0215928 0)
(1.00305 -0.0367036 0)
(1.00634 -0.053183 0)
(1.01119 -0.0712402 0)
(1.01823 -0.0917556 0)
(1.02818 -0.114657 0)
(1.04189 -0.140481 0)
(1.0608 -0.168878 0)
(1.08561 -0.198735 0)
(1.11805 -0.229711 0)
(1.15943 -0.258483 0)
(1.20958 -0.283502 0)
(1.26927 -0.30076 0)
(1.33572 -0.304321 0)
(1.40084 -0.293745 0)
(1.45734 -0.273274 0)
(1.50244 -0.247406 0)
(1.53661 -0.219275 0)
(1.5612 -0.191024 0)
(1.57756 -0.164266 0)
(1.58701 -0.140247 0)
(1.59096 -0.119775 0)
(1.59078 -0.103255 0)
(1.58779 -0.0909432 0)
(1.58317 -0.0829955 0)
(1.57814 -0.0793064 0)
(1.57389 -0.0793136 0)
(1.57146 -0.0820533 0)
(1.57175 -0.0863065 0)
(1.57561 -0.0905694 0)
(1.58379 -0.0930497 0)
(1.59682 -0.0916355 0)
(1.61498 -0.084047 0)
(1.63767 -0.068101 0)
(1.66323 -0.0414852 0)
(1.69089 -0.00293347 0)
(1.71651 0.0466443 0)
(1.73353 0.107489 0)
(1.73755 0.176212 0)
(1.72443 0.247179 0)
(1.69101 0.313594 0)
(1.63701 0.368876 0)
(1.56576 0.408501 0)
(1.48322 0.431003 0)
(1.39602 0.437569 0)
(1.3096 0.430653 0)
(1.2275 0.412805 0)
(1.15126 0.386252 0)
(1.08175 0.352391 0)
(1.01923 0.311869 0)
(0.962639 0.266014 0)
(0.912215 0.214107 0)
(0.872263 0.153293 0)
(0.836625 0.0878496 0)
(0.788042 0.035198 0)
(0.713597 0.00057549 0)
(0.637057 -0.0341356 0)
(0.584963 -0.0996066 0)
(0.574928 -0.186448 0)
(0.59239 -0.298026 0)
(0.627264 -0.376306 0)
(0.670398 -0.467661 0)
(0.706959 -0.48712 0)
(0.99999 -0.00738586 0)
(1.00052 -0.0226208 0)
(1.0013 -0.0384642 0)
(1.0031 -0.0562219 0)
(1.00546 -0.0756139 0)
(1.01009 -0.0987854 0)
(1.01649 -0.124536 0)
(1.02744 -0.15574 0)
(1.04345 -0.190366 0)
(1.06659 -0.22889 0)
(1.10044 -0.270847 0)
(1.14412 -0.308002 0)
(1.20041 -0.341992 0)
(1.27569 -0.365875 0)
(1.36101 -0.369008 0)
(1.43764 -0.352733 0)
(1.49421 -0.323797 0)
(1.52981 -0.287817 0)
(1.54811 -0.249006 0)
(1.55315 -0.2106 0)
(1.54831 -0.175012 0)
(1.53624 -0.143877 0)
(1.51913 -0.117895 0)
(1.49866 -0.0971437 0)
(1.47589 -0.0817037 0)
(1.45174 -0.0717228 0)
(1.42729 -0.0671381 0)
(1.40386 -0.0675093 0)
(1.38264 -0.0719481 0)
(1.36486 -0.0792488 0)
(1.35217 -0.0878344 0)
(1.34665 -0.0958213 0)
(1.35043 -0.101019 0)
(1.36544 -0.100851 0)
(1.39251 -0.0924106 0)
(1.43102 -0.0724552 0)
(1.47765 -0.037555 0)
(1.52944 0.0130191 0)
(1.58025 0.080048 0)
(1.62169 0.161577 0)
(1.64634 0.251972 0)
(1.64732 0.34224 0)
(1.62029 0.421843 0)
(1.56567 0.48166 0)
(1.48904 0.51696 0)
(1.39927 0.528282 0)
(1.30549 0.519757 0)
(1.21432 0.496749 0)
(1.12939 0.463441 0)
(1.05238 0.422131 0)
(0.98225 0.37533 0)
(0.91855 0.323622 0)
(0.864662 0.262583 0)
(0.816021 0.196655 0)
(0.750416 0.146226 0)
(0.657544 0.119705 0)
(0.559173 0.0888467 0)
(0.492436 0.0234345 0)
(0.464362 -0.082446 0)
(0.468494 -0.201885 0)
(0.486769 -0.326751 0)
(0.510014 -0.411025 0)
(0.543932 -0.502532 0)
(0.542355 -0.484984 0)
(0.999887 -0.00736833 0)
(0.999926 -0.0227525 0)
(0.999059 -0.0386248 0)
(0.99934 -0.0570921 0)
(0.99793 -0.0768322 0)
(1.00025 -0.102356 0)
(0.9998 -0.129352 0)
(1.00861 -0.167081 0)
(1.0151 -0.20612 0)
(1.03849 -0.258877 0)
(1.06937 -0.316245 0)
(1.11522 -0.36758 0)
(1.18854 -0.429193 0)
(1.28712 -0.465808 0)
(1.37947 -0.459788 0)
(1.43751 -0.424238 0)
(1.45659 -0.373413 0)
(1.44648 -0.316146 0)
(1.41746 -0.258776 0)
(1.37753 -0.205517 0)
(1.33223 -0.158998 0)
(1.28441 -0.120355 0)
(1.23632 -0.0891848 0)
(1.18924 -0.0651177 0)
(1.14288 -0.0479225 0)
(1.09684 -0.037122 0)
(1.05145 -0.032022 0)
(1.00808 -0.0322156 0)
(0.968805 -0.0375988 0)
(0.936508 -0.048202 0)
(0.914955 -0.0634358 0)
(0.907988 -0.0818317 0)
(0.918364 -0.100728 0)
(0.947263 -0.116184 0)
(0.993739 -0.123431 0)
(1.05562 -0.117447 0)
(1.12911 -0.0933205 0)
(1.21027 -0.0467746 0)
(1.29421 0.0221495 0)
(1.37423 0.112727 0)
(1.44215 0.219974 0)
(1.48886 0.33446 0)
(1.50626 0.44305 0)
(1.48985 0.53179 0)
(1.44111 0.59052 0)
(1.36758 0.616139 0)
(1.27987 0.612589 0)
(1.18788 0.587509 0)
(1.09897 0.547871 0)
(1.01609 0.499732 0)
(0.938859 0.446744 0)
(0.870432 0.385743 0)
(0.809309 0.318644 0)
(0.735516 0.2666 0)
(0.632141 0.243005 0)
(0.519198 0.222154 0)
(0.433788 0.163163 0)
(0.392052 0.0564576 0)
(0.38074 -0.0786701 0)
(0.386338 -0.216045 0)
(0.397605 -0.344649 0)
(0.408552 -0.434732 0)
(0.427955 -0.516462 0)
(0.401563 -0.462503 0)
(0.999761 -0.00702186 0)
(0.999295 -0.0218116 0)
(0.996459 -0.036988 0)
(0.995178 -0.0552569 0)
(0.988887 -0.0743325 0)
(0.989193 -0.10115 0)
(0.97789 -0.127298 0)
(0.986844 -0.171638 0)
(0.96983 -0.209203 0)
(1.00382 -0.285521 0)
(0.99901 -0.34815 0)
(1.07178 -0.44572 0)
(1.16314 -0.583203 0)
(1.24914 -0.610058 0)
(1.28056 -0.549753 0)
(1.24537 -0.456561 0)
(1.16835 -0.358776 0)
(1.07654 -0.268583 0)
(0.981913 -0.191715 0)
(0.893425 -0.128741 0)
(0.812962 -0.0793802 0)
(0.739754 -0.0414184 0)
(0.675856 -0.0113701 0)
(0.619856 0.0107768 0)
(0.570211 0.0244208 0)
(0.526991 0.0297736 0)
(0.491574 0.0270134 0)
(0.466136 0.0160322 0)
(0.452718 -0.00387676 0)
(0.453063 -0.032158 0)
(0.468345 -0.0672377 0)
(0.498746 -0.106231 0)
(0.543694 -0.144941 0)
(0.602135 -0.178044 0)
(0.672464 -0.199717 0)
(0.752576 -0.203966 0)
(0.839647 -0.185752 0)
(0.930492 -0.141425 0)
(1.02271 -0.0695697 0)
(1.11348 0.0289413 0)
(1.19807 0.150315 0)
(1.2698 0.286443 0)
(1.32006 0.423631 0)
(1.34061 0.544818 0)
(1.32739 0.634469 0)
(1.28293 0.68422 0)
(1.21522 0.695201 0)
(1.13476 0.675002 0)
(1.05061 0.633888 0)
(0.966853 0.581937 0)
(0.887537 0.521696 0)
(0.815468 0.453256 0)
(0.73665 0.394853 0)
(0.631186 0.367922 0)
(0.508563 0.356341 0)
(0.407386 0.31308 0)
(0.350405 0.213513 0)
(0.32937 0.0739057 0)
(0.3263 -0.0783806 0)
(0.32917 -0.223562 0)
(0.332553 -0.351392 0)
(0.330647 -0.443577 0)
(0.334462 -0.511222 0)
(0.29887 -0.428953 0)
(0.999684 -0.00634201 0)
(0.998531 -0.0196682 0)
(0.993902 -0.033491 0)
(0.990481 -0.0502403 0)
(0.979691 -0.0680084 0)
(0.976475 -0.0935885 0)
(0.954486 -0.118272 0)
(0.960702 -0.164287 0)
(0.913686 -0.197378 0)
(0.959971 -0.294733 0)
(0.862856 -0.335366 0)
(1.02545 -0.550271 0)
(0.974805 -0.707085 0)
(0.955931 -0.624549 0)
(0.849546 -0.469556 0)
(0.688349 -0.316973 0)
(0.533028 -0.19003 0)
(0.408501 -0.098525 0)
(0.312326 -0.0418405 0)
(0.244369 -0.00494427 0)
(0.190542 0.0146269 0)
(0.156502 0.0219551 0)
(0.147032 0.0301979 0)
(0.145631 0.0364499 0)
(0.146621 0.0387472 0)
(0.149863 0.0345316 0)
(0.156824 0.0221712 0)
(0.168798 0.000611986 0)
(0.186786 -0.0300024 0)
(0.212127 -0.0687129 0)
(0.245324 -0.113885 0)
(0.28697 -0.162719 0)
(0.337543 -0.211022 0)
(0.397586 -0.253413 0)
(0.467105 -0.283567 0)
(0.545496 -0.2945 0)
(0.630487 -0.279984 0)
(0.718862 -0.236013 0)
(0.80718 -0.161649 0)
(0.892793 -0.0585789 0)
(0.974024 0.0704499 0)
(1.04796 0.220064 0)
(1.10951 0.377875 0)
(1.15112 0.526289 0)
(1.16563 0.646251 0)
(1.1504 0.724174 0)
(1.10881 0.756352 0)
(1.04853 0.748573 0)
(0.976775 0.713272 0)
(0.899671 0.661167 0)
(0.824299 0.596114 0)
(0.745718 0.532 0)
(0.644563 0.495889 0)
(0.520237 0.487348 0)
(0.405801 0.462437 0)
(0.333253 0.379444 0)
(0.302202 0.242568 0)
(0.293818 0.081887 0)
(0.294181 -0.0779621 0)
(0.295114 -0.223747 0)
(0.293796 -0.348336 0)
(0.28268 -0.438001 0)
(0.275991 -0.497125 0)
(0.245001 -0.397768 0)
(0.999686 -0.00531154 0)
(0.997639 -0.0163502 0)
(0.991717 -0.0280953 0)
(0.985402 -0.0420168 0)
(0.971727 -0.0577648 0)
(0.962101 -0.0791165 0)
(0.934787 -0.102595 0)
(0.927724 -0.141152 0)
(0.867913 -0.175429 0)
(0.890687 -0.261995 0)
(0.722957 -0.291089 0)
(0.908881 -0.57739 0)
(0.332321 -0.388025 0)
(0.237632 -0.233548 0)
(0.118543 -0.172554 0)
(0.0550649 -0.127877 0)
(0.0290326 -0.0851714 0)
(0.0170414 -0.052029 0)
(0.0106561 -0.0275419 0)
(0.00545918 -0.00709026 0)
(0.00360384 -0.00127153 0)
(-0.00324075 -0.00176193 0)
(0.00215956 0.00806555 0)
(0.00433657 0.0173815 0)
(0.00906013 0.0226218 0)
(0.0161263 0.0197512 0)
(0.0256179 0.00696529 0)
(0.0376019 -0.0165675 0)
(0.0527106 -0.0503926 0)
(0.0715474 -0.0938608 0)
(0.0952148 -0.145393 0)
(0.125439 -0.202292 0)
(0.163907 -0.260109 0)
(0.212348 -0.31309 0)
(0.271842 -0.353966 0)
(0.342578 -0.374029 0)
(0.422592 -0.365469 0)
(0.508891 -0.323577 0)
(0.5967 -0.247019 0)
(0.681427 -0.13851 0)
(0.760732 -0.00271097 0)
(0.832795 0.154405 0)
(0.895808 0.324121 0)
(0.946391 0.490622 0)
(0.978211 0.634109 0)
(0.986273 0.737436 0)
(0.969905 0.792443 0)
(0.9321 0.802605 0)
(0.877798 0.778909 0)
(0.814749 0.730674 0)
(0.745741 0.670488 0)
(0.657551 0.625915 0)
(0.541461 0.613339 0)
(0.421018 0.603064 0)
(0.333715 0.543893 0)
(0.291035 0.420011 0)
(0.277249 0.256823 0)
(0.275696 0.0844783 0)
(0.279141 -0.0783793 0)
(0.282255 -0.221922 0)
(0.282519 -0.341607 0)
(0.270298 -0.424089 0)
(0.259742 -0.483243 0)
(0.240157 -0.377834 0)
(0.99969 -0.00392904 0)
(0.996859 -0.0120439 0)
(0.989846 -0.0208256 0)
(0.980956 -0.0311138 0)
(0.964942 -0.0433597 0)
(0.949202 -0.059122 0)
(0.918529 -0.0788375 0)
(0.89622 -0.105951 0)
(0.835439 -0.140124 0)
(0.814407 -0.191343 0)
(0.671613 -0.246562 0)
(0.733984 -0.371944 0)
(0.311116 -0.259637 0)
(0.299627 -0.247517 0)
(0.207274 -0.223147 0)
(0.128317 -0.171165 0)
(0.0776198 -0.113213 0)
(0.0457408 -0.0653112 0)
(0.0272548 -0.0305137 0)
(0.0128006 -0.00229194 0)
(0.0102406 0.0173499 0)
(-0.0189059 0.0123319 0)
(-0.0243769 0.0171836 0)
(-0.0345394 0.0226034 0)
(-0.0406892 0.0240559 0)
(-0.044933 0.0182621 0)
(-0.0474465 0.0029082 0)
(-0.0484162 -0.0229095 0)
(-0.0473215 -0.059843 0)
(-0.0432646 -0.107729 0)
(-0.0348884 -0.165327 0)
(-0.0201499 -0.230069 0)
(0.0028248 -0.297719 0)
(0.0359634 -0.361994 0)
(0.0810715 -0.4148 0)
(0.139095 -0.446227 0)
(0.208939 -0.446039 0)
(0.289102 -0.409041 0)
(0.375496 -0.332166 0)
(0.462096 -0.218794 0)
(0.543194 -0.0755715 0)
(0.616358 0.0894275 0)
(0.681718 0.267945 0)
(0.737784 0.446227 0)
(0.780931 0.606031 0)
(0.806496 0.729498 0)
(0.811406 0.806081 0)
(0.795491 0.835958 0)
(0.762443 0.826158 0)
(0.716442 0.788581 0)
(0.651142 0.747788 0)
(0.555392 0.730622 0)
(0.441377 0.728755 0)
(0.345654 0.695369 0)
(0.291829 0.595602 0)
(0.271797 0.440368 0)
(0.267686 0.261024 0)
(0.270624 0.0817659 0)
(0.278189 -0.0837373 0)
(0.286743 -0.225125 0)
(0.29463 -0.339641 0)
(0.290727 -0.410614 0)
(0.284124 -0.473653 0)
(0.276893 -0.373165 0)
(0.999657 -0.00226712 0)
(0.996364 -0.00696385 0)
(0.988338 -0.0120195 0)
(0.977964 -0.0181465 0)
(0.959436 -0.0253329 0)
(0.940719 -0.0352435 0)
(0.904586 -0.046869 0)
(0.877271 -0.0649976 0)
(0.804893 -0.0839046 0)
(0.778803 -0.119681 0)
(0.615425 -0.142141 0)
(0.68429 -0.225414 0)
(0.291012 -0.137567 0)
(0.300499 -0.107135 0)
(0.216117 -0.0903365 0)
(0.140415 -0.0703617 0)
(0.0899302 -0.0479605 0)
(0.0564396 -0.027223 0)
(0.0370823 -0.00983262 0)
(0.0195278 0.00763491 0)
(0.0273177 0.0354806 0)
(-0.0132442 0.0294995 0)
(-0.0268043 0.0319169 0)
(-0.0483104 0.0358541 0)
(-0.0658046 0.0356898 0)
(-0.0818526 0.0284345 0)
(-0.0966224 0.0118561 0)
(-0.110029 -0.01565 0)
(-0.121707 -0.0549549 0)
(-0.130846 -0.106439 0)
(-0.136143 -0.169269 0)
(-0.135963 -0.241087 0)
(-0.128554 -0.31786 0)
(-0.112073 -0.393038 0)
(-0.0846863 -0.458066 0)
(-0.0441979 -0.502582 0)
(0.00936485 -0.515256 0)
(0.0764225 -0.487119 0)
(0.155837 -0.414124 0)
(0.240663 -0.298812 0)
(0.324423 -0.15015 0)
(0.402022 0.0226019 0)
(0.471683 0.208575 0)
(0.533455 0.395255 0)
(0.585887 0.566429 0)
(0.625522 0.705227 0)
(0.648886 0.79995 0)
(0.654442 0.847603 0)
(0.642409 0.854299 0)
(0.6088 0.838612 0)
(0.544081 0.828135 0)
(0.45134 0.832651 0)
(0.359492 0.8221 0)
(0.299975 0.754149 0)
(0.27639 0.620222 0)
(0.272486 0.445618 0)
(0.276455 0.257486 0)
(0.284915 0.073179 0)
(0.297684 -0.0961543 0)
(0.311783 -0.23725 0)
(0.328684 -0.349255 0)
(0.337532 -0.407111 0)
(0.34267 -0.469975 0)
(0.346573 -0.382577 0)
(0.999649 -0.000448979 0)
(0.996087 -0.00133337 0)
(0.987596 -0.00232922 0)
(0.976336 -0.00363497 0)
(0.956723 -0.00539096 0)
(0.936024 -0.00794636 0)
(0.897916 -0.0114185 0)
(0.866546 -0.0165922 0)
(0.791535 -0.0230495 0)
(0.758253 -0.0332439 0)
(0.594707 -0.0419438 0)
(0.654121 -0.0650872 0)
(0.274938 -0.0389702 0)
(0.29479 -0.0360312 0)
(0.220512 -0.0336693 0)
(0.150086 -0.0253663 0)
(0.10006 -0.0144936 0)
(0.0650104 -0.00433975 0)
(0.0446764 0.00411695 0)
(0.0245242 0.0134966 0)
(0.0404404 0.0535717 0)
(-0.00645032 0.054129 0)
(-0.0246035 0.0565393 0)
(-0.0527556 0.0589653 0)
(-0.0771327 0.0573094 0)
(-0.100496 0.0487395 0)
(-0.123149 0.0310665 0)
(-0.14491 0.0022712 0)
(-0.16533 -0.039101 0)
(-0.183778 -0.0935235 0)
(-0.199068 -0.160745 0)
(-0.209901 -0.23863 0)
(-0.215046 -0.323024 0)
(-0.213392 -0.407511 0)
(-0.203655 -0.483534 0)
(-0.183784 -0.540607 0)
(-0.151228 -0.567484 0)
(-0.103364 -0.551997 0)
(-0.0391989 -0.488594 0)
(0.0369319 -0.377087 0)
(0.118663 -0.225698 0)
(0.199615 -0.0476036 0)
(0.275115 0.143983 0)
(0.344293 0.336432 0)
(0.406273 0.51546 0)
(0.458766 0.66539 0)
(0.49839 0.774602 0)
(0.521523 0.839894 0)
(0.522972 0.870134 0)
(0.494631 0.885946 0)
(0.434984 0.904095 0)
(0.362573 0.913825 0)
(0.308314 0.879662 0)
(0.287169 0.77888 0)
(0.289431 0.623339 0)
(0.300768 0.439626 0)
(0.315357 0.247354 0)
(0.331337 0.059903 0)
(0.34971 -0.113289 0)
(0.36701 -0.255621 0)
(0.389052 -0.369327 0)
(0.405951 -0.418747 0)
(0.425196 -0.475431 0)
(0.440136 -0.401048 0)
(0.99965 0.001432 0)
(0.996101 0.00444868 0)
(0.987636 0.00769229 0)
(0.976417 0.0112859 0)
(0.956861 0.0153523 0)
(0.936235 0.0201459 0)
(0.898215 0.0258251 0)
(0.866949 0.0330348 0)
(0.792044 0.0414429 0)
(0.758899 0.0535058 0)
(0.595399 0.0632003 0)
(0.655047 0.0903324 0)
(0.275635 0.0516651 0)
(0.295413 0.0470621 0)
(0.221152 0.0468458 0)
(0.150763 0.0413601 0)
(0.100807 0.0335505 0)
(0.0658606 0.0266219 0)
(0.0459244 0.0216474 0)
(0.0255003 0.0194888 0)
(0.0451496 0.0711174 0)
(-0.00142701 0.0800914 0)
(-0.0189813 0.0836007 0)
(-0.0476349 0.0851638 0)
(-0.0730881 0.082799 0)
(-0.0984326 0.073768 0)
(-0.123639 0.0555903 0)
(-0.148472 0.0259851 0)
(-0.172184 -0.0170234 0)
(-0.194207 -0.0735911 0)
(-0.213841 -0.144291 0)
(-0.230029 -0.22676 0)
(-0.242328 -0.316589 0)
(-0.250656 -0.407368 0)
(-0.254813 -0.490982 0)
(-0.253685 -0.557781 0)
(-0.244537 -0.596848 0)
(-0.222907 -0.596572 0)
(-0.184229 -0.548121 0)
(-0.12684 -0.448224 0)
(-0.0551036 -0.301707 0)
(0.0232348 -0.12254 0)
(0.101884 0.0739514 0)
(0.178431 0.26954 0)
(0.24988 0.454115 0)
(0.312997 0.613087 0)
(0.363849 0.736489 0)
(0.396545 0.823084 0)
(0.403965 0.882291 0)
(0.382563 0.927706 0)
(0.342328 0.96019 0)
(0.306987 0.958589 0)
(0.296639 0.89746 0)
(0.310862 0.774317 0)
(0.336693 0.608857 0)
(0.364688 0.422386 0)
(0.392238 0.229033 0)
(0.416555 0.0411708 0)
(0.44034 -0.132899 0)
(0.459024 -0.275349 0)
(0.4824 -0.391982 0)
(0.498688 -0.440771 0)
(0.524872 -0.492182 0)
(0.548962 -0.424596 0)
(0.999658 0.00323813 0)
(0.996404 0.01004 0)
(0.988454 0.017314 0)
(0.97821 0.0257009 0)
(0.959838 0.0351638 0)
(0.941361 0.0472937 0)
(0.905442 0.0610724 0)
(0.878521 0.081263 0)
(0.806313 0.101978 0)
(0.780883 0.139845 0)
(0.617334 0.162841 0)
(0.687372 0.250817 0)
(0.293303 0.150659 0)
(0.302525 0.118036 0)
(0.218081 0.103105 0)
(0.1424 0.0858307 0)
(0.0920649 0.0664085 0)
(0.0587822 0.0487082 0)
(0.0404485 0.034358 0)
(0.0220737 0.0233594 0)
(0.0411525 0.0851812 0)
(0.00336004 0.102775 0)
(-0.00773468 0.107386 0)
(-0.0302035 0.108957 0)
(-0.0503032 0.106803 0)
(-0.0712878 0.0978871 0)
(-0.0925965 0.0796779 0)
(-0.113647 0.0494983 0)
(-0.132976 0.0054055 0)
(-0.150792 -0.053919 0)
(-0.167285 -0.127786 0)
(-0.181536 -0.213426 0)
(-0.194342 -0.305944 0)
(-0.206939 -0.398826 0)
(-0.220361 -0.48456 0)
(-0.234541 -0.554968 0)
(-0.247393 -0.601105 0)
(-0.254209 -0.613062 0)
(-0.248124 -0.581089 0)
(-0.22238 -0.498868 0)
(-0.174483 -0.366997 0)
(-0.109013 -0.195301 0)
(-0.0372629 -0.000633817 0)
(0.0385675 0.199171 0)
(0.115661 0.389 0)
(0.184601 0.556893 0)
(0.241068 0.695637 0)
(0.279236 0.804277 0)
(0.295358 0.888054 0)
(0.293432 0.949936 0)
(0.288449 0.980402 0)
(0.298339 0.960161 0)
(0.329576 0.878421 0)
(0.37413 0.744242 0)
(0.421374 0.576434 0)
(0.465391 0.391428 0)
(0.505046 0.200635 0)
(0.536873 0.0161086 0)
(0.565292 -0.155165 0)
(0.584264 -0.295056 0)
(0.607411 -0.411886 0)
(0.619197 -0.462361 0)
(0.642147 -0.513987 0)
(0.667043 -0.449565 0)
(0.999692 0.00487725 0)
(0.996925 0.0150461 0)
(0.990038 0.0259906 0)
(0.981352 0.0384825 0)
(0.965609 0.0529464 0)
(0.950226 0.0708725 0)
(0.919968 0.0926895 0)
(0.898157 0.121796 0)
(0.837945 0.157782 0)
(0.817449 0.210889 0)
(0.675421 0.267039 0)
(0.738151 0.396248 0)
(0.314772 0.273537 0)
(0.303134 0.259776 0)
(0.210822 0.237034 0)
(0.131775 0.187637 0)
(0.0811025 0.132842 0)
(0.0492937 0.0879573 0)
(0.0320437 0.0553962 0)
(0.0163713 0.0304476 0)
(0.0339246 0.0945588 0)
(0.0131594 0.116077 0)
(0.0148201 0.120346 0)
(0.00671904 0.122836 0)
(-0.000641407 0.121405 0)
(-0.00935114 0.113318 0)
(-0.0177799 0.0953939 0)
(-0.0250594 0.0647219 0)
(-0.03085 0.0193761 0)
(-0.035058 -0.0428105 0)
(-0.0382386 -0.118683 0)
(-0.0419081 -0.204773 0)
(-0.0483753 -0.295829 0)
(-0.0603865 -0.385552 0)
(-0.0800262 -0.467348 0)
(-0.10775 -0.534714 0)
(-0.141567 -0.581003 0)
(-0.176682 -0.59883 0)
(-0.205638 -0.579873 0)
(-0.219408 -0.516569 0)
(-0.209915 -0.405805 0)
(-0.175505 -0.25242 0)
(-0.122063 -0.0693801 0)
(-0.0570721 0.130393 0)
(0.0132161 0.323689 0)
(0.0815904 0.499441 0)
(0.141531 0.651264 0)
(0.18865 0.775891 0)
(0.22355 0.872729 0)
(0.253561 0.936972 0)
(0.29067 0.956728 0)
(0.343007 0.92024 0)
(0.408098 0.827377 0)
(0.476769 0.690687 0)
(0.541953 0.526055 0)
(0.599203 0.34711 0)
(0.648168 0.163597 0)
(0.684911 -0.0133363 0)
(0.7156 -0.179042 0)
(0.733827 -0.314355 0)
(0.755061 -0.428956 0)
(0.76224 -0.478149 0)
(0.778261 -0.530842 0)
(0.792376 -0.469852 0)
(0.999689 0.00622662 0)
(0.997727 0.0192419 0)
(0.99198 0.0330721 0)
(0.985935 0.0491052 0)
(0.972639 0.0670007 0)
(0.963472 0.0904058 0)
(0.936762 0.115951 0)
(0.930311 0.156366 0)
(0.871307 0.192451 0)
(0.894918 0.280928 0)
(0.727641 0.310339 0)
(0.916001 0.602229 0)
(0.336105 0.400523 0)
(0.239383 0.243149 0)
(0.119713 0.183937 0)
(0.0564977 0.141745 0)
(0.0308536 0.101363 0)
(0.0188933 0.0698154 0)
(0.0126479 0.0456439 0)
(0.00562911 0.0246569 0)
(0.0192394 0.0905941 0)
(0.0420473 0.11563 0)
(0.0672349 0.122776 0)
(0.0828227 0.126222 0)
(0.0970067 0.12398 0)
(0.110829 0.114588 0)
(0.12563 0.0949352 0)
(0.142297 0.0622655 0)
(0.15974 0.0148911 0)
(0.17859 -0.0474509 0)
(0.197328 -0.121236 0)
(0.211492 -0.202229 0)
(0.216891 -0.285045 0)
(0.209268 -0.364076 0)
(0.185334 -0.434378 0)
(0.143931 -0.491946 0)
(0.0872591 -0.532944 0)
(0.0214392 -0.55221 0)
(-0.0441065 -0.542441 0)
(-0.0991588 -0.49597 0)
(-0.134351 -0.407542 0)
(-0.14276 -0.277886 0)
(-0.122077 -0.11432 0)
(-0.0800172 0.0709313 0)
(-0.025845 0.259631 0)
(0.0358825 0.437601 0)
(0.0987049 0.594968 0)
(0.158901 0.725798 0)
(0.218203 0.824644 0)
(0.282051 0.883301 0)
(0.356025 0.892108 0)
(0.440461 0.846228 0)
(0.529386 0.75068 0)
(0.615083 0.617893 0)
(0.692774 0.461241 0)
(0.758462 0.292789 0)
(0.812494 0.120653 0)
(0.851423 -0.0453095 0)
(0.882334 -0.202694 0)
(0.898847 -0.331424 0)
(0.916307 -0.442034 0)
(0.917002 -0.487925 0)
(0.927148 -0.537695 0)
(0.92285 -0.479851 0)
(0.999687 0.00721366 0)
(0.998644 0.0224184 0)
(0.994217 0.0382204 0)
(0.991157 0.0569766 0)
(0.980777 0.0767668 0)
(0.978243 0.104332 0)
(0.95677 0.130876 0)
(0.964186 0.178896 0)
(0.917379 0.213191 0)
(0.966069 0.313443 0)
(0.867669 0.352777 0)
(1.03495 0.574469 0)
(0.98218 0.727586 0)
(0.959545 0.64066 0)
(0.848352 0.483729 0)