/*--------------------------------*- C++ -*----------------------------------*\
  =========                 |
  \\      /  F ield         | OpenFOAM: The Open Source CFD Toolbox
   \\    /   O peration     | Website:  https://openfoam.org
    \\  /    A nd           | Version:  11
     \\/     M anipulation  |
\*---------------------------------------------------------------------------*/
FoamFile
{
    format      ascii;
    class       surfaceScalarField;
    location    "90";
    object      phi;
}
// * * * * * * * * * * * * * * * * * * * * * * * * * * * * * * * * * * * * * //

dimensions      [0 3 -1 0 0 0 0];

internalField   nonuniform List<scalar> 
4000
(
0.025031
-3.10145e-05
0.0251226
-9.16334e-05
0.0252739
-0.000151254
0.0254845
-0.000210582
0.0257544
-0.000269961
0.0260838
-0.000329372
0.0264721
-0.000388287
0.0269177
-0.000445584
0.0274172
-0.00049948
0.0279647
-0.000547505
0.0285512
-0.000586548
0.0291643
-0.000613071
0.0297878
-0.000623467
0.0304023
-0.000614591
0.0309867
-0.000584387
0.0315192
-0.000532514
0.0319801
-0.000460899
0.0323542
-0.000374042
0.0326328
-0.000278571
0.0328149
-0.000182125
0.0329072
-9.23225e-05
0.0329233
-1.61076e-05
0.0328834
3.99501e-05
0.0328132
7.01689e-05
0.0327412
7.20011e-05
0.0326976
4.35827e-05
0.0327108
-1.32111e-05
0.032805
-9.42059e-05
0.0329972
-0.000192202
0.0332949
-0.000297618
0.0336938
-0.000398973
0.0341776
-0.000483793
0.0347177
-0.000540077
0.0352753
-0.000557571
0.0358043
-0.000529043
0.0362561
-0.000451834
0.0365855
-0.000329362
0.0367523
-0.000166777
0.0367332
1.90995e-05
0.0365143
0.000218876
0.0360977
0.000416601
0.0354985
0.000599225
0.0347413
0.000757134
0.0338567
0.000884607
0.0328772
0.000979541
0.0318345
0.0010427
0.0307579
0.00107664
0.029673
0.00108485
0.0286023
0.00107074
0.0275646
0.00103762
0.0265775
0.000987111
0.025656
0.000921542
0.0248165
0.000839464
0.0240737
0.000742825
0.0234483
0.000625366
0.0229577
0.000490623
0.0226263
0.000331393
0.0224786
0.000147679
0.0225231
-4.44069e-05
0.0228151
-0.000292095
0.023293
-0.000477888
0.0241241
-0.00083107
0.0250654
-0.000941292
-0.00147743
0.0250308
-6.18141e-05
0.0251217
-0.000182486
0.0252717
-0.000301328
0.025481
-0.000419898
0.0257501
-0.000538983
0.0260793
-0.000658638
0.026469
-0.000777913
0.026918
-0.000894623
0.0274237
-0.0010052
0.0279809
-0.00110464
0.0285808
-0.00118651
0.0292111
-0.00124335
0.029855
-0.00126735
0.0304919
-0.0012515
0.0310986
-0.00119107
0.0316511
-0.001085
0.0321274
-0.000937206
0.0325107
-0.000757357
0.0327916
-0.000559543
0.0329691
-0.000359612
0.03305
-0.000173176
0.0330483
-1.43819e-05
0.0329855
0.000102693
0.0328897
0.000165983
0.0327912
0.000170481
0.0327231
0.000111688
0.0327165
-6.59736e-06
0.0327981
-0.000175807
0.0329872
-0.000381262
0.0332927
-0.000603143
0.0337112
-0.000817484
0.0342255
-0.000998105
0.0348051
-0.00111969
0.0354076
-0.00116005
0.0359832
-0.00110463
0.0364769
-0.000945572
0.0368398
-0.000692273
0.0370285
-0.000355432
0.0370162
3.13543e-05
0.03679
0.000445125
0.0363534
0.000853193
0.0357247
0.00122796
0.0349321
0.00154971
0.0340096
0.00180709
0.0329926
0.0019965
0.031915
0.00212036
0.0308069
0.00218475
0.0296943
0.00219746
0.0285991
0.00216586
0.0275399
0.00209685
0.0265332
0.00199384
0.0255931
0.00186167
0.0247356
0.00169695
0.0239743
0.00150406
0.0233309
0.0012688
0.0228221
0.000999409
0.022474
0.00067946
0.0223042
0.0003175
0.0223214
-6.15768e-05
0.0225666
-0.000537342
0.0229888
-0.000900086
0.0237506
-0.00159284
0.0246199
-0.00181061
-0.00290944
0.0250302
-9.19993e-05
0.0251193
-0.000271595
0.0252667
-0.000448776
0.0254731
-0.000626259
0.0257397
-0.000805543
0.026068
-0.000987012
0.0264597
-0.00116954
0.026915
-0.00134999
0.0274329
-0.00152306
0.0280092
-0.00168097
0.0286363
-0.00181355
0.0293017
-0.00190876
0.0299877
-0.00195334
0.0306711
-0.00193493
0.0313246
-0.00184457
0.0319189
-0.00167928
0.032427
-0.00144536
0.0328291
-0.00115948
0.0331147
-0.000845084
0.0332823
-0.000527261
0.0333392
-0.000230024
0.0332996
2.5223e-05
0.0331902
0.00021208
0.03304
0.000316217
0.0328851
0.000325313
0.0327656
0.000231188
0.032717
4.20317e-05
0.0327713
-0.000230159
0.0329529
-0.000562858
0.0332741
-0.000924294
0.0337327
-0.00127605
0.0343102
-0.00157567
0.0349717
-0.00178118
0.0356676
-0.00185599
0.0363394
-0.00177641
0.0369226
-0.00152873
0.0373554
-0.00112507
0.0375897
-0.000589785
0.0375922
2.88401e-05
0.03735
0.00068738
0.0368707
0.00133247
0.0361798
0.00191891
0.0353135
0.00241597
0.0343133
0.00280733
0.0332203
0.0030895
0.0320721
0.00326859
0.0309008
0.00335598
0.0297329
0.00336535
0.0285896
0.00330919
0.0274879
0.00319854
0.0264427
0.003039
0.025466
0.00283844
0.0245721
0.00259087
0.0237741
0.00230202
0.0230956
0.00194725
0.0225509
0.0015442
0.0221602
0.00107013
0.0219225
0.000555206
0.0218467
1.41791e-05
0.021961
-0.000651656
0.0222547
-0.00119375
0.0228948
-0.00223299
0.0236806
-0.00259634
-0.00433665
0.0250291
-0.000121126
0.0251151
-0.000357612
0.0252579
-0.000591481
0.0254586
-0.000827058
0.02572
-0.00106693
0.0260453
-0.00131223
0.0264379
-0.00156214
0.0269008
-0.00181289
0.0274354
-0.00205766
0.0280398
-0.00228546
0.0287079
-0.00248164
0.0294277
-0.00262849
0.0301797
-0.00270536
0.0309373
-0.00269258
0.0316665
-0.00257372
0.0323282
-0.00234103
0.0328873
-0.00200439
0.0333192
-0.00159141
0.033612
-0.00113788
0.0337642
-0.000679431
0.033783
-0.000248844
0.0336835
0.000124764
0.0334984
0.000397139
0.0332609
0.000553729
0.0330154
0.000570839
0.0328083
0.000438231
0.0326915
0.000158862
0.0326991
-0.000237762
0.0328654
-0.000729204
0.0332084
-0.00126725
0.0337288
-0.00179642
0.0344061
-0.00225298
0.0351983
-0.00257337
0.0360457
-0.00270346
0.0368721
-0.00260274
0.0375989
-0.0022556
0.0381434
-0.00166956
0.0384504
-0.000896753
0.038476
3.18684e-06
0.0382077
0.00095568
0.0376599
0.00188027
0.0368694
0.00270946
0.0358857
0.0033997
0.0347628
0.00393021
0.0335518
0.0043005
0.0322962
0.0045242
0.0310305
0.0046216
0.0297811
0.00461483
0.0285673
0.00452295
0.027404
0.00436183
0.0263026
0.00414042
0.0252725
0.00386855
0.0243243
0.00353907
0.0234738
0.00315251
0.0227433
0.00267772
0.0221335
0.00215401
0.0216452
0.00155847
0.0212589
0.000941461
0.0210052
0.000267853
0.0209435
-0.000589932
0.02115
-0.00140027
0.0217574
-0.0028403
0.0226306
-0.00346957
-0.00585262
0.0250274
-0.000148533
0.0251084
-0.000438604
0.0252433
-0.000726352
0.0254345
-0.00101834
0.0256863
-0.00131865
0.0260038
-0.00162977
0.0263936
-0.00195198
0.0268622
-0.00228142
0.0274154
-0.0026109
0.0280554
-0.00292545
0.0287792
-0.00320547
0.0295755
-0.00342471
0.030422
-0.00355195
0.031288
-0.0035585
0.0321283
-0.00341402
0.032888
-0.00310078
0.03352
-0.00263643
0.0339949
-0.00206627
0.0342989
-0.00144183
0.0344295
-0.000810064
0.034392
-0.000211325
0.0342086
0.000308099
0.0339119
0.000693894
0.0335458
0.000919808
0.0331651
0.000951524
0.0328322
0.000771183
0.032606
0.00038503
0.0325417
-0.000173457
0.0326797
-0.000867186
0.0330479
-0.00163547
0.0336512
-0.00239967
0.0344653
-0.00306709
0.0354389
-0.00354704
0.036495
-0.00375952
0.037539
-0.00364678
0.038468
-0.00318459
0.0391821
-0.00238363
0.0395997
-0.00131438
0.0396678
-6.49104e-05
0.0393676
0.00125589
0.0387234
0.00252449
0.0377912
0.00364165
0.0366417
0.00454916
0.0353477
0.00522428
0.0339738
0.00567434
0.0325722
0.00592585
0.0311806
0.00601319
0.0298246
0.00597083
0.0285207
0.00582679
0.02728
0.0056026
0.0261079
0.00531252
0.0250086
0.00496784
0.0239943
0.00455337
0.02308
0.00406685
0.0222697
0.003488
0.0215355
0.00288824
0.0208661
0.00222786
0.0202712
0.0015363
0.0198816
0.000657479
0.0197806
-0.000488962
0.0200969
-0.00171654
0.0208359
-0.00357933
0.0219094
-0.00454302
-0.00740446
0.0250247
-0.000173273
0.025098
-0.000511897
0.0252206
-0.000848962
0.0253966
-0.0011943
0.0256316
-0.00155369
0.0259341
-0.00193218
0.0263137
-0.00233161
0.0267814
-0.00274917
0.0273501
-0.00317957
0.028028
-0.00360329
0.0288213
-0.00399881
0.0297202
-0.0043236
0.030699
-0.0045308
0.0317205
-0.00457998
0.032718
-0.00441151
0.0336115
-0.00399433
0.0343414
-0.00336632
0.0348751
-0.00259993
0.0351966
-0.00176333
0.0353008
-0.000914255
0.0351878
-9.83589e-05
0.0348873
0.000608587
0.0344343
0.00114688
0.0338861
0.00146809
0.0333141
0.0015235
0.0327978
0.0012875
0.0324162
0.000766577
0.0322397
3.03526e-06
0.0323239
-0.000951327
0.0327083
-0.00201987
0.0333988
-0.00309021
0.0343577
-0.00402594
0.0355141
-0.00470344
0.0367789
-0.00502439
0.0380514
-0.00491922
0.0392157
-0.00434889
0.040167
-0.00333497
0.0407839
-0.00193122
0.0409872
-0.000268228
0.0407183
0.00152481
0.040002
0.00324071
0.0389114
0.00473226
0.0375538
0.00590682
0.036039
0.00673902
0.0344575
0.00725589
0.0328735
0.00750987
0.031328
0.00755866
0.0298448
0.00745401
0.0284365
0.0072351
0.0271062
0.00693287
0.0258519
0.00656681
0.0246758
0.00614392
0.02359
0.00563916
0.0225915
0.0050654
0.0216485
0.00443102
0.0207232
0.00381354
0.0198575
0.00309355
0.0191534
0.00224036
0.0188002
0.00101075
0.0188407
-0.000529512
0.0193535
-0.0022293
0.020198
-0.00442387
0.021348
-0.00569297
-0.00882661
0.0250208
-0.000194092
0.0250829
-0.000574024
0.0251872
-0.000953218
0.0253398
-0.00134688
0.0255474
-0.00176132
0.0258234
-0.00220816
0.0261804
-0.00268858
0.0266362
-0.00320499
0.0272107
-0.00375414
0.0279193
-0.00431187
0.0287892
-0.00486869
0.0298152
-0.00534957
0.0309778
-0.00569346
0.0322274
-0.00582958
0.0334477
-0.0056318
0.0345217
-0.00506825
0.0353813
-0.00422595
0.0359948
-0.00321341
0.0363437
-0.00211228
0.0364195
-0.000990036
0.0362003
0.000120817
0.0357468
0.00106208
0.035079
0.00181468
0.034274
0.00227309
0.0334333
0.00236421
0.032657
0.0020638
0.0320363
0.00138729
0.0316624
0.000376963
0.0316158
-0.000904736
0.0319337
-0.00233777
0.0325928
-0.00374929
0.0335201
-0.0049533
0.0346491
-0.0058324
0.0359322
-0.00630747
0.0373135
-0.00630052
0.0387054
-0.00574083
0.0399852
-0.00461472
0.0409909
-0.00293691
0.0416106
-0.000887926
0.0416448
0.00149057
0.0410941
0.00379144
0.0399997
0.00582665
0.0384986
0.00740785
0.0367651
0.00847259
0.0349512
0.00906979
0.0331582
0.00930284
0.0314394
0.0092774
0.0298175
0.009076
0.0282969
0.00875568
0.0268706
0.00835912
0.0255304
0.00790701
0.024278
0.00739635
0.0231093
0.00680787
0.021989
0.00618573
0.0208709
0.00554913
0.0197689
0.0049155
0.0188111
0.00405139
0.0181499
0.00290152
0.0179352
0.00122544
0.0181229
-0.000717156
0.0187406
-0.00284703
0.0195667
-0.00524996
0.0206636
-0.00678989
-0.0100317
0.0250154
-0.000209461
0.0250622
-0.000620882
0.0251403
-0.00103132
0.0252591
-0.00146565
0.0254234
-0.00192564
0.0256562
-0.00244094
0.0259684
-0.00300078
0.0263968
-0.00363343
0.0269607
-0.00431799
0.0276881
-0.00503923
0.0286343
-0.00581489
0.0297876
-0.00650294
0.0312042
-0.00711005
0.0328
-0.00742532
0.034345
-0.00717686
0.0356684
-0.00639168
0.0366973
-0.00525476
0.0374044
-0.00392057
0.0377728
-0.00248064
0.0377894
-0.00100662
0.0374552
0.000455013
0.0367746
0.00174262
0.0358084
0.00278091
0.0346429
0.00343857
0.0334064
0.00360067
0.0322472
0.00322301
0.0312545
0.00237999
0.0304899
0.00114157
0.0300593
-0.000474125
0.0299503
-0.00222876
0.0300608
-0.00385977
0.030358
-0.0052505
0.0309393
-0.00641368
0.0319204
-0.00728864
0.0333203
-0.00770036
0.035026
-0.00744661
0.0368468
-0.00643546
0.0385498
-0.00463992
0.0399314
-0.00226958
0.040775
0.000647033
0.0409217
0.00364472
0.0403094
0.00643894
0.0390263
0.00869097
0.037285
0.0102139
0.0353299
0.0110249
0.033353
0.0112797
0.0314634
0.011167
0.0297031
0.0108363
0.0280729
0.0103858
0.0265559
0.00987611
0.025139
0.00932392
0.0238137
0.00872164
0.0225469
0.00807472
0.0212824
0.00745013
0.0200052
0.00682635
0.0188063
0.00611445
0.0178603
0.0049974
0.0173021
0.00345972
0.0172075
0.00131999
0.017473
-0.000982597
0.0181065
-0.00348062
0.0188595
-0.0060029
0.0198581
-0.00778853
-0.0109994
0.0250084
-0.000217819
0.0250354
-0.000647969
0.0250787
-0.00107458
0.0251514
-0.0015384
0.0252516
-0.00202579
0.0254174
-0.00260672
0.0256441
-0.00322746
0.0260197
-0.00400906
0.0265303
-0.00482858
0.0272868
-0.00579573
0.0283103
-0.00683838
0.0295596
-0.00775229
0.0313705
-0.00892089
0.0335018
-0.00955662
0.0354598
-0.0091349
0.0370226
-0.00795444
0.0381408
-0.00637303
0.0388223
-0.00460203
0.0391004
-0.00275879
0.0389979
-0.000904126
0.0384703
0.000982665
0.0374844
0.0027285
0.036137
0.00412829
0.0345268
0.00504878
0.032761
0.00536647
0.0309667
0.00501731
0.0293336
0.00401309
0.0279537
0.0025215
0.0265401
0.000939503
0.0251064
-0.000795083
0.0237627
-0.00251606
0.0229364
-0.00442422
0.0230193
-0.00649655
0.0240963
-0.00836563
0.025989
-0.00959304
0.0283962
-0.00985387
0.0309839
-0.00902314
0.0335059
-0.00716193
0.0356965
-0.00446019
0.037477
-0.00113341
0.0385977
0.00252402
0.0388999
0.0061367
0.0383326
0.00925833
0.0370269
0.0115196
0.035247
0.0128047
0.0332723
0.0132545
0.0313066
0.0131327
0.029454
0.0126889
0.0277399
0.0120999
0.0261536
0.0114624
0.0246786
0.0107989
0.0232854
0.0101148
0.0219137
0.00944643
0.0205166
0.00884726
0.0191341
0.00820885
0.0179157
0.00733286
0.0170306
0.00588247
0.0165713
0.00391898
0.0165473
0.00134407
0.0168431
-0.00127841
0.0174458
-0.00408338
0.0181119
-0.006669
0.0189868
-0.00866338
-0.0117298
0.0250002
-0.000217998
0.0250027
-0.000650506
0.0250036
-0.00107549
0.0250167
-0.00155144
0.0250325
-0.0020416
0.0250992
-0.00267346
0.025185
-0.00331321
0.0254475
-0.00427161
0.0257872
-0.00516824
0.0266061
-0.00661469
0.0276259
-0.00785815
0.029142
-0.00926836
0.0316518
-0.0114307
0.0342759
-0.0121807
0.0362298
-0.0110888
0.0374636
-0.00918825
0.0381134
-0.00702286
0.0383052
-0.00479383
0.0381788
-0.00263237
0.0378851
-0.000610437
0.0371692
0.00169855
0.036008
0.00388965
0.0343547
0.00578166
0.0322482
0.00715529
0.0299299
0.00768475
0.0276338
0.00731342
0.0252478
0.00639902
0.0223561
0.0054132
0.0189575
0.00433819
0.0156235
0.00253891
0.0135168
-0.00040935
0.0131246
-0.00403208
0.0142161
-0.00758809
0.0163303
-0.0104798
0.0190821
-0.0123449
0.0221793
-0.0129511
0.0253555
-0.0121993
0.0283677
-0.0101742
0.0310442
-0.00713667
0.0333054
-0.00339467
0.0350434
0.000786069
0.036096
0.00508407
0.0363159
0.00903847
0.0356899
0.0121456
0.034385
0.0141095
0.0326738
0.0149658
0.030817
0.0149895
0.0289873
0.0145187
0.02726
0.0138271
0.0256522
0.0130703
0.0241488
0.0123023
0.0227005
0.0115632
0.021238
0.0109089
0.0197478
0.0103375
0.018323
0.00963364
0.0171355
0.00852034
0.0163228
0.00669519
0.0159359
0.00430589
0.0159437
0.0013363
0.0162391
-0.00157384
0.016787
-0.00463133
0.0173692
-0.00725119
0.018114
-0.0094082
-0.0122482
0.0249914
-0.000209439
0.024965
-0.000624016
0.0249191
-0.00102967
0.0248586
-0.00149087
0.0247788
-0.00196185
0.0247072
-0.0026018
0.0246163
-0.00322235
0.0246455
-0.00430078
0.0246523
-0.00517508
0.025319
-0.00728138
0.0259789
-0.00851803
0.0286267
-0.0119162
0.0315019
-0.0143059
0.0331316
-0.0138104
0.0334056
-0.0113628
0.0329214
-0.00870413
0.0321083
-0.00620973
0.0312892
-0.00397476
0.0307066
-0.00204969
0.0301984
-0.000102265
0.0296425
0.00225448
0.0288521
0.00467998
0.027604
0.00702977
0.0256894
0.00906995
0.0229239
0.0104502
0.019159
0.0110783
0.0145881
0.0109699
0.00999122
0.0100101
0.00653859
0.00779081
0.0049183
0.0041592
0.00494082
-0.000431869
0.00616392
-0.00525517
0.0081844
-0.00960857
0.010754
-0.0130494
0.0137326
-0.0153234
0.0170155
-0.016234
0.0204388
-0.0156226
0.0237618
-0.0134972
0.0267498
-0.0101246
0.0292665
-0.00591143
0.0312792
-0.00122663
0.0327263
0.00363696
0.0334924
0.00827235
0.0334857
0.0121524
0.0327506
0.0148446
0.0314749
0.0162414
0.0299029
0.0165616
0.0282372
0.0161843
0.0265992
0.0154652
0.0250396
0.0146298
0.0235509
0.013791
0.0220765
0.0130376
0.0205608
0.0124246
0.0190319
0.0118664
0.0176183
0.0110472
0.0164897
0.00964894
0.0157449
0.00743998
0.0154059
0.00464483
0.0154219
0.00132035
0.0157009
-0.00185291
0.0161888
-0.00511923
0.0167006
-0.00776292
0.0173242
-0.0100319
-0.0125939
0.0249823
-0.000191734
0.0249247
-0.000566424
0.0248301
-0.000935089
0.0246878
-0.00134853
0.0245083
-0.00178239
0.0242684
-0.00236192
0.0239991
-0.00295299
0.0236676
-0.00396926
0.0233056
-0.00481311
0.0231196
-0.00709535
0.0228645
-0.00826299
0.0261466
-0.0151983
0.0268411
-0.0150004
0.02416
-0.0111292
0.0211404
-0.00834317
0.0184438
-0.00600756
0.0163251
-0.00409099
0.01504
-0.00268972
0.0146548
-0.00166449
0.01484
-0.000287397
0.0152425
0.00185192
0.0154786
0.00444395
0.0148129
0.00769542
0.0130057
0.0108771
0.0101349
0.0133211
0.00641641
0.0147968
0.00260508
0.0147812
-0.000296536
0.0129117
-0.00159071
0.00908499
-0.00128556
0.00385405
-5.91112e-06
-0.00171151
0.00194384
-0.00720492
0.00429133
-0.0119561
0.00686999
-0.0156281
0.00964762
-0.018101
0.0126763
-0.0192627
0.0159547
-0.0189009
0.0193212
-0.0168638
0.0224988
-0.0133022
0.0252521
-0.00866471
0.0274801
-0.00345463
0.0291679
0.00194914
0.0302799
0.00716041
0.0307424
0.0116898
0.0305348
0.0150522
0.0297526
0.0170236
0.0285768
0.0177374
0.0271959
0.0175652
0.0257517
0.0169094
0.0243192
0.0160623
0.0228995
0.0152107
0.0214439
0.0144931
0.0199271
0.0139414
0.0184187
0.0133748
0.0170646
0.0124014
0.0160101
0.0107034
0.0153295
0.00812056
0.0150225
0.00495183
0.0150361
0.00130684
0.0152907
-0.0021076
0.0157212
-0.00554972
0.0161753
-0.00821694
0.0166943
-0.0105509
-0.0128104
0.0249727
-0.000164467
0.0248861
-0.000479797
0.0247418
-0.000790821
0.0245224
-0.00112906
0.0242375
-0.00149757
0.0238368
-0.00196114
0.0233742
-0.00249041
0.022688
-0.00328303
0.0220011
-0.00412624
0.0207048
-0.0057991
0.0193122
-0.00687035
0.015606
-0.0114921
0.00885612
-0.00825053
0.00468646
-0.00695956
0.00244411
-0.00610083
0.00137014
-0.00493359
0.000925499
-0.00364635
0.000837116
-0.00260133
0.00107346
-0.00190083
0.00240837
-0.00162231
0.00379601
0.000464274
0.00397868
0.00426128
0.0030862
0.0085879
0.00132168
0.0126417
-0.00122538
0.0158681
-0.00378881
0.0173602
-0.00563551
0.0166279
-0.00621037
0.0134866
-0.00547319
0.0083478
-0.00379956
0.00218042
-0.00165968
-0.00385139
0.000794666
-0.00965927
0.00328596
-0.0144474
0.00564234
-0.0179844
0.00787164
-0.0203303
0.010168
-0.021559
0.0127522
-0.0214852
0.0156479
-0.0197595
0.0186326
-0.0162868
0.0214
-0.0114322
0.0237395
-0.0057941
0.0255854
0.000103215
0.026927
0.0058189
0.0277323
0.0108845
0.0279684
0.0148162
0.0276656
0.0173263
0.0269327
0.0184704
0.0259161
0.0185818
0.0247508
0.0180747
0.0235179
0.0172952
0.0222257
0.016503
0.0208442
0.0158746
0.0193872
0.0153983
0.0179584
0.0148037
0.0167046
0.0136551
0.0157464
0.0116616
0.0151295
0.00873746
0.0148458
0.00523549
0.0148563
0.00129634
0.0150819
-0.0023332
0.0154596
-0.00592737
0.0158648
-0.00862214
0.0162986
-0.0109847
-0.0129372
0.0249639
-0.000128349
0.0248528
-0.000368735
0.0246627
-0.000600685
0.0243793
-0.000845688
0.0239922
-0.00111045
0.023466
-0.00143491
0.0227911
-0.00181557
0.0218631
-0.00235501
0.0207093
-0.0029724
0.0189107
-0.00400053
0.0168289
-0.00478854
0.012657
-0.00732024
0.00924374
-0.00483724
0.00661368
-0.00432951
0.0045075
-0.00399465
0.00291336
-0.00333944
0.0018428
-0.00257579
0.00117422
-0.00193276
0.000775398
-0.00150201
0.000369441
-0.00121635
-0.000965031
0.00179875
-0.00248809
0.00578434
-0.00415103
0.0102508
-0.00600582
0.0144965
-0.00765447
0.0175168
-0.00864536
0.0183511
-0.00855504
0.0165376
-0.00736642
0.0122979
-0.00543648
0.00641786
-0.00328743
3.13778e-05
-0.000728929
-0.00640989
0.00186629
-0.0122545
0.00432196
-0.016903
0.00641174
-0.0200742
0.00805339
-0.021972
0.00945477
-0.0229604
0.011024
-0.0230544
0.0130417
-0.0217772
0.015444
-0.0186892
0.0179278
-0.013916
0.0201966
-0.00806294
0.022099
-0.00179918
0.023591
0.00432691
0.024654
0.00982149
0.0252571
0.014213
0.0253919
0.0171916
0.025105
0.0187573
0.0244925
0.0191943
0.0236624
0.0189047
0.0226854
0.0182722
0.0215744
0.017614
0.0203267
0.0171222
0.0189953
0.0167298
0.017701
0.0160979
0.0165897
0.0147664
0.0157485
0.0125028
0.0152086
0.00927735
0.0149583
0.00548583
0.014949
0.00130566
0.0151516
-0.00253581
0.0154794
-0.00625525
0.0158372
-0.00897987
0.0161993
-0.0113468
-0.0130022
0.0249575
-8.58016e-05
0.0248272
-0.000238509
0.0246033
-0.000376747
0.0242697
-0.000512071
0.023808
-0.000648771
0.0231808
-0.000807711
0.0223542
-0.00098898
0.0212416
-0.00124244
0.0198004
-0.00153116
0.0178028
-0.00200294
0.0153867
-0.00237242
0.0115679
-0.00350142
0.00894555
-0.00221493
0.00667205
-0.00205601
0.0046767
-0.0019993
0.00310761
-0.00177035
0.00199064
-0.00145882
0.00122392
-0.00116604
0.000654721
-0.00093281
-0.000153763
-0.000407866
-0.0026519
0.00429688
-0.00484222
0.00797465
-0.00670447
0.0121131
-0.00813629
0.0159283
-0.00881585
0.0181963
-0.00846335
0.0179986
-0.00709487
0.0151691
-0.00507547
0.0102785
-0.00287483
0.00421722
-0.000567182
-0.00227627
0.00177918
-0.00875626
0.00418066
-0.014656
0.00645058
-0.019173
0.00831106
-0.0219347
0.00952735
-0.0231883
0.010164
-0.0235971
0.0106712
-0.0235616
0.0115834
-0.0226894
0.0130998
-0.0202055
0.0150209
-0.0158372
0.0170147
-0.0100567
0.0188456
-0.00362998
0.0204107
0.00276179
0.0216674
0.00856478
0.022576
0.0133044
0.0230999
0.0166676
0.0232379
0.0186194
0.0230378
0.0193944
0.0225709
0.0193716
0.0218869
0.0189562
0.0210019
0.0184991
0.0199453
0.0181788
0.0188018
0.0178733
0.0177033
0.0171964
0.0167682
0.0157015
0.0160722
0.0131988
0.0156237
0.0097259
0.0154137
0.00569579
0.0154052
0.00131415
0.0155774
-0.00270796
0.0158514
-0.0065293
0.0161534
-0.00928188
0.0164464
-0.0116397
-0.0130181
0.0249537
-3.95306e-05
0.0248124
-9.71484e-05
0.0245694
-0.000133791
0.024207
-0.000149611
0.0237046
-0.000146387
0.0230197
-0.000122861
0.0221167
-8.59761e-05
0.0209015
-2.71911e-05
0.0193428
2.74728e-05
0.0172201
0.000119774
0.0147043
0.000143402
0.0109135
0.000289417
0.00857325
0.000125286
0.00658386
-6.66105e-05
0.00476702
-0.000182464
0.00325733
-0.000260654
0.00211759
-0.000319085
0.0012987
-0.000347146
0.000691387
-0.000325497
4.53408e-05
0.00023818
-0.00224944
0.00659166
-0.00429367
0.0100189
-0.00575205
0.0135715
-0.00640127
0.0165775
-0.00605269
0.0178478
-0.00473948
0.0166854
-0.0027129
0.0131426
-0.000488364
0.008054
0.00160465
0.0021242
0.00359217
-0.00426379
0.00558808
-0.0107522
0.00755246
-0.0166203
0.00937885
-0.0209993
0.0108492
-0.023405
0.0116955
-0.0240346
0.0117872
-0.0236887
0.0114131
-0.0231875
0.0112147
-0.022491
0.0116801
-0.0206709
0.0128245
-0.0169816
0.0143551
-0.0115874
0.0159796
-0.00525446
0.0175326
0.0012088
0.0189212
0.00717618
0.0200785
0.0121471
0.0209402
0.0158059
0.021467
0.0180925
0.0216639
0.0191975
0.0215623
0.0194732
0.0211889
0.0193296
0.0205666
0.0191214
0.0197522
0.0189932
0.0188544
0.0187711
0.018001
0.0180498
0.0172888
0.0164137
0.0167633
0.0137244
0.0164296
0.0100596
0.0162763
0.00584911
0.0162746
0.00131584
0.0164146
-0.00284793
0.0166282
-0.00674288
0.0168598
-0.00951352
0.0170744
-0.0118543
-0.0129826
0.0249531
7.40678e-06
0.0248099
4.59701e-05
0.0245645
0.000111639
0.0241989
0.00021603
0.0236934
0.000359104
0.0230045
0.000565984
0.0220989
0.000819669
0.0208789
0.00119284
0.0193198
0.00158652
0.0171897
0.00224986
0.0146721
0.00266103
0.010873
0.00408852
0.00852099
0.0024773
0.00652312
0.00193125
0.00470145
0.00163921
0.0031927
0.0012481
0.0020625
0.000811116
0.00127679
0.000438564
0.000768443
0.000182847
0.000525784
0.00048084
-0.000518533
0.00763598
-0.00189233
0.0113927
-0.00251601
0.0141952
-0.00225037
0.0163118
-0.00103621
0.0166336
0.00100819
0.014641
0.00329758
0.0108532
0.00544278
0.0059088
0.0073261
0.000240882
0.00898964
-0.00592733
0.0105482
-0.0123107
0.0119837
-0.0180559
0.0131594
-0.022175
0.0139528
-0.0241984
0.0142474
-0.0243292
0.0138774
-0.0233188
0.0128793
-0.0221894
0.0117581
-0.0213698
0.0111789
-0.0200917
0.0114318
-0.0172344
0.0123575
-0.012513
0.0136556
-0.0065526
0.0151061
-0.000241707
0.0165576
0.0057247
0.0179017
0.010803
0.0190434
0.0146643
0.0199107
0.0172252
0.0204699
0.0186383
0.020715
0.0192281
0.0206537
0.0193909
0.0203192
0.0194559
0.0197905
0.0195218
0.0191863
0.0193753
0.0186223
0.0186137
0.0181684
0.0168677
0.0178451
0.0140476
0.0176498
0.0102549
0.0175706
0.00592834
0.0175841
0.00130233
0.0176904
-0.00295421
0.0178354
-0.00688786
0.0179793
-0.00965748
0.0180972
-0.0119722
-0.0128811
0.0249555
5.19386e-05
0.02482
0.000181437
0.0245888
0.000342816
0.0242459
0.000558943
0.0237748
0.000830215
0.0231363
0.00120449
0.0223006
0.00165541
0.0211759
0.00231747
0.0197273
0.00303514
0.0177188
0.00425834
0.0152878
0.00509208
0.0114676
0.00790874
0.00881454
0.00513031
0.00649328
0.00425252
0.0044693
0.00366318
0.00290249
0.00281491
0.00180882
0.00190479
0.00110605
0.00114133
0.000718575
0.000570327
0.000860519
0.000338896
0.00122727
0.00726923
0.00130264
0.0113173
0.00188702
0.0136108
0.0032643
0.0149345
0.00530411
0.0145938
0.00764336
0.0123017
0.00995528
0.00854125
0.0119195
0.00394453
0.0135404
-0.00138002
0.0149055
-0.00729241
0.0161044
-0.0135096
0.0170412
-0.0189927
0.0175321
-0.022666
0.0175034
-0.0241696
0.0170369
-0.0238628
0.0161408
-0.0224227
0.0147114
-0.0207599
0.0129556
-0.019614
0.011497
-0.0186331
0.0108658
-0.0166032
0.0111063
-0.0127535
0.0120008
-0.00744711
0.0132548
-0.00149573
0.014694
0.0042855
0.0161547
0.00934239
0.0175097
0.0133092
0.0186569
0.0160779
0.0195277
0.0177675
0.0200854
0.0186704
0.0203263
0.01915
0.0202944
0.0194879
0.0200836
0.0197327
0.0198113
0.0196475
0.0195691
0.0188559
0.0194027
0.0170341
0.01931
0.0141403
0.0192739
0.0102911
0.0192856
0.00591663
0.0193232
0.00126473
0.0193945
-0.00302558
0.0194631
-0.00695641
0.0195036
-0.00969795
0.019503
-0.0119716
-0.0126918
0.0249606
9.13275e-05
0.0248413
0.000300721
0.0246393
0.000544829
0.0243417
0.000856528
0.0239386
0.00123335
0.023396
0.00174711
0.0227029
0.00234845
0.0217588
0.0032616
0.0205837
0.00421024
0.0187727
0.00606938
0.0166587
0.00720601
0.0124089
0.0121586
0.00899913
0.00854004
0.00633619
0.00691546
0.00418341
0.00581596
0.00257321
0.00442512
0.00150621
0.00297178
0.000864631
0.00178291
0.000547543
0.000887415
0.000923764
-3.73251e-05
0.00300992
0.00518307
0.00478107
0.00954617
0.00660264
0.0117892
0.0088677
0.0126695
0.011459
0.0120025
0.0140309
0.00972986
0.0162636
0.00630857
0.0179797
0.00222842
0.0194014
-0.00280179
0.0206319
-0.00852292
0.0216083
-0.0144859
0.0220901
-0.0194745
0.0219055
-0.0224814
0.0210714
-0.0233356
0.01981
-0.0226013
0.0183448
-0.0209575
0.0166113
-0.0190265
0.0145268
-0.0175295
0.0124689
-0.0165752
0.0110609
-0.0151952
0.0106471
-0.0123397
0.0110713
-0.00787124
0.0120684
-0.00249287
0.0134133
0.00294058
0.014913
0.00784273
0.0164069
0.0118153
0.0177631
0.0147217
0.018883
0.0166476
0.0197086
0.0178449
0.0202325
0.018626
0.020508
0.0192124
0.0206338
0.0196069
0.0207148
0.0195665
0.0208169
0.0187538
0.0209562
0.0168948
0.0211122
0.0139842
0.0212532
0.0101501
0.0213677
0.0058021
0.021437
0.00119547
0.0214741
-0.00306268
0.0214609
-0.00694319
0.021387
-0.00962407
0.0212493
-0.011834
-0.0123922
0.0249684
0.000122933
0.0248709
0.000398243
0.0247111
0.000704573
0.0244726
0.00109504
0.0241678
0.00153821
0.0237436
0.00217127
0.0232613
0.00283078
0.0225429
0.00397996
0.0218385
0.00491465
0.0204752
0.00743262
0.0190731
0.00860813
0.015296
0.0159358
0.00844566
0.0153904
0.00421517
0.0111459
0.00197023
0.0080609
0.000922626
0.00547272
0.000453642
0.00344077
0.000208344
0.00202821
-1.71535e-05
0.00111291
0.000190885
-0.000245364
0.00291144
0.00246252
0.00651725
0.00594036
0.00996694
0.00833952
0.0132584
0.00937804
0.0163292
0.00893171
0.0189845
0.00707449
0.0211353
0.00415778
0.0229599
0.000403887
0.024559
-0.00440092
0.0259742
-0.00993814
0.0268287
-0.0153404
0.0267987
-0.0194444
0.0258596
-0.0215423
0.0242422
-0.0217182
0.0222826
-0.0206417
0.0203092
-0.0189841
0.0183719
-0.0170892
0.0162247
-0.0153823
0.0138988
-0.0142492
0.011961
-0.0132575
0.0109209
-0.0112996
0.0108591
-0.00780948
0.0115328
-0.00316657
0.0127255
0.00174792
0.0141925
0.00637569
0.0157502
0.0102576
0.017241
0.013231
0.0185445
0.015344
0.0195913
0.0167982
0.0203751
0.0178422
0.0209535
0.018634
0.0214199
0.0191405
0.0218595
0.0191269
0.0223104
0.018303
0.0227607
0.0164445
0.0231705
0.0135745
0.0234972
0.00982337
0.0237212
0.00557812
0.023829
0.00108762
0.0238366
-0.00307023
0.0237411
-0.00684767
0.0235487
-0.00943172
0.0232625
-0.0115478
-0.011964
0.0249773
0.000145606
0.0249063
0.000469228
0.024794
0.000816873
0.024628
0.00126105
0.024427
0.00173922
0.024157
0.00244123
0.0238699
0.00311794
0.0234975
0.00435233
0.0231239
0.00528824
0.0228764
0.00768016
0.0225736
0.00891091
0.0257867
0.0127227
0.0259203
0.0152568
0.0223595
0.0147067
0.018272
0.0121484
0.0143669
0.00937787
0.0109489
0.00685874
0.0082347
0.0047424
0.00601405
0.00333356
0.0039104
0.00185828
0.00443685
0.00193607
0.00723278
0.00314443
0.0110645
0.00450784
0.015026
0.00541654
0.0186735
0.00528419
0.0218743
0.0038737
0.0247631
0.00126899
0.0273463
-0.00217931
0.0296215
-0.00667612
0.0312002
-0.0115169
0.0316591
-0.0157993
0.0308583
-0.0186437
0.0290529
-0.0197369
0.0267143
-0.0193795
0.0242499
-0.0181773
0.0219421
-0.0166763
0.0198959
-0.0150431
0.0178656
-0.013352
0.0156015
-0.0119851
0.0133789
-0.0110349
0.011821
-0.00974174
0.0112669
-0.00725536
0.011633
-0.00353268
0.0126066
0.000774267
0.0139734
0.00500895
0.0155191
0.00871189
0.0170688
0.0116813
0.0184905
0.0139222
0.0197117
0.015577
0.0207281
0.0168258
0.0215952
0.0177669
0.0223927
0.018343
0.0231805
0.0183391
0.0239689
0.0175146
0.0247212
0.0156921
0.0253784
0.0129173
0.0258892
0.00931252
0.0262235
0.00524382
0.0263756
0.000935531
0.0263618
-0.00305638
0.0261891
-0.00667495
0.0258807
-0.0091234
0.0254427
-0.0111097
-0.0113963
0.0249859
0.000159681
0.0249446
0.000510582
0.0248788
0.000882627
0.024793
0.00134692
0.0246882
0.001844
0.0245888
0.0025406
0.0244724
0.00323438
0.0244799
0.00434476
0.0244482
0.00531993
0.0251178
0.00701057
0.025652
0.00837677
0.0283316
0.0100431
0.0310162
0.0125722
0.0321361
0.0135868
0.0315811
0.0127034
0.0299576
0.0110014
0.0277154
0.00910095
0.0252267
0.00723104
0.0228998
0.00566051
0.0204508
0.00430725
0.0187955
0.00359142
0.018527
0.00341292
0.0196755
0.00335931
0.0219548
0.00313727
0.0248687
0.00237028
0.0279972
0.00074518
0.0309881
-0.00172193
0.0336923
-0.00488348
0.0355955
-0.00857935
0.0363066
-0.0122279
0.0356191
-0.0151119
0.0337166
-0.0167412
0.0310877
-0.0171079
0.028275
-0.0165669
0.0256225
-0.0155248
0.0232457
-0.0142995
0.0211974
-0.0129948