/*--------------------------------*- C++ -*----------------------------------*\
  =========                 |
  \\      /  F ield         | OpenFOAM: The Open Source CFD Toolbox
   \\    /   O peration     | Website:  https://openfoam.org
    \\  /    A nd           | Version:  10
     \\/     M anipulation  |
\*---------------------------------------------------------------------------*/
FoamFile
{
    format      ascii;
    class       volScalarField;
    location    "27";
    object      p;
}
// * * * * * * * * * * * * * * * * * * * * * * * * * * * * * * * * * * * * * //

dimensions      [1 -1 -2 0 0 0 0];

internalField   nonuniform List<scalar> 
100
(
1.03256e+07
1.03251e+07
1.03245e+07
1.03237e+07
1.03227e+07
1.03217e+07
1.03206e+07
1.03194e+07
1.03181e+07
1.03167e+07
1.03152e+07
1.03137e+07
1.03121e+07
1.03104e+07
1.03086e+07
1.03068e+07
1.03049e+07
1.0303e+07
1.0301e+07
1.02989e+07
1.02968e+07
1.02946e+07
1.02923e+07
1.029e+07
1.02876e+07
1.02852e+07
1.02827e+07
1.02801e+07
1.02775e+07
1.02749e+07
1.02721e+07
1.02694e+07
1.02665e+07
1.02637e+07
1.02607e+07
1.02577e+07
1.02547e+07
1.02516e+07
1.02484e+07
1.02452e+07
1.02419e+07
1.02385e+07
1.02351e+07
1.02317e+07
1.02281e+07
1.02245e+07
1.02208e+07
1.02171e+07
1.02132e+07
1.02092e+07
1.0205e+07
1.02006e+07
1.01957e+07
1.01889e+07
1.01837e+07
1.01797e+07
1.01756e+07
1.01716e+07
1.01676e+07
1.01635e+07
1.01595e+07
1.01554e+07
1.01514e+07
1.01474e+07
1.01433e+07
1.01393e+07
1.01353e+07
1.01312e+07
1.01272e+07
1.01231e+07
1.01191e+07
1.01151e+07
1.0111e+07
1.0107e+07
1.0103e+07
1.00989e+07
1.00949e+07
1.00908e+07
1.00868e+07
1.00828e+07
1.00787e+07
1.00747e+07
1.00707e+07
1.00666e+07
1.00626e+07
1.00585e+07
1.00545e+07
1.00505e+07
1.00464e+07
1.00424e+07
1.00384e+07
1.00343e+07
1.00303e+07
1.00262e+07
1.00222e+07
1.00182e+07
1.00141e+07
1.00101e+07
1.00061e+07
1.0002e+07
)
;

boundaryField
{
    inlet
    {
        type            zeroGradient;
    }
    outlet
    {
        type            fixedValue;
        value           uniform 1e+07;
    }
    yzfaces
    {
        type            empty;
    }
}


// ************************************************************************* //
