/*--------------------------------*- C++ -*----------------------------------*\
  =========                 |
  \\      /  F ield         | OpenFOAM: The Open Source CFD Toolbox
   \\    /   O peration     | Website:  https://openfoam.org
    \\  /    A nd           | Version:  10
     \\/     M anipulation  |
\*---------------------------------------------------------------------------*/
FoamFile
{
    format      ascii;
    class       volScalarField;
    location    "0.088";
    object      p;
}
// * * * * * * * * * * * * * * * * * * * * * * * * * * * * * * * * * * * * * //

dimensions      [0 2 -2 0 0 0 0];

internalField   nonuniform List<scalar> 
4000
(
14.1791
14.1785
14.1771
14.1748
14.1719
14.1682
14.1638
14.1587
14.1527
14.1461
14.1386
14.1304
14.1214
14.1116
14.101
14.0896
14.0773
14.0643
14.0504
14.0356
14.0198
14.0032
13.9856
13.967
13.9474
13.9267
13.9049
13.882
13.8579
13.8326
13.806
13.7781
13.7488
13.7181
13.6858
13.652
13.6165
13.5793
13.5403
13.4995
13.4566
13.4117
13.3646
13.3153
13.2636
13.2094
13.1526
13.0931
13.0308
12.9654
12.897
12.8254
12.7503
12.6717
12.5895
12.5034
12.4133
12.3191
12.2205
12.1175
12.0098
11.8974
11.78
11.6575
11.5297
11.3966
11.258
11.1138
10.9639
10.8083
10.6468
10.4796
10.3065
10.1277
9.94324
9.75328
9.55795
9.35751
9.1522
8.94237
8.72833
8.51055
8.28943
8.06549
7.83921
7.61119
7.38194
7.1521
6.92219
6.69286
6.46462
6.23811
6.01379
5.79226
5.57391
5.35929
5.14871
4.94263
4.74129
4.54507
4.35411
4.16872
3.98896
3.81506
3.64698
3.48491
3.32874
3.1786
3.03431
2.89595
2.7633
2.63642
2.51502
2.39914
2.28846
2.18302
2.08245
1.9868
1.89568
1.80915
1.72679
1.64868
1.57438
1.50401
1.43711
1.37382
1.31365
1.25681
1.20277
1.15177
1.10326
1.05755
1.01404
0.973089
0.934077
0.897402
0.862418
0.829579
0.798197
0.768789
0.740621
0.714277
0.688969
0.665354
0.642586
0.621399
0.600881
0.581849
0.56332
0.546197
0.529418
0.513979
0.498735
0.484774
0.470862
0.458188
0.445421
0.433857
0.422058
0.411434
0.400435
0.39059
0.380227
0.371005
0.361121
0.352371
0.342809
0.334386
0.324999
0.316768
0.307414
0.29925
0.289805
0.281603
0.271954
0.263624
0.253682
0.245157
0.234848
0.226074
0.215344
0.206283
0.195086
0.185704
0.174015
0.164306
0.152137
0.142125
0.129512
0.119221
0.106174
0.0955743
0.0820385
0.0710699
0.0570264
0.0458524
0.0314838
0.0204263
0.00657922
0.00962349
14.182
14.1814
14.18
14.1778
14.1748
14.1712
14.1668
14.1616
14.1558
14.1491
14.1417
14.1335
14.1245
14.1147
14.1042
14.0928
14.0807
14.0677
14.0538
14.0391
14.0235
14.0069
13.9894
13.9709
13.9514
13.9309
13.9093
13.8865
13.8626
13.8375
13.8111
13.7834
13.7543
13.7238
13.6918
13.6582
13.623
13.5861
13.5474
13.5069
13.4643
13.4197
13.373
13.324
13.2727
13.2189
13.1625
13.1034
13.0415
12.9766
12.9086
12.8374
12.7628
12.6846
12.6028
12.5172
12.4275
12.3337
12.2356
12.1329
12.0256
11.9135
11.7964
11.6742
11.5466
11.4137
11.2751
11.1309
10.9809
10.825
10.6632
10.4954
10.3217
10.1422
9.95677
9.7657
9.56911
9.36725
9.16036
8.94879
8.7329
8.51313
8.28992
8.06381
7.83532
7.60505
7.37355
7.14149
6.90943
6.67802
6.44781
6.21945
5.99342
5.77031
5.55057
5.33469
5.12305
4.91606
4.71399
4.51721
4.32586
4.14022
3.96038
3.78651
3.61862
3.45684
3.30107
3.15139
3.00766
2.8699
2.73792
2.61172
2.49106
2.37592
2.26603
2.16136
2.0616
1.96675
1.87645
1.79072
1.70917
1.63185
1.55835
1.48873
1.42259
1.36
1.30055
1.24434
1.19096
1.14054
1.09264
1.04745
1.0045
0.96402
0.925516
0.889267
0.854754
0.822302
0.79136
0.762304
0.734548
0.708522
0.683601
0.66027
0.637861
0.61692
0.596731
0.577905
0.559674
0.542717
0.526209
0.510901
0.495908
0.482052
0.468383
0.4558
0.44328
0.4318
0.42026
0.40972
0.398994
0.38923
0.379152
0.370002
0.360406
0.351708
0.34243
0.334029
0.324912
0.316665
0.307564
0.299342
0.290133
0.281832
0.272411
0.263948
0.254233
0.245548
0.235479
0.226525
0.216054
0.206797
0.195883
0.186289
0.174901
0.164952
0.153092
0.142803
0.130499
0.11989
0.107145
0.0961818
0.0829299
0.0715398
0.057761
0.0461113
0.0319836
0.0205289
0.00649894
0.00956506
14.1879
14.1873
14.1859
14.1837
14.1807
14.1771
14.1727
14.1676
14.1618
14.1552
14.1478
14.1396
14.1307
14.1211
14.1106
14.0994
14.0873
14.0744
14.0607
14.0462
14.0307
14.0144
13.9971
13.9789
13.9596
13.9393
13.918
13.8956
13.872
13.8472
13.8212
13.7939
13.7653
13.7352
13.7037
13.6706
13.636
13.5996
13.5615
13.5215
13.4796
13.4357
13.3897
13.3414
13.2908
13.2378
13.1822
13.1239
13.0628
12.9987
12.9316
12.8613
12.7876
12.7104
12.6295
12.5447
12.456
12.363
12.2657
12.1639
12.0574
11.946
11.8295
11.7078
11.5807
11.448
11.3097
11.1654
11.0152
10.8588
10.6963
10.5277
10.3527
10.1716
9.98434
9.79107
9.59193
9.38719
9.17709
8.962
8.7423
8.51847
8.29099
8.06044
7.8274
7.59253
7.35645
7.11985
6.88337
6.64771
6.41348
6.18135
5.95185
5.7256
5.50305
5.28471
5.07096
4.86222
4.65874
4.46088
4.26877
4.08267
3.90266
3.72889
3.56135
3.40014
3.24515
3.09644
2.95384
2.81735
2.68676
2.56203
2.44291
2.32937
2.22111
2.1181
2.02001
1.92681
1.83817
1.75406
1.67413
1.59838
1.52643
1.45832
1.39364
1.33247
1.27439
1.21951
1.16739
1.11819
1.07146
1.02738
0.985495
0.946023
0.908493
0.87316
0.839531
0.807907
0.777766
0.749458
0.722428
0.697078
0.672816
0.650099
0.628294
0.607914
0.588282
0.569969
0.55225
0.535759
0.519719
0.504829
0.490259
0.476778
0.463493
0.451247
0.439082
0.427915
0.416714
0.406474
0.396086
0.386622
0.376888
0.368042
0.358796
0.350402
0.341473
0.333365
0.324582
0.316601
0.307807
0.299812
0.290869
0.282747
0.273547
0.265213
0.255677
0.247077
0.237151
0.228249
0.217896
0.208667
0.197854
0.188269
0.176967
0.167005
0.155207
0.144876
0.132602
0.121909
0.109149
0.0980421
0.0847124
0.073105
0.0591775
0.0472404
0.0328969
0.0211357
0.00675125
0.00978888
14.1967
14.1961
14.1947
14.1925
14.1896
14.186
14.1816
14.1766
14.1708
14.1642
14.1569
14.1488
14.14
14.1305
14.1202
14.1091
14.0972
14.0845
14.071
14.0567
14.0415
14.0255
14.0085
13.9906
13.9717
13.9519
13.931
13.909
13.8859
13.8617
13.8363
13.8096
13.7816
13.7522
13.7214
13.6891
13.6553
13.6198
13.5825
13.5435
13.5026
13.4596
13.4146
13.3674
13.318
13.2661
13.2117
13.1546
13.0948
13.032
12.9662
12.8972
12.8249
12.749
12.6695
12.5861
12.4988
12.4072
12.3112
12.2107
12.1054
11.9951
11.8797
11.7588
11.6325
11.5003
11.3623
11.2181
11.0676
10.9107
10.7473
10.5772
10.4005
10.2171
10.027
9.83044
9.62744
9.41829
9.20325
8.98273
8.75712
8.52697
8.29283
8.05537
7.81523
7.57318
7.32994
7.08628
6.84294
6.60071
6.36025
6.12231
5.88747
5.6564
5.42957
5.20754
4.99065
4.77934
4.57385
4.37449
4.18139
3.99477
3.81465
3.64118
3.47429
3.31406
3.16034
3.01317
2.87234
2.73783
2.60938
2.48695
2.37024
2.25919
2.15347
2.05303
1.95752
1.86689
1.78079
1.69918
1.62169
1.54833
1.47871
1.41285
1.35037
1.29131
1.23528
1.18237
1.13216
1.08478
1.0398
0.997394
0.957115
0.919174
0.883111
0.849177
0.816887
0.786537
0.757611
0.730454
0.704517
0.680196
0.656908
0.635105
0.614165
0.594599
0.575743
0.558166
0.541156
0.525344
0.509962
0.495707
0.481752
0.468862
0.456149
0.444448
0.43281
0.422142
0.411427
0.401649
0.391716
0.382689
0.373393
0.36497
0.356157
0.34818
0.339679
0.331977
0.323611
0.316015
0.30761
0.299963
0.291366
0.28354
0.27463
0.266532
0.257225
0.248804
0.23905
0.230278
0.22005
0.210914
0.200191
0.190672
0.179429
0.169509
0.157736
0.147413
0.135116
0.12438
0.11153
0.100309
0.0868015
0.0749913
0.0607897
0.0485668
0.0338675
0.021782
0.00699
0.0100609
14.2084
14.2078
14.2064
14.2042
14.2013
14.1977
14.1935
14.1884
14.1827
14.1762
14.169
14.161
14.1524
14.1429
14.1328
14.1219
14.1102
14.0978
14.0846
14.0706
14.0558
14.0401
14.0235
14.0061
13.9877
13.9684
13.9481
13.9267
13.9043
13.8808
13.8561
13.8302
13.8031
13.7747
13.7448
13.7135
13.6807
13.6463
13.6103
13.5725
13.5328
13.4912
13.4476
13.4018
13.3538
13.3035
13.2507
13.1953
13.1371
13.0761
13.0121
12.9449
12.8744
12.8004
12.7228
12.6414
12.5559
12.4662
12.3721
12.2734
12.1698
12.0611
11.9472
11.8277
11.7025
11.5713
11.4338
11.2899
11.1393
10.9819
10.8173
10.6457
10.4667
10.2803
10.0866
9.88552
9.67729
9.46211
9.24027
9.01218
8.77832
8.5393
8.29578
8.04855
7.79838
7.54619
7.29284
7.03928
6.78634
6.53495
6.28588
6.03995
5.79783
5.5602
5.32759
5.10058
4.87951
4.66483
4.45675
4.25556
4.06135
3.87427
3.69431
3.52155
3.35585
3.19724
3.04552
2.90066
2.76242
2.63074
2.50533
2.38609
2.27272
2.1651
2.06289
1.96599
1.87404
1.78695
1.70434
1.62616
1.55204
1.48194
1.41549
1.3527
1.29317
1.23697
1.18368
1.13341
1.08573
1.04078
0.998128
0.957938
0.919776
0.883847
0.849701
0.81759
0.787041
0.758351
0.731016
0.705379
0.680901
0.657971
0.63601
0.61546
0.595705
0.577245
0.559424
0.542811
0.526707
0.511745
0.497175
0.483699
0.470506
0.458362
0.446392
0.435427
0.424526
0.414587
0.404603
0.395542
0.386324
0.377992
0.369389
0.361632
0.35348
0.346131
0.338252
0.331132
0.323338
0.316264
0.30837
0.301174
0.293013
0.285557
0.277001
0.269194
0.260164
0.251963
0.242423
0.233821
0.223758
0.21476
0.204165
0.194761
0.18361
0.173774
0.162042
0.151749
0.139412
0.128617
0.115611
0.104208
0.0903982
0.0782592
0.0635984
0.0509063
0.0356178
0.0229781
0.00751902
0.0104832
14.223
14.2224
14.221
14.2188
14.216
14.2124
14.2081
14.2032
14.1975
14.1911
14.184
14.1761
14.1676
14.1583
14.1484
14.1377
14.1263
14.1142
14.1013
14.0877
14.0733
14.0581
14.0421
14.0252
14.0074
13.9888
13.9692
13.9486
13.927
13.9044
13.8807
13.8558
13.8297
13.8024
13.7738
13.7438
13.7123
13.6793
13.6447
13.6084
13.5704
13.5304
13.4885
13.4446
13.3985
13.3501
13.2993
13.2459
13.1899
13.1311
13.0694
13.0045
12.9364
12.8648
12.7896
12.7106
12.6276
12.5404
12.4487
12.3524
12.2512
12.1447
12.0329
11.9154
11.7918
11.662
11.5256
11.3824
11.232
11.0741
10.9086
10.7351
10.5535
10.3637
10.1654
9.95883
9.74395
9.52099
9.29025
9.0522
8.80736
8.55649
8.30038
8.03998
7.7763
7.51044
7.24349
6.9766
6.71083
6.44728
6.18687
5.93054
5.67903
5.4331
5.19328
4.96014
4.73403
4.51535
4.30427
4.10106
3.90574
3.71842
3.53901
3.36752
3.20373
3.04759
2.89883
2.75733
2.62278
2.49504
2.37379
2.25887
2.14994
2.04684
1.94921
1.85691
1.76955
1.68702
1.60891
1.53515
1.46534
1.39943
1.33702
1.27812
1.22234
1.16972
1.11987
1.07288
1.02835
0.986415
0.946654
0.90923
0.873716
0.84031
0.808567
0.778729
0.750334
0.723676
0.698267
0.674455
0.651718
0.630453
0.610096
0.591087
0.572812
0.555763
0.53928
0.523915
0.50897
0.49507
0.481476
0.46889
0.456527
0.445159
0.43394
0.423709
0.413549
0.404363
0.395158
0.386899
0.378515
0.371033
0.363303
0.356414
0.349141
0.34264
0.335605
0.329273
0.322251
0.315873
0.308648
0.302031
0.294419
0.287416
0.279288
0.27182
0.263117
0.255173
0.245894
0.237512
0.227685
0.218906
0.208547
0.199377
0.188456
0.178849
0.167302
0.157175
0.144907
0.134134
0.121001
0.109403
0.0952118
0.0826259
0.0673227
0.053961
0.0378347
0.0244094
0.0080959
0.0108606
14.2404
14.2399
14.2385
14.2363
14.2334
14.2299
14.2257
14.2207
14.2151
14.2088
14.2017
14.194
14.1856
14.1766
14.1668
14.1564
14.1453
14.1335
14.1211
14.1079
14.0939
14.0793
14.0638
14.0476
14.0305
14.0127
13.9939
13.9743
13.9537
13.9321
13.9095
13.8858
13.861
13.835
13.8078
13.7793
13.7494
13.7181
13.6852
13.6507
13.6146
13.5767
13.5369
13.4951
13.4512
13.4052
13.3568
13.306
13.2526
13.1965
13.1375
13.0754
13.0102
12.9416
12.8694
12.7935
12.7136
12.6296
12.541
12.4478
12.3496
12.2462
12.1372
12.0224
11.9013
11.7737
11.6391
11.4972
11.3475
11.1898
11.0235
10.8484
10.6641
10.4704
10.267
10.0538
9.83087
9.59826
9.35628
9.10543
8.84637
8.57997
8.30726
8.02949
7.74795
7.46409
7.1793
6.89502
6.6126
6.33335
6.0584
5.78888
5.52564
5.2695
5.02102
4.78075
4.54897
4.32601
4.11195
3.90695
3.71095
3.52396
3.34582
3.17643
3.01552
2.86293
2.71828
2.58139
2.45184
2.32942
2.21371
2.1045
2.00137
1.90412
1.81234
1.72587
1.64427
1.56742
1.49489
1.42658
1.36206
1.30129
1.24384
1.18971
1.1385
1.09025
1.04456
1.00152
0.960744
0.922365
0.885997
0.851809
0.819401
0.788977
0.760106
0.733024
0.707272
0.683125
0.660097
0.638516
0.617874
0.598565
0.58005
0.562784
0.546182
0.530748
0.515835
0.501994
0.48852
0.476022
0.463751
0.452393
0.441161
0.430826
0.420557
0.411209
0.401893
0.393532
0.385166
0.377772
0.370306
0.363786
0.35708
0.351246
0.345069
0.339652
0.333707
0.3284
0.322374
0.316876
0.310478
0.304534
0.297533
0.290977
0.283244
0.276024
0.267548
0.25973
0.250596
0.242319
0.232657
0.224066
0.213969
0.205125
0.194585
0.185422
0.174305
0.164626
0.152689
0.142192
0.129106
0.117436
0.102873
0.0897804
0.0736574
0.0593851
0.0420644
0.027469
0.00963551
0.0120093
14.2607
14.2602
14.2588
14.2566
14.2537
14.2502
14.246
14.241
14.2354
14.2292
14.2222
14.2146
14.2064
14.1975
14.188
14.1778
14.1671
14.1557
14.1436
14.1309
14.1176
14.1035
14.0888
14.0733
14.0571
14.0401
14.0224
14.0038
13.9843
13.964
13.9427
13.9204
13.8971
13.8727
13.8471
13.8204
13.7923
13.7629
13.7321
13.6998
13.6659
13.6303
13.5929
13.5537
13.5125
13.4692
13.4236
13.3757
13.3254
13.2724
13.2167
13.158
13.0962
13.0312
12.9626
12.8904
12.8143
12.7341
12.6495
12.5602
12.4659
12.3663
12.2611
12.1499
12.0323
11.9078
11.776
11.6364
11.4884
11.3316
11.1654
10.9893
10.8026
10.605
10.3961
10.1755
9.94299
9.69872
9.44284
9.1759
8.89864
8.61217
8.3178
8.01719
7.71212
7.40456
7.09642
6.78962
6.48586
6.18676
5.89369
5.60792
5.33042
5.06207
4.80346
4.5551
4.3172
4.08996
3.87333
3.66729
3.47161
3.28617
3.11061
2.94475
2.78818
2.64063
2.50164
2.37092
2.24797
2.13248
2.02393
1.92204
1.82631
1.73647
1.65205
1.57284
1.49836
1.42846
1.36269
1.30092
1.24273
1.18804
1.13644
1.08791
1.04208
0.998953
0.95817
0.919796
0.883456
0.849261
0.81684
0.786358
0.757444
0.730316
0.704587
0.680514
0.657671
0.63634
0.616046
0.597094
0.578968
0.562014
0.545688
0.530413
0.515629
0.501846
0.488469
0.476073
0.463998
0.452868
0.441946
0.431906
0.421953
0.412835
0.403716
0.395442
0.387138
0.379746
0.372334
0.365911
0.359466
0.354042
0.34853
0.343987
0.339203
0.335241
0.330811
0.326997
0.322447
0.318296
0.313148
0.308232
0.302112
0.296161
0.288882
0.281848
0.273453
0.265516
0.256244
0.24774
0.237926
0.229224
0.21917
0.210514
0.200329
0.191697
0.181202
0.172253
0.160969
0.151091
0.138343
0.126835
0.112004
0.0984144
0.0813089
0.0658907
0.0469255
0.0308286
0.0105541
0.0140759
14.2839
14.2833
14.2819
14.2797
14.2768
14.2732
14.269
14.264
14.2584
14.2522
14.2453
14.2378
14.2296
14.2209
14.2116
14.2017
14.1913
14.1802
14.1686
14.1564
14.1436
14.1302
14.1162
14.1016
14.0862
14.0702
14.0535
14.0361
14.0179
13.9989
13.9791
13.9583
13.9367
13.914
13.8904
13.8656
13.8396
13.8124
13.7839
13.7541
13.7227
13.6898
13.6552
13.6189
13.5807
13.5406
13.4983
13.4538
13.407
13.3577
13.3058
13.251
13.1933
13.1324
13.0682
13.0005
12.9289
12.8533
12.7735
12.689
12.5996
12.505
12.4047
12.2984
12.1855
12.0655
11.9379
11.8021
11.6573
11.5029
11.3381
11.1621
10.974
10.7732
10.5588
10.3303
10.0871
9.82899
9.55609
9.26887
8.96825
8.65567
8.33298
8.00246
7.66659
7.32807
6.98953
6.6536
6.32257
5.99854
5.68318
5.3779
5.08371
4.80148
4.53169
4.27476
4.03077
3.79976
3.58148
3.37571
3.18199
2.99995
2.82904
2.66884
2.51878
2.37845
2.24725
2.12479
2.01045
1.90385
1.80439
1.71169
1.62518
1.54453
1.46919
1.39889
1.3331
1.27163
1.214
1.16005
1.10934
1.06178
1.01697
0.97486
0.935105
0.897741
0.862432
0.829272
0.797923
0.768505
0.740657
0.71452
0.689721
0.666451
0.644336
0.623636
0.603965
0.58564
0.568239
0.552112
0.53677
0.522569
0.508933
0.496231
0.483838
0.472207
0.46072
0.449959
0.439305
0.429441
0.419686
0.410773
0.401927
0.39392
0.3859
0.378712
0.371466
0.365103
0.358697
0.353269
0.347836
0.343466
0.339093
0.33579
0.332391
0.329941
0.327175
0.325102
0.322382
0.320011
0.31661
0.313221
0.308467
0.303532
0.297046
0.290416
0.282229
0.27418
0.264705
0.255838
0.245722
0.236759
0.22664
0.218138
0.208356
0.20042
0.190781
0.182895
0.172588
0.163658
0.151453
0.140208
0.125013
0.110673
0.092111
0.0748967
0.053375
0.0347622
0.010622
0.0160137
14.31
14.3094
14.3079
14.3057
14.3027
14.299
14.2947
14.2897
14.284
14.2777
14.2708
14.2634
14.2553
14.2468
14.2377
14.2281
14.218
14.2074
14.1963
14.1847
14.1726
14.1599
14.1467
14.133
14.1188
14.1039
14.0884
14.0723
14.0556
14.0381
14.0199
14.0009
13.9811
13.9605
13.9389
13.9163
13.8927
13.868
13.8421
13.8149
13.7864
13.7565
13.725
13.6919
13.6571
13.6205
13.5819
13.5412
13.4983
13.4531
13.4055
13.3551
13.302
13.2459
13.1866
13.1239
13.0577
12.9875
12.9133
12.8346
12.7512
12.6627
12.5687
12.4686
12.362
12.2483
12.1268
11.9967
11.8572
11.7074
11.5462
11.3724
11.1849
10.9825
10.7638
10.5278
10.2733
9.9997
9.70653
9.39403
9.06308
8.71557
8.35427
7.98283
7.60525
7.22553
6.84732
6.47403
6.10867
5.75391
5.41182
5.08397
4.77133
4.47455
4.19386
3.92933
3.68075
3.44784
3.23009
3.027
2.83784
2.66196
2.49854
2.3469
2.20624
2.07593
1.95522
1.84356
1.74024
1.64478
1.5565
1.47497
1.39953
1.32981
1.26519
1.20533
1.14969
1.09801
1.04977
1.0048
0.962633
0.923172
0.886022
0.851149
0.818209
0.787227
0.757886
0.730282
0.704134
0.679615
0.656441
0.634798
0.614354
0.595286
0.577223
0.560375
0.544357
0.529438
0.515214
0.502034
0.489474
0.477953
0.466985
0.456973
0.44729
0.438308
0.42932
0.420798
0.412072
0.403796
0.395329
0.387468
0.379529
0.372383
0.365248
0.35904
0.352878
0.347726
0.342632
0.338618
0.334669
0.331851
0.329079
0.327428
0.325736
0.325043
0.324105
0.323895
0.323094
0.322584
0.321005
0.319199
0.315847
0.311876
0.306066
0.299569
0.29125
0.282612
0.272483
0.262784
0.25208
0.24273
0.232742
0.224869
0.216315
0.210194
0.202765
0.197464
0.189662
0.183141
0.17268
0.162604
0.147589
0.132717
0.112651
0.0933348
0.0689167
0.0464291
0.0185799
0.0165007
14.339
14.3384
14.3369
14.3345
14.3314
14.3275
14.323
14.3179
14.312
14.3056
14.2986
14.291
14.283
14.2744
14.2654
14.2559
14.2461
14.2358
14.2251
14.2139
14.2024
14.1904
14.1781
14.1652
14.152
14.1383
14.1241
14.1093
14.0941
14.0783
14.0618
14.0448
14.027
14.0086
13.9893
13.9692
13.9482
13.9262
13.9032
13.8791
13.8538
13.8272
13.7992
13.7698
13.7388
13.7062
13.6717
13.6354
13.597
13.5564
13.5136
13.4683
13.4203
13.3697
13.316
13.2592
13.199
13.1352
13.0676
12.9958
12.9196
12.8385
12.7522
12.6601
12.5617
12.4564
12.3434
12.2217
12.0905
11.9484
11.7941
11.6261
11.4426
11.2417
11.0214
10.7796
10.5144
10.2242
9.90793
9.56532
9.19708
8.80515
8.39299
7.96598
7.53083
7.09443
6.66263
6.24028
5.83125
5.43873
5.06495
4.71145
4.37894
4.06762
3.77716
3.507
3.2563
3.02426
2.80992
2.61239
2.43064
2.26377
2.11067
1.97044
1.84203
1.72458
1.61715
1.51903
1.42939
1.34763
1.273
1.205
1.14291
1.08629
1.03448
0.987082
0.943493
0.903381
0.8662
0.831695
0.799387
0.769144
0.740612
0.713828
0.688545
0.66485
0.642449
0.621394
0.601375
0.582517
0.564575
0.547772
0.531879
0.51715
0.503298
0.490565
0.478603
0.467659
0.457329
0.447856
0.438764
0.43037
0.422226
0.414796
0.407608
0.401112
0.394653
0.388614
0.382247
0.37603
0.369251
0.362592
0.355416
0.348649
0.341689
0.335633
0.329765
0.325208
0.321051
0.318414
0.316238
0.31564
0.31544
0.316699
0.318121
0.320676
0.323045
0.326091
0.328474
0.330857
0.331919
0.332196
0.330508
0.327384
0.321874
0.314698
0.305159
0.294395
0.281874
0.269381
0.256237
0.244817
0.233765
0.225894
0.218648
0.215103
0.211295
0.210479
0.207343
0.205342
0.198457
0.190855
0.176713
0.161395
0.139669
0.117902
0.0909417
0.0637521
0.036639
0.0109605
14.3713
14.3706
14.3689
14.3663
14.3629
14.3588
14.354
14.3486
14.3425
14.3359
14.3288
14.3212
14.3132
14.3048
14.296
14.2868
14.2774
14.2675
14.2574
14.247
14.2362
14.2251
14.2137
14.202
14.1899
14.1775
14.1647
14.1515
14.1378
14.1238
14.1093
14.0942
14.0787
14.0625
14.0457
14.0282
14.0099
13.9908
13.9709
13.95
13.928
13.905
13.8808
13.8552
13.8283
13.7998
13.7698
13.7381
13.7045
13.6689
13.6312
13.5914
13.5491
13.5043
13.4568
13.4064
13.353
13.2963
13.2361
13.1721
13.1042
13.0318
12.9547
12.8724
12.7843
12.6898
12.5881
12.4782
12.359
12.2292
12.0868
11.9301
11.7565
11.5631
11.3468
11.1037
10.83
10.5219
10.1762
9.79154
9.36937
8.91438
8.43328
7.93406
7.42566
6.9171
6.41649
5.93107
5.46654
5.02689
4.61432
4.22999
3.8741
3.54629
3.24548
2.97033
2.71917
2.4904
2.28235
2.09358
1.9226
1.76818
1.62893
1.50369
1.39118
1.29032
1.19997
1.11921
1.04707
0.982826
0.925617
0.874848
0.829748
0.789795
0.754277
0.722731
0.694497
0.669157
0.646098
0.624954
0.605167
0.586466
0.568466
0.551252
0.534757
0.519229
0.50456
0.490929
0.478109
0.46617
0.454808
0.444131
0.433927
0.424454
0.415554
0.407524
0.400137
0.393677
0.387875
0.383004
0.378657
0.374943
0.371254
0.367752
0.363955
0.360331
0.356467
0.352859
0.348884
0.344942
0.340283
0.335371
0.329483
0.323378
0.316548
0.310128
0.303692
0.298572
0.294169
0.291803
0.290605
0.291837
0.294385
0.299318
0.305215
0.312905
0.320899
0.329856
0.338217
0.346265
0.352469
0.356902
0.358275
0.356632
0.351208
0.342393
0.330063
0.315178
0.298054
0.280447
0.262927
0.247891
0.235143
0.227477
0.222891
0.224152
0.227241
0.234905
0.240614
0.246831
0.246103
0.24217
0.228507
0.210826
0.184649
0.157149
0.124905
0.090236
0.0621303
0.00591831
14.4069
14.4061
14.4043
14.4013
14.3975
14.3929
14.3875
14.3814
14.3747
14.3675
14.3598
14.3516
14.3432
14.3344
14.3253
14.316
14.3065
14.2968
14.2869
14.2769
14.2667
14.2563
14.2458
14.235
14.2242
14.2131
14.2017
14.1902
14.1784
14.1663
14.154
14.1413
14.1282
14.1147
14.1007
14.0862
14.0711
14.0553
14.0389
14.0217
14.0036
13.9846
13.9646
13.9435
13.9211
13.8975
13.8724
13.8458
13.8175
13.7875
13.7556
13.7217
13.6857
13.6474
13.6066
13.5633
13.5173
13.4684
13.4165
13.3613
13.3027
13.2403
13.1739
13.1031
13.0274
12.9463
12.8591
12.7648
12.6624
12.5503
12.4267
12.2892
12.1349
11.9599
11.7598
11.529
11.2607
10.947
10.579
10.1473
9.64669
9.08224
8.47368
7.84713
7.2221
6.60847
6.013
5.44398
4.90886
4.41206
3.9549
3.53719
3.15783
2.8153
2.50755
2.23236
1.98718
1.76956
1.57695
1.4071
1.25781
1.12719
1.01334
0.914608
0.829302
0.755989
0.693202
0.63977
0.594498
0.556481
0.524755
0.498619
0.477266
0.460123
0.44648
0.435835
0.427515
0.421022
0.415657
0.410905
0.406122
0.400984
0.395232
0.389184
0.382941
0.3767
0.370396
0.364344
0.358585
0.353342
0.348418
0.343856
0.339414
0.335245
0.331248
0.32774
0.324661
0.322322
0.320521
0.319584
0.319342
0.320069
0.321241
0.322699
0.323612
0.323983
0.323367
0.322275
0.32033
0.317939
0.314519
0.310488
0.305259
0.299537
0.292855
0.286116
0.278883
0.272468
0.266515
0.262677
0.2605
0.261636
0.265171
0.272411
0.281944
0.294704
0.309026
0.325422
0.341968
0.358476
0.37302
0.38476
0.392051
0.393638
0.388758
0.376646
0.35799
0.333496
0.30563
0.276224
0.248158
0.224393
0.206641
0.197684
0.196633
0.205798
0.221345
0.245264
0.269637
0.294822
0.310522
0.318017
0.309888
0.292559
0.263095
0.229865
0.190787
0.146366
0.103899
0.0227944
14.4464
14.4455
14.4433
14.4398
14.4354
14.4302
14.4244
14.418
14.411
14.4036
14.3958
14.3877
14.3792
14.3706
14.3617
14.3527
14.3436
14.3343
14.3249
14.3155
14.3059
14.2963
14.2867
14.277
14.2672
14.2573
14.2474
14.2373
14.2272
14.2169
14.2065
14.1959
14.1851
14.1741
14.1628
14.1511
14.139
14.1265
14.1135
14.0999
14.0857
14.0707
14.055
14.0383
14.0206
14.0018
13.9818
13.9605
13.9378
13.9135
13.8876
13.8599
13.8303
13.7988
13.7651
13.7292
13.691
13.6503
13.6071
13.5612
13.5126
13.461
13.4062
13.3482
13.2866
13.2211
13.1511
13.0761
12.995
12.9066
12.8091
12.6999
12.5757
12.4318
12.2619
12.0583
11.8116
11.511
11.1453
10.6986
10.1524
9.47755
8.68204
7.83133
6.98531
6.17021
5.39974
4.68724
4.04171
3.46605
2.95879
2.51619
2.1329
1.80295
1.52024
1.27919
1.07453
0.901651
0.75626
0.634796
0.533999
0.451233
0.383982
0.330205
0.287873
0.255394
0.231153
0.21397
0.202613
0.196258
0.193978
0.195219
0.199267
0.20575
0.214089
0.224
0.234935
0.246534
0.258013
0.268534
0.276552
0.281093
0.282969
0.283851
0.284349
0.284576
0.284353
0.283895
0.28323
0.282616
0.281988
0.281466
0.280936
0.280492
0.280057
0.279765
0.279659
0.28003
0.280902
0.282478
0.284667
0.28768
0.291382
0.295755
0.300088
0.303909
0.306524
0.308018
0.308077
0.306969
0.304113
0.299783
0.293914
0.287472
0.280451
0.273533
0.266446
0.259799
0.253505
0.24864
0.245503
0.24559
0.248729
0.255735
0.266031
0.280681
0.298945
0.320795
0.344525
0.369293
0.393101
0.413886
0.429522
0.437555
0.436844
0.424934
0.402706
0.36829
0.327349
0.282558
0.238525
0.199918
0.171126
0.153189
0.147995
0.158458
0.18106
0.215331
0.252217
0.292473
0.322798
0.336887
0.324349
0.29612
0.256073
0.220533
0.184946
0.146053
0.0992223
0.0270512
14.4907
14.4895
14.4866
14.4819
14.4757
14.4684
14.4605
14.452
14.443
14.4338
14.4243
14.4148
14.4053
14.3958
14.3863
14.377
14.3678
14.3587
14.3497
14.3409
14.3322
14.3237
14.3152
14.3069
14.2988
14.2907
14.2827
14.2748
14.267
14.2593
14.2515
14.2438
14.236
14.2282
14.2203
14.2122
14.204
14.1955
14.1866
14.1774
14.1678
14.1576
14.1467
14.1352
14.1228
14.1095
14.0952
14.0798
14.0631
14.0451
14.0256
14.0046
13.9818
13.9573
13.9309
13.9026
13.8723
13.84
13.8055
13.769
13.7304
13.6896
13.6469
13.6021
13.5553
13.5065
13.4558
13.4031
13.348
13.2903
13.2289
13.1621
13.0868
12.9978
12.886
12.7369
12.5265
12.2229
11.7828
11.1738
10.3859
9.488
8.4848
7.43562
6.37965
5.34854
4.39396
3.55722
2.8512
2.27028
1.80157
1.42907
1.13562
0.904849
0.722899
0.578667
0.463766
0.371791
0.298142
0.23932
0.192908
0.156899
0.129877
0.110442
0.0975948
0.0902226
0.0875956
0.0888204
0.0933986
0.100624
0.110188
0.121529
0.134489
0.148606
0.163844
0.179821
0.196585
0.213811
0.231434
0.248848
0.263605
0.270624
0.272877
0.2739
0.27459
0.274878
0.274843
0.274621
0.274251
0.273751
0.273119
0.272399
0.271622
0.270914
0.270359
0.270182
0.270432
0.271181
0.272503
0.274644
0.277613
0.281342
0.285712
0.290626
0.295633
0.300212
0.304068
0.306652
0.307636
0.307149
0.304239
0.298562
0.290627
0.281813
0.272379
0.263233
0.254051
0.245654
0.238028
0.232342
0.228752
0.228454
0.231069
0.237056
0.245987
0.259253
0.277196
0.300109
0.326919
0.356499
0.386856
0.414574
0.437012
0.450855
0.454347
0.444473
0.42225
0.386494
0.337914
0.281931
0.228287
0.181843
0.144992
0.123159
0.115422
0.127446
0.162695
0.220299
0.283615
0.351107
0.411764
0.45189
0.444164
0.379159
0.291994
0.219899
0.172595
0.131723
0.0906951
0.0299343
14.5408
14.5393
14.536
14.531
14.5249
14.518
14.5102
14.5016
14.4925
14.483
14.4732
14.4633
14.4533
14.4432
14.4333
14.4234
14.4138
14.4043
14.395
14.386
14.3772
14.3687
14.3605
14.3526
14.345
14.3376
14.3306
14.3238
14.3173
14.3111
14.3051
14.2994
14.2939
14.2885
14.2833
14.2782
14.2731
14.268
14.2629
14.2577
14.2522
14.2465
14.2404
14.2338
14.2267
14.2189
14.2103
14.2007
14.1902
14.1785
14.1656
14.1513
14.1355
14.1182
14.0992
14.0786
14.0562
14.0322
14.0065
13.9792
13.9505
13.9206
13.8899
13.8585
13.8271
13.7963
13.7668
13.7395
13.7159
13.6974
13.6862
13.6845
13.6948
13.7194
13.7577
13.8051
13.8361
13.8079
13.5577
12.9411
11.3387
9.25982
7.5372
6.26174
5.17293
4.19317
3.35463
2.66952
2.12193
1.6884
1.34639
1.07672
0.862948
0.692293
0.554762
0.443403
0.352868
0.279583
0.220544
0.173778
0.137348
0.10999
0.0902405
0.0771804
0.0696146
0.0668753
0.0679926
0.0725241
0.0796968
0.0892586
0.100588
0.113579
0.127718
0.143008
0.159005
0.175781
0.19294
0.210497
0.227988
0.245066
0.258289
0.26338
0.264923
0.266102
0.267271
0.268243
0.268982
0.269539
0.269852
0.269926
0.269723
0.269333
0.2688
0.268278
0.267733
0.267378
0.267375
0.268008
0.269343
0.271702
0.275008
0.279375
0.284583
0.290625
0.296632
0.302331
0.307105
0.310461
0.31195
0.312228
0.309775
0.304627
0.296956
0.288034
0.278125
0.268557
0.258783
0.249913
0.241457
0.23518
0.231214
0.231828
0.236046
0.244309
0.254614
0.26925
0.287307
0.310918
0.338643
0.371941
0.407368
0.442177
0.470523
0.48885
0.493051
0.480372
0.449405
0.403403
0.343259
0.275986
0.212599
0.159235
0.115472
0.0926083
0.081413
0.0866387
0.113787
0.167005
0.233654
0.324809
0.420427
0.49695
0.524316
0.475358
0.368816
0.264653
0.172235
0.100396
0.0428282
0.00654614
14.5996
14.5958
14.586
14.5722
14.5581
14.5448
14.5321
14.5194
14.5071
14.4953
14.4841
14.4734
14.4632
14.4534
14.4441
14.4352
14.4267
14.4187
14.4111
14.4039
14.3971
14.3906
14.3847
14.3791
14.3739
14.3691
14.3648
14.3608
14.3573
14.3542
14.3515
14.3492
14.3473
14.3457
14.3444
14.3435
14.3427
14.3422
14.3418
14.3415
14.3412
14.3408
14.3403
14.3394
14.3382
14.3365
14.3341
14.3311
14.3271
14.3222
14.3162
14.309
14.3006
14.2908
14.2796
14.2672
14.2534
14.2383
14.2223
14.2053
14.1878
14.1701
14.1527
14.1361
14.1211
14.1085
14.0995
14.0955
14.0984
14.1107
14.1366
14.1826
14.2589
14.3811
14.5712
14.8629
15.2892
15.9279
16.7273
17.9533
17.8379
13.5677
10.0858
7.72733
5.84725
4.40793
3.36314
2.6038
2.05026
1.64257
1.33567
1.09809
0.908474
0.75286
0.622403
0.511721
0.417532
0.337834
0.271202
0.216519
0.172676
0.138607
0.113165
0.0952743
0.0838405
0.0779164
0.0765809
0.0791006
0.0847692
0.0930704
0.103489
0.115687
0.129293
0.144104
0.159863
0.17651
0.193874
0.212532
0.231208
0.260269
0.265492
0.267781
0.268939
0.269725
0.270309
0.270819
0.271173
0.271417
0.271442
0.271325
0.270978
0.270513
0.269922
0.269453
0.269098
0.269031
0.269224
0.270103
0.271583
0.274014
0.277136
0.281259
0.286046
0.291528
0.296824
0.301762
0.3058
0.308434
0.309412
0.308749
0.304913
0.298624
0.290408
0.280892
0.270219
0.259584
0.249111
0.239931
0.231201
0.225313
0.22095
0.219851
0.220997
0.227362
0.23661
0.251207
0.26865
0.291366
0.316497
0.345719
0.375319
0.404062
0.427016
0.440948
0.441635
0.426593
0.395308
0.346713
0.285525
0.218388
0.155676
0.0998584
0.058982
0.0357116
0.0272394
0.0344336
0.0573147
0.0941355
0.143852
0.220579
0.328308
0.43189
0.486074
0.494301
0.453987
0.394913
0.317554
0.225571
0.109341
0.00628758
14.6712
14.6803
14.6791
14.6678
14.6532
14.6379
14.6219
14.6054
14.5888
14.5725
14.5568
14.5416
14.5272
14.5135
14.5006
14.4884
14.477
14.4663
14.4564
14.4472
14.4388
14.4311
14.4242
14.4179
14.4124
14.4076
14.4035
14.4001
14.3975
14.3956
14.3944
14.3939
14.3941
14.395
14.3965
14.3987
14.4015
14.4049
14.4089
14.4133
14.4182
14.4235
14.429
14.4348
14.4407
14.4466
14.4524
14.458
14.4632
14.4679
14.472
14.4753
14.4777
14.4791
14.4794
14.4784
14.4763
14.4729
14.4683
14.4627
14.4562
14.4492
14.4419
14.4349
14.4287
14.424
14.4217
14.4225
14.4274
14.4367
14.4503
14.4678
14.4929
14.5391
14.6313
14.8069
15.1034
15.5871
16.2607
17.265
17.6831
14.8056
12.3545
10.4971
8.82824
7.38503
6.17546
5.16054
4.31183
3.60425
3.0145
2.52262
2.11174
1.76789
1.47963
1.23772
1.03468
0.864457
0.722117
0.603599
0.505487
0.424915
0.359401
0.306829
0.265341
0.233347
0.209441
0.192437
0.18128
0.175094
0.173101
0.174668
0.17923
0.18635
0.195624
0.20681