/*--------------------------------*- C++ -*----------------------------------*\
  =========                 |
  \\      /  F ield         | OpenFOAM: The Open Source CFD Toolbox
   \\    /   O peration     | Website:  https://openfoam.org
    \\  /    A nd           | Version:  10
     \\/     M anipulation  |
\*---------------------------------------------------------------------------*/
FoamFile
{
    format      ascii;
    class       volScalarField;
    location    "0.051";
    object      pPrime2Mean;
}
// * * * * * * * * * * * * * * * * * * * * * * * * * * * * * * * * * * * * * //

dimensions      [0 4 -4 0 0 0 0];

internalField   nonuniform List<scalar> 
12225
(
8.25662e+06
8.12602e+06
7.99148e+06
7.86143e+06
7.73626e+06
7.61569e+06
7.49943e+06
7.38716e+06
7.27855e+06
7.17323e+06
7.07078e+06
6.97072e+06
6.87247e+06
6.77529e+06
6.67816e+06
6.57947e+06
6.47638e+06
6.36159e+06
8.25682e+06
8.1261e+06
7.99156e+06
7.86151e+06
7.73635e+06
7.61578e+06
7.49953e+06
7.38728e+06
7.2787e+06
7.17342e+06
7.07102e+06
6.97102e+06
6.87288e+06
6.77586e+06
6.679e+06
6.58084e+06
6.47895e+06
6.368e+06
8.25712e+06
8.12628e+06
7.99172e+06
7.86168e+06
7.73653e+06
7.61598e+06
7.49976e+06
7.38756e+06
7.27904e+06
7.17383e+06
7.07153e+06
6.97169e+06
6.87377e+06
6.77709e+06
6.68081e+06
6.58372e+06
6.48412e+06
6.37994e+06
8.25746e+06
8.12656e+06
7.99199e+06
7.86196e+06
7.73683e+06
7.61632e+06
7.50015e+06
7.38802e+06
7.27959e+06
7.17451e+06
7.07239e+06
6.9728e+06
6.87523e+06
6.7791e+06
6.68371e+06
6.58819e+06
6.49168e+06
6.39426e+06
8.25781e+06
8.12696e+06
7.9924e+06
7.86238e+06
7.73728e+06
7.61682e+06
7.50072e+06
7.38869e+06
7.2804e+06
7.17551e+06
7.07364e+06
6.9744e+06
6.87734e+06
6.78197e+06
6.68776e+06
6.59421e+06
6.50114e+06
6.40973e+06
8.25838e+06
8.12752e+06
7.99295e+06
7.86295e+06
7.73789e+06
7.6175e+06
7.50151e+06
7.38961e+06
7.28151e+06
7.17687e+06
7.07534e+06
6.97657e+06
6.88017e+06
6.78575e+06
6.69298e+06
6.60167e+06
6.51209e+06
6.42574e+06
8.25911e+06
8.12826e+06
7.99369e+06
7.86371e+06
7.73871e+06
7.61841e+06
7.50254e+06
7.39083e+06
7.28297e+06
7.17865e+06
7.07756e+06
6.97937e+06
6.88378e+06
6.7905e+06
6.69936e+06
6.61041e+06
6.52416e+06
6.44202e+06
8.26002e+06
8.12921e+06
7.99465e+06
7.86469e+06
7.73975e+06
7.61956e+06
7.50386e+06
7.39238e+06
7.28482e+06
7.18091e+06
7.08034e+06
6.98286e+06
6.88821e+06
6.79622e+06
6.70684e+06
6.62027e+06
6.53708e+06
6.45845e+06
8.26135e+06
8.13045e+06
7.99585e+06
7.86592e+06
7.74106e+06
7.62101e+06
7.50551e+06
7.39431e+06
7.28712e+06
7.18368e+06
7.08374e+06
6.98707e+06
6.89349e+06
6.8029e+06
6.71535e+06
6.63108e+06
6.55066e+06
6.47495e+06
8.26286e+06
8.13198e+06
7.99735e+06
7.86743e+06
7.74267e+06
7.62278e+06
7.50753e+06
7.39665e+06
7.2899e+06
7.18702e+06
7.08779e+06
6.99203e+06
6.89962e+06
6.8105e+06
6.72478e+06
6.64271e+06
6.56475e+06
6.4915e+06
8.26518e+06
8.1339e+06
7.99917e+06
7.86927e+06
7.74461e+06
7.62492e+06
7.50995e+06
7.39946e+06
7.2932e+06
7.19095e+06
7.09252e+06
6.99776e+06
6.90658e+06
6.81897e+06
6.73503e+06
6.655e+06
6.57922e+06
6.50807e+06
8.2672e+06
8.136e+06
8.00118e+06
7.87129e+06
7.74673e+06
7.62725e+06
7.51258e+06
7.40248e+06
7.29674e+06
7.19514e+06
7.0975e+06
7.00371e+06
6.9137e+06
6.82746e+06
6.7451e+06
6.66678e+06
6.59276e+06
6.52327e+06
8.27016e+06
8.13845e+06
8.00347e+06
7.87358e+06
7.74915e+06
7.62988e+06
7.51554e+06
7.40588e+06
7.30069e+06
7.19977e+06
7.10297e+06
7.01018e+06
6.92133e+06
6.83643e+06
6.75555e+06
6.67881e+06
6.60636e+06
6.53832e+06
8.27401e+06
8.14173e+06
8.00652e+06
7.87661e+06
7.75232e+06
7.63334e+06
7.51941e+06
7.4103e+06
7.30579e+06
7.2057e+06
7.10989e+06
7.01825e+06
6.93072e+06
6.84729e+06
6.768e+06
6.69288e+06
6.62201e+06
6.55541e+06
8.27904e+06
8.14601e+06
8.0105e+06
7.88057e+06
7.75646e+06
7.63784e+06
7.52442e+06
7.41598e+06
7.31229e+06
7.21319e+06
7.11852e+06
7.02819e+06
6.94211e+06
6.86025e+06
6.78258e+06
6.70911e+06
6.63979e+06
6.5746e+06
8.28513e+06
8.15146e+06
8.01562e+06
7.88568e+06
7.76181e+06
7.64362e+06
7.53083e+06
7.42318e+06
7.32046e+06
7.22248e+06
7.1291e+06
7.04018e+06
6.95564e+06
6.87539e+06
6.79936e+06
6.72748e+06
6.65967e+06
6.59581e+06
8.29259e+06
8.15814e+06
8.02199e+06
7.89209e+06
7.76853e+06
7.65088e+06
7.53883e+06
7.4321e+06
7.33047e+06
7.23373e+06
7.14173e+06
7.0543e+06
6.97132e+06
6.89266e+06
6.81821e+06
6.74785e+06
6.68143e+06
6.61881e+06
8.3008e+06
8.16583e+06
8.02955e+06
7.89981e+06
7.77667e+06
7.65967e+06
7.54847e+06
7.44276e+06
7.34231e+06
7.24688e+06
7.15629e+06
7.07035e+06
6.98888e+06
6.91174e+06
6.83876e+06
6.76977e+06
6.70462e+06
6.64313e+06
8.30958e+06
8.1742e+06
8.03793e+06
7.90853e+06
7.78595e+06
7.66972e+06
7.55946e+06
7.45485e+06
7.3556e+06
7.26148e+06
7.17226e+06
7.08772e+06
7.00766e+06
6.93189e+06
6.86022e+06
6.79245e+06
6.7284e+06
6.66789e+06
8.31515e+06
8.18015e+06
8.04429e+06
7.9154e+06
7.79344e+06
7.67791e+06
7.56844e+06
7.46469e+06
7.36636e+06
7.27319e+06
7.18495e+06
7.10138e+06
7.02228e+06
6.94742e+06
6.87661e+06
6.80964e+06
6.74631e+06
6.68643e+06
8.31738e+06
8.18337e+06
8.04816e+06
7.9198e+06
7.79837e+06
7.68339e+06
7.57448e+06
7.47131e+06
7.37358e+06
7.28103e+06
7.19339e+06
7.11043e+06
7.03191e+06
6.95761e+06
6.88731e+06
6.82081e+06
6.75791e+06
6.69841e+06
8.31912e+06
8.18544e+06
8.05073e+06
7.92287e+06
7.80189e+06
7.68734e+06
7.57886e+06
7.47612e+06
7.37883e+06
7.28671e+06
7.1995e+06
7.11696e+06
7.03884e+06
6.96491e+06
6.89496e+06
6.82878e+06
6.76616e+06
6.70691e+06
8.31883e+06
8.1864e+06
8.05234e+06
7.92493e+06
7.80434e+06
7.69014e+06
7.58199e+06
7.47957e+06
7.38259e+06
7.29078e+06
7.20387e+06
7.12161e+06
7.04376e+06
6.97009e+06
6.90038e+06
6.83442e+06
6.77199e+06
6.71291e+06
8.31897e+06
8.18695e+06
8.05335e+06
7.92632e+06
7.80603e+06
7.69209e+06
7.58418e+06
7.48199e+06
7.38524e+06
7.29364e+06
7.20693e+06
7.12487e+06
7.04721e+06
6.97372e+06
6.90417e+06
6.83835e+06
6.77606e+06
6.71709e+06
8.31878e+06
8.18716e+06
8.05396e+06
7.92723e+06
7.80717e+06
7.69343e+06
7.58569e+06
7.48366e+06
7.38706e+06
7.29561e+06
7.20905e+06
7.12712e+06
7.04959e+06
6.97621e+06
6.90678e+06
6.84106e+06
6.77885e+06
6.71996e+06
8.31787e+06
8.18712e+06
8.05431e+06
7.92781e+06
7.80792e+06
7.69431e+06
7.5867e+06
7.48478e+06
7.38828e+06
7.29693e+06
7.21047e+06
7.12863e+06
7.05118e+06
6.97789e+06
6.90852e+06
6.84286e+06
6.78072e+06
6.72188e+06
8.31722e+06
8.18703e+06
8.05451e+06
7.92817e+06
7.8084e+06
7.69489e+06
7.58735e+06
7.4855e+06
7.38907e+06
7.29779e+06
7.21138e+06
7.1296e+06
7.05221e+06
6.97896e+06
6.90964e+06
6.84403e+06
6.78192e+06
6.72311e+06
8.31689e+06
8.18697e+06
8.05461e+06
7.92839e+06
7.80869e+06
7.69523e+06
7.58774e+06
7.48594e+06
7.38955e+06
7.2983e+06
7.21194e+06
7.13019e+06
7.05283e+06
6.97962e+06
6.91032e+06
6.84473e+06
6.78265e+06
6.72386e+06
8.31675e+06
8.18694e+06
8.05467e+06
7.9285e+06
7.80884e+06
7.69542e+06
7.58795e+06
7.48618e+06
7.38981e+06
7.29858e+06
7.21223e+06
7.13051e+06
7.05317e+06
6.97997e+06
6.91069e+06
6.84512e+06
6.78304e+06
6.72426e+06
8.31671e+06
8.18692e+06
8.05469e+06
7.92855e+06
7.8089e+06
7.69549e+06
7.58804e+06
7.48627e+06
7.38991e+06
7.2987e+06
7.21236e+06
7.13064e+06
7.0533e+06
6.98011e+06
6.91084e+06
6.84527e+06
6.7832e+06
6.72442e+06
5.37703e+06
5.37661e+06
5.37575e+06
5.37444e+06
5.37268e+06
5.37045e+06
5.36775e+06
5.36459e+06
5.36094e+06
5.35682e+06
5.3522e+06
5.34709e+06
5.34148e+06
5.33536e+06
5.32873e+06
5.32159e+06
5.31393e+06
5.30575e+06
5.29706e+06
5.28785e+06
5.27813e+06
5.2679e+06
5.25717e+06
5.24593e+06
5.2342e+06
5.22198e+06
5.20927e+06
5.19609e+06
5.18242e+06
5.16827e+06
5.15366e+06
5.13859e+06
5.12306e+06
5.10709e+06
5.09066e+06
5.07379e+06
5.0565e+06
5.03879e+06
5.02067e+06
5.00215e+06
4.98323e+06
4.9639e+06
4.94417e+06
4.92406e+06
4.90356e+06
4.88268e+06
4.86143e+06
4.83981e+06
4.81784e+06
4.79552e+06
4.77286e+06
4.74988e+06
4.72658e+06
4.70297e+06
4.67905e+06
4.65483e+06
4.63033e+06
4.60553e+06
4.58045e+06
4.55509e+06
4.52946e+06
4.50357e+06
4.47742e+06
4.45101e+06
4.42434e+06
4.39741e+06
4.37024e+06
4.3428e+06
4.31513e+06
4.2872e+06
4.25904e+06
4.23064e+06
4.20201e+06
4.17317e+06
4.1441e+06
4.11483e+06
4.08536e+06
4.05569e+06
4.02584e+06
3.9958e+06
3.96559e+06
3.9352e+06
3.90464e+06
3.87392e+06
3.84303e+06
3.81199e+06
3.78078e+06
3.74942e+06
3.71791e+06
3.68624e+06
3.65443e+06
3.62248e+06
3.59039e+06
3.55816e+06
3.5258e+06
3.49331e+06
3.4607e+06
3.42797e+06
3.39513e+06
3.36217e+06
3.3291e+06
3.29592e+06
3.26263e+06
3.22925e+06
3.19577e+06
3.16219e+06
3.12852e+06
3.09476e+06
3.06091e+06
3.02698e+06
2.99297e+06
2.95888e+06
2.92471e+06
2.89048e+06
2.85617e+06
2.8218e+06
2.78737e+06
2.75288e+06
2.71833e+06
2.68372e+06
2.64907e+06
2.61437e+06
2.57963e+06
2.54485e+06
2.51003e+06
2.47518e+06
2.4403e+06
2.4054e+06
2.37048e+06
2.33554e+06
2.30059e+06
2.26564e+06
2.23068e+06
2.19572e+06
2.16076e+06
2.12582e+06
2.09089e+06
2.05598e+06
2.0211e+06
1.98624e+06
1.95142e+06
1.91664e+06
1.88191e+06
1.84722e+06
1.81259e+06
1.77803e+06
1.74353e+06
1.7091e+06
1.67475e+06
1.64049e+06
1.60632e+06
1.57225e+06
1.53828e+06
1.50442e+06
1.47068e+06
1.43707e+06
1.40359e+06
1.37025e+06
1.33705e+06
1.30401e+06
1.27113e+06
1.23842e+06
1.2059e+06
1.17356e+06
1.14141e+06
1.10948e+06
1.07776e+06
1.04626e+06
1.01501e+06
984001
953259
922794
892622
862764
833242
804084
775332
747043
719317
692373
5.37899e+06
5.37857e+06
5.3777e+06
5.37638e+06
5.37461e+06
5.37237e+06
5.36966e+06
5.36647e+06
5.36281e+06
5.35867e+06
5.35403e+06
5.34889e+06
5.34325e+06
5.3371e+06
5.33044e+06
5.32326e+06
5.31557e+06
5.30735e+06
5.29862e+06
5.28937e+06
5.27961e+06
5.26934e+06
5.25856e+06
5.24729e+06
5.23551e+06
5.22325e+06
5.2105e+06
5.19726e+06
5.18355e+06
5.16937e+06
5.15473e+06
5.13963e+06
5.12408e+06
5.10807e+06
5.09162e+06
5.07472e+06
5.05739e+06
5.03965e+06
5.02149e+06
5.00294e+06
4.98397e+06
4.96461e+06
4.94485e+06
4.92469e+06
4.90416e+06
4.88325e+06
4.86198e+06
4.84034e+06
4.81835e+06
4.796e+06
4.77332e+06
4.75032e+06
4.727e+06
4.70337e+06
4.67943e+06
4.6552e+06
4.63067e+06
4.60586e+06
4.58076e+06
4.55539e+06
4.52975e+06
4.50385e+06
4.47768e+06
4.45126e+06
4.42458e+06
4.39764e+06
4.37045e+06
4.34301e+06
4.31531e+06
4.28738e+06
4.2592e+06
4.2308e+06
4.20216e+06
4.1733e+06
4.14423e+06
4.11495e+06
4.08547e+06
4.0558e+06
4.02593e+06
3.99589e+06
3.96567e+06
3.93528e+06
3.90472e+06
3.87399e+06
3.8431e+06
3.81205e+06
3.78084e+06
3.74948e+06
3.71796e+06
3.68629e+06
3.65448e+06
3.62252e+06
3.59043e+06
3.5582e+06
3.52583e+06
3.49334e+06
3.46073e+06
3.428e+06
3.39515e+06
3.36219e+06
3.32912e+06
3.29594e+06
3.26265e+06
3.22926e+06
3.19578e+06
3.1622e+06
3.12853e+06
3.09477e+06
3.06092e+06
3.02699e+06
2.99298e+06
2.95889e+06
2.92472e+06
2.89048e+06
2.85618e+06
2.82181e+06
2.78737e+06
2.75288e+06
2.71833e+06
2.68373e+06
2.64907e+06
2.61437e+06
2.57963e+06
2.54485e+06
2.51003e+06
2.47518e+06
2.44031e+06
2.4054e+06
2.37048e+06
2.33555e+06
2.3006e+06
2.26564e+06
2.23068e+06
2.19572e+06
2.16077e+06
2.12582e+06
2.09089e+06
2.05598e+06
2.0211e+06
1.98624e+06
1.95142e+06
1.91664e+06
1.88191e+06
1.84722e+06
1.81259e+06
1.77803e+06
1.74353e+06
1.7091e+06
1.67475e+06
1.64049e+06
1.60632e+06
1.57225e+06
1.53828e+06
1.50442e+06
1.47068e+06
1.43707e+06
1.40359e+06
1.37025e+06
1.33705e+06
1.30401e+06
1.27113e+06
1.23842e+06
1.2059e+06
1.17355e+06
1.14141e+06
1.10947e+06
1.07775e+06
1.04626e+06
1.015e+06
983997
953254
922787
892613
862752
833225
804062
775299
746991
719224
692152
5.38289e+06
5.38245e+06
5.38157e+06
5.38024e+06
5.37845e+06
5.37619e+06
5.37347e+06
5.37026e+06
5.36656e+06
5.36238e+06
5.35769e+06
5.35251e+06
5.34681e+06
5.3406e+06
5.33387e+06
5.32662e+06
5.31885e+06
5.31056e+06
5.30175e+06
5.29242e+06
5.28258e+06
5.27222e+06
5.26136e+06
5.24999e+06
5.23813e+06
5.22578e+06
5.21294e+06
5.19962e+06
5.18583e+06
5.17157e+06
5.15685e+06
5.14167e+06
5.12604e+06
5.10997e+06
5.09345e+06
5.07649e+06
5.0591e+06
5.04129e+06
5.02308e+06
5.00446e+06
4.98543e+06
4.966e+06
4.94617e+06
4.92595e+06
4.90537e+06
4.88441e+06
4.86308e+06
4.84139e+06
4.81934e+06
4.79696e+06
4.77423e+06
4.75119e+06
4.72782e+06
4.70415e+06
4.68017e+06
4.6559e+06
4.63133e+06
4.60648e+06
4.58136e+06
4.55596e+06
4.5303e+06
4.50437e+06
4.47818e+06
4.45173e+06
4.42503e+06
4.39807e+06
4.37085e+06
4.34339e+06
4.31568e+06
4.28772e+06
4.25953e+06
4.2311e+06
4.20244e+06
4.17357e+06
4.14448e+06
4.11518e+06
4.08568e+06
4.056e+06
4.02612e+06
3.99607e+06
3.96584e+06
3.93543e+06
3.90486e+06
3.87413e+06
3.84323e+06
3.81217e+06
3.78096e+06
3.74959e+06
3.71807e+06
3.68639e+06
3.65457e+06
3.62261e+06
3.59051e+06
3.55827e+06
3.5259e+06
3.49341e+06
3.46079e+06
3.42805e+06
3.3952e+06
3.36223e+06
3.32915e+06
3.29597e+06
3.26268e+06
3.22929e+06
3.19581e+06
3.16223e+06
3.12855e+06
3.09479e+06
3.06094e+06
3.027e+06
2.99299e+06
2.9589e+06
2.92473e+06
2.8905e+06
2.85619e+06
2.82182e+06
2.78738e+06
2.75289e+06
2.71834e+06
2.68373e+06
2.64908e+06
2.61438e+06
2.57964e+06
2.54485e+06
2.51004e+06
2.47519e+06
2.44031e+06
2.40541e+06
2.37049e+06
2.33555e+06
2.3006e+06
2.26564e+06
2.23068e+06
2.19572e+06
2.16077e+06
2.12582e+06
2.09089e+06
2.05598e+06
2.0211e+06
1.98624e+06
1.95142e+06
1.91664e+06
1.88191e+06
1.84722e+06
1.81259e+06
1.77803e+06
1.74353e+06
1.7091e+06
1.67475e+06
1.64049e+06
1.60632e+06
1.57225e+06
1.53828e+06
1.50442e+06
1.47068e+06
1.43707e+06
1.40359e+06
1.37025e+06
1.33705e+06
1.30401e+06
1.27113e+06
1.23842e+06
1.20589e+06
1.17355e+06
1.14141e+06
1.10947e+06
1.07775e+06
1.04625e+06
1.015e+06
983989
953243
922773
892595
862728
833193
804017
775234
746892
719055
691809
5.38877e+06
5.38832e+06
5.38742e+06
5.38607e+06
5.38426e+06
5.38197e+06
5.37921e+06
5.37595e+06
5.37221e+06
5.36795e+06
5.36319e+06
5.35792e+06
5.35213e+06
5.34582e+06
5.33899e+06
5.33163e+06
5.32375e+06
5.31534e+06
5.30641e+06
5.29696e+06
5.28699e+06
5.27651e+06
5.26553e+06
5.25404e+06
5.24205e+06
5.22957e+06
5.2166e+06
5.20316e+06
5.18924e+06
5.17485e+06
5.16e+06
5.1447e+06
5.12896e+06
5.11277e+06
5.09614e+06
5.07907e+06
5.06159e+06
5.0437e+06
5.02539e+06
5.00668e+06
4.98757e+06
4.96805e+06
4.94814e+06
4.92784e+06
4.90717e+06
4.88613e+06
4.86471e+06
4.84294e+06
4.82083e+06
4.79837e+06
4.77557e+06
4.75246e+06
4.72903e+06
4.7053e+06
4.68126e+06
4.65693e+06
4.63232e+06
4.60742e+06
4.58225e+06
4.55681e+06
4.53111e+06
4.50514e+06
4.47891e+06
4.45243e+06
4.42569e+06
4.3987e+06
4.37145e+06
4.34395e+06
4.31621e+06
4.28823e+06
4.26e+06
4.23154e+06
4.20286e+06
4.17396e+06
4.14484e+06
4.11552e+06
4.086e+06
4.05629e+06
4.0264e+06
3.99632e+06
3.96608e+06
3.93566e+06
3.90508e+06
3.87433e+06
3.84343e+06
3.81236e+06
3.78114e+06
3.74976e+06
3.71823e+06
3.68654e+06
3.65471e+06
3.62274e+06
3.59063e+06
3.55838e+06
3.526e+06
3.4935e+06
3.46087e+06
3.42813e+06
3.39527e+06
3.36229e+06
3.32921e+06
3.29602e+06
3.26273e+06
3.22934e+06
3.19585e+06
3.16226e+06
3.12859e+06
3.09482e+06
3.06097e+06
3.02703e+06
2.99302e+06
2.95892e+06
2.92475e+06
2.89052e+06
2.85621e+06
2.82183e+06
2.7874e+06
2.7529e+06
2.71835e+06
2.68374e+06
2.64909e+06
2.61439e+06
2.57964e+06
2.54486e+06
2.51004e+06
2.47519e+06
2.44032e+06
2.40541e+06
2.37049e+06
2.33555e+06
2.3006e+06
2.26564e+06
2.23068e+06
2.19572e+06
2.16077e+06
2.12583e+06
2.0909e+06
2.05599e+06
2.0211e+06
1.98625e+06
1.95143e+06
1.91665e+06
1.88191e+06
1.84722e+06
1.8126e+06
1.77803e+06
1.74353e+06
1.7091e+06
1.67475e+06
1.64049e+06
1.60632e+06
1.57225e+06
1.53828e+06
1.50442e+06
1.47068e+06
1.43707e+06
1.40359e+06
1.37024e+06
1.33705e+06
1.30401e+06
1.27113e+06
1.23842e+06
1.20589e+06
1.17355e+06
1.14141e+06
1.10947e+06
1.07774e+06
1.04625e+06
1.01499e+06
983977
953227
922753
892569
862693
833146
803952
775142
746753
718831
691410
5.39666e+06
5.3962e+06
5.39529e+06
5.39391e+06
5.39206e+06
5.38973e+06
5.3869e+06
5.38358e+06
5.37974e+06
5.3754e+06
5.37053e+06
5.36514e+06
5.35923e+06
5.35278e+06
5.34581e+06
5.3383e+06
5.33026e+06
5.3217e+06
5.31261e+06
5.303e+06
5.29286e+06
5.28222e+06
5.27106e+06
5.2594e+06
5.24724e+06
5.2346e+06
5.22146e+06
5.20785e+06
5.19376e+06
5.17921e+06
5.1642e+06
5.14874e+06
5.13283e+06
5.11649e+06
5.09971e+06
5.08251e+06
5.0649e+06
5.04688e+06
5.02845e+06
5.00961e+06
4.99038e+06
4.97076e+06
4.95074e+06
4.93034e+06
4.90956e+06
4.88841e+06
4.86689e+06
4.84501e+06
4.82279e+06
4.80023e+06
4.77734e+06
4.75414e+06
4.73062e+06
4.70681e+06
4.68269e+06
4.65829e+06
4.63361e+06
4.60865e+06
4.58342e+06
4.55792e+06
4.53216e+06
4.50615e+06
4.47987e+06
4.45334e+06
4.42656e+06
4.39952e+06
4.37223e+06
4.34469e+06
4.31691e+06
4.28888e+06
4.26062e+06
4.23212e+06
4.2034e+06
4.17446e+06
4.14531e+06
4.11596e+06
4.08641e+06
4.05667e+06
4.02675e+06
3.99666e+06
3.96639e+06
3.93596e+06
3.90536e+06
3.8746e+06
3.84368e+06
3.8126e+06
3.78137e+06
3.74998e+06
3.71844e+06
3.68674e+06
3.6549e+06
3.62292e+06
3.59079e+06
3.55853e+06
3.52613e+06
3.49362e+06
3.46098e+06
3.42823e+06
3.39536e+06
3.36238e+06
3.32929e+06
3.2961e+06
3.2628e+06
3.2294e+06
3.1959e+06
3.16231e+06
3.12863e+06
3.09486e+06
3.06101e+06
3.02707e+06
2.99305e+06
2.95895e+06
2.92478e+06
2.89054e+06
2.85623e+06
2.82185e+06
2.78742e+06
2.75292e+06
2.71836e+06
2.68376e+06
2.6491e+06
2.6144e+06
2.57966e+06
2.54487e+06
2.51005e+06
2.4752e+06
2.44032e+06
2.40542e+06
2.3705e+06
2.33556e+06
2.30061e+06
2.26565e+06
2.23069e+06
2.19573e+06
2.16077e+06
2.12583e+06
2.0909e+06
2.05599e+06
2.0211e+06
1.98625e+06
1.95143e+06
1.91665e+06
1.88191e+06
1.84723e+06
1.8126e+06
1.77803e+06
1.74353e+06
1.7091e+06
1.67475e+06
1.64049e+06
1.60632e+06
1.57225e+06
1.53828e+06
1.50442e+06
1.47068e+06
1.43707e+06
1.40359e+06
1.37024e+06
1.33705e+06
1.30401e+06
1.27113e+06
1.23842e+06
1.20589e+06
1.17355e+06
1.1414e+06
1.10946e+06
1.07774e+06
1.04624e+06
1.01498e+06
983961
953207
922726
892534
862648
833085
803869
775025
746583
718569
690991
5.40663e+06
5.40616e+06
5.40522e+06
5.40381e+06
5.4019e+06
5.3995e+06
5.39659e+06
5.39316e+06
5.38922e+06
5.38474e+06
5.37974e+06
5.37421e+06
5.36813e+06
5.36152e+06
5.35437e+06
5.34667e+06
5.33844e+06
5.32968e+06
5.32038e+06
5.31056e+06
5.30021e+06
5.28935e+06
5.27798e+06
5.2661e+06
5.25373e+06
5.24087e+06
5.22752e+06
5.2137e+06
5.1994e+06
5.18465e+06
5.16943e+06
5.15377e+06
5.13767e+06
5.12114e+06
5.10418e+06
5.08681e+06
5.06902e+06
5.05084e+06
5.03225e+06
5.01326e+06
4.99389e+06
4.97412e+06
4.95397e+06
4.93344e+06
4.91253e+06
4.89124e+06
4.86959e+06
4.84758e+06
4.82522e+06
4.80253e+06
4.77952e+06
4.7562e+06
4.73258e+06
4.70866e+06
4.68446e+06
4.65997e+06
4.6352e+06
4.61016e+06
4.58486e+06
4.55929e+06
4.53347e+06
4.50739e+06
4.48105e+06
4.45446e+06
4.42762e+06
4.40053e+06
4.37319e+06
4.34561e+06
4.31777e+06
4.2897e+06
4.26139e+06
4.23284e+06
4.20407e+06
4.17509e+06
4.14589e+06
4.1165e+06
4.08691e+06
4.05714e+06
4.02719e+06
3.99707e+06
3.96678e+06
3.93632e+06
3.90571e+06
3.87493e+06
3.84399e+06
3.8129e+06
3.78165e+06
3.75025e+06
3.7187e+06
3.68699e+06
3.65514e+06
3.62314e+06
3.59099e+06
3.55871e+06
3.52631e+06
3.49377e+06
3.46112e+06
3.42835e+06
3.39547e+06
3.36249e+06
3.32939e+06
3.29619e+06
3.26288e+06
3.22947e+06
3.19597e+06
3.16238e+06
3.12869e+06
3.09491e+06
3.06105e+06
3.02711e+06
2.99309e+06
2.95899e+06
2.92481e+06
2.89057e+06
2.85626e+06
2.82188e+06
2.78744e+06
2.75294e+06
2.71838e+06
2.68378e+06
2.64912e+06
2.61441e+06
2.57967e+06
2.54488e+06
2.51006e+06
2.47521e+06
2.44033e+06
2.40543e+06
2.3705e+06
2.33556e+06
2.30061e+06
2.26565e+06
2.23069e+06
2.19573e+06
2.16078e+06
2.12583e+06
2.0909e+06
2.05599e+06
2.02111e+06
1.98625e+06
1.95143e+06
1.91665e+06
1.88191e+06
1.84723e+06
1.8126e+06
1.77803e+06
1.74353e+06
1.7091e+06
1.67476e+06
1.64049e+06
1.60632e+06
1.57225e+06
1.53828e+06
1.50442e+06
1.47068e+06
1.43707e+06
1.40359e+06
1.37024e+06
1.33705e+06
1.304e+06
1.27113e+06
1.23842e+06
1.20589e+06
1.17354e+06
1.1414e+06
1.10945e+06
1.07773e+06
1.04623e+06
1.01496e+06
983941
953182
922694
892492
862593
833012
803771
774889
746389
718286
690568
5.41877e+06
5.41827e+06
5.41729e+06
5.41581e+06
5.41383e+06
5.41133e+06
5.40831e+06
5.40475e+06
5.40067e+06
5.39604e+06
5.39087e+06
5.38515e+06
5.37888e+06
5.37205e+06
5.36468e+06
5.35675e+06
5.34828e+06
5.33927e+06
5.32973e+06
5.31965e+06
5.30904e+06
5.29792e+06
5.28628e+06
5.27414e+06
5.2615e+06
5.24838e+06
5.23477e+06
5.22069e+06
5.20614e+06
5.19114e+06
5.17568e+06
5.15978e+06
5.14345e+06
5.12669e+06
5.10952e+06
5.09194e+06
5.07395e+06
5.05556e+06
5.03678e+06
5.01762e+06
4.99806e+06
4.97813e+06
4.95782e+06
4.93713e+06
4.91606e+06
4.89461e+06
4.8728e+06
4.85063e+06
4.82812e+06
4.80527e+06
4.78212e+06
4.75866e+06
4.7349e+06
4.71086e+06
4.68654e+06
4.66195e+06
4.63708e+06
4.61195e+06
4.58656e+06
4.56091e+06
4.53501e+06
4.50886e+06
4.48245e+06
4.4558e+06
4.42889e+06
4.40174e+06
4.37434e+06
4.34669e+06
4.3188e+06
4.29067e+06
4.2623e+06
4.2337e+06
4.20487e+06
4.17583e+06
4.14658e+06
4.11714e+06
4.08751e+06
4.05769e+06
4.02771e+06
3.99755e+06
3.96724e+06
3.93676e+06
3.90612e+06
3.87532e+06
3.84436e+06
3.81325e+06
3.78199e+06
3.75057e+06
3.719e+06
3.68728e+06
3.65541e+06
3.6234e+06
3.59124e+06
3.55894e+06
3.52651e+06
3.49396e+06
3.46129e+06
3.42851e+06
3.39561e+06
3.36261e+06
3.32951e+06
3.29629e+06
3.26298e+06
3.22956e+06
3.19605e+06
3.16245e+06
3.12876e+06
3.09498e+06
3.06111e+06
3.02716e+06
2.99314e+06
2.95903e+06
2.92485e+06
2.89061e+06
2.85629e+06
2.82191e+06
2.78747e+06
2.75296e+06
2.71841e+06
2.6838e+06
2.64914e+06
2.61443e+06
2.57968e+06
2.5449e+06
2.51008e+06
2.47522e+06
2.44034e+06
2.40544e+06
2.37051e+06
2.33557e+06
2.30062e+06
2.26566e+06
2.2307e+06
2.19574e+06
2.16078e+06
2.12584e+06
2.09091e+06
2.056e+06
2.02111e+06
1.98625e+06
1.95143e+06
1.91665e+06
1.88192e+06
1.84723e+06
1.8126e+06
1.77803e+06
1.74353e+06
1.7091e+06
1.67476e+06
1.64049e+06
1.60632e+06
1.57225e+06
1.53828e+06
1.50442e+06
1.47068e+06
1.43707e+06
1.40359e+06
1.37024e+06
1.33705e+06
1.304e+06
1.27112e+06
1.23841e+06
1.20588e+06
1.17354e+06
1.14139e+06
1.10944e+06
1.07772e+06
1.04621e+06
1.01494e+06
983919
953153
922657
892444
862530
832929
803660
774738
746179
717990
690151
5.43313e+06
5.43259e+06
5.43155e+06
5.42999e+06
5.42791e+06
5.42528e+06
5.42212e+06
5.4184e+06
5.41414e+06
5.40931e+06
5.40393e+06
5.39798e+06
5.39147e+06
5.38439e+06
5.37675e+06
5.36855e+06
5.35979e+06
5.35049e+06
5.34064e+06
5.33026e+06
5.31934e+06
5.30791e+06
5.29596e+06
5.2835e+06
5.27055e+06
5.25711e+06
5.2432e+06
5.22882e+06
5.21397e+06
5.19868e+06
5.18294e+06
5.16676e+06
5.15015e+06
5.13313e+06
5.1157e+06
5.09787e+06
5.07965e+06
5.06103e+06
5.04204e+06
5.02266e+06
5.00291e+06
4.98278e+06
4.96228e+06
4.9414e+06
4.92014e+06
4.89851e+06
4.87652e+06
4.85416e+06
4.83147e+06
4.80844e+06
4.78511e+06
4.76149e+06
4.73758e+06
4.71339e+06
4.68894e+06
4.66422e+06
4.63925e+06
4.61401e+06
4.58852e+06
4.56278e+06
4.53679e+06
4.51055e+06
4.48406e+06
4.45733e+06
4.43036e+06
4.40314e+06
4.37567e+06
4.34796e+06
4.32e+06
4.2918e+06
4.26336e+06
4.2347e+06
4.2058e+06
4.1767e+06
4.14739e+06
4.11789e+06
4.08821e+06
4.05835e+06
4.02832e+06
3.99813e+06
3.96777e+06
3.93726e+06
3.9066e+06
3.87577e+06
3.84479e+06
3.81366e+06
3.78237e+06
3.75093e+06
3.71935e+06
3.68761e+06
3.65573e+06
3.6237e+06
3.59152e+06
3.5592e+06
3.52675e+06
3.49417e+06
3.46149e+06
3.42869e+06
3.39578e+06
3.36276e+06
3.32964e+06
3.29642e+06
3.26309e+06
3.22967e+06
3.19615e+06
3.16254e+06
3.12884e+06
3.09505e+06
3.06118e+06
3.02722e+06
2.99319e+06
2.95908e+06
2.9249e+06
2.89065e+06
2.85633e+06
2.82194e+06
2.7875e+06
2.75299e+06
2.71843e+06
2.68382e+06
2.64916e+06
2.61445e+06
2.5797e+06
2.54491e+06
2.51009e+06
2.47524e+06
2.44035e+06
2.40545e+06
2.37052e+06
2.33558e+06
2.30063e+06
2.26567e+06
2.23071e+06
2.19574e+06
2.16079e+06
2.12584e+06
2.09091e+06
2.056e+06
2.02111e+06
1.98626e+06
1.95144e+06
1.91665e+06
1.88192e+06
1.84723e+06
1.8126e+06
1.77803e+06
1.74353e+06
1.70911e+06
1.67476e+06
1.6405e+06
1.60632e+06
1.57225e+06
1.53828e+06
1.50442e+06
1.47068e+06
1.43707e+06
1.40359e+06
1.37024e+06
1.33704e+06
1.304e+06
1.27112e+06
1.23841e+06
1.20588e+06
1.17353e+06
1.14138e+06
1.10944e+06
1.0777e+06
1.0462e+06
1.01492e+06
983893
953120
922615
892391
862460
832838
803538
774575
745959
717690
689746
5.44978e+06
5.4492e+06
5.44808e+06
5.44643e+06
5.44421e+06
5.44144e+06
5.4381e+06
5.43419e+06
5.4297e+06
5.42463e+06
5.41899e+06
5.41276e+06
5.40596e+06
5.39857e+06
5.39061e+06
5.38208e+06
5.37299e+06
5.36334e+06
5.35314e+06
5.3424e+06
5.33112e+06
5.31932e+06
5.307e+06
5.29418e+06
5.28087e+06
5.26707e+06
5.2528e+06
5.23806e+06
5.22288e+06
5.20724e+06
5.19117e+06
5.17467e+06
5.15775e+06
5.14043e+06
5.12271e+06
5.1046e+06
5.08611e+06
5.06724e+06
5.04801e+06
5.0284e+06
5.00842e+06
4.98808e+06
4.96736e+06
4.94627e+06
4.9248e+06
4.90296e+06
4.88074e+06
4.85817e+06
4.83527e+06
4.81204e+06
4.7885e+06
4.76469e+06
4.7406e+06
4.71625e+06
4.69165e+06
4.66679e+06
4.64169e+06
4.61633e+06
4.59073e+06
4.56488e+06
4.53879e+06
4.51246e+06
4.48588e+06
4.45907e+06
4.43201e+06
4.40471e+06
4.37717e+06
4.34938e+06
4.32135e+06
4.29308e+06
4.26457e+06
4.23582e+06
4.20686e+06
4.17768e+06
4.14831e+06
4.11874e+06
4.089e+06
4.05909e+06
4.02902e+06
3.99879e+06
3.9684e+06
3.93785e+06
3.90715e+06
3.87629e+06
3.84528e+06
3.81412e+06
3.78281e+06
3.75134e+06
3.71973e+06
3.68798e+06
3.65607e+06
3.62402e+06
3.59183e+06
3.55949e+06
3.52701e+06
3.49442e+06
3.46171e+06
3.42889e+06
3.39596e+06
3.36293e+06
3.32979e+06
3.29656e+06
3.26322e+06
3.22979e+06
3.19626e+06
3.16264e+06
3.12893e+06
3.09513e+06
3.06125e+06
3.02729e+06
2.99325e+06
2.95914e+06
2.92495e+06
2.8907e+06
2.85637e+06
2.82198e+06
2.78753e+06
2.75303e+06
2.71846e+06
2.68385e+06
2.64918e+06
2.61447e+06
2.57972e+06
2.54493e+06
2.51011e+06
2.47525e+06
2.44037e+06
2.40546e+06
2.37053e+06
2.33559e+06
2.30064e+06
2.26568e+06
2.23071e+06
2.19575e+06
2.16079e+06
2.12585e+06
2.09092e+06
2.05601e+06
2.02112e+06
1.98626e+06
1.95144e+06
1.91666e+06
1.88192e+06
1.84724e+06
1.81261e+06
1.77804e+06
1.74354e+06
1.70911e+06
1.67476e+06
1.6405e+06
1.60633e+06
1.57225e+06
1.53828e+06
1.50442e+06
1.47068e+06
1.43707e+06
1.40359e+06
1.37024e+06
1.33704e+06
1.304e+06
1.27112e+06
1.23841e+06
1.20587e+06
1.17352e+06
1.14137e+06
1.10942e+06
1.07769e+06
1.04618e+06
1.0149e+06
983866
953085
922570
892332
862385
832740
803410
774406
745734
717391
689356
5.46884e+06
5.46821e+06
5.46701e+06
5.46523e+06
5.46287e+06
5.45991e+06
5.45636e+06
5.4522e+06
5.44744e+06
5.44209e+06
5.43613e+06
5.42957e+06
5.42241e+06
5.41466e+06
5.40633e+06
5.39741e+06
5.38792e+06
5.37786e+06
5.36725e+06
5.35608e+06
5.34438e+06
5.33216e+06
5.31942e+06
5.30617e+06
5.29244e+06
5.27823e+06
5.26355e+06
5.24842e+06
5.23283e+06
5.21682e+06
5.20037e+06
5.18351e+06
5.16624e+06
5.14858e+06
5.13053e+06
5.11211e+06
5.09333e+06
5.07418e+06
5.05467e+06
5.03481e+06
5.01459e+06
4.994e+06
4.97304e+06
4.95171e+06
4.93e+06
4.90792e+06
4.88546e+06
4.86265e+06
4.8395e+06
4.81603e+06
4.79227e+06
4.76824e+06
4.74396e+06
4.71943e+06
4.69466e+06
4.66965e+06
4.6444e+06
4.61891e+06
4.59318e+06
4.56721e+06
4.54101e+06
4.51457e+06
4.48789e+06
4.46098e+06
4.43383e+06
4.40645e+06
4.37882e+06
4.35095e+06
4.32284e+06
4.29448e+06
4.26589e+06
4.23707e+06
4.20803e+06
4.17877e+06
4.14933e+06
4.11969e+06
4.08989e+06
4.05992e+06
4.0298e+06
3.99952e+06
3.96909e+06
3.93851e+06
3.90777e+06
3.87688e+06
3.84584e+06
3.81464e+06
3.7833e+06
3.7518e+06
3.72016e+06
3.68838e+06
3.65645e+06
3.62438e+06
3.59216e+06
3.5598e+06
3.5273e+06
3.49468e+06
3.46195e+06
3.42911e+06
3.39616e+06
3.36312e+06
3.32996e+06
3.29671e+06
3.26336e+06
3.22991e+06
3.19638e+06
3.16274e+06
3.12903e+06
3.09522e+06
3.06134e+06
3.02737e+06
2.99332e+06
2.9592e+06
2.92501e+06
2.89075e+06
2.85642e+06
2.82203e+06
2.78757e+06
2.75306e+06
2.7185e+06
2.68388e+06
2.64921e+06
2.6145e+06
2.57975e+06
2.54495e+06
2.51013e+06
2.47527e+06
2.44038e+06
2.40548e+06
2.37055e+06
2.3356e+06
2.30065e+06
2.26569e+06
2.23072e+06
2.19576e+06
2.1608e+06
2.12585e+06
2.09092e+06
2.05601e+06
2.02112e+06
1.98627e+06
1.95144e+06
1.91666e+06
1.88193e+06
1.84724e+06
1.81261e+06
1.77804e+06
1.74354e+06
1.70911e+06
1.67476e+06
1.6405e+06
1.60633e+06
1.57225e+06
1.53828e+06
1.50442e+06
1.47068e+06
1.43707e+06
1.40358e+06
1.37024e+06
1.33704e+06
1.304e+06
1.27111e+06
1.2384e+06
1.20587e+06
1.17352e+06
1.14136e+06
1.10941e+06
1.07768e+06
1.04616e+06
1.01488e+06
983836
953047
922522
892271
862305
832637
803277
774233
745508
717098
688983
5.49048e+06
5.48979e+06
5.48849e+06
5.48656e+06
5.48402e+06
5.48084e+06
5.47703e+06
5.47259e+06
5.46751e+06
5.4618e+06
5.45547e+06
5.44851e+06
5.44094e+06
5.43275e+06
5.42397e+06
5.41459e+06
5.40463e+06
5.3941e+06
5.383e+06
5.37135e+06
5.35916e+06
5.34644e+06
5.33321e+06
5.31949e+06
5.30527e+06
5.29059e+06
5.27545e+06
5.25986e+06
5.24383e+06
5.22738e+06
5.21051e+06
5.19325e+06
5.17559e+06
5.15755e+06
5.13915e+06
5.12039e+06
5.10127e+06
5.08181e+06
5.062e+06
5.04185e+06
5.02134e+06
5.00048e+06
4.97926e+06
4.95766e+06
4.93568e+06
4.91333e+06
4.8906e+06
4.86753e+06
4.84412e+06
4.8204e+06
4.7964e+06
4.77214e+06
4.74764e+06
4.72291e+06
4.69795e+06
4.67277e+06
4.64736e+06
4.62172e+06
4.59585e+06
4.56975e+06
4.54342e+06
4.51686e+06
4.49007e+06
4.46305e+06
4.43581e+06
4.40832e+06
4.3806e+06
4.35264e+06
4.32444e+06
4.296e+06
4.26732e+06
4.23841e+06
4.20929e+06
4.17995e+06
4.15043e+06
4.12072e+06
4.09085e+06
4.06083e+06
4.03066e+06
4.00034e+06
3.96986e+06
3.93924e+06
3.90847e+06
3.87754e+06
3.84645e+06
3.81522e+06
3.78384e+06
3.75231e+06
3.72064e+06
3.68882e+06
3.65687e+06
3.62477e+06
3.59253e+06
3.56014e+06
3.52762e+06
3.49497e+06
3.46222e+06
3.42935e+06
3.39639e+06
3.36332e+06
3.33015e+06
3.29688e+06
3.26352e+06
3.23006e+06
3.19651e+06
3.16286e+06
3.12914e+06
3.09532e+06
3.06143e+06
3.02745e+06
2.9934e+06
2.95927e+06
2.92508e+06
2.89081e+06
2.85647e+06
2.82208e+06
2.78762e+06
2.7531e+06
2.71853e+06
2.68391e+06
2.64924e+06
2.61453e+06
2.57977e+06
2.54498e+06
2.51015e+06
2.47529e+06
2.4404e+06
2.40549e+06
2.37056e+06
2.33562e+06
2.30066e+06
2.2657e+06
2.23073e+06
2.19577e+06
2.16081e+06
2.12586e+06
2.09093e+06
2.05602e+06
2.02113e+06
1.98627e+06
1.95145e+06
1.91667e+06
1.88193e+06
1.84724e+06
1.81261e+06
1.77804e+06
1.74354e+06
1.70911e+06
1.67476e+06
1.6405e+06
1.60633e+06
1.57225e+06
1.53828e+06
1.50443e+06
1.47068e+06
1.43707e+06
1.40358e+06
1.37024e+06
1.33704e+06
1.30399e+06
1.27111e+06
1.2384e+06
1.20586e+06
1.17351e+06
1.14135e+06
1.1094e+06
1.07766e+06
1.04614e+06
1.01485e+06
983805
953008
922471
892206
862223
832532
803141
774058