/*--------------------------------*- C++ -*----------------------------------*\
  =========                 |
  \\      /  F ield         | OpenFOAM: The Open Source CFD Toolbox
   \\    /   O peration     | Website:  https://openfoam.org
    \\  /    A nd           | Version:  10
     \\/     M anipulation  |
\*---------------------------------------------------------------------------*/
FoamFile
{
    format      ascii;
    class       surfaceScalarField;
    location    "16700";
    object      phi;
}
// * * * * * * * * * * * * * * * * * * * * * * * * * * * * * * * * * * * * * //

dimensions      [0 3 -1 0 0 0 0];

internalField   nonuniform List<scalar> 
12640
(
-2.41476e-08
2.41476e-08
-4.88677e-08
2.47201e-08
-7.48034e-08
2.59358e-08
-1.02763e-07
2.79591e-08
-1.33871e-07
3.1108e-08
-1.69867e-07
3.59967e-08
-2.13765e-07
4.38975e-08
-2.71493e-07
5.77287e-08
-3.55063e-07
8.35698e-08
-4.21582e-07
6.65191e-08
-2.67765e-06
2.25607e-06
-3.13697e-06
4.59321e-07
-3.55252e-06
4.15547e-07
-3.50951e-06
-4.30136e-08
-3.36957e-06
-1.39935e-07
-3.69271e-06
3.23135e-07
-3.67819e-06
-1.45205e-08
-3.60329e-06
-7.48936e-08
-3.56574e-06
-3.75572e-08
-3.61587e-06
5.01301e-08
-3.59537e-06
-2.04963e-08
-3.54766e-06
-4.77071e-08
-3.44182e-06
-1.05846e-07
-3.38246e-06
-5.9359e-08
-3.34707e-06
-3.53905e-08
-3.30962e-06
-3.74449e-08
-3.27716e-06
-3.24639e-08
-3.241e-06
-3.61631e-08
-3.18766e-06
-5.33367e-08
-3.12495e-06
-6.27071e-08
-3.0248e-06
-1.00148e-07
-2.82864e-06
-1.96165e-07
-2.68813e-06
-1.40506e-07
-2.50345e-06
-1.8468e-07
-2.26103e-06
-2.42427e-07
-1.948e-06
-3.13026e-07
-1.55679e-06
-3.91209e-07
-1.0898e-06
-4.66995e-07
-5.61942e-07
-5.27854e-07
-3.8273e-17
-5.61942e-07
5.61942e-07
-5.61942e-07
1.0898e-06
-5.27854e-07
1.55679e-06
-4.66995e-07
1.948e-06
-3.91209e-07
2.26103e-06
-3.13026e-07
2.50345e-06
-2.42427e-07
2.68813e-06
-1.8468e-07
2.82864e-06
-1.40506e-07
3.0248e-06
-1.96165e-07
3.12495e-06
-1.00148e-07
3.18766e-06
-6.27071e-08
3.241e-06
-5.33367e-08
3.27716e-06
-3.61631e-08
3.30962e-06
-3.24639e-08
3.34707e-06
-3.74449e-08
3.38246e-06
-3.53905e-08
3.44182e-06
-5.9359e-08
3.54766e-06
-1.05846e-07
3.59537e-06
-4.77071e-08
3.61587e-06
-2.04963e-08
3.56574e-06
5.01301e-08
3.60329e-06
-3.75572e-08
3.67819e-06
-7.48936e-08
3.69271e-06
-1.45205e-08
3.36957e-06
3.23135e-07
3.50951e-06
-1.39935e-07
3.55252e-06
-4.30136e-08
3.13697e-06
4.15547e-07
2.67765e-06
4.59321e-07
4.21582e-07
2.25607e-06
3.55063e-07
6.65191e-08
2.71493e-07
8.35698e-08
2.13765e-07
5.77287e-08
1.69867e-07
4.38975e-08
1.33871e-07
3.59967e-08
1.02763e-07
3.1108e-08
7.48034e-08
2.79591e-08
4.88677e-08
2.59358e-08
2.41476e-08
2.47201e-08
2.41476e-08
-2.64585e-08
5.06061e-08
-5.35415e-08
5.18031e-08
-8.19502e-08
5.43444e-08
-1.12563e-07
5.85719e-08
-1.466e-07
6.51454e-08
-1.85939e-07
7.53357e-08
-2.33805e-07
9.17636e-08
-2.96553e-07
1.20476e-07
-3.90252e-07
1.77269e-07
-6.39048e-07
3.15315e-07
-2.94012e-07
1.91103e-06
-1.04772e-06
1.21303e-06
-3.55801e-06
2.92584e-06
-3.65522e-06
5.41934e-08
-3.52611e-06
-2.69043e-07
-3.92548e-06
7.22507e-07
-3.91018e-06
-2.98217e-08
-3.83435e-06
-1.5072e-07
-3.79813e-06
-7.37814e-08
-3.86376e-06
1.1576e-07
-3.84365e-06
-4.06095e-08
-3.79721e-06
-9.41429e-08
-3.68152e-06
-2.21535e-07
-3.62114e-06
-1.19736e-07
-3.58625e-06
-7.02833e-08
-3.54732e-06
-7.63783e-08
-3.51425e-06
-6.55315e-08
-3.47725e-06
-7.31608e-08
-3.42066e-06
-1.0993e-07
-3.35557e-06
-1.278e-07
-3.25156e-06
-2.04151e-07
-3.04481e-06
-4.02918e-07
-2.89685e-06
-2.88469e-07
-2.70192e-06
-3.79609e-07
-2.44475e-06
-4.99596e-07
-2.11046e-06
-6.47315e-07
-1.6898e-06
-8.11867e-07
-1.18476e-06
-9.72031e-07
-6.11554e-07
-1.10106e-06
-4.04678e-17
-1.1735e-06
6.11554e-07
-1.1735e-06
1.18476e-06
-1.10106e-06
1.6898e-06
-9.72031e-07
2.11046e-06
-8.11867e-07
2.44475e-06
-6.47315e-07
2.70192e-06
-4.99596e-07
2.89685e-06
-3.79609e-07
3.04481e-06
-2.88469e-07
3.25156e-06
-4.02918e-07
3.35557e-06
-2.04151e-07
3.42066e-06
-1.278e-07
3.47725e-06
-1.0993e-07
3.51425e-06
-7.31608e-08
3.54732e-06
-6.55315e-08
3.58625e-06
-7.63783e-08
3.62114e-06
-7.02833e-08
3.68152e-06
-1.19736e-07
3.79721e-06
-2.21535e-07
3.84365e-06
-9.41429e-08
3.86376e-06
-4.06095e-08
3.79813e-06
1.1576e-07
3.83435e-06
-7.37814e-08
3.91018e-06
-1.5072e-07
3.92548e-06
-2.98217e-08
3.52611e-06
7.22507e-07
3.65522e-06
-2.69043e-07
3.55801e-06
5.41934e-08
1.04772e-06
2.92584e-06
2.94012e-07
1.21303e-06
6.39048e-07
1.91103e-06
3.90252e-07
3.15315e-07
2.96553e-07
1.77269e-07
2.33805e-07
1.20476e-07
1.85939e-07
9.17636e-08
1.466e-07
7.53357e-08
1.12563e-07
6.51454e-08
8.19502e-08
5.85719e-08
5.35415e-08
5.43444e-08
2.64585e-08
5.18031e-08
5.06061e-08
-2.8952e-08
7.95581e-08
-5.85804e-08
8.14316e-08
-8.96433e-08
8.54073e-08
-1.23086e-07
9.20146e-08
-1.60212e-07
1.02272e-07
-2.03004e-07
1.18127e-07
-2.54802e-07
1.43562e-07
-3.2202e-07
1.87694e-07
-4.20148e-07
2.75397e-07
-6.09714e-07
5.0488e-07
-3.73265e-07
1.67459e-06
-5.65169e-07
1.40493e-06
-2.14196e-07
2.57486e-06
-3.0696e-06
2.9096e-06
-3.5895e-06
2.50854e-07
-4.19257e-06
1.32558e-06
-4.17315e-06
-4.92357e-08
-4.0965e-06
-2.27377e-07
-4.06072e-06
-1.09556e-07
-4.15694e-06
2.11978e-07
-4.13408e-06
-6.34688e-08
-4.09178e-06
-1.36441e-07
-3.95681e-06
-3.56505e-07
-3.89689e-06
-1.79654e-07
-3.86418e-06
-1.03e-07
-3.82266e-06
-1.17891e-07
-3.78926e-06
-9.89318e-08
-3.75204e-06
-1.10385e-07
-3.69077e-06
-1.71198e-07
-3.62461e-06
-1.93962e-07
-3.51994e-06
-3.0882e-07
-3.3053e-06
-6.17564e-07
-3.15259e-06
-4.41173e-07
-2.95058e-06
-5.81618e-07
-2.68103e-06
-7.69153e-07
-2.32506e-06
-1.00328e-06
-1.86976e-06
-1.26716e-06
-1.31573e-06
-1.52606e-06
-6.80817e-07
-1.73598e-06
-2.39131e-17
-1.85431e-06
6.80817e-07
-1.85431e-06
1.31573e-06
-1.73598e-06
1.86976e-06
-1.52606e-06
2.32506e-06
-1.26716e-06
2.68103e-06
-1.00328e-06
2.95058e-06
-7.69153e-07
3.15259e-06
-5.81618e-07
3.3053e-06
-4.41173e-07
3.51994e-06
-6.17564e-07
3.62461e-06
-3.0882e-07
3.69077e-06
-1.93962e-07
3.75204e-06
-1.71198e-07
3.78926e-06
-1.10385e-07
3.82266e-06
-9.89318e-08
3.86418e-06
-1.17891e-07
3.89689e-06
-1.03e-07
3.95681e-06
-1.79654e-07
4.09178e-06
-3.56505e-07
4.13408e-06
-1.36441e-07
4.15694e-06
-6.34688e-08
4.06072e-06
2.11978e-07
4.0965e-06
-1.09556e-07
4.17315e-06
-2.27377e-07
4.19257e-06
-4.92357e-08
3.5895e-06
1.32558e-06
3.0696e-06
2.50854e-07
2.14196e-07
2.9096e-06
5.65169e-07
2.57486e-06
3.73265e-07
1.40493e-06
6.09714e-07
1.67459e-06
4.20148e-07
5.0488e-07
3.2202e-07
2.75397e-07
2.54802e-07
1.87694e-07
2.03004e-07
1.43562e-07
1.60212e-07
1.18127e-07
1.23086e-07
1.02272e-07
8.96433e-08
9.20146e-08
5.85804e-08
8.54073e-08
2.8952e-08
8.14316e-08
7.95581e-08
-3.16264e-08
1.11185e-07
-6.39791e-08
1.13784e-07
-9.78687e-08
1.19297e-07
-1.34299e-07
1.28444e-07
-1.74635e-07
1.42608e-07
-2.20911e-07
1.64403e-07
-2.76439e-07
1.9909e-07
-3.47169e-07
2.58425e-07
-4.45049e-07
3.73276e-07
-5.88316e-07
6.48147e-07
-4.27949e-07
1.51422e-06
-5.39445e-07
1.51643e-06
-3.26526e-07
2.36194e-06
4.18462e-08
2.54123e-06
-4.33343e-07
7.26043e-07
-4.1388e-06
5.03103e-06
-4.36758e-06
1.79545e-07
-4.34741e-06
-2.4755e-07
-4.32599e-06
-1.30976e-07
-4.48476e-06
3.70749e-07
-4.45508e-06
-9.31409e-08
-4.42517e-06
-1.66359e-07
-4.25607e-06
-5.25604e-07
-4.20109e-06
-2.34632e-07
-4.17415e-06
-1.29935e-07
-4.12863e-06
-1.6342e-07
-4.09594e-06
-1.31614e-07
-4.06017e-06
-1.4616e-07
-3.99217e-06
-2.39193e-07
-3.92766e-06
-2.58475e-07
-3.82829e-06
-4.08192e-07
-3.61085e-06
-8.34999e-07
-3.45889e-06
-5.93137e-07
-3.25671e-06
-7.83794e-07
-2.98124e-06
-1.04462e-06
-2.60643e-06
-1.37809e-06
-2.11216e-06
-1.76144e-06
-1.49588e-06
-2.14233e-06
-7.77363e-07
-2.4545e-06
-1.60605e-18
-2.63168e-06
7.77363e-07
-2.63168e-06
1.49588e-06
-2.4545e-06
2.11216e-06
-2.14233e-06
2.60643e-06
-1.76144e-06
2.98124e-06
-1.37809e-06
3.25671e-06
-1.04462e-06
3.45889e-06
-7.83794e-07
3.61085e-06
-5.93137e-07
3.82829e-06
-8.34999e-07
3.92766e-06
-4.08192e-07
3.99217e-06
-2.58475e-07
4.06017e-06
-2.39193e-07
4.09594e-06
-1.4616e-07
4.12863e-06
-1.31614e-07
4.17415e-06
-1.6342e-07
4.20109e-06
-1.29935e-07
4.25607e-06
-2.34632e-07
4.42517e-06
-5.25604e-07
4.45508e-06
-1.66359e-07
4.48476e-06
-9.31409e-08
4.32599e-06
3.70749e-07
4.34741e-06
-1.30976e-07
4.36758e-06
-2.4755e-07
4.1388e-06
1.79545e-07
4.33343e-07
5.03103e-06
-4.18462e-08
7.26043e-07
3.26526e-07
2.54123e-06
5.39445e-07
2.36194e-06
4.27949e-07
1.51643e-06
5.88316e-07
1.51422e-06
4.45049e-07
6.48147e-07
3.47169e-07
3.73276e-07
2.76439e-07
2.58425e-07
2.20911e-07
1.9909e-07
1.74635e-07
1.64403e-07
1.34299e-07
1.42608e-07
9.78687e-08
1.28444e-07
6.39791e-08
1.19297e-07
3.16264e-08
1.13784e-07
1.11185e-07
-3.44736e-08
1.45658e-07
-6.97178e-08
1.49029e-07
-1.06588e-07
1.56167e-07
-1.4613e-07
1.67987e-07
-1.89741e-07
1.86218e-07
-2.39431e-07
2.14093e-07
-2.98297e-07
2.57956e-07
-3.71283e-07
3.31411e-07
-4.65402e-07
4.67395e-07
-5.73634e-07
7.56379e-07
-4.69202e-07
1.40979e-06
-5.21732e-07
1.56896e-06
-3.4331e-07
2.18352e-06
-1.04168e-07
2.30208e-06
-7.46017e-07
1.36789e-06
3.90854e-07
3.89416e-06
-7.1722e-07
1.28762e-06
-4.16237e-06
3.1976e-06
-4.46995e-06
1.7661e-07
-4.81363e-06
7.14428e-07
-4.78589e-06
-1.20885e-07
-4.79441e-06
-1.57837e-07
-4.5674e-06
-7.52617e-07
-4.52913e-06
-2.72895e-07
-4.51509e-06
-1.43976e-07
-4.46297e-06
-2.15547e-07
-4.43328e-06
-1.61299e-07
-4.40242e-06
-1.77016e-07
-4.32374e-06
-3.17875e-07
-4.26547e-06
-3.16748e-07
-4.18128e-06
-4.92378e-07
-3.96788e-06
-1.0484e-06
-3.82591e-06
-7.35103e-07
-3.6362e-06
-9.73508e-07
-3.36808e-06
-1.31275e-06
-2.98284e-06
-1.76332e-06
-2.44641e-06
-2.29788e-06
-1.75027e-06
-2.83847e-06
-9.15752e-07
-3.28902e-06
-1.36982e-18
-3.54743e-06
9.15752e-07
-3.54743e-06
1.75027e-06
-3.28902e-06
2.44641e-06
-2.83847e-06
2.98284e-06
-2.29788e-06
3.36808e-06
-1.76332e-06
3.6362e-06
-1.31275e-06
3.82591e-06
-9.73508e-07
3.96788e-06
-7.35103e-07
4.18128e-06
-1.0484e-06
4.26547e-06
-4.92378e-07
4.32374e-06
-3.16748e-07
4.40242e-06
-3.17875e-07
4.43328e-06
-1.77016e-07
4.46297e-06
-1.61299e-07
4.51509e-06
-2.15547e-07
4.52913e-06
-1.43976e-07
4.5674e-06
-2.72895e-07
4.79441e-06
-7.52617e-07
4.78589e-06
-1.57837e-07
4.81363e-06
-1.20885e-07
4.46995e-06
7.14428e-07
4.16237e-06
1.7661e-07
7.1722e-07
3.1976e-06
-3.90854e-07
1.28762e-06
7.46017e-07
3.89416e-06
1.04168e-07
1.36789e-06
3.4331e-07
2.30208e-06
5.21732e-07
2.18352e-06
4.69202e-07
1.56896e-06
5.73634e-07
1.40979e-06
4.65402e-07
7.56379e-07
3.71283e-07
4.67395e-07
2.98297e-07
3.31411e-07
2.39431e-07
2.57956e-07
1.89741e-07
2.14093e-07
1.4613e-07
1.86218e-07
1.06588e-07
1.67987e-07
6.97178e-08
1.56167e-07
3.44736e-08
1.49029e-07
1.45658e-07
-3.7476e-08
1.83134e-07
-7.57578e-08
1.8731e-07
-1.15732e-07
1.96142e-07
-1.58465e-07
2.1072e-07
-2.05338e-07
2.33091e-07
-2.58248e-07
2.67004e-07
-3.19869e-07
3.19577e-07
-3.93699e-07
4.05241e-07
-4.81705e-07
5.55401e-07
-5.64148e-07
8.38823e-07
-4.98792e-07
1.34443e-06
-5.11088e-07
1.58126e-06
-3.64752e-07
2.03719e-06
-2.07225e-07
2.14456e-06
-5.66836e-07
1.7275e-06
1.72221e-07
3.1551e-06
-2.82748e-07
1.74259e-06
2.64044e-07
2.65081e-06
-5.53695e-07
9.94348e-07
-4.58046e-06
4.7412e-06
-4.91795e-06
2.16604e-07
-5.14451e-06
6.87255e-08
-4.84913e-06
-1.048e-06
-4.86732e-06
-2.54705e-07
-4.884e-06
-1.273e-07
-4.82166e-06
-2.7789e-07
-4.80047e-06
-1.82489e-07
-4.78202e-06
-1.95463e-07
-4.6843e-06
-4.15592e-07
-4.63989e-06
-3.6116e-07
-4.58717e-06
-5.45102e-07
-4.38412e-06
-1.25145e-06
-4.26689e-06
-8.52336e-07
-4.11185e-06
-1.12854e-06
-3.87704e-06
-1.54756e-06
-3.50154e-06
-2.13882e-06
-2.92307e-06
-2.87634e-06
-2.12334e-06
-3.6382e-06
-1.12228e-06
-4.29008e-06
-1.85978e-17
-4.66971e-06
1.12228e-06
-4.66971e-06
2.12334e-06
-4.29008e-06
2.92307e-06
-3.6382e-06
3.50154e-06
-2.87634e-06
3.87704e-06
-2.13882e-06
4.11185e-06
-1.54756e-06
4.26689e-06
-1.12854e-06
4.38412e-06
-8.52336e-07
4.58717e-06
-1.25145e-06
4.63989e-06
-5.45102e-07
4.6843e-06
-3.6116e-07
4.78202e-06
-4.15592e-07
4.80047e-06
-1.95463e-07
4.82166e-06
-1.82489e-07
4.884e-06
-2.7789e-07
4.86732e-06
-1.273e-07
4.84913e-06
-2.54705e-07
5.14451e-06
-1.048e-06
4.91795e-06
6.87255e-08
4.58046e-06
2.16604e-07
5.53695e-07
4.7412e-06
-2.64044e-07
9.94348e-07
2.82748e-07
2.65081e-06
-1.72221e-07
1.74259e-06
5.66836e-07
3.1551e-06
2.07225e-07
1.7275e-06
3.64752e-07
2.14456e-06
5.11088e-07
2.03719e-06
4.98792e-07
1.58126e-06
5.64148e-07
1.34443e-06
4.81705e-07
8.38823e-07
3.93699e-07
5.55401e-07
3.19869e-07
4.05241e-07
2.58248e-07
3.19577e-07
2.05338e-07
2.67004e-07
1.58465e-07
2.33091e-07
1.15732e-07
2.1072e-07
7.57578e-08
1.96142e-07
3.7476e-08
1.8731e-07
1.83134e-07
-4.06046e-08
2.23739e-07
-8.20358e-08
2.28742e-07
-1.25193e-07
2.39298e-07
-1.7113e-07
2.56657e-07
-2.2116e-07
2.83121e-07
-2.76959e-07
3.22803e-07
-3.40584e-07
3.83202e-07
-4.13841e-07
4.78498e-07
-4.94413e-07
6.35973e-07
-5.58238e-07
9.02648e-07
-5.18733e-07
1.30493e-06
-5.05987e-07
1.56851e-06
-3.87214e-07
1.91841e-06
-2.77221e-07
2.03456e-06
-4.508e-07
1.90108e-06
1.97826e-08
2.68452e-06
-2.01389e-07
1.96376e-06
9.13956e-08
2.35802e-06
-5.25447e-07
1.61119e-06
6.74375e-07
3.54137e-06
-3.38346e-07
1.22932e-06
-3.20546e-06
2.93584e-06
-4.67381e-06
4.20352e-07
-5.07153e-06
1.43016e-07
-5.23341e-06
3.45829e-08
-5.17803e-06
-3.33272e-07
-5.18725e-06
-1.73269e-07
-5.20175e-06
-1.80964e-07
-5.06814e-06
-5.49198e-07
-5.05143e-06
-3.77875e-07
-5.0583e-06
-5.38232e-07
-4.86437e-06
-1.44537e-06
-4.79427e-06
-9.22436e-07
-4.71248e-06
-1.21034e-06
-4.56188e-06
-1.69816e-06
-4.243e-06
-2.4577e-06
-3.63041e-06
-3.48893e-06
-2.6968e-06
-4.57181e-06
-1.44659e-06
-5.54029e-06
-1.20292e-17
-6.11631e-06
1.44659e-06
-6.11631e-06
2.6968e-06
-5.54029e-06
3.63041e-06
-4.57181e-06
4.243e-06
-3.48893e-06
4.56188e-06
-2.4577e-06
4.71248e-06
-1.69816e-06
4.79427e-06
-1.21034e-06
4.86437e-06
-9.22436e-07
5.0583e-06
-1.44537e-06
5.05143e-06
-5.38232e-07
5.06814e-06
-3.77875e-07
5.20175e-06
-5.49198e-07
5.18725e-06
-1.80964e-07
5.17803e-06
-1.73269e-07
5.23341e-06
-3.33272e-07
5.07153e-06
3.45829e-08
4.67381e-06
1.43016e-07
3.20546e-06
4.20352e-07
3.38346e-07
2.93584e-06
-6.74375e-07
1.22932e-06
5.25447e-07
3.54137e-06
-9.13956e-08
1.61119e-06
2.01389e-07
2.35802e-06
-1.97826e-08
1.96376e-06
4.508e-07
2.68452e-06
2.77221e-07
1.90108e-06
3.87214e-07
2.03456e-06
5.05987e-07
1.91841e-06
5.18733e-07
1.56851e-06
5.58238e-07
1.30493e-06
4.94413e-07
9.02648e-07
4.13841e-07
6.35973e-07
3.40584e-07
4.78498e-07
2.76959e-07
3.83202e-07
2.2116e-07
3.22803e-07
1.7113e-07
2.83121e-07
1.25193e-07
2.56657e-07
8.20358e-08
2.39298e-07
4.06046e-08
2.28742e-07
2.23739e-07
-4.38156e-08
2.67554e-07
-8.84584e-08
2.73384e-07
-1.34814e-07
2.85654e-07
-1.83888e-07
3.05731e-07
-2.36858e-07
3.36091e-07
-2.95076e-07
3.81021e-07
-3.59835e-07
4.47961e-07
-4.3123e-07
5.49892e-07
-5.03875e-07
7.08618e-07
-5.54348e-07
9.53121e-07
-5.30995e-07
1.28157e-06
-5.04582e-07
1.5421e-06
-4.07977e-07
1.82181e-06
-3.23288e-07
1.94987e-06
-3.81609e-07
1.9594e-06
-8.21146e-08
2.38502e-06
-1.64101e-07
2.04575e-06
-7.32293e-09
2.20124e-06
-2.98315e-07
1.90218e-06
4.06661e-07
2.8364e-06
-4.08092e-08
1.67679e-06
5.67008e-07
2.32802e-06
5.5991e-08
9.31369e-07
-6.46814e-07
8.45821e-07
-4.50905e-06
3.89682e-06
-5.1319e-06
2.89582e-07
-5.43052e-06
1.25347e-07
-5.61574e-06
4.25598e-09
-5.43842e-06
-7.26515e-07
-5.48795e-06
-3.28347e-07
-5.61172e-06
-4.1446e-07
-5.39948e-06
-1.65761e-06
-5.40878e-06
-9.13141e-07
-5.46612e-06
-1.153e-06
-5.50076e-06
-1.66352e-06
-5.35272e-06
-2.60573e-06
-4.72605e-06
-4.11561e-06
-3.63049e-06
-5.66738e-06
-1.98877e-06
-7.182e-06
-7.60983e-18
-8.10508e-06
1.98877e-06
-8.10508e-06
3.63049e-06
-7.182e-06
4.72605e-06
-5.66738e-06
5.35272e-06
-4.11561e-06
5.50076e-06
-2.60573e-06
5.46612e-06
-1.66352e-06
5.40878e-06
-1.153e-06
5.39948e-06
-9.13141e-07
5.61172e-06
-1.65761e-06
5.48795e-06
-4.1446e-07
5.43842e-06
-3.28347e-07
5.61574e-06
-7.26515e-07
5.43052e-06
4.25598e-09
5.1319e-06
1.25347e-07
4.50905e-06
2.89582e-07
6.46814e-07
3.89682e-06
-5.5991e-08
8.45821e-07
-5.67008e-07
9.31369e-07
4.08092e-08
2.32802e-06
-4.06661e-07
1.67679e-06
2.98315e-07
2.8364e-06
7.32293e-09
1.90218e-06
1.64101e-07
2.20124e-06
8.21146e-08
2.04575e-06
3.81609e-07
2.38502e-06
3.23288e-07
1.9594e-06
4.07977e-07
1.94987e-06
5.04582e-07
1.82181e-06
5.30995e-07
1.5421e-06
5.54348e-07
1.28157e-06
5.03875e-07
9.53121e-07
4.3123e-07
7.08618e-07
3.59835e-07
5.49892e-07
2.95076e-07
4.47961e-07
2.36858e-07
3.81021e-07
1.83888e-07
3.36091e-07
1.34814e-07
3.05731e-07
8.84584e-08
2.85654e-07
4.38156e-08
2.73384e-07
2.67554e-07
-4.70479e-08
3.14602e-07
-9.48973e-08
3.21234e-07
-1.44389e-07
3.35146e-07
-1.96432e-07
3.57775e-07
-2.52006e-07
3.91665e-07
-3.12048e-07
4.41063e-07
-3.77014e-07
5.12927e-07
-4.45481e-07
6.18359e-07
-5.10296e-07
7.73433e-07
-5.51111e-07
9.93936e-07
-5.37266e-07
1.26773e-06
-5.04972e-07
1.5098e-06
-4.25289e-07
1.74212e-06
-3.52939e-07
1.87752e-06
-3.44809e-07
1.95127e-06
-1.48854e-07
2.18907e-06
-1.53047e-07
2.04994e-06
-5.98515e-08
2.10805e-06
-1.65324e-07
2.00766e-06
2.45107e-07
2.42597e-06
6.80804e-08
1.85382e-06
3.79904e-07
2.0162e-06
4.66083e-08
1.26466e-06
-4.08403e-07
1.30083e-06
7.55848e-07
2.73257e-06
1.05104e-07
9.40326e-07
-6.7888e-07
9.09332e-07
-4.15193e-06
3.47731e-06
-5.22567e-06
3.4722e-07
-5.69042e-06
1.3641e-07
-6.19153e-06
8.66478e-08
-5.90169e-06
-1.94746e-06
-6.04801e-06
-7.6682e-07
-6.35994e-06
-8.41067e-07
-6.78306e-06
-1.24039e-06
-7.12393e-06
-2.26486e-06
-6.4836e-06
-4.75594e-06
-5.265e-06
-6.88599e-06
-2.96715e-06
-9.47985e-06
-1.24412e-17
-1.10722e-05
2.96715e-06
-1.10722e-05
5.265e-06
-9.47985e-06
6.4836e-06
-6.88599e-06
7.12393e-06
-4.75594e-06
6.78306e-06
-2.26486e-06
6.35994e-06
-1.24039e-06
6.04801e-06
-8.41067e-07
5.90169e-06
-7.6682e-07
6.19153e-06
-1.94746e-06
5.69042e-06
8.66478e-08
5.22567e-06
1.3641e-07
4.15193e-06
3.4722e-07
6.7888e-07
3.47731e-06
-1.05104e-07
9.09332e-07
-7.55848e-07
9.40326e-07
4.08403e-07
2.73257e-06
-4.66083e-08
1.30083e-06
-3.79904e-07
1.26466e-06
-6.80804e-08
2.0162e-06
-2.45107e-07
1.85382e-06
1.65324e-07
2.42597e-06
5.98515e-08
2.00766e-06
1.53047e-07
2.10805e-06
1.48854e-07
2.04994e-06
3.44809e-07
2.18907e-06
3.52939e-07
1.95127e-06
4.25289e-07
1.87752e-06
5.04972e-07
1.74212e-06
5.37266e-07
1.5098e-06
5.51111e-07
1.26773e-06
5.10296e-07
9.93936e-07
4.45481e-07
7.73433e-07
3.77014e-07
6.18359e-07
3.12048e-07
5.12927e-07
2.52006e-07
4.41063e-07
1.96432e-07
3.91665e-07
1.44389e-07
3.57775e-07
9.48973e-08
3.35146e-07
4.70479e-08
3.21234e-07
3.14602e-07
-5.0221e-08
3.64823e-07
-1.01186e-07
3.72198e-07
-1.53652e-07
3.87612e-07
-2.08388e-07
4.1251e-07
-2.6611e-07
4.49387e-07
-3.27282e-07
5.02235e-07
-3.91541e-07
5.77187e-07
-4.56288e-07
6.83105e-07
-5.13741e-07
8.30886e-07
-5.47399e-07
1.02759e-06
-5.38826e-07
1.25916e-06
-5.05438e-07
1.47642e-06
-4.38242e-07
1.67493e-06
-3.7174e-07
1.81102e-06
-3.28625e-07
1.90816e-06
-1.92268e-07
2.05271e-06
-1.55753e-07
2.01342e-06
-8.65739e-08
2.03887e-06
-9.41339e-08
2.01522e-06
1.49574e-07
2.18226e-06
1.0852e-07
1.89488e-06
2.60028e-07
1.86469e-06
5.86606e-08
1.46603e-06
-1.49497e-07
1.50899e-06
4.55433e-07
2.12764e-06
1.08826e-07
1.28693e-06
-2.8188e-07
1.30004e-06
7.96964e-07
2.39846e-06
2.49543e-07
8.94641e-07
-3.2429e-07
7.10243e-07
-1.97151e-06
1.73387e-06
-5.03376e-06
1.1148e-06
-5.87776e-06
7.71762e-08
-6.7747e-06
5.58758e-08
-8.0591e-06
4.39998e-08
-1.01319e-05
-1.92041e-07
-9.16203e-06
-5.72582e-06
-8.40321e-06
-7.64481e-06
-4.88841e-06
-1.29947e-05
5.42643e-17
-1.59606e-05
4.88841e-06
-1.59606e-05
8.40321e-06
-1.29947e-05
9.16203e-06
-7.64481e-06
1.01319e-05
-5.72582e-06
8.0591e-06
-1.92041e-07
6.7747e-06
4.39998e-08
5.87776e-06
5.58758e-08
5.03376e-06
7.71762e-08
1.97151e-06
1.1148e-06
3.2429e-07
1.73387e-06
-2.49543e-07
7.10243e-07
-7.96964e-07
8.94641e-07
2.8188e-07
2.39846e-06
-1.08826e-07
1.30004e-06
-4.55433e-07
1.28693e-06
1.49497e-07
2.12764e-06
-5.86606e-08
1.50899e-06
-2.60028e-07
1.46603e-06
-1.0852e-07
1.86469e-06
-1.49574e-07
1.89488e-06
9.41339e-08
2.18226e-06
8.65739e-08
2.01522e-06
1.55753e-07
2.03887e-06
1.92268e-07
2.01342e-06
3.28625e-07
2.05271e-06
3.7174e-07
1.90816e-06
4.38242e-07
1.81102e-06
5.05438e-07
1.67493e-06
5.38826e-07
1.47642e-06
5.47399e-07
1.25916e-06
5.13741e-07
1.02759e-06
4.56288e-07
8.30886e-07
3.91541e-07
6.83105e-07
3.27282e-07
5.77187e-07
2.6611e-07
5.02235e-07
2.08388e-07
4.49387e-07
1.53652e-07
4.1251e-07
1.01186e-07
3.87612e-07
5.0221e-08
3.72198e-07
3.64823e-07
-5.32341e-08
4.18057e-07
-1.07118e-07
4.26082e-07
-1.62286e-07
4.4278e-07
-2.19317e-07
4.69541e-07
-2.78623e-07
5.08693e-07
-3.40175e-07
5.63787e-07
-4.02891e-07
6.39903e-07
-4.63409e-07
7.43624e-07
-5.14155e-07
8.81632e-07
-5.42331e-07
1.05577e-06
-5.36514e-07
1.25334e-06
-5.04595e-07
1.4445e-06
-4.46546e-07
1.61688e-06
-3.83374e-07
1.74785e-06
-3.24193e-07
1.84898e-06
-2.20738e-07
1.94926e-06
-1.64452e-07
1.95714e-06
-1.00888e-07
1.97531e-06
-6.13587e-08
1.97569e-06
9.19883e-08
2.02891e-06
1.11458e-07
1.87541e-06
1.85232e-07
1.79092e-06
7.51131e-08
1.57615e-06
-8.82994e-09
1.59293e-06
2.88703e-07
1.83011e-06
1.22649e-07
1.45299e-06
-3.37155e-08
1.4564e-06
4.9701e-07
1.86774e-06
2.27462e-07
1.16419e-06
-7.93582e-08
1.01706e-06
2.18296e-07
1.43621e-06
1.94219e-07
1.13887e-06
-1.04601e-07
3.75996e-07
-4.7673e-07
4.28005e-07
-1.11239e-06
6.79663e-07
-2.23259e-06
9.28152e-07
-8.08857e-06
1.30157e-07
-1.44123e-05
-1.32105e-06
-8.63206e-06
-1.87749e-05
4.33822e-17
-2.45927e-05
8.63206e-06
-2.45927e-05
1.44123e-05
-1.87749e-05
8.08857e-06
-1.32105e-06
2.23259e-06
1.30157e-07
1.11239e-06
9.28152e-07
4.7673e-07
6.79663e-07
1.04601e-07
4.28005e-07
-1.94219e-07
3.75996e-07
-2.18296e-07
1.13887e-06
7.93582e-08
1.43621e-06
-2.27462e-07
1.01706e-06
-4.9701e-07
1.16419e-06
3.37155e-08
1.86774e-06
-1.22649e-07
1.4564e-06
-2.88703e-07
1.45299e-06
8.82994e-09
1.83011e-06
-7.51131e-08
1.59293e-06
-1.85232e-07
1.57615e-06
-1.11458e-07
1.79092e-06
-9.19883e-08
1.87541e-06
6.13587e-08
2.02891e-06
1.00888e-07
1.97569e-06
1.64452e-07
1.97531e-06
2.20738e-07
1.95714e-06
3.24193e-07
1.94926e-06
3.83374e-07
1.84898e-06
4.46546e-07
1.74785e-06
5.04595e-07
1.61688e-06
5.36514e-07
1.4445e-06
5.42331e-07
1.25334e-06
5.14155e-07
1.05577e-06
4.63409e-07
8.81632e-07
4.02891e-07
7.43624e-07
3.40175e-07
6.39903e-07
2.78623e-07
5.63787e-07
2.19317e-07
5.08693e-07
1.62286e-07
4.69541e-07
1.07118e-07
4.4278e-07
5.32341e-08
4.26082e-07
4.18057e-07
-5.59675e-08
4.74025e-07
-1.12452e-07
4.82566e-07
-1.69925e-07
5.00253e-07
-2.28741e-07
5.28357e-07
-2.88979e-07
5.68932e-07
-3.50149e-07
6.24956e-07
-4.10609e-07
7.00363e-07
-4.66643e-07
7.99657e-07
-5.11402e-07
9.26391e-07
-5.35239e-07
1.07961e-06
-5.30792e-07
1.24889e-06
-5.01446e-07
1.41515e-06
-4.50271e-07
1.56571e-06
-3.89986e-07
1.68757e-06
-3.2533e-07
1.78432e-06
-2.39733e-07
1.86366e-06
-1.74894e-07
1.8923e-06
-1.10542e-07
1.91095e-06
-5.12428e-08
1.91639e-06
5.45844e-08
1.92308e-06
9.67601e-08
1.83323e-06
1.38375e-07
1.7493e-06
8.74488e-08
1.62708e-06
6.18675e-08
1.61851e-06
2.02884e-07
1.68909e-06
1.35554e-07
1.52032e-06
8.71152e-08
1.50484e-06
3.3288e-07
1.62197e-06
2.05101e-07
1.29197e-06
3.941e-08
1.18275e-06
1.49729e-07
1.32589e-06
9.06802e-08
1.19792e-06
-3.52952e-08
5.01971e-07
-1.38473e-07
5.31183e-07
-6.27486e-08
6.03939e-07
2.24197e-07
6.41206e-07
-1.75049e-07
5.29402e-07
-1.27051e-06
-2.2559e-07
-6.08761e-06
-1.39578e-05
-9.74755e-17
-3.06803e-05
6.08761e-06
-3.06803e-05
1.27051e-06
-1.39578e-05
1.75049e-07
-2.2559e-07
-2.24197e-07
5.29402e-07
6.27486e-08
6.41206e-07
1.38473e-07
6.03939e-07
3.52952e-08
5.31183e-07
-9.06802e-08
5.01971e-07
-1.49729e-07
1.19792e-06
-3.941e-08
1.32589e-06
-2.05101e-07
1.18275e-06
-3.3288e-07
1.29197e-06
-8.71152e-08
1.62197e-06
-1.35554e-07
1.50484e-06
-2.02884e-07
1.52032e-06
-6.18675e-08
1.68909e-06
-8.74488e-08
1.61851e-06
-1.38375e-07
1.62708e-06
-9.67601e-08
1.7493e-06
-5.45844e-08
1.83323e-06
5.12428e-08
1.92308e-06
1.10542e-07
1.91639e-06
1.74894e-07
1.91095e-06
2.39733e-07
1.8923e-06
3.2533e-07
1.86366e-06
3.89986e-07
1.78432e-06
4.50271e-07
1.68757e-06
5.01446e-07
1.56571e-06
5.30792e-07
1.41515e-06
5.35239e-07
1.24889e-06
5.11402e-07
1.07961e-06
4.66643e-07
9.26391e-07
4.10609e-07
7.99657e-07
3.50149e-07
7.00363e-07
2.88979e-07
6.24956e-07
2.28741e-07
5.68932e-07
1.69925e-07
5.28357e-07
1.12452e-07
5.00253e-07
5.59675e-08
4.82566e-07
4.74025e-07
-5.82866e-08
5.32311e-07
-1.16921e-07
5.412e-07
-1.76179e-07
5.59511e-07
-2.36162e-07
5.8834e-07
-2.96627e-07
6.29396e-07
-3.56683e-07
6.85013e-07
-4.14329e-07
7.58009e-07
-4.65829e-07
8.51157e-07
-5.05311e-07
9.65874e-07
-5.25623e-07
1.09992e-06
-5.21845e-07
1.24511e-06
-4.95355e-07
1.38866e-06
-4.49641e-07
1.51999e-06
-3.9263e-07
1.63055e-06
-3.28034e-07
1.71972e-06
-2.52551e-07
1.78818e-06
-1.85058e-07
1.82481e-06
-1.19273e-07
1.84517e-06
-5.37743e-08
1.85089e-06
2.72584e-08
1.84205e-06
7.56676e-08
1.78482e-06
1.07414e-07
1.71755e-06
9.28082e-08
1.64168e-06
9.34723e-08
1.61785e-06
1.61275e-07
1.62129e-06
1.43061e-07
1.53853e-06
1.38062e-07
1.50984e-06
2.45341e-07
1.51469e-06
1.85321e-07
1.35199e-06
9.51762e-08
1.2729e-06
1.17782e-07
1.30329e-06
6.50432e-08
1.25066e-06
1.49603e-08
5.52054e-07
-1.82011e-08
5.64344e-07
-3.49189e-10
5.86087e-07
4.26542e-08
5.98203e-07
-1.81372e-08
5.90194e-07
-5.62616e-08
-1.87465e-07
-8.99502e-07
-1.31146e-05
-1.26298e-17
-3.15798e-05
8.99502e-07
-3.15798e-05
5.62616e-08
-1.31146e-05
1.81372e-08
-1.87465e-07
-4.26542e-08
5.90194e-07
3.49189e-10
5.98203e-07
1.82011e-08
5.86087e-07
-1.49603e-08
5.64344e-07
-6.50432e-08
5.52054e-07
-1.17782e-07
1.25066e-06
-9.51762e-08
1.30329e-06
-1.85321e-07
1.2729e-06
-2.45341e-07
1.35199e-06
-1.38062e-07
1.51469e-06
-1.43061e-07
1.50984e-06
-1.61275e-07
1.53853e-06
-9.34723e-08
1.62129e-06
-9.28082e-08
1.61785e-06
-1.07414e-07
1.64168e-06
-7.56676e-08
1.71755e-06
-2.72584e-08
1.78482e-06
5.37743e-08
1.84205e-06
1.19273e-07
1.85089e-06
1.85058e-07
1.84517e-06
2.52551e-07
1.82481e-06
3.28034e-07
1.78818e-06
3.9263e-07
1.71972e-06
4.49641e-07
1.63055e-06
4.95355e-07
1.51999e-06
5.21845e-07
1.38866e-06
5.25623e-07
1.24511e-06
5.05311e-07
1.09992e-06
4.65829e-07
9.65874e-07
4.14329e-07
8.51157e-07
3.56683e-07
7.58009e-07
2.96627e-07
6.85013e-07
2.36162e-07
6.29396e-07
1.76179e-07
5.8834e-07
1.16921e-07
5.59511e-07
5.82866e-08
5.412e-07
5.32311e-07
-6.0049e-08
5.9236e-07
-1.20247e-07
6.01398e-07
-1.8065e-07
6.19914e-07
-2.41102e-07
6.48793e-07
-3.01064e-07
6.89358e-07
-3.59347e-07
7.43296e-07
-4.13776e-07
8.12437e-07
-4.60844e-07
8.98225e-07
-4.9571e-07
1.00074e-06
-5.13121e-07
1.11733e-06
-5.09698e-07
1.24169e-06
-4.85975e-07
1.36494e-06
-4.44903e-07
1.47892e-06
-3.91714e-07
1.57737e-06
-3.29907e-07
1.65792e-06
-2.61011e-07
1.71928e-06
-1.94085e-07
1.75788e-06
-1.28324e-07
1.77941e-06
-6.28401e-08
1.7854e-06
4.9097e-09
1.7743e-06
5.36238e-08
1.73611e-06
8.46873e-08
1.68649e-06
9.13882e-08
1.63498e-06
1.04023e-07
1.60521e-06
1.40757e-07
1.58455e-06
1.44386e-07
1.5349e-06
1.53548e-07
1.50068e-06
1.98055e-07
1.47019e-06
1.68733e-07
1.38131e-06
1.17659e-07
1.32397e-06
1.06209e-07
1.31474e-06
6.61783e-08
1.29069e-06
4.35756e-08
5.74657e-07
2.80963e-08
5.79824e-07
2.63991e-08
5.87784e-07
2.99095e-08
5.94693e-07
2.05443e-08
5.99559e-07
4.54017e-09
-1.71461e-07
-3.28726e-07
-1.27813e-05
4.08498e-18
-3.19085e-05
3.28726e-07
-3.19085e-05
-4.54017e-09
-1.27813e-05
-2.05443e-08
-1.71461e-07
-2.99095e-08
5.99559e-07
-2.63991e-08
5.94693e-07
-2.80963e-08
5.87784e-07
-4.35756e-08
5.79824e-07
-6.61783e-08
5.74657e-07
-1.06209e-07
1.29069e-06
-1.17659e-07
1.31474e-06
-1.68733e-07
1.32397e-06
-1.98055e-07
1.38131e-06
-1.53548e-07
1.47019e-06
-1.44386e-07
1.50068e-06
-1.40757e-07
1.5349e-06
-1.04023e-07
1.58455e-06
-9.13882e-08
1.60521e-06
-8.46873e-08
1.63498e-06
-5.36238e-08
1.68649e-06
-4.9097e-09
1.73611e-06
6.28401e-08
1.7743e-06
1.28324e-07
1.7854e-06
1.94085e-07
1.77941e-06
2.61011e-07
1.75788e-06
3.29907e-07
1.71928e-06
3.91714e-07
1.65792e-06
4.44903e-07
1.57737e-06
4.85975e-07
1.47892e-06
5.09698e-07
1.36494e-06
5.13121e-07
1.24169e-06
4.9571e-07
1.11733e-06
4.60844e-07
1.00074e-06
4.13776e-07
8.98225e-07
3.59347e-07
8.12437e-07
3.01064e-07
7.43296e-07
2.41102e-07
6.89358e-07
1.8065e-07
6.48793e-07
1.20247e-07
6.19914e-07
6.0049e-08
6.01398e-07
5.9236e-07
-6.11161e-08
6.53477e-07
-1.22164e-07
6.62446e-07
-1.82971e-07
6.80721e-07
-2.4314e-07
7.08961e-07
-3.01882e-07
7.48101e-07
-3.57823e-07
7.99237e-07
-4.08777e-07
8.63391e-07
-4.51618e-07
9.41066e-07
-4.82464e-07
1.03158e-06
-4.97482e-07
1.13235e-06
-4.94312e-07
1.23852e-06
-4.73158e-07
1.34378e-06
-4.36269e-07
1.44203e-06
-3.8733e-07
1.52843e-06
-3.29618e-07
1.6002e-06
-2.66007e-07
1.65567e-06
-2.0157e-07
1.69344e-06
-1.376e-07
1.71544e-06
-7.47572e-08
1.72256e-06
-1.46772e-08
1.71422e-06
3.27541e-08
1.68868e-06
6.58313e-08
1.65341e-06
8.46009e-08
1.61621e-06
1.03243e-07
1.58657e-06
1.28306e-07
1.55949e-06
1.40388e-07
1.52282e-06
1.524e-07
1.48866e-06
1.70548e-07
1.45204e-06
1.54954e-07
1.3969e-06
1.242e-07
1.35473e-06
1.03862e-07
1.33508e-06
7.42487e-08
1.3203e-06
6.15348e-08
5.87371e-07
5.19845e-08
5.89374e-07
4.73265e-08
5.92442e-07
4.6453e-08
5.95566e-07
4.8151e-08
5.97861e-07
3.14225e-08
-1.54733e-07
-2.17887e-07
-1.2532e-05
5.35854e-18
-3.21264e-05
2.17887e-07
-3.21264e-05
-3.14225e-08
-1.2532e-05
-4.8151e-08
-1.54733e-07
-4.6453e-08
5.97861e-07
-4.73265e-08
5.95566e-07
-5.19845e-08
5.92442e-07
-6.15348e-08
5.89374e-07
-7.42487e-08
5.87371e-07
-1.03862e-07
1.3203e-06
-1.242e-07
1.33508e-06
-1.54954e-07
1.35473e-06
-1.70548e-07
1.3969e-06
-1.524e-07
1.45204e-06
-1.40388e-07
1.48866e-06
-1.28306e-07
1.52282e-06
-1.03243e-07
1.55949e-06
-8.46009e-08
1.58657e-06
-6.58313e-08
1.61621e-06
-3.27541e-08
1.65341e-06
1.46772e-08
1.68868e-06
7.47572e-08
1.71422e-06
1.376e-07
1.72256e-06
2.0157e-07
1.71544e-06
2.66007e-07
1.69344e-06
3.29618e-07
1.65567e-06
3.8733e-07
1.6002e-06
4.36269e-07
1.52843e-06
4.73158e-07
1.44203e-06
4.94312e-07
1.34378e-06
4.97482e-07
1.23852e-06
4.82464e-07
1.13235e-06
4.51618e-07
1.03158e-06
4.08777e-07
9.41066e-07
3.57823e-07
8.63391e-07
3.01882e-07
7.99237e-07
2.4314e-07
7.48101e-07
1.82971e-07
7.08961e-07
1.22164e-07
6.80721e-07
6.11161e-08
6.62446e-07
6.53477e-07