/*--------------------------------*- C++ -*----------------------------------*\
  =========                 |
  \\      /  F ield         | OpenFOAM: The Open Source CFD Toolbox
   \\    /   O peration     | Website:  https://openfoam.org
    \\  /    A nd           | Version:  10
     \\/     M anipulation  |
\*---------------------------------------------------------------------------*/
FoamFile
{
    format      ascii;
    class       volScalarField;
    location    "0.045";
    object      T;
}
// * * * * * * * * * * * * * * * * * * * * * * * * * * * * * * * * * * * * * //

dimensions      [0 0 0 1 0 0 0];

internalField   nonuniform List<scalar> 
12225
(
1.00078
0.99983
1.00012
1.00011
1.00018
1.00045
1.00048
1.00029
1.00023
1.00036
1.00043
1.00033
1.0001
0.999725
0.999139
0.997888
0.994676
0.988242
1.00003
0.999827
1.00006
1.00005
1.00011
1.00041
1.0005
1.00033
1.00022
1.00031
1.00038
1.0003
1.00009
0.999717
0.999107
0.997898
0.995084
0.989476
0.999764
1.00012
1.00024
1.00008
1.0001
1.00037
1.00045
1.00029
1.0002
1.00026
1.00031
1.00023
1.00007
0.999773
0.999239
0.998159
0.995712
0.991169
1.00007
1.00003
1.00016
1.0001
1.00011
1.00032
1.0004
1.00028
1.00022
1.00029
1.00036
1.0003
1.00014
0.999837
0.999289
0.998284
0.996271
0.992805
1.00009
1.00028
1.00054
1.00023
1.00008
1.00033
1.00048
1.00036
1.00024
1.00024
1.00027
1.0002
1.00005
0.999805
0.999371
0.998588
0.997051
0.994451
0.999792
1.00009
1.00049
1.00028
1.00011
1.00027
1.00034
1.00022
1.00017
1.00024
1.0003
1.00026
1.00013
0.999911
0.999531
0.998864
0.997661
0.995712
0.999775
1.00037
1.00097
1.00049
1.00007
1.00026
1.00043
1.00036
1.00027
1.00025
1.00023
1.00016
1.00003
0.999858
0.999561
0.999044
0.998146
0.996704
1.00009
1.00051
1.00094
1.00043
1.00008
1.00025
1.00031
1.00018
1.00011
1.00016
1.00022
1.00021
1.00012
0.999979
0.999739
0.999327
0.998649
0.997587
0.998855
1.00088
1.00126
1.00046
0.999973
1.00016
1.00035
1.00032
1.00025
1.00023
1.0002
1.00012
1.00002
0.999905
0.99973
0.999427
0.998935
0.998162
0.999599
1.00093
1.00109
1.00044
1.00005
1.00017
1.00024
1.0001
1.00002
1.00007
1.00013
1.00013
1.0001
1.00004
0.999918
0.999697
0.999335
0.998789
0.998572
1.0006
1.00111
1.00033
0.999871
1.00008
1.00029
1.00025
1.00019
1.00019
1.00017
1.00009
1
0.999921
0.999814
0.99965
0.999387
0.999009
1.00011
1.00078
1.00092
1.00036
0.999945
1.00006
1.00014
1.00001
0.999937
0.999982
1.00005
1.00008
1.00008
1.00005
1
0.999893
0.999718
0.999444
0.998767
1.00066
1.00065
1.00025
0.999877
1.00001
1.00019
1.00015
1.0001
1.00011
1.00009
1.00004
0.999979
0.999932
0.999887
0.999806
0.999681
0.999488
1.00051
1.00017
0.999747
0.999892
0.999828
0.999884
0.999944
0.999884
0.999843
0.999891
0.999965
1.00001
1.00003
1.00003
1.00001
0.99998
0.999893
0.999802
0.999766
0.999123
0.99988
1.00044
1.00028
1.00009
1.00006
1.00008
1.00009
1.00008
1.00006
1.00004
0.999996
0.999955
0.999914
0.99988
0.999813
0.999747
1.00358
1.00016
0.999478
0.999135
0.999199
0.999423
0.999583
0.999723
0.999825
0.999862
0.999895
0.999957
1.00002
1.00007
1.00009
1.0001
1.00009
1.00007
0.998925
0.998094
0.998226
0.999189
0.999912
1.00019
1.00014
1.00005
1.00001
0.999986
0.999978
0.999983
0.999973
0.999956
0.999944
0.999943
0.999938
0.999935
1.00101
1.00005
0.999707
0.999502
0.99937
0.999427
0.999517
0.999607
0.999723
0.999868
0.999985
1.00004
1.00005
1.00008
1.00012
1.00016
1.00019
1.00021
0.998494
0.999983
1.00047
1.00037
1.00058
1.00076
1.00072
1.00065
1.0006
1.00057
1.00057
1.00057
1.00056
1.00054
1.00052
1.00049
1.00045
1.00041
1.00062
1.00247
1.00239
1.0013
1.00084
1.00062
1.00051
1.00048
1.00044
1.00037
1.00033
1.00029
1.00027
1.00028
1.0003
1.00033
1.00036
1.00039
0.998269
1.00068
1.00172
1.00135
1.00105
1.0009
1.00092
1.00096
1.0009
1.00081
1.00078
1.00078
1.00077
1.00074
1.0007
1.00066
1.00062
1.00058
0.998786
1.00001
1.00127
1.00127
1.00067
1.00056
1.00073
1.00068
1.00053
1.00052
1.00055
1.00053
1.0005
1.00048
1.00048
1.0005
1.00051
1.00052
1.00022
0.999391
1.00003
1.00066
1.00056
1.00055
1.0007
1.00072
1.0007
1.00075
1.0008
1.00075
1.00068
1.00066
1.00066
1.00065
1.00061
1.00058
0.999903
0.9998
1.00049
1.0009
1.00068
1.00055
1.00061
1.00063
1.00057
1.00052
1.0005
1.00048
1.00049
1.00052
1.00054
1.00056
1.00057
1.00058
0.999794
1.00045
1.0005
1.00049
1.00033
1.00028
1.00045
1.00062
1.00068
1.00069
1.00069
1.00067
1.00066
1.00067
1.00065
1.00062
1.00059
1.00057
0.998757
1.00083
1.00083
1.0007
1.00059
1.00055
1.00064
1.00065
1.00058
1.00054
1.00056
1.00058
1.00056
1.00056
1.00057
1.0006
1.00063
1.00065
0.99936
1.00107
1.00082
1.00038
1.0003
1.00037
1.00054
1.00062
1.00059
1.00058
1.00065
1.00072
1.00072
1.00068
1.00063
1.00059
1.00056
1.00055
0.999242
1.00085
1.00085
1.00061
1.0006
1.0006
1.00064
1.00063
1.00055
1.00049
1.00051
1.00055
1.00057
1.00057
1.00058
1.00059
1.0006
1.00061
0.998611
1.00033
1.00053
1.00047
1.00051
1.00054
1.00059
1.0006
1.00056
1.00055
1.00062
1.00068
1.0007
1.00066
1.00061
1.00055
1.00052
1.00052
0.999703
1.00021
1.00065
1.00068
1.00061
1.00057
1.0006
1.0006
1.00054
1.00053
1.0006
1.00068
1.00071
1.00067
1.00061
1.00057
1.00054
1.00058
0.752615
0.75267
0.752453
0.751993
0.752004
0.752483
0.752889
0.753355
0.753635
0.753407
0.752805
0.752055
0.751259
0.750431
0.749564
0.748647
0.747671
0.746635
0.745541
0.744393
0.743198
0.741951
0.740656
0.739309
0.737929
0.736594
0.735309
0.734037
0.732792
0.731599
0.730479
0.729387
0.727954
0.725174
0.720677
0.715256
0.709533
0.704552
0.699759
0.695584
0.691724
0.687053
0.684028
0.681059
0.677801
0.675179
0.673398
0.672525
0.670806
0.668735
0.667994
0.668925
0.67321
0.677411
0.679528
0.680511
0.681349
0.682491
0.683873
0.685405
0.687002
0.688614
0.690214
0.691798
0.693367
0.694928
0.696487
0.698049
0.699617
0.701194
0.702781
0.704379
0.705986
0.707601
0.709231
0.710894
0.712569
0.714241
0.71592
0.717606
0.719298
0.720995
0.722697
0.724403
0.726113
0.727826
0.729544
0.731269
0.733004
0.734757
0.736533
0.738333
0.740158
0.742015
0.743907
0.745817
0.747705
0.749535
0.751315
0.75307
0.75476
0.756268
0.757561
0.758785
0.759923
0.760615
0.76099
0.761348
0.761664
0.762057
0.762914
0.765008
0.768254
0.768173
0.761405
0.755616
0.75433
0.749971
0.743232
0.735694
0.725025
0.711784
0.696241
0.67806
0.658243
0.638707
0.621306
0.607292
0.597376
0.59171
0.58978
0.59063
0.593205
0.596625
0.600346
0.604157
0.608071
0.612185
0.616535
0.621064
0.625802
0.630681
0.635417
0.63961
0.642865
0.645169
0.64678
0.648046
0.649445
0.651543
0.654217
0.656189
0.657348
0.6581
0.658592
0.658931
0.65917
0.659302
0.659296
0.659147
0.658785
0.658197
0.657512
0.656564
0.655296
0.654193
0.65292
0.651275
0.650611
0.650446
0.649753
0.650504
0.652907
0.65282
0.650908
0.654011
0.660686
0.658899
0.651828
0.651082
0.752462
0.752477
0.752437
0.751956
0.751811
0.752178
0.752774
0.75306
0.75287
0.752293
0.751527
0.750726
0.749935
0.749141
0.748318
0.747442
0.746502
0.745498
0.744432
0.743319
0.742167
0.740988
0.739776
0.738521
0.737191
0.735719
0.734143
0.732537
0.730952
0.729431
0.72802
0.726701
0.725336
0.723145
0.719762
0.715997
0.711343
0.705837
0.700775
0.696795
0.692146
0.687525
0.683919
0.680798
0.677189
0.673488
0.67171
0.667653
0.667041
0.66848
0.667192
0.666097
0.670493
0.675288
0.677281
0.678145
0.679046
0.680243
0.681699
0.683317
0.685024
0.686755
0.688476
0.690169
0.691831
0.693469
0.695091
0.696707
0.698323
0.699946
0.701579
0.703228
0.704898
0.706591
0.708294
0.709982
0.711667
0.713363
0.715068
0.716785
0.718514
0.720254
0.722003
0.723755
0.725508
0.727258
0.729002
0.730741
0.732477
0.734218
0.735977
0.737764
0.739592
0.741472
0.743411
0.745397
0.747392
0.749355
0.751276
0.753172
0.755012
0.756686
0.758135
0.759482
0.760816
0.761829
0.762352
0.762567
0.762488
0.762278
0.762858
0.764743
0.767442
0.767251
0.760771
0.754328
0.752572
0.749955
0.744156
0.735826
0.724577
0.711345
0.695852
0.677578
0.657726
0.638255
0.620901
0.606977
0.597186
0.591594
0.589649
0.590396
0.592796
0.596005
0.599517
0.603152
0.606953
0.611045
0.615507
0.620285
0.625198
0.630215
0.6352
0.639708
0.643224
0.645695
0.647446
0.648902
0.650553
0.652919
0.655774
0.657765
0.658912
0.659631
0.660073
0.660354
0.66053
0.660593
0.660528
0.660315
0.659876
0.659248
0.65855
0.657534
0.656197
0.655115
0.653796
0.652013
0.651418
0.651398
0.650613
0.651485
0.65428
0.654423
0.652606
0.655144
0.66044
0.658074
0.65303
0.652754
0.75593
0.756051
0.755946
0.755939
0.755644
0.755216
0.754621
0.753816
0.752943
0.752142
0.75145
0.750816
0.750164
0.749444
0.748637
0.747738
0.746744
0.745654
0.744466
0.743184
0.741821
0.740404
0.738966
0.737547
0.736151
0.734727
0.733193
0.731483
0.729605
0.727645
0.725681
0.723744
0.721887
0.719922
0.717685
0.715171
0.711862
0.707871
0.703522
0.698928
0.694212
0.689274
0.685199
0.682507
0.678399
0.675782
0.673274
0.670854
0.666925
0.668119
0.668843
0.669001
0.670438
0.67195
0.673032
0.674268
0.675912
0.677875
0.680001
0.68211
0.684119
0.685993
0.687742
0.689398
0.690986
0.692534
0.694057
0.695573
0.697089
0.698612
0.700146
0.701697
0.70327
0.704876
0.70651
0.708169
0.709856
0.711567
0.713302
0.715058
0.716833
0.718627
0.720435
0.722253
0.724079
0.725909
0.727743
0.729581
0.731427
0.733287
0.735167
0.737077
0.739026
0.741029
0.743094
0.745214
0.747362
0.749497
0.751593
0.753643
0.755623
0.757498
0.759243
0.760855
0.762307
0.763529
0.764445
0.764875
0.764608
0.76392
0.764062
0.765752
0.768056
0.767236
0.760906
0.754505
0.752708
0.751497
0.745919
0.736348
0.724189
0.71
0.693478
0.674725
0.654975
0.635905
0.619088
0.605651
0.5962
0.59079
0.588919
0.589694
0.592124
0.595386
0.598959
0.602624
0.606396
0.61038
0.61466
0.619244
0.624114
0.629324
0.63471
0.639751
0.643705
0.646448
0.648433
0.650242
0.652405
0.655328
0.658495
0.660667
0.661908
0.662628
0.663007
0.663181
0.663238
0.663189
0.662995
0.662657
0.662131
0.661373
0.660515
0.659466
0.658046
0.656722
0.655401
0.653688
0.652749
0.652873
0.652784
0.653541
0.656277
0.657415
0.656619
0.658626
0.663076
0.662164
0.657776
0.655625
0.758129
0.758375
0.75878
0.758316
0.757435
0.756742
0.756379
0.756174
0.755922
0.755554
0.755083
0.754513
0.753819
0.75298
0.751994
0.750872
0.749632
0.748291
0.746865
0.745363
0.743793
0.742162
0.740475
0.738739
0.736991
0.735312
0.73368
0.731995
0.730171
0.728143
0.725926
0.723558
0.721093
0.718634
0.716225
0.713795
0.711144
0.708318
0.704936
0.700873
0.696747
0.691795
0.687933
0.683949
0.679918
0.678066
0.674593
0.672609
0.671029
0.669846
0.668992
0.669039
0.670091
0.67155
0.673001
0.674512
0.676152
0.677902
0.679686
0.68143
0.683097
0.684678
0.686178
0.687625
0.689041
0.690448
0.691859
0.693284
0.694726
0.696185
0.697661
0.699158
0.70068
0.702246
0.703863
0.705512
0.707196
0.70892
0.710687
0.712497
0.714348
0.716233
0.718144
0.720073
0.722008
0.723942
0.725871
0.727796
0.729721
0.731656
0.733612
0.735603
0.737646
0.739762
0.741966
0.74426
0.746614
0.74898
0.751304
0.753549
0.755695
0.757763
0.75979
0.761775
0.763564
0.765052
0.766433
0.767711
0.768045
0.767281
0.766697
0.767656
0.769456
0.768092
0.76132
0.754775
0.752776
0.751414
0.745938
0.736203
0.723326
0.70833
0.691373
0.672647
0.653209
0.634603
0.618268
0.605189
0.595948
0.590623
0.588769
0.589539
0.591962
0.595203
0.598713
0.602241
0.60577
0.609385
0.613222
0.617488
0.622233
0.62744
0.633177
0.638944
0.643647
0.646935
0.649358
0.651743
0.65472
0.65846
0.662027
0.664523
0.665972
0.666786
0.667186
0.667313
0.667258
0.667054
0.666682
0.666143
0.66542
0.664478
0.663428
0.662214
0.66066
0.659154
0.657724
0.656023
0.655037
0.65532
0.65578
0.656891
0.659969
0.661862
0.661626
0.663476
0.667178
0.666302
0.66173
0.659068
0.762833
0.763236
0.762499
0.76161
0.761284
0.76113
0.760855
0.760568
0.760263
0.759805
0.759097
0.758125
0.756921
0.755527
0.75398
0.752305
0.750513
0.748613
0.746622
0.744568
0.7425
0.740471
0.738539
0.73678
0.735236
0.73385
0.732581
0.731379
0.730085
0.728473
0.726416
0.723949
0.721145
0.718174
0.715278
0.712613
0.710101
0.707627
0.704764
0.701572
0.698123
0.693908
0.690421
0.686017
0.682798
0.680065
0.67844
0.674108
0.671311
0.669451
0.668709
0.669149
0.67045
0.672069
0.673564
0.674882
0.676064
0.67722
0.6784
0.679636
0.680909
0.682208
0.683517
0.684839
0.686171
0.687518
0.68888
0.690257
0.691646
0.693047
0.694463
0.695904
0.697379
0.698899
0.700467
0.702079
0.703746
0.705485
0.707301
0.709195
0.711161
0.71319
0.715268
0.717376
0.719496
0.721608
0.723702
0.725772
0.727823
0.729865
0.731918
0.734005
0.736159
0.738416
0.740809
0.743355
0.746034
0.748777
0.75148
0.754056
0.75646
0.758724
0.760905
0.763056
0.76503
0.766679
0.767915
0.769283
0.770263
0.769886
0.769125
0.769819
0.771444
0.770099
0.763449
0.756649
0.75385
0.751828
0.746215
0.735908
0.722264
0.706978
0.69008
0.671545
0.65243
0.63427
0.618346
0.605553
0.596431
0.591097
0.589173
0.589847
0.592131
0.595163
0.598361
0.601419
0.604264
0.607041
0.610075
0.613715
0.617977
0.622847
0.62892
0.635869
0.641962
0.646302
0.649455
0.652666
0.65675
0.661609
0.665923
0.668926
0.670618
0.671487
0.671877
0.671972
0.671868
0.671583
0.67108
0.670364
0.669461
0.668345
0.66709
0.665717
0.66409
0.662417
0.660862
0.659223
0.658255
0.658726
0.659853
0.661637
0.665169
0.667821
0.668364
0.670286
0.672964
0.671489
0.666915
0.66297
0.768421
0.767865
0.766352
0.765837
0.765588
0.765337
0.764931
0.764248
0.763308
0.762196
0.760949
0.759557
0.758
0.756268
0.754368
0.75231
0.750109
0.747784
0.74537
0.742914
0.740472
0.738115
0.735939
0.734027
0.732474
0.731223
0.73006
0.728833
0.727536
0.726147
0.724466
0.722334
0.719795
0.716973
0.71397
0.711043
0.70839
0.705932
0.703425
0.700749
0.697379
0.693728
0.690007
0.685751
0.682177
0.679462
0.676282
0.672427
0.670147
0.668735
0.668478
0.669115
0.670205
0.671401
0.672466
0.67339
0.674242
0.675137
0.676133
0.677253
0.678459
0.679714
0.680975
0.682223
0.683444
0.684645
0.685833
0.687023
0.68823
0.689474
0.690769
0.692126
0.69353
0.694957
0.696427
0.697996
0.69968
0.701482
0.703397
0.70542
0.707544
0.709754
0.712032
0.714348
0.716676
0.718987
0.721262
0.723489
0.725667
0.72781
0.72995
0.732137
0.734422
0.736852
0.739464
0.742277
0.745287
0.748427
0.751562
0.754573
0.757376
0.759999
0.762473
0.764897
0.76722
0.769303
0.770639
0.771548
0.772734
0.772914
0.772127
0.772531
0.773936
0.772541
0.766036
0.758868
0.7553
0.752472
0.746294
0.735361
0.721427
0.706283
0.689589
0.67128
0.652617
0.635017
0.619467
0.606825
0.597617
0.592039
0.589805
0.59014
0.592048
0.594611
0.597155
0.599302
0.601083
0.602973
0.605513
0.608745
0.612361
0.616845
0.623439
0.632004
0.639907
0.645652
0.649688
0.653696
0.658726
0.66465
0.670102
0.67398
0.676159
0.677192
0.677558
0.677534
0.677274
0.676824
0.676151
0.675245
0.674148
0.672869
0.671445
0.669917
0.668191
0.666335
0.664592
0.66294
0.662002
0.662855
0.664948
0.667529
0.67167
0.675383
0.67667
0.678198
0.680401
0.678667
0.673976
0.668355
0.769998
0.769311
0.768912
0.769118
0.769042
0.768314
0.767282
0.766177
0.764993
0.763695
0.762179
0.760312
0.758028
0.755364
0.752432
0.749361
0.746254
0.743187
0.74023
0.737457
0.734919
0.732696
0.730839
0.729267
0.72804
0.727151
0.72632
0.725316
0.724148
0.722918
0.721474
0.719471
0.716866
0.71402
0.711164
0.708419
0.705931
0.703583
0.701148
0.698399
0.695176
0.691977
0.688029
0.684264
0.680793
0.678119
0.674042
0.670777
0.669017
0.667949
0.667785
0.668182
0.668816
0.669582
0.670377
0.671239
0.672192
0.67325
0.674376
0.675526
0.676646
0.677704
0.678678
0.679582
0.68044
0.68129
0.68217
0.683114
0.684151
0.685295
0.686551
0.687901
0.689291
0.690715
0.692247
0.693911
0.695697
0.69759
0.699585
0.701677
0.703864
0.706139
0.70849
0.7109
0.713344
0.715795
0.718235
0.720656
0.723065
0.725474
0.727898
0.730365
0.732903
0.735537
0.73831
0.741269
0.744467
0.747874
0.751331
0.754676
0.75779
0.760705
0.763439
0.766178
0.769058
0.771788
0.773991
0.774944
0.775951
0.77671
0.775976
0.775831
0.776788
0.775084
0.768585
0.761043
0.756665
0.7531
0.746293
0.734914
0.721033
0.706257
0.689839
0.671889
0.653928
0.636954
0.621577
0.608742
0.59914
0.593059
0.590323
0.590182
0.591549
0.593355
0.594839
0.595756
0.596488
0.597835
0.600398
0.603816
0.607292
0.611795
0.619136
0.629233
0.638798
0.646014
0.650989
0.655736
0.661566
0.668299
0.674689
0.679377
0.682121
0.683512
0.684074
0.684086
0.683724
0.683078
0.682156
0.680978
0.679617
0.678111
0.676473
0.674716
0.672774
0.670677
0.668689
0.66704
0.666409
0.667807
0.670953
0.674631
0.679427
0.683891
0.686116
0.687243
0.688933
0.686994
0.682124
0.675392
0.774348
0.774086
0.773785
0.773339
0.77241
0.771209
0.770024
0.768759
0.767225
0.765273
0.762726
0.759546
0.755886
0.751975
0.748007
0.744101
0.740306
0.736663
0.733253
0.73018
0.727558
0.725524
0.724132
0.723133
0.722246
0.721453
0.720682
0.719784
0.71879
0.71783
0.716717
0.715114
0.712998
0.710577
0.708009
0.705504
0.703191
0.700881
0.698438
0.695782
0.692859
0.689588
0.68562
0.682066
0.679063
0.676388
0.672316
0.66959
0.667981
0.666908
0.666593
0.666714
0.667133
0.667838
0.668714
0.669738
0.670815
0.671872
0.672837
0.67368
0.674401
0.67503
0.675607
0.676178
0.676788
0.677478
0.678281
0.679221
0.680306
0.681524
0.682839
0.684223
0.685701
0.687287
0.688944
0.690666
0.692461
0.694333
0.696292
0.698342
0.700484
0.702717
0.705051
0.707491
0.710021
0.712611
0.715234
0.717887
0.720581
0.723309
0.726029
0.728713
0.731367
0.734042
0.736851
0.739908
0.743341
0.74717
0.751179
0.755086
0.758644
0.761837
0.764804
0.767873
0.771454
0.774723
0.777441
0.778929
0.779654
0.780757
0.780492
0.779925
0.780451
0.778458
0.771426
0.762886
0.757159
0.75284
0.745764
0.734523
0.721157
0.70698
0.690956
0.673519
0.656305
0.63981
0.62439
0.611006
0.600762
0.594067
0.590771
0.59003
0.590575
0.591223
0.591381
0.591227
0.591424
0.592696
0.595554
0.599672
0.603734
0.608168
0.615761
0.626859
0.638191
0.647094
0.652983
0.658417
0.665261
0.673306
0.680709
0.685781
0.688595
0.690088
0.690817
0.690957
0.690645
0.68995
0.688868
0.68744
0.685788
0.684001
0.682083
0.680035
0.677852
0.67555
0.673361
0.671743
0.671521
0.673583
0.677795
0.682678
0.688125
0.693023
0.696072
0.69701
0.697957
0.696006
0.691094
0.683748
0.779551
0.778973
0.778378
0.777668
0.776617
0.775346
0.773838
0.771949
0.769638
0.766795
0.763346
0.759462
0.755365
0.751226
0.747139
0.743107
0.739107
0.735165
0.73139
0.727903
0.724805
0.722309
0.720561
0.719232
0.717888
0.716658
0.715705
0.71485
0.714032
0.71326
0.712196
0.710556
0.708476
0.706212
0.703887
0.701628
0.699465
0.697256
0.694981
0.692557
0.689748
0.68637
0.68307
0.679987
0.677435
0.674354
0.670791
0.668444
0.666839
0.665689
0.665273
0.665274
0.665684
0.666415
0.667293
0.66823
0.669097
0.669857
0.670498
0.671053
0.671562
0.672068
0.672599
0.673176
0.67381
0.674517
0.675308
0.676198
0.677194
0.678289
0.679472
0.680751
0.682155
0.68367
0.685254
0.686907
0.688657
0.69053
0.692545
0.694708
0.69701
0.699443
0.702004
0.704682
0.707449
0.710253
0.71304
0.715778
0.71846
0.721084
0.723653
0.726221
0.728869
0.731675
0.734766
0.738256
0.74221
0.746633
0.751319
0.755871
0.759972
0.76356
0.76691
0.770397
0.77466
0.778781
0.781708
0.783588
0.784237
0.785199
0.785501
0.784699
0.784908
0.78325
0.776086
0.76629
0.758473
0.752897
0.745614
0.734774
0.722226
0.708729
0.693132
0.676222
0.659568
0.643304
0.627669
0.613647
0.602599
0.595214
0.591237
0.589638
0.589014
0.588274
0.587266
0.586603
0.586896
0.588439
0.591561
0.596307
0.600642
0.604333
0.611661
0.623719
0.63736
0.648162
0.65515
0.661386
0.669275
0.678786
0.687826
0.69353
0.696149
0.697336
0.697981
0.698107
0.697742
0.696955
0.695722
0.694087
0.692196
0.690173
0.688037
0.685785
0.683429
0.680948
0.678513
0.676863
0.677127
0.680071
0.685366
0.691342
0.697399
0.702562
0.705968
0.706849
0.706753
0.704739
0.700112
0.6927
0.785463
0.785081
0.784519
0.783554
0.782104
0.780399
0.778399
0.776099
0.773405
0.770115
0.766339
0.762351
0.758236
0.754079
0.749934
0.745739
0.741453
0.737139
0.732935
0.728988
0.725422
0.722409
0.72005
0.718251
0.716711
0.715207
0.713778
0.712326
0.710895
0.709572
0.708049
0.706104
0.703851
0.701494
0.699212
0.697117
0.695182
0.693286
0.691343
0.689193
0.686659
0.683814
0.681196
0.678512
0.675766
0.672361
0.669326
0.667126
0.665501
0.664343
0.663884
0.663811
0.664175
0.664793
0.665514
0.666259
0.666955
0.667618
0.668253
0.668878
0.669487
0.670071
0.67061
0.671094
0.671519
0.671908
0.672312
0.672801
0.67343
0.674232
0.675212
0.67633
0.677559
0.678955
0.680524
0.682244
0.684113
0.686145
0.688366
0.690795
0.693431
0.696255
0.699229
0.7023
0.70541
0.708488
0.71146
0.714259
0.716871
0.719373
0.721913
0.724644
0.72769
0.731105
0.734908
0.739167
0.743777
0.748602
0.75353
0.758271
0.762683
0.766656
0.770139
0.773642
0.777729
0.782243
0.785777
0.788043
0.78905
0.789927
0.790585
0.789788
0.78963
0.78858
0.782297
0.772364
0.763282
0.756114
0.747806
0.736866
0.724927
0.711855
0.696487
0.679949
0.663623
0.647392
0.631446
0.616809
0.604857
0.596624
0.591741
0.589014
0.58704
0.584998
0.583278
0.582721
0.58351
0.585054
0.587682
0.59266
0.597425
0.600751
0.608038
0.621365
0.637108
0.649335
0.65757
0.664828
0.673601
0.684366
0.695362
0.70198
0.704332
0.705154
0.70559
0.705643
0.705183
0.704226
0.702752
0.700847
0.698721
0.696523
0.694255
0.691874
0.689372
0.686648
0.683856
0.682243
0.683253
0.687264
0.69357
0.700485
0.707074
0.71247
0.71589
0.716712
0.715615
0.713004
0.708387
0.701179
0.79235
0.791792
0.791015
0.789783
0.788144
0.786409
0.784361
0.78188
0.778843
0.775145
0.771043
0.766772
0.762415
0.758045
0.75365
0.749149
0.744518
0.739838
0.73528
0.731001
0.727085
0.723651
0.720831
0.718659
0.716894
0.715224
0.713561
0.711815
0.709951
0.707993
0.70594
0.703818
0.701707
0.699689
0.697815
0.696087
0.694422
0.692651
0.690667
0.688346
0.685584
0.682708
0.679737
0.676749
0.673751
0.670514
0.667692
0.665558
0.663928
0.662824
0.662327
0.662197
0.6625
0.663024
0.663691
0.664441
0.665225
0.666025
0.666793
0.667484
0.668046
0.668442
0.668651
0.668688
0.668609
0.668522
0.668555
0.668811
0.669336
0.670134
0.671186
0.672413
0.673755
0.675285
0.676991
0.678816
0.680747
0.682811
0.685058
0.687534
0.69026
0.693225
0.696391
0.699695
0.703069
0.706431
0.7097
0.712818
0.715795
0.718749
0.72187
0.725272
0.728991
0.733035
0.737285
0.741712
0.746268
0.750901
0.755694
0.760782
0.765982
0.770514
0.773769
0.776783
0.780438
0.784774
0.789076
0.792102
0.793581
0.794534
0.795461
0.794946
0.794318
0.793585
0.788634
0.779606
0.770347
0.761845
0.752178
0.740967
0.729379
0.716433
0.701051
0.684679
0.668513
0.652207
0.635882
0.620597
0.607742
0.598428
0.592388
0.588371
0.585066
0.581993
0.579987
0.579883
0.581082
0.582139
0.583996
0.589216
0.595255
0.598977
0.60627
0.620896
0.638268
0.651492
0.660798
0.669288
0.67859
0.689977
0.70276
0.711085
0.712918
0.713185
0.713346
0.713215
0.712664
0.711626
0.709989
0.707862
0.705525
0.703172
0.700791
0.698293
0.695595
0.692492
0.689378
0.688037
0.689965
0.695063
0.702271
0.709987
0.716972
0.722378
0.72545
0.725933
0.724011
0.720549
0.715661
0.708603
0.799735
0.799166
0.79837
0.797036
0.795195
0.793116
0.790669
0.787764
0.784279
0.78023
0.775832
0.771229
0.766533
0.761856
0.757232
0.752621
0.747971
0.743308
0.738732
0.734333
0.730177
0.726396
0.723129
0.720392
0.718097
0.716138
0.714349
0.712607
0.710832
0.708975
0.707038
0.705062
0.703089
0.701183
0.699328
0.697383
0.695244
0.692803
0.690009
0.686859
0.683483
0.680088
0.676666
0.673641
0.671006
0.66826
0.665637
0.663677
0.662134
0.66114
0.660642
0.660528
0.660841
0.661384
0.662128
0.662988
0.663886
0.664727
0.665413
0.66589
0.66614
0.666174
0.666024
0.665764
0.665515
0.665403
0.665497
0.665815
0.666359
0.667136
0.668157
0.669464
0.671071
0.672795
0.674545
0.676321
0.678151
0.680101
0.682255
0.684681
0.68741
0.69043
0.693695
0.697144
0.700708
0.704309
0.707877
0.711398
0.714918
0.718446
0.722093
0.725925
0.729864
0.733876
0.73791
0.741938
0.74611
0.750714
0.756077
0.762415
0.768984
0.774079
0.777078
0.779705
0.783522
0.788083
0.79294
0.796723
0.798581
0.799229
0.799953
0.799746
0.798688
0.797767
0.794074
0.786578
0.777628
0.767958
0.757335
0.746269
0.735073
0.722208
0.706753
0.690425
0.674324
0.657893
0.641138
0.625161
0.611382
0.600813
0.593398
0.588054
0.583548
0.579745
0.57773
0.578073
0.579332
0.57987
0.581196
0.586983
0.594562
0.598639
0.606015
0.62194
0.640745
0.655065
0.66533
0.674991
0.684756
0.696139
0.709871
0.720215
0.721929
0.721327
0.721248
0.720874
0.720089
0.718946
0.717214
0.714936
0.712441
0.709981
0.707529
0.704909
0.701986
0.69849
0.695193
0.694276
0.697148
0.703321
0.711369
0.719639
0.726722
0.731781
0.734131
0.733791
0.730929
0.726525
0.721313
0.714523
0.807686
0.807072
0.806083
0.804511
0.802426
0.800088
0.797363
0.794109
0.790211
0.785676
0.780668
0.775387
0.770028
0.764764
0.759687
0.754785
0.750005
0.745321
0.740761
0.736404
0.732331
0.728586
0.725183
0.722139
0.719459
0.717106
0.714969
0.712866
0.710625
0.708219
0.705701
0.703143
0.700564
0.697984
0.695388
0.69273
0.689947
0.686955
0.683791
0.680555
0.677265
0.674085
0.671519
0.669661
0.667823
0.665534
0.663322
0.66164
0.660285
0.659433
0.658982
0.658935
0.659282
0.659868
0.660671
0.661568
0.662434
0.663126
0.663571
0.66379
0.663856
0.663841
0.66379
0.66373
0.663687
0.663667
0.663671
0.663722
0.663888
0.664284
0.665077
0.666328
0.66791
0.669617
0.671363
0.673145
0.67498
0.676938
0.679135
0.681676
0.684608
0.687913
0.691513
0.695317
0.699229
0.703165
0.70707
0.710931
0.714776
0.718565
0.722331
0.726163
0.7301
0.734148
0.738298
0.742576
0.747184
0.75244
0.758594
0.765686
0.772862
0.778272
0.781333
0.783964
0.788026
0.792812
0.797562
0.801628
0.803863
0.80434
0.804485
0.804275
0.802916
0.80146
0.798697
0.792583
0.783941
0.773737
0.762926
0.75231
0.741592
0.728933
0.713507
0.697194
0.681114
0.664553
0.647376
0.630702
0.615966
0.604082
0.595148
0.588466
0.582881
0.578568
0.576622
0.577075
0.578212
0.578436
0.579303
0.586089
0.595045
0.599532
0.607405
0.624578
0.644404
0.659712
0.670787
0.681279
0.691933
0.70354
0.717437
0.728729
0.731074
0.729447
0.729224
0.728756
0.727636
0.72626
0.724347
0.721886
0.719284
0.716801
0.714306
0.711578
0.708429
0.704623
0.701288
0.70092
0.704784
0.711961
0.72069
0.72922
0.736041
0.740336
0.74156
0.739916
0.735845
0.730436
0.724789
0.7184
0.816236
0.815589
0.814483
0.812812
0.810576
0.807944
0.804873
0.801244
0.796953
0.792021
0.786578
0.780766
0.774736
0.768652
0.76267
0.75691
0.751428
0.746239
0.741353
0.736785
0.732579
0.728786
0.725406
0.722388
0.719668
0.717117
0.71456
0.711849
0.708901
0.705694
0.702241
0.698635
0.694972
0.691354
0.687853
0.68453
0.681352
0.67832
0.675509
0.672973
0.670774
0.66912
0.667985
0.666871
0.665236
0.663189
0.661362
0.659877
0.658685
0.657913
0.657478
0.657448
0.657765
0.658331
0.659117
0.659967
0.660724
0.661243
0.661534
0.661723
0.661938
0.662203
0.662413
0.662423
0.662139
0.661569
0.660839
0.660159
0.659743
0.659759
0.660346
0.66149
0.662979
0.664772
0.666833
0.669056
0.671344
0.673686
0.676187
0.679008
0.682233
0.685864
0.689837
0.694064
0.698441
0.702911
0.707425
0.711895
0.716215
0.720399
0.72451
0.728656
0.732968
0.737502
0.742242
0.747196
0.752505
0.758321
0.764688
0.771466
0.777935
0.782976
0.786385
0.789599
0.793821
0.798417
0.802445
0.805963
0.808351
0.809272
0.809197
0.808826
0.80753
0.805634
0.803246
0.798154
0.789874
0.779717
0.769173
0.759039
0.748782
0.736475
0.721239
0.704965
0.688889
0.672243
0.65472
0.637407
0.621752
0.60862
0.598172
0.590029
0.583415
0.578605
0.576593
0.57688
0.578019
0.578054
0.578712
0.586491
0.596604
0.601939
0.610712
0.628805
0.649127
0.665011
0.676666
0.687594
0.69934
0.711939
0.725763
0.736682
0.739568
0.737457
0.737179
0.736812
0.73531
0.73357
0.731419
0.728786
0.726131
0.723657
0.721125
0.718306
0.714915
0.710881
0.707683
0.708013
0.712864
0.720891
0.730062
0.738517
0.744664
0.747693
0.747268
0.743839
0.738214
0.731735
0.725656
0.719807
0.825415
0.824774
0.823576
0.821753
0.819316
0.81646
0.813167
0.80934
0.804904
0.799864
0.794285
0.788275
0.781959
0.775486
0.769021
0.762732
0.756748
0.75114
0.745926
0.741119
0.736779
0.732973
0.72969
0.726804
0.724106
0.72139
0.718519
0.715424
0.712064
0.708435
0.704543
0.700397
0.696066
0.691703
0.687469
0.683494
0.679852
0.676652
0.673983
0.671851
0.670211
0.668917
0.667635
0.666027
0.664047
0.662036
0.660303
0.65882
0.657644
0.656823
0.656322
0.656209
0.656406
0.656869
0.657557
0.658307
0.658939
0.659332
0.659569
0.659826
0.660195
0.660537
0.66056
0.660049
0.65898
0.657536
0.656053
0.654896
0.654335
0.654459
0.655162
0.656284
0.657794
0.659814
0.662373
0.665302
0.668372
0.671428
0.674513
0.677789
0.681396
0.685361
0.689625
0.694081
0.698645
0.703345
0.708213
0.71319
0.718127
0.722941
0.727653
0.732375
0.737234
0.742267
0.74743
0.752696
0.758153
0.7639
0.769936
0.776184
0.782199
0.787136
0.79082
0.794595
0.799222
0.803808
0.807488
0.81049
0.812726
0.81392
0.814065
0.813598
0.81251
0.810585
0.808211
0.803868
0.796263
0.786523
0.776295
0.766461
0.756573
0.744742
0.729873
0.713693
0.697632
0.680991
0.663275
0.645469
0.62901
0.61473
0.602853
0.593227
0.585501
0.57998
0.577666
0.577733
0.579115
0.579162
0.579976
0.58847
0.599396
0.60575
0.615728
0.634483
0.654793
0.670788
0.682974
0.694294
0.706816
0.720434
0.734329
0.744569
0.747199
0.745163
0.744928
0.744927
0.743119
0.740835
0.738401
0.735664
0.733015
0.73056
0.728016
0.72512
0.721494
0.717285
0.714381
0.715525
0.721297
0.72998
0.739328
0.747314
0.752289
0.753492
0.750841
0.745131
0.737582
0.72991
0.723444
0.718332
0.835795
0.835122
0.833784
0.831848
0.829306
0.826266
0.822784
0.818818
0.814308
0.809257
0.803735
0.797826
0.791595
0.785157
0.778691
0.772398
0.766452
0.760949
0.755885
0.751227
0.746985
0.743182
0.739794
0.736723
0.733867
0.731125
0.728377
0.725547
0.722523
0.719134
0.715248
0.710861
0.706112
0.701197
0.696318
0.691647
0.687317
0.683442
0.680063
0.677126
0.674513
0.672053
0.669588
0.66708
0.66464
0.662437
0.660515
0.658866
0.657541
0.656534
0.655854
0.655532
0.655497
0.655718
0.65617
0.65673
0.657179
0.657409
0.657526
0.6577
0.657977
0.658074
0.657638
0.656525
0.65484
0.652901
0.651184
0.650112
0.649849
0.650341
0.651355
0.652651
0.654339
0.65656
0.659425
0.662933
0.666716
0.67042
0.67404
0.677775
0.681823
0.686258
0.690993
0.695859
0.700735
0.705569
0.710376
0.715184
0.720004
0.724803
0.729584
0.734431
0.739463
0.744721
0.750136
0.755657
0.761354
0.767329
0.773515
0.779807
0.786096
0.791683
0.795917