/*--------------------------------*- C++ -*----------------------------------*\
  =========                 |
  \\      /  F ield         | OpenFOAM: The Open Source CFD Toolbox
   \\    /   O peration     | Website:  https://openfoam.org
    \\  /    A nd           | Version:  10
     \\/     M anipulation  |
\*---------------------------------------------------------------------------*/
FoamFile
{
    format      ascii;
    class       volVectorField;
    location    "0.3";
    object      Ub;
}
// * * * * * * * * * * * * * * * * * * * * * * * * * * * * * * * * * * * * * //

dimensions      [0 1 -1 0 0 0 0];

internalField   nonuniform List<vector> 
12225
(
(7.24428e-05 -0.000112139 0)
(0.000182623 -0.000111827 0)
(0.000227355 -0.000112331 0)
(0.000221477 -0.000115436 0)
(0.000186927 -0.0001214 0)
(0.000142554 -0.000129608 0)
(0.00010031 -0.000139135 0)
(6.58811e-05 -0.000148927 0)
(4.07203e-05 -0.000157774 0)
(2.39493e-05 -0.000164329 0)
(1.36979e-05 -0.000167444 0)
(7.95156e-06 -0.000166825 0)
(5.04753e-06 -0.000163551 0)
(3.92331e-06 -0.000159851 0)
(4.32979e-06 -0.000158012 0)
(8.12782e-06 -0.000159039 0)
(3.69802e-05 -0.000167627 0)
(0.000932452 -0.000457452 0)
(0.000818512 -0.000433753 0)
(0.00232253 -0.000412216 0)
(0.00354386 -0.000386736 0)
(0.00447927 -0.000367888 0)
(0.00516593 -0.000359398 0)
(0.00565018 -0.000360717 0)
(0.00597201 -0.000369651 0)
(0.00616152 -0.000383659 0)
(0.00624137 -0.000400251 0)
(0.00623215 -0.000417176 0)
(0.00615907 -0.000433046 0)
(0.00605893 -0.00044847 0)
(0.00598618 -0.000467108 0)
(0.00601865 -0.00049623 0)
(0.00627005 -0.000548523 0)
(0.00694158 -0.000654474 0)
(0.00857312 -0.000944944 0)
(0.0130401 -0.00244538 0)
(0.00120924 -0.000944887 0)
(0.00344288 -0.000869969 0)
(0.00528667 -0.000777291 0)
(0.00674393 -0.000695071 0)
(0.00787692 -0.000634974 0)
(0.00876259 -0.000598082 0)
(0.00947114 -0.000581193 0)
(0.01006 -0.000580345 0)
(0.0105752 -0.000592276 0)
(0.0110556 -0.000615047 0)
(0.0115375 -0.000648764 0)
(0.0120591 -0.000696763 0)
(0.0126668 -0.000767287 0)
(0.013426 -0.000876803 0)
(0.0144451 -0.00106047 0)
(0.0159353 -0.00141178 0)
(0.0183258 -0.00225535 0)
(0.0219419 -0.00499497 0)
(0.0014761 -0.00163317 0)
(0.00419134 -0.00148005 0)
(0.00641211 -0.0012909 0)
(0.00815206 -0.00111902 0)
(0.00949665 -0.000986647 0)
(0.0105458 -0.000896616 0)
(0.0113879 -0.000843866 0)
(0.012094 -0.000821934 0)
(0.0127196 -0.000825751 0)
(0.0133101 -0.000852817 0)
(0.0139057 -0.000904224 0)
(0.0145464 -0.000986231 0)
(0.0152784 -0.0011131 0)
(0.0161628 -0.00131345 0)
(0.0172913 -0.00164766 0)
(0.0188048 -0.00226039 0)
(0.0208486 -0.00354187 0)
(0.0230215 -0.00654165 0)
(0.00171997 -0.00249806 0)
(0.00486237 -0.00223608 0)
(0.00739176 -0.00191675 0)
(0.00933901 -0.00162688 0)
(0.0108187 -0.00140129 0)
(0.0119562 -0.00124377 0)
(0.0128581 -0.00114594 0)
(0.0136071 -0.00109755 0)
(0.014266 -0.00109073 0)
(0.0148842 -0.00112176 0)
(0.0155034 -0.00119216 0)
(0.0161632 -0.00131061 0)
(0.0169057 -0.00149653 0)
(0.0177811 -0.001788 0)
(0.0188508 -0.00226086 0)
(0.0201729 -0.003074 0)
(0.0216969 -0.00456227 0)
(0.0228759 -0.00730481 0)
(0.00197507 -0.00356155 0)
(0.00555181 -0.00314927 0)
(0.00837086 -0.00265668 0)
(0.0104907 -0.00221461 0)
(0.012065 -0.00187181 0)
(0.01325 -0.00163102 0)
(0.0141724 -0.00147821 0)
(0.0149268 -0.00139742 0)
(0.0155824 -0.00137669 0)
(0.0161913 -0.00141007 0)
(0.0167955 -0.00149873 0)
(0.0174317 -0.00165271 0)
(0.0181352 -0.00189461 0)
(0.0189405 -0.00226717 0)
(0.0198756 -0.00284871 0)
(0.0209304 -0.00378011 0)
(0.0219603 -0.00528987 0)
(0.0224945 -0.00760602 0)
(0.00226224 -0.00486165 0)
(0.00631365 -0.00424076 0)
(0.00942245 -0.00351768 0)
(0.0116914 -0.00288063 0)
(0.0133277 -0.00239235 0)
(0.0145265 -0.00205072 0)
(0.0154378 -0.00183233 0)
(0.0161683 -0.00171289 0)
(0.016793 -0.00167457 0)
(0.0173657 -0.00170791 0)
(0.017927 -0.00181251 0)
(0.0185091 -0.00199829 0)
(0.0191384 -0.00228825 0)
(0.0198326 -0.00272403 0)
(0.02059 -0.0033747 0)
(0.0213578 -0.00434453 0)
(0.0219697 -0.00575616 0)
(0.0220859 -0.00763465 0)
(0.00260239 -0.00645431 0)
(0.00719782 -0.00554004 0)
(0.0106055 -0.00450844 0)
(0.0129994 -0.0036221 0)
(0.0146625 -0.00295492 0)
(0.0158396 -0.00249304 0)
(0.0167072 -0.00219807 0)
(0.0173848 -0.00203372 0)
(0.0179522 -0.00197394 0)
(0.0184636 -0.00200417 0)
(0.0189567 -0.00212098 0)
(0.0194583 -0.0023322 0)
(0.0199847 -0.00265818 0)
(0.0205384 -0.00313421 0)
(0.0210967 -0.0038123 0)
(0.0215884 -0.00475542 0)
(0.0218656 -0.00600547 0)
(0.0217081 -0.00749481 0)
(0.003023 -0.0084205 0)
(0.00826587 -0.00708537 0)
(0.0119848 -0.00563668 0)
(0.0144711 -0.00443164 0)
(0.016116 -0.00354649 0)
(0.017228 -0.00294367 0)
(0.0180144 -0.00256143 0)
(0.018607 -0.00234647 0)
(0.0190891 -0.00226164 0)
(0.0195135 -0.00228534 0)
(0.0199141 -0.00240941 0)
(0.0203108 -0.0026376 0)
(0.0207109 -0.00298481 0)
(0.021105 -0.00347623 0)
(0.0214588 -0.00414383 0)
(0.0217012 -0.00501434 0)
(0.0217179 -0.00607914 0)
(0.0213786 -0.00724302 0)
(0.00356505 -0.0108795 0)
(0.00960477 -0.00892474 0)
(0.0136434 -0.00690507 0)
(0.0161704 -0.00529285 0)
(0.0177345 -0.00414544 0)
(0.0187257 -0.00338124 0)
(0.0193852 -0.00290277 0)
(0.0198559 -0.00263319 0)
(0.0202217 -0.00252076 0)
(0.0205324 -0.00253474 0)
(0.0208163 -0.00266055 0)
(0.0210865 -0.0028961 0)
(0.0213421 -0.0032488 0)
(0.0215665 -0.00373208 0)
(0.0217221 -0.00435904 0)
(0.0217479 -0.00512982 0)
(0.0215647 -0.00601044 0)
(0.0211023 -0.00690996 0)
(0.00429464 -0.014013 0)
(0.0113474 -0.0111153 0)
(0.0156961 -0.00830317 0)
(0.0181766 -0.006173 0)
(0.0195692 -0.00471649 0)
(0.0203657 -0.00377401 0)
(0.0208419 -0.00319473 0)
(0.0211471 -0.00287005 0)
(0.0213625 -0.00272981 0)
(0.0215314 -0.00273212 0)
(0.0216752 -0.00285463 0)
(0.0217999 -0.00308817 0)
(0.0218986 -0.00343178 0)
(0.0219508 -0.00388746 0)
(0.0219216 -0.00445319 0)
(0.0217641 -0.00511282 0)
(0.021428 -0.00582409 0)
(0.0208804 -0.00651225 0)
(0.00528741 -0.0177232 0)
(0.0136279 -0.0134896 0)
(0.018232 -0.00967314 0)
(0.0205337 -0.0069512 0)
(0.0216392 -0.00517265 0)
(0.0221569 -0.00405907 0)
(0.0223906 -0.00338993 0)
(0.0224885 -0.00301923 0)
(0.0225229 -0.00285672 0)
(0.0225276 -0.00284895 0)
(0.0225157 -0.00296574 0)
(0.0224863 -0.00319109 0)
(0.022428 -0.0035165 0)
(0.0223193 -0.00393499 0)
(0.0221301 -0.00443464 0)
(0.0218257 -0.00499156 0)
(0.0213755 -0.00556445 0)
(0.0207659 -0.00609544 0)
(0.00658474 -0.0226177 0)
(0.0164553 -0.016223 0)
(0.0211302 -0.0110178 0)
(0.02304 -0.00758828 0)
(0.023712 -0.00547321 0)
(0.0238628 -0.00420296 0)
(0.0238029 -0.00346232 0)
(0.0236642 -0.00306055 0)
(0.0235013 -0.00288572 0)
(0.0233339 -0.00287288 0)
(0.0231645 -0.00298445 0)
(0.0229853 -0.00319834 0)
(0.0227811 -0.00349991 0)
(0.0225307 -0.00387575 0)
(0.0222095 -0.00430839 0)
(0.0217928 -0.00477187 0)
(0.0212635 -0.00523005 0)
(0.0206187 -0.00563973 0)
(0.00886769 -0.0303877 0)
(0.0211241 -0.01972 0)
(0.0254662 -0.0123248 0)
(0.0265111 -0.00798884 0)
(0.0264245 -0.00552536 0)
(0.0260037 -0.00413039 0)
(0.0255197 -0.00335287 0)
(0.0250572 -0.00294749 0)
(0.0246356 -0.00277948 0)
(0.024251 -0.00277317 0)
(0.0238907 -0.00288469 0)
(0.0235376 -0.00308701 0)
(0.0231724 -0.00336074 0)
(0.0227743 -0.00368831 0)
(0.0223232 -0.00404982 0)
(0.0218028 -0.0044208 0)
(0.0212043 -0.00477244 0)
(0.0205298 -0.00507481 0)
(0.0134705 -0.0441123 0)
(0.0297022 -0.0236103 0)
(0.032301 -0.0128675 0)
(0.0314198 -0.0076141 0)
(0.0299908 -0.00496893 0)
(0.0286826 -0.00359619 0)
(0.027594 -0.00288612 0)
(0.0266974 -0.0025472 0)
(0.0259457 -0.00243188 0)
(0.0252962 -0.00246109 0)
(0.0247133 -0.00258963 0)
(0.0241673 -0.00278931 0)
(0.0236326 -0.00303923 0)
(0.0230874 -0.0033209 0)
(0.0225139 -0.00361542 0)
(0.0219 -0.00390261 0)
(0.0212406 -0.00416177 0)
(0.0205385 -0.00437404 0)
(0.0248139 -0.0729473 0)
(0.0481395 -0.0243758 0)
(0.0436369 -0.0102543 0)
(0.0383959 -0.0051901 0)
(0.0346279 -0.0030955 0)
(0.0319909 -0.00217014 0)
(0.0300807 -0.00177727 0)
(0.0286335 -0.0016567 0)
(0.027486 -0.00168915 0)
(0.0265345 -0.0018143 0)
(0.0257095 -0.0019978 0)
(0.0249619 -0.00221858 0)
(0.0242558 -0.00245986 0)
(0.023565 -0.002707 0)
(0.0228707 -0.00294605 0)
(0.0221621 -0.0031636 0)
(0.0214348 -0.00334751 0)
(0.0206909 -0.00348806 0)
(0.0633306 0.00315266 0)
(0.100088 0.00375315 0)
(0.063594 0.00272925 0)
(0.0489086 0.00193348 0)
(0.0414147 0.00133914 0)
(0.0369211 0.00085958 0)
(0.0339097 0.000446618 0)
(0.0317197 7.48075e-05 0)
(0.0300219 -0.000269873 0)
(0.0286347 -0.000595154 0)
(0.0274443 -0.000893575 0)
(0.0263714 -0.00116692 0)
(0.0253692 -0.00142346 0)
(0.0244134 -0.00165887 0)
(0.0234898 -0.00186791 0)
(0.0225906 -0.00204497 0)
(0.0217126 -0.00218586 0)
(0.0208562 -0.00228747 0)
(0.0204748 0.0747267 0)
(0.0411851 0.0303154 0)
(0.0394247 0.0156364 0)
(0.0356713 0.00937031 0)
(0.0325832 0.00614871 0)
(0.0302428 0.00425028 0)
(0.0284374 0.00300906 0)
(0.0269882 0.0021288 0)
(0.025774 0.00146333 0)
(0.0247153 0.000934875 0)
(0.0237649 0.000510871 0)
(0.0228975 0.000164938 0)
(0.022093 -0.00012821 0)
(0.0213334 -0.000376347 0)
(0.020607 -0.000583602 0)
(0.0199036 -0.000743314 0)
(0.0192162 -0.000865641 0)
(0.0185441 -0.000952682 0)
(0.00789161 0.0386986 0)
(0.0188149 0.0252214 0)
(0.0227533 0.0165584 0)
(0.0237598 0.0113366 0)
(0.0236688 0.00809832 0)
(0.0231898 0.00599129 0)
(0.0225858 0.00455087 0)
(0.0219518 0.00352039 0)
(0.0213194 0.00275342 0)
(0.0206976 0.00216361 0)
(0.0200872 0.00169883 0)
(0.0194872 0.00132583 0)
(0.0188958 0.00102352 0)
(0.0183118 0.00077846 0)
(0.0177342 0.000581804 0)
(0.017165 0.00043632 0)
(0.0166061 0.00032893 0)
(0.0160557 0.000255403 0)
(0.00435584 0.0224143 0)
(0.0112764 0.0175873 0)
(0.015202 0.0133419 0)
(0.017238 0.0101365 0)
(0.0182129 0.00781761 0)
(0.0186057 0.00614613 0)
(0.0186736 0.00492657 0)
(0.0185534 0.00402011 0)
(0.0183193 0.00333263 0)
(0.0180129 0.00280124 0)
(0.0176588 0.00238392 0)
(0.0172723 0.00205236 0)
(0.0168633 0.00178762 0)
(0.0164385 0.00157712 0)
(0.0160024 0.00141263 0)
(0.015557 0.00128932 0)
(0.015102 0.00120375 0)
(0.0146336 0.00115468 0)
(0.00291391 0.0149267 0)
(0.00786495 0.0126166 0)
(0.0112163 0.0102797 0)
(0.0133432 0.00829763 0)
(0.0146401 0.00673164 0)
(0.0153965 0.00552847 0)
(0.0158005 0.00461099 0)
(0.0159704 0.00390903 0)
(0.0159805 0.00336704 0)
(0.0158785 0.00294428 0)
(0.0156956 0.00261159 0)
(0.0154529 0.00234777 0)
(0.0151651 0.0021384 0)
(0.0148418 0.00197426 0)
(0.0144891 0.00184923 0)
(0.0141084 0.00176249 0)
(0.0136954 0.0017143 0)
(0.0132343 0.00171634 0)
(0.00215214 0.0103543 0)
(0.00595081 0.0091246 0)
(0.00877594 0.00777886 0)
(0.0107669 0.00655283 0)
(0.0121244 0.0055272 0)
(0.0130234 0.00470567 0)
(0.0135938 0.00406216 0)
(0.0139262 0.00356214 0)
(0.014084 0.0031725 0)
(0.0141118 0.00286811 0)
(0.0140396 0.00263112 0)
(0.0138881 0.00244526 0)
(0.0136724 0.00230032 0)
(0.0134002 0.00219289 0)
(0.0130752 0.0021148 0)
(0.01269 0.00207939 0)
(0.0122295 0.00207283 0)
(0.011628 0.00217237 0)
(0.00168993 0.00731045 0)
(0.0047434 0.00661815 0)
(0.00714607 0.00582557 0)
(0.00894987 0.00507077 0)
(0.0102639 0.00441618 0)
(0.0111978 0.00387977 0)
(0.0118399 0.00345762 0)
(0.0122551 0.00313254 0)
(0.0124939 0.00288029 0)
(0.0125963 0.00268575 0)
(0.0125854 0.00254469 0)
(0.0124756 0.00243943 0)
(0.0122802 0.0023613 0)
(0.011991 0.00232913 0)
(0.0116013 0.00229922 0)
(0.0110395 0.00238024 0)
(0.0102219 0.00237701 0)
(0.00856968 0.00275874 0)
(0.00137761 0.00517381 0)
(0.0039046 0.00477729 0)
(0.00596556 0.00431366 0)
(0.00757683 0.00386071 0)
(0.00880202 0.00345938 0)
(0.0097139 0.0031288 0)
(0.0103716 0.00287773 0)
(0.0108153 0.0026991 0)
(0.0110823 0.00256393 0)
(0.0112121 0.00246098 0)
(0.011213 0.00241661 0)
(0.0110781 0.0023963 0)
(0.0108242 0.00237371 0)
(0.0103653 0.00248267 0)
(0.00966096 0.00243682 0)
(0.00817247 0.00286318 0)
(0.00491071 0.00168061 0)
(0.00137283 0.00156385 0)
(0.00114484 0.00362498 0)
(0.00326521 0.00340346 0)
(0.00503415 0.0031457 0)
(0.00645259 0.00289165 0)
(0.00756041 0.00266365 0)
(0.0084104 0.00247773 0)
(0.00904181 0.00235527 0)
(0.00946525 0.00230235 0)
(0.00969881 0.00226736 0)
(0.00979418 0.00222674 0)
(0.00972532 0.00229048 0)
(0.00940383 0.00237966 0)
(0.00885516 0.00234251 0)
(0.0075575 0.00275585 0)
(0.00481465 0.00178307 0)
(0.00154217 0.00159013 0)
(1.59772e-05 0.000416612 0)
(2.18472e-10 -1.32509e-14 0)
(0.000950772 0.0024833 0)
(0.00272047 0.00237111 0)
(0.00421364 0.00224724 0)
(0.00542387 0.00212762 0)
(0.00637641 0.00201892 0)
(0.00711345 0.00193085 0)
(0.00766133 0.00190058 0)
(0.00798759 0.00196314 0)
(0.00806313 0.0020225 0)
(0.00795652 0.00199593 0)
(0.00753539 0.00218064 0)
(0.00630575 0.00236706 0)
(0.00386919 0.0015556 0)
(0.00118517 0.00146862 0)
(2.29594e-05 0.000536622 0)
(2.09889e-09 8.26741e-07 0)
(4.84349e-13 -1.74837e-14 0)
(4.73534e-13 -1.59463e-14 0)
(0.000758709 0.0016396 0)
(0.00216701 0.00159848 0)
(0.00334555 0.00156319 0)
(0.00428183 0.00153544 0)
(0.00498409 0.00150893 0)
(0.00547903 0.00148233 0)
(0.00577198 0.0015074 0)
(0.00574141 0.00166636 0)
(0.00517345 0.00177639 0)
(0.00391147 0.00150521 0)
(0.00191524 0.00115176 0)
(0.000375452 0.00117402 0)
(7.17553e-06 0.000399191 0)
(1.45563e-09 1.70686e-06 0)
(4.96377e-13 -6.80169e-15 0)
(4.81913e-13 -4.6303e-15 0)
(4.7853e-13 -1.00534e-14 0)
(4.72719e-13 -1.11801e-14 0)
(0.000498214 0.00101497 0)
(0.00138677 0.00101521 0)
(0.0020448 0.00102631 0)
(0.00243518 0.00103858 0)
(0.0025078 0.00102404 0)
(0.00221077 0.00094038 0)
(0.00153904 0.000806777 0)
(0.000715542 0.000787343 0)
(0.000172838 0.000819157 0)
(1.45712e-05 0.00056423 0)
(1.39106e-07 8.73618e-05 0)
(1.15496e-11 3.42528e-07 0)
(4.82267e-13 1.47783e-11 0)
(4.82538e-13 4.53665e-15 0)
(4.83395e-13 -2.52238e-15 0)
(4.8047e-13 -3.59771e-15 0)
(4.76886e-13 -6.10357e-15 0)
(4.71991e-13 -7.18653e-15 0)
(5.29445e-05 0.000406591 0)
(0.000105227 0.000395549 0)
(8.34422e-05 0.00039696 0)
(4.26674e-05 0.000400577 0)
(1.36855e-05 0.00038157 0)
(2.31175e-06 0.000299717 0)
(1.34863e-07 0.000144673 0)
(1.18898e-09 2.58073e-05 0)
(2.54556e-12 1.0824e-06 0)
(4.57148e-13 5.07152e-09 0)
(4.55622e-13 3.92397e-13 0)
(4.70408e-13 6.99972e-15 0)
(4.77542e-13 2.94651e-15 0)
(4.81028e-13 2.07007e-15 0)
(4.81757e-13 -1.00127e-15 0)
(4.79543e-13 -2.04833e-15 0)
(4.76074e-13 -3.27611e-15 0)
(4.71546e-13 -3.93443e-15 0)
(1.72793e-11 3.24957e-05 0)
(1.92025e-11 1.48037e-05 0)
(2.2412e-12 5.08934e-06 0)
(4.71271e-13 1.1638e-06 0)
(3.00499e-13 1.42316e-07 0)
(3.11511e-13 6.03151e-09 0)
(3.47155e-13 4.27093e-11 0)
(3.83532e-13 7.26953e-14 0)
(4.14637e-13 5.39187e-15 0)
(4.37008e-13 3.51008e-15 0)
(4.55011e-13 3.61576e-15 0)
(4.69253e-13 2.23977e-15 0)
(4.76806e-13 1.0232e-15 0)
(4.80404e-13 6.43e-16 0)
(4.81126e-13 -2.47396e-16 0)
(4.79151e-13 -6.2342e-16 0)
(4.75755e-13 -9.9708e-16 0)
(4.71366e-13 -1.21087e-15 0)
(2.65516e-15 -5.63379e-15 -7.27834e-41)
(7.98688e-15 -5.62533e-15 7.26111e-41)
(1.33513e-14 -5.61064e-15 0)
(1.87427e-14 -5.58979e-15 0)
(2.41555e-14 -5.56261e-15 0)
(2.95833e-14 -5.52916e-15 -7.11134e-41)
(3.50197e-14 -5.48953e-15 0)
(4.04587e-14 -5.44372e-15 0)
(4.58938e-14 -5.39179e-15 0)
(5.13183e-14 -5.33384e-15 0)
(5.67272e-14 -5.27028e-15 6.74466e-41)
(6.21118e-14 -5.201e-15 0)
(6.74669e-14 -5.12646e-15 0)
(7.27864e-14 -5.04683e-15 0)
(7.80634e-14 -4.96242e-15 0)
(8.32936e-14 -4.87349e-15 6.20047e-41)
(8.84687e-14 -4.78038e-15 0)
(9.3587e-14 -4.68351e-15 0)
(9.86394e-14 -4.58322e-15 0)
(1.03622e-13 -4.47979e-15 0)
(1.08532e-13 -4.37373e-15 0)
(1.13365e-13 -4.26531e-15 0)
(1.18115e-13 -4.15493e-15 0)
(1.22778e-13 -4.04296e-15 5.08051e-41)
(1.27352e-13 -3.92983e-15 -4.92882e-41)
(1.31835e-13 -3.81588e-15 4.77622e-41)
(1.36223e-13 -3.70136e-15 4.62309e-41)
(1.40513e-13 -3.58673e-15 0)
(1.44705e-13 -3.47224e-15 0)
(1.48797e-13 -3.35818e-15 -4.16473e-41)
(1.52786e-13 -3.24483e-15 -4.01348e-41)
(1.56673e-13 -3.1325e-15 0)
(1.60458e-13 -3.02139e-15 0)
(1.64139e-13 -2.91168e-15 -3.56949e-41)
(1.67715e-13 -2.80358e-15 0)
(1.71189e-13 -2.69733e-15 0)
(1.74559e-13 -2.59307e-15 3.14541e-41)
(1.77827e-13 -2.49089e-15 0)
(1.80992e-13 -2.39092e-15 2.87653e-41)
(1.84059e-13 -2.29332e-15 5.49355e-41)
(1.87027e-13 -2.19807e-15 0)
(1.89892e-13 -2.10537e-15 0)
(1.92665e-13 -2.01515e-15 0)
(1.95343e-13 -1.92752e-15 0)
(1.97927e-13 -1.84249e-15 0)
(2.00416e-13 -1.76008e-15 4.07655e-41)
(2.02822e-13 -1.68028e-15 3.86461e-41)
(2.05135e-13 -1.60311e-15 3.65965e-41)
(2.07362e-13 -1.52854e-15 0)
(2.09508e-13 -1.45653e-15 -3.27042e-41)
(2.11572e-13 -1.3871e-15 0)
(2.13553e-13 -1.32017e-15 2.90839e-41)
(2.15465e-13 -1.25572e-15 2.73726e-41)
(2.17293e-13 -1.19371e-15 0)
(2.19049e-13 -1.13408e-15 0)
(2.20735e-13 -1.07681e-15 0)
(2.22352e-13 -1.0218e-15 2.11636e-41)
(2.23906e-13 -9.6904e-16 0)
(2.25391e-13 -9.18434e-16 0)
(2.26815e-13 -8.6995e-16 0)
(2.28175e-13 -8.23499e-16 0)
(2.29481e-13 -7.79047e-16 0)
(2.30727e-13 -7.36536e-16 0)
(2.3192e-13 -6.95882e-16 0)
(2.33058e-13 -6.57047e-16 0)
(2.34148e-13 -6.19947e-16 -1.04972e-41)
(2.35185e-13 -5.84541e-16 0)
(2.36176e-13 -5.50761e-16 0)
(2.37123e-13 -5.1856e-16 7.8062e-42)
(2.38025e-13 -4.87854e-16 6.99099e-42)
(2.38882e-13 -4.58618e-16 0)
(2.39702e-13 -4.30781e-16 -5.47627e-42)
(2.4048e-13 -4.04285e-16 4.77304e-42)
(2.41224e-13 -3.79095e-16 0)
(2.4193e-13 -3.55137e-16 -3.46828e-42)
(2.42599e-13 -3.32376e-16 0)
(2.43238e-13 -3.10759e-16 0)
(2.43845e-13 -2.90236e-16 1.74549e-42)
(2.44421e-13 -2.70761e-16 0)
(2.44966e-13 -2.52294e-16 -7.38222e-43)
(2.45486e-13 -2.34789e-16 0)
(2.45977e-13 -2.18201e-16 -1.66995e-43)
(2.46442e-13 -2.02495e-16 -5.83991e-43)
(2.46884e-13 -1.87626e-16 -9.78741e-43)
(2.473e-13 -1.73557e-16 -2.70437e-42)
(2.47696e-13 -1.60257e-16 3.41083e-42)
(2.48071e-13 -1.47686e-16 0)
(2.48423e-13 -1.35808e-16 0)
(2.48759e-13 -1.24594e-16 0)
(2.49075e-13 -1.14011e-16 5.8666e-42)
(2.49375e-13 -1.04029e-16 6.39693e-42)
(2.49654e-13 -9.4617e-17 -6.89671e-42)
(2.4992e-13 -8.57485e-17 0)
(2.5017e-13 -7.73959e-17 7.81132e-42)
(2.50407e-13 -6.95338e-17 8.22908e-42)
(2.50629e-13 -6.21375e-17 8.62201e-42)
(2.50836e-13 -5.51812e-17 0)
(2.51034e-13 -4.86447e-17 0)
(2.51219e-13 -4.25028e-17 0)
(2.51393e-13 -3.67379e-17 9.97116e-42)
(2.51556e-13 -3.13288e-17 0)
(2.51712e-13 -2.62572e-17 0)
(2.51856e-13 -2.15024e-17 -1.07805e-41)
(2.51988e-13 -1.70465e-17 0)
(2.52114e-13 -1.28774e-17 0)
(2.52234e-13 -8.97516e-18 -1.14461e-41)
(2.52343e-13 -5.3253e-18 0)
(2.52449e-13 -1.91641e-18 0)
(2.52545e-13 1.27013e-18 1.19904e-41)
(2.52636e-13 4.24279e-18 1.21484e-41)
(2.5272e-13 7.01852e-18 0)
(2.52801e-13 9.60493e-18 -1.24335e-41)
(2.52874e-13 1.2016e-17 0)
(2.52942e-13 1.42623e-17 1.26809e-41)
(2.53006e-13 1.63524e-17 0)
(2.53067e-13 1.82955e-17 1.28954e-41)
(2.5312e-13 2.01035e-17 1.29912e-41)
(2.53174e-13 2.17806e-17 0)
(2.53223e-13 2.33391e-17 0)
(2.53266e-13 2.47876e-17 0)
(2.5331e-13 2.61284e-17 0)
(2.53344e-13 2.73702e-17 0)
(2.53381e-13 2.85213e-17 0)
(2.53414e-13 2.95869e-17 0)
(2.53445e-13 3.0572e-17 1.35479e-41)
(2.53474e-13 3.14825e-17 -1.35962e-41)
(2.53499e-13 3.23236e-17 0)
(2.53523e-13 3.3102e-17 0)
(2.53545e-13 3.38178e-17 0)
(2.53566e-13 3.44793e-17 0)
(2.53584e-13 3.50892e-17 -2.75756e-41)
(2.53603e-13 3.56491e-17 0)
(2.5362e-13 3.61649e-17 2.76904e-41)
(2.53636e-13 3.66393e-17 -2.77408e-41)
(2.53646e-13 3.70789e-17 0)
(2.53656e-13 3.74829e-17 0)
(2.5367e-13 3.78522e-17 0)
(2.53682e-13 3.81927e-17 2.79065e-41)
(2.53691e-13 3.85104e-17 2.79398e-41)
(2.53702e-13 3.87992e-17 0)
(2.53709e-13 3.90685e-17 2.79993e-41)
(2.53715e-13 3.93184e-17 2.80256e-41)
(2.53721e-13 3.95522e-17 -2.80501e-41)
(2.53728e-13 3.9769e-17 0)
(2.53729e-13 3.99766e-17 0)
(2.53735e-13 4.01731e-17 -2.8116e-41)
(2.5374e-13 4.03628e-17 0)
(2.53743e-13 4.05492e-17 0)
(2.53748e-13 4.07355e-17 0)
(2.5375e-13 4.09269e-17 0)
(2.53752e-13 4.1126e-17 2.82158e-41)
(2.53752e-13 4.1342e-17 2.82381e-41)
(2.53752e-13 4.15792e-17 0)
(2.53752e-13 4.18451e-17 2.82903e-41)
(2.5375e-13 4.21526e-17 0)
(2.53748e-13 4.25109e-17 0)
(2.53741e-13 4.29412e-17 2.84026e-41)
(2.53735e-13 4.34596e-17 0)
(2.53728e-13 4.40931e-17 2.85206e-41)
(2.53717e-13 4.48775e-17 0)
(2.53703e-13 4.58516e-17 0)
(2.53682e-13 4.70705e-17 2.8824e-41)
(2.53658e-13 4.86061e-17 0)
(2.53627e-13 5.05509e-17 2.91784e-41)
(2.53589e-13 5.30209e-17 0)
(2.53539e-13 5.6182e-17 0)
(2.53473e-13 6.02444e-17 0)
(2.53386e-13 6.54977e-17 -3.07012e-41)
(2.53275e-13 7.23341e-17 0)
(2.53133e-13 8.1316e-17 3.23131e-41)
(2.52949e-13 9.32287e-17 0)
(2.52697e-13 1.09244e-16 0)
(2.52369e-13 1.31143e-16 0)
(2.51925e-13 1.61782e-16 0)
(2.51322e-13 2.06039e-16 0)
(2.50472e-13 2.72965e-16 0)
(2.49228e-13 3.81461e-16 0)
(2.47311e-13 5.78429e-16 -1.66327e-40)
(2.43968e-13 1.01422e-15 0)
(2.36559e-13 2.38069e-15 0)
(2.66802e-15 -1.70118e-14 2.19777e-40)
(8.02543e-15 -1.69861e-14 -2.19256e-40)
(1.34157e-14 -1.69416e-14 0)
(1.88325e-14 -1.68788e-14 4.35417e-40)
(2.42702e-14 -1.67968e-14 0)
(2.97225e-14 -1.66958e-14 -2.15438e-40)
(3.51837e-14 -1.65759e-14 -4.26816e-40)
(4.06459e-14 -1.64376e-14 -4.22979e-40)
(4.61035e-14 -1.62805e-14 0)
(5.15495e-14 -1.61058e-14 -4.13888e-40)
(5.69783e-14 -1.59136e-14 2.05006e-40)
(6.23824e-14 -1.57046e-14 0)
(6.77561e-14 -1.54795e-14 0)
(7.30917e-14 -1.52392e-14 0)
(7.83848e-14 -1.49842e-14 0)
(8.36284e-14 -1.47161e-14 1.89213e-40)
(8.88157e-14 -1.44353e-14 0)
(9.39444e-14 -1.41432e-14 3.61159e-40)
(9.90063e-14 -1.38406e-14 0)
(1.03998e-13 -1.3529e-14 0)
(1.08913e-13 -1.32094e-14 -3.36309e-40)
(1.13749e-13 -1.28827e-14 0)
(1.18504e-13 -1.25504e-14 3.18825e-40)
(1.23168e-13 -1.22133e-14 1.564e-40)
(1.27742e-13 -1.18728e-14 -1.51943e-40)
(1.32223e-13 -1.15298e-14 1.47459e-40)
(1.3661e-13 -1.11853e-14 1.42955e-40)
(1.40899e-13 -1.08405e-14 0)
(1.45086e-13 -1.04962e-14 0)
(1.49172e-13 -1.01534e-14 -1.29469e-40)
(1.53156e-13 -9.81268e-15 -3.71437e-40)
(1.57037e-13 -9.47506e-15 0)
(1.60815e-13 -9.14129e-15 0)
(1.64488e-13 -8.81174e-15 -1.11948e-40)
(1.68057e-13 -8.48719e-15 0)
(1.7152e-13 -8.16827e-15 0)
(1.74882e-13 -7.85515e-15 9.94614e-41)
(1.7814e-13 -7.54849e-15 0)
(1.81297e-13 -7.2486e-15 2.70357e-40)
(1.84355e-13 -6.95564e-15 1.75447e-40)
(1.87309e-13 -6.67007e-15 0)
(1.90169e-13 -6.39186e-15 0)
(1.9293e-13 -6.1213e-15 -2.98244e-40)
(1.95598e-13 -5.85851e-15 -2.84405e-40)
(1.9817e-13 -5.60359e-15 -2.70982e-40)
(2.00653e-13 -5.35647e-15 3.91697e-40)
(2.03042e-13 -5.11727e-15 1.27484e-40)
(2.05348e-13 -4.88588e-15 -1.11753e-40)
(2.07574e-13 -4.66229e-15 2.21432e-40)
(2.09706e-13 -4.44653e-15 -1.09989e-40)
(2.11759e-13 -4.23836e-15 0)
(2.13737e-13 -4.03781e-15 9.93303e-41)
(2.15635e-13 -3.84472e-15 2.72695e-40)
(2.17458e-13 -3.65888e-15 0)
(2.19205e-13 -3.48023e-15 0)
(2.20884e-13 -3.30858e-15 0)
(2.22494e-13 -3.14378e-15 7.60117e-41)
(2.24038e-13 -2.98568e-15 0)
(2.25518e-13 -2.83406e-15 1.2522e-40)
(2.26937e-13 -2.68879e-15 0)
(2.28293e-13 -2.54966e-15 1.10255e-40)
(2.29594e-13 -2.4165e-15 0)
(2.30831e-13 -2.28914e-15 -9.65467e-41)
(2.32018e-13 -2.16736e-15 0)
(2.33152e-13 -2.05101e-15 8.40163e-41)
(2.34235e-13 -1.93988e-15 -1.22784e-40)
(2.35268e-13 -1.83381e-15 0)
(2.36254e-13 -1.73262e-15 -6.7263e-41)
(2.37197e-13 -1.63614e-15 3.66932e-41)
(2.38096e-13 -1.54417e-15 3.42949e-41)
(2.38948e-13 -1.45661e-15 0)
(2.39765e-13 -1.37322e-15 -7.81868e-41)
(2.4054e-13 -1.29386e-15 2.77667e-41)
(2.41281e-13 -1.21839e-15 0)
(2.41982e-13 -1.14665e-15 -2.3927e-41)
(2.42648e-13 -1.07846e-15 -3.28394e-41)
(2.43285e-13 -1.0137e-15 0)
(2.43888e-13 -9.52228e-16 1.88565e-41)
(2.44462e-13 -8.93891e-16 0)
(2.45005e-13 -8.38583e-16 4.32344e-42)
(2.45522e-13 -7.86141e-16 0)
(2.46012e-13 -7.36454e-16 -1.61241e-42)
(2.46473e-13 -6.894e-16 1.20015e-41)
(2.46915e-13 -6.44867e-16 2.0861e-41)
(2.4733e-13 -6.02735e-16 3.50885e-41)
(2.47724e-13 -5.62884e-16 -2.88156e-41)
(2.48097e-13 -5.25228e-16 0)
(2.48449e-13 -4.89653e-16 0)
(2.48782e-13 -4.56063e-16 0)
(2.49096e-13 -4.24357e-16 -1.33471e-41)
(2.49394e-13 -3.9446e-16 -8.61685e-42)
(2.4967e-13 -3.66257e-16 7.14618e-42)
(2.49937e-13 -3.39697e-16 0)
(2.50185e-13 -3.14676e-16 1.02619e-41)
(2.50421e-13 -2.91124e-16 -3.22618e-42)
(2.50643e-13 -2.68969e-16 -2.07022e-42)
(2.50851e-13 -2.48132e-16 0)
(2.51046e-13 -2.28546e-16 0)
(2.5123e-13 -2.10152e-16 0)
(2.51403e-13 -1.92881e-16 1.89915e-42)
(2.51566e-13 -1.76679e-16 0)
(2.51719e-13 -1.61482e-16 3.08461e-41)
(2.51861e-13 -1.47237e-16 2.80656e-41)
(2.51995e-13 -1.33896e-16 -3.37513e-41)
(2.5212e-13 -1.21404e-16 0)
(2.52239e-13 -1.09715e-16 -4.25354e-41)
(2.52352e-13 -9.87844e-17 0)
(2.52456e-13 -8.85692e-17 -3.85245e-41)
(2.52548e-13 -7.90214e-17 4.73691e-41)
(2.52638e-13 -7.01123e-17 4.87718e-41)
(2.52721e-13 -6.18029e-17 0)
(2.52805e-13 -5.40526e-17 3.30167e-41)
(2.52874e-13 -4.68291e-17 -4.29195e-41)
(2.52945e-13 -4.01053e-17 9.8704e-42)
(2.53011e-13 -3.3844e-17 0)
(2.53068e-13 -2.80232e-17 1.05009e-41)
(2.53122e-13 -2.26056e-17 -3.46877e-41)
(2.53174e-13 -1.75759e-17 0)
(2.53221e-13 -1.29088e-17 -4.64926e-41)
(2.53268e-13 -8.57197e-18 -4.69491e-41)
(2.5331e-13 -4.55704e-18 -4.73723e-41)
(2.53349e-13 -8.38563e-19 0)
(2.53382e-13 2.61394e-18 0)
(2.53414e-13 5.80556e-18 0)
(2.53445e-13 8.75663e-18 6.11947e-41)
(2.53471e-13 1.14858e-17 -1.25623e-41)
(2.535e-13 1.40082e-17 0)
(2.53523e-13 1.63359e-17 4.95727e-41)
(2.53547e-13 1.84772e-17 4.9799e-41)
(2.53566e-13 2.04626e-17 0)
(2.53585e-13 2.22871e-17 -2.62521e-41)
(2.53601e-13 2.39643e-17 1.00753e-40)
(2.53617e-13 2.5516e-17 2.65893e-41)
(2.53632e-13 2.69407e-17 -1.28118e-40)
(2.5365e-13 2.82519e-17 0)
(2.53658e-13 2.94615e-17 0)
(2.5367e-13 3.05711e-17 0)
(2.53677e-13 3.15977e-17 2.72236e-41)
(2.53693e-13 3.25345e-17 1.29881e-40)
(2.53696e-13 3.34104e-17 1.02743e-40)
(2.53707e-13 3.42083e-17 2.74966e-41)
(2.53715e-13 3.49621e-17 1.30645e-40)
(2.53722e-13 3.5655e-17 -2.76474e-41)
(2.53724e-13 3.63123e-17 0)
(2.53731e-13 3.69289e-17 0)
(2.53736e-13 3.75168e-17 -1.31449e-40)
(2.5374e-13 3.80877e-17 0)
(2.53745e-13 3.8645e-17 0)
(2.53745e-13 3.92075e-17 1.0396e-40)
(2.5375e-13 3.97767e-17 0)
(2.5375e-13 4.03747e-17 1.32341e-40)
(2.53754e-13 4.10099e-17 2.82043e-41)
(2.5375e-13 4.17231e-17 0)
(2.5375e-13 4.25143e-17 1.33007e-40)
(2.5375e-13 4.34375e-17 0)
(2.53747e-13 4.45099e-17 0)
(2.5374e-13 4.57923e-17 2.86975e-41)
(2.53735e-13 4.73424e-17 1.05639e-40)
(2.53729e-13 4.92312e-17 2.90521e-41)
(2.53719e-13 5.15724e-17 0)
(2.53703e-13 5.44829e-17 0)
(2.53686e-13 5.81251e-17 1.37817e-40)
(2.53663e-13 6.27025e-17 0)
(2.5363e-13 6.85012e-17 1.41011e-40)
(2.53592e-13 7.58823e-17 0)
(2.53539e-13 8.53132e-17 0)
(2.53476e-13 9.74342e-17 0)
(2.53393e-13 1.13091e-16 -3.56235e-41)
(2.53284e-13 1.33484e-16 0)
(2.53143e-13 1.60243e-16 4.04749e-41)
(2.52957e-13 1.95727e-16 0)
(2.52716e-13 2.43378e-16 0)
(2.52392e-13 3.08464e-16 1.59131e-40)
(2.51963e-13 3.99344e-16 -1.7776e-40)
(2.51374e-13 5.30209e-16 0)
(2.50551e-13 7.27039e-16 0)
(2.49372e-13 1.04289e-15 0)
(2.47595e-13 1.60328e-15 4.71842e-40)
(2.44775e-13 2.77221e-15 0)
(2.40327e-13 5.92123e-15 -2.63052e-39)
(2.694e-15 -2.84731e-14 1.4717e-39)
(8.10333e-15 -2.84295e-14 -1.92843e-43)
(1.35454e-14 -2.83545e-14 0)
(1.9014e-14 -2.82476e-14 4.50424e-43)
(2.45024e-14 -2.81092e-14 0)
(3.00051e-14 -2.79386e-14 0)
(3.55143e-14 -2.77358e-14 -1.42972e-39)
(4.10243e-14 -2.75019e-14 -7.08967e-40)
(4.65272e-14 -2.72367e-14 7.0075e-40)
(5.2017e-14 -2.69411e-14 -6.93957e-40)
(5.74874e-14 -2.66167e-14 0)
(6.29301e-14 -2.62637e-14 0)
(6.8339e-14 -2.5884e-14 -6.64243e-40)
(7.37084e-14 -2.54783e-14 -1.30676e-39)
(7.90318e-14 -2.50485e-14 1.28378e-39)
(8.43032e-14 -2.45964e-14 0)
(8.95165e-14 -2.41234e-14 1.23447e-39)
(9.46656e-14 -2.36317e-14 6.06395e-40)
(9.97453e-14 -2.31226e-14 0)
(1.04752e-13 -2.25981e-14 1.15346e-39)
(1.09681e-13 -2.20607e-14 -5.65076e-40)
(1.14526e-13 -2.15118e-14 -1.0959e-39)
(1.19285e-13 -2.09534e-14 5.35999e-40)
(1.23953e-13 -2.03877e-14 0)
(1.28529e-13 -1.98161e-14 1.00626e-39)
(1.33008e-13 -1.92411e-14 9.75892e-40)
(1.37391e-13 -1.86636e-14 0)
(1.41673e-13 -1.80861e-14 9.14964e-40)
(1.45852e-13 -1.75095e-14 0)
(1.49928e-13 -1.69358e-14 8.54321e-40)
(1.53899e-13 -1.63659e-14 -4.15779e-40)
(1.57766e-13 -1.58015e-14 0)
(1.6153e-13 -1.52434e-14 0)
(1.65186e-13 -1.46928e-14 0)
(1.68739e-13 -1.41509e-14 0)
(1.72186e-13 -1.36183e-14 0)
(1.75528e-13 -1.30962e-14 0)
(1.78769e-13 -1.25846e-14 6.25282e-40)
(1.81905e-13 -1.20844e-14 -2.95192e-40)
(1.84941e-13 -1.15959e-14 0)
(1.8788e-13 -1.11198e-14 0)
(1.90717e-13 -1.06565e-14 0)
(1.93459e-13 -1.02058e-14 -1.00958e-39)
(1.96107e-13 -9.76812e-15 -4.86478e-40)
(1.98661e-13 -9.3436e-15 -9.38147e-42)
(2.01125e-13 -8.93231e-15 9.49774e-42)
(2.03497e-13 -8.53413e-15 -4.12377e-40)
(2.05783e-13 -8.14908e-15 -4.01864e-40)
(2.07986e-13 -7.77714e-15 7.55031e-40)
(2.10106e-13 -7.41811e-15 3.53744e-40)
(2.12141e-13 -7.07193e-15 0)
(2.141e-13 -6.73837e-15 3.18036e-40)
(2.15978e-13 -6.41718e-15 6.1253e-40)
(2.17788e-13 -6.10823e-15 0)
(2.19521e-13 -5.81119e-15 0)
(2.21188e-13 -5.52588e-15 -2.54347e-40)
(2.22782e-13 -5.2519e-15 0)
(2.24312e-13 -4.98901e-15 0)
(2.25776e-13 -4.73701e-15 6.49401e-40)
(2.27179e-13 -4.49551e-15 4.00463e-40)
(2.28524e-13 -4.26428e-15 1.98876e-40)
(2.29811e-13 -4.04302e-15 0)
(2.31041e-13 -3.83133e-15 -1.76254e-40)
(2.32217e-13 -3.62893e-15 0)
(2.33341e-13 -3.43557e-15 4.44699e-40)
(2.34411e-13 -3.25093e-15 -1.45931e-40)
(2.35438e-13 -3.07466e-15 -2.51209e-40)
(2.36417e-13 -2.90652e-15 -3.61485e-40)
(2.37347e-13 -2.7462e-15 0)
(2.38237e-13 -2.59337e-15 2.00653e-40)
(2.39087e-13 -2.44788e-15 0)
(2.39893e-13 -2.30931e-15 7.40782e-41)
(2.4066e-13 -2.17743e-15 1.5696e-40)
(2.41392e-13 -2.05204e-15 1.43787e-40)
(2.42091e-13 -1.93281e-15 -1.31261e-40)
(2.4275e-13 -1.81952e-15 4.82176e-41)
(2.43382e-13 -1.71191e-15 0)
(2.43978e-13 -1.60978e-15 0)
(2.44544e-13 -1.51286e-15 -8.71432e-41)
(2.45085e-13 -1.42096e-15 -2.71707e-41)
(2.45593e-13 -1.33381e-15 0)
(2.46077e-13 -1.25126e-15 -4.14497e-41)
(2.46539e-13 -1.17308e-15 0)
(2.46974e-13 -1.09907e-15 -1.01737e-41)
(2.47385e-13 -1.02906e-15 9.59924e-41)
(2.47776e-13 -9.62853e-16 -8.21168e-41)
(2.48145e-13 -9.00281e-16 2.27839e-41)
(2.48492e-13 -8.41158e-16 0)
(2.48825e-13 -7.85342e-16 -1.07076e-41)
(2.49136e-13 -7.32667e-16 3.38736e-41)