/*--------------------------------*- C++ -*----------------------------------*\
  =========                 |
  \\      /  F ield         | OpenFOAM: The Open Source CFD Toolbox
   \\    /   O peration     | Website:  https://openfoam.org
    \\  /    A nd           | Version:  10
     \\/     M anipulation  |
\*---------------------------------------------------------------------------*/
FoamFile
{
    format      ascii;
    class       volScalarField;
    location    "9800";
    object      p;
}
// * * * * * * * * * * * * * * * * * * * * * * * * * * * * * * * * * * * * * //

dimensions      [1 -1 -2 0 0 0 0];

internalField   nonuniform List<scalar> 
6400
(
111.448
111.46
111.485
111.521
111.571
111.632
111.707
111.796
111.898
112.015
112.148
112.296
112.462
112.646
112.851
113.077
113.326
113.603
113.909
114.25
114.63
115.057
115.542
116.1
116.755
117.544
118.53
236.29
714.086
1093.56
1463.08
1824.19
2075.38
2224.23
2365.68
2496.79
2613.12
2708.69
2777.02
2812.69
2812.69
2777.02
2708.69
2613.12
2496.79
2365.68
2224.23
2075.38
1824.19
1463.08
1093.56
714.086
236.29
118.53
117.544
116.755
116.1
115.542
115.057
114.63
114.25
113.909
113.603
113.326
113.077
112.851
112.646
112.462
112.296
112.148
112.015
111.898
111.796
111.707
111.632
111.571
111.521
111.485
111.46
111.448
111.154
111.166
111.19
111.227
111.276
111.338
111.413
111.501
111.604
111.721
111.853
112.002
112.167
112.352
112.556
112.782
113.031
113.307
113.614
113.954
114.334
114.761
115.245
115.802
116.455
117.242
118.233
120.669
424.468
799.759
1169.31
1530.72
1782.62
1931.87
2074.02
2206.15
2323.86
2420.92
2490.5
2526.86
2526.86
2490.5
2420.92
2323.86
2206.15
2074.02
1931.87
1782.62
1530.72
1169.31
799.759
424.468
120.669
118.233
117.242
116.455
115.802
115.245
114.761
114.334
113.954
113.614
113.307
113.031
112.782
112.556
112.352
112.167
112.002
111.853
111.721
111.604
111.501
111.413
111.338
111.276
111.227
111.19
111.166
111.154
110.83
110.842
110.867
110.903
110.952
111.014
111.089
111.177
111.28
111.397
111.529
111.677
111.843
112.027
112.231
112.457
112.706
112.982
113.288
113.627
114.007
114.433
114.916
115.47
116.119
116.9
117.896
119.577
121.035
477.368
847.29
1209.39
1463.03
1613.12
1756.87
1891.39
2012.38
2113
2185.57
2223.56
2223.56
2185.57
2113
2012.38
1891.39
1756.87
1613.12
1463.03
1209.39
847.29
477.368
121.035
119.577
117.896
116.9
116.119
115.47
114.916
114.433
114.007
113.627
113.288
112.982
112.706
112.457
112.231
112.027
111.843
111.677
111.529
111.397
111.28
111.177
111.089
111.014
110.952
110.903
110.867
110.842
110.83
110.474
110.486
110.511
110.547
110.596
110.658
110.733
110.821
110.924
111.04
111.173
111.321
111.486
111.67
111.874
112.099
112.348
112.623
112.928
113.267
113.645
114.069
114.55
115.1
115.743
116.512
117.483
118.888
119.569
121.994
494.216
857.497
1114.38
1265.58
1412.13
1550.78
1677.74
1784.92
1862.99
1903.96
1903.96
1862.99
1784.92
1677.74
1550.78
1412.13
1265.58
1114.38
857.497
494.216
121.994
119.569
118.888
117.483
116.512
115.743
115.1
114.55
114.069
113.645
113.267
112.928
112.623
112.348
112.099
111.874
111.67
111.486
111.321
111.173
111.04
110.924
110.821
110.733
110.658
110.596
110.547
110.511
110.486
110.474
110.083
110.095
110.12
110.156
110.205
110.267
110.342
110.43
110.532
110.648
110.78
110.928
111.093
111.277
111.48
111.705
111.953
112.227
112.531
112.869
113.245
113.666
114.143
114.687
115.32
116.071
116.997
118.187
118.896
119.544
121.13
472.043
734.687
886.284
1037.34
1182.16
1319.06
1437.34
1524.75
1570.62
1570.62
1524.75
1437.34
1319.06
1182.16
1037.34
886.284
734.687
472.043
121.13
119.544
118.896
118.187
116.997
116.071
115.32
114.687
114.143
113.666
113.245
112.869
112.531
112.227
111.953
111.705
111.48
111.277
111.093
110.928
110.78
110.648
110.532
110.43
110.342
110.267
110.205
110.156
110.12
110.095
110.083
109.653
109.665
109.689
109.726
109.775
109.836
109.911
109.999
110.101
110.217
110.349
110.496
110.661
110.844
111.046
111.27
111.517
111.791
112.093
112.428
112.801
113.219
113.69
114.227
114.845
115.572
116.441
117.461
118.163
118.752
119.087
119.39
325.55
471.225
630.005
782.48
935.599
1072.12
1175.14
1228.62
1228.62
1175.14
1072.12
935.599
782.48
630.005
471.225
325.55
119.39
119.087
118.752
118.163
117.461
116.441
115.572
114.845
114.227
113.69
113.219
112.801
112.428
112.093
111.791
111.517
111.27
111.046
110.844
110.661
110.496
110.349
110.217
110.101
109.999
109.911
109.836
109.775
109.726
109.689
109.665
109.653
109.18
109.192
109.216
109.253
109.301
109.363
109.437
109.525
109.626
109.742
109.874
110.021
110.185
110.367
110.568
110.791
111.037
111.308
111.608
111.941
112.31
112.723
113.187
113.712
114.313
115.008
115.814
116.699
117.372
117.912
118.235
118.317
118.244
118.529
206.454
349.013
528.999
693.965
823.383
887.772
887.772
823.383
693.965
528.999
349.013
206.454
118.529
118.244
118.317
118.235
117.912
117.372
116.699
115.814
115.008
114.313
113.712
113.187
112.723
112.31
111.941
111.608
111.308
111.037
110.791
110.568
110.367
110.185
110.021
109.874
109.742
109.626
109.525
109.437
109.363
109.301
109.253
109.216
109.192
109.18
108.66
108.672
108.696
108.732
108.781
108.842
108.916
109.003
109.104
109.22
109.35
109.497
109.66
109.841
110.041
110.262
110.507
110.776
111.073
111.402
111.766
112.172
112.627
113.138
113.718
114.376
115.116
115.892
116.522
117.019
117.333
117.456
117.474
117.545
117.524
117.609
162.789
323.26
492.505
568.272
568.272
492.505
323.26
162.789
117.609
117.524
117.545
117.474
117.456
117.333
117.019
116.522
115.892
115.116
114.376
113.718
113.138
112.627
112.172
111.766
111.402
111.073
110.776
110.507
110.262
110.041
109.841
109.66
109.497
109.35
109.22
109.104
109.003
108.916
108.842
108.781
108.732
108.696
108.672
108.66
108.087
108.099
108.123
108.159
108.207
108.268
108.342
108.429
108.529
108.644
108.774
108.919
109.081
109.261
109.46
109.679
109.921
110.187
110.481
110.804
111.163
111.56
112.003
112.498
113.051
113.669
114.344
115.03
115.61
116.068
116.373
116.526
116.581
116.621
116.637
116.655
116.669
128.692
250.931
315.465
315.465
250.931
128.692
116.669
116.655
116.637
116.621
116.581
116.526
116.373
116.068
115.61
115.03
114.344
113.669
113.051
112.498
112.003
111.56
111.163
110.804
110.481
110.187
109.921
109.679
109.46
109.261
109.081
108.919
108.774
108.644
108.529
108.429
108.342
108.268
108.207
108.159
108.123
108.099
108.087
107.457
107.468
107.492
107.528
107.576
107.636
107.71
107.796
107.896
108.01
108.139
108.283
108.443
108.621
108.818
109.035
109.274
109.536
109.825
110.143
110.494
110.881
111.309
111.784
112.309
112.884
113.496
114.104
114.632
115.055
115.35
115.522
115.594
115.633
115.662
115.69
115.724
117.01
155.137
186.363
186.363
155.137
117.01
115.724
115.69
115.662
115.633
115.594
115.522
115.35
115.055
114.632
114.104
113.496
112.884
112.309
111.784
111.309
110.881
110.494
110.143
109.825
109.536
109.274
109.035
108.818
108.621
108.443
108.283
108.139
108.01
107.896
107.796
107.71
107.636
107.576
107.528
107.492
107.468
107.457
106.762
106.774
106.798
106.833
106.881
106.941
107.013
107.099
107.198
107.311
107.438
107.581
107.74
107.916
108.11
108.324
108.558
108.816
109.099
109.41
109.751
110.126
110.538
110.99
111.483
112.013
112.566
113.107
113.585
113.973
114.255
114.437
114.518
114.56
114.594
114.625
114.656
115.004
129.537
144.3
144.3
129.537
115.004
114.656
114.625
114.594
114.56
114.518
114.437
114.255
113.973
113.585
113.107
112.566
112.013
111.483
110.99
110.538
110.126
109.751
109.41
109.099
108.816
108.558
108.324
108.11
107.916
107.74
107.581
107.438
107.311
107.198
107.099
107.013
106.941
106.881
106.833
106.798
106.774
106.762
105.998
106.009
106.033
106.068
106.115
106.174
106.246
106.331
106.429
106.54
106.666
106.807
106.963
107.137
107.328
107.537
107.768
108.02
108.296
108.598
108.927
109.288
109.681
110.107
110.566
111.052
111.55
112.031
112.46
112.815
113.082
113.265
113.351
113.393
113.428
113.455
113.475
113.553
119.351
127.548
127.548
119.351
113.553
113.475
113.455
113.428
113.393
113.351
113.265
113.082
112.815
112.46
112.031
111.55
111.052
110.566
110.107
109.681
109.288
108.927
108.598
108.296
108.02
107.768
107.537
107.328
107.137
106.963
106.807
106.666
106.54
106.429
106.331
106.246
106.174
106.115
106.068
106.033
106.009
105.998
105.155
105.167
105.19
105.224
105.271
105.33
105.4
105.484
105.58
105.69
105.814
105.952
106.106
106.276
106.463
106.668
106.893
107.138
107.406
107.697
108.014
108.358
108.729
109.129
109.553
109.994
110.44
110.868
111.252
111.574
111.823
112.001
112.086
112.128
112.16
112.183
112.195
112.196
114.055
119.1
119.1
114.055
112.196
112.195
112.183
112.16
112.128
112.086
112.001
111.823
111.574
111.252
110.868
110.44
109.994
109.553
109.129
108.729
108.358
108.014
107.697
107.406
107.138
106.893
106.668
106.463
106.276
106.106
105.952
105.814
105.69
105.58
105.484
105.4
105.33
105.271
105.224
105.19
105.167
105.155
104.226
104.238
104.26
104.295
104.34
104.398
104.468
104.55
104.644
104.752
104.874
105.009
105.16
105.326
105.508
105.707
105.925
106.162
106.42
106.699
107.001
107.327
107.675
108.045
108.434
108.833
109.23
109.609
109.951
110.241
110.471
110.64
110.721
110.76
110.789
110.808
110.815
110.811
111.063
114.669
114.669
111.063
110.811
110.815
110.808
110.789
110.76
110.721
110.64
110.471
110.241
109.951
109.609
109.23
108.833
108.434
108.045
107.675
107.327
107.001
106.699
106.42
106.162
105.925
105.707
105.508
105.326
105.16
105.009
104.874
104.752
104.644
104.55
104.468
104.398
104.34
104.295
104.26
104.238
104.226
103.202
103.213
103.236
103.269
103.314
103.371
103.439
103.519
103.612
103.717
103.836
103.968
104.114
104.275
104.452
104.645
104.855
105.082
105.329
105.594
105.88
106.185
106.508
106.848
107.201
107.559
107.912
108.247
108.55
108.809
109.017
109.173
109.248
109.284
109.31
109.326
109.332
109.327
109.32
112.223
112.223
109.32
109.327
109.332
109.326
109.31
109.284
109.248
109.173
109.017
108.809
108.55
108.247
107.912
107.559
107.201
106.848
106.508
106.185
105.88
105.594
105.329
105.082
104.855
104.645
104.452
104.275
104.114
103.968
103.836
103.717
103.612
103.519
103.439
103.371
103.314
103.269
103.236
103.213
103.202
102.073
102.084
102.105
102.138
102.182
102.237
102.303
102.382
102.472
102.574
102.689
102.817
102.959
103.114
103.284
103.469
103.67
103.887
104.121
104.371
104.638
104.921
105.219
105.529
105.846
106.165
106.477
106.771
107.037
107.267
107.453
107.594
107.662
107.695
107.718
107.732
107.737
107.732
107.722
110.414
110.414
107.722
107.732
107.737
107.732
107.718
107.695
107.662
107.594
107.453
107.267
107.037
106.771
106.477
106.165
105.846
105.529
105.219
104.921
104.638
104.371
104.121
103.887
103.67
103.469
103.284
103.114
102.959
102.817
102.689
102.574
102.472
102.382
102.303
102.237
102.182
102.138
102.105
102.084
102.073
100.747
100.758
100.779
100.81
100.853
100.906
100.97
101.046
101.133
101.231
101.342
101.465
101.601
101.749
101.911
102.087
102.277
102.481
102.699
102.932
103.178
103.436
103.706
103.983
104.265
104.544
104.815
105.07
105.3
105.5
105.663
105.787
105.846
105.875
105.895
105.907
105.911
105.906
105.895
108.57
108.57
105.895
105.906
105.911
105.907
105.895
105.875
105.846
105.787
105.663
105.5
105.3
105.07
104.815
104.544
104.265
103.983
103.706
103.436
103.178
102.932
102.699
102.481
102.277
102.087
101.911
101.749
101.601
101.465
101.342
101.231
101.133
101.046
100.97
100.906
100.853
100.81
100.779
100.758
100.747
99.2742
99.2843
99.3046
99.3351
99.3758
99.427
99.4887
99.561
99.6442
99.7384
99.8439
99.9608
100.089
100.23
100.383
100.548
100.725
100.915
101.117
101.33
101.554
101.788
102.029
102.275
102.522
102.765
102.999
103.218
103.416
103.587
103.727
103.834
103.885
103.91
103.927
103.937
103.939
103.934
103.924
106.639
106.639
103.924
103.934
103.939
103.937
103.927
103.91
103.885
103.834
103.727
103.587
103.416
103.218
102.999
102.765
102.522
102.275
102.029
101.788
101.554
101.33
101.117
100.915
100.725
100.548
100.383
100.23
100.089
99.9608
99.8439
99.7384
99.6442
99.561
99.4887
99.427
99.3758
99.3351
99.3046
99.2843
99.2742
97.7912
97.8009
97.8203
97.8495
97.8885
97.9374
97.9963
98.0653
98.1446
98.2341
98.3342
98.445
98.5665
98.6988
98.8421
98.9963
99.1613
99.3369
99.5227
99.7179
99.9215
100.132
100.348
100.566
100.783
100.995
101.198
101.387
101.557
101.704
101.825
101.917
101.961
101.982
101.996
102.004
102.005
102
101.99
104.761
104.761
101.99
102
102.005
102.004
101.996
101.982
101.961
101.917
101.825
101.704
101.557
101.387
101.198
100.995
100.783
100.566
100.348
100.132
99.9215
99.7179
99.5227
99.3369
99.1613
98.9963
98.8421
98.6988
98.5665
98.445
98.3342
98.2341
98.1446
98.0653
97.9963
97.9374
97.8885
97.8495
97.8203
97.8009
97.7912
96.2985
96.3078
96.3263
96.3541
96.3913
96.4378
96.4939
96.5594
96.6346
96.7194
96.814
96.9184
97.0326
97.1567
97.2905
97.434
97.5869
97.7489
97.9192
98.0972
98.2817
98.4712
98.6639
98.8572
99.0484
99.2342
99.4108
99.5745
99.7216
99.8486
99.9526
100.031
100.068
100.086
100.098
100.104
100.104
100.099
100.089
102.926
102.926
100.089
100.099
100.104
100.104
100.098
100.086
100.068
100.031
99.9526
99.8486
99.7216
99.5745
99.4108
99.2342
99.0484
98.8572
98.6639
98.4712
98.2817
98.0972
97.9192
97.7489
97.5869
97.434
97.2905
97.1567
97.0326
96.9184
96.814
96.7194
96.6346
96.5594
96.4939
96.4378
96.3913
96.3541
96.3263
96.3078
96.2985
94.7966
94.8054
94.823
94.8494
94.8847
94.9288
94.9819
95.0439
95.1149
95.1949
95.2839
95.3819
95.4889
95.6047
95.7293
95.8624
96.0035
96.1524
96.3082
96.4701
96.6369
96.8072
96.9793
97.1509
97.3196
97.4825
97.6366
97.7789
97.9062
98.0158
98.1052
98.1724
98.2038
98.2183
98.2279
98.2325
98.2321
98.2267
98.2164
101.13
101.13
98.2164
98.2267
98.2321
98.2325
98.2279
98.2183
98.2038
98.1724
98.1052
98.0158
97.9062
97.7789
97.6366
97.4825
97.3196
97.1509
96.9793
96.8072
96.6369
96.4701
96.3082
96.1524
96.0035
95.8624
95.7293
95.6047
95.4889
95.3819
95.2839
95.1949
95.1149
95.0439
94.9819
94.9288
94.8847
94.8494
94.823
94.8054
94.7966
93.2858
93.2942
93.3108
93.3358
93.3692
93.4109
93.461
93.5194
93.5862
93.6614
93.7448
93.8365
93.9363
94.0441
94.1596
94.2825
94.4125
94.5489
94.691
94.838
94.9886
95.1415
95.2952
95.4475
95.5964
95.7395
95.8743
95.9981
96.1085
96.2031
96.28
96.3373
96.3636
96.3756
96.3832
96.3866
96.3855
96.38
96.3697
99.3682
99.3682
96.3697
96.38
96.3855
96.3866
96.3832
96.3756
96.3636
96.3373
96.28
96.2031
96.1085
95.9981
95.8743
95.7395
95.5964
95.4475
95.2952
95.1415
94.9886
94.838
94.691
94.5489
94.4125
94.2825
94.1596
94.0441
93.9363
93.8365
93.7448
93.6614
93.5862
93.5194
93.461
93.4109
93.3692
93.3358
93.3108
93.2942
93.2858
91.7668
91.7746
91.7903
91.8139
91.8453
91.8846
91.9317
91.9865
92.0492
92.1195
92.1975
92.283
92.3758
92.4757
92.5825
92.6957
92.815
92.9397
93.069
93.2022
93.338
93.4752
93.6123
93.7476
93.8792
94.005
94.1229
94.2308
94.3266
94.4083
94.4743
94.523
94.5449
94.5547
94.5607
94.5628
94.5611
94.5556
94.5453
97.6399
97.6399
94.5453
94.5556
94.5611
94.5628
94.5607
94.5547
94.5449
94.523
94.4743
94.4083
94.3266
94.2308
94.1229
94.005
93.8792
93.7476
93.6123
93.4752
93.338
93.2022
93.069
92.9397
92.815
92.6957
92.5825
92.4757
92.3758
92.283
92.1975
92.1195
92.0492
91.9865
91.9317
91.8846
91.8453
91.8139
91.7903
91.7746
91.7668
90.2398
90.2472
90.262
90.2841
90.3136
90.3505
90.3946
90.4459
90.5045
90.5701
90.6427
90.7221
90.8081
90.9005
90.9989
91.1029
91.2121
91.3258
91.4433
91.5637
91.6859
91.8089
91.9312
92.0513
92.1676
92.2783
92.3816
92.4756
92.5587
92.6293
92.6858
92.727
92.7451
92.753
92.7575
92.7586
92.7564
92.7507
92.7405
95.9431
95.9431
92.7405
92.7507
92.7564
92.7586
92.7575
92.753
92.7451
92.727
92.6858
92.6293
92.5587
92.4756
92.3816
92.2783
92.1676
92.0513
91.9312
91.8089
91.6859
91.5637
91.4433
91.3258
91.2121
91.1029
90.9989
90.9005
90.8081
90.7221
90.6427
90.5701
90.5045
90.4459
90.3946
90.3505
90.3136
90.2841
90.262
90.2472
90.2398
88.7055
88.7125
88.7263
88.747
88.7746
88.809
88.8502
88.8981
88.9527
89.0137
89.081
89.1546
89.2341
89.3192
89.4096
89.5049
89.6046
89.7081
89.8146
89.9233
90.0332
90.1433
90.2523
90.3589
90.4617
90.559
90.6494
90.7314
90.8035
90.8642
90.9125
90.9472
90.962
90.9682
90.9714
90.9717
90.9689
90.9632
90.953
94.277
94.277
90.953
90.9632
90.9689
90.9717
90.9714
90.9682
90.962
90.9472
90.9125
90.8642
90.8035
90.7314
90.6494
90.559
90.4617
90.3589
90.2523
90.1433
90.0332
89.9233
89.8146
89.7081
89.6046
89.5049
89.4096
89.3192
89.2341
89.1546
89.081
89.0137
88.9527
88.8981
88.8502
88.809
88.7746
88.747
88.7263
88.7125
88.7055
87.1643
87.1708
87.1837
87.203
87.2288
87.2608
87.2992
87.3437
87.3943
87.4509
87.5132
87.5812
87.6544
87.7326
87.8155
87.9026
87.9934
88.0874
88.1837
88.2817
88.3804
88.4788
88.5759
88.6704
88.7611
88.8467
88.9258
88.9971
89.0595
89.1117
89.1528
89.1818
89.1936
89.1983
89.2004
89.1998
89.1966
89.1908
89.1807
92.6415
92.6415
89.1807
89.1908
89.1966
89.1998
89.2004
89.1983
89.1936
89.1818
89.1528
89.1117
89.0595
88.9971
88.9258
88.8467
88.7611
88.6704
88.5759
88.4788
88.3804
88.2817
88.1837
88.0874
87.9934
87.9026
87.8155
87.7326
87.6544
87.5812
87.5132
87.4509
87.3943
87.3437
87.2992
87.2608
87.2288
87.203
87.1837
87.1708
87.1643
85.6166
85.6226
85.6346
85.6526
85.6766
85.7064
85.742
85.7832
85.8301
85.8824
85.9399
86.0024
86.0697
86.1414
86.2172
86.2966
86.3791
86.4642
86.5512
86.6393
86.7278
86.8157
86.902
86.9857
87.0656
87.1407
87.2098
87.2718
87.3256
87.3703
87.405
87.429
87.4382
87.4416
87.4427
87.4414
87.4378
87.4319
87.4219
91.0371
91.0371
87.4219
87.4319
87.4378
87.4414
87.4427
87.4416
87.4382
87.429
87.405
87.3703
87.3256
87.2718
87.2098
87.1407
87.0656
86.9857
86.902
86.8157
86.7278
86.6393
86.5512
86.4642
86.3791
86.2966
86.2172
86.1414
86.0697
86.0024
85.9399
85.8824
85.8301
85.7832
85.742
85.7064
85.6766
85.6526
85.6346
85.6226
85.6166
84.0629
84.0685
84.0796
84.0963
84.1185
84.1461
84.179
84.2172
84.2604
84.3086
84.3615
84.4189
84.4806
84.5461
84.6152
84.6874
84.7622
84.8392
84.9175
84.9967
85.0758
85.1541
85.2307
85.3047
85.3751
85.4408
85.501
85.5547
85.6009
85.6389
85.668
85.6875
85.6944
85.6966
85.6967
85.6948
85.6908
85.6848
85.6749
89.4657
89.4657
85.6749
85.6848
85.6908
85.6948
85.6967
85.6966
85.6944
85.6875
85.668
85.6389
85.6009
85.5547
85.501
85.4408
85.3751
85.3047
85.2307
85.1541
85.0758
84.9967
84.9175
84.8392
84.7622
84.6874
84.6152
84.5461
84.4806
84.4189
84.3615
84.3086
84.2604
84.2172
84.179
84.1461
84.1185
84.0963
84.0796
84.0685
84.0629
82.5036
82.5088
82.5191
82.5345
82.555
82.5805
82.6109
82.646
82.6858
82.7301
82.7786
82.8312
82.8875
82.9473
83.0101
83.0756
83.1433
83.2127
83.2831
83.354
83.4246
83.4943
83.5621
83.6273
83.6891
83.7465
83.7987
83.845
83.8845
83.9165
83.9405
83.956
83.9608
83.9619
83.9612
83.9587
83.9544
83.9482
83.9383
87.9297
87.9297
83.9383
83.9482
83.9544
83.9587
83.9612
83.9619
83.9608
83.956
83.9405
83.9165
83.8845
83.845
83.7987
83.7465
83.6891
83.6273
83.5621
83.4943
83.4246
83.354
83.2831
83.2127
83.1433
83.0756
83.0101
82.9473
82.8875
82.8312
82.7786
82.7301
82.6858
82.646
82.6109
82.5805
82.555
82.5345
82.5191
82.5088
82.5036
80.9392
80.9439
80.9534
80.9677
80.9865
81.01
81.0379
81.0702
81.1068
81.1473
81.1917
81.2397
81.291
81.3454
81.4024
81.4616
81.5227
81.5851
81.6482
81.7116
81.7745
81.8362
81.8961
81.9534
82.0074
82.0573
82.1024
82.142
82.1754
82.2021
82.2216
82.2334
82.2362
82.2364
82.2349
82.2318
82.2271
82.2208
82.2111
86.4336
86.4336
82.2111
82.2208
82.2271
82.2318
82.2349
82.2364
82.2362
82.2334
82.2216
82.2021
82.1754
82.142
82.1024
82.0573
82.0074
81.9534
81.8961
81.8362
81.7745
81.7116
81.6482
81.5851
81.5227
81.4616
81.4024
81.3454
81.291
81.2397
81.1917
81.1473
81.1068
81.0702
81.0379
81.01
80.9865
80.9677
80.9534
80.9439
80.9392
79.3699
79.3743
79.3831
79.3961
79.4135
79.435
79.4606
79.4902
79.5236
79.5607
79.6012
79.6449
79.6915
79.7408
79.7924
79.8458
79.9008
79.9567
80.0132
80.0696
80.1254
80.18
80.2327
80.2829
80.3298
80.373
80.4116
80.4452
80.4732
80.495
80.5103
80.5188
80.5198
80.519
80.5168
80.5131
80.5081
80.5016
80.4919
84.9834
84.9834
80.4919
80.5016
80.5081
80.5131
80.5168
80.519
80.5198
80.5188
80.5103
80.495
80.4732
80.4452
80.4116
80.373
80.3298
80.2829
80.2327
80.18
80.1254
80.0696
80.0132
79.9567
79.9008
79.8458
79.7924
79.7408
79.6915
79.6449
79.6012
79.5607
79.5236
79.4902
79.4606
79.435
79.4135
79.3961
79.3831
79.3743
79.3699
77.7963
77.8004
77.8084
77.8204
77.8362
77.8559
77.8794
77.9064
77.9369
77.9706
78.0075
78.0471
78.0894
78.1339
78.1804
78.2285
78.2778
78.3278
78.3782
78.4283
78.4776
78.5257
78.5718
78.6155
78.6561
78.6931
78.7259
78.754
78.777
78.7944
78.8058
78.8112
78.8105
78.8088
78.8058
78.8017
78.7962
78.7896
78.7799
83.5876
83.5876
78.7799
78.7896
78.7962
78.8017
78.8058
78.8088
78.8105
78.8112
78.8058
78.7944
78.777
78.754
78.7259
78.6931
78.6561
78.6155
78.5718
78.5257
78.4776
78.4283
78.3782
78.3278
78.2778
78.2285
78.1804
78.1339
78.0894
78.0471
78.0075
77.9706
77.9369
77.9064
77.8794
77.8559
77.8362
77.8204
77.8084
77.8004
77.7963
76.2187
76.2224
76.2297
76.2407
76.2552
76.2732
76.2945
76.3191
76.3468
76.3775
76.4109
76.4468
76.485
76.5251
76.5669
76.6101
76.6541
76.6987
76.7434
76.7877
76.8311
76.8732
76.9134
76.9512
76.986
77.0174
77.0449
77.068
77.0864
77.0996
77.1075
77.1099
77.1075
77.1049
77.1013
77.0965
77.0906
77.0837
77.0742
82.2605
82.2605
77.0742
77.0837
77.0906
77.0965
77.1013
77.1049
77.1075
77.1099
77.1075
77.0996
77.0864
77.068
77.0449
77.0174
76.986
76.9512
76.9134
76.8732
76.8311
76.7877
76.7434
76.6987
76.6541
76.6101
76.5669
76.5251
76.485
76.4468
76.4109
76.3775
76.3468
76.3191
76.2945
76.2732
76.2552
76.2407
76.2297
76.2224
76.2187
74.6374
74.6408
74.6474
74.6574
74.6706
74.687
74.7064
74.7287
74.7539
74.7816
74.8118
74.8442
74.8786
74.9147
74.9521
74.9906
75.0299
75.0694
75.1089
75.1479
75.186
75.2226
75.2574
75.2898
75.3194
75.3457
75.3683
75.3868
75.4009
75.4103
75.4147
75.4142
75.4101
75.4067
75.4022
75.3968
75.3905
75.3832
75.3737
81.0227
81.0227
75.3737
75.3832
75.3905
75.3968
75.4022
75.4067
75.4101
75.4142
75.4147
75.4103
75.4009
75.3868
75.3683
75.3457
75.3194
75.2898
75.2574
75.2226
75.186
75.1479
75.1089
75.0694
75.0299
74.9906
74.9521
74.9147
74.8786
74.8442
74.8118
74.7816
74.7539
74.7287
74.7064
74.687
74.6706
74.6574
74.6474
74.6408
74.6374
73.0528
73.0558
73.0619
73.0709
73.0829
73.0978
73.1153
73.1356
73.1583
73.1833
73.2105
73.2397
73.2705
73.3028
73.3362
73.3705
73.4053
73.4403
73.475
73.5092
73.5423
73.5739
73.6037
73.6312
73.656
73.6776
73.6957
73.71
73.7201
73.7258
73.727
73.7235
73.7178
73.7133
73.708
73.7019
73.695
73.6873
73.6779
79.9059
79.9059
73.6779
73.6873
73.695
73.7019
73.708
73.7133
73.7178
73.7235
73.727
73.7258
73.7201
73.71
73.6957
73.6776
73.656
73.6312
73.6037
73.5739
73.5423
73.5092
73.475
73.4403
73.4053
73.3705
73.3362
73.3028
73.2705
73.2397
73.2105
73.1833
73.1583
73.1356
73.1153
73.0978
73.0829
73.0709
73.0619
73.0558
73.0528
71.4651
71.4678
71.4733
71.4815
71.4924
71.5058
71.5217
71.5399
71.5604
71.5829
71.6073
71.6334
71.661
71.6898
71.7195
71.7499
71.7806
71.8113
71.8417
71.8714
71.9
71.9271
71.9524
71.9754
71.9957
72.0131
72.027
72.0373
72.0437
72.0459
72.0438
72.0374
72.0298
72.0243
72.0181
72.0111
72.0034
71.9951
71.9857
78.9636
78.9636
71.9857
71.9951
72.0034
72.0111
72.0181
72.0243
72.0298
72.0374
72.0438
72.0459
72.0437
72.0373
72.027
72.0131
71.9957
71.9754
71.9524
71.9271
71.9
71.8714
71.8417
71.8113
71.7806
71.7499
71.7195
71.6898
71.661
71.6334
71.6073
71.5829
71.5604
71.5399
71.5217
71.5058
71.4924
71.4815
71.4733
71.4678
71.4651
69.8746
69.8771
69.8821
69.8895
69.8992
69.9113
69.9256
69.942
69.9604
69.9806
70.0024
70.0257
70.0502
70.0758
70.1021
70.1289
70.1558
70.1827
70.2091
70.2347
70.2592
70.2822
70.3033
70.3222
70.3385
70.3519
70.362
70.3686
70.3714
70.3702
70.365
70.3556
70.3459
70.3392
70.3318
70.3238
70.3151
70.3059
70.2966
78.2897
78.2897
70.2966
70.3059
70.3151
70.3238
70.3318
70.3392
70.3459
70.3556
70.365
70.3702
70.3714
70.3686
70.362
70.3519
70.3385
70.3222
70.3033
70.2822
70.2592
70.2347
70.2091
70.1827
70.1558
70.1289
70.1021
70.0758
70.0502
70.0257
70.0024
69.9806
69.9604
69.942
69.9256
69.9113
69.8992
69.8895
69.8821
69.8771
69.8746
68.2817
68.2839
68.2884
68.295
68.3038
68.3147
68.3275
68.3422
68.3586
68.3766
68.396
68.4167
68.4385
68.461
68.4842
68.5077
68.5312
68.5545
68.5773
68.5992
68.6199
68.6391
68.6564
68.6716
68.6842
68.6939
68.7005
68.7037
68.7031
68.6987
68.6902
68.6777
68.6657
68.6576
68.6489
68.6394
68.6295
68.6191
68.6096
78.0527
78.0527
68.6096
68.6191
68.6295
68.6394
68.6489
68.6576
68.6657
68.6777
68.6902
68.6987
68.7031
68.7037
68.7005
68.6939
68.6842
68.6716
68.6564
68.6391
68.6199
68.5992
68.5773
68.5545
68.5312
68.5077
68.4842
68.461
68.4385
68.4167
68.396
68.3766
68.3586
68.3422
68.3275
68.3147
68.3038
68.295
68.2884
68.2839
68.2817
66.6865
66.6885
66.6925
66.6985
66.7063
66.716
66.7275
66.7405
66.7552
66.7712
66.7884
66.8067
66.8259
66.8457
66.866
66.8865
66.9069
66.9269
66.9463
66.9649
66.9822
66.9979
67.0118
67.0235
67.0327
67.0391
67.0425
67.0424
67.0388
67.0312
67.0196
67.0038
66.9893
66.9796
66.9691
66.9579
66.9461
66.9339
66.924
78.4755
78.4755
66.924
66.9339
66.9461
66.9579
66.9691
66.9796
66.9893
67.0038
67.0196
67.0312
67.0388
67.0424
67.0425
67.0391
67.0327
67.0235
67.0118
66.9979
66.9822
66.9649
66.9463
66.9269
66.9069
66.8865
66.866
66.8457
66.8259
66.8067
66.7884
66.7712
66.7552
66.7405
66.7275
66.716
66.7063
66.6985
66.6925
66.6885
66.6865
65.0893
65.0911
65.0947
65.1
65.107
65.1156
65.1258
65.1374
65.1504
65.1645
65.1797
65.1958
65.2127
65.23
65.2476
65.2653
65.2828
65.2999
65.3163
65.3317
65.3459
65.3585
65.3693
65.3779
65.3841
65.3875
65.3878
65.3848
65.3782
65.3678
65.3532
65.3341
65.317
65.3054
65.2928
65.2792
65.2646
65.2493
65.2379
78.5764
78.5764
65.2379
65.2493
65.2646
65.2792
65.2928
65.3054
65.317
65.3341
65.3532
65.3678
65.3782
65.3848
65.3878
65.3875
65.3841
65.3779
65.3693
65.3585
65.3459
65.3317
65.3163
65.2999
65.2828
65.2653
65.2476
65.23
65.2127
65.1958
65.1797
65.1645
65.1504
65.1374
65.1258
65.1156
65.107
65.1
65.0947
65.0911
65.0893
63.4904
63.492
63.4951
63.4998
63.506
63.5137
63.5227
63.533
63.5444
63.5568
63.5702
63.5843
63.5989
63.6139
63.6291
63.6443
63.6592
63.6736
63.6873
63.6999
63.7112
63.721
63.729
63.7348
63.7382
63.7388
63.7365
63.7308
63.7216
63.7085
63.6911
63.6692
63.6497
63.6365
63.6218
63.6054
63.5865
63.5637
63.5425
64.8295
64.8295
63.5425
63.5637
63.5865
63.6054
63.6218
63.6365
63.6497
63.6692
63.6911
63.7085
63.7216
63.7308
63.7365
63.7388
63.7382
63.7348
63.729
63.721
63.7112
63.6999
63.6873
63.6736
63.6592
63.6443
63.6291
63.6139
63.5989
63.5843
63.5702
63.5568
63.5444
63.533
63.5227
63.5137
63.506
63.4998
63.4951
63.492
63.4904
61.89
61.8914
61.8942
61.8984
61.9039
61.9106
61.9185
61.9276
61.9376
61.9485
61.9601
61.9723
61.985
61.9979
62.0109
62.0238
62.0363
62.0483
62.0595
62.0696
62.0784
62.0856
62.091
62.0943
62.0952
62.0935
62.0887
62.0807
62.0691
62.0536
62.034
62.0098
61.9888
61.975
61.9601
61.9444
61.928
61.9114
61.8956
63.0651
63.0651
61.8956
61.9114
61.928
61.9444
61.9601
61.975
61.9888
62.0098
62.034
62.0536
62.0691
62.0807
62.0887
62.0935
62.0952
62.0943
62.091
62.0856
62.0784
62.0696
62.0595
62.0483
62.0363
62.0238
62.0109
61.9979
61.985
61.9723
61.9601
61.9485
61.9376
61.9276
61.9185
61.9106
61.9039
61.8984
61.8942
61.8914
61.89
60.2883
60.2895
60.292
60.2956
60.3005
60.3064
60.3133
60.3212
60.3299
60.3394
60.3494
60.36
60.3708
60.3819
60.3929
60.4036
60.414
60.4238
60.4327
60.4406
60.4471
60.4521
60.4552
60.4563
60.455
60.4511
60.4442
60.4341
60.4205
60.403
60.3813
60.3552
60.333
60.3184
60.303
60.2869
60.2702
60.2533
60.236
61.4005
61.4005
60.236
60.2533
60.2702
60.2869
60.303
60.3184
60.333
60.3552
60.3813
60.403
60.4205
60.4341
60.4442
60.4511
60.455
60.4563
60.4552
60.4521
60.4471
60.4406
60.4327
60.4238
60.414
60.4036
60.3929
60.3819
60.3708
60.36
60.3494
60.3394
60.3299
60.3212
60.3133
60.3064
60.3005
60.2956
60.292
60.2895
60.2883
58.6853
58.6864
58.6885
58.6917
58.6959
58.7011
58.7071
58.7139
58.7215
58.7296
58.7383
58.7473
58.7565
58.7658
58.775
58.7839
58.7924
58.8001
58.807
58.8129
58.8174
58.8203
58.8215
58.8206
58.8174
58.8116
58.803
58.7911
58.7758
58.7566
58.7332
58.7052
58.6815
58.666
58.6495
58.6322
58.614
58.5951
58.5754
59.7273
59.7273
58.5754
58.5951
58.614
58.6322
58.6495
58.666
58.6815
58.7052
58.7332
58.7566
58.7758
58.7911
58.803
58.8116
58.8174
58.8206
58.8215
58.8203
58.8174
58.8129
58.807
58.8001
58.7924
58.7839
58.775
58.7658
58.7565
58.7473
58.7383
58.7296
58.7215
58.7139
58.7071
58.7011
58.6959
58.6917
58.6885
58.6864
58.6853
57.0812
57.0822
57.0841
57.0868
57.0905
57.0949
57.1001
57.106
57.1125
57.1194
57.1268
57.1344
57.1421
57.1499
57.1574
57.1646
57.1713
57.1773
57.1825
57.1865
57.1892
57.1904
57.1898
57.1872
57.1824
57.175
57.1649
57.1516
57.1349
57.1143
57.0896
57.06
57.0349
57.0183
57.0006
56.9816
56.9614
56.9398
56.9168
57.997
57.997
56.9168
56.9398
56.9614
56.9816
57.0006
57.0183
57.0349
57.06
57.0896
57.1143
57.1349
57.1516
57.1649
57.175
57.1824
57.1872
57.1898
57.1904
57.1892
57.1865
57.1825
57.1773
57.1713
57.1646
57.1574
57.1499
57.1421
57.1344
57.1268
57.1194
57.1125
57.106
57.1001
57.0949
57.0905
57.0868
57.0841
57.0822
57.0812
55.4762
55.4771
55.4787
55.481
55.4842
55.488
55.4924
55.4974
55.5029
55.5088
55.515
55.5214
55.5278
55.5341
55.5402
55.5459
55.551
55.5554
55.559
55.5614
55.5625
55.5622
55.5601
55.5561
55.5499
55.5413
55.5299
55.5155
55.4978
55.4764
55.4507
55.4202
55.394
55.3766
55.3578
55.3374
55.3151
55.2908
55.2637
56.101
56.101
55.2637
55.2908
55.3151
55.3374
55.3578
55.3766
55.394
55.4202
55.4507
55.4764
55.4978
55.5155
55.5299
55.5413
55.5499
55.5561
55.5601
55.5622
55.5625
55.5614
55.559
55.5554
55.551
55.5459
55.5402
55.5341
55.5278
55.5214
55.515
55.5088
55.5029
55.4974
55.4924
55.488
55.4842
55.481
55.4787
55.4771
55.4762
53.8704
53.8711
53.8725
53.8745
53.8772
53.8804
53.8842
53.8884
53.893
53.898
53.9031
53.9083
53.9135
53.9185
53.9233
53.9276
53.9314
53.9344
53.9366
53.9376
53.9374
53.9357
53.9324
53.9271
53.9198
53.9102
53.8979
53.8828
53.8645
53.8426
53.8166
53.7859
53.7597
53.7422
53.7232
53.7024
53.6794
53.6538
53.6243
53.8638
53.8638
53.6243
53.6538