/*--------------------------------*- C++ -*----------------------------------*\
  =========                 |
  \\      /  F ield         | OpenFOAM: The Open Source CFD Toolbox
   \\    /   O peration     | Website:  https://openfoam.org
    \\  /    A nd           | Version:  10
     \\/     M anipulation  |
\*---------------------------------------------------------------------------*/
FoamFile
{
    format      ascii;
    class       volVectorField;
    location    "18200";
    object      Ub;
}
// * * * * * * * * * * * * * * * * * * * * * * * * * * * * * * * * * * * * * //

dimensions      [0 1 -1 0 0 0 0];

internalField   nonuniform List<vector> 
6400
(
(-1.01178e-20 -9.87899e-16 0)
(-3.07999e-20 -9.87899e-16 0)
(-5.29255e-20 -9.87899e-16 0)
(-7.78684e-20 -9.87898e-16 0)
(-1.07933e-19 -9.87898e-16 0)
(-1.47875e-19 -9.87896e-16 0)
(-4.82611e-15 -9.87893e-16 0)
(-1.55297e-05 -1.82188e-11 0)
(-7.25823e-05 -2.29175e-05 0)
(-0.00012488 1.5645e-06 0)
(-0.000134922 -3.5536e-07 0)
(-0.000129357 -1.09691e-06 0)
(-0.000123582 -2.69349e-07 0)
(-0.000120886 -4.13675e-07 0)
(-0.000118413 -1.91945e-07 0)
(-0.000116406 -2.98632e-07 0)
(-0.000114647 -1.27758e-07 0)
(-0.000114604 6.01395e-08 0)
(-0.000114776 -7.66663e-08 0)
(-0.000114094 -1.07472e-07 0)
(-0.00011291 -1.74147e-07 0)
(-0.000111612 -1.26998e-07 0)
(-0.00011068 -9.65216e-08 0)
(-0.000109791 -1.1595e-07 0)
(-0.000108801 -1.14887e-07 0)
(-0.0001077 -1.36626e-07 0)
(-0.000106171 -2.00149e-07 0)
(-0.000104482 -1.67983e-07 0)
(-0.000103062 -1.44499e-07 0)
(-0.000101537 -1.88056e-07 0)
(-9.9072e-05 -3.34728e-07 0)
(-9.44856e-05 -6.18524e-07 0)
(-8.91958e-05 -1.06084e-06 0)
(-8.38174e-05 -1.41887e-06 0)
(-7.66846e-05 -1.86303e-06 0)
(-6.74592e-05 -2.37571e-06 0)
(-5.59234e-05 -2.91951e-06 0)
(-4.20696e-05 -3.43579e-06 0)
(-2.61857e-05 -3.84782e-06 0)
(-8.89667e-06 -4.07842e-06 0)
(8.89667e-06 -4.07842e-06 0)
(2.61857e-05 -3.84782e-06 0)
(4.20696e-05 -3.43579e-06 0)
(5.59234e-05 -2.91951e-06 0)
(6.74592e-05 -2.37571e-06 0)
(7.66846e-05 -1.86303e-06 0)
(8.38174e-05 -1.41887e-06 0)
(8.91958e-05 -1.06084e-06 0)
(9.44856e-05 -6.18524e-07 0)
(9.9072e-05 -3.34728e-07 0)
(0.000101537 -1.88056e-07 0)
(0.000103062 -1.44499e-07 0)
(0.000104482 -1.67983e-07 0)
(0.000106171 -2.00149e-07 0)
(0.0001077 -1.36626e-07 0)
(0.000108801 -1.14887e-07 0)
(0.000109791 -1.1595e-07 0)
(0.00011068 -9.65216e-08 0)
(0.000111612 -1.26998e-07 0)
(0.00011291 -1.74147e-07 0)
(0.000114094 -1.07472e-07 0)
(0.000114776 -7.66663e-08 0)
(0.000114604 6.01395e-08 0)
(0.000114647 -1.27758e-07 0)
(0.000116406 -2.98632e-07 0)
(0.000118413 -1.91945e-07 0)
(0.000120886 -4.13675e-07 0)
(0.000123582 -2.69349e-07 0)
(0.000129357 -1.09691e-06 0)
(0.000134922 -3.5536e-07 0)
(0.00012488 1.5645e-06 0)
(7.25823e-05 -2.29175e-05 0)
(1.55297e-05 -1.82188e-11 0)
(4.82611e-15 -9.87893e-16 0)
(1.47875e-19 -9.87896e-16 0)
(1.07933e-19 -9.87898e-16 0)
(7.78684e-20 -9.87898e-16 0)
(5.29255e-20 -9.87899e-16 0)
(3.07999e-20 -9.87899e-16 0)
(1.01178e-20 -9.87899e-16 0)
(-1.00984e-20 -9.87892e-16 0)
(-3.07372e-20 -9.87892e-16 0)
(-5.28032e-20 -9.87891e-16 0)
(-7.76461e-20 -9.8789e-16 0)
(-1.07504e-19 -9.87888e-16 0)
(-1.46923e-19 -9.87884e-16 0)
(-2.09059e-19 -9.87874e-16 0)
(-3.02372e-19 -9.87812e-16 0)
(-1.89935e-08 -8.49578e-16 0)
(-5.92932e-05 1.87359e-06 0)
(-0.000122525 -2.53387e-07 0)
(-0.00012266 -3.09352e-06 0)
(-0.000118553 -5.95862e-07 0)
(-0.000116749 -1.16132e-06 0)
(-0.000114729 -4.81089e-07 0)
(-0.000113044 -8.56388e-07 0)
(-0.000111452 -3.32989e-07 0)
(-0.000111614 2.50296e-07 0)
(-0.000111937 -1.96418e-07 0)
(-0.000111347 -2.89593e-07 0)
(-0.000110251 -5.05686e-07 0)
(-0.000109026 -3.58113e-07 0)
(-0.000108185 -2.65769e-07 0)
(-0.000107369 -3.31177e-07 0)
(-0.000106442 -3.2785e-07 0)
(-0.000105414 -3.95487e-07 0)
(-0.000103939 -5.98767e-07 0)
(-0.000102294 -4.96252e-07 0)
(-0.000100943 -4.22403e-07 0)
(-9.95069e-05 -5.55615e-07 0)
(-9.71612e-05 -1.00597e-06 0)
(-9.27803e-05 -1.87055e-06 0)
(-8.77152e-05 -3.2265e-06 0)
(-8.25296e-05 -4.3279e-06 0)
(-7.56147e-05 -5.69841e-06 0)
(-6.66213e-05 -7.28428e-06 0)
(-5.53168e-05 -8.97077e-06 0)
(-4.16754e-05 -1.05768e-05 0)
(-2.59712e-05 -1.18622e-05 0)
(-8.8296e-06 -1.25831e-05 0)
(8.8296e-06 -1.25831e-05 0)
(2.59712e-05 -1.18622e-05 0)
(4.16754e-05 -1.05768e-05 0)
(5.53168e-05 -8.97077e-06 0)
(6.66213e-05 -7.28428e-06 0)
(7.56147e-05 -5.69841e-06 0)
(8.25296e-05 -4.3279e-06 0)
(8.77152e-05 -3.2265e-06 0)
(9.27803e-05 -1.87055e-06 0)
(9.71612e-05 -1.00597e-06 0)
(9.95069e-05 -5.55615e-07 0)
(0.000100943 -4.22403e-07 0)
(0.000102294 -4.96252e-07 0)
(0.000103939 -5.98767e-07 0)
(0.000105414 -3.95487e-07 0)
(0.000106442 -3.2785e-07 0)
(0.000107369 -3.31177e-07 0)
(0.000108185 -2.65769e-07 0)
(0.000109026 -3.58113e-07 0)
(0.000110251 -5.05686e-07 0)
(0.000111347 -2.89593e-07 0)
(0.000111937 -1.96418e-07 0)
(0.000111614 2.50296e-07 0)
(0.000111452 -3.32989e-07 0)
(0.000113044 -8.56388e-07 0)
(0.000114729 -4.81089e-07 0)
(0.000116749 -1.16132e-06 0)
(0.000118553 -5.95862e-07 0)
(0.00012266 -3.09352e-06 0)
(0.000122525 -2.53387e-07 0)
(5.92932e-05 1.87359e-06 0)
(1.89935e-08 -8.49578e-16 0)
(3.02372e-19 -9.87812e-16 0)
(2.09059e-19 -9.87874e-16 0)
(1.46923e-19 -9.87884e-16 0)
(1.07504e-19 -9.87888e-16 0)
(7.76461e-20 -9.8789e-16 0)
(5.28032e-20 -9.87891e-16 0)
(3.07372e-20 -9.87892e-16 0)
(1.00984e-20 -9.87892e-16 0)
(-1.00542e-20 -9.87887e-16 0)
(-3.05942e-20 -9.87887e-16 0)
(-5.25246e-20 -9.87886e-16 0)
(-7.71415e-20 -9.87884e-16 0)
(-1.06536e-19 -9.8788e-16 0)
(-1.44695e-19 -9.87873e-16 0)
(-2.00322e-19 -9.87857e-16 0)
(-2.68039e-19 -9.87796e-16 0)
(-2.97833e-19 -9.87653e-16 0)
(-1.33199e-19 -9.85461e-16 0)
(-2.49878e-05 -3.6336e-10 0)
(-7.83821e-05 -2.0538e-06 0)
(-0.000110044 -3.72918e-07 0)
(-0.000112328 -1.9097e-06 0)
(-0.000111366 -6.8485e-07 0)
(-0.000110218 -1.47889e-06 0)
(-0.000108777 -5.44355e-07 0)
(-0.000109263 5.14689e-07 0)
(-0.000109808 -3.41318e-07 0)
(-0.000109286 -4.77761e-07 0)
(-0.000108245 -8.82189e-07 0)
(-0.000107053 -6.05109e-07 0)
(-0.00010631 -4.41567e-07 0)
(-0.000105563 -5.69387e-07 0)
(-0.000104686 -5.56552e-07 0)
(-0.000103738 -6.70486e-07 0)
(-0.000102284 -1.04856e-06 0)
(-0.000100643 -8.52539e-07 0)
(-9.93699e-05 -7.15118e-07 0)
(-9.80552e-05 -9.39293e-07 0)
(-9.58734e-05 -1.71216e-06 0)
(-9.17935e-05 -3.17094e-06 0)
(-8.70653e-05 -5.49385e-06 0)
(-8.21508e-05 -7.39642e-06 0)
(-7.5514e-05 -9.7805e-06 0)
(-6.67699e-05 -1.25546e-05 0)
(-5.56448e-05 -1.5522e-05 0)
(-4.2069e-05 -1.83677e-05 0)
(-2.62895e-05 -2.06608e-05 0)
(-8.95162e-06 -2.19524e-05 0)
(8.95162e-06 -2.19524e-05 0)
(2.62895e-05 -2.06608e-05 0)
(4.2069e-05 -1.83677e-05 0)
(5.56448e-05 -1.5522e-05 0)
(6.67699e-05 -1.25546e-05 0)
(7.5514e-05 -9.7805e-06 0)
(8.21508e-05 -7.39642e-06 0)
(8.70653e-05 -5.49385e-06 0)
(9.17935e-05 -3.17094e-06 0)
(9.58734e-05 -1.71216e-06 0)
(9.80552e-05 -9.39293e-07 0)
(9.93699e-05 -7.15118e-07 0)
(0.000100643 -8.52539e-07 0)
(0.000102284 -1.04856e-06 0)
(0.000103738 -6.70486e-07 0)
(0.000104686 -5.56552e-07 0)
(0.000105563 -5.69387e-07 0)
(0.00010631 -4.41567e-07 0)
(0.000107053 -6.05109e-07 0)
(0.000108245 -8.82189e-07 0)
(0.000109286 -4.77761e-07 0)
(0.000109808 -3.41318e-07 0)
(0.000109263 5.14689e-07 0)
(0.000108777 -5.44355e-07 0)
(0.000110218 -1.47889e-06 0)
(0.000111366 -6.8485e-07 0)
(0.000112328 -1.9097e-06 0)
(0.000110044 -3.72918e-07 0)
(7.83821e-05 -2.0538e-06 0)
(2.49878e-05 -3.6336e-10 0)
(1.33199e-19 -9.85461e-16 0)
(2.97833e-19 -9.87653e-16 0)
(2.68039e-19 -9.87796e-16 0)
(2.00322e-19 -9.87857e-16 0)
(1.44695e-19 -9.87873e-16 0)
(1.06536e-19 -9.8788e-16 0)
(7.71415e-20 -9.87884e-16 0)
(5.25246e-20 -9.87886e-16 0)
(3.05942e-20 -9.87887e-16 0)
(1.00542e-20 -9.87887e-16 0)
(-9.97857e-21 -9.87882e-16 0)
(-3.03503e-20 -9.87882e-16 0)
(-5.20506e-20 -9.8788e-16 0)
(-7.62884e-20 -9.87877e-16 0)
(-1.04926e-19 -9.87872e-16 0)
(-1.41155e-19 -9.87863e-16 0)
(-1.89981e-19 -9.87841e-16 0)
(-2.43088e-19 -9.87781e-16 0)
(-2.55887e-19 -9.87657e-16 0)
(-1.2535e-19 -9.87492e-16 0)
(-9.21439e-21 -9.87615e-16 0)
(-2.58897e-11 -8.02471e-16 0)
(-3.8037e-05 -7.84485e-09 0)
(-8.88275e-05 -1.13338e-06 0)
(-0.000104403 -3.77357e-07 0)
(-0.000106487 -2.11813e-06 0)
(-0.000105741 -7.10662e-07 0)
(-0.000106947 9.59736e-07 0)
(-0.000107912 -5.18281e-07 0)
(-0.000107479 -6.45527e-07 0)
(-0.000106495 -1.31934e-06 0)
(-0.000105306 -8.54511e-07 0)
(-0.000104698 -6.05053e-07 0)
(-0.00010403 -8.29943e-07 0)
(-0.000103199 -7.90835e-07 0)
(-0.000102358 -9.46878e-07 0)
(-0.000100899 -1.56888e-06 0)
(-9.92179e-05 -1.23167e-06 0)
(-9.80456e-05 -1.00676e-06 0)
(-9.69053e-05 -1.31792e-06 0)
(-9.49538e-05 -2.43163e-06 0)
(-9.13142e-05 -4.46502e-06 0)
(-8.70938e-05 -7.79347e-06 0)
(-8.25834e-05 -1.05604e-05 0)
(-7.63439e-05 -1.40709e-05 0)
(-6.79233e-05 -1.81941e-05 0)
(-5.69737e-05 -2.26485e-05 0)
(-4.33419e-05 -2.69741e-05 0)
(-2.72202e-05 -3.05025e-05 0)
(-9.2942e-06 -3.25049e-05 0)
(9.2942e-06 -3.25049e-05 0)
(2.72202e-05 -3.05025e-05 0)
(4.33419e-05 -2.69741e-05 0)
(5.69737e-05 -2.26485e-05 0)
(6.79233e-05 -1.81941e-05 0)
(7.63439e-05 -1.40709e-05 0)
(8.25834e-05 -1.05604e-05 0)
(8.70938e-05 -7.79347e-06 0)
(9.13142e-05 -4.46502e-06 0)
(9.49538e-05 -2.43163e-06 0)
(9.69053e-05 -1.31792e-06 0)
(9.80456e-05 -1.00676e-06 0)
(9.92179e-05 -1.23167e-06 0)
(0.000100899 -1.56888e-06 0)
(0.000102358 -9.46878e-07 0)
(0.000103199 -7.90835e-07 0)
(0.00010403 -8.29943e-07 0)
(0.000104698 -6.05053e-07 0)
(0.000105306 -8.54511e-07 0)
(0.000106495 -1.31934e-06 0)
(0.000107479 -6.45527e-07 0)
(0.000107912 -5.18281e-07 0)
(0.000106947 9.59736e-07 0)
(0.000105741 -7.10662e-07 0)
(0.000106487 -2.11813e-06 0)
(0.000104403 -3.77357e-07 0)
(8.88275e-05 -1.13338e-06 0)
(3.8037e-05 -7.84485e-09 0)
(2.58897e-11 -8.02471e-16 0)
(9.21439e-21 -9.87615e-16 0)
(1.2535e-19 -9.87492e-16 0)
(2.55887e-19 -9.87657e-16 0)
(2.43088e-19 -9.87781e-16 0)
(1.89981e-19 -9.87841e-16 0)
(1.41155e-19 -9.87863e-16 0)
(1.04926e-19 -9.87872e-16 0)
(7.62884e-20 -9.87877e-16 0)
(5.20506e-20 -9.8788e-16 0)
(3.03503e-20 -9.87882e-16 0)
(9.97857e-21 -9.87882e-16 0)
(-9.86438e-21 -9.87877e-16 0)
(-2.99825e-20 -9.87876e-16 0)
(-5.13394e-20 -9.87874e-16 0)
(-7.50209e-20 -9.8787e-16 0)
(-1.02586e-19 -9.87864e-16 0)
(-1.36324e-19 -9.87852e-16 0)
(-1.78316e-19 -9.87827e-16 0)
(-2.18762e-19 -9.87769e-16 0)
(-2.20691e-19 -9.87665e-16 0)
(-1.22021e-19 -9.87548e-16 0)
(-3.35894e-20 -9.87638e-16 0)
(-6.11071e-20 -9.87688e-16 0)
(-5.41126e-21 -9.87443e-16 0)
(-1.44886e-11 -7.63634e-16 0)
(-3.39627e-05 -4.28478e-09 0)
(-8.15032e-05 -1.2156e-06 0)
(-9.78451e-05 -3.87293e-07 0)
(-0.000103165 1.85358e-06 0)
(-0.000105578 -7.27987e-07 0)
(-0.000105529 -7.37684e-07 0)
(-0.000104734 -1.85184e-06 0)
(-0.000103563 -1.08908e-06 0)
(-0.000103187 -7.3273e-07 0)
(-0.000102631 -1.12358e-06 0)
(-0.000101845 -1.02282e-06 0)
(-0.000101169 -1.20501e-06 0)
(-9.9673e-05 -2.20293e-06 0)
(-9.78888e-05 -1.63078e-06 0)
(-9.68584e-05 -1.27952e-06 0)
(-9.59662e-05 -1.66529e-06 0)
(-9.43234e-05 -3.14059e-06 0)
(-9.12984e-05 -5.66993e-06 0)
(-8.78213e-05 -1.00065e-05 0)
(-8.39141e-05 -1.3701e-05 0)
(-7.82608e-05 -1.84828e-05 0)
(-7.03018e-05 -2.41767e-05 0)
(-5.95733e-05 -3.04197e-05 0)
(-4.57746e-05 -3.66076e-05 0)
(-2.89817e-05 -4.17583e-05 0)
(-9.94013e-06 -4.47156e-05 0)
(9.94013e-06 -4.47156e-05 0)
(2.89817e-05 -4.17583e-05 0)
(4.57746e-05 -3.66076e-05 0)
(5.95733e-05 -3.04197e-05 0)
(7.03018e-05 -2.41767e-05 0)
(7.82608e-05 -1.84828e-05 0)
(8.39141e-05 -1.3701e-05 0)
(8.78213e-05 -1.00065e-05 0)
(9.12984e-05 -5.66993e-06 0)
(9.43234e-05 -3.14059e-06 0)
(9.59662e-05 -1.66529e-06 0)
(9.68584e-05 -1.27952e-06 0)
(9.78888e-05 -1.63078e-06 0)
(9.9673e-05 -2.20293e-06 0)
(0.000101169 -1.20501e-06 0)
(0.000101845 -1.02282e-06 0)
(0.000102631 -1.12358e-06 0)
(0.000103187 -7.3273e-07 0)
(0.000103563 -1.08908e-06 0)
(0.000104734 -1.85184e-06 0)
(0.000105529 -7.37684e-07 0)
(0.000105578 -7.27987e-07 0)
(0.000103165 1.85358e-06 0)
(9.78451e-05 -3.87293e-07 0)
(8.15032e-05 -1.2156e-06 0)
(3.39627e-05 -4.28478e-09 0)
(1.44886e-11 -7.63634e-16 0)
(5.41126e-21 -9.87443e-16 0)
(6.11071e-20 -9.87688e-16 0)
(3.35894e-20 -9.87638e-16 0)
(1.22021e-19 -9.87548e-16 0)
(2.20691e-19 -9.87665e-16 0)
(2.18762e-19 -9.87769e-16 0)
(1.78316e-19 -9.87827e-16 0)
(1.36324e-19 -9.87852e-16 0)
(1.02586e-19 -9.87864e-16 0)
(7.50209e-20 -9.8787e-16 0)
(5.13394e-20 -9.87874e-16 0)
(2.99825e-20 -9.87876e-16 0)
(9.86438e-21 -9.87877e-16 0)
(-9.7038e-21 -9.87871e-16 0)
(-2.94667e-20 -9.8787e-16 0)
(-5.03483e-20 -9.87867e-16 0)
(-7.32782e-20 -9.87862e-16 0)
(-9.94607e-20 -9.87855e-16 0)
(-1.30275e-19 -9.87841e-16 0)
(-1.65662e-19 -9.87814e-16 0)
(-1.95575e-19 -9.8776e-16 0)
(-1.91215e-19 -9.87675e-16 0)
(-1.17442e-19 -9.87592e-16 0)
(-4.98041e-20 -9.87643e-16 0)
(-5.41097e-20 -9.87674e-16 0)
(-1.68911e-20 -9.87611e-16 0)
(-2.60861e-20 -9.87733e-16 0)
(2.16422e-21 -9.87484e-16 0)
(-1.44958e-15 -7.96761e-16 0)
(-1.28583e-05 -4.46432e-12 0)
(-5.9206e-05 1.23202e-06 0)
(-9.58824e-05 -4.19259e-07 0)
(-0.000100868 -4.10843e-07 0)
(-0.000101955 -2.46814e-06 0)
(-0.000101288 -1.23763e-06 0)
(-0.000101509 -7.64297e-07 0)
(-0.000101202 -1.46517e-06 0)
(-0.000100496 -1.23368e-06 0)
(-0.000100114 -1.39917e-06 0)
(-9.85445e-05 -3.03019e-06 0)
(-9.65597e-05 -2.03829e-06 0)
(-9.57416e-05 -1.50436e-06 0)
(-9.51989e-05 -1.93991e-06 0)
(-9.39448e-05 -3.81297e-06 0)
(-9.17346e-05 -6.65738e-06 0)
(-8.93205e-05 -1.19287e-05 0)
(-8.63154e-05 -1.66006e-05 0)
(-8.15428e-05 -2.28436e-05 0)
(-7.42815e-05 -3.04092e-05 0)
(-6.39108e-05 -3.8871e-05 0)
(-4.98707e-05 -4.75365e-05 0)
(-3.1977e-05 -5.49894e-05 0)
(-1.10437e-05 -5.93399e-05 0)
(1.10437e-05 -5.93399e-05 0)
(3.1977e-05 -5.49894e-05 0)
(4.98707e-05 -4.75365e-05 0)
(6.39108e-05 -3.8871e-05 0)
(7.42815e-05 -3.04092e-05 0)
(8.15428e-05 -2.28436e-05 0)
(8.63154e-05 -1.66006e-05 0)
(8.93205e-05 -1.19287e-05 0)
(9.17346e-05 -6.65738e-06 0)
(9.39448e-05 -3.81297e-06 0)
(9.51989e-05 -1.93991e-06 0)
(9.57416e-05 -1.50436e-06 0)
(9.65597e-05 -2.03829e-06 0)
(9.85445e-05 -3.03019e-06 0)
(0.000100114 -1.39917e-06 0)
(0.000100496 -1.23368e-06 0)
(0.000101202 -1.46517e-06 0)
(0.000101509 -7.64297e-07 0)
(0.000101288 -1.23763e-06 0)
(0.000101955 -2.46814e-06 0)
(0.000100868 -4.10843e-07 0)
(9.58824e-05 -4.19259e-07 0)
(5.9206e-05 1.23202e-06 0)
(1.28583e-05 -4.46432e-12 0)
(1.44958e-15 -7.96761e-16 0)
(-2.16422e-21 -9.87484e-16 0)
(2.60861e-20 -9.87733e-16 0)
(1.68911e-20 -9.87611e-16 0)
(5.41097e-20 -9.87674e-16 0)
(4.98041e-20 -9.87643e-16 0)
(1.17442e-19 -9.87592e-16 0)
(1.91215e-19 -9.87675e-16 0)
(1.95575e-19 -9.8776e-16 0)
(1.65662e-19 -9.87814e-16 0)
(1.30275e-19 -9.87841e-16 0)
(9.94607e-20 -9.87855e-16 0)
(7.32782e-20 -9.87862e-16 0)
(5.03483e-20 -9.87867e-16 0)
(2.94667e-20 -9.8787e-16 0)
(9.7038e-21 -9.87871e-16 0)
(-9.4889e-21 -9.87864e-16 0)
(-2.87788e-20 -9.87863e-16 0)
(-4.90378e-20 -9.8786e-16 0)
(-7.10117e-20 -9.87854e-16 0)
(-9.55267e-20 -9.87845e-16 0)
(-1.23142e-19 -9.8783e-16 0)
(-1.5238e-19 -9.87803e-16 0)
(-1.73885e-19 -9.87754e-16 0)
(-1.66462e-19 -9.87685e-16 0)
(-1.11749e-19 -9.87625e-16 0)
(-5.97357e-20 -9.8765e-16 0)
(-5.09673e-20 -9.87668e-16 0)
(-2.44162e-20 -9.87638e-16 0)
(-2.34881e-20 -9.87704e-16 0)
(-4.36343e-21 -9.87629e-16 0)
(1.62521e-22 -9.87737e-16 0)
(-6.63023e-20 -9.87693e-16 0)
(2.32508e-20 -8.88764e-16 0)
(-6.10656e-10 -6.95168e-16 0)
(-3.66271e-05 -3.37864e-08 0)
(-8.17361e-05 -1.39471e-06 0)
(-9.31222e-05 -6.37956e-07 0)
(-9.75728e-05 -3.83846e-07 0)
(-9.88762e-05 -1.81507e-06 0)
(-9.86955e-05 -1.35521e-06 0)
(-9.90274e-05 -1.41108e-06 0)
(-9.74033e-05 -4.20218e-06 0)
(-9.50837e-05 -2.41658e-06 0)
(-9.46217e-05 -1.63394e-06 0)
(-9.45797e-05 -2.07487e-06 0)
(-9.3779e-05 -4.43632e-06 0)
(-9.25845e-05 -7.23704e-06 0)
(-9.16671e-05 -1.32134e-05 0)
(-9.00284e-05 -1.88659e-05 0)
(-8.66018e-05 -2.68349e-05 0)
(-8.04287e-05 -3.66681e-05 0)
(-7.07396e-05 -4.79196e-05 0)
(-5.65186e-05 -6.00685e-05 0)
(-3.69548e-05 -7.10907e-05 0)
(-1.28957e-05 -7.76587e-05 0)
(1.28957e-05 -7.76587e-05 0)
(3.69548e-05 -7.10907e-05 0)
(5.65186e-05 -6.00685e-05 0)
(7.07396e-05 -4.79196e-05 0)
(8.04287e-05 -3.66681e-05 0)
(8.66018e-05 -2.68349e-05 0)
(9.00284e-05 -1.88659e-05 0)
(9.16671e-05 -1.32134e-05 0)
(9.25845e-05 -7.23704e-06 0)
(9.3779e-05 -4.43632e-06 0)
(9.45797e-05 -2.07487e-06 0)
(9.46217e-05 -1.63394e-06 0)
(9.50837e-05 -2.41658e-06 0)
(9.74033e-05 -4.20218e-06 0)
(9.90274e-05 -1.41108e-06 0)
(9.86955e-05 -1.35521e-06 0)
(9.88762e-05 -1.81507e-06 0)
(9.75728e-05 -3.83846e-07 0)
(9.31222e-05 -6.37956e-07 0)
(8.17361e-05 -1.39471e-06 0)
(3.66271e-05 -3.37864e-08 0)
(6.10656e-10 -6.95168e-16 0)
(-2.32508e-20 -8.88764e-16 0)
(6.63023e-20 -9.87693e-16 0)
(-1.6252e-22 -9.87737e-16 0)
(4.36343e-21 -9.87629e-16 0)
(2.34881e-20 -9.87704e-16 0)
(2.44162e-20 -9.87638e-16 0)
(5.09673e-20 -9.87668e-16 0)
(5.97357e-20 -9.8765e-16 0)
(1.11749e-19 -9.87625e-16 0)
(1.66462e-19 -9.87685e-16 0)
(1.73885e-19 -9.87754e-16 0)
(1.5238e-19 -9.87803e-16 0)
(1.23142e-19 -9.8783e-16 0)
(9.55267e-20 -9.87845e-16 0)
(7.10117e-20 -9.87854e-16 0)
(4.90378e-20 -9.8786e-16 0)
(2.87788e-20 -9.87863e-16 0)
(9.4889e-21 -9.87864e-16 0)
(-9.2122e-21 -9.87857e-16 0)
(-2.78971e-20 -9.87856e-16 0)
(-4.73751e-20 -9.87852e-16 0)
(-6.81921e-20 -9.87846e-16 0)
(-9.08047e-20 -9.87836e-16 0)
(-1.15105e-19 -9.8782e-16 0)
(-1.38828e-19 -9.87793e-16 0)
(-1.53893e-19 -9.8775e-16 0)
(-1.45522e-19 -9.87695e-16 0)
(-1.05151e-19 -9.8765e-16 0)
(-6.49501e-20 -9.87659e-16 0)
(-4.98558e-20 -9.87668e-16 0)
(-2.93052e-20 -9.87655e-16 0)
(-2.3028e-20 -9.87689e-16 0)
(-9.60605e-21 -9.87655e-16 0)
(-8.13679e-21 -9.87713e-16 0)
(-4.04639e-20 -9.87687e-16 0)
(9.19768e-21 -9.87605e-16 0)
(-1.99015e-21 -9.87739e-16 0)
(6.14153e-20 -9.87149e-16 0)
(1.12265e-19 -8.24691e-16 0)
(-3.07169e-09 -6.61477e-16 0)
(-3.77847e-05 -1.13478e-08 0)
(-8.16545e-05 -9.90073e-07 0)
(-9.04953e-05 -6.89968e-07 0)
(-9.54493e-05 -6.80947e-07 0)
(-9.52176e-05 -5.93061e-06 0)
(-9.28482e-05 -2.61412e-06 0)
(-9.32401e-05 -1.57524e-06 0)
(-9.40225e-05 -1.94664e-06 0)
(-9.3725e-05 -5.05219e-06 0)
(-9.36938e-05 -7.13727e-06 0)
(-9.48641e-05 -1.32723e-05 0)
(-9.53579e-05 -1.97554e-05 0)
(-9.40265e-05 -2.99109e-05 0)
(-8.95387e-05 -4.25012e-05 0)
(-8.12533e-05 -5.71126e-05 0)
(-6.73586e-05 -7.44104e-05 0)
(-4.53952e-05 -9.15862e-05 0)
(-1.60753e-05 -0.000102006 0)
(1.60753e-05 -0.000102006 0)
(4.53952e-05 -9.15862e-05 0)
(6.73586e-05 -7.44104e-05 0)
(8.12533e-05 -5.71126e-05 0)
(8.95387e-05 -4.25012e-05 0)
(9.40265e-05 -2.99109e-05 0)
(9.53579e-05 -1.97554e-05 0)
(9.48641e-05 -1.32723e-05 0)
(9.36938e-05 -7.13727e-06 0)
(9.3725e-05 -5.05219e-06 0)
(9.40225e-05 -1.94664e-06 0)
(9.32401e-05 -1.57524e-06 0)
(9.28482e-05 -2.61412e-06 0)
(9.52176e-05 -5.93061e-06 0)
(9.54493e-05 -6.80947e-07 0)
(9.04953e-05 -6.89968e-07 0)
(8.16545e-05 -9.90073e-07 0)
(3.77847e-05 -1.13478e-08 0)
(3.07169e-09 -6.61477e-16 0)
(-1.12265e-19 -8.24691e-16 0)
(-6.14153e-20 -9.87149e-16 0)
(1.99015e-21 -9.87739e-16 0)
(-9.19768e-21 -9.87605e-16 0)
(4.04639e-20 -9.87687e-16 0)
(8.13679e-21 -9.87713e-16 0)
(9.60605e-21 -9.87655e-16 0)
(2.3028e-20 -9.87689e-16 0)
(2.93052e-20 -9.87655e-16 0)
(4.98558e-20 -9.87668e-16 0)
(6.49501e-20 -9.87659e-16 0)
(1.05151e-19 -9.8765e-16 0)
(1.45522e-19 -9.87695e-16 0)
(1.53893e-19 -9.8775e-16 0)
(1.38828e-19 -9.87793e-16 0)
(1.15105e-19 -9.8782e-16 0)
(9.08047e-20 -9.87836e-16 0)
(6.81921e-20 -9.87846e-16 0)
(4.73751e-20 -9.87852e-16 0)
(2.78971e-20 -9.87856e-16 0)
(9.2122e-21 -9.87857e-16 0)
(-8.86756e-21 -9.8785e-16 0)
(-2.68048e-20 -9.87848e-16 0)
(-4.53399e-20 -9.87844e-16 0)
(-6.48159e-20 -9.87838e-16 0)
(-8.53589e-20 -9.87827e-16 0)
(-1.06381e-19 -9.87811e-16 0)
(-1.25332e-19 -9.87785e-16 0)
(-1.35667e-19 -9.87748e-16 0)
(-1.27609e-19 -9.87704e-16 0)
(-9.78867e-20 -9.87669e-16 0)
(-6.67031e-20 -9.87668e-16 0)
(-4.94987e-20 -9.87672e-16 0)
(-3.24126e-20 -9.87667e-16 0)
(-2.36521e-20 -9.87684e-16 0)
(-1.3468e-20 -9.8767e-16 0)
(-1.19006e-20 -9.87699e-16 0)
(-2.50761e-20 -9.87683e-16 0)
(3.39671e-21 -9.87641e-16 0)
(7.79906e-21 -9.87701e-16 0)
(4.81939e-20 -9.87608e-16 0)
(6.93933e-20 -9.87758e-16 0)
(-3.74784e-20 -9.87764e-16 0)
(6.12673e-20 -9.86803e-16 0)
(1.40913e-19 -8.35813e-16 0)
(-1.31832e-11 -6.88381e-16 0)
(-2.26618e-05 -5.98305e-09 0)
(-6.10035e-05 -3.48098e-06 0)
(-8.099e-05 -1.3185e-06 0)
(-8.75691e-05 -7.41471e-07 0)
(-9.17989e-05 -1.09268e-06 0)
(-9.29409e-05 -5.77903e-06 0)
(-9.43639e-05 -5.96347e-06 0)
(-9.85185e-05 -1.1097e-05 0)
(-0.000102598 -1.76886e-05 0)
(-0.000104648 -3.1269e-05 0)
(-0.000102525 -4.71861e-05 0)
(-9.72202e-05 -6.48348e-05 0)
(-8.56435e-05 -9.00036e-05 0)
(-6.04929e-05 -0.00011936 0)
(-2.18117e-05 -0.000136987 0)
(2.18117e-05 -0.000136987 0)
(6.04929e-05 -0.00011936 0)
(8.56435e-05 -9.00036e-05 0)
(9.72202e-05 -6.48348e-05 0)
(0.000102525 -4.71861e-05 0)
(0.000104648 -3.1269e-05 0)
(0.000102598 -1.76886e-05 0)
(9.85185e-05 -1.1097e-05 0)
(9.43639e-05 -5.96347e-06 0)
(9.29409e-05 -5.77903e-06 0)
(9.17989e-05 -1.09268e-06 0)
(8.75691e-05 -7.41471e-07 0)
(8.099e-05 -1.3185e-06 0)
(6.10035e-05 -3.48098e-06 0)
(2.26618e-05 -5.98305e-09 0)
(1.31832e-11 -6.88381e-16 0)
(-1.40913e-19 -8.35813e-16 0)
(-6.12673e-20 -9.86803e-16 0)
(3.74784e-20 -9.87764e-16 0)
(-6.93933e-20 -9.87758e-16 0)
(-4.81939e-20 -9.87608e-16 0)
(-7.79906e-21 -9.87701e-16 0)
(-3.39671e-21 -9.87641e-16 0)
(2.50761e-20 -9.87683e-16 0)
(1.19006e-20 -9.87699e-16 0)
(1.3468e-20 -9.8767e-16 0)
(2.36521e-20 -9.87684e-16 0)
(3.24126e-20 -9.87667e-16 0)
(4.94987e-20 -9.87672e-16 0)
(6.67031e-20 -9.87668e-16 0)
(9.78867e-20 -9.87669e-16 0)
(1.27609e-19 -9.87704e-16 0)
(1.35667e-19 -9.87748e-16 0)
(1.25332e-19 -9.87785e-16 0)
(1.06381e-19 -9.87811e-16 0)
(8.53589e-20 -9.87827e-16 0)
(6.48159e-20 -9.87838e-16 0)
(4.53399e-20 -9.87844e-16 0)
(2.68048e-20 -9.87848e-16 0)
(8.86756e-21 -9.8785e-16 0)
(-8.45114e-21 -9.87842e-16 0)
(-2.5493e-20 -9.8784e-16 0)
(-4.29288e-20 -9.87836e-16 0)
(-6.09099e-20 -9.87829e-16 0)
(-7.92948e-20 -9.87818e-16 0)
(-9.72053e-20 -9.87802e-16 0)
(-1.12166e-19 -9.87779e-16 0)
(-1.19172e-19 -9.87747e-16 0)
(-1.1208e-19 -9.87711e-16 0)
(-9.01971e-20 -9.87684e-16 0)
(-6.59692e-20 -9.87678e-16 0)
(-4.90844e-20 -9.87678e-16 0)
(-3.42387e-20 -9.87675e-16 0)
(-2.46073e-20 -9.87683e-16 0)
(-1.60663e-20 -9.87679e-16 0)
(-1.32269e-20 -9.87692e-16 0)
(-1.61138e-20 -9.87682e-16 0)
(1.6087e-21 -9.87662e-16 0)
(1.16957e-20 -9.87687e-16 0)
(3.73406e-20 -9.87652e-16 0)
(4.67102e-20 -9.87728e-16 0)
(-6.21321e-22 -9.87727e-16 0)
(5.17387e-20 -9.87609e-16 0)
(9.0739e-20 -9.87763e-16 0)
(8.58581e-21 -9.87777e-16 0)
(5.19515e-20 -9.87535e-16 0)
(1.12734e-19 -8.88942e-16 0)
(2.95931e-20 -7.66022e-16 0)
(-4.50163e-09 -6.44341e-16 0)
(-3.02357e-05 -1.94566e-07 0)
(-6.99524e-05 -3.09472e-06 0)
(-8.56299e-05 -2.52454e-06 0)
(-9.6419e-05 -4.64575e-06 0)
(-0.000108602 -7.82136e-06 0)
(-0.000117708 -2.99172e-05 0)
(-0.000118292 -5.01966e-05 0)
(-0.000119925 -6.53584e-05 0)
(-0.000118287 -0.000102422 0)
(-8.98261e-05 -0.000161057 0)
(-3.27888e-05 -0.000192392 0)
(3.27888e-05 -0.000192392 0)
(8.98261e-05 -0.000161057 0)
(0.000118287 -0.000102422 0)
(0.000119925 -6.53584e-05 0)
(0.000118292 -5.01966e-05 0)
(0.000117708 -2.99172e-05 0)
(0.000108602 -7.82136e-06 0)
(9.6419e-05 -4.64575e-06 0)
(8.56299e-05 -2.52454e-06 0)
(6.99524e-05 -3.09472e-06 0)
(3.02357e-05 -1.94566e-07 0)
(4.50163e-09 -6.44341e-16 0)
(-2.95931e-20 -7.66022e-16 0)
(-1.12734e-19 -8.88942e-16 0)
(-5.19515e-20 -9.87535e-16 0)
(-8.58581e-21 -9.87777e-16 0)
(-9.0739e-20 -9.87763e-16 0)
(-5.17387e-20 -9.87609e-16 0)
(6.21321e-22 -9.87727e-16 0)
(-4.67102e-20 -9.87728e-16 0)
(-3.73406e-20 -9.87652e-16 0)
(-1.16957e-20 -9.87687e-16 0)
(-1.6087e-21 -9.87662e-16 0)
(1.61138e-20 -9.87682e-16 0)
(1.32269e-20 -9.87692e-16 0)
(1.60663e-20 -9.87679e-16 0)
(2.46073e-20 -9.87683e-16 0)
(3.42387e-20 -9.87675e-16 0)
(4.90844e-20 -9.87678e-16 0)
(6.59692e-20 -9.87678e-16 0)
(9.01971e-20 -9.87684e-16 0)
(1.1208e-19 -9.87711e-16 0)
(1.19172e-19 -9.87747e-16 0)
(1.12166e-19 -9.87779e-16 0)
(9.72053e-20 -9.87802e-16 0)
(7.92948e-20 -9.87818e-16 0)
(6.09099e-20 -9.87829e-16 0)
(4.29288e-20 -9.87836e-16 0)
(2.5493e-20 -9.8784e-16 0)
(8.45114e-21 -9.87842e-16 0)
(-7.9625e-21 -9.87834e-16 0)
(-2.39641e-20 -9.87832e-16 0)
(-4.01597e-20 -9.87828e-16 0)
(-5.65334e-20 -9.87821e-16 0)
(-7.27519e-20 -9.8781e-16 0)
(-8.78161e-20 -9.87795e-16 0)
(-9.95435e-20 -9.87773e-16 0)
(-1.04304e-19 -9.87747e-16 0)
(-9.84283e-20 -9.87718e-16 0)
(-8.2299e-20 -9.87696e-16 0)
(-6.34852e-20 -9.87687e-16 0)
(-4.81639e-20 -9.87684e-16 0)
(-3.50494e-20 -9.87682e-16 0)
(-2.54055e-20 -9.87686e-16 0)
(-1.76126e-20 -9.87685e-16 0)
(-1.33724e-20 -9.8769e-16 0)
(-1.09957e-20 -9.87684e-16 0)
(1.39332e-21 -9.87674e-16 0)
(1.24124e-20 -9.87684e-16 0)
(2.91576e-20 -9.87674e-16 0)
(3.47949e-20 -9.87712e-16 0)
(1.70112e-20 -9.87711e-16 0)
(4.4342e-20 -9.87663e-16 0)
(6.34071e-20 -9.87737e-16 0)
(2.84777e-20 -9.87747e-16 0)
(4.86125e-20 -9.87684e-16 0)
(7.35594e-20 -9.87763e-16 0)
(2.29483e-20 -9.87805e-16 0)
(-5.40121e-20 -9.87778e-16 0)
(4.5124e-20 -9.86837e-16 0)
(1.23882e-19 -8.82496e-16 0)
(4.21931e-21 -7.68936e-16 0)
(-1.33743e-15 -6.7982e-16 0)
(-2.28133e-06 -2.09096e-12 0)
(-2.87037e-05 -1.42156e-05 0)
(-7.61897e-05 -2.56289e-05 0)
(-0.000127097 -3.13504e-05 0)
(-0.00017332 -8.55594e-05 0)
(-0.000149359 -0.000235763 0)
(-5.33683e-05 -0.000288435 0)
(5.33683e-05 -0.000288435 0)
(0.000149359 -0.000235763 0)
(0.00017332 -8.55594e-05 0)
(0.000127097 -3.13504e-05 0)
(7.61897e-05 -2.56289e-05 0)
(2.87037e-05 -1.42156e-05 0)
(2.28133e-06 -2.09096e-12 0)
(1.33743e-15 -6.7982e-16 0)
(-4.21931e-21 -7.68936e-16 0)
(-1.23882e-19 -8.82496e-16 0)
(-4.5124e-20 -9.86837e-16 0)
(5.40121e-20 -9.87778e-16 0)
(-2.29483e-20 -9.87805e-16 0)
(-7.35594e-20 -9.87763e-16 0)
(-4.86125e-20 -9.87684e-16 0)
(-2.84777e-20 -9.87747e-16 0)
(-6.34071e-20 -9.87737e-16 0)
(-4.4342e-20 -9.87663e-16 0)
(-1.70112e-20 -9.87711e-16 0)
(-3.47949e-20 -9.87712e-16 0)
(-2.91576e-20 -9.87674e-16 0)
(-1.24124e-20 -9.87684e-16 0)
(-1.39332e-21 -9.87674e-16 0)
(1.09957e-20 -9.87684e-16 0)
(1.33724e-20 -9.8769e-16 0)
(1.76126e-20 -9.87685e-16 0)
(2.54055e-20 -9.87686e-16 0)
(3.50494e-20 -9.87682e-16 0)
(4.81639e-20 -9.87684e-16 0)
(6.34852e-20 -9.87687e-16 0)
(8.2299e-20 -9.87696e-16 0)
(9.84283e-20 -9.87718e-16 0)
(1.04304e-19 -9.87747e-16 0)
(9.95435e-20 -9.87773e-16 0)
(8.78161e-20 -9.87795e-16 0)
(7.27519e-20 -9.8781e-16 0)
(5.65334e-20 -9.87821e-16 0)
(4.01597e-20 -9.87828e-16 0)
(2.39641e-20 -9.87832e-16 0)
(7.9625e-21 -9.87834e-16 0)
(-7.40548e-21 -9.87826e-16 0)
(-2.22338e-20 -9.87824e-16 0)
(-3.70733e-20 -9.87819e-16 0)
(-5.17759e-20 -9.87812e-16 0)
(-6.58931e-20 -9.87802e-16 0)
(-7.84355e-20 -9.87788e-16 0)
(-8.76153e-20 -9.87769e-16 0)
(-9.09227e-20 -9.87747e-16 0)
(-8.62753e-20 -9.87724e-16 0)
(-7.43747e-20 -9.87705e-16 0)
(-5.98e-20 -9.87696e-16 0)
(-4.65474e-20 -9.87691e-16 0)
(-3.49839e-20 -9.87689e-16 0)
(-2.5772e-20 -9.87689e-16 0)
(-1.83314e-20 -9.87689e-16 0)
(-1.30194e-20 -9.87691e-16 0)
(-8.13612e-21 -9.87688e-16 0)
(1.53393e-21 -9.87683e-16 0)
(1.16236e-20 -9.87687e-16 0)
(2.32375e-20 -9.87687e-16 0)
(2.81679e-20 -9.87706e-16 0)
(2.39421e-20 -9.87706e-16 0)
(3.85027e-20 -9.8769e-16 0)
(4.82803e-20 -9.87725e-16 0)
(3.515e-20 -9.87734e-16 0)
(4.36266e-20 -9.87713e-16 0)
(5.13742e-20 -9.87752e-16 0)
(2.25163e-20 -9.87775e-16 0)
(-1.09859e-20 -9.87751e-16 0)
(3.61697e-20 -9.8766e-16 0)
(7.15656e-20 -9.87778e-16 0)
(1.46306e-20 -9.87803e-16 0)
(-2.34638e-20 -9.87765e-16 0)
(-3.52684e-21 -9.87698e-16 0)
(4.74697e-20 -9.78334e-16 0)
(3.88856e-20 -9.39413e-16 0)
(-1.12018e-07 -1.19369e-13 0)
(-2.59503e-05 -3.49549e-05 0)
(-8.06708e-05 -0.000248811 0)
(-5.48326e-05 -0.000419453 0)
(5.48326e-05 -0.000419453 0)
(8.06708e-05 -0.000248811 0)
(2.59503e-05 -3.49549e-05 0)
(1.12018e-07 -1.19369e-13 0)
(-3.88856e-20 -9.39413e-16 0)
(-4.74697e-20 -9.78334e-16 0)
(3.52684e-21 -9.87698e-16 0)
(2.34638e-20 -9.87765e-16 0)
(-1.46306e-20 -9.87803e-16 0)
(-7.15656e-20 -9.87778e-16 0)
(-3.61697e-20 -9.8766e-16 0)
(1.09859e-20 -9.87751e-16 0)
(-2.25163e-20 -9.87775e-16 0)
(-5.13742e-20 -9.87752e-16 0)
(-4.36266e-20 -9.87713e-16 0)
(-3.515e-20 -9.87734e-16 0)
(-4.82803e-20 -9.87725e-16 0)
(-3.85027e-20 -9.8769e-16 0)
(-2.39421e-20 -9.87706e-16 0)
(-2.81679e-20 -9.87706e-16 0)
(-2.32375e-20 -9.87687e-16 0)
(-1.16236e-20 -9.87687e-16 0)
(-1.53393e-21 -9.87683e-16 0)
(8.13612e-21 -9.87688e-16 0)
(1.30194e-20 -9.87691e-16 0)
(1.83314e-20 -9.87689e-16 0)
(2.5772e-20 -9.87689e-16 0)
(3.49839e-20 -9.87689e-16 0)
(4.65474e-20 -9.87691e-16 0)
(5.98e-20 -9.87696e-16 0)
(7.43747e-20 -9.87705e-16 0)
(8.62753e-20 -9.87724e-16 0)
(9.09227e-20 -9.87747e-16 0)
(8.76153e-20 -9.87769e-16 0)
(7.84355e-20 -9.87788e-16 0)
(6.58931e-20 -9.87802e-16 0)
(5.17759e-20 -9.87812e-16 0)
(3.70733e-20 -9.87819e-16 0)
(2.22338e-20 -9.87824e-16 0)
(7.40548e-21 -9.87826e-16 0)
(-6.78877e-21 -9.87818e-16 0)
(-2.03323e-20 -9.87816e-16 0)
(-3.37335e-20 -9.87811e-16 0)
(-4.67514e-20 -9.87804e-16 0)
(-5.88913e-20 -9.87795e-16 0)
(-6.92593e-20 -9.87782e-16 0)
(-7.64753e-20 -9.87765e-16 0)
(-7.88774e-20 -9.87747e-16 0)
(-7.53456e-20 -9.87728e-16 0)
(-6.65678e-20 -9.87713e-16 0)
(-5.53207e-20 -9.87703e-16 0)
(-4.42153e-20 -9.87698e-16 0)
(-3.41339e-20 -9.87695e-16 0)
(-2.55878e-20 -9.87694e-16 0)
(-1.84154e-20 -9.87693e-16 0)
(-1.24904e-20 -9.87693e-16 0)
(-6.58353e-21 -9.87691e-16 0)
(1.5493e-21 -9.87689e-16 0)
(1.02539e-20 -9.87692e-16 0)
(1.89558e-20 -9.87694e-16 0)
(2.3929e-20 -9.87704e-16 0)
(2.53276e-20 -9.87706e-16 0)
(3.36807e-20 -9.87704e-16 0)
(3.92692e-20 -9.87721e-16 0)
(3.53185e-20 -9.87728e-16 0)
(3.83993e-20 -9.87725e-16 0)
(3.91536e-20 -9.87745e-16 0)
(2.35792e-20 -9.87756e-16 0)
(9.51662e-21 -9.87742e-16 0)
(3.02397e-20 -9.87708e-16 0)
(4.47365e-20 -9.87758e-16 0)
(1.94403e-20 -9.87775e-16 0)
(2.65123e-21 -9.87757e-16 0)
(7.18061e-21 -9.87742e-16 0)
(1.61353e-20 -9.87747e-16 0)
(1.11792e-20 -9.8777e-16 0)
(-1.7634e-10 -1.6673e-15 0)
(-1.77205e-07 -5.39879e-06 0)
(-8.77708e-06 -0.00020122 0)
(-8.60006e-06 -0.000501071 0)