/*--------------------------------*- C++ -*----------------------------------*\
  =========                 |
  \\      /  F ield         | OpenFOAM: The Open Source CFD Toolbox
   \\    /   O peration     | Website:  https://openfoam.org
    \\  /    A nd           | Version:  10
     \\/     M anipulation  |
\*---------------------------------------------------------------------------*/
FoamFile
{
    format      ascii;
    class       volScalarField;
    location    "0.064";
    object      T;
}
// * * * * * * * * * * * * * * * * * * * * * * * * * * * * * * * * * * * * * //

dimensions      [0 0 0 1 0 0 0];

internalField   nonuniform List<scalar> 
12225
(
1.00078
0.99983
1.00012
1.00011
1.00018
1.00045
1.00048
1.00029
1.00024
1.00036
1.00043
1.00035
1.00016
0.999876
0.999514
0.998802
0.996882
0.993659
1.00003
0.999827
1.00006
1.00005
1.00011
1.00041
1.0005
1.00033
1.00023
1.00031
1.00039
1.00032
1.00014
0.999861
0.999462
0.998755
0.997116
0.99423
0.999764
1.00012
1.00024
1.00008
1.0001
1.00037
1.00045
1.00029
1.0002
1.00027
1.00032
1.00025
1.00012
0.999907
0.999568
0.99894
0.997512
0.995141
1.00007
1.00003
1.00016
1.0001
1.00011
1.00032
1.0004
1.00028
1.00022
1.0003
1.00037
1.00032
1.00019
0.999961
0.999588
0.998978
0.997817
0.996038
1.00009
1.00028
1.00054
1.00023
1.00008
1.00033
1.00048
1.00036
1.00024
1.00025
1.00027
1.00022
1.00009
0.999917
0.999636
0.999189
0.998344
0.997031
0.999792
1.00009
1.00049
1.00028
1.00011
1.00027
1.00034
1.00022
1.00017
1.00024
1.00031
1.00028
1.00017
1.00001
0.99976
0.99937
0.998714
0.997732
0.999775
1.00037
1.00097
1.00049
1.00007
1.00026
1.00043
1.00036
1.00027
1.00025
1.00024
1.00017
1.00007
0.999943
0.999754
0.999459
0.998984
0.998258
1.00009
1.00051
1.00094
1.00043
1.00008
1.00025
1.00031
1.00018
1.00011
1.00017
1.00023
1.00022
1.00015
1.00005
0.999897
0.99966
0.999301
0.998763
0.998855
1.00088
1.00126
1.00046
0.999973
1.00016
1.00035
1.00032
1.00025
1.00023
1.0002
1.00013
1.00005
0.999964
0.999857
0.999686
0.99943
0.999035
0.999599
1.00093
1.00109
1.00044
1.00005
1.00017
1.00024
1.0001
1.00002
1.00007
1.00013
1.00014
1.00012
1.00008
1.00002
0.999894
0.999702
0.999425
0.998572
1.0006
1.00111
1.00033
0.999871
1.00008
1.00029
1.00025
1.00019
1.0002
1.00018
1.0001
1.00002
0.999957
0.999889
0.999796
0.999653
0.999463
1.00011
1.00078
1.00092
1.00036
0.999945
1.00006
1.00014
1.00001
0.999937
0.999983
1.00006
1.00009
1.00009
1.00008
1.00006
1
0.999913
0.999772
0.998767
1.00066
1.00065
1.00025
0.999877
1.00001
1.00019
1.00015
1.0001
1.00011
1.0001
1.00004
0.999989
0.999954
0.999929
0.999885
0.999821
0.999721
1.00051
1.00017
0.999747
0.999892
0.999828
0.999884
0.999944
0.999884
0.999844
0.999892
0.999966
1.00002
1.00004
1.00005
1.00004
1.00003
0.999986
0.999956
0.999766
0.999123
0.99988
1.00044
1.00028
1.00009
1.00006
1.00008
1.00009
1.00008
1.00006
1.00004
1
0.999965
0.999932
0.999913
0.999871
0.99984
1.00358
1.00016
0.999478
0.999135
0.999199
0.999423
0.999583
0.999723
0.999825
0.999862
0.999896
0.999958
1.00003
1.00007
1.0001
1.00012
1.00012
1.00012
0.998925
0.998094
0.998226
0.999189
0.999912
1.00019
1.00014
1.00005
1.00001
0.999986
0.999978
0.999984
0.999974
0.999959
0.999949
0.999952
0.999953
0.99996
1.00101
1.00005
0.999707
0.999502
0.99937
0.999427
0.999517
0.999607
0.999723
0.999868
0.999985
1.00004
1.00005
1.00008
1.00012
1.00017
1.0002
1.00022
0.998494
0.999983
1.00047
1.00037
1.00058
1.00076
1.00072
1.00065
1.0006
1.00057
1.00057
1.00057
1.00056
1.00054
1.00052
1.00049
1.00045
1.00041
1.00062
1.00247
1.00239
1.0013
1.00084
1.00062
1.00051
1.00048
1.00044
1.00037
1.00033
1.00029
1.00027
1.00028
1.0003
1.00033
1.00036
1.0004
0.998269
1.00068
1.00172
1.00135
1.00105
1.0009
1.00092
1.00096
1.0009
1.00081
1.00078
1.00078
1.00077
1.00074
1.0007
1.00066
1.00062
1.00058
0.998786
1.00001
1.00127
1.00127
1.00067
1.00056
1.00073
1.00068
1.00053
1.00052
1.00055
1.00053
1.0005
1.00048
1.00048
1.0005
1.00051
1.00052
1.00022
0.999391
1.00003
1.00066
1.00056
1.00055
1.0007
1.00072
1.0007
1.00075
1.0008
1.00075
1.00068
1.00066
1.00066
1.00065
1.00061
1.00058
0.999903
0.9998
1.00049
1.0009
1.00068
1.00055
1.00061
1.00063
1.00057
1.00052
1.0005
1.00048
1.00049
1.00052
1.00054
1.00056
1.00057
1.00058
0.999794
1.00045
1.0005
1.00049
1.00033
1.00028
1.00045
1.00062
1.00068
1.00069
1.00069
1.00067
1.00066
1.00067
1.00065
1.00062
1.00059
1.00057
0.998757
1.00083
1.00083
1.0007
1.00059
1.00055
1.00064
1.00065
1.00058
1.00054
1.00056
1.00058
1.00056
1.00056
1.00057
1.0006
1.00063
1.00065
0.99936
1.00107
1.00082
1.00038
1.0003
1.00037
1.00054
1.00062
1.00059
1.00058
1.00065
1.00072
1.00072
1.00068
1.00063
1.00059
1.00056
1.00055
0.999242
1.00085
1.00085
1.00061
1.0006
1.0006
1.00064
1.00063
1.00055
1.00049
1.00051
1.00055
1.00057
1.00057
1.00058
1.00059
1.0006
1.00061
0.998611
1.00033
1.00053
1.00047
1.00051
1.00054
1.00059
1.0006
1.00056
1.00055
1.00062
1.00068
1.0007
1.00066
1.00061
1.00055
1.00052
1.00052
0.999703
1.00021
1.00065
1.00068
1.00061
1.00057
1.0006
1.0006
1.00054
1.00053
1.0006
1.00068
1.00071
1.00067
1.00061
1.00057
1.00054
1.00058
0.868548
0.868623
0.868396
0.867904
0.867977
0.868616
0.869203
0.869892
0.870402
0.870362
0.869926
0.869354
0.868763
0.86817
0.867564
0.866931
0.866263
0.865556
0.864814
0.86404
0.863245
0.862423
0.861582
0.860721
0.859867
0.859119
0.858495
0.857966
0.85757
0.857363
0.857406
0.857686
0.857806
0.856609
0.85365
0.849833
0.845838
0.842841
0.840113
0.838104
0.836391
0.833555
0.83252
0.831318
0.829491
0.828131
0.827466
0.827565
0.826257
0.824124
0.823213
0.823934
0.828362
0.832312
0.833426
0.833004
0.832376
0.832165
0.83233
0.832774
0.833384
0.834086
0.834832
0.835602
0.836384
0.837178
0.837983
0.838799
0.839625
0.840462
0.841307
0.842159
0.843015
0.843873
0.844739
0.845633
0.846531
0.847415
0.848298
0.849178
0.850056
0.850932
0.851806
0.85268
0.853554
0.85443
0.855313
0.856206
0.857117
0.858056
0.85903
0.860045
0.861103
0.862213
0.863381
0.86459
0.865796
0.866961
0.868094
0.869231
0.870328
0.871255
0.871982
0.872682
0.873341
0.873552
0.873473
0.87345
0.873461
0.87365
0.874474
0.876846
0.880712
0.881011
0.873991
0.868601
0.869123
0.867084
0.863451
0.860215
0.854877
0.848329
0.840961
0.832058
0.822064
0.812212
0.803569
0.796617
0.791562
0.788467
0.78708
0.786953
0.787628
0.788756
0.79017
0.791866
0.793941
0.796493
0.799512
0.802868
0.806552
0.810452
0.814187
0.817238
0.819107
0.819794
0.819644
0.819124
0.818866
0.819613
0.821238
0.822167
0.82229
0.822126
0.821865
0.821633
0.821489
0.821407
0.82134
0.821266
0.821085
0.82077
0.820466
0.81995
0.819132
0.818588
0.817858
0.816617
0.81647
0.816716
0.815979
0.816692
0.819145
0.81823
0.814882
0.817815
0.825402
0.822737
0.813898
0.813504
0.867669
0.867691
0.867655
0.867123
0.867002
0.867506
0.868316
0.868813
0.868809
0.868401
0.867819
0.867235
0.866701
0.8662
0.865698
0.865169
0.864597
0.863981
0.863324
0.862642
0.861944
0.861247
0.860543
0.859825
0.859061
0.858178
0.857229
0.856312
0.855505
0.854878
0.854515
0.854428
0.854491
0.853818
0.851995
0.849981
0.847145
0.843474
0.840444
0.838741
0.836183
0.833529
0.831912
0.830642
0.828491
0.825901
0.825318
0.82156
0.821632
0.823783
0.822104
0.820212
0.824689
0.829343
0.830345
0.829861
0.82941
0.829369
0.829718
0.830346
0.831159
0.832064
0.833007
0.833953
0.834889
0.835813
0.836729
0.837641
0.838554
0.839471
0.840395
0.841329
0.842277
0.843241
0.844202
0.845132
0.846043
0.846953
0.847858
0.848763
0.84967
0.850578
0.851486
0.85239
0.853288
0.854179
0.855062
0.85594
0.856818
0.857709
0.858626
0.859588
0.860607
0.861701
0.86288
0.86413
0.865409
0.866674
0.867917
0.86916
0.870372
0.871434
0.872283
0.87307
0.873906
0.874444
0.8745
0.874287
0.873826
0.873307
0.873796
0.875911
0.879144
0.879346
0.872742
0.86672
0.866798
0.866819
0.864337
0.860326
0.854563
0.848345
0.841339
0.832532
0.822563
0.812715
0.803933
0.796833
0.791684
0.788485
0.786953
0.786638
0.787088
0.78798
0.789179
0.790712
0.792701
0.795276
0.798474
0.80216
0.80605
0.810073
0.814041
0.817377
0.819439
0.820183
0.820053
0.81962
0.819537
0.820496
0.82225
0.823137
0.823211
0.823001
0.822693
0.822419
0.822233
0.822108
0.822007
0.821891
0.821652
0.821319
0.821028
0.820455
0.819576
0.819082
0.818313
0.81691
0.816841
0.817232
0.816313
0.817078
0.819911
0.819193
0.815899
0.818099
0.824019
0.820746
0.814536
0.8148
0.870274
0.870404
0.870274
0.870275
0.869985
0.869594
0.869073
0.868369
0.867644
0.867055
0.866641
0.866339
0.866059
0.865739
0.865356
0.8649
0.864367
0.863752
0.863051
0.862268
0.861416
0.860525
0.859637
0.8588
0.858021
0.85725
0.856394
0.85539
0.854255
0.853108
0.852058
0.851168
0.85053
0.849954
0.849283
0.848531
0.847091
0.845073
0.842812
0.840368
0.837802
0.8349
0.832894
0.832346
0.829776
0.828675
0.82732
0.825632
0.821589
0.823342
0.824027
0.823591
0.824392
0.825044
0.825019
0.825114
0.825706
0.826725
0.828002
0.829326
0.83059
0.831743
0.832789
0.833753
0.834659
0.835529
0.836379
0.837221
0.838059
0.8389
0.839743
0.840593
0.841453
0.842333
0.843228
0.844131
0.845044
0.845963
0.846887
0.847815
0.848746
0.849678
0.850612
0.851544
0.852473
0.853401
0.854329
0.85526
0.856202
0.857163
0.858152
0.859182
0.860267
0.861422
0.86266
0.863975
0.865336
0.866699
0.86804
0.869352
0.870615
0.871796
0.872876
0.873863
0.874735
0.875426
0.875859
0.87584
0.875127
0.874035
0.874001
0.875875
0.878661
0.878209
0.87194
0.866206
0.86648
0.868329
0.866307
0.86113
0.854673
0.8477
0.839714
0.830375
0.820384
0.810743
0.802296
0.795515
0.790598
0.787535
0.786085
0.785846
0.786401
0.787442
0.788805
0.790465
0.792501
0.79501
0.79802
0.801464
0.805258
0.809427
0.813742
0.817533
0.819878
0.820664
0.82052
0.820227
0.820503
0.821908
0.823847
0.824821
0.824937
0.824711
0.82435
0.823998
0.823735
0.823549
0.823368
0.823174
0.8229
0.822473
0.822046
0.821489
0.820561
0.819813
0.819083
0.817787
0.817264
0.817753
0.817557
0.817972
0.820501
0.820831
0.818689
0.820186
0.825111
0.823842
0.818702
0.816846
0.870793
0.871047
0.871497
0.870999
0.87009
0.869469
0.869299
0.869379
0.869468
0.869483
0.869435
0.869325
0.869122
0.868797
0.868343
0.867771
0.867095
0.866331
0.86549
0.864582
0.863611
0.862585
0.86151
0.860396
0.859291
0.858295
0.857391
0.85647
0.855443
0.854245
0.852907
0.851489
0.850074
0.848813
0.84779
0.846955
0.846099
0.845283
0.844034
0.842149
0.84029
0.837442
0.835822
0.833862
0.831555
0.831549
0.829114
0.827982
0.826783
0.825536
0.824218
0.823624
0.823976
0.824631
0.825156
0.825703
0.82641
0.827286
0.828257
0.829238
0.830182
0.831071
0.831901
0.832696
0.833472
0.834251
0.835039
0.835842
0.836658
0.837484
0.838313
0.839145
0.839985
0.840849
0.841743
0.842645
0.843553
0.844475
0.845414
0.84637
0.847344
0.848329
0.84932
0.85031
0.851291
0.852259
0.853211
0.854154
0.855095
0.856048
0.857029
0.858052
0.859139
0.860313
0.861596
0.862986
0.864455
0.865946
0.867402
0.868788
0.870088
0.871334
0.872582
0.873845
0.87496
0.875827
0.876683
0.877544
0.877458
0.876249
0.875373
0.876411
0.87865
0.877684
0.871134
0.865548
0.865922
0.867898
0.866284
0.861243
0.854287
0.84662
0.838205
0.8288
0.818938
0.809549
0.801415
0.794909
0.790219
0.787334
0.786026
0.785905
0.786562
0.787679
0.789067
0.790667
0.792513
0.79466
0.797184
0.800251
0.80384
0.807873
0.812408
0.816809
0.819717
0.82076
0.820716
0.820702
0.821571
0.823611
0.825729
0.826879
0.827127
0.826976
0.826665
0.826324
0.826017
0.825745
0.825453
0.825121
0.824708
0.824153
0.823581
0.822907
0.821897
0.821001
0.820199
0.818947
0.818326
0.818874
0.819124
0.819661
0.822274
0.823256
0.821633
0.822886
0.82696
0.825958
0.820948
0.818841
0.873691
0.874126
0.873312
0.872405
0.872228
0.872328
0.872364
0.87246
0.872608
0.87265
0.872473
0.872058
0.871437
0.870651
0.869737
0.868713
0.867586
0.866355
0.865029
0.863637
0.862227
0.860862
0.859608
0.858557
0.857767
0.85718
0.856757
0.856452
0.856089
0.855417
0.854293
0.852771
0.850947
0.849037
0.847355
0.84612
0.845277
0.844717
0.843936
0.842975
0.841865
0.839904
0.838789
0.836403
0.835188
0.834183
0.834053
0.830027
0.827307
0.825205
0.824027
0.823947
0.824664
0.825596
0.826276
0.826699
0.826964
0.827233
0.827584
0.828059
0.828632
0.829283
0.829982
0.830724
0.831497
0.832298
0.833118
0.833952
0.834788
0.835621
0.836449
0.837276
0.838109
0.838957
0.839819
0.840688
0.841574
0.842496
0.843461
0.84447
0.845521
0.846606
0.847713
0.848825
0.849926
0.851
0.852039
0.853042
0.854017
0.854979
0.855951
0.856962
0.858047
0.85925
0.860607
0.862137
0.86382
0.865577
0.867292
0.868875
0.87028
0.871558
0.872788
0.87405
0.875197
0.876084
0.876632
0.877478
0.878041
0.877228
0.876145
0.876905
0.879007
0.878206
0.872058
0.866533
0.86636
0.867927
0.866489
0.861095
0.853479
0.845575
0.837177
0.827803
0.818042
0.808912
0.801104
0.794941
0.790544
0.787874
0.786712
0.786661
0.78729
0.788269
0.7894
0.790561
0.791707
0.792949
0.79458
0.796913
0.799851
0.803295
0.807983
0.8135
0.817689
0.819524
0.819841
0.8203
0.822002
0.824918
0.827524
0.828979
0.82933
0.829165
0.82885
0.828539
0.828277
0.82803
0.82771
0.827294
0.826792
0.826152
0.825449
0.824695
0.82371
0.822715
0.821843
0.820703
0.820032
0.820603
0.821344
0.822291
0.825026
0.826594
0.825729
0.827018
0.829933
0.828443
0.823835
0.820632
0.877278
0.876662
0.875046
0.874666
0.874677
0.874773
0.874781
0.874563
0.874142
0.873611
0.873011
0.872326
0.871524
0.870587
0.869509
0.868286
0.866919
0.865415
0.8638
0.862117
0.860424
0.858801
0.857363
0.856214
0.855476
0.855094
0.854832
0.854527
0.854183
0.853789
0.853122
0.852001
0.850488
0.848736
0.846882
0.845259
0.844141
0.843468
0.842971
0.842499
0.841376
0.840017
0.838572
0.836349
0.834697
0.833709
0.831652
0.828197
0.826112
0.82458
0.824039
0.824263
0.824802
0.825312
0.825574
0.825635
0.82562
0.825695
0.825942
0.826393
0.826998
0.827707
0.828458
0.829218
0.829963
0.830694
0.831409
0.832118
0.832832
0.833565
0.834328
0.835124
0.835929
0.836708
0.837479
0.838303
0.839202
0.840173
0.841213
0.842319
0.843484
0.844699
0.845946
0.8472
0.848435
0.849628
0.85076
0.851823
0.852821
0.853772
0.854713
0.855703
0.856798
0.858051
0.859503
0.861173
0.863056
0.865079
0.86709
0.868963
0.870611
0.87208
0.873424
0.874777
0.876112
0.877301
0.877797
0.877987
0.878678
0.878438
0.877321
0.877793
0.879736
0.879045
0.873337
0.867746
0.867071
0.868077
0.866319
0.86045
0.852617
0.844848
0.836526
0.827159
0.817653
0.808986
0.801583
0.795753
0.791543
0.788918
0.787684
0.787453
0.787793
0.788349
0.788838
0.789059
0.789088
0.789435
0.790628
0.792534
0.794596
0.797342
0.802348
0.809448
0.815357
0.818341
0.819138
0.819964
0.822214
0.825842
0.829318
0.831436
0.832119
0.832023
0.831653
0.831248
0.830896
0.830576
0.830192
0.829696
0.829109
0.828421
0.827657
0.826857
0.825888
0.8248
0.823795
0.822662
0.821916
0.822667
0.824159
0.825575
0.828558
0.831044
0.830893
0.831659
0.834123
0.832615
0.82828
0.823541
0.876142
0.875434
0.87517
0.875702
0.876019
0.875703
0.875153
0.874634
0.874135
0.873618
0.872958
0.871998
0.870651
0.868941
0.866975
0.864876
0.862738
0.860625
0.858599
0.856731
0.855073
0.853721
0.852738
0.852044
0.851723
0.851788
0.851929
0.85189
0.851699
0.851488
0.851092
0.850116
0.848509
0.846705
0.844987
0.843521
0.842515
0.841865
0.841327
0.840628
0.839538
0.838593
0.836757
0.835036
0.833428
0.832422
0.829215
0.826468
0.825035
0.823967
0.823606
0.823618
0.823693
0.823788
0.823841
0.823951
0.824186
0.824582
0.825107
0.82571
0.826324
0.826904
0.827419
0.827876
0.828296
0.828716
0.829171
0.829694
0.830305
0.831014
0.831814
0.832672
0.833516
0.834327
0.83519
0.836129
0.837128
0.83817
0.83925
0.840367
0.841523
0.842719
0.84395
0.845202
0.846458
0.847695
0.848898
0.850066
0.851208
0.852341
0.853483
0.854663
0.855908
0.857244
0.858714
0.86037
0.862273
0.864392
0.86655
0.868578
0.870349
0.871918
0.87332
0.874796
0.876535
0.878248
0.879549
0.879642
0.880019
0.880363
0.879298
0.8792
0.88074
0.879879
0.874445
0.868769
0.867536
0.868056
0.865875
0.859664
0.851898
0.844418
0.836173
0.826935
0.818003
0.809957
0.802824
0.797023
0.792734
0.789929
0.788464
0.787949
0.787857
0.787682
0.787068
0.786002
0.784996
0.784937
0.786379
0.788608
0.790389
0.792871
0.798377
0.806832
0.814154
0.818287
0.819587
0.820684
0.823278
0.827271
0.831332
0.833994
0.835058
0.83523
0.835043
0.83471
0.834318
0.833879
0.833335
0.832665
0.831921
0.831122
0.830258
0.829332
0.828252
0.827013
0.825814
0.824693
0.824157
0.825199
0.827448
0.829633
0.832894
0.835915
0.836742
0.837036
0.839041
0.837621
0.833504
0.827914
0.878092
0.877914
0.877834
0.877722
0.877195
0.8765
0.875961
0.875471
0.874816
0.873826
0.872294
0.870162
0.867585
0.864795
0.861981
0.859244
0.856608
0.85409
0.851761
0.849727
0.848116
0.84709
0.846723
0.846745
0.846846
0.84703
0.847234
0.847308
0.847301
0.847386
0.847355
0.846821
0.84576
0.84442
0.842997
0.841756
0.840878
0.84017
0.839495
0.838758
0.837872
0.836681
0.834664
0.833048
0.831877
0.830765
0.827496
0.825387
0.824158
0.823134
0.822664
0.822434
0.822358
0.822499
0.822776
0.823211
0.823719
0.824231
0.824672
0.825011
0.825249
0.825421
0.825567
0.825737
0.825974
0.826318
0.826796
0.827423
0.828196
0.829086
0.830035
0.830995
0.831988
0.833018
0.834036
0.835029
0.836004
0.836969
0.83794
0.838927
0.839938
0.840986
0.842091
0.843271
0.844517
0.845804
0.847107
0.84843
0.84979
0.851177
0.852539
0.853838
0.855073
0.856294
0.857625
0.859193
0.861145
0.863511
0.866058
0.868482
0.870517
0.872164
0.873596
0.87521
0.877511
0.87962
0.881322
0.881878
0.881827
0.882483
0.881929
0.881405
0.88257
0.881561
0.875775
0.869284
0.866862
0.866856
0.864614
0.858644
0.851376
0.844364
0.836279
0.827336
0.81906
0.81152
0.804484
0.798362
0.793779
0.790751
0.789079
0.788212
0.787398
0.786036
0.784039
0.781945
0.780598
0.780727
0.782724
0.785882
0.788245
0.790252
0.795513
0.804523
0.81328
0.818747
0.820472
0.821756
0.824949
0.829932
0.834704
0.837441
0.838329
0.838463
0.838409
0.838237
0.83797
0.837575
0.83697
0.836151
0.835221
0.834247
0.833203
0.832077
0.830859
0.829527
0.8282
0.827102
0.826828
0.828209
0.831154
0.834203
0.837753
0.840975
0.842699
0.842869
0.8442
0.843132
0.839413
0.833554
0.880919
0.880427
0.880087
0.879781
0.879258
0.878657
0.877958
0.877002
0.875743
0.874053
0.871838
0.869269
0.866563
0.863876
0.861274
0.858718
0.856142
0.853545
0.851026
0.84871
0.846706
0.845271
0.844585
0.844289
0.843898
0.843592
0.843591
0.84371
0.843899
0.844184
0.844182
0.843566
0.842501
0.841292
0.840095
0.839075
0.838291
0.837601
0.837
0.836397
0.835487
0.833983
0.832583
0.831354
0.830572
0.828838
0.826114
0.824443
0.823233
0.822169
0.821658
0.821386
0.821417
0.821715
0.822119
0.822567
0.822932
0.823192
0.823345
0.823442
0.823531
0.823663
0.823867
0.824159
0.824541
0.825018
0.82559
0.826259
0.827016
0.827836
0.82869
0.829573
0.830507
0.831465
0.83239
0.833274
0.834154
0.835065
0.836033
0.837075
0.838192
0.839385
0.840661
0.842025
0.843449
0.844885
0.846277
0.84759
0.848822
0.849966
0.851021
0.852041
0.853107
0.854297
0.855746
0.857578
0.859875
0.862657
0.86571
0.868614
0.871031
0.872908
0.874563
0.876437
0.879293
0.882152
0.883911
0.884783
0.884561
0.884993
0.88505
0.884301
0.885214
0.884748
0.879045
0.871426
0.866963
0.865824
0.863521
0.857997
0.85149
0.844984
0.837068
0.828436
0.820618
0.813334
0.806249
0.799772
0.794773
0.791524
0.789597
0.788139
0.786236
0.783458
0.780335
0.777964
0.777071
0.777776
0.780203
0.784119
0.786594
0.787186
0.791468
0.800905
0.811712
0.818721
0.821069
0.82267
0.826462
0.832554
0.838789
0.842014
0.842554
0.842267
0.842082
0.841896
0.841608
0.841184
0.840514
0.839588
0.838529
0.837426
0.836263
0.835034
0.833768
0.832391
0.830884
0.829685
0.829675
0.831577
0.835193
0.838979
0.842831
0.846151
0.848318
0.848636
0.84903
0.848278
0.845341
0.839835
0.884405
0.884176
0.883949
0.883467
0.882643
0.881735
0.880699
0.879532
0.878128
0.876252
0.874005
0.871664
0.86928
0.866906
0.864556
0.862115
0.859496
0.856734
0.853961
0.851328
0.848974
0.847102
0.845846
0.845118
0.844591
0.844036
0.843527
0.842977
0.842459
0.842096
0.84154
0.840537
0.83923
0.837866
0.836665
0.835777
0.835189
0.834778
0.834458
0.834037
0.833275
0.832211
0.831431
0.830495
0.829313
0.827054
0.824897
0.823372
0.822149
0.821129
0.820649
0.820391
0.820485
0.820765
0.821096
0.821423
0.821689
0.821935
0.822186
0.82247
0.822784
0.823115
0.823435
0.823718
0.82395
0.824142
0.824342
0.824614
0.825008
0.825545
0.826212
0.826944
0.827694
0.828516
0.829412
0.830353
0.831333
0.832375
0.83352
0.8348
0.836227
0.837792
0.839463
0.841192
0.842921
0.844576
0.846076
0.847346
0.848369
0.849232
0.850099
0.851137
0.852472
0.854152
0.856186
0.858649
0.861429
0.864391
0.867444
0.870304
0.872849
0.874973
0.876611
0.878336
0.880811
0.883915
0.886167
0.887342
0.887462
0.887763
0.888196
0.887478
0.888061
0.888414
0.883892
0.87637
0.87077
0.86807
0.864694
0.85897
0.852943
0.84663
0.838655
0.830166
0.822556
0.815326
0.808121
0.801373
0.795901
0.792325
0.789963
0.787675
0.784541
0.780525
0.776892
0.775023
0.775042
0.775873
0.777643
0.781733
0.784476
0.784105
0.787653
0.797869
0.81043
0.818364
0.821524
0.823753
0.827971
0.834832
0.842746
0.846756
0.847027
0.846454
0.846117
0.845892
0.845531
0.844967
0.844104
0.842985
0.841785
0.840607
0.839409
0.838154
0.836878
0.835395
0.833551
0.832258
0.832738
0.835328
0.839525
0.843918
0.848089
0.851622
0.853981
0.854593
0.85423
0.853195
0.85067
0.845762
0.888773
0.888387
0.887994
0.887323
0.886433
0.885672
0.884794
0.883665
0.882144
0.880093
0.877767
0.875395
0.873022
0.870685
0.868324
0.8658
0.86304
0.860102
0.857154
0.854358
0.851805
0.849637
0.848023
0.847023
0.846382
0.845764
0.845092
0.844288
0.843334
0.842278
0.841134
0.839947
0.838818
0.837853
0.837123
0.836641
0.836323
0.835983
0.835499
0.834722
0.833505
0.832213
0.830821
0.829349
0.827711
0.825534
0.823555
0.822069
0.820847
0.819941
0.819497
0.819271
0.819403
0.819684
0.820064
0.820506
0.820984
0.821497
0.822004
0.822461
0.82281
0.823004
0.823014
0.822846
0.822558
0.822263
0.822101
0.822176
0.822521
0.823122
0.823933
0.824835
0.825742
0.826729
0.827772
0.828799
0.829797
0.830804
0.831892
0.833129
0.834555
0.836175
0.837957
0.839842
0.84176
0.843626
0.845346
0.846856
0.848162
0.849396
0.850768
0.852398
0.854309
0.856496
0.858813
0.861228
0.8637
0.866195
0.868852
0.871878
0.875116
0.877703
0.878943
0.879992
0.881848
0.884593
0.88752
0.889379
0.889944
0.890313
0.891039
0.890649
0.890757
0.891546
0.888636
0.88229
0.876686
0.872631
0.867736
0.861589
0.855758
0.849321
0.841034
0.832477
0.824904
0.817622
0.810234
0.803203
0.797317
0.793207
0.7902
0.786991
0.78275
0.777905
0.774322
0.77336
0.774091
0.774308
0.774968
0.77917
0.783235
0.782852
0.78569
0.796705
0.810428
0.818781
0.822565
0.825725
0.830045
0.836982
0.84623
0.85173
0.851396
0.850486
0.850115
0.849829
0.849434
0.848833
0.847861
0.846589
0.845257
0.843998
0.842758
0.841482
0.840147
0.838389
0.8362
0.835016
0.836117
0.839395
0.844084
0.849018
0.853509
0.857188
0.859526
0.860288
0.859527
0.85797
0.85548
0.850983
0.893395
0.893037
0.892694
0.892013
0.891034
0.890051
0.888914
0.887519
0.885717
0.8835
0.881075
0.878557
0.876029
0.873567
0.871167
0.868733
0.866166
0.863458
0.860696
0.857966
0.855337
0.852965
0.851025
0.849557
0.848482
0.847702
0.847052
0.84641
0.845707
0.8449
0.844008
0.84309
0.842204
0.84143
0.840759
0.84003
0.839128
0.837933
0.836391
0.834501
0.832414
0.83036
0.828282
0.826621
0.825284
0.823586
0.821759
0.820443
0.819329
0.818601
0.81823
0.818121
0.818372
0.818787
0.819368
0.820048
0.820759
0.82141
0.8219
0.822176
0.822223
0.822057
0.821713
0.82127
0.82086
0.820623
0.820621
0.820851
0.82129
0.821922
0.822736
0.823761
0.824996
0.826203
0.827262
0.828169
0.828964
0.829734
0.830595
0.831646
0.832943
0.834488
0.836243
0.838153
0.840148
0.842145
0.844064
0.845891
0.847675
0.849414
0.851227
0.853174
0.855151
0.857108
0.858983
0.860749
0.862593
0.864868
0.867987
0.872246
0.876853
0.879914
0.880736
0.881251
0.883202
0.8861
0.889505
0.89203
0.892882
0.892867
0.893363
0.893318
0.892964
0.893564
0.892081
0.887482
0.882269
0.876923
0.870909
0.864824
0.859274
0.85271
0.844092
0.83536
0.827735
0.820349
0.812709
0.805346
0.799055
0.794261
0.790441
0.78639
0.781313
0.776082
0.772897
0.772774
0.773674
0.773152
0.772933
0.777588
0.783257
0.782774
0.784999
0.796839
0.811534
0.820524
0.82486
0.828892
0.833286
0.839706
0.849362
0.856517
0.855823
0.854213
0.854016
0.853754
0.853232
0.852587
0.851581
0.850225
0.848793
0.847474
0.846217
0.844913
0.843486
0.841409
0.838977
0.838003
0.83971
0.843674
0.84886
0.854189
0.858855
0.862514
0.864657
0.865236
0.864113
0.862004
0.85944
0.855346
0.898253
0.897882
0.897388
0.896535
0.895404
0.894273
0.892984
0.891372
0.889288
0.88671
0.883782
0.880683
0.877583
0.874631
0.871884
0.869286
0.866732
0.864159
0.861574
0.859052
0.856682
0.854518
0.852592
0.850942
0.849598
0.848546
0.847678
0.846808
0.845749
0.844482
0.843084
0.841645
0.840193
0.838752
0.837308
0.83581
0.83419
0.832354
0.830359
0.828333
0.826289
0.824406
0.823248
0.822867
0.822356
0.821088
0.819674
0.81865
0.817765
0.81725
0.817005
0.817068
0.817462
0.818032
0.818787
0.819606
0.820364
0.820911
0.821178
0.82121
0.821107
0.820958
0.820812
0.820694
0.820616
0.820568
0.820527
0.820495
0.820526
0.820734
0.821295
0.822263
0.823458
0.82461
0.825607
0.826442
0.827143
0.827804
0.828582
0.829624
0.831005
0.832726
0.834711
0.83687
0.839102
0.84132
0.843465
0.845523
0.847518
0.849396
0.85118
0.852958
0.854765
0.856597
0.858442
0.860329
0.862501
0.865345
0.869177
0.874099
0.879207
0.882471
0.883266
0.883732
0.885921
0.889027
0.89224
0.894956
0.896086
0.895803
0.895635
0.895576
0.894869
0.89484
0.894327
0.89117
0.886189
0.880139
0.873819
0.868145
0.863005
0.856502
0.847718
0.838813
0.831093
0.82358
0.815666
0.807938
0.801206
0.795705
0.790986
0.786201
0.78055
0.775269
0.772574
0.772791
0.773551
0.772492
0.771407
0.777001
0.783994
0.783468
0.785638
0.798298
0.813529
0.823125
0.82794
0.832478
0.837456
0.843706
0.853025
0.860597
0.860219
0.857583
0.857722
0.8578
0.85714
0.856345
0.855209
0.853712
0.85221
0.850898
0.849642
0.848325
0.846788
0.844442
0.841868
0.841193
0.843543
0.848152
0.853769
0.859338
0.864013
0.867468
0.869263
0.869377
0.867771
0.865117
0.862303
0.858599
0.903286
0.90291
0.902343
0.90146
0.900263
0.898926
0.897385
0.895496
0.893122
0.890254
0.886995
0.883458
0.879763
0.876044
0.872425
0.868995
0.865771
0.862738
0.859883
0.857215
0.854782
0.852658
0.850858
0.849352
0.848093
0.846959
0.845775
0.844387
0.842716
0.840746
0.838496
0.836075
0.833594
0.831164
0.828868
0.826775
0.82485
0.823098
0.821617
0.820474
0.819739
0.819639
0.820107
0.82049
0.820085
0.818993
0.817969
0.817148
0.816464
0.816086
0.815928
0.816099
0.816552
0.817198
0.818028
0.818879
0.819585
0.819994
0.820142
0.820205
0.820354
0.820617
0.820859
0.82089
0.820578
0.819913
0.819026
0.818148
0.817509
0.817284
0.817612
0.818445
0.8195
0.820708
0.822017
0.823295
0.82443
0.82542
0.826413
0.827624
0.829179
0.831102
0.833338
0.835803
0.838389
0.841042
0.843713
0.846301
0.848674
0.85084
0.852856
0.854832
0.856906
0.859127
0.861472
0.863951
0.866735
0.870019
0.873888
0.878239
0.882341
0.885037
0.886161
0.887301
0.889717
0.892646
0.895059
0.897119
0.898322
0.89845
0.898007
0.897744
0.897064
0.89647
0.896239
0.894026
0.889219
0.883016
0.876844
0.87159
0.866843
0.860586
0.851848
0.842814
0.834969
0.82734
0.819186
0.811107
0.80395
0.797845
0.792305
0.786731
0.780672
0.775411
0.77303
0.773189
0.773933
0.772446
0.770759
0.777207
0.785184
0.785176
0.787846
0.800985
0.816208
0.825995
0.831103
0.835762
0.841604
0.848605
0.857433
0.864059
0.863864
0.860675
0.861186
0.861899
0.861149
0.860114
0.858798
0.857161
0.855626
0.854338
0.853081
0.851759
0.85006
0.847483
0.844908
0.844665
0.84766
0.852811
0.858736
0.864387
0.868899
0.871925
0.873125
0.872527
0.870245
0.867048
0.863928
0.860601
0.908422
0.908081
0.90746
0.906474
0.905139
0.903651
0.901974
0.899982
0.897571
0.894716
0.891447
0.887839
0.883981
0.879988
0.875988
0.87211
0.86845
0.865047
0.861895
0.859004
0.856446
0.854319
0.85264
0.8513
0.850097
0.848833
0.847385
0.845702
0.84376
0.841564
0.839122
0.836432
0.833554
0.830646
0.827876
0.825377
0.823226
0.821547
0.820443
0.81992
0.819915
0.820235
0.820454
0.82014
0.819221
0.818102
0.817149
0.81632
0.815681
0.815296
0.815134
0.815296
0.815706
0.81633
0.817142
0.817966
0.818604
0.818935
0.819089
0.819303
0.819702
0.820115
0.820177
0.819611
0.818378
0.81668
0.814912
0.81349
0.81271
0.812642
0.813116
0.8139
0.814931
0.81634
0.818159
0.820177
0.822123
0.823821
0.825346
0.826918
0.828733
0.830852
0.833227
0.835755
0.838355
0.841075
0.843964
0.846953
0.849862
0.852585
0.855128
0.857603
0.860135
0.862755
0.865403
0.868054
0.870822
0.873845
0.877161
0.880732
0.884133
0.886536
0.887873
0.889664
0.892642
0.895683
0.897801
0.89932
0.900317
0.900682
0.900445
0.900043
0.89953
0.898801
0.898411
0.89678
0.892433
0.886423
0.880393
0.875309
0.870817
0.864932
0.856442
0.847336
0.839347
0.831647
0.82335
0.815004
0.807489
0.800873
0.794651
0.788338
0.78185
0.776392
0.774039
0.774066
0.77509
0.773409
0.771559
0.77844
0.786913
0.787653
0.791261
0.804651
0.819362
0.828873
0.834283
0.839108
0.845535
0.853362
0.861933
0.867445
0.866616
0.863437
0.864312
0.865949
0.865262
0.863839
0.862318
0.860614
0.8591
0.857836
0.856597
0.855262
0.853365
0.850559
0.848115
0.848417
0.852014
0.857592
0.863708
0.869262
0.873387
0.875743
0.876082
0.874527
0.871346
0.867523
0.864071
0.861164
0.913995
0.913646
0.912911
0.911853
0.910468
0.90886
0.907065
0.905019
0.902633
0.89988
0.896799
0.893438
0.889821
0.886022
0.882178
0.878446
0.874956
0.87176
0.868818
0.866079
0.863561
0.861314
0.859355
0.857624
0.85607
0.854646
0.853276
0.851924
0.850501
0.848826
0.846744
0.844226
0.841394
0.838426
0.835507
0.832787
0.830382
0.828392
0.826848
0.82567
0.824709
0.823755
0.822617
0.821255
0.819812
0.818497
0.817361
0.81639
0.815651
0.815139
0.814876
0.814909
0.815168
0.815628
0.816276
0.816985
0.817505
0.817729
0.817815
0.817996
0.81834
0.818498
0.818033
0.816761
0.814801
0.812529
0.810506
0.809217
0.808824
0.809211
0.810044
0.810986
0.812147
0.813682
0.815726
0.818282
0.820911
0.823195
0.825153
0.827053
0.829167
0.831614
0.834324
0.837124
0.839895
0.84259
0.845233
0.847858
0.85047
0.853023
0.855499
0.857973
0.86056
0.863286
0.866068
0.868853
0.871738
0.874871
0.878218
0.881711
0.885284
0.888257
0.890061
0.891822
0.894697
0.897826