/*--------------------------------*- C++ -*----------------------------------*\
  =========                 |
  \\      /  F ield         | OpenFOAM: The Open Source CFD Toolbox
   \\    /   O peration     | Website:  https://openfoam.org
    \\  /    A nd           | Version:  10
     \\/     M anipulation  |
\*---------------------------------------------------------------------------*/
FoamFile
{
    format      ascii;
    class       volVectorField;
    location    "7000";
    object      Ua;
}
// * * * * * * * * * * * * * * * * * * * * * * * * * * * * * * * * * * * * * //

dimensions      [0 1 -1 0 0 0 0];

internalField   nonuniform List<vector> 
6400
(
(-2.17161e-07 4.4142e-08 0)
(-6.52172e-07 4.42824e-08 0)
(-1.08926e-06 4.45643e-08 0)
(-1.52983e-06 4.49904e-08 0)
(-1.97533e-06 4.55645e-08 0)
(-2.42722e-06 4.62916e-08 0)
(-2.88706e-06 4.71783e-08 0)
(-3.35644e-06 4.82322e-08 0)
(-3.83705e-06 4.94625e-08 0)
(-4.33069e-06 5.08793e-08 0)
(-4.83925e-06 5.24941e-08 0)
(-5.36473e-06 5.43191e-08 0)
(-5.90926e-06 5.63669e-08 0)
(-6.47509e-06 5.86495e-08 0)
(-7.06459e-06 6.11775e-08 0)
(-7.6802e-06 6.39577e-08 0)
(-8.32441e-06 6.69901e-08 0)
(-8.99964e-06 7.02629e-08 0)
(-9.7081e-06 7.37451e-08 0)
(-1.04515e-05 7.73744e-08 0)
(-1.12309e-05 8.10388e-08 0)
(-1.20455e-05 8.45482e-08 0)
(-1.28923e-05 8.75906e-08 0)
(-1.37644e-05 8.96644e-08 0)
(-1.46481e-05 8.99773e-08 0)
(-1.55202e-05 8.72962e-08 0)
(-1.6342e-05 7.97378e-08 0)
(-1.70516e-05 6.44993e-08 0)
(-1.75538e-05 3.75836e-08 0)
(-1.77076e-05 -6.30632e-09 0)
(-1.73162e-05 -7.32536e-08 0)
(-1.61288e-05 -1.68113e-07 0)
(-1.47421e-05 -2.55975e-07 0)
(-1.34976e-05 -3.13217e-07 0)
(-1.20002e-05 -3.71618e-07 0)
(-1.02509e-05 -4.28433e-07 0)
(-8.26392e-06 -4.80312e-07 0)
(-6.06888e-06 -5.23603e-07 0)
(-3.71092e-06 -5.5482e-07 0)
(-1.24891e-06 -5.71196e-07 0)
(1.24891e-06 -5.71196e-07 0)
(3.71092e-06 -5.5482e-07 0)
(6.06888e-06 -5.23603e-07 0)
(8.26392e-06 -4.80312e-07 0)
(1.02509e-05 -4.28433e-07 0)
(1.20002e-05 -3.71618e-07 0)
(1.34976e-05 -3.13217e-07 0)
(1.47421e-05 -2.55975e-07 0)
(1.61288e-05 -1.68113e-07 0)
(1.73162e-05 -7.32536e-08 0)
(1.77076e-05 -6.30632e-09 0)
(1.75538e-05 3.75836e-08 0)
(1.70516e-05 6.44993e-08 0)
(1.6342e-05 7.97378e-08 0)
(1.55202e-05 8.72962e-08 0)
(1.46481e-05 8.99773e-08 0)
(1.37644e-05 8.96644e-08 0)
(1.28923e-05 8.75906e-08 0)
(1.20455e-05 8.45482e-08 0)
(1.12309e-05 8.10388e-08 0)
(1.04515e-05 7.73744e-08 0)
(9.7081e-06 7.37451e-08 0)
(8.99964e-06 7.02629e-08 0)
(8.32441e-06 6.69901e-08 0)
(7.6802e-06 6.39577e-08 0)
(7.06459e-06 6.11775e-08 0)
(6.47509e-06 5.86495e-08 0)
(5.90926e-06 5.63669e-08 0)
(5.36473e-06 5.43191e-08 0)
(4.83925e-06 5.24941e-08 0)
(4.33069e-06 5.08793e-08 0)
(3.83705e-06 4.94625e-08 0)
(3.35644e-06 4.82322e-08 0)
(2.88706e-06 4.71783e-08 0)
(2.42722e-06 4.62916e-08 0)
(1.97533e-06 4.55645e-08 0)
(1.52983e-06 4.49904e-08 0)
(1.08926e-06 4.45643e-08 0)
(6.52172e-07 4.42824e-08 0)
(2.17161e-07 4.4142e-08 0)
(-2.17131e-07 1.36693e-07 0)
(-6.52082e-07 1.37128e-07 0)
(-1.08911e-06 1.38001e-07 0)
(-1.52962e-06 1.3932e-07 0)
(-1.97505e-06 1.41098e-07 0)
(-2.42688e-06 1.4335e-07 0)
(-2.88664e-06 1.46095e-07 0)
(-3.35595e-06 1.49358e-07 0)
(-3.83649e-06 1.53168e-07 0)
(-4.33005e-06 1.57555e-07 0)
(-4.83852e-06 1.62555e-07 0)
(-5.3639e-06 1.68206e-07 0)
(-5.90833e-06 1.74547e-07 0)
(-6.47406e-06 1.81616e-07 0)
(-7.06346e-06 1.89444e-07 0)
(-7.67896e-06 1.98054e-07 0)
(-8.32307e-06 2.07445e-07 0)
(-8.9982e-06 2.17582e-07 0)
(-9.70658e-06 2.28369e-07 0)
(-1.045e-05 2.39613e-07 0)
(-1.12293e-05 2.5097e-07 0)
(-1.20441e-05 2.61853e-07 0)
(-1.28913e-05 2.71299e-07 0)
(-1.37639e-05 2.77759e-07 0)
(-1.46486e-05 2.78786e-07 0)
(-1.55224e-05 2.70573e-07 0)
(-1.63468e-05 2.47299e-07 0)
(-1.70606e-05 2.00298e-07 0)
(-1.75689e-05 1.17196e-07 0)
(-1.77313e-05 -1.8434e-08 0)
(-1.73507e-05 -2.25527e-07 0)
(-1.6175e-05 -5.19343e-07 0)
(-1.47955e-05 -7.91945e-07 0)
(-1.3553e-05 -9.69701e-07 0)
(-1.20554e-05 -1.15122e-06 0)
(-1.0303e-05 -1.32797e-06 0)
(-8.30956e-06 -1.48951e-06 0)
(-6.10461e-06 -1.62441e-06 0)
(-3.73375e-06 -1.72175e-06 0)
(-1.25676e-06 -1.77283e-06 0)
(1.25676e-06 -1.77283e-06 0)
(3.73375e-06 -1.72175e-06 0)
(6.10461e-06 -1.62441e-06 0)
(8.30956e-06 -1.48951e-06 0)
(1.0303e-05 -1.32797e-06 0)
(1.20554e-05 -1.15122e-06 0)
(1.3553e-05 -9.69701e-07 0)
(1.47955e-05 -7.91945e-07 0)
(1.6175e-05 -5.19343e-07 0)
(1.73507e-05 -2.25527e-07 0)
(1.77313e-05 -1.8434e-08 0)
(1.75689e-05 1.17196e-07 0)
(1.70606e-05 2.00298e-07 0)
(1.63468e-05 2.47299e-07 0)
(1.55224e-05 2.70573e-07 0)
(1.46486e-05 2.78786e-07 0)
(1.37639e-05 2.77759e-07 0)
(1.28913e-05 2.71299e-07 0)
(1.20441e-05 2.61853e-07 0)
(1.12293e-05 2.5097e-07 0)
(1.045e-05 2.39613e-07 0)
(9.70658e-06 2.28369e-07 0)
(8.9982e-06 2.17582e-07 0)
(8.32307e-06 2.07445e-07 0)
(7.67896e-06 1.98054e-07 0)
(7.06346e-06 1.89444e-07 0)
(6.47406e-06 1.81616e-07 0)
(5.90833e-06 1.74547e-07 0)
(5.3639e-06 1.68206e-07 0)
(4.83852e-06 1.62555e-07 0)
(4.33005e-06 1.57555e-07 0)
(3.83649e-06 1.53168e-07 0)
(3.35595e-06 1.49358e-07 0)
(2.88664e-06 1.46095e-07 0)
(2.42688e-06 1.4335e-07 0)
(1.97505e-06 1.41098e-07 0)
(1.52962e-06 1.3932e-07 0)
(1.08911e-06 1.38001e-07 0)
(6.52082e-07 1.37128e-07 0)
(2.17131e-07 1.36693e-07 0)
(-2.17062e-07 2.38183e-07 0)
(-6.51875e-07 2.3894e-07 0)
(-1.08876e-06 2.40461e-07 0)
(-1.52913e-06 2.42759e-07 0)
(-1.97441e-06 2.45856e-07 0)
(-2.42609e-06 2.49778e-07 0)
(-2.88569e-06 2.54561e-07 0)
(-3.35483e-06 2.60247e-07 0)
(-3.83519e-06 2.66883e-07 0)
(-4.32856e-06 2.74526e-07 0)
(-4.83683e-06 2.83238e-07 0)
(-5.362e-06 2.93083e-07 0)
(-5.90621e-06 3.04131e-07 0)
(-6.47171e-06 3.16447e-07 0)
(-7.06086e-06 3.30088e-07 0)
(-7.67611e-06 3.45092e-07 0)
(-8.31998e-06 3.61459e-07 0)
(-8.99489e-06 3.7913e-07 0)
(-9.7031e-06 3.97939e-07 0)
(-1.04464e-05 4.17555e-07 0)
(-1.12258e-05 4.37381e-07 0)
(-1.20409e-05 4.56404e-07 0)
(-1.28887e-05 4.72956e-07 0)
(-1.37627e-05 4.84359e-07 0)
(-1.46498e-05 4.86376e-07 0)
(-1.55274e-05 4.72409e-07 0)
(-1.63579e-05 4.32366e-07 0)
(-1.70811e-05 3.51196e-07 0)
(-1.76034e-05 2.07356e-07 0)
(-1.77855e-05 -2.78737e-08 0)
(-1.743e-05 -3.87857e-07 0)
(-1.62813e-05 -9.00059e-07 0)
(-1.49186e-05 -1.37707e-06 0)
(-1.36811e-05 -1.68872e-06 0)
(-1.21833e-05 -2.00761e-06 0)
(-1.04237e-05 -2.31876e-06 0)
(-8.41541e-06 -2.60371e-06 0)
(-6.18756e-06 -2.84209e-06 0)
(-3.78677e-06 -3.01433e-06 0)
(-1.27502e-06 -3.1048e-06 0)
(1.27502e-06 -3.1048e-06 0)
(3.78677e-06 -3.01433e-06 0)
(6.18756e-06 -2.84209e-06 0)
(8.41541e-06 -2.60371e-06 0)
(1.04237e-05 -2.31876e-06 0)
(1.21833e-05 -2.00761e-06 0)
(1.36811e-05 -1.68872e-06 0)
(1.49186e-05 -1.37707e-06 0)
(1.62813e-05 -9.00059e-07 0)
(1.743e-05 -3.87857e-07 0)
(1.77855e-05 -2.78737e-08 0)
(1.76034e-05 2.07356e-07 0)
(1.70811e-05 3.51196e-07 0)
(1.63579e-05 4.32366e-07 0)
(1.55274e-05 4.72409e-07 0)
(1.46498e-05 4.86376e-07 0)
(1.37627e-05 4.84359e-07 0)
(1.28887e-05 4.72956e-07 0)
(1.20409e-05 4.56404e-07 0)
(1.12258e-05 4.37381e-07 0)
(1.04464e-05 4.17555e-07 0)
(9.7031e-06 3.97939e-07 0)
(8.99489e-06 3.7913e-07 0)
(8.31998e-06 3.61459e-07 0)
(7.67611e-06 3.45092e-07 0)
(7.06086e-06 3.30088e-07 0)
(6.47171e-06 3.16447e-07 0)
(5.90621e-06 3.04131e-07 0)
(5.362e-06 2.93083e-07 0)
(4.83683e-06 2.83238e-07 0)
(4.32856e-06 2.74526e-07 0)
(3.83519e-06 2.66883e-07 0)
(3.35483e-06 2.60247e-07 0)
(2.88569e-06 2.54561e-07 0)
(2.42609e-06 2.49778e-07 0)
(1.97441e-06 2.45856e-07 0)
(1.52913e-06 2.42759e-07 0)
(1.08876e-06 2.40461e-07 0)
(6.51875e-07 2.3894e-07 0)
(2.17062e-07 2.38183e-07 0)
(-2.16943e-07 3.4945e-07 0)
(-6.51518e-07 3.5056e-07 0)
(-1.08816e-06 3.52791e-07 0)
(-1.52829e-06 3.56162e-07 0)
(-1.97331e-06 3.60704e-07 0)
(-2.42472e-06 3.66457e-07 0)
(-2.88405e-06 3.73472e-07 0)
(-3.3529e-06 3.8181e-07 0)
(-3.83295e-06 3.91544e-07 0)
(-4.326e-06 4.02755e-07 0)
(-4.83392e-06 4.15532e-07 0)
(-5.35873e-06 4.29974e-07 0)
(-5.90255e-06 4.4618e-07 0)
(-6.46764e-06 4.64248e-07 0)
(-7.05637e-06 4.84262e-07 0)
(-7.6712e-06 5.06279e-07 0)
(-8.31464e-06 5.30303e-07 0)
(-8.98917e-06 5.56247e-07 0)
(-9.69707e-06 5.83876e-07 0)
(-1.04402e-05 6.12712e-07 0)
(-1.12197e-05 6.41893e-07 0)
(-1.20353e-05 6.6995e-07 0)
(-1.28843e-05 6.94469e-07 0)
(-1.37605e-05 7.11565e-07 0)
(-1.46516e-05 7.15092e-07 0)
(-1.55358e-05 6.95463e-07 0)
(-1.63768e-05 6.37994e-07 0)
(-1.71163e-05 5.20731e-07 0)
(-1.76627e-05 3.12118e-07 0)
(-1.78786e-05 -3.02105e-08 0)
(-1.75667e-05 -5.5612e-07 0)
(-1.64653e-05 -1.3081e-06 0)
(-1.51326e-05 -2.01295e-06 0)
(-1.39043e-05 -2.47498e-06 0)
(-1.24065e-05 -2.94942e-06 0)
(-1.06352e-05 -3.41401e-06 0)
(-8.60119e-06 -3.84094e-06 0)
(-6.33344e-06 -4.1992e-06 0)
(-3.88015e-06 -4.45868e-06 0)
(-1.30718e-06 -4.59519e-06 0)
(1.30718e-06 -4.59519e-06 0)
(3.88015e-06 -4.45868e-06 0)
(6.33344e-06 -4.1992e-06 0)
(8.60119e-06 -3.84094e-06 0)
(1.06352e-05 -3.41401e-06 0)
(1.24065e-05 -2.94942e-06 0)
(1.39043e-05 -2.47498e-06 0)
(1.51326e-05 -2.01295e-06 0)
(1.64653e-05 -1.3081e-06 0)
(1.75667e-05 -5.5612e-07 0)
(1.78786e-05 -3.02105e-08 0)
(1.76627e-05 3.12118e-07 0)
(1.71163e-05 5.20731e-07 0)
(1.63768e-05 6.37994e-07 0)
(1.55358e-05 6.95463e-07 0)
(1.46516e-05 7.15092e-07 0)
(1.37605e-05 7.11565e-07 0)
(1.28843e-05 6.94469e-07 0)
(1.20353e-05 6.6995e-07 0)
(1.12197e-05 6.41893e-07 0)
(1.04402e-05 6.12712e-07 0)
(9.69707e-06 5.83876e-07 0)
(8.98917e-06 5.56247e-07 0)
(8.31464e-06 5.30303e-07 0)
(7.6712e-06 5.06279e-07 0)
(7.05637e-06 4.84262e-07 0)
(6.46764e-06 4.64248e-07 0)
(5.90255e-06 4.4618e-07 0)
(5.35873e-06 4.29974e-07 0)
(4.83392e-06 4.15532e-07 0)
(4.326e-06 4.02755e-07 0)
(3.83295e-06 3.91544e-07 0)
(3.3529e-06 3.8181e-07 0)
(2.88405e-06 3.73472e-07 0)
(2.42472e-06 3.66457e-07 0)
(1.97331e-06 3.60704e-07 0)
(1.52829e-06 3.56162e-07 0)
(1.08816e-06 3.52791e-07 0)
(6.51518e-07 3.5056e-07 0)
(2.16943e-07 3.4945e-07 0)
(-2.16761e-07 4.71405e-07 0)
(-6.5097e-07 4.72902e-07 0)
(-1.08725e-06 4.7591e-07 0)
(-1.52699e-06 4.80455e-07 0)
(-1.97162e-06 4.86579e-07 0)
(-2.42263e-06 4.94336e-07 0)
(-2.88153e-06 5.03794e-07 0)
(-3.34993e-06 5.15037e-07 0)
(-3.82952e-06 5.28162e-07 0)
(-4.32206e-06 5.43278e-07 0)
(-4.82946e-06 5.60508e-07 0)
(-5.3537e-06 5.79984e-07 0)
(-5.89693e-06 6.0184e-07 0)
(-6.46139e-06 6.2621e-07 0)
(-7.04947e-06 6.5321e-07 0)
(-7.66364e-06 6.82918e-07 0)
(-8.30644e-06 7.15346e-07 0)
(-8.98038e-06 7.50384e-07 0)
(-9.6878e-06 7.87724e-07 0)
(-1.04307e-05 8.26739e-07 0)
(-1.12103e-05 8.66292e-07 0)
(-1.20266e-05 9.04444e-07 0)
(-1.28775e-05 9.38e-07 0)
(-1.37571e-05 9.61814e-07 0)
(-1.46541e-05 9.67733e-07 0)
(-1.55483e-05 9.43023e-07 0)
(-1.64052e-05 8.68129e-07 0)
(-1.71693e-05 7.13704e-07 0)
(-1.77526e-05 4.37304e-07 0)
(-1.80206e-05 -1.86527e-08 0)
(-1.77761e-05 -7.23277e-07 0)
(-1.67493e-05 -1.7384e-06 0)
(-1.54647e-05 -2.69936e-06 0)
(-1.4252e-05 -3.33251e-06 0)
(-1.27558e-05 -3.98622e-06 0)
(-1.09673e-05 -4.62996e-06 0)
(-8.89421e-06 -5.2247e-06 0)
(-6.56428e-06 -5.7262e-06 0)
(-4.02828e-06 -6.09082e-06 0)
(-1.35827e-06 -6.28311e-06 0)
(1.35827e-06 -6.28311e-06 0)
(4.02828e-06 -6.09082e-06 0)
(6.56428e-06 -5.7262e-06 0)
(8.89421e-06 -5.2247e-06 0)
(1.09673e-05 -4.62996e-06 0)
(1.27558e-05 -3.98622e-06 0)
(1.4252e-05 -3.33251e-06 0)
(1.54647e-05 -2.69936e-06 0)
(1.67493e-05 -1.7384e-06 0)
(1.77761e-05 -7.23277e-07 0)
(1.80206e-05 -1.86527e-08 0)
(1.77526e-05 4.37304e-07 0)
(1.71693e-05 7.13704e-07 0)
(1.64052e-05 8.68129e-07 0)
(1.55483e-05 9.43023e-07 0)
(1.46541e-05 9.67733e-07 0)
(1.37571e-05 9.61814e-07 0)
(1.28775e-05 9.38e-07 0)
(1.20266e-05 9.04444e-07 0)
(1.12103e-05 8.66292e-07 0)
(1.04307e-05 8.26739e-07 0)
(9.6878e-06 7.87724e-07 0)
(8.98038e-06 7.50384e-07 0)
(8.30644e-06 7.15346e-07 0)
(7.66364e-06 6.82918e-07 0)
(7.04947e-06 6.5321e-07 0)
(6.46139e-06 6.2621e-07 0)
(5.89693e-06 6.0184e-07 0)
(5.3537e-06 5.79984e-07 0)
(4.82946e-06 5.60508e-07 0)
(4.32206e-06 5.43278e-07 0)
(3.82952e-06 5.28162e-07 0)
(3.34993e-06 5.15037e-07 0)
(2.88153e-06 5.03794e-07 0)
(2.42263e-06 4.94336e-07 0)
(1.97162e-06 4.86579e-07 0)
(1.52699e-06 4.80455e-07 0)
(1.08725e-06 4.7591e-07 0)
(6.5097e-07 4.72902e-07 0)
(2.16761e-07 4.71405e-07 0)
(-2.16499e-07 6.05031e-07 0)
(-6.50182e-07 6.06951e-07 0)
(-1.08592e-06 6.10808e-07 0)
(-1.52512e-06 6.16638e-07 0)
(-1.96919e-06 6.24491e-07 0)
(-2.41962e-06 6.34439e-07 0)
(-2.87791e-06 6.4657e-07 0)
(-3.34567e-06 6.6099e-07 0)
(-3.82458e-06 6.77824e-07 0)
(-4.3164e-06 6.97213e-07 0)
(-4.82303e-06 7.19315e-07 0)
(-5.34647e-06 7.44299e-07 0)
(-5.88883e-06 7.7234e-07 0)
(-6.4524e-06 8.03612e-07 0)
(-7.03954e-06 8.38266e-07 0)
(-7.65276e-06 8.7641e-07 0)
(-8.29463e-06 9.18065e-07 0)
(-8.9677e-06 9.63105e-07 0)
(-9.67442e-06 1.01115e-06 0)
(-1.04169e-05 1.06144e-06 0)
(-1.11967e-05 1.11255e-06 0)
(-1.2014e-05 1.16207e-06 0)
(-1.28673e-05 1.20601e-06 0)
(-1.37517e-05 1.23794e-06 0)
(-1.46571e-05 1.24766e-06 0)
(-1.55653e-05 1.21918e-06 0)
(-1.64448e-05 1.12788e-06 0)
(-1.7244e-05 9.36609e-07 0)
(-1.78799e-05 5.91174e-07 0)
(-1.82228e-05 1.69705e-08 0)
(-1.80768e-05 -8.77947e-07 0)
(-1.71613e-05 -2.1812e-06 0)
(-1.59503e-05 -3.43263e-06 0)
(-1.47637e-05 -4.26335e-06 0)
(-1.32731e-05 -5.12799e-06 0)
(-1.14625e-05 -5.98648e-06 0)
(-9.33356e-06 -6.78601e-06 0)
(-6.91214e-06 -7.46507e-06 0)
(-4.25229e-06 -7.96164e-06 0)
(-1.43568e-06 -8.22449e-06 0)
(1.43568e-06 -8.22449e-06 0)
(4.25229e-06 -7.96164e-06 0)
(6.91214e-06 -7.46507e-06 0)
(9.33356e-06 -6.78601e-06 0)
(1.14625e-05 -5.98648e-06 0)
(1.32731e-05 -5.12799e-06 0)
(1.47637e-05 -4.26335e-06 0)
(1.59503e-05 -3.43263e-06 0)
(1.71613e-05 -2.1812e-06 0)
(1.80768e-05 -8.77947e-07 0)
(1.82228e-05 1.69705e-08 0)
(1.78799e-05 5.91174e-07 0)
(1.7244e-05 9.36609e-07 0)
(1.64448e-05 1.12788e-06 0)
(1.55653e-05 1.21918e-06 0)
(1.46571e-05 1.24766e-06 0)
(1.37517e-05 1.23794e-06 0)
(1.28673e-05 1.20601e-06 0)
(1.2014e-05 1.16207e-06 0)
(1.11967e-05 1.11255e-06 0)
(1.04169e-05 1.06144e-06 0)
(9.67442e-06 1.01115e-06 0)
(8.9677e-06 9.63105e-07 0)
(8.29463e-06 9.18065e-07 0)
(7.65276e-06 8.7641e-07 0)
(7.03954e-06 8.38266e-07 0)
(6.4524e-06 8.03612e-07 0)
(5.88883e-06 7.7234e-07 0)
(5.34647e-06 7.44299e-07 0)
(4.82303e-06 7.19315e-07 0)
(4.3164e-06 6.97213e-07 0)
(3.82458e-06 6.77824e-07 0)
(3.34567e-06 6.6099e-07 0)
(2.87791e-06 6.4657e-07 0)
(2.41962e-06 6.34439e-07 0)
(1.96919e-06 6.24491e-07 0)
(1.52512e-06 6.16638e-07 0)
(1.08592e-06 6.10808e-07 0)
(6.50182e-07 6.06951e-07 0)
(2.16499e-07 6.05031e-07 0)
(-2.16137e-07 7.51382e-07 0)
(-6.49092e-07 7.53764e-07 0)
(-1.0841e-06 7.58549e-07 0)
(-1.52254e-06 7.65781e-07 0)
(-1.96584e-06 7.75525e-07 0)
(-2.41545e-06 7.87867e-07 0)
(-2.8729e-06 8.02917e-07 0)
(-3.33977e-06 8.20808e-07 0)
(-3.81774e-06 8.41694e-07 0)
(-4.30858e-06 8.65752e-07 0)
(-4.81415e-06 8.93178e-07 0)
(-5.33646e-06 9.24184e-07 0)
(-5.87765e-06 9.58991e-07 0)
(-6.43996e-06 9.97816e-07 0)
(-7.02581e-06 1.04085e-06 0)
(-7.6377e-06 1.08825e-06 0)
(-8.27826e-06 1.14004e-06 0)
(-8.95011e-06 1.19609e-06 0)
(-9.65583e-06 1.25597e-06 0)
(-1.03977e-05 1.31877e-06 0)
(-1.11776e-05 1.38282e-06 0)
(-1.19962e-05 1.44525e-06 0)
(-1.28528e-05 1.5013e-06 0)
(-1.37435e-05 1.54326e-06 0)
(-1.46602e-05 1.55891e-06 0)
(-1.55871e-05 1.52902e-06 0)
(-1.6497e-05 1.42384e-06 0)
(-1.73437e-05 1.19816e-06 0)
(-1.80514e-05 7.85277e-07 0)
(-1.8498e-05 9.15828e-08 0)
(-1.84906e-05 -1.0023e-06 0)
(-1.77365e-05 -2.61914e-06 0)
(-1.66361e-05 -4.2027e-06 0)
(-1.54929e-05 -5.26509e-06 0)
(-1.40172e-05 -6.38356e-06 0)
(-1.21814e-05 -7.5073e-06 0)
(-9.9771e-06 -8.56608e-06 0)
(-7.42544e-06 -9.47486e-06 0)
(-4.58462e-06 -1.01451e-05 0)
(-1.55084e-06 -1.05017e-05 0)
(1.55084e-06 -1.05017e-05 0)
(4.58462e-06 -1.01451e-05 0)
(7.42544e-06 -9.47486e-06 0)
(9.9771e-06 -8.56608e-06 0)
(1.21814e-05 -7.5073e-06 0)
(1.40172e-05 -6.38356e-06 0)
(1.54929e-05 -5.26509e-06 0)
(1.66361e-05 -4.2027e-06 0)
(1.77365e-05 -2.61914e-06 0)
(1.84906e-05 -1.0023e-06 0)
(1.8498e-05 9.15828e-08 0)
(1.80514e-05 7.85277e-07 0)
(1.73437e-05 1.19816e-06 0)
(1.6497e-05 1.42384e-06 0)
(1.55871e-05 1.52902e-06 0)
(1.46602e-05 1.55891e-06 0)
(1.37435e-05 1.54326e-06 0)
(1.28528e-05 1.5013e-06 0)
(1.19962e-05 1.44525e-06 0)
(1.11776e-05 1.38282e-06 0)
(1.03977e-05 1.31877e-06 0)
(9.65583e-06 1.25597e-06 0)
(8.95011e-06 1.19609e-06 0)
(8.27826e-06 1.14004e-06 0)
(7.6377e-06 1.08825e-06 0)
(7.02581e-06 1.04085e-06 0)
(6.43996e-06 9.97816e-07 0)
(5.87765e-06 9.58991e-07 0)
(5.33646e-06 9.24184e-07 0)
(4.81415e-06 8.93178e-07 0)
(4.30858e-06 8.65752e-07 0)
(3.81774e-06 8.41694e-07 0)
(3.33977e-06 8.20808e-07 0)
(2.8729e-06 8.02917e-07 0)
(2.41545e-06 7.87867e-07 0)
(1.96584e-06 7.75525e-07 0)
(1.52254e-06 7.65781e-07 0)
(1.0841e-06 7.58549e-07 0)
(6.49092e-07 7.53764e-07 0)
(2.16137e-07 7.51382e-07 0)
(-2.1565e-07 9.11587e-07 0)
(-6.47628e-07 9.14472e-07 0)
(-1.08164e-06 9.2027e-07 0)
(-1.51907e-06 9.29032e-07 0)
(-1.96132e-06 9.40836e-07 0)
(-2.40985e-06 9.55789e-07 0)
(-2.86617e-06 9.74024e-07 0)
(-3.33185e-06 9.95701e-07 0)
(-3.80856e-06 1.02101e-06 0)
(-4.29806e-06 1.05016e-06 0)
(-4.80221e-06 1.0834e-06 0)
(-5.32302e-06 1.12098e-06 0)
(-5.8626e-06 1.16318e-06 0)
(-6.42323e-06 1.21026e-06 0)
(-7.00732e-06 1.26248e-06 0)
(-7.61742e-06 1.32001e-06 0)
(-8.2562e-06 1.38294e-06 0)
(-8.92638e-06 1.45112e-06 0)
(-9.6307e-06 1.5241e-06 0)
(-1.03717e-05 1.60085e-06 0)
(-1.11516e-05 1.67948e-06 0)
(-1.19718e-05 1.7567e-06 0)
(-1.28323e-05 1.82704e-06 0)
(-1.37311e-05 1.88164e-06 0)
(-1.46621e-05 1.90635e-06 0)
(-1.56133e-05 1.87887e-06 0)
(-1.65625e-05 1.76448e-06 0)
(-1.74713e-05 1.50993e-06 0)
(-1.82739e-05 1.03553e-06 0)
(-1.88595e-05 2.26701e-07 0)
(-1.90425e-05 -1.06897e-06 0)
(-1.85191e-05 -3.02255e-06 0)
(-1.75843e-05 -4.98765e-06 0)
(-1.65138e-05 -6.32551e-06 0)
(-1.50729e-05 -7.75669e-06 0)
(-1.32149e-05 -9.21883e-06 0)
(-1.09139e-05 -1.06196e-05 0)
(-8.18067e-06 -1.18405e-05 0)
(-5.07741e-06 -1.2752e-05 0)
(-1.7223e-06 -1.32409e-05 0)
(1.7223e-06 -1.32409e-05 0)
(5.07741e-06 -1.2752e-05 0)
(8.18067e-06 -1.18405e-05 0)
(1.09139e-05 -1.06196e-05 0)
(1.32149e-05 -9.21883e-06 0)
(1.50729e-05 -7.75669e-06 0)
(1.65138e-05 -6.32551e-06 0)
(1.75843e-05 -4.98765e-06 0)
(1.85191e-05 -3.02255e-06 0)
(1.90425e-05 -1.06897e-06 0)
(1.88595e-05 2.26701e-07 0)
(1.82739e-05 1.03553e-06 0)
(1.74713e-05 1.50993e-06 0)
(1.65625e-05 1.76448e-06 0)
(1.56133e-05 1.87887e-06 0)
(1.46621e-05 1.90635e-06 0)
(1.37311e-05 1.88164e-06 0)
(1.28323e-05 1.82704e-06 0)
(1.19718e-05 1.7567e-06 0)
(1.11516e-05 1.67948e-06 0)
(1.03717e-05 1.60085e-06 0)
(9.6307e-06 1.5241e-06 0)
(8.92638e-06 1.45112e-06 0)
(8.2562e-06 1.38294e-06 0)
(7.61742e-06 1.32001e-06 0)
(7.00732e-06 1.26248e-06 0)
(6.42323e-06 1.21026e-06 0)
(5.8626e-06 1.16318e-06 0)
(5.32302e-06 1.12098e-06 0)
(4.80221e-06 1.0834e-06 0)
(4.29806e-06 1.05016e-06 0)
(3.80856e-06 1.02101e-06 0)
(3.33185e-06 9.95701e-07 0)
(2.86617e-06 9.74024e-07 0)
(2.40985e-06 9.55789e-07 0)
(1.96132e-06 9.40836e-07 0)
(1.51907e-06 9.29032e-07 0)
(1.08164e-06 9.2027e-07 0)
(6.47628e-07 9.14472e-07 0)
(2.1565e-07 9.11587e-07 0)
(-2.1501e-07 1.08684e-06 0)
(-6.457e-07 1.09028e-06 0)
(-1.07841e-06 1.09718e-06 0)
(-1.51451e-06 1.1076e-06 0)
(-1.95538e-06 1.12165e-06 0)
(-2.40249e-06 1.13945e-06 0)
(-2.85731e-06 1.16115e-06 0)
(-3.32142e-06 1.18695e-06 0)
(-3.79647e-06 1.21707e-06 0)
(-4.2842e-06 1.25177e-06 0)
(-4.78648e-06 1.29134e-06 0)
(-5.3053e-06 1.3361e-06 0)
(-5.84277e-06 1.38636e-06 0)
(-6.40117e-06 1.44246e-06 0)
(-6.98293e-06 1.50471e-06 0)
(-7.59064e-06 1.57335e-06 0)
(-8.22704e-06 1.64851e-06 0)
(-8.89496e-06 1.73008e-06 0)
(-9.59733e-06 1.81759e-06 0)
(-1.0337e-05 1.90994e-06 0)
(-1.11167e-05 2.00508e-06 0)
(-1.19386e-05 2.09939e-06 0)
(-1.28039e-05 2.18683e-06 0)
(-1.37124e-05 2.25755e-06 0)
(-1.46611e-05 2.29576e-06 0)
(-1.56423e-05 2.27646e-06 0)
(-1.66408e-05 2.16046e-06 0)
(-1.7628e-05 1.887e-06 0)
(-1.85521e-05 1.36347e-06 0)
(-1.93195e-05 4.528e-07 0)
(-1.97595e-05 -1.03665e-06 0)
(-1.95631e-05 -3.34168e-06 0)
(-1.88767e-05 -5.74353e-06 0)
(-1.79297e-05 -7.41194e-06 0)
(-1.65644e-05 -9.23659e-06 0)
(-1.47028e-05 -1.1145e-05 0)
(-1.2287e-05 -1.30175e-05 0)
(-9.30498e-06 -1.46864e-05 0)
(-5.81932e-06 -1.59556e-05 0)
(-1.98193e-06 -1.66438e-05 0)
(1.98193e-06 -1.66438e-05 0)
(5.81932e-06 -1.59556e-05 0)
(9.30498e-06 -1.46864e-05 0)
(1.2287e-05 -1.30175e-05 0)
(1.47028e-05 -1.1145e-05 0)
(1.65644e-05 -9.23659e-06 0)
(1.79297e-05 -7.41194e-06 0)
(1.88767e-05 -5.74353e-06 0)
(1.95631e-05 -3.34168e-06 0)
(1.97595e-05 -1.03665e-06 0)
(1.93195e-05 4.528e-07 0)
(1.85521e-05 1.36347e-06 0)
(1.7628e-05 1.887e-06 0)
(1.66408e-05 2.16046e-06 0)
(1.56423e-05 2.27646e-06 0)
(1.46611e-05 2.29576e-06 0)
(1.37124e-05 2.25755e-06 0)
(1.28039e-05 2.18683e-06 0)
(1.19386e-05 2.09939e-06 0)
(1.11167e-05 2.00508e-06 0)
(1.0337e-05 1.90994e-06 0)
(9.59733e-06 1.81759e-06 0)
(8.89496e-06 1.73008e-06 0)
(8.22704e-06 1.64851e-06 0)
(7.59064e-06 1.57335e-06 0)
(6.98293e-06 1.50471e-06 0)
(6.40117e-06 1.44246e-06 0)
(5.84277e-06 1.38636e-06 0)
(5.3053e-06 1.3361e-06 0)
(4.78648e-06 1.29134e-06 0)
(4.2842e-06 1.25177e-06 0)
(3.79647e-06 1.21707e-06 0)
(3.32142e-06 1.18695e-06 0)
(2.85731e-06 1.16115e-06 0)
(2.40249e-06 1.13945e-06 0)
(1.95538e-06 1.12165e-06 0)
(1.51451e-06 1.1076e-06 0)
(1.07841e-06 1.09718e-06 0)
(6.457e-07 1.09028e-06 0)
(2.1501e-07 1.08684e-06 0)
(-2.14179e-07 1.2784e-06 0)
(-6.43202e-07 1.28243e-06 0)
(-1.07422e-06 1.29053e-06 0)
(-1.50859e-06 1.30277e-06 0)
(-1.94769e-06 1.31925e-06 0)
(-2.39294e-06 1.34013e-06 0)
(-2.84583e-06 1.3656e-06 0)
(-3.3079e-06 1.39588e-06 0)
(-3.7808e-06 1.43123e-06 0)
(-4.26624e-06 1.47197e-06 0)
(-4.76609e-06 1.51843e-06 0)
(-5.28232e-06 1.57098e-06 0)
(-5.81704e-06 1.63002e-06 0)
(-6.37253e-06 1.69595e-06 0)
(-6.95125e-06 1.76916e-06 0)
(-7.55582e-06 1.84997e-06 0)
(-8.18906e-06 1.93856e-06 0)
(-8.85395e-06 2.0349e-06 0)
(-9.55364e-06 2.13855e-06 0)
(-1.02914e-05 2.24842e-06 0)
(-1.10704e-05 2.36236e-06 0)
(-1.18939e-05 2.47658e-06 0)
(-1.27645e-05 2.58466e-06 0)
(-1.36843e-05 2.67608e-06 0)
(-1.46538e-05 2.73389e-06 0)
(-1.56709e-05 2.73109e-06 0)
(-1.67288e-05 2.62499e-06 0)
(-1.78119e-05 2.34856e-06 0)
(-1.88871e-05 1.7975e-06 0)
(-1.98863e-05 8.12084e-07 0)
(-2.06669e-05 -8.44043e-07 0)
(-2.09314e-05 -3.49439e-06 0)
(-2.06194e-05 -6.38534e-06 0)
(-1.98849e-05 -8.44907e-06 0)
(-1.86778e-05 -1.07757e-05 0)
(-1.68682e-05 -1.32907e-05 0)
(-1.43377e-05 -1.58449e-05 0)
(-1.10227e-05 -1.81989e-05 0)
(-6.97148e-06 -2.00391e-05 0)
(-2.38839e-06 -2.1052e-05 0)
(2.38839e-06 -2.1052e-05 0)
(6.97148e-06 -2.00391e-05 0)
(1.10227e-05 -1.81989e-05 0)
(1.43377e-05 -1.58449e-05 0)
(1.68682e-05 -1.32907e-05 0)
(1.86778e-05 -1.07757e-05 0)
(1.98849e-05 -8.44907e-06 0)
(2.06194e-05 -6.38534e-06 0)
(2.09314e-05 -3.49439e-06 0)
(2.06669e-05 -8.44043e-07 0)
(1.98863e-05 8.12084e-07 0)
(1.88871e-05 1.7975e-06 0)
(1.78119e-05 2.34856e-06 0)
(1.67288e-05 2.62499e-06 0)
(1.56709e-05 2.73109e-06 0)
(1.46538e-05 2.73389e-06 0)
(1.36843e-05 2.67608e-06 0)
(1.27645e-05 2.58466e-06 0)
(1.18939e-05 2.47658e-06 0)
(1.10704e-05 2.36236e-06 0)
(1.02914e-05 2.24842e-06 0)
(9.55364e-06 2.13855e-06 0)
(8.85395e-06 2.0349e-06 0)
(8.18906e-06 1.93856e-06 0)
(7.55582e-06 1.84997e-06 0)
(6.95125e-06 1.76916e-06 0)
(6.37253e-06 1.69595e-06 0)
(5.81704e-06 1.63002e-06 0)
(5.28232e-06 1.57098e-06 0)
(4.76609e-06 1.51843e-06 0)
(4.26624e-06 1.47197e-06 0)
(3.7808e-06 1.43123e-06 0)
(3.3079e-06 1.39588e-06 0)
(2.84583e-06 1.3656e-06 0)
(2.39294e-06 1.34013e-06 0)
(1.94769e-06 1.31925e-06 0)
(1.50859e-06 1.30277e-06 0)
(1.07422e-06 1.29053e-06 0)
(6.43202e-07 1.28243e-06 0)
(2.14179e-07 1.2784e-06 0)
(-2.13117e-07 1.48758e-06 0)
(-6.40005e-07 1.49226e-06 0)
(-1.06886e-06 1.50165e-06 0)
(-1.50102e-06 1.51584e-06 0)
(-1.93783e-06 1.53497e-06 0)
(-2.38072e-06 1.55919e-06 0)
(-2.83113e-06 1.58874e-06 0)
(-3.2906e-06 1.62387e-06 0)
(-3.76073e-06 1.66489e-06 0)
(-4.24325e-06 1.71216e-06 0)
(-4.73998e-06 1.76609e-06 0)
(-5.25289e-06 1.8271e-06 0)
(-5.78407e-06 1.89568e-06 0)
(-6.33582e-06 1.97231e-06 0)
(-6.91059e-06 2.05746e-06 0)
(-7.51108e-06 2.15157e-06 0)
(-8.14017e-06 2.25491e-06 0)
(-8.80102e-06 2.36755e-06 0)
(-9.49702e-06 2.48915e-06 0)
(-1.02319e-05 2.61872e-06 0)
(-1.10095e-05 2.75416e-06 0)
(-1.1834e-05 2.89169e-06 0)
(-1.271e-05 3.02483e-06 0)
(-1.36421e-05 3.14285e-06 0)
(-1.46349e-05 3.22837e-06 0)
(-1.56929e-05 3.2535e-06 0)
(-1.68196e-05 3.1737e-06 0)
(-1.80153e-05 2.91809e-06 0)
(-1.92719e-05 2.37375e-06 0)
(-2.05579e-05 1.36111e-06 0)
(-2.17801e-05 -4.02515e-07 0)
(-2.2688e-05 -3.34735e-06 0)
(-2.29412e-05 -6.75226e-06 0)
(-2.25767e-05 -9.2739e-06 0)
(-2.16933e-05 -1.22372e-05 0)
(-2.00774e-05 -1.55929e-05 0)
(-1.74952e-05 -1.91774e-05 0)
(-1.3759e-05 -2.26552e-05 0)
(-8.85079e-06 -2.54961e-05 0)
(-3.05837e-06 -2.70862e-05 0)
(3.05837e-06 -2.70862e-05 0)
(8.85079e-06 -2.54961e-05 0)
(1.3759e-05 -2.26552e-05 0)
(1.74952e-05 -1.91774e-05 0)
(2.00774e-05 -1.55929e-05 0)
(2.16933e-05 -1.22372e-05 0)
(2.25767e-05 -9.2739e-06 0)
(2.29412e-05 -6.75226e-06 0)
(2.2688e-05 -3.34735e-06 0)
(2.17801e-05 -4.02515e-07 0)
(2.05579e-05 1.36111e-06 0)
(1.92719e-05 2.37375e-06 0)
(1.80153e-05 2.91809e-06 0)
(1.68196e-05 3.1737e-06 0)
(1.56929e-05 3.2535e-06 0)
(1.46349e-05 3.22837e-06 0)
(1.36421e-05 3.14285e-06 0)
(1.271e-05 3.02483e-06 0)
(1.1834e-05 2.89169e-06 0)
(1.10095e-05 2.75416e-06 0)
(1.02319e-05 2.61872e-06 0)
(9.49702e-06 2.48915e-06 0)
(8.80102e-06 2.36755e-06 0)
(8.14017e-06 2.25491e-06 0)
(7.51108e-06 2.15157e-06 0)
(6.91059e-06 2.05746e-06 0)
(6.33582e-06 1.97231e-06 0)
(5.78407e-06 1.89568e-06 0)
(5.25289e-06 1.8271e-06 0)
(4.73998e-06 1.76609e-06 0)
(4.24325e-06 1.71216e-06 0)
(3.76073e-06 1.66489e-06 0)
(3.2906e-06 1.62387e-06 0)
(2.83113e-06 1.58874e-06 0)
(2.38072e-06 1.55919e-06 0)
(1.93783e-06 1.53497e-06 0)
(1.50102e-06 1.51584e-06 0)
(1.06886e-06 1.50165e-06 0)
(6.40005e-07 1.49226e-06 0)
(2.13117e-07 1.48758e-06 0)
(-2.11772e-07 1.71572e-06 0)
(-6.35957e-07 1.72109e-06 0)
(-1.06207e-06 1.73188e-06 0)
(-1.49143e-06 1.74818e-06 0)
(-1.92536e-06 1.77015e-06 0)
(-2.36525e-06 1.79798e-06 0)
(-2.81252e-06 1.83193e-06 0)
(-3.26868e-06 1.87229e-06 0)
(-3.73532e-06 1.91943e-06 0)
(-4.21413e-06 1.97376e-06 0)
(-4.7069e-06 2.03575e-06 0)
(-5.21558e-06 2.10592e-06 0)
(-5.74225e-06 2.18482e-06 0)
(-6.28921e-06 2.27305e-06 0)
(-6.85893e-06 2.37119e-06 0)
(-7.45413e-06 2.47979e-06 0)
(-8.07781e-06 2.59929e-06 0)
(-8.73329e-06 2.7299e-06 0)
(-9.42425e-06 2.87148e-06 0)
(-1.01548e-05 3.02322e-06 0)
(-1.09297e-05 3.18328e-06 0)
(-1.17543e-05 3.34817e-06 0)
(-1.26349e-05 3.51176e-06 0)
(-1.35791e-05 3.66377e-06 0)
(-1.45962e-05 3.78739e-06 0)
(-1.56981e-05 3.85545e-06 0)
(-1.69001e-05 3.82413e-06 0)
(-1.82217e-05 3.62262e-06 0)
(-1.9686e-05 3.13546e-06 0)
(-2.13121e-05 2.17165e-06 0)
(-2.30876e-05 4.10419e-07 0)
(-2.48744e-05 -2.69139e-06 0)
(-2.5973e-05 -6.54766e-06 0)
(-2.62516e-05 -9.54652e-06 0)
(-2.60209e-05 -1.32742e-05 0)
(-2.49429e-05 -1.77808e-05 0)
(-2.25651e-05 -2.29712e-05 0)
(-1.83924e-05 -2.84418e-05 0)
(-1.21433e-05 -3.32653e-05 0)
(-4.24483e-06 -3.59765e-05 0)
(4.24483e-06 -3.59765e-05 0)
(1.21433e-05 -3.32653e-05 0)
(1.83924e-05 -2.84418e-05 0)
(2.25651e-05 -2.29712e-05 0)
(2.49429e-05 -1.77808e-05 0)
(2.60209e-05 -1.32742e-05 0)
(2.62516e-05 -9.54652e-06 0)
(2.5973e-05 -6.54766e-06 0)
(2.48744e-05 -2.69139e-06 0)
(2.30876e-05 4.10419e-07 0)
(2.13121e-05 2.17165e-06 0)
(1.9686e-05 3.13546e-06 0)
(1.82217e-05 3.62262e-06 0)
(1.69001e-05 3.82413e-06 0)
(1.56981e-05 3.85545e-06 0)
(1.45962e-05 3.78739e-06 0)
(1.35791e-05 3.66377e-06 0)
(1.26349e-05 3.51176e-06 0)
(1.17543e-05 3.34817e-06 0)
(1.09297e-05 3.18328e-06 0)
(1.01548e-05 3.02322e-06 0)
(9.42425e-06 2.87148e-06 0)
(8.73329e-06 2.7299e-06 0)
(8.07781e-06 2.59929e-06 0)
(7.45413e-06 2.47979e-06 0)
(6.85893e-06 2.37119e-06 0)
(6.28921e-06 2.27305e-06 0)
(5.74225e-06 2.18482e-06 0)
(5.21558e-06 2.10592e-06 0)
(4.7069e-06 2.03575e-06 0)
(4.21413e-06 1.97376e-06 0)
(3.73532e-06 1.91943e-06 0)
(3.26868e-06 1.87229e-06 0)
(2.81252e-06 1.83193e-06 0)
(2.36525e-06 1.79798e-06 0)
(1.92536e-06 1.77015e-06 0)
(1.49143e-06 1.74818e-06 0)
(1.06207e-06 1.73188e-06 0)
(6.35957e-07 1.72109e-06 0)
(2.11772e-07 1.71572e-06 0)
(-2.10084e-07 1.96414e-06 0)
(-6.30879e-07 1.97026e-06 0)
(-1.05356e-06 1.98255e-06 0)
(-1.4794e-06 2.00112e-06 0)
(-1.90971e-06 2.02615e-06 0)
(-2.34583e-06 2.05785e-06 0)
(-2.78916e-06 2.09652e-06 0)
(-3.24118e-06 2.1425e-06 0)
(-3.70343e-06 2.19621e-06 0)
(-4.17756e-06 2.25813e-06 0)
(-4.66535e-06 2.3288e-06 0)
(-5.1687e-06 2.40881e-06 0)
(-5.68968e-06 2.49885e-06 0)
(-6.23056e-06 2.5996e-06 0)
(-6.79383e-06 2.7118e-06 0)
(-7.38224e-06 2.83615e-06 0)
(-7.99889e-06 2.97329e-06 0)
(-8.64726e-06 3.12367e-06 0)
(-9.33131e-06 3.28741e-06 0)
(-1.00557e-05 3.46408e-06 0)
(-1.08258e-05 3.6523e-06 0)
(-1.16483e-05 3.84923e-06 0)
(-1.25314e-05 4.04961e-06 0)
(-1.34858e-05 4.24446e-06 0)
(-1.45257e-05 4.41889e-06 0)
(-1.56707e-05 4.54856e-06 0)
(-1.69489e-05 4.5939e-06 0)
(-1.8401e-05 4.49009e-06 0)
(-2.00865e-05 4.12919e-06 0)
(-2.20899e-05 3.326e-06 0)
(-2.45178e-05 1.74959e-06 0)
(-2.74482e-05 -1.22102e-06 0)
(-2.97668e-05 -5.25269e-06 0)
(-3.11352e-05 -8.59214e-06 0)
(-3.21867e-05 -1.30624e-05 0)
(-3.24571e-05 -1.89804e-05 0)
(-3.11327e-05 -2.66134e-05 0)
(-2.69526e-05 -3.58695e-05 0)
(-1.85174e-05 -4.54317e-05 0)
(-6.53658e-06 -5.04048e-05 0)
(6.53658e-06 -5.04048e-05 0)
(1.85174e-05 -4.54317e-05 0)
(2.69526e-05 -3.58695e-05 0)
(3.11327e-05 -2.66134e-05 0)
(3.24571e-05 -1.89804e-05 0)
(3.21867e-05 -1.30624e-05 0)
(3.11352e-05 -8.59214e-06 0)
(2.97668e-05 -5.25269e-06 0)
(2.74482e-05 -1.22102e-06 0)
(2.45178e-05 1.74959e-06 0)
(2.20899e-05 3.326e-06 0)
(2.00865e-05 4.12919e-06 0)
(1.8401e-05 4.49009e-06 0)
(1.69489e-05 4.5939e-06 0)
(1.56707e-05 4.54856e-06 0)
(1.45257e-05 4.41889e-06 0)
(1.34858e-05 4.24446e-06 0)
(1.25314e-05 4.04961e-06 0)
(1.16483e-05 3.84923e-06 0)
(1.08258e-05 3.6523e-06 0)
(1.00557e-05 3.46408e-06 0)
(9.33131e-06 3.28741e-06 0)
(8.64726e-06 3.12367e-06 0)
(7.99889e-06 2.97329e-06 0)
(7.38224e-06 2.83615e-06 0)
(6.79383e-06 2.7118e-06 0)
(6.23056e-06 2.5996e-06 0)
(5.68968e-06 2.49885e-06 0)