/*--------------------------------*- C++ -*----------------------------------*\
  =========                 |
  \\      /  F ield         | OpenFOAM: The Open Source CFD Toolbox
   \\    /   O peration     | Website:  https://openfoam.org
    \\  /    A nd           | Version:  10
     \\/     M anipulation  |
\*---------------------------------------------------------------------------*/
FoamFile
{
    format      ascii;
    class       surfaceScalarField;
    location    "2.54";
    object      phi;
}
// * * * * * * * * * * * * * * * * * * * * * * * * * * * * * * * * * * * * * //

dimensions      [0 3 -1 0 0 0 0];

internalField   nonuniform List<scalar> 
24170
(
1.47112e-09
-1.47112e-09
2.72925e-09
-1.25812e-09
3.72274e-09
-9.93492e-10
4.47065e-09
-7.47916e-10
5.02275e-09
-5.52092e-10
5.43278e-09
-4.10039e-10
5.74704e-09
-3.14257e-10
6.00183e-09
-2.54786e-10
6.22497e-09
-2.23141e-10
6.43852e-09
-2.1355e-10
6.66176e-09
-2.23243e-10
6.91455e-09
-2.52793e-10
7.22194e-09
-3.07385e-10
7.62257e-09
-4.00628e-10
8.18873e-09
-5.6616e-10
9.08784e-09
-8.99109e-10
1.08391e-08
-1.75128e-09
-5.01993e-09
1.5859e-08
1.66398e-09
-3.13511e-09
3.08131e-09
-2.67545e-09
4.19399e-09
-2.10618e-09
5.02599e-09
-1.57991e-09
5.63574e-09
-1.16185e-09
6.08535e-09
-8.59643e-10
6.42764e-09
-6.56549e-10
6.70372e-09
-5.30862e-10
6.94481e-09
-4.64231e-10
7.17544e-09
-4.44189e-10
7.41685e-09
-4.64648e-10
7.69055e-09
-5.26491e-10
8.02311e-09
-6.39949e-10
8.45421e-09
-8.31728e-10
9.05356e-09
-1.16551e-09
9.96097e-09
-1.80652e-09
1.14617e-08
-3.252e-09
-7.17826e-09
1.362e-08
1.85734e-09
-4.99245e-09
3.43052e-09
-4.24862e-09
4.65592e-09
-3.33158e-09
5.56449e-09
-2.48849e-09
6.2249e-09
-1.82225e-09
6.70816e-09
-1.34291e-09
7.07369e-09
-1.02207e-09
7.36705e-09
-8.24225e-10
7.62246e-09
-7.19646e-10
7.86644e-09
-6.88163e-10
8.12145e-09
-7.19663e-10
8.40965e-09
-8.14684e-10
8.75709e-09
-9.87391e-10
9.19984e-09
-1.27448e-09
9.79307e-09
-1.75873e-09
1.06176e-08
-2.63106e-09
1.17136e-08
-4.34798e-09
-7.89395e-09
1.24293e-08
2.07293e-09
-7.06538e-09
3.81465e-09
-5.99035e-09
5.15639e-09
-4.67331e-09
6.13978e-09
-3.47188e-09
6.84688e-09
-2.52935e-09
7.35942e-09
-1.85544e-09
7.74407e-09
-1.40673e-09
8.05103e-09
-1.13118e-09
8.31728e-09
-9.85895e-10
8.5709e-09
-9.41783e-10
8.835e-09
-9.83767e-10
9.13125e-09
-1.11093e-09
9.48318e-09
-1.33932e-09
9.91917e-09
-1.71047e-09
1.04722e-08
-2.31173e-09
1.11593e-08
-3.3182e-09
1.18659e-08
-5.05455e-09
-7.93074e-09
1.19027e-08
2.32424e-09
-9.38961e-09
4.25518e-09
-7.9213e-09
5.71989e-09
-6.13802e-09
6.77653e-09
-4.52852e-09
7.52534e-09
-3.27816e-09
8.0614e-09
-2.39151e-09
8.45977e-09
-1.80509e-09
8.77541e-09
-1.44682e-09
9.04789e-09
-1.25838e-09
9.30638e-09
-1.20028e-09
9.5739e-09
-1.25129e-09
9.87049e-09
-1.40752e-09
1.02153e-08
-1.6841e-09
1.06261e-08
-2.12131e-09
1.11117e-08
-2.79732e-09
1.16388e-08
-3.84528e-09
1.20303e-08
-5.4461e-09
-7.66728e-09
1.17669e-08
2.62633e-09
-1.20159e-08
4.77449e-09
-1.00695e-08
6.36984e-09
-7.73336e-09
7.49618e-09
-5.65486e-09
8.27892e-09
-4.0609e-09
8.8301e-09
-2.94269e-09
9.23447e-09
-2.20946e-09
9.552e-09
-1.76435e-09
9.82447e-09
-1.53085e-09
1.00816e-08
-1.45738e-09
1.03454e-08
-1.5151e-09
1.06332e-08
-1.69537e-09
1.09584e-08
-2.00929e-09
1.13273e-08
-2.49013e-09
1.17272e-08
-3.19723e-09
1.2095e-08
-4.21312e-09
1.22536e-08
-5.60471e-09
-7.28203e-09
1.18684e-08
2.99958e-09
-1.50155e-08
5.40121e-09
-1.24711e-08
7.13428e-09
-9.46643e-09
8.32265e-09
-6.84323e-09
9.12693e-09
-4.86518e-09
9.68083e-09
-3.49659e-09
1.00803e-08
-2.60894e-09
1.03904e-08
-2.07444e-09
1.06546e-08
-1.79503e-09
1.09023e-08
-1.70506e-09
1.11537e-08
-1.76657e-09
1.14226e-08
-1.96427e-09
1.17158e-08
-2.30243e-09
1.20287e-08
-2.80302e-09
1.23337e-08
-3.50227e-09
1.25571e-08
-4.43653e-09
1.25522e-08
-5.59981e-09
-6.85517e-09
1.21253e-08
3.47375e-09
-1.84893e-08
6.17492e-09
-1.51723e-08
8.04965e-09
-1.13412e-08
9.28514e-09
-8.07872e-09
1.00915e-08
-5.67157e-09
1.06301e-08
-4.03518e-09
1.10096e-08
-2.98841e-09
1.12997e-08
-2.3646e-09
1.15449e-08
-2.04017e-09
1.17732e-08
-1.93336e-09
1.20022e-08
-1.99559e-09
1.22412e-08
-2.20332e-09
1.24907e-08
-2.55186e-09
1.27375e-08
-3.04982e-09
1.2946e-08
-3.71081e-09
1.30459e-08
-4.53639e-09
1.29293e-08
-5.48324e-09
-6.42057e-09
1.24947e-08
4.09454e-09
-2.25838e-08
7.15264e-09
-1.82304e-08
9.16507e-09
-1.33536e-08
1.04206e-08
-9.3342e-09
1.1199e-08
-6.45005e-09
1.16965e-08
-4.53261e-09
1.20353e-08
-3.32726e-09
1.22892e-08
-2.61842e-09
1.25017e-08
-2.25271e-09
1.26986e-08
-2.13029e-09
1.28938e-08
-2.1908e-09
1.30919e-08
-2.40139e-09
1.32875e-08
-2.74743e-09
1.34619e-08
-3.2242e-09
1.35777e-08
-3.82664e-09
1.35755e-08
-4.53424e-09
1.33833e-08
-5.29095e-09
-5.99107e-09
1.29538e-08
4.93532e-09
-2.75191e-08
8.41901e-09
-2.1714e-08
1.05479e-08
-1.54825e-08
1.17759e-08
-1.05622e-08
1.24809e-08
-7.15501e-09
1.29007e-08
-4.95248e-09
1.31714e-08
-3.59792e-09
1.33679e-08
-2.81493e-09
1.35312e-08
-2.41602e-09
1.36828e-08
-2.28188e-09
1.38319e-08
-2.33988e-09
1.39781e-08
-2.54762e-09
1.41115e-08
-2.88081e-09
1.42105e-08
-3.32323e-09
1.42405e-08
-3.85658e-09
1.41555e-08
-4.4493e-09
1.39112e-08
-5.04662e-09
-5.57022e-09
1.34903e-08
6.1195e-09
-3.36386e-08
1.0103e-08
-2.56975e-08
1.22914e-08
-1.7671e-08
1.34106e-08
-1.16814e-08
1.39735e-08
-7.71788e-09
1.42653e-08
-5.24429e-09
1.44318e-08
-3.76433e-09
1.45448e-08
-2.92797e-09
1.46391e-08
-2.5103e-09
1.47296e-08
-2.37237e-09
1.48196e-08
-2.4299e-09
1.49038e-08
-2.63181e-09
1.49686e-08
-2.94562e-09
1.49919e-08
-3.34656e-09
1.4944e-08
-3.80865e-09
1.47919e-08
-4.29719e-09
1.45105e-08
-4.7652e-09
-5.15758e-09
1.40978e-08
6.52551e-09
-4.01641e-08
1.03242e-08
-2.94962e-08
1.21204e-08
-1.94672e-08
1.28765e-08
-1.24375e-08
1.31636e-08
-8.00505e-09
1.32578e-08
-5.3385e-09
1.32819e-08
-3.78844e-09
1.3288e-08
-2.93406e-09
1.32963e-08
-2.51854e-09
1.33118e-08
-2.38793e-09
1.33317e-08
-2.44983e-09
1.33474e-08
-2.64748e-09
1.33452e-08
-2.94341e-09
1.3307e-08
-3.30838e-09
1.32119e-08
-3.71351e-09
1.30401e-08
-4.12538e-09
1.27799e-08
-4.50507e-09
-4.81287e-09
1.24352e-08
9.69817e-09
-4.98623e-08
1.45125e-08
-3.43105e-08
1.63103e-08
-2.1265e-08
1.67965e-08
-1.29236e-08
1.68051e-08
-8.01369e-09
1.6675e-08
-5.20835e-09
1.653e-08
-3.64348e-09
1.64094e-08
-2.81349e-09
1.63201e-08
-2.42921e-09
1.62563e-08
-2.32411e-09
1.62066e-08
-2.40014e-09
1.61562e-08
-2.59707e-09
1.60873e-08
-2.87457e-09
1.59804e-08
-3.20142e-09
1.58158e-08
-3.54889e-09
1.5578e-08
-3.88758e-09
1.52606e-08
-4.18773e-09
-4.42276e-09
1.48705e-08
1.56608e-08
-6.55231e-08
2.14198e-08
-4.00695e-08
2.25752e-08
-2.24204e-08
2.22682e-08
-1.26166e-08
2.16553e-08
-7.40081e-09
2.10836e-08
-4.63659e-09
2.06287e-08
-3.18857e-09
2.02856e-08
-2.47047e-09
2.00297e-08
-2.17326e-09
1.98336e-08
-2.12802e-09
1.96716e-08
-2.23818e-09
1.95196e-08
-2.44504e-09
1.93546e-08
-2.70954e-09
1.91553e-08
-3.00213e-09
1.89039e-08
-3.2975e-09
1.85888e-08
-3.57244e-09
1.82074e-08
-3.80632e-09
-3.98301e-09
1.77676e-08
2.86567e-08
-9.41798e-08
3.3668e-08
-4.50808e-08
3.22366e-08
-2.0989e-08
2.99792e-08
-1.03593e-08
2.81129e-08
-5.53455e-09
2.67448e-08
-3.26847e-09
2.57678e-08
-2.21152e-09
2.50658e-08
-1.76849e-09
2.45489e-08
-1.65634e-09
2.4151e-08
-1.7302e-09
2.38232e-08
-1.91033e-09
2.35273e-08
-2.14915e-09
2.32331e-08
-2.41535e-09
2.29168e-08
-2.68586e-09
2.25614e-08
-2.9421e-09
2.21576e-08
-3.16863e-09
2.17046e-08
-3.35331e-09
-3.48804e-09
2.12096e-08
6.32353e-08
-1.57415e-07
5.66585e-08
-3.8504e-08
4.70472e-08
-1.13776e-08
4.05465e-08
-3.85862e-09
3.64456e-08
-1.43364e-09
3.38121e-08
-6.34995e-10
3.20595e-08
-4.58856e-10
3.08452e-08
-5.54243e-10
2.99655e-08
-7.76641e-10
2.92934e-08
-1.05812e-09
2.87455e-08
-1.36236e-09
2.82642e-08
-1.66789e-09
2.78093e-08
-1.96042e-09
2.73527e-08
-2.22925e-09
2.68765e-08
-2.46596e-09
2.6372e-08
-2.66409e-09
2.58381e-08
-2.81939e-09
-2.93008e-09
2.52801e-08
1.82913e-07
1.59164e-07
9.67004e-08
4.77081e-08
6.64713e-08
1.88515e-08
5.31428e-08
9.4699e-09
4.61617e-08
5.54745e-09
4.20466e-08
3.48009e-09
3.94117e-08
2.17612e-09
3.76123e-08
1.24511e-09
3.63109e-08
5.24806e-10
3.53129e-08
-6.01387e-11
3.44955e-08
-5.44991e-10
3.37851e-08
-9.57512e-10
3.31333e-08
-1.30856e-09
3.25083e-08
-1.60428e-09
3.18909e-08
-1.84856e-09
3.12711e-08
-2.04431e-09
3.06461e-08
-2.19433e-09
-2.30188e-09
3.00179e-08
7.7221e-08
8.19434e-08
7.53817e-08
4.95474e-08
6.53019e-08
2.89312e-08
5.72816e-08
1.74902e-08
5.17839e-08
1.10451e-08
4.8059e-08
7.20501e-09
4.54728e-08
4.76234e-09
4.36088e-08
3.10906e-09
4.22049e-08
1.92871e-09
4.10956e-08
1.04919e-09
4.01779e-08
3.72682e-10
3.93765e-08
-1.56094e-10
3.86398e-08
-5.71882e-10
3.79401e-08
-9.04509e-10
3.72605e-08
-1.16897e-09
3.65922e-08
-1.37604e-09
3.5932e-08
-1.53408e-09
-1.64999e-09
3.52801e-08
3.59301e-08
4.60133e-08
5.01131e-08
3.53644e-08
5.37924e-08
2.52519e-08
5.36141e-08
1.76686e-08
5.23016e-08
1.23575e-08
5.08261e-08
8.68051e-09
4.94829e-08
6.10562e-09
4.83264e-08
4.26549e-09
4.73347e-08
2.92041e-09
4.6468e-08
1.9159e-09
4.56888e-08
1.15189e-09
4.49702e-08
5.62524e-10
4.42947e-08
1.03629e-10
4.36415e-08
-2.51341e-10
4.30004e-08
-5.27829e-10
4.23671e-08
-7.42741e-10
4.17406e-08
-9.07588e-10
-1.03138e-09
4.1122e-08
1.42991e-08
3.17143e-08
2.32871e-08
2.63765e-08
2.80985e-08
2.04405e-08
3.04534e-08
1.53136e-08
3.15095e-08
1.13014e-08
3.19078e-08
8.28223e-09
3.19768e-08
6.03665e-09
3.18788e-08
4.36348e-09
3.16925e-08
3.10668e-09
3.14557e-08
2.15273e-09
3.11865e-08
1.42111e-09
3.08939e-08
8.55028e-10
3.05833e-08
4.14239e-10
3.02621e-08
6.99087e-11
2.99303e-08
-1.96019e-10
2.95898e-08
-4.02272e-10
2.92437e-08
-5.61502e-10
-6.82684e-10
2.8895e-08
8.56887e-09
2.31454e-08
1.49682e-08
1.99772e-08
1.92197e-08
1.61889e-08
2.18917e-08
1.26416e-08
2.35287e-08
9.66449e-09
2.45163e-08
7.29458e-09
2.50992e-08
5.45374e-09
2.54257e-08
4.037e-09
2.55847e-08
2.94768e-09
2.56301e-08
2.10736e-09
2.55953e-08
1.45593e-09
2.55019e-08
9.48398e-10
2.53647e-08
5.51451e-10
2.51942e-08
2.40366e-10
2.50015e-08
-3.25609e-12
2.479e-08
-1.90825e-10
2.45651e-08
-3.36554e-10
-4.48562e-10
2.4331e-08
5.78858e-09
1.73568e-08
1.04844e-08
1.52813e-08
1.39608e-08
1.27125e-08
1.64129e-08
1.01896e-08
1.81022e-08
7.97522e-09
1.92525e-08
6.14431e-09
2.00283e-08
4.6779e-09
2.05433e-08
3.52203e-09
2.08739e-08
2.61703e-09
2.10718e-08
1.90947e-09
2.11722e-08
1.35558e-09
2.11996e-08
9.20996e-10
2.11717e-08
5.79325e-10
2.11016e-08
3.10419e-10
2.09995e-08
9.89001e-11
2.08746e-08
-6.59837e-11
2.07317e-08
-1.93596e-10
-2.9241e-10
2.05755e-08
4.21871e-09
1.31381e-08
7.7974e-09
1.17026e-08
1.0615e-08
9.89486e-09
1.27375e-08
8.06711e-09
1.42972e-08
6.41547e-09
1.54273e-08
5.01422e-09
1.62376e-08
3.86757e-09
1.68117e-08
2.94799e-09
1.72105e-08
2.21816e-09
1.74785e-08
1.64156e-09
1.76475e-08
1.18657e-09
1.7741e-08
8.27415e-10
1.77767e-08
5.43687e-10
1.77676e-08
3.19489e-10
1.7724e-08
1.4249e-10
1.76549e-08
3.12975e-12
1.75659e-08
-1.04553e-10
-1.88404e-10
1.74619e-08
3.232e-09
9.90609e-09
6.04638e-09
8.88827e-09
8.34677e-09
7.59447e-09
1.01515e-08
6.26233e-09
1.15318e-08
5.0352e-09
1.25703e-08
3.97569e-09
1.33423e-08
3.09558e-09
1.39094e-08
2.38097e-09
1.43194e-08
1.80814e-09
1.4609e-08
1.35198e-09
1.48058e-08
9.89782e-10
1.49307e-08
7.02447e-10
1.49999e-08
4.74533e-10
1.50256e-08
2.93802e-10
1.50174e-08
1.5064e-10
1.4983e-08
3.75047e-11
1.49292e-08
-5.07255e-11
-1.19313e-10
1.48601e-08
2.56086e-09
7.34523e-09
4.82724e-09
6.62189e-09
6.72417e-09
5.69754e-09
8.2519e-09
4.7346e-09
9.45093e-09
3.83617e-09
1.03755e-08
3.05112e-09
1.10789e-08
2.39215e-09
1.16075e-08
1.85238e-09
1.19991e-08
1.41655e-09
1.22837e-08
1.06743e-09
1.24845e-08
7.88896e-10
1.26199e-08
5.67053e-10
1.2704e-08
3.90495e-10
1.27477e-08
2.50067e-10
1.27598e-08
1.38511e-10
1.27472e-08
5.00964e-11
1.27159e-08
-1.93801e-11
-7.332e-11
1.26699e-08
2.07592e-09
5.26931e-09
3.93225e-09
4.76557e-09
5.51005e-09
4.11974e-09
6.80283e-09
3.44183e-09
7.83507e-09
2.80392e-09
8.64422e-09
2.24197e-09
9.26952e-09
1.76685e-09
9.74666e-09
1.37524e-09
1.01058e-08
1.05738e-09
1.03716e-08
8.01639e-10
1.05637e-08
5.96845e-10
1.06975e-08
4.33221e-10
1.07854e-08
3.02634e-10
1.08369e-08
1.98503e-10
1.08599e-08
1.15573e-10
1.08603e-08
4.96765e-11
1.08434e-08
-2.44376e-12
-4.28263e-11
1.08129e-08
1.70821e-09
3.5611e-09
3.24606e-09
3.22771e-09
4.5664e-09
2.79939e-09
5.66065e-09
2.34758e-09
6.54455e-09
1.92002e-09
7.24523e-09
1.5413e-09
7.79258e-09
1.21949e-09
8.21474e-09
9.53081e-10
8.5361e-09
7.36015e-10
8.77695e-09
5.60795e-10
8.95372e-09
4.20074e-10
9.07959e-09
3.07353e-10
9.16504e-09
2.17179e-10
9.21844e-09
1.4511e-10
9.24642e-09
8.75852e-11
9.25434e-09
4.17644e-11
9.24651e-09
5.38478e-12
-2.28793e-11
9.22656e-09
1.41771e-09
2.14339e-09
2.6997e-09
1.94573e-09
3.80767e-09
1.69142e-09
4.73293e-09
1.42232e-09
5.48623e-09
1.16671e-09
6.08806e-09
9.39469e-10
6.56184e-09
7.45711e-10
6.93012e-09
5.848e-10
7.21282e-09
4.53321e-10
7.4267e-09
3.46916e-10
7.58551e-09
2.6126e-10
7.70037e-09
1.92496e-10
7.78018e-09
1.37371e-10
7.83206e-09
9.32219e-11
7.86174e-09
5.79062e-11
7.8738e-09
2.97114e-11
7.87191e-09
7.2707e-12
-1.02321e-11
7.85926e-09
1.17837e-09
9.65026e-10
2.24706e-09
8.77036e-10
3.17475e-09
7.6373e-10
3.95349e-09
6.43581e-10
4.59102e-09
5.29183e-10
5.10326e-09
4.27224e-10
5.5089e-09
3.40073e-10
5.82617e-09
2.67526e-10
6.07138e-09
2.08115e-10
6.25836e-09
1.59931e-10
6.39856e-09
1.21062e-10
6.50126e-09
8.97933e-11
6.57396e-09
6.46751e-11
6.62267e-09
4.45158e-11
6.65222e-09
2.83543e-11
6.66651e-09
1.54208e-11
6.66868e-09
5.09995e-12
-2.96289e-12
6.66141e-09
9.65026e-10
1.84206e-09
2.60579e-09
3.24937e-09
3.77856e-09
4.20578e-09
4.54585e-09
4.81338e-09
5.0215e-09
5.18143e-09
5.30249e-09
5.39228e-09
5.45696e-09
5.50147e-09
5.52983e-09
5.54525e-09
5.55035e-09
5.54738e-09
2.02534e-10
-2.02534e-10
4.06287e-10
-2.03754e-10
6.11072e-10
-2.04785e-10
8.16692e-10
-2.0562e-10
1.02294e-09
-2.0625e-10
1.22961e-09
-2.0667e-10
1.43648e-09
-2.06872e-10
1.64333e-09
-2.06851e-10
1.84994e-09
-2.06604e-10
2.05607e-09
-2.06127e-10
2.26149e-09
-2.05422e-10
2.46598e-09
-2.04489e-10
2.66931e-09
-2.03334e-10
2.87127e-09
-2.01963e-10
3.07166e-09
-2.00388e-10
3.27028e-09
-1.98623e-10
3.46697e-09
-1.96686e-10
3.66157e-09
-1.94603e-10
3.85398e-09
-1.92405e-10
4.04411e-09
-1.90127e-10
4.23192e-09
-1.87814e-10
4.41743e-09
-1.85513e-10
4.60071e-09
-1.83276e-10
4.78186e-09
-1.81155e-10
4.96106e-09
-1.79201e-10
5.13852e-09
-1.77457e-10
5.31449e-09
-1.75965e-10
5.48924e-09
-1.74755e-10
5.6631e-09
-1.73855e-10
5.83638e-09
-1.73284e-10
6.00944e-09
-1.73061e-10
6.18264e-09
-1.73201e-10
6.35637e-09
-1.73723e-10
6.53101e-09
-1.74648e-10
6.70701e-09
-1.75995e-10
6.8848e-09
-1.77788e-10
7.06484e-09
-1.80044e-10
7.24761e-09
-1.82769e-10
7.43357e-09
-1.85957e-10
7.62315e-09
-1.89579e-10
7.81673e-09
-1.93584e-10
8.01463e-09
-1.97903e-10
8.21709e-09
-2.0246e-10
8.42429e-09
-2.07197e-10
8.63639e-09
-2.12097e-10
8.8536e-09
-2.17213e-10
9.07629e-09
-2.22691e-10
9.30507e-09
-2.28779e-10
9.5409e-09
-2.35825e-10
9.78517e-09
-2.44277e-10
1.00398e-08
-2.5467e-10
1.03075e-08
-2.67635e-10
1.05914e-08
-2.83907e-10
1.08957e-08
-3.04337e-10
1.12256e-08
-3.29891e-10
1.15872e-08
-3.61574e-10
1.19874e-08
-4.0017e-10
1.2433e-08
-4.45655e-10
1.29293e-08
-4.96301e-10
1.34787e-08
-5.49375e-10
1.40995e-08
-6.20806e-10
1.69992e-08
-2.8997e-09
1.61515e-08
8.47693e-10
1.55526e-08
5.98952e-10
1.50954e-08
4.57175e-10
1.4725e-08
3.70361e-10
1.44114e-08
3.13636e-10
1.41373e-08
2.74114e-10
1.38924e-08
2.44889e-10
1.36702e-08
2.2213e-10
1.34666e-08
2.03639e-10
1.32785e-08
1.88111e-10
1.31038e-08
1.74734e-10
1.29408e-08
1.62988e-10
1.27883e-08
1.52523e-10
1.26452e-08
1.43096e-10
1.25106e-08
1.34529e-10
1.23839e-08
1.2669e-10
1.22645e-08
1.19478e-10
1.21516e-08
1.12813e-10
1.2045e-08
1.06629e-10
1.19441e-08
1.00875e-10
1.18486e-08
9.55043e-11
1.17582e-08
9.04815e-11
1.16724e-08
8.57746e-11
1.1591e-08
8.13569e-11
1.15138e-08
7.72046e-11
1.14405e-08
7.32978e-11
1.13709e-08
6.96184e-11
1.13048e-08
6.61508e-11
1.12419e-08
6.28812e-11
1.11821e-08
5.97968e-11
1.11252e-08
5.68867e-11
1.10711e-08
5.41403e-11
1.10195e-08
5.15488e-11
1.09704e-08
4.91034e-11
1.09236e-08
4.67961e-11
1.0879e-08
4.46202e-11
1.08364e-08
4.25684e-11
1.07958e-08
4.06346e-11
1.0757e-08
3.88128e-11
1.07199e-08
3.70975e-11
1.06844e-08
3.54832e-11
1.06504e-08
3.39653e-11
1.06179e-08
3.25385e-11
1.05867e-08
3.11988e-11
1.05567e-08
2.99416e-11
1.0528e-08
2.87628e-11
1.05003e-08
2.76586e-11
1.04737e-08
2.66252e-11
1.0448e-08
2.5659e-11
1.04233e-08
2.47567e-11
1.03994e-08
2.39149e-11
1.03762e-08
2.31304e-11
1.03538e-08
2.24005e-11
1.03321e-08
2.17221e-11
1.0311e-08
2.10925e-11
1.02905e-08
2.05093e-11
1.02705e-08
1.99696e-11
1.02511e-08
1.94715e-11
1.02321e-08
1.90123e-11
1.02135e-08
1.85902e-11
1.01953e-08
1.82028e-11
1.01774e-08
1.78485e-11
1.01599e-08
1.75252e-11
1.01427e-08
1.7231e-11
1.01257e-08
1.69646e-11
1.0109e-08
1.6724e-11
1.00925e-08
1.65079e-11
1.00761e-08
1.6315e-11
1.006e-08
1.61434e-11
1.0044e-08
1.59925e-11
1.00282e-08
1.58605e-11
1.00124e-08
1.57465e-11
9.99675e-09
1.56494e-11
9.98119e-09
1.55683e-11
9.96568e-09
1.55018e-11
9.95023e-09
1.54497e-11
9.93482e-09
1.54105e-11
9.91944e-09
1.53837e-11
9.90407e-09
1.53686e-11
9.88871e-09
1.53645e-11
9.87334e-09
1.5371e-11
9.85795e-09
1.53872e-11
9.84254e-09
1.54129e-11
9.82709e-09
1.54476e-11
9.8116e-09
1.5491e-11
9.79605e-09
1.55428e-11
9.78045e-09
1.56032e-11
9.76478e-09
1.56719e-11
9.74903e-09
1.5749e-11
9.7332e-09
1.5835e-11
9.71727e-09
1.59304e-11
9.70123e-09
1.60358e-11
9.68508e-09
1.61526e-11
9.66879e-09
1.62821e-11
9.65237e-09
1.64265e-11
9.63578e-09
1.65885e-11
9.61901e-09
1.67716e-11
9.60203e-09
1.69806e-11
9.58481e-09
1.72218e-11
9.5673e-09
1.75031e-11
9.54947e-09
1.78354e-11
9.53123e-09
1.82326e-11
9.51252e-09
1.87136e-11
9.49322e-09
1.93033e-11
9.47318e-09
2.00353e-11
9.45223e-09
2.09555e-11
9.4301e-09
2.21272e-11
9.40646e-09
2.36394e-11
9.38084e-09
2.56199e-11
9.35258e-09
2.8258e-11
9.32074e-09
3.18434e-11
9.2839e-09
3.68424e-11
9.23985e-09
4.40515e-11
9.18489e-09
5.49525e-11
9.11225e-09
7.26446e-11
9.00742e-09
1.04825e-10
8.83122e-09
1.76207e-10
4.00804e-10
8.43041e-09
2.29947e-10
-4.32481e-10
4.61327e-10
-4.35133e-10
6.93928e-10
-4.37386e-10
9.27535e-10
-4.39227e-10
1.16192e-09
-4.4064e-10
1.39687e-09
-4.41619e-10
1.63216e-09
-4.4216e-10
1.86758e-09
-4.42265e-10
2.10292e-09
-4.41943e-10
2.33799e-09
-4.41204e-10
2.57263e-09
-4.40062e-10
2.80668e-09
-4.38534e-10
3.03999e-09
-4.36642e-10
3.27243e-09
-4.34408e-10
3.5039e-09
-4.31856e-10
3.73429e-09
-4.29015e-10
3.96352e-09
-4.25911e-10
4.19149e-09
-4.22573e-10
4.41811e-09
-4.19032e-10
4.6433e-09
-4.15315e-10
4.86694e-09
-4.11452e-10
5.0889e-09
-4.0747e-10
5.30902e-09
-4.03396e-10
5.52712e-09
-3.99257e-10
5.743e-09
-3.9508e-10
5.95644e-09
-3.90897e-10
6.16721e-09
-3.86741e-10
6.37511e-09
-3.82649e-10
6.57992e-09
-3.78667e-10
6.78148e-09
-3.74846e-10
6.97966e-09
-3.71244e-10
7.17439e-09
-3.67925e-10
7.36562e-09
-3.64959e-10
7.55339e-09
-3.62419e-10
7.73778e-09
-3.60379e-10
7.9189e-09
-3.58911e-10
8.09694e-09
-3.58086e-10
8.27214e-09
-3.57966e-10
8.44479e-09
-3.58608e-10
8.61527e-09
-3.60062e-10
8.78406e-09
-3.62375e-10
8.95176e-09
-3.65596e-10
9.11908e-09
-3.69789e-10
9.28693e-09
-3.75046e-10
9.45634e-09
-3.81509e-10
9.62852e-09
-3.89384e-10
9.80479e-09
-3.98967e-10
9.98666e-09
-4.1065e-10
1.01758e-08
-4.24945e-10
1.0374e-08
-4.42494e-10
1.05834e-08
-4.64093e-10
1.08065e-08
-4.90725e-10
1.10462e-08
-5.2361e-10
1.13062e-08
-5.64274e-10
1.15909e-08
-6.14621e-10
1.19063e-08
-6.76961e-10
1.22599e-08
-7.53809e-10
1.2661e-08
-8.46782e-10
1.31169e-08
-9.52172e-10
1.36119e-08
-1.04437e-09
1.40089e-08
-1.01785e-09
1.62442e-08
-5.13494e-09
1.5745e-08
1.34685e-09
1.53217e-08
1.02224e-09
1.49555e-08
8.23367e-10
1.46345e-08
6.91405e-10
1.43489e-08
5.9928e-10
1.40914e-08
5.3155e-10
1.3857e-08
4.79316e-10
1.36418e-08
4.37342e-10
1.3443e-08
4.02465e-10
1.32584e-08
3.72708e-10
1.30863e-08
3.46794e-10
1.29254e-08
3.23868e-10
1.27746e-08
3.03336e-10
1.26329e-08
2.84771e-10
1.24996e-08
2.67855e-10
1.23739e-08
2.52348e-10
1.22554e-08
2.3806e-10
1.21433e-08
2.24839e-10
1.20374e-08
2.12563e-10
1.19372e-08
2.01129e-10
1.18422e-08
1.90452e-10
1.17522e-08
1.80462e-10
1.16669e-08
1.71096e-10
1.1586e-08
1.62301e-10
1.15091e-08
1.54033e-10
1.14362e-08
1.46251e-10
1.13669e-08
1.3892e-10
1.1301e-08
1.3201e-10
1.12384e-08
1.25493e-10
1.11789e-08
1.19345e-10
1.11222e-08
1.13543e-10
1.10683e-08
1.08067e-10
1.10169e-08
1.02899e-10
1.0968e-08
9.8022e-11
1.09214e-08
9.34208e-11
1.08769e-08
8.90804e-11
1.08345e-08
8.49881e-11
1.0794e-08
8.11306e-11
1.07553e-08
7.74966e-11
1.07183e-08
7.40746e-11
1.0683e-08
7.08545e-11
1.06491e-08
6.78261e-11
1.06167e-08
6.49799e-11
1.05856e-08
6.2307e-11
1.05557e-08
5.97988e-11
1.0527e-08
5.74472e-11
1.04994e-08
5.52442e-11
1.04729e-08
5.31826e-11
1.04473e-08
5.1255e-11
1.04226e-08
4.94548e-11
1.03987e-08
4.77752e-11
1.03756e-08
4.62105e-11
1.03533e-08
4.47541e-11
1.03316e-08
4.34008e-11
1.03106e-08
4.21449e-11
1.02901e-08
4.09811e-11
1.02702e-08
3.99048e-11
1.02507e-08
3.8911e-11
1.02317e-08
3.79952e-11
1.02132e-08
3.71531e-11
1.0195e-08
3.63806e-11
1.01772e-08
3.56737e-11
1.01597e-08
3.50289e-11
1.01424e-08
3.44425e-11
1.01255e-08
3.3911e-11
1.01088e-08
3.34314e-11
1.00923e-08
3.30006e-11
1.0076e-08
3.26157e-11
1.00599e-08
3.2274e-11
1.00439e-08
3.1973e-11
1.0028e-08
3.171e-11
1.00123e-08
3.1483e-11
9.99666e-09
3.12898e-11
9.9811e-09
3.1128e-11
9.96561e-09
3.09962e-11
9.95017e-09
3.08921e-11
9.93476e-09
3.08145e-11
9.91939e-09
3.07615e-11
9.90402e-09
3.07319e-11
9.88866e-09
3.07242e-11
9.8733e-09
3.07374e-11
9.85791e-09
3.07701e-11
9.8425e-09
3.08219e-11
9.82706e-09
3.08915e-11
9.81157e-09
3.09786e-11
9.79603e-09
3.10825e-11
9.78043e-09
3.12032e-11
9.76476e-09
3.13406e-11
9.74902e-09
3.14949e-11
9.73319e-09
3.1667e-11
9.71726e-09
3.18574e-11
9.70123e-09
3.20682e-11
9.68508e-09
3.23014e-11
9.6688e-09
3.256e-11
9.65238e-09
3.28481e-11
9.6358e-09
3.31711e-11
9.61903e-09
3.35362e-11
9.60206e-09
3.39528e-11
9.58485e-09
3.44332e-11
9.56736e-09
3.49933e-11
9.54954e-09
3.56545e-11
9.53133e-09
3.64448e-11
9.51264e-09
3.7401e-11
9.49337e-09
3.85729e-11
9.47338e-09
4.00269e-11
9.45248e-09
4.18536e-11
9.43043e-09
4.41777e-11
9.40689e-09
4.71749e-11
9.38142e-09
5.10964e-11
9.35336e-09
5.63122e-11
9.32182e-09
6.33873e-11
9.28544e-09
7.32224e-11
9.24215e-09
8.73402e-11
9.18859e-09
1.08518e-10
9.11887e-09
1.42361e-10
9.02188e-09
2.0181e-10
8.87596e-09
3.22135e-10
6.16118e-10
8.66064e-09
2.4138e-10
-6.73861e-10
4.84297e-10
-6.7805e-10
7.285e-10
-6.8159e-10
9.73734e-10
-6.8446e-10
1.21974e-09
-6.86643e-10
1.46625e-09
-6.88128e-10
1.713e-09
-6.88916e-10
1.95975e-09
-6.89015e-10
2.20625e-09
-6.88442e-10
2.45227e-09
-6.8722e-10
2.69758e-09
-6.85377e-10
2.94199e-09
-6.82946e-10
3.18531e-09
-6.79961e-10
3.42737e-09
-6.7646e-10
3.66799e-09
-6.72482e-10
3.90704e-09
-6.68064e-10
4.14437e-09
-6.63241e-10
4.37984e-09
-6.58046e-10
4.61332e-09
-6.52504e-10
4.84463e-09
-6.46634e-10
5.07363e-09
-6.40452e-10
5.30013e-09
-6.33964e-10
5.52391e-09
-6.2718e-10
5.74476e-09
-6.20108e-10
5.96245e-09
-6.12767e-10
6.17674e-09
-6.05188e-10
6.38742e-09
-5.97417e-10
6.59429e-09
-5.8952e-10
6.7972e-09
-5.81578e-10
6.99605e-09
-5.73692e-10
7.19078e-09
-5.65974e-10
7.3814e-09
-5.58547e-10
7.56798e-09
-5.51537e-10
7.75063e-09
-5.45075e-10
7.92954e-09
-5.39289e-10
8.10494e-09
-5.34307e-10
8.2771e-09
-5.3025e-10
8.44637e-09
-5.27236e-10
8.61315e-09
-5.25382e-10
8.77789e-09
-5.24805e-10
8.94114e-09
-5.25628e-10
9.10353e-09
-5.27986e-10
9.26578e-09
-5.32039e-10
9.42872e-09
-5.37981e-10
9.59327e-09
-5.46057e-10
9.76047e-09
-5.56582e-10
9.93145e-09
-5.69953e-10
1.01075e-08
-5.86675e-10
1.02899e-08
-6.07381e-10
1.04803e-08
-6.32861e-10
1.06803e-08
-6.64102e-10
1.08919e-08
-7.0235e-10
1.11175e-08
-7.49199e-10
1.136e-08
-8.06734e-10
1.16231e-08
-8.77781e-10
1.19125e-08
-9.66372e-10
1.22375e-08
-1.07876e-09
1.26166e-08
-1.2259e-09
1.30949e-08
-1.43044e-09
1.37975e-08
-1.74705e-09
1.50976e-08
-2.3179e-09
1.48497e-08
-4.887e-09
1.52255e-08
9.7095e-10
1.49958e-08
1.25201e-09
1.47415e-08
1.07763e-09
1.44865e-08
9.4641e-10
1.42411e-08
8.44739e-10
1.40091e-08
7.6355e-10
1.37915e-08
6.96912e-10
1.35879e-08
6.40899e-10
1.33975e-08
5.92856e-10
1.32193e-08
5.50954e-10
1.30522e-08
5.13903e-10
1.28953e-08
4.80773e-10
1.27477e-08
4.5088e-10
1.26088e-08
4.23705e-10
1.24778e-08
3.98847e-10
1.23541e-08
3.75991e-10
1.22373e-08
3.54884e-10
1.21268e-08
3.35318e-10
1.20223e-08
3.17124e-10
1.19232e-08
3.00158e-10
1.18294e-08
2.84301e-10
1.17404e-08
2.6945e-10
1.1656e-08
2.55517e-10
1.15759e-08
2.42426e-10
1.14998e-08
2.30113e-10
1.14275e-08
2.18518e-10
1.13588e-08
2.07592e-10
1.12936e-08
1.97289e-10
1.12315e-08
1.87569e-10
1.11724e-08
1.78397e-10
1.11162e-08
1.69739e-10
1.10627e-08
1.61567e-10
1.10118e-08
1.53853e-10
1.09632e-08
1.46573e-10
1.0917e-08
1.39703e-10
1.08728e-08
1.33222e-10
1.08307e-08
1.27111e-10
1.07905e-08
1.2135e-10
1.0752e-08
1.15923e-10
1.07153e-08
1.10812e-10
1.06802e-08
1.06002e-10
1.06465e-08
1.01479e-10
1.06143e-08
9.72273e-11
1.05833e-08
9.32346e-11
1.05536e-08
8.94879e-11
1.05251e-08
8.59751e-11
1.04977e-08
8.26844e-11
1.04712e-08
7.96045e-11
1.04458e-08
7.67252e-11
1.04212e-08
7.4036e-11
1.03974e-08
7.15272e-11
1.03745e-08
6.91896e-11
1.03522e-08
6.70144e-11
1.03306e-08
6.49928e-11
1.03096e-08
6.31168e-11
1.02892e-08
6.13788e-11
1.02694e-08
5.97712e-11
1.025e-08
5.82868e-11
1.02311e-08
5.69192e-11
1.02126e-08
5.56617e-11
1.01944e-08
5.4508e-11
1.01767e-08
5.34528e-11
1.01592e-08
5.24899e-11
1.0142e-08
5.16144e-11
1.01251e-08
5.08212e-11
1.01084e-08
5.01054e-11
1.0092e-08
4.94625e-11
1.00757e-08
4.88884e-11
1.00596e-08
4.83786e-11
1.00437e-08
4.79297e-11
1.00278e-08
4.75379e-11
1.00121e-08
4.71996e-11
9.99648e-09
4.69116e-11
9.98094e-09
4.66711e-11
9.96546e-09
4.64749e-11
9.95003e-09
4.63207e-11
9.93464e-09
4.62056e-11
9.91928e-09
4.61275e-11
9.90392e-09
4.60842e-11
9.88857e-09
4.60739e-11
9.87322e-09
4.60946e-11
9.85784e-09
4.61447e-11
9.84244e-09
4.6223e-11
9.82701e-09
4.63282e-11
9.81152e-09
4.64592e-11
9.79599e-09
4.66157e-11
9.7804e-09
4.6797e-11
9.76474e-09
4.70033e-11
9.749e-09
4.72349e-11
9.73317e-09
4.74926e-11
9.71725e-09
4.77781e-11
9.70122e-09
4.80937e-11
9.68508e-09
4.84426e-11
9.66881e-09
4.88293e-11
9.6524e-09
4.92599e-11
9.63583e-09
4.97423e-11
9.61908e-09
5.02871e-11
9.60212e-09
5.09083e-11
9.58493e-09
5.16239e-11
9.56747e-09
5.24579e-11
9.54968e-09
5.34416e-11
9.53151e-09
5.46163e-11
9.51287e-09
5.60368e-11
9.49367e-09
5.77759e-11
9.47377e-09
5.99318e-11
9.45298e-09
6.26378e-11
9.43108e-09
6.60769e-11
9.40775e-09
7.05059e-11
9.38256e-09
7.62905e-11
9.3549e-09
8.39671e-11
9.32394e-09
9.43465e-11
9.28846e-09
1.08708e-10
9.24663e-09
1.29172e-10
9.19564e-09
1.59501e-10
9.13108e-09
2.06919e-10
9.04622e-09
2.86679e-10
8.93436e-09
4.33993e-10
7.31416e-10
8.81906e-09
2.50399e-10
-9.2426e-10
5.0243e-10
-9.30081e-10
7.55798e-10
-9.34958e-10
1.0102e-09
-9.38859e-10
1.26531e-09
-9.41759e-10
1.52083e-09
-9.43645e-10
1.77643e-09
-9.44513e-10
2.03178e-09
-9.44372e-10
2.28658e-09
-9.43243e-10
2.54052e-09
-9.41153e-10
2.79328e-09
-9.38139e-10
3.04457e-09
-9.34241e-10
3.29412e-09
-9.29507e-10
3.54165e-09
-9.23987e-10
3.7869e-09
-9.17732e-10
4.02963e-09
-9.10794e-10
4.26961e-09
-9.03224e-10
4.50663e-09
-8.9507e-10
4.74051e-09
-8.86376e-10
4.97106e-09
-8.77184e-10
5.19813e-09
-8.67528e-10
5.42161e-09
-8.57443e-10
5.6414e-09
-8.46965e-10
5.85742e-09
-8.36132e-10
6.06964e-09
-8.2499e-10
6.27805e-09
-8.13594e-10
6.48265e-09
-8.02015e-10
6.68346e-09
-7.90337e-10
6.88055e-09
-7.7866e-10
7.07395e-09
-7.67099e-10
7.26376e-09
-7.55781e-10
7.45006e-09
-7.44846e-10
7.63296e-09
-7.34441e-10
7.81261e-09
-7.24718e-10
7.98915e-09
-7.15835e-10
8.16279e-09
-7.07948e-10
8.33376e-09
-7.01218e-10
8.50233e-09
-6.95805e-10
8.66882e-09
-6.91875e-10
8.83362e-09
-6.89596e-10
8.99714e-09
-6.89154e-10
9.1599e-09
-6.90747e-10
9.32247e-09
-6.94605e-10
9.48548e-09
-7.00994e-10
9.64966e-09
-7.10234e-10
9.81579e-09
-7.22711e-10
9.98473e-09
-7.38898e-10
1.01574e-08
-7.59375e-10
1.03349e-08
-7.84856e-10
1.05183e-08
-8.16223e-10
1.07087e-08
-8.54572e-10
1.09077e-08
-9.01277e-10
1.11166e-08
-9.58087e-10
1.13371e-08
-1.02726e-09
1.15711e-08
-1.11179e-09
1.18204e-08
-1.21573e-09
1.20864e-08
-1.34476e-09
1.23676e-08
-1.507e-09
1.26509e-08
-1.71378e-09
1.28818e-08
-1.97797e-09
1.28596e-08
-2.29565e-09
1.05319e-08
-2.55939e-09
1.48474e-08
-3.34455e-09
1.47064e-08
1.39303e-09
1.45258e-08
1.25827e-09
1.43212e-08
1.151e-09
1.41105e-08
1.05545e-09
1.39031e-08
9.70953e-10
1.37034e-08
8.96586e-10
1.35133e-08
8.31019e-10
1.33332e-08
7.72896e-10
1.31632e-08
7.2102e-10
1.30027e-08
6.74399e-10
1.28512e-08
6.32227e-10
1.27083e-08
5.93852e-10
1.25732e-08
5.5875e-10
1.24456e-08
5.2649e-10
1.23248e-08
4.96721e-10
1.22106e-08
4.69152e-10
1.21024e-08
4.43538e-10
1.19998e-08
4.19674e-10
1.19026e-08
3.97388e-10
1.18103e-08
3.7653e-10
1.17228e-08
3.56973e-10
1.16397e-08
3.38608e-10
1.15608e-08
3.21339e-10
1.14858e-08
3.05084e-10
1.14146e-08
2.89768e-10
1.13469e-08
2.75327e-10
1.12824e-08
2.61705e-10
1.12212e-08
2.48848e-10
1.11629e-08
2.36711e-10
1.11073e-08
2.25252e-10
1.10545e-08
2.14433e-10
1.10041e-08
2.04218e-10
1.09561e-08
1.94575e-10
1.09103e-08
1.85475e-10
1.08667e-08
1.76889e-10
1.0825e-08
1.68791e-10
1.07852e-08
1.61157e-10
1.07471e-08
1.53964e-10
1.07108e-08
1.47191e-10
1.06759e-08
1.40816e-10
1.06426e-08
1.3482e-10
1.06106e-08
1.29185e-10
1.058e-08
1.23892e-10
1.05506e-08
1.18926e-10
1.05223e-08
1.14269e-10
1.0495e-08
1.09907e-10
1.04688e-08
1.05824e-10
1.04435e-08
1.02007e-10
1.04191e-08
9.84425e-11
1.03955e-08
9.5117e-11
1.03727e-08
9.20183e-11
1.03506e-08
8.91349e-11
1.03291e-08
8.64554e-11
1.03083e-08
8.39689e-11
1.0288e-08
8.16653e-11
1.02682e-08
7.95347e-11
1.02489e-08
7.75677e-11
1.02301e-08
7.57552e-11
1.02117e-08
7.40891e-11
1.01936e-08
7.25607e-11
1.01759e-08
7.11625e-11
1.01585e-08
6.98872e-11
1.01414e-08
6.87276e-11
1.01246e-08
6.76773e-11
1.01079e-08
6.67296e-11
1.00915e-08
6.58787e-11
1.00753e-08
6.51189e-11
1.00592e-08
6.44447e-11
1.00433e-08
6.3851e-11
1.00275e-08
6.3333e-11
1.00118e-08
6.28862e-11
9.99622e-09
6.25061e-11
9.9807e-09
6.21891e-11
9.96524e-09
6.19308e-11
9.94983e-09