/*--------------------------------*- C++ -*----------------------------------*\
  =========                 |
  \\      /  F ield         | OpenFOAM: The Open Source CFD Toolbox
   \\    /   O peration     | Website:  https://openfoam.org
    \\  /    A nd           | Version:  10
     \\/     M anipulation  |
\*---------------------------------------------------------------------------*/
FoamFile
{
    format      ascii;
    class       volScalarField;
    location    "2.54";
    object      Sb;
}
// * * * * * * * * * * * * * * * * * * * * * * * * * * * * * * * * * * * * * //

dimensions      [0 0 0 0 0 0 0];

internalField   nonuniform List<scalar> 
12225
(
0.878614
0.87765
0.876448
0.875132
0.873788
0.872471
0.871216
0.870043
0.868966
0.867995
0.867138
0.866405
0.865815
0.865394
0.865199
0.865354
0.866194
0.868746
0.890093
0.888876
0.887372
0.885743
0.884094
0.882493
0.880979
0.879575
0.878294
0.877143
0.876132
0.87527
0.874573
0.874071
0.873817
0.873922
0.874617
0.876301
0.897294
0.895865
0.894117
0.892237
0.890351
0.888531
0.88682
0.885241
0.883806
0.882522
0.881395
0.880433
0.87965
0.879071
0.878743
0.878745
0.879204
0.880239
0.903006
0.901372
0.899391
0.897278
0.895171
0.893151
0.891263
0.889528
0.887955
0.886551
0.885319
0.884263
0.883396
0.882735
0.882313
0.882179
0.882386
0.882933
0.908001
0.906157
0.903938
0.901591
0.899267
0.897052
0.894991
0.893104
0.8914
0.88988
0.888544
0.887394
0.886437
0.885684
0.885153
0.884865
0.884826
0.884993
0.912615
0.910544
0.908076
0.905485
0.902938
0.900525
0.89829
0.896251
0.894414
0.892775
0.891334
0.890086
0.889032
0.888177
0.887523
0.887072
0.886805
0.886665
0.91703
0.914709
0.91197
0.909121
0.90634
0.90372
0.901305
0.89911
0.897135
0.895375
0.893823
0.89247
0.891312
0.890344
0.889559
0.888943
0.888466
0.888072
0.921364
0.91876
0.915725
0.912596
0.909564
0.906726
0.904122
0.901763
0.899645
0.897757
0.896087
0.894623
0.893352
0.892263
0.891341
0.890563
0.889894
0.889285
0.925704
0.922776
0.919408
0.915972
0.91267
0.909598
0.906793
0.904261
0.901991
0.899968
0.898173
0.896589
0.895198
0.893982
0.89292
0.891985
0.891141
0.890347
0.930121
0.926814
0.92307
0.919293
0.915695
0.912371
0.909351
0.906635
0.904204
0.902037
0.900109
0.898399
0.896881
0.895534
0.894331
0.893244
0.89224
0.891285
0.934683
0.930925
0.926747
0.922588
0.918664
0.915066
0.911816
0.908903
0.906301
0.903982
0.901914
0.90007
0.898421
0.896939
0.895597
0.894366
0.893214
0.892114
0.939459
0.935152
0.930469
0.925877
0.921592
0.917695
0.914196
0.911074
0.908292
0.905812
0.903597
0.901614
0.899828
0.898211
0.896732
0.895362
0.894073
0.892842
0.943764
0.938876
0.933681
0.928664
0.924034
0.919857
0.91613
0.912816
0.90987
0.907246
0.904899
0.902791
0.900887
0.899153
0.89756
0.896078
0.894683
0.893353
0.94898
0.943281
0.937404
0.931838
0.926774
0.922254
0.918249
0.914707
0.911567
0.908773
0.906274
0.904025
0.901987
0.900125
0.898408
0.896808
0.895301
0.893866
0.955389
0.948516
0.941705
0.935418
0.929803
0.924859
0.920522
0.91671
0.913346
0.910358
0.907688
0.905284
0.903101
0.901101
0.899251
0.897524
0.895894
0.894342
0.96348
0.954835
0.946686
0.939417
0.933091
0.927624
0.922893
0.918776
0.915166
0.911974
0.909122
0.906549
0.904204
0.902042
0.900032
0.898145
0.89636
0.894662
0.97479
0.963471
0.953271
0.944599
0.937333
0.931204
0.925969
0.92144
0.917474
0.913952
0.91076
0.907851
0.905182
0.902717
0.900428
0.898291
0.896286
0.894399
0.959972
0.95213
0.94476
0.93808
0.932131
0.926867
0.922207
0.918063
0.914354
0.911021
0.90803
0.905299
0.902757
0.900384
0.898165
0.896085
0.89413
0.892291
0.945362
0.940032
0.934614
0.929447
0.924657
0.920273
0.916281
0.912647
0.909332
0.906297
0.903507
0.900949
0.898616
0.89645
0.894422
0.892519
0.890729
0.889042
0.934847
0.930951
0.926722
0.92251
0.918476
0.914691
0.911174
0.90792
0.904911
0.902126
0.899543
0.897142
0.894902
0.89284
0.890912
0.889098
0.887388
0.885774
0.925821
0.922837
0.919441
0.915941
0.912501
0.909206
0.906093
0.903174
0.900445
0.897896
0.895514
0.893286
0.891197
0.889237
0.88742
0.885709
0.884095
0.88257
0.917845
0.915472
0.91268
0.909724
0.906757
0.903867
0.901099
0.898473
0.895995
0.893663
0.89147
0.889407
0.887465
0.885635
0.883913
0.882304
0.880784
0.879347
0.910604
0.908665
0.906324
0.903794
0.901211
0.898659
0.896187
0.893819
0.891567
0.889433
0.887415
0.885507
0.883704
0.882
0.880388
0.878875
0.877443
0.876087
0.903859
0.902241
0.90025
0.898062
0.895797
0.893533
0.891318
0.889179
0.88713
0.885177
0.88332
0.881558
0.879886
0.878301
0.876797
0.875371
0.874028
0.872754
0.8974
0.89603
0.89432
0.892414
0.890418
0.888403
0.886415
0.884482
0.882618
0.880832
0.879126
0.8775
0.875953
0.874481
0.873081
0.871749
0.870489
0.869292
0.891017
0.889848
0.88837
0.886703
0.884941
0.883147
0.881363
0.879617
0.877925
0.876295
0.874732
0.873236
0.871808
0.870445
0.869145
0.867905
0.866729
0.865609
0.884449
0.88345
0.882171
0.880715
0.879161
0.877568
0.875973
0.874403
0.872873
0.871393
0.869967
0.868598
0.867286
0.866031
0.86483
0.863682
0.862586
0.861545
0.877284
0.876434
0.875334
0.87407
0.872712
0.871309
0.869896
0.868497
0.867127
0.865795
0.864507
0.863266
0.862072
0.860926
0.859827
0.858773
0.857764
0.856802
0.868628
0.867918
0.866991
0.865917
0.864753
0.863543
0.862317
0.861095
0.859893
0.858719
0.857578
0.856474
0.855409
0.854383
0.853395
0.852446
0.851534
0.850662
0.855128
0.854569
0.853829
0.852963
0.852018
0.851026
0.850012
0.848995
0.847987
0.846996
0.846027
0.845084
0.844169
0.843282
0.842424
0.841595
0.840796
0.840029
0.768366
0.768375
0.768379
0.768377
0.768371
0.768358
0.76834
0.768318
0.768291
0.768261
0.768229
0.768196
0.768164
0.768134
0.768107
0.768085
0.76807
0.768062
0.768065
0.768081
0.768111
0.768159
0.768226
0.768318
0.768437
0.768586
0.768772
0.768997
0.769269
0.769592
0.769974
0.770421
0.77094
0.771542
0.772233
0.773022
0.773917
0.774923
0.776041
0.777267
0.77859
0.779991
0.781442
0.78291
0.784355
0.785739
0.787027
0.788192
0.789215
0.790082
0.790787
0.791324
0.79168
0.791834
0.791735
0.791283
0.790259
0.78815
0.783493
0.77027
0.675242
0.0658172
3.61426e-06
1.1e-06
1.1e-06
1.1e-06
1.1e-06
1.1e-06
1.1e-06
1.1e-06
1.1e-06
1.1e-06
1.1e-06
1.1e-06
1.1e-06
1.1e-06
1.1e-06
1.1e-06
1.1e-06
1.1e-06
1.1e-06
1.1e-06
1.1e-06
1.1e-06
1.1e-06
1.1e-06
1.1e-06
1.1e-06
1.1e-06
1.1e-06
1.1e-06
1.1e-06
1.1e-06
1.1e-06
1.1e-06
1.1e-06
1.1e-06
1.1e-06
1.1e-06
1.1e-06
1.1e-06
1.1e-06
1.1e-06
1.1e-06
1.1e-06
1.1e-06
1.1e-06
1.1e-06
1.1e-06
1.1e-06
1.1e-06
1.1e-06
1.1e-06
1.1e-06
1.1e-06
1.1e-06
1.1e-06
1.1e-06
1.1e-06
1.1e-06
1.1e-06
1.1e-06
1.1e-06
1.1e-06
1.1e-06
1.1e-06
1.1e-06
1.1e-06
1.1e-06
1.1e-06
1.1e-06
1.1e-06
1.1e-06
1.1e-06
1.1e-06
1.1e-06
1.1e-06
1.1e-06
1.1e-06
1.1e-06
1.1e-06
1.1e-06
1.1e-06
1.1e-06
1.1e-06
1.1e-06
1.1e-06
1.1e-06
1.1e-06
1.1e-06
1.1e-06
1.1e-06
1.1e-06
1.1e-06
1.1e-06
1.1e-06
1.1e-06
1.1e-06
1.1e-06
1.1e-06
1.1e-06
1.1e-06
1.1e-06
1.1e-06
1.1e-06
1.1e-06
1.1e-06
1.1e-06
1.1e-06
1.1e-06
1.1e-06
1.1e-06
1.1e-06
1.1e-06
1.1e-06
1.1e-06
1.1e-06
1.1e-06
1.1e-06
1.1e-06
0.808889
0.808921
0.808954
0.808988
0.809021
0.809056
0.809093
0.809138
0.809196
0.809271
0.80937
0.809499
0.809661
0.809862
0.810106
0.810397
0.810736
0.811124
0.811559
0.812039
0.812556
0.813101
0.813662
0.814225
0.814774
0.815295
0.81577
0.816188
0.816536
0.816806
0.816991
0.81709
0.8171
0.817025
0.816868
0.816633
0.816324
0.815949
0.815512
0.815019
0.814476
0.813887
0.813257
0.812592
0.811895
0.811169
0.810419
0.809644
0.808844
0.808015
0.807151
0.806238
0.805252
0.804156
0.802886
0.801333
0.799286
0.796297
0.791213
0.779896
0.728654
0.169274
3.30157e-05
1.1e-06
1.1e-06
1.1e-06
1.1e-06
1.1e-06
1.1e-06
1.1e-06
1.1e-06
1.1e-06
1.1e-06
1.1e-06
1.1e-06
1.1e-06
1.1e-06
1.1e-06
1.1e-06
1.1e-06
1.1e-06
1.1e-06
1.1e-06
1.1e-06
1.1e-06
1.1e-06
1.1e-06
1.1e-06
1.1e-06
1.1e-06
1.1e-06
1.1e-06
1.1e-06
1.1e-06
1.1e-06
1.1e-06
1.1e-06
1.1e-06
1.1e-06
1.1e-06
1.1e-06
1.1e-06
1.1e-06
1.1e-06
1.1e-06
1.1e-06
1.1e-06
1.1e-06
1.1e-06
1.1e-06
1.1e-06
1.1e-06
1.1e-06
1.1e-06
1.1e-06
1.1e-06
1.1e-06
1.1e-06
1.1e-06
1.1e-06
1.1e-06
1.1e-06
1.1e-06
1.1e-06
1.1e-06
1.1e-06
1.1e-06
1.1e-06
1.1e-06
1.1e-06
1.1e-06
1.1e-06
1.1e-06
1.1e-06
1.1e-06
1.1e-06
1.1e-06
1.1e-06
1.1e-06
1.1e-06
1.1e-06
1.1e-06
1.1e-06
1.1e-06
1.1e-06
1.1e-06
1.1e-06
1.1e-06
1.1e-06
1.1e-06
1.1e-06
1.1e-06
1.1e-06
1.1e-06
1.1e-06
1.1e-06
1.1e-06
1.1e-06
1.1e-06
1.1e-06
1.1e-06
1.1e-06
1.1e-06
1.1e-06
1.1e-06
1.1e-06
1.1e-06
1.1e-06
1.1e-06
1.1e-06
1.1e-06
1.1e-06
1.1e-06
1.1e-06
1.1e-06
1.1e-06
1.1e-06
1.1e-06
1.1e-06
1.1e-06
0.819991
0.820041
0.820085
0.820124
0.820158
0.820186
0.82021
0.820235
0.820264
0.820301
0.820353
0.820424
0.820517
0.820637
0.820787
0.820969
0.821185
0.821435
0.821717
0.822027
0.822358
0.8227
0.823044
0.823374
0.823676
0.823937
0.824143
0.824283
0.824348
0.824332
0.824233
0.824049
0.823783
0.823438
0.82302
0.822534
0.821987
0.821385
0.820737
0.820047
0.819322
0.818568
0.81779
0.816992
0.816178
0.815351
0.814511
0.813658
0.812789
0.811899
0.810976
0.810005
0.808961
0.807806
0.80648
0.804883
0.802835
0.799973
0.795426
0.786451
0.757303
0.356543
0.000394084
1.1e-06
1.1e-06
1.1e-06
1.1e-06
1.1e-06
1.1e-06
1.1e-06
1.1e-06
1.1e-06
1.1e-06
1.1e-06
1.1e-06
1.1e-06
1.1e-06
1.1e-06
1.1e-06
1.1e-06
1.1e-06
1.1e-06
1.1e-06
1.1e-06
1.1e-06
1.1e-06
1.1e-06
1.1e-06
1.1e-06
1.1e-06
1.1e-06
1.1e-06
1.1e-06
1.1e-06
1.1e-06
1.1e-06
1.1e-06
1.1e-06
1.1e-06
1.1e-06
1.1e-06
1.1e-06
1.1e-06
1.1e-06
1.1e-06
1.1e-06
1.1e-06
1.1e-06
1.1e-06
1.1e-06
1.1e-06
1.1e-06
1.1e-06
1.1e-06
1.1e-06
1.1e-06
1.1e-06
1.1e-06
1.1e-06
1.1e-06
1.1e-06
1.1e-06
1.1e-06
1.1e-06
1.1e-06
1.1e-06
1.1e-06
1.1e-06
1.1e-06
1.1e-06
1.1e-06
1.1e-06
1.1e-06
1.1e-06
1.1e-06
1.1e-06
1.1e-06
1.1e-06
1.1e-06
1.1e-06
1.1e-06
1.1e-06
1.1e-06
1.1e-06
1.1e-06
1.1e-06
1.1e-06
1.1e-06
1.1e-06
1.1e-06
1.1e-06
1.1e-06
1.1e-06
1.1e-06
1.1e-06
1.1e-06
1.1e-06
1.1e-06
1.1e-06
1.1e-06
1.1e-06
1.1e-06
1.1e-06
1.1e-06
1.1e-06
1.1e-06
1.1e-06
1.1e-06
1.1e-06
1.1e-06
1.1e-06
1.1e-06
1.1e-06
1.1e-06
1.1e-06
1.1e-06
1.1e-06
1.1e-06
1.1e-06
1.1e-06
0.826546
0.826622
0.826688
0.826743
0.826787
0.82682
0.826841
0.826853
0.826856
0.826854
0.826847
0.826839
0.826831
0.826825
0.826822
0.826821
0.826825
0.826832
0.82684
0.826849
0.826854
0.826853
0.826841
0.826813
0.826766
0.826692
0.826589
0.826452
0.826276
0.82606
0.8258
0.825497
0.825149
0.824757
0.824323
0.823849
0.823337
0.822791
0.822212
0.821606
0.820974
0.82032
0.819645
0.818953
0.818244
0.817517
0.816772
0.816006
0.815215
0.814389
0.813518
0.812587
0.811572
0.810438
0.809132
0.807571
0.805608
0.802958
0.798995
0.791975
0.774518
0.629069
0.0187137
1.1286e-06
1.1e-06
1.1e-06
1.1e-06
1.1e-06
1.1e-06
1.1e-06
1.1e-06
1.1e-06
1.1e-06
1.1e-06
1.1e-06
1.1e-06
1.1e-06
1.1e-06
1.1e-06
1.1e-06
1.1e-06
1.1e-06
1.1e-06
1.1e-06
1.1e-06
1.1e-06
1.1e-06
1.1e-06
1.1e-06
1.1e-06
1.1e-06
1.1e-06
1.1e-06
1.1e-06
1.1e-06
1.1e-06
1.1e-06
1.1e-06
1.1e-06
1.1e-06
1.1e-06
1.1e-06
1.1e-06
1.1e-06
1.1e-06
1.1e-06
1.1e-06
1.1e-06
1.1e-06
1.1e-06
1.1e-06
1.1e-06
1.1e-06
1.1e-06
1.1e-06
1.1e-06
1.1e-06
1.1e-06
1.1e-06
1.1e-06
1.1e-06
1.1e-06
1.1e-06
1.1e-06
1.1e-06
1.1e-06
1.1e-06
1.1e-06
1.1e-06
1.1e-06
1.1e-06
1.1e-06
1.1e-06
1.1e-06
1.1e-06
1.1e-06
1.1e-06
1.1e-06
1.1e-06
1.1e-06
1.1e-06
1.1e-06
1.1e-06
1.1e-06
1.1e-06
1.1e-06
1.1e-06
1.1e-06
1.1e-06
1.1e-06
1.1e-06
1.1e-06
1.1e-06
1.1e-06
1.1e-06
1.1e-06
1.1e-06
1.1e-06
1.1e-06
1.1e-06
1.1e-06
1.1e-06
1.1e-06
1.1e-06
1.1e-06
1.1e-06
1.1e-06
1.1e-06
1.1e-06
1.1e-06
1.1e-06
1.1e-06
1.1e-06
1.1e-06
1.1e-06
1.1e-06
1.1e-06
1.1e-06
1.1e-06
1.1e-06
0.831414
0.831522
0.831614
0.831691
0.831752
0.831795
0.831822
0.831832
0.831826
0.831804
0.831768
0.831718
0.831656
0.831583
0.831498
0.831402
0.831296
0.831179
0.831052
0.830912
0.83076
0.830594
0.830412
0.830214
0.829996
0.829759
0.829499
0.829215
0.828906
0.82857
0.828207
0.827817
0.827398
0.826951
0.826478
0.825977
0.825452
0.824903
0.824331
0.823738
0.823125
0.822494
0.821844
0.821177
0.820491
0.819786
0.819059
0.818305
0.81752
0.816695
0.815821
0.814881
0.813856
0.812715
0.811415
0.809884
0.808005
0.805561
0.802104
0.796506
0.784867
0.737246
0.17054
3.52381e-05
1.1e-06
1.1e-06
1.1e-06
1.1e-06
1.1e-06
1.1e-06
1.1e-06
1.1e-06
1.1e-06
1.1e-06
1.1e-06
1.1e-06
1.1e-06
1.1e-06
1.1e-06
1.1e-06
1.1e-06
1.1e-06
1.1e-06
1.1e-06
1.1e-06
1.1e-06
1.1e-06
1.1e-06
1.1e-06
1.1e-06
1.1e-06
1.1e-06
1.1e-06
1.1e-06
1.1e-06
1.1e-06
1.1e-06
1.1e-06
1.1e-06
1.1e-06
1.1e-06
1.1e-06
1.1e-06
1.1e-06
1.1e-06
1.1e-06
1.1e-06
1.1e-06
1.1e-06
1.1e-06
1.1e-06
1.1e-06
1.1e-06
1.1e-06
1.1e-06
1.1e-06
1.1e-06
1.1e-06
1.1e-06
1.1e-06
1.1e-06
1.1e-06
1.1e-06
1.1e-06
1.1e-06
1.1e-06
1.1e-06
1.1e-06
1.1e-06
1.1e-06
1.1e-06
1.1e-06
1.1e-06
1.1e-06
1.1e-06
1.1e-06
1.1e-06
1.1e-06
1.1e-06
1.1e-06
1.1e-06
1.1e-06
1.1e-06
1.1e-06
1.1e-06
1.1e-06
1.1e-06
1.1e-06
1.1e-06
1.1e-06
1.1e-06
1.1e-06
1.1e-06
1.1e-06
1.1e-06
1.1e-06
1.1e-06
1.1e-06
1.1e-06
1.1e-06
1.1e-06
1.1e-06
1.1e-06
1.1e-06
1.1e-06
1.1e-06
1.1e-06
1.1e-06
1.1e-06
1.1e-06
1.1e-06
1.1e-06
1.1e-06
1.1e-06
1.1e-06
1.1e-06
1.1e-06
1.1e-06
1.1e-06
1.1e-06
0.835425
0.835567
0.835689
0.83579
0.835871
0.83593
0.835967
0.835982
0.835974
0.835944
0.835892
0.835819
0.835725
0.835612
0.835478
0.835325
0.835154
0.834964
0.834755
0.834529
0.834284
0.834021
0.833739
0.833439
0.83312
0.832781
0.832423
0.832044
0.831646
0.831227
0.830787
0.830326
0.829845
0.829344
0.828823
0.828283
0.827724
0.827146
0.826552
0.82594
0.825311
0.824666
0.824004
0.823324
0.822625
0.821906
0.821162
0.820391
0.819586
0.81874
0.817843
0.816883
0.815841
0.814691
0.813396
0.811898
0.810106
0.807853
0.804818
0.80027
0.792075
0.770162
0.515756
0.00307744
1.1e-06
1.1e-06
1.1e-06
1.1e-06
1.1e-06
1.1e-06
1.1e-06
1.1e-06
1.1e-06
1.1e-06
1.1e-06
1.1e-06
1.1e-06
1.1e-06
1.1e-06
1.1e-06
1.1e-06
1.1e-06
1.1e-06
1.1e-06
1.1e-06
1.1e-06
1.1e-06
1.1e-06
1.1e-06
1.1e-06
1.1e-06
1.1e-06
1.1e-06
1.1e-06
1.1e-06
1.1e-06
1.1e-06
1.1e-06
1.1e-06
1.1e-06
1.1e-06
1.1e-06
1.1e-06
1.1e-06
1.1e-06
1.1e-06
1.1e-06
1.1e-06
1.1e-06
1.1e-06
1.1e-06
1.1e-06
1.1e-06
1.1e-06
1.1e-06
1.1e-06
1.1e-06
1.1e-06
1.1e-06
1.1e-06
1.1e-06
1.1e-06
1.1e-06
1.1e-06
1.1e-06
1.1e-06
1.1e-06
1.1e-06
1.1e-06
1.1e-06
1.1e-06
1.1e-06
1.1e-06
1.1e-06
1.1e-06
1.1e-06
1.1e-06
1.1e-06
1.1e-06
1.1e-06
1.1e-06
1.1e-06
1.1e-06
1.1e-06
1.1e-06
1.1e-06
1.1e-06
1.1e-06
1.1e-06
1.1e-06
1.1e-06
1.1e-06
1.1e-06
1.1e-06
1.1e-06
1.1e-06
1.1e-06
1.1e-06
1.1e-06
1.1e-06
1.1e-06
1.1e-06
1.1e-06
1.1e-06
1.1e-06
1.1e-06
1.1e-06
1.1e-06
1.1e-06
1.1e-06
1.1e-06
1.1e-06
1.1e-06
1.1e-06
1.1e-06
1.1e-06
1.1e-06
1.1e-06
1.1e-06
1.1e-06
0.838929
0.839106
0.83926
0.839389
0.839492
0.839569
0.839619
0.839641
0.839635
0.839601
0.83954
0.839452
0.839337
0.839195
0.839027
0.838835
0.838617
0.838376
0.838111
0.837824
0.837515
0.837184
0.836832
0.83646
0.836068
0.835656
0.835225
0.834776
0.834308
0.833822
0.833318
0.832797
0.832259
0.831704
0.831133
0.830547
0.829945
0.829328
0.828696
0.82805
0.827389
0.826712
0.826019
0.82531
0.824581
0.823832
0.823059
0.822258
0.821424
0.82055
0.819627
0.818644
0.817585
0.816429
0.815143
0.813682
0.811972
0.809886
0.807194
0.803407
0.797281
0.784367
0.726151
0.121664
1.53702e-05
1.1e-06
1.1e-06
1.1e-06
1.1e-06
1.1e-06
1.1e-06
1.1e-06
1.1e-06
1.1e-06
1.1e-06
1.1e-06
1.1e-06
1.1e-06
1.1e-06
1.1e-06
1.1e-06
1.1e-06
1.1e-06
1.1e-06
1.1e-06
1.1e-06
1.1e-06
1.1e-06
1.1e-06
1.1e-06
1.1e-06
1.1e-06
1.1e-06
1.1e-06
1.1e-06
1.1e-06
1.1e-06
1.1e-06
1.1e-06
1.1e-06
1.1e-06
1.1e-06
1.1e-06
1.1e-06
1.1e-06
1.1e-06
1.1e-06
1.1e-06
1.1e-06
1.1e-06
1.1e-06
1.1e-06
1.1e-06
1.1e-06
1.1e-06
1.1e-06
1.1e-06
1.1e-06
1.1e-06
1.1e-06
1.1e-06
1.1e-06
1.1e-06
1.1e-06
1.1e-06
1.1e-06
1.1e-06
1.1e-06
1.1e-06
1.1e-06
1.1e-06
1.1e-06
1.1e-06
1.1e-06
1.1e-06
1.1e-06
1.1e-06
1.1e-06
1.1e-06
1.1e-06
1.1e-06
1.1e-06
1.1e-06
1.1e-06
1.1e-06
1.1e-06
1.1e-06
1.1e-06
1.1e-06
1.1e-06
1.1e-06
1.1e-06
1.1e-06
1.1e-06
1.1e-06
1.1e-06
1.1e-06
1.1e-06
1.1e-06
1.1e-06
1.1e-06
1.1e-06
1.1e-06
1.1e-06
1.1e-06
1.1e-06
1.1e-06
1.1e-06
1.1e-06
1.1e-06
1.1e-06
1.1e-06
1.1e-06
1.1e-06
1.1e-06
1.1e-06
1.1e-06
1.1e-06
1.1e-06
1.1e-06
0.842106
0.84232
0.842506
0.842663
0.842791
0.842886
0.84295
0.842981
0.84298
0.842945
0.842876
0.842776
0.842643
0.842478
0.842282
0.842056
0.841801
0.841518
0.841208
0.840871
0.840509
0.840124
0.839715
0.839284
0.838832
0.83836
0.837868
0.837358
0.83683
0.836284
0.835723
0.835146
0.834553
0.833946
0.833325
0.83269
0.832042
0.83138
0.830705
0.830017
0.829316
0.8286
0.82787
0.827123
0.826359
0.825574
0.824767
0.823933
0.823067
0.822164
0.821216
0.820213
0.81914
0.81798
0.816707
0.815281
0.813646
0.811703
0.809284
0.806056
0.801256
0.792649
0.769438
0.488934
0.00209112
1.1e-06
1.1e-06
1.1e-06
1.1e-06
1.1e-06
1.1e-06
1.1e-06
1.1e-06
1.1e-06
1.1e-06
1.1e-06
1.1e-06
1.1e-06
1.1e-06
1.1e-06
1.1e-06
1.1e-06
1.1e-06
1.1e-06
1.1e-06
1.1e-06
1.1e-06
1.1e-06
1.1e-06
1.1e-06
1.1e-06
1.1e-06
1.1e-06
1.1e-06
1.1e-06
1.1e-06
1.1e-06
1.1e-06
1.1e-06
1.1e-06
1.1e-06
1.1e-06
1.1e-06
1.1e-06
1.1e-06
1.1e-06
1.1e-06
1.1e-06
1.1e-06
1.1e-06
1.1e-06
1.1e-06
1.1e-06
1.1e-06
1.1e-06
1.1e-06
1.1e-06
1.1e-06
1.1e-06
1.1e-06
1.1e-06
1.1e-06
1.1e-06
1.1e-06
1.1e-06
1.1e-06
1.1e-06
1.1e-06
1.1e-06
1.1e-06
1.1e-06
1.1e-06
1.1e-06
1.1e-06
1.1e-06
1.1e-06
1.1e-06
1.1e-06
1.1e-06
1.1e-06
1.1e-06
1.1e-06
1.1e-06
1.1e-06
1.1e-06
1.1e-06
1.1e-06
1.1e-06
1.1e-06
1.1e-06
1.1e-06
1.1e-06
1.1e-06
1.1e-06
1.1e-06
1.1e-06
1.1e-06
1.1e-06
1.1e-06
1.1e-06
1.1e-06
1.1e-06
1.1e-06
1.1e-06
1.1e-06
1.1e-06
1.1e-06
1.1e-06
1.1e-06
1.1e-06
1.1e-06
1.1e-06
1.1e-06
1.1e-06
1.1e-06
1.1e-06
1.1e-06
1.1e-06
1.1e-06
1.1e-06
0.845055
0.845306
0.845526
0.845714
0.845866
0.845982
0.846061
0.846102
0.846104
0.846068
0.845993
0.845881
0.845731
0.845544
0.845322
0.845065
0.844775
0.844453
0.844101
0.843719
0.84331
0.842874
0.842413
0.841929
0.841423
0.840895
0.840348
0.839782
0.839198
0.838598
0.837982
0.837351
0.836706
0.836047
0.835376
0.834692
0.833996
0.833288
0.832568
0.831836
0.831092
0.830335
0.829564
0.828778
0.827976
0.827155
0.826312
0.825445
0.824549
0.823619
0.822648
0.821626
0.820542
0.819381
0.818121
0.816729
0.815159
0.813337
0.811135
0.808321
0.804403
0.798134
0.785072
0.727153
0.123223
1.62411e-05
1.1e-06
1.1e-06
1.1e-06
1.1e-06
1.1e-06
1.1e-06
1.1e-06
1.1e-06
1.1e-06
1.1e-06
1.1e-06
1.1e-06
1.1e-06
1.1e-06
1.1e-06
1.1e-06
1.1e-06
1.1e-06
1.1e-06
1.1e-06
1.1e-06
1.1e-06
1.1e-06
1.1e-06
1.1e-06
1.1e-06
1.1e-06
1.1e-06
1.1e-06
1.1e-06
1.1e-06
1.1e-06
1.1e-06
1.1e-06
1.1e-06
1.1e-06
1.1e-06
1.1e-06
1.1e-06
1.1e-06
1.1e-06
1.1e-06
1.1e-06
1.1e-06
1.1e-06
1.1e-06
1.1e-06
1.1e-06
1.1e-06
1.1e-06
1.1e-06
1.1e-06
1.1e-06
1.1e-06
1.1e-06
1.1e-06
1.1e-06
1.1e-06
1.1e-06
1.1e-06
1.1e-06
1.1e-06
1.1e-06
1.1e-06
1.1e-06
1.1e-06
1.1e-06
1.1e-06
1.1e-06
1.1e-06
1.1e-06
1.1e-06
1.1e-06
1.1e-06
1.1e-06
1.1e-06
1.1e-06
1.1e-06
1.1e-06
1.1e-06
1.1e-06
1.1e-06
1.1e-06
1.1e-06
1.1e-06
1.1e-06
1.1e-06
1.1e-06
1.1e-06
1.1e-06
1.1e-06
1.1e-06
1.1e-06
1.1e-06
1.1e-06
1.1e-06
1.1e-06
1.1e-06
1.1e-06
1.1e-06
1.1e-06
1.1e-06
1.1e-06
1.1e-06
1.1e-06
1.1e-06
1.1e-06
1.1e-06
1.1e-06
1.1e-06
1.1e-06
1.1e-06
1.1e-06
1.1e-06
0.847831
0.848123
0.848379
0.848598
0.848776
0.848914
0.849008
0.849059
0.849066
0.849029
0.848947
0.848822
0.848655
0.848446
0.848197
0.847908
0.847583
0.847223
0.846829
0.846403
0.845946
0.845462
0.844951
0.844415
0.843857
0.843276
0.842675
0.842056
0.841419
0.840765
0.840097
0.839414
0.838717
0.838008
0.837287
0.836555
0.835811
0.835057
0.834291
0.833515
0.832728
0.831929
0.831118
0.830293
0.829453
0.828596
0.82772
0.826821
0.825897
0.824941
0.823949
0.822911
0.821819
0.820658
0.81941
0.818049
0.816536
0.814814
0.812786
0.810283
0.806977
0.802118
0.793535
0.771012
0.512822
0.00297303
1.1e-06
1.1e-06
1.1e-06
1.1e-06
1.1e-06
1.1e-06
1.1e-06
1.1e-06
1.1e-06
1.1e-06
1.1e-06
1.1e-06
1.1e-06
1.1e-06
1.1e-06
1.1e-06
1.1e-06
1.1e-06
1.1e-06
1.1e-06
1.1e-06
1.1e-06
1.1e-06
1.1e-06
1.1e-06
1.1e-06
1.1e-06
1.1e-06
1.1e-06
1.1e-06
1.1e-06
1.1e-06
1.1e-06
1.1e-06
1.1e-06
1.1e-06
1.1e-06
1.1e-06
1.1e-06
1.1e-06
1.1e-06
1.1e-06
1.1e-06
1.1e-06
1.1e-06
1.1e-06
1.1e-06
1.1e-06
1.1e-06
1.1e-06
1.1e-06
1.1e-06
1.1e-06
1.1e-06
1.1e-06
1.1e-06
1.1e-06
1.1e-06
1.1e-06
1.1e-06
1.1e-06
1.1e-06
1.1e-06
1.1e-06
1.1e-06
1.1e-06
1.1e-06
1.1e-06
1.1e-06
1.1e-06
1.1e-06
1.1e-06
1.1e-06
1.1e-06
1.1e-06
1.1e-06
1.1e-06
1.1e-06
1.1e-06
1.1e-06
1.1e-06
1.1e-06
1.1e-06
1.1e-06
1.1e-06
1.1e-06
1.1e-06
1.1e-06
1.1e-06
1.1e-06
1.1e-06
1.1e-06
1.1e-06
1.1e-06
1.1e-06
1.1e-06
1.1e-06
1.1e-06
1.1e-06
1.1e-06
1.1e-06
1.1e-06
1.1e-06
1.1e-06
1.1e-06
1.1e-06
1.1e-06
1.1e-06
1.1e-06
1.1e-06
1.1e-06
1.1e-06
1.1e-06
1.1e-06
0.85047
0.850804
0.851099
0.851351
0.851557
0.851717
0.851828
0.85189
0.851901
0.851862
0.851772
0.851634
0.851447
0.851214
0.850936
0.850616
0.850254
0.849853
0.849416
0.848945
0.848441
0.847908
0.847347
0.84676
0.846149
0.845516
0.844863
0.844191
0.843501
0.842796
0.842075
0.841342
0.840595
0.839837
0.839067
0.838287
0.837497
0.836697
0.835887
0.835068
0.834239
0.833399
0.832548
0.831686
0.830809
0.829918
0.82901
0.828082
0.82713
0.826152
0.82514
0.824089
0.822989
0.821828
0.820592
0.819258
0.817795
0.816156
0.814267
0.812003
0.809134
0.805179
0.798933
0.786176
0.732819
0.141874
2.35212e-05
1.1e-06
1.1e-06
1.1e-06
1.1e-06
1.1e-06
1.1e-06
1.1e-06
1.1e-06
1.1e-06
1.1e-06
1.1e-06
1.1e-06
1.1e-06
1.1e-06
1.1e-06
1.1e-06
1.1e-06
1.1e-06
1.1e-06
1.1e-06
1.1e-06
1.1e-06
1.1e-06
1.1e-06
1.1e-06
1.1e-06
1.1e-06
1.1e-06
1.1e-06
1.1e-06
1.1e-06
1.1e-06
1.1e-06
1.1e-06
1.1e-06
1.1e-06
1.1e-06
1.1e-06
1.1e-06
1.1e-06
1.1e-06
1.1e-06
1.1e-06
1.1e-06
1.1e-06
1.1e-06
1.1e-06
1.1e-06
1.1e-06
1.1e-06
1.1e-06
1.1e-06
1.1e-06
1.1e-06
1.1e-06
1.1e-06
1.1e-06
1.1e-06
1.1e-06
1.1e-06
1.1e-06
1.1e-06
1.1e-06
1.1e-06
1.1e-06
1.1e-06
1.1e-06
1.1e-06
1.1e-06
1.1e-06
1.1e-06
1.1e-06
1.1e-06
1.1e-06
1.1e-06
1.1e-06
1.1e-06
1.1e-06
1.1e-06
1.1e-06
1.1e-06
1.1e-06
1.1e-06
1.1e-06
1.1e-06
1.1e-06
1.1e-06
1.1e-06
1.1e-06
1.1e-06
1.1e-06
1.1e-06
1.1e-06
1.1e-06
1.1e-06
1.1e-06
1.1e-06
1.1e-06
1.1e-06
1.1e-06
1.1e-06
1.1e-06
1.1e-06
1.1e-06
1.1e-06
1.1e-06
1.1e-06
1.1e-06
1.1e-06
1.1e-06
1.1e-06
1.1e-06
1.1e-06
0.85299
0.85337
0.853705
0.853993
0.85423
0.854414
0.854543
0.854615
0.85463
0.854588
0.85449
0.854336
0.854129
0.85387
0.853561
0.853205
0.852804
0.852361
0.85188
0.851361
0.850809
0.850225
0.849613
0.848974
0.848311
0.847626
0.84692
0.846196
0.845455
0.844698
0.843928
0.843144
0.842349
0.841542
0.840726
0.8399
0.839065
0.838221
0.837368
0.836507
0.835637
0.834759
0.83387
0.832971
0.832061
0.831137
0.830198
0.829242
0.828266
0.827266
0.826237
0.825173
0.824066
0.822907
0.821682
0.820372
0.818951
0.817382
0.815605
0.813526
0.810979
0.80764
0.80278
0.794319
0.772759
0.543456
0.00472721
1.10003e-06
1.1e-06
1.1e-06
1.1e-06
1.1e-06
1.1e-06
1.1e-06
1.1e-06
1.1e-06
1.1e-06
1.1e-06
1.1e-06
1.1e-06
1.1e-06
1.1e-06
1.1e-06
1.1e-06
1.1e-06
1.1e-06
1.1e-06
1.1e-06
1.1e-06
1.1e-06
1.1e-06
1.1e-06
1.1e-06
1.1e-06
1.1e-06
1.1e-06
1.1e-06
1.1e-06
1.1e-06
1.1e-06
1.1e-06
1.1e-06
1.1e-06
1.1e-06
1.1e-06
1.1e-06
1.1e-06
1.1e-06
1.1e-06
1.1e-06
1.1e-06
1.1e-06
1.1e-06
1.1e-06
1.1e-06
1.1e-06
1.1e-06
1.1e-06
1.1e-06
1.1e-06
1.1e-06
1.1e-06
1.1e-06
1.1e-06
1.1e-06
1.1e-06
1.1e-06
1.1e-06
1.1e-06
1.1e-06
1.1e-06
1.1e-06
1.1e-06
1.1e-06
1.1e-06
1.1e-06
1.1e-06
1.1e-06
1.1e-06
1.1e-06
1.1e-06
1.1e-06
1.1e-06
1.1e-06
1.1e-06
1.1e-06
1.1e-06
1.1e-06
1.1e-06
1.1e-06
1.1e-06
1.1e-06
1.1e-06
1.1e-06
1.1e-06
1.1e-06
1.1e-06
1.1e-06
1.1e-06
1.1e-06
1.1e-06
1.1e-06
1.1e-06
1.1e-06
1.1e-06
1.1e-06
1.1e-06
1.1e-06
1.1e-06
1.1e-06
1.1e-06
1.1e-06
1.1e-06
1.1e-06
1.1e-06
1.1e-06
1.1e-06
1.1e-06
1.1e-06
1.1e-06
0.855401
0.855831
0.856211
0.856538
0.856808
0.857018
0.857165
0.857248
0.857267
0.857222
0.857113
0.856942
0.856711
0.856423
0.856081
0.855687
0.855244
0.854757
0.854228
0.85366
0.853057
0.852422
0.851757
0.851066
0.85035
0.849612
0.848855
0.848079
0.847287
0.846481
0.845661
0.844829
0.843986
0.843134
0.842272
0.841402
0.840523
0.839637
0.838744
0.837843
0.836935
0.836019
0.835095
0.834162
0.833219
0.832265
0.831298
0.830316
0.829317
0.828297
0.827251
0.826176
0.825063
0.823905
0.822689
0.821399
0.820015
0.818504
0.81682
0.814888
0.812584
0.80968
0.805704
0.799479
0.786949
0.73674
0.157715
3.13891e-05
1.1e-06
1.1e-06
1.1e-06
1.1e-06
1.1e-06
1.1e-06
1.1e-06
1.1e-06
1.1e-06
1.1e-06
1.1e-06
1.1e-06
1.1e-06
1.1e-06
1.1e-06
1.1e-06
1.1e-06
1.1e-06
1.1e-06
1.1e-06
1.1e-06
1.1e-06
1.1e-06
1.1e-06
1.1e-06
1.1e-06
1.1e-06
1.1e-06
1.1e-06
1.1e-06
1.1e-06
1.1e-06
1.1e-06
1.1e-06
1.1e-06
1.1e-06
1.1e-06
1.1e-06
1.1e-06
1.1e-06
1.1e-06
1.1e-06
1.1e-06
1.1e-06
1.1e-06
1.1e-06
1.1e-06
1.1e-06
1.1e-06
1.1e-06
1.1e-06
1.1e-06
1.1e-06
1.1e-06
1.1e-06
1.1e-06
1.1e-06
1.1e-06
1.1e-06
1.1e-06
1.1e-06
1.1e-06
1.1e-06
1.1e-06
1.1e-06
1.1e-06
1.1e-06
1.1e-06
1.1e-06
1.1e-06
1.1e-06
1.1e-06
1.1e-06
1.1e-06
1.1e-06
1.1e-06
1.1e-06
1.1e-06
1.1e-06
1.1e-06
1.1e-06
1.1e-06
1.1e-06
1.1e-06
1.1e-06
1.1e-06
1.1e-06
1.1e-06
1.1e-06
1.1e-06
1.1e-06
1.1e-06
1.1e-06
1.1e-06
1.1e-06
1.1e-06
1.1e-06
1.1e-06
1.1e-06
1.1e-06
1.1e-06
1.1e-06
1.1e-06
1.1e-06
1.1e-06
1.1e-06
1.1e-06
1.1e-06
1.1e-06
1.1e-06
1.1e-06
1.1e-06
0.857709
0.858193
0.858623
0.858993
0.859298
0.859536
0.859703
0.859799
0.859821
0.859771
0.859649
0.859459
0.859202
0.858882
0.858502
0.858066
0.857579
0.857043
0.856464
0.855845
0.85519
0.854501
0.853783
0.853039
0.85227
0.85148
0.850671
0.849844
0.849003
0.848148
0.84728
0.846402
0.845514
0.844617
0.843712
0.8428
0.841881
0.840956
0.840024
0.839086
0.838142
0.837191
0.836234
0.835269
0.834296
0.833313
0.83232
0.831313
0.830292
0.829253
0.828193
0.827106
0.825988
0.824829
0.823621
0.82235
0.820997
0.819535
0.817927
0.816114
0.813999
0.811416
0.808041
0.803151
0.794691
0.773394
0.55423
0.00563511
1.10008e-06
1.1e-06
1.1e-06
1.1e-06
1.1e-06
1.1e-06
1.1e-06
1.1e-06
1.1e-06
1.1e-06
1.1e-06
1.1e-06
1.1e-06
1.1e-06
1.1e-06
1.1e-06
1.1e-06
1.1e-06
1.1e-06
1.1e-06
1.1e-06
1.1e-06
1.1e-06
1.1e-06
1.1e-06
1.1e-06
1.1e-06
1.1e-06
1.1e-06
1.1e-06
1.1e-06
1.1e-06
1.1e-06
1.1e-06
1.1e-06
1.1e-06
1.1e-06
1.1e-06
1.1e-06
1.1e-06
1.1e-06
1.1e-06
1.1e-06
1.1e-06
1.1e-06
1.1e-06
1.1e-06
1.1e-06
1.1e-06
1.1e-06
1.1e-06
1.1e-06
1.1e-06
1.1e-06
1.1e-06
1.1e-06
1.1e-06
1.1e-06
1.1e-06
1.1e-06
1.1e-06
1.1e-06
1.1e-06
1.1e-06
1.1e-06
1.1e-06
1.1e-06
1.1e-06
1.1e-06
1.1e-06
1.1e-06
1.1e-06
1.1e-06
1.1e-06
1.1e-06
1.1e-06
1.1e-06
1.1e-06
1.1e-06
1.1e-06
1.1e-06
1.1e-06
1.1e-06
1.1e-06
1.1e-06
1.1e-06
1.1e-06
1.1e-06
1.1e-06
1.1e-06
1.1e-06
1.1e-06
1.1e-06
1.1e-06
1.1e-06
1.1e-06
1.1e-06
1.1e-06
1.1e-06
1.1e-06
1.1e-06
1.1e-06
1.1e-06
1.1e-06
1.1e-06
1.1e-06
1.1e-06
1.1e-06
1.1e-06
1.1e-06
1.1e-06
1.1e-06
0.859913
0.860458
0.860943
0.86136
0.861705
0.861974
0.862164
0.862271
0.862296
0.86224
0.862104
0.86189
0.861603
0.861247
0.860826
0.860344
0.859808
0.859222
0.85859
0.857917
0.857207
0.856464
0.855691
0.854893
0.854072
0.85323
0.85237
0.851494
0.850604
0.849702
0.848789
0.847867
0.846936
0.845997
0.845052
0.844101
0.843143
0.842181
0.841214
0.840241
0.839264
0.838281
0.837293
0.836299
0.835298
0.834289
0.833271
0.832242
0.8312
0.830144
0.829069
0.827972
0.826847
0.825688
0.824486
0.82323
0.821903
0.820484
0.81894
0.817224
0.815259
0.812921
0.809975
0.805943
0.799633
0.78694
0.73593
0.155398
3.07506e-05
1.1e-06
1.1e-06
1.1e-06
1.1e-06
1.1e-06
1.1e-06
1.1e-06
1.1e-06
1.1e-06
1.1e-06
1.1e-06
1.1e-06
1.1e-06
1.1e-06
1.1e-06
1.1e-06
1.1e-06
1.1e-06
1.1e-06
1.1e-06
1.1e-06
1.1e-06
1.1e-06
1.1e-06
1.1e-06
1.1e-06
1.1e-06
1.1e-06
1.1e-06
1.1e-06
1.1e-06
1.1e-06
1.1e-06
1.1e-06
1.1e-06
1.1e-06
1.1e-06
1.1e-06
1.1e-06
1.1e-06
1.1e-06
1.1e-06
1.1e-06
1.1e-06
1.1e-06
1.1e-06
1.1e-06
1.1e-06
1.1e-06
1.1e-06
1.1e-06
1.1e-06
1.1e-06
1.1e-06
1.1e-06
1.1e-06
1.1e-06
1.1e-06
1.1e-06
1.1e-06
1.1e-06
1.1e-06
1.1e-06
1.1e-06
1.1e-06
1.1e-06
1.1e-06
1.1e-06
1.1e-06
1.1e-06
1.1e-06
1.1e-06
1.1e-06
1.1e-06
1.1e-06
1.1e-06
1.1e-06
1.1e-06
1.1e-06
1.1e-06
1.1e-06
1.1e-06
1.1e-06
1.1e-06
1.1e-06
1.1e-06
1.1e-06
1.1e-06
1.1e-06
1.1e-06
1.1e-06
1.1e-06
1.1e-06
1.1e-06
1.1e-06
1.1e-06
1.1e-06
1.1e-06
1.1e-06
1.1e-06
1.1e-06
1.1e-06
1.1e-06
1.1e-06
1.1e-06
1.1e-06
1.1e-06
1.1e-06
1.1e-06
1.1e-06
1.1e-06
0.862009
0.862623
0.86317
0.863642
0.864032
0.864336
0.86455
0.86467
0.864698
0.864633
0.864478
0.864238
0.863916
0.863518
0.863051
0.86252
0.861931
0.861289
0.860601
0.859871
0.859105
0.858306
0.857479
0.856627
0.855753
0.85486
0.853951
0.853028
0.852092
0.851145
0.850189
0.849225
0.848254
0.847276
0.846294
0.845306
0.844314
0.843318
0.842318
0.841314
0.840306
0.839294
0.838278
0.837257
0.83623
0.835197
0.834157
0.833107
0.832047
0.830974
0.829886
0.828778
0.827647
0.826487
0.825289
0.824045
0.82274
0.821356
0.819867
0.818232
0.81639
0.814244
0.811619
0.80818
0.803172
0.794447
0.772158
0.534063
0.00431799
1.10002e-06
1.1e-06
1.1e-06
1.1e-06
1.1e-06
1.1e-06
1.1e-06
1.1e-06
1.1e-06
1.1e-06
1.1e-06
1.1e-06
1.1e-06
1.1e-06
1.1e-06
1.1e-06
1.1e-06
1.1e-06
1.1e-06
1.1e-06
1.1e-06
1.1e-06
1.1e-06
1.1e-06
1.1e-06
1.1e-06
1.1e-06
1.1e-06
1.1e-06
1.1e-06
1.1e-06
1.1e-06
1.1e-06
1.1e-06
1.1e-06
1.1e-06
1.1e-06
1.1e-06
1.1e-06
1.1e-06
1.1e-06
1.1e-06
1.1e-06
1.1e-06
1.1e-06
1.1e-06
1.1e-06
1.1e-06
1.1e-06
1.1e-06
1.1e-06
1.1e-06
1.1e-06
1.1e-06
1.1e-06
1.1e-06
1.1e-06
1.1e-06
1.1e-06
1.1e-06
1.1e-06
1.1e-06
1.1e-06
1.1e-06
1.1e-06
1.1e-06
1.1e-06
1.1e-06
1.1e-06
1.1e-06
1.1e-06
1.1e-06
1.1e-06
1.1e-06
1.1e-06
1.1e-06
1.1e-06
1.1e-06
1.1e-06
1.1e-06
1.1e-06
1.1e-06
1.1e-06
1.1e-06
1.1e-06
1.1e-06
1.1e-06
1.1e-06
1.1e-06
1.1e-06
1.1e-06
1.1e-06
1.1e-06
1.1e-06
1.1e-06
1.1e-06
1.1e-06
1.1e-06
1.1e-06
1.1e-06
1.1e-06
1.1e-06
1.1e-06
1.1e-06
1.1e-06
1.1e-06
1.1e-06
1.1e-06
1.1e-06
1.1e-06
1.1e-06
0.864102
0.864803
0.865428
0.865967
0.866412
0.866759
0.867001
0.867136
0.867164
0.867087
0.866908
0.866633
0.866269
0.865821
0.865298
0.864708
0.864057
0.863353
0.862602
0.86181
0.860982
0.860123
0.859238
0.858329
0.857401
0.856456
0.855496
0.854524
0.853542
0.852551
0.851552
0.850547
0.849537
0.848522
0.847503
0.84648
0.845455
0.844426
0.843395
0.842361
0.841324
0.840285
0.839242
0.838196
0.837145
0.836089
0.835028
0.833959
0.832881
0.831792
0.830691
0.829573
0.828435
0.827272
0.826078