/*--------------------------------*- C++ -*----------------------------------*\
  =========                 |
  \\      /  F ield         | OpenFOAM: The Open Source CFD Toolbox
   \\    /   O peration     | Website:  https://openfoam.org
    \\  /    A nd           | Version:  10
     \\/     M anipulation  |
\*---------------------------------------------------------------------------*/
FoamFile
{
    format      ascii;
    class       volScalarField;
    location    "0.078";
    object      pPrime2Mean;
}
// * * * * * * * * * * * * * * * * * * * * * * * * * * * * * * * * * * * * * //

dimensions      [0 4 -4 0 0 0 0];

internalField   nonuniform List<scalar> 
12225
(
5.49921e+06
5.4128e+06
5.3237e+06
5.23746e+06
5.15436e+06
5.07424e+06
4.99694e+06
4.92226e+06
4.85e+06
4.77989e+06
4.71169e+06
4.64506e+06
4.57963e+06
4.51491e+06
4.4502e+06
4.38446e+06
4.31577e+06
4.23927e+06
5.49935e+06
5.41287e+06
5.32376e+06
5.23751e+06
5.15442e+06
5.07431e+06
4.99701e+06
4.92235e+06
4.8501e+06
4.78002e+06
4.71184e+06
4.64526e+06
4.5799e+06
4.51528e+06
4.45076e+06
4.38537e+06
4.31749e+06
4.24356e+06
5.49957e+06
5.413e+06
5.32388e+06
5.23764e+06
5.15455e+06
5.07445e+06
4.99717e+06
4.92254e+06
4.85032e+06
4.7803e+06
4.71219e+06
4.64571e+06
4.5805e+06
4.51611e+06
4.45197e+06
4.38729e+06
4.32094e+06
4.25153e+06
5.49982e+06
5.41322e+06
5.32409e+06
5.23784e+06
5.15476e+06
5.07468e+06
4.99744e+06
4.92285e+06
4.8507e+06
4.78075e+06
4.71277e+06
4.64645e+06
4.58147e+06
4.51745e+06
4.4539e+06
4.39027e+06
4.32598e+06
4.26108e+06
5.50011e+06
5.41353e+06
5.32439e+06
5.23815e+06
5.15508e+06
5.07503e+06
4.99783e+06
4.92331e+06
4.85124e+06
4.78142e+06
4.7136e+06
4.64752e+06
4.58288e+06
4.51936e+06
4.4566e+06
4.39429e+06
4.33229e+06
4.27139e+06
5.50058e+06
5.41397e+06
5.32481e+06
5.23857e+06
5.15552e+06
5.07551e+06
4.99837e+06
4.92394e+06
4.852e+06
4.78234e+06
4.71475e+06
4.64897e+06
4.58477e+06
4.52189e+06
4.46009e+06
4.39926e+06
4.33959e+06
4.28206e+06
5.50119e+06
5.41454e+06
5.32536e+06
5.23912e+06
5.1561e+06
5.07614e+06
4.99909e+06
4.92476e+06
4.85298e+06
4.78354e+06
4.71623e+06
4.65085e+06
4.58718e+06
4.52506e+06
4.46435e+06
4.40509e+06
4.34763e+06
4.29291e+06
5.50192e+06
5.41528e+06
5.32608e+06
5.23984e+06
5.15684e+06
5.07695e+06
5e+06
4.92582e+06
4.85424e+06
4.78506e+06
4.7181e+06
4.65318e+06
4.59014e+06
4.52887e+06
4.46934e+06
4.41167e+06
4.35625e+06
4.30386e+06
5.50297e+06
5.41624e+06
5.32699e+06
5.24073e+06
5.15777e+06
5.07796e+06
5.00113e+06
4.92713e+06
4.85579e+06
4.78692e+06
4.72038e+06
4.656e+06
4.59367e+06
4.53334e+06
4.47501e+06
4.41888e+06
4.36531e+06
4.31487e+06
5.5042e+06
5.41742e+06
5.32811e+06
5.24184e+06
5.15892e+06
5.0792e+06
5.00252e+06
4.92873e+06
4.85767e+06
4.78917e+06
4.7231e+06
4.65932e+06
4.59777e+06
4.53841e+06
4.48131e+06
4.42664e+06
4.3747e+06
4.3259e+06
5.506e+06
5.4189e+06
5.32947e+06
5.24318e+06
5.1603e+06
5.08069e+06
5.00419e+06
4.93064e+06
4.8599e+06
4.79182e+06
4.72627e+06
4.66316e+06
4.60243e+06
4.54407e+06
4.48815e+06
4.43484e+06
4.38435e+06
4.33695e+06
5.50762e+06
5.42051e+06
5.33098e+06
5.24465e+06
5.16181e+06
5.08231e+06
5.006e+06
4.93271e+06
4.8623e+06
4.79464e+06
4.72962e+06
4.66715e+06
4.60719e+06
4.54974e+06
4.49487e+06
4.4427e+06
4.39338e+06
4.34709e+06
5.50992e+06
5.4224e+06
5.3327e+06
5.24632e+06
5.16353e+06
5.08416e+06
5.00804e+06
4.93502e+06
4.86497e+06
4.79776e+06
4.73329e+06
4.67148e+06
4.61229e+06
4.55573e+06
4.50185e+06
4.45073e+06
4.40245e+06
4.35712e+06
5.51296e+06
5.42492e+06
5.33497e+06
5.24852e+06
5.16579e+06
5.08657e+06
5.0107e+06
4.93803e+06
4.86842e+06
4.80176e+06
4.73793e+06
4.67689e+06
4.61858e+06
4.56299e+06
4.51016e+06
4.46012e+06
4.4129e+06
4.36853e+06
5.51691e+06
5.42822e+06
5.33795e+06
5.25141e+06
5.16873e+06
5.08971e+06
5.01415e+06
4.9419e+06
4.87283e+06
4.8068e+06
4.74373e+06
4.68354e+06
4.62619e+06
4.57165e+06
4.51991e+06
4.47095e+06
4.42477e+06
4.38133e+06
5.52179e+06
5.43243e+06
5.34178e+06
5.25511e+06
5.17252e+06
5.09373e+06
5.01855e+06
4.94681e+06
4.87835e+06
4.81306e+06
4.75084e+06
4.69159e+06
4.63525e+06
4.58178e+06
4.53112e+06
4.48322e+06
4.43803e+06
4.39548e+06
5.52785e+06
5.43757e+06
5.3465e+06
5.25974e+06
5.17726e+06
5.09877e+06
5.02404e+06
4.95288e+06
4.88512e+06
4.82064e+06
4.75932e+06
4.70105e+06
4.64575e+06
4.59333e+06
4.54372e+06
4.49682e+06
4.45256e+06
4.41084e+06
5.53431e+06
5.44339e+06
5.35203e+06
5.26524e+06
5.18295e+06
5.10484e+06
5.03063e+06
4.96012e+06
4.89312e+06
4.8295e+06
4.7691e+06
4.71181e+06
4.65751e+06
4.60609e+06
4.55745e+06
4.51147e+06
4.46805e+06
4.42707e+06
5.54087e+06
5.44942e+06
5.35794e+06
5.2713e+06
5.18934e+06
5.1117e+06
5.03809e+06
4.96828e+06
4.90208e+06
4.83931e+06
4.77982e+06
4.72346e+06
4.67008e+06
4.61957e+06
4.5718e+06
4.52663e+06
4.48394e+06
4.4436e+06
5.54398e+06
5.45315e+06
5.3621e+06
5.27586e+06
5.19435e+06
5.11719e+06
5.04412e+06
4.97489e+06
4.9093e+06
4.84716e+06
4.78832e+06
4.7326e+06
4.67986e+06
4.62996e+06
4.58275e+06
4.53811e+06
4.49589e+06
4.45598e+06
5.5449e+06
5.45493e+06
5.36445e+06
5.27867e+06
5.19757e+06
5.12081e+06
5.04813e+06
4.97931e+06
4.91412e+06
4.8524e+06
4.79396e+06
4.73865e+06
4.6863e+06
4.63676e+06
4.5899e+06
4.54557e+06
4.50364e+06
4.46398e+06
5.54542e+06
5.4559e+06
5.36592e+06
5.28056e+06
5.19982e+06
5.12339e+06
5.05103e+06
4.9825e+06
4.91762e+06
4.85619e+06
4.79804e+06
4.74301e+06
4.69092e+06
4.64164e+06
4.59501e+06
4.55089e+06
4.50915e+06
4.46966e+06
5.54464e+06
5.45617e+06
5.36675e+06
5.28178e+06
5.20136e+06
5.1252e+06
5.05307e+06
4.98478e+06
4.92011e+06
4.8589e+06
4.80095e+06
4.74611e+06
4.69421e+06
4.6451e+06
4.59863e+06
4.55466e+06
4.51304e+06
4.47366e+06
5.54421e+06
5.45622e+06
5.36722e+06
5.28258e+06
5.2024e+06
5.12644e+06
5.0545e+06
4.98637e+06
4.92186e+06
4.8608e+06
4.80299e+06
4.74829e+06
4.69651e+06
4.64752e+06
4.60116e+06
4.55728e+06
4.51576e+06
4.47645e+06
5.54372e+06
5.45613e+06
5.36748e+06
5.28308e+06
5.20309e+06
5.12729e+06
5.05548e+06
4.98747e+06
4.92307e+06
4.86211e+06
4.8044e+06
4.74978e+06
4.6981e+06
4.64918e+06
4.6029e+06
4.55909e+06
4.51762e+06
4.47837e+06
5.54286e+06
5.45593e+06
5.3676e+06
5.2834e+06
5.20355e+06
5.12785e+06
5.05613e+06
4.9882e+06
4.92388e+06
4.86298e+06
4.80534e+06
4.75079e+06
4.69916e+06
4.6503e+06
4.60406e+06
4.56029e+06
4.51887e+06
4.47965e+06
5.54227e+06
5.45576e+06
5.36766e+06
5.28359e+06
5.20383e+06
5.12821e+06
5.05655e+06
4.98868e+06
4.9244e+06
4.86355e+06
4.80595e+06
4.75144e+06
4.69984e+06
4.65102e+06
4.60481e+06
4.56107e+06
4.51967e+06
4.48047e+06
5.54192e+06
5.45564e+06
5.36768e+06
5.2837e+06
5.204e+06
5.12843e+06
5.05681e+06
4.98896e+06
4.92472e+06
4.86389e+06
4.80632e+06
4.75183e+06
4.70026e+06
4.65145e+06
4.60526e+06
4.56154e+06
4.52015e+06
4.48097e+06
5.54175e+06
5.45558e+06
5.36769e+06
5.28376e+06
5.2041e+06
5.12855e+06
5.05694e+06
4.98912e+06
4.92489e+06
4.86408e+06
4.80652e+06
4.75204e+06
4.70048e+06
4.65169e+06
4.60551e+06
4.5618e+06
4.52042e+06
4.48124e+06
5.54168e+06
5.45555e+06
5.3677e+06
5.28379e+06
5.20413e+06
5.12859e+06
5.057e+06
4.98918e+06
4.92495e+06
4.86415e+06
4.8066e+06
4.75213e+06
4.70057e+06
4.65178e+06
4.60561e+06
4.5619e+06
4.52052e+06
4.48135e+06
3.58333e+06
3.58305e+06
3.58247e+06
3.5816e+06
3.58042e+06
3.57894e+06
3.57715e+06
3.57504e+06
3.57261e+06
3.56987e+06
3.56679e+06
3.56339e+06
3.55964e+06
3.55556e+06
3.55114e+06
3.54638e+06
3.54128e+06
3.53583e+06
3.53004e+06
3.5239e+06
3.51743e+06
3.51061e+06
3.50346e+06
3.49598e+06
3.48816e+06
3.48002e+06
3.47155e+06
3.46276e+06
3.45365e+06
3.44423e+06
3.43449e+06
3.42445e+06
3.4141e+06
3.40345e+06
3.39251e+06
3.38127e+06
3.36974e+06
3.35794e+06
3.34587e+06
3.33353e+06
3.32093e+06
3.30805e+06
3.29491e+06
3.28151e+06
3.26785e+06
3.25394e+06
3.23979e+06
3.2254e+06
3.21076e+06
3.1959e+06
3.18081e+06
3.16551e+06
3.14999e+06
3.13426e+06
3.11833e+06
3.1022e+06
3.08588e+06
3.06936e+06
3.05264e+06
3.03574e+06
3.01865e+06
3.00139e+06
2.98396e+06
2.96635e+06
2.94858e+06
2.93062e+06
2.9125e+06
2.89422e+06
2.87578e+06
2.85718e+06
2.83843e+06
2.81953e+06
2.80048e+06
2.78129e+06
2.76195e+06
2.74247e+06
2.72287e+06
2.70313e+06
2.68327e+06
2.66329e+06
2.64319e+06
2.62298e+06
2.60266e+06
2.58222e+06
2.56168e+06
2.54102e+06
2.52026e+06
2.49939e+06
2.47842e+06
2.45735e+06
2.43619e+06
2.41494e+06
2.39361e+06
2.3722e+06
2.35071e+06
2.32912e+06
2.30745e+06
2.28567e+06
2.2638e+06
2.24183e+06
2.21977e+06
2.19761e+06
2.17536e+06
2.15303e+06
2.13061e+06
2.10812e+06
2.08557e+06
2.06296e+06
2.0403e+06
2.01759e+06
1.99483e+06
1.97204e+06
1.94922e+06
1.92636e+06
1.90346e+06
1.88053e+06
1.85756e+06
1.83457e+06
1.81153e+06
1.78847e+06
1.76538e+06
1.74225e+06
1.7191e+06
1.69592e+06
1.67272e+06
1.64949e+06
1.62625e+06
1.60299e+06
1.57971e+06
1.55643e+06
1.53314e+06
1.50984e+06
1.48654e+06
1.46325e+06
1.43996e+06
1.41668e+06
1.3934e+06
1.37014e+06
1.3469e+06
1.32368e+06
1.30048e+06
1.2773e+06
1.25416e+06
1.23105e+06
1.20798e+06
1.18494e+06
1.16195e+06
1.13901e+06
1.11612e+06
1.09329e+06
1.07052e+06
1.04781e+06
1.02517e+06
1.00261e+06
980121
957718
935404
913184
891062
869045
847136
825340
803662
782110
760690
739408
718269
697284
676457
655796
635312
615011
594905
575008
555335
535906
516745
497892
479415
461459
3.58463e+06
3.58435e+06
3.58377e+06
3.5829e+06
3.58171e+06
3.58022e+06
3.57842e+06
3.5763e+06
3.57386e+06
3.5711e+06
3.56801e+06
3.56458e+06
3.56082e+06
3.55672e+06
3.55228e+06
3.54749e+06
3.54237e+06
3.53689e+06
3.53108e+06
3.52492e+06
3.51841e+06
3.51157e+06
3.50439e+06
3.49688e+06
3.48903e+06
3.48086e+06
3.47236e+06
3.46355e+06
3.45441e+06
3.44496e+06
3.4352e+06
3.42514e+06
3.41477e+06
3.4041e+06
3.39314e+06
3.38188e+06
3.37033e+06
3.35851e+06
3.34641e+06
3.33405e+06
3.32142e+06
3.30851e+06
3.29535e+06
3.28193e+06
3.26825e+06
3.25433e+06
3.24016e+06
3.22575e+06
3.2111e+06
3.19622e+06
3.18112e+06
3.1658e+06
3.15027e+06
3.13453e+06
3.11859e+06
3.10244e+06
3.0861e+06
3.06957e+06
3.05285e+06
3.03594e+06
3.01885e+06
3.00158e+06
2.98414e+06
2.96652e+06
2.94873e+06
2.93078e+06
2.91265e+06
2.89436e+06
2.87592e+06
2.85732e+06
2.83857e+06
2.81967e+06
2.80062e+06
2.78141e+06
2.76207e+06
2.74259e+06
2.72297e+06
2.70323e+06
2.68336e+06
2.66337e+06
2.64327e+06
2.62306e+06
2.60273e+06
2.58229e+06
2.56174e+06
2.54109e+06
2.52032e+06
2.49945e+06
2.47848e+06
2.45741e+06
2.43625e+06
2.415e+06
2.39367e+06
2.37226e+06
2.35077e+06
2.32918e+06
2.3075e+06
2.28572e+06
2.26385e+06
2.24188e+06
2.21981e+06
2.19765e+06
2.17539e+06
2.15305e+06
2.13064e+06
2.10815e+06
2.08559e+06
2.06298e+06
2.04031e+06
2.0176e+06
1.99484e+06
1.97205e+06
1.94923e+06
1.92636e+06
1.90347e+06
1.88053e+06
1.85757e+06
1.83457e+06
1.81154e+06
1.78847e+06
1.76538e+06
1.74225e+06
1.7191e+06
1.69592e+06
1.67272e+06
1.64949e+06
1.62625e+06
1.60299e+06
1.57971e+06
1.55643e+06
1.53314e+06
1.50984e+06
1.48655e+06
1.46325e+06
1.43996e+06
1.41668e+06
1.3934e+06
1.37014e+06
1.3469e+06
1.32368e+06
1.30048e+06
1.2773e+06
1.25416e+06
1.23105e+06
1.20798e+06
1.18494e+06
1.16195e+06
1.13901e+06
1.11612e+06
1.09329e+06
1.07052e+06
1.04781e+06
1.02517e+06
1.00261e+06
980123
957720
935406
913186
891064
869047
847137
825340
803662
782110
760691
739408
718269
697283
676456
655795
635310
615008
594901
575003
555327
535893
516724
497858
479354
461312
3.58723e+06
3.58694e+06
3.58636e+06
3.58547e+06
3.58428e+06
3.58278e+06
3.58096e+06
3.57882e+06
3.57636e+06
3.57357e+06
3.57045e+06
3.56699e+06
3.56319e+06
3.55904e+06
3.55456e+06
3.54972e+06
3.54455e+06
3.53902e+06
3.53315e+06
3.52694e+06
3.52038e+06
3.51348e+06
3.50625e+06
3.49868e+06
3.49078e+06
3.48254e+06
3.47399e+06
3.46511e+06
3.45592e+06
3.44642e+06
3.43661e+06
3.42649e+06
3.41607e+06
3.40536e+06
3.39435e+06
3.38305e+06
3.37146e+06
3.3596e+06
3.34746e+06
3.33506e+06
3.32238e+06
3.30944e+06
3.29623e+06
3.28277e+06
3.26906e+06
3.2551e+06
3.2409e+06
3.22645e+06
3.21177e+06
3.19686e+06
3.18173e+06
3.16638e+06
3.15082e+06
3.13506e+06
3.11909e+06
3.10292e+06
3.08656e+06
3.07e+06
3.05326e+06
3.03634e+06
3.01923e+06
3.00195e+06
2.98449e+06
2.96685e+06
2.94905e+06
2.93108e+06
2.91294e+06
2.89465e+06
2.87619e+06
2.85759e+06
2.83883e+06
2.81991e+06
2.80085e+06
2.78164e+06
2.76228e+06
2.74278e+06
2.72316e+06
2.7034e+06
2.68352e+06
2.66353e+06
2.64342e+06
2.62319e+06
2.60286e+06
2.58242e+06
2.56186e+06
2.5412e+06
2.52043e+06
2.49955e+06
2.47858e+06
2.45751e+06
2.43635e+06
2.41511e+06
2.39378e+06
2.37237e+06
2.35087e+06
2.32927e+06
2.30759e+06
2.28581e+06
2.26393e+06
2.24195e+06
2.21988e+06
2.19771e+06
2.17546e+06
2.15311e+06
2.13069e+06
2.10819e+06
2.08563e+06
2.06301e+06
2.04034e+06
2.01762e+06
1.99487e+06
1.97207e+06
1.94924e+06
1.92638e+06
1.90348e+06
1.88054e+06
1.85758e+06
1.83458e+06
1.81154e+06
1.78848e+06
1.76538e+06
1.74226e+06
1.7191e+06
1.69592e+06
1.67272e+06
1.64949e+06
1.62625e+06
1.60299e+06
1.57971e+06
1.55643e+06
1.53314e+06
1.50984e+06
1.48655e+06
1.46325e+06
1.43996e+06
1.41668e+06
1.3934e+06
1.37015e+06
1.3469e+06
1.32368e+06
1.30048e+06
1.27731e+06
1.25416e+06
1.23105e+06
1.20798e+06
1.18495e+06
1.16196e+06
1.13902e+06
1.11613e+06
1.09329e+06
1.07052e+06
1.04781e+06
1.02518e+06
1.00261e+06
980125
957723
935408
913188
891066
869047
847137
825341
803663
782111
760690
739407
718268
697282
676454
655792
635306
615003
594893
574990
555309
535866
516683
497794
479242
461083
3.59115e+06
3.59085e+06
3.59026e+06
3.58936e+06
3.58815e+06
3.58663e+06
3.58479e+06
3.58262e+06
3.58011e+06
3.57728e+06
3.5741e+06
3.57059e+06
3.56672e+06
3.56252e+06
3.55796e+06
3.55306e+06
3.5478e+06
3.5422e+06
3.53625e+06
3.52996e+06
3.52332e+06
3.51634e+06
3.50902e+06
3.50137e+06
3.49338e+06
3.48507e+06
3.47643e+06
3.46747e+06
3.45819e+06
3.44861e+06
3.43871e+06
3.42852e+06
3.41802e+06
3.40723e+06
3.39615e+06
3.38478e+06
3.37313e+06
3.36121e+06
3.34901e+06
3.33655e+06
3.32381e+06
3.31082e+06
3.29755e+06
3.28404e+06
3.27027e+06
3.25626e+06
3.242e+06
3.22751e+06
3.21278e+06
3.19782e+06
3.18265e+06
3.16725e+06
3.15165e+06
3.13585e+06
3.11984e+06
3.10363e+06
3.08724e+06
3.07065e+06
3.05388e+06
3.03693e+06
3.0198e+06
3.00248e+06
2.985e+06
2.96734e+06
2.94951e+06
2.93152e+06
2.91337e+06
2.89506e+06
2.87659e+06
2.85797e+06
2.83919e+06
2.82026e+06
2.80118e+06
2.78195e+06
2.76257e+06
2.74306e+06
2.72342e+06
2.70364e+06
2.68375e+06
2.66374e+06
2.64362e+06
2.62339e+06
2.60305e+06
2.58259e+06
2.56203e+06
2.54136e+06
2.52058e+06
2.49971e+06
2.47873e+06
2.45766e+06
2.4365e+06
2.41526e+06
2.39393e+06
2.37251e+06
2.351e+06
2.3294e+06
2.30771e+06
2.28593e+06
2.26404e+06
2.24206e+06
2.21998e+06
2.19781e+06
2.17555e+06
2.15319e+06
2.13076e+06
2.10826e+06
2.08569e+06
2.06306e+06
2.04038e+06
2.01766e+06
1.9949e+06
1.9721e+06
1.94926e+06
1.92639e+06
1.90349e+06
1.88056e+06
1.85759e+06
1.83459e+06
1.81155e+06
1.78848e+06
1.76539e+06
1.74226e+06
1.71911e+06
1.69593e+06
1.67272e+06
1.6495e+06
1.62625e+06
1.60299e+06
1.57972e+06
1.55643e+06
1.53314e+06
1.50985e+06
1.48655e+06
1.46325e+06
1.43996e+06
1.41668e+06
1.39341e+06
1.37015e+06
1.34691e+06
1.32368e+06
1.30048e+06
1.27731e+06
1.25417e+06
1.23105e+06
1.20798e+06
1.18495e+06
1.16196e+06
1.13902e+06
1.11613e+06
1.0933e+06
1.07053e+06
1.04782e+06
1.02518e+06
1.00261e+06
980129
957726
935411
913190
891068
869049
847138
825341
803663
782110
760689
739406
718267
697279
676451
655788
635301
614995
594882
574973
555283
535828
516626
497705
479094
460819
3.59641e+06
3.59611e+06
3.5955e+06
3.59458e+06
3.59335e+06
3.5918e+06
3.58991e+06
3.58769e+06
3.58513e+06
3.58223e+06
3.57898e+06
3.57539e+06
3.57144e+06
3.56715e+06
3.5625e+06
3.5575e+06
3.55214e+06
3.54644e+06
3.54038e+06
3.53398e+06
3.52723e+06
3.52014e+06
3.51271e+06
3.50494e+06
3.49685e+06
3.48842e+06
3.47967e+06
3.4706e+06
3.46121e+06
3.45152e+06
3.44152e+06
3.43122e+06
3.42062e+06
3.40973e+06
3.39855e+06
3.38709e+06
3.37535e+06
3.36334e+06
3.35107e+06
3.33852e+06
3.32571e+06
3.31264e+06
3.29931e+06
3.28573e+06
3.27189e+06
3.25781e+06
3.24348e+06
3.22891e+06
3.21411e+06
3.19909e+06
3.18385e+06
3.16839e+06
3.15273e+06
3.13687e+06
3.12082e+06
3.10456e+06
3.08812e+06
3.0715e+06
3.05469e+06
3.0377e+06
3.02053e+06
3.00318e+06
2.98566e+06
2.96797e+06
2.95012e+06
2.93211e+06
2.91393e+06
2.89559e+06
2.8771e+06
2.85845e+06
2.83964e+06
2.82069e+06
2.80158e+06
2.78233e+06
2.76293e+06
2.7434e+06
2.72374e+06
2.70395e+06
2.68404e+06
2.66402e+06
2.64388e+06
2.62363e+06
2.60328e+06
2.58282e+06
2.56224e+06
2.54156e+06
2.52078e+06
2.4999e+06
2.47892e+06
2.45785e+06
2.43669e+06
2.41544e+06
2.39411e+06
2.37268e+06
2.35117e+06
2.32957e+06
2.30787e+06
2.28608e+06
2.26419e+06
2.2422e+06
2.22012e+06
2.19793e+06
2.17566e+06
2.1533e+06
2.13085e+06
2.10834e+06
2.08576e+06
2.06312e+06
2.04044e+06
2.01771e+06
1.99494e+06
1.97213e+06
1.94929e+06
1.92642e+06
1.90351e+06
1.88057e+06
1.8576e+06
1.8346e+06
1.81156e+06
1.78849e+06
1.76539e+06
1.74227e+06
1.71911e+06
1.69593e+06
1.67273e+06
1.6495e+06
1.62625e+06
1.60299e+06
1.57972e+06
1.55644e+06
1.53315e+06
1.50985e+06
1.48655e+06
1.46326e+06
1.43997e+06
1.41668e+06
1.39341e+06
1.37015e+06
1.34691e+06
1.32369e+06
1.30049e+06
1.27731e+06
1.25417e+06
1.23106e+06
1.20799e+06
1.18495e+06
1.16196e+06
1.13902e+06
1.11613e+06
1.0933e+06
1.07053e+06
1.04782e+06
1.02518e+06
1.00262e+06
980132
957729
935415
913193
891070
869050
847139
825341
803663
782109
760687
739403
718263
697274
676445
655782
635292
614984
594866
574950
555250
535779
516554
497596
478924
460542
3.60306e+06
3.60275e+06
3.60212e+06
3.60117e+06
3.5999e+06
3.5983e+06
3.59635e+06
3.59407e+06
3.59143e+06
3.58845e+06
3.58511e+06
3.58142e+06
3.57737e+06
3.57296e+06
3.5682e+06
3.56307e+06
3.55759e+06
3.55175e+06
3.54556e+06
3.53902e+06
3.53213e+06
3.52489e+06
3.51732e+06
3.50941e+06
3.50117e+06
3.4926e+06
3.48371e+06
3.4745e+06
3.46498e+06
3.45515e+06
3.44502e+06
3.43459e+06
3.42386e+06
3.41285e+06
3.40155e+06
3.38998e+06
3.37813e+06
3.36601e+06
3.35363e+06
3.34098e+06
3.32807e+06
3.31491e+06
3.30149e+06
3.28782e+06
3.27389e+06
3.25972e+06
3.2453e+06
3.23064e+06
3.21576e+06
3.20065e+06
3.18533e+06
3.1698e+06
3.15407e+06
3.13814e+06
3.12202e+06
3.10571e+06
3.08921e+06
3.07254e+06
3.05568e+06
3.03864e+06
3.02142e+06
3.00403e+06
2.98648e+06
2.96876e+06
2.95087e+06
2.93283e+06
2.91462e+06
2.89625e+06
2.87772e+06
2.85903e+06
2.84019e+06
2.8212e+06
2.80206e+06
2.78277e+06
2.76335e+06
2.74379e+06
2.72411e+06
2.7043e+06
2.68438e+06
2.66434e+06
2.64418e+06
2.62392e+06
2.60356e+06
2.58308e+06
2.5625e+06
2.54181e+06
2.52102e+06
2.50013e+06
2.47915e+06
2.45807e+06
2.43691e+06
2.41566e+06
2.39432e+06
2.37289e+06
2.35137e+06
2.32976e+06
2.30806e+06
2.28626e+06
2.26436e+06
2.24236e+06
2.22027e+06
2.19808e+06
2.17579e+06
2.15342e+06
2.13097e+06
2.10844e+06
2.08585e+06
2.0632e+06
2.0405e+06
2.01776e+06
1.99499e+06
1.97217e+06
1.94933e+06
1.92645e+06
1.90354e+06
1.8806e+06
1.85762e+06
1.83462e+06
1.81158e+06
1.78851e+06
1.76541e+06
1.74228e+06
1.71912e+06
1.69594e+06
1.67273e+06
1.6495e+06
1.62626e+06
1.603e+06
1.57972e+06
1.55644e+06
1.53315e+06
1.50985e+06
1.48656e+06
1.46326e+06
1.43997e+06
1.41669e+06
1.39342e+06
1.37016e+06
1.34691e+06
1.32369e+06
1.30049e+06
1.27732e+06
1.25417e+06
1.23106e+06
1.20799e+06
1.18496e+06
1.16197e+06
1.13903e+06
1.11614e+06
1.09331e+06
1.07053e+06
1.04783e+06
1.02519e+06
1.00262e+06
980137
957734
935419
913197
891074
869053
847141
825343
803663
782109
760685
739399
718258
697268
676436
655771
635279
614968
594844
574921
555209
535722
516471
497473
478740
460264
3.61114e+06
3.61081e+06
3.61015e+06
3.60917e+06
3.60784e+06
3.60617e+06
3.60415e+06
3.60178e+06
3.59905e+06
3.59596e+06
3.59251e+06
3.5887e+06
3.58452e+06
3.57997e+06
3.57506e+06
3.56978e+06
3.56414e+06
3.55814e+06
3.55178e+06
3.54507e+06
3.53801e+06
3.5306e+06
3.52286e+06
3.51477e+06
3.50636e+06
3.49762e+06
3.48856e+06
3.47918e+06
3.46949e+06
3.4595e+06
3.44921e+06
3.43862e+06
3.42774e+06
3.41658e+06
3.40514e+06
3.39342e+06
3.38144e+06
3.36919e+06
3.35668e+06
3.34391e+06
3.33088e+06
3.31761e+06
3.30408e+06
3.2903e+06
3.27627e+06
3.26199e+06
3.24747e+06
3.23271e+06
3.21772e+06
3.20251e+06
3.18709e+06
3.17146e+06
3.15564e+06
3.13963e+06
3.12344e+06
3.10706e+06
3.0905e+06
3.07376e+06
3.05684e+06
3.03974e+06
3.02248e+06
3.00505e+06
2.98745e+06
2.96969e+06
2.95176e+06
2.93368e+06
2.91543e+06
2.89702e+06
2.87845e+06
2.85972e+06
2.84084e+06
2.8218e+06
2.80262e+06
2.78329e+06
2.76383e+06
2.74424e+06
2.72453e+06
2.7047e+06
2.68475e+06
2.6647e+06
2.64453e+06
2.62426e+06
2.60387e+06
2.58338e+06
2.56279e+06
2.54209e+06
2.52129e+06
2.50039e+06
2.4794e+06
2.45832e+06
2.43715e+06
2.4159e+06
2.39455e+06
2.37312e+06
2.35159e+06
2.32998e+06
2.30826e+06
2.28645e+06
2.26455e+06
2.24254e+06
2.22044e+06
2.19824e+06
2.17595e+06
2.15356e+06
2.13109e+06
2.10855e+06
2.08595e+06
2.06329e+06
2.04058e+06
2.01783e+06
1.99504e+06
1.97222e+06
1.94937e+06
1.92649e+06
1.90357e+06
1.88062e+06
1.85765e+06
1.83464e+06
1.81159e+06
1.78852e+06
1.76542e+06
1.74229e+06
1.71913e+06
1.69595e+06
1.67274e+06
1.64951e+06
1.62627e+06
1.603e+06
1.57973e+06
1.55645e+06
1.53315e+06
1.50986e+06
1.48656e+06
1.46327e+06
1.43998e+06
1.41669e+06
1.39342e+06
1.37016e+06
1.34692e+06
1.3237e+06
1.3005e+06
1.27733e+06
1.25418e+06
1.23107e+06
1.208e+06
1.18496e+06
1.16197e+06
1.13903e+06
1.11614e+06
1.09331e+06
1.07054e+06
1.04783e+06
1.02519e+06
1.00263e+06
980143
957739
935424
913202
891078
869057
847144
825345
803665
782109
760684
739397
718253
697260
676425
655756
635261
614945
594816
574884
555161
535655
516378
497341
478549
459992
3.6207e+06
3.62034e+06
3.61964e+06
3.6186e+06
3.61721e+06
3.61546e+06
3.61335e+06
3.61087e+06
3.60802e+06
3.6048e+06
3.60121e+06
3.59725e+06
3.59291e+06
3.58819e+06
3.5831e+06
3.57764e+06
3.57181e+06
3.56561e+06
3.55906e+06
3.55215e+06
3.54488e+06
3.53727e+06
3.52932e+06
3.52103e+06
3.51241e+06
3.50346e+06
3.4942e+06
3.48462e+06
3.47474e+06
3.46455e+06
3.45407e+06
3.4433e+06
3.43224e+06
3.4209e+06
3.40929e+06
3.39741e+06
3.38527e+06
3.37287e+06
3.36021e+06
3.3473e+06
3.33415e+06
3.32074e+06
3.30708e+06
3.29318e+06
3.27903e+06
3.26463e+06
3.24998e+06
3.23509e+06
3.21998e+06
3.20465e+06
3.18911e+06
3.17338e+06
3.15746e+06
3.14135e+06
3.12507e+06
3.10861e+06
3.09197e+06
3.07516e+06
3.05818e+06
3.04102e+06
3.0237e+06
3.00621e+06
2.98857e+06
2.97076e+06
2.95279e+06
2.93465e+06
2.91636e+06
2.8979e+06
2.87928e+06
2.86051e+06
2.84157e+06
2.82249e+06
2.80326e+06
2.78389e+06
2.76439e+06
2.74476e+06
2.72501e+06
2.70515e+06
2.68519e+06
2.66511e+06
2.64493e+06
2.62464e+06
2.60424e+06
2.58373e+06
2.56312e+06
2.54241e+06
2.52159e+06
2.50068e+06
2.47968e+06
2.45859e+06
2.43741e+06
2.41615e+06
2.3948e+06
2.37336e+06
2.35183e+06
2.3302e+06
2.30848e+06
2.28666e+06
2.26475e+06
2.24273e+06
2.22062e+06
2.19841e+06
2.17611e+06
2.15371e+06
2.13123e+06
2.10867e+06
2.08605e+06
2.06338e+06
2.04066e+06
2.01791e+06
1.99511e+06
1.97228e+06
1.94942e+06
1.92653e+06
1.90361e+06
1.88066e+06
1.85767e+06
1.83466e+06
1.81162e+06
1.78854e+06
1.76544e+06
1.7423e+06
1.71914e+06
1.69596e+06
1.67275e+06
1.64952e+06
1.62627e+06
1.60301e+06
1.57974e+06
1.55645e+06
1.53316e+06
1.50987e+06
1.48657e+06
1.46328e+06
1.43999e+06
1.4167e+06
1.39343e+06
1.37017e+06
1.34693e+06
1.32371e+06
1.30051e+06
1.27733e+06
1.25419e+06
1.23108e+06
1.20801e+06
1.18497e+06
1.16198e+06
1.13904e+06
1.11615e+06
1.09332e+06
1.07055e+06
1.04784e+06
1.0252e+06
1.00264e+06
980149
957746
935430
913208
891083
869062
847148
825348
803667
782110
760684
739394
718248
697252
676413
655739
635238
614916
594781
574841
555104
535581
516277
497202
478356
459729
3.63178e+06
3.63139e+06
3.63065e+06
3.62954e+06
3.62807e+06
3.62622e+06
3.62399e+06
3.62138e+06
3.61838e+06
3.615e+06
3.61124e+06
3.60709e+06
3.60256e+06
3.59764e+06
3.59234e+06
3.58666e+06
3.58061e+06
3.57418e+06
3.56739e+06
3.56024e+06
3.55274e+06
3.54489e+06
3.5367e+06
3.52817e+06
3.51931e+06
3.51013e+06
3.50063e+06
3.49083e+06
3.48072e+06
3.47031e+06
3.45961e+06
3.44862e+06
3.43735e+06
3.42581e+06
3.41401e+06
3.40194e+06
3.38962e+06
3.37705e+06
3.36423e+06
3.35116e+06
3.33786e+06
3.3243e+06
3.31051e+06
3.29646e+06
3.28216e+06
3.26762e+06
3.25283e+06
3.2378e+06
3.22255e+06
3.20708e+06
3.19141e+06
3.17555e+06
3.15951e+06
3.1433e+06
3.12691e+06
3.11036e+06
3.09363e+06
3.07674e+06
3.05969e+06
3.04246e+06
3.02508e+06
3.00753e+06
2.98983e+06
2.97196e+06
2.95394e+06
2.93575e+06
2.9174e+06
2.89889e+06
2.88022e+06
2.86139e+06
2.8424e+06
2.82327e+06
2.80399e+06
2.78457e+06
2.76502e+06
2.74535e+06
2.72557e+06
2.70568e+06
2.68568e+06
2.66558e+06
2.64538e+06
2.62507e+06
2.60465e+06
2.58412e+06
2.56349e+06
2.54276e+06
2.52192e+06
2.50099e+06
2.47997e+06
2.45887e+06
2.43768e+06
2.41642e+06
2.39506e+06
2.37361e+06
2.35207e+06
2.33043e+06
2.3087e+06
2.28687e+06
2.26495e+06
2.24293e+06
2.22081e+06
2.19859e+06
2.17627e+06
2.15386e+06
2.13137e+06
2.1088e+06
2.08617e+06
2.06348e+06
2.04076e+06
2.01799e+06
1.99518e+06
1.97235e+06
1.94948e+06
1.92658e+06
1.90365e+06
1.88069e+06
1.85771e+06
1.83469e+06
1.81164e+06
1.78856e+06
1.76545e+06
1.74232e+06
1.71916e+06
1.69597e+06
1.67276e+06
1.64953e+06
1.62628e+06
1.60302e+06
1.57975e+06
1.55646e+06
1.53317e+06
1.50988e+06
1.48658e+06
1.46328e+06
1.43999e+06
1.41671e+06
1.39344e+06
1.37018e+06
1.34694e+06
1.32372e+06
1.30052e+06
1.27735e+06
1.2542e+06
1.23109e+06
1.20802e+06
1.18498e+06
1.16199e+06
1.13905e+06
1.11616e+06
1.09333e+06
1.07056e+06
1.04785e+06
1.02521e+06
1.00264e+06
980157
957754
935438
913215
891090
869068
847154
825353
803670
782112
760684
739393
718244
697245
676402
655722
635214
614884
594740
574790
555041
535499
516170
497059
478165
459477
3.64448e+06
3.64405e+06
3.64325e+06
3.64207e+06
3.64049e+06
3.63852e+06
3.63615e+06
3.63338e+06
3.6302e+06
3.62663e+06
3.62266e+06
3.61829e+06
3.61352e+06
3.60836e+06
3.60281e+06
3.59688e+06
3.59056e+06
3.58387e+06
3.5768e+06
3.56938e+06
3.5616e+06
3.55347e+06
3.545e+06
3.53619e+06
3.52706e+06
3.51761e+06
3.50785e+06
3.49779e+06
3.48742e+06
3.47676e+06
3.46581e+06
3.45458e+06
3.44308e+06
3.43132e+06
3.41929e+06
3.40702e+06
3.39449e+06
3.38173e+06
3.36873e+06
3.35549e+06
3.34202e+06
3.3283e+06
3.31434e+06
3.30013e+06
3.28567e+06
3.27096e+06
3.25601e+06
3.24082e+06
3.22541e+06
3.20979e+06
3.19397e+06
3.17797e+06
3.1618e+06
3.14546e+06
3.12897e+06
3.11231e+06
3.09549e+06
3.07851e+06
3.06137e+06
3.04406e+06
3.0266e+06
3.00899e+06
2.99122e+06
2.97328e+06
2.9552e+06
2.93695e+06
2.91854e+06
2.89997e+06
2.88124e+06
2.86235e+06
2.84331e+06
2.82412e+06
2.80478e+06
2.78532e+06
2.76572e+06
2.74601e+06
2.72619e+06
2.70627e+06
2.68625e+06
2.66612e+06
2.64589e+06
2.62555e+06
2.60511e+06
2.58456e+06
2.5639e+06
2.54314e+06
2.52228e+06
2.50133e+06
2.48029e+06
2.45917e+06
2.43797e+06
2.41669e+06
2.39532e+06
2.37386e+06
2.35231e+06
2.33066e+06
2.30891e+06
2.28708e+06
2.26514e+06
2.24311e+06
2.22099e+06
2.19876e+06
2.17643e+06
2.15401e+06
2.13151e+06
2.10893e+06
2.08628e+06
2.06359e+06
2.04085e+06
2.01807e+06
1.99526e+06
1.97241e+06
1.94954e+06
1.92663e+06
1.9037e+06
1.88074e+06
1.85774e+06
1.83472e+06
1.81167e+06
1.78859e+06
1.76548e+06
1.74234e+06
1.71917e+06
1.69599e+06
1.67277e+06
1.64954e+06
1.6263e+06
1.60303e+06
1.57976e+06
1.55647e+06
1.53318e+06
1.50989e+06
1.48659e+06
1.4633e+06
1.44001e+06
1.41673e+06
1.39345e+06
1.3702e+06
1.34696e+06
1.32373e+06
1.30053e+06
1.27736e+06
1.25422e+06
1.23111e+06
1.20803e+06
1.185e+06
1.16201e+06
1.13906e+06
1.11617e+06
1.09334e+06
1.07057e+06
1.04786e+06
1.02522e+06
1.00265e+06
980167
957763
935447
913224
891098
869075
847160
825358
803675
782115
760686
739392
718241
697238
676391
655706
635190
614851
594697
574735
554971
535411
516057
496913
477976
459235
3.65889e+06
3.65843e+06
3.65756e+06
3.65627e+06
3.65458e+06
3.65246e+06
3.64992e+06
3.64695e+06
3.64357e+06
3.63977e+06
3.63555e+06
3.63091e+06
3.62587e+06
3.62042e+06
3.61457e+06
3.60833e+06
3.6017e+06
3.5947e+06
3.58732e+06
3.57957e+06
3.57147e+06
3.56303e+06
3.55424e+06
3.54512e+06
3.53568e+06
3.52593e+06
3.51587e+06
3.50551e+06
3.49485e+06
3.48391e+06
3.47268e+06
3.46119e+06
3.44943e+06
3.43741e+06
3.42514e+06
3.41263e+06
3.39988e+06
3.3869e+06
3.37369e+06
3.36026e+06
3.34659e+06
3.33269e+06
3.31855e+06
3.30416e+06
3.28952e+06
3.27463e+06
3.2595e+06
3.24414e+06
3.22855e+06
3.21276e+06
3.19678e+06
3.18063e+06
3.16431e+06
3.14785e+06
3.13123e+06
3.11445e+06
3.09753e+06
3.08045e+06
3.06321e+06
3.04582e+06
3.02828e+06
3.01058e+06
2.99272e+06
2.97472e+06
2.95656e+06
2.93824e+06
2.91976e+06
2.90113e+06
2.88234e+06
2.86339e+06
2.84429e+06
2.82504e+06
2.80565e+06
2.78613e+06
2.76649e+06
2.74674e+06
2.72688e+06
2.70693e+06
2.68687e+06
2.66672e+06
2.64646e+06
2.6261e+06
2.60562e+06
2.58504e+06
2.56435e+06
2.54356e+06
2.52267e+06
2.50169e+06
2.48063e+06
2.45948e+06
2.43827e+06
2.41697e+06
2.39559e+06
2.37412e+06
2.35255e+06
2.33088e+06
2.30913e+06
2.28728e+06
2.26533e+06
2.2433e+06
2.22116e+06
2.19892e+06
2.17659e+06
2.15415e+06
2.13164e+06
2.10905e+06
2.0864e+06
2.06369e+06
2.04095e+06
2.01816e+06
1.99534e+06
1.97249e+06
1.9496e+06
1.92669e+06
1.90375e+06
1.88078e+06
1.85779e+06
1.83476e+06
1.8117e+06
1.78862e+06
1.7655e+06
1.74236e+06
1.71919e+06
1.696e+06
1.67279e+06
1.64956e+06
1.62631e+06
1.60305e+06
1.57977e+06
1.55649e+06
1.53319e+06
1.5099e+06
1.4866e+06
1.46331e+06
1.44002e+06
1.41674e+06
1.39347e+06
1.37021e+06
1.34697e+06
1.32375e+06
1.30055e+06
1.27738e+06
1.25424e+06
1.23113e+06
1.20805e+06
1.18502e+06
1.16202e+06
1.13908e+06
1.11619e+06
1.09335e+06
1.07058e+06
1.04787e+06
1.02523e+06
1.00267e+06
980179
957775
935458
913234
891108
869084
847168
825365
803680
782119
760688
739392
718239
697233
676381
655690
635167
614819
594654
574678
554898
535318
515940
496765
477790
459005
3.67515e+06
3.67464e+06
3.67369e+06
3.67229e+06
3.67045e+06
3.66816e+06
3.66541e+06
3.66222e+06
3.65858e+06
3.6545e+06
3.64999e+06
3.64504e+06
3.63967e+06
3.63388e+06
3.62768e+06
3.62108e+06
3.61409e+06
3.60672e+06
3.59897e+06
3.59085e+06
3.58239e+06
3.57357e+06
3.56443e+06
3.55496e+06
3.54517e+06
3.53507e+06
3.52467e+06
3.51398e+06
3.503e+06
3.49174e+06
3.48021e+06
3.46841e+06
3.45636e+06
3.44406e+06
3.43152e+06
3.41874e+06
3.40574e+06
3.39251e+06
3.37907e+06
3.3654e+06
3.35151e+06
3.3374e+06
3.32305e+06
3.30846e+06
3.29363e+06
3.27855e+06
3.26323e+06
3.24768e+06
3.23192e+06
3.21596e+06
3.19981e+06
3.1835e+06
3.16704e+06
3.15043e+06
3.13368e+06
3.11679e+06
3.09974e+06
3.08255e+06
3.06521e+06
3.04772e+06
3.03008e+06
3.01228e+06
2.99434e+06