/*--------------------------------*- C++ -*----------------------------------*\
  =========                 |
  \\      /  F ield         | OpenFOAM: The Open Source CFD Toolbox
   \\    /   O peration     | Website:  https://openfoam.org
    \\  /    A nd           | Version:  10
     \\/     M anipulation  |
\*---------------------------------------------------------------------------*/
FoamFile
{
    format      ascii;
    class       volVectorField;
    location    "1.26";
    object      Ua;
}
// * * * * * * * * * * * * * * * * * * * * * * * * * * * * * * * * * * * * * //

dimensions      [0 1 -1 0 0 0 0];

internalField   nonuniform List<vector> 
12225
(
(3.43492e-05 -4.42097e-06 0)
(0.000100431 -4.14108e-06 0)
(0.000160385 -3.62735e-06 0)
(0.000213273 -3.04908e-06 0)
(0.000259506 -2.52036e-06 0)
(0.000300177 -2.09774e-06 0)
(0.000336574 -1.80045e-06 0)
(0.000369932 -1.63039e-06 0)
(0.000401357 -1.58605e-06 0)
(0.000431838 -1.6716e-06 0)
(0.000462325 -1.9045e-06 0)
(0.000493842 -2.32572e-06 0)
(0.000527673 -3.02004e-06 0)
(0.000565713 -4.16441e-06 0)
(0.000611262 -6.16308e-06 0)
(0.00067128 -1.01126e-05 0)
(0.0007649 -1.99254e-05 0)
(0.000969205 -5.5847e-05 0)
(2.3405e-05 -1.14698e-05 0)
(6.89383e-05 -1.08108e-05 0)
(0.000111362 -9.53514e-06 0)
(0.000149992 -8.07008e-06 0)
(0.000184861 -6.71373e-06 0)
(0.000216439 -5.62103e-06 0)
(0.000245383 -4.8506e-06 0)
(0.000272383 -4.41454e-06 0)
(0.000298105 -4.31457e-06 0)
(0.000323179 -4.56662e-06 0)
(0.00034824 -5.22162e-06 0)
(0.000373991 -6.39371e-06 0)
(0.000401324 -8.31468e-06 0)
(0.000431525 -1.14607e-05 0)
(0.000466717 -1.68942e-05 0)
(0.000510794 -2.73572e-05 0)
(0.00057075 -5.1594e-05 0)
(0.000644977 -0.000125807 0)
(1.81932e-05 -1.58047e-05 0)
(5.39233e-05 -1.50329e-05 0)
(8.79507e-05 -1.33868e-05 0)
(0.000119729 -1.14337e-05 0)
(0.00014914 -9.59034e-06 0)
(0.000176375 -8.08746e-06 0)
(0.000201798 -7.02402e-06 0)
(0.000225837 -6.43154e-06 0)
(0.000248939 -6.32411e-06 0)
(0.000271549 -6.73398e-06 0)
(0.000294134 -7.74264e-06 0)
(0.000317217 -9.522e-06 0)
(0.000341446 -1.24109e-05 0)
(0.000367705 -1.70854e-05 0)
(0.000397261 -2.49843e-05 0)
(0.000431755 -3.94996e-05 0)
(0.000471272 -6.95961e-05 0)
(0.000499198 -0.000140203 0)
(1.48103e-05 -1.86387e-05 0)
(4.41508e-05 -1.78956e-05 0)
(7.26473e-05 -1.60877e-05 0)
(9.98535e-05 -1.38623e-05 0)
(0.000125576 -1.17186e-05 0)
(0.000149847 -9.95003e-06 0)
(0.000172852 -8.6948e-06 0)
(0.000194852 -8.00795e-06 0)
(0.000216148 -7.92008e-06 0)
(0.000237059 -8.48123e-06 0)
(0.000257928 -9.79957e-06 0)
(0.000279135 -1.20909e-05 0)
(0.000301133 -1.57661e-05 0)
(0.000324459 -2.16113e-05 0)
(0.000349675 -3.11936e-05 0)
(0.000376831 -4.78013e-05 0)
(0.000402917 -7.84625e-05 0)
(0.000412556 -0.000136104 0)
(1.23457e-05 -2.03988e-05 0)
(3.70092e-05 -1.9778e-05 0)
(6.14065e-05 -1.7948e-05 0)
(8.517e-05 -1.55976e-05 0)
(0.000108071 -1.32846e-05 0)
(0.000130046 -1.13537e-05 0)
(0.000151157 -9.98042e-06 0)
(0.000171551 -9.24467e-06 0)
(0.00019142 -9.19535e-06 0)
(0.000210983 -9.89981e-06 0)
(0.00023048 -1.14875e-05 0)
(0.000250174 -1.42033e-05 0)
(0.000270341 -1.8494e-05 0)
(0.000291227 -2.5171e-05 0)
(0.000312855 -3.57246e-05 0)
(0.000334349 -5.2888e-05 0)
(0.000351931 -8.12835e-05 0)
(0.000354749 -0.000126034 0)
(1.04387e-05 -2.13045e-05 0)
(3.14645e-05 -2.08727e-05 0)
(5.26302e-05 -1.91209e-05 0)
(7.36321e-05 -1.6755e-05 0)
(9.42309e-05 -1.4373e-05 0)
(0.000114302 -1.23615e-05 0)
(0.000133827 -1.09296e-05 0)
(0.000152865 -1.01818e-05 0)
(0.000171522 -1.01853e-05 0)
(0.000189936 -1.10229e-05 0)
(0.000208261 -1.28388e-05 0)
(0.000226651 -1.58909e-05 0)
(0.000245234 -2.06275e-05 0)
(0.000264025 -2.78128e-05 0)
(0.000282689 -3.8723e-05 0)
(0.000299963 -5.53675e-05 0)
(0.00031244 -8.03353e-05 0)
(0.000313319 -0.000114693 0)
(8.90883e-06 -2.14928e-05 0)
(2.70002e-05 -2.12972e-05 0)
(4.55214e-05 -1.96967e-05 0)
(6.42217e-05 -1.73985e-05 0)
(8.28664e-05 -1.50274e-05 0)
(0.000101297 -1.30027e-05 0)
(0.000119438 -1.15626e-05 0)
(0.000137282 -1.08342e-05 0)
(0.000154867 -1.09016e-05 0)
(0.000172263 -1.186e-05 0)
(0.000189545 -1.3861e-05 0)
(0.000206779 -1.71602e-05 0)
(0.000223969 -2.21774e-05 0)
(0.000240965 -2.95779e-05 0)
(0.000257244 -4.03579e-05 0)
(0.000271508 -5.58341e-05 0)
(0.000281115 -7.71832e-05 0)
(0.000282099 -0.000103761 0)
(7.65233e-06 -2.10618e-05 0)
(2.33197e-05 -2.11339e-05 0)
(3.96232e-05 -1.97354e-05 0)
(5.63563e-05 -1.75676e-05 0)
(7.32999e-05 -1.52716e-05 0)
(9.02798e-05 -1.32904e-05 0)
(0.000107182 -1.18857e-05 0)
(0.000123949 -1.12042e-05 0)
(0.000140564 -1.13442e-05 0)
(0.000157035 -1.24093e-05 0)
(0.000173375 -1.45512e-05 0)
(0.000189572 -1.80098e-05 0)
(0.00020554 -2.31541e-05 0)
(0.000221025 -3.05219e-05 0)
(0.000235447 -4.08243e-05 0)
(0.000247665 -5.48188e-05 0)
(0.000255808 -7.28368e-05 0)
(0.000257678 -9.37354e-05 0)
(6.60364e-06 -2.00902e-05 0)
(2.02352e-05 -2.04466e-05 0)
(3.46461e-05 -1.92815e-05 0)
(4.96683e-05 -1.72891e-05 0)
(6.51062e-05 -1.51189e-05 0)
(8.07829e-05 -1.3229e-05 0)
(9.65599e-05 -1.1898e-05 0)
(0.000112341 -1.12877e-05 0)
(0.000128064 -1.15072e-05 0)
(0.000143688 -1.26642e-05 0)
(0.00015917 -1.49039e-05 0)
(0.00017444 -1.84397e-05 0)
(0.000189347 -2.35768e-05 0)
(0.000203592 -3.07189e-05 0)
(0.00021662 -4.03265e-05 0)
(0.000227518 -5.27591e-05 0)
(0.000235041 -6.79126e-05 0)
(0.00023802 -8.46699e-05 0)
(5.71806e-06 -1.86489e-05 0)
(1.76181e-05 -1.92906e-05 0)
(3.03922e-05 -1.83711e-05 0)
(4.39075e-05 -1.65831e-05 0)
(5.79976e-05 -1.45776e-05 0)
(7.24923e-05 -1.28191e-05 0)
(8.72384e-05 -1.15955e-05 0)
(0.000102111 -1.10782e-05 0)
(0.000117011 -1.13829e-05 0)
(0.000131855 -1.26174e-05 0)
(0.000146558 -1.49145e-05 0)
(0.000161003 -1.84549e-05 0)
(0.000175006 -2.34755e-05 0)
(0.000188259 -3.02562e-05 0)
(0.000200279 -3.90598e-05 0)
(0.000210378 -4.99925e-05 0)
(0.000217765 -6.27691e-05 0)
(0.000221839 -7.64708e-05 0)
(4.96285e-06 -1.68074e-05 0)
(1.53739e-05 -1.7717e-05 0)
(2.67156e-05 -1.70369e-05 0)
(3.88908e-05 -1.5467e-05 0)
(5.17665e-05 -1.36547e-05 0)
(6.51848e-05 -1.20606e-05 0)
(7.89845e-05 -1.09737e-05 0)
(9.30186e-05 -1.05689e-05 0)
(0.000107158 -1.09641e-05 0)
(0.000121287 -1.22629e-05 0)
(0.000135286 -1.45823e-05 0)
(0.000149009 -1.80675e-05 0)
(0.000162255 -2.28906e-05 0)
(0.000174736 -2.92272e-05 0)
(0.000186053 -3.71986e-05 0)
(0.000195713 -4.67674e-05 0)
(0.000203223 -5.76058e-05 0)
(0.00020829 -6.90124e-05 0)
(4.25972e-06 -1.48048e-05 0)
(1.32922e-05 -1.59338e-05 0)
(2.33266e-05 -1.54595e-05 0)
(3.42974e-05 -1.40966e-05 0)
(4.60943e-05 -1.24822e-05 0)
(5.85629e-05 -1.10649e-05 0)
(7.15314e-05 -1.01271e-05 0)
(8.48329e-05 -9.84204e-06 0)
(9.83151e-05 -1.03262e-05 0)
(0.000111837 -1.16768e-05 0)
(0.000125258 -1.39947e-05 0)
(0.000138417 -1.73931e-05 0)
(0.000151114 -2.19911e-05 0)
(0.000163089 -2.78887e-05 0)
(0.000174022 -3.51177e-05 0)
(0.000183551 -4.3572e-05 0)
(0.000191361 -5.29404e-05 0)
(0.000197293 -6.26929e-05 0)
(3.79945e-06 -1.26014e-05 0)
(1.18989e-05 -1.38918e-05 0)
(2.09937e-05 -1.35859e-05 0)
(3.10584e-05 -1.24196e-05 0)
(4.20159e-05 -1.10115e-05 0)
(5.37268e-05 -9.78784e-06 0)
(6.60188e-05 -9.01652e-06 0)
(7.87144e-05 -8.86364e-06 0)
(9.16459e-05 -9.44067e-06 0)
(0.000104655 -1.08367e-05 0)
(0.000117585 -1.31362e-05 0)
(0.000130267 -1.6424e-05 0)
(0.000142504 -2.07765e-05 0)
(0.000154066 -2.62394e-05 0)
(0.000164694 -3.27908e-05 0)
(0.000174127 -4.02984e-05 0)
(0.000182162 -4.84895e-05 0)
(0.000188719 -5.69631e-05 0)
(3.33723e-06 -9.95973e-06 0)
(1.04783e-05 -1.1324e-05 0)
(1.85873e-05 -1.11423e-05 0)
(2.77061e-05 -1.0174e-05 0)
(3.77955e-05 -9.00231e-06 0)
(4.87271e-05 -8.01301e-06 0)
(6.03234e-05 -7.4475e-06 0)
(7.23949e-05 -7.45726e-06 0)
(8.47582e-05 -8.14417e-06 0)
(9.72403e-05 -9.58589e-06 0)
(0.000109672 -1.18487e-05 0)
(0.000121881 -1.49892e-05 0)
(0.000133682 -1.90465e-05 0)
(0.000144878 -2.40245e-05 0)
(0.00015527 -2.98687e-05 0)
(0.000164677 -3.64447e-05 0)
(0.000172979 -4.353e-05 0)
(0.000180143 -5.08337e-05 0)
(2.85084e-06 -6.92802e-06 0)
(8.96735e-06 -8.16402e-06 0)
(1.60259e-05 -8.01631e-06 0)
(2.41738e-05 -7.23491e-06 0)
(3.34016e-05 -6.33012e-06 0)
(4.3574e-05 -5.61991e-06 0)
(5.44945e-05 -5.30295e-06 0)
(6.59544e-05 -5.50763e-06 0)
(7.77549e-05 -6.32137e-06 0)
(8.97105e-05 -7.80775e-06 0)
(0.000101647 -1.00149e-05 0)
(0.000113395 -1.29756e-05 0)
(0.000124792 -1.67013e-05 0)
(0.000135678 -2.11708e-05 0)
(0.00014591 -2.6318e-05 0)
(0.000155371 -3.2023e-05 0)
(0.000163993 -3.8115e-05 0)
(0.000171763 -4.43884e-05 0)
(2.2385e-06 -3.61078e-06 0)
(7.10858e-06 -4.34174e-06 0)
(1.2999e-05 -4.10685e-06 0)
(2.01834e-05 -3.50569e-06 0)
(2.86302e-05 -2.90494e-06 0)
(3.81454e-05 -2.51806e-06 0)
(4.84757e-05 -2.48546e-06 0)
(5.93743e-05 -2.90695e-06 0)
(7.06264e-05 -3.85463e-06 0)
(8.20501e-05 -5.38069e-06 0)
(9.34902e-05 -7.52275e-06 0)
(0.00010481 -1.02988e-05 0)
(0.000115883 -1.37048e-05 0)
(0.000126593 -1.77081e-05 0)
(0.000136838 -2.22427e-05 0)
(0.000146536 -2.72079e-05 0)
(0.000155634 -3.24737e-05 0)
(0.000164112 -3.78933e-05 0)
(1.13272e-06 1.16217e-08 0)
(3.93837e-06 2.69579e-07 0)
(8.19127e-06 6.27361e-07 0)
(1.42001e-05 9.86911e-07 0)
(2.17452e-05 1.24095e-06 0)
(3.05156e-05 1.27816e-06 0)
(4.02354e-05 1.00104e-06 0)
(5.06672e-05 3.33536e-07 0)
(6.15996e-05 -7.79366e-07 0)
(7.28591e-05 -2.42103e-06 0)
(8.43257e-05 -4.62812e-06 0)
(9.58666e-05 -7.34421e-06 0)
(0.000107321 -1.05571e-05 0)
(0.00011855 -1.42296e-05 0)
(0.000129436 -1.83001e-05 0)
(0.00013989 -2.26852e-05 0)
(0.000149847 -2.72856e-05 0)
(0.000159273 -3.19953e-05 0)
(2.66363e-06 4.31946e-06 0)
(8.15451e-06 5.84658e-06 0)
(1.41791e-05 6.52462e-06 0)
(2.10529e-05 6.71775e-06 0)
(2.89032e-05 6.59841e-06 0)
(3.7702e-05 6.19527e-06 0)
(4.73238e-05 5.4844e-06 0)
(5.76005e-05 4.43357e-06 0)
(6.83552e-05 3.0172e-06 0)
(7.94026e-05 1.17407e-06 0)
(9.05393e-05 -1.11133e-06 0)
(0.000101653 -3.90931e-06 0)
(0.000112718 -7.12976e-06 0)
(0.000123651 -1.06475e-05 0)
(0.000134343 -1.44113e-05 0)
(0.000144706 -1.83575e-05 0)
(0.000154676 -2.24155e-05 0)
(0.000164213 -2.65131e-05 0)
(3.71768e-06 1.02384e-05 0)
(1.14048e-05 1.25916e-05 0)
(1.9604e-05 1.36489e-05 0)
(2.83532e-05 1.37914e-05 0)
(3.76944e-05 1.33168e-05 0)
(4.76243e-05 1.24005e-05 0)
(5.80851e-05 1.11327e-05 0)
(6.89786e-05 9.5566e-06 0)
(8.01854e-05 7.69414e-06 0)
(9.15793e-05 5.55951e-06 0)
(0.000103038 3.16873e-06 0)
(0.000114405 3.99592e-07 0)
(0.000125508 -2.65698e-06 0)
(0.000136316 -6.05272e-06 0)
(0.000146831 -9.55004e-06 0)
(0.000157 -1.31075e-05 0)
(0.000166784 -1.66809e-05 0)
(0.000176164 -2.02269e-05 0)
(4.23892e-06 1.67869e-05 0)
(1.30858e-05 1.9127e-05 0)
(2.26135e-05 2.01432e-05 0)
(3.27324e-05 2.009e-05 0)
(4.33812e-05 1.9262e-05 0)
(5.44934e-05 1.78914e-05 0)
(6.59842e-05 1.61362e-05 0)
(7.77522e-05 1.4097e-05 0)
(8.96873e-05 1.18369e-05 0)
(0.000101679 9.3968e-06 0)
(0.000113624 6.80659e-06 0)
(0.000125427 4.09112e-06 0)
(0.000137009 1.27081e-06 0)
(0.000148216 -1.81098e-06 0)
(0.000159004 -5.07033e-06 0)
(0.000169428 -8.30462e-06 0)
(0.000179455 -1.14888e-05 0)
(0.000189068 -1.45986e-05 0)
(5.04789e-06 2.23954e-05 0)
(1.54986e-05 2.42816e-05 0)
(2.66039e-05 2.49195e-05 0)
(3.82542e-05 2.44939e-05 0)
(5.03452e-05 2.32776e-05 0)
(6.27748e-05 2.15138e-05 0)
(7.5438e-05 1.93846e-05 0)
(8.82271e-05 1.70148e-05 0)
(0.000101036 1.4486e-05 0)
(0.000113764 1.1851e-05 0)
(0.000126322 9.14556e-06 0)
(0.000138629 6.39591e-06 0)
(0.000150622 3.62403e-06 0)
(0.000162247 8.39331e-07 0)
(0.000173394 -2.12834e-06 0)
(0.00018404 -5.12981e-06 0)
(0.000194249 -8.03762e-06 0)
(0.000204012 -1.08391e-05 0)
(6.03913e-06 2.69143e-05 0)
(1.84163e-05 2.82634e-05 0)
(3.13477e-05 2.84239e-05 0)
(4.47276e-05 2.75688e-05 0)
(5.84297e-05 2.59612e-05 0)
(7.23283e-05 2.38463e-05 0)
(8.63026e-05 2.14147e-05 0)
(0.00010024 1.88004e-05 0)
(0.000114036 1.60917e-05 0)
(0.000127602 1.33447e-05 0)
(0.000140858 1.05951e-05 0)
(0.000153742 7.86626e-06 0)
(0.000166204 5.17524e-06 0)
(0.000178207 2.53572e-06 0)
(0.000189709 -8.66447e-08 0)
(0.000200662 -2.81695e-06 0)
(0.000211073 -5.46592e-06 0)
(0.000220982 -7.98809e-06 0)
(7.23996e-06 3.0065e-05 0)
(2.19373e-05 3.09011e-05 0)
(3.70316e-05 3.05885e-05 0)
(5.24177e-05 2.93218e-05 0)
(6.79567e-05 2.73669e-05 0)
(8.35091e-05 2.49695e-05 0)
(9.89465e-05 2.23206e-05 0)
(0.000114156 1.95541e-05 0)
(0.000129043 1.6757e-05 0)
(0.000143528 1.39827e-05 0)
(0.000157549 1.12627e-05 0)
(0.000171062 8.61523e-06 0)
(0.000184032 6.05114e-06 0)
(0.000196439 3.57765e-06 0)
(0.000208274 1.20011e-06 0)
(0.000219493 -1.19397e-06 0)
(0.000230104 -3.58488e-06 0)
(0.000240162 -5.83833e-06 0)
(8.68874e-06 3.17239e-05 0)
(2.61799e-05 3.21124e-05 0)
(4.3855e-05 3.13893e-05 0)
(6.1598e-05 2.97814e-05 0)
(7.92597e-05 2.75627e-05 0)
(9.66944e-05 2.49773e-05 0)
(0.000113775 2.22116e-05 0)
(0.000130399 1.93932e-05 0)
(0.000146485 1.66026e-05 0)
(0.000161975 1.38866e-05 0)
(0.000176826 1.127e-05 0)
(0.000191014 8.76458e-06 0)
(0.000204527 6.37484e-06 0)
(0.000217362 4.10188e-06 0)
(0.000229527 1.9452e-06 0)
(0.000241027 -1.22341e-07 0)
(0.000251857 -2.23438e-06 0)
(0.000262045 -4.22239e-06 0)
(1.04443e-05 3.18481e-05 0)
(3.13164e-05 3.18717e-05 0)
(5.20947e-05 3.08336e-05 0)
(7.26373e-05 2.89899e-05 0)
(9.27837e-05 2.66198e-05 0)
(0.00011239 2.39619e-05 0)
(0.000131342 2.11929e-05 0)
(0.000149557 1.84297e-05 0)
(0.000166979 1.5743e-05 0)
(0.000183577 1.31706e-05 0)
(0.000199337 1.07296e-05 0)
(0.000214262 8.4252e-06 0)
(0.000228361 6.25598e-06 0)
(0.000241657 4.21786e-06 0)
(0.000254175 2.30577e-06 0)
(0.000265947 5.14686e-07 0)
(0.000276974 -1.28605e-06 0)
(0.000287291 -3.00927e-06 0)
(1.26017e-05 3.04238e-05 0)
(3.76228e-05 3.0174e-05 0)
(6.21885e-05 2.89376e-05 0)
(8.61134e-05 2.69875e-05 0)
(0.000109225 2.45999e-05 0)
(0.00013139 2.20011e-05 0)
(0.00015252 1.93524e-05 0)
(0.000172566 1.67569e-05 0)
(0.000191513 1.42729e-05 0)
(0.000209368 1.19287e-05 0)
(0.000226153 9.73373e-06 0)
(0.000241904 7.68707e-06 0)
(0.000256663 5.78266e-06 0)
(0.000270474 4.01245e-06 0)
(0.000283389 2.36806e-06 0)
(0.000295455 8.41487e-07 0)
(0.000306701 -6.40328e-07 0)
(0.000317174 -2.09724e-06 0)
(1.53288e-05 2.74212e-05 0)
(4.55877e-05 2.69963e-05 0)
(7.4911e-05 2.56947e-05 0)
(0.000103049 2.37876e-05 0)
(0.000129818 2.15348e-05 0)
(0.000155105 1.91407e-05 0)
(0.000178867 1.67459e-05 0)
(0.00020111 1.4436e-05 0)
(0.000221874 1.22563e-05 0)
(0.000241219 1.02255e-05 0)
(0.000259219 8.34637e-06 0)
(0.00027595 6.6135e-06 0)
(0.000291493 5.01755e-06 0)
(0.000305924 3.54815e-06 0)
(0.00031932 2.19518e-06 0)
(0.000331754 9.49333e-07 0)
(0.00034328 -2.22243e-07 0)
(0.00035396 -1.41049e-06 0)
(1.89689e-05 2.27317e-05 0)
(5.62104e-05 2.22396e-05 0)
(9.18513e-05 2.10249e-05 0)
(0.000125549 1.93331e-05 0)
(0.000157106 1.73892e-05 0)
(0.000186453 1.53642e-05 0)
(0.000213617 1.33711e-05 0)
(0.000238686 1.14756e-05 0)
(0.000261782 9.70928e-06 0)
(0.000283042 8.08255e-06 0)
(0.000302607 6.59339e-06 0)
(0.000320613 5.23369e-06 0)
(0.000337187 3.99294e-06 0)
(0.000352449 2.86033e-06 0)
(0.000366507 1.8257e-06 0)
(0.000379464 8.79986e-07 0)
(0.000391411 1.1522e-08 0)
(0.000402415 -8.95946e-07 0)
(2.44229e-05 1.60233e-05 0)
(7.21209e-05 1.55912e-05 0)
(0.000117204 1.465e-05 0)
(0.000159186 1.33869e-05 0)
(0.000197858 1.19676e-05 0)
(0.000233227 1.05136e-05 0)
(0.000265437 9.10282e-06 0)
(0.00029471 7.77769e-06 0)
(0.000321298 6.55684e-06 0)
(0.000345456 5.4441e-06 0)
(0.000367425 4.43522e-06 0)
(0.000387426 3.52224e-06 0)
(0.00040566 2.696e-06 0)
(0.000422304 1.94752e-06 0)
(0.000437517 1.26859e-06 0)
(0.000451437 6.5205e-07 0)
(0.000464191 9.17292e-08 0)
(0.00047589 -5.23508e-07 0)
(3.64304e-05 6.06348e-06 0)
(0.00010722 5.88018e-06 0)
(0.000173322 5.50446e-06 0)
(0.000233969 5.01057e-06 0)
(0.000288945 4.46283e-06 0)
(0.000338424 3.90755e-06 0)
(0.000382805 3.37353e-06 0)
(0.000422587 2.87597e-06 0)
(0.000458285 2.42092e-06 0)
(0.00049039 2.00899e-06 0)
(0.000519345 1.63787e-06 0)
(0.000545536 1.304e-06 0)
(0.000569303 1.0035e-06 0)
(0.000590934 7.32655e-07 0)
(0.000610679 4.88128e-07 0)
(0.000628752 2.67017e-07 0)
(0.00064534 6.67872e-08 0)
(0.000660516 -1.67217e-07 0)
(0.000181824 -0.00038864 -5.02091e-30)
(0.000546673 -0.000387507 5.00196e-30)
(0.000912974 -0.000385388 0)
(0.00127978 -0.000382264 0)
(0.00164609 -0.000378131 0)
(0.00201093 -0.000373005 -4.79723e-30)
(0.00237327 -0.000366929 0)
(0.00273216 -0.000359972 0)
(0.00308668 -0.000352225 0)
(0.00343599 -0.000343779 0)
(0.00377932 -0.000334709 4.28139e-30)
(0.00411592 -0.000325053 0)
(0.00444506 -0.000314822 0)
(0.00476601 -0.000304016 0)
(0.00507801 -0.000292648 0)
(0.00538033 -0.000280765 3.56529e-30)
(0.00567227 -0.00026844 0)
(0.00595323 -0.000255767 0)
(0.00622268 -0.000242848 0)
(0.0064802 -0.000229786 0)
(0.00672548 -0.000216681 0)
(0.00695829 -0.000203623 0)
(0.00717852 -0.000190699 0)
(0.00738614 -0.000177986 2.21322e-30)
(0.00758121 -0.000165557 -2.05028e-30)
(0.00776386 -0.00015348 1.89204e-30)
(0.00793432 -0.000141818 1.7393e-30)
(0.0080929 -0.000130627 0)
(0.00823997 -0.000119955 0)
(0.00837595 -0.000109842 -1.32079e-30)
(0.00850135 -0.000100317 -1.19621e-30)
(0.0086167 -9.13985e-05 0)
(0.00872256 -8.30953e-05 0)
(0.00881952 -7.5405e-05 -8.70475e-31)
(0.00890817 -6.83161e-05 0)
(0.0089891 -6.181e-05 0)
(0.0090629 -5.58614e-05 6.15007e-31)
(0.00913013 -5.04409e-05 0)
(0.00919132 -4.55158e-05 4.79776e-31)
(0.00924698 -4.10518e-05 8.4285e-31)
(0.0092976 -3.70142e-05 0)
(0.00934362 -3.33683e-05 0)
(0.00938545 -3.00807e-05 0)
(0.00942348 -2.71194e-05 0)
(0.00945806 -2.44542e-05 0)
(0.0094895 -2.20571e-05 3.46121e-31)
(0.0095181 -1.99021e-05 2.89743e-31)
(0.00954414 -1.79653e-05 2.39064e-31)
(0.00956784 -1.62251e-05 0)
(0.00958943 -1.46615e-05 -1.52591e-31)
(0.00960911 -1.32566e-05 0)
(0.00962706 -1.19942e-05 8.27548e-32)
(0.00964344 -1.08596e-05 5.30369e-32)
(0.00965841 -9.83969e-06 0)
(0.00967209 -8.92259e-06 0)
(0.0096846 -8.09763e-06 0)
(0.00969606 -7.35525e-06 -3.8786e-32)
(0.00970656 -6.68686e-06 0)
(0.00971619 -6.08475e-06 0)
(0.00972503 -5.54204e-06 0)
(0.00973315 -5.05254e-06 0)
(0.00974063 -4.61071e-06 0)
(0.00974751 -4.2116e-06 0)
(0.00975385 -3.85078e-06 0)
(0.0097597 -3.5243e-06 0)
(0.0097651 -3.22859e-06 1.4709e-31)
(0.0097701 -2.96051e-06 0)
(0.00977472 -2.71722e-06 0)
(0.00977899 -2.4962e-06 -1.66348e-31)
(0.00978296 -2.29518e-06 -1.71642e-31)
(0.00978664 -2.11216e-06 0)
(0.00979005 -1.94533e-06 1.80849e-31)
(0.00979323 -1.79309e-06 -1.84861e-31)
(0.00979618 -1.654e-06 0)
(0.00979893 -1.52679e-06 1.91881e-31)
(0.00980149 -1.41029e-06 0)
(0.00980387 -1.3035e-06 0)
(0.00980609 -1.20549e-06 -2.00352e-31)
(0.00980817 -1.11544e-06 0)
(0.0098101 -1.03263e-06 2.04916e-31)
(0.00981191 -9.56387e-07 0)
(0.0098136 -8.86127e-07 -2.08788e-31)
(0.00981518 -8.21319e-07 -2.10499e-31)
(0.00981666 -7.61487e-07 -2.1208e-31)
(0.00981804 -7.06202e-07 -4.27081e-31)
(0.00981933 -6.55079e-07 4.2979e-31)
(0.00982054 -6.0777e-07 0)
(0.00982167 -5.63959e-07 0)
(0.00982273 -5.23362e-07 0)
(0.00982372 -4.85721e-07 4.38749e-31)
(0.00982465 -4.50803e-07 4.406e-31)
(0.00982552 -4.18395e-07 -4.42315e-31)
(0.00982633 -3.88304e-07 0)
(0.00982709 -3.60354e-07 4.45389e-31)
(0.0098278 -3.34384e-07 4.4677e-31)
(0.00982847 -3.10246e-07 4.48049e-31)
(0.0098291 -2.87808e-07 0)
(0.00982968 -2.66944e-07 0)
(0.00983023 -2.47541e-07 0)
(0.00983074 -2.29497e-07 4.5233e-31)
(0.00983122 -2.12714e-07 0)
(0.00983166 -1.97104e-07 0)
(0.00983208 -1.82585e-07 -4.54815e-31)
(0.00983247 -1.69081e-07 0)
(0.00983284 -1.56524e-07 0)
(0.00983318 -1.44847e-07 -4.5682e-31)
(0.00983349 -1.33991e-07 0)
(0.00983379 -1.239e-07 0)
(0.00983407 -1.14521e-07 4.58429e-31)
(0.00983432 -1.05807e-07 4.58892e-31)
(0.00983456 -9.7713e-08 0)
(0.00983479 -9.01961e-08 -4.59724e-31)
(0.009835 -8.32177e-08 0)
(0.00983519 -7.67411e-08 4.60436e-31)
(0.00983537 -7.07324e-08 0)
(0.00983554 -6.51595e-08 4.61053e-31)
(0.00983569 -5.99928e-08 4.61323e-31)
(0.00983584 -5.52043e-08 0)
(0.00983597 -5.07679e-08 0)
(0.0098361 -4.66592e-08 0)
(0.00983621 -4.28552e-08 0)
(0.00983632 -3.93344e-08 0)
(0.00983642 -3.60764e-08 0)
(0.00983651 -3.30625e-08 0)
(0.00983659 -3.02745e-08 4.62907e-31)
(0.00983667 -2.76954e-08 -4.63039e-31)
(0.00983674 -2.53093e-08 0)
(0.00983681 -2.31008e-08 0)
(0.00983687 -2.10554e-08 0)
(0.00983693 -1.91589e-08 0)
(0.00983698 -1.73978e-08 -9.27174e-31)
(0.00983703 -1.57587e-08 0)
(0.00983707 -1.42286e-08 9.27512e-31)
(0.00983711 -1.27942e-08 -9.27665e-31)
(0.00983714 -1.14421e-08 0)
(0.00983718 -1.01585e-08 0)
(0.0098372 -8.92867e-09 0)
(0.00983723 -7.73692e-09 9.28203e-31)
(0.00983725 -6.56602e-09 9.28326e-31)
(0.00983727 -5.39651e-09 0)
(0.00983728 -4.20642e-09 9.2857e-31)
(0.0098373 -2.97027e-09 9.28695e-31)
(0.0098373 -1.65791e-09 -9.28836e-31)
(0.00983731 -2.33699e-10 0)
(0.0098373 1.34531e-09 0)
(0.0098373 3.1313e-09 -9.29331e-31)
(0.00983728 5.18816e-09 0)
(0.00983726 7.59438e-09 0)
(0.00983723 1.04473e-08 0)
(0.00983719 1.38676e-08 0)
(0.00983714 1.80062e-08 9.30852e-31)
(0.00983707 2.30517e-08 9.31367e-31)
(0.00983698 2.92412e-08 0)
(0.00983686 3.6873e-08 9.32778e-31)
(0.00983672 4.63241e-08 0)
(0.00983653 5.80718e-08 0)
(0.0098363 7.27219e-08 9.36431e-31)
(0.009836 9.10458e-08 0)
(0.00983562 1.14029e-07 9.40641e-31)
(0.00983515 1.42935e-07 0)
(0.00983455 1.79386e-07 0)
(0.00983379 2.25481e-07 9.51989e-31)
(0.00983282 2.83942e-07 0)
(0.00983159 3.58322e-07 9.65516e-31)
(0.00983002 4.53287e-07 0)
(0.00982802 5.75019e-07 0)
(0.00982544 7.31783e-07 0)
(0.00982213 9.34763e-07 -1.02423e-30)
(0.00981784 1.19932e-06 0)
(0.00981227 1.54691e-06 1.08659e-30)
(0.00980499 2.00828e-06 0)
(0.0097954 2.62864e-06 0)
(0.00978266 3.47713e-06 0)
(0.0097655 4.6645e-06 0)
(0.00974199 6.37973e-06 0)
(0.00970899 8.97365e-06 0)
(0.00966091 1.31791e-05 0)
(0.0095864 2.08139e-05 -6.11484e-30)
(0.00945684 3.7706e-05 0)
(0.00916971 9.06728e-05 0)
(0.000183874 -0.00117031 1.51193e-29)
(0.000552839 -0.0011669 -1.50622e-29)
(0.00092327 -0.00116052 0)
(0.00129418 -0.00115107 2.96933e-29)
(0.00166453 -0.0011385 0)
(0.0020332 -0.00112285 -1.44884e-29)
(0.00239909 -0.00110424 -2.84307e-29)
(0.00276115 -0.00108293 -2.78627e-29)
(0.00311842 -0.00105925 0)
(0.00347011 -0.00103356 -2.6553e-29)
(0.00381554 -0.00100614 1.29591e-29)
(0.00415413 -0.000977095 0)
(0.0044852 -0.000946356 0)
(0.00480802 -0.000913835 0)
(0.00512174 -0.00087953 0)
(0.00542553 -0.000843581 1.0839e-29)
(0.0057186 -0.000806246 0)
(0.00600031 -0.000767849 1.95651e-29)
(0.00627011 -0.000728729 0)
(0.0065276 -0.000689211 0)
(0.0067725 -0.000649596 -1.64718e-29)
(0.00700463 -0.000610158 0)
(0.00722389 -0.000571151 1.44228e-29)
(0.00743028 -0.000532805 6.79862e-30)
(0.00762389 -0.000495336 -6.31207e-30)
(0.00780487 -0.000458948 5.83962e-30)
(0.0079735 -0.000423828 5.38372e-30)
(0.00813008 -0.000390148 0)
(0.00827502 -0.000358057 0)
(0.00840881 -0.000327675 -4.13583e-30)
(0.00853196 -0.000299089 -1.10933e-29)
(0.00864505 -0.000272354 0)
(0.00874867 -0.000247492 0)
(0.00884345 -0.000224491 -2.79709e-30)
(0.00893 -0.000203313 0)
(0.00900894 -0.000183895 0)
(0.00908086 -0.000166158 2.04035e-30)
(0.00914633 -0.00015001 0)
(0.0092059 -0.000135347 4.70461e-30)
(0.00926008 -0.000122066 2.93671e-30)
(0.00930934 -0.000110059 0)
(0.00935412 -9.92211e-05 0)
(0.00939484 -8.9451e-05 -3.73728e-30)
(0.00943186 -8.06524e-05 -3.2789e-30)
(0.00946553 -7.27347e-05 -2.8664e-30)
(0.00949617 -6.56138e-05 3.96724e-30)
(0.00952405 -5.92122e-05 1.30574e-30)
(0.00954943 -5.34587e-05 -7.05503e-31)
(0.00957256 -4.82886e-05 1.59246e-30)
(0.00959363 -4.36428e-05 -9.01643e-31)
(0.00961286 -3.94682e-05 0)
(0.0096304 -3.57164e-05 6.95883e-31)
(0.00964642 -3.23442e-05 1.3695e-30)
(0.00966106 -2.93122e-05 0)
(0.00967445 -2.65854e-05 0)
(0.00968671 -2.41322e-05 0)
(0.00969794 -2.19242e-05 3.37767e-31)
(0.00970824 -1.99358e-05 0)
(0.00971769 -1.81443e-05 2.03297e-32)
(0.00972637 -1.65293e-05 0)
(0.00973435 -1.50722e-05 -1.40067e-31)
(0.0097417 -1.37569e-05 0)
(0.00974847 -1.25685e-05 2.70843e-31)
(0.00975471 -1.14939e-05 0)
(0.00976047 -1.05213e-05 -3.77817e-31)
(0.0097658 -9.64025e-06 4.05232e-31)
(0.00977072 -8.84133e-06 0)
(0.00977528 -8.11615e-06 5.0355e-31)
(0.0097795 -7.4572e-06 -3.8121e-32)
(0.00978342 -6.85777e-06 -5.3713e-32)
(0.00978705 -6.31189e-06 0)
(0.00979043 -5.8142e-06 7.04841e-31)
(0.00979357 -5.35995e-06 -9.26683e-32)
(0.00979649 -4.94485e-06 0)
(0.00979921 -4.5651e-06 1.13349e-31)
(0.00980174 -4.2173e-06 7.07618e-31)
(0.0098041 -3.8984e-06 0)
(0.0098063 -3.60568e-06 -1.38313e-31)
(0.00980836 -3.3367e-06 0)
(0.00981028 -3.08928e-06 -6.14987e-31)
(0.00981207 -2.86145e-06 0)
(0.00981375 -2.65147e-06 6.26547e-31)
(0.00981531 -2.45775e-06 -1.68201e-31)
(0.00981678 -2.27888e-06 -9.82112e-31)
(0.00981815 -2.11359e-06 -1.99018e-30)
(0.00981943 -1.96072e-06 2.01421e-30)
(0.00982063 -1.81923e-06 0)
(0.00982176 -1.68819e-06 0)
(0.00982281 -1.56675e-06 0)
(0.00982379 -1.45415e-06 -1.31642e-30)
(0.00982472 -1.34967e-06 3.94133e-31)
(0.00982558 -1.2527e-06 -3.99185e-31)
(0.00982639 -1.16266e-06 0)
(0.00982714 -1.07901e-06 2.15276e-30)
(0.00982785 -1.00129e-06 4.12294e-31)
(0.00982852 -9.29041e-07 4.1606e-31)
(0.00982914 -8.61875e-07 0)
(0.00982972 -7.9942e-07 0)
(0.00983026 -7.41337e-07 0)
(0.00983077 -6.87315e-07 4.28663e-31)
(0.00983125 -6.37067e-07 0)
(0.00983169 -5.90329e-07 1.79591e-30)
(0.00983211 -5.46856e-07 1.3645e-30)
(0.00983249 -5.06423e-07 -1.80474e-30)
(0.00983286 -4.6882e-07 0)
(0.00983319 -4.33854e-07 -2.25426e-30)
(0.00983351 -4.01344e-07 0)
(0.00983381 -3.71123e-07 -1.81898e-30)
(0.00983408 -3.43037e-07 2.26855e-30)
(0.00983434 -3.16939e-07 2.27266e-30)
(0.00983458 -2.92697e-07 0)
(0.0098348 -2.70184e-07 1.37918e-30)
(0.00983501 -2.49283e-07 -1.8318e-30)
(0.0098352 -2.29884e-07 4.52519e-31)
(0.00983538 -2.11887e-07 0)
(0.00983555 -1.95195e-07 4.54331e-31)
(0.0098357 -1.79719e-07 -1.384e-30)
(0.00983584 -1.65376e-07 0)
(0.00983598 -1.52087e-07 -1.84203e-30)
(0.0098361 -1.3978e-07 -1.84333e-30)
(0.00983622 -1.28385e-07 -1.84453e-30)
(0.00983632 -1.17839e-07 0)
(0.00983642 -1.0808e-07 0)
(0.00983651 -9.90511e-08 0)
(0.0098366 -9.06996e-08 2.30828e-30)
(0.00983668 -8.2974e-08 -4.60182e-31)
(0.00983675 -7.58264e-08 0)
(0.00983681 -6.92109e-08 1.85076e-30)
(0.00983687 -6.30838e-08 1.85141e-30)
(0.00983693 -5.74031e-08 0)
(0.00983698 -5.21281e-08 -9.23583e-31)
(0.00983703 -4.72188e-08 3.70616e-30)
(0.00983707 -4.2636e-08 9.24575e-31)
(0.00983711 -3.83403e-08 -4.63304e-30)
(0.00983715 -3.42915e-08 0)
(0.00983718 -3.04481e-08 0)
(0.00983721 -2.67664e-08 0)
(0.00983723 -2.31992e-08 9.26605e-31)
(0.00983725 -1.9695e-08 4.6389e-30)
(0.00983727 -1.61958e-08 3.71266e-30)
(0.00983729 -1.2636e-08 9.27698e-31)
(0.0098373 -8.9392e-09 4.64225e-30)
(0.00983731 -5.01578e-09 -9.28489e-31)
(0.00983731 -7.59096e-10 0)
(0.00983731 3.95918e-09 0)
(0.0098373 9.29487e-09 -4.64791e-30)
(0.00983729 1.54386e-08 0)
(0.00983727 2.26248e-08 0)
(0.00983724 3.1144e-08 3.72244e-30)
(0.0098372 4.13566e-08 0)
(0.00983714 5.3713e-08 4.66161e-30)
(0.00983707 6.87764e-08 9.36096e-31)
(0.00983699 8.72544e-08 0)
(0.00983687 1.10038e-07 4.67896e-30)
(0.00983673 1.38252e-07 0)
(0.00983655 1.73322e-07 0)
(0.00983631 2.17055e-07 9.51357e-31)
(0.00983602 2.71755e-07 3.77174e-30)
(0.00983565 3.40362e-07 9.64046e-31)
(0.00983519 4.26645e-07 0)
(0.0098346 5.35451e-07 0)
(0.00983385 6.73036e-07 4.85217e-30)
(0.00983289 8.4752e-07 0)
(0.00983168 1.0695e-06 4.97413e-30)
(0.00983014 1.35288e-06 0)
(0.00982816 1.71609e-06 0)
(0.00982563 2.18374e-06 0)
(0.00982236 2.78911e-06 -1.21598e-30)
(0.00981814 3.57785e-06 0)
(0.00981267 4.61371e-06 1.40373e-30)
(0.00980552 5.98775e-06 0)
(0.00979611 7.8337e-06 0)
(0.00978363 1.03552e-05 5.83716e-30)
(0.00976687 1.3877e-05 -6.55911e-30)
(0.00974401 1.89488e-05 0)
(0.00971215 2.6578e-05 0)
(0.00966635 3.88205e-05 0)
(0.00959755 6.05418e-05 1.79579e-29)
(0.00948822 0.000105853 0)
(0.00931574 0.000227915 -1.01301e-28)
(0.00018798 -0.00196514 1.01573e-28)
(0.000565214 -0.00195949 -1.34496e-32)
(0.00094405 -0.00194893 0)
(0.00132349 -0.00193311 3.13506e-32)
(0.00170229 -0.00191163 0)
(0.00207904 -0.00188459 0)
(0.00245237 -0.00185221 -9.54675e-29)
(0.00282089 -0.00181491 -4.67812e-29)
(0.00318347 -0.0017736 4.56209e-29)
(0.00353943 -0.00172943 -4.45375e-29)
(0.00388856 -0.00168316 0)
(0.00423079 -0.0016348 0)
(0.00456575 -0.00158376 -4.06157e-29)
(0.0048926 -0.0015294 -7.83746e-29)
(0.00521015 -0.00147152 7.53372e-29)
(0.00551717 -0.00141046 0)
(0.00581264 -0.00134688 6.88085e-29)
(0.00609583 -0.00128153 3.28389e-29)
(0.00636624 -0.00121507 0)
(0.00662356 -0.00114807 5.84156e-29)
(0.00686758 -0.00108105 -2.76203e-29)
(0.0070982 -0.00101446 -5.14404e-29)
(0.00731541 -0.000948678 2.41773e-29)
(0.00751925 -0.000884088 0)
(0.00770985 -0.000821035 4.13542e-29)
(0.00788742 -0.000759855 3.81661e-29)
(0.00805226 -0.000700871 0)
(0.00820474 -0.00064438 3.21513e-29)
(0.00834535 -0.000590642 0)
(0.00847462 -0.000539864 2.67097e-29)
(0.00859316 -0.000492193 -1.23171e-29)
(0.00870163 -0.000447713 0)
(0.00880071 -0.000406446 0)
(0.00889106 -0.000368359 0)
(0.00897337 -0.00033337 0)
(0.00904828 -0.000301356 0)
(0.00911643 -0.000272169 0)
(0.00917839 -0.00024564 1.13991e-29)
(0.00923473 -0.000221587 -4.85575e-30)
(0.00928594 -0.000199824 0)
(0.0093325 -0.000180169 0)
(0.00937484 -0.00016244 0)
(0.00941335 -0.000146466 -1.29218e-29)
(0.00944838 -0.000132086 -5.9364e-30)
(0.00948027 -0.000119148 -4.47659e-31)
(0.00950931 -0.000107514 4.49025e-31)
(0.00953576 -9.70546e-05 -3.6668e-30)
(0.00955987 -8.76534e-05 -3.62876e-30)
(0.00958186 -7.92041e-05 5.92728e-30)
(0.00960192 -7.16102e-05 2.34198e-30)
(0.00962024 -6.47847e-05 0)
(0.00963698 -5.86489e-05 1.66693e-30)
(0.00965229 -5.31321e-05 3.21489e-30)
(0.00966629 -4.81705e-05 0)
(0.00967912 -4.37068e-05 0)
(0.00969087 -3.96895e-05 -6.79129e-31)
(0.00970166 -3.60725e-05 0)
(0.00971156 -3.28141e-05 0)
(0.00972065 -2.98773e-05 9.6188e-31)
(0.00972902 -2.72286e-05 5.90284e-32)
(0.00973673 -2.48382e-05 3.64598e-31)
(0.00974383 -2.26794e-05 0)
(0.00975038 -2.07281e-05 -1.50822e-31)
(0.00975642 -1.8963e-05 0)
(0.00976201 -1.73648e-05 -9.94358e-31)
(0.00976718 -1.59165e-05 9.95217e-32)
(0.00977196 -1.46025e-05 1.25864e-30)