/*--------------------------------*- C++ -*----------------------------------*\
  =========                 |
  \\      /  F ield         | OpenFOAM: The Open Source CFD Toolbox
   \\    /   O peration     | Website:  https://openfoam.org
    \\  /    A nd           | Version:  10
     \\/     M anipulation  |
\*---------------------------------------------------------------------------*/
FoamFile
{
    format      ascii;
    class       surfaceScalarField;
    location    "10900";
    object      phi;
}
// * * * * * * * * * * * * * * * * * * * * * * * * * * * * * * * * * * * * * //

dimensions      [0 3 -1 0 0 0 0];

internalField   nonuniform List<scalar> 
12640
(
-1.45059e-08
1.45059e-08
-2.90971e-08
1.45912e-08
-4.38609e-08
1.47638e-08
-5.88891e-08
1.50282e-08
-7.42803e-08
1.53912e-08
-9.01431e-08
1.58627e-08
-1.06599e-07
1.64562e-08
-1.23789e-07
1.71896e-08
-1.41876e-07
1.80868e-08
-1.61055e-07
1.91795e-08
-1.81566e-07
2.05105e-08
-2.03704e-07
2.21378e-08
-2.27845e-07
2.41418e-08
-2.54482e-07
2.66363e-08
-2.84269e-07
2.97875e-08
-3.18115e-07
3.38462e-08
-3.57322e-07
3.9207e-08
-4.03848e-07
4.65253e-08
-4.60806e-07
5.69585e-08
-5.33504e-07
7.26976e-08
-6.31457e-07
9.79533e-08
-7.65679e-07
1.34222e-07
-6.99866e-07
-6.5813e-08
-4.18625e-06
3.48638e-06
-5.20208e-06
1.01583e-06
-5.32754e-06
1.2546e-07
-5.28585e-06
-4.16829e-08
-5.09996e-06
-1.8589e-07
-4.87342e-06
-2.26546e-07
-5.07631e-06
2.02894e-07
-5.0499e-06
-2.64115e-08
-4.80127e-06
-2.48626e-07
-4.63335e-06
-1.67927e-07
-4.40195e-06
-2.31398e-07
-4.06757e-06
-3.34375e-07
-3.58871e-06
-4.78867e-07
-2.93033e-06
-6.58377e-07
-2.0857e-06
-8.44633e-07
-1.08645e-06
-9.9925e-07
6.76947e-19
-1.08645e-06
1.08645e-06
-1.08645e-06
2.0857e-06
-9.9925e-07
2.93033e-06
-8.44633e-07
3.58871e-06
-6.58377e-07
4.06757e-06
-4.78867e-07
4.40195e-06
-3.34375e-07
4.63335e-06
-2.31398e-07
4.80127e-06
-1.67927e-07
5.0499e-06
-2.48626e-07
5.07631e-06
-2.64115e-08
4.87342e-06
2.02894e-07
5.09996e-06
-2.26546e-07
5.28585e-06
-1.8589e-07
5.32754e-06
-4.16829e-08
5.20208e-06
1.2546e-07
4.18625e-06
1.01583e-06
6.99866e-07
3.48638e-06
7.65679e-07
-6.5813e-08
6.31457e-07
1.34222e-07
5.33504e-07
9.79533e-08
4.60806e-07
7.26976e-08
4.03848e-07
5.69585e-08
3.57322e-07
4.65253e-08
3.18115e-07
3.9207e-08
2.84269e-07
3.38462e-08
2.54482e-07
2.97875e-08
2.27845e-07
2.66363e-08
2.03704e-07
2.41418e-08
1.81566e-07
2.21378e-08
1.61055e-07
2.05105e-08
1.41876e-07
1.91795e-08
1.23789e-07
1.80868e-08
1.06599e-07
1.71896e-08
9.01431e-08
1.64562e-08
7.42803e-08
1.58627e-08
5.88891e-08
1.53912e-08
4.38609e-08
1.50282e-08
2.90971e-08
1.47638e-08
1.45059e-08
1.45912e-08
1.45059e-08
-1.59064e-08
3.04124e-08
-3.19063e-08
3.0591e-08
-4.80952e-08
3.09528e-08
-6.45738e-08
3.15068e-08
-8.14501e-08
3.22675e-08
-9.8843e-08
3.32556e-08
-1.16886e-07
3.44992e-08
-1.35732e-07
3.60358e-08
-1.55561e-07
3.79155e-08
-1.76586e-07
4.02048e-08
-1.99069e-07
4.29929e-08
-2.23332e-07
4.64013e-08
-2.49788e-07
5.05978e-08
-2.78972e-07
5.58205e-08
-3.11601e-07
6.24161e-08
-3.48662e-07
7.09076e-08
-3.91572e-07
8.21173e-08
-4.42455e-07
9.74074e-08
-5.04676e-07
1.1918e-07
-5.8396e-07
1.51982e-07
-6.90875e-07
2.04868e-07
-8.49321e-07
2.92668e-07
-1.31343e-06
3.983e-07
-5.4292e-07
2.71587e-06
-5.06761e-06
5.54052e-06
-5.52241e-06
5.80264e-07
-5.54749e-06
-1.66013e-08
-5.37668e-06
-3.567e-07
-5.13165e-06
-4.71585e-07
-5.38804e-06
4.59289e-07
-5.368e-06
-4.64518e-08
-5.10716e-06
-5.09467e-07
-4.93745e-06
-3.37639e-07
-4.70238e-06
-4.66469e-07
-4.35774e-06
-6.7901e-07
-3.85741e-06
-9.79202e-07
-3.15915e-06
-1.35663e-06
-2.25374e-06
-1.75005e-06
-1.17551e-06
-2.07747e-06
6.53232e-18
-2.26196e-06
1.17551e-06
-2.26196e-06
2.25374e-06
-2.07747e-06
3.15915e-06
-1.75005e-06
3.85741e-06
-1.35663e-06
4.35774e-06
-9.79202e-07
4.70238e-06
-6.7901e-07
4.93745e-06
-4.66469e-07
5.10716e-06
-3.37639e-07
5.368e-06
-5.09467e-07
5.38804e-06
-4.64518e-08
5.13165e-06
4.59289e-07
5.37668e-06
-4.71585e-07
5.54749e-06
-3.567e-07
5.52241e-06
-1.66013e-08
5.06761e-06
5.80264e-07
5.4292e-07
5.54052e-06
1.31343e-06
2.71587e-06
8.49321e-07
3.983e-07
6.90875e-07
2.92668e-07
5.8396e-07
2.04868e-07
5.04676e-07
1.51982e-07
4.42455e-07
1.1918e-07
3.91572e-07
9.74074e-08
3.48662e-07
8.21173e-08
3.11601e-07
7.09076e-08
2.78972e-07
6.24161e-08
2.49788e-07
5.58205e-08
2.23332e-07
5.05978e-08
1.99069e-07
4.64013e-08
1.76586e-07
4.29929e-08
1.55561e-07
4.02048e-08
1.35732e-07
3.79155e-08
1.16886e-07
3.60358e-08
9.8843e-08
3.44992e-08
8.14501e-08
3.32556e-08
6.45738e-08
3.22675e-08
4.80952e-08
3.15068e-08
3.19063e-08
3.09528e-08
1.59064e-08
3.0591e-08
3.04124e-08
-1.74364e-08
4.78487e-08
-3.49749e-08
4.81296e-08
-5.27204e-08
4.86982e-08
-7.07827e-08
4.95691e-08
-8.92801e-08
5.07649e-08
-1.08342e-07
5.23179e-08
-1.28116e-07
5.42724e-08
-1.48767e-07
5.66872e-08
-1.70492e-07
5.96408e-08
-1.93525e-07
6.32374e-08
-2.18149e-07
6.76168e-08
-2.44716e-07
7.2969e-08
-2.73675e-07
7.95568e-08
-3.05607e-07
8.7752e-08
-3.41286e-07
9.80957e-08
-3.81781e-07
1.11402e-07
-4.28613e-07
1.28949e-07
-4.84051e-07
1.52846e-07
-5.51666e-07
1.86795e-07
-6.37479e-07
2.37795e-07
-7.5275e-07
3.20138e-07
-9.25519e-07
4.65437e-07
-1.30815e-06
7.8093e-07
-1.29362e-06
2.70134e-06
-4.70114e-07
4.71701e-06
-5.38253e-06
5.49268e-06
-5.82738e-06
4.28246e-07
-5.70705e-06
-4.77028e-07
-5.41329e-06
-7.65341e-07
-5.78131e-06
8.27303e-07
-5.76605e-06
-6.17093e-08
-5.48486e-06
-7.90653e-07
-5.32233e-06
-5.00171e-07
-5.09574e-06
-6.93066e-07
-4.75227e-06
-1.02248e-06
-4.23853e-06
-1.49294e-06
-3.49509e-06
-2.10007e-06
-2.50655e-06
-2.73859e-06
-1.31111e-06
-3.27291e-06
6.8517e-18
-3.57307e-06
1.31111e-06
-3.57307e-06
2.50655e-06
-3.27291e-06
3.49509e-06
-2.73859e-06
4.23853e-06
-2.10007e-06
4.75227e-06
-1.49294e-06
5.09574e-06
-1.02248e-06
5.32233e-06
-6.93066e-07
5.48486e-06
-5.00171e-07
5.76605e-06
-7.90653e-07
5.78131e-06
-6.17093e-08
5.41329e-06
8.27303e-07
5.70705e-06
-7.65341e-07
5.82738e-06
-4.77028e-07
5.38253e-06
4.28246e-07
4.70114e-07
5.49268e-06
1.29362e-06
4.71701e-06
1.30815e-06
2.70134e-06
9.25519e-07
7.8093e-07
7.5275e-07
4.65437e-07
6.37479e-07
3.20138e-07
5.51666e-07
2.37795e-07
4.84051e-07
1.86795e-07
4.28613e-07
1.52846e-07
3.81781e-07
1.28949e-07
3.41286e-07
1.11402e-07
3.05607e-07
9.80957e-08
2.73675e-07
8.7752e-08
2.44716e-07
7.95568e-08
2.18149e-07
7.2969e-08
1.93525e-07
6.76168e-08
1.70492e-07
6.32374e-08
1.48767e-07
5.96408e-08
1.28116e-07
5.66872e-08
1.08342e-07
5.42724e-08
8.92801e-08
5.23179e-08
7.07827e-08
5.07649e-08
5.27204e-08
4.95691e-08
3.49749e-08
4.86982e-08
1.74364e-08
4.81296e-08
4.78487e-08
-1.91053e-08
6.69541e-08
-3.83222e-08
6.73465e-08
-5.77651e-08
6.81411e-08
-7.7554e-08
6.9358e-08
-9.78178e-08
7.10287e-08
-1.18698e-07
7.31984e-08
-1.40354e-07
7.59285e-08
-1.62968e-07
7.93011e-08
-1.86753e-07
8.34253e-08
-2.11962e-07
8.84462e-08
-2.38903e-07
9.45579e-08
-2.67958e-07
1.02024e-07
-2.9961e-07
1.11209e-07
-3.34486e-07
1.22627e-07
-3.73416e-07
1.37026e-07
-4.1754e-07
1.55526e-07
-4.6847e-07
1.79879e-07
-5.28584e-07
2.1296e-07
-6.01574e-07
2.59785e-07
-6.93541e-07
3.29762e-07
-8.15644e-07
4.42241e-07
-9.93437e-07
6.43231e-07
-1.30276e-06
1.09025e-06
-1.28028e-06
2.67887e-06
-9.03381e-07
4.3401e-06
-4.18583e-07
5.00788e-06
-4.87907e-06
4.88874e-06
-5.98097e-06
6.24872e-07
-5.65205e-06
-1.09426e-06
-6.24708e-06
1.42233e-06
-6.2341e-06
-7.46961e-08
-5.91978e-06
-1.10497e-06
-5.78268e-06
-6.37272e-07
-5.58761e-06
-8.88136e-07
-5.26757e-06
-1.34252e-06
-4.7625e-06
-1.99801e-06
-3.97416e-06
-2.88841e-06
-2.87612e-06
-3.83662e-06
-1.5112e-06
-4.63784e-06
-4.80449e-19
-5.08427e-06
1.5112e-06
-5.08427e-06
2.87612e-06
-4.63784e-06
3.97416e-06
-3.83662e-06
4.7625e-06
-2.88841e-06
5.26757e-06
-1.99801e-06
5.58761e-06
-1.34252e-06
5.78268e-06
-8.88136e-07
5.91978e-06
-6.37272e-07
6.2341e-06
-1.10497e-06
6.24708e-06
-7.46961e-08
5.65205e-06
1.42233e-06
5.98097e-06
-1.09426e-06
4.87907e-06
6.24872e-07
4.18583e-07
4.88874e-06
9.03381e-07
5.00788e-06
1.28028e-06
4.3401e-06
1.30276e-06
2.67887e-06
9.93437e-07
1.09025e-06
8.15644e-07
6.43231e-07
6.93541e-07
4.42241e-07
6.01574e-07
3.29762e-07
5.28584e-07
2.59785e-07
4.6847e-07
2.1296e-07
4.1754e-07
1.79879e-07
3.73416e-07
1.55526e-07
3.34486e-07
1.37026e-07
2.9961e-07
1.22627e-07
2.67958e-07
1.11209e-07
2.38903e-07
1.02024e-07
2.11962e-07
9.45579e-08
1.86753e-07
8.84462e-08
1.62968e-07
8.34253e-08
1.40354e-07
7.93011e-08
1.18698e-07
7.59285e-08
9.78178e-08
7.31984e-08
7.7554e-08
7.10287e-08
5.77651e-08
6.9358e-08
3.83222e-08
6.81411e-08
1.91053e-08
6.73465e-08
6.69541e-08
-2.09227e-08
8.78768e-08
-4.19671e-08
8.83908e-08
-6.32576e-08
8.94316e-08
-8.49249e-08
9.10253e-08
-1.0711e-07
9.32133e-08
-1.29965e-07
9.60542e-08
-1.53665e-07
9.96282e-08
-1.78406e-07
1.04042e-07
-2.0442e-07
1.09439e-07
-2.31979e-07
1.16006e-07
-2.61417e-07
1.23996e-07
-2.93143e-07
1.3375e-07
-3.27675e-07
1.45741e-07
-3.65681e-07
1.60633e-07
-4.08042e-07
1.79387e-07
-4.55954e-07
2.03438e-07
-5.11093e-07
2.35018e-07
-5.75891e-07
2.77759e-07
-6.54033e-07
3.37927e-07
-7.51388e-07
4.27118e-07
-8.77992e-07
5.68844e-07
-1.05265e-06
8.17887e-07
-1.29748e-06
1.33508e-06
-1.26682e-06
2.64822e-06
-9.35609e-07
4.00889e-06
-5.55177e-07
4.62745e-06
-2.29482e-07
4.56304e-06
-3.24807e-06
3.64346e-06
-5.58202e-06
1.23969e-06
-6.76738e-06
2.60769e-06
-6.76859e-06
-7.3487e-08
-6.39809e-06
-1.47547e-06
-6.32309e-06
-7.12268e-07
-6.20033e-06
-1.0109e-06
-5.94028e-06
-1.60257e-06
-5.49424e-06
-2.44405e-06
-4.66943e-06
-3.71323e-06
-3.42673e-06
-5.07933e-06
-1.81059e-06
-6.25397e-06
-9.662e-18
-6.89486e-06
1.81059e-06
-6.89486e-06
3.42673e-06
-6.25397e-06
4.66943e-06
-5.07933e-06
5.49424e-06
-3.71323e-06
5.94028e-06
-2.44405e-06
6.20033e-06
-1.60257e-06
6.32309e-06
-1.0109e-06
6.39809e-06
-7.12268e-07
6.76859e-06
-1.47547e-06
6.76738e-06
-7.3487e-08
5.58202e-06
2.60769e-06
3.24807e-06
1.23969e-06
2.29482e-07
3.64346e-06
5.55177e-07
4.56304e-06
9.35609e-07
4.62745e-06
1.26682e-06
4.00889e-06
1.29748e-06
2.64822e-06
1.05265e-06
1.33508e-06
8.77992e-07
8.17887e-07
7.51388e-07
5.68844e-07
6.54033e-07
4.27118e-07
5.75891e-07
3.37927e-07
5.11093e-07
2.77759e-07
4.55954e-07
2.35018e-07
4.08042e-07
2.03438e-07
3.65681e-07
1.79387e-07
3.27675e-07
1.60633e-07
2.93143e-07
1.45741e-07
2.61417e-07
1.3375e-07
2.31979e-07
1.23996e-07
2.0442e-07
1.16006e-07
1.78406e-07
1.09439e-07
1.53665e-07
1.04042e-07
1.29965e-07
9.96282e-08
1.0711e-07
9.60542e-08
8.49249e-08
9.32133e-08
6.32576e-08
9.10253e-08
4.19671e-08
8.94316e-08
2.09227e-08
8.83908e-08
8.78768e-08
-2.28974e-08
1.10774e-07
-4.59269e-08
1.1142e-07
-6.92239e-08
1.12729e-07
-9.29301e-08
1.14732e-07
-1.17198e-07
1.17481e-07
-1.42194e-07
1.2105e-07
-1.68104e-07
1.25539e-07
-1.95144e-07
1.31082e-07
-2.23559e-07
1.37854e-07
-2.53645e-07
1.46092e-07
-2.85758e-07
1.56108e-07
-3.20333e-07
1.68326e-07
-3.57921e-07
1.83329e-07
-3.99222e-07
2.01935e-07
-4.45157e-07
2.25322e-07
-4.96959e-07
2.5524e-07
-5.56325e-07
2.94384e-07
-6.25664e-07
3.47097e-07
-7.08483e-07
4.20747e-07
-8.10037e-07
5.28671e-07
-9.38218e-07
6.97025e-07
-1.1031e-06
9.82768e-07
-1.29242e-06
1.5244e-06
-1.25407e-06
2.60987e-06
-9.6464e-07
3.71946e-06
-6.15342e-07
4.27815e-06
-3.01821e-07
4.24952e-06
-2.05176e-07
3.54681e-06
-1.00803e-06
2.04255e-06
-6.83686e-06
8.43652e-06
-7.28438e-06
3.74035e-07
-6.85854e-06
-1.90131e-06
-6.93588e-06
-6.34935e-07
-6.96298e-06
-9.83791e-07
-6.81355e-06
-1.752e-06
-6.54978e-06
-2.70783e-06
-5.71058e-06
-4.55242e-06
-4.27703e-06
-6.51288e-06
-2.26948e-06
-8.26152e-06
-9.07873e-18
-9.16434e-06
2.26948e-06
-9.16434e-06
4.27703e-06
-8.26152e-06
5.71058e-06
-6.51288e-06
6.54978e-06
-4.55242e-06
6.81355e-06
-2.70783e-06
6.96298e-06
-1.752e-06
6.93588e-06
-9.83791e-07
6.85854e-06
-6.34935e-07
7.28438e-06
-1.90131e-06
6.83686e-06
3.74035e-07
1.00803e-06
8.43652e-06
2.05176e-07
2.04255e-06
3.01821e-07
3.54681e-06
6.15342e-07
4.24952e-06
9.6464e-07
4.27815e-06
1.25407e-06
3.71946e-06
1.29242e-06
2.60987e-06
1.1031e-06
1.5244e-06
9.38218e-07
9.82768e-07
8.10037e-07
6.97025e-07
7.08483e-07
5.28671e-07
6.25664e-07
4.20747e-07
5.56325e-07
3.47097e-07
4.96959e-07
2.94384e-07
4.45157e-07
2.5524e-07
3.99222e-07
2.25322e-07
3.57921e-07
2.01935e-07
3.20333e-07
1.83329e-07
2.85758e-07
1.68326e-07
2.53645e-07
1.56108e-07
2.23559e-07
1.46092e-07
1.95144e-07
1.37854e-07
1.68104e-07
1.31082e-07
1.42194e-07
1.25539e-07
1.17198e-07
1.2105e-07
9.29301e-08
1.17481e-07
6.92239e-08
1.14732e-07
4.59269e-08
1.12729e-07
2.28974e-08
1.1142e-07
1.10774e-07
-2.50371e-08
1.35811e-07
-5.02172e-08
1.366e-07
-7.56867e-08
1.38198e-07
-1.01599e-07
1.40644e-07
-1.28118e-07
1.44e-07
-1.55424e-07
1.48356e-07
-1.83718e-07
1.53833e-07
-2.13228e-07
1.60591e-07
-2.44219e-07
1.68846e-07
-2.77006e-07
1.78878e-07
-3.11963e-07
1.91066e-07
-3.49553e-07
2.05916e-07
-3.90349e-07
2.24124e-07
-4.35077e-07
2.46663e-07
-4.84677e-07
2.74922e-07
-5.4039e-07
3.10952e-07
-6.03881e-07
3.57875e-07
-6.77426e-07
4.20642e-07
-7.64161e-07
5.07482e-07
-8.68313e-07
6.32823e-07
-9.94851e-07
8.23563e-07
-1.14506e-06
1.13298e-06
-1.2876e-06
1.66694e-06
-1.24265e-06
2.56492e-06
-9.91152e-07
3.46796e-06
-6.78351e-07
3.96535e-06
-4.15176e-07
3.98635e-06
-4.05119e-07
3.53676e-06
-1.36878e-06
3.00621e-06
4.19591e-07
6.64815e-06
-3.26079e-06
4.05442e-06
-6.60779e-06
1.44569e-06
-7.37521e-06
1.32484e-07
-7.82287e-06
-5.3613e-07
-7.85322e-06
-1.72165e-06
-8.14102e-06
-2.42003e-06
-7.321e-06
-5.37244e-06
-5.65639e-06
-8.17749e-06
-2.98675e-06
-1.09312e-05
6.38573e-18
-1.21511e-05
2.98675e-06
-1.21511e-05
5.65639e-06
-1.09312e-05
7.321e-06
-8.17749e-06
8.14102e-06
-5.37244e-06
7.85322e-06
-2.42003e-06
7.82287e-06
-1.72165e-06
7.37521e-06
-5.3613e-07
6.60779e-06
1.32484e-07
3.26079e-06
1.44569e-06
-4.19591e-07
4.05442e-06
1.36878e-06
6.64815e-06
4.05119e-07
3.00621e-06
4.15176e-07
3.53676e-06
6.78351e-07
3.98635e-06
9.91152e-07
3.96535e-06
1.24265e-06
3.46796e-06
1.2876e-06
2.56492e-06
1.14506e-06
1.66694e-06
9.94851e-07
1.13298e-06
8.68313e-07
8.23563e-07
7.64161e-07
6.32823e-07
6.77426e-07
5.07482e-07
6.03881e-07
4.20642e-07
5.4039e-07
3.57875e-07
4.84677e-07
3.10952e-07
4.35077e-07
2.74922e-07
3.90349e-07
2.46663e-07
3.49553e-07
2.24124e-07
3.11963e-07
2.05916e-07
2.77006e-07
1.91066e-07
2.44219e-07
1.78878e-07
2.13228e-07
1.68846e-07
1.83718e-07
1.60591e-07
1.55424e-07
1.53833e-07
1.28118e-07
1.48356e-07
1.01599e-07
1.44e-07
7.56867e-08
1.40644e-07
5.02172e-08
1.38198e-07
2.50371e-08
1.366e-07
1.35811e-07
-2.73477e-08
1.63159e-07
-5.48494e-08
1.64102e-07
-8.26628e-08
1.66011e-07
-1.10953e-07
1.68934e-07
-1.39896e-07
1.72943e-07
-1.69684e-07
1.78145e-07
-2.00533e-07
1.84681e-07
-2.32684e-07
1.92743e-07
-2.66421e-07
2.02582e-07
-3.02071e-07
2.14529e-07
-3.4003e-07
2.29025e-07
-3.80776e-07
2.46662e-07
-4.24898e-07
2.68246e-07
-4.73133e-07
2.94897e-07
-5.26417e-07
3.28206e-07
-5.85955e-07
3.70491e-07
-6.53311e-07
4.25231e-07
-7.3051e-07
4.97841e-07
-8.20098e-07
5.9707e-07
-9.24914e-07
7.37639e-07
-1.04661e-06
9.45261e-07
-1.17902e-06
1.26539e-06
-1.28293e-06
1.77084e-06
-1.2329e-06
2.51489e-06
-1.01548e-06
3.25054e-06
-7.41008e-07
3.69088e-06
-5.20131e-07
3.76547e-06
-5.2076e-07
3.53739e-06
-9.76758e-07
3.46221e-06
2.8089e-07
5.3905e-06
3.84325e-07
3.95098e-06
-7.08606e-07
2.53862e-06
-2.46077e-06
1.88465e-06
-5.87623e-06
2.87933e-06
-7.84344e-06
2.45562e-07
-1.04063e-05
1.42795e-07
-9.70062e-06
-6.07809e-06
-8.02429e-06
-9.85382e-06
-4.08607e-06
-1.48694e-05
3.13167e-17
-1.62372e-05
4.08607e-06
-1.62372e-05
8.02429e-06
-1.48694e-05
9.70062e-06
-9.85382e-06
1.04063e-05
-6.07809e-06
7.84344e-06
1.42795e-07
5.87623e-06
2.45562e-07
2.46077e-06
2.87933e-06
7.08606e-07
1.88465e-06
-3.84325e-07
2.53862e-06
-2.8089e-07
3.95098e-06
9.76758e-07
5.3905e-06
5.2076e-07
3.46221e-06
5.20131e-07
3.53739e-06
7.41008e-07
3.76547e-06
1.01548e-06
3.69088e-06
1.2329e-06
3.25054e-06
1.28293e-06
2.51489e-06
1.17902e-06
1.77084e-06
1.04661e-06
1.26539e-06
9.24914e-07
9.45261e-07
8.20098e-07
7.37639e-07
7.3051e-07
5.9707e-07
6.53311e-07
4.97841e-07
5.85955e-07
4.25231e-07
5.26417e-07
3.70491e-07
4.73133e-07
3.28206e-07
4.24898e-07
2.94897e-07
3.80776e-07
2.68246e-07
3.4003e-07
2.46662e-07
3.02071e-07
2.29025e-07
2.66421e-07
2.14529e-07
2.32684e-07
2.02582e-07
2.00533e-07
1.92743e-07
1.69684e-07
1.84681e-07
1.39896e-07
1.78145e-07
1.10953e-07
1.72943e-07
8.26628e-08
1.68934e-07
5.48494e-08
1.66011e-07
2.73477e-08
1.64102e-07
1.63159e-07
-2.98322e-08
1.92991e-07
-5.98294e-08
1.94099e-07
-9.01602e-08
1.96342e-07
-1.21001e-07
1.99774e-07
-1.5254e-07
2.04482e-07
-1.84981e-07
2.10586e-07
-2.18552e-07
2.18252e-07
-2.53509e-07
2.277e-07
-2.90147e-07
2.39219e-07
-3.28807e-07
2.5319e-07
-3.69898e-07
2.70115e-07
-4.13905e-07
2.90669e-07
-4.61421e-07
3.15761e-07
-5.13172e-07
3.46649e-07
-5.7006e-07
3.85095e-07
-6.33205e-07
4.33635e-07
-7.03986e-07
4.96012e-07
-7.84048e-07
5.77903e-07
-8.75147e-07
6.88169e-07
-9.78493e-07
8.40985e-07
-1.09248e-06
1.05925e-06
-1.2056e-06
1.37851e-06
-1.27823e-06
1.84347e-06
-1.22481e-06
2.46147e-06
-1.0375e-06
3.06323e-06
-7.99833e-07
3.45321e-06
-6.10013e-07
3.57565e-06
-5.84209e-07
3.51158e-06
-7.37209e-07
3.61521e-06
5.86553e-08
4.59463e-06
1.76812e-07
3.83283e-06
-3.67117e-07
3.08255e-06
-2.00622e-07
1.71815e-06
7.89297e-07
1.88941e-06
-2.77831e-07
1.31269e-06
-1.54525e-06
1.41021e-06
-8.1304e-06
5.07065e-07
-1.16911e-05
-6.2931e-06
-5.39663e-06
-2.11639e-05
4.39441e-17
-2.16338e-05
5.39663e-06
-2.16338e-05
1.16911e-05
-2.11639e-05
8.1304e-06
-6.2931e-06
1.54525e-06
5.07065e-07
2.77831e-07
1.41021e-06
-7.89297e-07
1.31269e-06
2.00622e-07
1.88941e-06
3.67117e-07
1.71815e-06
-1.76812e-07
3.08255e-06
-5.86553e-08
3.83283e-06
7.37209e-07
4.59463e-06
5.84209e-07
3.61521e-06
6.10013e-07
3.51158e-06
7.99833e-07
3.57565e-06
1.0375e-06
3.45321e-06
1.22481e-06
3.06323e-06
1.27823e-06
2.46147e-06
1.2056e-06
1.84347e-06
1.09248e-06
1.37851e-06
9.78493e-07
1.05925e-06
8.75147e-07
8.40985e-07
7.84048e-07
6.88169e-07
7.03986e-07
5.77903e-07
6.33205e-07
4.96012e-07
5.7006e-07
4.33635e-07
5.13172e-07
3.85095e-07
4.61421e-07
3.46649e-07
4.13905e-07
3.15761e-07
3.69898e-07
2.90669e-07
3.28807e-07
2.70115e-07
2.90147e-07
2.5319e-07
2.53509e-07
2.39219e-07
2.18552e-07
2.277e-07
1.84981e-07
2.18252e-07
1.5254e-07
2.10586e-07
1.21001e-07
2.04482e-07
9.01602e-08
1.99774e-07
5.98294e-08
1.96342e-07
2.98322e-08
1.94099e-07
1.92991e-07
-3.24897e-08
2.25481e-07
-6.51548e-08
2.26764e-07
-9.81745e-08
2.29362e-07
-1.31736e-07
2.33336e-07
-1.66037e-07
2.38783e-07
-2.01294e-07
2.45843e-07
-2.37744e-07
2.54702e-07
-2.75654e-07
2.6561e-07
-3.15328e-07
2.78893e-07
-3.57116e-07
2.94978e-07
-4.01429e-07
3.14428e-07
-4.48751e-07
3.3799e-07
-4.99659e-07
3.6667e-07
-5.54846e-07
4.01835e-07
-6.15138e-07
4.45387e-07
-6.81512e-07
5.0001e-07
-7.55079e-07
5.6958e-07
-8.36978e-07
6.59802e-07
-9.28028e-07
7.79218e-07
-1.02774e-06
9.40696e-07
-1.13171e-06
1.16322e-06
-1.22541e-06
1.47221e-06
-1.27317e-06
1.89123e-06
-1.21796e-06
2.40627e-06
-1.05667e-06
2.90193e-06
-8.51755e-07
3.2483e-06
-6.82432e-07
3.40632e-06
-6.19174e-07
3.44833e-06
-6.04424e-07
3.60046e-06
-9.4467e-08
4.08468e-06
3.75343e-08
3.70083e-06
-1.76585e-07
3.29667e-06
-3.93137e-08
1.58088e-06
2.57107e-07
1.59299e-06
1.42456e-07
1.42734e-06
2.01253e-07
1.35142e-06
-4.34402e-07
1.14272e-06
-5.42996e-06
-1.29755e-06
-4.17433e-06
-2.24195e-05
5.21772e-19
-2.58081e-05
4.17433e-06
-2.58081e-05
5.42996e-06
-2.24195e-05
4.34402e-07
-1.29755e-06
-2.01253e-07
1.14272e-06
-1.42456e-07
1.35142e-06
-2.57107e-07
1.42734e-06
3.93137e-08
1.59299e-06
1.76585e-07
1.58088e-06
-3.75343e-08
3.29667e-06
9.4467e-08
3.70083e-06
6.04424e-07
4.08468e-06
6.19174e-07
3.60046e-06
6.82432e-07
3.44833e-06
8.51755e-07
3.40632e-06
1.05667e-06
3.2483e-06
1.21796e-06
2.90193e-06
1.27317e-06
2.40627e-06
1.22541e-06
1.89123e-06
1.13171e-06
1.47221e-06
1.02774e-06
1.16322e-06
9.28028e-07
9.40696e-07
8.36978e-07
7.79218e-07
7.55079e-07
6.59802e-07
6.81512e-07
5.6958e-07
6.15138e-07
5.0001e-07
5.54846e-07
4.45387e-07
4.99659e-07
4.01835e-07
4.48751e-07
3.6667e-07
4.01429e-07
3.3799e-07
3.57116e-07
3.14428e-07
3.15328e-07
2.94978e-07
2.75654e-07
2.78893e-07
2.37744e-07
2.6561e-07
2.01294e-07
2.54702e-07
1.66037e-07
2.45843e-07
1.31736e-07
2.38783e-07
9.81745e-08
2.33336e-07
6.51548e-08
2.29362e-07
3.24897e-08
2.26764e-07
2.25481e-07
-3.53136e-08
2.60794e-07
-7.0812e-08
2.62263e-07
-1.06684e-07
2.65234e-07
-1.43125e-07
2.69777e-07
-1.80343e-07
2.76001e-07
-2.18562e-07
2.84062e-07
-2.58028e-07
2.94168e-07
-2.99013e-07
3.06596e-07
-3.41826e-07
3.21706e-07
-3.86816e-07
3.39969e-07
-4.34388e-07
3.62e-07
-4.85009e-07
3.88611e-07
-5.3922e-07
4.20881e-07
-5.97647e-07
4.60262e-07
-6.61e-07
5.0874e-07
-7.30053e-07
5.69062e-07
-8.05564e-07
6.45091e-07
-8.88072e-07
7.42309e-07
-9.77389e-07
8.68536e-07
-1.07145e-06
1.03475e-06
-1.1638e-06
1.25556e-06
-1.23898e-06
1.5474e-06
-1.26728e-06
1.91953e-06
-1.21159e-06
2.35058e-06
-1.07212e-06
2.76245e-06
-8.94598e-07
3.07078e-06
-7.37975e-07
3.2497e-06
-6.40975e-07
3.35133e-06
-5.41517e-07
3.501e-06
-1.99874e-07
3.74304e-06
-6.01831e-08
3.56113e-06
-1.03297e-07
3.33978e-06
-2.77426e-08
1.50533e-06
7.17005e-08
1.49355e-06
5.98586e-08
1.43918e-06
1.24789e-08
1.3988e-06
-2.18858e-07
1.37406e-06
-8.82816e-07
-6.33591e-07
-1.47512e-06
-2.18272e-05
-1.91483e-19
-2.72832e-05
1.47512e-06
-2.72832e-05
8.82816e-07
-2.18272e-05
2.18858e-07
-6.33591e-07
-1.24789e-08
1.37406e-06
-5.98586e-08
1.3988e-06
-7.17005e-08
1.43918e-06
2.77426e-08
1.49355e-06
1.03297e-07
1.50533e-06
6.01831e-08
3.33978e-06
1.99874e-07
3.56113e-06
5.41517e-07
3.74304e-06
6.40975e-07
3.501e-06
7.37975e-07
3.35133e-06
8.94598e-07
3.2497e-06
1.07212e-06
3.07078e-06
1.21159e-06
2.76245e-06
1.26728e-06
2.35058e-06
1.23898e-06
1.91953e-06
1.1638e-06
1.5474e-06
1.07145e-06
1.25556e-06
9.77389e-07
1.03475e-06
8.88072e-07
8.68536e-07
8.05564e-07
7.42309e-07
7.30053e-07
6.45091e-07
6.61e-07
5.69062e-07
5.97647e-07
5.0874e-07
5.3922e-07
4.60262e-07
4.85009e-07
4.20881e-07
4.34388e-07
3.88611e-07
3.86816e-07
3.62e-07
3.41826e-07
3.39969e-07
2.99013e-07
3.21706e-07
2.58028e-07
3.06596e-07
2.18562e-07
2.94168e-07
1.80343e-07
2.84062e-07
1.43125e-07
2.76001e-07
1.06684e-07
2.69777e-07
7.0812e-08
2.65234e-07
3.53136e-08
2.62263e-07
2.60794e-07
-3.82898e-08
2.99084e-07
-7.67721e-08
3.00745e-07
-1.15643e-07
3.04104e-07
-1.55105e-07
3.09239e-07
-1.95373e-07
3.16269e-07
-2.36676e-07
3.25365e-07
-2.79262e-07
3.36755e-07
-3.23407e-07
3.5074e-07
-3.69413e-07
3.67712e-07
-4.17623e-07
3.88178e-07
-4.6842e-07
4.12796e-07
-5.22234e-07
4.42426e-07
-5.79549e-07
4.78195e-07
-6.40889e-07
5.21603e-07
-7.06803e-07
5.74654e-07
-7.77804e-07
6.40063e-07
-8.54233e-07
7.2152e-07
-9.35978e-07
8.24054e-07
-1.02188e-06
9.54436e-07
-1.10857e-06
1.12145e-06
-1.18844e-06
1.33543e-06
-1.24668e-06
1.60564e-06
-1.25994e-06
1.93279e-06
-1.20465e-06
2.2953e-06
-1.0829e-06
2.6407e-06
-9.27239e-07
2.91512e-06
-7.78771e-07
3.10123e-06
-6.57883e-07
3.23044e-06
-5.2093e-07
3.36405e-06
-2.74105e-07
3.49621e-06
-1.32789e-07
3.41982e-06
-9.3583e-08
3.30058e-06
-4.84146e-08
1.46016e-06
-4.38969e-09
1.44952e-06
3.97036e-09
1.43082e-06
-1.59254e-08
1.41869e-06
-6.49887e-08
1.42312e-06
-2.89918e-07
-4.08662e-07
-6.10887e-07
-2.15062e-05
2.18974e-17
-2.78941e-05
6.10887e-07
-2.78941e-05
2.89918e-07
-2.15062e-05
6.49887e-08
-4.08662e-07
1.59254e-08
1.42312e-06
-3.97036e-09
1.41869e-06
4.38969e-09
1.43082e-06
4.84146e-08
1.44952e-06
9.3583e-08
1.46016e-06
1.32789e-07
3.30058e-06
2.74105e-07
3.41982e-06
5.2093e-07
3.49621e-06
6.57883e-07
3.36405e-06
7.78771e-07
3.23044e-06
9.27239e-07
3.10123e-06
1.0829e-06
2.91512e-06
1.20465e-06
2.6407e-06
1.25994e-06
2.2953e-06
1.24668e-06
1.93279e-06
1.18844e-06
1.60564e-06
1.10857e-06
1.33543e-06
1.02188e-06
1.12145e-06
9.35978e-07
9.54436e-07
8.54233e-07
8.24054e-07
7.77804e-07
7.2152e-07
7.06803e-07
6.40063e-07
6.40889e-07
5.74654e-07
5.79549e-07
5.21603e-07
5.22234e-07
4.78195e-07
4.6842e-07
4.42426e-07
4.17623e-07
4.12796e-07
3.69413e-07
3.88178e-07
3.23407e-07
3.67712e-07
2.79262e-07
3.5074e-07
2.36676e-07
3.36755e-07
1.95373e-07
3.25365e-07
1.55105e-07
3.16269e-07
1.15643e-07
3.09239e-07
7.67721e-08
3.04104e-07
3.82898e-08
3.00745e-07
2.99084e-07
-4.13945e-08
3.40479e-07
-8.29864e-08
3.42337e-07
-1.24976e-07
3.46094e-07
-1.67572e-07
3.51834e-07
-2.10989e-07
3.59686e-07
-2.55458e-07
3.69834e-07
-3.01226e-07
3.82523e-07
-3.48561e-07
3.98075e-07
-3.97754e-07
4.16905e-07
-4.49125e-07
4.39549e-07
-5.03021e-07
4.66693e-07
-5.59818e-07
4.99223e-07
-6.19909e-07
5.38287e-07
-6.83688e-07
5.85382e-07
-7.515e-07
6.42466e-07
-8.23551e-07
7.12114e-07
-8.99731e-07
7.977e-07
-9.79284e-07
9.03607e-07
-1.06021e-06
1.03536e-06
-1.13825e-06
1.19949e-06
-1.20544e-06
1.40262e-06
-1.24865e-06
1.64886e-06
-1.25037e-06
1.9345e-06
-1.19593e-06
2.24086e-06
-1.08816e-06
2.53293e-06
-9.49472e-07
2.77644e-06
-8.07283e-07
2.95905e-06
-6.73091e-07
3.09624e-06
-5.23402e-07
3.21436e-06
-3.2837e-07
3.30118e-06
-1.88922e-07
3.28037e-06
-1.10296e-07
3.22195e-06
-7.26389e-08
1.4225e-06
-3.91751e-08
1.41606e-06
-1.79361e-08
1.40958e-06
-6.50451e-09
1.40726e-06
4.27736e-09
1.41234e-06
-8.53642e-08
-3.1902e-07
-3.58941e-07
-2.12326e-05
2.16728e-17
-2.82531e-05
3.58941e-07
-2.82531e-05
8.53642e-08
-2.12326e-05
-4.27736e-09
-3.1902e-07
6.50451e-09
1.41234e-06
1.79361e-08
1.40726e-06
3.91751e-08
1.40958e-06
7.26389e-08
1.41606e-06
1.10296e-07
1.4225e-06
1.88922e-07
3.22195e-06
3.2837e-07
3.28037e-06
5.23402e-07
3.30118e-06
6.73091e-07
3.21436e-06
8.07283e-07
3.09624e-06
9.49472e-07
2.95905e-06
1.08816e-06
2.77644e-06
1.19593e-06
2.53293e-06
1.25037e-06
2.24086e-06
1.24865e-06
1.9345e-06
1.20544e-06
1.64886e-06
1.13825e-06
1.40262e-06
1.06021e-06
1.19949e-06
9.79284e-07
1.03536e-06
8.99731e-07
9.03607e-07
8.23551e-07
7.977e-07
7.515e-07
7.12114e-07
6.83688e-07
6.42466e-07
6.19909e-07
5.85382e-07
5.59818e-07
5.38287e-07
5.03021e-07
4.99223e-07
4.49125e-07
4.66693e-07
3.97754e-07
4.39549e-07
3.48561e-07
4.16905e-07
3.01226e-07
3.98075e-07
2.55458e-07
3.82523e-07
2.10989e-07
3.69834e-07
1.67572e-07
3.59686e-07
1.24976e-07
3.51834e-07
8.29864e-08
3.46094e-07
4.13945e-08
3.42337e-07
3.40479e-07
-4.45911e-08
3.8507e-07
-8.9381e-08
3.87127e-07
-1.34571e-07
3.91285e-07
-1.80368e-07
3.97631e-07
-2.26987e-07
4.06305e-07
-2.74652e-07
4.17499e-07
-3.23602e-07
4.31473e-07
-3.74088e-07
4.48561e-07
-4.2638e-07
4.69197e-07
-4.80759e-07
4.93929e-07
-5.37522e-07
5.23455e-07
-5.96965e-07
5.58666e-07
-6.59369e-07
6.00691e-07
-7.24962e-07
6.50975e-07
-7.93854e-07
7.11358e-07
-8.65922e-07
7.84181e-07
-9.40606e-07
8.72384e-07
-1.01658e-06
9.79578e-07
-1.0912e-06
1.10998e-06
-1.15977e-06
1.26806e-06
-1.21464e-06
1.45749e-06
-1.24484e-06
1.67906e-06
-1.23767e-06
1.92733e-06
-1.1842e-06
2.18739e-06
-1.08719e-06
2.43592e-06
-9.61673e-07
2.65091e-06
-8.25544e-07
2.82292e-06
-6.86692e-07
2.95739e-06
-5.36172e-07
3.06384e-06
-3.6925e-07
3.13426e-06
-2.32721e-07
3.14384e-06
-1.33868e-07
3.1231e-06
-9.39066e-08
1.38254e-06
-5.72831e-08
1.37944e-06
-2.4811e-08
1.37711e-06
5.84057e-09
1.37661e-06
4.02563e-08
1.37792e-06
5.48413e-10
-2.79312e-07
-2.63761e-07
-2.09683e-05
1.04553e-18
-2.85168e-05
2.63761e-07
-2.85168e-05
-5.48413e-10
-2.09683e-05
-4.02563e-08
-2.79312e-07
-5.84057e-09
1.37792e-06
2.4811e-08
1.37661e-06
5.72831e-08
1.37711e-06
9.39066e-08
1.37944e-06
1.33868e-07
1.38254e-06
2.32721e-07
3.1231e-06
3.6925e-07
3.14384e-06
5.36172e-07
3.13426e-06
6.86692e-07
3.06384e-06
8.25544e-07
2.95739e-06
9.61673e-07
2.82292e-06
1.08719e-06
2.65091e-06
1.1842e-06
2.43592e-06
1.23767e-06
2.18739e-06
1.24484e-06
1.92733e-06
1.21464e-06
1.67906e-06
1.15977e-06
1.45749e-06
1.0912e-06
1.26806e-06
1.01658e-06
1.10998e-06
9.40606e-07
9.79578e-07
8.65922e-07
8.72384e-07
7.93854e-07
7.84181e-07
7.24962e-07
7.11358e-07
6.59369e-07
6.50975e-07
5.96965e-07
6.00691e-07
5.37522e-07
5.58666e-07
4.80759e-07
5.23455e-07
4.2638e-07
4.93929e-07
3.74088e-07
4.69197e-07
3.23602e-07
4.48561e-07
2.74652e-07
4.31473e-07
2.26987e-07
4.17499e-07
1.80368e-07
4.06305e-07
1.34571e-07
3.97631e-07
8.9381e-08
3.91285e-07
4.45911e-08
3.87127e-07
3.8507e-07
-4.78281e-08
4.32898e-07
-9.58514e-08
4.3515e-07
-1.44267e-07
4.397e-07
-1.93276e-07
4.4664e-07
-2.43085e-07
4.56114e-07
-2.93906e-07
4.6832e-07
-3.45958e-07
4.83525e-07
-3.9947e-07
5.02073e-07
-4.54673e-07
5.244e-07
-5.11799e-07
5.51055e-07
-5.71073e-07
5.82729e-07
-6.32692e-07
6.20284e-07
-6.968e-07
6.64799e-07
-7.63439e-07
7.17614e-07
-8.32468e-07
7.80387e-07
-9.03434e-07
8.55148e-07
-9.75374e-07
9.44325e-07
-1.04651e-06
1.05071e-06
-1.11382e-06
1.1773e-06
-1.17256e-06
1.3268e-06
-1.21586e-06
1.50078e-06
-1.23496e-06
1.69815e-06
-1.22091e-06
1.91329e-06
-1.16832e-06
2.13481e-06
-1.07953e-06
2.34713e-06
-9.64439e-07
2.53582e-06
-8.34841e-07
2.69332e-06
-6.97269e-07
2.81982e-06
-5.51099e-07
2.91767e-06
-3.99967e-07
2.98312e-06
-2.6615e-07
3.01002e-06
-1.5584e-07
3.01279e-06
-1.11246e-07
1.33794e-06
-6.90112e-08
1.3372e-06
-2.85537e-08
1.33665e-06
1.1511e-08
1.33654e-06
5.31078e-08
1.33633e-06
2.52659e-08
-2.51471e-07
-2.25047e-07
-2.0718e-05
2.32262e-19
-2.87419e-05
2.25047e-07
-2.87419e-05
-2.52659e-08
-2.0718e-05
-5.31078e-08
-2.51471e-07
-1.1511e-08
1.33633e-06
2.85537e-08
1.33654e-06
6.90112e-08
1.33665e-06
1.11246e-07
1.3372e-06
1.5584e-07
1.33794e-06
2.6615e-07
3.01279e-06
3.99967e-07
3.01002e-06
5.51099e-07
2.98312e-06
6.97269e-07
2.91767e-06
8.34841e-07
2.81982e-06
9.64439e-07
2.69332e-06
1.07953e-06
2.53582e-06
1.16832e-06
2.34713e-06
1.22091e-06
2.13481e-06
1.23496e-06
1.91329e-06
1.21586e-06
1.69815e-06
1.17256e-06
1.50078e-06
1.11382e-06
1.3268e-06
1.04651e-06
1.1773e-06
9.75374e-07
1.05071e-06
9.03434e-07
9.44325e-07
8.32468e-07
8.55148e-07
7.63439e-07
7.80387e-07
6.968e-07
7.17614e-07
6.32692e-07
6.64799e-07
5.71073e-07
6.20284e-07
5.11799e-07
5.82729e-07
4.54673e-07
5.51055e-07
3.9947e-07
5.244e-07
3.45958e-07
5.02073e-07
2.93906e-07
4.83525e-07
2.43085e-07
4.6832e-07
1.93276e-07
4.56114e-07
1.44267e-07
4.4664e-07
9.58514e-08
4.397e-07
4.78281e-08
4.3515e-07
4.32898e-07
-5.10357e-08
4.83934e-07
-1.02257e-07
4.86372e-07
-1.5385e-07
4.91294e-07
-2.06004e-07
4.98794e-07
-2.58908e-07
5.09018e-07
-3.12755e-07
5.22166e-07
-3.67735e-07
5.38506e-07
-4.24041e-07