/*--------------------------------*- C++ -*----------------------------------*\
  =========                 |
  \\      /  F ield         | OpenFOAM: The Open Source CFD Toolbox
   \\    /   O peration     | Website:  https://openfoam.org
    \\  /    A nd           | Version:  10
     \\/     M anipulation  |
\*---------------------------------------------------------------------------*/
FoamFile
{
    format      ascii;
    class       volScalarField;
    location    "0.081";
    object      T;
}
// * * * * * * * * * * * * * * * * * * * * * * * * * * * * * * * * * * * * * //

dimensions      [0 0 0 1 0 0 0];

internalField   nonuniform List<scalar> 
12225
(
1.00078
0.99983
1.00012
1.00011
1.00018
1.00045
1.00048
1.00029
1.00024
1.00036
1.00044
1.00036
1.00019
0.99995
0.999699
0.999252
0.997967
0.996326
1.00003
0.999827
1.00006
1.00005
1.00011
1.00041
1.0005
1.00033
1.00023
1.00031
1.00039
1.00034
1.00017
0.999932
0.999637
0.999178
0.998117
0.99657
0.999764
1.00012
1.00024
1.00008
1.0001
1.00037
1.00045
1.00029
1.0002
1.00027
1.00032
1.00026
1.00015
0.999974
0.99973
0.999325
0.998398
0.997097
1.00007
1.00003
1.00016
1.0001
1.00011
1.00032
1.0004
1.00028
1.00022
1.0003
1.00037
1.00033
1.00021
1.00002
0.999734
0.99932
0.998578
0.99763
1.00009
1.00028
1.00054
1.00023
1.00008
1.00033
1.00048
1.00036
1.00024
1.00025
1.00028
1.00023
1.00012
0.999972
0.999766
0.999485
0.998981
0.998301
0.999792
1.00009
1.00049
1.00028
1.00011
1.00027
1.00034
1.00022
1.00017
1.00024
1.00031
1.00028
1.00019
1.00006
0.999872
0.999619
0.999233
0.998726
0.999775
1.00037
1.00097
1.00049
1.00007
1.00026
1.00043
1.00036
1.00027
1.00025
1.00024
1.00018
1.00009
0.999985
0.999849
0.999664
0.999396
0.999023
1.00009
1.00051
1.00094
1.00043
1.00008
1.00025
1.00031
1.00018
1.00011
1.00017
1.00023
1.00022
1.00017
1.00009
0.999975
0.999823
0.999621
0.999343
0.998855
1.00088
1.00126
1.00046
0.999973
1.00016
1.00035
1.00032
1.00025
1.00023
1.0002
1.00013
1.00006
0.999992
0.999919
0.999814
0.999674
0.999465
0.999599
1.00093
1.00109
1.00044
1.00005
1.00017
1.00024
1.0001
1.00002
1.00007
1.00014
1.00015
1.00013
1.00011
1.00007
0.999991
0.999883
0.999738
0.998572
1.0006
1.00111
1.00033
0.999871
1.00008
1.00029
1.00025
1.00019
1.0002
1.00018
1.00011
1.00003
0.999974
0.999926
0.999868
0.999785
0.999687
1.00011
1.00078
1.00092
1.00036
0.999945
1.00006
1.00014
1.00001
0.999938
0.999983
1.00006
1.00009
1.0001
1.0001
1.00009
1.00006
1.00001
0.999934
0.998767
1.00066
1.00065
1.00025
0.999877
1.00001
1.00019
1.00015
1.0001
1.00011
1.0001
1.00004
0.999994
0.999964
0.99995
0.999924
0.99989
0.999836
1.00051
1.00017
0.999747
0.999892
0.999828
0.999884
0.999944
0.999884
0.999844
0.999892
0.999967
1.00002
1.00004
1.00005
1.00005
1.00006
1.00003
1.00003
0.999766
0.999123
0.99988
1.00044
1.00028
1.00009
1.00006
1.00008
1.00009
1.00008
1.00006
1.00004
1
0.99997
0.999941
0.99993
0.999899
0.999886
1.00358
1.00016
0.999478
0.999135
0.999199
0.999423
0.999583
0.999723
0.999825
0.999862
0.999896
0.999959
1.00003
1.00008
1.00011
1.00013
1.00014
1.00015
0.998925
0.998094
0.998226
0.999189
0.999912
1.00019
1.00014
1.00005
1.00001
0.999986
0.999978
0.999984
0.999975
0.99996
0.999951
0.999957
0.999961
0.999972
1.00101
1.00005
0.999707
0.999502
0.99937
0.999427
0.999517
0.999607
0.999723
0.999868
0.999985
1.00004
1.00005
1.00008
1.00012
1.00017
1.0002
1.00023
0.998494
0.999983
1.00047
1.00037
1.00058
1.00076
1.00072
1.00065
1.0006
1.00057
1.00057
1.00057
1.00056
1.00054
1.00052
1.00049
1.00045
1.00041
1.00062
1.00247
1.00239
1.0013
1.00084
1.00062
1.00051
1.00048
1.00044
1.00037
1.00033
1.00029
1.00027
1.00028
1.0003
1.00033
1.00036
1.0004
0.998269
1.00068
1.00172
1.00135
1.00105
1.0009
1.00092
1.00096
1.0009
1.00081
1.00078
1.00078
1.00077
1.00074
1.0007
1.00066
1.00062
1.00058
0.998786
1.00001
1.00127
1.00127
1.00067
1.00056
1.00073
1.00068
1.00053
1.00052
1.00055
1.00053
1.0005
1.00048
1.00048
1.0005
1.00051
1.00052
1.00022
0.999391
1.00003
1.00066
1.00056
1.00055
1.0007
1.00072
1.0007
1.00075
1.0008
1.00075
1.00068
1.00066
1.00066
1.00065
1.00061
1.00058
0.999903
0.9998
1.00049
1.0009
1.00068
1.00055
1.00061
1.00063
1.00057
1.00052
1.0005
1.00048
1.00049
1.00052
1.00054
1.00056
1.00057
1.00058
0.999794
1.00045
1.0005
1.00049
1.00033
1.00028
1.00045
1.00062
1.00068
1.00069
1.00069
1.00067
1.00066
1.00067
1.00065
1.00062
1.00059
1.00057
0.998757
1.00083
1.00083
1.0007
1.00059
1.00055
1.00064
1.00065
1.00058
1.00054
1.00056
1.00058
1.00056
1.00056
1.00057
1.0006
1.00063
1.00065
0.99936
1.00107
1.00082
1.00038
1.0003
1.00037
1.00054
1.00062
1.00059
1.00058
1.00065
1.00072
1.00072
1.00068
1.00063
1.00059
1.00056
1.00055
0.999242
1.00085
1.00085
1.00061
1.0006
1.0006
1.00064
1.00063
1.00055
1.00049
1.00051
1.00055
1.00057
1.00057
1.00058
1.00059
1.0006
1.00061
0.998611
1.00033
1.00053
1.00047
1.00051
1.00054
1.00059
1.0006
1.00056
1.00055
1.00062
1.00068
1.0007
1.00066
1.00061
1.00055
1.00052
1.00052
0.999703
1.00021
1.00065
1.00068
1.00061
1.00057
1.0006
1.0006
1.00054
1.00053
1.0006
1.00068
1.00071
1.00067
1.00061
1.00057
1.00054
1.00058
0.925631
0.925715
0.925483
0.924976
0.92508
0.925798
0.926473
0.927272
0.927895
0.927948
0.927593
0.927109
0.926619
0.926141
0.925664
0.925172
0.924655
0.92411
0.923542
0.922952
0.922354
0.921741
0.921124
0.920502
0.919908
0.91945
0.919151
0.918989
0.919011
0.91929
0.919907
0.920863
0.921751
0.921334
0.919136
0.916111
0.91297
0.910954
0.909247
0.90831
0.907658
0.905731
0.905681
0.905355
0.904238
0.903506
0.903395
0.903978
0.902877
0.900718
0.899727
0.900347
0.904849
0.908678
0.909298
0.908184
0.906831
0.905952
0.905516
0.905422
0.905544
0.905796
0.906119
0.906487
0.90688
0.907295
0.907726
0.908174
0.908633
0.909104
0.909582
0.910066
0.910551
0.911035
0.911523
0.912038
0.912552
0.913048
0.913537
0.914019
0.914495
0.914966
0.915432
0.915894
0.916355
0.916819
0.917289
0.917772
0.918276
0.918812
0.919392
0.920018
0.920697
0.921439
0.922249
0.923113
0.923982
0.924818
0.925632
0.926464
0.927268
0.927909
0.928357
0.928797
0.92922
0.929194
0.92889
0.928678
0.928538
0.928624
0.929428
0.931933
0.936099
0.936578
0.929423
0.924214
0.925597
0.924654
0.922479
0.921256
0.918397
0.914946
0.911346
0.906702
0.901196
0.895751
0.891078
0.887309
0.884425
0.882453
0.881268
0.880654
0.880427
0.880481
0.880819
0.881533
0.882755
0.884585
0.88699
0.889805
0.893005
0.896455
0.899728
0.902249
0.903471
0.903398
0.902418
0.901056
0.900016
0.900125
0.901255
0.901691
0.901321
0.90072
0.900097
0.899589
0.899255
0.899064
0.898958
0.898908
0.8988
0.8986
0.898459
0.898131
0.897507
0.897208
0.896713
0.89564
0.895712
0.896126
0.895336
0.895997
0.898436
0.897083
0.892999
0.895793
0.903745
0.900583
0.89081
0.890472
0.924394
0.924419
0.924385
0.923828
0.923718
0.92429
0.925205
0.925807
0.925893
0.92557
0.925078
0.924601
0.924194
0.923837
0.923493
0.923135
0.922745
0.92232
0.921864
0.921394
0.92092
0.92046
0.920006
0.919554
0.919068
0.918475
0.917835
0.917259
0.916835
0.916649
0.916803
0.917324
0.918091
0.918167
0.917114
0.915965
0.914028
0.911264
0.909239
0.908663
0.907139
0.905459
0.904826
0.904474
0.903046
0.901009
0.901021
0.897415
0.897829
0.900335
0.898468
0.896187
0.900705
0.905291
0.905805
0.904657
0.903539
0.902886
0.902687
0.902827
0.903197
0.903693
0.904251
0.904828
0.905404
0.905975
0.906541
0.907106
0.907671
0.90824
0.908813
0.909393
0.909985
0.910588
0.911184
0.911739
0.912268
0.912789
0.913299
0.913804
0.914305
0.914802
0.915294
0.91578
0.916256
0.916723
0.917181
0.917634
0.918088
0.918559
0.919061
0.919615
0.920236
0.920942
0.921744
0.922631
0.923557
0.924477
0.925385
0.926306
0.927209
0.927969
0.928521
0.929033
0.929622
0.929925
0.92975
0.929326
0.928675
0.928002
0.928443
0.930668
0.934158
0.934545
0.927869
0.922039
0.922992
0.924266
0.923345
0.921354
0.918141
0.915171
0.91208
0.907619
0.902165
0.896695
0.891795
0.887768
0.884689
0.882532
0.881141
0.880299
0.879824
0.879631
0.879751
0.880307
0.881456
0.88333
0.885947
0.889131
0.892551
0.896118
0.899617
0.90241
0.903793
0.903726
0.90271
0.901386
0.900485
0.900781
0.902016
0.90238
0.901944
0.90129
0.900621
0.900079
0.899713
0.899489
0.899361
0.89928
0.899122
0.898914
0.8988
0.89842
0.897739
0.897503
0.896972
0.895725
0.895878
0.896437
0.895422
0.896101
0.898913
0.897739
0.893688
0.895666
0.901812
0.898031
0.891177
0.89159
0.926573
0.926708
0.926564
0.92657
0.926282
0.92591
0.925425
0.924771
0.924118
0.923634
0.923358
0.923219
0.923122
0.922999
0.922825
0.922588
0.922281
0.9219
0.92144
0.920902
0.920302
0.91967
0.919053
0.918503
0.918029
0.917579
0.917058
0.916401
0.915633
0.914887
0.914288
0.913914
0.913877
0.913987
0.914089
0.914207
0.913691
0.912648
0.911418
0.910039
0.908536
0.906642
0.905661
0.906176
0.904369
0.904021
0.903239
0.901918
0.897824
0.899857
0.900527
0.899801
0.90029
0.900519
0.899949
0.899481
0.899553
0.900106
0.900963
0.901897
0.902793
0.903589
0.904286
0.904908
0.905476
0.906012
0.906527
0.907036
0.90754
0.908043
0.908545
0.909047
0.909555
0.910077
0.910607
0.911136
0.911666
0.912195
0.912719
0.913238
0.913751
0.914259
0.914761
0.915255
0.915743
0.916225
0.916705
0.917189
0.917684
0.918201
0.918751
0.919347
0.920004
0.920741
0.921571
0.922488
0.923461
0.924443
0.925411
0.926358
0.927268
0.928107
0.928859
0.929536
0.930123
0.930551
0.930747
0.930505
0.92957
0.928278
0.928155
0.930115
0.933132
0.932853
0.926602
0.921179
0.922446
0.925754
0.925408
0.922284
0.918478
0.914844
0.910792
0.905773
0.900238
0.894887
0.89023
0.886446
0.883551
0.88151
0.880206
0.879464
0.87913
0.87913
0.879464
0.880192
0.881424
0.883252
0.885678
0.888598
0.891897
0.895589
0.899411
0.902625
0.904219
0.904086
0.902939
0.901656
0.901042
0.901732
0.903092
0.903498
0.90308
0.902402
0.901684
0.901077
0.900654
0.900392
0.900207
0.900069
0.899901
0.899617
0.899377
0.899036
0.898321
0.897826
0.897352
0.896229
0.895876
0.896509
0.89623
0.896444
0.898832
0.898726
0.895885
0.897071
0.902148
0.90063
0.895046
0.893231
0.926264
0.926522
0.926994
0.926479
0.925556
0.924971
0.924896
0.925116
0.925374
0.925577
0.925738
0.925854
0.925893
0.925821
0.92563
0.925328
0.924931
0.92445
0.923898
0.923282
0.922607
0.921879
0.921105
0.920298
0.91951
0.918851
0.918305
0.917761
0.917128
0.916339
0.915435
0.914485
0.913589
0.912919
0.912581
0.912533
0.912564
0.91274
0.912545
0.911737
0.911
0.909193
0.908684
0.907728
0.906276
0.907186
0.905268
0.904562
0.903557
0.902282
0.900739
0.899832
0.899841
0.9001
0.900169
0.90024
0.900486
0.900929
0.901497
0.902101
0.902687
0.903233
0.903731
0.904202
0.904662
0.905129
0.905609
0.906104
0.906611
0.907123
0.907632
0.908136
0.908638
0.909156
0.909693
0.910225
0.91075
0.911276
0.911806
0.912341
0.912881
0.913422
0.913959
0.914486
0.914996
0.915486
0.915957
0.916414
0.91687
0.917339
0.917837
0.918383
0.918997
0.919708
0.920535
0.921479
0.92251
0.92357
0.924599
0.92556
0.926443
0.927283
0.928147
0.929054
0.929837
0.930397
0.930994
0.931648
0.931354
0.929923
0.928901
0.929974
0.932423
0.931643
0.92519
0.920058
0.921572
0.925143
0.925354
0.922509
0.918305
0.914029
0.90955
0.90442
0.898931
0.893734
0.889316
0.885771
0.883114
0.881295
0.880191
0.879624
0.879443
0.879564
0.879965
0.88067
0.881737
0.883205
0.885124
0.887639
0.890698
0.894191
0.898174
0.901944
0.904015
0.904005
0.902801
0.901656
0.901533
0.902772
0.904207
0.904721
0.904397
0.903785
0.903131
0.902561
0.902125
0.901811
0.901546
0.901299
0.901018
0.900632
0.900269
0.899834
0.899061
0.898432
0.897904
0.89684
0.896363
0.897006
0.897121
0.897344
0.899687
0.900177
0.897825
0.898717
0.902885
0.901738
0.896437
0.894503
0.928271
0.928723
0.927871
0.926956
0.926852
0.927076
0.927265
0.927551
0.927922
0.92821
0.928295
0.928154
0.927819
0.927334
0.926731
0.926029
0.925229
0.924327
0.92333
0.922263
0.921178
0.920139
0.919219
0.918517
0.9181
0.917906
0.9179
0.918037
0.918134
0.917925
0.917262
0.916206
0.914866
0.91348
0.912397
0.911868
0.911851
0.912236
0.912483
0.912625
0.912673
0.911827
0.911887
0.910502
0.91028
0.910135
0.910748
0.906878
0.904201
0.901984
0.900594
0.90026
0.900691
0.901285
0.901563
0.901544
0.901356
0.901186
0.901126
0.901224
0.90145
0.901779
0.902176
0.902631
0.903126
0.903656
0.904208
0.904773
0.905335
0.905887
0.906423
0.906947
0.907463
0.907979
0.908492
0.908993
0.909493
0.910012
0.910556
0.911129
0.911728
0.912347
0.912974
0.913595
0.914193
0.914755
0.915273
0.91575
0.916194
0.916622
0.91706
0.91754
0.918098
0.91878
0.919626
0.920655
0.921845
0.923116
0.924344
0.925436
0.926349
0.927141
0.927902
0.928725
0.929464
0.929976
0.930184
0.930773
0.931129
0.930099
0.928855
0.929642
0.931973
0.93143
0.925515
0.920597
0.921687
0.924972
0.925511
0.922417
0.917604
0.913115
0.908634
0.903462
0.897974
0.892953
0.888825
0.885653
0.88337
0.881871
0.881013
0.880594
0.880435
0.880452
0.88062
0.8809
0.881258
0.88179
0.882772
0.884502
0.886829
0.889616
0.893668
0.898526
0.90183
0.902492
0.901476
0.90064
0.90122
0.903223
0.905025
0.905747
0.905461
0.904802
0.904146
0.903634
0.903289
0.903049
0.902803
0.902516
0.902189
0.901759
0.901299
0.900821
0.900119
0.899423
0.898851
0.89792
0.897361
0.897946
0.898463
0.898966
0.901266
0.902249
0.900632
0.901526
0.904457
0.902867
0.898157
0.895225
0.930873
0.930228
0.928561
0.928246
0.928386
0.928653
0.928865
0.928877
0.92871
0.928466
0.928185
0.927848
0.927419
0.926873
0.926199
0.925388
0.924432
0.923333
0.922112
0.920809
0.919485
0.918225
0.91715
0.916377
0.91604
0.916087
0.916269
0.916418
0.916545
0.916641
0.916474
0.915853
0.914846
0.913622
0.912336
0.911358
0.910998
0.911207
0.911703
0.91232
0.91231
0.912086
0.911768
0.910553
0.909855
0.909724
0.908227
0.904976
0.902992
0.901404
0.900727
0.900749
0.901018
0.90119
0.901056
0.900691
0.900247
0.899915
0.899791
0.89991
0.900218
0.900655
0.901152
0.90167
0.902179
0.902676
0.903156
0.903627
0.904096
0.904576
0.905075
0.905593
0.906102
0.90656
0.906985
0.907443
0.907953
0.908513
0.909122
0.909774
0.910466
0.91119
0.911928
0.912658
0.913355
0.913995
0.914563
0.915052
0.915467
0.915829
0.91618
0.916578
0.917087
0.917759
0.918637
0.919743
0.92107
0.922542
0.923999
0.92531
0.926389
0.927288
0.928074
0.9289
0.929747
0.930495
0.930578
0.930412
0.930859
0.93041
0.929128
0.929629
0.931829
0.931476
0.926144
0.921309
0.922026
0.924868
0.925204
0.921709
0.916714
0.912361
0.9079
0.902636
0.897314
0.892717
0.889011
0.886258
0.88429
0.882971
0.882151
0.881623
0.881215
0.880829
0.88036
0.879684
0.878898
0.878529
0.8791
0.880395
0.881737
0.88368
0.887955
0.894385
0.899371
0.901064
0.90034
0.899669
0.900612
0.903161
0.905708
0.906995
0.906966
0.90633
0.905605
0.90501
0.904605
0.904336
0.904076
0.903759
0.903399
0.902974
0.902505
0.90203
0.901399
0.900651
0.899971
0.899056
0.898367
0.899034
0.900197
0.901006
0.903371
0.905188
0.904252
0.904543
0.907016
0.905506
0.901248
0.896854
0.928401
0.927682
0.927485
0.928178
0.928688
0.928574
0.928262
0.928031
0.927871
0.927738
0.9275
0.926987
0.926102
0.924862
0.923372
0.921751
0.920091
0.918448
0.916881
0.915459
0.914235
0.913312
0.91276
0.912498
0.912624
0.913159
0.913779
0.914216
0.914506
0.914799
0.91492
0.914449
0.913336
0.912046
0.91089
0.910056
0.909783
0.909973
0.910372
0.910686
0.910653
0.910823
0.910034
0.909326
0.908643
0.908465
0.905694
0.903207
0.901941
0.900877
0.900422
0.900245
0.900047
0.89981
0.899497
0.899236
0.899115
0.899183
0.89941
0.899741
0.900103
0.900446
0.900732
0.900967
0.901169
0.901375
0.901618
0.901931
0.902332
0.902824
0.903398
0.904013
0.904586
0.905094
0.905626
0.906207
0.906817
0.907439
0.908067
0.908702
0.90935
0.910013
0.910691
0.911372
0.912042
0.91268
0.913273
0.913821
0.914339
0.914843
0.915352
0.915896
0.916503
0.917198
0.918025
0.919038
0.920302
0.921785
0.923304
0.924681
0.92579
0.926694
0.927441
0.928293
0.92947
0.930683
0.931538
0.931207
0.931272
0.931411
0.930179
0.930099
0.93192
0.931463
0.926538
0.921757
0.922037
0.924516
0.92453
0.920745
0.915826
0.911729
0.907256
0.902017
0.897218
0.893243
0.889857
0.887238
0.885338
0.883987
0.88306
0.882337
0.881545
0.880437
0.878843
0.87685
0.875034
0.874324
0.875249
0.876933
0.877928
0.879474
0.884136
0.891842
0.89813
0.900823
0.900397
0.899778
0.900849
0.903555
0.906521
0.908226
0.908495
0.908083
0.907535
0.907028
0.906612
0.906259
0.90588
0.905436
0.904969
0.904487
0.903971
0.903419
0.902725
0.901868
0.901017
0.900116
0.89959
0.900423
0.902197
0.903609
0.906058
0.908286
0.908321
0.90808
0.910092
0.908792
0.904931
0.899813
0.929169
0.929031
0.929061
0.929113
0.928785
0.928338
0.928118
0.92801
0.927788
0.927272
0.926239
0.924625
0.922582
0.920344
0.918098
0.915937
0.913871
0.911908
0.910112
0.908591
0.907477
0.906949
0.907087
0.907611
0.908199
0.908864
0.90955
0.910102
0.910583
0.911183
0.911686
0.91168
0.911139
0.910333
0.909475
0.908859
0.908691
0.908775
0.908973
0.909187
0.909308
0.909147
0.908097
0.907443
0.907181
0.906845
0.903979
0.902179
0.901142
0.900147
0.899604
0.899201
0.898882
0.898745
0.898727
0.89887
0.899096
0.899337
0.899518
0.899606
0.899604
0.899548
0.899479
0.89945
0.899501
0.899672
0.899988
0.900459
0.901076
0.901803
0.902569
0.90332
0.904072
0.904827
0.905529
0.906161
0.906732
0.907249
0.907731
0.908193
0.908647
0.90911
0.909609
0.910167
0.91078
0.911423
0.912075
0.912742
0.913443
0.914168
0.91486
0.915476
0.916011
0.916515
0.917117
0.917949
0.91917
0.920814
0.92264
0.924333
0.925618
0.926502
0.927177
0.928073
0.929744
0.931282
0.932482
0.932578
0.932143
0.932579
0.93188
0.931372
0.932844
0.932307
0.927118
0.921611
0.920781
0.922844
0.922899
0.919408
0.914984
0.9113
0.906882
0.901841
0.897663
0.894213
0.890991
0.888159
0.886126
0.884732
0.883761
0.882797
0.881327
0.879016
0.876008
0.873006
0.870939
0.870541
0.872145
0.874866
0.876446
0.877327
0.881511
0.889565
0.897134
0.900999
0.900769
0.900102
0.901578
0.905123
0.908658
0.910294
0.910267
0.909753
0.909321
0.908992
0.908734
0.908469
0.908076
0.90753
0.906926
0.906319
0.905669
0.904959
0.904176
0.903277
0.902331
0.901446
0.901111
0.902125
0.904411
0.906512
0.909057
0.911347
0.91228
0.911908
0.913247
0.912448
0.909181
0.903959
0.930825
0.930375
0.930162
0.930054
0.929791
0.92952
0.929221
0.928723
0.927983
0.926861
0.925255
0.923333
0.921312
0.919342
0.917472
0.915642
0.913768
0.911834
0.909934
0.908195
0.906731
0.905817
0.905656
0.905868
0.905947
0.906096
0.906565
0.907165
0.907849
0.908656
0.909178
0.909067
0.908503
0.907816
0.907176
0.906769
0.906666
0.906727
0.906955
0.907253
0.907282
0.906707
0.906249
0.905939
0.906036
0.904971
0.902668
0.901335
0.900325
0.899307
0.898752
0.898346
0.898192
0.898276
0.898446
0.898652
0.898768
0.898779
0.89869
0.898557
0.898437
0.898382
0.898423
0.898572
0.898827
0.899189
0.899651
0.900208
0.900845
0.901529
0.902219
0.902906
0.903607
0.904289
0.904887
0.905392
0.905842
0.906277
0.906729
0.907217
0.907749
0.90833
0.908974
0.909688
0.910451
0.911211
0.911914
0.912526
0.913042
0.913455
0.913764
0.91402
0.914305
0.914697
0.915336
0.916351
0.917831
0.919802
0.922051
0.924141
0.925729
0.926761
0.927581
0.92866
0.930823
0.93306
0.934242
0.934617
0.933965
0.934134
0.934068
0.933341
0.934593
0.934702
0.9297
0.923126
0.920276
0.921266
0.921334
0.918314
0.914632
0.911377
0.907014
0.902191
0.898429
0.895253
0.892065
0.889011
0.88674
0.885342
0.884311
0.882879
0.880353
0.876609
0.872489
0.869317
0.867873
0.868194
0.870309
0.873853
0.87547
0.874618
0.877487
0.88572
0.895223
0.900465
0.900634
0.900055
0.901922
0.90641
0.911327
0.913382
0.912936
0.911944
0.911359
0.911015
0.910753
0.910488
0.91007
0.909465
0.908782
0.908096
0.907375
0.906609
0.905834
0.904955
0.903856
0.902836
0.902656
0.904014
0.906767
0.909418
0.912091
0.914361
0.915732
0.915557
0.915968
0.915633
0.91337
0.908704
0.933117
0.932963
0.932902
0.932657
0.932141
0.931626
0.931065
0.930456
0.929689
0.928509
0.927015
0.925485
0.923954
0.922459
0.920993
0.919417
0.91762
0.915622
0.913554
0.91157
0.909812
0.908503
0.907791
0.90759
0.907563
0.907475
0.907421
0.907315
0.907247
0.907358
0.907279
0.906742
0.905902
0.905028
0.904361
0.90407
0.904148
0.904471
0.904954
0.905388
0.905504
0.905322
0.905453
0.905385
0.90498
0.903291
0.901574
0.900386
0.899365
0.898416
0.897929
0.897582
0.897543
0.897657
0.897795
0.897915
0.897967
0.898006
0.898064
0.898177
0.898344
0.898547
0.898756
0.898939
0.899073
0.899166
0.899262
0.899425
0.899701
0.900106
0.900618
0.901158
0.901669
0.902208
0.902772
0.903327
0.903868
0.904422
0.905035
0.905748
0.906579
0.907523
0.908551
0.909617
0.910664
0.911617
0.912391
0.912908
0.913147
0.913201
0.913243
0.913445
0.913936
0.914761
0.915922
0.917499
0.919377
0.921419
0.923548
0.92548
0.927105
0.928317
0.929045
0.929895
0.931574
0.933983
0.935603
0.936241
0.935923
0.935939
0.936258
0.935575
0.936516
0.937547
0.933873
0.92751
0.923585
0.923028
0.922001
0.918737
0.915481
0.912317
0.907765
0.902986
0.899383
0.896277
0.893061
0.889898
0.887356
0.885873
0.884624
0.882494
0.878788
0.873831
0.869294
0.866812
0.866476
0.866982
0.868362
0.872053
0.873864
0.871768
0.873579
0.882363
0.893459
0.899393
0.900172
0.900035
0.902112
0.90714
0.913607
0.916388
0.91567
0.91443
0.913719
0.913352
0.913027
0.912636
0.912048
0.911285
0.910506
0.909793
0.909081
0.908336
0.907617
0.906695
0.905266
0.904089
0.904273
0.906132
0.909248
0.912323
0.915177
0.9176
0.919188
0.919413
0.919129
0.918621
0.916946
0.913073
0.936244
0.935943
0.935739
0.935345
0.934824
0.934542
0.934241
0.933779
0.933005
0.931764
0.930315
0.928878
0.927483
0.926148
0.924789
0.923238
0.921401
0.919321
0.917166
0.915102
0.913221
0.911676
0.910657
0.910234
0.910148
0.910048
0.909865
0.909525
0.90902
0.908409
0.907714
0.906988
0.906345
0.905901
0.905736
0.90587
0.906218
0.906585
0.906844
0.90683
0.906379
0.905873
0.905264
0.904544
0.903582
0.901933
0.900375
0.899214
0.898197
0.897393
0.896976
0.896704
0.896754
0.896914
0.897152
0.897442
0.897766
0.898135
0.898511
0.898851
0.899091
0.899183
0.899092
0.898821
0.898427
0.898027
0.897766
0.89775
0.898006
0.898508
0.899197
0.899939
0.90063
0.901348
0.902064
0.902697
0.903234
0.903719
0.904234
0.90486
0.905645
0.906601
0.9077
0.908885
0.910085
0.911212
0.912168
0.912884
0.913366
0.913751
0.914262
0.915017
0.916037
0.917307
0.918671
0.920094
0.921539
0.92298
0.924583
0.926592
0.928862
0.930491
0.930737
0.930817
0.931787
0.933748
0.935997
0.93728
0.937395
0.937474
0.938099
0.937766
0.93823
0.939757
0.937831
0.932778
0.928933
0.927012
0.92439
0.920636
0.917509
0.91411
0.909113
0.904162
0.900546
0.897407
0.894104
0.890832
0.888105
0.88634
0.884681
0.881798
0.877085
0.871389
0.867058
0.865696
0.866216
0.866047
0.866157
0.869901
0.873059
0.87076
0.871524
0.880874
0.892915
0.898998
0.900189
0.900844
0.90282
0.907665
0.915254
0.919423
0.918058
0.916583
0.915952
0.915583
0.915251
0.914844
0.914172
0.913289
0.912415
0.911655
0.910934
0.910215
0.9095
0.90835
0.906566
0.905416
0.906077
0.908426
0.911818
0.915279
0.918366
0.920936
0.922581
0.92311
0.922563
0.921644
0.920129
0.916804
0.939506
0.939252
0.939132
0.938773
0.938218
0.937776
0.937285
0.936633
0.93566
0.934346
0.932893
0.931403
0.929943
0.928573
0.927268
0.925907
0.924366
0.922621
0.920754
0.918847
0.91697
0.915293
0.914007
0.913164
0.91269
0.912492
0.912404
0.912305
0.91213
0.911842
0.911465
0.91107
0.91072
0.910506
0.91042
0.910292
0.910001
0.909423
0.908501
0.907236
0.905788
0.904399
0.902988
0.902005
0.901313
0.900137
0.898708
0.897713
0.896815
0.896221
0.895915
0.895809
0.896032
0.896383
0.896883
0.897473
0.898091
0.898645
0.899036
0.89921
0.899154
0.898887
0.898445
0.897908
0.897417
0.897115
0.897064
0.897248
0.897634
0.898192
0.898903
0.899788
0.900839
0.90179
0.902507
0.902986
0.903269
0.903456
0.90368
0.904053
0.904642
0.905459
0.90647
0.907621
0.908841
0.910046
0.911153
0.912144
0.913071
0.913927
0.914835
0.915853
0.916863
0.917806
0.918616
0.919267
0.919963
0.921091
0.923103
0.926337
0.929977
0.932034
0.931783
0.931257
0.932288
0.934366
0.937055
0.93896
0.939316
0.938973
0.939355
0.939386
0.939371
0.940709
0.940297
0.937096
0.933684
0.930413
0.926596
0.922869
0.919978
0.916361
0.910919
0.905702
0.901987
0.898761
0.895296
0.891863
0.888975
0.88679
0.884577
0.881075
0.875691
0.869766
0.866024
0.865685
0.866424
0.865412
0.864478
0.868624
0.87342
0.870809
0.870632
0.880586
0.893385
0.899887
0.901441
0.902826
0.904691
0.908775
0.916516
0.922167
0.920328
0.918232
0.917971
0.917752
0.917345
0.916923
0.916247
0.91531
0.914364
0.913566
0.912854
0.912152
0.911406
0.909971
0.907912
0.906869
0.90797
0.910806
0.914509
0.918246
0.92148
0.9241
0.925703
0.926255
0.925539
0.924199
0.92271
0.919867
0.942841
0.94259
0.94234
0.941841
0.94118
0.940643
0.940063
0.939259
0.938069
0.936455
0.934553
0.932528
0.930541
0.928729
0.927131
0.925668
0.924211
0.922678
0.921067
0.919449
0.917918
0.916534
0.915336
0.914373
0.913688
0.913277
0.913036
0.912773
0.912297
0.911593
0.910747
0.909861
0.908965
0.908087
0.907212
0.906288
0.905242
0.903979
0.902563
0.901136
0.899711
0.898471
0.898012
0.898363
0.898512
0.897752
0.896735
0.896041
0.895391
0.895045
0.894904
0.895022
0.89544
0.896003
0.896733
0.897512
0.898215
0.898688
0.898866
0.898803
0.898613
0.898395
0.8982
0.898049
0.897952
0.897888
0.897823
0.897747
0.89771
0.897824
0.89827
0.899097
0.900101
0.900978
0.901606
0.901973
0.902114
0.902135
0.902213
0.902515
0.903132
0.904071
0.905259
0.906606
0.908009
0.90938
0.910657
0.911824
0.912908
0.913842
0.914648
0.915414
0.916171
0.91691
0.917618
0.918326
0.919297
0.920951
0.923639
0.92749
0.931579
0.933785
0.933463
0.932862
0.934127
0.936406
0.938861
0.940911
0.941496
0.940836
0.940513
0.940525
0.940133
0.940796
0.941374
0.939649
0.936433
0.932378
0.928203
0.924875
0.92237
0.918755
0.913065
0.907594
0.903739
0.900396
0.896735
0.893098
0.890013
0.887404
0.884578
0.88062
0.874892
0.86913
0.866073
0.866181
0.866772
0.865117
0.863124
0.868182
0.874283
0.871415
0.870925
0.881499
0.894607
0.901535
0.903412
0.905148
0.907453
0.911179
0.918342
0.92416
0.922486
0.919362
0.919665
0.919993
0.91954
0.919007
0.918226
0.917169
0.91617
0.915394
0.914704
0.914032
0.913232
0.911545
0.909294
0.908428
0.909998
0.913292
0.917273
0.921185
0.924475
0.92705
0.928552
0.928916
0.927962
0.926236
0.924565
0.922133
0.946142
0.9459
0.945598
0.945104
0.944419
0.94372
0.942932
0.941901
0.940471
0.938621
0.936438
0.934022
0.931478
0.928924
0.92647
0.924188
0.922077
0.920106
0.918253
0.916521
0.914962
0.91366
0.91264
0.911879
0.91134
0.910906
0.910399
0.909664
0.908623
0.907263
0.905607
0.903771
0.901873
0.90003
0.89833
0.896845
0.895539
0.89442
0.893597
0.893144
0.893134
0.893803
0.895066
0.896192
0.896398
0.895782
0.895157
0.894666
0.894237
0.894056
0.894037
0.894307
0.894829
0.895514
0.896365
0.897216
0.897894
0.898247
0.898322
0.898322
0.898435
0.898694
0.898948
0.898986
0.898658
0.897944
0.896978
0.896
0.895249
0.894904
0.895104
0.895783
0.896624
0.897542
0.89848
0.899292
0.899858
0.900181
0.90043
0.900847
0.901578
0.902658
0.904037
0.905632
0.907334
0.909091
0.910853
0.912512
0.913924
0.915095
0.916077
0.916983
0.917953
0.919034
0.920199
0.921457
0.922996
0.925031
0.927668
0.930823
0.933759
0.935298
0.935295
0.935413
0.936939
0.939047
0.940664
0.942004
0.942623
0.942359
0.941732
0.941519
0.941138
0.941176
0.941992
0.941174
0.938044
0.933743
0.929663
0.926733
0.924596
0.921186
0.915485
0.909816
0.905787
0.902324
0.898482
0.894635
0.89136
0.88845
0.885125
0.880687
0.874837
0.869334
0.866767
0.866866
0.86743
0.865235
0.862454
0.868304
0.875309
0.872806
0.872628
0.883475
0.896335
0.903272
0.905304
0.907012
0.910072
0.914434
0.920906
0.925503
0.923842
0.920131
0.921009
0.922226
0.921823
0.921109
0.920175
0.918993
0.917971
0.917227
0.916553
0.915916
0.914991
0.913071
0.910752
0.910187
0.91223
0.915897
0.920079
0.924075
0.927341
0.929751
0.931008
0.931025
0.929697
0.927609
0.925677
0.923577
0.949288
0.949095
0.948758
0.948185
0.947392
0.946579
0.945697
0.94461
0.943197
0.941419
0.939288
0.936863
0.934217
0.931446
0.92866
0.92597
0.923455
0.921139
0.919004
0.917057
0.915378
0.91408
0.913192
0.912613
0.912148
0.9116
0.910854
0.909868
0.908626
0.907137
0.90541
0.903438
0.901278
0.899088
0.897041
0.895271
0.893857
0.89293
0.8926
0.892873
0.893676
0.894796
0.895759
0.896087
0.895694
0.89502
0.894455
0.893951
0.893579
0.893412
0.893419
0.893719
0.894235
0.894938
0.895811
0.896671
0.897309
0.897609
0.897719
0.897909
0.89832
0.898765
0.898843
0.898248
0.89693
0.895106
0.893195
0.891641
0.890751
0.890588
0.890948
0.891566
0.89236
0.893468
0.894921
0.89649
0.89788
0.898908
0.899664
0.900394
0.901326
0.902533
0.903977
0.905553
0.907184
0.908927
0.91084
0.912849
0.914757
0.916449
0.917922
0.919287
0.920673
0.922103
0.923511
0.924872
0.926314
0.927995
0.92997
0.932221
0.934333
0.935487
0.935667
0.936481
0.938645
0.940924
0.942271
0.943059
0.943445
0.943401
0.942973
0.942601
0.942367
0.942219
0.942794
0.942479
0.939706
0.935493
0.931476
0.928661
0.926732
0.923656
0.918157
0.91235
0.908113
0.904555
0.900603
0.896606
0.893189
0.890069
0.886409
0.881577
0.875614
0.870149
0.867762
0.867768
0.868629
0.866141
0.863048
0.869199
0.876554
0.874671
0.875306
0.886209
0.898319
0.904796
0.90702
0.908785
0.912338
0.917432
0.923489
0.926762
0.924287
0.920554
0.92195
0.924357
0.924192
0.923165
0.922063
0.920832
0.919838
0.919121
0.918479
0.91786
0.916754
0.914579
0.912311
0.912157
0.914636
0.918592
0.922917
0.926905
0.930027
0.932149
0.933012
0.932531
0.93066
0.928142
0.925897
0.924109
0.952495
0.952305
0.951866
0.951241
0.950427
0.949524
0.948561
0.947461
0.946121
0.9445
0.942621
0.940516
0.938188
0.935689
0.933137
0.930667
0.928387
0.926329
0.924433
0.92264
0.920972
0.919494
0.918238
0.917168
0.916258
0.915484
0.914793
0.91417
0.913537
0.912708
0.911515
0.909919
0.908034
0.906027
0.904076
0.902319
0.900863
0.899805
0.899168
0.89886
0.898716
0.898507
0.898026
0.897233
0.896285
0.895411
0.894665
0.894033
0.893584
0.893319
0.893263
0.893474
0.893878
0.894456
0.895202
0.895983
0.896536
0.896755
0.896825
0.897006
0.89738
0.897566
0.897084
0.89573
0.893632
0.891194
0.889018
0.887622
0.887163
0.887498
0.888241
0.889008
0.889908
0.891106
0.892744
0.894831
0.89689
0.898473
0.899611
0.900605
0.901765
0.903232
0.904942
0.906723
0.908455
0.910094
0.91167
0.913218
0.914742
0.916186
0.917525
0.918828
0.920209
0.921688
0.923171
0.924607
0.926106
0.927838
0.929786
0.931898
0.934132
0.935817
0.936423