/*--------------------------------*- C++ -*----------------------------------*\
  =========                 |
  \\      /  F ield         | OpenFOAM: The Open Source CFD Toolbox
   \\    /   O peration     | Website:  https://openfoam.org
    \\  /    A nd           | Version:  11
     \\/     M anipulation  |
\*---------------------------------------------------------------------------*/
FoamFile
{
    format      ascii;
    class       surfaceScalarField;
    location    "76";
    object      phi;
}
// * * * * * * * * * * * * * * * * * * * * * * * * * * * * * * * * * * * * * //

dimensions      [0 3 -1 0 0 0 0];

internalField   nonuniform List<scalar> 
4000
(
0.0250285
-2.84674e-05
0.0251123
-8.38784e-05
0.0252507
-0.000138381
0.0254436
-0.000192908
0.0256916
-0.000248004
0.0259955
-0.000303843
0.0263556
-0.000360104
0.0267715
-0.000415892
0.0272412
-0.000469677
0.0277604
-0.000519274
0.0283223
-0.00056188
0.0289166
-0.000594287
0.0295298
-0.00061323
0.0301457
-0.000615897
0.0307463
-0.000600523
0.0313132
-0.000566987
0.0318305
-0.000517292
0.0322863
-0.000455786
0.032675
-0.000388664
0.0329977
-0.000322767
0.0332622
-0.000264445
0.0334812
-0.000218979
0.0336715
-0.000190362
0.0338526
-0.000181089
0.0340444
-0.000191767
0.0342649
-0.000220481
0.0345274
-0.000262494
0.0348379
-0.000310533
0.0351933
-0.000355444
0.0355803
-0.000387002
0.035976
-0.000395683
0.0363494
-0.000373362
0.0366647
-0.000315272
0.0368836
-0.000218951
0.0369738
-9.02293e-05
0.036909
6.4807e-05
0.0366722
0.000236791
0.0362585
0.00041372
0.0356747
0.000583795
0.0349376
0.000737098
0.0340711
0.000866528
0.0331031
0.00096803
0.0320627
0.00104041
0.030978
0.00108465
0.029875
0.00110307
0.0287765
0.00109847
0.0277028
0.00107366
0.0266719
0.00103087
0.0257004
0.000971516
0.0248041
0.000896287
0.0239995
0.000804633
0.0233031
0.000696439
0.0227355
0.000567555
0.0223149
0.000420655
0.022068
0.000246868
0.0220061
6.19398e-05
0.0221638
-0.000157698
0.022538
-0.000374278
0.0231569
-0.000618858
0.0240292
-0.00087228
0.0251374
-0.00110824
0.0265769
-0.00143949
0.0281647
-0.00158784
-0.00206804
0.0250282
-5.66984e-05
0.0251113
-0.00016692
0.0252484
-0.000275478
0.0254398
-0.000384379
0.0256866
-0.00049481
0.02599
-0.000607212
0.026351
-0.000721037
0.0267696
-0.000834553
0.0272446
-0.0009447
0.0277724
-0.00104703
0.0283462
-0.00113573
0.028956
-0.00120402
0.0295875
-0.0012448
0.0302234
-0.00125175
0.0308437
-0.00122079
0.031428
-0.00115132
0.0319582
-0.0010475
0.0324212
-0.000918774
0.032811
-0.000778448
0.0331291
-0.000640864
0.0333838
-0.000519128
0.033589
-0.000424224
0.0337633
-0.00036465
0.0339281
-0.000345881
0.0341058
-0.000369486
0.034317
-0.000431673
0.0345772
-0.000522672
0.0348939
-0.000627262
0.0352647
-0.000726257
0.0356758
-0.000798107
0.0361022
-0.000822031
0.0365103
-0.00078151
0.03686
-0.000664988
0.0371088
-0.000467684
0.0372207
-0.000202163
0.0371672
0.000118321
0.0369299
0.000474098
0.0365042
0.000839423
0.0358987
0.00118927
0.0351328
0.00150304
0.0342331
0.00176617
0.0332306
0.0019706
0.0321565
0.0021145
0.0310405
0.00220064
0.0299091
0.00223445
0.0287854
0.00222217
0.0276893
0.00216981
0.026638
0.00208215
0.0256476
0.00196188
0.0247333
0.00181061
0.0239106
0.00162729
0.0231964
0.00141064
0.0226115
0.0011525
0.0221749
0.000857258
0.0219144
0.000507328
0.0218351
0.000141225
0.0219702
-0.000292779
0.0223052
-0.000709289
0.0228726
-0.00118627
0.0236737
-0.00167338
0.0247129
-0.00214743
0.0260752
-0.00280181
0.0276003
-0.00311294
-0.00409053
0.0250276
-8.42829e-05
0.0251088
-0.000248104
0.025243
-0.00040974
0.0254312
-0.00057256
0.0256751
-0.000738653
0.0259768
-0.000908965
0.0263387
-0.00108297
0.0267624
-0.0012582
0.0272478
-0.00143008
0.0277924
-0.00159169
0.0283905
-0.00173378
0.0290318
-0.00184536
0.0297013
-0.00191428
0.0303788
-0.00192931
0.0310406
-0.00188256
0.0316613
-0.00177196
0.032218
-0.00160428
0.0326953
-0.00139608
0.0330867
-0.00116986
0.0333945
-0.000948618
0.0336282
-0.000752833
0.033804
-0.000599996
0.0339436
-0.000504261
0.0340731
-0.000475359
0.0342202
-0.000516642
0.034411
-0.000622416
0.0346655
-0.000777162
0.0349946
-0.00095642
0.0353971
-0.00112872
0.0358579
-0.00125896
0.0363488
-0.00131286
0.0368287
-0.00126149
0.0372496
-0.00108587
0.0375637
-0.000781788
0.0377204
-0.00035881
0.0376917
0.000146972
0.0374535
0.000712342
0.0370022
0.00129067
0.0363509
0.00184058
0.0355248
0.0023292
0.0345569
0.00273399
0.0334839
0.00304362
0.0323415
0.00325692
0.0311622
0.00337994
0.0299739
0.00342269
0.0288
0.00339615
0.0276593
0.00331051
0.0265678
0.0031736
0.0255403
0.00298937
0.0245901
0.00276089
0.0237308
0.00248651
0.0229806
0.00216092
0.0223621
0.00177099
0.0218926
0.00132675
0.0215913
0.000808653
0.0214554
0.000277124
0.0214946
-0.000332014
0.0216973
-0.000912025
0.022121
-0.0016099
0.0227738
-0.00232623
0.0237086
-0.00308224
0.0249826
-0.00407579
0.0264719
-0.00460222
-0.00610021
0.0250265
-0.000110763
0.0251044
-0.000326045
0.0252337
-0.000538981
0.0254158
-0.000754723
0.0256538
-0.000976637
0.0259514
-0.00120656
0.0263129
-0.00144446
0.0267421
-0.00168744
0.0272417
-0.00192962
0.0278112
-0.00216116
0.028446
-0.00236862
0.0291364
-0.00253575
0.0298656
-0.00264344
0.0306099
-0.00267365
0.031339
-0.00261166
0.0320183
-0.00245124
0.0326172
-0.00220319
0.0331165
-0.00189538
0.0335096
-0.00156294
0.0337999
-0.00123889
0.0339989
-0.000951868
0.0341259
-0.000727031
0.0342076
-0.000585895
0.0342771
-0.000544913
0.0343716
-0.000611137
0.034526
-0.000776819
0.0347682
-0.00101932
0.0351147
-0.00130293
0.0355668
-0.00158082
0.0361077
-0.00179985
0.0367025
-0.00190767
0.0372994
-0.00185835
0.0378383
-0.00162482
0.0382554
-0.00119886
0.0384862
-0.000589621
0.0384973
0.000135905
0.0382571
0.000952495
0.0377651
0.00178264
0.0370404
0.00256531
0.0361176
0.00325202
0.035041
0.00381058
0.0338574
0.00422724
0.0326099
0.00450442
0.031335
0.0046548
0.0300621
0.00469558
0.0288138
0.00464445
0.0276075
0.00451682
0.0264576
0.00432358
0.0253755
0.0040714
0.0243709
0.00376553
0.0234581
0.00339931
0.0226553
0.00296367
0.0219858
0.00244049
0.0214571
0.00185544
0.0210514
0.00121436
0.0207521
0.000576444
0.0205863
-0.000166176
0.0205883
-0.000914087
0.0208803
-0.00190184
0.0214747
-0.0029207
0.0224562
-0.00406372
0.0237803
-0.00539983
0.0253835
-0.00620541
-0.00812954
0.0250247
-0.000135473
0.0250975
-0.000398794
0.0252186
-0.000660076
0.0253907
-0.000926844
0.0256182
-0.00120416
0.0259069
-0.00149529
0.026264
-0.00180151
0.0266965
-0.00211995
0.0272115
-0.00244458
0.0278122
-0.00276186
0.0284972
-0.00305365
0.0292571
-0.00329563
0.0300722
-0.00345859
0.0309146
-0.00351604
0.0317431
-0.0034402
0.0325076
-0.00321575
0.0331664
-0.00286195
0.0336962
-0.00242519
0.0340905
-0.00195718
0.0343537
-0.00150219
0.0345002
-0.00109831
0.0345535
-0.000780339
0.034547
-0.000579404
0.0345242
-0.000522156
0.0345357
-0.000622541
0.0346301
-0.000871281
0.0348476
-0.00123677
0.0352134
-0.00166881
0.0357329
-0.00210032
0.0363871
-0.00245405
0.0371313
-0.00265182
0.0379002
-0.00262724
0.0386122
-0.00233688
0.0391765
-0.00176316
0.0395301
-0.000943206
0.0395991
6.6905e-05
0.0393581
0.00119354
0.0388065
0.00233426
0.037975
0.00339673
0.0369139
0.00431312
0.0356833
0.00504116
0.0343442
0.00556641
0.0329504
0.0058982
0.0315451
0.00606011
0.0301594
0.00608121
0.0288145
0.00598943
0.0275247
0.00580664
0.0263007
0.00554754
0.0251482
0.00522387
0.0240739
0.00483989
0.0230932
0.00438
0.0222266
0.00383026
0.0214768
0.00319032
0.0208051
0.0025271
0.0201876
0.00183189
0.0196446
0.00111937
0.0192994
0.000179105
0.0192622
-0.00087694
0.0196603
-0.00229996
0.0204316
-0.00369197
0.0216171
-0.00524918
0.0230459
-0.00682868
0.0247353
-0.00789483
-0.0100434
0.025022
-0.000157471
0.0250869
-0.000463693
0.0251955
-0.000768627
0.0253517
-0.00108314
0.0255618
-0.0014142
0.0258342
-0.00176764
0.0261792
-0.00214658
0.0266084
-0.00254909
0.0271352
-0.00297139
0.0277688
-0.00339551
0.0285167
-0.0038015
0.0293706
-0.00414956
0.030307
-0.00439502
0.0312915
-0.00450052
0.0322615
-0.0044102
0.0331422
-0.00409645
0.0338802
-0.00359989
0.0344505
-0.00299554
0.0348462
-0.00235287
0.0350712
-0.00172717
0.0351418
-0.00116893
0.0350869
-0.000725469
0.0349502
-0.000442688
0.0347914
-0.000363343
0.0346778
-0.000508969
0.0346762
-0.000869669
0.0348434
-0.00140397
0.0352189
-0.00204432
0.0358124
-0.0026938
0.0365982
-0.00323986
0.0375197
-0.00357328
0.0384941
-0.00360163
0.039422
-0.0032648
0.0402032
-0.00254436
0.0407285
-0.0014685
0.040917
-0.000121583
0.0407133
0.00139723
0.0401109
0.00293666
0.0391486
0.00435906
0.0379028
0.0055589
0.0364656
0.00647839
0.0349224
0.0071096
0.0333416
0.00747898
0.0317728
0.00762889
0.0302484
0.00760564
0.0287872
0.00745058
0.0274003
0.00719357
0.02609
0.00685785
0.024854
0.00645987
0.0237
0.00599386
0.0226465
0.00543356
0.0216913
0.00478547
0.0207811
0.00410048
0.0198724
0.00343584
0.0190135
0.00269075
0.0183569
0.00177596
0.0180837
0.000452329
0.0182631
-0.00105635
0.018909
-0.00294586
0.0198638
-0.00464681
0.0211389
-0.00652421
0.0225072
-0.00819699
0.0240904
-0.00947812
-0.0116717
0.025018
-0.000175521
0.0250717
-0.000517336
0.0251617
-0.000858638
0.0252942
-0.00121566
0.0254763
-0.00159623
0.025721
-0.00201239
0.0260418
-0.00246738
0.0264563
-0.00296363
0.0269855
-0.00350054
0.0276447
-0.00405473
0.0284618
-0.00461857
0.0294331
-0.00512088
0.0305401
-0.00550203
0.0317356
-0.00569606
0.0329079
-0.00558244
0.0339453
-0.00513383
0.0347871
-0.00444175
0.0354119
-0.00362036
0.0358111
-0.00275204
0.0359842
-0.00190031
0.0359477
-0.00113241
0.0357322
-0.00050994
0.0353941
-0.000104538
0.0350227
7.97297e-06
0.0347069
-0.000193153
0.0345337
-0.000696434
0.0345746
-0.00144485
0.0348856
-0.00235531
0.0354759
-0.00328417
0.0363091
-0.00407308
0.0373217
-0.0045858
0.0384364
-0.00471641
0.0395633
-0.00439165
0.0405967
-0.0035778
0.0414117
-0.00228344
0.041892
-0.000601925
0.0419023
0.0013869
0.0414086
0.00343036
0.0404168
0.0053509
0.0390154
0.00696034
0.0373473
0.00814646
0.0355559
0.00890095
0.033748
0.00928689
0.0319871
0.00938985
0.0303045
0.00928817
0.0287148
0.00904035
0.0272204
0.00868797
0.0258132
0.00826497
0.0244884
0.00778466
0.0232565
0.00722579
0.0221131
0.00657698
0.021004
0.00589457
0.019868
0.00523643
0.0187489
0.00455494
0.0178179
0.00362178
0.0172761
0.00231779
0.0172245
0.000503945
0.0176261
-0.001458
0.0184019
-0.00372163
0.0193825
-0.00562744
0.0205895
-0.00773114
0.0217866
-0.00939417
0.0231803
-0.0108718
-0.0129631
0.0250126
-0.000188124
0.025051
-0.000555736
0.0251149
-0.000922491
0.0252135
-0.00131426
0.0253519
-0.00173467
0.0255526
-0.00221309
0.0258276
-0.00274236
0.0262121
-0.00334811
0.0267276
-0.00401606
0.0274001
-0.00472723
0.0282862
-0.00550468
0.0293753
-0.00621003
0.0307208
-0.00684749
0.0322419
-0.00721717
0.0337142
-0.0070547
0.0349716
-0.00639128
0.0359471
-0.00541722
0.0366247
-0.00429802
0.0369993
-0.00312663
0.0370742
-0.00197519
0.0368601
-0.000918353
0.0363826
-3.23711e-05
0.0357099
0.000568148
0.0349728
0.000745025
0.03427
0.000509719
0.033724
-0.000150422
0.0334053
-0.00112619
0.0333669
-0.00231696
0.0335939
-0.00351112
0.0340756
-0.0045548
0.0348276
-0.00533776
0.0358596
-0.00574845
0.0371241
-0.00565611
0.0385023
-0.00495602
0.0398173
-0.00359842
0.0409294
-0.00171408
0.0415914
0.000724902
0.0416817
0.00334011
0.0410976
0.00593495
0.0398627
0.00819524
0.038137
0.00987218
0.0361498
0.0108881
0.0341058
0.0113309
0.032131
0.0113646
0.0302786
0.0111406
0.0285589
0.01076
0.0269591
0.0102878
0.0254596
0.00976444
0.0240557
0.00918856
0.0227436
0.00853786
0.0214747
0.00784594
0.0201748
0.0071945
0.0188505
0.00656065
0.017658
0.00574751
0.0168114
0.00446838
0.0164525
0.0026766
0.0165744
0.000382102
0.0170885
-0.00197208
0.0178861
-0.00451924
0.0188289
-0.00657031
0.0199277
-0.00882991
0.0209521
-0.0104186
0.0221398
-0.0120594
-0.0139084
0.0250056
-0.000193769
0.0250245
-0.000574566
0.0250537
-0.000951742
0.0251066
-0.00136716
0.0251811
-0.00180919
0.0253147
-0.0023467
0.0255041
-0.00293172
0.0258336
-0.00367757
0.0262947
-0.00447725
0.0269891
-0.00542155
0.0279473
-0.00646295
0.0291222
-0.00738489
0.0308423
-0.00856753
0.0328764
-0.00925136
0.0347358
-0.00891403
0.0361978
-0.00785328
0.0372096
-0.00642901
0.0377814
-0.00486991
0.0379428
-0.00328803
0.0377504
-0.00178273
0.0371906
-0.000358613
0.0362512
0.000907115
0.0350545
0.00176485
0.0336994
0.00210006
0.0323285
0.0018806
0.0310252
0.00115289
0.0298029
9.61451e-05
0.0287242
-0.00123828
0.0278534
-0.00264026
0.027445
-0.00414644
0.0277407
-0.00563344
0.0288032
-0.006811
0.0304893
-0.00734214
0.0325369
-0.00700364
0.0346713
-0.00573282
0.0366154
-0.00365823
0.0382795
-0.000939208
0.0394086
0.00221105
0.0398201
0.00552342
0.0393833
0.0086321
0.0381437
0.0111118
0.0363309
0.0127009
0.0342464
0.0134155
0.0321366
0.0134744
0.0301403
0.013137
0.0283008
0.0125995
0.026605
0.0119836
0.0250298
0.0113397
0.0235616
0.0106567
0.0221614
0.00993806
0.0207477
0.00925968
0.0192807
0.00866147
0.0178617
0.00797968
0.0167052
0.00690393
0.0159912
0.00518239
0.0157818
0.00288598
0.0160089
0.000155093
0.0165766
-0.0025398
0.0173636
-0.00530624
0.018257
-0.00746368
0.0192322
-0.0098052
0.0200864
-0.0112727
0.0210426
-0.0130157
-0.0145142
0.0249976
-0.000191354
0.0249923
-0.000569254
0.0249797
-0.000939203
0.0249739
-0.00136131
0.0249648
-0.00180014
0.0250007
-0.00238257
0.0250499
-0.0029809
0.0252664
-0.00389412
0.0255581
-0.00476894
0.0263066
-0.00617003
0.0272644
-0.00742077
0.0286843
-0.00880473
0.031082
-0.0109653
0.0335975
-0.0117668
0.0354335
-0.0107501
0.036521
-0.00894074
0.0369785
-0.00688654
0.0369206
-0.00481203
0.0364532
-0.00282064
0.0357212
-0.00105066
0.0346536
0.000708985
0.0330697
0.002491
0.0311901
0.00364447
0.029148
0.00414208
0.0268641
0.00416454
0.024219
0.00379801
0.0213145
0.00300063
0.0185944
0.0014818
0.0169026
-0.0009484
0.0166644
-0.00390826
0.0177891
-0.00675818
0.0199079
-0.00892974
0.0226179
-0.0100522
0.0255551
-0.00994083
0.028436
-0.00861366
0.0310635
-0.00628573
0.0333617
-0.00323744
0.0352494
0.000323373
0.0365641
0.00420871
0.0370946
0.00810158
0.0367156
0.0114907
0.035514
0.0139025
0.0337584
0.0151711
0.0317629
0.0154699
0.0297651
0.0151347
0.0278813
0.0144833
0.0261363
0.0137286
0.0245214
0.0129545
0.0230069
0.0121712
0.0215178
0.0114273
0.0199749
0.0108026
0.0184059
0.0102304
0.0169814
0.00940425
0.0159152
0.0079701
0.0153284
0.00576922
0.015226
0.00298835
0.015516
-0.000134954
0.0161054
-0.00312913
0.0168659
-0.00606674
0.017701
-0.00829876
0.0185493
-0.0106536
0.0192475
-0.0119709
0.0199712
-0.0137394
-0.0148213
0.0249891
-0.000180411
0.0249553
-0.000535528
0.0248971
-0.00088094
0.0248192
-0.0012834
0.0247161
-0.00169707
0.0246164
-0.00228288
0.0244903
-0.00285477
0.0244785
-0.00388234
0.0244383
-0.00472877
0.0250375
-0.00676917
0.0256464
-0.00802966
0.028158
-0.0113164
0.0309444
-0.0137517
0.0324998
-0.0133222
0.0326618
-0.0109121
0.0319825
-0.00826142
0.0308549
-0.00575896
0.0296105
-0.00356766
0.0284154
-0.00162546
0.027192
0.000172694
0.0256656
0.00223538
0.0238631
0.00429353
0.0213731
0.00613448
0.0179051
0.00761001
0.0137727
0.00829699
0.00987245
0.00769825
0.00719958
0.0056735
0.00608909
0.00259229
0.00645635
-0.00131567
0.00788329
-0.0053352
0.0101191
-0.00899395
0.0129784
-0.0117891
0.0162716
-0.0133454
0.0197613
-0.0134305
0.0231707
-0.0120231
0.0262444
-0.00935936
0.0288633
-0.00585634
0.0310185
-0.00183189
0.0327126
0.00251465
0.0338238
0.00699039
0.0341667
0.0111478
0.0336712
0.014398
0.0324695
0.0163729
0.0308302
0.0171091
0.0290239
0.0169411
0.0272278
0.0162794
0.0255222
0.0154342
0.0239247
0.0145521
0.022393
0.0137029
0.0208384
0.0129818
0.0192171
0.0124239
0.0176228
0.0118246
0.0162569
0.0107702
0.0153004
0.00892653
0.0148225
0.00624714
0.0147947
0.00301619
0.0151219
-0.000462179
0.0157149
-0.00372211
0.0164459
-0.00679778
0.017225
-0.00907778
0.0179604
-0.011389
0.0185257
-0.0125362
0.0190335
-0.0142471
-0.0148872
0.0249802
-0.000160621
0.0249162
-0.000471525
0.0248107
-0.000775449
0.024653
-0.00112572
0.024453
-0.00149701
0.0241886
-0.0020185
0.0238871
-0.00255326
0.0235222
-0.00351745
0.0231132
-0.00431981
0.0228829
-0.00653887
0.0225716
-0.00771832
0.0257281
-0.0144728
0.0264469
-0.0144705
0.0237883
-0.0106636
0.0206938
-0.00781767
0.0177786
-0.00534618
0.0152604
-0.00324079
0.0133421
-0.00164939
0.0120944
-0.000377693
0.0115612
0.000705911
0.0101466
0.00364992
0.00849924
0.00594091
0.00623075
0.00840297
0.00367838
0.0101624
0.00135861
0.0106168
-0.000355665
0.00941253
-0.00129209
0.00660992
-0.00127722
0.00257742
-0.00049401
-0.00209888
0.0011374
-0.0069666
0.0034888
-0.0113454
0.00644323
-0.0147436
0.00988844
-0.0167906
0.0136701
-0.0172121
0.0175447
-0.0158977
0.0211842
-0.0129989
0.0243054
-0.00897755
0.0268237
-0.00435019
0.02878
0.000558299
0.030205
0.00556546
0.0310158
0.010337
0.0311055
0.0143083
0.0304899
0.0169885
0.0293369
0.0182621
0.0278778
0.0184002
0.0263078
0.0178494
0.0247479
0.0169941
0.0232382
0.0160618
0.0217352
0.0152059
0.0201647
0.0145523
0.0185359
0.0140527
0.0169905
0.01337
0.0157273
0.0120334
0.0148883
0.00976549
0.0145062
0.00662926
0.0145357
0.00298673
0.0148849
-0.000811465
0.0154709
-0.00430803
0.0161715
-0.00749836
0.0168965
-0.00980278
0.0175354
-0.012028
0.0179898
-0.0129905
0.0183103
-0.0145677
-0.014775
0.024971
-0.00013164
0.0248791
-0.000379568
0.0247259
-0.00062226
0.0244936
-0.000893429
0.024192
-0.00119548
0.0237704
-0.0015969
0.0232821
-0.0020649
0.0225675
-0.00280286
0.0218415
-0.00359385
0.0205138
-0.00521117
0.0190594
-0.00626385
0.0153169
-0.0107304
0.00866105
-0.00781459
0.00454289
-0.00654542
0.00229906
-0.00557384
0.00119675
-0.00424387
0.000712536
-0.00275657
0.000548298
-0.00148515
0.000696861
-0.000526256
0.00131159
9.11802e-05
0.000595391
0.00436612
-0.000992501
0.0075288
-0.00264454
0.010055
-0.00425856
0.0117764
-0.00570328
0.0120615
-0.00676965
0.0104789
-0.00710895
0.00694922
-0.00647749
0.00194596
-0.00516417
-0.00341219
-0.00320352
-0.00892726
-0.000784956
-0.0137639
0.00197885
-0.0175074
0.00507519
-0.019887
0.00854474
-0.0206817
0.0123197
-0.0196727
0.0161247
-0.0168038
0.0196049
-0.0124578
0.0225081
-0.00725341
0.0247769
-0.00171042
0.0264579
0.00388437
0.0275916
0.00920341
0.0281273
0.0137725
0.0280391
0.0170767
0.0274044
0.0188967
0.0263828
0.0194218
0.0251476
0.0190846
0.0238313
0.0183103
0.0224837
0.0174094
0.0210686
0.016621
0.0195491
0.0160719
0.0179889
0.015613
0.0165591
0.0147998
0.0154412
0.0131513
0.0147314
0.0104753
0.0144312
0.00692948
0.0145142
0.00290367
0.0148734
-0.00117066
0.0154432
-0.00487787
0.0161093
-0.00816439
0.0167805
-0.010474
0.0173379
-0.0125854
0.0177027
-0.0133553
0.0178725
-0.0147375
-0.0145435
0.0249626
-9.42496e-05
0.0248476
-0.000264522
0.0246508
-0.000425497
0.0243579
-0.000600515
0.0239584
-0.000795951
0.0234163
-0.00105482
0.0227226
-0.00137119
0.0217715
-0.00185182
0.020591
-0.00241329
0.0187634
-0.00338362
0.0166455
-0.00414595
0.0124541
-0.00653893
0.00904673
-0.00440727
0.00641233
-0.00391103
0.00429083
-0.00345233
0.00267987
-0.00263292
0.00159325
-0.00166996
0.000897112
-0.000789012
0.000437808
-6.69519e-05
-0.000198086
0.000727074
-0.00249301
0.00666104
-0.00434101
0.0093768
-0.00603275
0.0117467
-0.0076054
0.013349
-0.00878036
0.0132364
-0.00919794
0.0108965
-0.00868246
0.00643374
-0.00742468
0.000688175
-0.00569697
-0.0051399
-0.00360988
-0.0110143
-0.00138188
-0.0159919
0.000840642
-0.0197299
0.0030941
-0.0221404
0.00560702
-0.0231946
0.00857461
-0.0226403
0.0119183
-0.0201475
0.0152854
-0.0158249
0.0183089
-0.0102768
0.0207866
-0.0041882
0.0226888
0.0019822
0.0240823
0.00780989
0.0249736
0.0128812
0.0253416
0.0167087
0.025207
0.0190314
0.0246582
0.0199706
0.0238261
0.0199167
0.022827
0.0193094
0.0217056
0.0185308
0.0204431
0.0178835
0.0190504
0.0174646
0.0176375
0.0170259
0.0163837
0.0160536
0.0154468
0.0140882
0.014882
0.0110401
0.0146821
0.00712937
0.014788
0.00279783
0.0151587
-0.00154136
0.0157037
-0.00542291
0.0163262
-0.00878681
0.0169383
-0.0110862
0.0174202
-0.0130673
0.0177098
-0.0136449
0.0177623
-0.0147899
-0.0142368
0.0249567
-5.09298e-05
0.024824
-0.000131868
0.0245961
-0.000197534
0.0242567
-0.000261191
0.0237873
-0.000326478
0.0231505
-0.000418056
0.0223117
-0.000532344
0.0211855
-0.000725689
0.0197263
-0.000954062
0.017712
-0.00136928
0.0152708
-0.00170479
0.0114391
-0.00270723
0.00882715
-0.00179533
0.00655523
-0.00163911
0.00455541
-0.00145251
0.00298356
-0.00106107
0.00187223
-0.00055862
0.00112268
-3.9465e-05
0.00058943
0.000466299
-9.02684e-05
0.00140677
-0.00237347
0.00894424
-0.00438022
0.0113835
-0.00612074
0.0134873
-0.00741999
0.0146483
-0.00796379
0.0137802
-0.0075725
0.0105052
-0.00641883
0.00528007
-0.00502326
-0.000707395
-0.00314776
-0.0070154
-0.00111003
-0.0130521
0.00087897
-0.0179809
0.00255623
-0.0214071
0.00387782
-0.023462
0.00511345
-0.0244302
0.00674438
-0.0242712
0.00903182
-0.022435
0.0117749
-0.018568
0.0145444
-0.0130463
0.0169978
-0.00664164
0.019028
-4.80038e-05
0.0206319
0.00620602
0.0218256
0.0116876
0.0225942
0.0159401
0.0229243
0.0187013
0.0228491
0.0200457
0.0224515
0.0203143
0.0218139
0.0199471
0.0209676
0.0193771
0.0199188
0.0189322
0.0187276
0.0186558
0.0175387
0.0182148
0.0165235
0.0170688
0.0157893
0.0148224
0.0153899
0.0114394
0.0152874
0.00723193
0.0154418
0.00264336
0.0158084
-0.00190791
0.0163158
-0.00593029
0.016878
-0.00934903
0.0174171
-0.0116253
0.017818
-0.0134682
0.0180367
-0.0138635
0.0179963
-0.0147496
-0.0138823
0.0249534
-4.37567e-06
0.0248113
1.02519e-05
0.024567
4.68065e-05
0.0242025
0.000103277
0.0236976
0.000178418
0.0230095
0.000270073
0.0221025
0.000374681
0.0208825
0.000494308
0.0193179
0.000610504
0.0171901
0.000758474
0.0146666
0.000818741
0.0108705
0.00108891
0.00853358
0.000541569
0.00654637
0.000348105
0.00473317
0.000360688
0.00323525
0.000436845
0.00212591
0.00055072
0.0013721
0.000714346
0.000888936
0.000949465
0.000543739
0.00175197
-0.00100801
0.010496
-0.00267159
0.0130471
-0.00388961
0.0147053
-0.00442343
0.0151821
-0.00411658
0.0134734
-0.00308561
0.00947421
-0.00176163
0.00395609
-0.000255968
-0.00221305
0.00140358
-0.00867495
0.00309161
-0.0147401
0.00472458
-0.0196139
0.00603506
-0.0227176
0.0067101
-0.024137
0.00681894
-0.0245391
0.00693806
-0.0243903
0.00773903
-0.0232359
0.00938125
-0.0202103
0.0115113
-0.0151763
0.0136944
-0.00882475
0.0156796
-0.00203328
0.0174187
0.00446691
0.0188599
0.0102464
0.0199766
0.0148235
0.0207275
0.0179503
0.0211037
0.0196695
0.0211403
0.0202777
0.020879
0.0202084
0.0203404
0.0199156
0.0195592
0.0197135
0.0186378
0.0195772
0.0177376
0.0191149
0.017008
0.0177984
0.0165259
0.0153046
0.016292
0.0116733
0.0163064
0.0072176
0.0165065
0.00244322
0.0168633
-0.00226466
0.0173194
-0.0063864
0.0178016
-0.00983128
0.0182475
-0.0120712
0.0185506
-0.0137713
0.0186899
-0.0140028
0.018568
-0.0146277
-0.0134901
0.0249533
4.23265e-05
0.0248111
0.000152496
0.0245671
0.000290764
0.0242035
0.000466851
0.0237007
0.000681215
0.0230152
0.000955614
0.0221136
0.00127626
0.0208979
0.00171004
0.019345
0.00216342
0.017219
0.00288445
0.014711
0.00332671
0.0109125
0.00488742
0.00855509
0.00289898
0.00656001
0.00234318
0.00474965
0.00217105
0.00326382
0.00192268
0.00217798
0.00163656
0.00147809
0.00141424
0.00112884
0.00129871
0.0012032
0.00167761
0.000849802
0.0108494
7.15187e-05
0.0138254
-0.000221374
0.0149982
0.000265684
0.0146951
0.00145189
0.0122872
0.00288025
0.00804585
0.00418716
0.00264918
0.00544745
-0.00347334
0.00670643
-0.00993394
0.00800386
-0.0160375
0.00921464
-0.0208247
0.0101226
-0.0236256
0.0104196
-0.024434
0.00987104
-0.0239905
0.00879593
-0.0233152
0.0080495
-0.0224895
0.00829369
-0.0204544
0.00945906
-0.0163417
0.0110935
-0.0104592
0.0128983
-0.00383807
0.0146472
0.00271794
0.0162575
0.00863611
0.0176567
0.0134243
0.0187719
0.0168352
0.0195565
0.0188849
0.0199998
0.0198344
0.0201058
0.0201025
0.0198903
0.0201311
0.0194191
0.0201847
0.0188242
0.020172
0.0182655
0.0196737
0.0178592
0.0182047
0.0176501
0.0155136
0.0176233
0.0117
0.0177442
0.00709668
0.0179965
0.00219093
0.0183363
-0.00260441
0.0187266
-0.00677671
0.0191073
-0.010212
0.0194351
-0.012399
0.0196161
-0.0139522
0.0196555
-0.0140422
0.0194494
-0.0144216
-0.0130566
0.0249563
8.60617e-05
0.0248233
0.000285474
0.0245963
0.000517712
0.0242594
0.000803762
0.0237962
0.00114443
0.0231673
0.00158451
0.0223435
0.0021001
0.0212319
0.00282159
0.0197999
0.00359539
0.0178066
0.00487775
0.0153971
0.00573622
0.0115908
0.00869372
0.00892642
0.0055634
0.00660482
0.00466478
0.00459369
0.00418217
0.00305178
0.00346459
0.00200217
0.00268617
0.00138237
0.00203404
0.00114509
0.00153599
0.00156439
0.00125831
0.00268489
0.0097289
0.00343697
0.0130733
0.00449106
0.0139441
0.00600121
0.0131849
0.0077188
0.0105696
0.00929632
0.00646833
0.0105445
0.00140105
0.0116678
-0.00459674
0.0127097
-0.0109758
0.0136419
-0.0169697
0.0142916
-0.0214744
0.0145337
-0.0238677
0.0142917
-0.024192
0.0133502
-0.023049
0.0116169
-0.0215819
0.00968626
-0.0205589
0.00851889
-0.0192871
0.00852467
-0.0163474
0.00944072
-0.0113752
0.0108699
-0.00526728
0.0125039
0.00108398
0.0141842
0.00695579
0.0157818
0.0118267
0.0171867
0.0154303
0.0183148
0.0177569
0.0191128
0.0190364
0.0195564
0.0196588
0.019667
0.0200206
0.0195352
0.0203165
0.0193071
0.0204001
0.0191255
0.0198553
0.0190707
0.0182595
0.0191519
0.0154325
0.0193366
0.0115153
0.0195868
0.00684652
0.0198881
0.0018896
0.0202033
-0.00291958
0.0205142
-0.00708764
0.020773
-0.0104708
0.0209574
-0.0125834
0.0209889
-0.0139838
0.0209004
-0.0139538
0.0205957
-0.0141169
-0.0125689
0.0249619
0.000124167
0.0248466
0.000400739
0.0246514
0.000712957
0.0243635
0.00109163
0.0239729
0.00153507
0.023446
0.0021114
0.0227714
0.00277466
0.0218495
0.00374346
0.0206997
0.0047452
0.0189163
0.00666118
0.0168359
0.00781661
0.012603
0.0129266
0.00918618
0.00898021
0.00652527
0.00732569
0.00438552
0.00632192
0.00279439
0.00505572
0.00175662
0.00372394
0.00117358
0.00261708
0.000968108
0.00174146
0.00161333
0.000613088
0.00440298
0.00693925
0.00682084
0.0106555
0.00906359
0.0117013
0.011358
0.0108905
0.0134813
0.00844627
0.0152029
0.00474677
0.0166334
-2.94814e-05
0.017871
-0.00583429
0.0189612
-0.0120661
0.01967
-0.0176785
0.0197667
-0.0215711
0.0191889
-0.0232899
0.0181144
-0.0231176
0.0166732
-0.0216078
0.0146559
-0.0195646
0.0121204
-0.0180234
0.00986417
-0.0170308
0.00870977
-0.015193
0.00880501
-0.0114704
0.00972084
-0.00618311
0.0111156
-0.000310812
0.0127576
0.00531385
0.0144577
0.0101265
0.0160643
0.0138237
0.0174535
0.0163676
0.0185373
0.0179526
0.0192766
0.0189196
0.0197033
0.0195939
0.0199247
0.020095
0.0200843
0.0202405
0.0202962
0.0196433
0.0206024
0.0179534
0.0209809
0.0150539
0.0213831
0.0111131
0.0217695
0.00646015
0.0221071
0.00155198
0.0223979
-0.00321043
0.0226206
-0.00731028
0.0227419
-0.0105921
0.0227608
-0.0126023
0.0226182
-0.0138412
0.0223723
-0.0137078
0.0219474
-0.013692
-0.01201
0.0249701
0.000154062
0.024878
0.00049288
0.0247272
0.000863715
0.0245016
0.0013172
0.0242134
0.00182327
0.0238101
0.00251476
0.0233529
0.00323181
0.0226625
0.00443392
0.0219954
0.00541225
0.0206616
0.007995
0.0193189
0.00915931
0.0155732
0.0166723
0.00863152
0.0159219
0.00435404
0.0116032
0.00211176
0.0085642
0.00108512
0.00608237
0.000635125
0.00417393
0.000426366
0.00282584
0.000252269
0.00191555
0.000637488
0.000227869
0.00408073
0.00349601
0.0081531
0.00658308
0.0118227
0.0080317
0.0150205
0.00769278
0.0177162
0.00575056
0.0200109
0.00245202
0.0220277
-0.00204625
0.0237986
-0.00760517
0.0250526
-0.0133201
0.0254586
-0.0180845
0.0249061
-0.0210186
0.0235162
-0.0218999
0.021596
-0.0211974
0.0195416
-0.0195534
0.0173685
-0.0173915
0.0147631
-0.015418
0.0119713
-0.014239
0.00989684
-0.0131186
0.00911773
-0.0106913
0.00945582
-0.00652119
0.0105208
-0.00137577
0.0120245
0.00381014
0.0137249
0.0084261
0.0154317
0.0121169
0.0169872
0.0148121
0.0182807
0.0166591
0.0192698
0.0179304
0.0199966
0.0188671
0.0205721
0.0195195
0.0211219
0.0196908
0.0217248
0.0190404
0.0223851
0.0172931
0.0230536
0.0143854
0.0236669
0.0104999
0.024179
0.00594804
0.0245681
0.00116285
0.0248278
-0.00347019
0.0249558
-0.00743822
0.0249287
-0.010565
0.0247648
-0.0124384
0.0244289
-0.0135053
0.0240008
-0.0132797
0.0234336
-0.0131248
-0.0113638
0.0249794
0.00017465
0.0249149
0.000557414
0.0248135
0.000965077
0.0246629
0.00146781
0.0244824
0.00200375
0.0242368
0.00276042
0.0239815
0.00348712
0.0236411
0.00477424
0.0233144
0.00573901
0.0231072
0.00820213
0.0228621
0.00940444
0.0261955
0.0133389
0.0262959
0.0158216
0.0227089
0.0151901
0.0186923
0.0125808
0.0149804
0.00979434
0.0118667
0.00728759
0.00953696
0.0051556
0.00770478
0.00374773
0.00571172
0.00222093
0.00679238
0.00241535
0.00993601
0.00343945
0.0138996
0.00406811
0.0178639
0.00372849
0.021576
0.0020385
0.0248726
-0.000844607
0.0277924
-0.0049661
0.0299293
-0.00974205
0.0309234
-0.0143142
0.0305924
-0.0177535
0.0290975
-0.0195237
0.0268559
-0.0196583
0.0242857
-0.0186272
0.0217663
-0.017034
0.019501
-0.0151261
0.0171568
-0.0130738
0.0144205
-0.0115027
0.0118329
-0.010531
0.0102563
-0.0091148
0.00997046
-0.00623534
0.0106658
-0.00207106
0.0119546
0.00252134
0.0135657
0.00681494
0.0152752
0.0104074
0.0169048
0.0131825
0.0183353
0.0152286
0.0195285
0.0167372
0.0205316
0.017864
0.0214458
0.0186053
0.0223684
0.0187682
0.02334
0.0180689
0.0243305
0.0163026
0.0252674
0.0134485
0.0260747
0.00969251
0.0267074
0.00531542
0.0271437
0.000726548
0.0273754
-0.00370195
0.0274075
-0.00747031
0.0272262
-0.0103836
0.0268683
-0.0120805
0.0263269
-0.0129639
0.0257016
-0.0126543
0.0249754
-0.0123987
-0.0106196
0.0249883
0.000186331
0.0249542
0.000591518
0.0249009
0.00101835
0.0248324
0.00153638
0.0247509
0.00208518
0.0246791
0.00283222
0.0245979
0.00356831
0.0246449
0.00472724
0.0246602
0.00572378
0.0253948
0.00746754
0.0259763
0.00882292
0.0287905
0.0105247
0.0315528
0.0130593
0.0327236
0.0140193
0.0322467
0.0130576
0.0307705
0.0112706
0.028773
0.00928511
0.0266217
0.0073069
0.0247301
0.00563934
0.0228206
0.00413036
0.0220012
0.0032348
0.0226157
0.00282497
0.0244453
0.00223846
0.0271071
0.00106667
0.0300986
-0.000953008
0.0329851
-0.0037311
0.0351879
-0.00716886
0.0362642
-0.0108183
0.0359575
-0.0140075
0.0343387
-0.0161348
0.031792
-0.0169769
0.0288601
-0.0167265
0.0259725
-0.0157396
0.0233301