/*--------------------------------*- C++ -*----------------------------------*\
  =========                 |
  \\      /  F ield         | OpenFOAM: The Open Source CFD Toolbox
   \\    /   O peration     | Website:  https://openfoam.org
    \\  /    A nd           | Version:  10
     \\/     M anipulation  |
\*---------------------------------------------------------------------------*/
FoamFile
{
    format      ascii;
    class       volVectorField;
    location    "0.15";
    object      Ub;
}
// * * * * * * * * * * * * * * * * * * * * * * * * * * * * * * * * * * * * * //

dimensions      [0 1 -1 0 0 0 0];

internalField   nonuniform List<vector> 
12225
(
(0.00180604 -0.0011876 0)
(0.00312494 -0.00302912 0)
(0.0013189 -0.000232655 0)
(2.2874e-11 -1.97648e-16 0)
(3.80445e-31 1.24275e-32 0)
(2.96613e-31 7.42768e-33 0)
(2.46623e-31 4.79399e-33 0)
(2.14718e-31 3.22607e-33 0)
(1.93626e-31 2.19711e-33 0)
(1.79606e-31 1.45738e-33 0)
(1.70594e-31 8.81403e-34 0)
(1.654e-31 3.90257e-34 0)
(1.63412e-31 -8.32386e-35 0)
(1.64516e-31 -6.21309e-34 0)
(1.6925e-31 -1.37056e-33 0)
(1.79479e-31 -2.70046e-33 0)
(2.01253e-31 -5.93902e-33 0)
(2.61135e-31 -1.82685e-32 0)
(0.00423262 -0.00336814 0)
(0.0116844 -0.00700625 0)
(0.00767442 -0.00814011 0)
(0.000222599 -4.21089e-10 0)
(7.61645e-17 3.55358e-32 0)
(2.94672e-31 2.30013e-32 0)
(2.45509e-31 1.49889e-32 0)
(2.14e-31 1.02059e-32 0)
(1.93116e-31 7.06203e-33 0)
(1.79211e-31 4.79879e-33 0)
(1.70259e-31 3.03593e-33 0)
(1.65085e-31 1.53389e-33 0)
(1.63067e-31 8.94097e-35 0)
(1.64058e-31 -1.54276e-33 0)
(1.68478e-31 -3.78727e-33 0)
(1.77706e-31 -7.65388e-33 0)
(1.94942e-31 -1.63459e-32 0)
(2.22439e-31 -4.34263e-32 0)
(0.00423456 -0.00538613 0)
(0.0113523 -0.00874089 0)
(0.0108056 -0.0156295 0)
(0.00368802 -0.000668872 0)
(1.77781e-07 -2.46786e-15 0)
(9.35285e-29 3.92541e-32 0)
(2.43067e-31 2.56757e-32 0)
(2.12421e-31 1.75571e-32 0)
(1.91992e-31 1.22028e-32 0)
(1.78338e-31 8.33683e-33 0)
(1.69522e-31 5.32334e-33 0)
(1.64391e-31 2.75989e-33 0)
(1.62313e-31 3.07407e-34 0)
(1.63071e-31 -2.43165e-33 0)
(1.66874e-31 -6.10742e-33 0)
(1.74388e-31 -1.21149e-32 0)
(1.86184e-31 -2.40847e-32 0)
(1.9705e-31 -5.22674e-32 0)
(0.00403792 -0.00744989 0)
(0.0106418 -0.0102529 0)
(0.012032 -0.0153267 0)
(0.00579735 -0.0074712 0)
(0.000369169 -7.4555e-10 0)
(5.90625e-15 5.24773e-32 0)
(2.39076e-31 3.6668e-32 0)
(2.09836e-31 2.51876e-32 0)
(1.90144e-31 1.75718e-32 0)
(1.769e-31 1.20451e-32 0)
(1.68306e-31 7.73201e-33 0)
(1.63253e-31 4.07261e-33 0)
(1.61089e-31 5.99727e-34 0)
(1.61509e-31 -3.21126e-33 0)
(1.64466e-31 -8.15033e-33 0)
(1.69948e-31 -1.56982e-32 0)
(1.76938e-31 -2.89219e-32 0)
(1.79381e-31 -5.3469e-32 0)
(0.00382609 -0.00954109 0)
(0.00999182 -0.0116778 0)
(0.0117311 -0.015147 0)
(0.00916434 -0.0135895 0)
(0.00359919 -9.93498e-05 0)
(2.20532e-07 -1.32128e-18 0)
(1.75364e-27 4.76608e-32 0)
(2.06108e-31 3.29692e-32 0)
(1.87461e-31 2.31006e-32 0)
(1.74802e-31 1.58834e-32 0)
(1.66535e-31 1.02418e-32 0)
(1.61605e-31 5.47286e-33 0)
(1.59345e-31 9.96084e-34 0)
(1.59354e-31 -3.80497e-33 0)
(1.61346e-31 -9.76644e-33 0)
(1.64815e-31 -1.82211e-32 0)
(1.68103e-31 -3.13004e-32 0)
(1.66392e-31 -5.12934e-32 0)
(0.00365447 -0.0116697 0)
(0.00951978 -0.0130803 0)
(0.0116665 -0.0151448 0)
(0.0116589 -0.0137951 0)
(0.0059519 -0.00606386 0)
(9.41985e-05 -3.32766e-11 0)
(3.16919e-17 5.69465e-32 0)
(2.01143e-31 4.07449e-32 0)
(1.83839e-31 2.86997e-32 0)
(1.71953e-31 1.97949e-32 0)
(1.64131e-31 1.28213e-32 0)
(1.59387e-31 6.95445e-33 0)
(1.57044e-31 1.52102e-33 0)
(1.56618e-31 -4.14919e-33 0)
(1.5764e-31 -1.08602e-32 0)
(1.59339e-31 -1.96738e-32 0)
(1.60014e-31 -3.18342e-32 0)
(1.56375e-31 -4.77546e-32 0)
(0.00355342 -0.0138666 0)
(0.00926668 -0.0145148 0)
(0.0117251 -0.0153696 0)
(0.0118783 -0.0140871 0)
(0.00890167 -0.0118758 0)
(0.00303535 -1.49302e-06 0)
(1.30989e-07 2.55874e-29 0)
(1.22976e-28 4.8288e-32 0)
(1.79181e-31 3.42595e-32 0)
(1.68261e-31 2.37031e-32 0)
(1.61021e-31 1.54237e-32 0)
(1.56546e-31 8.49957e-33 0)
(1.54163e-31 2.18677e-33 0)
(1.53332e-31 -4.20488e-33 0)
(1.53482e-31 -1.13985e-32 0)
(1.53762e-31 -2.0163e-32 0)
(1.52729e-31 -3.10882e-32 0)
(1.48324e-31 -4.37683e-32 0)
(0.00354744 -0.0161849 0)
(0.00926648 -0.0160302 0)
(0.0119909 -0.0157891 0)
(0.0124812 -0.0142261 0)
(0.0120628 -0.0119711 0)
(0.00586102 -0.0031795 0)
(7.61107e-06 2.51341e-24 0)
(4.17629e-21 5.55603e-32 0)
(1.73429e-31 3.96652e-32 0)
(1.63641e-31 2.75081e-32 0)
(1.57138e-31 1.79826e-32 0)
(1.53041e-31 1.00732e-32 0)
(1.50696e-31 2.98587e-33 0)
(1.49544e-31 -3.9657e-33 0)
(1.48989e-31 -1.14065e-32 0)
(1.48234e-31 -1.98574e-32 0)
(1.4618e-31 -2.95103e-32 0)
(1.41618e-31 -3.97365e-32 0)
(0.00366374 -0.0187053 0)
(0.00956321 -0.0176744 0)
(0.0125195 -0.0163728 0)
(0.0132174 -0.0143614 0)
(0.0127397 -0.0120916 0)
(0.00785124 -0.00773092 0)
(0.00170893 -3.03761e-08 0)
(1.82742e-09 4.25903e-32 0)
(1.69217e-31 4.47803e-32 0)
(1.5801e-31 3.10766e-32 0)
(1.52431e-31 2.04064e-32 0)
(1.48846e-31 1.16172e-32 0)
(1.46651e-31 3.88462e-33 0)
(1.45309e-31 -3.46178e-33 0)
(1.44258e-31 -1.09572e-32 0)
(1.42831e-31 -1.89474e-32 0)
(1.40253e-31 -2.74311e-32 0)
(1.35854e-31 -3.58309e-32 0)
(0.00394058 -0.0215485 0)
(0.010226 -0.0194967 0)
(0.0133832 -0.0170858 0)
(0.0141736 -0.0144884 0)
(0.0136529 -0.0119592 0)
(0.0115245 -0.0088839 0)
(0.00494848 -3.56768e-05 0)
(1.12329e-06 1.87144e-24 0)
(5.44376e-24 4.89466e-32 0)
(1.51296e-31 3.42226e-32 0)
(1.46868e-31 2.25733e-32 0)
(1.43955e-31 1.30442e-32 0)
(1.42055e-31 4.81823e-33 0)
(1.40685e-31 -2.75951e-33 0)
(1.39365e-31 -1.01581e-32 0)
(1.37582e-31 -1.76216e-32 0)
(1.34829e-31 -2.50886e-32 0)
(1.3076e-31 -3.21264e-32 0)
(0.00443989 -0.0248978 0)
(0.011369 -0.0215477 0)
(0.0146799 -0.0178811 0)
(0.0154275 -0.0145793 0)
(0.0149288 -0.0117506 0)
(0.0145458 -0.00894902 0)
(0.0073418 -0.00337559 0)
(4.81147e-05 8.57751e-19 0)
(2.81168e-17 5.18643e-32 0)
(1.43705e-31 3.68231e-32 0)
(1.40458e-31 2.43338e-32 0)
(1.38387e-31 1.42322e-32 0)
(1.36952e-31 5.68814e-33 0)
(1.35736e-31 -1.95799e-33 0)
(1.34367e-31 -9.13903e-33 0)
(1.32491e-31 -1.60545e-32 0)
(1.29804e-31 -2.26553e-32 0)
(1.26153e-31 -2.86608e-32 0)
(0.00521593 -0.0286531 0)
(0.0130694 -0.0236713 0)
(0.0164308 -0.0186209 0)
(0.0169322 -0.0145729 0)
(0.0161348 -0.0114746 0)
(0.0148598 -0.00907358 0)
(0.00932786 -0.0066844 0)
(0.00224789 -2.26234e-08 0)
(3.6544e-08 9.18611e-32 0)
(3.73603e-31 3.87424e-32 0)
(1.33787e-31 2.54494e-32 0)
(1.32703e-31 1.49927e-32 0)
(1.31871e-31 6.3305e-33 0)
(1.30965e-31 -1.23555e-33 0)
(1.29735e-31 -8.1264e-33 0)
(1.27963e-31 -1.45315e-32 0)
(1.25487e-31 -2.0439e-32 0)
(1.2226e-31 -2.56866e-32 0)
(0.00635923 -0.0334312 0)
(0.015455 -0.0260103 0)
(0.0186779 -0.0192337 0)
(0.0186879 -0.0143583 0)
(0.0174143 -0.0109701 0)
(0.0156145 -0.00851253 0)
(0.0121707 -0.00606444 0)
(0.00486606 -6.9697e-06 0)
(1.16209e-06 2.31303e-24 0)
(6.04275e-24 3.95149e-32 0)
(1.26466e-31 2.57135e-32 0)
(1.26653e-31 1.52044e-32 0)
(1.26575e-31 6.65789e-33 0)
(1.26105e-31 -6.64775e-34 0)
(1.25143e-31 -7.1784e-33 0)
(1.23597e-31 -1.30747e-32 0)
(1.21417e-31 -1.83809e-32 0)
(1.18624e-31 -2.30197e-32 0)
(0.00850427 -0.0409125 0)
(0.0196578 -0.0288531 0)
(0.0222297 -0.019531 0)
(0.0212061 -0.0136751 0)
(0.0191574 -0.0100295 0)
(0.0170126 -0.00757398 0)
(0.0149818 -0.00525662 0)
(0.00701334 -0.000488491 0)
(1.66858e-05 1.44968e-19 0)
(1.53007e-18 3.78176e-32 0)
(1.17511e-31 2.46211e-32 0)
(1.1942e-31 1.4602e-32 0)
(1.20354e-31 6.52094e-33 0)
(1.20511e-31 -3.13038e-34 0)
(1.19978e-31 -6.28344e-33 0)
(1.188e-31 -1.15771e-32 0)
(1.17024e-31 -1.6252e-32 0)
(1.14728e-31 -2.02929e-32 0)
(0.012992 -0.0541283 0)
(0.0276738 -0.0316053 0)
(0.0279718 -0.0186186 0)
(0.0247788 -0.0119117 0)
(0.0213868 -0.00829468 0)
(0.0185375 -0.00617845 0)
(0.0164219 -0.00475474 0)
(0.00835109 -0.00211441 0)
(0.000568811 4.02655e-14 0)
(1.7351e-11 3.1252e-32 0)
(1.07642e-31 2.13185e-32 0)
(1.11325e-31 1.26142e-32 0)
(1.13415e-31 5.53138e-33 0)
(1.1434e-31 -4.5858e-34 0)
(1.14368e-31 -5.65695e-33 0)
(1.13673e-31 -1.02181e-32 0)
(1.12386e-31 -1.4206e-32 0)
(1.10627e-31 -1.76374e-32 0)
(0.0240694 -0.0820435 0)
(0.044908 -0.0301864 0)
(0.0372309 -0.0139039 0)
(0.0295186 -0.00778923 0)
(0.0239148 -0.00508065 0)
(0.0197903 -0.0037401 0)
(0.0163525 -0.00310858 0)
(0.0104421 -0.00226515 0)
(0.00309158 1.45894e-10 0)
(1.79223e-07 7.23131e-29 0)
(4.35141e-28 1.50932e-32 0)
(1.0321e-31 8.68112e-33 0)
(1.06356e-31 3.27817e-33 0)
(1.08026e-31 -1.41563e-33 0)
(1.08633e-31 -5.55458e-33 0)
(1.08451e-31 -9.21459e-33 0)
(1.07672e-31 -1.24287e-32 0)
(1.06444e-31 -1.52102e-32 0)
(0.0588971 -0.000981803 0)
(0.0892611 0.00140114 0)
(0.0501225 0.00103911 0)
(0.0343665 0.000656967 0)
(0.026141 0.000407351 0)
(0.0209039 0.000238868 0)
(0.0169223 0.000118707 0)
(0.0122757 8.74409e-05 0)
(0.0047254 9.26177e-09 0)
(1.03871e-06 7.3132e-26 0)
(3.21657e-24 5.46305e-33 0)
(9.66901e-32 2.63489e-33 0)
(1.00347e-31 -3.5815e-34 0)
(1.02404e-31 -3.31204e-33 0)
(1.03375e-31 -6.1179e-33 0)
(1.03572e-31 -8.71356e-33 0)
(1.03204e-31 -1.10617e-32 0)
(1.02422e-31 -1.31411e-32 0)
(0.0195775 0.0760251 0)
(0.0379872 0.0317033 0)
(0.033545 0.0163034 0)
(0.0275428 0.00976545 0)
(0.0227405 0.00653556 0)
(0.0190272 0.00476219 0)
(0.0159117 0.00367665 0)
(0.00947633 0.00188542 0)
(0.00225892 9.20791e-09 0)
(5.73431e-08 7.30597e-26 0)
(1.71528e-30 -3.90146e-33 0)
(9.47576e-32 -3.61343e-33 0)
(9.71661e-32 -4.34922e-33 0)
(9.8662e-32 -5.59197e-33 0)
(9.94383e-32 -7.05554e-33 0)
(9.96583e-32 -8.57387e-33 0)
(9.94531e-32 -1.0048e-32 0)
(9.89273e-32 -1.14192e-32 0)
(0.0070812 0.0422216 0)
(0.0165265 0.0293163 0)
(0.0190578 0.0199672 0)
(0.0186235 0.0140604 0)
(0.0171961 0.0103781 0)
(0.015446 0.00799359 0)
(0.0126718 0.00580254 0)
(0.00541341 0.00116618 0)
(2.50235e-06 9.1997e-11 0)
(2.03612e-22 -1.09228e-32 0)
(9.53982e-32 -8.39975e-33 0)
(9.61443e-32 -7.14875e-33 0)
(9.67602e-32 -6.79977e-33 0)
(9.71424e-32 -7.00634e-33 0)
(9.72667e-32 -7.53653e-33 0)
(9.71477e-32 -8.23713e-33 0)
(9.68167e-32 -9.00771e-33 0)
(9.63107e-32 -9.78331e-33 0)
(0.00362768 0.0278091 0)
(0.00927849 0.0231922 0)
(0.0121071 0.0184184 0)
(0.0131021 0.0143753 0)
(0.0130849 0.0113591 0)
(0.0117977 0.0087176 0)
(0.00536535 0.00313878 0)
(6.78465e-06 4.82039e-07 0)
(1.87449e-20 2.9356e-23 0)
(1.00307e-31 -1.00232e-32 0)
(9.87729e-32 -8.39455e-33 0)
(9.79366e-32 -7.45817e-33 0)
(9.74151e-32 -7.03138e-33 0)
(9.70014e-32 -6.96094e-33 0)
(9.65886e-32 -7.12695e-33 0)
(9.61259e-32 -7.43959e-33 0)
(9.55949e-32 -7.83353e-33 0)
(9.49943e-32 -8.26256e-33 0)
(0.00232285 0.0214976 0)
(0.00623212 0.0190856 0)
(0.00852912 0.0163639 0)
(0.00968214 0.0130564 0)
(0.00957108 0.00988991 0)
(0.00451403 0.00417368 0)
(5.23739e-06 3.70981e-06 0)
(2.9681e-20 7.8716e-21 0)
(1.04836e-31 -7.35098e-33 0)
(1.01842e-31 -6.92979e-33 0)
(9.99143e-32 -6.48867e-33 0)
(9.86239e-32 -6.18407e-33 0)
(9.76912e-32 -6.04839e-33 0)
(9.69435e-32 -6.06391e-33 0)
(9.62781e-32 -6.19647e-33 0)
(9.56369e-32 -6.41033e-33 0)
(9.49898e-32 -6.67406e-33 0)
(9.43236e-32 -6.96243e-33 0)
(0.0016249 0.0176123 0)
(0.00463667 0.0158871 0)
(0.00607601 0.0147712 0)
(0.00572101 0.00908315 0)
(0.00265746 0.00427947 0)
(7.03641e-07 5.00578e-06 0)
(5.41459e-21 1.62624e-20 0)
(1.07092e-31 -1.85222e-33 0)
(1.0391e-31 -3.50151e-33 0)
(1.01582e-31 -4.2387e-33 0)
(9.98865e-32 -4.5609e-33 0)
(9.86171e-32 -4.72366e-33 0)
(9.7616e-32 -4.84852e-33 0)
(9.67729e-32 -4.98618e-33 0)
(9.60157e-32 -5.15169e-33 0)
(9.52997e-32 -5.34355e-33 0)
(9.45991e-32 -5.55369e-33 0)
(9.39002e-32 -5.77243e-33 0)
(0.00100049 0.0145467 0)
(0.00339119 0.0116833 0)
(0.00256351 0.00728578 0)
(0.000172824 0.00298831 0)
(9.30417e-09 1.85309e-06 0)
(4.00296e-23 3.2012e-21 0)
(1.06129e-31 4.89402e-33 0)
(1.04114e-31 1.04176e-33 0)
(1.02246e-31 -1.15396e-33 0)
(1.00666e-31 -2.38121e-33 0)
(9.93655e-32 -3.07368e-33 0)
(9.82848e-32 -3.48694e-33 0)
(9.73588e-32 -3.76384e-33 0)
(9.65329e-32 -3.97984e-33 0)
(9.57673e-32 -4.1719e-33 0)
(9.50349e-32 -4.35586e-33 0)
(9.43191e-32 -4.53661e-33 0)
(9.36105e-32 -4.71385e-33 0)
(1.20747e-05 0.00655229 0)
(1.22002e-05 0.00448195 0)
(1.25527e-07 0.000220452 0)
(9.65147e-15 1.93585e-07 0)
(9.55864e-28 1.87138e-23 0)
(1.0156e-31 1.15891e-32 0)
(1.01964e-31 5.88934e-33 0)
(1.01463e-31 2.28934e-33 0)
(1.00605e-31 8.59573e-35 0)
(9.96581e-32 -1.24149e-33 0)
(9.87353e-32 -2.04443e-33 0)
(9.78687e-32 -2.5454e-33 0)
(9.70571e-32 -2.87861e-33 0)
(9.6288e-32 -3.1216e-33 0)
(9.55476e-32 -3.31717e-33 0)
(9.48249e-32 -3.48758e-33 0)
(9.41125e-32 -3.64349e-33 0)
(9.34059e-32 -3.78922e-33 0)
(2.03763e-18 2.84642e-05 0)
(2.03766e-18 1.44115e-06 0)
(3.11793e-23 2.03316e-13 0)
(8.53593e-32 3.23271e-28 0)
(9.30086e-32 1.72722e-32 0)
(9.70349e-32 1.03457e-32 0)
(9.88448e-32 5.64233e-33 0)
(9.93881e-32 2.56914e-33 0)
(9.92565e-32 6.17004e-34 0)
(9.87902e-32 -6.03957e-34 0)
(9.81709e-32 -1.36773e-33 0)
(9.74888e-32 -1.85527e-33 0)
(9.67852e-32 -2.18056e-33 0)
(9.6077e-32 -2.41264e-33 0)
(9.53698e-32 -2.59176e-33 0)
(9.46648e-32 -2.74045e-33 0)
(9.39621e-32 -2.87073e-33 0)
(9.32619e-32 -2.98855e-33 0)
(1.48157e-32 8.04873e-17 0)
(4.20751e-32 3.67197e-23 0)
(6.42872e-32 3.07551e-32 0)
(7.9742e-32 2.11066e-32 0)
(8.87587e-32 1.37648e-32 0)
(9.39195e-32 8.45218e-33 0)
(9.66483e-32 4.77604e-33 0)
(9.78892e-32 2.32449e-33 0)
(9.82565e-32 7.33384e-34 0)
(9.81297e-32 -2.8312e-34 0)
(9.77321e-32 -9.31124e-34 0)
(9.71899e-32 -1.35034e-33 0)
(9.65719e-32 -1.63112e-33 0)
(9.59146e-32 -1.82972e-33 0)
(9.5237e-32 -1.97995e-33 0)
(9.45491e-32 -2.10143e-33 0)
(9.38566e-32 -2.20516e-33 0)
(9.31631e-32 -2.29698e-33 0)
(1.39791e-32 2.99687e-32 0)
(3.98721e-32 2.68076e-32 0)
(6.10733e-32 2.18002e-32 0)
(7.6353e-32 1.54104e-32 0)
(8.60389e-32 1.02028e-32 0)
(9.1884e-32 6.35279e-33 0)
(9.51905e-32 3.65217e-33 0)
(9.68789e-32 1.82804e-33 0)
(9.75718e-32 6.28812e-34 0)
(9.76706e-32 -1.46958e-34 0)
(9.74234e-32 -6.47007e-34 0)
(9.6978e-32 -9.7312e-34 0)
(9.64207e-32 -1.19219e-33 0)
(9.58005e-32 -1.34656e-33 0)
(9.51452e-32 -1.46212e-33 0)
(9.44706e-32 -1.55422e-33 0)
(9.37863e-32 -1.63167e-33 0)
(9.30983e-32 -1.69932e-33 0)
(1.34933e-32 1.96155e-32 0)
(3.85726e-32 1.75853e-32 0)
(5.92053e-32 1.43061e-32 0)
(7.43804e-32 1.02586e-32 0)
(8.44057e-32 6.84591e-33 0)
(9.06436e-32 4.28538e-33 0)
(9.4293e-32 2.47318e-33 0)
(9.62509e-32 1.23964e-33 0)
(9.71423e-32 4.22562e-34 0)
(9.73802e-32 -1.0982e-34 0)
(9.72266e-32 -4.55184e-34 0)
(9.68424e-32 -6.81479e-34 0)
(9.63239e-32 -8.33795e-34 0)
(9.57277e-32 -9.40933e-34 0)
(9.50871e-32 -1.0207e-33 0)
(9.44215e-32 -1.08377e-33 0)
(9.37428e-32 -1.13634e-33 0)
(9.30585e-32 -1.18189e-33 0)
(1.32374e-32 1.08508e-32 0)
(3.7883e-32 9.73303e-33 0)
(5.82212e-32 7.91229e-33 0)
(7.33399e-32 5.69899e-33 0)
(8.35302e-32 3.80211e-33 0)
(8.99727e-32 2.36687e-33 0)
(9.38047e-32 1.34594e-33 0)
(9.59074e-32 6.48065e-34 0)
(9.69061e-32 1.83949e-34 0)
(9.72197e-32 -1.19615e-34 0)
(9.71175e-32 -3.17207e-34 0)
(9.6767e-32 -4.47002e-34 0)
(9.627e-32 -5.34462e-34 0)
(9.56873e-32 -5.95931e-34 0)
(9.5055e-32 -6.4157e-34 0)
(9.43946e-32 -6.77506e-34 0)
(9.37191e-32 -7.07324e-34 0)
(9.30368e-32 -7.33057e-34 0)
(1.31349e-32 3.32587e-33 0)
(3.76059e-32 2.97356e-33 0)
(5.78269e-32 2.39782e-33 0)
(7.29227e-32 1.70208e-33 0)
(8.31766e-32 1.10192e-33 0)
(8.97006e-32 6.46166e-34 0)
(9.3606e-32 3.21264e-34 0)
(9.57673e-32 9.87756e-35 0)
(9.68096e-32 -4.94395e-35 0)
(9.7154e-32 -1.46538e-34 0)
(9.70727e-32 -2.09829e-34 0)
(9.6736e-32 -2.51448e-34 0)
(9.62478e-32 -2.79505e-34 0)
(9.56707e-32 -2.99219e-34 0)
(9.50419e-32 -3.13839e-34 0)
(9.43835e-32 -3.25332e-34 0)
(9.37094e-32 -3.34849e-34 0)
(9.3028e-32 -3.43049e-34 0)
(6.14814e-34 -1.47578e-33 -1.90668e-59)
(1.84929e-33 -1.47361e-33 1.90242e-59)
(3.09107e-33 -1.46982e-33 0)
(4.33863e-33 -1.46438e-33 0)
(5.5904e-33 -1.45729e-33 0)
(6.84478e-33 -1.44855e-33 -1.86413e-59)
(8.10011e-33 -1.43819e-33 0)
(9.35475e-33 -1.42623e-33 0)
(1.0607e-32 -1.4127e-33 0)
(1.18553e-32 -1.39765e-33 0)
(1.30978e-32 -1.38115e-33 1.76963e-59)
(1.43331e-32 -1.36325e-33 0)
(1.55594e-32 -1.34403e-33 0)
(1.67753e-32 -1.32358e-33 0)
(1.79792e-32 -1.30198e-33 0)
(1.91697e-32 -1.27932e-33 1.63086e-59)
(2.03455e-32 -1.25571e-33 0)
(2.15052e-32 -1.23124e-33 0)
(2.26476e-32 -1.20602e-33 0)
(2.37717e-32 -1.18015e-33 0)
(2.48763e-32 -1.15374e-33 0)
(2.59606e-32 -1.12688e-33 0)
(2.70236e-32 -1.09968e-33 0)
(2.80647e-32 -1.07223e-33 1.3527e-59)
(2.90832e-32 -1.04463e-33 -1.31583e-59)
(3.00785e-32 -1.01698e-33 1.2789e-59)
(3.10501e-32 -9.8934e-34 1.24204e-59)
(3.19977e-32 -9.61808e-34 0)
(3.29209e-32 -9.34453e-34 0)
(3.38196e-32 -9.07344e-34 -1.13279e-59)
(3.46936e-32 -8.80544e-34 -1.09712e-59)
(3.55429e-32 -8.54109e-34 0)
(3.63674e-32 -8.28092e-34 0)
(3.71672e-32 -8.02538e-34 -9.93381e-60)
(3.79424e-32 -7.77486e-34 0)
(3.86933e-32 -7.52971e-34 0)
(3.94201e-32 -7.29023e-34 8.95706e-60)
(4.0123e-32 -7.05667e-34 0)
(4.08024e-32 -6.82922e-34 8.34489e-60)
(4.14586e-32 -6.60804e-34 1.61026e-59)
(4.20921e-32 -6.39326e-34 0)
(4.27032e-32 -6.18495e-34 0)
(4.32923e-32 -5.98317e-34 0)
(4.38601e-32 -5.78793e-34 0)
(4.44068e-32 -5.59924e-34 0)
(4.4933e-32 -5.41705e-34 1.29419e-59)
(4.54393e-32 -5.24131e-34 1.24757e-59)
(4.59261e-32 -5.07196e-34 1.20264e-59)
(4.63939e-32 -4.90889e-34 0)
(4.68433e-32 -4.75201e-34 -1.11777e-59)
(4.72748e-32 -4.60121e-34 0)
(4.76889e-32 -4.45635e-34 1.03935e-59)
(4.80862e-32 -4.3173e-34 1.00247e-59)
(4.84671e-32 -4.18392e-34 0)
(4.88322e-32 -4.05606e-34 0)
(4.91819e-32 -3.93357e-34 0)
(4.95168e-32 -3.81629e-34 8.69583e-60)
(4.98374e-32 -3.70407e-34 0)
(5.01442e-32 -3.59675e-34 0)
(5.04376e-32 -3.49416e-34 0)
(5.07181e-32 -3.39616e-34 0)
(5.09861e-32 -3.30259e-34 0)
(5.12422e-32 -3.21328e-34 0)
(5.14867e-32 -3.12808e-34 0)
(5.17201e-32 -3.04685e-34 0)
(5.19428e-32 -2.96943e-34 -6.44947e-60)
(5.21552e-32 -2.89569e-34 0)
(5.23577e-32 -2.82546e-34 0)
(5.25506e-32 -2.75863e-34 5.89021e-60)
(5.27345e-32 -2.69504e-34 5.72149e-60)
(5.29095e-32 -2.63458e-34 0)
(5.30761e-32 -2.5771e-34 -5.40857e-60)
(5.32346e-32 -2.52249e-34 5.26366e-60)
(5.33853e-32 -2.47063e-34 0)
(5.35286e-32 -2.42139e-34 -4.99538e-60)
(5.36648e-32 -2.37467e-34 0)
(5.37941e-32 -2.33036e-34 0)
(5.39169e-32 -2.28834e-34 4.64228e-60)
(5.40335e-32 -2.24852e-34 0)
(5.4144e-32 -2.21079e-34 -4.43647e-60)
(5.42488e-32 -2.17507e-34 0)
(5.43482e-32 -2.14126e-34 4.2519e-60)
(5.44423e-32 -2.10928e-34 4.16701e-60)
(5.45315e-32 -2.07903e-34 4.08671e-60)
(5.46158e-32 -2.05044e-34 8.02164e-60)
(5.46956e-32 -2.02342e-34 -7.87818e-60)
(5.47711e-32 -1.99791e-34 0)
(5.48425e-32 -1.97383e-34 0)
(5.49099e-32 -1.9511e-34 0)
(5.49735e-32 -1.92967e-34 -7.38041e-60)
(5.50336e-32 -1.90947e-34 -7.27312e-60)
(5.50903e-32 -1.89044e-34 7.17205e-60)
(5.51437e-32 -1.87251e-34 0)
(5.51941e-32 -1.85564e-34 -6.98725e-60)
(5.52415e-32 -1.83976e-34 -6.90291e-60)
(5.52862e-32 -1.82483e-34 -6.82363e-60)
(5.53283e-32 -1.8108e-34 0)
(5.53678e-32 -1.79762e-34 0)
(5.5405e-32 -1.78525e-34 0)
(5.54399e-32 -1.77363e-34 -6.55165e-60)
(5.54727e-32 -1.76274e-34 0)
(5.55035e-32 -1.75252e-34 0)
(5.55324e-32 -1.74295e-34 6.38871e-60)
(5.55595e-32 -1.73399e-34 0)
(5.55848e-32 -1.7256e-34 0)
(5.56086e-32 -1.71776e-34 6.25483e-60)
(5.56309e-32 -1.71042e-34 0)
(5.56517e-32 -1.70357e-34 0)
(5.56711e-32 -1.69716e-34 -6.14542e-60)
(5.56893e-32 -1.69119e-34 -6.11367e-60)
(5.57063e-32 -1.68562e-34 0)
(5.57222e-32 -1.68042e-34 6.05643e-60)
(5.5737e-32 -1.67558e-34 0)
(5.57507e-32 -1.67107e-34 -6.00676e-60)
(5.57636e-32 -1.66687e-34 0)
(5.57756e-32 -1.66297e-34 -5.96371e-60)
(5.57867e-32 -1.65935e-34 -5.94446e-60)
(5.5797e-32 -1.65598e-34 0)
(5.58067e-32 -1.65285e-34 0)
(5.58156e-32 -1.64995e-34 0)
(5.58239e-32 -1.64726e-34 0)
(5.58316e-32 -1.64476e-34 0)
(5.58387e-32 -1.64246e-34 0)
(5.58453e-32 -1.64032e-34 0)
(5.58515e-32 -1.63834e-34 -5.83279e-60)
(5.58571e-32 -1.63652e-34 5.82311e-60)
(5.58624e-32 -1.63483e-34 0)
(5.58672e-32 -1.63327e-34 0)
(5.58717e-32 -1.63183e-34 0)
(5.58758e-32 -1.63051e-34 0)
(5.58796e-32 -1.62929e-34 1.15693e-59)
(5.58831e-32 -1.62816e-34 0)
(5.58863e-32 -1.62712e-34 -1.15463e-59)
(5.58893e-32 -1.62617e-34 1.15362e-59)
(5.5892e-32 -1.62529e-34 0)
(5.58945e-32 -1.62448e-34 0)
(5.58968e-32 -1.62374e-34 0)
(5.58989e-32 -1.62305e-34 -1.1503e-59)
(5.59008e-32 -1.62242e-34 -1.14963e-59)
(5.59025e-32 -1.62184e-34 0)
(5.59041e-32 -1.62129e-34 -1.14844e-59)
(5.59055e-32 -1.62079e-34 -1.1479e-59)
(5.59068e-32 -1.62032e-34 1.1474e-59)
(5.5908e-32 -1.61988e-34 0)
(5.5909e-32 -1.61946e-34 0)
(5.59099e-32 -1.61906e-34 1.14607e-59)
(5.59107e-32 -1.61867e-34 0)
(5.59114e-32 -1.61829e-34 0)
(5.5912e-32 -1.6179e-34 0)
(5.59124e-32 -1.6175e-34 0)
(5.59127e-32 -1.61708e-34 -1.144e-59)
(5.59128e-32 -1.61662e-34 -1.14352e-59)
(5.59128e-32 -1.61612e-34 0)
(5.59126e-32 -1.61555e-34 -1.14241e-59)
(5.59122e-32 -1.61488e-34 0)
(5.59115e-32 -1.6141e-34 0)
(5.59105e-32 -1.61317e-34 -1.13998e-59)
(5.59091e-32 -1.61204e-34 0)
(5.59072e-32 -1.61065e-34 -1.1374e-59)
(5.59048e-32 -1.60893e-34 0)
(5.59016e-32 -1.60679e-34 0)
(5.58974e-32 -1.60411e-34 -1.13073e-59)
(5.58921e-32 -1.60073e-34 0)
(5.58853e-32 -1.59646e-34 -1.12293e-59)
(5.58765e-32 -1.59102e-34 0)
(5.58652e-32 -1.58406e-34 0)
(5.58507e-32 -1.57511e-34 0)
(5.5832e-32 -1.56354e-34 1.0894e-59)
(5.58077e-32 -1.54848e-34 0)
(5.57761e-32 -1.52869e-34 -1.0539e-59)
(5.57348e-32 -1.50244e-34 0)
(5.56804e-32 -1.46716e-34 0)
(5.5608e-32 -1.41891e-34 0)
(5.55105e-32 -1.3514e-34 0)
(5.53769e-32 -1.25389e-34 0)
(5.51894e-32 -1.10643e-34 0)
(5.49161e-32 -8.67363e-35 0)
(5.44926e-32 -4.33362e-35 -1.33055e-60)
(5.37562e-32 5.26856e-35 0)
(5.2124e-32 3.5377e-34 0)
(6.18215e-34 -4.11133e-33 5.31156e-59)
(1.85949e-33 -4.10477e-33 -5.29869e-59)
(3.10806e-33 -4.09328e-33 0)
(4.36233e-33 -4.07682e-33 1.05177e-58)
(5.62072e-33 -4.05536e-33 0)
(6.88155e-33 -4.02894e-33 -5.19915e-59)
(8.14316e-33 -3.99759e-33 -1.02951e-58)
(9.40383e-33 -3.9614e-33 -1.01956e-58)
(1.06619e-32 -3.92048e-33 0)
(1.19156e-32 -3.87499e-33 -9.96034e-59)
(1.31633e-32 -3.8251e-33 4.92828e-59)
(1.44033e-32 -3.77101e-33 0)
(1.5634e-32 -3.71294e-33 0)
(1.68539e-32 -3.65116e-33 0)
(1.80614e-32 -3.58593e-33 0)
(1.92551e-32 -3.51754e-33 4.52358e-59)
(2.04335e-32 -3.44628e-33 0)
(2.15955e-32 -3.37246e-33 8.61563e-59)
(2.27399e-32 -3.2964e-33 0)
(2.38654e-32 -3.2184e-33 0)
(2.49711e-32 -3.13879e-33 -7.99566e-59)
(2.6056e-32 -3.05787e-33 0)
(2.71194e-32 -2.97594e-33 7.56456e-59)
(2.81604e-32 -2.8933e-33 3.70626e-59)
(2.91785e-32 -2.81024e-33 -3.5977e-59)
(3.01731e-32 -2.72701e-33 3.48896e-59)
(3.11438e-32 -2.64388e-33 3.38037e-59)
(3.20901e-32 -2.56108e-33 0)
(3.30119e-32 -2.47884e-33 0)
(3.3909e-32 -2.39736e-33 -3.05849e-59)
(3.47811e-32 -2.31683e-33 -8.778e-59)
(3.56284e-32 -2.23742e-33 0)
(3.64508e-32 -2.15928e-33 0)
(3.72484e-32 -2.08255e-33 -2.64766e-59)
(3.80213e-32 -2.00734e-33 0)
(3.87698e-32 -1.93376e-33 0)
(3.94942e-32 -1.8619e-33 2.35982e-59)
(4.01946e-32 -1.79182e-33 0)
(4.08715e-32 -1.72359e-33 6.44181e-59)
(4.15252e-32 -1.65725e-33 4.18585e-59)
(4.21562e-32 -1.59284e-33 0)
(4.27648e-32 -1.53037e-33 0)
(4.33515e-32 -1.46987e-33 -7.18966e-59)
(4.39168e-32 -1.41135e-33 -6.88173e-59)
(4.44611e-32 -1.35478e-33 -6.58417e-59)
(4.49851e-32 -1.30018e-33 9.55158e-59)
(4.5489e-32 -1.24751e-33 3.11733e-59)
(4.59736e-32 -1.19675e-33 -2.7679e-59)
(4.64393e-32 -1.14789e-33 5.49589e-59)
(4.68866e-32 -1.10088e-33 -2.73502e-59)
(4.7316e-32 -1.0557e-33 0)
(4.77282e-32 -1.0123e-33 2.50405e-59)
(4.81235e-32 -9.7064e-34 6.95905e-59)
(4.85026e-32 -9.30682e-34 0)
(4.88659e-32 -8.92379e-34 0)
(4.9214e-32 -8.55686e-34 0)
(4.95472e-32 -8.20556e-34 2.00411e-59)
(4.98663e-32 -7.86941e-34 0)
(5.01715e-32 -7.54794e-34 3.42838e-59)
(5.04635e-32 -7.24067e-34 0)
(5.07426e-32 -6.94714e-34 3.11238e-59)
(5.10094e-32 -6.66685e-34 0)
(5.12642e-32 -6.39936e-34 -2.82426e-59)
(5.15075e-32 -6.14419e-34 0)
(5.17398e-32 -5.90089e-34 2.56207e-59)
(5.19614e-32 -5.66902e-34 -3.78283e-59)
(5.21727e-32 -5.44813e-34 0)
(5.23742e-32 -5.23781e-34 -2.21328e-59)
(5.25663e-32 -5.03763e-34 1.17809e-59)
(5.27492e-32 -4.84719e-34 1.12843e-59)
(5.29234e-32 -4.66609e-34 0)
(5.30892e-32 -4.49395e-34 -2.85827e-59)
(5.32469e-32 -4.33039e-34 9.93666e-60)
(5.33969e-32 -4.17505e-34 0)
(5.35395e-32 -4.02758e-34 -9.14701e-60)
(5.3675e-32 -3.88764e-34 -1.50297e-59)
(5.38038e-32 -3.75491e-34 0)
(5.3926e-32 -3.62906e-34 8.10774e-60)
(5.4042e-32 -3.50979e-34 0)
(5.4152e-32 -3.3968e-34 4.94501e-60)
(5.42564e-32 -3.28981e-34 0)
(5.43552e-32 -3.18854e-34 -4.3923e-60)
(5.44489e-32 -3.09273e-34 6.70902e-60)
(5.45376e-32 -3.00213e-34 1.6843e-59)
(5.46216e-32 -2.91649e-34 3.23379e-59)
(5.47011e-32 -2.83557e-34 -3.10641e-59)
(5.47762e-32 -2.75915e-34 0)
(5.48472e-32 -2.68702e-34 0)
(5.49143e-32 -2.61895e-34 0)
(5.49777e-32 -2.55476e-34 5.41985e-60)
(5.50375e-32 -2.49425e-34 -1.02962e-59)
(5.50939e-32 -2.43723e-34 9.99875e-60)
(5.51471e-32 -2.38354e-34 0)
(5.51972e-32 -2.333e-34 -2.31523e-59)
(5.52445e-32 -2.28545e-34 -9.2069e-60)
(5.5289e-32 -2.24073e-34 -8.97362e-60)
(5.53308e-32 -2.1987e-34 0)
(5.53702e-32 -2.15921e-34 0)
(5.54072e-32 -2.12214e-34 0)
(5.5442e-32 -2.08735e-34 -8.17343e-60)
(5.54746e-32 -2.05471e-34 0)
(5.55053e-32 -2.02412e-34 -1.04454e-59)
(5.5534e-32 -1.99545e-34 -2.44951e-60)
(5.5561e-32 -1.96861e-34 9.86082e-60)
(5.55863e-32 -1.94348e-34 0)
(5.56099e-32 -1.91997e-34 1.6649e-59)
(5.56321e-32 -1.898e-34 0)
(5.56528e-32 -1.87746e-34 8.90108e-60)
(5.56722e-32 -1.85829e-34 -1.56775e-59)
(5.56903e-32 -1.84039e-34 -1.53956e-59)
(5.57072e-32 -1.82369e-34 0)
(5.5723e-32 -1.80812e-34 -1.45429e-60)
(5.57377e-32 -1.79362e-34 8.01819e-60)
(5.57515e-32 -1.78012e-34 -6.57048e-60)
(5.57642e-32 -1.76755e-34 0)
(5.57762e-32 -1.75586e-34 -6.44389e-60)
(5.57872e-32 -1.74499e-34 1.11877e-60)
(5.57975e-32 -1.7349e-34 0)
(5.58071e-32 -1.72553e-34 7.30105e-60)
(5.5816e-32 -1.71684e-34 7.20946e-60)
(5.58243e-32 -1.70878e-34 7.12456e-60)
(5.5832e-32 -1.70131e-34 0)
(5.58391e-32 -1.69439e-34 0)
(5.58456e-32 -1.68799e-34 0)
(5.58517e-32 -1.68207e-34 -1.29021e-59)
(5.58574e-32 -1.6766e-34 6.03033e-60)
(5.58626e-32 -1.67155e-34 0)
(5.58674e-32 -1.66688e-34 -6.68321e-60)
(5.58719e-32 -1.66257e-34 -6.63783e-60)
(5.5876e-32 -1.6586e-34 0)
(5.58797e-32 -1.65494e-34 1.18346e-59)
(5.58832e-32 -1.65157e-34 -1.30438e-59)
(5.58864e-32 -1.64847e-34 -1.1767e-59)
(5.58894e-32 -1.64561e-34 2.46554e-59)
(5.58921e-32 -1.64298e-34 0)
(5.58946e-32 -1.64055e-34 0)
(5.58969e-32 -1.63832e-34 0)
(5.58989e-32 -1.63627e-34 -1.16396e-59)
(5.59008e-32 -1.63437e-34 -2.43014e-59)
(5.59026e-32 -1.63262e-34 -1.26447e-59)
(5.59042e-32 -1.631e-34 -1.15847e-59)
(5.59056e-32 -1.62949e-34 -2.41478e-59)
(5.59069e-32 -1.62808e-34 1.15543e-59)
(5.5908e-32 -1.62676e-34 0)
(5.59091e-32 -1.62551e-34 0)
(5.591e-32 -1.62431e-34 2.39849e-59)
(5.59108e-32 -1.62314e-34 0)
(5.59115e-32 -1.62199e-34 0)
(5.5912e-32 -1.62083e-34 -1.23973e-59)
(5.59124e-32 -1.61964e-34 0)
(5.59127e-32 -1.61838e-34 -2.37997e-59)
(5.59129e-32 -1.61702e-34 -1.14393e-59)
(5.59129e-32 -1.61551e-34 0)
(5.59127e-32 -1.6138e-34 -2.36578e-59)
(5.59122e-32 -1.61183e-34 0)
(5.59116e-32 -1.60949e-34 0)
(5.59106e-32 -1.6067e-34 -1.13329e-59)
(5.59092e-32 -1.60332e-34 -1.20362e-59)
(5.59074e-32 -1.59917e-34 -1.12553e-59)
(5.5905e-32 -1.59404e-34 0)
(5.59018e-32 -1.58766e-34 0)
(5.58978e-32 -1.57966e-34 -2.26057e-59)
(5.58925e-32 -1.56958e-34 0)
(5.58858e-32 -1.55681e-34 -2.19027e-59)
(5.58772e-32 -1.54057e-34 0)
(5.58661e-32 -1.51981e-34 0)
(5.58518e-32 -1.49312e-34 0)
(5.58333e-32 -1.45862e-34 9.80903e-60)
(5.58094e-32 -1.4137e-34 0)
(5.57784e-32 -1.35474e-34 -8.74017e-60)
(5.57378e-32 -1.27657e-34 0)
(5.56844e-32 -1.17158e-34 0)
(5.56135e-32 -1.0282e-34 -2.54675e-61)
(5.55183e-32 -8.27959e-35 -3.85018e-60)
(5.53884e-32 -5.39619e-35 0)
(5.52073e-32 -1.05911e-35 0)
(5.49471e-32 5.90032e-35 0)
(5.4556e-32 1.82478e-34 6.86482e-59)
(5.39345e-32 4.40045e-34 0)
(5.29541e-32 1.1339e-33 -5.08975e-58)
(6.2511e-34 -6.76889e-33 3.49869e-58)
(1.88018e-33 -6.75776e-33 -4.47529e-62)
(3.14249e-33 -6.73829e-33 0)
(4.41038e-33 -6.71037e-33 1.04487e-61)
(5.68215e-33 -6.67399e-33 0)
(6.95606e-33 -6.62919e-33 0)
(8.23035e-33 -6.57604e-33 -3.39001e-58)
(9.50323e-33 -6.51472e-33 -1.67952e-58)
(1.07729e-32 -6.44541e-33 1.65846e-58)
(1.20377e-32 -6.36838e-33 -1.6405e-58)
(1.32957e-32 -6.28394e-33 0)
(1.45453e-32 -6.19243e-33 0)
(1.57848e-32 -6.09427e-33 -1.56415e-58)
(1.70127e-32 -5.98987e-33 -3.07258e-58)
(1.82274e-32 -5.87972e-33 3.01391e-58)
(1.94273e-32 -5.76429e-33 0)
(2.06112e-32 -5.64411e-33 2.88873e-58)
(2.17778e-32 -5.51969e-33 1.41652e-58)
(2.29258e-32 -5.39157e-33 0)
(2.40541e-32 -5.26028e-33 2.68542e-58)
(2.51618e-32 -5.12636e-33 -1.31325e-58)
(2.6248e-32 -4.99033e-33 -2.54275e-58)
(2.73119e-32 -4.85271e-33 1.2415e-58)
(2.83528e-32 -4.71397e-33 0)
(2.937e-32 -4.57461e-33 2.32341e-58)
(3.03631e-32 -4.43507e-33 2.24986e-58)
(3.13318e-32 -4.29577e-33 0)
(3.22757e-32 -4.15711e-33 2.10345e-58)
(3.31945e-32 -4.01946e-33 0)
(3.40882e-32 -3.88316e-33 1.95925e-58)
(3.49566e-32 -3.74852e-33 -9.52462e-59)
(3.57998e-32 -3.61582e-33 0)
(3.66179e-32 -3.4853e-33 0)
(3.7411e-32 -3.35719e-33 0)
(3.81793e-32 -3.23168e-33 0)
(3.8923e-32 -3.10893e-33 0)
(3.96424e-32 -2.98909e-33 0)
(4.03378e-32 -2.87227e-33 1.42778e-58)
(4.10097e-32 -2.75856e-33 -6.74339e-59)
(4.16584e-32 -2.64804e-33 0)
(4.22843e-32 -2.54076e-33 0)
(4.2888e-32 -2.43676e-33 0)
(4.34697e-32 -2.33605e-33 -2.31279e-58)
(4.40302e-32 -2.23864e-33 -1.11577e-58)
(4.45697e-32 -2.14453e-33 -2.10476e-60)
(4.5089e-32 -2.05368e-33 2.12925e-60)
(4.55884e-32 -1.96608e-33 -9.51855e-59)
(4.60685e-32 -1.88167e-33 -9.29293e-59)
(4.65298e-32 -1.80042e-33 1.75173e-58)
(4.69729e-32 -1.72226e-33 8.23847e-59)
(4.73983e-32 -1.64715e-33 0)
(4.78065e-32 -1.575e-33 7.46534e-59)
(4.81981e-32 -1.50576e-33 1.44313e-58)
(4.85735e-32 -1.43935e-33 0)
(4.89333e-32 -1.3757e-33 0)
(4.92779e-32 -1.31473e-33 -6.0989e-59)
(4.9608e-32 -1.25635e-33 0)
(4.99239e-32 -1.2005e-33 0)
(5.02261e-32 -1.14709e-33 1.58936e-58)
(5.05152e-32 -1.09604e-33 9.90156e-59)
(5.07916e-32 -1.04727e-33 4.93458e-59)
(5.10557e-32 -1.0007e-33 0)
(5.13081e-32 -9.56265e-34 -4.45923e-59)
(5.1549e-32 -9.13874e-34 0)