/*--------------------------------*- C++ -*----------------------------------*\
  =========                 |
  \\      /  F ield         | OpenFOAM: The Open Source CFD Toolbox
   \\    /   O peration     | Website:  https://openfoam.org
    \\  /    A nd           | Version:  10
     \\/     M anipulation  |
\*---------------------------------------------------------------------------*/
FoamFile
{
    format      ascii;
    class       volScalarField;
    location    "18400";
    object      p;
}
// * * * * * * * * * * * * * * * * * * * * * * * * * * * * * * * * * * * * * //

dimensions      [1 -1 -2 0 0 0 0];

internalField   nonuniform List<scalar> 
6400
(
111.788
111.818
111.878
111.972
112.107
112.293
112.554
113.284
321.757
520.207
715.789
906.339
1088.74
1281.02
1470.73
1658.16
1842.3
2023.26
2197.33
2368.66
2540.52
2711.43
2881.44
3051.26
3219.99
3387.26
3552.53
3714.85
3874.73
4032.49
4187.47
4337.56
4439.2
4498.55
4553.61
4603.07
4645.42
4679.07
4702.52
4714.59
4714.59
4702.52
4679.07
4645.42
4603.07
4553.61
4498.55
4439.2
4337.56
4187.47
4032.49
3874.73
3714.85
3552.53
3387.26
3219.99
3051.26
2881.44
2711.43
2540.52
2368.66
2197.33
2023.26
1842.3
1658.16
1470.73
1281.02
1088.74
906.339
715.789
520.207
321.757
113.284
112.554
112.293
112.107
111.972
111.878
111.818
111.788
111.493
111.522
111.583
111.677
111.811
111.996
112.259
112.744
112.901
226.131
421.916
612.649
794.269
987.1
1176.8
1364.3
1548.43
1729.56
1903.44
2074.64
2246.56
2417.47
2587.45
2757.31
2926.06
3093.35
3258.67
3420.96
3580.83
3738.62
3893.69
4043.98
4145.92
4205.51
4260.87
4310.67
4353.37
4387.36
4411.08
4423.3
4423.3
4411.08
4387.36
4353.37
4310.67
4260.87
4205.51
4145.92
4043.98
3893.69
3738.62
3580.83
3420.96
3258.67
3093.35
2926.06
2757.31
2587.45
2417.47
2246.56
2074.64
1903.44
1729.56
1548.43
1364.3
1176.8
987.1
794.269
612.649
421.916
226.131
112.901
112.744
112.259
111.996
111.811
111.677
111.583
111.522
111.493
111.168
111.197
111.257
111.35
111.483
111.666
111.923
112.331
112.514
112.757
113.227
290.99
470.578
664.825
854.493
1042.11
1226.24
1407.79
1581.23
1752.09
1924.18
2095.09
2264.99
2434.95
2603.74
2771.08
2936.51
3098.75
3258.58
3416.44
3571.73
3722.46
3825.11
3885.26
3941.3
3991.89
4035.42
4070.2
4094.56
4107.13
4107.13
4094.56
4070.2
4035.42
3991.89
3941.3
3885.26
3825.11
3722.46
3571.73
3416.44
3258.58
3098.75
2936.51
2771.08
2603.74
2434.95
2264.99
2095.09
1924.18
1752.09
1581.23
1407.79
1226.24
1042.11
854.493
664.825
470.578
290.99
113.227
112.757
112.514
112.331
111.923
111.666
111.483
111.35
111.257
111.197
111.168
110.809
110.838
110.897
110.99
111.121
111.3
111.546
111.892
112.091
112.314
112.506
112.436
114.217
311.541
501.017
688.906
872.972
1055.37
1227.96
1398.2
1570.63
1741.54
1911.29
2081.44
2250.29
2417.73
2583.35
2745.49
2905.25
3063.22
3218.88
3370.38
3474.23
3535.35
3592.6
3644.56
3689.57
3725.77
3751.27
3764.48
3764.48
3751.27
3725.77
3689.57
3644.56
3592.6
3535.35
3474.23
3370.38
3218.88
3063.22
2905.25
2745.49
2583.35
2417.73
2250.29
2081.44
1911.29
1741.54
1570.63
1398.2
1227.96
1055.37
872.972
688.906
501.017
311.541
114.217
112.436
112.506
112.314
112.091
111.892
111.546
111.3
111.121
110.99
110.897
110.838
110.809
110.413
110.442
110.5
110.591
110.719
110.893
111.124
111.421
111.624
111.829
111.997
112.009
112.331
112.095
113.214
301.759
485.561
669.565
840.619
1009.84
1182.95
1353.81
1523.3
1693.78
1862.72
2030.29
2196.27
2358.2
2517.85
2675.99
2832.19
2984.81
3090.48
3153.11
3212.24
3266.39
3313.76
3352.25
3379.64
3393.93
3393.93
3379.64
3352.25
3313.76
3266.39
3212.24
3153.11
3090.48
2984.81
2832.19
2675.99
2517.85
2358.2
2196.27
2030.29
1862.72
1693.78
1523.3
1353.81
1182.95
1009.84
840.619
669.565
485.561
301.759
113.214
112.095
112.331
112.009
111.997
111.829
111.624
111.421
111.124
110.893
110.719
110.591
110.5
110.442
110.413
109.977
110.005
110.062
110.151
110.275
110.441
110.656
110.913
111.113
111.301
111.453
111.511
111.726
111.616
111.778
111.536
111.811
248.592
415.912
583.434
757.882
928.638
1097.6
1268.7
1437.73
1605.47
1772.07
1933.62
2093.07
2251.44
2408.41
2562.52
2670.76
2735.55
2797.47
2854.89
2905.84
2947.93
2978.34
2994.37
2994.37
2978.34
2947.93
2905.84
2854.89
2797.47
2735.55
2670.76
2562.52
2408.41
2251.44
2093.07
1933.62
1772.07
1605.47
1437.73
1268.7
1097.6
928.638
757.882
583.434
415.912
248.592
111.811
111.536
111.778
111.616
111.726
111.511
111.453
111.301
111.113
110.913
110.656
110.441
110.275
110.151
110.062
110.005
109.977
109.495
109.522
109.578
109.664
109.783
109.94
110.137
110.363
110.553
110.727
110.867
110.949
111.098
111.061
111.146
111.01
111.064
110.888
110.897
114.597
292.053
462.43
630.387
802.661
971.708
1139.63
1307.36
1468.15
1627.27
1785.95
1943.92
2099.84
2211.48
2279.29
2345.2
2407.34
2463.62
2511.27
2546.54
2565.43
2565.43
2546.54
2511.27
2463.62
2407.34
2345.2
2279.29
2211.48
2099.84
1943.92
1785.95
1627.27
1468.15
1307.36
1139.63
971.708
802.661
630.387
462.43
292.053
114.597
110.897
110.888
111.064
111.01
111.146
111.061
111.098
110.949
110.867
110.727
110.553
110.363
110.137
109.94
109.783
109.664
109.578
109.522
109.495
108.963
108.989
109.043
109.126
109.239
109.386
109.565
109.763
109.941
110.101
110.231
110.323
110.433
110.437
110.482
110.408
110.419
110.317
110.339
110.583
110.267
110.251
116.995
291.97
460.686
628.693
798.601
957.839
1116.44
1275.48
1434.76
1592.6
1708.42
1780.26
1851.85
1920.67
1984.7
2041.05
2084.42
2108.17
2108.17
2084.42
2041.05
1984.7
1920.67
1851.85
1780.26
1708.42
1592.6
1434.76
1275.48
1116.44
957.839
798.601
628.693
460.686
291.97
116.995
110.251
110.267
110.583
110.339
110.317
110.419
110.408
110.482
110.437
110.433
110.323
110.231
110.101
109.941
109.763
109.565
109.386
109.239
109.126
109.043
108.989
108.963
108.375
108.401
108.452
108.53
108.637
108.772
108.934
109.109
109.272
109.419
109.54
109.633
109.721
109.745
109.773
109.735
109.728
109.672
109.691
109.808
109.64
109.628
109.814
109.45
109.369
110.092
243.891
398.349
556.075
715.56
876.567
1035.91
1156.33
1233.3
1313.25
1391.11
1466.09
1536.37
1594.11
1626.62
1626.62
1594.11
1536.37
1466.09
1391.11
1313.25
1233.3
1156.33
1035.91
876.567
715.56
556.075
398.349
243.891
110.092
109.369
109.45
109.814
109.628
109.64
109.808
109.691
109.672
109.728
109.735
109.773
109.745
109.721
109.633
109.54
109.419
109.272
109.109
108.934
108.772
108.637
108.53
108.452
108.401
108.375
107.726
107.75
107.798
107.872
107.971
108.095
108.239
108.394
108.542
108.675
108.788
108.878
108.952
108.986
109.007
108.99
108.98
108.95
108.962
109.012
108.924
108.908
108.969
108.762
108.686
108.741
108.468
108.358
108.403
113.167
265.564
424.318
548.548
631.222
725.55
814.033
902.753
996.038
1082.05
1131.41
1131.41
1082.05
996.038
902.753
814.033
725.55
631.222
548.548
424.318
265.564
113.167
108.403
108.358
108.468
108.741
108.686
108.762
108.969
108.908
108.924
109.012
108.962
108.95
108.98
108.99
109.007
108.986
108.952
108.878
108.788
108.675
108.542
108.394
108.239
108.095
107.971
107.872
107.798
107.75
107.726
107.008
107.03
107.076
107.144
107.235
107.346
107.475
107.612
107.744
107.865
107.968
108.052
108.119
108.156
108.176
108.172
108.164
108.148
108.153
108.17
108.122
108.101
108.102
107.978
107.907
107.887
107.722
107.635
107.658
107.796
107.489
107.378
107.422
107.553
132.426
194.976
288.347
419.283
567.76
649.714
649.714
567.76
419.283
288.347
194.976
132.426
107.553
107.422
107.378
107.489
107.796
107.658
107.635
107.722
107.887
107.907
107.978
108.102
108.101
108.122
108.17
108.153
108.148
108.164
108.172
108.176
108.156
108.119
108.052
107.968
107.865
107.744
107.612
107.475
107.346
107.235
107.144
107.076
107.03
107.008
106.214
106.235
106.277
106.339
106.421
106.521
106.635
106.755
106.872
106.98
107.074
107.152
107.212
107.25
107.272
107.275
107.272
107.263
107.263
107.264
107.234
107.21
107.186
107.104
107.039
106.99
106.882
106.813
106.808
106.836
106.67
106.579
106.575
106.569
106.518
106.478
106.471
107.614
164.923
260.446
260.446
164.923
107.614
106.471
106.478
106.518
106.569
106.575
106.579
106.67
106.836
106.808
106.813
106.882
106.99
107.039
107.104
107.186
107.21
107.234
107.264
107.263
107.263
107.272
107.275
107.272
107.25
107.212
107.152
107.074
106.98
106.872
106.755
106.635
106.521
106.421
106.339
106.277
106.235
106.214
105.337
105.356
105.394
105.45
105.523
105.612
105.711
105.816
105.919
106.015
106.1
106.17
106.225
106.263
106.285
106.294
106.294
106.29
106.287
106.281
106.258
106.233
106.2
106.14
106.081
106.025
105.948
105.89
105.866
105.847
105.748
105.675
105.651
105.634
105.61
105.591
105.582
105.592
106.106
125.129
125.129
106.106
105.592
105.582
105.591
105.61
105.634
105.651
105.675
105.748
105.847
105.866
105.89
105.948
106.025
106.081
106.14
106.2
106.233
106.258
106.281
106.287
106.29
106.294
106.294
106.285
106.263
106.225
106.17
106.1
106.015
105.919
105.816
105.711
105.612
105.523
105.45
105.394
105.356
105.337
104.367
104.384
104.418
104.468
104.532
104.61
104.696
104.787
104.876
104.961
105.036
105.099
105.15
105.186
105.209
105.22
105.224
105.222
105.218
105.208
105.189
105.164
105.13
105.081
105.029
104.976
104.915
104.864
104.829
104.794
104.727
104.668
104.64
104.623
104.607
104.594
104.586
104.583
104.579
109.332
109.332
104.579
104.583
104.586
104.594
104.607
104.623
104.64
104.668
104.727
104.794
104.829
104.864
104.915
104.976
105.029
105.081
105.13
105.164
105.189
105.208
105.218
105.222
105.224
105.22
105.209
105.186
105.15
105.099
105.036
104.961
104.876
104.787
104.696
104.61
104.532
104.468
104.418
104.384
104.367
103.295
103.31
103.34
103.383
103.44
103.506
103.58
103.658
103.736
103.809
103.875
103.931
103.977
104.011
104.034
104.047
104.052
104.052
104.047
104.037
104.019
103.995
103.963
103.922
103.876
103.828
103.778
103.732
103.693
103.653
103.602
103.555
103.528
103.513
103.5
103.49
103.481
103.476
103.464
105.956
105.956
103.464
103.476
103.481
103.49
103.5
103.513
103.528
103.555
103.602
103.653
103.693
103.732
103.778
103.828
103.876
103.922
103.963
103.995
104.019
104.037
104.047
104.052
104.052
104.047
104.034
104.011
103.977
103.931
103.875
103.809
103.736
103.658
103.58
103.506
103.44
103.383
103.34
103.31
103.295
102.11
102.124
102.149
102.187
102.235
102.292
102.355
102.421
102.487
102.55
102.607
102.656
102.697
102.729
102.751
102.764
102.771
102.772
102.767
102.757
102.74
102.718
102.689
102.653
102.613
102.571
102.528
102.486
102.448
102.409
102.367
102.328
102.304
102.291
102.28
102.27
102.262
102.257
102.244
104.239
104.239
102.244
102.257
102.262
102.27
102.28
102.291
102.304
102.328
102.367
102.409
102.448
102.486
102.528
102.571
102.613
102.653
102.689
102.718
102.74
102.757
102.767
102.772
102.771
102.764
102.751
102.729
102.697
102.656
102.607
102.55
102.487
102.421
102.355
102.292
102.235
102.187
102.149
102.124
102.11
100.719
100.73
100.752
100.783
100.823
100.87
100.922
100.977
101.032
101.085
101.133
101.176
101.211
101.24
101.26
101.273
101.28
101.282
101.277
101.268
101.253
101.233
101.207
101.176
101.142
101.105
101.068
101.031
100.995
100.959
100.924
100.891
100.871
100.86
100.85
100.841
100.834
100.828
100.816
102.736
102.736
100.816
100.828
100.834
100.841
100.85
100.86
100.871
100.891
100.924
100.959
100.995
101.031
101.068
101.105
101.142
101.176
101.207
101.233
101.253
101.268
101.277
101.282
101.28
101.273
101.26
101.24
101.211
101.176
101.133
101.085
101.032
100.977
100.922
100.87
100.823
100.783
100.752
100.73
100.719
99.1738
99.1828
99.2005
99.2262
99.259
99.2974
99.34
99.3847
99.4298
99.4733
99.5137
99.5496
99.5801
99.6046
99.6229
99.6353
99.642
99.6433
99.6397
99.6311
99.6177
99.5996
99.5771
99.5507
99.5212
99.4896
99.457
99.4243
99.392
99.3604
99.3298
99.3017
99.284
99.274
99.265
99.2569
99.25
99.2441
99.2319
101.19
101.19
99.2319
99.2441
99.25
99.2569
99.265
99.274
99.284
99.3017
99.3298
99.3604
99.392
99.4243
99.457
99.4896
99.5212
99.5507
99.5771
99.5996
99.6177
99.6311
99.6397
99.6433
99.642
99.6353
99.6229
99.6046
99.5801
99.5496
99.5137
99.4733
99.4298
99.3847
99.34
99.2974
99.259
99.2262
99.2005
99.1828
99.1738
97.6193
97.6267
97.6412
97.6623
97.6891
97.7205
97.7553
97.792
97.829
97.865
97.8986
97.9288
97.9547
97.9758
97.9918
98.0028
98.0088
98.0101
98.0068
97.9991
97.9871
97.9711
97.9513
97.9282
97.9025
97.875
97.8463
97.8173
97.7884
97.7603
97.7333
97.7085
97.6926
97.6836
97.6753
97.6677
97.661
97.6551
97.6428
99.6594
99.6594
97.6428
97.6551
97.661
97.6677
97.6753
97.6836
97.6926
97.7085
97.7333
97.7603
97.7884
97.8173
97.8463
97.875
97.9025
97.9282
97.9513
97.9711
97.9871
97.9991
98.0068
98.0101
98.0088
98.0028
97.9918
97.9758
97.9547
97.9288
97.8986
97.865
97.829
97.792
97.7553
97.7205
97.6891
97.6623
97.6412
97.6267
97.6193
96.0574
96.0635
96.0754
96.0926
96.1146
96.1403
96.1688
96.1988
96.2293
96.2591
96.287
96.3123
96.3341
96.352
96.3658
96.3753
96.3805
96.3815
96.3784
96.3714
96.3606
96.3463
96.3287
96.3084
96.2857
96.2614
96.236
96.2101
96.1842
96.159
96.1348
96.1123
96.0978
96.0894
96.0816
96.0744
96.0678
96.0618
96.0496
98.132
98.132
96.0496
96.0618
96.0678
96.0744
96.0816
96.0894
96.0978
96.1123
96.1348
96.159
96.1842
96.2101
96.236
96.2614
96.2857
96.3084
96.3287
96.3463
96.3606
96.3714
96.3784
96.3815
96.3805
96.3753
96.3658
96.352
96.3341
96.3123
96.287
96.2591
96.2293
96.1988
96.1688
96.1403
96.1146
96.0926
96.0754
96.0635
96.0574
94.4894
94.4944
94.5041
94.5183
94.5362
94.5573
94.5806
94.6053
94.6304
94.6549
94.6781
94.6991
94.7174
94.7325
94.7441
94.752
94.7563
94.7569
94.7539
94.7474
94.7376
94.7247
94.709
94.6908
94.6706
94.6489
94.6261
94.6028
94.5794
94.5565
94.5345
94.5139
94.5003
94.4924
94.4849
94.4779
94.4714
94.4654
94.4531
96.6074
96.6074
94.4531
94.4654
94.4714
94.4779
94.4849
94.4924
94.5003
94.5139
94.5345
94.5565
94.5794
94.6028
94.6261
94.6489
94.6706
94.6908
94.709
94.7247
94.7376
94.7474
94.7539
94.7569
94.7563
94.752
94.7441
94.7325
94.7174
94.6991
94.6781
94.6549
94.6304
94.6053
94.5806
94.5573
94.5362
94.5183
94.5041
94.4944
94.4894
92.9165
92.9206
92.9285
92.9401
92.9548
92.972
92.9911
93.0114
93.032
93.0522
93.0713
93.0887
93.1039
93.1164
93.126
93.1325
93.1358
93.1359
93.1329
93.1268
93.1177
93.106
93.0917
93.0753
93.0571
93.0374
93.0168
92.9956
92.9742
92.9532
92.9328
92.9136
92.9007
92.8931
92.8859
92.879
92.8725
92.8664
92.854
95.0866
95.0866
92.854
92.8664
92.8725
92.879
92.8859
92.8931
92.9007
92.9136
92.9328
92.9532
92.9742
92.9956
93.0168
93.0374
93.0571
93.0753
93.0917
93.106
93.1177
93.1268
93.1329
93.1359
93.1358
93.1325
93.126
93.1164
93.1039
93.0887
93.0713
93.0522
93.032
93.0114
92.9911
92.972
92.9548
92.9401
92.9285
92.9206
92.9165
91.3395
91.3428
91.3493
91.3588
91.3708
91.3849
91.4005
91.4171
91.4339
91.4505
91.4662
91.4805
91.493
91.5032
91.511
91.5161
91.5185
91.5181
91.5149
91.509
91.5006
91.4897
91.4766
91.4616
91.4449
91.4269
91.408
91.3885
91.3688
91.3492
91.3301
91.3118
91.2994
91.292
91.2849
91.2781
91.2716
91.2654
91.253
93.5713
93.5713
91.253
91.2654
91.2716
91.2781
91.2849
91.292
91.2994
91.3118
91.3301
91.3492
91.3688
91.3885
91.408
91.4269
91.4449
91.4616
91.4766
91.4897
91.5006
91.509
91.5149
91.5181
91.5185
91.5161
91.511
91.5032
91.493
91.4805
91.4662
91.4505
91.4339
91.4171
91.4005
91.3849
91.3708
91.3588
91.3493
91.3428
91.3395
89.7592
89.7619
89.7672
89.7749
89.7847
89.7962
89.8089
89.8224
89.8362
89.8498
89.8626
89.8742
89.8843
89.8925
89.8987
89.9025
89.904
89.9031
89.8997
89.8939
89.8858
89.8756
89.8634
89.8495
89.834
89.8174
89.7998
89.7816
89.7631
89.7447
89.7265
89.7089
89.6968
89.6896
89.6826
89.6758
89.6692
89.6628
89.6504
92.0629
92.0629
89.6504
89.6628
89.6692
89.6758
89.6826
89.6896
89.6968
89.7089
89.7265
89.7447
89.7631
89.7816
89.7998
89.8174
89.834
89.8495
89.8634
89.8756
89.8858
89.8939
89.8997
89.9031
89.904
89.9025
89.8987
89.8925
89.8843
89.8742
89.8626
89.8498
89.8362
89.8224
89.8089
89.7962
89.7847
89.7749
89.7672
89.7619
89.7592
88.1761
88.1783
88.1827
88.1889
88.1969
88.2062
88.2166
88.2276
88.2388
88.2497
88.2601
88.2694
88.2775
88.284
88.2886
88.2913
88.2919
88.2904
88.2868
88.281
88.2732
88.2635
88.252
88.2389
88.2244
88.2088
88.1922
88.1751
88.1575
88.1398
88.1223
88.1052
88.0933
88.0861
88.0791
88.0722
88.0655
88.0591
88.0465
90.5631
90.5631
88.0465
88.0591
88.0655
88.0722
88.0791
88.0861
88.0933
88.1052
88.1223
88.1398
88.1575
88.1751
88.1922
88.2088
88.2244
88.2389
88.252
88.2635
88.2732
88.281
88.2868
88.2904
88.2919
88.2913
88.2886
88.284
88.2775
88.2694
88.2601
88.2497
88.2388
88.2276
88.2166
88.2062
88.1969
88.1889
88.1827
88.1783
88.1761
86.5909
86.5927
86.5962
86.6013
86.6077
86.6153
86.6236
86.6325
86.6415
86.6503
86.6586
86.666
86.6723
86.6772
86.6805
86.6822
86.682
86.68
86.676
86.6702
86.6626
86.6532
86.6422
86.6297
86.6159
86.6011
86.5853
86.5689
86.552
86.5349
86.5178
86.5009
86.489
86.4818
86.4747
86.4677
86.4609
86.4543
86.4416
89.0739
89.0739
86.4416
86.4543
86.4609
86.4677
86.4747
86.4818
86.489
86.5009
86.5178
86.5349
86.552
86.5689
86.5853
86.6011
86.6159
86.6297
86.6422
86.6532
86.6626
86.6702
86.676
86.68
86.682
86.6822
86.6805
86.6772
86.6723
86.666
86.6586
86.6503
86.6415
86.6325
86.6236
86.6153
86.6077
86.6013
86.5962
86.5927
86.5909
85.0039
85.0053
85.0081
85.0122
85.0174
85.0235
85.0302
85.0373
85.0444
85.0514
85.0579
85.0636
85.0684
85.072
85.0742
85.0749
85.074
85.0714
85.0671
85.0612
85.0536
85.0445
85.0338
85.0218
85.0086
84.9943
84.9791
84.9631
84.9467
84.9299
84.913
84.8961
84.8841
84.8768
84.8696
84.8625
84.8555
84.8486
84.8358
87.5977
87.5977
84.8358
84.8486
84.8555
84.8625
84.8696
84.8768
84.8841
84.8961
84.913
84.9299
84.9467
84.9631
84.9791
84.9943
85.0086
85.0218
85.0338
85.0445
85.0536
85.0612
85.0671
85.0714
85.074
85.0749
85.0742
85.072
85.0684
85.0636
85.0579
85.0514
85.0444
85.0373
85.0302
85.0235
85.0174
85.0122
85.0081
85.0053
85.0039
83.4154
83.4166
83.4188
83.4221
83.4262
83.431
83.4364
83.442
83.4476
83.453
83.458
83.4623
83.4657
83.4681
83.4693
83.4691
83.4676
83.4645
83.4599
83.4538
83.4463
83.4372
83.4268
83.4151
83.4023
83.3884
83.3735
83.3579
83.3417
83.3251
83.3081
83.2911
83.2789
83.2714
83.264
83.2566
83.2494
83.2423
83.2292
86.1372
86.1372
83.2292
83.2423
83.2494
83.2566
83.264
83.2714
83.2789
83.2911
83.3081
83.3251
83.3417
83.3579
83.3735
83.3884
83.4023
83.4151
83.4268
83.4372
83.4463
83.4538
83.4599
83.4645
83.4676
83.4691
83.4693
83.4681
83.4657
83.4623
83.458
83.453
83.4476
83.442
83.4364
83.431
83.4262
83.4221
83.4188
83.4166
83.4154
81.8258
81.8267
81.8285
81.8311
81.8343
81.8381
81.8423
81.8466
81.8509
81.855
81.8587
81.8618
81.8641
81.8655
81.8657
81.8648
81.8626
81.8591
81.8542
81.848
81.8403
81.8314
81.8211
81.8096
81.797
81.7834
81.7688
81.7533
81.7372
81.7205
81.7034
81.686
81.6734
81.6657
81.658
81.6503
81.6428
81.6353
81.6219
84.6957
84.6957
81.6219
81.6353
81.6428
81.6503
81.658
81.6657
81.6734
81.686
81.7034
81.7205
81.7372
81.7533
81.7688
81.7834
81.797
81.8096
81.8211
81.8314
81.8403
81.848
81.8542
81.8591
81.8626
81.8648
81.8657
81.8655
81.8641
81.8618
81.8587
81.855
81.8509
81.8466
81.8423
81.8381
81.8343
81.8311
81.8285
81.8267
81.8258
80.2353
80.236
80.2374
80.2394
80.2419
80.2448
80.248
80.2513
80.2545
80.2575
80.2601
80.2621
80.2634
80.2639
80.2634
80.2618
80.2591
80.2551
80.2499
80.2435
80.2358
80.2268
80.2166
80.2053
80.1928
80.1793
80.1648
80.1494
80.1333
80.1164
80.0989
80.081
80.0679
80.0598
80.0517
80.0436
80.0356
80.0277
80.0138
83.2775
83.2775
80.0138
80.0277
80.0356
80.0436
80.0517
80.0598
80.0679
80.081
80.0989
80.1164
80.1333
80.1494
80.1648
80.1793
80.1928
80.2053
80.2166
80.2268
80.2358
80.2435
80.2499
80.2551
80.2591
80.2618
80.2634
80.2639
80.2634
80.2621
80.2601
80.2575
80.2545
80.2513
80.248
80.2448
80.2419
80.2394
80.2374
80.236
80.2353
78.6441
78.6446
78.6457
78.6472
78.6491
78.6513
78.6536
78.656
78.6583
78.6604
78.662
78.6631
78.6636
78.6633
78.6621
78.6599
78.6567
78.6524
78.6469
78.6403
78.6325
78.6235
78.6133
78.602
78.5896
78.5762
78.5618
78.5463
78.53
78.5128
78.4949
78.4762
78.4624
78.4538
78.4452
78.4366
78.428
78.4195
78.4049
81.8871
81.8871
78.4049
78.4195
78.428
78.4366
78.4452
78.4538
78.4624
78.4762
78.4949
78.5128
78.53
78.5463
78.5618
78.5762
78.5896
78.602
78.6133
78.6235
78.6325
78.6403
78.6469
78.6524
78.6567
78.6599
78.6621
78.6633
78.6636
78.6631
78.662
78.6604
78.6583
78.656
78.6536
78.6513
78.6491
78.6472
78.6457
78.6446
78.6441
77.0523
77.0527
77.0535
77.0546
77.056
77.0576
77.0592
77.0609
77.0624
77.0636
77.0645
77.0648
77.0645
77.0636
77.0618
77.0591
77.0554
77.0508
77.045
77.0382
77.0303
77.0213
77.0111
76.9999
76.9875
76.9741
76.9597
76.9442
76.9276
76.9101
76.8915
76.872
76.8573
76.8481
76.8388
76.8295
76.8201
76.8108
76.7951
80.5296
80.5296
76.7951
76.8108
76.8201
76.8295
76.8388
76.8481
76.8573
76.872
76.8915
76.9101
76.9276
76.9442
76.9597
76.9741
76.9875
76.9999
77.0111
77.0213
77.0303
77.0382
77.045
77.0508
77.0554
77.0591
77.0618
77.0636
77.0645
77.0648
77.0645
77.0636
77.0624
77.0609
77.0592
77.0576
77.056
77.0546
77.0535
77.0527
77.0523
75.4601
75.4604
75.461
75.4618
75.4627
75.4638
75.4648
75.4658
75.4667
75.4672
75.4674
75.4671
75.4662
75.4647
75.4624
75.4592
75.4552
75.4502
75.4443
75.4373
75.4293
75.4202
75.41
75.3988
75.3865
75.3731
75.3586
75.343
75.3262
75.3083
75.2891
75.2686
75.2528
75.2429
75.2328
75.2225
75.2121
75.2016
75.1844
79.206
79.206
75.1844
75.2016
75.2121
75.2225
75.2328
75.2429
75.2528
75.2686
75.2891
75.3083
75.3262
75.343
75.3586
75.3731
75.3865
75.3988
75.41
75.4202
75.4293
75.4373
75.4443
75.4502
75.4552
75.4592
75.4624
75.4647
75.4662
75.4671
75.4674
75.4672
75.4667
75.4658
75.4648
75.4638
75.4627
75.4618
75.461
75.4604
75.4601
73.8677
73.8679
73.8682
73.8687
73.8693
73.8699
73.8705
73.871
73.8712
73.8712
73.8708
73.87
73.8686
73.8665
73.8638
73.8602
73.8559
73.8507
73.8445
73.8374
73.8293
73.8202
73.81
73.7988
73.7866
73.7732
73.7587
73.743
73.7261
73.7078
73.6879
73.6665
73.6496
73.6388
73.6277
73.6162
73.6043
73.5922
73.5728
77.896
77.896
73.5728
73.5922
73.6043
73.6162
73.6277
73.6388
73.6496
73.6665
73.6879
73.7078
73.7261
73.743
73.7587
73.7732
73.7866
73.7988
73.81
73.8202
73.8293
73.8374
73.8445
73.8507
73.8559
73.8602
73.8638
73.8665
73.8686
73.87
73.8708
73.8712
73.8712
73.871
73.8705
73.8699
73.8693
73.8687
73.8682
73.8679
73.8677
72.2751
72.2752
72.2754
72.2756
72.2759
72.2761
72.2763
72.2763
72.2761
72.2756
72.2747
72.2734
72.2715
72.2691
72.266
72.2621
72.2575
72.252
72.2457
72.2385
72.2303
72.2212
72.2111
72.1999
72.1877
72.1744
72.16
72.1443
72.1273
72.1087
72.0885
72.0662
72.0483
72.0367
72.0244
72.0115
71.9979
71.9835
71.9609
76.4779
76.4779
71.9609
71.9835
71.9979
72.0115
72.0244
72.0367
72.0483
72.0662
72.0885
72.1087
72.1273
72.1443
72.16
72.1744
72.1877
72.1999
72.2111
72.2212
72.2303
72.2385
72.2457
72.252
72.2575
72.2621
72.266
72.2691
72.2715
72.2734
72.2747
72.2756
72.2761
72.2763
72.2763
72.2761
72.2759
72.2756
72.2754
72.2752
72.2751
70.6823
70.6824
70.6824
70.6825
70.6825
70.6824
70.6822
70.6819
70.6813
70.6804
70.6791
70.6773
70.6751
70.6723
70.6689
70.6647
70.6599
70.6543
70.6478
70.6405
70.6323
70.6232
70.6131
70.6021
70.59
70.5768
70.5625
70.5469
70.5299
70.5114
70.4911
70.4684
70.4499
70.4377
70.4247
70.4105
70.395
70.3778
70.3507
74.4317
74.4317
70.3507
70.3778
70.395
70.4105
70.4247
70.4377
70.4499
70.4684
70.4911
70.5114
70.5299
70.5469
70.5625
70.5768
70.59
70.6021
70.6131
70.6232
70.6323
70.6405
70.6478
70.6543
70.6599
70.6647
70.6689
70.6723
70.6751
70.6773
70.6791
70.6804
70.6813
70.6819
70.6822
70.6824
70.6825
70.6825
70.6824
70.6824
70.6823
69.0896
69.0895
69.0895
69.0894
69.0892
69.0888
69.0884
69.0877
69.0867
69.0855
69.0839
69.0818
69.0792
69.0761
69.0725
69.0681
69.0631
69.0573
69.0508
69.0434
69.0352
69.0261
69.0162
69.0052
68.9933
68.9803
68.9662
68.9509
68.9342
68.916
68.8959
68.8736
68.8554
68.8434
68.8305
68.8162
68.8003
68.7818
68.7522
70.2654
70.2654
68.7522
68.7818
68.8003
68.8162
68.8305
68.8434
68.8554
68.8736
68.8959
68.916
68.9342
68.9509
68.9662
68.9803
68.9933
69.0052
69.0162
69.0261
69.0352
69.0434
69.0508
69.0573
69.0631
69.0681
69.0725
69.0761
69.0792
69.0818
69.0839
69.0855
69.0867
69.0877
69.0884
69.0888
69.0892
69.0894
69.0895
69.0895
69.0896
67.4968
67.4967
67.4966
67.4963
67.4959
67.4954
67.4947
67.4938
67.4925
67.491
67.4891
67.4867
67.4839
67.4806
67.4767
67.4722
67.467
67.4611
67.4545
67.4472
67.439
67.43
67.4202
67.4094
67.3977
67.385
67.3712
67.3562
67.34
67.3223
67.303
67.2818
67.2649
67.254
67.2426
67.2308
67.2187
67.2065
67.1926
67.1873
67.1873
67.1926
67.2065
67.2187
67.2308
67.2426
67.254
67.2649
67.2818
67.303
67.3223
67.34
67.3562
67.3712
67.385
67.3977
67.4094
67.4202
67.43
67.439
67.4472
67.4545
67.4611
67.467
67.4722
67.4767
67.4806
67.4839
67.4867
67.4891
67.491
67.4925
67.4938
67.4947
67.4954
67.4959
67.4963
67.4966
67.4967
67.4968
65.9041
65.904
65.9038
65.9034
65.9029
65.9022
65.9013
65.9001
65.8987
65.8969
65.8947
65.8922
65.8891
65.8856
65.8815
65.8769
65.8716
65.8657
65.8591
65.8517
65.8436
65.8348
65.8251
65.8145
65.8031
65.7907
65.7773
65.7629
65.7473
65.7303
65.712
65.6922
65.6767
65.667
65.6571
65.6471
65.6375
65.6286
65.622
65.6177
65.6177
65.622
65.6286
65.6375
65.6471
65.6571
65.667
65.6767
65.6922
65.712
65.7303
65.7473
65.7629
65.7773
65.7907
65.8031
65.8145
65.8251
65.8348
65.8436
65.8517
65.8591
65.8657
65.8716
65.8769
65.8815
65.8856
65.8891
65.8922
65.8947
65.8969
65.8987
65.9001
65.9013
65.9022
65.9029
65.9034
65.9038
65.904
65.9041
64.3116
64.3114
64.3111
64.3107
64.31
64.3092
64.3081
64.3067
64.3051
64.3031
64.3008
64.298
64.2948
64.2912
64.287
64.2822
64.2769
64.2709
64.2643
64.257
64.249
64.2403
64.2308
64.2205
64.2094
64.1974
64.1845
64.1707
64.1558
64.1398
64.1226
64.1041
64.0898
64.0807
64.0715
64.062
64.0526
64.0435
64.038
64.0338
64.0338
64.038
64.0435
64.0526
64.062
64.0715
64.0807
64.0898
64.1041
64.1226
64.1398
64.1558
64.1707
64.1845
64.1974
64.2094
64.2205
64.2308
64.2403
64.249
64.257
64.2643
64.2709
64.2769
64.2822
64.287
64.2912
64.2948
64.298
64.3008
64.3031
64.3051
64.3067
64.3081
64.3092
64.31
64.3107
64.3111
64.3114
64.3116
62.7192
62.719
62.7186
62.7181
62.7173
62.7164
62.7152
62.7137
62.7119
62.7097
62.7072
62.7044
62.701
62.6972
62.693
62.6882
62.6828
62.6768
62.6703
62.6631
62.6552
62.6466
62.6374
62.6274
62.6166
62.6051
62.5927
62.5795
62.5654
62.5504
62.5344
62.5173
62.5041
62.4956
62.4867
62.4769
62.4659
62.4526
62.4404
62.4379
62.4379
62.4404
62.4526
62.4659
62.4769
62.4867
62.4956
62.5041
62.5173
62.5344
62.5504
62.5654
62.5795
62.5927
62.6051
62.6166
62.6274
62.6374
62.6466
62.6552
62.6631
62.6703
62.6768
62.6828
62.6882
62.693
62.6972
62.701
62.7044
62.7072
62.7097
62.7119
62.7137
62.7152
62.7164
62.7173
62.7181
62.7186
62.719
62.7192
61.1271
61.1269
61.1265
61.1259
61.1251
61.124
61.1227
61.1211
61.1192
61.1169
61.1143
61.1113
61.1079
61.104
61.0997
61.0949
61.0895
61.0836
61.077
61.0699
61.0622
61.0539
61.0449
61.0352
61.0248
61.0137
61.002
60.9894
60.9762
60.9622
60.9475
60.9321
60.9205
60.9132
60.9058
60.8984
60.8912
60.8845
60.8791
60.8767
60.8767
60.8791
60.8845
60.8912
60.8984
60.9058
60.9132
60.9205
60.9321
60.9475
60.9622
60.9762
60.9894
61.002
61.0137
61.0248
61.0352
61.0449
61.0539
61.0622
61.0699
61.077
61.0836
61.0895
61.0949
61.0997
61.104
61.1079
61.1113
61.1143
61.1169
61.1192
61.1211
61.1227
61.124
61.1251
61.1259
61.1265
61.1269
61.1271
59.5353
59.5351
59.5347
59.534
59.5331
59.532
59.5305
59.5288
59.5268
59.5245
59.5218
59.5187
59.5152
59.5113
59.5069
59.5021
59.4967
59.4909
59.4844
59.4775
59.4699
59.4618
59.453
59.4437
59.4337
59.4231
59.4119
59.4001
59.3877
59.3747
59.3613
59.3475
59.3374
59.3312
59.3251
59.3193
59.3137
59.3087
59.3043
59.3019
59.3019
59.3043
59.3087
59.3137
59.3193
59.3251
59.3312
59.3374
59.3475
59.3613
59.3747
59.3877
59.4001
59.4119
59.4231
59.4337
59.4437
59.453
59.4618
59.4699
59.4775
59.4844
59.4909
59.4967
59.5021
59.5069
59.5113
59.5152
59.5187
59.5218
59.5245
59.5268
59.5288
59.5305
59.532
59.5331
59.534
59.5347
59.5351
59.5353
57.9437
57.9435
57.943
57.9423
57.9414
57.9402
57.9387
57.9369
57.9348
57.9324
57.9296
57.9265
57.923
57.919
57.9146
57.9098
57.9045
57.8987
57.8924
57.8855
57.8782
57.8703
57.8618
57.8528
57.8432
57.8331
57.8225
57.8114
57.7997
57.7877
57.7754
57.763
57.7541
57.7487
57.7435
57.7385
57.7337
57.7292
57.7251
57.7228
57.7228
57.7251
57.7292
57.7337
57.7385
57.7435
57.7487
57.7541
57.763
57.7754
57.7877
57.7997
57.8114
57.8225
57.8331
57.8432
57.8528
57.8618
57.8703
57.8782
57.8855
57.8924
57.8987
57.9045
57.9098
57.9146
57.919
57.923
57.9265
57.9296
57.9324
57.9348
57.9369
57.9387
57.9402
57.9414
57.9423
57.943
57.9435
57.9437
56.3523
56.3521
56.3516
56.3509
56.3499
56.3486
56.3471
56.3453
56.3431
56.3407
56.3379
56.3347
56.3311
56.3272
56.3228
56.318
56.3128
56.307
56.3008
56.2942
56.287
56.2793
56.2711
56.2625
56.2533
56.2437
56.2336
56.2231
56.2122
56.2011
56.1897
56.1784
56.1704
56.1656
56.1608
56.1563
56.1519
56.1478
56.1438
56.1416
56.1416
56.1438
56.1478
56.1519
56.1563
56.1608
56.1656
56.1704
56.1784
56.1897
56.2011
56.2122
56.2231
56.2336
56.2437
56.2533
56.2625
56.2711
56.2793
56.287
56.2942
56.3008
56.307
56.3128
56.318
56.3228
56.3272
56.3311
56.3347
56.3379
56.3407
56.3431
56.3453
56.3471
56.3486
56.3499
56.3509
56.3516
56.3521
56.3523
54.7612
54.7609
54.7604
54.7597
54.7587
54.7574
54.7558
54.7539
54.7518
54.7493
54.7464
54.7433
54.7397
54.7358
54.7314
54.7267
54.7215
54.7159
54.7098
54.7033
54.6963
54.6889
54.681
54.6726
54.6638
54.6547
54.6451
54.6351
54.6249
54.6145
54.604
54.5936
54.5862
54.5817
54.5774
54.5731
54.569
54.5651
54.5613
54.559
54.559
54.5613
54.5651
54.569
54.5731
54.5774
54.5817
54.5862
54.5936
54.604
54.6145
54.6249
54.6351
54.6451
54.6547
54.6638
54.6726
54.681
54.6889
54.6963
54.7033
54.7098
54.7159
54.7215
54.7267
54.7314
54.7358
54.7397
54.7433
54.7464
54.7493
54.7518
54.7539
54.7558
54.7574
54.7587
54.7597
54.7604
54.7609
54.7612
53.1703
53.17
53.1695
53.1688
53.1677
53.1664
53.1648
53.1629
53.1607
53.1582
53.1554
53.1522
53.1487
53.1447
53.1404
53.1357
53.1306
53.1251
53.1192
53.1129
53.1061
53.0989
53.0912
53.0832
53.0748
53.066
53.0569
53.0475
53.0379
53.0281
53.0183
53.0085
53.0016
52.9974
52.9933
52.9893
52.9854
52.9816
52.9778
52.9756
52.9756