/*--------------------------------*- C++ -*----------------------------------*\
  =========                 |
  \\      /  F ield         | OpenFOAM: The Open Source CFD Toolbox
   \\    /   O peration     | Website:  https://openfoam.org
    \\  /    A nd           | Version:  10
     \\/     M anipulation  |
\*---------------------------------------------------------------------------*/
FoamFile
{
    format      ascii;
    class       volVectorField;
    location    "18400";
    object      Ub;
}
// * * * * * * * * * * * * * * * * * * * * * * * * * * * * * * * * * * * * * //

dimensions      [0 1 -1 0 0 0 0];

internalField   nonuniform List<vector> 
6400
(
(-1.05236e-20 -9.87899e-16 0)
(-3.2091e-20 -9.87899e-16 0)
(-5.53598e-20 -9.87899e-16 0)
(-8.20339e-20 -9.87898e-16 0)
(-1.1513e-19 -9.87897e-16 0)
(-1.60438e-19 -9.87896e-16 0)
(-4.55695e-10 -9.88475e-16 0)
(-5.15911e-05 -8.60316e-07 0)
(-0.000108866 -1.55994e-06 0)
(-0.000116045 -7.06004e-08 0)
(-0.000117191 -2.32004e-07 0)
(-0.000115064 -4.59352e-07 0)
(-0.000116895 6.65293e-07 0)
(-0.000120112 -1.3209e-07 0)
(-0.000119326 -1.21481e-07 0)
(-0.00011815 -1.94091e-07 0)
(-0.000116571 -1.91356e-07 0)
(-0.000113747 -4.38062e-07 0)
(-0.000110995 -1.69874e-07 0)
(-0.000110573 4.07562e-08 0)
(-0.000110687 -5.67435e-08 0)
(-0.00011031 -5.55356e-08 0)
(-0.000110149 -1.01708e-08 0)
(-0.000109907 -6.94611e-08 0)
(-0.000109233 -9.60624e-08 0)
(-0.000108246 -1.31341e-07 0)
(-0.000106758 -1.96463e-07 0)
(-0.000105105 -1.63416e-07 0)
(-0.000103714 -1.42365e-07 0)
(-0.0001022 -1.8726e-07 0)
(-9.97679e-05 -3.28326e-07 0)
(-9.51729e-05 -6.2609e-07 0)
(-8.97934e-05 -1.08391e-06 0)
(-8.42977e-05 -1.44895e-06 0)
(-7.70278e-05 -1.89512e-06 0)
(-6.76696e-05 -2.40386e-06 0)
(-5.60271e-05 -2.93966e-06 0)
(-4.21041e-05 -3.44678e-06 0)
(-2.61883e-05 -3.85097e-06 0)
(-8.89422e-06 -4.07705e-06 0)
(8.89422e-06 -4.07705e-06 0)
(2.61883e-05 -3.85097e-06 0)
(4.21041e-05 -3.44678e-06 0)
(5.60271e-05 -2.93966e-06 0)
(6.76696e-05 -2.40386e-06 0)
(7.70278e-05 -1.89512e-06 0)
(8.42977e-05 -1.44895e-06 0)
(8.97934e-05 -1.08391e-06 0)
(9.51729e-05 -6.2609e-07 0)
(9.97679e-05 -3.28326e-07 0)
(0.0001022 -1.8726e-07 0)
(0.000103714 -1.42365e-07 0)
(0.000105105 -1.63416e-07 0)
(0.000106758 -1.96463e-07 0)
(0.000108246 -1.31341e-07 0)
(0.000109233 -9.60624e-08 0)
(0.000109907 -6.94611e-08 0)
(0.000110149 -1.01708e-08 0)
(0.00011031 -5.55356e-08 0)
(0.000110687 -5.67435e-08 0)
(0.000110573 4.07562e-08 0)
(0.000110995 -1.69874e-07 0)
(0.000113747 -4.38062e-07 0)
(0.000116571 -1.91356e-07 0)
(0.00011815 -1.94091e-07 0)
(0.000119326 -1.21481e-07 0)
(0.000120112 -1.3209e-07 0)
(0.000116895 6.65293e-07 0)
(0.000115064 -4.59352e-07 0)
(0.000117191 -2.32004e-07 0)
(0.000116045 -7.06004e-08 0)
(0.000108866 -1.55994e-06 0)
(5.15911e-05 -8.60316e-07 0)
(4.55695e-10 -9.88475e-16 0)
(1.60438e-19 -9.87896e-16 0)
(1.1513e-19 -9.87897e-16 0)
(8.20339e-20 -9.87898e-16 0)
(5.53598e-20 -9.87899e-16 0)
(3.2091e-20 -9.87899e-16 0)
(1.05236e-20 -9.87899e-16 0)
(-1.0501e-20 -9.87892e-16 0)
(-3.20171e-20 -9.87892e-16 0)
(-5.52121e-20 -9.87891e-16 0)
(-8.17553e-20 -9.87889e-16 0)
(-1.14605e-19 -9.87887e-16 0)
(-1.60632e-19 -9.87882e-16 0)
(-2.67976e-19 -9.87876e-16 0)
(-7.46176e-15 -9.87345e-16 0)
(-1.94565e-05 -1.89447e-11 0)
(-7.26995e-05 1.14893e-07 0)
(-0.00010869 -2.13172e-07 0)
(-0.000109593 -1.22641e-06 0)
(-0.000112493 2.2728e-06 0)
(-0.000116342 -3.33414e-07 0)
(-0.000115757 -2.84841e-07 0)
(-0.000114842 -5.3147e-07 0)
(-0.00011351 -5.19194e-07 0)
(-0.00011083 -1.32127e-06 0)
(-0.000108152 -4.77346e-07 0)
(-0.000107901 1.76261e-07 0)
(-0.000108127 -1.46053e-07 0)
(-0.000107788 -1.42875e-07 0)
(-0.000107695 9.85307e-10 0)
(-0.000107519 -1.8988e-07 0)
(-0.000106894 -2.71518e-07 0)
(-0.000105971 -3.80563e-07 0)
(-0.000104531 -5.8824e-07 0)
(-0.000102921 -4.8267e-07 0)
(-0.000101599 -4.16456e-07 0)
(-0.000100171 -5.54022e-07 0)
(-9.7859e-05 -9.85864e-07 0)
(-9.34745e-05 -1.89397e-06 0)
(-8.83211e-05 -3.2986e-06 0)
(-8.30159e-05 -4.4222e-06 0)
(-7.59604e-05 -5.79917e-06 0)
(-6.68308e-05 -7.37251e-06 0)
(-5.54177e-05 -9.0338e-06 0)
(-4.17067e-05 -1.06111e-05 0)
(-2.59712e-05 -1.1872e-05 0)
(-8.82622e-06 -1.25788e-05 0)
(8.82622e-06 -1.25788e-05 0)
(2.59712e-05 -1.1872e-05 0)
(4.17067e-05 -1.06111e-05 0)
(5.54177e-05 -9.0338e-06 0)
(6.68308e-05 -7.37251e-06 0)
(7.59604e-05 -5.79917e-06 0)
(8.30159e-05 -4.4222e-06 0)
(8.83211e-05 -3.2986e-06 0)
(9.34745e-05 -1.89397e-06 0)
(9.7859e-05 -9.85864e-07 0)
(0.000100171 -5.54022e-07 0)
(0.000101599 -4.16456e-07 0)
(0.000102921 -4.8267e-07 0)
(0.000104531 -5.8824e-07 0)
(0.000105971 -3.80563e-07 0)
(0.000106894 -2.71518e-07 0)
(0.000107519 -1.8988e-07 0)
(0.000107695 9.85307e-10 0)
(0.000107788 -1.42875e-07 0)
(0.000108127 -1.46053e-07 0)
(0.000107901 1.76261e-07 0)
(0.000108152 -4.77346e-07 0)
(0.00011083 -1.32127e-06 0)
(0.00011351 -5.19194e-07 0)
(0.000114842 -5.3147e-07 0)
(0.000115757 -2.84841e-07 0)
(0.000116342 -3.33414e-07 0)
(0.000112493 2.2728e-06 0)
(0.000109593 -1.22641e-06 0)
(0.00010869 -2.13172e-07 0)
(7.26995e-05 1.14893e-07 0)
(1.94565e-05 -1.89447e-11 0)
(7.46176e-15 -9.87345e-16 0)
(2.67976e-19 -9.87876e-16 0)
(1.60632e-19 -9.87882e-16 0)
(1.14605e-19 -9.87887e-16 0)
(8.17553e-20 -9.87889e-16 0)
(5.52121e-20 -9.87891e-16 0)
(3.20171e-20 -9.87892e-16 0)
(1.0501e-20 -9.87892e-16 0)
(-1.04495e-20 -9.87887e-16 0)
(-3.18488e-20 -9.87886e-16 0)
(-5.48758e-20 -9.87885e-16 0)
(-8.11216e-20 -9.87883e-16 0)
(-1.13343e-19 -9.87878e-16 0)
(-1.57769e-19 -9.87869e-16 0)
(-2.38132e-19 -9.87845e-16 0)
(-2.11775e-19 -9.8764e-16 0)
(-1.53009e-19 -9.87702e-16 0)
(-4.89448e-10 -8.14737e-16 0)
(-4.24424e-05 -6.13594e-08 0)
(-9.24352e-05 -8.15718e-07 0)
(-0.000106514 4.48581e-06 0)
(-0.000112801 -6.06049e-07 0)
(-0.000112634 -4.05233e-07 0)
(-0.000112138 -8.87191e-07 0)
(-0.000111158 -8.16065e-07 0)
(-0.000108557 -2.35276e-06 0)
(-0.00010581 -7.9502e-07 0)
(-0.000105836 3.74164e-07 0)
(-0.000106227 -2.60615e-07 0)
(-0.000105874 -2.46191e-07 0)
(-0.00010586 2.8713e-08 0)
(-0.000105762 -3.28275e-07 0)
(-0.000105167 -4.62135e-07 0)
(-0.000104308 -6.47096e-07 0)
(-0.000102881 -1.03098e-06 0)
(-0.000101274 -8.28559e-07 0)
(-0.000100029 -7.05122e-07 0)
(-9.87181e-05 -9.37975e-07 0)
(-9.65751e-05 -1.67384e-06 0)
(-9.25047e-05 -3.21016e-06 0)
(-8.76898e-05 -5.62104e-06 0)
(-8.26487e-05 -7.56443e-06 0)
(-7.58601e-05 -9.96078e-06 0)
(-6.69695e-05 -1.27115e-05 0)
(-5.57306e-05 -1.56328e-05 0)
(-4.20852e-05 -1.84267e-05 0)
(-2.62784e-05 -2.06757e-05 0)
(-8.94418e-06 -2.19419e-05 0)
(8.94418e-06 -2.19419e-05 0)
(2.62784e-05 -2.06757e-05 0)
(4.20852e-05 -1.84267e-05 0)
(5.57306e-05 -1.56328e-05 0)
(6.69695e-05 -1.27115e-05 0)
(7.58601e-05 -9.96078e-06 0)
(8.26487e-05 -7.56443e-06 0)
(8.76898e-05 -5.62104e-06 0)
(9.25047e-05 -3.21016e-06 0)
(9.65751e-05 -1.67384e-06 0)
(9.87181e-05 -9.37975e-07 0)
(0.000100029 -7.05122e-07 0)
(0.000101274 -8.28559e-07 0)
(0.000102881 -1.03098e-06 0)
(0.000104308 -6.47096e-07 0)
(0.000105167 -4.62135e-07 0)
(0.000105762 -3.28275e-07 0)
(0.00010586 2.8713e-08 0)
(0.000105874 -2.46191e-07 0)
(0.000106227 -2.60615e-07 0)
(0.000105836 3.74164e-07 0)
(0.00010581 -7.9502e-07 0)
(0.000108557 -2.35276e-06 0)
(0.000111158 -8.16065e-07 0)
(0.000112138 -8.87191e-07 0)
(0.000112634 -4.05233e-07 0)
(0.000112801 -6.06049e-07 0)
(0.000106514 4.48581e-06 0)
(9.24352e-05 -8.15718e-07 0)
(4.24424e-05 -6.13594e-08 0)
(4.89448e-10 -8.14737e-16 0)
(1.53009e-19 -9.87702e-16 0)
(2.11775e-19 -9.8764e-16 0)
(2.38132e-19 -9.87845e-16 0)
(1.57769e-19 -9.87869e-16 0)
(1.13343e-19 -9.87878e-16 0)
(8.11216e-20 -9.87883e-16 0)
(5.48758e-20 -9.87885e-16 0)
(3.18488e-20 -9.87886e-16 0)
(1.04495e-20 -9.87887e-16 0)
(-1.03617e-20 -9.87882e-16 0)
(-3.15621e-20 -9.87881e-16 0)
(-5.43051e-20 -9.87879e-16 0)
(-8.00518e-20 -9.87876e-16 0)
(-1.11194e-19 -9.87869e-16 0)
(-1.52375e-19 -9.87856e-16 0)
(-2.1209e-19 -9.87822e-16 0)
(-1.95307e-19 -9.87673e-16 0)
(-1.51303e-19 -9.87701e-16 0)
(-1.48737e-19 -9.8765e-16 0)
(-4.39826e-20 -9.8723e-16 0)
(-1.44892e-08 -7.50524e-16 0)
(-4.85817e-05 2.91245e-06 0)
(-0.000101321 -3.78731e-07 0)
(-0.000107236 -2.2312e-07 0)
(-0.000108825 -1.19299e-06 0)
(-0.000108788 -9.72783e-07 0)
(-0.000106367 -3.62798e-06 0)
(-0.000103445 -1.0891e-06 0)
(-0.000103962 7.18374e-07 0)
(-0.000104621 -4.14465e-07 0)
(-0.000104193 -3.65641e-07 0)
(-0.000104293 1.06317e-07 0)
(-0.000104304 -4.86752e-07 0)
(-0.000103722 -6.60395e-07 0)
(-0.000102945 -9.1872e-07 0)
(-0.000101499 -1.54459e-06 0)
(-9.98523e-05 -1.19523e-06 0)
(-9.87101e-05 -9.92791e-07 0)
(-9.75643e-05 -1.31992e-06 0)
(-9.56614e-05 -2.36633e-06 0)
(-9.20562e-05 -4.51858e-06 0)
(-8.77522e-05 -7.98476e-06 0)
(-8.31015e-05 -1.08177e-05 0)
(-7.66883e-05 -1.43491e-05 0)
(-6.81012e-05 -1.84331e-05 0)
(-5.70282e-05 -2.28133e-05 0)
(-4.33274e-05 -2.7058e-05 0)
(-2.71869e-05 -3.05178e-05 0)
(-9.27859e-06 -3.24804e-05 0)
(9.27859e-06 -3.24804e-05 0)
(2.71869e-05 -3.05178e-05 0)
(4.33274e-05 -2.7058e-05 0)
(5.70282e-05 -2.28133e-05 0)
(6.81012e-05 -1.84331e-05 0)
(7.66883e-05 -1.43491e-05 0)
(8.31015e-05 -1.08177e-05 0)
(8.77522e-05 -7.98476e-06 0)
(9.20562e-05 -4.51858e-06 0)
(9.56614e-05 -2.36633e-06 0)
(9.75643e-05 -1.31992e-06 0)
(9.87101e-05 -9.92791e-07 0)
(9.98523e-05 -1.19523e-06 0)
(0.000101499 -1.54459e-06 0)
(0.000102945 -9.1872e-07 0)
(0.000103722 -6.60395e-07 0)
(0.000104304 -4.86752e-07 0)
(0.000104293 1.06317e-07 0)
(0.000104193 -3.65641e-07 0)
(0.000104621 -4.14465e-07 0)
(0.000103962 7.18374e-07 0)
(0.000103445 -1.0891e-06 0)
(0.000106367 -3.62798e-06 0)
(0.000108788 -9.72783e-07 0)
(0.000108825 -1.19299e-06 0)
(0.000107236 -2.2312e-07 0)
(0.000101321 -3.78731e-07 0)
(4.85817e-05 2.91245e-06 0)
(1.44892e-08 -7.50524e-16 0)
(4.39826e-20 -9.8723e-16 0)
(1.48737e-19 -9.8765e-16 0)
(1.51303e-19 -9.87701e-16 0)
(1.95307e-19 -9.87673e-16 0)
(2.1209e-19 -9.87822e-16 0)
(1.52375e-19 -9.87856e-16 0)
(1.11194e-19 -9.87869e-16 0)
(8.00518e-20 -9.87876e-16 0)
(5.43051e-20 -9.87879e-16 0)
(3.15621e-20 -9.87881e-16 0)
(1.03617e-20 -9.87882e-16 0)
(-1.02293e-20 -9.87876e-16 0)
(-3.11313e-20 -9.87875e-16 0)
(-5.34527e-20 -9.87872e-16 0)
(-7.84715e-20 -9.87868e-16 0)
(-1.0808e-19 -9.8786e-16 0)
(-1.45062e-19 -9.87844e-16 0)
(-1.89295e-19 -9.87806e-16 0)
(-1.79298e-19 -9.87697e-16 0)
(-1.46401e-19 -9.87699e-16 0)
(-1.3353e-19 -9.87657e-16 0)
(-6.42407e-20 -9.87607e-16 0)
(-1.19653e-19 -9.87764e-16 0)
(-3.1146e-20 -9.85781e-16 0)
(-5.41906e-09 -7.39472e-16 0)
(-4.50518e-05 -2.08815e-09 0)
(-9.53941e-05 -6.60505e-07 0)
(-0.000103252 -5.26182e-07 0)
(-0.000103078 -5.25312e-06 0)
(-0.000100371 -1.27708e-06 0)
(-0.00010194 1.35314e-06 0)
(-0.000103102 -6.48137e-07 0)
(-0.000102533 -5.11435e-07 0)
(-0.000102836 2.83697e-07 0)
(-0.000103018 -6.82734e-07 0)
(-0.000102429 -8.6235e-07 0)
(-0.000101779 -1.17958e-06 0)
(-0.000100275 -2.17281e-06 0)
(-9.85274e-05 -1.57829e-06 0)
(-9.75311e-05 -1.26183e-06 0)
(-9.66169e-05 -1.67743e-06 0)
(-9.50386e-05 -3.03172e-06 0)
(-9.20915e-05 -5.73359e-06 0)
(-8.8537e-05 -1.02747e-05 0)
(-8.44667e-05 -1.40728e-05 0)
(-7.86003e-05 -1.88912e-05 0)
(-7.04392e-05 -2.45187e-05 0)
(-5.95728e-05 -3.06462e-05 0)
(-4.57072e-05 -3.67146e-05 0)
(-2.89099e-05 -4.17637e-05 0)
(-9.91037e-06 -4.46614e-05 0)
(9.91037e-06 -4.46614e-05 0)
(2.89099e-05 -4.17637e-05 0)
(4.57072e-05 -3.67146e-05 0)
(5.95728e-05 -3.06462e-05 0)
(7.04392e-05 -2.45187e-05 0)
(7.86003e-05 -1.88912e-05 0)
(8.44667e-05 -1.40728e-05 0)
(8.8537e-05 -1.02747e-05 0)
(9.20915e-05 -5.73359e-06 0)
(9.50386e-05 -3.03172e-06 0)
(9.66169e-05 -1.67743e-06 0)
(9.75311e-05 -1.26183e-06 0)
(9.85274e-05 -1.57829e-06 0)
(0.000100275 -2.17281e-06 0)
(0.000101779 -1.17958e-06 0)
(0.000102429 -8.6235e-07 0)
(0.000103018 -6.82734e-07 0)
(0.000102836 2.83697e-07 0)
(0.000102533 -5.11435e-07 0)
(0.000103102 -6.48137e-07 0)
(0.00010194 1.35314e-06 0)
(0.000100371 -1.27708e-06 0)
(0.000103078 -5.25312e-06 0)
(0.000103252 -5.26182e-07 0)
(9.53941e-05 -6.60505e-07 0)
(4.50518e-05 -2.08815e-09 0)
(5.41906e-09 -7.39472e-16 0)
(3.1146e-20 -9.85781e-16 0)
(1.19653e-19 -9.87764e-16 0)
(6.42407e-20 -9.87607e-16 0)
(1.3353e-19 -9.87657e-16 0)
(1.46401e-19 -9.87699e-16 0)
(1.79298e-19 -9.87697e-16 0)
(1.89295e-19 -9.87806e-16 0)
(1.45062e-19 -9.87844e-16 0)
(1.0808e-19 -9.8786e-16 0)
(7.84715e-20 -9.87868e-16 0)
(5.34527e-20 -9.87872e-16 0)
(3.11313e-20 -9.87875e-16 0)
(1.02293e-20 -9.87876e-16 0)
(-1.00439e-20 -9.8787e-16 0)
(-3.053e-20 -9.87868e-16 0)
(-5.2273e-20 -9.87865e-16 0)
(-7.63217e-20 -9.8786e-16 0)
(-1.03995e-19 -9.8785e-16 0)
(-1.36382e-19 -9.87832e-16 0)
(-1.69215e-19 -9.87794e-16 0)
(-1.63816e-19 -9.87714e-16 0)
(-1.39206e-19 -9.877e-16 0)
(-1.21968e-19 -9.87665e-16 0)
(-7.51464e-20 -9.87634e-16 0)
(-9.77851e-20 -9.87713e-16 0)
(-3.77228e-20 -9.87519e-16 0)
(-1.86143e-20 -9.87743e-16 0)
(2.8881e-20 -9.86549e-16 0)
(-4.40181e-11 -7.67314e-16 0)
(-2.88122e-05 -2.68414e-08 0)
(-7.28498e-05 -3.08181e-06 0)
(-9.13261e-05 -6.64116e-07 0)
(-9.79472e-05 2.68171e-06 0)
(-0.000100928 -9.93092e-07 0)
(-0.000100429 -6.74439e-07 0)
(-0.000101248 6.70797e-07 0)
(-0.000101779 -9.48592e-07 0)
(-0.00010117 -1.05545e-06 0)
(-0.000100756 -1.39038e-06 0)
(-9.91468e-05 -2.99582e-06 0)
(-9.72042e-05 -1.96335e-06 0)
(-9.64287e-05 -1.48325e-06 0)
(-9.58328e-05 -1.97725e-06 0)
(-9.46673e-05 -3.62964e-06 0)
(-9.26095e-05 -6.72182e-06 0)
(-9.0131e-05 -1.22908e-05 0)
(-8.69285e-05 -1.71284e-05 0)
(-8.18718e-05 -2.34419e-05 0)
(-7.43454e-05 -3.08859e-05 0)
(-6.38173e-05 -3.91668e-05 0)
(-4.97168e-05 -4.76608e-05 0)
(-3.1842e-05 -5.49652e-05 0)
(-1.09905e-05 -5.92266e-05 0)
(1.09905e-05 -5.92266e-05 0)
(3.1842e-05 -5.49652e-05 0)
(4.97168e-05 -4.76608e-05 0)
(6.38173e-05 -3.91668e-05 0)
(7.43454e-05 -3.08859e-05 0)
(8.18718e-05 -2.34419e-05 0)
(8.69285e-05 -1.71284e-05 0)
(9.0131e-05 -1.22908e-05 0)
(9.26095e-05 -6.72182e-06 0)
(9.46673e-05 -3.62964e-06 0)
(9.58328e-05 -1.97725e-06 0)
(9.64287e-05 -1.48325e-06 0)
(9.72042e-05 -1.96335e-06 0)
(9.91468e-05 -2.99582e-06 0)
(0.000100756 -1.39038e-06 0)
(0.00010117 -1.05545e-06 0)
(0.000101779 -9.48592e-07 0)
(0.000101248 6.70797e-07 0)
(0.000100429 -6.74439e-07 0)
(0.000100928 -9.93092e-07 0)
(9.79472e-05 2.68171e-06 0)
(9.13261e-05 -6.64116e-07 0)
(7.28498e-05 -3.08181e-06 0)
(2.88122e-05 -2.68414e-08 0)
(4.40181e-11 -7.67314e-16 0)
(-2.8881e-20 -9.86549e-16 0)
(1.86143e-20 -9.87743e-16 0)
(3.77228e-20 -9.87519e-16 0)
(9.77851e-20 -9.87713e-16 0)
(7.51464e-20 -9.87634e-16 0)
(1.21968e-19 -9.87665e-16 0)
(1.39206e-19 -9.877e-16 0)
(1.63816e-19 -9.87714e-16 0)
(1.69215e-19 -9.87794e-16 0)
(1.36382e-19 -9.87832e-16 0)
(1.03995e-19 -9.8785e-16 0)
(7.63217e-20 -9.8786e-16 0)
(5.2273e-20 -9.87865e-16 0)
(3.053e-20 -9.87868e-16 0)
(1.00439e-20 -9.8787e-16 0)
(-9.79712e-21 -9.87863e-16 0)
(-2.97333e-20 -9.87861e-16 0)
(-5.07274e-20 -9.87858e-16 0)
(-7.3568e-20 -9.87852e-16 0)
(-9.90006e-20 -9.87841e-16 0)
(-1.26814e-19 -9.87821e-16 0)
(-1.51363e-19 -9.87785e-16 0)
(-1.48932e-19 -9.87725e-16 0)
(-1.30511e-19 -9.87703e-16 0)
(-1.12517e-19 -9.87674e-16 0)
(-7.95259e-20 -9.87652e-16 0)
(-8.28274e-20 -9.87687e-16 0)
(-4.04665e-20 -9.8758e-16 0)
(-1.7309e-20 -9.87696e-16 0)
(1.84579e-20 -9.87577e-16 0)
(2.92682e-20 -9.87749e-16 0)
(4.38111e-20 -9.87473e-16 0)
(5.87161e-20 -8.4244e-16 0)
(-6.45972e-08 -7.21639e-16 0)
(-4.20899e-05 1.79805e-06 0)
(-8.79448e-05 -5.97415e-07 0)
(-9.36775e-05 -3.7832e-07 0)
(-9.78915e-05 1.63513e-06 0)
(-9.98993e-05 -1.30146e-06 0)
(-9.95457e-05 -1.18486e-06 0)
(-9.97347e-05 -1.44594e-06 0)
(-9.80111e-05 -4.16678e-06 0)
(-9.57411e-05 -2.30775e-06 0)
(-9.53383e-05 -1.60909e-06 0)
(-9.51815e-05 -2.17132e-06 0)
(-9.45032e-05 -4.11988e-06 0)
(-9.35895e-05 -7.28413e-06 0)
(-9.26363e-05 -1.3687e-05 0)
(-9.07555e-05 -1.96166e-05 0)
(-8.6909e-05 -2.77492e-05 0)
(-8.03529e-05 -3.73246e-05 0)
(-7.04916e-05 -4.82853e-05 0)
(-5.62271e-05 -6.01997e-05 0)
(-3.67162e-05 -7.1002e-05 0)
(-1.28033e-05 -7.74323e-05 0)
(1.28033e-05 -7.74323e-05 0)
(3.67162e-05 -7.1002e-05 0)
(5.62271e-05 -6.01997e-05 0)
(7.04916e-05 -4.82853e-05 0)
(8.03529e-05 -3.73246e-05 0)
(8.6909e-05 -2.77492e-05 0)
(9.07555e-05 -1.96166e-05 0)
(9.26363e-05 -1.3687e-05 0)
(9.35895e-05 -7.28413e-06 0)
(9.45032e-05 -4.11988e-06 0)
(9.51815e-05 -2.17132e-06 0)
(9.53383e-05 -1.60909e-06 0)
(9.57411e-05 -2.30775e-06 0)
(9.80111e-05 -4.16678e-06 0)
(9.97347e-05 -1.44594e-06 0)
(9.95457e-05 -1.18486e-06 0)
(9.98993e-05 -1.30146e-06 0)
(9.78915e-05 1.63513e-06 0)
(9.36775e-05 -3.7832e-07 0)
(8.79448e-05 -5.97415e-07 0)
(4.20899e-05 1.79805e-06 0)
(6.45972e-08 -7.21639e-16 0)
(-5.87161e-20 -8.4244e-16 0)
(-4.38111e-20 -9.87473e-16 0)
(-2.92682e-20 -9.87749e-16 0)
(-1.84579e-20 -9.87577e-16 0)
(1.7309e-20 -9.87696e-16 0)
(4.04665e-20 -9.8758e-16 0)
(8.28274e-20 -9.87687e-16 0)
(7.95259e-20 -9.87652e-16 0)
(1.12517e-19 -9.87674e-16 0)
(1.30511e-19 -9.87703e-16 0)
(1.48932e-19 -9.87725e-16 0)
(1.51363e-19 -9.87785e-16 0)
(1.26814e-19 -9.87821e-16 0)
(9.90006e-20 -9.87841e-16 0)
(7.3568e-20 -9.87852e-16 0)
(5.07274e-20 -9.87858e-16 0)
(2.97333e-20 -9.87861e-16 0)
(9.79712e-21 -9.87863e-16 0)
(-9.48152e-21 -9.87856e-16 0)
(-2.87205e-20 -9.87854e-16 0)
(-4.87896e-20 -9.8785e-16 0)
(-7.02074e-20 -9.87843e-16 0)
(-9.32095e-20 -9.87831e-16 0)
(-1.16748e-19 -9.87812e-16 0)
(-1.35325e-19 -9.87779e-16 0)
(-1.34707e-19 -9.87733e-16 0)
(-1.20917e-19 -9.87707e-16 0)
(-1.04121e-19 -9.87682e-16 0)
(-7.95636e-20 -9.87665e-16 0)
(-7.24178e-20 -9.87675e-16 0)
(-4.09542e-20 -9.87618e-16 0)
(-1.75332e-20 -9.87675e-16 0)
(1.03029e-20 -9.87621e-16 0)
(2.2755e-20 -9.87713e-16 0)
(3.26036e-20 -9.87655e-16 0)
(2.86044e-20 -9.87768e-16 0)
(-9.54252e-20 -9.87777e-16 0)
(2.58048e-20 -9.84328e-16 0)
(1.1918e-19 -8.12738e-16 0)
(-1.99838e-07 -8.71286e-16 0)
(-4.14955e-05 1.16715e-06 0)
(-8.64493e-05 -7.49364e-07 0)
(-9.2591e-05 -6.11152e-07 0)
(-9.66963e-05 -8.57843e-07 0)
(-9.59909e-05 -5.9185e-06 0)
(-9.35891e-05 -2.45711e-06 0)
(-9.40413e-05 -1.54529e-06 0)
(-9.45715e-05 -2.18169e-06 0)
(-9.44363e-05 -4.48736e-06 0)
(-9.49078e-05 -7.13566e-06 0)
(-9.61062e-05 -1.38557e-05 0)
(-9.63282e-05 -2.08243e-05 0)
(-9.42861e-05 -3.146e-05 0)
(-8.91716e-05 -4.33732e-05 0)
(-8.07521e-05 -5.75151e-05 0)
(-6.68533e-05 -7.45409e-05 0)
(-4.49821e-05 -9.13734e-05 0)
(-1.59146e-05 -0.000101565 0)
(1.59146e-05 -0.000101565 0)
(4.49821e-05 -9.13734e-05 0)
(6.68533e-05 -7.45409e-05 0)
(8.07521e-05 -5.75151e-05 0)
(8.91716e-05 -4.33732e-05 0)
(9.42861e-05 -3.146e-05 0)
(9.63282e-05 -2.08243e-05 0)
(9.61062e-05 -1.38557e-05 0)
(9.49078e-05 -7.13566e-06 0)
(9.44363e-05 -4.48736e-06 0)
(9.45715e-05 -2.18169e-06 0)
(9.40413e-05 -1.54529e-06 0)
(9.35891e-05 -2.45711e-06 0)
(9.59909e-05 -5.9185e-06 0)
(9.66963e-05 -8.57843e-07 0)
(9.2591e-05 -6.11152e-07 0)
(8.64493e-05 -7.49364e-07 0)
(4.14955e-05 1.16715e-06 0)
(1.99838e-07 -8.71286e-16 0)
(-1.1918e-19 -8.12738e-16 0)
(-2.58048e-20 -9.84328e-16 0)
(9.54252e-20 -9.87777e-16 0)
(-2.86044e-20 -9.87768e-16 0)
(-3.26036e-20 -9.87655e-16 0)
(-2.2755e-20 -9.87713e-16 0)
(-1.03029e-20 -9.87621e-16 0)
(1.75332e-20 -9.87675e-16 0)
(4.09542e-20 -9.87618e-16 0)
(7.24178e-20 -9.87675e-16 0)
(7.95636e-20 -9.87665e-16 0)
(1.04121e-19 -9.87682e-16 0)
(1.20917e-19 -9.87707e-16 0)
(1.34707e-19 -9.87733e-16 0)
(1.35325e-19 -9.87779e-16 0)
(1.16748e-19 -9.87812e-16 0)
(9.32095e-20 -9.87831e-16 0)
(7.02074e-20 -9.87843e-16 0)
(4.87896e-20 -9.8785e-16 0)
(2.87205e-20 -9.87854e-16 0)
(9.48152e-21 -9.87856e-16 0)
(-9.09176e-21 -9.87848e-16 0)
(-2.74785e-20 -9.87846e-16 0)
(-4.64511e-20 -9.87842e-16 0)
(-6.62711e-20 -9.87834e-16 0)
(-8.67731e-20 -9.87822e-16 0)
(-1.06491e-19 -9.87803e-16 0)
(-1.20767e-19 -9.87774e-16 0)
(-1.21186e-19 -9.87737e-16 0)
(-1.10869e-19 -9.87712e-16 0)
(-9.61369e-20 -9.8769e-16 0)
(-7.68544e-20 -9.87675e-16 0)
(-6.48419e-20 -9.87674e-16 0)
(-4.02185e-20 -9.87643e-16 0)
(-1.84766e-20 -9.87669e-16 0)
(3.78867e-21 -9.87648e-16 0)
(1.60225e-20 -9.87696e-16 0)
(2.24985e-20 -9.87679e-16 0)
(1.32846e-20 -9.87739e-16 0)
(-4.87952e-20 -9.87731e-16 0)
(1.80919e-20 -9.87565e-16 0)
(6.43514e-20 -9.8776e-16 0)
(-6.21962e-20 -9.87761e-16 0)
(6.39679e-20 -9.81884e-16 0)
(1.5942e-19 -8.27593e-16 0)
(-1.03061e-09 -6.79952e-16 0)
(-2.82468e-05 -1.50049e-07 0)
(-6.79674e-05 -3.48627e-06 0)
(-8.32045e-05 -1.22621e-06 0)
(-8.91011e-05 -7.24989e-07 0)
(-9.2515e-05 -1.6947e-06 0)
(-9.3695e-05 -4.73919e-06 0)
(-9.59496e-05 -5.87592e-06 0)
(-0.000100252 -1.16976e-05 0)
(-0.000104197 -1.91019e-05 0)
(-0.000104797 -3.448e-05 0)
(-0.000101453 -4.81108e-05 0)
(-9.63431e-05 -6.51122e-05 0)
(-8.48313e-05 -9.0198e-05 0)
(-5.9763e-05 -0.000118922 0)
(-2.15221e-05 -0.000136127 0)
(2.15221e-05 -0.000136127 0)
(5.9763e-05 -0.000118922 0)
(8.48313e-05 -9.0198e-05 0)
(9.63431e-05 -6.51122e-05 0)
(0.000101453 -4.81108e-05 0)
(0.000104797 -3.448e-05 0)
(0.000104197 -1.91019e-05 0)
(0.000100252 -1.16976e-05 0)
(9.59496e-05 -5.87592e-06 0)
(9.3695e-05 -4.73919e-06 0)
(9.2515e-05 -1.6947e-06 0)
(8.91011e-05 -7.24989e-07 0)
(8.32045e-05 -1.22621e-06 0)
(6.79674e-05 -3.48627e-06 0)
(2.82468e-05 -1.50049e-07 0)
(1.03061e-09 -6.79952e-16 0)
(-1.5942e-19 -8.27593e-16 0)
(-6.39679e-20 -9.81884e-16 0)
(6.21962e-20 -9.87761e-16 0)
(-6.43514e-20 -9.8776e-16 0)
(-1.80919e-20 -9.87565e-16 0)
(4.87952e-20 -9.87731e-16 0)
(-1.32846e-20 -9.87739e-16 0)
(-2.24985e-20 -9.87679e-16 0)
(-1.60225e-20 -9.87696e-16 0)
(-3.78867e-21 -9.87648e-16 0)
(1.84766e-20 -9.87669e-16 0)
(4.02185e-20 -9.87643e-16 0)
(6.48419e-20 -9.87674e-16 0)
(7.68544e-20 -9.87675e-16 0)
(9.61369e-20 -9.8769e-16 0)
(1.10869e-19 -9.87712e-16 0)
(1.21186e-19 -9.87737e-16 0)
(1.20767e-19 -9.87774e-16 0)
(1.06491e-19 -9.87803e-16 0)
(8.67731e-20 -9.87822e-16 0)
(6.62711e-20 -9.87834e-16 0)
(4.64511e-20 -9.87842e-16 0)
(2.74785e-20 -9.87846e-16 0)
(9.09176e-21 -9.87848e-16 0)
(-8.62564e-21 -9.8784e-16 0)
(-2.60049e-20 -9.87838e-16 0)
(-4.37252e-20 -9.87834e-16 0)
(-6.18241e-20 -9.87826e-16 0)
(-7.98625e-20 -9.87814e-16 0)
(-9.62748e-20 -9.87796e-16 0)
(-1.07432e-19 -9.8777e-16 0)
(-1.08396e-19 -9.87741e-16 0)
(-1.00688e-19 -9.87717e-16 0)
(-8.82449e-20 -9.87697e-16 0)
(-7.25012e-20 -9.87683e-16 0)
(-5.89293e-20 -9.87677e-16 0)
(-3.8864e-20 -9.8766e-16 0)
(-1.96108e-20 -9.8767e-16 0)
(-1.44983e-21 -9.87664e-16 0)
(9.7323e-21 -9.8769e-16 0)
(1.4397e-20 -9.8769e-16 0)
(6.52859e-21 -9.87721e-16 0)
(-2.21607e-20 -9.8771e-16 0)
(1.35525e-20 -9.87632e-16 0)
(3.70321e-20 -9.87725e-16 0)
(-1.5967e-20 -9.87718e-16 0)
(5.23272e-20 -9.87574e-16 0)
(1.01159e-19 -9.87761e-16 0)
(7.6094e-21 -9.87769e-16 0)
(7.83469e-20 -9.87177e-16 0)
(1.37322e-19 -8.79604e-16 0)
(8.79627e-21 -7.55513e-16 0)
(-1.00051e-07 -7.47216e-16 0)
(-3.44593e-05 -6.30408e-07 0)
(-7.57474e-05 -2.41858e-06 0)
(-8.86668e-05 -2.45484e-06 0)
(-9.94057e-05 -4.92962e-06 0)
(-0.000112566 -8.60999e-06 0)
(-0.000117826 -3.91532e-05 0)
(-0.000115283 -4.95304e-05 0)
(-0.00011887 -6.49732e-05 0)
(-0.00011717 -0.000103275 0)
(-8.84253e-05 -0.000160175 0)
(-3.22298e-05 -0.000190665 0)
(3.22298e-05 -0.000190665 0)
(8.84253e-05 -0.000160175 0)
(0.00011717 -0.000103275 0)
(0.00011887 -6.49732e-05 0)
(0.000115283 -4.95304e-05 0)
(0.000117826 -3.91532e-05 0)
(0.000112566 -8.60999e-06 0)
(9.94057e-05 -4.92962e-06 0)
(8.86668e-05 -2.45484e-06 0)
(7.57474e-05 -2.41858e-06 0)
(3.44593e-05 -6.30408e-07 0)
(1.00051e-07 -7.47216e-16 0)
(-8.79627e-21 -7.55513e-16 0)
(-1.37322e-19 -8.79604e-16 0)
(-7.83469e-20 -9.87177e-16 0)
(-7.6094e-21 -9.87769e-16 0)
(-1.01159e-19 -9.87761e-16 0)
(-5.23272e-20 -9.87574e-16 0)
(1.5967e-20 -9.87718e-16 0)
(-3.70321e-20 -9.87725e-16 0)
(-1.35525e-20 -9.87632e-16 0)
(2.21607e-20 -9.8771e-16 0)
(-6.52859e-21 -9.87721e-16 0)
(-1.4397e-20 -9.8769e-16 0)
(-9.7323e-21 -9.8769e-16 0)
(1.44983e-21 -9.87664e-16 0)
(1.96108e-20 -9.8767e-16 0)
(3.8864e-20 -9.8766e-16 0)
(5.89293e-20 -9.87677e-16 0)
(7.25012e-20 -9.87683e-16 0)
(8.82449e-20 -9.87697e-16 0)
(1.00688e-19 -9.87717e-16 0)
(1.08396e-19 -9.87741e-16 0)
(1.07432e-19 -9.8777e-16 0)
(9.62748e-20 -9.87796e-16 0)
(7.98625e-20 -9.87814e-16 0)
(6.18241e-20 -9.87826e-16 0)
(4.37252e-20 -9.87834e-16 0)
(2.60049e-20 -9.87838e-16 0)
(8.62564e-21 -9.8784e-16 0)
(-8.08512e-21 -9.87832e-16 0)
(-2.43107e-20 -9.8783e-16 0)
(-4.06488e-20 -9.87825e-16 0)
(-5.69603e-20 -9.87817e-16 0)
(-7.26545e-20 -9.87806e-16 0)
(-8.62711e-20 -9.87789e-16 0)
(-9.51376e-20 -9.87767e-16 0)
(-9.63505e-20 -9.87743e-16 0)
(-9.06027e-20 -9.87722e-16 0)
(-8.03434e-20 -9.87704e-16 0)
(-6.72299e-20 -9.87691e-16 0)
(-5.39288e-20 -9.87682e-16 0)
(-3.71926e-20 -9.87672e-16 0)
(-2.06051e-20 -9.87675e-16 0)
(-5.59992e-21 -9.87675e-16 0)
(4.32322e-21 -9.8769e-16 0)
(8.37662e-21 -9.87694e-16 0)
(3.87891e-21 -9.8771e-16 0)
(-7.67215e-21 -9.87702e-16 0)
(1.13706e-20 -9.87666e-16 0)
(2.45534e-20 -9.87708e-16 0)
(7.00631e-21 -9.87702e-16 0)
(4.40092e-20 -9.87642e-16 0)
(6.98108e-20 -9.8773e-16 0)
(3.28087e-20 -9.87738e-16 0)
(6.64989e-20 -9.87663e-16 0)
(9.01085e-20 -9.87781e-16 0)
(2.29229e-20 -9.8781e-16 0)
(-5.74888e-20 -9.87775e-16 0)
(6.06432e-20 -9.84314e-16 0)
(1.49748e-19 -8.72621e-16 0)
(1.7912e-20 -7.56336e-16 0)
(-2.67736e-12 -6.65395e-16 0)
(-7.06947e-06 -2.81726e-09 0)
(-3.70608e-05 -2.12318e-05 0)
(-8.20709e-05 -2.45304e-05 0)
(-0.000131267 -3.08907e-05 0)
(-0.000173282 -9.13166e-05 0)
(-0.000146422 -0.000233591 0)
(-5.23279e-05 -0.000284918 0)
(5.23279e-05 -0.000284918 0)
(0.000146422 -0.000233591 0)
(0.000173282 -9.13166e-05 0)
(0.000131267 -3.08907e-05 0)
(8.20709e-05 -2.45304e-05 0)
(3.70608e-05 -2.12318e-05 0)
(7.06947e-06 -2.81726e-09 0)
(2.67736e-12 -6.65395e-16 0)
(-1.7912e-20 -7.56336e-16 0)
(-1.49748e-19 -8.72621e-16 0)
(-6.06432e-20 -9.84314e-16 0)
(5.74888e-20 -9.87775e-16 0)
(-2.29229e-20 -9.8781e-16 0)
(-9.01085e-20 -9.87781e-16 0)
(-6.64989e-20 -9.87663e-16 0)
(-3.28087e-20 -9.87738e-16 0)
(-6.98108e-20 -9.8773e-16 0)
(-4.40092e-20 -9.87642e-16 0)
(-7.00631e-21 -9.87702e-16 0)
(-2.45534e-20 -9.87708e-16 0)
(-1.13706e-20 -9.87666e-16 0)
(7.67215e-21 -9.87702e-16 0)
(-3.87891e-21 -9.8771e-16 0)
(-8.37662e-21 -9.87694e-16 0)
(-4.32322e-21 -9.8769e-16 0)
(5.59992e-21 -9.87675e-16 0)
(2.06051e-20 -9.87675e-16 0)
(3.71926e-20 -9.87672e-16 0)
(5.39288e-20 -9.87682e-16 0)
(6.72299e-20 -9.87691e-16 0)
(8.03434e-20 -9.87704e-16 0)
(9.06027e-20 -9.87722e-16 0)
(9.63505e-20 -9.87743e-16 0)
(9.51376e-20 -9.87767e-16 0)
(8.62711e-20 -9.87789e-16 0)
(7.26545e-20 -9.87806e-16 0)
(5.69603e-20 -9.87817e-16 0)
(4.06488e-20 -9.87825e-16 0)
(2.43107e-20 -9.8783e-16 0)
(8.08512e-21 -9.87832e-16 0)
(-7.47705e-21 -9.87824e-16 0)
(-2.24215e-20 -9.87822e-16 0)
(-3.72818e-20 -9.87817e-16 0)
(-5.17953e-20 -9.87809e-16 0)
(-6.53202e-20 -9.87798e-16 0)
(-7.66053e-20 -9.87783e-16 0)
(-8.37575e-20 -9.87764e-16 0)
(-8.50533e-20 -9.87744e-16 0)
(-8.07822e-20 -9.87726e-16 0)
(-7.2462e-20 -9.8771e-16 0)
(-6.14998e-20 -9.87698e-16 0)
(-4.93889e-20 -9.87689e-16 0)
(-3.53185e-20 -9.87682e-16 0)
(-2.12605e-20 -9.87682e-16 0)
(-8.75399e-21 -9.87683e-16 0)
(4.91778e-24 -9.87692e-16 0)
(4.12532e-21 -9.87697e-16 0)
(2.91273e-21 -9.87705e-16 0)
(-1.95733e-22 -9.87699e-16 0)
(1.05893e-20 -9.87685e-16 0)
(1.9319e-20 -9.87701e-16 0)
(1.71996e-20 -9.87698e-16 0)
(3.79669e-20 -9.87676e-16 0)
(5.27018e-20 -9.87717e-16 0)
(4.10036e-20 -9.87725e-16 0)
(5.62764e-20 -9.87702e-16 0)
(6.32972e-20 -9.87758e-16 0)
(2.64023e-20 -9.87777e-16 0)
(-8.13354e-21 -9.87747e-16 0)
(4.93939e-20 -9.87645e-16 0)
(9.19058e-20 -9.8778e-16 0)
(3.48602e-20 -9.87804e-16 0)
(6.83542e-21 -9.8776e-16 0)
(4.60301e-20 -9.87662e-16 0)
(7.33229e-20 -9.71043e-16 0)
(3.73126e-20 -9.29281e-16 0)
(-1.19484e-07 -4.13354e-13 0)
(-2.89867e-05 -3.99592e-05 0)
(-8.55461e-05 -0.00024709 0)
(-5.66788e-05 -0.000417059 0)
(5.66788e-05 -0.000417059 0)
(8.55461e-05 -0.00024709 0)
(2.89867e-05 -3.99592e-05 0)
(1.19484e-07 -4.13354e-13 0)
(-3.73126e-20 -9.29281e-16 0)
(-7.33229e-20 -9.71043e-16 0)
(-4.60301e-20 -9.87662e-16 0)
(-6.83542e-21 -9.8776e-16 0)
(-3.48602e-20 -9.87804e-16 0)
(-9.19058e-20 -9.8778e-16 0)
(-4.93939e-20 -9.87645e-16 0)
(8.13354e-21 -9.87747e-16 0)
(-2.64023e-20 -9.87777e-16 0)
(-6.32972e-20 -9.87758e-16 0)
(-5.62764e-20 -9.87702e-16 0)
(-4.10036e-20 -9.87725e-16 0)
(-5.27018e-20 -9.87717e-16 0)
(-3.79669e-20 -9.87676e-16 0)
(-1.71996e-20 -9.87698e-16 0)
(-1.9319e-20 -9.87701e-16 0)
(-1.05893e-20 -9.87685e-16 0)
(1.95733e-22 -9.87699e-16 0)
(-2.91273e-21 -9.87705e-16 0)
(-4.12532e-21 -9.87697e-16 0)
(-4.9177e-24 -9.87692e-16 0)
(8.75399e-21 -9.87683e-16 0)
(2.12605e-20 -9.87682e-16 0)
(3.53185e-20 -9.87682e-16 0)
(4.93889e-20 -9.87689e-16 0)
(6.14998e-20 -9.87698e-16 0)
(7.2462e-20 -9.8771e-16 0)
(8.07822e-20 -9.87726e-16 0)
(8.50533e-20 -9.87744e-16 0)
(8.37575e-20 -9.87764e-16 0)
(7.66053e-20 -9.87783e-16 0)
(6.53202e-20 -9.87798e-16 0)
(5.17953e-20 -9.87809e-16 0)
(3.72818e-20 -9.87817e-16 0)
(2.24215e-20 -9.87822e-16 0)
(7.47705e-21 -9.87824e-16 0)
(-6.81328e-21 -9.87815e-16 0)
(-2.03773e-20 -9.87813e-16 0)
(-3.37036e-20 -9.87809e-16 0)
(-4.64574e-20 -9.87801e-16 0)
(-5.80168e-20 -9.87791e-16 0)
(-6.73712e-20 -9.87778e-16 0)
(-7.32134e-20 -9.87762e-16 0)
(-7.45042e-20 -9.87745e-16 0)
(-7.13506e-20 -9.87729e-16 0)
(-6.46917e-20 -9.87715e-16 0)
(-5.5595e-20 -9.87704e-16 0)
(-4.50578e-20 -9.87696e-16 0)
(-3.32589e-20 -9.8769e-16 0)
(-2.14659e-20 -9.87689e-16 0)
(-1.09734e-20 -9.8769e-16 0)
(-3.19662e-21 -9.87695e-16 0)
(1.22706e-21 -9.87699e-16 0)
(2.48035e-21 -9.87703e-16 0)
(3.40723e-21 -9.877e-16 0)
(1.04124e-20 -9.87694e-16 0)
(1.71677e-20 -9.87701e-16 0)
(2.08068e-20 -9.877e-16 0)
(3.33355e-20 -9.87694e-16 0)
(4.2683e-20 -9.87713e-16 0)
(4.10671e-20 -9.87721e-16 0)
(4.77948e-20 -9.87718e-16 0)
(4.84216e-20 -9.87746e-16 0)
(2.9438e-20 -9.87757e-16 0)
(1.55369e-20 -9.87739e-16 0)
(4.2024e-20 -9.87701e-16 0)
(6.14064e-20 -9.8776e-16 0)
(3.83588e-20 -9.87779e-16 0)
(2.55356e-20 -9.87764e-16 0)
(3.24543e-20 -9.87758e-16 0)
(3.51264e-20 -9.87779e-16 0)
(2.27961e-20 -9.87795e-16 0)
(-4.35122e-11 -1.67258e-15 0)
(-9.59971e-08 -5.33451e-06 0)
(-9.1947e-06 -0.000199816 0)
(-9.09874e-06 -0.000501688 0)
(9.09874e-06 -0.000501688 0)
(9.1947e-06 -0.000199816 0)
(9.59971e-08 -5.33451e-06 0)