/*--------------------------------*- C++ -*----------------------------------*\
  =========                 |
  \\      /  F ield         | OpenFOAM: The Open Source CFD Toolbox
   \\    /   O peration     | Website:  https://openfoam.org
    \\  /    A nd           | Version:  10
     \\/     M anipulation  |
\*---------------------------------------------------------------------------*/
FoamFile
{
    format      ascii;
    class       surfaceScalarField;
    location    "16200";
    object      phi;
}
// * * * * * * * * * * * * * * * * * * * * * * * * * * * * * * * * * * * * * //

dimensions      [0 3 -1 0 0 0 0];

internalField   nonuniform List<scalar> 
12640
(
-2.25131e-08
2.25131e-08
-4.54843e-08
2.29712e-08
-6.94194e-08
2.39351e-08
-9.49323e-08
2.55129e-08
-1.22837e-07
2.79051e-08
-1.54311e-07
3.14741e-08
-1.91215e-07
3.69036e-08
-2.36807e-07
4.55924e-08
-2.97483e-07
6.06753e-08
-3.85066e-07
8.75829e-08
-4.19643e-07
3.45777e-08
-3.03688e-06
2.61724e-06
-3.43349e-06
3.96615e-07
-3.34086e-06
-9.26306e-08
-3.77245e-06
4.31583e-07
-3.74889e-06
-2.35575e-08
-3.83916e-06
9.02697e-08
-3.79501e-06
-4.4147e-08
-3.61995e-06
-1.75058e-07
-3.55355e-06
-6.6401e-08
-3.51632e-06
-3.72323e-08
-3.48499e-06
-3.13333e-08
-3.46822e-06
-1.67662e-08
-3.44327e-06
-2.49468e-08
-3.41266e-06
-3.06103e-08
-3.36927e-06
-4.339e-08
-3.32905e-06
-4.02213e-08
-3.29205e-06
-3.70074e-08
-3.24475e-06
-4.72986e-08
-3.18858e-06
-5.61655e-08
-3.10508e-06
-8.34969e-08
-2.93602e-06
-1.69065e-07
-2.79944e-06
-1.36584e-07
-2.61315e-06
-1.86281e-07
-2.36384e-06
-2.49314e-07
-2.03886e-06
-3.24979e-07
-1.63072e-06
-4.08144e-07
-1.14216e-06
-4.88563e-07
-5.89114e-07
-5.53042e-07
-1.72937e-17
-5.89114e-07
5.89114e-07
-5.89114e-07
1.14216e-06
-5.53042e-07
1.63072e-06
-4.88563e-07
2.03886e-06
-4.08144e-07
2.36384e-06
-3.24979e-07
2.61315e-06
-2.49314e-07
2.79944e-06
-1.86281e-07
2.93602e-06
-1.36584e-07
3.10508e-06
-1.69065e-07
3.18858e-06
-8.34969e-08
3.24475e-06
-5.61655e-08
3.29205e-06
-4.72986e-08
3.32905e-06
-3.70074e-08
3.36927e-06
-4.02213e-08
3.41266e-06
-4.339e-08
3.44327e-06
-3.06103e-08
3.46822e-06
-2.49468e-08
3.48499e-06
-1.67662e-08
3.51632e-06
-3.13333e-08
3.55355e-06
-3.72323e-08
3.61995e-06
-6.6401e-08
3.79501e-06
-1.75058e-07
3.83916e-06
-4.4147e-08
3.74889e-06
9.02697e-08
3.77245e-06
-2.35575e-08
3.34086e-06
4.31583e-07
3.43349e-06
-9.26306e-08
3.03688e-06
3.96615e-07
4.19643e-07
2.61724e-06
3.85066e-07
3.45777e-08
2.97483e-07
8.75829e-08
2.36807e-07
6.06753e-08
1.91215e-07
4.55924e-08
1.54311e-07
3.69036e-08
1.22837e-07
3.14741e-08
9.49323e-08
2.79051e-08
6.94194e-08
2.55129e-08
4.54843e-08
2.39351e-08
2.25131e-08
2.29712e-08
2.25131e-08
-2.46712e-08
4.71843e-08
-4.98425e-08
4.81425e-08
-7.60659e-08
5.01585e-08
-1.0401e-07
5.34575e-08
-1.34562e-07
5.84562e-08
-1.68995e-07
6.59072e-08
-2.09317e-07
7.72255e-08
-2.5902e-07
9.52956e-08
-3.25008e-07
1.26664e-07
-4.24868e-07
1.87443e-07
-7.14131e-07
3.23841e-07
-3.03566e-07
2.20667e-06
-1.6429e-06
1.73595e-06
-3.32497e-06
1.58944e-06
-3.95149e-06
1.0581e-06
-3.94407e-06
-3.0976e-08
-4.07208e-06
2.18274e-07
-4.03781e-06
-7.84102e-08
-3.84854e-06
-3.64327e-07
-3.78755e-06
-1.27391e-07
-3.75347e-06
-7.1317e-08
-3.7232e-06
-6.16011e-08
-3.7093e-06
-3.06653e-08
-3.68493e-06
-4.93218e-08
-3.65455e-06
-6.09852e-08
-3.60907e-06
-8.88697e-08
-3.56748e-06
-8.18175e-08
-3.52974e-06
-7.47403e-08
-3.48008e-06
-9.69633e-08
-3.42168e-06
-1.14562e-07
-3.33567e-06
-1.69512e-07
-3.15986e-06
-3.44874e-07
-3.01632e-06
-2.80121e-07
-2.81972e-06
-3.8288e-07
-2.55523e-06
-5.13802e-07
-2.20824e-06
-6.71966e-07
-1.76951e-06
-8.46878e-07
-1.2413e-06
-1.01677e-06
-6.40922e-07
-1.15342e-06
-2.26869e-17
-1.23004e-06
6.40922e-07
-1.23004e-06
1.2413e-06
-1.15342e-06
1.76951e-06
-1.01677e-06
2.20824e-06
-8.46878e-07
2.55523e-06
-6.71966e-07
2.81972e-06
-5.13802e-07
3.01632e-06
-3.8288e-07
3.15986e-06
-2.80121e-07
3.33567e-06
-3.44874e-07
3.42168e-06
-1.69512e-07
3.48008e-06
-1.14562e-07
3.52974e-06
-9.69633e-08
3.56748e-06
-7.47403e-08
3.60907e-06
-8.18175e-08
3.65455e-06
-8.88697e-08
3.68493e-06
-6.09852e-08
3.7093e-06
-4.93218e-08
3.7232e-06
-3.06653e-08
3.75347e-06
-6.16011e-08
3.78755e-06
-7.1317e-08
3.84854e-06
-1.27391e-07
4.03781e-06
-3.64327e-07
4.07208e-06
-7.84102e-08
3.94407e-06
2.18274e-07
3.95149e-06
-3.0976e-08
3.32497e-06
1.0581e-06
1.6429e-06
1.58944e-06
3.03566e-07
1.73595e-06
7.14131e-07
2.20667e-06
4.24868e-07
3.23841e-07
3.25008e-07
1.87443e-07
2.5902e-07
1.26664e-07
2.09317e-07
9.52956e-08
1.68995e-07
7.72255e-08
1.34562e-07
6.59072e-08
1.0401e-07
5.84562e-08
7.60659e-08
5.34575e-08
4.98425e-08
5.01585e-08
2.46712e-08
4.81425e-08
4.71843e-08
-2.70052e-08
7.41895e-08
-5.45533e-08
7.56906e-08
-8.32424e-08
7.88476e-08
-1.13796e-07
8.40106e-08
-1.47165e-07
9.18253e-08
-1.84711e-07
1.03453e-07
-2.28551e-07
1.21066e-07
-2.82306e-07
1.49051e-07
-3.53003e-07
1.9736e-07
-4.5821e-07
2.9265e-07
-6.75656e-07
5.41287e-07
-3.8997e-07
1.92098e-06
-3.85895e-07
1.73187e-06
-3.56933e-07
1.56048e-06
-3.81097e-06
4.51214e-06
-4.08486e-06
2.42918e-07
-4.32787e-06
4.61279e-07
-4.32071e-06
-8.55717e-08
-4.10331e-06
-5.81727e-07
-4.05725e-06
-1.73445e-07
-4.02921e-06
-9.93576e-08
-3.9997e-06
-9.11175e-08
-3.99078e-06
-3.95763e-08
-3.96664e-06
-7.34687e-08
-3.93686e-06
-9.07656e-08
-3.88751e-06
-1.38215e-07
-3.84406e-06
-1.25273e-07
-3.80621e-06
-1.1259e-07
-3.75336e-06
-1.49813e-07
-3.69333e-06
-1.74594e-07
-3.60806e-06
-2.54779e-07
-3.43137e-06
-5.21562e-07
-3.28376e-06
-4.27728e-07
-3.07983e-06
-5.86813e-07
-2.80233e-06
-7.91305e-07
-2.43275e-06
-1.04154e-06
-1.95792e-06
-1.32171e-06
-1.37848e-06
-1.59622e-06
-7.13466e-07
-1.81843e-06
-2.19073e-17
-1.9435e-06
7.13466e-07
-1.9435e-06
1.37848e-06
-1.81843e-06
1.95792e-06
-1.59622e-06
2.43275e-06
-1.32171e-06
2.80233e-06
-1.04154e-06
3.07983e-06
-7.91305e-07
3.28376e-06
-5.86813e-07
3.43137e-06
-4.27728e-07
3.60806e-06
-5.21562e-07
3.69333e-06
-2.54779e-07
3.75336e-06
-1.74594e-07
3.80621e-06
-1.49813e-07
3.84406e-06
-1.1259e-07
3.88751e-06
-1.25273e-07
3.93686e-06
-1.38215e-07
3.96664e-06
-9.07656e-08
3.99078e-06
-7.34687e-08
3.9997e-06
-3.95763e-08
4.02921e-06
-9.11175e-08
4.05725e-06
-9.93576e-08
4.10331e-06
-1.73445e-07
4.32071e-06
-5.81727e-07
4.32787e-06
-8.55717e-08
4.08486e-06
4.61279e-07
3.81097e-06
2.42918e-07
3.56933e-07
4.51214e-06
3.85895e-07
1.56048e-06
3.8997e-07
1.73187e-06
6.75656e-07
1.92098e-06
4.5821e-07
5.41287e-07
3.53003e-07
2.9265e-07
2.82306e-07
1.9736e-07
2.28551e-07
1.49051e-07
1.84711e-07
1.21066e-07
1.47165e-07
1.03453e-07
1.13796e-07
9.18253e-08
8.32424e-08
8.40106e-08
5.45533e-08
7.88476e-08
2.70052e-08
7.56906e-08
7.41895e-08
-2.95168e-08
1.03706e-07
-5.96183e-08
1.05792e-07
-9.09474e-08
1.10177e-07
-1.24276e-07
1.1734e-07
-1.60614e-07
1.28163e-07
-2.01384e-07
1.44223e-07
-2.48756e-07
1.68437e-07
-3.06319e-07
2.06614e-07
-3.8063e-07
2.71672e-07
-4.85479e-07
3.97499e-07
-6.46203e-07
7.02011e-07
-4.40733e-07
1.71551e-06
-4.35057e-07
1.7262e-06
-6.79247e-07
1.80467e-06
1.56495e-07
3.67639e-06
-1.05633e-06
1.45574e-06
-4.29636e-06
3.70131e-06
-4.56752e-06
1.85589e-07
-4.34181e-06
-8.07437e-07
-4.34223e-06
-1.73027e-07
-4.32969e-06
-1.11898e-07
-4.30256e-06
-1.18246e-07
-4.30382e-06
-3.83146e-08
-4.28011e-06
-9.71836e-08
-4.25262e-06
-1.18256e-07
-4.19715e-06
-1.93677e-07
-4.15179e-06
-1.7064e-07
-4.11557e-06
-1.48811e-07
-4.05858e-06
-2.06799e-07
-3.99829e-06
-2.34885e-07
-3.9195e-06
-3.33565e-07
-3.75237e-06
-6.8869e-07
-3.6062e-06
-5.73902e-07
-3.40142e-06
-7.91593e-07
-3.11714e-06
-1.07559e-06
-2.72777e-06
-1.4309e-06
-2.21227e-06
-1.83721e-06
-1.56754e-06
-2.24094e-06
-8.14764e-07
-2.57121e-06
-9.08701e-18
-2.75827e-06
8.14764e-07
-2.75827e-06
1.56754e-06
-2.57121e-06
2.21227e-06
-2.24094e-06
2.72777e-06
-1.83721e-06
3.11714e-06
-1.4309e-06
3.40142e-06
-1.07559e-06
3.6062e-06
-7.91593e-07
3.75237e-06
-5.73902e-07
3.9195e-06
-6.8869e-07
3.99829e-06
-3.33565e-07
4.05858e-06
-2.34885e-07
4.11557e-06
-2.06799e-07
4.15179e-06
-1.48811e-07
4.19715e-06
-1.7064e-07
4.25262e-06
-1.93677e-07
4.28011e-06
-1.18256e-07
4.30382e-06
-9.71836e-08
4.30256e-06
-3.83146e-08
4.32969e-06
-1.18246e-07
4.34223e-06
-1.11898e-07
4.34181e-06
-1.73027e-07
4.56752e-06
-8.07437e-07
4.29636e-06
1.85589e-07
1.05633e-06
3.70131e-06
-1.56495e-07
1.45574e-06
6.79247e-07
3.67639e-06
4.35057e-07
1.80467e-06
4.40733e-07
1.7262e-06
6.46203e-07
1.71551e-06
4.85479e-07
7.02011e-07
3.8063e-07
3.97499e-07
3.06319e-07
2.71672e-07
2.48756e-07
2.06614e-07
2.01384e-07
1.68437e-07
1.60614e-07
1.44223e-07
1.24276e-07
1.28163e-07
9.09474e-08
1.1734e-07
5.96183e-08
1.10177e-07
2.95168e-08
1.05792e-07
1.03706e-07
-3.22022e-08
1.35908e-07
-6.50282e-08
1.38618e-07
-9.91608e-08
1.44309e-07
-1.35414e-07
1.53593e-07
-1.74837e-07
1.67586e-07
-2.1888e-07
1.88266e-07
-2.69683e-07
2.19241e-07
-3.30596e-07
2.67527e-07
-4.07075e-07
3.48151e-07
-5.07294e-07
4.97717e-07
-6.2493e-07
8.19646e-07
-4.82523e-07
1.57311e-06
-4.7069e-07
1.71437e-06
-5.90177e-07
1.92416e-06
-8.13168e-09
3.09435e-06
-4.27574e-07
1.87519e-06
8.62002e-08
3.18753e-06
-2.02751e-06
2.2993e-06
-4.20637e-06
1.37142e-06
-4.55642e-06
1.7702e-07
-4.62203e-06
-4.62846e-08
-4.61447e-06
-1.2581e-07
-4.64143e-06
-1.13557e-08
-4.6206e-06
-1.18007e-07
-4.6003e-06
-1.38559e-07
-4.53543e-06
-2.58542e-07
-4.48876e-06
-2.17316e-07
-4.45785e-06
-1.79723e-07
-4.39492e-06
-2.69724e-07
-4.33642e-06
-2.93391e-07
-4.27294e-06
-3.97045e-07
-4.13185e-06
-8.29771e-07
-3.99571e-06
-7.10043e-07
-3.80161e-06
-9.85701e-07
-3.52344e-06
-1.35375e-06
-3.123e-06
-1.83135e-06
-2.56367e-06
-2.39653e-06
-1.83494e-06
-2.96968e-06
-9.60111e-07
-3.44604e-06
-1.57354e-17
-3.71838e-06
9.60111e-07
-3.71838e-06
1.83494e-06
-3.44604e-06
2.56367e-06
-2.96968e-06
3.123e-06
-2.39653e-06
3.52344e-06
-1.83135e-06
3.80161e-06
-1.35375e-06
3.99571e-06
-9.85701e-07
4.13185e-06
-7.10043e-07
4.27294e-06
-8.29771e-07
4.33642e-06
-3.97045e-07
4.39492e-06
-2.93391e-07
4.45785e-06
-2.69724e-07
4.48876e-06
-1.79723e-07
4.53543e-06
-2.17316e-07
4.6003e-06
-2.58542e-07
4.6206e-06
-1.38559e-07
4.64143e-06
-1.18007e-07
4.61447e-06
-1.13557e-08
4.62203e-06
-1.2581e-07
4.55642e-06
-4.62846e-08
4.20637e-06
1.7702e-07
2.02751e-06
1.37142e-06
-8.62002e-08
2.2993e-06
4.27574e-07
3.18753e-06
8.13168e-09
1.87519e-06
5.90177e-07
3.09435e-06
4.7069e-07
1.92416e-06
4.82523e-07
1.71437e-06
6.2493e-07
1.57311e-06
5.07294e-07
8.19646e-07
4.07075e-07
4.97717e-07
3.30596e-07
3.48151e-07
2.69683e-07
2.67527e-07
2.1888e-07
2.19241e-07
1.74837e-07
1.88266e-07
1.35414e-07
1.67586e-07
9.91608e-08
1.53593e-07
6.50282e-08
1.44309e-07
3.22022e-08
1.38618e-07
1.35908e-07
-3.50505e-08
1.70959e-07
-7.07581e-08
1.74326e-07
-1.07838e-07
1.81389e-07
-1.47133e-07
1.92888e-07
-1.89708e-07
2.10161e-07
-2.36991e-07
2.3555e-07
-2.9099e-07
2.7324e-07
-3.54582e-07
3.31119e-07
-4.31606e-07
4.25174e-07
-5.24375e-07
5.90486e-07
-6.10454e-07
9.05726e-07
-5.15185e-07
1.47784e-06
-4.95386e-07
1.69457e-06
-5.30864e-07
1.95963e-06
-1.3025e-07
2.69374e-06
-3.38369e-07
2.0833e-06
5.42463e-08
2.79492e-06
1.26533e-07
2.22701e-06
-7.99402e-08
1.5779e-06
-1.48695e-06
1.58403e-06
-4.46485e-06
2.93162e-06
-4.78837e-06
1.97715e-07
-4.95585e-06
1.56126e-07
-4.96656e-06
-1.07302e-07
-4.97339e-06
-1.31732e-07
-4.89687e-06
-3.35062e-07
-4.85224e-06
-2.61945e-07
-4.83483e-06
-1.97136e-07
-4.76218e-06
-3.42369e-07
-4.70816e-06
-3.47411e-07
-4.67296e-06
-4.32246e-07
-4.58306e-06
-9.19673e-07
-4.46857e-06
-8.24533e-07
-4.30455e-06
-1.14972e-06
-4.058e-06
-1.60031e-06
-3.66791e-06
-2.22143e-06
-3.06575e-06
-2.99869e-06
-2.2275e-06
-3.80793e-06
-1.17706e-06
-4.49648e-06
-6.42696e-17
-4.89543e-06
1.17706e-06
-4.89543e-06
2.2275e-06
-4.49648e-06
3.06575e-06
-3.80793e-06
3.66791e-06
-2.99869e-06
4.058e-06
-2.22143e-06
4.30455e-06
-1.60031e-06
4.46857e-06
-1.14972e-06
4.58306e-06
-8.24533e-07
4.67296e-06
-9.19673e-07
4.70816e-06
-4.32246e-07
4.76218e-06
-3.47411e-07
4.83483e-06
-3.42369e-07
4.85224e-06
-1.97136e-07
4.89687e-06
-2.61945e-07
4.97339e-06
-3.35062e-07
4.96656e-06
-1.31732e-07
4.95585e-06
-1.07302e-07
4.78837e-06
1.56126e-07
4.46485e-06
1.97715e-07
1.48695e-06
2.93162e-06
7.99402e-08
1.58403e-06
-1.26533e-07
1.5779e-06
-5.42463e-08
2.22701e-06
3.38369e-07
2.79492e-06
1.3025e-07
2.0833e-06
5.30864e-07
2.69374e-06
4.95386e-07
1.95963e-06
5.15185e-07
1.69457e-06
6.10454e-07
1.47784e-06
5.24375e-07
9.05726e-07
4.31606e-07
5.90486e-07
3.54582e-07
4.25174e-07
2.9099e-07
3.31119e-07
2.36991e-07
2.7324e-07
1.89708e-07
2.3555e-07
1.47133e-07
2.10161e-07
1.07838e-07
1.92888e-07
7.07581e-08
1.81389e-07
3.50505e-08
1.74326e-07
1.70959e-07
-3.80411e-08
2.09e-07
-7.67636e-08
2.13048e-07
-1.16903e-07
2.21529e-07
-1.59311e-07
2.35296e-07
-2.05036e-07
2.55886e-07
-2.55425e-07
2.85938e-07
-3.12236e-07
3.30051e-07
-3.77654e-07
3.96537e-07
-4.53604e-07
5.01124e-07
-5.37405e-07
6.74288e-07
-6.01065e-07
9.69385e-07
-5.3912e-07
1.41589e-06
-5.11617e-07
1.66706e-06
-4.94374e-07
1.94239e-06
-2.15946e-07
2.41531e-06
-2.85934e-07
2.15329e-06
-8.49383e-09
2.51748e-06
6.10688e-08
2.15745e-06
-8.05937e-08
1.71956e-06
-2.39401e-07
1.74283e-06
2.73508e-07
2.41871e-06
-5.81557e-07
1.05278e-06
-4.62917e-06
4.20374e-06
-5.02122e-06
2.84749e-07
-5.2779e-06
1.24944e-07
-5.23901e-06
-3.73948e-07
-5.22339e-06
-2.77567e-07
-5.24453e-06
-1.75989e-07
-5.15648e-06
-4.30421e-07
-5.11143e-06
-3.92462e-07
-5.12352e-06
-4.20156e-07
-5.12342e-06
-9.19779e-07
-5.04136e-06
-9.06585e-07
-4.93932e-06
-1.25176e-06
-4.77499e-06
-1.76463e-06
-4.44637e-06
-2.55006e-06
-3.81287e-06
-3.63219e-06
-2.83126e-06
-4.78955e-06
-1.51731e-06
-5.81043e-06
-3.02162e-17
-6.41275e-06
1.51731e-06
-6.41275e-06
2.83126e-06
-5.81043e-06
3.81287e-06
-4.78955e-06
4.44637e-06
-3.63219e-06
4.77499e-06
-2.55006e-06
4.93932e-06
-1.76463e-06
5.04136e-06
-1.25176e-06
5.12342e-06
-9.06585e-07
5.12352e-06
-9.19779e-07
5.11143e-06
-4.20156e-07
5.15648e-06
-3.92462e-07
5.24453e-06
-4.30421e-07
5.22339e-06
-1.75989e-07
5.23901e-06
-2.77567e-07
5.2779e-06
-3.73948e-07
5.02122e-06
1.24944e-07
4.62917e-06
2.84749e-07
5.81557e-07
4.20374e-06
-2.73508e-07
1.05278e-06
2.39401e-07
2.41871e-06
8.05937e-08
1.74283e-06
-6.10688e-08
1.71956e-06
8.49383e-09
2.15745e-06
2.85934e-07
2.51748e-06
2.15946e-07
2.15329e-06
4.94374e-07
2.41531e-06
5.11617e-07
1.94239e-06
5.3912e-07
1.66706e-06
6.01065e-07
1.41589e-06
5.37405e-07
9.69385e-07
4.53604e-07
6.74288e-07
3.77654e-07
5.01124e-07
3.12236e-07
3.96537e-07
2.55425e-07
3.30051e-07
2.05036e-07
2.85938e-07
1.59311e-07
2.55886e-07
1.16903e-07
2.35296e-07
7.67636e-08
2.21529e-07
3.80411e-08
2.13048e-07
2.09e-07
-4.11414e-08
2.50141e-07
-8.29748e-08
2.54882e-07
-1.26239e-07
2.64793e-07
-1.71771e-07
2.80828e-07
-2.2056e-07
3.04675e-07
-2.73803e-07
3.3918e-07
-3.32892e-07
3.8914e-07
-3.99156e-07
4.62802e-07
-4.72583e-07
5.74551e-07
-5.46936e-07
7.48641e-07
-5.94951e-07
1.0174e-06
-5.55144e-07
1.37609e-06
-5.21498e-07
1.63342e-06
-4.74127e-07
1.89502e-06
-2.74593e-07
2.21577e-06
-2.61165e-07
2.13986e-06
-6.11719e-08
2.31749e-06
3.91142e-09
2.09237e-06
-8.50449e-08
1.80852e-06
-1.65234e-07
1.82302e-06
1.03275e-07
2.1502e-06
-4.26347e-07
1.5824e-06
6.98553e-07
3.07884e-06
-5.73723e-08
1.04067e-06
-1.36385e-06
1.43142e-06
-4.8237e-06
3.0859e-06
-5.3085e-06
2.0723e-07
-5.59234e-06
1.07856e-07
-5.53269e-06
-4.90078e-07
-5.52494e-06
-4.00205e-07
-5.61946e-06
-3.25643e-07
-5.77555e-06
-7.63684e-07
-5.7163e-06
-9.65838e-07
-5.72854e-06
-1.23952e-06
-5.74909e-06
-1.74408e-06
-5.6089e-06
-2.69026e-06
-4.97699e-06
-4.2641e-06
-3.81365e-06
-5.95288e-06
-2.0842e-06
-7.53988e-06
3.84954e-17
-8.49695e-06
2.0842e-06
-8.49695e-06
3.81365e-06
-7.53988e-06
4.97699e-06
-5.95288e-06
5.6089e-06
-4.2641e-06
5.74909e-06
-2.69026e-06
5.72854e-06
-1.74408e-06
5.7163e-06
-1.23952e-06
5.77555e-06
-9.65838e-07
5.61946e-06
-7.63684e-07
5.52494e-06
-3.25643e-07
5.53269e-06
-4.00205e-07
5.59234e-06
-4.90078e-07
5.3085e-06
1.07856e-07
4.8237e-06
2.0723e-07
1.36385e-06
3.0859e-06
5.73723e-08
1.43142e-06
-6.98553e-07
1.04067e-06
4.26347e-07
3.07884e-06
-1.03275e-07
1.5824e-06
1.65234e-07
2.1502e-06
8.50449e-08
1.82302e-06
-3.91142e-09
1.80852e-06
6.11719e-08
2.09237e-06
2.61165e-07
2.31749e-06
2.74593e-07
2.13986e-06
4.74127e-07
2.21577e-06
5.21498e-07
1.89502e-06
5.55144e-07
1.63342e-06
5.94951e-07
1.37609e-06
5.46936e-07
1.0174e-06
4.72583e-07
7.48641e-07
3.99156e-07
5.74551e-07
3.32892e-07
4.62802e-07
2.73803e-07
3.8914e-07
2.2056e-07
3.3918e-07
1.71771e-07
3.04675e-07
1.26239e-07
2.80828e-07
8.29748e-08
2.64793e-07
4.11414e-08
2.54882e-07
2.50141e-07
-4.43036e-08
2.94445e-07
-8.92914e-08
2.99869e-07
-1.35684e-07
3.11185e-07
-1.8427e-07
3.29415e-07
-2.35937e-07
3.56342e-07
-2.91657e-07
3.949e-07
-3.5236e-07
4.49843e-07
-4.18442e-07
5.28883e-07
-4.88175e-07
6.44284e-07
-5.53324e-07
8.13789e-07
-5.90406e-07
1.05448e-06
-5.64307e-07
1.34999e-06
-5.26663e-07
1.59577e-06
-4.64455e-07
1.83281e-06
-3.14334e-07
2.06565e-06
-2.55675e-07
2.08121e-06
-1.06102e-07
2.16791e-06
-4.4894e-08
2.03116e-06
-9.07657e-08
1.85439e-06
-1.24541e-07
1.8568e-06
1.48904e-08
2.01077e-06
-2.08334e-07
1.80563e-06
4.13028e-07
2.45748e-06
1.35398e-08
1.44016e-06
-1.58553e-07
1.60352e-06
5.9816e-07
2.32919e-06
-9.31818e-08
8.98572e-07
-1.26712e-06
1.2818e-06
-4.94627e-06
3.18907e-06
-5.55448e-06
2.08006e-07
-5.98932e-06
1.09199e-07
-6.5197e-06
-2.33303e-07
-6.38987e-06
-1.09567e-06
-6.6268e-06
-1.00258e-06
-7.0485e-06
-1.32238e-06
-7.45323e-06
-2.28552e-06
-6.87288e-06
-4.84445e-06
-5.52533e-06
-7.30043e-06
-3.09975e-06
-9.96546e-06
2.92192e-17
-1.15967e-05
3.09975e-06
-1.15967e-05
5.52533e-06
-9.96546e-06
6.87288e-06
-7.30043e-06
7.45323e-06
-4.84445e-06
7.0485e-06
-2.28552e-06
6.6268e-06
-1.32238e-06
6.38987e-06
-1.00258e-06
6.5197e-06
-1.09567e-06
5.98932e-06
-2.33303e-07
5.55448e-06
1.09199e-07
4.94627e-06
2.08006e-07
1.26712e-06
3.18907e-06
9.31818e-08
1.2818e-06
-5.9816e-07
8.98572e-07
1.58553e-07
2.32919e-06
-1.35398e-08
1.60352e-06
-4.13028e-07
1.44016e-06
2.08334e-07
2.45748e-06
-1.48904e-08
1.80563e-06
1.24541e-07
2.01077e-06
9.07657e-08
1.8568e-06
4.4894e-08
1.85439e-06
1.06102e-07
2.03116e-06
2.55675e-07
2.16791e-06
3.14334e-07
2.08121e-06
4.64455e-07
2.06565e-06
5.26663e-07
1.83281e-06
5.64307e-07
1.59577e-06
5.90406e-07
1.34999e-06
5.53324e-07
1.05448e-06
4.88175e-07
8.13789e-07
4.18442e-07
6.44284e-07
3.5236e-07
5.28883e-07
2.91657e-07
4.49843e-07
2.35937e-07
3.949e-07
1.8427e-07
3.56342e-07
1.35684e-07
3.29415e-07
8.92914e-08
3.11185e-07
4.43036e-08
2.99869e-07
2.94445e-07
-4.74625e-08
3.41908e-07
-9.55783e-08
3.47985e-07
-1.45021e-07
3.60628e-07
-1.96499e-07
3.80892e-07
-2.50745e-07
4.10588e-07
-3.08443e-07
4.52599e-07
-3.70001e-07
5.11401e-07
-4.34901e-07
5.93783e-07
-5.00109e-07
7.09492e-07
-5.56726e-07
8.70407e-07
-5.85973e-07
1.08373e-06
-5.67711e-07
1.33173e-06
-5.28245e-07
1.55631e-06
-4.6089e-07
1.76546e-06
-3.41527e-07
1.94629e-06
-2.62356e-07
2.00204e-06
-1.44882e-07
2.05044e-06
-8.60894e-08
1.97237e-06
-9.90516e-08
1.86735e-06
-1.04505e-07
1.86225e-06
-2.64299e-08
1.93269e-06
-9.26259e-08
1.87182e-06
2.40957e-07
2.12389e-06
4.89023e-08
1.63222e-06
-2.26358e-08
1.67505e-06
3.57859e-07
1.94869e-06
-1.64589e-08
1.27289e-06
-2.18177e-07
1.48351e-06
6.8387e-07
2.28703e-06
2.35625e-08
8.68313e-07
-7.99298e-07
9.3206e-07
-4.46963e-06
3.43703e-06
-5.6728e-06
1.07493e-07
-6.74601e-06
7.06337e-08
-8.1213e-06
5.29038e-08
-1.04486e-05
4.17331e-08
-9.85867e-06
-5.43434e-06
-8.73422e-06
-8.42488e-06
-5.06711e-06
-1.36326e-05
9.70361e-18
-1.66638e-05
5.06711e-06
-1.66638e-05
8.73422e-06
-1.36326e-05
9.85867e-06
-8.42488e-06
1.04486e-05
-5.43434e-06
8.1213e-06
4.17331e-08
6.74601e-06
5.29038e-08
5.6728e-06
7.06337e-08
4.46963e-06
1.07493e-07
7.99298e-07
3.43703e-06
-2.35625e-08
9.3206e-07
-6.8387e-07
8.68313e-07
2.18177e-07
2.28703e-06
1.64589e-08
1.48351e-06
-3.57859e-07
1.27289e-06
2.26358e-08
1.94869e-06
-4.89023e-08
1.67505e-06
-2.40957e-07
1.63222e-06
9.26259e-08
2.12389e-06
2.64299e-08
1.87182e-06
1.04505e-07
1.93269e-06
9.90516e-08
1.86225e-06
8.60894e-08
1.86735e-06
1.44882e-07
1.97237e-06
2.62356e-07
2.05044e-06
3.41527e-07
2.00204e-06
4.6089e-07
1.94629e-06
5.28245e-07
1.76546e-06
5.67711e-07
1.55631e-06
5.85973e-07
1.33173e-06
5.56726e-07
1.08373e-06
5.00109e-07
8.70407e-07
4.34901e-07
7.09492e-07
3.70001e-07
5.93783e-07
3.08443e-07
5.11401e-07
2.50745e-07
4.52599e-07
1.96499e-07
4.10588e-07
1.45021e-07
3.80892e-07
9.55783e-08
3.60628e-07
4.74625e-08
3.47985e-07
3.41908e-07
-5.0534e-08
3.92442e-07
-1.01662e-07
3.99113e-07
-1.53981e-07
4.12947e-07
-2.08078e-07
4.3499e-07
-2.64488e-07
4.66997e-07
-3.23562e-07
5.11673e-07
-3.85167e-07
5.73006e-07
-4.47994e-07
6.5661e-07
-5.08178e-07
7.69676e-07
-5.57135e-07
9.19363e-07
-5.80518e-07
1.10711e-06
-5.66361e-07
1.31757e-06
-5.26943e-07
1.51689e-06
-4.60168e-07
1.69868e-06
-3.60615e-07
1.84674e-06
-2.75621e-07
1.91704e-06
-1.78489e-07
1.95331e-06
-1.2076e-07
1.91464e-06
-1.09921e-07
1.85651e-06
-9.696e-08
1.84929e-06
-4.42531e-08
1.87998e-06
-3.83818e-08
1.86595e-06
1.40988e-07
1.94452e-06
6.43796e-08
1.70883e-06
4.37942e-08
1.69564e-06
2.23035e-07
1.76945e-06
3.47668e-08
1.46116e-06
-3.78019e-08
1.55608e-06
3.94308e-07
1.85492e-06
4.18772e-08
1.22074e-06
-3.26642e-07
1.30058e-06
8.36192e-07
2.27419e-06
4.47069e-07
4.96616e-07
1.24229e-07
3.93474e-07
-2.57065e-07
4.34198e-07
-7.87827e-07
5.72495e-07
-6.41753e-06
1.95358e-07
-1.38847e-05
-9.57701e-07
-8.75721e-06
-1.87601e-05
9.90508e-17
-2.5421e-05
8.75721e-06
-2.5421e-05
1.38847e-05
-1.87601e-05
6.41753e-06
-9.57701e-07
7.87827e-07
1.95358e-07
2.57065e-07
5.72495e-07
-1.24229e-07
4.34198e-07
-4.47069e-07
3.93474e-07
-8.36192e-07
4.96616e-07
3.26642e-07
2.27419e-06
-4.18772e-08
1.30058e-06
-3.94308e-07
1.22074e-06
3.78019e-08
1.85492e-06
-3.47668e-08
1.55608e-06
-2.23035e-07
1.46116e-06
-4.37942e-08
1.76945e-06
-6.43796e-08
1.69564e-06
-1.40988e-07
1.70883e-06
3.83818e-08
1.94452e-06
4.42531e-08
1.86595e-06
9.696e-08
1.87998e-06
1.09921e-07
1.84929e-06
1.2076e-07
1.85651e-06
1.78489e-07
1.91464e-06
2.75621e-07
1.95331e-06
3.60615e-07
1.91704e-06
4.60168e-07
1.84674e-06
5.26943e-07
1.69868e-06
5.66361e-07
1.51689e-06
5.80518e-07
1.31757e-06
5.57135e-07
1.10711e-06
5.08178e-07
9.19363e-07
4.47994e-07
7.69676e-07
3.85167e-07
6.5661e-07
3.23562e-07
5.73006e-07
2.64488e-07
5.11673e-07
2.08078e-07
4.66997e-07
1.53981e-07
4.3499e-07
1.01662e-07
4.12947e-07
5.0534e-08
3.99113e-07
3.92442e-07
-5.34141e-08
4.45856e-07
-1.07332e-07
4.53032e-07
-1.6224e-07
4.67855e-07
-2.18569e-07
4.91319e-07
-2.76618e-07
5.25046e-07
-3.36388e-07
5.71442e-07
-3.97239e-07
6.33858e-07
-4.5726e-07
7.16631e-07
-5.12224e-07
8.2464e-07
-5.54438e-07
9.61578e-07
-5.73233e-07
1.12591e-06
-5.61067e-07
1.3054e-06
-5.23119e-07
1.47894e-06
-4.60058e-07
1.63562e-06
-3.74322e-07
1.761e-06
-2.91367e-07
1.83409e-06
-2.07437e-07
1.86938e-06
-1.49989e-07
1.85719e-06
-1.22741e-07
1.82926e-06
-9.7089e-08
1.82364e-06
-5.27713e-08
1.83567e-06
-1.83942e-08
1.83157e-06
8.3533e-08
1.84259e-06
6.66347e-08
1.72572e-06
7.03029e-08
1.69197e-06
1.51621e-07
1.68813e-06
6.6771e-08
1.54601e-06
4.8692e-08
1.57416e-06
2.41165e-07
1.66244e-06
7.00173e-08
1.39189e-06
-6.45413e-08
1.43514e-06
4.33931e-07
1.77572e-06
3.32829e-07
5.97718e-07
1.98454e-07
5.27849e-07
1.23695e-07
5.08957e-07
1.88265e-07
5.07926e-07
-6.41015e-08
4.47725e-07
-7.2754e-07
-2.94263e-07
-5.23186e-06
-1.42557e-05
1.1111e-17
-3.06529e-05
5.23186e-06
-3.06529e-05
7.2754e-07
-1.42557e-05
6.41015e-08
-2.94263e-07
-1.88265e-07
4.47725e-07
-1.23695e-07
5.07926e-07
-1.98454e-07
5.08957e-07
-3.32829e-07
5.27849e-07
-4.33931e-07
5.97718e-07
6.45413e-08
1.77572e-06
-7.00173e-08
1.43514e-06
-2.41165e-07
1.39189e-06
-4.8692e-08
1.66244e-06
-6.6771e-08
1.57416e-06
-1.51621e-07
1.54601e-06
-7.03029e-08
1.68813e-06
-6.66347e-08
1.69197e-06
-8.3533e-08
1.72572e-06
1.83942e-08
1.84259e-06
5.27713e-08
1.83157e-06
9.7089e-08
1.83567e-06
1.22741e-07
1.82364e-06
1.49989e-07
1.82926e-06
2.07437e-07
1.85719e-06
2.91367e-07
1.86938e-06
3.74322e-07
1.83409e-06
4.60058e-07
1.761e-06
5.23119e-07
1.63562e-06
5.61067e-07
1.47894e-06
5.73233e-07
1.3054e-06
5.54438e-07
1.12591e-06
5.12224e-07
9.61578e-07
4.5726e-07
8.2464e-07
3.97239e-07
7.16631e-07
3.36388e-07
6.33858e-07
2.76618e-07
5.71442e-07
2.18569e-07
5.25046e-07
1.6224e-07
4.91319e-07
1.07332e-07
4.67855e-07
5.34141e-08
4.53032e-07
4.45856e-07
-5.59814e-08
5.01837e-07
-1.12345e-07
5.09395e-07
-1.69433e-07
5.24943e-07
-2.27491e-07
5.49377e-07
-2.86563e-07
5.84118e-07
-3.46305e-07
6.31184e-07
-4.0566e-07
6.93212e-07
-4.62333e-07
7.73304e-07
-5.1212e-07
8.74427e-07
-5.48481e-07
9.97939e-07
-5.6359e-07
1.14102e-06
-5.52409e-07
1.29422e-06
-5.16904e-07
1.44344e-06
-4.59098e-07
1.57782e-06
-3.84041e-07
1.68594e-06
-3.0677e-07
1.75681e-06
-2.31944e-07
1.79455e-06
-1.74649e-07
1.7999e-06
-1.36666e-07
1.79128e-06
-1.02125e-07
1.7891e-06
-5.93661e-08
1.79291e-06
-1.61754e-08
1.78838e-06
4.92045e-08
1.77721e-06
6.08361e-08
1.71409e-06
7.57172e-08
1.67709e-06
1.14719e-07
1.64913e-06
8.34543e-08
1.57727e-06
8.5447e-08
1.57217e-06
1.66322e-07
1.58157e-06
9.24925e-08
1.46572e-06
5.28205e-08
1.47481e-06
2.59429e-07
1.56911e-06
2.3668e-07
6.20466e-07
1.82956e-07
5.81574e-07
1.33778e-07
5.58135e-07
9.74256e-08
5.44278e-07
1.37589e-08
5.31391e-07
-5.22414e-08
-2.28263e-07
-7.47613e-07
-1.35604e-05
-1.04205e-16
-3.14005e-05
7.47613e-07
-3.14005e-05
5.22414e-08
-1.35604e-05
-1.37589e-08
-2.28263e-07
-9.74256e-08
5.31391e-07
-1.33778e-07
5.44278e-07
-1.82956e-07
5.58135e-07
-2.3668e-07
5.81574e-07
-2.59429e-07
6.20466e-07
-5.28205e-08
1.56911e-06
-9.24925e-08
1.47481e-06
-1.66322e-07
1.46572e-06
-8.5447e-08
1.58157e-06
-8.34543e-08
1.57217e-06
-1.14719e-07
1.57727e-06
-7.57172e-08
1.64913e-06
-6.08361e-08
1.67709e-06
-4.92045e-08
1.71409e-06
1.61754e-08
1.77721e-06
5.93661e-08
1.78838e-06
1.02125e-07
1.79291e-06
1.36666e-07
1.7891e-06
1.74649e-07
1.79128e-06
2.31944e-07
1.7999e-06
3.0677e-07
1.79455e-06
3.84041e-07
1.75681e-06
4.59098e-07
1.68594e-06
5.16904e-07
1.57782e-06
5.52409e-07
1.44344e-06
5.6359e-07
1.29422e-06
5.48481e-07
1.14102e-06
5.1212e-07
9.97939e-07
4.62333e-07
8.74427e-07
4.0566e-07
7.73304e-07
3.46305e-07
6.93212e-07
2.86563e-07
6.31184e-07
2.27491e-07
5.84118e-07
1.69433e-07
5.49377e-07
1.12345e-07
5.24943e-07
5.59814e-08
5.09395e-07
5.01837e-07
-5.81017e-08
5.59939e-07
-1.16434e-07
5.67728e-07
-1.7517e-07
5.83679e-07
-2.34349e-07
6.08556e-07
-2.93759e-07
6.43529e-07
-3.52754e-07
6.90179e-07
-4.09968e-07
7.50426e-07
-4.62946e-07
8.26282e-07
-5.07778e-07
9.19259e-07
-5.39116e-07
1.02928e-06
-5.51267e-07
1.15317e-06
-5.40745e-07
1.2837e-06
-5.08278e-07
1.41097e-06
-4.56341e-07
1.52588e-06
-3.90281e-07
1.61988e-06
-3.19997e-07
1.68653e-06
-2.52068e-07
1.72662e-06
-1.95321e-07
1.74315e-06
-1.50852e-07
1.74681e-06
-1.1035e-07
1.7486e-06
-6.70894e-08
1.74965e-06
-2.2618e-08
1.74391e-06
2.64084e-08
1.72819e-06
5.05701e-08
1.68993e-06
7.08411e-08
1.65682e-06
9.44521e-08
1.62552e-06
8.93064e-08
1.58242e-06
9.78238e-08
1.56365e-06
1.31845e-07
1.54755e-06
1.05417e-07
1.49215e-06
9.91099e-08
1.48112e-06
1.79921e-07
1.4883e-06
1.73629e-07
6.26759e-07
1.48861e-07
6.06342e-07
1.16102e-07
5.90893e-07
7.91126e-08
5.81267e-07
3.29026e-08
5.77601e-07
-1.50472e-09
-1.93855e-07
-3.02092e-07
-1.32598e-05
-5.17668e-17
-3.17026e-05
3.02092e-07
-3.17026e-05
1.50472e-09
-1.32598e-05
-3.29026e-08
-1.93855e-07
-7.91126e-08
5.77601e-07
-1.16102e-07
5.81267e-07
-1.48861e-07
5.90893e-07
-1.73629e-07
6.06342e-07
-1.79921e-07
6.26759e-07
-9.91099e-08
1.4883e-06
-1.05417e-07
1.48112e-06
-1.31845e-07
1.49215e-06
-9.78238e-08
1.54755e-06
-8.93064e-08
1.56365e-06
-9.44521e-08
1.58242e-06
-7.08411e-08
1.62552e-06
-5.05701e-08
1.65682e-06
-2.64084e-08
1.68993e-06
2.2618e-08
1.72819e-06
6.70894e-08
1.74391e-06
1.1035e-07
1.74965e-06
1.50852e-07
1.7486e-06
1.95321e-07
1.74681e-06
2.52068e-07
1.74315e-06
3.19997e-07
1.72662e-06
3.90281e-07
1.68653e-06
4.56341e-07
1.61988e-06
5.08278e-07
1.52588e-06
5.40745e-07
1.41097e-06
5.51267e-07
1.2837e-06
5.39116e-07
1.15317e-06
5.07778e-07
1.02928e-06
4.62946e-07
9.19259e-07
4.09968e-07
8.26282e-07
3.52754e-07
7.50426e-07
2.93759e-07
6.90179e-07
2.34349e-07
6.43529e-07
1.7517e-07
6.08556e-07
1.16434e-07
5.83679e-07
5.81017e-08
5.67728e-07
5.59939e-07
-5.96361e-08
6.19575e-07
-1.19329e-07
6.2742e-07
-1.79064e-07
6.43414e-07
-2.3867e-07
6.68162e-07
-2.97699e-07
7.02557e-07
-3.55263e-07
7.47743e-07
-4.09818e-07
8.04982e-07
-4.58933e-07
8.75397e-07
-4.99154e-07
9.59481e-07
-5.26241e-07
1.05636e-06
-5.36077e-07
1.163e-06
-5.26253e-07
1.27388e-06
-4.97133e-07
1.38185e-06
-4.51148e-07
1.4799e-06
-3.93062e-07
1.5618e-06
-3.29922e-07
1.62339e-06
-2.67792e-07
1.66449e-06
-2.12309e-07
1.68767e-06
-1.6452e-07
1.69902e-06
-1.20484e-07
1.70456e-06
-7.65974e-08
1.70576e-06
-3.3067e-08
1.70038e-06
8.87012e-09
1.68625e-06
3.80737e-08
1.66073e-06
6.126e-08
1.63363e-06
8.09575e-08
1.60582e-06
8.80958e-08
1.57528e-06
9.88358e-08
1.55291e-06
1.15512e-07
1.53087e-06
1.09828e-07
1.49783e-06
1.12481e-07
1.47846e-06
1.40543e-07
1.46024e-06
1.36148e-07
6.31153e-07
1.22194e-07
6.20296e-07
1.01747e-07
6.1134e-07
7.77052e-08
6.05309e-07
5.28475e-08
6.02459e-07
2.73855e-08
-1.68393e-07
-2.12497e-07
-1.30199e-05
1.71221e-17
-3.19151e-05
2.12497e-07
-3.19151e-05
-2.73855e-08
-1.30199e-05
-5.28475e-08
-1.68393e-07
-7.77052e-08
6.02459e-07
-1.01747e-07
6.05309e-07
-1.22194e-07
6.1134e-07
-1.36148e-07
6.20296e-07
-1.40543e-07
6.31153e-07
-1.12481e-07
1.46024e-06
-1.09828e-07
1.47846e-06
-1.15512e-07
1.49783e-06
-9.88358e-08
1.53087e-06
-8.80958e-08
1.55291e-06
-8.09575e-08
1.57528e-06
-6.126e-08
1.60582e-06
-3.80737e-08
1.63363e-06
-8.87012e-09
1.66073e-06
3.3067e-08
1.68625e-06
7.65974e-08
1.70038e-06
1.20484e-07
1.70576e-06
1.6452e-07
1.70456e-06
2.12309e-07
1.69902e-06
2.67792e-07
1.68767e-06
3.29922e-07
1.66449e-06
3.93062e-07
1.62339e-06
4.51148e-07
1.5618e-06
4.97133e-07
1.4799e-06
5.26253e-07
1.38185e-06
5.36077e-07
1.27388e-06
5.26241e-07
1.163e-06
4.99154e-07
1.05636e-06
4.58933e-07
9.59481e-07
4.09818e-07
8.75397e-07
3.55263e-07
8.04982e-07
2.97699e-07
7.47743e-07
2.3867e-07
7.02557e-07
1.79064e-07
6.68162e-07
1.19329e-07
6.43414e-07
5.96361e-08
6.2742e-07