/*--------------------------------*- C++ -*----------------------------------*\
  =========                 |
  \\      /  F ield         | OpenFOAM: The Open Source CFD Toolbox
   \\    /   O peration     | Website:  https://openfoam.org
    \\  /    A nd           | Version:  10
     \\/     M anipulation  |
\*---------------------------------------------------------------------------*/
FoamFile
{
    format      ascii;
    class       volVectorField;
    location    "16200";
    object      Ub;
}
// * * * * * * * * * * * * * * * * * * * * * * * * * * * * * * * * * * * * * //

dimensions      [0 1 -1 0 0 0 0];

internalField   nonuniform List<vector> 
6400
(
(-7.01465e-21 -9.87899e-16 0)
(-2.11867e-20 -9.87899e-16 0)
(-3.58017e-20 -9.87899e-16 0)
(-5.12088e-20 -9.87899e-16 0)
(-6.78528e-20 -9.87899e-16 0)
(-8.63542e-20 -9.87899e-16 0)
(-1.07659e-19 -9.87898e-16 0)
(-1.33363e-19 -9.87898e-16 0)
(-1.66474e-19 -9.87897e-16 0)
(-2.12729e-19 -9.87895e-16 0)
(-2.41909e-10 -9.88148e-16 0)
(-5.28203e-05 -4.30852e-07 0)
(-0.000112848 -1.89395e-06 0)
(-0.000118453 -7.32914e-07 0)
(-0.000124404 1.35656e-06 0)
(-0.000131548 -1.92442e-07 0)
(-0.000132719 2.44283e-07 0)
(-0.000133528 -2.15529e-07 0)
(-0.000129695 -6.69502e-07 0)
(-0.000125473 -2.75374e-07 0)
(-0.000123661 -1.66061e-07 0)
(-0.000122462 -1.40886e-07 0)
(-0.000121621 -8.58425e-08 0)
(-0.000120892 -1.12376e-07 0)
(-0.00011992 -1.30437e-07 0)
(-0.000118626 -1.74166e-07 0)
(-0.000117164 -1.61493e-07 0)
(-0.000115813 -1.48885e-07 0)
(-0.000114339 -1.84486e-07 0)
(-0.000112529 -2.15157e-07 0)
(-0.000110086 -3.11594e-07 0)
(-0.000105669 -6.15194e-07 0)
(-0.000100322 -1.10622e-06 0)
(-9.46749e-05 -1.5036e-06 0)
(-8.70557e-05 -2.00767e-06 0)
(-7.70104e-05 -2.61282e-06 0)
(-6.41869e-05 -3.278e-06 0)
(-4.85021e-05 -3.92125e-06 0)
(-3.02827e-05 -4.43701e-06 0)
(-1.03046e-05 -4.72553e-06 0)
(1.03046e-05 -4.72553e-06 0)
(3.02827e-05 -4.43701e-06 0)
(4.85021e-05 -3.92125e-06 0)
(6.41869e-05 -3.278e-06 0)
(7.70104e-05 -2.61282e-06 0)
(8.70557e-05 -2.00767e-06 0)
(9.46749e-05 -1.5036e-06 0)
(0.000100322 -1.10622e-06 0)
(0.000105669 -6.15194e-07 0)
(0.000110086 -3.11594e-07 0)
(0.000112529 -2.15157e-07 0)
(0.000114339 -1.84486e-07 0)
(0.000115813 -1.48885e-07 0)
(0.000117164 -1.61493e-07 0)
(0.000118626 -1.74166e-07 0)
(0.00011992 -1.30437e-07 0)
(0.000120892 -1.12376e-07 0)
(0.000121621 -8.58425e-08 0)
(0.000122462 -1.40886e-07 0)
(0.000123661 -1.66061e-07 0)
(0.000125473 -2.75374e-07 0)
(0.000129695 -6.69502e-07 0)
(0.000133528 -2.15529e-07 0)
(0.000132719 2.44283e-07 0)
(0.000131548 -1.92442e-07 0)
(0.000124404 1.35656e-06 0)
(0.000118453 -7.32914e-07 0)
(0.000112848 -1.89395e-06 0)
(5.28203e-05 -4.30852e-07 0)
(2.41909e-10 -9.88148e-16 0)
(2.12729e-19 -9.87895e-16 0)
(1.66474e-19 -9.87897e-16 0)
(1.33363e-19 -9.87898e-16 0)
(1.07659e-19 -9.87898e-16 0)
(8.63542e-20 -9.87899e-16 0)
(6.78528e-20 -9.87899e-16 0)
(5.12088e-20 -9.87899e-16 0)
(3.58017e-20 -9.87899e-16 0)
(2.11867e-20 -9.87899e-16 0)
(7.01465e-21 -9.87899e-16 0)
(-7.00843e-21 -9.87894e-16 0)
(-2.11674e-20 -9.87894e-16 0)
(-3.57673e-20 -9.87894e-16 0)
(-5.1155e-20 -9.87894e-16 0)
(-6.7772e-20 -9.87893e-16 0)
(-8.62323e-20 -9.87892e-16 0)
(-1.07468e-19 -9.87891e-16 0)
(-1.33042e-19 -9.8789e-16 0)
(-1.65907e-19 -9.87887e-16 0)
(-2.1302e-19 -9.87881e-16 0)
(-3.2356e-19 -9.87876e-16 0)
(-8.69881e-14 -9.87407e-16 0)
(-2.48776e-05 -1.1456e-10 0)
(-7.78397e-05 -5.30977e-07 0)
(-0.000115953 4.75039e-06 0)
(-0.000125873 -4.181e-07 0)
(-0.000127812 9.54493e-07 0)
(-0.000129314 -5.39832e-07 0)
(-0.000125754 -1.99954e-06 0)
(-0.000121766 -7.56484e-07 0)
(-0.000120251 -4.43351e-07 0)
(-0.000119227 -3.80423e-07 0)
(-0.000118523 -2.12979e-07 0)
(-0.000117914 -3.03983e-07 0)
(-0.000117041 -3.62032e-07 0)
(-0.000115832 -5.03701e-07 0)
(-0.000114444 -4.64972e-07 0)
(-0.000113179 -4.26385e-07 0)
(-0.000111786 -5.40314e-07 0)
(-0.000110063 -6.32971e-07 0)
(-0.00010776 -9.24278e-07 0)
(-0.000103585 -1.85094e-06 0)
(-9.84924e-05 -3.35635e-06 0)
(-9.30683e-05 -4.57564e-06 0)
(-8.57152e-05 -6.12695e-06 0)
(-7.5964e-05 -7.99728e-06 0)
(-6.3434e-05 -1.00617e-05 0)
(-4.8014e-05 -1.20639e-05 0)
(-3.00162e-05 -1.36729e-05 0)
(-1.02209e-05 -1.45743e-05 0)
(1.02209e-05 -1.45743e-05 0)
(3.00162e-05 -1.36729e-05 0)
(4.8014e-05 -1.20639e-05 0)
(6.3434e-05 -1.00617e-05 0)
(7.5964e-05 -7.99728e-06 0)
(8.57152e-05 -6.12695e-06 0)
(9.30683e-05 -4.57564e-06 0)
(9.84924e-05 -3.35635e-06 0)
(0.000103585 -1.85094e-06 0)
(0.00010776 -9.24278e-07 0)
(0.000110063 -6.32971e-07 0)
(0.000111786 -5.40314e-07 0)
(0.000113179 -4.26385e-07 0)
(0.000114444 -4.64972e-07 0)
(0.000115832 -5.03701e-07 0)
(0.000117041 -3.62032e-07 0)
(0.000117914 -3.03983e-07 0)
(0.000118523 -2.12979e-07 0)
(0.000119227 -3.80423e-07 0)
(0.000120251 -4.43351e-07 0)
(0.000121766 -7.56484e-07 0)
(0.000125754 -1.99954e-06 0)
(0.000129314 -5.39832e-07 0)
(0.000127812 9.54493e-07 0)
(0.000125873 -4.181e-07 0)
(0.000115953 4.75039e-06 0)
(7.78397e-05 -5.30977e-07 0)
(2.48776e-05 -1.1456e-10 0)
(8.69881e-14 -9.87407e-16 0)
(3.2356e-19 -9.87876e-16 0)
(2.1302e-19 -9.87881e-16 0)
(1.65907e-19 -9.87887e-16 0)
(1.33042e-19 -9.8789e-16 0)
(1.07468e-19 -9.87891e-16 0)
(8.62323e-20 -9.87892e-16 0)
(6.7772e-20 -9.87893e-16 0)
(5.1155e-20 -9.87894e-16 0)
(3.57673e-20 -9.87894e-16 0)
(2.11674e-20 -9.87894e-16 0)
(7.00843e-21 -9.87894e-16 0)
(-6.99425e-21 -9.87891e-16 0)
(-2.11234e-20 -9.87891e-16 0)
(-3.56886e-20 -9.8789e-16 0)
(-5.10321e-20 -9.8789e-16 0)
(-6.75877e-20 -9.87889e-16 0)
(-8.59545e-20 -9.87888e-16 0)
(-1.07033e-19 -9.87886e-16 0)
(-1.3231e-19 -9.87883e-16 0)
(-1.64543e-19 -9.87878e-16 0)
(-2.10101e-19 -9.87868e-16 0)
(-2.93667e-19 -9.87844e-16 0)
(-2.75993e-19 -9.87637e-16 0)
(-2.04766e-19 -9.87665e-16 0)
(-1.49337e-08 -7.94729e-16 0)
(-5.52062e-05 3.30502e-06 0)
(-0.00011454 -2.80006e-07 0)
(-0.000122251 2.021e-06 0)
(-0.000125707 -8.1772e-07 0)
(-0.000122454 -3.53444e-06 0)
(-0.000118631 -1.20577e-06 0)
(-0.000117557 -7.20424e-07 0)
(-0.000116723 -6.4073e-07 0)
(-0.000116167 -3.35767e-07 0)
(-0.000115687 -5.13625e-07 0)
(-0.000114905 -6.09492e-07 0)
(-0.000113755 -8.7159e-07 0)
(-0.000112407 -7.95828e-07 0)
(-0.000111225 -7.21687e-07 0)
(-0.000109907 -9.29795e-07 0)
(-0.000108266 -1.0777e-06 0)
(-0.000106154 -1.55578e-06 0)
(-0.000102346 -3.12576e-06 0)
(-9.76312e-05 -5.70618e-06 0)
(-9.25203e-05 -7.80023e-06 0)
(-8.55207e-05 -1.04829e-05 0)
(-7.61129e-05 -1.37496e-05 0)
(-6.38361e-05 -1.73897e-05 0)
(-4.8508e-05 -2.09446e-05 0)
(-3.04148e-05 -2.38153e-05 0)
(-1.03731e-05 -2.54286e-05 0)
(1.03731e-05 -2.54286e-05 0)
(3.04148e-05 -2.38153e-05 0)
(4.8508e-05 -2.09446e-05 0)
(6.38361e-05 -1.73897e-05 0)
(7.61129e-05 -1.37496e-05 0)
(8.55207e-05 -1.04829e-05 0)
(9.25203e-05 -7.80023e-06 0)
(9.76312e-05 -5.70618e-06 0)
(0.000102346 -3.12576e-06 0)
(0.000106154 -1.55578e-06 0)
(0.000108266 -1.0777e-06 0)
(0.000109907 -9.29795e-07 0)
(0.000111225 -7.21687e-07 0)
(0.000112407 -7.95828e-07 0)
(0.000113755 -8.7159e-07 0)
(0.000114905 -6.09492e-07 0)
(0.000115687 -5.13625e-07 0)
(0.000116167 -3.35767e-07 0)
(0.000116723 -6.4073e-07 0)
(0.000117557 -7.20424e-07 0)
(0.000118631 -1.20577e-06 0)
(0.000122454 -3.53444e-06 0)
(0.000125707 -8.1772e-07 0)
(0.000122251 2.021e-06 0)
(0.00011454 -2.80006e-07 0)
(5.52062e-05 3.30502e-06 0)
(1.49337e-08 -7.94729e-16 0)
(2.04766e-19 -9.87665e-16 0)
(2.75993e-19 -9.87637e-16 0)
(2.93667e-19 -9.87844e-16 0)
(2.10101e-19 -9.87868e-16 0)
(1.64543e-19 -9.87878e-16 0)
(1.3231e-19 -9.87883e-16 0)
(1.07033e-19 -9.87886e-16 0)
(8.59545e-20 -9.87888e-16 0)
(6.75877e-20 -9.87889e-16 0)
(5.10321e-20 -9.8789e-16 0)
(3.56886e-20 -9.8789e-16 0)
(2.11234e-20 -9.87891e-16 0)
(6.99425e-21 -9.87891e-16 0)
(-6.96988e-21 -9.87887e-16 0)
(-2.10477e-20 -9.87887e-16 0)
(-3.55535e-20 -9.87887e-16 0)
(-5.08214e-20 -9.87886e-16 0)
(-6.7272e-20 -9.87885e-16 0)
(-8.54797e-20 -9.87883e-16 0)
(-1.06293e-19 -9.8788e-16 0)
(-1.31071e-19 -9.87876e-16 0)
(-1.62211e-19 -9.87869e-16 0)
(-2.04517e-19 -9.87855e-16 0)
(-2.67227e-19 -9.8782e-16 0)
(-2.56661e-19 -9.87668e-16 0)
(-2.06803e-19 -9.87679e-16 0)
(-2.63124e-19 -9.87685e-16 0)
(-1.23439e-19 -9.85625e-16 0)
(-1.02938e-05 -1.18458e-12 0)
(-6.71112e-05 1.34912e-06 0)
(-0.000117325 -4.64721e-07 0)
(-0.000118041 -5.31143e-06 0)
(-0.000115078 -1.48318e-06 0)
(-0.000114927 -9.4699e-07 0)
(-0.000114406 -9.07383e-07 0)
(-0.000114067 -4.17791e-07 0)
(-0.000113772 -7.31468e-07 0)
(-0.000113095 -8.55599e-07 0)
(-0.000111997 -1.28273e-06 0)
(-0.000110662 -1.14705e-06 0)
(-0.000109582 -1.01797e-06 0)
(-0.000108347 -1.3512e-06 0)
(-0.000106793 -1.5347e-06 0)
(-0.00010495 -2.16681e-06 0)
(-0.000101691 -4.3747e-06 0)
(-9.75384e-05 -8.08189e-06 0)
(-9.28865e-05 -1.1095e-05 0)
(-8.6404e-05 -1.50019e-05 0)
(-7.74748e-05 -1.98454e-05 0)
(-6.54807e-05 -2.53365e-05 0)
(-5.01018e-05 -3.07619e-05 0)
(-3.15777e-05 -3.51814e-05 0)
(-1.07998e-05 -3.76781e-05 0)
(1.07998e-05 -3.76781e-05 0)
(3.15777e-05 -3.51814e-05 0)
(5.01018e-05 -3.07619e-05 0)
(6.54807e-05 -2.53365e-05 0)
(7.74748e-05 -1.98454e-05 0)
(8.6404e-05 -1.50019e-05 0)
(9.28865e-05 -1.1095e-05 0)
(9.75384e-05 -8.08189e-06 0)
(0.000101691 -4.3747e-06 0)
(0.00010495 -2.16681e-06 0)
(0.000106793 -1.5347e-06 0)
(0.000108347 -1.3512e-06 0)
(0.000109582 -1.01797e-06 0)
(0.000110662 -1.14705e-06 0)
(0.000111997 -1.28273e-06 0)
(0.000113095 -8.55599e-07 0)
(0.000113772 -7.31468e-07 0)
(0.000114067 -4.17791e-07 0)
(0.000114406 -9.07383e-07 0)
(0.000114927 -9.4699e-07 0)
(0.000115078 -1.48318e-06 0)
(0.000118041 -5.31143e-06 0)
(0.000117325 -4.64721e-07 0)
(6.71112e-05 1.34912e-06 0)
(1.02938e-05 -1.18458e-12 0)
(1.23439e-19 -9.85625e-16 0)
(2.63124e-19 -9.87685e-16 0)
(2.06803e-19 -9.87679e-16 0)
(2.56661e-19 -9.87668e-16 0)
(2.67227e-19 -9.8782e-16 0)
(2.04517e-19 -9.87855e-16 0)
(1.62211e-19 -9.87869e-16 0)
(1.31071e-19 -9.87876e-16 0)
(1.06293e-19 -9.8788e-16 0)
(8.54797e-20 -9.87883e-16 0)
(6.7272e-20 -9.87885e-16 0)
(5.08214e-20 -9.87886e-16 0)
(3.55535e-20 -9.87887e-16 0)
(2.10477e-20 -9.87887e-16 0)
(6.96988e-21 -9.87887e-16 0)
(-6.93273e-21 -9.87883e-16 0)
(-2.09325e-20 -9.87883e-16 0)
(-3.53478e-20 -9.87882e-16 0)
(-5.05011e-20 -9.87881e-16 0)
(-6.67932e-20 -9.8788e-16 0)
(-8.47624e-20 -9.87877e-16 0)
(-1.05182e-19 -9.87874e-16 0)
(-1.29233e-19 -9.87868e-16 0)
(-1.58812e-19 -9.87859e-16 0)
(-1.96852e-19 -9.87842e-16 0)
(-2.43754e-19 -9.87802e-16 0)
(-2.38421e-19 -9.8769e-16 0)
(-2.05215e-19 -9.87681e-16 0)
(-2.28392e-19 -9.87662e-16 0)
(-1.28808e-19 -9.8747e-16 0)
(-9.38021e-20 -9.87685e-16 0)
(-7.34936e-20 -8.88191e-16 0)
(-2.30034e-05 -5.90263e-10 0)
(-7.37249e-05 -3.13058e-06 0)
(-0.000105752 -7.78169e-07 0)
(-0.000110868 -9.596e-07 0)
(-0.00011159 -1.14315e-06 0)
(-0.000111834 -3.97935e-07 0)
(-0.000111913 -9.54155e-07 0)
(-0.000111419 -1.08025e-06 0)
(-0.000110393 -1.75877e-06 0)
(-0.000109047 -1.51794e-06 0)
(-0.000108111 -1.29683e-06 0)
(-0.000106978 -1.81494e-06 0)
(-0.000105512 -1.9923e-06 0)
(-0.000104038 -2.70605e-06 0)
(-0.000101567 -5.50241e-06 0)
(-9.82171e-05 -1.0371e-05 0)
(-9.42263e-05 -1.43162e-05 0)
(-8.85192e-05 -1.95312e-05 0)
(-8.03186e-05 -2.61932e-05 0)
(-6.87203e-05 -3.3964e-05 0)
(-5.31548e-05 -4.17783e-05 0)
(-3.37766e-05 -4.82307e-05 0)
(-1.16024e-05 -5.19054e-05 0)
(1.16024e-05 -5.19054e-05 0)
(3.37766e-05 -4.82307e-05 0)
(5.31548e-05 -4.17783e-05 0)
(6.87203e-05 -3.3964e-05 0)
(8.03186e-05 -2.61932e-05 0)
(8.85192e-05 -1.95312e-05 0)
(9.42263e-05 -1.43162e-05 0)
(9.82171e-05 -1.0371e-05 0)
(0.000101567 -5.50241e-06 0)
(0.000104038 -2.70605e-06 0)
(0.000105512 -1.9923e-06 0)
(0.000106978 -1.81494e-06 0)
(0.000108111 -1.29683e-06 0)
(0.000109047 -1.51794e-06 0)
(0.000110393 -1.75877e-06 0)
(0.000111419 -1.08025e-06 0)
(0.000111913 -9.54155e-07 0)
(0.000111834 -3.97935e-07 0)
(0.00011159 -1.14315e-06 0)
(0.000110868 -9.596e-07 0)
(0.000105752 -7.78169e-07 0)
(7.37249e-05 -3.13058e-06 0)
(2.30034e-05 -5.90263e-10 0)
(7.34936e-20 -8.88191e-16 0)
(9.38021e-20 -9.87685e-16 0)
(1.28808e-19 -9.8747e-16 0)
(2.28392e-19 -9.87662e-16 0)
(2.05215e-19 -9.87681e-16 0)
(2.38421e-19 -9.8769e-16 0)
(2.43754e-19 -9.87802e-16 0)
(1.96852e-19 -9.87842e-16 0)
(1.58812e-19 -9.87859e-16 0)
(1.29233e-19 -9.87868e-16 0)
(1.05182e-19 -9.87874e-16 0)
(8.47624e-20 -9.87877e-16 0)
(6.67932e-20 -9.8788e-16 0)
(5.05011e-20 -9.87881e-16 0)
(3.53478e-20 -9.87882e-16 0)
(2.09325e-20 -9.87883e-16 0)
(6.93273e-21 -9.87883e-16 0)
(-6.8798e-21 -9.87879e-16 0)
(-2.07684e-20 -9.87879e-16 0)
(-3.50553e-20 -9.87878e-16 0)
(-5.00464e-20 -9.87877e-16 0)
(-6.61159e-20 -9.87875e-16 0)
(-8.37534e-20 -9.87872e-16 0)
(-1.03633e-19 -9.87867e-16 0)
(-1.26715e-19 -9.87861e-16 0)
(-1.54315e-19 -9.8785e-16 0)
(-1.87642e-19 -9.8783e-16 0)
(-2.22747e-19 -9.87789e-16 0)
(-2.20943e-19 -9.87705e-16 0)
(-1.98357e-19 -9.87683e-16 0)
(-2.01435e-19 -9.87653e-16 0)
(-1.29765e-19 -9.87532e-16 0)
(-9.19818e-20 -9.87648e-16 0)
(-5.57684e-20 -9.8752e-16 0)
(3.54838e-20 -9.87581e-16 0)
(-1.07914e-15 -8.39744e-16 0)
(-1.2858e-05 -7.80433e-12 0)
(-6.18963e-05 -4.38901e-07 0)
(-0.000101754 -6.22221e-07 0)
(-0.000107298 2.60857e-08 0)
(-0.000109288 -1.11522e-06 0)
(-0.000109492 -1.21232e-06 0)
(-0.00010873 -2.32726e-06 0)
(-0.000107399 -1.8985e-06 0)
(-0.000106718 -1.51838e-06 0)
(-0.000105727 -2.34231e-06 0)
(-0.000104333 -2.43462e-06 0)
(-0.000103351 -3.09675e-06 0)
(-0.000101974 -6.36157e-06 0)
(-9.97226e-05 -1.24124e-05 0)
(-9.66545e-05 -1.7217e-05 0)
(-9.21312e-05 -2.37642e-05 0)
(-8.51173e-05 -3.25522e-05 0)
(-7.41855e-05 -4.32903e-05 0)
(-5.83163e-05 -5.43481e-05 0)
(-3.75083e-05 -6.36665e-05 0)
(-1.29677e-05 -6.90361e-05 0)
(1.29677e-05 -6.90361e-05 0)
(3.75083e-05 -6.36665e-05 0)
(5.83163e-05 -5.43481e-05 0)
(7.41855e-05 -4.32903e-05 0)
(8.51173e-05 -3.25522e-05 0)
(9.21312e-05 -2.37642e-05 0)
(9.66545e-05 -1.7217e-05 0)
(9.97226e-05 -1.24124e-05 0)
(0.000101974 -6.36157e-06 0)
(0.000103351 -3.09675e-06 0)
(0.000104333 -2.43462e-06 0)
(0.000105727 -2.34231e-06 0)
(0.000106718 -1.51838e-06 0)
(0.000107399 -1.8985e-06 0)
(0.00010873 -2.32726e-06 0)
(0.000109492 -1.21232e-06 0)
(0.000109288 -1.11522e-06 0)
(0.000107298 2.60857e-08 0)
(0.000101754 -6.22221e-07 0)
(6.18963e-05 -4.38901e-07 0)
(1.2858e-05 -7.80433e-12 0)
(1.07914e-15 -8.39744e-16 0)
(-3.54838e-20 -9.87581e-16 0)
(5.57684e-20 -9.8752e-16 0)
(9.19818e-20 -9.87648e-16 0)
(1.29765e-19 -9.87532e-16 0)
(2.01435e-19 -9.87653e-16 0)
(1.98357e-19 -9.87683e-16 0)
(2.20943e-19 -9.87705e-16 0)
(2.22747e-19 -9.87789e-16 0)
(1.87642e-19 -9.8783e-16 0)
(1.54315e-19 -9.8785e-16 0)
(1.26715e-19 -9.87861e-16 0)
(1.03633e-19 -9.87867e-16 0)
(8.37534e-20 -9.87872e-16 0)
(6.61159e-20 -9.87875e-16 0)
(5.00464e-20 -9.87877e-16 0)
(3.50553e-20 -9.87878e-16 0)
(2.07684e-20 -9.87879e-16 0)
(6.8798e-21 -9.87879e-16 0)
(-6.80766e-21 -9.87874e-16 0)
(-2.05449e-20 -9.87874e-16 0)
(-3.46576e-20 -9.87873e-16 0)
(-4.94299e-20 -9.87871e-16 0)
(-6.52019e-20 -9.87869e-16 0)
(-8.24019e-20 -9.87865e-16 0)
(-1.01586e-19 -9.8786e-16 0)
(-1.23459e-19 -9.87852e-16 0)
(-1.48758e-19 -9.8784e-16 0)
(-1.77346e-19 -9.87818e-16 0)
(-2.03735e-19 -9.8778e-16 0)
(-2.04042e-19 -9.87715e-16 0)
(-1.88035e-19 -9.87686e-16 0)
(-1.80027e-19 -9.87651e-16 0)
(-1.27115e-19 -9.87575e-16 0)
(-8.98139e-20 -9.8763e-16 0)
(-5.26894e-20 -9.87562e-16 0)
(9.40857e-21 -9.87621e-16 0)
(-3.49407e-21 -9.8769e-16 0)
(-5.72647e-20 -9.87682e-16 0)
(6.10356e-21 -8.90089e-16 0)
(-3.43992e-08 -7.16547e-16 0)
(-4.6171e-05 2.01744e-07 0)
(-9.6502e-05 -5.82355e-07 0)
(-0.000103354 -6.20578e-07 0)
(-0.000105598 -2.90554e-06 0)
(-0.000105067 -2.2109e-06 0)
(-0.000105129 -1.57709e-06 0)
(-0.000104461 -2.97281e-06 0)
(-0.000103127 -2.83911e-06 0)
(-0.000102797 -3.22694e-06 0)
(-0.000102919 -6.72668e-06 0)
(-0.000102094 -1.40277e-05 0)
(-0.000100245 -1.93877e-05 0)
(-9.75701e-05 -2.70931e-05 0)
(-9.26187e-05 -3.83432e-05 0)
(-8.2955e-05 -5.3216e-05 0)
(-6.67328e-05 -6.89467e-05 0)
(-4.36764e-05 -8.26206e-05 0)
(-1.52397e-05 -9.06296e-05 0)
(1.52397e-05 -9.06296e-05 0)
(4.36764e-05 -8.26206e-05 0)
(6.67328e-05 -6.89467e-05 0)
(8.2955e-05 -5.3216e-05 0)
(9.26187e-05 -3.83432e-05 0)
(9.75701e-05 -2.70931e-05 0)
(0.000100245 -1.93877e-05 0)
(0.000102094 -1.40277e-05 0)
(0.000102919 -6.72668e-06 0)
(0.000102797 -3.22694e-06 0)
(0.000103127 -2.83911e-06 0)
(0.000104461 -2.97281e-06 0)
(0.000105129 -1.57709e-06 0)
(0.000105067 -2.2109e-06 0)
(0.000105598 -2.90554e-06 0)
(0.000103354 -6.20578e-07 0)
(9.6502e-05 -5.82355e-07 0)
(4.6171e-05 2.01744e-07 0)
(3.43992e-08 -7.16547e-16 0)
(-6.10356e-21 -8.90089e-16 0)
(5.72647e-20 -9.87682e-16 0)
(3.49407e-21 -9.8769e-16 0)
(-9.40857e-21 -9.87621e-16 0)
(5.26894e-20 -9.87562e-16 0)
(8.98139e-20 -9.8763e-16 0)
(1.27115e-19 -9.87575e-16 0)
(1.80027e-19 -9.87651e-16 0)
(1.88035e-19 -9.87686e-16 0)
(2.04042e-19 -9.87715e-16 0)
(2.03735e-19 -9.8778e-16 0)
(1.77346e-19 -9.87818e-16 0)
(1.48758e-19 -9.8784e-16 0)
(1.23459e-19 -9.87852e-16 0)
(1.01586e-19 -9.8786e-16 0)
(8.24019e-20 -9.87865e-16 0)
(6.52019e-20 -9.87869e-16 0)
(4.94299e-20 -9.87871e-16 0)
(3.46576e-20 -9.87873e-16 0)
(2.05449e-20 -9.87874e-16 0)
(6.80766e-21 -9.87874e-16 0)
(-6.71253e-21 -9.87869e-16 0)
(-2.02505e-20 -9.87869e-16 0)
(-3.41348e-20 -9.87868e-16 0)
(-4.86225e-20 -9.87866e-16 0)
(-6.40118e-20 -9.87863e-16 0)
(-8.0659e-20 -9.87859e-16 0)
(-9.89867e-20 -9.87853e-16 0)
(-1.19439e-19 -9.87844e-16 0)
(-1.42231e-19 -9.8783e-16 0)
(-1.66342e-19 -9.87808e-16 0)
(-1.86307e-19 -9.87773e-16 0)
(-1.87647e-19 -9.87722e-16 0)
(-1.75662e-19 -9.87689e-16 0)
(-1.62444e-19 -9.87655e-16 0)
(-1.22159e-19 -9.87605e-16 0)
(-8.74129e-20 -9.87627e-16 0)
(-5.25916e-20 -9.87592e-16 0)
(-9.34247e-21 -9.87629e-16 0)
(-1.32375e-20 -9.87675e-16 0)
(-4.08348e-20 -9.87673e-16 0)
(-1.0109e-20 -9.87609e-16 0)
(-5.27116e-20 -9.87732e-16 0)
(4.44123e-20 -9.8515e-16 0)
(-2.36135e-16 -7.95376e-16 0)
(-8.02973e-06 -2.90057e-12 0)
(-5.19952e-05 -1.58643e-06 0)
(-9.25234e-05 -1.1664e-06 0)
(-9.97486e-05 -7.73102e-07 0)
(-0.000101845 -3.64918e-06 0)
(-0.000101241 -3.11689e-06 0)
(-0.000102041 -2.9153e-06 0)
(-0.000104338 -6.22932e-06 0)
(-0.000105226 -1.52103e-05 0)
(-0.000104796 -2.01572e-05 0)
(-0.000105096 -2.82935e-05 0)
(-0.000104 -4.21432e-05 0)
(-9.693e-05 -6.33871e-05 0)
(-8.04913e-05 -8.61526e-05 0)
(-5.40033e-05 -0.000107012 0)
(-1.90838e-05 -0.000119485 0)
(1.90838e-05 -0.000119485 0)
(5.40033e-05 -0.000107012 0)
(8.04913e-05 -8.61526e-05 0)
(9.693e-05 -6.33871e-05 0)
(0.000104 -4.21432e-05 0)
(0.000105096 -2.82935e-05 0)
(0.000104796 -2.01572e-05 0)
(0.000105226 -1.52103e-05 0)
(0.000104338 -6.22932e-06 0)
(0.000102041 -2.9153e-06 0)
(0.000101241 -3.11689e-06 0)
(0.000101845 -3.64918e-06 0)
(9.97486e-05 -7.73102e-07 0)
(9.25234e-05 -1.1664e-06 0)
(5.19952e-05 -1.58643e-06 0)
(8.02973e-06 -2.90057e-12 0)
(2.36135e-16 -7.95376e-16 0)
(-4.44123e-20 -9.8515e-16 0)
(5.27116e-20 -9.87732e-16 0)
(1.0109e-20 -9.87609e-16 0)
(4.08348e-20 -9.87673e-16 0)
(1.32375e-20 -9.87675e-16 0)
(9.34247e-21 -9.87629e-16 0)
(5.25916e-20 -9.87592e-16 0)
(8.74129e-20 -9.87627e-16 0)
(1.22159e-19 -9.87605e-16 0)
(1.62444e-19 -9.87655e-16 0)
(1.75662e-19 -9.87689e-16 0)
(1.87647e-19 -9.87722e-16 0)
(1.86307e-19 -9.87773e-16 0)
(1.66342e-19 -9.87808e-16 0)
(1.42231e-19 -9.8783e-16 0)
(1.19439e-19 -9.87844e-16 0)
(9.89867e-20 -9.87853e-16 0)
(8.0659e-20 -9.87859e-16 0)
(6.40118e-20 -9.87863e-16 0)
(4.86225e-20 -9.87866e-16 0)
(3.41348e-20 -9.87868e-16 0)
(2.02505e-20 -9.87869e-16 0)
(6.71253e-21 -9.87869e-16 0)
(-6.59035e-21 -9.87864e-16 0)
(-1.98728e-20 -9.87863e-16 0)
(-3.3466e-20 -9.87862e-16 0)
(-4.75945e-20 -9.8786e-16 0)
(-6.25077e-20 -9.87857e-16 0)
(-7.84819e-20 -9.87852e-16 0)
(-9.58003e-20 -9.87845e-16 0)
(-1.1466e-19 -9.87836e-16 0)
(-1.34863e-19 -9.87821e-16 0)
(-1.54927e-19 -9.878e-16 0)
(-1.70135e-19 -9.87767e-16 0)
(-1.71769e-19 -9.87726e-16 0)
(-1.62286e-19 -9.87694e-16 0)
(-1.47433e-19 -9.87662e-16 0)
(-1.15848e-19 -9.87627e-16 0)
(-8.47913e-20 -9.87631e-16 0)
(-5.38159e-20 -9.87614e-16 0)
(-2.24613e-20 -9.87637e-16 0)
(-2.018e-20 -9.87667e-16 0)
(-3.20279e-20 -9.87665e-16 0)
(-1.63111e-20 -9.87635e-16 0)
(-2.87756e-20 -9.87684e-16 0)
(3.04491e-20 -9.87548e-16 0)
(6.34538e-20 -9.87741e-16 0)
(-2.15713e-20 -9.87702e-16 0)
(6.53934e-20 -9.28335e-16 0)
(-1.25018e-16 -7.70731e-16 0)
(-5.5224e-06 -1.04044e-12 0)
(-4.65767e-05 -1.98912e-06 0)
(-8.7364e-05 -1.60264e-06 0)
(-9.62884e-05 -1.31014e-06 0)
(-0.000104396 -3.9569e-06 0)
(-0.000107753 -1.68259e-05 0)
(-0.000108652 -1.82479e-05 0)
(-0.000114152 -2.48286e-05 0)
(-0.000121052 -4.00933e-05 0)
(-0.000119585 -7.31445e-05 0)
(-0.000103491 -0.000106295 0)
(-7.19953e-05 -0.000140302 0)
(-2.58741e-05 -0.000161003 0)
(2.58741e-05 -0.000161003 0)
(7.19953e-05 -0.000140302 0)
(0.000103491 -0.000106295 0)
(0.000119585 -7.31445e-05 0)
(0.000121052 -4.00933e-05 0)
(0.000114152 -2.48286e-05 0)
(0.000108652 -1.82479e-05 0)
(0.000107753 -1.68259e-05 0)
(0.000104396 -3.9569e-06 0)
(9.62884e-05 -1.31014e-06 0)
(8.7364e-05 -1.60264e-06 0)
(4.65767e-05 -1.98912e-06 0)
(5.5224e-06 -1.04044e-12 0)
(1.25018e-16 -7.70731e-16 0)
(-6.53934e-20 -9.28335e-16 0)
(2.15713e-20 -9.87702e-16 0)
(-6.34538e-20 -9.87741e-16 0)
(-3.04491e-20 -9.87548e-16 0)
(2.87756e-20 -9.87684e-16 0)
(1.63111e-20 -9.87635e-16 0)
(3.20279e-20 -9.87665e-16 0)
(2.018e-20 -9.87667e-16 0)
(2.24613e-20 -9.87637e-16 0)
(5.38159e-20 -9.87614e-16 0)
(8.47913e-20 -9.87631e-16 0)
(1.15848e-19 -9.87627e-16 0)
(1.47433e-19 -9.87662e-16 0)
(1.62286e-19 -9.87694e-16 0)
(1.71769e-19 -9.87726e-16 0)
(1.70135e-19 -9.87767e-16 0)
(1.54927e-19 -9.878e-16 0)
(1.34863e-19 -9.87821e-16 0)
(1.1466e-19 -9.87836e-16 0)
(9.58003e-20 -9.87845e-16 0)
(7.84819e-20 -9.87852e-16 0)
(6.25077e-20 -9.87857e-16 0)
(4.75945e-20 -9.8786e-16 0)
(3.3466e-20 -9.87862e-16 0)
(1.98728e-20 -9.87863e-16 0)
(6.59035e-21 -9.87864e-16 0)
(-6.43699e-21 -9.87858e-16 0)
(-1.93996e-20 -9.87857e-16 0)
(-3.26308e-20 -9.87856e-16 0)
(-4.63179e-20 -9.87854e-16 0)
(-6.06564e-20 -9.8785e-16 0)
(-7.58386e-20 -9.87845e-16 0)
(-9.20125e-20 -9.87838e-16 0)
(-1.09163e-19 -9.87827e-16 0)
(-1.26809e-19 -9.87813e-16 0)
(-1.43331e-19 -9.87792e-16 0)
(-1.54976e-19 -9.87763e-16 0)
(-1.56466e-19 -9.87729e-16 0)
(-1.48637e-19 -9.87699e-16 0)
(-1.34149e-19 -9.87671e-16 0)
(-1.08826e-19 -9.87644e-16 0)
(-8.19003e-20 -9.8764e-16 0)
(-5.52308e-20 -9.87631e-16 0)
(-3.1325e-20 -9.87645e-16 0)
(-2.51093e-20 -9.87663e-16 0)
(-2.76069e-20 -9.87663e-16 0)
(-1.77578e-20 -9.87649e-16 0)
(-1.61467e-20 -9.87666e-16 0)
(2.01171e-20 -9.87608e-16 0)
(3.93115e-20 -9.87704e-16 0)
(3.56233e-21 -9.87691e-16 0)
(4.54639e-20 -9.87628e-16 0)
(4.63017e-20 -9.87761e-16 0)
(-3.1822e-20 -9.8772e-16 0)
(6.31584e-20 -9.45529e-16 0)
(9.59438e-20 -8.0871e-16 0)
(-2.97372e-08 -7.08262e-16 0)
(-3.3492e-05 -1.10337e-06 0)
(-7.63996e-05 -8.96927e-06 0)
(-9.41535e-05 -8.2042e-06 0)
(-0.000112951 -1.07502e-05 0)
(-0.000141211 -1.84523e-05 0)
(-0.000154487 -8.26548e-05 0)
(-0.000141469 -0.000126161 0)
(-0.000105014 -0.000189101 0)
(-3.85553e-05 -0.000226384 0)
(3.85553e-05 -0.000226384 0)
(0.000105014 -0.000189101 0)
(0.000141469 -0.000126161 0)
(0.000154487 -8.26548e-05 0)
(0.000141211 -1.84523e-05 0)
(0.000112951 -1.07502e-05 0)
(9.41535e-05 -8.2042e-06 0)
(7.63996e-05 -8.96927e-06 0)
(3.3492e-05 -1.10337e-06 0)
(2.97372e-08 -7.08262e-16 0)
(-9.59438e-20 -8.0871e-16 0)
(-6.31584e-20 -9.45529e-16 0)
(3.1822e-20 -9.8772e-16 0)
(-4.63017e-20 -9.87761e-16 0)
(-4.54639e-20 -9.87628e-16 0)
(-3.56233e-21 -9.87691e-16 0)
(-3.93115e-20 -9.87704e-16 0)
(-2.01171e-20 -9.87608e-16 0)
(1.61467e-20 -9.87666e-16 0)
(1.77578e-20 -9.87649e-16 0)
(2.76069e-20 -9.87663e-16 0)
(2.51093e-20 -9.87663e-16 0)
(3.1325e-20 -9.87645e-16 0)
(5.52308e-20 -9.87631e-16 0)
(8.19003e-20 -9.8764e-16 0)
(1.08826e-19 -9.87644e-16 0)
(1.34149e-19 -9.87671e-16 0)
(1.48637e-19 -9.87699e-16 0)
(1.56466e-19 -9.87729e-16 0)
(1.54976e-19 -9.87763e-16 0)
(1.43331e-19 -9.87792e-16 0)
(1.26809e-19 -9.87813e-16 0)
(1.09163e-19 -9.87827e-16 0)
(9.20125e-20 -9.87838e-16 0)
(7.58386e-20 -9.87845e-16 0)
(6.06564e-20 -9.8785e-16 0)
(4.63179e-20 -9.87854e-16 0)
(3.26308e-20 -9.87856e-16 0)
(1.93996e-20 -9.87857e-16 0)
(6.43699e-21 -9.87858e-16 0)
(-6.24854e-21 -9.87852e-16 0)
(-1.88191e-20 -9.87851e-16 0)
(-3.16104e-20 -9.8785e-16 0)
(-4.47687e-20 -9.87847e-16 0)
(-5.84329e-20 -9.87843e-16 0)
(-7.27125e-20 -9.87837e-16 0)
(-8.76346e-20 -9.8783e-16 0)
(-1.03021e-19 -9.87819e-16 0)
(-1.18231e-19 -9.87805e-16 0)
(-1.31726e-19 -9.87785e-16 0)
(-1.40671e-19 -9.8776e-16 0)
(-1.41812e-19 -9.87731e-16 0)
(-1.35187e-19 -9.87704e-16 0)
(-1.22056e-19 -9.87679e-16 0)
(-1.0149e-19 -9.87658e-16 0)
(-7.86708e-20 -9.8765e-16 0)
(-5.61507e-20 -9.87645e-16 0)
(-3.70022e-20 -9.87652e-16 0)
(-2.85238e-20 -9.87663e-16 0)
(-2.55808e-20 -9.87663e-16 0)
(-1.7461e-20 -9.87657e-16 0)
(-1.02178e-20 -9.87662e-16 0)
(1.26873e-20 -9.87641e-16 0)
(2.53938e-20 -9.87687e-16 0)
(1.33757e-20 -9.87685e-16 0)
(3.29935e-20 -9.87663e-16 0)
(3.18772e-20 -9.87725e-16 0)
(-3.75293e-22 -9.87706e-16 0)
(4.40821e-20 -9.87636e-16 0)
(5.39344e-20 -9.87766e-16 0)
(-3.52113e-20 -9.87757e-16 0)
(6.30059e-20 -9.85827e-16 0)
(1.58676e-19 -9.04187e-16 0)
(7.06412e-20 -8.46411e-16 0)
(-9.73238e-13 -7.8163e-16 0)
(-3.60704e-06 -4.90799e-09 0)
(-4.77078e-05 -4.37446e-05 0)
(-0.000140315 -7.56988e-05 0)
(-0.000156931 -0.000259531 0)
(-6.07173e-05 -0.000337013 0)
(6.07173e-05 -0.000337013 0)
(0.000156931 -0.000259531 0)
(0.000140315 -7.56988e-05 0)
(4.77078e-05 -4.37446e-05 0)
(3.60704e-06 -4.90799e-09 0)
(9.73238e-13 -7.8163e-16 0)
(-7.06412e-20 -8.46411e-16 0)
(-1.58676e-19 -9.04187e-16 0)
(-6.30059e-20 -9.85827e-16 0)
(3.52113e-20 -9.87757e-16 0)
(-5.39344e-20 -9.87766e-16 0)
(-4.40821e-20 -9.87636e-16 0)
(3.75293e-22 -9.87706e-16 0)
(-3.18772e-20 -9.87725e-16 0)
(-3.29935e-20 -9.87663e-16 0)
(-1.33757e-20 -9.87685e-16 0)
(-2.53938e-20 -9.87687e-16 0)
(-1.26873e-20 -9.87641e-16 0)
(1.02178e-20 -9.87662e-16 0)
(1.7461e-20 -9.87657e-16 0)
(2.55808e-20 -9.87663e-16 0)
(2.85238e-20 -9.87663e-16 0)
(3.70022e-20 -9.87652e-16 0)
(5.61507e-20 -9.87645e-16 0)
(7.86708e-20 -9.8765e-16 0)
(1.0149e-19 -9.87658e-16 0)
(1.22056e-19 -9.87679e-16 0)
(1.35187e-19 -9.87704e-16 0)
(1.41812e-19 -9.87731e-16 0)
(1.40671e-19 -9.8776e-16 0)
(1.31726e-19 -9.87785e-16 0)
(1.18231e-19 -9.87805e-16 0)
(1.03021e-19 -9.87819e-16 0)
(8.76346e-20 -9.8783e-16 0)
(7.27125e-20 -9.87837e-16 0)
(5.84329e-20 -9.87843e-16 0)
(4.47687e-20 -9.87847e-16 0)
(3.16104e-20 -9.8785e-16 0)
(1.88191e-20 -9.87851e-16 0)
(6.24854e-21 -9.87852e-16 0)
(-6.02162e-21 -9.87845e-16 0)
(-1.81217e-20 -9.87845e-16 0)
(-3.03902e-20 -9.87843e-16 0)
(-4.29304e-20 -9.8784e-16 0)
(-5.58248e-20 -9.87836e-16 0)
(-6.91071e-20 -9.8783e-16 0)
(-8.27052e-20 -9.87822e-16 0)
(-9.63317e-20 -9.87812e-16 0)
(-1.09294e-19 -9.87798e-16 0)
(-1.2025e-19 -9.87779e-16 0)
(-1.27128e-19 -9.87757e-16 0)
(-1.27875e-19 -9.87732e-16 0)
(-1.22225e-19 -9.87709e-16 0)
(-1.10838e-19 -9.87687e-16 0)
(-9.40636e-20 -9.8767e-16 0)
(-7.50462e-20 -9.87661e-16 0)
(-5.62324e-20 -9.87656e-16 0)
(-4.02943e-20 -9.8766e-16 0)
(-3.07462e-20 -9.87665e-16 0)
(-2.47825e-20 -9.87666e-16 0)
(-1.68945e-20 -9.87663e-16 0)
(-8.02282e-21 -9.87664e-16 0)
(7.34341e-21 -9.87659e-16 0)
(1.69291e-20 -9.87681e-16 0)
(1.54376e-20 -9.87684e-16 0)
(2.50186e-20 -9.8768e-16 0)
(2.46204e-20 -9.87708e-16 0)
(1.30167e-20 -9.877e-16 0)
(3.26769e-20 -9.87676e-16 0)
(3.5081e-20 -9.87733e-16 0)
(6.17343e-22 -9.87725e-16 0)
(4.16431e-20 -9.87642e-16 0)
(8.64405e-20 -9.87743e-16 0)
(5.98941e-20 -9.87767e-16 0)
(3.63174e-20 -9.87764e-16 0)
(3.51688e-20 -9.87718e-16 0)
(-8.70057e-10 -3.13109e-15 0)
(-4.11967e-06 -1.1321e-05 0)
(-3.70235e-05 -0.000264697 0)
(-3.29047e-05 -0.000448924 0)
(3.29047e-05 -0.000448924 0)
(3.70235e-05 -0.000264697 0)
(4.11967e-06 -1.1321e-05 0)
(8.70057e-10 -3.13109e-15 0)
(-3.51688e-20 -9.87718e-16 0)
(-3.63174e-20 -9.87764e-16 0)
(-5.98941e-20 -9.87767e-16 0)
(-8.64405e-20 -9.87743e-16 0)
(-4.16431e-20 -9.87642e-16 0)
(-6.17343e-22 -9.87725e-16 0)
(-3.5081e-20 -9.87733e-16 0)
(-3.26769e-20 -9.87676e-16 0)
(-1.30167e-20 -9.877e-16 0)
(-2.46204e-20 -9.87708e-16 0)
(-2.50186e-20 -9.8768e-16 0)
(-1.54376e-20 -9.87684e-16 0)
(-1.69291e-20 -9.87681e-16 0)
(-7.34341e-21 -9.87659e-16 0)
(8.02282e-21 -9.87664e-16 0)
(1.68945e-20 -9.87663e-16 0)
(2.47825e-20 -9.87666e-16 0)
(3.07462e-20 -9.87665e-16 0)
(4.02943e-20 -9.8766e-16 0)
(5.62324e-20 -9.87656e-16 0)
(7.50462e-20 -9.87661e-16 0)
(9.40636e-20 -9.8767e-16 0)
(1.10838e-19 -9.87687e-16 0)
(1.22225e-19 -9.87709e-16 0)
(1.27875e-19 -9.87732e-16 0)
(1.27128e-19 -9.87757e-16 0)
(1.2025e-19 -9.87779e-16 0)
(1.09294e-19 -9.87798e-16 0)
(9.63317e-20 -9.87812e-16 0)
(8.27052e-20 -9.87822e-16 0)
(6.91071e-20 -9.8783e-16 0)
(5.58248e-20 -9.87836e-16 0)
(4.29304e-20 -9.8784e-16 0)
(3.03902e-20 -9.87843e-16 0)
(1.81217e-20 -9.87845e-16 0)
(6.02162e-21 -9.87845e-16 0)
(-5.75392e-21 -9.87838e-16 0)
(-1.7301e-20 -9.87838e-16 0)
(-2.89619e-20 -9.87836e-16 0)
(-4.0797e-20 -9.87833e-16 0)
(-5.28359e-20 -9.87828e-16 0)
(-6.5048e-20 -9.87822e-16 0)
(-7.72891e-20 -9.87814e-16 0)
(-8.92147e-20 -9.87804e-16 0)
(-1.00157e-19 -9.87791e-16 0)
(-1.09011e-19 -9.87774e-16 0)
(-1.14302e-19 -9.87755e-16 0)
(-1.14705e-19 -9.87734e-16 0)
(-1.09907e-19 -9.87713e-16 0)
(-1.00316e-19 -9.87695e-16 0)
(-8.66602e-20 -9.8768e-16 0)
(-7.10034e-20 -9.87671e-16 0)
(-5.53705e-20 -9.87666e-16 0)
(-4.17907e-20 -9.87667e-16 0)
(-3.19978e-20 -9.87669e-16 0)
(-2.45436e-20 -9.8767e-16 0)
(-1.65985e-20 -9.87669e-16 0)
(-7.76436e-21 -9.87669e-16 0)
(3.39483e-21 -9.87669e-16 0)
(1.13103e-20 -9.87681e-16 0)
(1.40353e-20 -9.87685e-16 0)
(1.95736e-20 -9.87687e-16 0)
(2.03688e-20 -9.87701e-16 0)
(1.73601e-20 -9.87699e-16 0)
(2.58775e-20 -9.87693e-16 0)
(2.66017e-20 -9.87718e-16 0)
(1.49357e-20 -9.87714e-16 0)
(3.20938e-20 -9.87687e-16 0)
(5.09915e-20 -9.87725e-16 0)
(4.31314e-20 -9.8774e-16 0)
(3.25548e-20 -9.87746e-16 0)
(2.37637e-20 -9.87749e-16 0)
(1.25461e-20 -1.63481e-15 0)
(-1.00074e-07 -6.19045e-06 0)
(-4.23816e-06 -0.000223055 0)
(-4.13809e-06 -0.00049667 0)
(4.13809e-06 -0.00049667 0)
(4.23816e-06 -0.000223055 0)