/*--------------------------------*- C++ -*----------------------------------*\
  =========                 |
  \\      /  F ield         | OpenFOAM: The Open Source CFD Toolbox
   \\    /   O peration     | Website:  https://openfoam.org
    \\  /    A nd           | Version:  10
     \\/     M anipulation  |
\*---------------------------------------------------------------------------*/
FoamFile
{
    format      ascii;
    class       volVectorField;
    location    "18250";
    object      Ua;
}
// * * * * * * * * * * * * * * * * * * * * * * * * * * * * * * * * * * * * * //

dimensions      [0 1 -1 0 0 0 0];

internalField   nonuniform List<vector> 
3200
(
(-4.82751e-07 6.97171e-07 0)
(-1.4539e-06 7.17979e-07 0)
(-2.45093e-06 7.61118e-07 0)
(-3.5051e-06 8.31002e-07 0)
(-4.65426e-06 9.35951e-07 0)
(-5.94868e-06 1.09036e-06 0)
(-7.46039e-06 1.31892e-06 0)
(-9.29925e-06 1.66486e-06 0)
(-1.16424e-05 2.2062e-06 0)
(-1.47902e-05 3.08875e-06 0)
(-1.92762e-05 4.59452e-06 0)
(-2.6089e-05 7.28633e-06 0)
(-3.71298e-05 1.23182e-05 0)
(-5.58619e-05 2.20984e-05 0)
(-3.67109e-05 4.18443e-05 0)
(-3.81652e-06 1.73625e-05 0)
(-1.45887e-06 7.16631e-06 0)
(-8.11701e-07 4.25852e-06 0)
(-5.18596e-07 2.88826e-06 0)
(-3.58609e-07 2.10858e-06 0)
(-2.61636e-07 1.61654e-06 0)
(-1.98603e-07 1.28434e-06 0)
(-1.55477e-07 1.04883e-06 0)
(-1.24777e-07 8.75483e-07 0)
(-1.02212e-07 7.44034e-07 0)
(-8.51854e-08 6.41875e-07 0)
(-7.20494e-08 5.6084e-07 0)
(-6.17212e-08 4.95427e-07 0)
(-5.34712e-08 4.41818e-07 0)
(-4.67726e-08 3.96413e-07 0)
(-4.0723e-08 3.5293e-07 0)
(-3.53218e-08 3.18321e-07 0)
(-3.10446e-08 2.90216e-07 0)
(-2.75099e-08 2.66855e-07 0)
(-2.43698e-08 2.46887e-07 0)
(-2.13183e-08 2.29158e-07 0)
(-1.80677e-08 2.127e-07 0)
(-1.43078e-08 1.96796e-07 0)
(-9.61345e-09 1.80699e-07 0)
(-3.63753e-09 1.62296e-07 0)
(-4.52433e-07 2.04773e-06 0)
(-1.3596e-06 2.10445e-06 0)
(-2.28144e-06 2.22121e-06 0)
(-3.23831e-06 2.40804e-06 0)
(-4.25143e-06 2.68341e-06 0)
(-5.34318e-06 3.07786e-06 0)
(-6.53568e-06 3.64058e-06 0)
(-7.84527e-06 4.45082e-06 0)
(-9.26682e-06 5.63781e-06 0)
(-1.07334e-05 7.41547e-06 0)
(-1.2017e-05 1.01431e-05 0)
(-1.24898e-05 1.44316e-05 0)
(-1.0558e-05 2.1327e-05 0)
(-2.33951e-06 3.26117e-05 0)
(9.90808e-06 3.0009e-05 0)
(1.33381e-05 7.97143e-06 0)
(9.12893e-06 5.61773e-06 0)
(6.03925e-06 4.36025e-06 0)
(3.61099e-06 3.62109e-06 0)
(1.53116e-06 3.19471e-06 0)
(-4.02978e-07 2.9887e-06 0)
(-2.34602e-06 2.96968e-06 0)
(-4.44594e-06 3.14641e-06 0)
(-6.87923e-06 3.57065e-06 0)
(-9.89254e-06 4.35338e-06 0)
(-1.38649e-05 5.70106e-06 0)
(-1.94114e-05 7.98525e-06 0)
(-2.75625e-05 1.18711e-05 0)
(-3.97295e-05 1.8526e-05 0)
(-2.5672e-05 1.13853e-05 0)
(-3.05873e-06 1.18033e-06 0)
(-1.42431e-06 9.40132e-07 0)
(-8.94345e-07 8.22858e-07 0)
(-6.19624e-07 7.26706e-07 0)
(-4.51644e-07 6.40707e-07 0)
(-3.38269e-07 5.60404e-07 0)
(-2.54274e-07 4.8131e-07 0)
(-1.83615e-07 3.97829e-07 0)
(-1.11741e-07 3.0208e-07 0)
(-3.72193e-08 2.02203e-07 0)
(-4.00108e-07 3.27894e-06 0)
(-1.19809e-06 3.35784e-06 0)
(-1.9957e-06 3.51837e-06 0)
(-2.79986e-06 3.77012e-06 0)
(-3.61402e-06 4.13023e-06 0)
(-4.43555e-06 4.62496e-06 0)
(-5.25095e-06 5.29178e-06 0)
(-6.02731e-06 6.18156e-06 0)
(-6.69805e-06 7.35931e-06 0)
(-7.14086e-06 8.89888e-06 0)
(-7.149e-06 1.08614e-05 0)
(-6.40956e-06 1.32322e-05 0)
(-4.54346e-06 1.57593e-05 0)
(-1.37876e-06 1.75671e-05 0)
(2.05861e-06 1.62723e-05 0)
(3.81835e-06 1.21699e-05 0)
(3.73885e-06 9.5747e-06 0)
(2.93099e-06 7.94656e-06 0)
(1.84908e-06 6.95088e-06 0)
(6.70611e-07 6.40095e-06 0)
(-5.38355e-07 6.20161e-06 0)
(-1.75154e-06 6.31947e-06 0)
(-2.94599e-06 6.77053e-06 0)
(-4.07323e-06 7.62013e-06 0)
(-5.02032e-06 8.99334e-06 0)
(-5.54113e-06 1.10969e-05 0)
(-5.1259e-06 1.42558e-05 0)
(-2.75158e-06 1.89689e-05 0)
(3.58349e-06 2.59657e-05 0)
(1.00216e-05 1.76635e-05 0)
(1.04545e-05 5.74572e-06 0)
(7.78802e-06 4.44371e-06 0)
(5.73808e-06 3.65474e-06 0)
(4.09006e-06 3.12847e-06 0)
(2.68496e-06 2.77503e-06 0)
(1.41056e-06 2.55288e-06 0)
(1.74712e-07 2.44926e-06 0)
(-1.02708e-06 2.42895e-06 0)
(-9.43461e-07 5.53908e-07 0)
(-8.95935e-08 1.7385e-07 0)
(-3.37476e-07 4.34413e-06 0)
(-1.00656e-06 4.43022e-06 0)
(-1.66329e-06 4.60307e-06 0)
(-2.30482e-06 4.86812e-06 0)
(-2.92407e-06 5.23514e-06 0)
(-3.50741e-06 5.71766e-06 0)
(-4.03154e-06 6.33168e-06 0)
(-4.45966e-06 7.09294e-06 0)
(-4.73764e-06 8.01102e-06 0)
(-4.79211e-06 9.07821e-06 0)
(-4.53546e-06 1.02502e-05 0)
(-3.88663e-06 1.14166e-05 0)
(-2.82091e-06 1.23669e-05 0)
(-1.45624e-06 1.2779e-05 0)
(-1.34678e-07 1.2332e-05 0)
(7.35805e-07 1.12219e-05 0)
(1.04013e-06 1.01081e-05 0)
(9.24332e-07 9.208e-06 0)
(5.45219e-07 8.57224e-06 0)
(2.07273e-08 8.19781e-06 0)
(-5.65064e-07 8.07078e-06 0)
(-1.14648e-06 8.18102e-06 0)
(-1.66128e-06 8.5251e-06 0)
(-2.03798e-06 9.10281e-06 0)
(-2.18608e-06 9.90709e-06 0)
(-1.99239e-06 1.09035e-05 0)
(-1.33337e-06 1.199e-05 0)
(-1.27342e-07 1.29203e-05 0)
(1.52015e-06 1.31607e-05 0)
(2.96763e-06 1.16305e-05 0)
(3.54631e-06 9.39699e-06 0)
(3.3767e-06 7.83281e-06 0)
(2.86864e-06 6.72888e-06 0)
(2.2265e-06 5.94487e-06 0)
(1.5555e-06 5.39469e-06 0)
(9.17855e-07 5.02987e-06 0)
(3.63468e-07 4.83017e-06 0)
(-6.58311e-08 4.75336e-06 0)
(-1.56211e-07 1.14014e-06 0)
(8.87696e-09 5.4671e-08 0)
(-2.74679e-07 5.22819e-06 0)
(-8.16302e-07 5.31013e-06 0)
(-1.33919e-06 5.47259e-06 0)
(-1.83567e-06 5.71649e-06 0)
(-2.29517e-06 6.04424e-06 0)
(-2.70296e-06 6.45844e-06 0)
(-3.03921e-06 6.95996e-06 0)
(-3.27849e-06 7.54494e-06 0)
(-3.39075e-06 8.20058e-06 0)
(-3.34466e-06 8.89946e-06 0)
(-3.11515e-06 9.59347e-06 0)
(-2.69602e-06 1.02098e-05 0)
(-2.11674e-06 1.06549e-05 0)
(-1.45618e-06 1.08367e-05 0)
(-8.36306e-07 1.07133e-05 0)
(-3.74429e-07 1.03576e-05 0)
(-1.226e-07 9.92061e-06 0)
(-6.49685e-08 9.51253e-06 0)
(-1.55199e-07 9.1956e-06 0)
(-3.40032e-07 8.99915e-06 0)
(-5.68608e-07 8.93315e-06 0)
(-7.94223e-07 8.99596e-06 0)
(-9.73403e-07 9.1773e-06 0)
(-1.0652e-06 9.45718e-06 0)
(-1.03271e-06 9.80212e-06 0)
(-8.48477e-07 1.01592e-05 0)
(-5.05508e-07 1.04505e-05 0)
(-3.38255e-08 1.05723e-05 0)
(4.82252e-07 1.04115e-05 0)
(9.05652e-07 9.90525e-06 0)
(1.12153e-06 9.1975e-06 0)
(1.11329e-06 8.48149e-06 0)
(9.30243e-07 7.8312e-06 0)
(6.31666e-07 7.26506e-06 0)
(2.71225e-07 6.77663e-06 0)
(-1.04115e-07 6.34822e-06 0)
(-4.51004e-07 5.9562e-06 0)
(-7.26559e-07 5.57208e-06 0)
(-4.41429e-07 1.54104e-06 0)
(1.00867e-08 8.99681e-09 0)
(-2.18082e-07 5.93981e-06 0)
(-6.46223e-07 6.01136e-06 0)
(-1.05413e-06 6.15165e-06 0)
(-1.43292e-06 6.35851e-06 0)
(-1.77243e-06 6.62961e-06 0)
(-2.06084e-06 6.96143e-06 0)
(-2.28469e-06 7.34784e-06 0)
(-2.42961e-06 7.77848e-06 0)
(-2.48198e-06 8.23691e-06 0)
(-2.43169e-06 8.69915e-06 0)
(-2.27624e-06 9.1333e-06 0)
(-2.02535e-06 9.50169e-06 0)
(-1.70458e-06 9.76692e-06 0)
(-1.35497e-06 9.90258e-06 0)
(-1.02579e-06 9.90636e-06 0)
(-7.60094e-07 9.80728e-06 0)
(-5.81235e-07 9.65424e-06 0)
(-4.90479e-07 9.49379e-06 0)
(-4.73574e-07 9.36049e-06 0)
(-5.08202e-07 9.27555e-06 0)
(-5.69277e-07 9.24864e-06 0)
(-6.32153e-07 9.27993e-06 0)
(-6.74637e-07 9.36152e-06 0)
(-6.78711e-07 9.47803e-06 0)
(-6.32601e-07 9.60698e-06 0)
(-5.33391e-07 9.71954e-06 0)
(-3.8986e-07 9.78284e-06 0)
(-2.24369e-07 9.7651e-06 0)
(-7.16889e-08 9.64459e-06 0)
(2.78793e-08 9.42135e-06 0)
(4.17151e-08 9.12468e-06 0)
(-4.51281e-08 8.79384e-06 0)
(-2.31896e-07 8.45643e-06 0)
(-5.09554e-07 8.12462e-06 0)
(-8.66041e-07 7.7963e-06 0)
(-1.28833e-06 7.45597e-06 0)
(-1.76146e-06 7.07411e-06 0)
(-2.26403e-06 6.60387e-06 0)
(-1.27722e-06 1.28302e-06 0)
(1.28515e-08 5.26974e-09 0)
(-1.70437e-07 6.5009e-06 0)
(-5.03991e-07 6.55995e-06 0)
(-8.18822e-07 6.67474e-06 0)
(-1.10675e-06 6.84161e-06 0)
(-1.35946e-06 7.05614e-06 0)
(-1.56856e-06 7.3125e-06 0)
(-1.72583e-06 7.60282e-06 0)
(-1.82402e-06 7.91655e-06 0)
(-1.85795e-06 8.24003e-06 0)
(-1.826e-06 8.55661e-06 0)
(-1.73172e-06 8.84759e-06 0)
(-1.585e-06 9.09433e-06 0)
(-1.40222e-06 9.28149e-06 0)
(-1.2046e-06 9.40101e-06 0)
(-1.0145e-06 9.45514e-06 0)
(-8.50669e-07 9.45676e-06 0)
(-7.24372e-07 9.4254e-06 0)
(-6.38366e-07 9.38141e-06 0)
(-5.88342e-07 9.34179e-06 0)
(-5.65404e-07 9.31825e-06 0)
(-5.58514e-07 9.31683e-06 0)
(-5.56519e-07 9.33823e-06 0)
(-5.49774e-07 9.37849e-06 0)
(-5.31462e-07 9.42981e-06 0)
(-4.98707e-07 9.48158e-06 0)
(-4.53423e-07 9.52178e-06 0)
(-4.02723e-07 9.53888e-06 0)
(-3.58577e-07 9.52423e-06 0)
(-3.36468e-07 9.47458e-06 0)
(-3.5308e-07 9.39381e-06 0)
(-4.23745e-07 9.29258e-06 0)
(-5.61162e-07 9.18482e-06 0)
(-7.76442e-07 9.08384e-06 0)
(-1.08206e-06 9.00026e-06 0)
(-1.49611e-06 8.94128e-06 0)
(-2.04789e-06 8.91081e-06 0)
(-2.78585e-06 8.9096e-06 0)
(-3.78789e-06 8.93432e-06 0)
(-2.19626e-06 1.88686e-06 0)
(1.70358e-08 7.94475e-09 0)
(-1.3204e-07 6.93772e-06 0)
(-3.89935e-07 6.98476e-06 0)
(-6.31953e-07 7.0756e-06 0)
(-8.51311e-07 7.20629e-06 0)
(-1.04172e-06 7.37202e-06 0)
(-1.19749e-06 7.56685e-06 0)
(-1.31383e-06 7.78352e-06 0)
(-1.38732e-06 8.01339e-06 0)
(-1.4165e-06 8.2465e-06 0)
(-1.40245e-06 8.47208e-06 0)
(-1.34932e-06 8.67934e-06 0)
(-1.26436e-06 8.85876e-06 0)
(-1.15747e-06 9.00352e-06 0)
(-1.04007e-06 9.11078e-06 0)
(-9.234e-07 9.18238e-06 0)
(-8.16722e-07 9.22439e-06 0)
(-7.26054e-07 9.24554e-06 0)
(-6.5374e-07 9.25521e-06 0)
(-5.98894e-07 9.26171e-06 0)
(-5.58337e-07 9.27123e-06 0)
(-5.27698e-07 9.28736e-06 0)
(-5.02465e-07 9.31112e-06 0)
(-4.78879e-07 9.34133e-06 0)
(-4.54635e-07 9.37515e-06 0)
(-4.29355e-07 9.40883e-06 0)
(-4.04821e-07 9.4386e-06 0)
(-3.84896e-07 9.46164e-06 0)
(-3.75141e-07 9.47706e-06 0)
(-3.82132e-07 9.48668e-06 0)
(-4.12635e-07 9.49542e-06 0)
(-4.72848e-07 9.51129e-06 0)
(-5.67971e-07 9.54482e-06 0)
(-7.02216e-07 9.60882e-06 0)
(-8.79099e-07 9.71853e-06 0)
(-1.10175e-06 9.89275e-06 0)
(-1.37285e-06 1.01559e-05 0)
(-1.69376e-06 1.05417e-05 0)
(-2.05805e-06 1.10944e-05 0)
(-1.13458e-06 2.57355e-06 0)
(1.27504e-08 1.39546e-08 0)
(-1.01906e-07 7.27558e-06 0)
(-3.00737e-07 7.31226e-06 0)
(-4.86788e-07 7.38279e-06 0)
(-6.54745e-07 7.48357e-06 0)
(-7.99998e-07 7.61024e-06 0)
(-9.18746e-07 7.75765e-06 0)
(-1.00819e-06 7.91993e-06 0)
(-1.06678e-06 8.09054e-06 0)
(-1.09443e-06 8.26257e-06 0)
(-1.09276e-06 8.42909e-06 0)
(-1.06509e-06 8.58371e-06 0)
(-1.01628e-06 8.72122e-06 0)
(-9.52345e-07 8.83818e-06 0)
(-8.79726e-07 8.93334e-06 0)
(-8.04567e-07 9.0077e-06 0)
(-7.31954e-07 9.06418e-06 0)
(-6.65427e-07 9.10693e-06 0)
(-6.06817e-07 9.14052e-06 0)
(-5.56418e-07 9.16916e-06 0)
(-5.13378e-07 9.19622e-06 0)
(-4.76191e-07 9.22395e-06 0)
(-4.43194e-07 9.25351e-06 0)
(-4.12987e-07 9.28511e-06 0)
(-3.84748e-07 9.3183e-06 0)
(-3.58398e-07 9.35247e-06 0)
(-3.34618e-07 9.38717e-06 0)
(-3.14705e-07 9.42267e-06 0)
(-3.00279e-07 9.4603e-06 0)
(-2.92868e-07 9.50274e-06 0)
(-2.93418e-07 9.55416e-06 0)
(-3.01769e-07 9.62026e-06 0)
(-3.16109e-07 9.70816e-06 0)
(-3.3237e-07 9.82641e-06 0)
(-3.4345e-07 9.98503e-06 0)
(-3.38087e-07 1.01957e-05 0)
(-2.9917e-07 1.04722e-05 0)
(-2.01203e-07 1.08303e-05 0)
(-5.9065e-09 1.12804e-05 0)
(5.84073e-08 1.92035e-06 0)
(3.32108e-09 1.36288e-08 0)
(-7.85938e-08 7.53625e-06 0)
(-2.31886e-07 7.56456e-06 0)
(-3.75203e-07 7.61884e-06 0)
(-5.04507e-07 7.69609e-06 0)
(-6.16452e-07 7.79271e-06 0)
(-7.08468e-07 7.90457e-06 0)
(-7.78861e-07 8.02718e-06 0)
(-8.26916e-07 8.15578e-06 0)
(-8.52968e-07 8.28558e-06 0)
(-8.58413e-07 8.41206e-06 0)
(-8.45635e-07 8.53126e-06 0)
(-8.17817e-07 8.64006e-06 0)
(-7.78651e-07 8.73649e-06 0)
(-7.3197e-07 8.81978e-06 0)
(-6.81364e-07 8.89036e-06 0)
(-6.29859e-07 8.94961e-06 0)
(-5.79693e-07 8.9996e-06 0)
(-5.32258e-07 9.04261e-06 0)
(-4.88164e-07 9.08091e-06 0)
(-4.4741e-07 9.11642e-06 0)
(-4.096e-07 9.15064e-06 0)
(-3.74157e-07 9.18459e-06 0)
(-3.40511e-07 9.21893e-06 0)
(-3.08214e-07 9.25409e-06 0)
(-2.76991e-07 9.29045e-06 0)
(-2.46695e-07 9.32851e-06 0)
(-2.17197e-07 9.36911e-06 0)
(-1.88197e-07 9.41349e-06 0)
(-1.58984e-07 9.46339e-06 0)
(-1.28156e-07 9.521e-06 0)
(-9.33206e-08 9.58883e-06 0)
(-5.07762e-08 9.66949e-06 0)
(4.829e-09 9.76543e-06 0)
(8.0866e-08 9.87846e-06 0)
(1.87133e-07 1.00092e-05 0)
(3.36291e-07 1.01561e-05 0)
(5.44275e-07 1.03143e-05 0)
(8.30735e-07 1.04629e-05 0)
(5.54873e-07 1.32894e-06 0)
(5.68806e-08 8.30295e-09 0)
(-6.06603e-08 7.73736e-06 0)
(-1.78983e-07 7.75914e-06 0)
(-2.89655e-07 7.80085e-06 0)
(-3.89647e-07 7.8601e-06 0)
(-4.76524e-07 7.93405e-06 0)
(-5.48505e-07 8.01954e-06 0)
(-6.04501e-07 8.11322e-06 0)
(-6.44149e-07 8.21164e-06 0)
(-6.67812e-07 8.31148e-06 0)
(-6.7653e-07 8.4097e-06 0)
(-6.71932e-07 8.50369e-06 0)
(-6.56084e-07 8.59145e-06 0)
(-6.31308e-07 8.67168e-06 0)
(-5.9997e-07 8.7438e-06 0)
(-5.64285e-07 8.80788e-06 0)
(-5.26154e-07 8.86457e-06 0)
(-4.87061e-07 8.91486e-06 0)
(-4.48037e-07 8.95996e-06 0)
(-4.09687e-07 9.0011e-06 0)
(-3.7226e-07 9.03941e-06 0)
(-3.3574e-07 9.07587e-06 0)
(-2.99936e-07 9.11126e-06 0)
(-2.64565e-07 9.14621e-06 0)
(-2.29286e-07 9.18125e-06 0)
(-1.93722e-07 9.21684e-06 0)
(-1.57424e-07 9.25347e-06 0)
(-1.19824e-07 9.29167e-06 0)
(-8.01438e-08 9.33204e-06 0)
(-3.73165e-08 9.37517e-06 0)
(1.01042e-08 9.4216e-06 0)
(6.40018e-08 9.47161e-06 0)
(1.26715e-07 9.52509e-06 0)
(2.00981e-07 9.5812e-06 0)
(2.89775e-07 9.63807e-06 0)
(3.95977e-07 9.69238e-06 0)
(5.21793e-07 9.73885e-06 0)
(6.67786e-07 9.76965e-06 0)
(8.31487e-07 9.76242e-06 0)
(4.97304e-07 1.29021e-06 0)
(2.39928e-08 6.67864e-09 0)
(-4.68583e-08 7.89263e-06 0)
(-1.38287e-07 7.90943e-06 0)
(-2.23894e-07 7.94158e-06 0)
(-3.01414e-07 7.98724e-06 0)
(-3.69061e-07 8.04423e-06 0)
(-4.25559e-07 8.11017e-06 0)
(-4.70158e-07 8.18258e-06 0)
(-5.02633e-07 8.25898e-06 0)
(-5.23258e-07 8.33702e-06 0)
(-5.32752e-07 8.41457e-06 0)
(-5.32197e-07 8.48984e-06 0)
(-5.22938e-07 8.56146e-06 0)
(-5.06462e-07 8.62847e-06 0)
(-4.84276e-07 8.69039e-06 0)
(-4.57799e-07 8.74711e-06 0)
(-4.28272e-07 8.79887e-06 0)
(-3.96705e-07 8.84613e-06 0)
(-3.63852e-07 8.88951e-06 0)
(-3.3022e-07 8.92967e-06 0)
(-2.96093e-07 8.96727e-06 0)
(-2.61571e-07 9.00291e-06 0)
(-2.26614e-07 9.0371e-06 0)
(-1.91069e-07 9.07028e-06 0)
(-1.547e-07 9.10282e-06 0)
(-1.17187e-07 9.135e-06 0)
(-7.81292e-08 9.16707e-06 0)
(-3.70311e-08 9.19921e-06 0)
(6.7109e-09 9.2315e-06 0)
(5.38154e-08 9.2639e-06 0)
(1.05107e-07 9.29618e-06 0)
(1.61485e-07 9.32785e-06 0)
(2.2385e-07 9.35804e-06 0)
(2.93002e-07 9.38546e-06 0)
(3.69467e-07 9.40827e-06 0)
(4.53293e-07 9.4241e-06 0)
(5.43787e-07 9.43004e-06 0)
(6.39247e-07 9.42282e-06 0)
(7.36874e-07 9.38703e-06 0)
(4.21345e-07 1.32912e-06 0)
(4.00362e-09 6.46778e-09 0)
(-3.61887e-08 8.01257e-06 0)
(-1.06824e-07 8.02559e-06 0)
(-1.73039e-07 8.05053e-06 0)
(-2.33134e-07 8.08596e-06 0)
(-2.85782e-07 8.13026e-06 0)
(-3.30039e-07 8.18163e-06 0)
(-3.65353e-07 8.23824e-06 0)
(-3.9155e-07 8.29829e-06 0)
(-4.08802e-07 8.36007e-06 0)
(-4.17579e-07 8.42207e-06 0)
(-4.18592e-07 8.483e-06 0)
(-4.12718e-07 8.54185e-06 0)
(-4.00922e-07 8.5979e-06 0)
(-3.84187e-07 8.6507e-06 0)
(-3.6345e-07 8.70007e-06 0)
(-3.39545e-07 8.74602e-06 0)
(-3.13173e-07 8.78873e-06 0)
(-2.84887e-07 8.8285e-06 0)
(-2.55089e-07 8.86564e-06 0)
(-2.2404e-07 8.90052e-06 0)
(-1.91878e-07 8.93346e-06 0)
(-1.58637e-07 8.96475e-06 0)
(-1.24264e-07 8.99465e-06 0)
(-8.86346e-08 9.02333e-06 0)
(-5.15658e-08 9.05091e-06 0)
(-1.28234e-08 9.07746e-06 0)
(2.78684e-08 9.10293e-06 0)
(7.0815e-08 9.1272e-06 0)
(1.16333e-07 9.15004e-06 0)
(1.64724e-07 9.17104e-06 0)
(2.16234e-07 9.18968e-06 0)
(2.71e-07 9.20521e-06 0)
(3.28993e-07 9.21675e-06 0)
(3.89942e-07 9.22325e-06 0)
(4.53267e-07 9.22356e-06 0)
(5.18027e-07 9.21652e-06 0)
(5.82901e-07 9.20112e-06 0)
(6.46353e-07 9.1637e-06 0)
(3.60683e-07 1.38583e-06 0)
(-8.5134e-09 6.36035e-09 0)
(-2.78846e-08 8.1051e-06 0)
(-8.23268e-08 8.11527e-06 0)
(-1.33407e-07 8.13476e-06 0)
(-1.79841e-07 8.16249e-06 0)
(-2.20627e-07 8.19723e-06 0)
(-2.55049e-07 8.23764e-06 0)
(-2.82679e-07 8.28236e-06 0)
(-3.03361e-07 8.33005e-06 0)
(-3.17184e-07 8.37947e-06 0)
(-3.24442e-07 8.42949e-06 0)
(-3.25596e-07 8.47918e-06 0)
(-3.21218e-07 8.52774e-06 0)
(-3.11946e-07 8.5746e-06 0)
(-2.98433e-07 8.61938e-06 0)
(-2.81311e-07 8.66183e-06 0)
(-2.61156e-07 8.70187e-06 0)
(-2.38467e-07 8.73952e-06 0)
(-2.13654e-07 8.77486e-06 0)
(-1.87038e-07 8.80805e-06 0)
(-1.58849e-07 8.83923e-06 0)
(-1.29239e-07 8.86856e-06 0)
(-9.82901e-08 8.89617e-06 0)
(-6.60281e-08 8.92218e-06 0)
(-3.24323e-08 8.94664e-06 0)
(2.55116e-09 8.96957e-06 0)
(3.89981e-08 8.99093e-06 0)
(7.69928e-08 9.01062e-06 0)
(1.16613e-07 9.02849e-06 0)
(1.57913e-07 9.04429e-06 0)
(2.00901e-07 9.05773e-06 0)
(2.45516e-07 9.06842e-06 0)
(2.91607e-07 9.07594e-06 0)
(3.38902e-07 9.07981e-06 0)
(3.86995e-07 9.07956e-06 0)
(4.3533e-07 9.07474e-06 0)
(4.83212e-07 9.06499e-06 0)
(5.29821e-07 9.05009e-06 0)
(5.74392e-07 9.01633e-06 0)
(3.15556e-07 1.44808e-06 0)
(-1.66776e-08 6.30288e-09 0)
(-2.13706e-08 8.17623e-06 0)
(-6.30988e-08 8.18424e-06 0)
(-1.02261e-07 8.19959e-06 0)
(-1.37879e-07 8.22148e-06 0)
(-1.69182e-07 8.24896e-06 0)
(-1.95617e-07 8.28104e-06 0)
(-2.16839e-07 8.31668e-06 0)
(-2.32702e-07 8.35489e-06 0)
(-2.43235e-07 8.39473e-06 0)
(-2.48614e-07 8.43537e-06 0)
(-2.49135e-07 8.47608e-06 0)
(-2.45172e-07 8.51624e-06 0)
(-2.3715e-07 8.55539e-06 0)
(-2.25515e-07 8.59318e-06 0)
(-2.10701e-07 8.62935e-06 0)
(-1.93116e-07 8.66378e-06 0)
(-1.73126e-07 8.69638e-06 0)
(-1.51043e-07 8.72716e-06 0)
(-1.27128e-07 8.75612e-06 0)
(-1.01584e-07 8.78332e-06 0)
(-7.45682e-08 8.80879e-06 0)
(-4.61953e-08 8.83258e-06 0)
(-1.65444e-08 8.85472e-06 0)
(1.43305e-08 8.87519e-06 0)
(4.63916e-08 8.89397e-06 0)
(7.96074e-08 8.911e-06 0)
(1.13942e-07 8.92618e-06 0)
(1.49345e-07 8.93938e-06 0)
(1.85739e-07 8.95045e-06 0)
(2.23008e-07 8.9592e-06 0)
(2.60988e-07 8.96542e-06 0)
(2.99459e-07 8.96892e-06 0)
(3.38136e-07 8.96949e-06 0)
(3.76667e-07 8.96697e-06 0)
(4.14641e-07 8.96126e-06 0)
(4.5159e-07 8.9523e-06 0)
(4.87009e-07 8.94017e-06 0)
(5.20502e-07 8.91062e-06 0)
(2.83806e-07 1.51272e-06 0)
(-2.11263e-08 6.27328e-09 0)
(-1.62198e-08 8.23052e-06 0)
(-4.78847e-08 8.23687e-06 0)
(-7.75842e-08 8.24906e-06 0)
(-1.04563e-07 8.26648e-06 0)
(-1.28223e-07 8.28839e-06 0)
(-1.48126e-07 8.31404e-06 0)
(-1.63989e-07 8.34266e-06 0)
(-1.75674e-07 8.37349e-06 0)
(-1.83174e-07 8.40582e-06 0)
(-1.86587e-07 8.43899e-06 0)
(-1.861e-07 8.47245e-06 0)
(-1.81959e-07 8.50571e-06 0)
(-1.74452e-07 8.53836e-06 0)
(-1.63888e-07 8.57012e-06 0)
(-1.50574e-07 8.60073e-06 0)
(-1.34808e-07 8.63003e-06 0)
(-1.16862e-07 8.65793e-06 0)
(-9.69847e-08 8.68433e-06 0)
(-7.53892e-08 8.70921e-06 0)
(-5.22593e-08 8.73254e-06 0)
(-2.775e-08 8.75431e-06 0)
(-1.99118e-09 8.7745e-06 0)
(2.49067e-08 8.7931e-06 0)
(5.28469e-08 8.81008e-06 0)
(8.17397e-08 8.82539e-06 0)
(1.11496e-07 8.83898e-06 0)
(1.42022e-07 8.85079e-06 0)
(1.73211e-07 8.86072e-06 0)
(2.04936e-07 8.8687e-06 0)
(2.37052e-07 8.87463e-06 0)
(2.69385e-07 8.87843e-06 0)
(3.01734e-07 8.88003e-06 0)
(3.3387e-07 8.87937e-06 0)
(3.65544e-07 8.87644e-06 0)
(3.96487e-07 8.87128e-06 0)
(4.26423e-07 8.86396e-06 0)
(4.5508e-07 8.85463e-06 0)
(4.82331e-07 8.82837e-06 0)
(2.63553e-07 1.57876e-06 0)
(-2.23175e-08 6.256e-09 0)
(-1.21166e-08 8.27144e-06 0)
(-3.57568e-08 8.27651e-06 0)
(-5.7887e-08 8.28627e-06 0)
(-7.79175e-08 8.30021e-06 0)
(-9.5377e-08 8.3178e-06 0)
(-1.09914e-07 8.33846e-06 0)
(-1.21294e-07 8.36158e-06 0)
(-1.2939e-07 8.38659e-06 0)
(-1.34171e-07 8.41293e-06 0)
(-1.35687e-07 8.44011e-06 0)
(-1.34054e-07 8.46766e-06 0)
(-1.29437e-07 8.4952e-06 0)
(-1.22033e-07 8.5224e-06 0)
(-1.1206e-07 8.54899e-06 0)
(-9.97426e-08 8.57476e-06 0)
(-8.53017e-08 8.59952e-06 0)
(-6.89497e-08 8.62316e-06 0)
(-5.08843e-08 8.64559e-06 0)
(-3.12863e-08 8.66672e-06 0)
(-1.03196e-08 8.68652e-06 0)
(1.18686e-08 8.70493e-06 0)
(3.51448e-08 8.72191e-06 0)
(5.93866e-08 8.73744e-06 0)
(8.44789e-08 8.75147e-06 0)
(1.10311e-07 8.76397e-06 0)
(1.3677e-07 8.7749e-06 0)
(1.63744e-07 8.78421e-06 0)
(1.91109e-07 8.79186e-06 0)
(2.18738e-07 8.79781e-06 0)
(2.4649e-07 8.80203e-06 0)
(2.74215e-07 8.80451e-06 0)
(3.01755e-07 8.80523e-06 0)
(3.28944e-07 8.8042e-06 0)
(3.55616e-07 8.80148e-06 0)
(3.81606e-07 8.79713e-06 0)
(4.06761e-07 8.79124e-06 0)
(4.30947e-07 8.78395e-06 0)
(4.54182e-07 8.75959e-06 0)
(2.495e-07 1.6461e-06 0)
(-2.21518e-08 6.24322e-09 0)
(-8.82661e-09 8.30169e-06 0)
(-2.60264e-08 8.30576e-06 0)
(-4.20644e-08 8.31361e-06 0)
(-5.64747e-08 8.32484e-06 0)
(-6.88817e-08 8.33904e-06 0)
(-7.90005e-08 8.35575e-06 0)
(-8.66347e-08 8.37452e-06 0)
(-9.16692e-08 8.39489e-06 0)
(-9.40618e-08 8.41642e-06 0)
(-9.38327e-08 8.43873e-06 0)
(-9.10531e-08 8.46145e-06 0)
(-8.58333e-08 8.48425e-06 0)
(-7.83124e-08 8.50687e-06 0)
(-6.86475e-08 8.52907e-06 0)
(-5.70058e-08 8.55066e-06 0)
(-4.35575e-08 8.57147e-06 0)
(-2.84704e-08 8.59138e-06 0)
(-1.19062e-08 8.61029e-06 0)
(5.98115e-09 8.62811e-06 0)
(2.5047e-08 8.64479e-06 0)
(4.51553e-08 8.66025e-06 0)
(6.61779e-08 8.67447e-06 0)
(8.79932e-08 8.68739e-06 0)
(1.10484e-07 8.699e-06 0)
(1.33536e-07 8.70924e-06 0)
(1.57036e-07 8.7181e-06 0)
(1.80869e-07 8.72555e-06 0)
(2.04921e-07 8.73158e-06 0)
(2.29074e-07 8.73617e-06 0)
(2.53208e-07 8.73932e-06 0)
(2.77201e-07 8.74105e-06 0)
(3.00932e-07 8.74136e-06 0)
(3.24282e-07 8.74031e-06 0)
(3.47137e-07 8.73794e-06 0)
(3.6939e-07 8.73431e-06 0)
(3.90947e-07 8.72952e-06 0)
(4.11731e-07 8.72364e-06 0)
(4.3181e-07 8.70025e-06 0)
(2.38105e-07 1.71567e-06 0)
(-2.17741e-08 6.23604e-09 0)
(-6.17474e-09 8.32335e-06 0)
(-1.81791e-08 8.32664e-06 0)
(-2.92901e-08 8.33298e-06 0)
(-3.91356e-08 8.34207e-06 0)
(-4.7413e-08 8.35358e-06 0)
(-5.38894e-08 8.36715e-06 0)
(-5.83994e-08 8.38243e-06 0)
(-6.08406e-08 8.39906e-06 0)
(-6.11667e-08 8.4167e-06 0)
(-5.93801e-08 8.43503e-06 0)
(-5.55238e-08 8.45376e-06 0)
(-4.9673e-08 8.47263e-06 0)
(-4.19271e-08 8.49141e-06 0)
(-3.24031e-08 8.5099e-06 0)
(-2.12286e-08 8.52792e-06 0)
(-8.53705e-09 8.54533e-06 0)
(5.53601e-09 8.56202e-06 0)
(2.08564e-08 8.57789e-06 0)
(3.72929e-08 8.59284e-06 0)
(5.47186e-08 8.60682e-06 0)
(7.3011e-08 8.61977e-06 0)
(9.20523e-08 8.63164e-06 0)
(1.11729e-07 8.6424e-06 0)
(1.3193e-07 8.65201e-06 0)
(1.52548e-07 8.66045e-06 0)
(1.73478e-07 8.6677e-06 0)
(1.94615e-07 8.67376e-06 0)
(2.15858e-07 8.6786e-06 0)
(2.37104e-07 8.68225e-06 0)
(2.58254e-07 8.68471e-06 0)
(2.79211e-07 8.686e-06 0)
(2.99883e-07 8.68615e-06 0)
(3.20179e-07 8.6852e-06 0)
(3.40017e-07 8.6832e-06 0)
(3.5932e-07 8.68021e-06 0)
(3.7802e-07 8.67629e-06 0)
(3.96057e-07 8.67152e-06 0)
(4.13534e-07 8.64862e-06 0)
(2.28784e-07 1.78861e-06 0)
(-2.10013e-08 6.23536e-09 0)
(-4.02912e-09 8.33809e-06 0)
(-1.18268e-08 8.34075e-06 0)
(-1.89399e-08 8.34589e-06 0)
(-2.5068e-08 8.35326e-06 0)
(-2.99647e-08 8.36261e-06 0)
(-3.3438e-08 8.37366e-06 0)
(-3.53486e-08 8.38612e-06 0)
(-3.56061e-08 8.39972e-06 0)
(-3.41643e-08 8.41417e-06 0)
(-3.10158e-08 8.42924e-06 0)
(-2.61861e-08 8.44468e-06 0)
(-1.97272e-08 8.46027e-06 0)
(-1.17122e-08 8.47583e-06 0)
(-2.22996e-09 8.49118e-06 0)
(8.61966e-09 8.50618e-06 0)
(2.07296e-08 8.5207e-06 0)
(3.39889e-08 8.53464e-06 0)
(4.82851e-08 8.5479e-06 0)
(6.35059e-08 8.56041e-06 0)
(7.95408e-08 8.5721e-06 0)
(9.62813e-08 8.58292e-06 0)
(1.13622e-07 8.59284e-06 0)
(1.3146e-07 8.6018e-06 0)
(1.49696e-07 8.60979e-06 0)
(1.68232e-07 8.6168e-06 0)
(1.86976e-07 8.62279e-06 0)
(2.05835e-07 8.62778e-06 0)
(2.24722e-07 8.63176e-06 0)
(2.43552e-07 8.63474e-06 0)
(2.62243e-07 8.63674e-06 0)
(2.8072e-07 8.63777e-06 0)
(2.98908e-07 8.63788e-06 0)
(3.16742e-07 8.63709e-06 0)
(3.3416e-07 8.63545e-06 0)
(3.51108e-07 8.63302e-06 0)
(3.67537e-07 8.62983e-06 0)
(3.83407e-07 8.62596e-06 0)
(3.98809e-07 8.60334e-06 0)
(2.21622e-07 1.86583e-06 0)
(-1.95948e-08 6.23941e-09 0)
(-2.28948e-09 8.34721e-06 0)
(-6.67445e-09 8.34937e-06 0)
(-1.05383e-08 8.35354e-06 0)
(-1.36357e-08 8.35953e-06 0)
(-1.57643e-08 8.36713e-06 0)
(-1.67645e-08 8.37612e-06 0)
(-1.65185e-08 8.38629e-06 0)
(-1.4947e-08 8.3974e-06 0)
(-1.20064e-08 8.40924e-06 0)
(-7.68424e-09 8.4216e-06 0)
(-1.99499e-09 8.4343e-06 0)
(5.02446e-09 8.44716e-06 0)
(1.33191e-08 8.46002e-06 0)
(2.28196e-08 8.47273e-06 0)
(3.34462e-08 8.48518e-06 0)
(4.51116e-08 8.49725e-06 0)
(5.77233e-08 8.50886e-06 0)
(7.11862e-08 8.51991e-06 0)
(8.54041e-08 8.53035e-06 0)
(1.00281e-07 8.54012e-06 0)
(1.15721e-07 8.54917e-06 0)
(1.31631e-07 8.55745e-06 0)
(1.4792e-07 8.56495e-06 0)
(1.645e-07 8.57164e-06 0)
(1.81286e-07 8.57749e-06 0)
(1.98196e-07 8.58251e-06 0)
(2.1515e-07 8.58668e-06 0)
(2.32076e-07 8.59002e-06 0)
(2.48903e-07 8.59253e-06 0)
(2.65565e-07 8.59422e-06 0)
(2.82e-07 8.59512e-06 0)
(2.98154e-07 8.59525e-06 0)
(3.13976e-07 8.59464e-06 0)
(3.29421e-07 8.59334e-06 0)
(3.44448e-07 8.59138e-06 0)
(3.59025e-07 8.5888e-06 0)
(3.73122e-07 8.58566e-06 0)
(3.86868e-07 8.56312e-06 0)
(2.16292e-07 1.94819e-06 0)
(-1.75829e-08 6.24652e-09 0)
(-8.78943e-10 8.35179e-06 0)
(-2.49538e-09 8.35354e-06 0)
(-3.71919e-09 8.35692e-06 0)
(-4.34795e-09 8.36177e-06 0)
(-4.21357e-09 8.36794e-06 0)
(-3.18235e-09 8.37525e-06 0)
(-1.15387e-09 8.38352e-06 0)
(1.9409e-09 8.39258e-06 0)
(6.14233e-09 8.40225e-06 0)
(1.14651e-08 8.41237e-06 0)
(1.79015e-08 8.42278e-06 0)
(2.5425e-08 8.43335e-06 0)
(3.39929e-08 8.44393e-06 0)
(4.35501e-08 8.45443e-06 0)
(5.40315e-08 8.46472e-06 0)
(6.53644e-08 8.47472e-06 0)
(7.7471e-08 8.48435e-06 0)
(9.02698e-08 8.49355e-06 0)
(1.03677e-07 8.50225e-06 0)
(1.1761e-07 8.51041e-06 0)
(1.31983e-07 8.51798e-06 0)
(1.46715e-07 8.52493e-06 0)
(1.61725e-07 8.53123e-06 0)
(1.76936e-07 8.53687e-06 0)
(1.92272e-07 8.54182e-06 0)
(2.07662e-07 8.54608e-06 0)
(2.23039e-07 8.54965e-06 0)
(2.38341e-07 8.55252e-06 0)
(2.53509e-07 8.5547e-06 0)
(2.6849e-07 8.55621e-06 0)
(2.83237e-07 8.55706e-06 0)
(2.97706e-07 8.55727e-06 0)
(3.1186e-07 8.55686e-06 0)
(3.25668e-07 8.55586e-06 0)
(3.39104e-07 8.55431e-06 0)
(3.52146e-07 8.55224e-06 0)
(3.6478e-07 8.54969e-06 0)
(3.77123e-07 8.52702e-06 0)
(2.12403e-07 2.03665e-06 0)
(-1.50548e-08 6.2559e-09 0)
(2.61784e-10 8.35268e-06 0)
(8.8528e-10 8.35409e-06 0)
(1.80015e-09 8.35682e-06 0)
(3.17557e-09 8.36073e-06 0)
(5.15277e-09 8.36572e-06 0)
(7.84502e-09 8.37163e-06 0)
(1.13385e-08 8.37833e-06 0)
(1.56937e-08 8.38568e-06 0)
(2.09475e-08 8.39354e-06 0)
(2.71154e-08 8.40177e-06 0)
(3.41941e-08 8.41026e-06 0)
(4.21641e-08 8.41889e-06 0)
(5.09918e-08 8.42756e-06 0)
(6.06324e-08 8.43617e-06 0)
(7.10317e-08 8.44463e-06 0)
(8.21284e-08 8.45288e-06 0)
(9.38557e-08 8.46085e-06 0)
(1.06143e-07 8.46847e-06 0)
(1.18917e-07 8.47571e-06 0)
(1.32103e-07 8.48253e-06 0)
(1.45628e-07 8.48887e-06 0)
(1.59416e-07 8.49473e-06 0)
(1.73396e-07 8.50007e-06 0)
(1.87499e-07 8.50487e-06 0)
(2.01658e-07 8.50913e-06 0)
(2.15809e-07 8.51282e-06 0)
(2.29895e-07 8.51595e-06 0)
(2.43862e-07 8.51851e-06 0)
(2.5766e-07 8.52051e-06 0)
(2.71246e-07 8.52194e-06 0)
(2.84583e-07 8.52282e-06 0)
(2.97637e-07 8.52316e-06 0)
(3.10383e-07 8.52297e-06 0)
(3.22798e-07 8.52228e-06 0)
(3.34865e-07 8.5211e-06 0)
(3.46572e-07 8.51947e-06 0)
(3.57909e-07 8.5174e-06 0)
(3.69018e-07 8.4945e-06 0)
(2.09649e-07 2.13239e-06 0)
(-1.20769e-08 6.26719e-09 0)
(1.1786e-09 8.3506e-06 0)
(3.60299e-09 8.35173e-06 0)
(6.23919e-09 8.35391e-06 0)
(9.23059e-09 8.35704e-06 0)
(1.26975e-08 8.36104e-06 0)
(1.67372e-08 8.36578e-06 0)
(2.14245e-08 8.37115e-06 0)
(2.6813e-08 8.37705e-06 0)
(3.29366e-08 8.38338e-06 0)
(3.98112e-08 8.39001e-06 0)
(4.74366e-08 8.39687e-06 0)
(5.57983e-08 8.40385e-06 0)
(6.48697e-08 8.41088e-06 0)
(7.4614e-08 8.41787e-06 0)
(8.49854e-08 8.42478e-06 0)
(9.59313e-08 8.43153e-06 0)
(1.07394e-07 8.43807e-06 0)
(1.1931e-07 8.44437e-06 0)
(1.31615e-07 8.45038e-06 0)
(1.44242e-07 8.45606e-06 0)
(1.57122e-07 8.4614e-06 0)
(1.70188e-07 8.46637e-06 0)
(1.83374e-07 8.47094e-06 0)
(1.96615e-07 8.4751e-06 0)
(2.0985e-07 8.47883e-06 0)
(2.2302e-07 8.48213e-06 0)
(2.36072e-07 8.48498e-06 0)
(2.48958e-07 8.48738e-06 0)
(2.61635e-07 8.48931e-06 0)
(2.74065e-07 8.49078e-06 0)
(2.86219e-07 8.49179e-06 0)
(2.98072e-07 8.49234e-06 0)
(3.09605e-07 8.49242e-06 0)
(3.20806e-07 8.49206e-06 0)
(3.31669e-07 8.49126e-06 0)
(3.42191e-07 8.49004e-06 0)
(3.52376e-07 8.48842e-06 0)
(3.62316e-07 8.46534e-06 0)
(2.07822e-07 2.2368e-06 0)
(-8.72314e-09 6.28013e-09 0)
(1.90702e-09 8.34614e-06 0)
(5.76264e-09 8.34703e-06 0)
(9.76796e-09 8.34875e-06 0)
(1.40465e-08 8.35122e-06 0)
(1.87025e-08 8.35437e-06 0)
(2.38207e-08 8.35811e-06 0)
(2.94675e-08 8.36235e-06 0)
(3.56912e-08 8.36702e-06 0)
(4.25234e-08 8.37202e-06 0)
(4.99804e-08 8.37728e-06 0)
(5.80647e-08 8.38272e-06 0)
(6.67663e-08 8.38828e-06 0)
(7.60642e-08 8.39389e-06 0)
(8.59281e-08 8.39949e-06 0)
(9.63192e-08 8.40504e-06 0)
(1.07192e-07 8.41049e-06 0)
(1.18496e-07 8.4158e-06 0)
(1.30174e-07 8.42095e-06 0)
(1.42167e-07 8.4259e-06 0)
(1.54414e-07 8.43063e-06 0)
(1.6685e-07 8.43512e-06 0)
(1.79411e-07 8.43936e-06 0)
(1.92032e-07 8.44332e-06 0)
(2.04653e-07 8.447e-06 0)
(2.1721e-07 8.45037e-06 0)
(2.29648e-07 8.45343e-06 0)
(2.41913e-07 8.45616e-06 0)
(2.53958e-07 8.45854e-06 0)
(2.65741e-07 8.46057e-06 0)
(2.77227e-07 8.46222e-06 0)
(2.88389e-07 8.46348e-06 0)
(2.99208e-07 8.46435e-06 0)
(3.09671e-07 8.46481e-06 0)
(3.19775e-07 8.46486e-06 0)
(3.29522e-07 8.46449e-06 0)
(3.38921e-07 8.46371e-06 0)
(3.47986e-07 8.46252e-06 0)
(3.56778e-07 8.43949e-06 0)
(2.06747e-07 2.35156e-06 0)
(-5.07925e-09 6.29461e-09 0)
(2.47444e-09 8.33981e-06 0)
(7.44511e-09 8.3405e-06 0)
(1.25176e-08 8.34182e-06 0)
(1.78003e-08 8.34371e-06 0)
(2.3385e-08 8.34613e-06 0)
(2.93476e-08 8.349e-06 0)
(3.57478e-08 8.35227e-06 0)
(4.26303e-08 8.35585e-06 0)
(5.00256e-08 8.3597e-06 0)
(5.7951e-08 8.36375e-06 0)
(6.64119e-08 8.36795e-06 0)
(7.54024e-08 8.37225e-06 0)
(8.49069e-08 8.3766e-06 0)
(9.49012e-08 8.38096e-06 0)
(1.05353e-07 8.3853e-06 0)
(1.16223e-07 8.38959e-06 0)
(1.27467e-07 8.3938e-06 0)
(1.39033e-07 8.39793e-06 0)
(1.50868e-07 8.40195e-06 0)
(1.62913e-07 8.40584e-06 0)
(1.75105e-07 8.40961e-06 0)
(1.87382e-07 8.41324e-06 0)
(1.99679e-07 8.41671e-06 0)
(2.1193e-07 8.42003e-06 0)
(2.24072e-07 8.42318e-06 0)
(2.36041e-07 8.42614e-06 0)
(2.4778e-07 8.42891e-06 0)
(2.59235e-07 8.43145e-06 0)
(2.70357e-07 8.43374e-06 0)
(2.81109e-07 8.43576e-06 0)
(2.91459e-07 8.43747e-06 0)
(3.01388e-07 8.43885e-06 0)
(3.10888e-07 8.43986e-06 0)
(3.19959e-07 8.44047e-06 0)