/*--------------------------------*- C++ -*----------------------------------*\
  =========                 |
  \\      /  F ield         | OpenFOAM: The Open Source CFD Toolbox
   \\    /   O peration     | Website:  https://openfoam.org
    \\  /    A nd           | Version:  10
     \\/     M anipulation  |
\*---------------------------------------------------------------------------*/
FoamFile
{
    format      ascii;
    class       volScalarField;
    location    "71";
    object      p;
}
// * * * * * * * * * * * * * * * * * * * * * * * * * * * * * * * * * * * * * //

dimensions      [1 -1 -2 0 0 0 0];

internalField   nonuniform List<scalar> 
100
(
1.01956e+07
1.01953e+07
1.01948e+07
1.01943e+07
1.01937e+07
1.01931e+07
1.01924e+07
1.01916e+07
1.01908e+07
1.019e+07
1.01891e+07
1.01882e+07
1.01872e+07
1.01862e+07
1.01852e+07
1.01841e+07
1.0183e+07
1.01818e+07
1.01807e+07
1.01794e+07
1.01782e+07
1.01769e+07
1.01756e+07
1.01743e+07
1.01729e+07
1.01715e+07
1.01701e+07
1.01686e+07
1.01671e+07
1.01656e+07
1.01641e+07
1.01625e+07
1.01609e+07
1.01593e+07
1.01576e+07
1.01559e+07
1.01542e+07
1.01525e+07
1.01508e+07
1.0149e+07
1.01472e+07
1.01454e+07
1.01435e+07
1.01416e+07
1.01397e+07
1.01378e+07
1.01359e+07
1.01339e+07
1.01319e+07
1.01299e+07
1.01278e+07
1.01258e+07
1.01237e+07
1.01216e+07
1.01194e+07
1.01173e+07
1.01151e+07
1.01129e+07
1.01107e+07
1.01084e+07
1.01062e+07
1.01039e+07
1.01016e+07
1.00992e+07
1.00969e+07
1.00945e+07
1.00921e+07
1.00897e+07
1.00873e+07
1.00848e+07
1.00823e+07
1.00798e+07
1.00773e+07
1.00747e+07
1.00722e+07
1.00696e+07
1.0067e+07
1.00644e+07
1.00617e+07
1.00591e+07
1.00564e+07
1.00537e+07
1.00509e+07
1.00482e+07
1.00454e+07
1.00426e+07
1.00398e+07
1.0037e+07
1.00342e+07
1.00313e+07
1.00284e+07
1.00255e+07
1.00226e+07
1.00196e+07
1.00167e+07
1.00137e+07
1.00107e+07
1.00077e+07
1.00046e+07
1.00015e+07
)
;

boundaryField
{
    inlet
    {
        type            zeroGradient;
    }
    outlet
    {
        type            fixedValue;
        value           uniform 1e+07;
    }
    yzfaces
    {
        type            empty;
    }
}


// ************************************************************************* //
