/*--------------------------------*- C++ -*----------------------------------*\
  =========                 |
  \\      /  F ield         | OpenFOAM: The Open Source CFD Toolbox
   \\    /   O peration     | Website:  https://openfoam.org
    \\  /    A nd           | Version:  10
     \\/     M anipulation  |
\*---------------------------------------------------------------------------*/
FoamFile
{
    format      ascii;
    class       volVectorField;
    location    "0.4";
    object      Ub;
}
// * * * * * * * * * * * * * * * * * * * * * * * * * * * * * * * * * * * * * //

dimensions      [0 1 -1 0 0 0 0];

internalField   nonuniform List<vector> 
12225
(
(0.00184793 -0.000383679 0)
(0.00525609 -0.000338942 0)
(0.00801893 -0.000274609 0)
(0.0100914 -0.000210001 0)
(0.0115638 -0.000155069 0)
(0.0125729 -0.000112637 0)
(0.0132502 -8.19308e-05 0)
(0.0137037 -6.09624e-05 0)
(0.0140154 -4.76968e-05 0)
(0.014246 -4.04831e-05 0)
(0.0144396 -3.81493e-05 0)
(0.0146286 -3.99891e-05 0)
(0.0148364 -4.57221e-05 0)
(0.0150767 -5.5536e-05 0)
(0.015342 -7.08628e-05 0)
(0.0155239 -9.99996e-05 0)
(0.013003 -0.0001809 0)
(0.00521895 -7.9186e-08 0)
(0.00208723 -0.00122542 0)
(0.00593408 -0.00108105 0)
(0.00905042 -0.000874518 0)
(0.0113918 -0.000667788 0)
(0.0130638 -0.000492376 0)
(0.0142196 -0.00035693 0)
(0.0150042 -0.000258692 0)
(0.0155339 -0.000191116 0)
(0.0158948 -0.000147547 0)
(0.0161481 -0.000122553 0)
(0.0163356 -0.000112183 0)
(0.0164849 -0.000113863 0)
(0.0166117 -0.000126197 0)
(0.0167194 -0.000149014 0)
(0.0167874 -0.000185002 0)
(0.0166938 -0.0002493 0)
(0.0146487 -0.000372726 0)
(0.00636049 -3.23348e-07 0)
(0.00221468 -0.00220349 0)
(0.00628357 -0.00193871 0)
(0.00955425 -0.00156306 0)
(0.0119882 -0.00118933 0)
(0.0137078 -0.000873619 0)
(0.014882 -0.000630424 0)
(0.0156665 -0.000453926 0)
(0.0161839 -0.000331814 0)
(0.0165234 -0.00025179 0)
(0.0167476 -0.00020384 0)
(0.0168989 -0.000180581 0)
(0.0170048 -0.000176951 0)
(0.0170808 -0.000189736 0)
(0.0171291 -0.000217377 0)
(0.0171265 -0.000261118 0)
(0.0169451 -0.000329403 0)
(0.0151015 -0.000386527 0)
(0.00671304 -8.08615e-07 0)
(0.00233649 -0.00331078 0)
(0.00661043 -0.00290161 0)
(0.0100084 -0.00232726 0)
(0.0125024 -0.00176084 0)
(0.014238 -0.00128572 0)
(0.0154033 -0.000921532 0)
(0.0161661 -0.000657827 0)
(0.0166556 -0.000475095 0)
(0.0169641 -0.000354353 0)
(0.0171552 -0.000280313 0)
(0.0172715 -0.000241718 0)
(0.0173402 -0.000230697 0)
(0.0173765 -0.000241932 0)
(0.0173818 -0.000271938 0)
(0.0173316 -0.000318857 0)
(0.0171037 -0.000380683 0)
(0.0154529 -0.000393267 0)
(0.00699695 -1.74647e-06 0)
(0.00247225 -0.00456361 0)
(0.0069682 -0.00397883 0)
(0.0104903 -0.00316899 0)
(0.0130283 -0.00237968 0)
(0.0147591 -0.00172404 0)
(0.0158959 -0.00122521 0)
(0.0166209 -0.000865751 0)
(0.0170703 -0.000617056 0)
(0.0173391 -0.000452189 0)
(0.0174918 -0.000349802 0)
(0.0175707 -0.000294286 0)
(0.0176026 -0.00027466 0)
(0.0176019 -0.000283262 0)
(0.0175698 -0.000314346 0)
(0.0174827 -0.000362398 0)
(0.01723 -0.000416538 0)
(0.0157617 -0.000405464 0)
(0.00724792 -3.54984e-06 0)
(0.0026346 -0.00598853 0)
(0.00738899 -0.00518567 0)
(0.0110414 -0.00409264 0)
(0.0136098 -0.00304361 0)
(0.0153153 -0.00218344 0)
(0.0164033 -0.00153561 0)
(0.0170734 -0.00107218 0)
(0.0174694 -0.00075288 0)
(0.0176891 -0.000541263 0)
(0.0177967 -0.000409012 0)
(0.0178339 -0.000335658 0)
(0.0178266 -0.000306844 0)
(0.0177888 -0.000312424 0)
(0.0177215 -0.000344367 0)
(0.0176037 -0.000393952 0)
(0.0173382 -0.000444727 0)
(0.016038 -0.000427264 0)
(0.0074729 -6.99556e-06 0)
(0.00283712 -0.00762361 0)
(0.00790518 -0.00654289 0)
(0.0116989 -0.00510317 0)
(0.0142819 -0.00374866 0)
(0.0159372 -0.00265644 0)
(0.0169522 -0.00184469 0)
(0.0175475 -0.0012697 0)
(0.017875 -0.000876187 0)
(0.0180342 -0.000616216 0)
(0.0180886 -0.000453474 0)
(0.0180786 -0.000362117 0)
(0.0180286 -0.000324201 0)
(0.0179517 -0.000327082 0)
(0.0178494 -0.000360747 0)
(0.0177037 -0.000414358 0)
(0.0174305 -0.000469212 0)
(0.0162804 -0.000460444 0)
(0.00767296 -1.35046e-05 0)
(0.00309773 -0.00952292 0)
(0.00855743 -0.00807738 0)
(0.0125058 -0.00620456 0)
(0.0150802 -0.00448715 0)
(0.0166525 -0.00313157 0)
(0.0175642 -0.00214094 0)
(0.0180605 -0.0014482 0)
(0.0183014 -0.00097849 0)
(0.0183868 -0.00067003 0)
(0.0183786 -0.00047737 0)
(0.0183145 -0.000368798 0)
(0.0182171 -0.000322643 0)
(0.018098 -0.000323888 0)
(0.0179588 -0.000361071 0)
(0.0177847 -0.000422617 0)
(0.0175029 -0.00049038 0)
(0.0164813 -0.000504661 0)
(0.00784734 -2.55021e-05 0)
(0.00344253 -0.0117644 0)
(0.00940225 -0.00982314 0)
(0.0135166 -0.00739737 0)
(0.0160463 -0.00524483 0)
(0.0174898 -0.0035911 0)
(0.0182588 -0.00240797 0)
(0.0186263 -0.00159391 0)
(0.0187589 -0.0010486 0)
(0.0187553 -0.000693644 0)
(0.0186735 -0.000473284 0)
(0.0185475 -0.000349514 0)
(0.0183968 -0.000296897 0)
(0.0182311 -0.000298281 0)
(0.0180514 -0.000341376 0)
(0.0178448 -0.000415215 0)
(0.0175478 -0.000504501 0)
(0.0166279 -0.000555688 0)
(0.00799416 -4.64512e-05 0)
(0.00391194 -0.0144637 0)
(0.0105231 -0.0118219 0)
(0.0148056 -0.00867404 0)
(0.0172305 -0.00599628 0)
(0.0184802 -0.00400797 0)
(0.0190548 -0.00262254 0)
(0.0192565 -0.00168826 0)
(0.0192554 -0.00107195 0)
(0.0191452 -0.000675565 0)
(0.0189775 -0.00043195 0)
(0.0187806 -0.000296571 0)
(0.0185699 -0.000240328 0)
(0.018352 -0.000244237 0)
(0.0181264 -0.000295723 0)
(0.01788 -0.000385437 0)
(0.0175556 -0.000502577 0)
(0.0167019 -0.000601809 0)
(0.00811141 -7.93501e-05 0)
(0.00457216 -0.0177985 0)
(0.0120493 -0.0141212 0)
(0.016476 -0.0100095 0)
(0.0186954 -0.00669734 0)
(0.0196571 -0.00434112 0)
(0.0199693 -0.00275206 0)
(0.0199599 -0.00170661 0)
(0.0197954 -0.00102997 0)
(0.0195589 -0.000601511 0)
(0.0192919 -0.000342058 0)
(0.0190148 -0.000200645 0)
(0.0187368 -0.000144841 0)
(0.0184606 -0.000154153 0)
(0.0181822 -0.000216039 0)
(0.0178868 -0.000323065 0)
(0.0175182 -0.000469288 0)
(0.0166859 -0.000619475 0)
(0.00820042 -0.000121158 0)
(0.00547049 -0.0216459 0)
(0.0140439 -0.0165349 0)
(0.0185309 -0.0112432 0)
(0.0204041 -0.00724072 0)
(0.0209733 -0.00452754 0)
(0.0209593 -0.00276267 0)
(0.0207024 -0.00163262 0)
(0.0203539 -0.000916532 0)
(0.0199793 -0.000471215 0)
(0.0196059 -0.000206607 0)
(0.019244 -6.64162e-05 0)
(0.0188959 -1.57313e-05 0)
(0.0185588 -3.2874e-05 0)
(0.0182247 -0.000105462 0)
(0.017875 -0.000227341 0)
(0.0174512 -0.000395637 0)
(0.0166015 -0.00058334 0)
(0.00827659 -0.000153755 0)
(0.00672257 -0.0266235 0)
(0.0166918 -0.0192252 0)
(0.0210589 -0.0123498 0)
(0.0223707 -0.00756319 0)
(0.0224078 -0.00450965 0)
(0.0219911 -0.0026091 0)
(0.0214473 -0.0014312 0)
(0.0208951 -0.000703679 0)
(0.0203725 -0.000261543 0)
(0.0198882 -6.00672e-06 0)
(0.0194396 0.00012337 0)
(0.0190198 0.000162967 0)
(0.0186201 0.000134672 0)
(0.0182282 5.09449e-05 0)
(0.0178204 -8.19093e-05 0)
(0.0173333 -0.000261223 0)
(0.016436 -0.000464759 0)
(0.00831694 -0.000155759 0)
(0.00897695 -0.0344586 0)
(0.0211571 -0.0225453 0)
(0.0248979 -0.0132307 0)
(0.0251176 -0.00749683 0)
(0.0242917 -0.00414132 0)
(0.0232874 -0.00217629 0)
(0.0223535 -0.00101157 0)
(0.0215373 -0.000317607 0)
(0.020831 8.82871e-05 0)
(0.0202129 0.000312985 0)
(0.0196596 0.000416931 0)
(0.0191536 0.000435483 0)
(0.0186794 0.000389637 0)
(0.0182194 0.000292154 0)
(0.0177451 0.000151084 0)
(0.0171878 -2.74618e-05 0)
(0.0162314 -0.000224175 0)
(0.0083415 -0.000103925 0)
(0.0135786 -0.0482454 0)
(0.0294354 -0.0259335 0)
(0.0309222 -0.0130151 0)
(0.0289287 -0.00644838 0)
(0.0266928 -0.003061 0)
(0.024848 -0.00124055 0)
(0.0234051 -0.000230083 0)
(0.0222694 0.000339047 0)
(0.0213466 0.000652924 0)
(0.0205686 0.000810515 0)
(0.0198921 0.000864692 0)
(0.0192865 0.000845626 0)
(0.018728 0.000771393 0)
(0.0181941 0.000653848 0)
(0.017654 0.000502933 0)
(0.0170392 0.000330603 0)
(0.0160428 0.000154992 0)
(0.00828999 7.69433e-06 0)
(0.0247675 -0.0770319 0)
(0.0468962 -0.0253257 0)
(0.040403 -0.00914124 0)
(0.0338781 -0.00318341 0)
(0.0294685 -0.000671528 0)
(0.0265507 0.000514929 0)
(0.0245227 0.00110722 0)
(0.0230257 0.00140096 0)
(0.0218601 0.00153226 0)
(0.02091 0.00156469 0)
(0.0201027 0.0015313 0)
(0.0193915 0.00144972 0)
(0.018744 0.00132963 0)
(0.0181352 0.00117706 0)
(0.0175383 0.000997901 0)
(0.0168963 0.000801716 0)
(0.0159031 0.000597473 0)
(0.00803485 0.000112945 0)
(0.0594604 0.00297235 0)
(0.0910361 0.00519604 0)
(0.053241 0.00466141 0)
(0.0388488 0.00412651 0)
(0.0319194 0.00372153 0)
(0.0279511 0.00342532 0)
(0.0253934 0.00319323 0)
(0.0235941 0.00299619 0)
(0.0222351 0.00281889 0)
(0.021146 0.00265089 0)
(0.0202283 0.00248411 0)
(0.0194215 0.00231181 0)
(0.0186856 0.00212763 0)
(0.017992 0.0019238 0)
(0.0173154 0.00168744 0)
(0.0166109 0.0013924 0)
(0.0155159 0.000970244 0)
(0.00748379 9.20083e-05 0)
(0.0204481 0.0784677 0)
(0.0404171 0.0340998 0)
(0.0372656 0.0185536 0)
(0.032427 0.0119193 0)
(0.0287257 0.00860999 0)
(0.0260972 0.00675621 0)
(0.0241927 0.00562391 0)
(0.0227483 0.00488227 0)
(0.021594 0.00436502 0)
(0.020624 0.00398067 0)
(0.0197709 0.00367537 0)
(0.0189897 0.00341649 0)
(0.0182444 0.00318507 0)
(0.0174942 0.00297224 0)
(0.0166696 0.00277575 0)
(0.0156007 0.00258296 0)
(0.0131802 0.00212144 0)
(0.00569656 1.70451e-05 0)
(0.00785656 0.0426712 0)
(0.0187938 0.0299675 0)
(0.0226704 0.0206716 0)
(0.0234137 0.0148299 0)
(0.0230427 0.011205 0)
(0.0223476 0.00891108 0)
(0.0215996 0.00742145 0)
(0.0208752 0.00642876 0)
(0.0201842 0.00574841 0)
(0.019518 0.00526423 0)
(0.0188668 0.00489932 0)
(0.0182268 0.00460018 0)
(0.017602 0.00432725 0)
(0.0170046 0.00404753 0)
(0.0164382 0.00372515 0)
(0.0156697 0.00327905 0)
(0.00785254 0.00164346 0)
(0.000263584 3.25377e-14 0)
(0.00435358 0.0265791 0)
(0.011431 0.0222227 0)
(0.0156199 0.0176474 0)
(0.0178069 0.0139585 0)
(0.0188482 0.0112492 0)
(0.0192698 0.00933713 0)
(0.0193501 0.00801594 0)
(0.0192263 0.00711656 0)
(0.0189622 0.00651076 0)
(0.0185863 0.00610144 0)
(0.0181102 0.0058135 0)
(0.0175348 0.00558739 0)
(0.0168458 0.00537276 0)
(0.0159952 0.00511228 0)
(0.014811 0.00467268 0)
(0.00978114 0.00289462 0)
(0.00273043 8.38505e-05 0)
(1.02126e-07 3.323e-14 0)
(0.0030582 0.0190666 0)
(0.00839507 0.0169498 0)
(0.0122002 0.014358 0)
(0.0147011 0.011998 0)
(0.016282 0.010107 0)
(0.0172535 0.00869889 0)
(0.0178181 0.00770822 0)
(0.0180938 0.00705237 0)
(0.0181438 0.00665139 0)
(0.0180005 0.00643163 0)
(0.0176818 0.00632593 0)
(0.0171968 0.00627727 0)
(0.0165308 0.00624911 0)
(0.0155522 0.00622651 0)
(0.0129857 0.00573083 0)
(0.00550992 0.00133665 0)
(2.32599e-06 3.63391e-10 0)
(7.67758e-23 -4.07196e-32 0)
(0.00242291 0.0142324 0)
(0.00681223 0.0130474 0)
(0.0102522 0.0114768 0)
(0.0127889 0.00994487 0)
(0.0146068 0.00865777 0)
(0.0158905 0.00768131 0)
(0.0167775 0.00701269 0)
(0.0173538 0.00662037 0)
(0.0176636 0.00645981 0)
(0.0177244 0.00647507 0)
(0.017546 0.00659453 0)
(0.0171546 0.00672573 0)
(0.0166147 0.00674374 0)
(0.0157594 0.00637303 0)
(0.00764024 0.00306869 0)
(4.00068e-05 4.26484e-08 0)
(2.32122e-17 -2.36226e-32 0)
(1.23129e-31 -3.81152e-32 0)
(0.00206612 0.0107836 0)
(0.00589066 0.0100623 0)
(0.0090565 0.00906386 0)
(0.0115564 0.00805269 0)
(0.013487 0.00718594 0)
(0.014965 0.00653719 0)
(0.0160858 0.00613209 0)
(0.0169088 0.0059724 0)
(0.0174544 0.00604476 0)
(0.0177069 0.00631515 0)
(0.0176229 0.00671172 0)
(0.0171353 0.0070961 0)
(0.0160975 0.00713302 0)
(0.00942584 0.00435504 0)
(0.00171869 1.54385e-05 0)
(3.04122e-09 1.38697e-17 0)
(1.3495e-31 -3.62035e-32 0)
(1.28174e-31 -3.29658e-32 0)
(0.00184425 0.00816571 0)
(0.00530417 0.00770545 0)
(0.00826836 0.0070522 0)
(0.0107152 0.00637798 0)
(0.0127019 0.00579972 0)
(0.01431 0.0053857 0)
(0.0156123 0.00517514 0)
(0.0166539 0.00519451 0)
(0.0174387 0.00546345 0)
(0.0179186 0.00598401 0)
(0.0179871 0.00670722 0)
(0.0174136 0.00750565 0)
(0.0146514 0.00796875 0)
(0.00619072 0.00135313 0)
(2.21042e-06 5.15769e-12 0)
(2.97347e-23 -3.43217e-32 0)
(1.35592e-31 -3.09968e-32 0)
(1.3177e-31 -2.79855e-32 0)
(0.00169391 0.00610143 0)
(0.00489992 0.00580144 0)
(0.00770999 0.00536907 0)
(0.010101 0.00491943 0)
(0.0121121 0.00453876 0)
(0.013808 0.00428588 0)
(0.0152529 0.00420518 0)
(0.0164908 0.00434087 0)
(0.0175239 0.00474619 0)
(0.0182835 0.00547277 0)
(0.0186364 0.00648242 0)
(0.0186803 0.0072565 0)
(0.00983565 0.00473776 0)
(0.000501448 6.09505e-08 0)
(3.98235e-13 -1.43494e-32 0)
(1.4457e-31 -3.05422e-32 0)
(1.39637e-31 -2.63528e-32 0)
(1.35016e-31 -2.32531e-32 0)
(0.00158324 0.00443507 0)
(0.00459788 0.00423993 0)
(0.00728206 0.00395577 0)
(0.00961501 0.00366005 0)
(0.0116278 0.00341514 0)
(0.0133779 0.0032688 0)
(0.014929 0.00326416 0)
(0.016335 0.00345456 0)
(0.0176141 0.00392205 0)
(0.0186708 0.0047934 0)
(0.01904 0.00617882 0)
(0.0169743 0.00719178 0)
(0.00749731 0.000474738 0)
(2.53139e-06 -3.45481e-24 0)
(3.97105e-23 -3.12001e-32 0)
(1.49005e-31 -2.54009e-32 0)
(1.43045e-31 -2.13884e-32 0)
(1.37659e-31 -1.85364e-32 0)
(0.00149372 0.00307123 0)
(0.00435002 0.00294807 0)
(0.00692158 0.00276729 0)
(0.00919088 0.00257982 0)
(0.0111853 0.00242896 0)
(0.0129591 0.00235074 0)
(0.0145789 0.00238196 0)
(0.0161149 0.0025746 0)
(0.0176274 0.00302223 0)
(0.019104 0.00391866 0)
(0.0200355 0.00570186 0)
(0.0132771 0.00744053 0)
(0.00315366 1.58016e-07 0)
(2.13434e-08 -3.68206e-33 0)
(1.74022e-31 -2.55298e-32 0)
(1.52935e-31 -1.98693e-32 0)
(1.45758e-31 -1.63137e-32 0)
(1.39647e-31 -1.39239e-32 0)
(0.00141102 0.00194798 0)
(0.00411757 0.00187599 0)
(0.0065742 0.00176953 0)
(0.00876657 0.00165991 0)
(0.0107202 0.00157485 0)
(0.0124872 0.00153892 0)
(0.0141365 0.00157927 0)
(0.0157524 0.00173706 0)
(0.0174402 0.00209091 0)
(0.0193634 0.00280894 0)
(0.0219658 0.00419012 0)
(0.0118786 0.00373411 0)
(0.000117688 -2.18817e-18 0)
(1.9808e-16 -2.78281e-32 0)
(1.66057e-31 -1.8801e-32 0)
(1.55879e-31 -1.40568e-32 0)
(1.47676e-31 -1.13039e-32 0)
(1.40992e-31 -9.54027e-33 0)
(0.00131133 0.00102622 0)
(0.00383343 0.000991152 0)
(0.00613887 0.000938782 0)
(0.00821683 0.000885513 0)
(0.0100917 0.000846362 0)
(0.0118129 0.000835325 0)
(0.0134494 0.000868704 0)
(0.0150901 0.000971943 0)
(0.0168553 0.00119332 0)
(0.0188881 0.00162511 0)
(0.0205856 0.00230465 0)
(0.0106019 8.52157e-05 0)
(1.12162e-05 -2.12741e-21 0)
(1.61663e-20 -1.9448e-32 0)
(1.69911e-31 -1.1521e-32 0)
(1.5782e-31 -8.26882e-33 0)
(1.48835e-31 -6.55281e-33 0)
(1.41772e-31 -5.49754e-33 0)
(0.00100486 0.000306013 0)
(0.00294357 0.000296203 0)
(0.00472983 0.000281395 0)
(0.00636128 0.000266551 0)
(0.00786865 0.00025634 0)
(0.0093081 0.000255261 0)
(0.0107564 0.00026873 0)
(0.0123115 0.000305285 0)
(0.0140939 0.000380924 0)
(0.0161737 0.000526605 0)
(0.0156445 0.000786274 0)
(0.00700097 2.44939e-06 0)
(8.9e-07 -1.77176e-26 0)
(9.63088e-26 -7.27051e-33 0)
(1.72151e-31 -3.94845e-33 0)
(1.58726e-31 -2.78804e-33 0)
(1.49337e-31 -2.21291e-33 0)
(1.42101e-31 -1.86746e-33 0)
(5.76952e-34 -1.39485e-33 -1.80212e-59)
(1.73549e-33 -1.393e-33 1.79836e-59)
(2.90114e-33 -1.3898e-33 0)
(4.07266e-33 -1.38525e-33 0)
(5.24876e-33 -1.37932e-33 0)
(6.4281e-33 -1.37204e-33 -1.76573e-59)
(7.60935e-33 -1.3634e-33 0)
(8.79111e-33 -1.35342e-33 0)
(9.97201e-33 -1.34212e-33 0)
(1.11507e-32 -1.32955e-33 0)
(1.23257e-32 -1.31574e-33 1.686e-59)
(1.34956e-32 -1.30074e-33 0)
(1.46592e-32 -1.2846e-33 0)
(1.58151e-32 -1.26738e-33 0)
(1.69621e-32 -1.24915e-33 0)
(1.80987e-32 -1.22999e-33 1.56835e-59)
(1.92239e-32 -1.20995e-33 0)
(2.03365e-32 -1.18912e-33 0)
(2.14355e-32 -1.16758e-33 0)
(2.25196e-32 -1.14541e-33 0)
(2.35881e-32 -1.12269e-33 0)
(2.464e-32 -1.0995e-33 0)
(2.56745e-32 -1.07591e-33 0)
(2.66909e-32 -1.05201e-33 1.32819e-59)
(2.76883e-32 -1.02788e-33 -1.29581e-59)
(2.86664e-32 -1.00358e-33 1.26325e-59)
(2.96244e-32 -9.79182e-34 1.23059e-59)
(3.0562e-32 -9.54762e-34 0)
(3.14787e-32 -9.30379e-34 0)
(3.23742e-32 -9.06093e-34 -1.13288e-59)
(3.32483e-32 -8.81959e-34 -1.10066e-59)
(3.41008e-32 -8.58029e-34 0)
(3.49314e-32 -8.3435e-34 0)
(3.57402e-32 -8.10966e-34 -1.00596e-59)
(3.65271e-32 -7.87915e-34 0)
(3.72922e-32 -7.65234e-34 0)
(3.80354e-32 -7.42952e-34 9.15343e-60)
(3.87569e-32 -7.21098e-34 0)
(3.94568e-32 -6.99696e-34 8.57757e-60)
(4.01354e-32 -6.78765e-34 1.65981e-59)
(4.07928e-32 -6.58324e-34 0)
(4.14293e-32 -6.38386e-34 0)
(4.20452e-32 -6.18963e-34 0)
(4.26408e-32 -6.00063e-34 0)
(4.32164e-32 -5.81694e-34 0)
(4.37723e-32 -5.63859e-34 1.3542e-59)
(4.4309e-32 -5.46559e-34 1.30821e-59)
(4.48267e-32 -5.29796e-34 1.26366e-59)
(4.5326e-32 -5.13568e-34 0)
(4.58071e-32 -4.97872e-34 -1.17882e-59)
(4.62705e-32 -4.82704e-34 0)
(4.67166e-32 -4.68057e-34 1.0996e-59)
(4.71458e-32 -4.53926e-34 1.06206e-59)
(4.75586e-32 -4.40302e-34 0)
(4.79554e-32 -4.27177e-34 0)
(4.83366e-32 -4.14543e-34 0)
(4.87026e-32 -4.02389e-34 9.25168e-60)
(4.90539e-32 -3.90705e-34 0)
(4.93909e-32 -3.7948e-34 0)
(4.97141e-32 -3.68704e-34 0)
(5.00237e-32 -3.58364e-34 0)
(5.03204e-32 -3.4845e-34 0)
(5.06044e-32 -3.3895e-34 0)
(5.08762e-32 -3.29851e-34 0)
(5.11361e-32 -3.21143e-34 0)
(5.13847e-32 -3.12812e-34 -6.87285e-60)
(5.16222e-32 -3.04848e-34 0)
(5.18491e-32 -2.97238e-34 0)
(5.20657e-32 -2.89971e-34 6.26636e-60)
(5.22724e-32 -2.83035e-34 6.08216e-60)
(5.24695e-32 -2.76419e-34 0)
(5.26574e-32 -2.70111e-34 -5.739e-60)
(5.28365e-32 -2.641e-34 5.57939e-60)
(5.30071e-32 -2.58375e-34 0)
(5.31695e-32 -2.52926e-34 -5.28269e-60)
(5.3324e-32 -2.47742e-34 0)
(5.3471e-32 -2.42813e-34 0)
(5.36107e-32 -2.38128e-34 4.88977e-60)
(5.37434e-32 -2.33679e-34 0)
(5.38695e-32 -2.29454e-34 -4.65944e-60)
(5.39891e-32 -2.25446e-34 0)
(5.41027e-32 -2.21645e-34 4.45204e-60)
(5.42103e-32 -2.18042e-34 4.35637e-60)
(5.43124e-32 -2.14628e-34 4.26573e-60)
(5.4409e-32 -2.11396e-34 8.35981e-60)
(5.45006e-32 -2.08337e-34 -8.19733e-60)
(5.45872e-32 -2.05444e-34 0)
(5.46691e-32 -2.02709e-34 0)
(5.47466e-32 -2.00125e-34 0)
(5.48198e-32 -1.97685e-34 -7.63156e-60)
(5.4889e-32 -1.95382e-34 -7.5092e-60)
(5.49543e-32 -1.93209e-34 7.3938e-60)
(5.50158e-32 -1.9116e-34 0)
(5.50739e-32 -1.8923e-34 -7.18246e-60)
(5.51286e-32 -1.87412e-34 -7.08587e-60)
(5.51802e-32 -1.85701e-34 -6.99497e-60)
(5.52288e-32 -1.84091e-34 0)
(5.52744e-32 -1.82578e-34 0)
(5.53174e-32 -1.81155e-34 0)
(5.53578e-32 -1.7982e-34 -6.68253e-60)
(5.53957e-32 -1.78566e-34 0)
(5.54313e-32 -1.7739e-34 0)
(5.54648e-32 -1.76287e-34 6.49486e-60)
(5.54961e-32 -1.75254e-34 0)
(5.55255e-32 -1.74286e-34 0)
(5.5553e-32 -1.7338e-34 6.34041e-60)
(5.55788e-32 -1.72533e-34 0)
(5.56029e-32 -1.71741e-34 0)
(5.56255e-32 -1.71001e-34 -6.214e-60)
(5.56466e-32 -1.7031e-34 -6.17728e-60)
(5.56663e-32 -1.69666e-34 0)
(5.56846e-32 -1.69064e-34 6.11105e-60)
(5.57018e-32 -1.68504e-34 0)
(5.57178e-32 -1.67982e-34 -6.05355e-60)
(5.57327e-32 -1.67496e-34 0)
(5.57466e-32 -1.67044e-34 -6.00369e-60)
(5.57595e-32 -1.66624e-34 -5.98138e-60)
(5.57715e-32 -1.66233e-34 0)
(5.57827e-32 -1.65871e-34 0)
(5.57931e-32 -1.65534e-34 0)
(5.58027e-32 -1.65222e-34 0)
(5.58116e-32 -1.64933e-34 0)
(5.58199e-32 -1.64665e-34 0)
(5.58276e-32 -1.64417e-34 0)
(5.58347e-32 -1.64188e-34 -5.85187e-60)
(5.58413e-32 -1.63976e-34 5.84063e-60)
(5.58474e-32 -1.6378e-34 0)
(5.5853e-32 -1.63599e-34 0)
(5.58582e-32 -1.63433e-34 0)
(5.5863e-32 -1.63279e-34 0)
(5.58674e-32 -1.63137e-34 1.1592e-59)
(5.58714e-32 -1.63006e-34 0)
(5.58752e-32 -1.62886e-34 -1.15653e-59)
(5.58786e-32 -1.62775e-34 1.15536e-59)
(5.58818e-32 -1.62673e-34 0)
(5.58847e-32 -1.6258e-34 0)
(5.58873e-32 -1.62493e-34 0)
(5.58898e-32 -1.62414e-34 -1.15151e-59)
(5.5892e-32 -1.62341e-34 -1.15073e-59)
(5.5894e-32 -1.62273e-34 0)
(5.58959e-32 -1.62211e-34 -1.14935e-59)
(5.58976e-32 -1.62153e-34 -1.14874e-59)
(5.58991e-32 -1.62099e-34 1.14817e-59)
(5.59004e-32 -1.62048e-34 0)
(5.59017e-32 -1.62001e-34 0)
(5.59028e-32 -1.61955e-34 1.14665e-59)
(5.59037e-32 -1.61912e-34 0)
(5.59045e-32 -1.61869e-34 0)
(5.59052e-32 -1.61826e-34 0)
(5.59057e-32 -1.61783e-34 0)
(5.59061e-32 -1.61737e-34 -1.14436e-59)
(5.59064e-32 -1.61689e-34 -1.14386e-59)
(5.59064e-32 -1.61636e-34 0)
(5.59063e-32 -1.61576e-34 -1.14269e-59)
(5.59059e-32 -1.61508e-34 0)
(5.59053e-32 -1.61428e-34 0)
(5.59044e-32 -1.61332e-34 -1.14019e-59)
(5.5903e-32 -1.61217e-34 0)
(5.59012e-32 -1.61077e-34 -1.13758e-59)
(5.58988e-32 -1.60904e-34 0)
(5.58957e-32 -1.60689e-34 0)
(5.58916e-32 -1.6042e-34 -1.13088e-59)
(5.58863e-32 -1.60081e-34 0)
(5.58795e-32 -1.59653e-34 -1.12306e-59)
(5.58707e-32 -1.59108e-34 0)
(5.58595e-32 -1.58411e-34 0)
(5.5845e-32 -1.57516e-34 0)
(5.58262e-32 -1.56359e-34 1.08951e-59)
(5.5802e-32 -1.54852e-34 0)
(5.57704e-32 -1.52873e-34 -1.05399e-59)
(5.57291e-32 -1.50249e-34 0)
(5.56747e-32 -1.4672e-34 0)
(5.56024e-32 -1.41895e-34 0)
(5.55049e-32 -1.35145e-34 0)
(5.53713e-32 -1.25394e-34 0)
(5.51838e-32 -1.10649e-34 0)
(5.49106e-32 -8.67452e-35 0)
(5.44871e-32 -4.33493e-35 -1.3268e-60)
(5.37508e-32 5.2663e-35 0)
(5.21188e-32 3.53717e-34 0)
(5.79757e-34 -3.86727e-33 4.99626e-59)
(1.74391e-33 -3.86167e-33 -4.9849e-59)
(2.91516e-33 -3.852e-33 0)
(4.09224e-33 -3.83823e-33 9.90225e-59)
(5.27381e-33 -3.82033e-33 0)
(6.45853e-33 -3.7983e-33 -4.90156e-59)
(7.645e-33 -3.77217e-33 -9.71472e-59)
(8.83182e-33 -3.74201e-33 -9.63114e-59)
(1.00176e-32 -3.70788e-33 0)
(1.12008e-32 -3.66989e-33 -9.43353e-59)
(1.23802e-32 -3.62816e-33 4.67467e-59)
(1.35543e-32 -3.58285e-33 0)
(1.47217e-32 -3.53411e-33 0)
(1.58812e-32 -3.48214e-33 0)
(1.70313e-32 -3.42713e-33 0)
(1.81708e-32 -3.36929e-33 4.33326e-59)
(1.92986e-32 -3.30885e-33 0)
(2.04134e-32 -3.24605e-33 8.29443e-59)
(2.15142e-32 -3.18111e-33 0)
(2.25999e-32 -3.11429e-33 0)
(2.36696e-32 -3.04582e-33 -7.76149e-59)
(2.47224e-32 -2.97596e-33 0)
(2.57575e-32 -2.90494e-33 7.38745e-59)
(2.67742e-32 -2.83299e-33 3.62994e-59)
(2.77717e-32 -2.76035e-33 -3.53488e-59)
(2.87495e-32 -2.68723e-33 3.43922e-59)
(2.97071e-32 -2.61385e-33 3.34325e-59)
(3.0644e-32 -2.54041e-33 0)
(3.15599e-32 -2.4671e-33 0)
(3.24543e-32 -2.3941e-33 -3.05599e-59)
(3.33272e-32 -2.32158e-33 -8.80498e-59)
(3.41783e-32 -2.24968e-33 0)
(3.50075e-32 -2.17855e-33 0)
(3.58147e-32 -2.10832e-33 -2.68266e-59)
(3.65998e-32 -2.0391e-33 0)
(3.73631e-32 -1.97101e-33 0)
(3.81044e-32 -1.90412e-33 2.41604e-59)
(3.8824e-32 -1.83853e-33 0)
(3.95219e-32 -1.77431e-33 6.64645e-59)
(4.01985e-32 -1.71151e-33 4.32924e-59)
(4.08539e-32 -1.65018e-33 0)
(4.14884e-32 -1.59038e-33 0)
(4.21023e-32 -1.53212e-33 -7.52327e-59)
(4.26958e-32 -1.47544e-33 -7.22463e-59)
(4.32694e-32 -1.42036e-33 -6.93444e-59)
(4.38234e-32 -1.36688e-33 1.00826e-58)
(4.4358e-32 -1.31501e-33 3.2945e-59)
(4.48739e-32 -1.26476e-33 -2.95147e-59)
(4.53712e-32 -1.21611e-33 5.85865e-59)
(4.58504e-32 -1.16906e-33 -2.91369e-59)
(4.6312e-32 -1.12359e-33 0)
(4.67564e-32 -1.07969e-33 2.68055e-59)
(4.71839e-32 -1.03734e-33 7.48737e-59)
(4.7595e-32 -9.96509e-34 0)
(4.79901e-32 -9.57177e-34 0)
(4.83697e-32 -9.19315e-34 0)
(4.87342e-32 -8.82894e-34 2.16717e-59)
(4.9084e-32 -8.47883e-34 0)
(4.94196e-32 -8.14249e-34 3.74286e-59)
(4.97413e-32 -7.8196e-34 0)
(5.00497e-32 -7.5098e-34 3.40982e-59)
(5.0345e-32 -7.21276e-34 0)
(5.06278e-32 -6.92812e-34 -3.10363e-59)
(5.08984e-32 -6.65552e-34 0)
(5.11572e-32 -6.39461e-34 2.82282e-59)
(5.14047e-32 -6.14504e-34 -4.15855e-59)
(5.16412e-32 -5.90644e-34 0)
(5.1867e-32 -5.67846e-34 -2.44587e-59)
(5.20827e-32 -5.46075e-34 1.28861e-59)
(5.22884e-32 -5.25296e-34 1.23441e-59)
(5.24847e-32 -5.05474e-34 0)
(5.26718e-32 -4.86577e-34 -3.15154e-59)
(5.28501e-32 -4.6857e-34 1.08645e-59)
(5.30199e-32 -4.5142e-34 0)
(5.31816e-32 -4.35097e-34 -9.99139e-60)
(5.33354e-32 -4.19567e-34 -1.66542e-59)
(5.34817e-32 -4.048e-34 0)
(5.36208e-32 -3.90767e-34 8.83514e-60)
(5.37529e-32 -3.77437e-34 0)
(5.38784e-32 -3.64782e-34 5.61326e-60)
(5.39976e-32 -3.52775e-34 0)
(5.41106e-32 -3.41387e-34 -4.99209e-60)
(5.42178e-32 -3.30594e-34 7.2656e-60)
(5.43194e-32 -3.20368e-34 1.84317e-59)
(5.44156e-32 -3.10686e-34 3.53391e-59)
(5.45067e-32 -3.01523e-34 -3.38964e-59)
(5.4593e-32 -2.92857e-34 0)
(5.46746e-32 -2.84664e-34 0)
(5.47517e-32 -2.76923e-34 0)
(5.48246e-32 -2.69612e-34 6.17237e-60)
(5.48934e-32 -2.62713e-34 -1.09899e-59)
(5.49584e-32 -2.56204e-34 1.06504e-59)
(5.50197e-32 -2.50067e-34 0)
(5.50775e-32 -2.44285e-34 -2.48843e-59)
(5.5132e-32 -2.38839e-34 -9.74443e-60)
(5.51834e-32 -2.33713e-34 -9.477e-60)
(5.52317e-32 -2.28891e-34 0)
(5.52772e-32 -2.24357e-34 0)
(5.53199e-32 -2.20096e-34 0)
(5.53602e-32 -2.16095e-34 -8.55781e-60)
(5.53979e-32 -2.12339e-34 0)
(5.54334e-32 -2.08816e-34 -1.11211e-59)
(5.54667e-32 -2.05512e-34 -2.76754e-60)
(5.54979e-32 -2.02417e-34 1.04472e-59)
(5.55271e-32 -1.99518e-34 0)
(5.55546e-32 -1.96805e-34 1.74076e-59)
(5.55802e-32 -1.94267e-34 0)
(5.56042e-32 -1.91894e-34 9.33916e-60)
(5.56267e-32 -1.89678e-34 -1.62853e-59)
(5.56477e-32 -1.87608e-34 -1.59592e-59)
(5.56673e-32 -1.85677e-34 0)
(5.56856e-32 -1.83875e-34 -1.61795e-60)
(5.57027e-32 -1.82197e-34 8.3179e-60)
(5.57186e-32 -1.80633e-34 -6.70755e-60)
(5.57335e-32 -1.79177e-34 0)
(5.57473e-32 -1.77823e-34 -6.56092e-60)
(5.57601e-32 -1.76564e-34 1.22936e-60)
(5.57721e-32 -1.75394e-34 0)
(5.57832e-32 -1.74308e-34 7.48702e-60)
(5.57936e-32 -1.733e-34 7.38083e-60)
(5.58031e-32 -1.72365e-34 7.28237e-60)
(5.5812e-32 -1.71499e-34 0)
(5.58203e-32 -1.70697e-34 0)
(5.58279e-32 -1.69954e-34 0)
(5.5835e-32 -1.69267e-34 -1.30704e-59)
(5.58416e-32 -1.68632e-34 6.08133e-60)
(5.58476e-32 -1.68046e-34 0)
(5.58532e-32 -1.67504e-34 -6.77025e-60)
(5.58584e-32 -1.67004e-34 -6.71758e-60)
(5.58632e-32 -1.66543e-34 0)
(5.58676e-32 -1.66118e-34 1.19003e-59)
(5.58716e-32 -1.65727e-34 -1.31661e-59)
(5.58753e-32 -1.65367e-34 -1.18218e-59)
(5.58788e-32 -1.65035e-34 2.48075e-59)
(5.58819e-32 -1.6473e-34 0)
(5.58848e-32 -1.64449e-34 0)
(5.58875e-32 -1.6419e-34 0)
(5.58899e-32 -1.63952e-34 -1.16742e-59)
(5.58921e-32 -1.63733e-34 -2.43972e-59)
(5.58941e-32 -1.6353e-34 -1.27034e-59)
(5.5896e-32 -1.63343e-34 -1.16106e-59)
(5.58976e-32 -1.6317e-34 -2.422e-59)
(5.58991e-32 -1.63008e-34 1.15757e-59)
(5.59005e-32 -1.62857e-34 0)
(5.59017e-32 -1.62714e-34 0)
(5.59028e-32 -1.62578e-34 2.40341e-59)
(5.59038e-32 -1.62448e-34 0)
(5.59046e-32 -1.62319e-34 0)
(5.59052e-32 -1.62192e-34 -1.24223e-59)
(5.59058e-32 -1.62061e-34 0)
(5.59062e-32 -1.61926e-34 -2.38301e-59)
(5.59064e-32 -1.61781e-34 -1.14481e-59)
(5.59065e-32 -1.61622e-34 0)
(5.59064e-32 -1.61444e-34 -2.36806e-59)
(5.5906e-32 -1.6124e-34 0)
(5.59054e-32 -1.61001e-34 0)
(5.59045e-32 -1.60716e-34 -1.13382e-59)
(5.59032e-32 -1.60373e-34 -1.2047e-59)
(5.59014e-32 -1.59954e-34 -1.12597e-59)
(5.5899e-32 -1.59437e-34 0)
(5.58959e-32 -1.58795e-34 0)
(5.58919e-32 -1.57992e-34 -2.26166e-59)
(5.58867e-32 -1.56981e-34 0)
(5.588e-32 -1.55703e-34 -2.1912e-59)
(5.58714e-32 -1.54077e-34 0)
(5.58603e-32 -1.51998e-34 0)
(5.5846e-32 -1.49328e-34 0)
(5.58276e-32 -1.45876e-34 9.81106e-60)
(5.58037e-32 -1.41384e-34 0)
(5.57727e-32 -1.35487e-34 -8.74202e-60)
(5.57322e-32 -1.2767e-34 0)
(5.56788e-32 -1.17171e-34 0)
(5.56079e-32 -1.02833e-34 -2.59461e-61)
(5.55127e-32 -8.28099e-35 -3.84515e-60)
(5.53828e-32 -5.39781e-35 0)
(5.52018e-32 -1.0611e-35 0)
(5.49415e-32 5.89769e-35 0)
(5.45505e-32 1.8244e-34 6.86372e-59)
(5.39291e-32 4.39981e-34 0)
(5.29488e-32 1.13376e-33 -5.08916e-58)
(5.85439e-34 -6.35783e-33 3.28622e-58)
(1.76096e-33 -6.34835e-33 -4.19162e-62)
(2.94355e-33 -6.33199e-33 0)
(4.13187e-33 -6.30868e-33 9.78897e-62)
(5.32453e-33 -6.27836e-33 0)
(6.5201e-33 -6.24108e-33 0)
(7.71714e-33 -6.19686e-33 -3.19458e-58)
(8.91417e-33 -6.14582e-33 -1.58445e-58)
(1.01097e-32 -6.08809e-33 1.56657e-58)
(1.13023e-32 -6.02386e-33 -1.55179e-58)
(1.24905e-32 -5.95334e-33 0)
(1.36729e-32 -5.87678e-33 0)
(1.4848e-32 -5.79448e-33 -1.48732e-58)
(1.60145e-32 -5.70676e-33 -2.92763e-58)
(1.7171e-32 -5.61396e-33 2.87801e-58)
(1.83162e-32 -5.51645e-33 0)
(1.9449e-32 -5.4146e-33 2.77172e-58)
(2.05682e-32 -5.30883e-33 1.36259e-58)
(2.16727e-32 -5.19953e-33 0)
(2.27615e-32 -5.08712e-33 2.59773e-58)
(2.38336e-32 -4.97202e-33 -1.27398e-58)
(2.48882e-32 -4.85463e-33 -2.47452e-58)
(2.59244e-32 -4.73537e-33 1.21182e-58)
(2.69416e-32 -4.61462e-33 0)
(2.79392e-32 -4.49277e-33 2.28312e-58)
(2.89165e-32 -4.37019e-33 2.21837e-58)
(2.98732e-32 -4.24724e-33 0)
(3.08087e-32 -4.12425e-33 2.08854e-58)
(3.17227e-32 -4.00153e-33 0)
(3.2615e-32 -3.87939e-33 1.95939e-58)
(3.34854e-32 -3.7581e-33 -9.55634e-59)
(3.43337e-32 -3.63791e-33 0)
(3.51598e-32 -3.51906e-33 0)
(3.59637e-32 -3.40176e-33 0)
(3.67454e-32 -3.28619e-33 0)
(3.7505e-32 -3.17253e-33 0)
(3.82425e-32 -3.06093e-33 0)
(3.89582e-32 -2.95153e-33 1.47071e-58)
(3.96522e-32 -2.84443e-33 -6.97817e-59)
(4.03248e-32 -2.73974e-33 0)
(4.09761e-32 -2.63753e-33 0)
(4.16065e-32 -2.53787e-33 0)
(4.22163e-32 -2.44083e-33 -2.42408e-58)
(4.28058e-32 -2.34642e-33 -1.17265e-58)
(4.33754e-32 -2.25469e-33 -2.04837e-60)
(4.39253e-32 -2.16565e-33 2.07431e-60)
(4.44561e-32 -2.07931e-33 -1.012e-58)
(4.4968e-32 -1.99567e-33 -9.89269e-59)
(4.54615e-32 -1.91471e-33 1.87243e-58)
(4.5937e-32 -1.83642e-33 8.84332e-59)
(4.6395e-32 -1.76078e-33 0)
(4.68358e-32 -1.68775e-33 8.06195e-59)
(4.72598e-32 -1.61729e-33 1.56066e-58)
(4.76675e-32 -1.54938e-33 0)
(4.80594e-32 -1.48397e-33 0)
(4.84358e-32 -1.42101e-33 -6.66029e-59)
(4.87973e-32 -1.36044e-33 0)
(4.91441e-32 -1.30223e-33 0)
(4.94768e-32 -1.24631e-33 1.74608e-58)
(4.97958e-32 -1.19262e-33 1.09206e-58)
(5.01015e-32 -1.14112e-33 5.42631e-59)
(5.03942e-32 -1.09174e-33 0)
(5.06745e-32 -1.04442e-33 -4.92098e-59)
(5.09428e-32 -9.9911e-34 0)
(5.11993e-32 -9.55741e-34 1.28891e-58)
(5.14446e-32 -9.14257e-34 -4.24076e-59)
(5.1679e-32 -8.74598e-34 -7.57898e-59)
(5.19029e-32 -8.36706e-34 -1.10163e-58)
(5.21166e-32 -8.00521e-34 0)
(5.23205e-32 -7.65986e-34 6.43778e-59)
(5.25151e-32 -7.33043e-34 0)
(5.27005e-32 -7.01636e-34 2.63199e-59)
(5.28772e-32 -6.7171e-34 5.44722e-59)
(5.30455e-32 -6.43209e-34 5.14777e-59)
(5.32057e-32 -6.16081e-34 -4.86272e-59)
(5.33582e-32 -5.90272e-34 2.04382e-59)
(5.35032e-32 -5.65732e-34 0)
(5.3641e-32 -5.4241e-34 0)
(5.3772e-32 -5.20258e-34 -3.85591e-59)
(5.38963e-32 -4.99228e-34 -1.56298e-59)
(5.40144e-32 -4.79274e-34 0)
(5.41264e-32 -4.6035e-34 -1.8688e-59)
(5.42326e-32 -4.42413e-34 0)
(5.43333e-32 -4.2542e-34 -1.17315e-59)
(5.44287e-32 -4.09331e-34 5.8947e-59)
(5.4519e-32 -3.94104e-34 -5.57555e-59)
(5.46045e-32 -3.79702e-34 2.37901e-59)