/*--------------------------------*- C++ -*----------------------------------*\
  =========                 |
  \\      /  F ield         | OpenFOAM: The Open Source CFD Toolbox
   \\    /   O peration     | Website:  https://openfoam.org
    \\  /    A nd           | Version:  10
     \\/     M anipulation  |
\*---------------------------------------------------------------------------*/
FoamFile
{
    format      ascii;
    class       volScalarField;
    location    "10600";
    object      p;
}
// * * * * * * * * * * * * * * * * * * * * * * * * * * * * * * * * * * * * * //

dimensions      [1 -1 -2 0 0 0 0];

internalField   nonuniform List<scalar> 
6400
(
111.385
111.398
111.423
111.46
111.511
111.575
111.652
111.743
111.849
111.971
112.109
112.263
112.437
112.631
112.846
113.087
113.354
113.653
113.988
114.367
114.798
115.297
115.886
116.586
118.286
417.17
745.576
1089.1
1425.78
1753.03
2064.38
2356.58
2559.31
2680.21
2795.4
2902
2996.16
3073.2
3128.15
3156.8
3156.8
3128.15
3073.2
2996.16
2902
2795.4
2680.21
2559.31
2356.58
2064.38
1753.03
1425.78
1089.1
745.576
417.17
118.286
116.586
115.886
115.297
114.798
114.367
113.988
113.653
113.354
113.087
112.846
112.631
112.437
112.263
112.109
111.971
111.849
111.743
111.652
111.575
111.511
111.46
111.423
111.398
111.385
111.091
111.103
111.128
111.166
111.216
111.28
111.357
111.449
111.555
111.676
111.814
111.969
112.142
112.336
112.551
112.791
113.059
113.358
113.693
114.071
114.502
114.999
115.587
116.302
117.451
121.281
450.606
795.232
1132.1
1459.67
1771.2
2063.07
2266.17
2387.5
2503.35
2610.83
2706.06
2784.23
2840.13
2869.33
2869.33
2840.13
2784.23
2706.06
2610.83
2503.35
2387.5
2266.17
2063.07
1771.2
1459.67
1132.1
795.232
450.606
121.281
117.451
116.302
115.587
114.999
114.502
114.071
113.693
113.358
113.059
112.791
112.551
112.336
112.142
111.969
111.814
111.676
111.555
111.449
111.357
111.28
111.216
111.166
111.128
111.103
111.091
110.767
110.779
110.804
110.842
110.893
110.956
111.034
111.125
111.231
111.352
111.49
111.644
111.818
112.011
112.227
112.466
112.733
113.031
113.366
113.743
114.172
114.668
115.252
115.969
117.012
118.056
125.467
473.011
810.304
1138.68
1450.63
1741.68
1945.63
2067.93
2185.33
2294.86
2392.6
2473.48
2531.66
2562.14
2562.14
2531.66
2473.48
2392.6
2294.86
2185.33
2067.93
1945.63
1741.68
1450.63
1138.68
810.304
473.011
125.467
118.056
117.012
115.969
115.252
114.668
114.172
113.743
113.366
113.031
112.733
112.466
112.227
112.011
111.818
111.644
111.49
111.352
111.231
111.125
111.034
110.956
110.893
110.842
110.804
110.779
110.767
110.411
110.424
110.449
110.486
110.537
110.6
110.677
110.769
110.874
110.996
111.133
111.288
111.461
111.654
111.869
112.108
112.374
112.672
113.005
113.38
113.807
114.299
114.877
115.582
116.53
117.48
118.256
121.501
457.669
787.537
1100.31
1389.69
1595.08
1719.05
1839.16
1952.3
2054.52
2140.34
2202.73
2235.55
2235.55
2202.73
2140.34
2054.52
1952.3
1839.16
1719.05
1595.08
1389.69
1100.31
787.537
457.669
121.501
118.256
117.48
116.53
115.582
114.877
114.299
113.807
113.38
113.005
112.672
112.374
112.108
111.869
111.654
111.461
111.288
111.133
110.996
110.874
110.769
110.677
110.6
110.537
110.486
110.449
110.424
110.411
110.02
110.032
110.057
110.095
110.145
110.209
110.286
110.377
110.483
110.603
110.74
110.895
111.067
111.26
111.474
111.713
111.978
112.274
112.605
112.978
113.402
113.888
114.456
115.14
116.001
116.862
117.566
117.974
118.882
403.912
717.897
1003.96
1211.55
1337.97
1462.36
1581.1
1690.53
1784.65
1854.14
1890.88
1890.88
1854.14
1784.65
1690.53
1581.1
1462.36
1337.97
1211.55
1003.96
717.897
403.912
118.882
117.974
117.566
116.862
116.001
115.14
114.456
113.888
113.402
112.978
112.605
112.274
111.978
111.713
111.474
111.26
111.067
110.895
110.74
110.603
110.483
110.377
110.286
110.209
110.145
110.095
110.057
110.032
110.02
109.59
109.602
109.627
109.664
109.715
109.778
109.855
109.946
110.051
110.172
110.308
110.462
110.634
110.826
111.04
111.277
111.541
111.835
112.164
112.533
112.951
113.429
113.984
114.639
115.421
116.197
116.837
117.23
117.381
117.38
303.619
580.725
791.527
921.083
1052.02
1178.79
1299.13
1406.95
1488.25
1531.28
1531.28
1488.25
1406.95
1299.13
1178.79
1052.02
921.083
791.527
580.725
303.619
117.38
117.381
117.23
116.837
116.197
115.421
114.639
113.984
113.429
112.951
112.533
112.164
111.835
111.541
111.277
111.04
110.826
110.634
110.462
110.308
110.172
110.051
109.946
109.855
109.778
109.715
109.664
109.627
109.602
109.59
109.116
109.129
109.154
109.191
109.241
109.304
109.381
109.471
109.576
109.697
109.833
109.986
110.157
110.348
110.56
110.796
111.058
111.35
111.675
112.04
112.451
112.918
113.455
114.076
114.785
115.484
116.064
116.441
116.609
116.589
116.507
118.756
331.578
463.715
605.307
742.187
878.079
1009.17
1110.35
1163.19
1163.19
1110.35
1009.17
878.079
742.187
605.307
463.715
331.578
118.756
116.507
116.589
116.609
116.441
116.064
115.484
114.785
114.076
113.455
112.918
112.451
112.04
111.675
111.35
111.058
110.796
110.56
110.348
110.157
109.986
109.833
109.697
109.576
109.471
109.381
109.304
109.241
109.191
109.154
109.129
109.116
108.596
108.608
108.633
108.67
108.72
108.783
108.859
108.949
109.054
109.173
109.309
109.461
109.631
109.821
110.031
110.265
110.524
110.813
111.133
111.492
111.894
112.348
112.863
113.447
114.09
114.717
115.243
115.602
115.787
115.827
115.843
116.18
116.022
116.155
158.189
272.545
425.657
597.346
732.598
799.587
799.587
732.598
597.346
425.657
272.545
158.189
116.155
116.022
116.18
115.843
115.827
115.787
115.602
115.243
114.717
114.09
113.447
112.863
112.348
111.894
111.492
111.133
110.813
110.524
110.265
110.031
109.821
109.631
109.461
109.309
109.173
109.054
108.949
108.859
108.783
108.72
108.67
108.633
108.608
108.596
108.023
108.035
108.06
108.097
108.146
108.209
108.285
108.374
108.478
108.597
108.731
108.882
109.051
109.239
109.447
109.679
109.935
110.219
110.534
110.884
111.276
111.714
112.204
112.748
113.329
113.892
114.368
114.71
114.909
114.995
115.064
115.275
115.245
115.275
115.271
115.246
121.248
215.821
388.588
468.587
468.587
388.588
215.821
121.248
115.246
115.271
115.275
115.245
115.275
115.064
114.995
114.909
114.71
114.368
113.892
113.329
112.748
112.204
111.714
111.276
110.884
110.534
110.219
109.935
109.679
109.447
109.239
109.051
108.882
108.731
108.597
108.478
108.374
108.285
108.209
108.146
108.097
108.06
108.035
108.023
107.392
107.404
107.428
107.465
107.515
107.577
107.652
107.741
107.844
107.962
108.095
108.244
108.411
108.597
108.803
109.031
109.283
109.561
109.869
110.21
110.589
111.008
111.47
111.973
112.499
113.003
113.435
113.758
113.966
114.086
114.183
114.329
114.346
114.362
114.368
114.368
114.379
116.156
182.257
235.495
235.495
182.257
116.156
114.379
114.368
114.368
114.362
114.346
114.329
114.183
114.086
113.966
113.758
113.435
113.003
112.499
111.973
111.47
111.008
110.589
110.21
109.869
109.561
109.283
109.031
108.803
108.597
108.411
108.244
108.095
107.962
107.844
107.741
107.652
107.577
107.515
107.465
107.428
107.404
107.392
106.697
106.709
106.733
106.77
106.819
106.88
106.955
107.043
107.145
107.261
107.393
107.541
107.705
107.888
108.091
108.314
108.561
108.833
109.133
109.463
109.826
110.224
110.657
111.119
111.592
112.044
112.436
112.74
112.953
113.094
113.205
113.32
113.354
113.371
113.384
113.394
113.41
113.671
127.944
147.78
147.78
127.944
113.671
113.41
113.394
113.384
113.371
113.354
113.32
113.205
113.094
112.953
112.74
112.436
112.044
111.592
111.119
110.657
110.224
109.826
109.463
109.133
108.833
108.561
108.314
108.091
107.888
107.705
107.541
107.393
107.261
107.145
107.043
106.955
106.88
106.819
106.77
106.733
106.709
106.697
105.932
105.944
105.968
106.004
106.052
106.113
106.187
106.273
106.374
106.489
106.619
106.764
106.926
107.106
107.304
107.523
107.763
108.027
108.317
108.633
108.979
109.354
109.756
110.178
110.605
111.009
111.364
111.65
111.862
112.014
112.132
112.232
112.273
112.292
112.307
112.318
112.329
112.384
117.132
125.931
125.931
117.132
112.384
112.329
112.318
112.307
112.292
112.273
112.232
112.132
112.014
111.862
111.65
111.364
111.009
110.605
110.178
109.756
109.354
108.979
108.633
108.317
108.027
107.763
107.523
107.304
107.106
106.926
106.764
106.619
106.489
106.374
106.273
106.187
106.113
106.052
106.004
105.968
105.944
105.932
105.089
105.1
105.124
105.159
105.207
105.267
105.34
105.425
105.524
105.637
105.764
105.907
106.065
106.241
106.434
106.647
106.88
107.135
107.412
107.714
108.041
108.391
108.762
109.146
109.528
109.89
110.212
110.477
110.684
110.84
110.96
111.053
111.095
111.115
111.13
111.14
111.146
111.146
112.475
117.426
117.426
112.475
111.146
111.146
111.14
111.13
111.115
111.095
111.053
110.96
110.84
110.684
110.477
110.212
109.89
109.528
109.146
108.762
108.391
108.041
107.714
107.412
107.135
106.88
106.647
106.434
106.241
106.065
105.907
105.764
105.637
105.524
105.425
105.34
105.267
105.207
105.159
105.124
105.1
105.089
104.159
104.17
104.194
104.229
104.275
104.334
104.405
104.489
104.586
104.697
104.821
104.96
105.115
105.285
105.473
105.678
105.902
106.146
106.411
106.696
107.002
107.327
107.666
108.013
108.356
108.68
108.97
109.215
109.413
109.567
109.686
109.775
109.816
109.835
109.849
109.858
109.86
109.856
109.904
113.291
113.291
109.904
109.856
109.86
109.858
109.849
109.835
109.816
109.775
109.686
109.567
109.413
109.215
108.97
108.68
108.356
108.013
107.666
107.327
107.002
106.696
106.411
106.146
105.902
105.678
105.473
105.285
105.115
104.96
104.821
104.697
104.586
104.489
104.405
104.334
104.275
104.229
104.194
104.17
104.159
103.134
103.145
103.168
103.202
103.248
103.305
103.375
103.456
103.551
103.658
103.779
103.915
104.064
104.229
104.41
104.607
104.821
105.053
105.303
105.57
105.854
106.152
106.461
106.773
107.079
107.368
107.629
107.854
108.04
108.188
108.303
108.387
108.427
108.445
108.458
108.465
108.466
108.461
108.451
111.115
111.115
108.451
108.461
108.466
108.465
108.458
108.445
108.427
108.387
108.303
108.188
108.04
107.854
107.629
107.368
107.079
106.773
106.461
106.152
105.854
105.57
105.303
105.053
104.821
104.607
104.41
104.229
104.064
103.915
103.779
103.658
103.551
103.456
103.375
103.305
103.248
103.202
103.168
103.145
103.134
102.003
102.014
102.036
102.069
102.113
102.169
102.237
102.316
102.408
102.512
102.629
102.759
102.903
103.061
103.234
103.422
103.625
103.843
104.077
104.325
104.586
104.858
105.137
105.416
105.688
105.945
106.179
106.383
106.555
106.695
106.803
106.883
106.92
106.937
106.948
106.954
106.955
106.949
106.938
109.442
109.442
106.938
106.949
106.955
106.954
106.948
106.937
106.92
106.883
106.803
106.695
106.555
106.383
106.179
105.945
105.688
105.416
105.137
104.858
104.586
104.325
104.077
103.843
103.625
103.422
103.234
103.061
102.903
102.759
102.629
102.512
102.408
102.316
102.237
102.169
102.113
102.069
102.036
102.014
102.003
100.675
100.686
100.707
100.739
100.782
100.836
100.901
100.978
101.066
101.165
101.277
101.402
101.539
101.688
101.852
102.028
102.218
102.421
102.636
102.863
103.1
103.344
103.592
103.838
104.077
104.303
104.509
104.692
104.847
104.975
105.075
105.149
105.183
105.198
105.208
105.214
105.213
105.208
105.196
107.701
107.701
105.196
105.208
105.213
105.214
105.208
105.198
105.183
105.149
105.075
104.975
104.847
104.692
104.509
104.303
104.077
103.838
103.592
103.344
103.1
102.863
102.636
102.421
102.218
102.028
101.852
101.688
101.539
101.402
101.277
101.165
101.066
100.978
100.901
100.836
100.782
100.739
100.707
100.686
100.675
99.2003
99.2105
99.231
99.2617
99.3028
99.3544
99.4165
99.4893
99.5731
99.6679
99.7739
99.8913
100.02
100.161
100.313
100.477
100.653
100.839
101.036
101.241
101.453
101.671
101.889
102.105
102.314
102.511
102.692
102.853
102.991
103.106
103.197
103.263
103.293
103.307
103.316
103.32
103.319
103.314
103.302
105.857
105.857
103.302
103.314
103.319
103.32
103.316
103.307
103.293
103.263
103.197
103.106
102.991
102.853
102.692
102.511
102.314
102.105
101.889
101.671
101.453
101.241
101.036
100.839
100.653
100.477
100.313
100.161
100.02
99.8913
99.7739
99.6679
99.5731
99.4893
99.4165
99.3544
99.3028
99.2617
99.231
99.2105
99.2003
97.7152
97.7249
97.7444
97.7737
97.8129
97.8619
97.921
97.9901
98.0695
98.1591
98.2591
98.3695
98.4904
98.6218
98.7635
98.9152
99.0767
99.2473
99.4259
99.6114
99.802
99.9954
100.189
100.379
100.562
100.735
100.894
101.036
101.159
101.261
101.342
101.401
101.428
101.44
101.447
101.451
101.449
101.444
101.432
104.05
104.05
101.432
101.444
101.449
101.451
101.447
101.44
101.428
101.401
101.342
101.261
101.159
101.036
100.894
100.735
100.562
100.379
100.189
99.9954
99.802
99.6114
99.4259
99.2473
99.0767
98.9152
98.7635
98.6218
98.4904
98.3695
98.2591
98.1591
98.0695
97.9901
97.921
97.8619
97.8129
97.7737
97.7444
97.7249
97.7152
96.2204
96.2296
96.2481
96.2759
96.3131
96.3595
96.4154
96.4807
96.5556
96.6399
96.7338
96.8372
96.9501
97.0723
97.2035
97.3435
97.4917
97.6474
97.8095
97.9769
98.1478
98.3203
98.4918
98.6598
98.8212
98.9732
99.113
99.2382
99.3468
99.4374
99.5092
99.5614
99.5847
99.595
99.6014
99.6037
99.6021
99.5964
99.5847
102.274
102.274
99.5847
99.5964
99.6021
99.6037
99.6014
99.595
99.5847
99.5614
99.5092
99.4374
99.3468
99.2382
99.113
98.9732
98.8212
98.6598
98.4918
98.3203
98.1478
97.9769
97.8095
97.6474
97.4917
97.3435
97.2035
97.0723
96.9501
96.8372
96.7338
96.6399
96.5556
96.4807
96.4154
96.3595
96.3131
96.2759
96.2481
96.2296
96.2204
94.7163
94.725
94.7425
94.7688
94.8039
94.8477
94.9004
94.9619
95.0322
95.1112
95.199
95.2955
95.4004
95.5136
95.6348
95.7635
95.8992
96.041
96.1879
96.3388
96.4921
96.646
96.7984
96.947
97.0896
97.2235
97.3467
97.457
97.5528
97.6328
97.696
97.7417
97.7618
97.7705
97.7757
97.7772
97.7751
97.7693
97.7577
100.526
100.526
97.7577
97.7693
97.7751
97.7772
97.7757
97.7705
97.7618
97.7417
97.696
97.6328
97.5528
97.457
97.3467
97.2235
97.0896
96.947
96.7984
96.646
96.4921
96.3388
96.1879
96.041
95.8992
95.7635
95.6348
95.5136
95.4004
95.2955
95.199
95.1112
95.0322
94.9619
94.9004
94.8477
94.8039
94.7688
94.7425
94.725
94.7163
93.2034
93.2116
93.2281
93.2529
93.2859
93.3271
93.3765
93.4342
93.4999
93.5738
93.6556
93.7452
93.8425
93.9471
94.0586
94.1766
94.3005
94.4294
94.5624
94.6983
94.8358
94.9732
95.1087
95.2405
95.3664
95.4846
95.5932
95.6903
95.7747
95.845
95.9003
95.94
95.9571
95.9643
95.9683
95.969
95.9665
95.9606
95.949
98.8047
98.8047
95.949
95.9606
95.9665
95.969
95.9683
95.9643
95.9571
95.94
95.9003
95.845
95.7747
95.6903
95.5932
95.4846
95.3664
95.2405
95.1087
94.9732
94.8358
94.6983
94.5624
94.4294
94.3005
94.1766
94.0586
93.9471
93.8425
93.7452
93.6556
93.5738
93.4999
93.4342
93.3765
93.3271
93.2859
93.2529
93.2281
93.2116
93.2034
91.6823
91.69
91.7055
91.7287
91.7597
91.7983
91.8445
91.8983
91.9597
92.0284
92.1044
92.1874
92.2772
92.3735
92.4759
92.5839
92.6967
92.8137
92.934
93.0563
93.1795
93.3022
93.4228
93.5397
93.6511
93.7554
93.8511
93.9365
94.0106
94.0721
94.1203
94.1545
94.1687
94.1745
94.1775
94.1774
94.1745
94.1685
94.157
97.11
97.11
94.157
94.1685
94.1745
94.1774
94.1775
94.1745
94.1687
94.1545
94.1203
94.0721
94.0106
93.9365
93.8511
93.7554
93.6511
93.5397
93.4228
93.3022
93.1795
93.0563
92.934
92.8137
92.6967
92.5839
92.4759
92.3735
92.2772
92.1874
92.1044
92.0284
91.9597
91.8983
91.8445
91.7983
91.7597
91.7287
91.7055
91.69
91.6823
90.1534
90.1607
90.1752
90.1969
90.2257
90.2618
90.3049
90.355
90.412
90.4757
90.5461
90.6227
90.7055
90.7939
90.8877
90.9862
91.0888
91.1949
91.3034
91.4134
91.5238
91.6334
91.7407
91.8443
91.9429
92.0349
92.1191
92.1941
92.2589
92.3126
92.3543
92.3834
92.395
92.3996
92.4015
92.4008
92.3974
92.3914
92.3799
95.4412
95.4412
92.3799
92.3914
92.3974
92.4008
92.4015
92.3996
92.395
92.3834
92.3543
92.3126
92.2589
92.1941
92.1191
92.0349
91.9429
91.8443
91.7407
91.6334
91.5238
91.4134
91.3034
91.1949
91.0888
90.9862
90.8877
90.7939
90.7055
90.6227
90.5461
90.4757
90.412
90.355
90.3049
90.2618
90.2257
90.1969
90.1752
90.1607
90.1534
88.6173
88.6241
88.6376
88.6578
88.6847
88.7182
88.7583
88.8047
88.8575
88.9165
88.9814
89.052
89.128
89.209
89.2947
89.3844
89.4776
89.5735
89.6713
89.7702
89.869
89.9667
90.0622
90.1541
90.2412
90.3223
90.3963
90.462
90.5185
90.565
90.6008
90.6253
90.6346
90.6379
90.639
90.6376
90.6339
90.6277
90.6162
93.7983
93.7983
90.6162
90.6277
90.6339
90.6376
90.639
90.6379
90.6346
90.6253
90.6008
90.565
90.5185
90.462
90.3963
90.3223
90.2412
90.1541
90.0622
89.9667
89.869
89.7702
89.6713
89.5735
89.4776
89.3844
89.2947
89.209
89.128
89.052
88.9814
88.9165
88.8575
88.8047
88.7583
88.7182
88.6847
88.6578
88.6376
88.6241
88.6173
87.0745
87.0808
87.0933
87.1121
87.137
87.1681
87.2052
87.2482
87.297
87.3513
87.411
87.4759
87.5455
87.6196
87.6976
87.7791
87.8635
87.9501
88.0382
88.1269
88.2153
88.3024
88.3872
88.4686
88.5455
88.6168
88.6817
88.739
88.7881
88.8281
88.8586
88.8789
88.886
88.8882
88.8884
88.8864
88.8823
88.8761
88.8646
92.1818
92.1818
88.8646
88.8761
88.8823
88.8864
88.8884
88.8882
88.886
88.8789
88.8586
88.8281
88.7881
88.739
88.6817
88.6168
88.5455
88.4686
88.3872
88.3024
88.2153
88.1269
88.0382
87.9501
87.8635
87.7791
87.6976
87.6196
87.5455
87.4759
87.411
87.3513
87.297
87.2482
87.2052
87.1681
87.137
87.1121
87.0933
87.0808
87.0745
85.5254
85.5312
85.5428
85.5602
85.5833
85.612
85.6462
85.6859
85.7308
85.7808
85.8356
85.895
85.9586
86.0261
86.0971
86.171
86.2473
86.3254
86.4045
86.484
86.5629
86.6404
86.7156
86.7875
86.8553
86.9179
86.9745
87.0244
87.0667
87.1009
87.1265
87.1429
87.148
87.1493
87.1486
87.1461
87.1416
87.1353
87.1238
90.593
90.593
87.1238
87.1353
87.1416
87.1461
87.1486
87.1493
87.148
87.1429
87.1265
87.1009
87.0667
87.0244
86.9745
86.9179
86.8553
86.7875
86.7156
86.6404
86.5629
86.484
86.4045
86.3254
86.2473
86.171
86.0971
86.0261
85.9586
85.895
85.8356
85.7808
85.7308
85.6859
85.6462
85.612
85.5833
85.5602
85.5428
85.5312
85.5254
83.9704
83.9758
83.9865
84.0026
84.0239
84.0503
84.0819
84.1183
84.1596
84.2054
84.2555
84.3098
84.3678
84.4292
84.4935
84.5604
84.6293
84.6995
84.7705
84.8416
84.9119
84.9807
85.0473
85.1107
85.1702
85.2249
85.2742
85.3172
85.3535
85.3824
85.4034
85.4163
85.4196
85.4199
85.4185
85.4154
85.4106
85.4041
85.3927
89.0338
89.0338
85.3927
85.4041
85.4106
85.4154
85.4185
85.4199
85.4196
85.4163
85.4034
85.3824
85.3535
85.3172
85.2742
85.2249
85.1702
85.1107
85.0473
84.9807
84.9119
84.8416
84.7705
84.6995
84.6293
84.5604
84.4935
84.4292
84.3678
84.3098
84.2555
84.2054
84.1596
84.1183
84.0819
84.0503
84.0239
84.0026
83.9865
83.9758
83.9704
82.4101
82.4151
82.4249
82.4397
82.4593
82.4836
82.5125
82.546
82.5838
82.6256
82.6714
82.7209
82.7736
82.8293
82.8875
82.9479
83.0099
83.0729
83.1365
83.1998
83.2624
83.3234
83.3821
83.4378
83.4898
83.5375
83.58
83.6169
83.6476
83.6716
83.6886
83.6982
83.6997
83.6991
83.6969
83.6933
83.6881
83.6815
83.6701
87.5074
87.5074
83.6701
83.6815
83.6881
83.6933
83.6969
83.6991
83.6997
83.6982
83.6886
83.6716
83.6476
83.6169
83.58
83.5375
83.4898
83.4378
83.3821
83.3234
83.2624
83.1998
83.1365
83.0729
83.0099
82.9479
82.8875
82.8293
82.7736
82.7209
82.6714
82.6256
82.5838
82.546
82.5125
82.4836
82.4593
82.4397
82.4249
82.4151
82.4101
80.8448
80.8494
80.8585
80.872
80.89
80.9122
80.9387
80.9693
81.0038
81.042
81.0837
81.1286
81.1764
81.2268
81.2794
81.3338
81.3894
81.4459
81.5026
81.559
81.6144
81.6682
81.7199
81.7686
81.8139
81.8551
81.8916
81.9228
81.9484
81.9679
81.9811
81.9876
81.9874
81.9859
81.9831
81.9789
81.9734
81.9665
81.9552
86.018
86.018
81.9552
81.9665
81.9734
81.9789
81.9831
81.9859
81.9874
81.9876
81.9811
81.9679
81.9484
81.9228
81.8916
81.8551
81.8139
81.7686
81.7199
81.6682
81.6144
81.559
81.5026
81.4459
81.3894
81.3338
81.2794
81.2268
81.1764
81.1286
81.0837
81.042
81.0038
80.9693
80.9387
80.9122
80.89
80.872
80.8585
80.8494
80.8448
79.275
79.2792
79.2875
79.2999
79.3163
79.3367
79.3609
79.3888
79.4202
79.4549
79.4927
79.5334
79.5767
79.6222
79.6695
79.7183
79.7682
79.8186
79.869
79.919
79.968
80.0153
80.0605
80.103
80.1421
80.1774
80.2083
80.2344
80.2553
80.2706
80.2802
80.2838
80.2819
80.2796
80.2761
80.2714
80.2655
80.2584
80.247
84.5721
84.5721
80.247
80.2584
80.2655
80.2714
80.2761
80.2796
80.2819
80.2838
80.2802
80.2706
80.2553
80.2344
80.2083
80.1774
80.1421
80.103
80.0605
80.0153
79.968
79.919
79.869
79.8186
79.7682
79.7183
79.6695
79.6222
79.5767
79.5334
79.4927
79.4549
79.4202
79.3888
79.3609
79.3367
79.3163
79.2999
79.2875
79.2792
79.275
77.7011
77.7049
77.7124
77.7238
77.7387
77.7573
77.7793
77.8047
77.8332
77.8647
77.8989
77.9357
77.9747
78.0156
78.0581
78.1018
78.1463
78.1912
78.2359
78.2801
78.3232
78.3646
78.4039
78.4406
78.4741
78.504
78.5298
78.5512
78.5677
78.5791
78.5853
78.586
78.5826
78.5794
78.5752
78.5699
78.5636
78.5562
78.5448
83.1781
83.1781
78.5448
78.5562
78.5636
78.5699
78.5752
78.5794
78.5826
78.586
78.5853
78.5791
78.5677
78.5512
78.5298
78.504
78.4741
78.4406
78.4039
78.3646
78.3232
78.2801
78.2359
78.1912
78.1463
78.1018
78.0581
78.0156
77.9747
77.9357
77.8989
77.8647
77.8332
77.8047
77.7793
77.7573
77.7387
77.7238
77.7124
77.7049
77.7011
76.1233
76.1268
76.1337
76.1439
76.1576
76.1744
76.1944
76.2174
76.2432
76.2717
76.3026
76.3358
76.3708
76.4075
76.4456
76.4846
76.5242
76.5639
76.6035
76.6423
76.68
76.716
76.75
76.7814
76.8098
76.8347
76.8558
76.8728
76.8852
76.8929
76.8958
76.8937
76.8887
76.8846
76.8796
76.8737
76.8669
76.8591
76.8478
81.8502
81.8502
76.8478
76.8591
76.8669
76.8737
76.8796
76.8846
76.8887
76.8937
76.8958
76.8929
76.8852
76.8728
76.8558
76.8347
76.8098
76.7814
76.75
76.716
76.68
76.6423
76.6035
76.5639
76.5242
76.4846
76.4456
76.4075
76.3708
76.3358
76.3026
76.2717
76.2432
76.2174
76.1944
76.1744
76.1576
76.1439
76.1337
76.1268
76.1233
74.5421
74.5452
74.5515
74.5608
74.5731
74.5884
74.6065
74.6273
74.6506
74.6763
74.7041
74.7339
74.7653
74.7981
74.832
74.8667
74.9018
74.9369
74.9717
75.0056
75.0384
75.0695
75.0986
75.1252
75.1489
75.1693
75.186
75.1988
75.2074
75.2116
75.2112
75.2063
75.1996
75.1946
75.1887
75.1821
75.1747
75.1665
75.1551
80.609
80.609
75.1551
75.1665
75.1747
75.1821
75.1887
75.1946
75.1996
75.2063
75.2112
75.2116
75.2074
75.1988
75.186
75.1693
75.1489
75.1252
75.0986
75.0695
75.0384
75.0056
74.9717
74.9369
74.9018
74.8667
74.832
74.7981
74.7653
74.7339
74.7041
74.6763
74.6506
74.6273
74.6065
74.5884
74.5731
74.5608
74.5515
74.5452
74.5421
72.9577
72.9606
72.9662
72.9747
72.9858
72.9996
73.0159
73.0346
73.0556
73.0787
73.1037
73.1303
73.1584
73.1876
73.2178
73.2485
73.2794
73.3103
73.3406
73.3702
73.3985
73.4251
73.4497
73.4719
73.4913
73.5075
73.5202
73.5291
73.534
73.5347
73.5312
73.5234
73.5148
73.5087
73.502
73.4945
73.4863
73.4776
73.4661
79.4865
79.4865
73.4661
73.4776
73.4863
73.4945
73.502
73.5087
73.5148
73.5234
73.5312
73.5347
73.534
73.5291
73.5202
73.5075
73.4913
73.4719
73.4497
73.4251
73.3985
73.3702
73.3406
73.3103
73.2794
73.2485
73.2178
73.1876
73.1584
73.1303
73.1037
73.0787
73.0556
73.0346
73.0159
72.9996
72.9858
72.9747
72.9662
72.9606
72.9577
71.3705
71.3731
71.3782
71.3858
71.3958
71.4083
71.4229
71.4397
71.4586
71.4792
71.5015
71.5253
71.5503
71.5762
71.6029
71.63
71.6571
71.6841
71.7105
71.736
71.7601
71.7827
71.8032
71.8214
71.8368
71.8492
71.8581
71.8634
71.8648
71.8622
71.8554
71.8445
71.8339
71.8266
71.8187
71.8102
71.8011
71.7915
71.7799
78.5359
78.5359
71.7799
71.7915
71.8011
71.8102
71.8187
71.8266
71.8339
71.8445
71.8554
71.8622
71.8648
71.8634
71.8581
71.8492
71.8368
71.8214
71.8032
71.7827
71.7601
71.736
71.7105
71.6841
71.6571
71.63
71.6029
71.5762
71.5503
71.5253
71.5015
71.4792
71.4586
71.4397
71.4229
71.4083
71.3958
71.3858
71.3782
71.3731
71.3705
69.7808
69.7831
69.7877
69.7945
69.8035
69.8146
69.8278
69.8428
69.8597
69.8781
69.898
69.9191
69.9412
69.9641
69.9876
70.0114
70.0351
70.0585
70.0812
70.103
70.1235
70.1423
70.1591
70.1736
70.1854
70.1943
70.1997
70.2016
70.1997
70.1938
70.1837
70.1696
70.1566
70.1479
70.1386
70.1287
70.1184
70.1077
70.0959
77.8513
77.8513
70.0959
70.1077
70.1184
70.1287
70.1386
70.1479
70.1566
70.1696
70.1837
70.1938
70.1997
70.2016
70.1997
70.1943
70.1854
70.1736
70.1591
70.1423
70.1235
70.103
70.0812
70.0585
70.0351
70.0114
69.9876
69.9641
69.9412
69.9191
69.898
69.8781
69.8597
69.8428
69.8278
69.8146
69.8035
69.7945
69.7877
69.7831
69.7808
68.1887
68.1908
68.1949
68.201
68.2091
68.219
68.2308
68.2442
68.2591
68.2755
68.2931
68.3118
68.3313
68.3515
68.3721
68.3928
68.4133
68.4335
68.4529
68.4714
68.4885
68.5039
68.5174
68.5286
68.5371
68.5426
68.545
68.5437
68.5386
68.5295
68.5161
68.4984
68.4827
68.4723
68.4612
68.4496
68.4376
68.4253
68.413
77.6013
77.6013
68.413
68.4253
68.4376
68.4496
68.4612
68.4723
68.4827
68.4984
68.5161
68.5295
68.5386
68.5437
68.545
68.5426
68.5371
68.5286
68.5174
68.5039
68.4885
68.4714
68.4529
68.4335
68.4133
68.3928
68.3721
68.3515
68.3313
68.3118
68.2931
68.2755
68.2591
68.2442
68.2308
68.219
68.2091
68.201
68.1949
68.1908
68.1887
66.5946
66.5964
66.6001
66.6055
66.6127
66.6216
66.632
66.644
66.6572
66.6717
66.6873
66.7037
66.7209
66.7385
66.7564
66.7743
66.792
66.8092
66.8257
66.8411
66.8551
66.8675
66.878
66.8861
66.8917
66.8943
66.8937
66.8896
66.8816
66.8694
66.8527
66.8314
66.8125
66.8
66.7867
66.7727
66.7581
66.7433
66.73
78.0085
78.0085
66.73
66.7433
66.7581
66.7727
66.7867
66.8
66.8125
66.8314
66.8527
66.8694
66.8816
66.8896
66.8937
66.8943
66.8917
66.8861
66.878
66.8675
66.8551
66.8411
66.8257
66.8092
66.792
66.7743
66.7564
66.7385
66.7209
66.7037
66.6873
66.6717
66.6572
66.644
66.632
66.6216
66.6127
66.6055
66.6001
66.5964
66.5946
64.9986
65.0003
65.0035
65.0084
65.0147
65.0226
65.0318
65.0424
65.0541
65.0669
65.0805
65.0949
65.1099
65.1252
65.1407
65.1561
65.1712
65.1857
65.1995
65.2121
65.2234
65.2331
65.2408
65.2463
65.2492
65.2492
65.246
65.2393
65.2287
65.2138
65.1941
65.1691
65.1469
65.132
65.1158
65.0984
65.0798
65.0605
65.0446
78.1007
78.1007
65.0446
65.0605
65.0798
65.0984
65.1158
65.132
65.1469
65.1691
65.1941
65.2138
65.2287
65.2393
65.246
65.2492
65.2492
65.2463
65.2408
65.2331
65.2234
65.2121
65.1995
65.1857
65.1712
65.1561
65.1407
65.1252
65.1099
65.0949
65.0805
65.0669
65.0541
65.0424
65.0318
65.0226
65.0147
65.0084
65.0035
65.0003
64.9986
63.401
63.4025
63.4053
63.4096
63.4153
63.4222
63.4303
63.4396
63.4499
63.4611
63.473
63.4856
63.4985
63.5117
63.525
63.5381
63.5509
63.563
63.5743
63.5845
63.5934
63.6006
63.6059
63.609
63.6095
63.6073
63.6019
63.593
63.5801
63.5629
63.5407
63.5127
63.4876
63.4704
63.4513
63.4298
63.405
63.3754
63.3458
64.5133
64.5133
63.3458
63.3754
63.405
63.4298
63.4513
63.4704
63.4876
63.5127
63.5407
63.5629
63.5801
63.593
63.6019
63.6073
63.6095
63.609
63.6059
63.6006
63.5934
63.5845
63.5743
63.563
63.5509
63.5381
63.525
63.5117
63.4985
63.4856
63.473
63.4611
63.4499
63.4396
63.4303
63.4222
63.4153
63.4096
63.4053
63.4025
63.401
61.8022
61.8035
61.806
61.8098
61.8147
61.8208
61.828
61.8361
61.8451
61.8548
61.8652
61.876
61.8871
61.8985
61.9097
61.9208
61.9314
61.9414
61.9505
61.9585
61.9652
61.9702
61.9734
61.9744
61.973
61.9688
61.9615
61.9508
61.9362
61.9172
61.8933
61.8635
61.8369
61.819
61.7994
61.778
61.7548
61.7303
61.705
62.6392
62.6392
61.705
61.7303
61.7548
61.778
61.7994
61.819
61.8369
61.8635
61.8933
61.9172
61.9362
61.9508
61.9615
61.9688
61.973
61.9744
61.9734
61.9702
61.9652
61.9585
61.9505
61.9414
61.9314
61.9208
61.9097
61.8985
61.8871
61.876
61.8652
61.8548
61.8451
61.8361
61.828
61.8208
61.8147
61.8098
61.806
61.8035
61.8022
60.2021
60.2032
60.2054
60.2087
60.2131
60.2184
60.2246
60.2317
60.2395
60.2479
60.2568
60.2661
60.2756
60.2852
60.2947
60.3039
60.3126
60.3207
60.3279
60.3339
60.3386
60.3418
60.3431
60.3423
60.3392
60.3334
60.3247
60.3126
60.2967
60.2766
60.2517
60.2211
60.1943
60.1762
60.1565
60.1351
60.1117
60.0862
60.058
60.6645
60.6645
60.058
60.0862
60.1117
60.1351
60.1565
60.1762
60.1943
60.2211
60.2517
60.2766
60.2967
60.3126
60.3247
60.3334
60.3392
60.3423
60.3431
60.3418
60.3386
60.3339
60.3279
60.3207
60.3126
60.3039
60.2947
60.2852
60.2756
60.2661
60.2568
60.2479
60.2395
60.2317
60.2246
60.2184
60.2131
60.2087
60.2054
60.2032
60.2021
58.6009
58.6018
58.6038
58.6066
58.6104
58.615
58.6204
58.6265
58.6332
58.6405
58.6481
58.656
58.664
58.6721
58.6799
58.6875
58.6945
58.7009
58.7063
58.7106
58.7137
58.7152
58.7149
58.7126
58.7081
58.701
58.6911
58.678
58.6614
58.6408
58.6157
58.5855
58.5592
58.5417
58.5227
58.5019
58.4791
58.4539
58.4252
58.4227
58.4227
58.4252
58.4539
58.4791
58.5019
58.5227
58.5417
58.5592
58.5855
58.6157
58.6408
58.6614
58.678
58.6911
58.701
58.7081
58.7126
58.7149
58.7152
58.7137
58.7106
58.7063
58.7009
58.6945
58.6875
58.6799
58.6721
58.664
58.656
58.6481
58.6405
58.6332
58.6265
58.6204
58.615
58.6104
58.6066
58.6038
58.6018
58.6009
56.9987
56.9995
57.0012
57.0037
57.0069
57.0109
57.0155
57.0207
57.0265
57.0326
57.0391
57.0457
57.0525
57.0591
57.0655
57.0716
57.0771
57.0819
57.0858
57.0886
57.0902
57.0903
57.0887
57.0852
57.0795
57.0714
57.0607
57.047
57.0301
57.0096
56.985
56.9559
56.9312
56.9149
56.8975
56.8788
56.8589
56.8377
56.815
56.8112
56.8112
56.815
56.8377
56.8589
56.8788
56.8975
56.9149
56.9312
56.9559
56.985
57.0096
57.0301
57.047
57.0607
57.0714
57.0795
57.0852
57.0887
57.0903
57.0902
57.0886
57.0858
57.0819
57.0771
57.0716
57.0655
57.0591
57.0525
57.0457
57.0391
57.0326
57.0265
57.0207
57.0155
57.0109
57.0069
57.0037
57.0012
56.9995
56.9987
55.3956
55.3963
55.3978
55.3999
55.4027
55.4061
55.41
55.4145
55.4193
55.4245
55.4299
55.4354
55.4409
55.4463
55.4515
55.4562
55.4604
55.4638
55.4664
55.4679
55.4682
55.4671
55.4644
55.4598
55.4533
55.4445
55.4333
55.4193
55.4024
55.3823
55.3587
55.3314
55.3087
55.294
55.2785
55.2622
55.2452
55.2275
55.2092
55.206
55.206
55.2092
55.2275
55.2452
55.2622
55.2785
55.294
55.3087
55.3314
55.3587
55.3823
55.4024
55.4193
55.4333
55.4445
55.4533
55.4598
55.4644
55.4671
55.4682
55.4679
55.4664
55.4638
55.4604
55.4562
55.4515
55.4463
55.4409
55.4354
55.4299
55.4245
55.4193
55.4145
55.41
55.4061
55.4027
55.3999
55.3978
55.3963
55.3956
53.7918
53.7925
53.7937
53.7955
53.7979
53.8007
53.8041
53.8078
53.8118
53.8161
53.8206
53.8251
53.8296
53.8338
53.8378
53.8414
53.8444
53.8467
53.8481
53.8485
53.8477
53.8455
53.8419
53.8365
53.8293
53.82
53.8085
53.7945
53.778
53.7586
53.7362
53.7108
53.6903
53.6771