/*--------------------------------*- C++ -*----------------------------------*\
  =========                 |
  \\      /  F ield         | OpenFOAM: The Open Source CFD Toolbox
   \\    /   O peration     | Website:  https://openfoam.org
    \\  /    A nd           | Version:  10
     \\/     M anipulation  |
\*---------------------------------------------------------------------------*/
FoamFile
{
    format      ascii;
    class       volScalarField;
    location    "0.05";
    object      pMean;
}
// * * * * * * * * * * * * * * * * * * * * * * * * * * * * * * * * * * * * * //

dimensions      [0 2 -2 0 0 0 0];

internalField   nonuniform List<scalar> 
12225
(
15.8615
14.9962
14.493
14.2237
14.0175
13.8126
13.6041
13.4004
13.207
13.0235
12.8481
12.6753
12.5027
12.3139
12.0988
11.7779
11.3062
10.2201
15.624
14.9662
14.4912
14.2146
14.0072
13.8041
13.5965
13.393
13.1989
13.0151
12.8375
12.6645
12.4855
12.2993
12.066
11.7798
11.2911
10.6178
15.5832
14.9621
14.4988
14.2129
14.0008
13.7982
13.5915
13.3876
13.193
13.0072
12.8284
12.65
12.4683
12.2684
12.0365
11.7305
11.3096
10.7226
15.4404
14.9136
14.4881
14.2024
13.9869
13.7857
13.5812
13.3783
13.1827
12.9961
12.8142
12.6335
12.4449
12.241
12.0003
11.7037
11.3174
10.8334
15.3459
14.8789
14.4862
14.2011
13.9792
13.7763
13.5734
13.3713
13.1754
12.9868
12.8026
12.618
12.4259
12.2172
11.9774
11.6919
11.3456
10.9468
15.2444
14.8294
14.4697
14.1919
13.9667
13.7625
13.5608
13.3602
13.1643
12.9747
12.7886
12.6015
12.4067
12.1963
11.9608
11.6907
11.3819
11.042
15.1534
14.7755
14.4502
14.184
13.9568
13.7499
13.5491
13.3501
13.1545
12.9638
12.776
12.5869
12.391
12.1818
11.9529
11.6994
11.4212
11.1254
15.0979
14.7319
14.4274
14.1734
13.9465
13.7369
13.5358
13.3381
13.1434
12.9521
12.763
12.5728
12.3769
12.1706
11.9499
11.7124
11.4597
11.1978
14.9948
14.6651
14.3933
14.1556
13.9324
13.7221
13.5209
13.3244
13.1309
12.9401
12.7509
12.5608
12.3665
12.1645
11.9524
11.7294
11.4976
11.262
14.9558
14.6305
14.3692
14.1419
13.9217
13.71
13.5078
13.312
13.1195
12.9291
12.7397
12.5501
12.3578
12.1606
11.957
11.7471
11.5327
11.318
14.8707
14.5669
14.3268
14.1136
13.9013
13.6932
13.4922
13.2971
13.1055
12.9163
12.7285
12.5409
12.3519
12.16
11.9646
11.7662
11.5664
11.368
14.8217
14.5383
14.3082
14.099
13.8893
13.682
13.4805
13.2856
13.0951
12.9071
12.7203
12.5343
12.3481
12.161
11.9726
11.7833
11.5946
11.4084
14.7764
14.4891
14.2665
14.0688
13.8678
13.6648
13.4653
13.2711
13.0816
12.8952
12.7107
12.5272
12.3444
12.162
11.9799
11.7987
11.6194
11.4434
14.7864
14.4693
14.2371
14.0459
13.8527
13.6526
13.4527
13.2585
13.07
12.8853
12.7028
12.5221
12.3431
12.1656
11.99
11.8166
11.6462
11.4796
14.7271
14.4128
14.1904
14.0102
13.8247
13.6293
13.4324
13.2404
13.0543
12.8722
12.6928
12.5157
12.341
12.169
11.9999
11.8339
11.6716
11.5134
14.6857
14.3799
14.1646
13.9885
13.8062
13.6135
13.4189
13.2285
13.0438
12.8639
12.6878
12.5147
12.3448
12.1782
12.0152
11.856
11.7009
11.5503
14.6193
14.3294
14.1231
13.9523
13.775
13.5882
13.3991
13.213
13.0318
12.8553
12.6828
12.5139
12.3486
12.1871
12.0295
11.8762
11.7269
11.5818
14.56
14.285
14.0917
13.9304
13.7593
13.575
13.3872
13.2034
13.0255
12.8527
12.6839
12.5189
12.3579
12.201
12.0482
11.8997
11.7554
11.6153
14.6597
14.3306
14.1026
13.9272
13.7529
13.5702
13.3848
13.2025
13.0258
12.8548
12.6887
12.527
12.3695
12.2164
12.0675
11.923
11.7827
11.6464
14.5819
14.2942
14.0916
13.9249
13.7516
13.5686
13.3838
13.2033
13.0289
12.8603
12.6964
12.5369
12.3816
12.2309
12.0846
11.9426
11.8047
11.6708
14.5887
14.32
14.1219
13.9466
13.7641
13.5769
13.3918
13.2119
13.0381
12.8697
12.7062
12.5474
12.3933
12.244
12.0992
11.9589
11.823
11.6911
14.6428
14.3604
14.1484
13.9656
13.78
13.5904
13.4031
13.2222
13.0479
12.8794
12.7161
12.5577
12.4044
12.2559
12.1122
11.973
11.8382
11.7075
14.7643
14.4181
14.1701
13.9776
13.7909
13.601
13.4129
13.2306
13.0554
12.8865
12.7233
12.5653
12.4126
12.2648
12.122
11.9839
11.8502
11.7208
14.8365
14.4852
14.219
14.0067
13.8089
13.6159
13.4273
13.2443
13.0675
12.8971
12.7331
12.5751
12.4225
12.2752
12.1329
11.9953
11.8623
11.7337
14.8152
14.4977
14.2358
14.0143
13.811
13.6181
13.4309
13.2482
13.071
12.9004
12.7365
12.5789
12.4269
12.2802
12.1384
12.0015
11.8692
11.7414
14.9571
14.5725
14.2713
14.0346
13.8273
13.6337
13.4455
13.2609
13.0817
12.9098
12.7454
12.5876
12.4355
12.2888
12.1471
12.0104
11.8785
11.7512
15.0103
14.5966
14.2721
14.0309
13.8278
13.6372
13.4489
13.2632
13.0835
12.9117
12.7478
12.5903
12.4386
12.2921
12.1508
12.0145
11.8831
11.7564
15.0869
14.6463
14.2943
14.0432
13.8404
13.6496
13.4591
13.2713
13.0905
12.9184
12.7542
12.5967
12.4449
12.2984
12.1573
12.0212
11.8901
11.7634
15.1296
14.6532
14.2881
14.0418
13.8434
13.6526
13.4609
13.2726
13.0919
12.92
12.7559
12.5984
12.4466
12.3002
12.1591
12.0233
11.8926
11.7669
15.314
14.6842
14.286
14.0469
13.8516
13.6591
13.4658
13.2769
13.0961
12.9241
12.76
12.6024
12.4506
12.3042
12.1631
12.0276
11.8972
11.7726
8.8228
8.66173
8.48413
8.37401
8.42034
8.61711
8.86459
9.01429
8.9552
8.65546
8.14096
7.47819
6.75538
6.05409
5.43781
4.94979
4.61383
4.43653
4.40785
4.50559
4.69708
4.946
5.20936
5.45803
5.64248
5.74949
5.7264
5.59572
5.42325
5.23677
5.00467
4.65692
4.15861
3.55852
2.94206
2.3543
1.80704
1.16682
0.289289
-0.773049
-1.79924
-2.66949
-3.34539
-3.89291
-4.43014
-4.91539
-5.28642
-5.55295
-5.61865
-5.55997
-5.66686
-5.90036
-6.22397
-6.64517
-7.11944
-7.56202
-7.88345
-8.22967
-8.69988
-9.26107
-9.82663
-10.3472
-10.7739
-11.0778
-11.2372
-11.2408
-11.0818
-10.7595
-10.2758
-9.63703
-8.85246
-7.93476
-6.89931
-5.76345
-4.54548
-3.26379
-1.9357
-0.576469
0.801629
2.1898
3.58292
4.97923
6.37971
7.78721
9.20529
10.637
12.0839
13.5453
15.0176
16.4938
17.9621
19.4071
20.8098
22.1503
23.4091
24.5702
25.6223
26.5599
27.3829
28.0954
28.7051
29.2211
29.6528
30.0096
30.2997
30.5304
30.7079
30.8373
30.9232
30.9696
30.9801
30.9581
30.9065
30.8284
30.7266
30.6037
30.4625
30.3055
30.1354
29.9548
29.7659
29.5711
29.3725
29.172
28.9714
28.7721
28.5756
28.3829
28.195
28.0127
27.8367
27.6673
27.5049
27.3497
27.2016
27.0606
26.9264
26.7986
26.6768
26.5604
26.4489
26.3418
26.2387
26.1392
26.0429
25.9494
25.8583
25.769
25.6812
25.5944
25.5082
25.422
25.3356
25.2486
25.1613
25.0742
24.9877
24.9017
24.8162
24.7306
24.6443
24.5569
24.468
24.3776
24.2859
24.1936
24.1016
24.0112
23.9236
23.8399
23.7604
23.6866
23.6188
23.561
23.5143
23.4877
23.4843
23.5244
23.6178
23.7997
8.08073
7.92153
7.78075
7.66916
7.72609
7.89222
8.05104
8.07132
7.87894
7.47064
6.89158
6.21497
5.51813
4.86678
4.30951
3.87864
3.59087
3.44903
3.44508
3.56207
3.77496
4.04604
4.33334
4.59514
4.79879
4.89542
4.91001
4.7922
4.60228
4.30985
3.81134
3.1645
2.42499
1.65814
0.943828
0.288815
-0.32078
-0.968372
-1.74397
-2.65431
-3.54867
-4.3077
-4.88351
-5.30845
-5.75199
-6.12189
-6.5433
-7.09317
-7.29046
-7.28366
-7.37151
-7.5288
-7.73984
-8.00769
-8.29781
-8.66568
-9.0101
-9.3512
-9.78592
-10.2665
-10.7472
-11.1792
-11.5245
-11.7552
-11.8515
-11.8004
-11.5938
-11.229
-10.7075
-10.0347
-9.21922
-8.27299
-7.21057
-6.04901
-4.80687
-3.50321
-2.1561
-0.781479
0.608007
2.00348
3.40003
4.79643
6.19451
7.59804
9.01143
10.4388
11.8829
13.3438
14.8186
16.3001
17.7768
19.233
20.6493
22.0044
23.2777
24.4519
25.5149
26.4611
27.2906
28.0082
28.6221
29.1421
29.578
29.9391
30.2338
30.4692
30.6514
30.7855
30.8758
30.9263
30.9408
30.9224
30.8742
30.7991
30.6999
30.5793
30.4401
30.2849
30.1162
29.9368
29.749
29.555
29.3571
29.1573
28.9572
28.7585
28.5625
28.3703
28.1829
28.0011
27.8255
27.6567
27.4948
27.3402
27.1927
27.0523
26.9187
26.7915
26.6702
26.5544
26.4434
26.3368
26.2341
26.135
26.039
25.9458
25.8549
25.7659
25.6783
25.5918
25.5058
25.42
25.334
25.2475
25.1607
25.074
24.9877
24.902
24.8167
24.7311
24.6447
24.557
24.4679
24.3775
24.2858
24.1934
24.1011
24.0104
23.9224
23.8382
23.7583
23.6834
23.6148
23.5546
23.5065
23.4742
23.4669
23.4869
23.5552
23.6229
8.29599
8.24253
8.11991
7.91783
7.68094
7.42154
7.10702
6.68422
6.13144
5.46696
4.74059
4.01282
3.3333
2.74055
2.26357
1.92085
1.72079
1.66205
1.73302
1.91229
2.17271
2.48555
2.81633
3.12212
3.3851
3.53485
3.58277
3.5131
3.27956
2.87821
2.3087
1.5954
0.766522
-0.104725
-0.95367
-1.72519
-2.48193
-3.29113
-4.1547
-5.0431
-5.81928
-6.40764
-6.77854
-7.14461
-7.63885
-8.14567
-8.59256
-9.0385
-9.35984
-9.5267
-9.63398
-9.71097
-9.7776
-9.87983
-10.0556
-10.2984
-10.6088
-10.9587
-11.338
-11.7204
-12.0824
-12.394
-12.6305
-12.7685
-12.7893
-12.6775
-12.4217
-12.0143
-11.4527
-10.739
-9.88079
-8.8899
-7.7818
-6.57475
-5.28895
-3.94509
-2.56294
-1.15982
0.250608
1.65915
3.0612
4.45645
5.84801
7.24143
8.64331
10.0599
11.4956
12.9523
14.428
15.9171
17.4085
18.886
20.3283
21.7119
23.0135
24.2133
25.2978
26.261
27.1032
27.8309
28.4534
28.9814
29.4255
29.7953
30.099
30.3438
30.5353
30.6784
30.7775
30.8365
30.8589
30.8478
30.8063
30.7373
30.6436
30.5279
30.3929
30.2413
30.0758
29.899
29.7135
29.5215
29.3254
29.1271
28.9284
28.731
28.5362
28.3452
28.159
27.9784
27.8039
27.6363
27.4756
27.3222
27.176
27.0368
26.9045
26.7786
26.6586
26.5439
26.4341
26.3285
26.2268
26.1285
26.0333
25.9409
25.8507
25.7623
25.6754
25.5894
25.5041
25.4189
25.3335
25.2479
25.1621
25.0762
24.9904
24.9047
24.8188
24.7324
24.6454
24.5572
24.4678
24.3772
24.2856
24.1934
24.1015
24.0108
23.9225
23.8372
23.7557
23.6786
23.6076
23.5436
23.491
23.4502
23.4307
23.4256
23.4523
23.4507
8.25805
8.24465
8.05969
7.67513
7.11258
6.43782
5.70664
4.94059
4.15281
3.36585
2.60691
1.90642
1.29064
0.781596
0.396528
0.143996
0.023755
0.0268282
0.138085
0.338654
0.604565
0.907803
1.22223
1.50762
1.72106
1.85671
1.88912
1.81927
1.63065
1.31046
0.849325
0.250307
-0.466717
-1.25399
-2.06457
-2.88376
-3.76328
-4.75016
-5.80137
-6.79582
-7.62964
-8.28364
-8.73763
-9.14673
-9.63834
-10.191
-10.7363
-11.2091
-11.5605
-11.7837
-11.8895
-11.91
-11.8933
-11.9095
-12.0166
-12.2127
-12.4801
-12.7778
-13.0795
-13.3663
-13.6239
-13.8336
-13.9773
-14.0349
-13.988
-13.819
-13.5128
-13.0578
-12.4484
-11.6848
-10.773
-9.72446
-8.55579
-7.28731
-5.94161
-4.54215
-3.11139
-1.66885
-0.229669
1.19633
2.60477
3.99633
5.37603
6.75207
8.13415
9.53148
10.9513
12.398
13.8718
15.3683
16.8777
18.3833
19.862
21.2863
22.6291
23.8665
24.9822
25.9691
26.8291
27.5706
28.205
28.7446
29.2008
29.5834
29.9006
30.1592
30.3646
30.5214
30.6337
30.7052
30.7391
30.7387
30.7071
30.647
30.5613
30.4527
30.3238
30.1776
30.0166
29.8438
29.6615
29.4725
29.2789
29.0829
28.8863
28.6908
28.4978
28.3085
28.124
27.9451
27.7724
27.6064
27.4475
27.2959
27.1515
27.0143
26.8839
26.7598
26.6416
26.5288
26.4206
26.3167
26.2164
26.1194
26.0254
25.934
25.8447
25.7573
25.6711
25.5859
25.5012
25.4166
25.3319
25.247
25.1618
25.0763
24.9907
24.905
24.8191
24.7326
24.6453
24.5569
24.4674
24.3767
24.2851
24.1929
24.1009
24.0098
23.9207
23.8341
23.751
23.6717
23.5978
23.5298
23.4714
23.4218
23.388
23.3609
23.3488
23.2978
8.23001
8.04795
7.59157
6.87557
6.01742
5.1062
4.18465
3.28423
2.4214
1.60586
0.847235
0.163633
-0.424047
-0.893596
-1.23023
-1.43061
-1.50377
-1.46693
-1.34196
-1.14925
-0.906009
-0.634713
-0.372709
-0.154563
-0.00755993
0.0520267
0.0216607
-0.0916784
-0.278893
-0.534539
-0.860935
-1.26518
-1.75555
-2.33571
-3.00696
-3.7817
-4.68942
-5.74101
-6.86263
-7.94255
-8.88423
-9.68129
-10.3505
-10.9558
-11.5552
-12.167
-12.7593
-13.2761
-13.6821
-13.9596
-14.0973
-14.1158
-14.0743
-14.0586
-14.1211
-14.26
-14.456
-14.6779
-14.9007
-15.1058
-15.2804
-15.4107
-15.4823
-15.477
-15.3754
-15.1578
-14.8065
-14.3067
-13.6486
-12.8297
-11.8546
-10.7358
-9.4918
-8.14562
-6.72326
-5.252
-3.75797
-2.26379
-0.786687
0.662505
2.07951
3.46626
4.82993
6.18181
7.5349
8.90191
10.2936
11.7177
13.1781
14.6737
16.1962
17.7297
19.2497
20.7249
22.1221
23.4107
24.5691
25.5878
26.4706
27.2291
27.878
28.4319
28.9036
29.3029
29.638
29.9153
30.1395
30.3146
30.4442
30.5319
30.5809
30.5945
30.5755
30.5268
30.4513
30.3516
30.2306
30.091
29.9359
29.768
29.5901
29.4049
29.2147
29.0219
28.8283
28.6356
28.4453
28.2586
28.0767
27.9002
27.73
27.5665
27.4101
27.261
27.1191
26.9843
26.8564
26.7348
26.619
26.5085
26.4025
26.3005
26.2021
26.1069
26.0144
25.9244
25.8366
25.7504
25.6655
25.5814
25.4977
25.414
25.3301
25.2459
25.1614
25.0765
24.9914
24.9059
24.8199
24.7332
24.6456
24.557
24.4672
24.3763
24.2845
24.1922
24.1
24.0085
23.9186
23.8308
23.7458
23.664
23.5868
23.5143
23.4493
23.3904
23.3418
23.2943
23.2484
23.1625
7.86704
7.41565
6.60189
5.6764
4.68856
3.68453
2.70347
1.75823
0.851174
-0.016816
-0.832142
-1.56919
-2.19947
-2.69635
-3.04457
-3.24504
-3.31068
-3.26294
-3.12823
-2.93287
-2.70114
-2.46054
-2.24214
-2.07422
-1.98133
-1.9758
-2.05522
-2.20596
-2.40821
-2.64464
-2.9071
-3.20144
-3.55064
-3.99029
-4.55285
-5.27774
-6.17206
-7.2306
-8.38243
-9.53525
-10.6049
-11.5548
-12.39
-13.1333
-13.8137
-14.4564
-15.0522
-15.5715
-15.9863
-16.2696
-16.4101
-16.4312
-16.3842
-16.3377
-16.3383
-16.4
-16.5148
-16.6601
-16.8117
-16.9484
-17.0572
-17.1247
-17.1375
-17.0792
-16.9305
-16.6704
-16.2787
-15.7369
-15.0308
-14.1538
-13.1092
-11.9104
-10.5785
-9.14003
-7.6252
-6.06607
-4.49339
-2.93378
-1.40717
0.0744054
1.50684
2.89348
4.24395
5.57186
6.89318
8.22368
9.57801
10.9674
12.3993
13.8768
15.3971
16.9473
18.5039
20.0322
21.4919
22.8429
24.0559
25.1173
26.0305
26.8112
27.4786
28.0504
28.541
28.9612
29.3189
29.6192
29.8663
30.0634
30.2139
30.3211
30.3882
30.4185
30.4148
30.38
30.3169
30.2281
30.1165
29.9851
29.837
29.6752
29.5027
29.3224
29.1367
28.9479
28.7581
28.5689
28.3821
28.1987
28.02
27.8467
27.6795
27.5191
27.3657
27.2195
27.0805
26.9486
26.8235
26.7047
26.5917
26.4838
26.3804
26.2809
26.1849
26.0918
26.0015
25.9134
25.8272
25.7426
25.659
25.5762
25.4936
25.411
25.3281
25.2448
25.1609
25.0766
24.9918
24.9065
24.8205
24.7337
24.646
24.557
24.467
24.3759
24.284
24.1914
24.0988
24.0067
23.9158
23.8266
23.7396
23.6551
23.5741
23.4968
23.4248
23.3567
23.2937
23.2277
23.1544
23.0435
6.47758
5.96283
5.15101
4.26332
3.33334
2.37336
1.40527
0.44313
-0.510821
-1.44723
-2.33706
-3.14417
-3.83456
-4.37975
-4.76748
-5.00199
-5.10093
-5.09078
-4.99999
-4.85337
-4.67385
-4.48643
-4.31978
-4.20294
-4.15765
-4.19379
-4.30984
-4.49303
-4.72409
-4.98204
-5.25162
-5.53181
-5.84375
-6.23942
-6.77458
-7.5082
-8.4355
-9.53054
-10.7373
-11.9763
-13.1617
-14.2399
-15.1909
-16.0182
-16.7403
-17.3742
-17.9205
-18.3705
-18.707
-18.9143
-18.991
-18.9615
-18.8629
-18.748
-18.665
-18.6388
-18.67
-18.7427
-18.8325
-18.9154
-18.9744
-18.9931
-18.9575
-18.8534
-18.6633
-18.366
-17.9383
-17.3573
-16.6037
-15.6674
-14.5505
-13.2662
-11.838
-10.2968
-8.6784
-7.02002
-5.3572
-3.72019
-2.13139
-0.604075
0.857213
2.25659
3.60545
4.91969
6.21729
7.51711
8.83662
10.1898
11.5866
13.0339
14.5352
16.0853
17.6645
19.2374
20.7569
22.1737
23.4476
24.5592
25.5104
26.3199
27.0115
27.6065
28.1214
28.5674
28.9518
29.2791
29.5522
29.7742
29.948
30.0771
30.1647
30.214
30.2278
30.2089
30.16
30.0836
29.9829
29.8608
29.7207
29.5659
29.3996
29.2247
29.0441
28.8601
28.6748
28.49
28.3073
28.1279
27.953
27.7834
27.6199
27.4629
27.313
27.1702
27.0346
26.906
26.7841
26.6684
26.5585
26.4537
26.3534
26.2568
26.1636
26.0732
25.9853
25.8996
25.8157
25.7331
25.6514
25.5701
25.489
25.4076
25.3259
25.2435
25.1604
25.0767
24.9923
24.9072
24.8213
24.7345
24.6465
24.5574
24.4671
24.3757
24.2835
24.1905
24.0974
24.0046
23.9126
23.8217
23.7326
23.6452
23.5604
23.4781
23.399
23.3216
23.2453
23.163
23.0676
22.9376
4.87947
4.45978
3.85694
3.11233
2.26682
1.36215
0.429134
-0.520096
-1.49025
-2.46465
-3.40327
-4.26548
-5.01646
-5.63068
-6.09682
-6.41841
-6.61229
-6.70247
-6.7131
-6.6644
-6.57605
-6.47153
-6.37959
-6.32783
-6.33735
-6.41993
-6.57652
-6.79895
-7.07196
-7.37601
-7.69485
-8.02635
-8.39093
-8.847
-9.46514
-10.2941
-11.3249
-12.5281
-13.8523
-15.2177
-16.5343
-17.7414
-18.8032
-19.7028
-20.4391
-21.0213
-21.4619
-21.769
-21.9398
-21.9809
-21.9088
-21.7467
-21.5245
-21.2878
-21.0874
-20.9559
-20.8985
-20.8995
-20.9333
-20.9747
-21.0002
-20.988
-20.9215
-20.7874
-20.5692
-20.244
-19.7846
-19.1653
-18.3641
-17.3674
-16.1753
-14.8006
-13.2703
-11.6206
-9.89388
-8.13349
-6.37952
-4.66423
-3.01013
-1.42972
0.0729816
1.50234
2.86975
4.19144
5.48628
6.77463
8.07569
9.40477
10.7729
12.1893
13.6642
15.2002
16.7855
18.3875
19.9553
21.4306
22.7633
23.927
24.9212
25.7655
26.4877
27.1123
27.6575
28.1343
28.5494
28.9062
29.2074
29.4555
29.654
29.8061
29.9154
29.985
30.0177
30.016
29.9825
29.9198
29.8309
29.719
29.5878
29.4406
29.2812
29.1125
28.9377
28.7591
28.579
28.3992
28.2214
28.0467
27.8763
27.7111
27.5518
27.3989
27.2529
27.1139
26.9819
26.8569
26.7385
26.6263
26.5198
26.4184
26.3213
26.2281
26.1382
26.0511
25.9663
25.8835
25.8022
25.7221
25.6426
25.5633
25.4839
25.404
25.3235
25.2422
25.1601
25.077
24.9931
24.9082
24.8224
24.7355
24.6474
24.558
24.4674
24.3756
24.283
24.1895
24.0958
24.002
23.9088
23.8163
23.7249
23.6346
23.5458
23.4584
23.3723
23.286
23.1976
23.1009
22.988
22.8427
3.77504
3.46609
2.97897
2.33067
1.56755
0.733301
-0.147012
-1.06631
-2.03159
-3.01986
-3.98524
-4.89137
-5.70606
-6.40411
-6.97317
-7.4145
-7.74068
-7.96855
-8.11366
-8.19064
-8.21816
-8.22139
-8.22852
-8.26447
-8.34952
-8.49636
-8.70831
-8.98142
-9.30501
-9.66521
-10.0527
-10.4735
-10.9541
-11.5554
-12.3452
-13.352
-14.5667
-15.9574
-17.4692
-19.0163
-20.5088
-21.8768
-23.0639
-24.032
-24.7631
-25.2635
-25.5616
-25.6798
-25.6298
-25.4411
-25.1481
-24.7764
-24.3586
-23.9462
-23.5935
-23.3352
-23.1759
-23.0979
-23.0739
-23.0764
-23.0766
-23.0482
-22.9695
-22.8234
-22.5911
-22.2469
-21.7603
-21.1019
-20.2489
-19.1877
-17.9172
-16.4508
-14.8189
-13.0631
-11.2314
-9.37367
-7.53498
-5.74901
-4.0358
-2.40377
-0.855186
0.613462
2.01258
3.35883
4.6717
5.9722
7.2787
8.60529
9.96186
11.3582
12.8086
14.3251
15.9055
17.5224
19.1242
20.6462
22.0298
23.2422
24.2811
25.1648
25.9237
26.5841
27.1646
27.6757
28.1234
28.5106
28.8398
29.1142
29.3372
29.5126
29.6438
29.7342
29.7864
29.8026
29.7853
29.7371
29.6608
29.56
29.4384
29.2997
29.1479
28.9862
28.8178
28.6453
28.471
28.2968
28.1244
27.9549
27.7896
27.6292
27.4746
27.3262
27.1845
27.0496
26.9216
26.8005
26.6858
26.5774
26.4746
26.3768
26.2836
26.1942
26.1081
26.0247
25.9435
25.8642
25.7862
25.709
25.6322
25.5553
25.4779
25.3997
25.3207
25.2407
25.1596
25.0773
24.9939
24.9094
24.8236
24.7367
24.6483
24.5586
24.4676
24.3755
24.2824
24.1884
24.0939
23.9992
23.9046
23.8104
23.7166
23.6233
23.5306
23.4381
23.3453
23.2506
23.1514
23.0421
22.9149
22.7573
3.12223
2.87748
2.46523
1.88945
1.19186
0.410116
-0.426027
-1.31043
-2.24861
-3.22218
-4.19456
-5.1361
-6.01663
-6.80863
-7.49563
-8.07258
-8.5438
-8.91733
-9.20274
-9.4122
-9.56655
-9.69121
-9.81134
-9.94876
-10.1219
-10.3432
-10.6176
-10.9447
-11.3202
-11.7416
-12.2128
-12.7529
-13.4008
-14.2118
-15.2368
-16.4885
-17.951
-19.5865
-21.3307
-23.0909
-24.7756
-26.3031
-27.6052
-28.6318
-29.3548
-29.7772
-29.9376
-29.8621
-29.5761
-29.1319
-28.5835
-27.9617
-27.31
-26.6907
-26.1633
-25.7614
-25.4869
-25.3209
-25.2326
-25.1905
-25.1635
-25.1212
-25.0365
-24.8862
-24.6461
-24.2861
-23.7725
-23.0729
-22.1642
-21.0352
-19.6871
-18.1357
-16.412
-14.5606
-12.6346
-10.6904
-8.77813
-6.93325
-5.17283
-3.49927
-1.90984
-0.400597
1.03648
2.41671
3.75977
5.08736
6.41659
7.76074
9.12776
10.5251
11.9668
13.4709
15.0444
16.6676
18.2911
19.8478
21.2736
22.5298
23.6124
24.5378
25.3371
26.037
26.6554
27.2021
27.6825
28.0995
28.4561
28.7558
29.0026
29.2007
29.3537
29.4646
29.5363
29.5707
29.5701
29.5368
29.4738
29.3846
29.2732
29.1437
29.0001
28.8461
28.6848
28.5191
28.3512
28.1831
28.0165
27.8527
27.6928
27.5377
27.3882
27.2447
27.1077
26.9773
26.8537
26.7368
26.6263
26.5219
26.4232
26.3297
26.2407
26.1555
26.0737
25.9946
25.9176
25.8422
25.7679
25.6941
25.6203
25.5461
25.4711
25.3949
25.3176
25.2389
25.1589
25.0775
24.9947
24.9105
24.8249
24.7379
24.6493
24.5593
24.4679
24.3754
24.2817
24.1871
24.0918
23.9961
23.9001
23.804
23.7079
23.6116
23.515
23.4176
23.3185
23.216
23.1071
22.9869
22.848
22.6804
2.79702
2.58516
2.1946
1.64079
0.963027
0.197617
-0.628315
-1.50488
-2.43393
-3.40356
-4.38945
-5.36618
-6.30619
-7.182
-7.97341
-8.66888
-9.26436
-9.76034
-10.1619
-10.4822
-10.7433
-10.9701
-11.186
-11.4107
-11.6592
-11.9418
-12.266
-12.6388
-13.0667
-13.5604
-14.1382
-14.8288
-15.6752
-16.7249
-18.0082
-19.5209
-21.2352
-23.1031
-25.0532
-26.9949
-28.8381
-30.4968
-31.8959
-32.9755
-33.6992
-34.0649
-34.1157
-33.874
-33.3803
-32.7059
-31.9184
-31.0616
-30.1915
-29.3795
-28.6885
-28.151
-27.767
-27.5169
-27.3658
-27.2775
-27.2189
-27.1564
-27.0593
-26.8981
-26.6416
-26.2544
-25.7005
-24.9487
-23.9781
-22.7824
-21.3661
-19.7448
-17.9493
-16.0253
-14.0289
-12.0203
-10.0528
-8.16445
-6.37205
-4.67342
-3.05839
-1.51904
-0.0481587
1.36671
2.74443
4.1059
5.46888
6.84589
8.24331
9.66488
11.1206
12.6299
14.2061
15.8354
17.4753
19.0586
20.5176
21.8108
22.9329
23.8993
24.7397
25.4802
26.1372
26.7195
27.2319
27.6777
28.0606
28.3846
28.6545
28.8745
29.0485
29.1795
29.2702
29.3225
29.3384
29.3201
29.2705
29.1932
29.0924
28.9724
28.8376
28.6917
28.5382
28.3798
28.2189
28.0575
27.8973
27.7397
27.5857
27.4364
27.2924
27.1542
27.0224
26.897
26.7783
26.6661
26.5602
26.4605
26.3664
26.2775
26.1931
26.1128
26.0357
25.9613
25.889
25.818
25.7477
25.6776
25.6072
25.5359
25.4635
25.3896
25.3141
25.2369
25.158
25.0775
24.9954
24.9116
24.8262
24.7391
24.6503
24.56
24.4682
24.3751
24.2809
24.1857
24.0896
23.9928
23.8954
23.7975
23.699
23.5997
23.4993
23.3972
23.2922
23.1825
23.0651
22.9353
22.7868
22.6111
2.59208
2.38105
1.97806
1.39904
0.678154
-0.146327
-1.03949
-1.97812
-2.95462
-3.9579
-4.97295
-5.97913
-6.9539
-7.87388
-8.71918
-9.47503
-10.1322
-10.6887
-11.151
-11.5334
-11.8563
-12.1426
-12.4138
-12.687
-12.9757
-13.292
-13.6483
-14.0597
-14.5426
-15.119
-15.8152
-16.6614
-17.6943
-18.9459
-20.4268
-22.1222
-24.0009
-26.0139
-28.0911
-30.1471
-32.0909
-33.8321
-35.2896
-36.3999
-37.1259
-37.4588
-37.4287
-37.0643
-36.4223
-35.5953
-34.6596
-33.6634
-32.6691
-31.7497
-30.9657
-30.3478
-29.8949
-29.587
-29.3876
-29.2577
-29.1627
-29.0697
-28.9455
-28.7552
-28.4612
-28.025
-27.4114
-26.5934
-25.5544
-24.292
-22.8159
-21.1437
-19.3041
-17.3417
-15.3123
-13.2758
-11.2841
-9.37728
-7.57405
-5.87053
-4.24935
-2.69595
-1.20328
0.238579
1.64652
3.04129
4.4417
5.86
7.30057
8.76328
10.254
11.7897
13.3852
15.0305
16.6887
18.2934
19.7764
21.0976
22.2528
23.2568
24.1375
24.9185
25.6138
26.231
26.7743
27.2478
27.6559
28.0036
28.2959
28.5371
28.7312
28.8814
28.9902
29.0596
29.0914
29.0877
29.0512
28.9858
28.8957
28.7856
28.6601
28.523
28.3778
28.2274
28.0741
27.92
27.7669
27.616
27.4686
27.3256
27.1876
27.0554
26.9293
26.8095
26.6961
26.5892
26.4886
26.394
26.3051
26.2213
26.1422
26.0671
25.9952
25.9259
25.8583
25.7919
25.7259
25.6598
25.5929
25.5248
25.4552
25.3838
25.3103
25.2347
25.1571
25.0775
24.9961
24.9127
24.8275
24.7403
24.6514
24.5607
24.4685
24.375
24.2802
24.1842
24.0873
23.9895
23.8907
23.791
23.6901
23.5879
23.4839
23.3772
23.2667
23.1504
23.0254
22.8874
22.7308
22.5484
2.37431
2.14091
1.67839
1.00578
0.160942
-0.805889
-1.84471
-2.91559
-3.99553
-5.07137
-6.1312
-7.16017
-8.14134
-9.05702
-9.89186
-10.635
-11.28
-11.827
-12.2838
-12.6646
-12.9883
-13.2762
-13.5482
-13.8208
-14.1093
-14.4295
-14.7985
-15.2352
-15.7596
-16.3945
-17.1649
-18.0969
-19.2171
-20.5463
-22.0884
-23.8328
-25.7547
-27.8068
-29.9183
-32.002
-33.9658
-35.7211
-37.1885
-38.3078
-39.0487
-39.3898
-39.3354
-38.9303
-38.2519
-37.3967
-36.4476
-35.454
-34.4712
-33.5646
-32.7891
-32.1714
-31.7108
-31.3876
-31.1654
-31.0044
-30.8712
-30.7363
-30.5672
-30.3268
-29.9741
-29.4716
-28.7881
-27.8991
-26.7897
-25.462
-23.9367
-22.2331
-20.3785
-18.414
-16.3914
-14.3671
-12.3887
-10.4982
-8.71532
-7.03366
-5.42869
-3.87925
-2.37748
-0.917324
0.512987
1.93511
3.37186
4.83573
6.32624
7.83987
9.3794
10.9585
12.5893
14.2621
15.941
17.5611
19.0577
20.3976
21.5787
22.6168
23.5362
24.3566
25.0889
25.7391
26.3116
26.8114
27.2438
27.6143
27.9281
28.1897
28.4031
28.5715
28.6974
28.7829
28.8297
28.8398
28.8161
28.7624
28.6831
28.5833
28.4675
28.3398
28.2036
28.0618
27.9169
27.7709
27.6255
27.4822
27.3421
27.2061
27.0751
26.9494
26.8297
26.716
26.6086
26.5074
26.4124
26.3235
26.2402
26.162
26.0885
26.0189
25.9525
25.8885
25.826
25.7644
25.7029
25.6409
25.5778
25.513
25.4464
25.3775
25.3061
25.2322
25.1559
25.0774
24.9967
24.9138
24.8288
24.7417
24.6526
24.5616
24.469
24.375
24.2796
24.183
24.0852
23.9863
23.8861
23.7845
23.6814
23.5763
23.4688
23.3579
23.2423
23.1201
22.9884
22.8433
22.6798
22.4918
2.11013
1.83003
1.26675
0.448429
-0.575126
-1.73206
-2.95129
-4.17713
-5.37411
-6.52471
-7.61912
-8.65178
-9.61542
-10.5023
-11.3061
-12.0232
-12.6484
-13.1736
-13.5964
-13.9266
-14.186
-14.4035
-14.6071
-14.8194
-15.059
-15.3412
-15.6792
-16.0867
-16.5788
-17.1749
-17.9011
-18.7863
-19.8564
-21.1273
-22.6039
-24.2803
-26.1335
-28.1168
-30.1603
-32.1807
-34.0938
-35.8177
-37.2795
-38.4178
-39.2046
-39.616
-39.6369
-39.305
-38.7207
-37.9731
-37.1497
-36.2966
-35.4542
-34.6735
-33.9996
-33.4564
-33.0449
-32.7478
-32.5306
-32.3535
-32.1859
-32.0045
-31.7803
-31.478
-31.0595
-30.4894
-29.7389
-28.7834
-27.6084
-26.2237
-24.6651
-22.9583
-21.1233
-19.1915
-17.211
-15.2348
-13.3074
-11.4698
-9.73958
-8.10721
-6.54117
-5.0146
-3.5157
-2.04158
-0.592107
0.853432
2.32377
3.83175
5.37228
6.93942
8.5345
10.1671
11.8432
13.5487
15.2452
16.8706
18.3706
19.7203
20.9211
21.9892
22.9443
23.8005
24.5662
25.2461
25.8454
26.3698
26.8253
27.2176
27.5521
27.8334
28.0653
28.2511
28.3932
28.4936
28.5541
28.5771
28.5654
28.5231
28.4547
28.3654
28.2599
28.1423
28.0161
27.884
27.7486
27.6117
27.4751
27.3402
27.2082
27.08
26.9564
26.8378
26.7248
26.6175
26.5163
26.4212
26.3322
26.2492
26.1717
26.0995
26.0319
25.9682
25.9075
25.8491
25.7921
25.7356
25.6789
25.6212
25.562
25.5007
25.437
25.3707
25.3016
25.2295
25.1547
25.0771
24.9972
24.9148
24.8301
24.7431
24.6539
24.5627
24.4697
24.3752
24.2792
24.1819
24.0833
23.9833
23.8817
23.7783
23.673
23.5652
23.4544
23.3395
23.2193
23.0916
22.954
22.8027
22.6333
22.4408
1.93962
1.60819
0.934731
-0.0340423
-1.23391
-2.57367
-3.96775
-5.34588
-6.66781
-7.91472
-9.08341
-10.1763
-11.188
-12.1043
-12.9126
-13.608
-14.1909
-14.6522
-14.9844
-15.1968
-15.3182
-15.3888
-15.447
-15.5204
-15.6272
-15.7785
-15.982
-16.2467
-16.5881
-17.0295
-17.6006
-18.3367
-19.2641
-20.3939
-21.7285
-23.2633
-24.9736
-26.8156
-28.7262
-30.6321
-32.4587
-34.1307
-35.5843
-36.7622
-37.6304
-38.1709
-38.3609
-38.2214
-37.8433
-37.3214
-36.7403
-36.1378
-35.5383
-34.9749
-34.4806
-34.0753
-33.7621
-33.5277
-33.341
-33.1651
-32.9731
-32.7493
-32.4728
-32.1128
-31.6352
-31.0086
-30.2059
-29.204
-27.9931
-26.5854
-25.0278
-23.3442
-21.5489
-19.67
-17.7559
-15.8575
-14.0133
-12.2599
-10.6083
-9.0445
-7.53337
-6.04145
-4.55208
-3.06684
-1.59908
-0.133384
1.36446
2.91233
4.49926
6.11766
7.76909
9.45705
11.1788
12.9125
14.6159
16.2351
17.7283
19.0795
20.2941
21.3866
22.3713
23.2571
24.0501
24.7553
25.3783
25.9253
26.4024
26.8154
27.1697
27.4698
27.7194
27.9216
28.0787
28.1926
28.2655
28.3
28.2996
28.2684
28.2111
28.133
28.0387
27.9324
27.8172
27.6961
27.5712
27.4444
27.3175
27.1917
27.0683
26.9483
26.8322
26.7209
26.6146
26.5139
26.419
26.33
26.247
26.17
26.0987
26.0327
25.9713
25.9139
25.8596
25.8073
25.7563
25.7055
25.6539
25.6009
25.5457
25.488
25.4274
25.3638
25.2969
25.2267
25.1533
25.0768
24.9976
24.9158
24.8314
24.7445
24.6553
24.5639
24.4706
24.3757
24.2792
24.1811
24.0816
23.9805
23.8775
23.7724
23.6649
23.5546
23.4406
23.3221
23.1976
23.0652
22.9223
22.7656
22.5913
22.3947
2.15678
1.76925
0.998328
-0.105872
-1.47582
-3.00758
-4.61048
-6.20502
-7.74163
-9.19177
-10.5418
-11.7825
-12.895
-13.8458
-14.6104
-15.1888
-15.6049
-15.8769
-16.0099
-16.0144
-15.9164
-15.7544
-15.5679
-15.3911
-15.2467
-15.1537
-15.1267
-15.1771
-15.3237
-15.5898
-15.9997
-16.5791
-17.3488
-18.3183
-19.49
-20.8564
-22.3936
-24.0651
-25.8189
-27.5946
-29.3277
-30.9503
-32.4018
-33.6338
-34.6106
-35.3199
-35.7415
-35.8852
-35.8046
-35.5941
-35.3247
-35.0431
-34.7552
-34.472
-34.2117
-33.9894
-33.8093
-33.6631
-33.5278
-33.373
-33.177
-32.9286
-32.6139
-32.2111
-31.6912
-31.0276
-30.1969
-29.1821
-27.9759
-26.589
-25.0606
-23.4194
-21.6788
-19.8683
-18.0445
-16.2494
-14.5099
-12.8607
-11.3039
-9.81945
-8.3714
-6.92213
-5.45334
-3.96394
-2.47743
-0.992016
0.530378
2.11215
3.74116
5.4078
7.11183
8.85064
10.6086
12.3569
14.0524
15.6524
17.129
18.4753
19.698
20.8081
21.8143
22.722
23.5362
24.2621
24.9056
25.4729
25.9702
26.4029
26.776
27.094
27.3603
27.5777
27.7484
27.8747
27.959
28.0045
28.0151
27.9954
27.9501
27.8843
27.8026
27.7088
27.606
27.4969
27.3834
27.2676
27.1509
27.0347
26.9202
26.8084
26.7001
26.596
26.4966
26.4025
26.3139
26.2312
26.1546
26.0839
26.0191
25.9597
25.9052
25.8548
25.8075
25.7622
25.7179
25.6733
25.6275
25.5797
25.529
25.4751
25.4178
25.3568
25.2921
25.2238
25.1519
25.0765
24.9981
24.9168
24.8327
24.746
24.6568
24.5653
24.4717
24.3764
24.2793
24.1806
24.0802
23.9779
23.8735
23.7668
23.6573
23.5445
23.4277
23.3059
23.1775
23.0408
22.8932
22.7319
22.5533
22.3535
3.02821
2.55633
1.66926
0.409499
-1.16382
-2.9478
-4.84362
-6.73974
-8.55144
-10.218
-11.7065
-12.9959
-14.0703
-14.904
-15.4787
-15.811
-15.9481
-15.9343
-15.7822
-15.497
-15.1082
-14.6572
-14.1926
-13.7534
-13.3686
-13.0591
-12.8412
-12.7299
-12.7447
-12.907
-13.2328
-13.7331
-14.4176
-15.2958
-16.3688
-17.6231
-19.031
-20.5639
-22.1813
-23.8361
-25.478
-27.051
-28.5011
-29.7833
-30.8698
-31.7467
-32.4045
-32.8413
-33.0789
-33.1836
-33.2217
-33.243
-33.2579
-33.2569
-33.2382
-33.2076
-33.1699
-33.1237
-33.0579
-32.9523
-32.7881
-32.5525
-32.2344
-31.8182
-31.2825
-30.6056
-29.7698
-28.7652
-27.5906
-26.254
-24.7822
-23.2035
-21.5351
-19.8093
-18.0843
-16.3979
-14.7659
-13.222
-11.7607
-10.3519
-8.96722
-7.56997
-6.13587
-4.66191
-3.17145
-1.66799
-0.123103
1.48822
3.15626
4.86768
6.61579
8.38988
10.1652
11.9073
13.5782
15.1483
16.6023
17.9389
19.1633
20.2818
21.2994
22.2201
23.0485
23.7897
24.4493
25.0334
25.5476
25.9972
26.3868
26.72
27.0003
27.2305
27.4129
27.55
27.6448
27.7008
27.7226
27.7147
27.6821
27.6293
27.5608
27.48
27.3899
27.2928
27.1909
27.0858
26.9792
26.8724
26.7666
26.6628
26.5621
26.465
26.3724
26.2848
26.2027
26.1264