/*--------------------------------*- C++ -*----------------------------------*\
  =========                 |
  \\      /  F ield         | OpenFOAM: The Open Source CFD Toolbox
   \\    /   O peration     | Website:  https://openfoam.org
    \\  /    A nd           | Version:  10
     \\/     M anipulation  |
\*---------------------------------------------------------------------------*/
FoamFile
{
    format      ascii;
    class       volScalarField;
    location    "5700";
    object      p;
}
// * * * * * * * * * * * * * * * * * * * * * * * * * * * * * * * * * * * * * //

dimensions      [1 -1 -2 0 0 0 0];

internalField   nonuniform List<scalar> 
6400
(
110.805
110.813
110.829
110.853
110.884
110.924
110.971
111.026
111.09
111.161
111.239
111.326
111.42
111.522
111.631
111.748
111.872
112.002
112.138
112.28
112.428
112.579
112.733
112.89
113.047
113.203
113.356
113.504
113.643
113.772
113.888
113.988
114.047
114.079
114.107
114.13
114.149
114.164
114.173
114.178
114.178
114.173
114.164
114.149
114.13
114.107
114.079
114.047
113.988
113.888
113.772
113.643
113.504
113.356
113.203
113.047
112.89
112.733
112.579
112.428
112.28
112.138
112.002
111.872
111.748
111.631
111.522
111.42
111.326
111.239
111.161
111.09
111.026
110.971
110.924
110.884
110.853
110.829
110.813
110.805
110.511
110.519
110.535
110.558
110.59
110.629
110.677
110.732
110.795
110.866
110.945
111.032
111.126
111.228
111.337
111.454
111.577
111.707
111.844
111.986
112.133
112.285
112.439
112.596
112.753
112.909
113.062
113.21
113.35
113.479
113.595
113.695
113.754
113.786
113.814
113.837
113.856
113.871
113.88
113.885
113.885
113.88
113.871
113.856
113.837
113.814
113.786
113.754
113.695
113.595
113.479
113.35
113.21
113.062
112.909
112.753
112.596
112.439
112.285
112.133
111.986
111.844
111.707
111.577
111.454
111.337
111.228
111.126
111.032
110.945
110.866
110.795
110.732
110.677
110.629
110.59
110.558
110.535
110.519
110.511
110.188
110.196
110.212
110.235
110.267
110.306
110.354
110.409
110.472
110.543
110.622
110.708
110.803
110.905
111.014
111.131
111.254
111.384
111.521
111.663
111.81
111.962
112.117
112.274
112.431
112.587
112.74
112.888
113.028
113.158
113.274
113.375
113.433
113.466
113.494
113.517
113.536
113.551
113.56
113.565
113.565
113.56
113.551
113.536
113.517
113.494
113.466
113.433
113.375
113.274
113.158
113.028
112.888
112.74
112.587
112.431
112.274
112.117
111.962
111.81
111.663
111.521
111.384
111.254
111.131
111.014
110.905
110.803
110.708
110.622
110.543
110.472
110.409
110.354
110.306
110.267
110.235
110.212
110.196
110.188
109.833
109.841
109.856
109.88
109.912
109.951
109.999
110.054
110.117
110.188
110.267
110.353
110.448
110.55
110.659
110.776
110.899
111.03
111.166
111.309
111.456
111.608
111.763
111.92
112.077
112.234
112.388
112.536
112.676
112.807
112.923
113.024
113.083
113.116
113.144
113.168
113.187
113.201
113.211
113.216
113.216
113.211
113.201
113.187
113.168
113.144
113.116
113.083
113.024
112.923
112.807
112.676
112.536
112.388
112.234
112.077
111.92
111.763
111.608
111.456
111.309
111.166
111.03
110.899
110.776
110.659
110.55
110.448
110.353
110.267
110.188
110.117
110.054
109.999
109.951
109.912
109.88
109.856
109.841
109.833
109.443
109.451
109.466
109.49
109.522
109.561
109.609
109.664
109.727
109.798
109.877
109.963
110.058
110.16
110.269
110.386
110.51
110.64
110.777
110.919
111.067
111.219
111.374
111.532
111.69
111.847
112.001
112.15
112.291
112.422
112.54
112.641
112.701
112.733
112.762
112.786
112.805
112.82
112.829
112.834
112.834
112.829
112.82
112.805
112.786
112.762
112.733
112.701
112.641
112.54
112.422
112.291
112.15
112.001
111.847
111.69
111.532
111.374
111.219
111.067
110.919
110.777
110.64
110.51
110.386
110.269
110.16
110.058
109.963
109.877
109.798
109.727
109.664
109.609
109.561
109.522
109.49
109.466
109.451
109.443
109.014
109.022
109.038
109.062
109.093
109.133
109.18
109.235
109.298
109.369
109.448
109.535
109.629
109.731
109.841
109.958
110.082
110.212
110.349
110.492
110.64
110.792
110.948
111.106
111.265
111.423
111.578
111.727
111.87
112.002
112.12
112.223
112.283
112.316
112.345
112.369
112.388
112.403
112.413
112.418
112.418
112.413
112.403
112.388
112.369
112.345
112.316
112.283
112.223
112.12
112.002
111.87
111.727
111.578
111.423
111.265
111.106
110.948
110.792
110.64
110.492
110.349
110.212
110.082
109.958
109.841
109.731
109.629
109.535
109.448
109.369
109.298
109.235
109.18
109.133
109.093
109.062
109.038
109.022
109.014
108.543
108.551
108.567
108.591
108.622
108.662
108.709
108.764
108.828
108.899
108.978
109.064
109.159
109.261
109.37
109.487
109.611
109.742
109.879
110.023
110.171
110.324
110.48
110.639
110.799
110.957
111.114
111.265
111.409
111.542
111.662
111.766
111.827
111.861
111.89
111.914
111.934
111.949
111.959
111.964
111.964
111.959
111.949
111.934
111.914
111.89
111.861
111.827
111.766
111.662
111.542
111.409
111.265
111.114
110.957
110.799
110.639
110.48
110.324
110.171
110.023
109.879
109.742
109.611
109.487
109.37
109.261
109.159
109.064
108.978
108.899
108.828
108.764
108.709
108.662
108.622
108.591
108.567
108.551
108.543
108.026
108.034
108.05
108.073
108.105
108.144
108.192
108.247
108.31
108.381
108.46
108.547
108.641
108.744
108.853
108.97
109.095
109.226
109.363
109.507
109.656
109.81
109.967
110.127
110.287
110.448
110.605
110.758
110.904
111.039
111.162
111.267
111.33
111.364
111.394
111.419
111.439
111.455
111.465
111.47
111.47
111.465
111.455
111.439
111.419
111.394
111.364
111.33
111.267
111.162
111.039
110.904
110.758
110.605
110.448
110.287
110.127
109.967
109.81
109.656
109.507
109.363
109.226
109.095
108.97
108.853
108.744
108.641
108.547
108.46
108.381
108.31
108.247
108.192
108.144
108.105
108.073
108.05
108.034
108.026
107.457
107.465
107.481
107.505
107.536
107.576
107.623
107.678
107.741
107.812
107.891
107.978
108.073
108.175
108.285
108.402
108.527
108.659
108.797
108.941
109.091
109.245
109.403
109.564
109.727
109.889
110.049
110.204
110.352
110.49
110.615
110.724
110.788
110.823
110.854
110.88
110.9
110.916
110.927
110.932
110.932
110.927
110.916
110.9
110.88
110.854
110.823
110.788
110.724
110.615
110.49
110.352
110.204
110.049
109.889
109.727
109.564
109.403
109.245
109.091
108.941
108.797
108.659
108.527
108.402
108.285
108.175
108.073
107.978
107.891
107.812
107.741
107.678
107.623
107.576
107.536
107.505
107.481
107.465
107.457
106.832
106.84
106.855
106.879
106.911
106.95
106.998
107.053
107.116
107.187
107.266
107.353
107.448
107.55
107.66
107.778
107.903
108.035
108.174
108.319
108.469
108.625
108.785
108.948
109.112
109.277
109.439
109.598
109.749
109.891
110.019
110.131
110.198
110.234
110.266
110.293
110.314
110.331
110.342
110.347
110.347
110.342
110.331
110.314
110.293
110.266
110.234
110.198
110.131
110.019
109.891
109.749
109.598
109.439
109.277
109.112
108.948
108.785
108.625
108.469
108.319
108.174
108.035
107.903
107.778
107.66
107.55
107.448
107.353
107.266
107.187
107.116
107.053
106.998
106.95
106.911
106.879
106.855
106.84
106.832
106.144
106.152
106.168
106.191
106.223
106.262
106.31
106.365
106.428
106.499
106.579
106.666
106.76
106.863
106.974
107.092
107.217
107.35
107.489
107.635
107.787
107.944
108.106
108.271
108.438
108.605
108.771
108.934
109.09
109.236
109.369
109.486
109.555
109.593
109.626
109.655
109.677
109.695
109.706
109.712
109.712
109.706
109.695
109.677
109.655
109.626
109.593
109.555
109.486
109.369
109.236
109.09
108.934
108.771
108.605
108.438
108.271
108.106
107.944
107.787
107.635
107.489
107.35
107.217
107.092
106.974
106.863
106.76
106.666
106.579
106.499
106.428
106.365
106.31
106.262
106.223
106.191
106.168
106.152
106.144
105.388
105.395
105.411
105.435
105.466
105.506
105.553
105.609
105.672
105.743
105.822
105.909
106.004
106.107
106.218
106.336
106.462
106.596
106.736
106.883
107.037
107.196
107.36
107.528
107.698
107.869
108.04
108.208
108.369
108.521
108.661
108.783
108.857
108.897
108.932
108.962
108.987
109.005
109.018
109.024
109.024
109.018
109.005
108.987
108.962
108.932
108.897
108.857
108.783
108.661
108.521
108.369
108.208
108.04
107.869
107.698
107.528
107.36
107.196
107.037
106.883
106.736
106.596
106.462
106.336
106.218
106.107
106.004
105.909
105.822
105.743
105.672
105.609
105.553
105.506
105.466
105.435
105.411
105.395
105.388
104.555
104.563
104.579
104.603
104.634
104.673
104.721
104.776
104.839
104.911
104.99
105.077
105.172
105.276
105.387
105.506
105.633
105.767
105.908
106.057
106.212
106.374
106.541
106.712
106.886
107.063
107.239
107.413
107.582
107.742
107.89
108.02
108.099
108.142
108.18
108.213
108.239
108.259
108.272
108.279
108.279
108.272
108.259
108.239
108.213
108.18
108.142
108.099
108.02
107.89
107.742
107.582
107.413
107.239
107.063
106.886
106.712
106.541
106.374
106.212
106.057
105.908
105.767
105.633
105.506
105.387
105.276
105.172
105.077
104.99
104.911
104.839
104.776
104.721
104.673
104.634
104.603
104.579
104.563
104.555
103.639
103.647
103.663
103.686
103.718
103.757
103.805
103.86
103.923
103.995
104.074
104.161
104.257
104.36
104.472
104.592
104.719
104.855
104.998
105.148
105.306
105.47
105.64
105.816
105.995
106.178
106.361
106.543
106.722
106.892
107.05
107.192
107.277
107.325
107.367
107.402
107.431
107.453
107.468
107.476
107.476
107.468
107.453
107.431
107.402
107.367
107.325
107.277
107.192
107.05
106.892
106.722
106.543
106.361
106.178
105.995
105.816
105.64
105.47
105.306
105.148
104.998
104.855
104.719
104.592
104.472
104.36
104.257
104.161
104.074
103.995
103.923
103.86
103.805
103.757
103.718
103.686
103.663
103.647
103.639
102.631
102.639
102.654
102.678
102.709
102.749
102.796
102.851
102.915
102.986
103.065
103.153
103.249
103.353
103.465
103.585
103.714
103.85
103.995
104.148
104.308
104.476
104.65
104.831
105.017
105.207
105.399
105.592
105.782
105.965
106.138
106.294
106.389
106.443
106.489
106.53
106.562
106.588
106.604
106.613
106.613
106.604
106.588
106.562
106.53
106.489
106.443
106.389
106.294
106.138
105.965
105.782
105.592
105.399
105.207
105.017
104.831
104.65
104.476
104.308
104.148
103.995
103.85
103.714
103.585
103.465
103.353
103.249
103.153
103.065
102.986
102.915
102.851
102.796
102.749
102.709
102.678
102.654
102.639
102.631
101.52
101.528
101.543
101.567
101.598
101.638
101.685
101.74
101.804
101.875
101.954
102.042
102.138
102.243
102.355
102.477
102.606
102.744
102.891
103.046
103.209
103.381
103.56
103.747
103.941
104.14
104.344
104.549
104.755
104.956
105.147
105.322
105.432
105.493
105.547
105.594
105.632
105.661
105.681
105.691
105.691
105.681
105.661
105.632
105.594
105.547
105.493
105.432
105.322
105.147
104.956
104.755
104.549
104.344
104.14
103.941
103.747
103.56
103.381
103.209
103.046
102.891
102.744
102.606
102.477
102.355
102.243
102.138
102.042
101.954
101.875
101.804
101.74
101.685
101.638
101.598
101.567
101.543
101.528
101.52
100.219
100.226
100.242
100.266
100.297
100.336
100.383
100.438
100.502
100.573
100.653
100.741
100.837
100.942
101.055
101.177
101.308
101.448
101.597
101.755
101.922
102.099
102.284
102.479
102.682
102.893
103.111
103.334
103.56
103.785
104.003
104.207
104.337
104.411
104.476
104.533
104.58
104.617
104.641
104.654
104.654
104.641
104.617
104.58
104.533
104.476
104.411
104.337
104.207
104.003
103.785
103.56
103.334
103.111
102.893
102.682
102.479
102.284
102.099
101.922
101.755
101.597
101.448
101.308
101.177
101.055
100.942
100.837
100.741
100.653
100.573
100.502
100.438
100.383
100.336
100.297
100.266
100.242
100.226
100.219
98.7753
98.7831
98.7986
98.822
98.8532
98.8923
98.9393
98.9944
99.0575
99.1287
99.2083
99.2963
99.3927
99.4979
99.6119
99.7349
99.8671
100.009
100.16
100.321
100.493
100.675
100.867
101.071
101.285
101.51
101.746
101.991
102.243
102.5
102.755
103.001
103.163
103.255
103.339
103.413
103.475
103.523
103.556
103.573
103.573
103.556
103.523
103.475
103.413
103.339
103.255
103.163
103.001
102.755
102.5
102.243
101.991
101.746
101.51
101.285
101.071
100.867
100.675
100.493
100.321
100.16
100.009
99.8671
99.7349
99.6119
99.4979
99.3927
99.2963
99.2083
99.1287
99.0575
98.9944
98.9393
98.8923
98.8532
98.822
98.7986
98.7831
98.7753
97.3242
97.3319
97.3474
97.3706
97.4017
97.4406
97.4874
97.5422
97.6051
97.6762
97.7556
97.8435
97.94
98.0453
98.1598
98.2835
98.4168
98.56
98.7135
98.8777
99.0531
99.2401
99.4394
99.6516
99.8772
100.117
100.371
100.64
100.922
101.216
101.517
101.818
102.023
102.143
102.254
102.354
102.439
102.506
102.553
102.577
102.577
102.553
102.506
102.439
102.354
102.254
102.143
102.023
101.818
101.517
101.216
100.922
100.64
100.371
100.117
99.8772
99.6516
99.4394
99.2401
99.0531
98.8777
98.7135
98.56
98.4168
98.2835
98.1598
98.0453
97.94
97.8435
97.7556
97.6762
97.6051
97.5422
97.4874
97.4406
97.4017
97.3706
97.3474
97.3319
97.3242
95.8654
95.873
95.8884
95.9115
95.9423
95.9809
96.0274
96.0819
96.1445
96.2152
96.2943
96.382
96.4784
96.5837
96.6983
96.8225
96.9565
97.101
97.2562
97.4229
97.6017
97.7934
97.9988
98.2192
98.4556
98.7094
98.982
99.2749
99.5891
99.9248
100.28
100.65
100.916
101.076
101.228
101.369
101.493
101.593
101.665
101.702
101.702
101.665
101.593
101.493
101.369
101.228
101.076
100.916
100.65
100.28
99.9248
99.5891
99.2749
98.982
98.7094
98.4556
98.2192
97.9988
97.7934
97.6017
97.4229
97.2562
97.101
96.9565
96.8225
96.6983
96.5837
96.4784
96.382
96.2943
96.2152
96.1445
96.0819
96.0274
95.9809
95.9423
95.9115
95.8884
95.873
95.8654
94.3989
94.4065
94.4217
94.4445
94.4751
94.5134
94.5595
94.6136
94.6757
94.7459
94.8246
94.9118
95.0078
95.1129
95.2273
95.3515
95.4859
95.631
95.7875
95.956
96.1374
96.3328
96.5434
96.7706
97.0165
97.283
97.5727
97.8888
98.2347
98.6139
99.0295
99.4818
99.8301
100.047
100.262
100.47
100.663
100.828
100.95
101.014
101.014
100.95
100.828
100.663
100.47
100.262
100.047
99.8301
99.4818
99.0295
98.6139
98.2347
97.8888
97.5727
97.283
97.0165
96.7706
96.5434
96.3328
96.1374
95.956
95.7875
95.631
95.4859
95.3515
95.2273
95.1129
95.0078
94.9118
94.8246
94.7459
94.6757
94.6136
94.5595
94.5134
94.4751
94.4445
94.4217
94.4065
94.3989
92.9248
92.9323
92.9473
92.9699
93.0001
93.038
93.0837
93.1372
93.1987
93.2683
93.3463
93.4328
93.5282
93.6327
93.7466
93.8704
94.0046
94.1498
94.3067
94.4761
94.6591
94.857
95.0712
95.3036
95.5567
95.8333
96.1372
96.473
96.847
97.2667
97.7419
98.2842
98.7326
99.0245
99.3313
99.6497
99.9715
100.278
100.532
100.652
100.652
100.532
100.278
99.9715
99.6497
99.3313
99.0245
98.7326
98.2842
97.7419
97.2667
96.847
96.473
96.1372
95.8333
95.5567
95.3036
95.0712
94.857
94.6591
94.4761
94.3067
94.1498
94.0046
93.8704
93.7466
93.6327
93.5282
93.4328
93.3463
93.2683
93.1987
93.1372
93.0837
93.038
93.0001
92.9699
92.9473
92.9323
92.9248
91.4432
91.4506
91.4654
91.4877
91.5175
91.5549
91.5999
91.6528
91.7135
91.7823
91.8594
91.9451
92.0394
92.143
92.256
92.3789
92.5123
92.6569
92.8134
92.9827
93.1661
93.3648
93.5807
93.816
94.0733
94.3563
94.6696
95.0192
95.4135
95.864
96.3872
97.0079
97.5542
97.9264
98.3423
98.8128
99.3549
99.9976
100.795
104.256
104.256
100.795
99.9976
99.3549
98.8128
98.3423
97.9264
97.5542
97.0079
96.3872
95.864
95.4135
95.0192
94.6696
94.3563
94.0733
93.816
93.5807
93.3648
93.1661
92.9827
92.8134
92.6569
92.5123
92.3789
92.256
92.143
92.0394
91.9451
91.8594
91.7823
91.7135
91.6528
91.5999
91.5549
91.5175
91.4877
91.4654
91.4506
91.4432
89.9542
89.9615
89.9761
89.998
90.0273
90.0641
90.1084
90.1605
90.2203
90.2881
90.3641
90.4485
90.5416
90.6438
90.7554
90.8769
91.0089
91.1521
91.3072
91.4753
91.6576
91.8555
92.071
92.3063
92.5644
92.8491
93.1656
93.5207
93.9237
94.3884
94.9352
95.5959
96.1936
96.6073
97.0766
97.6134
98.2294
98.9313
99.8586
130.63
130.63
99.8586
98.9313
98.2294
97.6134
97.0766
96.6073
96.1936
95.5959
94.9352
94.3884
93.9237
93.5207
93.1656
92.8491
92.5644
92.3063
92.071
91.8555
91.6576
91.4753
91.3072
91.1521
91.0089
90.8769
90.7554
90.6438
90.5416
90.4485
90.3641
90.2881
90.2203
90.1605
90.1084
90.0641
90.0273
89.998
89.9761
89.9615
89.9542
88.4579
88.465
88.4794
88.5009
88.5296
88.5657
88.6093
88.6603
88.7191
88.7856
88.8603
88.9432
89.0347
89.1351
89.2449
89.3644
89.4943
89.6352
89.788
89.9537
90.1334
90.3287
90.5413
90.7737
91.0287
91.3102
91.6231
91.9741
92.3724
92.8309
93.3691
94.0169
94.6009
95.0061
95.47
96.0129
96.6688
97.5
115.267
130.241
130.241
115.267
97.5
96.6688
96.0129
95.47
95.0061
94.6009
94.0169
93.3691
92.8309
92.3724
91.9741
91.6231
91.3102
91.0287
90.7737
90.5413
90.3287
90.1334
89.9537
89.788
89.6352
89.4943
89.3644
89.2449
89.1351
89.0347
88.9432
88.8603
88.7856
88.7191
88.6603
88.6093
88.5657
88.5296
88.5009
88.4794
88.465
88.4579
86.9544
86.9614
86.9754
86.9965
87.0247
87.06
87.1026
87.1525
87.21
87.2752
87.3482
87.4293
87.5189
87.6172
87.7246
87.8415
87.9687
88.1066
88.256
88.418
88.5937
88.7845
88.992
89.2185
89.4667
89.7399
90.0425
90.3803
90.7607
91.1939
91.6934
92.2773
92.7763
93.1075
93.4631
93.8406
94.2302
94.6851
122.023
129.817
129.817
122.023
94.6851
94.2302
93.8406
93.4631
93.1075
92.7763
92.2773
91.6934
91.1939
90.7607
90.3803
90.0425
89.7399
89.4667
89.2185
88.992
88.7845
88.5937
88.418
88.256
88.1066
87.9687
87.8415
87.7246
87.6172
87.5189
87.4293
87.3482
87.2752
87.21
87.1525
87.1026
87.06
87.0247
86.9965
86.9754
86.9614
86.9544
85.444
85.4508
85.4645
85.485
85.5125
85.547
85.5885
85.6372
85.6933
85.7568
85.828
85.9071
85.9944
86.0901
86.1947
86.3086
86.4322
86.5663
86.7115
86.8687
87.0389
87.2234
87.4237
87.6417
87.8795
88.1401
88.4267
88.7437
89.0963
89.4905
89.9332
90.4306
90.8301
91.0848
91.3455
91.6071
91.8617
92.2352
112.173
120.265
120.265
112.173
92.2352
91.8617
91.6071
91.3455
91.0848
90.8301
90.4306
89.9332
89.4905
89.0963
88.7437
88.4267
88.1401
87.8795
87.6417
87.4237
87.2234
87.0389
86.8687
86.7115
86.5663
86.4322
86.3086
86.1947
86.0901
85.9944
85.9071
85.828
85.7568
85.6933
85.6372
85.5885
85.547
85.5125
85.485
85.4645
85.4508
85.444
83.9267
83.9334
83.9467
83.9666
83.9933
84.0268
84.0672
84.1146
84.169
84.2308
84.2999
84.3767
84.4613
84.5542
84.6555
84.7658
84.8854
85.0149
85.155
85.3063
85.4699
85.6466
85.8378
86.045
86.2697
86.5142
86.7806
87.0717
87.3902
87.7386
88.1184
88.528
88.8394
89.0321
89.2231
89.4087
89.5845
89.8986
104.091
111.65
111.65
104.091
89.8986
89.5845
89.4087
89.2231
89.0321
88.8394
88.528
88.1184
87.7386
87.3902
87.0717
86.7806
86.5142
86.2697
86.045
85.8378
85.6466
85.4699
85.3063
85.155
85.0149
84.8854
84.7658
84.6555
84.5542
84.4613
84.3767
84.2999
84.2308
84.169
84.1146
84.0672
84.0268
83.9933
83.9666
83.9467
83.9334
83.9267
82.4028
82.4093
82.4221
82.4415
82.4674
82.4999
82.539
82.5848
82.6376
82.6973
82.7642
82.8384
82.9202
83.0098
83.1075
83.2136
83.3287
83.453
83.5872
83.7318
83.8876
84.0553
84.236
84.4306
84.6403
84.8663
85.1099
85.3723
85.6541
85.9553
86.2737
86.604
86.8431
86.9878
87.1278
87.2608
87.3844
87.6412
97.891
104.959
104.959
97.891
87.6412
87.3844
87.2608
87.1278
86.9878
86.8431
86.604
86.2737
85.9553
85.6541
85.3723
85.1099
84.8663
84.6403
84.4306
84.236
84.0553
83.8876
83.7318
83.5872
83.453
83.3287
83.2136
83.1075
83.0098
82.9202
82.8384
82.7642
82.6973
82.6376
82.5848
82.539
82.4999
82.4674
82.4415
82.4221
82.4093
82.4028
80.8725
80.8787
80.8912
80.9099
80.9349
80.9662
81.004
81.0482
81.0991
81.1567
81.2211
81.2925
81.3712
81.4572
81.551
81.6527
81.7626
81.8812
82.0089
82.1461
82.2933
82.4511
82.6202
82.8011
82.9945
83.2008
83.4205
83.6534
83.8988
84.1547
84.4171
84.6791
84.86
84.9668
85.0676
85.1608
85.245
85.4348
92.4301
99.3112
99.3112
92.4301
85.4348
85.245
85.1608
85.0676
84.9668
84.86
84.6791
84.4171
84.1547
83.8988
83.6534
83.4205
83.2008
82.9945
82.8011
82.6202
82.4511
82.2933
82.1461
82.0089
81.8812
81.7626
81.6527
81.551
81.4572
81.3712
81.2925
81.2211
81.1567
81.0991
81.0482
81.004
80.9662
80.9349
80.9099
80.8912
80.8787
80.8725
79.3359
79.3419
79.3539
79.3719
79.396
79.4262
79.4625
79.505
79.5539
79.6092
79.671
79.7395
79.8147
79.897
79.9865
80.0834
80.1879
80.3004
80.4211
80.5503
80.6884
80.8358
80.9926
81.1592
81.3356
81.522
81.7178
81.922
82.133
82.3476
82.561
82.7656
82.8996
82.9762
83.0458
83.1068
83.158
83.2654
87.0721
94.1121
94.1121
87.0721
83.2654
83.158
83.1068
83.0458
82.9762
82.8996
82.7656
82.561
82.3476
82.133
81.922
81.7178
81.522
81.3356
81.1592
80.9926
80.8358
80.6884
80.5503
80.4211
80.3004
80.1879
80.0834
79.9865
79.897
79.8147
79.7395
79.671
79.6092
79.5539
79.505
79.4625
79.4262
79.396
79.3719
79.3539
79.3419
79.3359
77.7934
77.7991
77.8106
77.8279
77.851
77.8799
77.9148
77.9555
78.0023
78.0552
78.1142
78.1796
78.2513
78.3296
78.4146
78.5065
78.6053
78.7113
78.8248
78.9457
79.0744
79.2108
79.3552
79.5073
79.667
79.8337
80.0065
80.1839
80.3635
80.5418
80.7135
80.8714
80.9684
81.0216
81.0669
81.1029
81.1279
81.1587
81.9958
89.5665
89.5665
81.9958
81.1587
81.1279
81.1029
81.0669
81.0216
80.9684
80.8714
80.7135
80.5418
80.3635
80.1839
80.0065
79.8337
79.667
79.5073
79.3552
79.2108
79.0744
78.9457
78.8248
78.7113
78.6053
78.5065
78.4146
78.3296
78.2513
78.1796
78.1142
78.0552
78.0023
77.9555
77.9148
77.8799
77.851
77.8279
77.8106
77.7991
77.7934
76.2451
76.2506
76.2616
76.2781
76.3002
76.3278
76.3611
76.4
76.4446
76.495
76.5512
76.6133
76.6814
76.7555
76.8359
76.9225
77.0155
77.1149
77.2209
77.3334
77.4525
77.5781
77.71
77.8479
77.9913
78.1394
78.2907
78.4437
78.5955
78.7425
78.8798
79.0008
79.0703
79.1065
79.1352
79.1551
79.1646
79.1619
79.1516
86.9496
86.9496
79.1516
79.1619
79.1646
79.1551
79.1352
79.1065
79.0703
79.0008
78.8798
78.7425
78.5955
78.4437
78.2907
78.1394
77.9913
77.8479
77.71
77.5781
77.4525
77.3334
77.2209
77.1149
77.0155
76.9225
76.8359
76.7555
76.6814
76.6133
76.5512
76.495
76.4446
76.4
76.3611
76.3278
76.3002
76.2781
76.2616
76.2506
76.2451
74.6913
74.6965
74.707
74.7228
74.7438
74.7701
74.8018
74.8388
74.8811
74.9289
74.9822
75.041
75.1053
75.1753
75.2509
75.3322
75.4192
75.512
75.6104
75.7145
75.8241
75.939
76.0588
76.1831
76.311
76.4416
76.5734
76.7045
76.8321
76.9529
77.0624
77.1551
77.205
77.2299
77.2483
77.2595
77.2628
77.2575
77.2494
85.4086
85.4086
77.2494
77.2575
77.2628
77.2595
77.2483
77.2299
77.205
77.1551
77.0624
76.9529
76.8321
76.7045
76.5734
76.4416
76.311
76.1831
76.0588
75.939
75.8241
75.7145
75.6104
75.512
75.4192
75.3322
75.2509
75.1753
75.1053
75.041
74.9822
74.9289
74.8811
74.8388
74.8018
74.7701
74.7438
74.7228
74.707
74.6965
74.6913
73.1323
73.1372
73.1472
73.1622
73.1821
73.2071
73.2371
73.2721
73.3122
73.3574
73.4077
73.4631
73.5237
73.5894
73.6602
73.7362
73.8172
73.9033
73.9943
74.0901
74.1904
74.2949
74.4032
74.5145
74.628
74.7427
74.8569
74.9687
75.0757
75.1747
75.2619
75.3329
75.3689
75.3861
75.398
75.4041
75.4041
75.3979
75.39
84.2048
84.2048
75.39
75.3979
75.4041
75.4041
75.398
75.3861
75.3689
75.3329
75.2619
75.1747
75.0757
74.9687
74.8569
74.7427
74.628
74.5145
74.4032
74.2949
74.1904
74.0901
73.9943
73.9033
73.8172
73.7362
73.6602
73.5894
73.5237
73.4631
73.4077
73.3574
73.3122
73.2721
73.2371
73.2071
73.1821
73.1622
73.1472
73.1372
73.1323
71.5683
71.573
71.5824
71.5966
71.6154
71.639
71.6674
71.7005
71.7383
71.7808
71.8281
71.8801
71.9369
71.9983
72.0644
72.1351
72.2102
72.2898
72.3735
72.4612
72.5526
72.6472
72.7444
72.8437
72.944
73.0442
73.1427
73.2378
73.3272
73.4082
73.4776
73.5319
73.5578
73.5695
73.5768
73.5794
73.5772
73.5701
73.5623
83.2777
83.2777
73.5623
73.5701
73.5772
73.5794
73.5768
73.5695
73.5578
73.5319
73.4776
73.4082
73.3272
73.2378
73.1427
73.0442
72.944
72.8437
72.7444
72.6472
72.5526
72.4612
72.3735
72.2898
72.2102
72.1351
72.0644
71.9983
71.9369
71.8801
71.8281
71.7808
71.7383
71.7005
71.6674
71.639
71.6154
71.5966
71.5824
71.573
71.5683
69.9995
70.004
70.0129
70.0262
70.044
70.0663
70.0929
70.124
70.1596
70.1995
70.2438
70.2924
70.3454
70.4026
70.464
70.5295
70.5988
70.672
70.7487
70.8286
70.9115
70.9967
71.0837
71.1718
71.2601
71.3473
71.432
71.5127
71.5871
71.6532
71.7083
71.7496
71.7677
71.7752
71.7791
71.779
71.7751
71.7671
71.7593
82.6924
82.6924
71.7593
71.7671
71.7751
71.779
71.7791
71.7752
71.7677
71.7496
71.7083
71.6532
71.5871
71.5127
71.432
71.3473
71.2601
71.1718
71.0837
70.9967
70.9115
70.8286
70.7487
70.672
70.5988
70.5295
70.464
70.4026
70.3454
70.2924
70.2438
70.1995
70.1596
70.124
70.0929
70.0663
70.044
70.0262
70.0129
70.004
69.9995
68.4263
68.4305
68.4389
68.4514
68.4681
68.489
68.514
68.5432
68.5764
68.6138
68.6551
68.7004
68.7497
68.8027
68.8595
68.9199
68.9837
69.0507
69.1206
69.1932
69.268
69.3444
69.422
69.4999
69.5772
69.6528
69.7255
69.7936
69.8555
69.9092
69.9527
69.9837
69.9956
69.9999
70.001
69.9987
69.9931
69.9842
69.9766
82.5777
82.5777
69.9766
69.9842
69.9931
69.9987
70.001
69.9999
69.9956
69.9837
69.9527
69.9092
69.8555
69.7936
69.7255
69.6528
69.5772
69.4999
69.422
69.3444
69.268
69.1932
69.1206
69.0507
68.9837
68.9199
68.8595
68.8027
68.7497
68.7004
68.6551
68.6138
68.5764
68.5432
68.514
68.489
68.4681
68.4514
68.4389
68.4305
68.4263
66.849
66.8529
66.8607
66.8725
66.8881
66.9076
66.931
66.9583
66.9893
67.024
67.0625
67.1045
67.1501
67.1991
67.2515
67.3069
67.3653
67.4264
67.49
67.5555
67.6227
67.6911
67.7599
67.8285
67.896
67.9613
68.0234
68.0808
68.1321
68.1755
68.2095
68.2322
68.2392
68.2408
68.2395
68.2353
68.2281
68.2181
68.2106
83.0341
83.0341
68.2106
68.2181
68.2281
68.2353
68.2395
68.2408
68.2392
68.2322
68.2095
68.1755
68.1321
68.0808
68.0234
67.9613
67.896
67.8285
67.7599
67.6911
67.6227
67.5555
67.49
67.4264
67.3653
67.3069
67.2515
67.1991
67.1501
67.1045
67.0625
67.024
66.9893
66.9583
66.931
66.9076
66.8881
66.8725
66.8607
66.8529
66.849
65.2677
65.2713
65.2787
65.2896
65.3042
65.3224
65.3442
65.3695
65.3983
65.4306
65.4662
65.5051
65.5471
65.5923
65.6403
65.691
65.7443
65.7998
65.8572
65.9162
65.9764
66.0372
66.098
66.1582
66.2169
66.2732
66.326
66.3742
66.4164
66.4514
66.4776
66.4936
66.4967
66.4961
66.4928
66.4868
66.4778
66.466
66.4579
82.5738
82.5738
66.4579
66.466
66.4778
66.4868
66.4928
66.4961
66.4967
66.4936
66.4776
66.4514
66.4164
66.3742
66.326
66.2732
66.2169
66.1582
66.098
66.0372
65.9764
65.9162
65.8572
65.7998
65.7443
65.691
65.6403
65.5923
65.5471
65.5051
65.4662
65.4306
65.3983
65.3695
65.3442
65.3224
65.3042
65.2896
65.2787
65.2713
65.2677
63.6827
63.6861
63.6929
63.7031
63.7167
63.7336
63.7538
63.7773
63.804
63.8338
63.8666
63.9024
63.9411
63.9825
64.0264
64.0726
64.121
64.1712
64.2229
64.2758
64.3294
64.3833
64.4369
64.4894
64.5402
64.5885
64.6332
64.6734
64.708
64.7359
64.7559
64.7668
64.7671
64.765
64.7603
64.7527
64.7417
64.726
64.7133
66.426
66.426
64.7133
64.726
64.7417
64.7527
64.7603
64.765
64.7671
64.7668
64.7559
64.7359
64.708
64.6734
64.6332
64.5885
64.5402
64.4894
64.4369
64.3833
64.3294
64.2758
64.2229
64.1712
64.121
64.0726
64.0264
63.9825
63.9411
63.9024
63.8666
63.8338
63.804
63.7773
63.7538
63.7336
63.7167
63.7031
63.6929
63.6861
63.6827
62.0946
62.0977
62.104
62.1135
62.1261
62.1417
62.1604
62.1821
62.2067
62.2341
62.2643
62.2972
62.3326
62.3704
62.4103
62.4523
62.496
62.5413
62.5877
62.6349
62.6825
62.73
62.7769
62.8226
62.8664
62.9075
62.9452
62.9786
63.0067
63.0288
63.0437
63.0508
63.0496
63.0471
63.0428
63.0367
63.0292
63.0206
63.0119
64.5861
64.5861
63.0119
63.0206
63.0292
63.0367
63.0428
63.0471
63.0496
63.0508
63.0437
63.0288
63.0067
62.9786
62.9452
62.9075
62.8664
62.8226
62.7769
62.73
62.6825
62.6349
62.5877
62.5413
62.496
62.4523
62.4103
62.3704
62.3326
62.2972
62.2643
62.2341
62.2067
62.1821
62.1604
62.1417
62.1261
62.1135
62.104
62.0977
62.0946
60.5033
60.5062
60.512
60.5207
60.5323
60.5468
60.564
60.5839
60.6065
60.6317
60.6594
60.6894
60.7217
60.7561
60.7923
60.8302
60.8696
60.9102
60.9516
60.9936
61.0356
61.0774
61.1183
61.1578
61.1953
61.2301
61.2616
61.289
61.3116
61.3286
61.3394
61.3434
61.3411
61.3383
61.3341
61.3285
61.3218
61.3141
61.3055
62.8878
62.8878
61.3055
61.3141
61.3218
61.3285
61.3341
61.3383
61.3411
61.3434
61.3394
61.3286
61.3116
61.289
61.2616
61.2301
61.1953
61.1578
61.1183
61.0774
61.0356
60.9936
60.9516
60.9102
60.8696
60.8302
60.7923
60.7561
60.7217
60.6894
60.6594
60.6317
60.6065
60.5839
60.564
60.5468
60.5323
60.5207
60.512
60.5062
60.5033
58.909
58.9117
58.9171
58.9251
58.9358
58.949
58.9648
58.9831
59.0038
59.0268
59.0521
59.0794
59.1087
59.1398
59.1726
59.2067
59.242
59.2783
59.3151
59.3522
59.3891
59.4255
59.461
59.4949
59.5268
59.556
59.582
59.6042
59.622
59.6347
59.6419
59.6432
59.6398
59.6364
59.6319
59.6263
59.6196
59.6119
59.6031
61.2119
61.2119
59.6031
59.6119
59.6196
59.6263
59.6319
59.6364
59.6398
59.6432
59.6419
59.6347
59.622
59.6042
59.582
59.556
59.5268
59.4949
59.461
59.4255
59.3891
59.3522
59.3151
59.2783
59.242
59.2067
59.1726
59.1398
59.1087
59.0794
59.0521
59.0268
59.0038
58.9831
58.9648
58.949
58.9358
58.9251
58.9171
58.9117
58.909
57.3121
57.3146
57.3195
57.3268
57.3366
57.3487
57.3632
57.3799
57.3988
57.4197
57.4427
57.4675
57.494
57.522
57.5515
57.582
57.6135
57.6457
57.6783
57.7109
57.7431
57.7747
57.8052
57.8341
57.8609
57.8851
57.9063
57.9239
57.9374
57.9463
57.9503
57.9491
57.9444
57.9405
57.9355
57.9295
57.9226
57.9146
57.9056
59.5458
59.5458
57.9056
57.9146
57.9226
57.9295
57.9355
57.9405
57.9444
57.9491
57.9503
57.9463
57.9374
57.9239
57.9063
57.8851
57.8609
57.8341
57.8052
57.7747
57.7431
57.7109
57.6783
57.6457
57.6135
57.582
57.5515
57.522
57.494
57.4675
57.4427
57.4197
57.3988
57.3799
57.3632
57.3487
57.3366
57.3268
57.3195
57.3146
57.3121
55.7127
55.715
55.7195
55.7262
55.7351
55.7462
55.7593
55.7745
55.7917
55.8107
55.8314
55.8538
55.8777
55.9028
55.9292
55.9564
55.9844
56.0128
56.0414
56.0699
56.0979
56.125
56.151
56.1753
56.1976
56.2173
56.2342
56.2476
56.2573
56.2628
56.2639
56.2604
56.2544
56.2498
56.2443
56.2378
56.2304
56.2222
56.2129
57.8876
57.8876
56.2129
56.2222
56.2304
56.2378
56.2443
56.2498
56.2544
56.2604
56.2639
56.2628
56.2573
56.2476
56.2342
56.2173
56.1976
56.1753
56.151
56.125
56.0979
56.0699
56.0414
56.0128
55.9844
55.9564
55.9292
55.9028
55.8777
55.8538
55.8314
55.8107
55.7917
55.7745
55.7593
55.7462
55.7351
55.7262
55.7195
55.715
55.7127
54.1111
54.1131
54.1172
54.1233
54.1314
54.1415
54.1534
54.1672
54.1827
54.1998
54.2185
54.2386
54.26
54.2825
54.3059
54.3301
54.3548
54.3797
54.4047
54.4293
54.4534
54.4765
54.4984
54.5186
54.5367
54.5525
54.5654
54.5751
54.5814
54.5838
54.5822
54.5764
54.5691
54.5638
54.5576
54.5507
54.5428
54.5342
54.5246
56.2366