/*--------------------------------*- C++ -*----------------------------------*\
  =========                 |
  \\      /  F ield         | OpenFOAM: The Open Source CFD Toolbox
   \\    /   O peration     | Website:  https://openfoam.org
    \\  /    A nd           | Version:  10
     \\/     M anipulation  |
\*---------------------------------------------------------------------------*/
FoamFile
{
    format      ascii;
    class       surfaceScalarField;
    location    "12100";
    object      phi;
}
// * * * * * * * * * * * * * * * * * * * * * * * * * * * * * * * * * * * * * //

dimensions      [0 3 -1 0 0 0 0];

internalField   nonuniform List<scalar> 
12640
(
-1.53861e-08
1.53861e-08
-3.08846e-08
1.54985e-08
-4.66115e-08
1.5727e-08
-6.26908e-08
1.60792e-08
-7.92582e-08
1.65675e-08
-9.64678e-08
1.72096e-08
-1.14498e-07
1.80307e-08
-1.33564e-07
1.90657e-08
-1.53927e-07
2.03631e-08
-1.75918e-07
2.1991e-08
-1.99966e-07
2.40474e-08
-2.26642e-07
2.66761e-08
-2.56738e-07
3.00961e-08
-2.91393e-07
3.46552e-08
-3.32328e-07
4.09351e-08
-3.82298e-07
4.99697e-08
-4.46009e-07
6.3711e-08
-5.31688e-07
8.56794e-08
-6.43902e-07
1.12214e-07
-4.29847e-07
-2.14055e-07
-4.36993e-06
3.94009e-06
-4.81573e-06
4.45796e-07
-4.80505e-06
-1.06811e-08
-4.61454e-06
-1.90511e-07
-4.35869e-06
-2.55843e-07
-4.79529e-06
4.36601e-07
-4.80244e-06
7.14799e-09
-4.5935e-06
-2.0894e-07
-4.47821e-06
-1.1529e-07
-4.34309e-06
-1.35122e-07
-4.22549e-06
-1.17602e-07
-4.01609e-06
-2.09401e-07
-3.86064e-06
-1.55441e-07
-3.64419e-06
-2.16456e-07
-3.33948e-06
-3.0471e-07
-2.92135e-06
-4.18127e-07
-2.36969e-06
-5.51666e-07
-1.67939e-06
-6.90298e-07
-8.72828e-07
-8.06561e-07
1.83223e-17
-8.72828e-07
8.72828e-07
-8.72828e-07
1.67939e-06
-8.06561e-07
2.36969e-06
-6.90298e-07
2.92135e-06
-5.51666e-07
3.33948e-06
-4.18127e-07
3.64419e-06
-3.0471e-07
3.86064e-06
-2.16456e-07
4.01609e-06
-1.55441e-07
4.22549e-06
-2.09401e-07
4.34309e-06
-1.17602e-07
4.47821e-06
-1.35122e-07
4.5935e-06
-1.1529e-07
4.80244e-06
-2.0894e-07
4.79529e-06
7.14799e-09
4.35869e-06
4.36601e-07
4.61454e-06
-2.55843e-07
4.80505e-06
-1.90511e-07
4.81573e-06
-1.06811e-08
4.36993e-06
4.45796e-07
4.29847e-07
3.94009e-06
6.43902e-07
-2.14055e-07
5.31688e-07
1.12214e-07
4.46009e-07
8.56794e-08
3.82298e-07
6.3711e-08
3.32328e-07
4.99697e-08
2.91393e-07
4.09351e-08
2.56738e-07
3.46552e-08
2.26642e-07
3.00961e-08
1.99966e-07
2.66761e-08
1.75918e-07
2.40474e-08
1.53927e-07
2.1991e-08
1.33564e-07
2.03631e-08
1.14498e-07
1.90657e-08
9.64678e-08
1.80307e-08
7.92582e-08
1.72096e-08
6.26908e-08
1.65675e-08
4.66115e-08
1.60792e-08
3.08846e-08
1.5727e-08
1.53861e-08
1.54985e-08
1.53861e-08
-1.68705e-08
3.22566e-08
-3.38641e-08
3.24921e-08
-5.1108e-08
3.29708e-08
-6.87376e-08
3.37088e-08
-8.69019e-08
3.47317e-08
-1.05769e-07
3.60769e-08
-1.25536e-07
3.7797e-08
-1.46435e-07
3.99649e-08
-1.68754e-07
4.26821e-08
-1.92854e-07
4.6091e-08
-2.19202e-07
5.03961e-08
-2.48424e-07
5.58975e-08
-2.8138e-07
6.30521e-08
-3.19309e-07
7.25842e-08
-3.64077e-07
8.57028e-08
-4.18661e-07
1.04554e-07
-4.8815e-07
1.332e-07
-5.81908e-07
1.79438e-07
-7.21758e-07
2.52063e-07
-1.22652e-06
2.90708e-07
-4.05327e-07
3.11889e-06
-4.64186e-06
4.68233e-06
-4.97944e-06
3.26901e-07
-4.84397e-06
-3.25979e-07
-4.56691e-06
-5.32911e-07
-5.09661e-06
9.66301e-07
-5.10569e-06
1.62262e-08
-4.87688e-06
-4.37746e-07
-4.76547e-06
-2.26702e-07
-4.62432e-06
-2.76273e-07
-4.50769e-06
-2.34226e-07
-4.29171e-06
-4.25382e-07
-4.13222e-06
-3.14936e-07
-3.90845e-06
-4.4022e-07
-3.58976e-06
-6.23407e-07
-3.1486e-06
-8.59282e-07
-2.56124e-06
-1.13903e-06
-1.8194e-06
-1.43213e-06
-9.46966e-07
-1.67899e-06
2.53161e-17
-1.81979e-06
9.46966e-07
-1.81979e-06
1.8194e-06
-1.67899e-06
2.56124e-06
-1.43213e-06
3.1486e-06
-1.13903e-06
3.58976e-06
-8.59282e-07
3.90845e-06
-6.23407e-07
4.13222e-06
-4.4022e-07
4.29171e-06
-3.14936e-07
4.50769e-06
-4.25382e-07
4.62432e-06
-2.34226e-07
4.76547e-06
-2.76273e-07
4.87688e-06
-2.26702e-07
5.10569e-06
-4.37746e-07
5.09661e-06
1.62262e-08
4.56691e-06
9.66301e-07
4.84397e-06
-5.32911e-07
4.97944e-06
-3.25979e-07
4.64186e-06
3.26901e-07
4.05327e-07
4.68233e-06
1.22652e-06
3.11889e-06
7.21758e-07
2.90708e-07
5.81908e-07
2.52063e-07
4.8815e-07
1.79438e-07
4.18661e-07
1.332e-07
3.64077e-07
1.04554e-07
3.19309e-07
8.57028e-08
2.8138e-07
7.25842e-08
2.48424e-07
6.30521e-08
2.19202e-07
5.58975e-08
1.92854e-07
5.03961e-08
1.68754e-07
4.6091e-08
1.46435e-07
4.26821e-08
1.25536e-07
3.99649e-08
1.05769e-07
3.7797e-08
8.69019e-08
3.60769e-08
6.87376e-08
3.47317e-08
5.1108e-08
3.37088e-08
3.38641e-08
3.29708e-08
1.68705e-08
3.24921e-08
3.22566e-08
-1.84905e-08
5.07471e-08
-3.71156e-08
5.11172e-08
-5.60143e-08
5.18695e-08
-7.53346e-08
5.30292e-08
-9.52393e-08
5.46364e-08
-1.15912e-07
5.67497e-08
-1.37567e-07
5.94516e-08
-1.60458e-07
6.28563e-08
-1.84899e-07
6.71226e-08
-2.11281e-07
7.24733e-08
-2.40112e-07
7.92275e-08
-2.72069e-07
8.78538e-08
-3.0808e-07
9.90633e-08
-3.49476e-07
1.13981e-07
-3.98251e-07
1.34478e-07
-4.5756e-07
1.63864e-07
-5.32772e-07
2.08412e-07
-6.341e-07
2.80766e-07
-7.89433e-07
4.07396e-07
-1.18363e-06
6.84909e-07
-9.47049e-07
2.88231e-06
-3.72492e-07
4.10777e-06
-4.19661e-06
4.15102e-06
-5.04189e-06
5.19303e-07
-4.74887e-06
-8.25931e-07
-5.48206e-06
1.69949e-06
-5.48087e-06
1.50417e-08
-5.2074e-06
-7.11218e-07
-5.10916e-06
-3.24941e-07
-4.95686e-06
-4.28572e-07
-4.84816e-06
-3.42931e-07
-4.62972e-06
-6.43819e-07
-4.47293e-06
-4.71728e-07
-4.24968e-06
-6.63465e-07
-3.92269e-06
-9.50403e-07
-3.46143e-06
-1.32054e-06
-2.83436e-06
-1.76611e-06
-2.0244e-06
-2.24209e-06
-1.05711e-06
-2.64629e-06
2.49306e-17
-2.8769e-06
1.05711e-06
-2.8769e-06
2.0244e-06
-2.64629e-06
2.83436e-06
-2.24209e-06
3.46143e-06
-1.76611e-06
3.92269e-06
-1.32054e-06
4.24968e-06
-9.50403e-07
4.47293e-06
-6.63465e-07
4.62972e-06
-4.71728e-07
4.84816e-06
-6.43819e-07
4.95686e-06
-3.42931e-07
5.10916e-06
-4.28572e-07
5.2074e-06
-3.24941e-07
5.48087e-06
-7.11218e-07
5.48206e-06
1.50417e-08
4.74887e-06
1.69949e-06
5.04189e-06
-8.25931e-07
4.19661e-06
5.19303e-07
3.72492e-07
4.15102e-06
9.47049e-07
4.10777e-06
1.18363e-06
2.88231e-06
7.89433e-07
6.84909e-07
6.341e-07
4.07396e-07
5.32772e-07
2.80766e-07
4.5756e-07
2.08412e-07
3.98251e-07
1.63864e-07
3.49476e-07
1.34478e-07
3.0808e-07
1.13981e-07
2.72069e-07
9.90633e-08
2.40112e-07
8.78538e-08
2.11281e-07
7.92275e-08
1.84899e-07
7.24733e-08
1.60458e-07
6.71226e-08
1.37567e-07
6.28563e-08
1.15912e-07
5.94516e-08
9.52393e-08
5.67497e-08
7.53346e-08
5.46364e-08
5.60143e-08
5.30292e-08
3.71156e-08
5.18695e-08
1.84905e-08
5.11172e-08
5.07471e-08
-2.02554e-08
7.10025e-08
-4.06576e-08
7.15194e-08
-6.13582e-08
7.25701e-08
-8.25184e-08
7.41894e-08
-1.04315e-07
7.64334e-08
-1.26949e-07
7.93837e-08
-1.50652e-07
8.31546e-08
-1.75701e-07
8.79049e-08
-2.02433e-07
9.38549e-08
-2.31274e-07
1.01313e-07
-2.62768e-07
1.10722e-07
-2.97641e-07
1.22727e-07
-3.36884e-07
1.38306e-07
-3.81905e-07
1.59002e-07
-4.34791e-07
1.87364e-07
-4.988e-07
2.27874e-07
-5.79382e-07
2.88994e-07
-6.8679e-07
3.88173e-07
-8.46787e-07
5.67394e-07
-1.14714e-06
9.85258e-07
-9.5448e-07
2.68965e-06
-5.88656e-07
3.74195e-06
-2.56601e-07
3.81897e-06
-2.74432e-06
3.00702e-06
-4.67722e-06
1.10697e-06
-5.91992e-06
2.94219e-06
-5.90634e-06
1.46193e-09
-5.55749e-06
-1.06007e-06
-5.49649e-06
-3.8594e-07
-5.32565e-06
-5.9941e-07
-5.23892e-06
-4.29669e-07
-5.02471e-06
-8.58028e-07
-4.88344e-06
-6.12999e-07
-4.67624e-06
-8.70657e-07
-4.35276e-06
-1.27389e-06
-3.88179e-06
-1.7915e-06
-3.21672e-06
-2.43118e-06
-2.31955e-06
-3.13926e-06
-1.21782e-06
-3.74801e-06
1.96177e-17
-4.09473e-06
1.21782e-06
-4.09473e-06
2.31955e-06
-3.74801e-06
3.21672e-06
-3.13926e-06
3.88179e-06
-2.43118e-06
4.35276e-06
-1.7915e-06
4.67624e-06
-1.27389e-06
4.88344e-06
-8.70657e-07
5.02471e-06
-6.12999e-07
5.23892e-06
-8.58028e-07
5.32565e-06
-4.29669e-07
5.49649e-06
-5.9941e-07
5.55749e-06
-3.8594e-07
5.90634e-06
-1.06007e-06
5.91992e-06
1.46193e-09
4.67722e-06
2.94219e-06
2.74432e-06
1.10697e-06
2.56601e-07
3.00702e-06
5.88656e-07
3.81897e-06
9.5448e-07
3.74195e-06
1.14714e-06
2.68965e-06
8.46787e-07
9.85258e-07
6.8679e-07
5.67394e-07
5.79382e-07
3.88173e-07
4.988e-07
2.88994e-07
4.34791e-07
2.27874e-07
3.81905e-07
1.87364e-07
3.36884e-07
1.59002e-07
2.97641e-07
1.38306e-07
2.62768e-07
1.22727e-07
2.31274e-07
1.10722e-07
2.02433e-07
1.01313e-07
1.75701e-07
9.38549e-08
1.50652e-07
8.79049e-08
1.26949e-07
8.31546e-08
1.04315e-07
7.93837e-08
8.25184e-08
7.64334e-08
6.13582e-08
7.41894e-08
4.06576e-08
7.25701e-08
2.02554e-08
7.15194e-08
7.10025e-08
-2.21739e-08
9.31764e-08
-4.45074e-08
9.38529e-08
-6.71652e-08
9.52279e-08
-9.03226e-08
9.73468e-08
-1.14172e-07
1.00283e-07
-1.38929e-07
1.04141e-07
-1.64846e-07
1.09072e-07
-1.92221e-07
1.1528e-07
-2.21417e-07
1.23051e-07
-2.52888e-07
1.32785e-07
-2.87217e-07
1.45051e-07
-3.25171e-07
1.6068e-07
-3.6779e-07
1.80926e-07
-4.16536e-07
2.07748e-07
-4.73538e-07
2.44365e-07
-5.42041e-07
2.96376e-07
-6.27277e-07
3.7423e-07
-7.38462e-07
4.99358e-07
-8.9421e-07
7.23142e-07
-1.11721e-06
1.20826e-06
-9.59846e-07
2.53228e-06
-6.39281e-07
3.42138e-06
-3.59152e-07
3.53884e-06
-2.92663e-07
2.94053e-06
-8.09107e-07
1.62341e-06
-5.9688e-06
8.10189e-06
-6.29439e-06
3.27045e-07
-5.87702e-06
-1.47743e-06
-5.92011e-06
-3.42859e-07
-5.71896e-06
-8.00552e-07
-5.68199e-06
-4.66646e-07
-5.4781e-06
-1.06191e-06
-5.37482e-06
-7.16281e-07
-5.21235e-06
-1.03313e-06
-4.91084e-06
-1.5754e-06
-4.45324e-06
-2.2491e-06
-3.76407e-06
-3.12035e-06
-2.75496e-06
-4.14837e-06
-1.45748e-06
-5.04549e-06
2.45709e-17
-5.55221e-06
1.45748e-06
-5.55221e-06
2.75496e-06
-5.04549e-06
3.76407e-06
-4.14837e-06
4.45324e-06
-3.12035e-06
4.91084e-06
-2.2491e-06
5.21235e-06
-1.5754e-06
5.37482e-06
-1.03313e-06
5.4781e-06
-7.16281e-07
5.68199e-06
-1.06191e-06
5.71896e-06
-4.66646e-07
5.92011e-06
-8.00552e-07
5.87702e-06
-3.42859e-07
6.29439e-06
-1.47743e-06
5.9688e-06
3.27045e-07
8.09107e-07
8.10189e-06
2.92663e-07
1.62341e-06
3.59152e-07
2.94053e-06
6.39281e-07
3.53884e-06
9.59846e-07
3.42138e-06
1.11721e-06
2.53228e-06
8.9421e-07
1.20826e-06
7.38462e-07
7.23142e-07
6.27277e-07
4.99358e-07
5.42041e-07
3.7423e-07
4.73538e-07
2.96376e-07
4.16536e-07
2.44365e-07
3.6779e-07
2.07748e-07
3.25171e-07
1.80926e-07
2.87217e-07
1.6068e-07
2.52888e-07
1.45051e-07
2.21417e-07
1.32785e-07
1.92221e-07
1.23051e-07
1.64846e-07
1.1528e-07
1.38929e-07
1.09072e-07
1.14172e-07
1.04141e-07
9.03226e-08
1.00283e-07
6.71652e-08
9.73468e-08
4.45074e-08
9.52279e-08
2.21739e-08
9.38529e-08
9.31764e-08
-2.42535e-08
1.1743e-07
-4.868e-08
1.18279e-07
-7.34576e-08
1.20005e-07
-9.87759e-08
1.22665e-07
-1.24842e-07
1.26349e-07
-1.51891e-07
1.31189e-07
-1.8019e-07
1.37371e-07
-2.1006e-07
1.45149e-07
-2.41887e-07
1.54878e-07
-2.76154e-07
1.67051e-07
-3.13472e-07
1.82369e-07
-3.54641e-07
2.01849e-07
-4.00732e-07
2.27017e-07
-4.53223e-07
2.60239e-07
-5.14212e-07
3.05354e-07
-5.86776e-07
3.6894e-07
-6.7556e-07
4.63013e-07
-7.87693e-07
6.11491e-07
-9.32512e-07
8.67961e-07
-1.09362e-06
1.36937e-06
-9.64299e-07
2.40296e-06
-6.89491e-07
3.14658e-06
-4.5347e-07
3.30282e-06
-4.52177e-07
2.93924e-06
-1.3249e-06
2.49613e-06
4.06346e-07
6.37064e-06
-2.9407e-06
3.67409e-06
-5.74027e-06
1.32214e-06
-6.31775e-06
2.3462e-07
-6.10006e-06
-1.01824e-06
-6.17958e-06
-3.87126e-07
-5.98469e-06
-1.25681e-06
-5.95979e-06
-7.41176e-07
-5.89885e-06
-1.09407e-06
-5.63927e-06
-1.83498e-06
-5.24404e-06
-2.64434e-06
-4.57857e-06
-3.78582e-06
-3.42363e-06
-5.3033e-06
-1.82709e-06
-6.64203e-06
2.64811e-17
-7.3793e-06
1.82709e-06
-7.3793e-06
3.42363e-06
-6.64203e-06
4.57857e-06
-5.3033e-06
5.24404e-06
-3.78582e-06
5.63927e-06
-2.64434e-06
5.89885e-06
-1.83498e-06
5.95979e-06
-1.09407e-06
5.98469e-06
-7.41176e-07
6.17958e-06
-1.25681e-06
6.10006e-06
-3.87126e-07
6.31775e-06
-1.01824e-06
5.74027e-06
2.3462e-07
2.9407e-06
1.32214e-06
-4.06346e-07
3.67409e-06
1.3249e-06
6.37064e-06
4.52177e-07
2.49613e-06
4.5347e-07
2.93924e-06
6.89491e-07
3.30282e-06
9.64299e-07
3.14658e-06
1.09362e-06
2.40296e-06
9.32512e-07
1.36937e-06
7.87693e-07
8.67961e-07
6.7556e-07
6.11491e-07
5.86776e-07
4.63013e-07
5.14212e-07
3.6894e-07
4.53223e-07
3.05354e-07
4.00732e-07
2.60239e-07
3.54641e-07
2.27017e-07
3.13472e-07
2.01849e-07
2.76154e-07
1.82369e-07
2.41887e-07
1.67051e-07
2.1006e-07
1.54878e-07
1.8019e-07
1.45149e-07
1.51891e-07
1.37371e-07
1.24842e-07
1.31189e-07
9.87759e-08
1.26349e-07
7.34576e-08
1.22665e-07
4.868e-08
1.20005e-07
2.42535e-08
1.18279e-07
1.1743e-07
-2.65002e-08
1.4393e-07
-5.31868e-08
1.44966e-07
-8.02517e-08
1.4707e-07
-1.07899e-07
1.50312e-07
-1.36351e-07
1.54801e-07
-1.65857e-07
1.60696e-07
-1.96705e-07
1.68219e-07
-2.29234e-07
1.77678e-07
-2.6385e-07
1.89495e-07
-3.01058e-07
2.04259e-07
-3.41491e-07
2.22802e-07
-3.85966e-07
2.46324e-07
-4.35556e-07
2.76607e-07
-4.91705e-07
3.16388e-07
-5.56388e-07
3.70037e-07
-6.32327e-07
4.44879e-07
-7.23194e-07
5.5388e-07
-8.33255e-07
7.21552e-07
-9.62772e-07
9.97478e-07
-1.07576e-06
1.48236e-06
-9.68638e-07
2.29583e-06
-7.37545e-07
2.91548e-06
-5.40907e-07
3.10618e-06
-5.49009e-07
2.94734e-06
-9.89306e-07
2.93643e-06
2.57293e-07
5.12404e-06
3.6037e-07
3.57101e-06
-4.89917e-07
2.17242e-06
-4.28557e-06
4.03027e-06
-6.06436e-06
7.60554e-07
-6.66562e-06
2.14132e-07
-6.48966e-06
-1.43277e-06
-6.62862e-06
-6.02211e-07
-6.80804e-06
-9.14652e-07
-6.57372e-06
-2.0693e-06
-6.34983e-06
-2.86823e-06
-5.85973e-06
-4.27592e-06
-4.50546e-06
-6.65757e-06
-2.41821e-06
-8.72928e-06
2.93938e-17
-9.79751e-06
2.41821e-06
-9.79751e-06
4.50546e-06
-8.72928e-06
5.85973e-06
-6.65757e-06
6.34983e-06
-4.27592e-06
6.57372e-06
-2.86823e-06
6.80804e-06
-2.0693e-06
6.62862e-06
-9.14652e-07
6.48966e-06
-6.02211e-07
6.66562e-06
-1.43277e-06
6.06436e-06
2.14132e-07
4.28557e-06
7.60554e-07
4.89917e-07
4.03027e-06
-3.6037e-07
2.17242e-06
-2.57293e-07
3.57101e-06
9.89306e-07
5.12404e-06
5.49009e-07
2.93643e-06
5.40907e-07
2.94734e-06
7.37545e-07
3.10618e-06
9.68638e-07
2.91548e-06
1.07576e-06
2.29583e-06
9.62772e-07
1.48236e-06
8.33255e-07
9.97478e-07
7.23194e-07
7.21552e-07
6.32327e-07
5.5388e-07
5.56388e-07
4.44879e-07
4.91705e-07
3.70037e-07
4.35556e-07
3.16388e-07
3.85966e-07
2.76607e-07
3.41491e-07
2.46324e-07
3.01058e-07
2.22802e-07
2.6385e-07
2.04259e-07
2.29234e-07
1.89495e-07
1.96705e-07
1.77678e-07
1.65857e-07
1.68219e-07
1.36351e-07
1.60696e-07
1.07899e-07
1.54801e-07
8.02517e-08
1.50312e-07
5.31868e-08
1.4707e-07
2.65002e-08
1.44966e-07
1.4393e-07
-2.89169e-08
1.72847e-07
-5.80334e-08
1.74082e-07
-8.75551e-08
1.76592e-07
-1.177e-07
1.80457e-07
-1.48704e-07
1.85805e-07
-1.80833e-07
1.92825e-07
-2.14389e-07
2.01775e-07
-2.49727e-07
2.13016e-07
-2.87271e-07
2.27039e-07
-3.27537e-07
2.44526e-07
-3.71168e-07
2.66433e-07
-4.18975e-07
2.94131e-07
-4.71999e-07
3.29631e-07
-5.31587e-07
3.75976e-07
-5.99481e-07
4.37931e-07
-6.77853e-07
5.23251e-07
-7.69067e-07
6.45095e-07
-8.74193e-07
8.26677e-07
-9.86153e-07
1.10944e-06
-1.06276e-06
1.55897e-06
-9.73177e-07
2.20625e-06
-7.81491e-07
2.7238e-06
-6.16158e-07
2.94084e-06
-6.03738e-07
2.93492e-06
-7.70009e-07
3.1027e-06
5.85189e-08
4.29552e-06
1.93821e-07
3.43571e-06
-2.24888e-07
2.59113e-06
4.60212e-07
3.34517e-06
-5.46169e-07
1.76693e-06
-3.98899e-06
3.65696e-06
-6.28547e-06
8.63712e-07
-6.9935e-06
1.05813e-07
-7.98246e-06
7.43077e-08
-7.57813e-06
-2.47363e-06
-7.83712e-06
-2.60924e-06
-8.04118e-06
-4.07185e-06
-6.36495e-06
-8.3338e-06
-3.38692e-06
-1.17073e-05
3.41937e-17
-1.31844e-05
3.38692e-06
-1.31844e-05
6.36495e-06
-1.17073e-05
8.04118e-06
-8.3338e-06
7.83712e-06
-4.07185e-06
7.57813e-06
-2.60924e-06
7.98246e-06
-2.47363e-06
6.9935e-06
7.43077e-08
6.28547e-06
1.05813e-07
3.98899e-06
8.63712e-07
5.46169e-07
3.65696e-06
-4.60212e-07
1.76693e-06
2.24888e-07
3.34517e-06
-1.93821e-07
2.59113e-06
-5.85189e-08
3.43571e-06
7.70009e-07
4.29552e-06
6.03738e-07
3.1027e-06
6.16158e-07
2.93492e-06
7.81491e-07
2.94084e-06
9.73177e-07
2.7238e-06
1.06276e-06
2.20625e-06
9.86153e-07
1.55897e-06
8.74193e-07
1.10944e-06
7.69067e-07
8.26677e-07
6.77853e-07
6.45095e-07
5.99481e-07
5.23251e-07
5.31587e-07
4.37931e-07
4.71999e-07
3.75976e-07
4.18975e-07
3.29631e-07
3.71168e-07
2.94131e-07
3.27537e-07
2.66433e-07
2.87271e-07
2.44526e-07
2.49727e-07
2.27039e-07
2.14389e-07
2.13016e-07
1.80833e-07
2.01775e-07
1.48704e-07
1.92825e-07
1.177e-07
1.85805e-07
8.75551e-08
1.80457e-07
5.80334e-08
1.76592e-07
2.89169e-08
1.74082e-07
1.72847e-07
-3.15027e-08
2.0435e-07
-6.32177e-08
2.05797e-07
-9.5363e-08
2.08737e-07
-1.28169e-07
2.13263e-07
-1.61886e-07
2.19522e-07
-1.96791e-07
2.2773e-07
-2.332e-07
2.38184e-07
-2.71477e-07
2.51294e-07
-3.12056e-07
2.67618e-07
-3.55455e-07
2.87925e-07
-4.02307e-07
3.13285e-07
-4.53391e-07
3.45214e-07
-5.0967e-07
3.85909e-07
-5.72323e-07
4.38629e-07
-6.42742e-07
5.0835e-07
-7.22373e-07
6.02882e-07
-8.12069e-07
7.34791e-07
-9.09841e-07
9.24449e-07
-1.00374e-06
1.20334e-06
-1.0535e-06
1.60873e-06
-9.77728e-07
2.13048e-06
-8.1955e-07
2.56562e-06
-6.76844e-07
2.79814e-06
-6.33123e-07
2.8912e-06
-6.37881e-07
3.10746e-06
-8.47976e-08
3.74243e-06
6.62445e-08
3.28467e-06
-1.16007e-07
2.77339e-06
2.31304e-07
2.99786e-06
-2.43739e-07
2.24198e-06
4.22246e-07
2.99097e-06
-3.99886e-07
1.68584e-06
-1.35319e-06
1.05912e-06
-3.09708e-06
1.81819e-06
-5.98298e-06
4.12279e-07
-8.73882e-06
1.46589e-07
-1.1953e-05
-8.57671e-07
-9.64944e-06
-1.06374e-05
-4.9159e-06
-1.64408e-05
2.0051e-17
-1.81003e-05
4.9159e-06
-1.81003e-05
9.64944e-06
-1.64408e-05
1.1953e-05
-1.06374e-05
8.73882e-06
-8.57671e-07
5.98298e-06
1.46589e-07
3.09708e-06
4.12279e-07
1.35319e-06
1.81819e-06
3.99886e-07
1.05912e-06
-4.22246e-07
1.68584e-06
2.43739e-07
2.99097e-06
-2.31304e-07
2.24198e-06
1.16007e-07
2.99786e-06
-6.62445e-08
2.77339e-06
8.47976e-08
3.28467e-06
6.37881e-07
3.74243e-06
6.33123e-07
3.10746e-06
6.76844e-07
2.8912e-06
8.1955e-07
2.79814e-06
9.77728e-07
2.56562e-06
1.0535e-06
2.13048e-06
1.00374e-06
1.60873e-06
9.09841e-07
1.20334e-06
8.12069e-07
9.24449e-07
7.22373e-07
7.34791e-07
6.42742e-07
6.02882e-07
5.72323e-07
5.0835e-07
5.0967e-07
4.38629e-07
4.53391e-07
3.85909e-07
4.02307e-07
3.45214e-07
3.55455e-07
3.13285e-07
3.12056e-07
2.87925e-07
2.71477e-07
2.67618e-07
2.332e-07
2.51294e-07
1.96791e-07
2.38184e-07
1.61886e-07
2.2773e-07
1.28169e-07
2.19522e-07
9.5363e-08
2.13263e-07
6.32177e-08
2.08737e-07
3.15027e-08
2.05797e-07
2.0435e-07
-3.42512e-08
2.38601e-07
-6.87259e-08
2.40272e-07
-1.03653e-07
2.43665e-07
-1.39274e-07
2.48884e-07
-1.7585e-07
2.56098e-07
-2.13666e-07
2.65546e-07
-2.53046e-07
2.77564e-07
-2.9436e-07
2.92607e-07
-3.38038e-07
3.11295e-07
-3.84586e-07
3.34473e-07
-4.34605e-07
3.63304e-07
-4.88808e-07
3.99417e-07
-5.48029e-07
4.4513e-07
-6.13205e-07
5.03805e-07
-6.8527e-07
5.80415e-07
-7.6482e-07
6.82432e-07
-8.51162e-07
8.21133e-07
-9.398e-07
1.01309e-06
-1.01643e-06
1.27997e-06
-1.04675e-06
1.63905e-06
-9.81689e-07
2.06542e-06
-8.50434e-07
2.43436e-06
-7.22981e-07
2.67069e-06
-6.49344e-07
2.81756e-06
-5.67281e-07
3.0254e-06
-1.88431e-07
3.36358e-06
-3.39199e-08
3.13016e-06
-8.04474e-08
2.81991e-06
9.61331e-08
2.82128e-06
-1.11209e-07
2.44932e-06
1.91071e-07
2.68869e-06
-2.37379e-07
2.11429e-06
-2.77667e-07
1.09941e-06
3.02545e-07
1.23798e-06
-2.4854e-07
9.63364e-07
-1.16611e-06
1.06416e-06
-3.13316e-06
1.10938e-06
-1.17735e-05
-1.99707e-06
-6.45162e-06
-2.17627e-05
1.4569e-18
-2.4552e-05
6.45162e-06
-2.4552e-05
1.17735e-05
-2.17627e-05
3.13316e-06
-1.99707e-06
1.16611e-06
1.10938e-06
2.4854e-07
1.06416e-06
-3.02545e-07
9.63364e-07
2.77667e-07
1.23798e-06
2.37379e-07
1.09941e-06
-1.91071e-07
2.11429e-06
1.11209e-07
2.68869e-06
-9.61331e-08
2.44932e-06
8.04474e-08
2.82128e-06
3.39199e-08
2.81991e-06
1.88431e-07
3.13016e-06
5.67281e-07
3.36358e-06
6.49344e-07
3.0254e-06
7.22981e-07
2.81756e-06
8.50434e-07
2.67069e-06
9.81689e-07
2.43436e-06
1.04675e-06
2.06542e-06
1.01643e-06
1.63905e-06
9.398e-07
1.27997e-06
8.51162e-07
1.01309e-06
7.6482e-07
8.21133e-07
6.8527e-07
6.82432e-07
6.13205e-07
5.80415e-07
5.48029e-07
5.03805e-07
4.88808e-07
4.4513e-07
4.34605e-07
3.99417e-07
3.84586e-07
3.63304e-07
3.38038e-07
3.34473e-07
2.9436e-07
3.11295e-07
2.53046e-07
2.92607e-07
2.13666e-07
2.77564e-07
1.7585e-07
2.65546e-07
1.39274e-07
2.56098e-07
1.03653e-07
2.48884e-07
6.87259e-08
2.43665e-07
3.42512e-08
2.40272e-07
2.38601e-07
-3.71486e-08
2.7575e-07
-7.45294e-08
2.77653e-07
-1.1238e-07
2.81516e-07
-1.50951e-07
2.87454e-07
-1.90507e-07
2.95654e-07
-2.3134e-07
3.0638e-07
-2.73775e-07
3.19999e-07
-3.18175e-07
3.37008e-07
-3.64956e-07
3.58076e-07
-4.14593e-07
3.8411e-07
-4.67629e-07
4.1634e-07
-5.24673e-07
4.56461e-07
-5.86377e-07
5.06835e-07
-6.53366e-07
5.70794e-07
-7.26038e-07
6.53087e-07
-8.04091e-07
7.60486e-07
-8.85439e-07
9.02481e-07
-9.63869e-07
1.09152e-06
-1.0248e-06
1.3409e-06
-1.04118e-06
1.65543e-06
-9.84219e-07
2.00846e-06
-8.73514e-07
2.32366e-06
-7.56151e-07
2.55332e-06
-6.60097e-07
2.72151e-06
-5.37399e-07
2.9027e-06
-2.65213e-07
3.0914e-06
-1.15005e-07
2.97995e-06
-8.7894e-08
2.7928e-06
1.21627e-08
2.72122e-06
-6.19485e-08
2.52343e-06
6.55278e-08
2.56121e-06
-1.35579e-07
2.3154e-06
-1.28632e-07
1.09246e-06
-1.67966e-08
1.12614e-06
-1.44089e-07
1.09066e-06
-2.08431e-07
1.1285e-06
-2.94369e-07
1.19531e-06
-1.80293e-06
-4.88506e-07
-3.34501e-06
-2.02206e-05
3.26976e-17
-2.7897e-05
3.34501e-06
-2.7897e-05
1.80293e-06
-2.02206e-05
2.94369e-07
-4.88506e-07
2.08431e-07
1.19531e-06
1.44089e-07
1.1285e-06
1.67966e-08
1.09066e-06
1.28632e-07
1.12614e-06
1.35579e-07
1.09246e-06
-6.55278e-08
2.3154e-06
6.19485e-08
2.56121e-06
-1.21627e-08
2.52343e-06
8.7894e-08
2.72122e-06
1.15005e-07
2.7928e-06
2.65213e-07
2.97995e-06
5.37399e-07
3.0914e-06
6.60097e-07
2.9027e-06
7.56151e-07
2.72151e-06
8.73514e-07
2.55332e-06
9.84219e-07
2.32366e-06
1.04118e-06
2.00846e-06
1.0248e-06
1.65543e-06
9.63869e-07
1.3409e-06
8.85439e-07
1.09152e-06
8.04091e-07
9.02481e-07
7.26038e-07
7.60486e-07
6.53366e-07
6.53087e-07
5.86377e-07
5.70794e-07
5.24673e-07
5.06835e-07
4.67629e-07
4.56461e-07
4.14593e-07
4.1634e-07
3.64956e-07
3.8411e-07
3.18175e-07
3.58076e-07
2.73775e-07
3.37008e-07
2.3134e-07
3.19999e-07
1.90507e-07
3.0638e-07
1.50951e-07
2.95654e-07
1.1238e-07
2.87454e-07
7.45294e-08
2.81516e-07
3.71486e-08
2.77653e-07
2.7575e-07
-4.01713e-08
3.15921e-07
-8.05804e-08
3.18062e-07
-1.2147e-07
3.22405e-07
-1.63093e-07
3.29077e-07
-2.05717e-07
3.38278e-07
-2.49631e-07
3.50294e-07
-2.95152e-07
3.65519e-07
-3.42626e-07
3.84482e-07
-3.92439e-07
4.07889e-07
-4.45013e-07
4.36684e-07
-5.00803e-07
4.7213e-07
-5.60277e-07
5.15935e-07
-6.23858e-07
5.70416e-07
-6.91802e-07
6.38738e-07
-7.63935e-07
7.2522e-07
-8.39109e-07
8.3566e-07
-9.14142e-07
9.77514e-07
-9.8196e-07
1.15934e-06
-1.02913e-06
1.38807e-06
-1.03548e-06
1.66177e-06
-9.84426e-07
1.95741e-06
-8.88805e-07
2.22804e-06
-7.78626e-07
2.44314e-06
-6.69347e-07
2.61223e-06
-5.32505e-07
2.76586e-06
-3.24515e-07
2.88341e-06
-1.82601e-07
2.83804e-06
-1.17999e-07
2.7282e-06
-4.63314e-08
2.64956e-06
-5.65478e-08
2.53365e-06
-2.28647e-09
2.50695e-06
-8.91217e-08
2.40224e-06
-8.96479e-08
1.09299e-06
-7.26199e-08
1.10911e-06
-1.00243e-07
1.11828e-06
-1.16884e-07
1.14514e-06
-1.07737e-07
1.18617e-06
-2.87486e-07
-3.08758e-07
-8.80172e-07
-1.96279e-05
1.85722e-17
-2.87771e-05
8.80172e-07
-2.87771e-05
2.87486e-07
-1.96279e-05
1.07737e-07
-3.08758e-07
1.16884e-07
1.18617e-06
1.00243e-07
1.14514e-06
7.26199e-08
1.11828e-06
8.96479e-08
1.10911e-06
8.91217e-08
1.09299e-06
2.28647e-09
2.40224e-06
5.65478e-08
2.50695e-06
4.63314e-08
2.53365e-06
1.17999e-07
2.64956e-06
1.82601e-07
2.7282e-06
3.24515e-07
2.83804e-06
5.32505e-07
2.88341e-06
6.69347e-07
2.76586e-06
7.78626e-07
2.61223e-06
8.88805e-07
2.44314e-06
9.84426e-07
2.22804e-06
1.03548e-06
1.95741e-06
1.02913e-06
1.66177e-06
9.8196e-07
1.38807e-06
9.14142e-07
1.15934e-06
8.39109e-07
9.77514e-07
7.63935e-07
8.3566e-07
6.91802e-07
7.2522e-07
6.23858e-07
6.38738e-07
5.60277e-07
5.70416e-07
5.00803e-07
5.15935e-07
4.45013e-07
4.7213e-07
3.92439e-07
4.36684e-07
3.42626e-07
4.07889e-07
2.95152e-07
3.84482e-07
2.49631e-07
3.65519e-07
2.05717e-07
3.50294e-07
1.63093e-07
3.38278e-07
1.2147e-07
3.29077e-07
8.05804e-08
3.22405e-07
4.01713e-08
3.18062e-07
3.15921e-07
-4.32839e-08
3.59205e-07
-8.68063e-08
3.61584e-07
-1.3081e-07
3.66409e-07
-1.75545e-07
3.73812e-07
-2.21274e-07
3.84007e-07
-2.68276e-07
3.97296e-07
-3.16848e-07
4.1409e-07
-3.67306e-07
4.3494e-07
-4.19986e-07
4.6057e-07
-4.75236e-07
4.91934e-07
-5.33395e-07
5.30289e-07
-5.94753e-07
5.77292e-07
-6.59466e-07
6.35129e-07
-7.27398e-07
7.06671e-07
-7.9782e-07
7.95642e-07
-8.68871e-07
9.0671e-07
-9.36663e-07
1.04531e-06
-9.94022e-07
1.21669e-06
-1.02944e-06
1.42349e-06
-1.02844e-06
1.66078e-06
-9.8152e-07
1.91048e-06
-8.96794e-07
2.14331e-06
-7.92648e-07
2.339e-06
-6.78399e-07
2.49798e-06
-5.41401e-07
2.62886e-06
-3.72404e-07
2.71441e-06
-2.40144e-07
2.70578e-06
-1.57967e-07
2.64602e-06
-9.28854e-08
2.58448e-06
-7.17115e-08
2.51247e-06
-4.05136e-08
2.47576e-06
-6.9112e-08
2.43083e-06
-6.8699e-08
1.09258e-06
-6.28112e-08
1.10323e-06
-6.05939e-08
1.11606e-06
-5.02259e-08
1.13477e-06
-2.24541e-08
1.15839e-06
-7.0643e-08
-2.60569e-07
-4.08934e-07
-1.92896e-05
2.07565e-17
-2.91861e-05
4.08934e-07
-2.91861e-05
7.0643e-08
-1.92896e-05
2.24541e-08
-2.60569e-07
5.02259e-08
1.15839e-06
6.05939e-08
1.13477e-06
6.28112e-08
1.11606e-06
6.8699e-08
1.10323e-06
6.9112e-08
1.09258e-06
4.05136e-08
2.43083e-06
7.17115e-08
2.47576e-06
9.28854e-08
2.51247e-06
1.57967e-07
2.58448e-06
2.40144e-07
2.64602e-06
3.72404e-07
2.70578e-06
5.41401e-07
2.71441e-06
6.78399e-07
2.62886e-06
7.92648e-07
2.49798e-06
8.96794e-07
2.339e-06
9.8152e-07
2.14331e-06
1.02844e-06
1.91048e-06
1.02944e-06
1.66078e-06
9.94022e-07
1.42349e-06
9.36663e-07
1.21669e-06
8.68871e-07
1.04531e-06
7.9782e-07
9.0671e-07
7.27398e-07
7.95642e-07
6.59466e-07
7.06671e-07
5.94753e-07
6.35129e-07
5.33395e-07
5.77292e-07
4.75236e-07
5.30289e-07
4.19986e-07
4.91934e-07
3.67306e-07
4.6057e-07
3.16848e-07
4.3494e-07
2.68276e-07
4.1409e-07
2.21274e-07
3.97296e-07
1.75545e-07
3.84007e-07
1.3081e-07
3.73812e-07
8.68063e-08
3.66409e-07
4.32839e-08
3.61584e-07
3.59205e-07
-4.64359e-08
4.05641e-07
-9.31049e-08
4.08253e-07
-1.40243e-07
4.13546e-07
-1.88091e-07
4.2166e-07
-2.36897e-07
4.32814e-07
-2.86919e-07
4.47318e-07
-3.38423e-07
4.65594e-07
-3.91679e-07
4.88196e-07
-4.46957e-07
5.15847e-07
-5.04504e-07
5.49481e-07
-5.64518e-07
5.90303e-07
-6.27087e-07
6.3986e-07
-6.92081e-07
7.00123e-07
-7.58981e-07
7.73571e-07
-8.26574e-07
8.63235e-07
-8.92486e-07
9.72622e-07
-9.52523e-07
1.10534e-06
-9.99978e-07
1.26415e-06
-1.02551e-06
1.44901e-06
-1.019e-06
1.65427e-06
-9.74898e-07
1.86639e-06
-8.98184e-07
2.0666e-06
-7.99981e-07
2.24079e-06
-6.86939e-07
2.38494e-06
-5.5647e-07
2.49839e-06
-4.12232e-07
2.57017e-06
-2.89486e-07
2.58303e-06
-2.00135e-07
2.55667e-06
-1.33317e-07
2.51766e-06
-9.46869e-08
2.47384e-06
-6.40498e-08
2.44512e-06
-5.92015e-08
2.42599e-06
-5.18079e-08
1.08518e-06
-4.05205e-08
1.09194e-06
-2.51022e-08
1.10064e-06
-1.42135e-09
1.11109e-06
3.55064e-08
1.12147e-06
1.95693e-08
-2.44632e-07
-2.65565e-07
-1.90045e-05
7.998e-18
-2.94516e-05
2.65565e-07
-2.94516e-05
-1.95693e-08
-1.90045e-05
-3.55064e-08
-2.44632e-07
1.42135e-09
1.12147e-06
2.51022e-08
1.11109e-06
4.05205e-08
1.10064e-06
5.18079e-08
1.09194e-06
5.92015e-08
1.08518e-06
6.40498e-08
2.42599e-06
9.46869e-08
2.44512e-06
1.33317e-07
2.47384e-06
2.00135e-07
2.51766e-06
2.89486e-07
2.55667e-06
4.12232e-07
2.58303e-06
5.5647e-07
2.57017e-06
6.86939e-07
2.49839e-06
7.99981e-07
2.38494e-06
8.98184e-07
2.24079e-06
9.74898e-07
2.0666e-06
1.019e-06
1.86639e-06
1.02551e-06
1.65427e-06
9.99978e-07
1.44901e-06
9.52523e-07
1.26415e-06
8.92486e-07
1.10534e-06
8.26574e-07
9.72622e-07
7.58981e-07
8.63235e-07
6.92081e-07
7.73571e-07
6.27087e-07
7.00123e-07
5.64518e-07
6.3986e-07
5.04504e-07
5.90303e-07
4.46957e-07
5.49481e-07
3.91679e-07
5.15847e-07
3.38423e-07
4.88196e-07
2.86919e-07
4.65594e-07
2.36897e-07
4.47318e-07
1.88091e-07
4.32814e-07
1.40243e-07
4.2166e-07
9.31049e-08
4.13546e-07
4.64359e-08
4.08253e-07
4.05641e-07
-4.95598e-08
4.552e-07
-9.93394e-08
4.58033e-07
-1.4956e-07
4.63767e-07
-2.00444e-07
4.72544e-07
-2.52216e-07
4.84586e-07
-3.051e-07
5.00203e-07
-3.59319e-07
5.19812e-07
-4.1508e-07
5.43957e-07
-4.72566e-07
5.73334e-07
-5.3191e-07
6.08825e-07
-5.93147e-07
6.51541e-07
-6.5615e-07
7.02863e-07
-7.20512e-07
7.64485e-07
-7.85372e-07
8.38431e-07
-8.49149e-07
9.27013e-07
-9.09186e-07
1.03266e-06
-9.61334e-07
1.15749e-06
-9.99697e-07
1.30251e-06
-1.01699e-06
1.4663e-06
-1.00624e-06
1.64352e-06
-9.64128e-07
1.82427e-06
-8.9365e-07
1.99612e-06
-8.01725e-07
2.14887e-06
-6.93857e-07
2.27707e-06
-5.72646e-07
2.37718e-06
-4.45392e-07
2.44292e-06
-3.3136e-07
2.469e-06
-2.40007e-07
2.46532e-06
-1.69239e-07
2.44689e-06
-1.18944e-07
2.42355e-06
-8.03007e-08
2.40648e-06
-5.35337e-08
2.39922e-06
-3.88559e-08
1.0705e-06
-2.1296e-08
1.07438e-06
2.51544e-10
1.0791e-06
2.73358e-08
1.08401e-06
6.11714e-08
1.08763e-06
3.94826e-08
-2.22943e-07
-2.17441e-07
-1.87476e-05
6.82557e-18
-2.96691e-05
2.17441e-07
-2.96691e-05
-3.94826e-08
-1.87476e-05
-6.11714e-08
-2.22943e-07
-2.73358e-08
1.08763e-06
-2.51544e-10
1.08401e-06
2.1296e-08
1.0791e-06
3.88559e-08
1.07438e-06
5.35337e-08
1.0705e-06
8.03007e-08
2.39922e-06
1.18944e-07
2.40648e-06
1.69239e-07
2.42355e-06
2.40007e-07
2.44689e-06
3.3136e-07
2.46532e-06
4.45392e-07
2.469e-06
5.72646e-07
2.44292e-06
6.93857e-07
2.37718e-06
8.01725e-07
2.27707e-06
8.9365e-07
2.14887e-06
9.64128e-07
1.99612e-06
1.00624e-06
1.82427e-06
1.01699e-06
1.64352e-06
9.99697e-07
1.4663e-06
9.61334e-07
1.30251e-06
9.09186e-07
1.15749e-06
8.49149e-07
1.03266e-06
7.85372e-07
9.27013e-07
7.20512e-07
8.38431e-07
6.5615e-07
7.64485e-07
5.93147e-07
7.02863e-07
5.3191e-07
6.51541e-07
4.72566e-07
6.08825e-07
4.1508e-07
5.73334e-07
3.59319e-07
5.43957e-07
3.051e-07
5.19812e-07
2.52216e-07
5.00203e-07
2.00444e-07
4.84586e-07
1.4956e-07
4.72544e-07
9.93394e-08
4.63767e-07
4.95598e-08
4.58033e-07
4.552e-07
-5.25686e-08
5.07769e-07
-1.05335e-07
5.10799e-07
-1.58494e-07
5.16927e-07
-2.12242e-07
5.26292e-07
-2.66768e-07
5.39111e-07
-3.2225e-07
5.55685e-07
-3.78852e-07