/*--------------------------------*- C++ -*----------------------------------*\
  =========                 |
  \\      /  F ield         | OpenFOAM: The Open Source CFD Toolbox
   \\    /   O peration     | Website:  https://openfoam.org
    \\  /    A nd           | Version:  10
     \\/     M anipulation  |
\*---------------------------------------------------------------------------*/
FoamFile
{
    format      ascii;
    class       volScalarField;
    location    "1.4";
    object      p;
}
// * * * * * * * * * * * * * * * * * * * * * * * * * * * * * * * * * * * * * //

dimensions      [1 -1 -2 0 0 0 0];

internalField   nonuniform List<scalar> 
12225
(
1.16102e+07
1.16102e+07
1.16103e+07
1.16104e+07
1.16105e+07
1.16108e+07
1.16112e+07
1.16119e+07
1.16128e+07
1.16141e+07
1.1616e+07
1.16184e+07
1.16217e+07
1.16259e+07
1.16313e+07
1.16381e+07
1.16467e+07
1.1658e+07
1.16102e+07
1.16102e+07
1.16103e+07
1.16104e+07
1.16105e+07
1.16108e+07
1.16112e+07
1.16119e+07
1.16128e+07
1.16141e+07
1.16159e+07
1.16183e+07
1.16216e+07
1.16258e+07
1.16311e+07
1.16378e+07
1.16462e+07
1.16568e+07
1.16102e+07
1.16102e+07
1.16102e+07
1.16103e+07
1.16105e+07
1.16108e+07
1.16112e+07
1.16118e+07
1.16127e+07
1.1614e+07
1.16157e+07
1.16181e+07
1.16213e+07
1.16254e+07
1.16306e+07
1.16371e+07
1.16452e+07
1.16549e+07
1.16102e+07
1.16102e+07
1.16102e+07
1.16103e+07
1.16105e+07
1.16107e+07
1.16111e+07
1.16117e+07
1.16126e+07
1.16138e+07
1.16155e+07
1.16178e+07
1.16208e+07
1.16248e+07
1.16298e+07
1.16361e+07
1.16437e+07
1.16526e+07
1.16102e+07
1.16102e+07
1.16102e+07
1.16103e+07
1.16104e+07
1.16107e+07
1.1611e+07
1.16116e+07
1.16124e+07
1.16135e+07
1.16151e+07
1.16173e+07
1.16202e+07
1.16239e+07
1.16287e+07
1.16346e+07
1.16417e+07
1.16498e+07
1.16101e+07
1.16102e+07
1.16102e+07
1.16103e+07
1.16104e+07
1.16106e+07
1.16109e+07
1.16114e+07
1.16121e+07
1.16131e+07
1.16146e+07
1.16166e+07
1.16192e+07
1.16227e+07
1.16272e+07
1.16327e+07
1.16393e+07
1.16467e+07
1.16101e+07
1.16101e+07
1.16102e+07
1.16102e+07
1.16103e+07
1.16105e+07
1.16108e+07
1.16112e+07
1.16118e+07
1.16127e+07
1.16139e+07
1.16157e+07
1.1618e+07
1.16212e+07
1.16252e+07
1.16302e+07
1.16363e+07
1.16431e+07
1.16101e+07
1.16101e+07
1.16101e+07
1.16102e+07
1.16102e+07
1.16104e+07
1.16106e+07
1.16109e+07
1.16114e+07
1.16121e+07
1.16131e+07
1.16145e+07
1.16165e+07
1.16192e+07
1.16227e+07
1.16272e+07
1.16327e+07
1.1639e+07
1.16101e+07
1.16101e+07
1.16101e+07
1.16101e+07
1.16101e+07
1.16102e+07
1.16103e+07
1.16105e+07
1.16109e+07
1.16114e+07
1.16121e+07
1.16132e+07
1.16147e+07
1.16168e+07
1.16197e+07
1.16235e+07
1.16284e+07
1.16342e+07
1.16101e+07
1.16101e+07
1.16101e+07
1.161e+07
1.161e+07
1.16101e+07
1.16101e+07
1.16102e+07
1.16103e+07
1.16105e+07
1.16109e+07
1.16115e+07
1.16125e+07
1.16139e+07
1.16161e+07
1.16191e+07
1.16232e+07
1.16285e+07
1.16101e+07
1.161e+07
1.161e+07
1.161e+07
1.16099e+07
1.16099e+07
1.16098e+07
1.16097e+07
1.16096e+07
1.16096e+07
1.16096e+07
1.16096e+07
1.16099e+07
1.16105e+07
1.16117e+07
1.16137e+07
1.16169e+07
1.16216e+07
1.161e+07
1.161e+07
1.161e+07
1.16099e+07
1.16098e+07
1.16097e+07
1.16095e+07
1.16093e+07
1.1609e+07
1.16086e+07
1.16082e+07
1.16077e+07
1.16072e+07
1.16069e+07
1.16069e+07
1.16077e+07
1.16098e+07
1.16138e+07
1.161e+07
1.161e+07
1.16099e+07
1.16098e+07
1.16097e+07
1.16095e+07
1.16092e+07
1.16089e+07
1.16084e+07
1.16077e+07
1.16068e+07
1.16057e+07
1.16043e+07
1.16029e+07
1.16016e+07
1.16008e+07
1.16013e+07
1.16042e+07
1.161e+07
1.161e+07
1.16099e+07
1.16098e+07
1.16096e+07
1.16093e+07
1.16089e+07
1.16084e+07
1.16076e+07
1.16066e+07
1.16052e+07
1.16033e+07
1.1601e+07
1.1598e+07
1.15947e+07
1.15913e+07
1.1589e+07
1.15895e+07
1.161e+07
1.161e+07
1.16099e+07
1.16097e+07
1.16095e+07
1.16092e+07
1.16087e+07
1.1608e+07
1.1607e+07
1.16056e+07
1.16036e+07
1.1601e+07
1.15974e+07
1.15926e+07
1.15864e+07
1.15788e+07
1.15705e+07
1.15644e+07
1.161e+07
1.161e+07
1.16099e+07
1.16097e+07
1.16094e+07
1.16091e+07
1.16085e+07
1.16077e+07
1.16066e+07
1.16049e+07
1.16026e+07
1.15993e+07
1.15947e+07
1.15882e+07
1.15789e+07
1.15653e+07
1.15446e+07
1.15117e+07
2.37033e+07
2.36084e+07
2.35343e+07
2.34684e+07
2.34061e+07
2.33452e+07
2.32851e+07
2.32252e+07
2.31652e+07
2.31049e+07
2.3044e+07
2.2982e+07
2.29186e+07
2.28533e+07
2.27856e+07
2.27145e+07
2.26389e+07
2.25572e+07
2.36399e+07
2.35882e+07
2.35277e+07
2.34671e+07
2.34079e+07
2.33501e+07
2.3293e+07
2.32364e+07
2.31801e+07
2.31239e+07
2.3068e+07
2.30122e+07
2.29569e+07
2.29022e+07
2.28488e+07
2.27978e+07
2.2751e+07
2.27119e+07
2.35616e+07
2.35345e+07
2.34938e+07
2.3447e+07
2.33975e+07
2.33469e+07
2.3296e+07
2.32452e+07
2.31947e+07
2.3145e+07
2.30961e+07
2.30485e+07
2.30026e+07
2.29588e+07
2.29179e+07
2.28805e+07
2.28475e+07
2.28196e+07
2.35086e+07
2.34906e+07
2.34607e+07
2.34236e+07
2.33823e+07
2.33387e+07
2.3294e+07
2.3249e+07
2.32043e+07
2.31604e+07
2.31175e+07
2.30763e+07
2.3037e+07
2.3e+07
2.29658e+07
2.29348e+07
2.29072e+07
2.28831e+07
2.34757e+07
2.34617e+07
2.34373e+07
2.34059e+07
2.33699e+07
2.33312e+07
2.3291e+07
2.32502e+07
2.32095e+07
2.31696e+07
2.31308e+07
2.30936e+07
2.30583e+07
2.30252e+07
2.29946e+07
2.29667e+07
2.29417e+07
2.29194e+07
2.34528e+07
2.3441e+07
2.34199e+07
2.33922e+07
2.33599e+07
2.33247e+07
2.32878e+07
2.32502e+07
2.32126e+07
2.31756e+07
2.31397e+07
2.31052e+07
2.30726e+07
2.30421e+07
2.30137e+07
2.29878e+07
2.29643e+07
2.29432e+07
2.34367e+07
2.34262e+07
2.34072e+07
2.3382e+07
2.33522e+07
2.33195e+07
2.3285e+07
2.32497e+07
2.32143e+07
2.31794e+07
2.31455e+07
2.31131e+07
2.30823e+07
2.30534e+07
2.30265e+07
2.30019e+07
2.29793e+07
2.2959e+07
2.34254e+07
2.34157e+07
2.33981e+07
2.33745e+07
2.33465e+07
2.33155e+07
2.32827e+07
2.3249e+07
2.32152e+07
2.31818e+07
2.31494e+07
2.31183e+07
2.30887e+07
2.3061e+07
2.30351e+07
2.30112e+07
2.29894e+07
2.29695e+07
2.34175e+07
2.34084e+07
2.33918e+07
2.33693e+07
2.33424e+07
2.33127e+07
2.3281e+07
2.32484e+07
2.32157e+07
2.31834e+07
2.31519e+07
2.31217e+07
2.3093e+07
2.3066e+07
2.30408e+07
2.30175e+07
2.29961e+07
2.29765e+07
2.34122e+07
2.34035e+07
2.33874e+07
2.33656e+07
2.33396e+07
2.33106e+07
2.32798e+07
2.3248e+07
2.3216e+07
2.31844e+07
2.31536e+07
2.3124e+07
2.30959e+07
2.30694e+07
2.30446e+07
2.30216e+07
2.30005e+07
2.29811e+07
2.34088e+07
2.34003e+07
2.33846e+07
2.33633e+07
2.33377e+07
2.33093e+07
2.32789e+07
2.32476e+07
2.32161e+07
2.3185e+07
2.31546e+07
2.31255e+07
2.30977e+07
2.30715e+07
2.30471e+07
2.30243e+07
2.30033e+07
2.2984e+07
2.34067e+07
2.33983e+07
2.33828e+07
2.33618e+07
2.33366e+07
2.33084e+07
2.32784e+07
2.32474e+07
2.32162e+07
2.31854e+07
2.31553e+07
2.31264e+07
2.30989e+07
2.30729e+07
2.30486e+07
2.3026e+07
2.30051e+07
2.29858e+07
2.34056e+07
2.33973e+07
2.33819e+07
2.3361e+07
2.3336e+07
2.3308e+07
2.32782e+07
2.32473e+07
2.32163e+07
2.31856e+07
2.31557e+07
2.31269e+07
2.30995e+07
2.30736e+07
2.30494e+07
2.30269e+07
2.30061e+07
2.29869e+07
2.34052e+07
2.33969e+07
2.33816e+07
2.33608e+07
2.33358e+07
2.33079e+07
2.32781e+07
2.32473e+07
2.32163e+07
2.31857e+07
2.31558e+07
2.31271e+07
2.30998e+07
2.30739e+07
2.30498e+07
2.30273e+07
2.30065e+07
2.29873e+07
1.1777e+07
1.1777e+07
1.17771e+07
1.17773e+07
1.17774e+07
1.17777e+07
1.1778e+07
1.17783e+07
1.17787e+07
1.17792e+07
1.17797e+07
1.17803e+07
1.17809e+07
1.17815e+07
1.17823e+07
1.1783e+07
1.17839e+07
1.17847e+07
1.17857e+07
1.17866e+07
1.17877e+07
1.17887e+07
1.17899e+07
1.1791e+07
1.17922e+07
1.17935e+07
1.17948e+07
1.17961e+07
1.17975e+07
1.17989e+07
1.18003e+07
1.18018e+07
1.18033e+07
1.18048e+07
1.18064e+07
1.1808e+07
1.18096e+07
1.18112e+07
1.18129e+07
1.18146e+07
1.18162e+07
1.18179e+07
1.18197e+07
1.18214e+07
1.18231e+07
1.18249e+07
1.18266e+07
1.18284e+07
1.18301e+07
1.18319e+07
1.18336e+07
1.18353e+07
1.18371e+07
1.18388e+07
1.18405e+07
1.18423e+07
1.1844e+07
1.18457e+07
1.18473e+07
1.1849e+07
1.18507e+07
1.18523e+07
1.18539e+07
1.18555e+07
1.18571e+07
1.18587e+07
1.18602e+07
1.18617e+07
1.18632e+07
1.18647e+07
1.18662e+07
1.18676e+07
1.1869e+07
1.18704e+07
1.18717e+07
1.1873e+07
1.18743e+07
1.18756e+07
1.18768e+07
1.1878e+07
1.18792e+07
1.18804e+07
1.18815e+07
1.18826e+07
1.18837e+07
1.18847e+07
1.18857e+07
1.18867e+07
1.18876e+07
1.18886e+07
1.18895e+07
1.18903e+07
1.18911e+07
1.18919e+07
1.18927e+07
1.18934e+07
1.18941e+07
1.18948e+07
1.18954e+07
1.1896e+07
1.18966e+07
1.18972e+07
1.18977e+07
1.18981e+07
1.18986e+07
1.1899e+07
1.18994e+07
1.18997e+07
1.19e+07
1.19003e+07
1.19005e+07
1.19007e+07
1.19009e+07
1.19011e+07
1.19012e+07
1.19012e+07
1.19012e+07
1.19012e+07
1.19012e+07
1.19011e+07
1.1901e+07
1.19008e+07
1.19006e+07
1.19004e+07
1.19001e+07
1.18998e+07
1.18994e+07
1.1899e+07
1.18985e+07
1.1898e+07
1.18975e+07
1.18969e+07
1.18962e+07
1.18956e+07
1.18948e+07
1.18941e+07
1.18933e+07
1.18924e+07
1.18915e+07
1.18905e+07
1.18895e+07
1.18885e+07
1.18874e+07
1.18862e+07
1.1885e+07
1.18838e+07
1.18825e+07
1.18811e+07
1.18797e+07
1.18782e+07
1.18767e+07
1.1875e+07
1.18733e+07
1.18715e+07
1.18696e+07
1.18676e+07
1.18654e+07
1.18631e+07
1.18606e+07
1.18579e+07
1.18549e+07
1.18517e+07
1.18481e+07
1.18441e+07
1.18397e+07
1.18348e+07
1.18294e+07
1.18232e+07
1.18163e+07
1.18086e+07
1.17999e+07
1.17901e+07
1.17792e+07
1.1767e+07
1.17534e+07
1.17382e+07
1.17216e+07
1.17033e+07
1.16834e+07
1.1662e+07
1.17767e+07
1.17768e+07
1.17769e+07
1.1777e+07
1.17772e+07
1.17775e+07
1.17778e+07
1.17781e+07
1.17785e+07
1.1779e+07
1.17795e+07
1.17801e+07
1.17807e+07
1.17814e+07
1.17821e+07
1.17829e+07
1.17837e+07
1.17846e+07
1.17855e+07
1.17865e+07
1.17875e+07
1.17886e+07
1.17897e+07
1.17909e+07
1.17921e+07
1.17934e+07
1.17947e+07
1.1796e+07
1.17974e+07
1.17988e+07
1.18002e+07
1.18017e+07
1.18032e+07
1.18048e+07
1.18064e+07
1.18079e+07
1.18096e+07
1.18112e+07
1.18129e+07
1.18145e+07
1.18162e+07
1.18179e+07
1.18197e+07
1.18214e+07
1.18231e+07
1.18249e+07
1.18266e+07
1.18284e+07
1.18301e+07
1.18319e+07
1.18336e+07
1.18354e+07
1.18371e+07
1.18388e+07
1.18406e+07
1.18423e+07
1.1844e+07
1.18457e+07
1.18474e+07
1.18491e+07
1.18507e+07
1.18523e+07
1.1854e+07
1.18556e+07
1.18572e+07
1.18587e+07
1.18603e+07
1.18618e+07
1.18633e+07
1.18647e+07
1.18662e+07
1.18676e+07
1.1869e+07
1.18704e+07
1.18717e+07
1.18731e+07
1.18744e+07
1.18756e+07
1.18769e+07
1.18781e+07
1.18793e+07
1.18804e+07
1.18815e+07
1.18826e+07
1.18837e+07
1.18847e+07
1.18858e+07
1.18867e+07
1.18877e+07
1.18886e+07
1.18895e+07
1.18903e+07
1.18912e+07
1.1892e+07
1.18927e+07
1.18934e+07
1.18941e+07
1.18948e+07
1.18955e+07
1.18961e+07
1.18966e+07
1.18972e+07
1.18977e+07
1.18982e+07
1.18986e+07
1.1899e+07
1.18994e+07
1.18997e+07
1.19e+07
1.19003e+07
1.19006e+07
1.19008e+07
1.19009e+07
1.19011e+07
1.19012e+07
1.19012e+07
1.19013e+07
1.19013e+07
1.19012e+07
1.19011e+07
1.1901e+07
1.19008e+07
1.19006e+07
1.19004e+07
1.19001e+07
1.18998e+07
1.18994e+07
1.1899e+07
1.18985e+07
1.1898e+07
1.18975e+07
1.18969e+07
1.18963e+07
1.18956e+07
1.18949e+07
1.18941e+07
1.18933e+07
1.18924e+07
1.18915e+07
1.18905e+07
1.18895e+07
1.18885e+07
1.18874e+07
1.18862e+07
1.1885e+07
1.18838e+07
1.18825e+07
1.18811e+07
1.18797e+07
1.18782e+07
1.18767e+07
1.18751e+07
1.18734e+07
1.18716e+07
1.18697e+07
1.18676e+07
1.18655e+07
1.18631e+07
1.18606e+07
1.18579e+07
1.1855e+07
1.18517e+07
1.18482e+07
1.18442e+07
1.18399e+07
1.1835e+07
1.18295e+07
1.18234e+07
1.18165e+07
1.18088e+07
1.18001e+07
1.17904e+07
1.17795e+07
1.17673e+07
1.17536e+07
1.17385e+07
1.17219e+07
1.17035e+07
1.16836e+07
1.16622e+07
1.17763e+07
1.17763e+07
1.17764e+07
1.17766e+07
1.17768e+07
1.1777e+07
1.17774e+07
1.17777e+07
1.17781e+07
1.17786e+07
1.17791e+07
1.17797e+07
1.17803e+07
1.1781e+07
1.17817e+07
1.17825e+07
1.17834e+07
1.17843e+07
1.17852e+07
1.17862e+07
1.17872e+07
1.17883e+07
1.17895e+07
1.17907e+07
1.17919e+07
1.17932e+07
1.17945e+07
1.17958e+07
1.17972e+07
1.17987e+07
1.18001e+07
1.18016e+07
1.18031e+07
1.18047e+07
1.18063e+07
1.18079e+07
1.18095e+07
1.18112e+07
1.18128e+07
1.18145e+07
1.18162e+07
1.18179e+07
1.18197e+07
1.18214e+07
1.18231e+07
1.18249e+07
1.18266e+07
1.18284e+07
1.18302e+07
1.18319e+07
1.18337e+07
1.18354e+07
1.18372e+07
1.18389e+07
1.18406e+07
1.18424e+07
1.18441e+07
1.18458e+07
1.18475e+07
1.18491e+07
1.18508e+07
1.18524e+07
1.18541e+07
1.18557e+07
1.18572e+07
1.18588e+07
1.18603e+07
1.18619e+07
1.18634e+07
1.18648e+07
1.18663e+07
1.18677e+07
1.18691e+07
1.18705e+07
1.18718e+07
1.18732e+07
1.18744e+07
1.18757e+07
1.1877e+07
1.18782e+07
1.18793e+07
1.18805e+07
1.18816e+07
1.18827e+07
1.18838e+07
1.18848e+07
1.18858e+07
1.18868e+07
1.18877e+07
1.18887e+07
1.18895e+07
1.18904e+07
1.18912e+07
1.1892e+07
1.18928e+07
1.18935e+07
1.18942e+07
1.18949e+07
1.18955e+07
1.18961e+07
1.18967e+07
1.18972e+07
1.18977e+07
1.18982e+07
1.18986e+07
1.18991e+07
1.18994e+07
1.18998e+07
1.19001e+07
1.19004e+07
1.19006e+07
1.19008e+07
1.1901e+07
1.19011e+07
1.19012e+07
1.19013e+07
1.19013e+07
1.19013e+07
1.19012e+07
1.19012e+07
1.1901e+07
1.19009e+07
1.19007e+07
1.19004e+07
1.19001e+07
1.18998e+07
1.18994e+07
1.1899e+07
1.18986e+07
1.18981e+07
1.18975e+07
1.18969e+07
1.18963e+07
1.18956e+07
1.18949e+07
1.18941e+07
1.18933e+07
1.18924e+07
1.18915e+07
1.18906e+07
1.18896e+07
1.18885e+07
1.18874e+07
1.18863e+07
1.18851e+07
1.18838e+07
1.18825e+07
1.18811e+07
1.18797e+07
1.18783e+07
1.18767e+07
1.18751e+07
1.18734e+07
1.18716e+07
1.18697e+07
1.18677e+07
1.18655e+07
1.18632e+07
1.18608e+07
1.18581e+07
1.18551e+07
1.18519e+07
1.18484e+07
1.18444e+07
1.18401e+07
1.18352e+07
1.18298e+07
1.18237e+07
1.18169e+07
1.18092e+07
1.18006e+07
1.17909e+07
1.178e+07
1.17678e+07
1.17542e+07
1.17392e+07
1.17225e+07
1.17041e+07
1.16841e+07
1.16625e+07
1.17756e+07
1.17757e+07
1.17758e+07
1.17759e+07
1.17761e+07
1.17764e+07
1.17767e+07
1.17771e+07
1.17775e+07
1.1778e+07
1.17785e+07
1.17791e+07
1.17798e+07
1.17805e+07
1.17812e+07
1.1782e+07
1.17829e+07
1.17838e+07
1.17848e+07
1.17858e+07
1.17868e+07
1.1788e+07
1.17891e+07
1.17903e+07
1.17916e+07
1.17929e+07
1.17942e+07
1.17956e+07
1.1797e+07
1.17984e+07
1.17999e+07
1.18014e+07
1.1803e+07
1.18046e+07
1.18062e+07
1.18078e+07
1.18094e+07
1.18111e+07
1.18128e+07
1.18145e+07
1.18162e+07
1.18179e+07
1.18197e+07
1.18214e+07
1.18232e+07
1.18249e+07
1.18267e+07
1.18285e+07
1.18302e+07
1.1832e+07
1.18338e+07
1.18355e+07
1.18373e+07
1.1839e+07
1.18408e+07
1.18425e+07
1.18442e+07
1.18459e+07
1.18476e+07
1.18493e+07
1.18509e+07
1.18526e+07
1.18542e+07
1.18558e+07
1.18574e+07
1.18589e+07
1.18605e+07
1.1862e+07
1.18635e+07
1.1865e+07
1.18664e+07
1.18679e+07
1.18693e+07
1.18706e+07
1.1872e+07
1.18733e+07
1.18746e+07
1.18758e+07
1.18771e+07
1.18783e+07
1.18795e+07
1.18806e+07
1.18817e+07
1.18828e+07
1.18839e+07
1.18849e+07
1.18859e+07
1.18869e+07
1.18879e+07
1.18888e+07
1.18896e+07
1.18905e+07
1.18913e+07
1.18921e+07
1.18929e+07
1.18936e+07
1.18943e+07
1.1895e+07
1.18956e+07
1.18962e+07
1.18968e+07
1.18973e+07
1.18978e+07
1.18983e+07
1.18987e+07
1.18991e+07
1.18995e+07
1.18998e+07
1.19002e+07
1.19004e+07
1.19007e+07
1.19009e+07
1.1901e+07
1.19012e+07
1.19013e+07
1.19013e+07
1.19014e+07
1.19013e+07
1.19013e+07
1.19012e+07
1.19011e+07
1.19009e+07
1.19007e+07
1.19005e+07
1.19002e+07
1.18998e+07
1.18995e+07
1.18991e+07
1.18986e+07
1.18981e+07
1.18976e+07
1.1897e+07
1.18963e+07
1.18957e+07
1.18949e+07
1.18942e+07
1.18933e+07
1.18925e+07
1.18916e+07
1.18906e+07
1.18896e+07
1.18885e+07
1.18874e+07
1.18863e+07
1.18851e+07
1.18838e+07
1.18825e+07
1.18812e+07
1.18798e+07
1.18783e+07
1.18768e+07
1.18752e+07
1.18735e+07
1.18717e+07
1.18698e+07
1.18678e+07
1.18657e+07
1.18634e+07
1.18609e+07
1.18582e+07
1.18553e+07
1.18521e+07
1.18486e+07
1.18448e+07
1.18405e+07
1.18356e+07
1.18303e+07
1.18242e+07
1.18175e+07
1.18098e+07
1.18013e+07
1.17916e+07
1.17808e+07
1.17687e+07
1.17551e+07
1.17401e+07
1.17234e+07
1.1705e+07
1.1685e+07
1.16631e+07
1.17747e+07
1.17748e+07
1.17749e+07
1.17751e+07
1.17753e+07
1.17755e+07
1.17759e+07
1.17763e+07
1.17767e+07
1.17772e+07
1.17777e+07
1.17784e+07
1.1779e+07
1.17797e+07
1.17805e+07
1.17813e+07
1.17822e+07
1.17832e+07
1.17842e+07
1.17852e+07
1.17863e+07
1.17875e+07
1.17886e+07
1.17899e+07
1.17912e+07
1.17925e+07
1.17938e+07
1.17953e+07
1.17967e+07
1.17982e+07
1.17997e+07
1.18012e+07
1.18028e+07
1.18044e+07
1.1806e+07
1.18077e+07
1.18093e+07
1.1811e+07
1.18127e+07
1.18145e+07
1.18162e+07
1.18179e+07
1.18197e+07
1.18215e+07
1.18232e+07
1.1825e+07
1.18268e+07
1.18286e+07
1.18303e+07
1.18321e+07
1.18339e+07
1.18357e+07
1.18374e+07
1.18392e+07
1.18409e+07
1.18427e+07
1.18444e+07
1.18461e+07
1.18478e+07
1.18495e+07
1.18511e+07
1.18528e+07
1.18544e+07
1.1856e+07
1.18576e+07
1.18591e+07
1.18607e+07
1.18622e+07
1.18637e+07
1.18652e+07
1.18666e+07
1.1868e+07
1.18694e+07
1.18708e+07
1.18722e+07
1.18735e+07
1.18748e+07
1.1876e+07
1.18773e+07
1.18785e+07
1.18796e+07
1.18808e+07
1.18819e+07
1.1883e+07
1.18841e+07
1.18851e+07
1.18861e+07
1.18871e+07
1.1888e+07
1.18889e+07
1.18898e+07
1.18906e+07
1.18915e+07
1.18922e+07
1.1893e+07
1.18937e+07
1.18944e+07
1.18951e+07
1.18957e+07
1.18963e+07
1.18969e+07
1.18974e+07
1.18979e+07
1.18984e+07
1.18988e+07
1.18992e+07
1.18996e+07
1.18999e+07
1.19002e+07
1.19005e+07
1.19008e+07
1.1901e+07
1.19011e+07
1.19013e+07
1.19014e+07
1.19014e+07
1.19014e+07
1.19014e+07
1.19014e+07
1.19013e+07
1.19012e+07
1.1901e+07
1.19008e+07
1.19005e+07
1.19003e+07
1.18999e+07
1.18996e+07
1.18991e+07
1.18987e+07
1.18982e+07
1.18976e+07
1.1897e+07
1.18964e+07
1.18957e+07
1.1895e+07
1.18942e+07
1.18934e+07
1.18925e+07
1.18916e+07
1.18907e+07
1.18896e+07
1.18886e+07
1.18875e+07
1.18863e+07
1.18851e+07
1.18839e+07
1.18826e+07
1.18813e+07
1.18798e+07
1.18784e+07
1.18768e+07
1.18752e+07
1.18736e+07
1.18718e+07
1.18699e+07
1.18679e+07
1.18658e+07
1.18636e+07
1.18611e+07
1.18585e+07
1.18556e+07
1.18525e+07
1.1849e+07
1.18452e+07
1.18409e+07
1.18362e+07
1.18309e+07
1.18249e+07
1.18182e+07
1.18107e+07
1.18022e+07
1.17926e+07
1.17819e+07
1.17698e+07
1.17564e+07
1.17413e+07
1.17247e+07
1.17063e+07
1.16861e+07
1.16641e+07
1.17736e+07
1.17737e+07
1.17738e+07
1.1774e+07
1.17742e+07
1.17745e+07
1.17748e+07
1.17752e+07
1.17757e+07
1.17762e+07
1.17768e+07
1.17774e+07
1.17781e+07
1.17788e+07
1.17796e+07
1.17805e+07
1.17814e+07
1.17824e+07
1.17834e+07
1.17845e+07
1.17856e+07
1.17868e+07
1.1788e+07
1.17893e+07
1.17906e+07
1.1792e+07
1.17934e+07
1.17948e+07
1.17963e+07
1.17978e+07
1.17994e+07
1.1801e+07
1.18026e+07
1.18042e+07
1.18058e+07
1.18075e+07
1.18092e+07
1.18109e+07
1.18127e+07
1.18144e+07
1.18162e+07
1.18179e+07
1.18197e+07
1.18215e+07
1.18233e+07
1.18251e+07
1.18269e+07
1.18287e+07
1.18305e+07
1.18323e+07
1.18341e+07
1.18358e+07
1.18376e+07
1.18394e+07
1.18411e+07
1.18429e+07
1.18446e+07
1.18463e+07
1.1848e+07
1.18497e+07
1.18514e+07
1.1853e+07
1.18546e+07
1.18562e+07
1.18578e+07
1.18594e+07
1.18609e+07
1.18625e+07
1.18639e+07
1.18654e+07
1.18669e+07
1.18683e+07
1.18697e+07
1.1871e+07
1.18724e+07
1.18737e+07
1.1875e+07
1.18763e+07
1.18775e+07
1.18787e+07
1.18799e+07
1.1881e+07
1.18821e+07
1.18832e+07
1.18843e+07
1.18853e+07
1.18863e+07
1.18873e+07
1.18882e+07
1.18891e+07
1.189e+07
1.18908e+07
1.18916e+07
1.18924e+07
1.18932e+07
1.18939e+07
1.18946e+07
1.18952e+07
1.18959e+07
1.18965e+07
1.1897e+07
1.18976e+07
1.18981e+07
1.18985e+07
1.1899e+07
1.18994e+07
1.18997e+07
1.19001e+07
1.19004e+07
1.19006e+07
1.19009e+07
1.19011e+07
1.19012e+07
1.19014e+07
1.19015e+07
1.19015e+07
1.19016e+07
1.19015e+07
1.19015e+07
1.19014e+07
1.19013e+07
1.19011e+07
1.19009e+07
1.19006e+07
1.19004e+07
1.19e+07
1.18996e+07
1.18992e+07
1.18988e+07
1.18983e+07
1.18977e+07
1.18971e+07
1.18965e+07
1.18958e+07
1.18951e+07
1.18943e+07
1.18935e+07
1.18926e+07
1.18917e+07
1.18907e+07
1.18897e+07
1.18887e+07
1.18876e+07
1.18864e+07
1.18852e+07
1.1884e+07
1.18827e+07
1.18813e+07
1.18799e+07
1.18785e+07
1.18769e+07
1.18753e+07
1.18737e+07
1.18719e+07
1.18701e+07
1.18681e+07
1.1866e+07
1.18638e+07
1.18614e+07
1.18588e+07
1.1856e+07
1.18529e+07
1.18495e+07
1.18457e+07
1.18415e+07
1.18369e+07
1.18317e+07
1.18258e+07
1.18192e+07
1.18117e+07
1.18034e+07
1.17939e+07
1.17833e+07
1.17713e+07
1.17579e+07
1.17429e+07
1.17263e+07
1.17078e+07
1.16876e+07
1.16654e+07
1.17723e+07
1.17723e+07
1.17724e+07
1.17726e+07
1.17728e+07
1.17731e+07
1.17735e+07
1.17739e+07
1.17744e+07
1.1775e+07
1.17756e+07
1.17762e+07
1.1777e+07
1.17777e+07
1.17786e+07
1.17795e+07
1.17804e+07
1.17815e+07
1.17825e+07
1.17837e+07
1.17848e+07
1.17861e+07
1.17873e+07
1.17887e+07
1.179e+07
1.17914e+07
1.17929e+07
1.17944e+07
1.17959e+07
1.17974e+07
1.1799e+07
1.18006e+07
1.18023e+07
1.1804e+07
1.18056e+07
1.18074e+07
1.18091e+07
1.18108e+07
1.18126e+07
1.18144e+07
1.18162e+07
1.1818e+07
1.18198e+07
1.18216e+07
1.18234e+07
1.18252e+07
1.1827e+07
1.18288e+07
1.18307e+07
1.18325e+07
1.18343e+07
1.18361e+07
1.18378e+07
1.18396e+07
1.18414e+07
1.18431e+07
1.18449e+07
1.18466e+07
1.18483e+07
1.185e+07
1.18516e+07
1.18533e+07
1.18549e+07
1.18565e+07
1.18581e+07
1.18597e+07
1.18612e+07
1.18628e+07
1.18642e+07
1.18657e+07
1.18672e+07
1.18686e+07
1.187e+07
1.18713e+07
1.18727e+07
1.1874e+07
1.18753e+07
1.18765e+07
1.18778e+07
1.1879e+07
1.18801e+07
1.18813e+07
1.18824e+07
1.18835e+07
1.18845e+07
1.18855e+07
1.18865e+07
1.18875e+07
1.18884e+07
1.18893e+07
1.18902e+07
1.1891e+07
1.18918e+07
1.18926e+07
1.18934e+07
1.18941e+07
1.18948e+07
1.18954e+07
1.1896e+07
1.18966e+07
1.18972e+07
1.18977e+07
1.18982e+07
1.18987e+07
1.18991e+07
1.18995e+07
1.18999e+07
1.19002e+07
1.19005e+07
1.19008e+07
1.1901e+07
1.19012e+07
1.19014e+07
1.19015e+07
1.19016e+07
1.19017e+07
1.19017e+07
1.19017e+07
1.19016e+07
1.19015e+07
1.19014e+07
1.19012e+07
1.1901e+07
1.19008e+07
1.19005e+07
1.19001e+07
1.18998e+07
1.18993e+07
1.18989e+07
1.18984e+07
1.18978e+07
1.18972e+07
1.18966e+07
1.18959e+07
1.18952e+07
1.18944e+07
1.18936e+07
1.18927e+07
1.18918e+07
1.18908e+07
1.18898e+07
1.18888e+07
1.18876e+07
1.18865e+07
1.18853e+07
1.18841e+07
1.18828e+07
1.18814e+07
1.188e+07
1.18786e+07
1.18771e+07
1.18755e+07
1.18738e+07
1.18721e+07
1.18703e+07
1.18683e+07
1.18663e+07
1.18641e+07
1.18617e+07
1.18592e+07
1.18564e+07
1.18534e+07
1.185e+07
1.18464e+07
1.18423e+07
1.18377e+07
1.18326e+07
1.18268e+07
1.18203e+07
1.1813e+07
1.18048e+07
1.17954e+07
1.17849e+07
1.1773e+07
1.17597e+07
1.17448e+07
1.17282e+07
1.17098e+07
1.16894e+07
1.16671e+07
1.17706e+07
1.17707e+07
1.17708e+07
1.1771e+07
1.17713e+07
1.17716e+07
1.1772e+07
1.17724e+07
1.17729e+07
1.17735e+07
1.17741e+07
1.17748e+07
1.17756e+07
1.17764e+07
1.17773e+07
1.17783e+07
1.17793e+07
1.17804e+07
1.17815e+07
1.17827e+07
1.17839e+07
1.17852e+07
1.17865e+07
1.17879e+07
1.17893e+07
1.17908e+07
1.17923e+07
1.17938e+07
1.17954e+07
1.1797e+07
1.17986e+07
1.18003e+07
1.1802e+07
1.18037e+07
1.18054e+07
1.18072e+07
1.1809e+07
1.18107e+07
1.18125e+07
1.18144e+07
1.18162e+07
1.1818e+07
1.18198e+07
1.18217e+07
1.18235e+07
1.18254e+07
1.18272e+07
1.1829e+07
1.18309e+07
1.18327e+07
1.18345e+07
1.18363e+07
1.18381e+07
1.18399e+07
1.18417e+07
1.18434e+07
1.18452e+07
1.18469e+07
1.18486e+07
1.18503e+07
1.1852e+07
1.18536e+07
1.18553e+07
1.18569e+07
1.18585e+07
1.186e+07
1.18616e+07
1.18631e+07
1.18646e+07
1.18661e+07
1.18675e+07
1.18689e+07
1.18703e+07
1.18717e+07
1.1873e+07
1.18743e+07
1.18756e+07
1.18768e+07
1.18781e+07
1.18793e+07
1.18804e+07
1.18816e+07
1.18827e+07
1.18837e+07
1.18848e+07
1.18858e+07
1.18868e+07
1.18878e+07
1.18887e+07
1.18896e+07
1.18904e+07
1.18913e+07
1.18921e+07
1.18929e+07
1.18936e+07
1.18943e+07
1.1895e+07
1.18956e+07
1.18963e+07
1.18968e+07
1.18974e+07
1.18979e+07
1.18984e+07
1.18989e+07
1.18993e+07
1.18997e+07
1.19001e+07
1.19004e+07
1.19007e+07
1.1901e+07
1.19012e+07
1.19014e+07
1.19016e+07
1.19017e+07
1.19018e+07
1.19018e+07
1.19018e+07
1.19018e+07
1.19018e+07
1.19017e+07
1.19015e+07
1.19014e+07
1.19012e+07
1.19009e+07
1.19006e+07
1.19003e+07
1.18999e+07
1.18995e+07
1.1899e+07
1.18985e+07
1.1898e+07
1.18974e+07
1.18967e+07
1.1896e+07
1.18953e+07
1.18945e+07
1.18937e+07
1.18928e+07
1.18919e+07
1.18909e+07
1.18899e+07
1.18889e+07
1.18877e+07
1.18866e+07
1.18854e+07
1.18842e+07
1.18829e+07
1.18815e+07
1.18801e+07
1.18787e+07
1.18772e+07
1.18756e+07
1.1874e+07
1.18723e+07
1.18705e+07
1.18686e+07
1.18666e+07
1.18644e+07
1.18621e+07
1.18596e+07
1.18569e+07
1.18539e+07
1.18507e+07
1.18471e+07
1.18431e+07
1.18386e+07
1.18337e+07
1.1828e+07
1.18217e+07
1.18145e+07
1.18064e+07
1.17972e+07
1.17868e+07
1.17751e+07
1.17619e+07
1.17471e+07
1.17305e+07
1.17121e+07
1.16916e+07
1.16691e+07
1.17687e+07
1.17688e+07
1.17689e+07
1.17691e+07
1.17694e+07
1.17698e+07
1.17702e+07
1.17706e+07
1.17712e+07
1.17718e+07
1.17725e+07
1.17733e+07
1.17741e+07
1.1775e+07
1.17759e+07
1.17769e+07
1.1778e+07
1.17791e+07
1.17803e+07
1.17815e+07
1.17828e+07
1.17842e+07
1.17856e+07
1.1787e+07
1.17885e+07
1.179e+07
1.17916e+07
1.17932e+07
1.17948e+07
1.17965e+07
1.17982e+07
1.17999e+07
1.18016e+07
1.18034e+07
1.18052e+07
1.1807e+07
1.18088e+07
1.18106e+07
1.18125e+07
1.18143e+07
1.18162e+07
1.18181e+07
1.18199e+07
1.18218e+07
1.18237e+07
1.18255e+07
1.18274e+07
1.18293e+07
1.18311e+07
1.1833e+07
1.18348e+07
1.18366e+07
1.18384e+07
1.18402e+07
1.1842e+07
1.18438e+07
1.18456e+07
1.18473e+07
1.1849e+07
1.18507e+07
1.18524e+07
1.1854e+07
1.18557e+07
1.18573e+07
1.18589e+07
1.18605e+07
1.1862e+07
1.18635e+07
1.1865e+07
1.18665e+07
1.18679e+07
1.18693e+07
1.18707e+07
1.18721e+07
1.18734e+07
1.18747e+07
1.1876e+07
1.18772e+07
1.18784e+07
1.18796e+07
1.18808e+07
1.18819e+07
1.1883e+07
1.18841e+07
1.18851e+07
1.18861e+07
1.18871e+07
1.18881e+07
1.1889e+07
1.18899e+07
1.18907e+07
1.18916e+07
1.18924e+07
1.18931e+07
1.18939e+07
1.18946e+07
1.18952e+07
1.18959e+07
1.18965e+07
1.18971e+07
1.18976e+07
1.18982e+07
1.18986e+07
1.18991e+07
1.18995e+07
1.18999e+07
1.19003e+07
1.19006e+07
1.19009e+07
1.19012e+07
1.19014e+07
1.19016e+07
1.19017e+07
1.19019e+07
1.1902e+07
1.1902e+07
1.1902e+07
1.1902e+07
1.19019e+07
1.19019e+07
1.19017e+07
1.19015e+07
1.19013e+07
1.19011e+07
1.19008e+07
1.19004e+07
1.19001e+07
1.18996e+07
1.18992e+07
1.18987e+07
1.18981e+07
1.18975e+07
1.18969e+07
1.18962e+07
1.18954e+07
1.18946e+07
1.18938e+07
1.18929e+07
1.1892e+07
1.1891e+07
1.189e+07
1.1889e+07
1.18879e+07
1.18867e+07
1.18855e+07
1.18843e+07
1.1883e+07
1.18817e+07
1.18803e+07
1.18788e+07
1.18773e+07
1.18758e+07
1.18742e+07
1.18725e+07
1.18707e+07
1.18688e+07
1.18669e+07
1.18648e+07
1.18625e+07
1.18601e+07
1.18574e+07
1.18546e+07
1.18514e+07
1.18479e+07
1.18441e+07
1.18397e+07
1.18349e+07
1.18294e+07
1.18232e+07
1.18162e+07
1.18083e+07
1.17993e+07
1.1789e+07
1.17775e+07
1.17644e+07
1.17497e+07
1.17332e+07
1.17147e+07
1.16942e+07
1.16716e+07
1.17665e+07
1.17666e+07
1.17668e+07
1.1767e+07
1.17673e+07
1.17677e+07
1.17681e+07
1.17686e+07
1.17692e+07
1.17699e+07
1.17706e+07
1.17714e+07
1.17723e+07
1.17733e+07
1.17743e+07
1.17753e+07
1.17765e+07
1.17777e+07
1.17789e+07
1.17803e+07
1.17816e+07
1.17831e+07
1.17845e+07
1.1786e+07
1.17876e+07
1.17892e+07
1.17908e+07
1.17925e+07
1.17942e+07
1.17959e+07
1.17977e+07
1.17995e+07
1.18013e+07
1.18031e+07
1.18049e+07
1.18068e+07
1.18087e+07
1.18106e+07
1.18124e+07
1.18143e+07
1.18162e+07
1.18182e+07
1.18201e+07
1.1822e+07
1.18239e+07
1.18258e+07
1.18277e+07
1.18295e+07
1.18314e+07
1.18333e+07
1.18352e+07
1.1837e+07
1.18388e+07
1.18406e+07
1.18424e+07
1.18442e+07
1.1846e+07
1.18477e+07
1.18495e+07
1.18512e+07
1.18528e+07
1.18545e+07
1.18561e+07
1.18578e+07
1.18594e+07
1.18609e+07
1.18625e+07
1.1864e+07
1.18655e+07
1.18669e+07
1.18684e+07
1.18698e+07
1.18712e+07
1.18725e+07
1.18738e+07
1.18751e+07
1.18764e+07
1.18776e+07
1.18789e+07
1.188e+07
1.18812e+07
1.18823e+07
1.18834e+07
1.18845e+07
1.18855e+07
1.18865e+07
1.18875e+07
1.18884e+07
1.18893e+07
1.18902e+07
1.18911e+07
1.18919e+07
1.18927e+07
1.18934e+07
1.18942e+07
1.18949e+07
1.18955e+07
1.18962e+07
1.18968e+07
1.18974e+07
1.18979e+07
1.18984e+07
1.18989e+07
1.18994e+07
1.18998e+07
1.19002e+07
1.19005e+07
1.19008e+07
1.19011e+07
1.19014e+07
1.19016e+07
1.19018e+07
1.1902e+07
1.19021e+07
1.19022e+07
1.19022e+07
1.19022e+07
1.19022e+07
1.19021e+07
1.1902e+07
1.19019e+07
1.19017e+07
1.19015e+07
1.19013e+07
1.1901e+07
1.19006e+07
1.19002e+07
1.18998e+07
1.18994e+07
1.18988e+07
1.18983e+07
1.18977e+07
1.1897e+07
1.18963e+07
1.18956e+07
1.18948e+07
1.1894e+07
1.18931e+07
1.18922e+07
1.18912e+07
1.18902e+07
1.18891e+07
1.1888e+07
1.18868e+07
1.18856e+07
1.18844e+07
1.18831e+07
1.18818e+07
1.18804e+07
1.1879e+07
1.18775e+07
1.1876e+07
1.18744e+07
1.18727e+07
1.1871e+07
1.18692e+07
1.18672e+07
1.18652e+07
1.1863e+07
1.18606e+07
1.18581e+07
1.18553e+07
1.18522e+07
1.18489e+07
1.18451e+07
1.18409e+07
1.18362e+07
1.18309e+07
1.18249e+07
1.18181e+07
1.18104e+07
1.18016e+07
1.17915e+07
1.17801e+07
1.17672e+07
1.17526e+07
1.17362e+07
1.17178e+07
1.16972e+07
1.16745e+07
1.1764e+07
1.17641e+07
1.17643e+07
1.17645e+07
1.17648e+07
1.17653e+07
1.17657e+07
1.17663e+07
1.1767e+07
1.17677e+07
1.17685e+07
1.17694e+07
1.17703e+07
1.17713e+07
1.17724e+07
1.17736e+07
1.17748e+07
1.17761e+07
1.17774e+07
1.17788e+07
1.17803e+07
1.17818e+07
1.17834e+07
1.1785e+07
1.17866e+07
1.17883e+07
1.179e+07
1.17917e+07
1.17935e+07
1.17953e+07
1.17972e+07
1.1799e+07
1.18009e+07
1.18028e+07
1.18047e+07
1.18066e+07
1.18085e+07
1.18105e+07
1.18124e+07
1.18144e+07
1.18163e+07
1.18183e+07
1.18202e+07
1.18222e+07
1.18241e+07
1.1826e+07
1.1828e+07
1.18299e+07
1.18318e+07
1.18337e+07
1.18355e+07
1.18374e+07
1.18393e+07
1.18411e+07
1.18429e+07
1.18447e+07
1.18465e+07
1.18482e+07
1.185e+07
1.18517e+07
1.18534e+07
1.1855e+07
1.18567e+07
1.18583e+07
1.18599e+07
1.18614e+07
1.1863e+07
1.18645e+07
1.1866e+07
1.18674e+07
1.18689e+07
1.18703e+07
1.18717e+07
1.1873e+07
1.18743e+07
1.18756e+07
1.18769e+07
1.18781e+07
1.18793e+07
1.18805e+07
1.18816e+07
1.18827e+07
1.18838e+07
1.18849e+07
1.18859e+07
1.18869e+07
1.18879e+07
1.18888e+07
1.18897e+07
1.18906e+07
1.18914e+07
1.18922e+07
1.1893e+07
1.18938e+07
1.18945e+07
1.18952e+07
1.18959e+07
1.18965e+07
1.18971e+07
1.18977e+07
1.18982e+07
1.18987e+07
1.18992e+07
1.18996e+07
1.19e+07
1.19004e+07
1.19008e+07
1.19011e+07
1.19014e+07
1.19016e+07
1.19019e+07
1.1902e+07
1.19022e+07
1.19023e+07
1.19024e+07
1.19024e+07
1.19025e+07
1.19024e+07
1.19024e+07
1.19023e+07
1.19021e+07
1.1902e+07
1.19017e+07
1.19015e+07
1.19012e+07
1.19008e+07
1.19005e+07
1.19e+07