/*--------------------------------*- C++ -*----------------------------------*\
  =========                 |
  \\      /  F ield         | OpenFOAM: The Open Source CFD Toolbox
   \\    /   O peration     | Website:  https://openfoam.org
    \\  /    A nd           | Version:  10
     \\/     M anipulation  |
\*---------------------------------------------------------------------------*/
FoamFile
{
    format      ascii;
    class       volVectorField;
    location    "19000";
    object      Ub;
}
// * * * * * * * * * * * * * * * * * * * * * * * * * * * * * * * * * * * * * //

dimensions      [0 1 -1 0 0 0 0];

internalField   nonuniform List<vector> 
3200
(
(-9.39239e-21 -9.87885e-16 0)
(-2.83376e-20 -9.87885e-16 0)
(-4.79451e-20 -9.87884e-16 0)
(-6.89605e-20 -9.87882e-16 0)
(-9.23234e-20 -9.8788e-16 0)
(-1.19342e-19 -9.87876e-16 0)
(-1.51986e-19 -9.8787e-16 0)
(-1.93424e-19 -9.87861e-16 0)
(-2.49044e-19 -9.87845e-16 0)
(-3.28476e-19 -9.87819e-16 0)
(-4.49734e-19 -9.87771e-16 0)
(-1.69545e-17 -9.87681e-16 0)
(-1.52108e-06 -2.17233e-14 0)
(-4.36734e-05 -4.62879e-05 0)
(-8.65872e-05 -1.32785e-05 0)
(-8.98189e-05 -5.47711e-06 0)
(-9.13701e-05 -3.11069e-06 0)
(-9.24097e-05 -2.01051e-06 0)
(-9.31862e-05 -1.40153e-06 0)
(-9.37989e-05 -1.02893e-06 0)
(-9.42991e-05 -7.8499e-07 0)
(-9.47172e-05 -6.17128e-07 0)
(-9.50731e-05 -4.97061e-07 0)
(-9.53805e-05 -4.08453e-07 0)
(-9.5649e-05 -3.41354e-07 0)
(-9.5886e-05 -2.89423e-07 0)
(-9.60968e-05 -2.48478e-07 0)
(-9.62857e-05 -2.15671e-07 0)
(-9.63184e-05 -5.15819e-07 0)
(-9.46965e-05 -4.12374e-06 0)
(-9.17055e-05 -3.81567e-06 0)
(-8.90113e-05 -3.45574e-06 0)
(-8.64925e-05 -3.44518e-06 0)
(-8.38142e-05 -3.94369e-06 0)
(-8.05184e-05 -5.15768e-06 0)
(-7.59637e-05 -7.43431e-06 0)
(-6.92008e-05 -1.13562e-05 0)
(-5.87724e-05 -1.78879e-05 0)
(-4.2384e-05 -2.86475e-05 0)
(-1.8296e-05 -4.0742e-05 0)
(-8.69433e-21 -9.87859e-16 0)
(-2.61524e-20 -9.87858e-16 0)
(-4.39667e-20 -9.87855e-16 0)
(-6.25746e-20 -9.87851e-16 0)
(-8.24224e-20 -9.87844e-16 0)
(-1.03947e-19 -9.87835e-16 0)
(-1.27488e-19 -9.87821e-16 0)
(-1.5301e-19 -9.878e-16 0)
(-1.79388e-19 -9.87769e-16 0)
(-2.02596e-19 -9.87721e-16 0)
(-2.11292e-19 -9.87645e-16 0)
(-1.76171e-19 -9.87522e-16 0)
(-2.51967e-20 -9.87317e-16 0)
(1.86723e-19 -9.78712e-16 0)
(2.3784e-19 -9.344e-16 0)
(1.63524e-19 -8.94591e-16 0)
(1.09631e-19 -8.57412e-16 0)
(6.73619e-20 -8.22128e-16 0)
(3.1168e-20 -7.88349e-16 0)
(-2.50141e-21 -7.55831e-16 0)
(-3.63449e-20 -7.24407e-16 0)
(-7.29478e-20 -6.93958e-16 0)
(-1.15404e-19 -6.64392e-16 0)
(-1.68057e-19 -6.35636e-16 0)
(-2.37623e-19 -6.07632e-16 0)
(-3.35068e-19 -5.80328e-16 0)
(-7.65233e-19 -5.53681e-16 0)
(-1.21097e-07 -5.62049e-16 0)
(-2.63477e-05 -3.26779e-07 0)
(-5.59704e-05 -3.95582e-06 0)
(-6.16215e-05 -3.66448e-06 0)
(-6.54783e-05 -3.318e-06 0)
(-6.87924e-05 -3.31845e-06 0)
(-7.2082e-05 -3.82615e-06 0)
(-7.58706e-05 -5.04798e-06 0)
(-8.08317e-05 -7.33152e-06 0)
(-8.79329e-05 -1.12597e-05 0)
(-9.86426e-05 -1.77973e-05 0)
(-9.94822e-05 -7.33404e-05 0)
(-4.83335e-05 -0.00021291 0)
(-7.51947e-21 -9.87835e-16 0)
(-2.25117e-20 -9.87834e-16 0)
(-3.74767e-20 -9.8783e-16 0)
(-5.25086e-20 -9.87825e-16 0)
(-6.75942e-20 -9.87816e-16 0)
(-8.2527e-20 -9.87805e-16 0)
(-9.67551e-20 -9.8779e-16 0)
(-1.0912e-19 -9.8777e-16 0)
(-1.1745e-19 -9.87743e-16 0)
(-1.18014e-19 -9.87708e-16 0)
(-1.05096e-19 -9.87666e-16 0)
(-7.17066e-20 -9.87621e-16 0)
(-1.47938e-20 -9.8759e-16 0)
(4.56319e-20 -9.87617e-16 0)
(7.5032e-20 -9.87689e-16 0)
(7.23845e-20 -9.87734e-16 0)
(5.73927e-20 -9.87762e-16 0)
(3.78966e-20 -9.8778e-16 0)
(1.68794e-20 -9.87789e-16 0)
(-4.59812e-21 -9.87792e-16 0)
(-2.61531e-20 -9.8779e-16 0)
(-4.74555e-20 -9.87782e-16 0)
(-6.77343e-20 -9.87767e-16 0)
(-8.51001e-20 -9.87743e-16 0)
(-9.53271e-20 -9.87706e-16 0)
(-8.95106e-20 -9.8765e-16 0)
(-4.95216e-20 -9.87567e-16 0)
(6.07073e-20 -9.87441e-16 0)
(1.80729e-19 -9.8583e-16 0)
(1.94911e-19 -9.62896e-16 0)
(1.47042e-19 -9.41195e-16 0)
(1.10276e-19 -9.19993e-16 0)
(8.10747e-20 -8.9911e-16 0)
(5.66826e-20 -8.78428e-16 0)
(3.52786e-20 -8.57786e-16 0)
(1.55325e-20 -8.36939e-16 0)
(-1.07031e-16 -8.15511e-16 0)
(-1.33116e-07 -4.59012e-12 0)
(-1.61237e-05 -4.65896e-05 0)
(-1.06141e-05 -0.000406627 0)
(-6.16105e-21 -9.87816e-16 0)
(-1.83517e-20 -9.87814e-16 0)
(-3.02387e-20 -9.8781e-16 0)
(-4.16989e-20 -9.87804e-16 0)
(-5.24988e-20 -9.87797e-16 0)
(-6.22345e-20 -9.87786e-16 0)
(-7.02579e-20 -9.87773e-16 0)
(-7.56015e-20 -9.87758e-16 0)
(-7.69366e-20 -9.87739e-16 0)
(-7.26555e-20 -9.87718e-16 0)
(-6.12501e-20 -9.87698e-16 0)
(-4.22459e-20 -9.87681e-16 0)
(-1.78448e-20 -9.87674e-16 0)
(5.53281e-21 -9.87683e-16 0)
(2.05259e-20 -9.87703e-16 0)
(2.53379e-20 -9.87723e-16 0)
(2.27363e-20 -9.8774e-16 0)
(1.55582e-20 -9.87751e-16 0)
(5.88713e-21 -9.87757e-16 0)
(-4.81873e-21 -9.87759e-16 0)
(-1.5433e-20 -9.87757e-16 0)
(-2.4886e-20 -9.87751e-16 0)
(-3.19316e-20 -9.87741e-16 0)
(-3.49608e-20 -9.87726e-16 0)
(-3.19167e-20 -9.87708e-16 0)
(-2.04837e-20 -9.87688e-16 0)
(1.00928e-21 -9.8767e-16 0)
(3.09832e-20 -9.87664e-16 0)
(5.8185e-20 -9.87689e-16 0)
(6.96995e-20 -9.8773e-16 0)
(6.69558e-20 -9.87759e-16 0)
(5.76839e-20 -9.87779e-16 0)
(4.56983e-20 -9.87794e-16 0)
(3.28983e-20 -9.87804e-16 0)
(2.03336e-20 -9.87812e-16 0)
(8.77093e-21 -9.87818e-16 0)
(-9.78413e-22 -9.87822e-16 0)
(-6.14856e-11 -1.00891e-15 0)
(-3.71638e-07 -3.52459e-06 0)
(8.94818e-08 -0.000471336 0)
(-4.85177e-21 -9.878e-16 0)
(-1.43872e-20 -9.87798e-16 0)
(-2.34953e-20 -9.87795e-16 0)
(-3.19688e-20 -9.8779e-16 0)
(-3.95351e-20 -9.87783e-16 0)
(-4.5833e-20 -9.87775e-16 0)
(-5.04002e-20 -9.87765e-16 0)
(-5.26856e-20 -9.87754e-16 0)
(-5.2109e-20 -9.87742e-16 0)
(-4.81969e-20 -9.8773e-16 0)
(-4.08195e-20 -9.87719e-16 0)
(-3.05102e-20 -9.87711e-16 0)
(-1.87318e-20 -9.87708e-16 0)
(-7.75362e-21 -9.87711e-16 0)
(2.82576e-22 -9.87718e-16 0)
(4.48084e-21 -9.87726e-16 0)
(5.18113e-21 -9.87733e-16 0)
(3.25145e-21 -9.87739e-16 0)
(-3.38391e-22 -9.87743e-16 0)
(-4.6761e-21 -9.87744e-16 0)
(-8.92924e-21 -9.87743e-16 0)
(-1.23209e-20 -9.87739e-16 0)
(-1.41107e-20 -9.87734e-16 0)
(-1.36169e-20 -9.87727e-16 0)
(-1.03123e-20 -9.8772e-16 0)
(-4.0251e-21 -9.87715e-16 0)
(4.74521e-21 -9.87712e-16 0)
(1.44809e-20 -9.87714e-16 0)
(2.26202e-20 -9.87722e-16 0)
(2.68858e-20 -9.87735e-16 0)
(2.68037e-20 -9.87747e-16 0)
(2.31794e-20 -9.87759e-16 0)
(1.69781e-20 -9.87768e-16 0)
(8.9995e-21 -9.87776e-16 0)
(-1.59301e-22 -9.87783e-16 0)
(-1.00522e-20 -9.87789e-16 0)
(-2.06938e-20 -9.87796e-16 0)
(-1.8765e-10 -1.05756e-15 0)
(-1.93304e-07 -5.65389e-06 0)
(1.13393e-07 -0.000475478 0)
(-3.71958e-21 -9.87787e-16 0)
(-1.09916e-20 -9.87786e-16 0)
(-1.78284e-20 -9.87783e-16 0)
(-2.402e-20 -9.87779e-16 0)
(-2.93346e-20 -9.87774e-16 0)
(-3.35155e-20 -9.87768e-16 0)
(-3.62907e-20 -9.87761e-16 0)
(-3.74006e-20 -9.87753e-16 0)
(-3.6649e-20 -9.87745e-16 0)
(-3.39786e-20 -9.87737e-16 0)
(-2.9559e-20 -9.87731e-16 0)
(-2.38574e-20 -9.87727e-16 0)
(-1.76347e-20 -9.87725e-16 0)
(-1.18058e-20 -9.87725e-16 0)
(-7.16139e-21 -9.87727e-16 0)
(-4.11678e-21 -9.8773e-16 0)
(-2.67609e-21 -9.87733e-16 0)
(-2.56245e-21 -9.87736e-16 0)
(-3.3573e-21 -9.87737e-16 0)
(-4.59628e-21 -9.87738e-16 0)
(-5.82471e-21 -9.87737e-16 0)
(-6.63119e-21 -9.87736e-16 0)
(-6.67682e-21 -9.87734e-16 0)
(-5.732e-21 -9.87731e-16 0)
(-3.72569e-21 -9.87729e-16 0)
(-8.01532e-22 -9.87727e-16 0)
(2.64022e-21 -9.87727e-16 0)
(5.95518e-21 -9.87729e-16 0)
(8.37497e-21 -9.87732e-16 0)
(9.25311e-21 -9.87737e-16 0)
(8.26213e-21 -9.87742e-16 0)
(5.35523e-21 -9.87747e-16 0)
(6.02722e-22 -9.87752e-16 0)
(-5.94597e-21 -9.87755e-16 0)
(-1.43651e-20 -9.87758e-16 0)
(-2.4945e-20 -9.8776e-16 0)
(-4.08559e-20 -9.87761e-16 0)
(-1.07742e-09 -1.29099e-15 0)
(-1.16819e-07 -1.34418e-05 0)
(1.55415e-07 -0.000478264 0)
(-2.80514e-21 -9.87778e-16 0)
(-8.26954e-21 -9.87777e-16 0)
(-1.3352e-20 -9.87775e-16 0)
(-1.78744e-20 -9.87772e-16 0)
(-2.16633e-20 -9.87768e-16 0)
(-2.45532e-20 -9.87763e-16 0)
(-2.6398e-20 -9.87758e-16 0)
(-2.70911e-20 -9.87752e-16 0)
(-2.65925e-20 -9.87747e-16 0)
(-2.49585e-20 -9.87742e-16 0)
(-2.23657e-20 -9.87738e-16 0)
(-1.91138e-20 -9.87735e-16 0)
(-1.55951e-20 -9.87733e-16 0)
(-1.22239e-20 -9.87733e-16 0)
(-9.34448e-21 -9.87733e-16 0)
(-7.15849e-21 -9.87734e-16 0)
(-5.70714e-21 -9.87735e-16 0)
(-4.90045e-21 -9.87736e-16 0)
(-4.56433e-21 -9.87736e-16 0)
(-4.48585e-21 -9.87737e-16 0)
(-4.44997e-21 -9.87736e-16 0)
(-4.26832e-21 -9.87736e-16 0)
(-3.80284e-21 -9.87735e-16 0)
(-2.98589e-21 -9.87734e-16 0)
(-1.8362e-21 -9.87733e-16 0)
(-4.66779e-22 -9.87732e-16 0)
(9.21409e-22 -9.87733e-16 0)
(2.0661e-21 -9.87733e-16 0)
(2.69156e-21 -9.87735e-16 0)
(2.56573e-21 -9.87736e-16 0)
(1.53869e-21 -9.87738e-16 0)
(-4.56955e-22 -9.87739e-16 0)
(-3.43245e-21 -9.8774e-16 0)
(-7.37442e-21 -9.8774e-16 0)
(-1.22699e-20 -9.87739e-16 0)
(-1.81195e-20 -9.87736e-16 0)
(-3.21282e-20 -9.87731e-16 0)
(-2.27955e-09 -1.73652e-15 0)
(5.56222e-09 -2.19356e-05 0)
(1.20144e-07 -0.000479806 0)
(-2.09734e-21 -9.87771e-16 0)
(-6.17411e-21 -9.8777e-16 0)
(-9.9423e-21 -9.87768e-16 0)
(-1.32635e-20 -9.87766e-16 0)
(-1.60149e-20 -9.87763e-16 0)
(-1.80933e-20 -9.8776e-16 0)
(-1.94228e-20 -9.87756e-16 0)
(-1.99658e-20 -9.87752e-16 0)
(-1.97334e-20 -9.87749e-16 0)
(-1.87949e-20 -9.87745e-16 0)
(-1.72794e-20 -9.87742e-16 0)
(-1.53673e-20 -9.8774e-16 0)
(-1.32683e-20 -9.87738e-16 0)
(-1.11891e-20 -9.87737e-16 0)
(-9.29875e-21 -9.87737e-16 0)
(-7.70398e-21 -9.87737e-16 0)
(-6.44167e-21 -9.87737e-16 0)
(-5.48763e-21 -9.87737e-16 0)
(-4.77451e-21 -9.87737e-16 0)
(-4.21255e-21 -9.87737e-16 0)
(-3.70892e-21 -9.87737e-16 0)
(-3.18414e-21 -9.87736e-16 0)
(-2.58475e-21 -9.87736e-16 0)
(-1.89189e-21 -9.87736e-16 0)
(-1.12518e-21 -9.87735e-16 0)
(-3.40677e-22 -9.87735e-16 0)
(3.77625e-22 -9.87735e-16 0)
(9.32683e-22 -9.87735e-16 0)
(1.23353e-21 -9.87735e-16 0)
(1.21452e-21 -9.87736e-16 0)
(8.49742e-22 -9.87736e-16 0)
(1.60753e-22 -9.87735e-16 0)
(-7.80066e-22 -9.87734e-16 0)
(-1.84516e-21 -9.87733e-16 0)
(-2.84146e-21 -9.8773e-16 0)
(-3.48933e-21 -9.87727e-16 0)
(-4.95308e-21 -9.87721e-16 0)
(-7.56732e-11 -2.13543e-15 0)
(1.22202e-10 -2.46151e-05 0)
(2.16266e-08 -0.000480029 0)
(-1.56295e-21 -9.87766e-16 0)
(-4.59786e-21 -9.87765e-16 0)
(-7.39531e-21 -9.87764e-16 0)
(-9.85245e-21 -9.87762e-16 0)
(-1.18839e-20 -9.8776e-16 0)
(-1.34252e-20 -9.87757e-16 0)
(-1.44363e-20 -9.87755e-16 0)
(-1.49068e-20 -9.87752e-16 0)
(-1.48586e-20 -9.87749e-16 0)
(-1.43474e-20 -9.87747e-16 0)
(-1.34589e-20 -9.87745e-16 0)
(-1.23011e-20 -9.87743e-16 0)
(-1.09914e-20 -9.87742e-16 0)
(-9.64145e-21 -9.87741e-16 0)
(-8.34282e-21 -9.8774e-16 0)
(-7.15745e-21 -9.87739e-16 0)
(-6.11465e-21 -9.87739e-16 0)
(-5.2144e-21 -9.87739e-16 0)
(-4.43494e-21 -9.87739e-16 0)
(-3.74219e-21 -9.87738e-16 0)
(-3.09913e-21 -9.87738e-16 0)
(-2.4738e-21 -9.87738e-16 0)
(-1.8452e-21 -9.87737e-16 0)
(-1.20653e-21 -9.87737e-16 0)
(-5.65581e-22 -9.87737e-16 0)
(5.78302e-23 -9.87737e-16 0)
(6.37175e-22 -9.87736e-16 0)
(1.14659e-21 -9.87736e-16 0)
(1.56929e-21 -9.87736e-16 0)
(1.90562e-21 -9.87736e-16 0)
(2.17988e-21 -9.87735e-16 0)
(2.44529e-21 -9.87735e-16 0)
(2.78788e-21 -9.87734e-16 0)
(3.32999e-21 -9.87732e-16 0)
(4.23426e-21 -9.87731e-16 0)
(5.70828e-21 -9.87729e-16 0)
(8.00931e-21 -9.87726e-16 0)
(2.03103e-20 -2.43636e-15 0)
(1.46613e-10 -2.33528e-05 0)
(-9.2102e-09 -0.00047974 0)
(-1.16446e-21 -9.87762e-16 0)
(-3.42506e-21 -9.87761e-16 0)
(-5.50794e-21 -9.8776e-16 0)
(-7.3383e-21 -9.87759e-16 0)
(-8.85691e-21 -9.87757e-16 0)
(-1.00221e-20 -9.87756e-16 0)
(-1.08117e-20 -9.87754e-16 0)
(-1.12244e-20 -9.87752e-16 0)
(-1.12797e-20 -9.8775e-16 0)
(-1.10168e-20 -9.87748e-16 0)
(-1.0491e-20 -9.87746e-16 0)
(-9.76778e-21 -9.87745e-16 0)
(-8.91577e-21 -9.87744e-16 0)
(-7.99945e-21 -9.87743e-16 0)
(-7.07256e-21 -9.87742e-16 0)
(-6.17397e-21 -9.87741e-16 0)
(-5.32646e-21 -9.87741e-16 0)
(-4.53805e-21 -9.8774e-16 0)
(-3.80542e-21 -9.8774e-16 0)
(-3.11811e-21 -9.8774e-16 0)
(-2.46291e-21 -9.87739e-16 0)
(-1.82747e-21 -9.87739e-16 0)
(-1.20291e-21 -9.87739e-16 0)
(-5.85029e-22 -9.87738e-16 0)
(2.5966e-23 -9.87738e-16 0)
(6.26966e-22 -9.87738e-16 0)
(1.21457e-21 -9.87738e-16 0)
(1.7883e-21 -9.87737e-16 0)
(2.35388e-21 -9.87737e-16 0)
(2.92613e-21 -9.87737e-16 0)
(3.53084e-21 -9.87736e-16 0)
(4.20546e-21 -9.87736e-16 0)
(4.99828e-21 -9.87735e-16 0)
(5.96575e-21 -9.87735e-16 0)
(7.16754e-21 -9.87734e-16 0)
(8.65811e-21 -9.87733e-16 0)
(1.04734e-20 -9.87733e-16 0)
(2.38009e-20 -2.73916e-15 0)
(7.65573e-11 -2.13335e-05 0)
(-2.34732e-08 -0.000479327 0)
(-8.68384e-22 -9.87759e-16 0)
(-2.55458e-21 -9.87758e-16 0)
(-4.10969e-21 -9.87758e-16 0)
(-5.47972e-21 -9.87757e-16 0)
(-6.62315e-21 -9.87756e-16 0)
(-7.51206e-21 -9.87754e-16 0)
(-8.13284e-21 -9.87753e-16 0)
(-8.48628e-21 -9.87751e-16 0)
(-8.58671e-21 -9.8775e-16 0)
(-8.46031e-21 -9.87748e-16 0)
(-8.14219e-21 -9.87747e-16 0)
(-7.67288e-21 -9.87746e-16 0)
(-7.09418e-21 -9.87745e-16 0)
(-6.44534e-21 -9.87744e-16 0)
(-5.75988e-21 -9.87743e-16 0)
(-5.06361e-21 -9.87743e-16 0)
(-4.37397e-21 -9.87742e-16 0)
(-3.70063e-21 -9.87742e-16 0)
(-3.04694e-21 -9.87741e-16 0)
(-2.41185e-21 -9.87741e-16 0)
(-1.79187e-21 -9.87741e-16 0)
(-1.18275e-21 -9.8774e-16 0)
(-5.80621e-22 -9.8774e-16 0)
(1.75221e-23 -9.8774e-16 0)
(6.13902e-22 -9.87739e-16 0)
(1.21061e-21 -9.87739e-16 0)
(1.81059e-21 -9.87739e-16 0)
(2.41873e-21 -9.87739e-16 0)
(3.0428e-21 -9.87738e-16 0)
(3.694e-21 -9.87738e-16 0)
(4.38689e-21 -9.87738e-16 0)
(5.13856e-21 -9.87738e-16 0)
(5.96696e-21 -9.87737e-16 0)
(6.88822e-21 -9.87737e-16 0)
(7.91316e-21 -9.87737e-16 0)
(9.043e-21 -9.87737e-16 0)
(1.02645e-20 -9.87737e-16 0)
(2.33069e-20 -3.02685e-15 0)
(3.94587e-11 -1.94193e-05 0)
(-3.16672e-08 -0.000478855 0)
(-6.47856e-22 -9.87757e-16 0)
(-1.90637e-21 -9.87756e-16 0)
(-3.06875e-21 -9.87756e-16 0)
(-4.096e-21 -9.87755e-16 0)
(-4.95854e-21 -9.87754e-16 0)
(-5.63689e-21 -9.87753e-16 0)
(-6.12178e-21 -9.87752e-16 0)
(-6.41382e-21 -9.87751e-16 0)
(-6.52253e-21 -9.8775e-16 0)
(-6.46486e-21 -9.87749e-16 0)
(-6.26316e-21 -9.87748e-16 0)
(-5.94296e-21 -9.87747e-16 0)
(-5.53056e-21 -9.87746e-16 0)
(-5.05087e-21 -9.87745e-16 0)
(-4.52577e-21 -9.87744e-16 0)
(-3.97302e-21 -9.87744e-16 0)
(-3.40586e-21 -9.87743e-16 0)
(-2.83321e-21 -9.87743e-16 0)
(-2.26029e-21 -9.87743e-16 0)
(-1.68948e-21 -9.87742e-16 0)
(-1.12122e-21 -9.87742e-16 0)
(-5.54797e-22 -9.87742e-16 0)
(1.11239e-23 -9.87741e-16 0)
(5.7817e-22 -9.87741e-16 0)
(1.14822e-21 -9.87741e-16 0)
(1.72355e-21 -9.87741e-16 0)
(2.30702e-21 -9.8774e-16 0)
(2.90231e-21 -9.8774e-16 0)
(3.51399e-21 -9.8774e-16 0)
(4.14734e-21 -9.8774e-16 0)
(4.8079e-21 -9.8774e-16 0)
(5.50076e-21 -9.8774e-16 0)
(6.22942e-21 -9.8774e-16 0)
(6.99455e-21 -9.8774e-16 0)
(7.79257e-21 -9.8774e-16 0)
(8.6143e-21 -9.8774e-16 0)
(9.44395e-21 -9.8774e-16 0)
(2.20447e-20 -3.30015e-15 0)
(1.6417e-11 -1.77183e-05 0)
(-3.64807e-08 -0.000478356 0)
(-4.82553e-22 -9.87755e-16 0)
(-1.42033e-21 -9.87755e-16 0)
(-2.28762e-21 -9.87754e-16 0)
(-3.05608e-21 -9.87754e-16 0)
(-3.7043e-21 -9.87753e-16 0)
(-4.21815e-21 -9.87752e-16 0)
(-4.59077e-21 -9.87752e-16 0)
(-4.82205e-21 -9.87751e-16 0)
(-4.91791e-21 -9.8775e-16 0)
(-4.88913e-21 -9.87749e-16 0)
(-4.74999e-21 -9.87748e-16 0)
(-4.51683e-21 -9.87747e-16 0)
(-4.20664e-21 -9.87747e-16 0)
(-3.83575e-21 -9.87746e-16 0)
(-3.41894e-21 -9.87745e-16 0)
(-2.96871e-21 -9.87745e-16 0)
(-2.49508e-21 -9.87744e-16 0)
(-2.00556e-21 -9.87744e-16 0)
(-1.50544e-21 -9.87744e-16 0)
(-9.98141e-22 -9.87743e-16 0)
(-4.85664e-22 -9.87743e-16 0)
(3.10438e-23 -9.87743e-16 0)
(5.51761e-22 -9.87742e-16 0)
(1.07678e-21 -9.87742e-16 0)
(1.60679e-21 -9.87742e-16 0)
(2.14278e-21 -9.87742e-16 0)
(2.68603e-21 -9.87742e-16 0)
(3.23799e-21 -9.87742e-16 0)
(3.80018e-21 -9.87741e-16 0)
(4.37394e-21 -9.87741e-16 0)
(4.96011e-21 -9.87741e-16 0)
(5.55867e-21 -9.87741e-16 0)
(6.16828e-21 -9.87741e-16 0)
(6.7859e-21 -9.87741e-16 0)
(7.40654e-21 -9.87741e-16 0)
(8.02326e-21 -9.87742e-16 0)
(8.62753e-21 -9.87742e-16 0)
(2.10026e-20 -3.56461e-15 0)
(8.31929e-12 -1.62059e-05 0)
(-3.94927e-08 -0.000477841 0)
(-3.57572e-22 -9.87754e-16 0)
(-1.05261e-21 -9.87754e-16 0)
(-1.69582e-21 -9.87753e-16 0)
(-2.2664e-21 -9.87753e-16 0)
(-2.74859e-21 -9.87752e-16 0)
(-3.13185e-21 -9.87752e-16 0)
(-3.41076e-21 -9.87751e-16 0)
(-3.58463e-21 -9.8775e-16 0)
(-3.65691e-21 -9.8775e-16 0)
(-3.63434e-21 -9.87749e-16 0)
(-3.52607e-21 -9.87748e-16 0)
(-3.34275e-21 -9.87748e-16 0)
(-3.09557e-21 -9.87747e-16 0)
(-2.79554e-21 -9.87747e-16 0)
(-2.45286e-21 -9.87746e-16 0)
(-2.07653e-21 -9.87746e-16 0)
(-1.67414e-21 -9.87745e-16 0)
(-1.25181e-21 -9.87745e-16 0)
(-8.14289e-22 -9.87745e-16 0)
(-3.65132e-22 -9.87744e-16 0)
(9.31097e-23 -9.87744e-16 0)
(5.58669e-22 -9.87744e-16 0)
(1.03038e-21 -9.87743e-16 0)
(1.5075e-21 -9.87743e-16 0)
(1.98962e-21 -9.87743e-16 0)
(2.4765e-21 -9.87743e-16 0)
(2.96801e-21 -9.87743e-16 0)
(3.46397e-21 -9.87743e-16 0)
(3.96404e-21 -9.87743e-16 0)
(4.4676e-21 -9.87743e-16 0)
(4.97349e-21 -9.87743e-16 0)
(5.47993e-21 -9.87743e-16 0)
(5.98429e-21 -9.87743e-16 0)
(6.48304e-21 -9.87743e-16 0)
(6.97162e-21 -9.87743e-16 0)
(7.44443e-21 -9.87743e-16 0)
(7.8949e-21 -9.87743e-16 0)
(2.00216e-20 -3.82807e-15 0)
(-1.3169e-10 -1.48445e-05 0)
(-4.10025e-08 -0.00047732 0)
(-2.62164e-22 -9.87753e-16 0)
(-7.71664e-22 -9.87753e-16 0)
(-1.24291e-21 -9.87752e-16 0)
(-1.66045e-21 -9.87752e-16 0)
(-2.0125e-21 -9.87752e-16 0)
(-2.291e-21 -9.87751e-16 0)
(-2.49155e-21 -9.87751e-16 0)
(-2.61309e-21 -9.8775e-16 0)
(-2.65744e-21 -9.8775e-16 0)
(-2.62879e-21 -9.87749e-16 0)
(-2.53301e-21 -9.87749e-16 0)
(-2.37712e-21 -9.87748e-16 0)
(-2.16866e-21 -9.87748e-16 0)
(-1.91518e-21 -9.87747e-16 0)
(-1.62391e-21 -9.87747e-16 0)
(-1.30141e-21 -9.87746e-16 0)
(-9.5349e-22 -9.87746e-16 0)
(-5.85068e-22 -9.87746e-16 0)
(-2.0024e-22 -9.87745e-16 0)
(1.97668e-22 -9.87745e-16 0)
(6.05994e-22 -9.87745e-16 0)
(1.02262e-21 -9.87745e-16 0)
(1.44587e-21 -9.87744e-16 0)
(1.87437e-21 -9.87744e-16 0)
(2.30698e-21 -9.87744e-16 0)
(2.74267e-21 -9.87744e-16 0)
(3.18046e-21 -9.87744e-16 0)
(3.6193e-21 -9.87744e-16 0)
(4.05801e-21 -9.87744e-16 0)
(4.4952e-21 -9.87744e-16 0)
(4.92918e-21 -9.87744e-16 0)
(5.35794e-21 -9.87744e-16 0)
(5.7791e-21 -9.87744e-16 0)
(6.18994e-21 -9.87744e-16 0)
(6.58747e-21 -9.87744e-16 0)
(6.9685e-21 -9.87744e-16 0)
(7.32988e-21 -9.87744e-16 0)
(1.94935e-20 -4.09535e-15 0)
(-1.12226e-09 -1.36012e-05 0)
(-4.18659e-08 -0.000476808 0)
(-1.88621e-22 -9.87752e-16 0)
(-5.54915e-22 -9.87752e-16 0)
(-8.92865e-22 -9.87752e-16 0)
(-1.19086e-21 -9.87752e-16 0)
(-1.43995e-21 -9.87751e-16 0)
(-1.63386e-21 -9.87751e-16 0)
(-1.76897e-21 -9.87751e-16 0)
(-1.84404e-21 -9.8775e-16 0)
(-1.85989e-21 -9.8775e-16 0)
(-1.81906e-21 -9.87749e-16 0)
(-1.72536e-21 -9.87749e-16 0)
(-1.58345e-21 -9.87748e-16 0)
(-1.39851e-21 -9.87748e-16 0)
(-1.17583e-21 -9.87748e-16 0)
(-9.20604e-22 -9.87747e-16 0)
(-6.37733e-22 -9.87747e-16 0)
(-3.31672e-22 -9.87747e-16 0)
(-6.38682e-24 -9.87746e-16 0)
(3.34661e-22 -9.87746e-16 0)
(6.8849e-22 -9.87746e-16 0)
(1.05255e-21 -9.87746e-16 0)
(1.42466e-21 -9.87745e-16 0)
(1.80294e-21 -9.87745e-16 0)
(2.18572e-21 -9.87745e-16 0)
(2.5715e-21 -9.87745e-16 0)
(2.95888e-21 -9.87745e-16 0)
(3.34649e-21 -9.87745e-16 0)
(3.73292e-21 -9.87745e-16 0)
(4.11674e-21 -9.87745e-16 0)
(4.49638e-21 -9.87745e-16 0)
(4.87019e-21 -9.87745e-16 0)
(5.23639e-21 -9.87745e-16 0)
(5.59311e-21 -9.87745e-16 0)
(5.93842e-21 -9.87745e-16 0)
(6.2704e-21 -9.87745e-16 0)
(6.58723e-21 -9.87745e-16 0)
(6.88727e-21 -9.87745e-16 0)
(1.9195e-20 -4.36672e-15 0)
(-1.66592e-09 -1.24511e-05 0)
(-4.20189e-08 -0.000476304 0)
(-1.31412e-22 -9.87752e-16 0)
(-3.86159e-22 -9.87752e-16 0)
(-6.1986e-22 -9.87751e-16 0)
(-8.23679e-22 -9.87751e-16 0)
(-9.90714e-22 -9.87751e-16 0)
(-1.11604e-21 -9.87751e-16 0)
(-1.19663e-21 -9.8775e-16 0)
(-1.23121e-21 -9.8775e-16 0)
(-1.22002e-21 -9.8775e-16 0)
(-1.16455e-21 -9.87749e-16 0)
(-1.06728e-21 -9.87749e-16 0)
(-9.31364e-22 -9.87749e-16 0)
(-7.60388e-22 -9.87748e-16 0)
(-5.58146e-22 -9.87748e-16 0)
(-3.28448e-22 -9.87748e-16 0)
(-7.49848e-23 -9.87747e-16 0)
(1.98772e-22 -9.87747e-16 0)
(4.89624e-22 -9.87747e-16 0)
(7.94672e-22 -9.87747e-16 0)
(1.11131e-21 -9.87747e-16 0)
(1.43721e-21 -9.87746e-16 0)
(1.7703e-21 -9.87746e-16 0)
(2.10869e-21 -9.87746e-16 0)
(2.45067e-21 -9.87746e-16 0)
(2.79464e-21 -9.87746e-16 0)
(3.13909e-21 -9.87746e-16 0)
(3.48257e-21 -9.87746e-16 0)
(3.82362e-21 -9.87746e-16 0)
(4.16079e-21 -9.87746e-16 0)
(4.4926e-21 -9.87746e-16 0)
(4.81757e-21 -9.87746e-16 0)
(5.13417e-21 -9.87746e-16 0)
(5.4409e-21 -9.87746e-16 0)
(5.73631e-21 -9.87746e-16 0)
(6.01903e-21 -9.87746e-16 0)
(6.28788e-21 -9.87746e-16 0)
(6.54197e-21 -9.87746e-16 0)
(1.9095e-20 -4.65352e-15 0)
(-1.79979e-09 -1.13758e-05 0)
(-4.16349e-08 -0.000475806 0)
(-8.6545e-23 -9.87751e-16 0)
(-2.53703e-22 -9.87751e-16 0)
(-4.05241e-22 -9.87751e-16 0)
(-5.34344e-22 -9.87751e-16 0)
(-6.35632e-22 -9.87751e-16 0)
(-7.0518e-22 -9.87751e-16 0)
(-7.40469e-22 -9.8775e-16 0)
(-7.40269e-22 -9.8775e-16 0)
(-7.04484e-22 -9.8775e-16 0)
(-6.33968e-22 -9.8775e-16 0)
(-5.30325e-22 -9.87749e-16 0)
(-3.95719e-22 -9.87749e-16 0)
(-2.32688e-22 -9.87749e-16 0)
(-4.39901e-23 -9.87748e-16 0)
(1.67532e-22 -9.87748e-16 0)
(3.99055e-22 -9.87748e-16 0)
(6.47847e-22 -9.87748e-16 0)
(9.11321e-22 -9.87748e-16 0)
(1.18706e-21 -9.87747e-16 0)
(1.47283e-21 -9.87747e-16 0)
(1.76658e-21 -9.87747e-16 0)
(2.06641e-21 -9.87747e-16 0)
(2.37057e-21 -9.87747e-16 0)
(2.67745e-21 -9.87747e-16 0)
(2.98552e-21 -9.87747e-16 0)
(3.29333e-21 -9.87746e-16 0)
(3.59951e-21 -9.87746e-16 0)
(3.9027e-21 -9.87746e-16 0)
(4.20158e-21 -9.87746e-16 0)
(4.49484e-21 -9.87746e-16 0)
(4.78116e-21 -9.87746e-16 0)
(5.05922e-21 -9.87746e-16 0)
(5.32767e-21 -9.87746e-16 0)
(5.58516e-21 -9.87746e-16 0)
(5.83034e-21 -9.87746e-16 0)
(6.06189e-21 -9.87747e-16 0)
(6.27867e-21 -9.87747e-16 0)
(1.92249e-20 -4.99032e-15 0)
(-1.52292e-09 -1.03621e-05 0)
(-4.08461e-08 -0.000475315 0)
(-5.11175e-23 -9.87751e-16 0)
(-1.4904e-22 -9.87751e-16 0)
(-2.35412e-22 -9.87751e-16 0)
(-3.04915e-22 -9.87751e-16 0)
(-3.53302e-22 -9.87751e-16 0)
(-3.77418e-22 -9.87751e-16 0)
(-3.75157e-22 -9.8775e-16 0)
(-3.45387e-22 -9.8775e-16 0)
(-2.87831e-22 -9.8775e-16 0)
(-2.02947e-22 -9.8775e-16 0)
(-9.17794e-23 -9.87749e-16 0)
(4.41688e-23 -9.87749e-16 0)
(2.0307e-22 -9.87749e-16 0)
(3.82885e-22 -9.87749e-16 0)
(5.81458e-22 -9.87749e-16 0)
(7.96598e-22 -9.87748e-16 0)
(1.02614e-21 -9.87748e-16 0)
(1.26798e-21 -9.87748e-16 0)
(1.52011e-21 -9.87748e-16 0)
(1.78064e-21 -9.87748e-16 0)
(2.04779e-21 -9.87748e-16 0)
(2.31989e-21 -9.87747e-16 0)
(2.59539e-21 -9.87747e-16 0)
(2.87285e-21 -9.87747e-16 0)
(3.1509e-21 -9.87747e-16 0)
(3.42827e-21 -9.87747e-16 0)
(3.70374e-21 -9.87747e-16 0)
(3.97618e-21 -9.87747e-16 0)
(4.24449e-21 -9.87747e-16 0)
(4.50761e-21 -9.87747e-16 0)
(4.76452e-21 -9.87747e-16 0)
(5.01416e-21 -9.87747e-16 0)
(5.25542e-21 -9.87747e-16 0)
(5.48702e-21 -9.87747e-16 0)
(5.70733e-21 -9.87747e-16 0)
(5.91401e-21 -9.87747e-16 0)
(6.10343e-21 -9.87747e-16 0)
(1.9778e-20 -5.33371e-15 0)
(-5.24957e-10 -9.40065e-06 0)
(-3.97749e-08 -0.000474823 0)
(-2.29987e-23 -9.87751e-16 0)
(-6.59154e-23 -9.87751e-16 0)
(-1.00366e-22 -9.87751e-16 0)
(-1.22141e-22 -9.87751e-16 0)
(-1.27853e-22 -9.87751e-16 0)
(-1.14938e-22 -9.87751e-16 0)
(-8.1634e-23 -9.8775e-16 0)
(-2.69202e-23 -9.8775e-16 0)
(4.95617e-23 -9.8775e-16 0)
(1.47599e-22 -9.8775e-16 0)
(2.66509e-22 -9.8775e-16 0)
(4.05231e-22 -9.8775e-16 0)
(5.62429e-22 -9.87749e-16 0)
(7.36566e-22 -9.87749e-16 0)
(9.25984e-22 -9.87749e-16 0)
(1.12896e-21 -9.87749e-16 0)
(1.34375e-21 -9.87749e-16 0)
(1.56865e-21 -9.87748e-16 0)
(1.80198e-21 -9.87748e-16 0)
(2.04216e-21 -9.87748e-16 0)
(2.28765e-21 -9.87748e-16 0)
(2.53704e-21 -9.87748e-16 0)
(2.78896e-21 -9.87748e-16 0)
(3.04218e-21 -9.87748e-16 0)
(3.29553e-21 -9.87748e-16 0)
(3.54793e-21 -9.87748e-16 0)
(3.79839e-21 -9.87748e-16 0)
(4.04603e-21 -9.87748e-16 0)
(4.29006e-21 -9.87748e-16 0)
(4.52979e-21 -9.87748e-16 0)
(4.76469e-21 -9.87748e-16 0)
(4.99439e-21 -9.87748e-16 0)
(5.21877e-21 -9.87748e-16 0)
(5.4381e-21 -9.87748e-16 0)
(5.65319e-21 -9.87748e-16 0)
(5.86585e-21 -9.87748e-16 0)
(6.0795e-21 -9.87748e-16 0)
(2.09673e-20 -5.69095e-15 0)
(6.46465e-12 -8.48549e-06 0)
(-3.90643e-08 -0.0004743 0)
(-6.11053e-25 -9.87751e-16 0)
(3.03704e-25 -9.87751e-16 0)
(7.33405e-24 -9.87751e-16 0)
(2.38527e-23 -9.87751e-16 0)
(5.25999e-23 -9.87751e-16 0)
(9.56775e-23 -9.87751e-16 0)
(1.54569e-22 -9.87751e-16 0)
(2.30182e-22 -9.8775e-16 0)
(3.22904e-22 -9.8775e-16 0)
(4.32671e-22 -9.8775e-16 0)
(5.59034e-22 -9.8775e-16 0)
(7.01238e-22 -9.8775e-16 0)
(8.58285e-22 -9.8775e-16 0)
(1.029e-21 -9.87749e-16 0)
(1.21208e-21 -9.87749e-16 0)
(1.40615e-21 -9.87749e-16 0)
(1.6098e-21 -9.87749e-16 0)
(1.82162e-21 -9.87749e-16 0)
(2.04021e-21 -9.87749e-16 0)
(2.26423e-21 -9.87749e-16 0)
(2.49238e-21 -9.87749e-16 0)
(2.72344e-21 -9.87749e-16 0)
(2.95623e-21 -9.87748e-16 0)
(3.1897e-21 -9.87748e-16 0)
(3.42284e-21 -9.87748e-16 0)
(3.65477e-21 -9.87748e-16 0)
(3.88466e-21 -9.87748e-16 0)
(4.11181e-21 -9.87748e-16 0)
(4.33562e-21 -9.87748e-16 0)
(4.55559e-21 -9.87748e-16 0)
(4.77135e-21 -9.87748e-16 0)
(4.98265e-21 -9.87748e-16 0)
(5.18939e-21 -9.87748e-16 0)
(5.39159e-21 -9.87748e-16 0)
(5.58937e-21 -9.87748e-16 0)
(5.78289e-21 -9.87748e-16 0)
(5.97212e-21 -9.87748e-16 0)
(2.1724e-20 -6.06783e-15 0)
(6.35114e-12 -7.61319e-06 0)
(-3.77031e-08 -0.000473755 0)
(1.72228e-23 -9.87751e-16 0)
(5.3079e-23 -9.87751e-16 0)
(9.32504e-23 -9.87751e-16 0)
(1.4048e-22 -9.87751e-16 0)
(1.97015e-22 -9.87751e-16 0)
(2.64599e-22 -9.87751e-16 0)
(3.44493e-22 -9.87751e-16 0)
(4.37501e-22 -9.87751e-16 0)
(5.44011e-22 -9.8775e-16 0)
(6.64049e-22 -9.8775e-16 0)
(7.97326e-22 -9.8775e-16 0)
(9.43293e-22 -9.8775e-16 0)
(1.10119e-21 -9.8775e-16 0)
(1.2701e-21 -9.8775e-16 0)
(1.449e-21 -9.8775e-16 0)
(1.63675e-21 -9.8775e-16 0)
(1.8322e-21 -9.87749e-16 0)
(2.03417e-21 -9.87749e-16 0)
(2.24147e-21 -9.87749e-16 0)
(2.45296e-21 -9.87749e-16 0)
(2.66751e-21 -9.87749e-16 0)
(2.88406e-21 -9.87749e-16 0)
(3.10159e-21 -9.87749e-16 0)
(3.31918e-21 -9.87749e-16 0)
(3.53595e-21 -9.87749e-16 0)
(3.75113e-21 -9.87749e-16 0)
(3.96402e-21 -9.87749e-16 0)
(4.17402e-21 -9.87749e-16 0)
(4.38062e-21 -9.87749e-16 0)
(4.5834e-21 -9.87749e-16 0)
(4.78203e-21 -9.87749e-16 0)
(4.97625e-21 -9.87749e-16 0)
(5.16591e-21 -9.87749e-16 0)
(5.35087e-21 -9.87749e-16 0)
(5.53106e-21 -9.87749e-16 0)
(5.70638e-21 -9.87749e-16 0)
(5.87672e-21 -9.87749e-16 0)
(2.2393e-20 -6.4568e-15 0)
(6.47399e-12 -6.78067e-06 0)
(-3.61671e-08 -0.000473218 0)
(3.13855e-23 -9.87751e-16 0)
(9.50083e-23 -9.87751e-16 0)
(1.61567e-22 -9.87751e-16 0)
(2.3333e-22 -9.87751e-16 0)
(3.1217e-22 -9.87751e-16 0)
(3.99557e-22 -9.87751e-16 0)
(4.96576e-22 -9.87751e-16 0)
(6.03942e-22 -9.87751e-16 0)
(7.22037e-22 -9.87751e-16 0)
(8.50941e-22 -9.87751e-16 0)
(9.90475e-22 -9.8775e-16 0)
(1.14024e-21 -9.8775e-16 0)
(1.29964e-21 -9.8775e-16 0)
(1.46797e-21 -9.8775e-16 0)
(1.64436e-21 -9.8775e-16 0)
(1.8279e-21 -9.8775e-16 0)
(2.01762e-21 -9.8775e-16 0)
(2.2125e-21 -9.8775e-16 0)
(2.41151e-21 -9.8775e-16 0)
(2.61366e-21 -9.8775e-16 0)
(2.81794e-21 -9.8775e-16 0)
(3.0234e-21 -9.87749e-16 0)
(3.22913e-21 -9.87749e-16 0)
(3.43429e-21 -9.87749e-16 0)
(3.63809e-21 -9.87749e-16 0)
(3.83982e-21 -9.87749e-16 0)
(4.03884e-21 -9.87749e-16 0)
(4.23462e-21 -9.87749e-16 0)
(4.42669e-21 -9.87749e-16 0)
(4.61466e-21 -9.87749e-16 0)
(4.79823e-21 -9.87749e-16 0)
(4.97716e-21 -9.87749e-16 0)
(5.1513e-21 -9.87749e-16 0)
(5.32049e-21 -9.87749e-16 0)
(5.48466e-21 -9.87749e-16 0)
(5.64369e-21 -9.87749e-16 0)
(5.79749e-21 -9.87749e-16 0)
(2.33257e-20 -6.8028e-15 0)
(6.47291e-12 -5.98596e-06 0)
(-3.44893e-08 -0.000472688 0)
(4.254e-23 -9.87751e-16 0)
(1.28043e-22 -9.87751e-16 0)
(2.15431e-22 -9.87751e-16 0)
(3.06615e-22 -9.87751e-16 0)
(4.03187e-22 -9.87751e-16 0)
(5.06411e-22 -9.87751e-16 0)
(6.17237e-22 -9.87751e-16 0)
(7.36312e-22 -9.87751e-16 0)
(8.6401e-22 -9.87751e-16 0)
(1.00045e-21 -9.87751e-16 0)
(1.14554e-21 -9.87751e-16 0)
(1.29898e-21 -9.87751e-16 0)
(1.46032e-21 -9.87751e-16 0)
(1.62897e-21 -9.8775e-16 0)
(1.80425e-21 -9.8775e-16 0)
(1.98536e-21 -9.8775e-16 0)
(2.17147e-21 -9.8775e-16 0)
(2.36169e-21 -9.8775e-16 0)
(2.55512e-21 -9.8775e-16 0)
(2.75083e-21 -9.8775e-16 0)
(2.94792e-21 -9.8775e-16 0)
(3.14549e-21 -9.8775e-16 0)
(3.34268e-21 -9.8775e-16 0)
(3.53869e-21 -9.8775e-16 0)
(3.73275e-21 -9.8775e-16 0)
(3.92417e-21 -9.8775e-16 0)
(4.11233e-21 -9.8775e-16 0)
(4.2967e-21 -9.8775e-16 0)
(4.47683e-21 -9.8775e-16 0)
(4.65235e-21 -9.8775e-16 0)
(4.82299e-21 -9.8775e-16 0)
(4.98856e-21 -9.8775e-16 0)
(5.14894e-21 -9.8775e-16 0)
(5.3041e-21 -9.8775e-16 0)
(5.45404e-21 -9.8775e-16 0)
(5.59881e-21 -9.8775e-16 0)
(5.73849e-21 -9.8775e-16 0)
(2.38188e-20 -7.01509e-15 0)
(6.32932e-12 -5.22827e-06 0)
(-3.27112e-08 -0.000472166 0)
(5.11821e-23 -9.87751e-16 0)
(1.53646e-22 -9.87751e-16 0)
(2.572e-22 -9.87751e-16 0)
(3.63494e-22 -9.87751e-16 0)
(4.73912e-22 -9.87751e-16 0)
(5.89566e-22 -9.87751e-16 0)
(7.11308e-22 -9.87751e-16 0)
(8.3974e-22 -9.87751e-16 0)
(9.75234e-22 -9.87751e-16 0)
(1.11795e-21 -9.87751e-16 0)
(1.26785e-21 -9.87751e-16 0)
(1.42474e-21 -9.87751e-16 0)
(1.58827e-21 -9.87751e-16 0)
(1.75797e-21 -9.87751e-16 0)
(1.93326e-21 -9.87751e-16 0)
(2.11347e-21 -9.87751e-16 0)
(2.29787e-21 -9.87751e-16 0)
(2.48567e-21 -9.8775e-16 0)
(2.67603e-21 -9.8775e-16 0)
(2.86809e-21 -9.8775e-16 0)
(3.06098e-21 -9.8775e-16 0)
(3.25382e-21 -9.8775e-16 0)
(3.44576e-21 -9.8775e-16 0)
(3.63594e-21 -9.8775e-16 0)
(3.8236e-21 -9.8775e-16 0)
(4.00797e-21 -9.8775e-16 0)
(4.18839e-21 -9.8775e-16 0)
(4.36428e-21 -9.8775e-16 0)
(4.53515e-21 -9.8775e-16 0)
(4.70061e-21 -9.8775e-16 0)
(4.86038e-21 -9.8775e-16 0)
(5.01431e-21 -9.8775e-16 0)
(5.16237e-21 -9.8775e-16 0)
(5.30462e-21 -9.8775e-16 0)
(5.44123e-21 -9.8775e-16 0)
(5.57246e-21 -9.8775e-16 0)
(5.69865e-21 -9.8775e-16 0)
(2.40562e-20 -7.03665e-15 0)
(6.01049e-12 -4.50673e-06 0)
(-3.08509e-08 -0.000471652 0)
(5.76803e-23 -9.87752e-16 0)
(1.729e-22 -9.87751e-16 0)
(2.88623e-22 -9.87751e-16 0)
(4.0631e-22 -9.87751e-16 0)