/*--------------------------------*- C++ -*----------------------------------*\
  =========                 |
  \\      /  F ield         | OpenFOAM: The Open Source CFD Toolbox
   \\    /   O peration     | Website:  https://openfoam.org
    \\  /    A nd           | Version:  10
     \\/     M anipulation  |
\*---------------------------------------------------------------------------*/
FoamFile
{
    format      ascii;
    class       volScalarField;
    location    "0.074";
    object      pMean;
}
// * * * * * * * * * * * * * * * * * * * * * * * * * * * * * * * * * * * * * //

dimensions      [0 2 -2 0 0 0 0];

internalField   nonuniform List<scalar> 
12225
(
9.64561
8.8777
8.44044
8.2222
8.06786
7.91895
7.76958
7.62714
7.49673
7.37888
7.27242
7.17446
7.08294
6.98815
6.88131
6.70841
6.42876
5.71738
9.41298
8.8478
8.43843
8.21289
8.05722
7.90994
7.76138
7.61894
7.48771
7.36917
7.26057
7.16148
7.06414
6.96912
6.84621
6.69288
6.3924
5.94033
9.36587
8.84311
8.44572
8.21032
8.04972
7.90279
7.75506
7.61205
7.47985
7.35907
7.24847
7.14373
7.0421
6.93287
6.80532
6.62614
6.35706
5.93996
9.21573
8.79457
8.43605
8.19953
8.03493
7.88925
7.74342
7.60097
7.46744
7.34501
7.2308
7.1224
7.01278
6.89613
6.75532
6.57226
6.31456
5.96273
9.11755
8.75881
8.43326
8.19716
8.02587
7.8783
7.73371
7.59167
7.45717
7.33206
7.21458
7.10094
6.98543
6.86054
6.71359
6.53001
6.29272
6.0004
9.03046
8.70992
8.41526
8.18637
8.01117
7.86182
7.71824
7.57708
7.44187
7.31474
7.19409
7.07613
6.95532
6.82461
6.67477
6.4957
6.28013
6.02944
8.93048
8.65467
8.39546
8.1775
7.99971
7.84725
7.70392
7.56365
7.42778
7.29826
7.17414
7.05196
6.92665
6.79221
6.6419
6.46964
6.27235
6.05252
8.87144
8.60833
8.36956
8.16347
7.98587
7.83034
7.68606
7.54636
7.41029
7.27894
7.1518
7.02606
6.89737
6.7609
6.61202
6.44712
6.26515
6.06907
8.79027
8.54725
8.33539
8.1447
7.96999
7.81279
7.66744
7.5277
7.39138
7.25865
7.12908
7.00043
6.86934
6.73207
6.58541
6.42739
6.25803
6.08017
8.73654
8.50351
8.30417
8.12456
7.95373
7.79493
7.64774
7.50758
7.37095
7.23695
7.10507
6.97395
6.84111
6.7038
6.55974
6.40791
6.24886
6.0851
8.66576
8.44495
8.26167
8.09474
7.93056
7.77378
7.62618
7.48509
7.3477
7.21272
7.07958
6.94706
6.81332
6.67646
6.53512
6.38887
6.23831
6.08522
8.61577
8.40735
8.23375
8.07293
7.91212
7.75562
7.6067
7.46451
7.32644
7.19065
7.05618
6.92233
6.78796
6.65173
6.51267
6.3705
6.22594
6.08033
8.55822
8.35673
8.19172
8.04011
7.8857
7.73231
7.58396
7.44104
7.30221
7.16589
7.03096
6.89655
6.76193
6.62635
6.48933
6.35079
6.21119
6.07141
8.54172
8.32302
8.15496
8.00944
7.86141
7.70985
7.56025
7.41572
7.27576
7.13857
7.0028
6.86773
6.73294
6.59806
6.46288
6.32732
6.19178
6.05685
8.48293
8.26419
8.10254
7.96646
7.82509
7.67683
7.52821
7.38346
7.24293
7.10521
6.96897
6.83357
6.69884
6.56473
6.43121
6.2983
6.16616
6.03508
8.41961
8.21211
8.06022
7.92926
7.79054
7.64329
7.49469
7.34939
7.20809
7.06965
6.93293
6.79734
6.66279
6.52938
6.39711
6.26601
6.1361
6.00759
8.3358
8.151
8.01151
7.88453
7.74742
7.60264
7.45619
7.31158
7.16983
7.03055
6.89305
6.75699
6.6223
6.48911
6.35746
6.22736
6.09868
5.9715
8.29055
8.10141
7.96273
7.83964
7.70693
7.56428
7.41791
7.27281
7.13065
6.99109
6.85333
6.71704
6.58223
6.44907
6.31762
6.18787
6.0598
5.93337
8.35666
8.12323
7.95263
7.81487
7.67743
7.53335
7.38557
7.23829
7.09362
6.95178
6.81231
6.67479
6.53912
6.40536
6.27356
6.14371
6.01574
5.88955
8.26522
8.068
7.92228
7.79432
7.6569
7.50983
7.36
7.21218
7.06766
6.92582
6.78591
6.64778
6.51154
6.37737
6.24534
6.11541
5.98747
5.8615
8.29331
8.0974
7.94297
7.80171
7.65413
7.50227
7.35059
7.20132
7.05488
6.91103
6.76951
6.63021
6.49319
6.35852
6.22626
6.09635
5.96873
5.84326
8.29946
8.11011
7.95675
7.8129
7.66139
7.50519
7.3503
7.19928
7.05166
6.90658
6.76387
6.62364
6.48601
6.351
6.21851
6.08848
5.96085
5.83563
8.40888
8.16043
7.97134
7.81551
7.661
7.50345
7.34712
7.19441
7.04524
6.899
6.75548
6.61475
6.47689
6.3418
6.20944
6.07975
5.95264
5.82801
8.48184
8.22554
8.01798
7.84328
7.67809
7.51686
7.35917
7.20474
7.05323
6.9047
6.75953
6.61783
6.47937
6.34387
6.2112
6.08129
5.95414
5.82983
8.43457
8.22409
8.02663
7.84271
7.6708
7.50943
7.35349
7.19954
7.04737
6.89826
6.75302
6.6115
6.47329
6.33809
6.20576
6.07628
5.94967
5.82582
8.60016
8.31238
8.0663
7.86417
7.68863
7.52681
7.36901
7.21208
7.05724
6.90633
6.75993
6.61769
6.47896
6.34329
6.21057
6.08087
5.95416
5.83042
8.63695
8.32283
8.05835
7.85373
7.68349
7.52518
7.36743
7.20929
7.0538
6.90304
6.75711
6.6152
6.47663
6.3411
6.20861
6.07921
5.95291
5.82973
8.75006
8.38985
8.08536
7.86771
7.69787
7.53935
7.3787
7.21778
7.06082
6.90941
6.76304
6.62074
6.48183
6.3461
6.21352
6.08412
5.9578
5.83431
8.77221
8.3871
8.07333
7.86285
7.69854
7.54023
7.3784
7.217
7.06013
6.90891
6.76263
6.62035
6.48141
6.34565
6.21302
6.08379
5.9578
5.83523
9
8.42445
8.07116
7.86898
7.7079
7.54747
7.38368
7.22147
7.06433
6.91292
6.76646
6.62402
6.48492
6.34908
6.21639
6.08727
5.96151
5.83991
2.66219
2.49955
2.34302
2.29689
2.39677
2.59351
2.76741
2.79523
2.60936
2.21418
1.6526
0.989429
0.298846
-0.355223
-0.926571
-1.38864
-1.72824
-1.94057
-2.0301
-2.01198
-1.91403
-1.75301
-1.5541
-1.34211
-1.16055
-1.03888
-1.03059
-1.12826
-1.28441
-1.46448
-1.67574
-1.95798
-2.33674
-2.78236
-3.24366
-3.69495
-4.12677
-4.62297
-5.26948
-6.01615
-6.71024
-7.28808
-7.76808
-8.21742
-8.70119
-9.1633
-9.56105
-9.90113
-10.1073
-10.2138
-10.3965
-10.6132
-10.8288
-11.0487
-11.2509
-11.3895
-11.4254
-11.4705
-11.5913
-11.7695
-11.9476
-12.111
-12.1603
-12.1411
-12.1415
-12.1823
-12.2209
-12.2356
-12.2044
-12.1182
-11.9721
-11.7678
-11.5057
-11.1989
-10.8662
-10.4996
-10.0752
-9.56215
-8.94079
-8.21143
-7.39613
-6.53319
-5.63096
-4.71179
-3.76071
-2.82989
-1.84488
-0.843449
0.0780192
0.670625
0.925077
1.04768
1.18917
1.42656
1.79906
2.32096
2.99628
3.82323
4.7983
5.91595
7.16825
8.54366
10.026
11.5946
13.224
14.8848
16.5452
18.1734
19.7386
21.2128
22.5725
23.7987
24.88
25.8131
26.6013
27.2529
27.7767
28.1822
28.4778
28.6711
28.7692
28.7789
28.7073
28.5623
28.3524
28.086
27.7718
27.4187
27.0351
26.629
26.2077
25.778
25.3459
24.9167
24.495
24.0849
23.6897
23.3122
22.9549
22.6195
22.3077
22.0203
21.758
21.5211
21.3096
21.1232
20.9615
20.8236
20.7086
20.6156
20.5435
20.491
20.4563
20.4372
20.4298
20.4283
20.4258
20.4139
20.3852
20.3369
20.2751
20.2151
20.1651
20.1118
20.0507
19.9888
19.9189
19.8411
19.7648
19.6988
19.6411
19.5907
19.5529
19.5286
19.5072
19.503
19.5424
19.6264
19.7519
19.9225
1.8949
1.73945
1.60287
1.52259
1.59493
1.72094
1.78796
1.69492
1.40495
0.943723
0.366316
-0.264861
-0.892609
-1.47051
-1.96631
-2.35954
-2.6424
-2.81394
-2.87625
-2.84489
-2.72857
-2.55767
-2.36677
-2.17182
-1.99119
-1.88635
-1.85182
-1.92779
-2.07072
-2.28842
-2.65686
-3.14188
-3.69382
-4.26292
-4.80162
-5.31119
-5.79872
-6.30275
-6.87864
-7.53705
-8.1709
-8.69735
-9.11014
-9.4545
-9.8335
-10.1826
-10.6079
-11.1481
-11.4609
-11.6204
-11.8067
-11.9877
-12.1438
-12.2724
-12.3575
-12.4442
-12.4793
-12.4987
-12.5749
-12.6863
-12.7847
-12.8968
-12.9778
-13.0012
-13.049
-13.1119
-13.1618
-13.1728
-13.1269
-13.0168
-12.8377
-12.5968
-12.3
-11.9582
-11.5876
-11.1837
-10.7251
-10.1842
-9.53738
-8.78359
-7.93972
-7.04483
-6.1103
-5.15241
-4.18284
-3.24109
-2.35597
-1.53822
-0.809996
-0.31026
-0.0357808
0.174802
0.417747
0.755064
1.21322
1.80541
2.53645
3.40792
4.41859
5.56555
6.84328
8.24227
9.74736
11.3378
12.9881
14.6688
16.3485
17.9953
19.5785
21.0703
22.4464
23.6873
24.7806
25.7225
26.5172
27.1731
27.7004
28.1089
28.4075
28.604
28.7052
28.7178
28.6488
28.5065
28.299
28.0349
27.723
27.372
26.9905
26.5865
26.1672
25.7394
25.309
24.8812
24.4607
24.0513
23.6566
23.2794
22.9222
22.5868
22.2747
21.9871
21.7246
21.4873
21.2753
21.0883
20.9255
20.7863
20.6697
20.5747
20.4999
20.4439
20.4045
20.379
20.3631
20.351
20.3363
20.3131
20.2777
20.232
20.1848
20.148
20.1156
20.0616
19.9927
19.9291
19.86
19.7836
19.7109
19.6494
19.5961
19.5487
19.5123
19.4886
19.4703
19.4718
19.522
19.593
19.6972
19.7909
2.15473
2.08754
1.90142
1.62154
1.31437
0.989462
0.614759
0.155679
-0.396351
-1.01425
-1.65142
-2.26919
-2.83414
-3.32231
-3.71652
-4.008
-4.19486
-4.28083
-4.2775
-4.20289
-4.06817
-3.88637
-3.68199
-3.48337
-3.30127
-3.18774
-3.13844
-3.16879
-3.31382
-3.58003
-3.97503
-4.48032
-5.06878
-5.69457
-6.31653
-6.89897
-7.48133
-8.10605
-8.7618
-9.42317
-9.99794
-10.4381
-10.7315
-11.0325
-11.4417
-11.8873
-12.3146
-12.7717
-13.1678
-13.451
-13.6625
-13.8078
-13.8875
-13.9208
-13.937
-13.9358
-13.9273
-13.9193
-13.917
-13.9298
-13.9701
-14.0395
-14.1456
-14.2645
-14.3881
-14.495
-14.562
-14.5652
-14.4894
-14.3287
-14.0861
-13.7807
-13.4305
-13.0508
-12.6471
-12.2018
-11.6936
-11.1011
-10.4037
-9.60103
-8.70723
-7.75391
-6.76721
-5.77966
-4.8332
-3.97747
-3.26381
-2.6577
-2.14756
-1.72883
-1.37485
-1.02757
-0.645709
-0.190016
0.362321
1.02822
1.81621
2.73226
3.77908
4.95742
6.26417
7.69173
9.22633
10.8482
12.5319
14.2472
15.9613
17.6415
19.2572
20.7803
22.1862
23.4542
24.5701
25.5294
26.3367
27.0019
27.5367
27.9521
28.2574
28.4606
28.5684
28.5871
28.5241
28.3875
28.1853
27.9263
27.6194
27.2733
26.8965
26.497
26.0821
25.6583
25.2315
24.807
24.3893
23.9825
23.5898
23.2143
22.8584
22.5241
22.2128
21.9256
21.6631
21.4256
21.213
21.0251
20.861
20.7202
20.6018
20.5044
20.4268
20.3673
20.3235
20.2927
20.2708
20.253
20.2337
20.2082
20.1736
20.1312
20.0857
20.0425
20.0007
19.9558
19.9067
19.8496
19.7785
19.6999
19.628
19.5695
19.5216
19.4814
19.4516
19.4323
19.4229
19.4274
19.4668
19.5208
19.6077
19.6604
2.08313
1.99732
1.69505
1.21212
0.599611
-0.0817292
-0.787206
-1.50199
-2.21151
-2.89437
-3.52943
-4.1016
-4.59539
-4.99888
-5.30587
-5.51832
-5.64204
-5.68505
-5.663
-5.58479
-5.46528
-5.31751
-5.15403
-4.99864
-4.87959
-4.80167
-4.78275
-4.82364
-4.93708
-5.13468
-5.42766
-5.81995
-6.30477
-6.85558
-7.44163
-8.05633
-8.73212
-9.49314
-10.3003
-11.0614
-11.7011
-12.2063
-12.569
-12.9017
-13.3019
-13.7653
-14.2485
-14.7061
-15.0971
-15.3992
-15.6028
-15.7139
-15.7462
-15.7308
-15.7036
-15.6637
-15.6086
-15.5376
-15.4639
-15.4126
-15.4205
-15.5094
-15.6575
-15.8313
-16.0063
-16.1538
-16.2434
-16.2462
-16.1423
-15.9227
-15.5973
-15.2035
-14.7808
-14.3473
-13.9004
-13.4272
-12.8868
-12.2403
-11.4737
-10.6035
-9.64961
-8.64955
-7.64855
-6.69135
-5.81183
-5.08894
-4.51664
-4.0516
-3.63076
-3.22876
-2.82626
-2.3972
-1.92104
-1.37389
-0.73902
-0.00219627
0.845044
1.81003
2.89851
4.11451
5.45797
6.92321
8.4974
10.161
11.8889
13.6499
15.4096
17.1339
18.7918
20.3557
21.8012
23.1061
24.2536
25.2377
26.0635
26.7427
27.2889
27.7147
28.0302
28.2435
28.3609
28.389
28.3348
28.2064
28.0121
27.7607
27.4611
27.1223
26.7526
26.36
25.9516
25.534
25.1128
24.6933
24.28
23.8767
23.487
23.1139
22.7598
22.4269
22.1167
21.8303
21.5684
21.3312
21.1187
20.9304
20.7659
20.6242
20.5043
20.4049
20.3245
20.2615
20.2136
20.1782
20.1516
20.1294
20.1073
20.0818
20.0503
20.0133
19.9729
19.9314
19.8898
19.8438
19.7892
19.7264
19.6587
19.5835
19.509
19.4479
19.4011
19.3645
19.3398
19.3259
19.3246
19.3365
19.3801
19.4307
19.4971
19.5181
1.85167
1.60226
1.07174
0.342983
-0.477245
-1.32075
-2.15025
-2.94438
-3.69619
-4.39772
-5.04161
-5.61532
-6.10415
-6.49472
-6.78218
-6.97431
-7.0847
-7.12773
-7.11921
-7.07176
-6.99478
-6.89755
-6.79993
-6.72083
-6.67657
-6.67775
-6.72619
-6.81695
-6.94339
-7.10219
-7.29869
-7.54735
-7.8664
-8.26726
-8.75523
-9.33966
-10.039
-10.8509
-11.7121
-12.5368
-13.2552
-13.8637
-14.3782
-14.847
-15.3157
-15.8046
-16.2976
-16.7558
-17.1498
-17.4583
-17.6623
-17.7615
-17.7709
-17.7265
-17.6614
-17.5766
-17.4704
-17.3499
-17.2375
-17.1658
-17.1848
-17.2908
-17.4414
-17.6121
-17.7823
-17.9217
-17.9954
-17.9675
-17.8143
-17.5263
-17.1193
-16.638
-16.1291
-15.6171
-15.1003
-14.5639
-13.9741
-13.2871
-12.4809
-11.5692
-10.5843
-9.57496
-8.6006
-7.71426
-6.95868
-6.36953
-5.91471
-5.52279
-5.14275
-4.75578
-4.34104
-3.87711
-3.34726
-2.73561
-2.03217
-1.22924
-0.322327
0.694471
1.82847
3.08661
4.4717
5.97994
7.59978
9.31256
11.0929
12.9084
14.7218
16.497
18.202
19.8107
21.3001
22.6473
23.8325
24.8474
25.697
26.3946
26.9561
27.3957
27.7248
27.9513
28.0812
28.121
28.078
27.96
27.7757
27.5342
27.2445
26.9155
26.5555
26.1722
25.7727
25.3632
24.9494
24.5363
24.1283
23.7295
23.3435
22.9735
22.6221
22.2913
21.9828
21.6978
21.437
21.2007
20.989
20.8015
20.6374
20.4959
20.3757
20.2755
20.1936
20.1281
20.0771
20.0378
20.0071
19.9812
19.9569
19.9313
19.9024
19.8695
19.8336
19.7962
19.7582
19.7164
19.6649
19.6037
19.5363
19.461
19.3825
19.3118
19.2571
19.2195
19.1979
19.1889
19.1944
19.2136
19.2593
19.3088
19.3653
19.3743
1.30786
0.864594
0.106659
-0.737693
-1.62708
-2.51926
-3.38233
-4.20726
-4.99502
-5.74487
-6.44591
-7.07856
-7.62199
-8.05965
-8.38755
-8.61583
-8.75895
-8.83301
-8.85712
-8.84878
-8.82064
-8.78583
-8.75978
-8.75597
-8.78736
-8.86072
-8.9742
-9.11844
-9.27972
-9.4466
-9.61625
-9.80037
-10.0267
-10.3309
-10.7409
-11.2843
-11.9649
-12.7679
-13.6341
-14.4962
-15.2962
-16.0105
-16.6449
-17.2168
-17.7476
-18.2576
-18.7446
-19.1869
-19.5612
-19.8461
-20.0283
-20.1093
-20.0933
-20.0016
-19.8677
-19.7107
-19.5427
-19.3781
-19.2388
-19.1688
-19.2026
-19.2952
-19.4086
-19.5274
-19.632
-19.6955
-19.6901
-19.5833
-19.3507
-18.9843
-18.4984
-17.9294
-17.3159
-16.6867
-16.0582
-15.4254
-14.7565
-14.015
-13.18
-12.2606
-11.2902
-10.3334
-9.44703
-8.67905
-8.06751
-7.61209
-7.25838
-6.93496
-6.60952
-6.26282
-5.86813
-5.40354
-4.85102
-4.19838
-3.44132
-2.58017
-1.61656
-0.547738
0.633319
1.93564
3.36426
4.91752
6.58603
8.35192
10.1898
12.0656
13.9386
15.7688
17.5229
19.1759
20.7073
22.0953
23.3194
24.3683
25.2455
25.9654
26.5455
27.0025
27.3486
27.591
27.7357
27.7894
27.7592
27.6536
27.4814
27.252
26.9744
26.6575
26.3095
25.9378
25.549
25.1492
24.7439
24.3377
23.9356
23.5417
23.1598
22.793
22.4442
22.1156
21.809
21.5258
21.2668
21.0323
20.8224
20.6368
20.4746
20.3347
20.2159
20.1166
20.0349
19.9688
19.9159
19.8736
19.839
19.8093
19.7821
19.7553
19.7276
19.6978
19.6659
19.6331
19.5999
19.5641
19.5209
19.4687
19.4079
19.3376
19.2606
19.1853
19.1203
19.0722
19.0455
19.0354
19.0418
19.0636
19.1101
19.1609
19.2133
19.2176
0.103091
-0.360279
-1.07618
-1.86118
-2.68308
-3.52725
-4.37387
-5.21405
-6.04614
-6.86184
-7.63925
-8.35169
-8.9752
-9.49173
-9.89721
-10.2012
-10.419
-10.5706
-10.6773
-10.7554
-10.8167
-10.8736
-10.9389
-11.0253
-11.1418
-11.292
-11.4738
-11.6787
-11.894
-12.1063
-12.3071
-12.5015
-12.7138
-12.9903
-13.3746
-13.9094
-14.591
-15.3936
-16.2746
-17.1806
-18.0544
-18.8606
-19.5844
-20.226
-20.7955
-21.3031
-21.7511
-22.1317
-22.4288
-22.6319
-22.7383
-22.7518
-22.6625
-22.4783
-22.2398
-21.9861
-21.7429
-21.5275
-21.3671
-21.3051
-21.3418
-21.4044
-21.4606
-21.5016
-21.5121
-21.4722
-21.3568
-21.1381
-20.7975
-20.33
-19.7465
-19.0712
-18.3339
-17.5638
-16.7855
-16.0092
-15.2245
-14.4089
-13.5477
-12.6461
-11.7341
-10.874
-10.1167
-9.50096
-9.0438
-8.71819
-8.45987
-8.21551
-7.96262
-7.67745
-7.32955
-6.89376
-6.3472
-5.67752
-4.88423
-3.97542
-2.96146
-1.845
-0.620623
0.722986
2.19446
3.79382
5.51149
7.33059
9.22639
11.1634
13.0975
14.9845
16.7884
18.4834
20.0513
21.4744
22.7341
23.8161
24.7218
25.4656
26.067
26.5443
26.9093
27.1691
27.3298
27.3981
27.3819
27.2899
27.1315
26.9162
26.653
26.3505
26.0165
25.6579
25.2809
24.8914
24.4947
24.0959
23.6999
23.3109
22.9329
22.5692
22.2229
21.8964
21.5918
21.3107
21.0541
20.8225
20.6159
20.4337
20.2751
20.1386
20.023
19.9263
19.8465
19.7812
19.7278
19.6835
19.6457
19.6124
19.5821
19.554
19.5269
19.4997
19.472
19.4442
19.4166
19.3878
19.3547
19.3148
19.2672
19.2102
19.1433
19.0704
18.999
18.9385
18.8978
18.879
18.8803
18.8999
18.9435
18.9929
19.0426
19.0467
-1.1088
-1.48108
-2.01383
-2.67122
-3.4175
-4.21483
-5.03889
-5.88264
-6.74773
-7.62011
-8.4698
-9.26653
-9.98541
-10.6097
-11.134
-11.5629
-11.9093
-12.1915
-12.4276
-12.6312
-12.8144
-12.9895
-13.1692
-13.3632
-13.5776
-13.8152
-14.0744
-14.3497
-14.6309
-14.9057
-15.1641
-15.4091
-15.6648
-15.981
-16.4118
-16.993
-17.7213
-18.5736
-19.5159
-20.4971
-21.4577
-22.3554
-23.1616
-23.8584
-24.4397
-24.9086
-25.2747
-25.5421
-25.7041
-25.7665
-25.7387
-25.6207
-25.3956
-25.0711
-24.6974
-24.3331
-24.0104
-23.7457
-23.5638
-23.5015
-23.524
-23.5444
-23.5384
-23.4999
-23.4151
-23.2693
-23.0424
-22.7115
-22.2598
-21.68
-20.9778
-20.1699
-19.2824
-18.3469
-17.3957
-16.453
-15.5279
-14.6167
-13.7164
-12.8361
-12.0058
-11.2677
-10.6575
-10.1991
-9.88574
-9.67164
-9.4961
-9.32742
-9.14903
-8.93283
-8.64752
-8.26224
-7.7445
-7.07777
-6.26341
-5.31794
-4.26185
-3.10488
-1.84332
-0.463783
1.04663
2.68882
4.45136
6.31778
8.26387
10.2544
12.2434
14.1826
16.0321
17.7629
19.3603
20.8121
22.1012
23.2113
24.1428
24.9097
25.5336
26.0322
26.4165
26.6938
26.8704
26.9537
26.9523
26.8753
26.7325
26.5333
26.2866
26.0003
25.6816
25.3368
24.9721
24.5931
24.205
23.8133
23.423
23.0386
22.664
22.3032
21.9592
21.6349
21.3325
21.0538
20.8001
20.5721
20.3695
20.1918
20.038
19.9065
19.7955
19.7028
19.6261
19.5627
19.5098
19.4645
19.4248
19.3893
19.3574
19.3288
19.3031
19.2791
19.2561
19.2339
19.2125
19.191
19.1674
19.1396
19.1065
19.0664
19.0168
18.9571
18.8904
18.8237
18.7691
18.7341
18.7229
18.7332
18.7683
18.8129
18.8591
18.8633
-1.83539
-2.11187
-2.54488
-3.1207
-3.80155
-4.55042
-5.34812
-6.19022
-7.07927
-7.99708
-8.90988
-9.79
-10.6132
-11.361
-12.0247
-12.6056
-13.1136
-13.5622
-13.9624
-14.3229
-14.6559
-14.975
-15.2921
-15.6138
-15.9439
-16.2841
-16.6333
-16.9882
-17.3421
-17.6865
-18.017
-18.3427
-18.6895
-19.1077
-19.651
-20.3435
-21.1813
-22.1431
-23.1957
-24.2845
-25.3494
-26.3413
-27.2159
-27.9409
-28.499
-28.8924
-29.1413
-29.2589
-29.2477
-29.128
-28.9167
-28.6127
-28.205
-27.7134
-27.1975
-26.7204
-26.3149
-25.9947
-25.7789
-25.693
-25.6759
-25.6413
-25.5739
-25.4674
-25.3051
-25.0717
-24.7457
-24.3057
-23.7376
-23.0343
-22.1993
-21.2466
-20.202
-19.0993
-17.9769
-16.8716
-15.8095
-14.8044
-13.8642
-13.0022
-12.2456
-11.622
-11.1499
-10.8309
-10.6343
-10.501
-10.3839
-10.273
-10.1567
-10.0036
-9.7844
-9.45883
-8.98042
-8.32634
-7.499
-6.5251
-5.43598
-4.24738
-2.95676
-1.54895
-0.0064767
1.67253
3.47376
5.37902
7.36382
9.39486
11.426
13.4037
15.2854
17.0423
18.6604
20.133
21.4428
22.573
23.525
24.3131
24.9581
25.4766
25.8792
26.173
26.365
26.4635
26.4776
26.417
26.2915
26.1102
25.8813
25.612
25.3088
24.9777
24.6247
24.2554
23.8756
23.4904
23.1052
22.7246
22.353
21.9947
21.6528
21.3305
21.0303
20.7541
20.5033
20.2787
20.0802
19.9073
19.7588
19.6329
19.5273
19.4397
19.3671
19.3066
19.2555
19.2114
19.1726
19.1381
19.108
19.0822
19.0601
19.0409
19.0236
19.0079
18.9933
18.9795
18.965
18.9482
18.9282
18.9038
18.8727
18.8319
18.7803
18.7196
18.659
18.6108
18.5829
18.5784
18.5995
18.6327
18.6702
18.6722
-2.13861
-2.3594
-2.7297
-3.24806
-3.88197
-4.60037
-5.38218
-6.22332
-7.12497
-8.07203
-9.03684
-9.99563
-10.9248
-11.803
-12.6175
-13.3646
-14.0487
-14.6756
-15.2503
-15.7802
-16.2786
-16.7593
-17.2311
-17.698
-18.1616
-18.6227
-19.0812
-19.5357
-19.9827
-20.42
-20.8512
-21.2945
-21.7848
-22.367
-23.0803
-23.9377
-24.9336
-26.0433
-27.2311
-28.4376
-29.6024
-30.6676
-31.5815
-32.3057
-32.8199
-33.126
-33.2504
-33.204
-32.9976
-32.6663
-32.2381
-31.7143
-31.0952
-30.4165
-29.7486
-29.1524
-28.6528
-28.2607
-27.9917
-27.857
-27.7802
-27.6823
-27.5549
-27.386
-27.1539
-26.8398
-26.4195
-25.8721
-25.1847
-24.3525
-23.3811
-22.2866
-21.0966
-19.8475
-18.5813
-17.3421
-16.168
-15.0867
-14.1156
-13.2703
-12.5699
-12.0327
-11.6652
-11.4509
-11.3377
-11.2537
-11.168
-11.0921
-11.0165
-10.9073
-10.7404
-10.4655
-10.0206
-9.37701
-8.53841
-7.53983
-6.42302
-5.20955
-3.89836
-2.472
-0.908685
0.795589
2.62468
4.55848
6.57181
8.63018
10.6848
12.682
14.5784
16.3482
17.9767
19.4579
20.777
21.9189
22.8853
23.6903
24.3531
24.8888
25.3073
25.6159
25.8224
25.936
25.9664
25.9234
25.8165
25.654
25.4431
25.1903
24.9017
24.5831
24.2405
23.8798
23.5068
23.1271
22.7458
22.3682
21.9989
21.6424
21.3024
20.982
20.684
20.41
20.1618
19.9402
19.7453
19.5766
19.4328
19.3123
19.2122
19.1296
19.0616
19.0053
18.9585
18.9192
18.8861
18.8584
18.8356
18.8171
18.8022
18.7901
18.78
18.7717
18.7648
18.759
18.7531
18.7458
18.7363
18.7242
18.708
18.6852
18.6526
18.608
18.5547
18.5025
18.4632
18.4424
18.4461
18.4635
18.4876
18.4823
-2.13777
-2.32858
-2.67866
-3.17916
-3.80127
-4.51741
-5.30878
-6.16887
-7.09691
-8.08179
-9.10359
-10.1408
-11.1704
-12.1702
-13.1242
-14.0243
-14.8682
-15.6557
-16.3892
-17.0775
-17.7349
-18.3743
-19.0026
-19.621
-20.2276
-20.8209
-21.4009
-21.9696
-22.5287
-23.0834
-23.6472
-24.2439
-24.9079
-25.6762
-26.575
-27.608
-28.7631
-30.0132
-31.3189
-32.6226
-33.864
-34.9821
-35.9228
-36.6439
-37.1208
-37.3531
-37.368
-37.1709
-36.7825
-36.2489
-35.6036
-34.8578
-34.0291
-33.1653
-32.3425
-31.6208
-31.0181
-30.5395
-30.1982
-29.9951
-29.8452
-29.6761
-29.4821
-29.2436
-28.9336
-28.5298
-28.0068
-27.3461
-26.5371
-25.5792
-24.4813
-23.2622
-21.9525
-20.5922
-19.2255
-17.8975
-16.6494
-15.518
-14.5294
-13.6998
-13.0422
-12.5654
-12.2675
-12.1191
-12.0528
-11.9859
-11.9016
-11.8331
-11.772
-11.6795
-11.5378
-11.2869
-10.8525
-10.2043
-9.3464
-8.3222
-7.18102
-5.94984
-4.62697
-3.19233
-1.62075
0.0957288
1.94198
3.89463
5.92291
7.99008
10.0465
12.0419
13.9348
15.7009
17.3265
18.8042
20.121
21.2648
22.238
23.0541
23.73
24.279
24.7101
25.0313
25.2514
25.3801
25.4273
25.4025
25.3143
25.17
24.9759
24.7378
24.4617
24.1535
23.8194
23.4652
23.097
22.7206
22.3418
21.9659
21.5983
21.2431
20.9046
20.586
20.2899
20.0182
19.7724
19.5537
19.362
19.1969
19.0571
18.9407
18.8451
18.7671
18.7041
18.6537
18.6146
18.5854
18.5645
18.55
18.5404
18.5341
18.5303
18.5283
18.528
18.5291
18.5312
18.5339
18.536
18.5365
18.5349
18.5312
18.5253
18.5158
18.5003
18.475
18.4385
18.3951
18.3546
18.325
18.3129
18.3131
18.3209
18.3047
-2.00477
-2.19093
-2.54735
-3.06566
-3.72202
-4.48948
-5.3447
-6.2726
-7.26651
-8.31554
-9.40484
-10.5149
-11.6247
-12.714
-13.7671
-14.7741
-15.7295
-16.6318
-17.4859
-18.303
-19.0958
-19.8734
-20.6392
-21.3907
-22.1235
-22.8351
-23.5258
-24.2003
-24.8663
-25.5377
-26.2358
-26.9869
-27.8197
-28.7563
-29.808
-30.9722
-32.2331
-33.5692
-34.9421
-36.299
-37.5795
-38.7209
-39.6676
-40.3767
-40.8225
-40.997
-40.9159
-40.5911
-40.0582
-39.3778
-38.588
-37.7014
-36.744
-35.768
-34.8421
-34.0248
-33.3373
-32.7802
-32.3618
-32.0807
-31.8498
-31.6011
-31.3275
-31.0034
-30.5971
-30.085
-29.4442
-28.6617
-27.7315
-26.6567
-25.4506
-24.1352
-22.7429
-21.3164
-19.8998
-18.5342
-17.256
-16.1037
-15.1112
-14.2978
-13.6695
-13.2269
-12.9641
-12.8439
-12.7926
-12.7223
-12.622
-12.5362
-12.4594
-12.3543
-12.1969
-11.9265
-11.4676
-10.7903
-9.90192
-8.85139
-7.6912
-6.44799
-5.11729
-3.67727
-2.10171
-0.382111
1.46774
3.42131
5.44329
7.49578
9.53001
11.5002
13.3695
15.1151
16.7236
18.1853
19.4882
20.6236
21.5952
22.4156
23.099
23.6564
24.0968
24.4286
24.6612
24.8045
24.8683
24.861
24.7901
24.6616
24.4814
24.2552
23.9888
23.6883
23.3597
23.0092
22.6431
22.2679
21.8899
21.515
21.1484
20.7947
20.4578
20.141
19.8467
19.577
19.3335
19.1172
18.9281
18.7658
18.629
18.5159
18.4239
18.3508
18.2948
18.2543
18.228
18.2142
18.2104
18.2135
18.2208
18.2305
18.2414
18.2532
18.2659
18.2791
18.2921
18.304
18.3137
18.3204
18.3244
18.3262
18.3266
18.3256
18.322
18.3133
18.2965
18.2712
18.2418
18.2141
18.1955
18.1826
18.1749
18.1468
-1.86102
-2.0606
-2.45777
-3.0428
-3.79126
-4.66973
-5.64567
-6.69325
-7.79516
-8.93761
-10.1054
-11.2803
-12.4437
-13.5791
-14.6754
-15.7273
-16.7314
-17.6893
-18.6087
-19.5008
-20.3756
-21.2384
-22.0893
-22.9237
-23.7365
-24.5258
-25.2941
-26.0496
-26.8041
-27.5752
-28.3839
-29.2512
-30.1939
-31.2246
-32.349
-33.5649
-34.8623
-36.2232
-37.6106
-38.9715
-40.245
-41.3719
-42.3005
-42.9907
-43.4192
-43.5658
-43.4279
-43.0311
-42.4275
-41.6808
-40.8397
-39.9221
-38.9522
-37.9711
-37.0344
-36.1922
-35.4728
-34.8764
-34.4011
-34.0422
-33.724
-33.3872
-33.0205
-32.5937
-32.0725
-31.4368
-30.6702
-29.7661
-28.7224
-27.5454
-26.256
-24.8776
-23.4437
-21.996
-20.5765
-19.219
-17.9516
-16.8149
-15.8399
-15.0448
-14.4356
-14.008
-13.7524
-13.6272
-13.5608
-13.4667
-13.3323
-13.1979
-13.071
-12.918
-12.7056
-12.377
-11.864
-11.1384
-10.2129
-9.13784
-7.96157
-6.70494
-5.36192
-3.91224
-2.33335
-0.619162
1.21649
3.14834
5.13924
7.15106
9.13936
11.0632
12.8905
14.6
16.1772
17.6101
18.8875
20.0046
20.9667
21.7845
22.4693
23.0306
23.4768
23.8169
24.0605
24.2173
24.2958
24.3035
24.2466
24.1304
23.9606
23.7427
23.4825
23.1861
22.8596
22.5096
22.1433
21.768
21.3902
21.016
20.6509
20.2992
19.9643
19.6492
19.3563
19.0879
18.8458
18.6309
18.4429
18.2815
18.1461
18.0355
17.9479
17.8826
17.8384
17.8137
17.8058
17.8117
17.8274
17.8497
17.8756
17.9034
17.9321
17.961
17.9899
18.0177
18.043
18.0645
18.0813
18.0936
18.1019
18.1074
18.1116
18.1154
18.1192
18.1223
18.1229
18.1185
18.1088
18.095
18.0817
18.0665
18.0497
18.0116
-1.75775
-1.98916
-2.45683
-3.14653
-4.02883
-5.05771
-6.18683
-7.37871
-8.60556
-9.84745
-11.0866
-12.3082
-13.4985
-14.648
-15.7526
-16.8122
-17.8277
-18.7981
-19.7265
-20.6211
-21.4919
-22.3479
-23.1947
-24.0329
-24.8609
-25.677
-26.4812
-27.2774
-28.0739
-28.8846
-29.7267
-30.6177
-31.5724
-32.6026
-33.7161
-34.9119
-36.183
-37.5114
-38.8611
-40.1819
-41.4195
-42.522
-43.4435
-44.1422
-44.5934
-44.774
-44.6669
-44.2926
-43.7177
-43.0034
-42.2089
-41.359
-40.4751
-39.5894
-38.7395
-37.959
-37.2767
-36.6923
-36.1955
-35.7722
-35.3645
-34.9311
-34.4611
-33.9221
-33.2809
-32.5225
-31.6367
-30.6208
-29.4754
-28.2135
-26.8669
-25.4634
-24.0302
-22.6018
-21.2169
-19.9057
-18.6877
-17.5929
-16.653
-15.8904
-15.3013
-14.8729
-14.5922
-14.4253
-14.3154
-14.1831
-13.9984
-13.7897
-13.5806
-13.3466
-13.047
-12.6314
-12.0442
-11.2626
-10.3019
-9.20675
-8.01578
-6.74337
-5.38221
-3.91708
-2.33488
-0.63581
1.16788
3.05498
4.99258
6.94313
8.86696
10.7284
12.4993
14.1591
15.6915
17.0831
18.3246
19.4149
20.3601
21.1688
21.8495
22.41
22.8585
23.2043
23.4567
23.6242
23.7143
23.7332
23.6862
23.5783
23.4149
23.2013
22.9432
22.6466
22.3185
21.9667
21.599
21.2231
20.8459
20.4735
20.1108
19.7614
19.4289
19.1154
18.8234
18.5554
18.3132
18.0973
17.9077
17.7453
17.6096
17.5006
17.4192
17.366
17.3397
17.3366
17.352
17.3806
17.4176
17.46
17.5054
17.5528
17.6013
17.65
17.6971
17.7406
17.7783
17.8089
17.8326
17.8497
17.8616
17.8701
17.8769
17.8837
17.8923
17.9036
17.9175
17.9321
17.9453
17.954
17.9582
17.9531
17.9387
17.8983
-1.6148
-1.88458
-2.43332
-3.23678
-4.25976
-5.44442
-6.73417
-8.07886
-9.44332
-10.8012
-12.1337
-13.4273
-14.6669
-15.8377
-16.933
-17.9579
-18.923
-19.8306
-20.6827
-21.4882
-22.2606
-23.0145
-23.7635
-24.5145
-25.2692
-26.0235
-26.7725
-27.5148
-28.2579
-29.0153
-29.8048
-30.6445
-31.5476
-32.5243
-33.5809
-34.7179
-35.926
-37.1883
-38.4738
-39.7394
-40.9388
-42.026
-42.9616
-43.7051
-44.2253
-44.5036
-44.5159
-44.2706
-43.8273
-43.2536
-42.6092
-41.9219
-41.2088
-40.4922
-39.7969
-39.1443
-38.552
-38.0255
-37.5512
-37.1002
-36.6258
-36.1088
-35.5465
-34.9066
-34.16
-33.2976
-32.314
-31.2109
-29.994
-28.681
-27.3139
-25.9197
-24.5185
-23.1393
-21.8172
-20.5776
-19.4336
-18.4111
-17.5313
-16.8026
-16.2223
-15.7723
-15.4309
-15.1794
-14.9901
-14.797
-14.5503
-14.2569
-13.9471
-13.6093
-13.204
-12.6868
-12.0176
-11.1816
-10.193
-9.08405
-7.88079
-6.5919
-5.21213
-3.73458
-2.15602
-0.48098
1.27925
3.10804
4.97762
6.85376
8.70157
10.49
12.1936
13.7915
15.2662
16.6051
17.8024
18.8595
19.7818
20.5756
21.2466
21.8017
22.249
22.5974
22.8552
23.0298
23.1274
23.1532
23.1119
23.008
22.8464
22.6321
22.3711
22.0702
21.7377
21.3827
21.0139
20.6389
20.2644
19.896
19.5374
19.1917
18.862
18.5503
18.2586
17.9896
17.745
17.5255
17.3316
17.1645
17.0267
16.9202
16.8481
16.8114
16.8067
16.8279
16.8687
16.9219
16.9822
17.0464
17.113
17.1813
17.2508
17.3198
17.3851
17.4434
17.4923
17.531
17.5606
17.5822
17.5976
17.6088
17.6182
17.628
17.6405
17.6581
17.6824
17.7129
17.7482
17.7832
17.8138
17.8311
17.8318
17.8002
-1.22676
-1.54237
-2.17046
-3.08483
-4.25172
-5.6061
-7.08735
-8.63554
-10.2033
-11.7496
-13.2398
-14.6453
-15.9389
-17.0941
-18.1019
-18.9778
-19.7545
-20.4586
-21.1058
-21.7094
-22.2821
-22.837
-23.3854
-23.94
-24.5095
-25.0983
-25.7054
-26.3278
-26.9726
-27.6507
-28.3744
-29.1545
-29.9982
-30.913
-31.9056
-32.9754
-34.1129
-35.3053
-36.5285
-37.748
-38.9246
-40.0167
-40.9881
-41.8034
-42.4306
-42.8539
-43.0509
-43.0226
-42.8044
-42.4628
-42.0505
-41.6041
-41.1275
-40.63
-40.1272
-39.6366
-39.1706
-38.7339
-38.3146
-37.8795
-37.3867
-36.8286
-36.2082
-35.4999
-34.6811
-33.7488
-32.7029
-31.5514
-30.3047
-28.9826
-27.6243
-26.2608
-24.9095
-23.5964
-22.3588
-21.2164
-20.169
-19.2332
-18.4216
-17.738
-17.1635
-16.675
-16.2498
-15.8766
-15.5571
-15.2599
-14.9297
-14.5473
-14.131
-13.6792
-13.1618
-12.5433
-11.7967
-10.9114
-9.89829
-8.77818
-7.56407
-6.26115
-4.86967
-3.39043
-1.82721
-0.1869
1.52179
3.28391
5.07617
6.86914
8.63252
10.3386
11.9632
13.4856
14.8897
16.1663
17.3132
18.3321
19.2265
19.9996
20.6556
21.2008
21.6432
21.9907
22.2503
22.4282
22.5292
22.5577
22.5174
22.4123
22.2469
22.0263
21.7578
21.4499
21.1128
20.7564
20.3894
20.019
19.6514
19.2905
18.9393
18.6001
18.2749
17.9654
17.6733
17.4018
17.1526
16.9253
16.7225
16.5479
16.4066
16.3046
16.2446
16.2261
16.2434
16.2887
16.3546
16.4328
16.5178
16.6064
16.6967
16.7878
16.8789
16.967
17.0481
17.1184
17.1762
17.2218
17.2572
17.2837
17.3032
17.3182
17.3312
17.3447
17.3615
17.3851
17.4187
17.4633
17.5187
17.5803
17.6419
17.6907
17.7187
17.7085
-0.404986
-0.788808
-1.5131
-2.55415
-3.88686
-5.45084
-7.1799
-8.98966
-10.8034
-12.5482
-14.1635
-15.6025
-16.8354
-17.8396
-18.6145
-19.1956
-19.6438
-20.0175
-20.3457
-20.6457
-20.9289
-21.2092
-21.5039
-21.831
-22.2033
-22.627
-23.1012
-23.623
-24.1958
-24.827
-25.5231
-26.2856
-27.1138
-28.0127
-28.9885
-30.0364
-31.1434
-32.2999
-33.4882
-34.6821
-35.8511
-36.9614
-37.9814
-38.8792
-39.6284
-40.2115
-40.6131
-40.8274
-40.8708
-40.7904
-40.6342
-40.4379
-40.2135
-39.9574
-39.6687
-39.3564
-39.0321
-38.7051
-38.3693
-37.9915
-37.5335
-36.9908
-36.3695
-35.6467
-34.8079
-33.8553
-32.7927
-31.6333
-30.3938
-29.0958
-27.7732
-26.4578
-25.169
-23.9312
-22.7807
-21.7315
-20.7742
-19.9203
-19.1702
-18.5155
-17.9423
-17.4195
-16.9214
-16.44
-15.9883
-15.5586
-15.1149