/*--------------------------------*- C++ -*----------------------------------*\
  =========                 |
  \\      /  F ield         | OpenFOAM: The Open Source CFD Toolbox
   \\    /   O peration     | Website:  https://openfoam.org
    \\  /    A nd           | Version:  10
     \\/     M anipulation  |
\*---------------------------------------------------------------------------*/
FoamFile
{
    format      ascii;
    class       volVectorField;
    location    "12700";
    object      Ua;
}
// * * * * * * * * * * * * * * * * * * * * * * * * * * * * * * * * * * * * * //

dimensions      [0 1 -1 0 0 0 0];

internalField   nonuniform List<vector> 
6400
(
(-2.79335e-07 5.67802e-08 0)
(-8.40303e-07 5.72473e-08 0)
(-1.40825e-06 5.8199e-08 0)
(-1.98813e-06 5.96718e-08 0)
(-2.58535e-06 6.17248e-08 0)
(-3.20605e-06 6.44451e-08 0)
(-3.85742e-06 6.7957e-08 0)
(-4.5481e-06 7.24367e-08 0)
(-5.28885e-06 7.81351e-08 0)
(-6.09345e-06 8.5415e-08 0)
(-6.9801e-06 9.48149e-08 0)
(-7.97373e-06 1.07159e-07 0)
(-9.10978e-06 1.23764e-07 0)
(-1.0441e-05 1.46835e-07 0)
(-1.20504e-05 1.80297e-07 0)
(-1.40762e-05 2.31484e-07 0)
(-1.67539e-05 3.12824e-07 0)
(-2.02352e-05 3.94808e-07 0)
(-1.43829e-05 -9.2868e-07 0)
(-3.37145e-06 8.60363e-05 0)
(-1.0709e-07 7.38198e-07 0)
(-4.67472e-08 2.75215e-07 0)
(-2.82763e-08 1.60538e-07 0)
(-1.94209e-08 1.1141e-07 0)
(-1.44107e-08 8.46207e-08 0)
(-1.15597e-08 6.79453e-08 0)
(-9.51527e-09 5.68272e-08 0)
(-8.01403e-09 4.89577e-08 0)
(-6.93619e-09 4.31635e-08 0)
(-6.09144e-09 3.86781e-08 0)
(-5.40005e-09 3.51182e-08 0)
(-4.79601e-09 3.22812e-08 0)
(-4.36887e-09 3.01258e-08 0)
(-4.05196e-09 2.92864e-08 0)
(-3.67928e-09 2.85437e-08 0)
(-3.22784e-09 2.7905e-08 0)
(-2.67808e-09 2.73715e-08 0)
(-2.02074e-09 2.69712e-08 0)
(-1.26089e-09 2.67151e-08 0)
(-4.28493e-10 2.65036e-08 0)
(4.28493e-10 2.65036e-08 0)
(1.26089e-09 2.67151e-08 0)
(2.02074e-09 2.69712e-08 0)
(2.67808e-09 2.73715e-08 0)
(3.22784e-09 2.7905e-08 0)
(3.67928e-09 2.85437e-08 0)
(4.05196e-09 2.92864e-08 0)
(4.36887e-09 3.01258e-08 0)
(4.79601e-09 3.22812e-08 0)
(5.40005e-09 3.51182e-08 0)
(6.09144e-09 3.86781e-08 0)
(6.93619e-09 4.31635e-08 0)
(8.01403e-09 4.89577e-08 0)
(9.51527e-09 5.68272e-08 0)
(1.15597e-08 6.79453e-08 0)
(1.44107e-08 8.46207e-08 0)
(1.94209e-08 1.1141e-07 0)
(2.82763e-08 1.60538e-07 0)
(4.67472e-08 2.75215e-07 0)
(1.0709e-07 7.38198e-07 0)
(3.37145e-06 8.60363e-05 0)
(1.43829e-05 -9.2868e-07 0)
(2.02352e-05 3.94808e-07 0)
(1.67539e-05 3.12824e-07 0)
(1.40762e-05 2.31484e-07 0)
(1.20504e-05 1.80297e-07 0)
(1.0441e-05 1.46835e-07 0)
(9.10978e-06 1.23764e-07 0)
(7.97373e-06 1.07159e-07 0)
(6.9801e-06 9.48149e-08 0)
(6.09345e-06 8.5415e-08 0)
(5.28885e-06 7.81351e-08 0)
(4.5481e-06 7.24367e-08 0)
(3.85742e-06 6.7957e-08 0)
(3.20605e-06 6.44451e-08 0)
(2.58535e-06 6.17248e-08 0)
(1.98813e-06 5.96718e-08 0)
(1.40825e-06 5.8199e-08 0)
(8.40303e-07 5.72473e-08 0)
(2.79335e-07 5.67802e-08 0)
(-2.79236e-07 1.75816e-07 0)
(-8.40001e-07 1.77262e-07 0)
(-1.40773e-06 1.80207e-07 0)
(-1.98738e-06 1.84766e-07 0)
(-2.58433e-06 1.91119e-07 0)
(-3.20472e-06 1.99538e-07 0)
(-3.85571e-06 2.10405e-07 0)
(-4.54593e-06 2.24266e-07 0)
(-5.28608e-06 2.41895e-07 0)
(-6.08989e-06 2.64415e-07 0)
(-6.97547e-06 2.93485e-07 0)
(-7.96756e-06 3.31651e-07 0)
(-9.10132e-06 3.82967e-07 0)
(-1.0429e-05 4.54229e-07 0)
(-1.20323e-05 5.57508e-07 0)
(-1.40479e-05 7.15431e-07 0)
(-1.67191e-05 9.68731e-07 0)
(-2.05894e-05 1.30942e-06 0)
(-3.15767e-05 7.24477e-08 0)
(-2.44294e-05 2.68586e-05 0)
(-4.44321e-06 1.84075e-05 0)
(-1.78408e-07 7.32851e-07 0)
(-7.74624e-08 3.09172e-07 0)
(-4.88909e-08 1.97657e-07 0)
(-3.50794e-08 1.46196e-07 0)
(-2.77653e-08 1.15832e-07 0)
(-2.26571e-08 9.6064e-08 0)
(-1.89797e-08 8.24914e-08 0)
(-1.6386e-08 7.25251e-08 0)
(-1.43722e-08 6.49178e-08 0)
(-1.27396e-08 5.88763e-08 0)
(-1.13302e-08 5.40979e-08 0)
(-1.03493e-08 5.04469e-08 0)
(-9.62659e-09 4.90053e-08 0)
(-8.77632e-09 4.77234e-08 0)
(-7.7391e-09 4.66132e-08 0)
(-6.45799e-09 4.56836e-08 0)
(-4.89861e-09 4.49827e-08 0)
(-3.06834e-09 4.45248e-08 0)
(-1.0448e-09 4.41604e-08 0)
(1.0448e-09 4.41604e-08 0)
(3.06834e-09 4.45248e-08 0)
(4.89861e-09 4.49827e-08 0)
(6.45799e-09 4.56836e-08 0)
(7.7391e-09 4.66132e-08 0)
(8.77632e-09 4.77234e-08 0)
(9.62659e-09 4.90053e-08 0)
(1.03493e-08 5.04469e-08 0)
(1.13302e-08 5.40979e-08 0)
(1.27396e-08 5.88763e-08 0)
(1.43722e-08 6.49178e-08 0)
(1.6386e-08 7.25251e-08 0)
(1.89797e-08 8.24914e-08 0)
(2.26571e-08 9.6064e-08 0)
(2.77653e-08 1.15832e-07 0)
(3.50794e-08 1.46196e-07 0)
(4.88909e-08 1.97657e-07 0)
(7.74624e-08 3.09172e-07 0)
(1.78408e-07 7.32851e-07 0)
(4.44321e-06 1.84075e-05 0)
(2.44294e-05 2.68586e-05 0)
(3.15767e-05 7.24477e-08 0)
(2.05894e-05 1.30942e-06 0)
(1.67191e-05 9.68731e-07 0)
(1.40479e-05 7.15431e-07 0)
(1.20323e-05 5.57508e-07 0)
(1.0429e-05 4.54229e-07 0)
(9.10132e-06 3.82967e-07 0)
(7.96756e-06 3.31651e-07 0)
(6.97547e-06 2.93485e-07 0)
(6.08989e-06 2.64415e-07 0)
(5.28608e-06 2.41895e-07 0)
(4.54593e-06 2.24266e-07 0)
(3.85571e-06 2.10405e-07 0)
(3.20472e-06 1.99538e-07 0)
(2.58433e-06 1.91119e-07 0)
(1.98738e-06 1.84766e-07 0)
(1.40773e-06 1.80207e-07 0)
(8.40001e-07 1.77262e-07 0)
(2.79236e-07 1.75816e-07 0)
(-2.79007e-07 3.06299e-07 0)
(-8.39306e-07 3.08816e-07 0)
(-1.40655e-06 3.13942e-07 0)
(-1.98565e-06 3.21875e-07 0)
(-2.58199e-06 3.32931e-07 0)
(-3.20167e-06 3.47578e-07 0)
(-3.8518e-06 3.66484e-07 0)
(-4.54094e-06 3.90592e-07 0)
(-5.27973e-06 4.21248e-07 0)
(-6.08173e-06 4.60392e-07 0)
(-6.96484e-06 5.109e-07 0)
(-7.95341e-06 5.77168e-07 0)
(-9.08194e-06 6.6619e-07 0)
(-1.04014e-05 7.89657e-07 0)
(-1.19911e-05 9.68289e-07 0)
(-1.39828e-05 1.24108e-06 0)
(-1.66185e-05 1.68316e-06 0)
(-2.05087e-05 2.4092e-06 0)
(-2.90947e-05 3.52186e-06 0)
(-3.16473e-05 2.28988e-05 0)
(-1.87429e-05 3.38311e-05 0)
(-4.97757e-06 1.80428e-05 0)
(-2.9468e-07 1.12465e-06 0)
(-1.0525e-07 4.6656e-07 0)
(-6.60346e-08 3.05268e-07 0)
(-5.00642e-08 2.31086e-07 0)
(-3.99326e-08 1.87409e-07 0)
(-3.30376e-08 1.5937e-07 0)
(-2.83796e-08 1.39254e-07 0)
(-2.48249e-08 1.24305e-07 0)
(-2.19959e-08 1.12514e-07 0)
(-1.96046e-08 1.03331e-07 0)
(-1.79947e-08 9.63198e-08 0)
(-1.68239e-08 9.3545e-08 0)
(-1.54441e-08 9.10958e-08 0)
(-1.37381e-08 8.89918e-08 0)
(-1.1574e-08 8.72535e-08 0)
(-8.85575e-09 8.5959e-08 0)
(-5.58218e-09 8.51068e-08 0)
(-1.90703e-09 8.4438e-08 0)
(1.90703e-09 8.4438e-08 0)
(5.58218e-09 8.51068e-08 0)
(8.85575e-09 8.5959e-08 0)
(1.1574e-08 8.72535e-08 0)
(1.37381e-08 8.89918e-08 0)
(1.54441e-08 9.10958e-08 0)
(1.68239e-08 9.3545e-08 0)
(1.79947e-08 9.63198e-08 0)
(1.96046e-08 1.03331e-07 0)
(2.19959e-08 1.12514e-07 0)
(2.48249e-08 1.24305e-07 0)
(2.83796e-08 1.39254e-07 0)
(3.30376e-08 1.5937e-07 0)
(3.99326e-08 1.87409e-07 0)
(5.00642e-08 2.31086e-07 0)
(6.60346e-08 3.05268e-07 0)
(1.0525e-07 4.6656e-07 0)
(2.9468e-07 1.12465e-06 0)
(4.97757e-06 1.80428e-05 0)
(1.87429e-05 3.38311e-05 0)
(3.16473e-05 2.28988e-05 0)
(2.90947e-05 3.52186e-06 0)
(2.05087e-05 2.4092e-06 0)
(1.66185e-05 1.68316e-06 0)
(1.39828e-05 1.24108e-06 0)
(1.19911e-05 9.68289e-07 0)
(1.04014e-05 7.89657e-07 0)
(9.08194e-06 6.6619e-07 0)
(7.95341e-06 5.77168e-07 0)
(6.96484e-06 5.109e-07 0)
(6.08173e-06 4.60392e-07 0)
(5.27973e-06 4.21248e-07 0)
(4.54094e-06 3.90592e-07 0)
(3.8518e-06 3.66484e-07 0)
(3.20167e-06 3.47578e-07 0)
(2.58199e-06 3.32931e-07 0)
(1.98565e-06 3.21875e-07 0)
(1.40655e-06 3.13942e-07 0)
(8.39306e-07 3.08816e-07 0)
(2.79007e-07 3.06299e-07 0)
(-2.78613e-07 4.49255e-07 0)
(-8.38109e-07 4.52939e-07 0)
(-1.4045e-06 4.60445e-07 0)
(-1.98267e-06 4.72059e-07 0)
(-2.57797e-06 4.88242e-07 0)
(-3.19642e-06 5.09679e-07 0)
(-3.84506e-06 5.3734e-07 0)
(-4.53237e-06 5.72603e-07 0)
(-5.2688e-06 6.17421e-07 0)
(-6.0677e-06 6.74615e-07 0)
(-6.94656e-06 7.48354e-07 0)
(-7.92912e-06 8.44996e-07 0)
(-9.04872e-06 9.74623e-07 0)
(-1.03542e-05 1.15402e-06 0)
(-1.19206e-05 1.4128e-06 0)
(-1.3871e-05 1.80673e-06 0)
(-1.64294e-05 2.44824e-06 0)
(-2.01258e-05 3.58688e-06 0)
(-2.66573e-05 6.19559e-06 0)
(-2.82464e-05 2.12755e-05 0)
(-2.07346e-05 3.03001e-05 0)
(-1.11516e-05 3.36117e-05 0)
(-3.65909e-06 1.48333e-05 0)
(-5.68049e-07 2.02126e-06 0)
(-1.42887e-07 6.95721e-07 0)
(-8.70725e-08 4.19454e-07 0)
(-6.42465e-08 3.15332e-07 0)
(-5.13027e-08 2.60362e-07 0)
(-4.34531e-08 2.23932e-07 0)
(-3.77342e-08 1.98492e-07 0)
(-3.33668e-08 1.78882e-07 0)
(-2.98125e-08 1.64091e-07 0)
(-2.75689e-08 1.52837e-07 0)
(-2.59774e-08 1.48383e-07 0)
(-2.40994e-08 1.44498e-07 0)
(-2.17276e-08 1.41189e-07 0)
(-1.8575e-08 1.38469e-07 0)
(-1.44004e-08 1.36446e-07 0)
(-9.16435e-09 1.35086e-07 0)
(-3.14616e-09 1.34048e-07 0)
(3.14616e-09 1.34048e-07 0)
(9.16435e-09 1.35086e-07 0)
(1.44004e-08 1.36446e-07 0)
(1.8575e-08 1.38469e-07 0)
(2.17276e-08 1.41189e-07 0)
(2.40994e-08 1.44498e-07 0)
(2.59774e-08 1.48383e-07 0)
(2.75689e-08 1.52837e-07 0)
(2.98125e-08 1.64091e-07 0)
(3.33668e-08 1.78882e-07 0)
(3.77342e-08 1.98492e-07 0)
(4.34531e-08 2.23932e-07 0)
(5.13027e-08 2.60362e-07 0)
(6.42465e-08 3.15332e-07 0)
(8.70725e-08 4.19454e-07 0)
(1.42887e-07 6.95721e-07 0)
(5.68049e-07 2.02126e-06 0)
(3.65909e-06 1.48333e-05 0)
(1.11516e-05 3.36117e-05 0)
(2.07346e-05 3.03001e-05 0)
(2.82464e-05 2.12755e-05 0)
(2.66573e-05 6.19559e-06 0)
(2.01258e-05 3.58688e-06 0)
(1.64294e-05 2.44824e-06 0)
(1.3871e-05 1.80673e-06 0)
(1.19206e-05 1.4128e-06 0)
(1.03542e-05 1.15402e-06 0)
(9.04872e-06 9.74623e-07 0)
(7.92912e-06 8.44996e-07 0)
(6.94656e-06 7.48354e-07 0)
(6.0677e-06 6.74615e-07 0)
(5.2688e-06 6.17421e-07 0)
(4.53237e-06 5.72603e-07 0)
(3.84506e-06 5.3734e-07 0)
(3.19642e-06 5.09679e-07 0)
(2.57797e-06 4.88242e-07 0)
(1.98267e-06 4.72059e-07 0)
(1.4045e-06 4.60445e-07 0)
(8.38109e-07 4.52939e-07 0)
(2.78613e-07 4.49255e-07 0)
(-2.78009e-07 6.05769e-07 0)
(-8.36275e-07 6.10724e-07 0)
(-1.40137e-06 6.20817e-07 0)
(-1.97812e-06 6.36433e-07 0)
(-2.57181e-06 6.58188e-07 0)
(-3.18838e-06 6.86996e-07 0)
(-3.83476e-06 7.24156e-07 0)
(-4.51926e-06 7.71502e-07 0)
(-5.2521e-06 8.31636e-07 0)
(-6.04627e-06 9.08308e-07 0)
(-6.91869e-06 1.00704e-06 0)
(-7.89214e-06 1.13622e-06 0)
(-8.99826e-06 1.3091e-06 0)
(-1.02827e-05 1.54756e-06 0)
(-1.18143e-05 1.88996e-06 0)
(-1.37024e-05 2.40813e-06 0)
(-1.61362e-05 3.24902e-06 0)
(-1.94921e-05 4.76478e-06 0)
(-2.43566e-05 8.20061e-06 0)
(-2.52005e-05 1.9945e-05 0)
(-1.90782e-05 2.78147e-05 0)
(-1.0012e-05 3.08597e-05 0)
(-1.41771e-06 2.68156e-05 0)
(-3.56758e-06 8.71378e-06 0)
(-4.87465e-06 1.5572e-05 0)
(-2.86356e-07 1.22148e-06 0)
(-1.1559e-07 5.73525e-07 0)
(-7.91837e-08 4.13262e-07 0)
(-6.37231e-08 3.37032e-07 0)
(-5.40197e-08 2.92233e-07 0)
(-4.73464e-08 2.60246e-07 0)
(-4.23171e-08 2.37829e-07 0)
(-3.95296e-08 2.21097e-07 0)
(-3.76537e-08 2.14497e-07 0)
(-3.5456e-08 2.08884e-07 0)
(-3.26061e-08 2.04136e-07 0)
(-2.8482e-08 2.00169e-07 0)
(-2.25048e-08 1.97157e-07 0)
(-1.45194e-08 1.95033e-07 0)
(-5.01875e-09 1.93488e-07 0)
(5.01875e-09 1.93488e-07 0)
(1.45194e-08 1.95033e-07 0)
(2.25048e-08 1.97157e-07 0)
(2.8482e-08 2.00169e-07 0)
(3.26061e-08 2.04136e-07 0)
(3.5456e-08 2.08884e-07 0)
(3.76537e-08 2.14497e-07 0)
(3.95296e-08 2.21097e-07 0)
(4.23171e-08 2.37829e-07 0)
(4.73464e-08 2.60246e-07 0)
(5.40197e-08 2.92233e-07 0)
(6.37231e-08 3.37032e-07 0)
(7.91837e-08 4.13262e-07 0)
(1.1559e-07 5.73525e-07 0)
(2.86356e-07 1.22148e-06 0)
(4.87465e-06 1.5572e-05 0)
(3.56758e-06 8.71378e-06 0)
(1.41771e-06 2.68156e-05 0)
(1.0012e-05 3.08597e-05 0)
(1.90782e-05 2.78147e-05 0)
(2.52005e-05 1.9945e-05 0)
(2.43566e-05 8.20061e-06 0)
(1.94921e-05 4.76478e-06 0)
(1.61362e-05 3.24902e-06 0)
(1.37024e-05 2.40813e-06 0)
(1.18143e-05 1.88996e-06 0)
(1.02827e-05 1.54756e-06 0)
(8.99826e-06 1.3091e-06 0)
(7.89214e-06 1.13622e-06 0)
(6.91869e-06 1.00704e-06 0)
(6.04627e-06 9.08308e-07 0)
(5.2521e-06 8.31636e-07 0)
(4.51926e-06 7.71502e-07 0)
(3.83476e-06 7.24156e-07 0)
(3.18838e-06 6.86996e-07 0)
(2.57181e-06 6.58188e-07 0)
(1.97812e-06 6.36433e-07 0)
(1.40137e-06 6.20817e-07 0)
(8.36275e-07 6.10724e-07 0)
(2.78009e-07 6.05769e-07 0)
(-2.77143e-07 7.76981e-07 0)
(-8.33645e-07 7.83312e-07 0)
(-1.39688e-06 7.96208e-07 0)
(-1.97159e-06 8.16156e-07 0)
(-2.56297e-06 8.43939e-07 0)
(-3.17685e-06 8.80712e-07 0)
(-3.82e-06 9.28121e-07 0)
(-4.50049e-06 9.8848e-07 0)
(-5.22822e-06 1.06507e-06 0)
(-6.01567e-06 1.16259e-06 0)
(-6.87896e-06 1.28796e-06 0)
(-7.83954e-06 1.45162e-06 0)
(-8.92674e-06 1.66991e-06 0)
(-1.01819e-05 1.96964e-06 0)
(-1.16655e-05 2.39715e-06 0)
(-1.34681e-05 3.03806e-06 0)
(-1.57309e-05 4.06522e-06 0)
(-1.866e-05 5.88095e-06 0)
(-2.2198e-05 9.65714e-06 0)
(-2.24918e-05 1.88315e-05 0)
(-1.75286e-05 2.55256e-05 0)
(-1.01446e-05 2.8099e-05 0)
(-3.70355e-06 2.49697e-05 0)
(-6.67865e-06 1.57805e-05 0)
(-7.99353e-06 2.88332e-05 0)
(-3.05516e-06 1.41464e-05 0)
(-1.2518e-06 3.6596e-06 0)
(-2.07184e-07 1.03039e-06 0)
(-1.05217e-07 5.57764e-07 0)
(-7.83424e-08 4.29905e-07 0)
(-6.57247e-08 3.65548e-07 0)
(-5.79597e-08 3.28758e-07 0)
(-5.47109e-08 3.03661e-07 0)
(-5.27975e-08 2.93906e-07 0)
(-5.06783e-08 2.86122e-07 0)
(-4.79479e-08 2.7961e-07 0)
(-4.32037e-08 2.73815e-07 0)
(-3.50613e-08 2.69187e-07 0)
(-2.30525e-08 2.65629e-07 0)
(-8.03954e-09 2.63227e-07 0)
(8.03954e-09 2.63227e-07 0)
(2.30525e-08 2.65629e-07 0)
(3.50613e-08 2.69187e-07 0)
(4.32037e-08 2.73815e-07 0)
(4.79479e-08 2.7961e-07 0)
(5.06783e-08 2.86122e-07 0)
(5.27975e-08 2.93906e-07 0)
(5.47109e-08 3.03661e-07 0)
(5.79597e-08 3.28758e-07 0)
(6.57247e-08 3.65548e-07 0)
(7.83424e-08 4.29905e-07 0)
(1.05217e-07 5.57764e-07 0)
(2.07184e-07 1.03039e-06 0)
(1.2518e-06 3.6596e-06 0)
(3.05516e-06 1.41464e-05 0)
(7.99353e-06 2.88332e-05 0)
(6.67865e-06 1.57805e-05 0)
(3.70355e-06 2.49697e-05 0)
(1.01446e-05 2.8099e-05 0)
(1.75286e-05 2.55256e-05 0)
(2.24918e-05 1.88315e-05 0)
(2.2198e-05 9.65714e-06 0)
(1.866e-05 5.88095e-06 0)
(1.57309e-05 4.06522e-06 0)
(1.34681e-05 3.03806e-06 0)
(1.16655e-05 2.39715e-06 0)
(1.01819e-05 1.96964e-06 0)
(8.92674e-06 1.66991e-06 0)
(7.83954e-06 1.45162e-06 0)
(6.87896e-06 1.28796e-06 0)
(6.01567e-06 1.16259e-06 0)
(5.22822e-06 1.06507e-06 0)
(4.50049e-06 9.8848e-07 0)
(3.82e-06 9.28121e-07 0)
(3.17685e-06 8.80712e-07 0)
(2.56297e-06 8.43939e-07 0)
(1.97159e-06 8.16156e-07 0)
(1.39688e-06 7.96208e-07 0)
(8.33645e-07 7.83312e-07 0)
(2.77143e-07 7.76981e-07 0)
(-2.75951e-07 9.64069e-07 0)
(-8.30026e-07 9.71884e-07 0)
(-1.39069e-06 9.878e-07 0)
(-1.96261e-06 1.01241e-06 0)
(-2.55082e-06 1.04668e-06 0)
(-3.16101e-06 1.09201e-06 0)
(-3.79973e-06 1.1504e-06 0)
(-4.47475e-06 1.22467e-06 0)
(-5.19551e-06 1.31878e-06 0)
(-5.97383e-06 1.43842e-06 0)
(-6.82477e-06 1.59185e-06 0)
(-7.76802e-06 1.79151e-06 0)
(-8.82995e-06 2.05665e-06 0)
(-1.00465e-05 2.41846e-06 0)
(-1.14673e-05 2.92987e-06 0)
(-1.31608e-05 3.68635e-06 0)
(-1.52137e-05 4.87361e-06 0)
(-1.76809e-05 6.89085e-06 0)
(-2.01846e-05 1.06749e-05 0)
(-2.00946e-05 1.78766e-05 0)
(-1.60931e-05 2.34628e-05 0)
(-1.01872e-05 2.56891e-05 0)
(-5.27326e-06 2.35622e-05 0)
(-6.11576e-06 1.84461e-05 0)
(-4.91672e-06 2.61674e-05 0)
(2.94896e-06 2.49503e-05 0)
(-1.88588e-06 9.71462e-06 0)
(-6.36762e-06 1.49724e-05 0)
(-1.1192e-06 2.98771e-06 0)
(-2.10394e-07 1.00927e-06 0)
(-1.07251e-07 5.87193e-07 0)
(-8.19758e-08 4.63887e-07 0)
(-7.61315e-08 4.12105e-07 0)
(-7.37704e-08 3.93634e-07 0)
(-7.19758e-08 3.81424e-07 0)
(-7.07597e-08 3.71839e-07 0)
(-6.65814e-08 3.62223e-07 0)
(-5.60173e-08 3.54308e-07 0)
(-3.77733e-08 3.47408e-07 0)
(-1.33101e-08 3.43219e-07 0)
(1.33101e-08 3.43219e-07 0)
(3.77733e-08 3.47408e-07 0)
(5.60173e-08 3.54308e-07 0)
(6.65814e-08 3.62223e-07 0)
(7.07597e-08 3.71839e-07 0)
(7.19758e-08 3.81424e-07 0)
(7.37704e-08 3.93634e-07 0)
(7.61315e-08 4.12105e-07 0)
(8.19758e-08 4.63887e-07 0)
(1.07251e-07 5.87193e-07 0)
(2.10394e-07 1.00927e-06 0)
(1.1192e-06 2.98771e-06 0)
(6.36762e-06 1.49724e-05 0)
(1.88588e-06 9.71462e-06 0)
(-2.94896e-06 2.49503e-05 0)
(4.91672e-06 2.61674e-05 0)
(6.11576e-06 1.84461e-05 0)
(5.27326e-06 2.35622e-05 0)
(1.01872e-05 2.56891e-05 0)
(1.60931e-05 2.34628e-05 0)
(2.00946e-05 1.78766e-05 0)
(2.01846e-05 1.06749e-05 0)
(1.76809e-05 6.89085e-06 0)
(1.52137e-05 4.87361e-06 0)
(1.31608e-05 3.68635e-06 0)
(1.14673e-05 2.92987e-06 0)
(1.00465e-05 2.41846e-06 0)
(8.82995e-06 2.05665e-06 0)
(7.76802e-06 1.79151e-06 0)
(6.82477e-06 1.59185e-06 0)
(5.97383e-06 1.43842e-06 0)
(5.19551e-06 1.31878e-06 0)
(4.47475e-06 1.22467e-06 0)
(3.79973e-06 1.1504e-06 0)
(3.16101e-06 1.09201e-06 0)
(2.55082e-06 1.04668e-06 0)
(1.96261e-06 1.01241e-06 0)
(1.39069e-06 9.878e-07 0)
(8.30026e-07 9.71884e-07 0)
(2.75951e-07 9.64069e-07 0)
(-2.74358e-07 1.16823e-06 0)
(-8.2519e-07 1.17764e-06 0)
(-1.38244e-06 1.19679e-06 0)
(-1.95061e-06 1.22639e-06 0)
(-2.53461e-06 1.26758e-06 0)
(-3.1399e-06 1.32202e-06 0)
(-3.77274e-06 1.39209e-06 0)
(-4.4405e-06 1.48109e-06 0)
(-5.15208e-06 1.59367e-06 0)
(-5.9184e-06 1.73646e-06 0)
(-6.7532e-06 1.91902e-06 0)
(-7.674e-06 2.1556e-06 0)
(-8.70348e-06 2.46801e-06 0)
(-9.87106e-06 2.89088e-06 0)
(-1.12142e-05 3.48168e-06 0)
(-1.27766e-05 4.34039e-06 0)
(-1.4592e-05 5.65079e-06 0)
(-1.66022e-05 7.7672e-06 0)
(-1.83168e-05 1.13502e-05 0)
(-1.7979e-05 1.70384e-05 0)
(-1.47688e-05 2.16388e-05 0)
(-1.01036e-05 2.3612e-05 0)
(-6.23903e-06 2.23999e-05 0)
(-5.76647e-06 1.97231e-05 0)
(-4.14778e-06 2.38378e-05 0)
(7.30498e-07 2.26026e-05 0)
(-1.11849e-06 1.44913e-05 0)
(1.73767e-06 2.56584e-05 0)
(5.24729e-07 8.46759e-06 0)
(-5.54185e-06 1.19164e-05 0)
(-1.87264e-06 4.5048e-06 0)
(-2.84733e-07 1.12008e-06 0)
(-1.57618e-07 7.42526e-07 0)
(-1.26795e-07 6.11151e-07 0)
(-1.12023e-07 5.42919e-07 0)
(-1.10863e-07 5.05079e-07 0)
(-1.0861e-07 4.7569e-07 0)
(-9.49594e-08 4.5781e-07 0)
(-6.60144e-08 4.40717e-07 0)
(-2.34508e-08 4.32281e-07 0)
(2.34508e-08 4.32281e-07 0)
(6.60144e-08 4.40717e-07 0)
(9.49594e-08 4.5781e-07 0)
(1.0861e-07 4.7569e-07 0)
(1.10863e-07 5.05079e-07 0)
(1.12023e-07 5.42919e-07 0)
(1.26795e-07 6.11151e-07 0)
(1.57618e-07 7.42526e-07 0)
(2.84733e-07 1.12008e-06 0)
(1.87264e-06 4.5048e-06 0)
(5.54185e-06 1.19164e-05 0)
(-5.24729e-07 8.46759e-06 0)
(-1.73767e-06 2.56584e-05 0)
(1.11849e-06 1.44913e-05 0)
(-7.30498e-07 2.26026e-05 0)
(4.14778e-06 2.38378e-05 0)
(5.76647e-06 1.97231e-05 0)
(6.23903e-06 2.23999e-05 0)
(1.01036e-05 2.3612e-05 0)
(1.47688e-05 2.16388e-05 0)
(1.7979e-05 1.70384e-05 0)
(1.83168e-05 1.13502e-05 0)
(1.66022e-05 7.7672e-06 0)
(1.4592e-05 5.65079e-06 0)
(1.27766e-05 4.34039e-06 0)
(1.12142e-05 3.48168e-06 0)
(9.87106e-06 2.89088e-06 0)
(8.70348e-06 2.46801e-06 0)
(7.674e-06 2.1556e-06 0)
(6.7532e-06 1.91902e-06 0)
(5.9184e-06 1.73646e-06 0)
(5.15208e-06 1.59367e-06 0)
(4.4405e-06 1.48109e-06 0)
(3.77274e-06 1.39209e-06 0)
(3.1399e-06 1.32202e-06 0)
(2.53461e-06 1.26758e-06 0)
(1.95061e-06 1.22639e-06 0)
(1.38244e-06 1.19679e-06 0)
(8.2519e-07 1.17764e-06 0)
(2.74358e-07 1.16823e-06 0)
(-2.72278e-07 1.39066e-06 0)
(-8.18873e-07 1.40175e-06 0)
(-1.37165e-06 1.42434e-06 0)
(-1.93496e-06 1.45923e-06 0)
(-2.51347e-06 1.50774e-06 0)
(-3.11239e-06 1.57181e-06 0)
(-3.73761e-06 1.65415e-06 0)
(-4.39602e-06 1.75857e-06 0)
(-5.09579e-06 1.89035e-06 0)
(-5.84679e-06 2.057e-06 0)
(-6.66112e-06 2.26924e-06 0)
(-7.55371e-06 2.54285e-06 0)
(-8.54295e-06 2.90157e-06 0)
(-9.65093e-06 3.38229e-06 0)
(-1.09019e-05 4.04428e-06 0)
(-1.23153e-05 4.98605e-06 0)
(-1.38793e-05 6.37573e-06 0)
(-1.54659e-05 8.4981e-06 0)
(-1.65923e-05 1.17645e-05 0)
(-1.61123e-05 1.62887e-05 0)
(-1.35461e-05 2.00497e-05 0)
(-9.88552e-06 2.18316e-05 0)
(-6.76245e-06 2.13505e-05 0)
(-5.56442e-06 2.0079e-05 0)
(-3.81932e-06 2.21105e-05 0)
(-6.40007e-07 2.10825e-05 0)
(-8.68319e-07 1.68262e-05 0)
(8.33357e-07 2.14902e-05 0)
(7.01871e-07 1.31626e-05 0)
(1.38456e-06 2.05484e-05 0)
(1.35095e-06 1.00563e-05 0)
(-1.64948e-05 7.54048e-06 0)
(-1.68513e-05 2.49168e-05 0)
(-2.30534e-06 2.27971e-06 0)
(-7.72928e-07 1.33041e-06 0)
(-4.22018e-07 9.84752e-07 0)
(-2.71229e-07 7.70697e-07 0)
(-1.91408e-07 6.24081e-07 0)
(-1.31788e-07 5.48902e-07 0)
(-4.62347e-08 5.28948e-07 0)
(4.62347e-08 5.28948e-07 0)
(1.31788e-07 5.48902e-07 0)
(1.91408e-07 6.24081e-07 0)
(2.71229e-07 7.70697e-07 0)
(4.22018e-07 9.84752e-07 0)
(7.72928e-07 1.33041e-06 0)
(2.30534e-06 2.27971e-06 0)
(1.68513e-05 2.49168e-05 0)
(1.64948e-05 7.54048e-06 0)
(-1.35095e-06 1.00563e-05 0)
(-1.38456e-06 2.05484e-05 0)
(-7.01871e-07 1.31626e-05 0)
(-8.33357e-07 2.14902e-05 0)
(8.68319e-07 1.68262e-05 0)
(6.40007e-07 2.10825e-05 0)
(3.81932e-06 2.21105e-05 0)
(5.56442e-06 2.0079e-05 0)
(6.76245e-06 2.13505e-05 0)
(9.88552e-06 2.18316e-05 0)
(1.35461e-05 2.00497e-05 0)
(1.61123e-05 1.62887e-05 0)
(1.65923e-05 1.17645e-05 0)
(1.54659e-05 8.4981e-06 0)
(1.38793e-05 6.37573e-06 0)
(1.23153e-05 4.98605e-06 0)
(1.09019e-05 4.04428e-06 0)
(9.65093e-06 3.38229e-06 0)
(8.54295e-06 2.90157e-06 0)
(7.55371e-06 2.54285e-06 0)
(6.66112e-06 2.26924e-06 0)
(5.84679e-06 2.057e-06 0)
(5.09579e-06 1.89035e-06 0)
(4.39602e-06 1.75857e-06 0)
(3.73761e-06 1.65415e-06 0)
(3.11239e-06 1.57181e-06 0)
(2.51347e-06 1.50774e-06 0)
(1.93496e-06 1.45923e-06 0)
(1.37165e-06 1.42434e-06 0)
(8.18873e-07 1.40175e-06 0)
(2.72278e-07 1.39066e-06 0)
(-2.69608e-07 1.63249e-06 0)
(-8.10769e-07 1.64536e-06 0)
(-1.35782e-06 1.67155e-06 0)
(-1.9149e-06 1.71199e-06 0)
(-2.4864e-06 1.76818e-06 0)
(-3.07721e-06 1.84228e-06 0)
(-3.69278e-06 1.93735e-06 0)
(-4.33938e-06 2.05765e-06 0)
(-5.02432e-06 2.20906e-06 0)
(-5.75621e-06 2.39982e-06 0)
(-6.54524e-06 2.6416e-06 0)
(-7.40339e-06 2.95128e-06 0)
(-8.34432e-06 3.35374e-06 0)
(-9.3823e-06 3.88658e-06 0)
(-1.05286e-05 4.60791e-06 0)
(-1.17806e-05 5.60886e-06 0)
(-1.30933e-05 7.03183e-06 0)
(-1.43069e-05 9.08423e-06 0)
(-1.50062e-05 1.19845e-05 0)
(-1.44614e-05 1.56098e-05 0)
(-1.24129e-05 1.86794e-05 0)
(-9.54413e-06 2.03037e-05 0)
(-6.97068e-06 2.03469e-05 0)
(-5.44679e-06 1.98608e-05 0)
(-3.73162e-06 2.07847e-05 0)
(-1.49559e-06 2.00105e-05 0)
(-9.60725e-07 1.77457e-05 0)
(1.89875e-07 1.93089e-05 0)
(4.14309e-07 1.52951e-05 0)
(7.59329e-07 1.79642e-05 0)
(1.50944e-07 1.2939e-05 0)
(-4.95892e-06 1.46879e-05 0)
(3.69604e-06 3.68078e-05 0)
(9.99496e-06 9.1847e-06 0)
(-1.72367e-07 7.29507e-06 0)
(-6.19651e-06 8.45626e-06 0)
(-4.30048e-06 3.80057e-06 0)
(-9.78749e-07 1.13426e-06 0)
(-3.9135e-07 6.70962e-07 0)
(-1.17917e-07 6.34082e-07 0)
(1.17917e-07 6.34082e-07 0)
(3.9135e-07 6.70962e-07 0)
(9.78749e-07 1.13426e-06 0)
(4.30048e-06 3.80057e-06 0)
(6.19651e-06 8.45626e-06 0)
(1.72367e-07 7.29507e-06 0)
(-9.99496e-06 9.1847e-06 0)
(-3.69604e-06 3.68078e-05 0)
(4.95892e-06 1.46879e-05 0)
(-1.50944e-07 1.2939e-05 0)
(-7.59329e-07 1.79642e-05 0)
(-4.14309e-07 1.52951e-05 0)
(-1.89875e-07 1.93089e-05 0)
(9.60725e-07 1.77457e-05 0)
(1.49559e-06 2.00105e-05 0)
(3.73162e-06 2.07847e-05 0)
(5.44679e-06 1.98608e-05 0)
(6.97068e-06 2.03469e-05 0)
(9.54413e-06 2.03037e-05 0)
(1.24129e-05 1.86794e-05 0)
(1.44614e-05 1.56098e-05 0)
(1.50062e-05 1.19845e-05 0)
(1.43069e-05 9.08423e-06 0)
(1.30933e-05 7.03183e-06 0)
(1.17806e-05 5.60886e-06 0)
(1.05286e-05 4.60791e-06 0)
(9.3823e-06 3.88658e-06 0)
(8.34432e-06 3.35374e-06 0)
(7.40339e-06 2.95128e-06 0)
(6.54524e-06 2.6416e-06 0)
(5.75621e-06 2.39982e-06 0)
(5.02432e-06 2.20906e-06 0)
(4.33938e-06 2.05765e-06 0)
(3.69278e-06 1.93735e-06 0)
(3.07721e-06 1.84228e-06 0)
(2.4864e-06 1.76818e-06 0)
(1.9149e-06 1.71199e-06 0)
(1.35782e-06 1.67155e-06 0)
(8.10769e-07 1.64536e-06 0)
(2.69608e-07 1.63249e-06 0)
(-2.66234e-07 1.89476e-06 0)
(-8.00532e-07 1.90948e-06 0)
(-1.34037e-06 1.93941e-06 0)
(-1.88959e-06 1.9856e-06 0)
(-2.45231e-06 2.04969e-06 0)
(-3.03296e-06 2.13408e-06 0)
(-3.6365e-06 2.24215e-06 0)
(-4.26848e-06 2.37851e-06 0)
(-4.93519e-06 2.54955e-06 0)
(-5.64379e-06 2.76407e-06 0)
(-6.40234e-06 3.03436e-06 0)
(-7.2196e-06 3.37787e-06 0)
(-8.10426e-06 3.81967e-06 0)
(-9.0629e-06 4.39639e-06 0)
(-1.00948e-05 5.16196e-06 0)
(-1.11803e-05 6.19547e-06 0)
(-1.22539e-05 7.60814e-06 0)
(-1.31532e-05 9.53531e-06 0)
(-1.3551e-05 1.20638e-05 0)
(-1.29944e-05 1.4991e-05 0)
(-1.13577e-05 1.75032e-05 0)
(-9.10215e-06 1.89849e-05 0)
(-6.95911e-06 1.93663e-05 0)
(-5.36149e-06 1.93115e-05 0)
(-3.75453e-06 1.971e-05 0)
(-2.04506e-06 1.91654e-05 0)
(-1.20286e-06 1.79096e-05 0)
(-3.04156e-07 1.81474e-05 0)
(7.13322e-08 1.61595e-05 0)
(2.91548e-07 1.68258e-05 0)
(-1.36476e-07 1.45806e-05 0)
(-1.49455e-06 1.61281e-05 0)
(1.0572e-06 2.15326e-05 0)
(3.26905e-06 1.52924e-05 0)
(1.6958e-06 1.36836e-05 0)
(1.09769e-06 1.51166e-05 0)
(-1.48959e-06 1.00485e-05 0)
(-2.99354e-06 2.84337e-06 0)
(-1.09782e-06 9.65251e-07 0)
(-3.22204e-07 7.26451e-07 0)
(3.22204e-07 7.26451e-07 0)
(1.09782e-06 9.65251e-07 0)
(2.99354e-06 2.84337e-06 0)
(1.48959e-06 1.00485e-05 0)
(-1.09769e-06 1.51166e-05 0)
(-1.6958e-06 1.36836e-05 0)
(-3.26905e-06 1.52924e-05 0)
(-1.0572e-06 2.15326e-05 0)
(1.49455e-06 1.61281e-05 0)
(1.36476e-07 1.45806e-05 0)
(-2.91548e-07 1.68258e-05 0)
(-7.13322e-08 1.61595e-05 0)
(3.04156e-07 1.81474e-05 0)
(1.20286e-06 1.79096e-05 0)
(2.04506e-06 1.91654e-05 0)
(3.75453e-06 1.971e-05 0)
(5.36149e-06 1.93115e-05 0)
(6.95911e-06 1.93663e-05 0)
(9.10215e-06 1.89849e-05 0)
(1.13577e-05 1.75032e-05 0)
(1.29944e-05 1.4991e-05 0)
(1.3551e-05 1.20638e-05 0)
(1.31532e-05 9.53531e-06 0)
(1.22539e-05 7.60814e-06 0)
(1.11803e-05 6.19547e-06 0)
(1.00948e-05 5.16196e-06 0)
(9.0629e-06 4.39639e-06 0)
(8.10426e-06 3.81967e-06 0)
(7.2196e-06 3.37787e-06 0)
(6.40234e-06 3.03436e-06 0)
(5.64379e-06 2.76407e-06 0)
(4.93519e-06 2.54955e-06 0)
(4.26848e-06 2.37851e-06 0)
(3.6365e-06 2.24215e-06 0)
(3.03296e-06 2.13408e-06 0)
(2.45231e-06 2.04969e-06 0)
(1.88959e-06 1.9856e-06 0)
(1.34037e-06 1.93941e-06 0)
(8.00532e-07 1.90948e-06 0)
(2.66234e-07 1.89476e-06 0)
(-2.62031e-07 2.17833e-06 0)
(-7.87781e-07 2.19494e-06 0)
(-1.31864e-06 2.22869e-06 0)
(-1.85813e-06 2.28072e-06 0)
(-2.40997e-06 2.35281e-06 0)
(-2.97814e-06 2.44757e-06 0)
(-3.56696e-06 2.5686e-06 0)
(-4.18116e-06 2.72082e-06 0)
(-4.8259e-06 2.91095e-06 0)
(-5.50675e-06 3.14812e-06 0)
(-6.22946e-06 3.44487e-06 0)
(-6.99947e-06 3.81856e-06 0)
(-7.82061e-06 4.29343e-06 0)
(-8.69241e-06 4.90343e-06 0)
(-9.60444e-06 5.69587e-06 0)
(-1.05251e-05 6.73476e-06 0)
(-1.13811e-05 8.09961e-06 0)
(-1.20259e-05 9.86677e-06 0)
(-1.22174e-05 1.20436e-05 0)
(-1.16824e-05 1.44255e-05 0)
(-1.03704e-05 1.64933e-05 0)
(-8.58645e-06 1.78373e-05 0)
(-6.79641e-06 1.84106e-05 0)
(-5.2705e-06 1.85917e-05 0)
(-3.80786e-06 1.8785e-05 0)
(-2.40918e-06 1.8429e-05 0)
(-1.48398e-06 1.76949e-05 0)
(-7.02108e-07 1.74625e-05 0)
(-2.62144e-07 1.64048e-05 0)
(-4.32249e-08 1.63447e-05 0)
(-1.9591e-07 1.53668e-05 0)
(-4.44872e-07 1.61775e-05 0)
(4.30204e-07 1.73746e-05 0)
(1.16254e-06 1.59756e-05 0)
(9.10663e-07 1.51319e-05 0)
(3.93401e-07 1.50114e-05 0)
(-5.76733e-07 1.44151e-05 0)
(-1.24846e-06 4.06702e-06 0)
(-9.92508e-07 1.00592e-06 0)
(-3.95432e-07 6.37293e-07 0)
(3.95432e-07 6.37293e-07 0)
(9.92508e-07 1.00592e-06 0)
(1.24846e-06 4.06702e-06 0)
(5.76733e-07 1.44151e-05 0)
(-3.93401e-07 1.50114e-05 0)
(-9.10663e-07 1.51319e-05 0)
(-1.16254e-06 1.59756e-05 0)
(-4.30204e-07 1.73746e-05 0)
(4.44872e-07 1.61775e-05 0)
(1.9591e-07 1.53668e-05 0)
(4.32249e-08 1.63447e-05 0)
(2.62144e-07 1.64048e-05 0)
(7.02108e-07 1.74625e-05 0)
(1.48398e-06 1.76949e-05 0)
(2.40918e-06 1.8429e-05 0)
(3.80786e-06 1.8785e-05 0)
(5.2705e-06 1.85917e-05 0)
(6.79641e-06 1.84106e-05 0)
(8.58645e-06 1.78373e-05 0)
(1.03704e-05 1.64933e-05 0)
(1.16824e-05 1.44255e-05 0)
(1.22174e-05 1.20436e-05 0)
(1.20259e-05 9.86677e-06 0)
(1.13811e-05 8.09961e-06 0)
(1.05251e-05 6.73476e-06 0)
(9.60444e-06 5.69587e-06 0)
(8.69241e-06 4.90343e-06 0)
(7.82061e-06 4.29343e-06 0)
(6.99947e-06 3.81856e-06 0)
(6.22946e-06 3.44487e-06 0)
(5.50675e-06 3.14812e-06 0)
(4.8259e-06 2.91095e-06 0)
(4.18116e-06 2.72082e-06 0)
(3.56696e-06 2.5686e-06 0)
(2.97814e-06 2.44757e-06 0)
(2.40997e-06 2.35281e-06 0)
(1.85813e-06 2.28072e-06 0)
(1.31864e-06 2.22869e-06 0)
(7.87781e-07 2.19494e-06 0)
(2.62031e-07 2.17833e-06 0)
(-2.56861e-07 2.48382e-06 0)
(-7.72106e-07 2.50231e-06 0)
(-1.29195e-06 2.53988e-06 0)
(-1.81953e-06 2.59771e-06 0)
(-2.35813e-06 2.67772e-06 0)
(-2.91118e-06 2.78264e-06 0)
(-3.48229e-06 2.91624e-06 0)
(-4.07529e-06 3.08363e-06 0)
(-4.69409e-06 3.29166e-06 0)
(-5.34258e-06 3.54951e-06 0)
(-6.02419e-06 3.86951e-06 0)
(-6.74112e-06 4.26828e-06 0)
(-7.49274e-06 4.76818e-06 0)
(-8.27273e-06 5.39908e-06 0)
(-9.06368e-06 6.19998e-06 0)
(-9.82793e-06 7.21882e-06 0)
(-1.04936e-05 8.50662e-06 0)
(-1.09394e-05 1.00967e-05 0)
(-1.09951e-05 1.19556e-05 0)
(-1.05006e-05 1.39082e-05 0)
(-9.44368e-06 1.56222e-05 0)
(-8.02282e-06 1.68307e-05 0)
(-6.53054e-06 1.7492e-05 0)
(-5.14977e-06 1.78021e-05 0)
(-3.84519e-06 1.79489e-05 0)
(-2.65188e-06 1.7744e-05 0)
(-1.74489e-06 1.73013e-05 0)
(-1.02545e-06 1.69736e-05 0)
(-5.54766e-07 1.63566e-05 0)
(-2.87448e-07 1.61053e-05 0)
(-2.29239e-07 1.56561e-05 0)
(-1.42353e-07 1.59744e-05 0)
(2.40131e-07 1.6195e-05 0)
(5.00823e-07 1.5868e-05 0)
(4.94062e-07 1.55672e-05 0)
(3.11732e-07 1.54827e-05 0)
(2.55247e-08 1.55678e-05 0)
(-2.06485e-07 3.9022e-06 0)
(-3.46564e-07 5.38645e-07 0)
(-2.11722e-07 3.44934e-07 0)
(2.11722e-07 3.44934e-07 0)
(3.46564e-07 5.38645e-07 0)
(2.06485e-07 3.9022e-06 0)
(-2.55247e-08 1.55678e-05 0)
(-3.11732e-07 1.54827e-05 0)
(-4.94062e-07 1.55672e-05 0)
(-5.00823e-07 1.5868e-05 0)
(-2.40131e-07 1.6195e-05 0)
(1.42353e-07 1.59744e-05 0)
(2.29239e-07 1.56561e-05 0)
(2.87448e-07 1.61053e-05 0)
(5.54766e-07 1.63566e-05 0)
(1.02545e-06 1.69736e-05 0)
(1.74489e-06 1.73013e-05 0)
(2.65188e-06 1.7744e-05 0)
(3.84519e-06 1.79489e-05 0)
(5.14977e-06 1.78021e-05 0)
(6.53054e-06 1.7492e-05 0)
(8.02282e-06 1.68307e-05 0)
(9.44368e-06 1.56222e-05 0)
(1.05006e-05 1.39082e-05 0)
(1.09951e-05 1.19556e-05 0)
(1.09394e-05 1.00967e-05 0)
(1.04936e-05 8.50662e-06 0)
(9.82793e-06 7.21882e-06 0)
(9.06368e-06 6.19998e-06 0)
(8.27273e-06 5.39908e-06 0)
(7.49274e-06 4.76818e-06 0)
(6.74112e-06 4.26828e-06 0)
(6.02419e-06 3.86951e-06 0)
(5.34258e-06 3.54951e-06 0)
(4.69409e-06 3.29166e-06 0)
(4.07529e-06 3.08363e-06 0)
(3.48229e-06 2.91624e-06 0)
(2.91118e-06 2.78264e-06 0)
(2.35813e-06 2.67772e-06 0)