/*--------------------------------*- C++ -*----------------------------------*\
  =========                 |
  \\      /  F ield         | OpenFOAM: The Open Source CFD Toolbox
   \\    /   O peration     | Website:  https://openfoam.org
    \\  /    A nd           | Version:  10
     \\/     M anipulation  |
\*---------------------------------------------------------------------------*/
FoamFile
{
    format      ascii;
    class       volScalarField;
    location    "52";
    object      p;
}
// * * * * * * * * * * * * * * * * * * * * * * * * * * * * * * * * * * * * * //

dimensions      [1 -1 -2 0 0 0 0];

internalField   nonuniform List<scalar> 
100
(
1.02407e+07
1.02403e+07
1.02398e+07
1.02392e+07
1.02385e+07
1.02378e+07
1.0237e+07
1.02361e+07
1.02352e+07
1.02342e+07
1.02332e+07
1.02321e+07
1.02309e+07
1.02298e+07
1.02285e+07
1.02273e+07
1.02259e+07
1.02246e+07
1.02232e+07
1.02218e+07
1.02203e+07
1.02188e+07
1.02172e+07
1.02156e+07
1.0214e+07
1.02123e+07
1.02106e+07
1.02089e+07
1.02071e+07
1.02053e+07
1.02035e+07
1.02016e+07
1.01997e+07
1.01978e+07
1.01958e+07
1.01938e+07
1.01917e+07
1.01897e+07
1.01876e+07
1.01854e+07
1.01833e+07
1.01811e+07
1.01789e+07
1.01766e+07
1.01743e+07
1.0172e+07
1.01697e+07
1.01673e+07
1.01649e+07
1.01625e+07
1.016e+07
1.01575e+07
1.0155e+07
1.01525e+07
1.01499e+07
1.01473e+07
1.01446e+07
1.0142e+07
1.01393e+07
1.01366e+07
1.01338e+07
1.01311e+07
1.01283e+07
1.01254e+07
1.01226e+07
1.01197e+07
1.01168e+07
1.01138e+07
1.01109e+07
1.01079e+07
1.01048e+07
1.01018e+07
1.00987e+07
1.00956e+07
1.00925e+07
1.00893e+07
1.00861e+07
1.00829e+07
1.00797e+07
1.00764e+07
1.00731e+07
1.00697e+07
1.00664e+07
1.0063e+07
1.00596e+07
1.00561e+07
1.00526e+07
1.00491e+07
1.00455e+07
1.00419e+07
1.00383e+07
1.00346e+07
1.00309e+07
1.00272e+07
1.00233e+07
1.00194e+07
1.00155e+07
1.00114e+07
1.00071e+07
1.00026e+07
)
;

boundaryField
{
    inlet
    {
        type            zeroGradient;
    }
    outlet
    {
        type            fixedValue;
        value           uniform 1e+07;
    }
    yzfaces
    {
        type            empty;
    }
}


// ************************************************************************* //
