/*--------------------------------*- C++ -*----------------------------------*\
  =========                 |
  \\      /  F ield         | OpenFOAM: The Open Source CFD Toolbox
   \\    /   O peration     | Website:  https://openfoam.org
    \\  /    A nd           | Version:  10
     \\/     M anipulation  |
\*---------------------------------------------------------------------------*/
FoamFile
{
    format      ascii;
    class       volScalarField;
    location    "0.1";
    object      p;
}
// * * * * * * * * * * * * * * * * * * * * * * * * * * * * * * * * * * * * * //

dimensions      [1 -1 -2 0 0 0 0];

internalField   nonuniform List<scalar> 
12225
(
2.56575e+07
2.56157e+07
2.55414e+07
2.54425e+07
2.53285e+07
2.5206e+07
2.508e+07
2.4954e+07
2.48301e+07
2.47096e+07
2.45928e+07
2.44793e+07
2.43684e+07
2.42593e+07
2.41505e+07
2.40399e+07
2.39239e+07
2.37932e+07
2.56593e+07
2.56173e+07
2.55428e+07
2.54435e+07
2.53293e+07
2.52066e+07
2.50804e+07
2.49542e+07
2.48303e+07
2.47097e+07
2.45929e+07
2.44795e+07
2.43688e+07
2.42598e+07
2.41513e+07
2.40414e+07
2.39269e+07
2.38025e+07
2.56633e+07
2.56209e+07
2.55458e+07
2.54458e+07
2.5331e+07
2.52078e+07
2.50811e+07
2.49546e+07
2.48305e+07
2.471e+07
2.45932e+07
2.44799e+07
2.43694e+07
2.42609e+07
2.41531e+07
2.40444e+07
2.39329e+07
2.38163e+07
2.56774e+07
2.56281e+07
2.5551e+07
2.54496e+07
2.53339e+07
2.52098e+07
2.50824e+07
2.49554e+07
2.4831e+07
2.47103e+07
2.45936e+07
2.44806e+07
2.43705e+07
2.42626e+07
2.41559e+07
2.40491e+07
2.39412e+07
2.38323e+07
2.56947e+07
2.56508e+07
2.55684e+07
2.54554e+07
2.53381e+07
2.52128e+07
2.50843e+07
2.49565e+07
2.48316e+07
2.47108e+07
2.45943e+07
2.44816e+07
2.43721e+07
2.42651e+07
2.41597e+07
2.40553e+07
2.39513e+07
2.38493e+07
2.57112e+07
2.56689e+07
2.55914e+07
2.5486e+07
2.53448e+07
2.52168e+07
2.50869e+07
2.4958e+07
2.48325e+07
2.47115e+07
2.45951e+07
2.44829e+07
2.43742e+07
2.42683e+07
2.41647e+07
2.40628e+07
2.39629e+07
2.38666e+07
2.57293e+07
2.56875e+07
2.56116e+07
2.55098e+07
2.53832e+07
2.52237e+07
2.50902e+07
2.49598e+07
2.48334e+07
2.47122e+07
2.45961e+07
2.44845e+07
2.43767e+07
2.42723e+07
2.41706e+07
2.40715e+07
2.39754e+07
2.38839e+07
2.575e+07
2.5708e+07
2.56325e+07
2.55317e+07
2.54099e+07
2.52678e+07
2.50957e+07
2.4962e+07
2.48344e+07
2.47129e+07
2.45971e+07
2.44863e+07
2.43798e+07
2.42769e+07
2.41773e+07
2.40811e+07
2.39886e+07
2.39011e+07
2.57741e+07
2.57313e+07
2.5655e+07
2.55541e+07
2.5434e+07
2.52977e+07
2.51394e+07
2.49651e+07
2.48353e+07
2.47135e+07
2.45981e+07
2.44883e+07
2.43832e+07
2.42821e+07
2.41848e+07
2.40914e+07
2.40022e+07
2.39182e+07
2.5802e+07
2.57577e+07
2.56798e+07
2.55778e+07
2.54579e+07
2.53237e+07
2.51745e+07
2.49936e+07
2.48358e+07
2.47136e+07
2.4599e+07
2.44904e+07
2.43869e+07
2.42878e+07
2.41929e+07
2.41022e+07
2.4016e+07
2.3935e+07
2.58345e+07
2.57878e+07
2.57072e+07
2.5603e+07
2.54822e+07
2.53487e+07
2.52036e+07
2.5043e+07
2.48469e+07
2.4713e+07
2.45994e+07
2.44924e+07
2.43908e+07
2.42939e+07
2.42014e+07
2.41133e+07
2.40298e+07
2.39514e+07
2.58691e+07
2.5819e+07
2.57346e+07
2.56275e+07
2.5505e+07
2.53713e+07
2.52278e+07
2.50734e+07
2.48978e+07
2.47131e+07
2.4599e+07
2.44939e+07
2.43943e+07
2.42995e+07
2.42093e+07
2.41236e+07
2.40425e+07
2.39662e+07
2.59079e+07
2.58531e+07
2.57636e+07
2.56526e+07
2.55279e+07
2.53933e+07
2.52507e+07
2.51e+07
2.49366e+07
2.47293e+07
2.45975e+07
2.4495e+07
2.43977e+07
2.43052e+07
2.42173e+07
2.41338e+07
2.40549e+07
2.39806e+07
2.59589e+07
2.5896e+07
2.57984e+07
2.56817e+07
2.55534e+07
2.54172e+07
2.52748e+07
2.51263e+07
2.4969e+07
2.4788e+07
2.45969e+07
2.44956e+07
2.44012e+07
2.43115e+07
2.42263e+07
2.41453e+07
2.40687e+07
2.39965e+07
2.60267e+07
2.59486e+07
2.58381e+07
2.57131e+07
2.558e+07
2.54414e+07
2.52984e+07
2.51512e+07
2.49982e+07
2.48325e+07
2.46204e+07
2.44951e+07
2.44047e+07
2.43185e+07
2.42364e+07
2.41582e+07
2.40841e+07
2.4014e+07
2.61183e+07
2.60084e+07
2.5878e+07
2.5742e+07
2.5603e+07
2.54615e+07
2.53176e+07
2.5171e+07
2.5021e+07
2.48648e+07
2.4691e+07
2.44951e+07
2.4408e+07
2.43262e+07
2.42476e+07
2.41724e+07
2.41007e+07
2.40328e+07
2.62408e+07
2.60561e+07
2.59011e+07
2.57556e+07
2.56125e+07
2.54692e+07
2.53248e+07
2.51785e+07
2.50296e+07
2.48765e+07
2.47152e+07
2.4527e+07
2.4412e+07
2.43359e+07
2.42607e+07
2.41882e+07
2.41189e+07
2.40529e+07
2.60824e+07
2.59818e+07
2.58569e+07
2.57243e+07
2.5588e+07
2.5449e+07
2.53074e+07
2.51627e+07
2.50132e+07
2.48549e+07
2.46712e+07
2.45199e+07
2.44337e+07
2.43538e+07
2.42782e+07
2.42066e+07
2.41385e+07
2.4074e+07
2.59062e+07
2.58459e+07
2.57527e+07
2.56412e+07
2.55186e+07
2.53884e+07
2.52519e+07
2.51078e+07
2.49484e+07
2.47394e+07
2.46234e+07
2.45332e+07
2.44489e+07
2.43698e+07
2.42952e+07
2.42247e+07
2.4158e+07
2.40947e+07
2.57537e+07
2.57088e+07
2.56326e+07
2.5535e+07
2.54223e+07
2.52973e+07
2.51611e+07
2.50087e+07
2.48074e+07
2.47105e+07
2.46207e+07
2.45353e+07
2.44544e+07
2.43777e+07
2.43051e+07
2.42362e+07
2.41708e+07
2.41088e+07
2.56401e+07
2.56015e+07
2.5533e+07
2.54418e+07
2.53326e+07
2.52035e+07
2.50458e+07
2.48878e+07
2.4793e+07
2.47027e+07
2.46165e+07
2.45341e+07
2.44557e+07
2.4381e+07
2.431e+07
2.42424e+07
2.41782e+07
2.41171e+07
2.55451e+07
2.55087e+07
2.54428e+07
2.53516e+07
2.52393e+07
2.50763e+07
2.49671e+07
2.48727e+07
2.47823e+07
2.46954e+07
2.46119e+07
2.45319e+07
2.44554e+07
2.43823e+07
2.43126e+07
2.42461e+07
2.41828e+07
2.41224e+07
2.5463e+07
2.54252e+07
2.53564e+07
2.5249e+07
2.5125e+07
2.50375e+07
2.49484e+07
2.48597e+07
2.4773e+07
2.46889e+07
2.46078e+07
2.45296e+07
2.44546e+07
2.43827e+07
2.4314e+07
2.42484e+07
2.41857e+07
2.41259e+07
2.53866e+07
2.53387e+07
2.52537e+07
2.51795e+07
2.51011e+07
2.50191e+07
2.49345e+07
2.48496e+07
2.47657e+07
2.46838e+07
2.46043e+07
2.45276e+07
2.44537e+07
2.43827e+07
2.43147e+07
2.42497e+07
2.41876e+07
2.41282e+07
2.53006e+07
2.52705e+07
2.52219e+07
2.51582e+07
2.50847e+07
2.50061e+07
2.49246e+07
2.48422e+07
2.47604e+07
2.468e+07
2.46018e+07
2.4526e+07
2.44529e+07
2.43826e+07
2.43151e+07
2.42505e+07
2.41888e+07
2.41297e+07
2.52755e+07
2.52502e+07
2.52045e+07
2.5144e+07
2.50736e+07
2.49973e+07
2.49178e+07
2.48371e+07
2.47566e+07
2.46773e+07
2.45999e+07
2.45248e+07
2.44522e+07
2.43824e+07
2.43153e+07
2.4251e+07
2.41895e+07
2.41307e+07
2.52617e+07
2.52374e+07
2.51934e+07
2.51348e+07
2.50663e+07
2.49915e+07
2.49133e+07
2.48337e+07
2.47541e+07
2.46755e+07
2.45987e+07
2.4524e+07
2.44518e+07
2.43822e+07
2.43154e+07
2.42513e+07
2.419e+07
2.41313e+07
2.52534e+07
2.52297e+07
2.51867e+07
2.51293e+07
2.50618e+07
2.4988e+07
2.49106e+07
2.48316e+07
2.47525e+07
2.46744e+07
2.45979e+07
2.45235e+07
2.44515e+07
2.43821e+07
2.43155e+07
2.42515e+07
2.41902e+07
2.41317e+07
2.52489e+07
2.52255e+07
2.51831e+07
2.51263e+07
2.50594e+07
2.49861e+07
2.49091e+07
2.48305e+07
2.47517e+07
2.46738e+07
2.45975e+07
2.45232e+07
2.44514e+07
2.43821e+07
2.43155e+07
2.42516e+07
2.41904e+07
2.41319e+07
2.52471e+07
2.52239e+07
2.51816e+07
2.5125e+07
2.50584e+07
2.49853e+07
2.49085e+07
2.483e+07
2.47514e+07
2.46735e+07
2.45973e+07
2.45231e+07
2.44513e+07
2.43821e+07
2.43155e+07
2.42516e+07
2.41904e+07
2.41319e+07
2.26731e+07
2.26725e+07
2.26715e+07
2.267e+07
2.26679e+07
2.26653e+07
2.26621e+07
2.26583e+07
2.2654e+07
2.26491e+07
2.26436e+07
2.26375e+07
2.26308e+07
2.26235e+07
2.26156e+07
2.26071e+07
2.2598e+07
2.25883e+07
2.25779e+07
2.2567e+07
2.25554e+07
2.25432e+07
2.25304e+07
2.25169e+07
2.25029e+07
2.24882e+07
2.2473e+07
2.24571e+07
2.24407e+07
2.24236e+07
2.2406e+07
2.23878e+07
2.2369e+07
2.23496e+07
2.23296e+07
2.23091e+07
2.2288e+07
2.22664e+07
2.22442e+07
2.22215e+07
2.21982e+07
2.21744e+07
2.21501e+07
2.21253e+07
2.20999e+07
2.20741e+07
2.20477e+07
2.20208e+07
2.19935e+07
2.19656e+07
2.19373e+07
2.19085e+07
2.18792e+07
2.18494e+07
2.18192e+07
2.17885e+07
2.17574e+07
2.17258e+07
2.16938e+07
2.16613e+07
2.16284e+07
2.1595e+07
2.15612e+07
2.1527e+07
2.14923e+07
2.14572e+07
2.14217e+07
2.13858e+07
2.13495e+07
2.13127e+07
2.12756e+07
2.1238e+07
2.12e+07
2.11616e+07
2.11228e+07
2.10836e+07
2.1044e+07
2.1004e+07
2.09635e+07
2.09227e+07
2.08815e+07
2.08399e+07
2.07979e+07
2.07555e+07
2.07127e+07
2.06695e+07
2.06258e+07
2.05818e+07
2.05374e+07
2.04926e+07
2.04474e+07
2.04018e+07
2.03558e+07
2.03094e+07
2.02626e+07
2.02154e+07
2.01678e+07
2.01197e+07
2.00713e+07
2.00225e+07
1.99732e+07
1.99236e+07
1.98735e+07
1.9823e+07
1.97721e+07
1.97208e+07
1.9669e+07
1.96168e+07
1.95642e+07
1.95112e+07
1.94578e+07
1.94039e+07
1.93496e+07
1.92948e+07
1.92396e+07
1.9184e+07
1.91279e+07
1.90714e+07
1.90144e+07
1.8957e+07
1.88991e+07
1.88408e+07
1.8782e+07
1.87227e+07
1.8663e+07
1.86028e+07
1.85421e+07
1.84809e+07
1.84193e+07
1.83572e+07
1.82945e+07
1.82314e+07
1.81679e+07
1.81038e+07
1.80392e+07
1.79741e+07
1.79085e+07
1.78423e+07
1.77757e+07
1.77085e+07
1.76409e+07
1.75726e+07
1.75039e+07
1.74346e+07
1.73648e+07
1.72944e+07
1.72235e+07
1.71521e+07
1.70801e+07
1.70075e+07
1.69343e+07
1.68606e+07
1.67863e+07
1.67115e+07
1.6636e+07
1.656e+07
1.64834e+07
1.64061e+07
1.63283e+07
1.62499e+07
1.61709e+07
1.60913e+07
1.6011e+07
1.59302e+07
1.58487e+07
1.57666e+07
1.56839e+07
1.56005e+07
1.55166e+07
1.5432e+07
1.53469e+07
1.52611e+07
1.51748e+07
1.50879e+07
1.50006e+07
1.49128e+07
1.48246e+07
1.47364e+07
1.46482e+07
1.4561e+07
2.26753e+07
2.26748e+07
2.26738e+07
2.26722e+07
2.26701e+07
2.26675e+07
2.26643e+07
2.26605e+07
2.26562e+07
2.26512e+07
2.26457e+07
2.26396e+07
2.26329e+07
2.26255e+07
2.26176e+07
2.2609e+07
2.25999e+07
2.25901e+07
2.25797e+07
2.25687e+07
2.25571e+07
2.25448e+07
2.2532e+07
2.25185e+07
2.25044e+07
2.24897e+07
2.24744e+07
2.24585e+07
2.2442e+07
2.24249e+07
2.24072e+07
2.2389e+07
2.23701e+07
2.23507e+07
2.23307e+07
2.23101e+07
2.2289e+07
2.22673e+07
2.22451e+07
2.22224e+07
2.21991e+07
2.21752e+07
2.21509e+07
2.2126e+07
2.21006e+07
2.20747e+07
2.20483e+07
2.20214e+07
2.1994e+07
2.19661e+07
2.19378e+07
2.19089e+07
2.18796e+07
2.18499e+07
2.18196e+07
2.17889e+07
2.17578e+07
2.17261e+07
2.16941e+07
2.16616e+07
2.16286e+07
2.15953e+07
2.15615e+07
2.15272e+07
2.14926e+07
2.14575e+07
2.14219e+07
2.1386e+07
2.13497e+07
2.13129e+07
2.12757e+07
2.12381e+07
2.12001e+07
2.11617e+07
2.11229e+07
2.10837e+07
2.10441e+07
2.10041e+07
2.09636e+07
2.09228e+07
2.08816e+07
2.084e+07
2.0798e+07
2.07555e+07
2.07127e+07
2.06695e+07
2.06259e+07
2.05819e+07
2.05375e+07
2.04927e+07
2.04475e+07
2.04019e+07
2.03558e+07
2.03094e+07
2.02626e+07
2.02154e+07
2.01678e+07
2.01198e+07
2.00713e+07
2.00225e+07
1.99732e+07
1.99236e+07
1.98735e+07
1.9823e+07
1.97721e+07
1.97208e+07
1.9669e+07
1.96168e+07
1.95642e+07
1.95112e+07
1.94578e+07
1.94039e+07
1.93496e+07
1.92948e+07
1.92396e+07
1.9184e+07
1.91279e+07
1.90714e+07
1.90144e+07
1.8957e+07
1.88991e+07
1.88408e+07
1.8782e+07
1.87227e+07
1.8663e+07
1.86027e+07
1.85421e+07
1.84809e+07
1.84193e+07
1.83571e+07
1.82945e+07
1.82314e+07
1.81678e+07
1.81038e+07
1.80392e+07
1.79741e+07
1.79084e+07
1.78423e+07
1.77757e+07
1.77085e+07
1.76408e+07
1.75726e+07
1.75039e+07
1.74346e+07
1.73648e+07
1.72944e+07
1.72235e+07
1.71521e+07
1.708e+07
1.70075e+07
1.69343e+07
1.68606e+07
1.67863e+07
1.67115e+07
1.6636e+07
1.656e+07
1.64834e+07
1.64061e+07
1.63283e+07
1.62499e+07
1.61709e+07
1.60913e+07
1.6011e+07
1.59302e+07
1.58487e+07
1.57666e+07
1.56839e+07
1.56005e+07
1.55166e+07
1.5432e+07
1.53468e+07
1.52611e+07
1.51748e+07
1.50879e+07
1.50005e+07
1.49127e+07
1.48245e+07
1.47362e+07
1.46479e+07
1.45602e+07
2.26799e+07
2.26794e+07
2.26784e+07
2.26768e+07
2.26747e+07
2.2672e+07
2.26687e+07
2.26649e+07
2.26605e+07
2.26555e+07
2.26499e+07
2.26438e+07
2.2637e+07
2.26296e+07
2.26216e+07
2.26129e+07
2.26037e+07
2.25938e+07
2.25833e+07
2.25722e+07
2.25605e+07
2.25482e+07
2.25352e+07
2.25216e+07
2.25075e+07
2.24927e+07
2.24773e+07
2.24613e+07
2.24447e+07
2.24275e+07
2.24097e+07
2.23913e+07
2.23724e+07
2.23529e+07
2.23328e+07
2.23122e+07
2.2291e+07
2.22692e+07
2.22469e+07
2.22241e+07
2.22007e+07
2.21768e+07
2.21524e+07
2.21274e+07
2.2102e+07
2.2076e+07
2.20495e+07
2.20226e+07
2.19951e+07
2.19672e+07
2.19388e+07
2.19099e+07
2.18806e+07
2.18507e+07
2.18204e+07
2.17897e+07
2.17585e+07
2.17268e+07
2.16948e+07
2.16622e+07
2.16292e+07
2.15958e+07
2.1562e+07
2.15277e+07
2.1493e+07
2.14579e+07
2.14224e+07
2.13864e+07
2.135e+07
2.13133e+07
2.12761e+07
2.12384e+07
2.12004e+07
2.1162e+07
2.11232e+07
2.1084e+07
2.10443e+07
2.10043e+07
2.09638e+07
2.0923e+07
2.08818e+07
2.08401e+07
2.07981e+07
2.07557e+07
2.07129e+07
2.06696e+07
2.0626e+07
2.0582e+07
2.05376e+07
2.04928e+07
2.04476e+07
2.04019e+07
2.03559e+07
2.03095e+07
2.02627e+07
2.02155e+07
2.01678e+07
2.01198e+07
2.00714e+07
2.00225e+07
1.99733e+07
1.99236e+07
1.98735e+07
1.9823e+07
1.97721e+07
1.97208e+07
1.9669e+07
1.96169e+07
1.95643e+07
1.95112e+07
1.94578e+07
1.94039e+07
1.93496e+07
1.92948e+07
1.92396e+07
1.9184e+07
1.91279e+07
1.90714e+07
1.90144e+07
1.8957e+07
1.88991e+07
1.88408e+07
1.8782e+07
1.87227e+07
1.86629e+07
1.86027e+07
1.85421e+07
1.84809e+07
1.84193e+07
1.83571e+07
1.82945e+07
1.82314e+07
1.81678e+07
1.81037e+07
1.80391e+07
1.7974e+07
1.79084e+07
1.78423e+07
1.77757e+07
1.77085e+07
1.76408e+07
1.75726e+07
1.75039e+07
1.74346e+07
1.73648e+07
1.72944e+07
1.72235e+07
1.71521e+07
1.708e+07
1.70075e+07
1.69343e+07
1.68606e+07
1.67863e+07
1.67114e+07
1.6636e+07
1.656e+07
1.64833e+07
1.64061e+07
1.63283e+07
1.62499e+07
1.61709e+07
1.60912e+07
1.6011e+07
1.59301e+07
1.58487e+07
1.57666e+07
1.56838e+07
1.56005e+07
1.55165e+07
1.5432e+07
1.53468e+07
1.5261e+07
1.51747e+07
1.50878e+07
1.50004e+07
1.49125e+07
1.48243e+07
1.47358e+07
1.46473e+07
1.45591e+07
2.26869e+07
2.26863e+07
2.26853e+07
2.26836e+07
2.26815e+07
2.26787e+07
2.26754e+07
2.26716e+07
2.26671e+07
2.2662e+07
2.26563e+07
2.265e+07
2.26432e+07
2.26356e+07
2.26275e+07
2.26188e+07
2.26094e+07
2.25994e+07
2.25888e+07
2.25775e+07
2.25657e+07
2.25532e+07
2.25401e+07
2.25264e+07
2.2512e+07
2.24971e+07
2.24816e+07
2.24654e+07
2.24487e+07
2.24313e+07
2.24134e+07
2.23949e+07
2.23758e+07
2.23562e+07
2.2336e+07
2.23152e+07
2.22939e+07
2.2272e+07
2.22496e+07
2.22266e+07
2.22031e+07
2.21791e+07
2.21546e+07
2.21296e+07
2.2104e+07
2.20779e+07
2.20514e+07
2.20244e+07
2.19968e+07
2.19688e+07
2.19403e+07
2.19114e+07
2.18819e+07
2.1852e+07
2.18217e+07
2.17909e+07
2.17596e+07
2.17279e+07
2.16958e+07
2.16632e+07
2.16301e+07
2.15967e+07
2.15628e+07
2.15285e+07
2.14937e+07
2.14586e+07
2.1423e+07
2.1387e+07
2.13506e+07
2.13138e+07
2.12766e+07
2.12389e+07
2.12009e+07
2.11624e+07
2.11236e+07
2.10843e+07
2.10447e+07
2.10046e+07
2.09642e+07
2.09233e+07
2.08821e+07
2.08404e+07
2.07984e+07
2.07559e+07
2.07131e+07
2.06698e+07
2.06262e+07
2.05822e+07
2.05377e+07
2.04929e+07
2.04477e+07
2.04021e+07
2.0356e+07
2.03096e+07
2.02628e+07
2.02156e+07
2.01679e+07
2.01199e+07
2.00714e+07
2.00226e+07
1.99733e+07
1.99237e+07
1.98736e+07
1.98231e+07
1.97722e+07
1.97208e+07
1.96691e+07
1.96169e+07
1.95643e+07
1.95113e+07
1.94578e+07
1.94039e+07
1.93496e+07
1.92948e+07
1.92396e+07
1.9184e+07
1.91279e+07
1.90714e+07
1.90144e+07
1.8957e+07
1.88991e+07
1.88408e+07
1.8782e+07
1.87227e+07
1.86629e+07
1.86027e+07
1.85421e+07
1.84809e+07
1.84193e+07
1.83571e+07
1.82945e+07
1.82314e+07
1.81678e+07
1.81037e+07
1.80391e+07
1.7974e+07
1.79084e+07
1.78423e+07
1.77757e+07
1.77085e+07
1.76408e+07
1.75726e+07
1.75039e+07
1.74346e+07
1.73648e+07
1.72944e+07
1.72235e+07
1.7152e+07
1.708e+07
1.70074e+07
1.69343e+07
1.68606e+07
1.67863e+07
1.67114e+07
1.6636e+07
1.656e+07
1.64833e+07
1.64061e+07
1.63283e+07
1.62499e+07
1.61709e+07
1.60912e+07
1.6011e+07
1.59301e+07
1.58486e+07
1.57665e+07
1.56838e+07
1.56005e+07
1.55165e+07
1.54319e+07
1.53467e+07
1.5261e+07
1.51746e+07
1.50877e+07
1.50002e+07
1.49123e+07
1.4824e+07
1.47354e+07
1.46466e+07
1.45577e+07
2.26962e+07
2.26956e+07
2.26945e+07
2.26928e+07
2.26906e+07
2.26878e+07
2.26844e+07
2.26805e+07
2.26759e+07
2.26707e+07
2.26649e+07
2.26585e+07
2.26514e+07
2.26438e+07
2.26355e+07
2.26266e+07
2.2617e+07
2.26069e+07
2.25961e+07
2.25846e+07
2.25726e+07
2.25599e+07
2.25466e+07
2.25327e+07
2.25181e+07
2.2503e+07
2.24873e+07
2.24709e+07
2.2454e+07
2.24365e+07
2.24184e+07
2.23997e+07
2.23804e+07
2.23606e+07
2.23402e+07
2.23192e+07
2.22978e+07
2.22757e+07
2.22531e+07
2.223e+07
2.22064e+07
2.21822e+07
2.21576e+07
2.21324e+07
2.21067e+07
2.20805e+07
2.20539e+07
2.20267e+07
2.19991e+07
2.19709e+07
2.19423e+07
2.19133e+07
2.18837e+07
2.18538e+07
2.18233e+07
2.17924e+07
2.17611e+07
2.17293e+07
2.16971e+07
2.16644e+07
2.16313e+07
2.15978e+07
2.15639e+07
2.15295e+07
2.14947e+07
2.14595e+07
2.14239e+07
2.13878e+07
2.13514e+07
2.13145e+07
2.12772e+07
2.12396e+07
2.12015e+07
2.1163e+07
2.11241e+07
2.10848e+07
2.10451e+07
2.10051e+07
2.09646e+07
2.09237e+07
2.08824e+07
2.08407e+07
2.07987e+07
2.07562e+07
2.07133e+07
2.06701e+07
2.06264e+07
2.05824e+07
2.0538e+07
2.04931e+07
2.04479e+07
2.04022e+07
2.03562e+07
2.03098e+07
2.02629e+07
2.02157e+07
2.0168e+07
2.012e+07
2.00715e+07
2.00227e+07
1.99734e+07
1.99237e+07
1.98736e+07
1.98231e+07
1.97722e+07
1.97209e+07
1.96691e+07
1.96169e+07
1.95643e+07
1.95113e+07
1.94578e+07
1.9404e+07
1.93496e+07
1.92949e+07
1.92397e+07
1.9184e+07
1.91279e+07
1.90714e+07
1.90144e+07
1.8957e+07
1.88991e+07
1.88408e+07
1.8782e+07
1.87227e+07
1.8663e+07
1.86027e+07
1.85421e+07
1.84809e+07
1.84193e+07
1.83571e+07
1.82945e+07
1.82314e+07
1.81678e+07
1.81037e+07
1.80391e+07
1.7974e+07
1.79084e+07
1.78423e+07
1.77757e+07
1.77085e+07
1.76408e+07
1.75726e+07
1.75039e+07
1.74346e+07
1.73648e+07
1.72944e+07
1.72235e+07
1.7152e+07
1.708e+07
1.70074e+07
1.69343e+07
1.68606e+07
1.67863e+07
1.67114e+07
1.6636e+07
1.65599e+07
1.64833e+07
1.64061e+07
1.63283e+07
1.62499e+07
1.61708e+07
1.60912e+07
1.6011e+07
1.59301e+07
1.58486e+07
1.57665e+07
1.56838e+07
1.56004e+07
1.55165e+07
1.54319e+07
1.53467e+07
1.52609e+07
1.51745e+07
1.50875e+07
1.5e+07
1.4912e+07
1.48236e+07
1.47348e+07
1.46457e+07
1.45563e+07
2.27079e+07
2.27073e+07
2.27062e+07
2.27045e+07
2.27022e+07
2.26993e+07
2.26958e+07
2.26917e+07
2.2687e+07
2.26816e+07
2.26757e+07
2.26691e+07
2.26619e+07
2.2654e+07
2.26455e+07
2.26364e+07
2.26266e+07
2.26162e+07
2.26052e+07
2.25935e+07
2.25812e+07
2.25683e+07
2.25547e+07
2.25406e+07
2.25258e+07
2.25104e+07
2.24944e+07
2.24778e+07
2.24606e+07
2.24429e+07
2.24245e+07
2.24056e+07
2.23861e+07
2.23661e+07
2.23454e+07
2.23243e+07
2.23026e+07
2.22803e+07
2.22576e+07
2.22343e+07
2.22104e+07
2.21861e+07
2.21613e+07
2.21359e+07
2.21101e+07
2.20837e+07
2.20569e+07
2.20296e+07
2.20018e+07
2.19736e+07
2.19448e+07
2.19157e+07
2.1886e+07
2.18559e+07
2.18254e+07
2.17944e+07
2.17629e+07
2.17311e+07
2.16987e+07
2.1666e+07
2.16328e+07
2.15992e+07
2.15652e+07
2.15308e+07
2.14959e+07
2.14606e+07
2.14249e+07
2.13888e+07
2.13523e+07
2.13154e+07
2.12781e+07
2.12404e+07
2.12022e+07
2.11637e+07
2.11248e+07
2.10854e+07
2.10457e+07
2.10056e+07
2.09651e+07
2.09242e+07
2.08829e+07
2.08412e+07
2.07991e+07
2.07566e+07
2.07137e+07
2.06704e+07
2.06267e+07
2.05827e+07
2.05382e+07
2.04934e+07
2.04481e+07
2.04025e+07
2.03564e+07
2.03099e+07
2.02631e+07
2.02158e+07
2.01682e+07
2.01201e+07
2.00717e+07
2.00228e+07
1.99735e+07
1.99238e+07
1.98737e+07
1.98232e+07
1.97723e+07
1.9721e+07
1.96692e+07
1.9617e+07
1.95644e+07
1.95114e+07
1.94579e+07
1.9404e+07
1.93497e+07
1.92949e+07
1.92397e+07
1.91841e+07
1.9128e+07
1.90714e+07
1.90145e+07
1.8957e+07
1.88991e+07
1.88408e+07
1.8782e+07
1.87227e+07
1.8663e+07
1.86028e+07
1.85421e+07
1.84809e+07
1.84193e+07
1.83571e+07
1.82945e+07
1.82314e+07
1.81678e+07
1.81037e+07
1.80391e+07
1.7974e+07
1.79084e+07
1.78423e+07
1.77757e+07
1.77085e+07
1.76408e+07
1.75726e+07
1.75039e+07
1.74346e+07
1.73648e+07
1.72944e+07
1.72235e+07
1.7152e+07
1.708e+07
1.70074e+07
1.69343e+07
1.68606e+07
1.67863e+07
1.67114e+07
1.6636e+07
1.65599e+07
1.64833e+07
1.64061e+07
1.63283e+07
1.62499e+07
1.61708e+07
1.60912e+07
1.60109e+07
1.59301e+07
1.58486e+07
1.57665e+07
1.56837e+07
1.56004e+07
1.55164e+07
1.54318e+07
1.53466e+07
1.52608e+07
1.51743e+07
1.50873e+07
1.49998e+07
1.49117e+07
1.48231e+07
1.47341e+07
1.46447e+07
1.45548e+07
2.27221e+07
2.27215e+07
2.27203e+07
2.27185e+07
2.27161e+07
2.27131e+07
2.27095e+07
2.27053e+07
2.27004e+07
2.26949e+07
2.26887e+07
2.26819e+07
2.26744e+07
2.26663e+07
2.26576e+07
2.26482e+07
2.26381e+07
2.26275e+07
2.26161e+07
2.26042e+07
2.25916e+07
2.25783e+07
2.25645e+07
2.255e+07
2.25349e+07
2.25192e+07
2.25029e+07
2.24861e+07
2.24686e+07
2.24505e+07
2.24319e+07
2.24127e+07
2.23929e+07
2.23726e+07
2.23517e+07
2.23303e+07
2.23083e+07
2.22859e+07
2.22628e+07
2.22393e+07
2.22153e+07
2.21907e+07
2.21657e+07
2.21401e+07
2.21141e+07
2.20876e+07
2.20606e+07
2.20331e+07
2.20051e+07
2.19767e+07
2.19478e+07
2.19185e+07
2.18887e+07
2.18585e+07
2.18278e+07
2.17967e+07
2.17651e+07
2.17331e+07
2.17007e+07
2.16679e+07
2.16346e+07
2.16009e+07
2.15668e+07
2.15323e+07
2.14973e+07
2.1462e+07
2.14262e+07
2.139e+07
2.13534e+07
2.13165e+07
2.12791e+07
2.12413e+07
2.12031e+07
2.11645e+07
2.11256e+07
2.10862e+07
2.10464e+07
2.10063e+07
2.09657e+07
2.09247e+07
2.08834e+07
2.08417e+07
2.07995e+07
2.0757e+07
2.07141e+07
2.06708e+07
2.06271e+07
2.0583e+07
2.05385e+07
2.04937e+07
2.04484e+07
2.04027e+07
2.03566e+07
2.03102e+07
2.02633e+07
2.0216e+07
2.01684e+07
2.01203e+07
2.00718e+07
2.00229e+07
1.99737e+07
1.9924e+07
1.98739e+07
1.98233e+07
1.97724e+07
1.9721e+07
1.96693e+07
1.96171e+07
1.95645e+07
1.95114e+07
1.94579e+07
1.9404e+07
1.93497e+07
1.92949e+07
1.92397e+07
1.91841e+07
1.9128e+07
1.90715e+07
1.90145e+07
1.8957e+07
1.88991e+07
1.88408e+07
1.8782e+07
1.87227e+07
1.8663e+07
1.86028e+07
1.85421e+07
1.84809e+07
1.84193e+07
1.83571e+07
1.82945e+07
1.82314e+07
1.81678e+07
1.81037e+07
1.80391e+07
1.7974e+07
1.79084e+07
1.78423e+07
1.77757e+07
1.77085e+07
1.76408e+07
1.75726e+07
1.75039e+07
1.74346e+07
1.73648e+07
1.72944e+07
1.72235e+07
1.7152e+07
1.708e+07
1.70074e+07
1.69343e+07
1.68606e+07
1.67863e+07
1.67114e+07
1.6636e+07
1.65599e+07
1.64833e+07
1.64061e+07
1.63283e+07
1.62498e+07
1.61708e+07
1.60912e+07
1.60109e+07
1.593e+07
1.58486e+07
1.57664e+07
1.56837e+07
1.56003e+07
1.55163e+07
1.54317e+07
1.53465e+07
1.52606e+07
1.51742e+07
1.50871e+07
1.49995e+07
1.49113e+07
1.48226e+07
1.47334e+07
1.46437e+07
1.45534e+07
2.27389e+07
2.27383e+07
2.2737e+07
2.27351e+07
2.27326e+07
2.27295e+07
2.27257e+07
2.27213e+07
2.27162e+07
2.27104e+07
2.2704e+07
2.2697e+07
2.26892e+07
2.26808e+07
2.26718e+07
2.2662e+07
2.26517e+07
2.26406e+07
2.2629e+07
2.26166e+07
2.26037e+07
2.25901e+07
2.25759e+07
2.2561e+07
2.25456e+07
2.25295e+07
2.25129e+07
2.24956e+07
2.24778e+07
2.24594e+07
2.24404e+07
2.24209e+07
2.24008e+07
2.23802e+07
2.2359e+07
2.23373e+07
2.2315e+07
2.22922e+07
2.2269e+07
2.22452e+07
2.22209e+07
2.21961e+07
2.21708e+07
2.2145e+07
2.21187e+07
2.2092e+07
2.20648e+07
2.20371e+07
2.20089e+07
2.19803e+07
2.19513e+07
2.19218e+07
2.18918e+07
2.18614e+07
2.18306e+07
2.17994e+07
2.17677e+07
2.17355e+07
2.1703e+07
2.167e+07
2.16366e+07
2.16028e+07
2.15686e+07
2.1534e+07
2.14989e+07
2.14635e+07
2.14276e+07
2.13914e+07
2.13547e+07
2.13177e+07
2.12802e+07
2.12424e+07
2.12041e+07
2.11655e+07
2.11265e+07
2.1087e+07
2.10472e+07
2.1007e+07
2.09664e+07
2.09254e+07
2.0884e+07
2.08423e+07
2.08001e+07
2.07575e+07
2.07146e+07
2.06713e+07
2.06275e+07
2.05834e+07
2.05389e+07
2.0494e+07
2.04487e+07
2.0403e+07
2.03569e+07
2.03104e+07
2.02635e+07
2.02163e+07
2.01686e+07
2.01205e+07
2.0072e+07
2.00231e+07
1.99738e+07
1.99241e+07
1.9874e+07
1.98235e+07
1.97725e+07
1.97211e+07
1.96694e+07
1.96172e+07
1.95645e+07
1.95115e+07
1.9458e+07
1.94041e+07
1.93498e+07
1.9295e+07
1.92398e+07
1.91841e+07
1.9128e+07
1.90715e+07
1.90145e+07
1.89571e+07
1.88992e+07
1.88408e+07
1.8782e+07
1.87227e+07
1.8663e+07
1.86028e+07
1.85421e+07
1.84809e+07
1.84193e+07
1.83571e+07
1.82945e+07
1.82314e+07
1.81678e+07
1.81037e+07
1.80391e+07
1.7974e+07
1.79084e+07
1.78423e+07
1.77757e+07
1.77085e+07
1.76408e+07
1.75726e+07
1.75039e+07
1.74346e+07
1.73648e+07
1.72944e+07
1.72235e+07
1.7152e+07
1.708e+07
1.70074e+07
1.69343e+07
1.68605e+07
1.67863e+07
1.67114e+07
1.66359e+07
1.65599e+07
1.64833e+07
1.64061e+07
1.63282e+07
1.62498e+07
1.61708e+07
1.60912e+07
1.60109e+07
1.593e+07
1.58485e+07
1.57664e+07
1.56837e+07
1.56003e+07
1.55163e+07
1.54316e+07
1.53464e+07
1.52605e+07
1.5174e+07
1.50869e+07
1.49992e+07
1.49109e+07
1.48221e+07
1.47326e+07
1.46426e+07
1.4552e+07
2.27584e+07
2.27577e+07
2.27564e+07
2.27544e+07
2.27518e+07
2.27485e+07
2.27445e+07
2.27398e+07
2.27345e+07
2.27285e+07
2.27218e+07
2.27144e+07
2.27063e+07
2.26975e+07
2.26881e+07
2.2678e+07
2.26672e+07
2.26558e+07
2.26437e+07
2.26309e+07
2.26175e+07
2.26035e+07
2.25889e+07
2.25736e+07
2.25577e+07
2.25412e+07
2.25242e+07
2.25065e+07
2.24883e+07
2.24695e+07
2.24501e+07
2.24302e+07
2.24097e+07
2.23887e+07
2.23672e+07
2.23451e+07
2.23226e+07
2.22995e+07
2.22759e+07
2.22518e+07
2.22272e+07
2.22021e+07
2.21765e+07
2.21505e+07
2.2124e+07
2.2097e+07
2.20695e+07
2.20416e+07
2.20133e+07
2.19844e+07
2.19552e+07
2.19255e+07
2.18954e+07
2.18648e+07
2.18338e+07
2.18024e+07
2.17705e+07
2.17382e+07
2.17056e+07
2.16725e+07
2.16389e+07
2.1605e+07
2.15707e+07
2.15359e+07
2.15008e+07
2.14652e+07
2.14293e+07
2.1393e+07
2.13562e+07
2.13191e+07
2.12815e+07
2.12436e+07
2.12053e+07
2.11666e+07
2.11275e+07
2.1088e+07
2.10481e+07
2.10079e+07
2.09672e+07
2.09262e+07
2.08847e+07
2.08429e+07
2.08007e+07
2.07581e+07
2.07151e+07
2.06718e+07
2.0628e+07
2.05839e+07
2.05393e+07
2.04944e+07
2.04491e+07
2.04033e+07
2.03572e+07
2.03107e+07
2.02638e+07
2.02165e+07
2.01688e+07
2.01207e+07
2.00722e+07
2.00233e+07
1.9974e+07
1.99243e+07
1.98741e+07
1.98236e+07
1.97726e+07
1.97213e+07
1.96695e+07
1.96173e+07
1.95646e+07
1.95116e+07
1.94581e+07
1.94042e+07
1.93498e+07
1.92951e+07
1.92398e+07
1.91842e+07
1.91281e+07
1.90715e+07
1.90145e+07
1.89571e+07
1.88992e+07
1.88408e+07
1.8782e+07
1.87227e+07
1.8663e+07
1.86028e+07
1.85421e+07
1.84809e+07
1.84193e+07
1.83572e+07
1.82945e+07
1.82314e+07
1.81678e+07
1.81037e+07
1.80391e+07
1.7974e+07
1.79084e+07
1.78423e+07
1.77757e+07
1.77085e+07
1.76408e+07
1.75726e+07
1.75038e+07
1.74346e+07
1.73647e+07
1.72944e+07
1.72235e+07
1.7152e+07
1.708e+07
1.70074e+07
1.69343e+07
1.68605e+07
1.67862e+07
1.67114e+07
1.66359e+07
1.65599e+07
1.64833e+07
1.64061e+07
1.63282e+07
1.62498e+07
1.61708e+07
1.60911e+07
1.60109e+07
1.593e+07
1.58485e+07
1.57664e+07
1.56836e+07
1.56002e+07
1.55162e+07
1.54315e+07
1.53463e+07
1.52603e+07
1.51738e+07
1.50866e+07
1.49988e+07
1.49105e+07
1.48215e+07
1.47319e+07
1.46416e+07
1.45506e+07
2.27808e+07
2.278e+07
2.27786e+07
2.27765e+07
2.27737e+07
2.27701e+07
2.27659e+07
2.2761e+07
2.27554e+07
2.2749e+07
2.27419e+07
2.27341e+07
2.27257e+07
2.27165e+07
2.27066e+07
2.2696e+07
2.26848e+07
2.26728e+07
2.26603e+07
2.2647e+07
2.26331e+07
2.26186e+07
2.26035e+07
2.25877e+07
2.25714e+07
2.25544e+07
2.25368e+07
2.25187e+07
2.25e+07
2.24808e+07
2.2461e+07
2.24406e+07
2.24197e+07
2.23983e+07
2.23764e+07
2.23539e+07
2.2331e+07
2.23075e+07
2.22836e+07
2.22591e+07
2.22342e+07
2.22088e+07
2.21829e+07
2.21566e+07
2.21298e+07
2.21025e+07
2.20748e+07
2.20466e+07
2.2018e+07
2.1989e+07
2.19595e+07
2.19296e+07
2.18993e+07
2.18685e+07
2.18373e+07
2.18057e+07
2.17737e+07
2.17413e+07
2.17084e+07
2.16752e+07
2.16415e+07
2.16074e+07
2.1573e+07
2.15381e+07
2.15028e+07
2.14672e+07
2.14311e+07
2.13947e+07
2.13578e+07
2.13206e+07
2.1283e+07
2.1245e+07
2.12066e+07
2.11678e+07
2.11286e+07
2.10891e+07
2.10491e+07
2.10088e+07
2.09681e+07
2.0927e+07
2.08855e+07
2.08437e+07
2.08014e+07
2.07588e+07
2.07158e+07
2.06723e+07
2.06285e+07
2.05844e+07
2.05398e+07
2.04948e+07
2.04495e+07
2.04037e+07
2.03576e+07
2.03111e+07
2.02641e+07
2.02168e+07
2.01691e+07
2.0121e+07
2.00724e+07
2.00235e+07
1.99742e+07
1.99244e+07
1.98743e+07
1.98237e+07
1.97728e+07
1.97214e+07
1.96696e+07
1.96174e+07
1.95647e+07
1.95117e+07
1.94582e+07
1.94043e+07
1.93499e+07
1.92951e+07
1.92399e+07
1.91842e+07
1.91281e+07
1.90716e+07
1.90146e+07
1.89571e+07
1.88992e+07
1.88409e+07
1.87821e+07
1.87228e+07
1.8663e+07
1.86028e+07
1.85421e+07
1.84809e+07
1.84193e+07
1.83572e+07
1.82945e+07
1.82314e+07
1.81678e+07
1.81037e+07
1.80391e+07
1.7974e+07
1.79084e+07
1.78423e+07
1.77756e+07
1.77085e+07
1.76408e+07
1.75726e+07
1.75038e+07
1.74346e+07
1.73647e+07
1.72944e+07
1.72235e+07
1.7152e+07
1.708e+07
1.70074e+07
1.69342e+07
1.68605e+07
1.67862e+07
1.67114e+07
1.66359e+07
1.65599e+07
1.64833e+07
1.6406e+07
1.63282e+07
1.62498e+07
1.61708e+07
1.60911e+07
1.60108e+07
1.593e+07
1.58485e+07
1.57663e+07
1.56835e+07
1.56001e+07
1.55161e+07
1.54314e+07
1.53461e+07
1.52602e+07
1.51736e+07
1.50864e+07
1.49985e+07
1.491e+07
1.48209e+07
1.47311e+07
1.46406e+07
1.45492e+07
2.28061e+07
2.28053e+07
2.28037e+07
2.28015e+07
2.27984e+07
2.27947e+07
2.27902e+07
2.27849e+07
2.27789e+07
2.27721e+07
2.27646e+07
2.27564e+07
2.27474e+07
2.27377e+07
2.27273e+07
2.27162e+07
2.27044e+07
2.26919e+07
2.26787e+07
2.26649e+07
2.26505e+07
2.26354e+07
2.26197e+07
2.26034e+07
2.25864e+07
2.25689e+07
2.25508e+07
2.25322e+07
2.2513e+07
2.24932e+07
2.24729e+07
2.24521e+07
2.24307e+07
2.24088e+07
2.23864e+07
2.23636e+07
2.23402e+07
2.23163e+07
2.2292e+07
2.22672e+07
2.22419e+07
2.22161e+07
2.21899e+07
2.21633e+07
2.21361e+07
2.21086e+07
2.20806e+07
2.20521e+07
2.20233e+07
2.1994e+07
2.19643e+07
2.19341e+07
2.19035e+07
2.18726e+07
2.18412e+07
2.18094e+07
2.17772e+07
2.17446e+07
2.17115e+07
2.16781e+07
2.16443e+07
2.16101e+07
2.15755e+07
2.15405e+07
2.15051e+07
2.14693e+07
2.14331e+07
2.13966e+07
2.13596e+07
2.13223e+07
2.12846e+07
2.12465e+07
2.1208e+07
2.11691e+07
2.11299e+07
2.10903e+07
2.10503e+07
2.10099e+07
2.09691e+07
2.09279e+07
2.08864e+07
2.08445e+07
2.08022e+07
2.07595e+07
2.07164e+07
2.0673e+07
2.06291e+07
2.05849e+07
2.05403e+07
2.04953e+07
2.04499e+07
2.04041e+07
2.0358e+07
2.03114e+07
2.02645e+07
2.02171e+07
2.01694e+07
2.01212e+07
2.00727e+07
2.00237e+07
1.99744e+07
1.99246e+07
1.98745e+07
1.98239e+07
1.97729e+07
1.97215e+07
1.96697e+07
1.96175e+07
1.95648e+07
1.95118e+07
1.94583e+07
1.94043e+07
1.935e+07
1.92952e+07
1.924e+07
1.91843e+07
1.91282e+07
1.90716e+07
1.90146e+07
1.89572e+07
1.88993e+07
1.88409e+07
1.87821e+07
1.87228e+07
1.8663e+07
1.86028e+07
1.85421e+07
1.8481e+07
1.84193e+07
1.83572e+07
1.82946e+07
1.82314e+07