/*--------------------------------*- C++ -*----------------------------------*\
  =========                 |
  \\      /  F ield         | OpenFOAM: The Open Source CFD Toolbox
   \\    /   O peration     | Website:  https://openfoam.org
    \\  /    A nd           | Version:  10
     \\/     M anipulation  |
\*---------------------------------------------------------------------------*/
FoamFile
{
    format      ascii;
    class       volVectorField;
    location    "14250";
    object      Ua;
}
// * * * * * * * * * * * * * * * * * * * * * * * * * * * * * * * * * * * * * //

dimensions      [0 1 -1 0 0 0 0];

internalField   nonuniform List<vector> 
3200
(
(-3.37398e-07 4.87259e-07 0)
(-1.01061e-06 4.93667e-07 0)
(-1.68492e-06 5.06526e-07 0)
(-2.36889e-06 5.26256e-07 0)
(-3.07145e-06 5.53687e-07 0)
(-3.80243e-06 5.90145e-07 0)
(-4.57317e-06 6.37604e-07 0)
(-5.39738e-06 6.98946e-07 0)
(-6.29229e-06 7.78375e-07 0)
(-7.28034e-06 8.82095e-07 0)
(-8.39181e-06 1.01944e-06 0)
(-9.66888e-06 1.2048e-06 0)
(-1.11723e-05 1.46094e-06 0)
(-1.29927e-05 1.82506e-06 0)
(-1.52697e-05 2.35966e-06 0)
(-1.82267e-05 3.17314e-06 0)
(-2.22331e-05 4.45882e-06 0)
(-2.79197e-05 6.57059e-06 0)
(-3.63977e-05 1.01712e-05 0)
(-4.96758e-05 1.65253e-05 0)
(-7.12515e-05 2.80755e-05 0)
(-4.61036e-05 3.91363e-05 0)
(-5.0717e-06 1.90042e-05 0)
(-2.00537e-06 8.13512e-06 0)
(-1.1518e-06 5.01609e-06 0)
(-7.53536e-07 3.50053e-06 0)
(-5.30572e-07 2.61307e-06 0)
(-3.92623e-07 2.03917e-06 0)
(-3.01447e-07 1.64373e-06 0)
(-2.38179e-07 1.35853e-06 0)
(-1.92564e-07 1.14529e-06 0)
(-1.58654e-07 9.81211e-07 0)
(-1.32771e-07 8.51997e-07 0)
(-1.12466e-07 7.47816e-07 0)
(-9.35385e-08 6.5531e-07 0)
(-7.35611e-08 5.69544e-07 0)
(-5.53284e-08 4.96093e-07 0)
(-3.99223e-08 4.31851e-07 0)
(-2.54101e-08 3.74065e-07 0)
(-9.68399e-09 3.14777e-07 0)
(-3.28062e-07 1.44829e-06 0)
(-9.82203e-07 1.46669e-06 0)
(-1.63606e-06 1.50354e-06 0)
(-2.29694e-06 1.55993e-06 0)
(-2.97227e-06 1.63799e-06 0)
(-3.66983e-06 1.74117e-06 0)
(-4.39817e-06 1.87448e-06 0)
(-5.16689e-06 2.04511e-06 0)
(-5.98702e-06 2.26329e-06 0)
(-6.87131e-06 2.54356e-06 0)
(-7.8344e-06 2.90692e-06 0)
(-8.8925e-06 3.384e-06 0)
(-1.00619e-05 4.02026e-06 0)
(-1.13547e-05 4.88429e-06 0)
(-1.27682e-05 6.08121e-06 0)
(-1.42611e-05 7.77463e-06 0)
(-1.56986e-05 1.02225e-05 0)
(-1.67342e-05 1.38359e-05 0)
(-1.65529e-05 1.92745e-05 0)
(-1.33233e-05 2.75999e-05 0)
(-3.03962e-06 4.05089e-05 0)
(1.05259e-05 3.47198e-05 0)
(1.38042e-05 9.60645e-06 0)
(9.09216e-06 7.04994e-06 0)
(5.4944e-06 5.66891e-06 0)
(2.55948e-06 4.86932e-06 0)
(-5.83733e-08 4.4572e-06 0)
(-2.61219e-06 4.35806e-06 0)
(-5.32763e-06 4.57192e-06 0)
(-8.45753e-06 5.16752e-06 0)
(-1.23402e-05 6.30073e-06 0)
(-1.74794e-05 8.25985e-06 0)
(-2.46684e-05 1.15509e-05 0)
(-3.04741e-05 1.65344e-05 0)
(-1.76417e-05 6.65648e-06 0)
(-2.41589e-06 1.1854e-06 0)
(-1.25873e-06 9.27652e-07 0)
(-7.16155e-07 7.23562e-07 0)
(-3.70749e-07 5.23956e-07 0)
(-1.16445e-07 3.23808e-07 0)
(-3.10597e-07 2.37062e-06 0)
(-9.29153e-07 2.39876e-06 0)
(-1.54513e-06 2.45496e-06 0)
(-2.16379e-06 2.54051e-06 0)
(-2.79008e-06 2.65807e-06 0)
(-3.42875e-06 2.81188e-06 0)
(-4.0843e-06 3.00802e-06 0)
(-4.7608e-06 3.25488e-06 0)
(-5.46154e-06 3.5638e-06 0)
(-6.18835e-06 3.95001e-06 0)
(-6.94027e-06 4.43376e-06 0)
(-7.71137e-06 5.04184e-06 0)
(-8.48694e-06 5.80926e-06 0)
(-9.23731e-06 6.78078e-06 0)
(-9.90816e-06 8.01142e-06 0)
(-1.04062e-05 9.56343e-06 0)
(-1.05804e-05 1.14949e-05 0)
(-1.0204e-05 1.38285e-05 0)
(-8.97533e-06 1.64782e-05 0)
(-6.59329e-06 1.90868e-05 0)
(-3.04895e-06 2.06808e-05 0)
(5.20018e-07 1.89632e-05 0)
(2.34813e-06 1.47425e-05 0)
(2.37655e-06 1.20014e-05 0)
(1.61616e-06 1.02707e-05 0)
(5.26111e-07 9.24956e-06 0)
(-6.8349e-07 8.77274e-06 0)
(-1.90192e-06 8.76797e-06 0)
(-3.03894e-06 9.23414e-06 0)
(-3.96764e-06 1.02355e-05 0)
(-4.459e-06 1.19081e-05 0)
(-4.08007e-06 1.44787e-05 0)
(-2.01733e-06 1.82948e-05 0)
(3.03972e-06 2.3357e-05 0)
(6.60941e-06 1.24299e-05 0)
(5.16791e-06 5.96228e-06 0)
(2.21475e-06 5.24892e-06 0)
(-6.28817e-07 5.02722e-06 0)
(-1.23424e-06 1.28758e-06 0)
(-1.11671e-07 2.46312e-07 0)
(-2.87065e-07 3.23375e-06 0)
(-8.57854e-07 3.26857e-06 0)
(-1.42356e-06 3.33785e-06 0)
(-1.98712e-06 3.44261e-06 0)
(-2.55098e-06 3.5852e-06 0)
(-3.11688e-06 3.7694e-06 0)
(-3.68569e-06 4.00049e-06 0)
(-4.25702e-06 4.28541e-06 0)
(-4.82861e-06 4.63299e-06 0)
(-5.39555e-06 5.05412e-06 0)
(-5.94902e-06 5.56175e-06 0)
(-6.47465e-06 6.17068e-06 0)
(-6.95031e-06 6.89672e-06 0)
(-7.34356e-06 7.75466e-06 0)
(-7.60905e-06 8.75433e-06 0)
(-7.6872e-06 9.89351e-06 0)
(-7.50641e-06 1.11463e-05 0)
(-6.99319e-06 1.24453e-05 0)
(-6.09673e-06 1.36601e-05 0)
(-4.83436e-06 1.45781e-05 0)
(-3.35487e-06 1.49183e-05 0)
(-1.97647e-06 1.44518e-05 0)
(-1.03225e-06 1.34155e-05 0)
(-6.07569e-07 1.23674e-05 0)
(-5.79868e-07 1.15191e-05 0)
(-8.03161e-07 1.09365e-05 0)
(-1.15278e-06 1.063e-05 0)
(-1.52572e-06 1.0591e-05 0)
(-1.83042e-06 1.08031e-05 0)
(-1.97734e-06 1.12392e-05 0)
(-1.87649e-06 1.18476e-05 0)
(-1.44976e-06 1.25217e-05 0)
(-6.73943e-07 1.30473e-05 0)
(3.12991e-07 1.30074e-05 0)
(1.00767e-06 1.16955e-05 0)
(1.07742e-06 1.04e-05 0)
(7.55671e-07 9.69949e-06 0)
(3.7051e-07 9.50752e-06 0)
(5.46165e-08 3.07271e-06 0)
(1.91967e-08 7.82588e-08 0)
(-2.59856e-07 4.02359e-06 0)
(-7.7566e-07 4.06192e-06 0)
(-1.28423e-06 4.13785e-06 0)
(-1.7865e-06 4.2518e-06 0)
(-2.28278e-06 4.40532e-06 0)
(-2.77262e-06 4.60094e-06 0)
(-3.25448e-06 4.84214e-06 0)
(-3.72543e-06 5.13328e-06 0)
(-4.18069e-06 5.47943e-06 0)
(-4.61312e-06 5.8861e-06 0)
(-5.01258e-06 6.35872e-06 0)
(-5.36533e-06 6.90185e-06 0)
(-5.65352e-06 7.51781e-06 0)
(-5.85505e-06 8.20465e-06 0)
(-5.94436e-06 8.9534e-06 0)
(-5.89461e-06 9.74441e-06 0)
(-5.68222e-06 1.05435e-05 0)
(-5.29437e-06 1.12986e-05 0)
(-4.73924e-06 1.19407e-05 0)
(-4.05683e-06 1.23915e-05 0)
(-3.32397e-06 1.25853e-05 0)
(-2.64269e-06 1.25063e-05 0)
(-2.10257e-06 1.22266e-05 0)
(-1.74127e-06 1.18694e-05 0)
(-1.54443e-06 1.15293e-05 0)
(-1.47074e-06 1.1263e-05 0)
(-1.47007e-06 1.10975e-05 0)
(-1.49281e-06 1.10384e-05 0)
(-1.49436e-06 1.10751e-05 0)
(-1.43835e-06 1.11822e-05 0)
(-1.30094e-06 1.13193e-05 0)
(-1.07757e-06 1.14307e-05 0)
(-7.91365e-07 1.14492e-05 0)
(-4.99027e-07 1.13129e-05 0)
(-2.80908e-07 1.10081e-05 0)
(-1.87361e-07 1.06604e-05 0)
(-2.0785e-07 1.03716e-05 0)
(-3.05784e-07 1.017e-05 0)
(-2.1498e-07 4.51822e-06 0)
(1.93477e-08 1.49985e-08 0)
(-2.31214e-07 4.73278e-06 0)
(-6.89401e-07 4.77185e-06 0)
(-1.13891e-06 4.84889e-06 0)
(-1.57916e-06 4.96369e-06 0)
(-2.00904e-06 5.11676e-06 0)
(-2.42677e-06 5.30923e-06 0)
(-2.82967e-06 5.54267e-06 0)
(-3.21393e-06 5.81888e-06 0)
(-3.57442e-06 6.13961e-06 0)
(-3.90445e-06 6.5062e-06 0)
(-4.1957e-06 6.91901e-06 0)
(-4.43816e-06 7.37672e-06 0)
(-4.62046e-06 7.8754e-06 0)
(-4.73045e-06 8.40747e-06 0)
(-4.75647e-06 8.96055e-06 0)
(-4.68922e-06 9.51654e-06 0)
(-4.52435e-06 1.00514e-05 0)
(-4.26543e-06 1.0536e-05 0)
(-3.92671e-06 1.09395e-05 0)
(-3.53415e-06 1.12347e-05 0)
(-3.1233e-06 1.14062e-05 0)
(-2.73265e-06 1.14582e-05 0)
(-2.39368e-06 1.14166e-05 0)
(-2.12273e-06 1.13198e-05 0)
(-1.91992e-06 1.12045e-05 0)
(-1.77351e-06 1.1098e-05 0)
(-1.66549e-06 1.10164e-05 0)
(-1.57614e-06 1.09656e-05 0)
(-1.48754e-06 1.09425e-05 0)
(-1.38627e-06 1.09368e-05 0)
(-1.26544e-06 1.09334e-05 0)
(-1.12619e-06 1.09149e-05 0)
(-9.77845e-07 1.0866e-05 0)
(-8.36036e-07 1.07795e-05 0)
(-7.17662e-07 1.06619e-05 0)
(-6.3359e-07 1.05351e-05 0)
(-5.85007e-07 1.04222e-05 0)
(-5.66137e-07 1.03389e-05 0)
(-3.1014e-07 4.75753e-06 0)
(1.94331e-08 1.0584e-08 0)
(-2.0293e-07 5.35975e-06 0)
(-6.0447e-07 5.39748e-06 0)
(-9.96659e-07 5.47158e-06 0)
(-1.37795e-06 5.58123e-06 0)
(-1.74645e-06 5.72609e-06 0)
(-2.0998e-06 5.90604e-06 0)
(-2.43503e-06 6.12111e-06 0)
(-2.74849e-06 6.37118e-06 0)
(-3.03574e-06 6.65576e-06 0)
(-3.29159e-06 6.97368e-06 0)
(-3.5102e-06 7.32268e-06 0)
(-3.68528e-06 7.69903e-06 0)
(-3.81054e-06 8.09705e-06 0)
(-3.88025e-06 8.50882e-06 0)
(-3.89013e-06 8.92389e-06 0)
(-3.83835e-06 9.32944e-06 0)
(-3.72655e-06 9.71085e-06 0)
(-3.56078e-06 1.0053e-05 0)
(-3.35174e-06 1.03419e-05 0)
(-3.11428e-06 1.05677e-05 0)
(-2.86565e-06 1.07263e-05 0)
(-2.62272e-06 1.08213e-05 0)
(-2.399e-06 1.08634e-05 0)
(-2.20245e-06 1.08669e-05 0)
(-2.03507e-06 1.08466e-05 0)
(-1.89392e-06 1.08148e-05 0)
(-1.77292e-06 1.07797e-05 0)
(-1.66473e-06 1.07456e-05 0)
(-1.56233e-06 1.07127e-05 0)
(-1.46024e-06 1.0679e-05 0)
(-1.35536e-06 1.06404e-05 0)
(-1.24718e-06 1.05932e-05 0)
(-1.13754e-06 1.05354e-05 0)
(-1.02968e-06 1.04678e-05 0)
(-9.26979e-07 1.03949e-05 0)
(-8.31664e-07 1.03243e-05 0)
(-7.44215e-07 1.02643e-05 0)
(-6.63611e-07 1.02224e-05 0)
(-3.39917e-07 4.64897e-06 0)
(1.95367e-08 9.89741e-09 0)
(-1.76239e-07 5.90733e-06 0)
(-5.24535e-07 5.94238e-06 0)
(-8.63468e-07 6.01097e-06 0)
(-1.19099e-06 6.11187e-06 0)
(-1.50492e-06 6.24408e-06 0)
(-1.80279e-06 6.40664e-06 0)
(-2.08185e-06 6.59852e-06 0)
(-2.33901e-06 6.81844e-06 0)
(-2.57086e-06 7.06468e-06 0)
(-2.77377e-06 7.33487e-06 0)
(-2.94401e-06 7.62581e-06 0)
(-3.07804e-06 7.93325e-06 0)
(-3.17275e-06 8.25181e-06 0)
(-3.22594e-06 8.57491e-06 0)
(-3.23671e-06 8.89487e-06 0)
(-3.20591e-06 9.20328e-06 0)
(-3.13647e-06 9.49147e-06 0)
(-3.03354e-06 9.75132e-06 0)
(-2.90428e-06 9.97618e-06 0)
(-2.75729e-06 1.01617e-05 0)
(-2.60171e-06 1.03066e-05 0)
(-2.44607e-06 1.04125e-05 0)
(-2.29723e-06 1.0484e-05 0)
(-2.15969e-06 1.05269e-05 0)
(-2.03543e-06 1.05474e-05 0)
(-1.92419e-06 1.05509e-05 0)
(-1.8241e-06 1.05415e-05 0)
(-1.73234e-06 1.05215e-05 0)
(-1.64577e-06 1.04919e-05 0)
(-1.5614e-06 1.04528e-05 0)
(-1.47664e-06 1.04037e-05 0)
(-1.3894e-06 1.03445e-05 0)
(-1.298e-06 1.02758e-05 0)
(-1.20096e-06 1.02e-05 0)
(-1.0969e-06 1.0121e-05 0)
(-9.84582e-07 1.00445e-05 0)
(-8.63266e-07 9.97745e-06 0)
(-7.33389e-07 9.92779e-06 0)
(-3.59659e-07 4.41615e-06 0)
(1.97552e-08 9.26138e-09 0)
(-1.51859e-07 6.38116e-06 0)
(-4.5168e-07 6.41283e-06 0)
(-7.42605e-07 6.47462e-06 0)
(-1.02244e-06 6.56507e-06 0)
(-1.28897e-06 6.68279e-06 0)
(-1.53994e-06 6.82634e-06 0)
(-1.773e-06 6.9941e-06 0)
(-1.98571e-06 7.18423e-06 0)
(-2.17562e-06 7.39449e-06 0)
(-2.34035e-06 7.62216e-06 0)
(-2.4777e-06 7.86398e-06 0)
(-2.58584e-06 8.11605e-06 0)
(-2.66352e-06 8.37388e-06 0)
(-2.71023e-06 8.63244e-06 0)
(-2.72648e-06 8.88636e-06 0)
(-2.71389e-06 9.13013e-06 0)
(-2.67524e-06 9.35849e-06 0)
(-2.61445e-06 9.56684e-06 0)
(-2.53632e-06 9.75156e-06 0)
(-2.4462e-06 9.91039e-06 0)
(-2.34949e-06 1.00425e-05 0)
(-2.25117e-06 1.01486e-05 0)
(-2.15539e-06 1.02304e-05 0)
(-2.06516e-06 1.02901e-05 0)
(-1.98231e-06 1.03302e-05 0)
(-1.90754e-06 1.0353e-05 0)
(-1.84059e-06 1.036e-05 0)
(-1.78047e-06 1.03518e-05 0)
(-1.72556e-06 1.03286e-05 0)
(-1.67372e-06 1.02898e-05 0)
(-1.62228e-06 1.02345e-05 0)
(-1.56784e-06 1.01618e-05 0)
(-1.50612e-06 1.00712e-05 0)
(-1.4317e-06 9.96319e-06 0)
(-1.33804e-06 9.8396e-06 0)
(-1.21766e-06 9.70495e-06 0)
(-1.06307e-06 9.56751e-06 0)
(-8.68649e-07 9.44122e-06 0)
(-4.05714e-07 4.03551e-06 0)
(2.02587e-08 8.48757e-09 0)
(-1.30092e-07 6.78834e-06 0)
(-3.86754e-07 6.81641e-06 0)
(-6.35275e-07 6.87104e-06 0)
(-8.73521e-07 6.9507e-06 0)
(-1.09945e-06 7.05384e-06 0)
(-1.31108e-06 7.1788e-06 0)
(-1.50651e-06 7.32375e-06 0)
(-1.68389e-06 7.48667e-06 0)
(-1.84153e-06 7.66525e-06 0)
(-1.97793e-06 7.85687e-06 0)
(-2.09188e-06 8.05857e-06 0)
(-2.18257e-06 8.26711e-06 0)
(-2.24969e-06 8.47892e-06 0)
(-2.29354e-06 8.6903e-06 0)
(-2.31508e-06 8.89747e-06 0)
(-2.31601e-06 9.09681e-06 0)
(-2.29868e-06 9.28498e-06 0)
(-2.26606e-06 9.45918e-06 0)
(-2.22154e-06 9.61725e-06 0)
(-2.16874e-06 9.7578e-06 0)
(-2.11128e-06 9.8802e-06 0)
(-2.05258e-06 9.98452e-06 0)
(-1.99564e-06 1.00713e-05 0)
(-1.94296e-06 1.01414e-05 0)
(-1.89647e-06 1.01955e-05 0)
(-1.8576e-06 1.02343e-05 0)
(-1.82725e-06 1.02578e-05 0)
(-1.80586e-06 1.02656e-05 0)
(-1.79341e-06 1.02563e-05 0)
(-1.78928e-06 1.0228e-05 0)
(-1.792e-06 1.01775e-05 0)
(-1.79881e-06 1.01006e-05 0)
(-1.80498e-06 9.99192e-06 0)
(-1.80272e-06 9.84487e-06 0)
(-1.77963e-06 9.65151e-06 0)
(-1.7166e-06 9.40303e-06 0)
(-1.58491e-06 9.09088e-06 0)
(-1.34252e-06 8.70897e-06 0)
(-6.17356e-07 3.19618e-06 0)
(2.15524e-08 7.33397e-09 0)
(-1.10959e-07 7.13646e-06 0)
(-3.29763e-07 7.16102e-06 0)
(-5.41318e-07 7.20873e-06 0)
(-7.43665e-07 7.2781e-06 0)
(-9.34996e-07 7.36757e-06 0)
(-1.11364e-06 7.47546e-06 0)
(-1.27809e-06 7.59996e-06 0)
(-1.42697e-06 7.73911e-06 0)
(-1.55912e-06 7.89075e-06 0)
(-1.67364e-06 8.05255e-06 0)
(-1.76991e-06 8.22202e-06 0)
(-1.84767e-06 8.39652e-06 0)
(-1.90708e-06 8.57334e-06 0)
(-1.94873e-06 8.74974e-06 0)
(-1.97368e-06 8.92309e-06 0)
(-1.98347e-06 9.09093e-06 0)
(-1.98002e-06 9.2511e-06 0)
(-1.96562e-06 9.40181e-06 0)
(-1.94279e-06 9.54172e-06 0)
(-1.91423e-06 9.66997e-06 0)
(-1.88263e-06 9.78611e-06 0)
(-1.85066e-06 9.8901e-06 0)
(-1.82083e-06 9.98216e-06 0)
(-1.79554e-06 1.00626e-05 0)
(-1.77705e-06 1.01319e-05 0)
(-1.76752e-06 1.019e-05 0)
(-1.76915e-06 1.0237e-05 0)
(-1.78422e-06 1.0272e-05 0)
(-1.81523e-06 1.02939e-05 0)
(-1.86496e-06 1.03001e-05 0)
(-1.93655e-06 1.0287e-05 0)
(-2.03342e-06 1.02489e-05 0)
(-2.15908e-06 1.01772e-05 0)
(-2.31654e-06 1.00592e-05 0)
(-2.507e-06 9.87569e-06 0)
(-2.72733e-06 9.59801e-06 0)
(-2.96506e-06 9.18279e-06 0)
(-3.18878e-06 8.56396e-06 0)
(-1.66648e-06 1.73544e-06 0)
(2.54492e-08 5.85856e-09 0)
(-9.43076e-08 7.4329e-06 0)
(-2.80214e-07 7.45421e-06 0)
(-4.59789e-07 7.49557e-06 0)
(-6.31294e-07 7.55558e-06 0)
(-7.93173e-07 7.63278e-06 0)
(-9.44042e-07 7.72559e-06 0)
(-1.0827e-06 7.83233e-06 0)
(-1.20813e-06 7.95121e-06 0)
(-1.31956e-06 8.08035e-06 0)
(-1.41641e-06 8.21776e-06 0)
(-1.49843e-06 8.3614e-06 0)
(-1.56562e-06 8.50918e-06 0)
(-1.61832e-06 8.65906e-06 0)
(-1.6572e-06 8.80902e-06 0)
(-1.68324e-06 8.95721e-06 0)
(-1.69773e-06 9.10196e-06 0)
(-1.70222e-06 9.24186e-06 0)
(-1.69849e-06 9.37578e-06 0)
(-1.68848e-06 9.50292e-06 0)
(-1.67424e-06 9.62282e-06 0)
(-1.65789e-06 9.73531e-06 0)
(-1.64158e-06 9.84053e-06 0)
(-1.62747e-06 9.93882e-06 0)
(-1.61779e-06 1.00307e-05 0)
(-1.61483e-06 1.01169e-05 0)
(-1.62111e-06 1.0198e-05 0)
(-1.6395e-06 1.02748e-05 0)
(-1.67342e-06 1.03479e-05 0)
(-1.72716e-06 1.04179e-05 0)
(-1.80634e-06 1.04855e-05 0)
(-1.91859e-06 1.05508e-05 0)
(-2.07462e-06 1.0614e-05 0)
(-2.28982e-06 1.06749e-05 0)
(-2.58697e-06 1.07328e-05 0)
(-3.00057e-06 1.07863e-05 0)
(-3.58388e-06 1.08329e-05 0)
(-4.42077e-06 1.08684e-05 0)
(-5.64289e-06 1.08845e-05 0)
(-3.20043e-06 1.94327e-06 0)
(3.30286e-08 6.88111e-09 0)
(-7.99e-08 7.68448e-06 0)
(-2.3737e-07 7.7029e-06 0)
(-3.8938e-07 7.73861e-06 0)
(-5.34422e-07 7.79037e-06 0)
(-6.71172e-07 7.85683e-06 0)
(-7.98488e-07 7.9366e-06 0)
(-9.15413e-07 8.02817e-06 0)
(-1.02119e-06 8.12999e-06 0)
(-1.11525e-06 8.24045e-06 0)
(-1.19726e-06 8.35791e-06 0)
(-1.26712e-06 8.48072e-06 0)
(-1.32495e-06 8.60726e-06 0)
(-1.37113e-06 8.73597e-06 0)
(-1.40625e-06 8.86538e-06 0)
(-1.43116e-06 8.99419e-06 0)
(-1.44688e-06 9.12127e-06 0)
(-1.45462e-06 9.24568e-06 0)
(-1.45573e-06 9.36677e-06 0)
(-1.45166e-06 9.4841e-06 0)
(-1.44394e-06 9.59754e-06 0)
(-1.43415e-06 9.70719e-06 0)
(-1.42391e-06 9.81345e-06 0)
(-1.41484e-06 9.91692e-06 0)
(-1.40865e-06 1.00185e-05 0)
(-1.40709e-06 1.01193e-05 0)
(-1.41204e-06 1.02208e-05 0)
(-1.42561e-06 1.03248e-05 0)
(-1.45017e-06 1.04334e-05 0)
(-1.48848e-06 1.05495e-05 0)
(-1.54386e-06 1.06769e-05 0)
(-1.62028e-06 1.08203e-05 0)
(-1.72248e-06 1.09866e-05 0)
(-1.85606e-06 1.11851e-05 0)
(-2.02728e-06 1.14294e-05 0)
(-2.24253e-06 1.17391e-05 0)
(-2.50684e-06 1.21433e-05 0)
(-2.82063e-06 1.26856e-05 0)
(-3.16481e-06 1.34255e-05 0)
(-1.68619e-06 2.85414e-06 0)
(2.86352e-08 1.01392e-08 0)
(-6.74682e-08 7.89731e-06 0)
(-2.00416e-07 7.91319e-06 0)
(-3.28694e-07 7.94398e-06 0)
(-4.5101e-07 7.98857e-06 0)
(-5.66241e-07 8.04579e-06 0)
(-6.73439e-07 8.11441e-06 0)
(-7.71832e-07 8.19313e-06 0)
(-8.60827e-07 8.28062e-06 0)
(-9.40011e-07 8.37555e-06 0)
(-1.00916e-06 8.47656e-06 0)
(-1.06823e-06 8.58235e-06 0)
(-1.11738e-06 8.69165e-06 0)
(-1.15692e-06 8.80328e-06 0)
(-1.18736e-06 8.91615e-06 0)
(-1.20933e-06 9.02934e-06 0)
(-1.22362e-06 9.14207e-06 0)
(-1.23112e-06 9.25374e-06 0)
(-1.23278e-06 9.36397e-06 0)
(-1.22962e-06 9.47258e-06 0)
(-1.2227e-06 9.57963e-06 0)
(-1.21306e-06 9.68539e-06 0)
(-1.20172e-06 9.79037e-06 0)
(-1.18968e-06 9.89535e-06 0)
(-1.17788e-06 1.00013e-05 0)
(-1.16718e-06 1.01097e-05 0)
(-1.15836e-06 1.0222e-05 0)
(-1.15207e-06 1.03403e-05 0)
(-1.14876e-06 1.04672e-05 0)
(-1.1486e-06 1.06058e-05 0)
(-1.15129e-06 1.076e-05 0)
(-1.15578e-06 1.09348e-05 0)
(-1.15984e-06 1.11363e-05 0)
(-1.15935e-06 1.13722e-05 0)
(-1.14723e-06 1.16521e-05 0)
(-1.11182e-06 1.19877e-05 0)
(-1.03453e-06 1.23933e-05 0)
(-8.86406e-07 1.28847e-05 0)
(-6.20485e-07 1.34639e-05 0)
(-2.46914e-07 2.09748e-06 0)
(1.51116e-08 1.06346e-08 0)
(-5.67507e-08 8.0767e-06 0)
(-1.68563e-07 8.0904e-06 0)
(-2.76404e-07 8.11693e-06 0)
(-3.79164e-07 8.15536e-06 0)
(-4.75893e-07 8.20467e-06 0)
(-5.65796e-07 8.26378e-06 0)
(-6.48235e-07 8.33161e-06 0)
(-7.22727e-07 8.40703e-06 0)
(-7.88948e-07 8.48894e-06 0)
(-8.46722e-07 8.57623e-06 0)
(-8.96027e-07 8.66786e-06 0)
(-9.36977e-07 8.76282e-06 0)
(-9.69819e-07 8.86022e-06 0)
(-9.94918e-07 8.95924e-06 0)
(-1.01274e-06 9.05919e-06 0)
(-1.02382e-06 9.15953e-06 0)
(-1.02877e-06 9.25985e-06 0)
(-1.02822e-06 9.35993e-06 0)
(-1.02282e-06 9.45969e-06 0)
(-1.01319e-06 9.55925e-06 0)
(-9.99913e-07 9.6589e-06 0)
(-9.83504e-07 9.75913e-06 0)
(-9.64373e-07 9.8606e-06 0)
(-9.42798e-07 9.96417e-06 0)
(-9.18884e-07 1.00709e-05 0)
(-8.92512e-07 1.01822e-05 0)
(-8.63271e-07 1.02994e-05 0)
(-8.30378e-07 1.04244e-05 0)
(-7.92552e-07 1.05592e-05 0)
(-7.47875e-07 1.0706e-05 0)
(-6.93589e-07 1.08673e-05 0)
(-6.25871e-07 1.10455e-05 0)
(-5.39557e-07 1.12432e-05 0)
(-4.2786e-07 1.1462e-05 0)
(-2.82133e-07 1.17026e-05 0)
(-9.17857e-08 1.19636e-05 0)
(1.55456e-07 1.22395e-05 0)
(4.72709e-07 1.24992e-05 0)
(3.038e-07 1.38597e-06 0)
(9.57156e-09 9.82427e-09 0)
(-4.751e-08 8.22727e-06 0)
(-1.411e-07 8.23908e-06 0)
(-2.31321e-07 8.26197e-06 0)
(-3.17222e-07 8.29511e-06 0)
(-3.97991e-07 8.33764e-06 0)
(-4.72951e-07 8.38864e-06 0)
(-5.41564e-07 8.4472e-06 0)
(-6.03422e-07 8.51237e-06 0)
(-6.58248e-07 8.58323e-06 0)
(-7.05886e-07 8.65889e-06 0)
(-7.46299e-07 8.73849e-06 0)
(-7.79553e-07 8.82123e-06 0)
(-8.05809e-07 8.9064e-06 0)
(-8.25309e-07 8.99337e-06 0)
(-8.38357e-07 9.08161e-06 0)
(-8.45302e-07 9.17069e-06 0)
(-8.46517e-07 9.26032e-06 0)
(-8.42379e-07 9.3503e-06 0)
(-8.33245e-07 9.44058e-06 0)
(-8.19429e-07 9.53124e-06 0)
(-8.01177e-07 9.62245e-06 0)
(-7.7864e-07 9.71455e-06 0)
(-7.5185e-07 9.80793e-06 0)
(-7.20682e-07 9.90315e-06 0)
(-6.84825e-07 1.00008e-05 0)
(-6.43744e-07 1.01016e-05 0)
(-5.96629e-07 1.02063e-05 0)
(-5.42356e-07 1.03157e-05 0)
(-4.79434e-07 1.04305e-05 0)
(-4.05965e-07 1.05513e-05 0)
(-3.19611e-07 1.06786e-05 0)
(-2.17606e-07 1.08124e-05 0)
(-9.68172e-08 1.09523e-05 0)
(4.60761e-08 1.10971e-05 0)
(2.14246e-07 1.12445e-05 0)
(4.10122e-07 1.13909e-05 0)
(6.34421e-07 1.15312e-05 0)
(8.84653e-07 1.16384e-05 0)
(4.90022e-07 1.28601e-06 0)
(6.82121e-09 1.17929e-08 0)
(-3.95393e-08 8.35298e-06 0)
(-1.17411e-07 8.36317e-06 0)
(-1.92427e-07 8.38291e-06 0)
(-2.63771e-07 8.41151e-06 0)
(-3.30741e-07 8.44822e-06 0)
(-3.92756e-07 8.49227e-06 0)
(-4.49349e-07 8.54288e-06 0)
(-5.00165e-07 8.59925e-06 0)
(-5.44953e-07 8.66063e-06 0)
(-5.83561e-07 8.72626e-06 0)
(-6.1593e-07 8.79545e-06 0)
(-6.42076e-07 8.86755e-06 0)
(-6.62087e-07 8.94196e-06 0)
(-6.76101e-07 9.01816e-06 0)
(-6.843e-07 9.09573e-06 0)
(-6.86887e-07 9.17429e-06 0)
(-6.84071e-07 9.25358e-06 0)
(-6.76049e-07 9.3334e-06 0)
(-6.62991e-07 9.41365e-06 0)
(-6.45015e-07 9.4943e-06 0)
(-6.22173e-07 9.57538e-06 0)
(-5.94431e-07 9.657e-06 0)
(-5.61646e-07 9.73931e-06 0)
(-5.2355e-07 9.82246e-06 0)
(-4.79729e-07 9.90666e-06 0)
(-4.29603e-07 9.99205e-06 0)
(-3.72412e-07 1.00787e-05 0)
(-3.07198e-07 1.01667e-05 0)
(-2.32798e-07 1.02559e-05 0)
(-1.47848e-07 1.03459e-05 0)
(-5.079e-08 1.04362e-05 0)
(6.00968e-08 1.05257e-05 0)
(1.86652e-07 1.06133e-05 0)
(3.30774e-07 1.0697e-05 0)
(4.9436e-07 1.07749e-05 0)
(6.79265e-07 1.08445e-05 0)
(8.87337e-07 1.09033e-05 0)
(1.12059e-06 1.09297e-05 0)
(6.13561e-07 1.32478e-06 0)
(4.83607e-09 1.29596e-08 0)
(-3.26629e-08 8.45725e-06 0)
(-9.69714e-08 8.46604e-06 0)
(-1.58864e-07 8.48307e-06 0)
(-2.17631e-07 8.50775e-06 0)
(-2.72664e-07 8.53944e-06 0)
(-3.23457e-07 8.57748e-06 0)
(-3.69597e-07 8.62121e-06 0)
(-4.10768e-07 8.66996e-06 0)
(-4.46737e-07 8.7231e-06 0)
(-4.77353e-07 8.77999e-06 0)
(-5.02533e-07 8.84004e-06 0)
(-5.22258e-07 8.90271e-06 0)
(-5.36555e-07 8.96749e-06 0)
(-5.45494e-07 9.03394e-06 0)
(-5.49168e-07 9.10166e-06 0)
(-5.47685e-07 9.17033e-06 0)
(-5.4115e-07 9.23966e-06 0)
(-5.29659e-07 9.30944e-06 0)
(-5.13276e-07 9.37949e-06 0)
(-4.9203e-07 9.44967e-06 0)
(-4.65897e-07 9.51989e-06 0)
(-4.34788e-07 9.59005e-06 0)
(-3.98546e-07 9.66008e-06 0)
(-3.56931e-07 9.72987e-06 0)
(-3.09616e-07 9.79929e-06 0)
(-2.56187e-07 9.86813e-06 0)
(-1.96141e-07 9.93611e-06 0)
(-1.28892e-07 1.00028e-05 0)
(-5.37805e-08 1.00676e-05 0)
(2.99095e-08 1.01298e-05 0)
(1.22932e-07 1.01883e-05 0)
(2.26056e-07 1.02418e-05 0)
(3.40054e-07 1.02887e-05 0)
(4.65698e-07 1.0327e-05 0)
(6.03796e-07 1.03543e-05 0)
(7.55295e-07 1.03677e-05 0)
(9.21499e-07 1.03638e-05 0)
(1.10446e-06 1.03188e-05 0)
(6.26469e-07 1.38912e-06 0)
(2.97456e-08 9.13669e-09 0)
(-2.67334e-08 8.54303e-06 0)
(-7.9345e-08 8.55061e-06 0)
(-1.29914e-07 8.56529e-06 0)
(-1.77822e-07 8.58656e-06 0)
(-2.22536e-07 8.61388e-06 0)
(-2.63611e-07 8.6467e-06 0)
(-3.0068e-07 8.68444e-06 0)
(-3.33458e-07 8.72654e-06 0)
(-3.61727e-07 8.77245e-06 0)
(-3.85336e-07 8.82164e-06 0)
(-4.0419e-07 8.8736e-06 0)
(-4.18244e-07 8.92786e-06 0)
(-4.27489e-07 8.98397e-06 0)
(-4.31948e-07 9.04154e-06 0)
(-4.31665e-07 9.10021e-06 0)
(-4.26692e-07 9.15964e-06 0)
(-4.17083e-07 9.21956e-06 0)
(-4.02884e-07 9.27971e-06 0)
(-3.84124e-07 9.33987e-06 0)
(-3.60809e-07 9.3998e-06 0)
(-3.32914e-07 9.45932e-06 0)
(-3.00381e-07 9.51821e-06 0)
(-2.63117e-07 9.57625e-06 0)
(-2.20991e-07 9.63319e-06 0)
(-1.73842e-07 9.68871e-06 0)
(-1.21483e-07 9.74245e-06 0)
(-6.37141e-08 9.79396e-06 0)
(-3.37994e-10 9.84268e-06 0)
(6.88162e-08 9.88793e-06 0)
(1.43864e-07 9.92889e-06 0)
(2.24826e-07 9.96457e-06 0)
(3.11578e-07 9.99382e-06 0)
(4.03784e-07 1.00153e-05 0)
(5.00803e-07 1.00273e-05 0)
(6.01561e-07 1.00282e-05 0)
(7.04346e-07 1.00157e-05 0)
(8.06492e-07 9.98733e-06 0)
(9.0396e-07 9.92032e-06 0)
(5.05183e-07 1.48335e-06 0)
(3.26467e-08 5.87351e-09 0)
(-2.1627e-08 8.61287e-06 0)
(-6.41644e-08 8.61939e-06 0)
(-1.04978e-07 8.63202e-06 0)
(-1.43525e-07 8.65032e-06 0)
(-1.79338e-07 8.67384e-06 0)
(-2.12022e-07 8.70208e-06 0)
(-2.4125e-07 8.73458e-06 0)
(-2.66764e-07 8.77084e-06 0)
(-2.88361e-07 8.81038e-06 0)
(-3.05897e-07 8.85276e-06 0)
(-3.1927e-07 8.89752e-06 0)
(-3.28422e-07 8.94426e-06 0)
(-3.33327e-07 8.99257e-06 0)
(-3.33985e-07 9.0421e-06 0)
(-3.30413e-07 9.0925e-06 0)
(-3.22641e-07 9.14346e-06 0)
(-3.10705e-07 9.19469e-06 0)
(-2.94639e-07 9.24591e-06 0)
(-2.74472e-07 9.29687e-06 0)
(-2.50226e-07 9.3473e-06 0)
(-2.21913e-07 9.39695e-06 0)
(-1.89533e-07 9.44555e-06 0)
(-1.5308e-07 9.49282e-06 0)
(-1.12543e-07 9.53845e-06 0)
(-6.79149e-08 9.58209e-06 0)
(-1.92001e-08 9.62335e-06 0)
(3.35692e-08 9.66179e-06 0)
(9.03189e-08 9.6969e-06 0)
(1.50912e-07 9.72812e-06 0)
(2.15123e-07 9.75483e-06 0)
(2.82613e-07 9.77635e-06 0)
(3.52894e-07 9.79196e-06 0)
(4.25298e-07 9.80091e-06 0)
(4.98934e-07 9.80247e-06 0)
(5.7266e-07 9.79594e-06 0)
(6.45052e-07 9.7808e-06 0)
(7.14409e-07 9.75676e-06 0)
(7.78901e-07 9.70356e-06 0)
(4.38477e-07 1.58957e-06 0)
(3.61012e-08 5.75628e-09 0)
(-1.72393e-08 8.669e-06 0)
(-5.112e-08 8.67459e-06 0)
(-8.35498e-08 8.68543e-06 0)
(-1.14051e-07 8.70113e-06 0)
(-1.4221e-07 8.72131e-06 0)
(-1.67678e-07 8.74554e-06 0)
(-1.90163e-07 8.77343e-06 0)
(-2.09431e-07 8.80453e-06 0)
(-2.25298e-07 8.83846e-06 0)
(-2.37627e-07 8.87479e-06 0)
(-2.4632e-07 8.91316e-06 0)
(-2.51316e-07 8.95318e-06 0)
(-2.52583e-07 8.99452e-06 0)
(-2.50113e-07 9.03682e-06 0)
(-2.43917e-07 9.07978e-06 0)
(-2.34021e-07 9.1231e-06 0)
(-2.2046e-07 9.16648e-06 0)
(-2.03276e-07 9.20966e-06 0)
(-1.82516e-07 9.25237e-06 0)
(-1.5823e-07 9.29434e-06 0)
(-1.30474e-07 9.33531e-06 0)
(-9.93037e-08 9.37499e-06 0)
(-6.4788e-08 9.41311e-06 0)
(-2.70057e-08 9.44937e-06 0)
(1.3945e-08 9.48344e-06 0)
(5.79393e-08 9.51499e-06 0)
(1.04817e-07 9.54366e-06 0)
(1.54371e-07 9.56908e-06 0)
(2.06337e-07 9.59086e-06 0)
(2.60383e-07 9.60861e-06 0)
(3.16094e-07 9.62195e-06 0)
(3.72968e-07 9.63054e-06 0)
(4.30405e-07 9.63408e-06 0)
(4.87712e-07 9.63234e-06 0)
(5.44106e-07 9.62525e-06 0)
(5.98736e-07 9.61286e-06 0)
(6.50717e-07 9.59545e-06 0)
(6.99321e-07 9.55251e-06 0)
(3.98028e-07 1.69167e-06 0)
(3.87787e-08 5.66946e-09 0)
(-1.34815e-08 8.71337e-06 0)
(-3.99484e-08 8.71815e-06 0)
(-6.51983e-08 8.72741e-06 0)
(-8.88095e-08 8.74083e-06 0)
(-1.10417e-07 8.75807e-06 0)
(-1.2971e-07 8.77877e-06 0)
(-1.4643e-07 8.80259e-06 0)
(-1.60367e-07 8.82915e-06 0)
(-1.71354e-07 8.8581e-06 0)
(-1.79266e-07 8.88909e-06 0)
(-1.84014e-07 8.92179e-06 0)
(-1.85541e-07 8.95586e-06 0)
(-1.83816e-07 8.99098e-06 0)
(-1.78835e-07 9.02686e-06 0)
(-1.7061e-07 9.06321e-06 0)
(-1.59173e-07 9.09974e-06 0)
(-1.44567e-07 9.1362e-06 0)
(-1.2685e-07 9.17231e-06 0)
(-1.06088e-07 9.20783e-06 0)
(-8.23584e-08 9.2425e-06 0)
(-5.57509e-08 9.27607e-06 0)
(-2.63657e-08 9.30828e-06 0)
(5.682e-09 9.3389e-06 0)
(4.02594e-08 9.36765e-06 0)
(7.72128e-08 9.39427e-06 0)
(1.16363e-07 9.41851e-06 0)
(1.57501e-07 9.4401e-06 0)
(2.00383e-07 9.45879e-06 0)
(2.4473e-07 9.47434e-06 0)
(2.90222e-07 9.48653e-06 0)
(3.36497e-07 9.49519e-06 0)
(3.83157e-07 9.50017e-06 0)
(4.29771e-07 9.50141e-06 0)
(4.75885e-07 9.49889e-06 0)
(5.2104e-07 9.49272e-06 0)
(5.64793e-07 9.48309e-06 0)
(6.06745e-07 9.47032e-06 0)
(6.46686e-07 9.43307e-06 0)
(3.71774e-07 1.79377e-06 0)
(4.04907e-08 5.60084e-09 0)
(-1.02773e-08 8.74768e-06 0)
(-3.04231e-08 8.75174e-06 0)
(-4.95526e-08 8.75962e-06 0)
(-6.72932e-08 8.77103e-06 0)
(-8.33217e-08 8.78568e-06 0)
(-9.73628e-08 8.80328e-06 0)
(-1.09186e-07 8.82351e-06 0)
(-1.18605e-07 8.84606e-06 0)
(-1.25472e-07 8.87062e-06 0)
(-1.29674e-07 8.89689e-06 0)
(-1.31133e-07 8.92457e-06 0)
(-1.29799e-07 8.95337e-06 0)
(-1.2565e-07 8.98301e-06 0)
(-1.18686e-07 9.01323e-06 0)
(-1.08927e-07 9.04377e-06 0)
(-9.64117e-08 9.07437e-06 0)
(-8.11961e-08 9.10479e-06 0)
(-6.33499e-08 9.1348e-06 0)
(-4.2957e-08 9.16417e-06 0)
(-2.0115e-08 9.19267e-06 0)
(5.06493e-09 9.22008e-06 0)
(3.24573e-08 9.24618e-06 0)
(6.19218e-08 9.27077e-06 0)
(9.33016e-08 9.29364e-06 0)
(1.26423e-07 9.31457e-06 0)
(1.61092e-07 9.33338e-06 0)
(1.97099e-07 9.34989e-06 0)
(2.3421e-07 9.36393e-06 0)
(2.72176e-07 9.37536e-06 0)
(3.10729e-07 9.38406e-06 0)
(3.49586e-07 9.38995e-06 0)
(3.88459e-07 9.39299e-06 0)
(4.27053e-07 9.39319e-06 0)
(4.65083e-07 9.3906e-06 0)
(5.02279e-07 9.38532e-06 0)
(5.38403e-07 9.37754e-06 0)
(5.73254e-07 9.36746e-06 0)
(6.06824e-07 9.33287e-06 0)
(3.51344e-07 1.89967e-06 0)
(4.12152e-08 5.54446e-09 0)
(-7.5608e-09 8.77344e-06 0)
(-2.23483e-08 8.77687e-06 0)
(-3.62914e-08 8.78353e-06 0)
(-4.90604e-08 8.79316e-06 0)
(-6.0369e-08 8.80554e-06 0)
(-6.9973e-08 8.82039e-06 0)
(-7.76687e-08 8.83745e-06 0)
(-8.32899e-08 8.85646e-06 0)
(-8.6706e-08 8.87715e-06 0)
(-8.78191e-08 8.89925e-06 0)
(-8.65614e-08 8.92251e-06 0)
(-8.28925e-08 8.94668e-06 0)
(-7.67972e-08 8.97151e-06 0)
(-6.82829e-08 8.99678e-06 0)
(-5.73774e-08 9.02225e-06 0)
(-4.41275e-08 9.0477e-06 0)
(-2.85972e-08 9.07293e-06 0)
(-1.08666e-08 9.09773e-06 0)
(8.96918e-09 9.1219e-06 0)
(3.08007e-08 9.14526e-06 0)
(5.45045e-08 9.16761e-06 0)
(7.99438e-08 9.18878e-06 0)
(1.06968e-07 9.2086e-06 0)
(1.35415e-07 9.2269e-06 0)
(1.6511e-07 9.24353e-06 0)
(1.95865e-07 9.25836e-06 0)
(2.27484e-07 9.27124e-06 0)
(2.59761e-07 9.28207e-06 0)
(2.92486e-07 9.29077e-06 0)
(3.25443e-07 9.29726e-06 0)
(3.58418e-07 9.3015e-06 0)
(3.91201e-07 9.30349e-06 0)
(4.23593e-07 9.30325e-06 0)
(4.55407e-07 9.30082e-06 0)
(4.86479e-07 9.29629e-06 0)
(5.16669e-07 9.28978e-06 0)
(5.45864e-07 9.28141e-06 0)
(5.74058e-07 9.2483e-06 0)
(3.33775e-07 2.01319e-06 0)
(4.11208e-08 5.49926e-09 0)
(-5.27472e-09 8.79198e-06 0)
(-1.55535e-08 8.79485e-06 0)
(-2.51349e-08 8.80043e-06 0)
(-3.37262e-08 8.8085e-06 0)
(-4.10735e-08 8.81886e-06 0)
(-4.69603e-08 8.83128e-06 0)
(-5.12055e-08 8.84555e-06 0)
(-5.36624e-08 8.86143e-06 0)
(-5.42158e-08 8.87869e-06 0)
(-5.27803e-08 8.89712e-06 0)
(-4.92984e-08 8.91649e-06 0)
(-4.37379e-08 8.93659e-06 0)
(-3.60903e-08 8.95721e-06 0)
(-2.63691e-08 8.97815e-06 0)
(-1.46079e-08 8.99922e-06 0)
(-8.5871e-10 9.02024e-06 0)
(1.48087e-08 9.04101e-06 0)
(3.23087e-08 9.06139e-06 0)
(5.15402e-08 9.0812e-06 0)
(7.23881e-08 9.10029e-06 0)
(9.47241e-08 9.11851e-06 0)
(1.18408e-07 9.13572e-06 0)
(1.43287e-07 9.15178e-06 0)
(1.69202e-07 9.16658e-06 0)
(1.95982e-07 9.17999e-06 0)
(2.23451e-07 9.19191e-06 0)
(2.51432e-07 9.20225e-06 0)
(2.79742e-07 9.21092e-06 0)
(3.08202e-07 9.21786e-06 0)
(3.36637e-07 9.22303e-06 0)
(3.64881e-07 9.22638e-06 0)
(3.92778e-07 9.22792e-06 0)
(4.20186e-07 9.22766e-06 0)
(4.46979e-07 9.22561e-06 0)
(4.73052e-07 9.22183e-06 0)
(4.98317e-07 9.21639e-06 0)
(5.22708e-07 9.20937e-06 0)
(5.4621e-07 9.17753e-06 0)
(3.18352e-07 2.13734e-06 0)
(4.05961e-08 5.46421e-09 0)
(-3.36929e-09 8.80446e-06 0)
(-9.89092e-09 8.80684e-06 0)
(-1.58398e-08 8.81146e-06 0)
(-2.09556e-08 8.81815e-06 0)
(-2.50123e-08 8.82672e-06 0)
(-2.78173e-08 8.837e-06 0)
(-2.92097e-08 8.84879e-06 0)
(-2.90588e-08 8.8619e-06 0)
(-2.7263e-08 8.87614e-06 0)
(-2.37474e-08 8.89133e-06 0)
(-1.84625e-08 8.90727e-06 0)
(-1.13824e-08 8.92379e-06 0)
(-2.50347e-09 8.94071e-06 0)
(8.15749e-09 8.95787e-06 0)
(2.05642e-08 8.97511e-06 0)
(3.46622e-08 8.99228e-06 0)
(5.03803e-08 9.00924e-06 0)
(6.76311e-08 9.02585e-06 0)
(8.63123e-08 9.04199e-06 0)
(1.06308e-07 9.05753e-06 0)
(1.27489e-07 9.07237e-06 0)
(1.49715e-07 9.08639e-06 0)
(1.72836e-07 9.09951e-06 0)
(1.96694e-07 9.11162e-06 0)
(2.21123e-07 9.12264e-06 0)