/*--------------------------------*- C++ -*----------------------------------*\
  =========                 |
  \\      /  F ield         | OpenFOAM: The Open Source CFD Toolbox
   \\    /   O peration     | Website:  https://openfoam.org
    \\  /    A nd           | Version:  10
     \\/     M anipulation  |
\*---------------------------------------------------------------------------*/
FoamFile
{
    format      ascii;
    class       volScalarField;
    location    "19";
    object      p;
}
// * * * * * * * * * * * * * * * * * * * * * * * * * * * * * * * * * * * * * //

dimensions      [1 -1 -2 0 0 0 0];

internalField   nonuniform List<scalar> 
100
(
1.03529e+07
1.03523e+07
1.03515e+07
1.03505e+07
1.03494e+07
1.03482e+07
1.03469e+07
1.03454e+07
1.03438e+07
1.03421e+07
1.03404e+07
1.03385e+07
1.03365e+07
1.03345e+07
1.03323e+07
1.03301e+07
1.03278e+07
1.03254e+07
1.03229e+07
1.03203e+07
1.03177e+07
1.0315e+07
1.03122e+07
1.03093e+07
1.03063e+07
1.03032e+07
1.03001e+07
1.02969e+07
1.02936e+07
1.02902e+07
1.02867e+07
1.02831e+07
1.02794e+07
1.02755e+07
1.02715e+07
1.02673e+07
1.02628e+07
1.02573e+07
1.02492e+07
1.02451e+07
1.0241e+07
1.0237e+07
1.02329e+07
1.02289e+07
1.02248e+07
1.02208e+07
1.02167e+07
1.02127e+07
1.02086e+07
1.02046e+07
1.02005e+07
1.01965e+07
1.01924e+07
1.01884e+07
1.01843e+07
1.01803e+07
1.01762e+07
1.01722e+07
1.01681e+07
1.01641e+07
1.016e+07
1.0156e+07
1.01519e+07
1.01478e+07
1.01438e+07
1.01397e+07
1.01357e+07
1.01316e+07
1.01276e+07
1.01235e+07
1.01195e+07
1.01154e+07
1.01114e+07
1.01073e+07
1.01033e+07
1.00992e+07
1.00952e+07
1.00911e+07
1.00871e+07
1.0083e+07
1.0079e+07
1.00749e+07
1.00709e+07
1.00668e+07
1.00628e+07
1.00587e+07
1.00547e+07
1.00506e+07
1.00466e+07
1.00425e+07
1.00385e+07
1.00344e+07
1.00304e+07
1.00263e+07
1.00223e+07
1.00182e+07
1.00142e+07
1.00101e+07
1.00061e+07
1.0002e+07
)
;

boundaryField
{
    inlet
    {
        type            zeroGradient;
    }
    outlet
    {
        type            fixedValue;
        value           uniform 1e+07;
    }
    yzfaces
    {
        type            empty;
    }
}


// ************************************************************************* //
