/*--------------------------------*- C++ -*----------------------------------*\
  =========                 |
  \\      /  F ield         | OpenFOAM: The Open Source CFD Toolbox
   \\    /   O peration     | Website:  https://openfoam.org
    \\  /    A nd           | Version:  10
     \\/     M anipulation  |
\*---------------------------------------------------------------------------*/
FoamFile
{
    format      ascii;
    class       volVectorField;
    location    "19";
    object      Ua;
}
// * * * * * * * * * * * * * * * * * * * * * * * * * * * * * * * * * * * * * //

dimensions      [0 1 -1 0 0 0 0];

internalField   nonuniform List<vector> 
100
(
(0.000201709 0 0)
(0.000402579 0 0)
(0.000400894 0 0)
(0.000399197 0 0)
(0.000397492 0 0)
(0.000395781 0 0)
(0.000394063 0 0)
(0.000392338 0 0)
(0.000390605 0 0)
(0.000388865 0 0)
(0.000387115 0 0)
(0.000385355 0 0)
(0.000383584 0 0)
(0.000381801 0 0)
(0.000380004 0 0)
(0.000378192 0 0)
(0.000376363 0 0)
(0.000374516 0 0)
(0.000372648 0 0)
(0.000370756 0 0)
(0.000368838 0 0)
(0.00036689 0 0)
(0.000364907 0 0)
(0.000362884 0 0)
(0.000360812 0 0)
(0.000358682 0 0)
(0.00035648 0 0)
(0.000354188 0 0)
(0.000351779 0 0)
(0.000349213 0 0)
(0.000346429 0 0)
(0.000343325 0 0)
(0.000339726 0 0)
(0.000335296 0 0)
(0.000329288 0 0)
(0.000319649 0 0)
(0.000297798 0 0)
(0.000181683 0 0)
(4.0654e-05 0 0)
(3.22251e-11 0 0)
(0 0 0)
(0 0 0)
(0 0 0)
(0 0 0)
(0 0 0)
(0 0 0)
(0 0 0)
(0 0 0)
(0 0 0)
(0 0 0)
(0 0 0)
(0 0 0)
(0 0 0)
(0 0 0)
(0 0 0)
(0 0 0)
(0 0 0)
(0 0 0)
(0 0 0)
(0 0 0)
(0 0 0)
(0 0 0)
(0 0 0)
(0 0 0)
(0 0 0)
(0 0 0)
(0 0 0)
(0 0 0)
(0 0 0)
(0 0 0)
(0 0 0)
(0 0 0)
(0 0 0)
(0 0 0)
(0 0 0)
(0 0 0)
(0 0 0)
(0 0 0)
(0 0 0)
(0 0 0)
(0 0 0)
(0 0 0)
(0 0 0)
(0 0 0)
(0 0 0)
(0 0 0)
(0 0 0)
(0 0 0)
(0 0 0)
(0 0 0)
(0 0 0)
(0 0 0)
(0 0 0)
(0 0 0)
(0 0 0)
(0 0 0)
(0 0 0)
(0 0 0)
(0 0 0)
(0 0 0)
)
;

boundaryField
{
    inlet
    {
        type            fixedValue;
        value           uniform (0 0 0);
    }
    outlet
    {
        type            zeroGradient;
    }
    yzfaces
    {
        type            empty;
    }
}


// ************************************************************************* //
