/*--------------------------------*- C++ -*----------------------------------*\
  =========                 |
  \\      /  F ield         | OpenFOAM: The Open Source CFD Toolbox
   \\    /   O peration     | Website:  https://openfoam.org
    \\  /    A nd           | Version:  10
     \\/     M anipulation  |
\*---------------------------------------------------------------------------*/
FoamFile
{
    format      ascii;
    class       surfaceScalarField;
    location    "1.17";
    object      phi;
}
// * * * * * * * * * * * * * * * * * * * * * * * * * * * * * * * * * * * * * //

dimensions      [0 3 -1 0 0 0 0];

internalField   nonuniform List<scalar> 
24170
(
1.41909e-09
-1.41909e-09
2.63481e-09
-1.21572e-09
3.59905e-09
-9.64236e-10
4.33029e-09
-7.31247e-10
4.87587e-09
-5.45572e-10
5.28684e-09
-4.10972e-10
5.60726e-09
-3.20425e-10
5.8719e-09
-2.64636e-10
6.10763e-09
-2.3573e-10
6.33607e-09
-2.2844e-10
6.5765e-09
-2.40425e-10
6.84918e-09
-2.72681e-10
7.1801e-09
-3.30925e-10
7.60974e-09
-4.29642e-10
8.21403e-09
-6.04287e-10
9.16881e-09
-9.54785e-10
1.10189e-08
-1.85013e-09
-5.27912e-09
1.62981e-08
1.61931e-09
-3.03841e-09
3.00024e-09
-2.59665e-09
4.08843e-09
-2.05242e-09
4.90757e-09
-1.55039e-09
5.51399e-09
-1.15199e-09
5.96734e-09
-8.6432e-10
6.31843e-09
-6.71512e-10
6.60693e-09
-5.53141e-10
6.86325e-09
-4.92049e-10
7.11158e-09
-4.76766e-10
7.37322e-09
-5.02068e-10
7.67025e-09
-5.69704e-10
8.03033e-09
-6.91011e-10
8.49518e-09
-8.94494e-10
9.13835e-09
-1.24745e-09
1.01075e-08
-1.92391e-09
1.17041e-08
-3.44676e-09
-7.57776e-09
1.40027e-08
1.81693e-09
-4.85534e-09
3.35691e-09
-4.13663e-09
4.56013e-09
-3.25563e-09
5.45751e-09
-2.44777e-09
6.11581e-09
-1.8103e-09
6.6038e-09
-1.35231e-09
6.97898e-09
-1.0467e-09
7.28563e-09
-8.59789e-10
7.55719e-09
-7.63611e-10
7.81989e-09
-7.39464e-10
8.09635e-09
-7.78524e-10
8.40927e-09
-8.82623e-10
8.78582e-09
-1.06757e-09
9.26398e-09
-1.37265e-09
9.90208e-09
-1.88555e-09
1.07859e-08
-2.80774e-09
1.19594e-08
-4.62026e-09
-8.36027e-09
1.27419e-08
2.03639e-09
-6.89173e-09
3.74777e-09
-5.84801e-09
5.0694e-09
-4.57727e-09
6.0431e-09
-3.42147e-09
6.74918e-09
-2.51637e-09
7.26725e-09
-1.87038e-09
7.66222e-09
-1.44167e-09
7.98306e-09
-1.18062e-09
8.26606e-09
-1.04661e-09
8.53905e-09
-1.01246e-09
8.82532e-09
-1.06479e-09
9.14704e-09
-1.20435e-09
9.52874e-09
-1.44927e-09
1.00003e-08
-1.8442e-09
1.05966e-08
-2.48188e-09
1.13363e-08
-3.54746e-09
1.20998e-08
-5.38373e-09
-8.4241e-09
1.21636e-08
2.29152e-09
-9.18325e-09
4.19494e-09
-7.75144e-09
5.64168e-09
-6.024e-09
6.6902e-09
-4.47e-09
7.43912e-09
-3.26529e-09
7.98151e-09
-2.41277e-09
8.39076e-09
-1.85092e-09
8.72073e-09
-1.51059e-09
9.01034e-09
-1.33622e-09
9.28856e-09
-1.29068e-09
9.57853e-09
-1.35476e-09
9.90074e-09
-1.52656e-09
1.0275e-08
-1.82356e-09
1.07202e-08
-2.28932e-09
1.12454e-08
-3.00712e-09
1.1816e-08
-4.11807e-09
1.2246e-08
-5.81367e-09
-8.16647e-09
1.19883e-08
2.59755e-09
-1.17808e-08
4.72108e-09
-9.87497e-09
6.30075e-09
-7.60367e-09
7.42074e-09
-5.58998e-09
8.20484e-09
-4.04939e-09
8.76318e-09
-2.97111e-09
9.17894e-09
-2.26669e-09
9.51109e-09
-1.84274e-09
9.80084e-09
-1.62597e-09
1.00777e-08
-1.56751e-09
1.03637e-08
-1.64084e-09
1.06767e-08
-1.8395e-09
1.10302e-08
-2.17704e-09
1.14307e-08
-2.68983e-09
1.1865e-08
-3.44141e-09
1.22665e-08
-4.51957e-09
1.24484e-08
-5.99555e-09
-7.77547e-09
1.20574e-08
2.97494e-09
-1.47557e-08
5.35498e-09
-1.2255e-08
7.0749e-09
-9.32359e-09
8.25894e-09
-6.77402e-09
9.06601e-09
-4.85646e-09
9.62794e-09
-3.53304e-09
1.00393e-08
-2.67801e-09
1.03641e-08
-2.16756e-09
1.06454e-08
-1.90727e-09
1.09124e-08
-1.83452e-09
1.11854e-08
-1.91384e-09
1.14781e-08
-2.13223e-09
1.17974e-08
-2.49628e-09
1.21382e-08
-3.03064e-09
1.24712e-08
-3.77449e-09
1.27186e-08
-4.76691e-09
1.27251e-08
-6.00208e-09
-7.33612e-09
1.22858e-08
3.45349e-09
-1.82092e-08
6.13629e-09
-1.49378e-08
8.00075e-09
-1.11881e-08
9.23427e-09
-8.00753e-09
1.00451e-08
-5.66727e-09
1.05926e-08
-4.08059e-09
1.09843e-08
-3.06967e-09
1.12891e-08
-2.47233e-09
1.15508e-08
-2.16903e-09
1.17975e-08
-2.08125e-09
1.20467e-08
-2.16302e-09
1.23075e-08
-2.39305e-09
1.258e-08
-2.76871e-09
1.285e-08
-3.30063e-09
1.30797e-08
-4.00421e-09
1.31945e-08
-4.8817e-09
1.30802e-08
-5.88779e-09
-6.88474e-09
1.26288e-08
4.07894e-09
-2.22882e-08
7.12211e-09
-1.7981e-08
9.1276e-09
-1.31935e-08
1.03839e-08
-9.26382e-09
1.11687e-08
-6.45207e-09
1.16761e-08
-4.58796e-09
1.20273e-08
-3.4209e-09
1.22953e-08
-2.74035e-09
1.25235e-08
-2.39725e-09
1.27375e-08
-2.29517e-09
1.29508e-08
-2.37635e-09
1.31678e-08
-2.61003e-09
1.33824e-08
-2.98331e-09
1.35745e-08
-3.49281e-09
1.37045e-08
-4.13421e-09
1.37093e-08
-4.88645e-09
1.35122e-08
-5.69066e-09
-6.43542e-09
1.30628e-08
4.92464e-09
-2.72128e-08
8.39714e-09
-2.14535e-08
1.05231e-08
-1.53195e-08
1.17552e-08
-1.04959e-08
1.24686e-08
-7.16549e-09
1.28994e-08
-5.01872e-09
1.31824e-08
-3.70391e-09
1.33923e-08
-2.95024e-09
1.35698e-08
-2.57479e-09
1.37363e-08
-2.46167e-09
1.39007e-08
-2.54077e-09
1.40623e-08
-2.77156e-09
1.421e-08
-3.13106e-09
1.4321e-08
-3.6038e-09
1.43583e-08
-4.17149e-09
1.42732e-08
-4.80134e-09
1.40183e-08
-5.43581e-09
-5.99235e-09
1.35753e-08
6.11393e-09
-3.33267e-08
1.00904e-08
-2.54299e-08
1.22807e-08
-1.75098e-08
1.34081e-08
-1.16233e-08
1.39818e-08
-7.73924e-09
1.42854e-08
-5.3223e-09
1.44638e-08
-3.88232e-09
1.45889e-08
-3.07537e-09
1.46954e-08
-2.68123e-09
1.4798e-08
-2.56432e-09
1.48999e-08
-2.64266e-09
1.49951e-08
-2.86676e-09
1.50691e-08
-3.20505e-09
1.50984e-08
-3.63309e-09
1.50513e-08
-4.1244e-09
1.48929e-08
-4.6429e-09
1.45963e-08
-5.13925e-09
-5.55543e-09
1.41594e-08
6.52714e-09
-3.98539e-08
1.03248e-08
-2.92276e-08
1.21276e-08
-1.93125e-08
1.2894e-08
-1.23897e-08
1.3192e-08
-8.03727e-09
1.32963e-08
-5.42661e-09
1.33296e-08
-3.91561e-09
1.33441e-08
-3.08992e-09
1.33603e-08
-2.69739e-09
1.33832e-08
-2.58725e-09
1.34098e-08
-2.6692e-09
1.34308e-08
-2.88778e-09
1.34319e-08
-3.20617e-09
1.33939e-08
-3.59512e-09
1.32947e-08
-4.02512e-09
1.31132e-08
-4.4614e-09
1.28371e-08
-4.86316e-09
-5.18863e-09
1.24703e-08
9.70336e-09
-4.95572e-08
1.45213e-08
-3.40456e-08
1.63329e-08
-2.11241e-08
1.68356e-08
-1.28924e-08
1.68589e-08
-8.0606e-09
1.67406e-08
-5.3083e-09
1.66051e-08
-3.78005e-09
1.64921e-08
-2.97693e-09
1.6409e-08
-2.61427e-09
1.63501e-08
-2.5284e-09
1.6304e-08
-2.62305e-09
1.62552e-08
-2.83897e-09
1.61852e-08
-3.1362e-09
1.60734e-08
-3.48332e-09
1.58991e-08
-3.85088e-09
1.56461e-08
-4.20838e-09
1.53076e-08
-4.52466e-09
-4.77183e-09
1.48908e-08
1.56689e-08
-6.52262e-08
2.14415e-08
-3.98182e-08
2.26238e-08
-2.23065e-08
2.23424e-08
-1.2611e-08
2.17487e-08
-7.46686e-09
2.11898e-08
-4.74941e-09
2.07431e-08
-3.33332e-09
2.0405e-08
-2.63883e-09
2.01516e-08
-2.36085e-09
1.99559e-08
-2.33278e-09
1.97923e-08
-2.45938e-09
1.96359e-08
-2.68261e-09
1.94632e-08
-2.96352e-09
1.92522e-08
-3.27225e-09
1.89841e-08
-3.58283e-09
1.8647e-08
-3.87125e-09
1.82383e-08
-4.11594e-09
-4.30007e-09
1.77665e-08
2.86652e-08
-9.38914e-08
3.37154e-08
-4.48683e-08
3.23341e-08
-2.09252e-08
3.01138e-08
-1.03906e-08
2.82694e-08
-5.6225e-09
2.69122e-08
-3.39223e-09
2.5939e-08
-2.36007e-09
2.52361e-08
-1.93602e-09
2.47151e-08
-1.8398e-09
2.43104e-08
-1.92805e-09
2.39728e-08
-2.12183e-09
2.36641e-08
-2.37385e-09
2.33533e-08
-2.65274e-09
2.30162e-08
-2.93514e-09
2.26353e-08
-3.20198e-09
2.22014e-08
-3.43729e-09
2.17138e-08
-3.62844e-09
-3.767e-09
2.11808e-08
6.32621e-08
-1.57154e-07
5.67926e-08
-3.83988e-08
4.7261e-08
-1.13936e-08
4.07983e-08
-3.9279e-09
3.67094e-08
-1.53363e-09
3.40749e-08
-7.57696e-10
3.23146e-08
-5.99828e-10
3.1089e-08
-7.10324e-10
3.01947e-08
-9.45549e-10
2.95047e-08
-1.23808e-09
2.89354e-08
-1.55246e-09
2.8429e-08
-1.86748e-09
2.79451e-08
-2.16887e-09
2.74557e-08
-2.44573e-09
2.6943e-08
-2.68932e-09
2.63986e-08
-2.89287e-09
2.5822e-08
-3.05182e-09
-3.16422e-09
2.52192e-08
1.83417e-07
1.59196e-07
9.73394e-08
4.76786e-08
6.71018e-08
1.8844e-08
5.37267e-08
9.44717e-09
4.66933e-08
5.49974e-09
4.25265e-08
3.40917e-09
3.9841e-08
2.08565e-09
3.79925e-08
1.13817e-09
3.66434e-08
4.03536e-10
3.55981e-08
-1.92777e-10
3.47348e-08
-6.89121e-10
3.39788e-08
-1.11153e-09
3.32811e-08
-1.47111e-09
3.26094e-08
-1.77404e-09
3.19442e-08
-2.02409e-09
3.12754e-08
-2.22409e-09
3.06003e-08
-2.37678e-09
-2.48539e-09
2.99215e-08
7.72681e-08
8.19277e-08
7.55476e-08
4.93991e-08
6.55846e-08
2.8807e-08
5.76344e-08
1.73974e-08
5.21656e-08
1.09685e-08
4.84417e-08
7.13311e-09
4.58388e-08
4.68851e-09
4.39471e-08
3.02994e-09
4.25078e-08
1.84277e-09
4.13591e-08
9.55949e-10
4.03981e-08
2.71847e-10
3.95488e-08
-2.6222e-10
3.87622e-08
-6.84452e-10
3.80107e-08
-1.02258e-09
3.72781e-08
-1.29145e-09
3.65557e-08
-1.50177e-09
3.58408e-08
-1.66184e-09
-1.77861e-09
3.5134e-08
3.59976e-08
4.59302e-08
5.01987e-08
3.5198e-08
5.39164e-08
2.50893e-08
5.37789e-08
1.75348e-08
5.24956e-08
1.22519e-08
5.10333e-08
8.59542e-09
4.96882e-08
6.03359e-09
4.85175e-08
4.20067e-09
4.75016e-08
2.85867e-09
4.6603e-08
1.85457e-09
4.57855e-08
1.08931e-09
4.50254e-08
4.97936e-10
4.43044e-08
3.64699e-11
4.36018e-08
-3.19983e-10
4.29092e-08
-5.98825e-10
4.22231e-08
-8.15662e-10
4.15431e-08
-9.81859e-10
-1.10637e-09
4.08709e-08
1.43487e-08
3.15814e-08
2.33439e-08
2.62028e-08
2.81586e-08
2.02745e-08
3.05182e-08
1.51752e-08
3.15774e-08
1.11927e-08
3.19747e-08
8.19817e-09
3.20375e-08
5.97076e-09
3.19283e-08
4.30984e-09
3.17264e-08
3.06059e-09
3.14702e-08
2.11079e-09
3.11785e-08
1.38098e-09
3.08612e-08
8.15197e-10
3.05239e-08
3.73815e-10
3.01754e-08
2.8486e-11
2.98146e-08
-2.38013e-10
2.94445e-08
-4.45517e-10
2.90684e-08
-6.05787e-10
-7.27668e-10
2.86897e-08
8.59345e-09
2.2988e-08
1.49923e-08
1.9804e-08
1.92377e-08
1.60292e-08
2.19038e-08
1.2509e-08
2.35354e-08
9.56108e-09
2.4517e-08
7.2166e-09
2.50922e-08
5.39556e-09
2.54089e-08
3.9931e-09
2.55561e-08
2.91343e-09
2.55877e-08
2.07919e-09
2.55375e-08
1.43122e-09
2.54273e-08
9.25366e-10
2.52722e-08
5.28923e-10
2.5083e-08
2.17638e-10
2.48712e-08
-2.6217e-11
2.46401e-08
-2.14409e-10
2.43952e-08
-3.60847e-10
-4.73473e-10
2.4141e-08
5.79506e-09
1.71929e-08
1.04836e-08
1.51155e-08
1.39488e-08
1.25639e-08
1.63903e-08
1.00676e-08
1.80704e-08
7.88103e-09
1.92123e-08
6.07464e-09
1.99801e-08
4.62781e-09
2.04867e-08
3.48651e-09
2.08083e-08
2.59175e-09
2.09965e-08
1.89098e-09
2.10865e-08
1.34128e-09
2.11028e-08
9.09058e-10
2.10632e-08
5.6849e-10
2.0981e-08
2.99897e-10
2.08665e-08
8.82537e-11
2.0729e-08
-7.69509e-11
2.05732e-08
-2.05053e-10
-3.04361e-10
2.04041e-08
4.2131e-09
1.29798e-08
7.77893e-09
1.15496e-08
1.05821e-08
9.76069e-09
1.26915e-08
7.95819e-09
1.42403e-08
6.33222e-09
1.53613e-08
4.95361e-09
1.61639e-08
3.82523e-09
1.6731e-08
2.91945e-09
1.71232e-08
2.19951e-09
1.73845e-08
1.62964e-09
1.75469e-08
1.17898e-09
1.76335e-08
8.22387e-10
1.7662e-08
5.40008e-10
1.76455e-08
3.16358e-10
1.75944e-08
1.3942e-10
1.75176e-08
-1.45825e-13
1.74207e-08
-1.08177e-10
-1.9249e-10
1.73088e-08
3.21847e-09
9.76135e-09
6.01597e-09
8.75215e-09
8.29973e-09
7.47693e-09
1.00901e-08
6.16781e-09
1.14588e-08
4.96357e-09
1.24882e-08
3.92416e-09
1.32531e-08
3.06033e-09
1.38144e-08
2.35811e-09
1.42197e-08
1.79425e-09
1.45051e-08
1.34428e-09
1.46979e-08
9.86137e-10
1.4819e-08
7.01281e-10
1.48843e-08
4.74739e-10
1.4906e-08
2.94634e-10
1.48938e-08
1.51625e-10
1.48553e-08
3.83669e-11
1.47973e-08
-5.01626e-11
-1.19097e-10
1.47239e-08
2.54226e-09
7.2191e-09
4.78904e-09
6.50537e-09
6.66795e-09
5.59802e-09
8.18063e-09
4.65513e-09
9.36791e-09
3.77629e-09
1.02837e-08
3.00837e-09
1.09808e-08
2.36327e-09
1.15048e-08
1.83408e-09
1.18931e-08
1.40596e-09
1.21752e-08
1.0622e-09
1.23741e-08
7.87212e-10
1.25078e-08
5.67579e-10
1.25902e-08
3.9228e-10
1.26324e-08
2.52463e-10
1.26429e-08
1.41097e-10
1.26287e-08
5.26135e-11
1.25957e-08
-1.71223e-11
-7.12889e-11
1.25479e-08
2.05416e-09
5.16494e-09
3.88923e-09
4.67029e-09
5.44828e-09
4.03897e-09
6.72581e-09
3.3776e-09
7.74645e-09
2.75565e-09
8.54726e-09
2.20757e-09
9.16687e-09
1.74365e-09
9.64035e-09
1.3606e-09
9.99731e-09
1.04899e-09
1.02619e-08
7.97625e-10
1.04534e-08
5.95747e-10
1.0587e-08
4.33961e-10
1.06748e-08
3.04444e-10
1.07264e-08
2.00857e-10
1.07494e-08
1.18127e-10
1.07498e-08
5.22198e-11
1.07327e-08
-5.62039e-14
-4.06322e-11
1.07021e-08
1.68461e-09
3.48033e-09
3.20034e-09
3.15456e-09
4.50167e-09
2.73764e-09
5.58077e-09
2.29851e-09
6.45337e-09
1.88305e-09
7.14616e-09
1.51479e-09
7.6884e-09
1.20141e-09
8.10755e-09
9.41449e-10
8.42745e-09
7.29099e-10
8.66788e-09
5.57189e-10
8.84493e-09
4.18694e-10
8.9715e-09
3.07393e-10
9.05788e-09
2.18065e-10
9.11229e-09
1.46447e-10
9.14131e-09
8.91114e-11
9.15021e-09
4.33187e-11
9.14327e-09
6.87822e-12
-2.15308e-11
9.12417e-09
1.39314e-09
2.08718e-09
2.65265e-09
1.89505e-09
3.74165e-09
1.64864e-09
4.652e-09
1.38816e-09
5.39434e-09
1.14071e-09
5.98864e-09
9.20481e-10
6.45768e-09
7.32371e-10
6.82335e-09
5.75784e-10
7.10497e-09
4.4748e-10
7.31884e-09
3.43319e-10
7.47834e-09
2.5919e-10
7.59431e-09
1.9142e-10
7.67547e-09
1.36907e-10
7.72881e-09
9.3106e-11
7.75996e-09
5.79634e-11
7.77345e-09
2.98301e-11
7.77295e-09
7.38016e-12
-1.01678e-11
7.76158e-09
1.1531e-09
9.34086e-10
2.19902e-09
8.4913e-10
3.10768e-09
7.39986e-10
3.87152e-09
6.24315e-10
4.49811e-09
5.14122e-10
5.00281e-09
4.15775e-10
5.40364e-09
3.31542e-10
5.71818e-09
2.61245e-10
5.96216e-09
2.03506e-10
6.14895e-09
1.56526e-10
6.28964e-09
1.185e-10
6.39325e-09
8.78069e-11
6.46709e-09
6.30694e-11
6.51704e-09
4.31548e-11
6.54786e-09
2.7146e-11
6.56338e-09
1.43041e-11
6.56673e-09
4.03092e-12
-3.93296e-12
6.5605e-09
9.34086e-10
1.78322e-09
2.5232e-09
3.14752e-09
3.66164e-09
4.07741e-09
4.40896e-09
4.6702e-09
4.87371e-09
5.03023e-09
5.14873e-09
5.23654e-09
5.29961e-09
5.34276e-09
5.36991e-09
5.38421e-09
5.38825e-09
5.38431e-09
3.53388e-10
-3.53388e-10
7.08427e-10
-3.55038e-10
1.0643e-09
-3.55877e-10
1.42019e-09
-3.55886e-10
1.77525e-09
-3.55057e-10
2.12864e-09
-3.53391e-10
2.47954e-09
-3.50905e-10
2.82716e-09
-3.47619e-10
3.17072e-09
-3.4356e-10
3.50948e-09
-3.38756e-10
3.84271e-09
-3.33237e-10
4.16974e-09
-3.2703e-10
4.48991e-09
-3.20166e-10
4.80259e-09
-3.12677e-10
5.10718e-09
-3.04596e-10
5.40314e-09
-2.95962e-10
5.68996e-09
-2.86813e-10
5.96716e-09
-2.772e-10
6.23434e-09
-2.67178e-10
6.49115e-09
-2.56812e-10
6.73733e-09
-2.4618e-10
6.97269e-09
-2.3536e-10
7.19712e-09
-2.24437e-10
7.41062e-09
-2.13495e-10
7.61323e-09
-2.02614e-10
7.8051e-09
-1.91868e-10
7.98642e-09
-1.81324e-10
8.15746e-09
-1.71039e-10
8.31853e-09
-1.61062e-10
8.46996e-09
-1.51432e-10
8.61214e-09
-1.42179e-10
8.74546e-09
-1.33324e-10
8.87034e-09
-1.24882e-10
8.9872e-09
-1.1686e-10
9.09646e-09
-1.09259e-10
9.19854e-09
-1.02077e-10
9.29384e-09
-9.53051e-11
9.38278e-09
-8.8933e-11
9.46572e-09
-8.2947e-11
9.54306e-09
-7.73319e-11
9.61513e-09
-7.20708e-11
9.68227e-09
-6.71458e-11
9.74481e-09
-6.2539e-11
9.80304e-09
-5.82322e-11
9.85725e-09
-5.42069e-11
9.9077e-09
-5.04458e-11
9.95463e-09
-4.69316e-11
9.99828e-09
-4.36477e-11
1.00389e-08
-4.05782e-11
1.00766e-08
-3.77086e-11
1.01116e-08
-3.50243e-11
1.01441e-08
-3.25124e-11
1.01743e-08
-3.016e-11
1.02022e-08
-2.79561e-11
1.02281e-08
-2.58893e-11
1.02521e-08
-2.39497e-11
1.02742e-08
-2.21283e-11
1.02946e-08
-2.04161e-11
1.03134e-08
-1.88053e-11
1.03307e-08
-1.72886e-11
1.03466e-08
-1.5859e-11
1.03611e-08
-1.45106e-11
1.03743e-08
-1.32375e-11
1.03863e-08
-1.20343e-11
1.03972e-08
-1.08963e-11
1.04071e-08
-9.81905e-12
1.04158e-08
-8.79837e-12
1.04237e-08
-7.83052e-12
1.04306e-08
-6.91224e-12
1.04366e-08
-6.03986e-12
1.04418e-08
-5.21103e-12
1.04463e-08
-4.42267e-12
1.04499e-08
-3.67229e-12
1.04529e-08
-2.95778e-12
1.04552e-08
-2.27684e-12
1.04568e-08
-1.62768e-12
1.04578e-08
-1.0083e-12
1.04582e-08
-4.172e-13
1.04581e-08
1.4748e-13
1.04574e-08
6.86909e-13
1.04562e-08
1.20264e-12
1.04545e-08
1.69596e-12
1.04523e-08
2.16785e-12
1.04497e-08
2.61962e-12
1.04467e-08
3.05222e-12
1.04432e-08
3.46684e-12
1.04393e-08
3.8641e-12
1.04351e-08
4.24517e-12
1.04305e-08
4.61069e-12
1.04255e-08
4.96143e-12
1.04202e-08
5.29832e-12
1.04146e-08
5.62188e-12
1.04087e-08
5.93295e-12
1.04024e-08
6.23189e-12
1.03959e-08
6.51968e-12
1.03891e-08
6.7966e-12
1.0382e-08
7.06319e-12
1.03747e-08
7.32028e-12
1.03672e-08
7.56805e-12
1.03593e-08
7.80719e-12
1.03513e-08
8.03794e-12
1.0343e-08
8.26104e-12
1.03346e-08
8.4765e-12
1.03259e-08
8.6852e-12
1.0317e-08
8.88705e-12
1.03079e-08
9.08278e-12
1.02986e-08
9.27255e-12
1.02892e-08
9.45678e-12
1.02795e-08
9.6357e-12
1.02697e-08
9.80971e-12
1.02598e-08
9.97909e-12
1.02496e-08
1.01441e-11
1.02393e-08
1.0305e-11
1.02288e-08
1.0462e-11
1.02182e-08
1.06154e-11
1.02075e-08
1.07656e-11
1.01966e-08
1.09124e-11
1.01855e-08
1.10566e-11
1.01743e-08
1.11977e-11
1.0163e-08
1.13367e-11
1.01515e-08
1.1473e-11
1.01399e-08
1.16074e-11
1.01281e-08
1.17397e-11
1.01163e-08
1.18703e-11
1.01043e-08
1.19993e-11
1.00921e-08
1.21265e-11
1.00799e-08
1.22527e-11
1.00675e-08
1.23774e-11
1.0055e-08
1.25011e-11
1.00424e-08
1.2624e-11
1.00296e-08
1.27458e-11
1.00168e-08
1.28671e-11
1.00038e-08
1.29876e-11
9.99068e-09
1.31077e-11
9.97746e-09
1.32275e-11
9.96411e-09
1.3347e-11
9.95064e-09
1.34661e-11
9.93706e-09
1.35854e-11
9.92335e-09
1.37047e-11
9.90953e-09
1.3824e-11
9.89559e-09
1.39438e-11
9.88152e-09
1.40638e-11
9.86734e-09
1.41846e-11
9.85303e-09
1.43061e-11
9.8386e-09
1.44285e-11
9.82405e-09
1.4552e-11
9.80937e-09
1.4677e-11
9.79457e-09
1.48037e-11
9.77964e-09
1.49326e-11
9.76457e-09
1.5064e-11
9.74938e-09
1.51986e-11
9.73404e-09
1.53371e-11
9.71856e-09
1.54805e-11
9.70293e-09
1.56297e-11
9.68714e-09
1.57864e-11
9.67119e-09
1.59523e-11
9.65506e-09
1.61299e-11
9.63874e-09
1.6322e-11
9.6222e-09
1.65326e-11
9.60544e-09
1.67665e-11
9.58841e-09
1.70303e-11
9.57108e-09
1.73322e-11
9.55339e-09
1.76831e-11
9.5353e-09
1.80973e-11
9.5167e-09
1.85936e-11
9.4975e-09
1.91974e-11
9.47756e-09
1.9942e-11
9.45669e-09
2.08738e-11
9.43463e-09
2.20562e-11
9.41105e-09
2.35781e-11
9.38549e-09
2.55678e-11
9.35727e-09
2.82146e-11
9.32546e-09
3.18085e-11
9.28865e-09
3.6816e-11
9.24461e-09
4.40342e-11
9.18967e-09
5.49457e-11
9.11702e-09
7.26515e-11
9.01216e-09
1.04853e-10
8.83589e-09
1.76277e-10
4.00997e-10
8.43489e-09
3.56985e-10
-7.10373e-10
7.15601e-10
-7.13654e-10
1.075e-09
-7.15274e-10
1.4343e-09
-7.15188e-10
1.79262e-09
-7.13377e-10
2.14908e-09
-7.09854e-10
2.50284e-09
-7.04662e-10
2.85308e-09
-6.97862e-10
3.19904e-09
-6.8952e-10
3.53998e-09
-6.79697e-10
3.8752e-09
-6.68449e-10
4.204e-09
-6.55831e-10
4.52573e-09
-6.41902e-10
4.83978e-09
-6.26725e-10
5.14555e-09
-6.10365e-10
5.44248e-09
-5.9289e-10
5.73004e-09
-5.74374e-10
6.00775e-09
-5.54908e-10
6.27517e-09
-5.34605e-10
6.53197e-09
-5.13603e-10
6.77784e-09
-4.92059e-10
7.01263e-09
-4.70146e-10
7.23624e-09
-4.48043e-10
7.44867e-09
-4.25927e-10
7.65002e-09
-4.03965e-10
7.84046e-09
-3.82308e-10
8.02023e-09
-3.61092e-10
8.18962e-09
-3.40429e-10
8.34897e-09
-3.20416e-10
8.49867e-09
-3.01126e-10
8.6391e-09
-2.82616e-10
8.7707e-09
-2.64925e-10
8.8939e-09
-2.48078e-10
9.00912e-09
-2.32085e-10
9.11681e-09
-2.16948e-10
9.21739e-09
-2.02655e-10
9.31127e-09
-1.89189e-10
9.39887e-09
-1.76526e-10
9.48056e-09
-1.64637e-10
9.55672e-09
-1.5349e-10
9.62769e-09
-1.43049e-10
9.69383e-09
-1.33278e-10
9.75543e-09
-1.24141e-10
9.8128e-09
-1.15599e-10
9.86621e-09
-1.07618e-10
9.91592e-09
-1.0016e-10
9.96218e-09
-9.31912e-11
1.00052e-08
-8.66792e-11
1.00452e-08
-8.05924e-11
1.00824e-08
-7.49008e-11
1.0117e-08
-6.95763e-11
1.01491e-08
-6.45928e-11
1.01788e-08
-5.99253e-11
1.02064e-08
-5.55511e-11
1.0232e-08
-5.14485e-11
1.02556e-08
-4.75979e-11
1.02775e-08
-4.39805e-11
1.02976e-08
-4.05797e-11
1.03162e-08
-3.73794e-11
1.03333e-08
-3.43652e-11
1.03489e-08
-3.1524e-11
1.03633e-08
-2.88431e-11
1.03764e-08
-2.63113e-11
1.03882e-08
-2.39183e-11
1.0399e-08
-2.16543e-11
1.04087e-08
-1.95109e-11
1.04174e-08
-1.74795e-11
1.04251e-08
-1.55531e-11
1.04319e-08
-1.37245e-11
1.04379e-08
-1.19877e-11
1.0443e-08
-1.03366e-11
1.04473e-08
-8.76626e-12
1.04509e-08
-7.27149e-12
1.04538e-08
-5.8476e-12
1.0456e-08
-4.49079e-12
1.04576e-08
-3.19686e-12
1.04585e-08
-1.96232e-12
1.04589e-08
-7.83635e-13
1.04587e-08
3.41927e-13
1.0458e-08
1.41774e-12
1.04567e-08
2.44612e-12
1.0455e-08
3.42988e-12
1.04528e-08
4.37109e-12
1.04502e-08
5.27234e-12
1.04471e-08
6.13544e-12
1.04436e-08
6.96251e-12
1.04397e-08
7.75512e-12
1.04354e-08
8.51549e-12
1.04308e-08
9.24476e-12
1.04258e-08
9.94488e-12
1.04205e-08
1.06171e-11
1.04148e-08
1.1263e-11
1.04089e-08
1.18837e-11
1.04026e-08
1.24806e-11
1.03961e-08
1.30548e-11
1.03893e-08
1.36076e-11
1.03822e-08
1.41402e-11
1.03749e-08
1.46531e-11
1.03673e-08
1.5148e-11
1.03595e-08
1.56253e-11
1.03514e-08
1.60863e-11
1.03432e-08
1.65315e-11
1.03347e-08
1.6962e-11
1.0326e-08
1.73786e-11
1.03171e-08
1.77819e-11
1.0308e-08
1.81728e-11
1.02987e-08
1.85518e-11
1.02893e-08
1.89198e-11
1.02796e-08
1.92772e-11
1.02698e-08
1.96249e-11
1.02598e-08
1.99632e-11
1.02497e-08
2.02928e-11
1.02394e-08
2.06142e-11
1.02289e-08
2.09281e-11
1.02183e-08
2.12345e-11
1.02075e-08
2.15345e-11
1.01966e-08
2.18282e-11
1.01855e-08
2.21159e-11
1.01743e-08
2.23983e-11
1.0163e-08
2.26758e-11
1.01515e-08
2.29485e-11
1.01399e-08
2.3217e-11
1.01282e-08
2.34815e-11
1.01163e-08
2.37424e-11
1.01043e-08
2.40001e-11
1.00922e-08
2.42548e-11
1.00799e-08
2.45067e-11
1.00675e-08
2.47562e-11
1.0055e-08
2.50036e-11
1.00424e-08
2.5249e-11
1.00297e-08
2.54927e-11
1.00168e-08
2.57351e-11
1.00038e-08
2.59761e-11
9.99069e-09
2.62162e-11
9.97746e-09
2.64557e-11
9.96412e-09
2.66943e-11
9.95065e-09
2.69329e-11
9.93706e-09
2.71712e-11
9.92336e-09
2.74096e-11
9.90953e-09
2.76484e-11
9.89559e-09
2.78879e-11
9.88153e-09
2.8128e-11
9.86734e-09
2.83694e-11
9.85304e-09
2.86122e-11
9.83861e-09
2.8857e-11
9.82406e-09
2.9104e-11
9.80938e-09
2.93538e-11
9.79458e-09
2.96071e-11
9.77964e-09
2.98646e-11
9.76458e-09
3.01273e-11
9.74938e-09
3.03963e-11
9.73405e-09
3.06731e-11
9.71857e-09
3.09593e-11
9.70294e-09
3.12576e-11
9.68716e-09
3.15704e-11
9.67121e-09
3.19018e-11
9.65508e-09
3.2256e-11
9.63876e-09
3.26393e-11
9.62224e-09
3.30591e-11
9.60548e-09
3.35255e-11
9.58846e-09
3.40511e-11
9.57114e-09
3.46522e-11
9.55347e-09
3.53506e-11
9.53539e-09
3.61747e-11
9.51682e-09
3.71616e-11
9.49766e-09
3.83614e-11
9.47776e-09
3.98407e-11
9.45694e-09
4.16906e-11
9.43496e-09
4.40359e-11
9.41149e-09
4.70527e-11
9.38607e-09
5.09924e-11
9.35805e-09
5.62254e-11
9.32655e-09
6.33174e-11
9.29019e-09
7.31694e-11
9.24692e-09
8.73053e-11
9.19336e-09
1.08503e-10
9.12364e-09
1.42374e-10
9.02663e-09
2.01862e-10
8.88065e-09
3.22258e-10
6.16404e-10
8.66524e-09
3.64341e-10
-1.07471e-09
7.30291e-10
-1.0796e-09
1.09692e-09
-1.08191e-09
1.46325e-09
-1.08152e-09
1.82826e-09
-1.07838e-09
2.19096e-09
-1.07255e-09
2.55044e-09
-1.06414e-09
2.90589e-09
-1.05331e-09
3.25659e-09
-1.04022e-09
3.60185e-09
-1.02496e-09
3.94098e-09
-1.00758e-09
4.27329e-09
-9.88146e-10
4.59814e-09
-9.66754e-10
4.91492e-09
-9.43501e-10
5.22304e-09
-9.18484e-10
5.52193e-09
-8.91783e-10
5.81103e-09
-8.63478e-10
6.08981e-09
-8.33683e-10
6.35777e-09
-8.02566e-10
6.61452e-09
-7.70348e-10
6.85976e-09
-7.373e-10
7.09333e-09
-7.03715e-10
7.31518e-09
-6.69892e-10
7.52537e-09
-6.36122e-10
7.72408e-09
-6.02671e-10
7.91154e-09
-5.69775e-10
8.08809e-09
-5.37636e-10
8.25408e-09
-5.06421e-10
8.40993e-09
-4.76264e-10
8.55607e-09
-4.47268e-10
8.69296e-09
-4.19506e-10
8.82106e-09
-3.93029e-10
8.94085e-09
-3.67863e-10
9.05278e-09
-3.44015e-10
9.15731e-09
-3.21476e-10
9.25488e-09
-3.00224e-10
9.34591e-09
-2.80227e-10
9.43083e-09
-2.61441e-10
9.51001e-09
-2.43819e-10
9.58383e-09
-2.27308e-10
9.65263e-09
-2.11852e-10
9.71675e-09
-1.97396e-10
9.77649e-09
-1.8388e-10
9.83214e-09
-1.7125e-10
9.88397e-09
-1.59448e-10
9.93223e-09
-1.48422e-10
9.97716e-09
-1.38119e-10
1.0019e-08
-1.2849e-10
1.00579e-08
-1.19488e-10
1.0094e-08
-1.1107e-10
1.01277e-08
-1.03193e-10
1.01589e-08
-9.58175e-11
1.01879e-08
-8.89084e-11
1.02147e-08
-8.24311e-11
1.02396e-08
-7.63541e-11
1.02627e-08
-7.0648e-11
1.0284e-08
-6.52859e-11
1.03037e-08
-6.02426e-11
1.03218e-08
-5.54951e-11
1.03384e-08
-5.10221e-11
1.03537e-08
-4.68038e-11
1.03677e-08
-4.28223e-11
1.03804e-08
-3.90607e-11
1.0392e-08
-3.55041e-11
1.04025e-08
-3.21382e-11
1.0412e-08
-2.895e-11
1.04204e-08
-2.59278e-11
1.04279e-08
-2.30607e-11
1.04345e-08
-2.03385e-11
1.04403e-08
-1.77519e-11
1.04452e-08
-1.52928e-11
1.04494e-08
-1.29529e-11
1.04529e-08
-1.0725e-11
1.04556e-08
-8.60263e-12
1.04577e-08
-6.57933e-12
1.04592e-08
-4.64964e-12
1.046e-08
-2.80804e-12
1.04603e-08
-1.04959e-12
1.046e-08
6.30177e-13
1.04592e-08
2.23575e-12
1.04579e-08
3.77092e-12
1.0456e-08
5.23962e-12
1.04538e-08
6.64523e-12
1.04511e-08
7.99104e-12
1.04479e-08
9.28012e-12
1.04444e-08
1.05156e-11
1.04404e-08
1.16999e-11
1.04361e-08
1.28358e-11
1.04314e-08
1.39258e-11
1.04264e-08
1.49719e-11
1.0421e-08
1.59768e-11
1.04153e-08
1.69421e-11
1.04094e-08
1.787e-11
1.04031e-08
1.87625e-11
1.03965e-08
1.96212e-11
1.03897e-08
2.04478e-11
1.03826e-08
2.1244e-11
1.03752e-08
2.20115e-11
1.03676e-08
2.27514e-11
1.03598e-08
2.34655e-11
1.03517e-08
2.4155e-11
1.03434e-08
2.48212e-11
1.03349e-08
2.54654e-11
1.03262e-08
2.60887e-11
1.03173e-08
2.66922e-11
1.03082e-08
2.72772e-11
1.02989e-08
2.78445e-11
1.02894e-08
2.83953e-11
1.02798e-08
2.89304e-11
1.02699e-08
2.94507e-11
1.02599e-08
2.99573e-11
1.02498e-08
3.04509e-11
1.02395e-08
3.09321e-11
1.0229e-08
3.1402e-11
1.02184e-08
3.18612e-11
1.02076e-08
3.23104e-11
1.01967e-08
3.27501e-11
1.01856e-08
3.31814e-11
1.01744e-08
3.36044e-11
1.0163e-08
3.40199e-11
1.01516e-08
3.44286e-11
1.014e-08
3.48309e-11
1.01282e-08
3.52272e-11
1.01163e-08
3.56184e-11
1.01043e-08
3.60044e-11
1.00922e-08
3.6386e-11
1.00799e-08
3.67636e-11
1.00676e-08
3.71375e-11
1.00551e-08
3.75083e-11
1.00424e-08
3.78762e-11
1.00297e-08
3.82415e-11
1.00168e-08
3.86048e-11
1.00038e-08
3.89663e-11
9.99071e-09
3.93263e-11
9.97748e-09
3.96851e-11
9.96413e-09
4.00431e-11
9.95066e-09
4.04006e-11
9.93708e-09
4.07581e-11
9.92337e-09
4.11155e-11
9.90954e-09
4.14735e-11
9.8956e-09
4.18324e-11
9.88154e-09
4.21926e-11
9.86735e-09
4.25545e-11
9.85304e-09
4.29185e-11
9.83862e-09
4.32855e-11
9.82406e-09
4.36557e-11
9.80939e-09
4.40301e-11
9.79459e-09
4.44098e-11
9.77965e-09
4.47957e-11
9.76459e-09
4.51893e-11
9.7494e-09
4.55923e-11
9.73406e-09
4.60067e-11
9.71859e-09
4.64354e-11
9.70296e-09
4.68817e-11
9.68718e-09
4.73498e-11
9.67124e-09
4.78451e-11
9.65512e-09
4.83747e-11
9.63881e-09
4.89471e-11
9.6223e-09
4.95738e-11
9.60555e-09
5.02694e-11
9.58855e-09
5.10526e-11
9.57126e-09
5.19479e-11
9.55362e-09
5.29873e-11
9.53558e-09
5.42126e-11
9.51707e-09
5.56789e-11
9.49797e-09
5.74596e-11
9.47815e-09
5.96535e-11
9.45745e-09
6.2394e-11
9.43562e-09
6.58648e-11
9.41235e-09
7.0323e-11
9.38721e-09
7.61349e-11
9.3596e-09
8.38372e-11
9.32867e-09
9.42417e-11
9.29321e-09
1.08628e-10
9.2514e-09
1.29119e-10
9.20043e-09
1.59478e-10
9.13586e-09
2.06934e-10
9.05098e-09
2.86748e-10
8.93909e-09
4.34151e-10
7.31743e-10
8.82375e-09
3.75719e-10
-1.45043e-09
7.53101e-10
-1.45699e-09
1.13116e-09
-1.45997e-09
1.50868e-09
-1.45904e-09
1.88424e-09
-1.45394e-09
2.25654e-09
-1.44486e-09
2.62456e-09
-1.43215e-09
2.98758e-09
-1.41634e-09
3.34514e-09
-1.39778e-09
3.69673e-09
-1.37654e-09
4.04166e-09
-1.35251e-09
4.37918e-09
-1.32567e-09
4.70861e-09
-1.29619e-09
5.02941e-09
-1.26429e-09
5.34106e-09
-1.23014e-09
5.64301e-09
-1.19374e-09
5.93462e-09
-1.15508e-09
6.21518e-09
-1.11425e-09
6.48406e-09
-1.07145e-09
6.74075e-09
-1.02704e-09
6.98494e-09
-9.81486e-10
7.21648e-09
-9.35259e-10
7.43543e-09
-8.88835e-10
7.64195e-09
-8.42651e-10
7.83637e-09
-7.97088e-10
8.01906e-09
-7.52468e-10
8.19048e-09
-7.09055e-10
8.35112e-09
-6.67056e-10
8.50148e-09
-6.26631e-10
8.64211e-09
-5.87896e-10
8.77353e-09
-5.50927e-10
8.89627e-09
-5.15771e-10
9.01085e-09
-4.82443e-10
9.11778e-09
-4.50936e-10
9.21752e-09
-4.21223e-10
9.31056e-09
-3.93259e-10
9.39732e-09
-3.66987e-10
9.47822e-09
-3.42342e-10
9.55365e-09
-3.19251e-10
9.62398e-09
-2.97636e-10
9.68955e-09
-2.77419e-10
9.75067e-09
-2.58519e-10
9.80765e-09
-2.40857e-10
9.86075e-09
-2.24356e-10
9.91024e-09
-2.0894e-10
9.95636e-09
-1.94537e-10
9.99932e-09
-1.81078e-10
1.00393e-08
-1.68497e-10
1.00766e-08
-1.56734e-10
1.01112e-08
-1.45729e-10
1.01435e-08
-1.35428e-10
1.01734e-08
-1.2578e-10
1.02013e-08
-1.16737e-10
1.02271e-08
-1.08256e-10
1.0251e-08
-1.00294e-10
1.02732e-08
-9.28155e-11
1.02937e-08
-8.57836e-11
1.03126e-08
-7.91662e-11
1.033e-08
-7.29337e-11
1.03461e-08
-6.70581e-11
1.03608e-08
-6.15142e-11
1.03743e-08
-5.62787e-11
1.03865e-08
-5.133e-11
1.03977e-08
-4.66483e-11
1.04077e-08
-4.22156e-11
1.04168e-08
-3.80148e-11
1.04249e-08
-3.4031e-11
1.04321e-08
-3.02497e-11
1.04384e-08
-2.66582e-11
1.04439e-08
-2.32444e-11
1.04486e-08
-1.99971e-11
1.04526e-08
-1.69061e-11
1.04558e-08
-1.39624e-11
1.04584e-08
-1.11569e-11
1.04603e-08
-8.48165e-12
1.04615e-08
-5.92916e-12
1.04622e-08
-3.49282e-12
1.04623e-08
-1.16562e-12
1.04619e-08
1.05794e-12
1.0461e-08
3.18383e-12
1.04595e-08
5.21686e-12
1.04576e-08
7.16231e-12
1.04552e-08
9.02465e-12
1.04524e-08
1.0808e-11
1.04492e-08
1.25168e-11
1.04455e-08
1.41543e-11
1.04415e-08
1.57247e-11
1.04371e-08
1.72309e-11
1.04324e-08
1.86765e-11
1.04273e-08
2.00643e-11
1.04218e-08
2.13973e-11
1.04161e-08
2.26782e-11
1.04101e-08
2.39096e-11
1.04037e-08
2.50941e-11
1.03971e-08
2.62338e-11
1.03902e-08
2.73312e-11
1.03831e-08
2.83884e-11
1.03757e-08
2.94074e-11
1.03681e-08
3.03901e-11
1.03602e-08
3.13386e-11
1.03521e-08
3.22544e-11
1.03438e-08
3.31395e-11
1.03352e-08
3.39954e-11
1.03265e-08
3.48236e-11
1.03176e-08
3.56257e-11
1.03084e-08
3.64031e-11
1.02991e-08
3.71573e-11
1.02896e-08
3.78894e-11
1.028e-08
3.86009e-11
1.02701e-08
3.92928e-11
1.02601e-08
3.99663e-11
1.02499e-08
4.06228e-11
1.02396e-08
4.1263e-11
1.02291e-08
4.18879e-11
1.02185e-08
4.24988e-11
1.02077e-08
4.30965e-11
1.01968e-08
4.36817e-11
1.01857e-08
4.42554e-11
1.01745e-08
4.48185e-11
1.01631e-08
4.53717e-11
1.01516e-08
4.59156e-11
1.014e-08
4.64512e-11
1.01283e-08
4.69789e-11
1.01164e-08
4.74996e-11
1.01044e-08
4.80137e-11
1.00922e-08
4.85218e-11
1.008e-08
4.90248e-11
1.00676e-08
4.95228e-11
1.00551e-08
5.00167e-11
1.00425e-08
5.05067e-11
1.00297e-08
5.09935e-11
1.00168e-08
5.14773e-11
1.00038e-08
5.19589e-11
9.99073e-09
5.24386e-11
9.9775e-09