/*--------------------------------*- C++ -*----------------------------------*\
  =========                 |
  \\      /  F ield         | OpenFOAM: The Open Source CFD Toolbox
   \\    /   O peration     | Website:  https://openfoam.org
    \\  /    A nd           | Version:  10
     \\/     M anipulation  |
\*---------------------------------------------------------------------------*/
FoamFile
{
    format      ascii;
    class       surfaceScalarField;
    location    "4.3";
    object      phi;
}
// * * * * * * * * * * * * * * * * * * * * * * * * * * * * * * * * * * * * * //

dimensions      [0 3 -1 0 0 0 0];

internalField   nonuniform List<scalar> 
24170
(
8.33558e-10
-8.33558e-10
1.55376e-09
-7.20206e-10
2.13899e-09
-5.85227e-10
2.6005e-09
-4.61509e-10
2.96319e-09
-3.62688e-10
3.25354e-09
-2.90352e-10
3.49461e-09
-2.41075e-10
3.70508e-09
-2.10461e-10
3.89998e-09
-1.94907e-10
4.0922e-09
-1.92218e-10
4.29408e-09
-2.01878e-10
4.51959e-09
-2.25508e-10
4.78766e-09
-2.6807e-10
5.12883e-09
-3.41174e-10
5.60172e-09
-4.72885e-10
6.34472e-09
-7.43001e-10
7.79684e-09
-1.45212e-09
-4.273e-09
1.20698e-08
1.08539e-09
-1.91894e-09
2.01645e-09
-1.65127e-09
2.76569e-09
-1.33447e-09
3.35018e-09
-1.046e-09
3.80455e-09
-8.17065e-10
4.16473e-09
-6.50528e-10
4.46143e-09
-5.37772e-10
4.71915e-09
-4.6818e-10
4.95738e-09
-4.33145e-10
5.19257e-09
-4.274e-10
5.44024e-09
-4.49552e-10
5.71772e-09
-5.02987e-10
6.04802e-09
-5.98367e-10
6.46716e-09
-7.60313e-10
7.04043e-09
-1.04615e-09
7.90267e-09
-1.60525e-09
9.34515e-09
-2.8946e-09
-6.49731e-09
1.15695e-08
1.31859e-09
-3.23753e-09
2.44009e-09
-2.77276e-09
3.33259e-09
-2.22697e-09
4.02061e-09
-1.73401e-09
4.54936e-09
-1.34582e-09
4.96425e-09
-1.06542e-09
5.3033e-09
-8.76814e-10
5.59625e-09
-7.61137e-10
5.86641e-09
-7.03304e-10
6.13303e-09
-6.94015e-10
6.41391e-09
-7.30432e-10
6.72829e-09
-8.17366e-10
7.10065e-09
-9.70729e-10
7.56679e-09
-1.22646e-09
8.18404e-09
-1.6634e-09
9.04259e-09
-2.46381e-09
1.02183e-08
-4.07029e-09
-7.46509e-09
1.11861e-08
1.5699e-09
-4.80743e-09
2.89097e-09
-4.09383e-09
3.92807e-09
-3.26408e-09
4.71642e-09
-2.52236e-09
5.31442e-09
-1.94382e-09
5.77844e-09
-1.52944e-09
6.15437e-09
-1.25274e-09
6.47733e-09
-1.0841e-09
6.77421e-09
-1.00018e-09
7.06667e-09
-9.86473e-10
7.37407e-09
-1.03783e-09
7.71631e-09
-1.15961e-09
8.11693e-09
-1.37134e-09
8.60644e-09
-1.71597e-09
9.22373e-09
-2.28068e-09
1.00002e-08
-3.24027e-09
1.08538e-08
-4.92387e-09
-7.76596e-09
1.11546e-08
1.85697e-09
-6.6644e-09
3.39838e-09
-5.63524e-09
4.58781e-09
-4.45351e-09
5.4764e-09
-3.41095e-09
6.13993e-09
-2.60736e-09
6.6481e-09
-2.03761e-09
7.05572e-09
-1.66036e-09
7.40358e-09
-1.43196e-09
7.72201e-09
-1.31861e-09
8.03464e-09
-1.29911e-09
8.36162e-09
-1.36481e-09
8.72217e-09
-1.52017e-09
9.13652e-09
-1.78569e-09
9.62589e-09
-2.20535e-09
1.02059e-08
-2.86065e-09
1.08555e-08
-3.88988e-09
1.14163e-08
-5.48466e-09
-7.73184e-09
1.13821e-08
2.19704e-09
-8.86144e-09
3.9888e-09
-7.42701e-09
5.34124e-09
-5.80595e-09
6.32972e-09
-4.39943e-09
7.05361e-09
-3.33124e-09
7.59924e-09
-2.58324e-09
8.03176e-09
-2.09289e-09
8.39795e-09
-1.79815e-09
8.73139e-09
-1.65205e-09
9.05714e-09
-1.62486e-09
9.39524e-09
-1.70291e-09
9.76291e-09
-1.88783e-09
1.01751e-08
-2.19784e-09
1.06415e-08
-2.67176e-09
1.11552e-08
-3.37433e-09
1.16602e-08
-4.39487e-09
1.19846e-08
-5.80911e-09
-7.53388e-09
1.17866e-08
2.61196e-09
-1.14734e-08
4.69369e-09
-9.50873e-09
6.22077e-09
-7.33303e-09
7.30604e-09
-5.48469e-09
8.08146e-09
-4.10666e-09
8.65445e-09
-3.15624e-09
9.10216e-09
-2.5406e-09
9.47763e-09
-2.17361e-09
9.81733e-09
-1.99175e-09
1.01471e-08
-1.95461e-09
1.04858e-08
-2.04168e-09
1.08476e-08
-2.24959e-09
1.12408e-08
-2.59104e-09
1.16636e-08
-3.09455e-09
1.20914e-08
-3.80218e-09
1.24525e-08
-4.75591e-09
1.25971e-08
-5.95369e-09
-7.25583e-09
1.2319e-08
3.1327e-09
-1.46061e-08
5.555e-09
-1.1931e-08
7.26687e-09
-9.04491e-09
8.43993e-09
-6.65775e-09
9.25181e-09
-4.91855e-09
9.83675e-09
-3.74118e-09
1.02856e-08
-2.98949e-09
1.06579e-08
-2.54584e-09
1.09922e-08
-2.32607e-09
1.13143e-08
-2.2767e-09
1.16411e-08
-2.36846e-09
1.19824e-08
-2.59092e-09
1.23399e-08
-2.94849e-09
1.27017e-08
-3.45643e-09
1.30329e-08
-4.13339e-09
1.32611e-08
-4.98406e-09
1.3272e-08
-5.96461e-09
-6.93699e-09
1.29532e-08
3.80595e-09
-1.8412e-08
6.63211e-09
-1.47572e-08
8.53304e-09
-1.09458e-08
9.7742e-09
-7.8989e-09
1.05976e-08
-5.74195e-09
1.11713e-08
-4.31488e-09
1.16015e-08
-3.41972e-09
1.19535e-08
-2.89783e-09
1.22673e-08
-2.63983e-09
1.25672e-08
-2.57662e-09
1.28672e-08
-2.66848e-09
1.31725e-08
-2.89622e-09
1.34784e-08
-3.25433e-09
1.3766e-08
-3.74411e-09
1.39967e-08
-4.36409e-09
1.41072e-08
-5.09447e-09
1.40185e-08
-5.87596e-09
-6.59486e-09
1.36764e-08
4.70586e-09
-2.31179e-08
8.01239e-09
-1.80637e-08
1.00922e-08
-1.30257e-08
1.13632e-08
-9.16987e-09
1.2158e-08
-6.53675e-09
1.26863e-08
-4.84319e-09
1.30702e-08
-3.80367e-09
1.33794e-08
-3.20702e-09
1.36533e-08
-2.91371e-09
1.39136e-08
-2.83687e-09
1.41701e-08
-2.92504e-09
1.44233e-08
-3.14939e-09
1.46631e-08
-3.49418e-09
1.48672e-08
-3.94817e-09
1.49982e-08
-4.49511e-09
1.50062e-08
-5.10245e-09
1.48415e-08
-5.71124e-09
-6.23642e-09
1.4483e-08
5.95628e-09
-2.90742e-08
9.82852e-09
-2.1936e-08
1.20456e-08
-1.52427e-08
1.32763e-08
-1.04006e-08
1.39794e-08
-7.23991e-09
1.44131e-08
-5.27681e-09
1.47132e-08
-4.10379e-09
1.49503e-08
-3.44415e-09
1.51605e-08
-3.12383e-09
1.53605e-08
-3.03689e-09
1.55553e-08
-3.11982e-09
1.57402e-08
-3.33436e-09
1.59016e-08
-3.65555e-09
1.60159e-08
-4.06244e-09
1.60506e-08
-4.52984e-09
1.59694e-08
-5.02126e-09
1.5744e-08
-5.48578e-09
-5.8635e-09
1.5371e-08
6.47109e-09
-3.55453e-08
1.02522e-08
-2.57171e-08
1.21522e-08
-1.71427e-08
1.30647e-08
-1.1313e-08
1.35106e-08
-7.68589e-09
1.37473e-08
-5.5135e-09
1.38951e-08
-4.25151e-09
1.40089e-08
-3.55798e-09
1.41129e-08
-3.22781e-09
1.42153e-08
-3.13934e-09
1.43153e-08
-3.2198e-09
1.4405e-08
-3.42411e-09
1.44707e-08
-3.72124e-09
1.4493e-08
-4.08474e-09
1.44491e-08
-4.48588e-09
1.43171e-08
-4.88926e-09
1.4084e-08
-5.25277e-09
-5.53349e-09
1.3754e-08
9.69374e-09
-4.5239e-08
1.4573e-08
-3.05964e-08
1.65921e-08
-1.91617e-08
1.73355e-08
-1.20565e-08
1.75736e-08
-7.92393e-09
1.76309e-08
-5.57081e-09
1.76367e-08
-4.2573e-09
1.76393e-08
-3.56066e-09
1.76537e-08
-3.24218e-09
1.76796e-08
-3.16519e-09
1.77088e-08
-3.24907e-09
1.77281e-08
-3.44338e-09
1.77197e-08
-3.71284e-09
1.7663e-08
-4.02802e-09
1.75369e-08
-4.35981e-09
1.73247e-08
-4.67706e-09
1.70197e-08
-4.94774e-09
-5.14352e-09
1.66297e-08
1.57147e-08
-6.09537e-08
2.17116e-08
-3.65933e-08
2.32969e-08
-2.0747e-08
2.33984e-08
-1.21581e-08
2.31046e-08
-7.63014e-09
2.27673e-08
-5.2335e-09
2.24842e-08
-3.97421e-09
2.22704e-08
-3.34679e-09
2.2115e-08
-3.08682e-09
2.19998e-08
-3.04999e-09
2.1904e-08
-3.15324e-09
2.18056e-08
-3.34503e-09
2.16823e-08
-3.58951e-09
2.15122e-08
-3.85791e-09
2.12766e-08
-4.12421e-09
2.09634e-08
-4.36385e-09
2.05705e-08
-4.55491e-09
-4.68074e-09
2.01078e-08
2.87564e-08
-8.97101e-08
3.44192e-08
-4.22562e-08
3.37848e-08
-2.01126e-08
3.21369e-08
-1.05101e-08
3.06752e-08
-6.16848e-09
2.95657e-08
-4.12391e-09
2.87545e-08
-3.16301e-09
2.81614e-08
-2.75368e-09
2.7718e-08
-2.64344e-09
2.73705e-08
-2.70249e-09
2.70759e-08
-2.85865e-09
2.67988e-08
-3.06792e-09
2.65094e-08
-3.30013e-09
2.61836e-08
-3.53207e-09
2.58038e-08
-3.74446e-09
2.53611e-08
-3.92116e-09
2.48561e-08
-4.04986e-09
-4.12305e-09
2.42984e-08
6.35749e-08
-1.53285e-07
5.87261e-08
-3.74074e-08
5.04199e-08
-1.18063e-08
4.46433e-08
-4.73362e-09
4.09102e-08
-2.43531e-09
3.84553e-08
-1.66905e-09
3.67828e-08
-1.49052e-09
3.55964e-08
-1.56724e-09
3.47148e-08
-1.7619e-09
3.40204e-08
-2.00807e-09
3.34328e-08
-2.27105e-09
3.28952e-08
-2.53035e-09
3.2367e-08
-2.77193e-09
3.18202e-08
-2.98521e-09
3.12378e-08
-3.16204e-09
3.06131e-08
-3.29651e-09
2.99486e-08
-3.38531e-09
-3.42797e-09
2.92535e-08
1.88922e-07
1.56933e-07
1.05394e-07
4.61213e-08
7.55022e-08
1.8085e-08
6.1921e-08
8.84761e-09
5.45961e-08
4.88956e-09
5.01518e-08
2.77519e-09
4.72163e-08
1.44506e-09
4.51409e-08
5.08157e-10
4.35677e-08
-1.88762e-10
4.22781e-08
-7.18409e-10
4.11628e-08
-1.1558e-09
4.01518e-08
-1.51939e-09
3.91993e-08
-1.81941e-09
3.82764e-08
-2.06231e-09
3.73669e-08
-2.25251e-09
3.6464e-08
-2.39363e-09
3.5568e-08
-2.48933e-09
-2.54377e-09
3.46839e-08
7.75385e-08
7.93945e-08
7.74717e-08
4.6188e-08
6.91086e-08
2.64482e-08
6.2191e-08
1.57651e-08
5.72902e-08
9.79036e-09
5.38362e-08
6.22922e-09
5.13217e-08
3.95953e-09
4.9407e-08
2.42292e-09
4.78885e-08
1.32967e-09
4.66489e-08
5.21216e-10
4.55799e-08
-8.67536e-11
4.45875e-08
-5.26993e-10
4.36413e-08
-8.73219e-10
4.27233e-08
-1.14431e-09
4.1824e-08
-1.35327e-09
4.09402e-08
-1.50983e-09
4.00727e-08
-1.62182e-09
-1.69586e-09
3.92248e-08
3.64888e-08
4.29057e-08
5.09088e-08
3.1768e-08
5.51938e-08
2.21632e-08
5.56915e-08
1.52674e-08
5.49354e-08
1.05465e-08
5.38474e-08
7.31718e-09
5.2737e-08
5.06993e-09
5.16903e-08
3.46958e-09
5.0717e-08
2.30305e-09
4.98032e-08
1.43497e-09
4.89381e-08
7.7837e-10
4.81349e-08
2.76166e-10
4.73658e-08
-1.0404e-10
4.66063e-08
-3.84859e-10
4.58542e-08
-6.01167e-10
4.51099e-08
-7.65481e-10
4.43755e-08
-8.87482e-10
-9.74904e-10
4.36546e-08
1.46742e-08
2.82314e-08
2.36583e-08
2.2784e-08
2.85236e-08
1.72979e-08
3.10086e-08
1.27824e-08
3.22122e-08
9.34298e-09
3.27344e-08
6.79495e-09
3.28878e-08
4.9165e-09
3.28337e-08
3.52366e-09
3.26564e-08
2.48038e-09
3.24011e-08
1.69026e-09
3.20935e-08
1.08595e-09
3.17494e-08
6.20314e-10
3.13853e-08
2.60036e-10
3.10183e-08
-1.7816e-11
3.06378e-08
-2.2072e-10
3.02492e-08
-3.76889e-10
2.98572e-08
-4.9541e-10
-5.83455e-10
2.94657e-08
8.63194e-09
1.95995e-08
1.48901e-08
1.65259e-08
1.90186e-08
1.31694e-08
2.16304e-08
1.01705e-08
2.32516e-08
7.7218e-09
2.42423e-08
5.80423e-09
2.48301e-08
4.3287e-09
2.5155e-08
3.19876e-09
2.53034e-08
2.33197e-09
2.53297e-08
1.66398e-09
2.52692e-08
1.1465e-09
2.51456e-08
7.43837e-10
2.4976e-08
4.29665e-10
2.47737e-08
1.8446e-10
2.45591e-08
-6.03494e-12
2.43276e-08
-1.45456e-10
2.40851e-08
-2.5293e-10
-3.34601e-10
2.38363e-08
5.63582e-09
1.39637e-08
1.00866e-08
1.20751e-08
1.33407e-08
9.91527e-09
1.56281e-08
7.88307e-09
1.72053e-08
6.14464e-09
1.82803e-08
4.72924e-09
1.90036e-08
3.60541e-09
1.94791e-08
2.72324e-09
1.97777e-08
2.03337e-09
1.9948e-08
1.49373e-09
2.00237e-08
1.07075e-09
2.00291e-08
7.38471e-10
1.99817e-08
4.77054e-10
1.98948e-08
2.71384e-10
1.97788e-08
1.09891e-10
1.96488e-08
-1.53797e-11
1.95037e-08
-1.07909e-10
-1.79338e-10
1.93485e-08
3.92871e-09
1.0035e-08
7.187e-09
8.81679e-09
9.71883e-09
7.38344e-09
1.16138e-08
5.98813e-09
1.30026e-08
4.7558e-09
1.40075e-08
3.72434e-09
1.47266e-08
2.88629e-09
1.52339e-08
2.21599e-09
1.55834e-08
1.68382e-09
1.58147e-08
1.26243e-09
1.59567e-08
9.28818e-10
1.60306e-08
6.64518e-10
1.60527e-08
4.55011e-10
1.60351e-08
2.88989e-10
1.59873e-08
1.57648e-10
1.59178e-08
5.4106e-11
1.58354e-08
-2.54576e-11
-8.50647e-11
1.57411e-08
2.8579e-09
7.17707e-09
5.30144e-09
6.37325e-09
7.27531e-09
5.40957e-09
8.81389e-09
4.44955e-09
9.98716e-09
3.58253e-09
1.08692e-08
2.84227e-09
1.1525e-08
2.23052e-09
1.20067e-08
1.73423e-09
1.23551e-08
1.33552e-09
1.26008e-08
1.01668e-09
1.27675e-08
7.62146e-10
1.2873e-08
5.59026e-10
1.2931e-08
3.96947e-10
1.29523e-08
2.67689e-10
1.29452e-08
1.64764e-10
1.29163e-08
8.30436e-11
1.28724e-08
1.84588e-11
-3.02995e-11
1.28176e-08
2.13758e-09
5.0395e-09
4.00232e-09
4.50851e-09
5.54826e-09
3.86363e-09
6.787e-09
3.21081e-09
7.75772e-09
2.61181e-09
8.50704e-09
2.09296e-09
9.07883e-09
1.65873e-09
9.51044e-09
1.30261e-09
9.8321e-09
1.01386e-09
1.00677e-08
7.81102e-10
1.02358e-08
5.93998e-10
1.03511e-08
4.43754e-10
1.04249e-08
3.23174e-10
1.04661e-08
2.2647e-10
1.04818e-08
1.49025e-10
1.04777e-08
8.71602e-11
1.04582e-08
3.79373e-11
-9.3314e-13
1.04289e-08
1.62634e-09
3.41316e-09
3.06481e-09
3.07003e-09
4.27898e-09
2.64946e-09
5.27094e-09
2.21885e-09
6.06354e-09
1.81922e-09
6.68713e-09
1.46937e-09
7.17207e-09
1.17379e-09
7.54533e-09
9.29349e-10
7.82951e-09
7.29681e-10
8.04292e-09
5.67687e-10
8.20022e-09
4.36701e-10
8.31302e-09
3.30952e-10
8.39055e-09
2.45648e-10
8.44012e-09
1.76891e-10
8.4676e-09
1.21545e-10
8.47767e-09
7.70934e-11
8.4741e-09
4.1511e-11
1.31538e-11
8.46001e-09
1.24715e-09
2.16601e-09
2.36107e-09
1.95611e-09
3.3134e-09
1.69713e-09
4.10244e-09
1.42981e-09
4.74199e-09
1.17967e-09
5.25241e-09
9.5895e-10
5.65508e-09
7.71119e-10
5.96968e-09
6.14756e-10
6.21309e-09
4.8627e-10
6.39932e-09
3.81457e-10
6.53974e-09
2.96279e-10
6.64351e-09
2.27184e-10
6.71797e-09
1.71189e-10
6.76901e-09
1.25849e-10
6.80137e-09
8.91811e-11
6.81888e-09
5.95861e-11
6.82462e-09
3.57736e-11
1.66995e-11
6.82107e-09
9.54054e-10
1.21195e-09
1.81226e-09
1.09791e-09
2.55287e-09
9.56517e-10
3.17295e-09
8.09731e-10
3.68109e-09
6.71528e-10
4.09119e-09
5.48854e-10
4.41844e-09
4.43862e-10
4.67721e-09
3.5599e-10
4.88006e-09
2.8342e-10
5.03758e-09
2.23941e-10
5.15847e-09
1.75384e-10
5.24983e-09
1.35823e-10
5.3174e-09
1.03624e-10
5.36581e-09
7.7439e-11
5.39882e-09
5.61683e-11
5.41948e-09
3.89214e-11
5.43028e-09
2.49798e-11
1.37686e-11
5.43321e-09
7.15364e-10
4.9659e-10
1.3623e-09
4.50976e-10
1.92458e-09
3.94238e-10
2.39922e-09
3.35085e-10
2.79162e-09
2.79131e-10
3.11125e-09
2.29226e-10
3.3688e-09
1.86312e-10
3.57456e-09
1.50229e-10
3.73768e-09
1.20295e-10
3.86597e-09
9.56533e-11
3.9659e-09
7.54501e-11
4.04281e-09
5.892e-11
4.10102e-09
4.54092e-11
4.14409e-09
3.43748e-11
4.17488e-09
2.53721e-11
4.19576e-09
1.80396e-11
4.20866e-09
1.20865e-11
7.29322e-12
4.21513e-09
4.9659e-10
9.47566e-10
1.3418e-09
1.67689e-09
1.95602e-09
2.18525e-09
2.37156e-09
2.52179e-09
2.64208e-09
2.73773e-09
2.81319e-09
2.87211e-09
2.91751e-09
2.95189e-09
2.97726e-09
2.9953e-09
3.00739e-09
3.01468e-09
6.65075e-11
-6.65075e-11
1.34092e-10
-6.75841e-11
2.02831e-10
-6.87391e-11
2.72609e-10
-6.97785e-11
3.4324e-10
-7.06307e-11
4.14518e-10
-7.12779e-11
4.86242e-10
-7.17246e-11
5.58225e-10
-7.1983e-11
6.30293e-10
-7.20671e-11
7.02283e-10
-7.19902e-11
7.74047e-10
-7.17644e-11
8.45447e-10
-7.14002e-11
9.16354e-10
-7.09072e-11
9.86649e-10
-7.02942e-11
1.05622e-09
-6.95694e-11
1.12496e-09
-6.87407e-11
1.19277e-09
-6.78157e-11
1.25958e-09
-6.6802e-11
1.32528e-09
-6.57071e-11
1.38982e-09
-6.45383e-11
1.45313e-09
-6.33033e-11
1.51513e-09
-6.20092e-11
1.5758e-09
-6.06635e-11
1.63507e-09
-5.92734e-11
1.69292e-09
-5.78461e-11
1.74931e-09
-5.63884e-11
1.80421e-09
-5.49071e-11
1.85762e-09
-5.34089e-11
1.90952e-09
-5.18999e-11
1.95991e-09
-5.03861e-11
2.00878e-09
-4.88733e-11
2.05615e-09
-4.73668e-11
2.10202e-09
-4.58717e-11
2.14641e-09
-4.43928e-11
2.18935e-09
-4.29344e-11
2.23085e-09
-4.15007e-11
2.27094e-09
-4.00953e-11
2.30966e-09
-3.87217e-11
2.34705e-09
-3.73829e-11
2.38313e-09
-3.6082e-11
2.41795e-09
-3.48213e-11
2.45155e-09
-3.36032e-11
2.48398e-09
-3.24296e-11
2.51529e-09
-3.13024e-11
2.54551e-09
-3.02231e-11
2.5747e-09
-2.91931e-11
2.60292e-09
-2.82135e-11
2.6302e-09
-2.72853e-11
2.65661e-09
-2.64093e-11
2.6822e-09
-2.55864e-11
2.70701e-09
-2.48168e-11
2.73111e-09
-2.41012e-11
2.75455e-09
-2.34396e-11
2.77739e-09
-2.28326e-11
2.79967e-09
-2.22799e-11
2.82145e-09
-2.17817e-11
2.84279e-09
-2.1338e-11
2.86373e-09
-2.09483e-11
2.88435e-09
-2.06128e-11
2.90468e-09
-2.03309e-11
2.92478e-09
-2.01023e-11
2.94471e-09
-1.99265e-11
2.96451e-09
-1.98032e-11
2.98424e-09
-1.97316e-11
3.00395e-09
-1.97111e-11
3.02369e-09
-1.97411e-11
3.04351e-09
-1.98208e-11
3.06346e-09
-1.99493e-11
3.08359e-09
-2.0126e-11
3.10394e-09
-2.03496e-11
3.12456e-09
-2.06194e-11
3.14549e-09
-2.09342e-11
3.16679e-09
-2.12929e-11
3.18848e-09
-2.16946e-11
3.21062e-09
-2.21379e-11
3.23324e-09
-2.26218e-11
3.25639e-09
-2.3145e-11
3.28009e-09
-2.37063e-11
3.3044e-09
-2.43043e-11
3.32933e-09
-2.49379e-11
3.35494e-09
-2.56059e-11
3.38125e-09
-2.63069e-11
3.40829e-09
-2.704e-11
3.43609e-09
-2.78038e-11
3.46469e-09
-2.85974e-11
3.49411e-09
-2.94196e-11
3.52438e-09
-3.02695e-11
3.55552e-09
-3.11461e-11
3.58757e-09
-3.20489e-11
3.62055e-09
-3.29769e-11
3.65448e-09
-3.39296e-11
3.68939e-09
-3.49066e-11
3.72529e-09
-3.59075e-11
3.76222e-09
-3.69321e-11
3.80021e-09
-3.79802e-11
3.83926e-09
-3.90521e-11
3.87941e-09
-4.01479e-11
3.92067e-09
-4.12681e-11
3.96309e-09
-4.24132e-11
4.00667e-09
-4.35841e-11
4.05145e-09
-4.47818e-11
4.09746e-09
-4.60076e-11
4.14472e-09
-4.7263e-11
4.19327e-09
-4.85496e-11
4.24314e-09
-4.98698e-11
4.29437e-09
-5.12259e-11
4.34699e-09
-5.26207e-11
4.40105e-09
-5.40574e-11
4.45659e-09
-5.55398e-11
4.51366e-09
-5.7072e-11
4.57232e-09
-5.86587e-11
4.63262e-09
-6.03054e-11
4.69464e-09
-6.20183e-11
4.75844e-09
-6.3804e-11
4.82412e-09
-6.56706e-11
4.89174e-09
-6.7627e-11
4.96143e-09
-6.96845e-11
5.03328e-09
-7.18554e-11
5.10743e-09
-7.41494e-11
5.18399e-09
-7.65631e-11
5.26307e-09
-7.90802e-11
5.34478e-09
-8.17102e-11
5.42938e-09
-8.4596e-11
5.51753e-09
-8.81496e-11
5.61059e-09
-9.30564e-11
5.71046e-09
-9.98734e-11
5.81846e-09
-1.08001e-10
5.93269e-09
-1.14232e-10
6.04466e-09
-1.11965e-10
6.13771e-09
-9.30525e-11
6.19204e-09
-5.43266e-11
6.20032e-09
-8.28507e-12
6.17895e-09
2.13693e-11
6.14479e-09
3.41616e-11
6.1037e-09
4.10954e-11
6.05788e-09
4.58132e-11
6.00843e-09
4.9451e-11
5.95589e-09
5.25427e-11
5.90042e-09
5.54721e-11
5.8421e-09
5.83164e-11
5.78191e-09
6.01947e-11
5.72109e-09
6.08151e-11
5.66346e-09
5.76338e-11
5.61441e-09
4.90519e-11
5.57723e-09
3.71707e-11
5.55954e-09
1.7693e-11
5.5884e-09
-2.88611e-11
5.73363e-09
-1.45223e-10
6.16005e-09
-4.26423e-10
7.4399e-09
-1.27985e-09
1.10609e-08
-3.62098e-09
1.50232e-08
-3.96233e-09
1.34046e-08
1.61863e-09
1.2204e-08
1.20057e-09
1.15259e-08
6.78164e-10
1.10919e-08
4.33948e-10
1.07873e-08
3.04563e-10
1.05594e-08
2.27934e-10
1.03811e-08
1.78346e-10
1.0237e-08
1.44077e-10
1.01177e-08
1.19241e-10
1.00171e-08
1.0062e-10
9.93081e-09
8.63214e-11
9.85564e-09
7.51647e-11
9.78926e-09
6.63792e-11
9.72982e-09
5.94456e-11
9.67581e-09
5.40089e-11
9.62598e-09
4.98301e-11
9.57922e-09
4.67582e-11
9.5345e-09
4.4718e-11
9.49079e-09
4.371e-11
9.44697e-09
4.3823e-11
9.4017e-09
4.52669e-11
9.35326e-09
4.84441e-11
9.29916e-09
5.41e-11
9.23548e-09
6.36761e-11
9.15524e-09
8.0242e-11
9.04376e-09
1.11481e-10
8.86162e-09
1.82133e-10
4.06448e-10
8.45518e-09
1.21591e-10
-1.88099e-10
2.43648e-10
-1.89641e-10
3.66062e-10
-1.91153e-10
4.8881e-10
-1.92527e-10
6.11861e-10
-1.93682e-10
7.35153e-10
-1.9457e-10
8.5859e-10
-1.95162e-10
9.82053e-10
-1.95445e-10
1.1054e-09
-1.95415e-10
1.22848e-09
-1.95073e-10
1.35114e-09
-1.94425e-10
1.47322e-09
-1.93478e-10
1.59456e-09
-1.92244e-10
1.715e-09
-1.90733e-10
1.83439e-09
-1.8896e-10
1.95259e-09
-1.86937e-10
2.06945e-09
-1.84681e-10
2.18485e-09
-1.82205e-10
2.29867e-09
-1.79528e-10
2.4108e-09
-1.76666e-10
2.52113e-09
-1.73635e-10
2.62958e-09
-1.70454e-10
2.73605e-09
-1.67139e-10
2.84049e-09
-1.63708e-10
2.94282e-09
-1.60179e-10
3.043e-09
-1.56566e-10
3.14098e-09
-1.52888e-10
3.23673e-09
-1.49159e-10
3.33023e-09
-1.45395e-10
3.42145e-09
-1.4161e-10
3.5104e-09
-1.37818e-10
3.59706e-09
-1.34031e-10
3.68145e-09
-1.30262e-10
3.76358e-09
-1.26521e-10
3.84346e-09
-1.2282e-10
3.92113e-09
-1.19166e-10
3.99661e-09
-1.1557e-10
4.06992e-09
-1.1204e-10
4.14112e-09
-1.08581e-10
4.21024e-09
-1.05201e-10
4.27733e-09
-1.01906e-10
4.34242e-09
-9.86993e-11
4.40558e-09
-9.55867e-11
4.46685e-09
-9.25717e-11
4.52628e-09
-8.96575e-11
4.58394e-09
-8.68467e-11
4.63986e-09
-8.41417e-11
4.69412e-09
-8.15442e-11
4.74677e-09
-7.90558e-11
4.79786e-09
-7.66773e-11
4.84745e-09
-7.44095e-11
4.8956e-09
-7.22528e-11
4.94237e-09
-7.02071e-11
4.98781e-09
-6.82725e-11
5.03198e-09
-6.64483e-11
5.07493e-09
-6.4734e-11
5.11672e-09
-6.31285e-11
5.15741e-09
-6.1631e-11
5.19703e-09
-6.024e-11
5.23566e-09
-5.89541e-11
5.27333e-09
-5.77719e-11
5.31009e-09
-5.66915e-11
5.346e-09
-5.5711e-11
5.3811e-09
-5.48284e-11
5.41543e-09
-5.40415e-11
5.44903e-09
-5.33481e-11
5.48196e-09
-5.27456e-11
5.51424e-09
-5.22318e-11
5.54592e-09
-5.18038e-11
5.57703e-09
-5.14592e-11
5.6076e-09
-5.11949e-11
5.63768e-09
-5.10082e-11
5.66728e-09
-5.08962e-11
5.69644e-09
-5.08558e-11
5.72519e-09
-5.08841e-11
5.75354e-09
-5.0978e-11
5.78153e-09
-5.11344e-11
5.80918e-09
-5.13502e-11
5.83649e-09
-5.16225e-11
5.86351e-09
-5.1948e-11
5.89022e-09
-5.23239e-11
5.91666e-09
-5.27472e-11
5.94284e-09
-5.32151e-11
5.96876e-09
-5.37246e-11
5.99443e-09
-5.42731e-11
6.01987e-09
-5.4858e-11
6.04508e-09
-5.5477e-11
6.07006e-09
-5.61272e-11
6.09482e-09
-5.6807e-11
6.11936e-09
-5.75137e-11
6.14367e-09
-5.82458e-11
6.16777e-09
-5.90011e-11
6.19164e-09
-5.97782e-11
6.21528e-09
-6.05754e-11
6.23869e-09
-6.13914e-11
6.26187e-09
-6.22248e-11
6.28479e-09
-6.30745e-11
6.30746e-09
-6.39397e-11
6.32987e-09
-6.48192e-11
6.352e-09
-6.57126e-11
6.37384e-09
-6.66191e-11
6.39537e-09
-6.75382e-11
6.41657e-09
-6.84694e-11
6.43744e-09
-6.94123e-11
6.45793e-09
-7.03667e-11
6.47804e-09
-7.13322e-11
6.49773e-09
-7.23085e-11
6.51696e-09
-7.32952e-11
6.53572e-09
-7.42919e-11
6.55394e-09
-7.52976e-11
6.57159e-09
-7.63118e-11
6.58862e-09
-7.73327e-11
6.60496e-09
-7.83584e-11
6.62054e-09
-7.9386e-11
6.63529e-09
-8.0412e-11
6.64909e-09
-8.14307e-11
6.66184e-09
-8.2435e-11
6.6734e-09
-8.34142e-11
6.6836e-09
-8.435e-11
6.69225e-09
-8.52137e-11
6.69914e-09
-8.59727e-11
6.70405e-09
-8.66209e-11
6.70669e-09
-8.72281e-11
6.70649e-09
-8.79514e-11
6.70231e-09
-8.88831e-11
6.69204e-09
-8.95976e-11
6.67246e-09
-8.84179e-11
6.64004e-09
-8.18198e-11
6.59295e-09
-6.48719e-11
6.53343e-09
-3.35351e-11
6.46917e-09
9.93772e-12
6.4013e-09
5.95802e-11
6.31499e-09
1.07686e-10
6.21641e-09
1.3274e-10
6.11492e-09
1.42588e-10
6.0166e-09
1.44129e-10
5.92538e-09
1.40667e-10
5.84437e-09
1.33557e-10
5.77697e-09
1.22868e-10
5.72861e-09
1.06682e-10
5.7106e-09
7.81964e-11
5.74272e-09
2.87009e-11
5.86406e-09
-6.37063e-11
6.09327e-09
-1.80155e-10
6.43364e-09
-3.032e-10
6.88157e-09
-4.30243e-10
7.41185e-09
-5.59138e-10
7.99716e-09
-7.30531e-10
8.61422e-09
-1.04349e-09
9.05026e-09
-1.7159e-09
8.32431e-09
-2.89502e-09
7.66921e-09
-3.30724e-09
1.29732e-08
-3.68539e-09
1.20336e-08
2.14016e-09
1.14475e-08
1.2643e-09
1.10511e-08
8.30389e-10
1.07635e-08
5.92088e-10
1.05442e-08
4.47223e-10
1.03707e-08
3.51843e-10
1.02296e-08
2.85197e-10
1.01123e-08
2.36555e-10
1.0013e-08
1.99915e-10
9.92765e-09
1.71693e-10
9.85319e-09
1.49623e-10
9.78735e-09
1.32217e-10
9.72834e-09
1.18462e-10
9.67468e-09
1.07667e-10
9.62515e-09
9.93604e-11
9.57866e-09
9.32467e-11
9.5342e-09
8.91773e-11
9.49076e-09
8.71514e-11
9.44724e-09
8.73402e-11
9.40236e-09
9.01507e-11
9.35445e-09
9.63567e-11
9.30117e-09
1.0738e-10
9.23893e-09
1.25916e-10
9.16166e-09
1.57512e-10
9.05806e-09
2.15074e-10
8.9063e-09
3.33894e-10
6.26953e-10
8.6858e-09
1.45606e-10
-3.33704e-10
2.92155e-10
-3.3619e-10
4.39411e-10
-3.38409e-10
5.87188e-10
-3.40304e-10
7.3533e-10
-3.41824e-10
8.83687e-10
-3.42927e-10
1.03211e-09
-3.43581e-10
1.18043e-09
-3.43766e-10
1.32848e-09
-3.43469e-10
1.47609e-09
-3.42686e-10
1.62309e-09
-3.41418e-10
1.76928e-09
-3.39672e-10
1.9145e-09
-3.3746e-10
2.05856e-09
-3.34795e-10
2.2013e-09
-3.31698e-10
2.34255e-09
-3.28188e-10
2.48216e-09
-3.24289e-10
2.61998e-09
-3.20026e-10
2.75587e-09
-3.15425e-10
2.88972e-09
-3.10515e-10
3.02141e-09
-3.05324e-10
3.15084e-09
-2.9988e-10
3.27791e-09
-2.94214e-10
3.40256e-09
-2.88354e-10
3.52471e-09
-2.82329e-10
3.64431e-09
-2.76166e-10
3.76131e-09
-2.69894e-10
3.87569e-09
-2.63538e-10
3.98742e-09
-2.57123e-10
4.09648e-09
-2.50674e-10
4.20288e-09
-2.44213e-10
4.30661e-09
-2.37761e-10
4.40768e-09
-2.31338e-10
4.50612e-09
-2.24962e-10
4.60195e-09
-2.18649e-10
4.6952e-09
-2.12416e-10
4.78591e-09
-2.06276e-10
4.87411e-09
-2.00241e-10
4.95985e-09
-1.94324e-10
5.04318e-09
-1.88533e-10
5.12416e-09
-1.82877e-10
5.20282e-09
-1.77365e-10
5.27924e-09
-1.72003e-10
5.35346e-09
-1.66796e-10
5.42555e-09
-1.61749e-10
5.49557e-09
-1.56865e-10
5.56358e-09
-1.52149e-10
5.62964e-09
-1.47601e-10
5.6938e-09
-1.43223e-10
5.75614e-09
-1.39018e-10
5.81672e-09
-1.34983e-10
5.87559e-09
-1.31121e-10
5.93281e-09
-1.2743e-10
5.98845e-09
-1.23909e-10
6.04255e-09
-1.20557e-10
6.09519e-09
-1.17372e-10
6.14641e-09
-1.14352e-10
6.19628e-09
-1.11494e-10
6.24484e-09
-1.08797e-10
6.29214e-09
-1.06257e-10
6.33824e-09
-1.03872e-10
6.38318e-09
-1.01637e-10
6.42702e-09
-9.955e-11
6.4698e-09
-9.76071e-11
6.51156e-09
-9.58045e-11
6.55235e-09
-9.41384e-11
6.59221e-09
-9.26047e-11
6.63118e-09
-9.11995e-11
6.6693e-09
-8.99184e-11
6.70659e-09
-8.87572e-11
6.74311e-09
-8.77118e-11
6.77888e-09
-8.67776e-11
6.81393e-09
-8.59502e-11
6.8483e-09
-8.52253e-11
6.88202e-09
-8.45982e-11
6.9151e-09
-8.40648e-11
6.94759e-09
-8.36205e-11
6.9795e-09
-8.3261e-11
7.01086e-09
-8.29821e-11
7.04169e-09
-8.27794e-11
7.07202e-09
-8.26488e-11
7.10186e-09
-8.25864e-11
7.13123e-09
-8.25882e-11
7.16016e-09
-8.26505e-11
7.18865e-09
-8.27696e-11
7.21674e-09
-8.2942e-11
7.24442e-09
-8.31645e-11
7.27173e-09
-8.34339e-11
7.29867e-09
-8.37471e-11
7.32526e-09
-8.41016e-11
7.35151e-09
-8.44945e-11
7.37743e-09
-8.49235e-11
7.40304e-09
-8.53863e-11
7.42834e-09
-8.58806e-11
7.45336e-09
-8.64047e-11
7.47809e-09
-8.69568e-11
7.50255e-09
-8.75351e-11
7.52675e-09
-8.8138e-11
7.55069e-09
-8.87643e-11
7.57439e-09
-8.94124e-11
7.59785e-09
-9.00812e-11
7.62109e-09
-9.07694e-11
7.64409e-09
-9.14758e-11
7.66688e-09
-9.21992e-11
7.68945e-09
-9.29383e-11
7.71181e-09
-9.36916e-11
7.73396e-09
-9.44576e-11
7.7559e-09
-9.52342e-11
7.77763e-09
-9.60196e-11
7.79914e-09
-9.68109e-11
7.82043e-09
-9.76045e-11
7.8415e-09
-9.83965e-11
7.86232e-09
-9.91815e-11
7.88288e-09
-9.99524e-11
7.90317e-09
-1.007e-10
7.92316e-09
-1.01414e-10
7.9428e-09
-1.02077e-10
7.96205e-09
-1.02668e-10
7.98086e-09
-1.03157e-10
7.99915e-09
-1.03503e-10
8.01683e-09
-1.03657e-10
8.03378e-09
-1.03571e-10
8.04975e-09
-1.032e-10
8.06424e-09
-1.0244e-10
8.07631e-09
-1.00954e-10
8.08452e-09
-9.78011e-11
8.08707e-09
-9.09725e-11
8.08239e-09
-7.71436e-11
8.06969e-09
-5.21667e-11
8.04874e-09
-1.25822e-11
8.01892e-09
3.97545e-11
7.97977e-09
9.87278e-11
7.93803e-09
1.49431e-10
7.89298e-09
1.77791e-10
7.84987e-09
1.85697e-10
7.81685e-09
1.77147e-10
7.80383e-09
1.53684e-10
7.82341e-09
1.13984e-10
7.8921e-09
5.41737e-11
8.0299e-09
-3.11165e-11
8.24135e-09
-1.33259e-10
8.49941e-09
-2.29359e-10
8.74723e-09
-3.11519e-10
8.96046e-09
-3.93392e-10
9.13991e-09
-4.82641e-10
9.29363e-09
-5.83967e-10
9.44049e-09
-7.05997e-10
9.59274e-09
-8.82783e-10
9.73134e-09
-1.18209e-09
9.71725e-09
-1.70181e-09
9.24347e-09
-2.42124e-09
8.836e-09
-2.89977e-09
9.72817e-09
-4.57756e-09
1.17391e-08
1.29218e-10
1.13081e-08
1.69534e-09
1.09757e-08
1.16273e-09
1.07185e-08
8.49344e-10
1.05151e-08
6.50649e-10
1.03507e-08
5.1622e-10
1.02152e-08
4.20661e-10
1.01016e-08
3.50139e-10
1.00049e-08
2.96627e-10
9.92141e-09
2.55201e-10
9.84834e-09
2.22692e-10
9.78357e-09
1.96985e-10
9.7254e-09
1.76631e-10
9.67244e-09
1.60628e-10
9.6235e-09
1.48296e-10
9.57755e-09
1.39201e-10
9.5336e-09
1.33124e-10
9.49069e-09
1.30061e-10
9.44778e-09
1.30255e-10
9.40364e-09
1.34284e-10
9.35676e-09
1.43237e-10
9.30505e-09
1.59088e-10
9.24549e-09
1.85477e-10
9.17347e-09
2.29536e-10
9.08208e-09
3.06462e-10
8.96451e-09
4.51462e-10
7.47187e-10
8.84428e-09
1.62805e-10
-4.96509e-10
3.26929e-10
-5.00315e-10
4.92117e-10
-5.03597e-10
6.58123e-10
-5.0631e-10
8.24714e-10
-5.08415e-10
9.91663e-10
-5.09876e-10
1.15875e-09
-5.10665e-10
1.32574e-09
-5.10761e-10
1.49242e-09
-5.10151e-10
1.65857e-09
-5.0883e-10
1.82395e-09
-5.06802e-10
1.98835e-09
-5.04075e-10
2.15156e-09
-5.00666e-10
2.31336e-09
-4.96596e-10
2.47355e-09
-4.91892e-10
2.63195e-09
-4.86585e-10
2.78837e-09
-4.80709e-10
2.94265e-09
-4.74302e-10
3.09463e-09
-4.67403e-10
3.24417e-09
-4.60055e-10
3.39114e-09
-4.523e-10
3.53544e-09
-4.44181e-10
3.67697e-09
-4.35743e-10
3.81565e-09
-4.27028e-10
3.9514e-09
-4.18079e-10
4.08417e-09
-4.08937e-10
4.21392e-09
-3.99643e-10
4.34062e-09
-3.90236e-10
4.46424e-09
-3.80751e-10
4.58479e-09
-3.71224e-10
4.70227e-09
-3.61688e-10
4.81668e-09
-3.52172e-10
4.92805e-09
-3.42705e-10
5.0364e-09
-3.33313e-10
5.14177e-09
-3.2402e-10
5.2442e-09
-3.14847e-10
5.34374e-09
-3.05813e-10
5.44043e-09
-2.96937e-10
5.53434e-09
-2.88232e-10
5.62552e-09
-2.79714e-10
5.71404e-09
-2.71393e-10
5.79995e-09
-2.63279e-10
5.88333e-09
-2.55382e-10
5.96424e-09
-2.47707e-10
6.04276e-09
-2.40262e-10
6.11894e-09
-2.33049e-10
6.19286e-09
-2.26073e-10
6.2646e-09
-2.19336e-10
6.33422e-09
-2.1284e-10
6.40178e-09
-2.06583e-10
6.46737e-09
-2.00568e-10
6.53104e-09
-1.94791e-10
6.59286e-09
-1.89253e-10
6.6529e-09
-1.83949e-10
6.71122e-09
-1.78879e-10
6.76789e-09
-1.74038e-10
6.82296e-09
-1.69423e-10
6.87649e-09
-1.6503e-10
6.92855e-09
-1.60855e-10
6.97919e-09
-1.56893e-10
7.02846e-09
-1.53139e-10
7.07641e-09
-1.49589e-10
7.12309e-09
-1.46237e-10
7.16856e-09
-1.43077e-10
7.21286e-09
-1.40105e-10
7.25604e-09
-1.37314e-10
7.29813e-09
-1.34699e-10
7.33919e-09
-1.32254e-10
7.37924e-09
-1.29973e-10
7.41834e-09
-1.2785e-10
7.4565e-09
-1.2588e-10
7.49378e-09
-1.24055e-10
7.5302e-09
-1.22371e-10
7.5658e-09
-1.20822e-10
7.6006e-09
-1.19401e-10
7.63464e-09
-1.18103e-10
7.66794e-09
-1.16922e-10
7.70053e-09
-1.15852e-10
7.73244e-09
-1.14889e-10
7.76369e-09
-1.14026e-10
7.7943e-09
-1.13259e-10
7.82429e-09
-1.12583e-10
7.8537e-09
-1.11992e-10
7.88253e-09
-1.11482e-10
7.91081e-09
-1.11049e-10
7.93855e-09
-1.10689e-10
7.96579e-09
-1.10396e-10
7.99252e-09
-1.10168e-10
8.01877e-09
-1.10001e-10
8.04456e-09
-1.09892e-10
8.06991e-09
-1.09836e-10
8.09481e-09
-1.09832e-10
8.1193e-09
-1.09876e-10
8.14339e-09
-1.09967e-10
8.16709e-09
-1.101e-10
8.1904e-09
-1.10275e-10
8.21336e-09
-1.10488e-10
8.23596e-09
-1.10738e-10
8.25822e-09
-1.11024e-10
8.28015e-09
-1.11342e-10
8.30176e-09
-1.11692e-10
8.32306e-09
-1.12071e-10
8.34406e-09
-1.12477e-10
8.36477e-09
-1.1291e-10
8.3852e-09
-1.13366e-10
8.40535e-09
-1.13843e-10
8.42523e-09
-1.14339e-10
8.44485e-09
-1.14851e-10
8.4642e-09
-1.15375e-10
8.4833e-09
-1.15908e-10
8.50214e-09
-1.16443e-10
8.52071e-09
-1.16974e-10
8.53903e-09
-1.17494e-10
8.55707e-09
-1.17993e-10
8.57482e-09
-1.18456e-10
8.59228e-09
-1.18867e-10
8.6094e-09
-1.19202e-10
8.62617e-09
-1.19432e-10
8.64252e-09
-1.19514e-10
8.65841e-09
-1.19393e-10
8.67375e-09
-1.18996e-10
8.68841e-09
-1.18226e-10
8.70215e-09
-1.16939e-10
8.71458e-09
-1.14872e-10
8.72512e-09
-1.11496e-10
8.73309e-09