/*--------------------------------*- C++ -*----------------------------------*\
  =========                 |
  \\      /  F ield         | OpenFOAM: The Open Source CFD Toolbox
   \\    /   O peration     | Website:  https://openfoam.org
    \\  /    A nd           | Version:  10
     \\/     M anipulation  |
\*---------------------------------------------------------------------------*/
FoamFile
{
    format      ascii;
    class       volVectorField;
    location    "2.42";
    object      Ub;
}
// * * * * * * * * * * * * * * * * * * * * * * * * * * * * * * * * * * * * * //

dimensions      [0 1 -1 0 0 0 0];

internalField   nonuniform List<vector> 
12225
(
(0.00228688 -0.000461799 0)
(0.00652875 -0.000411336 0)
(0.0100266 -0.000338352 0)
(0.0127302 -0.000265384 0)
(0.0147469 -0.000204159 0)
(0.0162382 -0.000158076 0)
(0.0173599 -0.000126346 0)
(0.0182407 -0.000106855 0)
(0.0189804 -9.76191e-05 0)
(0.0196568 -9.74202e-05 0)
(0.0203342 -0.000106142 0)
(0.0210737 -0.000125201 0)
(0.0219456 -0.000158521 0)
(0.0230492 -0.000215087 0)
(0.0245583 -0.000316405 0)
(0.0268479 -0.00052307 0)
(0.0309928 -0.00106074 0)
(0.0415898 -0.00316674 0)
(0.00242073 -0.00144733 0)
(0.00690259 -0.0012873 0)
(0.010581 -0.00105666 0)
(0.0134067 -0.000826769 0)
(0.0155003 -0.000634395 0)
(0.0170374 -0.000489936 0)
(0.0181857 -0.000390671 0)
(0.0190819 -0.000329801 0)
(0.0198315 -0.000300995 0)
(0.0205158 -0.000300348 0)
(0.0212015 -0.000327387 0)
(0.0219509 -0.000386347 0)
(0.0228345 -0.000489052 0)
(0.0239491 -0.000662312 0)
(0.0254549 -0.000968786 0)
(0.0276588 -0.00157571 0)
(0.0311838 -0.00303356 0)
(0.0365469 -0.00770156 0)
(0.00252482 -0.00255642 0)
(0.0071874 -0.00226831 0)
(0.0109895 -0.0018556 0)
(0.0138871 -0.00144644 0)
(0.0160161 -0.00110565 0)
(0.0175669 -0.000850767 0)
(0.018717 -0.0006762 0)
(0.0196095 -0.000569433 0)
(0.0203529 -0.000518964 0)
(0.0210299 -0.000517637 0)
(0.0217074 -0.000564274 0)
(0.022446 -0.000665667 0)
(0.0233117 -0.000841059 0)
(0.0243895 -0.00113326 0)
(0.0258042 -0.00163788 0)
(0.027742 -0.00258741 0)
(0.0303695 -0.0046134 0)
(0.0328552 -0.00952697 0)
(0.00263179 -0.00379559 0)
(0.00747408 -0.00335686 0)
(0.0113866 -0.00273373 0)
(0.0143353 -0.00212071 0)
(0.0164777 -0.00161356 0)
(0.0180223 -0.00123634 0)
(0.0191578 -0.000979141 0)
(0.0200327 -0.000822336 0)
(0.020758 -0.000748237 0)
(0.0214162 -0.000745716 0)
(0.0220726 -0.000812294 0)
(0.0227842 -0.000956562 0)
(0.0236087 -0.00120356 0)
(0.0246123 -0.0016075 0)
(0.0258735 -0.00228196 0)
(0.0274566 -0.00347202 0)
(0.0292382 -0.00571293 0)
(0.0301951 -0.0100118 0)
(0.00275529 -0.00518294 0)
(0.00779881 -0.00456375 0)
(0.0118219 -0.0036944 0)
(0.0148076 -0.00284827 0)
(0.0169441 -0.00215469 0)
(0.0184635 -0.00164267 0)
(0.0195676 -0.00129559 0)
(0.020411 -0.00108484 0)
(0.0211057 -0.000985216 0)
(0.0217333 -0.000980664 0)
(0.0223559 -0.00106653 0)
(0.0230247 -0.00125193 0)
(0.0237862 -0.00156507 0)
(0.0246847 -0.00206505 0)
(0.0257518 -0.00286635 0)
(0.0269588 -0.00418389 0)
(0.0280559 -0.00638519 0)
(0.028215 -0.0098763 0)
(0.00290662 -0.0067457 0)
(0.00818981 -0.0059049 0)
(0.0123305 -0.00474244 0)
(0.0153394 -0.00362725 0)
(0.0174485 -0.00272427 0)
(0.018921 -0.00206423 0)
(0.0199751 -0.00162022 0)
(0.0207709 -0.001352 0)
(0.0214214 -0.00122512 0)
(0.0220056 -0.00121741 0)
(0.022581 -0.00132084 0)
(0.0231913 -0.00154337 0)
(0.0238705 -0.00191305 0)
(0.0246406 -0.00248681 0)
(0.0254946 -0.00336537 0)
(0.0263487 -0.0047098 0)
(0.0269363 -0.00672448 0)
(0.026689 -0.00947237 0)
(0.00309887 -0.00852231 0)
(0.008678 -0.00740138 0)
(0.0129472 -0.00588287 0)
(0.0159621 -0.00445361 0)
(0.0180171 -0.00331478 0)
(0.0194166 -0.00249295 0)
(0.0203981 -0.00194552 0)
(0.0211281 -0.00161701 0)
(0.0217188 -0.00146157 0)
(0.0222456 -0.00144939 0)
(0.0227599 -0.0015677 0)
(0.0232969 -0.00182129 0)
(0.0238778 -0.00223457 0)
(0.0245051 -0.00285609 0)
(0.0251454 -0.0037634 0)
(0.0256939 -0.00505854 0)
(0.025922 -0.00682248 0)
(0.025477 -0.00896379 0)
(0.00334972 -0.0105671 0)
(0.00930326 -0.00908025 0)
(0.0137134 -0.00711944 0)
(0.0167094 -0.00531928 0)
(0.0186749 -0.00391437 0)
(0.0199683 -0.00291704 0)
(0.0208502 -0.00226098 0)
(0.0214929 -0.0018707 0)
(0.0220064 -0.00168621 0)
(0.0224608 -0.00166837 0)
(0.0229002 -0.00179815 0)
(0.0233506 -0.00207515 0)
(0.0238213 -0.00251709 0)
(0.0243 -0.00315981 0)
(0.0247399 -0.00405422 0)
(0.0250381 -0.00525073 0)
(0.0250224 -0.00675271 0)
(0.0244902 -0.00842291 0)
(0.0036851 -0.0129582 0)
(0.0101216 -0.0109755 0)
(0.0146828 -0.00845215 0)
(0.0176209 -0.00620927 0)
(0.0194482 -0.00450466 0)
(0.0205932 -0.00331949 0)
(0.0213425 -0.00255216 0)
(0.0218729 -0.00210089 0)
(0.0222899 -0.00188836 0)
(0.022656 -0.0018643 0)
(0.0230071 -0.00200194 0)
(0.0233596 -0.00229397 0)
(0.0237129 -0.00274926 0)
(0.0240452 -0.00338901 0)
(0.024306 -0.0042389 0)
(0.0244077 -0.00531099 0)
(0.0242317 -0.00656847 0)
(0.02367 -0.00787949 0)
(0.0041454 -0.0158115 0)
(0.011216 -0.0131287 0)
(0.0159281 -0.00987236 0)
(0.018745 -0.00709692 0)
(0.0203655 -0.00505753 0)
(0.0213071 -0.00367619 0)
(0.0218839 -0.00279962 0)
(0.0222732 -0.00229185 0)
(0.0225726 -0.00205477 0)
(0.0228345 -0.00202529 0)
(0.0230848 -0.00216774 0)
(0.0233309 -0.0024668 0)
(0.0235641 -0.00292147 0)
(0.0237578 -0.0035386 0)
(0.0238646 -0.00432327 0)
(0.0238167 -0.00526302 0)
(0.0235379 -0.00630601 0)
(0.0229761 -0.00734402 0)
(0.00479677 -0.0193048 0)
(0.0127151 -0.0155867 0)
(0.017551 -0.0113533 0)
(0.0201413 -0.00793629 0)
(0.0214571 -0.00553052 0)
(0.0221241 -0.00395347 0)
(0.0224802 -0.00297766 0)
(0.0226962 -0.00242374 0)
(0.0228557 -0.00216945 0)
(0.0229977 -0.00213773 0)
(0.0231365 -0.00228351 0)
(0.0232706 -0.00258314 0)
(0.0233851 -0.00302604 0)
(0.0234518 -0.00360676 0)
(0.0234301 -0.0043156 0)
(0.0232705 -0.00512711 0)
(0.0229275 -0.00598882 0)
(0.0223796 -0.00681859 0)
(0.0056826 -0.0233007 0)
(0.0146724 -0.0181486 0)
(0.0195429 -0.0127205 0)
(0.0217634 -0.00860739 0)
(0.0226695 -0.00584827 0)
(0.0229988 -0.00410464 0)
(0.0230989 -0.00305619 0)
(0.023122 -0.0024755 0)
(0.0231313 -0.00221608 0)
(0.0231489 -0.00218792 0)
(0.0231768 -0.00233764 0)
(0.0232048 -0.0026345 0)
(0.0232135 -0.00306027 0)
(0.0231752 -0.00360069 0)
(0.0230559 -0.00423735 0)
(0.0228198 -0.00493993 0)
(0.0224396 -0.00566139 0)
(0.0219085 -0.0063407 0)
(0.0069286 -0.0284275 0)
(0.0172961 -0.0209842 0)
(0.0220186 -0.0139541 0)
(0.0236488 -0.00905279 0)
(0.0240003 -0.00596013 0)
(0.0239109 -0.00409249 0)
(0.0237114 -0.00300912 0)
(0.0235185 -0.00242905 0)
(0.0233652 -0.00218224 0)
(0.0232523 -0.00216758 0)
(0.0231678 -0.00232517 0)
(0.0230928 -0.00261896 0)
(0.023004 -0.00302525 0)
(0.0228747 -0.00352424 0)
(0.0226767 -0.00409335 0)
(0.0223849 -0.00470232 0)
(0.0219838 -0.00531166 0)
(0.0214734 -0.00587659 0)
(0.0091787 -0.0364404 0)
(0.0217324 -0.0244655 0)
(0.0257843 -0.0149689 0)
(0.0262808 -0.00911933 0)
(0.0257401 -0.0057378 0)
(0.0250434 -0.00382274 0)
(0.0244387 -0.00276905 0)
(0.0239676 -0.00223605 0)
(0.0236129 -0.00203285 0)
(0.0233441 -0.00205077 0)
(0.0231303 -0.00222628 0)
(0.0229422 -0.00252035 0)
(0.0227522 -0.00290613 0)
(0.0225342 -0.00336104 0)
(0.0222655 -0.00386166 0)
(0.0219286 -0.00438086 0)
(0.0215152 -0.00488796 0)
(0.0210285 -0.005352 0)
(0.0137783 -0.0504426 0)
(0.0299664 -0.0280125 0)
(0.0316883 -0.014878 0)
(0.0299148 -0.00820721 0)
(0.0279308 -0.00481877 0)
(0.0263733 -0.00307377 0)
(0.0252425 -0.00219341 0)
(0.0244315 -0.00179876 0)
(0.0238414 -0.00169623 0)
(0.0233972 -0.00178153 0)
(0.0230438 -0.00199507 0)
(0.0227392 -0.0023 0)
(0.0224506 -0.00267049 0)
(0.022152 -0.00308503 0)
(0.0218238 -0.00352277 0)
(0.0214532 -0.00396213 0)
(0.0210355 -0.00438134 0)
(0.0205738 -0.00476054 0)
(0.0249421 -0.0794738 0)
(0.047292 -0.0275028 0)
(0.0409097 -0.0110984 0)
(0.0345552 -0.00508462 0)
(0.0303721 -0.0026029 0)
(0.0277129 -0.00152622 0)
(0.0259791 -0.00109406 0)
(0.0248045 -0.000995121 0)
(0.0239739 -0.00108629 0)
(0.0233568 -0.00129489 0)
(0.0228704 -0.00158005 0)
(0.0224591 -0.00191619 0)
(0.0220842 -0.00228478 0)
(0.0217188 -0.0026701 0)
(0.0213449 -0.00305735 0)
(0.0209518 -0.00343218 0)
(0.0205358 -0.00378125 0)
(0.0200986 -0.00409342 0)
(0.0591929 0.00054907 0)
(0.0904928 0.00302117 0)
(0.0528179 0.00255203 0)
(0.0387214 0.00199171 0)
(0.0321455 0.00151621 0)
(0.0285502 0.00108641 0)
(0.0263608 0.0006752 0)
(0.0249203 0.000270674 0)
(0.023911 -0.000131901 0)
(0.0231607 -0.000533347 0)
(0.0225667 -0.000931185 0)
(0.0220656 -0.00132591 0)
(0.0216179 -0.00171329 0)
(0.0211977 -0.00208797 0)
(0.0207886 -0.00244392 0)
(0.0203811 -0.00277493 0)
(0.019971 -0.00307533 0)
(0.0195583 -0.0033407 0)
(0.0204964 0.0761537 0)
(0.0405053 0.031986 0)
(0.0373427 0.016362 0)
(0.0325384 0.00960964 0)
(0.0289486 0.00615408 0)
(0.0264974 0.00412153 0)
(0.0248178 0.00278083 0)
(0.0236315 0.00180988 0)
(0.0227584 0.00105259 0)
(0.0220852 0.000428271 0)
(0.0215409 -0.000105901 0)
(0.0210779 -0.000576017 0)
(0.0206626 -0.000995215 0)
(0.0202741 -0.00137386 0)
(0.0199006 -0.00171529 0)
(0.0195355 -0.00202092 0)
(0.0191755 -0.00229142 0)
(0.01882 -0.00252735 0)
(0.00782253 0.0404055 0)
(0.0187316 0.027919 0)
(0.0226178 0.0185495 0)
(0.023377 0.0125312 0)
(0.0230488 0.00868235 0)
(0.0224375 0.00613296 0)
(0.0218188 0.00436447 0)
(0.021269 0.00307844 0)
(0.0207952 0.00210139 0)
(0.020384 0.00133006 0)
(0.0200189 0.000701497 0)
(0.0196858 0.000178099 0)
(0.0193754 -0.000264789 0)
(0.0190791 -0.000644161 0)
(0.0187901 -0.000972836 0)
(0.0185054 -0.00125846 0)
(0.018224 -0.00150603 0)
(0.0179458 -0.00171943 0)
(0.00425166 0.024534 0)
(0.0111744 0.0202919 0)
(0.0152741 0.0156363 0)
(0.0174006 0.011751 0)
(0.0184099 0.008775 0)
(0.0188368 0.00654826 0)
(0.0189697 0.00487747 0)
(0.0189546 0.00360532 0)
(0.0188632 0.00261752 0)
(0.0187303 0.00183444 0)
(0.0185725 0.00120131 0)
(0.018398 0.000680497 0)
(0.0182111 0.000245967 0)
(0.0180158 -0.000118127 0)
(0.0178142 -0.000425243 0)
(0.0176069 -0.000687339 0)
(0.0173954 -0.000911692 0)
(0.0171815 -0.0011036 0)
(0.00292541 0.017307 0)
(0.00803434 0.0152272 0)
(0.0116673 0.0125287 0)
(0.0140265 0.00995526 0)
(0.015492 0.00777271 0)
(0.0163819 0.00601098 0)
(0.0169114 0.00461447 0)
(0.0172148 0.00350978 0)
(0.0173732 0.00263044 0)
(0.0174353 0.00192319 0)
(0.0174312 0.00134759 0)
(0.0173796 0.000873652 0)
(0.017293 0.000479336 0)
(0.0171801 0.000148436 0)
(0.0170483 -0.000129002 0)
(0.0169028 -0.000362706 0)
(0.0167463 -0.000561852 0)
(0.0165822 -0.0007317 0)
(0.00226867 0.0127698 0)
(0.0063767 0.0115756 0)
(0.00957666 0.00987967 0)
(0.0118957 0.00812583 0)
(0.0135132 0.00653592 0)
(0.0146197 0.00518326 0)
(0.0153676 0.00406696 0)
(0.015866 0.00315718 0)
(0.0161897 0.00241744 0)
(0.0163889 0.00181392 0)
(0.0164977 0.00131841 0)
(0.0165396 0.0009085 0)
(0.0165313 0.000566859 0)
(0.0164848 0.000280192 0)
(0.0164094 3.84891e-05 0)
(0.0163127 -0.000164043 0)
(0.0162001 -0.000335702 0)
(0.0160753 -0.000481985 0)
(0.0018978 0.00960789 0)
(0.00540458 0.00885293 0)
(0.00827931 0.00772286 0)
(0.0104974 0.00649335 0)
(0.0121483 0.00532856 0)
(0.0133519 0.004301 0)
(0.0142176 0.0034282 0)
(0.0148327 0.00270092 0)
(0.0152624 0.0020997 0)
(0.0155542 0.00160333 0)
(0.0157425 0.00119246 0)
(0.0158523 0.000850795 0)
(0.0159021 0.00056516 0)
(0.0159057 0.000325103 0)
(0.0158739 0.000122407 0)
(0.0158152 -4.85708e-05 0)
(0.0157363 -0.000192347 0)
(0.0156418 -0.000314911 0)
(0.0016686 0.00725463 0)
(0.00478939 0.00675016 0)
(0.00742757 0.00596984 0)
(0.00954292 0.00509258 0)
(0.0111819 0.00423667 0)
(0.0124242 0.0034625 0)
(0.0133518 0.00279139 0)
(0.0140353 0.00222307 0)
(0.0145317 0.0017474 0)
(0.0148845 0.00135102 0)
(0.0151272 0.00102071 0)
(0.0152848 0.000744742 0)
(0.0153766 0.000513307 0)
(0.0154171 0.000318404 0)
(0.0154179 0.00015362 0)
(0.0153879 1.38973e-05 0)
(0.0153345 -0.000103397 0)
(0.0152633 -0.00020322 0)
(0.00151709 0.00542598 0)
(0.00437608 0.00507995 0)
(0.0068402 0.00453301 0)
(0.00886514 0.00390472 0)
(0.0104753 0.00327941 0)
(0.011727 0.00270401 0)
(0.0126842 0.00219802 0)
(0.0134063 0.00176455 0)
(0.0139433 0.00139842 0)
(0.0143354 0.00109117 0)
(0.0146144 0.000833788 0)
(0.0148051 0.000617915 0)
(0.0149265 0.000436363 0)
(0.0149937 0.000283158 0)
(0.0150184 0.000153427 0)
(0.0150099 4.32296e-05 0)
(0.0149759 -4.97475e-05 0)
(0.0149223 -0.000128511 0)
(0.0014109 0.00396335 0)
(0.00408278 0.0037257 0)
(0.00641463 0.00334446 0)
(0.00836188 0.00290016 0)
(0.00993695 0.002452 0)
(0.0111822 0.00203471 0)
(0.0121499 0.0016641 0)
(0.0128914 0.00134398 0)
(0.0134516 0.0010718 0)
(0.0138679 0.000842207 0)
(0.0141705 0.000649089 0)
(0.0143833 0.000486613 0)
(0.0145253 0.000349641 0)
(0.0146115 0.000233839 0)
(0.0146537 0.000135636 0)
(0.0146612 5.21192e-05 0)
(0.0146419 -1.87311e-05 0)
(0.0146018 -7.84804e-05 0)
(0.00133159 0.00277087 0)
(0.00386131 0.00261187 0)
(0.00608725 0.00235414 0)
(0.00796584 0.00205087 0)
(0.00950279 0.00174219 0)
(0.0107318 0.00145248 0)
(0.0116975 0.00119338 0)
(0.0124455 0.000968301 0)
(0.0130168 0.000776019 0)
(0.0134465 0.000613195 0)
(0.0137634 0.000475815 0)
(0.0139905 0.000359944 0)
(0.0141465 0.000262065 0)
(0.0142461 0.000179177 0)
(0.014301 0.000108787 0)
(0.0143206 4.88473e-05 0)
(0.0143125 -2.23403e-06 0)
(0.0142829 -4.51424e-05 0)
(0.00126695 0.00178714 0)
(0.00367893 0.00168776 0)
(0.0058127 0.0015255 0)
(0.00762614 0.00133333 0)
(0.00912119 0.00113656 0)
(0.010326 0.000950889 0)
(0.0112801 0.000784061 0)
(0.0120248 0.00063855 0)
(0.0125982 0.000513822 0)
(0.0130334 0.000407901 0)
(0.0133577 0.000318318 0)
(0.0135934 0.000242608 0)
(0.0137585 0.000178544 0)
(0.0138675 0.00012421 0)
(0.0139317 7.80059e-05 0)
(0.0139605 3.86114e-05 0)
(0.0139613 4.94213e-06 0)
(0.0139402 -2.33054e-05 0)
(0.00120611 0.00097177 0)
(0.00350545 0.000918943 0)
(0.00554683 0.000832232 0)
(0.00728988 0.000729109 0)
(0.00873447 0.000623111 0)
(0.00990506 0.000522734 0)
(0.0108373 0.000432261 0)
(0.0115693 0.00035313 0)
(0.0121366 0.000285135 0)
(0.0125703 0.000227268 0)
(0.0128962 0.000178235 0)
(0.0131359 0.000136725 0)
(0.0133064 0.000101547 0)
(0.0134217 7.16698e-05 0)
(0.013493 4.62295e-05 0)
(0.0135292 2.45107e-05 0)
(0.0135376 5.92424e-06 0)
(0.0135241 -9.66998e-06 0)
(0.00112771 0.000301079 0)
(0.00327968 0.000284936 0)
(0.00519497 0.000258354 0)
(0.00683582 0.000226668 0)
(0.00820102 0.00019403 0)
(0.00931206 0.000163061 0)
(0.0102011 0.000135098 0)
(0.0109027 0.0001106 0)
(0.0114495 8.95179e-05 0)
(0.0118702 7.15518e-05 0)
(0.012189 5.63088e-05 0)
(0.0124258 4.33897e-05 0)
(0.0125967 3.2429e-05 0)
(0.0127147 2.31102e-05 0)
(0.0127904 1.51672e-05 0)
(0.0128322 8.37929e-06 0)
(0.012847 2.56467e-06 0)
(0.0128407 -2.30438e-06 0)
(7.79959e-05 -0.000184203 -2.37984e-30)
(0.000234653 -0.00018398 2.37511e-30)
(0.000392354 -0.000183599 0)
(0.000550963 -0.000183057 0)
(0.00071034 -0.00018235 0)
(0.000870335 -0.000181473 -2.33521e-30)
(0.0010308 -0.000180427 0)
(0.00119156 -0.000179209 0)
(0.00135248 -0.000177822 0)
(0.00151338 -0.000176269 0)
(0.00167412 -0.000174556 2.23632e-30)
(0.00183454 -0.000172689 0)
(0.0019945 -0.000170681 0)
(0.00215387 -0.000168545 0)
(0.00231254 -0.0001663 0)
(0.00247041 -0.000163968 2.09008e-30)
(0.00262742 -0.000161578 0)
(0.00278354 -0.000159163 0)
(0.00293881 -0.000156763 0)
(0.00309328 -0.000154421 0)
(0.00324709 -0.000152184 0)
(0.00340043 -0.000150099 0)
(0.00355356 -0.000148208 0)
(0.00370681 -0.00014655 1.85036e-30)
(0.00386054 -0.000145158 -1.83055e-30)
(0.00401521 -0.000144058 1.81451e-30)
(0.0041713 -0.00014327 1.80248e-30)
(0.00432934 -0.000142811 0)
(0.0044899 -0.000142692 0)
(0.00465361 -0.000142924 -1.79231e-30)
(0.0048211 -0.000143515 -1.79798e-30)
(0.00499303 -0.000144472 0)
(0.00517007 -0.000145795 0)
(0.00535284 -0.000147476 -1.84289e-30)
(0.00554188 -0.000149493 0)
(0.00573761 -0.000151809 0)
(0.00594025 -0.000154372 1.92508e-30)
(0.0061498 -0.000157118 0)
(0.00636604 -0.000159994 1.99273e-30)
(0.00658854 -0.000162972 4.05717e-30)
(0.00681685 -0.000166073 0)
(0.00705058 -0.000169392 0)
(0.00728959 -0.000173108 0)
(0.00753421 -0.000177485 0)
(0.00778529 -0.000182877 0)
(0.00804438 -0.000189729 4.71446e-30)
(0.00831381 -0.000198593 4.93722e-30)
(0.0085968 -0.000210164 5.22963e-30)
(0.00889762 -0.000225346 0)
(0.00922176 -0.000245353 -6.12451e-30)
(0.00957619 -0.000271822 0)
(0.00996914 -0.000306875 7.69716e-30)
(0.0104082 -0.000352749 8.8726e-30)
(0.0108902 -0.000409595 0)
(0.0113434 -0.000466033 0)
(0.0107894 -0.000455071 0)
(0.00502116 -2.16092e-05 4.40039e-31)
(3.57795e-06 -1.63395e-09 0)
(1.81198e-21 -8.27478e-25 0)
(8.681e-32 2.22061e-33 0)
(8.36474e-32 1.58156e-33 0)
(8.12363e-32 1.21358e-33 0)
(7.9272e-32 9.82077e-34 0)
(7.75971e-32 8.24178e-34 0)
(7.61248e-32 7.08681e-34 0)
(7.48039e-32 6.19213e-34 1.77723e-59)
(7.36024e-32 5.46719e-34 0)
(7.24991e-32 4.85939e-34 0)
(7.14791e-32 4.33661e-34 -1.28974e-59)
(7.05316e-32 3.87835e-34 -1.16905e-59)
(6.96483e-32 3.47094e-34 0)
(6.88226e-32 3.10485e-34 9.6507e-60)
(6.8049e-32 2.7732e-34 -8.77515e-60)
(6.73231e-32 2.47083e-34 0)
(6.6641e-32 2.19377e-34 7.24411e-60)
(6.59994e-32 1.93884e-34 0)
(6.53954e-32 1.70349e-34 0)
(6.48263e-32 1.4856e-34 -5.37067e-60)
(6.42899e-32 1.28338e-34 0)
(6.37841e-32 1.09532e-34 4.33723e-60)
(6.3307e-32 9.20126e-35 0)
(6.28567e-32 7.56664e-35 -3.43994e-60)
(6.24319e-32 6.03952e-35 -3.03515e-60)
(6.20309e-32 4.61127e-35 -2.65649e-60)
(6.16526e-32 3.27423e-35 -4.60387e-60)
(6.12955e-32 2.02161e-35 3.93945e-60)
(6.09585e-32 8.47347e-36 0)
(6.06406e-32 -2.54031e-36 0)
(6.03408e-32 -1.28745e-35 0)
(6.0058e-32 -2.25737e-35 1.66881e-60)
(5.97914e-32 -3.16789e-35 1.18551e-60)
(5.95402e-32 -4.02272e-35 -7.31695e-61)
(5.93034e-32 -4.82531e-35 0)
(5.90804e-32 -5.57881e-35 -9.44984e-62)
(5.88705e-32 -6.28617e-35 -4.70078e-61)
(5.86729e-32 -6.9501e-35 -8.22652e-61)
(5.84871e-32 -7.57315e-35 0)
(5.83123e-32 -8.15768e-35 0)
(5.8148e-32 -8.70594e-35 0)
(5.79937e-32 -9.21999e-35 -2.02823e-60)
(5.78488e-32 -9.70181e-35 0)
(5.77128e-32 -1.01532e-34 0)
(5.75852e-32 -1.0576e-34 2.7486e-60)
(5.74656e-32 -1.09718e-34 0)
(5.73535e-32 -1.13422e-34 0)
(5.72485e-32 -1.16885e-34 3.33964e-60)
(5.71502e-32 -1.20123e-34 0)
(5.70582e-32 -1.23149e-34 0)
(5.69723e-32 -1.25974e-34 -3.82256e-60)
(5.68919e-32 -1.28611e-34 -3.96268e-60)
(5.68168e-32 -1.31071e-34 0)
(5.67468e-32 -1.33364e-34 4.21526e-60)
(5.66814e-32 -1.35501e-34 0)
(5.66205e-32 -1.37492e-34 -4.43461e-60)
(5.65637e-32 -1.39344e-34 0)
(5.65108e-32 -1.41067e-34 -4.6246e-60)
(5.64616e-32 -1.42668e-34 -4.70975e-60)
(5.64158e-32 -1.44156e-34 0)
(5.63733e-32 -1.45537e-34 0)
(5.63337e-32 -1.46819e-34 0)
(5.6297e-32 -1.48008e-34 0)
(5.6263e-32 -1.49109e-34 0)
(5.62314e-32 -1.50129e-34 0)
(5.62022e-32 -1.51073e-34 0)
(5.61751e-32 -1.51946e-34 -5.20288e-60)
(5.615e-32 -1.52752e-34 5.2458e-60)
(5.61268e-32 -1.53497e-34 0)
(5.61054e-32 -1.54185e-34 0)
(5.60856e-32 -1.54819e-34 0)
(5.60673e-32 -1.55404e-34 0)
(5.60505e-32 -1.55942e-34 1.08308e-59)
(5.6035e-32 -1.56437e-34 0)
(5.60207e-32 -1.56893e-34 -1.09319e-59)
(5.60075e-32 -1.57311e-34 1.09764e-59)
(5.59954e-32 -1.57696e-34 0)
(5.59843e-32 -1.58048e-34 0)
(5.5974e-32 -1.58371e-34 0)
(5.59646e-32 -1.58666e-34 -1.11205e-59)
(5.5956e-32 -1.58936e-34 -1.11493e-59)
(5.59481e-32 -1.59183e-34 0)
(5.59409e-32 -1.59408e-34 -1.11995e-59)
(5.59342e-32 -1.59613e-34 -1.12213e-59)
(5.59281e-32 -1.59799e-34 1.12411e-59)
(5.59225e-32 -1.59967e-34 0)
(5.59174e-32 -1.60119e-34 0)
(5.59127e-32 -1.60255e-34 1.12897e-59)
(5.59083e-32 -1.60376e-34 0)
(5.59043e-32 -1.60484e-34 0)
(5.59006e-32 -1.60578e-34 0)
(5.58972e-32 -1.60658e-34 0)
(5.5894e-32 -1.60726e-34 -1.13402e-59)
(5.58909e-32 -1.60779e-34 -1.1346e-59)
(5.5888e-32 -1.60819e-34 0)
(5.58852e-32 -1.60843e-34 -1.13531e-59)
(5.58824e-32 -1.6085e-34 0)
(5.58795e-32 -1.60838e-34 0)
(5.58766e-32 -1.60805e-34 -1.135e-59)
(5.58735e-32 -1.60746e-34 0)
(5.587e-32 -1.60655e-34 -1.13352e-59)
(5.58661e-32 -1.60528e-34 0)
(5.58617e-32 -1.60353e-34 0)
(5.58564e-32 -1.60121e-34 -1.12812e-59)
(5.585e-32 -1.59815e-34 0)
(5.58423e-32 -1.59417e-34 -1.12097e-59)
(5.58326e-32 -1.58899e-34 0)
(5.58206e-32 -1.58226e-34 0)
(5.58054e-32 -1.57353e-34 0)
(5.57861e-32 -1.56216e-34 1.0884e-59)
(5.57613e-32 -1.54727e-34 0)
(5.57293e-32 -1.52765e-34 -1.05326e-59)
(5.56876e-32 -1.50155e-34 0)
(5.56328e-32 -1.46642e-34 0)
(5.55601e-32 -1.41831e-34 0)
(5.54624e-32 -1.35096e-34 0)
(5.53287e-32 -1.25361e-34 0)
(5.51411e-32 -1.10636e-34 0)
(5.48678e-32 -8.6757e-35 0)
(5.44445e-32 -4.34014e-35 -1.30796e-60)
(5.37086e-32 5.25293e-35 0)
(5.20777e-32 3.5334e-34 0)
(9.84258e-05 -0.000584537 7.55146e-30)
(0.00029613 -0.00058392 -7.53648e-30)
(0.000495195 -0.000582806 0)
(0.000695467 -0.000581186 1.49904e-29)
(0.000896788 -0.000579052 0)
(0.001099 -0.000576402 -7.43684e-30)
(0.00130194 -0.000573245 -1.47565e-29)
(0.0015055 -0.000569597 -1.46526e-29)
(0.00170955 -0.000565477 0)
(0.001914 -0.000560913 -1.44088e-29)
(0.00211881 -0.000555932 7.16023e-30)
(0.00232391 -0.000550568 0)
(0.00252928 -0.000544858 0)
(0.00273491 -0.000538843 0)
(0.00294078 -0.000532567 0)
(0.0031469 -0.000526081 6.76229e-30)
(0.00335322 -0.000519438 0)
(0.00355972 -0.000512699 1.30848e-29)
(0.0037663 -0.000505925 0)
(0.00397284 -0.000499185 0)
(0.00417915 -0.000492545 -1.25346e-29)
(0.004385 -0.000486076 0)
(0.00459008 -0.000479843 1.21869e-29)
(0.00479409 -0.000473912 6.06857e-30)
(0.00499667 -0.000468343 -5.99421e-30)
(0.00519747 -0.000463198 5.92533e-30)
(0.00539617 -0.000458533 5.8627e-30)
(0.00559246 -0.000454409 0)
(0.00578611 -0.000450888 0)
(0.00597693 -0.000448032 -5.72012e-30)
(0.0061648 -0.000445906 -1.69257e-29)
(0.00634967 -0.00044457 0)
(0.00653159 -0.000444077 0)
(0.00671066 -0.000444466 -5.66537e-30)
(0.00688707 -0.000445758 0)
(0.00706112 -0.000447952 0)
(0.0072332 -0.000451034 5.74409e-30)
(0.00740386 -0.000454986 0)
(0.00757378 -0.000459818 1.7382e-29)
(0.00774384 -0.0004656 1.18527e-29)
(0.00791508 -0.000472506 0)
(0.00808874 -0.000480847 0)
(0.00826623 -0.0004911 -2.46086e-29)
(0.00844916 -0.00050393 -2.52546e-29)
(0.00863934 -0.000520203 -2.6078e-29)
(0.00883885 -0.000541021 4.09117e-29)
(0.00905009 -0.000567778 1.44631e-29)
(0.00927589 -0.000602277 -1.49115e-29)
(0.00951965 -0.000646913 3.25456e-29)
(0.00978556 -0.000704988 -1.79925e-29)
(0.0100789 -0.000781202 0)
(0.0104068 -0.000882448 2.2565e-29)
(0.0107795 -0.00101906 7.77534e-29)
(0.011214 -0.00120652 0)
(0.0117345 -0.00146564 0)
(0.0121701 -0.001787 0)
(0.00621529 -0.00117672 3.02708e-29)
(5.3168e-05 -7.28407e-08 0)
(3.43457e-16 -4.70539e-19 -8.10875e-45)
(8.43756e-32 5.98071e-33 0)
(8.23401e-32 4.605e-33 -2.45849e-58)
(8.04655e-32 3.7344e-33 0)
(7.87762e-32 3.14743e-33 1.70158e-58)
(7.72524e-32 2.72643e-33 0)
(7.58689e-32 2.40727e-33 -1.31618e-58)
(7.46036e-32 2.15382e-33 1.75831e-58)
(7.34391e-32 1.94496e-33 0)
(7.23618e-32 1.76783e-33 9.82283e-59)
(7.13611e-32 1.61431e-33 -4.34138e-59)
(7.04284e-32 1.47904e-33 -3.98951e-59)
(6.95569e-32 1.35835e-33 0)
(6.87409e-32 1.24962e-33 1.0502e-58)
(6.79754e-32 1.15095e-33 -3.13562e-59)
(6.72564e-32 1.06087e-33 0)
(6.65803e-32 9.78255e-34 2.68592e-59)
(6.5944e-32 9.02183e-34 5.28692e-59)
(6.53446e-32 8.31912e-34 0)
(6.47797e-32 7.66823e-34 -2.13513e-59)
(6.4247e-32 7.06394e-34 0)
(6.37445e-32 6.50178e-34 -2.13216e-59)
(6.32703e-32 5.97793e-34 0)
(6.28228e-32 5.48905e-34 1.86384e-59)
(6.24005e-32 5.03223e-34 -1.44812e-59)
(6.20018e-32 4.6049e-34 -4.30292e-59)
(6.16255e-32 4.20481e-34 -7.97643e-59)
(6.12703e-32 3.82992e-34 7.38662e-59)
(6.09352e-32 3.47845e-34 0)
(6.06189e-32 3.14875e-34 0)
(6.03206e-32 2.83937e-34 0)
(6.00392e-32 2.54898e-34 -2.16828e-59)
(5.97739e-32 2.27635e-34 1.45909e-59)
(5.95239e-32 2.02038e-34 -1.32557e-59)
(5.92883e-32 1.78004e-34 0)
(5.90663e-32 1.55439e-34 3.8053e-59)
(5.88574e-32 1.34255e-34 9.71997e-60)
(5.86607e-32 1.1437e-34 8.68269e-60)
(5.84757e-32 9.57098e-35 0)
(5.83017e-32 7.82022e-35 0)
(5.81382e-32 6.1781e-35 0)
(5.79846e-32 4.63837e-35 5.13594e-60)
(5.78403e-32 3.19518e-35 0)
(5.77049e-32 1.84298e-35 1.28045e-59)
(5.75779e-32 5.76555e-36 8.4543e-60)
(5.74588e-32 -6.09014e-36 -1.02228e-59)
(5.73472e-32 -1.71839e-35 0)
(5.72427e-32 -2.75597e-35 -9.24016e-60)
(5.71448e-32 -3.72593e-35 0)
(5.70532e-32 -4.63222e-35 -5.9863e-60)
(5.69676e-32 -5.47856e-35 4.95257e-60)
(5.68876e-32 -6.26851e-35 3.70855e-60)
(5.68129e-32 -7.00542e-35 0)
(5.67431e-32 -7.69246e-35 4.06107e-60)
(5.6678e-32 -8.33265e-35 -2.08923e-60)
(5.66174e-32 -8.92883e-35 -1.94271e-60)
(5.65608e-32 -9.4837e-35 0)
(5.65082e-32 -9.99982e-35 -2.50154e-60)
(5.64591e-32 -1.04796e-34 -2.57998e-60)
(5.64136e-32 -1.09253e-34 0)
(5.63712e-32 -1.13391e-34 1.07734e-60)
(5.63318e-32 -1.17231e-34 1.48177e-60)
(5.62953e-32 -1.20792e-34 1.85682e-60)
(5.62614e-32 -1.24091e-34 0)
(5.62299e-32 -1.27146e-34 0)
(5.62008e-32 -1.29974e-34 0)
(5.61738e-32 -1.32589e-34 -7.30181e-60)
(5.61489e-32 -1.35006e-34 4.32839e-60)
(5.61258e-32 -1.37238e-34 0)
(5.61044e-32 -1.39298e-34 -3.80642e-60)
(5.60847e-32 -1.41198e-34 -4.00658e-60)
(5.60666e-32 -1.42949e-34 0)
(5.60498e-32 -1.44562e-34 9.65421e-60)
(5.60343e-32 -1.46046e-34 -9.03471e-60)
(5.60201e-32 -1.47411e-34 -9.95155e-60)
(5.6007e-32 -1.48665e-34 1.9669e-59)
(5.59949e-32 -1.49816e-34 0)
(5.59838e-32 -1.50871e-34 0)
(5.59736e-32 -1.51839e-34 0)
(5.59643e-32 -1.52724e-34 -1.05062e-59)
(5.59557e-32 -1.53533e-34 -2.12035e-59)
(5.59478e-32 -1.54273e-34 -1.07686e-59)
(5.59406e-32 -1.54946e-34 -1.07382e-59)
(5.5934e-32 -1.5556e-34 -2.18422e-59)
(5.59279e-32 -1.56116e-34 1.08604e-59)
(5.59223e-32 -1.5662e-34 0)
(5.59172e-32 -1.57075e-34 0)
(5.59125e-32 -1.57483e-34 2.24491e-59)
(5.59082e-32 -1.57848e-34 0)
(5.59042e-32 -1.5817e-34 0)
(5.59005e-32 -1.58452e-34 -1.16507e-59)
(5.58971e-32 -1.58693e-34 0)
(5.58939e-32 -1.58895e-34 -2.28958e-59)
(5.58909e-32 -1.59056e-34 -1.11678e-59)
(5.5888e-32 -1.59174e-34 0)
(5.58852e-32 -1.59247e-34 -2.3009e-59)
(5.58824e-32 -1.59269e-34 0)
(5.58796e-32 -1.59235e-34 0)
(5.58767e-32 -1.59136e-34 -1.11774e-59)
(5.58735e-32 -1.58959e-34 -1.17658e-59)
(5.58701e-32 -1.58691e-34 -1.1132e-59)
(5.58663e-32 -1.5831e-34 0)
(5.58619e-32 -1.5779e-34 0)
(5.58567e-32 -1.57097e-34 -2.23555e-59)
(5.58504e-32 -1.56185e-34 0)
(5.58427e-32 -1.54995e-34 -2.17102e-59)
(5.58333e-32 -1.5345e-34 0)
(5.58214e-32 -1.51444e-34 0)
(5.58065e-32 -1.48839e-34 0)
(5.57874e-32 -1.45446e-34 9.77041e-60)
(5.5763e-32 -1.41008e-34 0)
(5.57315e-32 -1.35161e-34 -8.7122e-60)
(5.56906e-32 -1.2739e-34 0)
(5.56368e-32 -1.16935e-34 0)
(5.55657e-32 -1.0264e-34 -2.3568e-61)
(5.54702e-32 -8.2662e-35 -3.85969e-60)
(5.53402e-32 -5.38784e-35 0)
(5.5159e-32 -1.05681e-35 0)
(5.48987e-32 5.89446e-35 0)
(5.45078e-32 1.82292e-34 6.85823e-59)
(5.38868e-32 4.39613e-34 0)
(5.29071e-32 1.13283e-33 -5.08498e-58)
(0.000104937 -0.00102938 5.32054e-29)
(0.000315734 -0.0010284 -7.50949e-33)
(0.000527993 -0.00102651 0)
(0.000741514 -0.00102371 1.75616e-32)
(0.000956096 -0.00101999 0)
(0.00117153 -0.00101536 0)
(0.00138763 -0.00100984 -5.20438e-29)
(0.00160421 -0.00100349 -2.58639e-29)
(0.0018211 -0.000996363 2.56263e-29)
(0.00203815 -0.000988511 -2.54561e-29)
(0.00225526 -0.000980002 0)
(0.0024723 -0.000970903 0)
(0.00268919 -0.00096128 -2.46579e-29)
(0.00290585 -0.000951198 -4.8764e-29)
(0.00312221 -0.000940719 4.81916e-29)
(0.00333819 -0.000929902 0)
(0.00355372 -0.000918796 4.6997e-29)
(0.00376869 -0.000907443 2.32789e-29)
(0.00398297 -0.000895877 0)
(0.00419637 -0.000884126 4.51136e-29)
(0.00440865 -0.000872213 -2.2338e-29)
(0.00461952 -0.000860164 -4.38149e-29)
(0.00482864 -0.000848017 2.16927e-29)
(0.00503565 -0.000835823 0)
(0.00524017 -0.000823655 4.18395e-29)
(0.00544183 -0.000811608 4.11881e-29)
(0.00564033 -0.000799799 0)
(0.00583538 -0.000788366 3.99308e-29)
(0.00602681 -0.000777462 0)
(0.00621452 -0.000767251 3.87855e-29)
(0.00639846 -0.0007579 -1.92891e-29)
(0.00657872 -0.000749577 0)
(0.00675545 -0.000742442 0)
(0.00692887 -0.000736647 0)
(0.00709931 -0.000732336 0)
(0.00726719 -0.000729645 0)
(0.00743302 -0.00072872 0)
(0.00759742 -0.000729724 3.66495e-29)
(0.00776112 -0.000732865 -1.82111e-29)
(0.00792498 -0.000738422 0)
(0.00808998 -0.000746771 0)
(0.00825723 -0.000758426 0)
(0.00842794 -0.000774059 -7.80459e-29)
(0.00860346 -0.000794547 -4.02645e-29)
(0.00878525 -0.000821003 -4.14917e-31)
(0.00897489 -0.000854847 4.23871e-31)
(0.0091741 -0.000897895 -4.51204e-29)
(0.00938474 -0.000952512 -4.83574e-29)
(0.00960877 -0.00102184 1.03387e-28)
(0.00984812 -0.00111018 5.59999e-29)
(0.0101043 -0.00122359 0)
(0.0103774 -0.00137089 6.9403e-29)
(0.0106628 -0.00156542 1.59342e-28)
(0.0109411 -0.00182813 0)
(0.0111434 -0.00219146 0)
(0.0110028 -0.00267953 -1.36969e-28)
(0.00740568 -0.0024168 0)
(0.00200875 -5.64939e-06 0)
(7.16471e-08 -1.63596e-10 -1.69155e-36)
(1.32835e-30 5.4629e-33 -9.41185e-58)
(8.07337e-32 6.76339e-33 -3.57283e-58)
(7.93634e-32 5.77646e-33 0)
(7.79892e-32 5.03662e-33 2.67752e-58)
(7.66642e-32 4.4615e-33 0)
(7.541e-32 3.99935e-33 -6.48768e-58)
(7.42322e-32 3.61703e-33 1.94006e-58)
(7.31295e-32 3.29296e-33 3.61202e-58)
(7.20977e-32 3.0128e-33 4.94508e-58)
(7.11317e-32 2.76675e-33 0)
(7.02265e-32 2.54797e-33 -2.83349e-58)
(6.93773e-32 2.35154e-33 0)
(6.85797e-32 2.17378e-33 -1.25334e-58)
(6.78299e-32 2.01195e-33 -2.27246e-58)
(6.71244e-32 1.86385e-33 -2.11734e-58)
(6.64601e-32 1.72778e-33 1.97476e-58)
(6.5834e-32 1.60231e-33 -9.52713e-59)
(6.52437e-32 1.48628e-33 0)
(6.46869e-32 1.37872e-33 0)
(6.41615e-32 1.27877e-33 1.50399e-58)
(6.36656e-32 1.18575e-33 7.3326e-59)
(6.31974e-32 1.09901e-33 0)
(6.27553e-32 1.01802e-33 5.85569e-59)
(6.23379e-32 9.4232e-34 0)
(6.19437e-32 8.7148e-34 5.67537e-59)
(6.15716e-32 8.05134e-34 -1.9557e-58)
(6.12202e-32 7.42951e-34 1.82546e-58)
(6.08886e-32 6.84637e-34 -8.804e-59)
(6.05756e-32 6.29926e-34 0)
(6.02803e-32 5.78577e-34 7.69013e-59)
(6.00017e-32 5.30371e-34 -1.3801e-58)
(5.9739e-32 4.85108e-34 0)
(5.94914e-32 4.42605e-34 0)
(5.9258e-32 4.02694e-34 0)
(5.90382e-32 3.65218e-34 4.89134e-59)
(5.88312e-32 3.30033e-34 0)
(5.86364e-32 2.97004e-34 0)
(5.8453e-32 2.66006e-34 0)
(5.82807e-32 2.36921e-34 0)
(5.81186e-32 2.0964e-34 0)
(5.79664e-32 1.84059e-34 -3.54537e-59)
(5.78234e-32 1.60081e-34 0)
(5.76892e-32 1.37614e-34 2.51249e-59)