/*--------------------------------*- C++ -*----------------------------------*\
  =========                 |
  \\      /  F ield         | OpenFOAM: The Open Source CFD Toolbox
   \\    /   O peration     | Website:  https://openfoam.org
    \\  /    A nd           | Version:  11
     \\/     M anipulation  |
\*---------------------------------------------------------------------------*/
FoamFile
{
    format      ascii;
    class       surfaceScalarField;
    location    "69";
    object      phi;
}
// * * * * * * * * * * * * * * * * * * * * * * * * * * * * * * * * * * * * * //

dimensions      [0 3 -1 0 0 0 0];

internalField   nonuniform List<scalar> 
4000
(
0.0250299
-2.99332e-05
0.0251214
-9.14228e-05
0.0252763
-0.000154993
0.0254977
-0.000221309
0.0257883
-0.000290657
0.0261512
-0.000362903
0.0265886
-0.00043736
0.0271013
-0.000512695
0.0276881
-0.000586864
0.0283452
-0.000657082
0.029065
-0.000719828
0.0298361
-0.000771024
0.0306424
-0.000806338
0.031464
-0.000821641
0.0322776
-0.000813581
0.0330577
-0.000780109
0.0337787
-0.000720934
0.0344165
-0.000637808
0.0349505
-0.000534075
0.0353641
-0.000413525
0.0356436
-0.000279548
0.0357781
-0.000134515
0.0357613
1.68749e-05
0.035589
0.000172269
0.0352609
0.000328131
0.0347821
0.000478749
0.0341647
0.000617418
0.033428
0.000736714
0.0325984
0.000829544
0.0317082
0.00089023
0.0307931
0.000915115
0.0298903
0.000902757
0.0290368
0.000853575
0.0282675
0.000769267
0.0276151
0.00065236
0.0271093
0.000505803
0.0267764
0.000332913
0.0266388
0.00013763
0.0267145
-7.56778e-05
0.0270147
-0.000300257
0.0275436
-0.000528865
0.028296
-0.00075246
0.0292563
-0.0009603
0.0303964
-0.00114008
0.0316752
-0.00127876
0.0330383
-0.00136315
0.0344194
-0.00138109
0.0357445
-0.00132503
0.0369357
-0.0011912
0.0379206
-0.000984923
0.0386397
-0.000719123
0.0390527
-0.00041298
0.0391511
-9.84359e-05
0.0389486
0.000202545
0.0384779
0.000470629
0.0377905
0.00068742
0.0369394
0.000851116
0.035984
0.000955424
0.0349673
0.00101669
0.0339436
0.00102367
0.0329273
0.00101631
0.031978
0.000949314
0.031058
0.000919959
0.000778538
0.0250297
-5.96031e-05
0.0251202
-0.000181924
0.0252737
-0.000308572
0.0254935
-0.00044104
0.0257828
-0.000579987
0.0261451
-0.000725238
0.0265833
-0.000875529
0.0270989
-0.00102825
0.0276914
-0.00117936
0.0283575
-0.00132322
0.0290903
-0.00145265
0.0298785
-0.00155919
0.0307058
-0.00163364
0.0315512
-0.00166709
0.03239
-0.00165231
0.0331947
-0.00158486
0.0339381
-0.00146428
0.0345951
-0.00129482
0.035145
-0.00108398
0.0355712
-0.00083971
0.0358603
-0.000568648
0.0360009
-0.000275164
0.0359863
3.151e-05
0.0358117
0.000346861
0.0354754
0.00066437
0.0349818
0.000972417
0.0343423
0.00125688
0.0335771
0.00150189
0.0327142
0.00169249
0.0317875
0.00181692
0.0308348
0.00186782
0.0298951
0.00184245
0.0290067
0.00174202
0.0282056
0.00157029
0.0275253
0.0013327
0.0269958
0.00103532
0.0266441
0.000684578
0.0264931
0.000288637
0.0265626
-0.000145137
0.0268648
-0.00060246
0.0274052
-0.00106932
0.0281803
-0.00152751
0.0291751
-0.00195516
0.0303617
-0.00232668
0.0316978
-0.00261485
0.0331266
-0.00279194
0.0345784
-0.00283294
0.0359739
-0.00272047
0.0372285
-0.0024458
0.0382641
-0.00202058
0.0390145
-0.00146945
0.0394339
-0.000832406
0.0395164
-0.00018097
0.0392765
0.000442479
0.0387548
0.000992346
0.0380093
0.00143286
0.0370998
0.00176063
0.0360901
0.00196519
0.0350262
0.00208058
0.0339633
0.00208653
0.0329155
0.00206412
0.0319427
0.0019221
0.0310034
0.00185925
0.00156825
0.0250289
-8.85479e-05
0.0251174
-0.000270393
0.0252679
-0.000459075
0.0254841
-0.000657198
0.0257702
-0.000866073
0.0261307
-0.00108573
0.0265697
-0.00131461
0.0270904
-0.00154893
0.0276938
-0.00178273
0.0283779
-0.00200735
0.0291369
-0.0022116
0.0299598
-0.00238215
0.03083
-0.0025038
0.0317245
-0.00256159
0.0326152
-0.00254307
0.0334707
-0.00244029
0.0342595
-0.00225311
0.034955
-0.00199031
0.0355363
-0.00166535
0.0359876
-0.00129096
0.0362957
-0.000876779
0.0364491
-0.000428522
0.0364397
4.0898e-05
0.0362612
0.000525361
0.0359092
0.00101636
0.0353856
0.00149606
0.0347012
0.00194124
0.0338776
0.00232547
0.0329459
0.00262415
0.0319445
0.0028184
0.0309151
0.00289722
0.0299003
0.00285719
0.0289412
0.0027011
0.0280756
0.00243589
0.0273381
0.00207022
0.0267599
0.00161358
0.0263689
0.00107555
0.0261905
0.000466998
0.0262455
-0.000200097
0.0265498
-0.00090673
0.0271122
-0.00163178
0.0279317
-0.00234703
0.0289931
-0.00301653
0.0302648
-0.00359835
0.0317004
-0.00405043
0.03324
-0.00433153
0.034812
-0.00440497
0.0363332
-0.00424169
0.0377107
-0.00382327
0.0388543
-0.00316425
0.039681
-0.00229609
0.0401373
-0.00128873
0.0402036
-0.000247268
0.0399021
0.000743977
0.0392862
0.00160829
0.0384291
0.00228997
0.0374052
0.00278453
0.0362884
0.00308199
0.0351317
0.00323725
0.0339917
0.00322649
0.032883
0.00317284
0.0318641
0.002941
0.0308889
0.00283445
0.00238069
0.0250277
-0.000116284
0.0251127
-0.000355374
0.0252578
-0.000604192
0.0254675
-0.000866916
0.0257473
-0.00114585
0.0261032
-0.00144165
0.0265416
-0.00175299
0.0270679
-0.00207521
0.027686
-0.00240082
0.0283962
-0.0027176
0.0291945
-0.00300985
0.0300707
-0.00325837
0.0310072
-0.00344024
0.0319785
-0.00353293
0.0329513
-0.00351583
0.0338857
-0.00337475
0.0347442
-0.00311158
0.0354978
-0.00274398
0.0361266
-0.00229407
0.0366156
-0.00177996
0.0369528
-0.00121404
0.0371269
-0.000602554
0.0371279
3.9865e-05
0.0369464
0.00070683
0.0365725
0.0013903
0.0360037
0.00206482
0.0352501
0.00269488
0.0343354
0.00324013
0.0332961
0.00366344
0.0321775
0.00393708
0.0310287
0.00404601
0.0298982
0.00398764
0.0288309
0.0037684
0.0278668
0.00340001
0.0270413
0.00289566
0.0263872
0.00226774
0.0259343
0.0015284
0.0257097
0.000691658
0.0257382
-0.000228606
0.0260424
-0.00121091
0.0266347
-0.00222408
0.027507
-0.00321933
0.0286287
-0.00413824
0.0299559
-0.00492561
0.0314432
-0.00553768
0.0330445
-0.00593281
0.0347063
-0.00606685
0.036358
-0.00589331
0.0379067
-0.00537204
0.0392434
-0.00450088
0.040256
-0.00330867
0.0408565
-0.0018893
0.040991
-0.000381721
0.0406738
0.00106116
0.0399714
0.00231065
0.038982
0.00327945
0.0378073
0.00395923
0.0365426
0.00434665
0.0352551
0.00452476
0.0340055
0.00447607
0.0328114
0.00436695
0.031727
0.00402534
0.0307016
0.00385986
0.00322386
0.0250258
-0.000142111
0.0251053
-0.000434863
0.0252418
-0.000740679
0.0254409
-0.00106604
0.0257096
-0.00141448
0.026056
-0.00178807
0.0264893
-0.00218632
0.0270184
-0.00260433
0.0276521
-0.00303448
0.0283945
-0.00346
0.0292455
-0.00386081
0.0301958
-0.0042087
0.0312257
-0.00447018
0.032307
-0.00461422
0.0333968
-0.00460561
0.034441
-0.00441897
0.0353934
-0.00406397
0.0362243
-0.00357489
0.0369158
-0.00298561
0.0374556
-0.00231968
0.0378329
-0.00159135
0.0380378
-0.000807503
0.0380587
1.90428e-05
0.0378806
0.000884862
0.0374818
0.00178913
0.0368527
0.0026939
0.0360024
0.00354517
0.034959
0.00428354
0.0337673
0.00485518
0.0324832
0.00522114
0.0311668
0.00536244
0.0298752
0.00527921
0.028659
0.00498458
0.0275608
0.00449823
0.026616
0.00384047
0.0258566
0.00302714
0.0253142
0.00207087
0.0250183
0.000987487
0.0250056
-0.000215856
0.0253019
-0.00150729
0.0258927
-0.00281481
0.0267199
-0.00404656
0.0277213
-0.00513967
0.0288683
-0.00607259
0.0301691
-0.00683848
0.0316415
-0.00740516
0.0332788
-0.00770421
0.035031
-0.0076455
0.0368031
-0.0071441
0.0384598
-0.00615757
0.0398515
-0.00470037
0.0408253
-0.00286315
0.0412702
-0.000826595
0.0411438
0.00118748
0.0405032
0.00295131
0.0394668
0.00431588
0.038176
0.00524995
0.0367672
0.00575554
0.0353371
0.00595476
0.0339626
0.00585061
0.0326695
0.00566006
0.0315075
0.00518734
0.0304245
0.00494289
0.00410197
0.0250229
-0.00016506
0.0250943
-0.000506168
0.0252176
-0.000863977
0.0254002
-0.00124869
0.0256504
-0.00166465
0.0259796
-0.00211727
0.0263998
-0.00260653
0.0269245
-0.00312901
0.0275692
-0.00367919
0.0283438
-0.00423468
0.029259
-0.00477599
0.0303068
-0.0052565
0.0314651
-0.00562843
0.0327011
-0.0058502
0.0339514
-0.00585597
0.035139
-0.00560659
0.0362101
-0.00513502
0.0371367
-0.00450154
0.0379049
-0.0037538
0.0385068
-0.00292154
0.0389361
-0.00202065
0.0391853
-0.00105668
0.0392423
-3.79965e-05
0.0390816
0.00104558
0.038661
0.00220967
0.037958
0.00339693
0.0369793
0.00452385
0.0357607
0.00550219
0.0343614
0.00625441
0.0328551
0.00672751
0.0313169
0.00690058
0.0298149
0.00678124
0.0284048
0.00639465
0.0271321
0.00577096
0.0260346
0.00493793
0.0251381
0.00392362
0.0244718
0.00273718
0.0240779
0.00138144
0.0240044
-0.000142357
0.0242116
-0.00171455
0.0245698
-0.00317292
0.0249696
-0.00444639
0.0254209
-0.005591
0.0260394
-0.00669107
0.0269566
-0.00775568
0.0282442
-0.00869278
0.0298908
-0.00935076
0.0318129
-0.00956767
0.0338799
-0.00921106
0.0359341
-0.00821176
0.0378122
-0.00657846
0.0393259
-0.00437686
0.0403124
-0.00181313
0.0406619
0.000838022
0.0403578
0.00325541
0.0394996
0.00517408
0.0382496
0.0064999
0.0367912
0.00721393
0.0352677
0.00747829
0.033792
0.00732635
0.0324089
0.00704314
0.031172
0.00642424
0.0300355
0.00607936
0.00501451
0.0250188
-0.000183853
0.0250785
-0.000565872
0.0251824
-0.000967858
0.0253406
-0.00140687
0.0255611
-0.00188521
0.0258619
-0.00241804
0.0262556
-0.00300025
0.0267644
-0.00363782
0.0274092
-0.00432397
0.0282061
-0.00503164
0.0291896
-0.00575945
0.0303535
-0.00642044
0.0316854
-0.0069603
0.0331426
-0.00730742
0.0346144
-0.0073277
0.0359896
-0.00698184
0.0372119
-0.00635728
0.0382545
-0.00554419
0.0391074
-0.00460663
0.0397701
-0.00358431
0.0402522
-0.00250272
0.0405632
-0.00136773
0.0406865
-0.000161292
0.0405657
0.00116639
0.0401367
0.00263865
0.0393547
0.00417899
0.0382148
0.00566369
0.036762
0.00695499
0.0350824
0.00793402
0.0332799
0.00853003
0.0314541
0.00872645
0.0296886
0.00854668
0.0280436
0.00803965
0.0265599
0.00725467
0.0252712
0.00622661
0.0241988
0.00499603
0.0233811
0.0035549
0.0228673
0.00189521
0.0226057
0.000119219
0.0223616
-0.00147046
0.0219478
-0.00275905
0.021481
-0.00397966
0.0212859
-0.0053959
0.0216322
-0.00703737
0.0225958
-0.00871924
0.0241016
-0.0101986
0.026016
-0.0112652
0.0281943
-0.011746
0.0304997
-0.0115165
0.0327997
-0.0105117
0.0349428
-0.00872157
0.0368057
-0.00623978
0.0382319
-0.00323935
0.0390731
-3.21228e-06
0.0392393
0.00308925
0.038754
0.00565941
0.0377417
0.00751217
0.0363958
0.00855985
0.0348935
0.0089806
0.0333917
0.00882809
0.0319622
0.00847268
0.0306785
0.00770794
0.0295073
0.00725056
0.00595489
0.0250131
-0.000196988
0.0250572
-0.00060995
0.0251338
-0.00104442
0.0252572
-0.00153034
0.0254316
-0.00205957
0.0256879
-0.00267431
0.0260309
-0.0033433
0.0265101
-0.00411704
0.027135
-0.0049488
0.027942
-0.00583873
0.0289918
-0.00680924
0.0302609
-0.0076895
0.0318295
-0.00852887
0.0336234
-0.00910138
0.0354141
-0.00911842
0.0370329
-0.00860059
0.0384194
-0.00774383
0.0395468
-0.00667153
0.0404245
-0.00548435
0.041077
-0.00423677
0.0415538
-0.00297955
0.0419253
-0.00173927
0.0421882
-0.000424148
0.0421786
0.00117595
0.0418125
0.00300476
0.0410055
0.00498605
0.0397167
0.00695244
0.0379884
0.00868326
0.0359464
0.00997612
0.0337542
0.0107222
0.0315613
0.0109193
0.0294673
0.0106407
0.027535
0.00997192
0.0258147
0.00897504
0.0243056
0.00773568
0.0230165
0.00628511
0.0220398
0.00453165
0.0213136
0.00262142
0.0203845
0.00104831
0.0190959
-0.000181857
0.0177508
-0.001414
0.0169892
-0.00321803
0.0171508
-0.0055575
0.0181425
-0.00802908
0.019693
-0.0102698
0.0215748
-0.0120803
0.0236559
-0.0133463
0.0258638
-0.0139539
0.0281291
-0.0137818
0.0303576
-0.0127402
0.0324494
-0.0108133
0.0343067
-0.0080971
0.0358339
-0.00476657
0.0368994
-0.00106871
0.0373945
0.0025941
0.0372697
0.00578427
0.0365752
0.00820671
0.0354623
0.00967268
0.0341011
0.0103418
0.0326718
0.0102573
0.0312656
0.00987894
0.0299864
0.00898709
0.0288121
0.00842487
0.00690906
0.025006
-0.000203029
0.02503
-0.000633862
0.0250707
-0.00108519
0.0251471
-0.00160671
0.0252542
-0.00216668
0.0254423
-0.00286244
0.0256914
-0.00359237
0.0261193
-0.00454493
0.0266714
-0.0055009
0.027511
-0.00667829
0.0286159
-0.0079142
0.0299491
-0.0090227
0.0319116
-0.0104913
0.0342311
-0.0114209
0.0363772
-0.0112645
0.038113
-0.0103364
0.039407
-0.00903787
0.0402837
-0.00754818
0.0408526
-0.00605326
0.0412039
-0.00458806
0.0415044
-0.0032801
0.0418988
-0.00213364
0.0423891
-0.000914484
0.0427402
0.000824845
0.0427524
0.00299256
0.042256
0.00548243
0.0411005
0.00810799
0.0392653
0.0105184
0.0368945
0.012347
0.0342469
0.0133698
0.0315809
0.0135853
0.0290713
0.0131503
0.0268169
0.0122263
0.0248102
0.0109817
0.0230179
0.00952806
0.0215632
0.00773974
0.0203771
0.00571773
0.0188922
0.0041064
0.0168443
0.00309614
0.0148414
0.00182103
0.0138366
-0.000409119
0.0140866
-0.00346809
0.0152323
-0.00670317
0.0168274
-0.00962422
0.0185945
-0.0120369
0.0204263
-0.0139121
0.0223174
-0.0152374
0.0242894
-0.0159258
0.0263288
-0.0158212
0.0283644
-0.0147759
0.0302964
-0.0127452
0.0320284
-0.00982918
0.0334586
-0.00619675
0.0345375
-0.00214761
0.0351639
0.00196773
0.0352743
0.00567382
0.0348623
0.00861876
0.0340186
0.0105164
0.032873
0.0114874
0.0315989
0.0115314
0.0302884
0.0111894
0.0290731
0.0102024
0.027933
0.00956502
0.00785711
0.024998
-0.000201033
0.0249968
-0.00063262
0.024995
-0.00108341
0.0250096
-0.00162128
0.025031
-0.00218812
0.0251158
-0.00294728
0.0252183
-0.00369486
0.0255308
-0.00485746
0.0258872
-0.00585723
0.0268077
-0.00759886
0.0278369
-0.00894337
0.0294558
-0.0106416
0.0321191
-0.0131546
0.0347848
-0.0140866
0.0366221
-0.0131018
0.0375859
-0.0113002
0.0378484
-0.00930037
0.0376089
-0.00730874
0.0371745
-0.00561883
0.0366688
-0.00408237
0.0365149
-0.00312616
0.0369431
-0.00256185
0.0377749
-0.00174627
0.0389337
-0.000334019
0.0399827
0.00194361
0.0406247
0.00484047
0.0404869
0.00824576
0.0393644
0.0116408
0.037302
0.0144095
0.0345781
0.0160937
0.0315748
0.0165885
0.0286511
0.0160741
0.0260017
0.0148756
0.0236433
0.0133401
0.0216705
0.0115009
0.0200143
0.00939598
0.0180317
0.00770033
0.0154093
0.00672879
0.0129557
0.00554978
0.011722
0.00305469
0.0118916
-0.000578707
0.0130057
-0.0045822
0.0145583
-0.00825575
0.0162392
-0.0113051
0.0179036
-0.0137012
0.019521
-0.0155296
0.021135
-0.0168514
0.0228101
-0.0176009
0.0245729
-0.017584
0.0263791
-0.016582
0.0281343
-0.0145004
0.0297106
-0.0114055
0.0310371
-0.00752328
0.0320533
-0.00316379
0.0327079
0.00131313
0.0329507
0.00543107
0.0327554
0.00881402
0.0321667
0.0111051
0.0312662
0.012388
0.0301998
0.0125977
0.0290431
0.0123462
0.0279441
0.0113014
0.0268726
0.0106365
0.00877723
0.0249895
-0.000190523
0.0249587
-0.000601828
0.0249105
-0.00103525
0.0248487
-0.00155943
0.0247754
-0.00211484
0.0247126
-0.00288446
0.024642
-0.0036243
0.024699
-0.00491443
0.0247276
-0.00588579
0.0254736
-0.00834489
0.0260704
-0.00954023
0.0289087
-0.0134798
0.0316832
-0.0159291
0.0328735
-0.0152769
0.0324363
-0.0126647
0.0310265
-0.00989041
0.0291217
-0.00739554
0.0270878
-0.00527482
0.025318
-0.00384902
0.0235964
-0.00236079
0.0230276
-0.00255733
0.0237763
-0.00331058
0.025591
-0.00356097
0.0281164
-0.00285942
0.030879
-0.000818959
0.0333851
0.00233429
0.0350837
0.00654716
0.0356302
0.0110944
0.0348996
0.0151401
0.0330473
0.017946
0.0304689
0.0191669
0.027622
0.018921
0.024806
0.0176916
0.0222635
0.0158826
0.0200894
0.0136749
0.0177615
0.0117239
0.0148062
0.0106556
0.0118872
0.00964774
0.0102035
0.00723346
0.0100225
0.00323571
0.0109323
-0.00148846
0.0124053
-0.00605526
0.014107
-0.00995746
0.0158209
-0.013019
0.017416
-0.0152962
0.0188559
-0.0169695
0.0201956
-0.0181911
0.0215371
-0.0189424
0.0229572
-0.0190041
0.0244577
-0.0180826
0.0259552
-0.0159979
0.0273457
-0.012796
0.0285337
-0.00871123
0.0294652
-0.00409532
0.0301051
0.000673263
0.030423
0.00511319
0.0303929
0.00884407
0.0300314
0.0114666
0.0293786
0.0130408
0.0285453
0.013431
0.0275803
0.0133111
0.0266347
0.012247
0.0256571
0.0116141
0.0096503
0.0249804
-0.000170933
0.0249187
-0.000540145
0.0248216
-0.000938173
0.0246768
-0.00141461
0.024503
-0.001941
0.0242652
-0.00264672
0.0240182
-0.00337727
0.023687
-0.00458319
0.0233706
-0.0055694
0.0231724
-0.0081467
0.0229421
-0.00930998
0.0262986
-0.0168363
0.0264012
-0.0160316
0.0228394
-0.0117151
0.0188795
-0.00870481
0.0152494
-0.00626033
0.012235
-0.00438112
0.0100171
-0.00305687
0.00832465
-0.00215661
0.00649307
-0.000529204
0.00769441
-0.00375867
0.0106476
-0.00626373
0.0142997
-0.00721309
0.0180261
-0.00658589
0.0216202
-0.00441304
0.0247773
-0.00082282
0.0273991
0.00392543
0.0291059
0.00938754
0.0296545
0.0145915
0.0290095
0.0185909
0.0273894
0.0207871
0.0251227
0.0211876
0.022601
0.0202134
0.0201914
0.0182922
0.0176982
0.0161682
0.0146123
0.0148098
0.0113519
0.0139161
0.00912568
0.011874
0.00848797
0.00787116
0.00908531
0.00263837
0.0103929
-0.00279609
0.012073
-0.0077353
0.0138803
-0.0117648
0.0156163
-0.014755
0.0171395
-0.0168194
0.0184013
-0.0182313
0.01946
-0.0192499
0.0204457
-0.0199281
0.0214834
-0.0200417
0.0226206
-0.0192198
0.0238139
-0.0171911
0.0249674
-0.0139495
0.0259909
-0.00973479
0.0268189
-0.0049233
0.027428
6.42033e-05
0.0277951
0.00474603
0.0278997
0.00873952
0.0277404
0.0116258
0.0273262
0.013455
0.0267321
0.0140251
0.0259778
0.0140653
0.0252043
0.0130205
0.0243337
0.0124848
0.0104634
0.0249709
-0.000141838
0.024881
-0.000450237
0.0247336
-0.000790764
0.0245125
-0.00119352
0.0242294
-0.00165786
0.0238321
-0.00224947
0.023381
-0.00292613
0.0226978
-0.00390001
0.0220377
-0.00490931
0.0207115
-0.00682054
0.0193799
-0.00797838
0.0156395
-0.0130958
0.0086797
-0.00907187
0.00439944
-0.00743482
0.00216447
-0.00646984
0.00114706
-0.00524292
0.000710782
-0.00394485
0.000522479
-0.00286857
0.000386806
-0.00202094
0.000842413
-0.000984812
0.00411126
-0.00702751
0.00774779
-0.00990027
0.0110216
-0.0104869
0.013931
-0.00949522
0.0164889
-0.006971
0.0187748
-0.00310872
0.0207267
0.00197353
0.0223178
0.00779646
0.0232693
0.0136401
0.0233735
0.0184868
0.0225954
0.0215651
0.0211113
0.0226717
0.0192667
0.022058
0.0171248
0.0204341
0.0143119
0.018981
0.0110244
0.0180973
0.00843188
0.0165086
0.00735513
0.0129507
0.00763141
0.00759488
0.008769
0.00150078
0.0103408
-0.00436787
0.012148
-0.00954251
0.0139868
-0.0136036
0.0156809
-0.0164491
0.0170943
-0.0182328
0.0181661
-0.0193031
0.0189424
-0.0200261
0.019563
-0.0205488
0.0201916
-0.0206703
0.0209283
-0.0199565
0.0217723
-0.0180352
0.0226532
-0.0148304
0.0234794
-0.010561
0.0241939
-0.00563777
0.024764
-0.000505877
0.0251708
0.0043392
0.0253943
0.00851603
0.0254186
0.0116015
0.0252294
0.0136443
0.0248683
0.0143862
0.0243276
0.014606
0.0237275
0.0136207
0.0229655
0.0132467
0.0112114
0.0249625
-0.000104294
0.0248487
-0.000336504
0.0246558
-0.000597795
0.0243708
-0.000908587
0.0239835
-0.00127053
0.0234604
-0.00172637
0.0227896
-0.00225539
0.021872
-0.00298237
0.0207262
-0.0037635
0.0189468
-0.00504114
0.0168716
-0.00590314
0.0126404
-0.0088647
0.00922147
-0.00565291
0.00656607
-0.00477942
0.00443791
-0.00434169
0.002861
-0.00366601
0.00184109
-0.00292494
0.00127821
-0.00230569
0.00109755
-0.00184028
0.00172017
-0.00160742
0.00409443
-0.00940177
0.00614622
-0.0119521
0.00805627
-0.012397
0.00999141
-0.0114304
0.0117883
-0.00876786
0.0132885
-0.0046089
0.0145723
0.000689655
0.0157023
0.00666654
0.0165859
0.0127564
0.0170357
0.018037
0.0169255
0.0216753
0.0162884
0.0233088
0.0151098
0.0232366
0.0130994
0.0224445
0.010328
0.0217525
0.00777189
0.0206534
0.00652503
0.0177554
0.00667474
0.012801
0.00774293
0.00652669
0.00925385
-1.01402e-05
0.0110382
-0.00615222
0.0128816
-0.0113859
0.0146404
-0.0153624
0.0161822
-0.0179909
0.0173993
-0.0194499
0.0182316
-0.0201354
0.0187055
-0.0205
0.0189508
-0.0207942
0.0191531
-0.0208725
0.0194605
-0.0202639
0.0199217
-0.0184964
0.0204937
-0.0154023
0.0211045
-0.0111719
0.0216909
-0.00622418
0.0222173
-0.00103224
0.0226597
0.0038967
0.0229926
0.00818314
0.023185
0.0114091
0.0232044
0.013625
0.0230616
0.014529
0.0227246
0.014943
0.0222847
0.0140605
0.0216257
0.0139058
0.0118972
0.0249566
-6.08485e-05
0.0248243
-0.000204294
0.0245985
-0.000371907
0.0242629
-0.000573003
0.0238009
-0.000808598
0.0231734
-0.00109885
0.0223506
-0.00143261
0.0212403
-0.00187204
0.0198091
-0.00233227
0.0178164
-0.00304845
0.0154083
-0.00349509
0.0116007
-0.00505706
0.0089357
-0.0029879
0.0066205
-0.00246421
0.00462074
-0.00234192
0.00309413
-0.0021394
0.0020652
-0.00189601
0.00146913
-0.00170962
0.0012547
-0.00162585
0.00161796
-0.00197068
0.00250243
-0.0102862
0.00304226
-0.0124919
0.00375463
-0.0131094
0.00483187
-0.0125076
0.00611293
-0.0100489
0.00721857
-0.00571453
0.00821907
-0.000310845
0.00916582
0.00571979
0.0100492
0.011873
0.0107984
0.0172878
0.0112521
0.0212216
0.011199
0.0233619
0.0103336
0.024102
0.00857525
0.0242028
0.00665675
0.023671
0.00566095
0.0216492
0.00598054
0.0174358
0.00723335
0.0115482
0.0089178
0.00484224
0.010749
-0.00184136
0.0125937
-0.00799686
0.0143376
-0.0131299
0.0158844
-0.0169092
0.0171487
-0.0192552
0.0180671
-0.0203684
0.0185986
-0.0206668
0.0187514
-0.0206527
0.0186264
-0.0206692
0.0184076
-0.0206536
0.0182794
-0.0201357
0.0183411
-0.0185581
0.0185896
-0.0156509
0.0189691
-0.0115514
0.0194191
-0.00667417
0.0198956
-0.00150874
0.0203699
0.00342247
0.0208025
0.00775053
0.021147
0.0110646
0.0213553
0.0134167
0.0214095
0.0144749
0.0212567
0.0150958
0.0209556
0.0143616
0.0203906
0.0144708
0.01253
0.0249533
-1.41466e-05
0.024811
-6.19858e-05
0.0245668
-0.000127734
0.0242028
-0.000209019
0.0236993
-0.000305035
0.0230126
-0.000412174
0.0221093
-0.000529288
0.0208916
-0.000654364
0.0193359
-0.000776616
0.0172073
-0.000919849
0.0146967
-0.000984465
0.0108951
-0.00125548
0.00853837
-0.000631141
0.00654822
-0.000474063
0.00474758
-0.000541283
0.00327776
-0.000669586
0.00221566
-0.000833903
0.00154619
-0.00104015
0.00123032
-0.00130997
0.00130011
-0.00204048
0.000951774
-0.00993791
7.31724e-05
-0.0116133
-0.000451789
-0.0125844
-0.00050392
-0.0124555
-1.90238e-05
-0.0105338
0.000898761
-0.00663232
0.00175266
-0.00116474
0.00283411
0.00463834
0.00391752
0.0107896
0.00493237
0.0162729
0.00570134
0.0204527
0.00592459
0.0231387
0.00543085
0.0245957
0.00464644
0.0249872
0.00440424
0.0239132
0.00525921
0.0207942
0.0069764
0.0157187
0.00908113
0.00944348
0.0111817
0.00274165
0.013143
-0.0038026
0.0149047
-0.00975863
0.0164317
-0.0146569
0.0176656
-0.018143
0.0185572
-0.0201468
0.0190915
-0.0209027
0.019265
-0.0208403
0.019081
-0.0204688
0.0186016
-0.0201898
0.0179853
-0.0200374
0.017436
-0.0195865
0.0171009
-0.018223
0.0170222
-0.0155721
0.0171665
-0.0116957
0.0174754
-0.00698314
0.0178954
-0.00192872
0.0183954
0.00292248
0.0189149
0.00723107
0.0193932
0.0105863
0.019767
0.0130428
0.0199923
0.0142496
0.0199984
0.0150897
0.0198133
0.0145467
0.0193354
0.0149487
0.0131215
0.0249531
3.27144e-05
0.0248101
8.10827e-05
0.0245642
0.000118096
0.0241976
0.000157659
0.0236898
0.000202683
0.0229979
0.000279808
0.0220865
0.000382041
0.0208613
0.000570848
0.0192908
0.000793923
0.0171566
0.00121437
0.0146256
0.00154647
0.0108239
0.00254624
0.00848796
0.00170482
0.00650387
0.00151002
0.00469788
0.00126471
0.00321416
0.000814141
0.00213117
0.000249081
0.00141288
-0.000321864
0.000984632
-0.000881719
0.000736123
-0.00179197
-0.000527409
-0.00867437
-0.00213967
-0.010001
-0.00362635
-0.0110977
-0.00463872
-0.0114431
-0.00500954
-0.010163
-0.00476184
-0.00688001
-0.00410765
-0.00181893
-0.00309679
0.00362748
-0.00186566
0.00955847
-0.000587434
0.0149947
0.000502171
0.0193631
0.00123367
0.0224072
0.00177301
0.0240564
0.00263748
0.0241228
0.00429768
0.022253
0.00671186
0.01838
0.0094414
0.0129891
0.0120606
0.00682428
0.014339
0.000463221
0.0162449
-0.00570849
0.0178039
-0.0113177
0.0190232
-0.0158761
0.0198679
-0.0189877
0.0203186
-0.0205975
0.0204075
-0.0209917
0.0201817
-0.0206145
0.0196556
-0.0199427
0.0188526
-0.0193868
0.0178845
-0.0190692
0.0169515
-0.0186535
0.0162427
-0.0175142
0.0158471
-0.0151766
0.0157598
-0.0116083
0.015919
-0.00714231
0.0162958
-0.00230556
0.016805
0.00241325
0.0173944
0.00664169
0.0179853
0.00999543
0.0184982
0.0125298
0.0188671
0.0138807
0.0190063
0.0149505
0.0189193
0.0146337
0.0185293
0.0153387
0.0136817
0.0249561
7.65939e-05
0.0248218
0.000215375
0.024591
0.000348888
0.0242478
0.000500942
0.0237732
0.000677269
0.0231304
0.000922591
0.0222841
0.00122832
0.0211495
0.00170543
0.0196806
0.00226289
0.0176568
0.00323818
0.0152026
0.0040006
0.0113637
0.00638521
0.008752
0.00431646
0.00647866
0.00378337
0.00448186
0.00326151
0.0029223
0.0023737
0.00183072
0.00134067
0.00111539
0.000393462
0.000640359
-0.000406689
0.000127804
-0.00127942
-0.00170137
-0.0068452
-0.00349215
-0.00821025
-0.00531146
-0.00927841
-0.00695215
-0.00980242
-0.00809858
-0.00901657
-0.00848839
-0.00649021
-0.00814121
-0.00216611
-0.00730177
0.00278804
-0.00605803
0.00831473
-0.00455878
0.0134954
-0.00294296
0.0177472
-0.00122976
0.020694
0.000761818
0.0220648
0.00330583
0.0215787
0.00643271
0.0191261
0.00982899
0.0149838
0.0130713
0.00974682
0.0158501
0.00404547
0.0180758
-0.0017625
0.0197949
-0.00742757
0.0210771
-0.0125998
0.0219295
-0.0167286
0.022331
-0.0193893
0.0222986
-0.020565
0.0219129
-0.0206059
0.0212719
-0.0199736
0.0204149
-0.0190856
0.0193331
-0.018305
0.0180785
-0.0178147
0.0168214
-0.0173964
0.0157781
-0.0164709
0.0150856
-0.0144841
0.0147734
-0.0112961
0.0148098
-0.00717871
0.015117
-0.00261269
0.0156306
0.00189962
0.0162726
0.00599969
0.0169537
0.00931426
0.0175785
0.0119051
0.0180655
0.0133937
0.0183171
0.0146989
0.0183207
0.0146301
0.0180286
0.0156308
0.0142119
0.0249618
0.000114819
0.0248443
0.000332854
0.0246436
0.000549623
0.0243452
0.000799279
0.0239388
0.00108373
0.0233884
0.00147297
0.0226847
0.00193203
0.0217224
0.00266772
0.0205282
0.00345709
0.0186875
0.0050789
0.0165515
0.0061366
0.0123397
0.010597
0.00893568
0.00772044
0.00630022
0.00641883
0.00417595
0.00538578
0.00257012
0.00397952
0.00149635
0.00241445
0.000818166
0.00107165
0.000374004
3.74733e-05
-0.000242236
-0.000663177
-0.00220758
-0.00487985
-0.00371807
-0.00669976
-0.00515142
-0.00784506
-0.00664607
-0.00830777
-0.00801026
-0.00765238
-0.0088969
-0.00560357
-0.00889648
-0.00216652
-0.00829708
0.00218863
-0.00703116
0.00704881
-0.0052143
0.0116786
-0.00295573
0.0154887
-0.000262143
0.0180004
0.00291817
0.0188845
0.00656239
0.0179345
0.0104481
0.0152404
0.0141937
0.0112381
0.0174665
0.0064741
0.0200877
0.00142427
0.0220773
-0.00375213
0.0235387
-0.00888899
0.0245088
-0.0135699
0.0249559
-0.0171757
0.0248749
-0.0193083
0.0243382
-0.0200283
0.0234802
-0.0197479
0.0224402
-0.0189336
0.0212827
-0.0179281
0.0199792
-0.0170015
0.0185173
-0.0163528
0.0170125
-0.0158917
0.0156888
-0.0151472
0.0147354
-0.0135306
0.0142212
-0.0107819
0.0141202
-0.00707771
0.0143622
-0.00285466
0.0148688
0.00139304
0.0155461
0.00532232
0.0162965
0.00856388
0.0170084
0.0111932
0.0175941
0.012808
0.0179474
0.0143456
0.0180468
0.0145308
0.0178741
0.0158034
0.0146988
0.02497
0.000144867
0.0248749
0.000427863
0.0247169
0.000707688
0.0244779
0.00103828
0.024168
0.00139359
0.0237361
0.00190487
0.0232359
0.00243221
0.0225068
0.00339688
0.0217643
0.00419957
0.0204155
0.00642769
0.0189389
0.00761324
0.0151732
0.0143627
0.00853221
0.0143614
0.00442477
0.0105263
0.0021846
0.00762596
0.00108245
0.00508167
0.000592528
0.00290437
0.000396072
0.0012681
0.00042834
5.20604e-06
0.000622499
-0.000857336
-0.000654884
-0.00360247
-0.00201977
-0.00533487
-0.00305035
-0.00681448
-0.00390062
-0.0074575
-0.00471112
-0.00684188
-0.00541844
-0.00489626
-0.00568167
-0.00190329
-0.00530409
0.00181106
-0.00407132
0.00581604
-0.00204835
0.00965561
0.000669241
0.0127711
0.00397011
0.0146995
0.00774198
0.0151126
0.0117598
0.0139167
0.015713
0.0112871
0.0192661
0.00768505
0.0221685
0.00357171
0.0244155
-0.000822763
0.0260982
-0.0054348
0.0272876
-0.0100784
0.0279173
-0.0141996
0.0279118
-0.0171702
0.0273107
-0.0187071
0.0262681
-0.0189858
0.0249729
-0.0184527
0.0235846
-0.0175453
0.0221792
-0.0165227
0.0207188
-0.0155411
0.0191341
-0.0147681
0.0174754
-0.014233
0.015941
-0.0136128
0.0147623
-0.012352
0.0140598
-0.0100794
0.0138227
-0.00684061
0.0140001
-0.0030321
0.0144871
0.000906088
0.0151831
0.00462632
0.0159835
0.00776346
0.0167626
0.0104141
0.0174356
0.012135
0.0178922
0.0138889
0.0181027
0.0143203
0.0180825
0.0158236
0.0151099
0.024979
0.000165863
0.0249114
0.000495429
0.0248004
0.00081871
0.024635
0.00120372
0.0244256
0.00160298
0.0241493
0.00218114
0.0238347
0.00274678
0.0234531
0.00377851
0.0230267
0.00462601
0.0227724
0.00668194
0.0224356
0.00795004
0.02554
0.0112583
0.0261787
0.0137228
0.0233954
0.0133095
0.0201148
0.0109066
0.0169345
0.00826199
0.0140644
0.00577446
0.0116996
0.00363286
0.00994184
0.00176298
0.00895726
0.000127243
0.00701001
-0.00165522
0.00508366
-0.00340852
0.00320134
-0.00493216
0.00164566
-0.00590182
0.000666456
-0.00586268
0.000279733
-0.00450954
0.000444507
-0.00206806
0.0011513
0.00110426
0.00250673
0.0044606
0.00458177
0.00758057
0.00734141
0.0100114
0.0106629
0.011378
0.0143279
0.0114476
0.0180429
0.0102018
0.0214803
0.00784967
0.0244029
0.00476252
0.0267345
0.00124005
0.0285868
-0.00267501
0.0300164
-0.00686437
0.0309237
-0.0109857
0.0311342
-0.0144101
0.0305939
-0.0166298
0.0294415
-0.0175547
0.0279238
-0.0174681
0.0262662
-0.0167951
0.0246146
-0.0158938
0.023033
-0.0149411
0.0214838
-0.0139918
0.019863
-0.0131473
0.0181439
-0.0125138
0.0164766
-0.0119455
0.0151127
-0.010988
0.0142304
-0.00919707
0.0138766
-0.00648684
0.0139738
-0.00312927
0.0144305
0.000449352
0.015129
0.00392782
0.0159637
0.0069288
0.0167979
0.00957984
0.0175553
0.0113777
0.0181279
0.0133163
0.0184718
0.0139764
0.0186449
0.0156505
0.0153927
0.0249877
0.00017813
0.0249501
0.000533028
0.0248858
0.000883047
0.0247996
0.00128994
0.0246863
0.00171631
0.0245743
0.00229309
0.0244337
0.00288739
0.0244058
0.00380639
0.0243453
0.00468657
0.024922
0.00610523
0.0254963
0.00737574
0.027967
0.00878763
0.0306925
0.0109972
0.0321481
0.0118539
0.0321557
0.010899
0.0312544
0.00916325
0.0298279
0.00720093
0.0282187
0.0052421
0.0265913
0.00339043
0.0249594
0.00175915
0.0230046
0.00029949
0.0207183
-0.00112216
0.0178217
-0.00203559
0.0143687
-0.0024488
0.0109953
-0.00248929
0.00855682
-0.00207105
0.00754736
-0.0010586
0.00794101
0.000710619
0.00938034
0.00302127
0.0115748
0.0053861
0.0143222
0.00726402
0.0174289
0.00827131
0.0206641
0.00821241
0.0237757
0.00709027
0.0265524
0.00507292
0.0289287
0.00238625