/*--------------------------------*- C++ -*----------------------------------*\
  =========                 |
  \\      /  F ield         | OpenFOAM: The Open Source CFD Toolbox
   \\    /   O peration     | Website:  https://openfoam.org
    \\  /    A nd           | Version:  10
     \\/     M anipulation  |
\*---------------------------------------------------------------------------*/
FoamFile
{
    format      ascii;
    class       volVectorField;
    location    "23";
    object      Ub;
}
// * * * * * * * * * * * * * * * * * * * * * * * * * * * * * * * * * * * * * //

dimensions      [0 1 -1 0 0 0 0];

internalField   nonuniform List<vector> 
100
(
(6.76574e-07 0 0)
(2.04209e-06 0 0)
(3.42685e-06 0 0)
(4.82213e-06 0 0)
(6.22349e-06 0 0)
(7.62937e-06 0 0)
(9.03926e-06 0 0)
(1.04531e-05 0 0)
(1.18711e-05 0 0)
(1.32935e-05 0 0)
(1.47208e-05 0 0)
(1.61532e-05 0 0)
(1.75914e-05 0 0)
(1.90358e-05 0 0)
(2.04869e-05 0 0)
(2.19454e-05 0 0)
(2.34117e-05 0 0)
(2.48867e-05 0 0)
(2.6371e-05 0 0)
(2.78655e-05 0 0)
(2.9371e-05 0 0)
(3.08886e-05 0 0)
(3.24195e-05 0 0)
(3.39649e-05 0 0)
(3.55264e-05 0 0)
(3.71057e-05 0 0)
(3.87051e-05 0 0)
(4.03271e-05 0 0)
(4.19748e-05 0 0)
(4.3652e-05 0 0)
(4.53638e-05 0 0)
(4.71164e-05 0 0)
(4.8918e-05 0 0)
(5.07795e-05 0 0)
(5.2716e-05 0 0)
(5.47482e-05 0 0)
(5.69061e-05 0 0)
(5.92344e-05 0 0)
(6.18029e-05 0 0)
(6.47265e-05 0 0)
(6.82107e-05 0 0)
(7.26626e-05 0 0)
(7.9025e-05 0 0)
(9.00826e-05 0 0)
(0.00012046 0 0)
(0.000267916 0 0)
(0.000398321 0 0)
(0.000404415 0 0)
(0.000404415 0 0)
(0.000404415 0 0)
(0.000404415 0 0)
(0.000404415 0 0)
(0.000404415 0 0)
(0.000404415 0 0)
(0.000404415 0 0)
(0.000404415 0 0)
(0.000404415 0 0)
(0.000404415 0 0)
(0.000404415 0 0)
(0.000404415 0 0)
(0.000404415 0 0)
(0.000404415 0 0)
(0.000404415 0 0)
(0.000404415 0 0)
(0.000404415 0 0)
(0.000404415 0 0)
(0.000404415 0 0)
(0.000404415 0 0)
(0.000404415 0 0)
(0.000404415 0 0)
(0.000404415 0 0)
(0.000404415 0 0)
(0.000404415 0 0)
(0.000404415 0 0)
(0.000404415 0 0)
(0.000404415 0 0)
(0.000404415 0 0)
(0.000404415 0 0)
(0.000404415 0 0)
(0.000404415 0 0)
(0.000404415 0 0)
(0.000404415 0 0)
(0.000404415 0 0)
(0.000404415 0 0)
(0.000404415 0 0)
(0.000404415 0 0)
(0.000404415 0 0)
(0.000404415 0 0)
(0.000404415 0 0)
(0.000404415 0 0)
(0.000404415 0 0)
(0.000404415 0 0)
(0.000404415 0 0)
(0.000404415 0 0)
(0.000404415 0 0)
(0.000404415 0 0)
(0.000404415 0 0)
(0.000404415 0 0)
(0.000404415 0 0)
(0.000404415 0 0)
)
;

boundaryField
{
    inlet
    {
        type            fixedValue;
        value           uniform (0 0 0);
    }
    outlet
    {
        type            zeroGradient;
    }
    yzfaces
    {
        type            empty;
    }
}


// ************************************************************************* //
