/*--------------------------------*- C++ -*----------------------------------*\
  =========                 |
  \\      /  F ield         | OpenFOAM: The Open Source CFD Toolbox
   \\    /   O peration     | Website:  https://openfoam.org
    \\  /    A nd           | Version:  10
     \\/     M anipulation  |
\*---------------------------------------------------------------------------*/
FoamFile
{
    format      ascii;
    class       volScalarField;
    location    "0.063";
    object      T;
}
// * * * * * * * * * * * * * * * * * * * * * * * * * * * * * * * * * * * * * //

dimensions      [0 0 0 1 0 0 0];

internalField   nonuniform List<scalar> 
12225
(
1.00078
0.99983
1.00012
1.00011
1.00018
1.00045
1.00048
1.00029
1.00024
1.00036
1.00043
1.00035
1.00016
0.99987
0.9995
0.998766
0.996797
0.993451
1.00003
0.999827
1.00006
1.00005
1.00011
1.00041
1.0005
1.00033
1.00023
1.00031
1.00039
1.00032
1.00014
0.999855
0.999448
0.998722
0.997038
0.994047
0.999764
1.00012
1.00024
1.00008
1.0001
1.00037
1.00045
1.00029
1.0002
1.00027
1.00032
1.00025
1.00012
0.999902
0.999556
0.99891
0.997442
0.994988
1.00007
1.00003
1.00016
1.0001
1.00011
1.00032
1.0004
1.00028
1.00022
1.0003
1.00037
1.00032
1.00019
0.999956
0.999576
0.998952
0.997758
0.995914
1.00009
1.00028
1.00054
1.00023
1.00008
1.00033
1.00048
1.00036
1.00024
1.00025
1.00027
1.00022
1.00009
0.999913
0.999626
0.999166
0.998294
0.996932
0.999792
1.00009
1.00049
1.00028
1.00011
1.00027
1.00034
1.00022
1.00017
1.00024
1.0003
1.00027
1.00017
1.00001
0.999751
0.99935
0.998674
0.997654
0.999775
1.00037
1.00097
1.00049
1.00007
1.00026
1.00043
1.00036
1.00027
1.00025
1.00024
1.00017
1.00007
0.99994
0.999747
0.999443
0.998952
0.998198
1.00009
1.00051
1.00094
1.00043
1.00008
1.00025
1.00031
1.00018
1.00011
1.00017
1.00023
1.00022
1.00015
1.00005
0.999891
0.999647
0.999276
0.998718
0.998855
1.00088
1.00126
1.00046
0.999973
1.00016
1.00035
1.00032
1.00025
1.00023
1.0002
1.00013
1.00004
0.999961
0.999852
0.999676
0.999411
0.999002
0.999599
1.00093
1.00109
1.00044
1.00005
1.00017
1.00024
1.0001
1.00002
1.00007
1.00013
1.00014
1.00012
1.00008
1.00001
0.999887
0.999688
0.9994
0.998572
1.0006
1.00111
1.00033
0.999871
1.00008
1.00029
1.00025
1.00019
1.0002
1.00018
1.0001
1.00002
0.999955
0.999886
0.99979
0.999643
0.999446
1.00011
1.00078
1.00092
1.00036
0.999945
1.00006
1.00014
1.00001
0.999937
0.999983
1.00006
1.00009
1.00009
1.00008
1.00006
0.999997
0.999906
0.99976
0.998767
1.00066
1.00065
1.00025
0.999877
1.00001
1.00019
1.00015
1.0001
1.00011
1.0001
1.00004
0.999989
0.999953
0.999928
0.999882
0.999815
0.999712
1.00051
1.00017
0.999747
0.999892
0.999828
0.999884
0.999944
0.999884
0.999844
0.999892
0.999966
1.00002
1.00004
1.00005
1.00004
1.00003
0.999983
0.99995
0.999766
0.999123
0.99988
1.00044
1.00028
1.00009
1.00006
1.00008
1.00009
1.00008
1.00006
1.00004
1
0.999965
0.999931
0.999912
0.999869
0.999836
1.00358
1.00016
0.999478
0.999135
0.999199
0.999423
0.999583
0.999723
0.999825
0.999862
0.999896
0.999958
1.00003
1.00007
1.0001
1.00012
1.00012
1.00012
0.998925
0.998094
0.998226
0.999189
0.999912
1.00019
1.00014
1.00005
1.00001
0.999986
0.999978
0.999984
0.999974
0.999959
0.999949
0.999952
0.999952
0.999959
1.00101
1.00005
0.999707
0.999502
0.99937
0.999427
0.999517
0.999607
0.999723
0.999868
0.999985
1.00004
1.00005
1.00008
1.00012
1.00017
1.0002
1.00022
0.998494
0.999983
1.00047
1.00037
1.00058
1.00076
1.00072
1.00065
1.0006
1.00057
1.00057
1.00057
1.00056
1.00054
1.00052
1.00049
1.00045
1.00041
1.00062
1.00247
1.00239
1.0013
1.00084
1.00062
1.00051
1.00048
1.00044
1.00037
1.00033
1.00029
1.00027
1.00028
1.0003
1.00033
1.00036
1.0004
0.998269
1.00068
1.00172
1.00135
1.00105
1.0009
1.00092
1.00096
1.0009
1.00081
1.00078
1.00078
1.00077
1.00074
1.0007
1.00066
1.00062
1.00058
0.998786
1.00001
1.00127
1.00127
1.00067
1.00056
1.00073
1.00068
1.00053
1.00052
1.00055
1.00053
1.0005
1.00048
1.00048
1.0005
1.00051
1.00052
1.00022
0.999391
1.00003
1.00066
1.00056
1.00055
1.0007
1.00072
1.0007
1.00075
1.0008
1.00075
1.00068
1.00066
1.00066
1.00065
1.00061
1.00058
0.999903
0.9998
1.00049
1.0009
1.00068
1.00055
1.00061
1.00063
1.00057
1.00052
1.0005
1.00048
1.00049
1.00052
1.00054
1.00056
1.00057
1.00058
0.999794
1.00045
1.0005
1.00049
1.00033
1.00028
1.00045
1.00062
1.00068
1.00069
1.00069
1.00067
1.00066
1.00067
1.00065
1.00062
1.00059
1.00057
0.998757
1.00083
1.00083
1.0007
1.00059
1.00055
1.00064
1.00065
1.00058
1.00054
1.00056
1.00058
1.00056
1.00056
1.00057
1.0006
1.00063
1.00065
0.99936
1.00107
1.00082
1.00038
1.0003
1.00037
1.00054
1.00062
1.00059
1.00058
1.00065
1.00072
1.00072
1.00068
1.00063
1.00059
1.00056
1.00055
0.999242
1.00085
1.00085
1.00061
1.0006
1.0006
1.00064
1.00063
1.00055
1.00049
1.00051
1.00055
1.00057
1.00057
1.00058
1.00059
1.0006
1.00061
0.998611
1.00033
1.00053
1.00047
1.00051
1.00054
1.00059
1.0006
1.00056
1.00055
1.00062
1.00068
1.0007
1.00066
1.00061
1.00055
1.00052
1.00052
0.999703
1.00021
1.00065
1.00068
1.00061
1.00057
1.0006
1.0006
1.00054
1.00053
1.0006
1.00068
1.00071
1.00067
1.00061
1.00057
1.00054
1.00058
0.864088
0.864163
0.863936
0.863445
0.863516
0.864149
0.864728
0.865409
0.86591
0.865863
0.86542
0.864842
0.864243
0.86364
0.863024
0.862381
0.8617
0.860981
0.860226
0.859437
0.858627
0.857788
0.85693
0.85605
0.855176
0.854405
0.853756
0.853199
0.852769
0.852524
0.852523
0.85275
0.85281
0.851552
0.848534
0.844655
0.840593
0.837519
0.834711
0.832619
0.830823
0.827916
0.826804
0.825534
0.823651
0.822243
0.821534
0.821596
0.820271
0.818141
0.817236
0.817965
0.822387
0.826347
0.8275
0.827132
0.82656
0.826401
0.826613
0.827099
0.827748
0.828485
0.829264
0.830065
0.830878
0.831702
0.832535
0.83338
0.834235
0.8351
0.835974
0.836855
0.83774
0.838627
0.839522
0.840446
0.841374
0.842289
0.843202
0.844113
0.845022
0.84593
0.846837
0.847742
0.848648
0.849557
0.850472
0.851397
0.85234
0.85331
0.854316
0.85536
0.856448
0.857587
0.858783
0.860019
0.861251
0.862441
0.8636
0.86476
0.86588
0.86683
0.867579
0.868299
0.868976
0.869206
0.869144
0.869136
0.869159
0.869355
0.870181
0.872542
0.876385
0.876669
0.86966
0.864255
0.864709
0.862583
0.858834
0.855438
0.849902
0.843107
0.835437
0.826193
0.815839
0.805633
0.796671
0.789462
0.784231
0.781045
0.77964
0.779551
0.780297
0.781511
0.78301
0.784785
0.786928
0.789538
0.792606
0.796005
0.799728
0.803664
0.807435
0.810529
0.81245
0.813197
0.813113
0.81266
0.812464
0.813261
0.814925
0.815894
0.816055
0.815926
0.815694
0.815483
0.815354
0.815281
0.815217
0.815141
0.814954
0.81463
0.814312
0.813781
0.812947
0.812384
0.811634
0.810381
0.810216
0.810448
0.809715
0.810431
0.812885
0.812004
0.808713
0.811656
0.819212
0.816585
0.807819
0.807417
0.863237
0.863258
0.863223
0.862693
0.86257
0.863069
0.863871
0.86436
0.864348
0.863935
0.863345
0.862753
0.862209
0.861697
0.861183
0.86064
0.860054
0.859423
0.85875
0.858051
0.857336
0.856621
0.855897
0.855159
0.854373
0.853466
0.852493
0.85155
0.850713
0.850052
0.849648
0.849514
0.849522
0.84879
0.846907
0.844825
0.841919
0.838178
0.835069
0.833279
0.830639
0.827909
0.826215
0.824873
0.822666
0.820033
0.819404
0.815634
0.815679
0.817802
0.816139
0.814278
0.818751
0.82341
0.824451
0.824019
0.82362
0.823626
0.824018
0.824685
0.825532
0.826469
0.827442
0.828417
0.829381
0.830333
0.831276
0.832215
0.833155
0.8341
0.835051
0.836012
0.836989
0.83798
0.83897
0.83993
0.84087
0.841811
0.842746
0.843683
0.844621
0.845561
0.846501
0.847438
0.84837
0.849294
0.85021
0.851121
0.852032
0.852955
0.853906
0.854899
0.85595
0.857074
0.858282
0.85956
0.860867
0.862159
0.863428
0.864696
0.865932
0.867018
0.86789
0.868699
0.869554
0.87011
0.870184
0.869988
0.869541
0.869034
0.869527
0.871634
0.874846
0.875033
0.868434
0.862397
0.862406
0.862328
0.859721
0.85555
0.849583
0.843106
0.835787
0.826632
0.816301
0.806101
0.797006
0.789658
0.784342
0.781058
0.779513
0.779239
0.779762
0.780741
0.782026
0.783636
0.785693
0.788324
0.791569
0.795295
0.799222
0.803282
0.807287
0.810666
0.812783
0.813591
0.813531
0.813169
0.813151
0.814162
0.815958
0.816886
0.817
0.816825
0.816546
0.816293
0.816121
0.816004
0.815905
0.815786
0.81554
0.815197
0.814891
0.814304
0.813409
0.812894
0.812106
0.81069
0.810602
0.81098
0.810068
0.81084
0.813674
0.812991
0.809756
0.811972
0.817872
0.814638
0.808477
0.808728
0.865875
0.866005
0.865876
0.865877
0.865586
0.865194
0.86467
0.863962
0.863231
0.862634
0.86221
0.861895
0.8616
0.861265
0.860866
0.860393
0.859842
0.859208
0.858489
0.857686
0.856815
0.855904
0.854995
0.854135
0.853333
0.852536
0.851655
0.850623
0.849459
0.848281
0.847196
0.846265
0.84558
0.844951
0.844219
0.8434
0.841887
0.839794
0.837451
0.834925
0.832276
0.829295
0.827209
0.826579
0.823949
0.822789
0.821389
0.819673
0.815634
0.817365
0.818052
0.817638
0.818463
0.819148
0.819166
0.819305
0.819938
0.820993
0.822303
0.823657
0.82495
0.826131
0.827204
0.828195
0.829127
0.830024
0.830899
0.831767
0.832632
0.833499
0.834369
0.835246
0.836133
0.837042
0.837965
0.838897
0.83984
0.84079
0.841745
0.842705
0.843668
0.844634
0.845601
0.846567
0.847531
0.848494
0.849456
0.850423
0.851399
0.852395
0.853419
0.854483
0.8556
0.856788
0.858059
0.859405
0.860796
0.862189
0.863558
0.864899
0.86619
0.867397
0.868503
0.869514
0.870408
0.87112
0.871572
0.87157
0.870874
0.869798
0.869771
0.871638
0.874405
0.873939
0.867669
0.86191
0.862106
0.863839
0.861683
0.856343
0.849675
0.842435
0.834134
0.82445
0.814101
0.804116
0.795363
0.788341
0.78326
0.780113
0.778651
0.778451
0.779076
0.7802
0.781645
0.783379
0.785479
0.788043
0.7911
0.794586
0.798419
0.802626
0.806981
0.810818
0.813223
0.814082
0.814017
0.813803
0.81415
0.815611
0.817597
0.818615
0.818773
0.818583
0.81825
0.817919
0.817668
0.817487
0.817307
0.817108
0.816826
0.816387
0.815945
0.815371
0.814425
0.813658
0.812906
0.811596
0.81106
0.811537
0.811347
0.811777
0.814317
0.81468
0.812593
0.814113
0.819024
0.817773
0.812666
0.810805
0.866459
0.866713
0.867161
0.866664
0.865756
0.865132
0.864955
0.865024
0.8651
0.865101
0.865036
0.864909
0.864687
0.864342
0.863867
0.863274
0.862577
0.86179
0.860926
0.859996
0.859002
0.857952
0.856854
0.855716
0.854586
0.853564
0.852631
0.851681
0.850624
0.849394
0.848022
0.846567
0.845112
0.843804
0.842728
0.841832
0.840907
0.840012
0.838681
0.836712
0.834765
0.831836
0.830129
0.828092
0.825718
0.82564
0.823164
0.821999
0.820786
0.81954
0.81824
0.817671
0.81805
0.818736
0.819297
0.819881
0.820624
0.821534
0.822536
0.823547
0.824519
0.825434
0.82629
0.82711
0.827911
0.828714
0.829526
0.830354
0.831194
0.832045
0.832899
0.833756
0.834622
0.835514
0.836436
0.837366
0.838304
0.839257
0.840228
0.841217
0.842224
0.843244
0.844271
0.845297
0.846315
0.84732
0.84831
0.84929
0.85027
0.851261
0.852279
0.853339
0.854463
0.855674
0.856992
0.858417
0.85992
0.861444
0.862934
0.864353
0.865686
0.866964
0.868242
0.869532
0.870674
0.871564
0.87244
0.873318
0.873247
0.872056
0.871191
0.872227
0.874449
0.873468
0.866909
0.861287
0.861572
0.863422
0.861663
0.856447
0.849272
0.841333
0.832604
0.822857
0.812643
0.802917
0.794485
0.78774
0.782886
0.779914
0.778588
0.778502
0.779225
0.780421
0.781888
0.78356
0.785468
0.787669
0.790241
0.793352
0.796984
0.80106
0.805639
0.81009
0.813065
0.814191
0.81424
0.814316
0.815264
0.817367
0.819539
0.82074
0.821033
0.820918
0.820634
0.820311
0.820014
0.819745
0.819451
0.819112
0.818688
0.81812
0.817531
0.816838
0.815809
0.814891
0.814067
0.8128
0.812167
0.812708
0.812968
0.813529
0.816162
0.817182
0.815615
0.816895
0.82096
0.819968
0.814979
0.812857
0.869426
0.86986
0.869049
0.868143
0.867961
0.86805
0.868074
0.868156
0.868287
0.868309
0.868112
0.867675
0.867031
0.866223
0.865284
0.864235
0.863082
0.861826
0.860474
0.859056
0.857621
0.85623
0.85495
0.853872
0.853053
0.852435
0.851979
0.85164
0.851241
0.850533
0.849374
0.847815
0.845953
0.844002
0.842273
0.840983
0.840076
0.839442
0.83858
0.837533
0.836333
0.834285
0.833078
0.830614
0.829321
0.82825
0.828062
0.824023
0.8213
0.819207
0.818046
0.817986
0.818725
0.819684
0.820395
0.820853
0.821153
0.821457
0.821839
0.822344
0.822944
0.82362
0.824343
0.825107
0.825902
0.826724
0.827565
0.82842
0.829278
0.830133
0.830983
0.831834
0.832692
0.833566
0.834455
0.835353
0.836269
0.837222
0.83822
0.839263
0.840349
0.841471
0.842615
0.843766
0.844906
0.84602
0.8471
0.848144
0.84916
0.850164
0.851177
0.85223
0.853356
0.8546
0.855997
0.857566
0.859287
0.861082
0.862836
0.864456
0.8659
0.867216
0.868483
0.869779
0.870958
0.871874
0.872449
0.873315
0.873894
0.873098
0.872027
0.872785
0.874869
0.874047
0.86788
0.862307
0.862035
0.863466
0.861872
0.856295
0.848455
0.840278
0.831566
0.821856
0.811752
0.802292
0.794188
0.787784
0.783217
0.780451
0.779263
0.779241
0.779932
0.780988
0.782195
0.783426
0.784635
0.785935
0.787617
0.789998
0.792985
0.796481
0.801221
0.80679
0.811049
0.812978
0.813401
0.813963
0.815753
0.818742
0.821412
0.822925
0.823327
0.823201
0.822912
0.822617
0.822362
0.822114
0.821788
0.821361
0.820845
0.820188
0.819465
0.81869
0.817681
0.816663
0.815767
0.81461
0.81393
0.814499
0.815257
0.816239
0.819007
0.82062
0.819812
0.82113
0.824042
0.822558
0.817956
0.81473
0.873091
0.872477
0.870865
0.870479
0.87048
0.870563
0.870555
0.87032
0.869878
0.869325
0.8687
0.867988
0.867157
0.866189
0.865079
0.863825
0.862425
0.86089
0.859244
0.857531
0.855809
0.854158
0.852692
0.851514
0.850744
0.850328
0.850031
0.849691
0.84931
0.848878
0.848172
0.847012
0.84546
0.843666
0.841768
0.840095
0.838917
0.838176
0.837601
0.837043
0.835834
0.834387
0.832854
0.830552
0.828826
0.82777
0.82567
0.822199
0.820107
0.818578
0.818049
0.818288
0.818849
0.819385
0.819678
0.819773
0.819791
0.819897
0.820173
0.82065
0.821279
0.822009
0.822779
0.823558
0.824322
0.825071
0.825804
0.826532
0.827265
0.828018
0.828802
0.829619
0.830448
0.831251
0.832049
0.832903
0.833831
0.834834
0.835909
0.83705
0.838252
0.839505
0.840792
0.842087
0.843364
0.8446
0.845776
0.846884
0.847927
0.848924
0.849912
0.850947
0.852089
0.853387
0.854883
0.856597
0.858525
0.86059
0.862645
0.864561
0.866254
0.867767
0.869155
0.870549
0.871922
0.873145
0.873674
0.873891
0.874602
0.874378
0.873274
0.873744
0.875665
0.874949
0.86921
0.86356
0.862775
0.863636
0.861711
0.855654
0.847595
0.839553
0.830922
0.821226
0.811384
0.802392
0.794691
0.788613
0.784222
0.781491
0.780222
0.780014
0.780413
0.781044
0.78161
0.781902
0.781995
0.7824
0.783643
0.785598
0.787717
0.790527
0.795592
0.802745
0.808728
0.811814
0.812733
0.813678
0.816032
0.819745
0.823295
0.825479
0.826217
0.826164
0.825822
0.825432
0.825085
0.824761
0.824366
0.823855
0.823251
0.822541
0.821753
0.820927
0.819932
0.818816
0.817785
0.816635
0.815883
0.81664
0.818157
0.819621
0.822651
0.825188
0.825097
0.825898
0.828359
0.826848
0.822505
0.817737
0.872059
0.871351
0.871082
0.871602
0.871904
0.871572
0.871003
0.870461
0.869937
0.869389
0.868696
0.867701
0.866318
0.864572
0.862569
0.860432
0.858257
0.856107
0.854045
0.852142
0.850451
0.849065
0.848049
0.84732
0.846965
0.846993
0.847096
0.847021
0.846791
0.846542
0.846106
0.845089
0.843444
0.841599
0.839837
0.838322
0.837259
0.836544
0.835932
0.835154
0.833982
0.83295
0.831032
0.829232
0.827552
0.826481
0.823241
0.820473
0.819028
0.817959
0.817605
0.817632
0.817729
0.817849
0.817931
0.818071
0.818333
0.818755
0.819303
0.819927
0.820561
0.821159
0.821692
0.822167
0.822604
0.82304
0.823512
0.824051
0.824679
0.825404
0.826222
0.827099
0.827964
0.828799
0.829687
0.830655
0.831684
0.832759
0.833874
0.835029
0.836225
0.837462
0.838736
0.840033
0.841335
0.842619
0.84387
0.845085
0.846277
0.847459
0.84865
0.84988
0.851175
0.85256
0.854081
0.855787
0.85774
0.859908
0.862117
0.864195
0.866018
0.867639
0.869092
0.870617
0.8724
0.874152
0.875488
0.875614
0.876015
0.876376
0.875323
0.875223
0.876742
0.875848
0.870374
0.864627
0.863275
0.863641
0.861285
0.854882
0.846888
0.839138
0.830592
0.821033
0.811771
0.803397
0.795964
0.789906
0.785424
0.782502
0.780993
0.780493
0.780457
0.780355
0.779819
0.778827
0.777885
0.777879
0.779362
0.781635
0.783478
0.786035
0.791608
0.800123
0.807529
0.811776
0.813213
0.814447
0.817161
0.821256
0.825404
0.828142
0.829269
0.829487
0.829329
0.829009
0.828619
0.828173
0.827615
0.826927
0.826161
0.825336
0.824444
0.823489
0.822378
0.821108
0.819882
0.818743
0.818205
0.819263
0.821549
0.823794
0.827117
0.830198
0.831085
0.831418
0.833419
0.831986
0.827848
0.822218
0.874101
0.87392
0.873832
0.873706
0.873164
0.872449
0.871886
0.871366
0.870677
0.86965
0.868079
0.865907
0.863288
0.860455
0.857597
0.854814
0.852133
0.849572
0.847201
0.845128
0.843478
0.842414
0.842007
0.841989
0.842052
0.842198
0.842365
0.842401
0.842357
0.842402
0.842329
0.841754
0.840652
0.83927
0.837803
0.836513
0.83558
0.83481
0.834066
0.833256
0.83229
0.831019
0.828927
0.827236
0.825994
0.824821
0.821521
0.819388
0.818144
0.817118
0.816654
0.816437
0.81638
0.816543
0.816843
0.817301
0.817831
0.818364
0.818825
0.819184
0.819441
0.81963
0.819793
0.819979
0.820231
0.820588
0.821079
0.821718
0.822503
0.823406
0.824369
0.825346
0.826357
0.827409
0.828451
0.829473
0.830479
0.831479
0.832488
0.833516
0.834571
0.835665
0.836817
0.838045
0.839341
0.840678
0.842032
0.843406
0.844818
0.846256
0.84767
0.849023
0.850313
0.85159
0.852978
0.854603
0.856612
0.859034
0.861638
0.864119
0.866213
0.867919
0.869411
0.87108
0.873431
0.875585
0.877325
0.877917
0.877896
0.87857
0.878027
0.877501
0.878642
0.877595
0.871763
0.865194
0.862647
0.862478
0.860054
0.853887
0.846391
0.839115
0.830736
0.82148
0.812877
0.805008
0.797665
0.791279
0.78649
0.78333
0.781601
0.78074
0.779978
0.778691
0.776774
0.774753
0.773463
0.773635
0.775663
0.778855
0.781282
0.783378
0.788725
0.797812
0.806664
0.812259
0.814139
0.815578
0.818907
0.824004
0.828874
0.831699
0.832659
0.832845
0.83282
0.832661
0.832392
0.831987
0.831364
0.830524
0.829568
0.828565
0.827489
0.82633
0.825077
0.82371
0.822353
0.821237
0.820967
0.822377
0.825373
0.828495
0.832123
0.835415
0.837197
0.837406
0.838732
0.83764
0.833882
0.827971
0.87702
0.876524
0.876175
0.875853
0.875309
0.874683
0.873953
0.87296
0.871661
0.869927
0.867665
0.865045
0.862285
0.859543
0.856883
0.85427
0.85164
0.848991
0.846424
0.844062
0.842016
0.84054
0.839814
0.839477
0.83905
0.838708
0.838671
0.838753
0.838902
0.839147
0.839104
0.838448
0.837344
0.836094
0.834854
0.833786
0.832949
0.8322
0.831535
0.830862
0.829878
0.828301
0.826828
0.825527
0.824677
0.82289
0.820134
0.818437
0.817211
0.816144
0.815636
0.815374
0.81542
0.815734
0.816157
0.816624
0.817009
0.817287
0.81746
0.817574
0.81768
0.817826
0.818043
0.818346
0.818739
0.819225
0.819805
0.820482
0.821248
0.82208
0.822946
0.823845
0.824797
0.825776
0.826726
0.82764
0.828554
0.829502
0.83051
0.831595
0.832758
0.833999
0.835325
0.836739
0.838216
0.839704
0.841149
0.842518
0.843805
0.845006
0.84612
0.8472
0.848326
0.849578
0.85109
0.852987
0.855348
0.858192
0.861309
0.864276
0.866758
0.868701
0.870421
0.872357
0.875268
0.878176
0.879979
0.88089
0.880702
0.881154
0.88122
0.88047
0.881356
0.880845
0.875086
0.867385
0.862794
0.861487
0.858997
0.853274
0.846542
0.839777
0.831577
0.82264
0.814498
0.806884
0.799486
0.792734
0.787515
0.784116
0.782116
0.780655
0.778801
0.7761
0.773055
0.770748
0.769899
0.770635
0.773087
0.777033
0.779577
0.780284
0.784678
0.794212
0.805123
0.812273
0.814794
0.816568
0.820513
0.826732
0.833072
0.83639
0.837008
0.836776
0.836623
0.836449
0.836159
0.835722
0.835032
0.834081
0.832991
0.831855
0.830657
0.829391
0.828085
0.826669
0.825128
0.823915
0.823917
0.825861
0.829545
0.833419
0.837361
0.840759
0.842984
0.843335
0.843723
0.842934
0.83994
0.834366
0.880599
0.880364
0.880124
0.879624
0.878775
0.877837
0.876764
0.875553
0.8741
0.872169
0.869863
0.867458
0.865008
0.862565
0.860146
0.857638
0.854955
0.852133
0.849305
0.846622
0.84422
0.842305
0.841006
0.840237
0.839671
0.839079
0.838535
0.83795
0.837397
0.836997
0.836403
0.835365
0.834021
0.832618
0.831376
0.830441
0.829802
0.829333
0.82895
0.828462
0.827631
0.826499
0.825648
0.824644
0.823402
0.821098
0.818907
0.817356
0.816117
0.815091
0.814612
0.814361
0.814465
0.814759
0.815104
0.815448
0.815731
0.815993
0.816259
0.816556
0.816882
0.817223
0.817551
0.817843
0.818082
0.818282
0.81849
0.81877
0.819173
0.81972
0.8204
0.821147
0.821915
0.822759
0.823682
0.824652
0.825667
0.826747
0.827933
0.829257
0.830732
0.832345
0.834066
0.835847
0.837629
0.839339
0.840895
0.842225
0.843309
0.844235
0.845166
0.846269
0.84767
0.849418
0.85152
0.854052
0.856902
0.859936
0.863061
0.865993
0.868611
0.870806
0.872515
0.874308
0.876845
0.880003
0.882304
0.883522
0.883676
0.883999
0.884441
0.883721
0.884276
0.884575
0.879986
0.872373
0.86664
0.863771
0.860209
0.85429
0.848042
0.841479
0.83323
0.824444
0.816514
0.808954
0.801428
0.794392
0.788684
0.784939
0.782487
0.780185
0.777095
0.773154
0.769592
0.767773
0.76782
0.768677
0.770478
0.7746
0.777418
0.777184
0.780871
0.791202
0.80388
0.811973
0.815322
0.817739
0.822127
0.829133
0.837162
0.84127
0.841619
0.841099
0.840791
0.840577
0.840213
0.839635
0.83875
0.837602
0.836369
0.835154
0.833917
0.832621
0.8313
0.829773
0.827895
0.826593
0.827095
0.829742
0.834023
0.838517
0.842789
0.846404
0.848817
0.849452
0.849076
0.847994
0.845398
0.840408
0.885064
0.884671
0.884263
0.883571
0.882652
0.881853
0.88093
0.87975
0.87817
0.876055
0.873662
0.871217
0.868767
0.866352
0.863912
0.861312
0.85848
0.855475
0.852465
0.849612
0.847007
0.84479
0.843129
0.842084
0.8414
0.840742
0.840032
0.839191
0.838202
0.837111
0.835932
0.834708
0.833542
0.832537
0.831762
0.831232
0.830863
0.830467
0.829925
0.829088
0.827811
0.826459
0.825005
0.823474
0.821783
0.819565
0.817554
0.816043
0.814805
0.813891
0.813445
0.813222
0.813361
0.813651
0.814042
0.814497
0.814986
0.81551
0.816028
0.816494
0.816851
0.817053
0.817071
0.816912
0.816631
0.816345
0.81619
0.816272
0.816625
0.817233
0.818053
0.818968
0.819892
0.8209
0.821969
0.823027
0.824061
0.825108
0.826241
0.827525
0.829002
0.830673
0.832509
0.834449
0.836423
0.838346
0.840126
0.841698
0.843068
0.844368
0.845808
0.847506
0.849487
0.851745
0.854137
0.85663
0.859182
0.861759
0.864498
0.867603
0.870917
0.873579
0.874896
0.876021
0.877946
0.880753
0.883733
0.885637
0.886238
0.886628
0.887362
0.886968
0.887048
0.887779
0.884791
0.878344
0.8726
0.868378
0.863302
0.856966
0.85092
0.844241
0.835692
0.826845
0.818956
0.811343
0.803627
0.796294
0.790154
0.785855
0.782739
0.779502
0.775298
0.77052
0.766996
0.766066
0.766814
0.767061
0.767766
0.772005
0.776142
0.775912
0.778915
0.790063
0.80392
0.812455
0.816444
0.819803
0.82431
0.831413
0.840792
0.846398
0.846145
0.84528
0.844929
0.84465
0.84425
0.843633
0.842637
0.841334
0.839965
0.838666
0.837385
0.836064
0.834679
0.832873
0.830652
0.829464
0.830599
0.83395
0.838739
0.843786
0.848382
0.852142
0.854526
0.855297
0.85451
0.852896
0.850324
0.845734
0.889793
0.889426
0.889066
0.88836
0.887347
0.886322
0.885135
0.883682
0.881814
0.879527
0.877026
0.874428
0.871817
0.86927
0.866783
0.864266
0.861618
0.858835
0.856003
0.853209
0.850521
0.848095
0.846104
0.844587
0.843465
0.842639
0.841946
0.841262
0.840517
0.83967
0.838737
0.837779
0.83685
0.836033
0.835317
0.834541
0.833591
0.832348
0.830757
0.828819
0.826682
0.824575
0.822445
0.820732
0.819345
0.817606
0.815748
0.814406
0.813276
0.812538
0.812161
0.812052
0.812306
0.812726
0.813313
0.814
0.814719
0.815377
0.815874
0.816159
0.816214
0.816056
0.81572
0.815283
0.81488
0.814648
0.81465
0.814883
0.815327
0.815964
0.816786
0.817822
0.819072
0.820298
0.821384
0.822325
0.823159
0.823974
0.824886
0.82599
0.827341
0.828943
0.830757
0.832727
0.834781
0.83684
0.838823
0.840716
0.842566
0.844374
0.846257
0.848277
0.85033
0.852366
0.854324
0.856178
0.858111
0.860476
0.863681
0.86802
0.872703
0.875842
0.876748
0.877344
0.879367
0.882329
0.88579
0.888364
0.889254
0.889265
0.88977
0.889719
0.889338
0.88988
0.888313
0.883604
0.878249
0.872739
0.866551
0.860279
0.854518
0.847719
0.838848
0.829836
0.821898
0.814179
0.806204
0.798526
0.791962
0.786957
0.783007
0.778911
0.773858
0.768681
0.76554
0.765435
0.766348
0.765864
0.765702
0.770399
0.776137
0.775824
0.77824
0.790231
0.805077
0.814265
0.818823
0.823065
0.82766
0.834265
0.844073
0.851347
0.850743
0.849172
0.84898
0.848714
0.848183
0.84752
0.846488
0.845097
0.843627
0.842267
0.840965
0.839614
0.838132
0.836004
0.833542
0.832573
0.834327
0.838378
0.843679
0.849129
0.853901
0.857633
0.859808
0.860376
0.859211
0.857032
0.854379
0.850184
0.894769
0.894389
0.893876
0.892995
0.891827
0.890649
0.889306
0.88763
0.885476
0.882823
0.879815
0.876632
0.873445
0.870404
0.867568
0.864881
0.862241
0.859587
0.856926
0.854333
0.851898
0.849673
0.84769
0.845986
0.84459
0.843488
0.842572
0.841654
0.840549
0.839239
0.837797
0.836315
0.834819
0.833335
0.831846
0.830304
0.828639
0.826758
0.824718
0.822645
0.820553
0.81862
0.817407
0.816969
0.816407
0.815099
0.813654
0.812605
0.811701
0.811173
0.81092
0.810979
0.811371
0.811942
0.812698
0.81352
0.814283
0.814835
0.81511
0.815149
0.815052
0.814909
0.814767
0.814651
0.814575
0.814528
0.814489
0.81446
0.814497
0.814712
0.815282
0.816261
0.817471
0.818644
0.81967
0.820542
0.821286
0.821997
0.82283
0.823929
0.825371
0.827153
0.8292
0.831422
0.833719
0.836003
0.838216
0.840343
0.84241
0.844361
0.846221
0.848079
0.849968
0.851886
0.853819
0.855798
0.858064
0.861001
0.864922
0.869927
0.875115
0.878462
0.879344
0.879894
0.882155
0.885326
0.888598
0.891366
0.892539
0.892284
0.892129
0.892064
0.891333
0.891249
0.89065
0.887381
0.882261
0.876053
0.869564
0.863704
0.858355
0.851622
0.842592
0.833413
0.825383
0.817537
0.809283
0.801226
0.794202
0.788468
0.783596
0.778744
0.773097
0.767854
0.765188
0.765413
0.766187
0.765176
0.764162
0.7698
0.776865
0.776525
0.778907
0.791733
0.807135
0.816942
0.821991
0.826751
0.831942
0.838392
0.847881
0.855593
0.855317
0.852719
0.852845
0.852903
0.852227
0.85141
0.850246
0.848714
0.847172
0.845817
0.844516
0.843147
0.841552
0.839153
0.836553
0.835892
0.838303
0.843014
0.848757
0.854451
0.859226
0.862738
0.864542
0.86462
0.862949
0.860211
0.857301
0.853497
0.899937
0.899551
0.898963
0.89805
0.896813
0.895426
0.893826
0.89187
0.889422
0.886475
0.883132
0.879507
0.875722
0.871912
0.868202
0.864682
0.861372
0.858256
0.855323
0.852581
0.85008
0.847891
0.846031
0.844466
0.843151
0.841963
0.840726
0.839287
0.837567
0.835549
0.833253
0.830786
0.828259
0.825783
0.823441
0.821301
0.819327
0.817526
0.815993
0.814796
0.814005
0.813844
0.814251
0.814576
0.814123
0.812995
0.811939
0.811092
0.810389
0.809996
0.809827
0.809989
0.810438
0.81108
0.811909
0.81276
0.813467
0.813881
0.814035
0.814103
0.814255
0.814519
0.814759
0.814789
0.814479
0.813818
0.812937
0.812066
0.811436
0.81122
0.811558
0.812403
0.813475
0.814705
0.816044
0.817358
0.818538
0.81958
0.820631
0.821904
0.823524
0.825512
0.827815
0.830348
0.833003
0.835726
0.838468
0.841129
0.843577
0.845821
0.847917
0.849977
0.852137
0.854447
0.856885
0.859459
0.862339
0.865721
0.869686
0.874131
0.878324
0.88111
0.882322
0.883542
0.886028
0.889021
0.891497
0.893613
0.894861
0.89502
0.894591
0.894324
0.893621
0.892976
0.892664
0.890341
0.885402
0.879049
0.872711
0.867274
0.86232
0.855836
0.846857
0.837554
0.829405
0.821443
0.812945
0.804526
0.797058
0.790695
0.784978
0.779312
0.773234
0.767992
0.765625
0.765789
0.766547
0.765117
0.763516
0.770013
0.778068
0.778258
0.781155
0.794478
0.809889
0.819902
0.825255
0.830149
0.836211
0.843421
0.852436
0.859223
0.859144
0.855995
0.856477
0.85715
0.856373
0.855312
0.853966
0.852292
0.850716
0.849385
0.848081
0.846704
0.844944
0.842314
0.839718
0.8395
0.842569
0.847834
0.853893
0.859666
0.864265
0.867324
0.868501
0.867835
0.86546
0.862163
0.858943
0.85552
0.905229
0.904877
0.904233
0.903215
0.901837
0.900297
0.898557
0.896495
0.894006
0.891067
0.887709
0.884008
0.880056
0.875968
0.871872
0.867901
0.864152
0.860664
0.857433
0.854468
0.851841
0.84965
0.847909
0.846509
0.845249
0.843929
0.842426
0.840689
0.838692
0.836441
0.833943
0.831197
0.828263
0.825299
0.822472
0.819916
0.817708
0.81597
0.814806
0.81422
0.814152
0.81441
0.814571
0.814207
0.813246
0.812094
0.81111
0.810255
0.809595
0.809193
0.809018
0.80917
0.809572
0.810189
0.810997
0.811818
0.812456
0.81279
0.812947
0.813163
0.813561
0.813971
0.814032
0.813469
0.812241
0.810554
0.808797
0.807385
0.806613
0.806553
0.807036
0.807833
0.808882
0.810315
0.812162
0.814216
0.816205
0.817955
0.81954
0.821177
0.823062
0.825252
0.8277
0.830302
0.832978
0.835774
0.83874
0.841806
0.844793
0.847596
0.850223
0.852784
0.855406
0.858119
0.860864
0.863615
0.866486
0.869615
0.873036
0.876709
0.880211
0.882712
0.884139
0.886007
0.889048
0.892149
0.894327
0.895903
0.896948
0.897345
0.897122
0.896718
0.896183
0.895408
0.894943
0.893209
0.888737
0.882586
0.876397
0.871134
0.866438
0.860331
0.851603
0.842234
0.833946
0.825915
0.817271
0.808577
0.800734
0.793837
0.787408
0.780977
0.774444
0.768986
0.766635
0.766664
0.767701
0.766084
0.764333
0.771273
0.779836
0.780784
0.784629
0.798217
0.813136
0.822889
0.828552
0.83362
0.840275
0.848318
0.857088
0.862777
0.862079
0.858943
0.859777
0.861352
0.860624
0.859169
0.857615
0.855873
0.854317
0.85301
0.851723
0.850331
0.848371
0.845515
0.843056
0.843392
0.847076
0.852779
0.859031
0.864699
0.868888
0.871241
0.871516
0.869851
0.866546
0.862605
0.859052
0.856058
0.910987
0.910625
0.909867
0.908775
0.907346
0.905683
0.903823
0.901703
0.899236
0.896394
0.893218
0.889759
0.886042
0.882141
0.878196
0.874366
0.870781
0.867497
0.864473
0.86166
0.859075
0.856769
0.854754
0.852971
0.851368
0.849893
0.848469
0.84706
0.845576
0.843835
0.841683
0.839093
0.836187
0.833144
0.83015
0.827355
0.824875
0.822813
0.821198
0.819952
0.818927
0.817915
0.816726
0.815319
0.813838
0.812488
0.811322
0.810325
0.809563
0.809032
0.808752
0.808772
0.809019
0.80947
0.810111
0.810814
0.811331
0.811556
0.811643
0.811824
0.812165
0.812322
0.811858
0.810592
0.808643
0.806384
0.804373
0.803093
0.802705
0.803096
0.803936
0.804891
0.806072
0.807634
0.80971
0.812302
0.814976
0.817314
0.819336
0.821307
0.823495
0.826019
0.828807
0.831687
0.834539
0.837316
0.840043
0.842752
0.845449
0.848089
0.850654
0.853219
0.8559
0.858724
0.861607
0.864497
0.86749
0.870733
0.87419
0.87779
0.881467
0.884541
0.886439
0.888279
0.891216
0.894399
0.896883
0.898673