/*--------------------------------*- C++ -*----------------------------------*\
  =========                 |
  \\      /  F ield         | OpenFOAM: The Open Source CFD Toolbox
   \\    /   O peration     | Website:  https://openfoam.org
    \\  /    A nd           | Version:  10
     \\/     M anipulation  |
\*---------------------------------------------------------------------------*/
FoamFile
{
    format      ascii;
    class       volVectorField;
    location    "2.34";
    object      Ua;
}
// * * * * * * * * * * * * * * * * * * * * * * * * * * * * * * * * * * * * * //

dimensions      [0 1 -1 0 0 0 0];

internalField   nonuniform List<vector> 
12225
(
(1.62561e-05 -2.08923e-06 0)
(4.75142e-05 -1.95492e-06 0)
(7.58279e-05 -1.70752e-06 0)
(0.000100733 -1.42796e-06 0)
(0.000122413 -1.171e-06 0)
(0.00014138 -9.639e-07 0)
(0.000158244 -8.15816e-07 0)
(0.000173586 -7.2741e-07 0)
(0.000187927 -6.97462e-07 0)
(0.000201729 -7.27167e-07 0)
(0.000215429 -8.23606e-07 0)
(0.000229492 -1.00433e-06 0)
(0.000244494 -1.30629e-06 0)
(0.000261277 -1.80721e-06 0)
(0.0002813 -2.68519e-06 0)
(0.000307635 -4.42383e-06 0)
(0.000348716 -8.747e-06 0)
(0.000438424 -2.45432e-05 0)
(1.09856e-05 -5.39349e-06 0)
(3.2357e-05 -5.0786e-06 0)
(5.22663e-05 -4.46727e-06 0)
(7.03855e-05 -3.76231e-06 0)
(8.672e-05 -3.10595e-06 0)
(0.00010148 -2.57237e-06 0)
(0.000114962 -2.18942e-06 0)
(0.000127483 -1.96223e-06 0)
(0.000139343 -1.89031e-06 0)
(0.000150828 -1.97903e-06 0)
(0.000162219 -2.24916e-06 0)
(0.000173825 -2.74933e-06 0)
(0.000186033 -3.57994e-06 0)
(0.000199398 -4.94868e-06 0)
(0.000214826 -7.32012e-06 0)
(0.000233976 -1.18942e-05 0)
(0.000259778 -2.24941e-05 0)
(0.000291084 -5.49065e-05 0)
(8.46456e-06 -7.38309e-06 0)
(2.50887e-05 -7.01627e-06 0)
(4.09224e-05 -6.23242e-06 0)
(5.57087e-05 -5.29831e-06 0)
(6.93831e-05 -4.41102e-06 0)
(8.2024e-05 -3.68024e-06 0)
(9.37891e-05 -3.15278e-06 0)
(0.000104868 -2.84266e-06 0)
(0.000115457 -2.75463e-06 0)
(0.000125751 -2.90069e-06 0)
(0.000135952 -3.31412e-06 0)
(0.000146285 -4.06766e-06 0)
(0.000157022 -5.30672e-06 0)
(0.000168533 -7.32315e-06 0)
(0.000181341 -1.07395e-05 0)
(0.000196101 -1.70235e-05 0)
(0.000212726 -3.00465e-05 0)
(0.000223733 -6.05238e-05 0)
(6.84457e-06 -8.6607e-06 0)
(2.04048e-05 -8.30873e-06 0)
(3.35775e-05 -7.45213e-06 0)
(4.6155e-05 -6.39269e-06 0)
(5.80396e-05 -5.36501e-06 0)
(6.92357e-05 -4.50756e-06 0)
(7.98169e-05 -3.88544e-06 0)
(8.98943e-05 -3.52345e-06 0)
(9.95957e-05 -3.43357e-06 0)
(0.000109057 -3.63514e-06 0)
(0.000118421 -4.1723e-06 0)
(0.000127849 -5.13564e-06 0)
(0.000137524 -6.69978e-06 0)
(0.000147662 -9.20082e-06 0)
(0.000158479 -1.33097e-05 0)
(0.000169945 -2.04333e-05 0)
(0.000180674 -3.35683e-05 0)
(0.000183914 -5.81768e-05 0)
(5.67453e-06 -9.43596e-06 0)
(1.70111e-05 -9.14251e-06 0)
(2.82281e-05 -8.27895e-06 0)
(3.91554e-05 -7.16417e-06 0)
(4.96802e-05 -6.05868e-06 0)
(5.97624e-05 -5.12438e-06 0)
(6.94204e-05 -4.44348e-06 0)
(7.87105e-05 -4.05216e-06 0)
(8.77108e-05 -3.97046e-06 0)
(9.65109e-05 -4.22494e-06 0)
(0.000105209 -4.86828e-06 0)
(0.000113909 -6.00235e-06 0)
(0.000122721 -7.81532e-06 0)
(0.000131735 -1.06506e-05 0)
(0.000140935 -1.51397e-05 0)
(0.000149909 -2.24385e-05 0)
(0.000156985 -3.44901e-05 0)
(0.000157476 -5.33997e-05 0)
(4.77593e-06 -9.81625e-06 0)
(1.43961e-05 -9.61198e-06 0)
(2.40828e-05 -8.78821e-06 0)
(3.36961e-05 -7.66947e-06 0)
(4.31189e-05 -6.53364e-06 0)
(5.22844e-05 -5.56144e-06 0)
(6.11734e-05 -4.85043e-06 0)
(6.98026e-05 -4.44799e-06 0)
(7.82112e-05 -4.38222e-06 0)
(8.64518e-05 -4.68612e-06 0)
(9.45836e-05 -5.41811e-06 0)
(0.000102665 -6.68458e-06 0)
(0.000110741 -8.67251e-06 0)
(0.000118804 -1.1702e-05 0)
(0.000126693 -1.6308e-05 0)
(0.000133845 -2.33294e-05 0)
(0.000138783 -3.38346e-05 0)
(0.000138611 -4.82138e-05 0)
(4.05984e-06 -9.86829e-06 0)
(1.23048e-05 -9.77474e-06 0)
(2.0748e-05 -9.02439e-06 0)
(2.92738e-05 -7.9404e-06 0)
(3.7768e-05 -6.8117e-06 0)
(4.61488e-05 -5.8335e-06 0)
(5.43718e-05 -5.11657e-06 0)
(6.24239e-05 -4.71854e-06 0)
(7.03137e-05 -4.67497e-06 0)
(7.80629e-05 -5.02402e-06 0)
(8.56976e-05 -5.8268e-06 0)
(9.32375e-05 -7.18777e-06 0)
(0.000100676 -9.28024e-06 0)
(0.000107939 -1.23798e-05 0)
(0.000114791 -1.68989e-05 0)
(0.000120668 -2.33789e-05 0)
(0.000124444 -3.22896e-05 0)
(0.000124455 -4.33156e-05 0)
(3.47536e-06 -9.6396e-06 0)
(1.05915e-05 -9.67089e-06 0)
(1.79985e-05 -9.01713e-06 0)
(2.56012e-05 -7.99679e-06 0)
(3.32928e-05 -6.90506e-06 0)
(4.09851e-05 -5.94758e-06 0)
(4.8617e-05 -5.24565e-06 0)
(5.6153e-05 -4.86568e-06 0)
(6.35773e-05 -4.84957e-06 0)
(7.08858e-05 -5.23901e-06 0)
(7.80768e-05 -6.09476e-06 0)
(8.51381e-05 -7.51381e-06 0)
(9.2026e-05 -9.64678e-06 0)
(9.86259e-05 -1.27137e-05 0)
(0.000104685 -1.70048e-05 0)
(0.000109717 -2.28244e-05 0)
(0.000112934 -3.02902e-05 0)
(0.000113432 -3.88934e-05 0)
(2.99039e-06 -9.16822e-06 0)
(9.16399e-06 -9.33154e-06 0)
(1.56924e-05 -8.78831e-06 0)
(2.24974e-05 -7.85214e-06 0)
(2.94836e-05 -6.82089e-06 0)
(3.65621e-05 -5.90659e-06 0)
(4.36614e-05 -5.23803e-06 0)
(5.07296e-05 -4.88837e-06 0)
(5.77311e-05 -4.90429e-06 0)
(6.46405e-05 -5.32925e-06 0)
(7.14331e-05 -6.22096e-06 0)
(7.80724e-05 -7.66476e-06 0)
(8.44901e-05 -9.78356e-06 0)
(9.05551e-05 -1.27401e-05 0)
(9.60307e-05 -1.67186e-05 0)
(0.000100534 -2.18573e-05 0)
(0.000103549 -2.80964e-05 0)
(0.000104607 -3.49504e-05 0)
(2.5831e-06 -8.4879e-06 0)
(7.95963e-06 -8.78311e-06 0)
(1.37326e-05 -8.35561e-06 0)
(1.98395e-05 -7.51659e-06 0)
(2.61986e-05 -6.56379e-06 0)
(3.27247e-05 -5.7115e-06 0)
(3.93406e-05 -5.09249e-06 0)
(4.59819e-05 -4.78423e-06 0)
(5.25975e-05 -4.83637e-06 0)
(5.91445e-05 -5.29238e-06 0)
(6.55802e-05 -6.20472e-06 0)
(7.18507e-05 -7.64465e-06 0)
(7.78741e-05 -9.70609e-06 0)
(8.35193e-05 -1.24996e-05 0)
(8.85831e-05 -1.6127e-05 0)
(9.27825e-05 -2.06226e-05 0)
(9.57955e-05 -2.58558e-05 0)
(9.73898e-05 -3.14323e-05 0)
(2.23759e-06 -7.63129e-06 0)
(6.93228e-06 -8.04983e-06 0)
(1.20478e-05 -7.7345e-06 0)
(1.75376e-05 -6.99868e-06 0)
(2.33354e-05 -6.13739e-06 0)
(2.93625e-05 -5.36266e-06 0)
(3.55386e-05 -4.80744e-06 0)
(4.17904e-05 -4.5507e-06 0)
(4.80542e-05 -4.64313e-06 0)
(5.42734e-05 -5.12656e-06 0)
(6.03918e-05 -6.0468e-06 0)
(6.63444e-05 -7.46019e-06 0)
(7.20442e-05 -9.43352e-06 0)
(7.73701e-05 -1.20342e-05 0)
(8.21577e-05 -1.53058e-05 0)
(8.62068e-05 -1.9225e-05 0)
(8.93226e-05 -2.36474e-05 0)
(9.13974e-05 -2.82748e-05 0)
(1.91728e-06 -6.7084e-06 0)
(5.98348e-06 -7.22736e-06 0)
(1.05017e-05 -7.00806e-06 0)
(1.54396e-05 -6.36965e-06 0)
(2.07418e-05 -5.60184e-06 0)
(2.63319e-05 -4.91054e-06 0)
(3.21251e-05 -4.42544e-06 0)
(3.804e-05 -4.22462e-06 0)
(4.40031e-05 -4.35819e-06 0)
(4.99481e-05 -4.86548e-06 0)
(5.58102e-05 -5.78563e-06 0)
(6.15191e-05 -7.16184e-06 0)
(6.69898e-05 -9.0391e-06 0)
(7.21152e-05 -1.14537e-05 0)
(7.67641e-05 -1.44132e-05 0)
(8.07937e-05 -1.78676e-05 0)
(8.40809e-05 -2.16821e-05 0)
(8.6573e-05 -2.56328e-05 0)
(1.70895e-06 -5.70015e-06 0)
(5.3523e-06 -6.29233e-06 0)
(9.44361e-06 -6.15126e-06 0)
(1.39687e-05 -5.60499e-06 0)
(1.88877e-05 -4.93434e-06 0)
(2.41318e-05 -4.33447e-06 0)
(2.96169e-05 -3.92813e-06 0)
(3.52574e-05 -3.79001e-06 0)
(4.09738e-05 -3.9681e-06 0)
(4.66925e-05 -4.49845e-06 0)
(5.23432e-05 -5.41364e-06 0)
(5.78524e-05 -6.74534e-06 0)
(6.31379e-05 -8.52125e-06 0)
(6.81055e-05 -1.07558e-05 0)
(7.26509e-05 -1.34353e-05 0)
(7.6672e-05 -1.65005e-05 0)
(8.00925e-05 -1.98344e-05 0)
(8.28907e-05 -2.32687e-05 0)
(1.50036e-06 -4.49777e-06 0)
(4.71069e-06 -5.1225e-06 0)
(8.35541e-06 -5.03886e-06 0)
(1.24508e-05 -4.58504e-06 0)
(1.69749e-05 -4.02539e-06 0)
(2.1865e-05 -3.5363e-06 0)
(2.70359e-05 -3.22788e-06 0)
(3.23973e-05 -3.16798e-06 0)
(3.78633e-05 -3.40046e-06 0)
(4.33546e-05 -3.9568e-06 0)
(4.87962e-05 -4.86232e-06 0)
(5.4114e-05 -6.1375e-06 0)
(5.92308e-05 -7.79504e-06 0)
(6.40668e-05 -9.83294e-06 0)
(6.85429e-05 -1.22251e-05 0)
(7.25905e-05 -1.49129e-05 0)
(7.61666e-05 -1.78019e-05 0)
(7.92671e-05 -2.07707e-05 0)
(1.28152e-06 -3.12564e-06 0)
(4.03024e-06 -3.68975e-06 0)
(7.20049e-06 -3.62166e-06 0)
(1.08561e-05 -3.25458e-06 0)
(1.49893e-05 -2.81981e-06 0)
(1.95363e-05 -2.46251e-06 0)
(2.44052e-05 -2.27285e-06 0)
(2.94985e-05 -2.30796e-06 0)
(3.47239e-05 -2.60538e-06 0)
(3.99969e-05 -3.19095e-06 0)
(4.524e-05 -4.08277e-06 0)
(5.0381e-05 -5.29198e-06 0)
(5.53514e-05 -6.82055e-06 0)
(6.00875e-05 -8.65715e-06 0)
(6.4534e-05 -1.07722e-05 0)
(6.86491e-05 -1.31145e-05 0)
(7.24114e-05 -1.56125e-05 0)
(7.58244e-05 -1.81812e-05 0)
(1.00716e-06 -1.63502e-06 0)
(3.19582e-06 -1.96404e-06 0)
(5.83991e-06 -1.85611e-06 0)
(9.06093e-06 -1.57298e-06 0)
(1.28406e-05 -1.28042e-06 0)
(1.70916e-05 -1.07574e-06 0)
(2.17014e-05 -1.02224e-06 0)
(2.65585e-05 -1.16386e-06 0)
(3.15628e-05 -1.53125e-06 0)
(3.66284e-05 -2.14588e-06 0)
(4.16842e-05 -3.02237e-06 0)
(4.66707e-05 -4.16691e-06 0)
(5.15372e-05 -5.5764e-06 0)
(5.62404e-05 -7.23617e-06 0)
(6.07447e-05 -9.11795e-06 0)
(6.50237e-05 -1.11794e-05 0)
(6.90628e-05 -1.33663e-05 0)
(7.286e-05 -1.56177e-05 0)
(5.1657e-07 4.77736e-09 0)
(1.78122e-06 1.21862e-07 0)
(3.6936e-06 2.87303e-07 0)
(6.40716e-06 4.5869e-07 0)
(9.81119e-06 5.88194e-07 0)
(1.3753e-05 6.26017e-07 0)
(1.80995e-05 5.29202e-07 0)
(2.27408e-05 2.65215e-07 0)
(2.75827e-05 -1.88492e-07 0)
(3.25568e-05 -8.56908e-07 0)
(3.76288e-05 -1.7835e-06 0)
(4.27522e-05 -2.92704e-06 0)
(4.78582e-05 -4.28242e-06 0)
(5.28885e-05 -5.83383e-06 0)
(5.77946e-05 -7.55516e-06 0)
(6.25382e-05 -9.41108e-06 0)
(6.70921e-05 -1.13596e-05 0)
(7.14406e-05 -1.33558e-05 0)
(1.21106e-06 1.96755e-06 0)
(3.70976e-06 2.6677e-06 0)
(6.45708e-06 2.98884e-06 0)
(9.59633e-06 3.08891e-06 0)
(1.31816e-05 3.04668e-06 0)
(1.7196e-05 2.87742e-06 0)
(2.15799e-05 2.5729e-06 0)
(2.62566e-05 2.12113e-06 0)
(3.11483e-05 1.51287e-06 0)
(3.61698e-05 7.32639e-07 0)
(4.12197e-05 -2.53493e-07 0)
(4.62525e-05 -1.44164e-06 0)
(5.12825e-05 -2.84034e-06 0)
(5.62858e-05 -4.36643e-06 0)
(6.12092e-05 -5.99827e-06 0)
(6.60105e-05 -7.70869e-06 0)
(7.06592e-05 -9.46742e-06 0)
(7.51353e-05 -1.12435e-05 0)
(1.70461e-06 4.69336e-06 0)
(5.2328e-06 5.79201e-06 0)
(9.00464e-06 6.30077e-06 0)
(1.30389e-05 6.38695e-06 0)
(1.73536e-05 6.18567e-06 0)
(2.19461e-05 5.77943e-06 0)
(2.67896e-05 5.21243e-06 0)
(3.18395e-05 4.50727e-06 0)
(3.70426e-05 3.67603e-06 0)
(4.23428e-05 2.72627e-06 0)
(4.76863e-05 1.66643e-06 0)
(5.29973e-05 4.61439e-07 0)
(5.81835e-05 -8.92464e-07 0)
(6.32309e-05 -2.39141e-06 0)
(6.81608e-05 -3.95006e-06 0)
(7.29548e-05 -5.53428e-06 0)
(7.75949e-05 -7.12527e-06 0)
(8.207e-05 -8.70442e-06 0)
(1.95766e-06 7.7702e-06 0)
(6.04649e-06 8.87403e-06 0)
(1.04597e-05 9.37112e-06 0)
(1.5161e-05 9.37146e-06 0)
(2.01238e-05 9.00853e-06 0)
(2.5318e-05 8.39022e-06 0)
(3.0705e-05 7.59173e-06 0)
(3.62386e-05 6.66186e-06 0)
(4.1869e-05 5.63155e-06 0)
(4.75462e-05 4.52092e-06 0)
(5.32234e-05 3.34443e-06 0)
(5.88576e-05 2.11321e-06 0)
(6.44102e-05 8.40512e-07 0)
(6.98014e-05 -5.39576e-07 0)
(7.50061e-05 -2.01889e-06 0)
(8.0059e-05 -3.49805e-06 0)
(8.49521e-05 -4.95481e-06 0)
(8.96755e-05 -6.37896e-06 0)
(2.35135e-06 1.04696e-05 0)
(7.22189e-06 1.13667e-05 0)
(1.24079e-05 1.16888e-05 0)
(1.78671e-05 1.15146e-05 0)
(2.35551e-05 1.09676e-05 0)
(2.94267e-05 1.01607e-05 0)
(3.54341e-05 9.1801e-06 0)
(4.15282e-05 8.08563e-06 0)
(4.76598e-05 6.91677e-06 0)
(5.37827e-05 5.69917e-06 0)
(5.98546e-05 4.44992e-06 0)
(6.58387e-05 3.18133e-06 0)
(7.17039e-05 1.90337e-06 0)
(7.74223e-05 6.2504e-07 0)
(8.29323e-05 -7.28325e-07 0)
(8.82213e-05 -2.12997e-06 0)
(9.33226e-05 -3.48917e-06 0)
(9.82331e-05 -4.80071e-06 0)
(2.83827e-06 1.2704e-05 0)
(8.6575e-06 1.33508e-05 0)
(1.47491e-05 1.3447e-05 0)
(2.10752e-05 1.30665e-05 0)
(2.7583e-05 1.23291e-05 0)
(3.42172e-05 1.13491e-05 0)
(4.09226e-05 1.02165e-05 0)
(4.76469e-05 8.99543e-06 0)
(5.43417e-05 7.72848e-06 0)
(6.09636e-05 6.44287e-06 0)
(6.74754e-05 5.15575e-06 0)
(7.38457e-05 3.87825e-06 0)
(8.00497e-05 2.61813e-06 0)
(8.6068e-05 1.38145e-06 0)
(9.18728e-05 1.63294e-07 0)
(9.74302e-05 -1.12138e-06 0)
(0.000102748 -2.38216e-06 0)
(0.000107849 -3.58533e-06 0)
(3.43333e-06 1.43218e-05 0)
(1.04056e-05 1.47267e-05 0)
(1.758e-05 1.45952e-05 0)
(2.49214e-05 1.40129e-05 0)
(3.23726e-05 1.31021e-05 0)
(3.9872e-05 1.19777e-05 0)
(4.73606e-05 1.07305e-05 0)
(5.47856e-05 9.42454e-06 0)
(6.21009e-05 8.10205e-06 0)
(6.92681e-05 6.78892e-06 0)
(7.6256e-05 5.50043e-06 0)
(8.30406e-05 4.24531e-06 0)
(8.96037e-05 3.0286e-06 0)
(9.5933e-05 1.8534e-06 0)
(0.00010202 7.21828e-07 0)
(0.000107837 -4.07296e-07 0)
(0.000113379 -1.56271e-06 0)
(0.000118672 -2.65494e-06 0)
(4.1574e-06 1.52448e-05 0)
(1.25299e-05 1.54365e-05 0)
(2.10074e-05 1.51041e-05 0)
(2.95515e-05 1.43503e-05 0)
(3.81009e-05 1.33027e-05 0)
(4.65912e-05 1.20765e-05 0)
(5.49636e-05 1.07607e-05 0)
(6.31687e-05 9.41677e-06 0)
(7.11666e-05 8.08395e-06 0)
(7.89269e-05 6.78507e-06 0)
(8.64273e-05 5.53229e-06 0)
(9.36527e-05 4.33132e-06 0)
(0.000100594 3.18423e-06 0)
(0.000107247 2.09133e-06 0)
(0.000113611 1.05214e-06 0)
(0.000119679 5.98381e-08 0)
(0.000125442 -9.67539e-07 0)
(0.000130914 -1.94391e-06 0)
(5.04222e-06 1.54346e-05 0)
(1.51234e-05 1.54508e-05 0)
(2.51804e-05 1.49609e-05 0)
(3.51636e-05 1.40839e-05 0)
(4.50068e-05 1.29514e-05 0)
(5.46459e-05 1.16773e-05 0)
(6.40274e-05 1.03466e-05 0)
(7.31106e-05 9.01613e-06 0)
(8.18668e-05 7.72051e-06 0)
(9.02779e-05 6.47841e-06 0)
(9.83342e-05 5.29832e-06 0)
(0.000106033 4.18274e-06 0)
(0.000113375 3.13094e-06 0)
(0.000120367 2.14075e-06 0)
(0.000127019 1.20948e-06 0)
(0.000133339 3.34352e-07 0)
(0.000139322 -5.43904e-07 0)
(0.000144978 -1.3993e-06 0)
(6.13875e-06 1.48685e-05 0)
(1.83343e-05 1.47513e-05 0)
(3.03341e-05 1.41587e-05 0)
(4.2068e-05 1.32194e-05 0)
(5.34636e-05 1.20658e-05 0)
(6.44611e-05 1.0807e-05 0)
(7.50185e-05 9.52158e-06 0)
(8.51109e-05 8.25991e-06 0)
(9.47277e-05 7.05092e-06 0)
(0.000103869 5.90864e-06 0)
(0.000112542 4.83788e-06 0)
(0.000120759 3.8382e-06 0)
(0.000128538 2.90652e-06 0)
(0.000135896 2.03876e-06 0)
(0.000142852 1.23064e-06 0)
(0.000149428 4.78131e-07 0)
(0.000155628 -2.49536e-07 0)
(0.000161469 -9.79024e-07 0)
(7.53661e-06 1.35159e-05 0)
(2.24233e-05 1.33117e-05 0)
(3.6882e-05 1.26798e-05 0)
(5.08104e-05 1.17507e-05 0)
(6.41287e-05 1.06503e-05 0)
(7.6787e-05 9.47866e-06 0)
(8.87637e-05 8.30491e-06 0)
(0.000100059 7.17145e-06 0)
(0.00011069 6.10087e-06 0)
(0.000120682 5.10262e-06 0)
(0.000130067 4.17819e-06 0)
(0.000138879 3.32484e-06 0)
(0.000147152 2.53787e-06 0)
(0.00015492 1.81201e-06 0)
(0.000162216 1.14212e-06 0)
(0.000169073 5.235e-07 0)
(0.000175508 -5.53859e-08 0)
(0.000181544 -6.52267e-07 0)
(9.4171e-06 1.13056e-05 0)
(2.79185e-05 1.10659e-05 0)
(4.56632e-05 1.04692e-05 0)
(6.25002e-05 9.63554e-06 0)
(7.83411e-05 8.67562e-06 0)
(9.31548e-05 7.67413e-06 0)
(0.000106953 6.68744e-06 0)
(0.000119778 5.74839e-06 0)
(0.000131684 4.87302e-06 0)
(0.000142738 4.06658e-06 0)
(0.000153003 3.32813e-06 0)
(0.000162543 2.65356e-06 0)
(0.000171418 2.03751e-06 0)
(0.000179683 1.47444e-06 0)
(0.000187388 9.59165e-07 0)
(0.00019458 4.87026e-07 0)
(0.000201298 5.39504e-08 0)
(0.000207565 -3.97457e-07 0)
(1.22427e-05 8.04623e-06 0)
(3.61683e-05 7.83323e-06 0)
(5.88236e-05 7.36539e-06 0)
(7.99789e-05 6.73571e-06 0)
(9.95356e-05 6.02691e-06 0)
(0.000117497 5.30017e-06 0)
(0.000133935 4.59467e-06 0)
(0.000148957 3.93203e-06 0)
(0.000162685 3.32173e-06 0)
(0.000175244 2.76576e-06 0)
(0.000186752 2.26197e-06 0)
(0.000197316 1.80625e-06 0)
(0.000207033 1.39389e-06 0)
(0.00021599 1.02024e-06 0)
(0.000224262 6.81038e-07 0)
(0.000231917 3.72552e-07 0)
(0.000239015 9.14923e-08 0)
(0.000245595 -2.00741e-07 0)
(1.80304e-05 3.06632e-06 0)
(5.30638e-05 2.97526e-06 0)
(8.57655e-05 2.78702e-06 0)
(0.000115741 2.53887e-06 0)
(0.000142877 2.26326e-06 0)
(0.000167258 1.9837e-06 0)
(0.000189085 1.71486e-06 0)
(0.000208608 1.46451e-06 0)
(0.000226091 1.23578e-06 0)
(0.00024178 1.02896e-06 0)
(0.000255902 8.42883e-07 0)
(0.000268655 6.75692e-07 0)
(0.000280208 5.25368e-07 0)
(0.000290711 3.89972e-07 0)
(0.000300289 2.67758e-07 0)
(0.000309051 1.57203e-07 0)
(0.000317091 5.69883e-08 0)
(0.000324459 -4.79142e-08 0)
(1.47693e-05 -1.12953e-05 -1.45814e-31)
(4.44069e-05 -1.12794e-05 1.45258e-31)
(7.4206e-05 -1.12521e-05 0)
(0.000104139 -1.12136e-05 0)
(0.000134178 -1.11641e-05 0)
(0.000164293 -1.11023e-05 -1.41554e-31)
(0.000194452 -1.1026e-05 0)
(0.000224615 -1.09328e-05 0)
(0.000254738 -1.082e-05 0)
(0.000284769 -1.06856e-05 0)
(0.000314652 -1.05283e-05 1.32361e-31)
(0.000344323 -1.03477e-05 0)
(0.000373713 -1.01442e-05 0)
(0.000402749 -9.91943e-06 0)
(0.000431352 -9.67616e-06 0)
(0.000459439 -9.41832e-06 1.16305e-31)
(0.000486924 -9.1511e-06 0)
(0.000513714 -8.88078e-06 0)
(0.000539712 -8.61441e-06 0)
(0.000564818 -8.35931e-06 0)
(0.000588921 -8.12255e-06 0)
(0.000611903 -7.91044e-06 0)
(0.000633637 -7.72822e-06 0)
(0.00065398 -7.57995e-06 9.02485e-32)
(0.000672773 -7.46863e-06 -8.85879e-32)
(0.000689845 -7.39632e-06 8.74519e-32)
(0.000705009 -7.36435e-06 8.68596e-32)
(0.000718072 -7.37346e-06 0)
(0.000728841 -7.42389e-06 0)
(0.00073715 -7.5155e-06 -8.84336e-32)
(0.000742883 -7.64763e-06 -9.00737e-32)
(0.000746011 -7.81911e-06 0)
(0.000746638 -8.02818e-06 0)
(0.000745041 -8.27252e-06 -9.81248e-32)
(0.000741688 -8.54961e-06 0)
(0.000737238 -8.85751e-06 0)
(0.000732491 -9.19612e-06 1.1021e-31)
(0.000728316 -9.56864e-06 0)
(0.000725563 -9.9832e-06 1.20465e-31)
(0.000724987 -1.04541e-05 2.53115e-31)
(0.000727216 -1.10029e-05 0)
(0.000732761 -1.16602e-05 0)
(0.000742065 -1.24675e-05 0)
(0.000755604 -1.34822e-05 0)
(0.00077401 -1.47863e-05 0)
(0.000798285 -1.6504e-05 4.0777e-31)
(0.000830155 -1.8837e-05 4.67326e-31)
(0.00087281 -2.21446e-05 5.51818e-31)
(0.000932707 -2.71456e-05 0)
(0.00102493 -3.55153e-05 -8.9385e-31)
(0.0011948 -5.20901e-05 0)
(0.00167539 -9.72774e-05 2.47501e-30)
(0.00825807 -0.000485033 1.23428e-29)
(0.0161814 -0.000926899 0)
(0.0173014 0.000800771 0)
(0.0163303 0.000520871 0)
(0.0156628 0.000379758 -1.01863e-29)
(0.015155 0.000299457 0)
(0.0147416 0.000248968 0)
(0.0143893 0.000214383 0)
(0.01408 0.000188956 0)
(0.013803 0.000169201 0)
(0.0135516 0.0001532 0)
(0.0133211 0.000139825 0)
(0.0131083 0.000128372 0)
(0.0129109 0.00011838 3.36486e-30)
(0.012727 0.000109533 0)
(0.0125552 0.000101609 0)
(0.0123943 9.44498e-05 -2.73409e-30)
(0.0122434 8.79344e-05 -2.56211e-30)
(0.0121015 8.19722e-05 0)
(0.0119681 7.64919e-05 2.25983e-30)
(0.0118425 7.14367e-05 -2.12619e-30)
(0.0117242 6.67597e-05 0)
(0.0116126 6.2422e-05 1.88774e-30)
(0.0115074 5.83907e-05 0)
(0.0114081 5.46375e-05 0)
(0.0113143 5.11378e-05 -1.589e-30)
(0.0112259 4.78703e-05 0)
(0.0111423 4.48159e-05 1.42153e-30)
(0.0110634 4.19581e-05 0)
(0.0109889 3.92818e-05 -1.27485e-30)
(0.0109186 3.67738e-05 -1.20836e-30)
(0.0108522 3.4422e-05 -1.146e-30)
(0.0107895 3.22156e-05 -2.17497e-30)
(0.0107303 3.01448e-05 2.06512e-30)
(0.0106744 2.82006e-05 0)
(0.0106217 2.6375e-05 0)
(0.010572 2.46604e-05 0)
(0.0105252 2.305e-05 1.68864e-30)
(0.010481 2.15374e-05 1.60836e-30)
(0.0104393 2.01168e-05 -1.53295e-30)
(0.0104001 1.87828e-05 0)
(0.0103632 1.75302e-05 1.39562e-30)
(0.0103284 1.63543e-05 1.33319e-30)
(0.0102957 1.52506e-05 1.27459e-30)
(0.010265 1.42151e-05 0)
(0.010236 1.32438e-05 0)
(0.0102089 1.23331e-05 0)
(0.0101834 1.14794e-05 1.07432e-30)
(0.0101594 1.06795e-05 0)
(0.0101369 9.93041e-06 0)
(0.0101159 9.22909e-06 -9.54786e-31)
(0.0100961 8.57282e-06 0)
(0.0100776 7.959e-06 0)
(0.0100603 7.38515e-06 -8.56835e-31)
(0.0100441 6.84893e-06 0)
(0.0100289 6.34814e-06 0)
(0.0100147 5.88066e-06 7.76903e-31)
(0.0100015 5.44452e-06 7.53729e-31)
(0.0099891 5.03784e-06 0)
(0.00997756 4.65882e-06 -7.11984e-31)
(0.00996679 4.3058e-06 0)
(0.00995675 3.97716e-06 6.75758e-31)
(0.0099474 3.67141e-06 0)
(0.0099387 3.38711e-06 6.44403e-31)
(0.0099306 3.12292e-06 6.30357e-31)
(0.00992306 2.87756e-06 0)
(0.00991606 2.64983e-06 0)
(0.00990956 2.43858e-06 0)
(0.00990352 2.24276e-06 0)
(0.00989792 2.06134e-06 0)
(0.00989273 1.89338e-06 0)
(0.00988792 1.73798e-06 0)
(0.00988347 1.59428e-06 5.49108e-31)
(0.00987935 1.46151e-06 -5.42044e-31)
(0.00987554 1.33891e-06 0)
(0.00987202 1.22577e-06 0)
(0.00986876 1.12145e-06 0)
(0.00986576 1.02532e-06 0)
(0.00986299 9.36807e-07 -1.02829e-30)
(0.00986044 8.55364e-07 0)
(0.00985809 7.80486e-07 1.01167e-30)
(0.00985593 7.11699e-07 -1.00435e-30)
(0.00985394 6.48562e-07 0)
(0.00985211 5.90663e-07 0)
(0.00985043 5.37619e-07 0)
(0.00984889 4.89075e-07 9.80674e-31)
(0.00984747 4.44702e-07 9.75951e-31)
(0.00984617 4.04197e-07 0)
(0.00984498 3.67282e-07 9.67707e-31)
(0.00984389 3.33702e-07 9.64128e-31)
(0.00984289 3.03228e-07 -9.60888e-31)
(0.00984197 2.75655e-07 0)
(0.00984112 2.508e-07 0)
(0.00984035 2.28508e-07 -9.52922e-31)
(0.00983963 2.0865e-07 0)
(0.00983898 1.91126e-07 0)
(0.00983837 1.75868e-07 0)
(0.0098378 1.62844e-07 0)
(0.00983726 1.52063e-07 9.44725e-31)
(0.00983676 1.43583e-07 9.43801e-31)
(0.00983627 1.37522e-07 0)
(0.0098358 1.34065e-07 9.42727e-31)
(0.00983533 1.33489e-07 0)
(0.00983485 1.36175e-07 0)
(0.00983435 1.42644e-07 9.43477e-31)
(0.00983381 1.53587e-07 0)
(0.00983322 1.69916e-07 9.46193e-31)
(0.00983256 1.92826e-07 0)
(0.00983178 2.23881e-07 0)
(0.00983086 2.65119e-07 9.55811e-31)
(0.00982975 3.19212e-07 0)
(0.00982839 3.89663e-07 9.68454e-31)
(0.00982671 4.81094e-07 0)
(0.0098246 5.99646e-07 0)
(0.00982194 7.53545e-07 0)
(0.00981854 9.53937e-07 -1.02587e-30)
(0.00981418 1.21614e-06 0)
(0.00980855 1.5616e-06 1.08776e-30)
(0.00980121 2.02099e-06 0)
(0.00979157 2.63951e-06 0)
(0.00977879 3.48623e-06 0)
(0.00976159 4.67185e-06 0)
(0.00973806 6.38524e-06 0)
(0.00970504 8.97706e-06 0)
(0.00965695 1.31798e-05 0)
(0.00958244 2.08107e-05 -6.11342e-30)
(0.00945292 3.76949e-05 0)
(0.00916589 9.06389e-05 0)
(6.09408e-06 -2.93699e-05 3.7938e-31)
(1.83195e-05 -2.93059e-05 -3.7812e-31)
(3.06001e-05 -2.92175e-05 0)
(4.29197e-05 -2.91044e-05 7.50304e-31)
(5.52635e-05 -2.89677e-05 0)
(6.76138e-05 -2.88051e-05 -3.71499e-31)
(7.99439e-05 -2.8612e-05 -7.35826e-31)
(9.22142e-05 -2.83822e-05 -7.29307e-31)
(0.000104372 -2.81098e-05 0)
(0.000116356 -2.77899e-05 -7.12856e-31)
(0.000128093 -2.7419e-05 3.5287e-31)
(0.000139508 -2.69955e-05 0)
(0.000150527 -2.65198e-05 0)
(0.000161075 -2.59942e-05 0)
(0.00017109 -2.54235e-05 0)
(0.000180524 -2.48152e-05 3.18598e-31)
(0.000189347 -2.41795e-05 0)
(0.000197563 -2.35293e-05 5.9889e-31)
(0.000205204 -2.28802e-05 0)
(0.000212342 -2.22488e-05 0)
(0.000219075 -2.16521e-05 -5.49347e-31)
(0.000225532 -2.1106e-05 0)
(0.000231854 -2.06245e-05 5.22183e-31)
(0.000238189 -2.02192e-05 2.58515e-31)
(0.000244683 -1.98987e-05 -2.54296e-31)
(0.000251472 -1.96694e-05 2.51252e-31)
(0.000258681 -1.95357e-05 2.49439e-31)
(0.000266419 -1.95004e-05 0)
(0.000274775 -1.95653e-05 0)
(0.000283825 -1.9731e-05 -2.51666e-31)
(0.000293628 -1.99977e-05 -7.5806e-31)
(0.000304235 -2.0365e-05 0)
(0.000315691 -2.0832e-05 0)
(0.00032804 -2.13977e-05 -2.72687e-31)
(0.000341337 -2.20619e-05 0)
(0.000355643 -2.28266e-05 0)
(0.000371035 -2.36981e-05 3.0191e-31)
(0.000387608 -2.46901e-05 0)
(0.000405476 -2.58265e-05 9.77467e-31)
(0.000424774 -2.71448e-05 6.91649e-31)
(0.000445673 -2.86991e-05 0)
(0.000468387 -3.05644e-05 0)
(0.000493201 -3.28438e-05 -1.65141e-30)
(0.000520509 -3.56801e-05 -1.79546e-30)
(0.00055089 -3.92763e-05 -1.97851e-30)
(0.000585223 -4.39334e-05 3.33787e-30)
(0.000624908 -5.01218e-05 1.28086e-30)
(0.000672286 -5.86247e-05 -1.46779e-30)
(0.000731561 -7.086e-05 3.59428e-30)
(0.000811163 -8.97146e-05 -2.29992e-30)
(0.000931836 -0.0001223 0)
(0.00117198 -0.000194412 4.99775e-30)
(0.00258639 -0.000648926 5.00177e-29)
(0.00997696 -0.00446278 0)
(0.0160397 0.00171957 0)
(0.0157603 0.0013063 0)
(0.0153655 0.0010282 -2.69411e-29)
(0.0149811 0.000844714 0)
(0.0146295 0.00071868 -3.85364e-29)
(0.014311 0.000627112 0)
(0.0140216 0.000557058 -3.01233e-29)
(0.0137572 0.000501191 0)
(0.0135143 0.000455168 2.48078e-29)
(0.0132899 0.000416269 0)
(0.0130816 0.000382709 -2.10209e-29)
(0.0128877 0.000353272 2.89169e-29)
(0.0127065 0.00032711 0)
(0.0125369 0.000303614 1.68804e-29)
(0.0123779 0.000282338 -7.5905e-30)
(0.0122285 0.000262946 -7.0857e-30)
(0.012088 0.00024518 0)
(0.0119558 0.000228836 1.91571e-29)
(0.0118312 0.000213748 -5.80459e-30)
(0.0117138 0.000199783 0)
(0.0116031 0.000186825 5.10324e-30)
(0.0114986 0.000174777 1.01217e-29)
(0.0114 0.000163558 0)
(0.0113068 0.000153094 -4.22433e-30)
(0.0112189 0.000143322 0)
(0.0111359 0.000134186 -4.25735e-30)
(0.0110574 0.000125636 0)
(0.0109834 0.000117629 3.81855e-30)
(0.0109134 0.000110123 -3.10428e-30)
(0.0108474 0.000103085 -9.27451e-30)
(0.010785 9.64805e-05 -1.751e-29)
(0.0107261 9.02816e-05 1.65347e-29)
(0.0106706 8.44614e-05 0)
(0.0106181 7.89956e-05 0)
(0.0105687 7.3862e-05 0)
(0.010522 6.904e-05 -5.05978e-30)
(0.0104781 6.45107e-05 3.82988e-30)
(0.0104366 6.02566e-05 -3.60799e-30)
(0.0103976 5.62615e-05 0)
(0.0103608 5.25101e-05 1.05902e-29)
(0.0103262 4.89884e-05 3.02023e-30)
(0.0102937 4.5683e-05 2.84781e-30)
(0.0102631 4.25816e-05 0)
(0.0102343 3.96724e-05 0)
(0.0102072 3.69446e-05 0)
(0.0101818 3.43876e-05 2.25857e-30)
(0.010158 3.19918e-05 0)
(0.0101356 2.97479e-05 4.99021e-30)
(0.0101147 2.76472e-05 2.86212e-30)
(0.010095 2.56814e-05 -4.56207e-30)
(0.0100766 2.38427e-05 0)
(0.0100593 2.21237e-05 -5.80624e-30)
(0.0100432 2.05175e-05 0)
(0.0100281 1.90173e-05 -3.86039e-30)
(0.010014 1.7617e-05 5.09655e-30)
(0.0100008 1.63105e-05 4.89081e-30)
(0.00998845 1.50922e-05 0)
(0.00997695 1.39569e-05 2.13484e-30)
(0.00996623 1.28993e-05 -3.21611e-30)
(0.00995624 1.19149e-05 1.0861e-30)
(0.00994693 1.09989e-05 0)
(0.00993826 1.01473e-05 9.93873e-31)
(0.00993019 9.35581e-06 -1.89036e-30)
(0.00992269 8.62078e-06 0)
(0.00991572 7.93855e-06 -2.69365e-30)
(0.00990925 7.30572e-06 -2.62699e-30)
(0.00990323 6.71908e-06 -2.5652e-30)
(0.00989766 6.1756e-06 0)
(0.00989249 5.67242e-06 0)
(0.0098877 5.20686e-06 0)
(0.00988326 4.77639e-06 3.07417e-30)
(0.00987916 4.37862e-06 -6.92847e-31)
(0.00987537 4.01132e-06 0)
(0.00987186 3.67239e-06 2.24425e-30)
(0.00986862 3.35986e-06 2.21133e-30)
(0.00986563 3.07186e-06 0)
(0.00986288 2.80668e-06 -1.22162e-30)
(0.00986034 2.56268e-06 4.25468e-30)
(0.009858 2.33835e-06 1.17274e-30)
(0.00985584 2.13227e-06 -5.31519e-30)
(0.00985386 1.94312e-06 0)
(0.00985204 1.76965e-06 0)
(0.00985037 1.61073e-06 0)
(0.00984883 1.46529e-06 1.08161e-30)
(0.00984742 1.33235e-06 5.06309e-30)
(0.00984612 1.21099e-06 3.96978e-30)
(0.00984494 1.10039e-06 1.0435e-30)
(0.00984385 9.99776e-07 4.95823e-30)
(0.00984285 9.08467e-07 -1.02346e-30)
(0.00984193 8.25845e-07 0)
(0.00984109 7.51367e-07 0)
(0.00984032 6.84564e-07 -4.8588e-30)
(0.00983961 6.2505e-07 0)
(0.00983896 5.72524e-07 0)
(0.00983835 5.26781e-07 3.82535e-30)
(0.00983778 4.87724e-07 0)
(0.00983725 4.55379e-07 4.78626e-30)
(0.00983675 4.29919e-07 9.73407e-31)
(0.00983627 4.11691e-07 0)
(0.0098358 4.01252e-07 4.76878e-30)
(0.00983533 3.99422e-07 0)
(0.00983486 4.07343e-07 0)
(0.00983436 4.26564e-07 9.72835e-31)
(0.00983383 4.59148e-07 3.80966e-30)
(0.00983325 5.07818e-07 9.81133e-31)
(0.00983258 5.76139e-07 0)
(0.00983182 6.68773e-07 0)
(0.00983091 7.91807e-07 4.88762e-30)
(0.00982982 9.53202e-07 0)
(0.00982848 1.16341e-06 5.00175e-30)
(0.00982682 1.43621e-06 0)
(0.00982474 1.78989e-06 0)
(0.00982212 2.24895e-06 0)
(0.00981877 2.84657e-06 -1.22158e-30)
(0.00981448 3.62828e-06 0)
(0.00980894 4.65773e-06 1.40793e-30)
(0.00980174 6.02586e-06 0)
(0.00979228 7.86628e-06 0)
(0.00977976 1.03825e-05 5.84134e-30)
(0.00976297 1.38991e-05 -6.56219e-30)
(0.00974008 1.89653e-05 0)
(0.0097082 2.65883e-05 0)
(0.00966239 3.8823e-05 0)
(0.00959359 6.05329e-05 1.79538e-29)
(0.00948428 0.000105822 0)
(0.00931185 0.000227832 -1.01264e-28)
(4.74416e-06 -4.15743e-05 2.14878e-30)
(1.42587e-05 -4.14631e-05 -3.38865e-34)
(2.38134e-05 -4.1326e-05 0)
(3.34005e-05 -4.1161e-05 7.90773e-34)
(4.30136e-05 -4.09706e-05 0)
(5.26454e-05 -4.07547e-05 0)
(6.22818e-05 -4.051e-05 -2.08696e-30)
(7.1898e-05 -4.02319e-05 -1.03657e-30)
(8.14588e-05 -3.99155e-05 1.02602e-30)
(9.092e-05 -3.95567e-05 -1.01822e-30)
(0.000100231 -3.91528e-05 0)
(0.000109339 -3.87025e-05 0)
(0.000118187 -3.8206e-05 -9.79228e-31)
(0.000126722 -3.76651e-05 -1.92928e-30)
(0.000134895 -3.70833e-05 1.89805e-30)
(0.000142667 -3.6466e-05 0)
(0.000150016 -3.58208e-05 1.83063e-30)
(0.00015694 -3.51574e-05 9.01385e-31)
(0.000163468 -3.44879e-05 0)
(0.000169659 -3.38258e-05 1.72471e-30)
(0.000175602 -3.31859e-05 -8.49541e-31)
(0.000181412 -3.25828e-05 -1.65879e-30)
(0.000187218 -3.20307e-05 8.19134e-31)
(0.000193159 -3.15427e-05 0)
(0.00019937 -3.11303e-05 1.58115e-30)
(0.000205977 -3.08036e-05 1.56332e-30)
(0.00021309 -3.05712e-05 0)
(0.000220803 -3.04407e-05 1.54247e-30)
(0.000229195 -3.04189e-05 0)
(0.000238327 -3.05115e-05 1.54364e-30)
(0.000248248 -3.07243e-05 -7.82483e-31)
(0.000258996 -3.10629e-05 0)
(0.000270603 -3.15333e-05 0)
(0.0002831 -3.2143e-05 0)
(0.000296517 -3.29014e-05 0)
(0.000310888 -3.38221e-05 0)
(0.000326254 -3.49241e-05 0)
(0.000342666 -3.62349e-05 1.82475e-30)
(0.000360189 -3.77927e-05 -9.42898e-31)
(0.000378904 -3.96508e-05 0)
(0.000398921 -4.18816e-05 0)
(0.000420388 -4.45829e-05 0)
(0.00044351 -4.78875e-05 -4.84673e-30)
(0.000468582 -5.19772e-05 -2.6429e-30)
(0.00049604 -5.71066e-05 -2.34285e-32)
(0.000526535 -6.3642e-05 2.4869e-32)
(0.000561089 -7.21303e-05 -3.64955e-30)
(0.000601374 -8.34222e-05 -4.25603e-30)
(0.000650362 -9.89167e-05 1.00742e-29)
(0.000714068 -0.000121099 6.15948e-30)
(0.000807321 -0.000154995 0)
(0.000980066 -0.000213803 1.09145e-29)
(0.0015546 -0.000362186 3.7082e-29)
(0.0075094 -0.00440271 0)
(0.0143004 0.000202498 0)
(0.0153963 0.00184099 9.73574e-29)
(0.0150437 0.00150298 0)
(0.0147437 0.00128613 0)
(0.0144552 0.00112698 -1.8025e-28)
(0.0141786 0.00100202 -1.07623e-28)
(0.0139174 0.000900544 -4.78713e-29)
(0.0136726 0.000816313 0)
(0.0134439 0.000745077 3.97891e-29)
(0.0132301 0.000683786 0)
(0.0130299 0.000630232 -1.02668e-28)
(0.0128423 0.00058282 3.13438e-29)
(0.0126663 0.000540389 5.94632e-29)
(0.012501 0.000502085 8.25934e-29)
(0.0123455 0.000467264 0)
(0.0121991 0.000435436 -4.8479e-29)
(0.0120613 0.000406213 0)