/*--------------------------------*- C++ -*----------------------------------*\
  =========                 |
  \\      /  F ield         | OpenFOAM: The Open Source CFD Toolbox
   \\    /   O peration     | Website:  https://openfoam.org
    \\  /    A nd           | Version:  10
     \\/     M anipulation  |
\*---------------------------------------------------------------------------*/
FoamFile
{
    format      ascii;
    class       volVectorField;
    location    "10800";
    object      Ua;
}
// * * * * * * * * * * * * * * * * * * * * * * * * * * * * * * * * * * * * * //

dimensions      [0 1 -1 0 0 0 0];

internalField   nonuniform List<vector> 
6400
(
(-2.52174e-07 5.12592e-08 0)
(-7.57974e-07 5.15542e-08 0)
(-1.26816e-06 5.21515e-08 0)
(-1.78579e-06 5.30657e-08 0)
(-2.31408e-06 5.432e-08 0)
(-2.85655e-06 5.59477e-08 0)
(-3.4171e-06 5.79936e-08 0)
(-4.00013e-06 6.05179e-08 0)
(-4.61074e-06 6.36e-08 0)
(-5.25493e-06 6.73455e-08 0)
(-5.93994e-06 7.18952e-08 0)
(-6.6746e-06 7.74395e-08 0)
(-7.47001e-06 8.42408e-08 0)
(-8.34032e-06 9.2668e-08 0)
(-9.30418e-06 1.03255e-07 0)
(-1.03868e-05 1.16799e-07 0)
(-1.16233e-05 1.34546e-07 0)
(-1.30651e-05 1.58538e-07 0)
(-1.47914e-05 1.92361e-07 0)
(-1.69325e-05 2.42857e-07 0)
(-1.97241e-05 3.2459e-07 0)
(-2.36435e-05 4.72102e-07 0)
(-2.96042e-05 7.39523e-07 0)
(-2.00078e-05 2.69497e-06 0)
(-3.49001e-06 4.10004e-05 0)
(-1.40614e-07 7.32605e-07 0)
(-5.84288e-08 3.172e-07 0)
(-3.5522e-08 1.95435e-07 0)
(-2.60468e-08 1.40464e-07 0)
(-2.11605e-08 1.08847e-07 0)
(-1.72577e-08 8.88372e-08 0)
(-1.44032e-08 7.53162e-08 0)
(-1.27138e-08 6.62819e-08 0)
(-1.16497e-08 6.29911e-08 0)
(-1.04878e-08 6.018e-08 0)
(-9.14864e-09 5.78375e-08 0)
(-7.56865e-09 5.59267e-08 0)
(-5.70795e-09 5.45191e-08 0)
(-3.56119e-09 5.36362e-08 0)
(-1.20915e-09 5.2914e-08 0)
(1.20915e-09 5.2914e-08 0)
(3.56119e-09 5.36362e-08 0)
(5.70795e-09 5.45191e-08 0)
(7.56865e-09 5.59267e-08 0)
(9.14864e-09 5.78375e-08 0)
(1.04878e-08 6.018e-08 0)
(1.16497e-08 6.29911e-08 0)
(1.27138e-08 6.62819e-08 0)
(1.44032e-08 7.53162e-08 0)
(1.72577e-08 8.88372e-08 0)
(2.11605e-08 1.08847e-07 0)
(2.60468e-08 1.40464e-07 0)
(3.5522e-08 1.95435e-07 0)
(5.84288e-08 3.172e-07 0)
(1.40614e-07 7.32605e-07 0)
(3.49001e-06 4.10004e-05 0)
(2.00078e-05 2.69497e-06 0)
(2.96042e-05 7.39523e-07 0)
(2.36435e-05 4.72102e-07 0)
(1.97241e-05 3.2459e-07 0)
(1.69325e-05 2.42857e-07 0)
(1.47914e-05 1.92361e-07 0)
(1.30651e-05 1.58538e-07 0)
(1.16233e-05 1.34546e-07 0)
(1.03868e-05 1.16799e-07 0)
(9.30418e-06 1.03255e-07 0)
(8.34032e-06 9.2668e-08 0)
(7.47001e-06 8.42408e-08 0)
(6.6746e-06 7.74395e-08 0)
(5.93994e-06 7.18952e-08 0)
(5.25493e-06 6.73455e-08 0)
(4.61074e-06 6.36e-08 0)
(4.00013e-06 6.05179e-08 0)
(3.4171e-06 5.79936e-08 0)
(2.85655e-06 5.59477e-08 0)
(2.31408e-06 5.432e-08 0)
(1.78579e-06 5.30657e-08 0)
(1.26816e-06 5.21515e-08 0)
(7.57974e-07 5.15542e-08 0)
(2.52174e-07 5.12592e-08 0)
(-2.52111e-07 1.58727e-07 0)
(-7.57784e-07 1.5964e-07 0)
(-1.26784e-06 1.61489e-07 0)
(-1.78533e-06 1.64319e-07 0)
(-2.31347e-06 1.68202e-07 0)
(-2.85577e-06 1.7324e-07 0)
(-3.41612e-06 1.79573e-07 0)
(-3.99893e-06 1.87387e-07 0)
(-4.60928e-06 1.96927e-07 0)
(-5.25317e-06 2.08519e-07 0)
(-5.93779e-06 2.22599e-07 0)
(-6.67197e-06 2.39757e-07 0)
(-7.46676e-06 2.60802e-07 0)
(-8.33627e-06 2.86874e-07 0)
(-9.29904e-06 3.19621e-07 0)
(-1.03801e-05 3.61507e-07 0)
(-1.16144e-05 4.16368e-07 0)
(-1.30528e-05 4.90498e-07 0)
(-1.47734e-05 5.94915e-07 0)
(-1.69043e-05 7.50602e-07 0)
(-1.96752e-05 1.00207e-06 0)
(-2.35551e-05 1.45632e-06 0)
(-2.98522e-05 2.37088e-06 0)
(-3.85813e-05 6.44425e-06 0)
(-2.264e-05 3.93141e-05 0)
(-1.09545e-06 4.57538e-06 0)
(-1.64342e-07 6.29321e-07 0)
(-8.84114e-08 3.4532e-07 0)
(-6.25737e-08 2.41307e-07 0)
(-5.03687e-08 1.84123e-07 0)
(-4.08079e-08 1.49313e-07 0)
(-3.40205e-08 1.26263e-07 0)
(-3.01033e-08 1.10977e-07 0)
(-2.76698e-08 1.05309e-07 0)
(-2.50304e-08 1.00445e-07 0)
(-2.19801e-08 9.63876e-08 0)
(-1.83324e-08 9.30883e-08 0)
(-1.39317e-08 9.06559e-08 0)
(-8.73958e-09 8.90938e-08 0)
(-2.97567e-09 8.78649e-08 0)
(2.97567e-09 8.78649e-08 0)
(8.73958e-09 8.90938e-08 0)
(1.39317e-08 9.06559e-08 0)
(1.83324e-08 9.30883e-08 0)
(2.19801e-08 9.63876e-08 0)
(2.50304e-08 1.00445e-07 0)
(2.76698e-08 1.05309e-07 0)
(3.01033e-08 1.10977e-07 0)
(3.40205e-08 1.26263e-07 0)
(4.08079e-08 1.49313e-07 0)
(5.03687e-08 1.84123e-07 0)
(6.25737e-08 2.41307e-07 0)
(8.84114e-08 3.4532e-07 0)
(1.64342e-07 6.29321e-07 0)
(1.09545e-06 4.57538e-06 0)
(2.264e-05 3.93141e-05 0)
(3.85813e-05 6.44425e-06 0)
(2.98522e-05 2.37088e-06 0)
(2.35551e-05 1.45632e-06 0)
(1.96752e-05 1.00207e-06 0)
(1.69043e-05 7.50602e-07 0)
(1.47734e-05 5.94915e-07 0)
(1.30528e-05 4.90498e-07 0)
(1.16144e-05 4.16368e-07 0)
(1.03801e-05 3.61507e-07 0)
(9.29904e-06 3.19621e-07 0)
(8.33627e-06 2.86874e-07 0)
(7.46676e-06 2.60802e-07 0)
(6.67197e-06 2.39757e-07 0)
(5.93779e-06 2.22599e-07 0)
(5.25317e-06 2.08519e-07 0)
(4.60928e-06 1.96927e-07 0)
(3.99893e-06 1.87387e-07 0)
(3.41612e-06 1.79573e-07 0)
(2.85577e-06 1.7324e-07 0)
(2.31347e-06 1.68202e-07 0)
(1.78533e-06 1.64319e-07 0)
(1.26784e-06 1.61489e-07 0)
(7.57784e-07 1.5964e-07 0)
(2.52111e-07 1.58727e-07 0)
(-2.51967e-07 2.76551e-07 0)
(-7.57347e-07 2.78141e-07 0)
(-1.2671e-06 2.8136e-07 0)
(-1.78426e-06 2.86287e-07 0)
(-2.31206e-06 2.93048e-07 0)
(-2.85397e-06 3.0182e-07 0)
(-3.41389e-06 3.12845e-07 0)
(-3.99619e-06 3.26446e-07 0)
(-4.60594e-06 3.43052e-07 0)
(-5.2491e-06 3.63227e-07 0)
(-5.93285e-06 3.87729e-07 0)
(-6.66593e-06 4.1758e-07 0)
(-7.45931e-06 4.54186e-07 0)
(-8.32697e-06 4.99523e-07 0)
(-9.28724e-06 5.56444e-07 0)
(-1.03648e-05 6.29208e-07 0)
(-1.1594e-05 7.24436e-07 0)
(-1.30246e-05 8.52963e-07 0)
(-1.47323e-05 1.03368e-06 0)
(-1.68401e-05 1.30234e-06 0)
(-1.95639e-05 1.7342e-06 0)
(-2.33321e-05 2.51068e-06 0)
(-2.92059e-05 4.15684e-06 0)
(-4.009e-05 9.26603e-06 0)
(-3.0885e-05 4.31153e-05 0)
(-8.22206e-06 2.0585e-05 0)
(-1.11842e-06 4.35505e-06 0)
(-1.86789e-07 8.10524e-07 0)
(-1.14383e-07 4.93792e-07 0)
(-8.92674e-08 3.60472e-07 0)
(-7.10603e-08 2.87695e-07 0)
(-5.89891e-08 2.4184e-07 0)
(-5.23696e-08 2.12089e-07 0)
(-4.83977e-08 2.00988e-07 0)
(-4.41318e-08 1.91528e-07 0)
(-3.91706e-08 1.83777e-07 0)
(-3.30926e-08 1.77602e-07 0)
(-2.54504e-08 1.73123e-07 0)
(-1.61006e-08 1.70212e-07 0)
(-5.50488e-09 1.67969e-07 0)
(5.50488e-09 1.67969e-07 0)
(1.61006e-08 1.70212e-07 0)
(2.54504e-08 1.73123e-07 0)
(3.30926e-08 1.77602e-07 0)
(3.91706e-08 1.83777e-07 0)
(4.41318e-08 1.91528e-07 0)
(4.83977e-08 2.00988e-07 0)
(5.23696e-08 2.12089e-07 0)
(5.89891e-08 2.4184e-07 0)
(7.10603e-08 2.87695e-07 0)
(8.92674e-08 3.60472e-07 0)
(1.14383e-07 4.93792e-07 0)
(1.86789e-07 8.10524e-07 0)
(1.11842e-06 4.35505e-06 0)
(8.22206e-06 2.0585e-05 0)
(3.0885e-05 4.31153e-05 0)
(4.009e-05 9.26603e-06 0)
(2.92059e-05 4.15684e-06 0)
(2.33321e-05 2.51068e-06 0)
(1.95639e-05 1.7342e-06 0)
(1.68401e-05 1.30234e-06 0)
(1.47323e-05 1.03368e-06 0)
(1.30246e-05 8.52963e-07 0)
(1.1594e-05 7.24436e-07 0)
(1.03648e-05 6.29208e-07 0)
(9.28724e-06 5.56444e-07 0)
(8.32697e-06 4.99523e-07 0)
(7.45931e-06 4.54186e-07 0)
(6.66593e-06 4.1758e-07 0)
(5.93285e-06 3.87729e-07 0)
(5.2491e-06 3.63227e-07 0)
(4.60594e-06 3.43052e-07 0)
(3.99619e-06 3.26446e-07 0)
(3.41389e-06 3.12845e-07 0)
(2.85397e-06 3.0182e-07 0)
(2.31206e-06 2.93048e-07 0)
(1.78426e-06 2.86287e-07 0)
(1.2671e-06 2.8136e-07 0)
(7.57347e-07 2.78141e-07 0)
(2.51967e-07 2.76551e-07 0)
(-2.51718e-07 4.05681e-07 0)
(-7.56593e-07 4.08011e-07 0)
(-1.26582e-06 4.12728e-07 0)
(-1.78243e-06 4.19948e-07 0)
(-2.30962e-06 4.29853e-07 0)
(-2.85087e-06 4.42704e-07 0)
(-3.41003e-06 4.58855e-07 0)
(-3.99145e-06 4.78778e-07 0)
(-4.60017e-06 5.03096e-07 0)
(-5.2421e-06 5.32637e-07 0)
(-5.92433e-06 5.68504e-07 0)
(-6.65552e-06 6.12188e-07 0)
(-7.44647e-06 6.65735e-07 0)
(-8.31096e-06 7.32018e-07 0)
(-9.26693e-06 8.15179e-07 0)
(-1.03385e-05 9.21385e-07 0)
(-1.1559e-05 1.0602e-06 0)
(-1.29763e-05 1.24717e-06 0)
(-1.46622e-05 1.50928e-06 0)
(-1.67309e-05 1.89702e-06 0)
(-1.93762e-05 2.5151e-06 0)
(-2.29555e-05 3.61128e-06 0)
(-2.81829e-05 5.89466e-06 0)
(-3.57258e-05 1.22129e-05 0)
(-2.97308e-05 3.63095e-05 0)
(-1.56048e-05 3.17471e-05 0)
(-7.63865e-06 1.72993e-05 0)
(-1.84816e-06 6.61791e-06 0)
(-2.31182e-07 1.07499e-06 0)
(-1.4813e-07 6.23062e-07 0)
(-1.10766e-07 4.69632e-07 0)
(-9.04792e-08 3.87842e-07 0)
(-8.05233e-08 3.38004e-07 0)
(-7.49838e-08 3.1946e-07 0)
(-6.91656e-08 3.03848e-07 0)
(-6.23541e-08 2.91489e-07 0)
(-5.36975e-08 2.81773e-07 0)
(-4.20288e-08 2.74748e-07 0)
(-2.69129e-08 2.70057e-07 0)
(-9.25404e-09 2.66589e-07 0)
(9.25404e-09 2.66589e-07 0)
(2.69129e-08 2.70057e-07 0)
(4.20288e-08 2.74748e-07 0)
(5.36975e-08 2.81773e-07 0)
(6.23541e-08 2.91489e-07 0)
(6.91656e-08 3.03848e-07 0)
(7.49838e-08 3.1946e-07 0)
(8.05233e-08 3.38004e-07 0)
(9.04792e-08 3.87842e-07 0)
(1.10766e-07 4.69632e-07 0)
(1.4813e-07 6.23062e-07 0)
(2.31182e-07 1.07499e-06 0)
(1.84816e-06 6.61791e-06 0)
(7.63865e-06 1.72993e-05 0)
(1.56048e-05 3.17471e-05 0)
(2.97308e-05 3.63095e-05 0)
(3.57258e-05 1.22129e-05 0)
(2.81829e-05 5.89466e-06 0)
(2.29555e-05 3.61128e-06 0)
(1.93762e-05 2.5151e-06 0)
(1.67309e-05 1.89702e-06 0)
(1.46622e-05 1.50928e-06 0)
(1.29763e-05 1.24717e-06 0)
(1.1559e-05 1.0602e-06 0)
(1.03385e-05 9.21385e-07 0)
(9.26693e-06 8.15179e-07 0)
(8.31096e-06 7.32018e-07 0)
(7.44647e-06 6.65735e-07 0)
(6.65552e-06 6.12188e-07 0)
(5.92433e-06 5.68504e-07 0)
(5.2421e-06 5.32637e-07 0)
(4.60017e-06 5.03096e-07 0)
(3.99145e-06 4.78778e-07 0)
(3.41003e-06 4.58855e-07 0)
(2.85087e-06 4.42704e-07 0)
(2.30962e-06 4.29853e-07 0)
(1.78243e-06 4.19948e-07 0)
(1.26582e-06 4.12728e-07 0)
(7.56593e-07 4.08011e-07 0)
(2.51718e-07 4.05681e-07 0)
(-2.51336e-07 5.47134e-07 0)
(-7.55438e-07 5.50272e-07 0)
(-1.26387e-06 5.56623e-07 0)
(-1.77963e-06 5.66343e-07 0)
(-2.30589e-06 5.79678e-07 0)
(-2.84612e-06 5.96976e-07 0)
(-3.40412e-06 6.18713e-07 0)
(-3.9842e-06 6.4552e-07 0)
(-4.59135e-06 6.78235e-07 0)
(-5.23139e-06 7.17964e-07 0)
(-5.9113e-06 7.66182e-07 0)
(-6.6396e-06 8.2488e-07 0)
(-7.42685e-06 8.96787e-07 0)
(-8.28649e-06 9.85726e-07 0)
(-9.23595e-06 1.09719e-06 0)
(-1.02984e-05 1.23935e-06 0)
(-1.15058e-05 1.42476e-06 0)
(-1.2903e-05 1.67378e-06 0)
(-1.45564e-05 2.02128e-06 0)
(-1.65678e-05 2.5316e-06 0)
(-1.91e-05 3.33496e-06 0)
(-2.24182e-05 4.72762e-06 0)
(-2.68862e-05 7.49478e-06 0)
(-3.196e-05 1.41285e-05 0)
(-2.72909e-05 3.14124e-05 0)
(-1.71051e-05 2.98589e-05 0)
(-1.2798e-05 2.64502e-05 0)
(-1.37252e-05 1.53064e-05 0)
(-8.24631e-06 2.64208e-05 0)
(-3.79573e-07 1.51059e-06 0)
(-1.78434e-07 7.7204e-07 0)
(-1.33278e-07 5.83787e-07 0)
(-1.17255e-07 4.96868e-07 0)
(-1.09946e-07 4.66086e-07 0)
(-1.02803e-07 4.40978e-07 0)
(-9.45806e-08 4.22581e-07 0)
(-8.37296e-08 4.08051e-07 0)
(-6.71915e-08 3.9733e-07 0)
(-4.37394e-08 3.89785e-07 0)
(-1.51436e-08 3.84635e-07 0)
(1.51436e-08 3.84635e-07 0)
(4.37394e-08 3.89785e-07 0)
(6.71915e-08 3.9733e-07 0)
(8.37296e-08 4.08051e-07 0)
(9.45806e-08 4.22581e-07 0)
(1.02803e-07 4.40978e-07 0)
(1.09946e-07 4.66086e-07 0)
(1.17255e-07 4.96868e-07 0)
(1.33278e-07 5.83787e-07 0)
(1.78434e-07 7.7204e-07 0)
(3.79573e-07 1.51059e-06 0)
(8.24631e-06 2.64208e-05 0)
(1.37252e-05 1.53064e-05 0)
(1.2798e-05 2.64502e-05 0)
(1.71051e-05 2.98589e-05 0)
(2.72909e-05 3.14124e-05 0)
(3.196e-05 1.41285e-05 0)
(2.68862e-05 7.49478e-06 0)
(2.24182e-05 4.72762e-06 0)
(1.91e-05 3.33496e-06 0)
(1.65678e-05 2.5316e-06 0)
(1.45564e-05 2.02128e-06 0)
(1.2903e-05 1.67378e-06 0)
(1.15058e-05 1.42476e-06 0)
(1.02984e-05 1.23935e-06 0)
(9.23595e-06 1.09719e-06 0)
(8.28649e-06 9.85726e-07 0)
(7.42685e-06 8.96787e-07 0)
(6.6396e-06 8.2488e-07 0)
(5.9113e-06 7.66182e-07 0)
(5.23139e-06 7.17964e-07 0)
(4.59135e-06 6.78235e-07 0)
(3.9842e-06 6.4552e-07 0)
(3.40412e-06 6.18713e-07 0)
(2.84612e-06 5.96976e-07 0)
(2.30589e-06 5.79678e-07 0)
(1.77963e-06 5.66343e-07 0)
(1.26387e-06 5.56623e-07 0)
(7.55438e-07 5.50272e-07 0)
(2.51336e-07 5.47134e-07 0)
(-2.50787e-07 7.01995e-07 0)
(-7.53779e-07 7.06011e-07 0)
(-1.26106e-06 7.14139e-07 0)
(-1.77559e-06 7.2658e-07 0)
(-2.30054e-06 7.43644e-07 0)
(-2.83929e-06 7.65776e-07 0)
(-3.39563e-06 7.93581e-07 0)
(-3.9738e-06 8.27863e-07 0)
(-4.57868e-06 8.69685e-07 0)
(-5.21602e-06 9.20451e-07 0)
(-5.89262e-06 9.82033e-07 0)
(-6.61678e-06 1.05695e-06 0)
(-7.39876e-06 1.14864e-06 0)
(-8.25151e-06 1.26192e-06 0)
(-9.19171e-06 1.40369e-06 0)
(-1.02413e-05 1.58411e-06 0)
(-1.14301e-05 1.81877e-06 0)
(-1.27994e-05 2.13262e-06 0)
(-1.44079e-05 2.56786e-06 0)
(-1.63416e-05 3.20068e-06 0)
(-1.87257e-05 4.1801e-06 0)
(-2.17246e-05 5.82631e-06 0)
(-2.5409e-05 8.89933e-06 0)
(-2.87136e-05 1.52829e-05 0)
(-2.51154e-05 2.77234e-05 0)
(-1.76036e-05 2.81275e-05 0)
(-1.44602e-05 2.59002e-05 0)
(-2.14495e-05 2.09275e-05 0)
(-1.96925e-05 4.83472e-05 0)
(-5.7994e-06 2.01643e-05 0)
(-7.26985e-07 2.23838e-06 0)
(-2.31322e-07 1.01237e-06 0)
(-1.77057e-07 7.38555e-07 0)
(-1.62458e-07 6.67867e-07 0)
(-1.51829e-07 6.16476e-07 0)
(-1.42128e-07 5.86661e-07 0)
(-1.30599e-07 5.62551e-07 0)
(-1.08399e-07 5.44524e-07 0)
(-7.20383e-08 5.30934e-07 0)
(-2.51016e-08 5.22968e-07 0)
(2.51016e-08 5.22968e-07 0)
(7.20383e-08 5.30934e-07 0)
(1.08399e-07 5.44524e-07 0)
(1.30599e-07 5.62551e-07 0)
(1.42128e-07 5.86661e-07 0)
(1.51829e-07 6.16476e-07 0)
(1.62458e-07 6.67867e-07 0)
(1.77057e-07 7.38555e-07 0)
(2.31322e-07 1.01237e-06 0)
(7.26985e-07 2.23838e-06 0)
(5.7994e-06 2.01643e-05 0)
(1.96925e-05 4.83472e-05 0)
(2.14495e-05 2.09275e-05 0)
(1.44602e-05 2.59002e-05 0)
(1.76036e-05 2.81275e-05 0)
(2.51154e-05 2.77234e-05 0)
(2.87136e-05 1.52829e-05 0)
(2.5409e-05 8.89933e-06 0)
(2.17246e-05 5.82631e-06 0)
(1.87257e-05 4.1801e-06 0)
(1.63416e-05 3.20068e-06 0)
(1.44079e-05 2.56786e-06 0)
(1.27994e-05 2.13262e-06 0)
(1.14301e-05 1.81877e-06 0)
(1.02413e-05 1.58411e-06 0)
(9.19171e-06 1.40369e-06 0)
(8.25151e-06 1.26192e-06 0)
(7.39876e-06 1.14864e-06 0)
(6.61678e-06 1.05695e-06 0)
(5.89262e-06 9.82033e-07 0)
(5.21602e-06 9.20451e-07 0)
(4.57868e-06 8.69685e-07 0)
(3.9738e-06 8.27863e-07 0)
(3.39563e-06 7.93581e-07 0)
(2.83929e-06 7.65776e-07 0)
(2.30054e-06 7.43644e-07 0)
(1.77559e-06 7.2658e-07 0)
(1.26106e-06 7.14139e-07 0)
(7.53779e-07 7.06011e-07 0)
(2.50787e-07 7.01995e-07 0)
(-2.5003e-07 8.71405e-07 0)
(-7.51491e-07 8.76374e-07 0)
(-1.25718e-06 8.8643e-07 0)
(-1.77004e-06 9.01819e-07 0)
(-2.29315e-06 9.22924e-07 0)
(-2.82988e-06 9.50291e-07 0)
(-3.38393e-06 9.84663e-07 0)
(-3.95947e-06 1.02703e-06 0)
(-4.56125e-06 1.07868e-06 0)
(-5.19487e-06 1.14135e-06 0)
(-5.86694e-06 1.21731e-06 0)
(-6.58544e-06 1.30963e-06 0)
(-7.36023e-06 1.42249e-06 0)
(-8.2036e-06 1.56171e-06 0)
(-9.13124e-06 1.73558e-06 0)
(-1.01635e-05 1.95625e-06 0)
(-1.13275e-05 2.24216e-06 0)
(-1.26596e-05 2.62247e-06 0)
(-1.42095e-05 3.14554e-06 0)
(-1.60443e-05 3.8963e-06 0)
(-1.8248e-05 5.03369e-06 0)
(-2.08889e-05 6.87504e-06 0)
(-2.38301e-05 1.00804e-05 0)
(-2.59063e-05 1.59029e-05 0)
(-2.31564e-05 2.49691e-05 0)
(-1.76736e-05 2.65175e-05 0)
(-1.5125e-05 2.55939e-05 0)
(-1.81298e-05 2.45525e-05 0)
(-1.22387e-05 4.20723e-05 0)
(2.53815e-06 3.61473e-05 0)
(-2.48557e-06 1.09809e-05 0)
(-6.92622e-06 1.81758e-05 0)
(-6.45997e-07 1.63425e-06 0)
(-3.76745e-07 1.26274e-06 0)
(-2.72835e-07 9.81511e-07 0)
(-2.30102e-07 8.48608e-07 0)
(-2.15063e-07 7.69951e-07 0)
(-1.84399e-07 7.27246e-07 0)
(-1.25043e-07 6.95742e-07 0)
(-4.35753e-08 6.82362e-07 0)
(4.35753e-08 6.82362e-07 0)
(1.25043e-07 6.95742e-07 0)
(1.84399e-07 7.27246e-07 0)
(2.15063e-07 7.69951e-07 0)
(2.30102e-07 8.48608e-07 0)
(2.72835e-07 9.81511e-07 0)
(3.76745e-07 1.26274e-06 0)
(6.45997e-07 1.63425e-06 0)
(6.92622e-06 1.81758e-05 0)
(2.48557e-06 1.09809e-05 0)
(-2.53815e-06 3.61473e-05 0)
(1.22387e-05 4.20723e-05 0)
(1.81298e-05 2.45525e-05 0)
(1.5125e-05 2.55939e-05 0)
(1.76736e-05 2.65175e-05 0)
(2.31564e-05 2.49691e-05 0)
(2.59063e-05 1.59029e-05 0)
(2.38301e-05 1.00804e-05 0)
(2.08889e-05 6.87504e-06 0)
(1.8248e-05 5.03369e-06 0)
(1.60443e-05 3.8963e-06 0)
(1.42095e-05 3.14554e-06 0)
(1.26596e-05 2.62247e-06 0)
(1.13275e-05 2.24216e-06 0)
(1.01635e-05 1.95625e-06 0)
(9.13124e-06 1.73558e-06 0)
(8.2036e-06 1.56171e-06 0)
(7.36023e-06 1.42249e-06 0)
(6.58544e-06 1.30963e-06 0)
(5.86694e-06 1.21731e-06 0)
(5.19487e-06 1.14135e-06 0)
(4.56125e-06 1.07868e-06 0)
(3.95947e-06 1.02703e-06 0)
(3.38393e-06 9.84663e-07 0)
(2.82988e-06 9.50291e-07 0)
(2.29315e-06 9.22924e-07 0)
(1.77004e-06 9.01819e-07 0)
(1.25718e-06 8.8643e-07 0)
(7.51491e-07 8.76374e-07 0)
(2.5003e-07 8.71405e-07 0)
(-2.49017e-07 1.05656e-06 0)
(-7.48425e-07 1.06255e-06 0)
(-1.25199e-06 1.07469e-06 0)
(-1.76259e-06 1.09327e-06 0)
(-2.28326e-06 1.11873e-06 0)
(-2.81729e-06 1.15174e-06 0)
(-3.36829e-06 1.19318e-06 0)
(-3.9403e-06 1.24424e-06 0)
(-4.53795e-06 1.30645e-06 0)
(-5.16663e-06 1.38186e-06 0)
(-5.83267e-06 1.47319e-06 0)
(-6.54368e-06 1.58404e-06 0)
(-7.30896e-06 1.71935e-06 0)
(-8.13998e-06 1.88591e-06 0)
(-9.05117e-06 2.09338e-06 0)
(-1.00609e-05 2.35575e-06 0)
(-1.11929e-05 2.69401e-06 0)
(-1.24777e-05 3.1408e-06 0)
(-1.39544e-05 3.74896e-06 0)
(-1.56698e-05 4.60809e-06 0)
(-1.76667e-05 5.87698e-06 0)
(-1.99329e-05 7.84611e-06 0)
(-2.22121e-05 1.10349e-05 0)
(-2.3461e-05 1.61679e-05 0)
(-2.13665e-05 2.29179e-05 0)
(-1.7365e-05 2.5075e-05 0)
(-1.51249e-05 2.52649e-05 0)
(-1.56568e-05 2.61513e-05 0)
(-1.0671e-05 3.64531e-05 0)
(-1.11086e-06 3.28257e-05 0)
(-3.49367e-06 2.07573e-05 0)
(-4.92935e-06 3.32806e-05 0)
(-1.69761e-05 1.68356e-05 0)
(-1.91935e-05 2.28286e-05 0)
(-3.10968e-06 3.34226e-06 0)
(-1.02281e-06 1.81192e-06 0)
(-5.58896e-07 1.31114e-06 0)
(-3.72689e-07 1.0144e-06 0)
(-2.45027e-07 8.90733e-07 0)
(-8.31108e-08 8.67481e-07 0)
(8.31108e-08 8.67481e-07 0)
(2.45027e-07 8.90733e-07 0)
(3.72689e-07 1.0144e-06 0)
(5.58896e-07 1.31114e-06 0)
(1.02281e-06 1.81192e-06 0)
(3.10968e-06 3.34226e-06 0)
(1.91935e-05 2.28286e-05 0)
(1.69761e-05 1.68356e-05 0)
(4.92935e-06 3.32806e-05 0)
(3.49367e-06 2.07573e-05 0)
(1.11086e-06 3.28257e-05 0)
(1.0671e-05 3.64531e-05 0)
(1.56568e-05 2.61513e-05 0)
(1.51249e-05 2.52649e-05 0)
(1.7365e-05 2.5075e-05 0)
(2.13665e-05 2.29179e-05 0)
(2.3461e-05 1.61679e-05 0)
(2.22121e-05 1.10349e-05 0)
(1.99329e-05 7.84611e-06 0)
(1.76667e-05 5.87698e-06 0)
(1.56698e-05 4.60809e-06 0)
(1.39544e-05 3.74896e-06 0)
(1.24777e-05 3.1408e-06 0)
(1.11929e-05 2.69401e-06 0)
(1.00609e-05 2.35575e-06 0)
(9.05117e-06 2.09338e-06 0)
(8.13998e-06 1.88591e-06 0)
(7.30896e-06 1.71935e-06 0)
(6.54368e-06 1.58404e-06 0)
(5.83267e-06 1.47319e-06 0)
(5.16663e-06 1.38186e-06 0)
(4.53795e-06 1.30645e-06 0)
(3.9403e-06 1.24424e-06 0)
(3.36829e-06 1.19318e-06 0)
(2.81729e-06 1.15174e-06 0)
(2.28326e-06 1.11873e-06 0)
(1.76259e-06 1.09327e-06 0)
(1.25199e-06 1.07469e-06 0)
(7.48425e-07 1.06255e-06 0)
(2.49017e-07 1.05656e-06 0)
(-2.47687e-07 1.25868e-06 0)
(-7.44406e-07 1.26578e-06 0)
(-1.24519e-06 1.28016e-06 0)
(-1.75283e-06 1.30215e-06 0)
(-2.27031e-06 1.33229e-06 0)
(-2.8008e-06 1.37135e-06 0)
(-3.34781e-06 1.42036e-06 0)
(-3.91523e-06 1.48069e-06 0)
(-4.5075e-06 1.55416e-06 0)
(-5.12975e-06 1.64312e-06 0)
(-5.78797e-06 1.75072e-06 0)
(-6.48931e-06 1.88111e-06 0)
(-7.24234e-06 2.03995e-06 0)
(-8.05754e-06 2.23498e-06 0)
(-8.94778e-06 2.47706e-06 0)
(-9.92904e-06 2.78182e-06 0)
(-1.10211e-05 3.1723e-06 0)
(-1.22479e-05 3.68358e-06 0)
(-1.3637e-05 4.37086e-06 0)
(-1.52145e-05 5.3237e-06 0)
(-1.69865e-05 6.691e-06 0)
(-1.88823e-05 8.71899e-06 0)
(-2.06001e-05 1.17781e-05 0)
(-2.1307e-05 1.62106e-05 0)
(-1.97047e-05 2.138e-05 0)
(-1.67482e-05 2.38008e-05 0)
(-1.4687e-05 2.4792e-05 0)
(-1.3816e-05 2.64598e-05 0)
(-9.67421e-06 3.24458e-05 0)
(-3.36137e-06 3.04341e-05 0)
(-3.47591e-06 2.41226e-05 0)
(-3.27229e-06 3.03859e-05 0)
(3.56291e-07 3.04053e-05 0)
(8.504e-06 3.7003e-05 0)
(8.12355e-06 1.27195e-05 0)
(-4.94666e-06 1.15069e-05 0)
(-6.25421e-06 6.1282e-06 0)
(-1.50109e-06 1.77943e-06 0)
(-6.48443e-07 1.1042e-06 0)
(-1.93604e-07 1.09615e-06 0)
(1.93604e-07 1.09615e-06 0)
(6.48443e-07 1.1042e-06 0)
(1.50109e-06 1.77943e-06 0)
(6.25421e-06 6.1282e-06 0)
(4.94666e-06 1.15069e-05 0)
(-8.12355e-06 1.27195e-05 0)
(-8.504e-06 3.7003e-05 0)
(-3.56291e-07 3.04053e-05 0)
(3.27229e-06 3.03859e-05 0)
(3.47591e-06 2.41226e-05 0)
(3.36137e-06 3.04341e-05 0)
(9.67421e-06 3.24458e-05 0)
(1.3816e-05 2.64598e-05 0)
(1.4687e-05 2.4792e-05 0)
(1.67482e-05 2.38008e-05 0)
(1.97047e-05 2.138e-05 0)
(2.1307e-05 1.62106e-05 0)
(2.06001e-05 1.17781e-05 0)
(1.88823e-05 8.71899e-06 0)
(1.69865e-05 6.691e-06 0)
(1.52145e-05 5.3237e-06 0)
(1.3637e-05 4.37086e-06 0)
(1.22479e-05 3.68358e-06 0)
(1.10211e-05 3.1723e-06 0)
(9.92904e-06 2.78182e-06 0)
(8.94778e-06 2.47706e-06 0)
(8.05754e-06 2.23498e-06 0)
(7.24234e-06 2.03995e-06 0)
(6.48931e-06 1.88111e-06 0)
(5.78797e-06 1.75072e-06 0)
(5.12975e-06 1.64312e-06 0)
(4.5075e-06 1.55416e-06 0)
(3.91523e-06 1.48069e-06 0)
(3.34781e-06 1.42036e-06 0)
(2.8008e-06 1.37135e-06 0)
(2.27031e-06 1.33229e-06 0)
(1.75283e-06 1.30215e-06 0)
(1.24519e-06 1.28016e-06 0)
(7.44406e-07 1.26578e-06 0)
(2.47687e-07 1.25868e-06 0)
(-2.45974e-07 1.479e-06 0)
(-7.39226e-07 1.48729e-06 0)
(-1.23642e-06 1.50405e-06 0)
(-1.74027e-06 1.52968e-06 0)
(-2.25363e-06 1.56481e-06 0)
(-2.77958e-06 1.6103e-06 0)
(-3.32146e-06 1.66735e-06 0)
(-3.883e-06 1.73752e-06 0)
(-4.4684e-06 1.82287e-06 0)
(-5.08246e-06 1.9261e-06 0)
(-5.73076e-06 2.05074e-06 0)
(-6.41984e-06 2.20149e-06 0)
(-7.15745e-06 2.38465e-06 0)
(-7.95285e-06 2.6088e-06 0)
(-8.81709e-06 2.88586e-06 0)
(-9.76335e-06 3.2327e-06 0)
(-1.0807e-05 3.67374e-06 0)
(-1.19649e-05 4.24523e-06 0)
(-1.32531e-05 5.00219e-06 0)
(-1.46782e-05 6.02952e-06 0)
(-1.62169e-05 7.45823e-06 0)
(-1.77639e-05 9.48134e-06 0)
(-1.90241e-05 1.23356e-05 0)
(-1.93835e-05 1.61219e-05 0)
(-1.81393e-05 2.02055e-05 0)
(-1.59016e-05 2.26716e-05 0)
(-1.39804e-05 2.41464e-05 0)
(-1.24185e-05 2.60052e-05 0)
(-8.99351e-06 2.95376e-05 0)
(-4.60825e-06 2.86067e-05 0)
(-3.5169e-06 2.54891e-05 0)
(-2.28151e-06 2.83558e-05 0)
(7.28905e-07 2.83339e-05 0)
(3.72527e-06 2.81208e-05 0)
(4.2484e-06 2.14166e-05 0)
(2.4282e-06 2.09054e-05 0)
(-1.93573e-06 1.48487e-05 0)
(-3.96061e-06 3.82972e-06 0)
(-1.51543e-06 1.40937e-06 0)
(-4.68163e-07 1.35194e-06 0)
(4.68163e-07 1.35194e-06 0)
(1.51543e-06 1.40937e-06 0)
(3.96061e-06 3.82972e-06 0)
(1.93573e-06 1.48487e-05 0)
(-2.4282e-06 2.09054e-05 0)
(-4.2484e-06 2.14166e-05 0)
(-3.72527e-06 2.81208e-05 0)
(-7.28905e-07 2.83339e-05 0)
(2.28151e-06 2.83558e-05 0)
(3.5169e-06 2.54891e-05 0)
(4.60825e-06 2.86067e-05 0)
(8.99351e-06 2.95376e-05 0)
(1.24185e-05 2.60052e-05 0)
(1.39804e-05 2.41464e-05 0)
(1.59016e-05 2.26716e-05 0)
(1.81393e-05 2.02055e-05 0)
(1.93835e-05 1.61219e-05 0)
(1.90241e-05 1.23356e-05 0)
(1.77639e-05 9.48134e-06 0)
(1.62169e-05 7.45823e-06 0)
(1.46782e-05 6.02952e-06 0)
(1.32531e-05 5.00219e-06 0)
(1.19649e-05 4.24523e-06 0)
(1.0807e-05 3.67374e-06 0)
(9.76335e-06 3.2327e-06 0)
(8.81709e-06 2.88586e-06 0)
(7.95285e-06 2.6088e-06 0)
(7.15745e-06 2.38465e-06 0)
(6.41984e-06 2.20149e-06 0)
(5.73076e-06 2.05074e-06 0)
(5.08246e-06 1.9261e-06 0)
(4.4684e-06 1.82287e-06 0)
(3.883e-06 1.73752e-06 0)
(3.32146e-06 1.66735e-06 0)
(2.77958e-06 1.6103e-06 0)
(2.25363e-06 1.56481e-06 0)
(1.74027e-06 1.52968e-06 0)
(1.23642e-06 1.50405e-06 0)
(7.39226e-07 1.48729e-06 0)
(2.45974e-07 1.479e-06 0)
(-2.43797e-07 1.71874e-06 0)
(-7.32644e-07 1.72828e-06 0)
(-1.22528e-06 1.74757e-06 0)
(-1.7243e-06 1.77706e-06 0)
(-2.23246e-06 1.81745e-06 0)
(-2.75265e-06 1.86972e-06 0)
(-3.28807e-06 1.93522e-06 0)
(-3.8422e-06 2.01571e-06 0)
(-4.41896e-06 2.11348e-06 0)
(-5.02276e-06 2.23153e-06 0)
(-5.65868e-06 2.37378e-06 0)
(-6.33255e-06 2.5454e-06 0)
(-7.05114e-06 2.75326e-06 0)
(-7.82228e-06 3.00662e-06 0)
(-8.65498e-06 3.31815e-06 0)
(-9.55935e-06 3.70552e-06 0)
(-1.05461e-05 4.19369e-06 0)
(-1.16249e-05 4.8186e-06 0)
(-1.28006e-05 5.63257e-06 0)
(-1.4064e-05 6.71175e-06 0)
(-1.5371e-05 8.16407e-06 0)
(-1.66027e-05 1.01288e-05 0)
(-1.75014e-05 1.2737e-05 0)
(-1.76402e-05 1.59594e-05 0)
(-1.66496e-05 1.92796e-05 0)
(-1.49007e-05 2.16567e-05 0)
(-1.31233e-05 2.33537e-05 0)
(-1.13118e-05 2.51408e-05 0)
(-8.46644e-06 2.73452e-05 0)
(-5.22275e-06 2.70898e-05 0)
(-3.59478e-06 2.56625e-05 0)
(-1.97953e-06 2.67782e-05 0)
(7.05498e-08 2.63579e-05 0)
(1.34656e-06 2.54779e-05 0)
(1.63039e-06 2.31827e-05 0)
(7.42583e-07 2.2075e-05 0)
(-1.2854e-06 2.08416e-05 0)
(-2.41558e-06 5.02863e-06 0)
(-1.68563e-06 1.43871e-06 0)
(-6.34933e-07 1.29995e-06 0)
(6.34933e-07 1.29995e-06 0)
(1.68563e-06 1.43871e-06 0)
(2.41558e-06 5.02863e-06 0)
(1.2854e-06 2.08416e-05 0)
(-7.42583e-07 2.2075e-05 0)
(-1.63039e-06 2.31827e-05 0)
(-1.34656e-06 2.54779e-05 0)
(-7.05498e-08 2.63579e-05 0)
(1.97953e-06 2.67782e-05 0)
(3.59478e-06 2.56625e-05 0)
(5.22275e-06 2.70898e-05 0)
(8.46644e-06 2.73452e-05 0)
(1.13118e-05 2.51408e-05 0)
(1.31233e-05 2.33537e-05 0)
(1.49007e-05 2.16567e-05 0)
(1.66496e-05 1.92796e-05 0)
(1.76402e-05 1.59594e-05 0)
(1.75014e-05 1.2737e-05 0)
(1.66027e-05 1.01288e-05 0)
(1.5371e-05 8.16407e-06 0)
(1.4064e-05 6.71175e-06 0)
(1.28006e-05 5.63257e-06 0)
(1.16249e-05 4.8186e-06 0)
(1.05461e-05 4.19369e-06 0)
(9.55935e-06 3.70552e-06 0)
(8.65498e-06 3.31815e-06 0)
(7.82228e-06 3.00662e-06 0)
(7.05114e-06 2.75326e-06 0)
(6.33255e-06 2.5454e-06 0)
(5.65868e-06 2.37378e-06 0)
(5.02276e-06 2.23153e-06 0)
(4.41896e-06 2.11348e-06 0)
(3.8422e-06 2.01571e-06 0)
(3.28807e-06 1.93522e-06 0)
(2.75265e-06 1.86972e-06 0)
(2.23246e-06 1.81745e-06 0)
(1.7243e-06 1.77706e-06 0)
(1.22528e-06 1.74757e-06 0)
(7.32644e-07 1.72828e-06 0)
(2.43797e-07 1.71874e-06 0)
(-2.41064e-07 1.97905e-06 0)
(-7.24384e-07 1.98989e-06 0)
(-1.2113e-06 2.01183e-06 0)
(-1.70429e-06 2.04536e-06 0)
(-2.20592e-06 2.09125e-06 0)
(-2.71894e-06 2.15059e-06 0)
(-3.2463e-06 2.22487e-06 0)
(-3.79123e-06 2.31603e-06 0)
(-4.35729e-06 2.42658e-06 0)
(-4.94845e-06 2.55981e-06 0)
(-5.56919e-06 2.71995e-06 0)
(-6.22451e-06 2.91256e-06 0)
(-6.92008e-06 3.14494e-06 0)
(-7.66214e-06 3.42682e-06 0)
(-8.45747e-06 3.77129e-06 0)
(-9.31294e-06 4.1962e-06 0)
(-1.02345e-05 4.72615e-06 0)
(-1.12252e-05 5.39526e-06 0)
(-1.22802e-05 6.25086e-06 0)
(-1.33782e-05 7.35741e-06 0)
(-1.44639e-05 8.79782e-06 0)
(-1.54206e-05 1.06634e-05 0)
(-1.60404e-05 1.3011e-05 0)
(-1.60389e-05 1.57557e-05 0)
(-1.52241e-05 1.85182e-05 0)
(-1.38107e-05 2.07283e-05 0)
(-1.21925e-05 2.24625e-05 0)
(-1.03823e-05 2.40871e-05 0)
(-7.99789e-06 2.56019e-05 0)
(-5.45234e-06 2.57416e-05 0)
(-3.67671e-06 2.51793e-05 0)
(-2.02413e-06 2.55056e-05 0)
(-5.83115e-07 2.50371e-05 0)
(1.19114e-07 2.44405e-05 0)
(3.90353e-07 2.35501e-05 0)
(1.76354e-07 2.30013e-05 0)
(-3.36243e-07 2.29069e-05 0)
(-8.11658e-07 4.6968e-06 0)
(-8.8327e-07 9.41483e-07 0)
(-3.95705e-07 8.15502e-07 0)
(3.95705e-07 8.15502e-07 0)
(8.8327e-07 9.41483e-07 0)
(8.11658e-07 4.6968e-06 0)
(3.36243e-07 2.29069e-05 0)
(-1.76354e-07 2.30013e-05 0)
(-3.90353e-07 2.35501e-05 0)
(-1.19114e-07 2.44405e-05 0)
(5.83115e-07 2.50371e-05 0)
(2.02413e-06 2.55056e-05 0)
(3.67671e-06 2.51793e-05 0)
(5.45234e-06 2.57416e-05 0)
(7.99789e-06 2.56019e-05 0)
(1.03823e-05 2.40871e-05 0)
(1.21925e-05 2.24625e-05 0)
(1.38107e-05 2.07283e-05 0)
(1.52241e-05 1.85182e-05 0)
(1.60389e-05 1.57557e-05 0)
(1.60404e-05 1.3011e-05 0)
(1.54206e-05 1.06634e-05 0)
(1.44639e-05 8.79782e-06 0)
(1.33782e-05 7.35741e-06 0)
(1.22802e-05 6.25086e-06 0)
(1.12252e-05 5.39526e-06 0)
(1.02345e-05 4.72615e-06 0)
(9.31294e-06 4.1962e-06 0)
(8.45747e-06 3.77129e-06 0)
(7.66214e-06 3.42682e-06 0)
(6.92008e-06 3.14494e-06 0)
(6.22451e-06 2.91256e-06 0)
(5.56919e-06 2.71995e-06 0)
(4.94845e-06 2.55981e-06 0)
(4.35729e-06 2.42658e-06 0)
(3.79123e-06 2.31603e-06 0)
(3.2463e-06 2.22487e-06 0)
(2.71894e-06 2.15059e-06 0)
(2.20592e-06 2.09125e-06 0)
(1.70429e-06 2.04536e-06 0)
(1.2113e-06 2.01183e-06 0)
(7.24384e-07 1.98989e-06 0)
(2.41064e-07 1.97905e-06 0)
(-2.37672e-07 2.26093e-06 0)
(-7.14133e-07 2.27313e-06 0)
(-1.19396e-06 2.29781e-06 0)
(-1.67947e-06 2.3355e-06 0)
(-2.17304e-06 2.38706e-06 0)
(-2.67721e-06 2.45366e-06 0)
(-3.19467e-06 2.53693e-06 0)
(-3.72833e-06 2.63895e-06 0)
(-4.28134e-06 2.76244e-06 0)
(-4.85717e-06 2.91089e-06 0)
(-5.45958e-06 3.0888e-06 0)
(-6.0927e-06 3.30199e-06 0)
(-6.76093e-06 3.55803e-06 0)
(-7.46887e-06 3.86684e-06 0)
(-8.22094e-06 4.24151e-06 0)
(-9.02079e-06 4.69945e-06 0)
(-9.86998e-06 5.26392e-06 0)
(-1.07655e-05 5.96586e-06 0)
(-1.16953e-05 6.8459e-06 0)
(-1.26302e-05 7.95531e-06 0)
(-1.35116e-05 9.353e-06 0)
(-1.42356e-05 1.10918e-05 0)
(-1.46436e-05 1.31822e-05 0)
(-1.45516e-05 1.55269e-05 0)
(-1.38587e-05 1.78622e-05 0)
(-1.2683e-05 1.98657e-05 0)
(-1.12351e-05 2.15237e-05 0)
(-9.55272e-06 2.29723e-05 0)
(-7.53732e-06 2.41353e-05 0)
(-5.44939e-06 2.44915e-05 0)
(-3.72586e-06 2.43698e-05 0)
(-2.16515e-06 2.4425e-05 0)
(-1.03884e-06 2.40853e-05 0)
(-5.05192e-07 2.37647e-05 0)
(-1.56889e-07 2.34001e-05 0)
(1.71609e-08 2.31804e-05 0)
(1.39433e-07 2.32068e-05 0)
(-3.18958e-08 4.69969e-06 0)
(-3.5587e-07 4.3129e-07 0)
(-2.19983e-07 3.50239e-07 0)
(2.19983e-07 3.50239e-07 0)
(3.5587e-07 4.3129e-07 0)
(3.18958e-08 4.69969e-06 0)
(-1.39433e-07 2.32068e-05 0)
(-1.71609e-08 2.31804e-05 0)
(1.56889e-07 2.34001e-05 0)
(5.05192e-07 2.37647e-05 0)
(1.03884e-06 2.40853e-05 0)
(2.16515e-06 2.4425e-05 0)
(3.72586e-06 2.43698e-05 0)
(5.44939e-06 2.44915e-05 0)
(7.53732e-06 2.41353e-05 0)
(9.55272e-06 2.29723e-05 0)
(1.12351e-05 2.15237e-05 0)
(1.2683e-05 1.98657e-05 0)
(1.38587e-05 1.78622e-05 0)
(1.45516e-05 1.55269e-05 0)
(1.46436e-05 1.31822e-05 0)
(1.42356e-05 1.10918e-05 0)
(1.35116e-05 9.353e-06 0)
(1.26302e-05 7.95531e-06 0)
(1.16953e-05 6.8459e-06 0)
(1.07655e-05 5.96586e-06 0)
(9.86998e-06 5.26392e-06 0)
(9.02079e-06 4.69945e-06 0)
(8.22094e-06 4.24151e-06 0)
(7.46887e-06 3.86684e-06 0)
(6.76093e-06 3.55803e-06 0)
(6.0927e-06 3.30199e-06 0)
(5.45958e-06 3.0888e-06 0)
(4.85717e-06 2.91089e-06 0)
(4.28134e-06 2.76244e-06 0)
(3.72833e-06 2.63895e-06 0)
(3.19467e-06 2.53693e-06 0)
(2.67721e-06 2.45366e-06 0)
(2.17304e-06 2.38706e-06 0)
(1.67947e-06 2.3355e-06 0)
(1.19396e-06 2.29781e-06 0)