/*--------------------------------*- C++ -*----------------------------------*\
  =========                 |
  \\      /  F ield         | OpenFOAM: The Open Source CFD Toolbox
   \\    /   O peration     | Website:  https://openfoam.org
    \\  /    A nd           | Version:  10
     \\/     M anipulation  |
\*---------------------------------------------------------------------------*/
FoamFile
{
    format      ascii;
    class       volScalarField;
    location    "19500";
    object      p;
}
// * * * * * * * * * * * * * * * * * * * * * * * * * * * * * * * * * * * * * //

dimensions      [1 -1 -2 0 0 0 0];

internalField   nonuniform List<scalar> 
6400
(
112.031
112.071
112.153
112.287
112.492
112.985
271.305
425.258
647.199
862.848
1053.83
1239.61
1416.95
1590.54
1757.02
1922.73
2099.19
2276.71
2452.09
2622.2
2788.87
2952.99
3113.8
3272.17
3428.98
3584.52
3738.65
3891.47
4043.03
4192.95
4340.2
4482.77
4579.07
4635.19
4687.14
4733.71
4773.53
4805.14
4827.16
4838.48
4838.48
4827.16
4805.14
4773.53
4733.71
4687.14
4635.19
4579.07
4482.77
4340.2
4192.95
4043.03
3891.47
3738.65
3584.52
3428.98
3272.17
3113.8
2952.99
2788.87
2622.2
2452.09
2276.71
2099.19
1922.73
1757.02
1590.54
1416.95
1239.61
1053.83
862.848
647.199
425.258
271.305
112.985
112.492
112.287
112.153
112.071
112.031
111.735
111.775
111.857
111.99
112.195
112.567
112.715
128.038
353.355
569.907
760.015
945.961
1123.1
1296.84
1463.04
1628.25
1805.14
1982.8
2158.32
2328.35
2494.99
2659.14
2819.91
2978.25
3135.04
3290.59
3444.71
3597.53
3749.11
3899.07
4046.41
4189.19
4285.79
4342.13
4394.35
4441.23
4481.38
4513.3
4535.56
4547.02
4547.02
4535.56
4513.3
4481.38
4441.23
4394.35
4342.13
4285.79
4189.19
4046.41
3899.07
3749.11
3597.53
3444.71
3290.59
3135.04
2978.25
2819.91
2659.14
2494.99
2328.35
2158.32
1982.8
1805.14
1628.25
1463.04
1296.84
1123.1
945.961
760.015
569.907
353.355
128.038
112.715
112.567
112.195
111.99
111.857
111.775
111.735
111.409
111.448
111.529
111.661
111.86
112.18
112.372
112.907
112.828
250.687
437.897
624.304
800.929
975.081
1140.63
1304.62
1482.55
1660.53
1836.39
2006.22
2172.77
2337.01
2497.69
2655.94
2812.7
2968.27
3122.38
3275.2
3426.82
3576.88
3724.42
3867.66
3964.94
4021.81
4074.67
4122.26
4163.17
4195.82
4218.67
4230.45
4230.45
4218.67
4195.82
4163.17
4122.26
4074.67
4021.81
3964.94
3867.66
3724.42
3576.88
3426.82
3275.2
3122.38
2968.27
2812.7
2655.94
2497.69
2337.01
2172.77
2006.22
1836.39
1660.53
1482.55
1304.62
1140.63
975.081
800.929
624.304
437.897
250.687
112.828
112.907
112.372
112.18
111.86
111.661
111.529
111.448
111.409
111.049
111.087
111.167
111.295
111.486
111.763
111.974
112.378
112.33
112.218
112.507
272.372
447.66
622.697
787.048
948.7
1128.69
1307.16
1483.65
1653.09
1819.48
1983.91
2144.41
2302.51
2459.22
2614.83
2768.91
2921.73
3073.42
3223.66
3371.53
3515.56
3614.02
3671.81
3725.76
3774.61
3816.87
3850.83
3874.74
3887.11
3887.11
3874.74
3850.83
3816.87
3774.61
3725.76
3671.81
3614.02
3515.56
3371.53
3223.66
3073.42
2921.73
2768.91
2614.83
2459.22
2302.51
2144.41
1983.91
1819.48
1653.09
1483.65
1307.16
1128.69
948.7
787.048
622.697
447.66
272.372
112.507
112.218
112.33
112.378
111.974
111.763
111.486
111.295
111.167
111.087
111.049
110.65
110.688
110.766
110.889
111.069
111.312
111.523
111.831
111.833
111.775
111.882
111.744
111.916
237.816
399.364
556.803
740.622
919.697
1097.29
1265.99
1432.12
1596.91
1757.11
1914.95
2071.59
2227.28
2381.32
2534.11
2685.9
2836.41
2984.78
3129.98
3230.24
3289.44
3345.1
3395.93
3440.36
3476.44
3502.09
3515.45
3515.45
3502.09
3476.44
3440.36
3395.93
3345.1
3289.44
3230.24
3129.98
2984.78
2836.41
2685.9
2534.11
2381.32
2227.28
2071.59
1914.95
1757.11
1596.91
1432.12
1265.99
1097.29
919.697
740.622
556.803
399.364
237.816
111.916
111.744
111.882
111.775
111.833
111.831
111.523
111.312
111.069
110.889
110.766
110.688
110.65
110.21
110.246
110.321
110.439
110.606
110.819
111.02
111.259
111.294
111.274
111.338
111.266
111.343
111.283
111.333
124.048
315.267
494.794
674.361
841.624
1007.36
1172.85
1332.5
1489.97
1646.5
1802.34
1956.31
2109.05
2260.99
2411.88
2560.87
2707.67
2810.52
2871.77
2929.92
2983.69
3031.41
3070.83
3099.26
3114.23
3114.23
3099.26
3070.83
3031.41
2983.69
2929.92
2871.77
2810.52
2707.67
2560.87
2411.88
2260.99
2109.05
1956.31
1802.34
1646.5
1489.97
1332.5
1172.85
1007.36
841.624
674.361
494.794
315.267
124.048
111.333
111.283
111.343
111.266
111.338
111.274
111.294
111.259
111.02
110.819
110.606
110.439
110.321
110.246
110.21
109.723
109.758
109.829
109.94
110.092
110.28
110.464
110.654
110.709
110.715
110.757
110.725
110.771
110.751
110.823
111.193
110.757
110.778
214.346
376.4
541.463
708.394
867.006
1023.92
1180.31
1336.46
1490.26
1642.93
1795.04
1946.45
2096.19
2245
2351.36
2415.48
2477.11
2535.08
2587.71
2632.33
2665.25
2682.83
2682.83
2665.25
2632.33
2587.71
2535.08
2477.11
2415.48
2351.36
2245
2096.19
1946.45
1795.04
1642.93
1490.26
1336.46
1180.31
1023.92
867.006
708.394
541.463
376.4
214.346
110.778
110.757
111.193
110.823
110.751
110.771
110.725
110.757
110.715
110.709
110.654
110.464
110.28
110.092
109.94
109.829
109.758
109.723
109.185
109.218
109.285
109.387
109.525
109.689
109.853
110.008
110.074
110.097
110.129
110.122
110.152
110.156
110.225
110.421
110.172
110.111
109.953
109.796
109.9
202.759
356.783
512.787
668.988
825.769
979.235
1131.73
1284.06
1436.18
1586.65
1737.78
1848.75
1916.82
1983.1
2046.84
2106.72
2159.58
2199.94
2221.92
2221.92
2199.94
2159.58
2106.72
2046.84
1983.1
1916.82
1848.75
1737.78
1586.65
1436.18
1284.06
1131.73
979.235
825.769
668.988
512.787
356.783
202.759
109.9
109.796
109.953
110.111
110.172
110.421
110.225
110.156
110.152
110.122
110.129
110.097
110.074
110.008
109.853
109.689
109.525
109.387
109.285
109.218
109.185
108.589
108.62
108.682
108.775
108.898
109.041
109.185
109.314
109.383
109.417
109.447
109.454
109.477
109.493
109.548
109.646
109.502
109.422
109.297
109.183
109.198
109.132
108.958
108.973
111.479
266.466
418.909
571.042
723.652
876.793
1027.7
1181.11
1297.76
1371.49
1443.56
1514.78
1585.24
1651.7
1705.05
1734.83
1734.83
1705.05
1651.7
1585.24
1514.78
1443.56
1371.49
1297.76
1181.11
1027.7
876.793
723.652
571.042
418.909
266.466
111.479
108.973
108.958
109.132
109.198
109.183
109.297
109.422
109.502
109.646
109.548
109.493
109.477
109.454
109.447
109.417
109.383
109.314
109.185
109.041
108.898
108.775
108.682
108.62
108.589
107.93
107.958
108.014
108.098
108.206
108.33
108.455
108.564
108.633
108.673
108.703
108.718
108.739
108.758
108.797
108.841
108.753
108.676
108.575
108.487
108.464
108.401
108.292
108.297
108.441
108.133
108.024
108.072
114.67
264.222
414.348
569.23
691.96
775.552
853.179
932.552
1017.84
1108.21
1186.16
1230.68
1230.68
1186.16
1108.21
1017.84
932.552
853.179
775.552
691.96
569.23
414.348
264.222
114.67
108.072
108.024
108.133
108.441
108.297
108.292
108.401
108.464
108.487
108.575
108.676
108.753
108.841
108.797
108.758
108.739
108.718
108.703
108.673
108.633
108.564
108.455
108.33
108.206
108.098
108.014
107.958
107.93
107.2
107.225
107.276
107.35
107.444
107.551
107.657
107.751
107.816
107.859
107.89
107.909
107.929
107.948
107.973
107.988
107.931
107.862
107.781
107.708
107.667
107.609
107.536
107.525
107.56
107.389
107.303
107.327
107.464
107.152
107.035
107.072
108.016
147.987
211.098
292.234
394.58
531.467
659.201
732.541
732.541
659.201
531.467
394.58
292.234
211.098
147.987
108.016
107.072
107.035
107.152
107.464
107.327
107.303
107.389
107.56
107.525
107.536
107.609
107.667
107.708
107.781
107.862
107.931
107.988
107.973
107.948
107.929
107.909
107.89
107.859
107.816
107.751
107.657
107.551
107.444
107.35
107.276
107.225
107.2
106.393
106.415
106.46
106.524
106.605
106.696
106.786
106.866
106.927
106.97
107.001
107.023
107.042
107.058
107.072
107.072
107.031
106.974
106.907
106.845
106.797
106.744
106.689
106.664
106.652
106.549
106.482
106.479
106.505
106.337
106.242
106.235
106.246
106.155
106.098
106.072
106.08
110.26
197.272
305.516
305.516
197.272
110.26
106.08
106.072
106.098
106.155
106.246
106.235
106.242
106.337
106.505
106.479
106.482
106.549
106.652
106.664
106.689
106.744
106.797
106.845
106.907
106.974
107.031
107.072
107.072
107.058
107.042
107.023
107.001
106.97
106.927
106.866
106.786
106.696
106.605
106.524
106.46
106.415
106.393
105.5
105.519
105.558
105.613
105.681
105.758
105.834
105.902
105.957
105.999
106.029
106.051
106.069
106.081
106.089
106.082
106.049
106.002
105.947
105.893
105.845
105.797
105.75
105.717
105.685
105.615
105.561
105.538
105.518
105.418
105.343
105.311
105.284
105.248
105.216
105.195
105.185
105.184
105.559
130.716
130.716
105.559
105.184
105.185
105.195
105.216
105.248
105.284
105.311
105.343
105.418
105.518
105.538
105.561
105.615
105.685
105.717
105.75
105.797
105.845
105.893
105.947
106.002
106.049
106.082
106.089
106.081
106.069
106.051
106.029
105.999
105.957
105.902
105.834
105.758
105.681
105.613
105.558
105.519
105.5
104.512
104.529
104.562
104.608
104.665
104.729
104.792
104.851
104.899
104.938
104.966
104.988
105.003
105.013
105.015
105.006
104.979
104.94
104.894
104.847
104.802
104.757
104.714
104.677
104.639
104.586
104.539
104.505
104.468
104.4
104.339
104.298
104.268
104.246
104.226
104.211
104.201
104.196
104.19
109.211
109.211
104.19
104.196
104.201
104.211
104.226
104.246
104.268
104.298
104.339
104.4
104.468
104.505
104.539
104.586
104.639
104.677
104.714
104.757
104.802
104.847
104.894
104.94
104.979
105.006
105.015
105.013
105.003
104.988
104.966
104.938
104.899
104.851
104.792
104.729
104.665
104.608
104.562
104.529
104.512
103.421
103.435
103.462
103.501
103.548
103.6
103.653
103.702
103.744
103.778
103.805
103.824
103.838
103.845
103.844
103.833
103.811
103.778
103.739
103.698
103.657
103.616
103.576
103.538
103.498
103.454
103.411
103.373
103.332
103.279
103.229
103.188
103.16
103.144
103.129
103.117
103.108
103.102
103.09
105.595
105.595
103.09
103.102
103.108
103.117
103.129
103.144
103.16
103.188
103.229
103.279
103.332
103.373
103.411
103.454
103.498
103.538
103.576
103.616
103.657
103.698
103.739
103.778
103.811
103.833
103.844
103.845
103.838
103.824
103.805
103.778
103.744
103.702
103.653
103.6
103.548
103.501
103.462
103.435
103.421
102.217
102.228
102.25
102.282
102.32
102.362
102.405
102.445
102.481
102.511
102.534
102.551
102.563
102.567
102.565
102.554
102.535
102.507
102.474
102.438
102.401
102.364
102.326
102.289
102.251
102.211
102.171
102.132
102.093
102.048
102.006
101.968
101.944
101.931
101.919
101.908
101.9
101.894
101.882
103.847
103.847
101.882
101.894
101.9
101.908
101.919
101.931
101.944
101.968
102.006
102.048
102.093
102.132
102.171
102.211
102.251
102.289
102.326
102.364
102.401
102.438
102.474
102.507
102.535
102.554
102.565
102.567
102.563
102.551
102.534
102.511
102.481
102.445
102.405
102.362
102.32
102.282
102.25
102.228
102.217
100.803
100.812
100.83
100.854
100.884
100.917
100.951
100.984
101.013
101.037
101.057
101.071
101.08
101.083
101.08
101.069
101.052
101.029
101.001
100.97
100.937
100.903
100.868
100.833
100.797
100.76
100.724
100.687
100.65
100.612
100.575
100.542
100.522
100.51
100.5
100.491
100.483
100.477
100.465
102.347
102.347
100.465
100.477
100.483
100.491
100.5
100.51
100.522
100.542
100.575
100.612
100.65
100.687
100.724
100.76
100.797
100.833
100.868
100.903
100.937
100.97
101.001
101.029
101.052
101.069
101.08
101.083
101.08
101.071
101.057
101.037
101.013
100.984
100.951
100.917
100.884
100.854
100.83
100.812
100.803
99.2353
99.2422
99.2555
99.2743
99.2972
99.3227
99.349
99.3743
99.3974
99.4171
99.4328
99.444
99.4505
99.4518
99.4478
99.4381
99.423
99.403
99.3789
99.3517
99.3225
99.2917
99.2601
99.2276
99.1945
99.1608
99.1269
99.0931
99.0593
99.026
98.9942
98.9652
98.947
98.9368
98.9275
98.9193
98.9122
98.9063
98.8941
100.81
100.81
98.8941
98.9063
98.9122
98.9193
98.9275
98.9368
98.947
98.9652
98.9942
99.026
99.0593
99.0931
99.1269
99.1608
99.1945
99.2276
99.2601
99.2917
99.3225
99.3517
99.3789
99.403
99.423
99.4381
99.4478
99.4518
99.4505
99.444
99.4328
99.4171
99.3974
99.3743
99.349
99.3227
99.2972
99.2743
99.2555
99.2422
99.2353
97.6602
97.6655
97.6757
97.6901
97.7077
97.7273
97.7477
97.7674
97.7854
97.8009
97.8131
97.8216
97.826
97.826
97.8215
97.8124
97.7988
97.781
97.7598
97.7358
97.7096
97.6818
97.6528
97.6229
97.5924
97.5614
97.5302
97.4991
97.4684
97.4384
97.4101
97.3841
97.3677
97.3584
97.3498
97.3421
97.3352
97.3293
97.317
99.2904
99.2904
97.317
97.3293
97.3352
97.3421
97.3498
97.3584
97.3677
97.3841
97.4101
97.4384
97.4684
97.4991
97.5302
97.5614
97.5924
97.6229
97.6528
97.6818
97.7096
97.7358
97.7598
97.781
97.7988
97.8124
97.8215
97.826
97.826
97.8216
97.8131
97.8009
97.7854
97.7674
97.7477
97.7273
97.7077
97.6901
97.6757
97.6655
97.6602
96.0799
96.084
96.0918
96.1028
96.1163
96.1313
96.1469
96.1621
96.176
96.1879
96.1971
96.2032
96.2058
96.2048
96.1999
96.1911
96.1786
96.1626
96.1436
96.122
96.0983
96.073
96.0464
96.0189
95.9908
95.9621
95.9334
95.9047
95.8766
95.8493
95.8235
95.7998
95.7847
95.7759
95.7678
95.7604
95.7537
95.7477
95.7353
97.7735
97.7735
95.7353
95.7477
95.7537
95.7604
95.7678
95.7759
95.7847
95.7998
95.8235
95.8493
95.8766
95.9047
95.9334
95.9621
95.9908
96.0189
96.0464
96.073
96.0983
96.122
96.1436
96.1626
96.1786
96.1911
96.1999
96.2048
96.2058
96.2032
96.1971
96.1879
96.176
96.1621
96.1469
96.1313
96.1163
96.1028
96.0918
96.084
96.0799
94.4956
94.4987
94.5046
94.513
94.5233
94.5347
94.5466
94.5582
94.5687
94.5775
94.5842
94.5882
94.5894
94.5874
94.5821
94.5736
94.5619
94.5472
94.5299
94.5102
94.4886
94.4654
94.441
94.4156
94.3895
94.3631
94.3364
94.3099
94.2839
94.2588
94.2349
94.2129
94.1986
94.1902
94.1825
94.1752
94.1685
94.1624
94.1499
96.2588
96.2588
94.1499
94.1624
94.1685
94.1752
94.1825
94.1902
94.1986
94.2129
94.2349
94.2588
94.2839
94.3099
94.3364
94.3631
94.3895
94.4156
94.441
94.4654
94.4886
94.5102
94.5299
94.5472
94.5619
94.5736
94.5821
94.5874
94.5894
94.5882
94.5842
94.5775
94.5687
94.5582
94.5466
94.5347
94.5233
94.513
94.5046
94.4987
94.4956
92.9081
92.9105
92.915
92.9213
92.9291
92.9377
92.9466
92.9553
92.963
92.9693
92.9739
92.9762
92.9761
92.9733
92.9677
92.9593
92.9482
92.9345
92.9185
92.9004
92.8805
92.8591
92.8365
92.813
92.7888
92.7641
92.7393
92.7146
92.6904
92.6669
92.6445
92.6237
92.61
92.6019
92.5943
92.5871
92.5804
92.5742
92.5615
94.7474
94.7474
92.5615
92.5742
92.5804
92.5871
92.5943
92.6019
92.61
92.6237
92.6445
92.6669
92.6904
92.7146
92.7393
92.7641
92.7888
92.813
92.8365
92.8591
92.8805
92.9004
92.9185
92.9345
92.9482
92.9593
92.9677
92.9733
92.9761
92.9762
92.9739
92.9693
92.963
92.9553
92.9466
92.9377
92.9291
92.9213
92.915
92.9105
92.9081
91.3184
91.3201
91.3235
91.3282
91.334
91.3404
91.347
91.3532
91.3587
91.363
91.3657
91.3666
91.3654
91.3619
91.356
91.3477
91.3371
91.3242
91.3092
91.2924
91.2739
91.254
91.233
91.211
91.1884
91.1653
91.1421
91.1189
91.0961
91.0739
91.0526
91.0326
91.0193
91.0114
91.0039
90.9967
90.99
90.9836
90.9708
93.2409
93.2409
90.9708
90.9836
90.99
90.9967
91.0039
91.0114
91.0193
91.0326
91.0526
91.0739
91.0961
91.1189
91.1421
91.1653
91.1884
91.211
91.233
91.254
91.2739
91.2924
91.3092
91.3242
91.3371
91.3477
91.356
91.3619
91.3654
91.3666
91.3657
91.363
91.3587
91.3532
91.347
91.3404
91.334
91.3282
91.3235
91.3201
91.3184
89.7269
89.7282
89.7306
89.7341
89.7383
89.7429
89.7476
89.752
89.7556
89.7582
89.7595
89.7592
89.757
89.7529
89.7467
89.7385
89.7282
89.7159
89.7018
89.686
89.6687
89.6501
89.6304
89.6098
89.5885
89.5668
89.5448
89.5228
89.5011
89.4799
89.4595
89.44
89.4269
89.4191
89.4116
89.4044
89.3975
89.391
89.3779
91.7408
91.7408
89.3779
89.391
89.3975
89.4044
89.4116
89.4191
89.4269
89.44
89.4595
89.4799
89.5011
89.5228
89.5448
89.5668
89.5885
89.6098
89.6304
89.6501
89.6687
89.686
89.7018
89.7159
89.7282
89.7385
89.7467
89.7529
89.757
89.7592
89.7595
89.7582
89.7556
89.752
89.7476
89.7429
89.7383
89.7341
89.7306
89.7282
89.7269
88.1341
88.135
88.1368
88.1393
88.1422
88.1454
88.1486
88.1514
88.1535
88.1548
88.1548
88.1535
88.1506
88.146
88.1396
88.1313
88.1213
88.1095
88.0961
88.0811
88.0648
88.0472
88.0286
88.0092
87.989
87.9684
87.9475
87.9265
87.9057
87.8852
87.8653
87.8462
87.8331
87.8253
87.8178
87.8105
87.8034
87.7967
87.7834
90.2486
90.2486
87.7834
87.7967
87.8034
87.8105
87.8178
87.8253
87.8331
87.8462
87.8653
87.8852
87.9057
87.9265
87.9475
87.9684
87.989
88.0092
88.0286
88.0472
88.0648
88.0811
88.0961
88.1095
88.1213
88.1313
88.1396
88.146
88.1506
88.1535
88.1548
88.1548
88.1535
88.1514
88.1486
88.1454
88.1422
88.1393
88.1368
88.135
88.1341
86.5404
86.541
86.5422
86.5439
86.5459
86.5479
86.5499
86.5514
86.5524
86.5525
86.5516
86.5494
86.5459
86.5408
86.5342
86.526
86.5161
86.5048
86.4919
86.4776
86.4621
86.4454
86.4277
86.4092
86.39
86.3703
86.3503
86.3301
86.3099
86.2899
86.2703
86.2513
86.2382
86.2303
86.2227
86.2152
86.2079
86.2009
86.1874
88.7664
88.7664
86.1874
86.2009
86.2079
86.2152
86.2227
86.2303
86.2382
86.2513
86.2703
86.2899
86.3099
86.3301
86.3503
86.3703
86.39
86.4092
86.4277
86.4454
86.4621
86.4776
86.4919
86.5048
86.5161
86.526
86.5342
86.5408
86.5459
86.5494
86.5516
86.5525
86.5524
86.5514
86.5499
86.5479
86.5459
86.5439
86.5422
86.541
86.5404
84.946
84.9465
84.9472
84.9483
84.9494
84.9506
84.9516
84.9521
84.9521
84.9513
84.9496
84.9467
84.9426
84.9372
84.9304
84.9222
84.9126
84.9015
84.8891
84.8754
84.8605
84.8446
84.8277
84.81
84.7916
84.7726
84.7532
84.7336
84.7138
84.6942
84.6747
84.6557
84.6424
84.6343
84.6264
84.6187
84.6112
84.6039
84.5901
87.2963
87.2963
84.5901
84.6039
84.6112
84.6187
84.6264
84.6343
84.6424
84.6557
84.6747
84.6942
84.7138
84.7336
84.7532
84.7726
84.7916
84.81
84.8277
84.8446
84.8605
84.8754
84.8891
84.9015
84.9126
84.9222
84.9304
84.9372
84.9426
84.9467
84.9496
84.9513
84.9521
84.9521
84.9516
84.9506
84.9494
84.9483
84.9472
84.9465
84.946
83.3513
83.3515
83.3519
83.3525
83.353
83.3535
83.3536
83.3534
83.3526
83.3511
83.3487
83.3452
83.3407
83.335
83.3281
83.3199
83.3104
83.2996
83.2876
83.2744
83.2601
83.2447
83.2285
83.2114
83.1937
83.1753
83.1564
83.1372
83.1178
83.0982
83.0787
83.0594
83.0458
83.0375
83.0293
83.0213
83.0135
83.0058
82.9916
85.8411
85.8411
82.9916
83.0058
83.0135
83.0213
83.0293
83.0375
83.0458
83.0594
83.0787
83.0982
83.1178
83.1372
83.1564
83.1753
83.1937
83.2114
83.2285
83.2447
83.2601
83.2744
83.2876
83.2996
83.3104
83.3199
83.3281
83.335
83.3407
83.3452
83.3487
83.3511
83.3526
83.3534
83.3536
83.3535
83.353
83.3525
83.3519
83.3515
83.3513
81.7563
81.7564
81.7565
81.7567
81.7567
81.7566
81.7561
81.7552
81.7538
81.7517
81.7487
81.7449
81.74
81.7341
81.727
81.7188
81.7094
81.6989
81.6872
81.6744
81.6606
81.6458
81.6301
81.6136
81.5964
81.5785
81.56
81.5411
81.5218
81.5022
81.4825
81.4627
81.4486
81.44
81.4314
81.423
81.4147
81.4066
81.3918
84.4037
84.4037
81.3918
81.4066
81.4147
81.423
81.4314
81.44
81.4486
81.4627
81.4825
81.5022
81.5218
81.5411
81.56
81.5785
81.5964
81.6136
81.6301
81.6458
81.6606
81.6744
81.6872
81.6989
81.7094
81.7188
81.727
81.7341
81.74
81.7449
81.7487
81.7517
81.7538
81.7552
81.7561
81.7566
81.7567
81.7567
81.7565
81.7564
81.7563
80.1613
80.1612
80.1611
80.1609
80.1606
80.16
80.159
80.1576
80.1557
80.1531
80.1497
80.1455
80.1404
80.1343
80.1272
80.119
80.1097
80.0993
80.0879
80.0755
80.0621
80.0478
80.0326
80.0165
79.9997
79.9822
79.964
79.9453
79.9261
79.9063
79.8862
79.8659
79.8511
79.842
79.833
79.824
79.8151
79.8064
79.7909
82.9876
82.9876
79.7909
79.8064
79.8151
79.824
79.833
79.842
79.8511
79.8659
79.8862
79.9063
79.9261
79.9453
79.964
79.9822
79.9997
80.0165
80.0326
80.0478
80.0621
80.0755
80.0879
80.0993
80.1097
80.119
80.1272
80.1343
80.1404
80.1455
80.1497
80.1531
80.1557
80.1576
80.159
80.16
80.1606
80.1609
80.1611
80.1612
80.1613
78.5662
78.5661
78.5658
78.5654
78.5647
78.5637
78.5624
78.5606
78.5582
78.5553
78.5516
78.5471
78.5417
78.5355
78.5283
78.5201
78.511
78.5008
78.4897
78.4776
78.4646
78.4506
78.4358
78.4202
78.4038
78.3866
78.3687
78.3501
78.3308
78.3109
78.2903
78.2691
78.2535
78.2439
78.2342
78.2245
78.2148
78.2053
78.1886
81.5957
81.5957
78.1886
78.2053
78.2148
78.2245
78.2342
78.2439
78.2535
78.2691
78.2903
78.3109
78.3308
78.3501
78.3687
78.3866
78.4038
78.4202
78.4358
78.4506
78.4646
78.4776
78.4897
78.5008
78.511
78.5201
78.5283
78.5355
78.5417
78.5471
78.5516
78.5553
78.5582
78.5606
78.5624
78.5637
78.5647
78.5654
78.5658
78.5661
78.5662
76.9713
76.9711
76.9707
76.9701
76.9692
76.9679
76.9662
76.9641
76.9614
76.9582
76.9542
76.9495
76.944
76.9377
76.9305
76.9223
76.9133
76.9033
76.8924
76.8806
76.8679
76.8543
76.8399
76.8246
76.8086
76.7917
76.774
76.7555
76.7362
76.716
76.6949
76.6729
76.6562
76.6458
76.6353
76.6246
76.6139
76.6032
76.5849
80.2276
80.2276
76.5849
76.6032
76.6139
76.6246
76.6353
76.6458
76.6562
76.6729
76.6949
76.716
76.7362
76.7555
76.774
76.7917
76.8086
76.8246
76.8399
76.8543
76.8679
76.8806
76.8924
76.9033
76.9133
76.9223
76.9305
76.9377
76.944
76.9495
76.9542
76.9582
76.9614
76.9641
76.9662
76.9679
76.9692
76.9701
76.9707
76.9711
76.9713
75.3766
75.3764
75.3758
75.375
75.3739
75.3724
75.3705
75.3681
75.3652
75.3617
75.3576
75.3527
75.3471
75.3407
75.3335
75.3254
75.3165
75.3067
75.2961
75.2845
75.2721
75.2589
75.2448
75.2299
75.2142
75.1976
75.1801
75.1618
75.1425
75.1221
75.1005
75.0775
75.0598
75.0486
75.037
75.0251
75.013
75.0006
74.9798
78.8638
78.8638
74.9798
75.0006
75.013
75.0251
75.037
75.0486
75.0598
75.0775
75.1005
75.1221
75.1425
75.1618
75.1801
75.1976
75.2142
75.2299
75.2448
75.2589
75.2721
75.2845
75.2961
75.3067
75.3165
75.3254
75.3335
75.3407
75.3471
75.3527
75.3576
75.3617
75.3652
75.3681
75.3705
75.3724
75.3739
75.375
75.3758
75.3764
75.3766
73.7821
73.7818
73.7812
73.7803
73.779
73.7774
73.7753
73.7727
73.7696
73.7659
73.7616
73.7567
73.751
73.7446
73.7374
73.7294
73.7206
73.711
73.7006
73.6893
73.6772
73.6643
73.6506
73.636
73.6206
73.6043
73.5872
73.569
73.5498
73.5294
73.5075
73.4838
73.4651
73.453
73.4403
73.427
73.413
73.3983
73.3737
77.3954
77.3954
73.3737
73.3983
73.413
73.427
73.4403
73.453
73.4651
73.4838
73.5075
73.5294
73.5498
73.569
73.5872
73.6043
73.6206
73.636
73.6506
73.6643
73.6772
73.6893
73.7006
73.711
73.7206
73.7294
73.7374
73.7446
73.751
73.7567
73.7616
73.7659
73.7696
73.7727
73.7753
73.7774
73.779
73.7803
73.7812
73.7818
73.7821
72.188
72.1876
72.187
72.186
72.1846
72.1828
72.1805
72.1778
72.1746
72.1708
72.1664
72.1613
72.1556
72.1492
72.1421
72.1342
72.1256
72.1161
72.1059
72.0949
72.0831
72.0705
72.0572
72.0429
72.0279
72.012
71.9952
71.9773
71.9584
71.9381
71.9162
71.8923
71.8731
71.8605
71.847
71.8323
71.8164
71.7988
71.769
75.3623
75.3623
71.769
71.7988
71.8164
71.8323
71.847
71.8605
71.8731
71.8923
71.9162
71.9381
71.9584
71.9773
71.9952
72.012
72.0279
72.0429
72.0572
72.0705
72.0831
72.0949
72.1059
72.1161
72.1256
72.1342
72.1421
72.1492
72.1556
72.1613
72.1664
72.1708
72.1746
72.1778
72.1805
72.1828
72.1846
72.186
72.187
72.1876
72.188
70.5941
70.5938
70.5931
70.592
70.5905
70.5886
70.5862
70.5834
70.5801
70.5762
70.5717
70.5667
70.561
70.5546
70.5475
70.5398
70.5313
70.522
70.512
70.5013
70.4898
70.4776
70.4645
70.4507
70.4361
70.4206
70.4042
70.3867
70.3682
70.3484
70.327
70.3037
70.2848
70.2725
70.2592
70.2446
70.2282
70.2091
70.1764
71.449
71.449
70.1764
70.2091
70.2282
70.2446
70.2592
70.2725
70.2848
70.3037
70.327
70.3484
70.3682
70.3867
70.4042
70.4206
70.4361
70.4507
70.4645
70.4776
70.4898
70.5013
70.512
70.522
70.5313
70.5398
70.5475
70.5546
70.561
70.5667
70.5717
70.5762
70.5801
70.5834
70.5862
70.5886
70.5905
70.592
70.5931
70.5938
70.5941
69.0007
69.0003
68.9995
68.9984
68.9968
68.9949
68.9924
68.9895
68.9861
68.9822
68.9777
68.9726
68.967
68.9606
68.9537
68.946
68.9377
68.9287
68.9189
68.9085
68.8973
68.8854
68.8727
68.8593
68.8451
68.8301
68.8142
68.7973
68.7794
68.7603
68.7398
68.7177
68.7004
68.6893
68.6778
68.6659
68.6536
68.6411
68.6251
68.6198
68.6198
68.6251
68.6411
68.6536
68.6659
68.6778
68.6893
68.7004
68.7177
68.7398
68.7603
68.7794
68.7973
68.8142
68.8301
68.8451
68.8593
68.8727
68.8854
68.8973
68.9085
68.9189
68.9287
68.9377
68.946
68.9537
68.9606
68.967
68.9726
68.9777
68.9822
68.9861
68.9895
68.9924
68.9949
68.9968
68.9984
68.9995
69.0003
69.0007
67.4075
67.4072
67.4064
67.4052
67.4036
67.4016
67.3991
67.3962
67.3927
67.3888
67.3843
67.3792
67.3736
67.3674
67.3605
67.353
67.3448
67.336
67.3265
67.3164
67.3055
67.294
67.2817
67.2687
67.255
67.2405
67.2251
67.2089
67.1917
67.1735
67.1542
67.1337
67.1181
67.1084
67.0987
67.0891
67.0799
67.0715
67.0641
67.0599
67.0599
67.0641
67.0715
67.0799
67.0891
67.0987
67.1084
67.1181
67.1337
67.1542
67.1735
67.1917
67.2089
67.2251
67.2405
67.255
67.2687
67.2817
67.294
67.3055
67.3164
67.3265
67.336
67.3448
67.353
67.3605
67.3674
67.3736
67.3792
67.3843
67.3888
67.3927
67.3962
67.3991
67.4016
67.4036
67.4052
67.4064
67.4072
67.4075
65.8148
65.8144
65.8136
65.8124
65.8108
65.8088
65.8063
65.8033
65.7998
65.7959
65.7914
65.7864
65.7808
65.7747
65.7679
65.7606
65.7526
65.744
65.7348
65.7249
65.7144
65.7032
65.6914
65.6788
65.6656
65.6517
65.6369
65.6214
65.6051
65.5879
65.5697
65.5507
65.5364
65.5276
65.5188
65.5102
65.5019
65.4944
65.489
65.4849
65.4849
65.489
65.4944
65.5019
65.5102
65.5188
65.5276
65.5364
65.5507
65.5697
65.5879
65.6051
65.6214
65.6369
65.6517
65.6656
65.6788
65.6914
65.7032
65.7144
65.7249
65.7348
65.744
65.7526
65.7606
65.7679
65.7747
65.7808
65.7864
65.7914
65.7959
65.7998
65.8033
65.8063
65.8088
65.8108
65.8124
65.8136
65.8144
65.8148
64.2225
64.2221
64.2213
64.2201
64.2184
64.2164
64.2139
64.2109
64.2075
64.2035
64.1991
64.1941
64.1886
64.1826
64.176
64.1688
64.161
64.1527
64.1437
64.1341
64.124
64.1132
64.1017
64.0897
64.077
64.0636
64.0496
64.0348
64.0194
64.0031
63.9861
63.9684
63.9549
63.9465
63.938
63.9293
63.9206
63.9122
63.9072
63.9032
63.9032
63.9072
63.9122
63.9206
63.9293
63.938
63.9465
63.9549
63.9684
63.9861
64.0031
64.0194
64.0348
64.0496
64.0636
64.077
64.0897
64.1017
64.1132
64.124
64.1341
64.1437
64.1527
64.161
64.1688
64.176
64.1826
64.1886
64.1941
64.1991
64.2035
64.2075
64.2109
64.2139
64.2164
64.2184
64.2201
64.2213
64.2221
64.2225
62.6306
62.6302
62.6294
62.6281
62.6265
62.6244
62.6219
62.619
62.6156
62.6117
62.6073
62.6024
62.597
62.5911
62.5846
62.5776
62.5701
62.5619
62.5532
62.544
62.5341
62.5237
62.5127
62.5012
62.489
62.4762
62.4629
62.4489
62.4344
62.4192
62.4034
62.3869
62.3743
62.3662
62.3578
62.3486
62.3381
62.3254
62.3136
62.3111
62.3111
62.3136
62.3254
62.3381
62.3486
62.3578
62.3662
62.3743
62.3869
62.4034
62.4192
62.4344
62.4489
62.4629
62.4762
62.489
62.5012
62.5127
62.5237
62.5341
62.544
62.5532
62.5619
62.5701
62.5776
62.5846
62.5911
62.597
62.6024
62.6073
62.6117
62.6156
62.619
62.6219
62.6244
62.6265
62.6281
62.6294
62.6302
62.6306
61.0393
61.0389
61.038
61.0368
61.0352
61.0331
61.0307
61.0277
61.0244
61.0205
61.0162
61.0114
61.0061
61.0003
60.994
60.9872
60.9798
60.972
60.9635
60.9546
60.9451
60.9351
60.9245
60.9134
60.9018
60.8897
60.877
60.8639
60.8502
60.8361
60.8215
60.8065
60.7953
60.7884
60.7814
60.7743
60.7674
60.7611
60.756
60.7536
60.7536
60.756
60.7611
60.7674
60.7743
60.7814
60.7884
60.7953
60.8065
60.8215
60.8361
60.8502
60.8639
60.877
60.8897
60.9018
60.9134
60.9245
60.9351
60.9451
60.9546
60.9635
60.972
60.9798
60.9872
60.994
61.0003
61.0061
61.0114
61.0162
61.0205
61.0244
61.0277
61.0307
61.0331
61.0352
61.0368
61.038
61.0389
61.0393
59.4483
59.4479
59.4471
59.4459
59.4443
59.4423
59.4398
59.4369
59.4336
59.4298
59.4256
59.4209
59.4157
59.4101
59.4039
59.3973
59.3902
59.3825
59.3744
59.3657
59.3566
59.347
59.3369
59.3262
59.3152
59.3036
59.2917
59.2793
59.2665
59.2534
59.2401
59.2265
59.2168
59.2109
59.2051
59.1995
59.1942
59.1894
59.1853
59.183
59.183
59.1853
59.1894
59.1942
59.1995
59.2051
59.2109
59.2168
59.2265
59.2401
59.2534
59.2665
59.2793
59.2917
59.3036
59.3152
59.3262
59.3369
59.347
59.3566
59.3657
59.3744
59.3825
59.3902
59.3973
59.4039
59.4101
59.4157
59.4209
59.4256
59.4298
59.4336
59.4369
59.4398
59.4423
59.4443
59.4459
59.4471
59.4479
59.4483
57.8578
57.8574
57.8566
57.8555
57.8539
57.8519
57.8494
57.8466
57.8433
57.8396
57.8355
57.8309
57.8258
57.8203
57.8143
57.8079
57.801
57.7936
57.7857
57.7774
57.7686
57.7594
57.7497
57.7395
57.729
57.718
57.7067
57.6951
57.6832
57.671
57.6588
57.6466
57.6379
57.6328
57.6277
57.6229
57.6184
57.6142
57.6103
57.6081
57.6081
57.6103
57.6142
57.6184
57.6229
57.6277
57.6328
57.6379
57.6466
57.6588
57.671
57.6832
57.6951
57.7067
57.718
57.729
57.7395
57.7497
57.7594
57.7686
57.7774
57.7857
57.7936
57.801
57.8079
57.8143
57.8203
57.8258
57.8309
57.8355
57.8396
57.8433
57.8466
57.8494
57.8519
57.8539
57.8555
57.8566
57.8574
57.8578
56.2677
56.2673
56.2666
56.2654
56.2638
56.2618
56.2595
56.2567
56.2535
56.2498
56.2458
56.2413
56.2364
56.231
56.2252
56.219
56.2123
56.2051
56.1975
56.1895
56.1811
56.1722
56.1629
56.1532
56.1432
56.1328
56.1221
56.1112
56.1
56.0887
56.0774
56.0663
56.0585
56.0538
56.0493
56.0449
56.0408
56.0369
56.0332
56.0309
56.0309
56.0332
56.0369
56.0408
56.0449
56.0493
56.0538
56.0585
56.0663
56.0774
56.0887
56.1
56.1112
56.1221
56.1328
56.1432
56.1532
56.1629
56.1722
56.1811
56.1895
56.1975
56.2051
56.2123
56.219
56.2252
56.231
56.2364
56.2413
56.2458
56.2498
56.2535
56.2567
56.2595
56.2618
56.2638
56.2654
56.2666
56.2673
56.2677
54.678
54.6776
54.6768
54.6757
54.6742
54.6722
54.6699
54.6672
54.664
54.6605
54.6565
54.6522
54.6474
54.6422
54.6365
54.6305
54.624
54.6171
54.6098
54.602
54.5939
54.5854
54.5765
54.5673
54.5577
54.5479
54.5378
54.5274
54.517
54.5064
54.496
54.4857
54.4785
54.4742
54.47
54.4659
54.462
54.4583
54.4546
54.4524
54.4524
54.4546
54.4583
54.462
54.4659
54.47
54.4742
54.4785
54.4857
54.496
54.5064
54.517
54.5274
54.5378
54.5479
54.5577
54.5673
54.5765
54.5854
54.5939
54.602
54.6098
54.6171
54.624
54.6305
54.6365
54.6422
54.6474
54.6522
54.6565
54.6605
54.664
54.6672
54.6699
54.6722
54.6742
54.6757
54.6768
54.6776
54.678
53.0887
53.0883
53.0875
53.0864
53.0849
53.083
53.0807
53.0781
53.075
53.0715
53.0677
53.0634
53.0588
53.0537
53.0483
53.0424
53.0361
53.0295
53.0224
53.015
53.0072
52.999
52.9905
52.9817
52.9726
52.9632
52.9536
52.9439
52.934
52.9241
52.9143
52.9047
52.898
52.8939
52.8899
52.8861
52.8823
52.8787
52.8752