/*--------------------------------*- C++ -*----------------------------------*\
  =========                 |
  \\      /  F ield         | OpenFOAM: The Open Source CFD Toolbox
   \\    /   O peration     | Website:  https://openfoam.org
    \\  /    A nd           | Version:  10
     \\/     M anipulation  |
\*---------------------------------------------------------------------------*/
FoamFile
{
    format      ascii;
    class       volScalarField;
    location    "55";
    object      p;
}
// * * * * * * * * * * * * * * * * * * * * * * * * * * * * * * * * * * * * * //

dimensions      [1 -1 -2 0 0 0 0];

internalField   nonuniform List<scalar> 
100
(
1.02298e+07
1.02294e+07
1.02289e+07
1.02283e+07
1.02276e+07
1.02269e+07
1.02261e+07
1.02253e+07
1.02244e+07
1.02234e+07
1.02224e+07
1.02214e+07
1.02203e+07
1.02191e+07
1.02179e+07
1.02167e+07
1.02154e+07
1.02141e+07
1.02127e+07
1.02113e+07
1.02099e+07
1.02084e+07
1.02069e+07
1.02054e+07
1.02038e+07
1.02022e+07
1.02006e+07
1.01989e+07
1.01972e+07
1.01954e+07
1.01936e+07
1.01918e+07
1.019e+07
1.01881e+07
1.01862e+07
1.01842e+07
1.01823e+07
1.01803e+07
1.01782e+07
1.01762e+07
1.01741e+07
1.0172e+07
1.01698e+07
1.01676e+07
1.01654e+07
1.01632e+07
1.01609e+07
1.01586e+07
1.01563e+07
1.0154e+07
1.01516e+07
1.01492e+07
1.01467e+07
1.01443e+07
1.01418e+07
1.01393e+07
1.01367e+07
1.01342e+07
1.01316e+07
1.01289e+07
1.01263e+07
1.01236e+07
1.01209e+07
1.01182e+07
1.01154e+07
1.01126e+07
1.01098e+07
1.0107e+07
1.01041e+07
1.01013e+07
1.00983e+07
1.00954e+07
1.00924e+07
1.00895e+07
1.00864e+07
1.00834e+07
1.00803e+07
1.00772e+07
1.00741e+07
1.0071e+07
1.00678e+07
1.00646e+07
1.00613e+07
1.00581e+07
1.00548e+07
1.00515e+07
1.00482e+07
1.00448e+07
1.00414e+07
1.0038e+07
1.00345e+07
1.00311e+07
1.00275e+07
1.0024e+07
1.00204e+07
1.00168e+07
1.00131e+07
1.00094e+07
1.00057e+07
1.00019e+07
)
;

boundaryField
{
    inlet
    {
        type            zeroGradient;
    }
    outlet
    {
        type            fixedValue;
        value           uniform 1e+07;
    }
    yzfaces
    {
        type            empty;
    }
}


// ************************************************************************* //
