/*--------------------------------*- C++ -*----------------------------------*\
  =========                 |
  \\      /  F ield         | OpenFOAM: The Open Source CFD Toolbox
   \\    /   O peration     | Website:  https://openfoam.org
    \\  /    A nd           | Version:  10
     \\/     M anipulation  |
\*---------------------------------------------------------------------------*/
FoamFile
{
    format      ascii;
    class       volVectorField;
    location    "55";
    object      Ub;
}
// * * * * * * * * * * * * * * * * * * * * * * * * * * * * * * * * * * * * * //

dimensions      [0 1 -1 0 0 0 0];

internalField   nonuniform List<vector> 
100
(
(2.71985e-07 0 0)
(8.21757e-07 0 0)
(1.38265e-06 0 0)
(1.95153e-06 0 0)
(2.52467e-06 0 0)
(3.1004e-06 0 0)
(3.67785e-06 0 0)
(4.25652e-06 0 0)
(4.83608e-06 0 0)
(5.41636e-06 0 0)
(5.99723e-06 0 0)
(6.57862e-06 0 0)
(7.16047e-06 0 0)
(7.74276e-06 0 0)
(8.32549e-06 0 0)
(8.90865e-06 0 0)
(9.49225e-06 0 0)
(1.00763e-05 0 0)
(1.06608e-05 0 0)
(1.12458e-05 0 0)
(1.18313e-05 0 0)
(1.24174e-05 0 0)
(1.3004e-05 0 0)
(1.35912e-05 0 0)
(1.4179e-05 0 0)
(1.47675e-05 0 0)
(1.53566e-05 0 0)
(1.59464e-05 0 0)
(1.65369e-05 0 0)
(1.71282e-05 0 0)
(1.77202e-05 0 0)
(1.83131e-05 0 0)
(1.89068e-05 0 0)
(1.95013e-05 0 0)
(2.00968e-05 0 0)
(2.06932e-05 0 0)
(2.12905e-05 0 0)
(2.18889e-05 0 0)
(2.24883e-05 0 0)
(2.30887e-05 0 0)
(2.36902e-05 0 0)
(2.42929e-05 0 0)
(2.48967e-05 0 0)
(2.55018e-05 0 0)
(2.6108e-05 0 0)
(2.67156e-05 0 0)
(2.73244e-05 0 0)
(2.79347e-05 0 0)
(2.85463e-05 0 0)
(2.91594e-05 0 0)
(2.97739e-05 0 0)
(3.03901e-05 0 0)
(3.10078e-05 0 0)
(3.16272e-05 0 0)
(3.22482e-05 0 0)
(3.28711e-05 0 0)
(3.34958e-05 0 0)
(3.41224e-05 0 0)
(3.4751e-05 0 0)
(3.53816e-05 0 0)
(3.60143e-05 0 0)
(3.66493e-05 0 0)
(3.72866e-05 0 0)
(3.79263e-05 0 0)
(3.85685e-05 0 0)
(3.92134e-05 0 0)
(3.98611e-05 0 0)
(4.05117e-05 0 0)
(4.11653e-05 0 0)
(4.18223e-05 0 0)
(4.24826e-05 0 0)
(4.31466e-05 0 0)
(4.38145e-05 0 0)
(4.44866e-05 0 0)
(4.5163e-05 0 0)
(4.58442e-05 0 0)
(4.65305e-05 0 0)
(4.72224e-05 0 0)
(4.79202e-05 0 0)
(4.86245e-05 0 0)
(4.9336e-05 0 0)
(5.00553e-05 0 0)
(5.07833e-05 0 0)
(5.15208e-05 0 0)
(5.22692e-05 0 0)
(5.30296e-05 0 0)
(5.38038e-05 0 0)
(5.45936e-05 0 0)
(5.54014e-05 0 0)
(5.62301e-05 0 0)
(5.70833e-05 0 0)
(5.79656e-05 0 0)
(5.88828e-05 0 0)
(5.98425e-05 0 0)
(6.08547e-05 0 0)
(6.19328e-05 0 0)
(6.30955e-05 0 0)
(6.43692e-05 0 0)
(6.5793e-05 0 0)
(6.74272e-05 0 0)
)
;

boundaryField
{
    inlet
    {
        type            fixedValue;
        value           uniform (0 0 0);
    }
    outlet
    {
        type            zeroGradient;
    }
    yzfaces
    {
        type            empty;
    }
}


// ************************************************************************* //
