/*--------------------------------*- C++ -*----------------------------------*\
  =========                 |
  \\      /  F ield         | OpenFOAM: The Open Source CFD Toolbox
   \\    /   O peration     | Website:  https://openfoam.org
    \\  /    A nd           | Version:  10
     \\/     M anipulation  |
\*---------------------------------------------------------------------------*/
FoamFile
{
    format      ascii;
    class       volScalarField;
    location    "55";
    object      yH2O;
}
// * * * * * * * * * * * * * * * * * * * * * * * * * * * * * * * * * * * * * //

dimensions      [0 0 0 0 0 0 0];

internalField   nonuniform List<scalar> 
100
(
0.00188624
0.00188632
0.00188641
0.00188652
0.00188665
0.00188679
0.00188694
0.0018871
0.00188727
0.00188746
0.00188765
0.00188785
0.00188806
0.00188828
0.00188851
0.00188875
0.00188899
0.00188924
0.0018895
0.00188977
0.00189005
0.00189033
0.00189062
0.00189091
0.00189122
0.00189153
0.00189184
0.00189217
0.0018925
0.00189283
0.00189317
0.00189352
0.00189388
0.00189424
0.00189461
0.00189498
0.00189536
0.00189575
0.00189614
0.00189654
0.00189694
0.00189735
0.00189777
0.00189819
0.00189862
0.00189905
0.00189949
0.00189993
0.00190038
0.00190084
0.0019013
0.00190177
0.00190224
0.00190272
0.0019032
0.00190369
0.00190419
0.00190469
0.00190519
0.0019057
0.00190622
0.00190674
0.00190727
0.0019078
0.00190834
0.00190889
0.00190944
0.00190999
0.00191055
0.00191112
0.00191169
0.00191227
0.00191285
0.00191344
0.00191403
0.00191463
0.00191523
0.00191584
0.00191646
0.00191708
0.0019177
0.00191833
0.00191897
0.00191962
0.00192026
0.00192092
0.00192158
0.00192225
0.00192292
0.0019236
0.00192428
0.00192498
0.00192568
0.00192638
0.00192709
0.00192781
0.00192854
0.00192928
0.00193003
0.00193078
)
;

boundaryField
{
    inlet
    {
        type            fixedValue;
        value           uniform 0;
    }
    outlet
    {
        type            zeroGradient;
    }
    yzfaces
    {
        type            empty;
    }
}


// ************************************************************************* //
