/*--------------------------------*- C++ -*----------------------------------*\
  =========                 |
  \\      /  F ield         | OpenFOAM: The Open Source CFD Toolbox
   \\    /   O peration     | Website:  https://openfoam.org
    \\  /    A nd           | Version:  10
     \\/     M anipulation  |
\*---------------------------------------------------------------------------*/
FoamFile
{
    format      ascii;
    class       volVectorField;
    location    "11300";
    object      Ua;
}
// * * * * * * * * * * * * * * * * * * * * * * * * * * * * * * * * * * * * * //

dimensions      [0 1 -1 0 0 0 0];

internalField   nonuniform List<vector> 
6400
(
(-2.58305e-07 5.25053e-08 0)
(-7.7654e-07 5.28358e-08 0)
(-1.2997e-06 5.35059e-08 0)
(-1.83121e-06 5.45341e-08 0)
(-2.37475e-06 5.595e-08 0)
(-2.93433e-06 5.77959e-08 0)
(-3.51448e-06 6.01301e-08 0)
(-4.12038e-06 6.30315e-08 0)
(-4.75814e-06 6.66063e-08 0)
(-5.4351e-06 7.09985e-08 0)
(-6.16027e-06 7.64047e-08 0)
(-6.94496e-06 8.3099e-08 0)
(-7.80377e-06 9.14712e-08 0)
(-8.75602e-06 1.02092e-07 0)
(-9.82809e-06 1.15826e-07 0)
(-1.10573e-05 1.34038e-07 0)
(-1.24989e-05 1.58998e-07 0)
(-1.4239e-05 1.94711e-07 0)
(-1.64202e-05 2.48661e-07 0)
(-1.92882e-05 3.34296e-07 0)
(-2.31027e-05 4.4108e-07 0)
(-2.20619e-05 -6.52181e-07 0)
(-9.68043e-06 1.54966e-05 0)
(-3.09339e-07 2.36856e-06 0)
(-8.14787e-08 4.69513e-07 0)
(-4.41163e-08 2.38968e-07 0)
(-2.91741e-08 1.56643e-07 0)
(-2.10359e-08 1.15586e-07 0)
(-1.63532e-08 9.1731e-08 0)
(-1.35159e-08 7.5983e-08 0)
(-1.16073e-08 6.49565e-08 0)
(-1.01373e-08 5.69084e-08 0)
(-9.07748e-09 5.1252e-08 0)
(-8.3249e-09 4.91417e-08 0)
(-7.49593e-09 4.7319e-08 0)
(-6.54435e-09 4.57807e-08 0)
(-5.41916e-09 4.45132e-08 0)
(-4.0893e-09 4.35722e-08 0)
(-2.55284e-09 4.29771e-08 0)
(-8.6739e-10 4.24883e-08 0)
(8.67389e-10 4.24883e-08 0)
(2.55284e-09 4.29771e-08 0)
(4.0893e-09 4.35722e-08 0)
(5.41916e-09 4.45132e-08 0)
(6.54435e-09 4.57807e-08 0)
(7.49593e-09 4.7319e-08 0)
(8.3249e-09 4.91417e-08 0)
(9.07748e-09 5.1252e-08 0)
(1.01373e-08 5.69084e-08 0)
(1.16073e-08 6.49565e-08 0)
(1.35159e-08 7.5983e-08 0)
(1.63532e-08 9.1731e-08 0)
(2.10359e-08 1.15586e-07 0)
(2.91741e-08 1.56643e-07 0)
(4.41163e-08 2.38968e-07 0)
(8.14787e-08 4.69513e-07 0)
(3.09339e-07 2.36856e-06 0)
(9.68043e-06 1.54966e-05 0)
(2.20619e-05 -6.52181e-07 0)
(2.31027e-05 4.4108e-07 0)
(1.92882e-05 3.34296e-07 0)
(1.64202e-05 2.48661e-07 0)
(1.4239e-05 1.94711e-07 0)
(1.24989e-05 1.58998e-07 0)
(1.10573e-05 1.34038e-07 0)
(9.82809e-06 1.15826e-07 0)
(8.75602e-06 1.02092e-07 0)
(7.80377e-06 9.14712e-08 0)
(6.94496e-06 8.3099e-08 0)
(6.16027e-06 7.64047e-08 0)
(5.4351e-06 7.09985e-08 0)
(4.75814e-06 6.66063e-08 0)
(4.12038e-06 6.30315e-08 0)
(3.51448e-06 6.01301e-08 0)
(2.93433e-06 5.77959e-08 0)
(2.37475e-06 5.595e-08 0)
(1.83121e-06 5.45341e-08 0)
(1.2997e-06 5.35059e-08 0)
(7.7654e-07 5.28358e-08 0)
(2.58305e-07 5.25053e-08 0)
(-2.58234e-07 1.62584e-07 0)
(-7.76327e-07 1.63607e-07 0)
(-1.29934e-06 1.65681e-07 0)
(-1.83069e-06 1.68864e-07 0)
(-2.37405e-06 1.73247e-07 0)
(-2.93344e-06 1.7896e-07 0)
(-3.51336e-06 1.86185e-07 0)
(-4.119e-06 1.95165e-07 0)
(-4.75645e-06 2.06229e-07 0)
(-5.43302e-06 2.19822e-07 0)
(-6.15769e-06 2.36551e-07 0)
(-6.94175e-06 2.57263e-07 0)
(-7.79973e-06 2.83163e-07 0)
(-8.75083e-06 3.16013e-07 0)
(-9.82128e-06 3.58479e-07 0)
(-1.10481e-05 4.14771e-07 0)
(-1.2486e-05 4.91879e-07 0)
(-1.42199e-05 6.02119e-07 0)
(-1.63905e-05 7.68556e-07 0)
(-1.92472e-05 1.03425e-06 0)
(-2.3313e-05 1.42298e-06 0)
(-3.38224e-05 4.97909e-07 0)
(-2.83811e-05 2.39e-05 0)
(-7.72406e-06 2.08633e-05 0)
(-3.72852e-07 1.501e-06 0)
(-1.2035e-07 4.5974e-07 0)
(-7.26795e-08 2.75833e-07 0)
(-5.07076e-08 1.97729e-07 0)
(-3.88787e-08 1.55276e-07 0)
(-3.19646e-08 1.27977e-07 0)
(-2.74015e-08 1.09183e-07 0)
(-2.39654e-08 9.53952e-08 0)
(-2.15047e-08 8.5754e-08 0)
(-1.9769e-08 8.21277e-08 0)
(-1.78779e-08 7.90039e-08 0)
(-1.57073e-08 7.63527e-08 0)
(-1.31039e-08 7.41658e-08 0)
(-9.95681e-09 7.25364e-08 0)
(-6.24683e-09 7.148e-08 0)
(-2.12797e-09 7.06438e-08 0)
(2.12797e-09 7.06438e-08 0)
(6.24683e-09 7.148e-08 0)
(9.95681e-09 7.25364e-08 0)
(1.31039e-08 7.41658e-08 0)
(1.57073e-08 7.63527e-08 0)
(1.78779e-08 7.90039e-08 0)
(1.9769e-08 8.21277e-08 0)
(2.15047e-08 8.5754e-08 0)
(2.39654e-08 9.53952e-08 0)
(2.74015e-08 1.09183e-07 0)
(3.19646e-08 1.27977e-07 0)
(3.88787e-08 1.55276e-07 0)
(5.07076e-08 1.97729e-07 0)
(7.26795e-08 2.75833e-07 0)
(1.2035e-07 4.5974e-07 0)
(3.72852e-07 1.501e-06 0)
(7.72406e-06 2.08633e-05 0)
(2.83811e-05 2.39e-05 0)
(3.38224e-05 4.97909e-07 0)
(2.3313e-05 1.42298e-06 0)
(1.92472e-05 1.03425e-06 0)
(1.63905e-05 7.68556e-07 0)
(1.42199e-05 6.02119e-07 0)
(1.2486e-05 4.91879e-07 0)
(1.10481e-05 4.14771e-07 0)
(9.82128e-06 3.58479e-07 0)
(8.75083e-06 3.16013e-07 0)
(7.79973e-06 2.83163e-07 0)
(6.94175e-06 2.57263e-07 0)
(6.15769e-06 2.36551e-07 0)
(5.43302e-06 2.19822e-07 0)
(4.75645e-06 2.06229e-07 0)
(4.119e-06 1.95165e-07 0)
(3.51336e-06 1.86185e-07 0)
(2.93344e-06 1.7896e-07 0)
(2.37405e-06 1.73247e-07 0)
(1.83069e-06 1.68864e-07 0)
(1.29934e-06 1.65681e-07 0)
(7.76327e-07 1.63607e-07 0)
(2.58234e-07 1.62584e-07 0)
(-2.58072e-07 2.83266e-07 0)
(-7.75836e-07 2.85047e-07 0)
(-1.2985e-06 2.88658e-07 0)
(-1.82949e-06 2.94199e-07 0)
(-2.37245e-06 3.01829e-07 0)
(-2.93139e-06 3.11775e-07 0)
(-3.5108e-06 3.24351e-07 0)
(-4.11583e-06 3.39981e-07 0)
(-4.75255e-06 3.59235e-07 0)
(-5.42822e-06 3.82885e-07 0)
(-6.15177e-06 4.11988e-07 0)
(-6.93438e-06 4.48011e-07 0)
(-7.79043e-06 4.93041e-07 0)
(-8.73892e-06 5.50127e-07 0)
(-9.80566e-06 6.2388e-07 0)
(-1.1027e-05 7.21562e-07 0)
(-1.24564e-05 8.55201e-07 0)
(-1.41762e-05 1.04594e-06 0)
(-1.63221e-05 1.33342e-06 0)
(-1.91392e-05 1.79515e-06 0)
(-2.32078e-05 2.56348e-06 0)
(-3.16112e-05 3.75547e-06 0)
(-3.62766e-05 2.05723e-05 0)
(-2.36667e-05 3.65789e-05 0)
(-6.57653e-06 1.96798e-05 0)
(-5.01736e-07 1.92306e-06 0)
(-1.51301e-07 6.33146e-07 0)
(-9.30626e-08 4.02101e-07 0)
(-6.85885e-08 3.04574e-07 0)
(-5.56145e-08 2.47282e-07 0)
(-4.74591e-08 2.09682e-07 0)
(-4.15982e-08 1.82442e-07 0)
(-3.74338e-08 1.63658e-07 0)
(-3.45368e-08 1.56626e-07 0)
(-3.14583e-08 1.50658e-07 0)
(-2.79328e-08 1.45638e-07 0)
(-2.35868e-08 1.41561e-07 0)
(-1.81212e-08 1.38565e-07 0)
(-1.146e-08 1.36597e-07 0)
(-3.91956e-09 1.35065e-07 0)
(3.91956e-09 1.35065e-07 0)
(1.146e-08 1.36597e-07 0)
(1.81212e-08 1.38565e-07 0)
(2.35868e-08 1.41561e-07 0)
(2.79328e-08 1.45638e-07 0)
(3.14583e-08 1.50658e-07 0)
(3.45368e-08 1.56626e-07 0)
(3.74338e-08 1.63658e-07 0)
(4.15982e-08 1.82442e-07 0)
(4.74591e-08 2.09682e-07 0)
(5.56145e-08 2.47282e-07 0)
(6.85885e-08 3.04574e-07 0)
(9.30626e-08 4.02101e-07 0)
(1.51301e-07 6.33146e-07 0)
(5.01736e-07 1.92306e-06 0)
(6.57653e-06 1.96798e-05 0)
(2.36667e-05 3.65789e-05 0)
(3.62766e-05 2.05723e-05 0)
(3.16112e-05 3.75547e-06 0)
(2.32078e-05 2.56348e-06 0)
(1.91392e-05 1.79515e-06 0)
(1.63221e-05 1.33342e-06 0)
(1.41762e-05 1.04594e-06 0)
(1.24564e-05 8.55201e-07 0)
(1.1027e-05 7.21562e-07 0)
(9.80566e-06 6.2388e-07 0)
(8.73892e-06 5.50127e-07 0)
(7.79043e-06 4.93041e-07 0)
(6.93438e-06 4.48011e-07 0)
(6.15177e-06 4.11988e-07 0)
(5.42822e-06 3.82885e-07 0)
(4.75255e-06 3.59235e-07 0)
(4.11583e-06 3.39981e-07 0)
(3.5108e-06 3.24351e-07 0)
(2.93139e-06 3.11775e-07 0)
(2.37245e-06 3.01829e-07 0)
(1.82949e-06 2.94199e-07 0)
(1.2985e-06 2.88658e-07 0)
(7.75836e-07 2.85047e-07 0)
(2.58072e-07 2.83266e-07 0)
(-2.57793e-07 4.15518e-07 0)
(-7.74992e-07 4.18128e-07 0)
(-1.29707e-06 4.23418e-07 0)
(-1.82743e-06 4.31536e-07 0)
(-2.3697e-06 4.42713e-07 0)
(-2.92786e-06 4.57281e-07 0)
(-3.50638e-06 4.75698e-07 0)
(-4.11036e-06 4.98585e-07 0)
(-4.74582e-06 5.26772e-07 0)
(-5.41996e-06 5.61387e-07 0)
(-6.14157e-06 6.03967e-07 0)
(-6.92168e-06 6.56649e-07 0)
(-7.77445e-06 7.22465e-07 0)
(-8.71844e-06 8.05839e-07 0)
(-9.77884e-06 9.13442e-07 0)
(-1.09909e-05 1.05575e-06 0)
(-1.24057e-05 1.25004e-06 0)
(-1.41016e-05 1.52652e-06 0)
(-1.6205e-05 1.94178e-06 0)
(-1.89422e-05 2.60982e-06 0)
(-2.28206e-05 3.78396e-06 0)
(-2.94199e-05 6.36e-06 0)
(-3.26105e-05 1.99644e-05 0)
(-2.59771e-05 3.23249e-05 0)
(-1.51249e-05 3.54022e-05 0)
(-5.60749e-06 1.79605e-05 0)
(-8.23431e-07 2.93395e-06 0)
(-1.86948e-07 8.41536e-07 0)
(-1.1289e-07 5.28789e-07 0)
(-8.67126e-08 4.06009e-07 0)
(-7.272e-08 3.37584e-07 0)
(-6.37719e-08 2.90964e-07 0)
(-5.75395e-08 2.59833e-07 0)
(-5.33179e-08 2.48384e-07 0)
(-4.90894e-08 2.38903e-07 0)
(-4.43063e-08 2.30992e-07 0)
(-3.81044e-08 2.24615e-07 0)
(-2.97609e-08 2.19942e-07 0)
(-1.90435e-08 2.16773e-07 0)
(-6.5506e-09 2.14392e-07 0)
(6.5506e-09 2.14392e-07 0)
(1.90435e-08 2.16773e-07 0)
(2.97609e-08 2.19942e-07 0)
(3.81044e-08 2.24615e-07 0)
(4.43063e-08 2.30992e-07 0)
(4.90894e-08 2.38903e-07 0)
(5.33179e-08 2.48384e-07 0)
(5.75395e-08 2.59833e-07 0)
(6.37719e-08 2.90964e-07 0)
(7.272e-08 3.37584e-07 0)
(8.67126e-08 4.06009e-07 0)
(1.1289e-07 5.28789e-07 0)
(1.86948e-07 8.41536e-07 0)
(8.23431e-07 2.93395e-06 0)
(5.60749e-06 1.79605e-05 0)
(1.51249e-05 3.54022e-05 0)
(2.59771e-05 3.23249e-05 0)
(3.26105e-05 1.99644e-05 0)
(2.94199e-05 6.36e-06 0)
(2.28206e-05 3.78396e-06 0)
(1.89422e-05 2.60982e-06 0)
(1.6205e-05 1.94178e-06 0)
(1.41016e-05 1.52652e-06 0)
(1.24057e-05 1.25004e-06 0)
(1.09909e-05 1.05575e-06 0)
(9.77884e-06 9.13442e-07 0)
(8.71844e-06 8.05839e-07 0)
(7.77445e-06 7.22465e-07 0)
(6.92168e-06 6.56649e-07 0)
(6.14157e-06 6.03967e-07 0)
(5.41996e-06 5.61387e-07 0)
(4.74582e-06 5.26772e-07 0)
(4.11036e-06 4.98585e-07 0)
(3.50638e-06 4.75698e-07 0)
(2.92786e-06 4.57281e-07 0)
(2.3697e-06 4.42713e-07 0)
(1.82743e-06 4.31536e-07 0)
(1.29707e-06 4.23418e-07 0)
(7.74992e-07 4.18128e-07 0)
(2.57793e-07 4.15518e-07 0)
(-2.57365e-07 5.60376e-07 0)
(-7.73697e-07 5.63888e-07 0)
(-1.29487e-06 5.71009e-07 0)
(-1.82427e-06 5.81935e-07 0)
(-2.36548e-06 5.96976e-07 0)
(-2.92246e-06 6.16579e-07 0)
(-3.49961e-06 6.41356e-07 0)
(-4.102e-06 6.72138e-07 0)
(-4.73554e-06 7.10038e-07 0)
(-5.40731e-06 7.5656e-07 0)
(-6.12597e-06 8.13758e-07 0)
(-6.90228e-06 8.84478e-07 0)
(-7.75003e-06 9.72753e-07 0)
(-8.6872e-06 1.08445e-06 0)
(-9.73799e-06 1.22837e-06 0)
(-1.09359e-05 1.4183e-06 0)
(-1.23289e-05 1.67678e-06 0)
(-1.39889e-05 2.04297e-06 0)
(-1.60288e-05 2.58962e-06 0)
(-1.86402e-05 3.46437e-06 0)
(-2.21907e-05 5.01415e-06 0)
(-2.72735e-05 8.39513e-06 0)
(-2.93303e-05 1.93902e-05 0)
(-2.39656e-05 2.95418e-05 0)
(-1.52062e-05 3.26978e-05 0)
(-6.88079e-06 3.15856e-05 0)
(-3.83291e-06 1.39092e-05 0)
(-2.56817e-06 8.30144e-06 0)
(-2.69954e-07 1.32561e-06 0)
(-1.40533e-07 6.76539e-07 0)
(-1.07442e-07 5.13058e-07 0)
(-9.25689e-08 4.28016e-07 0)
(-8.3254e-08 3.77475e-07 0)
(-7.73493e-08 3.59864e-07 0)
(-7.22691e-08 3.45976e-07 0)
(-6.68243e-08 3.34413e-07 0)
(-5.90195e-08 3.2501e-07 0)
(-4.71934e-08 3.17998e-07 0)
(-3.06997e-08 3.12926e-07 0)
(-1.06385e-08 3.09358e-07 0)
(1.06385e-08 3.09358e-07 0)
(3.06997e-08 3.12926e-07 0)
(4.71934e-08 3.17998e-07 0)
(5.90195e-08 3.2501e-07 0)
(6.68243e-08 3.34413e-07 0)
(7.22691e-08 3.45976e-07 0)
(7.73493e-08 3.59864e-07 0)
(8.3254e-08 3.77475e-07 0)
(9.25689e-08 4.28016e-07 0)
(1.07442e-07 5.13058e-07 0)
(1.40533e-07 6.76539e-07 0)
(2.69954e-07 1.32561e-06 0)
(2.56817e-06 8.30144e-06 0)
(3.83291e-06 1.39092e-05 0)
(6.88079e-06 3.15856e-05 0)
(1.52062e-05 3.26978e-05 0)
(2.39656e-05 2.95418e-05 0)
(2.93303e-05 1.93902e-05 0)
(2.72735e-05 8.39513e-06 0)
(2.21907e-05 5.01415e-06 0)
(1.86402e-05 3.46437e-06 0)
(1.60288e-05 2.58962e-06 0)
(1.39889e-05 2.04297e-06 0)
(1.23289e-05 1.67678e-06 0)
(1.09359e-05 1.4183e-06 0)
(9.73799e-06 1.22837e-06 0)
(8.6872e-06 1.08445e-06 0)
(7.75003e-06 9.72753e-07 0)
(6.90228e-06 8.84478e-07 0)
(6.12597e-06 8.13758e-07 0)
(5.40731e-06 7.5656e-07 0)
(4.73554e-06 7.10038e-07 0)
(4.102e-06 6.72138e-07 0)
(3.49961e-06 6.41356e-07 0)
(2.92246e-06 6.16579e-07 0)
(2.36548e-06 5.96976e-07 0)
(1.82427e-06 5.81935e-07 0)
(1.29487e-06 5.71009e-07 0)
(7.73697e-07 5.63888e-07 0)
(2.57365e-07 5.60376e-07 0)
(-2.56751e-07 7.18934e-07 0)
(-7.71837e-07 7.23429e-07 0)
(-1.29172e-06 7.3254e-07 0)
(-1.81973e-06 7.46517e-07 0)
(-2.35942e-06 7.65756e-07 0)
(-2.9147e-06 7.90824e-07 0)
(-3.4899e-06 8.225e-07 0)
(-4.08999e-06 8.61839e-07 0)
(-4.72078e-06 9.10252e-07 0)
(-5.38919e-06 9.69646e-07 0)
(-6.10362e-06 1.04261e-06 0)
(-6.87452e-06 1.13275e-06 0)
(-7.71513e-06 1.24512e-06 0)
(-8.64263e-06 1.38706e-06 0)
(-9.67983e-06 1.56956e-06 0)
(-1.08579e-05 1.80963e-06 0)
(-1.22205e-05 2.13493e-06 0)
(-1.38309e-05 2.59281e-06 0)
(-1.57837e-05 3.27e-06 0)
(-1.82237e-05 4.33953e-06 0)
(-2.13608e-05 6.19572e-06 0)
(-2.51938e-05 9.94562e-06 0)
(-2.64059e-05 1.88359e-05 0)
(-2.20674e-05 2.71179e-05 0)
(-1.48713e-05 3.02228e-05 0)
(-7.87936e-06 2.93553e-05 0)
(-4.8889e-06 2.29173e-05 0)
(-9.78545e-06 1.69325e-05 0)
(-7.73879e-06 2.02067e-05 0)
(-6.627e-07 2.05405e-06 0)
(-1.92564e-07 9.36396e-07 0)
(-1.38588e-07 6.35163e-07 0)
(-1.19377e-07 5.30649e-07 0)
(-1.09558e-07 5.00163e-07 0)
(-1.03893e-07 4.78564e-07 0)
(-9.93383e-08 4.6091e-07 0)
(-9.10105e-08 4.46313e-07 0)
(-7.51606e-08 4.35182e-07 0)
(-4.99823e-08 4.26183e-07 0)
(-1.74621e-08 4.20576e-07 0)
(1.74621e-08 4.20576e-07 0)
(4.99823e-08 4.26183e-07 0)
(7.51606e-08 4.35182e-07 0)
(9.10105e-08 4.46313e-07 0)
(9.93383e-08 4.6091e-07 0)
(1.03893e-07 4.78564e-07 0)
(1.09558e-07 5.00163e-07 0)
(1.19377e-07 5.30649e-07 0)
(1.38588e-07 6.35163e-07 0)
(1.92564e-07 9.36396e-07 0)
(6.627e-07 2.05405e-06 0)
(7.73879e-06 2.02067e-05 0)
(9.78545e-06 1.69325e-05 0)
(4.8889e-06 2.29173e-05 0)
(7.87936e-06 2.93553e-05 0)
(1.48713e-05 3.02228e-05 0)
(2.20674e-05 2.71179e-05 0)
(2.64059e-05 1.88359e-05 0)
(2.51938e-05 9.94562e-06 0)
(2.13608e-05 6.19572e-06 0)
(1.82237e-05 4.33953e-06 0)
(1.57837e-05 3.27e-06 0)
(1.38309e-05 2.59281e-06 0)
(1.22205e-05 2.13493e-06 0)
(1.08579e-05 1.80963e-06 0)
(9.67983e-06 1.56956e-06 0)
(8.64263e-06 1.38706e-06 0)
(7.71513e-06 1.24512e-06 0)
(6.87452e-06 1.13275e-06 0)
(6.10362e-06 1.04261e-06 0)
(5.38919e-06 9.69646e-07 0)
(4.72078e-06 9.10252e-07 0)
(4.08999e-06 8.61839e-07 0)
(3.4899e-06 8.225e-07 0)
(2.9147e-06 7.90824e-07 0)
(2.35942e-06 7.65756e-07 0)
(1.81973e-06 7.46517e-07 0)
(1.29172e-06 7.3254e-07 0)
(7.71837e-07 7.23429e-07 0)
(2.56751e-07 7.18934e-07 0)
(-2.55904e-07 8.92348e-07 0)
(-7.69274e-07 8.97906e-07 0)
(-1.28737e-06 9.09171e-07 0)
(-1.81347e-06 9.26451e-07 0)
(-2.35108e-06 9.50232e-07 0)
(-2.90401e-06 9.81208e-07 0)
(-3.47653e-06 1.02034e-06 0)
(-4.07347e-06 1.0689e-06 0)
(-4.70049e-06 1.12864e-06 0)
(-5.36429e-06 1.20186e-06 0)
(-6.07295e-06 1.29173e-06 0)
(-6.83647e-06 1.4026e-06 0)
(-7.66738e-06 1.54058e-06 0)
(-8.58176e-06 1.71449e-06 0)
(-9.60067e-06 1.93741e-06 0)
(-1.07522e-05 2.22943e-06 0)
(-1.20745e-05 2.62278e-06 0)
(-1.36202e-05 3.17167e-06 0)
(-1.54617e-05 3.97295e-06 0)
(-1.76908e-05 5.2128e-06 0)
(-2.03746e-05 7.28451e-06 0)
(-2.31988e-05 1.10931e-05 0)
(-2.38043e-05 1.82938e-05 0)
(-2.02973e-05 2.50189e-05 0)
(-1.44817e-05 2.79416e-05 0)
(-8.89666e-06 2.74038e-05 0)
(-6.55901e-06 2.30765e-05 0)
(-1.06013e-05 1.97879e-05 0)
(-4.54109e-06 3.49178e-05 0)
(-5.81876e-06 9.14223e-06 0)
(-8.86319e-06 2.34739e-05 0)
(-4.85816e-07 1.54156e-06 0)
(-2.2619e-07 8.97806e-07 0)
(-1.73865e-07 7.5752e-07 0)
(-1.56797e-07 6.80665e-07 0)
(-1.52747e-07 6.32168e-07 0)
(-1.45165e-07 5.99463e-07 0)
(-1.24599e-07 5.77534e-07 0)
(-8.51438e-08 5.57691e-07 0)
(-2.98905e-08 5.47989e-07 0)
(2.98905e-08 5.47989e-07 0)
(8.51438e-08 5.57691e-07 0)
(1.24599e-07 5.77534e-07 0)
(1.45165e-07 5.99463e-07 0)
(1.52747e-07 6.32168e-07 0)
(1.56797e-07 6.80665e-07 0)
(1.73865e-07 7.5752e-07 0)
(2.2619e-07 8.97806e-07 0)
(4.85816e-07 1.54156e-06 0)
(8.86319e-06 2.34739e-05 0)
(5.81876e-06 9.14223e-06 0)
(4.54109e-06 3.49178e-05 0)
(1.06013e-05 1.97879e-05 0)
(6.55901e-06 2.30765e-05 0)
(8.89666e-06 2.74038e-05 0)
(1.44817e-05 2.79416e-05 0)
(2.02973e-05 2.50189e-05 0)
(2.38043e-05 1.82938e-05 0)
(2.31988e-05 1.10931e-05 0)
(2.03746e-05 7.28451e-06 0)
(1.76908e-05 5.2128e-06 0)
(1.54617e-05 3.97295e-06 0)
(1.36202e-05 3.17167e-06 0)
(1.20745e-05 2.62278e-06 0)
(1.07522e-05 2.22943e-06 0)
(9.60067e-06 1.93741e-06 0)
(8.58176e-06 1.71449e-06 0)
(7.66738e-06 1.54058e-06 0)
(6.83647e-06 1.4026e-06 0)
(6.07295e-06 1.29173e-06 0)
(5.36429e-06 1.20186e-06 0)
(4.70049e-06 1.12864e-06 0)
(4.07347e-06 1.0689e-06 0)
(3.47653e-06 1.02034e-06 0)
(2.90401e-06 9.81208e-07 0)
(2.35108e-06 9.50232e-07 0)
(1.81347e-06 9.26451e-07 0)
(1.28737e-06 9.09171e-07 0)
(7.69274e-07 8.97906e-07 0)
(2.55904e-07 8.92348e-07 0)
(-2.54771e-07 1.08181e-06 0)
(-7.65843e-07 1.08852e-06 0)
(-1.28155e-06 1.1021e-06 0)
(-1.8051e-06 1.12294e-06 0)
(-2.33991e-06 1.15161e-06 0)
(-2.88972e-06 1.18894e-06 0)
(-3.45865e-06 1.23607e-06 0)
(-4.05141e-06 1.29453e-06 0)
(-4.67341e-06 1.36637e-06 0)
(-5.33109e-06 1.45435e-06 0)
(-6.03211e-06 1.56217e-06 0)
(-6.78587e-06 1.69497e-06 0)
(-7.60403e-06 1.85987e-06 0)
(-8.50128e-06 2.0671e-06 0)
(-9.49643e-06 2.33169e-06 0)
(-1.06138e-05 2.67643e-06 0)
(-1.1885e-05 3.13722e-06 0)
(-1.33503e-05 3.77311e-06 0)
(-1.50575e-05 4.68591e-06 0)
(-1.70466e-05 6.06085e-06 0)
(-1.92744e-05 8.25109e-06 0)
(-2.1302e-05 1.19132e-05 0)
(-2.14907e-05 1.77613e-05 0)
(-1.8659e-05 2.32111e-05 0)
(-1.40241e-05 2.58921e-05 0)
(-9.58602e-06 2.57539e-05 0)
(-7.55305e-06 2.311e-05 0)
(-9.06775e-06 2.1773e-05 0)
(-5.637e-06 2.94561e-05 0)
(-7.77359e-06 1.78113e-05 0)
(-2.1458e-06 4.07281e-05 0)
(-1.96047e-06 1.17833e-05 0)
(-8.20538e-06 1.35564e-05 0)
(-1.31261e-06 2.23695e-06 0)
(-6.15914e-07 1.46096e-06 0)
(-3.81778e-07 1.13072e-06 0)
(-2.80679e-07 8.86484e-07 0)
(-2.3095e-07 7.7637e-07 0)
(-1.60127e-07 7.09789e-07 0)
(-5.54286e-08 6.91888e-07 0)
(5.54286e-08 6.91888e-07 0)
(1.60127e-07 7.09789e-07 0)
(2.3095e-07 7.7637e-07 0)
(2.80679e-07 8.86484e-07 0)
(3.81778e-07 1.13072e-06 0)
(6.15914e-07 1.46096e-06 0)
(1.31261e-06 2.23695e-06 0)
(8.20538e-06 1.35564e-05 0)
(1.96047e-06 1.17833e-05 0)
(2.1458e-06 4.07281e-05 0)
(7.77359e-06 1.78113e-05 0)
(5.637e-06 2.94561e-05 0)
(9.06775e-06 2.1773e-05 0)
(7.55305e-06 2.311e-05 0)
(9.58602e-06 2.57539e-05 0)
(1.40241e-05 2.58921e-05 0)
(1.8659e-05 2.32111e-05 0)
(2.14907e-05 1.77613e-05 0)
(2.1302e-05 1.19132e-05 0)
(1.92744e-05 8.25109e-06 0)
(1.70466e-05 6.06085e-06 0)
(1.50575e-05 4.68591e-06 0)
(1.33503e-05 3.77311e-06 0)
(1.1885e-05 3.13722e-06 0)
(1.06138e-05 2.67643e-06 0)
(9.49643e-06 2.33169e-06 0)
(8.50128e-06 2.0671e-06 0)
(7.60403e-06 1.85987e-06 0)
(6.78587e-06 1.69497e-06 0)
(6.03211e-06 1.56217e-06 0)
(5.33109e-06 1.45435e-06 0)
(4.67341e-06 1.36637e-06 0)
(4.05141e-06 1.29453e-06 0)
(3.45865e-06 1.23607e-06 0)
(2.88972e-06 1.18894e-06 0)
(2.33991e-06 1.15161e-06 0)
(1.8051e-06 1.12294e-06 0)
(1.28155e-06 1.1021e-06 0)
(7.65843e-07 1.08852e-06 0)
(2.54771e-07 1.08181e-06 0)
(-2.53285e-07 1.28855e-06 0)
(-7.61348e-07 1.29648e-06 0)
(-1.27392e-06 1.31256e-06 0)
(-1.79413e-06 1.33721e-06 0)
(-2.3253e-06 1.37111e-06 0)
(-2.87102e-06 1.41522e-06 0)
(-3.43528e-06 1.47088e-06 0)
(-4.02258e-06 1.53986e-06 0)
(-4.63808e-06 1.62455e-06 0)
(-5.28782e-06 1.7281e-06 0)
(-5.97898e-06 1.85481e-06 0)
(-6.72021e-06 2.01051e-06 0)
(-7.52206e-06 2.20331e-06 0)
(-8.39754e-06 2.4447e-06 0)
(-9.36278e-06 2.75135e-06 0)
(-1.04377e-05 3.14818e-06 0)
(-1.16465e-05 3.67357e-06 0)
(-1.30161e-05 4.38871e-06 0)
(-1.45697e-05 5.39449e-06 0)
(-1.63022e-05 6.862e-06 0)
(-1.80994e-05 9.07989e-06 0)
(-1.95121e-05 1.24729e-05 0)
(-1.94303e-05 1.724e-05 0)
(-1.71469e-05 2.16609e-05 0)
(-1.34911e-05 2.40866e-05 0)
(-9.96217e-06 2.43341e-05 0)
(-8.08287e-06 2.29404e-05 0)
(-8.16703e-06 2.25664e-05 0)
(-6.0034e-06 2.64098e-05 0)
(-6.0932e-06 2.17252e-05 0)
(-1.81992e-06 3.28102e-05 0)
(3.6522e-06 2.18729e-05 0)
(4.51739e-06 2.3703e-05 0)
(9.93917e-08 1.00038e-05 0)
(-1.60296e-05 1.18238e-05 0)
(-1.41115e-05 1.37524e-05 0)
(-1.90084e-06 2.08342e-06 0)
(-7.59348e-07 1.21228e-06 0)
(-3.86226e-07 8.82672e-07 0)
(-1.20906e-07 8.61288e-07 0)
(1.20906e-07 8.61288e-07 0)
(3.86226e-07 8.82672e-07 0)
(7.59348e-07 1.21228e-06 0)
(1.90084e-06 2.08342e-06 0)
(1.41115e-05 1.37524e-05 0)
(1.60296e-05 1.18238e-05 0)
(-9.93917e-08 1.00038e-05 0)
(-4.51739e-06 2.3703e-05 0)
(-3.6522e-06 2.18729e-05 0)
(1.81992e-06 3.28102e-05 0)
(6.0932e-06 2.17252e-05 0)
(6.0034e-06 2.64098e-05 0)
(8.16703e-06 2.25664e-05 0)
(8.08287e-06 2.29404e-05 0)
(9.96217e-06 2.43341e-05 0)
(1.34911e-05 2.40866e-05 0)
(1.71469e-05 2.16609e-05 0)
(1.94303e-05 1.724e-05 0)
(1.95121e-05 1.24729e-05 0)
(1.80994e-05 9.07989e-06 0)
(1.63022e-05 6.862e-06 0)
(1.45697e-05 5.39449e-06 0)
(1.30161e-05 4.38871e-06 0)
(1.16465e-05 3.67357e-06 0)
(1.04377e-05 3.14818e-06 0)
(9.36278e-06 2.75135e-06 0)
(8.39754e-06 2.4447e-06 0)
(7.52206e-06 2.20331e-06 0)
(6.72021e-06 2.01051e-06 0)
(5.97898e-06 1.85481e-06 0)
(5.28782e-06 1.7281e-06 0)
(4.63808e-06 1.62455e-06 0)
(4.02258e-06 1.53986e-06 0)
(3.43528e-06 1.47088e-06 0)
(2.87102e-06 1.41522e-06 0)
(2.3253e-06 1.37111e-06 0)
(1.79413e-06 1.33721e-06 0)
(1.27392e-06 1.31256e-06 0)
(7.61348e-07 1.29648e-06 0)
(2.53285e-07 1.28855e-06 0)
(-2.51373e-07 1.51378e-06 0)
(-7.5556e-07 1.52302e-06 0)
(-1.26411e-06 1.54174e-06 0)
(-1.78002e-06 1.57044e-06 0)
(-2.30651e-06 1.60989e-06 0)
(-2.84699e-06 1.66119e-06 0)
(-3.40528e-06 1.72586e-06 0)
(-3.9856e-06 1.80593e-06 0)
(-4.59281e-06 1.90409e-06 0)
(-5.23249e-06 2.02392e-06 0)
(-5.91119e-06 2.17022e-06 0)
(-6.63667e-06 2.34949e-06 0)
(-7.41816e-06 2.57068e-06 0)
(-8.26669e-06 2.84633e-06 0)
(-9.19535e-06 3.19436e-06 0)
(-1.02192e-05 3.64098e-06 0)
(-1.13544e-05 4.22553e-06 0)
(-1.26145e-05 5.00836e-06 0)
(-1.40007e-05 6.08367e-06 0)
(-1.54736e-05 7.59824e-06 0)
(-1.68836e-05 9.76728e-06 0)
(-1.78329e-05 1.28303e-05 0)
(-1.75889e-05 1.67338e-05 0)
(-1.57492e-05 2.03357e-05 0)
(-1.28825e-05 2.25166e-05 0)
(-1.00612e-05 2.30842e-05 0)
(-8.29085e-06 2.25635e-05 0)
(-7.6063e-06 2.26594e-05 0)
(-5.97702e-06 2.46347e-05 0)
(-5.07933e-06 2.31193e-05 0)
(-1.90086e-06 2.81123e-05 0)
(1.69224e-06 2.2563e-05 0)
(1.68882e-06 2.1325e-05 0)
(1.83128e-07 1.81961e-05 0)
(-1.16872e-06 2.12283e-05 0)
(1.29974e-06 2.36896e-05 0)
(-1.33118e-06 9.74288e-06 0)
(-3.81747e-06 3.52246e-06 0)
(-1.06492e-06 1.1132e-06 0)
(-3.16957e-07 1.06356e-06 0)
(3.16957e-07 1.06356e-06 0)
(1.06492e-06 1.1132e-06 0)
(3.81747e-06 3.52246e-06 0)
(1.33118e-06 9.74288e-06 0)
(-1.29974e-06 2.36896e-05 0)
(1.16872e-06 2.12283e-05 0)
(-1.83128e-07 1.81961e-05 0)
(-1.68882e-06 2.1325e-05 0)
(-1.69224e-06 2.2563e-05 0)
(1.90086e-06 2.81123e-05 0)
(5.07933e-06 2.31193e-05 0)
(5.97702e-06 2.46347e-05 0)
(7.6063e-06 2.26594e-05 0)
(8.29085e-06 2.25635e-05 0)
(1.00612e-05 2.30842e-05 0)
(1.28825e-05 2.25166e-05 0)
(1.57492e-05 2.03357e-05 0)
(1.75889e-05 1.67338e-05 0)
(1.78329e-05 1.28303e-05 0)
(1.68836e-05 9.76728e-06 0)
(1.54736e-05 7.59824e-06 0)
(1.40007e-05 6.08367e-06 0)
(1.26145e-05 5.00836e-06 0)
(1.13544e-05 4.22553e-06 0)
(1.02192e-05 3.64098e-06 0)
(9.19535e-06 3.19436e-06 0)
(8.26669e-06 2.84633e-06 0)
(7.41816e-06 2.57068e-06 0)
(6.63667e-06 2.34949e-06 0)
(5.91119e-06 2.17022e-06 0)
(5.23249e-06 2.02392e-06 0)
(4.59281e-06 1.90409e-06 0)
(3.9856e-06 1.80593e-06 0)
(3.40528e-06 1.72586e-06 0)
(2.84699e-06 1.66119e-06 0)
(2.30651e-06 1.60989e-06 0)
(1.78002e-06 1.57044e-06 0)
(1.26411e-06 1.54174e-06 0)
(7.5556e-07 1.52302e-06 0)
(2.51373e-07 1.51378e-06 0)
(-2.48946e-07 1.75868e-06 0)
(-7.48216e-07 1.7693e-06 0)
(-1.25165e-06 1.79081e-06 0)
(-1.76213e-06 1.82377e-06 0)
(-2.28269e-06 1.86905e-06 0)
(-2.81657e-06 1.92789e-06 0)
(-3.36732e-06 2.00198e-06 0)
(-3.9389e-06 2.09359e-06 0)
(-4.53573e-06 2.2057e-06 0)
(-5.16288e-06 2.34226e-06 0)
(-5.82615e-06 2.50855e-06 0)
(-6.53223e-06 2.71161e-06 0)
(-7.28887e-06 2.96106e-06 0)
(-8.10486e-06 3.27017e-06 0)
(-8.98993e-06 3.65753e-06 0)
(-9.95403e-06 4.14975e-06 0)
(-1.10053e-05 4.78536e-06 0)
(-1.21452e-05 5.6209e-06 0)
(-1.33568e-05 6.73907e-06 0)
(-1.4579e-05 8.25661e-06 0)
(-1.56554e-05 1.03187e-05 0)
(-1.62639e-05 1.30338e-05 0)
(-1.5934e-05 1.62475e-05 0)
(-1.4451e-05 1.92033e-05 0)
(-1.22044e-05 2.11596e-05 0)
(-9.9296e-06 2.19585e-05 0)
(-8.27069e-06 2.20127e-05 0)
(-7.20728e-06 2.23458e-05 0)
(-5.7808e-06 2.34568e-05 0)
(-4.48875e-06 2.32162e-05 0)
(-2.08443e-06 2.52996e-05 0)
(2.85805e-07 2.24838e-05 0)
(5.05172e-07 2.12541e-05 0)
(4.0795e-08 2.03843e-05 0)
(-3.5385e-07 2.09153e-05 0)
(-1.41183e-07 2.11638e-05 0)
(-1.68427e-06 1.84302e-05 0)
(-2.7038e-06 5.19962e-06 0)
(-1.55006e-06 1.26812e-06 0)
(-5.63395e-07 1.10347e-06 0)
(5.63395e-07 1.10347e-06 0)
(1.55006e-06 1.26812e-06 0)
(2.7038e-06 5.19962e-06 0)
(1.68427e-06 1.84302e-05 0)
(1.41183e-07 2.11638e-05 0)
(3.5385e-07 2.09153e-05 0)
(-4.0795e-08 2.03843e-05 0)
(-5.05172e-07 2.12541e-05 0)
(-2.85805e-07 2.24838e-05 0)
(2.08443e-06 2.52996e-05 0)
(4.48875e-06 2.32162e-05 0)
(5.7808e-06 2.34568e-05 0)
(7.20728e-06 2.23458e-05 0)
(8.27069e-06 2.20127e-05 0)
(9.9296e-06 2.19585e-05 0)
(1.22044e-05 2.11596e-05 0)
(1.4451e-05 1.92033e-05 0)
(1.5934e-05 1.62475e-05 0)
(1.62639e-05 1.30338e-05 0)
(1.56554e-05 1.03187e-05 0)
(1.4579e-05 8.25661e-06 0)
(1.33568e-05 6.73907e-06 0)
(1.21452e-05 5.6209e-06 0)
(1.10053e-05 4.78536e-06 0)
(9.95403e-06 4.14975e-06 0)
(8.98993e-06 3.65753e-06 0)
(8.10486e-06 3.27017e-06 0)
(7.28887e-06 2.96106e-06 0)
(6.53223e-06 2.71161e-06 0)
(5.82615e-06 2.50855e-06 0)
(5.16288e-06 2.34226e-06 0)
(4.53573e-06 2.2057e-06 0)
(3.9389e-06 2.09359e-06 0)
(3.36732e-06 2.00198e-06 0)
(2.81657e-06 1.92789e-06 0)
(2.28269e-06 1.86905e-06 0)
(1.76213e-06 1.82377e-06 0)
(1.25165e-06 1.79081e-06 0)
(7.48216e-07 1.7693e-06 0)
(2.48946e-07 1.75868e-06 0)
(-2.45904e-07 2.02434e-06 0)
(-7.39015e-07 2.0364e-06 0)
(-1.23606e-06 2.06082e-06 0)
(-1.73974e-06 2.09821e-06 0)
(-2.2529e-06 2.14954e-06 0)
(-2.77855e-06 2.21617e-06 0)
(-3.31997e-06 2.29997e-06 0)
(-3.88073e-06 2.4034e-06 0)
(-4.4648e-06 2.52972e-06 0)
(-5.0766e-06 2.68318e-06 0)
(-5.72109e-06 2.86943e-06 0)
(-6.40378e-06 3.09593e-06 0)
(-7.13073e-06 3.3727e-06 0)
(-7.90836e-06 3.71335e-06 0)
(-8.7429e-06 4.13654e-06 0)
(-9.63922e-06 4.66812e-06 0)
(-1.05981e-05 5.34418e-06 0)
(-1.16108e-05 6.21488e-06 0)
(-1.26477e-05 7.34821e-06 0)
(-1.36379e-05 8.82975e-06 0)
(-1.44371e-05 1.0746e-05 0)
(-1.4801e-05 1.31226e-05 0)
(-1.44361e-05 1.57847e-05 0)
(-1.32371e-05 1.82328e-05 0)
(-1.14686e-05 1.99858e-05 0)
(-9.61582e-06 2.09262e-05 0)
(-8.08479e-06 2.13352e-05 0)
(-6.86948e-06 2.1796e-05 0)
(-5.52862e-06 2.25227e-05 0)
(-4.14693e-06 2.27123e-05 0)
(-2.2764e-06 2.35212e-05 0)
(-5.98001e-07 2.21052e-05 0)
(-1.61883e-07 2.13018e-05 0)
(-2.12419e-07 2.09356e-05 0)
(-3.0575e-07 2.09367e-05 0)
(-3.60888e-07 2.0967e-05 0)
(-6.6658e-07 2.08002e-05 0)
(-9.81262e-07 4.74529e-06 0)
(-9.04302e-07 9.62277e-07 0)
(-3.92712e-07 7.65698e-07 0)
(3.92712e-07 7.65698e-07 0)
(9.04302e-07 9.62277e-07 0)
(9.81262e-07 4.74529e-06 0)
(6.6658e-07 2.08002e-05 0)
(3.60888e-07 2.0967e-05 0)
(3.0575e-07 2.09367e-05 0)
(2.12419e-07 2.09356e-05 0)
(1.61883e-07 2.13018e-05 0)
(5.98001e-07 2.21052e-05 0)
(2.2764e-06 2.35212e-05 0)
(4.14693e-06 2.27123e-05 0)
(5.52862e-06 2.25227e-05 0)
(6.86948e-06 2.1796e-05 0)
(8.08479e-06 2.13352e-05 0)
(9.61582e-06 2.09262e-05 0)
(1.14686e-05 1.99858e-05 0)
(1.32371e-05 1.82328e-05 0)
(1.44361e-05 1.57847e-05 0)
(1.4801e-05 1.31226e-05 0)
(1.44371e-05 1.0746e-05 0)
(1.36379e-05 8.82975e-06 0)
(1.26477e-05 7.34821e-06 0)
(1.16108e-05 6.21488e-06 0)
(1.05981e-05 5.34418e-06 0)
(9.63922e-06 4.66812e-06 0)
(8.7429e-06 4.13654e-06 0)
(7.90836e-06 3.71335e-06 0)
(7.13073e-06 3.3727e-06 0)
(6.40378e-06 3.09593e-06 0)
(5.72109e-06 2.86943e-06 0)
(5.0766e-06 2.68318e-06 0)
(4.4648e-06 2.52972e-06 0)
(3.88073e-06 2.4034e-06 0)
(3.31997e-06 2.29997e-06 0)
(2.77855e-06 2.21617e-06 0)
(2.2529e-06 2.14954e-06 0)
(1.73974e-06 2.09821e-06 0)
(1.23606e-06 2.06082e-06 0)
(7.39015e-07 2.0364e-06 0)
(2.45904e-07 2.02434e-06 0)
(-2.42137e-07 2.31169e-06 0)
(-7.27621e-07 2.32523e-06 0)
(-1.21676e-06 2.35263e-06 0)
(-1.71205e-06 2.39456e-06 0)
(-2.21609e-06 2.45207e-06 0)
(-2.73165e-06 2.52663e-06 0)
(-3.26163e-06 2.62025e-06 0)
(-3.80921e-06 2.73557e-06 0)
(-4.37781e-06 2.87605e-06 0)
(-4.97115e-06 3.04618e-06 0)
(-5.59321e-06 3.25183e-06 0)
(-6.24824e-06 3.50069e-06 0)
(-6.94052e-06 3.80292e-06 0)
(-7.67399e-06 4.17197e-06 0)
(-8.4515e-06 4.62586e-06 0)
(-9.27322e-06 5.18868e-06 0)
(-1.01337e-05 5.89257e-06 0)
(-1.10166e-05 6.77946e-06 0)
(-1.18854e-05 7.90146e-06 0)
(-1.26688e-05 9.31555e-06 0)
(-1.32449e-05 1.10642e-05 0)
(-1.34377e-05 1.31277e-05 0)
(-1.30692e-05 1.53476e-05 0)
(-1.20941e-05 1.73955e-05 0)
(-1.06893e-05 1.8964e-05 0)
(-9.16522e-06 1.99681e-05 0)
(-7.77642e-06 2.05774e-05 0)
(-6.54053e-06 2.11094e-05 0)
(-5.26552e-06 2.16703e-05 0)
(-3.93377e-06 2.19678e-05 0)
(-2.42338e-06 2.22841e-05 0)
(-1.11784e-06 2.15949e-05 0)
(-5.70738e-07 2.11402e-05 0)
(-4.1846e-07 2.095e-05 0)
(-3.16974e-07 2.08996e-05 0)
(-2.2528e-07 2.09466e-05 0)
(-1.37627e-07 2.10862e-05 0)
(-1.95316e-07 4.56978e-06 0)
(-3.58004e-07 4.51393e-07 0)
(-2.10017e-07 3.39178e-07 0)
(2.10017e-07 3.39178e-07 0)
(3.58004e-07 4.51393e-07 0)
(1.95316e-07 4.56978e-06 0)
(1.37627e-07 2.10862e-05 0)
(2.2528e-07 2.09466e-05 0)
(3.16974e-07 2.08996e-05 0)
(4.1846e-07 2.095e-05 0)
(5.70738e-07 2.11402e-05 0)
(1.11784e-06 2.15949e-05 0)
(2.42338e-06 2.22841e-05 0)
(3.93377e-06 2.19678e-05 0)
(5.26552e-06 2.16703e-05 0)
(6.54053e-06 2.11094e-05 0)
(7.77642e-06 2.05774e-05 0)
(9.16522e-06 1.99681e-05 0)
(1.06893e-05 1.8964e-05 0)
(1.20941e-05 1.73955e-05 0)
(1.30692e-05 1.53476e-05 0)
(1.34377e-05 1.31277e-05 0)
(1.32449e-05 1.10642e-05 0)
(1.26688e-05 9.31555e-06 0)
(1.18854e-05 7.90146e-06 0)
(1.10166e-05 6.77946e-06 0)
(1.01337e-05 5.89257e-06 0)
(9.27322e-06 5.18868e-06 0)
(8.4515e-06 4.62586e-06 0)
(7.67399e-06 4.17197e-06 0)
(6.94052e-06 3.80292e-06 0)
(6.24824e-06 3.50069e-06 0)
(5.59321e-06 3.25183e-06 0)
(4.97115e-06 3.04618e-06 0)
(4.37781e-06 2.87605e-06 0)
(3.80921e-06 2.73557e-06 0)
(3.26163e-06 2.62025e-06 0)
(2.73165e-06 2.52663e-06 0)
(2.21609e-06 2.45207e-06 0)
(1.71205e-06 2.39456e-06 0)
(1.21676e-06 2.35263e-06 0)