/*--------------------------------*- C++ -*----------------------------------*\
  =========                 |
  \\      /  F ield         | OpenFOAM: The Open Source CFD Toolbox
   \\    /   O peration     | Website:  https://openfoam.org
    \\  /    A nd           | Version:  10
     \\/     M anipulation  |
\*---------------------------------------------------------------------------*/
FoamFile
{
    format      ascii;
    class       volScalarField;
    location    "4.1";
    object      Sb;
}
// * * * * * * * * * * * * * * * * * * * * * * * * * * * * * * * * * * * * * //

dimensions      [0 0 0 0 0 0 0];

internalField   nonuniform List<scalar> 
12225
(
0.583323
0.581367
0.578975
0.576402
0.573821
0.57134
0.569027
0.56692
0.565046
0.563426
0.562079
0.561036
0.560347
0.560099
0.560463
0.561824
0.565222
0.573842
0.613138
0.610677
0.607713
0.604562
0.601435
0.598456
0.595699
0.593206
0.591
0.589098
0.587519
0.586293
0.585468
0.585133
0.585456
0.586778
0.589822
0.595844
0.632162
0.629214
0.62571
0.622026
0.618399
0.614971
0.611817
0.608977
0.606473
0.604317
0.602527
0.601126
0.600159
0.599709
0.599918
0.601043
0.603499
0.607702
0.647576
0.644117
0.640063
0.635845
0.631729
0.627865
0.624329
0.621158
0.618368
0.615968
0.613967
0.612384
0.611256
0.610647
0.610666
0.611475
0.613268
0.616102
0.661291
0.657269
0.652623
0.647842
0.643218
0.638906
0.634981
0.631475
0.628395
0.625743
0.623521
0.62174
0.620423
0.619614
0.619381
0.619805
0.620944
0.622713
0.674157
0.669498
0.664196
0.658803
0.653634
0.648848
0.644515
0.640657
0.637273
0.634355
0.631895
0.629893
0.628357
0.627308
0.626777
0.626784
0.627308
0.628221
0.686659
0.681264
0.67522
0.669148
0.663384
0.658086
0.653316
0.649082
0.645373
0.642168
0.639449
0.6372
0.635416
0.634094
0.633231
0.632809
0.632767
0.632974
0.699127
0.692868
0.685973
0.679137
0.672713
0.666855
0.66161
0.656971
0.65291
0.649394
0.64639
0.643869
0.641807
0.640184
0.63897
0.638121
0.637562
0.637175
0.711826
0.704535
0.69665
0.688944
0.681782
0.675306
0.669541
0.664461
0.660019
0.656164
0.652848
0.650028
0.647664
0.645716
0.644139
0.642874
0.641843
0.640945
0.724995
0.716453
0.707405
0.698699
0.690705
0.68354
0.677203
0.671641
0.666783
0.66256
0.658906
0.655761
0.653072
0.650784
0.648839
0.647173
0.64571
0.644367
0.738883
0.728799
0.718364
0.708499
0.699559
0.691626
0.684658
0.678568
0.673258
0.668635
0.664615
0.661122
0.658089
0.655449
0.653138
0.651087
0.649228
0.64749
0.75377
0.741748
0.72964
0.718418
0.708399
0.699605
0.69194
0.685273
0.679472
0.674417
0.670004
0.666142
0.66275
0.659752
0.657079
0.654662
0.652436
0.650341
0.767601
0.753431
0.739555
0.726953
0.715867
0.706243
0.697919
0.690714
0.68446
0.679012
0.674245
0.670055
0.666348
0.663045
0.66007
0.657356
0.65484
0.652467
0.784812
0.767545
0.751247
0.736821
0.724369
0.713705
0.704571
0.696715
0.689921
0.684009
0.678831
0.674264
0.670204
0.66656
0.663255
0.660217
0.657385
0.65471
0.806761
0.784814
0.765088
0.748207
0.733987
0.722022
0.7119
0.703267
0.695841
0.689395
0.68375
0.678758
0.674298
0.670268
0.666581
0.663165
0.65996
0.656919
0.836028
0.806536
0.781719
0.761427
0.74489
0.7313
0.719995
0.710465
0.702322
0.695268
0.689072
0.683552
0.678568
0.674009
0.669786
0.665835
0.662106
0.658564
0.880695
0.838103
0.805049
0.779652
0.759815
0.743923
0.730878
0.719944
0.710539
0.702221
0.694785
0.688074
0.681965
0.676361
0.671188
0.666389
0.661916
0.657733
0.824258
0.797711
0.775199
0.756379
0.740628
0.727326
0.715953
0.706099
0.697507
0.690012
0.68336
0.677276
0.671684
0.666522
0.661737
0.657288
0.653139
0.649261
0.775799
0.759177
0.74368
0.72985
0.717675
0.706975
0.697534
0.689151
0.681654
0.674899
0.668796
0.663342
0.658398
0.653839
0.649619
0.645696
0.64204
0.638621
0.743338
0.731886
0.720427
0.709662
0.699809
0.690883
0.682818
0.67552
0.668895
0.662855
0.657325
0.652239
0.647577
0.643338
0.639395
0.635718
0.63228
0.629059
0.71679
0.708476
0.699715
0.691147
0.683055
0.675538
0.668608
0.662235
0.656373
0.650971
0.645982
0.64136
0.637068
0.633079
0.629432
0.626023
0.62283
0.619834
0.694151
0.687868
0.680984
0.674033
0.667296
0.660906
0.654914
0.649327
0.644129
0.639294
0.634793
0.630598
0.626681
0.623017
0.619589
0.61643
0.613466
0.610681
0.674168
0.669274
0.663743
0.658012
0.652336
0.646858
0.641646
0.636727
0.632105
0.627771
0.623708
0.619898
0.616324
0.612968
0.609813
0.606853
0.604102
0.601512
0.655971
0.652072
0.64755
0.64276
0.637932
0.6332
0.628643
0.624296
0.620177
0.616284
0.612613
0.609153
0.605891
0.602816
0.599916
0.597179
0.594613
0.592206
0.638882
0.635724
0.631976
0.627932
0.623792
0.619682
0.615681
0.61183
0.608151
0.604652
0.601333
0.59819
0.595214
0.592399
0.589734
0.587212
0.584824
0.582589
0.62228
0.619691
0.616555
0.613117
0.609548
0.605967
0.602445
0.599029
0.595742
0.592598
0.589599
0.586746
0.584035
0.581459
0.579015
0.576694
0.574492
0.572403
0.605458
0.603322
0.600685
0.597751
0.59467
0.591546
0.588448
0.585421
0.58249
0.57967
0.576967
0.574384
0.57192
0.569572
0.567335
0.565207
0.56318
0.561252
0.587365
0.585602
0.583385
0.580886
0.578232
0.575518
0.572806
0.570136
0.567536
0.56502
0.562598
0.560273
0.558047
0.555917
0.553882
0.551939
0.550084
0.548315
0.565787
0.564345
0.562499
0.560392
0.558132
0.555799
0.55345
0.551123
0.548841
0.546622
0.544473
0.542401
0.540408
0.538494
0.536657
0.534898
0.533213
0.531601
0.53277
0.531618
0.530117
0.528381
0.526499
0.524536
0.522541
0.520547
0.518577
0.516645
0.514761
0.512932
0.511161
0.509448
0.507797
0.506205
0.504672
0.503198
0.324577
0.33057
0.334906
0.338157
0.340654
0.342603
0.344138
0.345351
0.346307
0.347052
0.347621
0.34804
0.348327
0.3485
0.34857
0.348547
0.348439
0.348253
0.347993
0.347665
0.347273
0.346819
0.346307
0.34574
0.345119
0.344447
0.343726
0.342956
0.342141
0.34128
0.340377
0.33943
0.338443
0.337416
0.33635
0.335246
0.334104
0.332927
0.331714
0.330466
0.329185
0.32787
0.326523
0.325144
0.323734
0.322293
0.320823
0.319323
0.317795
0.316238
0.314654
0.313042
0.311404
0.30974
0.308051
0.306337
0.304598
0.302835
0.301049
0.299241
0.29741
0.295557
0.293684
0.29179
0.289876
0.287942
0.28599
0.28402
0.282032
0.280027
0.278006
0.275969
0.273916
0.27185
0.269769
0.267674
0.265567
0.263447
0.261315
0.259171
0.257016
0.254851
0.252675
0.250489
0.248293
0.246088
0.243873
0.241648
0.239415
0.237172
0.23492
0.232658
0.230387
0.228106
0.225814
0.223512
0.221199
0.218874
0.216536
0.214185
0.21182
0.209439
0.207042
0.204627
0.202193
0.199738
0.197259
0.194756
0.192226
0.189666
0.187073
0.184445
0.181777
0.179067
0.17631
0.173501
0.170635
0.167711
0.164731
0.161699
0.158586
0.155294
0.15165
0.14751
0.143008
0.138868
0.136495
0.137456
0.141952
0.147347
0.152852
0.158428
0.164082
0.169831
0.175698
0.181713
0.187917
0.194368
0.201148
0.208384
0.216282
0.225166
0.232691
0.229449
0.189409
0.0779905
0.00169586
0.0011
0.0011
0.0011
0.0011
0.0011
0.0011
0.0011
0.0011
0.0011
0.0011
0.0011
0.0011
0.0011
0.0011
0.0011
0.0011
0.0011
0.0011
0.0011
0.0011
0.0011
0.0011
0.0011
0.0011
0.0011
0.0011
0.0011
0.0011
0.0011
0.0011
0.0011
0.0011
0.0011
0.441566
0.441873
0.442164
0.442432
0.442676
0.442891
0.443077
0.443234
0.44336
0.443457
0.443524
0.443562
0.443572
0.443555
0.44351
0.44344
0.443344
0.443223
0.443079
0.442912
0.442722
0.442511
0.44228
0.442029
0.44176
0.441472
0.441167
0.440846
0.440509
0.440157
0.439791
0.439412
0.439021
0.438618
0.438204
0.43778
0.437346
0.436903
0.436453
0.435995
0.43553
0.435059
0.434583
0.434102
0.433617
0.433128
0.432637
0.432142
0.431646
0.431149
0.430651
0.430152
0.429654
0.429156
0.42866
0.428165
0.427671
0.427181
0.426692
0.426207
0.425725
0.425247
0.424772
0.424302
0.423836
0.423374
0.422917
0.422465
0.422017
0.421574
0.421137
0.420704
0.420276
0.419852
0.419434
0.41902
0.41861
0.418205
0.417804
0.417406
0.417013
0.416623
0.416235
0.415851
0.415469
0.41509
0.414712
0.414335
0.41396
0.413585
0.41321
0.412835
0.412459
0.412082
0.411704
0.411323
0.410939
0.410551
0.410159
0.409762
0.40936
0.408951
0.408534
0.408109
0.407674
0.407228
0.406771
0.406299
0.405812
0.405307
0.404783
0.404236
0.403664
0.403064
0.402431
0.401761
0.401048
0.400286
0.399468
0.398587
0.397635
0.3966
0.395455
0.394139
0.392539
0.390501
0.387921
0.384736
0.380122
0.374633
0.368916
0.363224
0.35773
0.352631
0.34823
0.345032
0.34389
0.346228
0.352282
0.361088
0.371505
0.381565
0.389093
0.392755
0.389151
0.362349
0.189303
0.00307573
0.0011
0.0011
0.0011
0.0011
0.0011
0.0011
0.0011
0.0011
0.0011
0.0011
0.0011
0.0011
0.0011
0.0011
0.0011
0.0011
0.0011
0.0011
0.0011
0.0011
0.0011
0.0011
0.0011
0.0011
0.0011
0.0011
0.0011
0.0011
0.0011
0.0011
0.0011
0.0011
0.468512
0.468674
0.468823
0.468956
0.469073
0.469173
0.469254
0.469316
0.469359
0.469382
0.469384
0.469366
0.469327
0.469269
0.46919
0.469091
0.468973
0.468836
0.468679
0.468505
0.468313
0.468103
0.467877
0.467635
0.467378
0.467105
0.466819
0.466519
0.466206
0.465881
0.465544
0.465196
0.464838
0.464471
0.464094
0.463709
0.463316
0.462916
0.46251
0.462097
0.461678
0.461254
0.460826
0.460394
0.459958
0.459519
0.459076
0.458632
0.458185
0.457737
0.457287
0.456837
0.456385
0.455934
0.455482
0.45503
0.454578
0.454127
0.453677
0.453228
0.45278
0.452333
0.451887
0.451443
0.451
0.450559
0.45012
0.449682
0.449246
0.448812
0.44838
0.44795
0.447522
0.447095
0.446671
0.446248
0.445827
0.445407
0.444989
0.444573
0.444158
0.443745
0.443334
0.442924
0.442515
0.442107
0.441701
0.441295
0.440891
0.440488
0.440086
0.439685
0.439285
0.438886
0.438488
0.43809
0.437694
0.437297
0.436902
0.436507
0.436112
0.435718
0.435325
0.434931
0.434537
0.434144
0.43375
0.433355
0.43296
0.432563
0.432166
0.431767
0.431365
0.430962
0.430555
0.430145
0.429731
0.429312
0.428888
0.428457
0.428018
0.427567
0.427095
0.426583
0.425991
0.425235
0.424145
0.422426
0.420122
0.417591
0.415156
0.413083
0.411631
0.411101
0.411828
0.413928
0.416859
0.419406
0.420995
0.421752
0.421751
0.420967
0.41922
0.415988
0.409836
0.396146
0.352291
0.112505
0.00123481
0.0011
0.0011
0.0011
0.0011
0.0011
0.0011
0.0011
0.0011
0.0011
0.0011
0.0011
0.0011
0.0011
0.0011
0.0011
0.0011
0.0011
0.0011
0.0011
0.0011
0.0011
0.0011
0.0011
0.0011
0.0011
0.0011
0.0011
0.0011
0.0011
0.0011
0.0011
0.483505
0.483708
0.483894
0.484061
0.484209
0.484336
0.484443
0.484528
0.484591
0.484632
0.484651
0.484647
0.484621
0.484572
0.484501
0.484409
0.484295
0.48416
0.484004
0.483828
0.483633
0.483419
0.483187
0.482937
0.48267
0.482388
0.48209
0.481777
0.481451
0.481111
0.480759
0.480395
0.480021
0.479636
0.479241
0.478838
0.478426
0.478007
0.47758
0.477147
0.476708
0.476264
0.475815
0.475362
0.474904
0.474443
0.473979
0.473513
0.473044
0.472573
0.4721
0.471626
0.471151
0.470676
0.470199
0.469723
0.469246
0.468769
0.468292
0.467816
0.46734
0.466864
0.466389
0.465915
0.465442
0.464969
0.464497
0.464026
0.463556
0.463087
0.462618
0.46215
0.461684
0.461217
0.460752
0.460288
0.459824
0.45936
0.458898
0.458435
0.457974
0.457513
0.457052
0.456591
0.456131
0.455672
0.455212
0.454753
0.454294
0.453835
0.453377
0.452919
0.45246
0.452002
0.451544
0.451087
0.450629
0.450172
0.449714
0.449257
0.4488
0.448343
0.447886
0.447429
0.446972
0.446515
0.446058
0.4456
0.445142
0.444684
0.444226
0.443766
0.443306
0.442845
0.442382
0.441917
0.441451
0.440981
0.440509
0.440031
0.439548
0.439056
0.438552
0.438027
0.437472
0.436867
0.436161
0.435309
0.434376
0.433475
0.432725
0.432213
0.43198
0.431982
0.432008
0.431859
0.431546
0.431069
0.430411
0.429528
0.428348
0.426748
0.424518
0.421252
0.416048
0.406583
0.384737
0.288321
0.0218907
0.00110008
0.0011
0.0011
0.0011
0.0011
0.0011
0.0011
0.0011
0.0011
0.0011
0.0011
0.0011
0.0011
0.0011
0.0011
0.0011
0.0011
0.0011
0.0011
0.0011
0.0011
0.0011
0.0011
0.0011
0.0011
0.0011
0.0011
0.0011
0.0011
0.0011
0.0011
0.494923
0.495196
0.495446
0.495673
0.495877
0.496055
0.496208
0.496336
0.496437
0.496512
0.49656
0.496582
0.496577
0.496547
0.49649
0.496407
0.4963
0.496168
0.496012
0.495832
0.495631
0.495407
0.495163
0.494899
0.494615
0.494313
0.493993
0.493657
0.493305
0.492938
0.492557
0.492163
0.491756
0.491338
0.490908
0.490469
0.49002
0.489563
0.489097
0.488625
0.488145
0.487659
0.487168
0.486671
0.48617
0.485665
0.485156
0.484643
0.484128
0.483611
0.483091
0.482569
0.482046
0.481521
0.480995
0.480469
0.479942
0.479414
0.478886
0.478358
0.477829
0.477301
0.476773
0.476245
0.475718
0.47519
0.474663
0.474137
0.47361
0.473084
0.472559
0.472034
0.471509
0.470984
0.47046
0.469936
0.469412
0.468888
0.468364
0.467841
0.467317
0.466793
0.466269
0.465746
0.465221
0.464697
0.464173
0.463648
0.463123
0.462597
0.462071
0.461545
0.461018
0.460491
0.459964
0.459436
0.458907
0.458378
0.457848
0.457317
0.456786
0.456255
0.455722
0.455189
0.454655
0.45412
0.453584
0.453047
0.452509
0.45197
0.451429
0.450887
0.450343
0.449797
0.449248
0.448697
0.448143
0.447586
0.447024
0.446456
0.445883
0.4453
0.444707
0.4441
0.443476
0.442833
0.442166
0.44146
0.440747
0.440063
0.439434
0.438865
0.438338
0.437795
0.437208
0.436566
0.435848
0.435028
0.434073
0.432936
0.43155
0.429814
0.427559
0.42448
0.419964
0.41261
0.398347
0.356996
0.128531
0.00136212
0.0011
0.0011
0.0011
0.0011
0.0011
0.0011
0.0011
0.0011
0.0011
0.0011
0.0011
0.0011
0.0011
0.0011
0.0011
0.0011
0.0011
0.0011
0.0011
0.0011
0.0011
0.0011
0.0011
0.0011
0.0011
0.0011
0.0011
0.0011
0.0011
0.0011
0.504552
0.504905
0.505231
0.505528
0.505796
0.506035
0.506243
0.506419
0.506565
0.506678
0.50676
0.50681
0.506829
0.506816
0.506773
0.5067
0.506597
0.506466
0.506307
0.506121
0.505909
0.505672
0.505411
0.505126
0.50482
0.504493
0.504145
0.503779
0.503395
0.502994
0.502577
0.502145
0.501699
0.50124
0.500769
0.500286
0.499793
0.499289
0.498777
0.498256
0.497728
0.497192
0.49665
0.496102
0.495549
0.494991
0.494428
0.493862
0.493291
0.492718
0.492142
0.491564
0.490983
0.490401
0.489816
0.489231
0.488644
0.488057
0.487468
0.486879
0.48629
0.4857
0.485109
0.484519
0.483928
0.483338
0.482747
0.482156
0.481566
0.480975
0.480384
0.479794
0.479203
0.478613
0.478022
0.477432
0.476841
0.476251
0.47566
0.475069
0.474478
0.473887
0.473296
0.472704
0.472112
0.471519
0.470926
0.470333
0.469739
0.469144
0.468549
0.467954
0.467358
0.466761
0.466163
0.465565
0.464965
0.464365
0.463764
0.463163
0.46256
0.461956
0.461351
0.460745
0.460138
0.45953
0.45892
0.458308
0.457696
0.457081
0.456464
0.455846
0.455225
0.454602
0.453976
0.453346
0.452714
0.452077
0.451436
0.450789
0.450135
0.449474
0.448804
0.448123
0.44743
0.446725
0.446011
0.445289
0.444561
0.44384
0.443133
0.442433
0.441725
0.440997
0.440237
0.439428
0.43855
0.43758
0.436487
0.435232
0.433757
0.431977
0.429753
0.42685
0.422819
0.416718
0.406121
0.381905
0.269471
0.014831
0.00110001
0.0011
0.0011
0.0011
0.0011
0.0011
0.0011
0.0011
0.0011
0.0011
0.0011
0.0011
0.0011
0.0011
0.0011
0.0011
0.0011
0.0011
0.0011
0.0011
0.0011
0.0011
0.0011
0.0011
0.0011
0.0011
0.0011
0.0011
0.0011
0.0011
0.513021
0.513464
0.513875
0.514252
0.514593
0.514898
0.515166
0.515397
0.51559
0.515745
0.515862
0.515942
0.515984
0.515989
0.515958
0.515892
0.515792
0.515658
0.515493
0.515295
0.515068
0.514813
0.51453
0.51422
0.513886
0.513528
0.513147
0.512745
0.512323
0.511882
0.511424
0.510949
0.510458
0.509952
0.509433
0.508902
0.508358
0.507804
0.507239
0.506666
0.506083
0.505493
0.504895
0.504291
0.503681
0.503065
0.502445
0.50182
0.50119
0.500557
0.499921
0.499282
0.49864
0.497996
0.49735
0.496702
0.496052
0.495401
0.494749
0.494096
0.493443
0.492788
0.492133
0.491477
0.490821
0.490165
0.489508
0.488851
0.488194
0.487537
0.48688
0.486223
0.485565
0.484908
0.48425
0.483593
0.482935
0.482277
0.48162
0.480962
0.480303
0.479645
0.478986
0.478328
0.477668
0.477009
0.476349
0.475689
0.475029
0.474368
0.473706
0.473044
0.472382
0.471718
0.471055
0.47039
0.469725
0.469059
0.468392
0.467724
0.467056
0.466386
0.465715
0.465043
0.46437
0.463696
0.46302
0.462342
0.461663
0.460982
0.4603
0.459615
0.458927
0.458237
0.457545
0.456849
0.456149
0.455446
0.454738
0.454024
0.453305
0.452579
0.451845
0.451102
0.45035
0.449589
0.448821
0.448046
0.447268
0.446488
0.445705
0.444914
0.44411
0.443283
0.442421
0.44151
0.440533
0.43947
0.438294
0.436969
0.435448
0.433655
0.431477
0.428722
0.42505
0.419778
0.4113
0.394539
0.340536
0.0824893
0.00113228
0.0011
0.0011
0.0011
0.0011
0.0011
0.0011
0.0011
0.0011
0.0011
0.0011
0.0011
0.0011
0.0011
0.0011
0.0011
0.0011
0.0011
0.0011
0.0011
0.0011
0.0011
0.0011
0.0011
0.0011
0.0011
0.0011
0.0011
0.0011
0.0011
0.52065
0.521195
0.5217
0.522165
0.522588
0.522967
0.523301
0.523591
0.523835
0.524033
0.524187
0.524296
0.524361
0.524382
0.524362
0.5243
0.524198
0.524058
0.523881
0.523668
0.523421
0.523141
0.52283
0.52249
0.522122
0.521727
0.521307
0.520864
0.520398
0.519912
0.519406
0.518882
0.518341
0.517783
0.517212
0.516626
0.516027
0.515417
0.514796
0.514165
0.513524
0.512875
0.512218
0.511554
0.510884
0.510207
0.509525
0.508838
0.508147
0.507452
0.506753
0.506051
0.505346
0.504638
0.503928
0.503216
0.502503
0.501787
0.501071
0.500353
0.499634
0.498915
0.498195
0.497474
0.496753
0.496031
0.495309
0.494587
0.493864
0.493142
0.492419
0.491697
0.490974
0.490251
0.489529
0.488806
0.488084
0.487361
0.486639
0.485916
0.485194
0.484471
0.483749
0.483026
0.482304
0.481581
0.480859
0.480136
0.479413
0.47869
0.477966
0.477243
0.476519
0.475795
0.47507
0.474345
0.473619
0.472893
0.472166
0.471439
0.470711
0.469982
0.469252
0.468522
0.46779
0.467057
0.466323
0.465588
0.464851
0.464112
0.463372
0.462629
0.461885
0.461138
0.460388
0.459635
0.458879
0.458119
0.457355
0.456586
0.455812
0.455031
0.454244
0.45345
0.452647
0.451838
0.451021
0.450197
0.449368
0.448533
0.44769
0.446834
0.445961
0.445061
0.444126
0.443142
0.442096
0.440968
0.439735
0.438367
0.436819
0.435028
0.432896
0.430267
0.426869
0.422184
0.415069
0.402336
0.37022
0.197105
0.00347477
0.0011
0.0011
0.0011
0.0011
0.0011
0.0011
0.0011
0.0011
0.0011
0.0011
0.0011
0.0011
0.0011
0.0011
0.0011
0.0011
0.0011
0.0011
0.0011
0.0011
0.0011
0.0011
0.0011
0.0011
0.0011
0.0011
0.0011
0.0011
0.0011
0.527631
0.52829
0.528902
0.529465
0.529977
0.530437
0.530843
0.531196
0.531495
0.531739
0.53193
0.532068
0.532155
0.53219
0.532177
0.532116
0.532009
0.531857
0.531663
0.531429
0.531156
0.530846
0.530502
0.530125
0.529716
0.529278
0.528813
0.528322
0.527807
0.527269
0.52671
0.526131
0.525534
0.52492
0.52429
0.523645
0.522987
0.522317
0.521634
0.520942
0.520239
0.519528
0.518808
0.518081
0.517347
0.516607
0.515861
0.51511
0.514355
0.513595
0.512832
0.512066
0.511296
0.510524
0.50975
0.508974
0.508196
0.507416
0.506635
0.505853
0.50507
0.504287
0.503502
0.502718
0.501932
0.501147
0.500362
0.499576
0.49879
0.498005
0.49722
0.496434
0.495649
0.494865
0.49408
0.493296
0.492512
0.491728
0.490945
0.490162
0.48938
0.488597
0.487815
0.487034
0.486252
0.485471
0.484691
0.48391
0.48313
0.482349
0.481569
0.480789
0.480009
0.47923
0.47845
0.47767
0.47689
0.476109
0.475329
0.474548
0.473767
0.472985
0.472203
0.47142
0.470637
0.469852
0.469067
0.468281
0.467493
0.466704
0.465914
0.465122
0.464328
0.463531
0.462733
0.461931
0.461127
0.460319
0.459508
0.458692
0.457871
0.457044
0.456212
0.455374
0.454528
0.453676
0.452816
0.45195
0.451077
0.450194
0.449301
0.448393
0.447465
0.446509
0.445518
0.44448
0.443381
0.442207
0.440934
0.439536
0.437974
0.43619
0.434103
0.431579
0.428397
0.424147
0.417974
0.407703
0.385556
0.294537
0.0276871
0.00110021
0.0011
0.0011
0.0011
0.0011
0.0011
0.0011
0.0011
0.0011
0.0011
0.0011
0.0011
0.0011
0.0011
0.0011
0.0011
0.0011
0.0011
0.0011
0.0011
0.0011
0.0011
0.0011
0.0011
0.0011
0.0011
0.0011
0.0011
0.0011
0.534089
0.534876
0.535607
0.536279
0.536891
0.53744
0.537925
0.538346
0.538702
0.538994
0.539223
0.53939
0.539496
0.539543
0.539533
0.539468
0.53935
0.539182
0.538966
0.538704
0.538399
0.538053
0.537668
0.537247
0.536792
0.536305
0.535788
0.535242
0.534671
0.534076
0.533458
0.532819
0.53216
0.531484
0.530791
0.530083
0.52936
0.528625
0.527878
0.52712
0.526352
0.525575
0.524789
0.523997
0.523197
0.522391
0.52158
0.520763
0.519942
0.519117
0.518289
0.517457
0.516623
0.515786
0.514948
0.514107
0.513265
0.512422
0.511578
0.510733
0.509887
0.509041
0.508194
0.507347
0.506501
0.505654
0.504808
0.503961
0.503115
0.50227
0.501425
0.500581
0.499737
0.498894
0.498051
0.497209
0.496368
0.495527
0.494688
0.493849
0.49301
0.492173
0.491336
0.4905
0.489665
0.48883
0.487996
0.487163
0.48633
0.485498
0.484666
0.483835
0.483005
0.482175
0.481345
0.480516
0.479687
0.478858
0.478029
0.477201
0.476372
0.475544
0.474715
0.473886
0.473057
0.472227
0.471397
0.470566
0.469734
0.468901
0.468067
0.467231
0.466394
0.465555
0.464714
0.463871
0.463025
0.462176
0.461323
0.460467
0.459606
0.458741
0.45787
0.456993
0.45611
0.455221
0.454325
0.453421
0.452508
0.451586
0.450651
0.4497
0.448727
0.447727
0.446691
0.44561
0.444472
0.443261
0.441959
0.44054
0.438969
0.437197
0.43515
0.432716
0.429707
0.425791
0.420304
0.411666
0.394941
0.342889
0.0929448
0.00115771
0.0011
0.0011
0.0011
0.0011
0.0011
0.0011
0.0011
0.0011
0.0011
0.0011
0.0011
0.0011
0.0011
0.0011
0.0011
0.0011
0.0011
0.0011
0.0011
0.0011
0.0011
0.0011
0.0011
0.0011
0.0011
0.0011
0.0011
0.0011
0.540109
0.541039
0.541904
0.542698
0.54342
0.544067
0.544637
0.545131
0.545549
0.545891
0.546158
0.546352
0.546476
0.546531
0.54652
0.546447
0.546313
0.546122
0.545877
0.545581
0.545236
0.544847
0.544415
0.543943
0.543434
0.54289
0.542314
0.541709
0.541075
0.540416
0.539733
0.539028
0.538303
0.53756
0.536799
0.536022
0.535232
0.534428
0.533612
0.532785
0.531949
0.531103
0.53025
0.529389
0.528522
0.527648
0.52677
0.525887
0.525
0.524109
0.523215
0.522318
0.521419
0.520518
0.519616
0.518712
0.517807
0.516902
0.515996
0.515089
0.514182
0.513276
0.512369
0.511463
0.510558
0.509653
0.508748
0.507844
0.506942
0.50604
0.505139
0.504239
0.50334
0.502442
0.501546
0.50065
0.499756
0.498863
0.497971
0.49708
0.496191
0.495303
0.494416
0.49353
0.492645
0.491762
0.49088
0.489999
0.489119
0.48824
0.487362
0.486485
0.485609
0.484733
0.483859
0.482985
0.482113
0.48124
0.480369
0.479498
0.478627
0.477757
0.476887
0.476017
0.475147
0.474277
0.473407
0.472537
0.471666
0.470794
0.469922
0.469048
0.468174
0.467297
0.46642
0.46554
0.464658
0.463773
0.462885
0.461994
0.461098
0.460199
0.459294
0.458384
0.457469
0.456547
0.455618
0.454681
0.453735
0.452778
0.451808
0.45082
0.449811
0.448774
0.447702
0.446586
0.445416
0.444178
0.442853
0.441419
0.439845
0.438084
0.436074
0.433715
0.430848
0.427197
0.422225
0.414738
0.401352
0.367177
0.185904
0.00293983
0.0011
0.0011
0.0011
0.0011
0.0011
0.0011
0.0011
0.0011
0.0011
0.0011
0.0011
0.0011
0.0011
0.0011
0.0011
0.0011
0.0011
0.0011
0.0011
0.0011
0.0011
0.0011
0.0011
0.0011
0.0011
0.0011
0.0011
0.0011
0.545749
0.546841
0.547855
0.548786
0.54963
0.550384
0.551049
0.551622
0.552104
0.552497
0.552803
0.553023
0.553161
0.55322
0.553204
0.553116
0.55296
0.552739
0.552458
0.55212
0.551729
0.551288
0.550801
0.550271
0.5497
0.549093
0.548451
0.547778
0.547076
0.546347
0.545593
0.544817
0.54402
0.543205
0.542372
0.541523
0.54066
0.539784
0.538897
0.537999
0.537091
0.536175
0.535252
0.534321
0.533385
0.532444
0.531497
0.530547
0.529594
0.528637
0.527678
0.526717
0.525754
0.52479
0.523825
0.52286
0.521894
0.520928
0.519962
0.518996
0.518031
0.517067
0.516103
0.515141
0.514179
0.513219
0.51226
0.511302
0.510346
0.509391
0.508438
0.507486
0.506536
0.505588
0.504641
0.503697
0.502754
0.501812
0.500873
0.499935
0.498999
0.498065
0.497132
0.496201
0.495272
0.494344
0.493418
0.492494
0.491571
0.49065
0.48973
0.488812
0.487895
0.486979
0.486065
0.485152
0.48424
0.483329
0.482419
0.48151
0.480602
0.479694
0.478787
0.477881
0.476975
0.47607
0.475164
0.474259
0.473354
0.472448
0.471542
0.470635
0.469727
0.468818
0.467908
0.466996
0.466082
0.465166
0.464247
0.463325
0.4624
0.461471
0.460537
0.459598
0.458653
0.457703
0.456745
0.455779
0.454804
0.453817
0.452816
0.451797
0.450757
0.449689
0.448588
0.447444
0.446248
0.444987
0.443645
0.4422
0.440624
0.438876
0.436898
0.434604
0.431855
0.428416
0.423846
0.417205
0.406038
0.381178
0.271376
0.0173706
0.00110003
0.0011
0.0011
0.0011
0.0011
0.0011
0.0011
0.0011
0.0011
0.0011
0.0011
0.0011
0.0011
0.0011
0.0011
0.0011
0.0011
0.0011
0.0011
0.0011
0.0011
0.0011
0.0011
0.0011
0.0011
0.0011
0.0011
0.0011
0.551049
0.552323
0.553506
0.554589
0.55557
0.556444
0.55721
0.557869
0.55842
0.558866
0.559209
0.559454
0.559603
0.559661
0.559633
0.559524
0.559338
0.55908
0.558754
0.558366
0.557919
0.557419
0.556868
0.556271
0.555632
0.554953
0.554239
0.553491
0.552714
0.551909
0.551079
0.550226
0.549352
0.54846
0.547551
0.546626
0.545688
0.544737
0.543775
0.542804
0.541823
0.540835
0.539841
0.53884
0.537834
0.536824
0.53581
0.534793
0.533774
0.532752
0.531729
0.530705
0.52968
0.528655
0.527629
0.526604
0.52558
0.524556
0.523532
0.522511
0.52149
0.520471
0.519453
0.518437
0.517423
0.516411
0.515401
0.514393
0.513387
0.512383
0.511382
0.510382
0.509385
0.508391
0.507398
0.506408
0.505421
0.504435
0.503452
0.502472
0.501493
0.500517
0.499543
0.498571
0.497602
0.496634
0.495669
0.494706
0.493745
0.492785
0.491828
0.490873
0.489919
0.488967
0.488017
0.487069
0.486122
0.485176
0.484232
0.483289
0.482348
0.481407
0.480468
0.479529
0.478591
0.477654
0.476717
0.475781
0.474845
0.473909
0.472973
0.472036
0.471099
0.470161
0.469222
0.468282
0.46734
0.466397
0.46545
0.464501
0.463549
0.462594
0.461634
0.460669
0.459699
0.458723
0.457739
0.456748
0.455747
0.454733
0.453706
0.452661
0.451594
0.4505
0.449374
0.448207
0.446989
0.44571
0.444354
0.442901
0.441325
0.439589
0.43764
0.435402
0.432752
0.429486
0.425235
0.419237
0.409628
0.39023
0.322663
0.0586875
0.00110644
0.0011
0.0011
0.0011
0.0011
0.0011
0.0011
0.0011
0.0011
0.0011
0.0011
0.0011
0.0011
0.0011
0.0011
0.0011
0.0011
0.0011
0.0011
0.0011
0.0011
0.0011
0.0011
0.0011
0.0011
0.0011
0.0011
0.0011
0.556036
0.557516
0.558889
0.560144
0.561277
0.562284
0.563163
0.563914
0.564538
0.565038
0.565419
0.565684
0.56584
0.565891
0.565845
0.565706
0.565481
0.565176
0.564796
0.564348
0.563836
0.563267
0.562643
0.561971
0.561254
0.560496
0.559701
0.558872
0.558013
0.557126
0.556214
0.55528
0.554325
0.553352
0.552363
0.551359
0.550343
0.549315
0.548277
0.547231
0.546177
0.545116
0.54405
0.542979
0.541904
0.540826
0.539746
0.538663
0.537579
0.536494
0.535409
0.534324
0.533239
0.532154
0.531071
0.529989
0.528908
0.527829
0.526752
0.525677
0.524604
0.523533
0.522465
0.521399
0.520336
0.519276
0.518219
0.517164
0.516112
0.515063
0.514018
0.512975
0.511934
0.510897
0.509863
0.508832
0.507804
0.506778
0.505756
0.504736
0.50372
0.502706
0.501694
0.500686
0.49968
0.498677
0.497676
0.496678
0.495683
0.494689
0.493699
0.49271
0.491724
0.490739
0.489757
0.488777
0.487799
0.486823
0.485848
0.484875
0.483904
0.482934
0.481965
0.480998
0.480031
0.479066
0.478101
0.477137
0.476174
0.475211
0.474248
0.473285
0.472322
0.471359
0.470394
0.469429
0.468462
0.467493
0.466523
0.46555
0.464574
0.463595
0.462611
0.461624
0.460631
0.459632
0.458626
0.457611
0.456587
0.455551
0.4545
0.453432
0.452342
0.451226
0.450078
0.448891
0.447656
0.446362
0.444995
0.443535
0.44196
0.440235
0.438313
0.436122
0.433555
0.430434
0.42644
0.420944
0.412477
0.39661
0.350927
0.123046
0.00133264
0.0011
0.0011
0.0011
0.0011
0.0011
0.0011
0.0011
0.0011
0.0011
0.0011
0.0011
0.0011
0.0011
0.0011
0.0011
0.0011
0.0011
0.0011
0.0011
0.0011
0.0011
0.0011
0.0011
0.0011
0.0011
0.0011
0.0011
0.560725
0.56244
0.564028
0.565479
0.566784
0.567939
0.568942
0.569793
0.570495
0.571051
0.571467
0.571749
0.571904
0.571941
0.571866
0.571687
0.571413
0.571049
0.570605
0.570085
0.569498
0.568848
0.568142
0.567385
0.566582
0.565736
0.564853
0.563936
0.562989
0.562014
0.561015
0.559994
0.558955
0.557898
0.556826
0.555742
0.554645
0.553539
0.552425
0.551303
0.550175
0.549042
0.547905
0.546765
0.545622
0.544478
0.543332
0.542186
0.54104
0.539894
0.538749
0.537605
0.536462
0.535322
0.534184
0.533048
0.531914
0.530783
0.529656
0.528531
0.527409
0.526291
0.525176
0.524064
0.522956
0.521852
0.520751
0.519653
0.51856
0.517469
0.516383
0.5153
0.514221
0.513145
0.512073
0.511005
0.50994
0.508878
0.50782
0.506766
0.505715
0.504667
0.503622
0.50258
0.501542
0.500507
0.499475
0.498445
0.497419
0.496395
0.495375
0.494356
0.493341
0.492328
0.491317
0.490309
0.489303
0.488299
0.487297
0.486297
0.485299
0.484303
0.483308
0.482315
0.481323
0.480333
0.479343
0.478355
0.477367
0.47638
0.475393
0.474407
0.47342
0.472433
0.471446
0.470458
0.469469
0.468478
0.467486
0.466491
0.465494
0.464494
0.463489
0.462481
0.461467
0.460448
0.459421
0.458386
0.457341
0.456284
0.455213
0.454125
0.453015
0.45188
0.450713
0.449509
0.448259
0.446952
0.445575
0.444111
0.442538
0.440823
0.438923
0.436775
0.43428
0.43128
0.427498
0.422401
0.4148
0.401367
0.367844
0.197241
0.00377723
0.0011
0.0011
0.0011
0.0011
0.0011
0.0011
0.0011
0.0011
0.0011
0.0011
0.0011
0.0011
0.0011
0.0011
0.0011
0.0011
0.0011
0.0011
0.0011
0.0011
0.0011
0.0011
0.0011
0.0011
0.0011
0.0011
0.0011
0.565123
0.567107
0.568942
0.570616
0.572117
0.573439
0.57458
0.57554
0.576323
0.576935
0.577383
0.577675
0.577822
0.577833
0.577717
0.577486
0.577148
0.576713
0.57619
0.575586
0.574911
0.57417
0.57337
0.572518
0.571618
0.570677
0.569698
0.568686
0.567645
0.566578
0.565487
0.564377
0.56325
0.562107
0.560951
0.559784
0.558608
0.557423
0.556232
0.555035
0.553835
0.552631
0.551425
0.550217
0.549008
0.5478
0.546592
0.545384
0.544179
0.542975
0.541773
0.540574
0.539378
0.538185
0.536995
0.535809
0.534626
0.533448
0.532273
0.531102
0.529936
0.528773
0.527615
0.526462
0.525312
0.524167
0.523027
0.52189
0.520759
0.519631
0.518508
0.517389
0.516274
0.515164
0.514058
0.512956
0.511858
0.510764
0.509674
0.508588
0.507506
0.506428
0.505353
0.504282
0.503215
0.502151
0.50109
0.500033
0.498979
0.497928
0.496881
0.495836
0.494794
0.493756
0.49272
0.491686
0.490655
0.489627
0.488601
0.487577
0.486555
0.485535
0.484517
0.483501
0.482487
0.481474
0.480462
0.479452
0.478442
0.477433
0.476425
0.475418
0.47441
0.473403
0.472395
0.471387
0.470377
0.469367
0.468355
0.467341
0.466324
0.465305
0.464281
0.463254
0.462222
0.461183
0.460138
0.459085
0.458021
0.456946
0.455856
0.45475
0.453622
0.45247
0.451287
0.450068
0.448804
0.447486
0.446102
0.444634
0.443062
0.441357
0.439479
0.437367
0.434934
0.432037
0.428432
0.42366
0.416732
0.405051