/*--------------------------------*- C++ -*----------------------------------*\
  =========                 |
  \\      /  F ield         | OpenFOAM: The Open Source CFD Toolbox
   \\    /   O peration     | Website:  https://openfoam.org
    \\  /    A nd           | Version:  10
     \\/     M anipulation  |
\*---------------------------------------------------------------------------*/
FoamFile
{
    format      ascii;
    class       volVectorField;
    location    "15500";
    object      Ua;
}
// * * * * * * * * * * * * * * * * * * * * * * * * * * * * * * * * * * * * * //

dimensions      [0 1 -1 0 0 0 0];

internalField   nonuniform List<vector> 
6400
(
(-3.59206e-07 7.30155e-08 0)
(-1.0834e-06 7.41899e-08 0)
(-1.82538e-06 7.6632e-08 0)
(-2.59863e-06 8.05465e-08 0)
(-3.41941e-06 8.62924e-08 0)
(-4.30868e-06 9.44693e-08 0)
(-5.29533e-06 1.06086e-07 0)
(-6.4219e-06 1.22911e-07 0)
(-7.75596e-06 1.48261e-07 0)
(-9.41469e-06 1.88908e-07 0)
(-1.16211e-05 2.5959e-07 0)
(-1.47296e-05 3.72267e-07 0)
(-1.08635e-05 2.8402e-07 0)
(-2.64374e-06 6.02409e-05 0)
(-8.11862e-08 6.83687e-07 0)
(-3.15924e-08 2.32877e-07 0)
(-1.78515e-08 1.31434e-07 0)
(-1.20044e-08 8.95235e-08 0)
(-9.44373e-09 6.68034e-08 0)
(-7.48167e-09 5.29753e-08 0)
(-6.13446e-09 4.38009e-08 0)
(-5.24127e-09 3.73059e-08 0)
(-4.59421e-09 3.24773e-08 0)
(-4.0639e-09 2.88181e-08 0)
(-3.62932e-09 2.59216e-08 0)
(-3.26721e-09 2.35928e-08 0)
(-2.95405e-09 2.17076e-08 0)
(-2.68739e-09 2.01554e-08 0)
(-2.47133e-09 1.88701e-08 0)
(-2.27785e-09 1.77706e-08 0)
(-2.09554e-09 1.68281e-08 0)
(-1.91235e-09 1.6022e-08 0)
(-1.7595e-09 1.53728e-08 0)
(-1.63352e-09 1.51119e-08 0)
(-1.48118e-09 1.48772e-08 0)
(-1.29567e-09 1.46725e-08 0)
(-1.07127e-09 1.44996e-08 0)
(-8.0557e-10 1.43687e-08 0)
(-5.01465e-10 1.42839e-08 0)
(-1.70282e-10 1.42136e-08 0)
(1.70282e-10 1.42136e-08 0)
(5.01465e-10 1.42839e-08 0)
(8.0557e-10 1.43687e-08 0)
(1.07127e-09 1.44996e-08 0)
(1.29567e-09 1.46725e-08 0)
(1.48118e-09 1.48772e-08 0)
(1.63352e-09 1.51119e-08 0)
(1.7595e-09 1.53728e-08 0)
(1.91235e-09 1.6022e-08 0)
(2.09554e-09 1.68281e-08 0)
(2.27785e-09 1.77706e-08 0)
(2.47133e-09 1.88701e-08 0)
(2.68739e-09 2.01554e-08 0)
(2.95405e-09 2.17076e-08 0)
(3.26721e-09 2.35928e-08 0)
(3.62932e-09 2.59216e-08 0)
(4.0639e-09 2.88181e-08 0)
(4.59421e-09 3.24773e-08 0)
(5.24127e-09 3.73059e-08 0)
(6.13446e-09 4.38009e-08 0)
(7.48167e-09 5.29753e-08 0)
(9.44373e-09 6.68034e-08 0)
(1.20044e-08 8.95235e-08 0)
(1.78515e-08 1.31434e-07 0)
(3.15924e-08 2.32877e-07 0)
(8.11862e-08 6.83687e-07 0)
(2.64374e-06 6.02409e-05 0)
(1.08635e-05 2.8402e-07 0)
(1.47296e-05 3.72267e-07 0)
(1.16211e-05 2.5959e-07 0)
(9.41469e-06 1.88908e-07 0)
(7.75596e-06 1.48261e-07 0)
(6.4219e-06 1.22911e-07 0)
(5.29533e-06 1.06086e-07 0)
(4.30868e-06 9.44693e-08 0)
(3.41941e-06 8.62924e-08 0)
(2.59863e-06 8.05465e-08 0)
(1.82538e-06 7.6632e-08 0)
(1.0834e-06 7.41899e-08 0)
(3.59206e-07 7.30155e-08 0)
(-3.58956e-07 2.2606e-07 0)
(-1.08263e-06 2.29693e-07 0)
(-1.82402e-06 2.37246e-07 0)
(-2.59657e-06 2.49351e-07 0)
(-3.41644e-06 2.67117e-07 0)
(-4.30447e-06 2.92391e-07 0)
(-5.28927e-06 3.28282e-07 0)
(-6.41292e-06 3.8023e-07 0)
(-7.7419e-06 4.58411e-07 0)
(-9.39097e-06 5.83587e-07 0)
(-1.1582e-05 8.0191e-07 0)
(-1.48869e-05 1.19862e-06 0)
(-2.26351e-05 1.84142e-06 0)
(-1.78698e-05 2.16063e-05 0)
(-3.83859e-06 1.44308e-05 0)
(-1.79427e-07 7.30519e-07 0)
(-5.57121e-08 2.83053e-07 0)
(-3.20811e-08 1.69118e-07 0)
(-2.39929e-08 1.19356e-07 0)
(-1.84389e-08 9.22416e-08 0)
(-1.48645e-08 7.52522e-08 0)
(-1.25795e-08 6.36082e-08 0)
(-1.09614e-08 5.50496e-08 0)
(-9.65372e-09 4.86667e-08 0)
(-8.59926e-09 4.36713e-08 0)
(-7.7285e-09 3.96899e-08 0)
(-6.97807e-09 3.64666e-08 0)
(-6.341e-09 3.38439e-08 0)
(-5.82982e-09 3.16714e-08 0)
(-5.37328e-09 2.98098e-08 0)
(-4.94572e-09 2.82239e-08 0)
(-4.52224e-09 2.68609e-08 0)
(-4.17091e-09 2.57539e-08 0)
(-3.88134e-09 2.53036e-08 0)
(-3.53026e-09 2.4897e-08 0)
(-3.09996e-09 2.454e-08 0)
(-2.57388e-09 2.42373e-08 0)
(-1.94307e-09 2.4006e-08 0)
(-1.21304e-09 2.38532e-08 0)
(-4.12533e-10 2.37308e-08 0)
(4.12533e-10 2.37308e-08 0)
(1.21304e-09 2.38532e-08 0)
(1.94307e-09 2.4006e-08 0)
(2.57388e-09 2.42373e-08 0)
(3.09996e-09 2.454e-08 0)
(3.53026e-09 2.4897e-08 0)
(3.88134e-09 2.53036e-08 0)
(4.17091e-09 2.57539e-08 0)
(4.52224e-09 2.68609e-08 0)
(4.94572e-09 2.82239e-08 0)
(5.37328e-09 2.98098e-08 0)
(5.82982e-09 3.16714e-08 0)
(6.341e-09 3.38439e-08 0)
(6.97807e-09 3.64666e-08 0)
(7.7285e-09 3.96899e-08 0)
(8.59926e-09 4.36713e-08 0)
(9.65372e-09 4.86667e-08 0)
(1.09614e-08 5.50496e-08 0)
(1.25795e-08 6.36082e-08 0)
(1.48645e-08 7.52522e-08 0)
(1.84389e-08 9.22416e-08 0)
(2.39929e-08 1.19356e-07 0)
(3.20811e-08 1.69118e-07 0)
(5.57121e-08 2.83053e-07 0)
(1.79427e-07 7.30519e-07 0)
(3.83859e-06 1.44308e-05 0)
(1.78698e-05 2.16063e-05 0)
(2.26351e-05 1.84142e-06 0)
(1.48869e-05 1.19862e-06 0)
(1.1582e-05 8.0191e-07 0)
(9.39097e-06 5.83587e-07 0)
(7.7419e-06 4.58411e-07 0)
(6.41292e-06 3.8023e-07 0)
(5.28927e-06 3.28282e-07 0)
(4.30447e-06 2.92391e-07 0)
(3.41644e-06 2.67117e-07 0)
(2.59657e-06 2.49351e-07 0)
(1.82402e-06 2.37246e-07 0)
(1.08263e-06 2.29693e-07 0)
(3.58956e-07 2.2606e-07 0)
(-3.58381e-07 3.93727e-07 0)
(-1.08086e-06 4.00041e-07 0)
(-1.82091e-06 4.13166e-07 0)
(-2.59185e-06 4.34195e-07 0)
(-3.40964e-06 4.65044e-07 0)
(-4.2948e-06 5.08904e-07 0)
(-5.27539e-06 5.71124e-07 0)
(-6.39236e-06 6.61046e-07 0)
(-7.70979e-06 7.96053e-07 0)
(-9.3367e-06 1.01145e-06 0)
(-1.14811e-05 1.38695e-06 0)
(-1.46496e-05 2.1252e-06 0)
(-2.05771e-05 4.0918e-06 0)
(-2.12232e-05 1.84671e-05 0)
(-1.09978e-05 2.64933e-05 0)
(-2.38719e-06 9.89343e-06 0)
(-3.83443e-07 1.49289e-06 0)
(-8.74986e-08 5.20616e-07 0)
(-5.06973e-08 2.75781e-07 0)
(-3.52853e-08 1.94458e-07 0)
(-2.71764e-08 1.52292e-07 0)
(-2.2482e-08 1.25992e-07 0)
(-1.93455e-08 1.0757e-07 0)
(-1.68829e-08 9.43174e-08 0)
(-1.49587e-08 8.41962e-08 0)
(-1.33999e-08 7.62744e-08 0)
(-1.20663e-08 6.9896e-08 0)
(-1.09406e-08 6.47929e-08 0)
(-1.00568e-08 6.05779e-08 0)
(-9.26874e-09 5.69711e-08 0)
(-8.53765e-09 5.39292e-08 0)
(-7.83491e-09 5.13162e-08 0)
(-7.25837e-09 4.91889e-08 0)
(-6.78211e-09 4.83258e-08 0)
(-6.20188e-09 4.75525e-08 0)
(-5.48229e-09 4.68793e-08 0)
(-4.58539e-09 4.6315e-08 0)
(-3.48518e-09 4.58868e-08 0)
(-2.18681e-09 4.56019e-08 0)
(-7.4568e-10 4.53762e-08 0)
(7.4568e-10 4.53762e-08 0)
(2.18681e-09 4.56019e-08 0)
(3.48518e-09 4.58868e-08 0)
(4.58539e-09 4.6315e-08 0)
(5.48229e-09 4.68793e-08 0)
(6.20188e-09 4.75525e-08 0)
(6.78211e-09 4.83258e-08 0)
(7.25837e-09 4.91889e-08 0)
(7.83491e-09 5.13162e-08 0)
(8.53765e-09 5.39292e-08 0)
(9.26874e-09 5.69711e-08 0)
(1.00568e-08 6.05779e-08 0)
(1.09406e-08 6.47929e-08 0)
(1.20663e-08 6.9896e-08 0)
(1.33999e-08 7.62744e-08 0)
(1.49587e-08 8.41962e-08 0)
(1.68829e-08 9.43174e-08 0)
(1.93455e-08 1.0757e-07 0)
(2.2482e-08 1.25992e-07 0)
(2.71764e-08 1.52292e-07 0)
(3.52853e-08 1.94458e-07 0)
(5.06973e-08 2.75781e-07 0)
(8.74986e-08 5.20616e-07 0)
(3.83443e-07 1.49289e-06 0)
(2.38719e-06 9.89343e-06 0)
(1.09978e-05 2.64933e-05 0)
(2.12232e-05 1.84671e-05 0)
(2.05771e-05 4.0918e-06 0)
(1.46496e-05 2.1252e-06 0)
(1.14811e-05 1.38695e-06 0)
(9.3367e-06 1.01145e-06 0)
(7.70979e-06 7.96053e-07 0)
(6.39236e-06 6.61046e-07 0)
(5.27539e-06 5.71124e-07 0)
(4.2948e-06 5.08904e-07 0)
(3.40964e-06 4.65044e-07 0)
(2.59185e-06 4.34195e-07 0)
(1.82091e-06 4.13166e-07 0)
(1.08086e-06 4.00041e-07 0)
(3.58381e-07 3.93727e-07 0)
(-3.57393e-07 5.77223e-07 0)
(-1.07781e-06 5.86445e-07 0)
(-1.81557e-06 6.05611e-07 0)
(-2.58373e-06 6.36305e-07 0)
(-3.39795e-06 6.813e-07 0)
(-4.27821e-06 7.452e-07 0)
(-5.25161e-06 8.35701e-07 0)
(-6.35724e-06 9.66158e-07 0)
(-7.65517e-06 1.16123e-06 0)
(-9.24473e-06 1.47046e-06 0)
(-1.13063e-05 2.00527e-06 0)
(-1.42164e-05 3.06222e-06 0)
(-1.86478e-05 5.79285e-06 0)
(-1.86923e-05 1.6936e-05 0)
(-1.04471e-05 2.33125e-05 0)
(-2.40464e-06 1.79009e-05 0)
(-5.41333e-06 4.06178e-06 0)
(-5.64264e-06 1.83113e-05 0)
(-2.55142e-07 9.38902e-07 0)
(-7.77312e-08 4.42536e-07 0)
(-4.84648e-08 2.83744e-07 0)
(-3.71013e-08 2.17935e-07 0)
(-3.0822e-08 1.79384e-07 0)
(-2.63193e-08 1.54254e-07 0)
(-2.3039e-08 1.36111e-07 0)
(-2.04908e-08 1.22448e-07 0)
(-1.83512e-08 1.11627e-07 0)
(-1.65671e-08 1.03223e-07 0)
(-1.52223e-08 9.63379e-08 0)
(-1.40244e-08 9.04696e-08 0)
(-1.29287e-08 8.5606e-08 0)
(-1.19322e-08 8.14388e-08 0)
(-1.1131e-08 7.80372e-08 0)
(-1.04657e-08 7.66645e-08 0)
(-9.64991e-09 7.54479e-08 0)
(-8.61943e-09 7.43969e-08 0)
(-7.29281e-09 7.35196e-08 0)
(-5.60249e-09 7.28499e-08 0)
(-3.5434e-09 7.23954e-08 0)
(-1.21332e-09 7.20429e-08 0)
(1.21332e-09 7.20429e-08 0)
(3.5434e-09 7.23954e-08 0)
(5.60249e-09 7.28499e-08 0)
(7.29281e-09 7.35196e-08 0)
(8.61943e-09 7.43969e-08 0)
(9.64991e-09 7.54479e-08 0)
(1.04657e-08 7.66645e-08 0)
(1.1131e-08 7.80372e-08 0)
(1.19322e-08 8.14388e-08 0)
(1.29287e-08 8.5606e-08 0)
(1.40244e-08 9.04696e-08 0)
(1.52223e-08 9.63379e-08 0)
(1.65671e-08 1.03223e-07 0)
(1.83512e-08 1.11627e-07 0)
(2.04908e-08 1.22448e-07 0)
(2.3039e-08 1.36111e-07 0)
(2.63193e-08 1.54254e-07 0)
(3.0822e-08 1.79384e-07 0)
(3.71013e-08 2.17935e-07 0)
(4.84648e-08 2.83744e-07 0)
(7.77312e-08 4.42536e-07 0)
(2.55142e-07 9.38902e-07 0)
(5.64264e-06 1.83113e-05 0)
(5.41333e-06 4.06178e-06 0)
(2.40464e-06 1.79009e-05 0)
(1.04471e-05 2.33125e-05 0)
(1.86923e-05 1.6936e-05 0)
(1.86478e-05 5.79285e-06 0)
(1.42164e-05 3.06222e-06 0)
(1.13063e-05 2.00527e-06 0)
(9.24473e-06 1.47046e-06 0)
(7.65517e-06 1.16123e-06 0)
(6.35724e-06 9.66158e-07 0)
(5.25161e-06 8.35701e-07 0)
(4.27821e-06 7.452e-07 0)
(3.39795e-06 6.813e-07 0)
(2.58373e-06 6.36305e-07 0)
(1.81557e-06 6.05611e-07 0)
(1.07781e-06 5.86445e-07 0)
(3.57393e-07 5.77223e-07 0)
(-3.55884e-07 7.77777e-07 0)
(-1.07317e-06 7.90133e-07 0)
(-1.80741e-06 8.15803e-07 0)
(-2.57135e-06 8.56885e-07 0)
(-3.38015e-06 9.17042e-07 0)
(-4.25298e-06 1.00233e-06 0)
(-5.21556e-06 1.12282e-06 0)
(-6.30422e-06 1.29585e-06 0)
(-7.57327e-06 1.55299e-06 0)
(-9.10826e-06 1.9566e-06 0)
(-1.10505e-05 2.64343e-06 0)
(-1.36265e-05 3.96241e-06 0)
(-1.68626e-05 7.03325e-06 0)
(-1.65417e-05 1.56132e-05 0)
(-1.03038e-05 2.05887e-05 0)
(-4.6876e-06 1.68154e-05 0)
(-1.10348e-05 7.86779e-06 0)
(-5.54236e-06 3.1919e-05 0)
(3.301e-07 5.95649e-06 0)
(-3.70629e-06 1.17935e-05 0)
(-2.06998e-07 8.61218e-07 0)
(-7.58549e-08 4.52168e-07 0)
(-5.14812e-08 3.03688e-07 0)
(-4.03729e-08 2.41929e-07 0)
(-3.39766e-08 2.05787e-07 0)
(-2.96108e-08 1.81631e-07 0)
(-2.6178e-08 1.63584e-07 0)
(-2.3411e-08 1.50391e-07 0)
(-2.14766e-08 1.39821e-07 0)
(-1.97564e-08 1.30917e-07 0)
(-1.82169e-08 1.23769e-07 0)
(-1.69502e-08 1.1769e-07 0)
(-1.59695e-08 1.12717e-07 0)
(-1.51468e-08 1.10733e-07 0)
(-1.4134e-08 1.09003e-07 0)
(-1.28211e-08 1.07515e-07 0)
(-1.10371e-08 1.06255e-07 0)
(-8.61575e-09 1.05258e-07 0)
(-5.51373e-09 1.04552e-07 0)
(-1.89958e-09 1.04025e-07 0)
(1.89958e-09 1.04025e-07 0)
(5.51373e-09 1.04552e-07 0)
(8.61575e-09 1.05258e-07 0)
(1.10371e-08 1.06255e-07 0)
(1.28211e-08 1.07515e-07 0)
(1.4134e-08 1.09003e-07 0)
(1.51468e-08 1.10733e-07 0)
(1.59695e-08 1.12717e-07 0)
(1.69502e-08 1.1769e-07 0)
(1.82169e-08 1.23769e-07 0)
(1.97564e-08 1.30917e-07 0)
(2.14766e-08 1.39821e-07 0)
(2.3411e-08 1.50391e-07 0)
(2.6178e-08 1.63584e-07 0)
(2.96108e-08 1.81631e-07 0)
(3.39766e-08 2.05787e-07 0)
(4.03729e-08 2.41929e-07 0)
(5.14812e-08 3.03688e-07 0)
(7.58549e-08 4.52168e-07 0)
(2.06998e-07 8.61218e-07 0)
(3.70629e-06 1.17935e-05 0)
(-3.301e-07 5.95649e-06 0)
(5.54236e-06 3.1919e-05 0)
(1.10348e-05 7.86779e-06 0)
(4.6876e-06 1.68154e-05 0)
(1.03038e-05 2.05887e-05 0)
(1.65417e-05 1.56132e-05 0)
(1.68626e-05 7.03325e-06 0)
(1.36265e-05 3.96241e-06 0)
(1.10505e-05 2.64343e-06 0)
(9.10826e-06 1.9566e-06 0)
(7.57327e-06 1.55299e-06 0)
(6.30422e-06 1.29585e-06 0)
(5.21556e-06 1.12282e-06 0)
(4.25298e-06 1.00233e-06 0)
(3.38015e-06 9.17042e-07 0)
(2.57135e-06 8.56885e-07 0)
(1.80741e-06 8.15803e-07 0)
(1.07317e-06 7.90133e-07 0)
(3.55884e-07 7.77777e-07 0)
(-3.53728e-07 9.9661e-07 0)
(-1.06653e-06 1.01232e-06 0)
(-1.79577e-06 1.04493e-06 0)
(-2.5537e-06 1.09706e-06 0)
(-3.35481e-06 1.17329e-06 0)
(-4.21718e-06 1.28112e-06 0)
(-5.16457e-06 1.43291e-06 0)
(-6.2297e-06 1.64972e-06 0)
(-7.4593e-06 1.96922e-06 0)
(-8.92162e-06 2.4638e-06 0)
(-1.07124e-05 3.28544e-06 0)
(-1.29196e-05 4.79042e-06 0)
(-1.52272e-05 7.90188e-06 0)
(-1.47197e-05 1.44864e-05 0)
(-1.00902e-05 1.83866e-05 0)
(-6.1066e-06 1.60799e-05 0)
(-9.2428e-06 1.14825e-05 0)
(-5.44967e-06 2.54646e-05 0)
(-2.2429e-06 1.19236e-05 0)
(-1.4669e-06 2.12001e-05 0)
(-3.39984e-06 5.20698e-06 0)
(-5.5952e-06 1.61958e-05 0)
(-2.59422e-07 9.24275e-07 0)
(-8.87077e-08 5.23599e-07 0)
(-5.591e-08 3.3823e-07 0)
(-4.38548e-08 2.71073e-07 0)
(-3.69117e-08 2.33363e-07 0)
(-3.20795e-08 2.10268e-07 0)
(-2.91936e-08 1.9329e-07 0)
(-2.66963e-08 1.7964e-07 0)
(-2.45537e-08 1.69392e-07 0)
(-2.30917e-08 1.60859e-07 0)
(-2.20443e-08 1.53903e-07 0)
(-2.11462e-08 1.51193e-07 0)
(-2.00588e-08 1.48901e-07 0)
(-1.86066e-08 1.46925e-07 0)
(-1.64325e-08 1.45164e-07 0)
(-1.31315e-08 1.43636e-07 0)
(-8.54573e-09 1.42469e-07 0)
(-2.9694e-09 1.4165e-07 0)
(2.9694e-09 1.4165e-07 0)
(8.54573e-09 1.42469e-07 0)
(1.31315e-08 1.43636e-07 0)
(1.64325e-08 1.45164e-07 0)
(1.86066e-08 1.46925e-07 0)
(2.00588e-08 1.48901e-07 0)
(2.11462e-08 1.51193e-07 0)
(2.20443e-08 1.53903e-07 0)
(2.30917e-08 1.60859e-07 0)
(2.45537e-08 1.69392e-07 0)
(2.66963e-08 1.7964e-07 0)
(2.91936e-08 1.9329e-07 0)
(3.20795e-08 2.10268e-07 0)
(3.69117e-08 2.33363e-07 0)
(4.38548e-08 2.71073e-07 0)
(5.591e-08 3.3823e-07 0)
(8.87077e-08 5.23599e-07 0)
(2.59422e-07 9.24275e-07 0)
(5.5952e-06 1.61958e-05 0)
(3.39984e-06 5.20698e-06 0)
(1.4669e-06 2.12001e-05 0)
(2.2429e-06 1.19236e-05 0)
(5.44967e-06 2.54646e-05 0)
(9.2428e-06 1.14825e-05 0)
(6.1066e-06 1.60799e-05 0)
(1.00902e-05 1.83866e-05 0)
(1.47197e-05 1.44864e-05 0)
(1.52272e-05 7.90188e-06 0)
(1.29196e-05 4.79042e-06 0)
(1.07124e-05 3.28544e-06 0)
(8.92162e-06 2.4638e-06 0)
(7.4593e-06 1.96922e-06 0)
(6.2297e-06 1.64972e-06 0)
(5.16457e-06 1.43291e-06 0)
(4.21718e-06 1.28112e-06 0)
(3.35481e-06 1.17329e-06 0)
(2.5537e-06 1.09706e-06 0)
(1.79577e-06 1.04493e-06 0)
(1.06653e-06 1.01232e-06 0)
(3.53728e-07 9.9661e-07 0)
(-3.5078e-07 1.23489e-06 0)
(-1.05747e-06 1.25414e-06 0)
(-1.77987e-06 1.29407e-06 0)
(-2.52963e-06 1.35783e-06 0)
(-3.32034e-06 1.45086e-06 0)
(-4.16862e-06 1.58203e-06 0)
(-5.0958e-06 1.76583e-06 0)
(-6.13001e-06 2.0265e-06 0)
(-7.30891e-06 2.40642e-06 0)
(-8.68106e-06 2.98406e-06 0)
(-1.02961e-05 3.91459e-06 0)
(-1.21332e-05 5.52362e-06 0)
(-1.37409e-05 8.48226e-06 0)
(-1.31712e-05 1.35406e-05 0)
(-9.78541e-06 1.66403e-05 0)
(-6.88581e-06 1.55146e-05 0)
(-8.03361e-06 1.3466e-05 0)
(-5.34305e-06 2.1305e-05 0)
(-2.83155e-06 1.41597e-05 0)
(-2.18086e-06 1.84834e-05 0)
(-4.79441e-06 1.09436e-05 0)
(2.30277e-07 2.81003e-05 0)
(-4.15754e-07 5.36171e-06 0)
(-6.09468e-06 1.54463e-05 0)
(-4.7839e-07 1.28603e-06 0)
(-1.25929e-07 6.35209e-07 0)
(-6.542e-08 4.01011e-07 0)
(-4.72904e-08 3.1128e-07 0)
(-4.03728e-08 2.68459e-07 0)
(-3.5741e-08 2.41755e-07 0)
(-3.23333e-08 2.25214e-07 0)
(-3.07217e-08 2.1261e-07 0)
(-2.97822e-08 2.02742e-07 0)
(-2.89324e-08 1.99094e-07 0)
(-2.80333e-08 1.96234e-07 0)
(-2.68497e-08 1.9375e-07 0)
(-2.4628e-08 1.91245e-07 0)
(-2.03598e-08 1.88653e-07 0)
(-1.35578e-08 1.86483e-07 0)
(-4.76451e-09 1.85058e-07 0)
(4.76451e-09 1.85058e-07 0)
(1.35578e-08 1.86483e-07 0)
(2.03598e-08 1.88653e-07 0)
(2.4628e-08 1.91245e-07 0)
(2.68497e-08 1.9375e-07 0)
(2.80333e-08 1.96234e-07 0)
(2.89324e-08 1.99094e-07 0)
(2.97822e-08 2.02742e-07 0)
(3.07217e-08 2.1261e-07 0)
(3.23333e-08 2.25214e-07 0)
(3.5741e-08 2.41755e-07 0)
(4.03728e-08 2.68459e-07 0)
(4.72904e-08 3.1128e-07 0)
(6.542e-08 4.01011e-07 0)
(1.25929e-07 6.35209e-07 0)
(4.7839e-07 1.28603e-06 0)
(6.09468e-06 1.54463e-05 0)
(4.15754e-07 5.36171e-06 0)
(-2.30277e-07 2.81003e-05 0)
(4.79441e-06 1.09436e-05 0)
(2.18086e-06 1.84834e-05 0)
(2.83155e-06 1.41597e-05 0)
(5.34305e-06 2.1305e-05 0)
(8.03361e-06 1.3466e-05 0)
(6.88581e-06 1.55146e-05 0)
(9.78541e-06 1.66403e-05 0)
(1.31712e-05 1.35406e-05 0)
(1.37409e-05 8.48226e-06 0)
(1.21332e-05 5.52362e-06 0)
(1.02961e-05 3.91459e-06 0)
(8.68106e-06 2.98406e-06 0)
(7.30891e-06 2.40642e-06 0)
(6.13001e-06 2.0265e-06 0)
(5.0958e-06 1.76583e-06 0)
(4.16862e-06 1.58203e-06 0)
(3.32034e-06 1.45086e-06 0)
(2.52963e-06 1.35783e-06 0)
(1.77987e-06 1.29407e-06 0)
(1.05747e-06 1.25414e-06 0)
(3.5078e-07 1.23489e-06 0)
(-3.46873e-07 1.49369e-06 0)
(-1.04545e-06 1.51662e-06 0)
(-1.75883e-06 1.56417e-06 0)
(-2.49786e-06 1.63996e-06 0)
(-3.27496e-06 1.75023e-06 0)
(-4.10501e-06 1.90509e-06 0)
(-5.00631e-06 2.12078e-06 0)
(-6.00166e-06 2.42394e-06 0)
(-7.11857e-06 2.85976e-06 0)
(-8.38532e-06 3.50807e-06 0)
(-9.8104e-06 4.51536e-06 0)
(-1.13009e-05 6.15159e-06 0)
(-1.23965e-05 8.84856e-06 0)
(-1.18426e-05 1.27577e-05 0)
(-9.38727e-06 1.52718e-05 0)
(-7.20898e-06 1.50113e-05 0)
(-7.21138e-06 1.43764e-05 0)
(-5.2026e-06 1.86625e-05 0)
(-3.23283e-06 1.51486e-05 0)
(-2.56318e-06 1.70042e-05 0)
(-3.51177e-06 1.3716e-05 0)
(-4.30914e-07 2.23537e-05 0)
(-2.28401e-07 1.12682e-05 0)
(4.25955e-06 2.63914e-05 0)
(5.90988e-06 5.25064e-06 0)
(-3.57888e-06 7.8908e-06 0)
(-2.72179e-06 6.49619e-06 0)
(-2.56478e-07 9.37504e-07 0)
(-9.88075e-08 5.57735e-07 0)
(-5.86676e-08 3.83046e-07 0)
(-4.52233e-08 3.14573e-07 0)
(-4.15719e-08 2.82282e-07 0)
(-4.03921e-08 2.63611e-07 0)
(-3.94316e-08 2.57538e-07 0)
(-3.90543e-08 2.53665e-07 0)
(-3.91048e-08 2.50446e-07 0)
(-3.79525e-08 2.46519e-07 0)
(-3.29336e-08 2.41277e-07 0)
(-2.25906e-08 2.36638e-07 0)
(-8.05021e-09 2.33768e-07 0)
(8.05021e-09 2.33768e-07 0)
(2.25906e-08 2.36638e-07 0)
(3.29336e-08 2.41277e-07 0)
(3.79525e-08 2.46519e-07 0)
(3.91048e-08 2.50446e-07 0)
(3.90543e-08 2.53665e-07 0)
(3.94316e-08 2.57538e-07 0)
(4.03921e-08 2.63611e-07 0)
(4.15719e-08 2.82282e-07 0)
(4.52233e-08 3.14573e-07 0)
(5.86676e-08 3.83046e-07 0)
(9.88075e-08 5.57735e-07 0)
(2.56478e-07 9.37504e-07 0)
(2.72179e-06 6.49619e-06 0)
(3.57888e-06 7.8908e-06 0)
(-5.90988e-06 5.25064e-06 0)
(-4.25955e-06 2.63914e-05 0)
(2.28401e-07 1.12682e-05 0)
(4.30914e-07 2.23537e-05 0)
(3.51177e-06 1.3716e-05 0)
(2.56318e-06 1.70042e-05 0)
(3.23283e-06 1.51486e-05 0)
(5.2026e-06 1.86625e-05 0)
(7.21138e-06 1.43764e-05 0)
(7.20898e-06 1.50113e-05 0)
(9.38727e-06 1.52718e-05 0)
(1.18426e-05 1.27577e-05 0)
(1.23965e-05 8.84856e-06 0)
(1.13009e-05 6.15159e-06 0)
(9.8104e-06 4.51536e-06 0)
(8.38532e-06 3.50807e-06 0)
(7.11857e-06 2.85976e-06 0)
(6.00166e-06 2.42394e-06 0)
(5.00631e-06 2.12078e-06 0)
(4.10501e-06 1.90509e-06 0)
(3.27496e-06 1.75023e-06 0)
(2.49786e-06 1.63996e-06 0)
(1.75883e-06 1.56417e-06 0)
(1.04545e-06 1.51662e-06 0)
(3.46873e-07 1.49369e-06 0)
(-3.41823e-07 1.77387e-06 0)
(-1.02994e-06 1.80059e-06 0)
(-1.73171e-06 1.85591e-06 0)
(-2.45699e-06 1.94389e-06 0)
(-3.21683e-06 2.07146e-06 0)
(-4.02398e-06 2.24971e-06 0)
(-4.8933e-06 2.49614e-06 0)
(-5.84169e-06 2.83874e-06 0)
(-6.88613e-06 3.32321e-06 0)
(-8.03592e-06 4.02589e-06 0)
(-9.26732e-06 5.07502e-06 0)
(-1.04503e-05 6.67418e-06 0)
(-1.11825e-05 9.06303e-06 0)
(-1.06858e-05 1.21167e-05 0)
(-8.90681e-06 1.42023e-05 0)
(-7.21894e-06 1.45166e-05 0)
(-6.62726e-06 1.46201e-05 0)
(-5.04238e-06 1.69643e-05 0)
(-3.46758e-06 1.54117e-05 0)
(-2.72688e-06 1.61658e-05 0)
(-2.7415e-06 1.49288e-05 0)
(-7.01641e-07 1.90765e-05 0)
(2.5471e-07 1.40597e-05 0)
(3.25919e-06 2.05786e-05 0)
(4.64113e-06 9.83446e-06 0)
(2.7613e-06 1.41635e-05 0)
(5.27208e-06 1.20703e-05 0)
(1.21357e-07 4.08387e-06 0)
(-4.92504e-06 8.47196e-06 0)
(-2.13537e-06 4.62097e-06 0)
(-2.55815e-07 8.91329e-07 0)
(-1.10525e-07 5.53815e-07 0)
(-7.70119e-08 4.2748e-07 0)
(-6.40858e-08 3.77921e-07 0)
(-5.91488e-08 3.49184e-07 0)
(-6.02903e-08 3.32245e-07 0)
(-6.26065e-08 3.19406e-07 0)
(-5.7694e-08 3.04436e-07 0)
(-4.07929e-08 2.92586e-07 0)
(-1.47544e-08 2.85825e-07 0)
(1.47544e-08 2.85825e-07 0)
(4.07929e-08 2.92586e-07 0)
(5.7694e-08 3.04436e-07 0)
(6.26065e-08 3.19406e-07 0)
(6.02903e-08 3.32245e-07 0)
(5.91488e-08 3.49184e-07 0)
(6.40858e-08 3.77921e-07 0)
(7.70119e-08 4.2748e-07 0)
(1.10525e-07 5.53815e-07 0)
(2.55815e-07 8.91329e-07 0)
(2.13537e-06 4.62097e-06 0)
(4.92504e-06 8.47196e-06 0)
(-1.21357e-07 4.08387e-06 0)
(-5.27208e-06 1.20703e-05 0)
(-2.7613e-06 1.41635e-05 0)
(-4.64113e-06 9.83446e-06 0)
(-3.25919e-06 2.05786e-05 0)
(-2.5471e-07 1.40597e-05 0)
(7.01641e-07 1.90765e-05 0)
(2.7415e-06 1.49288e-05 0)
(2.72688e-06 1.61658e-05 0)
(3.46758e-06 1.54117e-05 0)
(5.04238e-06 1.69643e-05 0)
(6.62726e-06 1.46201e-05 0)
(7.21894e-06 1.45166e-05 0)
(8.90681e-06 1.42023e-05 0)
(1.06858e-05 1.21167e-05 0)
(1.11825e-05 9.06303e-06 0)
(1.04503e-05 6.67418e-06 0)
(9.26732e-06 5.07502e-06 0)
(8.03592e-06 4.02589e-06 0)
(6.88613e-06 3.32321e-06 0)
(5.84169e-06 2.83874e-06 0)
(4.8933e-06 2.49614e-06 0)
(4.02398e-06 2.24971e-06 0)
(3.21683e-06 2.07146e-06 0)
(2.45699e-06 1.94389e-06 0)
(1.73171e-06 1.85591e-06 0)
(1.02994e-06 1.80059e-06 0)
(3.41823e-07 1.77387e-06 0)
(-3.35434e-07 2.07605e-06 0)
(-1.01034e-06 2.10656e-06 0)
(-1.69749e-06 2.16963e-06 0)
(-2.4056e-06 2.26965e-06 0)
(-3.14408e-06 2.41408e-06 0)
(-3.92329e-06 2.61463e-06 0)
(-4.75432e-06 2.88944e-06 0)
(-5.64797e-06 3.26656e-06 0)
(-6.61116e-06 3.78987e-06 0)
(-7.63718e-06 4.52791e-06 0)
(-8.68085e-06 5.58467e-06 0)
(-9.60307e-06 7.09887e-06 0)
(-1.00846e-05 9.17497e-06 0)
(-9.66058e-06 1.15952e-05 0)
(-8.36252e-06 1.33602e-05 0)
(-7.02153e-06 1.40139e-05 0)
(-6.17535e-06 1.44757e-05 0)
(-4.86474e-06 1.58218e-05 0)
(-3.56654e-06 1.52775e-05 0)
(-2.76288e-06 1.56094e-05 0)
(-2.28711e-06 1.52693e-05 0)
(-7.92658e-07 1.71696e-05 0)
(3.95348e-07 1.50046e-05 0)
(2.47035e-06 1.73855e-05 0)
(3.5193e-06 1.19493e-05 0)
(2.84309e-06 1.31648e-05 0)
(3.75046e-06 1.15763e-05 0)
(1.30515e-06 7.91282e-06 0)
(1.94909e-06 1.46001e-05 0)
(4.79019e-06 8.96867e-06 0)
(-5.13368e-08 3.45503e-06 0)
(-1.08553e-05 5.46328e-06 0)
(-9.53859e-06 1.3052e-05 0)
(-1.22836e-06 1.44468e-06 0)
(-5.05288e-07 8.72263e-07 0)
(-2.91105e-07 6.51647e-07 0)
(-1.93857e-07 5.28362e-07 0)
(-1.33557e-07 4.16254e-07 0)
(-8.63013e-08 3.58256e-07 0)
(-3.12314e-08 3.37269e-07 0)
(3.12314e-08 3.37269e-07 0)
(8.63013e-08 3.58256e-07 0)
(1.33557e-07 4.16254e-07 0)
(1.93857e-07 5.28362e-07 0)
(2.91105e-07 6.51647e-07 0)
(5.05288e-07 8.72263e-07 0)
(1.22836e-06 1.44468e-06 0)
(9.53859e-06 1.3052e-05 0)
(1.08553e-05 5.46328e-06 0)
(5.13368e-08 3.45503e-06 0)
(-4.79019e-06 8.96867e-06 0)
(-1.94909e-06 1.46001e-05 0)
(-1.30515e-06 7.91282e-06 0)
(-3.75046e-06 1.15763e-05 0)
(-2.84309e-06 1.31648e-05 0)
(-3.5193e-06 1.19493e-05 0)
(-2.47035e-06 1.73855e-05 0)
(-3.95348e-07 1.50046e-05 0)
(7.92658e-07 1.71696e-05 0)
(2.28711e-06 1.52693e-05 0)
(2.76288e-06 1.56094e-05 0)
(3.56654e-06 1.52775e-05 0)
(4.86474e-06 1.58218e-05 0)
(6.17535e-06 1.44757e-05 0)
(7.02153e-06 1.40139e-05 0)
(8.36252e-06 1.33602e-05 0)
(9.66058e-06 1.15952e-05 0)
(1.00846e-05 9.17497e-06 0)
(9.60307e-06 7.09887e-06 0)
(8.68085e-06 5.58467e-06 0)
(7.63718e-06 4.52791e-06 0)
(6.61116e-06 3.78987e-06 0)
(5.64797e-06 3.26656e-06 0)
(4.75432e-06 2.88944e-06 0)
(3.92329e-06 2.61463e-06 0)
(3.14408e-06 2.41408e-06 0)
(2.4056e-06 2.26965e-06 0)
(1.69749e-06 2.16963e-06 0)
(1.01034e-06 2.10656e-06 0)
(3.35434e-07 2.07605e-06 0)
(-3.27505e-07 2.40045e-06 0)
(-9.86028e-07 2.43464e-06 0)
(-1.65518e-06 2.50519e-06 0)
(-2.34228e-06 2.61671e-06 0)
(-3.05497e-06 2.77693e-06 0)
(-3.801e-06 2.99778e-06 0)
(-4.58758e-06 3.29726e-06 0)
(-5.4196e-06 3.70223e-06 0)
(-6.2952e-06 4.25249e-06 0)
(-7.19579e-06 5.00572e-06 0)
(-8.06537e-06 6.03964e-06 0)
(-8.77455e-06 7.43781e-06 0)
(-9.08744e-06 9.22116e-06 0)
(-8.73597e-06 1.1171e-05 0)
(-7.77534e-06 1.26862e-05 0)
(-6.69188e-06 1.35067e-05 0)
(-5.78586e-06 1.41237e-05 0)
(-4.66705e-06 1.49888e-05 0)
(-3.56202e-06 1.49383e-05 0)
(-2.72739e-06 1.51458e-05 0)
(-2.02162e-06 1.51492e-05 0)
(-8.22424e-07 1.59775e-05 0)
(3.46802e-07 1.5043e-05 0)
(1.83972e-06 1.56134e-05 0)
(2.68328e-06 1.27995e-05 0)
(2.57075e-06 1.2688e-05 0)
(2.84807e-06 1.14873e-05 0)
(1.6922e-06 9.73582e-06 0)
(1.95639e-06 1.2341e-05 0)
(2.94016e-06 9.39705e-06 0)
(1.87771e-07 6.69739e-06 0)
(-2.52667e-06 1.03359e-05 0)
(2.23772e-06 1.96213e-05 0)
(4.59308e-06 5.6348e-06 0)
(-9.76597e-07 4.53913e-06 0)
(-7.4826e-06 5.39073e-06 0)
(-6.46665e-06 5.1976e-06 0)
(-1.09111e-06 9.9619e-07 0)
(-3.2311e-07 4.42227e-07 0)
(-9.59716e-08 3.73031e-07 0)
(9.59716e-08 3.73031e-07 0)
(3.2311e-07 4.42227e-07 0)
(1.09111e-06 9.9619e-07 0)
(6.46665e-06 5.1976e-06 0)
(7.4826e-06 5.39073e-06 0)
(9.76597e-07 4.53913e-06 0)
(-4.59308e-06 5.6348e-06 0)
(-2.23772e-06 1.96213e-05 0)
(2.52667e-06 1.03359e-05 0)
(-1.87771e-07 6.69739e-06 0)
(-2.94016e-06 9.39705e-06 0)
(-1.95639e-06 1.2341e-05 0)
(-1.6922e-06 9.73582e-06 0)
(-2.84807e-06 1.14873e-05 0)
(-2.57075e-06 1.2688e-05 0)
(-2.68328e-06 1.27995e-05 0)
(-1.83972e-06 1.56134e-05 0)
(-3.46802e-07 1.5043e-05 0)
(8.22424e-07 1.59775e-05 0)
(2.02162e-06 1.51492e-05 0)
(2.72739e-06 1.51458e-05 0)
(3.56202e-06 1.49383e-05 0)
(4.66705e-06 1.49888e-05 0)
(5.78586e-06 1.41237e-05 0)
(6.69188e-06 1.35067e-05 0)
(7.77534e-06 1.26862e-05 0)
(8.73597e-06 1.1171e-05 0)
(9.08744e-06 9.22116e-06 0)
(8.77455e-06 7.43781e-06 0)
(8.06537e-06 6.03964e-06 0)
(7.19579e-06 5.00572e-06 0)
(6.2952e-06 4.25249e-06 0)
(5.4196e-06 3.70223e-06 0)
(4.58758e-06 3.29726e-06 0)
(3.801e-06 2.99778e-06 0)
(3.05497e-06 2.77693e-06 0)
(2.34228e-06 2.61671e-06 0)
(1.65518e-06 2.50519e-06 0)
(9.86028e-07 2.43464e-06 0)
(3.27505e-07 2.40045e-06 0)
(-3.17841e-07 2.74676e-06 0)
(-9.56445e-07 2.78439e-06 0)
(-1.60382e-06 2.86187e-06 0)
(-2.2658e-06 2.98387e-06 0)
(-2.94807e-06 3.15811e-06 0)
(-3.65571e-06 3.39627e-06 0)
(-4.39218e-06 3.71542e-06 0)
(-5.15712e-06 4.13998e-06 0)
(-5.94177e-06 4.70404e-06 0)
(-6.72021e-06 5.4528e-06 0)
(-7.43441e-06 6.4392e-06 0)
(-7.97481e-06 7.7051e-06 0)
(-8.17644e-06 9.22742e-06 0)
(-7.88938e-06 1.08235e-05 0)
(-7.1651e-06 1.21348e-05 0)
(-6.2815e-06 1.30067e-05 0)
(-5.41719e-06 1.3674e-05 0)
(-4.44644e-06 1.432e-05 0)
(-3.48267e-06 1.44996e-05 0)
(-2.65303e-06 1.46909e-05 0)
(-1.86615e-06 1.48006e-05 0)
(-8.46829e-07 1.51393e-05 0)
(2.04522e-07 1.46917e-05 0)
(1.32664e-06 1.45696e-05 0)
(2.02929e-06 1.30164e-05 0)
(2.16481e-06 1.24526e-05 0)
(2.2525e-06 1.15314e-05 0)
(1.72613e-06 1.05794e-05 0)
(1.76647e-06 1.13394e-05 0)
(1.93867e-06 9.79802e-06 0)
(4.34632e-07 8.55118e-06 0)
(-6.4207e-07 1.04773e-05 0)
(4.85159e-07 1.23874e-05 0)
(9.99207e-07 9.50448e-06 0)
(-3.46207e-07 8.78897e-06 0)
(-1.36657e-06 1.01085e-05 0)
(-2.04351e-06 1.03104e-05 0)
(-2.03716e-06 2.50118e-06 0)
(-1.01467e-06 7.71712e-07 0)
(-2.39822e-07 3.71723e-07 0)
(2.39822e-07 3.71723e-07 0)
(1.01467e-06 7.71712e-07 0)
(2.03716e-06 2.50118e-06 0)
(2.04351e-06 1.03104e-05 0)
(1.36657e-06 1.01085e-05 0)
(3.46207e-07 8.78897e-06 0)
(-9.99207e-07 9.50448e-06 0)
(-4.85159e-07 1.23874e-05 0)
(6.4207e-07 1.04773e-05 0)
(-4.34632e-07 8.55118e-06 0)
(-1.93867e-06 9.79802e-06 0)
(-1.76647e-06 1.13394e-05 0)
(-1.72613e-06 1.05794e-05 0)
(-2.2525e-06 1.15314e-05 0)
(-2.16481e-06 1.24526e-05 0)
(-2.02929e-06 1.30164e-05 0)
(-1.32664e-06 1.45696e-05 0)
(-2.04522e-07 1.46917e-05 0)
(8.46829e-07 1.51393e-05 0)
(1.86615e-06 1.48006e-05 0)
(2.65303e-06 1.46909e-05 0)
(3.48267e-06 1.44996e-05 0)
(4.44644e-06 1.432e-05 0)
(5.41719e-06 1.3674e-05 0)
(6.2815e-06 1.30067e-05 0)
(7.1651e-06 1.21348e-05 0)
(7.88938e-06 1.08235e-05 0)
(8.17644e-06 9.22742e-06 0)
(7.97481e-06 7.7051e-06 0)
(7.43441e-06 6.4392e-06 0)
(6.72021e-06 5.4528e-06 0)
(5.94177e-06 4.70404e-06 0)
(5.15712e-06 4.13998e-06 0)
(4.39218e-06 3.71542e-06 0)
(3.65571e-06 3.39627e-06 0)
(2.94807e-06 3.15811e-06 0)
(2.2658e-06 2.98387e-06 0)
(1.60382e-06 2.86187e-06 0)
(9.56445e-07 2.78439e-06 0)
(3.17841e-07 2.74676e-06 0)
(-3.06275e-07 3.11405e-06 0)
(-9.21094e-07 3.15472e-06 0)
(-1.54266e-06 3.23824e-06 0)
(-2.1752e-06 3.36917e-06 0)
(-2.82242e-06 3.55492e-06 0)
(-3.48681e-06 3.80641e-06 0)
(-4.16845e-06 4.13906e-06 0)
(-4.86272e-06 4.57389e-06 0)
(-5.55617e-06 5.13825e-06 0)
(-6.21983e-06 5.86487e-06 0)
(-6.79986e-06 6.78578e-06 0)
(-7.20973e-06 7.91467e-06 0)
(-7.33894e-06 9.21074e-06 0)
(-7.1055e-06 1.0535e-05 0)
(-6.54849e-06 1.16731e-05 0)
(-5.82501e-06 1.25262e-05 0)
(-5.04805e-06 1.31902e-05 0)
(-4.20215e-06 1.37372e-05 0)
(-3.35126e-06 1.40166e-05 0)
(-2.55733e-06 1.42185e-05 0)
(-1.77254e-06 1.43472e-05 0)
(-8.84195e-07 1.44726e-05 0)
(2.5048e-08 1.42075e-05 0)
(9.02688e-07 1.38826e-05 0)
(1.49964e-06 1.29409e-05 0)
(1.73538e-06 1.23068e-05 0)
(1.80247e-06 1.15866e-05 0)
(1.57582e-06 1.09596e-05 0)
(1.51452e-06 1.09744e-05 0)
(1.39487e-06 1.01401e-05 0)
(5.63991e-07 9.56607e-06 0)
(-1.69463e-08 1.04253e-05 0)
(1.44565e-07 1.08556e-05 0)
(1.72287e-07 1.0348e-05 0)
(-2.18237e-07 1.01876e-05 0)
(-6.34419e-07 1.05767e-05 0)
(-8.90316e-07 1.10547e-05 0)
(-9.12822e-07 3.45851e-06 0)
(-6.13165e-07 8.15975e-07 0)
(-1.93869e-07 2.7483e-07 0)
(1.93869e-07 2.7483e-07 0)
(6.13165e-07 8.15975e-07 0)
(9.12822e-07 3.45851e-06 0)
(8.90316e-07 1.10547e-05 0)
(6.34419e-07 1.05767e-05 0)
(2.18237e-07 1.01876e-05 0)
(-1.72287e-07 1.0348e-05 0)
(-1.44565e-07 1.08556e-05 0)
(1.69463e-08 1.04253e-05 0)
(-5.63991e-07 9.56607e-06 0)
(-1.39487e-06 1.01401e-05 0)
(-1.51452e-06 1.09744e-05 0)
(-1.57582e-06 1.09596e-05 0)
(-1.80247e-06 1.15866e-05 0)
(-1.73538e-06 1.23068e-05 0)
(-1.49964e-06 1.29409e-05 0)
(-9.02688e-07 1.38826e-05 0)
(-2.5048e-08 1.42075e-05 0)
(8.84195e-07 1.44726e-05 0)
(1.77254e-06 1.43472e-05 0)
(2.55733e-06 1.42185e-05 0)
(3.35126e-06 1.40166e-05 0)
(4.20215e-06 1.37372e-05 0)
(5.04805e-06 1.31902e-05 0)
(5.82501e-06 1.25262e-05 0)
(6.54849e-06 1.16731e-05 0)
(7.1055e-06 1.0535e-05 0)
(7.33894e-06 9.21074e-06 0)
(7.20973e-06 7.91467e-06 0)
(6.79986e-06 6.78578e-06 0)
(6.21983e-06 5.86487e-06 0)
(5.55617e-06 5.13825e-06 0)
(4.86272e-06 4.57389e-06 0)
(4.16845e-06 4.13906e-06 0)
(3.48681e-06 3.80641e-06 0)
(2.82242e-06 3.55492e-06 0)
(2.1752e-06 3.36917e-06 0)