/*--------------------------------*- C++ -*----------------------------------*\
  =========                 |
  \\      /  F ield         | OpenFOAM: The Open Source CFD Toolbox
   \\    /   O peration     | Website:  https://openfoam.org
    \\  /    A nd           | Version:  10
     \\/     M anipulation  |
\*---------------------------------------------------------------------------*/
FoamFile
{
    format      ascii;
    class       volScalarField;
    location    "16300";
    object      p;
}
// * * * * * * * * * * * * * * * * * * * * * * * * * * * * * * * * * * * * * //

dimensions      [1 -1 -2 0 0 0 0];

internalField   nonuniform List<scalar> 
6400
(
111.469
111.489
111.529
111.59
111.675
111.784
111.921
112.091
112.302
112.568
112.907
114.146
345.607
564.7
751.799
986.204
1216.74
1428.27
1633.8
1830.71
2023.14
2209.01
2393.57
2584.03
2775.07
2963.87
3147.78
3327.89
3504.76
3677.52
3846.35
4010.39
4122.42
4188.19
4249.63
4305.25
4353.25
4391.66
4418.57
4432.45
4432.45
4418.57
4391.66
4353.25
4305.25
4249.63
4188.19
4122.42
4010.39
3846.35
3677.52
3504.76
3327.89
3147.78
2963.87
2775.07
2584.03
2393.57
2209.01
2023.14
1830.71
1633.8
1428.27
1216.74
986.204
751.799
564.7
345.607
114.146
112.907
112.568
112.302
112.091
111.921
111.784
111.675
111.59
111.529
111.489
111.469
111.174
111.194
111.234
111.295
111.379
111.488
111.625
111.795
112.006
112.271
112.617
113.252
113.571
272.28
455.627
692.298
923.545
1134.5
1340.16
1536.89
1729.43
1915.06
2099.31
2290
2481.17
2670.09
2853.95
3034.04
3210.95
3383.7
3552.57
3716.79
3829.14
3895.17
3956.95
4012.97
4061.41
4100.25
4127.5
4141.57
4141.57
4127.5
4100.25
4061.41
4012.97
3956.95
3895.17
3829.14
3716.79
3552.57
3383.7
3210.95
3034.04
2853.95
2670.09
2481.17
2290
2099.31
1915.06
1729.43
1536.89
1340.16
1134.5
923.545
692.298
455.627
272.28
113.571
113.252
112.617
112.271
112.006
111.795
111.625
111.488
111.379
111.295
111.234
111.194
111.174
110.849
110.869
110.909
110.971
111.055
111.163
111.3
111.469
111.678
111.941
112.284
112.823
113.097
113.248
127.449
370.063
603.012
812.514
1018.53
1214.82
1407.61
1592.7
1776.2
1967.46
2158.92
2348.12
2531.86
2711.9
2888.91
3061.63
3230.59
3395.23
3508.3
3574.94
3637.49
3694.45
3743.94
3783.78
3811.84
3826.37
3826.37
3811.84
3783.78
3743.94
3694.45
3637.49
3574.94
3508.3
3395.23
3230.59
3061.63
2888.91
2711.9
2531.86
2348.12
2158.92
1967.46
1776.2
1592.7
1407.61
1214.82
1018.53
812.514
603.012
370.063
127.449
113.248
113.097
112.823
112.284
111.941
111.678
111.469
111.3
111.163
111.055
110.971
110.909
110.869
110.849
110.492
110.512
110.552
110.613
110.697
110.805
110.94
111.108
111.315
111.573
111.906
112.368
112.65
112.861
113.492
113.352
254.135
459.492
666.339
861.73
1055.11
1239.19
1421.26
1613.65
1805.59
1995.31
2178.82
2358.75
2535.95
2708.62
2877.71
3043.07
3157.38
3225.05
3288.95
3347.58
3398.92
3440.57
3470.1
3485.45
3485.45
3470.1
3440.57
3398.92
3347.58
3288.95
3225.05
3157.38
3043.07
2877.71
2708.62
2535.95
2358.75
2178.82
1995.31
1805.59
1613.65
1421.26
1239.19
1055.11
861.73
666.339
459.492
254.135
113.352
113.492
112.861
112.65
112.368
111.906
111.573
111.315
111.108
110.94
110.805
110.697
110.613
110.552
110.512
110.492
110.099
110.119
110.159
110.219
110.302
110.409
110.544
110.709
110.913
111.165
111.482
111.882
112.165
112.405
112.869
112.798
112.696
113.005
281.472
474.548
669.168
851.562
1031.11
1225.57
1418.19
1608.82
1791.86
1971.61
2149.17
2321.71
2490.96
2657.36
2773.55
2842.8
2908.79
2970.04
3024.37
3068.99
3100.94
3117.66
3117.66
3100.94
3068.99
3024.37
2970.04
2908.79
2842.8
2773.55
2657.36
2490.96
2321.71
2149.17
1971.61
1791.86
1608.82
1418.19
1225.57
1031.11
851.562
669.168
474.548
281.472
113.005
112.696
112.798
112.869
112.405
112.165
111.882
111.482
111.165
110.913
110.709
110.544
110.409
110.302
110.219
110.159
110.119
110.099
109.666
109.686
109.725
109.785
109.867
109.973
110.106
110.269
110.468
110.711
111.009
111.36
111.637
111.885
112.234
112.235
112.191
112.303
112.169
112.376
248.279
426.585
601.69
800.013
993.438
1185.59
1367.72
1547.18
1725.4
1897.63
2067.03
2234.85
2353.67
2425.14
2494.15
2559.31
2618.27
2667.57
2703.41
2722.35
2722.35
2703.41
2667.57
2618.27
2559.31
2494.15
2425.14
2353.67
2234.85
2067.03
1897.63
1725.4
1547.18
1367.72
1185.59
993.438
800.013
601.69
426.585
248.279
112.376
112.169
112.303
112.191
112.235
112.234
111.885
111.637
111.36
111.009
110.711
110.468
110.269
110.106
109.973
109.867
109.785
109.725
109.686
109.666
109.189
109.208
109.247
109.307
109.388
109.492
109.622
109.782
109.975
110.208
110.485
110.796
111.061
111.303
111.575
111.623
111.62
111.691
111.631
111.725
111.669
111.733
127.556
333.648
527.645
722.529
902.797
1081.78
1261.26
1432.81
1602.24
1771.82
1894.13
1968.52
2041.67
2112.51
2178.54
2235.17
2277.25
2299.81
2299.81
2277.25
2235.17
2178.54
2112.51
2041.67
1968.52
1894.13
1771.82
1602.24
1432.81
1261.26
1081.78
902.797
722.529
527.645
333.648
127.556
111.733
111.669
111.725
111.631
111.691
111.62
111.623
111.575
111.303
111.061
110.796
110.485
110.208
109.975
109.782
109.622
109.492
109.388
109.307
109.247
109.208
109.189
108.663
108.682
108.721
108.779
108.859
108.961
109.088
109.243
109.429
109.649
109.905
110.183
110.433
110.661
110.882
110.958
110.984
111.037
111.021
111.081
111.073
111.161
111.544
111.106
111.155
220.319
393.187
571.247
753.296
923.275
1092.44
1264.04
1390.78
1468.69
1547.13
1626
1702.97
1771.22
1823.57
1852.2
1852.2
1823.57
1771.22
1702.97
1626
1547.13
1468.69
1390.78
1264.04
1092.44
923.275
753.296
571.247
393.187
220.319
111.155
111.106
111.544
111.161
111.073
111.081
111.021
111.037
110.984
110.958
110.882
110.661
110.433
110.183
109.905
109.649
109.429
109.243
109.088
108.961
108.859
108.779
108.721
108.682
108.663
108.083
108.102
108.14
108.197
108.275
108.375
108.498
108.647
108.824
109.031
109.266
109.515
109.747
109.957
110.145
110.236
110.282
110.329
110.341
110.385
110.404
110.486
110.684
110.451
110.399
110.239
110.087
110.212
203.1
364.861
532.969
706.617
838.99
920.286
1004.72
1094.37
1189.04
1275.99
1346.1
1385.51
1385.51
1346.1
1275.99
1189.04
1094.37
1004.72
920.286
838.99
706.617
532.969
364.861
203.1
110.212
110.087
110.239
110.399
110.451
110.684
110.486
110.404
110.385
110.341
110.329
110.282
110.236
110.145
109.957
109.747
109.515
109.266
109.031
108.824
108.647
108.498
108.375
108.275
108.197
108.14
108.102
108.083
107.444
107.462
107.499
107.555
107.63
107.727
107.846
107.988
108.156
108.348
108.563
108.786
108.998
109.19
109.354
109.453
109.513
109.561
109.587
109.627
109.658
109.725
109.824
109.699
109.629
109.509
109.406
109.43
109.369
109.225
109.277
115.212
236.636
317.586
406.564
508.648
635.398
751.175
854.18
914.061
914.061
854.18
751.175
635.398
508.648
406.564
317.586
236.636
115.212
109.277
109.225
109.369
109.43
109.406
109.509
109.629
109.699
109.824
109.725
109.658
109.627
109.587
109.561
109.513
109.453
109.354
109.19
108.998
108.786
108.563
108.348
108.156
107.988
107.846
107.727
107.63
107.555
107.499
107.462
107.444
106.738
106.756
106.792
106.846
106.919
107.011
107.125
107.26
107.417
107.594
107.789
107.989
108.181
108.356
108.502
108.603
108.671
108.722
108.759
108.797
108.833
108.883
108.93
108.862
108.796
108.706
108.63
108.616
108.565
108.488
108.526
108.7
108.493
108.432
108.426
108.517
125.962
214.936
376.258
474.637
474.637
376.258
214.936
125.962
108.517
108.426
108.432
108.493
108.7
108.526
108.488
108.565
108.616
108.63
108.706
108.796
108.862
108.93
108.883
108.833
108.797
108.759
108.722
108.671
108.603
108.502
108.356
108.181
107.989
107.789
107.594
107.417
107.26
107.125
107.011
106.919
106.846
106.792
106.756
106.738
105.96
105.977
106.011
106.063
106.132
106.221
106.328
106.455
106.6
106.763
106.938
107.118
107.29
107.448
107.581
107.68
107.752
107.807
107.849
107.887
107.923
107.96
107.983
107.943
107.889
107.821
107.762
107.733
107.692
107.648
107.666
107.728
107.64
107.6
107.58
107.568
107.543
107.65
120.5
182.823
182.823
120.5
107.65
107.543
107.568
107.58
107.6
107.64
107.728
107.666
107.648
107.692
107.733
107.762
107.821
107.889
107.943
107.983
107.96
107.923
107.887
107.849
107.807
107.752
107.68
107.581
107.448
107.29
107.118
106.938
106.763
106.6
106.455
106.328
106.221
106.132
106.063
106.011
105.977
105.96
105.1
105.116
105.149
105.198
105.264
105.347
105.448
105.565
105.699
105.847
106.004
106.164
106.318
106.46
106.581
106.677
106.75
106.807
106.852
106.891
106.924
106.952
106.964
106.939
106.898
106.847
106.801
106.768
106.734
106.705
106.707
106.721
106.68
106.656
106.638
106.626
106.616
106.622
107.271
117.191
117.191
107.271
106.622
106.616
106.626
106.638
106.656
106.68
106.721
106.707
106.705
106.734
106.768
106.801
106.847
106.898
106.939
106.964
106.952
106.924
106.891
106.852
106.807
106.75
106.677
106.581
106.46
106.318
106.164
106.004
105.847
105.699
105.565
105.448
105.347
105.264
105.198
105.149
105.116
105.1
104.151
104.166
104.197
104.243
104.305
104.382
104.475
104.583
104.705
104.838
104.978
105.12
105.257
105.384
105.494
105.585
105.658
105.716
105.762
105.8
105.831
105.853
105.861
105.845
105.816
105.778
105.741
105.71
105.682
105.66
105.652
105.646
105.623
105.608
105.595
105.585
105.578
105.575
105.606
109.333
109.333
105.606
105.575
105.578
105.585
105.595
105.608
105.623
105.646
105.652
105.66
105.682
105.71
105.741
105.778
105.816
105.845
105.861
105.853
105.831
105.8
105.762
105.716
105.658
105.585
105.494
105.384
105.257
105.12
104.978
104.838
104.705
104.583
104.475
104.382
104.305
104.243
104.197
104.166
104.151
103.102
103.116
103.145
103.188
103.245
103.317
103.402
103.5
103.609
103.728
103.852
103.978
104.099
104.212
104.312
104.397
104.467
104.524
104.57
104.607
104.636
104.655
104.662
104.653
104.632
104.604
104.576
104.549
104.525
104.506
104.493
104.48
104.464
104.453
104.444
104.436
104.429
104.424
104.413
106.759
106.759
104.413
104.424
104.429
104.436
104.444
104.453
104.464
104.48
104.493
104.506
104.525
104.549
104.576
104.604
104.632
104.653
104.662
104.655
104.636
104.607
104.57
104.524
104.467
104.397
104.312
104.212
104.099
103.978
103.852
103.728
103.609
103.5
103.402
103.317
103.245
103.188
103.145
103.116
103.102
101.943
101.957
101.983
102.023
102.075
102.14
102.217
102.305
102.402
102.507
102.617
102.727
102.833
102.933
103.023
103.102
103.168
103.223
103.267
103.303
103.331
103.348
103.355
103.351
103.337
103.318
103.296
103.274
103.254
103.236
103.221
103.206
103.193
103.185
103.178
103.17
103.164
103.158
103.146
105.184
105.184
103.146
103.158
103.164
103.17
103.178
103.185
103.193
103.206
103.221
103.236
103.254
103.274
103.296
103.318
103.337
103.351
103.355
103.348
103.331
103.303
103.267
103.223
103.168
103.102
103.023
102.933
102.833
102.727
102.617
102.507
102.402
102.305
102.217
102.14
102.075
102.023
101.983
101.957
101.943
100.582
100.594
100.618
100.654
100.701
100.758
100.827
100.904
100.989
101.08
101.175
101.27
101.362
101.449
101.529
101.6
101.661
101.712
101.755
101.789
101.815
101.832
101.84
101.84
101.832
101.819
101.803
101.786
101.769
101.753
101.738
101.723
101.712
101.705
101.698
101.692
101.686
101.68
101.668
103.675
103.675
101.668
101.68
101.686
101.692
101.698
101.705
101.712
101.723
101.738
101.753
101.769
101.786
101.803
101.819
101.832
101.84
101.84
101.832
101.815
101.789
101.755
101.712
101.661
101.6
101.529
101.449
101.362
101.27
101.175
101.08
100.989
100.904
100.827
100.758
100.701
100.654
100.618
100.594
100.582
99.0692
99.0797
99.1008
99.1322
99.1736
99.2243
99.2838
99.351
99.4245
99.5027
99.5836
99.665
99.7445
99.8201
99.89
99.9529
100.008
100.055
100.095
100.127
100.151
100.168
100.178
100.18
100.177
100.168
100.157
100.144
100.13
100.116
100.102
100.088
100.078
100.071
100.065
100.059
100.053
100.047
100.035
102.088
102.088
100.035
100.047
100.053
100.059
100.065
100.071
100.078
100.088
100.102
100.116
100.13
100.144
100.157
100.168
100.177
100.18
100.178
100.168
100.151
100.127
100.095
100.055
100.008
99.9529
99.89
99.8201
99.7445
99.665
99.5836
99.5027
99.4245
99.351
99.2838
99.2243
99.1736
99.1322
99.1008
99.0797
99.0692
97.5453
97.5546
97.5732
97.6008
97.6371
97.6815
97.7333
97.7915
97.855
97.9224
97.992
98.0621
98.1308
98.1966
98.2579
98.3137
98.3633
98.4064
98.4428
98.4725
98.4956
98.5121
98.5224
98.5267
98.5259
98.5209
98.5128
98.5026
98.4911
98.4788
98.4661
98.453
98.4433
98.4373
98.4314
98.4254
98.4196
98.4137
98.4014
100.516
100.516
98.4014
98.4137
98.4196
98.4254
98.4314
98.4373
98.4433
98.453
98.4661
98.4788
98.4911
98.5026
98.5128
98.5209
98.5259
98.5267
98.5224
98.5121
98.4956
98.4725
98.4428
98.4064
98.3633
98.3137
98.2579
98.1966
98.1308
98.0621
97.992
97.9224
97.855
97.7915
97.7333
97.6815
97.6371
97.6008
97.5732
97.5546
97.5453
96.012
96.0202
96.0366
96.0608
96.0925
96.1312
96.1762
96.2268
96.2817
96.3399
96.4
96.4606
96.5202
96.5774
96.6312
96.6807
96.725
96.7639
96.7971
96.8245
96.8462
96.8622
96.8728
96.8783
96.8793
96.8765
96.8707
96.8627
96.853
96.8422
96.8305
96.8182
96.809
96.8032
96.7974
96.7916
96.7857
96.7798
96.7674
98.9503
98.9503
96.7674
96.7798
96.7857
96.7916
96.7974
96.8032
96.809
96.8182
96.8305
96.8422
96.853
96.8627
96.8707
96.8765
96.8793
96.8783
96.8728
96.8622
96.8462
96.8245
96.7971
96.7639
96.725
96.6807
96.6312
96.5774
96.5202
96.4606
96.4
96.3399
96.2817
96.2268
96.1762
96.1312
96.0925
96.0608
96.0366
96.0202
96.012
94.4705
94.4777
94.492
94.5132
94.5409
94.5746
94.6138
94.6576
94.7052
94.7556
94.8076
94.86
94.9118
94.9618
95.009
95.0527
95.0922
95.1271
95.1572
95.1824
95.2025
95.2178
95.2283
95.2343
95.2365
95.2351
95.2309
95.2244
95.2161
95.2064
95.1956
95.184
95.175
95.1694
95.1637
95.1579
95.152
95.146
95.1336
97.3907
97.3907
95.1336
95.146
95.152
95.1579
95.1637
95.1694
95.175
95.184
95.1956
95.2064
95.2161
95.2244
95.2309
95.2351
95.2365
95.2343
95.2283
95.2178
95.2025
95.1824
95.1572
95.1271
95.0922
95.0527
95.009
94.9618
94.9118
94.86
94.8076
94.7556
94.7052
94.6576
94.6138
94.5746
94.5409
94.5132
94.492
94.4777
94.4705
92.9219
92.9282
92.9406
92.9591
92.9832
93.0126
93.0466
93.0846
93.1259
93.1696
93.2146
93.2602
93.3052
93.3489
93.3903
93.4289
93.464
93.4952
93.5224
93.5452
93.5638
93.578
93.5882
93.5944
93.5971
93.5966
93.5935
93.588
93.5806
93.5717
93.5616
93.5504
93.5416
93.5361
93.5304
93.5246
93.5187
93.5126
93.5002
95.8383
95.8383
93.5002
93.5126
93.5187
93.5246
93.5304
93.5361
93.5416
93.5504
93.5616
93.5717
93.5806
93.588
93.5935
93.5966
93.5971
93.5944
93.5882
93.578
93.5638
93.5452
93.5224
93.4952
93.464
93.4289
93.3903
93.3489
93.3052
93.2602
93.2146
93.1696
93.1259
93.0846
93.0466
93.0126
92.9832
92.9591
92.9406
92.9282
92.9219
91.3669
91.3724
91.3833
91.3994
91.4204
91.4459
91.4754
91.5084
91.5443
91.5821
91.6212
91.6608
91.7001
91.7382
91.7745
91.8085
91.8396
91.8674
91.8917
91.9124
91.9293
91.9424
91.9519
91.958
91.9609
91.9608
91.9583
91.9534
91.9467
91.9383
91.9286
91.9177
91.909
91.9035
91.8979
91.892
91.886
91.8799
91.8674
94.2942
94.2942
91.8674
91.8799
91.886
91.892
91.8979
91.9035
91.909
91.9177
91.9286
91.9383
91.9467
91.9534
91.9583
91.9608
91.9609
91.958
91.9519
91.9424
91.9293
91.9124
91.8917
91.8674
91.8396
91.8085
91.7745
91.7382
91.7001
91.6608
91.6212
91.5821
91.5443
91.5084
91.4754
91.4459
91.4204
91.3994
91.3833
91.3724
91.3669
89.8064
89.8112
89.8207
89.8347
89.853
89.8751
89.9008
89.9295
89.9605
89.9934
90.0274
90.0618
90.096
90.1293
90.1611
90.191
90.2184
90.2431
90.2648
90.2833
90.2985
90.3104
90.3192
90.3248
90.3276
90.3276
90.3253
90.3208
90.3144
90.3063
90.2968
90.286
90.2774
90.2719
90.2661
90.2602
90.2542
90.2479
90.2354
92.7597
92.7597
90.2354
90.2479
90.2542
90.2602
90.2661
90.2719
90.2774
90.286
90.2968
90.3063
90.3144
90.3208
90.3253
90.3276
90.3276
90.3248
90.3192
90.3104
90.2985
90.2833
90.2648
90.2431
90.2184
90.191
90.1611
90.1293
90.096
90.0618
90.0274
89.9934
89.9605
89.9295
89.9008
89.8751
89.853
89.8347
89.8207
89.8112
89.8064
88.2412
88.2454
88.2536
88.2658
88.2816
88.3009
88.3232
88.3481
88.375
88.4036
88.4331
88.463
88.4928
88.5219
88.5497
88.5759
88.6
88.6218
88.641
88.6574
88.671
88.6817
88.6895
88.6945
88.6969
88.6968
88.6945
88.69
88.6837
88.6757
88.6663
88.6554
88.6468
88.6412
88.6354
88.6294
88.6232
88.6168
88.6043
91.2364
91.2364
88.6043
88.6168
88.6232
88.6294
88.6354
88.6412
88.6468
88.6554
88.6663
88.6757
88.6837
88.69
88.6945
88.6968
88.6969
88.6945
88.6895
88.6817
88.671
88.6574
88.641
88.6218
88.6
88.5759
88.5497
88.5219
88.4928
88.463
88.4331
88.4036
88.375
88.3481
88.3232
88.3009
88.2816
88.2658
88.2536
88.2454
88.2412
86.6718
86.6754
86.6826
86.6932
86.7069
86.7237
86.743
86.7646
86.788
86.8127
86.8384
86.8644
86.8903
86.9156
86.94
86.9629
86.984
87.0032
87.02
87.0345
87.0464
87.0558
87.0626
87.0669
87.0687
87.0683
87.0657
87.0612
87.0547
87.0467
87.0371
87.0261
87.0173
87.0116
87.0057
86.9996
86.9933
86.9867
86.9742
89.7262
89.7262
86.9742
86.9867
86.9933
86.9996
87.0057
87.0116
87.0173
87.0261
87.0371
87.0467
87.0547
87.0612
87.0657
87.0683
87.0687
87.0669
87.0626
87.0558
87.0464
87.0345
87.02
87.0032
86.984
86.9629
86.94
86.9156
86.8903
86.8644
86.8384
86.8127
86.788
86.7646
86.743
86.7237
86.7069
86.6932
86.6826
86.6754
86.6718
85.0988
85.1019
85.1082
85.1173
85.1293
85.1438
85.1606
85.1793
85.1996
85.221
85.2433
85.2659
85.2884
85.3104
85.3316
85.3516
85.37
85.3867
85.4014
85.414
85.4244
85.4325
85.4382
85.4417
85.4429
85.4419
85.439
85.4341
85.4274
85.4191
85.4093
85.398
85.389
85.3832
85.3771
85.3709
85.3644
85.3577
85.3452
88.2314
88.2314
85.3452
85.3577
85.3644
85.3709
85.3771
85.3832
85.389
85.398
85.4093
85.4191
85.4274
85.4341
85.439
85.4419
85.4429
85.4417
85.4382
85.4325
85.4244
85.414
85.4014
85.3867
85.37
85.3516
85.3316
85.3104
85.2884
85.2659
85.2433
85.221
85.1996
85.1793
85.1606
85.1438
85.1293
85.1173
85.1082
85.1019
85.0988
83.5227
83.5254
83.5308
83.5387
83.5491
83.5616
83.5762
83.5924
83.61
83.6286
83.6479
83.6674
83.687
83.7061
83.7245
83.7418
83.7578
83.7723
83.785
83.7958
83.8047
83.8114
83.8161
83.8187
83.8191
83.8176
83.8142
83.8088
83.8018
83.7931
83.7828
83.7712
83.7619
83.7559
83.7497
83.7432
83.7366
83.7297
83.7171
86.7548
86.7548
83.7171
83.7297
83.7366
83.7432
83.7497
83.7559
83.7619
83.7712
83.7828
83.7931
83.8018
83.8088
83.8142
83.8176
83.8191
83.8187
83.8161
83.8114
83.8047
83.7958
83.785
83.7723
83.7578
83.7418
83.7245
83.7061
83.687
83.6674
83.6479
83.6286
83.61
83.5924
83.5762
83.5616
83.5491
83.5387
83.5308
83.5254
83.5227
81.9438
81.9461
81.9508
81.9577
81.9667
81.9775
81.9901
82.0041
82.0193
82.0354
82.0521
82.0691
82.0859
82.1025
82.1183
82.1333
82.1471
82.1596
82.1704
82.1796
82.187
82.1925
82.1961
82.1977
82.1974
82.1952
82.1912
82.1853
82.1778
82.1686
82.1578
82.1457
82.136
82.1298
82.1233
82.1167
82.1098
82.1027
82.0901
85.3001
85.3001
82.0901
82.1027
82.1098
82.1167
82.1233
82.1298
82.136
82.1457
82.1578
82.1686
82.1778
82.1853
82.1912
82.1952
82.1974
82.1977
82.1961
82.1925
82.187
82.1796
82.1704
82.1596
82.1471
82.1333
82.1183
82.1025
82.0859
82.0691
82.0521
82.0354
82.0193
82.0041
81.9901
81.9775
81.9667
81.9577
81.9508
81.9461
81.9438
80.3626
80.3646
80.3686
80.3746
80.3823
80.3917
80.4026
80.4147
80.4278
80.4417
80.4561
80.4707
80.4853
80.4995
80.5132
80.526
80.5378
80.5484
80.5576
80.5652
80.5712
80.5755
80.5781
80.5788
80.5776
80.5747
80.57
80.5635
80.5554
80.5456
80.5343
80.5215
80.5113
80.5049
80.4981
80.4912
80.4841
80.4767
80.464
83.8719
83.8719
80.464
80.4767
80.4841
80.4912
80.4981
80.5049
80.5113
80.5215
80.5343
80.5456
80.5554
80.5635
80.57
80.5747
80.5776
80.5788
80.5781
80.5755
80.5712
80.5652
80.5576
80.5484
80.5378
80.526
80.5132
80.4995
80.4853
80.4707
80.4561
80.4417
80.4278
80.4147
80.4026
80.3917
80.3823
80.3746
80.3686
80.3646
80.3626
78.7793
78.7811
78.7845
78.7897
78.7964
78.8045
78.8138
78.8243
78.8356
78.8475
78.8599
78.8724
78.8849
78.8971
78.9088
78.9197
78.9297
78.9386
78.9462
78.9525
78.9572
78.9603
78.9618
78.9616
78.9596
78.956
78.9505
78.9434
78.9346
78.9241
78.9121
78.8986
78.8879
78.8811
78.874
78.8667
78.8593
78.8516
78.8387
82.4763
82.4763
78.8387
78.8516
78.8593
78.8667
78.874
78.8811
78.8879
78.8986
78.9121
78.9241
78.9346
78.9434
78.9505
78.956
78.9596
78.9616
78.9618
78.9603
78.9572
78.9525
78.9462
78.9386
78.9297
78.9197
78.9088
78.8971
78.8849
78.8724
78.8599
78.8475
78.8356
78.8243
78.8138
78.8045
78.7964
78.7897
78.7845
78.7811
78.7793
77.1943
77.1958
77.1988
77.2032
77.209
77.2159
77.224
77.2329
77.2427
77.2529
77.2635
77.2742
77.2849
77.2953
77.3052
77.3144
77.3227
77.3301
77.3363
77.3412
77.3447
77.3468
77.3473
77.3462
77.3434
77.339
77.3328
77.325
77.3154
77.3042
77.2914
77.2771
77.2657
77.2585
77.251
77.2433
77.2354
77.2273
77.2142
81.1214
81.1214
77.2142
77.2273
77.2354
77.2433
77.251
77.2585
77.2657
77.2771
77.2914
77.3042
77.3154
77.325
77.3328
77.339
77.3434
77.3462
77.3473
77.3468
77.3447
77.3412
77.3363
77.3301
77.3227
77.3144
77.3052
77.2953
77.2849
77.2742
77.2635
77.2529
77.2427
77.2329
77.224
77.2159
77.209
77.2032
77.1988
77.1958
77.1943
75.6078
75.6091
75.6116
75.6154
75.6204
75.6263
75.6332
75.6409
75.6492
75.6579
75.667
75.6761
75.6851
75.6939
75.7022
75.7099
75.7168
75.7227
75.7276
75.7313
75.7338
75.7348
75.7344
75.7324
75.7288
75.7236
75.7168
75.7082
75.698
75.686
75.6723
75.6569
75.6448
75.637
75.629
75.6208
75.6123
75.6038
75.5903
79.8175
79.8175
75.5903
75.6038
75.6123
75.6208
75.629
75.637
75.6448
75.6569
75.6723
75.686
75.698
75.7082
75.7168
75.7236
75.7288
75.7324
75.7344
75.7348
75.7338
75.7313
75.7276
75.7227
75.7168
75.7099
75.7022
75.6939
75.6851
75.6761
75.667
75.6579
75.6492
75.6409
75.6332
75.6263
75.6204
75.6154
75.6116
75.6091
75.6078
74.0199
74.0211
74.0232
74.0265
74.0307
74.0358
74.0417
74.0482
74.0553
74.0627
74.0703
74.078
74.0856
74.093
74.0999
74.1062
74.1117
74.1164
74.1202
74.1228
74.1242
74.1243
74.123
74.1202
74.1159
74.11
74.1025
74.0932
74.0822
74.0694
74.0548
74.0383
74.0252
74.0168
74.0082
73.9992
73.9901
73.9808
73.9668
78.5747
78.5747
73.9668
73.9808
73.9901
73.9992
74.0082
74.0168
74.0252
74.0383
74.0548
74.0694
74.0822
74.0932
74.1025
74.11
74.1159
74.1202
74.123
74.1243
74.1242
74.1228
74.1202
74.1164
74.1117
74.1062
74.0999
74.093
74.0856
74.078
74.0703
74.0627
74.0553
74.0482
74.0417
74.0358
74.0307
74.0265
74.0232
74.0211
74.0199
72.431
72.432
72.4338
72.4366
72.4402
72.4445
72.4495
72.455
72.461
72.4672
72.4737
72.4801
72.4864
72.4925
72.4981
72.5032
72.5076
72.5112
72.5138
72.5154
72.5159
72.5151
72.513
72.5095
72.5045
72.498
72.4898
72.4799
72.4682
72.4546
72.4391
72.4214
72.4072
72.3981
72.3886
72.3788
72.3687
72.3584
72.3435
77.395
77.395
72.3435
72.3584
72.3687
72.3788
72.3886
72.3981
72.4072
72.4214
72.4391
72.4546
72.4682
72.4799
72.4898
72.498
72.5045
72.5095
72.513
72.5151
72.5159
72.5154
72.5138
72.5112
72.5076
72.5032
72.4981
72.4925
72.4864
72.4801
72.4737
72.4672
72.461
72.455
72.4495
72.4445
72.4402
72.4366
72.4338
72.432
72.431
70.8411
70.8419
70.8435
70.8458
70.8489
70.8525
70.8567
70.8614
70.8664
70.8716
70.877
70.8823
70.8875
70.8924
70.8969
70.9009
70.9042
70.9068
70.9085
70.9092
70.9088
70.9073
70.9045
70.9003
70.8948
70.8877
70.8789
70.8685
70.8562
70.8419
70.8254
70.8066
70.7912
70.7812
70.7707
70.7597
70.7483
70.7365
70.7202
76.2317
76.2317
70.7202
70.7365
70.7483
70.7597
70.7707
70.7812
70.7912
70.8066
70.8254
70.8419
70.8562
70.8685
70.8789
70.8877
70.8948
70.9003
70.9045
70.9073
70.9088
70.9092
70.9085
70.9068
70.9042
70.9009
70.8969
70.8924
70.8875
70.8823
70.877
70.8716
70.8664
70.8614
70.8567
70.8525
70.8489
70.8458
70.8435
70.8419
70.8411
69.2505
69.2511
69.2525
69.2544
69.2569
69.26
69.2635
69.2674
69.2715
69.2759
69.2803
69.2846
69.2888
69.2927
69.2962
69.2992
69.3016
69.3033
69.3041
69.3041
69.303
69.3007
69.2973
69.2926
69.2865
69.2789
69.2698
69.2589
69.2461
69.2313
69.2141
69.1943
69.1778
69.1669
69.1553
69.1429
69.1298
69.1159
69.0972
74.8104
74.8104
69.0972
69.1159
69.1298
69.1429
69.1553
69.1669
69.1778
69.1943
69.2141
69.2313
69.2461
69.2589
69.2698
69.2789
69.2865
69.2926
69.2973
69.3007
69.303
69.3041
69.3041
69.3033
69.3016
69.2992
69.2962
69.2927
69.2888
69.2846
69.2803
69.2759
69.2715
69.2674
69.2635
69.26
69.2569
69.2544
69.2525
69.2511
69.2505
67.6591
67.6597
67.6608
67.6624
67.6645
67.667
67.6699
67.6731
67.6765
67.6801
67.6836
67.6871
67.6904
67.6934
67.6961
67.6982
67.6998
67.7006
67.7007
67.6999
67.6982
67.6954
67.6914
67.6862
67.6797
67.6718
67.6623
67.6511
67.6381
67.623
67.6055
67.5851
67.5678
67.5563
67.5438
67.5301
67.5151
67.4984
67.4765
72.107
72.107
67.4765
67.4984
67.5151
67.5301
67.5438
67.5563
67.5678
67.5851
67.6055
67.623
67.6381
67.6511
67.6623
67.6718
67.6797
67.6862
67.6914
67.6954
67.6982
67.6999
67.7007
67.7006
67.6998
67.6982
67.6961
67.6934
67.6904
67.6871
67.6836
67.6801
67.6765
67.6731
67.6699
67.667
67.6645
67.6624
67.6608
67.6597
67.6591
66.0672
66.0677
66.0686
66.0699
66.0716
66.0737
66.0761
66.0787
66.0814
66.0842
66.0871
66.0898
66.0923
66.0945
66.0964
66.0978
66.0986
66.0988
66.0982
66.0968
66.0945
66.0912
66.0868
66.0812
66.0744
66.0662
66.0565
66.0453
66.0322
66.0171
65.9997
65.9794
65.9622
65.9507
65.9382
65.9243
65.9088
65.8908
65.8677
65.9794
65.9794
65.8677
65.8908
65.9088
65.9243
65.9382
65.9507
65.9622
65.9794
65.9997
66.0171
66.0322
66.0453
66.0565
66.0662
66.0744
66.0812
66.0868
66.0912
66.0945
66.0968
66.0982
66.0988
66.0986
66.0978
66.0964
66.0945
66.0923
66.0898
66.0871
66.0842
66.0814
66.0787
66.0761
66.0737
66.0716
66.0699
66.0686
66.0677
66.0672
64.4748
64.4752
64.4759
64.477
64.4784
64.4801
64.482
64.4841
64.4862
64.4884
64.4906
64.4926
64.4945
64.496
64.4972
64.4979
64.4981
64.4976
64.4965
64.4946
64.4918
64.488
64.4833
64.4774
64.4704
64.4621
64.4524
64.4412
64.4283
64.4136
64.3967
64.3773
64.3611
64.3505
64.3391
64.3271
64.3146
64.3023
64.2938
64.2885
64.2885
64.2938
64.3023
64.3146
64.3271
64.3391
64.3505
64.3611
64.3773
64.3967
64.4136
64.4283
64.4412
64.4524
64.4621
64.4704
64.4774
64.4833
64.488
64.4918
64.4946
64.4965
64.4976
64.4981
64.4979
64.4972
64.496
64.4945
64.4926
64.4906
64.4884
64.4862
64.4841
64.482
64.4801
64.4784
64.477
64.4759
64.4752
64.4748
62.8821
62.8824
62.883
62.8838
62.8849
62.8863
62.8877
62.8893
62.891
62.8927
62.8942
62.8957
62.8969
62.8979
62.8984
62.8986
62.8982
62.8972
62.8956
62.8932
62.89
62.8859
62.8809
62.8748
62.8677
62.8593
62.8497
62.8388
62.8263
62.8122
62.7963
62.7783
62.7635
62.7538
62.7434
62.7321
62.7194
62.7045
62.6909
62.6883
62.6883
62.6909
62.7045
62.7194
62.7321
62.7434
62.7538
62.7635
62.7783
62.7963
62.8122
62.8263
62.8388
62.8497
62.8593
62.8677
62.8748
62.8809
62.8859
62.89
62.8932
62.8956
62.8972
62.8982
62.8986
62.8984
62.8979
62.8969
62.8957
62.8942
62.8927
62.891
62.8893
62.8877
62.8863
62.8849
62.8838
62.883
62.8824
62.8821
61.2892
61.2895
61.2899
61.2906
61.2914
61.2925
61.2936
61.2948
61.296
61.2972
61.2983
61.2992
61.2999
61.3003
61.3003
61.3
61.2991
61.2977
61.2956
61.2928
61.2893
61.285
61.2797
61.2736
61.2664
61.2581
61.2487
61.2381
61.2261
61.2129
61.1981
61.1819
61.1691
61.161
61.1527
61.1443
61.136
61.1282
61.122
61.1195
61.1195
61.122
61.1282
61.136
61.1443
61.1527
61.161
61.1691
61.1819
61.1981
61.2129
61.2261
61.2381
61.2487
61.2581
61.2664
61.2736
61.2797
61.285
61.2893
61.2928
61.2956
61.2977
61.2991
61.3
61.3003
61.3003
61.2999
61.2992
61.2983
61.2972
61.296
61.2948
61.2936
61.2925
61.2914
61.2906
61.2899
61.2895
61.2892
59.6962
59.6963
59.6967
59.6972
59.6978
59.6985
59.6994
59.7002
59.701
59.7018
59.7024
59.7029
59.7031
59.7031
59.7027
59.7019
59.7006
59.6987
59.6963
59.6932
59.6895
59.6849
59.6795
59.6733
59.6661
59.658
59.6489
59.6386
59.6273
59.615
59.6015
59.587
59.5761
59.5693
59.5625
59.5558
59.5495
59.5437
59.5385
59.536
59.536
59.5385
59.5437
59.5495
59.5558
59.5625
59.5693
59.5761
59.587
59.6015
59.615
59.6273
59.6386
59.6489
59.658
59.6661
59.6733
59.6795
59.6849
59.6895
59.6932
59.6963
59.6987
59.7006
59.7019
59.7027
59.7031
59.7031
59.7029
59.7024
59.7018
59.701
59.7002
59.6994
59.6985
59.6978
59.6972
59.6967
59.6963
59.6962
58.1029
58.103
58.1033
58.1036
58.1041
58.1046
58.1051
58.1056
58.1061
58.1065
58.1068
58.1068
58.1067
58.1062
58.1054
58.1042
58.1026
58.1004
58.0977
58.0944
58.0904
58.0857
58.0802
58.074
58.0669
58.0589
58.0501
58.0403
58.0297
58.0181
58.0058
57.9928
57.9833
57.9774
57.9716
57.9659
57.9605
57.9553
57.9505
57.9481
57.9481
57.9505
57.9553
57.9605
57.9659
57.9716
57.9774
57.9833
57.9928
58.0058
58.0181
58.0297
58.0403
58.0501
58.0589
58.0669
58.074
58.0802
58.0857
58.0904
58.0944
58.0977
58.1004
58.1026
58.1042
58.1054
58.1062
58.1067
58.1068
58.1068
58.1065
58.1061
58.1056
58.1051
58.1046
58.1041
58.1036
58.1033
58.103
58.1029
56.5095
56.5096
56.5098
56.51
56.5103
56.5106
56.5108
56.5111
56.5113
56.5114
56.5113
56.511
56.5105
56.5097
56.5086
56.5071
56.5051
56.5027
56.4997
56.4962
56.492
56.4872
56.4817
56.4755
56.4685
56.4607
56.4522
56.4429
56.4328
56.4221
56.4107
56.399
56.3904
56.3851
56.3799
56.3748
56.3699
56.3651
56.3605
56.3581
56.3581
56.3605
56.3651
56.3699
56.3748
56.3799
56.3851
56.3904
56.399
56.4107
56.4221
56.4328
56.4429
56.4522
56.4607
56.4685
56.4755
56.4817
56.4872
56.492
56.4962
56.4997
56.5027
56.5051
56.5071
56.5086
56.5097
56.5105
56.511
56.5113
56.5114
56.5113
56.5111
56.5108
56.5106
56.5103
56.51
56.5098
56.5096
56.5095
54.9161
54.9161
54.9162
54.9163
54.9164
54.9165
54.9166
54.9166
54.9166
54.9164
54.916
54.9154
54.9146
54.9135
54.9121
54.9103
54.9081
54.9054
54.9023
54.8986
54.8943
54.8894
54.8839
54.8777
54.8709
54.8633
54.8551
54.8462
54.8367
54.8266
54.8161
54.8053
54.7974
54.7925
54.7878
54.783
54.7784
54.7738
54.7693
54.767
54.767
54.7693
54.7738
54.7784
54.783
54.7878
54.7925
54.7974
54.8053
54.8161
54.8266
54.8367
54.8462
54.8551
54.8633
54.8709
54.8777
54.8839
54.8894
54.8943
54.8986
54.9023
54.9054
54.9081
54.9103
54.9121
54.9135
54.9146
54.9154
54.916
54.9164
54.9166
54.9166
54.9166
54.9165
54.9164
54.9163
54.9162
54.9161
54.9161
53.3226
53.3226
53.3226
53.3226
53.3226
53.3226
53.3225
53.3223
53.322
53.3215
53.3209
53.3201
53.3191
53.3177
53.316
53.314
53.3116
53.3087
53.3054
53.3015
53.2972
53.2923
53.2867
53.2806
53.2739
53.2666
53.2587
53.2502
53.2412
53.2317
53.2218
53.2117
53.2043
53.1998
53.1953
53.1908
53.1864
53.182
53.1776