/*--------------------------------*- C++ -*----------------------------------*\
  =========                 |
  \\      /  F ield         | OpenFOAM: The Open Source CFD Toolbox
   \\    /   O peration     | Website:  https://openfoam.org
    \\  /    A nd           | Version:  10
     \\/     M anipulation  |
\*---------------------------------------------------------------------------*/
FoamFile
{
    format      ascii;
    class       volVectorField;
    location    "16300";
    object      Ub;
}
// * * * * * * * * * * * * * * * * * * * * * * * * * * * * * * * * * * * * * //

dimensions      [0 1 -1 0 0 0 0];

internalField   nonuniform List<vector> 
6400
(
(-7.14264e-21 -9.87899e-16 0)
(-2.15777e-20 -9.87899e-16 0)
(-3.64781e-20 -9.87899e-16 0)
(-5.2211e-20 -9.87899e-16 0)
(-6.92458e-20 -9.87899e-16 0)
(-8.82378e-20 -9.87899e-16 0)
(-1.10185e-19 -9.87898e-16 0)
(-1.36749e-19 -9.87898e-16 0)
(-1.70921e-19 -9.87897e-16 0)
(-2.18842e-19 -9.87895e-16 0)
(-5.43925e-09 -9.96932e-16 0)
(-6.00598e-05 -6.04099e-06 0)
(-0.000123696 -9.34351e-07 0)
(-0.000119893 -1.83281e-06 0)
(-0.000128037 2.99805e-06 0)
(-0.000143241 -1.67588e-07 0)
(-0.000137595 -1.15326e-06 0)
(-0.000130833 -3.49393e-07 0)
(-0.000127006 -5.29505e-07 0)
(-0.000123473 -2.7183e-07 0)
(-0.000120449 -4.13355e-07 0)
(-0.000118344 -7.59458e-08 0)
(-0.000120157 3.90459e-07 0)
(-0.000122535 4.41373e-08 0)
(-0.000122267 -1.4274e-07 0)
(-0.0001202 -3.18077e-07 0)
(-0.000117597 -2.48646e-07 0)
(-0.000115495 -2.13714e-07 0)
(-0.000113264 -2.72711e-07 0)
(-0.000110791 -2.61202e-07 0)
(-0.000108078 -3.19907e-07 0)
(-0.000103718 -5.94525e-07 0)
(-9.85599e-05 -1.06607e-06 0)
(-9.3103e-05 -1.45614e-06 0)
(-8.56974e-05 -1.95699e-06 0)
(-7.58762e-05 -2.56055e-06 0)
(-6.32849e-05 -3.2237e-06 0)
(-4.78431e-05 -3.86395e-06 0)
(-2.98801e-05 -4.37667e-06 0)
(-1.0169e-05 -4.66332e-06 0)
(1.0169e-05 -4.66332e-06 0)
(2.98801e-05 -4.37667e-06 0)
(4.78431e-05 -3.86395e-06 0)
(6.32849e-05 -3.2237e-06 0)
(7.58762e-05 -2.56055e-06 0)
(8.56974e-05 -1.95699e-06 0)
(9.3103e-05 -1.45614e-06 0)
(9.85599e-05 -1.06607e-06 0)
(0.000103718 -5.94525e-07 0)
(0.000108078 -3.19907e-07 0)
(0.000110791 -2.61202e-07 0)
(0.000113264 -2.72711e-07 0)
(0.000115495 -2.13714e-07 0)
(0.000117597 -2.48646e-07 0)
(0.0001202 -3.18077e-07 0)
(0.000122267 -1.4274e-07 0)
(0.000122535 4.41373e-08 0)
(0.000120157 3.90459e-07 0)
(0.000118344 -7.59458e-08 0)
(0.000120449 -4.13355e-07 0)
(0.000123473 -2.7183e-07 0)
(0.000127006 -5.29505e-07 0)
(0.000130833 -3.49393e-07 0)
(0.000137595 -1.15326e-06 0)
(0.000143241 -1.67588e-07 0)
(0.000128037 2.99805e-06 0)
(0.000119893 -1.83281e-06 0)
(0.000123696 -9.34351e-07 0)
(6.00598e-05 -6.04099e-06 0)
(5.43925e-09 -9.96932e-16 0)
(2.18842e-19 -9.87895e-16 0)
(1.70921e-19 -9.87897e-16 0)
(1.36749e-19 -9.87898e-16 0)
(1.10185e-19 -9.87898e-16 0)
(8.82378e-20 -9.87899e-16 0)
(6.92458e-20 -9.87899e-16 0)
(5.2211e-20 -9.87899e-16 0)
(3.64781e-20 -9.87899e-16 0)
(2.15777e-20 -9.87899e-16 0)
(7.14264e-21 -9.87899e-16 0)
(-7.13612e-21 -9.87894e-16 0)
(-2.15575e-20 -9.87894e-16 0)
(-3.64419e-20 -9.87894e-16 0)
(-5.21544e-20 -9.87893e-16 0)
(-6.91607e-20 -9.87893e-16 0)
(-8.81094e-20 -9.87892e-16 0)
(-1.09984e-19 -9.87891e-16 0)
(-1.36419e-19 -9.87889e-16 0)
(-1.70421e-19 -9.87886e-16 0)
(-2.18904e-19 -9.87881e-16 0)
(-3.51881e-19 -9.87889e-16 0)
(-2.19979e-11 -9.86748e-16 0)
(-3.5919e-05 -2.00543e-08 0)
(-8.69618e-05 -1.66864e-06 0)
(-0.000120079 9.89027e-06 0)
(-0.000137959 -3.63275e-07 0)
(-0.000132651 -3.45406e-06 0)
(-0.000126453 -9.09803e-07 0)
(-0.00012317 -1.55601e-06 0)
(-0.000119945 -7.43518e-07 0)
(-0.000117144 -1.23118e-06 0)
(-0.00011509 -1.87395e-07 0)
(-0.000117101 1.28128e-06 0)
(-0.000119639 1.68647e-07 0)
(-0.000119413 -4.02312e-07 0)
(-0.000117401 -9.55325e-07 0)
(-0.000114864 -7.31683e-07 0)
(-0.000112882 -6.23971e-07 0)
(-0.000110743 -8.15058e-07 0)
(-0.000108357 -7.74774e-07 0)
(-0.000105792 -9.49911e-07 0)
(-0.000101675 -1.7878e-06 0)
(-9.67679e-05 -3.23231e-06 0)
(-9.15337e-05 -4.42932e-06 0)
(-8.43916e-05 -5.97132e-06 0)
(-7.48594e-05 -7.83729e-06 0)
(-6.25546e-05 -9.89561e-06 0)
(-4.73707e-05 -1.18885e-05 0)
(-2.96226e-05 -1.34879e-05 0)
(-1.00883e-05 -1.43834e-05 0)
(1.00883e-05 -1.43834e-05 0)
(2.96226e-05 -1.34879e-05 0)
(4.73707e-05 -1.18885e-05 0)
(6.25546e-05 -9.89561e-06 0)
(7.48594e-05 -7.83729e-06 0)
(8.43916e-05 -5.97132e-06 0)
(9.15337e-05 -4.42932e-06 0)
(9.67679e-05 -3.23231e-06 0)
(0.000101675 -1.7878e-06 0)
(0.000105792 -9.49911e-07 0)
(0.000108357 -7.74774e-07 0)
(0.000110743 -8.15058e-07 0)
(0.000112882 -6.23971e-07 0)
(0.000114864 -7.31683e-07 0)
(0.000117401 -9.55325e-07 0)
(0.000119413 -4.02312e-07 0)
(0.000119639 1.68647e-07 0)
(0.000117101 1.28128e-06 0)
(0.00011509 -1.87395e-07 0)
(0.000117144 -1.23118e-06 0)
(0.000119945 -7.43518e-07 0)
(0.00012317 -1.55601e-06 0)
(0.000126453 -9.09803e-07 0)
(0.000132651 -3.45406e-06 0)
(0.000137959 -3.63275e-07 0)
(0.000120079 9.89027e-06 0)
(8.69618e-05 -1.66864e-06 0)
(3.5919e-05 -2.00543e-08 0)
(2.19979e-11 -9.86748e-16 0)
(3.51881e-19 -9.87889e-16 0)
(2.18904e-19 -9.87881e-16 0)
(1.70421e-19 -9.87886e-16 0)
(1.36419e-19 -9.87889e-16 0)
(1.09984e-19 -9.87891e-16 0)
(8.81094e-20 -9.87892e-16 0)
(6.91607e-20 -9.87893e-16 0)
(5.21544e-20 -9.87893e-16 0)
(3.64419e-20 -9.87894e-16 0)
(2.15575e-20 -9.87894e-16 0)
(7.13612e-21 -9.87894e-16 0)
(-7.12123e-21 -9.87891e-16 0)
(-2.15112e-20 -9.87891e-16 0)
(-3.63592e-20 -9.8789e-16 0)
(-5.20251e-20 -9.8789e-16 0)
(-6.89665e-20 -9.87889e-16 0)
(-8.78165e-20 -9.87887e-16 0)
(-1.09527e-19 -9.87886e-16 0)
(-1.35663e-19 -9.87882e-16 0)
(-1.69118e-19 -9.87877e-16 0)
(-2.17004e-19 -9.87868e-16 0)
(-3.16124e-19 -9.87849e-16 0)
(-2.91621e-19 -9.87592e-16 0)
(-3.30317e-19 -9.87535e-16 0)
(-7.74604e-07 -1.56666e-15 0)
(-6.36117e-05 6.81307e-06 0)
(-0.000128953 -2.48109e-07 0)
(-0.000127301 -6.03568e-06 0)
(-0.000122299 -1.27214e-06 0)
(-0.00011996 -2.70494e-06 0)
(-0.000117098 -1.16518e-06 0)
(-0.000114521 -2.18497e-06 0)
(-0.000112335 -3.27259e-07 0)
(-0.000114751 2.3729e-06 0)
(-0.000117638 2.71637e-07 0)
(-0.000117393 -6.84887e-07 0)
(-0.000115343 -1.68591e-06 0)
(-0.00011279 -1.24909e-06 0)
(-0.000110944 -1.05401e-06 0)
(-0.000108883 -1.4165e-06 0)
(-0.000106559 -1.3216e-06 0)
(-0.000104195 -1.59859e-06 0)
(-0.000100448 -3.01674e-06 0)
(-9.59207e-05 -5.48779e-06 0)
(-9.10063e-05 -7.54409e-06 0)
(-8.42202e-05 -1.02132e-05 0)
(-7.50282e-05 -1.34744e-05 0)
(-6.29703e-05 -1.71048e-05 0)
(-4.78719e-05 -2.06426e-05 0)
(-3.00243e-05 -2.34959e-05 0)
(-1.02413e-05 -2.50983e-05 0)
(1.02413e-05 -2.50983e-05 0)
(3.00243e-05 -2.34959e-05 0)
(4.78719e-05 -2.06426e-05 0)
(6.29703e-05 -1.71048e-05 0)
(7.50282e-05 -1.34744e-05 0)
(8.42202e-05 -1.02132e-05 0)
(9.10063e-05 -7.54409e-06 0)
(9.59207e-05 -5.48779e-06 0)
(0.000100448 -3.01674e-06 0)
(0.000104195 -1.59859e-06 0)
(0.000106559 -1.3216e-06 0)
(0.000108883 -1.4165e-06 0)
(0.000110944 -1.05401e-06 0)
(0.00011279 -1.24909e-06 0)
(0.000115343 -1.68591e-06 0)
(0.000117393 -6.84887e-07 0)
(0.000117638 2.71637e-07 0)
(0.000114751 2.3729e-06 0)
(0.000112335 -3.27259e-07 0)
(0.000114521 -2.18497e-06 0)
(0.000117098 -1.16518e-06 0)
(0.00011996 -2.70494e-06 0)
(0.000122299 -1.27214e-06 0)
(0.000127301 -6.03568e-06 0)
(0.000128953 -2.48109e-07 0)
(6.36117e-05 6.81307e-06 0)
(7.74604e-07 -1.56666e-15 0)
(3.30317e-19 -9.87535e-16 0)
(2.91621e-19 -9.87592e-16 0)
(3.16124e-19 -9.87849e-16 0)
(2.17004e-19 -9.87868e-16 0)
(1.69118e-19 -9.87877e-16 0)
(1.35663e-19 -9.87882e-16 0)
(1.09527e-19 -9.87886e-16 0)
(8.78165e-20 -9.87887e-16 0)
(6.89665e-20 -9.87889e-16 0)
(5.20251e-20 -9.8789e-16 0)
(3.63592e-20 -9.8789e-16 0)
(2.15112e-20 -9.87891e-16 0)
(7.12123e-21 -9.87891e-16 0)
(-7.09565e-21 -9.87887e-16 0)
(-2.14318e-20 -9.87887e-16 0)
(-3.62172e-20 -9.87886e-16 0)
(-5.18033e-20 -9.87885e-16 0)
(-6.86338e-20 -9.87884e-16 0)
(-8.73159e-20 -9.87882e-16 0)
(-1.08748e-19 -9.8788e-16 0)
(-1.34375e-19 -9.87875e-16 0)
(-1.66785e-19 -9.87868e-16 0)
(-2.11709e-19 -9.87854e-16 0)
(-2.84667e-19 -9.87819e-16 0)
(-2.66775e-19 -9.87633e-16 0)
(-1.76969e-19 -9.87644e-16 0)
(-3.01895e-19 -9.87765e-16 0)
(-1.76007e-19 -9.68582e-16 0)
(-2.77993e-05 -2.26688e-09 0)
(-8.25719e-05 -3.69886e-06 0)
(-0.000113691 -6.99628e-07 0)
(-0.000115878 -3.9679e-06 0)
(-0.000114073 -1.37778e-06 0)
(-0.000111968 -3.35524e-06 0)
(-0.000109472 -5.03677e-07 0)
(-0.000112632 3.87048e-06 0)
(-0.00011615 3.22925e-07 0)
(-0.000115808 -9.76472e-07 0)
(-0.000113629 -2.55938e-06 0)
(-0.00011097 -1.78607e-06 0)
(-0.00010932 -1.47806e-06 0)
(-0.000107332 -2.09253e-06 0)
(-0.000105047 -1.88624e-06 0)
(-0.00010297 -2.22512e-06 0)
(-9.97781e-05 -4.21624e-06 0)
(-9.58207e-05 -7.75208e-06 0)
(-9.13822e-05 -1.07125e-05 0)
(-8.51213e-05 -1.46065e-05 0)
(-7.64054e-05 -1.94476e-05 0)
(-6.46219e-05 -2.49258e-05 0)
(-4.94655e-05 -3.03241e-05 0)
(-3.11845e-05 -3.47152e-05 0)
(-1.06666e-05 -3.71945e-05 0)
(1.06666e-05 -3.71945e-05 0)
(3.11845e-05 -3.47152e-05 0)
(4.94655e-05 -3.03241e-05 0)
(6.46219e-05 -2.49258e-05 0)
(7.64054e-05 -1.94476e-05 0)
(8.51213e-05 -1.46065e-05 0)
(9.13822e-05 -1.07125e-05 0)
(9.58207e-05 -7.75208e-06 0)
(9.97781e-05 -4.21624e-06 0)
(0.00010297 -2.22512e-06 0)
(0.000105047 -1.88624e-06 0)
(0.000107332 -2.09253e-06 0)
(0.00010932 -1.47806e-06 0)
(0.00011097 -1.78607e-06 0)
(0.000113629 -2.55938e-06 0)
(0.000115808 -9.76472e-07 0)
(0.00011615 3.22925e-07 0)
(0.000112632 3.87048e-06 0)
(0.000109472 -5.03677e-07 0)
(0.000111968 -3.35524e-06 0)
(0.000114073 -1.37778e-06 0)
(0.000115878 -3.9679e-06 0)
(0.000113691 -6.99628e-07 0)
(8.25719e-05 -3.69886e-06 0)
(2.77993e-05 -2.26688e-09 0)
(1.76007e-19 -9.68582e-16 0)
(3.01895e-19 -9.87765e-16 0)
(1.76969e-19 -9.87644e-16 0)
(2.66775e-19 -9.87633e-16 0)
(2.84667e-19 -9.87819e-16 0)
(2.11709e-19 -9.87854e-16 0)
(1.66785e-19 -9.87868e-16 0)
(1.34375e-19 -9.87875e-16 0)
(1.08748e-19 -9.8788e-16 0)
(8.73159e-20 -9.87882e-16 0)
(6.86338e-20 -9.87884e-16 0)
(5.18033e-20 -9.87885e-16 0)
(3.62172e-20 -9.87886e-16 0)
(2.14318e-20 -9.87887e-16 0)
(7.09565e-21 -9.87887e-16 0)
(-7.05667e-21 -9.87883e-16 0)
(-2.13108e-20 -9.87883e-16 0)
(-3.60011e-20 -9.87882e-16 0)
(-5.14662e-20 -9.87881e-16 0)
(-6.81292e-20 -9.87879e-16 0)
(-8.65594e-20 -9.87877e-16 0)
(-1.07578e-19 -9.87873e-16 0)
(-1.32451e-19 -9.87867e-16 0)
(-1.63281e-19 -9.87858e-16 0)
(-2.03786e-19 -9.8784e-16 0)
(-2.57016e-19 -9.87798e-16 0)
(-2.44947e-19 -9.87662e-16 0)
(-1.87532e-19 -9.87656e-16 0)
(-2.52289e-19 -9.87701e-16 0)
(-1.4088e-19 -9.87355e-16 0)
(6.19712e-20 -9.87527e-16 0)
(-3.2928e-11 -8.08044e-16 0)
(-3.58281e-05 -1.57307e-08 0)
(-8.7296e-05 -2.31203e-06 0)
(-0.000106733 -7.05044e-07 0)
(-0.000108226 -4.8195e-06 0)
(-0.000105734 -7.29342e-07 0)
(-0.000110388 6.12792e-06 0)
(-0.000115026 2.32038e-07 0)
(-0.000114491 -1.25149e-06 0)
(-0.000112096 -3.67417e-06 0)
(-0.000109217 -2.3221e-06 0)
(-0.000107883 -1.85962e-06 0)
(-0.000105968 -2.88391e-06 0)
(-0.00010368 -2.45283e-06 0)
(-0.000102007 -2.77535e-06 0)
(-9.96091e-05 -5.29222e-06 0)
(-9.64679e-05 -9.89999e-06 0)
(-9.27243e-05 -1.37816e-05 0)
(-8.72548e-05 -1.89959e-05 0)
(-7.92633e-05 -2.56672e-05 0)
(-6.78617e-05 -3.34234e-05 0)
(-5.25084e-05 -4.11946e-05 0)
(-3.33729e-05 -4.76021e-05 0)
(-1.1465e-05 -5.12501e-05 0)
(1.1465e-05 -5.12501e-05 0)
(3.33729e-05 -4.76021e-05 0)
(5.25084e-05 -4.11946e-05 0)
(6.78617e-05 -3.34234e-05 0)
(7.92633e-05 -2.56672e-05 0)
(8.72548e-05 -1.89959e-05 0)
(9.27243e-05 -1.37816e-05 0)
(9.64679e-05 -9.89999e-06 0)
(9.96091e-05 -5.29222e-06 0)
(0.000102007 -2.77535e-06 0)
(0.00010368 -2.45283e-06 0)
(0.000105968 -2.88391e-06 0)
(0.000107883 -1.85962e-06 0)
(0.000109217 -2.3221e-06 0)
(0.000112096 -3.67417e-06 0)
(0.000114491 -1.25149e-06 0)
(0.000115026 2.32038e-07 0)
(0.000110388 6.12792e-06 0)
(0.000105734 -7.29342e-07 0)
(0.000108226 -4.8195e-06 0)
(0.000106733 -7.05044e-07 0)
(8.7296e-05 -2.31203e-06 0)
(3.58281e-05 -1.57307e-08 0)
(3.2928e-11 -8.08044e-16 0)
(-6.19712e-20 -9.87527e-16 0)
(1.4088e-19 -9.87355e-16 0)
(2.52289e-19 -9.87701e-16 0)
(1.87532e-19 -9.87656e-16 0)
(2.44947e-19 -9.87662e-16 0)
(2.57016e-19 -9.87798e-16 0)
(2.03786e-19 -9.8784e-16 0)
(1.63281e-19 -9.87858e-16 0)
(1.32451e-19 -9.87867e-16 0)
(1.07578e-19 -9.87873e-16 0)
(8.65594e-20 -9.87877e-16 0)
(6.81292e-20 -9.87879e-16 0)
(5.14662e-20 -9.87881e-16 0)
(3.60011e-20 -9.87882e-16 0)
(2.13108e-20 -9.87883e-16 0)
(7.05667e-21 -9.87883e-16 0)
(-7.00113e-21 -9.87879e-16 0)
(-2.11386e-20 -9.87878e-16 0)
(-3.56937e-20 -9.87877e-16 0)
(-5.09878e-20 -9.87876e-16 0)
(-6.74155e-20 -9.87874e-16 0)
(-8.54948e-20 -9.87871e-16 0)
(-1.05944e-19 -9.87866e-16 0)
(-1.29801e-19 -9.87859e-16 0)
(-1.58561e-19 -9.87848e-16 0)
(-1.93941e-19 -9.87826e-16 0)
(-2.32612e-19 -9.87783e-16 0)
(-2.2512e-19 -9.87683e-16 0)
(-1.88032e-19 -9.87664e-16 0)
(-2.13866e-19 -9.87666e-16 0)
(-1.25641e-19 -9.87451e-16 0)
(1.53183e-20 -9.87584e-16 0)
(-2.43747e-20 -9.87696e-16 0)
(8.01997e-21 -9.87424e-16 0)
(-1.85569e-12 -7.91577e-16 0)
(-2.56719e-05 -1.83488e-09 0)
(-7.19727e-05 -2.81513e-06 0)
(-9.5388e-05 -4.27175e-07 0)
(-0.000106259 9.92721e-06 0)
(-0.000113684 -1.59563e-07 0)
(-0.000113106 -1.4037e-06 0)
(-0.000110539 -5.2006e-06 0)
(-0.000107322 -2.80017e-06 0)
(-0.000106563 -2.12323e-06 0)
(-0.000104725 -3.87039e-06 0)
(-0.000102349 -2.99284e-06 0)
(-0.000101235 -3.16774e-06 0)
(-9.99307e-05 -6.10324e-06 0)
(-9.79094e-05 -1.17425e-05 0)
(-9.51558e-05 -1.6488e-05 0)
(-9.08966e-05 -2.30732e-05 0)
(-8.40805e-05 -3.18989e-05 0)
(-7.33178e-05 -4.26229e-05 0)
(-5.76436e-05 -5.3608e-05 0)
(-3.70813e-05 -6.28542e-05 0)
(-1.28215e-05 -6.81831e-05 0)
(1.28215e-05 -6.81831e-05 0)
(3.70813e-05 -6.28542e-05 0)
(5.76436e-05 -5.3608e-05 0)
(7.33178e-05 -4.26229e-05 0)
(8.40805e-05 -3.18989e-05 0)
(9.08966e-05 -2.30732e-05 0)
(9.51558e-05 -1.6488e-05 0)
(9.79094e-05 -1.17425e-05 0)
(9.99307e-05 -6.10324e-06 0)
(0.000101235 -3.16774e-06 0)
(0.000102349 -2.99284e-06 0)
(0.000104725 -3.87039e-06 0)
(0.000106563 -2.12323e-06 0)
(0.000107322 -2.80017e-06 0)
(0.000110539 -5.2006e-06 0)
(0.000113106 -1.4037e-06 0)
(0.000113684 -1.59563e-07 0)
(0.000106259 9.92721e-06 0)
(9.5388e-05 -4.27175e-07 0)
(7.19727e-05 -2.81513e-06 0)
(2.56719e-05 -1.83488e-09 0)
(1.85569e-12 -7.91577e-16 0)
(-8.01997e-21 -9.87424e-16 0)
(2.43747e-20 -9.87696e-16 0)
(-1.53183e-20 -9.87584e-16 0)
(1.25641e-19 -9.87451e-16 0)
(2.13866e-19 -9.87666e-16 0)
(1.88032e-19 -9.87664e-16 0)
(2.2512e-19 -9.87683e-16 0)
(2.32612e-19 -9.87783e-16 0)
(1.93941e-19 -9.87826e-16 0)
(1.58561e-19 -9.87848e-16 0)
(1.29801e-19 -9.87859e-16 0)
(1.05944e-19 -9.87866e-16 0)
(8.54948e-20 -9.87871e-16 0)
(6.74155e-20 -9.87874e-16 0)
(5.09878e-20 -9.87876e-16 0)
(3.56937e-20 -9.87877e-16 0)
(2.11386e-20 -9.87878e-16 0)
(7.00113e-21 -9.87879e-16 0)
(-6.92546e-21 -9.87874e-16 0)
(-2.0904e-20 -9.87874e-16 0)
(-3.52759e-20 -9.87872e-16 0)
(-5.03393e-20 -9.87871e-16 0)
(-6.64523e-20 -9.87868e-16 0)
(-8.40684e-20 -9.87865e-16 0)
(-1.03781e-19 -9.87859e-16 0)
(-1.26358e-19 -9.87851e-16 0)
(-1.52662e-19 -9.87837e-16 0)
(-1.82784e-19 -9.87815e-16 0)
(-2.10885e-19 -9.87772e-16 0)
(-2.06604e-19 -9.87698e-16 0)
(-1.81712e-19 -9.8767e-16 0)
(-1.84171e-19 -9.87651e-16 0)
(-1.14682e-19 -9.8752e-16 0)
(-1.61325e-20 -9.87596e-16 0)
(-2.44121e-20 -9.87668e-16 0)
(-3.94252e-21 -9.87606e-16 0)
(-1.20967e-20 -9.87729e-16 0)
(-1.36017e-20 -9.87575e-16 0)
(-1.25442e-19 -8.43575e-16 0)
(-7.39425e-07 -1.52159e-15 0)
(-5.06341e-05 6.17493e-06 0)
(-0.000102524 -2.27339e-07 0)
(-0.000108068 -7.14421e-07 0)
(-0.000107666 -7.34732e-06 0)
(-0.000104578 -3.03344e-06 0)
(-0.00010516 -2.09396e-06 0)
(-0.000103489 -5.21255e-06 0)
(-0.000100884 -3.44906e-06 0)
(-0.000100565 -3.2826e-06 0)
(-0.000100728 -6.44384e-06 0)
(-0.00010017 -1.30313e-05 0)
(-9.87756e-05 -1.83933e-05 0)
(-9.64022e-05 -2.6234e-05 0)
(-9.16158e-05 -3.75816e-05 0)
(-8.20617e-05 -5.24455e-05 0)
(-6.60023e-05 -6.80372e-05 0)
(-4.32041e-05 -8.15924e-05 0)
(-1.50773e-05 -8.95405e-05 0)
(1.50773e-05 -8.95405e-05 0)
(4.32041e-05 -8.15924e-05 0)
(6.60023e-05 -6.80372e-05 0)
(8.20617e-05 -5.24455e-05 0)
(9.16158e-05 -3.75816e-05 0)
(9.64022e-05 -2.6234e-05 0)
(9.87756e-05 -1.83933e-05 0)
(0.00010017 -1.30313e-05 0)
(0.000100728 -6.44384e-06 0)
(0.000100565 -3.2826e-06 0)
(0.000100884 -3.44906e-06 0)
(0.000103489 -5.21255e-06 0)
(0.00010516 -2.09396e-06 0)
(0.000104578 -3.03344e-06 0)
(0.000107666 -7.34732e-06 0)
(0.000108068 -7.14421e-07 0)
(0.000102524 -2.27339e-07 0)
(5.06341e-05 6.17493e-06 0)
(7.39425e-07 -1.52159e-15 0)
(1.25442e-19 -8.43575e-16 0)
(1.36017e-20 -9.87575e-16 0)
(1.20967e-20 -9.87729e-16 0)
(3.94252e-21 -9.87606e-16 0)
(2.44121e-20 -9.87668e-16 0)
(1.61325e-20 -9.87596e-16 0)
(1.14682e-19 -9.8752e-16 0)
(1.84171e-19 -9.87651e-16 0)
(1.81712e-19 -9.8767e-16 0)
(2.06604e-19 -9.87698e-16 0)
(2.10885e-19 -9.87772e-16 0)
(1.82784e-19 -9.87815e-16 0)
(1.52662e-19 -9.87837e-16 0)
(1.26358e-19 -9.87851e-16 0)
(1.03781e-19 -9.87859e-16 0)
(8.40684e-20 -9.87865e-16 0)
(6.64523e-20 -9.87868e-16 0)
(5.03393e-20 -9.87871e-16 0)
(3.52759e-20 -9.87872e-16 0)
(2.0904e-20 -9.87874e-16 0)
(6.92546e-21 -9.87874e-16 0)
(-6.82569e-21 -9.87869e-16 0)
(-2.05951e-20 -9.87868e-16 0)
(-3.47268e-20 -9.87867e-16 0)
(-4.94902e-20 -9.87865e-16 0)
(-6.51986e-20 -9.87862e-16 0)
(-8.22287e-20 -9.87858e-16 0)
(-1.01031e-19 -9.87852e-16 0)
(-1.22093e-19 -9.87842e-16 0)
(-1.45689e-19 -9.87828e-16 0)
(-1.70813e-19 -9.87804e-16 0)
(-1.91307e-19 -9.87765e-16 0)
(-1.89003e-19 -9.87707e-16 0)
(-1.71189e-19 -9.87676e-16 0)
(-1.6105e-19 -9.87648e-16 0)
(-1.06479e-19 -9.87569e-16 0)
(-3.66e-20 -9.87609e-16 0)
(-2.82284e-20 -9.87655e-16 0)
(-1.33045e-20 -9.87632e-16 0)
(-1.5845e-20 -9.87699e-16 0)
(-1.85398e-20 -9.87653e-16 0)
(-2.85642e-20 -9.87723e-16 0)
(-1.68765e-19 -9.87741e-16 0)
(1.96753e-20 -9.72664e-16 0)
(-9.76527e-14 -7.73345e-16 0)
(-1.80338e-05 -5.09874e-10 0)
(-6.13586e-05 -4.30046e-06 0)
(-9.20268e-05 -1.5263e-06 0)
(-0.000100563 -9.87711e-07 0)
(-0.000101083 -7.13144e-06 0)
(-9.86036e-05 -3.64307e-06 0)
(-9.9699e-05 -2.92928e-06 0)
(-0.000101892 -6.01053e-06 0)
(-0.000103121 -1.35553e-05 0)
(-0.00010346 -1.8786e-05 0)
(-0.000104092 -2.72798e-05 0)
(-0.000103071 -4.13381e-05 0)
(-9.59727e-05 -6.25952e-05 0)
(-7.9634e-05 -8.50457e-05 0)
(-5.34468e-05 -0.000105711 0)
(-1.88939e-05 -0.0001181 0)
(1.88939e-05 -0.0001181 0)
(5.34468e-05 -0.000105711 0)
(7.9634e-05 -8.50457e-05 0)
(9.59727e-05 -6.25952e-05 0)
(0.000103071 -4.13381e-05 0)
(0.000104092 -2.72798e-05 0)
(0.00010346 -1.8786e-05 0)
(0.000103121 -1.35553e-05 0)
(0.000101892 -6.01053e-06 0)
(9.9699e-05 -2.92928e-06 0)
(9.86036e-05 -3.64307e-06 0)
(0.000101083 -7.13144e-06 0)
(0.000100563 -9.87711e-07 0)
(9.20268e-05 -1.5263e-06 0)
(6.13586e-05 -4.30046e-06 0)
(1.80338e-05 -5.09874e-10 0)
(9.76527e-14 -7.73345e-16 0)
(-1.96753e-20 -9.72664e-16 0)
(1.68765e-19 -9.87741e-16 0)
(2.85642e-20 -9.87723e-16 0)
(1.85398e-20 -9.87653e-16 0)
(1.5845e-20 -9.87699e-16 0)
(1.33045e-20 -9.87632e-16 0)
(2.82284e-20 -9.87655e-16 0)
(3.66e-20 -9.87609e-16 0)
(1.06479e-19 -9.87569e-16 0)
(1.6105e-19 -9.87648e-16 0)
(1.71189e-19 -9.87676e-16 0)
(1.89003e-19 -9.87707e-16 0)
(1.91307e-19 -9.87765e-16 0)
(1.70813e-19 -9.87804e-16 0)
(1.45689e-19 -9.87828e-16 0)
(1.22093e-19 -9.87842e-16 0)
(1.01031e-19 -9.87852e-16 0)
(8.22287e-20 -9.87858e-16 0)
(6.51986e-20 -9.87862e-16 0)
(4.94902e-20 -9.87865e-16 0)
(3.47268e-20 -9.87867e-16 0)
(2.05951e-20 -9.87868e-16 0)
(6.82569e-21 -9.87869e-16 0)
(-6.69763e-21 -9.87863e-16 0)
(-2.01991e-20 -9.87863e-16 0)
(-3.40248e-20 -9.87861e-16 0)
(-4.84095e-20 -9.87859e-16 0)
(-6.36146e-20 -9.87856e-16 0)
(-7.99308e-20 -9.87851e-16 0)
(-9.76587e-20 -9.87844e-16 0)
(-1.17014e-19 -9.87834e-16 0)
(-1.378e-19 -9.87818e-16 0)
(-1.58413e-19 -9.87795e-16 0)
(-1.73434e-19 -9.8776e-16 0)
(-1.72147e-19 -9.87714e-16 0)
(-1.58434e-19 -9.87682e-16 0)
(-1.4271e-19 -9.87652e-16 0)
(-9.98991e-20 -9.87604e-16 0)
(-4.93324e-20 -9.87623e-16 0)
(-3.34494e-20 -9.87651e-16 0)
(-2.08139e-20 -9.87647e-16 0)
(-1.99318e-20 -9.87683e-16 0)
(-2.27982e-20 -9.87666e-16 0)
(-3.63308e-20 -9.877e-16 0)
(-1.0045e-19 -9.87682e-16 0)
(1.25855e-20 -9.87439e-16 0)
(1.02129e-19 -9.87707e-16 0)
(7.62749e-20 -9.87604e-16 0)
(1.12146e-19 -8.91356e-16 0)
(-7.58447e-14 -7.39018e-16 0)
(-1.39026e-05 -1.48985e-10 0)
(-5.36249e-05 -4.13174e-06 0)
(-8.50984e-05 -1.81982e-06 0)
(-9.43782e-05 -1.30283e-06 0)
(-0.000101655 -4.13366e-06 0)
(-0.000105489 -1.35049e-05 0)
(-0.000107878 -1.64347e-05 0)
(-0.000113564 -2.37837e-05 0)
(-0.000120299 -3.94073e-05 0)
(-0.000118464 -7.26072e-05 0)
(-0.00010234 -0.000104873 0)
(-7.12961e-05 -0.000138618 0)
(-2.56436e-05 -0.00015923 0)
(2.56436e-05 -0.00015923 0)
(7.12961e-05 -0.000138618 0)
(0.00010234 -0.000104873 0)
(0.000118464 -7.26072e-05 0)
(0.000120299 -3.94073e-05 0)
(0.000113564 -2.37837e-05 0)
(0.000107878 -1.64347e-05 0)
(0.000105489 -1.35049e-05 0)
(0.000101655 -4.13366e-06 0)
(9.43782e-05 -1.30283e-06 0)
(8.50984e-05 -1.81982e-06 0)
(5.36249e-05 -4.13174e-06 0)
(1.39026e-05 -1.48985e-10 0)
(7.58447e-14 -7.39018e-16 0)
(-1.12146e-19 -8.91356e-16 0)
(-7.62749e-20 -9.87604e-16 0)
(-1.02129e-19 -9.87707e-16 0)
(-1.25855e-20 -9.87439e-16 0)
(1.0045e-19 -9.87682e-16 0)
(3.63308e-20 -9.877e-16 0)
(2.27982e-20 -9.87666e-16 0)
(1.99318e-20 -9.87683e-16 0)
(2.08139e-20 -9.87647e-16 0)
(3.34494e-20 -9.87651e-16 0)
(4.93324e-20 -9.87623e-16 0)
(9.98991e-20 -9.87604e-16 0)
(1.4271e-19 -9.87652e-16 0)
(1.58434e-19 -9.87682e-16 0)
(1.72147e-19 -9.87714e-16 0)
(1.73434e-19 -9.8776e-16 0)
(1.58413e-19 -9.87795e-16 0)
(1.378e-19 -9.87818e-16 0)
(1.17014e-19 -9.87834e-16 0)
(9.76587e-20 -9.87844e-16 0)
(7.99308e-20 -9.87851e-16 0)
(6.36146e-20 -9.87856e-16 0)
(4.84095e-20 -9.87859e-16 0)
(3.40248e-20 -9.87861e-16 0)
(2.01991e-20 -9.87863e-16 0)
(6.69763e-21 -9.87863e-16 0)
(-6.53698e-21 -9.87858e-16 0)
(-1.97031e-20 -9.87857e-16 0)
(-3.31485e-20 -9.87855e-16 0)
(-4.70684e-20 -9.87853e-16 0)
(-6.16661e-20 -9.87849e-16 0)
(-7.71421e-20 -9.87843e-16 0)
(-9.36504e-20 -9.87836e-16 0)
(-1.11171e-19 -9.87825e-16 0)
(-1.2918e-19 -9.87809e-16 0)
(-1.45876e-19 -9.87787e-16 0)
(-1.5693e-19 -9.87756e-16 0)
(-1.5602e-19 -9.87719e-16 0)
(-1.44826e-19 -9.87688e-16 0)
(-1.27742e-19 -9.8766e-16 0)
(-9.41564e-20 -9.87629e-16 0)
(-5.6706e-20 -9.87637e-16 0)
(-3.85586e-20 -9.87653e-16 0)
(-2.68166e-20 -9.87656e-16 0)
(-2.37019e-20 -9.87676e-16 0)
(-2.54417e-20 -9.87671e-16 0)
(-3.52352e-20 -9.87684e-16 0)
(-5.91895e-20 -9.8766e-16 0)
(9.27412e-21 -9.87542e-16 0)
(6.96211e-20 -9.87671e-16 0)
(6.80214e-20 -9.87659e-16 0)
(8.00877e-20 -9.87714e-16 0)
(2.85164e-20 -9.87773e-16 0)
(1.33311e-20 -9.87663e-16 0)
(7.34116e-20 -9.13039e-16 0)
(7.58076e-21 -7.83088e-16 0)
(-1.47348e-07 -8.60146e-16 0)
(-3.75728e-05 -1.35625e-06 0)
(-8.20629e-05 -6.70119e-06 0)
(-9.655e-05 -7.18753e-06 0)
(-0.000113847 -1.02466e-05 0)
(-0.000141318 -1.81804e-05 0)
(-0.000153181 -8.35202e-05 0)
(-0.000139698 -0.000123842 0)
(-0.000104198 -0.000186872 0)
(-3.82974e-05 -0.000224118 0)
(3.82974e-05 -0.000224118 0)
(0.000104198 -0.000186872 0)
(0.000139698 -0.000123842 0)
(0.000153181 -8.35202e-05 0)
(0.000141318 -1.81804e-05 0)
(0.000113847 -1.02466e-05 0)
(9.655e-05 -7.18753e-06 0)
(8.20629e-05 -6.70119e-06 0)
(3.75728e-05 -1.35625e-06 0)
(1.47348e-07 -8.60146e-16 0)
(-7.58076e-21 -7.83088e-16 0)
(-7.34116e-20 -9.13039e-16 0)
(-1.33311e-20 -9.87663e-16 0)
(-2.85164e-20 -9.87773e-16 0)
(-8.00877e-20 -9.87714e-16 0)
(-6.80214e-20 -9.87659e-16 0)
(-6.96211e-20 -9.87671e-16 0)
(-9.27412e-21 -9.87542e-16 0)
(5.91895e-20 -9.8766e-16 0)
(3.52352e-20 -9.87684e-16 0)
(2.54417e-20 -9.87671e-16 0)
(2.37019e-20 -9.87676e-16 0)
(2.68166e-20 -9.87656e-16 0)
(3.85586e-20 -9.87653e-16 0)
(5.6706e-20 -9.87637e-16 0)
(9.41564e-20 -9.87629e-16 0)
(1.27742e-19 -9.8766e-16 0)
(1.44826e-19 -9.87688e-16 0)
(1.5602e-19 -9.87719e-16 0)
(1.5693e-19 -9.87756e-16 0)
(1.45876e-19 -9.87787e-16 0)
(1.2918e-19 -9.87809e-16 0)
(1.11171e-19 -9.87825e-16 0)
(9.36504e-20 -9.87836e-16 0)
(7.71421e-20 -9.87843e-16 0)
(6.16661e-20 -9.87849e-16 0)
(4.70684e-20 -9.87853e-16 0)
(3.31485e-20 -9.87855e-16 0)
(1.97031e-20 -9.87857e-16 0)
(6.53698e-21 -9.87858e-16 0)
(-6.3397e-21 -9.87851e-16 0)
(-1.90952e-20 -9.8785e-16 0)
(-3.2079e-20 -9.87849e-16 0)
(-4.54424e-20 -9.87846e-16 0)
(-5.93281e-20 -9.87842e-16 0)
(-7.38475e-20 -9.87836e-16 0)
(-8.90224e-20 -9.87828e-16 0)
(-1.04652e-19 -9.87817e-16 0)
(-1.20025e-19 -9.87801e-16 0)
(-1.33415e-19 -9.8778e-16 0)
(-1.41563e-19 -9.87753e-16 0)
(-1.40683e-19 -9.87722e-16 0)
(-1.31248e-19 -9.87695e-16 0)
(-1.15098e-19 -9.8767e-16 0)
(-8.87412e-20 -9.87648e-16 0)
(-6.03801e-20 -9.87649e-16 0)
(-4.26981e-20 -9.87658e-16 0)
(-3.1428e-20 -9.87663e-16 0)
(-2.67271e-20 -9.87674e-16 0)
(-2.64999e-20 -9.87673e-16 0)
(-3.07958e-20 -9.87676e-16 0)
(-3.50638e-20 -9.87655e-16 0)
(7.49787e-21 -9.87601e-16 0)
(4.81292e-20 -9.87661e-16 0)
(5.58442e-20 -9.87672e-16 0)
(5.9475e-20 -9.87709e-16 0)
(3.23782e-20 -9.8774e-16 0)
(2.32403e-20 -9.87702e-16 0)
(4.58278e-20 -9.87716e-16 0)
(1.40437e-20 -9.87787e-16 0)
(-7.60721e-20 -9.87764e-16 0)
(4.02365e-20 -9.83471e-16 0)
(1.52066e-19 -8.9451e-16 0)
(5.45496e-20 -8.35219e-16 0)
(-6.49866e-12 -7.7009e-16 0)
(-5.18237e-06 -1.77188e-08 0)
(-5.17349e-05 -4.47615e-05 0)
(-0.000143701 -7.43965e-05 0)
(-0.000157859 -0.000258063 0)
(-6.07113e-05 -0.000334464 0)
(6.07113e-05 -0.000334464 0)
(0.000157859 -0.000258063 0)
(0.000143701 -7.43965e-05 0)
(5.17349e-05 -4.47615e-05 0)
(5.18237e-06 -1.77188e-08 0)
(6.49866e-12 -7.7009e-16 0)
(-5.45496e-20 -8.35219e-16 0)
(-1.52066e-19 -8.9451e-16 0)
(-4.02365e-20 -9.83471e-16 0)
(7.60721e-20 -9.87764e-16 0)
(-1.40437e-20 -9.87787e-16 0)
(-4.58278e-20 -9.87716e-16 0)
(-2.32403e-20 -9.87702e-16 0)
(-3.23782e-20 -9.8774e-16 0)
(-5.9475e-20 -9.87709e-16 0)
(-5.58442e-20 -9.87672e-16 0)
(-4.81292e-20 -9.87661e-16 0)
(-7.49787e-21 -9.87601e-16 0)
(3.50638e-20 -9.87655e-16 0)
(3.07958e-20 -9.87676e-16 0)
(2.64999e-20 -9.87673e-16 0)
(2.67271e-20 -9.87674e-16 0)
(3.1428e-20 -9.87663e-16 0)
(4.26981e-20 -9.87658e-16 0)
(6.03801e-20 -9.87649e-16 0)
(8.87412e-20 -9.87648e-16 0)
(1.15098e-19 -9.8767e-16 0)
(1.31248e-19 -9.87695e-16 0)
(1.40683e-19 -9.87722e-16 0)
(1.41563e-19 -9.87753e-16 0)
(1.33415e-19 -9.8778e-16 0)
(1.20025e-19 -9.87801e-16 0)
(1.04652e-19 -9.87817e-16 0)
(8.90224e-20 -9.87828e-16 0)
(7.38475e-20 -9.87836e-16 0)
(5.93281e-20 -9.87842e-16 0)
(4.54424e-20 -9.87846e-16 0)
(3.2079e-20 -9.87849e-16 0)
(1.90952e-20 -9.8785e-16 0)
(6.3397e-21 -9.87851e-16 0)
(-6.10241e-21 -9.87845e-16 0)
(-1.83656e-20 -9.87844e-16 0)
(-3.08014e-20 -9.87842e-16 0)
(-4.35153e-20 -9.87839e-16 0)
(-5.65895e-20 -9.87834e-16 0)
(-7.00534e-20 -9.87828e-16 0)
(-8.38213e-20 -9.8782e-16 0)
(-9.75709e-20 -9.87809e-16 0)
(-1.1053e-19 -9.87794e-16 0)
(-1.21189e-19 -9.87775e-16 0)
(-1.27191e-19 -9.87751e-16 0)
(-1.26215e-19 -9.87725e-16 0)
(-1.18201e-19 -9.87701e-16 0)
(-1.04037e-19 -9.8768e-16 0)
(-8.33531e-20 -9.87664e-16 0)
(-6.14727e-20 -9.87661e-16 0)
(-4.54747e-20 -9.87664e-16 0)
(-3.46791e-20 -9.87668e-16 0)
(-2.88148e-20 -9.87674e-16 0)
(-2.64164e-20 -9.87674e-16 0)
(-2.59344e-20 -9.87672e-16 0)
(-2.14827e-20 -9.87658e-16 0)
(6.08056e-21 -9.87635e-16 0)
(3.36103e-20 -9.87663e-16 0)
(4.36113e-20 -9.87679e-16 0)
(4.53182e-20 -9.87704e-16 0)
(3.16742e-20 -9.87723e-16 0)
(2.53827e-20 -9.87711e-16 0)
(3.05285e-20 -9.87722e-16 0)
(9.28246e-21 -9.87753e-16 0)
(-2.86491e-20 -9.8773e-16 0)
(2.13192e-20 -9.87626e-16 0)
(7.53568e-20 -9.87733e-16 0)
(4.82206e-20 -9.87758e-16 0)
(2.57909e-20 -9.8775e-16 0)
(2.95724e-20 -9.8768e-16 0)
(-1.68579e-09 -3.16843e-15 0)
(-4.80628e-06 -1.15014e-05 0)
(-3.87261e-05 -0.000263977 0)
(-3.39215e-05 -0.000447644 0)
(3.39215e-05 -0.000447644 0)
(3.87261e-05 -0.000263977 0)
(4.80628e-06 -1.15014e-05 0)
(1.68579e-09 -3.16843e-15 0)
(-2.95724e-20 -9.8768e-16 0)
(-2.57909e-20 -9.8775e-16 0)
(-4.82206e-20 -9.87758e-16 0)
(-7.53568e-20 -9.87733e-16 0)
(-2.13192e-20 -9.87626e-16 0)
(2.86491e-20 -9.8773e-16 0)
(-9.28246e-21 -9.87753e-16 0)
(-3.05285e-20 -9.87722e-16 0)
(-2.53827e-20 -9.87711e-16 0)
(-3.16742e-20 -9.87723e-16 0)
(-4.53182e-20 -9.87704e-16 0)
(-4.36113e-20 -9.87679e-16 0)
(-3.36103e-20 -9.87663e-16 0)
(-6.08056e-21 -9.87635e-16 0)
(2.14827e-20 -9.87658e-16 0)
(2.59344e-20 -9.87672e-16 0)
(2.64164e-20 -9.87674e-16 0)
(2.88148e-20 -9.87674e-16 0)
(3.46791e-20 -9.87668e-16 0)
(4.54747e-20 -9.87664e-16 0)
(6.14727e-20 -9.87661e-16 0)
(8.33531e-20 -9.87664e-16 0)
(1.04037e-19 -9.8768e-16 0)
(1.18201e-19 -9.87701e-16 0)
(1.26215e-19 -9.87725e-16 0)
(1.27191e-19 -9.87751e-16 0)
(1.21189e-19 -9.87775e-16 0)
(1.1053e-19 -9.87794e-16 0)
(9.75709e-20 -9.87809e-16 0)
(8.38213e-20 -9.8782e-16 0)
(7.00534e-20 -9.87828e-16 0)
(5.65895e-20 -9.87834e-16 0)
(4.35153e-20 -9.87839e-16 0)
(3.08014e-20 -9.87842e-16 0)
(1.83656e-20 -9.87844e-16 0)
(6.10241e-21 -9.87845e-16 0)
(-5.82284e-21 -9.87838e-16 0)
(-1.75082e-20 -9.87837e-16 0)
(-2.93082e-20 -9.87835e-16 0)
(-4.12824e-20 -9.87831e-16 0)
(-5.34568e-20 -9.87827e-16 0)
(-6.57915e-20 -9.87821e-16 0)
(-7.81227e-20 -9.87812e-16 0)
(-9.0066e-20 -9.87802e-16 0)
(-1.00877e-19 -9.87788e-16 0)
(-1.09321e-19 -9.8777e-16 0)
(-1.13738e-19 -9.8775e-16 0)
(-1.12675e-19 -9.87728e-16 0)
(-1.05926e-19 -9.87707e-16 0)
(-9.40623e-20 -9.87689e-16 0)
(-7.78392e-20 -9.87676e-16 0)
(-6.07245e-20 -9.87671e-16 0)
(-4.67987e-20 -9.87672e-16 0)
(-3.66131e-20 -9.87673e-16 0)
(-2.99577e-20 -9.87676e-16 0)
(-2.56906e-20 -9.87676e-16 0)
(-2.19157e-20 -9.87673e-16 0)
(-1.42344e-20 -9.87665e-16 0)
(4.53715e-21 -9.87655e-16 0)
(2.34857e-20 -9.8767e-16 0)
(3.29385e-20 -9.87684e-16 0)
(3.48703e-20 -9.87702e-16 0)
(2.84691e-20 -9.87714e-16 0)
(2.3948e-20 -9.87714e-16 0)
(2.24808e-20 -9.87721e-16 0)
(9.5814e-21 -9.87734e-16 0)
(-5.72033e-21 -9.87719e-16 0)
(1.5707e-20 -9.87679e-16 0)
(3.98224e-20 -9.87717e-16 0)
(3.33944e-20 -9.87731e-16 0)
(2.44126e-20 -9.87735e-16 0)
(1.76267e-20 -9.87736e-16 0)
(-3.00373e-11 -1.63503e-15 0)
(-1.22469e-07 -6.14397e-06 0)
(-4.44142e-06 -0.000221852 0)
(-4.31898e-06 -0.000496928 0)
(4.31898e-06 -0.000496928 0)