/*--------------------------------*- C++ -*----------------------------------*\
  =========                 |
  \\      /  F ield         | OpenFOAM: The Open Source CFD Toolbox
   \\    /   O peration     | Website:  https://openfoam.org
    \\  /    A nd           | Version:  10
     \\/     M anipulation  |
\*---------------------------------------------------------------------------*/
FoamFile
{
    format      ascii;
    class       volScalarField;
    location    "2.62";
    object      Sb;
}
// * * * * * * * * * * * * * * * * * * * * * * * * * * * * * * * * * * * * * //

dimensions      [0 0 0 0 0 0 0];

internalField   nonuniform List<scalar> 
12225
(
0.879667
0.87871
0.877516
0.876209
0.874873
0.873564
0.872316
0.87115
0.870079
0.869112
0.868258
0.867528
0.866939
0.866517
0.86632
0.866469
0.867297
0.869824
0.89106
0.889851
0.888358
0.886739
0.885101
0.88351
0.882005
0.880608
0.879333
0.878189
0.877182
0.876323
0.875628
0.875125
0.874869
0.874969
0.875654
0.877321
0.898206
0.896787
0.895051
0.893185
0.89131
0.889502
0.887802
0.886232
0.884806
0.883528
0.882406
0.881448
0.880667
0.880089
0.879759
0.879757
0.880209
0.881233
0.903873
0.902252
0.900285
0.898186
0.896094
0.894088
0.892211
0.890487
0.888924
0.887527
0.886301
0.885251
0.884386
0.883727
0.883305
0.883168
0.883369
0.88391
0.908829
0.906999
0.904797
0.902466
0.900158
0.897958
0.895911
0.894037
0.892343
0.890831
0.889502
0.888359
0.887406
0.886655
0.886125
0.885836
0.885795
0.885958
0.913406
0.911351
0.908901
0.906329
0.9038
0.901404
0.899184
0.897159
0.895334
0.893705
0.892272
0.891031
0.889983
0.889131
0.88848
0.888029
0.887762
0.887622
0.917785
0.915482
0.912765
0.909937
0.907176
0.904575
0.902177
0.899996
0.898035
0.896286
0.894743
0.893399
0.892247
0.891284
0.890503
0.889889
0.889415
0.889023
0.922083
0.9195
0.916489
0.913383
0.910374
0.907557
0.904972
0.902629
0.900526
0.89865
0.896991
0.895536
0.894273
0.893191
0.892274
0.8915
0.890835
0.890231
0.926387
0.923483
0.920142
0.916732
0.913455
0.910406
0.907622
0.905108
0.902854
0.900845
0.899062
0.897489
0.896107
0.894899
0.893844
0.892914
0.892076
0.891288
0.930767
0.927488
0.923773
0.920026
0.916456
0.913157
0.91016
0.907463
0.90505
0.902898
0.900985
0.899286
0.897779
0.896441
0.895247
0.894167
0.893171
0.892223
0.93529
0.931564
0.92742
0.923294
0.919401
0.91583
0.912605
0.909713
0.907131
0.904829
0.902777
0.900946
0.899308
0.897838
0.896506
0.895283
0.894141
0.89305
0.940025
0.935755
0.931111
0.926555
0.922304
0.918438
0.914966
0.911868
0.909106
0.906645
0.904447
0.902479
0.900707
0.899102
0.897634
0.896275
0.894997
0.893776
0.944292
0.939446
0.934295
0.929319
0.924726
0.920582
0.916884
0.913596
0.910673
0.908068
0.90574
0.903649
0.901759
0.900039
0.898457
0.896988
0.895605
0.894285
0.949462
0.943813
0.937986
0.932466
0.927443
0.922959
0.918987
0.915472
0.912357
0.909584
0.907105
0.904873
0.902852
0.901005
0.899302
0.897715
0.89622
0.894798
0.955814
0.949002
0.94225
0.936015
0.930447
0.925543
0.92124
0.917459
0.914122
0.911158
0.908509
0.906123
0.903958
0.901975
0.90014
0.898427
0.896811
0.895274
0.96383
0.955264
0.947186
0.939979
0.933706
0.928284
0.923592
0.919508
0.915927
0.91276
0.909932
0.90738
0.905054
0.902911
0.900917
0.899047
0.897278
0.895595
0.975028
0.963819
0.95371
0.945112
0.937908
0.93183
0.926639
0.922147
0.918215
0.914724
0.911561
0.908677
0.906031
0.903587
0.901317
0.899198
0.897211
0.89534
0.960351
0.95258
0.945273
0.938649
0.932749
0.927528
0.922906
0.918795
0.915117
0.91181
0.908842
0.906135
0.903615
0.901264
0.899064
0.897002
0.895064
0.89324
0.945869
0.940585
0.935212
0.930088
0.925336
0.920987
0.917026
0.913421
0.910133
0.907122
0.904354
0.901815
0.8995
0.897351
0.89534
0.893453
0.891679
0.890005
0.935441
0.931578
0.927384
0.923205
0.919204
0.915448
0.911959
0.90873
0.905744
0.902982
0.900419
0.898036
0.895814
0.893766
0.891853
0.890054
0.888358
0.886757
0.926487
0.923528
0.92016
0.916687
0.913274
0.910005
0.906916
0.904019
0.901311
0.898781
0.896417
0.894206
0.892134
0.890188
0.888385
0.886687
0.885085
0.883572
0.918572
0.91622
0.91345
0.910516
0.907572
0.904704
0.901957
0.899351
0.896892
0.894577
0.8924
0.890353
0.888425
0.88661
0.884898
0.883302
0.881793
0.880366
0.911387
0.909463
0.907141
0.90463
0.902066
0.899534
0.89708
0.89473
0.892494
0.890375
0.888372
0.886478
0.884689
0.882997
0.881396
0.879894
0.878473
0.877127
0.90469
0.903085
0.90111
0.898938
0.89669
0.894443
0.892244
0.89012
0.888086
0.886147
0.884303
0.882554
0.880894
0.87932
0.877827
0.876411
0.875077
0.873812
0.898278
0.896919
0.895222
0.89333
0.891348
0.889348
0.887374
0.885454
0.883603
0.88183
0.880136
0.878522
0.876986
0.875524
0.874134
0.872811
0.87156
0.870372
0.891939
0.89078
0.889312
0.887658
0.885908
0.884127
0.882355
0.880621
0.878941
0.877322
0.87577
0.874285
0.872866
0.871513
0.870222
0.868991
0.867823
0.866711
0.885417
0.884425
0.883155
0.881709
0.880167
0.878584
0.877
0.875441
0.873921
0.872451
0.871035
0.869675
0.868373
0.867126
0.865933
0.864794
0.863705
0.862671
0.8783
0.877455
0.876363
0.875109
0.87376
0.872366
0.870962
0.869573
0.868212
0.866889
0.86561
0.864377
0.863192
0.862054
0.860962
0.859916
0.858914
0.85796
0.8697
0.868996
0.868075
0.867008
0.865852
0.86465
0.863432
0.862219
0.861025
0.859859
0.858726
0.85763
0.856573
0.855554
0.854573
0.853631
0.852726
0.851861
0.856303
0.855748
0.855013
0.854155
0.853216
0.852232
0.851226
0.850218
0.849218
0.848235
0.847275
0.84634
0.845433
0.844554
0.843704
0.842884
0.842092
0.841333
0.772221
0.772225
0.772223
0.772214
0.772198
0.772175
0.772145
0.772108
0.772065
0.772017
0.771964
0.771908
0.771849
0.771788
0.771727
0.771666
0.771608
0.771553
0.771502
0.771458
0.771422
0.771395
0.77138
0.771379
0.771394
0.771428
0.771483
0.771564
0.771674
0.771816
0.771995
0.772216
0.772484
0.772804
0.773185
0.773632
0.774153
0.774757
0.775451
0.776241
0.777134
0.77813
0.779225
0.78041
0.781669
0.782977
0.784303
0.785614
0.786875
0.788054
0.789127
0.790072
0.790878
0.791535
0.792034
0.792361
0.79249
0.792367
0.791884
0.790811
0.788604
0.783696
0.769516
0.659252
0.0498022
2.2936e-06
1.1e-06
1.1e-06
1.1e-06
1.1e-06
1.1e-06
1.1e-06
1.1e-06
1.1e-06
1.1e-06
1.1e-06
1.1e-06
1.1e-06
1.1e-06
1.1e-06
1.1e-06
1.1e-06
1.1e-06
1.1e-06
1.1e-06
1.1e-06
1.1e-06
1.1e-06
1.1e-06
1.1e-06
1.1e-06
1.1e-06
1.1e-06
1.1e-06
1.1e-06
1.1e-06
1.1e-06
1.1e-06
1.1e-06
1.1e-06
1.1e-06
1.1e-06
1.1e-06
1.1e-06
1.1e-06
1.1e-06
1.1e-06
1.1e-06
1.1e-06
1.1e-06
1.1e-06
1.1e-06
1.1e-06
1.1e-06
1.1e-06
1.1e-06
1.1e-06
1.1e-06
1.1e-06
1.1e-06
1.1e-06
1.1e-06
1.1e-06
1.1e-06
1.1e-06
1.1e-06
1.1e-06
1.1e-06
1.1e-06
1.1e-06
1.1e-06
1.1e-06
1.1e-06
1.1e-06
1.1e-06
1.1e-06
1.1e-06
1.1e-06
1.1e-06
1.1e-06
1.1e-06
1.1e-06
1.1e-06
1.1e-06
1.1e-06
1.1e-06
1.1e-06
1.1e-06
1.1e-06
1.1e-06
1.1e-06
1.1e-06
1.1e-06
1.1e-06
1.1e-06
1.1e-06
1.1e-06
1.1e-06
1.1e-06
1.1e-06
1.1e-06
1.1e-06
1.1e-06
1.1e-06
1.1e-06
1.1e-06
1.1e-06
1.1e-06
1.1e-06
1.1e-06
1.1e-06
1.1e-06
1.1e-06
1.1e-06
1.1e-06
1.1e-06
1.1e-06
1.1e-06
1.1e-06
1.1e-06
0.810318
0.810347
0.810375
0.810402
0.810427
0.810451
0.810475
0.810502
0.810536
0.810582
0.810642
0.810723
0.810828
0.810962
0.811129
0.811332
0.811574
0.811858
0.812184
0.812551
0.812958
0.813399
0.813868
0.814354
0.814847
0.815333
0.815799
0.816232
0.816618
0.816946
0.817208
0.817398
0.81751
0.817543
0.817499
0.817378
0.817185
0.816924
0.816599
0.816216
0.815779
0.815295
0.814767
0.8142
0.813599
0.812968
0.81231
0.811629
0.810928
0.810207
0.809466
0.808704
0.807914
0.807088
0.80621
0.805254
0.80418
0.80292
0.801356
0.799264
0.796159
0.790767
0.778362
0.715918
0.127837
1.59078e-05
1.1e-06
1.1e-06
1.1e-06
1.1e-06
1.1e-06
1.1e-06
1.1e-06
1.1e-06
1.1e-06
1.1e-06
1.1e-06
1.1e-06
1.1e-06
1.1e-06
1.1e-06
1.1e-06
1.1e-06
1.1e-06
1.1e-06
1.1e-06
1.1e-06
1.1e-06
1.1e-06
1.1e-06
1.1e-06
1.1e-06
1.1e-06
1.1e-06
1.1e-06
1.1e-06
1.1e-06
1.1e-06
1.1e-06
1.1e-06
1.1e-06
1.1e-06
1.1e-06
1.1e-06
1.1e-06
1.1e-06
1.1e-06
1.1e-06
1.1e-06
1.1e-06
1.1e-06
1.1e-06
1.1e-06
1.1e-06
1.1e-06
1.1e-06
1.1e-06
1.1e-06
1.1e-06
1.1e-06
1.1e-06
1.1e-06
1.1e-06
1.1e-06
1.1e-06
1.1e-06
1.1e-06
1.1e-06
1.1e-06
1.1e-06
1.1e-06
1.1e-06
1.1e-06
1.1e-06
1.1e-06
1.1e-06
1.1e-06
1.1e-06
1.1e-06
1.1e-06
1.1e-06
1.1e-06
1.1e-06
1.1e-06
1.1e-06
1.1e-06
1.1e-06
1.1e-06
1.1e-06
1.1e-06
1.1e-06
1.1e-06
1.1e-06
1.1e-06
1.1e-06
1.1e-06
1.1e-06
1.1e-06
1.1e-06
1.1e-06
1.1e-06
1.1e-06
1.1e-06
1.1e-06
1.1e-06
1.1e-06
1.1e-06
1.1e-06
1.1e-06
1.1e-06
1.1e-06
1.1e-06
1.1e-06
1.1e-06
1.1e-06
1.1e-06
1.1e-06
1.1e-06
1.1e-06
1.1e-06
0.821096
0.821144
0.821186
0.821222
0.821251
0.821274
0.821291
0.821305
0.821319
0.821337
0.821361
0.821397
0.821448
0.821516
0.821606
0.82172
0.821859
0.822025
0.822219
0.822439
0.822681
0.822941
0.823212
0.823483
0.823746
0.823988
0.824197
0.824362
0.824474
0.824523
0.824505
0.824416
0.824253
0.824019
0.823715
0.823344
0.822912
0.822424
0.821885
0.821302
0.820679
0.820022
0.819337
0.818628
0.817899
0.817155
0.816397
0.815629
0.81485
0.814061
0.813259
0.812439
0.811594
0.810711
0.809773
0.808753
0.807609
0.806278
0.804651
0.802532
0.799516
0.794609
0.784511
0.747591
0.268668
0.000134713
1.1e-06
1.1e-06
1.1e-06
1.1e-06
1.1e-06
1.1e-06
1.1e-06
1.1e-06
1.1e-06
1.1e-06
1.1e-06
1.1e-06
1.1e-06
1.1e-06
1.1e-06
1.1e-06
1.1e-06
1.1e-06
1.1e-06
1.1e-06
1.1e-06
1.1e-06
1.1e-06
1.1e-06
1.1e-06
1.1e-06
1.1e-06
1.1e-06
1.1e-06
1.1e-06
1.1e-06
1.1e-06
1.1e-06
1.1e-06
1.1e-06
1.1e-06
1.1e-06
1.1e-06
1.1e-06
1.1e-06
1.1e-06
1.1e-06
1.1e-06
1.1e-06
1.1e-06
1.1e-06
1.1e-06
1.1e-06
1.1e-06
1.1e-06
1.1e-06
1.1e-06
1.1e-06
1.1e-06
1.1e-06
1.1e-06
1.1e-06
1.1e-06
1.1e-06
1.1e-06
1.1e-06
1.1e-06
1.1e-06
1.1e-06
1.1e-06
1.1e-06
1.1e-06
1.1e-06
1.1e-06
1.1e-06
1.1e-06
1.1e-06
1.1e-06
1.1e-06
1.1e-06
1.1e-06
1.1e-06
1.1e-06
1.1e-06
1.1e-06
1.1e-06
1.1e-06
1.1e-06
1.1e-06
1.1e-06
1.1e-06
1.1e-06
1.1e-06
1.1e-06
1.1e-06
1.1e-06
1.1e-06
1.1e-06
1.1e-06
1.1e-06
1.1e-06
1.1e-06
1.1e-06
1.1e-06
1.1e-06
1.1e-06
1.1e-06
1.1e-06
1.1e-06
1.1e-06
1.1e-06
1.1e-06
1.1e-06
1.1e-06
1.1e-06
1.1e-06
1.1e-06
1.1e-06
1.1e-06
0.827546
0.827621
0.827685
0.827738
0.82778
0.82781
0.827828
0.827834
0.827831
0.82782
0.827802
0.82778
0.827754
0.827726
0.827697
0.827669
0.827641
0.827614
0.827588
0.827562
0.827533
0.827501
0.827462
0.827413
0.82735
0.82727
0.827169
0.827042
0.826886
0.826699
0.826477
0.826219
0.825923
0.825589
0.825218
0.824809
0.824365
0.823888
0.823379
0.822842
0.822279
0.821693
0.821085
0.82046
0.819818
0.81916
0.818489
0.817802
0.817101
0.816381
0.815638
0.814868
0.81406
0.813202
0.812278
0.81126
0.810113
0.808779
0.807165
0.805105
0.802276
0.797932
0.789882
0.767563
0.502286
0.00274888
1.1e-06
1.1e-06
1.1e-06
1.1e-06
1.1e-06
1.1e-06
1.1e-06
1.1e-06
1.1e-06
1.1e-06
1.1e-06
1.1e-06
1.1e-06
1.1e-06
1.1e-06
1.1e-06
1.1e-06
1.1e-06
1.1e-06
1.1e-06
1.1e-06
1.1e-06
1.1e-06
1.1e-06
1.1e-06
1.1e-06
1.1e-06
1.1e-06
1.1e-06
1.1e-06
1.1e-06
1.1e-06
1.1e-06
1.1e-06
1.1e-06
1.1e-06
1.1e-06
1.1e-06
1.1e-06
1.1e-06
1.1e-06
1.1e-06
1.1e-06
1.1e-06
1.1e-06
1.1e-06
1.1e-06
1.1e-06
1.1e-06
1.1e-06
1.1e-06
1.1e-06
1.1e-06
1.1e-06
1.1e-06
1.1e-06
1.1e-06
1.1e-06
1.1e-06
1.1e-06
1.1e-06
1.1e-06
1.1e-06
1.1e-06
1.1e-06
1.1e-06
1.1e-06
1.1e-06
1.1e-06
1.1e-06
1.1e-06
1.1e-06
1.1e-06
1.1e-06
1.1e-06
1.1e-06
1.1e-06
1.1e-06
1.1e-06
1.1e-06
1.1e-06
1.1e-06
1.1e-06
1.1e-06
1.1e-06
1.1e-06
1.1e-06
1.1e-06
1.1e-06
1.1e-06
1.1e-06
1.1e-06
1.1e-06
1.1e-06
1.1e-06
1.1e-06
1.1e-06
1.1e-06
1.1e-06
1.1e-06
1.1e-06
1.1e-06
1.1e-06
1.1e-06
1.1e-06
1.1e-06
1.1e-06
1.1e-06
1.1e-06
1.1e-06
1.1e-06
1.1e-06
1.1e-06
1.1e-06
0.832373
0.832479
0.83257
0.832645
0.832704
0.832746
0.832772
0.83278
0.832771
0.832746
0.832706
0.832652
0.832584
0.832502
0.832408
0.832303
0.832186
0.832057
0.831917
0.831766
0.831603
0.831427
0.831238
0.831034
0.830815
0.830579
0.830324
0.830051
0.829756
0.82944
0.8291
0.828738
0.828351
0.827941
0.827506
0.827048
0.826567
0.826064
0.82554
0.824996
0.824434
0.823854
0.823258
0.822646
0.822019
0.821376
0.820718
0.820042
0.819347
0.81863
0.817884
0.817105
0.816284
0.815408
0.814462
0.813422
0.812257
0.810915
0.809319
0.807333
0.804702
0.800875
0.794395
0.779656
0.694545
0.0637789
3.58048e-06
1.1e-06
1.1e-06
1.1e-06
1.1e-06
1.1e-06
1.1e-06
1.1e-06
1.1e-06
1.1e-06
1.1e-06
1.1e-06
1.1e-06
1.1e-06
1.1e-06
1.1e-06
1.1e-06
1.1e-06
1.1e-06
1.1e-06
1.1e-06
1.1e-06
1.1e-06
1.1e-06
1.1e-06
1.1e-06
1.1e-06
1.1e-06
1.1e-06
1.1e-06
1.1e-06
1.1e-06
1.1e-06
1.1e-06
1.1e-06
1.1e-06
1.1e-06
1.1e-06
1.1e-06
1.1e-06
1.1e-06
1.1e-06
1.1e-06
1.1e-06
1.1e-06
1.1e-06
1.1e-06
1.1e-06
1.1e-06
1.1e-06
1.1e-06
1.1e-06
1.1e-06
1.1e-06
1.1e-06
1.1e-06
1.1e-06
1.1e-06
1.1e-06
1.1e-06
1.1e-06
1.1e-06
1.1e-06
1.1e-06
1.1e-06
1.1e-06
1.1e-06
1.1e-06
1.1e-06
1.1e-06
1.1e-06
1.1e-06
1.1e-06
1.1e-06
1.1e-06
1.1e-06
1.1e-06
1.1e-06
1.1e-06
1.1e-06
1.1e-06
1.1e-06
1.1e-06
1.1e-06
1.1e-06
1.1e-06
1.1e-06
1.1e-06
1.1e-06
1.1e-06
1.1e-06
1.1e-06
1.1e-06
1.1e-06
1.1e-06
1.1e-06
1.1e-06
1.1e-06
1.1e-06
1.1e-06
1.1e-06
1.1e-06
1.1e-06
1.1e-06
1.1e-06
1.1e-06
1.1e-06
1.1e-06
1.1e-06
1.1e-06
1.1e-06
1.1e-06
1.1e-06
1.1e-06
0.83637
0.83651
0.83663
0.83673
0.83681
0.836868
0.836904
0.836918
0.83691
0.83688
0.836828
0.836755
0.836661
0.836546
0.836412
0.836258
0.836085
0.835894
0.835684
0.835457
0.835212
0.83495
0.834671
0.834374
0.83406
0.833728
0.833379
0.833012
0.832627
0.832225
0.831804
0.831365
0.830908
0.830433
0.829941
0.829432
0.828906
0.828363
0.827805
0.827232
0.826644
0.826041
0.825425
0.824794
0.824149
0.823488
0.822811
0.822115
0.821398
0.820656
0.819885
0.819079
0.818228
0.817323
0.81635
0.815286
0.814106
0.812765
0.811198
0.809294
0.806855
0.803473
0.798165
0.787723
0.751627
0.264717
0.000127398
1.1e-06
1.1e-06
1.1e-06
1.1e-06
1.1e-06
1.1e-06
1.1e-06
1.1e-06
1.1e-06
1.1e-06
1.1e-06
1.1e-06
1.1e-06
1.1e-06
1.1e-06
1.1e-06
1.1e-06
1.1e-06
1.1e-06
1.1e-06
1.1e-06
1.1e-06
1.1e-06
1.1e-06
1.1e-06
1.1e-06
1.1e-06
1.1e-06
1.1e-06
1.1e-06
1.1e-06
1.1e-06
1.1e-06
1.1e-06
1.1e-06
1.1e-06
1.1e-06
1.1e-06
1.1e-06
1.1e-06
1.1e-06
1.1e-06
1.1e-06
1.1e-06
1.1e-06
1.1e-06
1.1e-06
1.1e-06
1.1e-06
1.1e-06
1.1e-06
1.1e-06
1.1e-06
1.1e-06
1.1e-06
1.1e-06
1.1e-06
1.1e-06
1.1e-06
1.1e-06
1.1e-06
1.1e-06
1.1e-06
1.1e-06
1.1e-06
1.1e-06
1.1e-06
1.1e-06
1.1e-06
1.1e-06
1.1e-06
1.1e-06
1.1e-06
1.1e-06
1.1e-06
1.1e-06
1.1e-06
1.1e-06
1.1e-06
1.1e-06
1.1e-06
1.1e-06
1.1e-06
1.1e-06
1.1e-06
1.1e-06
1.1e-06
1.1e-06
1.1e-06
1.1e-06
1.1e-06
1.1e-06
1.1e-06
1.1e-06
1.1e-06
1.1e-06
1.1e-06
1.1e-06
1.1e-06
1.1e-06
1.1e-06
1.1e-06
1.1e-06
1.1e-06
1.1e-06
1.1e-06
1.1e-06
1.1e-06
1.1e-06
1.1e-06
1.1e-06
1.1e-06
1.1e-06
0.839876
0.84005
0.840201
0.840328
0.84043
0.840506
0.840555
0.840578
0.840573
0.840541
0.840481
0.840395
0.840282
0.840143
0.839979
0.83979
0.839576
0.839339
0.839079
0.838797
0.838494
0.838169
0.837825
0.837461
0.837078
0.836677
0.836258
0.835821
0.835368
0.834897
0.834411
0.833909
0.833392
0.83286
0.832313
0.831752
0.831178
0.83059
0.82999
0.829376
0.82875
0.828112
0.82746
0.826796
0.826117
0.825424
0.824714
0.823985
0.823235
0.82246
0.821656
0.820817
0.819935
0.819001
0.818001
0.816919
0.815729
0.814396
0.812864
0.811044
0.808781
0.805773
0.801352
0.793639
0.774477
0.598574
0.0110711
1.102e-06
1.1e-06
1.1e-06
1.1e-06
1.1e-06
1.1e-06
1.1e-06
1.1e-06
1.1e-06
1.1e-06
1.1e-06
1.1e-06
1.1e-06
1.1e-06
1.1e-06
1.1e-06
1.1e-06
1.1e-06
1.1e-06
1.1e-06
1.1e-06
1.1e-06
1.1e-06
1.1e-06
1.1e-06
1.1e-06
1.1e-06
1.1e-06
1.1e-06
1.1e-06
1.1e-06
1.1e-06
1.1e-06
1.1e-06
1.1e-06
1.1e-06
1.1e-06
1.1e-06
1.1e-06
1.1e-06
1.1e-06
1.1e-06
1.1e-06
1.1e-06
1.1e-06
1.1e-06
1.1e-06
1.1e-06
1.1e-06
1.1e-06
1.1e-06
1.1e-06
1.1e-06
1.1e-06
1.1e-06
1.1e-06
1.1e-06
1.1e-06
1.1e-06
1.1e-06
1.1e-06
1.1e-06
1.1e-06
1.1e-06
1.1e-06
1.1e-06
1.1e-06
1.1e-06
1.1e-06
1.1e-06
1.1e-06
1.1e-06
1.1e-06
1.1e-06
1.1e-06
1.1e-06
1.1e-06
1.1e-06
1.1e-06
1.1e-06
1.1e-06
1.1e-06
1.1e-06
1.1e-06
1.1e-06
1.1e-06
1.1e-06
1.1e-06
1.1e-06
1.1e-06
1.1e-06
1.1e-06
1.1e-06
1.1e-06
1.1e-06
1.1e-06
1.1e-06
1.1e-06
1.1e-06
1.1e-06
1.1e-06
1.1e-06
1.1e-06
1.1e-06
1.1e-06
1.1e-06
1.1e-06
1.1e-06
1.1e-06
1.1e-06
1.1e-06
1.1e-06
1.1e-06
0.843062
0.843272
0.843455
0.843609
0.843734
0.843829
0.843893
0.843924
0.843924
0.843891
0.843826
0.843729
0.8436
0.84344
0.84325
0.84303
0.842781
0.842505
0.842203
0.841875
0.841522
0.841146
0.840747
0.840328
0.839887
0.839427
0.838949
0.838453
0.83794
0.837411
0.836867
0.836308
0.835735
0.835149
0.83455
0.833938
0.833315
0.83268
0.832033
0.831375
0.830706
0.830026
0.829334
0.82863
0.827912
0.82718
0.826433
0.825667
0.824881
0.82407
0.823232
0.822361
0.821449
0.820489
0.819468
0.818372
0.817178
0.815857
0.814362
0.812621
0.810512
0.807811
0.80405
0.798059
0.785774
0.735324
0.156296
2.89891e-05
1.1e-06
1.1e-06
1.1e-06
1.1e-06
1.1e-06
1.1e-06
1.1e-06
1.1e-06
1.1e-06
1.1e-06
1.1e-06
1.1e-06
1.1e-06
1.1e-06
1.1e-06
1.1e-06
1.1e-06
1.1e-06
1.1e-06
1.1e-06
1.1e-06
1.1e-06
1.1e-06
1.1e-06
1.1e-06
1.1e-06
1.1e-06
1.1e-06
1.1e-06
1.1e-06
1.1e-06
1.1e-06
1.1e-06
1.1e-06
1.1e-06
1.1e-06
1.1e-06
1.1e-06
1.1e-06
1.1e-06
1.1e-06
1.1e-06
1.1e-06
1.1e-06
1.1e-06
1.1e-06
1.1e-06
1.1e-06
1.1e-06
1.1e-06
1.1e-06
1.1e-06
1.1e-06
1.1e-06
1.1e-06
1.1e-06
1.1e-06
1.1e-06
1.1e-06
1.1e-06
1.1e-06
1.1e-06
1.1e-06
1.1e-06
1.1e-06
1.1e-06
1.1e-06
1.1e-06
1.1e-06
1.1e-06
1.1e-06
1.1e-06
1.1e-06
1.1e-06
1.1e-06
1.1e-06
1.1e-06
1.1e-06
1.1e-06
1.1e-06
1.1e-06
1.1e-06
1.1e-06
1.1e-06
1.1e-06
1.1e-06
1.1e-06
1.1e-06
1.1e-06
1.1e-06
1.1e-06
1.1e-06
1.1e-06
1.1e-06
1.1e-06
1.1e-06
1.1e-06
1.1e-06
1.1e-06
1.1e-06
1.1e-06
1.1e-06
1.1e-06
1.1e-06
1.1e-06
1.1e-06
1.1e-06
1.1e-06
1.1e-06
1.1e-06
1.1e-06
1.1e-06
0.846023
0.846269
0.846485
0.846669
0.846819
0.846933
0.847012
0.847053
0.847057
0.847024
0.846953
0.846844
0.8467
0.846519
0.846304
0.846055
0.845773
0.84546
0.845117
0.844746
0.844348
0.843923
0.843475
0.843004
0.84251
0.841997
0.841464
0.840913
0.840346
0.839762
0.839164
0.838551
0.837925
0.837287
0.836636
0.835975
0.835302
0.834619
0.833926
0.833223
0.832509
0.831785
0.831051
0.830305
0.829547
0.828775
0.827989
0.827186
0.826364
0.825519
0.824649
0.823747
0.822809
0.821826
0.820787
0.819681
0.818487
0.81718
0.815722
0.814053
0.812077
0.809625
0.806363
0.801533
0.792923
0.769966
0.498431
0.00244045
1.1e-06
1.1e-06
1.1e-06
1.1e-06
1.1e-06
1.1e-06
1.1e-06
1.1e-06
1.1e-06
1.1e-06
1.1e-06
1.1e-06
1.1e-06
1.1e-06
1.1e-06
1.1e-06
1.1e-06
1.1e-06
1.1e-06
1.1e-06
1.1e-06
1.1e-06
1.1e-06
1.1e-06
1.1e-06
1.1e-06
1.1e-06
1.1e-06
1.1e-06
1.1e-06
1.1e-06
1.1e-06
1.1e-06
1.1e-06
1.1e-06
1.1e-06
1.1e-06
1.1e-06
1.1e-06
1.1e-06
1.1e-06
1.1e-06
1.1e-06
1.1e-06
1.1e-06
1.1e-06
1.1e-06
1.1e-06
1.1e-06
1.1e-06
1.1e-06
1.1e-06
1.1e-06
1.1e-06
1.1e-06
1.1e-06
1.1e-06
1.1e-06
1.1e-06
1.1e-06
1.1e-06
1.1e-06
1.1e-06
1.1e-06
1.1e-06
1.1e-06
1.1e-06
1.1e-06
1.1e-06
1.1e-06
1.1e-06
1.1e-06
1.1e-06
1.1e-06
1.1e-06
1.1e-06
1.1e-06
1.1e-06
1.1e-06
1.1e-06
1.1e-06
1.1e-06
1.1e-06
1.1e-06
1.1e-06
1.1e-06
1.1e-06
1.1e-06
1.1e-06
1.1e-06
1.1e-06
1.1e-06
1.1e-06
1.1e-06
1.1e-06
1.1e-06
1.1e-06
1.1e-06
1.1e-06
1.1e-06
1.1e-06
1.1e-06
1.1e-06
1.1e-06
1.1e-06
1.1e-06
1.1e-06
1.1e-06
1.1e-06
1.1e-06
1.1e-06
1.1e-06
0.848813
0.849098
0.849349
0.849563
0.849739
0.849874
0.849968
0.85002
0.850028
0.849993
0.849916
0.849796
0.849635
0.849433
0.849191
0.848912
0.848597
0.848246
0.847863
0.847449
0.847005
0.846534
0.846036
0.845514
0.84497
0.844404
0.843819
0.843216
0.842595
0.841959
0.841308
0.840643
0.839966
0.839277
0.838577
0.837866
0.837145
0.836415
0.835676
0.834927
0.834169
0.833402
0.832625
0.831838
0.83104
0.83023
0.829406
0.828567
0.82771
0.826834
0.825933
0.825004
0.824042
0.823039
0.821986
0.820872
0.81968
0.818388
0.816964
0.815359
0.813497
0.811247
0.808365
0.804341
0.797861
0.78417
0.719881
0.104602
1.09476e-05
1.1e-06
1.1e-06
1.1e-06
1.1e-06
1.1e-06
1.1e-06
1.1e-06
1.1e-06
1.1e-06
1.1e-06
1.1e-06
1.1e-06
1.1e-06
1.1e-06
1.1e-06
1.1e-06
1.1e-06
1.1e-06
1.1e-06
1.1e-06
1.1e-06
1.1e-06
1.1e-06
1.1e-06
1.1e-06
1.1e-06
1.1e-06
1.1e-06
1.1e-06
1.1e-06
1.1e-06
1.1e-06
1.1e-06
1.1e-06
1.1e-06
1.1e-06
1.1e-06
1.1e-06
1.1e-06
1.1e-06
1.1e-06
1.1e-06
1.1e-06
1.1e-06
1.1e-06
1.1e-06
1.1e-06
1.1e-06
1.1e-06
1.1e-06
1.1e-06
1.1e-06
1.1e-06
1.1e-06
1.1e-06
1.1e-06
1.1e-06
1.1e-06
1.1e-06
1.1e-06
1.1e-06
1.1e-06
1.1e-06
1.1e-06
1.1e-06
1.1e-06
1.1e-06
1.1e-06
1.1e-06
1.1e-06
1.1e-06
1.1e-06
1.1e-06
1.1e-06
1.1e-06
1.1e-06
1.1e-06
1.1e-06
1.1e-06
1.1e-06
1.1e-06
1.1e-06
1.1e-06
1.1e-06
1.1e-06
1.1e-06
1.1e-06
1.1e-06
1.1e-06
1.1e-06
1.1e-06
1.1e-06
1.1e-06
1.1e-06
1.1e-06
1.1e-06
1.1e-06
1.1e-06
1.1e-06
1.1e-06
1.1e-06
1.1e-06
1.1e-06
1.1e-06
1.1e-06
1.1e-06
1.1e-06
1.1e-06
1.1e-06
1.1e-06
1.1e-06
0.851464
0.85179
0.852079
0.852325
0.852528
0.852686
0.852796
0.852858
0.85287
0.852834
0.852749
0.852617
0.852437
0.852212
0.851943
0.851632
0.85128
0.850891
0.850466
0.850008
0.849517
0.848998
0.848451
0.847879
0.847283
0.846666
0.846029
0.845374
0.844701
0.844013
0.843311
0.842596
0.841869
0.84113
0.840382
0.839623
0.838855
0.838079
0.837295
0.836502
0.835701
0.834891
0.834074
0.833247
0.83241
0.831562
0.830703
0.82983
0.828941
0.828034
0.827106
0.826152
0.825168
0.824148
0.823083
0.821964
0.820775
0.819498
0.818106
0.816557
0.814791
0.812705
0.810118
0.806671
0.801535
0.792218
0.765845
0.420327
0.000851329
1.1e-06
1.1e-06
1.1e-06
1.1e-06
1.1e-06
1.1e-06
1.1e-06
1.1e-06
1.1e-06
1.1e-06
1.1e-06
1.1e-06
1.1e-06
1.1e-06
1.1e-06
1.1e-06
1.1e-06
1.1e-06
1.1e-06
1.1e-06
1.1e-06
1.1e-06
1.1e-06
1.1e-06
1.1e-06
1.1e-06
1.1e-06
1.1e-06
1.1e-06
1.1e-06
1.1e-06
1.1e-06
1.1e-06
1.1e-06
1.1e-06
1.1e-06
1.1e-06
1.1e-06
1.1e-06
1.1e-06
1.1e-06
1.1e-06
1.1e-06
1.1e-06
1.1e-06
1.1e-06
1.1e-06
1.1e-06
1.1e-06
1.1e-06
1.1e-06
1.1e-06
1.1e-06
1.1e-06
1.1e-06
1.1e-06
1.1e-06
1.1e-06
1.1e-06
1.1e-06
1.1e-06
1.1e-06
1.1e-06
1.1e-06
1.1e-06
1.1e-06
1.1e-06
1.1e-06
1.1e-06
1.1e-06
1.1e-06
1.1e-06
1.1e-06
1.1e-06
1.1e-06
1.1e-06
1.1e-06
1.1e-06
1.1e-06
1.1e-06
1.1e-06
1.1e-06
1.1e-06
1.1e-06
1.1e-06
1.1e-06
1.1e-06
1.1e-06
1.1e-06
1.1e-06
1.1e-06
1.1e-06
1.1e-06
1.1e-06
1.1e-06
1.1e-06
1.1e-06
1.1e-06
1.1e-06
1.1e-06
1.1e-06
1.1e-06
1.1e-06
1.1e-06
1.1e-06
1.1e-06
1.1e-06
1.1e-06
1.1e-06
1.1e-06
1.1e-06
0.853995
0.854366
0.854694
0.854976
0.855208
0.855389
0.855516
0.855588
0.855605
0.855567
0.855473
0.855326
0.855126
0.854876
0.854576
0.854231
0.853842
0.853411
0.852943
0.852438
0.8519
0.851331
0.850734
0.850111
0.849464
0.848795
0.848106
0.847399
0.846675
0.845937
0.845184
0.84442
0.843644
0.842857
0.842062
0.841257
0.840444
0.839623
0.838795
0.83796
0.837118
0.836268
0.835411
0.834546
0.833673
0.83279
0.831897
0.830991
0.830072
0.829137
0.828184
0.827207
0.826204
0.825169
0.824094
0.82297
0.821785
0.820522
0.819159
0.81766
0.815975
0.814024
0.811667
0.808647
0.80441
0.797513
0.782529
0.702479
0.0713185
4.75649e-06
1.1e-06
1.1e-06
1.1e-06
1.1e-06
1.1e-06
1.1e-06
1.1e-06
1.1e-06
1.1e-06
1.1e-06
1.1e-06
1.1e-06
1.1e-06
1.1e-06
1.1e-06
1.1e-06
1.1e-06
1.1e-06
1.1e-06
1.1e-06
1.1e-06
1.1e-06
1.1e-06
1.1e-06
1.1e-06
1.1e-06
1.1e-06
1.1e-06
1.1e-06
1.1e-06
1.1e-06
1.1e-06
1.1e-06
1.1e-06
1.1e-06
1.1e-06
1.1e-06
1.1e-06
1.1e-06
1.1e-06
1.1e-06
1.1e-06
1.1e-06
1.1e-06
1.1e-06
1.1e-06
1.1e-06
1.1e-06
1.1e-06
1.1e-06
1.1e-06
1.1e-06
1.1e-06
1.1e-06
1.1e-06
1.1e-06
1.1e-06
1.1e-06
1.1e-06
1.1e-06
1.1e-06
1.1e-06
1.1e-06
1.1e-06
1.1e-06
1.1e-06
1.1e-06
1.1e-06
1.1e-06
1.1e-06
1.1e-06
1.1e-06
1.1e-06
1.1e-06
1.1e-06
1.1e-06
1.1e-06
1.1e-06
1.1e-06
1.1e-06
1.1e-06
1.1e-06
1.1e-06
1.1e-06
1.1e-06
1.1e-06
1.1e-06
1.1e-06
1.1e-06
1.1e-06
1.1e-06
1.1e-06
1.1e-06
1.1e-06
1.1e-06
1.1e-06
1.1e-06
1.1e-06
1.1e-06
1.1e-06
1.1e-06
1.1e-06
1.1e-06
1.1e-06
1.1e-06
1.1e-06
1.1e-06
1.1e-06
1.1e-06
1.1e-06
0.856415
0.856835
0.857206
0.857526
0.85779
0.857996
0.858142
0.858225
0.858246
0.858204
0.858101
0.857937
0.857714
0.857436
0.857104
0.856721
0.856291
0.855817
0.855302
0.854749
0.854161
0.853541
0.852892
0.852217
0.851518
0.850797
0.850057
0.849299
0.848525
0.847737
0.846936
0.846123
0.8453
0.844467
0.843626
0.842777
0.841921
0.841058
0.840188
0.839313
0.838431
0.837543
0.836649
0.835749
0.834841
0.833925
0.833
0.832065
0.831118
0.830157
0.829179
0.828182
0.827162
0.826113
0.825029
0.823901
0.82272
0.821471
0.820132
0.818677
0.817062
0.815222
0.813049
0.810351
0.806741
0.801315
0.791268
0.760853
0.346153
0.000345291
1.1e-06
1.1e-06
1.1e-06
1.1e-06
1.1e-06
1.1e-06
1.1e-06
1.1e-06
1.1e-06
1.1e-06
1.1e-06
1.1e-06
1.1e-06
1.1e-06
1.1e-06
1.1e-06
1.1e-06
1.1e-06
1.1e-06
1.1e-06
1.1e-06
1.1e-06
1.1e-06
1.1e-06
1.1e-06
1.1e-06
1.1e-06
1.1e-06
1.1e-06
1.1e-06
1.1e-06
1.1e-06
1.1e-06
1.1e-06
1.1e-06
1.1e-06
1.1e-06
1.1e-06
1.1e-06
1.1e-06
1.1e-06
1.1e-06
1.1e-06
1.1e-06
1.1e-06
1.1e-06
1.1e-06
1.1e-06
1.1e-06
1.1e-06
1.1e-06
1.1e-06
1.1e-06
1.1e-06
1.1e-06
1.1e-06
1.1e-06
1.1e-06
1.1e-06
1.1e-06
1.1e-06
1.1e-06
1.1e-06
1.1e-06
1.1e-06
1.1e-06
1.1e-06
1.1e-06
1.1e-06
1.1e-06
1.1e-06
1.1e-06
1.1e-06
1.1e-06
1.1e-06
1.1e-06
1.1e-06
1.1e-06
1.1e-06
1.1e-06
1.1e-06
1.1e-06
1.1e-06
1.1e-06
1.1e-06
1.1e-06
1.1e-06
1.1e-06
1.1e-06
1.1e-06
1.1e-06
1.1e-06
1.1e-06
1.1e-06
1.1e-06
1.1e-06
1.1e-06
1.1e-06
1.1e-06
1.1e-06
1.1e-06
1.1e-06
1.1e-06
1.1e-06
1.1e-06
1.1e-06
1.1e-06
1.1e-06
1.1e-06
1.1e-06
0.85873
0.859203
0.859623
0.859984
0.860283
0.860517
0.860682
0.860777
0.860801
0.860755
0.860639
0.860456
0.860208
0.859899
0.85953
0.859107
0.858633
0.858112
0.857548
0.856944
0.856304
0.855632
0.854931
0.854203
0.853451
0.852679
0.851887
0.851079
0.850255
0.849419
0.84857
0.847711
0.846843
0.845966
0.845082
0.844191
0.843293
0.842391
0.841482
0.840569
0.839651
0.838727
0.837799
0.836864
0.835924
0.834978
0.834023
0.83306
0.832087
0.831102
0.830103
0.829087
0.82805
0.826988
0.825896
0.824766
0.823588
0.82235
0.821035
0.819617
0.818063
0.816316
0.814292
0.811843
0.80869
0.804231
0.796859
0.780247
0.674697
0.0414675
1.95344e-06
1.1e-06
1.1e-06
1.1e-06
1.1e-06
1.1e-06
1.1e-06
1.1e-06
1.1e-06
1.1e-06
1.1e-06
1.1e-06
1.1e-06
1.1e-06
1.1e-06
1.1e-06
1.1e-06
1.1e-06
1.1e-06
1.1e-06
1.1e-06
1.1e-06
1.1e-06
1.1e-06
1.1e-06
1.1e-06
1.1e-06
1.1e-06
1.1e-06
1.1e-06
1.1e-06
1.1e-06
1.1e-06
1.1e-06
1.1e-06
1.1e-06
1.1e-06
1.1e-06
1.1e-06
1.1e-06
1.1e-06
1.1e-06
1.1e-06
1.1e-06
1.1e-06
1.1e-06
1.1e-06
1.1e-06
1.1e-06
1.1e-06
1.1e-06
1.1e-06
1.1e-06
1.1e-06
1.1e-06
1.1e-06
1.1e-06
1.1e-06
1.1e-06
1.1e-06
1.1e-06
1.1e-06
1.1e-06
1.1e-06
1.1e-06
1.1e-06
1.1e-06
1.1e-06
1.1e-06
1.1e-06
1.1e-06
1.1e-06
1.1e-06
1.1e-06
1.1e-06
1.1e-06
1.1e-06
1.1e-06
1.1e-06
1.1e-06
1.1e-06
1.1e-06
1.1e-06
1.1e-06
1.1e-06
1.1e-06
1.1e-06
1.1e-06
1.1e-06
1.1e-06
1.1e-06
1.1e-06
1.1e-06
1.1e-06
1.1e-06
1.1e-06
1.1e-06
1.1e-06
1.1e-06
1.1e-06
1.1e-06
1.1e-06
1.1e-06
1.1e-06
1.1e-06
1.1e-06
1.1e-06
1.1e-06
1.1e-06
1.1e-06
0.860939
0.861472
0.861945
0.862353
0.862691
0.862955
0.863141
0.863248
0.863276
0.863224
0.863094
0.862889
0.862612
0.862267
0.861858
0.861391
0.860869
0.860298
0.859681
0.859024
0.858331
0.857604
0.856849
0.856068
0.855264
0.85444
0.853598
0.85274
0.851869
0.850985
0.850091
0.849188
0.848277
0.847358
0.846433
0.845503
0.844568
0.843628
0.842683
0.841735
0.840782
0.839826
0.838866
0.837901
0.836931
0.835956
0.834974
0.833986
0.832989
0.831981
0.830962
0.829928
0.828876
0.827803
0.826702
0.825569
0.824394
0.823167
0.821872
0.820488
0.818985
0.817318
0.815417
0.813166
0.810355
0.806564
0.800779
0.789745
0.752917
0.262121
0.000131052
1.1e-06
1.1e-06
1.1e-06
1.1e-06
1.1e-06
1.1e-06
1.1e-06
1.1e-06
1.1e-06
1.1e-06
1.1e-06
1.1e-06
1.1e-06
1.1e-06
1.1e-06
1.1e-06
1.1e-06
1.1e-06
1.1e-06
1.1e-06
1.1e-06
1.1e-06
1.1e-06
1.1e-06
1.1e-06
1.1e-06
1.1e-06
1.1e-06
1.1e-06
1.1e-06
1.1e-06
1.1e-06
1.1e-06
1.1e-06
1.1e-06
1.1e-06
1.1e-06
1.1e-06
1.1e-06
1.1e-06
1.1e-06
1.1e-06
1.1e-06
1.1e-06
1.1e-06
1.1e-06
1.1e-06
1.1e-06
1.1e-06
1.1e-06
1.1e-06
1.1e-06
1.1e-06
1.1e-06
1.1e-06
1.1e-06
1.1e-06
1.1e-06
1.1e-06
1.1e-06
1.1e-06
1.1e-06
1.1e-06
1.1e-06
1.1e-06
1.1e-06
1.1e-06
1.1e-06
1.1e-06
1.1e-06
1.1e-06
1.1e-06
1.1e-06
1.1e-06
1.1e-06
1.1e-06
1.1e-06
1.1e-06
1.1e-06
1.1e-06
1.1e-06
1.1e-06
1.1e-06
1.1e-06
1.1e-06
1.1e-06
1.1e-06
1.1e-06
1.1e-06
1.1e-06
1.1e-06
1.1e-06
1.1e-06
1.1e-06
1.1e-06
1.1e-06
1.1e-06
1.1e-06
1.1e-06
1.1e-06
1.1e-06
1.1e-06
1.1e-06
1.1e-06
1.1e-06
1.1e-06
1.1e-06
1.1e-06
1.1e-06
0.863038
0.863639
0.864174
0.864635
0.865017
0.865314
0.865525
0.865645
0.865675
0.865615
0.865468
0.865237
0.864926
0.864541
0.864087
0.863571
0.862997
0.862371
0.8617
0.860987
0.860237
0.859456
0.858646
0.857811
0.856955
0.85608
0.855189
0.854284
0.853366
0.852438
0.851501
0.850556
0.849605
0.848647
0.847685
0.846718
0.845747
0.844773
0.843795
0.842815
0.841832
0.840845
0.839856
0.838863
0.837866
0.836865
0.835859
0.834847
0.833828
0.8328
0.831762
0.830712
0.829646
0.828562
0.827454
0.826317
0.825144
0.823926
0.822648
0.821293
0.819835
0.818236
0.816438
0.814349
0.811806
0.8085
0.803754
0.795703
0.776499
0.618184
0.0159603
1.12046e-06
1.1e-06
1.1e-06
1.1e-06
1.1e-06
1.1e-06
1.1e-06
1.1e-06
1.1e-06
1.1e-06
1.1e-06
1.1e-06
1.1e-06
1.1e-06
1.1e-06
1.1e-06
1.1e-06
1.1e-06
1.1e-06
1.1e-06
1.1e-06
1.1e-06
1.1e-06
1.1e-06
1.1e-06
1.1e-06
1.1e-06
1.1e-06
1.1e-06
1.1e-06
1.1e-06
1.1e-06
1.1e-06
1.1e-06
1.1e-06
1.1e-06
1.1e-06
1.1e-06
1.1e-06
1.1e-06
1.1e-06
1.1e-06
1.1e-06
1.1e-06
1.1e-06
1.1e-06
1.1e-06
1.1e-06
1.1e-06
1.1e-06
1.1e-06
1.1e-06
1.1e-06
1.1e-06
1.1e-06
1.1e-06
1.1e-06
1.1e-06
1.1e-06
1.1e-06
1.1e-06
1.1e-06
1.1e-06
1.1e-06
1.1e-06
1.1e-06
1.1e-06
1.1e-06
1.1e-06
1.1e-06
1.1e-06
1.1e-06
1.1e-06
1.1e-06
1.1e-06
1.1e-06
1.1e-06
1.1e-06
1.1e-06
1.1e-06
1.1e-06
1.1e-06
1.1e-06
1.1e-06
1.1e-06
1.1e-06
1.1e-06
1.1e-06
1.1e-06
1.1e-06
1.1e-06
1.1e-06
1.1e-06
1.1e-06
1.1e-06
1.1e-06
1.1e-06
1.1e-06
1.1e-06
1.1e-06
1.1e-06
1.1e-06
1.1e-06
1.1e-06
1.1e-06
1.1e-06
1.1e-06
1.1e-06
1.1e-06
0.865134
0.865821
0.866432
0.866959
0.867395
0.867734
0.867973
0.868107
0.868138
0.868067
0.867897
0.867632
0.86728
0.866846
0.866338
0.865763
0.865129
0.864442
0.863708
0.862933
0.862122
0.861281
0.860413
0.859522
0.858612
0.857685
0.856743
0.855789
0.854825
0.853853
0.852873
0.851887
0.850895
0.8499
0.848901
0.847899
0.846894
0.845887
0.844878
0.843867
0.842854
0.841839
0.840822
0.839803
0.838781
0.837755
0.836726
0.835692
0.834652
0.833605
0.832549
0.831483