/*--------------------------------*- C++ -*----------------------------------*\
  =========                 |
  \\      /  F ield         | OpenFOAM: The Open Source CFD Toolbox
   \\    /   O peration     | Website:  https://openfoam.org
    \\  /    A nd           | Version:  10
     \\/     M anipulation  |
\*---------------------------------------------------------------------------*/
FoamFile
{
    format      ascii;
    class       volVectorField;
    location    "1.08";
    object      Ua;
}
// * * * * * * * * * * * * * * * * * * * * * * * * * * * * * * * * * * * * * //

dimensions      [0 1 -1 0 0 0 0];

internalField   nonuniform List<vector> 
12225
(
(4.11457e-05 -5.28772e-06 0)
(0.000120316 -4.95286e-06 0)
(0.000192178 -4.33845e-06 0)
(0.000255618 -3.64668e-06 0)
(0.000311129 -3.01355e-06 0)
(0.000360015 -2.50633e-06 0)
(0.000403812 -2.14773e-06 0)
(0.000443989 -1.9398e-06 0)
(0.000481858 -1.88051e-06 0)
(0.000518592 -1.97458e-06 0)
(0.000555315 -2.24242e-06 0)
(0.000593235 -2.73235e-06 0)
(0.000633866 -3.54461e-06 0)
(0.000679446 -4.88881e-06 0)
(0.000733879 -7.24476e-06 0)
(0.000805418 -1.19163e-05 0)
(0.000916816 -2.35655e-05 0)
(0.00116005 -6.6387e-05 0)
(2.80439e-05 -1.37435e-05 0)
(8.25984e-05 -1.29539e-05 0)
(0.000133417 -1.14254e-05 0)
(0.000179673 -9.66955e-06 0)
(0.000221409 -8.04236e-06 0)
(0.000259193 -6.72845e-06 0)
(0.000293813 -5.79722e-06 0)
(0.000326101 -5.26253e-06 0)
(0.000356852 -5.1258e-06 0)
(0.000386822 -5.40526e-06 0)
(0.00041677 -6.16076e-06 0)
(0.000447536 -7.52725e-06 0)
(0.000480185 -9.77955e-06 0)
(0.000516255 -1.34835e-05 0)
(0.000558291 -1.99036e-05 0)
(0.000610975 -3.231e-05 0)
(0.000682776 -6.11527e-05 0)
(0.000772182 -0.000149799 0)
(2.1863e-05 -1.89836e-05 0)
(6.47977e-05 -1.80568e-05 0)
(0.000105676 -1.60796e-05 0)
(0.000143836 -1.37332e-05 0)
(0.000179136 -1.15162e-05 0)
(0.00021181 -9.70441e-06 0)
(0.000242299 -8.4154e-06 0)
(0.000271124 -7.68592e-06 0)
(0.000298821 -7.53186e-06 0)
(0.00032593 -7.99074e-06 0)
(0.000353013 -9.15878e-06 0)
(0.0003807 -1.124e-05 0)
(0.000409776 -1.4638e-05 0)
(0.00044131 -2.0159e-05 0)
(0.000476842 -2.9523e-05 0)
(0.000518388 -4.67926e-05 0)
(0.000566174 -8.27289e-05 0)
(0.000600531 -0.000167344 0)
(1.78403e-05 -2.24325e-05 0)
(5.31825e-05 -2.15385e-05 0)
(8.7501e-05 -1.93626e-05 0)
(0.000120253 -1.66832e-05 0)
(0.000151205 -1.40995e-05 0)
(0.000180403 -1.19625e-05 0)
(0.00020807 -1.04371e-05 0)
(0.00023453 -9.58793e-06 0)
(0.000260146 -9.45056e-06 0)
(0.000285309 -1.00838e-05 0)
(0.000310433 -1.16158e-05 0)
(0.000335983 -1.43041e-05 0)
(0.000362511 -1.86394e-05 0)
(0.000390679 -2.55634e-05 0)
(0.000421185 -3.69565e-05 0)
(0.000454142 -5.67733e-05 0)
(0.000486022 -9.34866e-05 0)
(0.000498458 -0.000162744 0)
(1.49015e-05 -2.45923e-05 0)
(4.46706e-05 -2.38443e-05 0)
(7.41142e-05 -2.16377e-05 0)
(0.000102784 -1.88025e-05 0)
(0.000130405 -1.60094e-05 0)
(0.000156904 -1.36716e-05 0)
(0.000182362 -1.19986e-05 0)
(0.00020696 -1.10851e-05 0)
(0.000230935 -1.09884e-05 0)
(0.000254556 -1.17883e-05 0)
(0.000278119 -1.3639e-05 0)
(0.000301946 -1.68333e-05 0)
(0.00032638 -2.19073e-05 0)
(0.000351732 -2.9836e-05 0)
(0.000378056 -4.24145e-05 0)
(0.000404338 -6.2942e-05 0)
(0.000426083 -9.70159e-05 0)
(0.000430258 -0.000150887 0)
(1.2622e-05 -2.57224e-05 0)
(3.80455e-05 -2.52009e-05 0)
(6.36358e-05 -2.30848e-05 0)
(8.90223e-05 -2.02261e-05 0)
(0.000113918 -1.73446e-05 0)
(0.000138175 -1.49046e-05 0)
(0.000161778 -1.31559e-05 0)
(0.000184802 -1.2223e-05 0)
(0.000207381 -1.21852e-05 0)
(0.000229687 -1.3141e-05 0)
(0.000251911 -1.52629e-05 0)
(0.000274248 -1.88604e-05 0)
(0.000296861 -2.44731e-05 0)
(0.000319782 -3.30223e-05 0)
(0.000342631 -4.60504e-05 0)
(0.000363908 -6.59921e-05 0)
(0.000379535 -9.59987e-05 0)
(0.000381308 -0.000137409 0)
(1.0789e-05 -2.59844e-05 0)
(3.26991e-05 -2.57469e-05 0)
(5.51286e-05 -2.38099e-05 0)
(7.77718e-05 -2.10284e-05 0)
(0.000100347 -1.81554e-05 0)
(0.000122668 -1.56947e-05 0)
(0.000144647 -1.39315e-05 0)
(0.00016628 -1.30176e-05 0)
(0.000187621 -1.30528e-05 0)
(0.000208756 -1.41508e-05 0)
(0.000229786 -1.64935e-05 0)
(0.000250794 -2.03888e-05 0)
(0.000271797 -2.63433e-05 0)
(0.000292624 -3.51616e-05 0)
(0.00031266 -4.80518e-05 0)
(0.000330353 -6.66156e-05 0)
(0.000342523 -9.22968e-05 0)
(0.000344364 -0.000124347 0)
(9.28046e-06 -2.54942e-05 0)
(2.82819e-05 -2.55791e-05 0)
(4.80543e-05 -2.3883e-05 0)
(6.8347e-05 -2.1255e-05 0)
(8.88977e-05 -1.84683e-05 0)
(0.0001095 -1.60559e-05 0)
(0.000130021 -1.43314e-05 0)
(0.000150396 -1.34702e-05 0)
(0.00017061 -1.35896e-05 0)
(0.000190678 -1.48136e-05 0)
(0.000210622 -1.7325e-05 0)
(0.000230433 -2.14133e-05 0)
(0.000250015 -2.75253e-05 0)
(0.000269071 -3.63132e-05 0)
(0.00028691 -4.86425e-05 0)
(0.000302157 -6.54392e-05 0)
(0.000312552 -8.71196e-05 0)
(0.00031542 -0.000112317 0)
(8.01886e-06 -2.43451e-05 0)
(2.45722e-05 -2.4773e-05 0)
(4.20721e-05 -2.33562e-05 0)
(6.03155e-05 -2.09367e-05 0)
(7.90689e-05 -1.82981e-05 0)
(9.81227e-05 -1.59922e-05 0)
(0.000117314 -1.43531e-05 0)
(0.000136532 -1.35745e-05 0)
(0.000155707 -1.37868e-05 0)
(0.000174792 -1.51196e-05 0)
(0.000193742 -1.77481e-05 0)
(0.000212477 -2.19306e-05 0)
(0.00023082 -2.80375e-05 0)
(0.000248417 -3.65603e-05 0)
(0.000264599 -4.80611e-05 0)
(0.000278265 -6.29831e-05 0)
(0.000287901 -8.121e-05 0)
(0.000292077 -0.000101396 0)
(6.95136e-06 -2.26215e-05 0)
(2.14184e-05 -2.33938e-05 0)
(3.69485e-05 -2.2272e-05 0)
(5.33824e-05 -2.00964e-05 0)
(7.05226e-05 -1.76537e-05 0)
(8.81677e-05 -1.55031e-05 0)
(0.000106137 -1.39905e-05 0)
(0.000124285 -1.33211e-05 0)
(0.000142495 -1.36338e-05 0)
(0.000160671 -1.50581e-05 0)
(0.000178714 -1.77551e-05 0)
(0.000196487 -2.19438e-05 0)
(0.00021377 -2.79126e-05 0)
(0.000230195 -3.60033e-05 0)
(0.000245176 -4.65381e-05 0)
(0.000257881 -5.96514e-05 0)
(0.000267341 -7.50031e-05 0)
(0.00027282 -9.14825e-05 0)
(6.03917e-06 -2.04065e-05 0)
(1.87083e-05 -2.15028e-05 0)
(3.25109e-05 -2.06687e-05 0)
(4.73317e-05 -1.87544e-05 0)
(6.30143e-05 -1.65423e-05 0)
(7.93725e-05 -1.45875e-05 0)
(9.62162e-05 -1.3237e-05 0)
(0.000113372 -1.27007e-05 0)
(0.000130687 -1.31202e-05 0)
(0.000148024 -1.46204e-05 0)
(0.000165243 -1.73432e-05 0)
(0.000182169 -2.1465e-05 0)
(0.000198561 -2.71959e-05 0)
(0.00021407 -3.47511e-05 0)
(0.000228211 -4.42805e-05 0)
(0.000240383 -5.57425e-05 0)
(0.000249984 -6.87425e-05 0)
(0.000256648 -8.24304e-05 0)
(5.18802e-06 -1.79888e-05 0)
(1.6189e-05 -1.93509e-05 0)
(2.84113e-05 -1.87645e-05 0)
(4.17788e-05 -1.70985e-05 0)
(5.61628e-05 -1.51234e-05 0)
(7.13818e-05 -1.33797e-05 0)
(8.72326e-05 -1.22068e-05 0)
(0.000103517 -1.18127e-05 0)
(0.000120055 -1.23373e-05 0)
(0.000136677 -1.3898e-05 0)
(0.000153216 -1.66172e-05 0)
(0.000169477 -2.06328e-05 0)
(0.000185218 -2.60906e-05 0)
(0.000200125 -3.31134e-05 0)
(0.000213804 -4.1742e-05 0)
(0.000225815 -5.18502e-05 0)
(0.000235768 -6.30616e-05 0)
(0.000243466 -7.47331e-05 0)
(4.62975e-06 -1.53214e-05 0)
(1.44994e-05 -1.68795e-05 0)
(2.55839e-05 -1.64963e-05 0)
(3.78559e-05 -1.50665e-05 0)
(5.12271e-05 -1.33387e-05 0)
(6.55341e-05 -1.18265e-05 0)
(8.0573e-05 -1.08522e-05 0)
(9.61334e-05 -1.06152e-05 0)
(0.000112015 -1.12495e-05 0)
(0.000128028 -1.28625e-05 0)
(0.000143984 -1.5557e-05 0)
(0.000159678 -1.94363e-05 0)
(0.000174871 -2.45941e-05 0)
(0.000189283 -3.10872e-05 0)
(0.000202595 -3.88907e-05 0)
(0.000214487 -4.78453e-05 0)
(0.000224708 -5.76205e-05 0)
(0.000233156 -6.77291e-05 0)
(4.06827e-06 -1.21174e-05 0)
(1.27743e-05 -1.3766e-05 0)
(2.26633e-05 -1.35327e-05 0)
(3.37901e-05 -1.23413e-05 0)
(4.61122e-05 -1.0897e-05 0)
(5.94788e-05 -9.66521e-06 0)
(7.36798e-05 -8.93639e-06 0)
(8.84901e-05 -8.89253e-06 0)
(0.000103691 -9.65613e-06 0)
(0.000119073 -1.13209e-05 0)
(0.000134434 -1.39672e-05 0)
(0.000149561 -1.76642e-05 0)
(0.000164229 -2.24601e-05 0)
(0.000178198 -2.83603e-05 0)
(0.000191222 -3.52999e-05 0)
(0.00020308 -4.31159e-05 0)
(0.000213617 -5.15379e-05 0)
(0.000222791 -6.02118e-05 0)
(3.47641e-06 -8.43335e-06 0)
(1.09364e-05 -9.92755e-06 0)
(1.95495e-05 -9.73544e-06 0)
(2.94996e-05 -8.76955e-06 0)
(4.07794e-05 -7.64622e-06 0)
(5.32272e-05 -6.74853e-06 0)
(6.66086e-05 -6.31591e-06 0)
(8.06762e-05 -6.503e-06 0)
(9.51928e-05 -7.415e-06 0)
(0.000109936 -9.12862e-06 0)
(0.000124693 -1.17022e-05 0)
(0.00013926 -1.51757e-05 0)
(0.000153436 -1.95633e-05 0)
(0.000167027 -2.48393e-05 0)
(0.000179852 -3.0923e-05 0)
(0.000191767 -3.76683e-05 0)
(0.000202679 -4.48665e-05 0)
(0.00021257 -5.22671e-05 0)
(2.72981e-06 -4.39368e-06 0)
(8.67103e-06 -5.27678e-06 0)
(1.58627e-05 -4.97899e-06 0)
(2.46442e-05 -4.23094e-06 0)
(3.49807e-05 -3.47511e-06 0)
(4.6632e-05 -2.96781e-06 0)
(5.92864e-05 -2.8777e-06 0)
(7.26489e-05 -3.32476e-06 0)
(8.64712e-05 -4.39577e-06 0)
(0.000100544 -6.15283e-06 0)
(0.000114685 -8.64082e-06 0)
(0.000128726 -1.18808e-05 0)
(0.000142508 -1.5867e-05 0)
(0.00015588 -2.05592e-05 0)
(0.000168709 -2.58761e-05 0)
(0.000180886 -3.16948e-05 0)
(0.00019234 -3.7857e-05 0)
(0.000203045 -4.41845e-05 0)
(1.37812e-06 1.61897e-08 0)
(4.79726e-06 3.36014e-07 0)
(9.98264e-06 7.83649e-07 0)
(1.73091e-05 1.24193e-06 0)
(2.65236e-05 1.58255e-06 0)
(3.7264e-05 1.67194e-06 0)
(4.92043e-05 1.39259e-06 0)
(6.20551e-05 6.52656e-07 0)
(7.55533e-05 -6.1426e-07 0)
(8.94655e-05 -2.47745e-06 0)
(0.000103634 -5.02865e-06 0)
(0.0001179 -8.17631e-06 0)
(0.000132067 -1.19047e-05 0)
(0.000145966 -1.61675e-05 0)
(0.000159458 -2.08896e-05 0)
(0.000172432 -2.597e-05 0)
(0.000184813 -3.12896e-05 0)
(0.00019656 -3.6721e-05 0)
(3.2374e-06 5.25628e-06 0)
(9.90883e-06 7.11595e-06 0)
(1.72263e-05 7.95115e-06 0)
(2.55785e-05 8.21109e-06 0)
(3.51284e-05 8.10705e-06 0)
(4.58496e-05 7.67371e-06 0)
(5.75943e-05 6.88125e-06 0)
(7.01602e-05 5.68992e-06 0)
(8.33318e-05 4.06877e-06 0)
(9.68971e-05 1.97503e-06 0)
(0.000110616 -6.59219e-07 0)
(0.000124305 -3.81697e-06 0)
(0.000137926 -7.52741e-06 0)
(0.000151408 -1.1576e-05 0)
(0.000164612 -1.59016e-05 0)
(0.00017743 -2.04284e-05 0)
(0.000189787 -2.50721e-05 0)
(0.000201638 -2.97471e-05 0)
(4.50742e-06 1.24389e-05 0)
(1.38259e-05 1.52938e-05 0)
(2.37631e-05 1.65866e-05 0)
(3.43679e-05 1.67862e-05 0)
(4.56965e-05 1.62559e-05 0)
(5.77494e-05 1.52082e-05 0)
(7.04597e-05 1.37512e-05 0)
(8.37108e-05 1.19369e-05 0)
(9.73587e-05 9.79151e-06 0)
(0.000111252 7.33313e-06 0)
(0.000125242 4.57995e-06 0)
(0.000139173 1.4645e-06 0)
(0.000152848 -2.03574e-06 0)
(0.000166162 -5.85399e-06 0)
(0.000179117 -9.84277e-06 0)
(0.000191678 -1.38877e-05 0)
(0.000203803 -1.79369e-05 0)
(0.000215464 -2.19395e-05 0)
(5.12808e-06 2.03441e-05 0)
(1.58311e-05 2.31801e-05 0)
(2.73576e-05 2.44229e-05 0)
(3.95988e-05 2.43871e-05 0)
(5.24826e-05 2.34321e-05 0)
(6.59316e-05 2.18392e-05 0)
(7.98457e-05 1.9799e-05 0)
(9.41045e-05 1.74329e-05 0)
(0.000108576 1.48164e-05 0)
(0.00012313 1.19991e-05 0)
(0.00013764 9.01702e-06 0)
(0.000151995 5.90072e-06 0)
(0.000166098 2.68078e-06 0)
(0.000179818 -7.52848e-07 0)
(0.000193063 -4.38037e-06 0)
(0.000205847 -8.03064e-06 0)
(0.000218174 -1.1607e-05 0)
(0.000230025 -1.5082e-05 0)
(6.09169e-06 2.7064e-05 0)
(1.87054e-05 2.93503e-05 0)
(3.21101e-05 3.01373e-05 0)
(4.61704e-05 2.9654e-05 0)
(6.07601e-05 2.8233e-05 0)
(7.57574e-05 2.61688e-05 0)
(9.10373e-05 2.36813e-05 0)
(0.000106472 2.09207e-05 0)
(0.000121936 1.79851e-05 0)
(0.000137311 1.49379e-05 0)
(0.000152489 1.18218e-05 0)
(0.000167377 8.66825e-06 0)
(0.0001819 5.50313e-06 0)
(0.000195998 2.35017e-06 0)
(0.000209579 -8.83608e-07 0)
(0.000222597 -4.22536e-06 0)
(0.000235081 -7.47339e-06 0)
(0.000247044 -1.05833e-05 0)
(7.26984e-06 3.24312e-05 0)
(2.21721e-05 3.4069e-05 0)
(3.7743e-05 3.4282e-05 0)
(5.3849e-05 3.32838e-05 0)
(7.03361e-05 3.13945e-05 0)
(8.70529e-05 2.89109e-05 0)
(0.000103856 2.60626e-05 0)
(0.00012061 2.30109e-05 0)
(0.000137196 1.98617e-05 0)
(0.000153505 1.6682e-05 0)
(0.000169449 1.35144e-05 0)
(0.000184954 1.03864e-05 0)
(0.000199962 7.3178e-06 0)
(0.000214434 4.32442e-06 0)
(0.000228342 1.41982e-06 0)
(0.000241618 -1.52693e-06 0)
(0.000254264 -4.47192e-06 0)
(0.000266339 -7.25669e-06 0)
(8.69365e-06 3.61252e-05 0)
(2.63451e-05 3.71447e-05 0)
(4.44734e-05 3.67902e-05 0)
(6.29442e-05 3.52999e-05 0)
(8.15867e-05 3.29966e-05 0)
(0.000100233 3.01768e-05 0)
(0.000118729 2.70704e-05 0)
(0.000136943 2.38381e-05 0)
(0.000154763 2.05839e-05 0)
(0.000172099 1.73717e-05 0)
(0.00018888 1.42383e-05 0)
(0.000205056 1.12052e-05 0)
(0.000220591 8.28458e-06 0)
(0.000235463 5.48425e-06 0)
(0.000249666 2.80963e-06 0)
(0.000263197 2.45215e-07 0)
(0.000276026 -2.35562e-06 0)
(0.000288174 -4.83214e-06 0)
(1.04069e-05 3.80129e-05 0)
(3.13595e-05 3.84935e-05 0)
(5.25308e-05 3.76476e-05 0)
(7.37712e-05 3.5751e-05 0)
(9.48968e-05 3.31348e-05 0)
(0.000115732 3.00928e-05 0)
(0.000136126 2.68487e-05 0)
(0.000155957 2.35553e-05 0)
(0.000175134 2.03087e-05 0)
(0.000193589 1.71642e-05 0)
(0.000211278 1.4151e-05 0)
(0.000228175 1.12825e-05 0)
(0.00024427 8.56331e-06 0)
(0.000259565 5.99394e-06 0)
(0.000274072 3.57295e-06 0)
(0.000287813 1.29821e-06 0)
(0.000300784 -9.15659e-07 0)
(0.000313015 -3.09124e-06 0)
(1.24773e-05 3.8057e-05 0)
(3.74137e-05 3.80987e-05 0)
(6.22334e-05 3.68771e-05 0)
(8.67544e-05 3.47012e-05 0)
(0.000110779 3.19071e-05 0)
(0.000134134 2.87813e-05 0)
(0.000156684 2.55347e-05 0)
(0.000178333 2.23073e-05 0)
(0.000199019 1.91827e-05 0)
(0.000218709 1.62059e-05 0)
(0.000237393 1.33965e-05 0)
(0.000255077 1.076e-05 0)
(0.000271779 8.29423e-06 0)
(0.000287529 5.99346e-06 0)
(0.000302362 3.85085e-06 0)
(0.00031632 1.85944e-06 0)
(0.000329441 -3.00283e-09 0)
(0.000341748 -1.86402e-06 0)
(1.50145e-05 3.62546e-05 0)
(4.48263e-05 3.59677e-05 0)
(7.40867e-05 3.45105e-05 0)
(0.000102562 3.22105e-05 0)
(0.000130039 2.93985e-05 0)
(0.000156359 2.63451e-05 0)
(0.000181417 2.32427e-05 0)
(0.000205159 2.02136e-05 0)
(0.000227571 1.73271e-05 0)
(0.000248666 1.46161e-05 0)
(0.000268477 1.20917e-05 0)
(0.000287051 9.75196e-06 0)
(0.000304442 7.58925e-06 0)
(0.000320709 5.59334e-06 0)
(0.000335917 3.75364e-06 0)
(0.000350127 2.06011e-06 0)
(0.000363404 5.03594e-07 0)
(0.000375785 -1.02374e-06 0)
(1.82134e-05 3.25832e-05 0)
(5.41641e-05 3.20862e-05 0)
(8.89898e-05 3.05525e-05 0)
(0.000122381 2.83061e-05 0)
(0.000154111 2.56569e-05 0)
(0.000184048 2.28481e-05 0)
(0.000212141 2.00468e-05 0)
(0.000238401 1.73543e-05 0)
(0.00026288 1.4824e-05 0)
(0.000285655 1.24776e-05 0)
(0.000306818 1.03182e-05 0)
(0.000326467 8.33871e-06 0)
(0.000344698 6.52779e-06 0)
(0.000361611 4.87263e-06 0)
(0.000377298 3.36077e-06 0)
(0.000391849 1.98077e-06 0)
(0.00040535 7.22229e-07 0)
(0.000417864 -4.75089e-07 0)
(2.24754e-05 2.69295e-05 0)
(6.65962e-05 2.63513e-05 0)
(0.000108803 2.49218e-05 0)
(0.000148677 2.29329e-05 0)
(0.000185982 2.06514e-05 0)
(0.000220634 1.828e-05 0)
(0.000252668 1.59526e-05 0)
(0.000282192 1.37462e-05 0)
(0.000309356 1.16983e-05 0)
(0.000334327 9.82067e-06 0)
(0.000357276 8.11069e-06 0)
(0.000378366 6.55849e-06 0)
(0.000397755 5.15135e-06 0)
(0.000415585 3.87619e-06 0)
(0.00043199 2.72071e-06 0)
(0.000447092 1.67386e-06 0)
(0.000461003 7.25801e-07 0)
(0.000473816 -1.50794e-07 0)
(2.88754e-05 1.89234e-05 0)
(8.52621e-05 1.84154e-05 0)
(0.00013854 1.73099e-05 0)
(0.000188128 1.58283e-05 0)
(0.000233781 1.41661e-05 0)
(0.000275508 1.2467e-05 0)
(0.000313482 1.08223e-05 0)
(0.000347969 9.28214e-06 0)
(0.000379271 7.86815e-06 0)
(0.00040769 6.58469e-06 0)
(0.000433514 5.42659e-06 0)
(0.000457008 4.38432e-06 0)
(0.000478407 3.44694e-06 0)
(0.000497923 2.60372e-06 0)
(0.000515743 1.84485e-06 0)
(0.000532033 1.16167e-06 0)
(0.000546941 5.46592e-07 0)
(0.000560598 -9.90376e-09 0)
(4.36139e-05 7.14559e-06 0)
(0.000128378 6.93015e-06 0)
(0.000207584 6.48945e-06 0)
(0.000280343 5.91101e-06 0)
(0.000346412 5.27054e-06 0)
(0.000406006 4.6225e-06 0)
(0.000459599 4.00067e-06 0)
(0.000507779 3.42284e-06 0)
(0.000551154 2.89609e-06 0)
(0.0005903 2.42105e-06 0)
(0.000625735 1.99496e-06 0)
(0.000657913 1.61361e-06 0)
(0.000687228 1.27238e-06 0)
(0.000714016 9.66875e-07 0)
(0.000738569 6.93121e-07 0)
(0.000761134 4.47653e-07 0)
(0.000781927 2.27468e-07 0)
(0.000801134 2.99709e-08 0)
(0.000134695 -0.000287904 -3.71948e-30)
(0.000405121 -0.000287374 3.70944e-30)
(0.000677065 -0.000286426 0)
(0.00095013 -0.000285045 0)
(0.00122389 -0.000283213 0)
(0.00149789 -0.000280911 -3.61301e-30)
(0.00177165 -0.000278122 0)
(0.00204466 -0.000274831 0)
(0.00231638 -0.000271027 0)
(0.00258627 -0.000266709 0)
(0.00285375 -0.000261883 3.35107e-30)
(0.00311826 -0.000256563 0)
(0.00337923 -0.000250772 0)
(0.00363612 -0.000244541 0)
(0.0038884 -0.000237907 0)
(0.00413558 -0.000230913 2.93566e-30)
(0.00437719 -0.000223607 0)
(0.00461283 -0.000216038 0)
(0.00484213 -0.000208262 0)
(0.00506477 -0.000200332 0)
(0.00528048 -0.000192304 0)
(0.00548905 -0.00018423 0)
(0.00569034 -0.000176164 0)
(0.00588425 -0.000168154 2.10387e-30)
(0.00607072 -0.000160245 -1.99946e-30)
(0.00624977 -0.00015248 1.89698e-30)
(0.00642144 -0.000144893 1.7969e-30)
(0.00658582 -0.000137516 0)
(0.00674305 -0.000130373 0)
(0.00689329 -0.000123485 -1.51463e-30)
(0.00703671 -0.000116865 -1.42738e-30)
(0.00717353 -0.000110524 0)
(0.00730397 -0.000104467 0)
(0.00742825 -9.86963e-05 -1.18793e-30)
(0.00754663 -9.32092e-05 0)
(0.00765935 -8.80018e-05 0)
(0.00776665 -8.30676e-05 9.8194e-31)
(0.00786876 -7.83984e-05 0)
(0.00796594 -7.39848e-05 8.62194e-31)
(0.00805842 -6.98165e-05 1.61446e-30)
(0.00814641 -6.58825e-05 0)
(0.00823014 -6.21717e-05 0)
(0.00830982 -5.86729e-05 0)
(0.00838565 -5.53747e-05 0)
(0.00845782 -5.22661e-05 0)
(0.00852652 -4.93365e-05 1.07401e-30)
(0.00859191 -4.65755e-05 1.0011e-30)
(0.00865416 -4.39733e-05 9.32364e-31)
(0.00871343 -4.15203e-05 0)
(0.00876987 -3.92076e-05 -8.06442e-31)
(0.00882362 -3.70267e-05 0)
(0.0088748 -3.49695e-05 6.94414e-31)
(0.00892355 -3.30287e-05 6.4309e-31)
(0.00896999 -3.11969e-05 0)
(0.00901422 -2.94677e-05 0)
(0.00905635 -2.78348e-05 0)
(0.00909648 -2.62924e-05 4.64882e-31)
(0.00913471 -2.48349e-05 0)
(0.00917113 -2.34575e-05 0)
(0.00920582 -2.21552e-05 0)
(0.00923885 -2.09237e-05 0)
(0.00927032 -1.97588e-05 0)
(0.00930028 -1.86568e-05 0)
(0.00932881 -1.76139e-05 0)
(0.00935598 -1.66269e-05 0)
(0.00938183 -1.56925e-05 -1.84144e-31)
(0.00940644 -1.4808e-05 0)
(0.00942986 -1.39705e-05 0)
(0.00945214 -1.31775e-05 1.17474e-31)
(0.00947333 -1.24266e-05 9.75579e-32)
(0.00949349 -1.17155e-05 0)
(0.00951265 -1.10421e-05 -6.08469e-32)
(0.00953086 -1.04045e-05 4.39334e-32)
(0.00954816 -9.80083e-06 0)
(0.00956459 -9.22928e-06 -1.27565e-32)
(0.0095802 -8.68822e-06 0)
(0.00959502 -8.17612e-06 0)
(0.00960908 -7.6915e-06 -2.80414e-32)
(0.00962242 -7.23297e-06 0)
(0.00963507 -6.79922e-06 5.17206e-32)
(0.00964706 -6.38902e-06 0)
(0.00965842 -6.00118e-06 -7.29033e-32)
(0.00966918 -5.63459e-06 -8.2632e-32)
(0.00967937 -5.28819e-06 -9.18267e-32)
(0.00968901 -4.96097e-06 -2.01023e-31)
(0.00969814 -4.65197e-06 2.17433e-31)
(0.00970677 -4.36028e-06 0)
(0.00971492 -4.08504e-06 0)
(0.00972262 -3.8254e-06 0)
(0.0097299 -3.5806e-06 2.74317e-31)
(0.00973677 -3.34986e-06 2.86573e-31)
(0.00974325 -3.13249e-06 -2.98115e-31)
(0.00974936 -2.92778e-06 0)
(0.00975512 -2.7351e-06 3.19219e-31)
(0.00976054 -2.55381e-06 3.28852e-31)
(0.00976565 -2.38332e-06 3.37907e-31)
(0.00977046 -2.22307e-06 0)
(0.00977498 -2.07251e-06 0)
(0.00977924 -1.93114e-06 0)
(0.00978323 -1.79844e-06 3.68975e-31)
(0.00978698 -1.67396e-06 0)
(0.00979051 -1.55725e-06 0)
(0.00979381 -1.44788e-06 -3.87593e-31)
(0.00979691 -1.34545e-06 0)
(0.00979982 -1.24956e-06 0)
(0.00980254 -1.15984e-06 -4.02899e-31)
(0.00980509 -1.07596e-06 0)
(0.00980747 -9.9756e-07 0)
(0.0098097 -9.24337e-07 4.15412e-31)
(0.00981178 -8.55987e-07 4.19044e-31)
(0.00981372 -7.9222e-07 0)
(0.00981554 -7.32765e-07 -4.25595e-31)
(0.00981723 -6.77363e-07 0)
(0.00981881 -6.25769e-07 4.31278e-31)
(0.00982028 -5.77749e-07 0)
(0.00982165 -5.33082e-07 4.36207e-31)
(0.00982293 -4.91561e-07 4.38409e-31)
(0.00982411 -4.52988e-07 0)
(0.00982522 -4.17174e-07 0)
(0.00982624 -3.83943e-07 0)
(0.00982719 -3.53129e-07 0)
(0.00982807 -3.24573e-07 0)
(0.00982889 -2.98125e-07 0)
(0.00982965 -2.73646e-07 0)
(0.00983035 -2.51003e-07 4.51201e-31)
(0.009831 -2.30069e-07 -4.52309e-31)
(0.0098316 -2.10729e-07 0)
(0.00983215 -1.92869e-07 0)
(0.00983266 -1.76386e-07 0)
(0.00983313 -1.61181e-07 0)
(0.00983357 -1.4716e-07 -9.13435e-31)
(0.00983397 -1.34236e-07 0)
(0.00983434 -1.22325e-07 9.16077e-31)
(0.00983468 -1.11348e-07 -9.17245e-31)
(0.00983499 -1.01231e-07 0)
(0.00983527 -9.19029e-08 0)
(0.00983553 -8.32943e-08 0)
(0.00983577 -7.53398e-08 9.21076e-31)
(0.00983599 -6.79753e-08 9.21857e-31)
(0.00983619 -6.11378e-08 0)
(0.00983637 -5.47645e-08 9.23255e-31)
(0.00983653 -4.87921e-08 9.23884e-31)
(0.00983667 -4.31553e-08 -9.24486e-31)
(0.0098368 -3.77858e-08 0)
(0.00983691 -3.261e-08 0)
(0.00983701 -2.75475e-08 -9.26132e-31)
(0.00983709 -2.25084e-08 0)
(0.00983716 -1.73897e-08 0)
(0.00983721 -1.20719e-08 0)
(0.00983724 -6.4133e-09 0)
(0.00983725 -2.43988e-10 9.28976e-31)
(0.00983724 6.64261e-09 9.29687e-31)
(0.0098372 1.44998e-08 0)
(0.00983714 2.36411e-08 9.31436e-31)
(0.00983703 3.44574e-08 0)
(0.00983689 4.74387e-08 0)
(0.00983669 6.32028e-08 9.35484e-31)
(0.00983643 8.25319e-08 0)
(0.00983608 1.06422e-07 9.39897e-31)
(0.00983563 1.36143e-07 0)
(0.00983506 1.7333e-07 0)
(0.00983432 2.20087e-07 9.51481e-31)
(0.00983337 2.79144e-07 0)
(0.00983216 3.54059e-07 9.65128e-31)
(0.00983061 4.49507e-07 0)
(0.00982861 5.71673e-07 0)
(0.00982605 7.2883e-07 0)
(0.00982274 9.32165e-07 -1.02401e-30)
(0.00981847 1.19704e-06 0)
(0.00981291 1.54493e-06 1.08645e-30)
(0.00980563 2.00657e-06 0)
(0.00979605 2.6272e-06 0)
(0.00978331 3.47594e-06 0)
(0.00976616 4.66357e-06 0)
(0.00974265 6.37907e-06 0)
(0.00970966 8.9733e-06 0)
(0.00966158 1.31792e-05 0)
(0.00958706 2.08146e-05 -6.11511e-30)
(0.0094575 3.7708e-05 0)
(0.00917035 9.06787e-05 0)
(0.000135556 -0.000865555 1.11822e-29)
(0.000407717 -0.000863976 -1.11522e-29)
(0.000681427 -0.000861156 0)
(0.000956296 -0.000857046 2.21089e-29)
(0.00123191 -0.000851585 0)
(0.0015078 -0.00084471 -1.08998e-29)
(0.0017835 -0.000836358 -2.15351e-29)
(0.00205846 -0.000826476 -2.12667e-29)
(0.00233213 -0.000815029 0)
(0.00260392 -0.000802007 -2.06084e-29)
(0.00287323 -0.000787428 1.01433e-29)
(0.00313947 -0.00077134 0)
(0.00340204 -0.000753814 0)
(0.00366037 -0.000734949 0)
(0.00391391 -0.00071486 0)
(0.00416216 -0.000693682 8.91649e-30)
(0.00440465 -0.000671561 0)
(0.00464095 -0.000648655 1.65482e-29)
(0.00487069 -0.000625128 0)
(0.00509357 -0.000601147 0)
(0.00530931 -0.00057688 -1.46613e-29)
(0.00551773 -0.000552491 0)
(0.00571868 -0.00052814 1.33821e-29)
(0.00591209 -0.000503975 6.44394e-30)
(0.00609792 -0.000480135 -6.13362e-30)
(0.00627619 -0.000456743 5.82918e-30)
(0.00644699 -0.000433907 5.53201e-30)
(0.00661041 -0.000411719 0)
(0.00676662 -0.000390252 0)
(0.00691579 -0.000369565 -4.69488e-30)
(0.00705813 -0.000349699 -1.31427e-29)
(0.00719385 -0.000330682 0)
(0.00732319 -0.000312527 0)
(0.0074464 -0.000295237 -3.72795e-30)
(0.00756373 -0.000278806 0)
(0.00767543 -0.000263219 0)
(0.00778174 -0.000248455 3.11934e-30)
(0.00788292 -0.000234487 0)
(0.00797921 -0.000221287 8.10925e-30)
(0.00807084 -0.000208823 5.20741e-30)
(0.00815803 -0.000197062 0)
(0.00824101 -0.000185969 0)
(0.00831998 -0.00017551 -8.28793e-30)
(0.00839515 -0.000165652 -7.77116e-30)
(0.0084667 -0.00015636 -7.28405e-30)
(0.00853481 -0.000147603 1.04389e-29)
(0.00859966 -0.000139351 3.3991e-30)
(0.0086614 -0.000131572 -2.78758e-30)
(0.0087202 -0.000124239 5.59951e-30)
(0.0087762 -0.000117326 -2.8256e-30)
(0.00882953 -0.000110806 0)
(0.00888034 -0.000104655 2.49562e-30)
(0.00892873 -9.88519e-05 6.61177e-30)
(0.00897483 -9.33746e-05 0)
(0.00901876 -8.82034e-05 0)
(0.0090606 -8.33198e-05 0)
(0.00910046 -7.87064e-05 1.81966e-30)
(0.00913844 -7.4347e-05 0)
(0.00917463 -7.02263e-05 2.76419e-30)
(0.00920909 -6.63304e-05 0)
(0.00924193 -6.26458e-05 2.36593e-30)
(0.0092732 -5.91605e-05 0)
(0.00930299 -5.58627e-05 -2.00948e-30)
(0.00933135 -5.27419e-05 0)
(0.00935836 -4.9788e-05 1.6902e-30)
(0.00938407 -4.69917e-05 -2.53636e-30)
(0.00940854 -4.43441e-05 0)
(0.00943183 -4.18373e-05 -1.27222e-30)
(0.00945399 -3.94634e-05 7.96905e-31)
(0.00947507 -3.72154e-05 7.38294e-31)
(0.00949512 -3.50866e-05 0)
(0.00951418 -3.30707e-05 -1.44146e-30)
(0.00953229 -3.11617e-05 5.80459e-31)
(0.00954951 -2.93541e-05 0)
(0.00956586 -2.76427e-05 -4.88703e-31)
(0.00958139 -2.60226e-05 -4.40497e-31)
(0.00959613 -2.44891e-05 0)
(0.00961013 -2.30379e-05 3.68629e-31)
(0.0096234 -2.16648e-05 0)
(0.00963599 -2.03658e-05 -1.56056e-31)
(0.00964792 -1.91373e-05 0)
(0.00965923 -1.79758e-05 2.1948e-31)
(0.00966994 -1.68779e-05 2.07982e-31)
(0.00968008 -1.58404e-05 8.56948e-32)
(0.00968968 -1.48604e-05 1.71266e-32)
(0.00969876 -1.39349e-05 1.28568e-31)
(0.00970735 -1.30612e-05 0)
(0.00971546 -1.22368e-05 0)
(0.00972313 -1.14591e-05 0)
(0.00973038 -1.07259e-05 -8.23851e-31)
(0.00973721 -1.00348e-05 -5.90075e-32)
(0.00974366 -9.38364e-06 2.50424e-32)
(0.00974974 -8.77048e-06 0)
(0.00975548 -8.19331e-06 1.03244e-30)
(0.00976088 -7.65027e-06 6.53869e-32)
(0.00976596 -7.13959e-06 9.20286e-32)
(0.00977075 -6.65957e-06 0)
(0.00977525 -6.20858e-06 0)
(0.00977949 -5.78508e-06 0)
(0.00978347 -5.38759e-06 1.83431e-31)
(0.0097872 -5.01471e-06 0)
(0.00979071 -4.66509e-06 1.36685e-30)
(0.009794 -4.33747e-06 1.16313e-30)
(0.00979709 -4.03061e-06 -1.43366e-30)
(0.00979998 -3.74336e-06 0)
(0.00980269 -3.47462e-06 -1.77544e-30)
(0.00980523 -3.22332e-06 0)
(0.0098076 -2.98847e-06 -1.5434e-30)
(0.00980982 -2.76913e-06 1.88654e-30)
(0.00981189 -2.56437e-06 1.9188e-30)
(0.00981383 -2.37335e-06 0)
(0.00981563 -2.19524e-06 1.27695e-30)
(0.00981732 -2.02927e-06 -1.64441e-30)
(0.00981889 -1.87471e-06 3.66714e-31)
(0.00982036 -1.73085e-06 0)
(0.00982172 -1.59704e-06 3.81204e-31)
(0.00982299 -1.47266e-06 -1.31535e-30)
(0.00982417 -1.3571e-06 0)
(0.00982527 -1.24981e-06 -1.72651e-30)
(0.00982629 -1.15026e-06 -1.737e-30)
(0.00982724 -1.05795e-06 -1.74672e-30)
(0.00982811 -9.72397e-07 0)
(0.00982893 -8.93165e-07 0)
(0.00982968 -8.19831e-07 0)
(0.00983038 -7.51995e-07 2.20425e-30)
(0.00983103 -6.89282e-07 -4.2857e-31)
(0.00983162 -6.31341e-07 0)
(0.00983218 -5.77837e-07 1.79729e-30)
(0.00983269 -5.28457e-07 1.8025e-30)
(0.00983316 -4.82904e-07 0)
(0.00983359 -4.409e-07 -8.83065e-31)
(0.00983399 -4.02181e-07 3.63161e-30)
(0.00983435 -3.66498e-07 8.90832e-31)
(0.00983469 -3.33614e-07 -4.54031e-30)
(0.009835 -3.03306e-07 0)
(0.00983529 -2.75361e-07 0)
(0.00983555 -2.49572e-07 0)
(0.00983578 -2.25744e-07 9.05525e-31)
(0.009836 -2.03684e-07 4.58123e-30)
(0.0098362 -1.83203e-07 3.67772e-30)
(0.00983637 -1.64114e-07 9.11949e-31)
(0.00983654 -1.46228e-07 4.5993e-30)
(0.00983668 -1.29348e-07 -9.15574e-31)
(0.00983681 -1.13271e-07 0)
(0.00983692 -9.77767e-08 0)
(0.00983702 -8.26245e-08 -4.61927e-30)
(0.0098371 -6.75456e-08 0)
(0.00983717 -5.22329e-08 0)
(0.00983721 -3.63286e-08 3.70848e-30)
(0.00983725 -1.94099e-08 0)
(0.00983726 -9.68986e-10 4.6447e-30)
(0.00983725 1.96105e-08 9.31029e-31)
(0.00983721 4.30853e-08 0)
(0.00983715 7.03916e-08 4.66679e-30)
(0.00983705 1.02696e-07 0)
(0.0098369 1.41462e-07 0)
(0.00983671 1.88533e-07 9.48445e-31)
(0.00983645 2.46244e-07 3.76662e-30)
(0.00983611 3.17567e-07 9.61732e-31)
(0.00983567 4.06297e-07 0)
(0.0098351 5.17305e-07 0)
(0.00983438 6.56873e-07 4.8474e-30)
(0.00983344 8.33142e-07 0)
(0.00983225 1.05673e-06 4.97043e-30)
(0.00983072 1.34156e-06 0)
(0.00982876 1.70607e-06 0)
(0.00982623 2.17489e-06 0)
(0.00982298 2.78132e-06 -1.21524e-30)
(0.00981877 3.57103e-06 0)
(0.00981331 4.60778e-06 1.40317e-30)
(0.00980616 5.98264e-06 0)
(0.00979677 7.82937e-06 0)
(0.00978429 1.03516e-05 5.83666e-30)
(0.00976753 1.38742e-05 -6.55878e-30)
(0.00974468 1.89468e-05 0)
(0.00971282 2.65769e-05 0)
(0.00966702 3.88206e-05 0)
(0.00959822 6.05438e-05 1.79587e-29)
(0.00948888 0.000105858 0)
(0.00931639 0.00022793 -1.01308e-28)
(0.000137248 -0.00144867 7.48778e-29)
(0.000412823 -0.00144608 -9.82416e-33)
(0.000690019 -0.00144148 0)
(0.000968477 -0.00143477 2.29421e-32)
(0.0012478 -0.00142582 0)
(0.00152753 -0.0014145 0)
(0.00180717 -0.00140066 -7.2199e-29)
(0.00208613 -0.00138419 -3.56819e-29)
(0.00236381 -0.001365 3.51168e-29)
(0.00263953 -0.00134306 -3.45927e-29)
(0.00291263 -0.00131842 0)
(0.00318243 -0.00129116 0)
(0.00344827 -0.00126142 -3.23625e-29)
(0.00370955 -0.00122938 -6.30318e-29)
(0.00396566 -0.00119526 6.12315e-29)
(0.00421608 -0.00115929 0)
(0.0044603 -0.00112174 5.73605e-29)
(0.00469791 -0.00108288 2.77698e-29)
(0.00492853 -0.00104299 0)
(0.00515184 -0.00100238 5.10916e-29)
(0.00536762 -0.000961318 -2.4596e-29)
(0.00557567 -0.000920104 -4.67783e-29)
(0.00577588 -0.000879006 2.2449e-29)
(0.00596822 -0.00083828 0)
(0.00615269 -0.000798161 4.03922e-29)
(0.00632935 -0.000758856 3.83352e-29)
(0.00649832 -0.000720547 0)
(0.00665977 -0.000683382 3.43865e-29)
(0.00681387 -0.000647482 0)
(0.00696086 -0.000612938 3.0702e-29)
(0.00710097 -0.00057981 -1.46524e-29)
(0.00723446 -0.000548138 0)
(0.00736159 -0.000517938 0)
(0.00748262 -0.000489207 0)
(0.00759783 -0.000461928 0)
(0.00770747 -0.00043607 0)
(0.00781182 -0.000411593 0)
(0.00791112 -0.00038845 1.89617e-29)
(0.00800562 -0.000366589 -8.72003e-30)
(0.00809556 -0.000345955 0)
(0.00818116 -0.000326488 0)
(0.00826263 -0.000308131 0)
(0.0083402 -0.000290826 -2.81016e-29)
(0.00841404 -0.000274516 -1.33975e-29)
(0.00848435 -0.000259144 -4.00648e-31)
(0.00855131 -0.000244657 4.03805e-31)
(0.00861507 -0.000231003 -1.07222e-29)
(0.00867581 -0.000218133 -1.04578e-29)
(0.00873367 -0.000205999 1.92378e-29)
(0.00878879 -0.000194557 8.81335e-30)
(0.00884131 -0.000183765 0)
(0.00889136 -0.000173584 7.71454e-30)
(0.00893904 -0.000163976 1.48443e-29)
(0.00898449 -0.000154907 0)
(0.00902779 -0.000146342 0)
(0.00906906 -0.000138253 -5.86282e-30)
(0.00910839 -0.000130611 0)
(0.00914587 -0.000123387 0)
(0.00918159 -0.000116559 1.46095e-29)
(0.00921562 -0.000110102 8.77331e-30)
(0.00924805 -0.000103994 4.50299e-30)
(0.00927895 -9.82154e-05 0)
(0.00930838 -9.27472e-05 -3.91586e-30)
(0.00933641 -8.75717e-05 0)
(0.00936311 -8.26723e-05 9.28525e-30)
(0.00938853 -7.80337e-05 -3.14762e-30)