/*--------------------------------*- C++ -*----------------------------------*\
  =========                 |
  \\      /  F ield         | OpenFOAM: The Open Source CFD Toolbox
   \\    /   O peration     | Website:  https://openfoam.org
    \\  /    A nd           | Version:  10
     \\/     M anipulation  |
\*---------------------------------------------------------------------------*/
FoamFile
{
    format      ascii;
    class       volVectorField;
    location    "22250";
    object      Ua;
}
// * * * * * * * * * * * * * * * * * * * * * * * * * * * * * * * * * * * * * //

dimensions      [0 1 -1 0 0 0 0];

internalField   nonuniform List<vector> 
3200
(
(-8.0693e-07 1.16534e-06 0)
(-2.48524e-06 1.28098e-06 0)
(-4.38679e-06 1.54159e-06 0)
(-6.74669e-06 2.0255e-06 0)
(-9.94761e-06 2.90143e-06 0)
(-1.46866e-05 4.52651e-06 0)
(-2.23301e-05 7.6729e-06 0)
(-3.57e-05 1.4056e-05 0)
(-3.03533e-05 2.27501e-05 0)
(-9.36646e-06 4.82983e-05 0)
(-1.6677e-06 9.75619e-06 0)
(-7.93617e-07 4.91648e-06 0)
(-4.68796e-07 3.06549e-06 0)
(-3.08211e-07 2.11875e-06 0)
(-2.16887e-07 1.5614e-06 0)
(-1.60182e-07 1.20358e-06 0)
(-1.22716e-07 9.59533e-07 0)
(-9.67723e-08 7.85392e-07 0)
(-7.81297e-08 6.56654e-07 0)
(-6.4323e-08 5.58716e-07 0)
(-5.38374e-08 4.82413e-07 0)
(-4.5703e-08 4.21765e-07 0)
(-3.92765e-08 3.72727e-07 0)
(-3.41194e-08 3.32483e-07 0)
(-2.99619e-08 2.9891e-07 0)
(-2.61069e-08 2.66607e-07 0)
(-2.25788e-08 2.40989e-07 0)
(-1.99025e-08 2.20084e-07 0)
(-1.78558e-08 2.02742e-07 0)
(-1.62417e-08 1.88179e-07 0)
(-1.49245e-08 1.75819e-07 0)
(-1.38085e-08 1.65226e-07 0)
(-1.28185e-08 1.5605e-07 0)
(-1.18859e-08 1.4798e-07 0)
(-1.0937e-08 1.40723e-07 0)
(-9.88424e-09 1.33971e-07 0)
(-8.61811e-09 1.27428e-07 0)
(-6.99024e-09 1.20828e-07 0)
(-4.77543e-09 1.13796e-07 0)
(-1.79407e-09 1.05164e-07 0)
(-6.38444e-07 3.2527e-06 0)
(-1.93024e-06 3.52242e-06 0)
(-3.26971e-06 4.10989e-06 0)
(-4.66999e-06 5.13886e-06 0)
(-6.05929e-06 6.8497e-06 0)
(-7.13413e-06 9.6839e-06 0)
(-6.97313e-06 1.44449e-05 0)
(-3.03951e-06 2.25955e-05 0)
(8.43469e-06 3.19104e-05 0)
(1.57818e-05 1.121e-05 0)
(1.34486e-05 5.59875e-06 0)
(1.07141e-05 3.9556e-06 0)
(8.66968e-06 3.04498e-06 0)
(7.04281e-06 2.50188e-06 0)
(5.64144e-06 2.18152e-06 0)
(4.33253e-06 2.01907e-06 0)
(3.00736e-06 1.99186e-06 0)
(1.55486e-06 2.10812e-06 0)
(-1.64478e-07 2.40934e-06 0)
(-2.35383e-06 2.98535e-06 0)
(-5.33714e-06 4.00821e-06 0)
(-9.66031e-06 5.79946e-06 0)
(-1.62764e-05 8.96037e-06 0)
(-2.68795e-05 1.46223e-05 0)
(-1.91427e-05 1.18098e-05 0)
(-3.17616e-06 1.2688e-06 0)
(-1.18712e-06 8.18791e-07 0)
(-7.12229e-07 6.89102e-07 0)
(-4.84793e-07 6.02482e-07 0)
(-3.52198e-07 5.34458e-07 0)
(-2.67244e-07 4.78643e-07 0)
(-2.0954e-07 4.31906e-07 0)
(-1.68667e-07 3.92065e-07 0)
(-1.38716e-07 3.57304e-07 0)
(-1.16023e-07 3.25899e-07 0)
(-9.79889e-08 2.95928e-07 0)
(-8.221e-08 2.64844e-07 0)
(-6.54712e-08 2.28682e-07 0)
(-4.56683e-08 1.80791e-07 0)
(-1.7622e-08 1.39745e-07 0)
(-4.13944e-07 4.77252e-06 0)
(-1.22096e-06 5.06072e-06 0)
(-1.96205e-06 5.65741e-06 0)
(-2.56404e-06 6.61357e-06 0)
(-2.88472e-06 7.99998e-06 0)
(-2.67145e-06 9.87286e-06 0)
(-1.5369e-06 1.21711e-05 0)
(9.34508e-07 1.44348e-05 0)
(4.55918e-06 1.50806e-05 0)
(7.23649e-06 1.13535e-05 0)
(7.8533e-06 8.41348e-06 0)
(7.48298e-06 6.54249e-06 0)
(6.76155e-06 5.35556e-06 0)
(5.93246e-06 4.61856e-06 0)
(5.08002e-06 4.20131e-06 0)
(4.22704e-06 4.03904e-06 0)
(3.37598e-06 4.11228e-06 0)
(2.53016e-06 4.43965e-06 0)
(1.71285e-06 5.08047e-06 0)
(9.97252e-07 6.14677e-06 0)
(5.65525e-07 7.8271e-06 0)
(8.29404e-07 1.04266e-05 0)
(2.6773e-06 1.4431e-05 0)
(7.9766e-06 2.06046e-05 0)
(1.4657e-05 1.70142e-05 0)
(1.63924e-05 4.78906e-06 0)
(1.44528e-05 3.28379e-06 0)
(1.30668e-05 2.4741e-06 0)
(1.21176e-05 1.91883e-06 0)
(1.14763e-05 1.49957e-06 0)
(1.107e-05 1.15236e-06 0)
(1.08658e-05 8.33479e-07 0)
(1.08603e-05 5.05536e-07 0)
(1.10776e-05 1.28012e-07 0)
(1.15736e-05 -3.51946e-07 0)
(1.2447e-05 -1.0116e-06 0)
(1.38608e-05 -1.97079e-06 0)
(1.60736e-05 -3.4202e-06 0)
(1.05592e-05 -9.8001e-07 0)
(1.84909e-06 -1.84169e-08 0)
(-2.18543e-07 5.68594e-06 0)
(-6.25365e-07 5.91533e-06 0)
(-9.41198e-07 6.36908e-06 0)
(-1.09583e-06 7.04168e-06 0)
(-9.98842e-07 7.91104e-06 0)
(-5.44617e-07 8.90984e-06 0)
(3.55942e-07 9.88158e-06 0)
(1.69548e-06 1.05326e-05 0)
(3.24022e-06 1.04467e-05 0)
(4.49508e-06 9.40682e-06 0)
(5.16571e-06 8.17416e-06 0)
(5.35506e-06 7.10388e-06 0)
(5.23783e-06 6.28321e-06 0)
(4.94777e-06 5.71059e-06 0)
(4.57227e-06 5.36403e-06 0)
(4.16863e-06 5.22467e-06 0)
(3.78054e-06 5.28355e-06 0)
(3.45175e-06 5.5421e-06 0)
(3.23786e-06 6.00894e-06 0)
(3.21719e-06 6.69205e-06 0)
(3.49864e-06 7.58171e-06 0)
(4.21789e-06 8.61422e-06 0)
(5.49799e-06 9.59716e-06 0)
(7.31476e-06 1.00588e-05 0)
(9.1305e-06 8.95206e-06 0)
(1.01732e-05 6.73944e-06 0)
(1.0431e-05 5.15381e-06 0)
(1.03471e-05 4.00068e-06 0)
(1.01353e-05 3.12269e-06 0)
(9.89147e-06 2.41449e-06 0)
(9.65524e-06 1.8025e-06 0)
(9.43694e-06 1.23035e-06 0)
(9.22787e-06 6.48823e-07 0)
(9.00047e-06 8.27191e-09 0)
(8.70061e-06 -7.48296e-07 0)
(8.23021e-06 -1.69242e-06 0)
(7.41567e-06 -2.91873e-06 0)
(5.953e-06 -4.55439e-06 0)
(5.00355e-06 -1.25339e-06 0)
(2.54423e-06 -1.13038e-07 0)
(-7.97141e-08 6.11667e-06 0)
(-2.13764e-07 6.27199e-06 0)
(-2.7364e-07 6.56824e-06 0)
(-2.12572e-07 6.98148e-06 0)
(1.37597e-08 7.47099e-06 0)
(4.38421e-07 7.97056e-06 0)
(1.06575e-06 8.38287e-06 0)
(1.84797e-06 8.58806e-06 0)
(2.67089e-06 8.48432e-06 0)
(3.38245e-06 8.0719e-06 0)
(3.88308e-06 7.51252e-06 0)
(4.16638e-06 6.94744e-06 0)
(4.275e-06 6.45784e-06 0)
(4.26365e-06 6.08122e-06 0)
(4.18343e-06 5.83082e-06 0)
(4.07862e-06 5.70814e-06 0)
(3.98859e-06 5.70898e-06 0)
(3.9509e-06 5.82499e-06 0)
(4.0035e-06 6.0417e-06 0)
(4.18471e-06 6.33371e-06 0)
(4.52894e-06 6.65723e-06 0)
(5.05596e-06 6.94118e-06 0)
(5.75183e-06 7.08122e-06 0)
(6.54422e-06 6.94901e-06 0)
(7.29148e-06 6.44724e-06 0)
(7.85094e-06 5.68098e-06 0)
(8.18314e-06 4.87874e-06 0)
(8.33269e-06 4.12729e-06 0)
(8.35335e-06 3.44797e-06 0)
(8.28613e-06 2.83547e-06 0)
(8.15625e-06 2.2751e-06 0)
(7.975e-06 1.75036e-06 0)
(7.7421e-06 1.24671e-06 0)
(7.44775e-06 7.54184e-07 0)
(7.07467e-06 2.70832e-07 0)
(6.60154e-06 -1.91608e-07 0)
(6.01064e-06 -5.97873e-07 0)
(5.30472e-06 -8.72005e-07 0)
(4.80271e-06 -1.31191e-07 0)
(2.37268e-06 -5.35092e-09 0)
(7.76369e-09 6.22058e-06 0)
(4.03201e-08 6.31542e-06 0)
(1.22047e-07 6.49134e-06 0)
(2.80318e-07 6.72565e-06 0)
(5.34946e-07 6.98565e-06 0)
(8.93444e-07 7.2285e-06 0)
(1.34511e-06 7.40464e-06 0)
(1.85691e-06 7.46749e-06 0)
(2.37633e-06 7.39024e-06 0)
(2.84598e-06 7.18382e-06 0)
(3.22587e-06 6.89758e-06 0)
(3.50423e-06 6.58714e-06 0)
(3.69128e-06 6.2961e-06 0)
(3.80893e-06 6.05243e-06 0)
(3.88336e-06 5.87087e-06 0)
(3.94098e-06 5.75635e-06 0)
(4.00677e-06 5.70641e-06 0)
(4.1035e-06 5.71228e-06 0)
(4.25085e-06 5.75881e-06 0)
(4.46376e-06 5.82386e-06 0)
(4.74964e-06 5.87782e-06 0)
(5.10456e-06 5.88466e-06 0)
(5.50955e-06 5.80619e-06 0)
(5.9297e-06 5.61153e-06 0)
(6.31989e-06 5.2922e-06 0)
(6.64009e-06 4.87565e-06 0)
(6.87023e-06 4.40938e-06 0)
(7.00981e-06 3.93034e-06 0)
(7.06809e-06 3.46097e-06 0)
(7.05656e-06 3.01264e-06 0)
(6.98515e-06 2.59019e-06 0)
(6.86077e-06 2.19541e-06 0)
(6.68742e-06 1.82982e-06 0)
(6.46713e-06 1.4967e-06 0)
(6.20162e-06 1.20261e-06 0)
(5.89463e-06 9.58549e-07 0)
(5.55476e-06 7.80126e-07 0)
(5.19869e-06 6.85525e-07 0)
(4.80478e-06 1.05146e-07 0)
(2.32217e-06 1.56532e-09 0)
(5.84745e-08 6.12492e-06 0)
(1.85334e-07 6.17844e-06 0)
(3.41011e-07 6.27552e-06 0)
(5.40731e-07 6.40003e-06 0)
(7.93222e-07 6.53078e-06 0)
(1.09882e-06 6.64333e-06 0)
(1.44812e-06 6.7134e-06 0)
(1.82238e-06 6.722e-06 0)
(2.19672e-06 6.66116e-06 0)
(2.54635e-06 6.53756e-06 0)
(2.8534e-06 6.37043e-06 0)
(3.11049e-06 6.18349e-06 0)
(3.31996e-06 5.99821e-06 0)
(3.49093e-06 5.8305e-06 0)
(3.63615e-06 5.68994e-06 0)
(3.76964e-06 5.5802e-06 0)
(3.90496e-06 5.49976e-06 0)
(4.05396e-06 5.44259e-06 0)
(4.22572e-06 5.39876e-06 0)
(4.42543e-06 5.35509e-06 0)
(4.65337e-06 5.29621e-06 0)
(4.90411e-06 5.20632e-06 0)
(5.16645e-06 5.07184e-06 0)
(5.42469e-06 4.88463e-06 0)
(5.66148e-06 4.645e-06 0)
(5.86175e-06 4.36228e-06 0)
(6.0158e-06 4.05122e-06 0)
(6.1197e-06 3.72672e-06 0)
(6.17387e-06 3.40115e-06 0)
(6.18113e-06 3.08384e-06 0)
(6.14533e-06 2.78159e-06 0)
(6.07055e-06 2.49958e-06 0)
(5.96082e-06 2.24219e-06 0)
(5.8203e-06 2.01367e-06 0)
(5.65366e-06 1.8184e-06 0)
(5.46657e-06 1.66087e-06 0)
(5.26602e-06 1.54508e-06 0)
(5.06039e-06 1.47256e-06 0)
(4.73329e-06 2.24388e-07 0)
(2.28155e-06 5.72331e-09 0)
(8.57517e-08 5.91663e-06 0)
(2.62279e-07 5.94447e-06 0)
(4.53999e-07 5.99383e-06 0)
(6.69235e-07 6.05468e-06 0)
(9.11944e-07 6.11448e-06 0)
(1.18109e-06 6.15993e-06 0)
(1.47063e-06 6.17904e-06 0)
(1.77046e-06 6.16348e-06 0)
(2.06834e-06 6.11054e-06 0)
(2.35264e-06 6.02374e-06 0)
(2.61478e-06 5.91159e-06 0)
(2.85065e-06 5.78493e-06 0)
(3.0606e-06 5.65421e-06 0)
(3.24847e-06 5.52776e-06 0)
(3.42027e-06 5.41094e-06 0)
(3.5829e-06 5.30591e-06 0)
(3.74307e-06 5.21186e-06 0)
(3.90643e-06 5.12542e-06 0)
(4.07684e-06 5.04117e-06 0)
(4.25589e-06 4.95238e-06 0)
(4.44253e-06 4.85186e-06 0)
(4.63309e-06 4.73298e-06 0)
(4.82169e-06 4.59085e-06 0)
(5.00098e-06 4.4233e-06 0)
(5.16338e-06 4.23142e-06 0)
(5.3023e-06 4.01939e-06 0)
(5.41297e-06 3.7934e-06 0)
(5.49281e-06 3.56039e-06 0)
(5.54114e-06 3.32701e-06 0)
(5.55876e-06 3.09915e-06 0)
(5.54751e-06 2.88182e-06 0)
(5.50986e-06 2.67924e-06 0)
(5.44879e-06 2.49493e-06 0)
(5.36765e-06 2.33187e-06 0)
(5.27016e-06 2.19251e-06 0)
(5.16037e-06 2.0787e-06 0)
(5.04257e-06 1.99149e-06 0)
(4.92122e-06 1.92959e-06 0)
(4.64691e-06 3.04416e-07 0)
(2.24667e-06 9.62371e-09 0)
(9.90334e-08 5.64977e-06 0)
(2.99109e-07 5.66248e-06 0)
(5.06086e-07 5.68425e-06 0)
(7.24498e-07 5.70925e-06 0)
(9.56228e-07 5.73045e-06 0)
(1.20034e-06 5.74074e-06 0)
(1.45333e-06 5.73408e-06 0)
(1.70981e-06 5.7066e-06 0)
(1.96357e-06 5.65723e-06 0)
(2.20882e-06 5.58778e-06 0)
(2.44121e-06 5.50228e-06 0)
(2.65846e-06 5.40591e-06 0)
(2.86036e-06 5.30384e-06 0)
(3.04846e-06 5.20033e-06 0)
(3.22544e-06 5.09825e-06 0)
(3.39449e-06 4.99887e-06 0)
(3.55869e-06 4.90187e-06 0)
(3.72054e-06 4.80564e-06 0)
(3.88154e-06 4.70761e-06 0)
(4.042e-06 4.60467e-06 0)
(4.20094e-06 4.49371e-06 0)
(4.35621e-06 4.37214e-06 0)
(4.50475e-06 4.23834e-06 0)
(4.64301e-06 4.09195e-06 0)
(4.76746e-06 3.93406e-06 0)
(4.87503e-06 3.767e-06 0)
(4.96342e-06 3.59396e-06 0)
(5.03132e-06 3.41865e-06 0)
(5.07833e-06 3.2448e-06 0)
(5.10489e-06 3.07598e-06 0)
(5.1121e-06 2.91538e-06 0)
(5.10158e-06 2.76577e-06 0)
(5.07535e-06 2.6295e-06 0)
(5.03572e-06 2.50842e-06 0)
(4.9852e-06 2.40393e-06 0)
(4.92644e-06 2.31692e-06 0)
(4.8621e-06 2.24776e-06 0)
(4.79486e-06 2.19443e-06 0)
(4.56091e-06 3.60082e-07 0)
(2.21518e-06 1.31908e-08 0)
(1.04276e-07 5.35616e-06 0)
(3.13091e-07 5.36027e-06 0)
(5.24028e-07 5.36651e-06 0)
(7.39556e-07 5.37169e-06 0)
(9.60611e-07 5.37199e-06 0)
(1.18657e-06 5.36367e-06 0)
(1.41548e-06 5.34366e-06 0)
(1.64445e-06 5.31008e-06 0)
(1.87023e-06 5.2625e-06 0)
(2.08981e-06 5.20184e-06 0)
(2.30088e-06 5.13013e-06 0)
(2.50209e-06 5.04993e-06 0)
(2.6931e-06 4.96388e-06 0)
(2.87443e-06 4.8742e-06 0)
(3.04717e-06 4.78249e-06 0)
(3.21268e-06 4.68953e-06 0)
(3.37225e-06 4.59536e-06 0)
(3.52689e-06 4.49937e-06 0)
(3.67709e-06 4.40052e-06 0)
(3.82276e-06 4.29758e-06 0)
(3.9632e-06 4.1894e-06 0)
(4.0972e-06 4.07515e-06 0)
(4.2232e-06 3.95449e-06 0)
(4.33944e-06 3.82772e-06 0)
(4.44427e-06 3.69578e-06 0)
(4.53624e-06 3.56017e-06 0)
(4.61435e-06 3.4228e-06 0)
(4.67804e-06 3.28582e-06 0)
(4.72725e-06 3.15145e-06 0)
(4.76238e-06 3.02185e-06 0)
(4.78422e-06 2.89898e-06 0)
(4.79389e-06 2.78459e-06 0)
(4.79277e-06 2.68011e-06 0)
(4.7824e-06 2.58669e-06 0)
(4.76447e-06 2.50514e-06 0)
(4.74068e-06 2.43596e-06 0)
(4.71273e-06 2.37931e-06 0)
(4.68232e-06 2.33271e-06 0)
(4.47973e-06 3.98079e-07 0)
(2.18716e-06 1.64382e-08 0)
(1.05021e-07 5.0539e-06 0)
(3.14359e-07 5.05324e-06 0)
(5.23167e-07 5.05094e-06 0)
(7.32778e-07 5.04533e-06 0)
(9.43667e-07 5.03444e-06 0)
(1.15545e-06 5.01634e-06 0)
(1.36705e-06 4.98948e-06 0)
(1.57687e-06 4.95298e-06 0)
(1.78318e-06 4.90666e-06 0)
(1.98433e-06 4.85106e-06 0)
(2.17903e-06 4.78724e-06 0)
(2.36643e-06 4.71657e-06 0)
(2.54619e-06 4.64047e-06 0)
(2.71838e-06 4.56017e-06 0)
(2.88337e-06 4.47663e-06 0)
(3.04165e-06 4.39042e-06 0)
(3.1937e-06 4.30177e-06 0)
(3.33985e-06 4.21061e-06 0)
(3.48019e-06 4.11667e-06 0)
(3.61455e-06 4.01965e-06 0)
(3.74249e-06 3.91929e-06 0)
(3.86335e-06 3.81551e-06 0)
(3.97634e-06 3.70852e-06 0)
(4.08063e-06 3.59879e-06 0)
(4.17545e-06 3.48713e-06 0)
(4.2602e-06 3.37457e-06 0)
(4.33448e-06 3.26237e-06 0)
(4.39817e-06 3.15187e-06 0)
(4.4514e-06 3.04445e-06 0)
(4.49457e-06 2.94144e-06 0)
(4.52831e-06 2.84405e-06 0)
(4.55342e-06 2.75336e-06 0)
(4.57087e-06 2.67025e-06 0)
(4.58174e-06 2.59542e-06 0)
(4.58714e-06 2.52936e-06 0)
(4.58824e-06 2.47235e-06 0)
(4.58617e-06 2.42447e-06 0)
(4.58209e-06 2.38287e-06 0)
(4.40363e-06 4.22523e-07 0)
(2.16159e-06 1.93707e-08 0)
(1.03308e-07 4.75304e-06 0)
(3.08711e-07 4.74979e-06 0)
(5.1216e-07 4.74291e-06 0)
(7.14362e-07 4.73159e-06 0)
(9.15549e-07 4.71486e-06 0)
(1.11548e-06 4.6918e-06 0)
(1.31354e-06 4.66167e-06 0)
(1.50885e-06 4.62409e-06 0)
(1.70042e-06 4.57905e-06 0)
(1.88732e-06 4.52691e-06 0)
(2.06879e-06 4.4683e-06 0)
(2.24427e-06 4.40401e-06 0)
(2.41346e-06 4.33489e-06 0)
(2.57626e-06 4.26169e-06 0)
(2.73272e-06 4.18508e-06 0)
(2.88297e-06 4.10551e-06 0)
(3.02712e-06 4.02333e-06 0)
(3.16524e-06 3.9387e-06 0)
(3.29729e-06 3.85176e-06 0)
(3.42313e-06 3.7626e-06 0)
(3.54249e-06 3.67136e-06 0)
(3.65504e-06 3.5783e-06 0)
(3.76041e-06 3.48377e-06 0)
(3.85822e-06 3.38831e-06 0)
(3.94818e-06 3.29257e-06 0)
(4.03008e-06 3.19731e-06 0)
(4.10386e-06 3.1034e-06 0)
(4.16958e-06 3.01171e-06 0)
(4.22747e-06 2.92315e-06 0)
(4.27792e-06 2.83854e-06 0)
(4.32143e-06 2.75867e-06 0)
(4.35861e-06 2.68419e-06 0)
(4.39016e-06 2.61567e-06 0)
(4.41684e-06 2.55352e-06 0)
(4.43943e-06 2.49803e-06 0)
(4.45873e-06 2.44937e-06 0)
(4.47552e-06 2.40758e-06 0)
(4.49055e-06 2.36953e-06 0)
(4.3313e-06 4.36228e-07 0)
(2.13784e-06 2.2001e-08 0)
(1.00294e-07 4.459e-06 0)
(2.99419e-07 4.45442e-06 0)
(4.95862e-07 4.44517e-06 0)
(6.89983e-07 4.43096e-06 0)
(8.8188e-07 4.41138e-06 0)
(1.07139e-06 4.38603e-06 0)
(1.25815e-06 4.35464e-06 0)
(1.44164e-06 4.3171e-06 0)
(1.62129e-06 4.27352e-06 0)
(1.79655e-06 4.22417e-06 0)
(1.96694e-06 4.1695e-06 0)
(2.13208e-06 4.11004e-06 0)
(2.29173e-06 4.04634e-06 0)
(2.44574e-06 3.97896e-06 0)
(2.59406e-06 3.90839e-06 0)
(2.73665e-06 3.83505e-06 0)
(2.87352e-06 3.75931e-06 0)
(3.00463e-06 3.68147e-06 0)
(3.12994e-06 3.60181e-06 0)
(3.24933e-06 3.52061e-06 0)
(3.36269e-06 3.43816e-06 0)
(3.46985e-06 3.35482e-06 0)
(3.57068e-06 3.27101e-06 0)
(3.66505e-06 3.18719e-06 0)
(3.75289e-06 3.10392e-06 0)
(3.8342e-06 3.02178e-06 0)
(3.90905e-06 2.94137e-06 0)
(3.97761e-06 2.8633e-06 0)
(4.04013e-06 2.78817e-06 0)
(4.09696e-06 2.71654e-06 0)
(4.14851e-06 2.64889e-06 0)
(4.19526e-06 2.58566e-06 0)
(4.23773e-06 2.52719e-06 0)
(4.27647e-06 2.47373e-06 0)
(4.31206e-06 2.42546e-06 0)
(4.34509e-06 2.38246e-06 0)
(4.37613e-06 2.34473e-06 0)
(4.40578e-06 2.30894e-06 0)
(4.26214e-06 4.41019e-07 0)
(2.11527e-06 2.431e-08 0)
(9.66276e-08 4.17462e-06 0)
(2.88316e-07 4.16939e-06 0)
(4.76988e-07 4.15902e-06 0)
(6.62809e-07 4.14349e-06 0)
(8.45801e-07 4.12271e-06 0)
(1.02585e-06 4.09657e-06 0)
(1.20271e-06 4.06506e-06 0)
(1.37609e-06 4.02823e-06 0)
(1.54562e-06 3.98625e-06 0)
(1.71097e-06 3.93938e-06 0)
(1.87182e-06 3.88799e-06 0)
(2.02793e-06 3.83248e-06 0)
(2.1791e-06 3.77328e-06 0)
(2.3252e-06 3.71084e-06 0)
(2.46614e-06 3.64556e-06 0)
(2.60187e-06 3.57785e-06 0)
(2.73234e-06 3.50806e-06 0)
(2.85752e-06 3.43654e-06 0)
(2.97736e-06 3.36363e-06 0)
(3.09182e-06 3.28966e-06 0)
(3.20086e-06 3.21499e-06 0)
(3.30443e-06 3.13997e-06 0)
(3.4025e-06 3.06502e-06 0)
(3.49509e-06 2.99054e-06 0)
(3.58223e-06 2.91697e-06 0)
(3.66402e-06 2.84478e-06 0)
(3.74059e-06 2.77441e-06 0)
(3.81215e-06 2.70629e-06 0)
(3.87893e-06 2.64084e-06 0)
(3.94123e-06 2.57844e-06 0)
(3.99939e-06 2.51942e-06 0)
(4.05379e-06 2.46405e-06 0)
(4.1048e-06 2.41256e-06 0)
(4.15285e-06 2.3651e-06 0)
(4.19834e-06 2.32177e-06 0)
(4.24168e-06 2.28259e-06 0)
(4.28325e-06 2.24755e-06 0)
(4.32344e-06 2.21319e-06 0)
(4.19369e-06 4.38444e-07 0)
(2.09334e-06 2.62932e-08 0)
(9.26712e-08 3.90124e-06 0)
(2.76424e-07 3.89575e-06 0)
(4.57045e-07 3.88495e-06 0)
(6.34594e-07 3.86897e-06 0)
(8.09053e-07 3.84789e-06 0)
(9.8033e-07 3.82179e-06 0)
(1.14827e-06 3.79078e-06 0)
(1.31267e-06 3.755e-06 0)
(1.47331e-06 3.71469e-06 0)
(1.62997e-06 3.67011e-06 0)
(1.78246e-06 3.62157e-06 0)
(1.9306e-06 3.56943e-06 0)
(2.07424e-06 3.51407e-06 0)
(2.2133e-06 3.45585e-06 0)
(2.34769e-06 3.39516e-06 0)
(2.47737e-06 3.33235e-06 0)
(2.6023e-06 3.2678e-06 0)
(2.72246e-06 3.20183e-06 0)
(2.83783e-06 3.1348e-06 0)
(2.94842e-06 3.06704e-06 0)
(3.05423e-06 2.9989e-06 0)
(3.15528e-06 2.93074e-06 0)
(3.25162e-06 2.8629e-06 0)
(3.34331e-06 2.79576e-06 0)
(3.43045e-06 2.72967e-06 0)
(3.51316e-06 2.66498e-06 0)
(3.5916e-06 2.60205e-06 0)
(3.66598e-06 2.5412e-06 0)
(3.7365e-06 2.48273e-06 0)
(3.80343e-06 2.4269e-06 0)
(3.86704e-06 2.37395e-06 0)
(3.92761e-06 2.32407e-06 0)
(3.98545e-06 2.27741e-06 0)
(4.04085e-06 2.23408e-06 0)
(4.09413e-06 2.19413e-06 0)
(4.14555e-06 2.15761e-06 0)
(4.19538e-06 2.12449e-06 0)
(4.24384e-06 2.09135e-06 0)
(4.1261e-06 4.29734e-07 0)
(2.07117e-06 2.79281e-08 0)
(8.86229e-08 3.63942e-06 0)
(2.64302e-07 3.63387e-06 0)
(4.36857e-07 3.62302e-06 0)
(6.06293e-07 3.60706e-06 0)
(7.72574e-07 3.58617e-06 0)
(9.35625e-07 3.56052e-06 0)
(1.09534e-06 3.5303e-06 0)
(1.25158e-06 3.49574e-06 0)
(1.40422e-06 3.45706e-06 0)
(1.5531e-06 3.41455e-06 0)
(1.6981e-06 3.36852e-06 0)
(1.83911e-06 3.31928e-06 0)
(1.97603e-06 3.26718e-06 0)
(2.1088e-06 3.21256e-06 0)
(2.23737e-06 3.15576e-06 0)
(2.36172e-06 3.09713e-06 0)
(2.48181e-06 3.03699e-06 0)
(2.59767e-06 2.97569e-06 0)
(2.7093e-06 2.91356e-06 0)
(2.81673e-06 2.85091e-06 0)
(2.92e-06 2.78808e-06 0)
(3.01917e-06 2.72537e-06 0)
(3.11431e-06 2.66311e-06 0)
(3.20553e-06 2.6016e-06 0)
(3.29293e-06 2.54115e-06 0)
(3.37666e-06 2.48205e-06 0)
(3.45687e-06 2.42456e-06 0)
(3.53374e-06 2.36894e-06 0)
(3.60747e-06 2.31542e-06 0)
(3.67827e-06 2.26419e-06 0)
(3.74636e-06 2.21543e-06 0)
(3.81198e-06 2.16927e-06 0)
(3.87535e-06 2.12584e-06 0)
(3.93672e-06 2.08519e-06 0)
(3.99633e-06 2.04739e-06 0)
(4.0544e-06 2.01244e-06 0)
(4.11116e-06 1.98035e-06 0)
(4.16685e-06 1.94774e-06 0)
(4.05913e-06 4.14904e-07 0)
(2.04797e-06 2.90738e-08 0)
(8.45872e-08 3.38928e-06 0)
(2.52242e-07 3.38378e-06 0)
(4.16851e-07 3.37305e-06 0)
(5.78393e-07 3.35734e-06 0)
(7.36827e-07 3.33687e-06 0)
(8.92094e-07 3.31186e-06 0)
(1.04412e-06 3.28256e-06 0)
(1.19282e-06 3.2492e-06 0)
(1.3381e-06 3.21205e-06 0)
(1.47987e-06 3.17139e-06 0)
(1.61806e-06 3.12752e-06 0)
(1.7526e-06 3.08075e-06 0)
(1.88344e-06 3.03138e-06 0)
(2.01053e-06 2.97975e-06 0)
(2.13386e-06 2.92618e-06 0)
(2.25343e-06 2.87097e-06 0)
(2.36923e-06 2.81446e-06 0)
(2.4813e-06 2.75694e-06 0)
(2.58968e-06 2.69873e-06 0)
(2.6944e-06 2.64013e-06 0)
(2.79554e-06 2.58143e-06 0)
(2.89317e-06 2.52292e-06 0)
(2.98737e-06 2.46488e-06 0)
(3.07827e-06 2.40757e-06 0)
(3.16597e-06 2.35126e-06 0)
(3.25061e-06 2.29617e-06 0)
(3.33234e-06 2.24253e-06 0)
(3.41132e-06 2.19055e-06 0)
(3.48772e-06 2.1404e-06 0)
(3.56171e-06 2.09224e-06 0)
(3.63347e-06 2.04621e-06 0)
(3.7032e-06 2.00242e-06 0)
(3.77107e-06 1.96095e-06 0)
(3.83725e-06 1.92186e-06 0)
(3.90194e-06 1.88519e-06 0)
(3.96527e-06 1.85095e-06 0)
(4.02741e-06 1.81914e-06 0)
(4.08843e-06 1.78651e-06 0)
(3.99011e-06 3.94427e-07 0)
(2.02324e-06 2.96465e-08 0)
(8.06146e-08 3.1507e-06 0)
(2.40385e-07 3.1453e-06 0)
(3.97226e-07 3.13479e-06 0)
(5.51107e-07 3.11941e-06 0)
(7.01993e-07 3.09944e-06 0)
(8.4984e-07 3.07512e-06 0)
(9.94597e-07 3.04671e-06 0)
(1.13621e-06 3.01447e-06 0)
(1.27463e-06 2.97868e-06 0)
(1.4098e-06 2.93961e-06 0)
(1.54169e-06 2.89756e-06 0)
(1.67025e-06 2.85282e-06 0)
(1.79547e-06 2.8057e-06 0)
(1.91734e-06 2.75649e-06 0)
(2.03587e-06 2.70549e-06 0)
(2.15106e-06 2.65301e-06 0)
(2.26295e-06 2.59934e-06 0)
(2.37158e-06 2.54476e-06 0)
(2.477e-06 2.48956e-06 0)
(2.57928e-06 2.43403e-06 0)
(2.67848e-06 2.37841e-06 0)
(2.7747e-06 2.32298e-06 0)
(2.86804e-06 2.26798e-06 0)
(2.95859e-06 2.21364e-06 0)
(3.04648e-06 2.16019e-06 0)
(3.13183e-06 2.10782e-06 0)
(3.21477e-06 2.05674e-06 0)
(3.29545e-06 2.0071e-06 0)
(3.374e-06 1.95906e-06 0)
(3.45058e-06 1.91275e-06 0)
(3.52533e-06 1.86829e-06 0)
(3.5984e-06 1.82576e-06 0)
(3.66994e-06 1.78524e-06 0)
(3.74009e-06 1.74677e-06 0)
(3.80899e-06 1.7104e-06 0)
(3.87677e-06 1.67615e-06 0)
(3.94357e-06 1.64401e-06 0)
(4.0095e-06 1.61091e-06 0)
(3.91932e-06 3.6854e-07 0)
(1.99602e-06 2.95127e-08 0)
(7.67243e-08 2.92347e-06 0)
(2.28782e-07 2.91819e-06 0)
(3.78046e-07 2.90791e-06 0)
(5.2449e-07 2.89289e-06 0)
(6.68086e-07 2.87341e-06 0)
(8.08806e-07 2.84974e-06 0)
(9.46621e-07 2.82213e-06 0)
(1.0815e-06 2.79087e-06 0)
(1.21342e-06 2.75622e-06 0)
(1.34236e-06 2.71847e-06 0)
(1.46831e-06 2.6779e-06 0)
(1.59126e-06 2.63478e-06 0)
(1.7112e-06 2.58941e-06 0)
(1.82817e-06 2.54208e-06 0)
(1.94218e-06 2.49306e-06 0)
(2.05326e-06 2.44263e-06 0)
(2.16147e-06 2.39108e-06 0)
(2.26685e-06 2.33866e-06 0)
(2.36947e-06 2.28564e-06 0)
(2.4694e-06 2.23228e-06 0)
(2.56672e-06 2.17881e-06 0)
(2.66154e-06 2.12547e-06 0)
(2.75393e-06 2.07248e-06 0)
(2.84401e-06 2.02006e-06 0)
(2.93188e-06 1.96839e-06 0)
(3.01766e-06 1.91766e-06 0)
(3.10147e-06 1.86804e-06 0)
(3.18342e-06 1.81967e-06 0)
(3.26365e-06 1.77269e-06 0)
(3.34226e-06 1.72721e-06 0)
(3.41939e-06 1.68333e-06 0)
(3.49515e-06 1.64113e-06 0)
(3.56966e-06 1.60069e-06 0)
(3.64302e-06 1.56205e-06 0)
(3.71534e-06 1.52524e-06 0)
(3.78671e-06 1.4903e-06 0)
(3.85719e-06 1.45725e-06 0)
(3.9268e-06 1.42324e-06 0)
(3.84448e-06 3.37263e-07 0)
(1.96584e-06 2.85033e-08 0)
(7.29173e-08 2.70737e-06 0)
(2.17433e-07 2.70219e-06 0)
(3.593e-07 2.69212e-06 0)
(4.98501e-07 2.67743e-06 0)
(6.35022e-07 2.65839e-06 0)
(7.68847e-07 2.63527e-06 0)
(8.99966e-07 2.60835e-06 0)
(1.02837e-06 2.57789e-06 0)
(1.15405e-06 2.54416e-06 0)
(1.27702e-06 2.50744e-06 0)
(1.39728e-06 2.468e-06 0)
(1.51485e-06 2.42611e-06 0)
(1.62974e-06 2.38205e-06 0)
(1.742e-06 2.33608e-06 0)
(1.85166e-06 2.28848e-06 0)
(1.95877e-06 2.2395e-06 0)
(2.06339e-06 2.1894e-06 0)
(2.16559e-06 2.13843e-06 0)
(2.26544e-06 2.08683e-06 0)
(2.36301e-06 2.03484e-06 0)
(2.4584e-06 1.98268e-06 0)
(2.55169e-06 1.93056e-06 0)
(2.64298e-06 1.87869e-06 0)
(2.73237e-06 1.82726e-06 0)
(2.81996e-06 1.77645e-06 0)
(2.90585e-06 1.72642e-06 0)
(2.99015e-06 1.67733e-06 0)
(3.07297e-06 1.6293e-06 0)
(3.1544e-06 1.58247e-06 0)
(3.23454e-06 1.53694e-06 0)
(3.31351e-06 1.4928e-06 0)
(3.39138e-06 1.45013e-06 0)
(3.46827e-06 1.409e-06 0)
(3.54426e-06 1.36944e-06 0)
(3.61944e-06 1.3315e-06 0)
(3.6939e-06 1.29521e-06 0)
(3.76776e-06 1.26057e-06 0)
(3.84109e-06 1.22502e-06 0)
(3.76573e-06 3.00351e-07 0)
(1.93178e-06 2.6375e-08 0)
(6.91847e-08 2.50215e-06 0)
(2.06307e-07 2.49707e-06 0)
(3.40931e-07 2.48718e-06 0)
(4.73051e-07 2.47276e-06 0)
(6.02662e-07 2.45408e-06 0)
(7.29766e-07 2.43141e-06 0)
(8.54366e-07 2.40501e-06 0)
(9.76471e-07 2.37516e-06 0)
(1.09609e-06 2.34212e-06 0)
(1.21326e-06 2.30616e-06 0)
(1.32798e-06 2.26753e-06 0)
(1.4403e-06 2.2265e-06 0)
(1.55026e-06 2.18333e-06 0)
(1.65789e-06 2.13827e-06 0)
(1.76327e-06 2.09157e-06 0)
(1.86644e-06 2.04348e-06 0)
(1.96748e-06 1.99424e-06 0)
(2.06646e-06 1.94408e-06 0)
(2.16345e-06 1.89322e-06 0)
(2.25856e-06 1.84189e-06 0)
(2.35185e-06 1.79029e-06 0)
(2.44343e-06 1.73863e-06 0)
(2.53338e-06 1.68708e-06 0)
(2.6218e-06 1.63584e-06 0)
(2.70879e-06 1.58506e-06 0)
(2.79444e-06 1.53491e-06 0)
(2.87885e-06 1.48552e-06 0)
(2.9621e-06 1.43703e-06 0)
(3.04428e-06 1.38955e-06 0)
(3.12547e-06 1.3432e-06 0)
(3.20575e-06 1.29805e-06 0)
(3.28521e-06 1.25419e-06 0)
(3.36389e-06 1.21168e-06 0)
(3.44187e-06 1.17057e-06 0)
(3.5192e-06 1.1309e-06 0)
(3.59593e-06 1.09267e-06 0)
(3.6721e-06 1.05589e-06 0)
(3.74769e-06 1.01828e-06 0)
(3.67999e-06 2.5778e-07 0)
(1.89363e-06 2.29081e-08 0)
(6.55127e-08 2.30762e-06 0)
(1.95363e-07 2.30261e-06 0)
(3.22865e-07 2.29287e-06 0)
(4.48023e-07 2.27865e-06 0)
(5.70847e-07 2.26024e-06 0)
(6.9135e-07 2.2379e-06 0)
(8.09549e-07 2.21189e-06 0)
(9.25466e-07 2.18247e-06 0)
(1.03913e-06 2.14989e-06 0)
(1.15057e-06 2.11442e-06 0)
(1.25983e-06 2.07631e-06 0)
(1.36696e-06 2.0358e-06 0)
(1.472e-06 1.99314e-06 0)
(1.57501e-06 1.94857e-06 0)
(1.67607e-06 1.90232e-06 0)
(1.77524e-06 1.85463e-06 0)
(1.8726e-06 1.80571e-06 0)
(1.96823e-06 1.7558e-06 0)
(2.06222e-06 1.70509e-06 0)
(2.15465e-06 1.65379e-06 0)
(2.24561e-06 1.60209e-06 0)
(2.3352e-06 1.5502e-06 0)
(2.42352e-06 1.49827e-06 0)
(2.51064e-06 1.44649e-06 0)
(2.59667e-06 1.39502e-06 0)
(2.68169e-06 1.344e-06 0)
(2.76579e-06 1.29357e-06 0)
(2.84904e-06 1.24388e-06 0)
(2.93152e-06 1.19503e-06 0)
(3.01331e-06 1.14713e-06 0)
(3.09445e-06 1.10028e-06 0)
(3.17502e-06 1.05458e-06 0)
(3.25504e-06 1.01008e-06 0)
(3.33457e-06 9.66871e-07 0)
(3.41361e-06 9.24997e-07 0)
(3.49217e-06 8.84513e-07 0)
(3.57023e-06 8.45467e-07 0)
(3.64762e-06 8.06052e-07 0)
(3.5873e-06 2.10119e-07 0)
(1.85025e-06 1.78896e-08 0)
(6.18855e-08 2.12364e-06 0)
(1.84553e-07 2.11868e-06 0)
(3.05019e-07 2.10903e-06 0)
(4.233e-07 2.09496e-06 0)
(5.39416e-07 2.07674e-06 0)
(6.53391e-07 2.05461e-06 0)
(7.65252e-07 2.02884e-06 0)
(8.75033e-07 1.99967e-06 0)
(9.82774e-07 1.96737e-06 0)
(1.08852e-06 1.93217e-06 0)
(1.19231e-06 1.8943e-06 0)
(1.29422e-06 1.85402e-06 0)
(1.3943e-06 1.81154e-06 0)
(1.49262e-06 1.76709e-06 0)
(1.58925e-06 1.7209e-06 0)
(1.68428e-06 1.67317e-06 0)
(1.77778e-06 1.62412e-06 0)
(1.86985e-06 1.57395e-06 0)
(1.96058e-06 1.52286e-06 0)
(2.05006e-06 1.47104e-06 0)
(2.13839e-06 1.41867e-06 0)
(2.22566e-06 1.36594e-06 0)
(2.31196e-06 1.313e-06 0)
(2.39739e-06 1.26004e-06 0)
(2.48204e-06 1.2072e-06 0)
(2.566e-06 1.15463e-06 0)
(2.64934e-06 1.10249e-06 0)
(2.73214e-06 1.05089e-06 0)
(2.81448e-06 9.99967e-07 0)
(2.8964e-06 9.49837e-07 0)
(2.97797e-06 9.00606e-07 0)
(3.05924e-06 8.52373e-07 0)
(3.14023e-06 8.05226e-07 0)
(3.22101e-06 7.59245e-07 0)
(3.30159e-06 7.14502e-07 0)
(3.38202e-06 6.71066e-07 0)
(3.46236e-06 6.29003e-07 0)
(3.5426e-06 5.86977e-07 0)
(3.48815e-06 1.55782e-07 0)
(1.80047e-06 1.06193e-08 0)
(5.82881e-08 1.95009e-06 0)
(1.7383e-07 1.94516e-06 0)
(2.87315e-07 1.93558e-06 0)
(3.98768e-07 1.92159e-06 0)
(5.08218e-07 1.90346e-06 0)
(6.15696e-07 1.88145e-06 0)
(7.2124e-07 1.8558e-06 0)
(8.24891e-07 1.82675e-06 0)
(9.26695e-07 1.79454e-06 0)
(1.02671e-06 1.75941e-06 0)
(1.12498e-06 1.72157e-06 0)
(1.22159e-06 1.68126e-06 0)
(1.31659e-06 1.63869e-06 0)
(1.41006e-06 1.59406e-06 0)
(1.50209e-06 1.54759e-06 0)
(1.59277e-06 1.49947e-06 0)
(1.68217e-06 1.4499e-06 0)
(1.7704e-06 1.39906e-06 0)
(1.85755e-06 1.34715e-06 0)
(1.94373e-06 1.29433e-06 0)
(2.02903e-06 1.24078e-06 0)
(2.11356e-06 1.18667e-06 0)
(2.19741e-06 1.13217e-06 0)
(2.28069e-06 1.07744e-06 0)
(2.36348e-06 1.02262e-06 0)
(2.44588e-06 9.67878e-07 0)
(2.52796e-06 9.13351e-07 0)
(2.60982e-06 8.59182e-07 0)
(2.6915e-06 8.05505e-07 0)
(2.77307e-06 7.52449e-07 0)
(2.85458e-06 7.00135e-07 0)
(2.93606e-06 6.48673e-07 0)
(3.01755e-06 5.98166e-07 0)
(3.09906e-06 5.48703e-07 0)
(3.18061e-06 5.00357e-07 0)
(3.2622e-06 4.53185e-07 0)
(3.34385e-06 4.07214e-07 0)
(3.42547e-06 3.61542e-07 0)
(3.37814e-06 9.41294e-08 0)
(1.74471e-06 1.94332e-10 0)
(5.4707e-08 1.78691e-06 0)
(1.63155e-07 1.78199e-06 0)
(2.69685e-07 1.77243e-06 0)
(3.7433e-07 1.75848e-06 0)
(4.77124e-07 1.7404e-06 0)
(5.78105e-07 1.71842e-06 0)
(6.77316e-07 1.69278e-06 0)
(7.74803e-07 1.66373e-06 0)
(8.70618e-07 1.63148e-06 0)
(9.64819e-07 1.59626e-06 0)
(1.05747e-06 1.55828e-06 0)
(1.14864e-06 1.51775e-06 0)
(1.2384e-06 1.47487e-06 0)
(1.32683e-06 1.42983e-06 0)
(1.41403e-06 1.38282e-06 0)
(1.50007e-06 1.33402e-06 0)
(1.58506e-06 1.28362e-06 0)
(1.6691e-06 1.23178e-06 0)
(1.75229e-06 1.17868e-06 0)
(1.83473e-06 1.12447e-06 0)
(1.91655e-06 1.06932e-06 0)
(1.99784e-06 1.01339e-06 0)
(2.07872e-06 9.56838e-07 0)
(2.15929e-06 8.99809e-07 0)
(2.23965e-06 8.4246e-07 0)
(2.31992e-06 7.84944e-07 0)
(2.40017e-06 7.27412e-07 0)
(2.48049e-06 6.70012e-07 0)
(2.56096e-06 6.12894e-07 0)
(2.64163e-06 5.56203e-07 0)
(2.72256e-06 5.00082e-07 0)
(2.80377e-06 4.44669e-07 0)
(2.88529e-06 3.90095e-07 0)
(2.9671e-06 3.36484e-07 0)
(3.04919e-06 2.8395e-07 0)
(3.13148e-06 2.32594e-07 0)
(3.21389e-06 1.82502e-07 0)
(3.29617e-06 1.33412e-07 0)
(3.25658e-06 2.58148e-08 0)
(1.68181e-06 -1.45796e-08 0)
(5.11315e-08 1.63406e-06 0)
(1.52495e-07 1.62915e-06 0)
(2.52075e-07 1.61959e-06 0)
(3.49909e-07 1.60564e-06 0)
(4.46035e-07 1.58754e-06 0)
(5.40493e-07 1.56553e-06 0)
(6.33328e-07 1.53985e-06 0)
(7.2459e-07 1.51071e-06 0)
(8.14333e-07 1.47833e-06 0)
(9.02617e-07 1.44291e-06 0)
(9.89506e-07 1.40467e-06 0)
(1.07507e-06 1.36378e-06 0)
(1.15939e-06 1.32044e-06 0)
(1.24254e-06 1.27482e-06 0)
(1.32462e-06 1.22709e-06 0)
(1.40571e-06 1.17742e-06 0)
(1.48593e-06 1.12597e-06 0)
(1.56536e-06 1.07289e-06 0)
(1.64413e-06 1.01834e-06 0)
(1.72235e-06 9.62454e-07 0)
(1.80013e-06 9.05383e-07 0)
(1.8776e-06 8.47269e-07 0)
(1.95488e-06 7.88257e-07 0)
(2.03209e-06 7.2849e-07 0)
(2.10935e-06 6.68115e-07 0)
(2.18678e-06 6.0728e-07 0)
(2.26449e-06 5.4614e-07 0)
(2.34259e-06 4.84852e-07 0)
(2.42116e-06 4.23578e-07 0)
(2.5003e-06 3.62486e-07 0)
(2.58007e-06 3.01745e-07 0)
(2.66051e-06 2.41529e-07 0)
(2.74165e-06 1.82013e-07 0)
(2.82352e-06 1.23368e-07 0)
(2.90608e-06 6.57665e-08 0)
(2.98932e-06 9.37266e-09 0)
(3.07321e-06 -4.56527e-08 0)
(3.15759e-06 -9.89101e-08 0)
(3.1243e-06 -5.31468e-08 0)
(1.60992e-06 -3.53411e-08 0)
(4.75541e-08 1.49154e-06 0)
(1.41827e-07 1.48662e-06 0)
(2.34448e-07 1.47705e-06 0)
(3.25454e-07 1.46308e-06 0)
(4.14883e-07 1.44494e-06 0)
(5.02776e-07 1.42287e-06 0)
(5.89178e-07 1.39709e-06 0)
(6.74138e-07 1.36782e-06 0)
(7.57708e-07 1.33525e-06 0)
(8.39948e-07 1.29958e-06 0)
(9.2092e-07 1.261e-06 0)
(1.00069e-06 1.21969e-06 0)