/*--------------------------------*- C++ -*----------------------------------*\
  =========                 |
  \\      /  F ield         | OpenFOAM: The Open Source CFD Toolbox
   \\    /   O peration     | Website:  https://openfoam.org
    \\  /    A nd           | Version:  10
     \\/     M anipulation  |
\*---------------------------------------------------------------------------*/
FoamFile
{
    format      ascii;
    class       volScalarField;
    location    "2.14";
    object      p;
}
// * * * * * * * * * * * * * * * * * * * * * * * * * * * * * * * * * * * * * //

dimensions      [1 -1 -2 0 0 0 0];

internalField   nonuniform List<scalar> 
12225
(
1.72349e+07
1.71814e+07
1.70856e+07
1.69595e+07
1.68132e+07
1.66543e+07
1.64882e+07
1.63184e+07
1.61471e+07
1.59756e+07
1.58043e+07
1.56333e+07
1.54622e+07
1.52899e+07
1.51147e+07
1.49334e+07
1.474e+07
1.45187e+07
1.72371e+07
1.71833e+07
1.70872e+07
1.69608e+07
1.68142e+07
1.6655e+07
1.64888e+07
1.63189e+07
1.61476e+07
1.59761e+07
1.58049e+07
1.5634e+07
1.5463e+07
1.5291e+07
1.51163e+07
1.49362e+07
1.47455e+07
1.4535e+07
1.72419e+07
1.71876e+07
1.70908e+07
1.69636e+07
1.68163e+07
1.66567e+07
1.64902e+07
1.63201e+07
1.61487e+07
1.59772e+07
1.58061e+07
1.56354e+07
1.54648e+07
1.52935e+07
1.51199e+07
1.4942e+07
1.47563e+07
1.45597e+07
1.72499e+07
1.71948e+07
1.70967e+07
1.69683e+07
1.68199e+07
1.66595e+07
1.64924e+07
1.6322e+07
1.61505e+07
1.59789e+07
1.5808e+07
1.56378e+07
1.54678e+07
1.52975e+07
1.51256e+07
1.49509e+07
1.47716e+07
1.45885e+07
1.72618e+07
1.72054e+07
1.71054e+07
1.69751e+07
1.68252e+07
1.66636e+07
1.64957e+07
1.63248e+07
1.6153e+07
1.59815e+07
1.58109e+07
1.56411e+07
1.54721e+07
1.53031e+07
1.51336e+07
1.49628e+07
1.47905e+07
1.46193e+07
1.72785e+07
1.72202e+07
1.71175e+07
1.69845e+07
1.68324e+07
1.66692e+07
1.65001e+07
1.63285e+07
1.61565e+07
1.5985e+07
1.58147e+07
1.56456e+07
1.54777e+07
1.53106e+07
1.51439e+07
1.49775e+07
1.48122e+07
1.4651e+07
1.73008e+07
1.72399e+07
1.71335e+07
1.69969e+07
1.68418e+07
1.66764e+07
1.65058e+07
1.63334e+07
1.61609e+07
1.59895e+07
1.58196e+07
1.56514e+07
1.54849e+07
1.53199e+07
1.51563e+07
1.49946e+07
1.48359e+07
1.46832e+07
1.73302e+07
1.72657e+07
1.71542e+07
1.70127e+07
1.68537e+07
1.66854e+07
1.6513e+07
1.63395e+07
1.61665e+07
1.59951e+07
1.58257e+07
1.56585e+07
1.54936e+07
1.5331e+07
1.51708e+07
1.50138e+07
1.48612e+07
1.47155e+07
1.73683e+07
1.72986e+07
1.71802e+07
1.70323e+07
1.68683e+07
1.66965e+07
1.65217e+07
1.63468e+07
1.61732e+07
1.60018e+07
1.5833e+07
1.5667e+07
1.55039e+07
1.53439e+07
1.51872e+07
1.50347e+07
1.48876e+07
1.47478e+07
1.74172e+07
1.73404e+07
1.72126e+07
1.70564e+07
1.6886e+07
1.67097e+07
1.6532e+07
1.63554e+07
1.6181e+07
1.60097e+07
1.58415e+07
1.56769e+07
1.55157e+07
1.53584e+07
1.52052e+07
1.5057e+07
1.49149e+07
1.47801e+07
1.74798e+07
1.73927e+07
1.72523e+07
1.70851e+07
1.69067e+07
1.67249e+07
1.65438e+07
1.63652e+07
1.619e+07
1.60186e+07
1.58512e+07
1.5688e+07
1.55289e+07
1.53743e+07
1.52246e+07
1.50804e+07
1.49427e+07
1.48122e+07
1.75534e+07
1.74524e+07
1.7296e+07
1.71159e+07
1.69283e+07
1.67406e+07
1.65558e+07
1.63751e+07
1.61991e+07
1.60277e+07
1.58611e+07
1.56992e+07
1.55421e+07
1.53901e+07
1.52434e+07
1.51026e+07
1.49684e+07
1.48414e+07
1.76441e+07
1.75233e+07
1.73459e+07
1.715e+07
1.69517e+07
1.67573e+07
1.65684e+07
1.63856e+07
1.62086e+07
1.60373e+07
1.58715e+07
1.5711e+07
1.55559e+07
1.54064e+07
1.52626e+07
1.5125e+07
1.4994e+07
1.487e+07
1.77783e+07
1.76219e+07
1.74113e+07
1.71925e+07
1.698e+07
1.67769e+07
1.65831e+07
1.63977e+07
1.62198e+07
1.60487e+07
1.58839e+07
1.57252e+07
1.55724e+07
1.54256e+07
1.52849e+07
1.51506e+07
1.50229e+07
1.49021e+07
1.79873e+07
1.77591e+07
1.74938e+07
1.72424e+07
1.70113e+07
1.6798e+07
1.65987e+07
1.64106e+07
1.62319e+07
1.60613e+07
1.58979e+07
1.57413e+07
1.55912e+07
1.54475e+07
1.53102e+07
1.51793e+07
1.5055e+07
1.49373e+07
1.83407e+07
1.79422e+07
1.7586e+07
1.72915e+07
1.70397e+07
1.68161e+07
1.66119e+07
1.6422e+07
1.62433e+07
1.60739e+07
1.59126e+07
1.57587e+07
1.56117e+07
1.54714e+07
1.53377e+07
1.52104e+07
1.50895e+07
1.49749e+07
1.90262e+07
1.81258e+07
1.76454e+07
1.73136e+07
1.70488e+07
1.68207e+07
1.66157e+07
1.64268e+07
1.62502e+07
1.60836e+07
1.59256e+07
1.57753e+07
1.56321e+07
1.54957e+07
1.53659e+07
1.52424e+07
1.5125e+07
1.50137e+07
1.81816e+07
1.78491e+07
1.75265e+07
1.72491e+07
1.70085e+07
1.67939e+07
1.65981e+07
1.64166e+07
1.62463e+07
1.60854e+07
1.59327e+07
1.57876e+07
1.56493e+07
1.55177e+07
1.53923e+07
1.52729e+07
1.51594e+07
1.50515e+07
1.76164e+07
1.7481e+07
1.72954e+07
1.70995e+07
1.69076e+07
1.6724e+07
1.65494e+07
1.63831e+07
1.62248e+07
1.60736e+07
1.59293e+07
1.57913e+07
1.56595e+07
1.55336e+07
1.54134e+07
1.52988e+07
1.51895e+07
1.50853e+07
1.72946e+07
1.72175e+07
1.70948e+07
1.69501e+07
1.67966e+07
1.66414e+07
1.64879e+07
1.6338e+07
1.61924e+07
1.60516e+07
1.59157e+07
1.5785e+07
1.56594e+07
1.55389e+07
1.54234e+07
1.53128e+07
1.52071e+07
1.51061e+07
1.7111e+07
1.70558e+07
1.69619e+07
1.68445e+07
1.67141e+07
1.65774e+07
1.64387e+07
1.63006e+07
1.61644e+07
1.60314e+07
1.5902e+07
1.57766e+07
1.56556e+07
1.5539e+07
1.54269e+07
1.53193e+07
1.52161e+07
1.51173e+07
1.69897e+07
1.69453e+07
1.68673e+07
1.67664e+07
1.6651e+07
1.65272e+07
1.63992e+07
1.62697e+07
1.61408e+07
1.60137e+07
1.58893e+07
1.57682e+07
1.56507e+07
1.55371e+07
1.54276e+07
1.53223e+07
1.52211e+07
1.5124e+07
1.69076e+07
1.68693e+07
1.68007e+07
1.671e+07
1.66045e+07
1.64894e+07
1.63689e+07
1.62458e+07
1.61222e+07
1.59995e+07
1.58788e+07
1.57608e+07
1.5646e+07
1.55347e+07
1.54272e+07
1.53235e+07
1.52238e+07
1.5128e+07
1.68519e+07
1.68171e+07
1.67542e+07
1.66702e+07
1.65711e+07
1.6462e+07
1.63467e+07
1.6228e+07
1.61081e+07
1.59886e+07
1.58706e+07
1.57549e+07
1.5642e+07
1.55324e+07
1.54263e+07
1.53239e+07
1.52252e+07
1.51303e+07
1.68141e+07
1.67816e+07
1.67224e+07
1.66426e+07
1.65478e+07
1.64426e+07
1.63308e+07
1.62152e+07
1.6098e+07
1.59807e+07
1.58646e+07
1.57504e+07
1.56389e+07
1.55305e+07
1.54254e+07
1.53238e+07
1.52259e+07
1.51317e+07
1.67891e+07
1.67579e+07
1.6701e+07
1.66239e+07
1.65319e+07
1.64294e+07
1.63199e+07
1.62064e+07
1.60909e+07
1.59751e+07
1.58603e+07
1.57472e+07
1.56367e+07
1.5529e+07
1.54246e+07
1.53236e+07
1.52262e+07
1.51325e+07
1.6773e+07
1.67427e+07
1.66872e+07
1.66118e+07
1.65215e+07
1.64207e+07
1.63127e+07
1.62005e+07
1.60862e+07
1.59714e+07
1.58574e+07
1.57451e+07
1.56351e+07
1.5528e+07
1.5424e+07
1.53234e+07
1.52264e+07
1.51329e+07
1.67632e+07
1.67335e+07
1.66788e+07
1.66044e+07
1.65152e+07
1.64154e+07
1.63083e+07
1.61969e+07
1.60833e+07
1.59691e+07
1.58556e+07
1.57437e+07
1.56341e+07
1.55273e+07
1.54236e+07
1.53233e+07
1.52264e+07
1.51331e+07
1.6758e+07
1.67285e+07
1.66742e+07
1.66004e+07
1.65118e+07
1.64125e+07
1.63059e+07
1.61949e+07
1.60817e+07
1.59678e+07
1.58546e+07
1.57429e+07
1.56335e+07
1.55269e+07
1.54234e+07
1.53232e+07
1.52264e+07
1.51332e+07
1.67558e+07
1.67264e+07
1.66724e+07
1.65988e+07
1.65104e+07
1.64113e+07
1.63049e+07
1.61941e+07
1.6081e+07
1.59673e+07
1.58541e+07
1.57426e+07
1.56333e+07
1.55267e+07
1.54233e+07
1.53231e+07
1.52264e+07
1.51332e+07
1.24109e+07
1.24097e+07
1.24072e+07
1.24034e+07
1.23983e+07
1.23919e+07
1.23841e+07
1.23749e+07
1.23643e+07
1.23523e+07
1.23388e+07
1.23238e+07
1.23073e+07
1.22892e+07
1.22696e+07
1.22485e+07
1.22257e+07
1.22013e+07
1.21752e+07
1.21475e+07
1.2118e+07
1.20868e+07
1.20538e+07
1.20189e+07
1.19821e+07
1.19434e+07
1.19026e+07
1.18598e+07
1.18148e+07
1.17674e+07
1.17177e+07
1.16654e+07
1.16103e+07
1.15522e+07
1.14907e+07
1.14255e+07
1.13561e+07
1.12817e+07
1.12014e+07
1.11135e+07
1.10154e+07
1.09021e+07
1.07615e+07
1.07293e+07
1.07251e+07
1.07213e+07
1.07176e+07
1.07142e+07
1.07108e+07
1.07075e+07
1.07043e+07
1.07011e+07
1.0698e+07
1.0695e+07
1.0692e+07
1.0689e+07
1.06861e+07
1.06832e+07
1.06803e+07
1.06774e+07
1.06746e+07
1.06718e+07
1.0669e+07
1.06663e+07
1.06635e+07
1.06608e+07
1.06581e+07
1.06554e+07
1.06527e+07
1.065e+07
1.06473e+07
1.06446e+07
1.06419e+07
1.06393e+07
1.06366e+07
1.06339e+07
1.06313e+07
1.06286e+07
1.06259e+07
1.06233e+07
1.06206e+07
1.06179e+07
1.06152e+07
1.06125e+07
1.06098e+07
1.06071e+07
1.06044e+07
1.06017e+07
1.0599e+07
1.05962e+07
1.05935e+07
1.05907e+07
1.05879e+07
1.05851e+07
1.05823e+07
1.05795e+07
1.05767e+07
1.05739e+07
1.0571e+07
1.05681e+07
1.05652e+07
1.05623e+07
1.05594e+07
1.05565e+07
1.05535e+07
1.05505e+07
1.05475e+07
1.05445e+07
1.05415e+07
1.05384e+07
1.05353e+07
1.05322e+07
1.05291e+07
1.0526e+07
1.05228e+07
1.05196e+07
1.05164e+07
1.05132e+07
1.05099e+07
1.05067e+07
1.05034e+07
1.05e+07
1.04967e+07
1.04933e+07
1.04899e+07
1.04865e+07
1.04831e+07
1.04796e+07
1.04761e+07
1.04726e+07
1.0469e+07
1.04654e+07
1.04618e+07
1.04582e+07
1.04545e+07
1.04509e+07
1.04471e+07
1.04434e+07
1.04396e+07
1.04358e+07
1.0432e+07
1.04281e+07
1.04242e+07
1.04203e+07
1.04164e+07
1.04124e+07
1.04084e+07
1.04043e+07
1.04003e+07
1.03962e+07
1.0392e+07
1.03879e+07
1.03837e+07
1.03794e+07
1.03752e+07
1.03709e+07
1.03665e+07
1.03622e+07
1.03578e+07
1.03533e+07
1.03489e+07
1.03444e+07
1.03398e+07
1.03352e+07
1.03306e+07
1.0326e+07
1.03213e+07
1.03166e+07
1.03119e+07
1.03071e+07
1.03023e+07
1.02974e+07
1.02925e+07
1.02876e+07
1.02827e+07
1.02777e+07
1.02728e+07
1.02678e+07
1.02628e+07
1.02579e+07
1.24158e+07
1.24145e+07
1.2412e+07
1.24082e+07
1.24031e+07
1.23967e+07
1.23889e+07
1.23797e+07
1.2369e+07
1.2357e+07
1.23434e+07
1.23284e+07
1.23118e+07
1.22937e+07
1.22741e+07
1.22529e+07
1.22301e+07
1.22057e+07
1.21796e+07
1.21519e+07
1.21225e+07
1.20913e+07
1.20584e+07
1.20236e+07
1.1987e+07
1.19484e+07
1.19079e+07
1.18652e+07
1.18204e+07
1.17734e+07
1.17239e+07
1.1672e+07
1.16173e+07
1.15597e+07
1.14989e+07
1.14347e+07
1.13666e+07
1.12942e+07
1.12168e+07
1.11336e+07
1.1044e+07
1.09469e+07
1.08423e+07
1.0731e+07
1.07242e+07
1.07207e+07
1.07173e+07
1.07139e+07
1.07106e+07
1.07073e+07
1.07041e+07
1.0701e+07
1.06979e+07
1.06948e+07
1.06919e+07
1.06889e+07
1.0686e+07
1.06831e+07
1.06802e+07
1.06774e+07
1.06745e+07
1.06717e+07
1.0669e+07
1.06662e+07
1.06635e+07
1.06607e+07
1.0658e+07
1.06553e+07
1.06526e+07
1.06499e+07
1.06473e+07
1.06446e+07
1.06419e+07
1.06392e+07
1.06366e+07
1.06339e+07
1.06312e+07
1.06286e+07
1.06259e+07
1.06232e+07
1.06206e+07
1.06179e+07
1.06152e+07
1.06125e+07
1.06098e+07
1.06071e+07
1.06044e+07
1.06017e+07
1.0599e+07
1.05962e+07
1.05935e+07
1.05907e+07
1.05879e+07
1.05851e+07
1.05823e+07
1.05795e+07
1.05767e+07
1.05738e+07
1.0571e+07
1.05681e+07
1.05652e+07
1.05623e+07
1.05594e+07
1.05564e+07
1.05535e+07
1.05505e+07
1.05475e+07
1.05445e+07
1.05415e+07
1.05384e+07
1.05353e+07
1.05322e+07
1.05291e+07
1.0526e+07
1.05228e+07
1.05196e+07
1.05164e+07
1.05132e+07
1.05099e+07
1.05067e+07
1.05034e+07
1.05e+07
1.04967e+07
1.04933e+07
1.04899e+07
1.04865e+07
1.04831e+07
1.04796e+07
1.04761e+07
1.04726e+07
1.0469e+07
1.04654e+07
1.04618e+07
1.04582e+07
1.04545e+07
1.04509e+07
1.04471e+07
1.04434e+07
1.04396e+07
1.04358e+07
1.0432e+07
1.04281e+07
1.04242e+07
1.04203e+07
1.04164e+07
1.04124e+07
1.04084e+07
1.04043e+07
1.04003e+07
1.03962e+07
1.0392e+07
1.03878e+07
1.03836e+07
1.03794e+07
1.03751e+07
1.03709e+07
1.03665e+07
1.03622e+07
1.03578e+07
1.03533e+07
1.03489e+07
1.03444e+07
1.03398e+07
1.03352e+07
1.03306e+07
1.0326e+07
1.03213e+07
1.03166e+07
1.03119e+07
1.03071e+07
1.03023e+07
1.02974e+07
1.02925e+07
1.02876e+07
1.02827e+07
1.02777e+07
1.02727e+07
1.02678e+07
1.02628e+07
1.02578e+07
1.24257e+07
1.24245e+07
1.24219e+07
1.24181e+07
1.2413e+07
1.24065e+07
1.23987e+07
1.23894e+07
1.23788e+07
1.23666e+07
1.2353e+07
1.23379e+07
1.23213e+07
1.23032e+07
1.22835e+07
1.22622e+07
1.22394e+07
1.22149e+07
1.21889e+07
1.21611e+07
1.21317e+07
1.21006e+07
1.20678e+07
1.20331e+07
1.19966e+07
1.19582e+07
1.19179e+07
1.18755e+07
1.1831e+07
1.17843e+07
1.17354e+07
1.1684e+07
1.163e+07
1.15734e+07
1.15138e+07
1.14512e+07
1.13852e+07
1.13157e+07
1.12423e+07
1.11649e+07
1.10835e+07
1.09983e+07
1.091e+07
1.08194e+07
1.0725e+07
1.072e+07
1.07167e+07
1.07134e+07
1.07101e+07
1.07069e+07
1.07038e+07
1.07007e+07
1.06976e+07
1.06946e+07
1.06916e+07
1.06887e+07
1.06858e+07
1.06829e+07
1.068e+07
1.06772e+07
1.06744e+07
1.06716e+07
1.06688e+07
1.06661e+07
1.06634e+07
1.06606e+07
1.06579e+07
1.06552e+07
1.06525e+07
1.06498e+07
1.06472e+07
1.06445e+07
1.06418e+07
1.06392e+07
1.06365e+07
1.06338e+07
1.06312e+07
1.06285e+07
1.06259e+07
1.06232e+07
1.06205e+07
1.06178e+07
1.06152e+07
1.06125e+07
1.06098e+07
1.06071e+07
1.06044e+07
1.06017e+07
1.05989e+07
1.05962e+07
1.05934e+07
1.05907e+07
1.05879e+07
1.05851e+07
1.05823e+07
1.05795e+07
1.05767e+07
1.05738e+07
1.0571e+07
1.05681e+07
1.05652e+07
1.05623e+07
1.05594e+07
1.05564e+07
1.05535e+07
1.05505e+07
1.05475e+07
1.05445e+07
1.05415e+07
1.05384e+07
1.05353e+07
1.05322e+07
1.05291e+07
1.0526e+07
1.05228e+07
1.05196e+07
1.05164e+07
1.05132e+07
1.05099e+07
1.05067e+07
1.05034e+07
1.05e+07
1.04967e+07
1.04933e+07
1.04899e+07
1.04865e+07
1.04831e+07
1.04796e+07
1.04761e+07
1.04726e+07
1.0469e+07
1.04654e+07
1.04618e+07
1.04582e+07
1.04545e+07
1.04508e+07
1.04471e+07
1.04434e+07
1.04396e+07
1.04358e+07
1.0432e+07
1.04281e+07
1.04242e+07
1.04203e+07
1.04164e+07
1.04124e+07
1.04084e+07
1.04043e+07
1.04003e+07
1.03962e+07
1.0392e+07
1.03878e+07
1.03836e+07
1.03794e+07
1.03751e+07
1.03708e+07
1.03665e+07
1.03621e+07
1.03578e+07
1.03533e+07
1.03489e+07
1.03443e+07
1.03398e+07
1.03352e+07
1.03306e+07
1.0326e+07
1.03213e+07
1.03166e+07
1.03119e+07
1.03071e+07
1.03023e+07
1.02974e+07
1.02925e+07
1.02876e+07
1.02827e+07
1.02777e+07
1.02727e+07
1.02677e+07
1.02627e+07
1.02577e+07
1.24408e+07
1.24396e+07
1.2437e+07
1.24332e+07
1.2428e+07
1.24215e+07
1.24136e+07
1.24043e+07
1.23936e+07
1.23814e+07
1.23678e+07
1.23526e+07
1.23359e+07
1.23177e+07
1.2298e+07
1.22767e+07
1.22538e+07
1.22293e+07
1.22032e+07
1.21754e+07
1.2146e+07
1.21149e+07
1.20821e+07
1.20475e+07
1.20111e+07
1.19728e+07
1.19327e+07
1.18906e+07
1.18465e+07
1.18002e+07
1.17518e+07
1.17011e+07
1.16481e+07
1.15926e+07
1.15345e+07
1.14737e+07
1.14101e+07
1.13437e+07
1.12743e+07
1.1202e+07
1.1127e+07
1.10497e+07
1.09706e+07
1.08904e+07
1.08085e+07
1.07213e+07
1.0716e+07
1.07127e+07
1.07096e+07
1.07064e+07
1.07033e+07
1.07002e+07
1.06972e+07
1.06942e+07
1.06913e+07
1.06884e+07
1.06855e+07
1.06826e+07
1.06798e+07
1.0677e+07
1.06742e+07
1.06714e+07
1.06686e+07
1.06659e+07
1.06632e+07
1.06605e+07
1.06578e+07
1.06551e+07
1.06524e+07
1.06497e+07
1.06471e+07
1.06444e+07
1.06417e+07
1.06391e+07
1.06364e+07
1.06338e+07
1.06311e+07
1.06285e+07
1.06258e+07
1.06231e+07
1.06205e+07
1.06178e+07
1.06151e+07
1.06124e+07
1.06097e+07
1.0607e+07
1.06043e+07
1.06016e+07
1.05989e+07
1.05962e+07
1.05934e+07
1.05906e+07
1.05879e+07
1.05851e+07
1.05823e+07
1.05795e+07
1.05767e+07
1.05738e+07
1.0571e+07
1.05681e+07
1.05652e+07
1.05623e+07
1.05594e+07
1.05564e+07
1.05535e+07
1.05505e+07
1.05475e+07
1.05445e+07
1.05414e+07
1.05384e+07
1.05353e+07
1.05322e+07
1.05291e+07
1.0526e+07
1.05228e+07
1.05196e+07
1.05164e+07
1.05132e+07
1.05099e+07
1.05067e+07
1.05034e+07
1.05e+07
1.04967e+07
1.04933e+07
1.04899e+07
1.04865e+07
1.04831e+07
1.04796e+07
1.04761e+07
1.04726e+07
1.0469e+07
1.04654e+07
1.04618e+07
1.04582e+07
1.04545e+07
1.04508e+07
1.04471e+07
1.04434e+07
1.04396e+07
1.04358e+07
1.0432e+07
1.04281e+07
1.04242e+07
1.04203e+07
1.04164e+07
1.04124e+07
1.04084e+07
1.04043e+07
1.04003e+07
1.03961e+07
1.0392e+07
1.03878e+07
1.03836e+07
1.03794e+07
1.03751e+07
1.03708e+07
1.03665e+07
1.03621e+07
1.03577e+07
1.03533e+07
1.03488e+07
1.03443e+07
1.03398e+07
1.03352e+07
1.03306e+07
1.0326e+07
1.03213e+07
1.03166e+07
1.03119e+07
1.03071e+07
1.03023e+07
1.02974e+07
1.02925e+07
1.02876e+07
1.02827e+07
1.02777e+07
1.02727e+07
1.02677e+07
1.02627e+07
1.02577e+07
1.24612e+07
1.24599e+07
1.24573e+07
1.24535e+07
1.24482e+07
1.24417e+07
1.24337e+07
1.24243e+07
1.24135e+07
1.24012e+07
1.23875e+07
1.23723e+07
1.23555e+07
1.23372e+07
1.23174e+07
1.2296e+07
1.2273e+07
1.22484e+07
1.22222e+07
1.21944e+07
1.2165e+07
1.21339e+07
1.2101e+07
1.20665e+07
1.20301e+07
1.1992e+07
1.19521e+07
1.19102e+07
1.18664e+07
1.18207e+07
1.17729e+07
1.1723e+07
1.16709e+07
1.16166e+07
1.156e+07
1.15011e+07
1.14398e+07
1.13762e+07
1.13103e+07
1.12421e+07
1.1172e+07
1.11003e+07
1.10272e+07
1.09532e+07
1.08783e+07
1.08016e+07
1.07192e+07
1.0712e+07
1.07088e+07
1.07058e+07
1.07027e+07
1.06997e+07
1.06967e+07
1.06937e+07
1.06908e+07
1.06879e+07
1.06851e+07
1.06823e+07
1.06794e+07
1.06767e+07
1.06739e+07
1.06711e+07
1.06684e+07
1.06657e+07
1.0663e+07
1.06603e+07
1.06576e+07
1.06549e+07
1.06522e+07
1.06496e+07
1.06469e+07
1.06443e+07
1.06416e+07
1.0639e+07
1.06363e+07
1.06337e+07
1.0631e+07
1.06284e+07
1.06257e+07
1.0623e+07
1.06204e+07
1.06177e+07
1.0615e+07
1.06124e+07
1.06097e+07
1.0607e+07
1.06043e+07
1.06016e+07
1.05988e+07
1.05961e+07
1.05934e+07
1.05906e+07
1.05878e+07
1.05851e+07
1.05823e+07
1.05794e+07
1.05766e+07
1.05738e+07
1.05709e+07
1.05681e+07
1.05652e+07
1.05623e+07
1.05593e+07
1.05564e+07
1.05534e+07
1.05505e+07
1.05475e+07
1.05445e+07
1.05414e+07
1.05384e+07
1.05353e+07
1.05322e+07
1.05291e+07
1.05259e+07
1.05228e+07
1.05196e+07
1.05164e+07
1.05132e+07
1.05099e+07
1.05066e+07
1.05033e+07
1.05e+07
1.04967e+07
1.04933e+07
1.04899e+07
1.04865e+07
1.0483e+07
1.04796e+07
1.04761e+07
1.04726e+07
1.0469e+07
1.04654e+07
1.04618e+07
1.04582e+07
1.04545e+07
1.04508e+07
1.04471e+07
1.04434e+07
1.04396e+07
1.04358e+07
1.0432e+07
1.04281e+07
1.04242e+07
1.04203e+07
1.04164e+07
1.04124e+07
1.04084e+07
1.04043e+07
1.04002e+07
1.03961e+07
1.0392e+07
1.03878e+07
1.03836e+07
1.03794e+07
1.03751e+07
1.03708e+07
1.03665e+07
1.03621e+07
1.03577e+07
1.03533e+07
1.03488e+07
1.03443e+07
1.03398e+07
1.03352e+07
1.03306e+07
1.0326e+07
1.03213e+07
1.03166e+07
1.03119e+07
1.03071e+07
1.03023e+07
1.02974e+07
1.02925e+07
1.02876e+07
1.02827e+07
1.02777e+07
1.02727e+07
1.02677e+07
1.02626e+07
1.02576e+07
1.24868e+07
1.24855e+07
1.24829e+07
1.24789e+07
1.24736e+07
1.2467e+07
1.24589e+07
1.24494e+07
1.24385e+07
1.24261e+07
1.24122e+07
1.23968e+07
1.23799e+07
1.23615e+07
1.23415e+07
1.232e+07
1.22969e+07
1.22722e+07
1.22459e+07
1.22179e+07
1.21884e+07
1.21572e+07
1.21243e+07
1.20898e+07
1.20535e+07
1.20155e+07
1.19757e+07
1.19341e+07
1.18906e+07
1.18453e+07
1.17981e+07
1.1749e+07
1.16978e+07
1.16447e+07
1.15895e+07
1.15323e+07
1.14731e+07
1.1412e+07
1.13489e+07
1.12841e+07
1.12178e+07
1.11501e+07
1.10813e+07
1.10117e+07
1.09415e+07
1.08703e+07
1.07973e+07
1.07194e+07
1.0708e+07
1.0705e+07
1.0702e+07
1.0699e+07
1.06961e+07
1.06932e+07
1.06903e+07
1.06874e+07
1.06846e+07
1.06818e+07
1.0679e+07
1.06763e+07
1.06735e+07
1.06708e+07
1.06681e+07
1.06654e+07
1.06627e+07
1.066e+07
1.06573e+07
1.06547e+07
1.0652e+07
1.06494e+07
1.06467e+07
1.06441e+07
1.06414e+07
1.06388e+07
1.06362e+07
1.06335e+07
1.06309e+07
1.06282e+07
1.06256e+07
1.06229e+07
1.06203e+07
1.06176e+07
1.0615e+07
1.06123e+07
1.06096e+07
1.06069e+07
1.06042e+07
1.06015e+07
1.05988e+07
1.05961e+07
1.05933e+07
1.05906e+07
1.05878e+07
1.0585e+07
1.05822e+07
1.05794e+07
1.05766e+07
1.05738e+07
1.05709e+07
1.0568e+07
1.05651e+07
1.05622e+07
1.05593e+07
1.05564e+07
1.05534e+07
1.05505e+07
1.05475e+07
1.05444e+07
1.05414e+07
1.05384e+07
1.05353e+07
1.05322e+07
1.05291e+07
1.05259e+07
1.05228e+07
1.05196e+07
1.05164e+07
1.05132e+07
1.05099e+07
1.05066e+07
1.05033e+07
1.05e+07
1.04967e+07
1.04933e+07
1.04899e+07
1.04865e+07
1.0483e+07
1.04796e+07
1.04761e+07
1.04725e+07
1.0469e+07
1.04654e+07
1.04618e+07
1.04582e+07
1.04545e+07
1.04508e+07
1.04471e+07
1.04434e+07
1.04396e+07
1.04358e+07
1.0432e+07
1.04281e+07
1.04242e+07
1.04203e+07
1.04164e+07
1.04124e+07
1.04084e+07
1.04043e+07
1.04002e+07
1.03961e+07
1.0392e+07
1.03878e+07
1.03836e+07
1.03794e+07
1.03751e+07
1.03708e+07
1.03665e+07
1.03621e+07
1.03577e+07
1.03533e+07
1.03488e+07
1.03443e+07
1.03398e+07
1.03352e+07
1.03306e+07
1.0326e+07
1.03213e+07
1.03166e+07
1.03118e+07
1.03071e+07
1.03022e+07
1.02974e+07
1.02925e+07
1.02876e+07
1.02826e+07
1.02777e+07
1.02727e+07
1.02676e+07
1.02626e+07
1.02575e+07
1.25178e+07
1.25164e+07
1.25137e+07
1.25097e+07
1.25043e+07
1.24975e+07
1.24893e+07
1.24796e+07
1.24685e+07
1.24559e+07
1.24419e+07
1.24263e+07
1.24092e+07
1.23905e+07
1.23703e+07
1.23486e+07
1.23252e+07
1.23003e+07
1.22739e+07
1.22458e+07
1.22161e+07
1.21847e+07
1.21518e+07
1.21171e+07
1.20809e+07
1.20429e+07
1.20032e+07
1.19618e+07
1.19187e+07
1.18738e+07
1.18271e+07
1.17786e+07
1.17283e+07
1.16762e+07
1.16223e+07
1.15667e+07
1.15092e+07
1.14501e+07
1.13894e+07
1.13273e+07
1.12638e+07
1.11992e+07
1.11337e+07
1.10675e+07
1.10007e+07
1.09334e+07
1.08654e+07
1.07961e+07
1.07232e+07
1.07041e+07
1.07011e+07
1.06982e+07
1.06953e+07
1.06925e+07
1.06897e+07
1.06869e+07
1.06841e+07
1.06813e+07
1.06786e+07
1.06758e+07
1.06731e+07
1.06704e+07
1.06677e+07
1.0665e+07
1.06624e+07
1.06597e+07
1.06571e+07
1.06544e+07
1.06518e+07
1.06491e+07
1.06465e+07
1.06439e+07
1.06412e+07
1.06386e+07
1.0636e+07
1.06334e+07
1.06307e+07
1.06281e+07
1.06255e+07
1.06228e+07
1.06202e+07
1.06175e+07
1.06149e+07
1.06122e+07
1.06095e+07
1.06068e+07
1.06041e+07
1.06014e+07
1.05987e+07
1.0596e+07
1.05933e+07
1.05905e+07
1.05877e+07
1.0585e+07
1.05822e+07
1.05794e+07
1.05765e+07
1.05737e+07
1.05709e+07
1.0568e+07
1.05651e+07
1.05622e+07
1.05593e+07
1.05564e+07
1.05534e+07
1.05504e+07
1.05474e+07
1.05444e+07
1.05414e+07
1.05383e+07
1.05353e+07
1.05322e+07
1.05291e+07
1.05259e+07
1.05228e+07
1.05196e+07
1.05164e+07
1.05132e+07
1.05099e+07
1.05066e+07
1.05033e+07
1.05e+07
1.04967e+07
1.04933e+07
1.04899e+07
1.04865e+07
1.0483e+07
1.04796e+07
1.04761e+07
1.04725e+07
1.0469e+07
1.04654e+07
1.04618e+07
1.04582e+07
1.04545e+07
1.04508e+07
1.04471e+07
1.04434e+07
1.04396e+07
1.04358e+07
1.0432e+07
1.04281e+07
1.04242e+07
1.04203e+07
1.04163e+07
1.04124e+07
1.04084e+07
1.04043e+07
1.04002e+07
1.03961e+07
1.0392e+07
1.03878e+07
1.03836e+07
1.03794e+07
1.03751e+07
1.03708e+07
1.03665e+07
1.03621e+07
1.03577e+07
1.03533e+07
1.03488e+07
1.03443e+07
1.03398e+07
1.03352e+07
1.03306e+07
1.0326e+07
1.03213e+07
1.03166e+07
1.03118e+07
1.03071e+07
1.03022e+07
1.02974e+07
1.02925e+07
1.02876e+07
1.02826e+07
1.02776e+07
1.02726e+07
1.02676e+07
1.02625e+07
1.02574e+07
1.25541e+07
1.25527e+07
1.25499e+07
1.25457e+07
1.25402e+07
1.25332e+07
1.25248e+07
1.2515e+07
1.25036e+07
1.24908e+07
1.24764e+07
1.24606e+07
1.24432e+07
1.24242e+07
1.24037e+07
1.23817e+07
1.2358e+07
1.23329e+07
1.23061e+07
1.22777e+07
1.22478e+07
1.22163e+07
1.21831e+07
1.21484e+07
1.2112e+07
1.2074e+07
1.20344e+07
1.19931e+07
1.19502e+07
1.19056e+07
1.18593e+07
1.18114e+07
1.17619e+07
1.17107e+07
1.16578e+07
1.16034e+07
1.15475e+07
1.149e+07
1.14312e+07
1.13712e+07
1.131e+07
1.12478e+07
1.11848e+07
1.11212e+07
1.10571e+07
1.09927e+07
1.09279e+07
1.08629e+07
1.07973e+07
1.07295e+07
1.07002e+07
1.06973e+07
1.06945e+07
1.06917e+07
1.0689e+07
1.06862e+07
1.06835e+07
1.06807e+07
1.0678e+07
1.06753e+07
1.06726e+07
1.067e+07
1.06673e+07
1.06646e+07
1.0662e+07
1.06594e+07
1.06567e+07
1.06541e+07
1.06515e+07
1.06489e+07
1.06462e+07
1.06436e+07
1.0641e+07
1.06384e+07
1.06358e+07
1.06332e+07
1.06306e+07
1.06279e+07
1.06253e+07
1.06227e+07
1.062e+07
1.06174e+07
1.06147e+07
1.06121e+07
1.06094e+07
1.06067e+07
1.0604e+07
1.06013e+07
1.05986e+07
1.05959e+07
1.05932e+07
1.05904e+07
1.05877e+07
1.05849e+07
1.05821e+07
1.05793e+07
1.05765e+07
1.05737e+07
1.05708e+07
1.0568e+07
1.05651e+07
1.05622e+07
1.05593e+07
1.05563e+07
1.05534e+07
1.05504e+07
1.05474e+07
1.05444e+07
1.05414e+07
1.05383e+07
1.05353e+07
1.05322e+07
1.0529e+07
1.05259e+07
1.05227e+07
1.05196e+07
1.05164e+07
1.05131e+07
1.05099e+07
1.05066e+07
1.05033e+07
1.05e+07
1.04967e+07
1.04933e+07
1.04899e+07
1.04865e+07
1.0483e+07
1.04796e+07
1.04761e+07
1.04725e+07
1.0469e+07
1.04654e+07
1.04618e+07
1.04582e+07
1.04545e+07
1.04508e+07
1.04471e+07
1.04434e+07
1.04396e+07
1.04358e+07
1.0432e+07
1.04281e+07
1.04242e+07
1.04203e+07
1.04163e+07
1.04124e+07
1.04084e+07
1.04043e+07
1.04002e+07
1.03961e+07
1.0392e+07
1.03878e+07
1.03836e+07
1.03794e+07
1.03751e+07
1.03708e+07
1.03665e+07
1.03621e+07
1.03577e+07
1.03533e+07
1.03488e+07
1.03443e+07
1.03398e+07
1.03352e+07
1.03306e+07
1.0326e+07
1.03213e+07
1.03166e+07
1.03118e+07
1.03071e+07
1.03022e+07
1.02974e+07
1.02925e+07
1.02876e+07
1.02826e+07
1.02776e+07
1.02726e+07
1.02675e+07
1.02625e+07
1.02573e+07
1.25959e+07
1.25944e+07
1.25915e+07
1.25872e+07
1.25815e+07
1.25743e+07
1.25656e+07
1.25555e+07
1.25438e+07
1.25306e+07
1.25159e+07
1.24997e+07
1.24819e+07
1.24626e+07
1.24417e+07
1.24192e+07
1.23952e+07
1.23696e+07
1.23424e+07
1.23137e+07
1.22834e+07
1.22516e+07
1.22182e+07
1.21832e+07
1.21467e+07
1.21085e+07
1.20689e+07
1.20276e+07
1.19848e+07
1.19404e+07
1.18945e+07
1.1847e+07
1.1798e+07
1.17475e+07
1.16955e+07
1.16421e+07
1.15873e+07
1.15313e+07
1.14739e+07
1.14155e+07
1.13561e+07
1.12958e+07
1.12347e+07
1.11731e+07
1.1111e+07
1.10487e+07
1.09862e+07
1.09237e+07
1.0861e+07
1.07981e+07
1.07332e+07
1.06965e+07
1.06936e+07
1.06909e+07
1.06882e+07
1.06855e+07
1.06828e+07
1.06801e+07
1.06774e+07
1.06747e+07
1.06721e+07
1.06695e+07
1.06668e+07
1.06642e+07
1.06616e+07
1.0659e+07
1.06564e+07
1.06538e+07
1.06512e+07
1.06486e+07
1.0646e+07
1.06434e+07
1.06408e+07
1.06382e+07
1.06356e+07
1.0633e+07
1.06304e+07
1.06277e+07
1.06251e+07
1.06225e+07
1.06199e+07
1.06172e+07
1.06146e+07
1.06119e+07
1.06093e+07
1.06066e+07
1.06039e+07
1.06012e+07
1.05985e+07
1.05958e+07
1.05931e+07
1.05904e+07
1.05876e+07
1.05848e+07
1.05821e+07
1.05793e+07
1.05764e+07
1.05736e+07
1.05708e+07
1.05679e+07
1.0565e+07
1.05621e+07
1.05592e+07
1.05563e+07
1.05533e+07
1.05504e+07
1.05474e+07
1.05444e+07
1.05413e+07
1.05383e+07
1.05352e+07
1.05321e+07
1.0529e+07
1.05259e+07
1.05227e+07
1.05196e+07
1.05164e+07
1.05131e+07
1.05099e+07
1.05066e+07
1.05033e+07
1.05e+07
1.04966e+07
1.04933e+07
1.04899e+07
1.04865e+07
1.0483e+07
1.04796e+07
1.04761e+07
1.04725e+07
1.0469e+07
1.04654e+07
1.04618e+07
1.04582e+07
1.04545e+07
1.04508e+07
1.04471e+07
1.04434e+07
1.04396e+07
1.04358e+07
1.0432e+07
1.04281e+07
1.04242e+07
1.04203e+07
1.04163e+07
1.04124e+07
1.04084e+07
1.04043e+07
1.04002e+07
1.03961e+07
1.0392e+07
1.03878e+07
1.03836e+07
1.03794e+07
1.03751e+07
1.03708e+07
1.03665e+07
1.03621e+07
1.03577e+07
1.03533e+07
1.03488e+07
1.03443e+07
1.03398e+07
1.03352e+07
1.03306e+07
1.0326e+07
1.03213e+07
1.03166e+07
1.03118e+07
1.0307e+07
1.03022e+07
1.02974e+07
1.02925e+07
1.02875e+07
1.02826e+07
1.02776e+07
1.02726e+07
1.02675e+07
1.02624e+07
1.02572e+07
1.26433e+07
1.26417e+07
1.26386e+07
1.26342e+07
1.26282e+07
1.26207e+07
1.26117e+07
1.26012e+07
1.25892e+07
1.25756e+07
1.25604e+07
1.25437e+07
1.25254e+07
1.25055e+07
1.24841e+07
1.24611e+07
1.24366e+07
1.24105e+07
1.23828e+07
1.23536e+07
1.23229e+07
1.22906e+07
1.22568e+07
1.22215e+07
1.21846e+07
1.21463e+07
1.21064e+07
1.20651e+07
1.20223e+07
1.1978e+07
1.19322e+07
1.1885e+07
1.18364e+07
1.17864e+07
1.17351e+07
1.16824e+07
1.16286e+07
1.15735e+07
1.15173e+07
1.14601e+07
1.1402e+07
1.13431e+07
1.12835e+07
1.12234e+07
1.11629e+07
1.1102e+07
1.1041e+07
1.09799e+07
1.09188e+07
1.08576e+07
1.07957e+07
1.07312e+07
1.06928e+07
1.069e+07
1.06874e+07
1.06847e+07
1.0682e+07
1.06794e+07
1.06768e+07
1.06741e+07
1.06715e+07
1.06689e+07
1.06663e+07
1.06637e+07
1.06611e+07
1.06585e+07
1.0656e+07
1.06534e+07
1.06508e+07
1.06482e+07
1.06456e+07
1.06431e+07
1.06405e+07
1.06379e+07
1.06353e+07
1.06327e+07
1.06301e+07
1.06275e+07
1.06249e+07
1.06223e+07
1.06197e+07
1.06171e+07
1.06145e+07
1.06118e+07
1.06092e+07
1.06065e+07
1.06038e+07
1.06011e+07
1.05984e+07
1.05957e+07
1.0593e+07
1.05903e+07
1.05875e+07
1.05848e+07
1.0582e+07
1.05792e+07
1.05764e+07
1.05736e+07
1.05707e+07
1.05679e+07
1.0565e+07
1.05621e+07
1.05592e+07
1.05563e+07
1.05533e+07
1.05503e+07
1.05474e+07
1.05444e+07
1.05413e+07
1.05383e+07
1.05352e+07
1.05321e+07
1.0529e+07
1.05259e+07
1.05227e+07
1.05195e+07
1.05163e+07
1.05131e+07
1.05099e+07
1.05066e+07
1.05033e+07
1.05e+07
1.04966e+07
1.04933e+07
1.04899e+07
1.04865e+07
1.0483e+07
1.04795e+07
1.0476e+07
1.04725e+07
1.0469e+07
1.04654e+07
1.04618e+07
1.04582e+07
1.04545e+07
1.04508e+07
1.04471e+07
1.04434e+07
1.04396e+07
1.04358e+07
1.0432e+07
1.04281e+07
1.04242e+07
1.04203e+07
1.04163e+07
1.04124e+07
1.04083e+07
1.04043e+07
1.04002e+07
1.03961e+07
1.0392e+07
1.03878e+07
1.03836e+07
1.03794e+07
1.03751e+07
1.03708e+07
1.03665e+07
1.03621e+07
1.03577e+07
1.03533e+07
1.03488e+07
1.03443e+07
1.03398e+07
1.03352e+07
1.03306e+07
1.0326e+07
1.03213e+07
1.03166e+07
1.03118e+07
1.0307e+07
1.03022e+07
1.02974e+07
1.02925e+07
1.02875e+07
1.02826e+07
1.02776e+07
1.02725e+07
1.02674e+07
1.02623e+07
1.02572e+07
1.26965e+07
1.26947e+07
1.26915e+07
1.26868e+07
1.26805e+07
1.26727e+07
1.26633e+07
1.26524e+07
1.26398e+07
1.26256e+07
1.26099e+07
1.25925e+07
1.25736e+07
1.25531e+07
1.2531e+07
1.25073e+07
1.24821e+07
1.24553e+07
1.2427e+07
1.23972e+07
1.23659e+07
1.2333e+07
1.22987e+07
1.22629e+07
1.22257e+07
1.2187e+07
1.21468e+07
1.21053e+07
1.20623e+07
1.20179e+07
1.19722e+07
1.19251e+07
1.18767e+07
1.18271e+07
1.17762e+07
1.17241e+07
1.16708e+07
1.16165e+07
1.15611e+07
1.15049e+07
1.14477e+07
1.13899e+07
1.13314e+07
1.12724e+07
1.12129e+07
1.11531e+07
1.10931e+07
1.10329e+07
1.09726e+07
1.09121e+07
1.08511e+07
1.07888e+07
1.0723e+07
1.06892e+07
1.06865e+07
1.06839e+07
1.06812e+07
1.06786e+07
1.0676e+07
1.06734e+07
1.06709e+07
1.06683e+07
1.06657e+07
1.06632e+07
1.06606e+07
1.06581e+07
1.06555e+07
1.0653e+07
1.06504e+07
1.06479e+07
1.06453e+07
1.06427e+07
1.06402e+07
1.06376e+07
1.06351e+07
1.06325e+07
1.06299e+07
1.06273e+07
1.06247e+07
1.06221e+07
1.06195e+07
1.06169e+07
1.06143e+07
1.06117e+07
1.0609e+07
1.06064e+07
1.06037e+07
1.0601e+07
1.05983e+07
1.05956e+07
1.05929e+07
1.05902e+07
1.05874e+07
1.05847e+07
1.05819e+07
1.05791e+07
1.05763e+07
1.05735e+07
1.05707e+07
1.05678e+07
1.05649e+07
1.05621e+07
1.05591e+07
1.05562e+07
1.05533e+07
1.05503e+07
1.05473e+07
1.05443e+07
1.05413e+07
1.05383e+07
1.05352e+07
1.05321e+07
1.0529e+07
1.05259e+07
1.05227e+07
1.05195e+07
1.05163e+07
1.05131e+07
1.05099e+07
1.05066e+07
1.05033e+07
1.05e+07
1.04966e+07
1.04933e+07
1.04899e+07
1.04864e+07
1.0483e+07
1.04795e+07