/*--------------------------------*- C++ -*----------------------------------*\
  =========                 |
  \\      /  F ield         | OpenFOAM: The Open Source CFD Toolbox
   \\    /   O peration     | Website:  https://openfoam.org
    \\  /    A nd           | Version:  10
     \\/     M anipulation  |
\*---------------------------------------------------------------------------*/
FoamFile
{
    format      ascii;
    class       volVectorField;
    location    "13750";
    object      Ub;
}
// * * * * * * * * * * * * * * * * * * * * * * * * * * * * * * * * * * * * * //

dimensions      [0 1 -1 0 0 0 0];

internalField   nonuniform List<vector> 
3200
(
(-5.82448e-21 -9.8789e-16 0)
(-1.74397e-20 -9.8789e-16 0)
(-2.90546e-20 -9.8789e-16 0)
(-4.08035e-20 -9.8789e-16 0)
(-5.28249e-20 -9.87889e-16 0)
(-6.52683e-20 -9.87889e-16 0)
(-7.83035e-20 -9.87888e-16 0)
(-9.21312e-20 -9.87887e-16 0)
(-1.06998e-19 -9.87886e-16 0)
(-1.23217e-19 -9.87884e-16 0)
(-1.41198e-19 -9.87882e-16 0)
(-1.61499e-19 -9.8788e-16 0)
(-1.84895e-19 -9.87876e-16 0)
(-2.12505e-19 -9.87871e-16 0)
(-2.45992e-19 -9.87865e-16 0)
(-2.87917e-19 -9.87854e-16 0)
(-3.42351e-19 -9.87839e-16 0)
(-4.15992e-19 -9.87815e-16 0)
(-5.20204e-19 -9.87776e-16 0)
(-6.74831e-19 -9.8771e-16 0)
(-1.06602e-18 -9.87595e-16 0)
(-1.1347e-07 -1.12721e-15 0)
(-5.10809e-05 -1.05165e-05 0)
(-0.000105692 -1.8292e-05 0)
(-0.000110726 -7.09645e-06 0)
(-0.000112786 -4.09099e-06 0)
(-0.000114136 -2.69572e-06 0)
(-0.000115144 -1.91115e-06 0)
(-0.000115942 -1.42278e-06 0)
(-0.000116597 -1.09805e-06 0)
(-0.000117148 -8.71339e-07 0)
(-0.000117619 -7.0699e-07 0)
(-0.000118027 -5.843e-07 0)
(-0.000118385 -4.90149e-07 0)
(-0.000118646 -5.62477e-07 0)
(-0.000111649 -1.97887e-05 0)
(-9.65418e-05 -2.25607e-05 0)
(-7.92804e-05 -2.62948e-05 0)
(-5.78853e-05 -3.49236e-05 0)
(-2.83935e-05 -5.04712e-05 0)
(-5.67699e-21 -9.87873e-16 0)
(-1.69917e-20 -9.87873e-16 0)
(-2.82865e-20 -9.87873e-16 0)
(-3.96782e-20 -9.87872e-16 0)
(-5.12837e-20 -9.87871e-16 0)
(-6.32254e-20 -9.87869e-16 0)
(-7.56358e-20 -9.87867e-16 0)
(-8.86626e-20 -9.87864e-16 0)
(-1.02475e-19 -9.87861e-16 0)
(-1.17267e-19 -9.87857e-16 0)
(-1.33265e-19 -9.87851e-16 0)
(-1.50729e-19 -9.87845e-16 0)
(-1.69943e-19 -9.87835e-16 0)
(-1.91184e-19 -9.87824e-16 0)
(-2.14645e-19 -9.87807e-16 0)
(-2.40231e-19 -9.87785e-16 0)
(-2.67117e-19 -9.87754e-16 0)
(-2.92761e-19 -9.87708e-16 0)
(-3.10783e-19 -9.87642e-16 0)
(-3.06448e-19 -9.87543e-16 0)
(-2.47138e-19 -9.87392e-16 0)
(-6.24833e-20 -9.87159e-16 0)
(1.84761e-19 -9.84653e-16 0)
(2.47675e-19 -9.3598e-16 0)
(1.61893e-19 -8.92627e-16 0)
(9.53123e-20 -8.52225e-16 0)
(4.02868e-20 -8.13924e-16 0)
(-9.56597e-21 -7.77289e-16 0)
(-5.91382e-20 -7.42049e-16 0)
(-1.13034e-19 -7.08019e-16 0)
(-1.76671e-19 -6.75065e-16 0)
(-2.57547e-19 -6.43086e-16 0)
(-3.69663e-19 -6.11998e-16 0)
(-2.10538e-09 -5.82806e-16 0)
(-1.82097e-05 -1.46654e-07 0)
(-4.63943e-05 -1.94346e-05 0)
(-6.52144e-05 -2.22587e-05 0)
(-8.37912e-05 -2.60353e-05 0)
(-0.000103011 -4.31786e-05 0)
(-6.07323e-05 -0.000250479 0)
(-5.39951e-21 -9.87857e-16 0)
(-1.615e-20 -9.87857e-16 0)
(-2.68479e-20 -9.87856e-16 0)
(-3.75798e-20 -9.87855e-16 0)
(-4.84281e-20 -9.87853e-16 0)
(-5.94722e-20 -9.87851e-16 0)
(-7.07889e-20 -9.87847e-16 0)
(-8.24511e-20 -9.87844e-16 0)
(-9.45242e-20 -9.87839e-16 0)
(-1.07059e-19 -9.87833e-16 0)
(-1.20078e-19 -9.87826e-16 0)
(-1.3355e-19 -9.87816e-16 0)
(-1.47352e-19 -9.87805e-16 0)
(-1.61195e-19 -9.87791e-16 0)
(-1.74517e-19 -9.87773e-16 0)
(-1.86309e-19 -9.8775e-16 0)
(-1.94863e-19 -9.87721e-16 0)
(-1.97454e-19 -9.87686e-16 0)
(-1.90046e-19 -9.87643e-16 0)
(-1.67354e-19 -9.87596e-16 0)
(-1.24216e-19 -9.87549e-16 0)
(-6.06672e-20 -9.8752e-16 0)
(3.51454e-21 -9.8755e-16 0)
(3.69714e-20 -9.87625e-16 0)
(3.80463e-20 -9.87674e-16 0)
(2.46788e-20 -9.87705e-16 0)
(5.23546e-21 -9.87723e-16 0)
(-1.62879e-20 -9.8773e-16 0)
(-3.75663e-20 -9.87729e-16 0)
(-5.6426e-20 -9.87717e-16 0)
(-6.96209e-20 -9.87695e-16 0)
(-7.13091e-20 -9.87659e-16 0)
(-5.06148e-20 -9.87603e-16 0)
(1.26056e-20 -9.87522e-16 0)
(9.30522e-20 -9.87198e-16 0)
(1.00321e-19 -9.70865e-16 0)
(4.55329e-20 -9.51728e-16 0)
(-2.52085e-09 -1.15205e-15 0)
(-3.87116e-06 -8.99063e-06 0)
(-2.01137e-06 -0.000417725 0)
(-5.02231e-21 -9.87842e-16 0)
(-1.50082e-20 -9.87842e-16 0)
(-2.49048e-20 -9.87841e-16 0)
(-3.47645e-20 -9.87839e-16 0)
(-4.4632e-20 -9.87837e-16 0)
(-5.4543e-20 -9.87834e-16 0)
(-6.45213e-20 -9.8783e-16 0)
(-7.45745e-20 -9.87826e-16 0)
(-8.46868e-20 -9.8782e-16 0)
(-9.48085e-20 -9.87814e-16 0)
(-1.04841e-19 -9.87806e-16 0)
(-1.14613e-19 -9.87796e-16 0)
(-1.23853e-19 -9.87785e-16 0)
(-1.32152e-19 -9.87771e-16 0)
(-1.38916e-19 -9.87755e-16 0)
(-1.43326e-19 -9.87737e-16 0)
(-1.44321e-19 -9.87716e-16 0)
(-1.40644e-19 -9.87693e-16 0)
(-1.31029e-19 -9.8767e-16 0)
(-1.14637e-19 -9.87648e-16 0)
(-9.18355e-20 -9.87631e-16 0)
(-6.5265e-20 -9.87625e-16 0)
(-4.04488e-20 -9.87633e-16 0)
(-2.31929e-20 -9.87651e-16 0)
(-1.50487e-20 -9.87669e-16 0)
(-1.38881e-20 -9.87683e-16 0)
(-1.7094e-20 -9.87693e-16 0)
(-2.23668e-20 -9.87698e-16 0)
(-2.77542e-20 -9.87698e-16 0)
(-3.14963e-20 -9.87694e-16 0)
(-3.19126e-20 -9.87685e-16 0)
(-2.74744e-20 -9.87675e-16 0)
(-1.72742e-20 -9.87665e-16 0)
(-2.30736e-21 -9.87662e-16 0)
(1.16221e-20 -9.87674e-16 0)
(1.64928e-20 -9.87699e-16 0)
(1.26669e-20 -9.87714e-16 0)
(6.78902e-21 -9.9106e-16 0)
(-3.15518e-07 -9.09778e-07 0)
(1.57734e-07 -0.000437597 0)
(-4.58126e-21 -9.87829e-16 0)
(-1.36767e-20 -9.87828e-16 0)
(-2.26504e-20 -9.87827e-16 0)
(-3.15234e-20 -9.87825e-16 0)
(-4.0308e-20 -9.87822e-16 0)
(-4.90052e-20 -9.87819e-16 0)
(-5.76007e-20 -9.87815e-16 0)
(-6.6061e-20 -9.87811e-16 0)
(-7.43265e-20 -9.87805e-16 0)
(-8.23044e-20 -9.87798e-16 0)
(-8.98593e-20 -9.87791e-16 0)
(-9.68023e-20 -9.87782e-16 0)
(-1.02881e-19 -9.87772e-16 0)
(-1.07772e-19 -9.8776e-16 0)
(-1.1108e-19 -9.87748e-16 0)
(-1.12352e-19 -9.87734e-16 0)
(-1.11124e-19 -9.8772e-16 0)
(-1.06993e-19 -9.87705e-16 0)
(-9.97555e-20 -9.87691e-16 0)
(-8.95771e-20 -9.8768e-16 0)
(-7.71719e-20 -9.87671e-16 0)
(-6.38783e-20 -9.87668e-16 0)
(-5.1452e-20 -9.87669e-16 0)
(-4.14325e-20 -9.87673e-16 0)
(-3.44724e-20 -9.87679e-16 0)
(-3.03231e-20 -9.87685e-16 0)
(-2.82587e-20 -9.87689e-16 0)
(-2.73937e-20 -9.87692e-16 0)
(-2.68566e-20 -9.87693e-16 0)
(-2.58876e-20 -9.87692e-16 0)
(-2.39163e-20 -9.87691e-16 0)
(-2.06624e-20 -9.87689e-16 0)
(-1.62656e-20 -9.87688e-16 0)
(-1.14058e-20 -9.8769e-16 0)
(-7.26304e-21 -9.87694e-16 0)
(-4.93466e-21 -9.87699e-16 0)
(-4.62194e-21 -9.87704e-16 0)
(-5.5582e-12 -9.92995e-16 0)
(-2.2948e-07 -8.23426e-07 0)
(1.65467e-07 -0.000442184 0)
(-4.111e-21 -9.87816e-16 0)
(-1.22608e-20 -9.87815e-16 0)
(-2.0266e-20 -9.87814e-16 0)
(-2.81232e-20 -9.87812e-16 0)
(-3.58211e-20 -9.8781e-16 0)
(-4.33381e-20 -9.87806e-16 0)
(-5.06393e-20 -9.87803e-16 0)
(-5.76726e-20 -9.87798e-16 0)
(-6.4366e-20 -9.87793e-16 0)
(-7.06234e-20 -9.87787e-16 0)
(-7.63217e-20 -9.8778e-16 0)
(-8.13087e-20 -9.87772e-16 0)
(-8.54045e-20 -9.87764e-16 0)
(-8.84063e-20 -9.87754e-16 0)
(-9.01007e-20 -9.87745e-16 0)
(-9.02862e-20 -9.87734e-16 0)
(-8.88057e-20 -9.87724e-16 0)
(-8.55911e-20 -9.87715e-16 0)
(-8.07141e-20 -9.87706e-16 0)
(-7.44291e-20 -9.87698e-16 0)
(-6.71894e-20 -9.87693e-16 0)
(-5.96071e-20 -9.8769e-16 0)
(-5.23398e-20 -9.87688e-16 0)
(-4.59247e-20 -9.87689e-16 0)
(-4.06425e-20 -9.8769e-16 0)
(-3.64987e-20 -9.87692e-16 0)
(-3.32983e-20 -9.87694e-16 0)
(-3.07418e-20 -9.87695e-16 0)
(-2.85077e-20 -9.87696e-16 0)
(-2.63167e-20 -9.87697e-16 0)
(-2.39799e-20 -9.87697e-16 0)
(-2.14324e-20 -9.87697e-16 0)
(-1.87488e-20 -9.87698e-16 0)
(-1.61265e-20 -9.87699e-16 0)
(-1.38238e-20 -9.87701e-16 0)
(-1.205e-20 -9.87703e-16 0)
(-1.09033e-20 -9.87705e-16 0)
(-9.11876e-12 -9.94226e-16 0)
(-2.27211e-07 -8.91501e-07 0)
(1.74444e-07 -0.000446281 0)
(-3.64027e-21 -9.87805e-16 0)
(-1.08472e-20 -9.87804e-16 0)
(-1.78978e-20 -9.87803e-16 0)
(-2.47721e-20 -9.87801e-16 0)
(-3.14445e-20 -9.87799e-16 0)
(-3.7882e-20 -9.87796e-16 0)
(-4.40418e-20 -9.87792e-16 0)
(-4.98695e-20 -9.87788e-16 0)
(-5.52981e-20 -9.87783e-16 0)
(-6.02471e-20 -9.87778e-16 0)
(-6.46228e-20 -9.87772e-16 0)
(-6.83205e-20 -9.87765e-16 0)
(-7.1229e-20 -9.87758e-16 0)
(-7.32379e-20 -9.87751e-16 0)
(-7.42486e-20 -9.87743e-16 0)
(-7.4189e-20 -9.87736e-16 0)
(-7.30304e-20 -9.87728e-16 0)
(-7.08055e-20 -9.87721e-16 0)
(-6.7622e-20 -9.87715e-16 0)
(-6.36671e-20 -9.8771e-16 0)
(-5.91964e-20 -9.87706e-16 0)
(-5.45045e-20 -9.87703e-16 0)
(-4.98788e-20 -9.87701e-16 0)
(-4.55493e-20 -9.877e-16 0)
(-4.16538e-20 -9.877e-16 0)
(-3.82307e-20 -9.877e-16 0)
(-3.52374e-20 -9.877e-16 0)
(-3.25808e-20 -9.87701e-16 0)
(-3.01495e-20 -9.87701e-16 0)
(-2.78413e-20 -9.87702e-16 0)
(-2.55829e-20 -9.87703e-16 0)
(-2.33414e-20 -9.87703e-16 0)
(-2.11248e-20 -9.87704e-16 0)
(-1.89718e-20 -9.87705e-16 0)
(-1.6933e-20 -9.87706e-16 0)
(-1.50482e-20 -9.87707e-16 0)
(-1.3374e-20 -9.87708e-16 0)
(-1.11999e-11 -9.95144e-16 0)
(-2.3e-07 -9.77285e-07 0)
(1.83451e-07 -0.000450421 0)
(-3.18987e-21 -9.87795e-16 0)
(-9.49785e-21 -9.87794e-16 0)
(-1.5648e-20 -9.87793e-16 0)
(-2.16107e-20 -9.87791e-16 0)
(-2.73537e-20 -9.87789e-16 0)
(-3.28402e-20 -9.87786e-16 0)
(-3.80279e-20 -9.87783e-16 0)
(-4.28683e-20 -9.87779e-16 0)
(-4.73066e-20 -9.87775e-16 0)
(-5.12824e-20 -9.8777e-16 0)
(-5.47315e-20 -9.87765e-16 0)
(-5.75887e-20 -9.8776e-16 0)
(-5.97923e-20 -9.87754e-16 0)
(-6.12891e-20 -9.87748e-16 0)
(-6.20422e-20 -9.87742e-16 0)
(-6.20378e-20 -9.87737e-16 0)
(-6.12923e-20 -9.87731e-16 0)
(-5.98581e-20 -9.87726e-16 0)
(-5.78248e-20 -9.87721e-16 0)
(-5.53155e-20 -9.87717e-16 0)
(-5.24771e-20 -9.87713e-16 0)
(-4.94645e-20 -9.87711e-16 0)
(-4.64217e-20 -9.87709e-16 0)
(-4.3465e-20 -9.87707e-16 0)
(-4.0671e-20 -9.87707e-16 0)
(-3.80749e-20 -9.87706e-16 0)
(-3.56752e-20 -9.87706e-16 0)
(-3.34441e-20 -9.87706e-16 0)
(-3.13393e-20 -9.87707e-16 0)
(-2.93142e-20 -9.87707e-16 0)
(-2.73264e-20 -9.87708e-16 0)
(-2.53418e-20 -9.87709e-16 0)
(-2.33363e-20 -9.8771e-16 0)
(-2.12948e-20 -9.87711e-16 0)
(-1.92087e-20 -9.87712e-16 0)
(-1.70742e-20 -9.87713e-16 0)
(-1.4948e-20 -9.87713e-16 0)
(-1.31625e-11 -9.96064e-16 0)
(-2.3308e-07 -1.07284e-06 0)
(1.93474e-07 -0.000454636 0)
(-2.77281e-21 -9.87786e-16 0)
(-8.25098e-21 -9.87786e-16 0)
(-1.35775e-20 -9.87785e-16 0)
(-1.87187e-20 -9.87783e-16 0)
(-2.36407e-20 -9.87781e-16 0)
(-2.83077e-20 -9.87779e-16 0)
(-3.26821e-20 -9.87776e-16 0)
(-3.67239e-20 -9.87772e-16 0)
(-4.03915e-20 -9.87769e-16 0)
(-4.36428e-20 -9.87765e-16 0)
(-4.64369e-20 -9.8776e-16 0)
(-4.87363e-20 -9.87756e-16 0)
(-5.05102e-20 -9.87751e-16 0)
(-5.17381e-20 -9.87746e-16 0)
(-5.24127e-20 -9.87742e-16 0)
(-5.2544e-20 -9.87737e-16 0)
(-5.21608e-20 -9.87733e-16 0)
(-5.13121e-20 -9.87728e-16 0)
(-5.00652e-20 -9.87725e-16 0)
(-4.85021e-20 -9.87721e-16 0)
(-4.6713e-20 -9.87718e-16 0)
(-4.47886e-20 -9.87716e-16 0)
(-4.28116e-20 -9.87714e-16 0)
(-4.08503e-20 -9.87713e-16 0)
(-3.89534e-20 -9.87712e-16 0)
(-3.71488e-20 -9.87711e-16 0)
(-3.54446e-20 -9.87711e-16 0)
(-3.38319e-20 -9.87711e-16 0)
(-3.22881e-20 -9.87711e-16 0)
(-3.078e-20 -9.87711e-16 0)
(-2.92659e-20 -9.87712e-16 0)
(-2.76966e-20 -9.87713e-16 0)
(-2.60168e-20 -9.87714e-16 0)
(-2.41665e-20 -9.87716e-16 0)
(-2.20843e-20 -9.87717e-16 0)
(-1.97158e-20 -9.87719e-16 0)
(-1.70961e-20 -9.8772e-16 0)
(-1.58937e-11 -9.97317e-16 0)
(-2.35638e-07 -1.19314e-06 0)
(2.05705e-07 -0.000458935 0)
(-2.39558e-21 -9.87779e-16 0)
(-7.12513e-21 -9.87778e-16 0)
(-1.17142e-20 -9.87777e-16 0)
(-1.61289e-20 -9.87776e-16 0)
(-2.03367e-20 -9.87774e-16 0)
(-2.43053e-20 -9.87772e-16 0)
(-2.80029e-20 -9.87769e-16 0)
(-3.13983e-20 -9.87767e-16 0)
(-3.44612e-20 -9.87763e-16 0)
(-3.71636e-20 -9.8776e-16 0)
(-3.94809e-20 -9.87756e-16 0)
(-4.13935e-20 -9.87753e-16 0)
(-4.28889e-20 -9.87749e-16 0)
(-4.39631e-20 -9.87745e-16 0)
(-4.46228e-20 -9.87741e-16 0)
(-4.48861e-20 -9.87737e-16 0)
(-4.47829e-20 -9.87733e-16 0)
(-4.43546e-20 -9.8773e-16 0)
(-4.36523e-20 -9.87727e-16 0)
(-4.27339e-20 -9.87724e-16 0)
(-4.16606e-20 -9.87722e-16 0)
(-4.04932e-20 -9.87719e-16 0)
(-3.92874e-20 -9.87718e-16 0)
(-3.80917e-20 -9.87716e-16 0)
(-3.69441e-20 -9.87715e-16 0)
(-3.58715e-20 -9.87714e-16 0)
(-3.48886e-20 -9.87714e-16 0)
(-3.39983e-20 -9.87713e-16 0)
(-3.31905e-20 -9.87714e-16 0)
(-3.24409e-20 -9.87714e-16 0)
(-3.17082e-20 -9.87715e-16 0)
(-3.09297e-20 -9.87716e-16 0)
(-3.00151e-20 -9.87718e-16 0)
(-2.88401e-20 -9.8772e-16 0)
(-2.72399e-20 -9.87723e-16 0)
(-2.50071e-20 -9.87726e-16 0)
(-2.20062e-20 -9.87729e-16 0)
(-2.2516e-11 -1.00003e-15 0)
(-2.36444e-07 -1.39352e-06 0)
(2.22696e-07 -0.000463327 0)
(-2.05992e-21 -9.87772e-16 0)
(-6.1247e-21 -9.87772e-16 0)
(-1.00628e-20 -9.87771e-16 0)
(-1.38424e-20 -9.8777e-16 0)
(-1.74337e-20 -9.87768e-16 0)
(-2.0809e-20 -9.87766e-16 0)
(-2.39422e-20 -9.87764e-16 0)
(-2.68094e-20 -9.87762e-16 0)
(-2.93891e-20 -9.87759e-16 0)
(-3.16633e-20 -9.87756e-16 0)
(-3.36181e-20 -9.87753e-16 0)
(-3.52447e-20 -9.8775e-16 0)
(-3.65404e-20 -9.87747e-16 0)
(-3.75097e-20 -9.87743e-16 0)
(-3.81646e-20 -9.8774e-16 0)
(-3.85249e-20 -9.87737e-16 0)
(-3.86185e-20 -9.87734e-16 0)
(-3.84797e-20 -9.87731e-16 0)
(-3.8149e-20 -9.87728e-16 0)
(-3.76706e-20 -9.87726e-16 0)
(-3.70909e-20 -9.87723e-16 0)
(-3.64567e-20 -9.87721e-16 0)
(-3.58132e-20 -9.8772e-16 0)
(-3.52026e-20 -9.87718e-16 0)
(-3.46636e-20 -9.87717e-16 0)
(-3.42307e-20 -9.87716e-16 0)
(-3.39338e-20 -9.87715e-16 0)
(-3.37983e-20 -9.87715e-16 0)
(-3.3844e-20 -9.87714e-16 0)
(-3.40827e-20 -9.87715e-16 0)
(-3.4514e-20 -9.87715e-16 0)
(-3.51172e-20 -9.87716e-16 0)
(-3.58368e-20 -9.87718e-16 0)
(-3.65581e-20 -9.87721e-16 0)
(-3.7067e-20 -9.87725e-16 0)
(-3.69834e-20 -9.8773e-16 0)
(-3.59013e-20 -9.87737e-16 0)
(-5.46878e-11 -1.01163e-15 0)
(-2.31033e-07 -2.28581e-06 0)
(2.53491e-07 -0.000467817 0)
(-1.76448e-21 -9.87767e-16 0)
(-5.24501e-21 -9.87767e-16 0)
(-8.61358e-21 -9.87766e-16 0)
(-1.18413e-20 -9.87765e-16 0)
(-1.49022e-20 -9.87763e-16 0)
(-1.77725e-20 -9.87762e-16 0)
(-2.04313e-20 -9.8776e-16 0)
(-2.28605e-20 -9.87758e-16 0)
(-2.50449e-20 -9.87755e-16 0)
(-2.69731e-20 -9.87753e-16 0)
(-2.86378e-20 -9.8775e-16 0)
(-3.00362e-20 -9.87747e-16 0)
(-3.11708e-20 -9.87745e-16 0)
(-3.20492e-20 -9.87742e-16 0)
(-3.26851e-20 -9.87739e-16 0)
(-3.30973e-20 -9.87736e-16 0)
(-3.33102e-20 -9.87734e-16 0)
(-3.33524e-20 -9.87731e-16 0)
(-3.32568e-20 -9.87729e-16 0)
(-3.3059e-20 -9.87726e-16 0)
(-3.27969e-20 -9.87724e-16 0)
(-3.25098e-20 -9.87722e-16 0)
(-3.22378e-20 -9.8772e-16 0)
(-3.2022e-20 -9.87719e-16 0)
(-3.19048e-20 -9.87717e-16 0)
(-3.19311e-20 -9.87716e-16 0)
(-3.21495e-20 -9.87715e-16 0)
(-3.26153e-20 -9.87714e-16 0)
(-3.33935e-20 -9.87713e-16 0)
(-3.45632e-20 -9.87713e-16 0)
(-3.62242e-20 -9.87712e-16 0)
(-3.85047e-20 -9.87712e-16 0)
(-4.15725e-20 -9.87713e-16 0)
(-4.56508e-20 -9.87714e-16 0)
(-5.10378e-20 -9.87716e-16 0)
(-5.81344e-20 -9.8772e-16 0)
(-6.87165e-20 -9.87725e-16 0)
(-3.9166e-10 -1.15613e-15 0)
(-2.01819e-07 -8.99389e-06 0)
(3.28203e-07 -0.000472397 0)
(-1.50615e-21 -9.87762e-16 0)
(-4.4764e-21 -9.87762e-16 0)
(-7.34903e-21 -9.87761e-16 0)
(-1.00986e-20 -9.8776e-16 0)
(-1.27025e-20 -9.87759e-16 0)
(-1.5141e-20 -9.87758e-16 0)
(-1.73971e-20 -9.87756e-16 0)
(-1.9457e-20 -9.87754e-16 0)
(-2.13099e-20 -9.87752e-16 0)
(-2.29485e-20 -9.8775e-16 0)
(-2.43691e-20 -9.87748e-16 0)
(-2.55722e-20 -9.87745e-16 0)
(-2.6562e-20 -9.87743e-16 0)
(-2.73472e-20 -9.87741e-16 0)
(-2.79404e-20 -9.87738e-16 0)
(-2.83582e-20 -9.87736e-16 0)
(-2.8621e-20 -9.87733e-16 0)
(-2.8752e-20 -9.87731e-16 0)
(-2.87777e-20 -9.87729e-16 0)
(-2.87264e-20 -9.87727e-16 0)
(-2.86286e-20 -9.87725e-16 0)
(-2.85165e-20 -9.87723e-16 0)
(-2.8424e-20 -9.87721e-16 0)
(-2.83874e-20 -9.87719e-16 0)
(-2.84459e-20 -9.87717e-16 0)
(-2.86432e-20 -9.87716e-16 0)
(-2.90301e-20 -9.87714e-16 0)
(-2.96672e-20 -9.87712e-16 0)
(-3.06304e-20 -9.87711e-16 0)
(-3.20178e-20 -9.87709e-16 0)
(-3.39603e-20 -9.87707e-16 0)
(-3.66382e-20 -9.87705e-16 0)
(-4.03062e-20 -9.87703e-16 0)
(-4.53324e-20 -9.877e-16 0)
(-5.22611e-20 -9.87697e-16 0)
(-6.19121e-20 -9.87694e-16 0)
(-8.83816e-20 -9.87689e-16 0)
(-4.53145e-09 -2.06571e-15 0)
(-1.64987e-07 -2.4056e-05 0)
(4.15073e-07 -0.000477023 0)
(-1.28111e-21 -9.87758e-16 0)
(-3.80708e-21 -9.87758e-16 0)
(-6.24876e-21 -9.87757e-16 0)
(-8.58396e-21 -9.87757e-16 0)
(-1.07933e-20 -9.87755e-16 0)
(-1.28602e-20 -9.87754e-16 0)
(-1.4771e-20 -9.87753e-16 0)
(-1.65146e-20 -9.87751e-16 0)
(-1.80832e-20 -9.87749e-16 0)
(-1.94718e-20 -9.87748e-16 0)
(-2.06788e-20 -9.87746e-16 0)
(-2.17055e-20 -9.87744e-16 0)
(-2.25566e-20 -9.87741e-16 0)
(-2.32399e-20 -9.87739e-16 0)
(-2.37661e-20 -9.87737e-16 0)
(-2.41485e-20 -9.87735e-16 0)
(-2.44032e-20 -9.87733e-16 0)
(-2.4548e-20 -9.87731e-16 0)
(-2.46027e-20 -9.87729e-16 0)
(-2.45885e-20 -9.87727e-16 0)
(-2.45277e-20 -9.87725e-16 0)
(-2.44433e-20 -9.87723e-16 0)
(-2.43594e-20 -9.87721e-16 0)
(-2.43009e-20 -9.87719e-16 0)
(-2.42937e-20 -9.87717e-16 0)
(-2.43651e-20 -9.87715e-16 0)
(-2.45439e-20 -9.87713e-16 0)
(-2.48612e-20 -9.87711e-16 0)
(-2.53499e-20 -9.87709e-16 0)
(-2.60446e-20 -9.87706e-16 0)
(-2.69795e-20 -9.87703e-16 0)
(-2.81841e-20 -9.877e-16 0)
(-2.96738e-20 -9.87695e-16 0)
(-3.14319e-20 -9.8769e-16 0)
(-3.33754e-20 -9.87684e-16 0)
(-3.5292e-20 -9.87676e-16 0)
(-7.17292e-20 -9.87666e-16 0)
(-5.66965e-09 -3.4016e-15 0)
(-2.3035e-07 -3.47677e-05 0)
(3.06097e-07 -0.000481703 0)
(-1.08536e-21 -9.87755e-16 0)
(-3.22504e-21 -9.87755e-16 0)
(-5.29235e-21 -9.87754e-16 0)
(-7.26807e-21 -9.87753e-16 0)
(-9.13562e-21 -9.87752e-16 0)
(-1.0881e-20 -9.87751e-16 0)
(-1.24927e-20 -9.8775e-16 0)
(-1.3962e-20 -9.87749e-16 0)
(-1.52825e-20 -9.87747e-16 0)
(-1.64508e-20 -9.87746e-16 0)
(-1.74658e-20 -9.87744e-16 0)
(-1.83288e-20 -9.87742e-16 0)
(-1.90439e-20 -9.8774e-16 0)
(-1.96171e-20 -9.87738e-16 0)
(-2.00567e-20 -9.87736e-16 0)
(-2.03726e-20 -9.87735e-16 0)
(-2.05763e-20 -9.87733e-16 0)
(-2.06804e-20 -9.87731e-16 0)
(-2.06983e-20 -9.87729e-16 0)
(-2.0644e-20 -9.87727e-16 0)
(-2.05312e-20 -9.87725e-16 0)
(-2.03735e-20 -9.87723e-16 0)
(-2.01838e-20 -9.87721e-16 0)
(-1.99737e-20 -9.87719e-16 0)
(-1.9753e-20 -9.87717e-16 0)
(-1.9529e-20 -9.87715e-16 0)
(-1.93054e-20 -9.87713e-16 0)
(-1.90807e-20 -9.87711e-16 0)
(-1.88457e-20 -9.87708e-16 0)
(-1.85802e-20 -9.87705e-16 0)
(-1.82479e-20 -9.87702e-16 0)
(-1.77888e-20 -9.87699e-16 0)
(-1.71091e-20 -9.87694e-16 0)
(-1.60674e-20 -9.8769e-16 0)
(-1.44566e-20 -9.87684e-16 0)
(-1.1983e-20 -9.87678e-16 0)
(-1.73067e-20 -9.8767e-16 0)
(1.0854e-10 -4.09598e-15 0)
(-2.91961e-07 -3.49642e-05 0)
(1.73922e-07 -0.000486428 0)
(-9.1517e-22 -9.87752e-16 0)
(-2.71902e-21 -9.87752e-16 0)
(-4.46096e-21 -9.87751e-16 0)
(-6.12435e-21 -9.87751e-16 0)
(-7.69489e-21 -9.8775e-16 0)
(-9.16059e-21 -9.87749e-16 0)
(-1.05117e-20 -9.87748e-16 0)
(-1.17409e-20 -9.87747e-16 0)
(-1.28429e-20 -9.87745e-16 0)
(-1.38147e-20 -9.87744e-16 0)
(-1.46551e-20 -9.87742e-16 0)
(-1.53653e-20 -9.87741e-16 0)
(-1.59478e-20 -9.87739e-16 0)
(-1.64069e-20 -9.87738e-16 0)
(-1.67484e-20 -9.87736e-16 0)
(-1.69788e-20 -9.87734e-16 0)
(-1.71058e-20 -9.87732e-16 0)
(-1.71371e-20 -9.87731e-16 0)
(-1.70808e-20 -9.87729e-16 0)
(-1.69444e-20 -9.87727e-16 0)
(-1.67349e-20 -9.87725e-16 0)
(-1.64579e-20 -9.87724e-16 0)
(-1.61172e-20 -9.87722e-16 0)
(-1.57143e-20 -9.8772e-16 0)
(-1.52475e-20 -9.87718e-16 0)
(-1.4711e-20 -9.87716e-16 0)
(-1.4094e-20 -9.87714e-16 0)
(-1.33789e-20 -9.87712e-16 0)
(-1.25397e-20 -9.87709e-16 0)
(-1.15402e-20 -9.87707e-16 0)
(-1.03313e-20 -9.87704e-16 0)
(-8.84847e-21 -9.87701e-16 0)
(-7.00972e-21 -9.87698e-16 0)
(-4.7137e-21 -9.87695e-16 0)
(-1.84012e-21 -9.87691e-16 0)
(1.74674e-21 -9.87687e-16 0)
(6.18915e-21 -9.87683e-16 0)
(3.56241e-20 -4.36643e-15 0)
(-2.90896e-07 -3.1503e-05 0)
(1.34783e-07 -0.000491011 0)
(-7.67197e-22 -9.87749e-16 0)
(-2.27905e-21 -9.87749e-16 0)
(-3.73806e-21 -9.87749e-16 0)
(-5.12974e-21 -9.87748e-16 0)
(-6.44168e-21 -9.87748e-16 0)
(-7.66347e-21 -9.87747e-16 0)
(-8.7867e-21 -9.87746e-16 0)
(-9.8049e-21 -9.87745e-16 0)
(-1.07134e-20 -9.87744e-16 0)
(-1.15093e-20 -9.87742e-16 0)
(-1.21914e-20 -9.87741e-16 0)
(-1.27598e-20 -9.8774e-16 0)
(-1.32161e-20 -9.87738e-16 0)
(-1.35628e-20 -9.87737e-16 0)
(-1.38033e-20 -9.87735e-16 0)
(-1.39416e-20 -9.87734e-16 0)
(-1.39821e-20 -9.87732e-16 0)
(-1.3929e-20 -9.87731e-16 0)
(-1.37863e-20 -9.87729e-16 0)
(-1.35571e-20 -9.87728e-16 0)
(-1.32437e-20 -9.87726e-16 0)
(-1.28465e-20 -9.87724e-16 0)
(-1.23644e-20 -9.87723e-16 0)
(-1.17934e-20 -9.87721e-16 0)
(-1.11269e-20 -9.87719e-16 0)
(-1.03544e-20 -9.87718e-16 0)
(-9.46165e-21 -9.87716e-16 0)
(-8.42931e-21 -9.87714e-16 0)
(-7.23303e-21 -9.87712e-16 0)
(-5.84283e-21 -9.8771e-16 0)
(-4.22322e-21 -9.87708e-16 0)
(-2.33382e-21 -9.87706e-16 0)
(-1.31088e-22 -9.87704e-16 0)
(2.42858e-21 -9.87701e-16 0)
(5.38335e-21 -9.87699e-16 0)
(8.75745e-21 -9.87697e-16 0)
(1.25482e-20 -9.87695e-16 0)
(5.03713e-20 -4.65327e-15 0)
(-2.50612e-07 -2.71996e-05 0)
(1.06058e-07 -0.000495111 0)
(-6.38562e-22 -9.87747e-16 0)
(-1.89655e-21 -9.87747e-16 0)
(-3.10949e-21 -9.87747e-16 0)
(-4.2647e-21 -9.87746e-16 0)
(-5.35132e-21 -9.87746e-16 0)
(-6.36019e-21 -9.87745e-16 0)
(-7.2839e-21 -9.87744e-16 0)
(-8.11663e-21 -9.87743e-16 0)
(-8.85408e-21 -9.87742e-16 0)
(-9.49338e-21 -9.87741e-16 0)
(-1.00329e-20 -9.8774e-16 0)
(-1.04723e-20 -9.87739e-16 0)
(-1.08118e-20 -9.87738e-16 0)
(-1.10528e-20 -9.87736e-16 0)
(-1.11971e-20 -9.87735e-16 0)
(-1.12465e-20 -9.87734e-16 0)
(-1.12034e-20 -9.87732e-16 0)
(-1.10696e-20 -9.87731e-16 0)
(-1.08466e-20 -9.8773e-16 0)
(-1.0535e-20 -9.87728e-16 0)
(-1.01346e-20 -9.87727e-16 0)
(-9.64386e-21 -9.87726e-16 0)
(-9.05951e-21 -9.87724e-16 0)
(-8.37657e-21 -9.87723e-16 0)
(-7.58797e-21 -9.87721e-16 0)
(-6.68431e-21 -9.8772e-16 0)
(-5.65376e-21 -9.87718e-16 0)
(-4.48201e-21 -9.87717e-16 0)
(-3.15227e-21 -9.87715e-16 0)
(-1.64561e-21 -9.87714e-16 0)
(5.86824e-23 -9.87712e-16 0)
(1.98235e-21 -9.87711e-16 0)
(4.14728e-21 -9.8771e-16 0)
(6.57455e-21 -9.87708e-16 0)
(9.28358e-21 -9.87707e-16 0)
(1.22921e-20 -9.87706e-16 0)
(1.56179e-20 -9.87706e-16 0)
(6.03387e-20 -4.99011e-15 0)
(-1.4612e-07 -2.28615e-05 0)
(8.39648e-08 -0.000498148 0)
(-5.26817e-22 -9.87746e-16 0)
(-1.56425e-21 -9.87746e-16 0)
(-2.56332e-21 -9.87745e-16 0)
(-3.51288e-21 -9.87745e-16 0)
(-4.40331e-21 -9.87744e-16 0)
(-5.22652e-21 -9.87744e-16 0)
(-5.97587e-21 -9.87743e-16 0)
(-6.64604e-21 -9.87742e-16 0)
(-7.23302e-21 -9.87741e-16 0)
(-7.73393e-21 -9.8774e-16 0)
(-8.14692e-21 -9.87739e-16 0)
(-8.47101e-21 -9.87738e-16 0)
(-8.70595e-21 -9.87737e-16 0)
(-8.85204e-21 -9.87736e-16 0)
(-8.90995e-21 -9.87735e-16 0)
(-8.88054e-21 -9.87734e-16 0)
(-8.76467e-21 -9.87733e-16 0)
(-8.563e-21 -9.87731e-16 0)
(-8.27584e-21 -9.8773e-16 0)
(-7.90294e-21 -9.87729e-16 0)
(-7.44334e-21 -9.87728e-16 0)
(-6.89521e-21 -9.87727e-16 0)
(-6.25576e-21 -9.87725e-16 0)
(-5.52116e-21 -9.87724e-16 0)
(-4.68647e-21 -9.87723e-16 0)
(-3.74569e-21 -9.87722e-16 0)
(-2.69185e-21 -9.87721e-16 0)
(-1.51719e-21 -9.8772e-16 0)
(-2.13444e-22 -9.87719e-16 0)
(1.22779e-21 -9.87718e-16 0)
(2.81459e-21 -9.87717e-16 0)
(4.5541e-21 -9.87716e-16 0)
(6.45202e-21 -9.87715e-16 0)
(8.51206e-21 -9.87714e-16 0)
(1.07356e-20 -9.87714e-16 0)
(1.31214e-20 -9.87714e-16 0)
(1.56662e-20 -9.87714e-16 0)
(6.03698e-20 -5.33354e-15 0)
(-4.67726e-09 -1.92291e-05 0)
(6.85737e-08 -0.000499543 0)
(-4.2989e-22 -9.87744e-16 0)
(-1.276e-21 -9.87744e-16 0)
(-2.08949e-21 -9.87744e-16 0)
(-2.8605e-21 -9.87744e-16 0)
(-3.58051e-21 -9.87743e-16 0)
(-4.24227e-21 -9.87743e-16 0)
(-4.83979e-21 -9.87742e-16 0)
(-5.36824e-21 -9.87741e-16 0)
(-5.82384e-21 -9.87741e-16 0)
(-6.20376e-21 -9.8774e-16 0)
(-6.50604e-21 -9.87739e-16 0)
(-6.72942e-21 -9.87738e-16 0)
(-6.87323e-21 -9.87737e-16 0)
(-6.93726e-21 -9.87736e-16 0)
(-6.92161e-21 -9.87735e-16 0)
(-6.82654e-21 -9.87734e-16 0)
(-6.65237e-21 -9.87733e-16 0)
(-6.39935e-21 -9.87732e-16 0)
(-6.06752e-21 -9.87731e-16 0)
(-5.65665e-21 -9.8773e-16 0)
(-5.16613e-21 -9.87729e-16 0)
(-4.59499e-21 -9.87728e-16 0)
(-3.94181e-21 -9.87727e-16 0)
(-3.20482e-21 -9.87726e-16 0)
(-2.38193e-21 -9.87725e-16 0)
(-1.47091e-21 -9.87724e-16 0)
(-4.69543e-22 -9.87723e-16 0)
(6.24083e-22 -9.87722e-16 0)
(1.81124e-21 -9.87722e-16 0)
(3.09216e-21 -9.87721e-16 0)
(4.46551e-21 -9.8772e-16 0)
(5.92785e-21 -9.8772e-16 0)
(7.47293e-21 -9.8772e-16 0)
(9.09094e-21 -9.87719e-16 0)
(1.07675e-20 -9.87719e-16 0)
(1.24826e-20 -9.8772e-16 0)
(1.42087e-20 -9.8772e-16 0)
(5.41804e-20 -5.69079e-15 0)
(5.98319e-11 -1.64994e-05 0)
(5.70781e-08 -0.000499867 0)
(-3.46023e-22 -9.87743e-16 0)
(-1.02658e-21 -9.87743e-16 0)
(-1.67947e-21 -9.87743e-16 0)
(-2.29594e-21 -9.87743e-16 0)
(-2.86839e-21 -9.87742e-16 0)
(-3.39033e-21 -9.87742e-16 0)
(-3.85636e-21 -9.87741e-16 0)
(-4.26206e-21 -9.87741e-16 0)
(-4.60393e-21 -9.8774e-16 0)
(-4.87929e-21 -9.87739e-16 0)
(-5.08616e-21 -9.87739e-16 0)
(-5.22321e-21 -9.87738e-16 0)
(-5.28961e-21 -9.87737e-16 0)
(-5.28496e-21 -9.87736e-16 0)
(-5.20914e-21 -9.87735e-16 0)
(-5.06227e-21 -9.87734e-16 0)
(-4.84459e-21 -9.87733e-16 0)
(-4.55641e-21 -9.87733e-16 0)
(-4.19801e-21 -9.87732e-16 0)
(-3.76965e-21 -9.87731e-16 0)
(-3.27151e-21 -9.8773e-16 0)
(-2.70375e-21 -9.87729e-16 0)
(-2.06649e-21 -9.87728e-16 0)
(-1.35993e-21 -9.87728e-16 0)
(-5.84471e-22 -9.87727e-16 0)
(2.59193e-22 -9.87726e-16 0)
(1.16982e-21 -9.87726e-16 0)
(2.14542e-21 -9.87725e-16 0)
(3.18297e-21 -9.87724e-16 0)
(4.2781e-21 -9.87724e-16 0)
(5.42471e-21 -9.87724e-16 0)
(6.61463e-21 -9.87723e-16 0)
(7.83713e-21 -9.87723e-16 0)
(9.0785e-21 -9.87723e-16 0)
(1.03215e-20 -9.87723e-16 0)
(1.15448e-20 -9.87724e-16 0)
(1.27225e-20 -9.87724e-16 0)
(4.95582e-20 -6.06768e-15 0)
(5.28807e-11 -1.43122e-05 0)
(4.97321e-08 -0.00050001 0)
(-2.7371e-22 -9.87742e-16 0)
(-8.11522e-22 -9.87742e-16 0)
(-1.32595e-21 -9.87742e-16 0)
(-1.80919e-21 -9.87742e-16 0)
(-2.25446e-21 -9.87741e-16 0)
(-2.65595e-21 -9.87741e-16 0)
(-3.00879e-21 -9.87741e-16 0)
(-3.30898e-21 -9.8774e-16 0)
(-3.5533e-21 -9.8774e-16 0)
(-3.73927e-21 -9.87739e-16 0)
(-3.86505e-21 -9.87738e-16 0)
(-3.92935e-21 -9.87738e-16 0)
(-3.93136e-21 -9.87737e-16 0)
(-3.87069e-21 -9.87736e-16 0)
(-3.74726e-21 -9.87735e-16 0)
(-3.56128e-21 -9.87735e-16 0)
(-3.31315e-21 -9.87734e-16 0)
(-3.00345e-21 -9.87733e-16 0)
(-2.63292e-21 -9.87733e-16 0)
(-2.20239e-21 -9.87732e-16 0)
(-1.71285e-21 -9.87731e-16 0)
(-1.16547e-21 -9.8773e-16 0)
(-5.61594e-22 -9.8773e-16 0)
(9.71238e-23 -9.87729e-16 0)
(8.08669e-22 -9.87729e-16 0)
(1.57054e-21 -9.87728e-16 0)
(2.37962e-21 -9.87728e-16 0)
(3.23205e-21 -9.87727e-16 0)
(4.12305e-21 -9.87727e-16 0)
(5.04677e-21 -9.87726e-16 0)
(5.99617e-21 -9.87726e-16 0)
(6.96286e-21 -9.87726e-16 0)
(7.93704e-21 -9.87726e-16 0)
(8.90743e-21 -9.87726e-16 0)
(9.86136e-21 -9.87726e-16 0)
(1.07849e-20 -9.87726e-16 0)
(1.16633e-20 -9.87727e-16 0)
(4.68411e-20 -6.45666e-15 0)
(4.29885e-11 -1.24438e-05 0)
(4.36908e-08 -0.000500101 0)
(-2.11647e-22 -9.87742e-16 0)
(-6.26957e-22 -9.87742e-16 0)
(-1.02259e-21 -9.87741e-16 0)
(-1.39157e-21 -9.87741e-16 0)
(-1.72784e-21 -9.87741e-16 0)
(-2.02621e-21 -9.87741e-16 0)
(-2.28229e-21 -9.8774e-16 0)
(-2.49249e-21 -9.8774e-16 0)
(-2.6539e-21 -9.87739e-16 0)
(-2.76428e-21 -9.87739e-16 0)
(-2.82196e-21 -9.87738e-16 0)
(-2.8258e-21 -9.87738e-16 0)
(-2.77513e-21 -9.87737e-16 0)
(-2.66966e-21 -9.87736e-16 0)
(-2.50947e-21 -9.87736e-16 0)
(-2.29496e-21 -9.87735e-16 0)
(-2.02677e-21 -9.87735e-16 0)
(-1.70583e-21 -9.87734e-16 0)
(-1.33327e-21 -9.87733e-16 0)
(-9.10457e-22 -9.87733e-16 0)
(-4.38999e-22 -9.87732e-16 0)
(7.92402e-23 -9.87732e-16 0)
(6.42109e-22 -9.87731e-16 0)
(1.24712e-21 -9.87731e-16 0)
(1.89142e-21 -9.8773e-16 0)
(2.57169e-21 -9.8773e-16 0)
(3.28416e-21 -9.87729e-16 0)
(4.02447e-21 -9.87729e-16 0)
(4.78771e-21 -9.87729e-16 0)
(5.56832e-21 -9.87729e-16 0)
(6.36013e-21 -9.87728e-16 0)
(7.15639e-21 -9.87728e-16 0)
(7.94985e-21 -9.87728e-16 0)
(8.73289e-21 -9.87728e-16 0)
(9.49775e-21 -9.87728e-16 0)
(1.02369e-20 -9.87729e-16 0)
(1.09433e-20 -9.87729e-16 0)
(4.6056e-20 -6.80266e-15 0)
(3.77901e-11 -1.07787e-05 0)
(3.81542e-08 -0.000500149 0)
(-1.58695e-22 -9.87741e-16 0)
(-4.69503e-22 -9.87741e-16 0)
(-7.63827e-22 -9.87741e-16 0)
(-1.03544e-21 -9.87741e-16 0)
(-1.27893e-21 -9.8774e-16 0)
(-1.48964e-21 -9.8774e-16 0)
(-1.66366e-21 -9.8774e-16 0)
(-1.79775e-21 -9.87739e-16 0)
(-1.88934e-21 -9.87739e-16 0)
(-1.93641e-21 -9.87739e-16 0)
(-1.93753e-21 -9.87738e-16 0)
(-1.89171e-21 -9.87738e-16 0)
(-1.79846e-21 -9.87737e-16 0)
(-1.65764e-21 -9.87737e-16 0)
(-1.46952e-21 -9.87736e-16 0)
(-1.23469e-21 -9.87736e-16 0)
(-9.54044e-22 -9.87735e-16 0)
(-6.28763e-22 -9.87735e-16 0)
(-2.60314e-22 -9.87734e-16 0)
(1.4957e-22 -9.87734e-16 0)
(5.98885e-22 -9.87733e-16 0)
(1.08535e-21 -9.87733e-16 0)
(1.6064e-21 -9.87732e-16 0)
(2.15918e-21 -9.87732e-16 0)
(2.74052e-21 -9.87732e-16 0)
(3.34694e-21 -9.87731e-16 0)
(3.97465e-21 -9.87731e-16 0)
(4.61953e-21 -9.87731e-16 0)
(5.27718e-21 -9.8773e-16 0)
(5.94296e-21 -9.8773e-16 0)
(6.61198e-21 -9.8773e-16 0)
(7.27926e-21 -9.8773e-16 0)
(7.93978e-21 -9.8773e-16 0)
(8.5886e-21 -9.8773e-16 0)
(9.22107e-21 -9.8773e-16 0)
(9.8329e-21 -9.8773e-16 0)
(1.04204e-20 -9.8773e-16 0)
(4.49726e-20 -7.01495e-15 0)
(3.30969e-11 -9.2666e-06 0)
(3.31131e-08 -0.000500146 0)
(-1.13856e-22 -9.87741e-16 0)
(-3.36186e-22 -9.87741e-16 0)
(-5.44784e-22 -9.87741e-16 0)
(-7.34083e-22 -9.8774e-16 0)
(-8.99233e-22 -9.8774e-16 0)
(-1.03608e-21 -9.8774e-16 0)
(-1.14111e-21 -9.8774e-16 0)
(-1.21145e-21 -9.87739e-16 0)
(-1.2448e-21 -9.87739e-16 0)
(-1.2394e-21 -9.87739e-16 0)
(-1.19399e-21 -9.87738e-16 0)
(-1.10779e-21 -9.87738e-16 0)
(-9.80426e-22 -9.87737e-16 0)
(-8.11947e-22 -9.87737e-16 0)
(-6.02754e-22 -9.87737e-16 0)
(-3.53596e-22 -9.87736e-16 0)
(-6.55454e-23 -9.87736e-16 0)
(2.60022e-22 -9.87735e-16 0)
(6.21439e-22 -9.87735e-16 0)
(1.01675e-21 -9.87734e-16 0)
(1.44375e-21 -9.87734e-16 0)
(1.89995e-21 -9.87734e-16 0)
(2.38263e-21 -9.87733e-16 0)
(2.88881e-21 -9.87733e-16 0)
(3.41531e-21 -9.87733e-16 0)
(3.95876e-21 -9.87733e-16 0)
(4.5156e-21 -9.87732e-16 0)
(5.08217e-21 -9.87732e-16 0)
(5.65472e-21 -9.87732e-16 0)
(6.22947e-21 -9.87732e-16 0)