/*--------------------------------*- C++ -*----------------------------------*\
  =========                 |
  \\      /  F ield         | OpenFOAM: The Open Source CFD Toolbox
   \\    /   O peration     | Website:  https://openfoam.org
    \\  /    A nd           | Version:  10
     \\/     M anipulation  |
\*---------------------------------------------------------------------------*/
FoamFile
{
    format      ascii;
    class       volVectorField;
    location    "11000";
    object      Ub;
}
// * * * * * * * * * * * * * * * * * * * * * * * * * * * * * * * * * * * * * //

dimensions      [0 1 -1 0 0 0 0];

internalField   nonuniform List<vector> 
3200
(
(-5.30717e-21 -9.87891e-16 0)
(-1.5868e-20 -9.87891e-16 0)
(-2.63603e-20 -9.87891e-16 0)
(-3.68603e-20 -9.87891e-16 0)
(-4.74418e-20 -9.8789e-16 0)
(-5.81796e-20 -9.8789e-16 0)
(-6.91513e-20 -9.8789e-16 0)
(-8.04399e-20 -9.87889e-16 0)
(-9.21367e-20 -9.87889e-16 0)
(-1.04345e-19 -9.87888e-16 0)
(-1.17183e-19 -9.87887e-16 0)
(-1.30791e-19 -9.87886e-16 0)
(-1.45337e-19 -9.87885e-16 0)
(-1.61029e-19 -9.87884e-16 0)
(-1.78125e-19 -9.87882e-16 0)
(-1.96955e-19 -9.8788e-16 0)
(-2.17948e-19 -9.87877e-16 0)
(-2.41676e-19 -9.87874e-16 0)
(-2.68916e-19 -9.8787e-16 0)
(-3.00751e-19 -9.87864e-16 0)
(-3.38729e-19 -9.87856e-16 0)
(-3.85119e-19 -9.87845e-16 0)
(-4.43344e-19 -9.87829e-16 0)
(-5.18694e-19 -9.87806e-16 0)
(-6.19563e-19 -9.8777e-16 0)
(-7.5958e-19 -9.87714e-16 0)
(-9.61345e-19 -9.87624e-16 0)
(-1.81464e-18 -9.87474e-16 0)
(-3.46429e-07 -1.36386e-15 0)
(-6.34981e-05 -1.74039e-05 0)
(-0.00013014 -1.70718e-05 0)
(-0.000135377 -7.34801e-06 0)
(-0.000137665 -4.46778e-06 0)
(-0.000139206 -3.04433e-06 0)
(-0.000140377 -2.20603e-06 0)
(-0.000141318 -1.65855e-06 0)
(-0.000142097 -1.26918e-06 0)
(-0.00014015 -8.22033e-06 0)
(-0.000115342 -6.52339e-05 0)
(-6.28381e-05 -8.76265e-05 0)
(-5.22163e-21 -9.87876e-16 0)
(-1.56099e-20 -9.87875e-16 0)
(-2.59242e-20 -9.87875e-16 0)
(-3.62345e-20 -9.87875e-16 0)
(-4.66087e-20 -9.87874e-16 0)
(-5.71143e-20 -9.87873e-16 0)
(-6.78203e-20 -9.87872e-16 0)
(-7.87989e-20 -9.87871e-16 0)
(-9.0128e-20 -9.87869e-16 0)
(-1.01892e-19 -9.87867e-16 0)
(-1.14187e-19 -9.87865e-16 0)
(-1.27119e-19 -9.87862e-16 0)
(-1.40811e-19 -9.87859e-16 0)
(-1.55406e-19 -9.87855e-16 0)
(-1.71068e-19 -9.8785e-16 0)
(-1.87988e-19 -9.87845e-16 0)
(-2.06387e-19 -9.87837e-16 0)
(-2.26509e-19 -9.87829e-16 0)
(-2.48618e-19 -9.87817e-16 0)
(-2.72963e-19 -9.87803e-16 0)
(-2.99709e-19 -9.87784e-16 0)
(-3.28785e-19 -9.87759e-16 0)
(-3.59574e-19 -9.87726e-16 0)
(-3.90278e-19 -9.8768e-16 0)
(-4.16666e-19 -9.87616e-16 0)
(-4.29622e-19 -9.87526e-16 0)
(-4.10375e-19 -9.87397e-16 0)
(-3.21341e-19 -9.87209e-16 0)
(-8.87139e-20 -9.86934e-16 0)
(1.72572e-19 -9.82873e-16 0)
(2.06117e-19 -9.30404e-16 0)
(8.97734e-20 -8.83311e-16 0)
(-1.17642e-20 -8.39265e-16 0)
(-1.10133e-19 -7.97446e-16 0)
(-2.16958e-19 -7.57424e-16 0)
(-1.12764e-18 -7.18943e-16 0)
(-1.75212e-07 -1.38727e-15 0)
(-2.03379e-05 -7.25868e-06 0)
(-6.41189e-05 -6.57009e-05 0)
(-5.10871e-05 -0.000282091 0)
(-5.05678e-21 -9.87861e-16 0)
(-1.5113e-20 -9.87861e-16 0)
(-2.50851e-20 -9.8786e-16 0)
(-3.50326e-20 -9.87859e-16 0)
(-4.50121e-20 -9.87858e-16 0)
(-5.50785e-20 -9.87857e-16 0)
(-6.52859e-20 -9.87855e-16 0)
(-7.56884e-20 -9.87853e-16 0)
(-8.63411e-20 -9.8785e-16 0)
(-9.73003e-20 -9.87848e-16 0)
(-1.08623e-19 -9.87844e-16 0)
(-1.20369e-19 -9.8784e-16 0)
(-1.32594e-19 -9.87835e-16 0)
(-1.45353e-19 -9.8783e-16 0)
(-1.58693e-19 -9.87823e-16 0)
(-1.72644e-19 -9.87815e-16 0)
(-1.87203e-19 -9.87805e-16 0)
(-2.02316e-19 -9.87793e-16 0)
(-2.17836e-19 -9.87779e-16 0)
(-2.33471e-19 -9.87761e-16 0)
(-2.48692e-19 -9.8774e-16 0)
(-2.62611e-19 -9.87714e-16 0)
(-2.73804e-19 -9.87682e-16 0)
(-2.80101e-19 -9.87644e-16 0)
(-2.78369e-19 -9.87598e-16 0)
(-2.6446e-19 -9.87546e-16 0)
(-2.33679e-19 -9.87491e-16 0)
(-1.82682e-19 -9.8744e-16 0)
(-1.14735e-19 -9.87414e-16 0)
(-5.24116e-20 -9.8745e-16 0)
(-2.31101e-20 -9.87521e-16 0)
(-2.44851e-20 -9.87562e-16 0)
(-3.87865e-20 -9.8758e-16 0)
(-5.52707e-20 -9.87578e-16 0)
(-6.50077e-20 -9.87555e-16 0)
(-5.69308e-20 -9.8751e-16 0)
(-1.37664e-20 -9.87437e-16 0)
(-5.13083e-11 -9.91608e-16 0)
(-1.59959e-06 -1.39331e-06 0)
(-8.23367e-07 -0.00039769 0)
(-4.82405e-21 -9.87847e-16 0)
(-1.44119e-20 -9.87846e-16 0)
(-2.39033e-20 -9.87845e-16 0)
(-3.33443e-20 -9.87844e-16 0)
(-4.27772e-20 -9.87843e-16 0)
(-5.22414e-20 -9.87841e-16 0)
(-6.17733e-20 -9.87839e-16 0)
(-7.14065e-20 -9.87836e-16 0)
(-8.1171e-20 -9.87833e-16 0)
(-9.10926e-20 -9.8783e-16 0)
(-1.01191e-19 -9.87825e-16 0)
(-1.1148e-19 -9.8782e-16 0)
(-1.21957e-19 -9.87815e-16 0)
(-1.32608e-19 -9.87808e-16 0)
(-1.43392e-19 -9.878e-16 0)
(-1.54234e-19 -9.87791e-16 0)
(-1.65011e-19 -9.8778e-16 0)
(-1.75533e-19 -9.87768e-16 0)
(-1.85521e-19 -9.87754e-16 0)
(-1.94576e-19 -9.87737e-16 0)
(-2.02149e-19 -9.87718e-16 0)
(-2.07515e-19 -9.87696e-16 0)
(-2.09763e-19 -9.87672e-16 0)
(-2.07823e-19 -9.87645e-16 0)
(-2.00582e-19 -9.87617e-16 0)
(-1.87123e-19 -9.87589e-16 0)
(-1.67166e-19 -9.87564e-16 0)
(-1.41708e-19 -9.87544e-16 0)
(-1.13703e-19 -9.87535e-16 0)
(-8.80836e-20 -9.87539e-16 0)
(-6.91594e-20 -9.8755e-16 0)
(-5.74052e-20 -9.87559e-16 0)
(-5.0334e-20 -9.87565e-16 0)
(-4.48717e-20 -9.87565e-16 0)
(-3.82171e-20 -9.8756e-16 0)
(-2.83847e-20 -9.87553e-16 0)
(-1.51447e-20 -9.87549e-16 0)
(-1.9847e-21 -9.8994e-16 0)
(-1.7745e-07 -4.5724e-07 0)
(5.12134e-07 -0.00040844 0)
(-4.53829e-21 -9.87833e-16 0)
(-1.35521e-20 -9.87833e-16 0)
(-2.2457e-20 -9.87832e-16 0)
(-3.12845e-20 -9.87831e-16 0)
(-4.00623e-20 -9.87829e-16 0)
(-4.8814e-20 -9.87827e-16 0)
(-5.7559e-20 -9.87824e-16 0)
(-6.63114e-20 -9.87821e-16 0)
(-7.50796e-20 -9.87818e-16 0)
(-8.38643e-20 -9.87814e-16 0)
(-9.26569e-20 -9.87809e-16 0)
(-1.01437e-19 -9.87804e-16 0)
(-1.10168e-19 -9.87797e-16 0)
(-1.18794e-19 -9.8779e-16 0)
(-1.27235e-19 -9.87782e-16 0)
(-1.35376e-19 -9.87773e-16 0)
(-1.43066e-19 -9.87763e-16 0)
(-1.50107e-19 -9.87751e-16 0)
(-1.56245e-19 -9.87738e-16 0)
(-1.61172e-19 -9.87724e-16 0)
(-1.64522e-19 -9.87708e-16 0)
(-1.65888e-19 -9.87692e-16 0)
(-1.64849e-19 -9.87674e-16 0)
(-1.61029e-19 -9.87656e-16 0)
(-1.5417e-19 -9.87638e-16 0)
(-1.44253e-19 -9.87621e-16 0)
(-1.31606e-19 -9.87606e-16 0)
(-1.16998e-19 -9.87595e-16 0)
(-1.01604e-19 -9.87587e-16 0)
(-8.67664e-20 -9.87584e-16 0)
(-7.351e-20 -9.87583e-16 0)
(-6.21403e-20 -9.87583e-16 0)
(-5.23142e-20 -9.87583e-16 0)
(-4.33898e-20 -9.87583e-16 0)
(-3.474e-20 -9.87582e-16 0)
(-2.59903e-20 -9.87581e-16 0)
(-1.71876e-20 -9.87581e-16 0)
(-1.86139e-12 -9.90418e-16 0)
(-5.06222e-08 -4.4175e-07 0)
(6.44953e-07 -0.000413958 0)
(-4.21576e-21 -9.8782e-16 0)
(-1.25828e-20 -9.8782e-16 0)
(-2.08305e-20 -9.87819e-16 0)
(-2.89766e-20 -9.87818e-16 0)
(-3.70351e-20 -9.87816e-16 0)
(-4.50158e-20 -9.87814e-16 0)
(-5.29236e-20 -9.87811e-16 0)
(-6.07577e-20 -9.87808e-16 0)
(-6.85101e-20 -9.87804e-16 0)
(-7.61649e-20 -9.878e-16 0)
(-8.36962e-20 -9.87795e-16 0)
(-9.1066e-20 -9.8779e-16 0)
(-9.82225e-20 -9.87783e-16 0)
(-1.05097e-19 -9.87776e-16 0)
(-1.11602e-19 -9.87769e-16 0)
(-1.17627e-19 -9.8776e-16 0)
(-1.23041e-19 -9.87751e-16 0)
(-1.27687e-19 -9.87741e-16 0)
(-1.31386e-19 -9.8773e-16 0)
(-1.33944e-19 -9.87718e-16 0)
(-1.35161e-19 -9.87705e-16 0)
(-1.34844e-19 -9.87693e-16 0)
(-1.32836e-19 -9.87679e-16 0)
(-1.29042e-19 -9.87666e-16 0)
(-1.23462e-19 -9.87654e-16 0)
(-1.16221e-19 -9.87643e-16 0)
(-1.07586e-19 -9.87633e-16 0)
(-9.79565e-20 -9.87624e-16 0)
(-8.78115e-20 -9.87618e-16 0)
(-7.7625e-20 -9.87613e-16 0)
(-6.77587e-20 -9.8761e-16 0)
(-5.83962e-20 -9.87608e-16 0)
(-4.95526e-20 -9.87606e-16 0)
(-4.11418e-20 -9.87605e-16 0)
(-3.30537e-20 -9.87604e-16 0)
(-2.5215e-20 -9.87603e-16 0)
(-1.76391e-20 -9.87603e-16 0)
(-2.9327e-12 -9.9084e-16 0)
(-5.28983e-08 -4.78923e-07 0)
(6.22219e-07 -0.000419011 0)
(-3.8723e-21 -9.87809e-16 0)
(-1.15519e-20 -9.87808e-16 0)
(-1.91051e-20 -9.87807e-16 0)
(-2.65376e-20 -9.87806e-16 0)
(-3.3852e-20 -9.87804e-16 0)
(-4.10474e-20 -9.87802e-16 0)
(-4.81177e-20 -9.87799e-16 0)
(-5.50519e-20 -9.87796e-16 0)
(-6.18322e-20 -9.87792e-16 0)
(-6.84337e-20 -9.87788e-16 0)
(-7.48229e-20 -9.87783e-16 0)
(-8.09569e-20 -9.87778e-16 0)
(-8.67821e-20 -9.87772e-16 0)
(-9.22336e-20 -9.87766e-16 0)
(-9.72348e-20 -9.87759e-16 0)
(-1.01697e-19 -9.87751e-16 0)
(-1.05522e-19 -9.87743e-16 0)
(-1.08603e-19 -9.87734e-16 0)
(-1.10827e-19 -9.87725e-16 0)
(-1.12087e-19 -9.87715e-16 0)
(-1.12283e-19 -9.87705e-16 0)
(-1.11338e-19 -9.87695e-16 0)
(-1.09207e-19 -9.87685e-16 0)
(-1.05888e-19 -9.87676e-16 0)
(-1.01435e-19 -9.87667e-16 0)
(-9.59609e-20 -9.87658e-16 0)
(-8.96308e-20 -9.87651e-16 0)
(-8.26526e-20 -9.87644e-16 0)
(-7.5251e-20 -9.87639e-16 0)
(-6.7638e-20 -9.87635e-16 0)
(-5.99858e-20 -9.87631e-16 0)
(-5.24117e-20 -9.87628e-16 0)
(-4.49793e-20 -9.87626e-16 0)
(-3.77129e-20 -9.87625e-16 0)
(-3.06156e-20 -9.87624e-16 0)
(-2.3685e-20 -9.87623e-16 0)
(-1.69436e-20 -9.87622e-16 0)
(-3.41721e-12 -9.9122e-16 0)
(-6.29627e-08 -5.2405e-07 0)
(6.04458e-07 -0.00042397 0)
(-3.52192e-21 -9.87798e-16 0)
(-1.05016e-20 -9.87798e-16 0)
(-1.73516e-20 -9.87797e-16 0)
(-2.40683e-20 -9.87795e-16 0)
(-3.06456e-20 -9.87793e-16 0)
(-3.70746e-20 -9.87791e-16 0)
(-4.33426e-20 -9.87788e-16 0)
(-4.94322e-20 -9.87785e-16 0)
(-5.53213e-20 -9.87782e-16 0)
(-6.09818e-20 -9.87778e-16 0)
(-6.63796e-20 -9.87773e-16 0)
(-7.1474e-20 -9.87768e-16 0)
(-7.62175e-20 -9.87763e-16 0)
(-8.05564e-20 -9.87757e-16 0)
(-8.44307e-20 -9.87751e-16 0)
(-8.7776e-20 -9.87744e-16 0)
(-9.05249e-20 -9.87737e-16 0)
(-9.26098e-20 -9.8773e-16 0)
(-9.39666e-20 -9.87722e-16 0)
(-9.45391e-20 -9.87714e-16 0)
(-9.42836e-20 -9.87706e-16 0)
(-9.31748e-20 -9.87699e-16 0)
(-9.12102e-20 -9.87691e-16 0)
(-8.84141e-20 -9.87684e-16 0)
(-8.48391e-20 -9.87677e-16 0)
(-8.05648e-20 -9.8767e-16 0)
(-7.56932e-20 -9.87664e-16 0)
(-7.03405e-20 -9.87659e-16 0)
(-6.46268e-20 -9.87655e-16 0)
(-5.86655e-20 -9.87651e-16 0)
(-5.25548e-20 -9.87648e-16 0)
(-4.63724e-20 -9.87646e-16 0)
(-4.01755e-20 -9.87644e-16 0)
(-3.40039e-20 -9.87642e-16 0)
(-2.78846e-20 -9.87641e-16 0)
(-2.18357e-20 -9.8764e-16 0)
(-1.58947e-20 -9.8764e-16 0)
(-3.81635e-12 -9.9158e-16 0)
(-7.35896e-08 -5.70784e-07 0)
(5.91037e-07 -0.00042892 0)
(-3.17605e-21 -9.87788e-16 0)
(-9.46612e-21 -9.87788e-16 0)
(-1.56271e-20 -9.87787e-16 0)
(-2.16484e-20 -9.87786e-16 0)
(-2.75181e-20 -9.87784e-16 0)
(-3.32224e-20 -9.87782e-16 0)
(-3.87447e-20 -9.87779e-16 0)
(-4.40651e-20 -9.87776e-16 0)
(-4.91604e-20 -9.87773e-16 0)
(-5.40034e-20 -9.87769e-16 0)
(-5.85632e-20 -9.87765e-16 0)
(-6.2805e-20 -9.8776e-16 0)
(-6.66902e-20 -9.87755e-16 0)
(-7.01776e-20 -9.8775e-16 0)
(-7.32239e-20 -9.87745e-16 0)
(-7.57849e-20 -9.87739e-16 0)
(-7.78176e-20 -9.87733e-16 0)
(-7.92819e-20 -9.87727e-16 0)
(-8.01431e-20 -9.8772e-16 0)
(-8.03747e-20 -9.87714e-16 0)
(-7.99607e-20 -9.87708e-16 0)
(-7.88977e-20 -9.87702e-16 0)
(-7.71972e-20 -9.87696e-16 0)
(-7.48855e-20 -9.8769e-16 0)
(-7.20039e-20 -9.87684e-16 0)
(-6.86064e-20 -9.8768e-16 0)
(-6.47568e-20 -9.87675e-16 0)
(-6.05245e-20 -9.87671e-16 0)
(-5.59798e-20 -9.87667e-16 0)
(-5.11902e-20 -9.87664e-16 0)
(-4.62165e-20 -9.87662e-16 0)
(-4.11118e-20 -9.8766e-16 0)
(-3.59202e-20 -9.87658e-16 0)
(-3.06782e-20 -9.87657e-16 0)
(-2.54155e-20 -9.87656e-16 0)
(-2.01563e-20 -9.87655e-16 0)
(-1.49455e-20 -9.87655e-16 0)
(-4.22495e-12 -9.91967e-16 0)
(-8.43689e-08 -6.23684e-07 0)
(5.81195e-07 -0.000433892 0)
(-2.84321e-21 -9.8778e-16 0)
(-8.47077e-21 -9.87779e-16 0)
(-1.39731e-20 -9.87778e-16 0)
(-1.93352e-20 -9.87777e-16 0)
(-2.45416e-20 -9.87775e-16 0)
(-2.95758e-20 -9.87773e-16 0)
(-3.44197e-20 -9.87771e-16 0)
(-3.90533e-20 -9.87768e-16 0)
(-4.34546e-20 -9.87765e-16 0)
(-4.75995e-20 -9.87762e-16 0)
(-5.14619e-20 -9.87758e-16 0)
(-5.50139e-20 -9.87754e-16 0)
(-5.82262e-20 -9.87749e-16 0)
(-6.1069e-20 -9.87745e-16 0)
(-6.35126e-20 -9.8774e-16 0)
(-6.55287e-20 -9.87735e-16 0)
(-6.70913e-20 -9.8773e-16 0)
(-6.81783e-20 -9.87725e-16 0)
(-6.87727e-20 -9.8772e-16 0)
(-6.88641e-20 -9.87714e-16 0)
(-6.84494e-20 -9.87709e-16 0)
(-6.75341e-20 -9.87704e-16 0)
(-6.61322e-20 -9.87699e-16 0)
(-6.4266e-20 -9.87695e-16 0)
(-6.19652e-20 -9.87691e-16 0)
(-5.92655e-20 -9.87687e-16 0)
(-5.62069e-20 -9.87683e-16 0)
(-5.28312e-20 -9.8768e-16 0)
(-4.91805e-20 -9.87678e-16 0)
(-4.52952e-20 -9.87675e-16 0)
(-4.1213e-20 -9.87673e-16 0)
(-3.69687e-20 -9.87672e-16 0)
(-3.25942e-20 -9.87671e-16 0)
(-2.81196e-20 -9.8767e-16 0)
(-2.35737e-20 -9.87669e-16 0)
(-1.89853e-20 -9.87669e-16 0)
(-1.44114e-20 -9.87668e-16 0)
(-4.99176e-12 -9.9261e-16 0)
(-9.52371e-08 -7.01986e-07 0)
(5.74481e-07 -0.000438913 0)
(-2.52918e-21 -9.87772e-16 0)
(-7.53262e-21 -9.87771e-16 0)
(-1.24173e-20 -9.87771e-16 0)
(-1.71658e-20 -9.87769e-16 0)
(-2.17609e-20 -9.87768e-16 0)
(-2.61851e-20 -9.87766e-16 0)
(-3.04206e-20 -9.87764e-16 0)
(-3.44487e-20 -9.87761e-16 0)
(-3.82498e-20 -9.87758e-16 0)
(-4.18036e-20 -9.87755e-16 0)
(-4.50894e-20 -9.87752e-16 0)
(-4.80858e-20 -9.87748e-16 0)
(-5.0772e-20 -9.87745e-16 0)
(-5.31275e-20 -9.87741e-16 0)
(-5.51334e-20 -9.87736e-16 0)
(-5.67726e-20 -9.87732e-16 0)
(-5.80313e-20 -9.87728e-16 0)
(-5.88987e-20 -9.87723e-16 0)
(-5.93685e-20 -9.87719e-16 0)
(-5.94392e-20 -9.87715e-16 0)
(-5.91143e-20 -9.8771e-16 0)
(-5.84021e-20 -9.87706e-16 0)
(-5.73161e-20 -9.87703e-16 0)
(-5.58735e-20 -9.87699e-16 0)
(-5.40951e-20 -9.87696e-16 0)
(-5.20035e-20 -9.87693e-16 0)
(-4.96222e-20 -9.8769e-16 0)
(-4.69743e-20 -9.87688e-16 0)
(-4.40816e-20 -9.87686e-16 0)
(-4.09638e-20 -9.87684e-16 0)
(-3.76385e-20 -9.87683e-16 0)
(-3.41219e-20 -9.87682e-16 0)
(-3.04299e-20 -9.87681e-16 0)
(-2.65802e-20 -9.87681e-16 0)
(-2.25941e-20 -9.8768e-16 0)
(-1.84998e-20 -9.8768e-16 0)
(-1.43673e-20 -9.8768e-16 0)
(-6.30375e-12 -9.93507e-16 0)
(-1.06249e-07 -8.06137e-07 0)
(5.70452e-07 -0.000444003 0)
(-2.23734e-21 -9.87765e-16 0)
(-6.66156e-21 -9.87765e-16 0)
(-1.09753e-20 -9.87764e-16 0)
(-1.51602e-20 -9.87763e-16 0)
(-1.91986e-20 -9.87761e-16 0)
(-2.30735e-20 -9.8776e-16 0)
(-2.67681e-20 -9.87758e-16 0)
(-3.02657e-20 -9.87755e-16 0)
(-3.35498e-20 -9.87753e-16 0)
(-3.6604e-20 -9.8775e-16 0)
(-3.94124e-20 -9.87747e-16 0)
(-4.19598e-20 -9.87744e-16 0)
(-4.4232e-20 -9.8774e-16 0)
(-4.62161e-20 -9.87737e-16 0)
(-4.79014e-20 -9.87733e-16 0)
(-4.9279e-20 -9.8773e-16 0)
(-5.03434e-20 -9.87726e-16 0)
(-5.10916e-20 -9.87722e-16 0)
(-5.15242e-20 -9.87718e-16 0)
(-5.16454e-20 -9.87715e-16 0)
(-5.14624e-20 -9.87711e-16 0)
(-5.09854e-20 -9.87708e-16 0)
(-5.02274e-20 -9.87705e-16 0)
(-4.92025e-20 -9.87702e-16 0)
(-4.79258e-20 -9.87699e-16 0)
(-4.64117e-20 -9.87697e-16 0)
(-4.46727e-20 -9.87695e-16 0)
(-4.27183e-20 -9.87693e-16 0)
(-4.05539e-20 -9.87692e-16 0)
(-3.81797e-20 -9.87691e-16 0)
(-3.55908e-20 -9.8769e-16 0)
(-3.27777e-20 -9.8769e-16 0)
(-2.97275e-20 -9.8769e-16 0)
(-2.64276e-20 -9.8769e-16 0)
(-2.28703e-20 -9.87691e-16 0)
(-1.90598e-20 -9.87691e-16 0)
(-1.50624e-20 -9.87692e-16 0)
(-8.02435e-12 -9.94678e-16 0)
(-1.17283e-07 -9.3042e-07 0)
(5.69148e-07 -0.000449182 0)
(-1.96919e-21 -9.87759e-16 0)
(-5.86178e-21 -9.87759e-16 0)
(-9.65326e-21 -9.87758e-16 0)
(-1.33253e-20 -9.87757e-16 0)
(-1.68609e-20 -9.87756e-16 0)
(-2.02441e-20 -9.87754e-16 0)
(-2.34596e-20 -9.87752e-16 0)
(-2.64932e-20 -9.8775e-16 0)
(-2.93313e-20 -9.87748e-16 0)
(-3.19611e-20 -9.87745e-16 0)
(-3.43712e-20 -9.87743e-16 0)
(-3.65511e-20 -9.8774e-16 0)
(-3.8492e-20 -9.87737e-16 0)
(-4.01871e-20 -9.87734e-16 0)
(-4.16315e-20 -9.87731e-16 0)
(-4.28227e-20 -9.87727e-16 0)
(-4.37609e-20 -9.87724e-16 0)
(-4.44489e-20 -9.87721e-16 0)
(-4.48926e-20 -9.87718e-16 0)
(-4.51004e-20 -9.87715e-16 0)
(-4.50831e-20 -9.87712e-16 0)
(-4.48539e-20 -9.87709e-16 0)
(-4.4427e-20 -9.87706e-16 0)
(-4.38175e-20 -9.87704e-16 0)
(-4.30399e-20 -9.87702e-16 0)
(-4.21069e-20 -9.877e-16 0)
(-4.10276e-20 -9.87698e-16 0)
(-3.98058e-20 -9.87697e-16 0)
(-3.84377e-20 -9.87696e-16 0)
(-3.69094e-20 -9.87696e-16 0)
(-3.51941e-20 -9.87696e-16 0)
(-3.32498e-20 -9.87696e-16 0)
(-3.10176e-20 -9.87697e-16 0)
(-2.84214e-20 -9.87698e-16 0)
(-2.53717e-20 -9.877e-16 0)
(-2.17751e-20 -9.87702e-16 0)
(-1.76142e-20 -9.87704e-16 0)
(-1.11697e-11 -9.96395e-16 0)
(-1.27641e-07 -1.08298e-06 0)
(5.71889e-07 -0.000454466 0)
(-1.72481e-21 -9.87754e-16 0)
(-5.13333e-21 -9.87753e-16 0)
(-8.45051e-21 -9.87753e-16 0)
(-1.16588e-20 -9.87752e-16 0)
(-1.47424e-20 -9.87751e-16 0)
(-1.76865e-20 -9.87749e-16 0)
(-2.0478e-20 -9.87747e-16 0)
(-2.31047e-20 -9.87746e-16 0)
(-2.55556e-20 -9.87744e-16 0)
(-2.78214e-20 -9.87741e-16 0)
(-2.98939e-20 -9.87739e-16 0)
(-3.17666e-20 -9.87736e-16 0)
(-3.34349e-20 -9.87734e-16 0)
(-3.48962e-20 -9.87731e-16 0)
(-3.61501e-20 -9.87728e-16 0)
(-3.71987e-20 -9.87726e-16 0)
(-3.80465e-20 -9.87723e-16 0)
(-3.87006e-20 -9.8772e-16 0)
(-3.91711e-20 -9.87717e-16 0)
(-3.94703e-20 -9.87714e-16 0)
(-3.96132e-20 -9.87712e-16 0)
(-3.9617e-20 -9.87709e-16 0)
(-3.95007e-20 -9.87707e-16 0)
(-3.92845e-20 -9.87705e-16 0)
(-3.8989e-20 -9.87703e-16 0)
(-3.86345e-20 -9.87702e-16 0)
(-3.82389e-20 -9.877e-16 0)
(-3.78161e-20 -9.87699e-16 0)
(-3.73725e-20 -9.87699e-16 0)
(-3.6903e-20 -9.87698e-16 0)
(-3.63845e-20 -9.87699e-16 0)
(-3.57668e-20 -9.877e-16 0)
(-3.49599e-20 -9.87701e-16 0)
(-3.38171e-20 -9.87704e-16 0)
(-3.2112e-20 -9.87707e-16 0)
(-2.95119e-20 -9.87711e-16 0)
(-2.56633e-20 -9.87716e-16 0)
(-2.14818e-11 -1.00058e-15 0)
(-1.35262e-07 -1.39581e-06 0)
(5.83135e-07 -0.000459874 0)
(-1.50335e-21 -9.87749e-16 0)
(-4.47352e-21 -9.87749e-16 0)
(-7.36202e-21 -9.87748e-16 0)
(-1.01526e-20 -9.87747e-16 0)
(-1.28305e-20 -9.87746e-16 0)
(-1.53828e-20 -9.87745e-16 0)
(-1.77979e-20 -9.87743e-16 0)
(-2.00657e-20 -9.87742e-16 0)
(-2.21776e-20 -9.8774e-16 0)
(-2.41265e-20 -9.87738e-16 0)
(-2.5907e-20 -9.87736e-16 0)
(-2.75155e-20 -9.87734e-16 0)
(-2.89504e-20 -9.87731e-16 0)
(-3.02121e-20 -9.87729e-16 0)
(-3.13032e-20 -9.87726e-16 0)
(-3.22286e-20 -9.87724e-16 0)
(-3.29959e-20 -9.87721e-16 0)
(-3.36152e-20 -9.87719e-16 0)
(-3.40994e-20 -9.87716e-16 0)
(-3.44641e-20 -9.87714e-16 0)
(-3.4728e-20 -9.87712e-16 0)
(-3.49126e-20 -9.87709e-16 0)
(-3.50427e-20 -9.87707e-16 0)
(-3.51463e-20 -9.87705e-16 0)
(-3.52548e-20 -9.87703e-16 0)
(-3.54035e-20 -9.87702e-16 0)
(-3.56312e-20 -9.877e-16 0)
(-3.59811e-20 -9.87699e-16 0)
(-3.64998e-20 -9.87698e-16 0)
(-3.72366e-20 -9.87698e-16 0)
(-3.82412e-20 -9.87698e-16 0)
(-3.95574e-20 -9.87699e-16 0)
(-4.12117e-20 -9.877e-16 0)
(-4.31904e-20 -9.87703e-16 0)
(-4.53963e-20 -9.87707e-16 0)
(-4.75688e-20 -9.87713e-16 0)
(-4.95411e-20 -9.87722e-16 0)
(-9.73369e-11 -1.03471e-15 0)
(-1.30819e-07 -3.83839e-06 0)
(6.20983e-07 -0.000465421 0)
(-1.30344e-21 -9.87745e-16 0)
(-3.87807e-21 -9.87745e-16 0)
(-6.38027e-21 -9.87744e-16 0)
(-8.7951e-21 -9.87743e-16 0)
(-1.11093e-20 -9.87742e-16 0)
(-1.33113e-20 -9.87741e-16 0)
(-1.5391e-20 -9.8774e-16 0)
(-1.734e-20 -9.87738e-16 0)
(-1.91514e-20 -9.87737e-16 0)
(-2.08201e-20 -9.87735e-16 0)
(-2.23424e-20 -9.87733e-16 0)
(-2.37167e-20 -9.87731e-16 0)
(-2.49431e-20 -9.87729e-16 0)
(-2.60237e-20 -9.87727e-16 0)
(-2.69629e-20 -9.87725e-16 0)
(-2.77669e-20 -9.87722e-16 0)
(-2.84448e-20 -9.8772e-16 0)
(-2.90078e-20 -9.87718e-16 0)
(-2.94698e-20 -9.87716e-16 0)
(-2.98478e-20 -9.87713e-16 0)
(-3.01616e-20 -9.87711e-16 0)
(-3.04348e-20 -9.87709e-16 0)
(-3.06949e-20 -9.87707e-16 0)
(-3.09744e-20 -9.87705e-16 0)
(-3.13115e-20 -9.87703e-16 0)
(-3.17522e-20 -9.87701e-16 0)
(-3.23526e-20 -9.87699e-16 0)
(-3.31823e-20 -9.87698e-16 0)
(-3.43299e-20 -9.87696e-16 0)
(-3.59114e-20 -9.87695e-16 0)
(-3.80823e-20 -9.87693e-16 0)
(-4.10581e-20 -9.87692e-16 0)
(-4.51448e-20 -9.87692e-16 0)
(-5.07903e-20 -9.87691e-16 0)
(-5.86658e-20 -9.87691e-16 0)
(-6.98012e-20 -9.87692e-16 0)
(-8.95703e-20 -9.87694e-16 0)
(-1.40095e-09 -1.51668e-15 0)
(-9.17944e-08 -1.64026e-05 0)
(7.21816e-07 -0.00047109 0)
(-1.12342e-21 -9.87741e-16 0)
(-3.34197e-21 -9.87741e-16 0)
(-5.49668e-21 -9.87741e-16 0)
(-7.57393e-21 -9.8774e-16 0)
(-9.56174e-21 -9.87739e-16 0)
(-1.14498e-20 -9.87738e-16 0)
(-1.32293e-20 -9.87737e-16 0)
(-1.48931e-20 -9.87736e-16 0)
(-1.64356e-20 -9.87734e-16 0)
(-1.78527e-20 -9.87732e-16 0)
(-1.9142e-20 -9.87731e-16 0)
(-2.03028e-20 -9.87729e-16 0)
(-2.1336e-20 -9.87727e-16 0)
(-2.22444e-20 -9.87725e-16 0)
(-2.30326e-20 -9.87723e-16 0)
(-2.37069e-20 -9.87721e-16 0)
(-2.4276e-20 -9.87719e-16 0)
(-2.47504e-20 -9.87717e-16 0)
(-2.51428e-20 -9.87715e-16 0)
(-2.54683e-20 -9.87713e-16 0)
(-2.57447e-20 -9.87711e-16 0)
(-2.59926e-20 -9.87708e-16 0)
(-2.62358e-20 -9.87706e-16 0)
(-2.65023e-20 -9.87704e-16 0)
(-2.68246e-20 -9.87702e-16 0)
(-2.72412e-20 -9.877e-16 0)
(-2.77981e-20 -9.87698e-16 0)
(-2.8551e-20 -9.87695e-16 0)
(-2.9568e-20 -9.87693e-16 0)
(-3.09341e-20 -9.87691e-16 0)
(-3.27556e-20 -9.87688e-16 0)
(-3.51677e-20 -9.87685e-16 0)
(-3.8342e-20 -9.87681e-16 0)
(-4.24963e-20 -9.87677e-16 0)
(-4.79036e-20 -9.87671e-16 0)
(-5.48967e-20 -9.87664e-16 0)
(-9.80917e-20 -9.87654e-16 0)
(-8.82029e-09 -3.18519e-15 0)
(-1.05409e-07 -3.32161e-05 0)
(7.33486e-07 -0.000476866 0)
(-9.61614e-22 -9.87738e-16 0)
(-2.86014e-21 -9.87738e-16 0)
(-4.70265e-21 -9.87738e-16 0)
(-6.47672e-21 -9.87737e-16 0)
(-8.17151e-21 -9.87736e-16 0)
(-9.77773e-21 -9.87735e-16 0)
(-1.12876e-20 -9.87734e-16 0)
(-1.26948e-20 -9.87733e-16 0)
(-1.39945e-20 -9.87732e-16 0)
(-1.51834e-20 -9.8773e-16 0)
(-1.62594e-20 -9.87729e-16 0)
(-1.72222e-20 -9.87727e-16 0)
(-1.80727e-20 -9.87725e-16 0)
(-1.88132e-20 -9.87724e-16 0)
(-1.94478e-20 -9.87722e-16 0)
(-1.99817e-20 -9.8772e-16 0)
(-2.04217e-20 -9.87718e-16 0)
(-2.07761e-20 -9.87716e-16 0)
(-2.10544e-20 -9.87714e-16 0)
(-2.12677e-20 -9.87712e-16 0)
(-2.14285e-20 -9.8771e-16 0)
(-2.15505e-20 -9.87708e-16 0)
(-2.1649e-20 -9.87706e-16 0)
(-2.17403e-20 -9.87704e-16 0)
(-2.18419e-20 -9.87702e-16 0)
(-2.19722e-20 -9.87699e-16 0)
(-2.21494e-20 -9.87697e-16 0)
(-2.23912e-20 -9.87694e-16 0)
(-2.27121e-20 -9.87691e-16 0)
(-2.31207e-20 -9.87688e-16 0)
(-2.36141e-20 -9.87685e-16 0)
(-2.41686e-20 -9.87681e-16 0)
(-2.47248e-20 -9.87676e-16 0)
(-2.51639e-20 -9.8767e-16 0)
(-2.52692e-20 -9.87663e-16 0)
(-2.46663e-20 -9.87655e-16 0)
(-5.96952e-20 -9.87644e-16 0)
(-3.32179e-09 -4.78982e-15 0)
(-2.13148e-07 -3.95367e-05 0)
(5.49602e-07 -0.000482814 0)
(-8.16429e-22 -9.87736e-16 0)
(-2.42781e-21 -9.87736e-16 0)
(-3.99019e-21 -9.87735e-16 0)
(-5.49219e-21 -9.87735e-16 0)
(-6.92392e-21 -9.87734e-16 0)
(-8.27693e-21 -9.87733e-16 0)
(-9.54415e-21 -9.87732e-16 0)
(-1.07198e-20 -9.87731e-16 0)
(-1.17996e-20 -9.8773e-16 0)
(-1.27804e-20 -9.87729e-16 0)
(-1.36601e-20 -9.87727e-16 0)
(-1.44383e-20 -9.87726e-16 0)
(-1.51152e-20 -9.87724e-16 0)
(-1.56925e-20 -9.87723e-16 0)
(-1.61727e-20 -9.87721e-16 0)
(-1.65593e-20 -9.87719e-16 0)
(-1.68568e-20 -9.87717e-16 0)
(-1.70703e-20 -9.87716e-16 0)
(-1.72054e-20 -9.87714e-16 0)
(-1.72683e-20 -9.87712e-16 0)
(-1.72654e-20 -9.8771e-16 0)
(-1.72029e-20 -9.87708e-16 0)
(-1.70864e-20 -9.87706e-16 0)
(-1.69206e-20 -9.87704e-16 0)
(-1.67084e-20 -9.87702e-16 0)
(-1.645e-20 -9.87699e-16 0)
(-1.61414e-20 -9.87697e-16 0)
(-1.57723e-20 -9.87694e-16 0)
(-1.5324e-20 -9.87691e-16 0)
(-1.47654e-20 -9.87688e-16 0)
(-1.40482e-20 -9.87685e-16 0)
(-1.3101e-20 -9.87681e-16 0)
(-1.18211e-20 -9.87677e-16 0)
(-1.00659e-20 -9.87672e-16 0)
(-7.64319e-21 -9.87667e-16 0)
(-4.30346e-21 -9.87662e-16 0)
(2.61406e-22 -9.87656e-16 0)
(2.75223e-20 -5.33319e-15 0)
(-2.69555e-07 -3.75774e-05 0)
(4.48052e-07 -0.000488914 0)
(-6.86433e-22 -9.87734e-16 0)
(-2.0407e-21 -9.87733e-16 0)
(-3.35219e-21 -9.87733e-16 0)
(-4.61044e-21 -9.87733e-16 0)
(-5.80633e-21 -9.87732e-16 0)
(-6.93206e-21 -9.87731e-16 0)
(-7.98107e-21 -9.8773e-16 0)
(-8.94801e-21 -9.87729e-16 0)
(-9.82865e-21 -9.87728e-16 0)
(-1.06199e-20 -9.87727e-16 0)
(-1.13196e-20 -9.87726e-16 0)
(-1.19266e-20 -9.87725e-16 0)
(-1.24406e-20 -9.87723e-16 0)
(-1.2862e-20 -9.87722e-16 0)
(-1.3192e-20 -9.8772e-16 0)
(-1.34322e-20 -9.87719e-16 0)
(-1.35846e-20 -9.87717e-16 0)
(-1.36514e-20 -9.87715e-16 0)
(-1.36348e-20 -9.87714e-16 0)
(-1.35365e-20 -9.87712e-16 0)
(-1.3358e-20 -9.8771e-16 0)
(-1.30994e-20 -9.87708e-16 0)
(-1.27597e-20 -9.87707e-16 0)
(-1.23358e-20 -9.87705e-16 0)
(-1.18219e-20 -9.87703e-16 0)
(-1.12088e-20 -9.877e-16 0)
(-1.0483e-20 -9.87698e-16 0)
(-9.62564e-21 -9.87696e-16 0)
(-8.61125e-21 -9.87693e-16 0)
(-7.40683e-21 -9.87691e-16 0)
(-5.9709e-21 -9.87688e-16 0)
(-4.2531e-21 -9.87685e-16 0)
(-2.19485e-21 -9.87682e-16 0)
(2.68217e-22 -9.87678e-16 0)
(3.20116e-21 -9.87675e-16 0)
(6.66039e-21 -9.87672e-16 0)
(1.06788e-20 -9.87669e-16 0)
(5.55857e-20 -5.69048e-15 0)
(-2.90438e-07 -3.34807e-05 0)
(3.98471e-07 -0.000495012 0)
(-5.70372e-22 -9.87732e-16 0)
(-1.69507e-21 -9.87732e-16 0)
(-2.78251e-21 -9.87731e-16 0)
(-3.82299e-21 -9.87731e-16 0)
(-4.80804e-21 -9.8773e-16 0)
(-5.73037e-21 -9.8773e-16 0)
(-6.5838e-21 -9.87729e-16 0)
(-7.36321e-21 -9.87728e-16 0)
(-8.06446e-21 -9.87727e-16 0)
(-8.68434e-21 -9.87726e-16 0)
(-9.22042e-21 -9.87725e-16 0)
(-9.67104e-21 -9.87724e-16 0)
(-1.00352e-20 -9.87723e-16 0)
(-1.03122e-20 -9.87721e-16 0)
(-1.05021e-20 -9.8772e-16 0)
(-1.06049e-20 -9.87718e-16 0)
(-1.06206e-20 -9.87717e-16 0)
(-1.05494e-20 -9.87716e-16 0)
(-1.03908e-20 -9.87714e-16 0)
(-1.01439e-20 -9.87712e-16 0)
(-9.80684e-21 -9.87711e-16 0)
(-9.37653e-21 -9.87709e-16 0)
(-8.84839e-21 -9.87708e-16 0)
(-8.21594e-21 -9.87706e-16 0)
(-7.4704e-21 -9.87704e-16 0)
(-6.60037e-21 -9.87702e-16 0)
(-5.59149e-21 -9.877e-16 0)
(-4.42627e-21 -9.87698e-16 0)
(-3.08416e-21 -9.87696e-16 0)
(-1.54191e-21 -9.87694e-16 0)
(2.25451e-22 -9.87692e-16 0)
(2.24279e-21 -9.8769e-16 0)
(4.53197e-21 -9.87688e-16 0)
(7.10726e-21 -9.87685e-16 0)
(9.96888e-21 -9.87683e-16 0)
(1.3094e-20 -9.87681e-16 0)
(1.64251e-20 -9.87679e-16 0)
(7.35741e-20 -6.06739e-15 0)
(-2.7766e-07 -2.8683e-05 0)
(3.56167e-07 -0.000500849 0)
(-4.6716e-22 -9.8773e-16 0)
(-1.38769e-21 -9.8773e-16 0)
(-2.27585e-21 -9.8773e-16 0)
(-3.12258e-21 -9.8773e-16 0)
(-3.91998e-21 -9.87729e-16 0)
(-4.66117e-21 -9.87728e-16 0)
(-5.34029e-21 -9.87728e-16 0)
(-5.95242e-21 -9.87727e-16 0)
(-6.49344e-21 -9.87726e-16 0)
(-6.96005e-21 -9.87725e-16 0)
(-7.3496e-21 -9.87724e-16 0)
(-7.66002e-21 -9.87723e-16 0)
(-7.88972e-21 -9.87722e-16 0)
(-8.03746e-21 -9.87721e-16 0)
(-8.10222e-21 -9.8772e-16 0)
(-8.08306e-21 -9.87718e-16 0)
(-7.97898e-21 -9.87717e-16 0)
(-7.78873e-21 -9.87716e-16 0)
(-7.51061e-21 -9.87715e-16 0)
(-7.14234e-21 -9.87713e-16 0)
(-6.6808e-21 -9.87712e-16 0)
(-6.12184e-21 -9.8771e-16 0)
(-5.46008e-21 -9.87709e-16 0)
(-4.68872e-21 -9.87707e-16 0)
(-3.79934e-21 -9.87706e-16 0)
(-2.78182e-21 -9.87704e-16 0)
(-1.62423e-21 -9.87703e-16 0)
(-3.12924e-22 -9.87701e-16 0)
(1.16737e-21 -9.877e-16 0)
(2.83316e-21 -9.87698e-16 0)
(4.70172e-21 -9.87697e-16 0)
(6.79034e-21 -9.87695e-16 0)
(9.11531e-21 -9.87694e-16 0)
(1.16906e-20 -9.87692e-16 0)
(1.45264e-20 -9.87691e-16 0)
(1.76264e-20 -9.8769e-16 0)
(2.09847e-20 -9.87689e-16 0)
(9.50973e-20 -6.4564e-15 0)
(-1.63781e-07 -2.36185e-05 0)
(3.16555e-07 -0.00050563 0)
(-3.75847e-22 -9.87729e-16 0)
(-1.11576e-21 -9.87729e-16 0)
(-1.82761e-21 -9.87729e-16 0)
(-2.50295e-21 -9.87728e-16 0)
(-3.13434e-21 -9.87728e-16 0)
(-3.71532e-21 -9.87727e-16 0)
(-4.2403e-21 -9.87727e-16 0)
(-4.70452e-21 -9.87726e-16 0)
(-5.10399e-21 -9.87725e-16 0)
(-5.43535e-21 -9.87725e-16 0)
(-5.69585e-21 -9.87724e-16 0)
(-5.88321e-21 -9.87723e-16 0)
(-5.99555e-21 -9.87722e-16 0)
(-6.03127e-21 -9.87721e-16 0)
(-5.98893e-21 -9.8772e-16 0)
(-5.86716e-21 -9.87719e-16 0)
(-5.66453e-21 -9.87718e-16 0)
(-5.37941e-21 -9.87716e-16 0)
(-5.00984e-21 -9.87715e-16 0)
(-4.55343e-21 -9.87714e-16 0)
(-4.00721e-21 -9.87713e-16 0)
(-3.36753e-21 -9.87712e-16 0)
(-2.62998e-21 -9.87711e-16 0)
(-1.78926e-21 -9.87709e-16 0)
(-8.3915e-22 -9.87708e-16 0)
(2.27512e-22 -9.87707e-16 0)
(1.41887e-21 -9.87706e-16 0)
(2.74405e-21 -9.87705e-16 0)
(4.21322e-21 -9.87704e-16 0)
(5.8377e-21 -9.87703e-16 0)
(7.6304e-21 -9.87702e-16 0)
(9.6066e-21 -9.87701e-16 0)
(1.17856e-20 -9.877e-16 0)
(1.41936e-20 -9.87699e-16 0)
(1.68695e-20 -9.87699e-16 0)
(1.98741e-20 -9.87699e-16 0)
(2.33061e-20 -9.87698e-16 0)
(1.12463e-19 -6.80245e-15 0)
(2.37434e-10 -1.90279e-05 0)
(2.74005e-07 -0.000508174 0)
(-2.95592e-22 -9.87728e-16 0)
(-8.76764e-22 -9.87728e-16 0)
(-1.43371e-21 -9.87728e-16 0)
(-1.95851e-21 -9.87728e-16 0)
(-2.44419e-21 -9.87727e-16 0)
(-2.88464e-21 -9.87727e-16 0)
(-3.27458e-21 -9.87726e-16 0)
(-3.60946e-21 -9.87726e-16 0)
(-3.88542e-21 -9.87725e-16 0)
(-4.09919e-21 -9.87724e-16 0)
(-4.24803e-21 -9.87723e-16 0)
(-4.32965e-21 -9.87723e-16 0)
(-4.34213e-21 -9.87722e-16 0)
(-4.2838e-21 -9.87721e-16 0)
(-4.15324e-21 -9.8772e-16 0)
(-3.94909e-21 -9.87719e-16 0)
(-3.67005e-21 -9.87718e-16 0)
(-3.31476e-21 -9.87717e-16 0)
(-2.88173e-21 -9.87716e-16 0)
(-2.36927e-21 -9.87715e-16 0)
(-1.77545e-21 -9.87714e-16 0)
(-1.09805e-21 -9.87713e-16 0)
(-3.34561e-22 -9.87712e-16 0)
(5.17855e-22 -9.87711e-16 0)
(1.46229e-21 -9.8771e-16 0)
(2.50202e-21 -9.87709e-16 0)
(3.64046e-21 -9.87709e-16 0)
(4.88096e-21 -9.87708e-16 0)
(6.22662e-21 -9.87707e-16 0)
(7.68011e-21 -9.87706e-16 0)
(9.24324e-21 -9.87706e-16 0)
(1.09165e-20 -9.87705e-16 0)
(1.26982e-20 -9.87705e-16 0)
(1.45831e-20 -9.87705e-16 0)
(1.65596e-20 -9.87705e-16 0)
(1.86051e-20 -9.87706e-16 0)
(2.06765e-20 -9.87706e-16 0)
(9.41887e-20 -7.01479e-15 0)
(1.71195e-10 -1.54465e-05 0)
(2.48889e-07 -0.000509235 0)
(-2.25632e-22 -9.87727e-16 0)
(-6.68446e-22 -9.87727e-16 0)
(-1.09043e-21 -9.87727e-16 0)
(-1.48417e-21 -9.87727e-16 0)
(-1.84313e-21 -9.87727e-16 0)
(-2.16156e-21 -9.87726e-16 0)
(-2.43449e-21 -9.87726e-16 0)
(-2.65762e-21 -9.87725e-16 0)
(-2.82728e-21 -9.87725e-16 0)
(-2.94036e-21 -9.87724e-16 0)
(-2.99427e-21 -9.87723e-16 0)
(-2.98685e-21 -9.87723e-16 0)
(-2.91631e-21 -9.87722e-16 0)
(-2.78119e-21 -9.87721e-16 0)
(-2.5803e-21 -9.8772e-16 0)
(-2.31262e-21 -9.8772e-16 0)
(-1.97734e-21 -9.87719e-16 0)
(-1.57371e-21 -9.87718e-16 0)
(-1.10111e-21 -9.87717e-16 0)
(-5.58957e-22 -9.87716e-16 0)
(5.32771e-23 -9.87716e-16 0)
(7.36055e-22 -9.87715e-16 0)
(1.48975e-21 -9.87714e-16 0)
(2.3146e-21 -9.87713e-16 0)
(3.2106e-21 -9.87712e-16 0)
(4.17744e-21 -9.87712e-16 0)
(5.21429e-21 -9.87711e-16 0)