/*--------------------------------*- C++ -*----------------------------------*\
  =========                 |
  \\      /  F ield         | OpenFOAM: The Open Source CFD Toolbox
   \\    /   O peration     | Website:  https://openfoam.org
    \\  /    A nd           | Version:  10
     \\/     M anipulation  |
\*---------------------------------------------------------------------------*/
FoamFile
{
    format      ascii;
    class       volScalarField;
    location    "1.85";
    object      p;
}
// * * * * * * * * * * * * * * * * * * * * * * * * * * * * * * * * * * * * * //

dimensions      [1 -1 -2 0 0 0 0];

internalField   nonuniform List<scalar> 
12225
(
1.67209e+07
1.66664e+07
1.65689e+07
1.64404e+07
1.62911e+07
1.61288e+07
1.5959e+07
1.57852e+07
1.56097e+07
1.54336e+07
1.52575e+07
1.50813e+07
1.49046e+07
1.47262e+07
1.45443e+07
1.43556e+07
1.41533e+07
1.39206e+07
1.67231e+07
1.66684e+07
1.65705e+07
1.64417e+07
1.62921e+07
1.61296e+07
1.59597e+07
1.57858e+07
1.56102e+07
1.54341e+07
1.5258e+07
1.5082e+07
1.49055e+07
1.47274e+07
1.45461e+07
1.43585e+07
1.41593e+07
1.39382e+07
1.6728e+07
1.66728e+07
1.65742e+07
1.64445e+07
1.62943e+07
1.61314e+07
1.59611e+07
1.5787e+07
1.56114e+07
1.54353e+07
1.52593e+07
1.50836e+07
1.49075e+07
1.47301e+07
1.455e+07
1.43648e+07
1.4171e+07
1.39648e+07
1.67362e+07
1.66801e+07
1.65802e+07
1.64493e+07
1.6298e+07
1.61343e+07
1.59635e+07
1.57891e+07
1.56132e+07
1.54372e+07
1.52615e+07
1.50861e+07
1.49107e+07
1.47345e+07
1.45563e+07
1.43745e+07
1.41875e+07
1.39959e+07
1.67483e+07
1.66909e+07
1.65891e+07
1.64563e+07
1.63034e+07
1.61385e+07
1.59669e+07
1.5792e+07
1.5616e+07
1.544e+07
1.52646e+07
1.50898e+07
1.49153e+07
1.47406e+07
1.45649e+07
1.43874e+07
1.4208e+07
1.40293e+07
1.67651e+07
1.67058e+07
1.66013e+07
1.64659e+07
1.63108e+07
1.61442e+07
1.59715e+07
1.57959e+07
1.56197e+07
1.54437e+07
1.52687e+07
1.50947e+07
1.49215e+07
1.47487e+07
1.45761e+07
1.44034e+07
1.42315e+07
1.40636e+07
1.67878e+07
1.67259e+07
1.66176e+07
1.64785e+07
1.63204e+07
1.61517e+07
1.59775e+07
1.58011e+07
1.56244e+07
1.54486e+07
1.5274e+07
1.51009e+07
1.49293e+07
1.47589e+07
1.45896e+07
1.4422e+07
1.42573e+07
1.40986e+07
1.68177e+07
1.6752e+07
1.66386e+07
1.64946e+07
1.63326e+07
1.6161e+07
1.59849e+07
1.58074e+07
1.56303e+07
1.54546e+07
1.52806e+07
1.51087e+07
1.49388e+07
1.4771e+07
1.46055e+07
1.44429e+07
1.42848e+07
1.41338e+07
1.68563e+07
1.67855e+07
1.66652e+07
1.65147e+07
1.63476e+07
1.61724e+07
1.5994e+07
1.58151e+07
1.56375e+07
1.54618e+07
1.52885e+07
1.51179e+07
1.495e+07
1.4785e+07
1.46233e+07
1.44657e+07
1.43136e+07
1.4169e+07
1.69058e+07
1.68278e+07
1.66981e+07
1.65392e+07
1.63657e+07
1.6186e+07
1.60047e+07
1.58242e+07
1.56458e+07
1.54703e+07
1.52978e+07
1.51286e+07
1.49629e+07
1.48009e+07
1.4643e+07
1.44901e+07
1.43434e+07
1.42043e+07
1.69692e+07
1.68809e+07
1.67383e+07
1.65685e+07
1.63869e+07
1.62018e+07
1.6017e+07
1.58346e+07
1.56554e+07
1.54799e+07
1.53084e+07
1.51408e+07
1.49774e+07
1.48184e+07
1.46643e+07
1.45158e+07
1.43738e+07
1.42395e+07
1.70437e+07
1.69414e+07
1.67827e+07
1.65999e+07
1.64091e+07
1.6218e+07
1.60295e+07
1.58451e+07
1.56651e+07
1.54898e+07
1.53191e+07
1.51531e+07
1.49918e+07
1.48356e+07
1.46848e+07
1.45401e+07
1.4402e+07
1.42715e+07
1.71355e+07
1.70132e+07
1.68334e+07
1.66346e+07
1.64331e+07
1.62352e+07
1.60427e+07
1.58561e+07
1.56754e+07
1.55002e+07
1.53304e+07
1.5166e+07
1.5007e+07
1.48535e+07
1.47059e+07
1.45646e+07
1.44301e+07
1.43029e+07
1.72711e+07
1.7113e+07
1.68998e+07
1.66779e+07
1.6462e+07
1.62555e+07
1.60581e+07
1.5869e+07
1.56874e+07
1.55126e+07
1.5344e+07
1.51815e+07
1.50251e+07
1.48746e+07
1.47304e+07
1.45928e+07
1.4462e+07
1.43382e+07
1.7482e+07
1.72517e+07
1.69835e+07
1.67287e+07
1.64943e+07
1.62774e+07
1.60746e+07
1.58829e+07
1.57007e+07
1.55265e+07
1.53595e+07
1.51994e+07
1.50459e+07
1.48988e+07
1.47583e+07
1.46245e+07
1.44973e+07
1.43771e+07
1.78382e+07
1.74367e+07
1.7077e+07
1.67789e+07
1.65235e+07
1.62964e+07
1.60888e+07
1.58954e+07
1.57133e+07
1.55406e+07
1.5376e+07
1.52188e+07
1.50687e+07
1.49254e+07
1.47888e+07
1.46589e+07
1.45355e+07
1.44188e+07
1.85273e+07
1.7622e+07
1.71373e+07
1.68018e+07
1.65335e+07
1.6302e+07
1.60936e+07
1.59015e+07
1.57217e+07
1.55519e+07
1.53909e+07
1.52377e+07
1.50917e+07
1.49527e+07
1.48204e+07
1.46946e+07
1.45751e+07
1.44619e+07
1.76789e+07
1.73437e+07
1.70179e+07
1.67373e+07
1.64934e+07
1.62757e+07
1.60769e+07
1.58923e+07
1.57191e+07
1.55554e+07
1.54001e+07
1.52524e+07
1.51117e+07
1.49778e+07
1.48503e+07
1.4729e+07
1.46137e+07
1.45042e+07
1.71098e+07
1.6973e+07
1.67852e+07
1.65868e+07
1.63923e+07
1.6206e+07
1.60287e+07
1.58599e+07
1.56989e+07
1.55454e+07
1.53987e+07
1.52586e+07
1.51247e+07
1.4997e+07
1.4875e+07
1.47588e+07
1.4648e+07
1.45426e+07
1.67853e+07
1.67072e+07
1.6583e+07
1.64362e+07
1.62806e+07
1.61231e+07
1.59674e+07
1.58152e+07
1.56674e+07
1.55245e+07
1.53866e+07
1.5254e+07
1.51267e+07
1.50045e+07
1.48875e+07
1.47757e+07
1.46688e+07
1.45667e+07
1.66e+07
1.6544e+07
1.64489e+07
1.63298e+07
1.61975e+07
1.60589e+07
1.59182e+07
1.5778e+07
1.56399e+07
1.55049e+07
1.53737e+07
1.52467e+07
1.51241e+07
1.50061e+07
1.48927e+07
1.47839e+07
1.46797e+07
1.45801e+07
1.64774e+07
1.64324e+07
1.63533e+07
1.6251e+07
1.61339e+07
1.60084e+07
1.58785e+07
1.57473e+07
1.56166e+07
1.54877e+07
1.53617e+07
1.5239e+07
1.51201e+07
1.50052e+07
1.48946e+07
1.47882e+07
1.46861e+07
1.45882e+07
1.63945e+07
1.63556e+07
1.6286e+07
1.61941e+07
1.60871e+07
1.59704e+07
1.58482e+07
1.57234e+07
1.55981e+07
1.54738e+07
1.53516e+07
1.52321e+07
1.5116e+07
1.50035e+07
1.48949e+07
1.47903e+07
1.46897e+07
1.45932e+07
1.63381e+07
1.63029e+07
1.62391e+07
1.61539e+07
1.60534e+07
1.59427e+07
1.58258e+07
1.57056e+07
1.55841e+07
1.54631e+07
1.53436e+07
1.52265e+07
1.51124e+07
1.50017e+07
1.48945e+07
1.47912e+07
1.46918e+07
1.45962e+07
1.62999e+07
1.62669e+07
1.62069e+07
1.6126e+07
1.60298e+07
1.59232e+07
1.58099e+07
1.56928e+07
1.5574e+07
1.54553e+07
1.53377e+07
1.52223e+07
1.51096e+07
1.50001e+07
1.4894e+07
1.47916e+07
1.46929e+07
1.4598e+07
1.62746e+07
1.6243e+07
1.61853e+07
1.61071e+07
1.60138e+07
1.59099e+07
1.57989e+07
1.56839e+07
1.5567e+07
1.54498e+07
1.53336e+07
1.52192e+07
1.51075e+07
1.49988e+07
1.48934e+07
1.47916e+07
1.46935e+07
1.45991e+07
1.62583e+07
1.62276e+07
1.61713e+07
1.60949e+07
1.60034e+07
1.59011e+07
1.57917e+07
1.56781e+07
1.55623e+07
1.54461e+07
1.53307e+07
1.52172e+07
1.51061e+07
1.49979e+07
1.4893e+07
1.47916e+07
1.46938e+07
1.45997e+07
1.62485e+07
1.62182e+07
1.61628e+07
1.60874e+07
1.5997e+07
1.58958e+07
1.57873e+07
1.56744e+07
1.55594e+07
1.54438e+07
1.5329e+07
1.52158e+07
1.51051e+07
1.49973e+07
1.48927e+07
1.47915e+07
1.4694e+07
1.46e+07
1.62431e+07
1.62132e+07
1.61582e+07
1.60834e+07
1.59935e+07
1.58928e+07
1.57849e+07
1.56725e+07
1.55578e+07
1.54425e+07
1.5328e+07
1.52151e+07
1.51046e+07
1.49969e+07
1.48925e+07
1.47915e+07
1.4694e+07
1.46002e+07
1.62409e+07
1.62111e+07
1.61563e+07
1.60817e+07
1.59921e+07
1.58916e+07
1.57839e+07
1.56716e+07
1.55571e+07
1.5442e+07
1.53276e+07
1.52148e+07
1.51044e+07
1.49968e+07
1.48924e+07
1.47914e+07
1.4694e+07
1.46003e+07
1.1373e+07
1.13707e+07
1.13659e+07
1.13587e+07
1.13488e+07
1.1336e+07
1.13202e+07
1.13011e+07
1.12783e+07
1.12512e+07
1.12193e+07
1.11816e+07
1.11366e+07
1.10819e+07
1.10135e+07
1.09259e+07
1.08548e+07
1.08385e+07
1.08323e+07
1.08258e+07
1.08203e+07
1.08146e+07
1.08093e+07
1.08043e+07
1.07995e+07
1.07947e+07
1.07899e+07
1.0785e+07
1.07803e+07
1.07757e+07
1.07711e+07
1.07667e+07
1.07623e+07
1.07581e+07
1.0754e+07
1.075e+07
1.07461e+07
1.07423e+07
1.07386e+07
1.07349e+07
1.07314e+07
1.0728e+07
1.07246e+07
1.07213e+07
1.0718e+07
1.07149e+07
1.07117e+07
1.07087e+07
1.07057e+07
1.07027e+07
1.06997e+07
1.06968e+07
1.0694e+07
1.06911e+07
1.06883e+07
1.06856e+07
1.06828e+07
1.06801e+07
1.06774e+07
1.06747e+07
1.0672e+07
1.06693e+07
1.06667e+07
1.0664e+07
1.06614e+07
1.06588e+07
1.06562e+07
1.06536e+07
1.0651e+07
1.06484e+07
1.06458e+07
1.06432e+07
1.06406e+07
1.0638e+07
1.06354e+07
1.06328e+07
1.06302e+07
1.06276e+07
1.0625e+07
1.06224e+07
1.06198e+07
1.06171e+07
1.06145e+07
1.06119e+07
1.06092e+07
1.06065e+07
1.06039e+07
1.06012e+07
1.05985e+07
1.05958e+07
1.05931e+07
1.05903e+07
1.05876e+07
1.05848e+07
1.0582e+07
1.05793e+07
1.05764e+07
1.05736e+07
1.05708e+07
1.05679e+07
1.05651e+07
1.05622e+07
1.05593e+07
1.05563e+07
1.05534e+07
1.05504e+07
1.05474e+07
1.05444e+07
1.05414e+07
1.05383e+07
1.05353e+07
1.05322e+07
1.05291e+07
1.05259e+07
1.05228e+07
1.05196e+07
1.05164e+07
1.05132e+07
1.05099e+07
1.05067e+07
1.05034e+07
1.05001e+07
1.04967e+07
1.04933e+07
1.049e+07
1.04865e+07
1.04831e+07
1.04796e+07
1.04761e+07
1.04726e+07
1.0469e+07
1.04655e+07
1.04619e+07
1.04582e+07
1.04546e+07
1.04509e+07
1.04472e+07
1.04434e+07
1.04397e+07
1.04359e+07
1.0432e+07
1.04282e+07
1.04243e+07
1.04204e+07
1.04164e+07
1.04124e+07
1.04084e+07
1.04044e+07
1.04003e+07
1.03962e+07
1.03921e+07
1.03879e+07
1.03837e+07
1.03795e+07
1.03752e+07
1.03709e+07
1.03666e+07
1.03622e+07
1.03578e+07
1.03534e+07
1.03489e+07
1.03444e+07
1.03399e+07
1.03353e+07
1.03307e+07
1.0326e+07
1.03214e+07
1.03167e+07
1.03119e+07
1.03071e+07
1.03023e+07
1.02975e+07
1.02926e+07
1.02877e+07
1.02827e+07
1.02778e+07
1.02728e+07
1.02678e+07
1.02628e+07
1.02579e+07
1.13837e+07
1.13813e+07
1.13766e+07
1.13695e+07
1.13597e+07
1.13473e+07
1.13319e+07
1.13135e+07
1.12918e+07
1.12665e+07
1.12374e+07
1.12042e+07
1.11666e+07
1.11244e+07
1.10782e+07
1.10302e+07
1.09869e+07
1.09522e+07
1.09198e+07
1.08786e+07
1.08254e+07
1.08134e+07
1.08079e+07
1.08037e+07
1.07993e+07
1.07947e+07
1.07899e+07
1.07847e+07
1.07798e+07
1.07753e+07
1.07708e+07
1.07663e+07
1.0762e+07
1.07577e+07
1.07536e+07
1.07496e+07
1.07457e+07
1.07419e+07
1.07383e+07
1.07347e+07
1.07312e+07
1.07277e+07
1.07244e+07
1.07211e+07
1.07179e+07
1.07147e+07
1.07116e+07
1.07085e+07
1.07055e+07
1.07025e+07
1.06996e+07
1.06967e+07
1.06939e+07
1.0691e+07
1.06882e+07
1.06855e+07
1.06827e+07
1.068e+07
1.06773e+07
1.06746e+07
1.06719e+07
1.06693e+07
1.06666e+07
1.0664e+07
1.06614e+07
1.06587e+07
1.06561e+07
1.06535e+07
1.06509e+07
1.06483e+07
1.06458e+07
1.06432e+07
1.06406e+07
1.0638e+07
1.06354e+07
1.06328e+07
1.06302e+07
1.06276e+07
1.0625e+07
1.06224e+07
1.06198e+07
1.06171e+07
1.06145e+07
1.06118e+07
1.06092e+07
1.06065e+07
1.06039e+07
1.06012e+07
1.05985e+07
1.05958e+07
1.05931e+07
1.05903e+07
1.05876e+07
1.05848e+07
1.0582e+07
1.05792e+07
1.05764e+07
1.05736e+07
1.05708e+07
1.05679e+07
1.0565e+07
1.05622e+07
1.05592e+07
1.05563e+07
1.05534e+07
1.05504e+07
1.05474e+07
1.05444e+07
1.05414e+07
1.05383e+07
1.05353e+07
1.05322e+07
1.05291e+07
1.05259e+07
1.05228e+07
1.05196e+07
1.05164e+07
1.05132e+07
1.05099e+07
1.05067e+07
1.05034e+07
1.05001e+07
1.04967e+07
1.04933e+07
1.04899e+07
1.04865e+07
1.04831e+07
1.04796e+07
1.04761e+07
1.04726e+07
1.0469e+07
1.04655e+07
1.04619e+07
1.04582e+07
1.04546e+07
1.04509e+07
1.04472e+07
1.04434e+07
1.04397e+07
1.04359e+07
1.0432e+07
1.04282e+07
1.04243e+07
1.04204e+07
1.04164e+07
1.04124e+07
1.04084e+07
1.04044e+07
1.04003e+07
1.03962e+07
1.03921e+07
1.03879e+07
1.03837e+07
1.03795e+07
1.03752e+07
1.03709e+07
1.03666e+07
1.03622e+07
1.03578e+07
1.03534e+07
1.03489e+07
1.03444e+07
1.03399e+07
1.03353e+07
1.03307e+07
1.0326e+07
1.03214e+07
1.03166e+07
1.03119e+07
1.03071e+07
1.03023e+07
1.02975e+07
1.02926e+07
1.02877e+07
1.02827e+07
1.02778e+07
1.02728e+07
1.02678e+07
1.02628e+07
1.02578e+07
1.14035e+07
1.14013e+07
1.13968e+07
1.139e+07
1.13808e+07
1.1369e+07
1.13546e+07
1.13375e+07
1.13176e+07
1.12947e+07
1.1269e+07
1.12403e+07
1.12088e+07
1.1175e+07
1.11395e+07
1.11037e+07
1.10691e+07
1.10369e+07
1.10066e+07
1.0978e+07
1.09539e+07
1.09426e+07
1.09475e+07
1.0936e+07
1.09098e+07
1.08664e+07
1.07987e+07
1.0783e+07
1.07786e+07
1.07746e+07
1.07703e+07
1.07655e+07
1.07611e+07
1.0757e+07
1.07529e+07
1.07489e+07
1.07451e+07
1.07413e+07
1.07377e+07
1.07341e+07
1.07306e+07
1.07272e+07
1.07239e+07
1.07207e+07
1.07175e+07
1.07143e+07
1.07113e+07
1.07082e+07
1.07052e+07
1.07023e+07
1.06994e+07
1.06965e+07
1.06937e+07
1.06908e+07
1.06881e+07
1.06853e+07
1.06826e+07
1.06798e+07
1.06772e+07
1.06745e+07
1.06718e+07
1.06692e+07
1.06665e+07
1.06639e+07
1.06613e+07
1.06587e+07
1.06561e+07
1.06535e+07
1.06509e+07
1.06483e+07
1.06457e+07
1.06431e+07
1.06405e+07
1.06379e+07
1.06353e+07
1.06327e+07
1.06302e+07
1.06276e+07
1.06249e+07
1.06223e+07
1.06197e+07
1.06171e+07
1.06145e+07
1.06118e+07
1.06092e+07
1.06065e+07
1.06038e+07
1.06012e+07
1.05985e+07
1.05958e+07
1.0593e+07
1.05903e+07
1.05876e+07
1.05848e+07
1.0582e+07
1.05792e+07
1.05764e+07
1.05736e+07
1.05708e+07
1.05679e+07
1.0565e+07
1.05621e+07
1.05592e+07
1.05563e+07
1.05534e+07
1.05504e+07
1.05474e+07
1.05444e+07
1.05414e+07
1.05383e+07
1.05353e+07
1.05322e+07
1.05291e+07
1.05259e+07
1.05228e+07
1.05196e+07
1.05164e+07
1.05132e+07
1.05099e+07
1.05067e+07
1.05034e+07
1.05e+07
1.04967e+07
1.04933e+07
1.04899e+07
1.04865e+07
1.04831e+07
1.04796e+07
1.04761e+07
1.04726e+07
1.0469e+07
1.04655e+07
1.04619e+07
1.04582e+07
1.04546e+07
1.04509e+07
1.04472e+07
1.04434e+07
1.04397e+07
1.04359e+07
1.0432e+07
1.04282e+07
1.04243e+07
1.04204e+07
1.04164e+07
1.04124e+07
1.04084e+07
1.04044e+07
1.04003e+07
1.03962e+07
1.03921e+07
1.03879e+07
1.03837e+07
1.03795e+07
1.03752e+07
1.03709e+07
1.03666e+07
1.03622e+07
1.03578e+07
1.03534e+07
1.03489e+07
1.03444e+07
1.03399e+07
1.03353e+07
1.03307e+07
1.0326e+07
1.03214e+07
1.03166e+07
1.03119e+07
1.03071e+07
1.03023e+07
1.02975e+07
1.02926e+07
1.02877e+07
1.02827e+07
1.02778e+07
1.02728e+07
1.02678e+07
1.02628e+07
1.02578e+07
1.14324e+07
1.14303e+07
1.14261e+07
1.14198e+07
1.14112e+07
1.14004e+07
1.13873e+07
1.13718e+07
1.1354e+07
1.13338e+07
1.13112e+07
1.12866e+07
1.126e+07
1.12318e+07
1.12026e+07
1.1173e+07
1.11437e+07
1.11154e+07
1.10884e+07
1.10632e+07
1.10407e+07
1.10216e+07
1.10047e+07
1.09848e+07
1.096e+07
1.09306e+07
1.08997e+07
1.08778e+07
1.08644e+07
1.08322e+07
1.07769e+07
1.07635e+07
1.07596e+07
1.07559e+07
1.07517e+07
1.07478e+07
1.0744e+07
1.07404e+07
1.07368e+07
1.07333e+07
1.07299e+07
1.07266e+07
1.07233e+07
1.07201e+07
1.07169e+07
1.07138e+07
1.07108e+07
1.07078e+07
1.07048e+07
1.07019e+07
1.0699e+07
1.06962e+07
1.06933e+07
1.06906e+07
1.06878e+07
1.0685e+07
1.06823e+07
1.06796e+07
1.06769e+07
1.06743e+07
1.06716e+07
1.0669e+07
1.06664e+07
1.06637e+07
1.06611e+07
1.06585e+07
1.06559e+07
1.06533e+07
1.06508e+07
1.06482e+07
1.06456e+07
1.0643e+07
1.06404e+07
1.06379e+07
1.06353e+07
1.06327e+07
1.06301e+07
1.06275e+07
1.06249e+07
1.06223e+07
1.06197e+07
1.0617e+07
1.06144e+07
1.06118e+07
1.06091e+07
1.06065e+07
1.06038e+07
1.06011e+07
1.05984e+07
1.05957e+07
1.0593e+07
1.05903e+07
1.05875e+07
1.05848e+07
1.0582e+07
1.05792e+07
1.05764e+07
1.05736e+07
1.05708e+07
1.05679e+07
1.0565e+07
1.05621e+07
1.05592e+07
1.05563e+07
1.05534e+07
1.05504e+07
1.05474e+07
1.05444e+07
1.05414e+07
1.05383e+07
1.05353e+07
1.05322e+07
1.05291e+07
1.05259e+07
1.05228e+07
1.05196e+07
1.05164e+07
1.05132e+07
1.05099e+07
1.05067e+07
1.05034e+07
1.05e+07
1.04967e+07
1.04933e+07
1.04899e+07
1.04865e+07
1.04831e+07
1.04796e+07
1.04761e+07
1.04726e+07
1.0469e+07
1.04655e+07
1.04619e+07
1.04582e+07
1.04546e+07
1.04509e+07
1.04472e+07
1.04434e+07
1.04397e+07
1.04359e+07
1.0432e+07
1.04282e+07
1.04243e+07
1.04204e+07
1.04164e+07
1.04124e+07
1.04084e+07
1.04044e+07
1.04003e+07
1.03962e+07
1.03921e+07
1.03879e+07
1.03837e+07
1.03795e+07
1.03752e+07
1.03709e+07
1.03666e+07
1.03622e+07
1.03578e+07
1.03534e+07
1.03489e+07
1.03444e+07
1.03398e+07
1.03353e+07
1.03307e+07
1.0326e+07
1.03214e+07
1.03166e+07
1.03119e+07
1.03071e+07
1.03023e+07
1.02974e+07
1.02926e+07
1.02877e+07
1.02827e+07
1.02777e+07
1.02727e+07
1.02677e+07
1.02627e+07
1.02577e+07
1.14697e+07
1.14677e+07
1.14638e+07
1.1458e+07
1.14502e+07
1.14404e+07
1.14285e+07
1.14145e+07
1.13985e+07
1.13806e+07
1.13607e+07
1.13392e+07
1.1316e+07
1.12917e+07
1.12664e+07
1.12405e+07
1.12145e+07
1.11888e+07
1.11636e+07
1.11392e+07
1.11157e+07
1.10932e+07
1.10709e+07
1.10478e+07
1.10232e+07
1.09971e+07
1.09707e+07
1.09453e+07
1.092e+07
1.08914e+07
1.08601e+07
1.08333e+07
1.08064e+07
1.07577e+07
1.07496e+07
1.07464e+07
1.07427e+07
1.07391e+07
1.07356e+07
1.07322e+07
1.07289e+07
1.07256e+07
1.07224e+07
1.07193e+07
1.07162e+07
1.07132e+07
1.07102e+07
1.07072e+07
1.07043e+07
1.07014e+07
1.06986e+07
1.06957e+07
1.06929e+07
1.06902e+07
1.06874e+07
1.06847e+07
1.0682e+07
1.06793e+07
1.06767e+07
1.0674e+07
1.06714e+07
1.06688e+07
1.06662e+07
1.06635e+07
1.0661e+07
1.06584e+07
1.06558e+07
1.06532e+07
1.06506e+07
1.0648e+07
1.06455e+07
1.06429e+07
1.06403e+07
1.06377e+07
1.06352e+07
1.06326e+07
1.063e+07
1.06274e+07
1.06248e+07
1.06222e+07
1.06196e+07
1.0617e+07
1.06144e+07
1.06117e+07
1.06091e+07
1.06064e+07
1.06038e+07
1.06011e+07
1.05984e+07
1.05957e+07
1.0593e+07
1.05902e+07
1.05875e+07
1.05847e+07
1.0582e+07
1.05792e+07
1.05764e+07
1.05736e+07
1.05707e+07
1.05679e+07
1.0565e+07
1.05621e+07
1.05592e+07
1.05563e+07
1.05533e+07
1.05504e+07
1.05474e+07
1.05444e+07
1.05414e+07
1.05383e+07
1.05352e+07
1.05322e+07
1.05291e+07
1.05259e+07
1.05228e+07
1.05196e+07
1.05164e+07
1.05132e+07
1.05099e+07
1.05067e+07
1.05034e+07
1.05e+07
1.04967e+07
1.04933e+07
1.04899e+07
1.04865e+07
1.04831e+07
1.04796e+07
1.04761e+07
1.04726e+07
1.0469e+07
1.04655e+07
1.04619e+07
1.04582e+07
1.04546e+07
1.04509e+07
1.04472e+07
1.04434e+07
1.04396e+07
1.04358e+07
1.0432e+07
1.04282e+07
1.04243e+07
1.04203e+07
1.04164e+07
1.04124e+07
1.04084e+07
1.04044e+07
1.04003e+07
1.03962e+07
1.03921e+07
1.03879e+07
1.03837e+07
1.03794e+07
1.03752e+07
1.03709e+07
1.03666e+07
1.03622e+07
1.03578e+07
1.03534e+07
1.03489e+07
1.03444e+07
1.03398e+07
1.03353e+07
1.03307e+07
1.0326e+07
1.03213e+07
1.03166e+07
1.03119e+07
1.03071e+07
1.03023e+07
1.02974e+07
1.02926e+07
1.02876e+07
1.02827e+07
1.02777e+07
1.02727e+07
1.02677e+07
1.02627e+07
1.02576e+07
1.15147e+07
1.15128e+07
1.15092e+07
1.15039e+07
1.14967e+07
1.14877e+07
1.14768e+07
1.14641e+07
1.14497e+07
1.14335e+07
1.14157e+07
1.13963e+07
1.13756e+07
1.13537e+07
1.13309e+07
1.13074e+07
1.12834e+07
1.12592e+07
1.1235e+07
1.12108e+07
1.11868e+07
1.11629e+07
1.11388e+07
1.11143e+07
1.1089e+07
1.10631e+07
1.10367e+07
1.10099e+07
1.09826e+07
1.09542e+07
1.09249e+07
1.08954e+07
1.08647e+07
1.08312e+07
1.0799e+07
1.07571e+07
1.07408e+07
1.07376e+07
1.07342e+07
1.07309e+07
1.07277e+07
1.07245e+07
1.07214e+07
1.07183e+07
1.07153e+07
1.07123e+07
1.07094e+07
1.07065e+07
1.07036e+07
1.07008e+07
1.0698e+07
1.06952e+07
1.06924e+07
1.06897e+07
1.0687e+07
1.06843e+07
1.06816e+07
1.0679e+07
1.06763e+07
1.06737e+07
1.06711e+07
1.06685e+07
1.06659e+07
1.06633e+07
1.06607e+07
1.06582e+07
1.06556e+07
1.0653e+07
1.06504e+07
1.06479e+07
1.06453e+07
1.06428e+07
1.06402e+07
1.06376e+07
1.06351e+07
1.06325e+07
1.06299e+07
1.06273e+07
1.06247e+07
1.06221e+07
1.06195e+07
1.06169e+07
1.06143e+07
1.06117e+07
1.0609e+07
1.06064e+07
1.06037e+07
1.0601e+07
1.05983e+07
1.05956e+07
1.05929e+07
1.05902e+07
1.05875e+07
1.05847e+07
1.05819e+07
1.05792e+07
1.05764e+07
1.05735e+07
1.05707e+07
1.05679e+07
1.0565e+07
1.05621e+07
1.05592e+07
1.05563e+07
1.05533e+07
1.05504e+07
1.05474e+07
1.05444e+07
1.05413e+07
1.05383e+07
1.05352e+07
1.05322e+07
1.0529e+07
1.05259e+07
1.05228e+07
1.05196e+07
1.05164e+07
1.05132e+07
1.05099e+07
1.05066e+07
1.05034e+07
1.05e+07
1.04967e+07
1.04933e+07
1.04899e+07
1.04865e+07
1.04831e+07
1.04796e+07
1.04761e+07
1.04726e+07
1.0469e+07
1.04655e+07
1.04619e+07
1.04582e+07
1.04546e+07
1.04509e+07
1.04472e+07
1.04434e+07
1.04396e+07
1.04358e+07
1.0432e+07
1.04282e+07
1.04243e+07
1.04203e+07
1.04164e+07
1.04124e+07
1.04084e+07
1.04044e+07
1.04003e+07
1.03962e+07
1.0392e+07
1.03879e+07
1.03837e+07
1.03794e+07
1.03752e+07
1.03709e+07
1.03665e+07
1.03622e+07
1.03578e+07
1.03533e+07
1.03489e+07
1.03444e+07
1.03398e+07
1.03353e+07
1.03307e+07
1.0326e+07
1.03213e+07
1.03166e+07
1.03119e+07
1.03071e+07
1.03023e+07
1.02974e+07
1.02925e+07
1.02876e+07
1.02827e+07
1.02777e+07
1.02727e+07
1.02677e+07
1.02626e+07
1.02575e+07
1.15667e+07
1.1565e+07
1.15616e+07
1.15566e+07
1.15499e+07
1.15415e+07
1.15314e+07
1.15197e+07
1.15064e+07
1.14915e+07
1.14751e+07
1.14573e+07
1.14382e+07
1.14179e+07
1.13967e+07
1.13746e+07
1.13518e+07
1.13285e+07
1.13048e+07
1.12808e+07
1.12565e+07
1.12318e+07
1.12069e+07
1.11814e+07
1.11554e+07
1.11289e+07
1.11017e+07
1.10741e+07
1.10458e+07
1.10168e+07
1.09871e+07
1.09567e+07
1.09254e+07
1.08932e+07
1.08601e+07
1.08255e+07
1.07911e+07
1.07473e+07
1.07325e+07
1.07295e+07
1.07263e+07
1.07232e+07
1.07202e+07
1.07172e+07
1.07143e+07
1.07114e+07
1.07085e+07
1.07057e+07
1.07029e+07
1.07001e+07
1.06973e+07
1.06946e+07
1.06919e+07
1.06892e+07
1.06865e+07
1.06838e+07
1.06812e+07
1.06786e+07
1.0676e+07
1.06733e+07
1.06708e+07
1.06682e+07
1.06656e+07
1.0663e+07
1.06605e+07
1.06579e+07
1.06553e+07
1.06528e+07
1.06502e+07
1.06477e+07
1.06451e+07
1.06426e+07
1.064e+07
1.06375e+07
1.06349e+07
1.06323e+07
1.06298e+07
1.06272e+07
1.06246e+07
1.0622e+07
1.06194e+07
1.06168e+07
1.06142e+07
1.06116e+07
1.06089e+07
1.06063e+07
1.06036e+07
1.0601e+07
1.05983e+07
1.05956e+07
1.05929e+07
1.05902e+07
1.05874e+07
1.05847e+07
1.05819e+07
1.05791e+07
1.05763e+07
1.05735e+07
1.05707e+07
1.05678e+07
1.0565e+07
1.05621e+07
1.05592e+07
1.05562e+07
1.05533e+07
1.05503e+07
1.05474e+07
1.05444e+07
1.05413e+07
1.05383e+07
1.05352e+07
1.05321e+07
1.0529e+07
1.05259e+07
1.05227e+07
1.05196e+07
1.05164e+07
1.05132e+07
1.05099e+07
1.05066e+07
1.05033e+07
1.05e+07
1.04967e+07
1.04933e+07
1.04899e+07
1.04865e+07
1.04831e+07
1.04796e+07
1.04761e+07
1.04726e+07
1.0469e+07
1.04654e+07
1.04618e+07
1.04582e+07
1.04546e+07
1.04509e+07
1.04472e+07
1.04434e+07
1.04396e+07
1.04358e+07
1.0432e+07
1.04282e+07
1.04243e+07
1.04203e+07
1.04164e+07
1.04124e+07
1.04084e+07
1.04044e+07
1.04003e+07
1.03962e+07
1.0392e+07
1.03879e+07
1.03837e+07
1.03794e+07
1.03752e+07
1.03709e+07
1.03665e+07
1.03622e+07
1.03578e+07
1.03533e+07
1.03489e+07
1.03444e+07
1.03398e+07
1.03353e+07
1.03307e+07
1.0326e+07
1.03213e+07
1.03166e+07
1.03119e+07
1.03071e+07
1.03023e+07
1.02974e+07
1.02925e+07
1.02876e+07
1.02827e+07
1.02777e+07
1.02727e+07
1.02676e+07
1.02625e+07
1.02574e+07
1.16252e+07
1.16235e+07
1.16203e+07
1.16155e+07
1.16092e+07
1.16012e+07
1.15917e+07
1.15806e+07
1.15681e+07
1.1554e+07
1.15385e+07
1.15217e+07
1.15036e+07
1.14843e+07
1.1464e+07
1.14427e+07
1.14206e+07
1.13977e+07
1.13743e+07
1.13502e+07
1.13256e+07
1.13005e+07
1.12749e+07
1.12487e+07
1.12219e+07
1.11946e+07
1.11667e+07
1.11382e+07
1.1109e+07
1.10792e+07
1.10488e+07
1.10177e+07
1.09858e+07
1.09532e+07
1.09199e+07
1.08858e+07
1.08509e+07
1.08146e+07
1.07784e+07
1.07313e+07
1.07245e+07
1.07217e+07
1.07188e+07
1.0716e+07
1.07131e+07
1.07103e+07
1.07075e+07
1.07047e+07
1.0702e+07
1.06993e+07
1.06966e+07
1.06939e+07
1.06912e+07
1.06885e+07
1.06859e+07
1.06833e+07
1.06807e+07
1.06781e+07
1.06755e+07
1.06729e+07
1.06704e+07
1.06678e+07
1.06653e+07
1.06627e+07
1.06602e+07
1.06576e+07
1.06551e+07
1.06525e+07
1.065e+07
1.06475e+07
1.06449e+07
1.06424e+07
1.06398e+07
1.06373e+07
1.06348e+07
1.06322e+07
1.06296e+07
1.06271e+07
1.06245e+07
1.06219e+07
1.06193e+07
1.06167e+07
1.06141e+07
1.06115e+07
1.06089e+07
1.06062e+07
1.06036e+07
1.06009e+07
1.05982e+07
1.05955e+07
1.05928e+07
1.05901e+07
1.05874e+07
1.05846e+07
1.05819e+07
1.05791e+07
1.05763e+07
1.05735e+07
1.05706e+07
1.05678e+07
1.05649e+07
1.0562e+07
1.05591e+07
1.05562e+07
1.05533e+07
1.05503e+07
1.05473e+07
1.05443e+07
1.05413e+07
1.05383e+07
1.05352e+07
1.05321e+07
1.0529e+07
1.05259e+07
1.05227e+07
1.05196e+07
1.05164e+07
1.05131e+07
1.05099e+07
1.05066e+07
1.05033e+07
1.05e+07
1.04967e+07
1.04933e+07
1.04899e+07
1.04865e+07
1.04831e+07
1.04796e+07
1.04761e+07
1.04726e+07
1.0469e+07
1.04654e+07
1.04618e+07
1.04582e+07
1.04546e+07
1.04509e+07
1.04472e+07
1.04434e+07
1.04396e+07
1.04358e+07
1.0432e+07
1.04281e+07
1.04243e+07
1.04203e+07
1.04164e+07
1.04124e+07
1.04084e+07
1.04044e+07
1.04003e+07
1.03962e+07
1.0392e+07
1.03879e+07
1.03837e+07
1.03794e+07
1.03752e+07
1.03709e+07
1.03665e+07
1.03622e+07
1.03578e+07
1.03533e+07
1.03489e+07
1.03444e+07
1.03398e+07
1.03353e+07
1.03307e+07
1.0326e+07
1.03213e+07
1.03166e+07
1.03119e+07
1.03071e+07
1.03023e+07
1.02974e+07
1.02925e+07
1.02876e+07
1.02826e+07
1.02776e+07
1.02726e+07
1.02676e+07
1.02625e+07
1.02574e+07
1.16898e+07
1.16881e+07
1.1685e+07
1.16803e+07
1.16741e+07
1.16664e+07
1.16572e+07
1.16465e+07
1.16344e+07
1.16208e+07
1.16058e+07
1.15895e+07
1.15719e+07
1.15531e+07
1.15332e+07
1.15123e+07
1.14904e+07
1.14677e+07
1.14441e+07
1.14199e+07
1.13949e+07
1.13693e+07
1.1343e+07
1.13161e+07
1.12886e+07
1.12604e+07
1.12317e+07
1.12023e+07
1.11723e+07
1.11416e+07
1.11103e+07
1.10784e+07
1.10458e+07
1.10125e+07
1.09786e+07
1.09441e+07
1.09089e+07
1.0873e+07
1.08363e+07
1.07983e+07
1.07609e+07
1.07207e+07
1.07175e+07
1.07146e+07
1.07119e+07
1.07091e+07
1.07064e+07
1.07037e+07
1.0701e+07
1.06984e+07
1.06957e+07
1.06931e+07
1.06905e+07
1.06879e+07
1.06853e+07
1.06827e+07
1.06801e+07
1.06776e+07
1.0675e+07
1.06725e+07
1.06699e+07
1.06674e+07
1.06649e+07
1.06623e+07
1.06598e+07
1.06573e+07
1.06548e+07
1.06523e+07
1.06497e+07
1.06472e+07
1.06447e+07
1.06422e+07
1.06396e+07
1.06371e+07
1.06346e+07
1.0632e+07
1.06295e+07
1.06269e+07
1.06244e+07
1.06218e+07
1.06192e+07
1.06166e+07
1.0614e+07
1.06114e+07
1.06088e+07
1.06061e+07
1.06035e+07
1.06008e+07
1.05982e+07
1.05955e+07
1.05928e+07
1.059e+07
1.05873e+07
1.05846e+07
1.05818e+07
1.0579e+07
1.05762e+07
1.05734e+07
1.05706e+07
1.05678e+07
1.05649e+07
1.0562e+07
1.05591e+07
1.05562e+07
1.05533e+07
1.05503e+07
1.05473e+07
1.05443e+07
1.05413e+07
1.05383e+07
1.05352e+07
1.05321e+07
1.0529e+07
1.05259e+07
1.05227e+07
1.05195e+07
1.05164e+07
1.05131e+07
1.05099e+07
1.05066e+07
1.05033e+07
1.05e+07
1.04967e+07
1.04933e+07
1.04899e+07
1.04865e+07
1.04831e+07
1.04796e+07
1.04761e+07
1.04726e+07
1.0469e+07
1.04654e+07
1.04618e+07
1.04582e+07
1.04545e+07
1.04509e+07
1.04471e+07
1.04434e+07
1.04396e+07
1.04358e+07
1.0432e+07
1.04281e+07
1.04243e+07
1.04203e+07
1.04164e+07
1.04124e+07
1.04084e+07
1.04044e+07
1.04003e+07
1.03962e+07
1.0392e+07
1.03879e+07
1.03837e+07
1.03794e+07
1.03752e+07
1.03709e+07
1.03665e+07
1.03622e+07
1.03578e+07
1.03533e+07
1.03489e+07
1.03444e+07
1.03398e+07
1.03353e+07
1.03307e+07
1.0326e+07
1.03213e+07
1.03166e+07
1.03119e+07
1.03071e+07
1.03023e+07
1.02974e+07
1.02925e+07
1.02876e+07
1.02826e+07
1.02776e+07
1.02726e+07
1.02675e+07
1.02624e+07
1.02573e+07
1.17602e+07
1.17585e+07
1.17553e+07
1.17506e+07
1.17445e+07
1.17369e+07
1.17278e+07
1.17172e+07
1.17051e+07
1.16917e+07
1.16768e+07
1.16606e+07
1.16432e+07
1.16245e+07
1.16046e+07
1.15837e+07
1.15617e+07
1.15388e+07
1.15149e+07
1.14902e+07
1.14648e+07
1.14385e+07
1.14116e+07
1.13839e+07
1.13555e+07
1.13265e+07
1.12969e+07
1.12665e+07
1.12356e+07
1.1204e+07
1.11718e+07
1.11389e+07
1.11055e+07
1.10714e+07
1.10367e+07
1.10014e+07
1.09655e+07
1.0929e+07
1.08918e+07
1.08537e+07
1.08143e+07
1.07719e+07
1.07212e+07
1.07131e+07
1.07104e+07
1.07078e+07
1.07052e+07
1.07026e+07
1.07e+07
1.06974e+07
1.06948e+07
1.06922e+07
1.06897e+07
1.06871e+07
1.06846e+07
1.0682e+07
1.06795e+07
1.0677e+07
1.06745e+07
1.06719e+07
1.06694e+07
1.06669e+07
1.06644e+07
1.06619e+07
1.06594e+07
1.06569e+07
1.06545e+07
1.0652e+07
1.06495e+07
1.06469e+07
1.06444e+07
1.06419e+07
1.06394e+07
1.06369e+07
1.06344e+07
1.06318e+07
1.06293e+07
1.06268e+07
1.06242e+07
1.06216e+07
1.06191e+07
1.06165e+07
1.06139e+07
1.06113e+07
1.06087e+07
1.0606e+07
1.06034e+07
1.06007e+07
1.05981e+07
1.05954e+07
1.05927e+07
1.059e+07
1.05873e+07
1.05845e+07
1.05818e+07
1.0579e+07
1.05762e+07
1.05734e+07
1.05706e+07
1.05677e+07
1.05649e+07
1.0562e+07
1.05591e+07
1.05562e+07
1.05532e+07
1.05503e+07
1.05473e+07
1.05443e+07
1.05413e+07
1.05382e+07
1.05352e+07
1.05321e+07
1.0529e+07
1.05259e+07
1.05227e+07
1.05195e+07
1.05163e+07
1.05131e+07
1.05099e+07
1.05066e+07
1.05033e+07
1.05e+07
1.04967e+07
1.04933e+07
1.04899e+07
1.04865e+07
1.0483e+07
1.04796e+07
1.04761e+07
1.04726e+07
1.0469e+07
1.04654e+07
1.04618e+07
1.04582e+07
1.04545e+07
1.04509e+07
1.04471e+07
1.04434e+07
1.04396e+07
1.04358e+07
1.0432e+07
1.04281e+07
1.04243e+07
1.04203e+07
1.04164e+07
1.04124e+07
1.04084e+07
1.04043e+07
1.04003e+07
1.03962e+07
1.0392e+07
1.03879e+07
1.03837e+07
1.03794e+07
1.03752e+07
1.03709e+07
1.03665e+07
1.03622e+07
1.03578e+07
1.03533e+07
1.03489e+07
1.03444e+07
1.03398e+07
1.03353e+07
1.03306e+07
1.0326e+07
1.03213e+07
1.03166e+07
1.03119e+07
1.03071e+07
1.03022e+07
1.02974e+07
1.02925e+07
1.02876e+07
1.02826e+07
1.02776e+07
1.02726e+07
1.02675e+07
1.02624e+07
1.02572e+07
1.18362e+07
1.18344e+07
1.18312e+07
1.18264e+07
1.18202e+07
1.18125e+07
1.18032e+07
1.17925e+07
1.17803e+07
1.17667e+07
1.17517e+07
1.17353e+07
1.17176e+07
1.16987e+07
1.16785e+07
1.16572e+07
1.16348e+07
1.16114e+07
1.1587e+07
1.15617e+07
1.15355e+07
1.15085e+07
1.14807e+07
1.14522e+07
1.14229e+07
1.13929e+07
1.13623e+07
1.1331e+07
1.1299e+07
1.12664e+07
1.12332e+07
1.11993e+07
1.11649e+07
1.11299e+07
1.10943e+07
1.10581e+07
1.10214e+07
1.09841e+07
1.09461e+07
1.09073e+07
1.08677e+07
1.08267e+07
1.07841e+07
1.07404e+07
1.07091e+07
1.07065e+07
1.0704e+07
1.07014e+07
1.06989e+07
1.06963e+07
1.06938e+07
1.06913e+07
1.06888e+07
1.06863e+07
1.06838e+07
1.06813e+07
1.06788e+07
1.06763e+07
1.06739e+07
1.06714e+07
1.06689e+07
1.06665e+07
1.0664e+07
1.06615e+07
1.0659e+07
1.06566e+07
1.06541e+07
1.06516e+07
1.06491e+07
1.06467e+07
1.06442e+07
1.06417e+07
1.06392e+07
1.06367e+07
1.06342e+07
1.06316e+07
1.06291e+07
1.06266e+07
1.0624e+07
1.06215e+07
1.06189e+07
1.06163e+07
1.06138e+07
1.06112e+07
1.06085e+07
1.06059e+07
1.06033e+07
1.06006e+07
1.0598e+07
1.05953e+07
1.05926e+07
1.05899e+07
1.05872e+07
1.05845e+07
1.05817e+07
1.05789e+07
1.05761e+07
1.05733e+07
1.05705e+07
1.05677e+07
1.05648e+07
1.05619e+07
1.0559e+07
1.05561e+07
1.05532e+07
1.05502e+07
1.05473e+07
1.05443e+07
1.05413e+07
1.05382e+07
1.05352e+07
1.05321e+07
1.0529e+07
1.05258e+07
1.05227e+07
1.05195e+07
1.05163e+07
1.05131e+07
1.05099e+07
1.05066e+07
1.05033e+07
1.05e+07
1.04967e+07
1.04933e+07
1.04899e+07
1.04865e+07