/*--------------------------------*- C++ -*----------------------------------*\
  =========                 |
  \\      /  F ield         | OpenFOAM: The Open Source CFD Toolbox
   \\    /   O peration     | Website:  https://openfoam.org
    \\  /    A nd           | Version:  10
     \\/     M anipulation  |
\*---------------------------------------------------------------------------*/
FoamFile
{
    format      ascii;
    class       volVectorField;
    location    "15";
    object      Ub;
}
// * * * * * * * * * * * * * * * * * * * * * * * * * * * * * * * * * * * * * //

dimensions      [0 1 -1 0 0 0 0];

internalField   nonuniform List<vector> 
100
(
(1.05351e-06 0 0)
(3.1768e-06 0 0)
(5.32561e-06 0 0)
(7.48999e-06 0 0)
(9.66656e-06 0 0)
(1.18552e-05 0 0)
(1.40568e-05 0 0)
(1.6273e-05 0 0)
(1.85057e-05 0 0)
(2.0757e-05 0 0)
(2.30296e-05 0 0)
(2.53261e-05 0 0)
(2.765e-05 0 0)
(3.00053e-05 0 0)
(3.23967e-05 0 0)
(3.48301e-05 0 0)
(3.73129e-05 0 0)
(3.98547e-05 0 0)
(4.2468e-05 0 0)
(4.51699e-05 0 0)
(4.7984e-05 0 0)
(5.09452e-05 0 0)
(5.41061e-05 0 0)
(5.75521e-05 0 0)
(6.14306e-05 0 0)
(6.60211e-05 0 0)
(7.1927e-05 0 0)
(8.06978e-05 0 0)
(9.79943e-05 0 0)
(0.000169856 0 0)
(0.000317744 0 0)
(0.000405702 0 0)
(0.000405721 0 0)
(0.000405721 0 0)
(0.000405721 0 0)
(0.000405721 0 0)
(0.000405721 0 0)
(0.000405721 0 0)
(0.000405721 0 0)
(0.000405721 0 0)
(0.000405721 0 0)
(0.000405721 0 0)
(0.000405721 0 0)
(0.000405721 0 0)
(0.000405721 0 0)
(0.000405721 0 0)
(0.000405721 0 0)
(0.000405721 0 0)
(0.000405721 0 0)
(0.000405721 0 0)
(0.000405721 0 0)
(0.000405721 0 0)
(0.000405721 0 0)
(0.000405721 0 0)
(0.000405721 0 0)
(0.000405721 0 0)
(0.000405721 0 0)
(0.000405721 0 0)
(0.000405721 0 0)
(0.000405721 0 0)
(0.000405721 0 0)
(0.000405721 0 0)
(0.000405721 0 0)
(0.000405721 0 0)
(0.000405721 0 0)
(0.000405721 0 0)
(0.000405721 0 0)
(0.000405721 0 0)
(0.000405721 0 0)
(0.000405721 0 0)
(0.000405721 0 0)
(0.000405721 0 0)
(0.000405721 0 0)
(0.000405721 0 0)
(0.000405721 0 0)
(0.000405721 0 0)
(0.000405721 0 0)
(0.000405721 0 0)
(0.000405721 0 0)
(0.000405721 0 0)
(0.000405721 0 0)
(0.000405721 0 0)
(0.000405721 0 0)
(0.000405721 0 0)
(0.000405721 0 0)
(0.000405721 0 0)
(0.000405721 0 0)
(0.000405721 0 0)
(0.000405721 0 0)
(0.000405721 0 0)
(0.000405721 0 0)
(0.000405721 0 0)
(0.000405721 0 0)
(0.000405721 0 0)
(0.000405721 0 0)
(0.000405721 0 0)
(0.000405721 0 0)
(0.000405721 0 0)
(0.000405721 0 0)
(0.000405721 0 0)
)
;

boundaryField
{
    inlet
    {
        type            fixedValue;
        value           uniform (0 0 0);
    }
    outlet
    {
        type            zeroGradient;
    }
    yzfaces
    {
        type            empty;
    }
}


// ************************************************************************* //
