/*--------------------------------*- C++ -*----------------------------------*\
  =========                 |
  \\      /  F ield         | OpenFOAM: The Open Source CFD Toolbox
   \\    /   O peration     | Website:  https://openfoam.org
    \\  /    A nd           | Version:  10
     \\/     M anipulation  |
\*---------------------------------------------------------------------------*/
FoamFile
{
    format      ascii;
    class       volVectorField;
    location    "0.044";
    object      UMean;
}
// * * * * * * * * * * * * * * * * * * * * * * * * * * * * * * * * * * * * * //

dimensions      [0 1 -1 0 0 0 0];

internalField   nonuniform List<vector> 
12225
(
(9.84763 0.0461495 0)
(9.56475 0.0612086 0)
(9.27208 0.0587444 0)
(8.97224 0.0570751 0)
(8.67856 0.0561356 0)
(8.39657 0.0552115 0)
(8.12714 0.0535819 0)
(7.86842 0.0526037 0)
(7.62001 0.0506525 0)
(7.37901 0.0508901 0)
(7.1466 0.0484858 0)
(6.91685 0.0517764 0)
(6.69292 0.0473805 0)
(6.4644 0.0581735 0)
(6.23619 0.0470538 0)
(5.99528 0.0771457 0)
(5.74552 0.0414495 0)
(5.47913 0.113481 0)
(10.0075 0.0510753 0)
(10.0787 0.0729615 0)
(10.1215 0.0721366 0)
(10.1352 0.072891 0)
(10.1326 0.0758679 0)
(10.1212 0.0784062 0)
(10.1024 0.0807238 0)
(10.0771 0.0821206 0)
(10.0443 0.0845378 0)
(10.006 0.0856243 0)
(9.96046 0.0896793 0)
(9.91122 0.0908188 0)
(9.85334 0.0988717 0)
(9.7927 0.100213 0)
(9.71994 0.116207 0)
(9.64431 0.117344 0)
(9.55314 0.14018 0)
(9.44909 0.128853 0)
(9.99849 0.0322842 0)
(10.0416 0.0536438 0)
(10.0742 0.0555762 0)
(10.091 0.057232 0)
(10.1013 0.0611387 0)
(10.1105 0.065349 0)
(10.1204 0.0684672 0)
(10.1292 0.0717657 0)
(10.1369 0.074324 0)
(10.142 0.0785136 0)
(10.1466 0.0814277 0)
(10.148 0.0881161 0)
(10.1507 0.0921858 0)
(10.1491 0.10396 0)
(10.1526 0.110602 0)
(10.1512 0.129058 0)
(10.1608 0.136497 0)
(10.1633 0.142587 0)
(9.99591 0.0270742 0)
(10.0296 0.0554609 0)
(10.056 0.0605088 0)
(10.0698 0.0618201 0)
(10.0775 0.065247 0)
(10.0842 0.0691878 0)
(10.0914 0.0727406 0)
(10.0984 0.0754905 0)
(10.1046 0.0786081 0)
(10.1099 0.081558 0)
(10.1147 0.085891 0)
(10.119 0.0903021 0)
(10.1238 0.0971625 0)
(10.1293 0.104566 0)
(10.1376 0.11489 0)
(10.1496 0.125868 0)
(10.1678 0.134117 0)
(10.1914 0.137983 0)
(9.98676 0.0236078 0)
(10.0146 0.0475019 0)
(10.0384 0.0537946 0)
(10.0525 0.0552883 0)
(10.0607 0.0582158 0)
(10.0669 0.0623714 0)
(10.0732 0.0661915 0)
(10.0794 0.0696139 0)
(10.085 0.0727593 0)
(10.0898 0.0764433 0)
(10.0939 0.0805361 0)
(10.098 0.0857662 0)
(10.1023 0.0917969 0)
(10.1081 0.0992447 0)
(10.1159 0.107602 0)
(10.1275 0.115644 0)
(10.1427 0.121613 0)
(10.1613 0.119583 0)
(9.96914 0.0170924 0)
(9.99276 0.0420225 0)
(10.0133 0.0515336 0)
(10.0267 0.0546166 0)
(10.0356 0.0578799 0)
(10.0427 0.062179 0)
(10.0497 0.0664312 0)
(10.0565 0.0701131 0)
(10.0626 0.0735598 0)
(10.0681 0.0771669 0)
(10.0731 0.0812576 0)
(10.0781 0.0860962 0)
(10.0836 0.0916873 0)
(10.0903 0.0981731 0)
(10.0986 0.10484 0)
(10.1094 0.110924 0)
(10.1223 0.113999 0)
(10.1364 0.111741 0)
(9.97788 0.0174023 0)
(9.99701 0.0374465 0)
(10.0138 0.047077 0)
(10.0254 0.0506183 0)
(10.0334 0.0534797 0)
(10.0397 0.0573969 0)
(10.0455 0.0616551 0)
(10.0514 0.0655904 0)
(10.0571 0.06929 0)
(10.0623 0.0731159 0)
(10.0672 0.0773353 0)
(10.0722 0.0820766 0)
(10.0777 0.0873796 0)
(10.0841 0.0930499 0)
(10.0919 0.0986225 0)
(10.1012 0.103109 0)
(10.1118 0.105158 0)
(10.1226 0.103528 0)
(9.99224 0.0129574 0)
(10.0108 0.0325907 0)
(10.0256 0.0436084 0)
(10.0358 0.0488838 0)
(10.0435 0.052575 0)
(10.0498 0.0566201 0)
(10.0557 0.0609242 0)
(10.0614 0.0649954 0)
(10.0671 0.0687613 0)
(10.0724 0.0725101 0)
(10.0775 0.0764913 0)
(10.0826 0.0808499 0)
(10.0882 0.0855506 0)
(10.0944 0.0903845 0)
(10.1016 0.0948743 0)
(10.1096 0.0982838 0)
(10.1183 0.0997755 0)
(10.1264 0.098615 0)
(9.98931 0.0119378 0)
(10.0041 0.0294072 0)
(10.0158 0.0396799 0)
(10.0244 0.045092 0)
(10.0319 0.0487575 0)
(10.0387 0.0525327 0)
(10.0451 0.0566623 0)
(10.0513 0.0608175 0)
(10.0576 0.0648014 0)
(10.0637 0.068702 0)
(10.0697 0.072724 0)
(10.0758 0.0769682 0)
(10.0821 0.0813676 0)
(10.0888 0.0856848 0)
(10.096 0.0895404 0)
(10.1037 0.0924387 0)
(10.1112 0.0938417 0)
(10.1184 0.0934259 0)
(9.97395 0.012733 0)
(9.98984 0.0259172 0)
(10.0022 0.0360562 0)
(10.0114 0.0425511 0)
(10.0196 0.0469439 0)
(10.0269 0.0508459 0)
(10.0333 0.0548384 0)
(10.0392 0.058824 0)
(10.0452 0.062641 0)
(10.0512 0.0663508 0)
(10.0573 0.0700915 0)
(10.0636 0.0739706 0)
(10.07 0.0779131 0)
(10.0767 0.081763 0)
(10.0835 0.085148 0)
(10.0907 0.0877758 0)
(10.0974 0.0892138 0)
(10.104 0.0894633 0)
(9.96164 0.00828738 0)
(9.97531 0.0213068 0)
(9.98497 0.0306398 0)
(9.99205 0.0374167 0)
(9.99901 0.042427 0)
(10.0058 0.0466247 0)
(10.0124 0.0506844 0)
(10.0187 0.0547201 0)
(10.025 0.0586054 0)
(10.031 0.0623487 0)
(10.0369 0.0660477 0)
(10.0427 0.0698118 0)
(10.0486 0.0735484 0)
(10.0545 0.0771535 0)
(10.0605 0.080298 0)
(10.0666 0.0828435 0)
(10.0726 0.0844538 0)
(10.0779 0.0853045 0)
(10.0043 0.0109399 0)
(10.0158 0.0214103 0)
(10.0237 0.0296055 0)
(10.0297 0.0359411 0)
(10.036 0.0407856 0)
(10.0426 0.0448338 0)
(10.0491 0.0486774 0)
(10.0551 0.0525086 0)
(10.0609 0.0562599 0)
(10.0664 0.0598925 0)
(10.0719 0.0634342 0)
(10.0772 0.0669582 0)
(10.0826 0.0703899 0)
(10.0879 0.073652 0)
(10.0934 0.0765067 0)
(10.0984 0.0789051 0)
(10.1034 0.0806192 0)
(10.1072 0.0818935 0)
(9.98283 0.00865894 0)
(9.99566 0.0158695 0)
(10.0041 0.0243176 0)
(10.0097 0.0312663 0)
(10.0158 0.0363118 0)
(10.0227 0.0403458 0)
(10.0299 0.0441559 0)
(10.0367 0.0479954 0)
(10.0432 0.0517991 0)
(10.0495 0.0555202 0)
(10.0556 0.0591197 0)
(10.0617 0.0626369 0)
(10.0678 0.0660353 0)
(10.0737 0.0692806 0)
(10.0796 0.0722005 0)
(10.0852 0.0747826 0)
(10.0905 0.0768749 0)
(10.095 0.0786974 0)
(10.0113 0.0104856 0)
(10.0259 0.0170555 0)
(10.0348 0.0239432 0)
(10.0394 0.02974 0)
(10.0443 0.0342161 0)
(10.05 0.0380045 0)
(10.0559 0.041697 0)
(10.0616 0.0454448 0)
(10.0671 0.0491382 0)
(10.0726 0.052684 0)
(10.0783 0.0560504 0)
(10.084 0.0592798 0)
(10.0899 0.0623403 0)
(10.0957 0.0652745 0)
(10.1014 0.0679496 0)
(10.1067 0.0704797 0)
(10.1119 0.0726737 0)
(10.1161 0.0749048 0)
(9.99899 0.00242145 0)
(10.0125 0.0113414 0)
(10.0202 0.0178063 0)
(10.024 0.0230445 0)
(10.028 0.0277024 0)
(10.0334 0.0319792 0)
(10.0397 0.0358612 0)
(10.0463 0.0393749 0)
(10.053 0.0426072 0)
(10.0596 0.0456815 0)
(10.0663 0.0486767 0)
(10.0728 0.0516906 0)
(10.0792 0.0546966 0)
(10.0853 0.0577229 0)
(10.0912 0.0606248 0)
(10.097 0.0634982 0)
(10.1022 0.0661403 0)
(10.1075 0.0688723 0)
(9.99839 0.00783798 0)
(10.0115 0.0128587 0)
(10.0187 0.0178401 0)
(10.022 0.0224629 0)
(10.0259 0.0262981 0)
(10.0314 0.0294155 0)
(10.0376 0.0321746 0)
(10.044 0.0349507 0)
(10.05 0.0378912 0)
(10.0558 0.0409806 0)
(10.0613 0.0440763 0)
(10.0669 0.0471252 0)
(10.0725 0.0500062 0)
(10.078 0.0527891 0)
(10.0835 0.055353 0)
(10.0889 0.0579273 0)
(10.0941 0.0602962 0)
(10.0993 0.0629236 0)
(9.98865 -0.00350906 0)
(10.0016 0.00343722 0)
(10.0088 0.00885474 0)
(10.0121 0.0130338 0)
(10.0157 0.0165091 0)
(10.0205 0.0197644 0)
(10.026 0.0229767 0)
(10.0317 0.0260665 0)
(10.0374 0.0288881 0)
(10.0432 0.0314562 0)
(10.0492 0.0338503 0)
(10.0554 0.0362433 0)
(10.0618 0.0386449 0)
(10.0683 0.0411656 0)
(10.0746 0.0436548 0)
(10.0809 0.0462851 0)
(10.0869 0.0487831 0)
(10.0928 0.0515555 0)
(10.0002 0.00531553 0)
(10.0108 0.0079512 0)
(10.0159 0.01034 0)
(10.0181 0.0125969 0)
(10.0215 0.0148403 0)
(10.0266 0.0170721 0)
(10.0327 0.0192095 0)
(10.039 0.021201 0)
(10.0451 0.023059 0)
(10.0511 0.0248678 0)
(10.0571 0.0266572 0)
(10.0629 0.0285086 0)
(10.0687 0.0304021 0)
(10.0745 0.0324399 0)
(10.0802 0.0345219 0)
(10.0858 0.0368012 0)
(10.0914 0.0390383 0)
(10.0968 0.0415312 0)
(9.99524 -0.00283173 0)
(10.0101 -0.00179272 0)
(10.0182 -0.000846889 0)
(10.0219 8.42592e-05 0)
(10.0258 0.00128314 0)
(10.031 0.00275041 0)
(10.0371 0.00438363 0)
(10.0434 0.006123 0)
(10.0496 0.00790289 0)
(10.0557 0.0097051 0)
(10.0617 0.0114939 0)
(10.0676 0.0132954 0)
(10.0735 0.0150665 0)
(10.0793 0.0168857 0)
(10.0851 0.0186776 0)
(10.0908 0.0205916 0)
(10.0964 0.0224381 0)
(10.102 0.0244944 0)
(9.98382 -0.00703692 0)
(9.99434 -0.00431106 0)
(9.99976 -0.00364549 0)
(10.0025 -0.00359102 0)
(10.006 -0.00308531 0)
(10.0108 -0.0021363 0)
(10.0163 -0.00105844 0)
(10.0222 -7.18091e-06 0)
(10.028 0.00100679 0)
(10.0339 0.00205862 0)
(10.0399 0.00317332 0)
(10.0459 0.00438414 0)
(10.052 0.00564122 0)
(10.058 0.00699503 0)
(10.064 0.00837004 0)
(10.0701 0.0098802 0)
(10.076 0.0113511 0)
(10.0821 0.0129896 0)
(9.98115 -0.00209603 0)
(9.99183 -0.00607484 0)
(9.998 -0.0085606 0)
(10.0022 -0.00965153 0)
(10.0074 -0.00993418 0)
(10.0135 -0.00991045 0)
(10.02 -0.00980511 0)
(10.0264 -0.00963432 0)
(10.0327 -0.00930617 0)
(10.0388 -0.00873682 0)
(10.0449 -0.00797463 0)
(10.051 -0.00708204 0)
(10.057 -0.00616104 0)
(10.0629 -0.00520198 0)
(10.0688 -0.00426269 0)
(10.0746 -0.00324117 0)
(10.0805 -0.00226326 0)
(10.0862 -0.00115112 0)
(10.0063 -0.00463063 0)
(10.0182 -0.0118873 0)
(10.0255 -0.0146678 0)
(10.0302 -0.0156551 0)
(10.0354 -0.0161097 0)
(10.0416 -0.0161663 0)
(10.0482 -0.0159254 0)
(10.0548 -0.0155473 0)
(10.0612 -0.0151144 0)
(10.0675 -0.0146038 0)
(10.0737 -0.0139923 0)
(10.0798 -0.0132733 0)
(10.0858 -0.0125136 0)
(10.0917 -0.0117347 0)
(10.0976 -0.0110241 0)
(10.1034 -0.0103294 0)
(10.1092 -0.00974542 0)
(10.1149 -0.00910926 0)
(9.98734 -0.0031239 0)
(10.004 -0.0131346 0)
(10.0144 -0.018489 0)
(10.0198 -0.020883 0)
(10.0249 -0.0218781 0)
(10.0309 -0.0224891 0)
(10.0374 -0.0230915 0)
(10.0439 -0.0235879 0)
(10.0504 -0.0237954 0)
(10.0568 -0.0236583 0)
(10.0631 -0.0232614 0)
(10.0694 -0.0227235 0)
(10.0756 -0.0221676 0)
(10.0817 -0.0216264 0)
(10.0877 -0.0211553 0)
(10.0936 -0.0206952 0)
(10.0994 -0.0203146 0)
(10.1051 -0.0199018 0)
(9.99245 -0.0121432 0)
(10.0101 -0.0173486 0)
(10.0223 -0.0226481 0)
(10.0298 -0.0255266 0)
(10.0365 -0.0263302 0)
(10.0433 -0.0264339 0)
(10.0502 -0.0265849 0)
(10.057 -0.0268352 0)
(10.0636 -0.0270002 0)
(10.0702 -0.0269536 0)
(10.0767 -0.0267064 0)
(10.0832 -0.0263183 0)
(10.0897 -0.0258869 0)
(10.0959 -0.0254677 0)
(10.102 -0.0251349 0)
(10.1079 -0.0248487 0)
(10.1138 -0.0246616 0)
(10.1194 -0.0244584 0)
(9.99238 -0.0156613 0)
(10.0066 -0.0248464 0)
(10.0175 -0.0304338 0)
(10.0249 -0.0329264 0)
(10.0311 -0.0337872 0)
(10.0373 -0.0342795 0)
(10.0439 -0.0348519 0)
(10.0509 -0.0354446 0)
(10.058 -0.0359162 0)
(10.065 -0.0361936 0)
(10.072 -0.0362632 0)
(10.0789 -0.0361299 0)
(10.0857 -0.0358546 0)
(10.0924 -0.0354981 0)
(10.0989 -0.03516 0)
(10.1052 -0.0348763 0)
(10.1113 -0.0347122 0)
(10.1173 -0.0346178 0)
(9.99531 -0.0114909 0)
(10.0153 -0.0254557 0)
(10.0302 -0.0304222 0)
(10.0396 -0.0316462 0)
(10.0469 -0.032431 0)
(10.0539 -0.0335741 0)
(10.0612 -0.0347648 0)
(10.0687 -0.0356764 0)
(10.0759 -0.0362638 0)
(10.0827 -0.0366063 0)
(10.089 -0.036772 0)
(10.0951 -0.0367867 0)
(10.1011 -0.0366869 0)
(10.1071 -0.036505 0)
(10.1132 -0.036322 0)
(10.1192 -0.0361734 0)
(10.1252 -0.036136 0)
(10.1311 -0.0361819 0)
(9.97025 -0.0256369 0)
(9.9931 -0.0377837 0)
(10.0104 -0.0420082 0)
(10.0204 -0.0427056 0)
(10.0275 -0.0433516 0)
(10.0342 -0.0443837 0)
(10.0414 -0.0452222 0)
(10.0488 -0.0456424 0)
(10.0561 -0.045781 0)
(10.0631 -0.0458047 0)
(10.0698 -0.0457949 0)
(10.0764 -0.045775 0)
(10.0829 -0.0457553 0)
(10.0893 -0.0457423 0)
(10.0956 -0.0457552 0)
(10.1017 -0.0457813 0)
(10.1078 -0.0458453 0)
(10.1136 -0.0459116 0)
(9.98079 -0.0215297 0)
(10.0067 -0.033438 0)
(10.0277 -0.0362755 0)
(10.0398 -0.0371466 0)
(10.0478 -0.038752 0)
(10.0553 -0.0405243 0)
(10.0635 -0.0418119 0)
(10.0722 -0.0426588 0)
(10.0807 -0.0432802 0)
(10.0888 -0.0437863 0)
(10.0965 -0.0441636 0)
(10.1039 -0.0444223 0)
(10.111 -0.0445649 0)
(10.1179 -0.0446624 0)
(10.1247 -0.0447266 0)
(10.1311 -0.0448408 0)
(10.1374 -0.0449869 0)
(10.1433 -0.0452409 0)
(9.98547 -0.0357317 0)
(10.0315 -0.0522805 0)
(10.0645 -0.0516026 0)
(10.0825 -0.050896 0)
(10.0931 -0.051895 0)
(10.1007 -0.0530019 0)
(10.1064 -0.0536733 0)
(10.1101 -0.0540501 0)
(10.1114 -0.0542622 0)
(10.1107 -0.0543675 0)
(10.1082 -0.0543777 0)
(10.1046 -0.0543688 0)
(10.1 -0.0543367 0)
(10.0948 -0.0543467 0)
(10.0888 -0.0543205 0)
(10.0826 -0.0543364 0)
(10.0753 -0.054303 0)
(10.0683 -0.0543749 0)
(9.90168 -0.03841 0)
(9.74572 -0.0495304 0)
(9.58181 -0.0479839 0)
(9.41235 -0.0466087 0)
(9.24674 -0.0462524 0)
(9.08889 -0.045845 0)
(8.93902 -0.0451328 0)
(8.79643 -0.0442471 0)
(8.66052 -0.0433044 0)
(8.53115 -0.0423797 0)
(8.40797 -0.041509 0)
(8.29097 -0.0407209 0)
(8.17942 -0.0399737 0)
(8.07359 -0.03926 0)
(7.97228 -0.0385174 0)
(7.8767 -0.0378015 0)
(7.78444 -0.0370743 0)
(7.6986 -0.0364833 0)
(-0.129216 0.260998 3.59746e-21)
(-0.274098 0.103201 -3.55734e-21)
(-0.324707 -0.0278919 0)
(-0.287575 -0.137644 0)
(-0.13595 -0.246847 0)
(0.094161 -0.327432 3.4611e-21)
(0.394879 -0.377498 0)
(0.732048 -0.390803 0)
(1.07769 -0.380223 0)
(1.40698 -0.349321 0)
(1.70841 -0.304031 -3.18653e-21)
(1.97022 -0.249684 0)
(2.18371 -0.190168 0)
(2.34279 -0.128385 0)
(2.44406 -0.0659471 0)
(2.48671 -0.00420771 -2.66337e-21)
(2.47001 0.0563196 0)
(2.39541 0.114561 0)
(2.2627 0.170347 0)
(2.07743 0.221265 0)
(1.83816 0.266712 0)
(1.56152 0.299927 0)
(1.24042 0.323864 0)
(0.911213 0.315818 -2.63683e-21)
(0.551205 0.323137 2.64466e-21)
(0.214403 0.256773 -2.63834e-21)
(-0.10483 0.15176 -2.6159e-21)
(-0.421123 0.0282728 0)
(-0.68845 -0.0297476 0)
(-0.979391 0.0848431 2.46859e-21)
(-1.31223 0.172102 2.39385e-21)
(-1.68099 0.213243 0)
(-2.06037 0.227702 0)
(-2.40672 0.208138 2.09265e-21)
(-2.69013 0.159533 0)
(-2.90412 0.0983625 0)
(-3.03601 0.0358153 -1.81368e-21)
(-3.09898 -0.00734411 0)
(-3.12597 -0.0118739 -1.62202e-21)
(-3.17122 0.0282369 -2.99757e-21)
(-3.26946 0.0778984 0)
(-3.4244 0.118174 0)
(-3.63943 0.147343 0)
(-3.87461 0.135527 0)
(-4.07445 0.120673 0)
(-4.27612 0.104341 -2.05326e-21)
(-4.45691 -0.0270687 -1.95995e-21)
(-4.65265 -0.0627709 -1.8568e-21)
(-4.84833 0.143139 0)
(-5.18943 0.254203 1.77651e-21)
(-5.47158 0.230138 0)
(-5.71299 0.206594 -1.61621e-21)
(-5.91076 0.166187 -1.50688e-21)
(-6.05885 0.130456 0)
(-6.16948 0.0972777 0)
(-6.24199 0.0692428 0)
(-6.28499 0.0449869 -1.12635e-21)
(-6.29986 0.0245914 0)
(-6.29203 0.00716414 0)
(-6.26313 -0.00770116 0)
(-6.21636 -0.0206273 0)
(-6.153 -0.0320024 0)
(-6.07476 -0.0422176 0)
(-5.98238 -0.0515195 0)
(-5.87668 -0.0600927 0)
(-5.75799 -0.0679923 1.31127e-21)
(-5.62673 -0.0752661 0)
(-5.48334 -0.0818502 0)
(-5.32883 -0.0877721 -1.71753e-21)
(-5.16385 -0.0930199 -1.88942e-21)
(-4.9892 -0.0976001 0)
(-4.80604 -0.101465 2.27737e-21)
(-4.61537 -0.104612 -2.48822e-21)
(-4.41839 -0.106993 0)
(-4.21634 -0.108615 2.92904e-21)
(-4.01054 -0.109478 0)
(-3.80223 -0.109647 0)
(-3.59254 -0.109232 -3.59562e-21)
(-3.38233 -0.108417 0)
(-3.17205 -0.107418 4.01884e-21)
(-2.96187 -0.106425 0)
(-2.75153 -0.105658 -4.4161e-21)
(-2.54041 -0.105317 -4.60501e-21)
(-2.32765 -0.105535 -4.7881e-21)
(-2.11209 -0.106365 -9.93212e-21)
(-1.89248 -0.107853 1.02791e-20)
(-1.66763 -0.109896 0)
(-1.43646 -0.112345 0)
(-1.1982 -0.114998 0)
(-0.952572 -0.117574 1.15847e-20)
(-0.699958 -0.11984 1.18847e-20)
(-0.44127 -0.121494 -1.21678e-20)
(-0.178059 -0.122249 0)
(0.0876782 -0.121921 1.26626e-20)
(0.353549 -0.120378 1.28638e-20)
(0.617124 -0.117628 1.30286e-20)
(0.876123 -0.113782 0)
(1.12859 -0.109041 0)
(1.37284 -0.103629 0)
(1.60759 -0.0977779 1.33065e-20)
(1.83176 -0.0919738 0)
(2.04464 -0.0858605 0)
(2.24617 -0.0797789 -1.31777e-20)
(2.43605 -0.0737034 0)
(2.61433 -0.0677501 0)
(2.78105 -0.0619264 -1.2872e-20)
(2.93638 -0.0563082 0)
(3.08054 -0.0509321 0)
(3.21379 -0.0458595 1.24713e-20)
(3.33658 -0.0410643 1.23259e-20)
(3.44946 -0.0365658 0)
(3.55296 -0.0323551 -1.20261e-20)
(3.64758 -0.0284342 0)
(3.73384 -0.0247871 1.17206e-20)
(3.81222 -0.0213962 0)
(3.88315 -0.0182364 1.14148e-20)
(3.94702 -0.0152823 1.1263e-20)
(4.00417 -0.0125091 0)
(4.0549 -0.00989672 0)
(4.09949 -0.00743247 0)
(4.13817 -0.00510783 0)
(4.17119 -0.00291585 0)
(4.19877 -0.0008539 0)
(4.22115 0.00107878 0)
(4.23857 0.00288156 1.01103e-20)
(4.25129 0.00455344 -9.97702e-21)
(4.25958 0.00609538 0)
(4.26371 0.00751041 0)
(4.26395 0.00879783 0)
(4.26056 0.00996028 0)
(4.2538 0.0110077 -1.87068e-20)
(4.24389 0.0119558 0)
(4.23103 0.0128009 1.82461e-20)
(4.21544 0.0135144 -1.80231e-20)
(4.19736 0.0140909 0)
(4.17707 0.0145823 0)
(4.15477 0.0150189 0)
(4.13068 0.0153172 1.7173e-20)
(4.10516 0.0153432 1.69694e-20)
(4.07869 0.0150522 0)
(4.05181 0.014555 1.65714e-20)
(4.0249 0.0140409 1.63766e-20)
(3.99815 0.0136206 -1.61844e-20)
(3.97163 0.0132484 0)
(3.94543 0.0127993 0)
(3.9197 0.0122102 -1.56216e-20)
(3.89461 0.0115427 0)
(3.87023 0.010929 0)
(3.84649 0.0104784 0)
(3.82321 0.0102192 0)
(3.80018 0.0101028 1.47234e-20)
(3.77725 0.0100408 1.45487e-20)
(3.75436 0.00994683 0)
(3.73152 0.00976398 1.42033e-20)
(3.70885 0.00946105 0)
(3.68651 0.00901051 0)
(3.66478 0.00838221 1.36951e-20)
(3.64398 0.00757575 0)
(3.62443 0.00665194 1.33632e-20)
(3.6064 0.00572307 0)
(3.5899 0.00489473 0)
(3.57491 0.00422614 1.28768e-20)
(3.56108 0.00371939 0)
(3.54832 0.00334626 1.25603e-20)
(3.53613 0.00308159 0)
(3.52469 0.00290589 0)
(3.51316 0.00285026 0)
(3.50215 0.00288319 -1.19461e-20)
(3.49006 0.00312379 0)
(3.47824 0.00339151 1.16503e-20)
(3.46375 0.00409317 0)
(3.44897 0.00454636 0)
(3.42943 0.00616771 0)
(3.40738 0.00658037 0)
(3.37943 0.0105616 0)
(3.33878 0.0100711 0)
(3.29997 0.0211523 0)
(3.20447 0.0168626 -2.12867e-20)
(3.16156 0.0540122 0)
(2.87655 0.0440298 0)
(0.00275705 0.505909 -1.07378e-20)
(0.0405691 0.256869 1.06277e-20)
(0.0684069 0.0191454 0)
(0.212741 -0.24492 -6.90023e-21)
(0.448063 -0.556854 0)
(0.753407 -0.808076 -3.46547e-21)
(1.07759 -0.963763 6.67467e-21)
(1.39324 -1.02521 6.55045e-21)
(1.68543 -1.00955 0)
(1.94626 -0.935427 6.17184e-21)
(2.16962 -0.820703 3.19157e-21)
(2.35137 -0.680127 0)
(2.4883 -0.524817 0)
(2.58015 -0.362341 0)
(2.62729 -0.198125 0)
(2.63078 -0.0357564 2.66805e-21)
(2.59155 0.121386 0)
(2.51236 0.271198 -4.79382e-21)
(2.39422 0.410756 0)
(2.23983 0.540279 0)
(2.05116 0.654313 4.83767e-21)
(1.82974 0.75293 0)
(1.58556 0.820671 -4.95018e-21)
(1.3158 0.874833 2.64419e-21)
(1.04576 0.872257 -2.65249e-21)
(0.736794 0.840297 2.64656e-21)
(0.351501 0.903316 2.62446e-21)
(-0.114539 0.960097 0)
(-0.64373 0.960169 0)
(-1.2104 0.945807 -2.47544e-21)
(-1.7239 0.946477 2.1196e-21)
(-2.16733 0.940792 0)
(-2.57503 0.882118 0)
(-2.9118 0.756204 -2.09777e-21)
(-3.18857 0.586303 0)
(-3.40316 0.394191 0)
(-3.5485 0.188929 1.82024e-21)
(-3.65096 0.0434712 0)
(-3.74698 0.0313772 -1.14656e-21)
(-3.86063 0.144255 3.00997e-21)
(-4.00569 0.285647 0)
(-4.18095 0.431746 0)
(-4.37923 0.499602 4.14496e-21)
(-4.635 0.464722 3.94861e-21)
(-4.92934 0.45886 3.7277e-21)
(-5.18367 0.460042 -1.47363e-21)
(-5.52144 0.551337 1.97054e-21)
(-5.89425 0.613837 4.96964e-21)
(-6.11344 0.605423 -2.93523e-21)
(-6.31527 0.561456 -1.78843e-21)
(-6.44032 0.465268 0)
(-6.53739 0.378674 1.62749e-21)
(-6.59462 0.283997 -8.58771e-22)
(-6.62435 0.203097 0)
(-6.62773 0.128999 0)
(-6.60957 0.0669098 0)
(-6.5728 0.0130448 1.13468e-21)
(-6.52001 -0.032169 0)
(-6.4535 -0.0711187 -1.77916e-21)
(-6.37476 -0.104506 0)
(-6.28521 -0.13386 -1.80269e-21)
(-6.18568 -0.159929 0)
(-6.07683 -0.183673 1.95223e-21)
(-5.95892 -0.205665 0)
(-5.83209 -0.226415 -2.24007e-21)
(-5.69622 -0.246176 1.12842e-21)
(-5.55121 -0.265086 0)
(-5.39684 -0.283042 2.95917e-21)
(-5.2326 -0.299855 1.71727e-21)
(-5.05858 -0.315273 1.8891e-21)
(-4.8753 -0.328972 0)
(-4.68327 -0.34069 2.1507e-21)
(-4.48361 -0.350193 2.48793e-21)
(-4.27754 -0.357331 0)
(-4.06646 -0.362085 -2.92869e-21)
(-3.8518 -0.364532 6.22249e-21)
(-3.63496 -0.364899 0)
(-3.41707 -0.36358 3.59519e-21)
(-3.19898 -0.361077 0)
(-2.98119 -0.358016 -1.19964e-20)
(-2.76379 -0.354994 0)
(-2.54649 -0.35263 1.31883e-20)
(-2.32864 -0.351471 4.60462e-21)
(-2.10929 -0.351936 -4.72301e-21)
(-1.88721 -0.354232 -9.79378e-21)
(-1.66109 -0.35842 1.01326e-20)
(-1.42963 -0.364274 0)
(-1.19176 -0.371366 0)
(-0.946629 -0.3791 0)
(-0.693899 -0.386721 -3.45914e-20)
(-0.433755 -0.393396 -1.18836e-20)
(-0.167241 -0.398218 1.21667e-20)
(0.103985 -0.400363 0)
(0.377658 -0.39924 1.2536e-20)
(0.651216 -0.394526 -1.28624e-20)
(0.922032 -0.386242 -1.30271e-20)
(1.18777 -0.374745 0)
(1.4465 -0.360622 0)
(1.69665 -0.344602 0)
(1.93701 -0.327493 -1.33043e-20)
(2.16679 -0.309829 0)
(2.38561 -0.291797 2.64177e-20)
(2.59339 -0.273775 3.94613e-20)
(2.79 -0.255866 -2.61167e-20)
(2.97547 -0.23826 0)
(3.1499 -0.221043 -1.28191e-20)
(3.31345 -0.204379 0)
(3.46632 -0.188418 -2.51762e-20)
(3.60881 -0.173288 1.24304e-20)
(3.7414 -0.158965 1.22886e-20)
(3.86463 -0.145488 0)
(3.97905 -0.132876 3.60417e-20)
(4.08517 -0.121113 -2.37162e-20)
(4.18351 -0.110154 -1.17179e-20)
(4.27453 -0.0999368 0)
(4.35868 -0.0903885 -1.14122e-20)
(4.43633 -0.0814357 -3.37643e-20)
(4.50783 -0.073011 0)
(4.57348 -0.0650593 -2.19073e-20)
(4.63355 -0.0575393 -2.16135e-20)
(4.68829 -0.0504228 -2.13234e-20)
(4.73796 -0.0436928 0)
(4.78279 -0.0373435 0)
(4.82302 -0.0313743 0)
(4.85892 -0.0257871 1.01e-20)
(4.89073 -0.0205841 9.97432e-21)
(4.9187 -0.0157635 0)
(4.9431 -0.0113194 1.94266e-20)
(4.96418 -0.00723818 1.91776e-20)
(4.98219 -0.00349682 0)
(4.99734 -6.44362e-05 1.8701e-20)
(5.00985 0.00309278 3.69279e-20)
(5.01991 0.00599534 -1.82401e-20)
(5.02764 0.00863715 -1.80103e-20)
(5.03312 0.010998 0)
(5.03654 0.013077 0)
(5.0382 0.0148867 0)
(5.03843 0.0164196 -1.71664e-20)
(5.03732 0.0176469 1.6959e-20)
(5.03476 0.0185221 3.35213e-20)
(5.03064 0.0190082 -1.65647e-20)
(5.02504 0.0191303 1.63675e-20)
(5.01835 0.018983 1.61776e-20)
(5.01117 0.0186884 0)
(5.00398 0.0183268 0)
(4.99692 0.017916 -1.56137e-20)
(4.98988 0.0174551 0)
(4.98267 0.0169649 0)
(4.97519 0.0164814 3.01402e-20)
(4.96751 0.0160385 0)
(4.95986 0.015664 1.47159e-20)
(4.9525 0.0153673 -1.45416e-20)
(4.94565 0.0151292 0)
(4.93935 0.0149075 1.41959e-20)
(4.93355 0.0146527 0)
(4.92813 0.0143173 0)
(4.92293 0.0138551 -1.36881e-20)
(4.9178 0.0132286 2.70431e-20)
(4.91262 0.0124301 -1.33562e-20)
(4.90733 0.0115009 0)
(4.90192 0.0105334 0)
(4.89645 0.00962232 1.28704e-20)
(4.89094 0.00884307 0)
(4.8854 0.00820314 1.25537e-20)
(4.87975 0.00773133 0)
(4.87396 0.00736554 0)
(4.86789 0.00721536 0)
(4.8615 0.00712922 1.19396e-20)
(4.85468 0.00747302 0)
(4.84716 0.00775776 -1.16439e-20)
(4.83908 0.00902893 0)
(4.82915 0.00973216 0)
(4.81883 0.0128893 2.24371e-20)
(4.80336 0.0138395 -2.21691e-20)
(4.78935 0.0213833 0)
(4.76062 0.0218663 0)
(4.74165 0.0411795 0)
(4.6799 0.0401727 6.37492e-20)
(4.65926 0.0975489 0)
(4.51952 0.103979 -4.17687e-20)
(0.0471841 0.262026 -1.22001e-23)
(0.120183 0.0669 -1.4174e-20)
(0.321945 -0.327381 0)
(0.656565 -0.834939 1.37891e-20)
(1.01908 -1.26248 0)
(1.34725 -1.53501 0)
(1.62229 -1.65138 -3.58937e-22)
(1.84445 -1.63899 -6.56025e-21)
(2.02031 -1.53188 -5.86137e-21)
(2.1555 -1.36091 -6.17953e-21)
(2.25375 -1.15039 0)
(2.31773 -0.917782 0)
(2.34956 -0.675319 4.89507e-21)
(2.35045 -0.431191 9.41328e-21)
(2.32104 -0.190959 -9.11062e-21)
(2.26181 0.0418707 0)
(2.17452 0.263967 -8.74877e-21)
(2.06133 0.472702 4.79445e-21)
(1.92536 0.665508 0)
(1.77013 0.840749 -8.75784e-21)
(1.59998 0.995399 -4.84007e-21)
(1.4126 1.12176 8.9896e-21)
(1.21309 1.22467 4.95465e-21)
(1.00541 1.26705 0)
(0.77161 1.3081 -9.3187e-21)
(0.445039 1.45667 -9.34475e-21)
(0.08584 1.60217 0)
(-0.314543 1.74796 -9.21692e-21)
(-0.74542 1.84496 0)
(-1.18927 1.86256 -8.78402e-21)
(-1.63726 1.79358 -4.53426e-21)
(-2.04644 1.66463 0)
(-2.41938 1.48967 0)
(-2.7365 1.26047 0)
(-3.02454 1.00506 0)
(-3.25846 0.725451 0)
(-3.46855 0.473145 0)
(-3.65538 0.312913 -5.15004e-21)
(-3.86344 0.312653 7.43701e-21)
(-4.10745 0.437199 0)
(-4.35382 0.589332 0)
(-4.64361 0.713668 0)
(-4.88986 0.870525 -9.0089e-22)
(-5.21569 0.949242 -3.95519e-21)
(-5.51428 0.951797 -6.55858e-21)
(-5.78996 0.966147 6.14389e-21)
(-6.03547 0.958577 2.39103e-21)
(-6.21755 0.890669 -3.10685e-21)
(-6.31124 0.796044 9.3496e-22)
(-6.37401 0.680162 -1.86181e-21)
(-6.38672 0.545386 0)
(-6.38876 0.41769 -1.64288e-21)
(-6.36756 0.292818 8.16788e-22)
(-6.34045 0.184753 0)
(-6.30077 0.0883618 0)
(-6.25487 0.00731119 1.38246e-21)
(-6.19965 -0.062675 0)
(-6.13737 -0.121819 0)
(-6.06664 -0.173079 -9.46188e-22)
(-5.98825 -0.217517 -2.77968e-21)
(-5.9016 -0.257028 1.79211e-21)
(-5.80698 -0.292612 0)
(-5.70402 -0.325531 -1.94112e-21)
(-5.5926 -0.356615 0)
(-5.47222 -0.38663 -1.65982e-21)
(-5.34242 -0.416008 -2.42868e-21)
(-5.20258 -0.444917 4.80295e-21)
(-5.05224 -0.473204 2.4335e-21)
(-4.89116 -0.500361 0)
(-4.71951 -0.525743 -6.77393e-21)
(-4.53786 -0.548585 0)
(-4.34716 -0.568225 -1.28533e-20)
(-4.14862 -0.584105 -9.33716e-21)
(-3.94365 -0.595883 -1.02699e-20)
(-3.73382 -0.603477 1.12184e-20)
(-3.52074 -0.607039 -1.83844e-20)
(-3.30602 -0.607024 0)
(-3.09111 -0.604096 0)
(-2.87711 -0.599153 1.49118e-20)
(-2.66463 -0.593249 2.37368e-20)
(-2.45385 -0.58748 0)
(-2.24446 -0.582924 -8.76905e-21)
(-2.0357 -0.580514 0)
(-1.8264 -0.580973 2.83222e-20)
(-1.61507 -0.584706 2.15825e-22)
(-1.40008 -0.591764 -2.30068e-22)
(-1.17975 -0.601807 -2.08352e-20)
(-0.952576 -0.61411 0)
(-0.717343 -0.627626 2.21202e-20)
(-0.473339 -0.641018 2.59407e-22)
(-0.220558 -0.652754 0)
(0.0400733 -0.661204 0)
(0.30667 -0.664918 0)
(0.576561 -0.662855 -2.5196e-20)
(0.846555 -0.654557 0)
(1.11342 -0.640111 0)
(1.37439 -0.620148 0)
(1.62736 -0.595723 0)
(1.87067 -0.568369 0)
(2.1033 -0.539236 -2.64038e-20)
(2.32483 -0.509298 0)
(2.53511 -0.479106 -2.64134e-20)
(2.73428 -0.449124 -2.62822e-20)
(2.92243 -0.419582 2.61127e-20)
(3.09977 -0.390733 0)
(3.26643 -0.362653 2.56848e-20)
(3.42263 -0.33555 0)
(3.56856 -0.309661 2.51731e-20)
(3.70454 -0.285006 -2.48958e-20)
(3.83107 -0.261701 -7.37111e-20)
(3.94865 -0.239828 0)
(4.05777 -0.219412 -7.19523e-20)
(4.15897 -0.200417 -2.36288e-20)
(4.25277 -0.182764 0)
(4.33962 -0.166337 -4.61445e-20)
(4.41994 -0.151014 -4.55456e-20)
(4.4941 -0.136671 6.7451e-20)
(4.56242 -0.123204 0)
(4.62517 -0.110524 2.19059e-20)
(4.6826 -0.0985678 2.16123e-20)
(4.73497 -0.0872912 6.39305e-20)
(4.78249 -0.0766695 0)
(4.82544 -0.0666936 0)
(4.86408 -0.0573619 0)
(4.8987 -0.0486696 2.01823e-20)
(4.9296 -0.0406082 0)
(4.95708 -0.0331681 0)
(4.9814 -0.0263359 -1.9426e-20)
(5.00284 -0.0200906 -1.91771e-20)
(5.0216 -0.0144033 0)
(5.03792 -0.00922575 0)
(5.05202 -0.00449612 -3.69269e-20)
(5.06406 -0.000153962 0)
(5.07415 0.0038351 3.60263e-20)
(5.08228 0.00744127 3.55808e-20)
(5.08845 0.010572 0)
(5.09285 0.0131687 0)
(5.09589 0.015295 -3.43212e-20)
(5.09801 0.0171004 -5.48641e-24)
(5.09936 0.0186938 -4.78849e-24)
(5.0997 0.0200573 0)
(5.09873 0.0210486 -6.54684e-20)
(5.09637 0.0215032 0)
(5.09302 0.0213765 0)
(5.08929 0.020812 0)
(5.08572 0.0200675 3.12269e-20)
(5.08249 0.0193863 0)
(5.07944 0.0188996 -6.09928e-20)
(5.07632 0.0185857 -3.01385e-20)
(5.07292 0.0183078 0)
(5.06926 0.0179141 -2.94306e-20)
(5.0656 0.0173309 0)
(5.06231 0.0165858 0)
(5.0597 0.0157582 -8.51703e-20)
(5.05796 0.014918 5.60976e-20)
(5.05704 0.0140953 0)
(5.05676 0.0132828 5.47492e-20)
(5.05686 0.012451 -2.70412e-20)
(5.05704 0.0115833 0)
(5.05707 0.0106928 0)
(5.05682 0.00984445 0)
(5.05623 0.00909336 -7.7216e-20)
(5.05532 0.00850508 0)
(5.05409 0.00806639 -2.51051e-20)
(5.05259 0.00783695 0)
(5.05066 0.00772495 0)
(5.04838 0.00789422 0)
(5.0454 0.00811219 0)
(5.04202 0.00885089 0)
(5.03754 0.00948707 0)
(5.03283 0.0112839 -4.59824e-20)
(5.02621 0.0125246 0)
(5.0198 0.016515 -2.24349e-20)
(5.00944 0.0186293 6.64822e-20)
(5.0003 0.0274946 0)
(4.98253 0.0310757 0)
(4.96877 0.0519396 -4.28259e-20)
(4.93705 0.0603416 -4.247e-20)
(4.91813 0.114477 4.19714e-20)
(4.87071 0.144228 4.17615e-20)
(-0.0411776 0.101501 2.14279e-20)
(0.194814 -0.380337 2.12308e-20)
(0.625205 -1.15533 1.3841e-20)
(1.02272 -1.71966 6.53304e-21)
(1.3351 -2.02639 0)
(1.55209 -2.11795 -1.23483e-20)
(1.68818 -2.05358 5.44351e-21)
(1.76476 -1.88573 0)
(1.80109 -1.65538 5.86337e-21)
(1.81146 -1.39156 0)
(1.8048 -1.11209 -9.61202e-21)
(1.78494 -0.826651 0)
(1.75208 -0.540432 -4.89086e-21)
(1.70363 -0.257562 -9.40368e-21)
(1.63692 0.0180387 9.10042e-21)
(1.55001 0.282368 0)
(1.44416 0.531343 8.7389e-21)
(1.32038 0.761703 0)
(1.18139 0.971932 0)
(1.02987 1.16062 8.75101e-21)
(0.871573 1.32816 0)
(0.703584 1.47033 -7.75345e-22)
(0.5389 1.56347 0)
(0.339035 1.67394 0)
(0.078545 1.85619 8.26442e-22)
(-0.206376 2.04419 9.35203e-21)
(-0.504534 2.22251 8.47036e-21)
(-0.804027 2.36641 9.22999e-21)
(-1.10027 2.45034 0)
(-1.39443 2.4653 1.68207e-20)
(-1.70191 2.39952 0)
(-2.01387 2.25608 7.42352e-21)
(-2.32905 2.05168 0)
(-2.63039 1.79354 0)
(-2.92984 1.49821 -6.1596e-21)
(-3.20861 1.16915 0)
(-3.49412 0.897048 5.16842e-21)
(-3.78188 0.754432 5.54288e-22)
(-4.10022 0.797291 -8.6682e-21)
(-4.43808 0.960247 6.89737e-21)
(-4.7686 1.14716 0)
(-5.07239 1.26118 0)
(-5.32672 1.34184 1.25704e-21)
(-5.56268 1.34941 0)
(-5.76279 1.3162 2.82747e-21)
(-5.92828 1.25718 -2.59969e-21)
(-6.02916 1.14088 -2.38992e-21)
(-6.07713 0.992796 0)
(-6.08604 0.838384 1.99822e-21)
(-6.07451 0.67789 1.85464e-21)
(-6.04175 0.521545 -1.48656e-21)
(-6.00412 0.376279 1.6339e-21)
(-5.95556 0.242694 1.54683e-21)
(-5.90612 0.125529 0)
(-5.85029 0.0217876 0)
(-5.79264 -0.0675144 -1.37134e-21)
(-5.72966 -0.145672 0)
(-5.663 -0.213517 0)
(-5.59061 -0.27362 2.69144e-21)
(-5.51293 -0.32715 2.75502e-21)
(-5.42882 -0.375866 0)
(-5.33834 -0.420822 0)
(-5.24082 -0.463308 0)
(-5.13591 -0.504284 0)
(-5.02269 -0.544651 3.86252e-21)
(-4.90031 -0.584874 -3.56284e-21)
(-4.76762 -0.625071 -4.77669e-21)
(-4.62365 -0.66493 -1.00363e-20)
(-4.46773 -0.703683 0)
(-4.29966 -0.7402 6.16574e-22)
(-4.11987 -0.773204 0)
(-3.92939 -0.801489 8.4132e-21)
(-3.72967 -0.82422 4.86172e-22)
(-3.52257 -0.840874 1.02507e-20)
(-3.31013 -0.851264 -1.12e-20)
(-3.09452 -0.855537 3.41129e-22)
(-2.87792 -0.85424 0)
(-2.66226 -0.848325 -1.37435e-20)
(-2.44916 -0.839154 -1.48975e-20)
(-2.23963 -0.828407 -3.12755e-20)
(-2.03408 -0.817855 0)
(-1.83235 -0.809198 1.7123e-20)
(-1.63364 -0.80392 0)
(-1.4366 -0.803151 -3.73637e-20)
(-1.23946 -0.807562 1.94981e-20)