/*--------------------------------*- C++ -*----------------------------------*\
  =========                 |
  \\      /  F ield         | OpenFOAM: The Open Source CFD Toolbox
   \\    /   O peration     | Website:  https://openfoam.org
    \\  /    A nd           | Version:  10
     \\/     M anipulation  |
\*---------------------------------------------------------------------------*/
FoamFile
{
    format      ascii;
    class       volVectorField;
    location    "0.41";
    object      Ua;
}
// * * * * * * * * * * * * * * * * * * * * * * * * * * * * * * * * * * * * * //

dimensions      [0 1 -1 0 0 0 0];

internalField   nonuniform List<vector> 
12225
(
(0.000122406 -1.36834e-05 0)
(0.000358329 -1.27054e-05 0)
(0.000573642 -1.09337e-05 0)
(0.000765288 -8.91813e-06 0)
(0.000934251 -7.02388e-06 0)
(0.00108341 -5.42765e-06 0)
(0.00121602 -4.18348e-06 0)
(0.0013349 -3.28573e-06 0)
(0.00144229 -2.71075e-06 0)
(0.00153994 -2.44131e-06 0)
(0.00162947 -2.48389e-06 0)
(0.00171302 -2.89046e-06 0)
(0.00179452 -3.80174e-06 0)
(0.00188284 -5.55866e-06 0)
(0.00200123 -9.06508e-06 0)
(0.00222867 -1.73762e-05 0)
(0.00305734 -4.95444e-05 0)
(0.0184573 -0.00242219 0)
(7.45216e-05 -3.61656e-05 0)
(0.000218915 -3.38026e-05 0)
(0.000351938 -2.93022e-05 0)
(0.000470999 -2.40804e-05 0)
(0.000576081 -1.91073e-05 0)
(0.0006687 -1.48711e-05 0)
(0.000751032 -1.15348e-05 0)
(0.000825427 -9.09764e-06 0)
(0.000894258 -7.50443e-06 0)
(0.000959997 -6.71346e-06 0)
(0.00102548 -6.74459e-06 0)
(0.00109441 -7.73977e-06 0)
(0.00117252 -1.00825e-05 0)
(0.00127013 -1.47044e-05 0)
(0.00141005 -2.40652e-05 0)
(0.00165958 -4.62928e-05 0)
(0.00236909 -0.000128115 0)
(0.0112539 -0.004791 0)
(5.9079e-05 -5.12236e-05 0)
(0.000174596 -4.83377e-05 0)
(0.000283202 -4.23256e-05 0)
(0.000382634 -3.51217e-05 0)
(0.00047242 -2.81144e-05 0)
(0.000553364 -2.2043e-05 0)
(0.000626992 -1.71851e-05 0)
(0.000695184 -1.35721e-05 0)
(0.000760019 -1.11463e-05 0)
(0.000823793 -9.86099e-06 0)
(0.000889209 -9.75515e-06 0)
(0.000959832 -1.10445e-05 0)
(0.0010411 -1.42986e-05 0)
(0.00114272 -2.08895e-05 0)
(0.00128565 -3.43696e-05 0)
(0.00152975 -6.59805e-05 0)
(0.00217336 -0.000173817 0)
(0.00988236 -0.00439399 0)
(4.93424e-05 -6.20071e-05 0)
(0.000146696 -5.90944e-05 0)
(0.000240085 -5.22605e-05 0)
(0.000327537 -4.37663e-05 0)
(0.000408322 -3.53126e-05 0)
(0.000482757 -2.7855e-05 0)
(0.000551872 -2.17903e-05 0)
(0.00061714 -1.72017e-05 0)
(0.000680338 -1.40497e-05 0)
(0.000743541 -1.22985e-05 0)
(0.000809268 -1.20137e-05 0)
(0.000880882 -1.34756e-05 0)
(0.000963511 -1.73977e-05 0)
(0.00106615 -2.54547e-05 0)
(0.0012078 -4.18373e-05 0)
(0.00144132 -7.91021e-05 0)
(0.00202314 -0.000196912 0)
(0.00881591 -0.00359959 0)
(4.21641e-05 -6.94733e-05 0)
(0.00012609 -6.68858e-05 0)
(0.00020817 -5.97285e-05 0)
(0.000286703 -5.04574e-05 0)
(0.000360837 -4.10053e-05 0)
(0.000430561 -3.25124e-05 0)
(0.000496531 -2.54927e-05 0)
(0.000559882 -2.00932e-05 0)
(0.000622114 -1.63059e-05 0)
(0.000685079 -1.41169e-05 0)
(0.0007511 -1.36193e-05 0)
(0.00082332 -1.51423e-05 0)
(0.000906509 -1.94867e-05 0)
(0.00100892 -2.8466e-05 0)
(0.00114759 -4.64155e-05 0)
(0.00136895 -8.55786e-05 0)
(0.0018936 -0.0002004 0)
(0.0077767 -0.00269133 0)
(3.65021e-05 -7.41288e-05 0)
(0.000109786 -7.21287e-05 0)
(0.000182799 -6.50282e-05 0)
(0.000254099 -5.5386e-05 0)
(0.0003228 -4.53027e-05 0)
(0.000388684 -3.60714e-05 0)
(0.000452125 -2.83159e-05 0)
(0.000513979 -2.22514e-05 0)
(0.000575497 -1.79108e-05 0)
(0.000638317 -1.53074e-05 0)
(0.000704561 -1.4559e-05 0)
(0.000777133 -1.60226e-05 0)
(0.000860435 -2.05225e-05 0)
(0.000961986 -2.98405e-05 0)
(0.00109702 -4.80021e-05 0)
(0.00130655 -8.5662e-05 0)
(0.00178174 -0.000187522 0)
(0.00676733 -0.00184792 0)
(3.18659e-05 -7.62906e-05 0)
(9.63846e-05 -7.50738e-05 0)
(0.000161821 -6.83218e-05 0)
(0.000226971 -5.86353e-05 0)
(0.000290985 -4.82305e-05 0)
(0.000353524 -3.85211e-05 0)
(0.000414758 -3.02277e-05 0)
(0.000475311 -2.36334e-05 0)
(0.000536211 -1.88156e-05 0)
(0.000598889 -1.58169e-05 0)
(0.000665266 -1.4774e-05 0)
(0.000738004 -1.60483e-05 0)
(0.000821145 -2.04253e-05 0)
(0.000921552 -2.95068e-05 0)
(0.00105302 -4.66701e-05 0)
(0.00125243 -8.02226e-05 0)
(0.00168868 -0.000163168 0)
(0.00585617 -0.00118334 0)
(2.79792e-05 -7.61853e-05 0)
(8.51019e-05 -7.58912e-05 0)
(0.000144038 -6.97046e-05 0)
(0.000203805 -6.02344e-05 0)
(0.000263639 -4.97703e-05 0)
(0.000323148 -3.9814e-05 0)
(0.000382358 -3.1165e-05 0)
(0.000441704 -2.41683e-05 0)
(0.000502014 -1.89452e-05 0)
(0.000564523 -1.55668e-05 0)
(0.000630948 -1.41818e-05 0)
(0.000703721 -1.51341e-05 0)
(0.000786558 -1.91192e-05 0)
(0.000885795 -2.74588e-05 0)
(0.00101421 -4.27126e-05 0)
(0.00120594 -7.06753e-05 0)
(0.00161396 -0.000133355 0)
(0.00508966 -0.00072568 0)
(2.46676e-05 -7.39969e-05 0)
(7.54429e-05 -7.4711e-05 0)
(0.000128698 -6.92373e-05 0)
(0.00018366 -6.01841e-05 0)
(0.000239686 -4.98805e-05 0)
(0.000296385 -3.98823e-05 0)
(0.000353688 -3.10458e-05 0)
(0.000411876 -2.37668e-05 0)
(0.0004716 -1.82067e-05 0)
(0.000533907 -1.44621e-05 0)
(0.000600321 -1.26861e-05 0)
(0.000673057 -1.31888e-05 0)
(0.000755558 -1.65457e-05 0)
(0.000853782 -2.37594e-05 0)
(0.000979887 -3.65797e-05 0)
(0.00116638 -5.86248e-05 0)
(0.00155457 -0.000103402 0)
(0.00447317 -0.000439445 0)
(2.181e-05 -6.9895e-05 0)
(6.70629e-05 -7.1646e-05 0)
(0.000115281 -6.69647e-05 0)
(0.000165891 -5.84721e-05 0)
(0.000218402 -4.85086e-05 0)
(0.000272464 -3.86483e-05 0)
(0.000327948 -2.9778e-05 0)
(0.000385011 -2.23292e-05 0)
(0.000444148 -1.64959e-05 0)
(0.000506232 -1.23959e-05 0)
(0.000572604 -1.01813e-05 0)
(0.000645285 -1.01196e-05 0)
(0.000727504 -1.26599e-05 0)
(0.000824973 -1.85064e-05 0)
(0.000949524 -2.87444e-05 0)
(0.00113268 -4.54261e-05 0)
(0.0015065 -7.6517e-05 0)
(0.00399012 -0.00027018 0)
(1.93142e-05 -6.40553e-05 0)
(5.9698e-05 -6.68052e-05 0)
(0.000103386 -6.29257e-05 0)
(0.000150011 -5.50827e-05 0)
(0.000199255 -4.56005e-05 0)
(0.000250832 -3.60332e-05 0)
(0.000304581 -2.72669e-05 0)
(0.000360559 -1.97509e-05 0)
(0.000419121 -1.3702e-05 0)
(0.000480982 -9.25411e-06 0)
(0.000547316 -6.55457e-06 0)
(0.000619973 -5.82889e-06 0)
(0.000702011 -7.41363e-06 0)
(0.000798988 -1.17792e-05 0)
(0.000922553 -1.95577e-05 0)
(0.0011035 -3.1872e-05 0)
(0.00146609 -5.35682e-05 0)
(0.0036184 -0.000171424 0)
(1.68944e-05 -5.72501e-05 0)
(5.25861e-05 -6.08428e-05 0)
(9.1976e-05 -5.76761e-05 0)
(0.000134886 -5.04836e-05 0)
(0.00018113 -4.15479e-05 0)
(0.00023046 -3.23695e-05 0)
(0.000282667 -2.38066e-05 0)
(0.000337713 -1.63078e-05 0)
(0.000395823 -1.01019e-05 0)
(0.000457569 -5.33361e-06 0)
(0.000523974 -2.14619e-06 0)
(0.000596735 -7.02434e-07 0)
(0.000678783 -1.32516e-06 0)
(0.000775558 -4.31882e-06 0)
(0.000898511 -1.00433e-05 0)
(0.00107768 -1.92156e-05 0)
(0.00143034 -3.51321e-05 0)
(0.00333506 -0.000113292 0)
(1.52826e-05 -4.93576e-05 0)
(4.77399e-05 -5.36007e-05 0)
(8.3977e-05 -5.10335e-05 0)
(0.000124026 -4.44778e-05 0)
(0.000167869 -3.61414e-05 0)
(0.000215344 -2.74357e-05 0)
(0.000266252 -1.91586e-05 0)
(0.000320503 -1.17401e-05 0)
(0.000378238 -5.40701e-06 0)
(0.000439879 -2.47908e-07 0)
(0.000506318 3.54119e-06 0)
(0.000579227 5.76611e-06 0)
(0.000661471 6.1678e-06 0)
(0.000758367 4.52616e-06 0)
(0.000881214 5.76055e-07 0)
(0.00105947 -6.26738e-06 0)
(0.00140587 -1.84301e-05 0)
(0.00316267 -7.30859e-05 0)
(1.3615e-05 -3.95405e-05 0)
(4.26484e-05 -4.41311e-05 0)
(7.54742e-05 -4.20145e-05 0)
(0.000112442 -3.61015e-05 0)
(0.00015372 -2.84525e-05 0)
(0.000199223 -2.03386e-05 0)
(0.000248746 -1.24391e-05 0)
(0.000302148 -5.15665e-06 0)
(0.000359316 1.47801e-06 0)
(0.000420609 7.16213e-06 0)
(0.000487078 1.16864e-05 0)
(0.000560232 1.48677e-05 0)
(0.00064271 1.65605e-05 0)
(0.000739675 1.65706e-05 0)
(0.000862217 1.46186e-05 0)
(0.0010392 1.01635e-05 0)
(0.00137925 1.4525e-06 0)
(0.00302441 -3.32255e-05 0)
(1.17833e-05 -2.78673e-05 0)
(3.7004e-05 -3.20595e-05 0)
(6.60619e-05 -3.00837e-05 0)
(9.97744e-05 -2.47795e-05 0)
(0.000138416 -1.78552e-05 0)
(0.000181933 -1.0448e-05 0)
(0.000229928 -2.92373e-06 0)
(0.000281954 4.46435e-06 0)
(0.000338324 1.14238e-05 0)
(0.000399612 1.76461e-05 0)
(0.00046641 2.30173e-05 0)
(0.000539982 2.74521e-05 0)
(0.000622816 3.08421e-05 0)
(0.000719875 3.3042e-05 0)
(0.00084192 3.38189e-05 0)
(0.0010171 3.27511e-05 0)
(0.00135158 2.90908e-05 0)
(0.00295559 2.12457e-05 0)
(9.34421e-06 -1.46258e-05 0)
(2.96826e-05 -1.69657e-05 0)
(5.43944e-05 -1.4723e-05 0)
(8.48857e-05 -1.00876e-05 0)
(0.000120791 -3.66633e-06 0)
(0.00016154 3.33398e-06 0)
(0.000207518 1.05418e-05 0)
(0.000258938 1.79127e-05 0)
(0.0003156 2.50497e-05 0)
(0.000377452 3.19073e-05 0)
(0.000444969 3.84366e-05 0)
(0.000519325 4.4597e-05 0)
(0.000602885 5.03805e-05 0)
(0.000700402 5.58513e-05 0)
(0.000822283 6.12113e-05 0)
(0.000996275 6.70765e-05 0)
(0.00133089 7.64916e-05 0)
(0.00307702 0.000138534 0)
(4.69652e-06 2.27029e-07 0)
(1.63988e-05 1.89198e-06 0)
(3.4257e-05 4.76055e-06 0)
(5.9865e-05 8.76953e-06 0)
(9.33528e-05 1.43716e-05 0)
(0.00013413 2.07821e-05 0)
(0.000181078 2.76103e-05 0)
(0.000233528 3.48369e-05 0)
(0.000291218 4.24279e-05 0)
(0.000354229 5.03622e-05 0)
(0.000423089 5.86419e-05 0)
(0.000499014 6.73281e-05 0)
(0.000584464 7.66446e-05 0)
(0.000684421 8.72373e-05 0)
(0.000809792 0.000100885 0)
(0.000989906 0.000123103 0)
(0.00134781 0.000178358 0)
(0.00382932 0.00071937 0)
(1.09498e-05 1.85056e-05 0)
(3.34969e-05 2.56857e-05 0)
(5.8394e-05 3.0443e-05 0)
(8.74168e-05 3.46672e-05 0)
(0.000121681 3.94153e-05 0)
(0.000161639 4.49281e-05 0)
(0.00020729 5.13186e-05 0)
(0.000258512 5.86792e-05 0)
(0.000315263 6.70935e-05 0)
(0.000377735 7.66425e-05 0)
(0.000446564 8.74221e-05 0)
(0.000523211 9.95949e-05 0)
(0.000610824 0.000113523 0)
(0.000716373 0.000130091 0)
(0.000856885 0.000151667 0)
(0.00108458 0.000186198 0)
(0.0016778 0.000278043 0)
(0.00889836 0.00265725 0)
(1.50851e-05 4.42911e-05 0)
(4.6372e-05 5.5416e-05 0)
(8.01412e-05 6.26132e-05 0)
(0.000117026 6.78314e-05 0)
(0.000157745 7.25817e-05 0)
(0.000202837 7.78311e-05 0)
(0.000252634 8.42326e-05 0)
(0.000307356 9.2266e-05 0)
(0.000367258 0.000102314 0)
(0.000432806 0.000114715 0)
(0.000504952 0.000129835 0)
(0.000585648 0.000148247 0)
(0.000679004 0.000171154 0)
(0.000794286 0.000201489 0)
(0.000956743 0.000247705 0)
(0.00126943 0.000344878 0)
(0.00312231 0.00100985 0)
(0.0115662 -0.000264701 0)
(1.69573e-05 7.22847e-05 0)
(5.26167e-05 8.38866e-05 0)
(9.1737e-05 9.17565e-05 0)
(0.00013442 9.73159e-05 0)
(0.000180974 0.000102107 0)
(0.000231731 0.000107433 0)
(0.00028699 0.000114352 0)
(0.000347052 0.000123745 0)
(0.000412332 0.000136377 0)
(0.000483601 0.000152953 0)
(0.000562483 0.000174247 0)
(0.000652594 0.000201452 0)
(0.0007623 0.000237206 0)
(0.000913212 0.000289045 0)
(0.00117925 0.000385687 0)
(0.00212436 0.00075369 0)
(0.0102606 0.00284656 0)
(0.018563 -0.0065718 0)
(1.99609e-05 9.50124e-05 0)
(6.16873e-05 0.000105094 0)
(0.000107015 0.000112005 0)
(0.000156 0.000116877 0)
(0.000208835 0.000121221 0)
(0.000265812 0.000126504 0)
(0.000327293 0.000134073 0)
(0.000393725 0.000145182 0)
(0.000465751 0.000161047 0)
(0.000544519 0.000182901 0)
(0.000632496 0.000212142 0)
(0.000735564 0.000250807 0)
(0.000869312 0.000303164 0)
(0.0010849 0.00038225 0)
(0.00166776 0.000559204 0)
(0.00858965 0.00452756 0)
(0.0186147 -0.00124526 0)
(0.0216772 -0.00761846 0)
(2.36606e-05 0.000112068 0)
(7.26599e-05 0.000120159 0)
(0.000125075 0.000125521 0)
(0.000181036 0.000129239 0)
(0.000240764 0.000132843 0)
(0.000304645 0.000137946 0)
(0.000373229 0.000146173 0)
(0.00044726 0.000159227 0)
(0.000527786 0.000178997 0)
(0.000616568 0.000207714 0)
(0.000717243 0.000248347 0)
(0.000838606 0.00030608 0)
(0.00100583 0.000394998 0)
(0.00132735 0.000580464 0)
(0.00364167 0.00222766 0)
(0.0138615 0.00241291 0)
(0.0220184 -0.00651586 0)
(0.0218504 -0.00640276 0)
(2.80914e-05 0.000122509 0)
(8.57126e-05 0.000128584 0)
(0.00014631 0.000132221 0)
(0.000210096 0.000134586 0)
(0.000277413 0.000137262 0)
(0.000348864 0.000141992 0)
(0.000425372 0.000150671 0)
(0.000508236 0.000165521 0)
(0.000599319 0.000189363 0)
(0.000701715 0.000226049 0)
(0.000822056 0.000281381 0)
(0.000979244 0.000366642 0)
(0.00124653 0.000518889 0)
(0.00223417 0.00105008 0)
(0.011465 0.0053691 0)
(0.0214714 -0.00523351 0)
(0.0229048 -0.00635411 0)
(0.0225227 -0.00576471 0)
(3.33122e-05 0.000126194 0)
(0.000101037 0.000130409 0)
(0.000171055 0.000132383 0)
(0.000243626 0.000133385 0)
(0.000319261 0.000135046 0)
(0.000398901 0.000139187 0)
(0.000484037 0.000147921 0)
(0.000576863 0.000163984 0)
(0.000680625 0.000191329 0)
(0.000800651 0.000236128 0)
(0.000948279 0.000308949 0)
(0.00115977 0.000432453 0)
(0.0016399 0.00069772 0)
(0.00678706 0.00578089 0)
(0.0186549 0.0009274 0)
(0.0250878 -0.00655111 0)
(0.0240508 -0.00568102 0)
(0.0233169 -0.00503517 0)
(3.94516e-05 0.000123416 0)
(0.000119005 0.000126011 0)
(0.000199896 0.000126526 0)
(0.000282373 0.000126301 0)
(0.000367143 0.000126959 0)
(0.000455579 0.00013032 0)
(0.000549928 0.0001386 0)
(0.000653668 0.000154933 0)
(0.000772211 0.000184404 0)
(0.000914727 0.000236162 0)
(0.00110072 0.000329016 0)
(0.00139682 0.000515729 0)
(0.00245879 0.00117722 0)
(0.0137314 0.00908802 0)
(0.0249317 -0.00584027 0)
(0.025422 -0.00552869 0)
(0.0247116 -0.00480695 0)
(0.0239251 -0.00421514 0)
(4.6777e-05 0.000114644 0)
(0.000140388 0.000115907 0)
(0.00023404 0.000115267 0)
(0.000327907 0.000114062 0)
(0.0004229 0.000113837 0)
(0.000520893 0.000116307 0)
(0.000625053 0.000123637 0)
(0.000740502 0.00013911 0)
(0.000875727 0.000168604 0)
(0.00104655 0.000224165 0)
(0.00129113 0.000335315 0)
(0.00176478 0.000618841 0)
(0.00495393 0.00502504 0)
(0.0181041 0.00211951 0)
(0.0276747 -0.00600291 0)
(0.0264207 -0.00476668 0)
(0.0253864 -0.00395819 0)
(0.0244404 -0.00338929 0)
(5.58669e-05 0.000100335 0)
(0.000166864 0.000100592 0)
(0.000276144 9.91735e-05 0)
(0.000383731 9.73316e-05 0)
(0.000490741 9.64477e-05 0)
(0.000599609 9.80367e-05 0)
(0.000714552 0.000104041 0)
(0.000842596 0.000117564 0)
(0.000996046 0.000144626 0)
(0.00120001 0.000198951 0)
(0.00152726 0.000317209 0)
(0.00249082 0.000651661 0)
(0.0133206 0.0121116 0)
(0.0261269 -0.00558611 0)
(0.0283411 -0.00504828 0)
(0.0271751 -0.00382736 0)
(0.0259384 -0.00306286 0)
(0.0248413 -0.00256421 0)
(6.8213e-05 8.07776e-05 0)
(0.000202776 8.03867e-05 0)
(0.00033311 7.86244e-05 0)
(0.000458967 7.65616e-05 0)
(0.000581663 7.53367e-05 0)
(0.000704272 7.61724e-05 0)
(0.000832167 8.06402e-05 0)
(0.00097447 9.13367e-05 0)
(0.00114798 0.000113678 0)
(0.00138807 0.00016164 0)
(0.0017932 0.000281458 0)
(0.00306828 0.000752918 0)
(0.0179885 0.013064 0)
(0.0312824 -0.00705582 0)
(0.0296995 -0.0040787 0)
(0.0278895 -0.00280332 0)
(0.0263669 -0.00214957 0)
(0.0251256 -0.00176276 0)
(8.97344e-05 5.58473e-05 0)
(0.000265286 5.51856e-05 0)
(0.000432004 5.35464e-05 0)
(0.000589037 5.17204e-05 0)
(0.000737844 5.05226e-05 0)
(0.000882247 5.08018e-05 0)
(0.00102896 5.36364e-05 0)
(0.00118957 6.08383e-05 0)
(0.0013865 7.64208e-05 0)
(0.00167189 0.000112443 0)
(0.00221053 0.000228372 0)
(0.0042273 0.00137988 0)
(0.0214634 0.00612565 0)
(0.0347711 -0.00550863 0)
(0.0309725 -0.00265602 0)
(0.0284252 -0.00168406 0)
(0.0266451 -0.00124868 0)
(0.0252967 -0.0010089 0)
(0.000213624 2.10389e-05 0)
(0.00062733 2.06879e-05 0)
(0.00101117 1.99584e-05 0)
(0.00136061 1.91631e-05 0)
(0.00167306 1.86182e-05 0)
(0.00194816 1.86445e-05 0)
(0.00218905 1.96445e-05 0)
(0.00240642 2.22968e-05 0)
(0.00263022 2.8149e-05 0)
(0.00295532 4.23449e-05 0)
(0.00389251 9.72648e-05 0)
(0.0199265 0.000941794 0)
(0.0392769 0.000921019 0)
(0.0385264 -0.00216441 0)
(0.0317766 -0.000917194 0)
(0.0286931 -0.00055384 0)
(0.0267705 -0.000403294 0)
(0.0253703 -0.000323454 0)
(0.000101304 -0.000216533 -2.79743e-30)
(0.000304727 -0.000216209 2.79084e-30)
(0.0005094 -0.00021565 0)
(0.000715107 -0.000214853 0)
(0.00092162 -0.000213819 0)
(0.00112871 -0.000212545 -2.73376e-30)
(0.00133614 -0.000211035 0)
(0.00154367 -0.000209292 0)
(0.00175106 -0.000207319 0)
(0.00195806 -0.000205122 0)
(0.00216443 -0.000202709 2.5944e-30)
(0.00236994 -0.000200087 0)
(0.00257434 -0.000197267 0)
(0.0027774 -0.000194258 0)
(0.0029789 -0.000191072 0)
(0.00317862 -0.000187721 2.38871e-30)
(0.00337634 -0.000184218 0)
(0.00357187 -0.000180576 0)
(0.00376501 -0.000176809 0)
(0.00395558 -0.000172931 0)
(0.00414341 -0.000168956 0)
(0.00432835 -0.000164897 0)
(0.00451025 -0.000160769 0)
(0.00468898 -0.000156586 1.96847e-30)
(0.00486441 -0.00015236 -1.91179e-30)
(0.00503645 -0.000148105 1.85476e-30)
(0.00520498 -0.000143832 1.79754e-30)
(0.00536995 -0.000139554 0)
(0.00553126 -0.000135281 0)
(0.00568887 -0.000131025 -1.6263e-30)
(0.00584272 -0.000126794 -1.5698e-30)
(0.00599278 -0.000122597 0)
(0.00613903 -0.000118444 0)
(0.00628144 -0.000114342 -1.40369e-30)
(0.00642002 -0.000110297 0)
(0.00655476 -0.000106316 0)
(0.00668568 -0.000102405 1.24463e-30)
(0.00681279 -9.85674e-05 0)
(0.00693611 -9.48084e-05 1.14349e-30)
(0.00705569 -9.11315e-05 2.18911e-30)
(0.00717155 -8.75397e-05 0)
(0.00728375 -8.40355e-05 0)
(0.00739232 -8.06212e-05 0)
(0.00749732 -7.72982e-05 0)
(0.00759881 -7.40676e-05 0)
(0.00769684 -7.09304e-05 1.65179e-30)
(0.00779149 -6.78869e-05 1.57088e-30)
(0.00788281 -6.49371e-05 1.49248e-30)
(0.00797087 -6.2081e-05 0)
(0.00805574 -5.93179e-05 -1.34314e-30)
(0.0081375 -5.66472e-05 0)
(0.00821621 -5.40679e-05 1.20364e-30)
(0.00829196 -5.15789e-05 1.13751e-30)
(0.00836481 -4.9179e-05 0)
(0.00843484 -4.68666e-05 0)
(0.00850212 -4.46402e-05 0)
(0.00856673 -4.24982e-05 8.96299e-31)
(0.00862875 -4.04386e-05 0)
(0.00868824 -3.84598e-05 0)
(0.00874529 -3.65597e-05 0)
(0.00879997 -3.47365e-05 0)
(0.00885235 -3.2988e-05 0)
(0.00890251 -3.13123e-05 0)
(0.0089505 -2.97073e-05 0)
(0.00899642 -2.81709e-05 0)
(0.00904032 -2.6701e-05 -4.76769e-31)
(0.00908228 -2.52956e-05 0)
(0.00912235 -2.39526e-05 0)
(0.00916061 -2.267e-05 3.69732e-31)
(0.00919713 -2.14457e-05 3.37218e-31)
(0.00923196 -2.02777e-05 0)
(0.00926516 -1.91641e-05 -2.76637e-31)
(0.0092968 -1.81028e-05 2.48455e-31)
(0.00932694 -1.7092e-05 0)
(0.00935564 -1.61298e-05 -1.96063e-31)
(0.00938294 -1.52143e-05 0)
(0.00940891 -1.43437e-05 0)
(0.0094336 -1.35163e-05 1.26669e-31)
(0.00945705 -1.27303e-05 0)
(0.00947933 -1.19841e-05 -8.59831e-32)
(0.00950048 -1.12761e-05 0)
(0.00952054 -1.06045e-05 4.93451e-32)
(0.00953957 -9.96795e-06 3.24426e-32)
(0.00955761 -9.36486e-06 1.64276e-32)
(0.00957469 -8.7938e-06 2.52795e-33)
(0.00959087 -8.25335e-06 2.6181e-32)
(0.00960618 -7.74214e-06 0)
(0.00962067 -7.25885e-06 0)
(0.00963436 -6.80219e-06 0)
(0.0096473 -6.37093e-06 1.2616e-31)
(0.00965953 -5.96389e-06 1.47784e-31)
(0.00967107 -5.5799e-06 -1.68179e-31)
(0.00968195 -5.21786e-06 0)
(0.00969222 -4.87669e-06 2.05531e-31)
(0.00970189 -4.55539e-06 2.22604e-31)
(0.00971101 -4.25294e-06 2.3867e-31)
(0.00971959 -3.96841e-06 0)
(0.00972767 -3.70088e-06 0)
(0.00973526 -3.44948e-06 0)
(0.0097424 -3.21337e-06 2.93897e-31)
(0.00974911 -2.99174e-06 0)
(0.00975541 -2.78382e-06 0)
(0.00976132 -2.58889e-06 -3.27071e-31)
(0.00976686 -2.40622e-06 0)
(0.00977205 -2.23516e-06 0)
(0.00977692 -2.07505e-06 -3.54375e-31)
(0.00978148 -1.92528e-06 0)
(0.00978574 -1.78527e-06 0)
(0.00978973 -1.65446e-06 3.76723e-31)
(0.00979346 -1.53232e-06 3.83213e-31)
(0.00979694 -1.41834e-06 0)
(0.00980019 -1.31204e-06 -3.94922e-31)
(0.00980322 -1.21297e-06 0)
(0.00980605 -1.12069e-06 4.05089e-31)
(0.00980869 -1.03479e-06 0)
(0.00981114 -9.54868e-07 4.13904e-31)
(0.00981342 -8.80567e-07 4.17849e-31)
(0.00981555 -8.1153e-07 0)
(0.00981752 -7.47427e-07 0)
(0.00981936 -6.87941e-07 0)
(0.00982106 -6.32776e-07 0)
(0.00982264 -5.8165e-07 0)
(0.00982411 -5.34298e-07 0)
(0.00982546 -4.90469e-07 0)
(0.00982672 -4.49928e-07 4.40745e-31)
(0.00982788 -4.12451e-07 -4.42733e-31)
(0.00982896 -3.77828e-07 0)
(0.00982995 -3.45862e-07 0)
(0.00983087 -3.16366e-07 0)
(0.00983172 -2.89166e-07 0)
(0.0098325 -2.64096e-07 -9.01243e-31)
(0.00983322 -2.41001e-07 0)
(0.00983388 -2.19734e-07 9.05962e-31)
(0.00983449 -2.00158e-07 -9.08044e-31)
(0.00983504 -1.82142e-07 0)
(0.00983556 -1.65563e-07 0)
(0.00983603 -1.50305e-07 0)
(0.00983646 -1.36256e-07 9.14842e-31)
(0.00983685 -1.2331e-07 9.16217e-31)
(0.00983721 -1.11365e-07 0)
(0.00983754 -1.00321e-07 9.18656e-31)
(0.00983784 -9.00803e-08 9.19739e-31)
(0.0098381 -8.05467e-08 -9.20755e-31)
(0.00983835 -7.16217e-08 0)
(0.00983856 -6.32046e-08 0)
(0.00983875 -5.51895e-08 -9.23438e-31)
(0.00983892 -4.74627e-08 0)
(0.00983906 -3.98996e-08 0)
(0.00983919 -3.23602e-08 0)
(0.00983928 -2.46841e-08 0)
(0.00983935 -1.66841e-08 9.27474e-31)
(0.00983939 -8.13765e-09 9.28362e-31)
(0.00983941 1.22348e-09 0)
(0.00983938 1.17266e-08 9.30416e-31)
(0.00983932 2.37748e-08 0)
(0.00983921 3.78701e-08 0)
(0.00983904 5.46408e-08 9.34821e-31)
(0.00983881 7.48793e-08 0)
(0.00983849 9.95901e-08 9.39419e-31)
(0.00983807 1.30054e-07 0)
(0.00983751 1.6791e-07 0)
(0.00983679 2.15273e-07 9.51217e-31)
(0.00983586 2.74878e-07 0)
(0.00983467 3.50292e-07 9.64975e-31)
(0.00983313 4.46193e-07 0)
(0.00983114 5.68776e-07 0)
(0.00982859 7.26317e-07 0)
(0.0098253 9.30014e-07 -1.02403e-30)
(0.00982103 1.19523e-06 0)
(0.00981547 1.54346e-06 1.08654e-30)
(0.00980821 2.00544e-06 0)
(0.00979863 2.62643e-06 0)
(0.00978589 3.47557e-06 0)
(0.00976874 4.66367e-06 0)
(0.00974523 6.37977e-06 0)
(0.00971223 8.97481e-06 0)
(0.00966414 1.31819e-05 0)
(0.00958961 2.08195e-05 -6.1166e-30)
(0.00946002 3.77174e-05 0)
(0.0091728 9.07023e-05 0)
(0.000101794 -0.000650647 8.40579e-30)
(0.000306197 -0.000649666 -8.38587e-30)
(0.000511848 -0.000647976 0)
(0.000718525 -0.000645569 1.66536e-29)
(0.000925995 -0.00064244 0)
(0.00113402 -0.000638591 -8.2402e-30)
(0.00134237 -0.000634027 -1.63258e-29)
(0.00155078 -0.000628756 -1.61797e-29)
(0.00175901 -0.000622793 0)
(0.00196683 -0.000616156 -1.58344e-29)
(0.00217397 -0.000608866 7.84374e-30)
(0.00238019 -0.000600948 0)
(0.00258526 -0.000592431 0)
(0.00278894 -0.000583348 0)
(0.002991 -0.000573732 0)
(0.00319122 -0.000563622 7.24697e-30)
(0.00338939 -0.000553055 0)
(0.0035853 -0.000542073 1.38429e-29)
(0.00377877 -0.000530717 0)
(0.00396961 -0.000519028 0)
(0.00415766 -0.000507051 -1.29106e-29)
(0.00434277 -0.000494826 0)
(0.00452478 -0.000482396 1.2256e-29)
(0.00470356 -0.000469802 6.01653e-30)
(0.00487901 -0.000457084 -5.85008e-30)
(0.00505101 -0.00044428 5.68256e-30)
(0.00521947 -0.000431428 5.51446e-30)
(0.00538432 -0.000418562 0)
(0.00554548 -0.000405716 0)
(0.00570291 -0.000392921 -5.01106e-30)
(0.00585655 -0.000380206 -1.43964e-29)
(0.00600638 -0.000367598 0)
(0.00615236 -0.000355123 0)
(0.0062945 -0.000342802 -4.35631e-30)
(0.00643278 -0.000330657 0)
(0.00656721 -0.000318705 0)
(0.0066978 -0.000306963 3.88834e-30)
(0.00682457 -0.000295446 0)
(0.00694755 -0.000284165 1.06082e-29)
(0.00706678 -0.000273133 6.89347e-30)
(0.00718229 -0.000262357 0)
(0.00729413 -0.000251846 0)
(0.00740235 -0.000241605 -1.17916e-29)
(0.00750699 -0.000231639 -1.12665e-29)
(0.00760813 -0.000221951 -1.07561e-29)
(0.00770582 -0.000212544 1.55728e-29)
(0.00780012 -0.000203419 5.0741e-30)
(0.0078911 -0.000194576 -4.47073e-30)
(0.00797883 -0.000186013 8.86315e-30)
(0.00806337 -0.000177731 -4.40386e-30)
(0.00814481 -0.000169725 0)
(0.00822322 -0.000161994 3.99331e-30)
(0.00829866 -0.000154535 1.10042e-29)
(0.00837121 -0.000147342 0)
(0.00844095 -0.000140412 0)
(0.00850795 -0.00013374 0)
(0.0085723 -0.000127321 3.08879e-30)
(0.00863405 -0.00012115 0)
(0.0086933 -0.00011522 5.13578e-30)
(0.0087501 -0.000109527 0)
(0.00880455 -0.000104064 4.54851e-30)
(0.0088567 -9.88254e-05 0)
(0.00890664 -9.38047e-05 -4.00847e-30)
(0.00895443 -8.89959e-05 0)
(0.00900014 -8.43928e-05 3.51305e-30)
(0.00904385 -7.99891e-05 -5.13541e-30)
(0.00908562 -7.57786e-05 0)
(0.00912552 -7.17552e-05 -2.84787e-30)
(0.00916361 -6.79126e-05 1.53915e-30)
(0.00919997 -6.42448e-05 1.44348e-30)
(0.00923464 -6.07457e-05 0)
(0.0092677 -5.74095e-05 -3.35798e-30)
(0.0092992 -5.42301e-05 1.18227e-30)
(0.00932921 -5.1202e-05 0)
(0.00935777 -4.83194e-05 -1.0281e-30)
(0.00938495 -4.55769e-05 -1.46998e-30)
(0.00941081 -4.2969e-05 0)
(0.00943538 -4.04903e-05 8.23889e-31)
(0.00945874 -3.81358e-05 0)
(0.00948092 -3.59005e-05 2.56488e-31)
(0.00950197 -3.37793e-05 0)
(0.00952194 -3.17676e-05 -1.46753e-31)
(0.00954089 -2.98607e-05 5.46626e-31)
(0.00955884 -2.80541e-05 1.04715e-30)
(0.00957585 -2.63434e-05 1.82497e-30)
(0.00959196 -2.47244e-05 -1.57006e-30)
(0.0096072 -2.3193e-05 0)
(0.00962162 -2.17452e-05 0)
(0.00963526 -2.03772e-05 0)
(0.00964814 -1.90854e-05 -3.80028e-31)
(0.00966031 -1.7866e-05 -4.67504e-31)
(0.0096718 -1.67157e-05 4.07495e-31)
(0.00968264 -1.56312e-05 0)
(0.00969286 -1.46092e-05 2.25803e-32)
(0.00970249 -1.36467e-05 -2.47376e-31)
(0.00971157 -1.27406e-05 -2.00108e-31)
(0.00972011 -1.18883e-05 0)
(0.00972815 -1.10869e-05 0)
(0.00973571 -1.03338e-05 0)
(0.00974282 -9.62645e-06 -3.76318e-32)
(0.0097495 -8.96253e-06 0)
(0.00975577 -8.33968e-06 9.80305e-31)
(0.00976165 -7.75571e-06 9.81833e-31)
(0.00976717 -7.20851e-06 -1.09943e-30)
(0.00977234 -6.69605e-06 0)
(0.00977719 -6.21641e-06 -1.34418e-30)
(0.00978173 -5.76776e-06 0)
(0.00978597 -5.34833e-06 -1.29532e-30)
(0.00978995 -4.95647e-06 1.5426e-30)
(0.00979366 -4.59057e-06 1.60024e-30)
(0.00979712 -4.24912e-06 0)
(0.00980036 -3.93068e-06 1.18506e-30)
(0.00980338 -3.63388e-06 -1.47586e-30)
(0.0098062 -3.35743e-06 2.89459e-31)
(0.00980882 -3.10008e-06 0)
(0.00981126 -2.86067e-06 3.15383e-31)
(0.00981354 -2.63808e-06 -1.25376e-30)
(0.00981565 -2.43126e-06 0)
(0.00981762 -2.23922e-06 -1.62276e-30)
(0.00981945 -2.06101e-06 -1.64154e-30)
(0.00982114 -1.89575e-06 -1.65894e-30)
(0.00982272 -1.74258e-06 0)
(0.00982417 -1.60073e-06 0)
(0.00982553 -1.46942e-06 0)
(0.00982678 -1.34797e-06 2.11097e-30)
(0.00982794 -1.23569e-06 -4.00175e-31)
(0.00982901 -1.13197e-06 0)
(0.00983 -1.0362e-06 1.74949e-30)
(0.00983091 -9.47837e-07 1.7588e-30)
(0.00983175 -8.66348e-07 0)
(0.00983253 -7.91242e-07 -8.4674e-31)
(0.00983325 -7.22051e-07 3.56518e-30)
(0.0098339 -6.58339e-07 8.60614e-31)
(0.00983451 -5.99691e-07 -4.45769e-30)
(0.00983507 -5.45719e-07 0)
(0.00983558 -4.96052e-07 0)
(0.00983605 -4.50342e-07 0)
(0.00983648 -4.08255e-07 8.8672e-31)
(0.00983687 -3.69473e-07 4.53022e-30)
(0.00983723 -3.33689e-07 3.64699e-30)
(0.00983755 -3.00607e-07 8.97948e-31)
(0.00983785 -2.69933e-07 4.56155e-30)
(0.00983812 -2.41378e-07 -9.04126e-31)
(0.00983836 -2.14649e-07 0)
(0.00983857 -1.89443e-07 0)
(0.00983876 -1.65445e-07 -4.5944e-30)
(0.00983893 -1.42314e-07 0)
(0.00983907 -1.19677e-07 0)
(0.00983919 -9.71166e-08 3.69665e-30)
(0.00983929 -7.41533e-08 0)
(0.00983936 -5.02275e-08 4.63042e-30)
(0.0098394 -2.46747e-08 9.26653e-31)
(0.00983942 3.30606e-09 0)
(0.0098394 3.46921e-08 4.65678e-30)
(0.00983933 7.06878e-08 0)
(0.00983923 1.12791e-07 0)
(0.00983907 1.62878e-07 9.46015e-31)
(0.00983883 2.23314e-07 3.76278e-30)
(0.00983852 2.97097e-07 9.59843e-31)
(0.0098381 3.88049e-07 0)
(0.00983756 5.01065e-07 0)
(0.00983685 6.42447e-07 4.8441e-30)
(0.00983593 8.2036e-07 0)
(0.00983476 1.04543e-06 4.96811e-30)
(0.00983324 1.33163e-06 0)
(0.00983129 1.69738e-06 0)
(0.00982878 2.16736e-06 0)
(0.00982553 2.77487e-06 -1.21481e-30)
(0.00982133 3.56561e-06 0)
(0.00981587 4.60337e-06 1.40296e-30)
(0.00980874 5.97925e-06 0)
(0.00979934 7.82706e-06 0)
(0.00978687 1.03505e-05 5.83741e-30)
(0.00977011 1.38745e-05 -6.55981e-30)
(0.00974726 1.89488e-05 0)
(0.00971539 2.65813e-05 0)
(0.00966959 3.88287e-05 0)
(0.00960077 6.05579e-05 1.79631e-29)
(0.00949141 0.000105885 0)
(0.00931887 0.000227989 -1.01334e-28)
(0.000102786 -0.00108793 5.62324e-29)
(0.000309174 -0.00108627 -7.35774e-33)
(0.000516805 -0.00108341 0)
(0.000725445 -0.00107933 1.71852e-32)
(0.00093485 -0.00107404 0)
(0.00114477 -0.00106752 0)
(0.00135496 -0.0010598 -5.46302e-29)
(0.00156516 -0.00105088 -2.70907e-29)
(0.00177511 -0.0010408 2.67781e-29)
(0.00198455 -0.00102957 -2.65201e-29)
(0.00219323 -0.00101725 0)
(0.0024009 -0.00100388 0)
(0.00260731 -0.000989496 -2.53931e-29)
(0.00281223 -0.000974166 -4.99646e-29)
(0.00301541 -0.000957946 4.90973e-29)
(0.00321663 -0.0009409 0)
(0.00341569 -0.000923096 4.72389e-29)
(0.00361237 -0.000904601 2.32128e-29)
(0.00380649 -0.000885487 0)
(0.00399788 -0.000865826 4.41957e-29)
(0.00418635 -0.00084569 -2.16629e-29)
(0.00437177 -0.00082515 -4.20398e-29)
(0.00455398 -0.000804278 2.0575e-29)
(0.00473288 -0.000783141 0)
(0.00490833 -0.000761808 3.86891e-29)
(0.00508026 -0.000740343 3.75551e-29)
(0.00524856 -0.000718807 0)
(0.00541317 -0.00069726 3.52806e-29)
(0.00557402 -0.000675757 0)
(0.00573107 -0.000654349 3.30171e-29)
(0.00588428 -0.000633085 -1.6087e-29)
(0.00603362 -0.000612009 0)
(0.00617908 -0.000591162 0)
(0.00632065 -0.000570583 0)
(0.00645832 -0.000550303 0)
(0.00659212 -0.000530354 0)
(0.00672205 -0.000510762 0)
(0.00684815 -0.00049155 2.44424e-29)
(0.00697044 -0.000472739 -1.15617e-29)
(0.00708897 -0.000454346 0)
(0.00720377 -0.000436387 0)
(0.00731489 -0.000418871 0)
(0.0074224 -0.00040181 -3.97937e-29)
(0.00752634 -0.000385211 -1.92041e-29)
(0.00762677 -0.000369079 -3.60166e-31)
(0.00772375 -0.000353416 3.64741e-31)
(0.00781736 -0.000338225 -1.63784e-29)
(0.00790767 -0.000323505 -1.5978e-29)
(0.00799473 -0.000309256 3.00887e-29)
(0.00807862 -0.000295473 1.41312e-29)
(0.00815942 -0.000282154 0)
(0.0082372 -0.000269293 1.27552e-29)
(0.00831203 -0.000256884 2.45987e-29)
(0.00838399 -0.000244921 0)
(0.00845316 -0.000233395 0)
(0.00851961 -0.0002223 -1.02857e-29)
(0.00858341 -0.000211625 0)
(0.00864464 -0.000201364 0)
(0.00870338 -0.000191505 2.64139e-29)
(0.0087597 -0.000182039 1.63406e-29)
(0.00881368 -0.000172957 8.10929e-30)
(0.00886538 -0.000164247 0)
(0.00891489 -0.000155901 -7.21799e-30)
(0.00896226 -0.000147907 0)
(0.00900757 -0.000140256 1.83505e-29)
(0.0090509 -0.000132936 -6.01787e-30)
(0.0090923 -0.000125937 -1.04456e-29)
(0.00913185 -0.00011925 -1.50457e-29)
(0.0091696 -0.000112863 0)
(0.00920563 -0.000106767 8.43137e-30)
(0.00924 -0.000100952 0)
(0.00927276 -9.54069e-05 3.18102e-30)
(0.00930399 -9.0123e-05 6.68255e-30)
(0.00933372 -8.50905e-05 6.15378e-30)
(0.00936203 -8.02999e-05 -5.65042e-30)