/*--------------------------------*- C++ -*----------------------------------*\
  =========                 |
  \\      /  F ield         | OpenFOAM: The Open Source CFD Toolbox
   \\    /   O peration     | Website:  https://openfoam.org
    \\  /    A nd           | Version:  10
     \\/     M anipulation  |
\*---------------------------------------------------------------------------*/
FoamFile
{
    format      ascii;
    class       volVectorField;
    location    "0.41";
    object      Ub;
}
// * * * * * * * * * * * * * * * * * * * * * * * * * * * * * * * * * * * * * //

dimensions      [0 1 -1 0 0 0 0];

internalField   nonuniform List<vector> 
12225
(
(0.00185901 -0.000385446 0)
(0.0052882 -0.000340567 0)
(0.00806955 -0.000276017 0)
(0.0101576 -0.000211161 0)
(0.0116428 -0.000155973 0)
(0.0126617 -0.000113292 0)
(0.0133462 -8.23658e-05 0)
(0.0138046 -6.12454e-05 0)
(0.0141196 -4.79756e-05 0)
(0.0143531 -4.10606e-05 0)
(0.0145523 -3.96254e-05 0)
(0.014755 -4.35398e-05 0)
(0.0149956 -5.36828e-05 0)
(0.0153107 -7.26347e-05 0)
(0.0157453 -0.000106596 0)
(0.0163492 -0.000170849 0)
(0.0169471 -0.000306177 0)
(0.00896904 -0.000197346 0)
(0.00209386 -0.00123023 0)
(0.00595329 -0.00108549 0)
(0.00908073 -0.00087839 0)
(0.0114315 -0.000671008 0)
(0.0131113 -0.000494935 0)
(0.0142735 -0.000358872 0)
(0.0150636 -0.000260131 0)
(0.0155985 -0.000192304 0)
(0.0159659 -0.000149005 0)
(0.0162289 -0.000125312 0)
(0.0164335 -0.000118229 0)
(0.016614 -0.000127004 0)
(0.0167988 -0.00015385 0)
(0.0170153 -0.00020588 0)
(0.017294 -0.000300333 0)
(0.0176602 -0.000478267 0)
(0.0179188 -0.000830393 0)
(0.00978457 -0.000514791 0)
(0.00222099 -0.0022109 0)
(0.00630193 -0.0019456 0)
(0.00958329 -0.0015691 0)
(0.0120263 -0.00119441 0)
(0.0137536 -0.000877759 0)
(0.0149344 -0.00063373 0)
(0.015725 -0.000456643 0)
(0.0162486 -0.000334443 0)
(0.0165961 -0.000255318 0)
(0.0168319 -0.000210149 0)
(0.0170022 -0.000193218 0)
(0.0171407 -0.000202583 0)
(0.0172741 -0.000241079 0)
(0.0174255 -0.000319093 0)
(0.0176148 -0.000461654 0)
(0.0178384 -0.00072438 0)
(0.017847 -0.00119893 0)
(0.0100166 -0.000748166 0)
(0.00234288 -0.00332096 0)
(0.00662904 -0.00291111 0)
(0.0100379 -0.00233564 0)
(0.0125413 -0.00176796 0)
(0.0142848 -0.00129162 0)
(0.015457 -0.000926402 0)
(0.0162263 -0.000662069 0)
(0.0167225 -0.000479473 0)
(0.0170393 -0.000360319 0)
(0.017242 -0.000290578 0)
(0.0173765 -0.00026129 0)
(0.0174752 -0.000268838 0)
(0.0175619 -0.000315952 0)
(0.0176537 -0.000414677 0)
(0.0177571 -0.000593466 0)
(0.0178389 -0.000909867 0)
(0.0176212 -0.00143213 0)
(0.0103025 -0.000958539 0)
(0.00247879 -0.00457682 0)
(0.0069873 -0.00399121 0)
(0.0105207 -0.00317996 0)
(0.0130684 -0.00238905 0)
(0.0148075 -0.0017319 0)
(0.0159515 -0.00123184 0)
(0.0166832 -0.000871699 0)
(0.0171394 -0.000623336 0)
(0.0174164 -0.000460677 0)
(0.0175798 -0.000363929 0)
(0.0176745 -0.000320271 0)
(0.017731 -0.000323781 0)
(0.0177693 -0.00037608 0)
(0.0177997 -0.000488728 0)
(0.0178149 -0.000688547 0)
(0.0177571 -0.00102391 0)
(0.0173364 -0.00152955 0)
(0.0107132 -0.00110736 0)
(0.00264133 -0.00600507 0)
(0.00740868 -0.00520124 0)
(0.0110728 -0.00410649 0)
(0.0136513 -0.00305551 0)
(0.0153656 -0.0021935 0)
(0.016461 -0.00154421 0)
(0.017138 -0.00107998 0)
(0.0175409 -0.00076111 0)
(0.0177679 -0.000552132 0)
(0.0178846 -0.000426479 0)
(0.0179341 -0.00036675 0)
(0.0179443 -0.000363975 0)
(0.017931 -0.000417502 0)
(0.0178977 -0.000536107 0)
(0.0178257 -0.000740334 0)
(0.0176411 -0.00106149 0)
(0.0170583 -0.0014974 0)
(0.0112647 -0.00114382 0)
(0.00284407 -0.00764383 0)
(0.00792553 -0.00656199 0)
(0.0117314 -0.00512021 0)
(0.0143249 -0.00376337 0)
(0.0159894 -0.00266897 0)
(0.0170122 -0.00185545 0)
(0.0176145 -0.00127946 0)
(0.0179485 -0.000886311 0)
(0.0181142 -0.000629108 0)
(0.0181756 -0.000473348 0)
(0.0181734 -0.000396263 0)
(0.0181325 -0.000385066 0)
(0.0180644 -0.000435683 0)
(0.0179669 -0.000552135 0)
(0.017814 -0.000745477 0)
(0.0175266 -0.00102658 0)
(0.016843 -0.00135988 0)
(0.0119234 -0.00105733 0)
(0.00310493 -0.00954722 0)
(0.00857851 -0.0081004 0)
(0.0125394 -0.00622517 0)
(0.0151249 -0.004505 0)
(0.0167067 -0.00314683 0)
(0.0176265 -0.00215407 0)
(0.0181299 -0.00146001 0)
(0.0183769 -0.00099036 0)
(0.0184677 -0.000684382 0)
(0.018464 -0.000498341 0)
(0.0184031 -0.00040331 0)
(0.018306 -0.000381991 0)
(0.0181807 -0.000425996 0)
(0.0180208 -0.000533381 0)
(0.0177977 -0.000704649 0)
(0.0174378 -0.000931872 0)
(0.0167182 -0.00115747 0)
(0.0126211 -0.000890955 0)
(0.00345 -0.0117932 0)
(0.00942416 -0.00985053 0)
(0.0135516 -0.00742194 0)
(0.0160928 -0.00526619 0)
(0.0175462 -0.00360942 0)
(0.0183236 -0.0024237 0)
(0.0186982 -0.00160782 0)
(0.0188366 -0.00106199 0)
(0.0188372 -0.000708734 0)
(0.0187574 -0.000493762 0)
(0.01863 -0.000381305 0)
(0.0184719 -0.000349077 0)
(0.0182876 -0.000383945 0)
(0.0180685 -0.000477829 0)
(0.0177881 -0.000621851 0)
(0.0173846 -0.000794874 0)
(0.0166779 -0.000932408 0)
(0.0132869 -0.000704716 0)
(0.00391974 -0.0144976 0)
(0.010546 -0.0118541 0)
(0.014842 -0.00870302 0)
(0.0172789 -0.00602155 0)
(0.0185389 -0.00402969 0)
(0.0191223 -0.00264111 0)
(0.0193312 -0.00170435 0)
(0.0193356 -0.00108662 0)
(0.0192284 -0.000690592 0)
(0.0190605 -0.000450234 0)
(0.0188586 -0.000322515 0)
(0.0186346 -0.00028005 0)
(0.01839 -0.000305128 0)
(0.0181159 -0.000384408 0)
(0.0177896 -0.000502469 0)
(0.0173637 -0.000632111 0)
(0.0166941 -0.000714663 0)
(0.0138669 -0.00053905 0)
(0.00458034 -0.0178381 0)
(0.0120732 -0.0141589 0)
(0.0165141 -0.0100434 0)
(0.0187458 -0.00672697 0)
(0.0197183 -0.00436664 0)
(0.0200397 -0.0027738 0)
(0.0200378 -0.00172501 0)
(0.0198786 -0.0010457 0)
(0.0196445 -0.000615725 0)
(0.0193758 -0.000356573 0)
(0.019091 -0.000218012 0)
(0.0187966 -0.000167981 0)
(0.0184907 -0.000184961 0)
(0.0181645 -0.000252047 0)
(0.0178004 -0.000350806 0)
(0.0173626 -0.000454263 0)
(0.0167322 -0.000516406 0)
(0.0143275 -0.000406489 0)
(0.00547905 -0.0216913 0)
(0.0140689 -0.0165782 0)
(0.0185705 -0.0112821 0)
(0.0204566 -0.0072748 0)
(0.0210371 -0.00455699 0)
(0.0210328 -0.00278768 0)
(0.0207839 -0.00165335 0)
(0.020441 -0.000933199 0)
(0.0200687 -0.000484228 0)
(0.0196931 -0.000216636 0)
(0.0193228 -7.42166e-05 0)
(0.0189577 -2.1527e-05 0)
(0.0185928 -3.44971e-05 0)
(0.0182187 -9.48288e-05 0)
(0.0178214 -0.000184209 0)
(0.0173727 -0.000279447 0)
(0.0167679 -0.000347371 0)
(0.014653 -0.000304048 0)
(0.00673157 -0.0266755 0)
(0.016718 -0.0192746 0)
(0.0211002 -0.0123941 0)
(0.0224253 -0.00760218 0)
(0.0224742 -0.0045435 0)
(0.0220679 -0.00263784 0)
(0.0215328 -0.00145463 0)
(0.0209867 -0.000721467 0)
(0.020467 -0.000273266 0)
(0.0199808 -1.1178e-05 0)
(0.0195246 0.000125596 0)
(0.0190898 0.000174514 0)
(0.0186671 0.000160035 0)
(0.0182465 9.98928e-05 0)
(0.017816 9.96399e-06 0)
(0.0173516 -9.23752e-05 0)
(0.0167561 -0.000185315 0)
(0.0148115 -0.00021192 0)
(0.00898656 -0.034519 0)
(0.0211847 -0.0226024 0)
(0.024941 -0.0132818 0)
(0.0251745 -0.0075421 0)
(0.0243611 -0.00418093 0)
(0.0233683 -0.00221008 0)
(0.0224442 -0.00103885 0)
(0.0216355 -0.000337345 0)
(0.0209335 7.75015e-05 0)
(0.0203154 0.00031287 0)
(0.0197569 0.000429983 0)
(0.0192396 0.000465291 0)
(0.0187492 0.000441473 0)
(0.0182735 0.000373829 0)
(0.0177998 0.000273688 0)
(0.0173053 0.000150457 0)
(0.0166968 1.41139e-05 0)
(0.0148537 -0.000100758 0)
(0.013589 -0.0483171 0)
(0.0294645 -0.0260001 0)
(0.030967 -0.0130747 0)
(0.0289877 -0.00650178 0)
(0.0267655 -0.00310844 0)
(0.0249338 -0.0012816 0)
(0.0235028 -0.000263236 0)
(0.022377 0.000315261 0)
(0.0214617 0.000641194 0)
(0.0206875 0.000814033 0)
(0.0200102 0.000887512 0)
(0.0193988 0.000892521 0)
(0.0188309 0.000847512 0)
(0.0182887 0.000763213 0)
(0.0177556 0.000644557 0)
(0.0172057 0.000490857 0)
(0.016546 0.000296511 0)
(0.0146915 6.43543e-05 0)
(0.0247785 -0.0771183 0)
(0.0469257 -0.0254034 0)
(0.0404475 -0.00921123 0)
(0.0339378 -0.00324783 0)
(0.0295436 -0.000729731 0)
(0.0266413 0.000462689 0)
(0.0246293 0.00106358 0)
(0.0231472 0.00136851 0)
(0.0219943 0.00151491 0)
(0.0210539 0.00156712 0)
(0.0202529 0.00155905 0)
(0.0195438 0.00150925 0)
(0.0188935 0.001428 0)
(0.0182757 0.00132016 0)
(0.0176641 0.00118521 0)
(0.0170196 0.00101347 0)
(0.016232 0.000775756 0)
(0.0140771 0.000382427 0)
(0.0594646 0.00287316 0)
(0.0910519 0.00510566 0)
(0.0532737 0.00457614 0)
(0.0389015 0.0040452 0)
(0.0319935 0.00364544 0)
(0.0280471 0.00335461 0)
(0.0255108 0.00313091 0)
(0.0237326 0.00294613 0)
(0.0223941 0.00278586 0)
(0.0213246 0.00264063 0)
(0.0204254 0.00250337 0)
(0.0196358 0.00236899 0)
(0.0189152 0.00223442 0)
(0.0182305 0.00209932 0)
(0.0175428 0.00196697 0)
(0.0167807 0.0018439 0)
(0.0157423 0.00172272 0)
(0.012295 0.00124963 0)
(0.0204564 0.078355 0)
(0.040441 0.0339944 0)
(0.0373047 0.0184497 0)
(0.0324835 0.0118161 0)
(0.0288028 0.00850813 0)
(0.0261981 0.00665716 0)
(0.0243204 0.00553064 0)
(0.022905 0.00479918 0)
(0.0217817 0.00429769 0)
(0.0208443 0.00393529 0)
(0.0200263 0.00365779 0)
(0.0192869 0.00343055 0)
(0.0186016 0.00322986 0)
(0.0179585 0.00303805 0)
(0.0173556 0.00283943 0)
(0.0167869 0.00261452 0)
(0.0160721 0.00230804 0)
(0.00857288 0.00114729 0)
(0.00786122 0.0425439 0)
(0.0188093 0.0298461 0)
(0.0226996 0.0205485 0)
(0.0234598 0.0147018 0)
(0.0231101 0.0110707 0)
(0.022442 0.00877128 0)
(0.0217269 0.00727875 0)
(0.0210411 0.00628812 0)
(0.0203933 0.00561737 0)
(0.0197718 0.00515312 0)
(0.0191614 0.00482151 0)
(0.0185472 0.00457284 0)
(0.0179123 0.00437332 0)
(0.0172303 0.00419949 0)
(0.0164462 0.00402934 0)
(0.0154072 0.00380683 0)
(0.0126335 0.00301179 0)
(0.00523744 0.000197087 0)
(0.00435369 0.0264473 0)
(0.0114334 0.022092 0)
(0.0156288 0.0175104 0)
(0.0178273 0.0138096 0)
(0.0188866 0.0110847 0)
(0.0193346 0.00915512 0)
(0.0194519 0.00781665 0)
(0.0193773 0.00690341 0)
(0.0191765 0.00629107 0)
(0.0188799 0.00588713 0)
(0.0185038 0.00562137 0)
(0.0180603 0.00543988 0)
(0.0175621 0.00530317 0)
(0.0170142 0.00518797 0)
(0.0163644 0.00508792 0)
(0.0150214 0.004873 0)
(0.00704038 0.00188715 0)
(1.95966e-05 2.16736e-09 0)
(0.00305443 0.0189402 0)
(0.00838563 0.0168208 0)
(0.0121892 0.0142183 0)
(0.0146937 0.0118401 0)
(0.0162852 0.00992444 0)
(0.0172773 0.00848592 0)
(0.0178758 0.00746085 0)
(0.0182021 0.00676949 0)
(0.0183226 0.00633635 0)
(0.0182713 0.00609309 0)
(0.018066 0.00597552 0)
(0.0177215 0.00591921 0)
(0.0172611 0.00585235 0)
(0.0167258 0.00567252 0)
(0.0160722 0.00514971 0)
(0.00845171 0.0028236 0)
(0.000602578 3.25674e-06 0)
(9.06158e-12 7.81929e-19 0)
(0.00241547 0.0141174 0)
(0.00679138 0.0129273 0)
(0.0102212 0.0113427 0)
(0.0127519 0.00978796 0)
(0.0145699 0.00846866 0)
(0.0158631 0.00745015 0)
(0.0167739 0.00672969 0)
(0.0173944 0.00627768 0)
(0.017775 0.00605509 0)
(0.0179349 0.00601711 0)
(0.0178716 0.00611038 0)
(0.0175641 0.00626984 0)
(0.0169483 0.00641943 0)
(0.0157845 0.00644194 0)
(0.0116399 0.00519621 0)
(0.00413144 0.000319608 0)
(3.95921e-07 1.76849e-13 0)
(3.99017e-27 -3.65412e-32 0)
(0.00205549 0.0106838 0)
(0.00585978 0.00995603 0)
(0.00900733 0.00894218 0)
(0.0114912 0.00790577 0)
(0.0134094 0.00700233 0)
(0.0148819 0.00630308 0)
(0.0160098 0.00583114 0)
(0.0168622 0.00558712 0)
(0.0174736 0.00556115 0)
(0.017846 0.00573339 0)
(0.0179569 0.00606489 0)
(0.0177762 0.00648275 0)
(0.0172734 0.00686883 0)
(0.0159696 0.0069035 0)
(0.00751167 0.00273337 0)
(1.08183e-05 1.98952e-09 0)
(4.72839e-20 -3.43199e-32 0)
(1.27971e-31 -3.29159e-32 0)
(0.00183112 0.00808281 0)
(0.00526529 0.00761588 0)
(0.00820422 0.00694734 0)
(0.0106258 0.00624794 0)
(0.0125873 0.00563207 0)
(0.0141725 0.00516384 0)
(0.0154593 0.00487675 0)
(0.0165041 0.00479064 0)
(0.0173317 0.00492116 0)
(0.0179266 0.00527823 0)
(0.0182267 0.00584672 0)
(0.0181336 0.00652823 0)
(0.0175331 0.006963 0)
(0.0100402 0.00469587 0)
(0.00149457 2.00961e-06 0)
(3.59486e-10 2.095e-20 0)
(1.36786e-31 -3.24404e-32 0)
(1.32484e-31 -2.87708e-32 0)
(0.00167903 0.00603572 0)
(0.00485529 0.00572952 0)
(0.00763475 0.00528325 0)
(0.00999264 0.00481059 0)
(0.011967 0.00439472 0)
(0.0136227 0.00408917 0)
(0.0150265 0.00392978 0)
(0.0162317 0.00394795 0)
(0.0172644 0.00418093 0)
(0.0181029 0.00467509 0)
(0.0186356 0.00547043 0)
(0.0185619 0.00651798 0)
(0.0168893 0.00705617 0)
(0.00773351 0.00131341 0)
(4.03774e-06 9.13409e-14 0)
(3.44294e-22 -3.15748e-32 0)
(1.40408e-31 -2.74741e-32 0)
(1.35939e-31 -2.41115e-32 0)
(0.00156731 0.00438576 0)
(0.00454973 0.00418531 0)
(0.00719963 0.00388945 0)
(0.00949373 0.00357426 0)
(0.0114606 0.00329914 0)
(0.0131553 0.00310625 0)
(0.0146404 0.00302883 0)
(0.015973 0.00310261 0)
(0.0171924 0.0033788 0)
(0.0182959 0.00393687 0)
(0.019179 0.00488802 0)
(0.0193689 0.00634966 0)
(0.0124121 0.00664628 0)
(0.00281489 3.65565e-07 0)
(1.09686e-08 8.00699e-23 0)
(1.54086e-31 -2.72453e-32 0)
(1.44242e-31 -2.26516e-32 0)
(1.38867e-31 -1.94191e-32 0)
(0.00147743 0.00303682 0)
(0.00430047 0.00290947 0)
(0.0068358 0.0027196 0)
(0.00906264 0.002517 0)
(0.0110048 0.0023424 0)
(0.0127119 0.00222692 0)
(0.0142451 0.00219796 0)
(0.0156682 0.00228904 0)
(0.0170398 0.00255445 0)
(0.0183942 0.00309023 0)
(0.0197196 0.00403057 0)
(0.0211755 0.00522372 0)
(0.0110354 0.00308668 0)
(4.50005e-05 -8.83056e-20 0)
(4.8874e-18 -2.88401e-32 0)
(1.54405e-31 -2.19082e-32 0)
(1.47378e-31 -1.75644e-32 0)
(1.41145e-31 -1.47311e-32 0)
(0.00139515 0.00192662 0)
(0.00406902 0.00185165 0)
(0.00648924 0.0017388 0)
(0.00863771 0.00161859 0)
(0.0105356 0.00151685 0)
(0.0122291 0.00145444 0)
(0.0137784 0.00145119 0)
(0.0152527 0.00153354 0)
(0.0167282 0.00174867 0)
(0.0182652 0.00219528 0)
(0.0197102 0.00306289 0)
(0.0194045 0.004111 0)
(0.00922504 2.59326e-05 0)
(3.61298e-06 -1.85524e-23 0)
(1.05282e-22 -2.33363e-32 0)
(1.58464e-31 -1.60897e-32 0)
(1.49813e-31 -1.23752e-32 0)
(1.4276e-31 -1.01774e-32 0)
(0.00129754 0.00101575 0)
(0.00379072 0.000978889 0)
(0.00606243 0.000922791 0)
(0.00809775 0.000863363 0)
(0.00991641 0.000814488 0)
(0.0115615 0.000787876 0)
(0.0130915 0.000795361 0)
(0.0145778 0.000853568 0)
(0.0161103 0.000994536 0)
(0.0177996 0.0013009 0)
(0.0195605 0.00206988 0)
(0.0171846 0.00421337 0)
(0.00697381 3.16275e-07 0)
(4.64752e-07 -8.1894e-28 0)
(4.51739e-27 -1.52528e-32 0)
(1.61508e-31 -9.73023e-33 0)
(1.51394e-31 -7.25646e-33 0)
(1.43733e-31 -5.89409e-33 0)
(0.00100754 0.0003032 0)
(0.0029485 0.000292798 0)
(0.00472823 0.000276781 0)
(0.00633903 0.000259942 0)
(0.00780517 0.000246563 0)
(0.00917412 0.000240371 0)
(0.0105101 0.00024529 0)
(0.011893 0.00026699 0)
(0.0134258 0.000316792 0)
(0.0152659 0.000428144 0)
(0.0177307 0.000770672 0)
(0.0115078 0.0022335 0)
(0.00192086 7.30975e-14 0)
(1.23167e-10 -7.64317e-33 0)
(1.8057e-31 -5.37302e-33 0)
(1.6303e-31 -3.30849e-33 0)
(1.52106e-31 -2.4531e-33 0)
(1.44151e-31 -1.99946e-33 0)
(5.75597e-34 -1.39196e-33 -1.79838e-59)
(1.73142e-33 -1.39011e-33 1.79463e-59)
(2.89434e-33 -1.38694e-33 0)
(4.06314e-33 -1.38241e-33 0)
(5.23652e-33 -1.37653e-33 0)
(6.41318e-33 -1.3693e-33 -1.7622e-59)
(7.59177e-33 -1.36072e-33 0)
(8.77092e-33 -1.35081e-33 0)
(9.94927e-33 -1.3396e-33 0)
(1.11254e-32 -1.32712e-33 0)
(1.2298e-32 -1.31341e-33 1.68302e-59)
(1.34657e-32 -1.29851e-33 0)
(1.4627e-32 -1.28249e-33 0)
(1.57808e-32 -1.26539e-33 0)
(1.69257e-32 -1.24729e-33 0)
(1.80605e-32 -1.22825e-33 1.56615e-59)
(1.91839e-32 -1.20834e-33 0)
(2.02949e-32 -1.18765e-33 0)
(2.13923e-32 -1.16625e-33 0)
(2.24751e-32 -1.14421e-33 0)
(2.35423e-32 -1.12163e-33 0)
(2.45931e-32 -1.09857e-33 0)
(2.56266e-32 -1.07511e-33 0)
(2.66421e-32 -1.05134e-33 1.32738e-59)
(2.76389e-32 -1.02733e-33 -1.29517e-59)
(2.86164e-32 -1.00316e-33 1.26277e-59)
(2.9574e-32 -9.78878e-34 1.23026e-59)
(3.05113e-32 -9.5457e-34 0)
(3.14279e-32 -9.30293e-34 0)
(3.23234e-32 -9.06107e-34 -1.13296e-59)
(3.31975e-32 -8.82068e-34 -1.10086e-59)
(3.40502e-32 -8.58226e-34 0)
(3.48811e-32 -8.34629e-34 0)
(3.56903e-32 -8.1132e-34 -1.00647e-59)
(3.64777e-32 -7.88338e-34 0)
(3.72433e-32 -7.65719e-34 0)
(3.79871e-32 -7.43494e-34 9.161e-60)
(3.87094e-32 -7.2169e-34 0)
(3.94101e-32 -7.00332e-34 8.58635e-60)
(4.00895e-32 -6.7944e-34 1.66166e-59)
(4.07478e-32 -6.59032e-34 0)
(4.13853e-32 -6.39122e-34 0)
(4.20022e-32 -6.19722e-34 0)
(4.25988e-32 -6.00841e-34 0)
(4.31754e-32 -5.82486e-34 0)
(4.37324e-32 -5.6466e-34 1.35636e-59)
(4.42702e-32 -5.47367e-34 1.31039e-59)
(4.4789e-32 -5.30607e-34 1.26584e-59)
(4.52894e-32 -5.14379e-34 0)
(4.57716e-32 -4.9868e-34 -1.18099e-59)
(4.62362e-32 -4.83505e-34 0)
(4.66834e-32 -4.6885e-34 1.10173e-59)
(4.71138e-32 -4.54708e-34 1.06416e-59)
(4.75277e-32 -4.41072e-34 0)
(4.79256e-32 -4.27933e-34 0)
(4.83079e-32 -4.15283e-34 0)
(4.8675e-32 -4.03112e-34 9.27103e-60)
(4.90274e-32 -3.9141e-34 0)
(4.93654e-32 -3.80167e-34 0)
(4.96896e-32 -3.69371e-34 0)
(5.00003e-32 -3.59011e-34 0)
(5.02979e-32 -3.49077e-34 0)
(5.05828e-32 -3.39556e-34 0)
(5.08556e-32 -3.30436e-34 0)
(5.11165e-32 -3.21706e-34 0)
(5.13659e-32 -3.13355e-34 -6.88732e-60)
(5.16043e-32 -3.0537e-34 0)
(5.1832e-32 -2.97739e-34 0)
(5.20494e-32 -2.90451e-34 6.27915e-60)
(5.22568e-32 -2.83495e-34 6.09441e-60)
(5.24547e-32 -2.76859e-34 0)
(5.26434e-32 -2.70531e-34 -5.75019e-60)
(5.28232e-32 -2.64501e-34 5.59007e-60)
(5.29944e-32 -2.58758e-34 0)
(5.31575e-32 -2.5329e-34 -5.29238e-60)
(5.33126e-32 -2.48089e-34 0)
(5.34602e-32 -2.43142e-34 0)
(5.36004e-32 -2.38441e-34 4.8981e-60)
(5.37337e-32 -2.33975e-34 0)
(5.38603e-32 -2.29736e-34 -4.66692e-60)
(5.39804e-32 -2.25712e-34 0)
(5.40944e-32 -2.21897e-34 4.45875e-60)
(5.42026e-32 -2.1828e-34 4.36271e-60)
(5.4305e-32 -2.14853e-34 4.27172e-60)
(5.44021e-32 -2.11609e-34 8.37112e-60)
(5.4494e-32 -2.08538e-34 -8.208e-60)
(5.4581e-32 -2.05633e-34 0)
(5.46633e-32 -2.02887e-34 0)
(5.47412e-32 -2.00292e-34 0)
(5.48147e-32 -1.97842e-34 -7.63994e-60)
(5.48841e-32 -1.95529e-34 -7.51707e-60)
(5.49497e-32 -1.93348e-34 7.40119e-60)
(5.50116e-32 -1.9129e-34 0)
(5.50699e-32 -1.89352e-34 -7.18896e-60)
(5.51249e-32 -1.87526e-34 -7.09196e-60)
(5.51767e-32 -1.85808e-34 -7.00067e-60)
(5.52254e-32 -1.84191e-34 0)
(5.52713e-32 -1.82671e-34 0)
(5.53145e-32 -1.81243e-34 0)
(5.5355e-32 -1.79901e-34 -6.68688e-60)
(5.53931e-32 -1.78642e-34 0)
(5.54289e-32 -1.77461e-34 0)
(5.54625e-32 -1.76353e-34 6.49839e-60)
(5.5494e-32 -1.75315e-34 0)
(5.55235e-32 -1.74343e-34 0)
(5.55512e-32 -1.73433e-34 6.34325e-60)
(5.5577e-32 -1.72583e-34 0)
(5.56013e-32 -1.71787e-34 0)
(5.56239e-32 -1.71044e-34 -6.21627e-60)
(5.56451e-32 -1.7035e-34 -6.17939e-60)
(5.56649e-32 -1.69702e-34 0)
(5.56834e-32 -1.69098e-34 6.11287e-60)
(5.57006e-32 -1.68535e-34 0)
(5.57167e-32 -1.68011e-34 -6.0551e-60)
(5.57316e-32 -1.67523e-34 0)
(5.57456e-32 -1.67069e-34 -6.00501e-60)
(5.57586e-32 -1.66647e-34 -5.9826e-60)
(5.57706e-32 -1.66254e-34 0)
(5.57819e-32 -1.6589e-34 0)
(5.57923e-32 -1.65552e-34 0)
(5.5802e-32 -1.65239e-34 0)
(5.58109e-32 -1.64948e-34 0)
(5.58193e-32 -1.64679e-34 0)
(5.5827e-32 -1.6443e-34 0)
(5.58341e-32 -1.642e-34 -5.85251e-60)
(5.58407e-32 -1.63987e-34 5.84121e-60)
(5.58468e-32 -1.6379e-34 0)
(5.58525e-32 -1.63608e-34 0)
(5.58577e-32 -1.63441e-34 0)
(5.58625e-32 -1.63286e-34 0)
(5.58669e-32 -1.63144e-34 1.15928e-59)
(5.5871e-32 -1.63013e-34 0)
(5.58748e-32 -1.62892e-34 -1.1566e-59)
(5.58782e-32 -1.62781e-34 1.15541e-59)
(5.58814e-32 -1.62678e-34 0)
(5.58843e-32 -1.62584e-34 0)
(5.5887e-32 -1.62497e-34 0)
(5.58894e-32 -1.62418e-34 -1.15155e-59)
(5.58917e-32 -1.62344e-34 -1.15077e-59)
(5.58937e-32 -1.62276e-34 0)
(5.58956e-32 -1.62213e-34 -1.14938e-59)
(5.58973e-32 -1.62155e-34 -1.14877e-59)
(5.58988e-32 -1.62101e-34 1.14819e-59)
(5.59002e-32 -1.6205e-34 0)
(5.59014e-32 -1.62002e-34 0)
(5.59025e-32 -1.61957e-34 1.14667e-59)
(5.59034e-32 -1.61913e-34 0)
(5.59042e-32 -1.6187e-34 0)
(5.59049e-32 -1.61827e-34 0)
(5.59055e-32 -1.61784e-34 0)
(5.59059e-32 -1.61738e-34 -1.14437e-59)
(5.59061e-32 -1.6169e-34 -1.14387e-59)
(5.59062e-32 -1.61636e-34 0)
(5.59061e-32 -1.61577e-34 -1.1427e-59)
(5.59057e-32 -1.61508e-34 0)
(5.59051e-32 -1.61428e-34 0)
(5.59041e-32 -1.61333e-34 -1.1402e-59)
(5.59028e-32 -1.61218e-34 0)
(5.5901e-32 -1.61077e-34 -1.13759e-59)
(5.58986e-32 -1.60904e-34 0)
(5.58954e-32 -1.60689e-34 0)
(5.58913e-32 -1.6042e-34 -1.13088e-59)
(5.58861e-32 -1.60082e-34 0)
(5.58793e-32 -1.59653e-34 -1.12307e-59)
(5.58705e-32 -1.59108e-34 0)
(5.58592e-32 -1.58412e-34 0)
(5.58447e-32 -1.57517e-34 0)
(5.5826e-32 -1.56359e-34 1.08951e-59)
(5.58018e-32 -1.54852e-34 0)
(5.57702e-32 -1.52874e-34 -1.054e-59)
(5.57289e-32 -1.50249e-34 0)
(5.56745e-32 -1.4672e-34 0)
(5.56021e-32 -1.41896e-34 0)
(5.55046e-32 -1.35145e-34 0)
(5.53711e-32 -1.25394e-34 0)
(5.51836e-32 -1.1065e-34 0)
(5.49103e-32 -8.67456e-35 0)
(5.44869e-32 -4.33498e-35 -1.32666e-60)
(5.37505e-32 5.26621e-35 0)
(5.21186e-32 3.53715e-34 0)
(5.7838e-34 -3.85853e-33 4.98497e-59)
(1.73977e-33 -3.85296e-33 -4.97366e-59)
(2.90825e-33 -3.84336e-33 0)
(4.08256e-33 -3.82968e-33 9.88019e-59)
(5.26138e-33 -3.8119e-33 0)
(6.44337e-33 -3.79003e-33 -4.89089e-59)
(7.62714e-33 -3.7641e-33 -9.69393e-59)
(8.81132e-33 -3.73415e-33 -9.61093e-59)
(9.99449e-33 -3.70027e-33 0)
(1.11752e-32 -3.66256e-33 -9.41471e-59)
(1.23522e-32 -3.62114e-33 4.66563e-59)
(1.35239e-32 -3.57615e-33 0)
(1.46891e-32 -3.52776e-33 0)
(1.58464e-32 -3.47615e-33 0)
(1.69944e-32 -3.42151e-33 0)
(1.81321e-32 -3.36407e-33 4.32655e-59)
(1.9258e-32 -3.30403e-33 0)
(2.03712e-32 -3.24163e-33 8.28321e-59)
(2.14705e-32 -3.1771e-33 0)
(2.25548e-32 -3.11069e-33 0)
(2.36233e-32 -3.04264e-33 -7.75348e-59)
(2.4675e-32 -2.97318e-33 0)
(2.57092e-32 -2.90255e-33 7.38152e-59)
(2.6725e-32 -2.831e-33 3.62743e-59)
(2.77219e-32 -2.75873e-33 -3.53285e-59)
(2.86991e-32 -2.68598e-33 3.43767e-59)
(2.96563e-32 -2.61296e-33 3.34216e-59)
(3.0593e-32 -2.53986e-33 0)
(3.15087e-32 -2.46687e-33 0)
(3.24032e-32 -2.39417e-33 -3.05613e-59)
(3.32761e-32 -2.32192e-33 -8.80662e-59)
(3.41274e-32 -2.25029e-33 0)
(3.49569e-32 -2.1794e-33 0)
(3.57645e-32 -2.1094e-33 -2.68411e-59)
(3.65502e-32 -2.04039e-33 0)
(3.7314e-32 -1.97248e-33 0)
(3.8056e-32 -1.90577e-33 2.41822e-59)
(3.87763e-32 -1.84033e-33 0)
(3.94751e-32 -1.77623e-33 6.65418e-59)
(4.01525e-32 -1.71355e-33 4.33462e-59)
(4.08088e-32 -1.65232e-33 0)
(4.14443e-32 -1.5926e-33 0)
(4.20591e-32 -1.53441e-33 -7.53551e-59)
(4.26537e-32 -1.47778e-33 -7.23714e-59)
(4.32284e-32 -1.42274e-33 -6.94715e-59)
(4.37834e-32 -1.36929e-33 1.01017e-58)
(4.43192e-32 -1.31744e-33 3.30087e-59)
(4.48362e-32 -1.2672e-33 -2.95805e-59)
(4.53346e-32 -1.21855e-33 5.8716e-59)
(4.5815e-32 -1.17148e-33 -2.92005e-59)
(4.62777e-32 -1.126e-33 0)
(4.67232e-32 -1.08207e-33 2.68678e-59)
(4.71519e-32 -1.03969e-33 7.50598e-59)
(4.75641e-32 -9.98821e-34 0)
(4.79603e-32 -9.59447e-34 0)
(4.8341e-32 -9.21538e-34 0)
(4.87066e-32 -8.85066e-34 2.17285e-59)
(4.90575e-32 -8.50001e-34 0)
(4.93941e-32 -8.16311e-34 3.75376e-59)
(4.97169e-32 -7.83962e-34 0)
(5.00263e-32 -7.52922e-34 3.42008e-59)
(5.03226e-32 -7.23156e-34 0)
(5.06063e-32 -6.94629e-34 -3.11323e-59)
(5.08779e-32 -6.67306e-34 0)
(5.11376e-32 -6.41152e-34 2.83174e-59)
(5.13859e-32 -6.16131e-34 -4.17138e-59)
(5.16233e-32 -5.92207e-34 0)
(5.185e-32 -5.69347e-34 -2.4538e-59)
(5.20664e-32 -5.47514e-34 1.29237e-59)
(5.2273e-32 -5.26674e-34 1.238e-59)
(5.247e-32 -5.06792e-34 0)
(5.26578e-32 -4.87836e-34 -3.16147e-59)
(5.28368e-32 -4.69772e-34 1.08959e-59)
(5.30073e-32 -4.52566e-34 0)
(5.31696e-32 -4.36188e-34 -1.00199e-59)
(5.33241e-32 -4.20605e-34 -1.6709e-59)
(5.34709e-32 -4.05787e-34 0)
(5.36106e-32 -3.91704e-34 8.85961e-60)
(5.37433e-32 -3.78326e-34 0)
(5.38693e-32 -3.65625e-34 5.6357e-60)
(5.39889e-32 -3.53573e-34 0)
(5.41024e-32 -3.42143e-34 -5.0122e-60)
(5.421e-32 -3.31308e-34 7.28424e-60)
(5.43121e-32 -3.21043e-34 1.84849e-59)
(5.44087e-32 -3.11323e-34 3.54395e-59)
(5.45002e-32 -3.02124e-34 -3.39911e-59)
(5.45868e-32 -2.93423e-34 0)
(5.46688e-32 -2.85197e-34 0)
(5.47462e-32 -2.77424e-34 0)
(5.48195e-32 -2.70084e-34 6.19747e-60)
(5.48886e-32 -2.63156e-34 -1.10131e-59)
(5.49539e-32 -2.5662e-34 1.06721e-59)
(5.50154e-32 -2.50458e-34 0)
(5.50735e-32 -2.44651e-34 -2.4942e-59)
(5.51283e-32 -2.39182e-34 -9.76232e-60)
(5.51798e-32 -2.34034e-34 -9.49375e-60)
(5.52284e-32 -2.29191e-34 0)
(5.52741e-32 -2.24637e-34 0)
(5.5317e-32 -2.20358e-34 0)
(5.53574e-32 -2.1634e-34 -8.57058e-60)
(5.53953e-32 -2.12567e-34 0)
(5.5431e-32 -2.09028e-34 -1.11435e-59)
(5.54644e-32 -2.0571e-34 -2.7781e-60)
(5.54958e-32 -2.02601e-34 1.04667e-59)
(5.55252e-32 -1.99689e-34 0)
(5.55527e-32 -1.96964e-34 1.74328e-59)
(5.55785e-32 -1.94415e-34 0)
(5.56026e-32 -1.92032e-34 9.35369e-60)
(5.56252e-32 -1.89805e-34 -1.63054e-59)
(5.56462e-32 -1.87726e-34 -1.59779e-59)
(5.56659e-32 -1.85786e-34 0)
(5.56843e-32 -1.83977e-34 -1.62338e-60)
(5.57015e-32 -1.82291e-34 8.32784e-60)
(5.57175e-32 -1.8072e-34 -6.71209e-60)
(5.57324e-32 -1.79258e-34 0)
(5.57463e-32 -1.77897e-34 -6.5648e-60)
(5.57592e-32 -1.76633e-34 1.23303e-60)
(5.57712e-32 -1.75457e-34 0)
(5.57824e-32 -1.74366e-34 7.49319e-60)
(5.57928e-32 -1.73354e-34 7.38651e-60)
(5.58024e-32 -1.72415e-34 7.2876e-60)
(5.58114e-32 -1.71544e-34 0)
(5.58196e-32 -1.70738e-34 0)
(5.58273e-32 -1.69992e-34 0)
(5.58344e-32 -1.69302e-34 -1.3076e-59)
(5.5841e-32 -1.68664e-34 6.08302e-60)
(5.58471e-32 -1.68075e-34 0)
(5.58527e-32 -1.67531e-34 -6.77314e-60)
(5.58579e-32 -1.67029e-34 -6.72023e-60)
(5.58627e-32 -1.66566e-34 0)
(5.58671e-32 -1.66139e-34 1.19025e-59)
(5.58712e-32 -1.65746e-34 -1.31701e-59)
(5.58749e-32 -1.65384e-34 -1.18236e-59)
(5.58784e-32 -1.65051e-34 2.48125e-59)
(5.58815e-32 -1.64744e-34 0)
(5.58844e-32 -1.64462e-34 0)
(5.58871e-32 -1.64202e-34 0)
(5.58895e-32 -1.63963e-34 -1.16753e-59)
(5.58918e-32 -1.63743e-34 -2.44004e-59)
(5.58938e-32 -1.63539e-34 -1.27053e-59)
(5.58957e-32 -1.63351e-34 -1.16115e-59)
(5.58973e-32 -1.63177e-34 -2.42224e-59)
(5.58989e-32 -1.63015e-34 1.15764e-59)
(5.59002e-32 -1.62863e-34 0)
(5.59014e-32 -1.6272e-34 0)
(5.59025e-32 -1.62583e-34 2.40357e-59)
(5.59035e-32 -1.62452e-34 0)
(5.59043e-32 -1.62323e-34 0)
(5.5905e-32 -1.62195e-34 -1.24231e-59)
(5.59055e-32 -1.62065e-34 0)
(5.59059e-32 -1.61929e-34 -2.38311e-59)
(5.59062e-32 -1.61784e-34 -1.14484e-59)
(5.59062e-32 -1.61625e-34 0)
(5.59061e-32 -1.61446e-34 -2.36813e-59)
(5.59058e-32 -1.61242e-34 0)
(5.59052e-32 -1.61002e-34 0)
(5.59042e-32 -1.60718e-34 -1.13384e-59)
(5.59029e-32 -1.60374e-34 -1.20474e-59)
(5.59012e-32 -1.59955e-34 -1.12598e-59)
(5.58988e-32 -1.59438e-34 0)
(5.58957e-32 -1.58796e-34 0)
(5.58917e-32 -1.57993e-34 -2.2617e-59)
(5.58865e-32 -1.56982e-34 0)
(5.58798e-32 -1.55703e-34 -2.19124e-59)
(5.58711e-32 -1.54077e-34 0)
(5.58601e-32 -1.51999e-34 0)
(5.58458e-32 -1.49329e-34 0)
(5.58274e-32 -1.45877e-34 9.81114e-60)
(5.58035e-32 -1.41384e-34 0)
(5.57725e-32 -1.35488e-34 -8.74209e-60)
(5.57319e-32 -1.2767e-34 0)
(5.56786e-32 -1.17171e-34 0)
(5.56077e-32 -1.02833e-34 -2.5964e-61)
(5.55125e-32 -8.28104e-35 -3.84496e-60)
(5.53826e-32 -5.39787e-35 0)
(5.52016e-32 -1.06117e-35 0)
(5.49413e-32 5.89759e-35 0)
(5.45503e-32 1.82439e-34 6.86367e-59)
(5.39289e-32 4.39979e-34 0)
(5.29486e-32 1.13376e-33 -5.08913e-58)
(5.84016e-34 -6.34311e-33 3.27861e-58)
(1.75669e-33 -6.33368e-33 -4.18144e-62)
(2.93642e-33 -6.31743e-33 0)
(4.12188e-33 -6.29427e-33 9.76529e-62)
(5.3117e-33 -6.26418e-33 0)
(6.50445e-33 -6.22716e-33 0)
(7.69871e-33 -6.18327e-33 -3.18758e-58)
(8.89303e-33 -6.13261e-33 -1.58104e-58)
(1.00859e-32 -6.07531e-33 1.56328e-58)
(1.1276e-32 -6.01154e-33 -1.54862e-58)
(1.24617e-32 -5.94154e-33 0)
(1.36416e-32 -5.86554e-33 0)
(1.48144e-32 -5.78383e-33 -1.48459e-58)
(1.59787e-32 -5.69672e-33 -2.92249e-58)
(1.71331e-32 -5.60456e-33 2.87321e-58)
(1.82765e-32 -5.50771e-33 0)
(1.94075e-32 -5.40655e-33 2.76762e-58)
(2.0525e-32 -5.30146e-33 1.3607e-58)
(2.1628e-32 -5.19286e-33 0)
(2.27154e-32 -5.08115e-33 2.59471e-58)
(2.37863e-32 -4.96674e-33 -1.27264e-58)
(2.48398e-32 -4.85004e-33 -2.47221e-58)
(2.58751e-32 -4.73144e-33 1.21083e-58)
(2.68916e-32 -4.61135e-33 0)
(2.78885e-32 -4.49014e-33 2.28183e-58)
(2.88653e-32 -4.36817e-33 2.21739e-58)
(2.98216e-32 -4.24581e-33 0)
(3.07569e-32 -4.12338e-33 2.08816e-58)
(3.16708e-32 -4.0012e-33 0)
(3.25632e-32 -3.87956e-33 1.95955e-58)
(3.34337e-32 -3.75874e-33 -9.55824e-59)
(3.42822e-32 -3.639e-33 0)
(3.51087e-32 -3.52055e-33 0)
(3.59131e-32 -3.40362e-33 0)
(3.66953e-32 -3.28839e-33 0)
(3.74555e-32 -3.17504e-33 0)
(3.81938e-32 -3.06372e-33 0)
(3.89103e-32 -2.95456e-33 1.47235e-58)
(3.96051e-32 -2.84768e-33 -6.98703e-59)
(4.02786e-32 -2.74318e-33 0)
(4.09308e-32 -2.64113e-33 0)
(4.15622e-32 -2.54161e-33 0)
(4.21731e-32 -2.44468e-33 -2.42816e-58)
(4.27636e-32 -2.35036e-33 -1.17472e-58)
(4.33343e-32 -2.2587e-33 -2.04643e-60)
(4.38853e-32 -2.16971e-33 2.07243e-60)
(4.44172e-32 -2.08339e-33 -1.01417e-58)
(4.49303e-32 -1.99976e-33 -9.91418e-59)
(4.5425e-32 -1.91879e-33 1.87674e-58)
(4.59016e-32 -1.84048e-33 8.86482e-59)
(4.63607e-32 -1.76481e-33 0)
(4.68027e-32 -1.69173e-33 8.08302e-59)
(4.72278e-32 -1.62122e-33 1.5648e-58)
(4.76367e-32 -1.55325e-33 0)
(4.80297e-32 -1.48776e-33 0)
(4.84073e-32 -1.42472e-33 -6.67989e-59)
(4.87698e-32 -1.36407e-33 0)
(4.91177e-32 -1.30576e-33 0)
(4.94515e-32 -1.24975e-33 1.7515e-58)
(4.97715e-32 -1.19596e-33 1.09559e-58)
(5.00781e-32 -1.14436e-33 5.44327e-59)
(5.03719e-32 -1.09487e-33 0)
(5.06532e-32 -1.04745e-33 -4.93684e-59)
(5.09224e-32 -1.00203e-33 0)
(5.11798e-32 -9.58558e-34 1.29335e-58)
(5.1426e-32 -9.16967e-34 -4.25495e-59)
(5.16612e-32 -8.77203e-34 -7.60641e-59)
(5.18859e-32 -8.39206e-34 -1.10558e-58)
(5.21005e-32 -8.02918e-34 0)
(5.23052e-32 -7.68281e-34 6.46194e-59)
(5.25004e-32 -7.35238e-34 0)
(5.26866e-32 -7.03733e-34 2.64309e-59)
(5.2864e-32 -6.7371e-34 5.46828e-59)
(5.3033e-32 -6.45116e-34 5.16784e-59)
(5.31938e-32 -6.17897e-34 -4.88184e-59)
(5.33469e-32 -5.92e-34 2.05297e-59)
(5.34925e-32 -5.67374e-34 0)
(5.36309e-32 -5.4397e-34 0)
(5.37624e-32 -5.21737e-34 -3.87148e-59)
(5.38873e-32 -5.0063e-34 -1.5704e-59)
(5.40058e-32 -4.80602e-34 0)
(5.41183e-32 -4.61606e-34 -1.87537e-59)
(5.4225e-32 -4.43601e-34 0)
(5.43261e-32 -4.26542e-34 -1.17908e-59)
(5.44219e-32 -4.1039e-34 5.91692e-59)
(5.45126e-32 -3.95103e-34 -5.59651e-59)
(5.45984e-32 -3.80643e-34 2.38891e-59)
(5.46796e-32 -3.66973e-34 0)
(5.47564e-32 -3.54057e-34 -2.10954e-59)