/*--------------------------------*- C++ -*----------------------------------*\
  =========                 |
  \\      /  F ield         | OpenFOAM: The Open Source CFD Toolbox
   \\    /   O peration     | Website:  https://openfoam.org
    \\  /    A nd           | Version:  10
     \\/     M anipulation  |
\*---------------------------------------------------------------------------*/
FoamFile
{
    format      ascii;
    class       volScalarField;
    location    "12800";
    object      p;
}
// * * * * * * * * * * * * * * * * * * * * * * * * * * * * * * * * * * * * * //

dimensions      [1 -1 -2 0 0 0 0];

internalField   nonuniform List<scalar> 
6400
(
111.268
111.282
111.31
111.352
111.409
111.482
111.57
111.675
111.797
111.94
112.103
112.29
112.504
112.75
113.033
113.364
113.759
114.249
115.047
339.373
584.542
815.35
1089.93
1362.34
1627.94
1876.61
2118.64
2354.64
2586.94
2815.17
3039.05
3255.58
3404.3
3492.06
3574.62
3650.01
3715.7
3768.76
3806.21
3825.62
3825.62
3806.21
3768.76
3715.7
3650.01
3574.62
3492.06
3404.3
3255.58
3039.05
2815.17
2586.94
2354.64
2118.64
1876.61
1627.94
1362.34
1089.93
815.35
584.542
339.373
115.047
114.249
113.759
113.364
113.033
112.75
112.504
112.29
112.103
111.94
111.797
111.675
111.57
111.482
111.409
111.352
111.31
111.282
111.268
110.973
110.987
111.015
111.058
111.115
111.187
111.275
111.38
111.503
111.645
111.808
111.995
112.209
112.454
112.737
113.067
113.461
113.949
114.651
115.288
291.102
519.287
795.917
1068.58
1334.65
1582.88
1824.89
2060.79
2293.12
2521.35
2745.37
2962.05
3111.14
3199.24
3282.24
3358.2
3424.56
3478.29
3516.29
3536.01
3536.01
3516.29
3478.29
3424.56
3358.2
3282.24
3199.24
3111.14
2962.05
2745.37
2521.35
2293.12
2060.79
1824.89
1582.88
1334.65
1068.58
795.917
519.287
291.102
115.288
114.651
113.949
113.461
113.067
112.737
112.454
112.209
111.995
111.808
111.645
111.503
111.38
111.275
111.187
111.115
111.058
111.015
110.987
110.973
110.649
110.663
110.691
110.734
110.791
110.863
110.951
111.056
111.178
111.32
111.483
111.67
111.883
112.128
112.41
112.739
113.129
113.61
114.25
114.834
115.292
191.443
473.435
746.61
1013.87
1260.98
1502.98
1738.64
1971.03
2199.3
2423.64
2640.65
2790.61
2879.46
2963.49
3040.78
3108.71
3164.02
3203.32
3223.78
3223.78
3203.32
3164.02
3108.71
3040.78
2963.49
2879.46
2790.61
2640.65
2423.64
2199.3
1971.03
1738.64
1502.98
1260.98
1013.87
746.61
473.435
191.443
115.292
114.834
114.25
113.61
113.129
112.739
112.41
112.128
111.883
111.67
111.483
111.32
111.178
111.056
110.951
110.863
110.791
110.734
110.691
110.663
110.649
110.293
110.307
110.335
110.378
110.434
110.506
110.594
110.699
110.821
110.963
111.126
111.312
111.524
111.768
112.048
112.374
112.759
113.227
113.814
114.367
114.847
115.606
117.356
393.657
663.288
908.17
1150.26
1385.48
1618
1846.29
2071.23
2288.74
2440.17
2530.32
2616.12
2695.75
2766.49
2824.66
2866.34
2888.15
2888.15
2866.34
2824.66
2766.49
2695.75
2616.12
2530.32
2440.17
2288.74
2071.23
1846.29
1618
1385.48
1150.26
908.17
663.288
393.657
117.356
115.606
114.847
114.367
113.814
113.227
112.759
112.374
112.048
111.768
111.524
111.312
111.126
110.963
110.821
110.699
110.594
110.506
110.434
110.378
110.335
110.307
110.293
109.902
109.916
109.944
109.986
110.042
110.114
110.202
110.306
110.428
110.569
110.731
110.917
111.128
111.37
111.648
111.97
112.348
112.799
113.338
113.859
114.338
114.957
115.178
115.134
282.267
521.303
763.848
998.255
1231.06
1459.34
1685.25
1903.37
2057.04
2149.14
2237.64
2320.95
2396.24
2459.14
2504.79
2528.86
2528.86
2504.79
2459.14
2396.24
2320.95
2237.64
2149.14
2057.04
1903.37
1685.25
1459.34
1231.06
998.255
763.848
521.303
282.267
115.134
115.178
114.957
114.338
113.859
113.338
112.799
112.348
111.97
111.648
111.37
111.128
110.917
110.731
110.569
110.428
110.306
110.202
110.114
110.042
109.986
109.944
109.916
109.902
109.471
109.485
109.513
109.555
109.611
109.683
109.77
109.874
109.995
110.136
110.297
110.481
110.691
110.931
111.205
111.521
111.889
112.321
112.817
113.307
113.769
114.281
114.504
114.47
114.379
115.266
340.979
573.585
807.024
1035.09
1262.62
1481.2
1638.03
1732.85
1825.11
1913.84
1996.27
2066.71
2118.82
2146.56
2146.56
2118.82
2066.71
1996.27
1913.84
1825.11
1732.85
1638.03
1481.2
1262.62
1035.09
807.024
573.585
340.979
115.266
114.379
114.47
114.504
114.281
113.769
113.307
112.817
112.321
111.889
111.521
111.205
110.931
110.691
110.481
110.297
110.136
109.995
109.874
109.77
109.683
109.611
109.555
109.513
109.485
109.471
108.997
109.011
109.038
109.08
109.137
109.208
109.295
109.398
109.519
109.658
109.818
110
110.208
110.445
110.715
111.024
111.38
111.789
112.247
112.703
113.138
113.571
113.792
113.817
113.802
114.019
113.83
115.216
342.691
569.768
800.093
1018.35
1179.5
1277.86
1374.87
1471.22
1564.8
1647.23
1709.92
1743.69
1743.69
1709.92
1647.23
1564.8
1471.22
1374.87
1277.86
1179.5
1018.35
800.093
569.768
342.691
115.216
113.83
114.019
113.802
113.817
113.792
113.571
113.138
112.703
112.247
111.789
111.38
111.024
110.715
110.445
110.208
110
109.818
109.658
109.519
109.398
109.295
109.208
109.137
109.08
109.038
109.011
108.997
108.475
108.489
108.516
108.558
108.614
108.685
108.771
108.873
108.993
109.131
109.29
109.47
109.675
109.907
110.171
110.472
110.814
111.2
111.622
112.044
112.447
112.82
113.037
113.106
113.139
113.277
113.214
113.427
113.16
113.739
296.098
510.297
677.499
780.125
881.937
988.201
1099.88
1201.49
1282.18
1326
1326
1282.18
1201.49
1099.88
988.201
881.937
780.125
677.499
510.297
296.098
113.739
113.16
113.427
113.214
113.277
113.139
113.106
113.037
112.82
112.447
112.044
111.622
111.2
110.814
110.472
110.171
109.907
109.675
109.47
109.29
109.131
108.993
108.873
108.771
108.685
108.614
108.558
108.516
108.489
108.475
107.901
107.914
107.942
107.983
108.038
108.109
108.194
108.295
108.414
108.551
108.707
108.884
109.085
109.313
109.57
109.86
110.186
110.548
110.937
111.325
111.693
112.02
112.232
112.332
112.396
112.495
112.496
112.606
112.482
112.57
112.319
112.388
151.808
239.786
340.586
456.954
601.286
731.987
845.417
906.147
906.147
845.417
731.987
601.286
456.954
340.586
239.786
151.808
112.388
112.319
112.57
112.482
112.606
112.496
112.495
112.396
112.332
112.232
112.02
111.693
111.325
110.937
110.548
110.186
109.86
109.57
109.313
109.085
108.884
108.707
108.551
108.414
108.295
108.194
108.109
108.038
107.983
107.942
107.914
107.901
107.268
107.282
107.309
107.35
107.404
107.474
107.558
107.658
107.775
107.91
108.063
108.237
108.434
108.655
108.904
109.182
109.491
109.828
110.185
110.54
110.874
111.166
111.37
111.491
111.573
111.657
111.688
111.749
111.697
111.718
111.59
111.619
111.698
111.573
111.555
111.704
141.933
256.475
427.831
513.494
513.494
427.831
256.475
141.933
111.704
111.555
111.573
111.698
111.619
111.59
111.718
111.697
111.749
111.688
111.657
111.573
111.491
111.37
111.166
110.874
110.54
110.185
109.828
109.491
109.182
108.904
108.655
108.434
108.237
108.063
107.91
107.775
107.658
107.558
107.474
107.404
107.35
107.309
107.282
107.268
106.571
106.585
106.611
106.652
106.706
106.774
106.857
106.956
107.071
107.202
107.353
107.523
107.714
107.928
108.167
108.431
108.722
109.034
109.36
109.683
109.986
110.248
110.445
110.576
110.67
110.749
110.794
110.836
110.82
110.818
110.753
110.758
110.77
110.736
110.72
110.717
110.69
111.599
162.365
227.278
227.278
162.365
111.599
110.69
110.717
110.72
110.736
110.77
110.758
110.753
110.818
110.82
110.836
110.794
110.749
110.67
110.576
110.445
110.248
109.986
109.683
109.36
109.034
108.722
108.431
108.167
107.928
107.714
107.523
107.353
107.202
107.071
106.956
106.857
106.774
106.706
106.652
106.611
106.585
106.571
105.803
105.816
105.843
105.882
105.935
106.003
106.084
106.181
106.293
106.422
106.568
106.733
106.918
107.123
107.351
107.601
107.872
108.16
108.457
108.749
109.022
109.26
109.447
109.583
109.684
109.762
109.814
109.851
109.853
109.849
109.817
109.812
109.807
109.795
109.785
109.779
109.775
109.832
113.735
131.383
131.383
113.735
109.832
109.775
109.779
109.785
109.795
109.807
109.812
109.817
109.849
109.853
109.851
109.814
109.762
109.684
109.583
109.447
109.26
109.022
108.749
108.457
108.16
107.872
107.601
107.351
107.123
106.918
106.733
106.568
106.422
106.293
106.181
106.084
106.003
105.935
105.882
105.843
105.816
105.803
104.957
104.969
104.995
105.034
105.086
105.151
105.231
105.325
105.435
105.56
105.701
105.86
106.037
106.234
106.449
106.683
106.934
107.198
107.467
107.731
107.977
108.193
108.37
108.506
108.61
108.689
108.745
108.782
108.795
108.796
108.781
108.774
108.766
108.76
108.753
108.748
108.745
108.745
109.301
115.572
115.572
109.301
108.745
108.745
108.748
108.753
108.76
108.766
108.774
108.781
108.796
108.795
108.782
108.745
108.689
108.61
108.506
108.37
108.193
107.977
107.731
107.467
107.198
106.934
106.683
106.449
106.234
106.037
105.86
105.701
105.56
105.435
105.325
105.231
105.151
105.086
105.034
104.995
104.969
104.957
104.023
104.035
104.06
104.098
104.149
104.212
104.29
104.381
104.487
104.607
104.743
104.896
105.064
105.25
105.452
105.67
105.901
106.141
106.384
106.621
106.843
107.039
107.205
107.337
107.441
107.521
107.58
107.619
107.639
107.646
107.642
107.636
107.629
107.625
107.619
107.614
107.608
107.602
107.589
110.916
110.916
107.589
107.602
107.608
107.614
107.619
107.625
107.629
107.636
107.642
107.646
107.639
107.619
107.58
107.521
107.441
107.337
107.205
107.039
106.843
106.621
106.384
106.141
105.901
105.67
105.452
105.25
105.064
104.896
104.743
104.607
104.487
104.381
104.29
104.212
104.149
104.098
104.06
104.035
104.023
102.992
103.005
103.029
103.065
103.114
103.176
103.251
103.339
103.44
103.556
103.685
103.83
103.989
104.163
104.351
104.552
104.763
104.98
105.199
105.411
105.61
105.789
105.942
106.069
106.171
106.251
106.311
106.353
106.378
106.39
106.393
106.39
106.384
106.38
106.375
106.37
106.363
106.355
106.334
108.759
108.759
106.334
106.355
106.363
106.37
106.375
106.38
106.384
106.39
106.393
106.39
106.378
106.353
106.311
106.251
106.171
106.069
105.942
105.789
105.61
105.411
105.199
104.98
104.763
104.552
104.351
104.163
103.989
103.83
103.685
103.556
103.44
103.339
103.251
103.176
103.114
103.065
103.029
103.005
102.992
101.856
101.867
101.891
101.926
101.973
102.032
102.103
102.187
102.284
102.394
102.516
102.652
102.801
102.963
103.136
103.32
103.511
103.707
103.902
104.092
104.27
104.431
104.573
104.692
104.79
104.869
104.929
104.973
105.002
105.019
105.026
105.026
105.022
105.018
105.013
105.007
105
104.992
104.971
107.208
107.208
104.971
104.992
105
105.007
105.013
105.018
105.022
105.026
105.026
105.019
105.002
104.973
104.929
104.869
104.79
104.692
104.573
104.431
104.27
104.092
103.902
103.707
103.511
103.32
103.136
102.963
102.801
102.652
102.516
102.394
102.284
102.187
102.103
102.032
101.973
101.926
101.891
101.867
101.856
100.521
100.532
100.554
100.587
100.632
100.688
100.756
100.835
100.926
101.029
101.143
101.269
101.406
101.554
101.712
101.877
102.048
102.222
102.394
102.561
102.719
102.863
102.991
103.102
103.195
103.27
103.33
103.375
103.406
103.426
103.437
103.439
103.436
103.433
103.428
103.423
103.416
103.408
103.386
105.621
105.621
103.386
103.408
103.416
103.423
103.428
103.433
103.436
103.439
103.437
103.426
103.406
103.375
103.33
103.27
103.195
103.102
102.991
102.863
102.719
102.561
102.394
102.222
102.048
101.877
101.712
101.554
101.406
101.269
101.143
101.029
100.926
100.835
100.756
100.688
100.632
100.587
100.554
100.532
100.521
99.0372
99.0476
99.0686
99.1
99.142
99.1946
99.2578
99.3316
99.4161
99.5111
99.6165
99.732
99.857
99.9908
100.132
100.28
100.431
100.584
100.736
100.882
101.021
101.149
101.264
101.365
101.451
101.523
101.58
101.625
101.657
101.679
101.691
101.696
101.693
101.69
101.686
101.681
101.674
101.665
101.644
103.932
103.932
101.644
101.665
101.674
101.681
101.686
101.69
101.693
101.696
101.691
101.679
101.657
101.625
101.58
101.523
101.451
101.365
101.264
101.149
101.021
100.882
100.736
100.584
100.431
100.28
100.132
99.9908
99.857
99.732
99.6165
99.5111
99.4161
99.3316
99.2578
99.1946
99.142
99.1
99.0686
99.0476
99.0372
97.5432
97.553
97.5726
97.602
97.6412
97.6903
97.7491
97.8176
97.8957
97.9833
98.08
98.1854
98.299
98.4198
98.5468
98.6785
98.8131
98.9485
99.0822
99.2117
99.3346
99.4486
99.552
99.6436
99.7228
99.7896
99.8442
99.8871
99.9193
99.9414
99.9545
99.9594
99.9574
99.9548
99.9507
99.9452
99.9384
99.9302
99.9093
102.263
102.263
99.9093
99.9302
99.9384
99.9452
99.9507
99.9548
99.9574
99.9594
99.9545
99.9414
99.9193
99.8871
99.8442
99.7896
99.7228
99.6436
99.552
99.4486
99.3346
99.2117
99.0822
98.9485
98.8131
98.6785
98.5468
98.4198
98.299
98.1854
98.08
97.9833
97.8957
97.8176
97.7491
97.6903
97.6412
97.602
97.5726
97.553
97.5432
96.0394
96.0486
96.0668
96.0942
96.1307
96.1762
96.2306
96.2939
96.3659
96.4463
96.5347
96.6307
96.7336
96.8426
96.9567
97.0744
97.1942
97.3143
97.4328
97.5475
97.6567
97.7584
97.8512
97.9342
98.0067
98.0684
98.1195
98.1602
98.1911
98.2128
98.2258
98.2308
98.229
98.2264
98.2224
98.2169
98.2101
98.2019
98.1815
100.607
100.607
98.1815
98.2019
98.2101
98.2169
98.2224
98.2264
98.229
98.2308
98.2258
98.2128
98.1911
98.1602
98.1195
98.0684
98.0067
97.9342
97.8512
97.7584
97.6567
97.5475
97.4328
97.3143
97.1942
97.0744
96.9567
96.8426
96.7336
96.6307
96.5347
96.4463
96.3659
96.2939
96.2306
96.1762
96.1307
96.0942
96.0668
96.0486
96.0394
94.5265
94.535
94.5519
94.5773
94.6111
94.6531
94.7034
94.7616
94.8277
94.9012
94.9818
95.0691
95.1622
95.2605
95.3628
95.4681
95.5749
95.6818
95.787
95.889
95.9862
96.077
96.1604
96.2353
96.3013
96.3579
96.4052
96.4432
96.4722
96.4928
96.5051
96.5098
96.5078
96.5052
96.5011
96.4957
96.4889
96.4807
96.4607
98.9655
98.9655
96.4607
96.4807
96.4889
96.4957
96.5011
96.5052
96.5078
96.5098
96.5051
96.4928
96.4722
96.4432
96.4052
96.3579
96.3013
96.2353
96.1604
96.077
95.9862
95.889
95.787
95.6818
95.5749
95.4681
95.3628
95.2605
95.1622
95.0691
94.9818
94.9012
94.8277
94.7616
94.7034
94.6531
94.6111
94.5773
94.5519
94.535
94.5265
93.0051
93.0129
93.0286
93.052
93.0832
93.1219
93.1681
93.2215
93.2819
93.349
93.4224
93.5015
93.5857
93.6742
93.7661
93.8603
93.9557
94.0509
94.1446
94.2354
94.322
94.4032
94.4779
94.5455
94.6052
94.6568
94.7001
94.7351
94.7619
94.7809
94.7922
94.7962
94.7939
94.7911
94.787
94.7815
94.7746
94.7664
94.7469
97.338
97.338
94.7469
94.7664
94.7746
94.7815
94.787
94.7911
94.7939
94.7962
94.7922
94.7809
94.7619
94.7351
94.7001
94.6568
94.6052
94.5455
94.4779
94.4032
94.322
94.2354
94.1446
94.0509
93.9557
93.8603
93.7661
93.6742
93.5857
93.5015
93.4224
93.349
93.2819
93.2215
93.1681
93.1219
93.0832
93.052
93.0286
93.0129
93.0051
91.4759
91.4831
91.4975
91.5191
91.5477
91.5832
91.6255
91.6744
91.7295
91.7906
91.8572
91.9288
92.0048
92.0845
92.167
92.2514
92.3366
92.4215
92.505
92.586
92.6632
92.7358
92.8027
92.8634
92.9173
92.964
93.0032
93.0351
93.0595
93.0766
93.0866
93.0897
93.087
93.084
93.0797
93.0741
93.0672
93.059
93.0399
95.7258
95.7258
93.0399
93.059
93.0672
93.0741
93.0797
93.084
93.087
93.0897
93.0866
93.0766
93.0595
93.0351
93.0032
92.964
92.9173
92.8634
92.8027
92.7358
92.6632
92.586
92.505
92.4215
92.3366
92.2514
92.167
92.0845
92.0048
91.9288
91.8572
91.7906
91.7295
91.6744
91.6255
91.5832
91.5477
91.5191
91.4975
91.4831
91.4759
89.9394
89.946
89.9593
89.979
90.0052
90.0378
90.0764
90.121
90.1712
90.2267
90.2871
90.3518
90.4203
90.492
90.566
90.6416
90.7177
90.7936
90.868
90.9402
91.0091
91.0739
91.1338
91.1882
91.2365
91.2785
91.3139
91.3425
91.3644
91.3795
91.388
91.39
91.3867
91.3835
91.379
91.3733
91.3663
91.3581
91.3396
94.1298
94.1298
91.3396
91.3581
91.3663
91.3733
91.379
91.3835
91.3867
91.39
91.388
91.3795
91.3644
91.3425
91.3139
91.2785
91.2365
91.1882
91.1338
91.0739
91.0091
90.9402
90.868
90.7936
90.7177
90.6416
90.566
90.492
90.4203
90.3518
90.2871
90.2267
90.1712
90.121
90.0764
90.0378
90.0052
89.979
89.9593
89.946
89.9394
88.3963
88.4024
88.4145
88.4326
88.4565
88.4862
88.5214
88.562
88.6076
88.6579
88.7125
88.771
88.8327
88.8971
88.9635
89.0312
89.0992
89.1669
89.2334
89.2977
89.3592
89.4169
89.4704
89.519
89.5622
89.5997
89.6312
89.6567
89.6759
89.689
89.6959
89.6967
89.6929
89.6894
89.6846
89.6788
89.6717
89.6635
89.6454
92.5513
92.5513
89.6454
89.6635
89.6717
89.6788
89.6846
89.6894
89.6929
89.6967
89.6959
89.689
89.6759
89.6567
89.6312
89.5997
89.5622
89.519
89.4704
89.4169
89.3592
89.2977
89.2334
89.1669
89.0992
89.0312
88.9635
88.8971
88.8327
88.771
88.7125
88.6579
88.6076
88.562
88.5214
88.4862
88.4565
88.4326
88.4145
88.4024
88.3963
86.8471
86.8527
86.8637
86.8802
86.902
86.9291
86.9611
86.9979
87.0393
87.0848
87.1341
87.1868
87.2424
87.3002
87.3598
87.4203
87.4811
87.5416
87.6008
87.6581
87.7129
87.7643
87.8119
87.8551
87.8935
87.9268
87.9547
87.9771
87.9937
88.0047
88.0099
88.0094
88.005
88.0012
87.9962
87.9902
87.983
87.9748
87.9572
90.9918
90.9918
87.9572
87.9748
87.983
87.9902
87.9962
88.0012
88.005
88.0094
88.0099
88.0047
87.9937
87.9771
87.9547
87.9268
87.8935
87.8551
87.8119
87.7643
87.7129
87.6581
87.6008
87.5416
87.4811
87.4203
87.3598
87.3002
87.2424
87.1868
87.1341
87.0848
87.0393
86.9979
86.9611
86.9291
86.902
86.8802
86.8637
86.8527
86.8471
85.2924
85.2975
85.3075
85.3225
85.3424
85.3669
85.396
85.4294
85.4668
85.5079
85.5524
85.5998
85.6498
85.7017
85.755
85.8091
85.8635
85.9174
85.9701
86.0212
86.0698
86.1155
86.1578
86.1961
86.23
86.2593
86.2838
86.3031
86.3172
86.3261
86.3296
86.3279
86.3228
86.3186
86.3134
86.3072
86.2999
86.2916
86.2745
89.4532
89.4532
86.2745
86.2916
86.2999
86.3072
86.3134
86.3186
86.3228
86.3279
86.3296
86.3261
86.3172
86.3031
86.2838
86.2593
86.23
86.1961
86.1578
86.1155
86.0698
86.0212
85.9701
85.9174
85.8635
85.8091
85.755
85.7017
85.6498
85.5998
85.5524
85.5079
85.4668
85.4294
85.396
85.3669
85.3424
85.3225
85.3075
85.2975
85.2924
83.7327
83.7373
83.7464
83.76
83.778
83.8002
83.8266
83.8567
83.8905
83.9276
83.9677
84.0104
84.0552
84.1017
84.1494
84.1978
84.2463
84.2943
84.3412
84.3866
84.4297
84.4702
84.5076
84.5413
84.5712
84.5968
84.6179
84.6344
84.646
84.6528
84.6546
84.6516
84.6458
84.6413
84.6358
84.6293
84.6219
84.6136
84.597
87.9383
87.9383
84.597
84.6136
84.6219
84.6293
84.6358
84.6413
84.6458
84.6516
84.6546
84.6528
84.646
84.6344
84.6179
84.5968
84.5712
84.5413
84.5076
84.4702
84.4297
84.3866
84.3412
84.2943
84.2463
84.1978
84.1494
84.1017
84.0552
84.0104
83.9677
83.9276
83.8905
83.8567
83.8266
83.8002
83.778
83.76
83.7464
83.7373
83.7327
82.1683
82.1725
82.1808
82.1931
82.2094
82.2295
82.2533
82.2805
82.311
82.3444
82.3804
82.4187
82.4589
82.5005
82.5432
82.5864
82.6295
82.6722
82.7139
82.7541
82.7923
82.8281
82.8609
82.8905
82.9165
82.9387
82.9567
82.9704
82.9797
82.9844
82.9846
82.9802
82.9737
82.9688
82.963
82.9564
82.9488
82.9404
82.9242
86.4507
86.4507
82.9242
82.9404
82.9488
82.9564
82.963
82.9688
82.9737
82.9802
82.9846
82.9844
82.9797
82.9704
82.9567
82.9387
82.9165
82.8905
82.8609
82.8281
82.7923
82.7541
82.7139
82.6722
82.6295
82.5864
82.5432
82.5005
82.4589
82.4187
82.3804
82.3444
82.311
82.2805
82.2533
82.2295
82.2094
82.1931
82.1808
82.1725
82.1683
80.5999
80.6036
80.6111
80.6222
80.6369
80.6551
80.6765
80.7011
80.7285
80.7585
80.7909
80.8252
80.8612
80.8984
80.9364
80.9749
81.0133
81.0512
81.0881
81.1237
81.1574
81.1888
81.2176
81.2433
81.2658
81.2847
81.2998
81.3109
81.3179
81.3206
81.3191
81.3134
81.3062
81.3009
81.2948
81.2878
81.2801
81.2716
81.2558
84.995
84.995
81.2558
81.2716
81.2801
81.2878
81.2948
81.3009
81.3062
81.3134
81.3191
81.3206
81.3179
81.3109
81.2998
81.2847
81.2658
81.2433
81.2176
81.1888
81.1574
81.1237
81.0881
81.0512
81.0133
80.9749
80.9364
80.8984
80.8612
80.8252
80.7909
80.7585
80.7285
80.7011
80.6765
80.6551
80.6369
80.6222
80.6111
80.6036
80.5999
79.0276
79.031
79.0377
79.0478
79.0611
79.0774
79.0967
79.1188
79.1434
79.1703
79.1993
79.23
79.2622
79.2954
79.3293
79.3635
79.3976
79.4311
79.4638
79.4951
79.5247
79.5522
79.5772
79.5994
79.6186
79.6345
79.6468
79.6555
79.6603
79.6611
79.658
79.6508
79.6428
79.6371
79.6307
79.6234
79.6155
79.6068
79.5914
83.5778
83.5778
79.5914
79.6068
79.6155
79.6234
79.6307
79.6371
79.6428
79.6508
79.658
79.6611
79.6603
79.6555
79.6468
79.6345
79.6186
79.5994
79.5772
79.5522
79.5247
79.4951
79.4638
79.4311
79.3976
79.3635
79.3293
79.2954
79.2622
79.23
79.1993
79.1703
79.1434
79.1188
79.0967
79.0774
79.0611
79.0478
79.0377
79.031
79.0276
77.452
77.455
77.4611
77.4701
77.4821
77.4968
77.5141
77.5339
77.556
77.5801
77.606
77.6335
77.6621
77.6917
77.7218
77.7521
77.7823
77.812
77.8407
77.8682
77.8941
77.918
77.9396
77.9586
77.9748
77.9879
77.9976
78.0039
78.0066
78.0056
78.0008
77.9922
77.9834
77.9772
77.9704
77.9628
77.9546
77.9457
77.9306
82.2078
82.2078
77.9306
77.9457
77.9546
77.9628
77.9704
77.9772
77.9834
77.9922
78.0008
78.0056
78.0066
78.0039
77.9976
77.9879
77.9748
77.9586
77.9396
77.918
77.8941
77.8682
77.8407
77.812
77.7823
77.7521
77.7218
77.6917
77.6621
77.6335
77.606
77.5801
77.556
77.5339
77.5141
77.4968
77.4821
77.4701
77.4611
77.455
77.452
75.8733
75.876
75.8815
75.8896
75.9003
75.9135
75.929
75.9468
75.9665
75.9881
76.0112
76.0357
76.0612
76.0874
76.1141
76.141
76.1676
76.1937
76.219
76.243
76.2655
76.2861
76.3046
76.3207
76.334
76.3445
76.3519
76.356
76.3566
76.3538
76.3473
76.3373
76.3276
76.3209
76.3136
76.3056
76.297
76.2878
76.273
80.8996
80.8996
76.273
76.2878
76.297
76.3056
76.3136
76.3209
76.3276
76.3373
76.3473
76.3538
76.3566
76.356
76.3519
76.3445
76.334
76.3207
76.3046
76.2861
76.2655
76.243
76.219
76.1937
76.1676
76.141
76.1141
76.0874
76.0612
76.0357
76.0112
75.9881
75.9665
75.9468
75.929
75.9135
75.9003
75.8896
75.8815
75.876
75.8733
74.2919
74.2943
74.2992
74.3065
74.3161
74.3279
74.3418
74.3576
74.3752
74.3945
74.4151
74.4368
74.4594
74.4827
74.5063
74.53
74.5535
74.5764
74.5984
74.6193
74.6387
74.6564
74.672
74.6854
74.6962
74.7043
74.7094
74.7114
74.7102
74.7056
74.6975
74.686
74.6752
74.668
74.6601
74.6516
74.6425
74.6329
74.6183
79.6729
79.6729
74.6183
74.6329
74.6425
74.6516
74.6601
74.668
74.6752
74.686
74.6975
74.7056
74.7102
74.7114
74.7094
74.7043
74.6962
74.6854
74.672
74.6564
74.6387
74.6193
74.5984
74.5764
74.5535
74.53
74.5063
74.4827
74.4594
74.4368
74.4151
74.3945
74.3752
74.3576
74.3418
74.3279
74.3161
74.3065
74.2992
74.2943
74.2919
72.708
72.7102
72.7146
72.7211
72.7296
72.7402
72.7526
72.7667
72.7824
72.7995
72.8178
72.8371
72.8571
72.8777
72.8985
72.9193
72.9398
72.9598
72.979
72.997
73.0136
73.0286
73.0417
73.0526
73.0611
73.067
73.0701
73.0702
73.0671
73.0608
73.0511
73.038
73.0261
73.0181
73.0096
73.0005
72.9908
72.9806
72.966
78.5577
78.5577
72.966
72.9806
72.9908
73.0005
73.0096
73.0181
73.0261
73.038
73.0511
73.0608
73.0671
73.0702
73.0701
73.067
73.0611
73.0526
73.0417
73.0286
73.0136
72.997
72.979
72.9598
72.9398
72.9193
72.8985
72.8777
72.8571
72.8371
72.8178
72.7995
72.7824
72.7667
72.7526
72.7402
72.7296
72.7211
72.7146
72.7102
72.708
71.1219
71.1239
71.1278
71.1336
71.1412
71.1506
71.1616
71.1742
71.1881
71.2033
71.2195
71.2365
71.2542
71.2723
71.2906
71.3089
71.3268
71.3441
71.3607
71.3761
71.3903
71.4028
71.4136
71.4222
71.4286
71.4325
71.4338
71.4321
71.4273
71.4194
71.408
71.3933
71.3801
71.3714
71.362
71.3521
71.3416
71.3306
71.3159
77.5982
77.5982
71.3159
71.3306
71.3416
71.3521
71.362
71.3714
71.3801
71.3933
71.408
71.4194
71.4273
71.4321
71.4338
71.4325
71.4286
71.4222
71.4136
71.4028
71.3903
71.3761
71.3607
71.3441
71.3268
71.3089
71.2906
71.2723
71.2542
71.2365
71.2195
71.2033
71.1881
71.1742
71.1616
71.1506
71.1412
71.1336
71.1278
71.1239
71.1219
69.5339
69.5356
69.5391
69.5442
69.551
69.5594
69.5692
69.5803
69.5926
69.6061
69.6204
69.6354
69.651
69.6668
69.6829
69.6987
69.7143
69.7293
69.7435
69.7566
69.7685
69.7788
69.7875
69.7941
69.7987
69.8008
69.8003
69.797
69.7908
69.7813
69.7684
69.752
69.7375
69.7278
69.7175
69.7065
69.6949
69.6827
69.6676
76.8465
76.8465
69.6676
69.6827
69.6949
69.7065
69.7175
69.7278
69.7375
69.752
69.7684
69.7813
69.7908
69.797
69.8003
69.8008
69.7987
69.7941
69.7875
69.7788
69.7685
69.7566
69.7435
69.7293
69.7143
69.6987
69.6829
69.6668
69.651
69.6354
69.6204
69.6061
69.5926
69.5803
69.5692
69.5594
69.551
69.5442
69.5391
69.5356
69.5339
67.9441
67.9456
67.9487
67.9533
67.9593
67.9667
67.9754
67.9852
67.9961
68.0079
68.0205
68.0337
68.0474
68.0612
68.0752
68.089
68.1024
68.1152
68.1273
68.1384
68.1482
68.1566
68.1633
68.1682
68.1711
68.1716
68.1697
68.165
68.1574
68.1467
68.1324
68.1144
68.0985
68.0878
68.0763
68.064
68.0508
68.037
68.021
76.2768
76.2768
68.021
68.037
68.0508
68.064
68.0763
68.0878
68.0985
68.1144
68.1324
68.1467
68.1574
68.165
68.1697
68.1716
68.1711
68.1682
68.1633
68.1566
68.1482
68.1384
68.1273
68.1152
68.1024
68.089
68.0752
68.0612
68.0474
68.0337
68.0205
68.0079
67.9961
67.9852
67.9754
67.9667
67.9593
67.9533
67.9487
67.9456
67.9441
66.3528
66.3541
66.3568
66.3609
66.3662
66.3727
66.3804
66.389
66.3986
66.409
66.4201
66.4316
66.4435
66.4556
66.4676
66.4795
66.491
66.502
66.5121
66.5213
66.5293
66.536
66.5411
66.5444
66.5457
66.5449
66.5417
66.5359
66.5272
66.5155
66.5002
66.4809
66.4637
66.4521
66.4394
66.4255
66.4105
66.3942
66.3766
75.1946
75.1946
66.3766
66.3942
66.4105
66.4255
66.4394
66.4521
66.4637
66.4809
66.5002
66.5155
66.5272
66.5359
66.5417
66.5449
66.5457
66.5444
66.5411
66.536
66.5293
66.5213
66.5121
66.502
66.491
66.4795
66.4676
66.4556
66.4435
66.4316
66.4201
66.409
66.3986
66.389
66.3804
66.3727
66.3662
66.3609
66.3568
66.3541
66.3528
64.7601
64.7613
64.7637
64.7672
64.7719
64.7776
64.7844
64.792
64.8004
64.8095
64.8191
64.8291
64.8395
64.8499
64.8603
64.8705
64.8803
64.8895
64.8979
64.9054
64.9118
64.9169
64.9206
64.9225
64.9226
64.9206
64.9164
64.9097
64.9002
64.8878
64.8719
64.852
64.8341
64.8219
64.8083
64.7932
64.7763
64.7573
64.7381
70.31
70.31
64.7381
64.7573
64.7763
64.7932
64.8083
64.8219
64.8341
64.852
64.8719
64.8878
64.9002
64.9097
64.9164
64.9206
64.9226
64.9225
64.9206
64.9169
64.9118
64.9054
64.8979
64.8895
64.8803
64.8705
64.8603
64.8499
64.8395
64.8291
64.8191
64.8095
64.8004
64.792
64.7844
64.7776
64.7719
64.7672
64.7637
64.7613
64.7601
63.1661
63.1672
63.1693
63.1724
63.1765
63.1816
63.1874
63.1941
63.2014
63.2093
63.2177
63.2264
63.2353
63.2443
63.2532
63.2618
63.2701
63.2777
63.2847
63.2907
63.2957
63.2994
63.3017
63.3025
63.3015
63.2985
63.2935
63.2861
63.2762
63.2635
63.2476
63.2279
63.2104
63.1985
63.1852
63.1701
63.1526
63.1314
63.1107
63.107
63.107
63.1107
63.1314
63.1526
63.1701
63.1852
63.1985
63.2104
63.2279
63.2476
63.2635
63.2762
63.2861
63.2935
63.2985
63.3015
63.3025
63.3017
63.2994
63.2957
63.2907
63.2847
63.2777
63.2701
63.2618
63.2532
63.2443
63.2353
63.2264
63.2177
63.2093
63.2014
63.1941
63.1874
63.1816
63.1765
63.1724
63.1693
63.1672
63.1661
61.5714
61.5723
61.5742
61.5769
61.5805
61.5849
61.59
61.5958
61.6021
61.609
61.6162
61.6237
61.6313
61.639
61.6465
61.6538
61.6606
61.6669
61.6725
61.6772
61.681
61.6835
61.6847
61.6844
61.6825
61.6788
61.6732
61.6654
61.6553
61.6426
61.6272
61.6087
61.5929
61.5825
61.5714
61.5596
61.5475
61.5357
61.5251
61.5221
61.5221
61.5251
61.5357
61.5475
61.5596
61.5714
61.5825
61.5929
61.6087
61.6272
61.6426
61.6553
61.6654
61.6732
61.6788
61.6825
61.6844
61.6847
61.6835
61.681
61.6772
61.6725
61.6669
61.6606
61.6538
61.6465
61.639
61.6313
61.6237
61.6162
61.609
61.6021
61.5958
61.59
61.5849
61.5805
61.5769
61.5742
61.5723
61.5714
59.9757
59.9765
59.9781
59.9805
59.9836
59.9874
59.9919
59.9969
60.0024
60.0083
60.0145
60.0209
60.0274
60.0338
60.0401
60.0462
60.0518
60.0569
60.0613
60.0648
60.0674
60.0689
60.0692
60.068
60.0654
60.0611
60.055
60.047
60.0369
60.0246
60.0099
59.9929
59.9789
59.9699
59.9605
59.951
59.9414
59.9321
59.9231
59.9202
59.9202
59.9231
59.9321
59.9414
59.951
59.9605
59.9699
59.9789
59.9929
60.0099
60.0246
60.0369
60.047
60.055
60.0611
60.0654
60.068
60.0692
60.0689
60.0674
60.0648
60.0613
60.0569
60.0518
60.0462
60.0401
60.0338
60.0274
60.0209
60.0145
60.0083
60.0024
59.9969
59.9919
59.9874
59.9836
59.9805
59.9781
59.9765
59.9757
58.3792
58.3799
58.3813
58.3834
58.386
58.3893
58.3932
58.3975
58.4022
58.4072
58.4125
58.4179
58.4234
58.4288
58.434
58.439
58.4435
58.4475
58.4508
58.4534
58.455
58.4556
58.455
58.4532
58.4499
58.4452
58.4388
58.4307
58.4207
58.4089
58.3951
58.3794
58.3669
58.3589
58.3508
58.3425
58.3341
58.3259
58.3176
58.3149
58.3149
58.3176
58.3259
58.3341
58.3425
58.3508
58.3589
58.3669
58.3794
58.3951
58.4089
58.4207
58.4307
58.4388
58.4452
58.4499
58.4532
58.455
58.4556
58.455
58.4534
58.4508
58.4475
58.4435
58.439
58.434
58.4288
58.4234
58.4179
58.4125
58.4072
58.4022
58.3975
58.3932
58.3893
58.386
58.3834
58.3813
58.3799
58.3792
56.782
56.7826
56.7838
56.7856
56.7879
56.7907
56.794
56.7977
56.8017
56.8059
56.8104
56.8149
56.8195
56.824
56.8282
56.8322
56.8357
56.8388
56.8412
56.8428
56.8436
56.8434
56.8421
56.8397
56.836
56.8308
56.8243
56.8161
56.8064
56.7951
56.7821
56.7676
56.7562
56.749
56.7416
56.7341
56.7266
56.719
56.7112
56.7085
56.7085
56.7112
56.719
56.7266
56.7341
56.7416
56.749
56.7562
56.7676
56.7821
56.7951
56.8064
56.8161
56.8243
56.8308
56.836
56.8397
56.8421
56.8434
56.8436
56.8428
56.8412
56.8388
56.8357
56.8322
56.8282
56.824
56.8195
56.8149
56.8104
56.8059
56.8017
56.7977
56.794
56.7907
56.7879
56.7856
56.7838
56.7826
56.782
55.1842
55.1847
55.1858
55.1873
55.1892
55.1916
55.1944
55.1975
55.2009
55.2045
55.2082
55.2119
55.2157
55.2193
55.2227
55.2258
55.2285
55.2307
55.2322
55.2331
55.2332
55.2323
55.2305
55.2275
55.2234
55.218
55.2113
55.2032
55.1938
55.1829
55.1706
55.1571
55.1466
55.1399
55.1331
55.1262
55.1191
55.112
55.1047
55.1021
55.1021
55.1047
55.112
55.1191
55.1262
55.1331
55.1399
55.1466
55.1571
55.1706
55.1829
55.1938
55.2032
55.2113
55.218
55.2234
55.2275
55.2305
55.2323
55.2332
55.2331
55.2322
55.2307
55.2285
55.2258
55.2227
55.2193
55.2157
55.2119
55.2082
55.2045
55.2009
55.1975
55.1944
55.1916
55.1892
55.1873
55.1858
55.1847
55.1842
53.5859
53.5864
53.5872
53.5885
53.5902
53.5922
53.5945
53.5971
53.5999
53.6029
53.6059
53.609
53.612
53.6149
53.6175
53.6198
53.6218
53.6232
53.624
53.6242
53.6236
53.6222
53.6199
53.6165
53.6121
53.6065
53.5997
53.5917
53.5825
53.572
53.5604
53.5477
53.5378
53.5316
53.5252
53.5187
53.5121
53.5054
53.4985
53.4959
53.4959
53.4985