/*--------------------------------*- C++ -*----------------------------------*\
  =========                 |
  \\      /  F ield         | OpenFOAM: The Open Source CFD Toolbox
   \\    /   O peration     | Website:  https://openfoam.org
    \\  /    A nd           | Version:  10
     \\/     M anipulation  |
\*---------------------------------------------------------------------------*/
FoamFile
{
    format      ascii;
    class       volVectorField;
    location    "12800";
    object      Ua;
}
// * * * * * * * * * * * * * * * * * * * * * * * * * * * * * * * * * * * * * //

dimensions      [0 1 -1 0 0 0 0];

internalField   nonuniform List<vector> 
6400
(
(-2.8089e-07 5.70963e-08 0)
(-8.45033e-07 5.75763e-08 0)
(-1.41635e-06 5.85549e-08 0)
(-1.99994e-06 6.0071e-08 0)
(-2.6014e-06 6.21876e-08 0)
(-3.22711e-06 6.49984e-08 0)
(-3.88454e-06 6.86379e-08 0)
(-4.58281e-06 7.32985e-08 0)
(-5.33332e-06 7.92579e-08 0)
(-6.15087e-06 8.69248e-08 0)
(-7.05531e-06 9.69196e-08 0)
(-8.07437e-06 1.10224e-07 0)
(-9.24869e-06 1.28479e-07 0)
(-1.06415e-05 1.54639e-07 0)
(-1.23595e-05 1.94577e-07 0)
(-1.46037e-05 2.61598e-07 0)
(-1.78013e-05 3.8838e-07 0)
(-2.22925e-05 5.24533e-07 0)
(-1.33131e-05 7.47232e-06 0)
(-9.24444e-07 9.39296e-06 0)
(-6.75241e-08 5.37149e-07 0)
(-3.40647e-08 2.35863e-07 0)
(-2.45413e-08 1.44349e-07 0)
(-1.77916e-08 1.02759e-07 0)
(-1.34255e-08 7.90936e-08 0)
(-1.05468e-08 6.41976e-08 0)
(-8.76364e-09 5.40941e-08 0)
(-7.50709e-09 4.684e-08 0)
(-6.58236e-09 4.14618e-08 0)
(-5.84379e-09 3.72677e-08 0)
(-5.21365e-09 3.39237e-08 0)
(-4.64181e-09 3.12468e-08 0)
(-4.22471e-09 2.92066e-08 0)
(-3.91201e-09 2.8411e-08 0)
(-3.54654e-09 2.77069e-08 0)
(-3.10725e-09 2.71009e-08 0)
(-2.57533e-09 2.65944e-08 0)
(-1.94168e-09 2.62141e-08 0)
(-1.21095e-09 2.59707e-08 0)
(-4.1143e-10 2.57695e-08 0)
(4.1143e-10 2.57695e-08 0)
(1.21095e-09 2.59707e-08 0)
(1.94168e-09 2.62141e-08 0)
(2.57533e-09 2.65944e-08 0)
(3.10725e-09 2.71009e-08 0)
(3.54654e-09 2.77069e-08 0)
(3.91201e-09 2.8411e-08 0)
(4.22471e-09 2.92066e-08 0)
(4.64181e-09 3.12468e-08 0)
(5.21365e-09 3.39237e-08 0)
(5.84379e-09 3.72677e-08 0)
(6.58236e-09 4.14618e-08 0)
(7.50709e-09 4.684e-08 0)
(8.76364e-09 5.40941e-08 0)
(1.05468e-08 6.41976e-08 0)
(1.34255e-08 7.90936e-08 0)
(1.77916e-08 1.02759e-07 0)
(2.45413e-08 1.44349e-07 0)
(3.40647e-08 2.35863e-07 0)
(6.75241e-08 5.37149e-07 0)
(9.24444e-07 9.39296e-06 0)
(1.33131e-05 7.47232e-06 0)
(2.22925e-05 5.24533e-07 0)
(1.78013e-05 3.8838e-07 0)
(1.46037e-05 2.61598e-07 0)
(1.23595e-05 1.94577e-07 0)
(1.06415e-05 1.54639e-07 0)
(9.24869e-06 1.28479e-07 0)
(8.07437e-06 1.10224e-07 0)
(7.05531e-06 9.69196e-08 0)
(6.15087e-06 8.69248e-08 0)
(5.33332e-06 7.92579e-08 0)
(4.58281e-06 7.32985e-08 0)
(3.88454e-06 6.86379e-08 0)
(3.22711e-06 6.49984e-08 0)
(2.6014e-06 6.21876e-08 0)
(1.99994e-06 6.0071e-08 0)
(1.41635e-06 5.85549e-08 0)
(8.45033e-07 5.75763e-08 0)
(2.8089e-07 5.70963e-08 0)
(-2.80788e-07 1.76795e-07 0)
(-8.44722e-07 1.7828e-07 0)
(-1.41582e-06 1.81309e-07 0)
(-1.99917e-06 1.86001e-07 0)
(-2.60035e-06 1.92551e-07 0)
(-3.22573e-06 2.01249e-07 0)
(-3.88277e-06 2.12511e-07 0)
(-4.58055e-06 2.26931e-07 0)
(-5.33042e-06 2.45367e-07 0)
(-6.14711e-06 2.6908e-07 0)
(-7.05035e-06 2.99986e-07 0)
(-8.06765e-06 3.41109e-07 0)
(-9.23923e-06 3.97502e-07 0)
(-1.06274e-05 4.78236e-07 0)
(-1.23367e-05 6.01284e-07 0)
(-1.45624e-05 8.07284e-07 0)
(-1.77453e-05 1.2023e-06 0)
(-2.3938e-05 2.00418e-06 0)
(-2.50177e-05 1.42151e-05 0)
(-1.22643e-05 1.37078e-05 0)
(-1.4297e-06 6.06547e-06 0)
(-1.12247e-07 5.61418e-07 0)
(-6.58657e-08 2.71951e-07 0)
(-4.4474e-08 1.8142e-07 0)
(-3.26264e-08 1.35877e-07 0)
(-2.52541e-08 1.0925e-07 0)
(-2.08423e-08 9.14529e-08 0)
(-1.77749e-08 7.89255e-08 0)
(-1.55487e-08 6.96888e-08 0)
(-1.37897e-08 6.25606e-08 0)
(-1.23018e-08 5.68802e-08 0)
(-1.09682e-08 5.23611e-08 0)
(-1.00087e-08 4.8899e-08 0)
(-9.29346e-09 4.7533e-08 0)
(-8.45824e-09 4.63195e-08 0)
(-7.44817e-09 4.5268e-08 0)
(-6.20826e-09 4.43866e-08 0)
(-4.70511e-09 4.37218e-08 0)
(-2.9455e-09 4.32872e-08 0)
(-1.00273e-09 4.2941e-08 0)
(1.00273e-09 4.2941e-08 0)
(2.9455e-09 4.32872e-08 0)
(4.70511e-09 4.37218e-08 0)
(6.20826e-09 4.43866e-08 0)
(7.44817e-09 4.5268e-08 0)
(8.45824e-09 4.63195e-08 0)
(9.29346e-09 4.7533e-08 0)
(1.00087e-08 4.8899e-08 0)
(1.09682e-08 5.23611e-08 0)
(1.23018e-08 5.68802e-08 0)
(1.37897e-08 6.25606e-08 0)
(1.55487e-08 6.96888e-08 0)
(1.77749e-08 7.89255e-08 0)
(2.08423e-08 9.14529e-08 0)
(2.52541e-08 1.0925e-07 0)
(3.26264e-08 1.35877e-07 0)
(4.4474e-08 1.8142e-07 0)
(6.58657e-08 2.71951e-07 0)
(1.12247e-07 5.61418e-07 0)
(1.4297e-06 6.06547e-06 0)
(1.22643e-05 1.37078e-05 0)
(2.50177e-05 1.42151e-05 0)
(2.3938e-05 2.00418e-06 0)
(1.77453e-05 1.2023e-06 0)
(1.45624e-05 8.07284e-07 0)
(1.23367e-05 6.01284e-07 0)
(1.06274e-05 4.78236e-07 0)
(9.23923e-06 3.97502e-07 0)
(8.06765e-06 3.41109e-07 0)
(7.05035e-06 2.99986e-07 0)
(6.14711e-06 2.6908e-07 0)
(5.33042e-06 2.45367e-07 0)
(4.58055e-06 2.26931e-07 0)
(3.88277e-06 2.12511e-07 0)
(3.22573e-06 2.01249e-07 0)
(2.60035e-06 1.92551e-07 0)
(1.99917e-06 1.86001e-07 0)
(1.41582e-06 1.81309e-07 0)
(8.44722e-07 1.7828e-07 0)
(2.80788e-07 1.76795e-07 0)
(-2.80553e-07 3.08002e-07 0)
(-8.44008e-07 3.10588e-07 0)
(-1.4146e-06 3.15858e-07 0)
(-1.99739e-06 3.24023e-07 0)
(-2.59794e-06 3.35421e-07 0)
(-3.22257e-06 3.50554e-07 0)
(-3.87871e-06 3.70144e-07 0)
(-4.57535e-06 3.95222e-07 0)
(-5.32375e-06 4.27274e-07 0)
(-6.13847e-06 4.68485e-07 0)
(-7.03896e-06 5.22162e-07 0)
(-8.05223e-06 5.93524e-07 0)
(-9.21756e-06 6.91257e-07 0)
(-1.05953e-05 8.30879e-07 0)
(-1.22848e-05 1.04289e-06 0)
(-1.44672e-05 1.39558e-06 0)
(-1.7527e-05 2.07186e-06 0)
(-2.25504e-05 3.74369e-06 0)
(-2.46403e-05 1.32274e-05 0)
(-2.08284e-05 1.85496e-05 0)
(-1.46263e-05 1.28856e-05 0)
(-5.71016e-06 2.19367e-05 0)
(-2.07348e-07 9.42418e-07 0)
(-9.22758e-08 4.14084e-07 0)
(-6.09806e-08 2.79672e-07 0)
(-4.51554e-08 2.16916e-07 0)
(-3.66237e-08 1.78201e-07 0)
(-3.09221e-08 1.52382e-07 0)
(-2.6922e-08 1.3381e-07 0)
(-2.38247e-08 1.1979e-07 0)
(-2.12465e-08 1.08705e-07 0)
(-1.89864e-08 1.00006e-07 0)
(-1.74055e-08 9.33464e-08 0)
(-1.62384e-08 9.072e-08 0)
(-1.48783e-08 8.84069e-08 0)
(-1.3215e-08 8.64181e-08 0)
(-1.11198e-08 8.47726e-08 0)
(-8.49997e-09 8.3547e-08 0)
(-5.35462e-09 8.27399e-08 0)
(-1.82881e-09 8.21051e-08 0)
(1.82881e-09 8.21051e-08 0)
(5.35462e-09 8.27399e-08 0)
(8.49997e-09 8.3547e-08 0)
(1.11198e-08 8.47726e-08 0)
(1.3215e-08 8.64181e-08 0)
(1.48783e-08 8.84069e-08 0)
(1.62384e-08 9.072e-08 0)
(1.74055e-08 9.33464e-08 0)
(1.89864e-08 1.00006e-07 0)
(2.12465e-08 1.08705e-07 0)
(2.38247e-08 1.1979e-07 0)
(2.6922e-08 1.3381e-07 0)
(3.09221e-08 1.52382e-07 0)
(3.66237e-08 1.78201e-07 0)
(4.51554e-08 2.16916e-07 0)
(6.09806e-08 2.79672e-07 0)
(9.22758e-08 4.14084e-07 0)
(2.07348e-07 9.42418e-07 0)
(5.71016e-06 2.19367e-05 0)
(1.46263e-05 1.28856e-05 0)
(2.08284e-05 1.85496e-05 0)
(2.46403e-05 1.32274e-05 0)
(2.25504e-05 3.74369e-06 0)
(1.7527e-05 2.07186e-06 0)
(1.44672e-05 1.39558e-06 0)
(1.22848e-05 1.04289e-06 0)
(1.05953e-05 8.30879e-07 0)
(9.21756e-06 6.91257e-07 0)
(8.05223e-06 5.93524e-07 0)
(7.03896e-06 5.22162e-07 0)
(6.13847e-06 4.68485e-07 0)
(5.32375e-06 4.27274e-07 0)
(4.57535e-06 3.95222e-07 0)
(3.87871e-06 3.70144e-07 0)
(3.22257e-06 3.50554e-07 0)
(2.59794e-06 3.35421e-07 0)
(1.99739e-06 3.24023e-07 0)
(1.4146e-06 3.15858e-07 0)
(8.44008e-07 3.10588e-07 0)
(2.80553e-07 3.08002e-07 0)
(-2.80148e-07 4.51748e-07 0)
(-8.42777e-07 4.55533e-07 0)
(-1.41249e-06 4.6325e-07 0)
(-1.99432e-06 4.75202e-07 0)
(-2.59378e-06 4.91884e-07 0)
(-3.21713e-06 5.14029e-07 0)
(-3.87171e-06 5.42687e-07 0)
(-4.5664e-06 5.79359e-07 0)
(-5.31228e-06 6.26206e-07 0)
(-6.12362e-06 6.86395e-07 0)
(-7.01939e-06 7.64714e-07 0)
(-8.02579e-06 8.68686e-07 0)
(-9.18048e-06 1.01077e-06 0)
(-1.05404e-05 1.21302e-06 0)
(-1.2197e-05 1.51823e-06 0)
(-1.43078e-05 2.02008e-06 0)
(-1.71644e-05 2.96177e-06 0)
(-2.12123e-05 5.16788e-06 0)
(-2.29274e-05 1.27742e-05 0)
(-2.07852e-05 1.7496e-05 0)
(-2.49438e-05 1.56874e-05 0)
(-2.01817e-05 4.02037e-05 0)
(-5.23185e-06 1.85512e-05 0)
(-4.18171e-07 1.49154e-06 0)
(-1.24808e-07 5.89214e-07 0)
(-7.647e-08 3.8643e-07 0)
(-5.84088e-08 2.98179e-07 0)
(-4.79117e-08 2.48293e-07 0)
(-4.11776e-08 2.15032e-07 0)
(-3.62225e-08 1.91212e-07 0)
(-3.22427e-08 1.72814e-07 0)
(-2.88936e-08 1.58783e-07 0)
(-2.66732e-08 1.48071e-07 0)
(-2.50618e-08 1.43866e-07 0)
(-2.31992e-08 1.40212e-07 0)
(-2.08832e-08 1.37093e-07 0)
(-1.78293e-08 1.34522e-07 0)
(-1.38069e-08 1.32612e-07 0)
(-8.78069e-09 1.31328e-07 0)
(-3.01362e-09 1.30343e-07 0)
(3.01362e-09 1.30343e-07 0)
(8.78069e-09 1.31328e-07 0)
(1.38069e-08 1.32612e-07 0)
(1.78293e-08 1.34522e-07 0)
(2.08832e-08 1.37093e-07 0)
(2.31992e-08 1.40212e-07 0)
(2.50618e-08 1.43866e-07 0)
(2.66732e-08 1.48071e-07 0)
(2.88936e-08 1.58783e-07 0)
(3.22427e-08 1.72814e-07 0)
(3.62225e-08 1.91212e-07 0)
(4.11776e-08 2.15032e-07 0)
(4.79117e-08 2.48293e-07 0)
(5.84088e-08 2.98179e-07 0)
(7.647e-08 3.8643e-07 0)
(1.24808e-07 5.89214e-07 0)
(4.18171e-07 1.49154e-06 0)
(5.23185e-06 1.85512e-05 0)
(2.01817e-05 4.02037e-05 0)
(2.49438e-05 1.56874e-05 0)
(2.07852e-05 1.7496e-05 0)
(2.29274e-05 1.27742e-05 0)
(2.12123e-05 5.16788e-06 0)
(1.71644e-05 2.96177e-06 0)
(1.43078e-05 2.02008e-06 0)
(1.2197e-05 1.51823e-06 0)
(1.05404e-05 1.21302e-06 0)
(9.18048e-06 1.01077e-06 0)
(8.02579e-06 8.68686e-07 0)
(7.01939e-06 7.64714e-07 0)
(6.12362e-06 6.86395e-07 0)
(5.31228e-06 6.26206e-07 0)
(4.5664e-06 5.79359e-07 0)
(3.87171e-06 5.42687e-07 0)
(3.21713e-06 5.14029e-07 0)
(2.59378e-06 4.91884e-07 0)
(1.99432e-06 4.75202e-07 0)
(1.41249e-06 4.6325e-07 0)
(8.42777e-07 4.55533e-07 0)
(2.80148e-07 4.51748e-07 0)
(-2.79528e-07 6.09121e-07 0)
(-8.40893e-07 6.14211e-07 0)
(-1.40927e-06 6.24586e-07 0)
(-1.98963e-06 6.40655e-07 0)
(-2.58742e-06 6.63077e-07 0)
(-3.20881e-06 6.92831e-07 0)
(-3.86102e-06 7.3132e-07 0)
(-4.55273e-06 7.80544e-07 0)
(-5.29477e-06 8.43374e-07 0)
(-6.10096e-06 9.24011e-07 0)
(-6.98959e-06 1.02878e-06 0)
(-7.9856e-06 1.16756e-06 0)
(-9.12432e-06 1.35659e-06 0)
(-1.04579e-05 1.62426e-06 0)
(-1.20664e-05 2.02451e-06 0)
(-1.40767e-05 2.67138e-06 0)
(-1.66769e-05 3.8416e-06 0)
(-1.99207e-05 6.32801e-06 0)
(-2.13395e-05 1.24915e-05 0)
(-2.0138e-05 1.68507e-05 0)
(-2.20873e-05 1.80216e-05 0)
(-1.68914e-05 3.50675e-05 0)
(-3.56923e-06 3.40506e-05 0)
(-3.71954e-07 1.26569e-05 0)
(-1.39276e-06 4.46644e-06 0)
(-2.03064e-07 1.03261e-06 0)
(-1.00797e-07 5.24406e-07 0)
(-7.31752e-08 3.89585e-07 0)
(-6.01104e-08 3.22442e-07 0)
(-5.18219e-08 2.81029e-07 0)
(-4.57569e-08 2.5128e-07 0)
(-4.10585e-08 2.30043e-07 0)
(-3.82572e-08 2.14066e-07 0)
(-3.62908e-08 2.07886e-07 0)
(-3.40889e-08 2.02645e-07 0)
(-3.13013e-08 1.98186e-07 0)
(-2.73023e-08 1.94441e-07 0)
(-2.15443e-08 1.91607e-07 0)
(-1.38896e-08 1.89606e-07 0)
(-4.79986e-09 1.88144e-07 0)
(4.79986e-09 1.88144e-07 0)
(1.38896e-08 1.89606e-07 0)
(2.15443e-08 1.91607e-07 0)
(2.73023e-08 1.94441e-07 0)
(3.13013e-08 1.98186e-07 0)
(3.40889e-08 2.02645e-07 0)
(3.62908e-08 2.07886e-07 0)
(3.82572e-08 2.14066e-07 0)
(4.10585e-08 2.30043e-07 0)
(4.57569e-08 2.5128e-07 0)
(5.18219e-08 2.81029e-07 0)
(6.01104e-08 3.22442e-07 0)
(7.31752e-08 3.89585e-07 0)
(1.00797e-07 5.24406e-07 0)
(2.03064e-07 1.03261e-06 0)
(1.39276e-06 4.46644e-06 0)
(3.71954e-07 1.26569e-05 0)
(3.56923e-06 3.40506e-05 0)
(1.68914e-05 3.50675e-05 0)
(2.20873e-05 1.80216e-05 0)
(2.0138e-05 1.68507e-05 0)
(2.13395e-05 1.24915e-05 0)
(1.99207e-05 6.32801e-06 0)
(1.66769e-05 3.8416e-06 0)
(1.40767e-05 2.67138e-06 0)
(1.20664e-05 2.02451e-06 0)
(1.04579e-05 1.62426e-06 0)
(9.12432e-06 1.35659e-06 0)
(7.9856e-06 1.16756e-06 0)
(6.98959e-06 1.02878e-06 0)
(6.10096e-06 9.24011e-07 0)
(5.29477e-06 8.43374e-07 0)
(4.55273e-06 7.80544e-07 0)
(3.86102e-06 7.3132e-07 0)
(3.20881e-06 6.92831e-07 0)
(2.58742e-06 6.63077e-07 0)
(1.98963e-06 6.40655e-07 0)
(1.40927e-06 6.24586e-07 0)
(8.40893e-07 6.14211e-07 0)
(2.79528e-07 6.09121e-07 0)
(-2.78638e-07 7.81262e-07 0)
(-8.38189e-07 7.87765e-07 0)
(-1.40465e-06 8.01019e-07 0)
(-1.98291e-06 8.21542e-07 0)
(-2.57831e-06 8.5017e-07 0)
(-3.19689e-06 8.88141e-07 0)
(-3.8457e-06 9.37228e-07 0)
(-4.53317e-06 9.99953e-07 0)
(-5.26973e-06 1.07993e-06 0)
(-6.06863e-06 1.18241e-06 0)
(-6.94716e-06 1.31528e-06 0)
(-7.92858e-06 1.49075e-06 0)
(-9.04506e-06 1.72865e-06 0)
(-1.03424e-05 2.06311e-06 0)
(-1.18867e-05 2.55715e-06 0)
(-1.37698e-05 3.33779e-06 0)
(-1.60838e-05 4.68682e-06 0)
(-1.86695e-05 7.27136e-06 0)
(-1.98356e-05 1.23418e-05 0)
(-1.91422e-05 1.64231e-05 0)
(-1.96022e-05 1.9171e-05 0)
(-1.47882e-05 3.08361e-05 0)
(-3.80995e-06 3.08204e-05 0)
(2.49953e-06 2.25265e-05 0)
(-4.07199e-06 1.06141e-05 0)
(-6.53651e-06 1.61351e-05 0)
(-7.50499e-07 2.23353e-06 0)
(-1.68439e-07 8.9387e-07 0)
(-9.62698e-08 5.19782e-07 0)
(-7.46089e-08 4.09761e-07 0)
(-6.33731e-08 3.51933e-07 0)
(-5.63035e-08 3.17576e-07 0)
(-5.29506e-08 2.93561e-07 0)
(-5.07692e-08 2.84635e-07 0)
(-4.86223e-08 2.77479e-07 0)
(-4.59568e-08 2.71394e-07 0)
(-4.13431e-08 2.65917e-07 0)
(-3.34951e-08 2.61588e-07 0)
(-2.20079e-08 2.58246e-07 0)
(-7.6743e-09 2.55971e-07 0)
(7.6743e-09 2.55971e-07 0)
(2.20079e-08 2.58246e-07 0)
(3.34951e-08 2.61588e-07 0)
(4.13431e-08 2.65917e-07 0)
(4.59568e-08 2.71394e-07 0)
(4.86223e-08 2.77479e-07 0)
(5.07692e-08 2.84635e-07 0)
(5.29506e-08 2.93561e-07 0)
(5.63035e-08 3.17576e-07 0)
(6.33731e-08 3.51933e-07 0)
(7.46089e-08 4.09761e-07 0)
(9.62698e-08 5.19782e-07 0)
(1.68439e-07 8.9387e-07 0)
(7.50499e-07 2.23353e-06 0)
(6.53651e-06 1.61351e-05 0)
(4.07199e-06 1.06141e-05 0)
(-2.49953e-06 2.25265e-05 0)
(3.80995e-06 3.08204e-05 0)
(1.47882e-05 3.08361e-05 0)
(1.96022e-05 1.9171e-05 0)
(1.91422e-05 1.64231e-05 0)
(1.98356e-05 1.23418e-05 0)
(1.86695e-05 7.27136e-06 0)
(1.60838e-05 4.68682e-06 0)
(1.37698e-05 3.33779e-06 0)
(1.18867e-05 2.55715e-06 0)
(1.03424e-05 2.06311e-06 0)
(9.04506e-06 1.72865e-06 0)
(7.92858e-06 1.49075e-06 0)
(6.94716e-06 1.31528e-06 0)
(6.06863e-06 1.18241e-06 0)
(5.26973e-06 1.07993e-06 0)
(4.53317e-06 9.99953e-07 0)
(3.8457e-06 9.37228e-07 0)
(3.19689e-06 8.88141e-07 0)
(2.57831e-06 8.5017e-07 0)
(1.98291e-06 8.21542e-07 0)
(1.40465e-06 8.01019e-07 0)
(8.38189e-07 7.87765e-07 0)
(2.78638e-07 7.81262e-07 0)
(-2.77414e-07 9.6935e-07 0)
(-8.34471e-07 9.77376e-07 0)
(-1.39829e-06 9.9373e-07 0)
(-1.97366e-06 1.01905e-06 0)
(-2.56578e-06 1.05434e-06 0)
(-3.18052e-06 1.10113e-06 0)
(-3.82467e-06 1.16156e-06 0)
(-4.50635e-06 1.2387e-06 0)
(-5.23547e-06 1.33689e-06 0)
(-6.02448e-06 1.46247e-06 0)
(-6.88939e-06 1.6248e-06 0)
(-7.85128e-06 1.83832e-06 0)
(-8.93837e-06 2.12607e-06 0)
(-1.01888e-05 2.52683e-06 0)
(-1.16526e-05 3.10977e-06 0)
(-1.3386e-05 4.00628e-06 0)
(-1.54037e-05 5.47908e-06 0)
(-1.74522e-05 8.0384e-06 0)
(-1.83892e-05 1.22827e-05 0)
(-1.79241e-05 1.60939e-05 0)
(-1.74522e-05 1.94816e-05 0)
(-1.31542e-05 2.7451e-05 0)
(-4.96067e-06 2.77634e-05 0)
(-2.15179e-07 2.18682e-05 0)
(-4.0568e-06 1.47528e-05 0)
(-5.46868e-07 2.78106e-05 0)
(-2.86953e-06 7.49828e-06 0)
(-7.29652e-06 1.72328e-05 0)
(-7.40604e-07 2.01145e-06 0)
(-1.78611e-07 8.9286e-07 0)
(-1.00299e-07 5.49976e-07 0)
(-7.92663e-08 4.44343e-07 0)
(-7.34251e-08 3.9614e-07 0)
(-7.04477e-08 3.80336e-07 0)
(-6.87767e-08 3.69508e-07 0)
(-6.7684e-08 3.60666e-07 0)
(-6.35719e-08 3.51547e-07 0)
(-5.3359e-08 3.44253e-07 0)
(-3.59714e-08 3.37778e-07 0)
(-1.26785e-08 3.33802e-07 0)
(1.26785e-08 3.33802e-07 0)
(3.59714e-08 3.37778e-07 0)
(5.3359e-08 3.44253e-07 0)
(6.35719e-08 3.51547e-07 0)
(6.7684e-08 3.60666e-07 0)
(6.87767e-08 3.69508e-07 0)
(7.04477e-08 3.80336e-07 0)
(7.34251e-08 3.9614e-07 0)
(7.92663e-08 4.44343e-07 0)
(1.00299e-07 5.49976e-07 0)
(1.78611e-07 8.9286e-07 0)
(7.40604e-07 2.01145e-06 0)
(7.29652e-06 1.72328e-05 0)
(2.86953e-06 7.49828e-06 0)
(5.46868e-07 2.78106e-05 0)
(4.0568e-06 1.47528e-05 0)
(2.15179e-07 2.18682e-05 0)
(4.96067e-06 2.77634e-05 0)
(1.31542e-05 2.7451e-05 0)
(1.74522e-05 1.94816e-05 0)
(1.79241e-05 1.60939e-05 0)
(1.83892e-05 1.22827e-05 0)
(1.74522e-05 8.0384e-06 0)
(1.54037e-05 5.47908e-06 0)
(1.3386e-05 4.00628e-06 0)
(1.16526e-05 3.10977e-06 0)
(1.01888e-05 2.52683e-06 0)
(8.93837e-06 2.12607e-06 0)
(7.85128e-06 1.83832e-06 0)
(6.88939e-06 1.6248e-06 0)
(6.02448e-06 1.46247e-06 0)
(5.23547e-06 1.33689e-06 0)
(4.50635e-06 1.2387e-06 0)
(3.82467e-06 1.16156e-06 0)
(3.18052e-06 1.10113e-06 0)
(2.56578e-06 1.05434e-06 0)
(1.97366e-06 1.01905e-06 0)
(1.39829e-06 9.9373e-07 0)
(8.34471e-07 9.77376e-07 0)
(2.77414e-07 9.6935e-07 0)
(-2.75779e-07 1.17458e-06 0)
(-8.29503e-07 1.18424e-06 0)
(-1.3898e-06 1.20391e-06 0)
(-1.96131e-06 1.23434e-06 0)
(-2.54906e-06 1.27676e-06 0)
(-3.15869e-06 1.33293e-06 0)
(-3.79669e-06 1.4054e-06 0)
(-4.47071e-06 1.49776e-06 0)
(-5.19002e-06 1.6151e-06 0)
(-5.96608e-06 1.76475e-06 0)
(-6.8133e-06 1.9575e-06 0)
(-7.75007e-06 2.20968e-06 0)
(-8.79991e-06 2.54697e-06 0)
(-9.99226e-06 3.01131e-06 0)
(-1.13604e-05 3.67442e-06 0)
(-1.29278e-05 4.66355e-06 0)
(-1.46536e-05 6.20581e-06 0)
(-1.62629e-05 8.66137e-06 0)
(-1.69867e-05 1.22723e-05 0)
(-1.6589e-05 1.57853e-05 0)
(-1.55964e-05 1.92378e-05 0)
(-1.18735e-05 2.47285e-05 0)
(-5.77003e-06 2.52169e-05 0)
(-2.06511e-06 2.1297e-05 0)
(-3.43703e-06 1.72161e-05 0)
(-1.5095e-06 2.33569e-05 0)
(-3.01078e-06 1.33583e-05 0)
(1.08573e-06 2.94153e-05 0)
(1.2221e-07 7.48085e-06 0)
(-6.21037e-06 1.41695e-05 0)
(-1.13687e-06 2.74929e-06 0)
(-2.43578e-07 1.00466e-06 0)
(-1.42813e-07 6.76217e-07 0)
(-1.15622e-07 5.75061e-07 0)
(-1.05058e-07 5.19542e-07 0)
(-1.05383e-07 4.873e-07 0)
(-1.03238e-07 4.60326e-07 0)
(-8.99912e-08 4.44562e-07 0)
(-6.26645e-08 4.28535e-07 0)
(-2.22868e-08 4.20476e-07 0)
(2.22868e-08 4.20476e-07 0)
(6.26645e-08 4.28535e-07 0)
(8.99912e-08 4.44562e-07 0)
(1.03238e-07 4.60326e-07 0)
(1.05383e-07 4.873e-07 0)
(1.05058e-07 5.19542e-07 0)
(1.15622e-07 5.75061e-07 0)
(1.42813e-07 6.76217e-07 0)
(2.43578e-07 1.00466e-06 0)
(1.13687e-06 2.74929e-06 0)
(6.21037e-06 1.41695e-05 0)
(-1.2221e-07 7.48085e-06 0)
(-1.08573e-06 2.94153e-05 0)
(3.01078e-06 1.33583e-05 0)
(1.5095e-06 2.33569e-05 0)
(3.43703e-06 1.72161e-05 0)
(2.06511e-06 2.1297e-05 0)
(5.77003e-06 2.52169e-05 0)
(1.18735e-05 2.47285e-05 0)
(1.55964e-05 1.92378e-05 0)
(1.6589e-05 1.57853e-05 0)
(1.69867e-05 1.22723e-05 0)
(1.62629e-05 8.66137e-06 0)
(1.46536e-05 6.20581e-06 0)
(1.29278e-05 4.66355e-06 0)
(1.13604e-05 3.67442e-06 0)
(9.99226e-06 3.01131e-06 0)
(8.79991e-06 2.54697e-06 0)
(7.75007e-06 2.20968e-06 0)
(6.8133e-06 1.9575e-06 0)
(5.96608e-06 1.76475e-06 0)
(5.19002e-06 1.6151e-06 0)
(4.47071e-06 1.49776e-06 0)
(3.79669e-06 1.4054e-06 0)
(3.15869e-06 1.33293e-06 0)
(2.54906e-06 1.27676e-06 0)
(1.96131e-06 1.23434e-06 0)
(1.3898e-06 1.20391e-06 0)
(8.29503e-07 1.18424e-06 0)
(2.75779e-07 1.17458e-06 0)
(-2.73643e-07 1.39814e-06 0)
(-8.23017e-07 1.40953e-06 0)
(-1.37872e-06 1.43272e-06 0)
(-1.94521e-06 1.46858e-06 0)
(-2.52728e-06 1.5185e-06 0)
(-3.13028e-06 1.58456e-06 0)
(-3.7603e-06 1.66966e-06 0)
(-4.42446e-06 1.77791e-06 0)
(-5.13121e-06 1.91508e-06 0)
(-5.89078e-06 2.08942e-06 0)
(-6.71569e-06 2.31291e-06 0)
(-7.62119e-06 2.60343e-06 0)
(-8.62554e-06 2.98837e-06 0)
(-9.74896e-06 3.51106e-06 0)
(-1.10084e-05 4.24198e-06 0)
(-1.24002e-05 5.29698e-06 0)
(-1.38493e-05 6.85928e-06 0)
(-1.50984e-05 9.16443e-06 0)
(-1.56257e-05 1.22747e-05 0)
(-1.52186e-05 1.54552e-05 0)
(-1.39922e-05 1.86605e-05 0)
(-1.08449e-05 2.25207e-05 0)
(-6.27885e-06 2.31114e-05 0)
(-3.29213e-06 2.06926e-05 0)
(-3.2785e-06 1.83472e-05 0)
(-2.02368e-06 2.09433e-05 0)
(-2.22014e-06 1.64383e-05 0)
(2.89463e-07 2.36766e-05 0)
(7.25245e-07 1.34081e-05 0)
(3.27036e-06 2.41436e-05 0)
(3.67364e-06 7.53418e-06 0)
(-1.2885e-05 7.58035e-06 0)
(-1.26124e-05 1.9123e-05 0)
(-1.49574e-06 1.93506e-06 0)
(-6.22219e-07 1.21981e-06 0)
(-3.66653e-07 9.26906e-07 0)
(-2.45597e-07 7.29659e-07 0)
(-1.7817e-07 6.02969e-07 0)
(-1.24399e-07 5.33443e-07 0)
(-4.37813e-08 5.14297e-07 0)
(4.37813e-08 5.14297e-07 0)
(1.24399e-07 5.33443e-07 0)
(1.7817e-07 6.02969e-07 0)
(2.45597e-07 7.29659e-07 0)
(3.66653e-07 9.26906e-07 0)
(6.22219e-07 1.21981e-06 0)
(1.49574e-06 1.93506e-06 0)
(1.26124e-05 1.9123e-05 0)
(1.2885e-05 7.58035e-06 0)
(-3.67364e-06 7.53418e-06 0)
(-3.27036e-06 2.41436e-05 0)
(-7.25245e-07 1.34081e-05 0)
(-2.89463e-07 2.36766e-05 0)
(2.22014e-06 1.64383e-05 0)
(2.02368e-06 2.09433e-05 0)
(3.2785e-06 1.83472e-05 0)
(3.29213e-06 2.06926e-05 0)
(6.27885e-06 2.31114e-05 0)
(1.08449e-05 2.25207e-05 0)
(1.39922e-05 1.86605e-05 0)
(1.52186e-05 1.54552e-05 0)
(1.56257e-05 1.22747e-05 0)
(1.50984e-05 9.16443e-06 0)
(1.38493e-05 6.85928e-06 0)
(1.24002e-05 5.29698e-06 0)
(1.10084e-05 4.24198e-06 0)
(9.74896e-06 3.51106e-06 0)
(8.62554e-06 2.98837e-06 0)
(7.62119e-06 2.60343e-06 0)
(6.71569e-06 2.31291e-06 0)
(5.89078e-06 2.08942e-06 0)
(5.13121e-06 1.91508e-06 0)
(4.42446e-06 1.77791e-06 0)
(3.7603e-06 1.66966e-06 0)
(3.13028e-06 1.58456e-06 0)
(2.52728e-06 1.5185e-06 0)
(1.94521e-06 1.46858e-06 0)
(1.37872e-06 1.43272e-06 0)
(8.23017e-07 1.40953e-06 0)
(2.73643e-07 1.39814e-06 0)
(-2.70903e-07 1.64116e-06 0)
(-8.14698e-07 1.65436e-06 0)
(-1.36452e-06 1.68124e-06 0)
(-1.92458e-06 1.72278e-06 0)
(-2.4994e-06 1.78056e-06 0)
(-3.09397e-06 1.8569e-06 0)
(-3.7139e-06 1.95507e-06 0)
(-4.36564e-06 2.07963e-06 0)
(-5.05666e-06 2.23697e-06 0)
(-5.79578e-06 2.43609e-06 0)
(-6.59331e-06 2.68989e-06 0)
(-7.46104e-06 3.01721e-06 0)
(-8.41165e-06 3.44614e-06 0)
(-9.45623e-06 4.01942e-06 0)
(-1.05973e-05 4.80272e-06 0)
(-1.18106e-05 5.8954e-06 0)
(-1.30051e-05 7.4357e-06 0)
(-1.39584e-05 9.565e-06 0)
(-1.43104e-05 1.22631e-05 0)
(-1.38713e-05 1.50885e-05 0)
(-1.25978e-05 1.79104e-05 0)
(-9.98628e-06 2.07111e-05 0)
(-6.53677e-06 2.1366e-05 0)
(-4.07292e-06 2.00158e-05 0)
(-3.34051e-06 1.86763e-05 0)
(-2.31183e-06 1.95996e-05 0)
(-1.86724e-06 1.76579e-05 0)
(-1.89767e-07 2.0605e-05 0)
(6.29024e-07 1.59117e-05 0)
(2.1629e-06 1.984e-05 0)
(2.00448e-06 1.174e-05 0)
(-2.79887e-06 1.44374e-05 0)
(3.43731e-06 2.90785e-05 0)
(6.4933e-06 8.21341e-06 0)
(-3.69361e-06 7.4657e-06 0)
(-7.39494e-06 9.23136e-06 0)
(-3.48676e-06 3.0958e-06 0)
(-8.79231e-07 1.06672e-06 0)
(-3.65205e-07 6.52267e-07 0)
(-1.10562e-07 6.15951e-07 0)
(1.10562e-07 6.15951e-07 0)
(3.65205e-07 6.52267e-07 0)
(8.79231e-07 1.06672e-06 0)
(3.48676e-06 3.0958e-06 0)
(7.39494e-06 9.23136e-06 0)
(3.69361e-06 7.4657e-06 0)
(-6.4933e-06 8.21341e-06 0)
(-3.43731e-06 2.90785e-05 0)
(2.79887e-06 1.44374e-05 0)
(-2.00448e-06 1.174e-05 0)
(-2.1629e-06 1.984e-05 0)
(-6.29024e-07 1.59117e-05 0)
(1.89767e-07 2.0605e-05 0)
(1.86724e-06 1.76579e-05 0)
(2.31183e-06 1.95996e-05 0)
(3.34051e-06 1.86763e-05 0)
(4.07292e-06 2.00158e-05 0)
(6.53677e-06 2.1366e-05 0)
(9.98628e-06 2.07111e-05 0)
(1.25978e-05 1.79104e-05 0)
(1.38713e-05 1.50885e-05 0)
(1.43104e-05 1.22631e-05 0)
(1.39584e-05 9.565e-06 0)
(1.30051e-05 7.4357e-06 0)
(1.18106e-05 5.8954e-06 0)
(1.05973e-05 4.80272e-06 0)
(9.45623e-06 4.01942e-06 0)
(8.41165e-06 3.44614e-06 0)
(7.46104e-06 3.01721e-06 0)
(6.59331e-06 2.68989e-06 0)
(5.79578e-06 2.43609e-06 0)
(5.05666e-06 2.23697e-06 0)
(4.36564e-06 2.07963e-06 0)
(3.7139e-06 1.95507e-06 0)
(3.09397e-06 1.8569e-06 0)
(2.4994e-06 1.78056e-06 0)
(1.92458e-06 1.72278e-06 0)
(1.36452e-06 1.68124e-06 0)
(8.14698e-07 1.65436e-06 0)
(2.70903e-07 1.64116e-06 0)
(-2.67444e-07 1.90465e-06 0)
(-8.04198e-07 1.91974e-06 0)
(-1.3466e-06 1.95044e-06 0)
(-1.89858e-06 1.99785e-06 0)
(-2.46431e-06 2.0637e-06 0)
(-3.04836e-06 2.15057e-06 0)
(-3.65575e-06 2.26201e-06 0)
(-4.29213e-06 2.403e-06 0)
(-4.9639e-06 2.58039e-06 0)
(-5.67823e-06 2.80372e-06 0)
(-6.44302e-06 3.08643e-06 0)
(-7.26644e-06 3.44765e-06 0)
(-8.15557e-06 3.91504e-06 0)
(-9.11312e-06 4.52879e-06 0)
(-1.01298e-05 5.34693e-06 0)
(-1.11682e-05 6.44967e-06 0)
(-1.21344e-05 7.9342e-06 0)
(-1.28453e-05 9.87579e-06 0)
(-1.30488e-05 1.22209e-05 0)
(-1.25842e-05 1.46876e-05 0)
(-1.13744e-05 1.7097e-05 0)
(-9.23615e-06 1.92097e-05 0)
(-6.59431e-06 1.99034e-05 0)
(-4.53344e-06 1.92723e-05 0)
(-3.47625e-06 1.85363e-05 0)
(-2.49434e-06 1.87563e-05 0)
(-1.76206e-06 1.79186e-05 0)
(-5.19072e-07 1.89244e-05 0)
(3.59991e-07 1.67598e-05 0)
(1.33513e-06 1.77762e-05 0)
(1.21293e-06 1.39404e-05 0)
(-4.13239e-07 1.53131e-05 0)
(1.18736e-06 1.87111e-05 0)
(2.25319e-06 1.41415e-05 0)
(8.87493e-07 1.38152e-05 0)
(1.32953e-06 1.5959e-05 0)
(-9.11019e-07 9.11483e-06 0)
(-2.8456e-06 2.67988e-06 0)
(-1.05033e-06 9.37215e-07 0)
(-3.0742e-07 7.07514e-07 0)
(3.0742e-07 7.07514e-07 0)
(1.05033e-06 9.37215e-07 0)
(2.8456e-06 2.67988e-06 0)
(9.11019e-07 9.11483e-06 0)
(-1.32953e-06 1.5959e-05 0)
(-8.87493e-07 1.38152e-05 0)
(-2.25319e-06 1.41415e-05 0)
(-1.18736e-06 1.87111e-05 0)
(4.13239e-07 1.53131e-05 0)
(-1.21293e-06 1.39404e-05 0)
(-1.33513e-06 1.77762e-05 0)
(-3.59991e-07 1.67598e-05 0)
(5.19072e-07 1.89244e-05 0)
(1.76206e-06 1.79186e-05 0)
(2.49434e-06 1.87563e-05 0)
(3.47625e-06 1.85363e-05 0)
(4.53344e-06 1.92723e-05 0)
(6.59431e-06 1.99034e-05 0)
(9.23615e-06 1.92097e-05 0)
(1.13744e-05 1.7097e-05 0)
(1.25842e-05 1.46876e-05 0)
(1.30488e-05 1.22209e-05 0)
(1.28453e-05 9.87579e-06 0)
(1.21344e-05 7.9342e-06 0)
(1.11682e-05 6.44967e-06 0)
(1.01298e-05 5.34693e-06 0)
(9.11312e-06 4.52879e-06 0)
(8.15557e-06 3.91504e-06 0)
(7.26644e-06 3.44765e-06 0)
(6.44302e-06 3.08643e-06 0)
(5.67823e-06 2.80372e-06 0)
(4.9639e-06 2.58039e-06 0)
(4.29213e-06 2.403e-06 0)
(3.65575e-06 2.26201e-06 0)
(3.04836e-06 2.15057e-06 0)
(2.46431e-06 2.0637e-06 0)
(1.89858e-06 1.99785e-06 0)
(1.3466e-06 1.95044e-06 0)
(8.04198e-07 1.91974e-06 0)
(2.67444e-07 1.90465e-06 0)
(-2.63136e-07 2.18947e-06 0)
(-7.91127e-07 2.20648e-06 0)
(-1.32431e-06 2.24107e-06 0)
(-1.86627e-06 2.29442e-06 0)
(-2.42079e-06 2.36843e-06 0)
(-2.9919e-06 2.46584e-06 0)
(-3.58398e-06 2.59047e-06 0)
(-4.20178e-06 2.74758e-06 0)
(-4.85045e-06 2.94432e-06 0)
(-5.53542e-06 3.19049e-06 0)
(-6.26207e-06 3.49962e-06 0)
(-7.03492e-06 3.89041e-06 0)
(-7.85587e-06 4.38891e-06 0)
(-8.72052e-06 5.03114e-06 0)
(-9.61102e-06 5.86559e-06 0)
(-1.04834e-05 6.95299e-06 0)
(-1.12496e-05 8.35624e-06 0)
(-1.17642e-05 1.0107e-05 0)
(-1.18487e-05 1.21414e-05 0)
(-1.13774e-05 1.42643e-05 0)
(-1.02879e-05 1.62885e-05 0)
(-8.55189e-06 1.79477e-05 0)
(-6.49763e-06 1.86582e-05 0)
(-4.76248e-06 1.84871e-05 0)
(-3.60444e-06 1.81294e-05 0)
(-2.62587e-06 1.81105e-05 0)
(-1.78716e-06 1.77181e-05 0)
(-7.80163e-07 1.79224e-05 0)
(3.8483e-08 1.68515e-05 0)
(7.29039e-07 1.6797e-05 0)
(7.58414e-07 1.49657e-05 0)
(2.33849e-07 1.54154e-05 0)
(6.60499e-07 1.60968e-05 0)
(9.88338e-07 1.5113e-05 0)
(7.26888e-07 1.47481e-05 0)
(4.77962e-07 1.48313e-05 0)
(-3.17888e-07 1.38949e-05 0)
(-1.08082e-06 3.85675e-06 0)
(-9.52441e-07 9.70834e-07 0)
(-3.94139e-07 6.25721e-07 0)
(3.94139e-07 6.25721e-07 0)
(9.52441e-07 9.70834e-07 0)
(1.08082e-06 3.85675e-06 0)
(3.17888e-07 1.38949e-05 0)
(-4.77962e-07 1.48313e-05 0)
(-7.26888e-07 1.47481e-05 0)
(-9.88338e-07 1.5113e-05 0)
(-6.60499e-07 1.60968e-05 0)
(-2.33849e-07 1.54154e-05 0)
(-7.58414e-07 1.49657e-05 0)
(-7.29039e-07 1.6797e-05 0)
(-3.8483e-08 1.68515e-05 0)
(7.80163e-07 1.79224e-05 0)
(1.78716e-06 1.77181e-05 0)
(2.62587e-06 1.81105e-05 0)
(3.60444e-06 1.81294e-05 0)
(4.76248e-06 1.84871e-05 0)
(6.49763e-06 1.86582e-05 0)
(8.55189e-06 1.79477e-05 0)
(1.02879e-05 1.62885e-05 0)
(1.13774e-05 1.42643e-05 0)
(1.18487e-05 1.21414e-05 0)
(1.17642e-05 1.0107e-05 0)
(1.12496e-05 8.35624e-06 0)
(1.04834e-05 6.95299e-06 0)
(9.61102e-06 5.86559e-06 0)
(8.72052e-06 5.03114e-06 0)
(7.85587e-06 4.38891e-06 0)
(7.03492e-06 3.89041e-06 0)
(6.26207e-06 3.49962e-06 0)
(5.53542e-06 3.19049e-06 0)
(4.85045e-06 2.94432e-06 0)
(4.20178e-06 2.74758e-06 0)
(3.58398e-06 2.59047e-06 0)
(2.9919e-06 2.46584e-06 0)
(2.42079e-06 2.36843e-06 0)
(1.86627e-06 2.29442e-06 0)
(1.32431e-06 2.24107e-06 0)
(7.91127e-07 2.20648e-06 0)
(2.63136e-07 2.18947e-06 0)
(-2.57843e-07 2.49618e-06 0)
(-7.75072e-07 2.51511e-06 0)
(-1.29696e-06 2.55356e-06 0)
(-1.82669e-06 2.61281e-06 0)
(-2.36756e-06 2.69485e-06 0)
(-2.92304e-06 2.80256e-06 0)
(-3.49675e-06 2.93991e-06 0)
(-4.09247e-06 3.1123e-06 0)
(-4.71401e-06 3.327e-06 0)
(-5.36499e-06 3.59375e-06 0)
(-6.0483e-06 3.92564e-06 0)
(-6.76506e-06 4.34024e-06 0)
(-7.5127e-06 4.86098e-06 0)
(-8.28137e-06 5.51849e-06 0)
(-9.04803e-06 6.35094e-06 0)
(-9.76748e-06 7.40108e-06 0)
(-1.03624e-05 8.70518e-06 0)
(-1.07206e-05 1.02678e-05 0)
(-1.07163e-05 1.20254e-05 0)
(-1.02583e-05 1.38334e-05 0)
(-9.3101e-06 1.55231e-05 0)
(-7.9067e-06 1.6873e-05 0)
(-6.28599e-06 1.75801e-05 0)
(-4.82272e-06 1.76887e-05 0)
(-3.68565e-06 1.75765e-05 0)
(-2.72385e-06 1.75209e-05 0)
(-1.87037e-06 1.73106e-05 0)
(-1.00421e-06 1.72305e-05 0)
(-2.7177e-07 1.66322e-05 0)
(2.8305e-07 1.62865e-05 0)
(4.43189e-07 1.5361e-05 0)
(3.44736e-07 1.53755e-05 0)
(4.90304e-07 1.54456e-05 0)
(5.88184e-07 1.52142e-05 0)
(5.29752e-07 1.50584e-05 0)
(3.84269e-07 1.50374e-05 0)
(1.28427e-07 1.50503e-05 0)
(-1.33639e-07 3.70869e-06 0)
(-3.24106e-07 5.05542e-07 0)
(-2.11199e-07 3.39982e-07 0)
(2.11199e-07 3.39982e-07 0)
(3.24106e-07 5.05542e-07 0)
(1.33639e-07 3.70869e-06 0)
(-1.28427e-07 1.50503e-05 0)
(-3.84269e-07 1.50374e-05 0)
(-5.29752e-07 1.50584e-05 0)
(-5.88184e-07 1.52142e-05 0)
(-4.90304e-07 1.54456e-05 0)
(-3.44736e-07 1.53755e-05 0)
(-4.43189e-07 1.5361e-05 0)
(-2.8305e-07 1.62865e-05 0)
(2.7177e-07 1.66322e-05 0)
(1.00421e-06 1.72305e-05 0)
(1.87037e-06 1.73106e-05 0)
(2.72385e-06 1.75209e-05 0)
(3.68565e-06 1.75765e-05 0)
(4.82272e-06 1.76887e-05 0)
(6.28599e-06 1.75801e-05 0)
(7.9067e-06 1.6873e-05 0)
(9.3101e-06 1.55231e-05 0)
(1.02583e-05 1.38334e-05 0)
(1.07163e-05 1.20254e-05 0)
(1.07206e-05 1.02678e-05 0)
(1.03624e-05 8.70518e-06 0)
(9.76748e-06 7.40108e-06 0)
(9.04803e-06 6.35094e-06 0)
(8.28137e-06 5.51849e-06 0)
(7.5127e-06 4.86098e-06 0)
(6.76506e-06 4.34024e-06 0)
(6.0483e-06 3.92564e-06 0)
(5.36499e-06 3.59375e-06 0)
(4.71401e-06 3.327e-06 0)
(4.09247e-06 3.1123e-06 0)
(3.49675e-06 2.93991e-06 0)
(2.92304e-06 2.80256e-06 0)
(2.36756e-06 2.69485e-06 0)
(1.82669e-06 2.61281e-06 0)