/*--------------------------------*- C++ -*----------------------------------*\
  =========                 |
  \\      /  F ield         | OpenFOAM: The Open Source CFD Toolbox
   \\    /   O peration     | Website:  https://openfoam.org
    \\  /    A nd           | Version:  10
     \\/     M anipulation  |
\*---------------------------------------------------------------------------*/
FoamFile
{
    format      ascii;
    class       volVectorField;
    location    "17800";
    object      Ua;
}
// * * * * * * * * * * * * * * * * * * * * * * * * * * * * * * * * * * * * * //

dimensions      [0 1 -1 0 0 0 0];

internalField   nonuniform List<vector> 
6400
(
(-5.14682e-07 1.04619e-07 0)
(-1.56298e-06 1.08468e-07 0)
(-2.67184e-06 1.16929e-07 0)
(-3.8961e-06 1.31925e-07 0)
(-5.32118e-06 1.57749e-07 0)
(-7.10312e-06 2.04465e-07 0)
(-9.54877e-06 2.92659e-07 0)
(-1.20468e-05 2.15132e-07 0)
(-6.8512e-06 8.30333e-06 0)
(-3.25884e-07 3.54472e-06 0)
(-4.00823e-08 4.07411e-07 0)
(-2.04239e-08 1.7035e-07 0)
(-1.24131e-08 1.02271e-07 0)
(-8.71918e-09 7.15867e-08 0)
(-6.85092e-09 5.43168e-08 0)
(-5.53162e-09 4.34878e-08 0)
(-4.61889e-09 3.60943e-08 0)
(-3.91557e-09 3.07915e-08 0)
(-3.35325e-09 2.68094e-08 0)
(-2.91867e-09 2.37532e-08 0)
(-2.62882e-09 2.13435e-08 0)
(-2.40438e-09 1.93902e-08 0)
(-2.19807e-09 1.77871e-08 0)
(-2.01103e-09 1.64648e-08 0)
(-1.84792e-09 1.53469e-08 0)
(-1.71709e-09 1.43949e-08 0)
(-1.61182e-09 1.35864e-08 0)
(-1.52139e-09 1.28899e-08 0)
(-1.43812e-09 1.22926e-08 0)
(-1.35594e-09 1.17663e-08 0)
(-1.26578e-09 1.13014e-08 0)
(-1.16e-09 1.08955e-08 0)
(-1.06814e-09 1.05618e-08 0)
(-9.91744e-10 1.0426e-08 0)
(-8.98348e-10 1.03028e-08 0)
(-7.83896e-10 1.01947e-08 0)
(-6.45769e-10 1.01032e-08 0)
(-4.83683e-10 1.00338e-08 0)
(-3.00155e-10 9.98872e-09 0)
(-1.01769e-10 9.95127e-09 0)
(1.01769e-10 9.95127e-09 0)
(3.00155e-10 9.98872e-09 0)
(4.83683e-10 1.00338e-08 0)
(6.45769e-10 1.01032e-08 0)
(7.83896e-10 1.01947e-08 0)
(8.98348e-10 1.03028e-08 0)
(9.91744e-10 1.0426e-08 0)
(1.06814e-09 1.05618e-08 0)
(1.16e-09 1.08955e-08 0)
(1.26578e-09 1.13014e-08 0)
(1.35594e-09 1.17663e-08 0)
(1.43812e-09 1.22926e-08 0)
(1.52139e-09 1.28899e-08 0)
(1.61182e-09 1.35864e-08 0)
(1.71709e-09 1.43949e-08 0)
(1.84792e-09 1.53469e-08 0)
(2.01103e-09 1.64648e-08 0)
(2.19807e-09 1.77871e-08 0)
(2.40438e-09 1.93902e-08 0)
(2.62882e-09 2.13435e-08 0)
(2.91867e-09 2.37532e-08 0)
(3.35325e-09 2.68094e-08 0)
(3.91557e-09 3.07915e-08 0)
(4.61889e-09 3.60943e-08 0)
(5.53162e-09 4.34878e-08 0)
(6.85092e-09 5.43168e-08 0)
(8.71918e-09 7.15867e-08 0)
(1.24131e-08 1.02271e-07 0)
(2.04239e-08 1.7035e-07 0)
(4.00823e-08 4.07411e-07 0)
(3.25884e-07 3.54472e-06 0)
(6.8512e-06 8.30333e-06 0)
(1.20468e-05 2.15132e-07 0)
(9.54877e-06 2.92659e-07 0)
(7.10312e-06 2.04465e-07 0)
(5.32118e-06 1.57749e-07 0)
(3.8961e-06 1.31925e-07 0)
(2.67184e-06 1.16929e-07 0)
(1.56298e-06 1.08468e-07 0)
(5.14682e-07 1.04619e-07 0)
(-5.13862e-07 3.23804e-07 0)
(-1.56036e-06 3.35688e-07 0)
(-2.66685e-06 3.61798e-07 0)
(-3.8874e-06 4.08033e-07 0)
(-5.30572e-06 4.8753e-07 0)
(-7.07437e-06 6.31222e-07 0)
(-9.5465e-06 9.14188e-07 0)
(-1.49668e-05 1.30985e-06 0)
(-1.32293e-05 1.47897e-05 0)
(-6.46579e-06 5.13528e-06 0)
(-2.77357e-06 1.16705e-05 0)
(-1.06131e-07 5.62818e-07 0)
(-3.87204e-08 2.2055e-07 0)
(-2.36517e-08 1.36356e-07 0)
(-1.75989e-08 9.79684e-08 0)
(-1.37687e-08 7.64142e-08 0)
(-1.12981e-08 6.24149e-08 0)
(-9.47059e-09 5.27412e-08 0)
(-8.04819e-09 4.56125e-08 0)
(-6.96316e-09 4.02794e-08 0)
(-6.25335e-09 3.61126e-08 0)
(-5.708e-09 3.27224e-08 0)
(-5.20715e-09 2.9963e-08 0)
(-4.75616e-09 2.76939e-08 0)
(-4.36499e-09 2.57975e-08 0)
(-4.05335e-09 2.41893e-08 0)
(-3.80364e-09 2.28233e-08 0)
(-3.58949e-09 2.16454e-08 0)
(-3.39274e-09 2.06355e-08 0)
(-3.19986e-09 1.97452e-08 0)
(-2.98912e-09 1.89561e-08 0)
(-2.74374e-09 1.82687e-08 0)
(-2.53218e-09 1.76994e-08 0)
(-2.3564e-09 1.74641e-08 0)
(-2.14049e-09 1.72488e-08 0)
(-1.87379e-09 1.70583e-08 0)
(-1.5488e-09 1.68968e-08 0)
(-1.16361e-09 1.67737e-08 0)
(-7.23743e-10 1.66926e-08 0)
(-2.45686e-10 1.66275e-08 0)
(2.45686e-10 1.66275e-08 0)
(7.23743e-10 1.66926e-08 0)
(1.16361e-09 1.67737e-08 0)
(1.5488e-09 1.68968e-08 0)
(1.87379e-09 1.70583e-08 0)
(2.14049e-09 1.72488e-08 0)
(2.3564e-09 1.74641e-08 0)
(2.53218e-09 1.76994e-08 0)
(2.74374e-09 1.82687e-08 0)
(2.98912e-09 1.89561e-08 0)
(3.19986e-09 1.97452e-08 0)
(3.39274e-09 2.06355e-08 0)
(3.58949e-09 2.16454e-08 0)
(3.80364e-09 2.28233e-08 0)
(4.05335e-09 2.41893e-08 0)
(4.36499e-09 2.57975e-08 0)
(4.75616e-09 2.76939e-08 0)
(5.20715e-09 2.9963e-08 0)
(5.708e-09 3.27224e-08 0)
(6.25335e-09 3.61126e-08 0)
(6.96316e-09 4.02794e-08 0)
(8.04819e-09 4.56125e-08 0)
(9.47059e-09 5.27412e-08 0)
(1.12981e-08 6.24149e-08 0)
(1.37687e-08 7.64142e-08 0)
(1.75989e-08 9.79684e-08 0)
(2.36517e-08 1.36356e-07 0)
(3.87204e-08 2.2055e-07 0)
(1.06131e-07 5.62818e-07 0)
(2.77357e-06 1.16705e-05 0)
(6.46579e-06 5.13528e-06 0)
(1.32293e-05 1.47897e-05 0)
(1.49668e-05 1.30985e-06 0)
(9.5465e-06 9.14188e-07 0)
(7.07437e-06 6.31222e-07 0)
(5.30572e-06 4.8753e-07 0)
(3.8874e-06 4.08033e-07 0)
(2.66685e-06 3.61798e-07 0)
(1.56036e-06 3.35688e-07 0)
(5.13862e-07 3.23804e-07 0)
(-5.11984e-07 5.63569e-07 0)
(-1.55436e-06 5.84139e-07 0)
(-2.65542e-06 6.29289e-07 0)
(-3.86755e-06 7.09078e-07 0)
(-5.27051e-06 8.45773e-07 0)
(-7.00618e-06 1.09174e-06 0)
(-9.39037e-06 1.58786e-06 0)
(-1.35316e-05 2.85733e-06 0)
(-1.27096e-05 1.26538e-05 0)
(-1.28584e-05 8.37299e-06 0)
(-1.08361e-05 2.15329e-05 0)
(-2.83668e-06 1.02726e-05 0)
(-3.27416e-07 1.26742e-06 0)
(-6.97946e-08 4.49723e-07 0)
(-3.83608e-08 2.3366e-07 0)
(-2.68883e-08 1.64444e-07 0)
(-2.10293e-08 1.28054e-07 0)
(-1.71604e-08 1.05529e-07 0)
(-1.43392e-08 8.98539e-08 0)
(-1.22505e-08 7.86667e-08 0)
(-1.0944e-08 7.01244e-08 0)
(-9.9562e-09 6.32229e-08 0)
(-9.04796e-09 5.76957e-08 0)
(-8.23939e-09 5.3184e-08 0)
(-7.54341e-09 4.94718e-08 0)
(-6.99691e-09 4.6346e-08 0)
(-6.56297e-09 4.36961e-08 0)
(-6.19187e-09 4.14145e-08 0)
(-5.85213e-09 3.94627e-08 0)
(-5.52298e-09 3.77452e-08 0)
(-5.16503e-09 3.62218e-08 0)
(-4.75443e-09 3.49062e-08 0)
(-4.40616e-09 3.38155e-08 0)
(-4.11725e-09 3.33644e-08 0)
(-3.75884e-09 3.29529e-08 0)
(-3.30911e-09 3.25912e-08 0)
(-2.75111e-09 3.22889e-08 0)
(-2.07795e-09 3.20614e-08 0)
(-1.29772e-09 3.19112e-08 0)
(-4.41497e-10 3.17915e-08 0)
(4.41497e-10 3.17915e-08 0)
(1.29772e-09 3.19112e-08 0)
(2.07795e-09 3.20614e-08 0)
(2.75111e-09 3.22889e-08 0)
(3.30911e-09 3.25912e-08 0)
(3.75884e-09 3.29529e-08 0)
(4.11725e-09 3.33644e-08 0)
(4.40616e-09 3.38155e-08 0)
(4.75443e-09 3.49062e-08 0)
(5.16503e-09 3.62218e-08 0)
(5.52298e-09 3.77452e-08 0)
(5.85213e-09 3.94627e-08 0)
(6.19187e-09 4.14145e-08 0)
(6.56297e-09 4.36961e-08 0)
(6.99691e-09 4.6346e-08 0)
(7.54341e-09 4.94718e-08 0)
(8.23939e-09 5.3184e-08 0)
(9.04796e-09 5.76957e-08 0)
(9.9562e-09 6.32229e-08 0)
(1.0944e-08 7.01244e-08 0)
(1.22505e-08 7.86667e-08 0)
(1.43392e-08 8.98539e-08 0)
(1.71604e-08 1.05529e-07 0)
(2.10293e-08 1.28054e-07 0)
(2.68883e-08 1.64444e-07 0)
(3.83608e-08 2.3366e-07 0)
(6.97946e-08 4.49723e-07 0)
(3.27416e-07 1.26742e-06 0)
(2.83668e-06 1.02726e-05 0)
(1.08361e-05 2.15329e-05 0)
(1.28584e-05 8.37299e-06 0)
(1.27096e-05 1.26538e-05 0)
(1.35316e-05 2.85733e-06 0)
(9.39037e-06 1.58786e-06 0)
(7.00618e-06 1.09174e-06 0)
(5.27051e-06 8.45773e-07 0)
(3.86755e-06 7.09078e-07 0)
(2.65542e-06 6.29289e-07 0)
(1.55436e-06 5.84139e-07 0)
(5.11984e-07 5.63569e-07 0)
(-5.0877e-07 8.25228e-07 0)
(-1.54409e-06 8.55069e-07 0)
(-2.63592e-06 9.20456e-07 0)
(-3.83382e-06 1.03562e-06 0)
(-5.21102e-06 1.23169e-06 0)
(-6.89072e-06 1.58078e-06 0)
(-9.10896e-06 2.2768e-06 0)
(-1.22687e-05 4.02857e-06 0)
(-1.19721e-05 1.1202e-05 0)
(-1.17882e-05 9.81184e-06 0)
(-9.60023e-06 1.90128e-05 0)
(-1.20363e-06 1.84581e-05 0)
(-3.19447e-06 3.86782e-06 0)
(-4.92181e-06 1.47822e-05 0)
(-2.65393e-07 9.51293e-07 0)
(-6.98521e-08 4.42689e-07 0)
(-4.05393e-08 2.5463e-07 0)
(-2.95815e-08 1.89052e-07 0)
(-2.34085e-08 1.53075e-07 0)
(-1.93417e-08 1.30699e-07 0)
(-1.70444e-08 1.14813e-07 0)
(-1.53857e-08 1.02419e-07 0)
(-1.38756e-08 9.28505e-08 0)
(-1.25646e-08 8.51734e-08 0)
(-1.14508e-08 7.90116e-08 0)
(-1.0599e-08 7.38832e-08 0)
(-9.93368e-09 6.95613e-08 0)
(-9.36747e-09 6.58549e-08 0)
(-8.8519e-09 6.27022e-08 0)
(-8.36258e-09 5.99377e-08 0)
(-7.8329e-09 5.7485e-08 0)
(-7.24072e-09 5.53963e-08 0)
(-6.7547e-09 5.3663e-08 0)
(-6.35325e-09 5.29462e-08 0)
(-5.84641e-09 5.22929e-08 0)
(-5.19243e-09 5.17212e-08 0)
(-4.35601e-09 5.12488e-08 0)
(-3.31777e-09 5.08954e-08 0)
(-2.0855e-09 5.0659e-08 0)
(-7.12019e-10 5.04733e-08 0)
(7.12019e-10 5.04733e-08 0)
(2.0855e-09 5.0659e-08 0)
(3.31777e-09 5.08954e-08 0)
(4.35601e-09 5.12488e-08 0)
(5.19243e-09 5.17212e-08 0)
(5.84641e-09 5.22929e-08 0)
(6.35325e-09 5.29462e-08 0)
(6.7547e-09 5.3663e-08 0)
(7.24072e-09 5.53963e-08 0)
(7.8329e-09 5.7485e-08 0)
(8.36258e-09 5.99377e-08 0)
(8.8519e-09 6.27022e-08 0)
(9.36747e-09 6.58549e-08 0)
(9.93368e-09 6.95613e-08 0)
(1.0599e-08 7.38832e-08 0)
(1.14508e-08 7.90116e-08 0)
(1.25646e-08 8.51734e-08 0)
(1.38756e-08 9.28505e-08 0)
(1.53857e-08 1.02419e-07 0)
(1.70444e-08 1.14813e-07 0)
(1.93417e-08 1.30699e-07 0)
(2.34085e-08 1.53075e-07 0)
(2.95815e-08 1.89052e-07 0)
(4.05393e-08 2.5463e-07 0)
(6.98521e-08 4.42689e-07 0)
(2.65393e-07 9.51293e-07 0)
(4.92181e-06 1.47822e-05 0)
(3.19447e-06 3.86782e-06 0)
(1.20363e-06 1.84581e-05 0)
(9.60023e-06 1.90128e-05 0)
(1.17882e-05 9.81184e-06 0)
(1.19721e-05 1.1202e-05 0)
(1.22687e-05 4.02857e-06 0)
(9.10896e-06 2.2768e-06 0)
(6.89072e-06 1.58078e-06 0)
(5.21102e-06 1.23169e-06 0)
(3.83382e-06 1.03562e-06 0)
(2.63592e-06 9.20456e-07 0)
(1.54409e-06 8.55069e-07 0)
(5.0877e-07 8.25228e-07 0)
(-5.03904e-07 1.10993e-06 0)
(-1.52857e-06 1.1495e-06 0)
(-2.60654e-06 1.23599e-06 0)
(-3.7833e-06 1.38757e-06 0)
(-5.12297e-06 1.64324e-06 0)
(-6.72347e-06 2.09059e-06 0)
(-8.72929e-06 2.95203e-06 0)
(-1.11442e-05 4.91125e-06 0)
(-1.11548e-05 1.02429e-05 0)
(-1.07656e-05 1.06071e-05 0)
(-8.61869e-06 1.69991e-05 0)
(-2.94035e-06 1.65493e-05 0)
(-6.64953e-06 7.40806e-06 0)
(-2.45667e-06 2.57643e-05 0)
(-5.92801e-07 4.13723e-06 0)
(-4.89502e-06 1.41547e-05 0)
(-3.14077e-07 1.01888e-06 0)
(-8.19703e-08 4.873e-07 0)
(-4.40362e-08 2.88157e-07 0)
(-3.13155e-08 2.16573e-07 0)
(-2.60228e-08 1.79641e-07 0)
(-2.28203e-08 1.55212e-07 0)
(-2.01521e-08 1.38256e-07 0)
(-1.80065e-08 1.2538e-07 0)
(-1.62493e-08 1.15569e-07 0)
(-1.49723e-08 1.07619e-07 0)
(-1.40055e-08 1.01033e-07 0)
(-1.31911e-08 9.54447e-08 0)
(-1.24567e-08 9.07508e-08 0)
(-1.17844e-08 8.66653e-08 0)
(-1.10587e-08 8.3042e-08 0)
(-1.02807e-08 8.00296e-08 0)
(-9.68326e-09 7.75284e-08 0)
(-9.19667e-09 7.64948e-08 0)
(-8.56316e-09 7.55499e-08 0)
(-7.70437e-09 7.4721e-08 0)
(-6.54953e-09 7.4039e-08 0)
(-5.0512e-09 7.35228e-08 0)
(-3.2066e-09 7.31636e-08 0)
(-1.10071e-09 7.28894e-08 0)
(1.10071e-09 7.28894e-08 0)
(3.2066e-09 7.31636e-08 0)
(5.0512e-09 7.35228e-08 0)
(6.54953e-09 7.4039e-08 0)
(7.70437e-09 7.4721e-08 0)
(8.56316e-09 7.55499e-08 0)
(9.19667e-09 7.64948e-08 0)
(9.68326e-09 7.75284e-08 0)
(1.02807e-08 8.00296e-08 0)
(1.10587e-08 8.3042e-08 0)
(1.17844e-08 8.66653e-08 0)
(1.24567e-08 9.07508e-08 0)
(1.31911e-08 9.54447e-08 0)
(1.40055e-08 1.01033e-07 0)
(1.49723e-08 1.07619e-07 0)
(1.62493e-08 1.15569e-07 0)
(1.80065e-08 1.2538e-07 0)
(2.01521e-08 1.38256e-07 0)
(2.28203e-08 1.55212e-07 0)
(2.60228e-08 1.79641e-07 0)
(3.13155e-08 2.16573e-07 0)
(4.40362e-08 2.88157e-07 0)
(8.19703e-08 4.873e-07 0)
(3.14077e-07 1.01888e-06 0)
(4.89502e-06 1.41547e-05 0)
(5.92801e-07 4.13723e-06 0)
(2.45667e-06 2.57643e-05 0)
(6.64953e-06 7.40806e-06 0)
(2.94035e-06 1.65493e-05 0)
(8.61869e-06 1.69991e-05 0)
(1.07656e-05 1.06071e-05 0)
(1.11548e-05 1.02429e-05 0)
(1.11442e-05 4.91125e-06 0)
(8.72929e-06 2.95203e-06 0)
(6.72347e-06 2.09059e-06 0)
(5.12297e-06 1.64324e-06 0)
(3.7833e-06 1.38757e-06 0)
(2.60654e-06 1.23599e-06 0)
(1.52857e-06 1.1495e-06 0)
(5.03904e-07 1.10993e-06 0)
(-4.97037e-07 1.41855e-06 0)
(-1.50671e-06 1.46811e-06 0)
(-2.56534e-06 1.57608e-06 0)
(-3.71311e-06 1.76401e-06 0)
(-5.00272e-06 2.07702e-06 0)
(-6.50325e-06 2.61183e-06 0)
(-8.27575e-06 3.59281e-06 0)
(-1.01289e-05 5.57883e-06 0)
(-1.02945e-05 9.6319e-06 0)
(-9.80347e-06 1.09452e-05 0)
(-7.86253e-06 1.54031e-05 0)
(-3.99353e-06 1.52264e-05 0)
(-5.58694e-06 1.03363e-05 0)
(-2.85426e-06 2.07208e-05 0)
(-2.78698e-06 8.61753e-06 0)
(7.49118e-07 2.45826e-05 0)
(1.55845e-06 4.49579e-06 0)
(-4.03203e-06 1.04727e-05 0)
(-5.55343e-07 1.59624e-06 0)
(-1.14329e-07 5.94535e-07 0)
(-5.31856e-08 3.64384e-07 0)
(-3.78758e-08 2.55038e-07 0)
(-3.02728e-08 2.08453e-07 0)
(-2.57149e-08 1.80877e-07 0)
(-2.25028e-08 1.62996e-07 0)
(-2.0436e-08 1.49822e-07 0)
(-1.8985e-08 1.39558e-07 0)
(-1.78078e-08 1.31163e-07 0)
(-1.67738e-08 1.24337e-07 0)
(-1.58904e-08 1.18509e-07 0)
(-1.49358e-08 1.13359e-07 0)
(-1.39791e-08 1.09259e-07 0)
(-1.3343e-08 1.05861e-07 0)
(-1.28495e-08 1.0446e-07 0)
(-1.2168e-08 1.03165e-07 0)
(-1.11502e-08 1.02011e-07 0)
(-9.65863e-09 1.01055e-07 0)
(-7.58653e-09 1.00297e-07 0)
(-4.88778e-09 9.97226e-08 0)
(-1.69137e-09 9.93016e-08 0)
(1.69137e-09 9.93016e-08 0)
(4.88778e-09 9.97226e-08 0)
(7.58653e-09 1.00297e-07 0)
(9.65863e-09 1.01055e-07 0)
(1.11502e-08 1.02011e-07 0)
(1.2168e-08 1.03165e-07 0)
(1.28495e-08 1.0446e-07 0)
(1.3343e-08 1.05861e-07 0)
(1.39791e-08 1.09259e-07 0)
(1.49358e-08 1.13359e-07 0)
(1.58904e-08 1.18509e-07 0)
(1.67738e-08 1.24337e-07 0)
(1.78078e-08 1.31163e-07 0)
(1.8985e-08 1.39558e-07 0)
(2.0436e-08 1.49822e-07 0)
(2.25028e-08 1.62996e-07 0)
(2.57149e-08 1.80877e-07 0)
(3.02728e-08 2.08453e-07 0)
(3.78758e-08 2.55038e-07 0)
(5.31856e-08 3.64384e-07 0)
(1.14329e-07 5.94535e-07 0)
(5.55343e-07 1.59624e-06 0)
(4.03203e-06 1.04727e-05 0)
(-1.55845e-06 4.49579e-06 0)
(-7.49118e-07 2.45826e-05 0)
(2.78698e-06 8.61753e-06 0)
(2.85426e-06 2.07208e-05 0)
(5.58694e-06 1.03363e-05 0)
(3.99353e-06 1.52264e-05 0)
(7.86253e-06 1.54031e-05 0)
(9.80347e-06 1.09452e-05 0)
(1.02945e-05 9.6319e-06 0)
(1.01289e-05 5.57883e-06 0)
(8.27575e-06 3.59281e-06 0)
(6.50325e-06 2.61183e-06 0)
(5.00272e-06 2.07702e-06 0)
(3.71311e-06 1.76401e-06 0)
(2.56534e-06 1.57608e-06 0)
(1.50671e-06 1.46811e-06 0)
(4.97037e-07 1.41855e-06 0)
(-4.87802e-07 1.75157e-06 0)
(-1.4774e-06 1.81112e-06 0)
(-2.51043e-06 1.94027e-06 0)
(-3.62063e-06 2.16309e-06 0)
(-4.8478e-06 2.52837e-06 0)
(-6.23202e-06 3.13456e-06 0)
(-7.7695e-06 4.18615e-06 0)
(-9.19949e-06 6.08953e-06 0)
(-9.42267e-06 9.25364e-06 0)
(-8.90643e-06 1.09823e-05 0)
(-7.24362e-06 1.41512e-05 0)
(-4.55242e-06 1.42774e-05 0)
(-4.8937e-06 1.19202e-05 0)
(-2.99951e-06 1.75848e-05 0)
(-2.32309e-06 1.14925e-05 0)
(2.00789e-07 1.96735e-05 0)
(1.10295e-06 8.82464e-06 0)
(2.52093e-06 1.81817e-05 0)
(3.38702e-06 4.53127e-06 0)
(-6.7357e-06 3.57256e-06 0)
(-6.22571e-06 1.63006e-05 0)
(-2.93338e-07 8.87526e-07 0)
(-8.9593e-08 4.87971e-07 0)
(-4.78335e-08 3.24673e-07 0)
(-3.45288e-08 2.49029e-07 0)
(-2.88952e-08 2.12889e-07 0)
(-2.58274e-08 1.91348e-07 0)
(-2.37293e-08 1.76312e-07 0)
(-2.2085e-08 1.65374e-07 0)
(-2.08869e-08 1.56679e-07 0)
(-1.96123e-08 1.49215e-07 0)
(-1.84686e-08 1.43771e-07 0)
(-1.7939e-08 1.39318e-07 0)
(-1.76118e-08 1.375e-07 0)
(-1.70802e-08 1.35783e-07 0)
(-1.60515e-08 1.34177e-07 0)
(-1.42689e-08 1.32839e-07 0)
(-1.15121e-08 1.31664e-07 0)
(-7.58368e-09 1.30624e-07 0)
(-2.65564e-09 1.29895e-07 0)
(2.65564e-09 1.29895e-07 0)
(7.58368e-09 1.30624e-07 0)
(1.15121e-08 1.31664e-07 0)
(1.42689e-08 1.32839e-07 0)
(1.60515e-08 1.34177e-07 0)
(1.70802e-08 1.35783e-07 0)
(1.76118e-08 1.375e-07 0)
(1.7939e-08 1.39318e-07 0)
(1.84686e-08 1.43771e-07 0)
(1.96123e-08 1.49215e-07 0)
(2.08869e-08 1.56679e-07 0)
(2.2085e-08 1.65374e-07 0)
(2.37293e-08 1.76312e-07 0)
(2.58274e-08 1.91348e-07 0)
(2.88952e-08 2.12889e-07 0)
(3.45288e-08 2.49029e-07 0)
(4.78335e-08 3.24673e-07 0)
(8.9593e-08 4.87971e-07 0)
(2.93338e-07 8.87526e-07 0)
(6.22571e-06 1.63006e-05 0)
(6.7357e-06 3.57256e-06 0)
(-3.38702e-06 4.53127e-06 0)
(-2.52093e-06 1.81817e-05 0)
(-1.10295e-06 8.82464e-06 0)
(-2.00789e-07 1.96735e-05 0)
(2.32309e-06 1.14925e-05 0)
(2.99951e-06 1.75848e-05 0)
(4.8937e-06 1.19202e-05 0)
(4.55242e-06 1.42774e-05 0)
(7.24362e-06 1.41512e-05 0)
(8.90643e-06 1.09823e-05 0)
(9.42267e-06 9.25364e-06 0)
(9.19949e-06 6.08953e-06 0)
(7.7695e-06 4.18615e-06 0)
(6.23202e-06 3.13456e-06 0)
(4.8478e-06 2.52837e-06 0)
(3.62063e-06 2.16309e-06 0)
(2.51043e-06 1.94027e-06 0)
(1.4774e-06 1.81112e-06 0)
(4.87802e-07 1.75157e-06 0)
(-4.75835e-07 2.10891e-06 0)
(-1.43954e-06 2.17809e-06 0)
(-2.44006e-06 2.32728e-06 0)
(-3.50385e-06 2.58194e-06 0)
(-4.65726e-06 2.99156e-06 0)
(-5.9144e-06 3.64925e-06 0)
(-7.22834e-06 4.72564e-06 0)
(-8.33859e-06 6.48711e-06 0)
(-8.5635e-06 9.02236e-06 0)
(-8.0731e-06 1.08405e-05 0)
(-6.69982e-06 1.31715e-05 0)
(-4.76722e-06 1.35545e-05 0)
(-4.42689e-06 1.26318e-05 0)
(-2.99892e-06 1.56485e-05 0)
(-2.05689e-06 1.28236e-05 0)
(-1.87674e-07 1.67235e-05 0)
(7.92334e-07 1.10749e-05 0)
(1.76065e-06 1.50538e-05 0)
(1.54997e-06 7.43452e-06 0)
(-5.78683e-06 7.89731e-06 0)
(1.98877e-06 2.74042e-05 0)
(6.87412e-06 4.24187e-06 0)
(-3.67373e-06 5.49324e-06 0)
(-3.71129e-06 8.87071e-06 0)
(-2.5467e-07 8.36475e-07 0)
(-8.79824e-08 4.76422e-07 0)
(-4.8614e-08 3.48169e-07 0)
(-3.60693e-08 2.62868e-07 0)
(-3.0507e-08 2.27383e-07 0)
(-2.78161e-08 2.07502e-07 0)
(-2.55939e-08 1.93539e-07 0)
(-2.40018e-08 1.8532e-07 0)
(-2.378e-08 1.79201e-07 0)
(-2.39469e-08 1.76816e-07 0)
(-2.40119e-08 1.74514e-07 0)
(-2.33306e-08 1.72105e-07 0)
(-2.14619e-08 1.70227e-07 0)
(-1.80257e-08 1.68251e-07 0)
(-1.22871e-08 1.66025e-07 0)
(-4.3765e-09 1.64526e-07 0)
(4.3765e-09 1.64526e-07 0)
(1.22871e-08 1.66025e-07 0)
(1.80257e-08 1.68251e-07 0)
(2.14619e-08 1.70227e-07 0)
(2.33306e-08 1.72105e-07 0)
(2.40119e-08 1.74514e-07 0)
(2.39469e-08 1.76816e-07 0)
(2.378e-08 1.79201e-07 0)
(2.40018e-08 1.8532e-07 0)
(2.55939e-08 1.93539e-07 0)
(2.78161e-08 2.07502e-07 0)
(3.0507e-08 2.27383e-07 0)
(3.60693e-08 2.62868e-07 0)
(4.8614e-08 3.48169e-07 0)
(8.79824e-08 4.76422e-07 0)
(2.5467e-07 8.36475e-07 0)
(3.71129e-06 8.87071e-06 0)
(3.67373e-06 5.49324e-06 0)
(-6.87412e-06 4.24187e-06 0)
(-1.98877e-06 2.74042e-05 0)
(5.78683e-06 7.89731e-06 0)
(-1.54997e-06 7.43452e-06 0)
(-1.76065e-06 1.50538e-05 0)
(-7.92334e-07 1.10749e-05 0)
(1.87674e-07 1.67235e-05 0)
(2.05689e-06 1.28236e-05 0)
(2.99892e-06 1.56485e-05 0)
(4.42689e-06 1.26318e-05 0)
(4.76722e-06 1.35545e-05 0)
(6.69982e-06 1.31715e-05 0)
(8.0731e-06 1.08405e-05 0)
(8.5635e-06 9.02236e-06 0)
(8.33859e-06 6.48711e-06 0)
(7.22834e-06 4.72564e-06 0)
(5.9144e-06 3.64925e-06 0)
(4.65726e-06 2.99156e-06 0)
(3.50385e-06 2.58194e-06 0)
(2.44006e-06 2.32728e-06 0)
(1.43954e-06 2.17809e-06 0)
(4.75835e-07 2.10891e-06 0)
(-4.60809e-07 2.48982e-06 0)
(-1.39219e-06 2.56782e-06 0)
(-2.35288e-06 2.73495e-06 0)
(-3.3616e-06 3.01668e-06 0)
(-4.43188e-06 3.46024e-06 0)
(-5.55705e-06 4.14763e-06 0)
(-6.66697e-06 5.20987e-06 0)
(-7.5342e-06 6.80309e-06 0)
(-7.73415e-06 8.87881e-06 0)
(-7.29855e-06 1.06082e-05 0)
(-6.19173e-06 1.23994e-05 0)
(-4.75127e-06 1.29631e-05 0)
(-4.0867e-06 1.28082e-05 0)
(-2.92149e-06 1.44217e-05 0)
(-1.91139e-06 1.32547e-05 0)
(-4.73274e-07 1.49545e-05 0)
(4.53492e-07 1.20689e-05 0)
(1.11301e-06 1.34031e-05 0)
(6.56617e-07 9.36126e-06 0)
(-2.91699e-06 1.03401e-05 0)
(1.47324e-06 2.00739e-05 0)
(4.46714e-06 8.40109e-06 0)
(6.26338e-07 1.05304e-05 0)
(4.35497e-06 1.54515e-05 0)
(3.99585e-06 3.37247e-06 0)
(-7.04565e-06 3.47756e-06 0)
(-7.0506e-06 1.50006e-05 0)
(-4.51105e-07 1.01238e-06 0)
(-1.25824e-07 5.36349e-07 0)
(-6.34251e-08 3.87701e-07 0)
(-4.16754e-08 2.97681e-07 0)
(-3.36448e-08 2.5397e-07 0)
(-3.26162e-08 2.35084e-07 0)
(-3.33198e-08 2.28758e-07 0)
(-3.47144e-08 2.23756e-07 0)
(-3.49378e-08 2.18158e-07 0)
(-3.33794e-08 2.15372e-07 0)
(-2.9844e-08 2.116e-07 0)
(-2.14557e-08 2.05751e-07 0)
(-7.81145e-09 2.0211e-07 0)
(7.81145e-09 2.0211e-07 0)
(2.14557e-08 2.05751e-07 0)
(2.9844e-08 2.116e-07 0)
(3.33794e-08 2.15372e-07 0)
(3.49378e-08 2.18158e-07 0)
(3.47144e-08 2.23756e-07 0)
(3.33198e-08 2.28758e-07 0)
(3.26162e-08 2.35084e-07 0)
(3.36448e-08 2.5397e-07 0)
(4.16754e-08 2.97681e-07 0)
(6.34251e-08 3.87701e-07 0)
(1.25824e-07 5.36349e-07 0)
(4.51105e-07 1.01238e-06 0)
(7.0506e-06 1.50006e-05 0)
(7.04565e-06 3.47756e-06 0)
(-3.99585e-06 3.37247e-06 0)
(-4.35497e-06 1.54515e-05 0)
(-6.26338e-07 1.05304e-05 0)
(-4.46714e-06 8.40109e-06 0)
(-1.47324e-06 2.00739e-05 0)
(2.91699e-06 1.03401e-05 0)
(-6.56617e-07 9.36126e-06 0)
(-1.11301e-06 1.34031e-05 0)
(-4.53492e-07 1.20689e-05 0)
(4.73274e-07 1.49545e-05 0)
(1.91139e-06 1.32547e-05 0)
(2.92149e-06 1.44217e-05 0)
(4.0867e-06 1.28082e-05 0)
(4.75127e-06 1.29631e-05 0)
(6.19173e-06 1.23994e-05 0)
(7.29855e-06 1.06082e-05 0)
(7.73415e-06 8.87881e-06 0)
(7.5342e-06 6.80309e-06 0)
(6.66697e-06 5.20987e-06 0)
(5.55705e-06 4.14763e-06 0)
(4.43188e-06 3.46024e-06 0)
(3.3616e-06 3.01668e-06 0)
(2.35288e-06 2.73495e-06 0)
(1.39219e-06 2.56782e-06 0)
(4.60809e-07 2.48982e-06 0)
(-4.42471e-07 2.89265e-06 0)
(-1.3347e-06 2.97821e-06 0)
(-2.24814e-06 3.16016e-06 0)
(-3.19387e-06 3.46259e-06 0)
(-4.17425e-06 3.92784e-06 0)
(-5.168e-06 4.62315e-06 0)
(-6.09736e-06 5.6409e-06 0)
(-6.77874e-06 7.05949e-06 0)
(-6.94527e-06 8.78531e-06 0)
(-6.57657e-06 1.03441e-05 0)
(-5.69786e-06 1.1782e-05 0)
(-4.58631e-06 1.24482e-05 0)
(-3.80872e-06 1.2677e-05 0)
(-2.80709e-06 1.3589e-05 0)
(-1.83315e-06 1.32025e-05 0)
(-6.89344e-07 1.38602e-05 0)
(1.32632e-07 1.23847e-05 0)
(6.14737e-07 1.25813e-05 0)
(2.69198e-07 1.05387e-05 0)
(-1.28283e-06 1.14089e-05 0)
(1.17317e-06 1.59889e-05 0)
(2.98661e-06 1.03645e-05 0)
(1.48061e-06 1.09055e-05 0)
(3.14585e-06 1.27112e-05 0)
(2.35825e-06 6.63348e-06 0)
(-3.55286e-06 7.76141e-06 0)
(3.89882e-06 2.45401e-05 0)
(9.59474e-06 4.02766e-06 0)
(4.53755e-09 2.95784e-06 0)
(-4.04562e-06 6.77103e-06 0)
(-1.93311e-06 3.76418e-06 0)
(-2.679e-07 7.62054e-07 0)
(-1.36571e-07 4.76558e-07 0)
(-1.04094e-07 4.15801e-07 0)
(-8.64274e-08 3.7389e-07 0)
(-7.04492e-08 3.27858e-07 0)
(-5.8992e-08 2.93637e-07 0)
(-5.56906e-08 2.72461e-07 0)
(-4.28342e-08 2.49738e-07 0)
(-1.58122e-08 2.39351e-07 0)
(1.58122e-08 2.39351e-07 0)
(4.28342e-08 2.49738e-07 0)
(5.56906e-08 2.72461e-07 0)
(5.8992e-08 2.93637e-07 0)
(7.04492e-08 3.27858e-07 0)
(8.64274e-08 3.7389e-07 0)
(1.04094e-07 4.15801e-07 0)
(1.36571e-07 4.76558e-07 0)
(2.679e-07 7.62054e-07 0)
(1.93311e-06 3.76418e-06 0)
(4.04562e-06 6.77103e-06 0)
(-4.53755e-09 2.95784e-06 0)
(-9.59474e-06 4.02766e-06 0)
(-3.89882e-06 2.45401e-05 0)
(3.55286e-06 7.76141e-06 0)
(-2.35825e-06 6.63348e-06 0)
(-3.14585e-06 1.27112e-05 0)
(-1.48061e-06 1.09055e-05 0)
(-2.98661e-06 1.03645e-05 0)
(-1.17317e-06 1.59889e-05 0)
(1.28283e-06 1.14089e-05 0)
(-2.69198e-07 1.05387e-05 0)
(-6.14737e-07 1.25813e-05 0)
(-1.32632e-07 1.23847e-05 0)
(6.89344e-07 1.38602e-05 0)
(1.83315e-06 1.32025e-05 0)
(2.80709e-06 1.3589e-05 0)
(3.80872e-06 1.2677e-05 0)
(4.58631e-06 1.24482e-05 0)
(5.69786e-06 1.1782e-05 0)
(6.57657e-06 1.03441e-05 0)
(6.94527e-06 8.78531e-06 0)
(6.77874e-06 7.05949e-06 0)
(6.09736e-06 5.6409e-06 0)
(5.168e-06 4.62315e-06 0)
(4.17425e-06 3.92784e-06 0)
(3.19387e-06 3.46259e-06 0)
(2.24814e-06 3.16016e-06 0)
(1.3347e-06 2.97821e-06 0)
(4.42471e-07 2.89265e-06 0)
(-4.20693e-07 3.31476e-06 0)
(-1.26678e-06 3.40613e-06 0)
(-2.12587e-06 3.59884e-06 0)
(-3.00198e-06 3.91432e-06 0)
(-3.88862e-06 4.38809e-06 0)
(-4.75601e-06 5.07127e-06 0)
(-5.5293e-06 6.02287e-06 0)
(-6.06785e-06 7.27156e-06 0)
(-6.20239e-06 8.71992e-06 0)
(-5.9013e-06 1.00831e-05 0)
(-5.20941e-06 1.12782e-05 0)
(-4.32902e-06 1.19819e-05 0)
(-3.55505e-06 1.23838e-05 0)
(-2.67528e-06 1.29639e-05 0)
(-1.78618e-06 1.29174e-05 0)
(-8.52751e-07 1.31331e-05 0)
(-1.41588e-07 1.23637e-05 0)
(2.57453e-07 1.21728e-05 0)
(1.20116e-07 1.1179e-05 0)
(-4.0682e-07 1.17634e-05 0)
(9.90959e-07 1.37716e-05 0)
(2.12167e-06 1.11558e-05 0)
(1.69254e-06 1.10373e-05 0)
(2.38047e-06 1.14494e-05 0)
(1.73226e-06 8.5951e-06 0)
(-6.96961e-07 9.80447e-06 0)
(3.18551e-06 1.70285e-05 0)
(6.05893e-06 7.40749e-06 0)
(1.89202e-06 6.19085e-06 0)
(2.36703e-06 1.16796e-05 0)
(4.65469e-06 7.30418e-06 0)
(1.1209e-06 2.88163e-06 0)
(-4.62977e-06 3.58251e-06 0)
(-1.16763e-05 5.79923e-06 0)
(-9.48671e-06 8.34669e-06 0)
(-1.76682e-06 1.37833e-06 0)
(-5.51503e-07 6.40827e-07 0)
(-2.5593e-07 4.26054e-07 0)
(-1.29412e-07 3.03514e-07 0)
(-4.10214e-08 2.69279e-07 0)
(4.10214e-08 2.69279e-07 0)
(1.29412e-07 3.03514e-07 0)
(2.5593e-07 4.26054e-07 0)
(5.51503e-07 6.40827e-07 0)
(1.76682e-06 1.37833e-06 0)
(9.48671e-06 8.34669e-06 0)
(1.16763e-05 5.79923e-06 0)
(4.62977e-06 3.58251e-06 0)
(-1.1209e-06 2.88163e-06 0)
(-4.65469e-06 7.30418e-06 0)
(-2.36703e-06 1.16796e-05 0)
(-1.89202e-06 6.19085e-06 0)
(-6.05893e-06 7.40749e-06 0)
(-3.18551e-06 1.70285e-05 0)
(6.96961e-07 9.80447e-06 0)
(-1.73226e-06 8.5951e-06 0)
(-2.38047e-06 1.14494e-05 0)
(-1.69254e-06 1.10373e-05 0)
(-2.12167e-06 1.11558e-05 0)
(-9.90959e-07 1.37716e-05 0)
(4.0682e-07 1.17634e-05 0)
(-1.20116e-07 1.1179e-05 0)
(-2.57453e-07 1.21728e-05 0)
(1.41588e-07 1.23637e-05 0)
(8.52751e-07 1.31331e-05 0)
(1.78618e-06 1.29174e-05 0)
(2.67528e-06 1.29639e-05 0)
(3.55505e-06 1.23838e-05 0)
(4.32902e-06 1.19819e-05 0)
(5.20941e-06 1.12782e-05 0)
(5.9013e-06 1.00831e-05 0)
(6.20239e-06 8.71992e-06 0)
(6.06785e-06 7.27156e-06 0)
(5.5293e-06 6.02287e-06 0)
(4.75601e-06 5.07127e-06 0)
(3.88862e-06 4.38809e-06 0)
(3.00198e-06 3.91432e-06 0)
(2.12587e-06 3.59884e-06 0)
(1.26678e-06 3.40613e-06 0)
(4.20693e-07 3.31476e-06 0)
(-3.95511e-07 3.75244e-06 0)
(-1.18872e-06 3.84745e-06 0)
(-1.98708e-06 4.04607e-06 0)
(-2.78862e-06 4.36614e-06 0)
(-3.58062e-06 4.83535e-06 0)
(-4.33001e-06 5.4893e-06 0)
(-4.9708e-06 6.36092e-06 0)
(-5.39925e-06 7.45008e-06 0)
(-5.5074e-06 8.67107e-06 0)
(-5.26813e-06 9.84331e-06 0)
(-4.72551e-06 1.08588e-05 0)
(-4.01755e-06 1.15526e-05 0)
(-3.30592e-06 1.20168e-05 0)
(-2.53328e-06 1.24462e-05 0)
(-1.74684e-06 1.25379e-05 0)
(-9.70845e-07 1.25986e-05 0)
(-3.56507e-07 1.21889e-05 0)
(1.31082e-08 1.19356e-05 0)
(6.37597e-08 1.1458e-05 0)
(2.46024e-08 1.17762e-05 0)
(8.64563e-07 1.25709e-05 0)
(1.60202e-06 1.1363e-05 0)
(1.61774e-06 1.1041e-05 0)
(1.9085e-06 1.09299e-05 0)
(1.53554e-06 9.65611e-06 0)
(6.99386e-07 1.04575e-05 0)
(2.6807e-06 1.32738e-05 0)
(4.11724e-06 8.88339e-06 0)
(2.40069e-06 7.81362e-06 0)
(2.41667e-06 9.80453e-06 0)
(3.09304e-06 7.6275e-06 0)
(1.05945e-06 5.51081e-06 0)
(-1.16177e-06 7.10202e-06 0)
(-8.78513e-07 1.00472e-05 0)
(2.49744e-06 1.29091e-05 0)
(3.29755e-06 4.62162e-06 0)
(-5.9244e-07 3.61689e-06 0)
(-1.77212e-06 1.42847e-06 0)
(-5.67517e-07 4.93149e-07 0)
(-1.35929e-07 2.71784e-07 0)
(1.35929e-07 2.71784e-07 0)
(5.67517e-07 4.93149e-07 0)
(1.77212e-06 1.42847e-06 0)
(5.9244e-07 3.61689e-06 0)
(-3.29755e-06 4.62162e-06 0)
(-2.49744e-06 1.29091e-05 0)
(8.78513e-07 1.00472e-05 0)
(1.16177e-06 7.10202e-06 0)
(-1.05945e-06 5.51081e-06 0)
(-3.09304e-06 7.6275e-06 0)
(-2.41667e-06 9.80453e-06 0)
(-2.40069e-06 7.81362e-06 0)
(-4.11724e-06 8.88339e-06 0)
(-2.6807e-06 1.32738e-05 0)
(-6.99386e-07 1.04575e-05 0)
(-1.53554e-06 9.65611e-06 0)
(-1.9085e-06 1.09299e-05 0)
(-1.61774e-06 1.1041e-05 0)
(-1.60202e-06 1.1363e-05 0)
(-8.64563e-07 1.25709e-05 0)
(-2.46024e-08 1.17762e-05 0)
(-6.37597e-08 1.1458e-05 0)
(-1.31082e-08 1.19356e-05 0)
(3.56507e-07 1.21889e-05 0)
(9.70845e-07 1.25986e-05 0)
(1.74684e-06 1.25379e-05 0)
(2.53328e-06 1.24462e-05 0)
(3.30592e-06 1.20168e-05 0)
(4.01755e-06 1.15526e-05 0)
(4.72551e-06 1.08588e-05 0)
(5.26813e-06 9.84331e-06 0)
(5.5074e-06 8.67107e-06 0)
(5.39925e-06 7.45008e-06 0)
(4.9708e-06 6.36092e-06 0)
(4.33001e-06 5.4893e-06 0)
(3.58062e-06 4.83535e-06 0)
(2.78862e-06 4.36614e-06 0)
(1.98708e-06 4.04607e-06 0)
(1.18872e-06 3.84745e-06 0)
(3.95511e-07 3.75244e-06 0)
(-3.67167e-07 4.20088e-06 0)
(-1.10139e-06 4.29706e-06 0)
(-1.8338e-06 4.49629e-06 0)
(-2.55776e-06 4.81232e-06 0)
(-3.2569e-06 5.26491e-06 0)
(-3.8987e-06 5.87621e-06 0)
(-4.42848e-06 6.66045e-06 0)
(-4.77191e-06 7.60287e-06 0)
(-4.86007e-06 8.63336e-06 0)
(-4.67404e-06 9.63197e-06 0)
(-4.24947e-06 1.05037e-05 0)
(-3.67714e-06 1.11574e-05 0)
(-3.05286e-06 1.16276e-05 0)
(-2.3821e-06 1.1988e-05 0)
(-1.70024e-06 1.21341e-05 0)
(-1.04688e-06 1.21638e-05 0)
(-5.11259e-07 1.19484e-05 0)
(-1.4935e-07 1.17454e-05 0)
(3.16646e-08 1.15083e-05 0)
(2.06898e-07 1.164e-05 0)
(7.59848e-07 1.18945e-05 0)
(1.27089e-06 1.13102e-05 0)
(1.44468e-06 1.09779e-05 0)
(1.61045e-06 1.07275e-05 0)
(1.47305e-06 1.01527e-05 0)
(1.29864e-06 1.05381e-05 0)
(2.30726e-06 1.14585e-05 0)
(3.03091e-06 9.44569e-06 0)
(2.38532e-06 8.61349e-06 0)
(2.2526e-06 9.07747e-06 0)
(2.27691e-06 7.9596e-06 0)
(1.17781e-06 6.99844e-06 0)
(2.35323e-07 7.86931e-06 0)
(3.79002e-07 8.7226e-06 0)
(1.05987e-06 9.02231e-06 0)
(1.12397e-06 7.40818e-06 0)
(2.32587e-07 7.0255e-06 0)
(-3.8858e-07 2.33591e-06 0)
(-4.24706e-07 5.28634e-07 0)
(-1.81768e-07 2.26555e-07 0)
(1.81768e-07 2.26555e-07 0)
(4.24706e-07 5.28634e-07 0)
(3.8858e-07 2.33591e-06 0)
(-2.32587e-07 7.0255e-06 0)
(-1.12397e-06 7.40818e-06 0)
(-1.05987e-06 9.02231e-06 0)
(-3.79002e-07 8.7226e-06 0)
(-2.35323e-07 7.86931e-06 0)
(-1.17781e-06 6.99844e-06 0)
(-2.27691e-06 7.9596e-06 0)
(-2.2526e-06 9.07747e-06 0)
(-2.38532e-06 8.61349e-06 0)
(-3.03091e-06 9.44569e-06 0)
(-2.30726e-06 1.14585e-05 0)
(-1.29864e-06 1.05381e-05 0)
(-1.47305e-06 1.01527e-05 0)
(-1.61045e-06 1.07275e-05 0)
(-1.44468e-06 1.09779e-05 0)
(-1.27089e-06 1.13102e-05 0)
(-7.59848e-07 1.18945e-05 0)
(-2.06898e-07 1.164e-05 0)
(-3.16646e-08 1.15083e-05 0)
(1.4935e-07 1.17454e-05 0)
(5.11259e-07 1.19484e-05 0)
(1.04688e-06 1.21638e-05 0)
(1.70024e-06 1.21341e-05 0)
(2.3821e-06 1.1988e-05 0)
(3.05286e-06 1.16276e-05 0)
(3.67714e-06 1.11574e-05 0)
(4.24947e-06 1.05037e-05 0)
(4.67404e-06 9.63197e-06 0)
(4.86007e-06 8.63336e-06 0)
(4.77191e-06 7.60287e-06 0)
(4.42848e-06 6.66045e-06 0)
(3.8987e-06 5.87621e-06 0)
(3.2569e-06 5.26491e-06 0)
(2.55776e-06 4.81232e-06 0)