/*--------------------------------*- C++ -*----------------------------------*\
  =========                 |
  \\      /  F ield         | OpenFOAM: The Open Source CFD Toolbox
   \\    /   O peration     | Website:  https://openfoam.org
    \\  /    A nd           | Version:  10
     \\/     M anipulation  |
\*---------------------------------------------------------------------------*/
FoamFile
{
    format      ascii;
    class       volVectorField;
    location    "17800";
    object      Ub;
}
// * * * * * * * * * * * * * * * * * * * * * * * * * * * * * * * * * * * * * //

dimensions      [0 1 -1 0 0 0 0];

internalField   nonuniform List<vector> 
6400
(
(-9.16798e-21 -9.87899e-16 0)
(-2.78412e-20 -9.87899e-16 0)
(-4.75933e-20 -9.87899e-16 0)
(-6.94008e-20 -9.87899e-16 0)
(-9.47855e-20 -9.87898e-16 0)
(-1.26527e-19 -9.87897e-16 0)
(-1.70119e-19 -9.87896e-16 0)
(-1.26307e-10 -9.88039e-16 0)
(-4.57501e-05 -2.75013e-07 0)
(-9.86658e-05 -2.14329e-06 0)
(-0.000115451 1.54494e-06 0)
(-0.000124516 -2.84086e-07 0)
(-0.000120382 -8.30403e-07 0)
(-0.000119196 4.14637e-07 0)
(-0.000121149 -1.43934e-07 0)
(-0.000121079 3.16709e-08 0)
(-0.000120807 -1.66708e-07 0)
(-0.000119407 -1.84961e-07 0)
(-0.000116849 -3.92553e-07 0)
(-0.00011449 -1.3763e-07 0)
(-0.000114532 1.00949e-07 0)
(-0.000114985 -4.96284e-08 0)
(-0.0001143 -1.26947e-07 0)
(-0.000112777 -2.16872e-07 0)
(-0.000111035 -1.69025e-07 0)
(-0.000109838 -1.04033e-07 0)
(-0.000109108 -7.23935e-08 0)
(-0.000108393 -9.94263e-08 0)
(-0.000107342 -1.39468e-07 0)
(-0.000105628 -2.32913e-07 0)
(-0.000102517 -4.22671e-07 0)
(-9.72048e-05 -6.79276e-07 0)
(-9.15459e-05 -1.09487e-06 0)
(-8.60392e-05 -1.44467e-06 0)
(-7.87857e-05 -1.89351e-06 0)
(-6.93904e-05 -2.42406e-06 0)
(-5.75907e-05 -2.99296e-06 0)
(-4.33629e-05 -3.53438e-06 0)
(-2.70069e-05 -3.96625e-06 0)
(-9.17835e-06 -4.20776e-06 0)
(9.17835e-06 -4.20776e-06 0)
(2.70069e-05 -3.96625e-06 0)
(4.33629e-05 -3.53438e-06 0)
(5.75907e-05 -2.99296e-06 0)
(6.93904e-05 -2.42406e-06 0)
(7.87857e-05 -1.89351e-06 0)
(8.60392e-05 -1.44467e-06 0)
(9.15459e-05 -1.09487e-06 0)
(9.72048e-05 -6.79276e-07 0)
(0.000102517 -4.22671e-07 0)
(0.000105628 -2.32913e-07 0)
(0.000107342 -1.39468e-07 0)
(0.000108393 -9.94263e-08 0)
(0.000109108 -7.23935e-08 0)
(0.000109838 -1.04033e-07 0)
(0.000111035 -1.69025e-07 0)
(0.000112777 -2.16872e-07 0)
(0.0001143 -1.26947e-07 0)
(0.000114985 -4.96284e-08 0)
(0.000114532 1.00949e-07 0)
(0.00011449 -1.3763e-07 0)
(0.000116849 -3.92553e-07 0)
(0.000119407 -1.84961e-07 0)
(0.000120807 -1.66708e-07 0)
(0.000121079 3.16709e-08 0)
(0.000121149 -1.43934e-07 0)
(0.000119196 4.14637e-07 0)
(0.000120382 -8.30403e-07 0)
(0.000124516 -2.84086e-07 0)
(0.000115451 1.54494e-06 0)
(9.86658e-05 -2.14329e-06 0)
(4.57501e-05 -2.75013e-07 0)
(1.26307e-10 -9.88039e-16 0)
(1.70119e-19 -9.87896e-16 0)
(1.26527e-19 -9.87897e-16 0)
(9.47855e-20 -9.87898e-16 0)
(6.94008e-20 -9.87899e-16 0)
(4.75933e-20 -9.87899e-16 0)
(2.78412e-20 -9.87899e-16 0)
(9.16798e-21 -9.87899e-16 0)
(-9.15332e-21 -9.87893e-16 0)
(-2.77944e-20 -9.87893e-16 0)
(-4.7504e-20 -9.87892e-16 0)
(-6.92455e-20 -9.87891e-16 0)
(-9.45097e-20 -9.8789e-16 0)
(-1.26014e-19 -9.87887e-16 0)
(-1.7005e-19 -9.87882e-16 0)
(-2.666e-19 -9.87875e-16 0)
(-4.9459e-16 -9.875e-16 0)
(-1.15424e-05 -1.2323e-12 0)
(-6.83692e-05 1.74814e-06 0)
(-0.000115672 -3.52763e-07 0)
(-0.000114628 -2.36212e-06 0)
(-0.000114586 1.50871e-06 0)
(-0.000117228 -3.62288e-07 0)
(-0.000117421 2.01251e-07 0)
(-0.000117429 -4.4986e-07 0)
(-0.00011624 -5.00339e-07 0)
(-0.000113822 -1.17719e-06 0)
(-0.000111533 -3.78585e-07 0)
(-0.000111745 3.66273e-07 0)
(-0.000112327 -1.21532e-07 0)
(-0.000111707 -3.58315e-07 0)
(-0.000110245 -6.445e-07 0)
(-0.000108554 -4.94105e-07 0)
(-0.000107427 -2.93959e-07 0)
(-0.000106767 -1.97169e-07 0)
(-0.000106113 -2.83846e-07 0)
(-0.000105124 -4.0623e-07 0)
(-0.000103502 -6.92576e-07 0)
(-0.000100509 -1.27849e-06 0)
(-9.54031e-05 -2.05664e-06 0)
(-8.99807e-05 -3.32793e-06 0)
(-8.46812e-05 -4.40283e-06 0)
(-7.76628e-05 -5.78759e-06 0)
(-6.85153e-05 -7.42974e-06 0)
(-5.69589e-05 -9.19498e-06 0)
(-4.29525e-05 -1.08794e-05 0)
(-2.67832e-05 -1.22266e-05 0)
(-9.10832e-06 -1.29815e-05 0)
(9.10832e-06 -1.29815e-05 0)
(2.67832e-05 -1.22266e-05 0)
(4.29525e-05 -1.08794e-05 0)
(5.69589e-05 -9.19498e-06 0)
(6.85153e-05 -7.42974e-06 0)
(7.76628e-05 -5.78759e-06 0)
(8.46812e-05 -4.40283e-06 0)
(8.99807e-05 -3.32793e-06 0)
(9.54031e-05 -2.05664e-06 0)
(0.000100509 -1.27849e-06 0)
(0.000103502 -6.92576e-07 0)
(0.000105124 -4.0623e-07 0)
(0.000106113 -2.83846e-07 0)
(0.000106767 -1.97169e-07 0)
(0.000107427 -2.93959e-07 0)
(0.000108554 -4.94105e-07 0)
(0.000110245 -6.445e-07 0)
(0.000111707 -3.58315e-07 0)
(0.000112327 -1.21532e-07 0)
(0.000111745 3.66273e-07 0)
(0.000111533 -3.78585e-07 0)
(0.000113822 -1.17719e-06 0)
(0.00011624 -5.00339e-07 0)
(0.000117429 -4.4986e-07 0)
(0.000117421 2.01251e-07 0)
(0.000117228 -3.62288e-07 0)
(0.000114586 1.50871e-06 0)
(0.000114628 -2.36212e-06 0)
(0.000115672 -3.52763e-07 0)
(6.83692e-05 1.74814e-06 0)
(1.15424e-05 -1.2323e-12 0)
(4.9459e-16 -9.875e-16 0)
(2.666e-19 -9.87875e-16 0)
(1.7005e-19 -9.87882e-16 0)
(1.26014e-19 -9.87887e-16 0)
(9.45097e-20 -9.8789e-16 0)
(6.92455e-20 -9.87891e-16 0)
(4.7504e-20 -9.87892e-16 0)
(2.77944e-20 -9.87893e-16 0)
(9.15332e-21 -9.87893e-16 0)
(-9.11986e-21 -9.87888e-16 0)
(-2.76874e-20 -9.87888e-16 0)
(-4.73004e-20 -9.87887e-16 0)
(-6.8892e-20 -9.87886e-16 0)
(-9.38824e-20 -9.87883e-16 0)
(-1.248e-19 -9.87879e-16 0)
(-1.67269e-19 -9.8787e-16 0)
(-2.41036e-19 -9.87848e-16 0)
(-2.26394e-19 -9.87673e-16 0)
(-2.29163e-19 -9.87747e-16 0)
(-4.07948e-10 -8.65832e-16 0)
(-4.10067e-05 -1.53866e-07 0)
(-9.25166e-05 -1.5829e-06 0)
(-0.000108379 3.17247e-06 0)
(-0.000113491 -6.45198e-07 0)
(-0.000114242 4.83592e-07 0)
(-0.000114731 -7.66597e-07 0)
(-0.000113807 -7.94484e-07 0)
(-0.000111461 -2.09378e-06 0)
(-0.000109104 -6.32162e-07 0)
(-0.000109605 7.16886e-07 0)
(-0.000110399 -2.13304e-07 0)
(-0.000109814 -6.06342e-07 0)
(-0.000108363 -1.1308e-06 0)
(-0.000106662 -8.4984e-07 0)
(-0.000105596 -4.96525e-07 0)
(-0.00010502 -3.2568e-07 0)
(-0.000104435 -4.849e-07 0)
(-0.000103515 -6.89288e-07 0)
(-0.000102009 -1.1764e-06 0)
(-9.91545e-05 -2.19551e-06 0)
(-9.43226e-05 -3.49363e-06 0)
(-8.92483e-05 -5.6606e-06 0)
(-8.42468e-05 -7.51269e-06 0)
(-7.75394e-05 -9.9208e-06 0)
(-6.86685e-05 -1.27977e-05 0)
(-5.73055e-05 -1.59076e-05 0)
(-4.33671e-05 -1.88933e-05 0)
(-2.71172e-05 -2.1296e-05 0)
(-9.23615e-06 -2.26479e-05 0)
(9.23615e-06 -2.26479e-05 0)
(2.71172e-05 -2.1296e-05 0)
(4.33671e-05 -1.88933e-05 0)
(5.73055e-05 -1.59076e-05 0)
(6.86685e-05 -1.27977e-05 0)
(7.75394e-05 -9.9208e-06 0)
(8.42468e-05 -7.51269e-06 0)
(8.92483e-05 -5.6606e-06 0)
(9.43226e-05 -3.49363e-06 0)
(9.91545e-05 -2.19551e-06 0)
(0.000102009 -1.1764e-06 0)
(0.000103515 -6.89288e-07 0)
(0.000104435 -4.849e-07 0)
(0.00010502 -3.2568e-07 0)
(0.000105596 -4.96525e-07 0)
(0.000106662 -8.4984e-07 0)
(0.000108363 -1.1308e-06 0)
(0.000109814 -6.06342e-07 0)
(0.000110399 -2.13304e-07 0)
(0.000109605 7.16886e-07 0)
(0.000109104 -6.32162e-07 0)
(0.000111461 -2.09378e-06 0)
(0.000113807 -7.94484e-07 0)
(0.000114731 -7.66597e-07 0)
(0.000114242 4.83592e-07 0)
(0.000113491 -6.45198e-07 0)
(0.000108379 3.17247e-06 0)
(9.25166e-05 -1.5829e-06 0)
(4.10067e-05 -1.53866e-07 0)
(4.07948e-10 -8.65832e-16 0)
(2.29163e-19 -9.87747e-16 0)
(2.26394e-19 -9.87673e-16 0)
(2.41036e-19 -9.87848e-16 0)
(1.67269e-19 -9.8787e-16 0)
(1.248e-19 -9.87879e-16 0)
(9.38824e-20 -9.87883e-16 0)
(6.8892e-20 -9.87886e-16 0)
(4.73004e-20 -9.87887e-16 0)
(2.76874e-20 -9.87888e-16 0)
(9.11986e-21 -9.87888e-16 0)
(-9.06262e-21 -9.87884e-16 0)
(-2.75046e-20 -9.87883e-16 0)
(-4.69531e-20 -9.87882e-16 0)
(-6.82911e-20 -9.8788e-16 0)
(-9.28229e-20 -9.87877e-16 0)
(-1.22743e-19 -9.8787e-16 0)
(-1.62256e-19 -9.87858e-16 0)
(-2.1854e-19 -9.87827e-16 0)
(-2.13257e-19 -9.87699e-16 0)
(-2.09982e-19 -9.87724e-16 0)
(-1.71007e-19 -9.8756e-16 0)
(-2.144e-20 -9.87235e-16 0)
(-2.3291e-08 -7.69587e-16 0)
(-4.91566e-05 2.11417e-06 0)
(-0.000102263 -3.99682e-07 0)
(-0.000109017 1.18226e-06 0)
(-0.000111561 -1.07747e-06 0)
(-0.000111384 -9.71181e-07 0)
(-0.000109205 -3.22428e-06 0)
(-0.00010667 -8.74747e-07 0)
(-0.000107682 1.25561e-06 0)
(-0.000108828 -3.35e-07 0)
(-0.000108254 -8.56478e-07 0)
(-0.000106772 -1.7009e-06 0)
(-0.000104998 -1.23323e-06 0)
(-0.000103999 -6.99386e-07 0)
(-0.000103541 -4.40042e-07 0)
(-0.000103046 -6.96848e-07 0)
(-0.000102207 -9.75222e-07 0)
(-0.000100866 -1.66397e-06 0)
(-9.81854e-05 -3.16884e-06 0)
(-9.37311e-05 -4.93861e-06 0)
(-8.91779e-05 -8.01554e-06 0)
(-8.46259e-05 -1.06966e-05 0)
(-7.83736e-05 -1.424e-05 0)
(-6.98723e-05 -1.85288e-05 0)
(-5.87026e-05 -2.32081e-05 0)
(-4.47034e-05 -2.77489e-05 0)
(-2.80921e-05 -3.14446e-05 0)
(-9.5946e-06 -3.35393e-05 0)
(9.5946e-06 -3.35393e-05 0)
(2.80921e-05 -3.14446e-05 0)
(4.47034e-05 -2.77489e-05 0)
(5.87026e-05 -2.32081e-05 0)
(6.98723e-05 -1.85288e-05 0)
(7.83736e-05 -1.424e-05 0)
(8.46259e-05 -1.06966e-05 0)
(8.91779e-05 -8.01554e-06 0)
(9.37311e-05 -4.93861e-06 0)
(9.81854e-05 -3.16884e-06 0)
(0.000100866 -1.66397e-06 0)
(0.000102207 -9.75222e-07 0)
(0.000103046 -6.96848e-07 0)
(0.000103541 -4.40042e-07 0)
(0.000103999 -6.99386e-07 0)
(0.000104998 -1.23323e-06 0)
(0.000106772 -1.7009e-06 0)
(0.000108254 -8.56478e-07 0)
(0.000108828 -3.35e-07 0)
(0.000107682 1.25561e-06 0)
(0.00010667 -8.74747e-07 0)
(0.000109205 -3.22428e-06 0)
(0.000111384 -9.71181e-07 0)
(0.000111561 -1.07747e-06 0)
(0.000109017 1.18226e-06 0)
(0.000102263 -3.99682e-07 0)
(4.91566e-05 2.11417e-06 0)
(2.3291e-08 -7.69587e-16 0)
(2.144e-20 -9.87235e-16 0)
(1.71007e-19 -9.8756e-16 0)
(2.09982e-19 -9.87724e-16 0)
(2.13257e-19 -9.87699e-16 0)
(2.1854e-19 -9.87827e-16 0)
(1.62256e-19 -9.87858e-16 0)
(1.22743e-19 -9.8787e-16 0)
(9.28229e-20 -9.87877e-16 0)
(6.82911e-20 -9.8788e-16 0)
(4.69531e-20 -9.87882e-16 0)
(2.75046e-20 -9.87883e-16 0)
(9.06262e-21 -9.87884e-16 0)
(-8.97594e-21 -9.87879e-16 0)
(-2.72281e-20 -9.87878e-16 0)
(-4.64297e-20 -9.87876e-16 0)
(-6.73912e-20 -9.87874e-16 0)
(-9.12543e-20 -9.87869e-16 0)
(-1.19764e-19 -9.87861e-16 0)
(-1.55493e-19 -9.87846e-16 0)
(-1.98508e-19 -9.87811e-16 0)
(-1.98698e-19 -9.87716e-16 0)
(-1.91766e-19 -9.8771e-16 0)
(-1.53523e-19 -9.87596e-16 0)
(-5.23758e-20 -9.87604e-16 0)
(-1.18447e-19 -9.87767e-16 0)
(-4.37601e-20 -9.85412e-16 0)
(-2.32545e-08 -7.57226e-16 0)
(-4.73984e-05 8.46506e-07 0)
(-9.93353e-05 -6.12074e-07 0)
(-0.00010615 -6.1319e-07 0)
(-0.000105988 -4.66045e-06 0)
(-0.000103586 -1.05085e-06 0)
(-0.000105649 2.15723e-06 0)
(-0.000107426 -5.25664e-07 0)
(-0.000106858 -1.08593e-06 0)
(-0.00010532 -2.40818e-06 0)
(-0.000103397 -1.64505e-06 0)
(-0.000102494 -8.91994e-07 0)
(-0.000102209 -5.1982e-07 0)
(-0.000101834 -9.21795e-07 0)
(-0.000101093 -1.25113e-06 0)
(-9.99883e-05 -2.12777e-06 0)
(-9.75195e-05 -4.20304e-06 0)
(-9.35645e-05 -6.31319e-06 0)
(-8.97714e-05 -1.02612e-05 0)
(-8.58954e-05 -1.38116e-05 0)
(-8.03283e-05 -1.86306e-05 0)
(-7.23651e-05 -2.45868e-05 0)
(-6.14382e-05 -3.11706e-05 0)
(-4.72555e-05 -3.76695e-05 0)
(-2.99355e-05 -4.30602e-05 0)
(-1.02698e-05 -4.61508e-05 0)
(1.02698e-05 -4.61508e-05 0)
(2.99355e-05 -4.30602e-05 0)
(4.72555e-05 -3.76695e-05 0)
(6.14382e-05 -3.11706e-05 0)
(7.23651e-05 -2.45868e-05 0)
(8.03283e-05 -1.86306e-05 0)
(8.58954e-05 -1.38116e-05 0)
(8.97714e-05 -1.02612e-05 0)
(9.35645e-05 -6.31319e-06 0)
(9.75195e-05 -4.20304e-06 0)
(9.99883e-05 -2.12777e-06 0)
(0.000101093 -1.25113e-06 0)
(0.000101834 -9.21795e-07 0)
(0.000102209 -5.1982e-07 0)
(0.000102494 -8.91994e-07 0)
(0.000103397 -1.64505e-06 0)
(0.00010532 -2.40818e-06 0)
(0.000106858 -1.08593e-06 0)
(0.000107426 -5.25664e-07 0)
(0.000105649 2.15723e-06 0)
(0.000103586 -1.05085e-06 0)
(0.000105988 -4.66045e-06 0)
(0.00010615 -6.1319e-07 0)
(9.93353e-05 -6.12074e-07 0)
(4.73984e-05 8.46506e-07 0)
(2.32545e-08 -7.57226e-16 0)
(4.37601e-20 -9.85412e-16 0)
(1.18447e-19 -9.87767e-16 0)
(5.23758e-20 -9.87604e-16 0)
(1.53523e-19 -9.87596e-16 0)
(1.91766e-19 -9.8771e-16 0)
(1.98698e-19 -9.87716e-16 0)
(1.98508e-19 -9.87811e-16 0)
(1.55493e-19 -9.87846e-16 0)
(1.19764e-19 -9.87861e-16 0)
(9.12543e-20 -9.87869e-16 0)
(6.73912e-20 -9.87874e-16 0)
(4.64297e-20 -9.87876e-16 0)
(2.72281e-20 -9.87878e-16 0)
(8.97594e-21 -9.87879e-16 0)
(-8.85362e-21 -9.87873e-16 0)
(-2.68388e-20 -9.87872e-16 0)
(-4.56959e-20 -9.8787e-16 0)
(-6.61408e-20 -9.87867e-16 0)
(-8.91124e-20 -9.87862e-16 0)
(-1.15841e-19 -9.87852e-16 0)
(-1.47414e-19 -9.87835e-16 0)
(-1.80424e-19 -9.87799e-16 0)
(-1.83374e-19 -9.87727e-16 0)
(-1.74627e-19 -9.87704e-16 0)
(-1.40054e-19 -9.87624e-16 0)
(-7.11359e-20 -9.87627e-16 0)
(-9.95191e-20 -9.87714e-16 0)
(-5.08423e-20 -9.87529e-16 0)
(-4.96439e-20 -9.87745e-16 0)
(1.33439e-20 -9.85507e-16 0)
(-3.80482e-10 -7.59865e-16 0)
(-3.36001e-05 -1.05716e-07 0)
(-7.98085e-05 -2.7319e-06 0)
(-9.51887e-05 -5.55432e-07 0)
(-0.000101933 3.86102e-06 0)
(-0.000105549 -8.30592e-07 0)
(-0.000105272 -1.21046e-06 0)
(-0.000103803 -3.33779e-06 0)
(-0.000101679 -2.07112e-06 0)
(-0.000100961 -1.0538e-06 0)
(-0.00010095 -5.26928e-07 0)
(-0.00010074 -1.1678e-06 0)
(-0.00010011 -1.4964e-06 0)
(-9.93526e-05 -2.51761e-06 0)
(-9.71203e-05 -5.32244e-06 0)
(-9.37798e-05 -7.49527e-06 0)
(-9.10709e-05 -1.21739e-05 0)
(-8.82106e-05 -1.65981e-05 0)
(-8.36984e-05 -2.28614e-05 0)
(-7.6563e-05 -3.08636e-05 0)
(-6.60123e-05 -3.98425e-05 0)
(-5.15503e-05 -4.89411e-05 0)
(-3.30662e-05 -5.67291e-05 0)
(-1.1422e-05 -6.12694e-05 0)
(1.1422e-05 -6.12694e-05 0)
(3.30662e-05 -5.67291e-05 0)
(5.15503e-05 -4.89411e-05 0)
(6.60123e-05 -3.98425e-05 0)
(7.6563e-05 -3.08636e-05 0)
(8.36984e-05 -2.28614e-05 0)
(8.82106e-05 -1.65981e-05 0)
(9.10709e-05 -1.21739e-05 0)
(9.37798e-05 -7.49527e-06 0)
(9.71203e-05 -5.32244e-06 0)
(9.93526e-05 -2.51761e-06 0)
(0.00010011 -1.4964e-06 0)
(0.00010074 -1.1678e-06 0)
(0.00010095 -5.26928e-07 0)
(0.000100961 -1.0538e-06 0)
(0.000101679 -2.07112e-06 0)
(0.000103803 -3.33779e-06 0)
(0.000105272 -1.21046e-06 0)
(0.000105549 -8.30592e-07 0)
(0.000101933 3.86102e-06 0)
(9.51887e-05 -5.55432e-07 0)
(7.98085e-05 -2.7319e-06 0)
(3.36001e-05 -1.05716e-07 0)
(3.80482e-10 -7.59865e-16 0)
(-1.33439e-20 -9.85507e-16 0)
(4.96439e-20 -9.87745e-16 0)
(5.08423e-20 -9.87529e-16 0)
(9.95191e-20 -9.87714e-16 0)
(7.11359e-20 -9.87627e-16 0)
(1.40054e-19 -9.87624e-16 0)
(1.74627e-19 -9.87704e-16 0)
(1.83374e-19 -9.87727e-16 0)
(1.80424e-19 -9.87799e-16 0)
(1.47414e-19 -9.87835e-16 0)
(1.15841e-19 -9.87852e-16 0)
(8.91124e-20 -9.87862e-16 0)
(6.61408e-20 -9.87867e-16 0)
(4.56959e-20 -9.8787e-16 0)
(2.68388e-20 -9.87872e-16 0)
(8.85362e-21 -9.87873e-16 0)
(-8.68911e-21 -9.87867e-16 0)
(-2.63166e-20 -9.87866e-16 0)
(-4.47177e-20 -9.87864e-16 0)
(-6.44936e-20 -9.8786e-16 0)
(-8.63529e-20 -9.87853e-16 0)
(-1.1101e-19 -9.87843e-16 0)
(-1.38396e-19 -9.87824e-16 0)
(-1.63869e-19 -9.8779e-16 0)
(-1.67844e-19 -9.87734e-16 0)
(-1.58648e-19 -9.87703e-16 0)
(-1.29029e-19 -9.87646e-16 0)
(-8.10914e-20 -9.87644e-16 0)
(-8.71705e-20 -9.87686e-16 0)
(-5.34297e-20 -9.87585e-16 0)
(-4.13807e-20 -9.87694e-16 0)
(3.57661e-21 -9.87548e-16 0)
(1.96466e-20 -9.87741e-16 0)
(4.49048e-20 -9.87275e-16 0)
(-1.51042e-18 -8.26518e-16 0)
(-2.25323e-06 -1.8158e-14 0)
(-4.78294e-05 2.49717e-06 0)
(-9.4352e-05 -5.08224e-07 0)
(-9.99857e-05 -6.14948e-07 0)
(-0.000100887 -4.52763e-06 0)
(-9.91632e-05 -2.41253e-06 0)
(-9.90681e-05 -1.1294e-06 0)
(-9.96105e-05 -3.79329e-07 0)
(-9.96817e-05 -1.45601e-06 0)
(-9.91776e-05 -1.6772e-06 0)
(-9.89634e-05 -2.73682e-06 0)
(-9.69535e-05 -6.60959e-06 0)
(-9.42834e-05 -8.30209e-06 0)
(-9.30962e-05 -1.33826e-05 0)
(-9.17704e-05 -1.85888e-05 0)
(-8.89313e-05 -2.64739e-05 0)
(-8.31197e-05 -3.71256e-05 0)
(-7.32351e-05 -4.91779e-05 0)
(-5.85096e-05 -6.18981e-05 0)
(-3.82591e-05 -7.33846e-05 0)
(-1.33527e-05 -8.02285e-05 0)
(1.33527e-05 -8.02285e-05 0)
(3.82591e-05 -7.33846e-05 0)
(5.85096e-05 -6.18981e-05 0)
(7.32351e-05 -4.91779e-05 0)
(8.31197e-05 -3.71256e-05 0)
(8.89313e-05 -2.64739e-05 0)
(9.17704e-05 -1.85888e-05 0)
(9.30962e-05 -1.33826e-05 0)
(9.42834e-05 -8.30209e-06 0)
(9.69535e-05 -6.60959e-06 0)
(9.89634e-05 -2.73682e-06 0)
(9.91776e-05 -1.6772e-06 0)
(9.96817e-05 -1.45601e-06 0)
(9.96105e-05 -3.79329e-07 0)
(9.90681e-05 -1.1294e-06 0)
(9.91632e-05 -2.41253e-06 0)
(0.000100887 -4.52763e-06 0)
(9.99857e-05 -6.14948e-07 0)
(9.4352e-05 -5.08224e-07 0)
(4.78294e-05 2.49717e-06 0)
(2.25323e-06 -1.8158e-14 0)
(1.51042e-18 -8.26518e-16 0)
(-4.49048e-20 -9.87275e-16 0)
(-1.96466e-20 -9.87741e-16 0)
(-3.57661e-21 -9.87548e-16 0)
(4.13807e-20 -9.87694e-16 0)
(5.34297e-20 -9.87585e-16 0)
(8.71705e-20 -9.87686e-16 0)
(8.10914e-20 -9.87644e-16 0)
(1.29029e-19 -9.87646e-16 0)
(1.58648e-19 -9.87703e-16 0)
(1.67844e-19 -9.87734e-16 0)
(1.63869e-19 -9.8779e-16 0)
(1.38396e-19 -9.87824e-16 0)
(1.1101e-19 -9.87843e-16 0)
(8.63529e-20 -9.87853e-16 0)
(6.44936e-20 -9.8786e-16 0)
(4.47177e-20 -9.87864e-16 0)
(2.63166e-20 -9.87866e-16 0)
(8.68911e-21 -9.87867e-16 0)
(-8.47595e-21 -9.87861e-16 0)
(-2.56422e-20 -9.8786e-16 0)
(-4.34643e-20 -9.87857e-16 0)
(-6.24133e-20 -9.87853e-16 0)
(-8.29588e-20 -9.87845e-16 0)
(-1.05352e-19 -9.87834e-16 0)
(-1.28757e-19 -9.87814e-16 0)
(-1.48534e-19 -9.87783e-16 0)
(-1.5254e-19 -9.87738e-16 0)
(-1.43804e-19 -9.87705e-16 0)
(-1.19343e-19 -9.87664e-16 0)
(-8.49175e-20 -9.87657e-16 0)
(-7.88552e-20 -9.87674e-16 0)
(-5.34191e-20 -9.8762e-16 0)
(-3.6639e-20 -9.8767e-16 0)
(-3.343e-21 -9.87601e-16 0)
(1.41137e-20 -9.87701e-16 0)
(3.1362e-20 -9.8763e-16 0)
(2.76093e-20 -9.87766e-16 0)
(-1.0308e-19 -9.87757e-16 0)
(3.54256e-20 -9.59674e-16 0)
(-2.3682e-16 -7.7994e-16 0)
(-8.93042e-06 -8.96516e-12 0)
(-4.95892e-05 -2.59205e-06 0)
(-8.60878e-05 -1.27031e-06 0)
(-9.29282e-05 -5.67609e-07 0)
(-9.66408e-05 2.5523e-07 0)
(-9.80101e-05 -1.78278e-06 0)
(-9.79287e-05 -1.71178e-06 0)
(-9.87568e-05 -2.57087e-06 0)
(-9.69207e-05 -8.29605e-06 0)
(-9.48163e-05 -8.46444e-06 0)
(-9.57415e-05 -1.32885e-05 0)
(-9.67519e-05 -1.89355e-05 0)
(-9.66971e-05 -2.85144e-05 0)
(-9.3047e-05 -4.29789e-05 0)
(-8.43843e-05 -5.884e-05 0)
(-6.98106e-05 -7.67699e-05 0)
(-4.70413e-05 -9.46052e-05 0)
(-1.66624e-05 -0.000105455 0)
(1.66624e-05 -0.000105455 0)
(4.70413e-05 -9.46052e-05 0)
(6.98106e-05 -7.67699e-05 0)
(8.43843e-05 -5.884e-05 0)
(9.3047e-05 -4.29789e-05 0)
(9.66971e-05 -2.85144e-05 0)
(9.67519e-05 -1.89355e-05 0)
(9.57415e-05 -1.32885e-05 0)
(9.48163e-05 -8.46444e-06 0)
(9.69207e-05 -8.29605e-06 0)
(9.87568e-05 -2.57087e-06 0)
(9.79287e-05 -1.71178e-06 0)
(9.80101e-05 -1.78278e-06 0)
(9.66408e-05 2.5523e-07 0)
(9.29282e-05 -5.67609e-07 0)
(8.60878e-05 -1.27031e-06 0)
(4.95892e-05 -2.59205e-06 0)
(8.93042e-06 -8.96516e-12 0)
(2.3682e-16 -7.7994e-16 0)
(-3.54256e-20 -9.59674e-16 0)
(1.0308e-19 -9.87757e-16 0)
(-2.76093e-20 -9.87766e-16 0)
(-3.1362e-20 -9.8763e-16 0)
(-1.41137e-20 -9.87701e-16 0)
(3.343e-21 -9.87601e-16 0)
(3.6639e-20 -9.8767e-16 0)
(5.34191e-20 -9.8762e-16 0)
(7.88552e-20 -9.87674e-16 0)
(8.49175e-20 -9.87657e-16 0)
(1.19343e-19 -9.87664e-16 0)
(1.43804e-19 -9.87705e-16 0)
(1.5254e-19 -9.87738e-16 0)
(1.48534e-19 -9.87783e-16 0)
(1.28757e-19 -9.87814e-16 0)
(1.05352e-19 -9.87834e-16 0)
(8.29588e-20 -9.87845e-16 0)
(6.24133e-20 -9.87853e-16 0)
(4.34643e-20 -9.87857e-16 0)
(2.56422e-20 -9.8786e-16 0)
(8.47595e-21 -9.87861e-16 0)
(-8.20829e-21 -9.87854e-16 0)
(-2.47989e-20 -9.87853e-16 0)
(-4.19114e-20 -9.8785e-16 0)
(-5.98794e-20 -9.87845e-16 0)
(-7.89442e-20 -9.87837e-16 0)
(-9.89866e-20 -9.87825e-16 0)
(-1.18757e-19 -9.87806e-16 0)
(-1.34205e-19 -9.87777e-16 0)
(-1.37767e-19 -9.8774e-16 0)
(-1.30008e-19 -9.8771e-16 0)
(-1.10292e-19 -9.87678e-16 0)
(-8.46333e-20 -9.87668e-16 0)
(-7.27955e-20 -9.8767e-16 0)
(-5.20399e-20 -9.87642e-16 0)
(-3.40473e-20 -9.87662e-16 0)
(-8.43033e-21 -9.87632e-16 0)
(8.07795e-21 -9.87684e-16 0)
(1.98257e-20 -9.8766e-16 0)
(1.16962e-20 -9.87732e-16 0)
(-5.19598e-20 -9.87714e-16 0)
(2.62426e-20 -9.87541e-16 0)
(7.95723e-20 -9.87749e-16 0)
(1.11568e-20 -9.87705e-16 0)
(7.75741e-20 -9.26706e-16 0)
(6.06898e-20 -7.81328e-16 0)
(-1.95743e-07 -8.6376e-16 0)
(-3.99349e-05 3.8152e-07 0)
(-8.36645e-05 -9.75588e-07 0)
(-9.05017e-05 -8.387e-07 0)
(-9.62817e-05 -1.17836e-06 0)
(-9.58893e-05 -1.08628e-05 0)
(-9.43771e-05 -7.53521e-06 0)
(-9.83639e-05 -1.09634e-05 0)
(-0.00010297 -1.60728e-05 0)
(-0.000108019 -2.66874e-05 0)
(-0.000107881 -4.82218e-05 0)
(-0.000101277 -6.75844e-05 0)
(-8.86951e-05 -9.29021e-05 0)
(-6.27118e-05 -0.000123347 0)
(-2.26325e-05 -0.000141738 0)
(2.26325e-05 -0.000141738 0)
(6.27118e-05 -0.000123347 0)
(8.86951e-05 -9.29021e-05 0)
(0.000101277 -6.75844e-05 0)
(0.000107881 -4.82218e-05 0)
(0.000108019 -2.66874e-05 0)
(0.00010297 -1.60728e-05 0)
(9.83639e-05 -1.09634e-05 0)
(9.43771e-05 -7.53521e-06 0)
(9.58893e-05 -1.08628e-05 0)
(9.62817e-05 -1.17836e-06 0)
(9.05017e-05 -8.387e-07 0)
(8.36645e-05 -9.75588e-07 0)
(3.99349e-05 3.8152e-07 0)
(1.95743e-07 -8.6376e-16 0)
(-6.06898e-20 -7.81328e-16 0)
(-7.75741e-20 -9.26706e-16 0)
(-1.11568e-20 -9.87705e-16 0)
(-7.95723e-20 -9.87749e-16 0)
(-2.62426e-20 -9.87541e-16 0)
(5.19598e-20 -9.87714e-16 0)
(-1.16962e-20 -9.87732e-16 0)
(-1.98257e-20 -9.8766e-16 0)
(-8.07795e-21 -9.87684e-16 0)
(8.43033e-21 -9.87632e-16 0)
(3.40473e-20 -9.87662e-16 0)
(5.20399e-20 -9.87642e-16 0)
(7.27955e-20 -9.8767e-16 0)
(8.46333e-20 -9.87668e-16 0)
(1.10292e-19 -9.87678e-16 0)
(1.30008e-19 -9.8771e-16 0)
(1.37767e-19 -9.8774e-16 0)
(1.34205e-19 -9.87777e-16 0)
(1.18757e-19 -9.87806e-16 0)
(9.89866e-20 -9.87825e-16 0)
(7.89442e-20 -9.87837e-16 0)
(5.98794e-20 -9.87845e-16 0)
(4.19114e-20 -9.8785e-16 0)
(2.47989e-20 -9.87853e-16 0)
(8.20829e-21 -9.87854e-16 0)
(-7.88165e-21 -9.87847e-16 0)
(-2.37747e-20 -9.87845e-16 0)
(-4.00456e-20 -9.87842e-16 0)
(-5.68918e-20 -9.87837e-16 0)
(-7.43551e-20 -9.87829e-16 0)
(-9.20566e-20 -9.87816e-16 0)
(-1.08611e-19 -9.87798e-16 0)
(-1.20748e-19 -9.87773e-16 0)
(-1.23715e-19 -9.87742e-16 0)
(-1.17147e-19 -9.87714e-16 0)
(-1.01495e-19 -9.87689e-16 0)
(-8.1695e-20 -9.87677e-16 0)
(-6.7844e-20 -9.87673e-16 0)
(-5.00022e-20 -9.87656e-16 0)
(-3.26536e-20 -9.87663e-16 0)
(-1.22791e-20 -9.87652e-16 0)
(2.36255e-21 -9.87678e-16 0)
(1.09502e-20 -9.87674e-16 0)
(4.79517e-21 -9.87711e-16 0)
(-2.28508e-20 -9.87695e-16 0)
(2.08975e-20 -9.87614e-16 0)
(5.31998e-20 -9.87714e-16 0)
(2.63738e-20 -9.87704e-16 0)
(5.60364e-20 -9.87672e-16 0)
(4.2007e-20 -9.8778e-16 0)
(-6.32863e-20 -9.8776e-16 0)
(6.94488e-20 -9.82275e-16 0)
(1.70909e-19 -8.44531e-16 0)
(-8.51987e-13 -7.11105e-16 0)
(-1.39079e-05 -1.34076e-09 0)
(-4.9948e-05 -6.22218e-06 0)
(-8.03819e-05 -3.36299e-06 0)
(-9.32338e-05 -4.55149e-06 0)
(-0.000104409 -6.79241e-06 0)
(-0.000122005 -1.29955e-05 0)
(-0.000128265 -5.57451e-05 0)
(-0.000124393 -7.06585e-05 0)
(-0.000121694 -0.000104862 0)
(-9.31654e-05 -0.00016638 0)
(-3.40873e-05 -0.000199297 0)
(3.40873e-05 -0.000199297 0)
(9.31654e-05 -0.00016638 0)
(0.000121694 -0.000104862 0)
(0.000124393 -7.06585e-05 0)
(0.000128265 -5.57451e-05 0)
(0.000122005 -1.29955e-05 0)
(0.000104409 -6.79241e-06 0)
(9.32338e-05 -4.55149e-06 0)
(8.03819e-05 -3.36299e-06 0)
(4.9948e-05 -6.22218e-06 0)
(1.39079e-05 -1.34076e-09 0)
(8.51987e-13 -7.11105e-16 0)
(-1.70909e-19 -8.44531e-16 0)
(-6.94488e-20 -9.82275e-16 0)
(6.32863e-20 -9.8776e-16 0)
(-4.2007e-20 -9.8778e-16 0)
(-5.60364e-20 -9.87672e-16 0)
(-2.63738e-20 -9.87704e-16 0)
(-5.31998e-20 -9.87714e-16 0)
(-2.08975e-20 -9.87614e-16 0)
(2.28508e-20 -9.87695e-16 0)
(-4.79517e-21 -9.87711e-16 0)
(-1.09502e-20 -9.87674e-16 0)
(-2.36255e-21 -9.87678e-16 0)
(1.22791e-20 -9.87652e-16 0)
(3.26536e-20 -9.87663e-16 0)
(5.00022e-20 -9.87656e-16 0)
(6.7844e-20 -9.87673e-16 0)
(8.1695e-20 -9.87677e-16 0)
(1.01495e-19 -9.87689e-16 0)
(1.17147e-19 -9.87714e-16 0)
(1.23715e-19 -9.87742e-16 0)
(1.20748e-19 -9.87773e-16 0)
(1.08611e-19 -9.87798e-16 0)
(9.20566e-20 -9.87816e-16 0)
(7.43551e-20 -9.87829e-16 0)
(5.68918e-20 -9.87837e-16 0)
(4.00456e-20 -9.87842e-16 0)
(2.37747e-20 -9.87845e-16 0)
(7.88165e-21 -9.87847e-16 0)
(-7.49371e-21 -9.87839e-16 0)
(-2.2565e-20 -9.87838e-16 0)
(-3.78677e-20 -9.87834e-16 0)
(-5.34737e-20 -9.87829e-16 0)
(-6.92672e-20 -9.8782e-16 0)
(-8.47178e-20 -9.87808e-16 0)
(-9.84922e-20 -9.87791e-16 0)
(-1.08085e-19 -9.87769e-16 0)
(-1.10482e-19 -9.87743e-16 0)
(-1.05119e-19 -9.87719e-16 0)
(-9.27942e-20 -9.87698e-16 0)
(-7.7112e-20 -9.87685e-16 0)
(-6.33254e-20 -9.87678e-16 0)
(-4.76543e-20 -9.87668e-16 0)
(-3.18168e-20 -9.87668e-16 0)
(-1.51899e-20 -9.87665e-16 0)
(-2.52207e-21 -9.87678e-16 0)
(4.58595e-21 -9.87682e-16 0)
(2.1396e-21 -9.87699e-16 0)
(-7.24661e-21 -9.87689e-16 0)
(1.76517e-20 -9.87653e-16 0)
(3.77928e-20 -9.877e-16 0)
(3.01489e-20 -9.87702e-16 0)
(4.24028e-20 -9.87695e-16 0)
(3.08564e-20 -9.87745e-16 0)
(-1.24148e-20 -9.87724e-16 0)
(5.67429e-20 -9.87595e-16 0)
(1.07926e-19 -9.87767e-16 0)
(3.37022e-20 -9.87788e-16 0)
(4.21635e-20 -9.87656e-16 0)
(8.29131e-20 -9.2483e-16 0)
(1.99664e-20 -8.16911e-16 0)
(-8.56872e-20 -7.28938e-16 0)
(-4.00902e-09 -6.79791e-16 0)
(-1.42335e-05 -7.97822e-07 0)
(-5.66705e-05 -3.03953e-05 0)
(-0.00011565 -3.49158e-05 0)
(-0.000172607 -7.86452e-05 0)
(-0.000154896 -0.000243351 0)
(-5.54984e-05 -0.000299167 0)
(5.54984e-05 -0.000299167 0)
(0.000154896 -0.000243351 0)
(0.000172607 -7.86452e-05 0)
(0.00011565 -3.49158e-05 0)
(5.66705e-05 -3.03953e-05 0)
(1.42335e-05 -7.97822e-07 0)
(4.00902e-09 -6.79791e-16 0)
(8.56872e-20 -7.28938e-16 0)
(-1.99664e-20 -8.16911e-16 0)
(-8.29131e-20 -9.2483e-16 0)
(-4.21635e-20 -9.87656e-16 0)
(-3.37022e-20 -9.87788e-16 0)
(-1.07926e-19 -9.87767e-16 0)
(-5.67429e-20 -9.87595e-16 0)
(1.24148e-20 -9.87724e-16 0)
(-3.08564e-20 -9.87745e-16 0)
(-4.24028e-20 -9.87695e-16 0)
(-3.01489e-20 -9.87702e-16 0)
(-3.77928e-20 -9.877e-16 0)
(-1.76517e-20 -9.87653e-16 0)
(7.24661e-21 -9.87689e-16 0)
(-2.1396e-21 -9.87699e-16 0)
(-4.58595e-21 -9.87682e-16 0)
(2.52207e-21 -9.87678e-16 0)
(1.51899e-20 -9.87665e-16 0)
(3.18168e-20 -9.87668e-16 0)
(4.76543e-20 -9.87668e-16 0)
(6.33254e-20 -9.87678e-16 0)
(7.7112e-20 -9.87685e-16 0)
(9.27942e-20 -9.87698e-16 0)
(1.05119e-19 -9.87719e-16 0)
(1.10482e-19 -9.87743e-16 0)
(1.08085e-19 -9.87769e-16 0)
(9.84922e-20 -9.87791e-16 0)
(8.47178e-20 -9.87808e-16 0)
(6.92672e-20 -9.8782e-16 0)
(5.34737e-20 -9.87829e-16 0)
(3.78677e-20 -9.87834e-16 0)
(2.2565e-20 -9.87838e-16 0)
(7.49371e-21 -9.87839e-16 0)
(-7.04515e-21 -9.87832e-16 0)
(-2.11744e-20 -9.8783e-16 0)
(-3.53955e-20 -9.87826e-16 0)
(-4.96732e-20 -9.87821e-16 0)
(-6.37809e-20 -9.87812e-16 0)
(-7.71296e-20 -9.87801e-16 0)
(-8.85438e-20 -9.87785e-16 0)
(-9.61758e-20 -9.87766e-16 0)
(-9.81021e-20 -9.87744e-16 0)
(-9.38402e-20 -9.87723e-16 0)
(-8.41746e-20 -9.87705e-16 0)
(-7.15638e-20 -9.87693e-16 0)
(-5.88877e-20 -9.87684e-16 0)
(-4.51249e-20 -9.87677e-16 0)
(-3.11162e-20 -9.87675e-16 0)
(-1.72935e-20 -9.87674e-16 0)
(-6.35039e-21 -9.87681e-16 0)
(2.33494e-22 -9.87686e-16 0)
(1.13574e-21 -9.87694e-16 0)
(4.38238e-22 -9.87689e-16 0)
(1.54003e-20 -9.87675e-16 0)
(2.85365e-20 -9.87696e-16 0)
(2.88164e-20 -9.87702e-16 0)
(3.39957e-20 -9.87704e-16 0)
(2.73523e-20 -9.87727e-16 0)
(1.2458e-20 -9.87712e-16 0)
(4.77507e-20 -9.87662e-16 0)
(7.33396e-20 -9.8774e-16 0)
(4.2763e-20 -9.87759e-16 0)
(4.30477e-20 -9.87724e-16 0)
(5.50957e-20 -9.87763e-16 0)
(1.88718e-20 -9.878e-16 0)
(-2.06944e-20 -9.87772e-16 0)
(-1.56488e-20 -9.8772e-16 0)
(4.44864e-20 -9.87246e-16 0)
(5.87386e-20 -9.62338e-16 0)
(-3.32985e-08 -2.07238e-14 0)
(-1.86384e-05 -2.7231e-05 0)
(-6.91837e-05 -0.000254145 0)
(-5.05787e-05 -0.000427283 0)
(5.05787e-05 -0.000427283 0)
(6.91837e-05 -0.000254145 0)
(1.86384e-05 -2.7231e-05 0)
(3.32985e-08 -2.07238e-14 0)
(-5.87386e-20 -9.62338e-16 0)
(-4.44864e-20 -9.87246e-16 0)
(1.56488e-20 -9.8772e-16 0)
(2.06944e-20 -9.87772e-16 0)
(-1.88718e-20 -9.878e-16 0)
(-5.50957e-20 -9.87763e-16 0)
(-4.30477e-20 -9.87724e-16 0)
(-4.2763e-20 -9.87759e-16 0)
(-7.33396e-20 -9.8774e-16 0)
(-4.77507e-20 -9.87662e-16 0)
(-1.2458e-20 -9.87712e-16 0)
(-2.73523e-20 -9.87727e-16 0)
(-3.39957e-20 -9.87704e-16 0)
(-2.88164e-20 -9.87702e-16 0)
(-2.85365e-20 -9.87696e-16 0)
(-1.54003e-20 -9.87675e-16 0)
(-4.38238e-22 -9.87689e-16 0)
(-1.13574e-21 -9.87694e-16 0)
(-2.33493e-22 -9.87686e-16 0)
(6.35039e-21 -9.87681e-16 0)
(1.72935e-20 -9.87674e-16 0)
(3.11162e-20 -9.87675e-16 0)
(4.51249e-20 -9.87677e-16 0)
(5.88877e-20 -9.87684e-16 0)
(7.15638e-20 -9.87693e-16 0)
(8.41746e-20 -9.87705e-16 0)
(9.38402e-20 -9.87723e-16 0)
(9.81021e-20 -9.87744e-16 0)
(9.61758e-20 -9.87766e-16 0)
(8.85438e-20 -9.87785e-16 0)
(7.71296e-20 -9.87801e-16 0)
(6.37809e-20 -9.87812e-16 0)
(4.96732e-20 -9.87821e-16 0)
(3.53955e-20 -9.87826e-16 0)
(2.11744e-20 -9.8783e-16 0)
(7.04515e-21 -9.87832e-16 0)
(-6.54027e-21 -9.87824e-16 0)
(-1.96189e-20 -9.87822e-16 0)
(-3.26651e-20 -9.87818e-16 0)
(-4.55609e-20 -9.87813e-16 0)
(-5.80145e-20 -9.87805e-16 0)
(-6.94467e-20 -9.87794e-16 0)
(-7.88836e-20 -9.8778e-16 0)
(-8.50011e-20 -9.87763e-16 0)
(-8.65715e-20 -9.87745e-16 0)
(-8.32578e-20 -9.87727e-16 0)
(-7.56949e-20 -9.87711e-16 0)
(-6.55001e-20 -9.877e-16 0)
(-5.43799e-20 -9.87691e-16 0)
(-4.24319e-20 -9.87685e-16 0)
(-3.02861e-20 -9.87682e-16 0)
(-1.86479e-20 -9.87682e-16 0)
(-9.10694e-21 -9.87686e-16 0)
(-2.66034e-21 -9.87689e-16 0)
(5.64035e-22 -9.87694e-16 0)
(3.68543e-21 -9.87691e-16 0)
(1.3535e-20 -9.87687e-16 0)
(2.2638e-20 -9.87697e-16 0)
(2.57338e-20 -9.87703e-16 0)
(2.86866e-20 -9.87707e-16 0)
(2.62391e-20 -9.87718e-16 0)
(2.31323e-20 -9.87711e-16 0)
(4.10988e-20 -9.87694e-16 0)
(5.3989e-20 -9.8773e-16 0)
(4.24892e-20 -9.87745e-16 0)
(4.01251e-20 -9.87737e-16 0)
(4.05581e-20 -9.87757e-16 0)
(2.09801e-20 -9.87774e-16 0)
(4.19177e-21 -9.87758e-16 0)
(6.75108e-21 -9.87743e-16 0)
(1.88792e-20 -9.87738e-16 0)
(2.00211e-20 -9.87767e-16 0)
(-5.55632e-11 -1.65859e-15 0)
(-1.0984e-07 -5.5247e-06 0)
(-7.26523e-06 -0.000204454 0)
(-7.15544e-06 -0.000501516 0)
(7.15544e-06 -0.000501516 0)
(7.26523e-06 -0.000204454 0)
(1.0984e-07 -5.5247e-06 0)
(5.55632e-11 -1.65859e-15 0)