/*--------------------------------*- C++ -*----------------------------------*\
  =========                 |
  \\      /  F ield         | OpenFOAM: The Open Source CFD Toolbox
   \\    /   O peration     | Website:  https://openfoam.org
    \\  /    A nd           | Version:  10
     \\/     M anipulation  |
\*---------------------------------------------------------------------------*/
FoamFile
{
    format      ascii;
    class       volVectorField;
    location    "17250";
    object      Ua;
}
// * * * * * * * * * * * * * * * * * * * * * * * * * * * * * * * * * * * * * //

dimensions      [0 1 -1 0 0 0 0];

internalField   nonuniform List<vector> 
3200
(
(-4.26182e-07 6.15478e-07 0)
(-1.28093e-06 6.30024e-07 0)
(-2.15045e-06 6.59848e-07 0)
(-3.05573e-06 7.0728e-07 0)
(-4.02094e-06 7.76667e-07 0)
(-5.07638e-06 8.75283e-07 0)
(-6.26268e-06 1.01504e-06 0)
(-7.63773e-06 1.21564e-06 0)
(-9.28835e-06 1.51054e-06 0)
(-1.13513e-05 1.95835e-06 0)
(-1.4052e-05 2.66537e-06 0)
(-1.77788e-05 3.83109e-06 0)
(-2.32286e-05 5.84174e-06 0)
(-3.16993e-05 9.46616e-06 0)
(-4.56864e-05 1.62704e-05 0)
(-4.23278e-05 2.66636e-05 0)
(-1.67564e-05 6.74561e-05 0)
(-2.39911e-06 1.15998e-05 0)
(-1.15745e-06 5.95599e-06 0)
(-6.96073e-07 3.80038e-06 0)
(-4.64351e-07 2.67728e-06 0)
(-3.30514e-07 2.00328e-06 0)
(-2.46308e-07 1.5632e-06 0)
(-1.9006e-07 1.25871e-06 0)
(-1.50758e-07 1.03879e-06 0)
(-1.22305e-07 8.74534e-07 0)
(-1.01102e-07 7.48485e-07 0)
(-8.49166e-08 6.49558e-07 0)
(-7.2304e-08 5.70427e-07 0)
(-6.23004e-08 5.06073e-07 0)
(-5.4302e-08 4.52748e-07 0)
(-4.69875e-08 4.00796e-07 0)
(-4.02357e-08 3.59488e-07 0)
(-3.48118e-08 3.26005e-07 0)
(-3.02352e-08 2.9802e-07 0)
(-2.60231e-08 2.73677e-07 0)
(-2.17607e-08 2.51506e-07 0)
(-1.70494e-08 2.30487e-07 0)
(-1.13821e-08 2.09677e-07 0)
(-4.29941e-09 1.86183e-07 0)
(-4.04989e-07 1.81583e-06 0)
(-1.21551e-06 1.8562e-06 0)
(-2.03461e-06 1.93858e-06 0)
(-2.87748e-06 2.06849e-06 0)
(-3.76004e-06 2.25614e-06 0)
(-4.69956e-06 2.51808e-06 0)
(-5.71497e-06 2.88023e-06 0)
(-6.82598e-06 3.38291e-06 0)
(-8.04961e-06 4.08951e-06 0)
(-9.3903e-06 5.10111e-06 0)
(-1.08143e-05 6.58162e-06 0)
(-1.21879e-05 8.80089e-06 0)
(-1.31304e-05 1.22091e-05 0)
(-1.26725e-05 1.75641e-05 0)
(-8.46832e-06 2.61467e-05 0)
(3.49569e-06 3.7272e-05 0)
(1.21074e-05 1.59204e-05 0)
(1.02786e-05 7.25221e-06 0)
(6.86338e-06 5.34942e-06 0)
(4.17235e-06 4.29424e-06 0)
(1.91388e-06 3.67874e-06 0)
(-1.36556e-07 3.3483e-06 0)
(-2.14851e-06 3.23979e-06 0)
(-4.27583e-06 3.34406e-06 0)
(-6.69194e-06 3.69881e-06 0)
(-9.62933e-06 4.39918e-06 0)
(-1.34358e-05 5.62777e-06 0)
(-1.86649e-05 7.71396e-06 0)
(-2.6231e-05 1.12433e-05 0)
(-3.76624e-05 1.72553e-05 0)
(-2.54846e-05 1.36597e-05 0)
(-4.24822e-06 1.54546e-06 0)
(-1.66174e-06 1.05248e-06 0)
(-1.00614e-06 8.94136e-07 0)
(-6.80247e-07 7.73682e-07 0)
(-4.82171e-07 6.66029e-07 0)
(-3.46215e-07 5.63073e-07 0)
(-2.40443e-07 4.58243e-07 0)
(-1.42847e-07 3.43646e-07 0)
(-4.73822e-08 2.24257e-07 0)
(-3.67358e-07 2.93122e-06 0)
(-1.09993e-06 2.98924e-06 0)
(-1.83215e-06 3.10665e-06 0)
(-2.57122e-06 3.28919e-06 0)
(-3.32279e-06 3.54738e-06 0)
(-4.08992e-06 3.89745e-06 0)
(-4.87118e-06 4.3628e-06 0)
(-5.65701e-06 4.97599e-06 0)
(-6.42334e-06 5.78079e-06 0)
(-7.1209e-06 6.83365e-06 0)
(-7.6583e-06 8.20159e-06 0)
(-7.87838e-06 9.95034e-06 0)
(-7.53359e-06 1.21075e-05 0)
(-6.28723e-06 1.45667e-05 0)
(-3.82891e-06 1.68578e-05 0)
(-3.56115e-07 1.76233e-05 0)
(2.32251e-06 1.42531e-05 0)
(3.04517e-06 1.11102e-05 0)
(2.61018e-06 9.07892e-06 0)
(1.69375e-06 7.80039e-06 0)
(5.8489e-07 7.0484e-06 0)
(-5.97116e-07 6.69838e-06 0)
(-1.80095e-06 6.69582e-06 0)
(-2.99288e-06 7.04024e-06 0)
(-4.12279e-06 7.78161e-06 0)
(-5.0859e-06 9.02743e-06 0)
(-5.66077e-06 1.09605e-05 0)
(-5.39579e-06 1.38699e-05 0)
(-3.39572e-06 1.81985e-05 0)
(2.07952e-06 2.46122e-05 0)
(8.70125e-06 2.01572e-05 0)
(9.97381e-06 6.3433e-06 0)
(7.32881e-06 4.78131e-06 0)
(5.17797e-06 3.96261e-06 0)
(3.38502e-06 3.44847e-06 0)
(1.78059e-06 3.14241e-06 0)
(2.28443e-07 3.01151e-06 0)
(-1.34507e-06 3.03382e-06 0)
(-1.22886e-06 7.27692e-07 0)
(-1.00435e-07 1.91572e-07 0)
(-3.20454e-07 3.92454e-06 0)
(-9.56843e-07 3.99057e-06 0)
(-1.5849e-06 4.1229e-06 0)
(-2.20512e-06 4.32526e-06 0)
(-2.81562e-06 4.60471e-06 0)
(-3.4109e-06 4.97154e-06 0)
(-3.98e-06 5.43904e-06 0)
(-4.50408e-06 6.0228e-06 0)
(-4.95327e-06 6.73882e-06 0)
(-5.2831e-06 7.59954e-06 0)
(-5.43202e-06 8.60591e-06 0)
(-5.32279e-06 9.73342e-06 0)
(-4.87406e-06 1.09099e-05 0)
(-4.03192e-06 1.19857e-05 0)
(-2.83201e-06 1.27094e-05 0)
(-1.48437e-06 1.27577e-05 0)
(-3.88498e-07 1.1962e-05 0)
(1.89586e-07 1.09013e-05 0)
(2.94648e-07 9.94771e-06 0)
(7.14774e-08 9.22291e-06 0)
(-3.49563e-07 8.75286e-06 0)
(-8.69623e-07 8.5335e-06 0)
(-1.412e-06 8.55622e-06 0)
(-1.90828e-06 8.81568e-06 0)
(-2.28553e-06 9.30878e-06 0)
(-2.45635e-06 1.00266e-05 0)
(-2.31464e-06 1.09365e-05 0)
(-1.74528e-06 1.19474e-05 0)
(-6.67567e-07 1.28444e-05 0)
(8.44445e-07 1.3167e-05 0)
(2.27444e-06 1.19893e-05 0)
(2.93818e-06 9.80622e-06 0)
(2.83457e-06 8.26648e-06 0)
(2.36873e-06 7.20831e-06 0)
(1.75516e-06 6.50435e-06 0)
(1.11124e-06 6.0801e-06 0)
(5.16452e-07 5.9002e-06 0)
(4.05238e-08 5.93243e-06 0)
(-1.1745e-07 1.62079e-06 0)
(9.26959e-09 6.24194e-08 0)
(-2.7114e-07 4.77889e-06 0)
(-8.07451e-07 4.84484e-06 0)
(-1.33038e-06 4.97568e-06 0)
(-1.83626e-06 5.17254e-06 0)
(-2.31949e-06 5.43816e-06 0)
(-2.77163e-06 5.77635e-06 0)
(-3.18049e-06 6.19106e-06 0)
(-3.5293e-06 6.68491e-06 0)
(-3.79621e-06 7.25698e-06 0)
(-3.95461e-06 7.89949e-06 0)
(-3.97537e-06 8.59328e-06 0)
(-3.83187e-06 9.30249e-06 0)
(-3.50937e-06 9.96996e-06 0)
(-3.01855e-06 1.05171e-05 0)
(-2.41003e-06 1.08549e-05 0)
(-1.77943e-06 1.09158e-05 0)
(-1.24483e-06 1.07078e-05 0)
(-8.88124e-07 1.03518e-05 0)
(-7.23457e-07 9.97065e-06 0)
(-7.20382e-07 9.64509e-06 0)
(-8.31115e-07 9.41888e-06 0)
(-1.00506e-06 9.31123e-06 0)
(-1.19395e-06 9.32593e-06 0)
(-1.35272e-06 9.45586e-06 0)
(-1.43936e-06 9.68345e-06 0)
(-1.41636e-06 9.9781e-06 0)
(-1.25524e-06 1.02916e-05 0)
(-9.45927e-07 1.05534e-05 0)
(-5.10866e-07 1.06699e-05 0)
(-2.02591e-08 1.05381e-05 0)
(4.07145e-07 1.00936e-05 0)
(6.60492e-07 9.43813e-06 0)
(7.13885e-07 8.76926e-06 0)
(6.11341e-07 8.17213e-06 0)
(4.10043e-07 7.6767e-06 0)
(1.61197e-07 7.28839e-06 0)
(-9.54341e-08 7.00172e-06 0)
(-3.34666e-07 6.80471e-06 0)
(-2.48009e-07 2.46217e-06 0)
(9.6814e-09 1.0633e-08 0)
(-2.24379e-07 5.49451e-06 0)
(-6.66705e-07 5.55505e-06 0)
(-1.09364e-06 5.67413e-06 0)
(-1.49972e-06 5.85071e-06 0)
(-1.87837e-06 6.08422e-06 0)
(-2.22146e-06 6.37389e-06 0)
(-2.5191e-06 6.71794e-06 0)
(-2.75964e-06 7.11246e-06 0)
(-2.93017e-06 7.55001e-06 0)
(-3.01775e-06 8.01807e-06 0)
(-3.01153e-06 8.49766e-06 0)
(-2.90601e-06 8.96254e-06 0)
(-2.70494e-06 9.38013e-06 0)
(-2.42515e-06 9.71532e-06 0)
(-2.09803e-06 9.93807e-06 0)
(-1.76621e-06 1.00345e-05 0)
(-1.47344e-06 1.0017e-05 0)
(-1.25092e-06 9.92342e-06 0)
(-1.10978e-06 9.79859e-06 0)
(-1.04368e-06 9.68022e-06 0)
(-1.03534e-06 9.59411e-06 0)
(-1.0623e-06 9.55427e-06 0)
(-1.101e-06 9.56448e-06 0)
(-1.12936e-06 9.61972e-06 0)
(-1.1288e-06 9.70712e-06 0)
(-1.08634e-06 9.80657e-06 0)
(-9.96851e-07 9.89172e-06 0)
(-8.65487e-07 9.9321e-06 0)
(-7.09219e-07 9.8977e-06 0)
(-5.55747e-07 9.76673e-06 0)
(-4.37555e-07 9.53588e-06 0)
(-3.80357e-07 9.2278e-06 0)
(-3.92657e-07 8.87855e-06 0)
(-4.6539e-07 8.51593e-06 0)
(-5.77815e-07 8.15582e-06 0)
(-7.0212e-07 7.8045e-06 0)
(-8.05692e-07 7.46272e-06 0)
(-8.51762e-07 7.13088e-06 0)
(-4.50035e-07 2.43336e-06 0)
(1.04739e-08 6.01565e-09 0)
(-1.8293e-07 6.08273e-06 0)
(-5.42624e-07 6.1353e-06 0)
(-8.87172e-07 6.23795e-06 0)
(-1.21083e-06 6.38836e-06 0)
(-1.5075e-06 6.58405e-06 0)
(-1.77061e-06 6.82189e-06 0)
(-1.99311e-06 7.09761e-06 0)
(-2.16785e-06 7.40516e-06 0)
(-2.28808e-06 7.73613e-06 0)
(-2.34848e-06 8.07937e-06 0)
(-2.34633e-06 8.42085e-06 0)
(-2.28299e-06 8.74421e-06 0)
(-2.1651e-06 9.03225e-06 0)
(-2.00517e-06 9.26935e-06 0)
(-1.82087e-06 9.44481e-06 0)
(-1.63255e-06 9.55597e-06 0)
(-1.45938e-06 9.60991e-06 0)
(-1.31533e-06 9.62167e-06 0)
(-1.20697e-06 9.60958e-06 0)
(-1.13374e-06 9.59059e-06 0)
(-1.08979e-06 9.57759e-06 0)
(-1.06626e-06 9.57828e-06 0)
(-1.05335e-06 9.59511e-06 0)
(-1.04209e-06 9.6257e-06 0)
(-1.02574e-06 9.66363e-06 0)
(-1.00091e-06 9.69929e-06 0)
(-9.68393e-07 9.72122e-06 0)
(-9.33505e-07 9.71769e-06 0)
(-9.05713e-07 9.67874e-06 0)
(-8.97304e-07 9.59819e-06 0)
(-9.21057e-07 9.47499e-06 0)
(-9.87383e-07 9.31265e-06 0)
(-1.10201e-06 9.11589e-06 0)
(-1.26492e-06 8.88609e-06 0)
(-1.46988e-06 8.6178e-06 0)
(-1.7031e-06 8.29603e-06 0)
(-1.9395e-06 7.89334e-06 0)
(-2.13465e-06 7.36544e-06 0)
(-1.12744e-06 1.67582e-06 0)
(1.30371e-08 5.34709e-09 0)
(-1.47784e-07 6.56033e-06 0)
(-4.37865e-07 6.60434e-06 0)
(-7.14314e-07 6.68977e-06 0)
(-9.71907e-07 6.81383e-06 0)
(-1.20556e-06 6.97327e-06 0)
(-1.41034e-06 7.16418e-06 0)
(-1.58153e-06 7.38174e-06 0)
(-1.71501e-06 7.61999e-06 0)
(-1.80754e-06 7.87167e-06 0)
(-1.85741e-06 8.12828e-06 0)
(-1.86493e-06 8.38034e-06 0)
(-1.83294e-06 8.61804e-06 0)
(-1.76706e-06 8.83218e-06 0)
(-1.67548e-06 9.01538e-06 0)
(-1.56822e-06 9.16333e-06 0)
(-1.45589e-06 9.27566e-06 0)
(-1.34807e-06 9.35597e-06 0)
(-1.25197e-06 9.41101e-06 0)
(-1.17171e-06 9.44891e-06 0)
(-1.10832e-06 9.47759e-06 0)
(-1.06045e-06 9.50342e-06 0)
(-1.02527e-06 9.53063e-06 0)
(-9.99489e-07 9.56101e-06 0)
(-9.80285e-07 9.5942e-06 0)
(-9.66042e-07 9.62801e-06 0)
(-9.5692e-07 9.65909e-06 0)
(-9.55194e-07 9.68364e-06 0)
(-9.65352e-07 9.69823e-06 0)
(-9.93954e-07 9.70048e-06 0)
(-1.04933e-06 9.68962e-06 0)
(-1.14124e-06 9.66661e-06 0)
(-1.28085e-06 9.63358e-06 0)
(-1.48133e-06 9.59286e-06 0)
(-1.75942e-06 9.54549e-06 0)
(-2.13843e-06 9.48983e-06 0)
(-2.65294e-06 9.41987e-06 0)
(-3.35643e-06 9.32311e-06 0)
(-4.332e-06 9.17677e-06 0)
(-2.46596e-06 1.75145e-06 0)
(1.85675e-08 6.32327e-09 0)
(-1.18818e-07 6.94535e-06 0)
(-3.51797e-07 6.98134e-06 0)
(-5.73165e-07 7.05095e-06 0)
(-7.78516e-07 7.15136e-06 0)
(-9.6383e-07 7.27933e-06 0)
(-1.1255e-06 7.43102e-06 0)
(-1.26047e-06 7.60203e-06 0)
(-1.36638e-06 7.78726e-06 0)
(-1.44181e-06 7.98104e-06 0)
(-1.48652e-06 8.17725e-06 0)
(-1.50168e-06 8.36961e-06 0)
(-1.48993e-06 8.55215e-06 0)
(-1.45535e-06 8.71968e-06 0)
(-1.4032e-06 8.86836e-06 0)
(-1.33939e-06 8.99615e-06 0)
(-1.26989e-06 9.10301e-06 0)
(-1.20005e-06 9.19075e-06 0)
(-1.13407e-06 9.26257e-06 0)
(-1.07473e-06 9.32241e-06 0)
(-1.02344e-06 9.37422e-06 0)
(-9.80476e-07 9.42146e-06 0)
(-9.45403e-07 9.4667e-06 0)
(-9.17559e-07 9.51159e-06 0)
(-8.96473e-07 9.55694e-06 0)
(-8.82234e-07 9.60292e-06 0)
(-8.75744e-07 9.64947e-06 0)
(-8.7887e-07 9.69665e-06 0)
(-8.94482e-07 9.74513e-06 0)
(-9.26426e-07 9.79656e-06 0)
(-9.79454e-07 9.85393e-06 0)
(-1.05921e-06 9.92189e-06 0)
(-1.17235e-06 1.0007e-05 0)
(-1.32683e-06 1.01181e-05 0)
(-1.53257e-06 1.0267e-05 0)
(-1.80221e-06 1.04696e-05 0)
(-2.15225e-06 1.07483e-05 0)
(-2.6042e-06 1.11349e-05 0)
(-3.18036e-06 1.1673e-05 0)
(-1.76497e-06 2.6067e-06 0)
(1.78054e-08 9.90026e-09 0)
(-9.53405e-08 7.25463e-06 0)
(-2.8219e-07 7.28369e-06 0)
(-4.59484e-07 7.33974e-06 0)
(-6.23657e-07 7.42027e-06 0)
(-7.71604e-07 7.52234e-06 0)
(-9.0072e-07 7.64263e-06 0)
(-1.00898e-06 7.77741e-06 0)
(-1.09501e-06 7.92265e-06 0)
(-1.15825e-06 8.07407e-06 0)
(-1.19897e-06 8.22733e-06 0)
(-1.21835e-06 8.37822e-06 0)
(-1.21847e-06 8.52296e-06 0)
(-1.20214e-06 8.65841e-06 0)
(-1.17275e-06 8.78236e-06 0)
(-1.13396e-06 8.89365e-06 0)
(-1.08934e-06 8.9922e-06 0)
(-1.04213e-06 9.0789e-06 0)
(-9.94966e-07 9.15539e-06 0)
(-9.49804e-07 9.22371e-06 0)
(-9.07899e-07 9.28604e-06 0)
(-8.69938e-07 9.34446e-06 0)
(-8.36208e-07 9.40076e-06 0)
(-8.06799e-07 9.45647e-06 0)
(-7.81777e-07 9.51285e-06 0)
(-7.61328e-07 9.57106e-06 0)
(-7.45831e-07 9.63238e-06 0)
(-7.35864e-07 9.69836e-06 0)
(-7.32141e-07 9.77113e-06 0)
(-7.35369e-07 9.85364e-06 0)
(-7.46039e-07 9.94986e-06 0)
(-7.64133e-07 1.00651e-05 0)
(-7.8873e-07 1.02063e-05 0)
(-8.17432e-07 1.03824e-05 0)
(-8.45522e-07 1.06049e-05 0)
(-8.64638e-07 1.08887e-05 0)
(-8.60697e-07 1.12528e-05 0)
(-8.10601e-07 1.17218e-05 0)
(-6.74537e-07 1.23182e-05 0)
(-3.0509e-07 2.2407e-06 0)
(6.94681e-09 1.3289e-08 0)
(-7.64714e-08 7.50275e-06 0)
(-2.26321e-07 7.52609e-06 0)
(-3.68465e-07 7.57102e-06 0)
(-5.00083e-07 7.63541e-06 0)
(-6.18797e-07 7.71681e-06 0)
(-7.22702e-07 7.81246e-06 0)
(-8.10415e-07 7.91939e-06 0)
(-8.81109e-07 8.03446e-06 0)
(-9.34553e-07 8.15451e-06 0)
(-9.71127e-07 8.27643e-06 0)
(-9.91799e-07 8.39733e-06 0)
(-9.98067e-07 8.51471e-06 0)
(-9.91858e-07 8.62652e-06 0)
(-9.75376e-07 8.73136e-06 0)
(-9.50941e-07 8.82845e-06 0)
(-9.2081e-07 8.91764e-06 0)
(-8.87029e-07 8.99936e-06 0)
(-8.51318e-07 9.07446e-06 0)
(-8.15018e-07 9.14409e-06 0)
(-7.79084e-07 9.20952e-06 0)
(-7.44125e-07 9.27209e-06 0)
(-7.10468e-07 9.33308e-06 0)
(-6.7823e-07 9.39373e-06 0)
(-6.47369e-07 9.45525e-06 0)
(-6.17719e-07 9.51885e-06 0)
(-5.88974e-07 9.58589e-06 0)
(-5.60641e-07 9.65788e-06 0)
(-5.31929e-07 9.73665e-06 0)
(-5.01594e-07 9.82435e-06 0)
(-4.6772e-07 9.92356e-06 0)
(-4.27433e-07 1.00372e-05 0)
(-3.76544e-07 1.01688e-05 0)
(-3.09091e-07 1.03218e-05 0)
(-2.16777e-07 1.04999e-05 0)
(-8.82984e-08 1.07066e-05 0)
(9.14193e-08 1.09441e-05 0)
(3.41981e-07 1.12127e-05 0)
(6.88255e-07 1.14957e-05 0)
(4.35396e-07 1.46638e-06 0)
(1.673e-09 1.41202e-08 0)
(-6.13429e-08 7.70178e-06 0)
(-1.81557e-07 7.7205e-06 0)
(-2.95627e-07 7.75652e-06 0)
(-4.01344e-07 7.8081e-06 0)
(-4.96881e-07 7.87324e-06 0)
(-5.80821e-07 7.94973e-06 0)
(-6.52178e-07 8.03524e-06 0)
(-7.10404e-07 8.12738e-06 0)
(-7.55396e-07 8.2238e-06 0)
(-7.87477e-07 8.32224e-06 0)
(-8.07362e-07 8.42066e-06 0)
(-8.16099e-07 8.51731e-06 0)
(-8.14985e-07 8.61078e-06 0)
(-8.05473e-07 8.70009e-06 0)
(-7.89067e-07 8.78464e-06 0)
(-7.67223e-07 8.86424e-06 0)
(-7.41266e-07 8.93906e-06 0)
(-7.12325e-07 9.00953e-06 0)
(-6.81296e-07 9.07629e-06 0)
(-6.48836e-07 9.14008e-06 0)
(-6.15359e-07 9.20175e-06 0)
(-5.81063e-07 9.26215e-06 0)
(-5.45942e-07 9.32212e-06 0)
(-5.09796e-07 9.38251e-06 0)
(-4.72229e-07 9.44418e-06 0)
(-4.32629e-07 9.50798e-06 0)
(-3.90116e-07 9.57478e-06 0)
(-3.43489e-07 9.64543e-06 0)
(-2.91135e-07 9.72078e-06 0)
(-2.30936e-07 9.80151e-06 0)
(-1.60162e-07 9.88812e-06 0)
(-7.53682e-08 9.98063e-06 0)
(2.76945e-08 1.00784e-05 0)
(1.5413e-07 1.01797e-05 0)
(3.09879e-07 1.02813e-05 0)
(5.01596e-07 1.03777e-05 0)
(7.36363e-07 1.04602e-05 0)
(1.02122e-06 1.05025e-05 0)
(6.2053e-07 1.29266e-06 0)
(2.41589e-08 1.02144e-08 0)
(-4.9195e-08 7.86142e-06 0)
(-1.45619e-07 7.87648e-06 0)
(-2.37169e-07 7.90545e-06 0)
(-3.22114e-07 7.94694e-06 0)
(-3.99044e-07 7.99934e-06 0)
(-4.6688e-07 8.06092e-06 0)
(-5.24883e-07 8.12988e-06 0)
(-5.72654e-07 8.2044e-06 0)
(-6.1012e-07 8.28268e-06 0)
(-6.37512e-07 8.36309e-06 0)
(-6.55324e-07 8.44411e-06 0)
(-6.64268e-07 8.52448e-06 0)
(-6.65213e-07 8.60318e-06 0)
(-6.59119e-07 8.67943e-06 0)
(-6.46975e-07 8.75278e-06 0)
(-6.29734e-07 8.82298e-06 0)
(-6.08263e-07 8.89004e-06 0)
(-5.83305e-07 8.95414e-06 0)
(-5.55455e-07 9.01559e-06 0)
(-5.25142e-07 9.0748e-06 0)
(-4.92628e-07 9.13223e-06 0)
(-4.5801e-07 9.18837e-06 0)
(-4.21225e-07 9.24369e-06 0)
(-3.82048e-07 9.29864e-06 0)
(-3.40091e-07 9.35362e-06 0)
(-2.94803e-07 9.40898e-06 0)
(-2.45452e-07 9.46495e-06 0)
(-1.91125e-07 9.52164e-06 0)
(-1.30722e-07 9.57894e-06 0)
(-6.29662e-08 9.63649e-06 0)
(1.35612e-08 9.69353e-06 0)
(1.00346e-07 9.74881e-06 0)
(1.98812e-07 9.8004e-06 0)
(3.10108e-07 9.84554e-06 0)
(4.34774e-07 9.88048e-06 0)
(5.72247e-07 9.90021e-06 0)
(7.20144e-07 9.89841e-06 0)
(8.73305e-07 9.85338e-06 0)
(4.96053e-07 1.31619e-06 0)
(1.59947e-09 6.46997e-09 0)
(-3.94019e-08 7.98936e-06 0)
(-1.16644e-07 8.00153e-06 0)
(-1.90022e-07 8.02495e-06 0)
(-2.58177e-07 8.0585e-06 0)
(-3.20005e-07 8.10093e-06 0)
(-3.74667e-07 8.15086e-06 0)
(-4.21587e-07 8.20691e-06 0)
(-4.60447e-07 8.26767e-06 0)
(-4.91171e-07 8.3318e-06 0)
(-5.13898e-07 8.39803e-06 0)
(-5.28955e-07 8.46525e-06 0)
(-5.36814e-07 8.53248e-06 0)
(-5.38054e-07 8.59894e-06 0)
(-5.33312e-07 8.66403e-06 0)
(-5.23243e-07 8.72732e-06 0)
(-5.0848e-07 8.78856e-06 0)
(-4.89602e-07 8.84764e-06 0)
(-4.67105e-07 8.90459e-06 0)
(-4.4139e-07 8.9595e-06 0)
(-4.12749e-07 9.01255e-06 0)
(-3.81362e-07 9.06392e-06 0)
(-3.47296e-07 9.11384e-06 0)
(-3.10509e-07 9.16247e-06 0)
(-2.70856e-07 9.20998e-06 0)
(-2.28093e-07 9.25644e-06 0)
(-1.81888e-07 9.30186e-06 0)
(-1.31835e-07 9.34612e-06 0)
(-7.74723e-08 9.38897e-06 0)
(-1.8309e-08 9.42997e-06 0)
(4.61299e-08 9.46848e-06 0)
(1.16247e-07 9.50361e-06 0)
(1.92294e-07 9.53416e-06 0)
(2.7427e-07 9.55868e-06 0)
(3.61799e-07 9.57541e-06 0)
(4.53993e-07 9.58235e-06 0)
(5.49318e-07 9.57742e-06 0)
(6.45493e-07 9.55863e-06 0)
(7.39585e-07 9.51004e-06 0)
(4.08407e-07 1.37962e-06 0)
(-1.0446e-08 6.29698e-09 0)
(-3.14667e-08 8.09171e-06 0)
(-9.31591e-08 8.10159e-06 0)
(-1.51783e-07 8.12062e-06 0)
(-2.06264e-07 8.14792e-06 0)
(-2.55728e-07 8.18247e-06 0)
(-2.99508e-07 8.22323e-06 0)
(-3.37141e-07 8.2691e-06 0)
(-3.68357e-07 8.31898e-06 0)
(-3.93068e-07 8.37185e-06 0)
(-4.11345e-07 8.42674e-06 0)
(-4.2339e-07 8.48277e-06 0)
(-4.29513e-07 8.53919e-06 0)
(-4.30095e-07 8.59537e-06 0)
(-4.25563e-07 8.65079e-06 0)
(-4.16358e-07 8.70509e-06 0)
(-4.02908e-07 8.75799e-06 0)
(-3.85611e-07 8.80933e-06 0)
(-3.64813e-07 8.85901e-06 0)
(-3.40801e-07 8.90701e-06 0)
(-3.13795e-07 8.95334e-06 0)
(-2.83944e-07 8.99801e-06 0)
(-2.5133e-07 9.04107e-06 0)
(-2.15972e-07 9.0825e-06 0)
(-1.77832e-07 9.1223e-06 0)
(-1.36831e-07 9.16037e-06 0)
(-9.2855e-08 9.19656e-06 0)
(-4.57788e-08 9.23064e-06 0)
(4.51426e-09 9.26229e-06 0)
(5.81048e-08 9.29108e-06 0)
(1.15004e-07 9.31647e-06 0)
(1.75119e-07 9.3378e-06 0)
(2.38205e-07 9.35434e-06 0)
(3.03831e-07 9.36528e-06 0)
(3.7134e-07 9.36978e-06 0)
(4.39818e-07 9.36706e-06 0)
(5.08098e-07 9.35646e-06 0)
(5.7478e-07 9.33759e-06 0)
(6.3842e-07 9.29537e-06 0)
(3.47137e-07 1.44832e-06 0)
(-1.7623e-08 6.19566e-09 0)
(-2.5002e-08 8.17326e-06 0)
(-7.40187e-08 8.18133e-06 0)
(-1.20593e-07 8.19688e-06 0)
(-1.63867e-07 8.2192e-06 0)
(-2.03141e-07 8.24751e-06 0)
(-2.37875e-07 8.28096e-06 0)
(-2.67686e-07 8.3187e-06 0)
(-2.92342e-07 8.35987e-06 0)
(-3.11744e-07 8.40367e-06 0)
(-3.25912e-07 8.44934e-06 0)
(-3.34966e-07 8.49617e-06 0)
(-3.39104e-07 8.54357e-06 0)
(-3.3858e-07 8.59101e-06 0)
(-3.33683e-07 8.63807e-06 0)
(-3.24714e-07 8.68438e-06 0)
(-3.11977e-07 8.7297e-06 0)
(-2.95754e-07 8.7738e-06 0)
(-2.76303e-07 8.81655e-06 0)
(-2.53846e-07 8.85783e-06 0)
(-2.28569e-07 8.89756e-06 0)
(-2.00617e-07 8.93568e-06 0)
(-1.701e-07 8.9721e-06 0)
(-1.37096e-07 9.00675e-06 0)
(-1.01661e-07 9.03951e-06 0)
(-6.38361e-08 9.07025e-06 0)
(-2.36609e-08 9.09878e-06 0)
(1.88135e-08 9.12488e-06 0)
(6.35084e-08 9.14829e-06 0)
(1.10301e-07 9.16868e-06 0)
(1.59006e-07 9.18571e-06 0)
(2.09362e-07 9.199e-06 0)
(2.61011e-07 9.20816e-06 0)
(3.13497e-07 9.21284e-06 0)
(3.66255e-07 9.21272e-06 0)
(4.18624e-07 9.20757e-06 0)
(4.6986e-07 9.1973e-06 0)
(5.19174e-07 9.18197e-06 0)
(5.65887e-07 9.14618e-06 0)
(3.05005e-07 1.51852e-06 0)
(-2.18871e-08 6.13364e-09 0)
(-1.97089e-08 8.23783e-06 0)
(-5.83403e-08 8.24445e-06 0)
(-9.50228e-08 8.25721e-06 0)
(-1.29065e-07 8.27556e-06 0)
(-1.599e-07 8.29885e-06 0)
(-1.87085e-07 8.32643e-06 0)
(-2.103e-07 8.35761e-06 0)
(-2.29339e-07 8.39172e-06 0)
(-2.44101e-07 8.42812e-06 0)
(-2.54573e-07 8.4662e-06 0)
(-2.60821e-07 8.5054e-06 0)
(-2.6297e-07 8.54522e-06 0)
(-2.6119e-07 8.58522e-06 0)
(-2.55682e-07 8.62503e-06 0)
(-2.46659e-07 8.66433e-06 0)
(-2.34344e-07 8.70287e-06 0)
(-2.1895e-07 8.74043e-06 0)
(-2.00681e-07 8.77683e-06 0)
(-1.79722e-07 8.81193e-06 0)
(-1.56242e-07 8.84559e-06 0)
(-1.30388e-07 8.87771e-06 0)
(-1.02293e-07 8.90817e-06 0)
(-7.20783e-08 8.93684e-06 0)
(-3.98563e-08 8.96361e-06 0)
(-5.74108e-09 8.98834e-06 0)
(3.01456e-08 9.01086e-06 0)
(6.76656e-08 9.031e-06 0)
(1.06656e-07 9.04857e-06 0)
(1.46921e-07 9.06339e-06 0)
(1.88226e-07 9.07525e-06 0)
(2.3029e-07 9.08396e-06 0)
(2.72785e-07 9.08937e-06 0)
(3.15341e-07 9.09136e-06 0)
(3.57545e-07 9.08984e-06 0)
(3.98957e-07 9.08481e-06 0)
(4.39123e-07 9.07637e-06 0)
(4.77598e-07 9.06467e-06 0)
(5.14082e-07 9.03367e-06 0)
(2.75832e-07 1.58945e-06 0)
(-2.41644e-08 6.09335e-09 0)
(-1.53564e-08 8.28847e-06 0)
(-4.54429e-08 8.29392e-06 0)
(-7.39718e-08 8.30444e-06 0)
(-1.00381e-07 8.31957e-06 0)
(-1.24205e-07 8.3388e-06 0)
(-1.45078e-07 8.36161e-06 0)
(-1.62731e-07 8.38745e-06 0)
(-1.76981e-07 8.41579e-06 0)
(-1.87727e-07 8.4461e-06 0)
(-1.9494e-07 8.47788e-06 0)
(-1.98652e-07 8.51069e-06 0)
(-1.98939e-07 8.54411e-06 0)
(-1.9592e-07 8.57777e-06 0)
(-1.89737e-07 8.61134e-06 0)
(-1.80549e-07 8.64454e-06 0)
(-1.68525e-07 8.67713e-06 0)
(-1.53836e-07 8.7089e-06 0)
(-1.36651e-07 8.73966e-06 0)
(-1.17131e-07 8.76926e-06 0)
(-9.5434e-08 8.79756e-06 0)
(-7.17074e-08 8.82443e-06 0)
(-4.60953e-08 8.84975e-06 0)
(-1.87383e-08 8.87339e-06 0)
(1.02222e-08 8.89523e-06 0)
(4.06407e-08 8.91517e-06 0)
(7.23629e-08 8.93308e-06 0)
(1.05222e-07 8.94883e-06 0)
(1.39034e-07 8.96232e-06 0)
(1.73598e-07 8.97344e-06 0)
(2.08689e-07 8.98208e-06 0)
(2.44064e-07 8.98819e-06 0)
(2.7946e-07 8.99171e-06 0)
(3.14599e-07 8.99262e-06 0)
(3.49193e-07 8.99096e-06 0)
(3.82954e-07 8.9868e-06 0)
(4.15601e-07 8.98026e-06 0)
(4.46872e-07 8.97152e-06 0)
(4.76657e-07 8.94378e-06 0)
(2.55446e-07 1.66184e-06 0)
(-2.495e-08 6.06647e-09 0)
(-1.17655e-08 8.32764e-06 0)
(-3.47988e-08 8.33214e-06 0)
(-5.65867e-08 8.34083e-06 0)
(-7.66673e-08 8.35334e-06 0)
(-9.46575e-08 8.36926e-06 0)
(-1.10252e-07 8.38817e-06 0)
(-1.2322e-07 8.40962e-06 0)
(-1.33403e-07 8.43318e-06 0)
(-1.40705e-07 8.45844e-06 0)
(-1.45089e-07 8.48497e-06 0)
(-1.46564e-07 8.51242e-06 0)
(-1.4518e-07 8.54043e-06 0)
(-1.4102e-07 8.56868e-06 0)
(-1.3419e-07 8.59691e-06 0)
(-1.24812e-07 8.62485e-06 0)
(-1.13021e-07 8.65228e-06 0)
(-9.89595e-08 8.67902e-06 0)
(-8.27707e-08 8.70488e-06 0)
(-6.46002e-08 8.72972e-06 0)
(-4.45926e-08 8.7534e-06 0)
(-2.28919e-08 8.77579e-06 0)
(3.58031e-10 8.79677e-06 0)
(2.50126e-08 8.81625e-06 0)
(5.09247e-08 8.83413e-06 0)
(7.79428e-08 8.8503e-06 0)
(1.0591e-07 8.86469e-06 0)
(1.3466e-07 8.87721e-06 0)
(1.64022e-07 8.8878e-06 0)
(1.93813e-07 8.89642e-06 0)
(2.23844e-07 8.90302e-06 0)
(2.53917e-07 8.90758e-06 0)
(2.83831e-07 8.91012e-06 0)
(3.13386e-07 8.91067e-06 0)
(3.42382e-07 8.90929e-06 0)
(3.70629e-07 8.90607e-06 0)
(3.97949e-07 8.90113e-06 0)
(4.24183e-07 8.8946e-06 0)
(4.49349e-07 8.8689e-06 0)
(2.4126e-07 1.73675e-06 0)
(-2.45458e-08 6.0485e-09 0)
(-8.79669e-09 8.35733e-06 0)
(-2.5996e-08 8.36106e-06 0)
(-4.22006e-08 8.36825e-06 0)
(-5.70285e-08 8.3786e-06 0)
(-7.01606e-08 8.3918e-06 0)
(-8.13407e-08 8.40748e-06 0)
(-9.03728e-08 8.4253e-06 0)
(-9.71177e-08 8.4449e-06 0)
(-1.01488e-07 8.46594e-06 0)
(-1.03443e-07 8.48808e-06 0)
(-1.02981e-07 8.51101e-06 0)
(-1.00135e-07 8.53444e-06 0)
(-9.49642e-08 8.5581e-06 0)
(-8.75513e-08 8.58176e-06 0)
(-7.79949e-08 8.60519e-06 0)
(-6.6406e-08 8.62821e-06 0)
(-5.29048e-08 8.65062e-06 0)
(-3.76171e-08 8.67229e-06 0)
(-2.06729e-08 8.69306e-06 0)
(-2.20496e-09 8.71282e-06 0)
(1.76522e-08 8.73145e-06 0)
(3.8762e-08 8.74886e-06 0)
(6.09864e-08 8.76494e-06 0)
(8.41849e-08 8.77962e-06 0)
(1.08214e-07 8.79284e-06 0)
(1.32929e-07 8.80453e-06 0)
(1.58181e-07 8.81464e-06 0)
(1.83818e-07 8.82315e-06 0)
(2.09688e-07 8.83002e-06 0)
(2.35636e-07 8.83525e-06 0)
(2.61509e-07 8.83886e-06 0)
(2.87157e-07 8.84087e-06 0)
(3.12434e-07 8.84132e-06 0)
(3.37203e-07 8.8403e-06 0)
(3.61338e-07 8.83787e-06 0)
(3.84724e-07 8.83414e-06 0)
(4.07266e-07 8.82923e-06 0)
(4.29003e-07 8.80471e-06 0)
(2.31379e-07 1.81527e-06 0)
(-2.31634e-08 6.03675e-09 0)
(-6.33999e-09 8.37919e-06 0)
(-1.87099e-08 8.38227e-06 0)
(-3.02877e-08 8.38822e-06 0)
(-4.07548e-08 8.3968e-06 0)
(-4.98439e-08 8.40773e-06 0)
(-5.73389e-08 8.42074e-06 0)
(-6.30723e-08 8.43553e-06 0)
(-6.69232e-08 8.45182e-06 0)
(-6.88132e-08 8.46932e-06 0)
(-6.87018e-08 8.48776e-06 0)
(-6.65822e-08 8.50688e-06 0)
(-6.24761e-08 8.52643e-06 0)
(-5.64295e-08 8.5462e-06 0)
(-4.8508e-08 8.56598e-06 0)
(-3.87934e-08 8.58557e-06 0)
(-2.73796e-08 8.60481e-06 0)
(-1.43703e-08 8.62356e-06 0)
(1.2376e-10 8.64166e-06 0)
(1.59864e-08 8.659e-06 0)
(3.30977e-08 8.67547e-06 0)
(5.13345e-08 8.69098e-06 0)
(7.0572e-08 8.70543e-06 0)
(9.06834e-08 8.71875e-06 0)
(1.11541e-07 8.73089e-06 0)
(1.33016e-07 8.74178e-06 0)
(1.54981e-07 8.75138e-06 0)
(1.77305e-07 8.75968e-06 0)
(1.99864e-07 8.76663e-06 0)
(2.2253e-07 8.77225e-06 0)
(2.45181e-07 8.77654e-06 0)
(2.67701e-07 8.77951e-06 0)
(2.89976e-07 8.7812e-06 0)
(3.11902e-07 8.78167e-06 0)
(3.33382e-07 8.78095e-06 0)
(3.54329e-07 8.77914e-06 0)
(3.74668e-07 8.7763e-06 0)
(3.94335e-07 8.77252e-06 0)
(4.13427e-07 8.74861e-06 0)
(2.24547e-07 1.89857e-06 0)
(-2.09871e-08 6.02966e-09 0)
(-4.30823e-09 8.39457e-06 0)
(-1.26829e-08 8.39712e-06 0)
(-2.04297e-08 8.40203e-06 0)
(-2.72809e-08 8.40912e-06 0)
(-3.30113e-08 8.41817e-06 0)
(-3.7437e-08 8.42893e-06 0)
(-4.04151e-08 8.44119e-06 0)
(-4.18406e-08 8.45469e-06 0)
(-4.16437e-08 8.46922e-06 0)
(-3.97867e-08 8.48453e-06 0)
(-3.62602e-08 8.50042e-06 0)
(-3.10796e-08 8.51669e-06 0)
(-2.42813e-08 8.53315e-06 0)
(-1.59198e-08 8.54963e-06 0)
(-6.06395e-09 8.56596e-06 0)
(5.20519e-09 8.58201e-06 0)
(1.77971e-08 8.59764e-06 0)
(3.16139e-08 8.61274e-06 0)
(4.6552e-08 8.62719e-06 0)
(6.25035e-08 8.64092e-06 0)
(7.93577e-08 8.65384e-06 0)
(9.70019e-08 8.66587e-06 0)
(1.15323e-07 8.67696e-06 0)
(1.34206e-07 8.68705e-06 0)
(1.5354e-07 8.69611e-06 0)
(1.73211e-07 8.7041e-06 0)
(1.93113e-07 8.711e-06 0)
(2.13138e-07 8.71681e-06 0)
(2.33185e-07 8.72151e-06 0)
(2.53159e-07 8.72512e-06 0)
(2.72968e-07 8.72766e-06 0)
(2.92529e-07 8.72916e-06 0)
(3.11766e-07 8.72966e-06 0)
(3.30613e-07 8.7292e-06 0)
(3.49011e-07 8.72784e-06 0)
(3.66913e-07 8.72564e-06 0)
(3.8428e-07 8.72268e-06 0)
(4.01211e-07 8.69894e-06 0)
(2.19853e-07 1.98784e-06 0)
(-1.81982e-08 6.02625e-09 0)
(-2.63179e-09 8.40459e-06 0)
(-7.70916e-09 8.40669e-06 0)
(-1.2292e-08 8.41074e-06 0)
(-1.61536e-08 8.41658e-06 0)
(-1.91025e-08 8.42403e-06 0)
(-2.09817e-08 8.43291e-06 0)
(-2.16682e-08 8.44303e-06 0)
(-2.10708e-08 8.45418e-06 0)
(-1.91279e-08 8.46618e-06 0)
(-1.5805e-08 8.47884e-06 0)
(-1.10918e-08 8.492e-06 0)
(-4.99967e-09 8.50548e-06 0)
(2.44156e-09 8.51912e-06 0)
(1.1186e-08 8.53279e-06 0)
(2.11742e-08 8.54635e-06 0)
(3.23356e-08 8.55968e-06 0)
(4.45904e-08 8.57268e-06 0)
(5.78517e-08 8.58524e-06 0)
(7.20266e-08 8.59728e-06 0)
(8.70184e-08 8.60873e-06 0)
(1.02728e-07 8.61951e-06 0)
(1.19053e-07 8.62956e-06 0)
(1.35893e-07 8.63884e-06 0)
(1.53146e-07 8.64731e-06 0)
(1.70714e-07 8.65493e-06 0)
(1.88499e-07 8.66167e-06 0)
(2.06409e-07 8.66752e-06 0)
(2.24356e-07 8.67246e-06 0)
(2.42257e-07 8.67651e-06 0)
(2.60036e-07 8.67965e-06 0)
(2.77621e-07 8.68191e-06 0)
(2.94952e-07 8.6833e-06 0)
(3.11974e-07 8.68386e-06 0)
(3.28641e-07 8.68362e-06 0)
(3.44912e-07 8.68261e-06 0)
(3.60758e-07 8.68089e-06 0)
(3.76154e-07 8.67851e-06 0)
(3.91228e-07 8.65469e-06 0)
(2.16589e-07 2.08436e-06 0)
(-1.49606e-08 6.02595e-09 0)
(-1.25489e-09 8.41021e-06 0)
(-3.62361e-09 8.41192e-06 0)
(-5.60596e-09 8.41524e-06 0)
(-7.00816e-09 8.42002e-06 0)
(-7.66593e-09 8.42613e-06 0)
(-7.44425e-09 8.4334e-06 0)
(-6.2364e-09 8.44169e-06 0)
(-3.96265e-09 8.45084e-06 0)
(-5.68404e-10 8.46069e-06 0)
(3.97779e-09 8.47109e-06 0)
(9.68641e-09 8.48191e-06 0)
(1.65492e-08 8.493e-06 0)
(2.45412e-08 8.50424e-06 0)
(3.36234e-08 8.5155e-06 0)
(4.3744e-08 8.5267e-06 0)
(5.4841e-08 8.53772e-06 0)
(6.68435e-08 8.54848e-06 0)
(7.96736e-08 8.5589e-06 0)
(9.32479e-08 8.56891e-06 0)
(1.07479e-07 8.57845e-06 0)
(1.22275e-07 8.58747e-06 0)
(1.37546e-07 8.59591e-06 0)
(1.53199e-07 8.60373e-06 0)
(1.69143e-07 8.6109e-06 0)
(1.85287e-07 8.6174e-06 0)
(2.01548e-07 8.62319e-06 0)
(2.17842e-07 8.62827e-06 0)
(2.34095e-07 8.63261e-06 0)
(2.50236e-07 8.63621e-06 0)
(2.66203e-07 8.63907e-06 0)
(2.81941e-07 8.64119e-06 0)
(2.97404e-07 8.64258e-06 0)
(3.12552e-07 8.64326e-06 0)
(3.27357e-07 8.64324e-06 0)
(3.41796e-07 8.64255e-06 0)
(3.55854e-07 8.64123e-06 0)
(3.69525e-07 8.63929e-06 0)
(3.8289e-07 8.61533e-06 0)
(2.14278e-07 2.18962e-06 0)
(-1.14258e-08 6.02846e-09 0)
(-1.32758e-10 8.41221e-06 0)
(-2.93731e-10 8.4136e-06 0)
(-1.55657e-10 8.41629e-06 0)
(4.48875e-10 8.42017e-06 0)
(1.66222e-09 8.42512e-06 0)
(3.60195e-09 8.43102e-06 0)
(6.36157e-09 8.43774e-06 0)
(1.00116e-08 8.44517e-06 0)
(1.46012e-08 8.45317e-06 0)
(2.01594e-08 8.46163e-06 0)
(2.6697e-08 8.47042e-06 0)
(3.42084e-08 8.47945e-06 0)
(4.26733e-08 8.48861e-06 0)
(5.20583e-08 8.49781e-06 0)
(6.23184e-08 8.50696e-06 0)
(7.3399e-08 8.516e-06 0)
(8.5237e-08 8.52484e-06 0)
(9.7762e-08 8.53343e-06 0)
(1.10898e-07 8.54172e-06 0)
(1.24565e-07 8.54966e-06 0)
(1.38679e-07 8.5572e-06 0)
(1.53154e-07 8.56432e-06 0)
(1.67904e-07 8.57097e-06 0)
(1.82844e-07 8.57713e-06 0)
(1.97889e-07 8.58277e-06 0)
(2.12959e-07 8.58788e-06 0)
(2.27978e-07 8.59243e-06 0)
(2.42876e-07 8.5964e-06 0)
(2.5759e-07 8.59978e-06 0)
(2.72065e-07 8.60255e-06 0)
(2.86254e-07 8.60471e-06 0)
(3.00121e-07 8.60624e-06 0)
(3.13639e-07 8.60715e-06 0)
(3.2679e-07 8.60743e-06 0)
(3.39567e-07 8.60709e-06 0)
(3.51969e-07 8.60614e-06 0)
(3.64004e-07 8.60461e-06 0)
(3.75727e-07 8.5807e-06 0)
(2.12571e-07 2.30544e-06 0)
(-7.72259e-09 6.03363e-09 0)
(7.70468e-10 8.41129e-06 0)
(2.38666e-09 8.4124e-06 0)
(4.23193e-09 8.41454e-06 0)
(6.45266e-09 8.41764e-06 0)
(9.17379e-09 8.42159e-06 0)
(1.24991e-08 8.4263e-06 0)
(1.65118e-08 8.43167e-06 0)
(2.12754e-08 8.43759e-06 0)
(2.6835e-08 8.44398e-06 0)
(3.32184e-08 8.45074e-06 0)
(4.04375e-08 8.45777e-06 0)
(4.84897e-08 8.465e-06 0)
(5.73591e-08 8.47234e-06 0)
(6.70182e-08 8.47972e-06 0)
(7.74285e-08 8.48709e-06 0)
(8.85424e-08 8.49438e-06 0)
(1.00304e-07 8.50155e-06 0)
(1.12649e-07 8.50855e-06 0)
(1.2551e-07 8.51535e-06 0)
(1.3881e-07 8.52191e-06 0)
(1.52471e-07 8.52821e-06 0)
(1.66411e-07 8.53423e-06 0)
(1.80546e-07 8.53993e-06 0)
(1.94791e-07 8.5453e-06 0)
(2.09061e-07 8.55032e-06 0)
(2.23276e-07 8.55497e-06 0)
(2.37357e-07 8.55922e-06 0)
(2.51231e-07 8.56306e-06 0)
(2.64834e-07 8.56645e-06 0)
(2.78109e-07 8.56937e-06 0)
(2.9101e-07 8.5718e-06 0)