/*--------------------------------*- C++ -*----------------------------------*\
  =========                 |
  \\      /  F ield         | OpenFOAM: The Open Source CFD Toolbox
   \\    /   O peration     | Website:  https://openfoam.org
    \\  /    A nd           | Version:  10
     \\/     M anipulation  |
\*---------------------------------------------------------------------------*/
FoamFile
{
    format      ascii;
    class       volVectorField;
    location    "17250";
    object      Ub;
}
// * * * * * * * * * * * * * * * * * * * * * * * * * * * * * * * * * * * * * //

dimensions      [0 1 -1 0 0 0 0];

internalField   nonuniform List<vector> 
3200
(
(-7.5915e-21 -9.87888e-16 0)
(-2.2817e-20 -9.87888e-16 0)
(-3.83056e-20 -9.87887e-16 0)
(-5.44311e-20 -9.87886e-16 0)
(-7.16242e-20 -9.87885e-16 0)
(-9.04245e-20 -9.87883e-16 0)
(-1.11556e-19 -9.87881e-16 0)
(-1.36049e-19 -9.87877e-16 0)
(-1.65452e-19 -9.87872e-16 0)
(-2.02198e-19 -9.87864e-16 0)
(-2.50305e-19 -9.87851e-16 0)
(-3.1669e-19 -9.87831e-16 0)
(-4.13767e-19 -9.87795e-16 0)
(-5.64654e-19 -9.8773e-16 0)
(-4.48494e-12 -9.8761e-16 0)
(-2.62835e-05 -3.69657e-09 0)
(-7.0193e-05 -5.94e-05 0)
(-8.96397e-05 -9.85775e-06 0)
(-9.23749e-05 -4.7593e-06 0)
(-9.38964e-05 -2.87243e-06 0)
(-9.49522e-05 -1.92377e-06 0)
(-9.57516e-05 -1.37423e-06 0)
(-9.63867e-05 -1.02738e-06 0)
(-9.69072e-05 -7.94969e-07 0)
(-9.73437e-05 -6.32136e-07 0)
(-9.77161e-05 -5.13951e-07 0)
(-9.80382e-05 -4.25685e-07 0)
(-9.83201e-05 -3.58168e-07 0)
(-9.85691e-05 -3.05465e-07 0)
(-9.87909e-05 -2.63593e-07 0)
(-9.89379e-05 -3.57538e-07 0)
(-9.68747e-05 -5.68529e-06 0)
(-9.26812e-05 -5.69275e-06 0)
(-8.85346e-05 -5.6766e-06 0)
(-8.41587e-05 -6.42782e-06 0)
(-7.88459e-05 -8.3374e-06 0)
(-7.15759e-05 -1.19627e-05 0)
(-6.08452e-05 -1.82341e-05 0)
(-4.43374e-05 -2.87392e-05 0)
(-1.96452e-05 -4.24849e-05 0)
(-7.21399e-21 -9.87866e-16 0)
(-2.16516e-20 -9.87865e-16 0)
(-3.62421e-20 -9.87864e-16 0)
(-5.1256e-20 -9.87862e-16 0)
(-6.69768e-20 -9.87858e-16 0)
(-8.37124e-20 -9.87854e-16 0)
(-1.018e-19 -9.87847e-16 0)
(-1.2159e-19 -9.87838e-16 0)
(-1.43386e-19 -9.87826e-16 0)
(-1.67267e-19 -9.87808e-16 0)
(-1.92633e-19 -9.87781e-16 0)
(-2.17101e-19 -9.87742e-16 0)
(-2.3389e-19 -9.87681e-16 0)
(-2.25733e-19 -9.87586e-16 0)
(-1.50844e-19 -9.87433e-16 0)
(6.22679e-20 -9.87123e-16 0)
(2.15667e-19 -9.45203e-16 0)
(1.83091e-19 -9.03696e-16 0)
(1.22256e-19 -8.6559e-16 0)
(7.43213e-20 -8.29699e-16 0)
(3.40915e-20 -7.95488e-16 0)
(-2.43244e-21 -7.62648e-16 0)
(-3.82709e-20 -7.30979e-16 0)
(-7.61645e-20 -7.0034e-16 0)
(-1.19202e-19 -6.70625e-16 0)
(-1.71525e-19 -6.41754e-16 0)
(-2.39329e-19 -6.13659e-16 0)
(-3.32475e-19 -5.86286e-16 0)
(-4.88453e-19 -5.59587e-16 0)
(-1.42588e-08 -5.36601e-16 0)
(-2.4548e-05 -1.27719e-07 0)
(-5.38517e-05 -5.48244e-06 0)
(-6.15191e-05 -5.51121e-06 0)
(-6.69519e-05 -5.5121e-06 0)
(-7.21774e-05 -6.27732e-06 0)
(-7.81268e-05 -8.19884e-06 0)
(-8.58948e-05 -1.18347e-05 0)
(-9.70207e-05 -1.81158e-05 0)
(-0.000103349 -5.84014e-05 0)
(-5.36553e-05 -0.000227613 0)
(-6.54367e-21 -9.87846e-16 0)
(-1.95928e-20 -9.87845e-16 0)
(-3.26356e-20 -9.87843e-16 0)
(-4.58006e-20 -9.8784e-16 0)
(-5.91882e-20 -9.87835e-16 0)
(-7.2853e-20 -9.87829e-16 0)
(-8.67694e-20 -9.87821e-16 0)
(-1.00767e-19 -9.8781e-16 0)
(-1.14418e-19 -9.87796e-16 0)
(-1.26843e-19 -9.87777e-16 0)
(-1.36416e-19 -9.87752e-16 0)
(-1.40336e-19 -9.87721e-16 0)
(-1.34194e-19 -9.87683e-16 0)
(-1.11993e-19 -9.87639e-16 0)
(-6.82035e-20 -9.87598e-16 0)
(-6.34341e-21 -9.87585e-16 0)
(4.13704e-20 -9.87645e-16 0)
(5.4243e-20 -9.87701e-16 0)
(4.64946e-20 -9.87737e-16 0)
(3.01704e-20 -9.8776e-16 0)
(1.04185e-20 -9.87773e-16 0)
(-1.06363e-20 -9.87779e-16 0)
(-3.208e-20 -9.87779e-16 0)
(-5.33115e-20 -9.87773e-16 0)
(-7.34384e-20 -9.8776e-16 0)
(-9.0594e-20 -9.87738e-16 0)
(-1.00834e-19 -9.87703e-16 0)
(-9.61141e-20 -9.87651e-16 0)
(-6.04873e-20 -9.87574e-16 0)
(3.7042e-20 -9.8746e-16 0)
(1.54994e-19 -9.86763e-16 0)
(1.77661e-19 -9.6478e-16 0)
(1.30547e-19 -9.43698e-16 0)
(9.22341e-20 -9.22759e-16 0)
(6.02967e-20 -9.01761e-16 0)
(3.17172e-20 -8.80494e-16 0)
(-8.30361e-19 -8.58627e-16 0)
(-4.53219e-08 -5.84102e-14 0)
(-1.11447e-05 -3.10038e-05 0)
(-7.01387e-06 -0.000414859 0)
(-5.70818e-21 -9.87829e-16 0)
(-1.7044e-20 -9.87827e-16 0)
(-2.82315e-20 -9.87825e-16 0)
(-3.92794e-20 -9.87821e-16 0)
(-5.01541e-20 -9.87816e-16 0)
(-6.07576e-20 -9.8781e-16 0)
(-7.08948e-20 -9.87802e-16 0)
(-8.02303e-20 -9.87791e-16 0)
(-8.82315e-20 -9.87778e-16 0)
(-9.41068e-20 -9.87763e-16 0)
(-9.67595e-20 -9.87745e-16 0)
(-9.48138e-20 -9.87725e-16 0)
(-8.68206e-20 -9.87704e-16 0)
(-7.18197e-20 -9.87685e-16 0)
(-5.04461e-20 -9.87672e-16 0)
(-2.64408e-20 -9.87671e-16 0)
(-6.92024e-21 -9.87685e-16 0)
(3.37705e-21 -9.87704e-16 0)
(5.2485e-21 -9.87721e-16 0)
(1.27321e-21 -9.87734e-16 0)
(-6.2267e-21 -9.87743e-16 0)
(-1.54904e-20 -9.87747e-16 0)
(-2.51517e-20 -9.87746e-16 0)
(-3.39918e-20 -9.87741e-16 0)
(-4.07117e-20 -9.87733e-16 0)
(-4.37545e-20 -9.8772e-16 0)
(-4.12302e-20 -9.87704e-16 0)
(-3.10884e-20 -9.87686e-16 0)
(-1.18912e-20 -9.8767e-16 0)
(1.50419e-20 -9.87664e-16 0)
(4.05141e-20 -9.87685e-16 0)
(5.23372e-20 -9.87724e-16 0)
(5.04915e-20 -9.87751e-16 0)
(4.21937e-20 -9.8777e-16 0)
(3.12643e-20 -9.87783e-16 0)
(1.97942e-20 -9.8779e-16 0)
(9.19946e-21 -9.87793e-16 0)
(-9.72197e-12 -9.95033e-16 0)
(-3.78471e-07 -2.16112e-06 0)
(9.27276e-08 -0.000461917 0)
(-4.82976e-21 -9.87813e-16 0)
(-1.4383e-20 -9.87812e-16 0)
(-2.36977e-20 -9.8781e-16 0)
(-3.27089e-20 -9.87806e-16 0)
(-4.13166e-20 -9.87802e-16 0)
(-4.93705e-20 -9.87796e-16 0)
(-5.66534e-20 -9.87788e-16 0)
(-6.28668e-20 -9.87779e-16 0)
(-6.7621e-20 -9.87769e-16 0)
(-7.04427e-20 -9.87758e-16 0)
(-7.08124e-20 -9.87745e-16 0)
(-6.82563e-20 -9.87733e-16 0)
(-6.25116e-20 -9.87721e-16 0)
(-5.37688e-20 -9.87711e-16 0)
(-4.29294e-20 -9.87705e-16 0)
(-3.16967e-20 -9.87704e-16 0)
(-2.21739e-20 -9.87708e-16 0)
(-1.582e-20 -9.87714e-16 0)
(-1.28868e-20 -9.87721e-16 0)
(-1.2832e-20 -9.87727e-16 0)
(-1.48045e-20 -9.87731e-16 0)
(-1.79029e-20 -9.87733e-16 0)
(-2.12677e-20 -9.87732e-16 0)
(-2.40957e-20 -9.8773e-16 0)
(-2.56391e-20 -9.87726e-16 0)
(-2.52293e-20 -9.87721e-16 0)
(-2.23594e-20 -9.87715e-16 0)
(-1.68496e-20 -9.87711e-16 0)
(-9.09995e-21 -9.87708e-16 0)
(-3.60872e-22 -9.87711e-16 0)
(7.2524e-21 -9.87719e-16 0)
(1.17652e-20 -9.8773e-16 0)
(1.27163e-20 -9.87742e-16 0)
(1.08897e-20 -9.87753e-16 0)
(7.30401e-21 -9.87762e-16 0)
(2.87137e-21 -9.87769e-16 0)
(-1.72147e-21 -9.87774e-16 0)
(-1.90469e-11 -1.00157e-15 0)
(-2.39898e-07 -1.93356e-06 0)
(9.63524e-08 -0.000466395 0)
(-3.99682e-21 -9.87801e-16 0)
(-1.18759e-20 -9.878e-16 0)
(-1.94808e-20 -9.87797e-16 0)
(-2.67142e-20 -9.87794e-16 0)
(-3.34589e-20 -9.8779e-16 0)
(-3.95704e-20 -9.87785e-16 0)
(-4.48723e-20 -9.87779e-16 0)
(-4.91569e-20 -9.87772e-16 0)
(-5.21945e-20 -9.87764e-16 0)
(-5.37545e-20 -9.87756e-16 0)
(-5.36438e-20 -9.87747e-16 0)
(-5.17641e-20 -9.87739e-16 0)
(-4.81825e-20 -9.87731e-16 0)
(-4.31986e-20 -9.87725e-16 0)
(-3.73718e-20 -9.87721e-16 0)
(-3.14611e-20 -9.8772e-16 0)
(-2.6246e-20 -9.8772e-16 0)
(-2.22823e-20 -9.87722e-16 0)
(-1.97682e-20 -9.87724e-16 0)
(-1.85909e-20 -9.87726e-16 0)
(-1.84423e-20 -9.87728e-16 0)
(-1.89226e-20 -9.87728e-16 0)
(-1.96119e-20 -9.87728e-16 0)
(-2.0117e-20 -9.87727e-16 0)
(-2.01071e-20 -9.87726e-16 0)
(-1.93508e-20 -9.87724e-16 0)
(-1.77567e-20 -9.87722e-16 0)
(-1.54167e-20 -9.87722e-16 0)
(-1.26332e-20 -9.87722e-16 0)
(-9.8994e-21 -9.87725e-16 0)
(-7.79408e-21 -9.87729e-16 0)
(-6.77522e-21 -9.87734e-16 0)
(-6.99432e-21 -9.8774e-16 0)
(-8.28989e-21 -9.87747e-16 0)
(-1.02925e-20 -9.87753e-16 0)
(-1.25067e-20 -9.87759e-16 0)
(-1.44804e-20 -9.87766e-16 0)
(-4.02143e-11 -1.00935e-15 0)
(-2.31726e-07 -2.28449e-06 0)
(1.09056e-07 -0.000470034 0)
(-3.25849e-21 -9.8779e-16 0)
(-9.66564e-21 -9.87789e-16 0)
(-1.5803e-20 -9.87787e-16 0)
(-2.15683e-20 -9.87785e-16 0)
(-2.68529e-20 -9.87781e-16 0)
(-3.15395e-20 -9.87777e-16 0)
(-3.55029e-20 -9.87772e-16 0)
(-3.86154e-20 -9.87767e-16 0)
(-4.07571e-20 -9.87761e-16 0)
(-4.18329e-20 -9.87755e-16 0)
(-4.17947e-20 -9.87749e-16 0)
(-4.06665e-20 -9.87743e-16 0)
(-3.85665e-20 -9.87738e-16 0)
(-3.57178e-20 -9.87733e-16 0)
(-3.24348e-20 -9.8773e-16 0)
(-2.90803e-20 -9.87728e-16 0)
(-2.59957e-20 -9.87727e-16 0)
(-2.34297e-20 -9.87727e-16 0)
(-2.14995e-20 -9.87727e-16 0)
(-2.01951e-20 -9.87728e-16 0)
(-1.94122e-20 -9.87728e-16 0)
(-1.89931e-20 -9.87728e-16 0)
(-1.87631e-20 -9.87728e-16 0)
(-1.85626e-20 -9.87727e-16 0)
(-1.82713e-20 -9.87726e-16 0)
(-1.7829e-20 -9.87726e-16 0)
(-1.72498e-20 -9.87725e-16 0)
(-1.66283e-20 -9.87725e-16 0)
(-1.61333e-20 -9.87726e-16 0)
(-1.59835e-20 -9.87728e-16 0)
(-1.64066e-20 -9.8773e-16 0)
(-1.7588e-20 -9.87733e-16 0)
(-1.96298e-20 -9.87736e-16 0)
(-2.25317e-20 -9.8774e-16 0)
(-2.61826e-20 -9.87745e-16 0)
(-3.0337e-20 -9.87751e-16 0)
(-3.50364e-20 -9.87758e-16 0)
(-1.41877e-10 -1.04369e-15 0)
(-2.18558e-07 -4.48636e-06 0)
(1.42118e-07 -0.000473671 0)
(-2.63245e-21 -9.87782e-16 0)
(-7.7996e-21 -9.87781e-16 0)
(-1.27239e-20 -9.87779e-16 0)
(-1.73124e-20 -9.87777e-16 0)
(-2.14745e-20 -9.87774e-16 0)
(-2.5122e-20 -9.87771e-16 0)
(-2.81715e-20 -9.87767e-16 0)
(-3.0549e-20 -9.87763e-16 0)
(-3.21974e-20 -9.87758e-16 0)
(-3.30857e-20 -9.87754e-16 0)
(-3.32197e-20 -9.87749e-16 0)
(-3.26498e-20 -9.87745e-16 0)
(-3.14762e-20 -9.87741e-16 0)
(-2.98449e-20 -9.87738e-16 0)
(-2.79345e-20 -9.87735e-16 0)
(-2.59335e-20 -9.87733e-16 0)
(-2.40129e-20 -9.87732e-16 0)
(-2.23011e-20 -9.87731e-16 0)
(-2.08714e-20 -9.8773e-16 0)
(-1.97423e-20 -9.8773e-16 0)
(-1.88896e-20 -9.87729e-16 0)
(-1.82629e-20 -9.87729e-16 0)
(-1.78037e-20 -9.87728e-16 0)
(-1.74616e-20 -9.87728e-16 0)
(-1.72079e-20 -9.87727e-16 0)
(-1.70454e-20 -9.87726e-16 0)
(-1.70147e-20 -9.87726e-16 0)
(-1.71956e-20 -9.87726e-16 0)
(-1.77051e-20 -9.87726e-16 0)
(-1.86914e-20 -9.87726e-16 0)
(-2.03286e-20 -9.87726e-16 0)
(-2.28155e-20 -9.87727e-16 0)
(-2.63866e-20 -9.87728e-16 0)
(-3.13402e-20 -9.87728e-16 0)
(-3.80914e-20 -9.87729e-16 0)
(-4.72563e-20 -9.87731e-16 0)
(-6.26924e-20 -9.87732e-16 0)
(-1.07644e-09 -1.31338e-15 0)
(-1.80782e-07 -1.34289e-05 0)
(2.12001e-07 -0.000477293 0)
(-2.11647e-21 -9.87775e-16 0)
(-6.26648e-21 -9.87774e-16 0)
(-1.02097e-20 -9.87773e-16 0)
(-1.38676e-20 -9.87771e-16 0)
(-1.71685e-20 -9.87769e-16 0)
(-2.00484e-20 -9.87766e-16 0)
(-2.24525e-20 -9.87763e-16 0)
(-2.4339e-20 -9.8776e-16 0)
(-2.56826e-20 -9.87756e-16 0)
(-2.64791e-20 -9.87753e-16 0)
(-2.67491e-20 -9.87749e-16 0)
(-2.65398e-20 -9.87746e-16 0)
(-2.59239e-20 -9.87743e-16 0)
(-2.49949e-20 -9.87741e-16 0)
(-2.38582e-20 -9.87738e-16 0)
(-2.26202e-20 -9.87736e-16 0)
(-2.13762e-20 -9.87735e-16 0)
(-2.02009e-20 -9.87734e-16 0)
(-1.9144e-20 -9.87732e-16 0)
(-1.82304e-20 -9.87732e-16 0)
(-1.7465e-20 -9.87731e-16 0)
(-1.68403e-20 -9.8773e-16 0)
(-1.63443e-20 -9.87729e-16 0)
(-1.59687e-20 -9.87728e-16 0)
(-1.57151e-20 -9.87727e-16 0)
(-1.55995e-20 -9.87727e-16 0)
(-1.56551e-20 -9.87726e-16 0)
(-1.59332e-20 -9.87725e-16 0)
(-1.65022e-20 -9.87724e-16 0)
(-1.74468e-20 -9.87723e-16 0)
(-1.88675e-20 -9.87722e-16 0)
(-2.08827e-20 -9.8772e-16 0)
(-2.36346e-20 -9.87718e-16 0)
(-2.72993e-20 -9.87716e-16 0)
(-3.21024e-20 -9.87712e-16 0)
(-3.83376e-20 -9.87707e-16 0)
(-6.09916e-20 -9.877e-16 0)
(-4.35319e-09 -2.0415e-15 0)
(-1.71201e-07 -2.51527e-05 0)
(2.12899e-07 -0.000480802 0)
(-1.69828e-21 -9.87769e-16 0)
(-5.0266e-21 -9.87769e-16 0)
(-8.1847e-21 -9.87768e-16 0)
(-1.11091e-20 -9.87766e-16 0)
(-1.37444e-20 -9.87765e-16 0)
(-1.60443e-20 -9.87762e-16 0)
(-1.79727e-20 -9.8776e-16 0)
(-1.95052e-20 -9.87757e-16 0)
(-2.06317e-20 -9.87755e-16 0)
(-2.1357e-20 -9.87752e-16 0)
(-2.17022e-20 -9.87749e-16 0)
(-2.17043e-20 -9.87747e-16 0)
(-2.14135e-20 -9.87744e-16 0)
(-2.089e-20 -9.87742e-16 0)
(-2.01989e-20 -9.8774e-16 0)
(-1.94041e-20 -9.87738e-16 0)
(-1.85632e-20 -9.87737e-16 0)
(-1.77231e-20 -9.87735e-16 0)
(-1.69187e-20 -9.87734e-16 0)
(-1.61722e-20 -9.87733e-16 0)
(-1.5496e-20 -9.87732e-16 0)
(-1.48952e-20 -9.87731e-16 0)
(-1.43713e-20 -9.8773e-16 0)
(-1.39256e-20 -9.87729e-16 0)
(-1.35614e-20 -9.87728e-16 0)
(-1.32853e-20 -9.87727e-16 0)
(-1.31078e-20 -9.87726e-16 0)
(-1.30415e-20 -9.87724e-16 0)
(-1.3099e-20 -9.87723e-16 0)
(-1.3289e-20 -9.87721e-16 0)
(-1.36114e-20 -9.87719e-16 0)
(-1.40495e-20 -9.87717e-16 0)
(-1.45608e-20 -9.87714e-16 0)
(-1.50611e-20 -9.8771e-16 0)
(-1.54016e-20 -9.87705e-16 0)
(-1.53314e-20 -9.87698e-16 0)
(-2.51696e-20 -9.8769e-16 0)
(-1.35124e-09 -2.70851e-15 0)
(-1.98501e-07 -2.94751e-05 0)
(8.68388e-08 -0.000484017 0)
(-1.36217e-21 -9.87765e-16 0)
(-4.0314e-21 -9.87764e-16 0)
(-6.56339e-21 -9.87764e-16 0)
(-8.90788e-21 -9.87763e-16 0)
(-1.10225e-20 -9.87761e-16 0)
(-1.28733e-20 -9.87759e-16 0)
(-1.44358e-20 -9.87757e-16 0)
(-1.5695e-20 -9.87755e-16 0)
(-1.6647e-20 -9.87753e-16 0)
(-1.72985e-20 -9.87751e-16 0)
(-1.76667e-20 -9.87749e-16 0)
(-1.77784e-20 -9.87747e-16 0)
(-1.76678e-20 -9.87745e-16 0)
(-1.73742e-20 -9.87743e-16 0)
(-1.69389e-20 -9.87741e-16 0)
(-1.64022e-20 -9.8774e-16 0)
(-1.58005e-20 -9.87738e-16 0)
(-1.51644e-20 -9.87737e-16 0)
(-1.45177e-20 -9.87736e-16 0)
(-1.38777e-20 -9.87734e-16 0)
(-1.32549e-20 -9.87733e-16 0)
(-1.26554e-20 -9.87732e-16 0)
(-1.20812e-20 -9.87731e-16 0)
(-1.15315e-20 -9.8773e-16 0)
(-1.10033e-20 -9.87729e-16 0)
(-1.04913e-20 -9.87728e-16 0)
(-9.98657e-21 -9.87726e-16 0)
(-9.47514e-21 -9.87725e-16 0)
(-8.9348e-21 -9.87724e-16 0)
(-8.3314e-21 -9.87722e-16 0)
(-7.61378e-21 -9.8772e-16 0)
(-6.70731e-21 -9.87717e-16 0)
(-5.50578e-21 -9.87715e-16 0)
(-3.86141e-21 -9.87711e-16 0)
(-1.57284e-21 -9.87708e-16 0)
(1.62843e-21 -9.87704e-16 0)
(6.09165e-21 -9.87699e-16 0)
(2.75145e-20 -3.02671e-15 0)
(-1.16878e-07 -2.73033e-05 0)
(2.17413e-08 -0.000486313 0)
(-1.09269e-21 -9.87761e-16 0)
(-3.23403e-21 -9.87761e-16 0)
(-5.26595e-21 -9.8776e-16 0)
(-7.14905e-21 -9.87759e-16 0)
(-8.85083e-21 -9.87758e-16 0)
(-1.03461e-20 -9.87757e-16 0)
(-1.16171e-20 -9.87755e-16 0)
(-1.26543e-20 -9.87754e-16 0)
(-1.34557e-20 -9.87752e-16 0)
(-1.40272e-20 -9.8775e-16 0)
(-1.43814e-20 -9.87749e-16 0)
(-1.4537e-20 -9.87747e-16 0)
(-1.45172e-20 -9.87745e-16 0)
(-1.43477e-20 -9.87744e-16 0)
(-1.40555e-20 -9.87742e-16 0)
(-1.36664e-20 -9.87741e-16 0)
(-1.3204e-20 -9.87739e-16 0)
(-1.26885e-20 -9.87738e-16 0)
(-1.21358e-20 -9.87737e-16 0)
(-1.15576e-20 -9.87736e-16 0)
(-1.09613e-20 -9.87735e-16 0)
(-1.03504e-20 -9.87734e-16 0)
(-9.72475e-21 -9.87732e-16 0)
(-9.08088e-21 -9.87731e-16 0)
(-8.41173e-21 -9.8773e-16 0)
(-7.70632e-21 -9.87729e-16 0)
(-6.94906e-21 -9.87728e-16 0)
(-6.1185e-21 -9.87727e-16 0)
(-5.18593e-21 -9.87725e-16 0)
(-4.11362e-21 -9.87724e-16 0)
(-2.85294e-21 -9.87722e-16 0)
(-1.34252e-21 -9.87721e-16 0)
(4.93316e-22 -9.87719e-16 0)
(2.74548e-21 -9.87717e-16 0)
(5.51981e-21 -9.87715e-16 0)
(8.93483e-21 -9.87714e-16 0)
(1.31167e-20 -9.87712e-16 0)
(4.13552e-20 -3.30005e-15 0)
(1.14531e-10 -2.39327e-05 0)
(-7.33949e-09 -0.000486967 0)
(-8.76301e-22 -9.87758e-16 0)
(-2.59388e-21 -9.87758e-16 0)
(-4.22464e-21 -9.87758e-16 0)
(-5.73775e-21 -9.87757e-16 0)
(-7.10809e-21 -9.87756e-16 0)
(-8.31643e-21 -9.87755e-16 0)
(-9.34963e-21 -9.87754e-16 0)
(-1.02006e-20 -9.87752e-16 0)
(-1.08679e-20 -9.87751e-16 0)
(-1.13559e-20 -9.8775e-16 0)
(-1.16732e-20 -9.87748e-16 0)
(-1.18325e-20 -9.87747e-16 0)
(-1.18493e-20 -9.87745e-16 0)
(-1.17408e-20 -9.87744e-16 0)
(-1.15244e-20 -9.87743e-16 0)
(-1.12173e-20 -9.87741e-16 0)
(-1.08349e-20 -9.8774e-16 0)
(-1.03903e-20 -9.87739e-16 0)
(-9.89421e-21 -9.87738e-16 0)
(-9.35424e-21 -9.87737e-16 0)
(-8.77507e-21 -9.87736e-16 0)
(-8.15844e-21 -9.87735e-16 0)
(-7.5032e-21 -9.87734e-16 0)
(-6.80534e-21 -9.87733e-16 0)
(-6.05798e-21 -9.87732e-16 0)
(-5.25126e-21 -9.87731e-16 0)
(-4.37218e-21 -9.8773e-16 0)
(-3.40448e-21 -9.87729e-16 0)
(-2.32853e-21 -9.87728e-16 0)
(-1.1216e-21 -9.87727e-16 0)
(2.41563e-22 -9.87726e-16 0)
(1.78744e-21 -9.87725e-16 0)
(3.5414e-21 -9.87724e-16 0)
(5.52389e-21 -9.87723e-16 0)
(7.74453e-21 -9.87723e-16 0)
(1.01933e-20 -9.87722e-16 0)
(1.28278e-20 -9.87722e-16 0)
(3.6564e-20 -3.56454e-15 0)
(5.99811e-11 -2.10887e-05 0)
(-1.81477e-08 -0.000486658 0)
(-7.01858e-22 -9.87756e-16 0)
(-2.07776e-21 -9.87756e-16 0)
(-3.38483e-21 -9.87756e-16 0)
(-4.59886e-21 -9.87755e-16 0)
(-5.70019e-21 -9.87754e-16 0)
(-6.67387e-21 -9.87753e-16 0)
(-7.50965e-21 -9.87752e-16 0)
(-8.20185e-21 -9.87751e-16 0)
(-8.74913e-21 -9.8775e-16 0)
(-9.15396e-21 -9.87749e-16 0)
(-9.42216e-21 -9.87748e-16 0)
(-9.56216e-21 -9.87747e-16 0)
(-9.58425e-21 -9.87745e-16 0)
(-9.49978e-21 -9.87744e-16 0)
(-9.32043e-21 -9.87743e-16 0)
(-9.05746e-21 -9.87742e-16 0)
(-8.72117e-21 -9.87741e-16 0)
(-8.32044e-21 -9.8774e-16 0)
(-7.86239e-21 -9.87739e-16 0)
(-7.35221e-21 -9.87738e-16 0)
(-6.79312e-21 -9.87737e-16 0)
(-6.18631e-21 -9.87736e-16 0)
(-5.53104e-21 -9.87735e-16 0)
(-4.8247e-21 -9.87734e-16 0)
(-4.06297e-21 -9.87734e-16 0)
(-3.23993e-21 -9.87733e-16 0)
(-2.34836e-21 -9.87732e-16 0)
(-1.38e-21 -9.87731e-16 0)
(-3.26135e-22 -9.87731e-16 0)
(8.21702e-22 -9.8773e-16 0)
(2.07069e-21 -9.87729e-16 0)
(3.4253e-21 -9.87729e-16 0)
(4.88552e-21 -9.87728e-16 0)
(6.44465e-21 -9.87728e-16 0)
(8.08689e-21 -9.87728e-16 0)
(9.7849e-21 -9.87728e-16 0)
(1.1498e-20 -9.87728e-16 0)
(3.23951e-20 -3.82802e-15 0)
(3.68093e-11 -1.87927e-05 0)
(-2.44227e-08 -0.000486298 0)
(-5.60509e-22 -9.87754e-16 0)
(-1.65942e-21 -9.87754e-16 0)
(-2.70368e-21 -9.87754e-16 0)
(-3.67414e-21 -9.87753e-16 0)
(-4.55523e-21 -9.87753e-16 0)
(-5.33508e-21 -9.87752e-16 0)
(-6.00542e-21 -9.87751e-16 0)
(-6.56147e-21 -9.8775e-16 0)
(-7.00164e-21 -9.87749e-16 0)
(-7.3272e-21 -9.87748e-16 0)
(-7.54176e-21 -9.87747e-16 0)
(-7.65082e-21 -9.87746e-16 0)
(-7.66119e-21 -9.87745e-16 0)
(-7.58047e-21 -9.87744e-16 0)
(-7.41649e-21 -9.87743e-16 0)
(-7.17692e-21 -9.87743e-16 0)
(-6.86881e-21 -9.87742e-16 0)
(-6.49834e-21 -9.87741e-16 0)
(-6.07063e-21 -9.8774e-16 0)
(-5.58957e-21 -9.87739e-16 0)
(-5.05784e-21 -9.87738e-16 0)
(-4.47689e-21 -9.87737e-16 0)
(-3.84706e-21 -9.87737e-16 0)
(-3.16769e-21 -9.87736e-16 0)
(-2.43734e-21 -9.87735e-16 0)
(-1.65401e-21 -9.87735e-16 0)
(-8.15449e-22 -9.87734e-16 0)
(8.04116e-23 -9.87734e-16 0)
(1.03501e-21 -9.87733e-16 0)
(2.04855e-21 -9.87733e-16 0)
(3.11935e-21 -9.87732e-16 0)
(4.24309e-21 -9.87732e-16 0)
(5.41209e-21 -9.87732e-16 0)
(6.6146e-21 -9.87732e-16 0)
(7.83439e-21 -9.87732e-16 0)
(9.05065e-21 -9.87732e-16 0)
(1.02384e-20 -9.87732e-16 0)
(2.93567e-20 -4.0953e-15 0)
(2.47838e-11 -1.68769e-05 0)
(-2.82066e-08 -0.000485903 0)
(-4.45356e-22 -9.87753e-16 0)
(-1.31848e-21 -9.87753e-16 0)
(-2.1481e-21 -9.87753e-16 0)
(-2.91893e-21 -9.87752e-16 0)
(-3.6185e-21 -9.87752e-16 0)
(-4.23721e-21 -9.87751e-16 0)
(-4.76824e-21 -9.8775e-16 0)
(-5.20743e-21 -9.8775e-16 0)
(-5.55303e-21 -9.87749e-16 0)
(-5.8054e-21 -9.87748e-16 0)
(-5.96668e-21 -9.87747e-16 0)
(-6.0404e-21 -9.87746e-16 0)
(-6.03106e-21 -9.87745e-16 0)
(-5.94382e-21 -9.87745e-16 0)
(-5.78407e-21 -9.87744e-16 0)
(-5.55717e-21 -9.87743e-16 0)
(-5.2682e-21 -9.87742e-16 0)
(-4.92172e-21 -9.87741e-16 0)
(-4.52171e-21 -9.87741e-16 0)
(-4.07146e-21 -9.8774e-16 0)
(-3.57355e-21 -9.87739e-16 0)
(-3.02995e-21 -9.87739e-16 0)
(-2.44206e-21 -9.87738e-16 0)
(-1.81087e-21 -9.87737e-16 0)
(-1.1371e-21 -9.87737e-16 0)
(-4.21467e-22 -9.87736e-16 0)
(3.35121e-22 -9.87736e-16 0)
(1.13126e-21 -9.87736e-16 0)
(1.96477e-21 -9.87735e-16 0)
(2.83234e-21 -9.87735e-16 0)
(3.72931e-21 -9.87735e-16 0)
(4.64934e-21 -9.87734e-16 0)
(5.58426e-21 -9.87734e-16 0)
(6.52403e-21 -9.87734e-16 0)
(7.45686e-21 -9.87734e-16 0)
(8.36952e-21 -9.87735e-16 0)
(9.24793e-21 -9.87735e-16 0)
(2.73226e-20 -4.36668e-15 0)
(1.81105e-11 -1.52286e-05 0)
(-3.04867e-08 -0.000485485 0)
(-3.5107e-22 -9.87752e-16 0)
(-1.0392e-21 -9.87752e-16 0)
(-1.69262e-21 -9.87751e-16 0)
(-2.29901e-21 -9.87751e-16 0)
(-2.84826e-21 -9.87751e-16 0)
(-3.33251e-21 -9.8775e-16 0)
(-3.74603e-21 -9.8775e-16 0)
(-4.08518e-21 -9.87749e-16 0)
(-4.34812e-21 -9.87748e-16 0)
(-4.53466e-21 -9.87748e-16 0)
(-4.64595e-21 -9.87747e-16 0)
(-4.68423e-21 -9.87746e-16 0)
(-4.65253e-21 -9.87746e-16 0)
(-4.5544e-21 -9.87745e-16 0)
(-4.39369e-21 -9.87744e-16 0)
(-4.17432e-21 -9.87743e-16 0)
(-3.90011e-21 -9.87743e-16 0)
(-3.57469e-21 -9.87742e-16 0)
(-3.20136e-21 -9.87742e-16 0)
(-2.7831e-21 -9.87741e-16 0)
(-2.32257e-21 -9.8774e-16 0)
(-1.82213e-21 -9.8774e-16 0)
(-1.28392e-21 -9.87739e-16 0)
(-7.09952e-22 -9.87739e-16 0)
(-1.02265e-22 -9.87738e-16 0)
(5.36977e-22 -9.87738e-16 0)
(1.20531e-21 -9.87738e-16 0)
(1.89984e-21 -9.87737e-16 0)
(2.61708e-21 -9.87737e-16 0)
(3.35283e-21 -9.87737e-16 0)
(4.1021e-21 -9.87737e-16 0)
(4.85907e-21 -9.87737e-16 0)
(5.61711e-21 -9.87737e-16 0)
(6.36888e-21 -9.87737e-16 0)
(7.10653e-21 -9.87737e-16 0)
(7.82201e-21 -9.87737e-16 0)
(8.50736e-21 -9.87737e-16 0)
(2.60581e-20 -4.65348e-15 0)
(1.43178e-11 -1.37689e-05 0)
(-3.17706e-08 -0.000485052 0)
(-2.7354e-22 -9.87751e-16 0)
(-8.09465e-22 -9.87751e-16 0)
(-1.31764e-21 -9.87751e-16 0)
(-1.78806e-21 -9.8775e-16 0)
(-2.21243e-21 -9.8775e-16 0)
(-2.58425e-21 -9.8775e-16 0)
(-2.89869e-21 -9.87749e-16 0)
(-3.15252e-21 -9.87749e-16 0)
(-3.34394e-21 -9.87748e-16 0)
(-3.47243e-21 -9.87747e-16 0)
(-3.53854e-21 -9.87747e-16 0)
(-3.54367e-21 -9.87746e-16 0)
(-3.48989e-21 -9.87746e-16 0)
(-3.37974e-21 -9.87745e-16 0)
(-3.21608e-21 -9.87745e-16 0)
(-3.0019e-21 -9.87744e-16 0)
(-2.74026e-21 -9.87743e-16 0)
(-2.43413e-21 -9.87743e-16 0)
(-2.08644e-21 -9.87742e-16 0)
(-1.69995e-21 -9.87742e-16 0)
(-1.27731e-21 -9.87741e-16 0)
(-8.21086e-22 -9.87741e-16 0)
(-3.33782e-22 -9.8774e-16 0)
(1.82086e-22 -9.8774e-16 0)
(7.23924e-22 -9.8774e-16 0)
(1.28899e-21 -9.87739e-16 0)
(1.8743e-21 -9.87739e-16 0)
(2.47659e-21 -9.87739e-16 0)
(3.09226e-21 -9.87739e-16 0)
(3.71734e-21 -9.87739e-16 0)
(4.34747e-21 -9.87738e-16 0)
(4.97797e-21 -9.87738e-16 0)
(5.60389e-21 -9.87738e-16 0)
(6.22011e-21 -9.87738e-16 0)
(6.82149e-21 -9.87738e-16 0)
(7.40302e-21 -9.87739e-16 0)
(7.96004e-21 -9.87739e-16 0)
(2.54301e-20 -4.99028e-15 0)
(1.21933e-11 -1.24461e-05 0)
(-3.23508e-08 -0.00048461 0)
(-2.09577e-22 -9.8775e-16 0)
(-6.19865e-22 -9.8775e-16 0)
(-1.00797e-21 -9.8775e-16 0)
(-1.36566e-21 -9.8775e-16 0)
(-1.68611e-21 -9.87749e-16 0)
(-1.96389e-21 -9.87749e-16 0)
(-2.19489e-21 -9.87749e-16 0)
(-2.37627e-21 -9.87748e-16 0)
(-2.50635e-21 -9.87748e-16 0)
(-2.58444e-21 -9.87747e-16 0)
(-2.61071e-21 -9.87747e-16 0)
(-2.58607e-21 -9.87746e-16 0)
(-2.51196e-21 -9.87746e-16 0)
(-2.39029e-21 -9.87745e-16 0)
(-2.22325e-21 -9.87745e-16 0)
(-2.01323e-21 -9.87744e-16 0)
(-1.76275e-21 -9.87744e-16 0)
(-1.47438e-21 -9.87743e-16 0)
(-1.15071e-21 -9.87743e-16 0)
(-7.94319e-22 -9.87743e-16 0)
(-4.07769e-22 -9.87742e-16 0)
(6.37753e-24 -9.87742e-16 0)
(4.45545e-22 -9.87741e-16 0)
(9.07111e-22 -9.87741e-16 0)
(1.38838e-21 -9.87741e-16 0)
(1.88655e-21 -9.87741e-16 0)
(2.39868e-21 -9.8774e-16 0)
(2.9217e-21 -9.8774e-16 0)
(3.45236e-21 -9.8774e-16 0)
(3.98728e-21 -9.8774e-16 0)
(4.52296e-21 -9.8774e-16 0)
(5.05583e-21 -9.8774e-16 0)
(5.58228e-21 -9.8774e-16 0)
(6.09878e-21 -9.8774e-16 0)
(6.60193e-21 -9.8774e-16 0)
(7.08858e-21 -9.8774e-16 0)
(7.55589e-21 -9.8774e-16 0)
(2.54905e-20 -5.33368e-15 0)
(1.10582e-11 -1.12268e-05 0)
(-3.24152e-08 -0.000484163 0)
(-1.56694e-22 -9.8775e-16 0)
(-4.63061e-22 -9.8775e-16 0)
(-7.5171e-22 -9.87749e-16 0)
(-1.01584e-21 -9.87749e-16 0)
(-1.24976e-21 -9.87749e-16 0)
(-1.44891e-21 -9.87749e-16 0)
(-1.60979e-21 -9.87748e-16 0)
(-1.72994e-21 -9.87748e-16 0)
(-1.80779e-21 -9.87748e-16 0)
(-1.84261e-21 -9.87747e-16 0)
(-1.83438e-21 -9.87747e-16 0)
(-1.78368e-21 -9.87746e-16 0)
(-1.69158e-21 -9.87746e-16 0)
(-1.55953e-21 -9.87746e-16 0)
(-1.38931e-21 -9.87745e-16 0)
(-1.18288e-21 -9.87745e-16 0)
(-9.42382e-22 -9.87744e-16 0)
(-6.70065e-22 -9.87744e-16 0)
(-3.68242e-22 -9.87744e-16 0)
(-3.92764e-23 -9.87743e-16 0)
(3.14434e-22 -9.87743e-16 0)
(6.9046e-22 -9.87743e-16 0)
(1.08634e-21 -9.87742e-16 0)
(1.49957e-21 -9.87742e-16 0)
(1.9276e-21 -9.87742e-16 0)
(2.36785e-21 -9.87742e-16 0)
(2.81765e-21 -9.87741e-16 0)
(3.27432e-21 -9.87741e-16 0)
(3.73513e-21 -9.87741e-16 0)
(4.19734e-21 -9.87741e-16 0)
(4.65821e-21 -9.87741e-16 0)
(5.11506e-21 -9.87741e-16 0)
(5.56532e-21 -9.87741e-16 0)
(6.00653e-21 -9.87741e-16 0)
(6.43643e-21 -9.87741e-16 0)
(6.85301e-21 -9.87741e-16 0)
(7.25454e-21 -9.87741e-16 0)
(2.55381e-20 -5.69091e-15 0)
(1.04796e-11 -1.00888e-05 0)
(-3.20896e-08 -0.000483712 0)
(-1.12933e-22 -9.87749e-16 0)
(-3.33276e-22 -9.87749e-16 0)
(-5.39508e-22 -9.87749e-16 0)
(-7.25956e-22 -9.87749e-16 0)
(-8.8786e-22 -9.87749e-16 0)
(-1.02137e-21 -9.87749e-16 0)
(-1.12349e-21 -9.87748e-16 0)
(-1.19209e-21 -9.87748e-16 0)
(-1.22576e-21 -9.87748e-16 0)
(-1.22377e-21 -9.87747e-16 0)
(-1.18601e-21 -9.87747e-16 0)
(-1.11287e-21 -9.87747e-16 0)
(-1.00517e-21 -9.87746e-16 0)
(-8.64064e-22 -9.87746e-16 0)
(-6.91019e-22 -9.87746e-16 0)
(-4.87708e-22 -9.87745e-16 0)
(-2.55975e-22 -9.87745e-16 0)
(2.20451e-24 -9.87745e-16 0)
(2.84763e-22 -9.87744e-16 0)
(5.89562e-22 -9.87744e-16 0)
(9.14411e-22 -9.87744e-16 0)
(1.25708e-21 -9.87743e-16 0)
(1.61532e-21 -9.87743e-16 0)
(1.98686e-21 -9.87743e-16 0)
(2.36939e-21 -9.87743e-16 0)
(2.76064e-21 -9.87743e-16 0)
(3.1583e-21 -9.87742e-16 0)
(3.56013e-21 -9.87742e-16 0)
(3.96387e-21 -9.87742e-16 0)
(4.36737e-21 -9.87742e-16 0)
(4.7685e-21 -9.87742e-16 0)
(5.16528e-21 -9.87742e-16 0)
(5.55584e-21 -9.87742e-16 0)
(5.93846e-21 -9.87742e-16 0)
(6.31159e-21 -9.87742e-16 0)
(6.67389e-21 -9.87742e-16 0)
(7.0242e-21 -9.87742e-16 0)
(2.61144e-20 -6.06779e-15 0)
(1.01527e-11 -9.01838e-06 0)
(-3.14633e-08 -0.000483259 0)
(-7.67416e-23 -9.87749e-16 0)
(-2.25918e-22 -9.87749e-16 0)
(-3.6391e-22 -9.87749e-16 0)
(-4.8595e-22 -9.87749e-16 0)
(-5.88023e-22 -9.87749e-16 0)
(-6.66858e-22 -9.87748e-16 0)
(-7.19906e-22 -9.87748e-16 0)
(-7.45297e-22 -9.87748e-16 0)
(-7.4179e-22 -9.87748e-16 0)
(-7.08712e-22 -9.87747e-16 0)
(-6.45895e-22 -9.87747e-16 0)
(-5.53614e-22 -9.87747e-16 0)
(-4.32519e-22 -9.87747e-16 0)
(-2.83576e-22 -9.87746e-16 0)
(-1.08016e-22 -9.87746e-16 0)
(9.27189e-23 -9.87746e-16 0)
(3.17016e-22 -9.87745e-16 0)
(5.63132e-22 -9.87745e-16 0)
(8.29221e-22 -9.87745e-16 0)
(1.11336e-21 -9.87745e-16 0)
(1.41358e-21 -9.87744e-16 0)
(1.72788e-21 -9.87744e-16 0)
(2.05422e-21 -9.87744e-16 0)
(2.39059e-21 -9.87744e-16 0)
(2.73497e-21 -9.87744e-16 0)
(3.08538e-21 -9.87743e-16 0)
(3.43988e-21 -9.87743e-16 0)
(3.79658e-21 -9.87743e-16 0)
(4.15368e-21 -9.87743e-16 0)
(4.50947e-21 -9.87743e-16 0)
(4.86232e-21 -9.87743e-16 0)
(5.21075e-21 -9.87743e-16 0)
(5.55343e-21 -9.87743e-16 0)
(5.88914e-21 -9.87743e-16 0)
(6.21686e-21 -9.87743e-16 0)
(6.53574e-21 -9.87743e-16 0)
(6.84511e-21 -9.87743e-16 0)
(2.66125e-20 -6.45676e-15 0)
(9.85967e-12 -8.00661e-06 0)
(-3.06022e-08 -0.000482803 0)
(-4.68796e-23 -9.87749e-16 0)
(-1.37322e-22 -9.87749e-16 0)
(-2.18955e-22 -9.87749e-16 0)
(-2.87742e-22 -9.87749e-16 0)
(-3.40268e-22 -9.87748e-16 0)
(-3.73743e-22 -9.87748e-16 0)
(-3.85971e-22 -9.87748e-16 0)
(-3.7533e-22 -9.87748e-16 0)
(-3.40721e-22 -9.87748e-16 0)
(-2.81531e-22 -9.87747e-16 0)
(-1.97576e-22 -9.87747e-16 0)
(-8.90581e-23 -9.87747e-16 0)
(4.34911e-23 -9.87747e-16 0)
(1.99254e-22 -9.87747e-16 0)
(3.77172e-22 -9.87746e-16 0)
(5.75988e-22 -9.87746e-16 0)
(7.9428e-22 -9.87746e-16 0)
(1.0305e-21 -9.87746e-16 0)
(1.28299e-21 -9.87745e-16 0)
(1.55004e-21 -9.87745e-16 0)
(1.82986e-21 -9.87745e-16 0)
(2.12066e-21 -9.87745e-16 0)
(2.42063e-21 -9.87745e-16 0)
(2.72796e-21 -9.87744e-16 0)
(3.04089e-21 -9.87744e-16 0)
(3.35769e-21 -9.87744e-16 0)
(3.67673e-21 -9.87744e-16 0)
(3.99641e-21 -9.87744e-16 0)
(4.31528e-21 -9.87744e-16 0)
(4.63196e-21 -9.87744e-16 0)
(4.94521e-21 -9.87744e-16 0)
(5.25393e-21 -9.87744e-16 0)
(5.55714e-21 -9.87744e-16 0)
(5.85401e-21 -9.87744e-16 0)
(6.14385e-21 -9.87744e-16 0)
(6.42611e-21 -9.87744e-16 0)
(6.70035e-21 -9.87744e-16 0)
(2.74564e-20 -6.80276e-15 0)
(9.46321e-12 -7.04801e-06 0)
(-2.95495e-08 -0.000482347 0)
(-2.23531e-23 -9.87749e-16 0)
(-6.45466e-23 -9.87749e-16 0)
(-9.98579e-23 -9.87749e-16 0)
(-1.24835e-22 -9.87749e-16 0)
(-1.36552e-22 -9.87748e-16 0)
(-1.32603e-22 -9.87748e-16 0)
(-1.11088e-22 -9.87748e-16 0)
(-7.05859e-23 -9.87748e-16 0)
(-1.01249e-23 -9.87748e-16 0)
(7.08556e-23 -9.87748e-16 0)
(1.72542e-22 -9.87747e-16 0)
(2.94787e-22 -9.87747e-16 0)
(4.37148e-22 -9.87747e-16 0)
(5.98926e-22 -9.87747e-16 0)
(7.79203e-22 -9.87747e-16 0)
(9.76871e-22 -9.87746e-16 0)
(1.19067e-21 -9.87746e-16 0)
(1.41921e-21 -9.87746e-16 0)
(1.66101e-21 -9.87746e-16 0)
(1.9145e-21 -9.87746e-16 0)
(2.17807e-21 -9.87746e-16 0)
(2.45009e-21 -9.87745e-16 0)
(2.72891e-21 -9.87745e-16 0)
(3.0129e-21 -9.87745e-16 0)
(3.30048e-21 -9.87745e-16 0)
(3.59013e-21 -9.87745e-16 0)
(3.88038e-21 -9.87745e-16 0)
(4.16989e-21 -9.87745e-16 0)
(4.4574e-21 -9.87745e-16 0)
(4.74182e-21 -9.87745e-16 0)
(5.02216e-21 -9.87745e-16 0)
(5.29759e-21 -9.87745e-16 0)
(5.56743e-21 -9.87745e-16 0)
(5.83114e-21 -9.87745e-16 0)
(6.08833e-21 -9.87745e-16 0)
(6.33875e-21 -9.87745e-16 0)
(6.58227e-21 -9.87745e-16 0)
(2.77723e-20 -7.01505e-15 0)
(8.89237e-12 -6.13931e-06 0)
(-2.83349e-08 -0.000481891 0)
(-2.36478e-24 -9.87749e-16 0)
(-5.23218e-24 -9.87749e-16 0)
(-2.77269e-24 -9.87749e-16 0)
(7.99572e-24 -9.87749e-16 0)
(2.96089e-23 -9.87748e-16 0)
(6.41609e-23 -9.87748e-16 0)
(1.13317e-22 -9.87748e-16 0)
(1.78335e-22 -9.87748e-16 0)
(2.60088e-22 -9.87748e-16 0)
(3.59095e-22 -9.87748e-16 0)
(4.75548e-22 -9.87748e-16 0)
(6.09348e-22 -9.87747e-16 0)
(7.60131e-22 -9.87747e-16 0)
(9.27303e-22 -9.87747e-16 0)
(1.11007e-21 -9.87747e-16 0)
(1.30744e-21 -9.87747e-16 0)
(1.51831e-21 -9.87747e-16 0)
(1.74141e-21 -9.87747e-16 0)
(1.9754e-21 -9.87746e-16 0)
(2.21885e-21 -9.87746e-16 0)
(2.47025e-21 -9.87746e-16 0)
(2.7281e-21 -9.87746e-16 0)
(2.99084e-21 -9.87746e-16 0)
(3.25696e-21 -9.87746e-16 0)
(3.52495e-21 -9.87746e-16 0)
(3.7934e-21 -9.87746e-16 0)
(4.06093e-21 -9.87745e-16 0)
(4.32631e-21 -9.87745e-16 0)
(4.5884e-21 -9.87745e-16 0)
(4.84624e-21 -9.87745e-16 0)
(5.09898e-21 -9.87745e-16 0)
(5.34599e-21 -9.87745e-16 0)
(5.58679e-21 -9.87745e-16 0)
(5.82105e-21 -9.87745e-16 0)