/*--------------------------------*- C++ -*----------------------------------*\
  =========                 |
  \\      /  F ield         | OpenFOAM: The Open Source CFD Toolbox
   \\    /   O peration     | Website:  https://openfoam.org
    \\  /    A nd           | Version:  10
     \\/     M anipulation  |
\*---------------------------------------------------------------------------*/
FoamFile
{
    format      ascii;
    class       surfaceScalarField;
    location    "0.047";
    object      phi;
}
// * * * * * * * * * * * * * * * * * * * * * * * * * * * * * * * * * * * * * //

dimensions      [0 3 -1 0 0 0 0];

internalField   nonuniform List<scalar> 
7780
(
2.50003e-09
-3.70114e-14
2.50013e-09
-1.09964e-13
2.5003e-09
-1.83453e-13
2.50054e-09
-2.57292e-13
2.50087e-09
-3.31093e-13
2.50125e-09
-4.05225e-13
2.50173e-09
-4.79435e-13
2.50226e-09
-5.5422e-13
2.50288e-09
-6.29206e-13
2.50357e-09
-7.05035e-13
2.50435e-09
-7.81202e-13
2.50518e-09
-8.58507e-13
2.50612e-09
-9.36311e-13
2.50711e-09
-1.01556e-12
2.5082e-09
-1.0955e-12
2.50936e-09
-1.17721e-12
2.51062e-09
-1.25983e-12
2.51194e-09
-1.34461e-12
2.51337e-09
-1.43058e-12
2.51486e-09
-1.51911e-12
2.51647e-09
-1.6092e-12
2.51815e-09
-1.70231e-12
2.51995e-09
-1.79737e-12
2.52182e-09
-1.89597e-12
2.52382e-09
-1.99694e-12
2.5259e-09
-2.10199e-12
2.52811e-09
-2.20991e-12
2.53041e-09
-2.32246e-12
2.53285e-09
-2.43838e-12
2.53539e-09
-2.55954e-12
2.53808e-09
-2.68461e-12
2.54087e-09
-2.81553e-12
2.54382e-09
-2.95093e-12
2.54689e-09
-3.09283e-12
2.55014e-09
-3.23978e-12
2.5535e-09
-3.39391e-12
2.55706e-09
-3.55369e-12
2.56076e-09
-3.72132e-12
2.56466e-09
-3.89523e-12
2.56871e-09
-4.07768e-12
2.57299e-09
-4.26703e-12
2.57742e-09
-4.46562e-12
2.58211e-09
-4.67175e-12
2.58696e-09
-4.88781e-12
2.59209e-09
-5.11203e-12
2.5974e-09
-5.34685e-12
2.603e-09
-5.59042e-12
2.60882e-09
-5.84524e-12
2.61494e-09
-6.10938e-12
2.62129e-09
-6.38534e-12
2.62798e-09
-6.67109e-12
2.63492e-09
-6.96916e-12
2.64221e-09
-7.2774e-12
2.64977e-09
-7.59831e-12
2.65772e-09
-7.92959e-12
2.66596e-09
-8.27372e-12
2.6746e-09
-8.62818e-12
2.68356e-09
-8.99537e-12
2.69295e-09
-9.37255e-12
2.70267e-09
-9.76199e-12
2.71285e-09
-1.01607e-11
2.72339e-09
-1.05706e-11
2.73439e-09
-1.09884e-11
2.74577e-09
-1.1416e-11
2.75763e-09
-1.18495e-11
2.76989e-09
-1.22903e-11
2.78264e-09
-1.27342e-11
2.79578e-09
-1.31823e-11
2.80942e-09
-1.36297e-11
2.82347e-09
-1.40771e-11
2.838e-09
-1.45191e-11
2.85292e-09
-1.49559e-11
2.86831e-09
-1.53818e-11
2.88407e-09
-1.57963e-11
2.90028e-09
-1.61934e-11
2.91681e-09
-1.65725e-11
2.93375e-09
-1.69273e-11
2.95097e-09
-1.72571e-11
2.96854e-09
-1.75556e-11
2.98632e-09
-1.78225e-11
3.00438e-09
-1.80518e-11
3.02259e-09
-1.82436e-11
3.04099e-09
-1.83929e-11
3.05946e-09
-1.85004e-11
3.07802e-09
-1.85621e-11
3.09657e-09
-1.85797e-11
3.11512e-09
-1.85505e-11
3.13356e-09
-1.84773e-11
3.15192e-09
-1.83584e-11
3.17009e-09
-1.81977e-11
3.18808e-09
-1.79946e-11
3.2058e-09
-1.77537e-11
3.22327e-09
-1.74755e-11
3.2404e-09
-1.71648e-11
3.25722e-09
-1.68231e-11
3.27364e-09
-1.64552e-11
3.28969e-09
-1.60629e-11
3.30531e-09
-1.56511e-11
3.32052e-09
-1.52218e-11
3.33527e-09
-1.47795e-11
3.34957e-09
-1.43263e-11
3.36341e-09
-1.38661e-11
3.37679e-09
-1.3401e-11
3.38969e-09
-1.29343e-11
3.40213e-09
-1.24679e-11
3.41411e-09
-1.20045e-11
3.42562e-09
-1.15457e-11
3.43668e-09
-1.10937e-11
3.4473e-09
-1.06498e-11
3.45748e-09
-1.02156e-11
3.46723e-09
-9.79228e-12
3.47658e-09
-9.38077e-12
3.48552e-09
-8.98211e-12
3.49408e-09
-8.59675e-12
3.50226e-09
-8.22557e-12
3.51009e-09
-7.86859e-12
3.51757e-09
-7.52656e-12
3.52473e-09
-7.19913e-12
3.53156e-09
-6.88696e-12
3.53811e-09
-6.58936e-12
3.54436e-09
-6.30693e-12
3.55036e-09
-6.03869e-12
3.55608e-09
-5.78519e-12
3.56159e-09
-5.54522e-12
3.56684e-09
-5.3193e-12
3.5719e-09
-5.10603e-12
3.57674e-09
-4.90593e-12
3.58142e-09
-4.71745e-12
3.58589e-09
-4.54117e-12
3.59022e-09
-4.37539e-12
3.59436e-09
-4.22084e-12
3.59839e-09
-4.0757e-12
3.60225e-09
-3.94099e-12
3.60602e-09
-3.81479e-12
3.60963e-09
-3.69858e-12
3.61318e-09
-3.59034e-12
3.61658e-09
-3.49219e-12
3.61993e-09
-3.40203e-12
3.62316e-09
-3.32275e-12
3.62636e-09
-3.25212e-12
3.62945e-09
-3.1939e-12
3.63255e-09
-3.14562e-12
3.63554e-09
-3.11185e-12
3.63858e-09
-3.08973e-12
3.64154e-09
-3.08439e-12
3.64457e-09
-3.09238e-12
3.64756e-09
-3.11893e-12
3.65065e-09
-3.15981e-12
3.65373e-09
-3.21962e-12
3.65693e-09
-3.29326e-12
3.66018e-09
-3.38377e-12
3.66354e-09
-3.48522e-12
3.66701e-09
-3.59795e-12
3.67056e-09
-3.71558e-12
3.67427e-09
-3.8346e-12
3.678e-09
-3.94888e-12
3.68194e-09
-4.05004e-12
3.6858e-09
-4.13344e-12
3.6899e-09
-4.18503e-12
3.69375e-09
-4.20341e-12
3.69787e-09
-4.16847e-12
3.70153e-09
-4.08421e-12
3.70544e-09
-3.92454e-12
3.70864e-09
-3.70115e-12
3.71206e-09
-3.38231e-12
3.71447e-09
-2.98941e-12
3.71706e-09
-2.48567e-12
3.71831e-09
-1.90405e-12
3.71968e-09
-1.20337e-12
3.71941e-09
-4.27732e-13
3.71917e-09
4.69504e-13
3.71699e-09
1.43201e-12
3.71478e-09
2.50992e-12
3.71037e-09
3.6363e-12
3.70587e-09
4.86549e-12
3.69897e-09
6.12158e-12
3.69192e-09
7.46299e-12
3.68234e-09
8.80671e-12
3.6726e-09
1.0215e-11
3.66024e-09
1.15997e-11
3.64772e-09
1.30267e-11
3.63259e-09
1.44044e-11
3.61733e-09
1.58018e-11
3.5995e-09
1.71259e-11
3.58161e-09
1.8448e-11
3.56127e-09
1.96752e-11
3.54097e-09
2.08808e-11
3.51836e-09
2.19731e-11
3.49592e-09
2.3027e-11
3.47136e-09
2.39531e-11
3.44713e-09
2.48276e-11
3.42098e-09
2.55638e-11
3.39534e-09
2.62394e-11
3.36799e-09
2.677e-11
3.34134e-09
2.72357e-11
3.3132e-09
2.75537e-11
3.28565e-09
2.78067e-11
3.25785e-09
2.79178e-11
3.22988e-09
2.79667e-11
2.77796e-11
2.50003e-09
-7.38686e-14
2.50013e-09
-2.19982e-13
2.5003e-09
-3.66773e-13
2.50054e-09
-5.14135e-13
2.50086e-09
-6.61763e-13
2.50125e-09
-8.09847e-13
2.50172e-09
-9.58432e-13
2.50225e-09
-1.10773e-12
2.50287e-09
-1.25784e-12
2.50356e-09
-1.40901e-12
2.50433e-09
-1.56135e-12
2.50517e-09
-1.71518e-12
2.50609e-09
-1.87061e-12
2.50709e-09
-2.02805e-12
2.50817e-09
-2.1876e-12
2.50932e-09
-2.34973e-12
2.51057e-09
-2.51459e-12
2.51189e-09
-2.68271e-12
2.51331e-09
-2.85425e-12
2.5148e-09
-3.02981e-12
2.5164e-09
-3.20959e-12
2.51807e-09
-3.39422e-12
2.51985e-09
-3.58396e-12
2.52171e-09
-3.77948e-12
2.52369e-09
-3.98105e-12
2.52576e-09
-4.1894e-12
2.52795e-09
-4.40483e-12
2.53024e-09
-4.6281e-12
2.53266e-09
-4.85953e-12
2.53518e-09
-5.09993e-12
2.53784e-09
-5.34963e-12
2.54061e-09
-5.60948e-12
2.54354e-09
-5.87982e-12
2.54659e-09
-6.16154e-12
2.54981e-09
-6.45499e-12
2.55315e-09
-6.76109e-12
2.55668e-09
-7.0802e-12
2.56035e-09
-7.41326e-12
2.56421e-09
-7.76063e-12
2.56824e-09
-8.12329e-12
2.57247e-09
-8.50159e-12
2.57688e-09
-8.89651e-12
2.58152e-09
-9.30841e-12
2.58635e-09
-9.73827e-12
2.59143e-09
-1.01864e-11
2.59671e-09
-1.06538e-11
2.60226e-09
-1.11408e-11
2.60804e-09
-1.16483e-11
2.61411e-09
-1.21766e-11
2.62043e-09
-1.27265e-11
2.62706e-09
-1.32983e-11
2.63396e-09
-1.38927e-11
2.6412e-09
-1.45098e-11
2.64872e-09
-1.51502e-11
2.65661e-09
-1.58138e-11
2.66481e-09
-1.65011e-11
2.6734e-09
-1.72117e-11
2.68233e-09
-1.79459e-11
2.69166e-09
-1.87028e-11
2.70135e-09
-1.94823e-11
2.71148e-09
-2.02832e-11
2.72199e-09
-2.11049e-11
2.73295e-09
-2.19455e-11
2.74431e-09
-2.28039e-11
2.75615e-09
-2.36773e-11
2.76839e-09
-2.45638e-11
2.78112e-09
-2.546e-11
2.79427e-09
-2.63628e-11
2.80792e-09
-2.7268e-11
2.82198e-09
-2.81714e-11
2.83654e-09
-2.90676e-11
2.8515e-09
-2.99517e-11
2.86694e-09
-3.08171e-11
2.88277e-09
-3.1658e-11
2.89905e-09
-3.24671e-11
2.91569e-09
-3.32377e-11
2.93272e-09
-3.39623e-11
2.95007e-09
-3.46339e-11
2.96776e-09
-3.5245e-11
2.9857e-09
-3.57893e-11
3.00391e-09
-3.62598e-11
3.02228e-09
-3.66512e-11
3.04085e-09
-3.69583e-11
3.05949e-09
-3.71773e-11
3.07824e-09
-3.73051e-11
3.09697e-09
-3.73403e-11
3.11569e-09
-3.72819e-11
3.13432e-09
-3.7131e-11
3.15284e-09
-3.6889e-11
3.17117e-09
-3.65593e-11
3.18932e-09
-3.61454e-11
3.20718e-09
-3.56524e-11
3.22478e-09
-3.50856e-11
3.24204e-09
-3.44513e-11
3.25896e-09
-3.37558e-11
3.27548e-09
-3.30061e-11
3.29161e-09
-3.22089e-11
3.3073e-09
-3.13715e-11
3.32256e-09
-3.05005e-11
3.33735e-09
-2.96028e-11
3.35169e-09
-2.86846e-11
3.36555e-09
-2.77525e-11
3.37893e-09
-2.68118e-11
3.39183e-09
-2.58682e-11
3.40426e-09
-2.49265e-11
3.41622e-09
-2.39913e-11
3.42771e-09
-2.30666e-11
3.43873e-09
-2.2156e-11
3.44931e-09
-2.12628e-11
3.45945e-09
-2.03896e-11
3.46915e-09
-1.95389e-11
3.47845e-09
-1.87127e-11
3.48734e-09
-1.79127e-11
3.49584e-09
-1.71402e-11
3.50396e-09
-1.63962e-11
3.51174e-09
-1.56815e-11
3.51915e-09
-1.49967e-11
3.52625e-09
-1.43419e-11
3.53303e-09
-1.37174e-11
3.53952e-09
-1.3123e-11
3.54571e-09
-1.25583e-11
3.55165e-09
-1.20231e-11
3.55732e-09
-1.15166e-11
3.56276e-09
-1.10382e-11
3.56797e-09
-1.05872e-11
3.57297e-09
-1.01625e-11
3.57776e-09
-9.76332e-12
3.58238e-09
-9.38832e-12
3.58681e-09
-9.03674e-12
3.59109e-09
-8.70709e-12
3.59519e-09
-8.3987e-12
3.59917e-09
-8.11004e-12
3.60299e-09
-7.84068e-12
3.60671e-09
-7.58926e-12
3.61028e-09
-7.3558e-12
3.61378e-09
-7.13931e-12
3.61713e-09
-6.94046e-12
3.62043e-09
-6.75887e-12
3.62361e-09
-6.596e-12
3.62675e-09
-6.45226e-12
3.62978e-09
-6.32984e-12
3.63281e-09
-6.23002e-12
3.63574e-09
-6.15543e-12
3.63869e-09
-6.10807e-12
3.64158e-09
-6.09046e-12
3.64452e-09
-6.10488e-12
3.64743e-09
-6.15296e-12
3.65042e-09
-6.23656e-12
3.65343e-09
-6.35535e-12
3.65654e-09
-6.50987e-12
3.65972e-09
-6.69669e-12
3.66302e-09
-6.91396e-12
3.66644e-09
-7.15409e-12
3.66998e-09
-7.41185e-12
3.67368e-09
-7.67478e-12
3.67746e-09
-7.93367e-12
3.68145e-09
-8.17108e-12
3.68543e-09
-8.37391e-12
3.68965e-09
-8.5206e-12
3.69371e-09
-8.59515e-12
3.69802e-09
-8.57365e-12
3.70197e-09
-8.43927e-12
3.70615e-09
-8.16842e-12
3.70973e-09
-7.74617e-12
3.71346e-09
-7.15207e-12
3.71632e-09
-6.37591e-12
3.71924e-09
-5.40305e-12
3.721e-09
-4.23101e-12
3.72269e-09
-2.85308e-12
3.72293e-09
-1.27381e-12
3.72299e-09
5.08882e-13
3.72131e-09
2.48038e-12
3.71934e-09
4.63384e-12
3.71538e-09
6.94793e-12
3.71104e-09
9.41087e-12
3.70453e-09
1.19954e-11
3.69756e-09
1.46867e-11
3.68829e-09
1.74534e-11
3.67853e-09
2.02795e-11
3.6664e-09
2.31312e-11
3.65378e-09
2.59932e-11
3.63878e-09
2.88305e-11
3.62334e-09
3.16299e-11
3.60557e-09
3.43567e-11
3.58742e-09
3.70005e-11
3.56706e-09
3.95279e-11
3.54643e-09
4.19323e-11
3.52374e-09
4.41827e-11
3.50092e-09
4.62765e-11
3.47625e-09
4.81859e-11
3.45161e-09
4.9913e-11
3.42531e-09
5.14333e-11
3.39925e-09
5.27538e-11
3.37174e-09
5.38541e-11
3.34467e-09
5.47459e-11
3.31638e-09
5.54122e-11
3.28845e-09
5.58714e-11
3.26043e-09
5.60993e-11
3.23223e-09
5.6181e-11
5.58064e-11
2.50003e-09
-1.10508e-13
2.50013e-09
-3.29615e-13
2.5003e-09
-5.49428e-13
2.50054e-09
-7.69984e-13
2.50086e-09
-9.90933e-13
2.50124e-09
-1.21249e-12
2.50171e-09
-1.4348e-12
2.50224e-09
-1.65804e-12
2.50286e-09
-1.88244e-12
2.50354e-09
-2.10826e-12
2.5043e-09
-2.33577e-12
2.50513e-09
-2.56531e-12
2.50605e-09
-2.79721e-12
2.50704e-09
-3.03187e-12
2.50811e-09
-3.26969e-12
2.50925e-09
-3.51115e-12
2.51049e-09
-3.75671e-12
2.51179e-09
-4.00692e-12
2.5132e-09
-4.2623e-12
2.51467e-09
-4.52347e-12
2.51625e-09
-4.79102e-12
2.5179e-09
-5.06563e-12
2.51966e-09
-5.34795e-12
2.5215e-09
-5.63871e-12
2.52345e-09
-5.93862e-12
2.52549e-09
-6.24847e-12
2.52765e-09
-6.56902e-12
2.5299e-09
-6.90109e-12
2.53229e-09
-7.24551e-12
2.53477e-09
-7.60313e-12
2.5374e-09
-7.97483e-12
2.54013e-09
-8.3615e-12
2.54301e-09
-8.76405e-12
2.54601e-09
-9.18342e-12
2.54918e-09
-9.62054e-12
2.55247e-09
-1.00764e-11
2.55594e-09
-1.05519e-11
2.55955e-09
-1.10481e-11
2.56336e-09
-1.1566e-11
2.56732e-09
-1.21066e-11
2.5715e-09
-1.26709e-11
2.57583e-09
-1.32599e-11
2.5804e-09
-1.38746e-11
2.58516e-09
-1.45161e-11
2.59016e-09
-1.51853e-11
2.59537e-09
-1.58833e-11
2.60084e-09
-1.66109e-11
2.60654e-09
-1.73693e-11
2.61252e-09
-1.81592e-11
2.61875e-09
-1.89816e-11
2.6253e-09
-1.98372e-11
2.63211e-09
-2.07269e-11
2.63925e-09
-2.16513e-11
2.64669e-09
-2.26109e-11
2.65449e-09
-2.36062e-11
2.6626e-09
-2.46374e-11
2.67109e-09
-2.57046e-11
2.67993e-09
-2.68078e-11
2.68918e-09
-2.79465e-11
2.69879e-09
-2.912e-11
2.70884e-09
-3.03273e-11
2.71927e-09
-3.1567e-11
2.73017e-09
-3.28371e-11
2.74147e-09
-3.41354e-11
2.75326e-09
-3.54587e-11
2.76547e-09
-3.68035e-11
2.77818e-09
-3.81655e-11
2.79133e-09
-3.95396e-11
2.80499e-09
-4.092e-11
2.81909e-09
-4.23e-11
2.8337e-09
-4.3672e-11
2.84874e-09
-4.50276e-11
2.86429e-09
-4.63577e-11
2.88025e-09
-4.76523e-11
2.89669e-09
-4.89007e-11
2.91351e-09
-5.00918e-11
2.93077e-09
-5.12142e-11
2.94836e-09
-5.22561e-11
2.96632e-09
-5.32061e-11
2.98456e-09
-5.40531e-11
3.00308e-09
-5.47866e-11
3.0218e-09
-5.53972e-11
3.04072e-09
-5.5877e-11
3.05973e-09
-5.62192e-11
3.07884e-09
-5.64193e-11
3.09795e-09
-5.64744e-11
3.11704e-09
-5.63836e-11
3.13603e-09
-5.61482e-11
3.15491e-09
-5.57713e-11
3.17358e-09
-5.52577e-11
3.19204e-09
-5.4614e-11
3.2102e-09
-5.38479e-11
3.22807e-09
-5.29685e-11
3.24558e-09
-5.19855e-11
3.26272e-09
-5.09095e-11
3.27944e-09
-4.97512e-11
3.29573e-09
-4.85217e-11
3.31156e-09
-4.7232e-11
3.32694e-09
-4.58927e-11
3.34182e-09
-4.45144e-11
3.35622e-09
-4.3107e-11
3.37011e-09
-4.16799e-11
3.38352e-09
-4.02421e-11
3.39642e-09
-3.88017e-11
3.40883e-09
-3.73662e-11
3.42075e-09
-3.59425e-11
3.43219e-09
-3.45366e-11
3.44315e-09
-3.3154e-11
3.45365e-09
-3.17994e-11
3.4637e-09
-3.0477e-11
3.47331e-09
-2.91902e-11
3.48251e-09
-2.79421e-11
3.49128e-09
-2.67348e-11
3.49968e-09
-2.55705e-11
3.50768e-09
-2.44505e-11
3.51534e-09
-2.33757e-11
3.52263e-09
-2.2347e-11
3.52961e-09
-2.13645e-11
3.53627e-09
-2.04283e-11
3.54264e-09
-1.95381e-11
3.54872e-09
-1.86933e-11
3.55454e-09
-1.78933e-11
3.5601e-09
-1.7137e-11
3.56544e-09
-1.64234e-11
3.57054e-09
-1.57511e-11
3.57544e-09
-1.51187e-11
3.58014e-09
-1.45247e-11
3.58467e-09
-1.39672e-11
3.589e-09
-1.34447e-11
3.5932e-09
-1.2955e-11
3.59722e-09
-1.24968e-11
3.60113e-09
-1.20677e-11
3.60487e-09
-1.16667e-11
3.60852e-09
-1.12915e-11
3.61203e-09
-1.09419e-11
3.61545e-09
-1.06162e-11
3.61873e-09
-1.03152e-11
3.62196e-09
-1.00382e-11
3.62505e-09
-9.78717e-12
3.62811e-09
-9.56305e-12
3.63104e-09
-9.36914e-12
3.63397e-09
-9.20795e-12
3.63679e-09
-9.08369e-12
3.63962e-09
-9.00045e-12
3.64238e-09
-8.9624e-12
3.64519e-09
-8.97472e-12
3.64795e-09
-9.04012e-12
3.65081e-09
-9.16385e-12
3.65368e-09
-9.34544e-12
3.65667e-09
-9.58867e-12
3.65973e-09
-9.88791e-12
3.66295e-09
-1.02436e-11
3.66631e-09
-1.06431e-11
3.66983e-09
-1.10815e-11
3.67356e-09
-1.15379e-11
3.67743e-09
-1.20006e-11
3.68157e-09
-1.24401e-11
3.68578e-09
-1.28373e-11
3.69029e-09
-1.31561e-11
3.69474e-09
-1.33709e-11
3.6995e-09
-1.34421e-11
3.70401e-09
-1.33408e-11
3.70878e-09
-1.30289e-11
3.71304e-09
-1.24786e-11
3.71749e-09
-1.16589e-11
3.72113e-09
-1.05476e-11
3.72483e-09
-9.1257e-12
3.7274e-09
-7.38193e-12
3.72988e-09
-5.31356e-12
3.73091e-09
-2.91894e-12
3.7317e-09
-2.04309e-13
3.73072e-09
2.81728e-12
3.72937e-09
6.12128e-12
3.72599e-09
9.68674e-12
3.7221e-09
1.34794e-11
3.716e-09
1.74712e-11
3.7093e-09
2.16214e-11
3.70025e-09
2.58976e-11
3.69056e-09
3.02564e-11
3.67845e-09
3.46631e-11
3.6657e-09
3.90742e-11
3.65052e-09
4.34552e-11
3.63475e-09
4.77649e-11
3.61663e-09
5.19702e-11
3.59799e-09
5.60338e-11
3.57711e-09
5.99254e-11
3.55584e-09
6.36133e-11
3.53251e-09
6.70711e-11
3.50893e-09
7.02735e-11
3.4835e-09
7.31988e-11
3.45802e-09
7.58293e-11
3.43091e-09
7.81487e-11
3.40395e-09
8.01468e-11
3.3756e-09
8.18137e-11
3.34762e-09
8.31465e-11
3.31849e-09
8.41411e-11
3.28969e-09
8.48064e-11
3.26082e-09
8.51196e-11
3.23181e-09
8.52135e-11
8.45842e-11
2.50003e-09
-1.46911e-13
2.50012e-09
-4.3857e-13
2.50029e-09
-7.30952e-13
2.50053e-09
-1.02419e-12
2.50085e-09
-1.31785e-12
2.50123e-09
-1.61221e-12
2.5017e-09
-1.90742e-12
2.50223e-09
-2.20372e-12
2.50283e-09
-2.50139e-12
2.50351e-09
-2.80075e-12
2.50427e-09
-3.10216e-12
2.50509e-09
-3.40605e-12
2.506e-09
-3.71287e-12
2.50697e-09
-4.02314e-12
2.50803e-09
-4.33742e-12
2.50915e-09
-4.65632e-12
2.51037e-09
-4.98049e-12
2.51166e-09
-5.31063e-12
2.51304e-09
-5.64749e-12
2.51448e-09
-5.99187e-12
2.51603e-09
-6.34459e-12
2.51765e-09
-6.70652e-12
2.51938e-09
-7.07858e-12
2.52118e-09
-7.46172e-12
2.5231e-09
-7.85691e-12
2.52509e-09
-8.2652e-12
2.52721e-09
-8.68761e-12
2.52941e-09
-9.12525e-12
2.53175e-09
-9.57922e-12
2.53417e-09
-1.00507e-11
2.53674e-09
-1.05408e-11
2.53941e-09
-1.10507e-11
2.54223e-09
-1.15818e-11
2.54515e-09
-1.21351e-11
2.54825e-09
-1.27121e-11
2.55146e-09
-1.33139e-11
2.55485e-09
-1.39419e-11
2.55838e-09
-1.45974e-11
2.5621e-09
-1.52818e-11
2.56596e-09
-1.59964e-11
2.57004e-09
-1.67426e-11
2.57428e-09
-1.75218e-11
2.57874e-09
-1.83353e-11
2.58339e-09
-1.91845e-11
2.58828e-09
-2.00709e-11
2.59336e-09
-2.09957e-11
2.59872e-09
-2.19602e-11
2.60429e-09
-2.2966e-11
2.61015e-09
-2.40141e-11
2.61625e-09
-2.5106e-11
2.62266e-09
-2.62426e-11
2.62933e-09
-2.74252e-11
2.63634e-09
-2.86548e-11
2.64364e-09
-2.99323e-11
2.65129e-09
-3.12583e-11
2.65926e-09
-3.26334e-11
2.66762e-09
-3.40581e-11
2.67632e-09
-3.55323e-11
2.68544e-09
-3.70557e-11
2.69492e-09
-3.86279e-11
2.70484e-09
-4.02476e-11
2.71516e-09
-4.19134e-11
2.72595e-09
-4.36231e-11
2.73716e-09
-4.53737e-11
2.74887e-09
-4.71617e-11
2.76102e-09
-4.89827e-11
2.77369e-09
-5.08311e-11
2.78683e-09
-5.27004e-11
2.80049e-09
-5.4583e-11
2.81463e-09
-5.647e-11
2.82932e-09
-5.83513e-11
2.84448e-09
-6.02155e-11
2.86017e-09
-6.20498e-11
2.87633e-09
-6.38403e-11
2.89301e-09
-6.55721e-11
2.91011e-09
-6.72291e-11
2.9277e-09
-6.87947e-11
2.94566e-09
-7.02519e-11
2.96404e-09
-7.15839e-11
2.98273e-09
-7.27739e-11
3.00175e-09
-7.38067e-11
3.02099e-09
-7.46678e-11
3.04046e-09
-7.53452e-11
3.06004e-09
-7.5829e-11
3.07973e-09
-7.61122e-11
3.09942e-09
-7.61905e-11
3.11909e-09
-7.60628e-11
3.13865e-09
-7.5731e-11
3.15807e-09
-7.52001e-11
3.17726e-09
-7.44775e-11
3.19621e-09
-7.35731e-11
3.21483e-09
-7.24988e-11
3.23312e-09
-7.12679e-11
3.251e-09
-6.98951e-11
3.26848e-09
-6.83957e-11
3.28548e-09
-6.67855e-11
3.30203e-09
-6.50804e-11
3.31806e-09
-6.32959e-11
3.3336e-09
-6.14474e-11
3.3486e-09
-5.95494e-11
3.36309e-09
-5.76157e-11
3.37704e-09
-5.56594e-11
3.39046e-09
-5.36924e-11
3.40335e-09
-5.17259e-11
3.41573e-09
-4.97699e-11
3.42759e-09
-4.78334e-11
3.43894e-09
-4.59247e-11
3.44981e-09
-4.40508e-11
3.46019e-09
-4.22179e-11
3.47011e-09
-4.04315e-11
3.47957e-09
-3.86959e-11
3.48861e-09
-3.7015e-11
3.49722e-09
-3.53917e-11
3.50544e-09
-3.38285e-11
3.51327e-09
-3.23269e-11
3.52074e-09
-3.08883e-11
3.52786e-09
-2.95133e-11
3.53465e-09
-2.8202e-11
3.54112e-09
-2.69544e-11
3.54731e-09
-2.57699e-11
3.55321e-09
-2.46475e-11
3.55886e-09
-2.35862e-11
3.56424e-09
-2.25846e-11
3.56941e-09
-2.16408e-11
3.57435e-09
-2.07532e-11
3.5791e-09
-1.99196e-11
3.58365e-09
-1.91378e-11
3.58804e-09
-1.84052e-11
3.59225e-09
-1.77195e-11
3.59632e-09
-1.70773e-11
3.60022e-09
-1.64768e-11
3.60402e-09
-1.59139e-11
3.60766e-09
-1.53872e-11
3.61121e-09
-1.48928e-11
3.61461e-09
-1.443e-11
3.61794e-09
-1.39957e-11
3.62113e-09
-1.35908e-11
3.62425e-09
-1.32137e-11
3.62723e-09
-1.28671e-11
3.63017e-09
-1.25522e-11
3.63298e-09
-1.22736e-11
3.63575e-09
-1.20356e-11
3.63841e-09
-1.18444e-11
3.64107e-09
-1.17072e-11
3.64363e-09
-1.16308e-11
3.64623e-09
-1.16249e-11
3.64877e-09
-1.16945e-11
3.6514e-09
-1.18503e-11
3.65403e-09
-1.20932e-11
3.65681e-09
-1.24328e-11
3.65966e-09
-1.28625e-11
3.66272e-09
-1.33874e-11
3.66594e-09
-1.3991e-11
3.6694e-09
-1.46702e-11
3.67313e-09
-1.53958e-11
3.6771e-09
-1.61537e-11
3.68142e-09
-1.69013e-11
3.68596e-09
-1.7612e-11
3.69089e-09
-1.82315e-11
3.69593e-09
-1.87219e-11
3.70137e-09
-1.90225e-11
3.70672e-09
-1.90883e-11
3.71243e-09
-1.88604e-11
3.71777e-09
-1.82944e-11
3.72336e-09
-1.73421e-11
3.72823e-09
-1.59677e-11
3.73319e-09
-1.4142e-11
3.73705e-09
-1.18463e-11
3.74081e-09
-9.07772e-12
3.74308e-09
-5.83421e-12
3.74506e-09
-2.12893e-12
3.74519e-09
2.02483e-12
3.74485e-09
6.58474e-12
3.74235e-09
1.15208e-11
3.73923e-09
1.67799e-11
3.73373e-09
2.23226e-11
3.72751e-09
2.80871e-11
3.71876e-09
3.40288e-11
3.70923e-09
4.00827e-11
3.69711e-09
4.62022e-11
3.6842e-09
5.23232e-11
3.66871e-09
5.83994e-11
3.65248e-09
6.43707e-11
3.63376e-09
7.0193e-11
3.61438e-09
7.58123e-11
3.59265e-09
8.11886e-11
3.57041e-09
8.62755e-11
3.54601e-09
9.10385e-11
3.52128e-09
9.54406e-11
3.49463e-09
9.9454e-11
3.46784e-09
1.03052e-10
3.4394e-09
1.06215e-10
3.41106e-09
1.08926e-10
3.38133e-09
1.11175e-10
3.35193e-09
1.12957e-10
3.32142e-09
1.14268e-10
3.29125e-09
1.1512e-10
3.26104e-09
1.15482e-10
3.23072e-09
1.1555e-10
1.14574e-10
2.50003e-09
-1.83056e-13
2.50012e-09
-5.4675e-13
2.50029e-09
-9.11188e-13
2.50053e-09
-1.27653e-12
2.50084e-09
-1.64222e-12
2.50122e-09
-2.00856e-12
2.50168e-09
-2.37573e-12
2.50221e-09
-2.74398e-12
2.50281e-09
-3.11364e-12
2.50348e-09
-3.48508e-12
2.50422e-09
-3.85875e-12
2.50503e-09
-4.23516e-12
2.50593e-09
-4.61488e-12
2.50688e-09
-4.99856e-12
2.50793e-09
-5.38689e-12
2.50903e-09
-5.78064e-12
2.51023e-09
-6.18064e-12
2.51148e-09
-6.58777e-12
2.51283e-09
-7.00299e-12
2.51425e-09
-7.42727e-12
2.51576e-09
-7.86169e-12
2.51734e-09
-8.30734e-12
2.51903e-09
-8.76537e-12
2.52078e-09
-9.23698e-12
2.52264e-09
-9.72342e-12
2.52458e-09
-1.0226e-11
2.52664e-09
-1.0746e-11
2.52878e-09
-1.12847e-11
2.53104e-09
-1.18437e-11
2.53339e-09
-1.24244e-11
2.53588e-09
-1.30282e-11
2.53847e-09
-1.36566e-11
2.5412e-09
-1.43112e-11
2.54403e-09
-1.49935e-11
2.54703e-09
-1.57052e-11
2.55014e-09
-1.64478e-11
2.55342e-09
-1.72231e-11
2.55683e-09
-1.80327e-11
2.56043e-09
-1.88782e-11
2.56417e-09
-1.97615e-11
2.56812e-09
-2.06843e-11
2.57222e-09
-2.16482e-11
2.57655e-09
-2.26551e-11
2.58104e-09
-2.37068e-11
2.58578e-09
-2.48049e-11
2.59071e-09
-2.59513e-11
2.59591e-09
-2.71476e-11
2.60131e-09
-2.83958e-11
2.607e-09
-2.96974e-11
2.61292e-09
-3.10542e-11
2.61915e-09
-3.24677e-11
2.62564e-09
-3.39395e-11
2.63246e-09
-3.5471e-11
2.63957e-09
-3.70636e-11
2.64703e-09
-3.87185e-11
2.65481e-09
-4.04366e-11
2.66298e-09
-4.22188e-11
2.67148e-09
-4.40654e-11
2.68041e-09
-4.59767e-11
2.68971e-09
-4.79522e-11
2.69946e-09
-4.99913e-11
2.70961e-09
-5.20925e-11
2.72024e-09
-5.42537e-11
2.73131e-09
-5.6472e-11
2.7429e-09
-5.87434e-11
2.75495e-09
-6.1063e-11
2.76755e-09
-6.34245e-11
2.78064e-09
-6.58203e-11
2.79431e-09
-6.82412e-11
2.80848e-09
-7.06762e-11
2.82325e-09
-7.31129e-11
2.83854e-09
-7.55365e-11
2.85443e-09
-7.79306e-11
2.87083e-09
-8.02768e-11
2.88782e-09
-8.2555e-11
2.9053e-09
-8.47432e-11
2.92333e-09
-8.68188e-11
2.9418e-09
-8.87574e-11
2.96076e-09
-9.05353e-11
2.98008e-09
-9.21284e-11
2.99979e-09
-9.35144e-11
3.01976e-09
-9.46725e-11
3.04e-09
-9.55851e-11
3.06038e-09
-9.62375e-11
3.08089e-09
-9.66197e-11
3.10139e-09
-9.67255e-11
3.12188e-09
-9.65538e-11
3.14223e-09
-9.61075e-11
3.16242e-09
-9.53944e-11
3.18233e-09
-9.44254e-11
3.20197e-09
-9.32152e-11
3.22122e-09
-9.17809e-11
3.24009e-09
-9.0142e-11
3.25848e-09
-8.83191e-11
3.27641e-09
-8.6334e-11
3.2938e-09
-8.42086e-11
3.31067e-09
-8.1965e-11
3.32697e-09
-7.96244e-11
3.34271e-09
-7.72075e-11
3.35787e-09
-7.47338e-11
3.37245e-09
-7.22215e-11
3.38645e-09
-6.96876e-11
3.39988e-09
-6.71474e-11
3.41274e-09
-6.46151e-11
3.42504e-09
-6.21032e-11
3.4368e-09
-5.96228e-11
3.44802e-09
-5.7184e-11
3.45874e-09
-5.47953e-11
3.46895e-09
-5.24639e-11
3.47868e-09
-5.01964e-11
3.48794e-09
-4.79978e-11
3.49676e-09
-4.58725e-11
3.50515e-09
-4.38239e-11
3.51313e-09
-4.18545e-11
3.52072e-09
-3.99662e-11
3.52796e-09
-3.81601e-11
3.53483e-09
-3.64367e-11
3.54138e-09
-3.47962e-11
3.54761e-09
-3.32379e-11
3.55356e-09
-3.1761e-11
3.55922e-09
-3.03642e-11
3.56463e-09
-2.90458e-11
3.56979e-09
-2.7804e-11
3.57474e-09
-2.66364e-11
3.57947e-09
-2.55408e-11
3.58401e-09
-2.45141e-11
3.58836e-09
-2.35537e-11
3.59256e-09
-2.26558e-11
3.59659e-09
-2.18174e-11
3.6005e-09
-2.10338e-11
3.60425e-09
-2.03017e-11
3.6079e-09
-1.96157e-11
3.61141e-09
-1.89728e-11
3.61482e-09
-1.83671e-11
3.61811e-09
-1.77967e-11
3.62131e-09
-1.72564e-11
3.62439e-09
-1.67463e-11
3.62738e-09
-1.62635e-11
3.63023e-09
-1.58112e-11
3.63302e-09
-1.539e-11
3.63566e-09
-1.5007e-11
3.63825e-09
-1.46673e-11
3.64069e-09
-1.43814e-11
3.6431e-09
-1.41593e-11
3.64538e-09
-1.40136e-11
3.64769e-09
-1.39584e-11
3.6499e-09
-1.40054e-11
3.6522e-09
-1.41715e-11
3.65446e-09
-1.44639e-11
3.65691e-09
-1.48987e-11
3.6594e-09
-1.54742e-11
3.66218e-09
-1.62013e-11
3.66512e-09
-1.70639e-11
3.66844e-09
-1.8062e-11
3.67207e-09
-1.91604e-11
3.67612e-09
-2.03426e-11
3.68062e-09
-2.15518e-11
3.68555e-09
-2.27513e-11
3.69103e-09
-2.38647e-11
3.69683e-09
-2.48361e-11
3.70323e-09
-2.55761e-11
3.70975e-09
-2.60163e-11
3.71681e-09
-2.6067e-11
3.72367e-09
-2.56595e-11
3.73093e-09
-2.47198e-11
3.73757e-09
-2.31927e-11
3.74438e-09
-2.10334e-11
3.7501e-09
-1.82134e-11
3.75572e-09
-1.47284e-11
3.75978e-09
-1.05812e-11
3.76349e-09
-5.79545e-12
3.76519e-09
-3.86003e-13
3.7663e-09
5.58448e-12
3.76506e-09
1.2069e-11
3.76303e-09
1.89917e-11
3.75838e-09
2.62952e-11
3.75283e-09
3.38941e-11
3.74449e-09
4.17255e-11
3.73518e-09
4.97015e-11
3.72303e-09
5.77585e-11
3.7099e-09
6.58109e-11
3.69396e-09
7.37969e-11
3.67709e-09
8.16368e-11
3.65752e-09
8.92725e-11
3.63712e-09
9.66325e-11
3.61419e-09
1.03664e-10
3.59059e-09
1.10307e-10
3.56471e-09
1.16514e-10
3.53836e-09
1.22238e-10
3.51e-09
1.27443e-10
3.4814e-09
1.32092e-10
3.45111e-09
1.36162e-10
3.42085e-09
1.3963e-10
3.38919e-09
1.42484e-10
3.35785e-09
1.44718e-10
3.32542e-09
1.46329e-10
3.29335e-09
1.47336e-10
3.26129e-09
1.47695e-10
3.22917e-09
1.47683e-10
1.46233e-10
2.50003e-09
-2.18963e-13
2.50012e-09
-6.54267e-13
2.50029e-09
-1.0903e-12
2.50053e-09
-1.52719e-12
2.50084e-09
-1.9642e-12
2.50122e-09
-2.40167e-12
2.50167e-09
-2.83974e-12
2.50219e-09
-3.27866e-12
2.50278e-09
-3.71879e-12
2.50344e-09
-4.16055e-12
2.50418e-09
-4.60447e-12
2.50498e-09
-5.05113e-12
2.50585e-09
-5.50123e-12
2.50679e-09
-5.95553e-12
2.50781e-09
-6.41489e-12
2.50889e-09
-6.88022e-12
2.51006e-09
-7.35255e-12
2.51128e-09
-7.83294e-12
2.5126e-09
-8.32255e-12
2.51397e-09
-8.82259e-12
2.51544e-09
-9.33435e-12
2.51697e-09
-9.85916e-12
2.51861e-09
-1.03984e-11
2.5203e-09
-1.09536e-11
2.5221e-09
-1.15262e-11
2.52397e-09
-1.21178e-11
2.52596e-09
-1.27299e-11
2.52801e-09
-1.33643e-11
2.53019e-09
-1.40226e-11
2.53245e-09
-1.47066e-11
2.53484e-09
-1.54181e-11
2.53732e-09
-1.61588e-11
2.53994e-09
-1.69307e-11
2.54266e-09
-1.77357e-11
2.54554e-09
-1.85756e-11
2.54852e-09
-1.94526e-11
2.55167e-09
-2.03685e-11
2.55494e-09
-2.13254e-11
2.55839e-09
-2.23253e-11
2.56197e-09
-2.33705e-11
2.56575e-09
-2.44629e-11
2.56969e-09
-2.56047e-11
2.57383e-09
-2.67981e-11
2.57815e-09
-2.80452e-11
2.5827e-09
-2.93483e-11
2.58743e-09
-3.07095e-11
2.59242e-09
-3.21309e-11
2.59761e-09
-3.36149e-11
2.60308e-09
-3.51635e-11
2.60878e-09
-3.6779e-11
2.61478e-09
-3.84635e-11
2.62104e-09
-4.0219e-11
2.62762e-09
-4.20475e-11
2.63448e-09
-4.3951e-11
2.6417e-09
-4.59312e-11
2.64923e-09
-4.79898e-11
2.65714e-09
-5.01281e-11
2.6654e-09
-5.23473e-11
2.67407e-09
-5.46482e-11
2.68312e-09
-5.70311e-11
2.69264e-09
-5.94959e-11
2.70256e-09
-6.20418e-11
2.71298e-09
-6.46672e-11
2.72384e-09
-6.73696e-11
2.73525e-09
-7.01454e-11
2.74715e-09
-7.29896e-11
2.75963e-09
-7.58959e-11
2.77263e-09
-7.88559e-11
2.78626e-09
-8.18595e-11
2.80045e-09
-8.48941e-11
2.81528e-09
-8.7945e-11
2.83071e-09
-9.09943e-11
2.84681e-09
-9.40217e-11
2.8635e-09
-9.70038e-11
2.88087e-09
-9.99146e-11
2.89882e-09
-1.02725e-10
2.91741e-09
-1.05404e-10
2.93654e-09
-1.07918e-10
2.95624e-09
-1.10234e-10
2.97639e-09
-1.12317e-10
2.99702e-09
-1.14135e-10
3.01797e-09
-1.15658e-10
3.03925e-09
-1.16859e-10
3.0607e-09
-1.17718e-10
3.0823e-09
-1.18221e-10
3.1039e-09
-1.18357e-10
3.12547e-09
-1.18129e-10
3.14687e-09
-1.17539e-10
3.16807e-09
-1.16601e-10
3.18895e-09
-1.15331e-10
3.20948e-09
-1.13751e-10
3.22955e-09
-1.11884e-10
3.24916e-09
-1.0976e-10
3.26822e-09
-1.07406e-10
3.28673e-09
-1.04853e-10
3.30462e-09
-1.02129e-10
3.3219e-09
-9.92646e-11
3.33854e-09
-9.62877e-11
3.35454e-09
-9.32253e-11
3.36988e-09
-9.01025e-11
3.38458e-09
-8.69427e-11
3.39863e-09
-8.37672e-11
3.41205e-09
-8.05953e-11
3.42485e-09
-7.74442e-11
3.43705e-09
-7.43292e-11
3.44866e-09
-7.12634e-11
3.4597e-09
-6.82585e-11
3.47019e-09
-6.53242e-11
3.48016e-09
-6.24686e-11
3.48963e-09
-5.96988e-11
3.49861e-09
-5.70201e-11
3.50714e-09
-5.44371e-11
3.51523e-09
-5.1953e-11
3.5229e-09
-4.95704e-11
3.53018e-09
-4.72907e-11
3.5371e-09
-4.51149e-11
3.54365e-09
-4.3043e-11
3.54989e-09
-4.10747e-11
3.5558e-09
-3.92088e-11
3.56144e-09
-3.74439e-11
3.5668e-09
-3.57782e-11
3.57192e-09
-3.42095e-11
3.5768e-09
-3.27352e-11
3.58147e-09
-3.13526e-11
3.58592e-09
-3.00587e-11
3.59021e-09
-2.88501e-11
3.59432e-09
-2.77233e-11
3.59829e-09
-2.66739e-11
3.6021e-09
-2.56976e-11
3.6058e-09
-2.47884e-11
3.60938e-09
-2.39415e-11
3.61285e-09
-2.3149e-11
3.61621e-09
-2.24057e-11
3.61949e-09
-2.17026e-11
3.62265e-09
-2.10353e-11
3.62573e-09
-2.03952e-11
3.62868e-09
-1.97806e-11
3.63155e-09
-1.91857e-11
3.63427e-09
-1.86136e-11
3.63689e-09
-1.80637e-11
3.63934e-09
-1.75455e-11
3.6417e-09
-1.70656e-11
3.64387e-09
-1.66394e-11
3.64597e-09
-1.62816e-11
3.64787e-09
-1.60117e-11
3.64977e-09
-1.5852e-11
3.65149e-09
-1.58229e-11
3.65329e-09
-1.59524e-11
3.65497e-09
-1.62569e-11
3.65687e-09
-1.67662e-11
3.65876e-09
-1.74861e-11
3.66102e-09
-1.84412e-11
3.66344e-09
-1.96187e-11
3.66639e-09
-2.10284e-11
3.66971e-09
-2.26304e-11
3.67369e-09
-2.44094e-11
3.67826e-09
-2.62921e-11
3.68355e-09
-2.82304e-11
3.68962e-09
-3.01181e-11
3.69635e-09
-3.18739e-11
3.70394e-09
-3.33682e-11
3.712e-09
-3.44955e-11
3.72086e-09
-3.51216e-11
3.72979e-09
-3.51374e-11
3.73933e-09
-3.44312e-11
3.74842e-09
-3.29163e-11
3.75778e-09
-3.05271e-11
3.76608e-09
-2.72199e-11
3.77428e-09
-2.29922e-11
3.7808e-09
-1.7853e-11
3.78687e-09
-1.1849e-11
3.79073e-09
-5.00693e-12
3.79382e-09
2.59711e-12
3.79426e-09
1.08854e-11
3.79369e-09
1.97482e-11
3.79018e-09
2.91044e-11
3.7855e-09
3.88366e-11
3.77771e-09
4.88603e-11
3.76868e-09
5.90594e-11
3.75649e-09
6.93508e-11
3.74306e-09
7.96243e-11
3.72651e-09
8.98006e-11
3.70879e-09
9.97781e-11
3.6881e-09
1.09482e-10
3.66635e-09
1.18823e-10
3.64185e-09
1.27732e-10
3.61648e-09
1.36133e-10
3.58865e-09
1.43966e-10
3.56018e-09
1.51171e-10
3.52958e-09
1.577e-10
3.49862e-09
1.6351e-10
3.4659e-09