/*--------------------------------*- C++ -*----------------------------------*\
  =========                 |
  \\      /  F ield         | OpenFOAM: The Open Source CFD Toolbox
   \\    /   O peration     | Website:  https://openfoam.org
    \\  /    A nd           | Version:  10
     \\/     M anipulation  |
\*---------------------------------------------------------------------------*/
FoamFile
{
    format      ascii;
    class       volScalarField;
    location    "3.5";
    object      p;
}
// * * * * * * * * * * * * * * * * * * * * * * * * * * * * * * * * * * * * * //

dimensions      [1 -1 -2 0 0 0 0];

internalField   nonuniform List<scalar> 
12225
(
1.00959e+07
1.00959e+07
1.0096e+07
1.00961e+07
1.00963e+07
1.00966e+07
1.00971e+07
1.00978e+07
1.00988e+07
1.01001e+07
1.01019e+07
1.01044e+07
1.01076e+07
1.01117e+07
1.01169e+07
1.01234e+07
1.01316e+07
1.01425e+07
1.00959e+07
1.00959e+07
1.0096e+07
1.00961e+07
1.00963e+07
1.00966e+07
1.00971e+07
1.00978e+07
1.00987e+07
1.01001e+07
1.01019e+07
1.01043e+07
1.01074e+07
1.01115e+07
1.01166e+07
1.01231e+07
1.01312e+07
1.01414e+07
1.00959e+07
1.00959e+07
1.0096e+07
1.00961e+07
1.00963e+07
1.00966e+07
1.00971e+07
1.00977e+07
1.00987e+07
1.00999e+07
1.01017e+07
1.01041e+07
1.01072e+07
1.01112e+07
1.01162e+07
1.01225e+07
1.01302e+07
1.01396e+07
1.00959e+07
1.00959e+07
1.0096e+07
1.00961e+07
1.00963e+07
1.00966e+07
1.0097e+07
1.00976e+07
1.00985e+07
1.00998e+07
1.01015e+07
1.01037e+07
1.01067e+07
1.01106e+07
1.01154e+07
1.01215e+07
1.01288e+07
1.01373e+07
1.00958e+07
1.00959e+07
1.00959e+07
1.0096e+07
1.00962e+07
1.00965e+07
1.00969e+07
1.00975e+07
1.00983e+07
1.00995e+07
1.01011e+07
1.01033e+07
1.01061e+07
1.01098e+07
1.01144e+07
1.01201e+07
1.01269e+07
1.01346e+07
1.00958e+07
1.00959e+07
1.00959e+07
1.0096e+07
1.00962e+07
1.00964e+07
1.00968e+07
1.00973e+07
1.00981e+07
1.00992e+07
1.01006e+07
1.01026e+07
1.01052e+07
1.01086e+07
1.01129e+07
1.01182e+07
1.01245e+07
1.01316e+07
1.00958e+07
1.00958e+07
1.00959e+07
1.0096e+07
1.00961e+07
1.00963e+07
1.00966e+07
1.00971e+07
1.00978e+07
1.00987e+07
1.01e+07
1.01017e+07
1.01041e+07
1.01072e+07
1.01111e+07
1.01159e+07
1.01216e+07
1.01281e+07
1.00958e+07
1.00958e+07
1.00958e+07
1.00959e+07
1.0096e+07
1.00962e+07
1.00964e+07
1.00968e+07
1.00974e+07
1.00981e+07
1.00992e+07
1.01007e+07
1.01027e+07
1.01053e+07
1.01087e+07
1.0113e+07
1.01182e+07
1.01241e+07
1.00958e+07
1.00958e+07
1.00958e+07
1.00958e+07
1.00959e+07
1.0096e+07
1.00962e+07
1.00965e+07
1.00969e+07
1.00974e+07
1.00982e+07
1.00994e+07
1.01009e+07
1.0103e+07
1.01059e+07
1.01096e+07
1.01141e+07
1.01196e+07
1.00957e+07
1.00957e+07
1.00957e+07
1.00958e+07
1.00958e+07
1.00959e+07
1.0096e+07
1.00961e+07
1.00963e+07
1.00966e+07
1.00971e+07
1.00978e+07
1.00988e+07
1.01003e+07
1.01024e+07
1.01054e+07
1.01093e+07
1.01142e+07
1.00957e+07
1.00957e+07
1.00957e+07
1.00957e+07
1.00957e+07
1.00957e+07
1.00957e+07
1.00957e+07
1.00957e+07
1.00957e+07
1.00958e+07
1.0096e+07
1.00964e+07
1.00971e+07
1.00983e+07
1.01003e+07
1.01034e+07
1.01077e+07
1.00957e+07
1.00957e+07
1.00956e+07
1.00956e+07
1.00955e+07
1.00955e+07
1.00954e+07
1.00952e+07
1.0095e+07
1.00948e+07
1.00945e+07
1.00941e+07
1.00938e+07
1.00937e+07
1.00939e+07
1.00948e+07
1.00968e+07
1.01005e+07
1.00956e+07
1.00956e+07
1.00956e+07
1.00955e+07
1.00954e+07
1.00953e+07
1.00951e+07
1.00948e+07
1.00944e+07
1.00938e+07
1.00931e+07
1.00922e+07
1.00911e+07
1.00899e+07
1.00889e+07
1.00883e+07
1.00889e+07
1.00916e+07
1.00956e+07
1.00956e+07
1.00955e+07
1.00954e+07
1.00953e+07
1.00951e+07
1.00947e+07
1.00943e+07
1.00936e+07
1.00927e+07
1.00915e+07
1.00899e+07
1.00879e+07
1.00853e+07
1.00825e+07
1.00796e+07
1.00776e+07
1.00782e+07
1.00956e+07
1.00955e+07
1.00955e+07
1.00953e+07
1.00951e+07
1.00948e+07
1.00944e+07
1.00938e+07
1.00929e+07
1.00917e+07
1.00899e+07
1.00876e+07
1.00844e+07
1.00802e+07
1.00747e+07
1.00681e+07
1.00608e+07
1.00555e+07
1.00955e+07
1.00955e+07
1.00954e+07
1.00953e+07
1.0095e+07
1.00947e+07
1.00942e+07
1.00935e+07
1.00924e+07
1.00909e+07
1.00888e+07
1.00858e+07
1.00817e+07
1.00758e+07
1.00675e+07
1.00554e+07
1.00373e+07
1.00086e+07
2.04703e+07
2.03848e+07
2.03213e+07
2.02669e+07
2.02168e+07
2.0169e+07
2.0122e+07
2.00754e+07
2.0029e+07
1.99823e+07
1.9935e+07
1.98869e+07
1.98375e+07
1.97864e+07
1.9733e+07
1.96764e+07
1.96155e+07
1.95488e+07
2.04064e+07
2.03629e+07
2.03129e+07
2.02638e+07
2.02163e+07
2.01705e+07
2.01256e+07
2.00814e+07
2.00376e+07
1.9994e+07
1.99505e+07
1.99071e+07
1.98638e+07
1.9821e+07
1.97789e+07
1.97386e+07
1.97015e+07
1.96704e+07
2.03367e+07
2.03147e+07
2.0282e+07
2.02445e+07
2.02052e+07
2.01653e+07
2.01254e+07
2.00856e+07
2.00463e+07
2.00075e+07
1.99695e+07
1.99324e+07
1.98965e+07
1.98623e+07
1.98302e+07
1.98008e+07
1.97748e+07
1.97528e+07
2.02911e+07
2.02768e+07
2.02531e+07
2.02237e+07
2.01912e+07
2.0157e+07
2.0122e+07
2.00869e+07
2.0052e+07
2.00178e+07
1.99844e+07
1.99522e+07
1.99215e+07
1.98926e+07
1.98658e+07
1.98414e+07
1.98197e+07
1.98007e+07
2.02634e+07
2.02523e+07
2.02331e+07
2.02084e+07
2.01802e+07
2.01499e+07
2.01185e+07
2.00867e+07
2.0055e+07
2.00239e+07
1.99937e+07
1.99646e+07
1.99371e+07
1.99112e+07
1.98872e+07
1.98653e+07
1.98455e+07
1.98279e+07
2.02442e+07
2.02349e+07
2.02184e+07
2.01967e+07
2.01715e+07
2.0144e+07
2.01153e+07
2.0086e+07
2.00567e+07
2.00279e+07
1.99999e+07
1.9973e+07
1.99475e+07
1.99236e+07
1.99014e+07
1.9881e+07
1.98624e+07
1.98457e+07
2.02308e+07
2.02226e+07
2.02078e+07
2.01881e+07
2.01649e+07
2.01394e+07
2.01126e+07
2.00851e+07
2.00575e+07
2.00304e+07
2.0004e+07
1.99786e+07
1.99546e+07
1.99319e+07
1.99109e+07
1.98914e+07
1.98736e+07
1.98575e+07
2.02214e+07
2.02139e+07
2.02002e+07
2.01819e+07
2.01601e+07
2.0136e+07
2.01104e+07
2.00842e+07
2.00579e+07
2.00319e+07
2.00066e+07
1.99823e+07
1.99592e+07
1.99375e+07
1.99172e+07
1.98984e+07
1.98811e+07
1.98653e+07
2.0215e+07
2.02079e+07
2.01949e+07
2.01774e+07
2.01566e+07
2.01334e+07
2.01088e+07
2.00835e+07
2.0058e+07
2.00328e+07
2.00083e+07
1.99848e+07
1.99623e+07
1.99412e+07
1.99214e+07
1.9903e+07
1.98861e+07
1.98706e+07
2.02106e+07
2.02038e+07
2.01913e+07
2.01744e+07
2.01542e+07
2.01316e+07
2.01077e+07
2.00829e+07
2.0058e+07
2.00334e+07
2.00094e+07
1.99863e+07
1.99643e+07
1.99435e+07
1.99241e+07
1.9906e+07
1.98893e+07
1.9874e+07
2.02077e+07
2.02011e+07
2.01889e+07
2.01724e+07
2.01525e+07
2.01304e+07
2.01069e+07
2.00825e+07
2.0058e+07
2.00337e+07
2.001e+07
1.99873e+07
1.99655e+07
1.9945e+07
1.99258e+07
1.99079e+07
1.98914e+07
1.98762e+07
2.0206e+07
2.01995e+07
2.01875e+07
2.01711e+07
2.01515e+07
2.01297e+07
2.01063e+07
2.00822e+07
2.00579e+07
2.00339e+07
2.00104e+07
1.99878e+07
1.99663e+07
1.99459e+07
1.99268e+07
1.99091e+07
1.98926e+07
1.98774e+07
2.0205e+07
2.01986e+07
2.01866e+07
2.01704e+07
2.0151e+07
2.01293e+07
2.01061e+07
2.00821e+07
2.00579e+07
2.0034e+07
2.00106e+07
1.99881e+07
1.99666e+07
1.99464e+07
1.99274e+07
1.99097e+07
1.98933e+07
1.98781e+07
2.02046e+07
2.01982e+07
2.01863e+07
2.01702e+07
2.01508e+07
2.01291e+07
2.01059e+07
2.0082e+07
2.00579e+07
2.0034e+07
2.00107e+07
1.99882e+07
1.99668e+07
1.99466e+07
1.99276e+07
1.99099e+07
1.98935e+07
1.98784e+07
1.0265e+07
1.0265e+07
1.02652e+07
1.02653e+07
1.02655e+07
1.02658e+07
1.02662e+07
1.02666e+07
1.0267e+07
1.02675e+07
1.02681e+07
1.02688e+07
1.02695e+07
1.02703e+07
1.02711e+07
1.0272e+07
1.02729e+07
1.0274e+07
1.0275e+07
1.02762e+07
1.02774e+07
1.02787e+07
1.028e+07
1.02814e+07
1.02828e+07
1.02843e+07
1.02859e+07
1.02875e+07
1.02892e+07
1.02909e+07
1.02927e+07
1.02945e+07
1.02964e+07
1.02983e+07
1.03002e+07
1.03023e+07
1.03043e+07
1.03064e+07
1.03086e+07
1.03107e+07
1.0313e+07
1.03152e+07
1.03175e+07
1.03198e+07
1.03222e+07
1.03246e+07
1.0327e+07
1.03295e+07
1.03319e+07
1.03344e+07
1.0337e+07
1.03395e+07
1.03421e+07
1.03447e+07
1.03473e+07
1.035e+07
1.03526e+07
1.03553e+07
1.0358e+07
1.03607e+07
1.03634e+07
1.03662e+07
1.03689e+07
1.03717e+07
1.03744e+07
1.03772e+07
1.038e+07
1.03828e+07
1.03856e+07
1.03885e+07
1.03913e+07
1.03941e+07
1.0397e+07
1.03998e+07
1.04027e+07
1.04056e+07
1.04084e+07
1.04113e+07
1.04142e+07
1.04171e+07
1.042e+07
1.04228e+07
1.04257e+07
1.04286e+07
1.04315e+07
1.04344e+07
1.04373e+07
1.04402e+07
1.04432e+07
1.04461e+07
1.0449e+07
1.04519e+07
1.04548e+07
1.04577e+07
1.04606e+07
1.04635e+07
1.04665e+07
1.04694e+07
1.04723e+07
1.04752e+07
1.04782e+07
1.04811e+07
1.0484e+07
1.04869e+07
1.04899e+07
1.04928e+07
1.04957e+07
1.04987e+07
1.05016e+07
1.05046e+07
1.05075e+07
1.05104e+07
1.05134e+07
1.05164e+07
1.05193e+07
1.05223e+07
1.05252e+07
1.05282e+07
1.05312e+07
1.05342e+07
1.05372e+07
1.05402e+07
1.05432e+07
1.05462e+07
1.05493e+07
1.05523e+07
1.05554e+07
1.05584e+07
1.05615e+07
1.05646e+07
1.05677e+07
1.05708e+07
1.05739e+07
1.05771e+07
1.05802e+07
1.05834e+07
1.05866e+07
1.05898e+07
1.05931e+07
1.05963e+07
1.05996e+07
1.06029e+07
1.06062e+07
1.06095e+07
1.06128e+07
1.06162e+07
1.06196e+07
1.06229e+07
1.06263e+07
1.06297e+07
1.06331e+07
1.06365e+07
1.06399e+07
1.06432e+07
1.06465e+07
1.06498e+07
1.06531e+07
1.06563e+07
1.06594e+07
1.06625e+07
1.06654e+07
1.06682e+07
1.06708e+07
1.06733e+07
1.06755e+07
1.06775e+07
1.06791e+07
1.06804e+07
1.06814e+07
1.06818e+07
1.06818e+07
1.06812e+07
1.068e+07
1.0678e+07
1.06754e+07
1.06719e+07
1.06675e+07
1.06622e+07
1.06561e+07
1.06491e+07
1.02647e+07
1.02648e+07
1.02649e+07
1.02651e+07
1.02653e+07
1.02656e+07
1.02659e+07
1.02663e+07
1.02668e+07
1.02673e+07
1.02679e+07
1.02685e+07
1.02693e+07
1.027e+07
1.02709e+07
1.02718e+07
1.02727e+07
1.02738e+07
1.02749e+07
1.0276e+07
1.02772e+07
1.02785e+07
1.02798e+07
1.02812e+07
1.02827e+07
1.02842e+07
1.02857e+07
1.02874e+07
1.0289e+07
1.02908e+07
1.02925e+07
1.02944e+07
1.02963e+07
1.02982e+07
1.03002e+07
1.03022e+07
1.03042e+07
1.03063e+07
1.03085e+07
1.03107e+07
1.03129e+07
1.03152e+07
1.03175e+07
1.03198e+07
1.03221e+07
1.03245e+07
1.0327e+07
1.03294e+07
1.03319e+07
1.03344e+07
1.03369e+07
1.03395e+07
1.03421e+07
1.03447e+07
1.03473e+07
1.03499e+07
1.03526e+07
1.03553e+07
1.0358e+07
1.03607e+07
1.03634e+07
1.03662e+07
1.03689e+07
1.03717e+07
1.03744e+07
1.03772e+07
1.038e+07
1.03828e+07
1.03857e+07
1.03885e+07
1.03913e+07
1.03942e+07
1.0397e+07
1.03999e+07
1.04027e+07
1.04056e+07
1.04084e+07
1.04113e+07
1.04142e+07
1.04171e+07
1.042e+07
1.04229e+07
1.04258e+07
1.04286e+07
1.04315e+07
1.04344e+07
1.04374e+07
1.04403e+07
1.04432e+07
1.04461e+07
1.0449e+07
1.04519e+07
1.04548e+07
1.04577e+07
1.04606e+07
1.04636e+07
1.04665e+07
1.04694e+07
1.04723e+07
1.04752e+07
1.04782e+07
1.04811e+07
1.0484e+07
1.04869e+07
1.04899e+07
1.04928e+07
1.04957e+07
1.04987e+07
1.05016e+07
1.05046e+07
1.05075e+07
1.05104e+07
1.05134e+07
1.05164e+07
1.05193e+07
1.05223e+07
1.05252e+07
1.05282e+07
1.05312e+07
1.05342e+07
1.05372e+07
1.05402e+07
1.05432e+07
1.05462e+07
1.05493e+07
1.05523e+07
1.05553e+07
1.05584e+07
1.05615e+07
1.05646e+07
1.05677e+07
1.05708e+07
1.05739e+07
1.05771e+07
1.05802e+07
1.05834e+07
1.05866e+07
1.05898e+07
1.05931e+07
1.05963e+07
1.05996e+07
1.06029e+07
1.06062e+07
1.06095e+07
1.06128e+07
1.06162e+07
1.06196e+07
1.06229e+07
1.06263e+07
1.06297e+07
1.06331e+07
1.06365e+07
1.06399e+07
1.06432e+07
1.06466e+07
1.06499e+07
1.06531e+07
1.06563e+07
1.06594e+07
1.06625e+07
1.06654e+07
1.06682e+07
1.06709e+07
1.06733e+07
1.06755e+07
1.06775e+07
1.06792e+07
1.06805e+07
1.06815e+07
1.0682e+07
1.06819e+07
1.06813e+07
1.06801e+07
1.06782e+07
1.06755e+07
1.0672e+07
1.06677e+07
1.06624e+07
1.06562e+07
1.06492e+07
1.02642e+07
1.02643e+07
1.02644e+07
1.02646e+07
1.02648e+07
1.02651e+07
1.02654e+07
1.02658e+07
1.02663e+07
1.02668e+07
1.02674e+07
1.02681e+07
1.02688e+07
1.02696e+07
1.02705e+07
1.02714e+07
1.02723e+07
1.02734e+07
1.02745e+07
1.02756e+07
1.02769e+07
1.02782e+07
1.02795e+07
1.02809e+07
1.02824e+07
1.02839e+07
1.02855e+07
1.02871e+07
1.02888e+07
1.02905e+07
1.02923e+07
1.02942e+07
1.02961e+07
1.0298e+07
1.03e+07
1.0302e+07
1.03041e+07
1.03062e+07
1.03084e+07
1.03106e+07
1.03128e+07
1.03151e+07
1.03174e+07
1.03197e+07
1.03221e+07
1.03245e+07
1.03269e+07
1.03294e+07
1.03319e+07
1.03344e+07
1.03369e+07
1.03395e+07
1.03421e+07
1.03447e+07
1.03473e+07
1.03499e+07
1.03526e+07
1.03553e+07
1.0358e+07
1.03607e+07
1.03634e+07
1.03662e+07
1.03689e+07
1.03717e+07
1.03745e+07
1.03773e+07
1.03801e+07
1.03829e+07
1.03857e+07
1.03885e+07
1.03913e+07
1.03942e+07
1.0397e+07
1.03999e+07
1.04027e+07
1.04056e+07
1.04085e+07
1.04114e+07
1.04142e+07
1.04171e+07
1.042e+07
1.04229e+07
1.04258e+07
1.04287e+07
1.04316e+07
1.04345e+07
1.04374e+07
1.04403e+07
1.04432e+07
1.04461e+07
1.0449e+07
1.04519e+07
1.04548e+07
1.04578e+07
1.04607e+07
1.04636e+07
1.04665e+07
1.04694e+07
1.04723e+07
1.04753e+07
1.04782e+07
1.04811e+07
1.0484e+07
1.0487e+07
1.04899e+07
1.04928e+07
1.04958e+07
1.04987e+07
1.05016e+07
1.05046e+07
1.05075e+07
1.05105e+07
1.05134e+07
1.05164e+07
1.05193e+07
1.05223e+07
1.05253e+07
1.05282e+07
1.05312e+07
1.05342e+07
1.05372e+07
1.05402e+07
1.05432e+07
1.05462e+07
1.05493e+07
1.05523e+07
1.05553e+07
1.05584e+07
1.05615e+07
1.05646e+07
1.05677e+07
1.05708e+07
1.05739e+07
1.05771e+07
1.05802e+07
1.05834e+07
1.05866e+07
1.05898e+07
1.05931e+07
1.05963e+07
1.05996e+07
1.06029e+07
1.06062e+07
1.06095e+07
1.06128e+07
1.06162e+07
1.06196e+07
1.06229e+07
1.06263e+07
1.06297e+07
1.06331e+07
1.06365e+07
1.06399e+07
1.06432e+07
1.06466e+07
1.06499e+07
1.06532e+07
1.06564e+07
1.06595e+07
1.06626e+07
1.06655e+07
1.06683e+07
1.0671e+07
1.06734e+07
1.06757e+07
1.06777e+07
1.06794e+07
1.06807e+07
1.06817e+07
1.06822e+07
1.06822e+07
1.06816e+07
1.06804e+07
1.06785e+07
1.06759e+07
1.06724e+07
1.0668e+07
1.06627e+07
1.06566e+07
1.06494e+07
1.02635e+07
1.02635e+07
1.02636e+07
1.02638e+07
1.02641e+07
1.02643e+07
1.02647e+07
1.02651e+07
1.02656e+07
1.02661e+07
1.02668e+07
1.02674e+07
1.02682e+07
1.0269e+07
1.02698e+07
1.02708e+07
1.02718e+07
1.02728e+07
1.02739e+07
1.02751e+07
1.02764e+07
1.02777e+07
1.0279e+07
1.02805e+07
1.02819e+07
1.02835e+07
1.02851e+07
1.02867e+07
1.02884e+07
1.02902e+07
1.0292e+07
1.02939e+07
1.02958e+07
1.02977e+07
1.02997e+07
1.03018e+07
1.03039e+07
1.0306e+07
1.03082e+07
1.03104e+07
1.03126e+07
1.03149e+07
1.03172e+07
1.03196e+07
1.0322e+07
1.03244e+07
1.03268e+07
1.03293e+07
1.03318e+07
1.03343e+07
1.03369e+07
1.03395e+07
1.0342e+07
1.03447e+07
1.03473e+07
1.03499e+07
1.03526e+07
1.03553e+07
1.0358e+07
1.03607e+07
1.03635e+07
1.03662e+07
1.0369e+07
1.03717e+07
1.03745e+07
1.03773e+07
1.03801e+07
1.03829e+07
1.03857e+07
1.03886e+07
1.03914e+07
1.03942e+07
1.03971e+07
1.03999e+07
1.04028e+07
1.04057e+07
1.04085e+07
1.04114e+07
1.04143e+07
1.04172e+07
1.04201e+07
1.0423e+07
1.04258e+07
1.04287e+07
1.04316e+07
1.04345e+07
1.04374e+07
1.04403e+07
1.04433e+07
1.04462e+07
1.04491e+07
1.0452e+07
1.04549e+07
1.04578e+07
1.04607e+07
1.04636e+07
1.04666e+07
1.04695e+07
1.04724e+07
1.04753e+07
1.04782e+07
1.04812e+07
1.04841e+07
1.0487e+07
1.04899e+07
1.04929e+07
1.04958e+07
1.04987e+07
1.05017e+07
1.05046e+07
1.05075e+07
1.05105e+07
1.05134e+07
1.05164e+07
1.05194e+07
1.05223e+07
1.05253e+07
1.05283e+07
1.05312e+07
1.05342e+07
1.05372e+07
1.05402e+07
1.05432e+07
1.05462e+07
1.05493e+07
1.05523e+07
1.05554e+07
1.05584e+07
1.05615e+07
1.05646e+07
1.05677e+07
1.05708e+07
1.05739e+07
1.05771e+07
1.05802e+07
1.05834e+07
1.05866e+07
1.05898e+07
1.05931e+07
1.05963e+07
1.05996e+07
1.06029e+07
1.06062e+07
1.06095e+07
1.06128e+07
1.06162e+07
1.06196e+07
1.06229e+07
1.06263e+07
1.06297e+07
1.06331e+07
1.06365e+07
1.06399e+07
1.06433e+07
1.06466e+07
1.06499e+07
1.06532e+07
1.06564e+07
1.06596e+07
1.06627e+07
1.06656e+07
1.06684e+07
1.06711e+07
1.06736e+07
1.06759e+07
1.06779e+07
1.06796e+07
1.0681e+07
1.0682e+07
1.06826e+07
1.06826e+07
1.06821e+07
1.06809e+07
1.0679e+07
1.06764e+07
1.06729e+07
1.06685e+07
1.06633e+07
1.0657e+07
1.06499e+07
1.02625e+07
1.02625e+07
1.02626e+07
1.02628e+07
1.02631e+07
1.02634e+07
1.02637e+07
1.02642e+07
1.02647e+07
1.02652e+07
1.02658e+07
1.02665e+07
1.02673e+07
1.02681e+07
1.0269e+07
1.02699e+07
1.0271e+07
1.0272e+07
1.02732e+07
1.02744e+07
1.02757e+07
1.0277e+07
1.02784e+07
1.02799e+07
1.02814e+07
1.02829e+07
1.02846e+07
1.02862e+07
1.0288e+07
1.02898e+07
1.02916e+07
1.02935e+07
1.02954e+07
1.02974e+07
1.02994e+07
1.03015e+07
1.03036e+07
1.03058e+07
1.0308e+07
1.03102e+07
1.03125e+07
1.03148e+07
1.03171e+07
1.03195e+07
1.03219e+07
1.03243e+07
1.03267e+07
1.03292e+07
1.03317e+07
1.03343e+07
1.03368e+07
1.03394e+07
1.0342e+07
1.03446e+07
1.03473e+07
1.03499e+07
1.03526e+07
1.03553e+07
1.0358e+07
1.03608e+07
1.03635e+07
1.03662e+07
1.0369e+07
1.03718e+07
1.03746e+07
1.03774e+07
1.03802e+07
1.0383e+07
1.03858e+07
1.03886e+07
1.03915e+07
1.03943e+07
1.03972e+07
1.04e+07
1.04029e+07
1.04058e+07
1.04086e+07
1.04115e+07
1.04144e+07
1.04173e+07
1.04201e+07
1.0423e+07
1.04259e+07
1.04288e+07
1.04317e+07
1.04346e+07
1.04375e+07
1.04404e+07
1.04433e+07
1.04462e+07
1.04491e+07
1.04521e+07
1.0455e+07
1.04579e+07
1.04608e+07
1.04637e+07
1.04666e+07
1.04695e+07
1.04725e+07
1.04754e+07
1.04783e+07
1.04812e+07
1.04841e+07
1.04871e+07
1.049e+07
1.04929e+07
1.04958e+07
1.04988e+07
1.05017e+07
1.05047e+07
1.05076e+07
1.05105e+07
1.05135e+07
1.05164e+07
1.05194e+07
1.05224e+07
1.05253e+07
1.05283e+07
1.05313e+07
1.05343e+07
1.05372e+07
1.05402e+07
1.05432e+07
1.05463e+07
1.05493e+07
1.05523e+07
1.05554e+07
1.05584e+07
1.05615e+07
1.05646e+07
1.05677e+07
1.05708e+07
1.05739e+07
1.05771e+07
1.05802e+07
1.05834e+07
1.05866e+07
1.05898e+07
1.05931e+07
1.05963e+07
1.05996e+07
1.06029e+07
1.06062e+07
1.06095e+07
1.06129e+07
1.06162e+07
1.06196e+07
1.0623e+07
1.06264e+07
1.06298e+07
1.06332e+07
1.06366e+07
1.064e+07
1.06433e+07
1.06467e+07
1.065e+07
1.06533e+07
1.06565e+07
1.06597e+07
1.06628e+07
1.06658e+07
1.06686e+07
1.06713e+07
1.06739e+07
1.06762e+07
1.06782e+07
1.068e+07
1.06814e+07
1.06825e+07
1.0683e+07
1.06831e+07
1.06826e+07
1.06815e+07
1.06797e+07
1.06771e+07
1.06736e+07
1.06693e+07
1.0664e+07
1.06577e+07
1.06505e+07
1.02612e+07
1.02613e+07
1.02614e+07
1.02616e+07
1.02618e+07
1.02621e+07
1.02625e+07
1.0263e+07
1.02635e+07
1.02641e+07
1.02647e+07
1.02654e+07
1.02662e+07
1.0267e+07
1.0268e+07
1.02689e+07
1.027e+07
1.02711e+07
1.02723e+07
1.02735e+07
1.02748e+07
1.02762e+07
1.02776e+07
1.02791e+07
1.02806e+07
1.02823e+07
1.02839e+07
1.02856e+07
1.02874e+07
1.02892e+07
1.02911e+07
1.0293e+07
1.0295e+07
1.0297e+07
1.0299e+07
1.03011e+07
1.03033e+07
1.03055e+07
1.03077e+07
1.03099e+07
1.03122e+07
1.03145e+07
1.03169e+07
1.03193e+07
1.03217e+07
1.03242e+07
1.03266e+07
1.03291e+07
1.03317e+07
1.03342e+07
1.03368e+07
1.03394e+07
1.0342e+07
1.03446e+07
1.03473e+07
1.035e+07
1.03526e+07
1.03554e+07
1.03581e+07
1.03608e+07
1.03635e+07
1.03663e+07
1.03691e+07
1.03719e+07
1.03746e+07
1.03774e+07
1.03803e+07
1.03831e+07
1.03859e+07
1.03887e+07
1.03916e+07
1.03944e+07
1.03973e+07
1.04001e+07
1.0403e+07
1.04059e+07
1.04087e+07
1.04116e+07
1.04145e+07
1.04174e+07
1.04202e+07
1.04231e+07
1.0426e+07
1.04289e+07
1.04318e+07
1.04347e+07
1.04376e+07
1.04405e+07
1.04434e+07
1.04463e+07
1.04492e+07
1.04521e+07
1.04551e+07
1.0458e+07
1.04609e+07
1.04638e+07
1.04667e+07
1.04696e+07
1.04725e+07
1.04755e+07
1.04784e+07
1.04813e+07
1.04842e+07
1.04871e+07
1.04901e+07
1.0493e+07
1.04959e+07
1.04988e+07
1.05018e+07
1.05047e+07
1.05077e+07
1.05106e+07
1.05135e+07
1.05165e+07
1.05194e+07
1.05224e+07
1.05254e+07
1.05283e+07
1.05313e+07
1.05343e+07
1.05373e+07
1.05403e+07
1.05433e+07
1.05463e+07
1.05493e+07
1.05524e+07
1.05554e+07
1.05585e+07
1.05615e+07
1.05646e+07
1.05677e+07
1.05708e+07
1.05739e+07
1.05771e+07
1.05802e+07
1.05834e+07
1.05866e+07
1.05898e+07
1.05931e+07
1.05963e+07
1.05996e+07
1.06029e+07
1.06062e+07
1.06095e+07
1.06129e+07
1.06162e+07
1.06196e+07
1.0623e+07
1.06264e+07
1.06298e+07
1.06332e+07
1.06366e+07
1.064e+07
1.06434e+07
1.06468e+07
1.06501e+07
1.06534e+07
1.06567e+07
1.06599e+07
1.0663e+07
1.0666e+07
1.06689e+07
1.06716e+07
1.06742e+07
1.06765e+07
1.06786e+07
1.06804e+07
1.06819e+07
1.0683e+07
1.06836e+07
1.06838e+07
1.06833e+07
1.06823e+07
1.06805e+07
1.06779e+07
1.06745e+07
1.06702e+07
1.06649e+07
1.06586e+07
1.06513e+07
1.02596e+07
1.02597e+07
1.02598e+07
1.026e+07
1.02603e+07
1.02606e+07
1.0261e+07
1.02615e+07
1.0262e+07
1.02626e+07
1.02633e+07
1.02641e+07
1.02649e+07
1.02657e+07
1.02667e+07
1.02677e+07
1.02688e+07
1.027e+07
1.02712e+07
1.02725e+07
1.02738e+07
1.02752e+07
1.02767e+07
1.02782e+07
1.02798e+07
1.02814e+07
1.02831e+07
1.02849e+07
1.02867e+07
1.02886e+07
1.02905e+07
1.02924e+07
1.02944e+07
1.02965e+07
1.02986e+07
1.03007e+07
1.03029e+07
1.03051e+07
1.03073e+07
1.03096e+07
1.03119e+07
1.03143e+07
1.03167e+07
1.03191e+07
1.03215e+07
1.0324e+07
1.03265e+07
1.0329e+07
1.03316e+07
1.03341e+07
1.03367e+07
1.03393e+07
1.0342e+07
1.03446e+07
1.03473e+07
1.035e+07
1.03527e+07
1.03554e+07
1.03581e+07
1.03609e+07
1.03636e+07
1.03664e+07
1.03692e+07
1.03719e+07
1.03747e+07
1.03775e+07
1.03804e+07
1.03832e+07
1.0386e+07
1.03888e+07
1.03917e+07
1.03945e+07
1.03974e+07
1.04002e+07
1.04031e+07
1.0406e+07
1.04089e+07
1.04117e+07
1.04146e+07
1.04175e+07
1.04204e+07
1.04233e+07
1.04262e+07
1.0429e+07
1.04319e+07
1.04348e+07
1.04377e+07
1.04406e+07
1.04435e+07
1.04464e+07
1.04494e+07
1.04523e+07
1.04552e+07
1.04581e+07
1.0461e+07
1.04639e+07
1.04668e+07
1.04697e+07
1.04726e+07
1.04756e+07
1.04785e+07
1.04814e+07
1.04843e+07
1.04872e+07
1.04902e+07
1.04931e+07
1.0496e+07
1.04989e+07
1.05019e+07
1.05048e+07
1.05077e+07
1.05107e+07
1.05136e+07
1.05166e+07
1.05195e+07
1.05225e+07
1.05254e+07
1.05284e+07
1.05314e+07
1.05343e+07
1.05373e+07
1.05403e+07
1.05433e+07
1.05463e+07
1.05493e+07
1.05524e+07
1.05554e+07
1.05585e+07
1.05615e+07
1.05646e+07
1.05677e+07
1.05708e+07
1.0574e+07
1.05771e+07
1.05803e+07
1.05834e+07
1.05866e+07
1.05898e+07
1.05931e+07
1.05963e+07
1.05996e+07
1.06029e+07
1.06062e+07
1.06095e+07
1.06129e+07
1.06162e+07
1.06196e+07
1.0623e+07
1.06264e+07
1.06298e+07
1.06332e+07
1.06367e+07
1.06401e+07
1.06435e+07
1.06469e+07
1.06502e+07
1.06536e+07
1.06568e+07
1.06601e+07
1.06632e+07
1.06662e+07
1.06692e+07
1.06719e+07
1.06745e+07
1.06769e+07
1.06791e+07
1.0681e+07
1.06825e+07
1.06837e+07
1.06844e+07
1.06846e+07
1.06842e+07
1.06832e+07
1.06815e+07
1.0679e+07
1.06756e+07
1.06713e+07
1.0666e+07
1.06597e+07
1.06523e+07
1.02578e+07
1.02579e+07
1.0258e+07
1.02582e+07
1.02585e+07
1.02589e+07
1.02593e+07
1.02598e+07
1.02603e+07
1.0261e+07
1.02617e+07
1.02625e+07
1.02633e+07
1.02642e+07
1.02652e+07
1.02663e+07
1.02674e+07
1.02686e+07
1.02699e+07
1.02712e+07
1.02726e+07
1.02741e+07
1.02756e+07
1.02772e+07
1.02788e+07
1.02805e+07
1.02822e+07
1.0284e+07
1.02859e+07
1.02878e+07
1.02898e+07
1.02918e+07
1.02938e+07
1.02959e+07
1.0298e+07
1.03002e+07
1.03024e+07
1.03047e+07
1.0307e+07
1.03093e+07
1.03116e+07
1.0314e+07
1.03164e+07
1.03189e+07
1.03214e+07
1.03238e+07
1.03264e+07
1.03289e+07
1.03315e+07
1.03341e+07
1.03367e+07
1.03393e+07
1.0342e+07
1.03446e+07
1.03473e+07
1.035e+07
1.03527e+07
1.03554e+07
1.03582e+07
1.03609e+07
1.03637e+07
1.03665e+07
1.03693e+07
1.0372e+07
1.03749e+07
1.03777e+07
1.03805e+07
1.03833e+07
1.03861e+07
1.0389e+07
1.03918e+07
1.03947e+07
1.03975e+07
1.04004e+07
1.04033e+07
1.04061e+07
1.0409e+07
1.04119e+07
1.04148e+07
1.04176e+07
1.04205e+07
1.04234e+07
1.04263e+07
1.04292e+07
1.04321e+07
1.0435e+07
1.04379e+07
1.04408e+07
1.04437e+07
1.04466e+07
1.04495e+07
1.04524e+07
1.04553e+07
1.04582e+07
1.04611e+07
1.0464e+07
1.04669e+07
1.04698e+07
1.04728e+07
1.04757e+07
1.04786e+07
1.04815e+07
1.04844e+07
1.04873e+07
1.04903e+07
1.04932e+07
1.04961e+07
1.0499e+07
1.0502e+07
1.05049e+07
1.05078e+07
1.05108e+07
1.05137e+07
1.05166e+07
1.05196e+07
1.05225e+07
1.05255e+07
1.05285e+07
1.05314e+07
1.05344e+07
1.05374e+07
1.05404e+07
1.05434e+07
1.05464e+07
1.05494e+07
1.05524e+07
1.05555e+07
1.05585e+07
1.05616e+07
1.05647e+07
1.05677e+07
1.05709e+07
1.0574e+07
1.05771e+07
1.05803e+07
1.05834e+07
1.05866e+07
1.05899e+07
1.05931e+07
1.05963e+07
1.05996e+07
1.06029e+07
1.06062e+07
1.06095e+07
1.06129e+07
1.06163e+07
1.06196e+07
1.0623e+07
1.06265e+07
1.06299e+07
1.06333e+07
1.06367e+07
1.06402e+07
1.06436e+07
1.0647e+07
1.06504e+07
1.06537e+07
1.0657e+07
1.06603e+07
1.06634e+07
1.06665e+07
1.06695e+07
1.06723e+07
1.0675e+07
1.06774e+07
1.06797e+07
1.06816e+07
1.06832e+07
1.06844e+07
1.06852e+07
1.06855e+07
1.06852e+07
1.06843e+07
1.06826e+07
1.06802e+07
1.06769e+07
1.06726e+07
1.06673e+07
1.0661e+07
1.06535e+07
1.02557e+07
1.02558e+07
1.02559e+07
1.02561e+07
1.02564e+07
1.02568e+07
1.02572e+07
1.02578e+07
1.02584e+07
1.0259e+07
1.02598e+07
1.02606e+07
1.02615e+07
1.02625e+07
1.02635e+07
1.02646e+07
1.02658e+07
1.02671e+07
1.02684e+07
1.02698e+07
1.02712e+07
1.02728e+07
1.02743e+07
1.0276e+07
1.02777e+07
1.02794e+07
1.02812e+07
1.02831e+07
1.0285e+07
1.0287e+07
1.0289e+07
1.0291e+07
1.02931e+07
1.02953e+07
1.02974e+07
1.02997e+07
1.03019e+07
1.03042e+07
1.03065e+07
1.03089e+07
1.03113e+07
1.03137e+07
1.03162e+07
1.03186e+07
1.03211e+07
1.03237e+07
1.03262e+07
1.03288e+07
1.03314e+07
1.0334e+07
1.03366e+07
1.03393e+07
1.0342e+07
1.03446e+07
1.03473e+07
1.035e+07
1.03528e+07
1.03555e+07
1.03583e+07
1.0361e+07
1.03638e+07
1.03666e+07
1.03694e+07
1.03722e+07
1.0375e+07
1.03778e+07
1.03806e+07
1.03835e+07
1.03863e+07
1.03891e+07
1.0392e+07
1.03948e+07
1.03977e+07
1.04006e+07
1.04034e+07
1.04063e+07
1.04092e+07
1.04121e+07
1.04149e+07
1.04178e+07
1.04207e+07
1.04236e+07
1.04265e+07
1.04294e+07
1.04323e+07
1.04352e+07
1.04381e+07
1.0441e+07
1.04439e+07
1.04468e+07
1.04497e+07
1.04526e+07
1.04555e+07
1.04584e+07
1.04613e+07
1.04642e+07
1.04671e+07
1.047e+07
1.04729e+07
1.04758e+07
1.04787e+07
1.04816e+07
1.04845e+07
1.04875e+07
1.04904e+07
1.04933e+07
1.04962e+07
1.04991e+07
1.05021e+07
1.0505e+07
1.05079e+07
1.05108e+07
1.05138e+07
1.05167e+07
1.05197e+07
1.05226e+07
1.05256e+07
1.05285e+07
1.05315e+07
1.05345e+07
1.05374e+07
1.05404e+07
1.05434e+07
1.05464e+07
1.05494e+07
1.05525e+07
1.05555e+07
1.05585e+07
1.05616e+07
1.05647e+07
1.05678e+07
1.05709e+07
1.0574e+07
1.05771e+07
1.05803e+07
1.05835e+07
1.05867e+07
1.05899e+07
1.05931e+07
1.05964e+07
1.05996e+07
1.06029e+07
1.06062e+07
1.06096e+07
1.06129e+07
1.06163e+07
1.06197e+07
1.06231e+07
1.06265e+07
1.06299e+07
1.06334e+07
1.06368e+07
1.06403e+07
1.06437e+07
1.06471e+07
1.06505e+07
1.06539e+07
1.06572e+07
1.06605e+07
1.06637e+07
1.06669e+07
1.06699e+07
1.06727e+07
1.06755e+07
1.0678e+07
1.06803e+07
1.06823e+07
1.0684e+07
1.06853e+07
1.06862e+07
1.06866e+07
1.06864e+07
1.06855e+07
1.0684e+07
1.06816e+07
1.06783e+07
1.06741e+07
1.06688e+07
1.06625e+07
1.06549e+07
1.02532e+07
1.02533e+07
1.02535e+07
1.02537e+07
1.0254e+07
1.02544e+07
1.02549e+07
1.02555e+07
1.02561e+07
1.02568e+07
1.02576e+07
1.02585e+07
1.02594e+07
1.02605e+07
1.02616e+07
1.02628e+07
1.0264e+07
1.02653e+07
1.02667e+07
1.02682e+07
1.02697e+07
1.02713e+07
1.02729e+07
1.02746e+07
1.02764e+07
1.02782e+07
1.02801e+07
1.0282e+07
1.0284e+07
1.0286e+07
1.02881e+07
1.02902e+07
1.02924e+07
1.02946e+07
1.02968e+07
1.02991e+07
1.03014e+07
1.03037e+07
1.03061e+07
1.03085e+07
1.03109e+07
1.03134e+07
1.03159e+07
1.03184e+07
1.03209e+07
1.03235e+07
1.03261e+07
1.03287e+07
1.03313e+07
1.03339e+07
1.03366e+07
1.03393e+07
1.0342e+07
1.03447e+07
1.03474e+07
1.03501e+07
1.03528e+07
1.03556e+07
1.03584e+07
1.03611e+07
1.03639e+07
1.03667e+07
1.03695e+07
1.03723e+07
1.03751e+07
1.0378e+07
1.03808e+07
1.03836e+07
1.03865e+07
1.03893e+07
1.03922e+07
1.0395e+07
1.03979e+07
1.04008e+07
1.04036e+07
1.04065e+07
1.04094e+07
1.04123e+07
1.04151e+07
1.0418e+07
1.04209e+07
1.04238e+07
1.04267e+07
1.04296e+07
1.04325e+07
1.04354e+07
1.04382e+07
1.04411e+07
1.0444e+07
1.04469e+07
1.04498e+07
1.04527e+07
1.04556e+07
1.04585e+07
1.04614e+07
1.04643e+07
1.04672e+07
1.04702e+07
1.04731e+07
1.0476e+07
1.04789e+07
1.04818e+07
1.04847e+07
1.04876e+07
1.04905e+07
1.04934e+07
1.04963e+07
1.04993e+07
1.05022e+07
1.05051e+07
1.0508e+07
1.0511e+07
1.05139e+07
1.05168e+07
1.05198e+07
1.05227e+07
1.05257e+07
1.05286e+07
1.05316e+07
1.05345e+07
1.05375e+07
1.05405e+07
1.05435e+07
1.05465e+07
1.05495e+07
1.05525e+07
1.05555e+07
1.05586e+07
1.05616e+07
1.05647e+07
1.05678e+07
1.05709e+07
1.0574e+07
1.05772e+07
1.05803e+07
1.05835e+07
1.05867e+07
1.05899e+07
1.05931e+07
1.05964e+07
1.05996e+07
1.06029e+07
1.06062e+07
1.06096e+07
1.06129e+07
1.06163e+07
1.06197e+07
1.06231e+07
1.06266e+07
1.063e+07
1.06334e+07
1.06369e+07
1.06404e+07
1.06438e+07
1.06473e+07
1.06507e+07
1.06541e+07
1.06575e+07
1.06608e+07
1.06641e+07
1.06672e+07
1.06703e+07
1.06732e+07
1.0676e+07
1.06786e+07
1.0681e+07
1.06831e+07
1.06849e+07
1.06863e+07
1.06873e+07
1.06878e+07
1.06877e+07
1.0687e+07
1.06855e+07
1.06832e+07
1.068e+07
1.06758e+07
1.06706e+07
1.06642e+07
1.06566e+07
1.02505e+07
1.02505e+07
1.02507e+07
1.0251e+07
1.02513e+07
1.02518e+07
1.02523e+07
1.02529e+07
1.02536e+07
1.02543e+07
1.02552e+07
1.02561e+07
1.02571e+07
1.02582e+07
1.02594e+07
1.02607e+07
1.0262e+07
1.02634e+07
1.02648e+07
1.02664e+07
1.0268e+07
1.02697e+07
1.02714e+07
1.02732e+07
1.0275e+07
1.02769e+07
1.02789e+07
1.02809e+07
1.02829e+07
1.0285e+07
1.02871e+07
1.02893e+07
1.02915e+07
1.02938e+07
1.02961e+07
1.02984e+07
1.03008e+07
1.03032e+07
1.03056e+07
1.03081e+07
1.03105e+07
1.0313e+07
1.03156e+07
1.03181e+07
1.03207e+07
1.03233e+07
1.03259e+07
1.03285e+07
1.03312e+07
1.03339e+07
1.03366e+07
1.03392e+07
1.0342e+07
1.03447e+07
1.03474e+07
1.03502e+07
1.03529e+07
1.03557e+07
1.03585e+07
1.03613e+07
1.03641e+07
1.03669e+07
1.03697e+07
1.03725e+07
1.03753e+07
1.03782e+07
1.0381e+07
1.03838e+07
1.03867e+07
1.03895e+07
1.03924e+07
1.03952e+07
1.03981e+07
1.0401e+07
1.04038e+07
1.04067e+07
1.04096e+07
1.04125e+07
1.04154e+07
1.04182e+07
1.04211e+07
1.0424e+07
1.04269e+07
1.04298e+07
1.04327e+07
1.04356e+07
1.04385e+07
1.04414e+07
1.04442e+07
1.04471e+07
1.045e+07
1.04529e+07
1.04558e+07
1.04587e+07
1.04616e+07
1.04645e+07
1.04674e+07
1.04703e+07
1.04732e+07
1.04761e+07
1.0479e+07
1.04819e+07
1.04849e+07
1.04878e+07
1.04907e+07
1.04936e+07
1.04965e+07
1.04994e+07
1.05023e+07
1.05052e+07
1.05082e+07
1.05111e+07
1.0514e+07
1.05169e+07
1.05199e+07
1.05228e+07
1.05258e+07
1.05287e+07
1.05317e+07
1.05346e+07
1.05376e+07
1.05406e+07
1.05436e+07
1.05466e+07
1.05496e+07
1.05526e+07