/*--------------------------------*- C++ -*----------------------------------*\
  =========                 |
  \\      /  F ield         | OpenFOAM: The Open Source CFD Toolbox
   \\    /   O peration     | Website:  https://openfoam.org
    \\  /    A nd           | Version:  10
     \\/     M anipulation  |
\*---------------------------------------------------------------------------*/
FoamFile
{
    format      ascii;
    class       volScalarField;
    location    "0.012";
    object      pPrime2Mean;
}
// * * * * * * * * * * * * * * * * * * * * * * * * * * * * * * * * * * * * * //

dimensions      [0 4 -4 0 0 0 0];

internalField   nonuniform List<scalar> 
12225
(
3.41293e+07
3.35832e+07
3.30218e+07
3.24804e+07
3.19602e+07
3.14599e+07
3.09779e+07
3.05128e+07
3.00632e+07
2.96274e+07
2.92037e+07
2.87899e+07
2.83838e+07
2.79821e+07
2.75807e+07
2.7173e+07
2.67473e+07
2.62734e+07
3.41301e+07
3.35835e+07
3.30221e+07
3.24807e+07
3.19605e+07
3.14602e+07
3.09783e+07
3.05133e+07
3.00638e+07
2.96282e+07
2.92046e+07
2.87912e+07
2.83854e+07
2.79844e+07
2.75842e+07
2.71786e+07
2.67579e+07
2.62995e+07
3.41311e+07
3.3584e+07
3.30226e+07
3.24812e+07
3.19612e+07
3.1461e+07
3.09792e+07
3.05144e+07
3.00652e+07
2.96299e+07
2.92067e+07
2.87939e+07
2.83891e+07
2.79895e+07
2.75917e+07
2.71905e+07
2.67791e+07
2.63487e+07
3.41321e+07
3.35849e+07
3.30235e+07
3.24822e+07
3.19623e+07
3.14623e+07
3.09807e+07
3.05162e+07
3.00674e+07
2.96326e+07
2.92102e+07
2.87984e+07
2.83951e+07
2.79978e+07
2.76036e+07
2.72089e+07
2.68102e+07
2.64078e+07
3.4133e+07
3.35861e+07
3.30248e+07
3.24837e+07
3.19639e+07
3.14641e+07
3.09829e+07
3.05189e+07
3.00707e+07
2.96367e+07
2.92153e+07
2.8805e+07
2.84038e+07
2.80096e+07
2.76203e+07
2.72338e+07
2.68493e+07
2.64716e+07
3.41345e+07
3.35877e+07
3.30266e+07
3.24856e+07
3.19662e+07
3.14667e+07
3.0986e+07
3.05226e+07
3.00751e+07
2.96422e+07
2.92223e+07
2.88139e+07
2.84154e+07
2.80252e+07
2.76418e+07
2.72645e+07
2.68944e+07
2.65376e+07
3.41363e+07
3.35899e+07
3.3029e+07
3.24883e+07
3.19691e+07
3.14702e+07
3.099e+07
3.05274e+07
3.0081e+07
2.96494e+07
2.92313e+07
2.88254e+07
2.84302e+07
2.80447e+07
2.76681e+07
2.73005e+07
2.69442e+07
2.66048e+07
3.41385e+07
3.35927e+07
3.30321e+07
3.24917e+07
3.19729e+07
3.14745e+07
3.09952e+07
3.05336e+07
3.00885e+07
2.96586e+07
2.92427e+07
2.88396e+07
2.84484e+07
2.80682e+07
2.76989e+07
2.73411e+07
2.69974e+07
2.66726e+07
3.41421e+07
3.35964e+07
3.3036e+07
3.24959e+07
3.19777e+07
3.148e+07
3.10016e+07
3.05412e+07
3.00977e+07
2.96698e+07
2.92566e+07
2.88569e+07
2.84701e+07
2.80957e+07
2.77339e+07
2.73857e+07
2.70534e+07
2.67406e+07
3.41461e+07
3.3601e+07
3.30408e+07
3.25012e+07
3.19836e+07
3.14868e+07
3.10095e+07
3.05505e+07
3.01089e+07
2.96834e+07
2.92731e+07
2.88772e+07
2.84952e+07
2.8127e+07
2.77727e+07
2.74336e+07
2.71115e+07
2.68089e+07
3.4153e+07
3.36069e+07
3.30468e+07
3.25076e+07
3.19907e+07
3.14949e+07
3.10189e+07
3.05617e+07
3.01221e+07
2.96993e+07
2.92924e+07
2.89007e+07
2.85238e+07
2.81618e+07
2.78149e+07
2.74843e+07
2.71711e+07
2.68772e+07
3.41585e+07
3.36133e+07
3.30534e+07
3.25146e+07
3.19985e+07
3.15037e+07
3.10291e+07
3.05737e+07
3.01364e+07
2.97163e+07
2.93127e+07
2.8925e+07
2.8553e+07
2.81967e+07
2.78563e+07
2.75328e+07
2.72269e+07
2.69399e+07
3.41671e+07
3.36208e+07
3.30609e+07
3.25226e+07
3.20073e+07
3.15137e+07
3.10407e+07
3.05872e+07
3.01523e+07
2.97351e+07
2.9335e+07
2.89515e+07
2.85843e+07
2.82335e+07
2.78993e+07
2.75823e+07
2.7283e+07
2.70019e+07
3.41782e+07
3.36309e+07
3.30709e+07
3.25332e+07
3.20189e+07
3.15269e+07
3.10558e+07
3.06047e+07
3.01727e+07
2.97591e+07
2.93631e+07
2.89845e+07
2.86228e+07
2.82781e+07
2.79505e+07
2.76402e+07
2.73474e+07
2.70723e+07
3.41927e+07
3.36441e+07
3.3084e+07
3.25471e+07
3.20342e+07
3.1544e+07
3.10754e+07
3.06273e+07
3.01989e+07
2.97894e+07
2.93983e+07
2.90251e+07
2.86695e+07
2.83313e+07
2.80105e+07
2.7707e+07
2.74206e+07
2.71513e+07
3.42099e+07
3.36608e+07
3.3101e+07
3.25651e+07
3.20539e+07
3.15661e+07
3.11004e+07
3.06559e+07
3.02317e+07
2.9827e+07
2.94413e+07
2.90741e+07
2.87249e+07
2.83935e+07
2.80794e+07
2.77825e+07
2.75024e+07
2.72387e+07
3.42312e+07
3.36816e+07
3.31225e+07
3.2588e+07
3.2079e+07
3.1594e+07
3.11318e+07
3.06914e+07
3.02719e+07
2.98726e+07
2.94928e+07
2.91318e+07
2.87891e+07
2.84643e+07
2.81568e+07
2.78662e+07
2.75919e+07
2.73334e+07
3.42539e+07
3.37061e+07
3.31486e+07
3.26161e+07
3.21098e+07
3.16281e+07
3.11698e+07
3.0734e+07
3.03197e+07
2.99259e+07
2.95521e+07
2.91973e+07
2.8861e+07
2.85425e+07
2.82412e+07
2.79564e+07
2.76873e+07
2.74334e+07
3.42817e+07
3.37353e+07
3.31795e+07
3.26493e+07
3.21459e+07
3.16678e+07
3.12137e+07
3.07827e+07
3.03735e+07
2.99853e+07
2.96172e+07
2.92683e+07
2.89379e+07
2.86252e+07
2.83293e+07
2.80495e+07
2.77851e+07
2.75353e+07
3.43101e+07
3.37619e+07
3.32064e+07
3.26777e+07
3.21765e+07
3.17012e+07
3.12503e+07
3.08227e+07
3.04174e+07
3.00331e+07
2.96691e+07
2.93243e+07
2.89978e+07
2.86889e+07
2.83966e+07
2.81201e+07
2.78587e+07
2.76115e+07
3.43259e+07
3.37792e+07
3.32246e+07
3.26971e+07
3.21975e+07
3.1724e+07
3.12753e+07
3.085e+07
3.0447e+07
3.00653e+07
2.97037e+07
2.93614e+07
2.90374e+07
2.87307e+07
2.84406e+07
2.81661e+07
2.79064e+07
2.76608e+07
3.43401e+07
3.3792e+07
3.32378e+07
3.27113e+07
3.2213e+07
3.17409e+07
3.12937e+07
3.087e+07
3.04687e+07
3.00887e+07
2.97289e+07
2.93882e+07
2.90658e+07
2.87607e+07
2.8472e+07
2.81988e+07
2.79404e+07
2.76957e+07
3.43451e+07
3.37998e+07
3.32469e+07
3.27214e+07
3.2224e+07
3.1753e+07
3.13069e+07
3.08844e+07
3.04843e+07
3.01055e+07
2.97468e+07
2.94074e+07
2.90861e+07
2.8782e+07
2.84943e+07
2.8222e+07
2.79643e+07
2.77204e+07
3.43502e+07
3.38051e+07
3.32531e+07
3.27284e+07
3.22318e+07
3.17616e+07
3.13163e+07
3.08946e+07
3.04953e+07
3.01173e+07
2.97595e+07
2.94208e+07
2.91003e+07
2.8797e+07
2.85099e+07
2.82382e+07
2.79811e+07
2.77376e+07
3.43526e+07
3.38083e+07
3.32571e+07
3.27332e+07
3.22372e+07
3.17675e+07
3.13228e+07
3.09016e+07
3.05029e+07
3.01255e+07
2.97683e+07
2.94301e+07
2.91101e+07
2.88072e+07
2.85206e+07
2.82493e+07
2.79925e+07
2.77494e+07
3.43514e+07
3.38098e+07
3.32596e+07
3.27363e+07
3.22408e+07
3.17715e+07
3.13271e+07
3.09064e+07
3.05081e+07
3.0131e+07
2.97741e+07
2.94363e+07
2.91167e+07
2.88141e+07
2.85278e+07
2.82568e+07
2.80002e+07
2.77573e+07
3.43507e+07
3.38106e+07
3.32612e+07
3.27383e+07
3.2243e+07
3.1774e+07
3.13299e+07
3.09094e+07
3.05114e+07
3.01346e+07
2.97779e+07
2.94404e+07
2.91209e+07
2.88186e+07
2.85324e+07
2.82616e+07
2.80052e+07
2.77624e+07
3.43507e+07
3.38111e+07
3.32621e+07
3.27395e+07
3.22444e+07
3.17756e+07
3.13316e+07
3.09113e+07
3.05134e+07
3.01367e+07
2.97802e+07
2.94428e+07
2.91235e+07
2.88213e+07
2.85352e+07
2.82645e+07
2.80082e+07
2.77655e+07
3.43509e+07
3.38114e+07
3.32626e+07
3.27401e+07
3.22452e+07
3.17764e+07
3.13326e+07
3.09123e+07
3.05145e+07
3.01379e+07
2.97814e+07
2.94441e+07
2.91249e+07
2.88227e+07
2.85367e+07
2.8266e+07
2.80098e+07
2.77671e+07
3.43511e+07
3.38115e+07
3.32628e+07
3.27404e+07
3.22455e+07
3.17768e+07
3.13329e+07
3.09127e+07
3.05149e+07
3.01383e+07
2.97819e+07
2.94446e+07
2.91254e+07
2.88233e+07
2.85373e+07
2.82667e+07
2.80104e+07
2.77678e+07
2.22048e+07
2.2203e+07
2.21994e+07
2.2194e+07
2.21868e+07
2.21776e+07
2.21665e+07
2.21534e+07
2.21383e+07
2.21212e+07
2.21021e+07
2.20809e+07
2.20576e+07
2.20323e+07
2.20048e+07
2.19753e+07
2.19436e+07
2.19099e+07
2.1874e+07
2.1836e+07
2.17959e+07
2.17537e+07
2.17095e+07
2.16631e+07
2.16147e+07
2.15642e+07
2.15118e+07
2.14573e+07
2.14008e+07
2.13423e+07
2.12819e+07
2.12195e+07
2.11553e+07
2.10891e+07
2.10211e+07
2.09513e+07
2.08797e+07
2.08063e+07
2.07311e+07
2.06543e+07
2.05757e+07
2.04955e+07
2.04137e+07
2.03302e+07
2.02452e+07
2.01587e+07
2.00706e+07
1.99811e+07
1.98902e+07
1.97978e+07
1.97041e+07
1.96089e+07
1.95125e+07
1.94148e+07
1.93158e+07
1.92155e+07
1.91141e+07
1.90114e+07
1.89076e+07
1.88026e+07
1.86965e+07
1.85893e+07
1.8481e+07
1.83716e+07
1.82612e+07
1.81498e+07
1.80374e+07
1.7924e+07
1.78097e+07
1.76944e+07
1.75782e+07
1.74611e+07
1.73431e+07
1.72242e+07
1.71045e+07
1.6984e+07
1.68627e+07
1.67406e+07
1.66177e+07
1.6494e+07
1.63696e+07
1.62444e+07
1.61186e+07
1.5992e+07
1.58647e+07
1.57368e+07
1.56082e+07
1.5479e+07
1.53492e+07
1.52187e+07
1.50876e+07
1.4956e+07
1.48237e+07
1.46909e+07
1.45576e+07
1.44237e+07
1.42893e+07
1.41544e+07
1.4019e+07
1.38831e+07
1.37467e+07
1.36099e+07
1.34726e+07
1.33349e+07
1.31968e+07
1.30582e+07
1.29193e+07
1.278e+07
1.26403e+07
1.25002e+07
1.23598e+07
1.22191e+07
1.2078e+07
1.19367e+07
1.1795e+07
1.16531e+07
1.15109e+07
1.13685e+07
1.12258e+07
1.10829e+07
1.09398e+07
1.07965e+07
1.0653e+07
1.05094e+07
1.03656e+07
1.02216e+07
1.00776e+07
9.93346e+06
9.78924e+06
9.64495e+06
9.50061e+06
9.35624e+06
9.21186e+06
9.06749e+06
8.92313e+06
8.77882e+06
8.63457e+06
8.49041e+06
8.34634e+06
8.2024e+06
8.05861e+06
7.91497e+06
7.77153e+06
7.62829e+06
7.48529e+06
7.34254e+06
7.20006e+06
7.05789e+06
6.91605e+06
6.77456e+06
6.63345e+06
6.49275e+06
6.35247e+06
6.21265e+06
6.07333e+06
5.93451e+06
5.79625e+06
5.65855e+06
5.52147e+06
5.38502e+06
5.24925e+06
5.11418e+06
4.97985e+06
4.8463e+06
4.71356e+06
4.58167e+06
4.45068e+06
4.32062e+06
4.19155e+06
4.06351e+06
3.93655e+06
3.81074e+06
3.68615e+06
3.56284e+06
3.44092e+06
3.32052e+06
3.20178e+06
3.08495e+06
2.97045e+06
2.85917e+06
2.22128e+07
2.2211e+07
2.22074e+07
2.2202e+07
2.21947e+07
2.21854e+07
2.21742e+07
2.21611e+07
2.21459e+07
2.21287e+07
2.21095e+07
2.20882e+07
2.20648e+07
2.20393e+07
2.20117e+07
2.19821e+07
2.19503e+07
2.19163e+07
2.18803e+07
2.18422e+07
2.18019e+07
2.17596e+07
2.17151e+07
2.16686e+07
2.162e+07
2.15694e+07
2.15167e+07
2.14621e+07
2.14054e+07
2.13468e+07
2.12862e+07
2.12237e+07
2.11593e+07
2.1093e+07
2.10248e+07
2.09549e+07
2.08831e+07
2.08095e+07
2.07343e+07
2.06572e+07
2.05786e+07
2.04982e+07
2.04162e+07
2.03327e+07
2.02476e+07
2.01609e+07
2.00728e+07
1.99831e+07
1.98921e+07
1.97996e+07
1.97058e+07
1.96106e+07
1.95141e+07
1.94163e+07
1.93172e+07
1.92169e+07
1.91153e+07
1.90126e+07
1.89087e+07
1.88036e+07
1.86975e+07
1.85902e+07
1.84819e+07
1.83724e+07
1.8262e+07
1.81505e+07
1.80381e+07
1.79247e+07
1.78103e+07
1.7695e+07
1.75787e+07
1.74616e+07
1.73436e+07
1.72247e+07
1.7105e+07
1.69844e+07
1.68631e+07
1.67409e+07
1.6618e+07
1.64943e+07
1.63699e+07
1.62447e+07
1.61188e+07
1.59922e+07
1.5865e+07
1.5737e+07
1.56084e+07
1.54792e+07
1.53493e+07
1.52188e+07
1.50878e+07
1.49561e+07
1.48239e+07
1.46911e+07
1.45577e+07
1.44238e+07
1.42894e+07
1.41545e+07
1.40191e+07
1.38832e+07
1.37468e+07
1.361e+07
1.34727e+07
1.3335e+07
1.31968e+07
1.30583e+07
1.29193e+07
1.278e+07
1.26403e+07
1.25002e+07
1.23598e+07
1.22191e+07
1.20781e+07
1.19367e+07
1.17951e+07
1.16531e+07
1.15109e+07
1.13685e+07
1.12258e+07
1.10829e+07
1.09398e+07
1.07965e+07
1.0653e+07
1.05094e+07
1.03656e+07
1.02216e+07
1.00776e+07
9.93346e+06
9.78924e+06
9.64495e+06
9.50062e+06
9.35625e+06
9.21187e+06
9.06749e+06
8.92314e+06
8.77883e+06
8.63458e+06
8.49041e+06
8.34635e+06
8.2024e+06
8.05861e+06
7.91497e+06
7.77153e+06
7.62829e+06
7.48529e+06
7.34254e+06
7.20006e+06
7.0579e+06
6.91605e+06
6.77456e+06
6.63345e+06
6.49275e+06
6.35247e+06
6.21265e+06
6.07333e+06
5.93451e+06
5.79625e+06
5.65855e+06
5.52147e+06
5.38502e+06
5.24925e+06
5.11418e+06
4.97985e+06
4.8463e+06
4.71356e+06
4.58167e+06
4.45067e+06
4.32061e+06
4.19154e+06
4.06349e+06
3.93653e+06
3.81071e+06
3.68611e+06
3.56279e+06
3.44086e+06
3.32042e+06
3.20164e+06
3.08474e+06
2.97007e+06
2.85827e+06
2.22289e+07
2.22271e+07
2.22234e+07
2.22179e+07
2.22105e+07
2.22012e+07
2.21898e+07
2.21765e+07
2.21612e+07
2.21438e+07
2.21243e+07
2.21028e+07
2.20792e+07
2.20535e+07
2.20256e+07
2.19956e+07
2.19635e+07
2.19293e+07
2.1893e+07
2.18545e+07
2.18139e+07
2.17712e+07
2.17265e+07
2.16796e+07
2.16307e+07
2.15797e+07
2.15267e+07
2.14717e+07
2.14147e+07
2.13557e+07
2.12948e+07
2.1232e+07
2.11673e+07
2.11007e+07
2.10322e+07
2.09619e+07
2.08899e+07
2.0816e+07
2.07405e+07
2.06632e+07
2.05842e+07
2.05036e+07
2.04214e+07
2.03376e+07
2.02522e+07
2.01654e+07
2.0077e+07
1.99872e+07
1.98959e+07
1.98033e+07
1.97092e+07
1.96139e+07
1.95172e+07
1.94192e+07
1.932e+07
1.92195e+07
1.91178e+07
1.90149e+07
1.89109e+07
1.88057e+07
1.86995e+07
1.85921e+07
1.84836e+07
1.83741e+07
1.82636e+07
1.8152e+07
1.80395e+07
1.7926e+07
1.78115e+07
1.76961e+07
1.75798e+07
1.74626e+07
1.73445e+07
1.72256e+07
1.71058e+07
1.69852e+07
1.68638e+07
1.67416e+07
1.66186e+07
1.64949e+07
1.63704e+07
1.62452e+07
1.61193e+07
1.59927e+07
1.58654e+07
1.57374e+07
1.56088e+07
1.54796e+07
1.53497e+07
1.52192e+07
1.50881e+07
1.49564e+07
1.48241e+07
1.46913e+07
1.45579e+07
1.4424e+07
1.42896e+07
1.41547e+07
1.40192e+07
1.38833e+07
1.37469e+07
1.36101e+07
1.34728e+07
1.33351e+07
1.31969e+07
1.30584e+07
1.29194e+07
1.27801e+07
1.26404e+07
1.25003e+07
1.23599e+07
1.22192e+07
1.20781e+07
1.19367e+07
1.17951e+07
1.16532e+07
1.1511e+07
1.13685e+07
1.12258e+07
1.10829e+07
1.09398e+07
1.07965e+07
1.0653e+07
1.05094e+07
1.03656e+07
1.02217e+07
1.00776e+07
9.93348e+06
9.78925e+06
9.64496e+06
9.50062e+06
9.35625e+06
9.21187e+06
9.06749e+06
8.92314e+06
8.77883e+06
8.63458e+06
8.49041e+06
8.34635e+06
8.20241e+06
8.05861e+06
7.91498e+06
7.77153e+06
7.62829e+06
7.48529e+06
7.34254e+06
7.20007e+06
7.0579e+06
6.91605e+06
6.77457e+06
6.63345e+06
6.49275e+06
6.35247e+06
6.21266e+06
6.07333e+06
5.93451e+06
5.79624e+06
5.65855e+06
5.52147e+06
5.38502e+06
5.24924e+06
5.11417e+06
4.97984e+06
4.84629e+06
4.71355e+06
4.58165e+06
4.45066e+06
4.32059e+06
4.19151e+06
4.06346e+06
3.93649e+06
3.81066e+06
3.68603e+06
3.56269e+06
3.44072e+06
3.32024e+06
3.20137e+06
3.08433e+06
2.96937e+06
2.85685e+06
2.22532e+07
2.22513e+07
2.22476e+07
2.2242e+07
2.22344e+07
2.22249e+07
2.22134e+07
2.21998e+07
2.21842e+07
2.21665e+07
2.21467e+07
2.21249e+07
2.21009e+07
2.20747e+07
2.20465e+07
2.20161e+07
2.19835e+07
2.19488e+07
2.1912e+07
2.1873e+07
2.18319e+07
2.17888e+07
2.17435e+07
2.16961e+07
2.16467e+07
2.15952e+07
2.15417e+07
2.14861e+07
2.14286e+07
2.13692e+07
2.13078e+07
2.12445e+07
2.11792e+07
2.11122e+07
2.10433e+07
2.09725e+07
2.09e+07
2.08258e+07
2.07498e+07
2.06721e+07
2.05927e+07
2.05117e+07
2.04291e+07
2.0345e+07
2.02593e+07
2.0172e+07
2.00833e+07
1.99932e+07
1.99016e+07
1.98087e+07
1.97144e+07
1.96187e+07
1.95218e+07
1.94236e+07
1.93241e+07
1.92234e+07
1.91215e+07
1.90185e+07
1.89142e+07
1.88089e+07
1.87024e+07
1.85949e+07
1.84863e+07
1.83766e+07
1.82659e+07
1.81542e+07
1.80416e+07
1.79279e+07
1.78134e+07
1.76979e+07
1.75815e+07
1.74642e+07
1.7346e+07
1.7227e+07
1.71071e+07
1.69864e+07
1.68649e+07
1.67427e+07
1.66196e+07
1.64958e+07
1.63713e+07
1.6246e+07
1.61201e+07
1.59934e+07
1.58661e+07
1.5738e+07
1.56094e+07
1.54801e+07
1.53502e+07
1.52196e+07
1.50885e+07
1.49568e+07
1.48245e+07
1.46916e+07
1.45582e+07
1.44243e+07
1.42899e+07
1.41549e+07
1.40195e+07
1.38835e+07
1.37471e+07
1.36103e+07
1.3473e+07
1.33352e+07
1.31971e+07
1.30585e+07
1.29195e+07
1.27802e+07
1.26405e+07
1.25004e+07
1.236e+07
1.22192e+07
1.20782e+07
1.19368e+07
1.17952e+07
1.16532e+07
1.1511e+07
1.13686e+07
1.12259e+07
1.1083e+07
1.09398e+07
1.07965e+07
1.06531e+07
1.05094e+07
1.03656e+07
1.02217e+07
1.00776e+07
9.93349e+06
9.78927e+06
9.64498e+06
9.50064e+06
9.35627e+06
9.21188e+06
9.0675e+06
8.92315e+06
8.77884e+06
8.63459e+06
8.49042e+06
8.34635e+06
8.20241e+06
8.05861e+06
7.91498e+06
7.77153e+06
7.6283e+06
7.48529e+06
7.34254e+06
7.20007e+06
7.0579e+06
6.91606e+06
6.77457e+06
6.63346e+06
6.49275e+06
6.35247e+06
6.21266e+06
6.07333e+06
5.93451e+06
5.79624e+06
5.65855e+06
5.52146e+06
5.38502e+06
5.24924e+06
5.11417e+06
4.97983e+06
4.84628e+06
4.71353e+06
4.58164e+06
4.45063e+06
4.32056e+06
4.19147e+06
4.06341e+06
3.93642e+06
3.81057e+06
3.68592e+06
3.56255e+06
3.44053e+06
3.31997e+06
3.20099e+06
3.08376e+06
2.96844e+06
2.85521e+06
2.22858e+07
2.22839e+07
2.22801e+07
2.22743e+07
2.22665e+07
2.22567e+07
2.22449e+07
2.2231e+07
2.22151e+07
2.2197e+07
2.21768e+07
2.21544e+07
2.21299e+07
2.21032e+07
2.20744e+07
2.20434e+07
2.20102e+07
2.19749e+07
2.19374e+07
2.18978e+07
2.1856e+07
2.18121e+07
2.17662e+07
2.17181e+07
2.1668e+07
2.16158e+07
2.15616e+07
2.15054e+07
2.14472e+07
2.13871e+07
2.1325e+07
2.1261e+07
2.11952e+07
2.11275e+07
2.1058e+07
2.09866e+07
2.09135e+07
2.08387e+07
2.07621e+07
2.06839e+07
2.0604e+07
2.05225e+07
2.04394e+07
2.03548e+07
2.02686e+07
2.01809e+07
2.00918e+07
2.00012e+07
1.99092e+07
1.98159e+07
1.97212e+07
1.96252e+07
1.95279e+07
1.94294e+07
1.93296e+07
1.92286e+07
1.91265e+07
1.90231e+07
1.89187e+07
1.88131e+07
1.87064e+07
1.85986e+07
1.84898e+07
1.83799e+07
1.82691e+07
1.81572e+07
1.80444e+07
1.79306e+07
1.78158e+07
1.77002e+07
1.75836e+07
1.74662e+07
1.73479e+07
1.72288e+07
1.71088e+07
1.6988e+07
1.68664e+07
1.67441e+07
1.66209e+07
1.64971e+07
1.63724e+07
1.62471e+07
1.61211e+07
1.59943e+07
1.58669e+07
1.57389e+07
1.56101e+07
1.54808e+07
1.53508e+07
1.52202e+07
1.50891e+07
1.49573e+07
1.4825e+07
1.46921e+07
1.45587e+07
1.44247e+07
1.42902e+07
1.41553e+07
1.40198e+07
1.38838e+07
1.37474e+07
1.36105e+07
1.34732e+07
1.33354e+07
1.31973e+07
1.30587e+07
1.29197e+07
1.27803e+07
1.26406e+07
1.25005e+07
1.23601e+07
1.22194e+07
1.20783e+07
1.19369e+07
1.17952e+07
1.16533e+07
1.15111e+07
1.13686e+07
1.12259e+07
1.1083e+07
1.09399e+07
1.07966e+07
1.06531e+07
1.05094e+07
1.03656e+07
1.02217e+07
1.00777e+07
9.93352e+06
9.78929e+06
9.645e+06
9.50065e+06
9.35628e+06
9.2119e+06
9.06752e+06
8.92316e+06
8.77885e+06
8.6346e+06
8.49043e+06
8.34636e+06
8.20242e+06
8.05862e+06
7.91499e+06
7.77154e+06
7.6283e+06
7.4853e+06
7.34254e+06
7.20007e+06
7.0579e+06
6.91606e+06
6.77457e+06
6.63346e+06
6.49275e+06
6.35247e+06
6.21266e+06
6.07333e+06
5.93451e+06
5.79624e+06
5.65855e+06
5.52146e+06
5.38501e+06
5.24923e+06
5.11416e+06
4.97982e+06
4.84626e+06
4.71351e+06
4.58161e+06
4.4506e+06
4.32052e+06
4.19142e+06
4.06334e+06
3.93634e+06
3.81046e+06
3.68578e+06
3.56236e+06
3.44028e+06
3.31963e+06
3.20051e+06
3.08305e+06
2.96737e+06
2.85348e+06
2.2327e+07
2.2325e+07
2.2321e+07
2.2315e+07
2.2307e+07
2.22969e+07
2.22847e+07
2.22704e+07
2.22539e+07
2.22353e+07
2.22145e+07
2.21916e+07
2.21664e+07
2.2139e+07
2.21094e+07
2.20777e+07
2.20437e+07
2.20076e+07
2.19693e+07
2.19288e+07
2.18862e+07
2.18414e+07
2.17946e+07
2.17456e+07
2.16946e+07
2.16416e+07
2.15865e+07
2.15294e+07
2.14704e+07
2.14094e+07
2.13465e+07
2.12817e+07
2.12151e+07
2.11466e+07
2.10763e+07
2.10042e+07
2.09304e+07
2.08548e+07
2.07776e+07
2.06987e+07
2.06181e+07
2.05359e+07
2.04522e+07
2.03669e+07
2.02802e+07
2.01919e+07
2.01022e+07
2.00112e+07
1.99187e+07
1.98249e+07
1.97297e+07
1.96333e+07
1.95356e+07
1.94366e+07
1.93365e+07
1.92351e+07
1.91326e+07
1.90289e+07
1.89241e+07
1.88182e+07
1.87113e+07
1.86032e+07
1.84941e+07
1.8384e+07
1.82729e+07
1.81609e+07
1.80478e+07
1.79338e+07
1.78189e+07
1.77031e+07
1.75863e+07
1.74687e+07
1.73503e+07
1.7231e+07
1.71109e+07
1.699e+07
1.68683e+07
1.67458e+07
1.66226e+07
1.64986e+07
1.63739e+07
1.62484e+07
1.61223e+07
1.59955e+07
1.5868e+07
1.57399e+07
1.56111e+07
1.54817e+07
1.53516e+07
1.5221e+07
1.50898e+07
1.4958e+07
1.48256e+07
1.46927e+07
1.45592e+07
1.44252e+07
1.42907e+07
1.41557e+07
1.40202e+07
1.38842e+07
1.37477e+07
1.36108e+07
1.34735e+07
1.33357e+07
1.31975e+07
1.30589e+07
1.29199e+07
1.27805e+07
1.26408e+07
1.25007e+07
1.23603e+07
1.22195e+07
1.20784e+07
1.1937e+07
1.17953e+07
1.16534e+07
1.15112e+07
1.13687e+07
1.1226e+07
1.10831e+07
1.094e+07
1.07966e+07
1.06531e+07
1.05095e+07
1.03657e+07
1.02217e+07
1.00777e+07
9.93355e+06
9.78931e+06
9.64502e+06
9.50067e+06
9.3563e+06
9.21191e+06
9.06753e+06
8.92317e+06
8.77886e+06
8.63461e+06
8.49044e+06
8.34637e+06
8.20243e+06
8.05863e+06
7.91499e+06
7.77155e+06
7.62831e+06
7.4853e+06
7.34255e+06
7.20008e+06
7.05791e+06
6.91606e+06
6.77457e+06
6.63346e+06
6.49275e+06
6.35248e+06
6.21266e+06
6.07333e+06
5.93451e+06
5.79624e+06
5.65855e+06
5.52146e+06
5.38501e+06
5.24922e+06
5.11415e+06
4.97981e+06
4.84624e+06
4.71349e+06
4.58158e+06
4.45056e+06
4.32047e+06
4.19136e+06
4.06326e+06
3.93623e+06
3.81033e+06
3.68561e+06
3.56213e+06
3.43998e+06
3.31922e+06
3.19995e+06
3.08225e+06
2.9662e+06
2.85173e+06
2.2377e+07
2.23749e+07
2.23707e+07
2.23644e+07
2.23561e+07
2.23456e+07
2.23329e+07
2.23181e+07
2.2301e+07
2.22818e+07
2.22603e+07
2.22365e+07
2.22105e+07
2.21823e+07
2.21518e+07
2.21191e+07
2.20841e+07
2.2047e+07
2.20076e+07
2.19661e+07
2.19224e+07
2.18766e+07
2.18287e+07
2.17787e+07
2.17266e+07
2.16725e+07
2.16163e+07
2.15582e+07
2.14982e+07
2.14362e+07
2.13723e+07
2.13065e+07
2.12389e+07
2.11695e+07
2.10983e+07
2.10253e+07
2.09506e+07
2.08741e+07
2.0796e+07
2.07163e+07
2.06349e+07
2.0552e+07
2.04675e+07
2.03815e+07
2.0294e+07
2.02051e+07
2.01147e+07
2.0023e+07
1.99299e+07
1.98355e+07
1.97399e+07
1.96429e+07
1.95447e+07
1.94453e+07
1.93446e+07
1.92428e+07
1.91399e+07
1.90358e+07
1.89307e+07
1.88244e+07
1.87171e+07
1.86087e+07
1.84993e+07
1.83889e+07
1.82776e+07
1.81652e+07
1.80519e+07
1.79377e+07
1.78225e+07
1.77065e+07
1.75896e+07
1.74718e+07
1.73531e+07
1.72337e+07
1.71134e+07
1.69923e+07
1.68705e+07
1.67479e+07
1.66245e+07
1.65004e+07
1.63756e+07
1.625e+07
1.61238e+07
1.59969e+07
1.58693e+07
1.57411e+07
1.56122e+07
1.54827e+07
1.53526e+07
1.52219e+07
1.50906e+07
1.49588e+07
1.48263e+07
1.46933e+07
1.45598e+07
1.44258e+07
1.42912e+07
1.41562e+07
1.40206e+07
1.38846e+07
1.37481e+07
1.36112e+07
1.34738e+07
1.3336e+07
1.31978e+07
1.30592e+07
1.29202e+07
1.27808e+07
1.2641e+07
1.25009e+07
1.23604e+07
1.22196e+07
1.20785e+07
1.19371e+07
1.17955e+07
1.16535e+07
1.15113e+07
1.13688e+07
1.12261e+07
1.10832e+07
1.094e+07
1.07967e+07
1.06532e+07
1.05095e+07
1.03657e+07
1.02218e+07
1.00777e+07
9.93358e+06
9.78935e+06
9.64505e+06
9.5007e+06
9.35632e+06
9.21193e+06
9.06755e+06
8.92319e+06
8.77887e+06
8.63462e+06
8.49045e+06
8.34638e+06
8.20244e+06
8.05864e+06
7.915e+06
7.77155e+06
7.62831e+06
7.48531e+06
7.34256e+06
7.20008e+06
7.05791e+06
6.91607e+06
6.77458e+06
6.63346e+06
6.49275e+06
6.35248e+06
6.21266e+06
6.07333e+06
5.93451e+06
5.79624e+06
5.65854e+06
5.52145e+06
5.385e+06
5.24922e+06
5.11413e+06
4.97979e+06
4.84622e+06
4.71346e+06
4.58155e+06
4.45052e+06
4.32042e+06
4.19128e+06
4.06317e+06
3.93612e+06
3.81018e+06
3.68541e+06
3.56187e+06
3.43963e+06
3.31876e+06
3.19932e+06
3.08139e+06
2.96497e+06
2.85001e+06
2.24361e+07
2.24339e+07
2.24295e+07
2.24229e+07
2.24141e+07
2.24031e+07
2.23899e+07
2.23744e+07
2.23566e+07
2.23365e+07
2.23141e+07
2.22894e+07
2.22624e+07
2.22331e+07
2.22015e+07
2.21677e+07
2.21315e+07
2.20932e+07
2.20526e+07
2.20098e+07
2.19648e+07
2.19177e+07
2.18685e+07
2.18172e+07
2.17639e+07
2.17085e+07
2.16511e+07
2.15918e+07
2.15305e+07
2.14673e+07
2.14023e+07
2.13353e+07
2.12666e+07
2.11961e+07
2.11238e+07
2.10497e+07
2.0974e+07
2.08965e+07
2.08174e+07
2.07367e+07
2.06544e+07
2.05705e+07
2.04852e+07
2.03983e+07
2.031e+07
2.02203e+07
2.01292e+07
2.00367e+07
1.99429e+07
1.98479e+07
1.97516e+07
1.9654e+07
1.95552e+07
1.94552e+07
1.93541e+07
1.92518e+07
1.91483e+07
1.90438e+07
1.89382e+07
1.88315e+07
1.87238e+07
1.86151e+07
1.85053e+07
1.83946e+07
1.82829e+07
1.81702e+07
1.80566e+07
1.79421e+07
1.78267e+07
1.77104e+07
1.75933e+07
1.74753e+07
1.73564e+07
1.72368e+07
1.71163e+07
1.69951e+07
1.6873e+07
1.67503e+07
1.66267e+07
1.65025e+07
1.63775e+07
1.62519e+07
1.61255e+07
1.59985e+07
1.58708e+07
1.57425e+07
1.56135e+07
1.54839e+07
1.53538e+07
1.5223e+07
1.50916e+07
1.49597e+07
1.48272e+07
1.46941e+07
1.45606e+07
1.44265e+07
1.42919e+07
1.41568e+07
1.40212e+07
1.38851e+07
1.37486e+07
1.36116e+07
1.34742e+07
1.33364e+07
1.31981e+07
1.30595e+07
1.29204e+07
1.2781e+07
1.26412e+07
1.25011e+07
1.23606e+07
1.22198e+07
1.20787e+07
1.19373e+07
1.17956e+07
1.16536e+07
1.15114e+07
1.13689e+07
1.12262e+07
1.10832e+07
1.09401e+07
1.07968e+07
1.06533e+07
1.05096e+07
1.03658e+07
1.02218e+07
1.00778e+07
9.93362e+06
9.78938e+06
9.64508e+06
9.50073e+06
9.35635e+06
9.21196e+06
9.06757e+06
8.92321e+06
8.77889e+06
8.63463e+06
8.49046e+06
8.34639e+06
8.20245e+06
8.05865e+06
7.91501e+06
7.77156e+06
7.62832e+06
7.48532e+06
7.34256e+06
7.20009e+06
7.05792e+06
6.91607e+06
6.77458e+06
6.63347e+06
6.49276e+06
6.35248e+06
6.21266e+06
6.07333e+06
5.93451e+06
5.79624e+06
5.65854e+06
5.52145e+06
5.38499e+06
5.2492e+06
5.11412e+06
4.97977e+06
4.8462e+06
4.71343e+06
4.58151e+06
4.45047e+06
4.32035e+06
4.1912e+06
4.06306e+06
3.93598e+06
3.81001e+06
3.68519e+06
3.56159e+06
3.43926e+06
3.31826e+06
3.19865e+06
3.08048e+06
2.96374e+06
2.84834e+06
2.25048e+07
2.25024e+07
2.24977e+07
2.24907e+07
2.24815e+07
2.24699e+07
2.2456e+07
2.24397e+07
2.2421e+07
2.23999e+07
2.23764e+07
2.23506e+07
2.23224e+07
2.22918e+07
2.22589e+07
2.22236e+07
2.21861e+07
2.21463e+07
2.21042e+07
2.20599e+07
2.20135e+07
2.19649e+07
2.19141e+07
2.18613e+07
2.18065e+07
2.17497e+07
2.16908e+07
2.16301e+07
2.15674e+07
2.15028e+07
2.14364e+07
2.13682e+07
2.12981e+07
2.12263e+07
2.11528e+07
2.10775e+07
2.10006e+07
2.0922e+07
2.08417e+07
2.07599e+07
2.06765e+07
2.05916e+07
2.05052e+07
2.04173e+07
2.03281e+07
2.02374e+07
2.01455e+07
2.00522e+07
1.99576e+07
1.98618e+07
1.97648e+07
1.96665e+07
1.95671e+07
1.94665e+07
1.93647e+07
1.92618e+07
1.91579e+07
1.90528e+07
1.89467e+07
1.88396e+07
1.87314e+07
1.86223e+07
1.85121e+07
1.8401e+07
1.82889e+07
1.81759e+07
1.8062e+07
1.79472e+07
1.78315e+07
1.77149e+07
1.75975e+07
1.74792e+07
1.73601e+07
1.72402e+07
1.71196e+07
1.69981e+07
1.68759e+07
1.67529e+07
1.66293e+07
1.65048e+07
1.63797e+07
1.62539e+07
1.61274e+07
1.60003e+07
1.58725e+07
1.57441e+07
1.5615e+07
1.54853e+07
1.5355e+07
1.52242e+07
1.50927e+07
1.49607e+07
1.48281e+07
1.4695e+07
1.45614e+07
1.44272e+07
1.42926e+07
1.41574e+07
1.40218e+07
1.38857e+07
1.37491e+07
1.36121e+07
1.34747e+07
1.33368e+07
1.31985e+07
1.30598e+07
1.29208e+07
1.27813e+07
1.26415e+07
1.25014e+07
1.23609e+07
1.222e+07
1.20789e+07
1.19375e+07
1.17958e+07
1.16538e+07
1.15115e+07
1.1369e+07
1.12263e+07
1.10833e+07
1.09402e+07
1.07969e+07
1.06533e+07
1.05097e+07
1.03658e+07
1.02219e+07
1.00778e+07
9.93366e+06
9.78942e+06
9.64511e+06
9.50076e+06
9.35638e+06
9.21198e+06
9.06759e+06
8.92323e+06
8.77891e+06
8.63465e+06
8.49048e+06
8.34641e+06
8.20246e+06
8.05866e+06
7.91502e+06
7.77157e+06
7.62833e+06
7.48532e+06
7.34257e+06
7.2001e+06
7.05792e+06
6.91608e+06
6.77459e+06
6.63347e+06
6.49276e+06
6.35248e+06
6.21266e+06
6.07333e+06
5.93451e+06
5.79623e+06
5.65853e+06
5.52144e+06
5.38498e+06
5.24919e+06
5.1141e+06
4.97975e+06
4.84617e+06
4.71339e+06
4.58146e+06
4.45041e+06
4.32028e+06
4.19111e+06
4.06295e+06
3.93584e+06
3.80982e+06
3.68495e+06
3.56128e+06
3.43885e+06
3.31773e+06
3.19795e+06
3.07955e+06
2.9625e+06
2.84673e+06
2.25836e+07
2.2581e+07
2.25759e+07
2.25685e+07
2.25587e+07
2.25463e+07
2.25315e+07
2.25143e+07
2.24945e+07
2.24722e+07
2.24475e+07
2.24202e+07
2.23905e+07
2.23584e+07
2.23239e+07
2.22871e+07
2.22478e+07
2.22063e+07
2.21625e+07
2.21165e+07
2.20683e+07
2.20179e+07
2.19655e+07
2.1911e+07
2.18544e+07
2.17959e+07
2.17354e+07
2.1673e+07
2.16088e+07
2.15426e+07
2.14747e+07
2.14049e+07
2.13334e+07
2.12602e+07
2.11853e+07
2.11087e+07
2.10304e+07
2.09505e+07
2.0869e+07
2.07859e+07
2.07012e+07
2.06151e+07
2.05275e+07
2.04386e+07
2.03482e+07
2.02565e+07
2.01636e+07
2.00694e+07
1.99739e+07
1.98773e+07
1.97794e+07
1.96804e+07
1.95802e+07
1.94789e+07
1.93765e+07
1.9273e+07
1.91685e+07
1.90628e+07
1.89562e+07
1.88485e+07
1.87399e+07
1.86302e+07
1.85196e+07
1.84081e+07
1.82956e+07
1.81822e+07
1.80679e+07
1.79528e+07
1.78367e+07
1.77198e+07
1.76021e+07
1.74836e+07
1.73642e+07
1.72441e+07
1.71232e+07
1.70015e+07
1.68791e+07
1.67559e+07
1.66321e+07
1.65075e+07
1.63822e+07
1.62562e+07
1.61296e+07
1.60023e+07
1.58744e+07
1.57458e+07
1.56166e+07
1.54868e+07
1.53564e+07
1.52255e+07
1.50939e+07
1.49618e+07
1.48292e+07
1.4696e+07
1.45623e+07
1.44281e+07
1.42934e+07
1.41581e+07
1.40225e+07
1.38863e+07
1.37497e+07
1.36126e+07
1.34751e+07
1.33372e+07
1.31989e+07
1.30602e+07
1.29211e+07
1.27816e+07
1.26418e+07
1.25016e+07
1.23611e+07
1.22203e+07
1.20791e+07
1.19377e+07
1.17959e+07
1.16539e+07
1.15117e+07
1.13692e+07
1.12264e+07
1.10835e+07
1.09403e+07
1.07969e+07
1.06534e+07
1.05097e+07
1.03659e+07
1.0222e+07
1.00779e+07
9.93371e+06
9.78947e+06
9.64515e+06
9.5008e+06
9.35641e+06
9.21201e+06
9.06762e+06
8.92325e+06
8.77893e+06
8.63467e+06
8.4905e+06
8.34642e+06
8.20248e+06
8.05867e+06
7.91503e+06
7.77158e+06
7.62834e+06
7.48533e+06
7.34258e+06
7.2001e+06
7.05793e+06
6.91608e+06
6.77459e+06
6.63348e+06
6.49276e+06
6.35248e+06
6.21266e+06
6.07333e+06
5.93451e+06
5.79623e+06
5.65853e+06
5.52143e+06
5.38497e+06
5.24918e+06
5.11409e+06
4.97973e+06
4.84614e+06
4.71336e+06
4.58142e+06
4.45035e+06
4.3202e+06
4.19102e+06
4.06283e+06
3.93568e+06
3.80962e+06
3.68469e+06
3.56095e+06
3.43843e+06
3.31718e+06
3.19724e+06
3.07861e+06
2.96129e+06
2.84519e+06
2.26731e+07
2.26702e+07
2.26648e+07
2.26568e+07
2.26462e+07
2.2633e+07
2.26171e+07
2.25987e+07
2.25776e+07
2.25539e+07
2.25275e+07
2.24987e+07
2.24673e+07
2.24333e+07
2.2397e+07
2.23581e+07
2.2317e+07
2.22734e+07
2.22276e+07
2.21796e+07
2.21294e+07
2.20771e+07
2.20226e+07
2.19661e+07
2.19076e+07
2.18472e+07
2.17848e+07
2.17206e+07
2.16545e+07
2.15866e+07
2.15169e+07
2.14455e+07
2.13724e+07
2.12976e+07
2.12212e+07
2.11431e+07
2.10633e+07
2.0982e+07
2.0899e+07
2.08145e+07
2.07285e+07
2.0641e+07
2.05521e+07
2.04619e+07
2.03703e+07
2.02775e+07
2.01834e+07
2.00882e+07
1.99918e+07
1.98942e+07
1.97955e+07
1.96956e+07
1.95946e+07
1.94926e+07
1.93895e+07
1.92853e+07
1.918e+07
1.90738e+07
1.89665e+07
1.88583e+07
1.87491e+07
1.86389e+07
1.85278e+07
1.84158e+07
1.83029e+07
1.81891e+07
1.80744e+07
1.79589e+07
1.78425e+07
1.77253e+07
1.76072e+07
1.74884e+07
1.73688e+07
1.72483e+07
1.71272e+07
1.70053e+07
1.68826e+07
1.67592e+07
1.66351e+07
1.65103e+07
1.63849e+07
1.62587e+07
1.61319e+07
1.60045e+07
1.58764e+07
1.57477e+07
1.56184e+07
1.54885e+07
1.5358e+07
1.52269e+07
1.50953e+07
1.49631e+07
1.48304e+07
1.46971e+07
1.45633e+07
1.4429e+07
1.42942e+07
1.41589e+07
1.40232e+07
1.3887e+07
1.37503e+07
1.36132e+07
1.34757e+07
1.33377e+07
1.31994e+07
1.30606e+07
1.29215e+07
1.2782e+07
1.26421e+07
1.25019e+07
1.23614e+07
1.22205e+07
1.20793e+07
1.19379e+07
1.17961e+07
1.16541e+07
1.15118e+07
1.13693e+07
1.12266e+07
1.10836e+07
1.09404e+07
1.0797e+07