/*--------------------------------*- C++ -*----------------------------------*\
  =========                 |
  \\      /  F ield         | OpenFOAM: The Open Source CFD Toolbox
   \\    /   O peration     | Website:  https://openfoam.org
    \\  /    A nd           | Version:  10
     \\/     M anipulation  |
\*---------------------------------------------------------------------------*/
FoamFile
{
    format      ascii;
    class       volScalarField;
    location    "22500";
    object      p;
}
// * * * * * * * * * * * * * * * * * * * * * * * * * * * * * * * * * * * * * //

dimensions      [1 -1 -2 0 0 0 0];

internalField   nonuniform List<scalar> 
6400
(
104.144
248.694
399.48
566.098
727.316
902.976
1075.25
1247.16
1415.73
1581.2
1738.27
1892.71
2048.32
2202.71
2355.78
2507.76
2658.12
2806.86
2953.32
3095.79
3235.52
3373.25
3508.6
3640.87
3770.71
3898.41
4023.19
4143.61
4260.24
4373.68
4483.2
4586.18
4652.67
4690.79
4725.65
4756.63
4783
4803.91
4818.48
4825.98
4825.98
4818.48
4803.91
4783
4756.63
4725.65
4690.79
4652.67
4586.18
4483.2
4373.68
4260.24
4143.61
4023.19
3898.41
3770.71
3640.87
3508.6
3373.25
3235.52
3095.79
2953.32
2806.86
2658.12
2507.76
2355.78
2202.71
2048.32
1892.71
1738.27
1581.2
1415.73
1247.16
1075.25
902.976
727.316
566.098
399.48
248.694
104.144
103.754
103.664
104.594
272.261
432.626
609.085
781.239
953.286
1121.86
1287.56
1444.38
1598.66
1754.37
1908.77
2061.83
2213.83
2364.2
2512.96
2659.5
2801.92
2941.62
3079.36
3214.74
3346.98
3476.81
3604.55
3729.39
3849.78
3966.39
4079.86
4189.49
4292.67
4359.31
4397.53
4432.52
4463.67
4490.23
4511.34
4526.07
4533.67
4533.67
4526.07
4511.34
4490.23
4463.67
4432.52
4397.53
4359.31
4292.67
4189.49
4079.86
3966.39
3849.78
3729.39
3604.55
3476.81
3346.98
3214.74
3079.36
2941.62
2801.92
2659.5
2512.96
2364.2
2213.83
2061.83
1908.77
1754.37
1598.66
1444.38
1287.56
1121.86
953.286
781.239
609.085
432.626
272.261
104.594
103.664
103.754
103.359
103.305
103.45
103.246
108.301
286.886
458.69
631.099
799.643
965.948
1122.15
1276.04
1432.01
1586.42
1739.46
1891.52
2041.89
2190.72
2337.45
2479.73
2619.35
2757.14
2892.59
3024.76
3154.57
3282.38
3407.37
3527.71
3644.26
3757.79
3867.7
3971.33
4038.29
4076.76
4112.05
4143.58
4170.6
4192.16
4207.29
4215.11
4215.11
4207.29
4192.16
4170.6
4143.58
4112.05
4076.76
4038.29
3971.33
3867.7
3757.79
3644.26
3527.71
3407.37
3282.38
3154.57
3024.76
2892.59
2757.14
2619.35
2479.73
2337.45
2190.72
2041.89
1891.52
1739.46
1586.42
1432.01
1276.04
1122.15
965.948
799.643
631.099
458.69
286.886
108.301
103.246
103.45
103.305
103.359
102.93
102.898
102.986
102.861
103.033
102.726
104.637
277.913
446.318
613.834
768.833
922.008
1078.52
1232.93
1385.92
1538.1
1688.46
1837.4
1984.49
2126.51
2265.99
2403.86
2539.46
2671.5
2801.25
2929.2
3054.48
3174.69
3291.12
3404.78
3515.15
3619.58
3687.09
3725.97
3761.79
3793.99
3821.8
3844.19
3860.03
3868.27
3868.27
3860.03
3844.19
3821.8
3793.99
3761.79
3725.97
3687.09
3619.58
3515.15
3404.78
3291.12
3174.69
3054.48
2929.2
2801.25
2671.5
2539.46
2403.86
2265.99
2126.51
1984.49
1837.4
1688.46
1538.1
1385.92
1232.93
1078.52
922.008
768.833
613.834
446.318
277.913
104.637
102.726
103.033
102.861
102.986
102.898
102.93
102.462
102.444
102.492
102.416
102.501
102.296
102.349
102.013
102.231
229.168
381.407
533.381
690.921
845.287
998.185
1150.57
1300.9
1450
1597.74
1739.28
1878.54
2016.55
2152.41
2284.2
2413.86
2542.04
2667.82
2787.8
2904.02
3017.85
3128.94
3234.62
3302.95
3342.43
3379.05
3412.3
3441.38
3465.14
3482.17
3491.12
3491.12
3482.17
3465.14
3441.38
3412.3
3379.05
3342.43
3302.95
3234.62
3128.94
3017.85
2904.02
2787.8
2667.82
2542.04
2413.86
2284.2
2152.41
2016.55
1878.54
1739.28
1597.74
1450
1300.9
1150.57
998.185
845.287
690.921
533.381
381.407
229.168
102.231
102.013
102.349
102.296
102.501
102.416
102.492
102.444
102.462
101.95
101.939
101.962
101.914
101.943
101.8
101.783
101.54
101.48
101.184
101.092
106.35
266.065
420.2
572.908
725.684
875.91
1025.19
1174.11
1314.76
1453.68
1591.93
1728.26
1859.6
1989.09
2117.61
2244.26
2363.79
2479.66
2593.71
2705.84
2813.45
2882.85
2923.14
2960.88
2995.67
3026.7
3052.61
3071.59
3081.73
3081.73
3071.59
3052.61
3026.7
2995.67
2960.88
2923.14
2882.85
2813.45
2705.84
2593.71
2479.66
2363.79
2244.26
2117.61
1989.09
1859.6
1728.26
1591.93
1453.68
1314.76
1174.11
1025.19
875.91
725.684
572.908
420.2
266.065
106.35
101.092
101.184
101.48
101.54
101.783
101.8
101.943
101.914
101.962
101.939
101.95
101.389
101.382
101.389
101.354
101.349
101.243
101.187
101.002
100.901
100.677
100.584
100.671
100.259
100.121
106.209
259.984
409.843
559.278
710.405
849.311
987.746
1126.4
1263.6
1394.09
1523.3
1652.29
1780.48
1899.14
2014.42
2128.73
2242.31
2352.82
2423.48
2464.74
2503.95
2540.91
2574.84
2604.15
2626.37
2638.55
2638.55
2626.37
2604.15
2574.84
2540.91
2503.95
2464.74
2423.48
2352.82
2242.31
2128.73
2014.42
1899.14
1780.48
1652.29
1523.3
1394.09
1263.6
1126.4
987.746
849.311
710.405
559.278
409.843
259.984
106.209
100.121
100.259
100.671
100.584
100.677
100.901
101.002
101.187
101.243
101.349
101.354
101.389
101.382
101.389
100.775
100.769
100.766
100.736
100.712
100.626
100.55
100.4
100.282
100.103
100.004
99.9873
99.6997
99.5556
99.5498
99.1051
98.899
99.2382
204.964
338.956
476.662
615.994
754.867
883.675
1012.43
1142.03
1273.1
1389.97
1504.28
1618.84
1734.33
1849.33
1921.21
1963.43
2004.39
2044.29
2082.52
2117.24
2145.03
2160.92
2160.92
2145.03
2117.24
2082.52
2044.29
2004.39
1963.43
1921.21
1849.33
1734.33
1618.84
1504.28
1389.97
1273.1
1142.03
1012.43
883.675
754.867
615.994
476.662
338.956
204.964
99.2382
98.899
99.1051
99.5498
99.5556
99.6997
99.9873
100.004
100.103
100.282
100.4
100.55
100.626
100.712
100.736
100.766
100.769
100.775
100.103
100.096
100.087
100.058
100.022
99.9469
99.8632
99.7346
99.6127
99.462
99.3551
99.2803
99.0637
98.9138
98.818
98.4937
98.2821
98.1536
97.7551
97.4848
97.3358
98.4493
199.894
323.983
451.986
582.166
718.985
831.952
944.715
1059.45
1177.3
1299.66
1372.04
1414.73
1457.47
1501.13
1545.58
1589.08
1627.04
1650.28
1650.28
1627.04
1589.08
1545.58
1501.13
1457.47
1414.73
1372.04
1299.66
1177.3
1059.45
944.715
831.952
718.985
582.166
451.986
323.983
199.894
98.4493
97.3358
97.4848
97.7551
98.1536
98.2821
98.4937
98.818
98.9138
99.0637
99.2803
99.3551
99.462
99.6127
99.7346
99.8632
99.9469
100.022
100.058
100.087
100.096
100.103
99.3663
99.3591
99.3449
99.3157
99.2738
99.2038
99.1184
99.0036
98.8841
98.75
98.6369
98.5318
98.3535
98.1996
98.0588
97.8017
97.5898
97.4077
97.0928
96.838
96.6593
96.5103
96.089
95.7754
95.5326
95.4139
123.706
220.582
330.728
445.383
565.604
701.306
771.71
813.066
856.894
904.857
957.917
1015.59
1073.76
1113.42
1113.42
1073.76
1015.59
957.917
904.857
856.894
813.066
771.71
701.306
565.604
445.383
330.728
220.582
123.706
95.4139
95.5326
95.7754
96.089
96.5103
96.6593
96.838
97.0928
97.4077
97.5898
97.8017
98.0588
98.1996
98.3535
98.5318
98.6369
98.75
98.8841
99.0036
99.1184
99.2038
99.2738
99.3157
99.3449
99.3591
99.3663
98.5604
98.5521
98.5349
98.5042
98.4591
98.3922
98.3083
98.2029
98.0883
97.9643
97.8473
97.7275
97.5689
97.4132
97.2528
97.0323
96.8236
96.6199
96.3526
96.1112
95.9105
95.7085
95.3732
95.0767
94.8241
94.5939
94.24
93.911
93.595
93.276
92.9478
92.2213
119.148
151.975
194.576
246.099
309.251
387.233
489.776
572.299
572.299
489.776
387.233
309.251
246.099
194.576
151.975
119.148
92.2213
92.9478
93.276
93.595
93.911
94.24
94.5939
94.8241
95.0767
95.3732
95.7085
95.9105
96.1112
96.3526
96.6199
96.8236
97.0323
97.2528
97.4132
97.5689
97.7275
97.8473
97.9643
98.0883
98.2029
98.3083
98.3922
98.4591
98.5042
98.5349
98.5521
98.5604
97.6786
97.6694
97.6502
97.6181
97.5715
97.5068
97.4256
97.3272
97.218
97.1006
96.982
96.8561
96.7074
96.552
96.3852
96.1852
95.9819
95.7733
95.5337
95.3028
95.0895
94.8659
94.5773
94.2984
94.0409
93.7864
93.4726
93.1596
92.8504
92.5341
92.1871
91.7201
91.6419
91.5535
91.4336
91.2813
91.0825
90.2013
88.3283
104.501
104.501
88.3283
90.2013
91.0825
91.2813
91.4336
91.5535
91.6419
91.7201
92.1871
92.5341
92.8504
93.1596
93.4726
93.7864
94.0409
94.2984
94.5773
94.8659
95.0895
95.3028
95.5337
95.7733
95.9819
96.1852
96.3852
96.552
96.7074
96.8561
96.982
97.1006
97.218
97.3272
97.4256
97.5068
97.5715
97.6181
97.6502
97.6694
97.6786
96.7145
96.7046
96.684
96.651
96.604
96.5412
96.463
96.3702
96.2662
96.1536
96.0353
95.9079
95.7648
95.6112
95.4446
95.2571
95.0605
94.855
94.6326
94.4104
94.1924
93.9632
93.7013
93.4375
93.181
92.9204
92.6305
92.3342
92.0361
91.7306
91.4057
91.0516
90.8953
90.7917
90.6733
90.535
90.3698
90.1664
89.7778
88.6753
88.6753
89.7778
90.1664
90.3698
90.535
90.6733
90.7917
90.8953
91.0516
91.4057
91.7306
92.0361
92.3342
92.6305
92.9204
93.181
93.4375
93.7013
93.9632
94.1924
94.4104
94.6326
94.855
95.0605
95.2571
95.4446
95.6112
95.7648
95.9079
96.0353
96.1536
96.2662
96.3702
96.463
96.5412
96.604
96.651
96.684
96.7046
96.7145
95.661
95.6506
95.6292
95.5957
95.549
95.4881
95.4132
95.325
95.2258
95.1172
95.0006
94.8742
94.7351
94.5846
94.4213
94.2427
94.0535
93.8544
93.6442
93.4298
93.213
92.986
92.7411
92.4905
92.2393
91.9822
91.7096
91.4295
91.1459
90.857
90.5602
90.2637
90.0911
89.9863
89.8794
89.7706
89.6651
89.5795
89.3756
88.6307
88.6307
89.3756
89.5795
89.6651
89.7706
89.8794
89.9863
90.0911
90.2637
90.5602
90.857
91.1459
91.4295
91.7096
91.9822
92.2393
92.4905
92.7411
92.986
93.213
93.4298
93.6442
93.8544
94.0535
94.2427
94.4213
94.5846
94.7351
94.8742
95.0006
95.1172
95.2258
95.325
95.4132
95.4881
95.549
95.5957
95.6292
95.6506
95.661
94.5105
94.4998
94.4781
94.4447
94.3988
94.3398
94.268
94.184
94.089
93.9843
93.8703
93.7464
93.6111
93.4646
93.3062
93.1352
92.9536
92.7624
92.562
92.3556
92.1436
91.9228
91.6907
91.452
91.2093
90.9607
90.7029
90.4391
90.172
89.9025
89.6328
89.372
89.2059
89.1078
89.0134
88.9242
88.8438
88.7783
88.5972
87.9032
87.9032
88.5972
88.7783
88.8438
88.9242
89.0134
89.1078
89.2059
89.372
89.6328
89.9025
90.172
90.4391
90.7029
90.9607
91.2093
91.452
91.6907
91.9228
92.1436
92.3556
92.562
92.7624
92.9536
93.1352
93.3062
93.4646
93.6111
93.7464
93.8703
93.9843
94.089
94.184
94.268
94.3398
94.3988
94.4447
94.4781
94.4998
94.5105
93.2547
93.244
93.2224
93.1894
93.1446
93.0878
93.019
92.9388
92.8478
92.7469
92.6364
92.5159
92.3848
92.243
92.0903
91.9266
91.7528
91.5699
91.3786
91.1804
90.9757
90.7632
90.5424
90.3152
90.083
89.8456
89.6022
89.3546
89.1051
88.8558
88.6104
88.3762
88.2228
88.1331
88.0486
87.9702
87.8995
87.8383
87.6634
87.0052
87.0052
87.6634
87.8383
87.8995
87.9702
88.0486
88.1331
88.2228
88.3762
88.6104
88.8558
89.1051
89.3546
89.6022
89.8456
90.083
90.3152
90.5424
90.7632
90.9757
91.1804
91.3786
91.5699
91.7528
91.9266
92.0903
92.243
92.3848
92.5159
92.6364
92.7469
92.8478
92.9388
93.019
93.0878
93.1446
93.1894
93.2224
93.244
93.2547
91.7977
91.7872
91.766
91.7339
91.6906
91.6361
91.5706
91.4942
91.4074
91.3108
91.2045
91.0884
90.9624
90.8263
90.6802
90.5242
90.3589
90.1851
90.0034
89.8146
89.6191
89.4167
89.2076
88.9928
88.7732
88.5492
88.3214
88.0911
87.8605
87.6321
87.4096
87.1985
87.0588
86.9771
86.9002
86.8284
86.7626
86.7031
86.5328
85.9111
85.9111
86.5328
86.7031
86.7626
86.8284
86.9002
86.9771
87.0588
87.1985
87.4096
87.6321
87.8605
88.0911
88.3214
88.5492
88.7732
88.9928
89.2076
89.4167
89.6191
89.8146
90.0034
90.1851
90.3589
90.5242
90.6802
90.8263
90.9624
91.0884
91.2045
91.3108
91.4074
91.4942
91.5706
91.6361
91.6906
91.7339
91.766
91.7872
91.7977
90.2011
90.1909
90.1704
90.1394
90.0979
90.046
89.9836
89.911
89.8284
89.7363
89.6347
89.5237
89.4033
89.2735
89.1345
88.9865
88.8299
88.6654
88.4934
88.3146
88.1294
87.9381
87.741
87.539
87.3328
87.1231
86.9109
86.6977
86.4853
86.2762
86.0736
85.8815
85.7535
85.6781
85.6066
85.5392
85.4762
85.4178
85.2524
84.6734
84.6734
85.2524
85.4178
85.4762
85.5392
85.6066
85.6781
85.7535
85.8815
86.0736
86.2762
86.4853
86.6977
86.9109
87.1231
87.3328
87.539
87.741
87.9381
88.1294
88.3146
88.4934
88.6654
88.8299
88.9865
89.1345
89.2735
89.4033
89.5237
89.6347
89.7363
89.8284
89.911
89.9836
90.046
90.0979
90.1394
90.1704
90.1909
90.2011
88.6148
88.6049
88.5851
88.5554
88.5158
88.4662
88.4068
88.3377
88.2591
88.1713
88.0743
87.9684
87.8535
87.73
87.5978
87.4573
87.309
87.1531
86.9903
86.8211
86.6459
86.4652
86.2794
86.0893
85.8957
85.6994
85.5015
85.3034
85.1068
84.9139
84.7272
84.5498
84.4305
84.3598
84.2922
84.2278
84.1667
84.1091
83.9486
83.4105
83.4105
83.9486
84.1091
84.1667
84.2278
84.2922
84.3598
84.4305
84.5498
84.7272
84.9139
85.1068
85.3034
85.5015
85.6994
85.8957
86.0893
86.2794
86.4652
86.6459
86.8211
86.9903
87.1531
87.309
87.4573
87.5978
87.73
87.8535
87.9684
88.0743
88.1713
88.2591
88.3377
88.4068
88.4662
88.5158
88.5554
88.5851
88.6049
88.6148
87.0382
87.0288
87.0099
86.9815
86.9436
86.8963
86.8397
86.7739
86.699
86.6153
86.5229
86.4219
86.3126
86.195
86.0694
85.9361
85.7954
85.6478
85.4937
85.3336
85.1679
84.9972
84.8221
84.6432
84.4614
84.2774
84.0924
83.9076
83.7247
83.5453
83.3716
83.2058
83.0933
83.0263
82.9616
82.8995
82.8399
82.783
82.6274
82.1284
82.1284
82.6274
82.783
82.8399
82.8995
82.9616
83.0263
83.0933
83.2058
83.3716
83.5453
83.7247
83.9076
84.0924
84.2774
84.4614
84.6432
84.8221
84.9972
85.1679
85.3336
85.4937
85.6478
85.7954
85.9361
86.0694
86.195
86.3126
86.4219
86.5229
86.6153
86.699
86.7739
86.8397
86.8963
86.9436
86.9815
87.0099
87.0288
87.0382
85.4712
85.4621
85.444
85.4169
85.3808
85.3357
85.2818
85.2191
85.1478
85.0681
84.98
84.8839
84.7798
84.668
84.5487
84.4222
84.2888
84.149
84.003
83.8515
83.6949
83.5338
83.3686
83.2001
83.0291
82.8564
82.683
82.51
82.3389
82.1711
82.0082
81.8518
81.7448
81.6807
81.6185
81.5582
81.4999
81.4436
81.2931
80.8312
80.8312
81.2931
81.4436
81.4999
81.5582
81.6185
81.6807
81.7448
81.8518
82.0082
82.1711
82.3389
82.51
82.683
82.8564
83.0291
83.2001
83.3686
83.5338
83.6949
83.8515
84.003
84.149
84.2888
84.4222
84.5487
84.668
84.7798
84.8839
84.98
85.0681
85.1478
85.2191
85.2818
85.3357
85.3808
85.4169
85.444
85.4621
85.4712
83.9132
83.9046
83.8873
83.8614
83.8269
83.784
83.7326
83.6729
83.605
83.5291
83.4453
83.3538
83.2548
83.1486
83.0353
82.9152
82.7887
82.6562
82.518
82.3746
82.2266
82.0743
81.9184
81.7596
81.5985
81.4361
81.2731
81.1106
80.9498
80.7919
80.6381
80.4897
80.3873
80.3256
80.2654
80.2068
80.1496
80.094
79.9486
79.5221
79.5221
79.9486
80.094
80.1496
80.2068
80.2654
80.3256
80.3873
80.4897
80.6381
80.7919
80.9498
81.1106
81.2731
81.4361
81.5985
81.7596
81.9184
82.0743
82.2266
82.3746
82.518
82.6562
82.7887
82.9152
83.0353
83.1486
83.2548
83.3538
83.4453
83.5291
83.605
83.6729
83.7326
83.784
83.8269
83.8614
83.8873
83.9046
83.9132
82.3638
82.3556
82.3391
82.3144
82.2816
82.2407
82.1917
82.1349
82.0703
81.998
81.9183
81.8313
81.7371
81.6361
81.5285
81.4146
81.2946
81.169
81.0381
80.9024
80.7623
80.6184
80.4712
80.3213
80.1694
80.0162
79.8627
79.7095
79.5578
79.4086
79.2627
79.1211
79.0226
78.9631
78.9047
78.8475
78.7915
78.7366
78.5963
78.2035
78.2035
78.5963
78.7366
78.7915
78.8475
78.9047
78.9631
79.0226
79.1211
79.2627
79.4086
79.5578
79.7095
79.8627
80.0162
80.1694
80.3213
80.4712
80.6184
80.7623
80.9024
81.0381
81.169
81.2946
81.4146
81.5285
81.6361
81.7371
81.8313
81.9183
81.998
82.0703
82.1349
82.1917
82.2407
82.2816
82.3144
82.3391
82.3556
82.3638
80.8227
80.8149
80.7992
80.7756
80.7444
80.7054
80.6588
80.6046
80.5431
80.4744
80.3985
80.3158
80.2263
80.1304
80.0282
79.92
79.8062
79.6871
79.5631
79.4346
79.302
79.1658
79.0267
78.885
78.7415
78.5969
78.4518
78.307
78.1635
78.0218
77.8829
77.7474
77.6525
77.5949
77.5381
77.4823
77.4274
77.3733
77.2383
76.8774
76.8774
77.2383
77.3733
77.4274
77.4823
77.5381
77.5949
77.6525
77.7474
77.8829
78.0218
78.1635
78.307
78.4518
78.5969
78.7415
78.885
79.0267
79.1658
79.302
79.4346
79.5631
79.6871
79.8062
79.92
80.0282
80.1304
80.2263
80.3158
80.3985
80.4744
80.5431
80.6046
80.6588
80.7054
80.7444
80.7756
80.7992
80.8149
80.8227
79.2895
79.282
79.267
79.2446
79.2148
79.1777
79.1333
79.0818
79.0233
78.9579
78.8857
78.807
78.722
78.6308
78.5337
78.4311
78.3231
78.2101
78.0926
77.9708
77.8452
77.7163
77.5846
77.4505
77.3148
77.1779
77.0406
76.9034
76.7671
76.6323
76.4997
76.3697
76.278
76.2222
76.1671
76.1126
76.0587
76.0055
75.8761
75.5454
75.5454
75.8761
76.0055
76.0587
76.1126
76.1671
76.2222
76.278
76.3697
76.4997
76.6323
76.7671
76.9034
77.0406
77.1779
77.3148
77.4505
77.5846
77.7163
77.8452
77.9708
78.0926
78.2101
78.3231
78.4311
78.5337
78.6308
78.722
78.807
78.8857
78.9579
79.0233
79.0818
79.1333
79.1777
79.2148
79.2446
79.267
79.282
79.2895
77.7637
77.7566
77.7423
77.721
77.6926
77.6573
77.615
77.566
77.5103
77.4481
77.3794
77.3046
77.2238
77.1371
77.0449
76.9474
76.8449
76.7378
76.6263
76.5108
76.3918
76.2696
76.1448
76.0178
75.8892
75.7594
75.6292
75.4989
75.3693
75.2407
75.1138
74.9889
74.9003
74.8463
74.7927
74.7396
74.6869
74.6347
74.5109
74.2088
74.2088
74.5109
74.6347
74.6869
74.7396
74.7927
74.8463
74.9003
74.9889
75.1138
75.2407
75.3693
75.4989
75.6292
75.7594
75.8892
76.0178
76.1448
76.2696
76.3918
76.5108
76.6263
76.7378
76.8449
76.9474
77.0449
77.1371
77.2238
77.3046
77.3794
77.4481
77.5103
77.566
77.615
77.6573
77.6926
77.721
77.7423
77.7566
77.7637
76.2451
76.2383
76.2247
76.2044
76.1774
76.1437
76.1035
76.0568
76.0038
75.9446
75.8794
75.8082
75.7313
75.649
75.5614
75.4688
75.3715
75.2697
75.1639
75.0543
74.9414
74.8256
74.7072
74.5867
74.4647
74.3415
74.2177
74.0938
73.9703
73.8475
73.726
73.6059
73.5203
73.468
73.416
73.3643
73.3129
73.2617
73.1439
72.8687
72.8687
73.1439
73.2617
73.3129
73.3643
73.416
73.468
73.5203
73.6059
73.726
73.8475
73.9703
74.0938
74.2177
74.3415
74.4647
74.5867
74.7072
74.8256
74.9414
75.0543
75.1639
75.2697
75.3715
75.4688
75.5614
75.649
75.7313
75.8082
75.8794
75.9446
76.0038
76.0568
76.1035
76.1437
76.1774
76.2044
76.2247
76.2383
76.2451
74.7332
74.7267
74.7138
74.6945
74.6688
74.6367
74.5985
74.554
74.5036
74.4473
74.3852
74.3175
74.2444
74.1661
74.0829
73.9949
73.9024
73.8058
73.7053
73.6013
73.494
73.384
73.2716
73.1572
73.0412
72.9242
72.8064
72.6884
72.5705
72.4532
72.3367
72.2212
72.1386
72.0881
72.0377
71.9875
71.9375
71.8876
71.776
71.526
71.526
71.776
71.8876
71.9375
71.9875
72.0377
72.0881
72.1386
72.2212
72.3367
72.4532
72.5705
72.6884
72.8064
72.9242
73.0412
73.1572
73.2716
73.384
73.494
73.6013
73.7053
73.8058
73.9024
73.9949
74.0829
74.1661
74.2444
74.3175
74.3852
74.4473
74.5036
74.554
74.5985
74.6367
74.6688
74.6945
74.7138
74.7267
74.7332
73.2278
73.2217
73.2094
73.191
73.1665
73.136
73.0995
73.0573
73.0093
72.9557
72.8966
72.8322
72.7627
72.6883
72.6091
72.5254
72.4376
72.3457
72.2502
72.1513
72.0495
71.9449
71.8381
71.7293
71.619
71.5075
71.3953
71.2828
71.1702
71.058
70.9463
70.8354
70.7559
70.7071
70.6584
70.6099
70.5614
70.513
70.408
70.1813
70.1813
70.408
70.513
70.5614
70.6099
70.6584
70.7071
70.7559
70.8354
70.9463
71.058
71.1702
71.2828
71.3953
71.5075
71.619
71.7293
71.8381
71.9449
72.0495
72.1513
72.2502
72.3457
72.4376
72.5254
72.6091
72.6883
72.7627
72.8322
72.8966
72.9557
73.0093
73.0573
73.0995
73.136
73.1665
73.191
73.2094
73.2217
73.2278
71.7286
71.7228
71.711
71.6935
71.6702
71.6411
71.6065
71.5662
71.5205
71.4695
71.4133
71.352
71.2859
71.2151
71.1398
71.0602
70.9766
70.8893
70.7985
70.7045
70.6076
70.5081
70.4064
70.3029
70.1978
70.0916
69.9846
69.8772
69.7696
69.6622
69.5552
69.4487
69.3723
69.3254
69.2786
69.2318
69.1851
69.1384
69.0404
68.8352
68.8352
69.0404
69.1384
69.1851
69.2318
69.2786
69.3254
69.3723
69.4487
69.5552
69.6622
69.7696
69.8772
69.9846
70.0916
70.1978
70.3029
70.4064
70.5081
70.6076
70.7045
70.7985
70.8893
70.9766
71.0602
71.1398
71.2151
71.2859
71.352
71.4133
71.4695
71.5205
71.5662
71.6065
71.6411
71.6702
71.6935
71.711
71.7228
71.7286
70.2353
70.2297
70.2185
70.2018
70.1796
70.152
70.1189
70.0806
70.0371
69.9886
69.9351
69.8767
69.8138
69.7464
69.6747
69.599
69.5195
69.4364
69.3499
69.2605
69.1682
69.0735
68.9767
68.878
68.7778
68.6765
68.5743
68.4717
68.3688
68.266
68.1635
68.0615
67.9882
67.9432
67.8984
67.8536
67.8088
67.7641
67.6735
67.4879
67.4879
67.6735
67.7641
67.8088
67.8536
67.8984
67.9432
67.9882
68.0615
68.1635
68.266
68.3688
68.4717
68.5743
68.6765
68.7778
68.878
68.9767
69.0735
69.1682
69.2605
69.3499
69.4364
69.5195
69.599
69.6747
69.7464
69.8138
69.8767
69.9351
69.9886
70.0371
70.0806
70.1189
70.152
70.1796
70.2018
70.2185
70.2297
70.2353
68.7475
68.7422
68.7316
68.7156
68.6945
68.6682
68.6367
68.6002
68.5588
68.5126
68.4616
68.4061
68.3462
68.282
68.2138
68.1417
68.0659
67.9868
67.9045
67.8192
67.7313
67.641
67.5487
67.4546
67.359
67.2622
67.1646
67.0664
66.968
66.8695
66.7714
66.6737
66.6036
66.5606
66.5177
66.475
66.4325
66.39
66.3074
66.1388
66.1388
66.3074
66.39
66.4325
66.475
66.5177
66.5606
66.6036
66.6737
66.7714
66.8695
66.968
67.0664
67.1646
67.2622
67.359
67.4546
67.5487
67.641
67.7313
67.8192
67.9045
67.9868
68.0659
68.1417
68.2138
68.282
68.3462
68.4061
68.4616
68.5126
68.5588
68.6002
68.6367
68.6682
68.6945
68.7156
68.7316
68.7422
68.7475
67.2651
67.26
67.2499
67.2347
67.2146
67.1895
67.1595
67.1248
67.0853
67.0413
66.9927
66.9398
66.8827
66.8216
66.7566
66.6879
66.6158
66.5404
66.4619
66.3806
66.2968
66.2107
66.1225
66.0327
65.9413
65.8488
65.7554
65.6614
65.5671
65.4728
65.3787
65.2852
65.2182
65.1772
65.1364
65.0959
65.0556
65.0156
64.9411
64.7869
64.7869
64.9411
65.0156
65.0556
65.0959
65.1364
65.1772
65.2182
65.2852
65.3787
65.4728
65.5671
65.6614
65.7554
65.8488
65.9413
66.0327
66.1225
66.2107
66.2968
66.3806
66.4619
66.5404
66.6158
66.6879
66.7566
66.8216
66.8827
66.9398
66.9927
67.0413
67.0853
67.1248
67.1595
67.1895
67.2146
67.2347
67.2499
67.26
67.2651
65.7877
65.7829
65.7732
65.7588
65.7396
65.7157
65.6871
65.654
65.6164
65.5744
65.5282
65.4778
65.4234
65.3651
65.3032
65.2377
65.1689
65.097
65.0221
64.9446
64.8646
64.7823
64.6981
64.6122
64.5248
64.4363
64.3468
64.2567
64.1663
64.0758
63.9855
63.8959
63.8319
63.7927
63.7538
63.7153
63.6772
63.6396
63.573
63.4301
63.4301
63.573
63.6396
63.6772
63.7153
63.7538
63.7927
63.8319
63.8959
63.9855
64.0758
64.1663
64.2567
64.3468
64.4363
64.5248
64.6122
64.6981
64.7823
64.8646
64.9446
65.0221
65.097
65.1689
65.2377
65.3032
65.3651
65.4234
65.4778
65.5282
65.5744
65.6164
65.654
65.6871
65.7157
65.7396
65.7588
65.7732
65.7829
65.7877
64.3151
64.3105
64.3013
64.2876
64.2693
64.2465
64.2193
64.1877
64.1519
64.1119
64.0678
64.0197
63.9679
63.9123
63.8532
63.7908
63.7251
63.6565
63.585
63.511
63.4346
63.3559
63.2754
63.1932
63.1095
63.0246
62.9388
62.8524
62.7655
62.6785
62.5918
62.5057
62.4442
62.4067
62.3695
62.3327
62.2965
62.2608
62.2009
62.066
62.066
62.2009
62.2608
62.2965
62.3327
62.3695
62.4067
62.4442
62.5057
62.5918
62.6785
62.7655
62.8524
62.9388
63.0246
63.1095
63.1932
63.2754
63.3559
63.4346
63.511
63.585
63.6565
63.7251
63.7908
63.8532
63.9123
63.9679
64.0197
64.0678
64.1119
64.1519
64.1877
64.2193
64.2465
64.2693
64.2876
64.3013
64.3105
64.3151
62.8472
62.8428
62.834
62.8209
62.8035
62.7818
62.7558
62.7257
62.6916
62.6534
62.6114
62.5655
62.5161
62.4631
62.4067
62.3471
62.2844
62.2188
62.1506
62.0798
62.0067
61.9315
61.8544
61.7756
61.6954
61.6139
61.5315
61.4484
61.3648
61.281
61.1974
61.1144
61.0551
61.0189
60.983
60.9476
60.9126
60.8782
60.8234
60.694
60.694
60.8234
60.8782
60.9126
60.9476
60.983
61.0189
61.0551
61.1144
61.1974
61.281
61.3648
61.4484
61.5315
61.6139
61.6954
61.7756
61.8544
61.9315
62.0067
62.0798
62.1506
62.2188
62.2844
62.3471
62.4067
62.4631
62.5161
62.5655
62.6114
62.6534
62.6916
62.7257
62.7558
62.7818
62.8035
62.8209
62.834
62.8428
62.8472
61.3836
61.3795
61.3711
61.3586
61.342
61.3212
61.2965
61.2678
61.2352
61.1988
61.1587
61.115
61.0678
61.0172
60.9633
60.9064
60.8465
60.7839
60.7186
60.6509
60.581
60.5089
60.4351
60.3595
60.2825
60.2042
60.1249
60.0449
59.9643
59.8834
59.8025
59.7221
59.6646
59.6294
59.5945
59.56
59.5258
59.4921
59.4416
59.3163
59.3163
59.4416
59.4921
59.5258
59.56
59.5945
59.6294
59.6646
59.7221
59.8025
59.8834
59.9643
60.0449
60.1249
60.2042
60.2825
60.3595
60.4351
60.5089
60.581
60.6509
60.7186
60.7839
60.8465
60.9064
60.9633
61.0172
61.0678
61.115
61.1587
61.1988
61.2352
61.2678
61.2965
61.3212
61.342
61.3586
61.3711
61.3795
61.3836
59.9243
59.9203
59.9123
59.9004
59.8845
59.8648
59.8412
59.8138
59.7827
59.7479
59.7096
59.6679
59.6228
59.5745
59.5231
59.4687
59.4115
59.3516
59.2891
59.2243
59.1573
59.0883
59.0174
58.9448
58.8708
58.7955
58.7192
58.6419
58.564
58.4857
58.4073
58.329
58.2728
58.2384
58.2043
58.1704
58.1368
58.1035
58.057
57.9355
57.9355
58.057
58.1035
58.1368
58.1704
58.2043
58.2384
58.2728
58.329
58.4073
58.4857
58.564
58.6419
58.7192
58.7955
58.8708
58.9448
59.0174
59.0883
59.1573
59.2243
59.2891
59.3516
59.4115
59.4687
59.5231
59.5745
59.6228
59.6679
59.7096
59.7479
59.7827
59.8138
59.8412
59.8648
59.8845
59.9004
59.9123
59.9203
59.9243
58.4689
58.4651
58.4575
58.4461
58.431
58.4121
58.3896
58.3634
58.3338
58.3006
58.264
58.2242
58.1811
58.135
58.0858
58.0338
57.9791
57.9217
57.862
57.7999
57.7357
57.6694
57.6014
57.5317
57.4604
57.3879
57.3142
57.2396
57.1642
57.0882
57.0118
56.9353
56.8802
56.8464
56.8127
56.7792
56.746
56.713
56.6707
56.553
56.553
56.6707
56.713
56.746
56.7792
56.8127
56.8464
56.8802
56.9353
57.0118
57.0882
57.1642
57.2396
57.3142
57.3879
57.4604
57.5317
57.6014
57.6694
57.7357
57.7999
57.862
57.9217
57.9791
58.0338
58.0858
58.135
58.1811
58.2242
58.264
58.3006
58.3338
58.3634
58.3896
58.4121
58.431
58.4461
58.4575
58.4651
58.4689
57.0173
57.0137
57.0064
56.9956
56.9811
56.9631
56.9416
56.9167
56.8883
56.8567
56.8217
56.7837
56.7425
56.6984
56.6514
56.6017
56.5493
56.4944
56.4371
56.3776
56.316
56.2524
56.187
56.12
56.0514
55.9814
55.9103
55.838
55.7649
55.691
55.6165
55.5415
55.4872
55.4537
55.4202
55.3868
55.3535
55.3207
55.2832
55.1719
55.1719
55.2832
55.3207
55.3535
55.3868
55.4202
55.4537
55.4872
55.5415
55.6165
55.691
55.7649
55.838
55.9103
55.9814
56.0514
56.12
56.187
56.2524
56.316
56.3776
56.4371
56.4944
56.5493
56.6017
56.6514
56.6984
56.7425
56.7837
56.8217
56.8567
56.8883
56.9167
56.9416
56.9631
56.9811
56.9956
57.0064
57.0137
57.0173
55.5694
55.5659
55.559
55.5486
55.5348
55.5177
55.4971
55.4733
55.4462
55.416
55.3826
55.3462
55.3069
55.2647
55.2197
55.1721
55.122
55.0694
55.0145
54.9575
54.8983
54.8372
54.7743
54.7098
54.6437
54.5762
54.5074
54.4374
54.3664
54.2944
54.2216
54.148
54.0942
54.0609
54.0274
53.9935
53.9591
53.9238
53.887
53.8239
53.8239
53.887
53.9238
53.9591
53.9935
54.0274
54.0609
54.0942
54.148
54.2216
54.2944
54.3664
54.4374
54.5074
54.5762
54.6437
54.7098
54.7743
54.8372
54.8983
54.9575
55.0145
55.0694
55.122
55.1721
55.2197
55.2647
55.3069
55.3462
55.3826
55.416
55.4462
55.4733
55.4971
55.5177
55.5348
55.5486
55.559
55.5659
55.5694
54.125
54.1217
54.1151
54.1052
54.092
54.0756
54.056
54.0332
54.0074
53.9785
53.9466
53.9118
53.8742
53.8338
53.7908
53.7452
53.6972
53.6468
53.5942
53.5394
53.4826
53.4239
53.3634
53.3012
53.2374
53.1722
53.1057
53.0378
52.9688
52.8988
52.8276
52.7554
52.7024
52.6695
52.6363
52.6028
52.5689
52.5345
52.4993
52.4395
52.4395
52.4993
52.5345
52.5689
52.6028
52.6363
52.6695
52.7024
52.7554
52.8276
52.8988
52.9688
53.0378
53.1057
53.1722
53.2374
53.3012
53.3634
53.4239
53.4826
53.5394
53.5942
53.6468
53.6972
53.7452
53.7908
53.8338
53.8742
53.9118
53.9466
53.9785
54.0074
54.0332
54.056
54.0756
54.092
54.1052
54.1151
54.1217
54.125
52.6839
52.6807
52.6744
52.665
52.6524
52.6367
52.618
52.5963
52.5715
52.5439
52.5134
52.4802
52.4442
52.4056
52.3644
52.3208
52.2747
52.2264
52.1759
52.1234
52.0688
52.0123
51.9541
51.8942
51.8326
51.7696
51.7052
51.6394
51.5724
51.5041
51.4346
51.3639
51.3119
51.2795
51.2469
51.214
51.1807
51.1471
51.1126
51.0548
51.0548
51.1126
51.1471
51.1807
51.214
51.2469
51.2795
51.3119
51.3639
51.4346
51.5041
51.5724
51.6394
51.7052
51.7696
51.8326
51.8942
51.9541
52.0123
52.0688
52.1234
52.1759
52.2264
52.2747
52.3208
52.3644
52.4056
52.4442
52.4802
52.5134
52.5439
52.5715
52.5963
52.618
52.6367
52.6524
52.665
52.6744
52.6807
52.6839
51.246
51.243
51.2369
51.2279
51.2159
51.2009
51.183
51.1622
51.1386
51.1122
51.0831
51.0513
51.0168
50.9799
50.9405
50.8987
50.8546
50.8082
50.7598
50.7093
50.6569
50.6026
50.5465
50.4887
50.4294
50.3685
50.3061
50.2423
50.1772
50.1107
50.0429
49.9738
49.9228
49.8911
49.8592
49.8269
49.7943
49.7613
49.7275
49.6716
49.6716
49.7275
49.7613
49.7943
49.8269
49.8592
49.8911
49.9228
49.9738
50.0429
50.1107
50.1772
50.2423
50.3061
50.3685
50.4294
50.4887
50.5465
50.6026
50.6569
50.7093
50.7598
50.8082
50.8546
50.8987
50.9405
50.9799
51.0168
51.0513
51.0831
51.1122
51.1386
51.1622
51.183
51.2009
51.2159
51.2279
51.2369
51.243
51.246
49.8111
49.8082
49.8024
49.7938
49.7823
49.768
49.7509
49.7311
49.7085
49.6833
49.6554
49.625
49.592
49.5567
49.5189
49.4789
49.4366
49.3922
49.3457
49.2972
49.2468
49.1946
49.1406
49.0849
49.0276
48.9687
48.9084
48.8466
48.7833
48.7187
48.6526
48.5851
48.5352
48.5043
48.473
48.4414
48.4095
48.3772
48.3441
48.29
48.29
48.3441
48.3772
48.4095
48.4414
48.473
48.5043
48.5352
48.5851
48.6526
48.7187
48.7833
48.8466
48.9084
48.9687
49.0276
49.0849
49.1406
49.1946
49.2468
49.2972
49.3457
49.3922
49.4366
49.4789
49.5189
49.5567
49.592
49.625
49.6554
49.6833
49.7085
49.7311
49.7509
49.768
49.7823
49.7938
49.8024
49.8082
49.8111
48.3791
48.3763
48.3708
48.3626
48.3516
48.3379
48.3216
48.3026
48.2811
48.2569
48.2303
48.2012
48.1697
48.1358
48.0997
48.0613
48.0208
47.9782
47.9336
47.887
47.8386
47.7883
47.7364
47.6827
47.6274
47.5705
47.5121
47.4522
47.3908
47.328
47.2637
47.1979
47.1492
47.119
47.0884
47.0575
47.0263
46.9948
46.9624
46.9101
46.9101
46.9624
46.9948
47.0263
47.0575
47.0884
47.119
47.1492
47.1979
47.2637
47.328
47.3908
47.4522
47.5121
47.5705
47.6274
47.6827
47.7364
47.7883
47.8386
47.887
47.9336
47.9782
48.0208
48.0613
48.0997
48.1358
48.1697
48.2012
48.2303
48.2569
48.2811
48.3026
48.3216
48.3379
48.3516
48.3626
48.3708
48.3763
48.3791
46.9498
46.9472
46.9419
46.934
46.9236
46.9105
46.8949
46.8768
46.8562
46.8331
46.8076
46.7798
46.7497
46.7173
46.6827
46.6459
46.6071
46.5662
46.5234
46.4787
46.4322
46.3839
46.3338
46.2821
46.2287
46.1738
46.1173
46.0593
45.9998
45.9388
45.8763
45.8122
45.7648
45.7353
45.7054
45.6753
45.6448
45.614