/*--------------------------------*- C++ -*----------------------------------*\
  =========                 |
  \\      /  F ield         | OpenFOAM: The Open Source CFD Toolbox
   \\    /   O peration     | Website:  https://openfoam.org
    \\  /    A nd           | Version:  10
     \\/     M anipulation  |
\*---------------------------------------------------------------------------*/
FoamFile
{
    format      ascii;
    class       volScalarField;
    location    "3.8";
    object      p;
}
// * * * * * * * * * * * * * * * * * * * * * * * * * * * * * * * * * * * * * //

dimensions      [1 -1 -2 0 0 0 0];

internalField   nonuniform List<scalar> 
12225
(
1.00239e+07
1.00239e+07
1.0024e+07
1.00241e+07
1.00243e+07
1.00247e+07
1.00251e+07
1.00258e+07
1.00268e+07
1.00281e+07
1.00299e+07
1.00324e+07
1.00355e+07
1.00396e+07
1.00448e+07
1.00513e+07
1.00595e+07
1.00704e+07
1.00239e+07
1.00239e+07
1.0024e+07
1.00241e+07
1.00243e+07
1.00246e+07
1.00251e+07
1.00258e+07
1.00267e+07
1.00281e+07
1.00299e+07
1.00323e+07
1.00354e+07
1.00395e+07
1.00446e+07
1.0051e+07
1.0059e+07
1.00692e+07
1.00239e+07
1.00239e+07
1.0024e+07
1.00241e+07
1.00243e+07
1.00246e+07
1.00251e+07
1.00257e+07
1.00267e+07
1.0028e+07
1.00297e+07
1.00321e+07
1.00352e+07
1.00391e+07
1.00441e+07
1.00504e+07
1.00581e+07
1.00674e+07
1.00239e+07
1.00239e+07
1.0024e+07
1.00241e+07
1.00243e+07
1.00246e+07
1.0025e+07
1.00256e+07
1.00265e+07
1.00278e+07
1.00295e+07
1.00317e+07
1.00347e+07
1.00386e+07
1.00434e+07
1.00494e+07
1.00567e+07
1.00651e+07
1.00238e+07
1.00239e+07
1.00239e+07
1.00241e+07
1.00242e+07
1.00245e+07
1.00249e+07
1.00255e+07
1.00263e+07
1.00275e+07
1.00291e+07
1.00313e+07
1.00341e+07
1.00377e+07
1.00423e+07
1.0048e+07
1.00548e+07
1.00625e+07
1.00238e+07
1.00239e+07
1.00239e+07
1.0024e+07
1.00242e+07
1.00244e+07
1.00248e+07
1.00253e+07
1.00261e+07
1.00272e+07
1.00286e+07
1.00306e+07
1.00332e+07
1.00366e+07
1.00409e+07
1.00462e+07
1.00524e+07
1.00594e+07
1.00238e+07
1.00238e+07
1.00239e+07
1.0024e+07
1.00241e+07
1.00243e+07
1.00246e+07
1.00251e+07
1.00258e+07
1.00267e+07
1.0028e+07
1.00298e+07
1.00321e+07
1.00351e+07
1.0039e+07
1.00438e+07
1.00495e+07
1.0056e+07
1.00238e+07
1.00238e+07
1.00238e+07
1.00239e+07
1.0024e+07
1.00242e+07
1.00245e+07
1.00248e+07
1.00254e+07
1.00261e+07
1.00272e+07
1.00287e+07
1.00307e+07
1.00333e+07
1.00367e+07
1.0041e+07
1.00461e+07
1.0052e+07
1.00238e+07
1.00238e+07
1.00238e+07
1.00239e+07
1.00239e+07
1.0024e+07
1.00242e+07
1.00245e+07
1.00249e+07
1.00254e+07
1.00262e+07
1.00274e+07
1.00289e+07
1.0031e+07
1.00339e+07
1.00375e+07
1.00421e+07
1.00475e+07
1.00237e+07
1.00237e+07
1.00238e+07
1.00238e+07
1.00238e+07
1.00239e+07
1.0024e+07
1.00241e+07
1.00243e+07
1.00246e+07
1.00251e+07
1.00258e+07
1.00268e+07
1.00283e+07
1.00304e+07
1.00334e+07
1.00372e+07
1.00421e+07
1.00237e+07
1.00237e+07
1.00237e+07
1.00237e+07
1.00237e+07
1.00237e+07
1.00237e+07
1.00237e+07
1.00237e+07
1.00237e+07
1.00238e+07
1.0024e+07
1.00244e+07
1.00251e+07
1.00264e+07
1.00283e+07
1.00314e+07
1.00357e+07
1.00237e+07
1.00237e+07
1.00236e+07
1.00236e+07
1.00236e+07
1.00235e+07
1.00234e+07
1.00232e+07
1.0023e+07
1.00228e+07
1.00225e+07
1.00222e+07
1.00219e+07
1.00217e+07
1.00219e+07
1.00228e+07
1.00248e+07
1.00285e+07
1.00236e+07
1.00236e+07
1.00236e+07
1.00235e+07
1.00234e+07
1.00233e+07
1.00231e+07
1.00228e+07
1.00224e+07
1.00218e+07
1.00211e+07
1.00202e+07
1.00192e+07
1.0018e+07
1.0017e+07
1.00164e+07
1.0017e+07
1.00197e+07
1.00236e+07
1.00236e+07
1.00235e+07
1.00234e+07
1.00233e+07
1.00231e+07
1.00228e+07
1.00223e+07
1.00217e+07
1.00208e+07
1.00196e+07
1.0018e+07
1.00159e+07
1.00134e+07
1.00106e+07
1.00077e+07
1.00058e+07
1.00064e+07
1.00236e+07
1.00235e+07
1.00235e+07
1.00233e+07
1.00231e+07
1.00229e+07
1.00224e+07
1.00218e+07
1.00209e+07
1.00197e+07
1.0018e+07
1.00157e+07
1.00125e+07
1.00083e+07
1.00029e+07
9.99629e+06
9.9891e+06
9.98389e+06
1.00235e+07
1.00235e+07
1.00234e+07
1.00233e+07
1.0023e+07
1.00227e+07
1.00222e+07
1.00215e+07
1.00204e+07
1.00189e+07
1.00168e+07
1.00139e+07
1.00098e+07
1.0004e+07
9.99573e+06
9.98374e+06
9.96573e+06
9.93736e+06
2.02823e+07
2.01974e+07
2.01347e+07
2.00811e+07
2.0032e+07
1.9985e+07
1.99391e+07
1.98935e+07
1.98481e+07
1.98024e+07
1.97562e+07
1.97092e+07
1.96609e+07
1.96109e+07
1.95586e+07
1.95031e+07
1.94434e+07
1.93778e+07
2.02183e+07
2.01754e+07
2.01262e+07
2.00779e+07
2.00313e+07
1.99864e+07
1.99425e+07
1.98992e+07
1.98563e+07
1.98137e+07
1.97711e+07
1.97287e+07
1.96864e+07
1.96445e+07
1.96034e+07
1.95639e+07
1.95275e+07
1.94972e+07
2.01493e+07
2.01276e+07
2.00955e+07
2.00587e+07
2.00202e+07
1.99811e+07
1.9942e+07
1.99031e+07
1.98647e+07
1.98268e+07
1.97895e+07
1.97533e+07
1.97182e+07
1.96848e+07
1.96534e+07
1.96246e+07
1.95992e+07
1.95778e+07
2.01042e+07
2.00902e+07
2.00669e+07
2.00381e+07
2.00063e+07
1.99728e+07
1.99386e+07
1.99042e+07
1.98701e+07
1.98366e+07
1.9804e+07
1.97726e+07
1.97426e+07
1.97143e+07
1.96882e+07
1.96644e+07
1.96431e+07
1.96246e+07
2.00768e+07
2.0066e+07
2.00472e+07
2.0023e+07
1.99954e+07
1.99658e+07
1.99351e+07
1.9904e+07
1.9873e+07
1.98426e+07
1.9813e+07
1.97847e+07
1.97577e+07
1.97324e+07
1.9709e+07
1.96876e+07
1.96683e+07
1.96512e+07
2.00579e+07
2.00489e+07
2.00327e+07
2.00115e+07
1.99868e+07
1.996e+07
1.99318e+07
1.99032e+07
1.98746e+07
1.98464e+07
1.98191e+07
1.97928e+07
1.97679e+07
1.97446e+07
1.97229e+07
1.9703e+07
1.96848e+07
1.96685e+07
2.00448e+07
2.00367e+07
2.00223e+07
2.0003e+07
1.99803e+07
1.99554e+07
1.99291e+07
1.99023e+07
1.98753e+07
1.98488e+07
1.9823e+07
1.97983e+07
1.97748e+07
1.97527e+07
1.97321e+07
1.97132e+07
1.96958e+07
1.968e+07
2.00356e+07
2.00282e+07
2.00148e+07
1.99969e+07
1.99755e+07
1.9952e+07
1.9927e+07
1.99014e+07
1.98757e+07
1.98503e+07
1.98256e+07
1.98019e+07
1.97793e+07
1.97581e+07
1.97383e+07
1.972e+07
1.97031e+07
1.96877e+07
2.00292e+07
2.00223e+07
2.00096e+07
1.99925e+07
1.99721e+07
1.99495e+07
1.99254e+07
1.99007e+07
1.98758e+07
1.98512e+07
1.98273e+07
1.98042e+07
1.97823e+07
1.97617e+07
1.97424e+07
1.97245e+07
1.9708e+07
1.96928e+07
2.00249e+07
2.00183e+07
2.00061e+07
1.99895e+07
1.99697e+07
1.99477e+07
1.99243e+07
1.99001e+07
1.98758e+07
1.98517e+07
1.98283e+07
1.98057e+07
1.97842e+07
1.9764e+07
1.9745e+07
1.97274e+07
1.97111e+07
1.96962e+07
2.00221e+07
2.00156e+07
2.00037e+07
1.99875e+07
1.99682e+07
1.99465e+07
1.99235e+07
1.98997e+07
1.98757e+07
1.9852e+07
1.98289e+07
1.98067e+07
1.97855e+07
1.97654e+07
1.97467e+07
1.97292e+07
1.97131e+07
1.96983e+07
2.00204e+07
2.0014e+07
2.00023e+07
1.99863e+07
1.99672e+07
1.99458e+07
1.9923e+07
1.98994e+07
1.98757e+07
1.98522e+07
1.98293e+07
1.98072e+07
1.97862e+07
1.97663e+07
1.97477e+07
1.97303e+07
1.97143e+07
1.96995e+07
2.00195e+07
2.00131e+07
2.00015e+07
1.99856e+07
1.99666e+07
1.99454e+07
1.99227e+07
1.98993e+07
1.98756e+07
1.98523e+07
1.98294e+07
1.98075e+07
1.97865e+07
1.97667e+07
1.97482e+07
1.97309e+07
1.97149e+07
1.97002e+07
2.00191e+07
2.00127e+07
2.00011e+07
1.99853e+07
1.99664e+07
1.99452e+07
1.99226e+07
1.98992e+07
1.98756e+07
1.98523e+07
1.98295e+07
1.98076e+07
1.97867e+07
1.97669e+07
1.97484e+07
1.97312e+07
1.97152e+07
1.97004e+07
1.01928e+07
1.01928e+07
1.0193e+07
1.01931e+07
1.01933e+07
1.01936e+07
1.0194e+07
1.01944e+07
1.01948e+07
1.01954e+07
1.0196e+07
1.01966e+07
1.01973e+07
1.01981e+07
1.01989e+07
1.01998e+07
1.02008e+07
1.02018e+07
1.02029e+07
1.02041e+07
1.02053e+07
1.02066e+07
1.02079e+07
1.02093e+07
1.02107e+07
1.02123e+07
1.02138e+07
1.02155e+07
1.02171e+07
1.02189e+07
1.02207e+07
1.02225e+07
1.02244e+07
1.02263e+07
1.02283e+07
1.02304e+07
1.02324e+07
1.02346e+07
1.02367e+07
1.02389e+07
1.02412e+07
1.02435e+07
1.02458e+07
1.02481e+07
1.02505e+07
1.0253e+07
1.02554e+07
1.02579e+07
1.02604e+07
1.0263e+07
1.02655e+07
1.02681e+07
1.02708e+07
1.02734e+07
1.02761e+07
1.02788e+07
1.02815e+07
1.02842e+07
1.0287e+07
1.02897e+07
1.02925e+07
1.02953e+07
1.02981e+07
1.0301e+07
1.03038e+07
1.03067e+07
1.03096e+07
1.03124e+07
1.03153e+07
1.03182e+07
1.03212e+07
1.03241e+07
1.0327e+07
1.033e+07
1.03329e+07
1.03359e+07
1.03388e+07
1.03418e+07
1.03448e+07
1.03478e+07
1.03508e+07
1.03538e+07
1.03568e+07
1.03598e+07
1.03628e+07
1.03658e+07
1.03688e+07
1.03719e+07
1.03749e+07
1.0378e+07
1.0381e+07
1.0384e+07
1.03871e+07
1.03902e+07
1.03932e+07
1.03963e+07
1.03993e+07
1.04024e+07
1.04055e+07
1.04086e+07
1.04117e+07
1.04148e+07
1.04179e+07
1.0421e+07
1.04241e+07
1.04272e+07
1.04303e+07
1.04334e+07
1.04365e+07
1.04397e+07
1.04428e+07
1.04459e+07
1.04491e+07
1.04523e+07
1.04554e+07
1.04586e+07
1.04618e+07
1.0465e+07
1.04682e+07
1.04714e+07
1.04746e+07
1.04778e+07
1.04811e+07
1.04843e+07
1.04876e+07
1.04909e+07
1.04942e+07
1.04975e+07
1.05008e+07
1.05041e+07
1.05075e+07
1.05109e+07
1.05143e+07
1.05177e+07
1.05211e+07
1.05245e+07
1.0528e+07
1.05315e+07
1.0535e+07
1.05385e+07
1.05421e+07
1.05457e+07
1.05492e+07
1.05529e+07
1.05565e+07
1.05601e+07
1.05638e+07
1.05674e+07
1.05711e+07
1.05748e+07
1.05785e+07
1.05822e+07
1.05858e+07
1.05895e+07
1.05931e+07
1.05968e+07
1.06003e+07
1.06038e+07
1.06073e+07
1.06106e+07
1.06139e+07
1.0617e+07
1.062e+07
1.06228e+07
1.06254e+07
1.06277e+07
1.06297e+07
1.06314e+07
1.06328e+07
1.06337e+07
1.06341e+07
1.06339e+07
1.06331e+07
1.06317e+07
1.06295e+07
1.06266e+07
1.06228e+07
1.06181e+07
1.06126e+07
1.06063e+07
1.01925e+07
1.01926e+07
1.01927e+07
1.01929e+07
1.01931e+07
1.01934e+07
1.01937e+07
1.01941e+07
1.01946e+07
1.01951e+07
1.01957e+07
1.01964e+07
1.01971e+07
1.01979e+07
1.01987e+07
1.01996e+07
1.02006e+07
1.02016e+07
1.02027e+07
1.02039e+07
1.02051e+07
1.02064e+07
1.02077e+07
1.02091e+07
1.02106e+07
1.02121e+07
1.02137e+07
1.02153e+07
1.0217e+07
1.02188e+07
1.02205e+07
1.02224e+07
1.02243e+07
1.02262e+07
1.02282e+07
1.02303e+07
1.02324e+07
1.02345e+07
1.02367e+07
1.02389e+07
1.02411e+07
1.02434e+07
1.02457e+07
1.02481e+07
1.02505e+07
1.02529e+07
1.02554e+07
1.02579e+07
1.02604e+07
1.0263e+07
1.02655e+07
1.02681e+07
1.02708e+07
1.02734e+07
1.02761e+07
1.02788e+07
1.02815e+07
1.02842e+07
1.0287e+07
1.02897e+07
1.02925e+07
1.02953e+07
1.02981e+07
1.0301e+07
1.03038e+07
1.03067e+07
1.03096e+07
1.03124e+07
1.03153e+07
1.03182e+07
1.03212e+07
1.03241e+07
1.0327e+07
1.033e+07
1.03329e+07
1.03359e+07
1.03388e+07
1.03418e+07
1.03448e+07
1.03478e+07
1.03508e+07
1.03538e+07
1.03568e+07
1.03598e+07
1.03628e+07
1.03658e+07
1.03689e+07
1.03719e+07
1.03749e+07
1.0378e+07
1.0381e+07
1.03841e+07
1.03871e+07
1.03902e+07
1.03932e+07
1.03963e+07
1.03994e+07
1.04024e+07
1.04055e+07
1.04086e+07
1.04117e+07
1.04148e+07
1.04179e+07
1.0421e+07
1.04241e+07
1.04272e+07
1.04303e+07
1.04334e+07
1.04365e+07
1.04397e+07
1.04428e+07
1.04459e+07
1.04491e+07
1.04523e+07
1.04554e+07
1.04586e+07
1.04618e+07
1.0465e+07
1.04682e+07
1.04714e+07
1.04746e+07
1.04778e+07
1.04811e+07
1.04843e+07
1.04876e+07
1.04909e+07
1.04942e+07
1.04975e+07
1.05008e+07
1.05041e+07
1.05075e+07
1.05109e+07
1.05143e+07
1.05177e+07
1.05211e+07
1.05245e+07
1.0528e+07
1.05315e+07
1.0535e+07
1.05385e+07
1.05421e+07
1.05457e+07
1.05492e+07
1.05528e+07
1.05565e+07
1.05601e+07
1.05638e+07
1.05674e+07
1.05711e+07
1.05748e+07
1.05785e+07
1.05822e+07
1.05858e+07
1.05895e+07
1.05932e+07
1.05968e+07
1.06003e+07
1.06039e+07
1.06073e+07
1.06107e+07
1.06139e+07
1.06171e+07
1.062e+07
1.06228e+07
1.06254e+07
1.06278e+07
1.06298e+07
1.06315e+07
1.06329e+07
1.06338e+07
1.06342e+07
1.0634e+07
1.06333e+07
1.06319e+07
1.06297e+07
1.06267e+07
1.0623e+07
1.06183e+07
1.06128e+07
1.06064e+07
1.0192e+07
1.01921e+07
1.01922e+07
1.01924e+07
1.01926e+07
1.01929e+07
1.01932e+07
1.01936e+07
1.01941e+07
1.01947e+07
1.01953e+07
1.01959e+07
1.01966e+07
1.01974e+07
1.01983e+07
1.01992e+07
1.02002e+07
1.02012e+07
1.02023e+07
1.02035e+07
1.02047e+07
1.0206e+07
1.02074e+07
1.02088e+07
1.02103e+07
1.02118e+07
1.02134e+07
1.02151e+07
1.02168e+07
1.02185e+07
1.02203e+07
1.02222e+07
1.02241e+07
1.02261e+07
1.02281e+07
1.02301e+07
1.02322e+07
1.02343e+07
1.02365e+07
1.02388e+07
1.0241e+07
1.02433e+07
1.02456e+07
1.0248e+07
1.02504e+07
1.02529e+07
1.02553e+07
1.02578e+07
1.02604e+07
1.02629e+07
1.02655e+07
1.02681e+07
1.02707e+07
1.02734e+07
1.02761e+07
1.02788e+07
1.02815e+07
1.02842e+07
1.0287e+07
1.02897e+07
1.02925e+07
1.02953e+07
1.02982e+07
1.0301e+07
1.03038e+07
1.03067e+07
1.03096e+07
1.03125e+07
1.03154e+07
1.03183e+07
1.03212e+07
1.03241e+07
1.0327e+07
1.033e+07
1.03329e+07
1.03359e+07
1.03389e+07
1.03418e+07
1.03448e+07
1.03478e+07
1.03508e+07
1.03538e+07
1.03568e+07
1.03598e+07
1.03628e+07
1.03659e+07
1.03689e+07
1.03719e+07
1.03749e+07
1.0378e+07
1.0381e+07
1.03841e+07
1.03871e+07
1.03902e+07
1.03932e+07
1.03963e+07
1.03994e+07
1.04025e+07
1.04055e+07
1.04086e+07
1.04117e+07
1.04148e+07
1.04179e+07
1.0421e+07
1.04241e+07
1.04272e+07
1.04303e+07
1.04334e+07
1.04366e+07
1.04397e+07
1.04428e+07
1.0446e+07
1.04491e+07
1.04523e+07
1.04554e+07
1.04586e+07
1.04618e+07
1.0465e+07
1.04682e+07
1.04714e+07
1.04746e+07
1.04778e+07
1.04811e+07
1.04843e+07
1.04876e+07
1.04909e+07
1.04942e+07
1.04975e+07
1.05008e+07
1.05041e+07
1.05075e+07
1.05109e+07
1.05143e+07
1.05177e+07
1.05211e+07
1.05245e+07
1.0528e+07
1.05315e+07
1.0535e+07
1.05385e+07
1.05421e+07
1.05456e+07
1.05492e+07
1.05528e+07
1.05565e+07
1.05601e+07
1.05638e+07
1.05674e+07
1.05711e+07
1.05748e+07
1.05785e+07
1.05822e+07
1.05859e+07
1.05895e+07
1.05932e+07
1.05968e+07
1.06004e+07
1.06039e+07
1.06074e+07
1.06107e+07
1.0614e+07
1.06171e+07
1.06201e+07
1.0623e+07
1.06256e+07
1.06279e+07
1.063e+07
1.06317e+07
1.06331e+07
1.0634e+07
1.06344e+07
1.06343e+07
1.06336e+07
1.06322e+07
1.063e+07
1.06271e+07
1.06233e+07
1.06186e+07
1.06131e+07
1.06066e+07
1.01913e+07
1.01913e+07
1.01914e+07
1.01916e+07
1.01919e+07
1.01922e+07
1.01925e+07
1.01929e+07
1.01934e+07
1.0194e+07
1.01946e+07
1.01952e+07
1.0196e+07
1.01968e+07
1.01977e+07
1.01986e+07
1.01996e+07
1.02007e+07
1.02018e+07
1.0203e+07
1.02042e+07
1.02055e+07
1.02069e+07
1.02084e+07
1.02099e+07
1.02114e+07
1.0213e+07
1.02147e+07
1.02164e+07
1.02182e+07
1.022e+07
1.02219e+07
1.02238e+07
1.02258e+07
1.02278e+07
1.02299e+07
1.0232e+07
1.02341e+07
1.02363e+07
1.02386e+07
1.02409e+07
1.02432e+07
1.02455e+07
1.02479e+07
1.02503e+07
1.02528e+07
1.02552e+07
1.02578e+07
1.02603e+07
1.02629e+07
1.02654e+07
1.02681e+07
1.02707e+07
1.02734e+07
1.0276e+07
1.02788e+07
1.02815e+07
1.02842e+07
1.0287e+07
1.02898e+07
1.02926e+07
1.02954e+07
1.02982e+07
1.0301e+07
1.03039e+07
1.03067e+07
1.03096e+07
1.03125e+07
1.03154e+07
1.03183e+07
1.03212e+07
1.03242e+07
1.03271e+07
1.033e+07
1.0333e+07
1.0336e+07
1.03389e+07
1.03419e+07
1.03449e+07
1.03479e+07
1.03509e+07
1.03539e+07
1.03569e+07
1.03599e+07
1.03629e+07
1.03659e+07
1.03689e+07
1.0372e+07
1.0375e+07
1.0378e+07
1.03811e+07
1.03841e+07
1.03872e+07
1.03902e+07
1.03933e+07
1.03964e+07
1.03994e+07
1.04025e+07
1.04056e+07
1.04087e+07
1.04117e+07
1.04148e+07
1.04179e+07
1.0421e+07
1.04241e+07
1.04272e+07
1.04303e+07
1.04335e+07
1.04366e+07
1.04397e+07
1.04428e+07
1.0446e+07
1.04491e+07
1.04523e+07
1.04555e+07
1.04586e+07
1.04618e+07
1.0465e+07
1.04682e+07
1.04714e+07
1.04746e+07
1.04778e+07
1.04811e+07
1.04843e+07
1.04876e+07
1.04909e+07
1.04942e+07
1.04975e+07
1.05008e+07
1.05041e+07
1.05075e+07
1.05109e+07
1.05143e+07
1.05177e+07
1.05211e+07
1.05245e+07
1.0528e+07
1.05315e+07
1.0535e+07
1.05385e+07
1.05421e+07
1.05456e+07
1.05492e+07
1.05528e+07
1.05565e+07
1.05601e+07
1.05638e+07
1.05674e+07
1.05711e+07
1.05748e+07
1.05785e+07
1.05822e+07
1.05859e+07
1.05896e+07
1.05932e+07
1.05969e+07
1.06004e+07
1.0604e+07
1.06074e+07
1.06108e+07
1.06141e+07
1.06173e+07
1.06203e+07
1.06231e+07
1.06258e+07
1.06281e+07
1.06302e+07
1.0632e+07
1.06334e+07
1.06344e+07
1.06348e+07
1.06347e+07
1.0634e+07
1.06326e+07
1.06305e+07
1.06276e+07
1.06238e+07
1.06192e+07
1.06136e+07
1.0607e+07
1.01903e+07
1.01903e+07
1.01904e+07
1.01906e+07
1.01909e+07
1.01912e+07
1.01915e+07
1.0192e+07
1.01925e+07
1.0193e+07
1.01937e+07
1.01943e+07
1.01951e+07
1.01959e+07
1.01968e+07
1.01978e+07
1.01988e+07
1.01999e+07
1.0201e+07
1.02023e+07
1.02035e+07
1.02049e+07
1.02063e+07
1.02077e+07
1.02093e+07
1.02108e+07
1.02125e+07
1.02142e+07
1.02159e+07
1.02177e+07
1.02196e+07
1.02215e+07
1.02234e+07
1.02254e+07
1.02275e+07
1.02296e+07
1.02317e+07
1.02339e+07
1.02361e+07
1.02384e+07
1.02407e+07
1.0243e+07
1.02454e+07
1.02478e+07
1.02502e+07
1.02526e+07
1.02551e+07
1.02577e+07
1.02602e+07
1.02628e+07
1.02654e+07
1.0268e+07
1.02707e+07
1.02733e+07
1.0276e+07
1.02787e+07
1.02815e+07
1.02842e+07
1.0287e+07
1.02898e+07
1.02926e+07
1.02954e+07
1.02982e+07
1.03011e+07
1.03039e+07
1.03068e+07
1.03097e+07
1.03126e+07
1.03155e+07
1.03184e+07
1.03213e+07
1.03242e+07
1.03272e+07
1.03301e+07
1.03331e+07
1.0336e+07
1.0339e+07
1.0342e+07
1.03449e+07
1.03479e+07
1.03509e+07
1.03539e+07
1.03569e+07
1.03599e+07
1.0363e+07
1.0366e+07
1.0369e+07
1.0372e+07
1.03751e+07
1.03781e+07
1.03811e+07
1.03842e+07
1.03872e+07
1.03903e+07
1.03934e+07
1.03964e+07
1.03995e+07
1.04026e+07
1.04056e+07
1.04087e+07
1.04118e+07
1.04149e+07
1.0418e+07
1.04211e+07
1.04242e+07
1.04273e+07
1.04304e+07
1.04335e+07
1.04366e+07
1.04398e+07
1.04429e+07
1.0446e+07
1.04492e+07
1.04523e+07
1.04555e+07
1.04587e+07
1.04618e+07
1.0465e+07
1.04682e+07
1.04714e+07
1.04746e+07
1.04779e+07
1.04811e+07
1.04844e+07
1.04876e+07
1.04909e+07
1.04942e+07
1.04975e+07
1.05008e+07
1.05041e+07
1.05075e+07
1.05109e+07
1.05143e+07
1.05177e+07
1.05211e+07
1.05245e+07
1.0528e+07
1.05315e+07
1.0535e+07
1.05385e+07
1.05421e+07
1.05457e+07
1.05492e+07
1.05529e+07
1.05565e+07
1.05601e+07
1.05638e+07
1.05675e+07
1.05711e+07
1.05748e+07
1.05785e+07
1.05822e+07
1.05859e+07
1.05896e+07
1.05933e+07
1.05969e+07
1.06005e+07
1.06041e+07
1.06076e+07
1.0611e+07
1.06143e+07
1.06175e+07
1.06205e+07
1.06234e+07
1.0626e+07
1.06285e+07
1.06306e+07
1.06324e+07
1.06338e+07
1.06348e+07
1.06353e+07
1.06353e+07
1.06346e+07
1.06333e+07
1.06312e+07
1.06283e+07
1.06245e+07
1.06199e+07
1.06142e+07
1.06076e+07
1.0189e+07
1.0189e+07
1.01892e+07
1.01894e+07
1.01896e+07
1.01899e+07
1.01903e+07
1.01908e+07
1.01913e+07
1.01919e+07
1.01925e+07
1.01932e+07
1.0194e+07
1.01949e+07
1.01958e+07
1.01968e+07
1.01978e+07
1.01989e+07
1.02001e+07
1.02014e+07
1.02027e+07
1.0204e+07
1.02055e+07
1.0207e+07
1.02085e+07
1.02102e+07
1.02118e+07
1.02136e+07
1.02153e+07
1.02172e+07
1.02191e+07
1.0221e+07
1.0223e+07
1.0225e+07
1.02271e+07
1.02292e+07
1.02314e+07
1.02336e+07
1.02358e+07
1.02381e+07
1.02404e+07
1.02428e+07
1.02451e+07
1.02476e+07
1.025e+07
1.02525e+07
1.0255e+07
1.02576e+07
1.02601e+07
1.02627e+07
1.02653e+07
1.0268e+07
1.02706e+07
1.02733e+07
1.0276e+07
1.02787e+07
1.02815e+07
1.02842e+07
1.0287e+07
1.02898e+07
1.02926e+07
1.02954e+07
1.02983e+07
1.03011e+07
1.0304e+07
1.03069e+07
1.03097e+07
1.03126e+07
1.03155e+07
1.03185e+07
1.03214e+07
1.03243e+07
1.03272e+07
1.03302e+07
1.03332e+07
1.03361e+07
1.03391e+07
1.03421e+07
1.0345e+07
1.0348e+07
1.0351e+07
1.0354e+07
1.0357e+07
1.036e+07
1.03631e+07
1.03661e+07
1.03691e+07
1.03721e+07
1.03752e+07
1.03782e+07
1.03812e+07
1.03843e+07
1.03873e+07
1.03904e+07
1.03934e+07
1.03965e+07
1.03996e+07
1.04026e+07
1.04057e+07
1.04088e+07
1.04119e+07
1.0415e+07
1.0418e+07
1.04211e+07
1.04242e+07
1.04273e+07
1.04304e+07
1.04336e+07
1.04367e+07
1.04398e+07
1.04429e+07
1.04461e+07
1.04492e+07
1.04524e+07
1.04555e+07
1.04587e+07
1.04619e+07
1.04651e+07
1.04683e+07
1.04715e+07
1.04747e+07
1.04779e+07
1.04811e+07
1.04844e+07
1.04876e+07
1.04909e+07
1.04942e+07
1.04975e+07
1.05008e+07
1.05042e+07
1.05075e+07
1.05109e+07
1.05143e+07
1.05177e+07
1.05211e+07
1.05245e+07
1.0528e+07
1.05315e+07
1.0535e+07
1.05385e+07
1.05421e+07
1.05457e+07
1.05492e+07
1.05529e+07
1.05565e+07
1.05601e+07
1.05638e+07
1.05675e+07
1.05712e+07
1.05749e+07
1.05786e+07
1.05823e+07
1.0586e+07
1.05897e+07
1.05934e+07
1.0597e+07
1.06006e+07
1.06042e+07
1.06077e+07
1.06112e+07
1.06145e+07
1.06177e+07
1.06208e+07
1.06237e+07
1.06264e+07
1.06288e+07
1.0631e+07
1.06329e+07
1.06344e+07
1.06354e+07
1.0636e+07
1.0636e+07
1.06354e+07
1.06341e+07
1.0632e+07
1.06292e+07
1.06254e+07
1.06207e+07
1.06151e+07
1.06084e+07
1.01874e+07
1.01875e+07
1.01876e+07
1.01878e+07
1.01881e+07
1.01884e+07
1.01888e+07
1.01893e+07
1.01898e+07
1.01904e+07
1.01911e+07
1.01918e+07
1.01927e+07
1.01936e+07
1.01945e+07
1.01955e+07
1.01966e+07
1.01978e+07
1.0199e+07
1.02003e+07
1.02016e+07
1.02031e+07
1.02045e+07
1.02061e+07
1.02077e+07
1.02093e+07
1.0211e+07
1.02128e+07
1.02146e+07
1.02165e+07
1.02184e+07
1.02204e+07
1.02224e+07
1.02245e+07
1.02266e+07
1.02288e+07
1.02309e+07
1.02332e+07
1.02355e+07
1.02378e+07
1.02401e+07
1.02425e+07
1.02449e+07
1.02474e+07
1.02498e+07
1.02523e+07
1.02549e+07
1.02574e+07
1.026e+07
1.02626e+07
1.02653e+07
1.02679e+07
1.02706e+07
1.02733e+07
1.0276e+07
1.02787e+07
1.02815e+07
1.02843e+07
1.02871e+07
1.02899e+07
1.02927e+07
1.02955e+07
1.02983e+07
1.03012e+07
1.03041e+07
1.03069e+07
1.03098e+07
1.03127e+07
1.03156e+07
1.03186e+07
1.03215e+07
1.03244e+07
1.03274e+07
1.03303e+07
1.03333e+07
1.03362e+07
1.03392e+07
1.03422e+07
1.03452e+07
1.03481e+07
1.03511e+07
1.03541e+07
1.03571e+07
1.03602e+07
1.03632e+07
1.03662e+07
1.03692e+07
1.03722e+07
1.03753e+07
1.03783e+07
1.03813e+07
1.03844e+07
1.03874e+07
1.03905e+07
1.03935e+07
1.03966e+07
1.03997e+07
1.04027e+07
1.04058e+07
1.04089e+07
1.0412e+07
1.0415e+07
1.04181e+07
1.04212e+07
1.04243e+07
1.04274e+07
1.04305e+07
1.04336e+07
1.04368e+07
1.04399e+07
1.0443e+07
1.04461e+07
1.04493e+07
1.04524e+07
1.04556e+07
1.04588e+07
1.04619e+07
1.04651e+07
1.04683e+07
1.04715e+07
1.04747e+07
1.04779e+07
1.04812e+07
1.04844e+07
1.04877e+07
1.04909e+07
1.04942e+07
1.04975e+07
1.05008e+07
1.05042e+07
1.05075e+07
1.05109e+07
1.05143e+07
1.05177e+07
1.05211e+07
1.05246e+07
1.0528e+07
1.05315e+07
1.0535e+07
1.05385e+07
1.05421e+07
1.05457e+07
1.05493e+07
1.05529e+07
1.05565e+07
1.05602e+07
1.05638e+07
1.05675e+07
1.05712e+07
1.05749e+07
1.05786e+07
1.05824e+07
1.05861e+07
1.05898e+07
1.05935e+07
1.05971e+07
1.06008e+07
1.06044e+07
1.06079e+07
1.06114e+07
1.06147e+07
1.0618e+07
1.06211e+07
1.0624e+07
1.06268e+07
1.06293e+07
1.06315e+07
1.06335e+07
1.0635e+07
1.06361e+07
1.06368e+07
1.06368e+07
1.06363e+07
1.0635e+07
1.0633e+07
1.06302e+07
1.06265e+07
1.06218e+07
1.06161e+07
1.06094e+07
1.01856e+07
1.01857e+07
1.01858e+07
1.0186e+07
1.01863e+07
1.01866e+07
1.01871e+07
1.01875e+07
1.01881e+07
1.01888e+07
1.01895e+07
1.01902e+07
1.01911e+07
1.0192e+07
1.0193e+07
1.01941e+07
1.01952e+07
1.01964e+07
1.01977e+07
1.0199e+07
1.02004e+07
1.02019e+07
1.02034e+07
1.0205e+07
1.02067e+07
1.02084e+07
1.02101e+07
1.02119e+07
1.02138e+07
1.02157e+07
1.02177e+07
1.02197e+07
1.02218e+07
1.02239e+07
1.02261e+07
1.02282e+07
1.02305e+07
1.02328e+07
1.02351e+07
1.02374e+07
1.02398e+07
1.02422e+07
1.02446e+07
1.02471e+07
1.02496e+07
1.02522e+07
1.02547e+07
1.02573e+07
1.02599e+07
1.02625e+07
1.02652e+07
1.02679e+07
1.02706e+07
1.02733e+07
1.0276e+07
1.02788e+07
1.02815e+07
1.02843e+07
1.02871e+07
1.02899e+07
1.02927e+07
1.02956e+07
1.02984e+07
1.03013e+07
1.03042e+07
1.0307e+07
1.03099e+07
1.03128e+07
1.03158e+07
1.03187e+07
1.03216e+07
1.03245e+07
1.03275e+07
1.03304e+07
1.03334e+07
1.03364e+07
1.03393e+07
1.03423e+07
1.03453e+07
1.03483e+07
1.03513e+07
1.03543e+07
1.03573e+07
1.03603e+07
1.03633e+07
1.03663e+07
1.03693e+07
1.03724e+07
1.03754e+07
1.03784e+07
1.03815e+07
1.03845e+07
1.03876e+07
1.03906e+07
1.03937e+07
1.03967e+07
1.03998e+07
1.04028e+07
1.04059e+07
1.0409e+07
1.04121e+07
1.04151e+07
1.04182e+07
1.04213e+07
1.04244e+07
1.04275e+07
1.04306e+07
1.04337e+07
1.04368e+07
1.044e+07
1.04431e+07
1.04462e+07
1.04494e+07
1.04525e+07
1.04557e+07
1.04588e+07
1.0462e+07
1.04652e+07
1.04684e+07
1.04715e+07
1.04748e+07
1.0478e+07
1.04812e+07
1.04844e+07
1.04877e+07
1.0491e+07
1.04943e+07
1.04976e+07
1.05009e+07
1.05042e+07
1.05075e+07
1.05109e+07
1.05143e+07
1.05177e+07
1.05211e+07
1.05246e+07
1.0528e+07
1.05315e+07
1.0535e+07
1.05386e+07
1.05421e+07
1.05457e+07
1.05493e+07
1.05529e+07
1.05565e+07
1.05602e+07
1.05639e+07
1.05675e+07
1.05713e+07
1.0575e+07
1.05787e+07
1.05824e+07
1.05862e+07
1.05899e+07
1.05936e+07
1.05973e+07
1.06009e+07
1.06046e+07
1.06081e+07
1.06116e+07
1.0615e+07
1.06183e+07
1.06215e+07
1.06245e+07
1.06273e+07
1.06298e+07
1.06321e+07
1.06341e+07
1.06358e+07
1.06369e+07
1.06377e+07
1.06378e+07
1.06373e+07
1.06362e+07
1.06342e+07
1.06315e+07
1.06278e+07
1.06231e+07
1.06174e+07
1.06106e+07
1.01835e+07
1.01835e+07
1.01837e+07
1.01839e+07
1.01842e+07
1.01846e+07
1.0185e+07
1.01855e+07
1.01861e+07
1.01868e+07
1.01876e+07
1.01884e+07
1.01893e+07
1.01903e+07
1.01913e+07
1.01924e+07
1.01936e+07
1.01949e+07
1.01962e+07
1.01976e+07
1.0199e+07
1.02006e+07
1.02022e+07
1.02038e+07
1.02055e+07
1.02073e+07
1.02091e+07
1.0211e+07
1.02129e+07
1.02149e+07
1.02169e+07
1.0219e+07
1.02211e+07
1.02232e+07
1.02254e+07
1.02277e+07
1.023e+07
1.02323e+07
1.02346e+07
1.0237e+07
1.02394e+07
1.02419e+07
1.02444e+07
1.02469e+07
1.02494e+07
1.0252e+07
1.02545e+07
1.02572e+07
1.02598e+07
1.02624e+07
1.02651e+07
1.02678e+07
1.02705e+07
1.02733e+07
1.0276e+07
1.02788e+07
1.02816e+07
1.02844e+07
1.02872e+07
1.029e+07
1.02928e+07
1.02957e+07
1.02985e+07
1.03014e+07
1.03043e+07
1.03072e+07
1.03101e+07
1.0313e+07
1.03159e+07
1.03188e+07
1.03217e+07
1.03247e+07
1.03276e+07
1.03306e+07
1.03336e+07
1.03365e+07
1.03395e+07
1.03425e+07
1.03455e+07
1.03484e+07
1.03514e+07
1.03544e+07
1.03574e+07
1.03604e+07
1.03635e+07
1.03665e+07
1.03695e+07
1.03725e+07
1.03755e+07
1.03786e+07
1.03816e+07
1.03847e+07
1.03877e+07
1.03907e+07
1.03938e+07
1.03969e+07
1.03999e+07
1.0403e+07
1.0406e+07
1.04091e+07
1.04122e+07
1.04153e+07
1.04183e+07
1.04214e+07
1.04245e+07
1.04276e+07
1.04307e+07
1.04338e+07
1.04369e+07
1.04401e+07
1.04432e+07
1.04463e+07
1.04494e+07
1.04526e+07
1.04557e+07
1.04589e+07
1.04621e+07
1.04652e+07
1.04684e+07
1.04716e+07
1.04748e+07
1.0478e+07
1.04813e+07
1.04845e+07
1.04877e+07
1.0491e+07
1.04943e+07
1.04976e+07
1.05009e+07
1.05042e+07
1.05076e+07
1.05109e+07
1.05143e+07
1.05177e+07
1.05211e+07
1.05246e+07
1.0528e+07
1.05315e+07
1.0535e+07
1.05386e+07
1.05421e+07
1.05457e+07
1.05493e+07
1.05529e+07
1.05565e+07
1.05602e+07
1.05639e+07
1.05676e+07
1.05713e+07
1.0575e+07
1.05788e+07
1.05825e+07
1.05863e+07
1.059e+07
1.05937e+07
1.05974e+07
1.06011e+07
1.06048e+07
1.06084e+07
1.06119e+07
1.06153e+07
1.06187e+07
1.06219e+07
1.06249e+07
1.06278e+07
1.06305e+07
1.06328e+07
1.06349e+07
1.06366e+07
1.06379e+07
1.06387e+07
1.06389e+07
1.06386e+07
1.06375e+07
1.06356e+07
1.06329e+07
1.06292e+07
1.06246e+07
1.06188e+07
1.0612e+07
1.0181e+07
1.01811e+07
1.01812e+07
1.01815e+07
1.01818e+07
1.01822e+07
1.01827e+07
1.01832e+07
1.01839e+07
1.01846e+07
1.01854e+07
1.01863e+07
1.01872e+07
1.01882e+07
1.01893e+07
1.01905e+07
1.01918e+07
1.01931e+07
1.01945e+07
1.0196e+07
1.01975e+07
1.01991e+07
1.02007e+07
1.02025e+07
1.02042e+07
1.02061e+07
1.02079e+07
1.02099e+07
1.02119e+07
1.02139e+07
1.0216e+07
1.02181e+07
1.02203e+07
1.02225e+07
1.02248e+07
1.02271e+07
1.02294e+07
1.02317e+07
1.02341e+07
1.02366e+07
1.0239e+07
1.02415e+07
1.0244e+07
1.02466e+07
1.02492e+07
1.02518e+07
1.02544e+07
1.0257e+07
1.02597e+07
1.02623e+07
1.0265e+07
1.02678e+07
1.02705e+07
1.02733e+07
1.0276e+07
1.02788e+07
1.02816e+07
1.02844e+07
1.02872e+07
1.02901e+07
1.02929e+07
1.02958e+07
1.02986e+07
1.03015e+07
1.03044e+07
1.03073e+07
1.03102e+07
1.03131e+07
1.0316e+07
1.0319e+07
1.03219e+07
1.03249e+07
1.03278e+07
1.03308e+07
1.03337e+07
1.03367e+07
1.03397e+07
1.03426e+07
1.03456e+07
1.03486e+07
1.03516e+07
1.03546e+07
1.03576e+07
1.03606e+07
1.03636e+07
1.03666e+07
1.03697e+07
1.03727e+07
1.03757e+07
1.03787e+07
1.03818e+07
1.03848e+07
1.03879e+07
1.03909e+07
1.0394e+07
1.0397e+07
1.04001e+07
1.04031e+07
1.04062e+07
1.04093e+07
1.04123e+07
1.04154e+07
1.04185e+07
1.04216e+07
1.04246e+07
1.04277e+07
1.04308e+07
1.04339e+07
1.0437e+07
1.04402e+07
1.04433e+07
1.04464e+07
1.04495e+07
1.04527e+07
1.04558e+07
1.0459e+07
1.04621e+07
1.04653e+07
1.04685e+07
1.04717e+07
1.04749e+07
1.04781e+07
1.04813e+07
1.04845e+07
1.04878e+07
1.04911e+07
1.04943e+07
1.04976e+07
1.05009e+07
1.05043e+07
1.05076e+07
1.0511e+07
1.05143e+07
1.05177e+07
1.05212e+07
1.05246e+07
1.05281e+07
1.05315e+07
1.05351e+07
1.05386e+07
1.05421e+07
1.05457e+07
1.05493e+07
1.05529e+07
1.05566e+07
1.05602e+07
1.05639e+07
1.05676e+07
1.05714e+07
1.05751e+07
1.05788e+07
1.05826e+07
1.05864e+07
1.05901e+07
1.05939e+07
1.05976e+07
1.06013e+07
1.0605e+07
1.06086e+07
1.06122e+07
1.06157e+07
1.06191e+07
1.06224e+07
1.06255e+07
1.06284e+07
1.06311e+07
1.06336e+07
1.06358e+07
1.06376e+07
1.0639e+07
1.06399e+07
1.06402e+07
1.06399e+07
1.06389e+07
1.06372e+07
1.06345e+07
1.06309e+07
1.06262e+07
1.06205e+07
1.06136e+07
1.01782e+07
1.01783e+07
1.01785e+07
1.01787e+07
1.01791e+07
1.01795e+07
1.018e+07
1.01806e+07
1.01813e+07
1.01821e+07
1.01829e+07
1.01839e+07
1.01849e+07
1.0186e+07
1.01872e+07
1.01884e+07
1.01897e+07
1.01911e+07
1.01926e+07
1.01942e+07
1.01958e+07
1.01974e+07
1.01992e+07
1.0201e+07
1.02028e+07
1.02047e+07
1.02067e+07
1.02087e+07
1.02108e+07
1.02129e+07
1.0215e+07
1.02172e+07
1.02194e+07
1.02217e+07
1.0224e+07
1.02264e+07
1.02288e+07
1.02312e+07
1.02336e+07
1.02361e+07
1.02386e+07
1.02412e+07
1.02437e+07
1.02463e+07
1.02489e+07
1.02515e+07
1.02542e+07
1.02569e+07
1.02595e+07
1.02623e+07
1.0265e+07
1.02677e+07
1.02705e+07
1.02733e+07
1.0276e+07
1.02788e+07
1.02817e+07
1.02845e+07
1.02873e+07
1.02902e+07
1.0293e+07
1.02959e+07
1.02988e+07
1.03017e+07
1.03046e+07
1.03075e+07
1.03104e+07
1.03133e+07
1.03162e+07
1.03192e+07
1.03221e+07
1.03251e+07
1.0328e+07
1.0331e+07
1.03339e+07
1.03369e+07
1.03399e+07
1.03429e+07
1.03458e+07
1.03488e+07
1.03518e+07
1.03548e+07
1.03578e+07
1.03608e+07
1.03638e+07
1.03668e+07
1.03699e+07
1.03729e+07
1.03759e+07
1.03789e+07
1.0382e+07
1.0385e+07
1.0388e+07
1.03911e+07
1.03941e+07
1.03972e+07
1.04002e+07
1.04033e+07
1.04063e+07
1.04094e+07
1.04125e+07
1.04156e+07
1.04186e+07
1.04217e+07
1.04248e+07
1.04279e+07
1.0431e+07
1.04341e+07
1.04372e+07
1.04403e+07
1.04434e+07
1.04465e+07
1.04496e+07
1.04528e+07
1.04559e+07
1.04591e+07
1.04622e+07
1.04654e+07
1.04686e+07
1.04718e+07
1.0475e+07
1.04782e+07
1.04814e+07
1.04846e+07
1.04879e+07
1.04911e+07
1.04944e+07