/*--------------------------------*- C++ -*----------------------------------*\
  =========                 |
  \\      /  F ield         | OpenFOAM: The Open Source CFD Toolbox
   \\    /   O peration     | Website:  https://openfoam.org
    \\  /    A nd           | Version:  10
     \\/     M anipulation  |
\*---------------------------------------------------------------------------*/
FoamFile
{
    format      ascii;
    class       volVectorField;
    location    "2250";
    object      Ub;
}
// * * * * * * * * * * * * * * * * * * * * * * * * * * * * * * * * * * * * * //

dimensions      [0 1 -1 0 0 0 0];

internalField   nonuniform List<vector> 
3200
(
(-4.07338e-22 -9.87898e-16 0)
(-1.21008e-21 -9.87898e-16 0)
(-1.98485e-21 -9.87898e-16 0)
(-2.72393e-21 -9.87898e-16 0)
(-3.42058e-21 -9.87898e-16 0)
(-4.06899e-21 -9.87898e-16 0)
(-4.66428e-21 -9.87898e-16 0)
(-5.2024e-21 -9.87898e-16 0)
(-5.68012e-21 -9.87898e-16 0)
(-6.09501e-21 -9.87898e-16 0)
(-6.44534e-21 -9.87898e-16 0)
(-6.73009e-21 -9.87898e-16 0)
(-6.94888e-21 -9.87898e-16 0)
(-7.10194e-21 -9.87898e-16 0)
(-7.19006e-21 -9.87898e-16 0)
(-7.21456e-21 -9.87899e-16 0)
(-7.17721e-21 -9.87899e-16 0)
(-7.0802e-21 -9.87899e-16 0)
(-6.92614e-21 -9.87899e-16 0)
(-6.71791e-21 -9.87899e-16 0)
(-6.45872e-21 -9.87899e-16 0)
(-6.15198e-21 -9.87899e-16 0)
(-5.80131e-21 -9.87899e-16 0)
(-5.41045e-21 -9.87899e-16 0)
(-4.98325e-21 -9.87899e-16 0)
(-4.52361e-21 -9.87899e-16 0)
(-4.03544e-21 -9.87899e-16 0)
(-3.52262e-21 -9.87899e-16 0)
(-2.98899e-21 -9.87899e-16 0)
(-2.43828e-21 -9.87899e-16 0)
(-1.87412e-21 -9.87899e-16 0)
(-1.29997e-21 -9.87899e-16 0)
(-7.19148e-22 -9.87899e-16 0)
(-1.34799e-22 -9.87899e-16 0)
(4.50139e-22 -9.87899e-16 0)
(1.03292e-21 -9.87899e-16 0)
(1.61102e-21 -9.87899e-16 0)
(2.18212e-21 -9.87899e-16 0)
(2.74411e-21 -9.87899e-16 0)
(3.2951e-21 -9.87899e-16 0)
(-4.17526e-22 -9.87897e-16 0)
(-1.24041e-21 -9.87897e-16 0)
(-2.03482e-21 -9.87897e-16 0)
(-2.79294e-21 -9.87897e-16 0)
(-3.50794e-21 -9.87897e-16 0)
(-4.17395e-21 -9.87897e-16 0)
(-4.78598e-21 -9.87897e-16 0)
(-5.3399e-21 -9.87897e-16 0)
(-5.83241e-21 -9.87897e-16 0)
(-6.26097e-21 -9.87898e-16 0)
(-6.62378e-21 -9.87898e-16 0)
(-6.91973e-21 -9.87898e-16 0)
(-7.14837e-21 -9.87898e-16 0)
(-7.30986e-21 -9.87898e-16 0)
(-7.40493e-21 -9.87898e-16 0)
(-7.43483e-21 -9.87899e-16 0)
(-7.40129e-21 -9.87899e-16 0)
(-7.30649e-21 -9.87899e-16 0)
(-7.15301e-21 -9.87899e-16 0)
(-6.94373e-21 -9.87899e-16 0)
(-6.68188e-21 -9.87899e-16 0)
(-6.3709e-21 -9.879e-16 0)
(-6.01445e-21 -9.879e-16 0)
(-5.61635e-21 -9.879e-16 0)
(-5.1805e-21 -9.879e-16 0)
(-4.7109e-21 -9.879e-16 0)
(-4.21156e-21 -9.879e-16 0)
(-3.68648e-21 -9.879e-16 0)
(-3.13959e-21 -9.879e-16 0)
(-2.57475e-21 -9.87901e-16 0)
(-1.99572e-21 -9.87901e-16 0)
(-1.40609e-21 -9.87901e-16 0)
(-8.09312e-22 -9.87901e-16 0)
(-2.08641e-22 -9.87901e-16 0)
(3.92856e-22 -9.87901e-16 0)
(9.92322e-22 -9.87901e-16 0)
(1.58711e-21 -9.87901e-16 0)
(2.17481e-21 -9.87901e-16 0)
(2.7532e-21 -9.87901e-16 0)
(3.32032e-21 -9.87901e-16 0)
(-4.38012e-22 -9.87895e-16 0)
(-1.30141e-21 -9.87896e-16 0)
(-2.13532e-21 -9.87896e-16 0)
(-2.93177e-21 -9.87896e-16 0)
(-3.68375e-21 -9.87896e-16 0)
(-4.38523e-21 -9.87896e-16 0)
(-5.03106e-21 -9.87896e-16 0)
(-5.61693e-21 -9.87896e-16 0)
(-6.13937e-21 -9.87897e-16 0)
(-6.59566e-21 -9.87897e-16 0)
(-6.98384e-21 -9.87897e-16 0)
(-7.30262e-21 -9.87897e-16 0)
(-7.5514e-21 -9.87898e-16 0)
(-7.73019e-21 -9.87898e-16 0)
(-7.83957e-21 -9.87898e-16 0)
(-7.8807e-21 -9.87899e-16 0)
(-7.8552e-21 -9.87899e-16 0)
(-7.76519e-21 -9.87899e-16 0)
(-7.6132e-21 -9.87899e-16 0)
(-7.40212e-21 -9.879e-16 0)
(-7.13518e-21 -9.879e-16 0)
(-6.81589e-21 -9.879e-16 0)
(-6.44799e-21 -9.87901e-16 0)
(-6.03542e-21 -9.87901e-16 0)
(-5.58223e-21 -9.87901e-16 0)
(-5.09259e-21 -9.87901e-16 0)
(-4.57071e-21 -9.87901e-16 0)
(-4.02079e-21 -9.87902e-16 0)
(-3.44703e-21 -9.87902e-16 0)
(-2.85352e-21 -9.87902e-16 0)
(-2.24426e-21 -9.87902e-16 0)
(-1.62314e-21 -9.87902e-16 0)
(-9.93839e-22 -9.87902e-16 0)
(-3.59889e-22 -9.87902e-16 0)
(2.75392e-22 -9.87902e-16 0)
(9.08907e-22 -9.87903e-16 0)
(1.53778e-21 -9.87903e-16 0)
(2.15938e-21 -9.87903e-16 0)
(2.77129e-21 -9.87903e-16 0)
(3.37137e-21 -9.87903e-16 0)
(-4.6901e-22 -9.87894e-16 0)
(-1.39372e-21 -9.87894e-16 0)
(-2.28745e-21 -9.87894e-16 0)
(-3.14198e-21 -9.87894e-16 0)
(-3.95009e-21 -9.87895e-16 0)
(-4.70549e-21 -9.87895e-16 0)
(-5.40278e-21 -9.87895e-16 0)
(-6.03741e-21 -9.87895e-16 0)
(-6.60565e-21 -9.87896e-16 0)
(-7.10452e-21 -9.87896e-16 0)
(-7.53178e-21 -9.87896e-16 0)
(-7.8859e-21 -9.87897e-16 0)
(-8.166e-21 -9.87897e-16 0)
(-8.37185e-21 -9.87898e-16 0)
(-8.50384e-21 -9.87898e-16 0)
(-8.56289e-21 -9.87898e-16 0)
(-8.5505e-21 -9.87899e-16 0)
(-8.46865e-21 -9.87899e-16 0)
(-8.31978e-21 -9.879e-16 0)
(-8.10675e-21 -9.879e-16 0)
(-7.83281e-21 -9.87901e-16 0)
(-7.50152e-21 -9.87901e-16 0)
(-7.11675e-21 -9.87901e-16 0)
(-6.68257e-21 -9.87902e-16 0)
(-6.20328e-21 -9.87902e-16 0)
(-5.68328e-21 -9.87902e-16 0)
(-5.12708e-21 -9.87903e-16 0)
(-4.53922e-21 -9.87903e-16 0)
(-3.92425e-21 -9.87903e-16 0)
(-3.28665e-21 -9.87903e-16 0)
(-2.63082e-21 -9.87904e-16 0)
(-1.96106e-21 -9.87904e-16 0)
(-1.28146e-21 -9.87904e-16 0)
(-5.95965e-22 -9.87904e-16 0)
(9.17066e-23 -9.87904e-16 0)
(7.78068e-22 -9.87904e-16 0)
(1.45988e-21 -9.87904e-16 0)
(2.13415e-21 -9.87904e-16 0)
(2.79817e-21 -9.87904e-16 0)
(3.44947e-21 -9.87904e-16 0)
(-5.1082e-22 -9.87893e-16 0)
(-1.51825e-21 -9.87893e-16 0)
(-2.49274e-21 -9.87893e-16 0)
(-3.4258e-21 -9.87893e-16 0)
(-4.30991e-21 -9.87893e-16 0)
(-5.13849e-21 -9.87894e-16 0)
(-5.90582e-21 -9.87894e-16 0)
(-6.60703e-21 -9.87894e-16 0)
(-7.23804e-21 -9.87895e-16 0)
(-7.79551e-21 -9.87895e-16 0)
(-8.27683e-21 -9.87896e-16 0)
(-8.6801e-21 -9.87896e-16 0)
(-9.00408e-21 -9.87897e-16 0)
(-9.2482e-21 -9.87897e-16 0)
(-9.41249e-21 -9.87898e-16 0)
(-9.4976e-21 -9.87898e-16 0)
(-9.50475e-21 -9.87899e-16 0)
(-9.43571e-21 -9.879e-16 0)
(-9.29277e-21 -9.879e-16 0)
(-9.0787e-21 -9.87901e-16 0)
(-8.79671e-21 -9.87901e-16 0)
(-8.45041e-21 -9.87902e-16 0)
(-8.04378e-21 -9.87902e-16 0)
(-7.5811e-21 -9.87903e-16 0)
(-7.0669e-21 -9.87903e-16 0)
(-6.50594e-21 -9.87904e-16 0)
(-5.90309e-21 -9.87904e-16 0)
(-5.26335e-21 -9.87904e-16 0)
(-4.59176e-21 -9.87905e-16 0)
(-3.89334e-21 -9.87905e-16 0)
(-3.17305e-21 -9.87905e-16 0)
(-2.43575e-21 -9.87906e-16 0)
(-1.68615e-21 -9.87906e-16 0)
(-9.28767e-22 -9.87906e-16 0)
(-1.67905e-22 -9.87906e-16 0)
(5.92385e-22 -9.87906e-16 0)
(1.34832e-21 -9.87906e-16 0)
(2.09641e-21 -9.87906e-16 0)
(2.83347e-21 -9.87906e-16 0)
(3.5566e-21 -9.87906e-16 0)
(-5.63799e-22 -9.87891e-16 0)
(-1.67607e-21 -9.87891e-16 0)
(-2.75305e-21 -9.87891e-16 0)
(-3.78591e-21 -9.87892e-16 0)
(-4.76683e-21 -9.87892e-16 0)
(-5.68889e-21 -9.87892e-16 0)
(-6.54601e-21 -9.87893e-16 0)
(-7.33292e-21 -9.87893e-16 0)
(-8.04511e-21 -9.87894e-16 0)
(-8.67879e-21 -9.87894e-16 0)
(-9.23087e-21 -9.87895e-16 0)
(-9.69895e-21 -9.87896e-16 0)
(-1.00813e-20 -9.87896e-16 0)
(-1.03769e-20 -9.87897e-16 0)
(-1.05852e-20 -9.87898e-16 0)
(-1.07065e-20 -9.87898e-16 0)
(-1.07417e-20 -9.87899e-16 0)
(-1.0692e-20 -9.879e-16 0)
(-1.05596e-20 -9.879e-16 0)
(-1.0347e-20 -9.87901e-16 0)
(-1.00573e-20 -9.87902e-16 0)
(-9.69411e-21 -9.87903e-16 0)
(-9.26148e-21 -9.87903e-16 0)
(-8.76387e-21 -9.87904e-16 0)
(-8.20611e-21 -9.87904e-16 0)
(-7.5933e-21 -9.87905e-16 0)
(-6.93083e-21 -9.87906e-16 0)
(-6.22424e-21 -9.87906e-16 0)
(-5.47919e-21 -9.87907e-16 0)
(-4.7014e-21 -9.87907e-16 0)
(-3.89659e-21 -9.87907e-16 0)
(-3.0704e-21 -9.87908e-16 0)
(-2.22833e-21 -9.87908e-16 0)
(-1.37573e-21 -9.87908e-16 0)
(-5.17696e-22 -9.87908e-16 0)
(3.40925e-22 -9.87908e-16 0)
(1.1956e-21 -9.87909e-16 0)
(2.04211e-21 -9.87909e-16 0)
(2.87661e-21 -9.87909e-16 0)
(3.69559e-21 -9.87909e-16 0)
(-6.28321e-22 -9.87889e-16 0)
(-1.86834e-21 -9.8789e-16 0)
(-3.07033e-21 -9.8789e-16 0)
(-4.22519e-21 -9.8789e-16 0)
(-5.32479e-21 -9.8789e-16 0)
(-6.36184e-21 -9.87891e-16 0)
(-7.32989e-21 -9.87891e-16 0)
(-8.22321e-21 -9.87892e-16 0)
(-9.03679e-21 -9.87893e-16 0)
(-9.76628e-21 -9.87893e-16 0)
(-1.0408e-20 -9.87894e-16 0)
(-1.0959e-20 -9.87895e-16 0)
(-1.14167e-20 -9.87896e-16 0)
(-1.17796e-20 -9.87896e-16 0)
(-1.20465e-20 -9.87897e-16 0)
(-1.2217e-20 -9.87898e-16 0)
(-1.22913e-20 -9.87899e-16 0)
(-1.22704e-20 -9.879e-16 0)
(-1.21557e-20 -9.87901e-16 0)
(-1.19494e-20 -9.87902e-16 0)
(-1.16545e-20 -9.87903e-16 0)
(-1.12744e-20 -9.87903e-16 0)
(-1.0813e-20 -9.87904e-16 0)
(-1.0275e-20 -9.87905e-16 0)
(-9.66547e-21 -9.87906e-16 0)
(-8.98991e-21 -9.87907e-16 0)
(-8.25421e-21 -9.87907e-16 0)
(-7.46458e-21 -9.87908e-16 0)
(-6.62747e-21 -9.87908e-16 0)
(-5.74947e-21 -9.87909e-16 0)
(-4.83725e-21 -9.87909e-16 0)
(-3.89748e-21 -9.8791e-16 0)
(-2.93674e-21 -9.8791e-16 0)
(-1.96147e-21 -9.8791e-16 0)
(-9.77867e-22 -9.87911e-16 0)
(8.13931e-24 -9.87911e-16 0)
(9.90961e-22 -9.87911e-16 0)
(1.96539e-21 -9.87911e-16 0)
(2.92663e-21 -9.87911e-16 0)
(3.87032e-21 -9.87911e-16 0)
(-7.04733e-22 -9.87888e-16 0)
(-2.09612e-21 -9.87888e-16 0)
(-3.44645e-21 -9.87888e-16 0)
(-4.74642e-21 -9.87888e-16 0)
(-5.98764e-21 -9.87889e-16 0)
(-7.16251e-21 -9.87889e-16 0)
(-8.26416e-21 -9.8789e-16 0)
(-9.28641e-21 -9.8789e-16 0)
(-1.02237e-20 -9.87891e-16 0)
(-1.1071e-20 -9.87892e-16 0)
(-1.18239e-20 -9.87893e-16 0)
(-1.24787e-20 -9.87894e-16 0)
(-1.30322e-20 -9.87895e-16 0)
(-1.34817e-20 -9.87896e-16 0)
(-1.38253e-20 -9.87897e-16 0)
(-1.40617e-20 -9.87898e-16 0)
(-1.41903e-20 -9.87899e-16 0)
(-1.42111e-20 -9.879e-16 0)
(-1.4125e-20 -9.87901e-16 0)
(-1.39336e-20 -9.87902e-16 0)
(-1.36391e-20 -9.87903e-16 0)
(-1.32448e-20 -9.87904e-16 0)
(-1.27543e-20 -9.87905e-16 0)
(-1.21722e-20 -9.87906e-16 0)
(-1.15038e-20 -9.87907e-16 0)
(-1.07549e-20 -9.87908e-16 0)
(-9.93202e-21 -9.87909e-16 0)
(-9.04201e-21 -9.8791e-16 0)
(-8.09223e-21 -9.87911e-16 0)
(-7.09035e-21 -9.87911e-16 0)
(-6.04425e-21 -9.87912e-16 0)
(-4.9619e-21 -9.87912e-16 0)
(-3.8513e-21 -9.87913e-16 0)
(-2.72035e-21 -9.87913e-16 0)
(-1.57673e-21 -9.87914e-16 0)
(-4.27877e-22 -9.87914e-16 0)
(7.19181e-22 -9.87914e-16 0)
(1.85783e-21 -9.87914e-16 0)
(2.98197e-21 -9.87914e-16 0)
(4.08601e-21 -9.87914e-16 0)
(-7.93282e-22 -9.87885e-16 0)
(-2.36017e-21 -9.87886e-16 0)
(-3.8828e-21 -9.87886e-16 0)
(-5.35179e-21 -9.87886e-16 0)
(-6.75859e-21 -9.87887e-16 0)
(-8.09536e-21 -9.87887e-16 0)
(-9.3549e-21 -9.87888e-16 0)
(-1.05305e-20 -9.87889e-16 0)
(-1.16161e-20 -9.8789e-16 0)
(-1.2606e-20 -9.8789e-16 0)
(-1.34949e-20 -9.87891e-16 0)
(-1.42781e-20 -9.87893e-16 0)
(-1.49514e-20 -9.87894e-16 0)
(-1.55112e-20 -9.87895e-16 0)
(-1.59543e-20 -9.87896e-16 0)
(-1.62783e-20 -9.87897e-16 0)
(-1.64813e-20 -9.87899e-16 0)
(-1.65622e-20 -9.879e-16 0)
(-1.65208e-20 -9.87901e-16 0)
(-1.63576e-20 -9.87903e-16 0)
(-1.60741e-20 -9.87904e-16 0)
(-1.56726e-20 -9.87905e-16 0)
(-1.51563e-20 -9.87907e-16 0)
(-1.45296e-20 -9.87908e-16 0)
(-1.37975e-20 -9.87909e-16 0)
(-1.29661e-20 -9.8791e-16 0)
(-1.20423e-20 -9.87911e-16 0)
(-1.10337e-20 -9.87912e-16 0)
(-9.94857e-21 -9.87913e-16 0)
(-8.79592e-21 -9.87914e-16 0)
(-7.58506e-21 -9.87915e-16 0)
(-6.32562e-21 -9.87915e-16 0)
(-5.02744e-21 -9.87916e-16 0)
(-3.70036e-21 -9.87916e-16 0)
(-2.35409e-21 -9.87917e-16 0)
(-9.981e-22 -9.87917e-16 0)
(3.58542e-22 -9.87917e-16 0)
(1.70726e-21 -9.87917e-16 0)
(3.04006e-21 -9.87917e-16 0)
(4.34965e-21 -9.87917e-16 0)
(-8.94037e-22 -9.87883e-16 0)
(-2.66076e-21 -9.87883e-16 0)
(-4.37994e-21 -9.87883e-16 0)
(-6.04235e-21 -9.87884e-16 0)
(-7.63947e-21 -9.87884e-16 0)
(-9.16337e-21 -9.87885e-16 0)
(-1.06066e-20 -9.87886e-16 0)
(-1.1962e-20 -9.87887e-16 0)
(-1.3223e-20 -9.87888e-16 0)
(-1.43831e-20 -9.87889e-16 0)
(-1.54362e-20 -9.8789e-16 0)
(-1.63766e-20 -9.87891e-16 0)
(-1.71988e-20 -9.87892e-16 0)
(-1.78978e-20 -9.87894e-16 0)
(-1.8469e-20 -9.87895e-16 0)
(-1.89084e-20 -9.87897e-16 0)
(-1.92126e-20 -9.87898e-16 0)
(-1.9379e-20 -9.879e-16 0)
(-1.94055e-20 -9.87902e-16 0)
(-1.92911e-20 -9.87903e-16 0)
(-1.9036e-20 -9.87905e-16 0)
(-1.8641e-20 -9.87906e-16 0)
(-1.81085e-20 -9.87908e-16 0)
(-1.74417e-20 -9.87909e-16 0)
(-1.66453e-20 -9.87911e-16 0)
(-1.57251e-20 -9.87912e-16 0)
(-1.46882e-20 -9.87914e-16 0)
(-1.35427e-20 -9.87915e-16 0)
(-1.2298e-20 -9.87916e-16 0)
(-1.09643e-20 -9.87917e-16 0)
(-9.55268e-21 -9.87918e-16 0)
(-8.07481e-21 -9.87919e-16 0)
(-6.54287e-21 -9.8792e-16 0)
(-4.96929e-21 -9.8792e-16 0)
(-3.36654e-21 -9.87921e-16 0)
(-1.74692e-21 -9.87921e-16 0)
(-1.22382e-22 -9.87921e-16 0)
(1.49568e-21 -9.87922e-16 0)
(3.09659e-21 -9.87922e-16 0)
(4.67048e-21 -9.87922e-16 0)
(-1.0068e-21 -9.8788e-16 0)
(-2.99733e-21 -9.8788e-16 0)
(-4.93713e-21 -9.87881e-16 0)
(-6.81742e-21 -9.87881e-16 0)
(-8.62995e-21 -9.87882e-16 0)
(-1.03669e-20 -9.87883e-16 0)
(-1.20208e-20 -9.87883e-16 0)
(-1.35842e-20 -9.87884e-16 0)
(-1.50501e-20 -9.87885e-16 0)
(-1.64112e-20 -9.87887e-16 0)
(-1.76606e-20 -9.87888e-16 0)
(-1.87914e-20 -9.87889e-16 0)
(-1.97968e-20 -9.87891e-16 0)
(-2.06701e-20 -9.87893e-16 0)
(-2.14052e-20 -9.87894e-16 0)
(-2.19959e-20 -9.87896e-16 0)
(-2.24368e-20 -9.87898e-16 0)
(-2.2723e-20 -9.879e-16 0)
(-2.28503e-20 -9.87902e-16 0)
(-2.28154e-20 -9.87903e-16 0)
(-2.26161e-20 -9.87905e-16 0)
(-2.22512e-20 -9.87907e-16 0)
(-2.17211e-20 -9.87909e-16 0)
(-2.10274e-20 -9.87911e-16 0)
(-2.01735e-20 -9.87913e-16 0)
(-1.91642e-20 -9.87915e-16 0)
(-1.80061e-20 -9.87916e-16 0)
(-1.67076e-20 -9.87918e-16 0)
(-1.52786e-20 -9.87919e-16 0)
(-1.37306e-20 -9.87921e-16 0)
(-1.20766e-20 -9.87922e-16 0)
(-1.03307e-20 -9.87923e-16 0)
(-8.50808e-21 -9.87924e-16 0)
(-6.62445e-21 -9.87925e-16 0)
(-4.69609e-21 -9.87925e-16 0)
(-2.73929e-21 -9.87926e-16 0)
(-7.70106e-22 -9.87926e-16 0)
(1.19593e-21 -9.87927e-16 0)
(3.14412e-21 -9.87927e-16 0)
(5.06084e-21 -9.87927e-16 0)
(-1.131e-21 -9.87877e-16 0)
(-3.36823e-21 -9.87877e-16 0)
(-5.5518e-21 -9.87878e-16 0)
(-7.67375e-21 -9.87878e-16 0)
(-9.72648e-21 -9.87879e-16 0)
(-1.17026e-20 -9.8788e-16 0)
(-1.35948e-20 -9.87881e-16 0)
(-1.53958e-20 -9.87882e-16 0)
(-1.7098e-20 -9.87883e-16 0)
(-1.86939e-20 -9.87884e-16 0)
(-2.01754e-20 -9.87886e-16 0)
(-2.15347e-20 -9.87887e-16 0)
(-2.27635e-20 -9.87889e-16 0)
(-2.38535e-20 -9.87891e-16 0)
(-2.47963e-20 -9.87893e-16 0)
(-2.55836e-20 -9.87895e-16 0)
(-2.62074e-20 -9.87897e-16 0)
(-2.66597e-20 -9.87899e-16 0)
(-2.69336e-20 -9.87901e-16 0)
(-2.70224e-20 -9.87904e-16 0)
(-2.69205e-20 -9.87906e-16 0)
(-2.66238e-20 -9.87908e-16 0)
(-2.61291e-20 -9.8791e-16 0)
(-2.54354e-20 -9.87913e-16 0)
(-2.45432e-20 -9.87915e-16 0)
(-2.34553e-20 -9.87917e-16 0)
(-2.21766e-20 -9.87919e-16 0)
(-2.07147e-20 -9.87921e-16 0)
(-1.90793e-20 -9.87923e-16 0)
(-1.72828e-20 -9.87925e-16 0)
(-1.53398e-20 -9.87926e-16 0)
(-1.3267e-20 -9.87928e-16 0)
(-1.10833e-20 -9.87929e-16 0)
(-8.80863e-21 -9.8793e-16 0)
(-6.46447e-21 -9.87931e-16 0)
(-4.07273e-21 -9.87932e-16 0)
(-1.6555e-21 -9.87932e-16 0)
(7.6554e-22 -9.87933e-16 0)
(3.16956e-21 -9.87933e-16 0)
(5.53707e-21 -9.87933e-16 0)
(-1.26558e-21 -9.87874e-16 0)
(-3.77036e-21 -9.87874e-16 0)
(-6.21898e-21 -9.87874e-16 0)
(-8.60479e-21 -9.87875e-16 0)
(-1.09213e-20 -9.87876e-16 0)
(-1.31619e-20 -9.87876e-16 0)
(-1.532e-20 -9.87877e-16 0)
(-1.73885e-20 -9.87879e-16 0)
(-1.93599e-20 -9.8788e-16 0)
(-2.12263e-20 -9.87881e-16 0)
(-2.29793e-20 -9.87883e-16 0)
(-2.46099e-20 -9.87885e-16 0)
(-2.61084e-20 -9.87887e-16 0)
(-2.74648e-20 -9.87889e-16 0)
(-2.86685e-20 -9.87891e-16 0)
(-2.97087e-20 -9.87893e-16 0)
(-3.05742e-20 -9.87896e-16 0)
(-3.12538e-20 -9.87898e-16 0)
(-3.17364e-20 -9.87901e-16 0)
(-3.20112e-20 -9.87903e-16 0)
(-3.20681e-20 -9.87906e-16 0)
(-3.18981e-20 -9.87909e-16 0)
(-3.14934e-20 -9.87912e-16 0)
(-3.08477e-20 -9.87914e-16 0)
(-2.99572e-20 -9.87917e-16 0)
(-2.88203e-20 -9.8792e-16 0)
(-2.74384e-20 -9.87923e-16 0)
(-2.58159e-20 -9.87925e-16 0)
(-2.3961e-20 -9.87928e-16 0)
(-2.18854e-20 -9.8793e-16 0)
(-1.96044e-20 -9.87932e-16 0)
(-1.71371e-20 -9.87934e-16 0)
(-1.45061e-20 -9.87936e-16 0)
(-1.1737e-20 -9.87937e-16 0)
(-8.85783e-21 -9.87938e-16 0)
(-5.89866e-21 -9.87939e-16 0)
(-2.89045e-21 -9.8794e-16 0)
(1.35597e-22 -9.8794e-16 0)
(3.14901e-21 -9.8794e-16 0)
(6.12084e-21 -9.8794e-16 0)
(-1.4089e-21 -9.8787e-16 0)
(-4.19887e-21 -9.8787e-16 0)
(-6.93079e-21 -9.8787e-16 0)
(-9.59988e-21 -9.87871e-16 0)
(-1.22013e-20 -9.87872e-16 0)
(-1.47298e-20 -9.87873e-16 0)
(-1.71797e-20 -9.87874e-16 0)
(-1.9545e-20 -9.87875e-16 0)
(-2.18185e-20 -9.87877e-16 0)
(-2.39926e-20 -9.87878e-16 0)
(-2.60585e-20 -9.8788e-16 0)
(-2.80067e-20 -9.87882e-16 0)
(-2.98266e-20 -9.87884e-16 0)
(-3.15065e-20 -9.87886e-16 0)
(-3.30339e-20 -9.87889e-16 0)
(-3.43951e-20 -9.87891e-16 0)
(-3.55759e-20 -9.87894e-16 0)
(-3.6561e-20 -9.87897e-16 0)
(-3.73348e-20 -9.879e-16 0)
(-3.78813e-20 -9.87903e-16 0)
(-3.81844e-20 -9.87906e-16 0)
(-3.82285e-20 -9.87909e-16 0)
(-3.79988e-20 -9.87913e-16 0)
(-3.74818e-20 -9.87916e-16 0)
(-3.66659e-20 -9.87919e-16 0)
(-3.5542e-20 -9.87923e-16 0)
(-3.41044e-20 -9.87926e-16 0)
(-3.23513e-20 -9.87929e-16 0)
(-3.02853e-20 -9.87932e-16 0)
(-2.79144e-20 -9.87935e-16 0)
(-2.52522e-20 -9.87938e-16 0)
(-2.23183e-20 -9.87941e-16 0)
(-1.91383e-20 -9.87943e-16 0)
(-1.57436e-20 -9.87945e-16 0)
(-1.21709e-20 -9.87947e-16 0)
(-8.46134e-21 -9.87948e-16 0)
(-4.65936e-21 -9.87949e-16 0)
(-8.11101e-22 -9.8795e-16 0)
(3.03707e-21 -9.8795e-16 0)
(6.84026e-21 -9.8795e-16 0)
(-1.55864e-21 -9.87866e-16 0)
(-4.64689e-21 -9.87866e-16 0)
(-7.67596e-21 -9.87866e-16 0)
(-1.06436e-20 -9.87867e-16 0)
(-1.3547e-20 -9.87868e-16 0)
(-1.63831e-20 -9.87869e-16 0)
(-1.9148e-20 -9.8787e-16 0)
(-2.18367e-20 -9.87871e-16 0)
(-2.44435e-20 -9.87873e-16 0)
(-2.69614e-20 -9.87874e-16 0)
(-2.93823e-20 -9.87876e-16 0)
(-3.16965e-20 -9.87878e-16 0)
(-3.38931e-20 -9.8788e-16 0)
(-3.59595e-20 -9.87883e-16 0)
(-3.78815e-20 -9.87886e-16 0)
(-3.96435e-20 -9.87888e-16 0)
(-4.1228e-20 -9.87891e-16 0)
(-4.26159e-20 -9.87895e-16 0)
(-4.37867e-20 -9.87898e-16 0)
(-4.47184e-20 -9.87902e-16 0)
(-4.53881e-20 -9.87905e-16 0)
(-4.57717e-20 -9.87909e-16 0)
(-4.58452e-20 -9.87913e-16 0)
(-4.55846e-20 -9.87917e-16 0)
(-4.49669e-20 -9.87921e-16 0)
(-4.3971e-20 -9.87926e-16 0)
(-4.25785e-20 -9.8793e-16 0)
(-4.07754e-20 -9.87934e-16 0)
(-3.85526e-20 -9.87938e-16 0)
(-3.59079e-20 -9.87942e-16 0)
(-3.2847e-20 -9.87946e-16 0)
(-2.93846e-20 -9.87949e-16 0)
(-2.55456e-20 -9.87953e-16 0)
(-2.13651e-20 -9.87955e-16 0)
(-1.68892e-20 -9.87958e-16 0)
(-1.21735e-20 -9.8796e-16 0)
(-7.28215e-21 -9.87961e-16 0)
(-2.28544e-21 -9.87962e-16 0)
(2.74306e-21 -9.87963e-16 0)
(7.72988e-21 -9.87963e-16 0)
(-1.71179e-21 -9.87861e-16 0)
(-5.10537e-21 -9.87861e-16 0)
(-8.43953e-21 -9.87861e-16 0)
(-1.17151e-20 -9.87862e-16 0)
(-1.49322e-20 -9.87863e-16 0)
(-1.80903e-20 -9.87864e-16 0)
(-2.11877e-20 -9.87865e-16 0)
(-2.42219e-20 -9.87866e-16 0)
(-2.71889e-20 -9.87868e-16 0)
(-3.00833e-20 -9.8787e-16 0)
(-3.28985e-20 -9.87872e-16 0)
(-3.56258e-20 -9.87874e-16 0)
(-3.82549e-20 -9.87876e-16 0)
(-4.07735e-20 -9.87879e-16 0)
(-4.31668e-20 -9.87882e-16 0)
(-4.5418e-20 -9.87885e-16 0)
(-4.75076e-20 -9.87888e-16 0)
(-4.94136e-20 -9.87892e-16 0)
(-5.11111e-20 -9.87895e-16 0)
(-5.25726e-20 -9.87899e-16 0)
(-5.37675e-20 -9.87904e-16 0)
(-5.46631e-20 -9.87908e-16 0)
(-5.52239e-20 -9.87913e-16 0)
(-5.54127e-20 -9.87918e-16 0)
(-5.5191e-20 -9.87923e-16 0)
(-5.45199e-20 -9.87928e-16 0)
(-5.33615e-20 -9.87933e-16 0)
(-5.16803e-20 -9.87939e-16 0)
(-4.94452e-20 -9.87944e-16 0)
(-4.66318e-20 -9.87949e-16 0)
(-4.32251e-20 -9.87954e-16 0)
(-3.92222e-20 -9.87959e-16 0)
(-3.46353e-20 -9.87964e-16 0)
(-2.94944e-20 -9.87968e-16 0)
(-2.38494e-20 -9.87972e-16 0)
(-1.77707e-20 -9.87975e-16 0)
(-1.13494e-20 -9.87977e-16 0)
(-4.6941e-21 -9.87979e-16 0)
(2.07326e-21 -9.87979e-16 0)
(8.82446e-21 -9.87979e-16 0)
(-1.86457e-21 -9.87856e-16 0)
(-5.56309e-21 -9.87856e-16 0)
(-9.20283e-21 -9.87856e-16 0)
(-1.27883e-20 -9.87857e-16 0)
(-1.63232e-20 -9.87858e-16 0)
(-1.981e-20 -9.87859e-16 0)
(-2.32503e-20 -9.8786e-16 0)
(-2.66443e-20 -9.87861e-16 0)
(-2.9991e-20 -9.87863e-16 0)
(-3.32876e-20 -9.87865e-16 0)
(-3.65299e-20 -9.87867e-16 0)
(-3.97116e-20 -9.87869e-16 0)
(-4.28245e-20 -9.87871e-16 0)
(-4.5858e-20 -9.87874e-16 0)
(-4.87987e-20 -9.87877e-16 0)
(-5.16304e-20 -9.8788e-16 0)
(-5.43339e-20 -9.87884e-16 0)
(-5.68859e-20 -9.87887e-16 0)
(-5.92594e-20 -9.87891e-16 0)
(-6.14232e-20 -9.87896e-16 0)
(-6.33412e-20 -9.87901e-16 0)
(-6.49723e-20 -9.87906e-16 0)
(-6.62703e-20 -9.87911e-16 0)
(-6.71837e-20 -9.87917e-16 0)
(-6.76558e-20 -9.87923e-16 0)
(-6.76254e-20 -9.87929e-16 0)
(-6.70272e-20 -9.87936e-16 0)
(-6.57935e-20 -9.87943e-16 0)
(-6.38562e-20 -9.8795e-16 0)
(-6.11497e-20 -9.87957e-16 0)
(-5.7615e-20 -9.87964e-16 0)
(-5.32048e-20 -9.87971e-16 0)
(-4.78897e-20 -9.87977e-16 0)
(-4.16656e-20 -9.87984e-16 0)
(-3.45614e-20 -9.87989e-16 0)
(-2.66462e-20 -9.87994e-16 0)
(-1.80353e-20 -9.87998e-16 0)
(-8.89206e-21 -9.88001e-16 0)
(5.75687e-22 -9.88003e-16 0)
(1.01272e-20 -9.88003e-16 0)
(-2.01258e-21 -9.8785e-16 0)
(-6.00682e-21 -9.8785e-16 0)
(-9.94379e-21 -9.87851e-16 0)
(-1.38322e-20 -9.87851e-16 0)
(-1.76795e-20 -9.87852e-16 0)
(-2.14923e-20 -9.87853e-16 0)
(-2.52756e-20 -9.87854e-16 0)
(-2.90334e-20 -9.87855e-16 0)
(-3.27682e-20 -9.87857e-16 0)
(-3.64812e-20 -9.87859e-16 0)
(-4.01717e-20 -9.87861e-16 0)
(-4.38375e-20 -9.87863e-16 0)
(-4.74739e-20 -9.87865e-16 0)
(-5.10742e-20 -9.87868e-16 0)
(-5.46289e-20 -9.87871e-16 0)
(-5.81251e-20 -9.87874e-16 0)
(-6.15467e-20 -9.87878e-16 0)
(-6.48733e-20 -9.87882e-16 0)
(-6.80794e-20 -9.87886e-16 0)
(-7.11344e-20 -9.87891e-16 0)
(-7.4001e-20 -9.87896e-16 0)
(-7.66347e-20 -9.87902e-16 0)
(-7.8983e-20 -9.87908e-16 0)
(-8.09839e-20 -9.87914e-16 0)
(-8.2565e-20 -9.87921e-16 0)
(-8.3643e-20 -9.87929e-16 0)
(-8.41226e-20 -9.87937e-16 0)
(-8.38963e-20 -9.87945e-16 0)
(-8.28448e-20 -9.87954e-16 0)
(-8.08384e-20 -9.87963e-16 0)
(-7.77406e-20 -9.87973e-16 0)
(-7.34132e-20 -9.87983e-16 0)
(-6.77254e-20 -9.87993e-16 0)
(-6.05668e-20 -9.88003e-16 0)
(-5.18655e-20 -9.88012e-16 0)
(-4.16117e-20 -9.8802e-16 0)
(-2.98848e-20 -9.88028e-16 0)
(-1.6882e-20 -9.88033e-16 0)
(-2.93937e-21 -9.88037e-16 0)
(1.14653e-20 -9.88038e-16 0)
(-2.15092e-21 -9.87844e-16 0)
(-6.42181e-21 -9.87844e-16 0)
(-1.06377e-20 -9.87845e-16 0)
(-1.48116e-20 -9.87845e-16 0)
(-1.89554e-20 -9.87846e-16 0)
(-2.30796e-20 -9.87847e-16 0)
(-2.71936e-20 -9.87848e-16 0)
(-3.13056e-20 -9.87849e-16 0)
(-3.54226e-20 -9.8785e-16 0)
(-3.95503e-20 -9.87852e-16 0)
(-4.3693e-20 -9.87854e-16 0)
(-4.78537e-20 -9.87856e-16 0)
(-5.20335e-20 -9.87858e-16 0)
(-5.62316e-20 -9.87861e-16 0)
(-6.04448e-20 -9.87864e-16 0)
(-6.46672e-20 -9.87867e-16 0)
(-6.88898e-20 -9.87871e-16 0)
(-7.30995e-20 -9.87874e-16 0)
(-7.72785e-20 -9.87879e-16 0)
(-8.14034e-20 -9.87884e-16 0)
(-8.54438e-20 -9.87889e-16 0)
(-8.93612e-20 -9.87895e-16 0)
(-9.31068e-20 -9.87901e-16 0)
(-9.66201e-20 -9.87908e-16 0)
(-9.98257e-20 -9.87916e-16 0)
(-1.02631e-19 -9.87925e-16 0)
(-1.04923e-19 -9.87934e-16 0)
(-1.06562e-19 -9.87944e-16 0)
(-1.07383e-19 -9.87955e-16 0)
(-1.07183e-19 -9.87967e-16 0)
(-1.05725e-19 -9.8798e-16 0)
(-1.0273e-19 -9.87994e-16 0)
(-9.78797e-20 -9.88009e-16 0)
(-9.08218e-20 -9.88024e-16 0)
(-8.1191e-20 -9.88039e-16 0)
(-6.86458e-20 -9.88054e-16 0)
(-5.29357e-20 -9.88068e-16 0)
(-3.40087e-20 -9.88081e-16 0)
(-1.21652e-20 -9.8809e-16 0)
(1.17538e-20 -9.88094e-16 0)
(-2.27441e-21 -9.87838e-16 0)
(-6.7925e-21 -9.87838e-16 0)
(-1.12583e-20 -9.87838e-16 0)
(-1.56892e-20 -9.87839e-16 0)
(-2.01014e-20 -9.87839e-16 0)
(-2.45098e-20 -9.8784e-16 0)
(-2.8928e-20 -9.87841e-16 0)
(-3.33688e-20 -9.87842e-16 0)
(-3.78441e-20 -9.87843e-16 0)
(-4.23648e-20 -9.87845e-16 0)
(-4.69412e-20 -9.87846e-16 0)
(-5.15825e-20 -9.87848e-16 0)
(-5.62969e-20 -9.8785e-16 0)
(-6.10914e-20 -9.87853e-16 0)
(-6.59719e-20 -9.87855e-16 0)
(-7.09424e-20 -9.87858e-16 0)
(-7.6005e-20 -9.87862e-16 0)
(-8.11591e-20 -9.87865e-16 0)
(-8.64009e-20 -9.87869e-16 0)
(-9.17225e-20 -9.87874e-16 0)
(-9.71107e-20 -9.87879e-16 0)
(-1.02546e-19 -9.87885e-16 0)
(-1.07999e-19 -9.87892e-16 0)
(-1.13431e-19 -9.87899e-16 0)
(-1.18789e-19 -9.87907e-16 0)
(-1.24002e-19 -9.87916e-16 0)
(-1.28974e-19 -9.87926e-16 0)
(-1.3358e-19 -9.87938e-16 0)
(-1.37657e-19 -9.87951e-16 0)
(-1.40987e-19 -9.87965e-16 0)
(-1.43281e-19 -9.87981e-16 0)
(-1.44158e-19 -9.87999e-16 0)
(-1.43106e-19 -9.88019e-16 0)
(-1.39445e-19 -9.88041e-16 0)
(-1.32274e-19 -9.88066e-16 0)
(-1.2042e-19 -9.88093e-16 0)
(-1.02419e-19 -9.88121e-16 0)
(-7.65832e-20 -9.88151e-16 0)
(-4.12981e-20 -9.8818e-16 0)
(4.16471e-21 -9.88203e-16 0)
(-2.37791e-21 -9.87831e-16 0)
(-7.1034e-21 -9.87831e-16 0)
(-1.17794e-20 -9.87831e-16 0)
(-1.64276e-20 -9.87832e-16 0)
(-2.10681e-20 -9.87832e-16 0)
(-2.57197e-20 -9.87833e-16 0)
(-3.04004e-20 -9.87834e-16 0)
(-3.51274e-20 -9.87834e-16 0)
(-3.99176e-20 -9.87835e-16 0)
(-4.47871e-20 -9.87837e-16 0)
(-4.97523e-20 -9.87838e-16 0)
(-5.48292e-20 -9.8784e-16 0)
(-6.00337e-20 -9.87841e-16 0)
(-6.53818e-20 -9.87843e-16 0)
(-7.08897e-20 -9.87846e-16 0)
(-7.65733e-20 -9.87848e-16 0)
(-8.24486e-20 -9.87851e-16 0)
(-8.85313e-20 -9.87854e-16 0)
(-9.48367e-20 -9.87858e-16 0)
(-1.01379e-19 -9.87862e-16 0)
(-1.08171e-19 -9.87867e-16 0)
(-1.15225e-19 -9.87872e-16 0)
(-1.22548e-19 -9.87878e-16 0)
(-1.30143e-19 -9.87885e-16 0)
(-1.3801e-19 -9.87892e-16 0)
(-1.46137e-19 -9.87901e-16 0)
(-1.54504e-19 -9.87911e-16 0)
(-1.63074e-19 -9.87923e-16 0)
(-1.71791e-19 -9.87936e-16 0)
(-1.80569e-19 -9.87951e-16 0)
(-1.89282e-19 -9.87968e-16 0)
(-1.97736e-19 -9.87988e-16 0)
(-2.05626e-19 -9.88012e-16 0)
(-2.12448e-19 -9.8804e-16 0)
(-2.17332e-19 -9.88073e-16 0)
(-2.18717e-19 -9.88113e-16 0)
(-2.13714e-19 -9.88163e-16 0)
(-1.96921e-19 -9.88227e-16 0)
(-1.58176e-19 -9.88312e-16 0)
(-7.84424e-20 -1.04799e-15 0)
(-2.45669e-21 -9.87824e-16 0)
(-7.3402e-21 -9.87824e-16 0)
(-1.2177e-20 -9.87824e-16 0)
(-1.6992e-20 -9.87824e-16 0)
(-2.18089e-20 -9.87825e-16 0)
(-2.665e-20 -9.87825e-16 0)
(-3.15369e-20 -9.87826e-16 0)
(-3.64907e-20 -9.87826e-16 0)
(-4.15324e-20 -9.87827e-16 0)
(-4.66833e-20 -9.87828e-16 0)
(-5.19651e-20 -9.87829e-16 0)
(-5.73999e-20 -9.8783e-16 0)
(-6.30112e-20 -9.87831e-16 0)
(-6.88235e-20 -9.87833e-16 0)
(-7.48627e-20 -9.87835e-16 0)
(-8.11569e-20 -9.87837e-16 0)
(-8.77361e-20 -9.87839e-16 0)
(-9.46329e-20 -9.87841e-16 0)
(-1.01883e-19 -9.87844e-16 0)
(-1.09524e-19 -9.87847e-16 0)
(-1.176e-19 -9.87851e-16 0)
(-1.26157e-19 -9.87855e-16 0)
(-1.35247e-19 -9.8786e-16 0)
(-1.44927e-19 -9.87865e-16 0)
(-1.55259e-19 -9.87872e-16 0)
(-1.66316e-19 -9.87879e-16 0)
(-1.78176e-19 -9.87887e-16 0)
(-1.90933e-19 -9.87897e-16 0)
(-2.04702e-19 -9.87908e-16 0)
(-2.19634e-19 -9.87921e-16 0)
(-2.35944e-19 -9.87937e-16 0)
(-2.53969e-19 -9.87954e-16 0)
(-2.74278e-19 -9.87975e-16 0)
(-2.97876e-19 -9.87999e-16 0)
(-3.2658e-19 -9.88026e-16 0)
(-3.63719e-19 -9.88057e-16 0)
(-4.15378e-19 -9.88092e-16 0)
(-4.92633e-19 -9.88131e-16 0)
(-6.57192e-19 -9.88172e-16 0)
(-5.91207e-08 -8.01099e-12 0)
(-2.50676e-21 -9.87817e-16 0)
(-7.49088e-21 -9.87817e-16 0)
(-1.24305e-20 -9.87817e-16 0)
(-1.73531e-20 -9.87817e-16 0)
(-2.22848e-20 -9.87817e-16 0)
(-2.72504e-20 -9.87817e-16 0)
(-3.22743e-20 -9.87818e-16 0)
(-3.73804e-20 -9.87818e-16 0)
(-4.2593e-20 -9.87819e-16 0)
(-4.79369e-20 -9.87819e-16 0)
(-5.34379e-20 -9.8782e-16 0)
(-5.91231e-20 -9.8782e-16 0)
(-6.50213e-20 -9.87821e-16 0)
(-7.11637e-20 -9.87822e-16 0)
(-7.7584e-20 -9.87823e-16 0)
(-8.43195e-20 -9.87824e-16 0)
(-9.14113e-20 -9.87825e-16 0)
(-9.89055e-20 -9.87827e-16 0)
(-1.06854e-19 -9.87829e-16 0)
(-1.15315e-19 -9.8783e-16 0)
(-1.24356e-19 -9.87833e-16 0)
(-1.34053e-19 -9.87835e-16 0)
(-1.44495e-19 -9.87838e-16 0)
(-1.55782e-19 -9.87842e-16 0)
(-1.68032e-19 -9.87846e-16 0)
(-1.81379e-19 -9.8785e-16 0)
(-1.95975e-19 -9.87856e-16 0)
(-2.1199e-19 -9.87862e-16 0)
(-2.29606e-19 -9.87869e-16 0)
(-2.49003e-19 -9.87878e-16 0)
(-2.70337e-19 -9.87888e-16 0)
(-2.93679e-19 -9.879e-16 0)
(-3.18923e-19 -9.87914e-16 0)
(-3.45598e-19 -9.8793e-16 0)
(-3.72552e-19 -9.87949e-16 0)
(-3.97388e-19 -9.87969e-16 0)
(-4.15495e-19 -9.87991e-16 0)
(-4.18391e-19 -9.88011e-16 0)
(-3.10388e-15 -9.88027e-16 0)
(-2.17959e-06 -5.01012e-09 0)
(-2.52523e-21 -9.8781e-16 0)
(-7.54669e-21 -9.8781e-16 0)
(-1.25251e-20 -9.8781e-16 0)
(-1.74895e-20 -9.8781e-16 0)
(-2.2467e-20 -9.8781e-16 0)
(-2.74841e-20 -9.8781e-16 0)
(-3.25663e-20 -9.8781e-16 0)
(-3.77392e-20 -9.8781e-16 0)
(-4.30288e-20 -9.8781e-16 0)
(-4.84618e-20 -9.8781e-16 0)
(-5.4066e-20 -9.8781e-16 0)
(-5.9871e-20 -9.8781e-16 0)
(-6.59084e-20 -9.8781e-16 0)
(-7.22127e-20 -9.8781e-16 0)
(-7.88215e-20 -9.8781e-16 0)
(-8.57767e-20 -9.87811e-16 0)
(-9.31249e-20 -9.87811e-16 0)
(-1.00919e-19 -9.87811e-16 0)
(-1.09217e-19 -9.87812e-16 0)
(-1.1809e-19 -9.87812e-16 0)
(-1.27614e-19 -9.87813e-16 0)
(-1.37882e-19 -9.87814e-16 0)
(-1.49e-19 -9.87814e-16 0)
(-1.61094e-19 -9.87815e-16 0)
(-1.74314e-19 -9.87816e-16 0)
(-1.88838e-19 -9.87818e-16 0)
(-2.04878e-19 -9.87819e-16 0)
(-2.22692e-19 -9.87821e-16 0)
(-2.42585e-19 -9.87822e-16 0)
(-2.64927e-19 -9.87825e-16 0)
(-2.9015e-19 -9.87828e-16 0)
(-3.18753e-19 -9.87831e-16 0)
(-3.51291e-19 -9.87836e-16 0)
(-3.8832e-19 -9.87844e-16 0)
(-4.30306e-19 -9.87855e-16 0)
(-4.77401e-19 -9.87872e-16 0)
(-5.29031e-19 -9.87899e-16 0)
(-5.83117e-19 -9.87945e-16 0)
(-4.18952e-12 -1.21745e-14 0)
(-9.60099e-07 -4.58122e-05 0)
(-2.51052e-21 -9.87802e-16 0)
(-7.50289e-21 -9.87802e-16 0)
(-1.24529e-20 -9.87802e-16 0)
(-1.73895e-20 -9.87802e-16 0)
(-2.23402e-20 -9.87802e-16 0)
(-2.73311e-20 -9.87802e-16 0)
(-3.23881e-20 -9.87801e-16 0)
(-3.75366e-20 -9.87801e-16 0)
(-4.28025e-20 -9.87801e-16 0)
(-4.82123e-20 -9.878e-16 0)
(-5.37938e-20 -9.878e-16 0)
(-5.95763e-20 -9.878e-16 0)
(-6.5591e-20 -9.87799e-16 0)
(-7.18718e-20 -9.87799e-16 0)
(-7.84557e-20 -9.87798e-16 0)
(-8.53832e-20 -9.87797e-16 0)
(-9.26995e-20 -9.87797e-16 0)
(-1.00455e-19 -9.87796e-16 0)
(-1.08707e-19 -9.87795e-16 0)
(-1.17518e-19 -9.87794e-16 0)
(-1.26964e-19 -9.87793e-16 0)
(-1.37127e-19 -9.87791e-16 0)
(-1.48107e-19 -9.8779e-16 0)
(-1.60018e-19 -9.87788e-16 0)
(-1.72998e-19 -9.87786e-16 0)
(-1.87212e-19 -9.87784e-16 0)
(-2.02866e-19 -9.87781e-16 0)
(-2.20219e-19 -9.87777e-16 0)