/*--------------------------------*- C++ -*----------------------------------*\
  =========                 |
  \\      /  F ield         | OpenFOAM: The Open Source CFD Toolbox
   \\    /   O peration     | Website:  https://openfoam.org
    \\  /    A nd           | Version:  10
     \\/     M anipulation  |
\*---------------------------------------------------------------------------*/
FoamFile
{
    format      ascii;
    class       volVectorField;
    location    "0.57";
    object      Ub;
}
// * * * * * * * * * * * * * * * * * * * * * * * * * * * * * * * * * * * * * //

dimensions      [0 1 -1 0 0 0 0];

internalField   nonuniform List<vector> 
12225
(
(0.00200583 -0.00041075 0)
(0.00571797 -0.00036482 0)
(0.00875983 -0.000298829 0)
(0.0110862 -0.000232664 0)
(0.0127907 -0.000176562 0)
(0.0140142 -0.000133431 0)
(0.0148924 -0.000102505 0)
(0.0155364 -8.18383e-05 0)
(0.0160319 -6.95495e-05 0)
(0.0164441 -6.43488e-05 0)
(0.0168253 -6.57758e-05 0)
(0.0172221 -7.44701e-05 0)
(0.0176853 -9.28017e-05 0)
(0.0182832 -0.000126561 0)
(0.0191328 -0.00018998 0)
(0.0204858 -0.000323788 0)
(0.0230691 -0.000681466 0)
(0.0300239 -0.00211186 0)
(0.0021997 -0.00130192 0)
(0.0062641 -0.00115454 0)
(0.00958254 -0.000943819 0)
(0.0121113 -0.000733338 0)
(0.0139597 -0.000555452 0)
(0.0152857 -0.000419071 0)
(0.0162393 -0.000321509 0)
(0.0169418 -0.000256421 0)
(0.0174858 -0.000217745 0)
(0.0179407 -0.000201319 0)
(0.0183618 -0.000205591 0)
(0.0187975 -0.000232422 0)
(0.0192991 -0.000288934 0)
(0.019934 -0.000392419 0)
(0.0208107 -0.000584388 0)
(0.0221359 -0.000977252 0)
(0.0243286 -0.00194464 0)
(0.0277157 -0.0050977 0)
(0.00232454 -0.00232595 0)
(0.00660656 -0.00205704 0)
(0.0100763 -0.00167551 0)
(0.0126958 -0.00129685 0)
(0.0145915 -0.000978597 0)
(0.0159379 -0.000735727 0)
(0.0168964 -0.000562633 0)
(0.0175955 -0.000447458 0)
(0.0181317 -0.000379063 0)
(0.0185764 -0.00034978 0)
(0.018985 -0.000356559 0)
(0.0194051 -0.000402184 0)
(0.0198848 -0.000498129 0)
(0.020483 -0.000671898 0)
(0.0212835 -0.000986639 0)
(0.0224092 -0.00159796 0)
(0.0239626 -0.00293151 0)
(0.0253439 -0.00620854 0)
(0.00244715 -0.00348239 0)
(0.00693634 -0.00306815 0)
(0.0105363 -0.00248635 0)
(0.0132194 -0.00191397 0)
(0.0151351 -0.00143651 0)
(0.0164773 -0.00107443 0)
(0.0174199 -0.000817639 0)
(0.0180983 -0.000647346 0)
(0.0186117 -0.000546265 0)
(0.0190325 -0.000502474 0)
(0.0194152 -0.000510844 0)
(0.0198049 -0.000574441 0)
(0.020244 -0.000707883 0)
(0.0207783 -0.000945625 0)
(0.0214599 -0.00136202 0)
(0.0223277 -0.00211944 0)
(0.023287 -0.00357345 0)
(0.0236202 -0.00638575 0)
(0.00258422 -0.00478839 0)
(0.00729846 -0.0041978 0)
(0.0110263 -0.00337898 0)
(0.0137575 -0.00258274 0)
(0.0156731 -0.00192516 0)
(0.0169917 -0.00143054 0)
(0.0179017 -0.00108197 0)
(0.0185454 -0.000851795 0)
(0.0190243 -0.000715256 0)
(0.0194107 -0.000655243 0)
(0.0197572 -0.000663766 0)
(0.0201047 -0.000743195 0)
(0.0204883 -0.000909406 0)
(0.0209386 -0.0011993 0)
(0.0214758 -0.00168669 0)
(0.0220761 -0.0025116 0)
(0.0225621 -0.00391219 0)
(0.0223631 -0.00613829 0)
(0.00274792 -0.00627092 0)
(0.00772361 -0.00546166 0)
(0.0115852 -0.00435815 0)
(0.0143508 -0.00330129 0)
(0.0162453 -0.00243972 0)
(0.0175195 -0.00179844 0)
(0.018379 -0.00135017 0)
(0.0189733 -0.00105577 0)
(0.0194056 -0.000881309 0)
(0.019747 -0.00080335 0)
(0.020047 -0.000810068 0)
(0.0203415 -0.000901861 0)
(0.0206567 -0.00109355 0)
(0.0210085 -0.00141965 0)
(0.021391 -0.00194359 0)
(0.0217446 -0.00276741 0)
(0.0218846 -0.00401718 0)
(0.0214267 -0.00571283 0)
(0.00295171 -0.00796838 0)
(0.00824382 -0.0068808 0)
(0.0122498 -0.00542905 0)
(0.0150331 -0.00406584 0)
(0.0168809 -0.00297293 0)
(0.0180859 -0.00217025 0)
(0.0188739 -0.00161487 0)
(0.019402 -0.00125266 0)
(0.0197742 -0.00103838 0)
(0.0200592 -0.000940922 0)
(0.0203024 -0.000943478 0)
(0.0205335 -0.00104304 0)
(0.0207702 -0.00125099 0)
(0.0210151 -0.0015953 0)
(0.0212454 -0.00212284 0)
(0.0213888 -0.00289494 0)
(0.0212903 -0.00395456 0)
(0.020717 -0.00522253 0)
(0.00321349 -0.00993519 0)
(0.00889965 -0.00848238 0)
(0.0130626 -0.00659586 0)
(0.0158398 -0.00486886 0)
(0.0176071 -0.0035134 0)
(0.0187113 -0.00253455 0)
(0.0194026 -0.0018659 0)
(0.019845 -0.00143367 0)
(0.0201419 -0.00117871 0)
(0.0203582 -0.00106069 0)
(0.020534 -0.00105662 0)
(0.0206926 -0.00115867 0)
(0.0208433 -0.00137272 0)
(0.0209792 -0.00171742 0)
(0.0210687 -0.00222107 0)
(0.0210429 -0.00291012 0)
(0.0207875 -0.00377672 0)
(0.0201734 -0.0047163 0)
(0.00355935 -0.0122497 0)
(0.00974757 -0.0103007 0)
(0.0140782 -0.00785922 0)
(0.0168118 -0.00569613 0)
(0.0184517 -0.00404347 0)
(0.0194148 -0.00287492 0)
(0.0199783 -0.00208938 0)
(0.020312 -0.00158726 0)
(0.0205166 -0.00129247 0)
(0.0206512 -0.00115384 0)
(0.0207493 -0.00114107 0)
(0.0208275 -0.0012403 0)
(0.0208881 -0.00145057 0)
(0.0209177 -0.00178006 0)
(0.0208832 -0.00223989 0)
(0.0207271 -0.00283119 0)
(0.020373 -0.00352117 0)
(0.0197558 -0.00421346 0)
(0.00402975 -0.0150279 0)
(0.010871 -0.0123776 0)
(0.0153703 -0.00921152 0)
(0.0179991 -0.00652214 0)
(0.0194453 -0.00453596 0)
(0.0202142 -0.00316804 0)
(0.0206119 -0.00226656 0)
(0.0208102 -0.0016985 0)
(0.0209037 -0.00136745 0)
(0.020943 -0.00120992 0)
(0.0209538 -0.00118743 0)
(0.0209456 -0.00127942 0)
(0.0209147 -0.00147753 0)
(0.0208447 -0.00177993 0)
(0.020705 -0.00218403 0)
(0.0204521 -0.00267536 0)
(0.0200387 -0.00321315 0)
(0.0194368 -0.00372025 0)
(0.00469087 -0.018448 0)
(0.012399 -0.0147609 0)
(0.0170418 -0.0106275 0)
(0.0194633 -0.00730246 0)
(0.0206202 -0.00494963 0)
(0.0211259 -0.00338119 0)
(0.0213112 -0.00237264 0)
(0.0213438 -0.00174851 0)
(0.0213059 -0.00138886 0)
(0.0212364 -0.00121687 0)
(0.0211514 -0.00118558 0)
(0.0210527 -0.00126772 0)
(0.020932 -0.00144789 0)
(0.0207714 -0.00171593 0)
(0.020545 -0.00205972 0)
(0.0202219 -0.00245715 0)
(0.0197755 -0.00286885 0)
(0.0191969 -0.00323741 0)
(0.00558929 -0.0223796 0)
(0.014393 -0.0172568 0)
(0.0190935 -0.0119393 0)
(0.0211661 -0.0079227 0)
(0.0219287 -0.00521442 0)
(0.0221072 -0.00347327 0)
(0.0220442 -0.00238381 0)
(0.021891 -0.00172345 0)
(0.021711 -0.00134866 0)
(0.0215279 -0.00117029 0)
(0.0213466 -0.00113405 0)
(0.0211615 -0.00120709 0)
(0.0209601 -0.00136861 0)
(0.0207243 -0.00160267 0)
(0.0204323 -0.00189184 0)
(0.0200623 -0.00221177 0)
(0.0195992 -0.00252813 0)
(0.0190427 -0.002799 0)
(0.00684187 -0.0274462 0)
(0.0170401 -0.0200324 0)
(0.021616 -0.0131257 0)
(0.0231217 -0.00832401 0)
(0.0233481 -0.00527747 0)
(0.0231213 -0.00340417 0)
(0.0227694 -0.00227053 0)
(0.0224101 -0.0016013 0)
(0.0220784 -0.00122998 0)
(0.0217783 -0.00105698 0)
(0.0215014 -0.00102244 0)
(0.0212342 -0.00108951 0)
(0.0209601 -0.00123378 0)
(0.0206607 -0.00143597 0)
(0.0203177 -0.00167656 0)
(0.0199158 -0.00193221 0)
(0.019447 -0.00217476 0)
(0.0189149 -0.00237406 0)
(0.00909699 -0.0353905 0)
(0.0215026 -0.0234534 0)
(0.0254425 -0.0140993 0)
(0.0258468 -0.00835004 0)
(0.0252039 -0.00500513 0)
(0.0243856 -0.0030723 0)
(0.0236412 -0.00195652 0)
(0.0230159 -0.00132353 0)
(0.0224967 -0.000986501 0)
(0.0220573 -0.000838929 0)
(0.0216716 -0.000818119 0)
(0.021315 -0.000885404 0)
(0.020966 -0.00101483 0)
(0.0206051 -0.00118611 0)
(0.0202167 -0.0013802 0)
(0.0197902 -0.00157698 0)
(0.0193216 -0.00175522 0)
(0.0188155 -0.00189476 0)
(0.0136993 -0.0493119 0)
(0.0297722 -0.0269557 0)
(0.0314387 -0.013987 0)
(0.0296151 -0.00740783 0)
(0.0275539 -0.00403766 0)
(0.025891 -0.00225717 0)
(0.0246339 -0.00130022 0)
(0.0236836 -0.000794524 0)
(0.0229474 -0.000549933 0)
(0.0223542 -0.000464125 0)
(0.0218519 -0.000479128 0)
(0.0214029 -0.000559874 0)
(0.0209796 -0.000682904 0)
(0.0205618 -0.000830195 0)
(0.0201354 -0.000985767 0)
(0.0196918 -0.00113438 0)
(0.0192285 -0.00126172 0)
(0.0187488 -0.00135568 0)
(0.0248822 -0.0782593 0)
(0.047198 -0.0264617 0)
(0.0408497 -0.0102226 0)
(0.0344794 -0.00426526 0)
(0.0302307 -0.00177362 0)
(0.0274821 -0.000644406 0)
(0.0256443 -0.000118888 0)
(0.0243502 0.000105005 0)
(0.0233886 0.000165478 0)
(0.0226353 0.000132889 0)
(0.0220142 4.58147e-05 0)
(0.0214755 -7.26632e-05 0)
(0.0209856 -0.000206965 0)
(0.0205215 -0.00034527 0)
(0.0200683 -0.000477208 0)
(0.0196172 -0.000593462 0)
(0.0191647 -0.000686338 0)
(0.0187115 -0.000750148 0)
(0.0594644 0.00164832 0)
(0.0910949 0.00396087 0)
(0.0534345 0.00344389 0)
(0.0392201 0.00288567 0)
(0.0324908 0.00244533 0)
(0.0287326 0.00207898 0)
(0.0263824 0.00176648 0)
(0.0247919 0.00148954 0)
(0.023645 0.00123823 0)
(0.0227696 0.00100795 0)
(0.0220648 0.000796858 0)
(0.0214684 0.000604693 0)
(0.0209403 0.000432298 0)
(0.0204548 0.000281111 0)
(0.0199949 0.000153277 0)
(0.0195509 5.1023e-05 0)
(0.0191174 -2.42109e-05 0)
(0.0186926 -7.20299e-05 0)
(0.0204993 0.0770816 0)
(0.0405578 0.0327828 0)
(0.0374871 0.0172132 0)
(0.0327469 0.0105248 0)
(0.0291727 0.0071417 0)
(0.0266998 0.00519666 0)
(0.0249755 0.00396264 0)
(0.0237326 0.00311843 0)
(0.0227988 0.00250668 0)
(0.0220656 0.00204414 0)
(0.0214634 0.00168413 0)
(0.0209473 0.0013993 0)
(0.0204873 0.00117307 0)
(0.0200639 0.000995054 0)
(0.0196641 0.000858527 0)
(0.0192796 0.000758754 0)
(0.0189053 0.00069195 0)
(0.0185382 0.000654642 0)
(0.00786032 0.0412421 0)
(0.0188203 0.0286011 0)
(0.0227408 0.019268 0)
(0.0235437 0.0133387 0)
(0.023256 0.00959456 0)
(0.0226752 0.00715916 0)
(0.0220765 0.00551444 0)
(0.021539 0.00436319 0)
(0.0210731 0.00353234 0)
(0.0206683 0.00291833 0)
(0.0203098 0.00245729 0)
(0.0199842 0.00210864 0)
(0.0196807 0.00184586 0)
(0.0193914 0.00165102 0)
(0.0191104 0.00151158 0)
(0.0188339 0.00141832 0)
(0.0185592 0.00136408 0)
(0.0182843 0.00134295 0)
(0.00431249 0.0252144 0)
(0.0113268 0.0208808 0)
(0.0154836 0.0162484 0)
(0.0176634 0.0124437 0)
(0.0187262 0.00957404 0)
(0.0192058 0.00746646 0)
(0.0193897 0.00592336 0)
(0.0194244 0.00478648 0)
(0.0193828 0.00394159 0)
(0.0193004 0.0033092 0)
(0.0191946 0.00283455 0)
(0.0190736 0.00247976 0)
(0.0189411 0.00221836 0)
(0.018799 0.00203152 0)
(0.0186479 0.0019055 0)
(0.0184876 0.00182995 0)
(0.018318 0.00179676 0)
(0.0181383 0.00179933 0)
(0.00298714 0.0178339 0)
(0.00819779 0.01571 0)
(0.0119046 0.013041 0)
(0.0143314 0.010543 0)
(0.0158658 0.00846062 0)
(0.0168272 0.00681228 0)
(0.0174312 0.0055373 0)
(0.017812 0.00456054 0)
(0.0180511 0.00381529 0)
(0.0181973 0.00324862 0)
(0.0182805 0.00282054 0)
(0.0183191 0.0025015 0)
(0.0183244 0.00226977 0)
(0.0183038 0.00210934 0)
(0.0182618 0.00200822 0)
(0.0182013 0.00195721 0)
(0.0181237 0.00194901 0)
(0.0180298 0.00197752 0)
(0.00232769 0.0131627 0)
(0.00653879 0.0119524 0)
(0.00982191 0.010292 0)
(0.0122196 0.00860915 0)
(0.0139184 0.00711126 0)
(0.0151116 0.00586249 0)
(0.0159524 0.00485735 0)
(0.0165501 0.00406422 0)
(0.0169794 0.00344636 0)
(0.0172904 0.00297043 0)
(0.0175165 0.00260898 0)
(0.0176807 0.00234054 0)
(0.0177982 0.0021487 0)
(0.0178797 0.0020211 0)
(0.0179321 0.00194836 0)
(0.0179598 0.00192328 0)
(0.0179651 0.00194009 0)
(0.0179487 0.00199383 0)
(0.00195229 0.00988861 0)
(0.00555791 0.00913315 0)
(0.00851849 0.00804122 0)
(0.0108211 0.00687742 0)
(0.012562 0.00579535 0)
(0.0138636 0.00486039 0)
(0.0148367 0.00408627 0)
(0.0155685 0.00346221 0)
(0.016124 0.0029686 0)
(0.0165504 0.00258484 0)
(0.0168814 0.00229259 0)
(0.0171414 0.00207679 0)
(0.0173476 0.00192565 0)
(0.0175124 0.00183024 0)
(0.0176444 0.0017839 0)
(0.0177491 0.0017817 0)
(0.0178296 0.00181994 0)
(0.0178868 0.00189552 0)
(0.00171722 0.0074439 0)
(0.0049287 0.0069471 0)
(0.00765039 0.00620441 0)
(0.0098519 0.00538626 0)
(0.0115855 0.00460285 0)
(0.0129336 0.00390901 0)
(0.0139791 0.00332304 0)
(0.0147929 0.00284346 0)
(0.0154313 0.0024601 0)
(0.0159375 0.00216029 0)
(0.0163443 0.00193191 0)
(0.016676 0.00176465 0)
(0.0169509 0.00165033 0)
(0.0171824 0.00158285 0)
(0.0173803 0.00155793 0)
(0.0175512 0.00157284 0)
(0.0176987 0.00162601 0)
(0.0178239 0.0017166 0)
(0.00155868 0.00554264 0)
(0.00449711 0.00520797 0)
(0.00703855 0.00469577 0)
(0.0091475 0.00411879 0)
(0.0108536 0.00355511 0)
(0.0122156 0.00304732 0)
(0.0132982 0.00261255 0)
(0.0141607 0.00225302 0)
(0.0148524 0.00196363 0)
(0.0154131 0.00173661 0)
(0.0158738 0.00156403 0)
(0.0162585 0.00143894 0)
(0.0165858 0.00135586 0)
(0.0168699 0.00131082 0)
(0.0171215 0.00130143 0)
(0.0173483 0.00132672 0)
(0.0175553 0.00138713 0)
(0.0177439 0.0014844 0)
(0.00144428 0.00402414 0)
(0.00418161 0.00379873 0)
(0.00658136 0.00344769 0)
(0.00860726 0.0030461 0)
(0.0102765 0.00264835 0)
(0.0116335 0.00228584 0)
(0.0127312 0.00197259 0)
(0.0136202 0.0017118 0)
(0.0143447 0.00150104 0)
(0.0149414 0.0013356 0)
(0.0154396 0.00121037 0)
(0.0158629 0.00112076 0)
(0.0162297 0.0010632 0)
(0.0165546 0.00103529 0)
(0.0168492 0.00103589 0)
(0.0171225 0.00106521 0)
(0.0173808 0.001125 0)
(0.0176284 0.00121887 0)
(0.00135534 0.00279052 0)
(0.00393346 0.00264284 0)
(0.00621458 0.00240969 0)
(0.00816316 0.00214007 0)
(0.00978936 0.0018705 0)
(0.0111285 0.00162293 0)
(0.0122255 0.00140772 0)
(0.013125 0.00122785 0)
(0.0138671 0.00108227 0)
(0.0144858 0.000968202 0)
(0.0150092 0.000882424 0)
(0.0154598 0.000822052 0)
(0.0158559 0.000784867 0)
(0.0162123 0.000769508 0)
(0.016541 0.000775596 0)
(0.016852 0.000803886 0)
(0.0171534 0.000856515 0)
(0.0174519 0.000937443 0)
(0.00127859 0.00177882 0)
(0.00371692 0.00168866 0)
(0.00588821 0.00154469 0)
(0.0077582 0.00137691 0)
(0.00933296 0.00120811 0)
(0.0106419 0.00105232 0)
(0.0117244 0.000916456 0)
(0.0126205 0.000802735 0)
(0.0133673 0.000710783 0)
(0.0139965 0.000639048 0)
(0.0145346 0.000585669 0)
(0.0150034 0.000548956 0)
(0.0154208 0.000527651 0)
(0.0158014 0.000521071 0)
(0.0161575 0.000529226 0)
(0.0164997 0.000552957 0)
(0.0168372 0.000594137 0)
(0.0171786 0.000655947 0)
(0.00119812 0.000948458 0)
(0.00348716 0.000901884 0)
(0.00553466 0.000826766 0)
(0.00730801 0.000738728 0)
(0.00881086 0.000649805 0)
(0.0100686 0.000567522 0)
(0.0111164 0.000495676 0)
(0.0119908 0.000435589 0)
(0.0127262 0.00038718 0)
(0.0133521 0.000349725 0)
(0.0138938 0.000322322 0)
(0.0143721 0.000304156 0)
(0.0148041 0.000294653 0)
(0.0152042 0.000293565 0)
(0.0155845 0.000301055 0)
(0.0159558 0.000317788 0)
(0.0163279 0.000345054 0)
(0.0167101 0.000384844 0)
(0.00103064 0.000287329 0)
(0.00300084 0.00027348 0)
(0.00476451 0.000250974 0)
(0.00629189 0.000224504 0)
(0.00758504 0.000197713 0)
(0.00866561 0.000172897 0)
(0.00956432 0.000151232 0)
(0.0103139 0.000133147 0)
(0.0109453 0.000118643 0)
(0.0114859 0.000107525 0)
(0.0119592 9.95421e-05 0)
(0.0123854 9.44745e-05 0)
(0.0127813 9.21763e-05 0)
(0.0131618 9.26091e-05 0)
(0.0135398 9.58702e-05 0)
(0.0139277 0.000102226 0)
(0.014337 0.000112154 0)
(0.0147796 0.000126341 0)
(5.29701e-34 -1.29386e-33 -1.67164e-59)
(1.59352e-33 -1.2925e-33 1.66863e-59)
(2.66436e-33 -1.29025e-33 0)
(3.74141e-33 -1.28709e-33 0)
(4.82382e-33 -1.28301e-33 0)
(5.91071e-33 -1.27801e-33 -1.64481e-59)
(7.00118e-33 -1.27206e-33 0)
(8.09429e-33 -1.26518e-33 0)
(9.18907e-33 -1.25735e-33 0)
(1.02845e-32 -1.24857e-33 0)
(1.13796e-32 -1.23886e-33 1.58776e-59)
(1.24734e-32 -1.22823e-33 0)
(1.35648e-32 -1.21667e-33 0)
(1.46527e-32 -1.20423e-33 0)
(1.57362e-32 -1.19091e-33 0)
(1.6814e-32 -1.17674e-33 1.50105e-59)
(1.78853e-32 -1.16176e-33 0)
(1.8949e-32 -1.146e-33 0)
(2.0004e-32 -1.1295e-33 0)
(2.10494e-32 -1.1123e-33 0)
(2.20842e-32 -1.09445e-33 0)
(2.31075e-32 -1.07601e-33 0)
(2.41183e-32 -1.05702e-33 0)
(2.51158e-32 -1.03753e-33 1.31133e-59)
(2.60993e-32 -1.01761e-33 -1.28442e-59)
(2.70678e-32 -9.97311e-34 1.25704e-59)
(2.80208e-32 -9.76688e-34 1.22926e-59)
(2.89576e-32 -9.55801e-34 0)
(2.98774e-32 -9.34705e-34 0)
(3.07799e-32 -9.13458e-34 -1.14428e-59)
(3.16645e-32 -8.92114e-34 -1.11565e-59)
(3.25307e-32 -8.70727e-34 0)
(3.33782e-32 -8.49347e-34 0)
(3.42066e-32 -8.28023e-34 -1.02981e-59)
(3.50157e-32 -8.06801e-34 0)
(3.58052e-32 -7.85725e-34 0)
(3.6575e-32 -7.64836e-34 9.45352e-60)
(3.73249e-32 -7.44172e-34 0)
(3.80549e-32 -7.23767e-34 8.90524e-60)
(3.8765e-32 -7.03654e-34 1.72738e-59)
(3.94551e-32 -6.83861e-34 0)
(4.01253e-32 -6.64414e-34 0)
(4.07758e-32 -6.45337e-34 0)
(4.14066e-32 -6.2665e-34 0)
(4.20179e-32 -6.0837e-34 0)
(4.26099e-32 -5.90513e-34 1.42584e-59)
(4.31828e-32 -5.73092e-34 1.37946e-59)
(4.37369e-32 -5.56116e-34 1.33427e-59)
(4.42724e-32 -5.39594e-34 0)
(4.47897e-32 -5.23532e-34 -1.24755e-59)
(4.5289e-32 -5.07935e-34 0)
(4.57706e-32 -4.92804e-34 1.16581e-59)
(4.6235e-32 -4.78142e-34 1.12681e-59)
(4.66824e-32 -4.63947e-34 0)
(4.71132e-32 -4.50218e-34 0)
(4.75278e-32 -4.36951e-34 0)
(4.79266e-32 -4.24143e-34 9.83232e-60)
(4.83099e-32 -4.11787e-34 0)
(4.86782e-32 -3.99879e-34 0)
(4.90318e-32 -3.8841e-34 0)
(4.93712e-32 -3.77374e-34 0)
(4.96967e-32 -3.66763e-34 0)
(5.00087e-32 -3.56567e-34 0)
(5.03077e-32 -3.46778e-34 0)
(5.0594e-32 -3.37386e-34 0)
(5.0868e-32 -3.28382e-34 -7.28751e-60)
(5.11301e-32 -3.19754e-34 0)
(5.13807e-32 -3.11494e-34 0)
(5.16201e-32 -3.03591e-34 6.62893e-60)
(5.18489e-32 -2.96033e-34 6.42815e-60)
(5.20672e-32 -2.88812e-34 0)
(5.22755e-32 -2.81915e-34 -6.05316e-60)
(5.24742e-32 -2.75333e-34 5.87832e-60)
(5.26635e-32 -2.69056e-34 0)
(5.28439e-32 -2.63072e-34 -5.55263e-60)
(5.30156e-32 -2.57372e-34 0)
(5.31791e-32 -2.51944e-34 0)
(5.33345e-32 -2.46781e-34 5.11995e-60)
(5.34823e-32 -2.4187e-34 0)
(5.36227e-32 -2.37204e-34 -4.86557e-60)
(5.37561e-32 -2.32771e-34 0)
(5.38827e-32 -2.28564e-34 4.63608e-60)
(5.40028e-32 -2.24572e-34 4.53007e-60)
(5.41167e-32 -2.20787e-34 4.42955e-60)
(5.42246e-32 -2.172e-34 8.6686e-60)
(5.43268e-32 -2.13804e-34 -8.48814e-60)
(5.44236e-32 -2.10589e-34 0)
(5.45152e-32 -2.07547e-34 0)
(5.46018e-32 -2.04672e-34 0)
(5.46837e-32 -2.01955e-34 -7.85873e-60)
(5.4761e-32 -1.99389e-34 -7.72241e-60)
(5.48341e-32 -1.96967e-34 7.59376e-60)
(5.4903e-32 -1.94682e-34 0)
(5.4968e-32 -1.92529e-34 -7.358e-60)
(5.50293e-32 -1.905e-34 -7.25018e-60)
(5.50871e-32 -1.88589e-34 -7.14867e-60)
(5.51414e-32 -1.86791e-34 0)
(5.51926e-32 -1.85099e-34 0)
(5.52407e-32 -1.83509e-34 0)
(5.5286e-32 -1.82015e-34 -6.79944e-60)
(5.53285e-32 -1.80613e-34 0)
(5.53685e-32 -1.79297e-34 0)
(5.54059e-32 -1.78063e-34 6.58945e-60)
(5.54411e-32 -1.76906e-34 0)
(5.54741e-32 -1.75822e-34 0)
(5.55049e-32 -1.74808e-34 6.4165e-60)
(5.55338e-32 -1.73859e-34 0)
(5.55609e-32 -1.72972e-34 0)
(5.55862e-32 -1.72143e-34 -6.27486e-60)
(5.56099e-32 -1.71368e-34 -6.23371e-60)
(5.5632e-32 -1.70645e-34 0)
(5.56526e-32 -1.69971e-34 6.15946e-60)
(5.56718e-32 -1.69343e-34 0)
(5.56898e-32 -1.68758e-34 -6.09497e-60)
(5.57065e-32 -1.68213e-34 0)
(5.57221e-32 -1.67706e-34 -6.03904e-60)
(5.57366e-32 -1.67234e-34 -6.01401e-60)
(5.57501e-32 -1.66796e-34 0)
(5.57626e-32 -1.66389e-34 0)
(5.57743e-32 -1.66012e-34 0)
(5.57851e-32 -1.65662e-34 0)
(5.57951e-32 -1.65337e-34 0)
(5.58044e-32 -1.65036e-34 0)
(5.5813e-32 -1.64758e-34 0)
(5.5821e-32 -1.64501e-34 -5.86869e-60)
(5.58284e-32 -1.64263e-34 5.85606e-60)
(5.58352e-32 -1.64043e-34 0)
(5.58416e-32 -1.6384e-34 0)
(5.58474e-32 -1.63653e-34 0)
(5.58528e-32 -1.6348e-34 0)
(5.58577e-32 -1.63321e-34 1.1612e-59)
(5.58623e-32 -1.63174e-34 0)
(5.58665e-32 -1.63039e-34 -1.1582e-59)
(5.58704e-32 -1.62915e-34 1.15688e-59)
(5.58739e-32 -1.62801e-34 0)
(5.58772e-32 -1.62696e-34 0)
(5.58802e-32 -1.62599e-34 0)
(5.58829e-32 -1.6251e-34 -1.15257e-59)
(5.58854e-32 -1.62428e-34 -1.1517e-59)
(5.58877e-32 -1.62352e-34 0)
(5.58898e-32 -1.62282e-34 -1.15015e-59)
(5.58917e-32 -1.62218e-34 -1.14947e-59)
(5.58934e-32 -1.62158e-34 1.14883e-59)
(5.58949e-32 -1.62102e-34 0)
(5.58963e-32 -1.62049e-34 0)
(5.58975e-32 -1.61999e-34 1.14715e-59)
(5.58986e-32 -1.61951e-34 0)
(5.58996e-32 -1.61904e-34 0)
(5.59003e-32 -1.61858e-34 0)
(5.5901e-32 -1.61811e-34 0)
(5.59015e-32 -1.61763e-34 -1.14467e-59)
(5.59018e-32 -1.61712e-34 -1.14414e-59)
(5.59019e-32 -1.61657e-34 0)
(5.59019e-32 -1.61595e-34 -1.14293e-59)
(5.59016e-32 -1.61524e-34 0)
(5.5901e-32 -1.61443e-34 0)
(5.59001e-32 -1.61346e-34 -1.14037e-59)
(5.58988e-32 -1.6123e-34 0)
(5.58971e-32 -1.61088e-34 -1.13773e-59)
(5.58947e-32 -1.60914e-34 0)
(5.58916e-32 -1.60698e-34 0)
(5.58875e-32 -1.60428e-34 -1.131e-59)
(5.58823e-32 -1.60088e-34 0)
(5.58755e-32 -1.59659e-34 -1.12316e-59)
(5.58668e-32 -1.59114e-34 0)
(5.58555e-32 -1.58416e-34 0)
(5.5841e-32 -1.57521e-34 0)
(5.58223e-32 -1.56363e-34 1.08959e-59)
(5.57981e-32 -1.54856e-34 0)
(5.57665e-32 -1.52877e-34 -1.05407e-59)
(5.57253e-32 -1.50252e-34 0)
(5.56709e-32 -1.46724e-34 0)
(5.55985e-32 -1.41899e-34 0)
(5.5501e-32 -1.35148e-34 0)
(5.53675e-32 -1.25398e-34 0)
(5.518e-32 -1.10654e-34 0)
(5.49068e-32 -8.67516e-35 0)
(5.44834e-32 -4.33584e-35 -1.3242e-60)
(5.37471e-32 5.26474e-35 0)
(5.21152e-32 3.53681e-34 0)
(5.31553e-34 -3.56224e-33 4.60219e-59)
(1.59908e-33 -3.55814e-33 -4.59312e-59)
(2.67364e-33 -3.55137e-33 0)
(3.7544e-33 -3.54186e-33 9.13776e-59)
(4.84052e-33 -3.52959e-33 0)
(5.9311e-33 -3.51452e-33 -4.5354e-59)
(7.02523e-33 -3.49662e-33 -9.00536e-59)
(8.12194e-33 -3.47588e-33 -8.94657e-59)
(9.22026e-33 -3.4523e-33 0)
(1.03192e-32 -3.42587e-33 -8.80693e-59)
(1.14177e-32 -3.39662e-33 4.37655e-59)
(1.25148e-32 -3.36458e-33 0)
(1.36093e-32 -3.32978e-33 0)
(1.47003e-32 -3.29229e-33 0)
(1.57866e-32 -3.25216e-33 0)
(1.68672e-32 -3.20948e-33 4.12825e-59)
(1.79411e-32 -3.16435e-33 0)
(1.90071e-32 -3.11688e-33 7.96717e-59)
(2.00643e-32 -3.06718e-33 0)
(2.11117e-32 -3.01538e-33 0)
(2.21483e-32 -2.96164e-33 -7.55107e-59)
(2.31731e-32 -2.9061e-33 0)
(2.41853e-32 -2.84892e-33 7.25007e-59)
(2.51839e-32 -2.79026e-33 3.5766e-59)
(2.61683e-32 -2.7303e-33 -3.49794e-59)
(2.71375e-32 -2.66921e-33 3.41783e-59)
(2.80909e-32 -2.60715e-33 3.3365e-59)
(2.90279e-32 -2.54431e-33 0)
(2.99479e-32 -2.48086e-33 0)
(3.08502e-32 -2.41696e-33 -3.08743e-59)
(3.17344e-32 -2.35278e-33 -8.93538e-59)
(3.26002e-32 -2.28848e-33 0)
(3.3447e-32 -2.22422e-33 0)
(3.42746e-32 -2.16014e-33 -2.75145e-59)
(3.50828e-32 -2.09637e-33 0)
(3.58712e-32 -2.03305e-33 0)
(3.66398e-32 -1.97031e-33 2.50331e-59)
(3.73885e-32 -1.90825e-33 0)
(3.81172e-32 -1.84698e-33 6.93651e-59)
(3.88258e-32 -1.78659e-33 4.52657e-59)
(3.95144e-32 -1.72718e-33 0)
(4.01831e-32 -1.66881e-33 0)
(4.08319e-32 -1.61155e-33 -7.94592e-59)
(4.14611e-32 -1.55548e-33 -7.65007e-59)
(4.20708e-32 -1.50063e-33 -7.36077e-59)
(4.26611e-32 -1.44706e-33 1.07181e-58)
(4.32323e-32 -1.3948e-33 3.5034e-59)
(4.37847e-32 -1.34388e-33 -3.16372e-59)
(4.43186e-32 -1.29433e-33 6.27297e-59)
(4.48341e-32 -1.24616e-33 -3.11539e-59)
(4.53317e-32 -1.19939e-33 0)
(4.58117e-32 -1.15402e-33 2.87491e-59)
(4.62745e-32 -1.11006e-33 8.06204e-59)
(4.67203e-32 -1.0675e-33 0)
(4.71495e-32 -1.02634e-33 0)
(4.75626e-32 -9.86573e-34 0)
(4.79599e-32 -9.48179e-34 2.33775e-59)
(4.83418e-32 -9.11144e-34 0)
(4.87086e-32 -8.75452e-34 4.06598e-59)
(4.90609e-32 -8.41079e-34 0)
(4.93989e-32 -8.08005e-34 3.71077e-59)
(4.97231e-32 -7.76204e-34 0)
(5.00339e-32 -7.45649e-34 -3.38241e-59)
(5.03316e-32 -7.16314e-34 0)
(5.06167e-32 -6.8817e-34 3.07974e-59)
(5.08896e-32 -6.61188e-34 -4.52665e-59)
(5.11506e-32 -6.35337e-34 0)
(5.14002e-32 -6.10586e-34 -2.67124e-59)
(5.16386e-32 -5.86904e-34 1.3952e-59)
(5.18664e-32 -5.64261e-34 1.33612e-59)
(5.20838e-32 -5.42623e-34 0)
(5.22912e-32 -5.2196e-34 -3.43042e-59)
(5.2489e-32 -5.0224e-34 1.17434e-59)
(5.26776e-32 -4.83432e-34 0)
(5.28572e-32 -4.65504e-34 -1.07851e-59)
(5.30282e-32 -4.48426e-34 -1.81752e-59)
(5.31909e-32 -4.32167e-34 0)
(5.33457e-32 -4.16696e-34 9.51189e-60)
(5.34928e-32 -4.01985e-34 0)
(5.36327e-32 -3.88004e-34 6.23095e-60)
(5.37654e-32 -3.74725e-34 0)
(5.38915e-32 -3.6212e-34 -5.54354e-60)
(5.40111e-32 -3.50162e-34 7.7763e-60)
(5.41244e-32 -3.38823e-34 1.98859e-59)
(5.42319e-32 -3.28078e-34 3.808e-59)
(5.43337e-32 -3.17903e-34 -3.64777e-59)
(5.443e-32 -3.08271e-34 0)
(5.45212e-32 -2.9916e-34 0)
(5.46075e-32 -2.90545e-34 0)
(5.4689e-32 -2.82405e-34 6.85297e-60)
(5.4766e-32 -2.74719e-34 -1.16166e-59)
(5.48387e-32 -2.67464e-34 1.12381e-59)
(5.49073e-32 -2.6062e-34 0)
(5.49721e-32 -2.54168e-34 -2.64421e-59)
(5.50331e-32 -2.4809e-34 -1.02273e-59)
(5.50906e-32 -2.42365e-34 -9.92869e-60)
(5.51447e-32 -2.36978e-34 0)
(5.51957e-32 -2.31911e-34 0)
(5.52436e-32 -2.27148e-34 0)
(5.52887e-32 -2.22674e-34 -8.9013e-60)
(5.5331e-32 -2.18472e-34 0)
(5.53708e-32 -2.1453e-34 -1.17238e-59)
(5.54081e-32 -2.10833e-34 -3.0509e-60)
(5.54431e-32 -2.07367e-34 1.09695e-59)
(5.54759e-32 -2.04121e-34 0)
(5.55066e-32 -2.01082e-34 1.80824e-59)
(5.55354e-32 -1.98239e-34 0)
(5.55624e-32 -1.95581e-34 9.72827e-60)
(5.55876e-32 -1.93097e-34 -1.68248e-59)
(5.56111e-32 -1.90777e-34 -1.64594e-59)
(5.56331e-32 -1.88612e-34 0)
(5.56537e-32 -1.86593e-34 -1.76295e-60)
(5.56728e-32 -1.8471e-34 8.58344e-60)
(5.56907e-32 -1.82957e-34 -6.829e-60)
(5.57074e-32 -1.81324e-34 0)
(5.57229e-32 -1.79805e-34 -6.66454e-60)
(5.57373e-32 -1.78393e-34 1.32713e-60)
(5.57508e-32 -1.7708e-34 0)
(5.57632e-32 -1.75862e-34 7.65141e-60)
(5.57748e-32 -1.74731e-34 7.53225e-60)
(5.57856e-32 -1.73682e-34 7.42176e-60)
(5.57956e-32 -1.72709e-34 0)
(5.58049e-32 -1.71809e-34 0)
(5.58134e-32 -1.70975e-34 0)
(5.58214e-32 -1.70204e-34 -1.3219e-59)
(5.58287e-32 -1.69491e-34 6.12636e-60)
(5.58356e-32 -1.68833e-34 0)
(5.58418e-32 -1.68225e-34 -6.84696e-60)
(5.58476e-32 -1.67664e-34 -6.78784e-60)
(5.5853e-32 -1.67147e-34 0)
(5.58579e-32 -1.6667e-34 1.19582e-59)
(5.58625e-32 -1.66231e-34 -1.32736e-59)
(5.58667e-32 -1.65826e-34 -1.18701e-59)
(5.58705e-32 -1.65454e-34 2.49413e-59)
(5.58741e-32 -1.65111e-34 0)
(5.58773e-32 -1.64796e-34 0)
(5.58803e-32 -1.64506e-34 0)
(5.5883e-32 -1.6424e-34 -1.17045e-59)
(5.58855e-32 -1.63994e-34 -2.44813e-59)
(5.58878e-32 -1.63767e-34 -1.27548e-59)
(5.58899e-32 -1.63558e-34 -1.16334e-59)
(5.58917e-32 -1.63365e-34 -2.42832e-59)
(5.58935e-32 -1.63185e-34 1.15945e-59)
(5.5895e-32 -1.63017e-34 0)
(5.58964e-32 -1.62859e-34 0)
(5.58976e-32 -1.62709e-34 2.4077e-59)
(5.58987e-32 -1.62565e-34 0)
(5.58996e-32 -1.62426e-34 0)
(5.59004e-32 -1.62287e-34 -1.24439e-59)
(5.5901e-32 -1.62148e-34 0)
(5.59015e-32 -1.62003e-34 -2.38564e-59)
(5.59019e-32 -1.61851e-34 -1.14558e-59)
(5.5902e-32 -1.61685e-34 0)
(5.5902e-32 -1.615e-34 -2.37001e-59)
(5.59017e-32 -1.6129e-34 0)
(5.59011e-32 -1.61046e-34 0)
(5.59002e-32 -1.60757e-34 -1.13428e-59)
(5.5899e-32 -1.60409e-34 -1.20561e-59)
(5.58972e-32 -1.59987e-34 -1.12634e-59)
(5.58949e-32 -1.59467e-34 0)
(5.58918e-32 -1.58821e-34 0)
(5.58878e-32 -1.58015e-34 -2.26258e-59)
(5.58827e-32 -1.57002e-34 0)
(5.5876e-32 -1.55721e-34 -2.19197e-59)
(5.58674e-32 -1.54093e-34 0)
(5.58563e-32 -1.52014e-34 0)
(5.58421e-32 -1.49342e-34 0)
(5.58237e-32 -1.45889e-34 9.81272e-60)
(5.57998e-32 -1.41395e-34 0)
(5.57688e-32 -1.35498e-34 -8.74349e-60)
(5.57283e-32 -1.2768e-34 0)
(5.56749e-32 -1.17181e-34 0)
(5.56041e-32 -1.02843e-34 -2.63013e-61)
(5.55089e-32 -8.28207e-35 -3.84147e-60)
(5.5379e-32 -5.39902e-35 0)
(5.5198e-32 -1.06255e-35 0)
(5.49377e-32 5.89582e-35 0)
(5.45467e-32 1.82414e-34 6.86295e-59)
(5.39254e-32 4.39937e-34 0)
(5.29452e-32 1.13367e-33 -5.08875e-58)
(5.35276e-34 -5.84255e-33 3.01989e-58)
(1.61027e-33 -5.83566e-33 -3.83308e-62)
(2.6923e-33 -5.82429e-33 0)
(3.78055e-33 -5.80833e-33 8.95682e-62)
(4.87412e-33 -5.78773e-33 0)
(5.97212e-33 -5.76242e-33 0)
(7.07359e-33 -5.73237e-33 -2.95521e-58)
(8.17756e-33 -5.69754e-33 -1.46892e-58)
(9.28303e-33 -5.65793e-33 1.45596e-58)
(1.0389e-32 -5.61354e-33 -1.44616e-58)
(1.14943e-32 -5.5644e-33 0)
(1.2598e-32 -5.51056e-33 0)
(1.36989e-32 -5.45209e-33 -1.39962e-58)
(1.4796e-32 -5.38907e-33 -2.76512e-58)
(1.58881e-32 -5.32164e-33 2.7287e-58)
(1.69743e-32 -5.24991e-33 0)
(1.80533e-32 -5.17407e-33 2.64935e-58)
(1.91241e-32 -5.0943e-33 1.30781e-58)
(2.01857e-32 -5.0108e-33 0)
(2.1237e-32 -4.92379e-33 2.51545e-58)
(2.22772e-32 -4.83353e-33 -1.23892e-58)
(2.33051e-32 -4.74026e-33 -2.41764e-58)
(2.43199e-32 -4.64427e-33 1.18903e-58)
(2.53208e-32 -4.54583e-33 0)
(2.63069e-32 -4.44523e-33 2.26085e-58)
(2.72774e-32 -4.34275e-33 2.2065e-58)
(2.82318e-32 -4.23871e-33 0)
(2.91693e-32 -4.13338e-33 2.09558e-58)
(3.00893e-32 -4.02707e-33 0)
(3.09913e-32 -3.92004e-33 1.98271e-58)
(3.18749e-32 -3.81259e-33 -9.70479e-59)
(3.27396e-32 -3.70498e-33 0)
(3.35851e-32 -3.59746e-33 0)
(3.4411e-32 -3.49028e-33 0)
(3.52173e-32 -3.38367e-33 0)
(3.60036e-32 -3.27785e-33 0)
(3.67698e-32 -3.17302e-33 0)
(3.75159e-32 -3.06936e-33 1.53368e-58)
(3.82418e-32 -2.96706e-33 -7.30848e-59)
(3.89475e-32 -2.86626e-33 0)
(3.96331e-32 -2.76711e-33 0)
(4.02987e-32 -2.66973e-33 0)
(4.09443e-32 -2.57424e-33 -2.56503e-58)
(4.15702e-32 -2.48074e-33 -1.24325e-58)
(4.21765e-32 -2.3893e-33 -1.99178e-60)
(4.27634e-32 -2.30001e-33 2.01947e-60)
(4.33313e-32 -2.21293e-33 -1.08267e-58)
(4.38803e-32 -2.12809e-33 -1.05876e-58)
(4.44107e-32 -2.04555e-33 2.01019e-58)
(4.4923e-32 -1.96533e-33 9.52412e-59)
(4.54172e-32 -1.88745e-33 0)
(4.58939e-32 -1.81191e-33 8.71721e-59)
(4.63534e-32 -1.73873e-33 1.68836e-58)
(4.6796e-32 -1.66789e-33 0)
(4.72221e-32 -1.59939e-33 0)
(4.76322e-32 -1.53321e-33 -7.25175e-59)
(4.80264e-32 -1.46933e-33 0)
(4.84054e-32 -1.40771e-33 0)
(4.87694e-32 -1.34833e-33 1.90698e-58)
(4.91189e-32 -1.29116e-33 1.19586e-58)
(4.94542e-32 -1.23614e-33 5.92366e-59)
(4.97758e-32 -1.18325e-33 0)
(5.00841e-32 -1.13243e-33 -5.38156e-59)
(5.03794e-32 -1.08365e-33 0)
(5.06622e-32 -1.03685e-33 1.41674e-58)
(5.09328e-32 -9.91984e-34 -4.64744e-59)
(5.11917e-32 -9.49001e-34 -8.36209e-59)
(5.14391e-32 -9.07849e-34 -1.21373e-58)
(5.16756e-32 -8.68477e-34 0)
(5.19014e-32 -8.30831e-34 7.12014e-59)
(5.2117e-32 -7.9486e-34 0)
(5.23226e-32 -7.60511e-34 2.94349e-59)
(5.25187e-32 -7.27729e-34 6.0366e-59)
(5.27056e-32 -6.96464e-34 5.70804e-59)
(5.28837e-32 -6.66664e-34 -5.39486e-59)
(5.30532e-32 -6.38276e-34 2.29776e-59)
(5.32145e-32 -6.1125e-34 0)
(5.3368e-32 -5.85536e-34 0)
(5.35139e-32 -5.61084e-34 -4.28535e-59)
(5.36524e-32 -5.37847e-34 -1.76724e-59)
(5.37841e-32 -5.15776e-34 0)
(5.3909e-32 -4.94826e-34 -2.04909e-59)
(5.40275e-32 -4.74951e-34 0)
(5.41399e-32 -4.56106e-34 -1.33544e-59)
(5.42464e-32 -4.38249e-34 6.50132e-59)
(5.43473e-32 -4.21337e-34 -6.14682e-59)
(5.44429e-32 -4.0533e-34 2.64857e-59)
(5.45332e-32 -3.90187e-34 0)
(5.46187e-32 -3.7587e-34 -2.33898e-59)
(5.46995e-32 -3.62343e-34 4.91023e-59)
(5.47759e-32 -3.49568e-34 0)
(5.48479e-32 -3.37511e-34 0)
(5.4916e-32 -3.26137e-34 0)