/*--------------------------------*- C++ -*----------------------------------*\
  =========                 |
  \\      /  F ield         | OpenFOAM: The Open Source CFD Toolbox
   \\    /   O peration     | Website:  https://openfoam.org
    \\  /    A nd           | Version:  10
     \\/     M anipulation  |
\*---------------------------------------------------------------------------*/
FoamFile
{
    format      ascii;
    class       volScalarField;
    location    "0.02";
    object      pPrime2Mean;
}
// * * * * * * * * * * * * * * * * * * * * * * * * * * * * * * * * * * * * * //

dimensions      [0 4 -4 0 0 0 0];

internalField   nonuniform List<scalar> 
12225
(
2.05866e+07
2.02581e+07
1.99201e+07
1.9594e+07
1.92806e+07
1.8979e+07
1.86884e+07
1.8408e+07
1.81369e+07
1.78741e+07
1.76185e+07
1.73689e+07
1.71239e+07
1.68816e+07
1.66395e+07
1.63935e+07
1.61366e+07
1.58506e+07
2.05871e+07
2.02582e+07
1.99203e+07
1.95942e+07
1.92808e+07
1.89792e+07
1.86887e+07
1.84083e+07
1.81373e+07
1.78745e+07
1.76191e+07
1.73697e+07
1.71249e+07
1.6883e+07
1.66416e+07
1.63969e+07
1.6143e+07
1.58664e+07
2.05878e+07
2.02586e+07
1.99206e+07
1.95945e+07
1.92812e+07
1.89797e+07
1.86892e+07
1.8409e+07
1.81381e+07
1.78755e+07
1.76203e+07
1.73713e+07
1.71271e+07
1.68861e+07
1.66461e+07
1.64041e+07
1.61558e+07
1.58962e+07
2.05884e+07
2.02592e+07
1.99212e+07
1.95952e+07
1.92819e+07
1.89805e+07
1.86902e+07
1.84101e+07
1.81394e+07
1.78772e+07
1.76225e+07
1.73741e+07
1.71308e+07
1.68911e+07
1.66533e+07
1.64152e+07
1.61746e+07
1.59318e+07
2.05891e+07
2.02599e+07
1.9922e+07
1.95961e+07
1.92829e+07
1.89816e+07
1.86915e+07
1.84117e+07
1.81414e+07
1.78797e+07
1.76255e+07
1.7378e+07
1.7136e+07
1.68982e+07
1.66633e+07
1.64302e+07
1.61982e+07
1.59703e+07
2.05901e+07
2.0261e+07
1.99232e+07
1.95973e+07
1.92843e+07
1.89832e+07
1.86934e+07
1.8414e+07
1.81441e+07
1.7883e+07
1.76298e+07
1.73834e+07
1.7143e+07
1.69076e+07
1.66763e+07
1.64487e+07
1.62254e+07
1.60102e+07
2.05914e+07
2.02625e+07
1.99247e+07
1.9599e+07
1.92861e+07
1.89853e+07
1.86958e+07
1.84169e+07
1.81477e+07
1.78874e+07
1.76352e+07
1.73903e+07
1.7152e+07
1.69194e+07
1.66922e+07
1.64705e+07
1.62555e+07
1.60508e+07
2.05929e+07
2.02643e+07
1.99267e+07
1.96011e+07
1.92885e+07
1.8988e+07
1.8699e+07
1.84206e+07
1.81522e+07
1.78929e+07
1.76421e+07
1.7399e+07
1.7163e+07
1.69336e+07
1.67108e+07
1.6495e+07
1.62877e+07
1.60917e+07
2.05954e+07
2.02667e+07
1.99292e+07
1.96038e+07
1.92914e+07
1.89914e+07
1.87029e+07
1.84253e+07
1.81578e+07
1.78998e+07
1.76505e+07
1.74094e+07
1.71761e+07
1.69502e+07
1.6732e+07
1.65219e+07
1.63215e+07
1.61328e+07
2.05981e+07
2.02698e+07
1.99323e+07
1.96071e+07
1.92951e+07
1.89955e+07
1.87077e+07
1.8431e+07
1.81646e+07
1.79079e+07
1.76605e+07
1.74217e+07
1.71913e+07
1.69691e+07
1.67554e+07
1.65508e+07
1.63565e+07
1.6174e+07
2.06027e+07
2.02736e+07
1.99361e+07
1.96111e+07
1.92995e+07
1.90005e+07
1.87135e+07
1.84377e+07
1.81726e+07
1.79176e+07
1.76722e+07
1.74359e+07
1.72085e+07
1.69901e+07
1.67809e+07
1.65814e+07
1.63925e+07
1.62152e+07
2.06063e+07
2.02777e+07
1.99403e+07
1.96155e+07
1.93043e+07
1.90059e+07
1.87197e+07
1.84451e+07
1.81813e+07
1.79279e+07
1.76844e+07
1.74506e+07
1.72262e+07
1.70112e+07
1.68059e+07
1.66107e+07
1.64262e+07
1.6253e+07
2.0612e+07
2.02826e+07
1.9945e+07
1.96205e+07
1.93098e+07
1.90121e+07
1.87268e+07
1.84533e+07
1.81909e+07
1.79393e+07
1.76979e+07
1.74666e+07
1.72451e+07
1.70335e+07
1.68319e+07
1.66406e+07
1.646e+07
1.62905e+07
2.06193e+07
2.02891e+07
1.99514e+07
1.96271e+07
1.9317e+07
1.90202e+07
1.8736e+07
1.84639e+07
1.82033e+07
1.79538e+07
1.7715e+07
1.74865e+07
1.72684e+07
1.70604e+07
1.68628e+07
1.66756e+07
1.6499e+07
1.6333e+07
2.06288e+07
2.02976e+07
1.99597e+07
1.96358e+07
1.93264e+07
1.90307e+07
1.8748e+07
1.84776e+07
1.82192e+07
1.79722e+07
1.77362e+07
1.75111e+07
1.72966e+07
1.70926e+07
1.6899e+07
1.67159e+07
1.65432e+07
1.63807e+07
2.06401e+07
2.03084e+07
1.99705e+07
1.9647e+07
1.93386e+07
1.90442e+07
1.87632e+07
1.8495e+07
1.82391e+07
1.7995e+07
1.77623e+07
1.75407e+07
1.73301e+07
1.71301e+07
1.69407e+07
1.67615e+07
1.65926e+07
1.64334e+07
2.0654e+07
2.03217e+07
1.9984e+07
1.96612e+07
1.9354e+07
1.90613e+07
1.87824e+07
1.85166e+07
1.82635e+07
1.80226e+07
1.77934e+07
1.75756e+07
1.73689e+07
1.71729e+07
1.69874e+07
1.68121e+07
1.66466e+07
1.64906e+07
2.06689e+07
2.03373e+07
2.00003e+07
1.96787e+07
1.93729e+07
1.90821e+07
1.88055e+07
1.85425e+07
1.82925e+07
1.80549e+07
1.78293e+07
1.76153e+07
1.74124e+07
1.72202e+07
1.70384e+07
1.68665e+07
1.67042e+07
1.6551e+07
2.06867e+07
2.03555e+07
2.00193e+07
1.9699e+07
1.93949e+07
1.91063e+07
1.88322e+07
1.8572e+07
1.83251e+07
1.80908e+07
1.78687e+07
1.76582e+07
1.74588e+07
1.72701e+07
1.70916e+07
1.69228e+07
1.67633e+07
1.66126e+07
2.0703e+07
2.03712e+07
2.00355e+07
1.97161e+07
1.94134e+07
1.91265e+07
1.88543e+07
1.85963e+07
1.83516e+07
1.81198e+07
1.79001e+07
1.7692e+07
1.74951e+07
1.73086e+07
1.71323e+07
1.69655e+07
1.68078e+07
1.66586e+07
2.07117e+07
2.03812e+07
2.00462e+07
1.97277e+07
1.9426e+07
1.91402e+07
1.88694e+07
1.86127e+07
1.83695e+07
1.81392e+07
1.7921e+07
1.77145e+07
1.75189e+07
1.73339e+07
1.71589e+07
1.69932e+07
1.68366e+07
1.66884e+07
2.07195e+07
2.03884e+07
2.00539e+07
1.97361e+07
1.94353e+07
1.91503e+07
1.88804e+07
1.86248e+07
1.83826e+07
1.81533e+07
1.79362e+07
1.77307e+07
1.75361e+07
1.7352e+07
1.71778e+07
1.7013e+07
1.68571e+07
1.67095e+07
2.07218e+07
2.03927e+07
2.00591e+07
1.9742e+07
1.94418e+07
1.91576e+07
1.88884e+07
1.86335e+07
1.8392e+07
1.81634e+07
1.7947e+07
1.77422e+07
1.75484e+07
1.73649e+07
1.71913e+07
1.7027e+07
1.68715e+07
1.67244e+07
2.07244e+07
2.03956e+07
2.00626e+07
1.97461e+07
1.94465e+07
1.91627e+07
1.8894e+07
1.86396e+07
1.83987e+07
1.81706e+07
1.79547e+07
1.77503e+07
1.7557e+07
1.73739e+07
1.72007e+07
1.70368e+07
1.68816e+07
1.67348e+07
2.07257e+07
2.03973e+07
2.00649e+07
1.97488e+07
1.94496e+07
1.91663e+07
1.88979e+07
1.86438e+07
1.84033e+07
1.81755e+07
1.796e+07
1.77559e+07
1.75629e+07
1.73801e+07
1.72072e+07
1.70435e+07
1.68886e+07
1.67419e+07
2.07247e+07
2.0398e+07
2.00663e+07
1.97506e+07
1.94517e+07
1.91686e+07
1.89005e+07
1.86467e+07
1.84063e+07
1.81788e+07
1.79635e+07
1.77597e+07
1.75668e+07
1.73843e+07
1.72115e+07
1.7048e+07
1.68932e+07
1.67467e+07
2.0724e+07
2.03984e+07
2.00671e+07
1.97518e+07
1.94531e+07
1.91701e+07
1.89022e+07
1.86485e+07
1.84083e+07
1.8181e+07
1.79658e+07
1.77621e+07
1.75694e+07
1.7387e+07
1.72143e+07
1.70509e+07
1.68962e+07
1.67497e+07
2.0724e+07
2.03986e+07
2.00677e+07
1.97525e+07
1.94539e+07
1.91711e+07
1.89032e+07
1.86496e+07
1.84095e+07
1.81823e+07
1.79672e+07
1.77636e+07
1.75709e+07
1.73886e+07
1.7216e+07
1.70527e+07
1.6898e+07
1.67516e+07
2.0724e+07
2.03988e+07
2.00679e+07
1.97528e+07
1.94543e+07
1.91716e+07
1.89038e+07
1.86502e+07
1.84102e+07
1.8183e+07
1.79679e+07
1.77644e+07
1.75718e+07
1.73895e+07
1.72169e+07
1.70536e+07
1.6899e+07
1.67526e+07
2.07241e+07
2.03988e+07
2.0068e+07
1.9753e+07
1.94545e+07
1.91718e+07
1.8904e+07
1.86505e+07
1.84105e+07
1.81833e+07
1.79682e+07
1.77647e+07
1.75721e+07
1.73898e+07
1.72173e+07
1.7054e+07
1.68994e+07
1.6753e+07
1.33965e+07
1.33954e+07
1.33933e+07
1.339e+07
1.33856e+07
1.33801e+07
1.33734e+07
1.33655e+07
1.33564e+07
1.33462e+07
1.33346e+07
1.33219e+07
1.33078e+07
1.32926e+07
1.3276e+07
1.32582e+07
1.32391e+07
1.32188e+07
1.31971e+07
1.31742e+07
1.315e+07
1.31246e+07
1.30978e+07
1.30699e+07
1.30407e+07
1.30102e+07
1.29786e+07
1.29457e+07
1.29116e+07
1.28764e+07
1.284e+07
1.28025e+07
1.27638e+07
1.2724e+07
1.26831e+07
1.26411e+07
1.2598e+07
1.25539e+07
1.25087e+07
1.24625e+07
1.24152e+07
1.23669e+07
1.23177e+07
1.22674e+07
1.22162e+07
1.2164e+07
1.21109e+07
1.20569e+07
1.2002e+07
1.19463e+07
1.18896e+07
1.18322e+07
1.17739e+07
1.17148e+07
1.1655e+07
1.15944e+07
1.15331e+07
1.1471e+07
1.14083e+07
1.13448e+07
1.12807e+07
1.12159e+07
1.11505e+07
1.10844e+07
1.10177e+07
1.09504e+07
1.08825e+07
1.08141e+07
1.0745e+07
1.06754e+07
1.06053e+07
1.05346e+07
1.04633e+07
1.03916e+07
1.03194e+07
1.02466e+07
1.01734e+07
1.00997e+07
1.00256e+07
9.95093e+06
9.87587e+06
9.80036e+06
9.72442e+06
9.64806e+06
9.57129e+06
9.49411e+06
9.41654e+06
9.33858e+06
9.26024e+06
9.18153e+06
9.10246e+06
9.02303e+06
8.94326e+06
8.86314e+06
8.7827e+06
8.70193e+06
8.62085e+06
8.53946e+06
8.45777e+06
8.37578e+06
8.29351e+06
8.21096e+06
8.12815e+06
8.04507e+06
7.96173e+06
7.87815e+06
7.79433e+06
7.71027e+06
7.626e+06
7.5415e+06
7.4568e+06
7.3719e+06
7.2868e+06
7.20152e+06
7.11606e+06
7.03044e+06
6.94465e+06
6.85872e+06
6.77264e+06
6.68642e+06
6.60009e+06
6.51363e+06
6.42707e+06
6.34041e+06
6.25366e+06
6.16683e+06
6.07993e+06
5.99297e+06
5.90596e+06
5.81891e+06
5.73183e+06
5.64473e+06
5.55762e+06
5.47052e+06
5.38343e+06
5.29636e+06
5.20934e+06
5.12236e+06
5.03545e+06
4.94861e+06
4.86185e+06
4.7752e+06
4.68865e+06
4.60224e+06
4.51596e+06
4.42984e+06
4.34388e+06
4.25811e+06
4.17254e+06
4.08718e+06
4.00204e+06
3.91715e+06
3.83252e+06
3.74817e+06
3.66411e+06
3.58036e+06
3.49695e+06
3.41388e+06
3.33117e+06
3.24885e+06
3.16694e+06
3.08545e+06
3.00441e+06
2.92383e+06
2.84375e+06
2.76418e+06
2.68515e+06
2.60669e+06
2.52882e+06
2.45157e+06
2.37497e+06
2.29907e+06
2.2239e+06
2.14951e+06
2.07596e+06
2.00331e+06
1.93168e+06
1.8612e+06
1.79212e+06
1.72498e+06
1.34013e+07
1.34003e+07
1.33981e+07
1.33948e+07
1.33904e+07
1.33848e+07
1.33781e+07
1.33702e+07
1.3361e+07
1.33507e+07
1.33391e+07
1.33263e+07
1.33122e+07
1.32968e+07
1.32802e+07
1.32623e+07
1.32431e+07
1.32227e+07
1.32009e+07
1.31779e+07
1.31536e+07
1.31281e+07
1.31013e+07
1.30732e+07
1.30439e+07
1.30133e+07
1.29816e+07
1.29486e+07
1.29145e+07
1.28792e+07
1.28427e+07
1.2805e+07
1.27663e+07
1.27264e+07
1.26854e+07
1.26433e+07
1.26001e+07
1.25559e+07
1.25106e+07
1.24643e+07
1.2417e+07
1.23686e+07
1.23193e+07
1.2269e+07
1.22177e+07
1.21654e+07
1.21123e+07
1.20582e+07
1.20032e+07
1.19474e+07
1.18907e+07
1.18332e+07
1.17749e+07
1.17157e+07
1.16559e+07
1.15952e+07
1.15338e+07
1.14717e+07
1.14089e+07
1.13454e+07
1.12813e+07
1.12165e+07
1.1151e+07
1.10849e+07
1.10182e+07
1.09509e+07
1.0883e+07
1.08145e+07
1.07454e+07
1.06758e+07
1.06056e+07
1.05349e+07
1.04636e+07
1.03919e+07
1.03196e+07
1.02469e+07
1.01736e+07
1.00999e+07
1.00258e+07
9.95112e+06
9.87604e+06
9.80052e+06
9.72457e+06
9.6482e+06
9.57142e+06
9.49424e+06
9.41666e+06
9.33869e+06
9.26034e+06
9.18163e+06
9.10255e+06
9.02311e+06
8.94333e+06
8.86322e+06
8.78277e+06
8.70199e+06
8.62091e+06
8.53951e+06
8.45781e+06
8.37583e+06
8.29355e+06
8.211e+06
8.12818e+06
8.0451e+06
7.96176e+06
7.87818e+06
7.79435e+06
7.7103e+06
7.62602e+06
7.54152e+06
7.45682e+06
7.37191e+06
7.28682e+06
7.20153e+06
7.11608e+06
7.03045e+06
6.94466e+06
6.85873e+06
6.77265e+06
6.68643e+06
6.60009e+06
6.51364e+06
6.42707e+06
6.34041e+06
6.25366e+06
6.16683e+06
6.07993e+06
5.99297e+06
5.90596e+06
5.81891e+06
5.73183e+06
5.64473e+06
5.55762e+06
5.47052e+06
5.38343e+06
5.29637e+06
5.20934e+06
5.12236e+06
5.03545e+06
4.94861e+06
4.86185e+06
4.7752e+06
4.68865e+06
4.60224e+06
4.51596e+06
4.42984e+06
4.34388e+06
4.25811e+06
4.17254e+06
4.08718e+06
4.00204e+06
3.91715e+06
3.83252e+06
3.74817e+06
3.66411e+06
3.58036e+06
3.49695e+06
3.41388e+06
3.33117e+06
3.24885e+06
3.16694e+06
3.08545e+06
3.00441e+06
2.92383e+06
2.84375e+06
2.76418e+06
2.68515e+06
2.60668e+06
2.52881e+06
2.45156e+06
2.37496e+06
2.29905e+06
2.22388e+06
2.14948e+06
2.07592e+06
2.00326e+06
1.93159e+06
1.86107e+06
1.79189e+06
1.72443e+06
1.3411e+07
1.341e+07
1.34078e+07
1.34044e+07
1.34e+07
1.33943e+07
1.33875e+07
1.33795e+07
1.33703e+07
1.33598e+07
1.33481e+07
1.33351e+07
1.33209e+07
1.33054e+07
1.32886e+07
1.32705e+07
1.32512e+07
1.32305e+07
1.32086e+07
1.31854e+07
1.31609e+07
1.31351e+07
1.31081e+07
1.30798e+07
1.30503e+07
1.30196e+07
1.29877e+07
1.29545e+07
1.29202e+07
1.28846e+07
1.2848e+07
1.28101e+07
1.27712e+07
1.27311e+07
1.26899e+07
1.26477e+07
1.26043e+07
1.25599e+07
1.25145e+07
1.2468e+07
1.24205e+07
1.2372e+07
1.23225e+07
1.2272e+07
1.22206e+07
1.21682e+07
1.21149e+07
1.20607e+07
1.20056e+07
1.19497e+07
1.18929e+07
1.18352e+07
1.17768e+07
1.17176e+07
1.16576e+07
1.15968e+07
1.15354e+07
1.14732e+07
1.14103e+07
1.13467e+07
1.12825e+07
1.12176e+07
1.11521e+07
1.10859e+07
1.10192e+07
1.09518e+07
1.08838e+07
1.08153e+07
1.07462e+07
1.06765e+07
1.06063e+07
1.05355e+07
1.04642e+07
1.03925e+07
1.03202e+07
1.02474e+07
1.01741e+07
1.01004e+07
1.00262e+07
9.9515e+06
9.87639e+06
9.80085e+06
9.72488e+06
9.64849e+06
9.57169e+06
9.49449e+06
9.41689e+06
9.33891e+06
9.26055e+06
9.18182e+06
9.10272e+06
9.02328e+06
8.94349e+06
8.86336e+06
8.7829e+06
8.70211e+06
8.62102e+06
8.53961e+06
8.45791e+06
8.37591e+06
8.29363e+06
8.21108e+06
8.12825e+06
8.04516e+06
7.96182e+06
7.87823e+06
7.7944e+06
7.71034e+06
7.62606e+06
7.54156e+06
7.45685e+06
7.37195e+06
7.28685e+06
7.20156e+06
7.1161e+06
7.03047e+06
6.94468e+06
6.85874e+06
6.77266e+06
6.68645e+06
6.60011e+06
6.51365e+06
6.42709e+06
6.34042e+06
6.25367e+06
6.16684e+06
6.07994e+06
5.99298e+06
5.90597e+06
5.81891e+06
5.73183e+06
5.64473e+06
5.55763e+06
5.47052e+06
5.38343e+06
5.29637e+06
5.20934e+06
5.12237e+06
5.03545e+06
4.94861e+06
4.86185e+06
4.7752e+06
4.68866e+06
4.60224e+06
4.51596e+06
4.42984e+06
4.34389e+06
4.25811e+06
4.17254e+06
4.08718e+06
4.00204e+06
3.91715e+06
3.83252e+06
3.74817e+06
3.66411e+06
3.58036e+06
3.49695e+06
3.41387e+06
3.33117e+06
3.24885e+06
3.16694e+06
3.08545e+06
3.0044e+06
2.92383e+06
2.84374e+06
2.76417e+06
2.68514e+06
2.60667e+06
2.52879e+06
2.45154e+06
2.37493e+06
2.29902e+06
2.22383e+06
2.14942e+06
2.07584e+06
2.00314e+06
1.93143e+06
1.86082e+06
1.79146e+06
1.72358e+06
1.34257e+07
1.34246e+07
1.34223e+07
1.34189e+07
1.34144e+07
1.34086e+07
1.34017e+07
1.33935e+07
1.33841e+07
1.33735e+07
1.33616e+07
1.33484e+07
1.33339e+07
1.33182e+07
1.33012e+07
1.32828e+07
1.32632e+07
1.32423e+07
1.32201e+07
1.31966e+07
1.31718e+07
1.31457e+07
1.31184e+07
1.30898e+07
1.306e+07
1.3029e+07
1.29967e+07
1.29633e+07
1.29286e+07
1.28928e+07
1.28558e+07
1.28177e+07
1.27785e+07
1.27381e+07
1.26967e+07
1.26542e+07
1.26106e+07
1.25659e+07
1.25202e+07
1.24735e+07
1.24258e+07
1.2377e+07
1.23273e+07
1.22766e+07
1.2225e+07
1.21724e+07
1.21189e+07
1.20645e+07
1.20092e+07
1.19531e+07
1.18961e+07
1.18383e+07
1.17797e+07
1.17203e+07
1.16601e+07
1.15993e+07
1.15377e+07
1.14753e+07
1.14123e+07
1.13487e+07
1.12843e+07
1.12193e+07
1.11537e+07
1.10875e+07
1.10206e+07
1.09532e+07
1.08851e+07
1.08165e+07
1.07473e+07
1.06776e+07
1.06073e+07
1.05365e+07
1.04651e+07
1.03933e+07
1.03209e+07
1.02481e+07
1.01748e+07
1.0101e+07
1.00268e+07
9.95206e+06
9.87692e+06
9.80134e+06
9.72534e+06
9.64892e+06
9.57209e+06
9.49486e+06
9.41724e+06
9.33923e+06
9.26085e+06
9.1821e+06
9.10299e+06
9.02352e+06
8.94371e+06
8.86357e+06
8.78309e+06
8.7023e+06
8.62119e+06
8.53977e+06
8.45805e+06
8.37605e+06
8.29376e+06
8.21119e+06
8.12836e+06
8.04526e+06
7.96191e+06
7.87831e+06
7.79448e+06
7.71041e+06
7.62612e+06
7.54162e+06
7.45691e+06
7.37199e+06
7.28689e+06
7.2016e+06
7.11614e+06
7.03051e+06
6.94472e+06
6.85877e+06
6.77269e+06
6.68647e+06
6.60013e+06
6.51367e+06
6.4271e+06
6.34044e+06
6.25369e+06
6.16685e+06
6.07995e+06
5.99299e+06
5.90598e+06
5.81892e+06
5.73184e+06
5.64474e+06
5.55763e+06
5.47053e+06
5.38344e+06
5.29637e+06
5.20935e+06
5.12237e+06
5.03545e+06
4.94861e+06
4.86186e+06
4.7752e+06
4.68866e+06
4.60224e+06
4.51596e+06
4.42984e+06
4.34389e+06
4.25811e+06
4.17254e+06
4.08718e+06
4.00204e+06
3.91715e+06
3.83252e+06
3.74817e+06
3.66411e+06
3.58036e+06
3.49695e+06
3.41387e+06
3.33117e+06
3.24885e+06
3.16693e+06
3.08544e+06
3.0044e+06
2.92382e+06
2.84373e+06
2.76416e+06
2.68512e+06
2.60665e+06
2.52877e+06
2.45151e+06
2.3749e+06
2.29897e+06
2.22377e+06
2.14933e+06
2.07572e+06
2.00298e+06
1.9312e+06
1.86047e+06
1.7909e+06
1.72259e+06
1.34454e+07
1.34442e+07
1.34419e+07
1.34384e+07
1.34337e+07
1.34278e+07
1.34207e+07
1.34123e+07
1.34027e+07
1.33918e+07
1.33796e+07
1.33662e+07
1.33514e+07
1.33353e+07
1.3318e+07
1.32993e+07
1.32793e+07
1.3258e+07
1.32354e+07
1.32115e+07
1.31863e+07
1.31598e+07
1.31321e+07
1.31031e+07
1.30729e+07
1.30414e+07
1.30088e+07
1.29749e+07
1.29399e+07
1.29037e+07
1.28663e+07
1.28278e+07
1.27882e+07
1.27475e+07
1.27057e+07
1.26628e+07
1.26188e+07
1.25738e+07
1.25278e+07
1.24808e+07
1.24327e+07
1.23837e+07
1.23337e+07
1.22827e+07
1.22308e+07
1.21779e+07
1.21242e+07
1.20695e+07
1.2014e+07
1.19576e+07
1.19003e+07
1.18423e+07
1.17835e+07
1.17239e+07
1.16635e+07
1.16025e+07
1.15407e+07
1.14782e+07
1.14151e+07
1.13512e+07
1.12867e+07
1.12216e+07
1.11559e+07
1.10895e+07
1.10225e+07
1.0955e+07
1.08868e+07
1.08181e+07
1.07488e+07
1.0679e+07
1.06086e+07
1.05377e+07
1.04663e+07
1.03944e+07
1.0322e+07
1.02491e+07
1.01757e+07
1.01019e+07
1.00276e+07
9.95281e+06
9.87762e+06
9.802e+06
9.72595e+06
9.64949e+06
9.57262e+06
9.49536e+06
9.4177e+06
9.33966e+06
9.26125e+06
9.18247e+06
9.10333e+06
9.02385e+06
8.94401e+06
8.86385e+06
8.78335e+06
8.70254e+06
8.62141e+06
8.53998e+06
8.45825e+06
8.37623e+06
8.29392e+06
8.21134e+06
8.1285e+06
8.04539e+06
7.96203e+06
7.87842e+06
7.79458e+06
7.71051e+06
7.62621e+06
7.5417e+06
7.45698e+06
7.37206e+06
7.28695e+06
7.20166e+06
7.11619e+06
7.03055e+06
6.94476e+06
6.85881e+06
6.77272e+06
6.6865e+06
6.60016e+06
6.5137e+06
6.42713e+06
6.34046e+06
6.25371e+06
6.16687e+06
6.07997e+06
5.993e+06
5.90599e+06
5.81893e+06
5.73185e+06
5.64475e+06
5.55764e+06
5.47054e+06
5.38344e+06
5.29638e+06
5.20935e+06
5.12237e+06
5.03546e+06
4.94861e+06
4.86186e+06
4.7752e+06
4.68866e+06
4.60224e+06
4.51597e+06
4.42984e+06
4.34389e+06
4.25812e+06
4.17254e+06
4.08718e+06
4.00204e+06
3.91715e+06
3.83252e+06
3.74817e+06
3.66411e+06
3.58036e+06
3.49694e+06
3.41387e+06
3.33117e+06
3.24884e+06
3.16693e+06
3.08544e+06
3.00439e+06
2.92381e+06
2.84372e+06
2.76414e+06
2.6851e+06
2.60663e+06
2.52874e+06
2.45147e+06
2.37484e+06
2.2989e+06
2.22368e+06
2.14922e+06
2.07557e+06
2.00278e+06
1.93091e+06
1.86005e+06
1.79025e+06
1.72154e+06
1.34702e+07
1.3469e+07
1.34666e+07
1.34629e+07
1.34581e+07
1.3452e+07
1.34447e+07
1.3436e+07
1.34261e+07
1.34149e+07
1.34024e+07
1.33885e+07
1.33734e+07
1.33569e+07
1.33391e+07
1.33199e+07
1.32994e+07
1.32776e+07
1.32545e+07
1.32301e+07
1.32044e+07
1.31774e+07
1.31492e+07
1.31197e+07
1.3089e+07
1.3057e+07
1.30238e+07
1.29894e+07
1.29539e+07
1.29172e+07
1.28793e+07
1.28404e+07
1.28003e+07
1.27591e+07
1.27168e+07
1.26735e+07
1.26291e+07
1.25837e+07
1.25373e+07
1.24898e+07
1.24414e+07
1.2392e+07
1.23416e+07
1.22903e+07
1.2238e+07
1.21848e+07
1.21307e+07
1.20757e+07
1.20198e+07
1.19631e+07
1.19056e+07
1.18473e+07
1.17882e+07
1.17283e+07
1.16677e+07
1.16064e+07
1.15444e+07
1.14818e+07
1.14184e+07
1.13544e+07
1.12897e+07
1.12244e+07
1.11585e+07
1.1092e+07
1.10249e+07
1.09572e+07
1.08889e+07
1.08201e+07
1.07507e+07
1.06808e+07
1.06103e+07
1.05393e+07
1.04678e+07
1.03958e+07
1.03233e+07
1.02503e+07
1.01768e+07
1.01029e+07
1.00286e+07
9.95374e+06
9.87849e+06
9.80281e+06
9.72671e+06
9.6502e+06
9.57328e+06
9.49598e+06
9.41828e+06
9.3402e+06
9.26175e+06
9.18294e+06
9.10377e+06
9.02425e+06
8.94439e+06
8.86419e+06
8.78367e+06
8.70284e+06
8.62169e+06
8.54023e+06
8.45848e+06
8.37644e+06
8.29412e+06
8.21153e+06
8.12867e+06
8.04555e+06
7.96218e+06
7.87856e+06
7.7947e+06
7.71062e+06
7.62631e+06
7.54179e+06
7.45707e+06
7.37214e+06
7.28702e+06
7.20172e+06
7.11625e+06
7.03061e+06
6.94481e+06
6.85886e+06
6.77277e+06
6.68654e+06
6.60019e+06
6.51373e+06
6.42716e+06
6.34049e+06
6.25373e+06
6.16689e+06
6.07999e+06
5.99302e+06
5.906e+06
5.81895e+06
5.73186e+06
5.64476e+06
5.55765e+06
5.47054e+06
5.38345e+06
5.29639e+06
5.20936e+06
5.12238e+06
5.03546e+06
4.94862e+06
4.86186e+06
4.77521e+06
4.68866e+06
4.60225e+06
4.51597e+06
4.42985e+06
4.34389e+06
4.25812e+06
4.17254e+06
4.08718e+06
4.00205e+06
3.91716e+06
3.83253e+06
3.74817e+06
3.66411e+06
3.58036e+06
3.49694e+06
3.41387e+06
3.33116e+06
3.24884e+06
3.16692e+06
3.08543e+06
3.00438e+06
2.9238e+06
2.84371e+06
2.76413e+06
2.68508e+06
2.6066e+06
2.5287e+06
2.45142e+06
2.37478e+06
2.29882e+06
2.22358e+06
2.14908e+06
2.07539e+06
2.00253e+06
1.93057e+06
1.85957e+06
1.78955e+06
1.72049e+06
1.35003e+07
1.3499e+07
1.34965e+07
1.34927e+07
1.34877e+07
1.34814e+07
1.34737e+07
1.34648e+07
1.34545e+07
1.34429e+07
1.34299e+07
1.34156e+07
1.33999e+07
1.33829e+07
1.33645e+07
1.33448e+07
1.33237e+07
1.33013e+07
1.32776e+07
1.32526e+07
1.32263e+07
1.31986e+07
1.31698e+07
1.31396e+07
1.31082e+07
1.30756e+07
1.30418e+07
1.30068e+07
1.29707e+07
1.29333e+07
1.28949e+07
1.28553e+07
1.28147e+07
1.27729e+07
1.27301e+07
1.26862e+07
1.26414e+07
1.25954e+07
1.25485e+07
1.25006e+07
1.24518e+07
1.24019e+07
1.23511e+07
1.22994e+07
1.22467e+07
1.21931e+07
1.21386e+07
1.20832e+07
1.20269e+07
1.19698e+07
1.19119e+07
1.18532e+07
1.17938e+07
1.17336e+07
1.16727e+07
1.16112e+07
1.15489e+07
1.1486e+07
1.14224e+07
1.13582e+07
1.12933e+07
1.12278e+07
1.11617e+07
1.1095e+07
1.10277e+07
1.09599e+07
1.08914e+07
1.08225e+07
1.07529e+07
1.06829e+07
1.06123e+07
1.05411e+07
1.04695e+07
1.03974e+07
1.03248e+07
1.02517e+07
1.01782e+07
1.01042e+07
1.00297e+07
9.95484e+06
9.87952e+06
9.80377e+06
9.72761e+06
9.65104e+06
9.57407e+06
9.49671e+06
9.41896e+06
9.34084e+06
9.26234e+06
9.18349e+06
9.10428e+06
9.02473e+06
8.94483e+06
8.86461e+06
8.78406e+06
8.70319e+06
8.62202e+06
8.54054e+06
8.45877e+06
8.37671e+06
8.29437e+06
8.21175e+06
8.12888e+06
8.04574e+06
7.96235e+06
7.87872e+06
7.79485e+06
7.71076e+06
7.62644e+06
7.54191e+06
7.45717e+06
7.37224e+06
7.28711e+06
7.2018e+06
7.11632e+06
7.03068e+06
6.94487e+06
6.85891e+06
6.77282e+06
6.68659e+06
6.60024e+06
6.51377e+06
6.42719e+06
6.34052e+06
6.25376e+06
6.16692e+06
6.08001e+06
5.99304e+06
5.90602e+06
5.81897e+06
5.73188e+06
5.64478e+06
5.55766e+06
5.47056e+06
5.38346e+06
5.2964e+06
5.20937e+06
5.12239e+06
5.03547e+06
4.94863e+06
4.86187e+06
4.77521e+06
4.68867e+06
4.60225e+06
4.51597e+06
4.42985e+06
4.3439e+06
4.25812e+06
4.17255e+06
4.08718e+06
4.00205e+06
3.91716e+06
3.83253e+06
3.74817e+06
3.66411e+06
3.58036e+06
3.49694e+06
3.41387e+06
3.33116e+06
3.24884e+06
3.16692e+06
3.08542e+06
3.00437e+06
2.92379e+06
2.84369e+06
2.76411e+06
2.68505e+06
2.60656e+06
2.52866e+06
2.45136e+06
2.37471e+06
2.29873e+06
2.22346e+06
2.14893e+06
2.07518e+06
2.00225e+06
1.9302e+06
1.85904e+06
1.78881e+06
1.71945e+06
1.35359e+07
1.35346e+07
1.35319e+07
1.3528e+07
1.35227e+07
1.35161e+07
1.35081e+07
1.34987e+07
1.3488e+07
1.34759e+07
1.34624e+07
1.34475e+07
1.34312e+07
1.34135e+07
1.33945e+07
1.33741e+07
1.33523e+07
1.33292e+07
1.33047e+07
1.32789e+07
1.32518e+07
1.32234e+07
1.31938e+07
1.31628e+07
1.31307e+07
1.30973e+07
1.30628e+07
1.3027e+07
1.29902e+07
1.29521e+07
1.2913e+07
1.28727e+07
1.28314e+07
1.2789e+07
1.27455e+07
1.2701e+07
1.26555e+07
1.26091e+07
1.25616e+07
1.25132e+07
1.24638e+07
1.24135e+07
1.23622e+07
1.231e+07
1.22568e+07
1.22027e+07
1.21477e+07
1.20918e+07
1.20351e+07
1.19775e+07
1.19192e+07
1.18601e+07
1.18003e+07
1.17397e+07
1.16785e+07
1.16166e+07
1.15541e+07
1.14908e+07
1.1427e+07
1.13625e+07
1.12974e+07
1.12317e+07
1.11654e+07
1.10985e+07
1.1031e+07
1.09629e+07
1.08943e+07
1.08252e+07
1.07555e+07
1.06853e+07
1.06145e+07
1.05433e+07
1.04715e+07
1.03993e+07
1.03266e+07
1.02534e+07
1.01797e+07
1.01056e+07
1.00311e+07
9.95612e+06
9.88071e+06
9.80489e+06
9.72865e+06
9.65201e+06
9.57498e+06
9.49756e+06
9.41975e+06
9.34157e+06
9.26303e+06
9.18413e+06
9.10488e+06
9.02528e+06
8.94535e+06
8.86508e+06
8.7845e+06
8.7036e+06
8.6224e+06
8.54089e+06
8.45909e+06
8.37701e+06
8.29465e+06
8.21201e+06
8.12911e+06
8.04596e+06
7.96255e+06
7.87891e+06
7.79502e+06
7.71091e+06
7.62658e+06
7.54204e+06
7.45729e+06
7.37235e+06
7.28721e+06
7.2019e+06
7.11641e+06
7.03075e+06
6.94494e+06
6.85898e+06
6.77288e+06
6.68664e+06
6.60028e+06
6.51381e+06
6.42723e+06
6.34055e+06
6.25379e+06
6.16695e+06
6.08004e+06
5.99306e+06
5.90604e+06
5.81898e+06
5.7319e+06
5.64479e+06
5.55768e+06
5.47057e+06
5.38347e+06
5.29641e+06
5.20937e+06
5.12239e+06
5.03548e+06
4.94863e+06
4.86188e+06
4.77522e+06
4.68867e+06
4.60226e+06
4.51598e+06
4.42986e+06
4.3439e+06
4.25813e+06
4.17255e+06
4.08719e+06
4.00205e+06
3.91716e+06
3.83253e+06
3.74817e+06
3.66411e+06
3.58036e+06
3.49694e+06
3.41387e+06
3.33116e+06
3.24883e+06
3.16691e+06
3.08541e+06
3.00436e+06
2.92377e+06
2.84367e+06
2.76408e+06
2.68502e+06
2.60652e+06
2.52861e+06
2.4513e+06
2.37463e+06
2.29863e+06
2.22332e+06
2.14875e+06
2.07495e+06
2.00195e+06
1.92979e+06
1.8585e+06
1.78806e+06
1.71844e+06
1.35774e+07
1.35759e+07
1.35731e+07
1.35689e+07
1.35633e+07
1.35563e+07
1.35479e+07
1.35381e+07
1.35268e+07
1.35141e+07
1.34999e+07
1.34843e+07
1.34673e+07
1.34489e+07
1.3429e+07
1.34078e+07
1.33851e+07
1.33611e+07
1.33358e+07
1.33091e+07
1.32811e+07
1.32518e+07
1.32212e+07
1.31894e+07
1.31564e+07
1.31221e+07
1.30867e+07
1.30501e+07
1.30123e+07
1.29735e+07
1.29335e+07
1.28924e+07
1.28503e+07
1.28072e+07
1.2763e+07
1.27178e+07
1.26717e+07
1.26245e+07
1.25765e+07
1.25275e+07
1.24775e+07
1.24266e+07
1.23748e+07
1.2322e+07
1.22683e+07
1.22136e+07
1.21581e+07
1.21017e+07
1.20444e+07
1.19863e+07
1.19275e+07
1.18679e+07
1.18076e+07
1.17467e+07
1.1685e+07
1.16228e+07
1.15599e+07
1.14963e+07
1.14322e+07
1.13674e+07
1.1302e+07
1.12361e+07
1.11695e+07
1.11024e+07
1.10347e+07
1.09664e+07
1.08976e+07
1.08283e+07
1.07584e+07
1.0688e+07
1.06171e+07
1.05457e+07
1.04738e+07
1.04014e+07
1.03286e+07
1.02553e+07
1.01815e+07
1.01073e+07
1.00326e+07
9.95756e+06
9.88206e+06
9.80615e+06
9.72983e+06
9.65311e+06
9.57601e+06
9.49851e+06
9.42065e+06
9.34241e+06
9.26381e+06
9.18485e+06
9.10555e+06
9.0259e+06
8.94593e+06
8.86562e+06
8.785e+06
8.70407e+06
8.62283e+06
8.54129e+06
8.45946e+06
8.37735e+06
8.29496e+06
8.2123e+06
8.12938e+06
8.04621e+06
7.96278e+06
7.87912e+06
7.79522e+06
7.71109e+06
7.62675e+06
7.54219e+06
7.45743e+06
7.37247e+06
7.28733e+06
7.202e+06
7.11651e+06
7.03084e+06
6.94502e+06
6.85905e+06
6.77294e+06
6.6867e+06
6.60034e+06
6.51386e+06
6.42728e+06
6.3406e+06
6.25383e+06
6.16698e+06
6.08007e+06
5.99309e+06
5.90607e+06
5.81901e+06
5.73192e+06
5.64481e+06
5.55769e+06
5.47058e+06
5.38349e+06
5.29642e+06
5.20939e+06
5.1224e+06
5.03548e+06
4.94864e+06
4.86188e+06
4.77523e+06
4.68868e+06
4.60226e+06
4.51598e+06
4.42986e+06
4.3439e+06
4.25813e+06
4.17255e+06
4.08719e+06
4.00205e+06
3.91716e+06
3.83253e+06
3.74817e+06
3.66411e+06
3.58036e+06
3.49694e+06
3.41386e+06
3.33115e+06
3.24883e+06
3.1669e+06
3.0854e+06
3.00435e+06
2.92376e+06
2.84365e+06
2.76406e+06
2.68499e+06
2.60648e+06
2.52855e+06
2.45123e+06
2.37454e+06
2.29851e+06
2.22318e+06
2.14857e+06
2.07471e+06
2.00163e+06
1.92937e+06
1.85793e+06
1.78732e+06
1.71747e+06
1.36249e+07
1.36233e+07
1.36202e+07
1.36158e+07
1.36098e+07
1.36024e+07
1.35935e+07
1.3583e+07
1.35711e+07
1.35577e+07
1.35427e+07
1.35263e+07
1.35084e+07
1.3489e+07
1.34682e+07
1.3446e+07
1.34223e+07
1.33973e+07
1.33709e+07
1.33431e+07
1.33141e+07
1.32837e+07
1.32521e+07
1.32193e+07
1.31852e+07
1.31499e+07
1.31135e+07
1.30759e+07
1.30372e+07
1.29974e+07
1.29565e+07
1.29145e+07
1.28715e+07
1.28275e+07
1.27825e+07
1.27366e+07
1.26897e+07
1.26418e+07
1.25931e+07
1.25434e+07
1.24928e+07
1.24413e+07
1.23889e+07
1.23355e+07
1.22811e+07
1.22258e+07
1.21697e+07
1.21126e+07
1.20548e+07
1.19961e+07
1.19367e+07
1.18766e+07
1.18158e+07
1.17543e+07
1.16923e+07
1.16296e+07
1.15663e+07
1.15024e+07
1.14379e+07
1.13728e+07
1.13072e+07
1.12409e+07
1.11741e+07
1.11067e+07
1.10387e+07
1.09702e+07
1.09012e+07
1.08317e+07
1.07616e+07
1.0691e+07
1.06199e+07
1.05484e+07
1.04763e+07
1.04038e+07
1.03308e+07
1.02573e+07
1.01834e+07
1.01091e+07
1.00343e+07
9.95916e+06
9.88355e+06
9.80755e+06
9.73114e+06
9.65433e+06
9.57715e+06
9.49958e+06
9.42164e+06
9.34333e+06
9.26467e+06
9.18565e+06
9.10629e+06
9.0266e+06
8.94657e+06
8.86622e+06
8.78556e+06
8.70458e+06
8.62331e+06
8.54173e+06
8.45987e+06
8.37773e+06
8.29531e+06
8.21263e+06
8.12968e+06
8.04648e+06
7.96304e+06
7.87935e+06
7.79543e+06
7.71129e+06
7.62693e+06
7.54236e+06
7.45758e+06
7.37261e+06
7.28746e+06
7.20212e+06
7.11661e+06
7.03094e+06
6.94511e+06
6.85913e+06
6.77302e+06
6.68677e+06
6.6004e+06
6.51392e+06
6.42733e+06
6.34064e+06
6.25387e+06
6.16702e+06
6.0801e+06
5.99312e+06
5.9061e+06
5.81903e+06
5.73194e+06
5.64483e+06
5.55771e+06
5.4706e+06
5.3835e+06
5.29643e+06
5.2094e+06
5.12241e+06
5.03549e+06
4.94865e+06
4.86189e+06
4.77523e+06
4.68869e+06
4.60227e+06
4.51599e+06
4.42987e+06
4.34391e+06
4.25813e+06
4.17256e+06
4.08719e+06
4.00206e+06
3.91716e+06
3.83253e+06
3.74818e+06
3.66411e+06
3.58036e+06
3.49694e+06
3.41386e+06
3.33115e+06
3.24882e+06
3.1669e+06
3.08539e+06
3.00433e+06
2.92374e+06
2.84363e+06
2.76403e+06
2.68495e+06
2.60644e+06
2.52849e+06
2.45116e+06
2.37445e+06
2.29839e+06
2.22303e+06
2.14837e+06
2.07445e+06
2.0013e+06
1.92894e+06
1.85737e+06
1.78659e+06
1.71654e+06
1.36788e+07
1.36771e+07
1.36738e+07
1.3669e+07
1.36626e+07
1.36546e+07
1.36451e+07
1.36339e+07
1.36212e+07
1.36069e+07
1.3591e+07
1.35736e+07
1.35546e+07
1.35342e+07
1.35122e+07
1.34888e+07
1.3464e+07
1.34377e+07
1.34101e+07
1.33811e+07
1.33509e+07
1.33193e+07
1.32865e+07
1.32524e+07
1.32172e+07
1.31808e+07
1.31432e+07
1.31045e+07
1.30646e+07
1.30237e+07
1.29818e+07
1.29388e+07
1.28949e+07
1.28499e+07
1.2804e+07
1.27572e+07
1.27095e+07
1.26609e+07
1.26113e+07
1.25609e+07
1.25096e+07
1.24574e+07
1.24042e+07
1.23501e+07
1.22951e+07
1.22391e+07
1.21823e+07
1.21246e+07
1.2066e+07
1.20067e+07
1.19467e+07
1.1886e+07
1.18247e+07
1.17627e+07
1.17002e+07
1.16371e+07
1.15734e+07
1.15091e+07
1.14442e+07
1.13788e+07
1.13128e+07
1.12462e+07
1.11791e+07
1.11114e+07
1.10432e+07
1.09744e+07
1.09052e+07
1.08354e+07
1.07651e+07
1.06943e+07
1.0623e+07
1.05513e+07
1.0479e+07
1.04063e+07
1.03332e+07
1.02596e+07
1.01856e+07
1.01111e+07
1.00362e+07
9.9609e+06
9.88519e+06
9.80908e+06
9.73257e+06
9.65567e+06
9.57839e+06
9.50074e+06
9.42272e+06
9.34434e+06
9.26561e+06
9.18653e+06
9.10711e+06
9.02736e+06
8.94728e+06
8.86688e+06
8.78617e+06
8.70515e+06
8.62383e+06
8.54222e+06
8.46032e+06
8.37815e+06
8.2957e+06
8.21298e+06
8.13001e+06
8.04678e+06
7.96331e+06
7.87961e+06
7.79567e+06
7.7115e+06
7.62713e+06
7.54254e+06
7.45775e+06
7.37277e+06
7.2876e+06
7.20225e+06
7.11673e+06
7.03105e+06
6.94521e+06
6.85922e+06
6.7731e+06
6.68685e+06
6.60047e+06
6.51398e+06
6.42738e+06