/*--------------------------------*- C++ -*----------------------------------*\
  =========                 |
  \\      /  F ield         | OpenFOAM: The Open Source CFD Toolbox
   \\    /   O peration     | Website:  https://openfoam.org
    \\  /    A nd           | Version:  10
     \\/     M anipulation  |
\*---------------------------------------------------------------------------*/
FoamFile
{
    format      ascii;
    class       volVectorField;
    location    "12";
    object      Ub;
}
// * * * * * * * * * * * * * * * * * * * * * * * * * * * * * * * * * * * * * //

dimensions      [0 1 -1 0 0 0 0];

internalField   nonuniform List<vector> 
100
(
(1.32673e-06 0 0)
(3.99969e-06 0 0)
(6.7046e-06 0 0)
(9.43232e-06 0 0)
(1.21814e-05 0 0)
(1.49538e-05 0 0)
(1.77531e-05 0 0)
(2.05836e-05 0 0)
(2.34508e-05 0 0)
(2.63608e-05 0 0)
(2.93215e-05 0 0)
(3.23427e-05 0 0)
(3.5437e-05 0 0)
(3.86213e-05 0 0)
(4.1919e-05 0 0)
(4.53631e-05 0 0)
(4.90032e-05 0 0)
(5.29167e-05 0 0)
(5.72339e-05 0 0)
(6.21942e-05 0 0)
(6.82964e-05 0 0)
(7.67753e-05 0 0)
(9.18241e-05 0 0)
(0.000142562 0 0)
(0.000294483 0 0)
(0.000405934 0 0)
(0.000406211 0 0)
(0.000406211 0 0)
(0.000406211 0 0)
(0.000406211 0 0)
(0.000406211 0 0)
(0.000406211 0 0)
(0.000406211 0 0)
(0.000406211 0 0)
(0.000406211 0 0)
(0.000406211 0 0)
(0.000406211 0 0)
(0.000406211 0 0)
(0.000406211 0 0)
(0.000406211 0 0)
(0.000406211 0 0)
(0.000406211 0 0)
(0.000406211 0 0)
(0.000406211 0 0)
(0.000406211 0 0)
(0.000406211 0 0)
(0.000406211 0 0)
(0.000406211 0 0)
(0.000406211 0 0)
(0.000406211 0 0)
(0.000406211 0 0)
(0.000406211 0 0)
(0.000406211 0 0)
(0.000406211 0 0)
(0.000406211 0 0)
(0.000406211 0 0)
(0.000406211 0 0)
(0.000406211 0 0)
(0.000406211 0 0)
(0.000406211 0 0)
(0.000406211 0 0)
(0.000406211 0 0)
(0.000406211 0 0)
(0.000406211 0 0)
(0.000406211 0 0)
(0.000406211 0 0)
(0.000406211 0 0)
(0.000406211 0 0)
(0.000406211 0 0)
(0.000406211 0 0)
(0.000406211 0 0)
(0.000406211 0 0)
(0.000406211 0 0)
(0.000406211 0 0)
(0.000406211 0 0)
(0.000406211 0 0)
(0.000406211 0 0)
(0.000406211 0 0)
(0.000406211 0 0)
(0.000406211 0 0)
(0.000406211 0 0)
(0.000406211 0 0)
(0.000406211 0 0)
(0.000406211 0 0)
(0.000406211 0 0)
(0.000406211 0 0)
(0.000406211 0 0)
(0.000406211 0 0)
(0.000406211 0 0)
(0.000406211 0 0)
(0.000406211 0 0)
(0.000406211 0 0)
(0.000406211 0 0)
(0.000406211 0 0)
(0.000406211 0 0)
(0.000406211 0 0)
(0.000406211 0 0)
(0.000406211 0 0)
(0.000406211 0 0)
(0.000406211 0 0)
)
;

boundaryField
{
    inlet
    {
        type            fixedValue;
        value           uniform (0 0 0);
    }
    outlet
    {
        type            zeroGradient;
    }
    yzfaces
    {
        type            empty;
    }
}


// ************************************************************************* //
