/*--------------------------------*- C++ -*----------------------------------*\
  =========                 |
  \\      /  F ield         | OpenFOAM: The Open Source CFD Toolbox
   \\    /   O peration     | Website:  https://openfoam.org
    \\  /    A nd           | Version:  10
     \\/     M anipulation  |
\*---------------------------------------------------------------------------*/
FoamFile
{
    format      ascii;
    class       surfaceScalarField;
    location    "1.97";
    object      phi;
}
// * * * * * * * * * * * * * * * * * * * * * * * * * * * * * * * * * * * * * //

dimensions      [0 3 -1 0 0 0 0];

internalField   nonuniform List<scalar> 
24170
(
1.4574e-09
-1.4574e-09
2.70493e-09
-1.24752e-09
3.69222e-09
-9.87298e-10
4.4383e-09
-7.46078e-10
4.99225e-09
-5.53948e-10
5.40709e-09
-4.14843e-10
5.72852e-09
-3.21426e-10
5.99249e-09
-2.63974e-10
6.22673e-09
-2.34238e-10
6.4534e-09
-2.26672e-10
6.69215e-09
-2.38744e-10
6.96348e-09
-2.71335e-10
7.29359e-09
-3.30104e-10
7.72312e-09
-4.29535e-10
8.32829e-09
-6.05171e-10
9.28553e-09
-9.57241e-10
1.11414e-08
-1.85586e-09
-5.2954e-09
1.64368e-08
1.65322e-09
-3.11062e-09
3.06242e-09
-2.65672e-09
4.17092e-09
-2.09579e-09
5.00272e-09
-1.57788e-09
5.61574e-09
-1.16697e-09
6.07145e-09
-8.70552e-10
6.4222e-09
-6.72171e-10
6.7088e-09
-5.5058e-10
6.96245e-09
-4.87891e-10
7.20787e-09
-4.72088e-10
7.4667e-09
-4.9757e-10
7.76121e-09
-5.6585e-10
8.11924e-09
-6.88133e-10
8.5826e-09
-8.92895e-10
9.22496e-09
-1.24753e-09
1.01941e-08
-1.92639e-09
1.17918e-08
-3.45351e-09
-7.59453e-09
1.40909e-08
1.84866e-09
-4.95929e-09
3.41542e-09
-4.22348e-09
4.638e-09
-3.31837e-09
5.5475e-09
-2.48739e-09
6.21216e-09
-1.83163e-09
6.70243e-09
-1.36082e-09
7.07731e-09
-1.04705e-09
7.38215e-09
-8.55424e-10
7.65118e-09
-7.56918e-10
7.91111e-09
-7.32025e-10
8.18491e-09
-7.71364e-10
8.49547e-09
-8.76412e-10
8.87011e-09
-1.06277e-09
9.34688e-09
-1.36966e-09
9.98417e-09
-1.88482e-09
1.08678e-08
-2.81004e-09
1.20416e-08
-4.62726e-09
-8.37593e-09
1.2823e-08
2.06614e-09
-7.02543e-09
3.80297e-09
-5.96032e-09
5.14314e-09
-4.65854e-09
6.12851e-09
-3.47276e-09
6.84077e-09
-2.54388e-09
7.36115e-09
-1.8812e-09
7.75597e-09
-1.44187e-09
8.07525e-09
-1.1747e-09
8.35602e-09
-1.03768e-09
8.62659e-09
-1.00259e-09
8.91054e-09
-1.05532e-09
9.23027e-09
-1.19614e-09
9.61041e-09
-1.44292e-09
1.00809e-08
-1.84017e-09
1.06768e-08
-2.48069e-09
1.14166e-08
-3.54987e-09
1.21806e-08
-5.39123e-09
-8.43957e-09
1.22442e-08
2.31928e-09
-9.3447e-09
4.24682e-09
-7.88786e-09
5.7112e-09
-6.12292e-09
6.77087e-09
-4.53242e-09
7.52573e-09
-3.29875e-09
8.07045e-09
-2.42592e-09
8.47975e-09
-1.85117e-09
8.80847e-09
-1.50342e-09
9.09623e-09
-1.32545e-09
9.37246e-09
-1.27882e-09
9.6606e-09
-1.34345e-09
9.98131e-09
-1.51686e-09
1.03546e-08
-1.81617e-09
1.07992e-08
-2.2848e-09
1.13245e-08
-3.00604e-09
1.18959e-08
-4.12124e-09
1.23271e-08
-5.82247e-09
-8.18322e-09
1.20708e-08
2.62322e-09
-1.19679e-08
4.76947e-09
-1.00341e-08
6.36576e-09
-7.71921e-09
7.49621e-09
-5.66287e-09
8.28592e-09
-4.08846e-09
8.84655e-09
-2.98655e-09
9.26255e-09
-2.26716e-09
9.5938e-09
-1.83468e-09
9.88217e-09
-1.61381e-09
1.01575e-08
-1.5542e-09
1.04424e-08
-1.62827e-09
1.07544e-08
-1.82892e-09
1.11075e-08
-2.16927e-09
1.15083e-08
-2.68552e-09
1.19434e-08
-3.44121e-09
1.23466e-08
-4.52436e-09
1.25308e-08
-6.0067e-09
-7.79496e-09
1.21425e-08
2.99837e-09
-1.49663e-08
5.3996e-09
-1.24353e-08
7.13493e-09
-9.45454e-09
8.32855e-09
-6.85649e-09
9.14074e-09
-4.90065e-09
9.70484e-09
-3.55065e-09
1.01166e-08
-2.6789e-09
1.04409e-08
-2.159e-09
1.07214e-08
-1.89427e-09
1.09875e-08
-1.82038e-09
1.126e-08
-1.90072e-09
1.15526e-08
-2.12152e-09
1.18723e-08
-2.48894e-09
1.22142e-08
-3.02742e-09
1.25491e-08
-3.77613e-09
1.27991e-08
-4.77436e-09
1.28091e-08
-6.01669e-09
-7.35963e-09
1.23737e-08
3.4745e-09
-1.84408e-08
6.17682e-09
-1.51377e-08
8.0552e-09
-1.13329e-08
9.29713e-09
-8.09842e-09
1.01124e-08
-5.7159e-09
1.06619e-08
-4.10015e-09
1.10541e-08
-3.07113e-09
1.13588e-08
-2.4637e-09
1.16203e-08
-2.1558e-09
1.1867e-08
-2.06705e-09
1.21165e-08
-2.15019e-09
1.23781e-08
-2.38312e-09
1.26519e-08
-2.76276e-09
1.2924e-08
-3.29952e-09
1.31566e-08
-4.00876e-09
1.32752e-08
-4.89292e-09
1.31655e-08
-5.90696e-09
-6.91335e-09
1.27192e-08
4.09732e-09
-2.25381e-08
7.15815e-09
-1.81985e-08
9.17572e-09
-1.33505e-08
1.04389e-08
-9.36161e-09
1.12272e-08
-6.5042e-09
1.17362e-08
-4.60913e-09
1.20881e-08
-3.42308e-09
1.23566e-08
-2.73216e-09
1.25853e-08
-2.38454e-09
1.28001e-08
-2.28178e-09
1.30147e-08
-2.36479e-09
1.32335e-08
-2.60195e-09
1.34506e-08
-2.97987e-09
1.3646e-08
-3.49494e-09
1.37801e-08
-4.14282e-09
1.37897e-08
-4.90255e-09
1.35982e-08
-5.71541e-09
-6.47002e-09
1.31548e-08
4.94018e-09
-2.74783e-08
8.42822e-09
-2.16865e-08
1.05639e-08
-1.54862e-08
1.18009e-08
-1.05987e-08
1.25166e-08
-7.2199e-09
1.29486e-08
-5.04106e-09
1.32324e-08
-3.70697e-09
1.34434e-08
-2.94307e-09
1.36223e-08
-2.56345e-09
1.37906e-08
-2.45013e-09
1.39575e-08
-2.53163e-09
1.4122e-08
-2.76653e-09
1.42735e-08
-3.13137e-09
1.4389e-08
-3.61043e-09
1.44316e-08
-4.18536e-09
1.43524e-08
-4.8234e-09
1.41041e-08
-5.46706e-09
-6.03369e-09
1.36677e-08
6.12645e-09
-3.36048e-08
1.0116e-08
-2.5676e-08
1.23129e-08
-1.76831e-08
1.34426e-08
-1.17284e-08
1.40172e-08
-7.79441e-09
1.43214e-08
-5.34527e-09
1.45009e-08
-3.88647e-09
1.46277e-08
-3.06992e-09
1.47366e-08
-2.67229e-09
1.48423e-08
-2.55584e-09
1.49479e-08
-2.63725e-09
1.50475e-08
-2.86613e-09
1.51266e-08
-3.21045e-09
1.51616e-08
-3.64549e-09
1.5121e-08
-4.14468e-09
1.49695e-08
-4.67192e-09
1.46802e-08
-5.17779e-09
-5.60413e-09
1.42507e-08
6.53371e-09
-4.01385e-08
1.03392e-08
-2.94816e-08
1.21443e-08
-1.94882e-08
1.29104e-08
-1.24944e-08
1.32078e-08
-8.09191e-09
1.33125e-08
-5.4499e-09
1.33472e-08
-3.92115e-09
1.3364e-08
-3.08681e-09
1.33833e-08
-2.69158e-09
1.34101e-08
-2.58259e-09
1.3441e-08
-2.66819e-09
1.3467e-08
-2.89212e-09
1.34736e-08
-3.21706e-09
1.34416e-08
-3.6135e-09
1.33488e-08
-4.0518e-09
1.31739e-08
-4.4971e-09
1.29046e-08
-4.9085e-09
-5.244e-09
1.25445e-08
9.70892e-09
-4.98474e-08
1.45327e-08
-3.43053e-08
1.63425e-08
-2.1298e-08
1.68415e-08
-1.29933e-08
1.68624e-08
-8.11286e-09
1.6744e-08
-5.33148e-09
1.66104e-08
-3.78752e-09
1.65009e-08
-2.97736e-09
1.64225e-08
-2.61319e-09
1.63693e-08
-2.52938e-09
1.63295e-08
-2.62841e-09
1.62877e-08
-2.85027e-09
1.62252e-08
-3.15456e-09
1.61213e-08
-3.5096e-09
1.59552e-08
-3.88577e-09
1.57106e-08
-4.25242e-09
1.53803e-08
-4.57825e-09
-4.83514e-09
1.49714e-08
1.56741e-08
-6.55215e-08
2.14466e-08
-4.00779e-08
2.26189e-08
-2.24703e-08
2.23281e-08
-1.27025e-08
2.17295e-08
-7.5142e-09
2.11701e-08
-4.77217e-09
2.07265e-08
-3.34383e-09
2.03938e-08
-2.6447e-09
2.01474e-08
-2.36685e-09
1.996e-08
-2.34196e-09
1.98053e-08
-2.47372e-09
1.96585e-08
-2.70348e-09
1.94958e-08
-2.99186e-09
1.9295e-08
-3.30875e-09
1.90373e-08
-3.62802e-09
1.87103e-08
-3.92546e-09
1.83114e-08
-4.17934e-09
-4.37257e-09
1.78488e-08
2.8672e-08
-9.41934e-08
3.37052e-08
-4.51111e-08
3.2298e-08
-2.10632e-08
3.00605e-08
-1.04649e-08
2.82092e-08
-5.66293e-09
2.68527e-08
-3.41563e-09
2.58849e-08
-2.37612e-09
2.51907e-08
-1.95046e-09
2.46801e-08
-1.85626e-09
2.4287e-08
-1.94888e-09
2.39619e-08
-2.14855e-09
2.36659e-08
-2.40752e-09
2.33681e-08
-2.69408e-09
2.3044e-08
-2.98462e-09
2.26758e-08
-3.25987e-09
2.2254e-08
-3.50366e-09
2.17778e-08
-3.70316e-09
-3.84978e-09
2.12551e-08
6.32584e-08
-1.57452e-07
5.67237e-08
-3.85764e-08
4.71449e-08
-1.14844e-08
4.06637e-08
-3.98374e-09
3.65739e-08
-1.57311e-09
3.39469e-08
-7.88658e-10
3.21982e-08
-6.27337e-10
3.0986e-08
-7.38261e-10
3.01066e-08
-9.76859e-10
2.94326e-08
-1.27494e-09
2.888e-08
-1.59593e-09
2.83907e-08
-1.91823e-09
2.79238e-08
-2.22715e-09
2.74507e-08
-2.51155e-09
2.69534e-08
-2.76254e-09
2.6423e-08
-2.97323e-09
2.58588e-08
-3.13898e-09
-3.25777e-09
2.52668e-08
1.83085e-07
1.5907e-07
9.69152e-08
4.75931e-08
6.66882e-08
1.87425e-08
5.33509e-08
9.35359e-09
4.63593e-08
5.41853e-09
4.22334e-08
3.3372e-09
3.95872e-08
2.01883e-09
3.77758e-08
1.07314e-09
3.64611e-08
3.37907e-10
3.54456e-08
-2.59506e-10
3.46091e-08
-7.59364e-10
3.38772e-08
-1.18634e-09
3.32008e-08
-1.55074e-09
3.25478e-08
-1.8586e-09
3.18989e-08
-2.1136e-09
3.12441e-08
-2.31845e-09
3.0581e-08
-2.47582e-09
-2.58884e-09
2.9912e-08
7.72401e-08
8.18295e-08
7.5438e-08
4.93952e-08
6.53945e-08
2.87861e-08
5.73959e-08
1.73522e-08
5.19067e-08
1.09078e-08
4.81806e-08
7.06323e-09
4.55865e-08
4.61291e-09
4.37096e-08
2.95011e-09
4.22883e-08
1.75922e-09
4.116e-08
8.68799e-10
4.02193e-08
1.81305e-10
3.93871e-08
-3.54096e-10
3.86162e-08
-7.79871e-10
3.78791e-08
-1.12156e-09
3.71594e-08
-1.39386e-09
3.64483e-08
-1.60739e-09
3.5743e-08
-1.77044e-09
-1.88993e-09
3.50441e-08
3.59446e-08
4.58849e-08
5.01266e-08
3.52132e-08
5.38107e-08
2.5102e-08
5.36371e-08
1.75258e-08
5.23247e-08
1.22201e-08
5.08429e-08
8.545e-09
4.9487e-08
5.96883e-09
4.8312e-08
4.12507e-09
4.72965e-08
2.77478e-09
4.64011e-08
1.76418e-09
4.55887e-08
9.93718e-10
4.48366e-08
3.98005e-10
4.41225e-08
-6.57909e-11
4.34255e-08
-4.24575e-10
4.27375e-08
-7.05891e-10
4.20549e-08
-9.24761e-10
4.13771e-08
-1.09262e-09
-1.21845e-09
4.07056e-08
1.43043e-08
3.15805e-08
2.32848e-08
2.62327e-08
2.80874e-08
2.02994e-08
3.04334e-08
1.51798e-08
3.14794e-08
1.11742e-08
3.18652e-08
8.15916e-09
3.1919e-08
5.91508e-09
3.18029e-08
4.24117e-09
3.15956e-08
2.982e-09
3.13352e-08
2.02463e-09
3.10399e-08
1.28903e-09
3.07191e-08
7.1879e-10
3.03793e-08
2.73977e-10
3.00275e-08
-7.27129e-11
2.96623e-08
-3.40714e-10
2.92872e-08
-5.49655e-10
2.89055e-08
-7.10949e-10
-8.33511e-10
2.85206e-08
8.56472e-09
2.30158e-08
1.49525e-08
1.98448e-08
1.91908e-08
1.60611e-08
2.18493e-08
1.25213e-08
2.34722e-08
9.55129e-09
2.44447e-08
7.18658e-09
2.50111e-08
5.3487e-09
2.53194e-08
3.93291e-09
2.54584e-08
2.84298e-09
2.54821e-08
2.00097e-09
2.54239e-08
1.34718e-09
2.53057e-08
8.36983e-10
2.51424e-08
4.37333e-10
2.4946e-08
1.2371e-10
2.47255e-08
-1.20225e-10
2.44854e-08
-3.09552e-10
2.42311e-08
-4.56637e-10
-5.69557e-10
2.39671e-08
5.77853e-09
1.72373e-08
1.04604e-08
1.5163e-08
1.39217e-08
1.25998e-08
1.63585e-08
1.00845e-08
1.80324e-08
7.87736e-09
1.9167e-08
6.05204e-09
1.99264e-08
4.58928e-09
2.0424e-08
3.43529e-09
2.07363e-08
2.53072e-09
2.09147e-08
1.82254e-09
2.09945e-08
1.26735e-09
2.10004e-08
8.31096e-10
2.09501e-08
4.87633e-10
2.08568e-08
2.17016e-10
2.07325e-08
4.04196e-12
2.05836e-08
-1.60634e-10
2.04162e-08
-2.89225e-10
-3.88697e-10
2.02354e-08
4.20533e-09
1.3032e-08
7.76871e-09
1.15996e-08
1.05705e-08
9.79803e-09
1.26774e-08
7.97768e-09
1.42218e-08
6.33297e-09
1.53366e-08
4.93726e-09
1.61314e-08
3.79448e-09
1.66895e-08
2.87719e-09
1.70718e-08
2.14836e-09
1.73226e-08
1.57179e-09
1.74738e-08
1.11617e-09
1.75489e-08
7.5599e-10
1.75654e-08
4.71064e-10
1.75368e-08
2.4565e-10
1.74733e-08
6.75161e-11
1.73843e-08
-7.1617e-11
1.7275e-08
-1.79933e-10
-2.64233e-10
1.71506e-08
3.21693e-09
9.81503e-09
6.01547e-09
8.80104e-09
8.30012e-09
7.51338e-09
1.00896e-08
6.18816e-09
1.14552e-08
4.96743e-09
1.24794e-08
3.9131e-09
1.32371e-08
3.03674e-09
1.37898e-08
2.32451e-09
1.41852e-08
1.75293e-09
1.44598e-08
1.29715e-09
1.46413e-08
9.34736e-10
1.47505e-08
6.46804e-10
1.48034e-08
4.18098e-10
1.48126e-08
2.3652e-10
1.47875e-08
9.25666e-11
1.47367e-08
-2.08577e-11
1.46658e-08
-1.09015e-10
-1.77955e-10
1.45795e-08
2.54512e-09
7.26991e-09
4.79569e-09
6.55047e-09
6.67732e-09
5.63175e-09
8.19051e-09
4.67496e-09
9.37577e-09
3.78217e-09
1.02871e-08
3.00173e-09
1.09777e-08
2.34616e-09
1.14936e-08
1.80864e-09
1.18724e-08
1.37409e-09
1.2144e-08
1.02552e-09
1.23318e-08
7.47003e-10
1.24537e-08
5.24837e-10
1.25241e-08
3.47766e-10
1.25538e-08
2.06752e-10
1.25518e-08
9.46234e-11
1.25252e-08
5.71433e-12
1.24796e-08
-6.33932e-11
-1.17591e-10
1.24192e-08
2.06012e-09
5.20979e-09
3.90103e-09
4.70957e-09
5.46421e-09
4.06857e-09
6.74335e-09
3.39582e-09
7.76288e-09
2.76264e-09
8.56006e-09
2.20456e-09
9.1739e-09
1.73232e-09
9.63986e-09
1.34267e-09
9.98797e-09
1.02599e-09
1.02427e-08
7.70824e-10
1.04235e-08
5.6617e-10
1.05459e-08
4.02396e-10
1.06222e-08
2.7149e-10
1.0662e-08
1.66964e-10
1.0673e-08
8.36276e-11
1.06614e-08
1.73509e-11
1.06324e-08
-3.44659e-11
-7.50344e-11
1.05899e-08
1.69273e-09
3.51706e-09
3.21575e-09
3.18655e-09
4.52227e-09
2.76205e-09
5.60384e-09
2.31425e-09
6.47612e-09
1.89036e-09
7.16602e-09
1.51465e-09
7.70323e-09
1.19512e-09
8.11563e-09
9.3027e-10
8.42744e-09
7.14179e-10
8.65879e-09
5.39474e-10
8.82602e-09
3.98935e-10
8.94225e-09
2.86169e-10
9.01793e-09
1.95814e-10
9.06139e-09
1.23497e-10
9.07932e-09
6.57045e-11
9.07703e-09
1.96354e-11
9.05914e-09
-1.65731e-11
-4.48659e-11
9.02897e-09
1.40274e-09
2.11432e-09
2.67059e-09
1.9187e-09
3.76559e-09
1.66705e-09
4.67912e-09
1.40072e-09
5.42184e-09
1.14764e-09
6.01402e-09
9.22472e-10
6.47885e-09
7.30287e-10
6.83864e-09
5.70479e-10
7.11312e-09
4.39706e-10
7.31889e-09
3.33697e-10
7.46962e-09
2.4821e-10
7.57633e-09
1.79459e-10
7.64789e-09
1.24251e-10
7.69142e-09
7.99667e-11
7.71263e-09
4.44983e-11
7.71611e-09
1.61597e-11
7.70575e-09
-6.21479e-12
-2.3612e-11
7.68449e-09
1.16396e-09
9.50364e-10
2.21919e-09
8.63461e-10
3.1347e-09
7.51548e-10
3.90257e-09
6.32845e-10
4.53045e-09
5.19761e-10
5.03403e-09
4.18885e-10
5.43176e-09
3.32563e-10
5.74163e-09
2.60607e-10
5.97975e-09
2.01585e-10
6.15981e-09
1.53632e-10
6.29315e-09
1.14878e-10
6.38896e-09
8.36451e-11
6.4547e-09
5.85101e-11
6.49636e-09
3.83048e-11
6.51878e-09
2.20852e-11
6.52584e-09
9.09507e-12
6.52083e-09
-1.2023e-12
-9.03102e-12
6.50625e-09
9.50364e-10
1.81382e-09
2.56537e-09
3.19822e-09
3.71798e-09
4.13686e-09
4.46943e-09
4.73003e-09
4.93162e-09
5.08525e-09
5.20013e-09
5.28377e-09
5.34228e-09
5.38059e-09
5.40267e-09
5.41177e-09
5.41057e-09
5.40154e-09
2.73909e-10
-2.73909e-10
5.49782e-10
-2.75872e-10
8.27693e-10
-2.77911e-10
1.10771e-09
-2.80017e-10
1.38989e-09
-2.82184e-10
1.67432e-09
-2.84423e-10
1.96109e-09
-2.86778e-10
2.25043e-09
-2.89335e-10
2.54267e-09
-2.92243e-10
2.8384e-09
-2.95722e-10
3.13847e-09
-3.00072e-10
3.44415e-09
-3.05687e-10
3.75721e-09
-3.13054e-10
4.07996e-09
-3.22751e-10
4.41538e-09
-3.35421e-10
4.76713e-09
-3.51748e-10
5.13956e-09
-3.72429e-10
5.53774e-09
-3.9818e-10
5.96761e-09
-4.29869e-10
6.43629e-09
-4.68687e-10
6.95267e-09
-5.16378e-10
7.52846e-09
-5.75795e-10
8.18042e-09
-6.51953e-10
8.93413e-09
-7.53708e-10
9.83074e-09
-8.96612e-10
1.09393e-08
-1.10852e-09
1.23807e-08
-1.44141e-09
1.4378e-08
-1.99734e-09
1.73665e-08
-2.98849e-09
2.22503e-08
-4.88382e-09
2.85341e-08
-6.28378e-09
3.33896e-08
-4.85552e-09
3.19714e-08
1.41821e-09
2.98686e-08
2.10281e-09
2.90807e-08
7.87924e-10
2.78311e-08
1.24955e-09
2.66395e-08
1.19166e-09
2.55174e-08
1.12206e-09
2.4471e-08
1.04648e-09
2.35051e-08
9.65871e-10
2.26197e-08
8.85339e-10
2.18095e-08
8.1023e-10
2.10678e-08
7.41735e-10
2.0388e-08
6.79823e-10
1.97638e-08
6.24197e-10
1.91894e-08
5.74403e-10
1.86595e-08
5.29893e-10
1.81694e-08
4.90089e-10
1.77149e-08
4.54434e-10
1.72925e-08
4.22416e-10
1.68989e-08
3.93577e-10
1.65314e-08
3.6751e-10
1.61876e-08
3.43858e-10
1.58653e-08
3.22309e-10
1.55627e-08
3.02599e-10
1.52782e-08
2.84498e-10
1.50104e-08
2.67813e-10
1.4758e-08
2.52379e-10
1.45199e-08
2.38059e-10
1.42952e-08
2.24734e-10
1.40829e-08
2.12306e-10
1.38822e-08
2.0069e-10
1.36924e-08
1.89812e-10
1.35128e-08
1.79612e-10
1.33427e-08
1.70034e-10
1.31817e-08
1.6103e-10
1.30291e-08
1.52559e-10
1.28846e-08
1.44582e-10
1.27475e-08
1.37065e-10
1.26175e-08
1.29977e-10
1.24942e-08
1.23291e-10
1.23772e-08
1.16979e-10
1.22662e-08
1.1102e-10
1.21608e-08
1.0539e-10
1.20608e-08
1.0007e-10
1.19657e-08
9.50416e-11
1.18754e-08
9.02872e-11
1.17896e-08
8.5791e-11
1.17081e-08
8.15385e-11
1.16306e-08
7.75157e-11
1.15569e-08
7.37101e-11
1.14868e-08
7.01099e-11
1.14201e-08
6.67037e-11
1.13566e-08
6.34814e-11
1.12962e-08
6.04332e-11
1.12386e-08
5.75503e-11
1.11838e-08
5.48239e-11
1.11315e-08
5.22462e-11
1.10817e-08
4.98095e-11
1.10342e-08
4.75067e-11
1.09889e-08
4.53314e-11
1.09456e-08
4.32769e-11
1.09043e-08
4.13375e-11
1.08648e-08
3.95071e-11
1.0827e-08
3.77809e-11
1.07908e-08
3.61534e-11
1.07562e-08
3.46196e-11
1.0723e-08
3.31754e-11
1.06912e-08
3.18159e-11
1.06607e-08
3.05372e-11
1.06313e-08
2.93352e-11
1.06031e-08
2.82063e-11
1.0576e-08
2.71464e-11
1.05498e-08
2.61527e-11
1.05246e-08
2.52213e-11
1.05003e-08
2.43495e-11
1.04767e-08
2.3534e-11
1.0454e-08
2.27722e-11
1.04319e-08
2.20611e-11
1.04105e-08
2.13983e-11
1.03897e-08
2.07812e-11
1.03695e-08
2.02075e-11
1.03498e-08
1.96749e-11
1.03307e-08
1.91812e-11
1.03119e-08
1.87243e-11
1.02936e-08
1.83025e-11
1.02757e-08
1.79135e-11
1.02582e-08
1.7556e-11
1.02409e-08
1.72277e-11
1.0224e-08
1.69277e-11
1.02074e-08
1.66538e-11
1.01909e-08
1.6405e-11
1.01748e-08
1.61796e-11
1.01588e-08
1.59765e-11
1.0143e-08
1.57944e-11
1.01274e-08
1.56318e-11
1.01119e-08
1.5488e-11
1.00965e-08
1.53617e-11
1.00813e-08
1.52519e-11
1.00661e-08
1.51577e-11
1.0051e-08
1.5078e-11
1.0036e-08
1.50123e-11
1.00211e-08
1.49594e-11
1.00061e-08
1.49188e-11
9.99125e-09
1.48897e-11
9.97638e-09
1.48715e-11
9.96151e-09
1.48633e-11
9.94665e-09
1.48649e-11
9.93177e-09
1.48754e-11
9.91688e-09
1.48945e-11
9.90196e-09
1.49218e-11
9.887e-09
1.49566e-11
9.872e-09
1.4999e-11
9.85695e-09
1.50483e-11
9.84185e-09
1.51044e-11
9.82668e-09
1.5167e-11
9.81145e-09
1.5236e-11
9.79613e-09
1.53113e-11
9.78074e-09
1.53932e-11
9.76526e-09
1.54817e-11
9.74968e-09
1.55768e-11
9.734e-09
1.56793e-11
9.71821e-09
1.57898e-11
9.7023e-09
1.5909e-11
9.68627e-09
1.60383e-11
9.67009e-09
1.61793e-11
9.65375e-09
1.63342e-11
9.63725e-09
1.65056e-11
9.62055e-09
1.66974e-11
9.60364e-09
1.69142e-11
9.58647e-09
1.71625e-11
9.56902e-09
1.74503e-11
9.55123e-09
1.77885e-11
9.53304e-09
1.8191e-11
9.51437e-09
1.86769e-11
9.49509e-09
1.92711e-11
9.47509e-09
2.00071e-11
9.45416e-09
2.0931e-11
9.43205e-09
2.21061e-11
9.40843e-09
2.36214e-11
9.38282e-09
2.5605e-11
9.35458e-09
2.82459e-11
9.32274e-09
3.18342e-11
9.28591e-09
3.68361e-11
9.24186e-09
4.40485e-11
9.18691e-09
5.49534e-11
9.11426e-09
7.26509e-11
9.00942e-09
1.0484e-10
8.83318e-09
1.76239e-10
4.00887e-10
8.43229e-09
3.10277e-10
-5.84186e-10
6.2308e-10
-5.88675e-10
9.38763e-10
-5.93594e-10
1.25769e-09
-5.98947e-10
1.58026e-09
-6.04749e-10
1.90696e-09
-6.11126e-10
2.23843e-09
-6.18243e-10
2.57537e-09
-6.26281e-10
2.91856e-09
-6.35428e-10
3.26874e-09
-6.45905e-10
3.62666e-09
-6.57996e-10
3.99305e-09
-6.72071e-10
4.3686e-09
-6.88608e-10
4.75406e-09
-7.08212e-10
5.15028e-09
-7.31637e-10
5.55833e-09
-7.59799e-10
5.97972e-09
-7.93819e-10
6.41665e-09
-8.35114e-10
6.8722e-09
-8.85415e-10
7.35043e-09
-9.46916e-10
7.85681e-09
-1.02275e-09
8.39871e-09
-1.1177e-09
8.98569e-09
-1.23894e-09
9.62914e-09
-1.39715e-09
1.03406e-08
-1.60803e-09
1.11268e-08
-1.89476e-09
1.1977e-08
-2.2916e-09
1.28257e-08
-2.84606e-09
1.3452e-08
-3.61482e-09
1.3201e-08
-4.63276e-09
1.26967e-08
-5.77948e-09
1.51329e-08
-7.29178e-09
2.33375e-08
-6.78635e-09
2.62689e-08
-8.28596e-10
3.02444e-08
-3.18757e-09
2.7665e-08
3.82888e-09
2.64465e-08
2.41015e-09
2.53142e-08
2.25445e-09
2.42601e-08
2.10051e-09
2.32992e-08
1.92683e-09
2.24311e-08
1.7534e-09
2.16403e-08
1.60104e-09
2.09172e-08
1.4648e-09
2.02547e-08
1.34231e-09
1.96463e-08
1.23266e-09
1.90859e-08
1.13482e-09
1.85682e-08
1.04753e-09
1.80888e-08
9.69513e-10
1.76436e-08
8.99629e-10
1.72292e-08
8.36847e-10
1.68425e-08
7.80259e-10
1.64809e-08
7.29064e-10
1.61422e-08
6.82563e-10
1.58244e-08
6.4015e-10
1.55257e-08
6.01308e-10
1.52446e-08
5.65595e-10
1.49798e-08
5.32637e-10
1.473e-08
5.02118e-10
1.44943e-08
4.73772e-10
1.42717e-08
4.47373e-10
1.40613e-08
4.2273e-10
1.38623e-08
3.99681e-10
1.3674e-08
3.78086e-10
1.34958e-08
3.57824e-10
1.3327e-08
3.38791e-10
1.31672e-08
3.20892e-10
1.30157e-08
3.04047e-10
1.28721e-08
2.88179e-10
1.27359e-08
2.73224e-10
1.26068e-08
2.5912e-10
1.24842e-08
2.45811e-10
1.2368e-08
2.33248e-10
1.22576e-08
2.21382e-10
1.21528e-08
2.10172e-10
1.20533e-08
1.99577e-10
1.19588e-08
1.89562e-10
1.1869e-08
1.80091e-10
1.17837e-08
1.71133e-10
1.17025e-08
1.6266e-10
1.16254e-08
1.54644e-10
1.15521e-08
1.4706e-10
1.14823e-08
1.39885e-10
1.14159e-08
1.33096e-10
1.13527e-08
1.26673e-10
1.12925e-08
1.20596e-10
1.12352e-08
1.14849e-10
1.11807e-08
1.09413e-10
1.11286e-08
1.04274e-10
1.1079e-08
9.94151e-11
1.10317e-08
9.48236e-11
1.09865e-08
9.04856e-11
1.09434e-08
8.63887e-11
1.09023e-08
8.25208e-11
1.08629e-08
7.88707e-11
1.08252e-08
7.54277e-11
1.07892e-08
7.21817e-11
1.07547e-08
6.91229e-11
1.07216e-08
6.6242e-11
1.06899e-08
6.35307e-11
1.06595e-08
6.09801e-11
1.06302e-08
5.85827e-11
1.06021e-08
5.63305e-11
1.0575e-08
5.42168e-11
1.0549e-08
5.22344e-11
1.05238e-08
5.03767e-11
1.04995e-08
4.86376e-11
1.0476e-08
4.7011e-11
1.04533e-08
4.54913e-11
1.04313e-08
4.40729e-11
1.041e-08
4.27509e-11
1.03892e-08
4.152e-11
1.03691e-08
4.03756e-11
1.03494e-08
3.93131e-11
1.03303e-08
3.83285e-11
1.03116e-08
3.74172e-11
1.02933e-08
3.65757e-11
1.02754e-08
3.58002e-11
1.02579e-08
3.50868e-11
1.02407e-08
3.44325e-11
1.02238e-08
3.3834e-11
1.02071e-08
3.3288e-11
1.01907e-08
3.27918e-11
1.01746e-08
3.23425e-11
1.01586e-08
3.19375e-11
1.01428e-08
3.15744e-11
1.01272e-08
3.12506e-11
1.01118e-08
3.09639e-11
1.00964e-08
3.07123e-11
1.00812e-08
3.04936e-11
1.0066e-08
3.0306e-11
1.00509e-08
3.01476e-11
1.00359e-08
3.00167e-11
1.0021e-08
2.99116e-11
1.00061e-08
2.9831e-11
9.99119e-09
2.97734e-11
9.97632e-09
2.97372e-11
9.96146e-09
2.97216e-11
9.9466e-09
2.9725e-11
9.93173e-09
2.97465e-11
9.91684e-09
2.97851e-11
9.90192e-09
2.984e-11
9.88697e-09
2.991e-11
9.87198e-09
2.99949e-11
9.85693e-09
3.00936e-11
9.84183e-09
3.0206e-11
9.82666e-09
3.03314e-11
9.81143e-09
3.04696e-11
9.79612e-09
3.06204e-11
9.78073e-09
3.07842e-11
9.76525e-09
3.09609e-11
9.74968e-09
3.11513e-11
9.734e-09
3.13563e-11
9.71821e-09
3.15768e-11
9.70231e-09
3.18151e-11
9.68627e-09
3.20733e-11
9.6701e-09
3.23549e-11
9.65377e-09
3.26638e-11
9.63727e-09
3.30058e-11
9.62058e-09
3.33881e-11
9.60367e-09
3.38203e-11
9.58652e-09
3.43149e-11
9.56908e-09
3.4888e-11
9.55131e-09
3.55609e-11
9.53314e-09
3.63619e-11
9.51449e-09
3.73278e-11
9.49525e-09
3.85086e-11
9.47528e-09
3.99706e-11
9.45441e-09
4.18047e-11
9.43238e-09
4.41356e-11
9.40886e-09
4.71391e-11
9.3834e-09
5.10666e-11
9.35536e-09
5.6288e-11
9.32383e-09
6.33689e-11
9.28745e-09
7.32098e-11
9.24417e-09
8.73341e-11
9.1906e-09
1.08519e-10
9.12088e-09
1.42373e-10
9.02388e-09
2.01838e-10
8.87793e-09
3.22192e-10
6.16242e-10
8.66257e-09
3.25819e-10
-9.10005e-10
6.54242e-10
-9.17098e-10
9.85487e-10
-9.24839e-10
1.31986e-09
-9.33316e-10
1.65769e-09
-9.42582e-10
1.99943e-09
-9.52869e-10
2.34567e-09
-9.64478e-10
2.69709e-09
-9.77703e-10
3.05448e-09
-9.92816e-10
3.41866e-09
-1.01009e-09
3.79048e-09
-1.02982e-09
4.17074e-09
-1.05233e-09
4.56015e-09
-1.07802e-09
4.95928e-09
-1.10734e-09
5.36853e-09
-1.14089e-09
5.78823e-09
-1.17949e-09
6.21866e-09
-1.22425e-09
6.6602e-09
-1.27665e-09
7.11345e-09
-1.33866e-09
7.57947e-09
-1.41294e-09
8.05973e-09
-1.50301e-09
8.55559e-09
-1.61356e-09
9.06738e-09
-1.75072e-09
9.59272e-09
-1.9225e-09
1.01238e-08
-2.13909e-09
1.0642e-08
-2.41302e-09
1.11083e-08
-2.75788e-09
1.14469e-08
-3.18463e-09
1.15266e-08
-3.69451e-09
1.11561e-08
-4.26223e-09
1.01884e-08
-4.81181e-09
8.11348e-09
-5.21687e-09
6.45913e-09
-5.132e-09
1.02618e-08
-4.63123e-09
1.28916e-08
-5.81736e-09
2.06828e-08
-3.96234e-09
2.59747e-08
-2.88178e-09
2.49002e-08
3.32896e-09
2.38083e-08
3.19244e-09
2.2858e-08
2.8771e-09
2.20489e-08
2.56246e-09
2.13038e-08
2.3462e-09
2.06193e-08
2.14927e-09
1.9992e-08
1.96958e-09
1.94153e-08
1.80944e-09
1.88827e-08
1.6674e-09
1.83892e-08
1.54098e-09
1.79307e-08
1.42803e-09
1.75036e-08
1.32676e-09
1.71047e-08
1.23569e-09
1.67315e-08
1.15349e-09
1.63816e-08
1.07901e-09
1.60529e-08
1.01123e-09
1.57438e-08
9.49279e-10
1.54527e-08
8.92428e-10
1.51782e-08
8.40049e-10
1.49192e-08
7.91615e-10
1.46747e-08
7.46683e-10
1.44436e-08
7.0488e-10
1.4225e-08
6.6589e-10
1.40183e-08
6.29447e-10
1.38227e-08
5.95322e-10
1.36374e-08
5.6332e-10
1.3462e-08
5.33268e-10
1.32958e-08
5.05019e-10
1.31382e-08
4.78439e-10
1.29889e-08
4.53409e-10
1.28472e-08
4.29824e-10
1.27129e-08
4.07585e-10
1.25854e-08
3.86605e-10
1.24644e-08
3.66803e-10
1.23495e-08
3.48103e-10
1.22405e-08
3.30439e-10
1.21369e-08
3.13745e-10
1.20385e-08
2.97965e-10
1.1945e-08
2.83044e-10
1.18562e-08
2.68932e-10
1.17717e-08
2.55582e-10
1.16914e-08
2.42952e-10
1.16151e-08
2.31002e-10
1.15425e-08
2.19694e-10
1.14733e-08
2.08993e-10
1.14076e-08
1.98867e-10
1.1345e-08
1.89286e-10
1.12853e-08
1.80221e-10
1.12285e-08
1.71646e-10
1.11744e-08
1.63535e-10
1.11228e-08
1.55866e-10
1.10736e-08
1.48615e-10
1.10267e-08
1.41762e-10
1.09819e-08
1.35287e-10
1.09391e-08
1.29171e-10
1.08982e-08
1.23397e-10
1.08592e-08
1.17948e-10
1.08218e-08
1.12807e-10
1.0786e-08
1.07961e-10
1.07517e-08
1.03394e-10
1.07189e-08
9.90923e-11
1.06874e-08
9.50435e-11
1.06571e-08
9.1235e-11
1.0628e-08
8.76548e-11
1.06001e-08
8.42918e-11
1.05732e-08
8.11352e-11
1.05472e-08
7.81746e-11
1.05222e-08
7.54004e-11
1.0498e-08
7.28033e-11
1.04747e-08
7.03741e-11
1.0452e-08
6.81047e-11
1.04301e-08
6.59866e-11
1.04089e-08
6.4012e-11
1.03882e-08
6.2174e-11
1.03681e-08
6.04651e-11
1.03486e-08
5.88785e-11
1.03295e-08
5.74081e-11
1.03109e-08
5.60476e-11
1.02926e-08
5.47911e-11
1.02748e-08
5.3633e-11
1.02573e-08
5.25682e-11
1.02402e-08
5.15914e-11
1.02233e-08
5.06978e-11
1.02067e-08
4.98829e-11
1.01904e-08
4.91425e-11
1.01742e-08
4.84719e-11
1.01583e-08
4.78679e-11
1.01425e-08
4.7326e-11
1.0127e-08
4.68432e-11
1.01115e-08
4.64158e-11
1.00962e-08
4.60407e-11
1.00809e-08
4.57149e-11
1.00658e-08
4.54356e-11
1.00508e-08
4.51998e-11
1.00358e-08
4.50053e-11
1.00208e-08
4.48495e-11
1.00059e-08
4.473e-11
9.99107e-09
4.46448e-11
9.97621e-09
4.4592e-11
9.96137e-09
4.45695e-11
9.94652e-09
4.45758e-11
9.93165e-09
4.4609e-11
9.91677e-09
4.46678e-11
9.90186e-09
4.47507e-11
9.88691e-09
4.48567e-11
9.87192e-09
4.49846e-11
9.85688e-09
4.51333e-11
9.84179e-09
4.53023e-11
9.82663e-09
4.54907e-11
9.8114e-09
4.56982e-11
9.7961e-09
4.59249e-11
9.78071e-09
4.61705e-11
9.76523e-09
4.64357e-11
9.74966e-09
4.67211e-11
9.73399e-09
4.70281e-11
9.71821e-09
4.73586e-11
9.70231e-09
4.77153e-11
9.68628e-09
4.81017e-11
9.67011e-09
4.85226e-11
9.65379e-09
4.89843e-11
9.6373e-09
4.9495e-11
9.62063e-09
5.00656e-11
9.60374e-09
5.07103e-11
9.58661e-09
5.14472e-11
9.56919e-09
5.23005e-11
9.55145e-09
5.33018e-11
9.53332e-09
5.44924e-11
9.51472e-09
5.59274e-11
9.49555e-09
5.76797e-11
9.47567e-09
5.98476e-11
9.45491e-09
6.25646e-11
9.43304e-09
6.60139e-11
9.40972e-09
7.04523e-11
9.38454e-09
7.62458e-11
9.3569e-09
8.39309e-11
9.32595e-09
9.43188e-11
9.29047e-09
1.08689e-10
9.24864e-09
1.29163e-10
9.19766e-09
1.59503e-10
9.1331e-09
2.06935e-10
9.04822e-09
2.86716e-10
8.93634e-09
4.34067e-10
7.31559e-10
8.82103e-09
3.33089e-10
-1.24309e-09
6.68806e-10
-1.25282e-09
1.0072e-09
-1.26324e-09
1.34838e-09
-1.27449e-09
1.69243e-09
-1.28663e-09
2.03941e-09
-1.29985e-09
2.3894e-09
-1.31447e-09
2.74248e-09
-1.33078e-09
3.09877e-09
-1.3491e-09
3.45842e-09
-1.36974e-09
3.82162e-09
-1.39302e-09
4.18858e-09
-1.4193e-09
4.55955e-09
-1.44898e-09
4.93478e-09
-1.48257e-09
5.31455e-09
-1.52066e-09
5.69908e-09
-1.56403e-09
6.08852e-09
-1.61369e-09
6.48289e-09
-1.67102e-09
6.88209e-09
-1.73786e-09
7.28565e-09
-1.8165e-09
7.69238e-09
-1.90975e-09
8.09986e-09
-2.02103e-09
8.50359e-09
-2.15446e-09
8.89584e-09
-2.31475e-09
9.2637e-09
-2.50695e-09
9.58642e-09
-2.73574e-09
9.83257e-09
-3.00404e-09
9.95843e-09
-3.31049e-09
9.90952e-09
-3.64559e-09
9.63425e-09
-3.98696e-09
9.11844e-09
-4.29601e-09
8.42412e-09
-4.52254e-09
7.91241e-09
-4.6203e-09
7.92876e-09
-4.64757e-09
6.90321e-09
-4.79181e-09
7.62347e-09
-4.68261e-09
9.75634e-09
-5.01465e-09
1.67623e-08
-3.67699e-09
2.28769e-08
-2.92221e-09
2.20665e-08
3.68751e-09
2.15047e-08
3.1243e-09
2.08166e-08
3.03427e-09
2.0182e-08
2.78387e-09
1.9608e-08
2.54362e-09
1.90794e-08
2.33802e-09
1.8588e-08
2.15883e-09
1.81296e-08
1.99936e-09
1.77012e-08
1.85639e-09
1.73001e-08
1.7279e-09
1.69236e-08
1.61212e-09
1.65697e-08
1.50741e-09
1.62364e-08
1.41229e-09
1.59222e-08
1.32548e-09
1.56256e-08
1.24589e-09
1.53454e-08
1.17263e-09
1.50805e-08
1.10493e-09
1.483e-08
1.04214e-09
1.45929e-08
9.83748e-10
1.43685e-08
9.29292e-10
1.4156e-08
8.78398e-10
1.39547e-08
8.30743e-10
1.3764e-08
7.86051e-10
1.35832e-08
7.44085e-10
1.34118e-08
7.04635e-10
1.32493e-08
6.67516e-10
1.30952e-08
6.32563e-10
1.2949e-08
5.99628e-10
1.28102e-08
5.68575e-10
1.26785e-08
5.39281e-10
1.25535e-08
5.11632e-10
1.24348e-08
4.85524e-10
1.2322e-08
4.60861e-10
1.22149e-08
4.37554e-10
1.21131e-08
4.15522e-10
1.20164e-08
3.94689e-10
1.19245e-08
3.74984e-10
1.18371e-08
3.56342e-10
1.1754e-08
3.38703e-10
1.16749e-08
3.2201e-10
1.15997e-08
3.06212e-10
1.15281e-08
2.9126e-10
1.146e-08
2.77108e-10
1.13952e-08
2.63714e-10
1.13334e-08
2.51039e-10
1.12746e-08
2.39044e-10
1.12185e-08
2.27696e-10
1.11651e-08
2.16961e-10
1.11142e-08
2.06808e-10
1.10656e-08
1.97208e-10
1.10192e-08
1.88135e-10
1.09749e-08
1.7956e-10
1.09326e-08
1.71462e-10
1.08922e-08
1.63814e-10
1.08536e-08
1.56597e-10
1.08166e-08
1.49788e-10
1.07812e-08
1.43368e-10
1.07473e-08
1.37318e-10
1.07147e-08
1.31619e-10
1.06835e-08
1.26255e-10
1.06535e-08
1.21209e-10
1.06247e-08
1.16465e-10
1.0597e-08
1.12009e-10
1.05703e-08
1.07827e-10
1.05446e-08
1.03904e-10
1.05198e-08
1.00228e-10
1.04958e-08
9.67861e-11
1.04726e-08
9.35673e-11
1.04501e-08
9.05599e-11
1.04284e-08
8.77532e-11
1.04072e-08
8.51369e-11
1.03867e-08
8.27012e-11
1.03667e-08
8.04369e-11
1.03473e-08
7.83349e-11
1.03283e-08
7.63866e-11
1.03098e-08
7.45841e-11
1.02916e-08
7.29197e-11
1.02739e-08
7.13856e-11
1.02565e-08
6.99751e-11
1.02394e-08
6.86815e-11
1.02226e-08
6.74982e-11
1.02061e-08
6.64192e-11
1.01898e-08
6.5439e-11
1.01737e-08
6.45515e-11
1.01578e-08
6.3752e-11
1.01421e-08
6.30353e-11
1.01265e-08
6.23966e-11
1.01111e-08
6.18318e-11
1.00958e-08
6.13361e-11
1.00806e-08
6.09059e-11
1.00655e-08
6.05372e-11
1.00505e-08
6.02265e-11
1.00355e-08
5.99703e-11
1.00206e-08
5.97656e-11
1.00057e-08
5.96091e-11
9.99089e-09
5.94981e-11
9.97605e-09
5.94301e-11
9.96122e-09
5.94022e-11
9.94638e-09
5.94125e-11
9.93153e-09
5.94586e-11
9.91666e-09
5.95387e-11
9.90176e-09
5.96508e-11
9.88683e-09
5.97934e-11