/*--------------------------------*- C++ -*----------------------------------*\
  =========                 |
  \\      /  F ield         | OpenFOAM: The Open Source CFD Toolbox
   \\    /   O peration     | Website:  https://openfoam.org
    \\  /    A nd           | Version:  10
     \\/     M anipulation  |
\*---------------------------------------------------------------------------*/
FoamFile
{
    format      ascii;
    class       volVectorField;
    location    "0.73";
    object      Ub;
}
// * * * * * * * * * * * * * * * * * * * * * * * * * * * * * * * * * * * * * //

dimensions      [0 1 -1 0 0 0 0];

internalField   nonuniform List<vector> 
12225
(
(0.00208684 -0.000425205 0)
(0.00595515 -0.000378688 0)
(0.00914098 -0.0003119 0)
(0.0116 -0.000245172 0)
(0.0134299 -0.000188993 0)
(0.0147763 -0.000146369 0)
(0.0157795 -0.000116566 0)
(0.0165553 -9.76643e-05 0)
(0.0171935 -8.78553e-05 0)
(0.0177638 -8.60012e-05 0)
(0.0183237 -9.19271e-05 0)
(0.018927 -0.000106788 0)
(0.019635 -0.000133909 0)
(0.0205342 -0.000180988 0)
(0.0217744 -0.000266557 0)
(0.02368 -0.000443059 0)
(0.0271828 -0.000906579 0)
(0.0362855 -0.0027361 0)
(0.00226298 -0.00134335 0)
(0.00644975 -0.00119441 0)
(0.00988178 -0.000981555 0)
(0.0125163 -0.000769667 0)
(0.014466 -0.000591851 0)
(0.0158936 -0.00045732 0)
(0.0169533 -0.000363483 0)
(0.0177708 -0.000304095 0)
(0.0184427 -0.000273323 0)
(0.0190431 -0.000267485 0)
(0.0196325 -0.00028592 0)
(0.0202666 -0.000332075 0)
(0.0210077 -0.000415994 0)
(0.0219407 -0.000560713 0)
(0.0232054 -0.000820376 0)
(0.0250694 -0.00134004 0)
(0.0280767 -0.00259858 0)
(0.0326776 -0.00665269 0)
(0.00238583 -0.00239288 0)
(0.00678686 -0.00212175 0)
(0.0103679 -0.0017371 0)
(0.0130919 -0.00135656 0)
(0.0150883 -0.00103892 0)
(0.0165362 -0.000799708 0)
(0.0176013 -0.000633493 0)
(0.0184166 -0.00052861 0)
(0.0190825 -0.000474336 0)
(0.0196752 -0.000463848 0)
(0.0202555 -0.000495623 0)
(0.0208782 -0.000575146 0)
(0.0216016 -0.000718763 0)
(0.0225004 -0.00096331 0)
(0.0236833 -0.00139152 0)
(0.0253121 -0.0022052 0)
(0.02753 -0.00395358 0)
(0.0296018 -0.00821172 0)
(0.00250755 -0.00357604 0)
(0.00711446 -0.00315912 0)
(0.0108254 -0.00257336 0)
(0.0136135 -0.00199878 0)
(0.015631 -0.0015227 0)
(0.0170763 -0.00116636 0)
(0.0181276 -0.00091997 0)
(0.0189242 -0.000765037 0)
(0.0195699 -0.000684895 0)
(0.0201413 -0.000668832 0)
(0.0206981 -0.000713873 0)
(0.0212919 -0.000826821 0)
(0.021974 -0.00102887 0)
(0.0228025 -0.00136659 0)
(0.0238456 -0.00193812 0)
(0.0251579 -0.00295578 0)
(0.0266282 -0.0048833 0)
(0.0273553 -0.00858979 0)
(0.00264384 -0.00491024 0)
(0.0074747 -0.0043167 0)
(0.0113133 -0.00349324 0)
(0.0141499 -0.00269465 0)
(0.0161683 -0.00203942 0)
(0.0175915 -0.0015529 0)
(0.0186118 -0.00121859 0)
(0.0193756 -0.00100926 0)
(0.0199885 -0.00090096 0)
(0.0205268 -0.000878127 0)
(0.0210476 -0.000935483 0)
(0.0215977 -0.00107999 0)
(0.0222185 -0.00133533 0)
(0.0229488 -0.00175206 0)
(0.0238158 -0.00242875 0)
(0.0247926 -0.00355065 0)
(0.025658 -0.00543373 0)
(0.0256852 -0.00842092 0)
(0.00280671 -0.00642253 0)
(0.00789777 -0.00561025 0)
(0.0118696 -0.00450154 0)
(0.0147404 -0.00344233 0)
(0.0167383 -0.00258431 0)
(0.018118 -0.00195377 0)
(0.0190889 -0.00152393 0)
(0.0198042 -0.00125621 0)
(0.0203711 -0.00111764 0)
(0.020864 -0.00108661 0)
(0.0213364 -0.00115444 0)
(0.0218283 -0.00132667 0)
(0.0223705 -0.00162655 0)
(0.0229821 -0.00210242 0)
(0.0236565 -0.0028404 0)
(0.024319 -0.0039781 0)
(0.0247348 -0.00568837 0)
(0.0244077 -0.00801571 0)
(0.00300959 -0.00815138 0)
(0.00841555 -0.00706086 0)
(0.0125307 -0.00560344 0)
(0.0154186 -0.00423803 0)
(0.0173696 -0.00315006 0)
(0.01868 -0.00236101 0)
(0.0195797 -0.00182853 0)
(0.0202288 -0.0014991 0)
(0.0207347 -0.00132857 0)
(0.0211691 -0.00128784 0)
(0.0215803 -0.00136348 0)
(0.0220008 -0.00155785 0)
(0.0224501 -0.00189067 0)
(0.0229304 -0.00240262 0)
(0.0234122 -0.0031592 0)
(0.023803 -0.0042461 0)
(0.0239027 -0.00572853 0)
(0.0234055 -0.00751856 0)
(0.00327033 -0.0101512 0)
(0.00906848 -0.0086957 0)
(0.013339 -0.00680301 0)
(0.0162194 -0.00507405 0)
(0.0180888 -0.00372514 0)
(0.0192976 -0.00276304 0)
(0.0200996 -0.002122 0)
(0.0206617 -0.00172883 0)
(0.0210901 -0.0015255 0)
(0.0214519 -0.00147378 0)
(0.0217891 -0.00155407 0)
(0.0221262 -0.00176372 0)
(0.0224722 -0.00211624 0)
(0.0228166 -0.00264091 0)
(0.023118 -0.00337966 0)
(0.0232868 -0.00437311 0)
(0.0231731 -0.0056194 0)
(0.0226032 -0.00699315 0)
(0.00361501 -0.0125004 0)
(0.00991297 -0.010549 0)
(0.0143488 -0.00810075 0)
(0.0171834 -0.00593597 0)
(0.0189233 -0.00429164 0)
(0.019989 -0.00314321 0)
(0.0206612 -0.00239014 0)
(0.021112 -0.0019334 0)
(0.0214443 -0.00169797 0)
(0.0217186 -0.00163469 0)
(0.0219694 -0.00171643 0)
(0.022213 -0.00193402 0)
(0.0224495 -0.00229286 0)
(0.0226602 -0.00280917 0)
(0.022801 -0.00350281 0)
(0.0227959 -0.00438112 0)
(0.0225428 -0.00540821 0)
(0.021951 -0.00646555 0)
(0.00408406 -0.0153149 0)
(0.0110323 -0.0126625 0)
(0.0156337 -0.00948875 0)
(0.0183601 -0.00679792 0)
(0.019903 -0.00482202 0)
(0.0207716 -0.00347776 0)
(0.0212746 -0.00261373 0)
(0.0215861 -0.00209728 0)
(0.0218019 -0.00183297 0)
(0.0219736 -0.00175904 0)
(0.0221265 -0.00183978 0)
(0.0222689 -0.00205849 0)
(0.0223937 -0.00241165 0)
(0.0224781 -0.00290282 0)
(0.022481 -0.0035339 0)
(0.022344 -0.00429129 0)
(0.0220026 -0.00512704 0)
(0.0214144 -0.00594486 0)
(0.00474363 -0.0187728 0)
(0.0125553 -0.0150837 0)
(0.0172961 -0.0109413 0)
(0.0198105 -0.00761498 0)
(0.0210596 -0.00527456 0)
(0.0216606 -0.00373349 0)
(0.0219469 -0.00276736 0)
(0.0220873 -0.00220087 0)
(0.022165 -0.00191476 0)
(0.022219 -0.00183358 0)
(0.0222642 -0.00191255 0)
(0.0223003 -0.00212724 0)
(0.0223149 -0.00246551 0)
(0.0222838 -0.00292014 0)
(0.0221719 -0.00348034 0)
(0.0219371 -0.00412171 0)
(0.0215415 -0.00479666 0)
(0.0209693 -0.00543277 0)
(0.00563978 -0.0227403 0)
(0.0145423 -0.0176153 0)
(0.0193354 -0.012287 0)
(0.0214953 -0.00826928 0)
(0.0223451 -0.0055756 0)
(0.0226144 -0.00386539 0)
(0.0226476 -0.00282289 0)
(0.0225966 -0.00222543 0)
(0.0225253 -0.00192981 0)
(0.0224567 -0.00184785 0)
(0.022394 -0.00192679 0)
(0.022329 -0.00213563 0)
(0.022245 -0.00245543 0)
(0.022118 -0.00287133 0)
(0.0219187 -0.00336519 0)
(0.021617 -0.00390888 0)
(0.0211907 -0.00446023 0)
(0.0206357 -0.00496593 0)
(0.00689069 -0.0278431 0)
(0.0171832 -0.0204261 0)
(0.0218451 -0.013506 0)
(0.023431 -0.00870343 0)
(0.0237382 -0.00567399 0)
(0.0235961 -0.00383528 0)
(0.023334 -0.00275294 0)
(0.02307 -0.00215135 0)
(0.0228388 -0.00186398 0)
(0.022643 -0.00179167 0)
(0.0224725 -0.00187541 0)
(0.0223106 -0.00207935 0)
(0.0221367 -0.00237977 0)
(0.0219276 -0.00275712 0)
(0.021659 -0.00318995 0)
(0.0213097 -0.0036506 0)
(0.0208674 -0.00410405 0)
(0.020334 -0.00451153 0)
(0.00914401 -0.0358301 0)
(0.0216375 -0.0238864 0)
(0.0256533 -0.0145146 0)
(0.0261275 -0.00876493 0)
(0.0255565 -0.0054406 0)
(0.024815 -0.00354673 0)
(0.0241523 -0.00248688 0)
(0.0236133 -0.00192636 0)
(0.0231839 -0.0016777 0)
(0.0228364 -0.00163417 0)
(0.0225422 -0.00173334 0)
(0.0222743 -0.00193676 0)
(0.0220077 -0.00221811 0)
(0.0217191 -0.00255573 0)
(0.0213886 -0.0029278 0)
(0.0210015 -0.00330992 0)
(0.0205515 -0.0036752 0)
(0.0200423 -0.00399722 0)
(0.0137444 -0.0498017 0)
(0.0298948 -0.0274283 0)
(0.0316207 -0.0144361 0)
(0.0298528 -0.00785859 0)
(0.0278523 -0.0045142 0)
(0.0262563 -0.00277794 0)
(0.0250709 -0.00188157 0)
(0.0241948 -0.00145228 0)
(0.0235339 -0.00129934 0)
(0.0230164 -0.00131997 0)
(0.0225894 -0.00145562 0)
(0.022213 -0.0016703 0)
(0.0218564 -0.00193916 0)
(0.0214957 -0.00224203 0)
(0.0211135 -0.00255997 0)
(0.020699 -0.00287393 0)
(0.0202484 -0.00316518 0)
(0.0197652 -0.00341715 0)
(0.0249212 -0.0788049 0)
(0.0472921 -0.026964 0)
(0.0409776 -0.0106994 0)
(0.0346479 -0.00475027 0)
(0.0304473 -0.00228996 0)
(0.027748 -0.0012077 0)
(0.0259629 -0.000749422 0)
(0.0247294 -0.000607813 0)
(0.0238335 -0.000642669 0)
(0.0231473 -0.000783031 0)
(0.0225908 -0.000989332 0)
(0.0221113 -0.00123696 0)
(0.0216731 -0.00150861 0)
(0.0212513 -0.00178996 0)
(0.0208297 -0.00206794 0)
(0.0203988 -0.00233022 0)
(0.0199549 -0.00256569 0)
(0.0194995 -0.00276533 0)
(0.0594314 0.00109843 0)
(0.0910298 0.00345032 0)
(0.0533932 0.00293538 0)
(0.0392306 0.002357 0)
(0.0325612 0.00188006 0)
(0.0288669 0.00146428 0)
(0.0265796 0.0010827 0)
(0.0250463 0.000722183 0)
(0.0239512 0.000375709 0)
(0.0231232 4.00323e-05 0)
(0.0224615 -0.000285564 0)
(0.0219028 -0.000598879 0)
(0.0214061 -0.00089797 0)
(0.0209452 -0.00117946 0)
(0.0205036 -0.00143868 0)
(0.0200716 -0.00167089 0)
(0.0196446 -0.00187188 0)
(0.0192215 -0.00203856 0)
(0.0205053 0.0765531 0)
(0.0405665 0.0322832 0)
(0.0374898 0.0166938 0)
(0.0327493 0.00997217 0)
(0.0291843 0.00654428 0)
(0.026728 0.00454315 0)
(0.025025 0.0032407 0)
(0.023805 0.00231593 0)
(0.0228939 0.00161286 0)
(0.0221818 0.00104969 0)
(0.0215987 0.000581089 0)
(0.0210994 0.000182209 0)
(0.0206545 -0.000162563 0)
(0.0202444 -0.000461426 0)
(0.0198556 -0.00071839 0)
(0.0194801 -0.000937919 0)
(0.0191146 -0.0011215 0)
(0.0187576 -0.00127053 0)
(0.00784797 0.0407351 0)
(0.0187894 0.0281268 0)
(0.0226965 0.018777 0)
(0.0234847 0.01281 0)
(0.023183 0.00901573 0)
(0.0225899 0.00652 0)
(0.0219805 0.00480523 0)
(0.0214332 0.00357453 0)
(0.0209577 0.00265546 0)
(0.0205429 0.00194527 0)
(0.0201741 0.00138102 0)
(0.0198379 0.000923227 0)
(0.0195242 0.000546427 0)
(0.0192258 0.00023476 0)
(0.0189387 -2.23767e-05 0)
(0.0186603 -0.000234665 0)
(0.0183887 -0.000407163 0)
(0.0181231 -0.000544353 0)
(0.00428661 0.0247646 0)
(0.0112567 0.0204488 0)
(0.0153787 0.0158018 0)
(0.0175255 0.011962 0)
(0.0185555 0.00904367 0)
(0.0190021 0.0068772 0)
(0.0191525 0.00526637 0)
(0.0191531 0.00405354 0)
(0.0190764 0.00312493 0)
(0.0189582 0.00240142 0)
(0.0188161 0.00182866 0)
(0.0186591 0.00136925 0)
(0.0184918 0.000997258 0)
(0.0183173 0.000694519 0)
(0.0181378 0.000447986 0)
(0.017955 0.000248057 0)
(0.0177707 8.8024e-05 0)
(0.0175866 -3.78526e-05 0)
(0.0029553 0.0174511 0)
(0.00810812 0.015334 0)
(0.0117651 0.012649 0)
(0.0141443 0.0101179 0)
(0.015631 0.00799032 0)
(0.0165434 0.00628726 0)
(0.0170967 0.00494943 0)
(0.017425 0.00390231 0)
(0.0176094 0.00307939 0)
(0.0176993 0.00242781 0)
(0.0177249 0.00190755 0)
(0.0177053 0.00148899 0)
(0.0176532 0.00115038 0)
(0.0175773 0.000875688 0)
(0.017484 0.000653022 0)
(0.0173782 0.000473423 0)
(0.0172635 0.000330045 0)
(0.0171431 0.000217464 0)
(0.00229229 0.012847 0)
(0.00643696 0.011637 0)
(0.00965971 0.00995967 0)
(0.0119987 0.00824624 0)
(0.0136381 0.0067073 0)
(0.0147696 0.00540915 0)
(0.015546 0.00434739 0)
(0.016076 0.00349085 0)
(0.0164344 0.00280281 0)
(0.0166712 0.00224969 0)
(0.0168206 0.00180366 0)
(0.0169061 0.00144273 0)
(0.0169442 0.00114993 0)
(0.0169469 0.000912259 0)
(0.0169232 0.000719752 0)
(0.0168797 0.000564749 0)
(0.0168217 0.000441281 0)
(0.0167534 0.000344633 0)
(0.00191492 0.00963569 0)
(0.00544907 0.00887713 0)
(0.00834252 0.0077685 0)
(0.0105787 0.00657697 0)
(0.0122513 0.00545853 0)
(0.0134816 0.00448015 0)
(0.0143792 0.00365639 0)
(0.0150311 0.00297671 0)
(0.0155022 0.00242139 0)
(0.0158395 0.00196939 0)
(0.0160772 0.00160172 0)
(0.01624 0.00130249 0)
(0.0163462 0.00105891 0)
(0.0164094 0.000860839 0)
(0.0164398 0.000700343 0)
(0.0164455 0.000571188 0)
(0.0164325 0.000468455 0)
(0.0164059 0.000388226 0)
(0.00167907 0.00724754 0)
(0.00481663 0.00674604 0)
(0.00746725 0.00598779 0)
(0.00959716 0.00514526 0)
(0.0112563 0.00433047 0)
(0.0125258 0.00359946 0)
(0.0134875 0.00297113 0)
(0.0142117 0.00244412 0)
(0.0147547 0.00200803 0)
(0.0151595 0.00164967 0)
(0.0154589 0.00135615 0)
(0.0156775 0.00111612 0)
(0.0158341 0.000920123 0)
(0.0159429 0.000760482 0)
(0.016015 0.000631055 0)
(0.0160589 0.000526948 0)
(0.0160814 0.000444257 0)
(0.0160878 0.000379846 0)
(0.00152065 0.0053959 0)
(0.00438472 0.00505605 0)
(0.00685329 0.00453008 0)
(0.00888765 0.00393238 0)
(0.0105152 0.00334243 0)
(0.0117933 0.00280376 0)
(0.0127858 0.00233392 0)
(0.0135513 0.00193516 0)
(0.0141389 0.00160212 0)
(0.0145882 0.0013265 0)
(0.0149299 0.00109956 0)
(0.0151882 0.000913305 0)
(0.0153817 0.000760864 0)
(0.0155247 0.000636553 0)
(0.0156286 0.000535754 0)
(0.0157022 0.000454746 0)
(0.0157526 0.000390533 0)
(0.0157853 0.000340698 0)
(0.00140714 0.00392009 0)
(0.00407126 0.00368971 0)
(0.00639808 0.00332707 0)
(0.00834816 0.00290855 0)
(0.0099365 0.00248962 0)
(0.0112062 0.00210239 0)
(0.0122091 0.00176115 0)
(0.0129955 0.00146909 0)
(0.0136093 0.00122354 0)
(0.0140866 0.00101928 0)
(0.0144567 0.00085047 0)
(0.0147426 0.000711566 0)
(0.0149627 0.000597713 0)
(0.0151312 0.000504827 0)
(0.0152593 0.000429549 0)
(0.0153561 0.00036915 0)
(0.0154287 0.000321421 0)
(0.0154826 0.000284568 0)
(0.00131984 0.00272255 0)
(0.00382746 0.00257054 0)
(0.00603722 0.00232816 0)
(0.00791038 0.00204541 0)
(0.00945494 0.00175962 0)
(0.0107049 0.0014932 0)
(0.0117043 0.00125674 0)
(0.0124973 0.00105317 0)
(0.0131236 0.000881213 0)
(0.0136168 0.000737661 0)
(0.0140046 0.000618723 0)
(0.014309 0.000520703 0)
(0.0145478 0.000440312 0)
(0.0147349 0.000374748 0)
(0.0148816 0.00032169 0)
(0.0149965 0.000279238 0)
(0.0150868 0.000245846 0)
(0.0151582 0.000220251 0)
(0.00124587 0.00174069 0)
(0.0036187 0.0016471 0)
(0.00572241 0.00149636 0)
(0.00751955 0.00131916 0)
(0.00901404 0.00113886 0)
(0.010234 0.000969804 0)
(0.0112179 0.00081902 0)
(0.0120053 0.000688684 0)
(0.0126328 0.000578238 0)
(0.0131318 0.000485819 0)
(0.0135283 0.000409129 0)
(0.0138434 0.000345885 0)
(0.0140942 0.000294027 0)
(0.0142943 0.000251789 0)
(0.0144546 0.000217697 0)
(0.0145835 0.00019054 0)
(0.0146883 0.000169327 0)
(0.0147743 0.000153246 0)
(0.00117162 0.000933879 0)
(0.00340677 0.000884981 0)
(0.00539659 0.000805574 0)
(0.00710526 0.000711729 0)
(0.00853426 0.000615808 0)
(0.00970764 0.000525522 0)
(0.0106596 0.000444729 0)
(0.0114261 0.000374707 0)
(0.012041 0.000315248 0)
(0.0125333 0.000265422 0)
(0.0129277 0.000224045 0)
(0.0132442 0.000189923 0)
(0.0134991 0.000161971 0)
(0.0137054 0.000139254 0)
(0.0138736 0.000120988 0)
(0.0140121 0.00010653 0)
(0.0141275 9.5351e-05 0)
(0.0142253 8.70165e-05 0)
(0.0010429 0.000285119 0)
(0.00303377 0.000270407 0)
(0.00480838 0.000246383 0)
(0.00633357 0.0002179 0)
(0.00760932 0.000188711 0)
(0.00865597 0.000161178 0)
(0.00950335 0.000136494 0)
(0.0101834 0.00011507 0)
(0.0107262 9.68568e-05 0)
(0.0111582 8.15832e-05 0)
(0.0115015 6.88957e-05 0)
(0.0117746 5.84357e-05 0)
(0.0119924 4.98756e-05 0)
(0.0121669 4.2933e-05 0)
(0.012308 3.73709e-05 0)
(0.0124235 3.29942e-05 0)
(0.0125198 2.96436e-05 0)
(0.0126021 2.71887e-05 0)
(5.47457e-34 -1.33181e-33 -1.72068e-59)
(1.64691e-33 -1.33036e-33 1.7175e-59)
(2.75356e-33 -1.32793e-33 0)
(3.8665e-33 -1.32452e-33 0)
(4.9848e-33 -1.32009e-33 0)
(6.1075e-33 -1.31463e-33 -1.69191e-59)
(7.23357e-33 -1.30814e-33 0)
(8.36198e-33 -1.3006e-33 0)
(9.49163e-33 -1.292e-33 0)
(1.06214e-32 -1.28234e-33 0)
(1.17502e-32 -1.27162e-33 1.62966e-59)
(1.28768e-32 -1.25986e-33 0)
(1.40001e-32 -1.24706e-33 0)
(1.51188e-32 -1.23325e-33 0)
(1.62319e-32 -1.21846e-33 0)
(1.7338e-32 -1.20271e-33 1.534e-59)
(1.8436e-32 -1.18606e-33 0)
(1.95248e-32 -1.16855e-33 0)
(2.06032e-32 -1.15022e-33 0)
(2.16701e-32 -1.13115e-33 0)
(2.27246e-32 -1.11139e-33 0)
(2.37655e-32 -1.091e-33 0)
(2.4792e-32 -1.07006e-33 0)
(2.58031e-32 -1.04864e-33 1.32487e-59)
(2.67981e-32 -1.0268e-33 -1.29547e-59)
(2.77761e-32 -1.00462e-33 1.26565e-59)
(2.87365e-32 -9.82166e-34 1.2355e-59)
(2.96785e-32 -9.59513e-34 0)
(3.06018e-32 -9.36726e-34 0)
(3.15057e-32 -9.1387e-34 -1.14396e-59)
(3.23898e-32 -8.91007e-34 -1.11336e-59)
(3.32539e-32 -8.68196e-34 0)
(3.40975e-32 -8.45493e-34 0)
(3.49204e-32 -8.22948e-34 -1.02241e-59)
(3.57225e-32 -8.00611e-34 0)
(3.65037e-32 -7.78524e-34 0)
(3.72639e-32 -7.56728e-34 9.34058e-60)
(3.80031e-32 -7.35258e-34 0)
(3.87213e-32 -7.14147e-34 8.77303e-60)
(3.94185e-32 -6.93423e-34 1.69939e-59)
(4.00951e-32 -6.73111e-34 0)
(4.0751e-32 -6.53234e-34 0)
(4.13864e-32 -6.33808e-34 0)
(4.20017e-32 -6.14849e-34 0)
(4.25971e-32 -5.9637e-34 0)
(4.31728e-32 -5.7838e-34 1.39315e-59)
(4.37291e-32 -5.60888e-34 1.34662e-59)
(4.42664e-32 -5.43897e-34 1.30143e-59)
(4.4785e-32 -5.27412e-34 0)
(4.52853e-32 -5.11432e-34 -1.21511e-59)
(4.57676e-32 -4.95959e-34 0)
(4.62323e-32 -4.80988e-34 1.13417e-59)
(4.66798e-32 -4.66519e-34 1.09571e-59)
(4.71106e-32 -4.52544e-34 0)
(4.7525e-32 -4.3906e-34 0)
(4.79234e-32 -4.26058e-34 0)
(4.83062e-32 -4.13532e-34 9.54908e-60)
(4.86739e-32 -4.01473e-34 0)
(4.90268e-32 -3.89872e-34 0)
(4.93655e-32 -3.78721e-34 0)
(4.96902e-32 -3.68007e-34 0)
(5.00015e-32 -3.57723e-34 0)
(5.02997e-32 -3.47856e-34 0)
(5.05852e-32 -3.38396e-34 0)
(5.08584e-32 -3.29333e-34 0)
(5.11198e-32 -3.20654e-34 -7.08181e-60)
(5.13697e-32 -3.12349e-34 0)
(5.16085e-32 -3.04406e-34 0)
(5.18366e-32 -2.96814e-34 6.44865e-60)
(5.20544e-32 -2.89562e-34 6.25603e-60)
(5.22622e-32 -2.82639e-34 0)
(5.24603e-32 -2.76033e-34 -5.89675e-60)
(5.26492e-32 -2.69734e-34 5.72945e-60)
(5.28292e-32 -2.63731e-34 0)
(5.30006e-32 -2.58013e-34 -5.41815e-60)
(5.31638e-32 -2.52569e-34 0)
(5.3319e-32 -2.4739e-34 0)
(5.34666e-32 -2.42465e-34 5.00527e-60)
(5.36069e-32 -2.37784e-34 0)
(5.37401e-32 -2.33338e-34 -4.76289e-60)
(5.38667e-32 -2.29117e-34 0)
(5.39867e-32 -2.25113e-34 4.54443e-60)
(5.41006e-32 -2.21315e-34 4.44358e-60)
(5.42086e-32 -2.17716e-34 4.34799e-60)
(5.43109e-32 -2.14306e-34 8.51491e-60)
(5.44078e-32 -2.11079e-34 -8.34343e-60)
(5.44995e-32 -2.08024e-34 0)
(5.45863e-32 -2.05136e-34 0)
(5.46684e-32 -2.02406e-34 0)
(5.47459e-32 -1.99827e-34 -7.74581e-60)
(5.48192e-32 -1.97392e-34 -7.61646e-60)
(5.48884e-32 -1.95095e-34 7.49443e-60)
(5.49536e-32 -1.92928e-34 0)
(5.50152e-32 -1.90886e-34 -7.27086e-60)
(5.50732e-32 -1.88962e-34 -7.16864e-60)
(5.51279e-32 -1.87151e-34 -7.07242e-60)
(5.51794e-32 -1.85447e-34 0)
(5.52278e-32 -1.83844e-34 0)
(5.52734e-32 -1.82338e-34 0)
(5.53162e-32 -1.80923e-34 -6.74154e-60)
(5.53565e-32 -1.79595e-34 0)
(5.53942e-32 -1.78348e-34 0)
(5.54297e-32 -1.7718e-34 6.54267e-60)
(5.5463e-32 -1.76084e-34 0)
(5.54941e-32 -1.75059e-34 0)
(5.55234e-32 -1.74098e-34 6.37893e-60)
(5.55507e-32 -1.732e-34 0)
(5.55763e-32 -1.7236e-34 0)
(5.56003e-32 -1.71575e-34 -6.24487e-60)
(5.56226e-32 -1.70842e-34 -6.20593e-60)
(5.56435e-32 -1.70159e-34 0)
(5.5663e-32 -1.69521e-34 6.13567e-60)
(5.56813e-32 -1.68926e-34 0)
(5.56982e-32 -1.68372e-34 -6.07465e-60)
(5.57141e-32 -1.67857e-34 0)
(5.57288e-32 -1.67377e-34 -6.02174e-60)
(5.57425e-32 -1.66931e-34 -5.99806e-60)
(5.57553e-32 -1.66517e-34 0)
(5.57671e-32 -1.66132e-34 0)
(5.57781e-32 -1.65775e-34 0)
(5.57884e-32 -1.65443e-34 0)
(5.57979e-32 -1.65136e-34 0)
(5.58067e-32 -1.64852e-34 0)
(5.58148e-32 -1.64589e-34 0)
(5.58223e-32 -1.64346e-34 -5.8606e-60)
(5.58293e-32 -1.6412e-34 5.84866e-60)
(5.58358e-32 -1.63913e-34 0)
(5.58418e-32 -1.63721e-34 0)
(5.58473e-32 -1.63544e-34 0)
(5.58524e-32 -1.6338e-34 0)
(5.5857e-32 -1.6323e-34 1.16026e-59)
(5.58614e-32 -1.63091e-34 0)
(5.58653e-32 -1.62963e-34 -1.15742e-59)
(5.5869e-32 -1.62846e-34 1.15617e-59)
(5.58724e-32 -1.62738e-34 0)
(5.58754e-32 -1.62638e-34 0)
(5.58783e-32 -1.62547e-34 0)
(5.58808e-32 -1.62462e-34 -1.15209e-59)
(5.58832e-32 -1.62385e-34 -1.15127e-59)
(5.58854e-32 -1.62313e-34 0)
(5.58873e-32 -1.62247e-34 -1.14981e-59)
(5.58891e-32 -1.62185e-34 -1.14916e-59)
(5.58907e-32 -1.62128e-34 1.14855e-59)
(5.58922e-32 -1.62075e-34 0)
(5.58935e-32 -1.62025e-34 0)
(5.58947e-32 -1.61977e-34 1.14695e-59)
(5.58957e-32 -1.61931e-34 0)
(5.58966e-32 -1.61887e-34 0)
(5.58973e-32 -1.61842e-34 0)
(5.58979e-32 -1.61797e-34 0)
(5.58983e-32 -1.6175e-34 -1.14457e-59)
(5.58986e-32 -1.617e-34 -1.14405e-59)
(5.58987e-32 -1.61646e-34 0)
(5.58986e-32 -1.61585e-34 -1.14286e-59)
(5.58983e-32 -1.61516e-34 0)
(5.58977e-32 -1.61435e-34 0)
(5.58968e-32 -1.61339e-34 -1.14033e-59)
(5.58955e-32 -1.61224e-34 0)
(5.58937e-32 -1.61083e-34 -1.13771e-59)
(5.58913e-32 -1.60909e-34 0)
(5.58881e-32 -1.60693e-34 0)
(5.58841e-32 -1.60424e-34 -1.13099e-59)
(5.58788e-32 -1.60085e-34 0)
(5.5872e-32 -1.59656e-34 -1.12317e-59)
(5.58633e-32 -1.59111e-34 0)
(5.5852e-32 -1.58414e-34 0)
(5.58375e-32 -1.57519e-34 0)
(5.58188e-32 -1.56362e-34 1.0896e-59)
(5.57946e-32 -1.54855e-34 0)
(5.5763e-32 -1.52876e-34 -1.05409e-59)
(5.57217e-32 -1.50251e-34 0)
(5.56673e-32 -1.46723e-34 0)
(5.5595e-32 -1.41899e-34 0)
(5.54975e-32 -1.35149e-34 0)
(5.5364e-32 -1.254e-34 0)
(5.51765e-32 -1.10657e-34 0)
(5.49033e-32 -8.67557e-35 0)
(5.44799e-32 -4.33654e-35 -1.3221e-60)
(5.37437e-32 5.26342e-35 0)
(5.21119e-32 3.53649e-34 0)
(5.49479e-34 -3.67647e-33 4.74976e-59)
(1.65299e-33 -3.6721e-33 -4.74021e-59)
(2.76371e-33 -3.66481e-33 0)
(3.88073e-33 -3.65453e-33 9.42841e-59)
(5.00312e-33 -3.64122e-33 0)
(6.12989e-33 -3.62481e-33 -4.67772e-59)
(7.26003e-33 -3.60528e-33 -9.28512e-59)
(8.39246e-33 -3.58257e-33 -9.2211e-59)
(9.5261e-33 -3.55669e-33 0)
(1.06598e-32 -3.5276e-33 -9.06829e-59)
(1.17924e-32 -3.49533e-33 4.50369e-59)
(1.29228e-32 -3.4599e-33 0)
(1.40496e-32 -3.42134e-33 0)
(1.51718e-32 -3.37973e-33 0)
(1.62881e-32 -3.33515e-33 0)
(1.73972e-32 -3.2877e-33 4.22871e-59)
(1.84981e-32 -3.23751e-33 0)
(1.95895e-32 -3.18472e-33 8.13981e-59)
(2.06703e-32 -3.1295e-33 0)
(2.17393e-32 -3.07202e-33 0)
(2.27956e-32 -3.01247e-33 -7.67941e-59)
(2.38381e-32 -2.95106e-33 0)
(2.48659e-32 -2.88798e-33 7.34783e-59)
(2.5878e-32 -2.82346e-33 3.61868e-59)
(2.68737e-32 -2.7577e-33 -3.53252e-59)
(2.78522e-32 -2.69093e-33 3.44507e-59)
(2.88128e-32 -2.62336e-33 3.3566e-59)
(2.97548e-32 -2.5552e-33 0)
(3.06778e-32 -2.48665e-33 0)
(3.15812e-32 -2.41791e-33 -3.08779e-59)
(3.24647e-32 -2.34917e-33 -8.91705e-59)
(3.33279e-32 -2.28059e-33 0)
(3.41705e-32 -2.21236e-33 0)
(3.49922e-32 -2.14462e-33 -2.73054e-59)
(3.57931e-32 -2.07751e-33 0)
(3.65728e-32 -2.01117e-33 0)
(3.73315e-32 -1.94571e-33 2.4707e-59)
(3.80691e-32 -1.88125e-33 0)
(3.87856e-32 -1.81787e-33 6.81971e-59)
(3.94811e-32 -1.75567e-33 4.44509e-59)
(4.01558e-32 -1.69471e-33 0)
(4.08099e-32 -1.63507e-33 0)
(4.14435e-32 -1.57678e-33 -7.76039e-59)
(4.2057e-32 -1.51991e-33 -7.46056e-59)
(4.26504e-32 -1.46448e-33 -7.1684e-59)
(4.32243e-32 -1.41053e-33 1.04281e-58)
(4.37787e-32 -1.35807e-33 3.40716e-59)
(4.43142e-32 -1.30712e-33 -3.06494e-59)
(4.4831e-32 -1.25769e-33 6.07871e-59)
(4.53294e-32 -1.20978e-33 -3.02018e-59)
(4.581e-32 -1.16339e-33 0)
(4.6273e-32 -1.11851e-33 2.78204e-59)
(4.67188e-32 -1.07514e-33 7.78598e-59)
(4.71479e-32 -1.03325e-33 0)
(4.75606e-32 -9.92833e-34 0)
(4.79574e-32 -9.53866e-34 0)
(4.83387e-32 -9.16325e-34 2.25452e-59)
(4.87049e-32 -8.80186e-34 0)
(4.90565e-32 -8.45422e-34 3.90745e-59)
(4.93937e-32 -8.12003e-34 0)
(4.97171e-32 -7.79901e-34 3.56247e-59)
(5.00271e-32 -7.49083e-34 0)
(5.0324e-32 -7.19519e-34 -3.24457e-59)
(5.06083e-32 -6.91174e-34 0)
(5.08804e-32 -6.64017e-34 2.95238e-59)
(5.11407e-32 -6.38014e-34 -4.34398e-59)
(5.13895e-32 -6.1313e-34 0)
(5.16273e-32 -5.89333e-34 -2.55922e-59)
(5.18544e-32 -5.66587e-34 1.34217e-59)
(5.20712e-32 -5.44861e-34 1.28549e-59)
(5.22781e-32 -5.24119e-34 0)
(5.24754e-32 -5.04328e-34 -3.29152e-59)
(5.26635e-32 -4.85457e-34 1.13054e-59)
(5.28427e-32 -4.67471e-34 0)
(5.30133e-32 -4.5034e-34 -1.03894e-59)
(5.31757e-32 -4.34032e-34 -1.74172e-59)
(5.33303e-32 -4.18516e-34 0)
(5.34772e-32 -4.03762e-34 9.17445e-60)
(5.36169e-32 -3.8974e-34 0)
(5.37496e-32 -3.76421e-34 5.92325e-60)
(5.38755e-32 -3.63777e-34 0)
(5.39951e-32 -3.5178e-34 -5.26891e-60)
(5.41085e-32 -3.40403e-34 7.52174e-60)
(5.4216e-32 -3.29621e-34 1.91614e-59)
(5.43178e-32 -3.19407e-34 3.67148e-59)
(5.44143e-32 -3.09737e-34 -3.51922e-59)
(5.45056e-32 -3.00588e-34 0)
(5.4592e-32 -2.91935e-34 0)
(5.46737e-32 -2.83757e-34 0)
(5.4751e-32 -2.76032e-34 6.51467e-60)
(5.48239e-32 -2.68738e-34 -1.13047e-59)
(5.48928e-32 -2.61856e-34 1.09457e-59)
(5.49577e-32 -2.55365e-34 0)
(5.5019e-32 -2.49247e-34 -2.56677e-59)
(5.50768e-32 -2.43484e-34 -9.98719e-60)
(5.51312e-32 -2.38059e-34 -9.70412e-60)
(5.51825e-32 -2.32953e-34 0)
(5.52307e-32 -2.28152e-34 0)
(5.52761e-32 -2.2364e-34 0)
(5.53187e-32 -2.19401e-34 -8.73068e-60)
(5.53588e-32 -2.15422e-34 0)
(5.53964e-32 -2.11688e-34 -1.14251e-59)
(5.54317e-32 -2.08187e-34 -2.91076e-60)
(5.54648e-32 -2.04906e-34 1.07108e-59)
(5.54959e-32 -2.01832e-34 0)
(5.5525e-32 -1.98956e-34 1.77482e-59)
(5.55522e-32 -1.96265e-34 0)
(5.55777e-32 -1.93749e-34 9.5359e-60)
(5.56015e-32 -1.91398e-34 -1.6558e-59)
(5.56238e-32 -1.89202e-34 -1.62122e-59)
(5.56446e-32 -1.87153e-34 0)
(5.56641e-32 -1.85243e-34 -1.69168e-60)
(5.56822e-32 -1.83461e-34 8.45254e-60)
(5.56991e-32 -1.81802e-34 -6.76892e-60)
(5.57149e-32 -1.80258e-34 0)
(5.57295e-32 -1.78821e-34 -6.61332e-60)
(5.57432e-32 -1.77484e-34 1.27934e-60)
(5.57559e-32 -1.76243e-34 0)
(5.57677e-32 -1.7509e-34 7.5708e-60)
(5.57787e-32 -1.7402e-34 7.45808e-60)
(5.57888e-32 -1.73028e-34 7.35357e-60)
(5.57983e-32 -1.72108e-34 0)
(5.58071e-32 -1.71257e-34 0)
(5.58152e-32 -1.70468e-34 0)
(5.58227e-32 -1.69739e-34 -1.31465e-59)
(5.58296e-32 -1.69065e-34 6.10426e-60)
(5.58361e-32 -1.68442e-34 0)
(5.5842e-32 -1.67867e-34 -6.8099e-60)
(5.58475e-32 -1.67336e-34 -6.75399e-60)
(5.58526e-32 -1.66847e-34 0)
(5.58572e-32 -1.66396e-34 1.193e-59)
(5.58615e-32 -1.65981e-34 -1.32223e-59)
(5.58655e-32 -1.65598e-34 -1.18467e-59)
(5.58691e-32 -1.65246e-34 2.48775e-59)
(5.58725e-32 -1.64922e-34 0)
(5.58756e-32 -1.64624e-34 0)
(5.58784e-32 -1.64349e-34 0)
(5.5881e-32 -1.64097e-34 -1.169e-59)
(5.58833e-32 -1.63864e-34 -2.44422e-59)
(5.58855e-32 -1.6365e-34 -1.27313e-59)
(5.58874e-32 -1.63452e-34 -1.16226e-59)
(5.58892e-32 -1.63268e-34 -2.42544e-59)
(5.58908e-32 -1.63097e-34 1.15857e-59)
(5.58923e-32 -1.62937e-34 0)
(5.58936e-32 -1.62787e-34 0)
(5.58947e-32 -1.62644e-34 2.40583e-59)
(5.58957e-32 -1.62507e-34 0)
(5.58966e-32 -1.62373e-34 0)
(5.58973e-32 -1.6224e-34 -1.24352e-59)
(5.58979e-32 -1.62105e-34 0)
(5.58984e-32 -1.61965e-34 -2.38459e-59)
(5.58987e-32 -1.61816e-34 -1.14525e-59)
(5.58988e-32 -1.61654e-34 0)
(5.58987e-32 -1.61473e-34 -2.3693e-59)
(5.58984e-32 -1.61265e-34 0)
(5.58978e-32 -1.61024e-34 0)
(5.58969e-32 -1.60737e-34 -1.13411e-59)
(5.58956e-32 -1.60392e-34 -1.20537e-59)
(5.58938e-32 -1.59971e-34 -1.12621e-59)
(5.58915e-32 -1.59452e-34 0)
(5.58884e-32 -1.58809e-34 0)
(5.58844e-32 -1.58004e-34 -2.26239e-59)
(5.58792e-32 -1.56992e-34 0)
(5.58725e-32 -1.55713e-34 -2.19187e-59)
(5.58639e-32 -1.54086e-34 0)
(5.58528e-32 -1.52007e-34 0)
(5.58386e-32 -1.49336e-34 0)
(5.58202e-32 -1.45884e-34 9.81257e-60)
(5.57963e-32 -1.41391e-34 0)
(5.57653e-32 -1.35495e-34 -8.74354e-60)
(5.57248e-32 -1.27678e-34 0)
(5.56714e-32 -1.1718e-34 0)
(5.56005e-32 -1.02843e-34 -2.64493e-61)
(5.55053e-32 -8.2823e-35 -3.83965e-60)
(5.53755e-32 -5.39947e-35 0)
(5.51945e-32 -1.0633e-35 0)
(5.49342e-32 5.89459e-35 0)
(5.45433e-32 1.82393e-34 6.86233e-59)
(5.3922e-32 4.399e-34 0)
(5.29418e-32 1.13359e-33 -5.08839e-58)
(5.53535e-34 -6.03412e-33 3.1189e-58)
(1.66518e-33 -6.0268e-33 -3.96376e-62)
(2.78406e-33 -6.01459e-33 0)
(3.90928e-33 -5.9974e-33 9.26177e-62)
(5.03988e-33 -5.9751e-33 0)
(6.17485e-33 -5.94763e-33 0)
(7.31317e-33 -5.9149e-33 -3.04929e-58)
(8.45372e-33 -5.87684e-33 -1.51513e-58)
(9.59539e-33 -5.83341e-33 1.5011e-58)
(1.0737e-32 -5.7846e-33 -1.49021e-58)
(1.18774e-32 -5.7304e-33 0)
(1.30152e-32 -5.67086e-33 0)
(1.41493e-32 -5.60605e-33 -1.4391e-58)
(1.52785e-32 -5.53608e-33 -2.84044e-58)
(1.64013e-32 -5.4611e-33 2.80008e-58)
(1.75167e-32 -5.38128e-33 0)
(1.86233e-32 -5.29685e-33 2.71201e-58)
(1.97199e-32 -5.20804e-33 1.33693e-58)
(2.08054e-32 -5.11515e-33 0)
(2.18787e-32 -5.01848e-33 2.56349e-58)
(2.29386e-32 -4.91835e-33 -1.26053e-58)
(2.39842e-32 -4.81512e-33 -2.45537e-58)
(2.50145e-32 -4.70913e-33 1.20547e-58)
(2.60286e-32 -4.60075e-33 0)
(2.70258e-32 -4.49035e-33 2.28317e-58)
(2.80051e-32 -4.3783e-33 2.22385e-58)
(2.89661e-32 -4.26496e-33 0)
(2.9908e-32 -4.15068e-33 2.10348e-58)
(3.08305e-32 -4.03581e-33 0)
(3.17329e-32 -3.92067e-33 1.98198e-58)
(3.2615e-32 -3.80557e-33 -9.68315e-59)
(3.34764e-32 -3.69082e-33 0)
(3.43169e-32 -3.57668e-33 0)
(3.51363e-32 -3.46341e-33 0)
(3.59344e-32 -3.35126e-33 0)
(3.67113e-32 -3.24043e-33 0)
(3.74669e-32 -3.13111e-33 0)
(3.82012e-32 -3.0235e-33 1.50899e-58)
(3.89143e-32 -2.91773e-33 -7.17462e-59)
(3.96063e-32 -2.81396e-33 0)
(4.02775e-32 -2.71229e-33 0)
(4.09279e-32 -2.61284e-33 0)
(4.15578e-32 -2.51569e-33 -2.50304e-58)
(4.21674e-32 -2.4209e-33 -1.21175e-58)
(4.27571e-32 -2.32855e-33 -2.01919e-60)
(4.33272e-32 -2.23868e-33 2.04608e-60)
(4.38779e-32 -2.15131e-33 -1.05004e-58)
(4.44097e-32 -2.06647e-33 -1.0264e-58)
(4.49228e-32 -1.98417e-33 1.94552e-58)
(4.54177e-32 -1.90442e-33 9.20222e-59)
(4.58947e-32 -1.82721e-33 0)
(4.63542e-32 -1.75253e-33 8.40369e-59)
(4.67966e-32 -1.68035e-33 1.62696e-58)
(4.72224e-32 -1.61066e-33 0)
(4.76319e-32 -1.54343e-33 0)
(4.80255e-32 -1.47861e-33 -6.96388e-59)
(4.84038e-32 -1.41617e-33 0)
(4.8767e-32 -1.35606e-33 0)
(4.91156e-32 -1.29825e-33 1.82799e-58)
(4.94501e-32 -1.24267e-33 1.14479e-58)
(4.97708e-32 -1.18929e-33 5.67846e-59)
(5.00782e-32 -1.13805e-33 0)
(5.03726e-32 -1.08889e-33 -5.15374e-59)
(5.06545e-32 -1.04177e-33 0)
(5.09242e-32 -9.9662e-34 1.35335e-58)
(5.11823e-32 -9.53391e-34 -4.44556e-59)
(5.1429e-32 -9.12025e-34 -7.97304e-59)
(5.16647e-32 -8.72466e-34 -1.158e-58)
(5.18898e-32 -8.34657e-34 0)
(5.21048e-32 -7.98542e-34 6.78051e-59)
(5.23098e-32 -7.64064e-34 0)
(5.25054e-32 -7.3117e-34 2.78835e-59)
(5.26919e-32 -6.99803e-34 5.74295e-59)
(5.28695e-32 -6.6991e-34 5.42883e-59)
(5.30386e-32 -6.41437e-34 -5.12964e-59)
(5.31997e-32 -6.14333e-34 2.17121e-59)
(5.33528e-32 -5.88545e-34 0)
(5.34985e-32 -5.64024e-34 0)
(5.36369e-32 -5.40719e-34 -4.0713e-59)
(5.37684e-32 -5.18583e-34 -1.66546e-59)
(5.38933e-32 -4.9757e-34 0)
(5.40118e-32 -4.77631e-34 -1.95922e-59)
(5.41242e-32 -4.58724e-34 0)
(5.42307e-32 -4.40805e-34 -1.25462e-59)
(5.43317e-32 -4.23831e-34 6.19914e-59)
(5.44273e-32 -4.07761e-34 -5.8623e-59)
(5.45178e-32 -3.92556e-34 2.51437e-59)
(5.46034e-32 -3.78176e-34 0)
(5.46844e-32 -3.64585e-34 -2.22044e-59)
(5.4761e-32 -3.51747e-34 4.68821e-59)
(5.48333e-32 -3.39626e-34 0)
(5.49015e-32 -3.28188e-34 0)
(5.49659e-32 -3.17402e-34 0)