/*--------------------------------*- C++ -*----------------------------------*\
  =========                 |
  \\      /  F ield         | OpenFOAM: The Open Source CFD Toolbox
   \\    /   O peration     | Website:  https://openfoam.org
    \\  /    A nd           | Version:  10
     \\/     M anipulation  |
\*---------------------------------------------------------------------------*/
FoamFile
{
    format      ascii;
    class       volVectorField;
    location    "2800";
    object      Ua;
}
// * * * * * * * * * * * * * * * * * * * * * * * * * * * * * * * * * * * * * //

dimensions      [0 1 -1 0 0 0 0];

internalField   nonuniform List<vector> 
6400
(
(-4.05621e-08 8.24501e-09 0)
(-1.21458e-07 8.19862e-09 0)
(-2.01669e-07 8.10576e-09 0)
(-2.80737e-07 7.96631e-09 0)
(-3.58203e-07 7.78013e-09 0)
(-4.33606e-07 7.547e-09 0)
(-5.06483e-07 7.26676e-09 0)
(-5.76371e-07 6.93925e-09 0)
(-6.42804e-07 6.5644e-09 0)
(-7.05315e-07 6.14227e-09 0)
(-7.63442e-07 5.67309e-09 0)
(-8.16723e-07 5.15734e-09 0)
(-8.64705e-07 4.59582e-09 0)
(-9.06942e-07 3.98969e-09 0)
(-9.43004e-07 3.34059e-09 0)
(-9.72479e-07 2.65071e-09 0)
(-9.94979e-07 1.92284e-09 0)
(-1.01015e-06 1.16049e-09 0)
(-1.01767e-06 3.67909e-10 0)
(-1.01726e-06 -4.49808e-10 0)
(-1.00872e-06 -1.28671e-09 0)
(-9.91882e-07 -2.13598e-09 0)
(-9.66665e-07 -2.9899e-09 0)
(-9.33065e-07 -3.83996e-09 0)
(-8.91166e-07 -4.67688e-09 0)
(-8.41145e-07 -5.49075e-09 0)
(-7.83281e-07 -6.27122e-09 0)
(-7.17954e-07 -7.00765e-09 0)
(-6.45651e-07 -7.6894e-09 0)
(-5.6696e-07 -8.30609e-09 0)
(-4.82569e-07 -8.84786e-09 0)
(-3.93261e-07 -9.30571e-09 0)
(-3.26556e-07 -9.5701e-09 0)
(-2.84392e-07 -9.71375e-09 0)
(-2.41643e-07 -9.83785e-09 0)
(-1.98395e-07 -9.94195e-09 0)
(-1.54736e-07 -1.00257e-08 0)
(-1.10756e-07 -1.00888e-08 0)
(-6.65457e-08 -1.01309e-08 0)
(-2.21973e-08 -1.01521e-08 0)
(2.21973e-08 -1.01521e-08 0)
(6.65457e-08 -1.01309e-08 0)
(1.10756e-07 -1.00888e-08 0)
(1.54736e-07 -1.00257e-08 0)
(1.98395e-07 -9.94195e-09 0)
(2.41643e-07 -9.83785e-09 0)
(2.84392e-07 -9.71375e-09 0)
(3.26556e-07 -9.5701e-09 0)
(3.93261e-07 -9.30571e-09 0)
(4.82569e-07 -8.84786e-09 0)
(5.6696e-07 -8.30609e-09 0)
(6.45651e-07 -7.6894e-09 0)
(7.17954e-07 -7.00765e-09 0)
(7.83281e-07 -6.27122e-09 0)
(8.41145e-07 -5.49075e-09 0)
(8.91165e-07 -4.67688e-09 0)
(9.33065e-07 -3.83996e-09 0)
(9.66665e-07 -2.9899e-09 0)
(9.91882e-07 -2.13598e-09 0)
(1.00872e-06 -1.28671e-09 0)
(1.01726e-06 -4.49808e-10 0)
(1.01767e-06 3.67909e-10 0)
(1.01015e-06 1.16049e-09 0)
(9.94979e-07 1.92284e-09 0)
(9.72479e-07 2.65071e-09 0)
(9.43004e-07 3.34059e-09 0)
(9.06942e-07 3.98969e-09 0)
(8.64705e-07 4.59582e-09 0)
(8.16723e-07 5.15734e-09 0)
(7.63442e-07 5.67309e-09 0)
(7.05315e-07 6.14227e-09 0)
(6.42804e-07 6.5644e-09 0)
(5.76371e-07 6.93925e-09 0)
(5.06483e-07 7.26676e-09 0)
(4.33606e-07 7.547e-09 0)
(3.58203e-07 7.78013e-09 0)
(2.80737e-07 7.96631e-09 0)
(2.01669e-07 8.10576e-09 0)
(1.21458e-07 8.19862e-09 0)
(4.05621e-08 8.24501e-09 0)
(-4.0572e-08 2.55356e-08 0)
(-1.21488e-07 2.53919e-08 0)
(-2.01718e-07 2.51043e-08 0)
(-2.80806e-07 2.46725e-08 0)
(-3.58292e-07 2.40959e-08 0)
(-4.33715e-07 2.3374e-08 0)
(-5.06613e-07 2.25061e-08 0)
(-5.76521e-07 2.14919e-08 0)
(-6.42973e-07 2.03311e-08 0)
(-7.05505e-07 1.90238e-08 0)
(-7.63652e-07 1.75708e-08 0)
(-8.16953e-07 1.59736e-08 0)
(-8.64954e-07 1.42346e-08 0)
(-9.07209e-07 1.23574e-08 0)
(-9.43289e-07 1.03472e-08 0)
(-9.72781e-07 8.21059e-09 0)
(-9.95296e-07 5.95635e-09 0)
(-1.01048e-06 3.59526e-09 0)
(-1.01801e-06 1.14054e-09 0)
(-1.01762e-06 -1.39207e-09 0)
(-1.00908e-06 -3.98414e-09 0)
(-9.92245e-07 -6.61453e-09 0)
(-9.67028e-07 -9.2594e-09 0)
(-9.33424e-07 -1.18923e-08 0)
(-8.91517e-07 -1.44846e-08 0)
(-8.41485e-07 -1.70055e-08 0)
(-7.83604e-07 -1.9423e-08 0)
(-7.18256e-07 -2.17041e-08 0)
(-6.45928e-07 -2.38158e-08 0)
(-5.67206e-07 -2.57261e-08 0)
(-4.82782e-07 -2.74043e-08 0)
(-3.93437e-07 -2.88225e-08 0)
(-3.26703e-07 -2.96415e-08 0)
(-2.8452e-07 -3.00865e-08 0)
(-2.41752e-07 -3.04709e-08 0)
(-1.98485e-07 -3.07934e-08 0)
(-1.54806e-07 -3.10528e-08 0)
(-1.10806e-07 -3.12481e-08 0)
(-6.65761e-08 -3.13788e-08 0)
(-2.22074e-08 -3.14442e-08 0)
(2.22074e-08 -3.14442e-08 0)
(6.65761e-08 -3.13788e-08 0)
(1.10806e-07 -3.12481e-08 0)
(1.54806e-07 -3.10528e-08 0)
(1.98485e-07 -3.07934e-08 0)
(2.41752e-07 -3.04709e-08 0)
(2.8452e-07 -3.00865e-08 0)
(3.26703e-07 -2.96415e-08 0)
(3.93437e-07 -2.88225e-08 0)
(4.82782e-07 -2.74043e-08 0)
(5.67206e-07 -2.57261e-08 0)
(6.45928e-07 -2.38158e-08 0)
(7.18256e-07 -2.17041e-08 0)
(7.83604e-07 -1.9423e-08 0)
(8.41485e-07 -1.70055e-08 0)
(8.91517e-07 -1.44846e-08 0)
(9.33424e-07 -1.18923e-08 0)
(9.67028e-07 -9.2594e-09 0)
(9.92245e-07 -6.61453e-09 0)
(1.00908e-06 -3.98414e-09 0)
(1.01762e-06 -1.39207e-09 0)
(1.01801e-06 1.14054e-09 0)
(1.01048e-06 3.59526e-09 0)
(9.95296e-07 5.95635e-09 0)
(9.72781e-07 8.21059e-09 0)
(9.43289e-07 1.03472e-08 0)
(9.07209e-07 1.23574e-08 0)
(8.64954e-07 1.42346e-08 0)
(8.16953e-07 1.59736e-08 0)
(7.63652e-07 1.75708e-08 0)
(7.05505e-07 1.90238e-08 0)
(6.42973e-07 2.03311e-08 0)
(5.76521e-07 2.14919e-08 0)
(5.06613e-07 2.25061e-08 0)
(4.33715e-07 2.3374e-08 0)
(3.58292e-07 2.40959e-08 0)
(2.80806e-07 2.46725e-08 0)
(2.01718e-07 2.51043e-08 0)
(1.21488e-07 2.53919e-08 0)
(4.0572e-08 2.55356e-08 0)
(-4.05947e-08 4.4508e-08 0)
(-1.21556e-07 4.42577e-08 0)
(-2.01832e-07 4.37566e-08 0)
(-2.80966e-07 4.30041e-08 0)
(-3.58498e-07 4.19993e-08 0)
(-4.33967e-07 4.07413e-08 0)
(-5.06911e-07 3.9229e-08 0)
(-5.76865e-07 3.74615e-08 0)
(-6.43364e-07 3.54386e-08 0)
(-7.05942e-07 3.31604e-08 0)
(-7.64135e-07 3.06283e-08 0)
(-8.17481e-07 2.78447e-08 0)
(-8.65526e-07 2.4814e-08 0)
(-9.07825e-07 2.15425e-08 0)
(-9.43946e-07 1.8039e-08 0)
(-9.73476e-07 1.43152e-08 0)
(-9.96027e-07 1.03862e-08 0)
(-1.01124e-06 6.27084e-09 0)
(-1.0188e-06 1.99219e-09 0)
(-1.01843e-06 -2.42235e-09 0)
(-1.00991e-06 -6.94068e-09 0)
(-9.9308e-07 -1.15259e-08 0)
(-9.67864e-07 -1.61366e-08 0)
(-9.34251e-07 -2.07265e-08 0)
(-8.92327e-07 -2.52458e-08 0)
(-8.42266e-07 -2.96407e-08 0)
(-7.84348e-07 -3.38555e-08 0)
(-7.18952e-07 -3.78326e-08 0)
(-6.46564e-07 -4.15146e-08 0)
(-5.67774e-07 -4.48453e-08 0)
(-4.83272e-07 -4.77714e-08 0)
(-3.93841e-07 -5.02444e-08 0)
(-3.27041e-07 -5.16725e-08 0)
(-2.84816e-07 -5.24484e-08 0)
(-2.42004e-07 -5.31187e-08 0)
(-1.98692e-07 -5.3681e-08 0)
(-1.54968e-07 -5.41333e-08 0)
(-1.10922e-07 -5.4474e-08 0)
(-6.66459e-08 -5.47018e-08 0)
(-2.22307e-08 -5.48159e-08 0)
(2.22307e-08 -5.48159e-08 0)
(6.66459e-08 -5.47018e-08 0)
(1.10922e-07 -5.4474e-08 0)
(1.54968e-07 -5.41333e-08 0)
(1.98692e-07 -5.3681e-08 0)
(2.42004e-07 -5.31187e-08 0)
(2.84816e-07 -5.24484e-08 0)
(3.27041e-07 -5.16725e-08 0)
(3.93841e-07 -5.02444e-08 0)
(4.83272e-07 -4.77714e-08 0)
(5.67774e-07 -4.48453e-08 0)
(6.46564e-07 -4.15146e-08 0)
(7.18952e-07 -3.78326e-08 0)
(7.84348e-07 -3.38555e-08 0)
(8.42266e-07 -2.96407e-08 0)
(8.92327e-07 -2.52458e-08 0)
(9.34251e-07 -2.07265e-08 0)
(9.67864e-07 -1.61366e-08 0)
(9.9308e-07 -1.15259e-08 0)
(1.00991e-06 -6.94068e-09 0)
(1.01843e-06 -2.42235e-09 0)
(1.0188e-06 1.99219e-09 0)
(1.01124e-06 6.27084e-09 0)
(9.96027e-07 1.03862e-08 0)
(9.73476e-07 1.43152e-08 0)
(9.43946e-07 1.8039e-08 0)
(9.07825e-07 2.15425e-08 0)
(8.65526e-07 2.4814e-08 0)
(8.17481e-07 2.78447e-08 0)
(7.64135e-07 3.06283e-08 0)
(7.05942e-07 3.31604e-08 0)
(6.43364e-07 3.54386e-08 0)
(5.76865e-07 3.74615e-08 0)
(5.06911e-07 3.9229e-08 0)
(4.33967e-07 4.07413e-08 0)
(3.58498e-07 4.19993e-08 0)
(2.80966e-07 4.30041e-08 0)
(2.01832e-07 4.37566e-08 0)
(1.21556e-07 4.42577e-08 0)
(4.05947e-08 4.4508e-08 0)
(-4.06339e-08 6.53336e-08 0)
(-1.21674e-07 6.49662e-08 0)
(-2.02029e-07 6.4231e-08 0)
(-2.81241e-07 6.31268e-08 0)
(-3.58852e-07 6.16525e-08 0)
(-4.34401e-07 5.98065e-08 0)
(-5.07425e-07 5.75874e-08 0)
(-5.77459e-07 5.49938e-08 0)
(-6.44038e-07 5.20253e-08 0)
(-7.06696e-07 4.86821e-08 0)
(-7.64968e-07 4.49662e-08 0)
(-8.18392e-07 4.08812e-08 0)
(-8.66514e-07 3.64334e-08 0)
(-9.08887e-07 3.16319e-08 0)
(-9.45079e-07 2.64897e-08 0)
(-9.74675e-07 2.1024e-08 0)
(-9.97288e-07 1.52569e-08 0)
(-1.01256e-06 9.21598e-09 0)
(-1.02016e-06 2.93504e-09 0)
(-1.01983e-06 -3.54571e-09 0)
(-1.01133e-06 -1.01792e-08 0)
(-9.94522e-07 -1.69113e-08 0)
(-9.69306e-07 -2.3681e-08 0)
(-9.3568e-07 -3.04207e-08 0)
(-8.93724e-07 -3.70569e-08 0)
(-8.43616e-07 -4.3511e-08 0)
(-7.85632e-07 -4.97007e-08 0)
(-7.20153e-07 -5.55418e-08 0)
(-6.47664e-07 -6.09496e-08 0)
(-5.68756e-07 -6.58417e-08 0)
(-4.84119e-07 -7.01398e-08 0)
(-3.94539e-07 -7.37723e-08 0)
(-3.27625e-07 -7.58701e-08 0)
(-2.85326e-07 -7.70099e-08 0)
(-2.42439e-07 -7.79945e-08 0)
(-1.9905e-07 -7.88205e-08 0)
(-1.55248e-07 -7.9485e-08 0)
(-1.11123e-07 -7.99854e-08 0)
(-6.67665e-08 -8.032e-08 0)
(-2.2271e-08 -8.04877e-08 0)
(2.2271e-08 -8.04877e-08 0)
(6.67665e-08 -8.032e-08 0)
(1.11123e-07 -7.99854e-08 0)
(1.55248e-07 -7.9485e-08 0)
(1.9905e-07 -7.88205e-08 0)
(2.42439e-07 -7.79945e-08 0)
(2.85326e-07 -7.70099e-08 0)
(3.27625e-07 -7.58701e-08 0)
(3.94539e-07 -7.37723e-08 0)
(4.84119e-07 -7.01398e-08 0)
(5.68756e-07 -6.58417e-08 0)
(6.47664e-07 -6.09496e-08 0)
(7.20153e-07 -5.55418e-08 0)
(7.85632e-07 -4.97007e-08 0)
(8.43616e-07 -4.3511e-08 0)
(8.93724e-07 -3.70569e-08 0)
(9.3568e-07 -3.04207e-08 0)
(9.69306e-07 -2.3681e-08 0)
(9.94522e-07 -1.69113e-08 0)
(1.01133e-06 -1.01792e-08 0)
(1.01983e-06 -3.54571e-09 0)
(1.02016e-06 2.93504e-09 0)
(1.01256e-06 9.21599e-09 0)
(9.97288e-07 1.52569e-08 0)
(9.74675e-07 2.1024e-08 0)
(9.45079e-07 2.64897e-08 0)
(9.08887e-07 3.16319e-08 0)
(8.66514e-07 3.64334e-08 0)
(8.18392e-07 4.08812e-08 0)
(7.64968e-07 4.49662e-08 0)
(7.06696e-07 4.86821e-08 0)
(6.44038e-07 5.20253e-08 0)
(5.77459e-07 5.49938e-08 0)
(5.07425e-07 5.75874e-08 0)
(4.34401e-07 5.98065e-08 0)
(3.58852e-07 6.16525e-08 0)
(2.81241e-07 6.31268e-08 0)
(2.02029e-07 6.4231e-08 0)
(1.21674e-07 6.49662e-08 0)
(4.06339e-08 6.53336e-08 0)
(-4.06942e-08 8.82039e-08 0)
(-1.21855e-07 8.77082e-08 0)
(-2.0233e-07 8.67162e-08 0)
(-2.81664e-07 8.52264e-08 0)
(-3.59397e-07 8.32372e-08 0)
(-4.35068e-07 8.07465e-08 0)
(-5.08214e-07 7.77521e-08 0)
(-5.78372e-07 7.42525e-08 0)
(-6.45074e-07 7.02468e-08 0)
(-7.07854e-07 6.57354e-08 0)
(-7.66248e-07 6.07208e-08 0)
(-8.19792e-07 5.52078e-08 0)
(-8.68031e-07 4.92049e-08 0)
(-9.10518e-07 4.27244e-08 0)
(-9.46819e-07 3.57836e-08 0)
(-9.76518e-07 2.84056e-08 0)
(-9.99225e-07 2.06203e-08 0)
(-1.01458e-06 1.24648e-08 0)
(-1.02226e-06 3.98454e-09 0)
(-1.02198e-06 -4.7661e-09 0)
(-1.01353e-06 -1.37237e-08 0)
(-9.96737e-07 -2.28151e-08 0)
(-9.71523e-07 -3.19581e-08 0)
(-9.37874e-07 -4.10614e-08 0)
(-8.95872e-07 -5.00256e-08 0)
(-8.45691e-07 -5.87445e-08 0)
(-7.87607e-07 -6.7107e-08 0)
(-7.21999e-07 -7.49989e-08 0)
(-6.49354e-07 -8.23061e-08 0)
(-5.70264e-07 -8.89168e-08 0)
(-4.8542e-07 -9.47251e-08 0)
(-3.95611e-07 -9.96343e-08 0)
(-3.28522e-07 -1.02469e-07 0)
(-2.86111e-07 -1.0401e-07 0)
(-2.43107e-07 -1.05341e-07 0)
(-1.996e-07 -1.06457e-07 0)
(-1.55678e-07 -1.07355e-07 0)
(-1.11431e-07 -1.08032e-07 0)
(-6.6952e-08 -1.08484e-07 0)
(-2.23329e-08 -1.0871e-07 0)
(2.23329e-08 -1.0871e-07 0)
(6.6952e-08 -1.08484e-07 0)
(1.11431e-07 -1.08032e-07 0)
(1.55678e-07 -1.07355e-07 0)
(1.996e-07 -1.06457e-07 0)
(2.43107e-07 -1.05341e-07 0)
(2.86111e-07 -1.0401e-07 0)
(3.28522e-07 -1.02469e-07 0)
(3.95611e-07 -9.96343e-08 0)
(4.8542e-07 -9.47251e-08 0)
(5.70264e-07 -8.89168e-08 0)
(6.49354e-07 -8.23061e-08 0)
(7.21999e-07 -7.49989e-08 0)
(7.87607e-07 -6.7107e-08 0)
(8.45691e-07 -5.87445e-08 0)
(8.95872e-07 -5.00256e-08 0)
(9.37874e-07 -4.10614e-08 0)
(9.71523e-07 -3.19581e-08 0)
(9.96737e-07 -2.28151e-08 0)
(1.01353e-06 -1.37237e-08 0)
(1.02198e-06 -4.7661e-09 0)
(1.02226e-06 3.98454e-09 0)
(1.01458e-06 1.24648e-08 0)
(9.99225e-07 2.06203e-08 0)
(9.76518e-07 2.84056e-08 0)
(9.46819e-07 3.57836e-08 0)
(9.10518e-07 4.27244e-08 0)
(8.68031e-07 4.92049e-08 0)
(8.19792e-07 5.52078e-08 0)
(7.66248e-07 6.07208e-08 0)
(7.07854e-07 6.57354e-08 0)
(6.45074e-07 7.02468e-08 0)
(5.78372e-07 7.42525e-08 0)
(5.08214e-07 7.77521e-08 0)
(4.35068e-07 8.07465e-08 0)
(3.59397e-07 8.32372e-08 0)
(2.81664e-07 8.52264e-08 0)
(2.0233e-07 8.67162e-08 0)
(1.21855e-07 8.77082e-08 0)
(4.06942e-08 8.82039e-08 0)
(-4.0781e-08 1.13334e-07 0)
(-1.22115e-07 1.12698e-07 0)
(-2.02765e-07 1.11424e-07 0)
(-2.82273e-07 1.09512e-07 0)
(-3.60181e-07 1.06958e-07 0)
(-4.36028e-07 1.0376e-07 0)
(-5.09351e-07 9.9916e-08 0)
(-5.79686e-07 9.54227e-08 0)
(-6.46565e-07 9.02793e-08 0)
(-7.09522e-07 8.44863e-08 0)
(-7.68091e-07 7.80468e-08 0)
(-8.21809e-07 7.09669e-08 0)
(-8.70217e-07 6.32571e-08 0)
(-9.12868e-07 5.49334e-08 0)
(-9.49326e-07 4.60176e-08 0)
(-9.79174e-07 3.65395e-08 0)
(-1.00202e-06 2.65371e-08 0)
(-1.01749e-06 1.6058e-08 0)
(-1.02527e-06 5.16062e-09 0)
(-1.02508e-06 -6.08556e-09 0)
(-1.01669e-06 -1.7599e-08 0)
(-9.99932e-07 -2.92859e-08 0)
(-9.74719e-07 -4.10404e-08 0)
(-9.4104e-07 -5.27453e-08 0)
(-8.9897e-07 -6.42726e-08 0)
(-8.48684e-07 -7.54859e-08 0)
(-7.90454e-07 -8.6242e-08 0)
(-7.24662e-07 -9.6394e-08 0)
(-6.51793e-07 -1.05795e-07 0)
(-5.7244e-07 -1.143e-07 0)
(-4.87299e-07 -1.21774e-07 0)
(-3.9716e-07 -1.28091e-07 0)
(-3.29817e-07 -1.3174e-07 0)
(-2.87243e-07 -1.33722e-07 0)
(-2.44072e-07 -1.35435e-07 0)
(-2.00394e-07 -1.36872e-07 0)
(-1.56299e-07 -1.38027e-07 0)
(-1.11876e-07 -1.38898e-07 0)
(-6.72197e-08 -1.3948e-07 0)
(-2.24222e-08 -1.39772e-07 0)
(2.24222e-08 -1.39772e-07 0)
(6.72197e-08 -1.3948e-07 0)
(1.11876e-07 -1.38898e-07 0)
(1.56299e-07 -1.38027e-07 0)
(2.00394e-07 -1.36872e-07 0)
(2.44072e-07 -1.35435e-07 0)
(2.87243e-07 -1.33722e-07 0)
(3.29817e-07 -1.3174e-07 0)
(3.9716e-07 -1.28091e-07 0)
(4.87299e-07 -1.21774e-07 0)
(5.7244e-07 -1.143e-07 0)
(6.51793e-07 -1.05795e-07 0)
(7.24662e-07 -9.6394e-08 0)
(7.90454e-07 -8.6242e-08 0)
(8.48684e-07 -7.54859e-08 0)
(8.9897e-07 -6.42726e-08 0)
(9.4104e-07 -5.27453e-08 0)
(9.74719e-07 -4.10404e-08 0)
(9.99932e-07 -2.92859e-08 0)
(1.01669e-06 -1.7599e-08 0)
(1.02508e-06 -6.08556e-09 0)
(1.02527e-06 5.16062e-09 0)
(1.01749e-06 1.6058e-08 0)
(1.00202e-06 2.65371e-08 0)
(9.79174e-07 3.65395e-08 0)
(9.49326e-07 4.60176e-08 0)
(9.12868e-07 5.49334e-08 0)
(8.70217e-07 6.32571e-08 0)
(8.21809e-07 7.09669e-08 0)
(7.68091e-07 7.80468e-08 0)
(7.09522e-07 8.44863e-08 0)
(6.46565e-07 9.02793e-08 0)
(5.79686e-07 9.54227e-08 0)
(5.09351e-07 9.9916e-08 0)
(4.36028e-07 1.0376e-07 0)
(3.60181e-07 1.06958e-07 0)
(2.82273e-07 1.09512e-07 0)
(2.02765e-07 1.11424e-07 0)
(1.22115e-07 1.12698e-07 0)
(4.0781e-08 1.13334e-07 0)
(-4.09011e-08 1.40968e-07 0)
(-1.22475e-07 1.40178e-07 0)
(-2.03366e-07 1.38596e-07 0)
(-2.83116e-07 1.3622e-07 0)
(-3.61267e-07 1.33047e-07 0)
(-4.37357e-07 1.29074e-07 0)
(-5.10925e-07 1.24298e-07 0)
(-5.81504e-07 1.18715e-07 0)
(-6.48629e-07 1.12323e-07 0)
(-7.11831e-07 1.05124e-07 0)
(-7.70643e-07 9.71213e-08 0)
(-8.246e-07 8.83215e-08 0)
(-8.73243e-07 7.8738e-08 0)
(-9.16122e-07 6.83901e-08 0)
(-9.52798e-07 5.73049e-08 0)
(-9.82851e-07 4.55191e-08 0)
(-1.00588e-06 3.30796e-08 0)
(-1.02153e-06 2.00456e-08 0)
(-1.02945e-06 6.48922e-09 0)
(-1.02938e-06 -7.50316e-09 0)
(-1.02107e-06 -2.18303e-08 0)
(-1.00436e-06 -3.63756e-08 0)
(-9.79149e-07 -5.10076e-08 0)
(-9.45427e-07 -6.55801e-08 0)
(-9.03265e-07 -7.9934e-08 0)
(-8.52833e-07 -9.3899e-08 0)
(-7.94404e-07 -1.07297e-07 0)
(-7.28355e-07 -1.19944e-07 0)
(-6.55175e-07 -1.31657e-07 0)
(-5.75459e-07 -1.42255e-07 0)
(-4.89904e-07 -1.5157e-07 0)
(-3.99307e-07 -1.59444e-07 0)
(-3.31615e-07 -1.63991e-07 0)
(-2.88814e-07 -1.66463e-07 0)
(-2.45411e-07 -1.68598e-07 0)
(-2.01497e-07 -1.70389e-07 0)
(-1.5716e-07 -1.71829e-07 0)
(-1.12494e-07 -1.72915e-07 0)
(-6.75911e-08 -1.7364e-07 0)
(-2.25462e-08 -1.74004e-07 0)
(2.25462e-08 -1.74004e-07 0)
(6.75911e-08 -1.7364e-07 0)
(1.12494e-07 -1.72915e-07 0)
(1.5716e-07 -1.71829e-07 0)
(2.01497e-07 -1.70389e-07 0)
(2.45411e-07 -1.68598e-07 0)
(2.88814e-07 -1.66463e-07 0)
(3.31615e-07 -1.63991e-07 0)
(3.99307e-07 -1.59444e-07 0)
(4.89904e-07 -1.5157e-07 0)
(5.75459e-07 -1.42255e-07 0)
(6.55175e-07 -1.31657e-07 0)
(7.28355e-07 -1.19944e-07 0)
(7.94404e-07 -1.07297e-07 0)
(8.52833e-07 -9.3899e-08 0)
(9.03265e-07 -7.9934e-08 0)
(9.45427e-07 -6.55801e-08 0)
(9.79149e-07 -5.10076e-08 0)
(1.00436e-06 -3.63756e-08 0)
(1.02107e-06 -2.18303e-08 0)
(1.02938e-06 -7.50316e-09 0)
(1.02945e-06 6.48922e-09 0)
(1.02153e-06 2.00456e-08 0)
(1.00588e-06 3.30796e-08 0)
(9.82851e-07 4.55191e-08 0)
(9.52798e-07 5.73049e-08 0)
(9.16122e-07 6.83901e-08 0)
(8.73243e-07 7.8738e-08 0)
(8.246e-07 8.83215e-08 0)
(7.70643e-07 9.71213e-08 0)
(7.11831e-07 1.05124e-07 0)
(6.48629e-07 1.12323e-07 0)
(5.81504e-07 1.18715e-07 0)
(5.10925e-07 1.24298e-07 0)
(4.37357e-07 1.29074e-07 0)
(3.61267e-07 1.33047e-07 0)
(2.83116e-07 1.3622e-07 0)
(2.03366e-07 1.38596e-07 0)
(1.22475e-07 1.40178e-07 0)
(4.09011e-08 1.40968e-07 0)
(-4.10627e-08 1.71383e-07 0)
(-1.2296e-07 1.70424e-07 0)
(-2.04175e-07 1.68504e-07 0)
(-2.8425e-07 1.6562e-07 0)
(-3.62728e-07 1.61769e-07 0)
(-4.39146e-07 1.56946e-07 0)
(-5.13043e-07 1.51148e-07 0)
(-5.83953e-07 1.44369e-07 0)
(-6.51408e-07 1.36609e-07 0)
(-7.14939e-07 1.27868e-07 0)
(-7.74079e-07 1.18149e-07 0)
(-8.28359e-07 1.07461e-07 0)
(-8.7732e-07 9.58196e-08 0)
(-9.20506e-07 8.32478e-08 0)
(-9.57476e-07 6.97784e-08 0)
(-9.87806e-07 5.54551e-08 0)
(-1.01109e-06 4.03348e-08 0)
(-1.02697e-06 2.44888e-08 0)
(-1.03509e-06 8.00453e-09 0)
(-1.03517e-06 -9.01345e-09 0)
(-1.02698e-06 -2.64422e-08 0)
(-1.01033e-06 -4.41403e-08 0)
(-9.85126e-07 -6.19477e-08 0)
(-9.51348e-07 -7.96867e-08 0)
(-9.09062e-07 -9.71634e-08 0)
(-8.58435e-07 -1.1417e-07 0)
(-7.99736e-07 -1.3049e-07 0)
(-7.33343e-07 -1.45898e-07 0)
(-6.59744e-07 -1.60171e-07 0)
(-5.79536e-07 -1.73089e-07 0)
(-4.93424e-07 -1.84442e-07 0)
(-4.0221e-07 -1.94042e-07 0)
(-3.34043e-07 -1.99587e-07 0)
(-2.90936e-07 -2.026e-07 0)
(-2.4722e-07 -2.05203e-07 0)
(-2.02986e-07 -2.07387e-07 0)
(-1.58324e-07 -2.09144e-07 0)
(-1.13328e-07 -2.10467e-07 0)
(-6.8093e-08 -2.11352e-07 0)
(-2.27137e-08 -2.11796e-07 0)
(2.27137e-08 -2.11796e-07 0)
(6.8093e-08 -2.11352e-07 0)
(1.13328e-07 -2.10467e-07 0)
(1.58324e-07 -2.09144e-07 0)
(2.02986e-07 -2.07387e-07 0)
(2.4722e-07 -2.05203e-07 0)
(2.90936e-07 -2.026e-07 0)
(3.34043e-07 -1.99587e-07 0)
(4.0221e-07 -1.94042e-07 0)
(4.93424e-07 -1.84442e-07 0)
(5.79536e-07 -1.73089e-07 0)
(6.59744e-07 -1.60171e-07 0)
(7.33343e-07 -1.45898e-07 0)
(7.99736e-07 -1.3049e-07 0)
(8.58435e-07 -1.1417e-07 0)
(9.09062e-07 -9.71634e-08 0)
(9.51348e-07 -7.96867e-08 0)
(9.85126e-07 -6.19477e-08 0)
(1.01033e-06 -4.41403e-08 0)
(1.02698e-06 -2.64422e-08 0)
(1.03517e-06 -9.01345e-09 0)
(1.03509e-06 8.00453e-09 0)
(1.02697e-06 2.44888e-08 0)
(1.01109e-06 4.03348e-08 0)
(9.87806e-07 5.54551e-08 0)
(9.57476e-07 6.97784e-08 0)
(9.20506e-07 8.32478e-08 0)
(8.7732e-07 9.58196e-08 0)
(8.28359e-07 1.07461e-07 0)
(7.74079e-07 1.18149e-07 0)
(7.14939e-07 1.27868e-07 0)
(6.51408e-07 1.36609e-07 0)
(5.83953e-07 1.44369e-07 0)
(5.13043e-07 1.51148e-07 0)
(4.39146e-07 1.56946e-07 0)
(3.62728e-07 1.61769e-07 0)
(2.8425e-07 1.6562e-07 0)
(2.04175e-07 1.68504e-07 0)
(1.2296e-07 1.70424e-07 0)
(4.10627e-08 1.71383e-07 0)
(-4.12759e-08 2.04897e-07 0)
(-1.236e-07 2.03752e-07 0)
(-2.05243e-07 2.01462e-07 0)
(-2.85747e-07 1.98021e-07 0)
(-3.64655e-07 1.93427e-07 0)
(-4.41507e-07 1.87673e-07 0)
(-5.15838e-07 1.80754e-07 0)
(-5.87184e-07 1.72665e-07 0)
(-6.55076e-07 1.63404e-07 0)
(-7.19043e-07 1.5297e-07 0)
(-7.78615e-07 1.41367e-07 0)
(-8.33323e-07 1.28606e-07 0)
(-8.82703e-07 1.14704e-07 0)
(-9.26296e-07 9.96879e-08 0)
(-9.63656e-07 8.35963e-08 0)
(-9.94354e-07 6.64808e-08 0)
(-1.01798e-06 4.84086e-08 0)
(-1.03416e-06 2.94644e-08 0)
(-1.04254e-06 9.75197e-09 0)
(-1.04284e-06 -1.06042e-08 0)
(-1.03479e-06 -3.14576e-08 0)
(-1.01823e-06 -5.26393e-08 0)
(-9.93037e-07 -7.39581e-08 0)
(-9.59186e-07 -9.52012e-08 0)
(-9.16738e-07 -1.16136e-07 0)
(-8.65854e-07 -1.36515e-07 0)
(-8.068e-07 -1.56075e-07 0)
(-7.39952e-07 -1.74548e-07 0)
(-6.65799e-07 -1.91663e-07 0)
(-5.84942e-07 -2.07158e-07 0)
(-4.98091e-07 -2.20779e-07 0)
(-4.06058e-07 -2.32297e-07 0)
(-3.37263e-07 -2.38952e-07 0)
(-2.93751e-07 -2.42568e-07 0)
(-2.4962e-07 -2.45693e-07 0)
(-2.04961e-07 -2.48314e-07 0)
(-1.59868e-07 -2.50423e-07 0)
(-1.14435e-07 -2.52011e-07 0)
(-6.87587e-08 -2.53074e-07 0)
(-2.29359e-08 -2.53606e-07 0)
(2.29359e-08 -2.53606e-07 0)
(6.87587e-08 -2.53074e-07 0)
(1.14435e-07 -2.52011e-07 0)
(1.59868e-07 -2.50423e-07 0)
(2.04961e-07 -2.48314e-07 0)
(2.4962e-07 -2.45693e-07 0)
(2.93751e-07 -2.42568e-07 0)
(3.37263e-07 -2.38952e-07 0)
(4.06058e-07 -2.32297e-07 0)
(4.98091e-07 -2.20779e-07 0)
(5.84942e-07 -2.07158e-07 0)
(6.65799e-07 -1.91663e-07 0)
(7.39952e-07 -1.74548e-07 0)
(8.068e-07 -1.56075e-07 0)
(8.65854e-07 -1.36515e-07 0)
(9.16738e-07 -1.16136e-07 0)
(9.59186e-07 -9.52012e-08 0)
(9.93037e-07 -7.39581e-08 0)
(1.01823e-06 -5.26393e-08 0)
(1.03479e-06 -3.14576e-08 0)
(1.04284e-06 -1.06042e-08 0)
(1.04254e-06 9.75197e-09 0)
(1.03416e-06 2.94644e-08 0)
(1.01798e-06 4.84086e-08 0)
(9.94354e-07 6.64808e-08 0)
(9.63656e-07 8.35963e-08 0)
(9.26296e-07 9.96879e-08 0)
(8.82703e-07 1.14704e-07 0)
(8.33323e-07 1.28606e-07 0)
(7.78615e-07 1.41367e-07 0)
(7.19043e-07 1.5297e-07 0)
(6.55076e-07 1.63404e-07 0)
(5.87184e-07 1.72665e-07 0)
(5.15838e-07 1.80754e-07 0)
(4.41507e-07 1.87673e-07 0)
(3.64655e-07 1.93427e-07 0)
(2.85747e-07 1.98021e-07 0)
(2.05243e-07 2.01462e-07 0)
(1.236e-07 2.03752e-07 0)
(4.12759e-08 2.04897e-07 0)
(-4.15529e-08 2.41876e-07 0)
(-1.24432e-07 2.40528e-07 0)
(-2.0663e-07 2.37832e-07 0)
(-2.87692e-07 2.33782e-07 0)
(-3.6716e-07 2.28373e-07 0)
(-4.44574e-07 2.21599e-07 0)
(-5.19471e-07 2.13452e-07 0)
(-5.91385e-07 2.03927e-07 0)
(-6.59844e-07 1.93019e-07 0)
(-7.24379e-07 1.80727e-07 0)
(-7.84515e-07 1.67057e-07 0)
(-8.39781e-07 1.52018e-07 0)
(-8.89707e-07 1.35631e-07 0)
(-9.33831e-07 1.17927e-07 0)
(-9.71701e-07 9.8949e-08 0)
(-1.00288e-06 7.87581e-08 0)
(-1.02695e-06 5.7432e-08 0)
(-1.04353e-06 3.50696e-08 0)
(-1.05225e-06 1.17925e-08 0)
(-1.05283e-06 -1.22533e-08 0)
(-1.04498e-06 -3.68954e-08 0)
(-1.02854e-06 -6.19348e-08 0)
(-1.00336e-06 -8.71458e-08 0)
(-9.69416e-07 -1.12277e-07 0)
(-9.2676e-07 -1.37053e-07 0)
(-8.75544e-07 -1.6118e-07 0)
(-8.16029e-07 -1.84346e-07 0)
(-7.48589e-07 -2.06232e-07 0)
(-6.73714e-07 -2.26517e-07 0)
(-5.92009e-07 -2.44885e-07 0)
(-5.04194e-07 -2.61038e-07 0)
(-4.11091e-07 -2.747e-07 0)
(-3.41476e-07 -2.82595e-07 0)
(-2.97434e-07 -2.86885e-07 0)
(-2.52759e-07 -2.90592e-07 0)
(-2.07546e-07 -2.93703e-07 0)
(-1.61888e-07 -2.96205e-07 0)
(-1.15883e-07 -2.9809e-07 0)
(-6.96299e-08 -2.99351e-07 0)
(-2.32266e-08 -2.99982e-07 0)
(2.32266e-08 -2.99982e-07 0)
(6.96299e-08 -2.99351e-07 0)
(1.15883e-07 -2.9809e-07 0)
(1.61888e-07 -2.96205e-07 0)
(2.07546e-07 -2.93703e-07 0)
(2.52759e-07 -2.90592e-07 0)
(2.97434e-07 -2.86885e-07 0)
(3.41476e-07 -2.82595e-07 0)
(4.11091e-07 -2.747e-07 0)
(5.04194e-07 -2.61038e-07 0)
(5.92009e-07 -2.44885e-07 0)
(6.73714e-07 -2.26517e-07 0)
(7.48589e-07 -2.06232e-07 0)
(8.16029e-07 -1.84346e-07 0)
(8.75544e-07 -1.6118e-07 0)
(9.2676e-07 -1.37053e-07 0)
(9.69416e-07 -1.12277e-07 0)
(1.00336e-06 -8.71458e-08 0)
(1.02854e-06 -6.19348e-08 0)
(1.04498e-06 -3.68954e-08 0)
(1.05283e-06 -1.22533e-08 0)
(1.05225e-06 1.17925e-08 0)
(1.04353e-06 3.50696e-08 0)
(1.02695e-06 5.7432e-08 0)
(1.00288e-06 7.87581e-08 0)
(9.71701e-07 9.8949e-08 0)
(9.33831e-07 1.17927e-07 0)
(8.89707e-07 1.35631e-07 0)
(8.39781e-07 1.52018e-07 0)
(7.84515e-07 1.67057e-07 0)
(7.24379e-07 1.80727e-07 0)
(6.59844e-07 1.93019e-07 0)
(5.91385e-07 2.03927e-07 0)
(5.19471e-07 2.13452e-07 0)
(4.44574e-07 2.21599e-07 0)
(3.6716e-07 2.28373e-07 0)
(2.87692e-07 2.33782e-07 0)
(2.0663e-07 2.37832e-07 0)
(1.24432e-07 2.40528e-07 0)
(4.15529e-08 2.41876e-07 0)
(-4.19086e-08 2.82746e-07 0)
(-1.255e-07 2.81177e-07 0)
(-2.08411e-07 2.78037e-07 0)
(-2.9019e-07 2.7332e-07 0)
(-3.70377e-07 2.67019e-07 0)
(-4.48515e-07 2.59127e-07 0)
(-5.24139e-07 2.49635e-07 0)
(-5.96781e-07 2.38534e-07 0)
(-6.65972e-07 2.2582e-07 0)
(-7.31237e-07 2.11491e-07 0)
(-7.921e-07 1.9555e-07 0)
(-8.48084e-07 1.78009e-07 0)
(-8.98716e-07 1.58889e-07 0)
(-9.43526e-07 1.38226e-07 0)
(-9.82054e-07 1.16069e-07 0)
(-1.01386e-06 9.24867e-08 0)
(-1.0385e-06 6.75689e-08 0)
(-1.0556e-06 4.14293e-08 0)
(-1.06477e-06 1.42085e-08 0)
(-1.06571e-06 -1.39239e-08 0)
(-1.05813e-06 -4.27676e-08 0)
(-1.04183e-06 -7.20905e-08 0)
(-1.01668e-06 -1.01629e-07 0)
(-9.8263e-07 -1.31088e-07 0)
(-9.3971e-07 -1.60146e-07 0)
(-8.8807e-07 -1.88455e-07 0)
(-8.27964e-07 -2.1565e-07 0)
(-7.59762e-07 -2.41354e-07 0)
(-6.83957e-07 -2.65188e-07 0)
(-6.01159e-07 -2.86779e-07 0)
(-5.12097e-07 -3.05772e-07 0)
(-4.17611e-07 -3.21841e-07 0)
(-3.46934e-07 -3.31128e-07 0)
(-3.02205e-07 -3.36177e-07 0)
(-2.56826e-07 -3.40539e-07 0)
(-2.10894e-07 -3.44199e-07 0)
(-1.64505e-07 -3.47144e-07 0)
(-1.1776e-07 -3.49362e-07 0)
(-7.07586e-08 -3.50846e-07 0)
(-2.36033e-08 -3.51589e-07 0)
(2.36033e-08 -3.51589e-07 0)
(7.07586e-08 -3.50846e-07 0)
(1.1776e-07 -3.49362e-07 0)
(1.64505e-07 -3.47144e-07 0)
(2.10894e-07 -3.44199e-07 0)
(2.56826e-07 -3.40539e-07 0)
(3.02205e-07 -3.36177e-07 0)
(3.46934e-07 -3.31128e-07 0)
(4.17611e-07 -3.21841e-07 0)
(5.12097e-07 -3.05772e-07 0)
(6.01159e-07 -2.86779e-07 0)
(6.83957e-07 -2.65188e-07 0)
(7.59762e-07 -2.41354e-07 0)
(8.27964e-07 -2.1565e-07 0)
(8.8807e-07 -1.88455e-07 0)
(9.3971e-07 -1.60146e-07 0)
(9.8263e-07 -1.31088e-07 0)
(1.01668e-06 -1.01629e-07 0)
(1.04183e-06 -7.20905e-08 0)
(1.05813e-06 -4.27676e-08 0)
(1.06571e-06 -1.39239e-08 0)
(1.06477e-06 1.42085e-08 0)
(1.0556e-06 4.14293e-08 0)
(1.0385e-06 6.75689e-08 0)
(1.01386e-06 9.24867e-08 0)
(9.82054e-07 1.16069e-07 0)
(9.43526e-07 1.38226e-07 0)
(8.98716e-07 1.58889e-07 0)
(8.48084e-07 1.78009e-07 0)
(7.921e-07 1.9555e-07 0)
(7.31237e-07 2.11491e-07 0)
(6.65972e-07 2.2582e-07 0)
(5.96781e-07 2.38534e-07 0)
(5.24139e-07 2.49635e-07 0)
(4.48515e-07 2.59127e-07 0)
(3.70377e-07 2.67019e-07 0)
(2.9019e-07 2.7332e-07 0)
(2.08411e-07 2.78037e-07 0)
(1.255e-07 2.81177e-07 0)
(4.19086e-08 2.82746e-07 0)
(-4.2361e-08 3.2801e-07 0)
(-1.26858e-07 3.26199e-07 0)
(-2.10677e-07 3.22573e-07 0)
(-2.93367e-07 3.17126e-07 0)
(-3.7447e-07 3.0985e-07 0)
(-4.53528e-07 3.00734e-07 0)
(-5.30078e-07 2.89768e-07 0)
(-6.0365e-07 2.76942e-07 0)
(-6.73773e-07 2.62248e-07 0)
(-7.3997e-07 2.45682e-07 0)
(-8.01761e-07 2.27247e-07 0)
(-8.58664e-07 2.06955e-07 0)
(-9.10198e-07 1.84829e-07 0)
(-9.55887e-07 1.60906e-07 0)
(-9.95261e-07 1.35243e-07 0)
(-1.02786e-06 1.07916e-07 0)
(-1.05325e-06 7.90272e-08 0)
(-1.07101e-06 4.87056e-08 0)
(-1.08077e-06 1.71121e-08 0)
(-1.08218e-06 -1.55583e-08 0)
(-1.07495e-06 -4.90749e-08 0)
(-1.05886e-06 -8.31694e-08 0)
(-1.03375e-06 -1.17536e-07 0)
(-9.99561e-07 -1.51832e-07 0)
(-9.56312e-07 -1.85682e-07 0)
(-9.04137e-07 -2.18681e-07 0)
(-8.43281e-07 -2.504e-07 0)
(-7.74109e-07 -2.80398e-07 0)
(-6.97115e-07 -3.08228e-07 0)
(-6.12917e-07 -3.33451e-07 0)
(-5.22257e-07 -3.5565e-07 0)
(-4.25995e-07 -3.74438e-07 0)
(-3.53953e-07 -3.85301e-07 0)
(-3.08342e-07 -3.91207e-07 0)
(-2.62059e-07 -3.9631e-07 0)
(-2.15202e-07 -4.00592e-07 0)
(-1.67873e-07 -4.04038e-07 0)
(-1.20175e-07 -4.06634e-07 0)
(-7.22111e-08 -4.0837e-07 0)
(-2.40881e-08 -4.0924e-07 0)
(2.40881e-08 -4.0924e-07 0)
(7.22111e-08 -4.0837e-07 0)
(1.20175e-07 -4.06634e-07 0)
(1.67873e-07 -4.04038e-07 0)
(2.15202e-07 -4.00592e-07 0)
(2.62059e-07 -3.9631e-07 0)
(3.08342e-07 -3.91207e-07 0)
(3.53953e-07 -3.85301e-07 0)
(4.25995e-07 -3.74438e-07 0)
(5.22257e-07 -3.5565e-07 0)
(6.12917e-07 -3.33451e-07 0)
(6.97115e-07 -3.08228e-07 0)
(7.74109e-07 -2.80398e-07 0)
(8.43281e-07 -2.504e-07 0)
(9.04137e-07 -2.18681e-07 0)
(9.56312e-07 -1.85682e-07 0)
(9.99561e-07 -1.51832e-07 0)
(1.03375e-06 -1.17536e-07 0)
(1.05886e-06 -8.31694e-08 0)
(1.07495e-06 -4.90749e-08 0)
(1.08218e-06 -1.55583e-08 0)
(1.08077e-06 1.71121e-08 0)
(1.07101e-06 4.87056e-08 0)
(1.05325e-06 7.90272e-08 0)
(1.02786e-06 1.07916e-07 0)
(9.95261e-07 1.35243e-07 0)
(9.55887e-07 1.60906e-07 0)
(9.10198e-07 1.84829e-07 0)
(8.58664e-07 2.06955e-07 0)
(8.01761e-07 2.27247e-07 0)
(7.3997e-07 2.45682e-07 0)
(6.73773e-07 2.62248e-07 0)
(6.0365e-07 2.76942e-07 0)
(5.30078e-07 2.89768e-07 0)
(4.53528e-07 3.00734e-07 0)
(3.7447e-07 3.0985e-07 0)
(2.93367e-07 3.17126e-07 0)
(2.10677e-07 3.22573e-07 0)
(1.26858e-07 3.26199e-07 0)
(4.2361e-08 3.2801e-07 0)
(-4.29318e-08 3.78263e-07 0)
(-1.28571e-07 3.76187e-07 0)
(-2.13536e-07 3.7203e-07 0)
(-2.97376e-07 3.65785e-07 0)
(-3.79636e-07 3.57442e-07 0)
(-4.59858e-07 3.46988e-07 0)
(-5.37577e-07 3.3441e-07 0)
(-6.12326e-07 3.19693e-07 0)
(-6.83629e-07 3.02828e-07 0)
(-7.51007e-07 2.83809e-07 0)
(-8.13974e-07 2.62635e-07 0)
(-8.72044e-07 2.39318e-07 0)
(-9.24727e-07 2.13881e-07 0)
(-9.71535e-07 1.86365e-07 0)
(-1.01199e-06 1.56831e-07 0)
(-1.04561e-06 1.25363e-07 0)
(-1.07195e-06 9.20745e-08 0)
(-1.09057e-06 5.71122e-08 0)
(-1.10107e-06 2.06576e-08 0)
(-1.1031e-06 -1.70675e-08 0)
(-1.09632e-06 -5.57992e-08 0)
(-1.08051e-06 -9.52297e-08 0)
(-1.05547e-06 -1.35006e-07 0)
(-1.02113e-06 -1.74734e-07 0)
(-9.77476e-07 -2.13976e-07 0)
(-9.24633e-07 -2.52261e-07 0)
(-8.62832e-07 -2.89091e-07 0)
(-7.92434e-07 -3.23947e-07 0)
(-7.13931e-07 -3.56307e-07 0)
(-6.27952e-07 -3.85655e-07 0)
(-5.35254e-07 -4.11498e-07 0)
(-4.36725e-07 -4.33383e-07 0)
(-3.62939e-07 -4.46041e-07 0)
(-3.16199e-07 -4.52923e-07 0)
(-2.68758e-07 -4.58872e-07 0)
(-2.20719e-07 -4.63864e-07 0)
(-1.72186e-07 -4.67881e-07 0)
(-1.23267e-07 -4.70908e-07 0)
(-7.40713e-08 -4.72932e-07 0)
(-2.4709e-08 -4.73946e-07 0)
(2.4709e-08 -4.73946e-07 0)
(7.40713e-08 -4.72932e-07 0)
(1.23267e-07 -4.70908e-07 0)
(1.72186e-07 -4.67881e-07 0)
(2.20719e-07 -4.63864e-07 0)
(2.68758e-07 -4.58872e-07 0)
(3.16199e-07 -4.52923e-07 0)
(3.62939e-07 -4.46041e-07 0)
(4.36725e-07 -4.33383e-07 0)
(5.35254e-07 -4.11498e-07 0)
(6.27952e-07 -3.85655e-07 0)
(7.13931e-07 -3.56307e-07 0)
(7.92434e-07 -3.23947e-07 0)
(8.62832e-07 -2.89091e-07 0)
(9.24633e-07 -2.52261e-07 0)
(9.77476e-07 -2.13976e-07 0)
(1.02113e-06 -1.74734e-07 0)
(1.05547e-06 -1.35006e-07 0)