/*--------------------------------*- C++ -*----------------------------------*\
  =========                 |
  \\      /  F ield         | OpenFOAM: The Open Source CFD Toolbox
   \\    /   O peration     | Website:  https://openfoam.org
    \\  /    A nd           | Version:  10
     \\/     M anipulation  |
\*---------------------------------------------------------------------------*/
FoamFile
{
    format      ascii;
    class       volVectorField;
    location    "2800";
    object      Ub;
}
// * * * * * * * * * * * * * * * * * * * * * * * * * * * * * * * * * * * * * //

dimensions      [0 1 -1 0 0 0 0];

internalField   nonuniform List<vector> 
6400
(
(-7.22524e-22 -9.87899e-16 0)
(-2.16351e-21 -9.87899e-16 0)
(-3.59229e-21 -9.87899e-16 0)
(-5.00071e-21 -9.87899e-16 0)
(-6.3806e-21 -9.87899e-16 0)
(-7.72374e-21 -9.87899e-16 0)
(-9.02189e-21 -9.87899e-16 0)
(-1.02668e-20 -9.87899e-16 0)
(-1.14501e-20 -9.87899e-16 0)
(-1.25636e-20 -9.87899e-16 0)
(-1.3599e-20 -9.87899e-16 0)
(-1.45481e-20 -9.87899e-16 0)
(-1.54028e-20 -9.87899e-16 0)
(-1.61552e-20 -9.87899e-16 0)
(-1.67975e-20 -9.87899e-16 0)
(-1.73226e-20 -9.87899e-16 0)
(-1.77234e-20 -9.87899e-16 0)
(-1.79936e-20 -9.87899e-16 0)
(-1.81275e-20 -9.87899e-16 0)
(-1.81203e-20 -9.87899e-16 0)
(-1.79681e-20 -9.87899e-16 0)
(-1.76682e-20 -9.87899e-16 0)
(-1.7219e-20 -9.87899e-16 0)
(-1.66205e-20 -9.87899e-16 0)
(-1.58742e-20 -9.87899e-16 0)
(-1.49832e-20 -9.87899e-16 0)
(-1.39524e-20 -9.87899e-16 0)
(-1.27888e-20 -9.87899e-16 0)
(-1.15009e-20 -9.87899e-16 0)
(-1.00991e-20 -9.87899e-16 0)
(-8.59591e-21 -9.87899e-16 0)
(-7.00508e-21 -9.87899e-16 0)
(-5.81688e-21 -9.87899e-16 0)
(-5.06582e-21 -9.87899e-16 0)
(-4.30434e-21 -9.87899e-16 0)
(-3.53396e-21 -9.87899e-16 0)
(-2.75628e-21 -9.87899e-16 0)
(-1.97287e-21 -9.87899e-16 0)
(-1.18537e-21 -9.87899e-16 0)
(-3.95396e-22 -9.87899e-16 0)
(3.95396e-22 -9.87899e-16 0)
(1.18537e-21 -9.87899e-16 0)
(1.97287e-21 -9.87899e-16 0)
(2.75628e-21 -9.87899e-16 0)
(3.53396e-21 -9.87899e-16 0)
(4.30434e-21 -9.87899e-16 0)
(5.06582e-21 -9.87899e-16 0)
(5.81688e-21 -9.87899e-16 0)
(7.00508e-21 -9.87899e-16 0)
(8.59591e-21 -9.87899e-16 0)
(1.00991e-20 -9.87899e-16 0)
(1.15009e-20 -9.87899e-16 0)
(1.27888e-20 -9.87899e-16 0)
(1.39524e-20 -9.87899e-16 0)
(1.49832e-20 -9.87899e-16 0)
(1.58742e-20 -9.87899e-16 0)
(1.66205e-20 -9.87899e-16 0)
(1.7219e-20 -9.87899e-16 0)
(1.76682e-20 -9.87899e-16 0)
(1.79681e-20 -9.87899e-16 0)
(1.81203e-20 -9.87899e-16 0)
(1.81275e-20 -9.87899e-16 0)
(1.79936e-20 -9.87899e-16 0)
(1.77234e-20 -9.87899e-16 0)
(1.73226e-20 -9.87899e-16 0)
(1.67975e-20 -9.87899e-16 0)
(1.61552e-20 -9.87899e-16 0)
(1.54028e-20 -9.87899e-16 0)
(1.45481e-20 -9.87899e-16 0)
(1.3599e-20 -9.87899e-16 0)
(1.25636e-20 -9.87899e-16 0)
(1.14501e-20 -9.87899e-16 0)
(1.02668e-20 -9.87899e-16 0)
(9.02189e-21 -9.87899e-16 0)
(7.72374e-21 -9.87899e-16 0)
(6.3806e-21 -9.87899e-16 0)
(5.00071e-21 -9.87899e-16 0)
(3.59229e-21 -9.87899e-16 0)
(2.16351e-21 -9.87899e-16 0)
(7.22524e-22 -9.87899e-16 0)
(-7.227e-22 -9.87898e-16 0)
(-2.16403e-21 -9.87898e-16 0)
(-3.59317e-21 -9.87898e-16 0)
(-5.00194e-21 -9.87898e-16 0)
(-6.38218e-21 -9.87898e-16 0)
(-7.72568e-21 -9.87898e-16 0)
(-9.02419e-21 -9.87898e-16 0)
(-1.02694e-20 -9.87898e-16 0)
(-1.14532e-20 -9.87898e-16 0)
(-1.2567e-20 -9.87898e-16 0)
(-1.36028e-20 -9.87898e-16 0)
(-1.45522e-20 -9.87898e-16 0)
(-1.54072e-20 -9.87898e-16 0)
(-1.61599e-20 -9.87898e-16 0)
(-1.68026e-20 -9.87898e-16 0)
(-1.73279e-20 -9.87898e-16 0)
(-1.7729e-20 -9.87898e-16 0)
(-1.79994e-20 -9.87898e-16 0)
(-1.81336e-20 -9.87898e-16 0)
(-1.81266e-20 -9.87899e-16 0)
(-1.79745e-20 -9.87899e-16 0)
(-1.76747e-20 -9.87899e-16 0)
(-1.72255e-20 -9.87899e-16 0)
(-1.66269e-20 -9.87899e-16 0)
(-1.58804e-20 -9.87899e-16 0)
(-1.49892e-20 -9.87899e-16 0)
(-1.39582e-20 -9.87899e-16 0)
(-1.27942e-20 -9.87899e-16 0)
(-1.15058e-20 -9.87899e-16 0)
(-1.01035e-20 -9.87899e-16 0)
(-8.5997e-21 -9.87899e-16 0)
(-7.00821e-21 -9.87899e-16 0)
(-5.81949e-21 -9.87899e-16 0)
(-5.0681e-21 -9.87899e-16 0)
(-4.30628e-21 -9.87899e-16 0)
(-3.53557e-21 -9.87899e-16 0)
(-2.75753e-21 -9.87899e-16 0)
(-1.97377e-21 -9.87899e-16 0)
(-1.18591e-21 -9.87899e-16 0)
(-3.95576e-22 -9.87899e-16 0)
(3.95576e-22 -9.87899e-16 0)
(1.18591e-21 -9.87899e-16 0)
(1.97377e-21 -9.87899e-16 0)
(2.75753e-21 -9.87899e-16 0)
(3.53557e-21 -9.87899e-16 0)
(4.30628e-21 -9.87899e-16 0)
(5.0681e-21 -9.87899e-16 0)
(5.81949e-21 -9.87899e-16 0)
(7.00821e-21 -9.87899e-16 0)
(8.5997e-21 -9.87899e-16 0)
(1.01035e-20 -9.87899e-16 0)
(1.15058e-20 -9.87899e-16 0)
(1.27942e-20 -9.87899e-16 0)
(1.39582e-20 -9.87899e-16 0)
(1.49892e-20 -9.87899e-16 0)
(1.58804e-20 -9.87899e-16 0)
(1.66269e-20 -9.87899e-16 0)
(1.72255e-20 -9.87899e-16 0)
(1.76747e-20 -9.87899e-16 0)
(1.79745e-20 -9.87899e-16 0)
(1.81266e-20 -9.87899e-16 0)
(1.81336e-20 -9.87898e-16 0)
(1.79994e-20 -9.87898e-16 0)
(1.7729e-20 -9.87898e-16 0)
(1.73279e-20 -9.87898e-16 0)
(1.68026e-20 -9.87898e-16 0)
(1.61599e-20 -9.87898e-16 0)
(1.54072e-20 -9.87898e-16 0)
(1.45522e-20 -9.87898e-16 0)
(1.36028e-20 -9.87898e-16 0)
(1.2567e-20 -9.87898e-16 0)
(1.14532e-20 -9.87898e-16 0)
(1.02694e-20 -9.87898e-16 0)
(9.02419e-21 -9.87898e-16 0)
(7.72568e-21 -9.87898e-16 0)
(6.38218e-21 -9.87898e-16 0)
(5.00194e-21 -9.87898e-16 0)
(3.59317e-21 -9.87898e-16 0)
(2.16403e-21 -9.87898e-16 0)
(7.227e-22 -9.87898e-16 0)
(-7.23105e-22 -9.87898e-16 0)
(-2.16525e-21 -9.87898e-16 0)
(-3.59519e-21 -9.87898e-16 0)
(-5.00478e-21 -9.87898e-16 0)
(-6.38584e-21 -9.87898e-16 0)
(-7.73016e-21 -9.87898e-16 0)
(-9.0295e-21 -9.87898e-16 0)
(-1.02756e-20 -9.87898e-16 0)
(-1.14601e-20 -9.87898e-16 0)
(-1.25748e-20 -9.87898e-16 0)
(-1.36114e-20 -9.87898e-16 0)
(-1.45616e-20 -9.87898e-16 0)
(-1.54174e-20 -9.87898e-16 0)
(-1.61709e-20 -9.87898e-16 0)
(-1.68143e-20 -9.87898e-16 0)
(-1.73403e-20 -9.87898e-16 0)
(-1.7742e-20 -9.87898e-16 0)
(-1.8013e-20 -9.87898e-16 0)
(-1.81477e-20 -9.87898e-16 0)
(-1.8141e-20 -9.87899e-16 0)
(-1.79893e-20 -9.87899e-16 0)
(-1.76895e-20 -9.87899e-16 0)
(-1.72404e-20 -9.87899e-16 0)
(-1.66416e-20 -9.87899e-16 0)
(-1.58948e-20 -9.87899e-16 0)
(-1.50031e-20 -9.87899e-16 0)
(-1.39714e-20 -9.87899e-16 0)
(-1.28065e-20 -9.87899e-16 0)
(-1.15171e-20 -9.87899e-16 0)
(-1.01136e-20 -9.87899e-16 0)
(-8.60843e-21 -9.87899e-16 0)
(-7.0154e-21 -9.87899e-16 0)
(-5.82551e-21 -9.87899e-16 0)
(-5.07337e-21 -9.87899e-16 0)
(-4.31077e-21 -9.87899e-16 0)
(-3.53926e-21 -9.87899e-16 0)
(-2.76041e-21 -9.87899e-16 0)
(-1.97584e-21 -9.87899e-16 0)
(-1.18715e-21 -9.87899e-16 0)
(-3.95992e-22 -9.87899e-16 0)
(3.95992e-22 -9.87899e-16 0)
(1.18715e-21 -9.87899e-16 0)
(1.97584e-21 -9.87899e-16 0)
(2.76041e-21 -9.87899e-16 0)
(3.53926e-21 -9.87899e-16 0)
(4.31077e-21 -9.87899e-16 0)
(5.07337e-21 -9.87899e-16 0)
(5.82551e-21 -9.87899e-16 0)
(7.0154e-21 -9.87899e-16 0)
(8.60843e-21 -9.87899e-16 0)
(1.01136e-20 -9.87899e-16 0)
(1.15171e-20 -9.87899e-16 0)
(1.28065e-20 -9.87899e-16 0)
(1.39714e-20 -9.87899e-16 0)
(1.50031e-20 -9.87899e-16 0)
(1.58948e-20 -9.87899e-16 0)
(1.66416e-20 -9.87899e-16 0)
(1.72404e-20 -9.87899e-16 0)
(1.76895e-20 -9.87899e-16 0)
(1.79893e-20 -9.87899e-16 0)
(1.8141e-20 -9.87899e-16 0)
(1.81477e-20 -9.87898e-16 0)
(1.8013e-20 -9.87898e-16 0)
(1.7742e-20 -9.87898e-16 0)
(1.73403e-20 -9.87898e-16 0)
(1.68143e-20 -9.87898e-16 0)
(1.61709e-20 -9.87898e-16 0)
(1.54174e-20 -9.87898e-16 0)
(1.45616e-20 -9.87898e-16 0)
(1.36114e-20 -9.87898e-16 0)
(1.25748e-20 -9.87898e-16 0)
(1.14601e-20 -9.87898e-16 0)
(1.02756e-20 -9.87898e-16 0)
(9.0295e-21 -9.87898e-16 0)
(7.73016e-21 -9.87898e-16 0)
(6.38584e-21 -9.87898e-16 0)
(5.00478e-21 -9.87898e-16 0)
(3.59519e-21 -9.87898e-16 0)
(2.16525e-21 -9.87898e-16 0)
(7.23105e-22 -9.87898e-16 0)
(-7.23804e-22 -9.87897e-16 0)
(-2.16735e-21 -9.87897e-16 0)
(-3.59869e-21 -9.87897e-16 0)
(-5.00969e-21 -9.87897e-16 0)
(-6.39216e-21 -9.87897e-16 0)
(-7.7379e-21 -9.87897e-16 0)
(-9.03866e-21 -9.87897e-16 0)
(-1.02862e-20 -9.87898e-16 0)
(-1.14721e-20 -9.87898e-16 0)
(-1.25882e-20 -9.87898e-16 0)
(-1.36262e-20 -9.87898e-16 0)
(-1.45779e-20 -9.87898e-16 0)
(-1.5435e-20 -9.87898e-16 0)
(-1.61898e-20 -9.87898e-16 0)
(-1.68345e-20 -9.87898e-16 0)
(-1.73617e-20 -9.87898e-16 0)
(-1.77645e-20 -9.87898e-16 0)
(-1.80365e-20 -9.87898e-16 0)
(-1.81719e-20 -9.87898e-16 0)
(-1.8166e-20 -9.87899e-16 0)
(-1.80147e-20 -9.87899e-16 0)
(-1.77152e-20 -9.87899e-16 0)
(-1.7266e-20 -9.87899e-16 0)
(-1.66671e-20 -9.87899e-16 0)
(-1.59197e-20 -9.87899e-16 0)
(-1.50272e-20 -9.87899e-16 0)
(-1.39943e-20 -9.87899e-16 0)
(-1.28279e-20 -9.87899e-16 0)
(-1.15367e-20 -9.879e-16 0)
(-1.01311e-20 -9.879e-16 0)
(-8.62351e-21 -9.879e-16 0)
(-7.02783e-21 -9.879e-16 0)
(-5.83591e-21 -9.879e-16 0)
(-5.08246e-21 -9.879e-16 0)
(-4.31851e-21 -9.879e-16 0)
(-3.54563e-21 -9.879e-16 0)
(-2.7654e-21 -9.879e-16 0)
(-1.97941e-21 -9.879e-16 0)
(-1.1893e-21 -9.879e-16 0)
(-3.96709e-22 -9.879e-16 0)
(3.96709e-22 -9.879e-16 0)
(1.1893e-21 -9.879e-16 0)
(1.97941e-21 -9.879e-16 0)
(2.7654e-21 -9.879e-16 0)
(3.54563e-21 -9.879e-16 0)
(4.31851e-21 -9.879e-16 0)
(5.08246e-21 -9.879e-16 0)
(5.83591e-21 -9.879e-16 0)
(7.02783e-21 -9.879e-16 0)
(8.62351e-21 -9.879e-16 0)
(1.01311e-20 -9.879e-16 0)
(1.15367e-20 -9.879e-16 0)
(1.28279e-20 -9.87899e-16 0)
(1.39943e-20 -9.87899e-16 0)
(1.50272e-20 -9.87899e-16 0)
(1.59197e-20 -9.87899e-16 0)
(1.66671e-20 -9.87899e-16 0)
(1.7266e-20 -9.87899e-16 0)
(1.77152e-20 -9.87899e-16 0)
(1.80147e-20 -9.87899e-16 0)
(1.8166e-20 -9.87899e-16 0)
(1.81719e-20 -9.87898e-16 0)
(1.80365e-20 -9.87898e-16 0)
(1.77645e-20 -9.87898e-16 0)
(1.73617e-20 -9.87898e-16 0)
(1.68345e-20 -9.87898e-16 0)
(1.61898e-20 -9.87898e-16 0)
(1.5435e-20 -9.87898e-16 0)
(1.45779e-20 -9.87898e-16 0)
(1.36262e-20 -9.87898e-16 0)
(1.25882e-20 -9.87898e-16 0)
(1.14721e-20 -9.87898e-16 0)
(1.02862e-20 -9.87898e-16 0)
(9.03866e-21 -9.87897e-16 0)
(7.7379e-21 -9.87897e-16 0)
(6.39216e-21 -9.87897e-16 0)
(5.00969e-21 -9.87897e-16 0)
(3.59869e-21 -9.87897e-16 0)
(2.16735e-21 -9.87897e-16 0)
(7.23804e-22 -9.87897e-16 0)
(-7.24877e-22 -9.87897e-16 0)
(-2.17057e-21 -9.87897e-16 0)
(-3.60407e-21 -9.87897e-16 0)
(-5.01722e-21 -9.87897e-16 0)
(-6.40186e-21 -9.87897e-16 0)
(-7.74977e-21 -9.87897e-16 0)
(-9.05272e-21 -9.87897e-16 0)
(-1.03024e-20 -9.87897e-16 0)
(-1.14906e-20 -9.87897e-16 0)
(-1.26089e-20 -9.87897e-16 0)
(-1.3649e-20 -9.87897e-16 0)
(-1.46028e-20 -9.87898e-16 0)
(-1.54621e-20 -9.87898e-16 0)
(-1.62189e-20 -9.87898e-16 0)
(-1.68655e-20 -9.87898e-16 0)
(-1.73945e-20 -9.87898e-16 0)
(-1.7799e-20 -9.87898e-16 0)
(-1.80725e-20 -9.87898e-16 0)
(-1.82092e-20 -9.87898e-16 0)
(-1.82043e-20 -9.87899e-16 0)
(-1.80537e-20 -9.87899e-16 0)
(-1.77547e-20 -9.87899e-16 0)
(-1.73055e-20 -9.87899e-16 0)
(-1.67062e-20 -9.87899e-16 0)
(-1.5958e-20 -9.87899e-16 0)
(-1.50641e-20 -9.879e-16 0)
(-1.40295e-20 -9.879e-16 0)
(-1.28608e-20 -9.879e-16 0)
(-1.15668e-20 -9.879e-16 0)
(-1.0158e-20 -9.879e-16 0)
(-8.64669e-21 -9.879e-16 0)
(-7.04694e-21 -9.879e-16 0)
(-5.8519e-21 -9.879e-16 0)
(-5.09643e-21 -9.879e-16 0)
(-4.33042e-21 -9.879e-16 0)
(-3.55544e-21 -9.879e-16 0)
(-2.77306e-21 -9.879e-16 0)
(-1.9849e-21 -9.879e-16 0)
(-1.1926e-21 -9.879e-16 0)
(-3.97811e-22 -9.879e-16 0)
(3.97811e-22 -9.879e-16 0)
(1.1926e-21 -9.879e-16 0)
(1.9849e-21 -9.879e-16 0)
(2.77306e-21 -9.879e-16 0)
(3.55544e-21 -9.879e-16 0)
(4.33042e-21 -9.879e-16 0)
(5.09643e-21 -9.879e-16 0)
(5.8519e-21 -9.879e-16 0)
(7.04694e-21 -9.879e-16 0)
(8.64669e-21 -9.879e-16 0)
(1.0158e-20 -9.879e-16 0)
(1.15668e-20 -9.879e-16 0)
(1.28608e-20 -9.879e-16 0)
(1.40295e-20 -9.879e-16 0)
(1.50641e-20 -9.879e-16 0)
(1.5958e-20 -9.87899e-16 0)
(1.67062e-20 -9.87899e-16 0)
(1.73055e-20 -9.87899e-16 0)
(1.77547e-20 -9.87899e-16 0)
(1.80537e-20 -9.87899e-16 0)
(1.82043e-20 -9.87899e-16 0)
(1.82092e-20 -9.87898e-16 0)
(1.80725e-20 -9.87898e-16 0)
(1.7799e-20 -9.87898e-16 0)
(1.73945e-20 -9.87898e-16 0)
(1.68655e-20 -9.87898e-16 0)
(1.62189e-20 -9.87898e-16 0)
(1.54621e-20 -9.87898e-16 0)
(1.46028e-20 -9.87898e-16 0)
(1.3649e-20 -9.87897e-16 0)
(1.26089e-20 -9.87897e-16 0)
(1.14906e-20 -9.87897e-16 0)
(1.03024e-20 -9.87897e-16 0)
(9.05272e-21 -9.87897e-16 0)
(7.74977e-21 -9.87897e-16 0)
(6.40186e-21 -9.87897e-16 0)
(5.01722e-21 -9.87897e-16 0)
(3.60407e-21 -9.87897e-16 0)
(2.17057e-21 -9.87897e-16 0)
(7.24877e-22 -9.87897e-16 0)
(-7.26423e-22 -9.87896e-16 0)
(-2.17521e-21 -9.87897e-16 0)
(-3.61181e-21 -9.87897e-16 0)
(-5.02807e-21 -9.87897e-16 0)
(-6.41583e-21 -9.87897e-16 0)
(-7.76688e-21 -9.87897e-16 0)
(-9.07297e-21 -9.87897e-16 0)
(-1.03258e-20 -9.87897e-16 0)
(-1.15171e-20 -9.87897e-16 0)
(-1.26386e-20 -9.87897e-16 0)
(-1.36818e-20 -9.87897e-16 0)
(-1.46387e-20 -9.87897e-16 0)
(-1.5501e-20 -9.87897e-16 0)
(-1.62607e-20 -9.87898e-16 0)
(-1.69102e-20 -9.87898e-16 0)
(-1.74418e-20 -9.87898e-16 0)
(-1.78487e-20 -9.87898e-16 0)
(-1.81244e-20 -9.87898e-16 0)
(-1.8263e-20 -9.87898e-16 0)
(-1.82596e-20 -9.87899e-16 0)
(-1.81101e-20 -9.87899e-16 0)
(-1.78116e-20 -9.87899e-16 0)
(-1.73625e-20 -9.87899e-16 0)
(-1.67625e-20 -9.87899e-16 0)
(-1.60132e-20 -9.879e-16 0)
(-1.51174e-20 -9.879e-16 0)
(-1.40802e-20 -9.879e-16 0)
(-1.29083e-20 -9.879e-16 0)
(-1.16102e-20 -9.879e-16 0)
(-1.01968e-20 -9.87901e-16 0)
(-8.68015e-21 -9.87901e-16 0)
(-7.07452e-21 -9.87901e-16 0)
(-5.87497e-21 -9.87901e-16 0)
(-5.1166e-21 -9.87901e-16 0)
(-4.34761e-21 -9.87901e-16 0)
(-3.56959e-21 -9.87901e-16 0)
(-2.78412e-21 -9.87901e-16 0)
(-1.99283e-21 -9.87901e-16 0)
(-1.19737e-21 -9.87901e-16 0)
(-3.99402e-22 -9.87901e-16 0)
(3.99402e-22 -9.87901e-16 0)
(1.19737e-21 -9.87901e-16 0)
(1.99283e-21 -9.87901e-16 0)
(2.78412e-21 -9.87901e-16 0)
(3.56959e-21 -9.87901e-16 0)
(4.34761e-21 -9.87901e-16 0)
(5.1166e-21 -9.87901e-16 0)
(5.87497e-21 -9.87901e-16 0)
(7.07452e-21 -9.87901e-16 0)
(8.68015e-21 -9.87901e-16 0)
(1.01968e-20 -9.87901e-16 0)
(1.16102e-20 -9.879e-16 0)
(1.29083e-20 -9.879e-16 0)
(1.40802e-20 -9.879e-16 0)
(1.51174e-20 -9.879e-16 0)
(1.60132e-20 -9.879e-16 0)
(1.67625e-20 -9.87899e-16 0)
(1.73625e-20 -9.87899e-16 0)
(1.78116e-20 -9.87899e-16 0)
(1.81101e-20 -9.87899e-16 0)
(1.82596e-20 -9.87899e-16 0)
(1.8263e-20 -9.87898e-16 0)
(1.81244e-20 -9.87898e-16 0)
(1.78487e-20 -9.87898e-16 0)
(1.74418e-20 -9.87898e-16 0)
(1.69102e-20 -9.87898e-16 0)
(1.62607e-20 -9.87898e-16 0)
(1.5501e-20 -9.87897e-16 0)
(1.46387e-20 -9.87897e-16 0)
(1.36818e-20 -9.87897e-16 0)
(1.26386e-20 -9.87897e-16 0)
(1.15171e-20 -9.87897e-16 0)
(1.03258e-20 -9.87897e-16 0)
(9.07297e-21 -9.87897e-16 0)
(7.76688e-21 -9.87897e-16 0)
(6.41583e-21 -9.87897e-16 0)
(5.02807e-21 -9.87897e-16 0)
(3.61181e-21 -9.87897e-16 0)
(2.17521e-21 -9.87897e-16 0)
(7.26423e-22 -9.87896e-16 0)
(-7.28562e-22 -9.87896e-16 0)
(-2.18163e-21 -9.87896e-16 0)
(-3.62252e-21 -9.87896e-16 0)
(-5.04309e-21 -9.87896e-16 0)
(-6.43517e-21 -9.87896e-16 0)
(-7.79055e-21 -9.87896e-16 0)
(-9.101e-21 -9.87896e-16 0)
(-1.03582e-20 -9.87896e-16 0)
(-1.15539e-20 -9.87897e-16 0)
(-1.26797e-20 -9.87897e-16 0)
(-1.37273e-20 -9.87897e-16 0)
(-1.46884e-20 -9.87897e-16 0)
(-1.55549e-20 -9.87897e-16 0)
(-1.63187e-20 -9.87897e-16 0)
(-1.6972e-20 -9.87897e-16 0)
(-1.75073e-20 -9.87898e-16 0)
(-1.79176e-20 -9.87898e-16 0)
(-1.81963e-20 -9.87898e-16 0)
(-1.83375e-20 -9.87898e-16 0)
(-1.83361e-20 -9.87899e-16 0)
(-1.81881e-20 -9.87899e-16 0)
(-1.78904e-20 -9.87899e-16 0)
(-1.74414e-20 -9.87899e-16 0)
(-1.68407e-20 -9.879e-16 0)
(-1.60897e-20 -9.879e-16 0)
(-1.51913e-20 -9.879e-16 0)
(-1.41506e-20 -9.879e-16 0)
(-1.2974e-20 -9.87901e-16 0)
(-1.16705e-20 -9.87901e-16 0)
(-1.02505e-20 -9.87901e-16 0)
(-8.72656e-21 -9.87901e-16 0)
(-7.11278e-21 -9.87901e-16 0)
(-5.90698e-21 -9.87901e-16 0)
(-5.14458e-21 -9.87901e-16 0)
(-4.37146e-21 -9.87902e-16 0)
(-3.58922e-21 -9.87902e-16 0)
(-2.79946e-21 -9.87902e-16 0)
(-2.00383e-21 -9.87902e-16 0)
(-1.20399e-21 -9.87902e-16 0)
(-4.0161e-22 -9.87902e-16 0)
(4.01611e-22 -9.87902e-16 0)
(1.20399e-21 -9.87902e-16 0)
(2.00383e-21 -9.87902e-16 0)
(2.79946e-21 -9.87902e-16 0)
(3.58922e-21 -9.87902e-16 0)
(4.37146e-21 -9.87902e-16 0)
(5.14458e-21 -9.87901e-16 0)
(5.90698e-21 -9.87901e-16 0)
(7.11278e-21 -9.87901e-16 0)
(8.72656e-21 -9.87901e-16 0)
(1.02505e-20 -9.87901e-16 0)
(1.16705e-20 -9.87901e-16 0)
(1.2974e-20 -9.87901e-16 0)
(1.41506e-20 -9.879e-16 0)
(1.51913e-20 -9.879e-16 0)
(1.60897e-20 -9.879e-16 0)
(1.68407e-20 -9.879e-16 0)
(1.74414e-20 -9.87899e-16 0)
(1.78904e-20 -9.87899e-16 0)
(1.81881e-20 -9.87899e-16 0)
(1.83361e-20 -9.87899e-16 0)
(1.83375e-20 -9.87898e-16 0)
(1.81963e-20 -9.87898e-16 0)
(1.79176e-20 -9.87898e-16 0)
(1.75073e-20 -9.87898e-16 0)
(1.6972e-20 -9.87897e-16 0)
(1.63187e-20 -9.87897e-16 0)
(1.55549e-20 -9.87897e-16 0)
(1.46884e-20 -9.87897e-16 0)
(1.37273e-20 -9.87897e-16 0)
(1.26797e-20 -9.87897e-16 0)
(1.15539e-20 -9.87897e-16 0)
(1.03582e-20 -9.87896e-16 0)
(9.101e-21 -9.87896e-16 0)
(7.79055e-21 -9.87896e-16 0)
(6.43517e-21 -9.87896e-16 0)
(5.04309e-21 -9.87896e-16 0)
(3.62252e-21 -9.87896e-16 0)
(2.18163e-21 -9.87896e-16 0)
(7.28562e-22 -9.87896e-16 0)
(-7.31441e-22 -9.87895e-16 0)
(-2.19027e-21 -9.87895e-16 0)
(-3.63693e-21 -9.87896e-16 0)
(-5.06329e-21 -9.87896e-16 0)
(-6.46119e-21 -9.87896e-16 0)
(-7.82242e-21 -9.87896e-16 0)
(-9.13873e-21 -9.87896e-16 0)
(-1.04018e-20 -9.87896e-16 0)
(-1.16034e-20 -9.87896e-16 0)
(-1.27351e-20 -9.87896e-16 0)
(-1.37885e-20 -9.87896e-16 0)
(-1.47554e-20 -9.87897e-16 0)
(-1.56275e-20 -9.87897e-16 0)
(-1.63968e-20 -9.87897e-16 0)
(-1.70553e-20 -9.87897e-16 0)
(-1.75956e-20 -9.87898e-16 0)
(-1.80104e-20 -9.87898e-16 0)
(-1.82932e-20 -9.87898e-16 0)
(-1.84379e-20 -9.87898e-16 0)
(-1.84393e-20 -9.87899e-16 0)
(-1.82933e-20 -9.87899e-16 0)
(-1.79968e-20 -9.87899e-16 0)
(-1.75479e-20 -9.879e-16 0)
(-1.69462e-20 -9.879e-16 0)
(-1.61929e-20 -9.879e-16 0)
(-1.52911e-20 -9.87901e-16 0)
(-1.42455e-20 -9.87901e-16 0)
(-1.30629e-20 -9.87901e-16 0)
(-1.17519e-20 -9.87901e-16 0)
(-1.03232e-20 -9.87902e-16 0)
(-8.78926e-21 -9.87902e-16 0)
(-7.16448e-21 -9.87902e-16 0)
(-5.95024e-21 -9.87902e-16 0)
(-5.18238e-21 -9.87902e-16 0)
(-4.40369e-21 -9.87902e-16 0)
(-3.61575e-21 -9.87902e-16 0)
(-2.82019e-21 -9.87902e-16 0)
(-2.01869e-21 -9.87902e-16 0)
(-1.21293e-21 -9.87902e-16 0)
(-4.04594e-22 -9.87902e-16 0)
(4.04594e-22 -9.87902e-16 0)
(1.21293e-21 -9.87902e-16 0)
(2.01869e-21 -9.87902e-16 0)
(2.82019e-21 -9.87902e-16 0)
(3.61575e-21 -9.87902e-16 0)
(4.40369e-21 -9.87902e-16 0)
(5.18238e-21 -9.87902e-16 0)
(5.95024e-21 -9.87902e-16 0)
(7.16448e-21 -9.87902e-16 0)
(8.78926e-21 -9.87902e-16 0)
(1.03232e-20 -9.87902e-16 0)
(1.17519e-20 -9.87901e-16 0)
(1.30629e-20 -9.87901e-16 0)
(1.42455e-20 -9.87901e-16 0)
(1.52911e-20 -9.87901e-16 0)
(1.61929e-20 -9.879e-16 0)
(1.69462e-20 -9.879e-16 0)
(1.75479e-20 -9.879e-16 0)
(1.79968e-20 -9.87899e-16 0)
(1.82933e-20 -9.87899e-16 0)
(1.84393e-20 -9.87899e-16 0)
(1.84379e-20 -9.87898e-16 0)
(1.82932e-20 -9.87898e-16 0)
(1.80104e-20 -9.87898e-16 0)
(1.75956e-20 -9.87898e-16 0)
(1.70553e-20 -9.87897e-16 0)
(1.63968e-20 -9.87897e-16 0)
(1.56275e-20 -9.87897e-16 0)
(1.47554e-20 -9.87897e-16 0)
(1.37885e-20 -9.87896e-16 0)
(1.27351e-20 -9.87896e-16 0)
(1.16034e-20 -9.87896e-16 0)
(1.04018e-20 -9.87896e-16 0)
(9.13873e-21 -9.87896e-16 0)
(7.82242e-21 -9.87896e-16 0)
(6.46119e-21 -9.87896e-16 0)
(5.06329e-21 -9.87896e-16 0)
(3.63693e-21 -9.87896e-16 0)
(2.19027e-21 -9.87895e-16 0)
(7.31441e-22 -9.87895e-16 0)
(-7.35239e-22 -9.87895e-16 0)
(-2.20167e-21 -9.87895e-16 0)
(-3.65595e-21 -9.87895e-16 0)
(-5.08995e-21 -9.87895e-16 0)
(-6.49553e-21 -9.87895e-16 0)
(-7.86447e-21 -9.87895e-16 0)
(-9.18852e-21 -9.87895e-16 0)
(-1.04594e-20 -9.87895e-16 0)
(-1.16687e-20 -9.87896e-16 0)
(-1.28082e-20 -9.87896e-16 0)
(-1.38693e-20 -9.87896e-16 0)
(-1.48438e-20 -9.87896e-16 0)
(-1.57234e-20 -9.87896e-16 0)
(-1.64999e-20 -9.87897e-16 0)
(-1.71654e-20 -9.87897e-16 0)
(-1.77122e-20 -9.87897e-16 0)
(-1.81331e-20 -9.87898e-16 0)
(-1.84213e-20 -9.87898e-16 0)
(-1.85706e-20 -9.87898e-16 0)
(-1.85758e-20 -9.87899e-16 0)
(-1.84325e-20 -9.87899e-16 0)
(-1.81375e-20 -9.87899e-16 0)
(-1.76888e-20 -9.879e-16 0)
(-1.70858e-20 -9.879e-16 0)
(-1.63297e-20 -9.87901e-16 0)
(-1.54233e-20 -9.87901e-16 0)
(-1.43714e-20 -9.87901e-16 0)
(-1.31806e-20 -9.87902e-16 0)
(-1.18597e-20 -9.87902e-16 0)
(-1.04194e-20 -9.87902e-16 0)
(-8.87238e-21 -9.87902e-16 0)
(-7.23302e-21 -9.87903e-16 0)
(-6.0076e-21 -9.87903e-16 0)
(-5.23252e-21 -9.87903e-16 0)
(-4.44643e-21 -9.87903e-16 0)
(-3.65093e-21 -9.87903e-16 0)
(-2.84769e-21 -9.87903e-16 0)
(-2.03841e-21 -9.87903e-16 0)
(-1.22478e-21 -9.87903e-16 0)
(-4.08552e-22 -9.87903e-16 0)
(4.08552e-22 -9.87903e-16 0)
(1.22478e-21 -9.87903e-16 0)
(2.03841e-21 -9.87903e-16 0)
(2.84769e-21 -9.87903e-16 0)
(3.65093e-21 -9.87903e-16 0)
(4.44643e-21 -9.87903e-16 0)
(5.23252e-21 -9.87903e-16 0)
(6.0076e-21 -9.87903e-16 0)
(7.23302e-21 -9.87903e-16 0)
(8.87238e-21 -9.87902e-16 0)
(1.04194e-20 -9.87902e-16 0)
(1.18597e-20 -9.87902e-16 0)
(1.31806e-20 -9.87902e-16 0)
(1.43714e-20 -9.87901e-16 0)
(1.54233e-20 -9.87901e-16 0)
(1.63297e-20 -9.87901e-16 0)
(1.70858e-20 -9.879e-16 0)
(1.76888e-20 -9.879e-16 0)
(1.81375e-20 -9.87899e-16 0)
(1.84325e-20 -9.87899e-16 0)
(1.85758e-20 -9.87899e-16 0)
(1.85706e-20 -9.87898e-16 0)
(1.84213e-20 -9.87898e-16 0)
(1.81331e-20 -9.87898e-16 0)
(1.77122e-20 -9.87897e-16 0)
(1.71654e-20 -9.87897e-16 0)
(1.64999e-20 -9.87897e-16 0)
(1.57234e-20 -9.87896e-16 0)
(1.48438e-20 -9.87896e-16 0)
(1.38693e-20 -9.87896e-16 0)
(1.28082e-20 -9.87896e-16 0)
(1.16687e-20 -9.87896e-16 0)
(1.04594e-20 -9.87895e-16 0)
(9.18852e-21 -9.87895e-16 0)
(7.86447e-21 -9.87895e-16 0)
(6.49553e-21 -9.87895e-16 0)
(5.08995e-21 -9.87895e-16 0)
(3.65595e-21 -9.87895e-16 0)
(2.20167e-21 -9.87895e-16 0)
(7.35239e-22 -9.87895e-16 0)
(-7.40173e-22 -9.87894e-16 0)
(-2.21648e-21 -9.87894e-16 0)
(-3.68066e-21 -9.87894e-16 0)
(-5.1246e-21 -9.87894e-16 0)
(-6.54015e-21 -9.87894e-16 0)
(-7.91911e-21 -9.87895e-16 0)
(-9.25324e-21 -9.87895e-16 0)
(-1.05342e-20 -9.87895e-16 0)
(-1.17537e-20 -9.87895e-16 0)
(-1.29032e-20 -9.87895e-16 0)
(-1.39744e-20 -9.87896e-16 0)
(-1.49588e-20 -9.87896e-16 0)
(-1.58482e-20 -9.87896e-16 0)
(-1.66341e-20 -9.87896e-16 0)
(-1.73087e-20 -9.87897e-16 0)
(-1.78641e-20 -9.87897e-16 0)
(-1.82929e-20 -9.87897e-16 0)
(-1.85881e-20 -9.87898e-16 0)
(-1.87436e-20 -9.87898e-16 0)
(-1.87538e-20 -9.87899e-16 0)
(-1.86141e-20 -9.87899e-16 0)
(-1.83211e-20 -9.879e-16 0)
(-1.78726e-20 -9.879e-16 0)
(-1.7268e-20 -9.87901e-16 0)
(-1.65082e-20 -9.87901e-16 0)
(-1.55959e-20 -9.87901e-16 0)
(-1.45358e-20 -9.87902e-16 0)
(-1.33345e-20 -9.87902e-16 0)
(-1.20007e-20 -9.87903e-16 0)
(-1.05453e-20 -9.87903e-16 0)
(-8.9811e-21 -9.87903e-16 0)
(-7.32269e-21 -9.87903e-16 0)
(-6.08264e-21 -9.87904e-16 0)
(-5.29812e-21 -9.87904e-16 0)
(-4.50235e-21 -9.87904e-16 0)
(-3.69697e-21 -9.87904e-16 0)
(-2.88368e-21 -9.87904e-16 0)
(-2.06421e-21 -9.87904e-16 0)
(-1.2403e-21 -9.87904e-16 0)
(-4.13731e-22 -9.87904e-16 0)
(4.13731e-22 -9.87904e-16 0)
(1.2403e-21 -9.87904e-16 0)
(2.06421e-21 -9.87904e-16 0)
(2.88368e-21 -9.87904e-16 0)
(3.69697e-21 -9.87904e-16 0)
(4.50235e-21 -9.87904e-16 0)
(5.29812e-21 -9.87904e-16 0)
(6.08264e-21 -9.87904e-16 0)
(7.32269e-21 -9.87903e-16 0)
(8.9811e-21 -9.87903e-16 0)
(1.05453e-20 -9.87903e-16 0)
(1.20007e-20 -9.87903e-16 0)
(1.33345e-20 -9.87902e-16 0)
(1.45358e-20 -9.87902e-16 0)
(1.55959e-20 -9.87901e-16 0)
(1.65082e-20 -9.87901e-16 0)
(1.7268e-20 -9.87901e-16 0)
(1.78726e-20 -9.879e-16 0)
(1.83211e-20 -9.879e-16 0)
(1.86141e-20 -9.87899e-16 0)
(1.87538e-20 -9.87899e-16 0)
(1.87436e-20 -9.87898e-16 0)
(1.85881e-20 -9.87898e-16 0)
(1.82929e-20 -9.87897e-16 0)
(1.78641e-20 -9.87897e-16 0)
(1.73087e-20 -9.87897e-16 0)
(1.66341e-20 -9.87896e-16 0)
(1.58482e-20 -9.87896e-16 0)
(1.49588e-20 -9.87896e-16 0)
(1.39744e-20 -9.87896e-16 0)
(1.29032e-20 -9.87895e-16 0)
(1.17537e-20 -9.87895e-16 0)
(1.05342e-20 -9.87895e-16 0)
(9.25324e-21 -9.87895e-16 0)
(7.91911e-21 -9.87895e-16 0)
(6.54015e-21 -9.87894e-16 0)
(5.1246e-21 -9.87894e-16 0)
(3.68066e-21 -9.87894e-16 0)
(2.21648e-21 -9.87894e-16 0)
(7.40173e-22 -9.87894e-16 0)
(-7.4651e-22 -9.87893e-16 0)
(-2.2355e-21 -9.87894e-16 0)
(-3.71239e-21 -9.87894e-16 0)
(-5.16909e-21 -9.87894e-16 0)
(-6.59746e-21 -9.87894e-16 0)
(-7.9893e-21 -9.87894e-16 0)
(-9.33637e-21 -9.87894e-16 0)
(-1.06303e-20 -9.87894e-16 0)
(-1.18628e-20 -9.87894e-16 0)
(-1.30254e-20 -9.87895e-16 0)
(-1.41095e-20 -9.87895e-16 0)
(-1.51067e-20 -9.87895e-16 0)
(-1.60086e-20 -9.87896e-16 0)
(-1.68068e-20 -9.87896e-16 0)
(-1.74931e-20 -9.87896e-16 0)
(-1.80596e-20 -9.87897e-16 0)
(-1.84986e-20 -9.87897e-16 0)
(-1.88031e-20 -9.87898e-16 0)
(-1.89666e-20 -9.87898e-16 0)
(-1.89832e-20 -9.87899e-16 0)
(-1.88482e-20 -9.87899e-16 0)
(-1.8558e-20 -9.879e-16 0)
(-1.811e-20 -9.879e-16 0)
(-1.75034e-20 -9.87901e-16 0)
(-1.67389e-20 -9.87901e-16 0)
(-1.5819e-20 -9.87902e-16 0)
(-1.47483e-20 -9.87902e-16 0)
(-1.35335e-20 -9.87903e-16 0)
(-1.21832e-20 -9.87903e-16 0)
(-1.07083e-20 -9.87904e-16 0)
(-9.12187e-21 -9.87904e-16 0)
(-7.43882e-21 -9.87904e-16 0)
(-6.17986e-21 -9.87904e-16 0)
(-5.38311e-21 -9.87904e-16 0)
(-4.57479e-21 -9.87905e-16 0)
(-3.75661e-21 -9.87905e-16 0)
(-2.9303e-21 -9.87905e-16 0)
(-2.09763e-21 -9.87905e-16 0)
(-1.26041e-21 -9.87905e-16 0)
(-4.20441e-22 -9.87905e-16 0)
(4.20441e-22 -9.87905e-16 0)
(1.26041e-21 -9.87905e-16 0)
(2.09763e-21 -9.87905e-16 0)
(2.9303e-21 -9.87905e-16 0)
(3.75661e-21 -9.87905e-16 0)
(4.57479e-21 -9.87905e-16 0)
(5.38311e-21 -9.87904e-16 0)
(6.17986e-21 -9.87904e-16 0)
(7.43882e-21 -9.87904e-16 0)
(9.12187e-21 -9.87904e-16 0)
(1.07083e-20 -9.87904e-16 0)
(1.21832e-20 -9.87903e-16 0)
(1.35335e-20 -9.87903e-16 0)
(1.47483e-20 -9.87902e-16 0)
(1.5819e-20 -9.87902e-16 0)
(1.67389e-20 -9.87901e-16 0)
(1.75034e-20 -9.87901e-16 0)
(1.811e-20 -9.879e-16 0)
(1.8558e-20 -9.879e-16 0)
(1.88482e-20 -9.87899e-16 0)
(1.89832e-20 -9.87899e-16 0)
(1.89666e-20 -9.87898e-16 0)
(1.88031e-20 -9.87898e-16 0)
(1.84986e-20 -9.87897e-16 0)
(1.80596e-20 -9.87897e-16 0)
(1.74931e-20 -9.87896e-16 0)
(1.68068e-20 -9.87896e-16 0)
(1.60086e-20 -9.87896e-16 0)
(1.51067e-20 -9.87895e-16 0)
(1.41095e-20 -9.87895e-16 0)
(1.30254e-20 -9.87895e-16 0)
(1.18628e-20 -9.87894e-16 0)
(1.06303e-20 -9.87894e-16 0)
(9.33637e-21 -9.87894e-16 0)
(7.9893e-21 -9.87894e-16 0)
(6.59746e-21 -9.87894e-16 0)
(5.16909e-21 -9.87894e-16 0)
(3.71239e-21 -9.87894e-16 0)
(2.2355e-21 -9.87894e-16 0)
(7.4651e-22 -9.87893e-16 0)
(-7.54568e-22 -9.87893e-16 0)
(-2.25969e-21 -9.87893e-16 0)
(-3.75275e-21 -9.87893e-16 0)
(-5.22568e-21 -9.87893e-16 0)
(-6.67036e-21 -9.87893e-16 0)
(-8.07861e-21 -9.87893e-16 0)
(-9.44217e-21 -9.87893e-16 0)
(-1.07527e-20 -9.87894e-16 0)
(-1.20018e-20 -9.87894e-16 0)
(-1.31809e-20 -9.87894e-16 0)
(-1.42816e-20 -9.87894e-16 0)
(-1.52952e-20 -9.87895e-16 0)
(-1.62132e-20 -9.87895e-16 0)
(-1.7027e-20 -9.87896e-16 0)
(-1.77284e-20 -9.87896e-16 0)
(-1.83091e-20 -9.87897e-16 0)
(-1.87613e-20 -9.87897e-16 0)
(-1.90777e-20 -9.87898e-16 0)
(-1.92515e-20 -9.87898e-16 0)
(-1.92766e-20 -9.87899e-16 0)
(-1.91478e-20 -9.87899e-16 0)
(-1.88612e-20 -9.879e-16 0)
(-1.8414e-20 -9.87901e-16 0)
(-1.7805e-20 -9.87901e-16 0)
(-1.70346e-20 -9.87902e-16 0)
(-1.61052e-20 -9.87902e-16 0)
(-1.50212e-20 -9.87903e-16 0)
(-1.3789e-20 -9.87904e-16 0)
(-1.24176e-20 -9.87904e-16 0)
(-1.09178e-20 -9.87904e-16 0)
(-9.30285e-21 -9.87905e-16 0)
(-7.58816e-21 -9.87905e-16 0)
(-6.30489e-21 -9.87905e-16 0)
(-5.49243e-21 -9.87905e-16 0)
(-4.668e-21 -9.87906e-16 0)
(-3.83335e-21 -9.87906e-16 0)
(-2.99029e-21 -9.87906e-16 0)
(-2.14065e-21 -9.87906e-16 0)
(-1.28628e-21 -9.87906e-16 0)
(-4.29076e-22 -9.87906e-16 0)
(4.29076e-22 -9.87906e-16 0)
(1.28628e-21 -9.87906e-16 0)
(2.14065e-21 -9.87906e-16 0)
(2.99029e-21 -9.87906e-16 0)
(3.83335e-21 -9.87906e-16 0)
(4.668e-21 -9.87906e-16 0)
(5.49243e-21 -9.87905e-16 0)
(6.30489e-21 -9.87905e-16 0)
(7.58816e-21 -9.87905e-16 0)
(9.30285e-21 -9.87905e-16 0)
(1.09178e-20 -9.87904e-16 0)
(1.24176e-20 -9.87904e-16 0)
(1.3789e-20 -9.87904e-16 0)
(1.50212e-20 -9.87903e-16 0)
(1.61052e-20 -9.87902e-16 0)
(1.70346e-20 -9.87902e-16 0)
(1.7805e-20 -9.87901e-16 0)
(1.8414e-20 -9.87901e-16 0)
(1.88612e-20 -9.879e-16 0)
(1.91478e-20 -9.87899e-16 0)
(1.92766e-20 -9.87899e-16 0)
(1.92515e-20 -9.87898e-16 0)
(1.90777e-20 -9.87898e-16 0)
(1.87613e-20 -9.87897e-16 0)
(1.83091e-20 -9.87897e-16 0)
(1.77284e-20 -9.87896e-16 0)
(1.7027e-20 -9.87896e-16 0)
(1.62132e-20 -9.87895e-16 0)
(1.52952e-20 -9.87895e-16 0)
(1.42816e-20 -9.87894e-16 0)
(1.31809e-20 -9.87894e-16 0)
(1.20018e-20 -9.87894e-16 0)
(1.07527e-20 -9.87894e-16 0)
(9.44217e-21 -9.87893e-16 0)
(8.07861e-21 -9.87893e-16 0)
(6.67036e-21 -9.87893e-16 0)
(5.22568e-21 -9.87893e-16 0)
(3.75275e-21 -9.87893e-16 0)
(2.25969e-21 -9.87893e-16 0)
(7.54568e-22 -9.87893e-16 0)
(-7.64735e-22 -9.87892e-16 0)
(-2.29021e-21 -9.87892e-16 0)
(-3.80368e-21 -9.87892e-16 0)
(-5.2971e-21 -9.87892e-16 0)
(-6.76238e-21 -9.87892e-16 0)
(-8.19135e-21 -9.87892e-16 0)
(-9.57575e-21 -9.87893e-16 0)
(-1.09072e-20 -9.87893e-16 0)
(-1.21773e-20 -9.87893e-16 0)
(-1.33775e-20 -9.87893e-16 0)
(-1.44992e-20 -9.87894e-16 0)
(-1.55335e-20 -9.87894e-16 0)
(-1.6472e-20 -9.87895e-16 0)
(-1.73057e-20 -9.87895e-16 0)
(-1.80263e-20 -9.87896e-16 0)
(-1.86252e-20 -9.87896e-16 0)
(-1.90944e-20 -9.87897e-16 0)
(-1.94261e-20 -9.87897e-16 0)
(-1.96132e-20 -9.87898e-16 0)
(-1.96492e-20 -9.87899e-16 0)
(-1.95286e-20 -9.879e-16 0)
(-1.92469e-20 -9.879e-16 0)
(-1.8801e-20 -9.87901e-16 0)
(-1.81891e-20 -9.87902e-16 0)
(-1.74116e-20 -9.87902e-16 0)
(-1.64703e-20 -9.87903e-16 0)
(-1.53694e-20 -9.87904e-16 0)
(-1.41155e-20 -9.87904e-16 0)
(-1.27171e-20 -9.87905e-16 0)
(-1.11856e-20 -9.87905e-16 0)
(-9.53437e-21 -9.87906e-16 0)
(-7.77929e-21 -9.87906e-16 0)
(-6.46495e-21 -9.87906e-16 0)
(-5.63239e-21 -9.87907e-16 0)
(-4.78734e-21 -9.87907e-16 0)
(-3.93162e-21 -9.87907e-16 0)
(-3.06711e-21 -9.87907e-16 0)
(-2.19573e-21 -9.87907e-16 0)
(-1.31942e-21 -9.87907e-16 0)
(-4.40136e-22 -9.87907e-16 0)
(4.40136e-22 -9.87907e-16 0)
(1.31942e-21 -9.87907e-16 0)
(2.19573e-21 -9.87907e-16 0)