/*--------------------------------*- C++ -*----------------------------------*\
  =========                 |
  \\      /  F ield         | OpenFOAM: The Open Source CFD Toolbox
   \\    /   O peration     | Website:  https://openfoam.org
    \\  /    A nd           | Version:  10
     \\/     M anipulation  |
\*---------------------------------------------------------------------------*/
FoamFile
{
    format      ascii;
    class       volScalarField;
    location    "3.6";
    object      Sb;
}
// * * * * * * * * * * * * * * * * * * * * * * * * * * * * * * * * * * * * * //

dimensions      [0 0 0 0 0 0 0];

internalField   nonuniform List<scalar> 
12225
(
0.573507
0.571536
0.569126
0.566534
0.563934
0.561436
0.559107
0.556989
0.555107
0.553482
0.552136
0.5511
0.550426
0.550203
0.550608
0.552037
0.555557
0.564432
0.603857
0.601387
0.598412
0.595253
0.592117
0.589133
0.586374
0.58388
0.581676
0.57978
0.578212
0.577
0.576195
0.575889
0.576253
0.577637
0.580775
0.58695
0.623161
0.620201
0.616686
0.612993
0.60936
0.605928
0.602773
0.599935
0.597435
0.595288
0.593509
0.592125
0.591181
0.59076
0.591009
0.59219
0.594725
0.599037
0.638793
0.635318
0.63125
0.627021
0.622896
0.619027
0.615489
0.61232
0.609535
0.607143
0.605154
0.603587
0.602481
0.601901
0.601957
0.602816
0.604674
0.60759
0.652702
0.648659
0.643993
0.639197
0.634561
0.630241
0.626312
0.622806
0.619729
0.617084
0.614873
0.613107
0.61181
0.611028
0.610828
0.611296
0.612487
0.614317
0.665754
0.661065
0.655736
0.650321
0.645136
0.640338
0.635998
0.632136
0.628753
0.62584
0.623389
0.621399
0.619881
0.618856
0.618353
0.618396
0.618962
0.619921
0.678441
0.673004
0.666925
0.660823
0.655036
0.649721
0.644938
0.640698
0.636986
0.633783
0.631069
0.628831
0.62706
0.625757
0.624918
0.624524
0.624514
0.624755
0.691098
0.684784
0.677841
0.670965
0.66451
0.658628
0.653366
0.648715
0.644648
0.641129
0.638127
0.635612
0.63356
0.63195
0.630754
0.629926
0.629389
0.629026
0.703996
0.696632
0.688685
0.680927
0.673724
0.667215
0.661426
0.656328
0.651874
0.648012
0.644693
0.641875
0.639515
0.637576
0.63601
0.634759
0.633742
0.632859
0.71738
0.708742
0.699611
0.690838
0.68279
0.675584
0.669214
0.663627
0.658751
0.654515
0.650853
0.647705
0.645015
0.642729
0.640789
0.639129
0.637673
0.636337
0.731504
0.721293
0.710751
0.7008
0.691792
0.683805
0.676794
0.670671
0.665336
0.660694
0.656659
0.653157
0.650116
0.647473
0.64516
0.643109
0.64125
0.639512
0.746657
0.734468
0.722221
0.710889
0.700783
0.691921
0.684202
0.677492
0.671657
0.666575
0.662141
0.658263
0.654857
0.651849
0.649168
0.646745
0.644513
0.642412
0.760749
0.746364
0.732313
0.719574
0.708383
0.698676
0.690286
0.683029
0.676734
0.671252
0.666458
0.662244
0.658519
0.6552
0.652212
0.649486
0.646959
0.644576
0.778303
0.760747
0.744221
0.729623
0.717039
0.706274
0.69706
0.68914
0.682294
0.67634
0.671127
0.66653
0.662445
0.65878
0.655455
0.6524
0.649552
0.646859
0.800721
0.778363
0.758331
0.741227
0.726841
0.71475
0.704529
0.695819
0.688329
0.681831
0.676142
0.671113
0.66662
0.662561
0.658847
0.655406
0.652177
0.649113
0.830677
0.800559
0.775311
0.754721
0.73797
0.724223
0.712797
0.703171
0.69495
0.687831
0.681578
0.67601
0.670981
0.666381
0.66212
0.658133
0.654369
0.650793
0.876578
0.832895
0.799189
0.773372
0.753247
0.737144
0.723937
0.712873
0.703354
0.694937
0.687415
0.680627
0.674449
0.668783
0.663553
0.658702
0.654181
0.649954
0.818684
0.791584
0.768682
0.749584
0.733625
0.720164
0.708663
0.698703
0.690027
0.682462
0.675745
0.669603
0.663958
0.658748
0.653919
0.649429
0.645243
0.64133
0.769255
0.752336
0.736606
0.722595
0.710279
0.699465
0.68993
0.681468
0.673903
0.667088
0.660936
0.655439
0.650455
0.645861
0.641608
0.637656
0.633972
0.630528
0.736234
0.724599
0.712987
0.702097
0.692143
0.683132
0.674996
0.667637
0.660959
0.654873
0.6493
0.644177
0.639483
0.635216
0.631246
0.627544
0.624084
0.620842
0.709276
0.700843
0.691978
0.683323
0.675156
0.667577
0.660593
0.654174
0.648271
0.642833
0.63781
0.633159
0.62884
0.624828
0.621159
0.617731
0.61452
0.611508
0.686318
0.679954
0.672998
0.665984
0.659193
0.652757
0.646725
0.641102
0.635873
0.63101
0.626484
0.622265
0.618327
0.614644
0.611199
0.608025
0.605046
0.602248
0.666072
0.661121
0.65554
0.649763
0.644049
0.638536
0.633294
0.628348
0.623703
0.619347
0.615264
0.611437
0.607847
0.604475
0.601306
0.598334
0.595571
0.592971
0.647648
0.643709
0.639151
0.634329
0.629471
0.624715
0.620134
0.615768
0.61163
0.607721
0.604035
0.600561
0.597286
0.5942
0.591289
0.588541
0.585966
0.58355
0.630353
0.627166
0.623392
0.619325
0.615163
0.611035
0.607016
0.60315
0.599457
0.595945
0.592614
0.589459
0.586474
0.583648
0.580975
0.578444
0.576048
0.573805
0.613551
0.610942
0.607788
0.604331
0.600747
0.597151
0.593616
0.590187
0.586889
0.583733
0.580724
0.577861
0.575141
0.572557
0.570104
0.567775
0.565565
0.563469
0.596522
0.594371
0.59172
0.588772
0.585678
0.582542
0.579432
0.576393
0.573451
0.570621
0.567908
0.565315
0.562841
0.560483
0.558237
0.556099
0.554065
0.552128
0.578185
0.576411
0.574182
0.57167
0.569004
0.566277
0.563552
0.560869
0.558256
0.555728
0.553293
0.550955
0.548715
0.546573
0.544525
0.542569
0.540703
0.538922
0.556247
0.554793
0.552933
0.550809
0.548531
0.54618
0.543811
0.541463
0.53916
0.536919
0.534749
0.532654
0.530639
0.528702
0.526843
0.525061
0.523354
0.521719
0.522105
0.520926
0.519388
0.517608
0.515675
0.513658
0.511605
0.50955
0.507517
0.505521
0.503572
0.501676
0.499838
0.498059
0.49634
0.494681
0.493081
0.491541
0.27329
0.287909
0.295979
0.301182
0.304815
0.307469
0.309462
0.310979
0.312138
0.313017
0.31367
0.314135
0.31444
0.314605
0.314647
0.314577
0.314407
0.314143
0.313793
0.313361
0.312852
0.312271
0.311621
0.310904
0.310125
0.309284
0.308384
0.307428
0.306418
0.305354
0.304239
0.303074
0.301861
0.300601
0.299296
0.297946
0.296553
0.295118
0.293643
0.292127
0.290573
0.288981
0.287353
0.285689
0.28399
0.282257
0.280491
0.278693
0.276863
0.275004
0.273115
0.271197
0.269251
0.267279
0.26528
0.263256
0.261207
0.259134
0.257039
0.254921
0.252781
0.25062
0.248439
0.246239
0.244019
0.241781
0.239525
0.237251
0.234961
0.232654
0.23033
0.22799
0.225635
0.223263
0.220876
0.218474
0.216055
0.21362
0.211169
0.208701
0.206215
0.203712
0.20119
0.198648
0.196086
0.193501
0.190894
0.188261
0.185601
0.182913
0.180193
0.17744
0.174651
0.171822
0.168951
0.166034
0.163067
0.160046
0.156968
0.153828
0.150623
0.14735
0.144007
0.140592
0.137107
0.133555
0.129945
0.126289
0.122607
0.118926
0.115283
0.111727
0.108319
0.105134
0.102259
0.0997805
0.0977454
0.0962328
0.0960854
0.0987828
0.103921
0.10945
0.115251
0.121327
0.12768
0.13433
0.141305
0.148044
0.148694
0.132539
0.0863664
0.0216139
0.00112095
0.0011
0.0011
0.0011
0.0011
0.0011
0.0011
0.0011
0.0011
0.0011
0.0011
0.0011
0.0011
0.0011
0.0011
0.0011
0.0011
0.0011
0.0011
0.0011
0.0011
0.0011
0.0011
0.0011
0.0011
0.0011
0.0011
0.0011
0.0011
0.0011
0.0011
0.0011
0.0011
0.0011
0.0011
0.0011
0.0011
0.0011
0.0011
0.0011
0.0011
0.0011
0.0011
0.0011
0.0011
0.0011
0.0011
0.0011
0.427056
0.427713
0.428316
0.428861
0.42935
0.429781
0.430158
0.430482
0.430756
0.430981
0.431161
0.431299
0.431396
0.431455
0.431477
0.431466
0.431423
0.43135
0.431248
0.431119
0.430964
0.430786
0.430584
0.430361
0.430118
0.429856
0.429575
0.429278
0.428965
0.428637
0.428295
0.427941
0.427574
0.427197
0.42681
0.426413
0.426007
0.425595
0.425175
0.424749
0.424318
0.423882
0.423441
0.422998
0.422552
0.422103
0.421653
0.421201
0.420749
0.420296
0.419844
0.419392
0.418941
0.418491
0.418043
0.417596
0.417151
0.416709
0.416268
0.41583
0.415394
0.414961
0.41453
0.414101
0.413674
0.41325
0.412828
0.412407
0.411988
0.41157
0.411154
0.410738
0.410323
0.409907
0.409491
0.409075
0.408657
0.408237
0.407815
0.40739
0.406961
0.406528
0.406089
0.405645
0.405193
0.404734
0.404266
0.403787
0.403297
0.402794
0.402277
0.401743
0.401191
0.400618
0.400022
0.399401
0.398751
0.398068
0.397349
0.396589
0.395783
0.394926
0.394011
0.393032
0.39198
0.390849
0.389628
0.388311
0.386889
0.385354
0.383701
0.381929
0.380041
0.378048
0.375971
0.373844
0.371714
0.369631
0.367616
0.365384
0.362553
0.360246
0.359256
0.360305
0.363601
0.369093
0.37604
0.381858
0.385112
0.383918
0.372068
0.322803
0.131732
0.00216749
0.0011
0.0011
0.0011
0.0011
0.0011
0.0011
0.0011
0.0011
0.0011
0.0011
0.0011
0.0011
0.0011
0.0011
0.0011
0.0011
0.0011
0.0011
0.0011
0.0011
0.0011
0.0011
0.0011
0.0011
0.0011
0.0011
0.0011
0.0011
0.0011
0.0011
0.0011
0.0011
0.0011
0.0011
0.0011
0.0011
0.0011
0.0011
0.0011
0.0011
0.0011
0.0011
0.0011
0.0011
0.0011
0.0011
0.458264
0.458493
0.458708
0.458906
0.459085
0.459246
0.459385
0.459504
0.459601
0.459676
0.459729
0.459759
0.459768
0.459755
0.459721
0.459666
0.45959
0.459494
0.459378
0.459244
0.459091
0.45892
0.458733
0.458529
0.458309
0.458075
0.457826
0.457564
0.457288
0.457001
0.456702
0.456392
0.456072
0.455743
0.455404
0.455058
0.454703
0.454341
0.453973
0.453599
0.453219
0.452834
0.452444
0.45205
0.451653
0.451252
0.450848
0.450441
0.450032
0.449621
0.449208
0.448794
0.448378
0.447962
0.447544
0.447127
0.446708
0.44629
0.445871
0.445452
0.445033
0.444615
0.444196
0.443779
0.443361
0.442944
0.442527
0.442111
0.441695
0.44128
0.440866
0.440452
0.440038
0.439625
0.439213
0.438801
0.43839
0.437979
0.437569
0.43716
0.43675
0.436342
0.435933
0.435525
0.435118
0.43471
0.434303
0.433896
0.433489
0.433082
0.432675
0.432267
0.431859
0.431451
0.431041
0.43063
0.430218
0.429804
0.429388
0.42897
0.428549
0.428126
0.427699
0.42727
0.426837
0.426401
0.425964
0.425524
0.425085
0.424647
0.424213
0.423787
0.423372
0.422973
0.422594
0.422241
0.421918
0.421626
0.421367
0.421145
0.420862
0.420748
0.420791
0.42078
0.420691
0.420452
0.419943
0.418985
0.41728
0.414239
0.408586
0.396992
0.365364
0.197561
0.0036686
0.0011
0.0011
0.0011
0.0011
0.0011
0.0011
0.0011
0.0011
0.0011
0.0011
0.0011
0.0011
0.0011
0.0011
0.0011
0.0011
0.0011
0.0011
0.0011
0.0011
0.0011
0.0011
0.0011
0.0011
0.0011
0.0011
0.0011
0.0011
0.0011
0.0011
0.0011
0.0011
0.0011
0.0011
0.0011
0.0011
0.0011
0.0011
0.0011
0.0011
0.0011
0.0011
0.0011
0.0011
0.0011
0.473963
0.474204
0.474427
0.474632
0.474818
0.474984
0.475129
0.475252
0.475354
0.475433
0.475491
0.475525
0.475538
0.475528
0.475496
0.475442
0.475368
0.475272
0.475155
0.475019
0.474864
0.47469
0.474498
0.474288
0.474062
0.473821
0.473564
0.473293
0.473008
0.472711
0.472401
0.472079
0.471747
0.471405
0.471053
0.470693
0.470324
0.469947
0.469563
0.469173
0.468777
0.468375
0.467968
0.467556
0.46714
0.46672
0.466297
0.46587
0.46544
0.465007
0.464573
0.464135
0.463696
0.463255
0.462813
0.462369
0.461924
0.461477
0.46103
0.460581
0.460132
0.459682
0.459231
0.458779
0.458327
0.457874
0.45742
0.456966
0.456511
0.456056
0.455601
0.455145
0.454688
0.454231
0.453774
0.453316
0.452858
0.4524
0.451941
0.451482
0.451023
0.450564
0.450104
0.449644
0.449184
0.448724
0.448264
0.447803
0.447343
0.446882
0.446422
0.445961
0.4455
0.445039
0.444578
0.444117
0.443655
0.443193
0.442731
0.442268
0.441805
0.441342
0.440878
0.440413
0.439948
0.439482
0.439016
0.43855
0.438083
0.437616
0.43715
0.436685
0.436219
0.435755
0.43529
0.434825
0.434358
0.433886
0.433406
0.432915
0.432413
0.431893
0.43134
0.430731
0.430028
0.429181
0.428116
0.426728
0.424841
0.422149
0.418062
0.411297
0.398132
0.36114
0.160096
0.00183647
0.0011
0.0011
0.0011
0.0011
0.0011
0.0011
0.0011
0.0011
0.0011
0.0011
0.0011
0.0011
0.0011
0.0011
0.0011
0.0011
0.0011
0.0011
0.0011
0.0011
0.0011
0.0011
0.0011
0.0011
0.0011
0.0011
0.0011
0.0011
0.0011
0.0011
0.0011
0.0011
0.0011
0.0011
0.0011
0.0011
0.0011
0.0011
0.0011
0.0011
0.0011
0.0011
0.0011
0.0011
0.485496
0.485804
0.486091
0.486354
0.486594
0.486809
0.487
0.487164
0.487303
0.487415
0.487501
0.487561
0.487594
0.487602
0.487583
0.487539
0.48747
0.487376
0.487259
0.487119
0.486956
0.486772
0.486567
0.486342
0.486098
0.485836
0.485557
0.48526
0.484949
0.484622
0.484281
0.483928
0.483561
0.483184
0.482795
0.482396
0.481988
0.481571
0.481146
0.480713
0.480273
0.479826
0.479374
0.478916
0.478453
0.477985
0.477514
0.477038
0.476558
0.476076
0.47559
0.475101
0.47461
0.474117
0.473622
0.473124
0.472625
0.472124
0.471622
0.471118
0.470612
0.470106
0.469598
0.469088
0.468578
0.468067
0.467554
0.467041
0.466526
0.466011
0.465494
0.464976
0.464458
0.463938
0.463418
0.462896
0.462374
0.46185
0.461326
0.4608
0.460274
0.459747
0.459219
0.45869
0.45816
0.457629
0.457097
0.456564
0.456031
0.455496
0.454961
0.454424
0.453887
0.453348
0.452809
0.452269
0.451727
0.451184
0.45064
0.450095
0.449548
0.448999
0.448449
0.447898
0.447344
0.446788
0.44623
0.44567
0.445107
0.444541
0.443972
0.443399
0.442821
0.442238
0.441648
0.44105
0.440442
0.439821
0.439183
0.438526
0.437843
0.437128
0.436367
0.435542
0.434625
0.433578
0.432351
0.430864
0.428999
0.426557
0.423191
0.418211
0.409971
0.393183
0.337493
0.0760209
0.00111997
0.0011
0.0011
0.0011
0.0011
0.0011
0.0011
0.0011
0.0011
0.0011
0.0011
0.0011
0.0011
0.0011
0.0011
0.0011
0.0011
0.0011
0.0011
0.0011
0.0011
0.0011
0.0011
0.0011
0.0011
0.0011
0.0011
0.0011
0.0011
0.0011
0.0011
0.0011
0.0011
0.0011
0.0011
0.0011
0.0011
0.0011
0.0011
0.0011
0.0011
0.0011
0.0011
0.0011
0.495154
0.495544
0.495908
0.496243
0.49655
0.496827
0.497073
0.497288
0.497472
0.497624
0.497744
0.497833
0.49789
0.497916
0.497911
0.497876
0.497812
0.497719
0.497598
0.49745
0.497275
0.497076
0.496852
0.496606
0.496337
0.496047
0.495737
0.495408
0.495061
0.494697
0.494317
0.493921
0.493512
0.493089
0.492653
0.492206
0.491748
0.49128
0.490802
0.490316
0.489821
0.489319
0.48881
0.488295
0.487773
0.487246
0.486714
0.486177
0.485636
0.485091
0.484543
0.483991
0.483436
0.482878
0.482318
0.481755
0.48119
0.480622
0.480053
0.479482
0.478909
0.478335
0.477759
0.477182
0.476603
0.476023
0.475441
0.474859
0.474275
0.473689
0.473103
0.472515
0.471926
0.471336
0.470745
0.470153
0.46956
0.468965
0.468369
0.467772
0.467174
0.466575
0.465974
0.465373
0.46477
0.464165
0.46356
0.462953
0.462345
0.461736
0.461126
0.460514
0.4599
0.459285
0.458669
0.458051
0.457431
0.45681
0.456187
0.455562
0.454934
0.454305
0.453673
0.453039
0.452402
0.451762
0.451118
0.450472
0.449821
0.449166
0.448506
0.44784
0.447168
0.446489
0.4458
0.445101
0.444389
0.443661
0.442915
0.442146
0.441348
0.440514
0.439632
0.438687
0.437657
0.436511
0.435208
0.433689
0.431865
0.429595
0.426645
0.422584
0.416492
0.405968
0.38201
0.272136
0.0153242
0.00110002
0.0011
0.0011
0.0011
0.0011
0.0011
0.0011
0.0011
0.0011
0.0011
0.0011
0.0011
0.0011
0.0011
0.0011
0.0011
0.0011
0.0011
0.0011
0.0011
0.0011
0.0011
0.0011
0.0011
0.0011
0.0011
0.0011
0.0011
0.0011
0.0011
0.0011
0.0011
0.0011
0.0011
0.0011
0.0011
0.0011
0.0011
0.0011
0.0011
0.0011
0.0011
0.0011
0.503645
0.504128
0.504579
0.504995
0.505377
0.505722
0.506031
0.506302
0.506534
0.506729
0.506885
0.507004
0.507085
0.507129
0.507137
0.507109
0.507046
0.50695
0.506821
0.506661
0.506471
0.506251
0.506003
0.505729
0.50543
0.505106
0.50476
0.504392
0.504003
0.503595
0.503169
0.502726
0.502267
0.501793
0.501304
0.500803
0.500289
0.499764
0.499228
0.498682
0.498127
0.497564
0.496992
0.496413
0.495828
0.495236
0.494639
0.494036
0.493428
0.492816
0.4922
0.491579
0.490956
0.490328
0.489698
0.489066
0.48843
0.487792
0.487152
0.48651
0.485866
0.485221
0.484573
0.483924
0.483273
0.482621
0.481968
0.481313
0.480658
0.48
0.479342
0.478683
0.478022
0.477361
0.476698
0.476034
0.475369
0.474703
0.474036
0.473368
0.472699
0.472029
0.471357
0.470685
0.470011
0.469336
0.46866
0.467983
0.467305
0.466625
0.465944
0.465261
0.464577
0.463892
0.463205
0.462516
0.461825
0.461133
0.460438
0.459742
0.459043
0.458342
0.457638
0.456932
0.456222
0.455509
0.454793
0.454072
0.453347
0.452617
0.451882
0.45114
0.450391
0.449634
0.448867
0.448088
0.447296
0.446488
0.44566
0.444808
0.443927
0.44301
0.442046
0.441022
0.439918
0.438711
0.437367
0.435836
0.434051
0.431905
0.429227
0.42572
0.4208
0.413123
0.398699
0.357947
0.134626
0.00141447
0.0011
0.0011
0.0011
0.0011
0.0011
0.0011
0.0011
0.0011
0.0011
0.0011
0.0011
0.0011
0.0011
0.0011
0.0011
0.0011
0.0011
0.0011
0.0011
0.0011
0.0011
0.0011
0.0011
0.0011
0.0011
0.0011
0.0011
0.0011
0.0011
0.0011
0.0011
0.0011
0.0011
0.0011
0.0011
0.0011
0.0011
0.0011
0.0011
0.0011
0.0011
0.0011
0.511297
0.511884
0.512432
0.512939
0.513404
0.513825
0.514201
0.514532
0.514817
0.515057
0.515251
0.5154
0.515504
0.515564
0.515582
0.515558
0.515494
0.51539
0.515249
0.515071
0.514859
0.514613
0.514336
0.514028
0.513692
0.513329
0.51294
0.512527
0.512091
0.511633
0.511156
0.510659
0.510144
0.509613
0.509067
0.508506
0.507931
0.507344
0.506746
0.506136
0.505516
0.504887
0.50425
0.503604
0.502952
0.502292
0.501626
0.500954
0.500277
0.499595
0.498909
0.498218
0.497524
0.496826
0.496125
0.495421
0.494714
0.494005
0.493294
0.49258
0.491865
0.491147
0.490428
0.489708
0.488986
0.488263
0.487538
0.486813
0.486086
0.485358
0.48463
0.4839
0.48317
0.482438
0.481706
0.480973
0.48024
0.479505
0.47877
0.478034
0.477297
0.47656
0.475821
0.475082
0.474342
0.473601
0.472859
0.472117
0.471373
0.470628
0.469882
0.469135
0.468387
0.467638
0.466887
0.466134
0.46538
0.464625
0.463867
0.463108
0.462346
0.461582
0.460816
0.460046
0.459274
0.458499
0.45772
0.456936
0.456149
0.455356
0.454557
0.453752
0.45294
0.452119
0.451288
0.450445
0.449589
0.448716
0.447824
0.446908
0.445964
0.444983
0.443958
0.442876
0.441721
0.440473
0.439101
0.437568
0.435816
0.433762
0.431276
0.428138
0.423943
0.41784
0.407645
0.385493
0.292378
0.0246817
0.00110012
0.0011
0.0011
0.0011
0.0011
0.0011
0.0011
0.0011
0.0011
0.0011
0.0011
0.0011
0.0011
0.0011
0.0011
0.0011
0.0011
0.0011
0.0011
0.0011
0.0011
0.0011
0.0011
0.0011
0.0011
0.0011
0.0011
0.0011
0.0011
0.0011
0.0011
0.0011
0.0011
0.0011
0.0011
0.0011
0.0011
0.0011
0.0011
0.0011
0.0011
0.0011
0.518301
0.519005
0.519662
0.52027
0.520827
0.521331
0.521781
0.522176
0.522517
0.522803
0.523036
0.523214
0.52334
0.523415
0.523439
0.523415
0.523344
0.523228
0.523069
0.522869
0.522628
0.522351
0.522037
0.52169
0.521311
0.520902
0.520464
0.519999
0.519509
0.518996
0.518461
0.517905
0.51733
0.516737
0.516127
0.515502
0.514862
0.514209
0.513543
0.512866
0.512178
0.511481
0.510774
0.510059
0.509336
0.508607
0.50787
0.507128
0.50638
0.505627
0.50487
0.504109
0.503343
0.502574
0.501802
0.501028
0.50025
0.49947
0.498688
0.497904
0.497119
0.496331
0.495543
0.494753
0.493962
0.49317
0.492377
0.491583
0.490788
0.489993
0.489197
0.488401
0.487604
0.486806
0.486009
0.485211
0.484412
0.483613
0.482814
0.482015
0.481215
0.480415
0.479614
0.478813
0.478012
0.47721
0.476408
0.475606
0.474802
0.473998
0.473194
0.472389
0.471582
0.470775
0.469967
0.469158
0.468348
0.467536
0.466723
0.465908
0.465091
0.464272
0.463451
0.462627
0.4618
0.460971
0.460138
0.459301
0.458459
0.457613
0.456761
0.455903
0.455037
0.454163
0.453279
0.452383
0.451474
0.450548
0.449604
0.448636
0.447641
0.446611
0.445538
0.444412
0.443219
0.44194
0.44055
0.439017
0.437294
0.435312
0.432967
0.430091
0.426384
0.421259
0.413356
0.398622
0.357009
0.131886
0.00139626
0.0011
0.0011
0.0011
0.0011
0.0011
0.0011
0.0011
0.0011
0.0011
0.0011
0.0011
0.0011
0.0011
0.0011
0.0011
0.0011
0.0011
0.0011
0.0011
0.0011
0.0011
0.0011
0.0011
0.0011
0.0011
0.0011
0.0011
0.0011
0.0011
0.0011
0.0011
0.0011
0.0011
0.0011
0.0011
0.0011
0.0011
0.0011
0.0011
0.0011
0.0011
0.524784
0.525618
0.526397
0.527116
0.527774
0.528369
0.528899
0.529365
0.529764
0.530099
0.53037
0.530577
0.530723
0.530809
0.530836
0.530808
0.530726
0.530592
0.530409
0.530179
0.529904
0.529587
0.529231
0.528837
0.528408
0.527946
0.527452
0.52693
0.52638
0.525805
0.525207
0.524586
0.523945
0.523284
0.522606
0.521912
0.521203
0.52048
0.519743
0.518995
0.518236
0.517467
0.516689
0.515903
0.515108
0.514307
0.513499
0.512685
0.511866
0.511042
0.510213
0.509381
0.508545
0.507706
0.506864
0.506019
0.505173
0.504324
0.503473
0.502621
0.501768
0.500913
0.500057
0.499201
0.498344
0.497486
0.496628
0.495769
0.49491
0.494051
0.493192
0.492333
0.491474
0.490615
0.489756
0.488897
0.488039
0.48718
0.486322
0.485464
0.484606
0.483748
0.482891
0.482033
0.481176
0.480319
0.479462
0.478605
0.477747
0.47689
0.476032
0.475175
0.474316
0.473458
0.472599
0.471739
0.470878
0.470016
0.469154
0.468289
0.467424
0.466557
0.465688
0.464816
0.463942
0.463066
0.462186
0.461303
0.460415
0.459523
0.458625
0.457721
0.45681
0.45589
0.454961
0.454021
0.453067
0.452098
0.45111
0.4501
0.449063
0.447993
0.446882
0.445721
0.444498
0.443196
0.441794
0.440263
0.438564
0.436638
0.434402
0.43172
0.42836
0.423893
0.417394
0.406447
0.38197
0.271292
0.0159281
0.00110002
0.0011
0.0011
0.0011
0.0011
0.0011
0.0011
0.0011
0.0011
0.0011
0.0011
0.0011
0.0011
0.0011
0.0011
0.0011
0.0011
0.0011
0.0011
0.0011
0.0011
0.0011
0.0011
0.0011
0.0011
0.0011
0.0011
0.0011
0.0011
0.0011
0.0011
0.0011
0.0011
0.0011
0.0011
0.0011
0.0011
0.0011
0.0011
0.0011
0.0011
0.530827
0.531808
0.532723
0.533567
0.534337
0.535032
0.53565
0.53619
0.536652
0.537037
0.537346
0.537582
0.537745
0.537838
0.537864
0.537826
0.537726
0.537568
0.537354
0.537087
0.536771
0.536409
0.536002
0.535554
0.535068
0.534546
0.53399
0.533403
0.532787
0.532144
0.531475
0.530784
0.530072
0.529339
0.528589
0.527821
0.527039
0.526242
0.525432
0.52461
0.523777
0.522934
0.522083
0.521223
0.520355
0.519481
0.518601
0.517715
0.516825
0.51593
0.515031
0.514129
0.513223
0.512315
0.511405
0.510492
0.509578
0.508663
0.507746
0.506828
0.50591
0.504991
0.504071
0.503152
0.502232
0.501312
0.500393
0.499473
0.498554
0.497636
0.496718
0.4958
0.494884
0.493967
0.493052
0.492137
0.491223
0.49031
0.489397
0.488486
0.487575
0.486665
0.485755
0.484846
0.483938
0.483031
0.482124
0.481217
0.480311
0.479406
0.478501
0.477596
0.476691
0.475786
0.474881
0.473976
0.47307
0.472164
0.471258
0.47035
0.469442
0.468532
0.46762
0.466707
0.465792
0.464874
0.463953
0.463029
0.462101
0.461169
0.460232
0.459289
0.458338
0.45738
0.456413
0.455434
0.454443
0.453437
0.452412
0.451366
0.450294
0.449191
0.448049
0.44686
0.445613
0.444293
0.442882
0.441354
0.439674
0.437795
0.435644
0.43311
0.430009
0.426009
0.420443
0.411719
0.394822
0.341706
0.0879305
0.00114318
0.0011
0.0011
0.0011
0.0011
0.0011
0.0011
0.0011
0.0011
0.0011
0.0011
0.0011
0.0011
0.0011
0.0011
0.0011
0.0011
0.0011
0.0011
0.0011
0.0011
0.0011
0.0011
0.0011
0.0011
0.0011
0.0011
0.0011
0.0011
0.0011
0.0011
0.0011
0.0011
0.0011
0.0011
0.0011
0.0011
0.0011
0.0011
0.0011
0.0011
0.53649
0.537636
0.538703
0.539686
0.540582
0.541386
0.542099
0.542719
0.543248
0.543685
0.544033
0.544294
0.544471
0.544568
0.544588
0.544534
0.54441
0.54422
0.543968
0.543657
0.543291
0.542874
0.542409
0.5419
0.541349
0.540759
0.540133
0.539475
0.538786
0.538069
0.537325
0.536558
0.535769
0.53496
0.534133
0.533288
0.532429
0.531555
0.530668
0.52977
0.528862
0.527944
0.527017
0.526083
0.525142
0.524195
0.523243
0.522286
0.521324
0.520359
0.519391
0.51842
0.517447
0.516472
0.515495
0.514518
0.513539
0.512559
0.511579
0.510599
0.509619
0.508639
0.50766
0.50668
0.505702
0.504724
0.503748
0.502772
0.501797
0.500823
0.499851
0.498879
0.497909
0.496941
0.495973
0.495007
0.494042
0.493079
0.492117
0.491157
0.490197
0.48924
0.488283
0.487328
0.486373
0.48542
0.484469
0.483518
0.482568
0.481619
0.480671
0.479724
0.478777
0.477831
0.476885
0.475939
0.474994
0.474048
0.473103
0.472156
0.47121
0.470262
0.469313
0.468363
0.467411
0.466457
0.4655
0.46454
0.463577
0.46261
0.461638
0.460661
0.459676
0.458685
0.457684
0.456673
0.455649
0.45461
0.453555
0.452478
0.451377
0.450245
0.449078
0.447866
0.446599
0.445265
0.443847
0.442322
0.44066
0.438819
0.436736
0.434319
0.431415
0.427762
0.422852
0.415561
0.402766
0.371265
0.206675
0.00423032
0.0011
0.0011
0.0011
0.0011
0.0011
0.0011
0.0011
0.0011
0.0011
0.0011
0.0011
0.0011
0.0011
0.0011
0.0011
0.0011
0.0011
0.0011
0.0011
0.0011
0.0011
0.0011
0.0011
0.0011
0.0011
0.0011
0.0011
0.0011
0.0011
0.0011
0.0011
0.0011
0.0011
0.0011
0.0011
0.0011
0.0011
0.0011
0.0011
0.0011
0.541813
0.543144
0.544383
0.545522
0.546556
0.547483
0.5483
0.549007
0.549604
0.550095
0.550481
0.550766
0.550954
0.551049
0.551056
0.550979
0.550823
0.550593
0.550294
0.54993
0.549506
0.549026
0.548495
0.547915
0.547291
0.546626
0.545923
0.545187
0.544418
0.54362
0.542796
0.541948
0.541078
0.540188
0.53928
0.538355
0.537415
0.536462
0.535497
0.534521
0.533536
0.532542
0.53154
0.530532
0.529517
0.528498
0.527474
0.526446
0.525416
0.524382
0.523346
0.522309
0.52127
0.520231
0.519191
0.51815
0.51711
0.516069
0.51503
0.513991
0.512952
0.511915
0.510879
0.509845
0.508812
0.50778
0.50675
0.505722
0.504696
0.503671
0.502648
0.501628
0.500609
0.499592
0.498577
0.497565
0.496554
0.495545
0.494538
0.493533
0.492531
0.49153
0.49053
0.489533
0.488537
0.487543
0.486551
0.485561
0.484571
0.483583
0.482597
0.481612
0.480627
0.479644
0.478662
0.47768
0.476699
0.475718
0.474737
0.473756
0.472775
0.471794
0.470812
0.469829
0.468844
0.467858
0.466869
0.465878
0.464884
0.463886
0.462883
0.461876
0.460862
0.45984
0.458811
0.457771
0.456719
0.455652
0.45457
0.453467
0.452341
0.451185
0.449996
0.448765
0.447482
0.446137
0.444713
0.443191
0.441544
0.439734
0.437707
0.435384
0.432635
0.429246
0.424817
0.418512
0.408214
0.386492
0.301089
0.0333615
0.00110047
0.0011
0.0011
0.0011
0.0011
0.0011
0.0011
0.0011
0.0011
0.0011
0.0011
0.0011
0.0011
0.0011
0.0011
0.0011
0.0011
0.0011
0.0011
0.0011
0.0011
0.0011
0.0011
0.0011
0.0011
0.0011
0.0011
0.0011
0.0011
0.0011
0.0011
0.0011
0.0011
0.0011
0.0011
0.0011
0.0011
0.0011
0.0011
0.0011
0.546821
0.548363
0.549795
0.551109
0.552299
0.553361
0.554292
0.555093
0.555765
0.55631
0.556734
0.557039
0.557233
0.55732
0.557306
0.557197
0.557
0.556721
0.556365
0.555938
0.555446
0.554893
0.554285
0.553626
0.552921
0.552173
0.551386
0.550563
0.549709
0.548825
0.547915
0.546981
0.546025
0.54505
0.544058
0.54305
0.542029
0.540995
0.53995
0.538895
0.537832
0.536762
0.535685
0.534603
0.533517
0.532426
0.531332
0.530236
0.529138
0.528038
0.526937
0.525836
0.524735
0.523634
0.522533
0.521433
0.520335
0.519237
0.518141
0.517047
0.515955
0.514865
0.513776
0.51269
0.511607
0.510525
0.509447
0.50837
0.507297
0.506225
0.505157
0.504091
0.503028
0.501968
0.50091
0.499855
0.498802
0.497752
0.496705
0.49566
0.494618
0.493578
0.492541
0.491505
0.490473
0.489442
0.488413
0.487387
0.486362
0.485339
0.484318
0.483299
0.482281
0.481265
0.480249
0.479235
0.478222
0.47721
0.476198
0.475186
0.474175
0.473163
0.472151
0.471139
0.470125
0.46911
0.468093
0.467074
0.466052
0.465026
0.463997
0.462962
0.461921
0.460874
0.459818
0.458753
0.457676
0.456586
0.45548
0.454354
0.453206
0.452031
0.450822
0.449575
0.448279
0.446924
0.445496
0.443977
0.442342
0.440559
0.438578
0.436331
0.433707
0.430525
0.426462
0.420867
0.412213
0.395795
0.346686
0.105991
0.00120853
0.0011
0.0011
0.0011
0.0011
0.0011
0.0011
0.0011
0.0011
0.0011
0.0011
0.0011
0.0011
0.0011
0.0011
0.0011
0.0011
0.0011
0.0011
0.0011
0.0011
0.0011
0.0011
0.0011
0.0011
0.0011
0.0011
0.0011
0.0011
0.0011
0.0011
0.0011
0.0011
0.0011
0.0011
0.0011
0.0011
0.0011
0.0011
0.0011
0.55153
0.553311
0.554964
0.556477
0.557842
0.559055
0.560112
0.561015
0.561765
0.562367
0.562825
0.563147
0.563339
0.563409
0.563365
0.563215
0.562965
0.562625
0.562201
0.5617
0.561128
0.560492
0.559797
0.559049
0.558253
0.557413
0.556534
0.555619
0.554673
0.553697
0.552696
0.551672
0.550628
0.549565
0.548487
0.547394
0.546289
0.545174
0.544049
0.542916
0.541776
0.54063
0.53948
0.538325
0.537168
0.536008
0.534847
0.533685
0.532522
0.531359
0.530196
0.529035
0.527874
0.526715
0.525558
0.524402
0.523249
0.522099
0.520951
0.519805
0.518663
0.517523
0.516387
0.515253
0.514123
0.512997
0.511873
0.510753
0.509636
0.508523
0.507413
0.506306
0.505203
0.504103
0.503006
0.501913
0.500823
0.499736
0.498652
0.497571
0.496494
0.495419
0.494347
0.493278
0.492212
0.491148
0.490087
0.489028
0.487972
0.486918
0.485866
0.484816
0.483768
0.482722
0.481677
0.480634
0.479592
0.478552
0.477512
0.476472
0.475434
0.474395
0.473356
0.472317
0.471278
0.470237
0.469194
0.46815
0.467103
0.466053
0.464999
0.46394
0.462876
0.461805
0.460727
0.459639
0.45854
0.457428
0.456301
0.455155
0.453988
0.452795
0.45157
0.450308
0.449001
0.447638
0.446207
0.44469
0.443067
0.441306
0.439364
0.43718
0.434658
0.431642
0.427863
0.4228
0.415295
0.402126
0.369605
0.202755
0.00408257
0.0011
0.0011
0.0011
0.0011
0.0011
0.0011
0.0011
0.0011
0.0011
0.0011
0.0011
0.0011
0.0011
0.0011
0.0011
0.0011
0.0011
0.0011
0.0011
0.0011
0.0011
0.0011
0.0011
0.0011
0.0011
0.0011
0.0011
0.0011
0.0011
0.0011
0.0011
0.0011
0.0011
0.0011
0.0011
0.0011
0.0011
0.0011
0.0011
0.555947
0.558003
0.559908
0.561649
0.563213
0.564596
0.565793
0.566807
0.567639
0.568297
0.568787
0.569118
0.5693
0.569342
0.569255
0.569049
0.568734
0.568318
0.567812
0.567223
0.566559
0.565827
0.565035
0.564188
0.563292
0.562353
0.561374
0.56036
0.559316
0.558244
0.557148
0.556031
0.554895
0.553744
0.552578
0.5514
0.550211
0.549014
0.54781
0.5466
0.545384
0.544165
0.542943
0.541719
0.540494
0.539268
0.538043
0.536817
0.535593
0.534371
0.53315
0.531931
0.530716
0.529502
0.528292
0.527085
0.525882
0.524682
0.523486
0.522294
0.521105
0.519921
0.51874
0.517564
0.516392
0.515224
0.51406
0.5129
0.511744
0.510592
0.509445
0.508301
0.507162
0.506026
0.504895
0.503767
0.502643
0.501523
0.500406
0.499293
0.498184
0.497078
0.495975
0.494876
0.49378
0.492687
0.491596
0.490509
0.489425
0.488343
0.487263
0.486186
0.485111
0.484038
0.482967
0.481898
0.48083
0.479764
0.478699
0.477635
0.476572
0.475509
0.474446
0.473383
0.47232
0.471256
0.470191
0.469123
0.468054
0.466982
0.465906
0.464825
0.46374
0.462648
0.461549
0.460441
0.459322
0.458191
0.457045
0.455881
0.454697
0.453488
0.452249
0.450975
0.449657
0.448287
0.446853
0.445339
0.443725
0.441984
0.440075
0.437945
0.435507
0.432628
0.429076
0.424422
0.417755
0.406726
0.382812
0.283153
0.0234999
0.0011001
0.0011
0.0011
0.0011
0.0011
0.0011
0.0011
0.0011
0.0011
0.0011
0.0011
0.0011
0.0011
0.0011
0.0011
0.0011
0.0011
0.0011
0.0011
0.0011
0.0011
0.0011
0.0011
0.0011
0.0011
0.0011
0.0011
0.0011
0.0011
0.0011
0.0011
0.0011
0.0011
0.0011
0.0011
0.0011
0.0011
0.0011
0.0011
0.560305
0.562697
0.564913
0.566933
0.568741
0.570329
0.571693
0.572835
0.573759
0.574474
0.57499
0.57532
0.575477
0.575474
0.575324
0.575041
0.574637