/*--------------------------------*- C++ -*----------------------------------*\
  =========                 |
  \\      /  F ield         | OpenFOAM: The Open Source CFD Toolbox
   \\    /   O peration     | Website:  https://openfoam.org
    \\  /    A nd           | Version:  10
     \\/     M anipulation  |
\*---------------------------------------------------------------------------*/
FoamFile
{
    format      ascii;
    class       volScalarField;
    location    "48";
    object      p;
}
// * * * * * * * * * * * * * * * * * * * * * * * * * * * * * * * * * * * * * //

dimensions      [1 -1 -2 0 0 0 0];

internalField   nonuniform List<scalar> 
100
(
1.02576e+07
1.02572e+07
1.02567e+07
1.02561e+07
1.02554e+07
1.02546e+07
1.02538e+07
1.02528e+07
1.02519e+07
1.02509e+07
1.02498e+07
1.02486e+07
1.02475e+07
1.02462e+07
1.02449e+07
1.02436e+07
1.02422e+07
1.02408e+07
1.02394e+07
1.02379e+07
1.02363e+07
1.02347e+07
1.02331e+07
1.02315e+07
1.02298e+07
1.0228e+07
1.02262e+07
1.02244e+07
1.02226e+07
1.02207e+07
1.02188e+07
1.02168e+07
1.02148e+07
1.02128e+07
1.02107e+07
1.02086e+07
1.02065e+07
1.02043e+07
1.02021e+07
1.01999e+07
1.01976e+07
1.01953e+07
1.0193e+07
1.01906e+07
1.01882e+07
1.01858e+07
1.01833e+07
1.01808e+07
1.01783e+07
1.01757e+07
1.01732e+07
1.01705e+07
1.01679e+07
1.01652e+07
1.01625e+07
1.01598e+07
1.0157e+07
1.01542e+07
1.01514e+07
1.01485e+07
1.01456e+07
1.01427e+07
1.01398e+07
1.01368e+07
1.01338e+07
1.01307e+07
1.01277e+07
1.01246e+07
1.01214e+07
1.01183e+07
1.01151e+07
1.01119e+07
1.01086e+07
1.01053e+07
1.0102e+07
1.00986e+07
1.00953e+07
1.00918e+07
1.00884e+07
1.00849e+07
1.00814e+07
1.00778e+07
1.00742e+07
1.00706e+07
1.00669e+07
1.00632e+07
1.00594e+07
1.00555e+07
1.00516e+07
1.00475e+07
1.00434e+07
1.0039e+07
1.00341e+07
1.00279e+07
1.0022e+07
1.0018e+07
1.0014e+07
1.001e+07
1.0006e+07
1.0002e+07
)
;

boundaryField
{
    inlet
    {
        type            zeroGradient;
    }
    outlet
    {
        type            fixedValue;
        value           uniform 1e+07;
    }
    yzfaces
    {
        type            empty;
    }
}


// ************************************************************************* //
