/*--------------------------------*- C++ -*----------------------------------*\
  =========                 |
  \\      /  F ield         | OpenFOAM: The Open Source CFD Toolbox
   \\    /   O peration     | Website:  https://openfoam.org
    \\  /    A nd           | Version:  10
     \\/     M anipulation  |
\*---------------------------------------------------------------------------*/
FoamFile
{
    format      ascii;
    class       surfaceScalarField;
    location    "1.3";
    object      phi;
}
// * * * * * * * * * * * * * * * * * * * * * * * * * * * * * * * * * * * * * //

dimensions      [0 3 -1 0 0 0 0];

internalField   nonuniform List<scalar> 
24170
(
1.42779e-09
-1.42779e-09
2.6509e-09
-1.22311e-09
3.62082e-09
-9.69921e-10
4.35619e-09
-7.35376e-10
4.90474e-09
-5.48548e-10
5.31797e-09
-4.13232e-10
5.64032e-09
-3.22347e-10
5.90684e-09
-2.66521e-10
6.14466e-09
-2.37819e-10
6.3756e-09
-2.30943e-10
6.61916e-09
-2.43553e-10
6.89585e-09
-2.76692e-10
7.23204e-09
-3.36185e-10
7.66879e-09
-4.36755e-10
8.28319e-09
-6.14401e-10
9.25372e-09
-9.7053e-10
1.11332e-08
-1.87947e-09
-5.35809e-09
1.64913e-08
1.62724e-09
-3.05503e-09
3.01495e-09
-2.61082e-09
4.10834e-09
-2.06332e-09
4.93124e-09
-1.55827e-09
5.54033e-09
-1.15764e-09
5.99569e-09
-8.68593e-10
6.3485e-09
-6.7516e-10
6.63875e-09
-5.56766e-10
6.89706e-09
-4.96135e-10
7.14786e-09
-4.81741e-10
7.41267e-09
-5.08365e-10
7.71383e-09
-5.7785e-10
8.0794e-09
-7.01755e-10
8.5517e-09
-9.09053e-10
9.20538e-09
-1.26808e-09
1.01903e-08
-1.95545e-09
1.18126e-08
-3.50172e-09
-7.69422e-09
1.41487e-08
1.82468e-09
-4.8797e-09
3.37138e-09
-4.15752e-09
4.57983e-09
-3.27177e-09
5.48106e-09
-2.4595e-09
6.14218e-09
-1.81876e-09
6.63237e-09
-1.35878e-09
7.00949e-09
-1.05229e-09
7.31812e-09
-8.65399e-10
7.59196e-09
-7.69975e-10
7.85745e-09
-7.47231e-10
8.13744e-09
-7.88356e-10
8.45492e-09
-8.95321e-10
8.83742e-09
-1.08426e-09
9.32348e-09
-1.39511e-09
9.97234e-09
-1.91694e-09
1.08712e-08
-2.85428e-09
1.20649e-08
-4.69542e-09
-8.49334e-09
1.2864e-08
2.04397e-09
-6.92367e-09
3.76203e-09
-5.87559e-09
5.08895e-09
-4.59869e-09
6.06662e-09
-3.43716e-09
6.77568e-09
-2.52782e-09
7.29615e-09
-1.87925e-09
7.6933e-09
-1.44944e-09
8.0164e-09
-1.1885e-09
8.30199e-09
-1.05556e-09
8.57812e-09
-1.02336e-09
8.86828e-09
-1.07852e-09
9.19494e-09
-1.22198e-09
9.58293e-09
-1.47225e-09
1.00626e-08
-1.87478e-09
1.06694e-08
-2.52378e-09
1.14225e-08
-3.60733e-09
1.22007e-08
-5.47363e-09
-8.56343e-09
1.22708e-08
2.29892e-09
-9.2226e-09
4.20897e-09
-7.78564e-09
5.66102e-09
-6.05073e-09
6.7136e-09
-4.48974e-09
7.46564e-09
-3.27987e-09
8.01064e-09
-2.42424e-09
8.42232e-09
-1.86112e-09
8.75483e-09
-1.52101e-09
9.04733e-09
-1.34806e-09
9.32901e-09
-1.30504e-09
9.62321e-09
-1.37272e-09
9.95065e-09
-1.54943e-09
1.03315e-08
-1.85305e-09
1.07846e-08
-2.32797e-09
1.13197e-08
-3.05886e-09
1.19016e-08
-4.18918e-09
1.23417e-08
-5.91371e-09
-8.30704e-09
1.20853e-08
2.60475e-09
-1.18273e-08
4.73483e-09
-9.91572e-09
6.31981e-09
-7.63571e-09
7.4439e-09
-5.61383e-09
8.23125e-09
-4.06722e-09
8.79237e-09
-2.98536e-09
9.21079e-09
-2.27955e-09
9.54574e-09
-1.85596e-09
9.83868e-09
-1.64099e-09
1.01193e-08
-1.58562e-09
1.04098e-08
-1.66331e-09
1.07282e-08
-1.8678e-09
1.10883e-08
-2.21308e-09
1.14965e-08
-2.73625e-09
1.19397e-08
-3.502e-09
1.23502e-08
-4.59973e-09
1.25387e-08
-6.1022e-09
-7.91488e-09
1.21465e-08
2.9819e-09
-1.48092e-08
5.36838e-09
-1.23022e-08
7.09355e-09
-9.36087e-09
8.28169e-09
-6.80197e-09
9.09209e-09
-4.87761e-09
9.65695e-09
-3.55023e-09
1.00711e-08
-2.69374e-09
1.0399e-08
-2.18384e-09
1.06838e-08
-1.92574e-09
1.09548e-08
-1.85662e-09
1.12325e-08
-1.94101e-09
1.15307e-08
-2.16606e-09
1.18564e-08
-2.53874e-09
1.22044e-08
-3.0843e-09
1.25452e-08
-3.84276e-09
1.27995e-08
-4.85407e-09
1.28101e-08
-6.11274e-09
-7.47324e-09
1.23684e-08
3.46017e-09
-1.82694e-08
6.14927e-09
-1.49913e-08
8.01885e-09
-1.12305e-08
9.2564e-09
-8.03952e-09
1.00706e-08
-5.69176e-09
1.06211e-08
-4.10082e-09
1.10158e-08
-3.08844e-09
1.13239e-08
-2.49187e-09
1.15893e-08
-2.19117e-09
1.18402e-08
-2.10755e-09
1.20942e-08
-2.19501e-09
1.23606e-08
-2.43237e-09
1.26391e-08
-2.8173e-09
1.29157e-08
-3.36086e-09
1.31518e-08
-4.07892e-09
1.32718e-08
-4.97406e-09
1.31597e-08
-6.00059e-09
-7.01901e-09
1.27055e-08
4.08529e-09
-2.23547e-08
7.13456e-09
-1.80406e-08
9.14496e-09
-1.32409e-08
1.04051e-08
-9.29968e-09
1.11932e-08
-6.47985e-09
1.17037e-08
-4.61128e-09
1.20581e-08
-3.44285e-09
1.23295e-08
-2.76334e-09
1.25616e-08
-2.42323e-09
1.27799e-08
-2.3258e-09
1.2998e-08
-2.41319e-09
1.32204e-08
-2.65471e-09
1.34407e-08
-3.03763e-09
1.36387e-08
-3.55882e-09
1.37739e-08
-4.21415e-09
1.37823e-08
-4.98248e-09
1.3586e-08
-5.80426e-09
-6.56654e-09
1.31335e-08
4.9306e-09
-2.72853e-08
8.40894e-09
-2.15189e-08
1.05394e-08
-1.53714e-08
1.17751e-08
-1.05354e-08
1.24917e-08
-7.1964e-09
1.29255e-08
-5.04513e-09
1.32118e-08
-3.72912e-09
1.34253e-08
-2.97681e-09
1.36068e-08
-2.60474e-09
1.37777e-08
-2.49669e-09
1.39469e-08
-2.58241e-09
1.41135e-08
-2.82135e-09
1.42665e-08
-3.1906e-09
1.43825e-08
-3.67477e-09
1.44238e-08
-4.25552e-09
1.43411e-08
-4.89977e-09
1.40861e-08
-5.54924e-09
-6.12015e-09
1.36397e-08
6.11946e-09
-3.34048e-08
1.01014e-08
-2.55009e-08
1.22958e-08
-1.75657e-08
1.34262e-08
-1.16658e-08
1.40028e-08
-7.77303e-09
1.43094e-08
-5.35172e-09
1.44912e-08
-3.91084e-09
1.46199e-08
-3.10561e-09
1.47304e-08
-2.71522e-09
1.48375e-08
-2.60372e-09
1.4944e-08
-2.68895e-09
1.5044e-08
-2.92132e-09
1.51226e-08
-3.26924e-09
1.5156e-08
-3.70818e-09
1.5112e-08
-4.21149e-09
1.49549e-08
-4.74269e-09
1.46574e-08
-5.25177e-09
-5.67978e-09
1.42171e-08
6.53111e-09
-3.99359e-08
1.03329e-08
-2.93026e-08
1.21384e-08
-1.93712e-08
1.29069e-08
-1.24344e-08
1.32072e-08
-8.07325e-09
1.3314e-08
-5.4585e-09
1.33501e-08
-3.94696e-09
1.33678e-08
-3.12333e-09
1.33874e-08
-2.73484e-09
1.3414e-08
-2.63034e-09
1.34444e-08
-2.71928e-09
1.34691e-08
-2.94609e-09
1.34737e-08
-3.27382e-09
1.34386e-08
-3.67308e-09
1.33412e-08
-4.1141e-09
1.31602e-08
-4.5617e-09
1.28829e-08
-4.97449e-09
-5.31e-09
1.25131e-08
9.70764e-09
-4.96435e-08
1.45297e-08
-3.41246e-08
1.63435e-08
-2.1185e-08
1.68479e-08
-1.29389e-08
1.68733e-08
-8.09866e-09
1.67577e-08
-5.34284e-09
1.66253e-08
-3.81457e-09
1.65159e-08
-3.01395e-09
1.64367e-08
-2.65564e-09
1.63819e-08
-2.57556e-09
1.63399e-08
-2.67721e-09
1.62949e-08
-2.90114e-09
1.62283e-08
-3.20723e-09
1.61191e-08
-3.56386e-09
1.59463e-08
-3.94129e-09
1.56932e-08
-4.30861e-09
1.53529e-08
-4.63421e-09
-4.88968e-09
1.49326e-08
1.56737e-08
-6.53172e-08
2.14494e-08
-3.99004e-08
2.26326e-08
-2.23682e-08
2.2352e-08
-1.26583e-08
2.176e-08
-7.50665e-09
2.12038e-08
-4.78666e-09
2.07606e-08
-3.37135e-09
2.04265e-08
-2.67988e-09
2.01774e-08
-2.40653e-09
1.99861e-08
-2.38431e-09
1.98266e-08
-2.51774e-09
1.96741e-08
-2.74857e-09
1.95045e-08
-3.03765e-09
1.92955e-08
-3.35488e-09
1.90283e-08
-3.67402e-09
1.86903e-08
-3.9707e-09
1.82791e-08
-4.22302e-09
-4.41379e-09
1.78032e-08
2.8671e-08
-9.39882e-08
3.3721e-08
-4.49504e-08
3.23373e-08
-2.09845e-08
3.01161e-08
-1.04371e-08
2.8273e-08
-5.66356e-09
2.69187e-08
-3.43231e-09
2.59493e-08
-2.40193e-09
2.52508e-08
-1.98145e-09
2.47344e-08
-1.89006e-09
2.43341e-08
-1.98407e-09
2.40007e-08
-2.1843e-09
2.36954e-08
-2.44329e-09
2.33872e-08
-2.72944e-09
2.30515e-08
-3.01915e-09
2.26706e-08
-3.29311e-09
2.2235e-08
-3.53509e-09
2.17441e-08
-3.7322e-09
-3.87581e-09
2.12062e-08
6.32664e-08
-1.57255e-07
5.67864e-08
-3.84703e-08
4.72476e-08
-1.14457e-08
4.07836e-08
-3.97312e-09
3.6697e-08
-1.5769e-09
3.40661e-08
-8.01463e-10
3.23101e-08
-6.4591e-10
3.10888e-08
-7.60181e-10
3.0199e-08
-1.00028e-09
2.95134e-08
-1.2984e-09
2.89479e-08
-1.61878e-09
2.84446e-08
-1.94e-09
2.79627e-08
-2.24754e-09
2.74738e-08
-2.53031e-09
2.69601e-08
-2.77942e-09
2.6413e-08
-2.98792e-09
2.58319e-08
-3.15114e-09
-3.26703e-09
2.52231e-08
1.83352e-07
1.59134e-07
9.72556e-08
4.76256e-08
6.70223e-08
1.87877e-08
5.36574e-08
9.39177e-09
4.6635e-08
5.44546e-09
4.24789e-08
3.35469e-09
3.98034e-08
2.02956e-09
3.79639e-08
1.07934e-09
3.66225e-08
3.41126e-10
3.55825e-08
-2.58427e-10
3.47229e-08
-7.59192e-10
3.3969e-08
-1.18609e-09
3.32715e-08
-1.55003e-09
3.25983e-08
-1.85709e-09
3.19298e-08
-2.11093e-09
3.12561e-08
-2.31426e-09
3.05747e-08
-2.46973e-09
-2.58053e-09
2.98882e-08
7.72637e-08
8.18702e-08
7.55264e-08
4.93628e-08
6.55468e-08
2.87673e-08
5.75867e-08
1.73519e-08
5.21136e-08
1.09185e-08
4.83889e-08
7.07935e-09
4.57872e-08
4.63135e-09
4.38971e-08
2.96942e-09
4.24594e-08
1.77883e-09
4.13124e-08
8.88568e-10
4.03522e-08
2.01041e-10
3.95009e-08
-3.34803e-10
3.8711e-08
-7.60168e-10
3.79551e-08
-1.10117e-09
3.72166e-08
-1.37251e-09
3.64873e-08
-1.58486e-09
3.5764e-08
-1.74653e-09
-1.86444e-09
3.5048e-08
3.59843e-08
4.58859e-08
5.01794e-08
3.51677e-08
5.38879e-08
2.50588e-08
5.37404e-08
1.74994e-08
5.24482e-08
1.22107e-08
5.09785e-08
8.54903e-09
4.96273e-08
5.98259e-09
4.84511e-08
4.14563e-09
4.74299e-08
2.80005e-09
4.65257e-08
1.79274e-09
4.57021e-08
1.02462e-09
4.49366e-08
4.30704e-10
4.42089e-08
-3.24354e-11
4.34977e-08
-3.89981e-10
4.27955e-08
-6.7028e-10
4.20988e-08
-8.88237e-10
4.14075e-08
-1.05521e-09
-1.18015e-09
4.07232e-08
1.4336e-08
3.15499e-08
2.33249e-08
2.61788e-08
2.81339e-08
2.02498e-08
3.04874e-08
1.5146e-08
3.15402e-08
1.11579e-08
3.19312e-08
8.15807e-09
3.19878e-08
5.92596e-09
3.18725e-08
4.26098e-09
3.16642e-08
3.00829e-09
3.14014e-08
2.05557e-09
3.11027e-08
1.32329e-09
3.0778e-08
7.55446e-10
3.04332e-08
3.12391e-10
3.0077e-08
-3.38187e-11
2.97075e-08
-3.00768e-10
2.93281e-08
-5.08903e-10
2.89425e-08
-6.69554e-10
-7.91559e-10
2.85539e-08
8.58345e-09
2.29664e-08
1.49762e-08
1.97861e-08
1.92164e-08
1.60097e-08
2.18771e-08
1.24852e-08
2.35029e-08
9.53213e-09
2.44783e-08
7.18265e-09
2.50471e-08
5.35716e-09
2.53571e-08
3.95091e-09
2.54974e-08
2.86808e-09
2.55217e-08
2.03122e-09
2.54639e-08
1.38112e-09
2.53458e-08
8.7356e-10
2.51824e-08
4.75779e-10
2.49851e-08
1.63493e-10
2.47646e-08
-8.02984e-11
2.45247e-08
-2.68974e-10
2.42707e-08
-4.15567e-10
-5.2811e-10
2.40072e-08
5.78751e-09
1.71789e-08
1.04707e-08
1.51029e-08
1.39313e-08
1.25491e-08
1.63678e-08
1.00487e-08
1.80425e-08
7.85744e-09
1.91787e-08
6.04652e-09
1.99402e-08
4.59566e-09
2.04401e-08
3.45096e-09
2.07548e-08
2.55338e-09
2.09357e-08
1.85032e-09
2.10181e-08
1.2988e-09
2.10265e-08
8.65141e-10
2.09788e-08
5.23486e-10
2.08882e-08
2.54108e-10
2.07659e-08
4.1956e-11
2.06197e-08
-1.22781e-10
2.04552e-08
-2.51033e-10
-3.50298e-10
2.02774e-08
4.20752e-09
1.29714e-08
7.76903e-09
1.15413e-08
1.05681e-08
9.74995e-09
1.26732e-08
7.94365e-09
1.42171e-08
6.31349e-09
1.53328e-08
4.93089e-09
1.61294e-08
3.79898e-09
1.66902e-08
2.89023e-09
1.70757e-08
2.16786e-09
1.733e-08
1.59603e-09
1.74849e-08
1.14382e-09
1.7564e-08
7.8604e-10
1.75848e-08
5.02768e-10
1.75604e-08
2.78476e-10
1.75013e-08
1.01099e-10
1.74166e-08
-3.81707e-11
1.73118e-08
-1.46222e-10
-2.30385e-10
1.71919e-08
3.21444e-09
9.75697e-09
6.00858e-09
8.74721e-09
8.28896e-09
7.46957e-09
1.00756e-08
6.15705e-09
1.14399e-08
4.94918e-09
1.24644e-08
3.90635e-09
1.32239e-08
3.03953e-09
1.37793e-08
2.3348e-09
1.41783e-08
1.7689e-09
1.4457e-08
1.3173e-09
1.46429e-08
9.57878e-10
1.47569e-08
6.72045e-10
1.48149e-08
4.44776e-10
1.48292e-08
2.64159e-10
1.48095e-08
1.20826e-10
1.47639e-08
7.43507e-12
1.46983e-08
-8.06325e-11
-1.49507e-10
1.46174e-08
2.53945e-09
7.21752e-09
4.78372e-09
6.50294e-09
6.65992e-09
5.59336e-09
8.16939e-09
4.64757e-09
9.35286e-09
3.7657e-09
1.02642e-08
2.99497e-09
1.09564e-08
2.34742e-09
1.1475e-08
1.81619e-09
1.18575e-08
1.38641e-09
1.21334e-08
1.04134e-09
1.2326e-08
7.65326e-10
1.24531e-08
5.44911e-10
1.25289e-08
3.69032e-10
1.25642e-08
2.28806e-10
1.25679e-08
1.17177e-10
1.25467e-08
2.85585e-11
1.25069e-08
-4.08031e-11
-9.49603e-11
1.24524e-08
2.0523e-09
5.16522e-09
3.88558e-09
4.66966e-09
5.44251e-09
4.03644e-09
6.71736e-09
3.37272e-09
7.73471e-09
2.74836e-09
8.53161e-09
2.19806e-09
9.1468e-09
1.73223e-09
9.61538e-09
1.3476e-09
9.96708e-09
1.03471e-09
1.02261e-08
7.8233e-10
1.04118e-08
5.79663e-10
1.05394e-08
4.17274e-10
1.06211e-08
2.8731e-10
1.06665e-08
1.83402e-10
1.06832e-08
1.00457e-10
1.06774e-08
3.44182e-11
1.06542e-08
-1.76167e-11
-5.81639e-11
1.06174e-08
1.6835e-09
3.48172e-09
3.19803e-09
3.15514e-09
4.49774e-09
2.73672e-09
5.57464e-09
2.29582e-09
6.44443e-09
1.87857e-09
7.13381e-09
1.50868e-09
7.67213e-09
1.19392e-09
8.08693e-09
9.32801e-10
8.40212e-09
7.19523e-10
8.63757e-09
5.4688e-10
8.80942e-09
4.07813e-10
8.93062e-09
2.96074e-10
9.01151e-09
2.06416e-10
9.06035e-09
1.34558e-10
9.08376e-09
7.70566e-11
9.08702e-09
3.11574e-11
9.07463e-09
-5.2274e-12
-3.34815e-11
9.04994e-09
1.39262e-09
2.0891e-09
2.65142e-09
1.89634e-09
3.73924e-09
1.6489e-09
4.64783e-09
1.38722e-09
5.38781e-09
1.13859e-09
5.9792e-09
9.17295e-10
6.44484e-09
7.28275e-10
6.80671e-09
5.70937e-10
7.0842e-09
4.42028e-10
7.29369e-09
3.37388e-10
7.44862e-09
2.52883e-10
7.55988e-09
1.84821e-10
7.63621e-09
1.30086e-10
7.68465e-09
8.6119e-11
7.71085e-09
5.0857e-11
7.71936e-09
2.26458e-11
7.71396e-09
1.70673e-13
-1.7203e-11
7.69768e-09
1.15312e-09
9.35976e-10
2.19882e-09
8.5065e-10
3.10677e-09
7.40949e-10
3.86934e-09
6.24652e-10
4.49408e-09
5.13846e-10
4.99643e-09
4.1495e-10
5.39445e-09
3.30248e-10
5.70583e-09
2.59562e-10
5.94635e-09
2.01507e-10
6.12946e-09
1.54274e-10
6.2663e-09
1.16047e-10
6.36593e-09
8.51933e-11
6.43568e-09
6.03299e-11
6.48148e-09
4.03173e-11
6.50811e-09
2.42338e-11
6.51941e-09
1.13384e-11
6.51855e-09
1.03656e-12
-6.78363e-12
6.50813e-09
9.35976e-10
1.78663e-09
2.52757e-09
3.15223e-09
3.66607e-09
4.08102e-09
4.41127e-09
4.67083e-09
4.87234e-09
5.02661e-09
5.14266e-09
5.22785e-09
5.28818e-09
5.3285e-09
5.35273e-09
5.36407e-09
5.36511e-09
5.35833e-09
4.46233e-10
-4.46233e-10
8.94322e-10
-4.48089e-10
1.34303e-09
-4.48707e-10
1.79111e-09
-4.48077e-10
2.23734e-09
-4.46234e-10
2.68062e-09
-4.43281e-10
3.11996e-09
-4.39341e-10
3.55446e-09
-4.34496e-10
3.9832e-09
-4.28737e-10
4.40514e-09
-4.21949e-10
4.8191e-09
-4.13957e-10
5.22372e-09
-4.04622e-10
5.61762e-09
-3.93901e-10
5.99949e-09
-3.81862e-10
6.36812e-09
-3.68635e-10
6.72249e-09
-3.54365e-10
7.06167e-09
-3.39182e-10
7.38488e-09
-3.23209e-10
7.69146e-09
-3.06579e-10
7.9809e-09
-2.89447e-10
8.25289e-09
-2.71991e-10
8.50729e-09
-2.54398e-10
8.74415e-09
-2.36854e-10
8.96368e-09
-2.1953e-10
9.16625e-09
-2.02574e-10
9.35236e-09
-1.86114e-10
9.52262e-09
-1.70252e-10
9.67769e-09
-1.55073e-10
9.81833e-09
-1.40642e-10
9.94534e-09
-1.27008e-10
1.00595e-08
-1.14204e-10
1.01618e-08
-1.02251e-10
1.0253e-08
-9.11556e-11
1.03339e-08
-8.09117e-11
1.04054e-08
-7.15023e-11
1.04683e-08
-6.29009e-11
1.05233e-08
-5.50727e-11
1.05713e-08
-4.79772e-11
1.06129e-08
-4.15691e-11
1.06487e-08
-3.58012e-11
1.06793e-08
-3.06248e-11
1.07053e-08
-2.59913e-11
1.07272e-08
-2.18535e-11
1.07453e-08
-1.81662e-11
1.07602e-08
-1.48858e-11
1.07722e-08
-1.19727e-11
1.07816e-08
-9.38913e-12
1.07887e-08
-7.10075e-12
1.07937e-08
-5.07612e-12
1.0797e-08
-3.28703e-12
1.07987e-08
-1.70726e-12
1.07991e-08
-3.13884e-13
1.07981e-08
9.14279e-13
1.07961e-08
1.99553e-12
1.07932e-08
2.94699e-12
1.07894e-08
3.78348e-12
1.07849e-08
4.518e-12
1.07797e-08
5.16291e-12
1.0774e-08
5.72835e-12
1.07678e-08
6.22392e-12
1.07611e-08
6.65796e-12
1.07541e-08
7.0378e-12
1.07467e-08
7.37002e-12
1.07391e-08
7.6607e-12
1.07311e-08
7.91483e-12
1.0723e-08
8.13713e-12
1.07147e-08
8.3317e-12
1.07062e-08
8.50217e-12
1.06975e-08
8.65157e-12
1.06887e-08
8.78323e-12
1.06798e-08
8.89908e-12
1.06708e-08
9.00173e-12
1.06617e-08
9.09315e-12
1.06526e-08
9.17487e-12
1.06433e-08
9.2486e-12
1.0634e-08
9.31547e-12
1.06246e-08
9.37686e-12
1.06152e-08
9.43357e-12
1.06057e-08
9.48681e-12
1.05962e-08
9.53704e-12
1.05866e-08
9.58514e-12
1.05769e-08
9.63169e-12
1.05673e-08
9.67699e-12
1.05576e-08
9.72167e-12
1.05478e-08
9.76601e-12
1.0538e-08
9.81051e-12
1.05281e-08
9.85514e-12
1.05182e-08
9.90044e-12
1.05083e-08
9.94638e-12
1.04983e-08
9.99313e-12
1.04882e-08
1.0041e-11
1.04781e-08
1.00899e-11
1.0468e-08
1.01402e-11
1.04578e-08
1.01915e-11
1.04476e-08
1.02444e-11
1.04373e-08
1.02985e-11
1.04269e-08
1.0354e-11
1.04165e-08
1.04111e-11
1.0406e-08
1.04695e-11
1.03955e-08
1.05294e-11
1.03849e-08
1.05906e-11
1.03743e-08
1.06535e-11
1.03635e-08
1.07176e-11
1.03528e-08
1.07833e-11
1.03419e-08
1.08502e-11
1.0331e-08
1.09187e-11
1.032e-08
1.09885e-11
1.03089e-08
1.10597e-11
1.02978e-08
1.11322e-11
1.02866e-08
1.1206e-11
1.02753e-08
1.12811e-11
1.0264e-08
1.13575e-11
1.02525e-08
1.14351e-11
1.0241e-08
1.1514e-11
1.02294e-08
1.1594e-11
1.02178e-08
1.16754e-11
1.0206e-08
1.17577e-11
1.01942e-08
1.18415e-11
1.01822e-08
1.19262e-11
1.01702e-08
1.20122e-11
1.01581e-08
1.20991e-11
1.01459e-08
1.21873e-11
1.01337e-08
1.22764e-11
1.01213e-08
1.23667e-11
1.01088e-08
1.24581e-11
1.00963e-08
1.25504e-11
1.00836e-08
1.26439e-11
1.00709e-08
1.27383e-11
1.00581e-08
1.28338e-11
1.00451e-08
1.29304e-11
1.00321e-08
1.30279e-11
1.0019e-08
1.31266e-11
1.00058e-08
1.32261e-11
9.99242e-09
1.33268e-11
9.97899e-09
1.34285e-11
9.96546e-09
1.35313e-11
9.95183e-09
1.36351e-11
9.93809e-09
1.37401e-11
9.92424e-09
1.38462e-11
9.91029e-09
1.39535e-11
9.89623e-09
1.4062e-11
9.88205e-09
1.41718e-11
9.86777e-09
1.42831e-11
9.85338e-09
1.43958e-11
9.83887e-09
1.45102e-11
9.82424e-09
1.46263e-11
9.80949e-09
1.47445e-11
9.79463e-09
1.48649e-11
9.77964e-09
1.49881e-11
9.76453e-09
1.51144e-11
9.74928e-09
1.52442e-11
9.7339e-09
1.53783e-11
9.71839e-09
1.55178e-11
9.70272e-09
1.56633e-11
9.68691e-09
1.58167e-11
9.67093e-09
1.59796e-11
9.65477e-09
1.61544e-11
9.63843e-09
1.6344e-11
9.62188e-09
1.65524e-11
9.60509e-09
1.67842e-11
9.58805e-09
1.70461e-11
9.5707e-09
1.73463e-11
9.553e-09
1.76957e-11
9.5349e-09
1.81084e-11
9.51629e-09
1.86035e-11
9.49709e-09
1.9206e-11
9.47714e-09
1.99497e-11
9.45626e-09
2.08805e-11
9.43419e-09
2.20619e-11
9.41061e-09
2.35831e-11
9.38504e-09
2.5572e-11
9.35682e-09
2.8218e-11
9.32501e-09
3.18112e-11
9.28819e-09
3.68179e-11
9.24416e-09
4.40353e-11
9.18921e-09
5.49459e-11
9.11656e-09
7.26505e-11
9.01171e-09
1.0485e-10
8.83544e-09
1.7627e-10
4.00978e-10
8.43446e-09
4.51732e-10
-8.97965e-10
9.05267e-10
-9.01623e-10
1.35926e-09
-9.02699e-10
1.81226e-09
-9.01077e-10
2.26278e-09
-8.96757e-10
2.70967e-09
-8.90171e-10
3.15213e-09
-8.81798e-10
3.58964e-09
-8.72011e-10
4.02173e-09
-8.60822e-10
4.44755e-09
-8.47773e-10
4.86576e-09
-8.32161e-10
5.27459e-09
-8.13455e-10
5.67227e-09
-7.91579e-10
6.05726e-09
-7.6685e-10
6.42835e-09
-7.39731e-10
6.78459e-09
-7.10604e-10
7.12512e-09
-6.79713e-10
7.44915e-09
-6.47234e-10
7.75596e-09
-6.13392e-10
8.04502e-09
-5.78507e-10
8.316e-09
-5.42972e-10
8.56881e-09
-5.0721e-10
8.80358e-09
-4.71623e-10
9.02062e-09
-4.3657e-10
9.2204e-09
-4.02349e-10
9.40349e-09
-3.69207e-10
9.57057e-09
-3.37337e-10
9.7224e-09
-3.06895e-10
9.85975e-09
-2.78002e-10
9.9835e-09
-2.50749e-10
1.00945e-08
-2.25199e-10
1.01936e-08
-2.01387e-10
1.02818e-08
-1.7932e-10
1.03599e-08
-1.58982e-10
1.04287e-08
-1.40333e-10
1.04891e-08
-1.23313e-10
1.05419e-08
-1.07847e-10
1.05878e-08
-9.38478e-11
1.06274e-08
-8.12221e-11
1.06615e-08
-6.98703e-11
1.06905e-08
-5.96928e-11
1.07151e-08
-5.05906e-11
1.07358e-08
-4.2468e-11
1.07528e-08
-3.52334e-11
1.07667e-08
-2.88009e-11
1.07779e-08
-2.30898e-11
1.07865e-08
-1.80262e-11
1.07929e-08
-1.3542e-11
1.07974e-08
-9.57525e-12
1.08002e-08
-6.06958e-12
1.08015e-08
-2.97442e-12
1.08014e-08
-2.44248e-13
1.08002e-08
2.16227e-12
1.07979e-08
4.28139e-12
1.07947e-08
6.14614e-12
1.07907e-08
7.78543e-12
1.0786e-08
9.2257e-12
1.07806e-08
1.04897e-11
1.07748e-08
1.15985e-11
1.07684e-08
1.25703e-11
1.07617e-08
1.34213e-11
1.07545e-08
1.41663e-11
1.07471e-08
1.48181e-11
1.07394e-08
1.53882e-11
1.07314e-08
1.58869e-11
1.07232e-08
1.6323e-11
1.07148e-08
1.67048e-11
1.07063e-08
1.70393e-11
1.06976e-08
1.7333e-11
1.06888e-08
1.75912e-11
1.06799e-08
1.78191e-11
1.06709e-08
1.80209e-11
1.06618e-08
1.82005e-11
1.06526e-08
1.83616e-11
1.06433e-08
1.85066e-11
1.0634e-08
1.86386e-11
1.06246e-08
1.87597e-11
1.06152e-08
1.8872e-11
1.06057e-08
1.89771e-11
1.05961e-08
1.90768e-11
1.05865e-08
1.91721e-11
1.05769e-08
1.92644e-11
1.05672e-08
1.93545e-11
1.05575e-08
1.94435e-11
1.05478e-08
1.95319e-11
1.05379e-08
1.96205e-11
1.05281e-08
1.97095e-11
1.05182e-08
1.97999e-11
1.05082e-08
1.98916e-11
1.04982e-08
1.99852e-11
1.04882e-08
2.00808e-11
1.04781e-08
2.01787e-11
1.0468e-08
2.02789e-11
1.04578e-08
2.03818e-11
1.04475e-08
2.04873e-11
1.04373e-08
2.05957e-11
1.04269e-08
2.07069e-11
1.04165e-08
2.08208e-11
1.0406e-08
2.09378e-11
1.03955e-08
2.10575e-11
1.03849e-08
2.11803e-11
1.03743e-08
2.13058e-11
1.03635e-08
2.14342e-11
1.03528e-08
2.15656e-11
1.03419e-08
2.16997e-11
1.0331e-08
2.18366e-11
1.032e-08
2.19762e-11
1.03089e-08
2.21186e-11
1.02978e-08
2.22636e-11
1.02866e-08
2.24113e-11
1.02753e-08
2.25616e-11
1.0264e-08
2.27144e-11
1.02525e-08
2.28696e-11
1.0241e-08
2.30275e-11
1.02294e-08
2.31876e-11
1.02177e-08
2.33503e-11
1.0206e-08
2.35153e-11
1.01941e-08
2.36825e-11
1.01822e-08
2.38521e-11
1.01702e-08
2.40239e-11
1.01581e-08
2.4198e-11
1.01459e-08
2.43742e-11
1.01336e-08
2.45526e-11
1.01213e-08
2.47331e-11
1.01088e-08
2.49159e-11
1.00963e-08
2.51007e-11
1.00836e-08
2.52875e-11
1.00709e-08
2.54765e-11
1.00581e-08
2.56675e-11
1.00451e-08
2.58606e-11
1.00321e-08
2.60557e-11
1.0019e-08
2.62529e-11
1.00057e-08
2.64521e-11
9.99242e-09
2.66534e-11
9.97899e-09
2.6857e-11
9.96546e-09
2.70624e-11
9.95183e-09
2.72702e-11
9.93809e-09
2.748e-11
9.92424e-09
2.76922e-11
9.91029e-09
2.79068e-11
9.89623e-09
2.81239e-11
9.88206e-09
2.83434e-11
9.86777e-09
2.85659e-11
9.85338e-09
2.87912e-11
9.83887e-09
2.902e-11
9.82424e-09
2.92522e-11
9.8095e-09
2.94886e-11
9.79463e-09
2.97294e-11
9.77965e-09
2.99756e-11
9.76453e-09
3.02279e-11
9.74929e-09
3.04873e-11
9.73391e-09
3.07555e-11
9.7184e-09
3.10337e-11
9.70273e-09
3.13247e-11
9.68692e-09
3.16309e-11
9.67094e-09
3.19562e-11
9.65479e-09
3.2305e-11
9.63845e-09
3.26833e-11
9.62191e-09
3.30985e-11
9.60513e-09
3.35607e-11
9.58809e-09
3.40826e-11
9.57076e-09
3.46803e-11
9.55308e-09
3.53756e-11
9.53499e-09
3.61969e-11
9.51641e-09
3.71813e-11
9.49724e-09
3.83787e-11
9.47734e-09
3.98559e-11
9.45651e-09
4.17038e-11
9.43453e-09
4.40474e-11
9.41105e-09
4.70625e-11
9.38562e-09
5.10007e-11
9.3576e-09
5.62323e-11
9.32609e-09
6.33228e-11
9.28974e-09
7.31734e-11
9.24646e-09
8.73076e-11
9.19291e-09
1.08504e-10
9.12319e-09
1.42372e-10
9.02618e-09
2.01857e-10
8.8802e-09
3.22246e-10
6.16377e-10
8.6648e-09
4.63067e-10
-1.36103e-09
9.27969e-10
-1.36653e-09
1.39338e-09
-1.36811e-09
1.85736e-09
-1.36506e-09
2.31661e-09
-1.356e-09
2.76988e-09
-1.34344e-09
3.21692e-09
-1.32884e-09
3.65876e-09
-1.31385e-09
4.09679e-09
-1.29885e-09
4.53103e-09
-1.28201e-09
4.95931e-09
-1.26044e-09
5.37808e-09
-1.23222e-09
5.78407e-09
-1.19757e-09
6.17531e-09
-1.15809e-09
6.55099e-09
-1.1154e-09
6.91071e-09
-1.07033e-09
7.25392e-09
-1.02292e-09
7.57969e-09
-9.73008e-10
7.88706e-09
-9.20761e-10
8.1753e-09
-8.66744e-10
8.44407e-09
-8.11742e-10
8.69341e-09
-7.56555e-10
8.92368e-09
-7.01889e-10
9.13542e-09
-6.48308e-10
9.32931e-09
-5.96243e-10
9.50613e-09
-5.46021e-10
9.66668e-09
-4.97892e-10
9.81184e-09
-4.52054e-10
9.9425e-09
-4.08665e-10
1.00596e-08
-3.67848e-10
1.01641e-08
-3.29684e-10
1.02569e-08
-2.94217e-10
1.0339e-08
-2.61445e-10
1.04114e-08
-2.3133e-10
1.04749e-08
-2.03796e-10
1.05303e-08
-1.78738e-10
1.05785e-08
-1.56028e-10
1.06201e-08
-1.35522e-10
1.0656e-08
-1.17067e-10
1.06866e-08
-1.00506e-10
1.07126e-08
-8.56816e-11
1.07345e-08
-7.2442e-11
1.07526e-08
-6.06401e-11
1.07675e-08
-5.01382e-11
1.07795e-08
-4.08068e-11
1.0789e-08
-3.25265e-11
1.07961e-08
-2.51877e-11
1.08013e-08
-1.86899e-11
1.08047e-08
-1.29426e-11
1.08064e-08
-7.86376e-12
1.08068e-08
-3.37937e-12
1.0806e-08
5.76926e-13
1.08041e-08
4.0642e-12
1.08013e-08
7.1358e-12
1.07976e-08
9.83889e-12
1.07931e-08
1.2216e-11
1.07881e-08
1.43045e-11
1.07824e-08
1.61381e-11
1.07763e-08
1.77466e-11
1.07697e-08
1.91565e-11
1.07627e-08
2.03916e-11
1.07554e-08
2.14728e-11
1.07478e-08
2.2419e-11
1.074e-08
2.32467e-11
1.07319e-08
2.39707e-11
1.07236e-08
2.46043e-11
1.07151e-08
2.51591e-11
1.07065e-08
2.56453e-11
1.06978e-08
2.60722e-11
1.06889e-08
2.64481e-11
1.068e-08
2.67798e-11
1.06709e-08
2.70738e-11
1.06618e-08
2.73361e-11
1.06526e-08
2.7571e-11
1.06433e-08
2.77833e-11
1.0634e-08
2.79766e-11
1.06246e-08
2.81543e-11
1.06151e-08
2.83194e-11
1.06056e-08
2.84743e-11
1.05961e-08
2.86214e-11
1.05865e-08
2.87624e-11
1.05768e-08
2.88992e-11
1.05672e-08
2.90331e-11
1.05574e-08
2.91654e-11
1.05477e-08
2.92971e-11
1.05379e-08
2.94292e-11
1.0528e-08
2.95624e-11
1.05181e-08
2.96974e-11
1.05082e-08
2.98348e-11
1.04982e-08
2.99747e-11
1.04882e-08
3.0118e-11
1.04781e-08
3.02647e-11
1.04679e-08
3.0415e-11
1.04577e-08
3.05694e-11
1.04475e-08
3.07278e-11
1.04372e-08
3.08903e-11
1.04269e-08
3.10571e-11
1.04165e-08
3.12282e-11
1.0406e-08
3.14036e-11
1.03955e-08
3.15835e-11
1.03849e-08
3.17676e-11
1.03742e-08
3.19561e-11
1.03635e-08
3.21489e-11
1.03527e-08
3.2346e-11
1.03419e-08
3.25472e-11
1.0331e-08
3.27527e-11
1.032e-08
3.29623e-11
1.03089e-08
3.3176e-11
1.02978e-08
3.33937e-11
1.02866e-08
3.36152e-11
1.02753e-08
3.38408e-11
1.02639e-08
3.40701e-11
1.02525e-08
3.43031e-11
1.0241e-08
3.45399e-11
1.02294e-08
3.47803e-11
1.02177e-08
3.50243e-11
1.0206e-08
3.52718e-11
1.01941e-08
3.55229e-11
1.01822e-08
3.57772e-11
1.01702e-08
3.6035e-11
1.01581e-08
3.62961e-11
1.01459e-08
3.65606e-11
1.01336e-08
3.68282e-11
1.01213e-08
3.70992e-11
1.01088e-08
3.73732e-11
1.00963e-08
3.76504e-11
1.00836e-08
3.79308e-11
1.00709e-08
3.82142e-11
1.00581e-08
3.85008e-11
1.00451e-08
3.87905e-11
1.00321e-08
3.90831e-11
1.0019e-08
3.9379e-11
1.00057e-08
3.96779e-11
9.99242e-09
3.99799e-11
9.97899e-09
4.02849e-11
9.96546e-09
4.05933e-11
9.95183e-09
4.09048e-11
9.93809e-09
4.12197e-11
9.92424e-09
4.1538e-11
9.91029e-09
4.18597e-11
9.89623e-09
4.21852e-11
9.88206e-09
4.25146e-11
9.86777e-09
4.28482e-11
9.85338e-09
4.31862e-11
9.83887e-09
4.35291e-11
9.82424e-09
4.38774e-11
9.8095e-09
4.42315e-11
9.79464e-09
4.45927e-11
9.77965e-09
4.49616e-11
9.76454e-09
4.53397e-11
9.7493e-09
4.57284e-11
9.73392e-09
4.61298e-11
9.71841e-09
4.65466e-11
9.70275e-09
4.69821e-11
9.68695e-09
4.74402e-11
9.67098e-09
4.79266e-11
9.65483e-09
4.84479e-11
9.6385e-09
4.90128e-11
9.62197e-09
4.96327e-11
9.60521e-09
5.03222e-11
9.58819e-09
5.10997e-11
9.57088e-09
5.19899e-11
9.55323e-09
5.30247e-11
9.53518e-09
5.42457e-11
9.51666e-09
5.57083e-11
9.49755e-09
5.74855e-11
9.47773e-09
5.96762e-11
9.45702e-09
6.24139e-11
9.43518e-09
6.5882e-11
9.41191e-09
7.03377e-11
9.38676e-09
7.61473e-11
9.35915e-09
8.38475e-11
9.32822e-09
9.42498e-11
9.29276e-09
1.08634e-10
9.25094e-09
1.29123e-10
9.19997e-09
1.59479e-10
9.13541e-09
2.06932e-10
9.05052e-09
2.8674e-10
8.93863e-09
4.34135e-10
7.31711e-10
8.8233e-09
4.80279e-10
-1.84131e-09
9.6238e-10
-1.84863e-09
1.44748e-09
-1.85322e-09
1.9363e-09
-1.85387e-09
2.40887e-09
-1.82857e-09
2.86887e-09
-1.80344e-09
3.31549e-09
-1.77546e-09
3.75544e-09
-1.7538e-09
4.19876e-09
-1.74217e-09
4.64927e-09
-1.73252e-09
5.10059e-09
-1.71176e-09
5.54055e-09
-1.67218e-09
5.96092e-09
-1.61794e-09
6.35997e-09
-1.55715e-09
6.74007e-09
-1.49551e-09
7.10381e-09
-1.43406e-09
7.45133e-09
-1.37044e-09
7.78063e-09
-1.3023e-09
8.0894e-09
-1.22953e-09
8.37631e-09
-1.15365e-09
8.64112e-09
-1.07655e-09
8.88433e-09
-9.99771e-10
9.10686e-09
-9.24413e-10
9.30975e-09
-8.51202e-10
9.49409e-09
-7.80584e-10
9.66091e-09
-7.12844e-10
9.81122e-09
-6.48202e-10
9.94602e-09
-5.86852e-10
1.00663e-08
-5.28973e-10
1.01732e-08
-4.74712e-10
1.02677e-08
-4.24172e-10
1.03509e-08
-3.77395e-10
1.04238e-08
-3.34362e-10
1.04874e-08
-2.94992e-10
1.05428e-08
-2.59152e-10
1.05907e-08
-2.26669e-10
1.0632e-08
-1.97341e-10
1.06675e-08
-1.70949e-10
1.06977e-08
-1.47269e-10
1.07232e-08
-1.26073e-10
1.07447e-08
-1.07141e-10
1.07625e-08
-9.02635e-11
1.07771e-08
-7.52407e-11
1.07889e-08
-6.18875e-11
1.07981e-08
-5.00328e-11
1.08051e-08
-3.952e-11
1.08101e-08
-3.02059e-11
1.08134e-08
-2.19614e-11
1.08151e-08
-1.46696e-11
1.08155e-08
-8.22548e-12
1.08146e-08
-2.53506e-12
1.08127e-08
2.48615e-12
1.08099e-08
6.91323e-12
1.08062e-08
1.08137e-11
1.08018e-08
1.42471e-11
1.07967e-08
1.72672e-11
1.07911e-08
1.99214e-11
1.0785e-08
2.22522e-11
1.07784e-08
2.42973e-11
1.07715e-08
2.60904e-11
1.07642e-08
2.76616e-11
1.07567e-08
2.90373e-11
1.07489e-08
3.02414e-11
1.07408e-08
3.12951e-11
1.07326e-08
3.2217e-11
1.07241e-08
3.30241e-11
1.07156e-08
3.37309e-11
1.07069e-08
3.43509e-11
1.0698e-08
3.48955e-11
1.06891e-08
3.53753e-11
1.06801e-08
3.57993e-11
1.0671e-08
3.61759e-11
1.06618e-08
3.65117e-11
1.06526e-08
3.68135e-11
1.06433e-08
3.70866e-11
1.06339e-08
3.7336e-11
1.06245e-08
3.75656e-11
1.0615e-08
3.77798e-11
1.06055e-08
3.79812e-11
1.0596e-08
3.8173e-11
1.05864e-08
3.83574e-11
1.05767e-08
3.85368e-11
1.05671e-08
3.87129e-11
1.05573e-08
3.88872e-11
1.05476e-08
3.90614e-11
1.05378e-08
3.9236e-11
1.05279e-08
3.94127e-11
1.0518e-08
3.95918e-11
1.05081e-08
3.97744e-11
1.04981e-08
3.99607e-11
1.04881e-08
4.01514e-11
1.0478e-08
4.03468e-11
1.04679e-08
4.05472e-11
1.04577e-08
4.0753e-11
1.04474e-08
4.09641e-11
1.04371e-08
4.11809e-11
1.04268e-08
4.14035e-11
1.04164e-08
4.16319e-11
1.04059e-08
4.18659e-11
1.03954e-08
4.2106e-11
1.03848e-08
4.23516e-11
1.03742e-08
4.26032e-11
1.03635e-08
4.28606e-11
1.03527e-08
4.31235e-11
1.03418e-08
4.33922e-11
1.03309e-08
4.36663e-11
1.03199e-08
4.39461e-11
1.03089e-08
4.42311e-11
1.02978e-08
4.45216e-11
1.02866e-08
4.48173e-11
1.02753e-08
4.5118e-11
1.02639e-08
4.5424e-11
1.02525e-08
4.5735e-11
1.0241e-08
4.60508e-11
1.02294e-08
4.63715e-11
1.02177e-08
4.66971e-11
1.0206e-08
4.70271e-11
1.01941e-08
4.73619e-11
1.01822e-08
4.77013e-11
1.01702e-08
4.80452e-11
1.01581e-08
4.83934e-11
1.01459e-08
4.87462e-11
1.01336e-08
4.91031e-11
1.01213e-08
4.94644e-11
1.01088e-08
4.98299e-11
1.00963e-08
5.01995e-11
1.00836e-08
5.05735e-11
1.00709e-08
5.09514e-11
1.00581e-08
5.13336e-11
1.00451e-08
5.17198e-11
1.00321e-08
5.21102e-11
1.0019e-08
5.25046e-11
1.00057e-08
5.29031e-11
9.99242e-09
5.33059e-11
9.97899e-09
5.37126e-11
9.96546e-09
5.41238e-11
9.95183e-09
5.45391e-11
9.93809e-09
5.49589e-11
9.92424e-09
5.53832e-11