/*--------------------------------*- C++ -*----------------------------------*\
  =========                 |
  \\      /  F ield         | OpenFOAM: The Open Source CFD Toolbox
   \\    /   O peration     | Website:  https://openfoam.org
    \\  /    A nd           | Version:  10
     \\/     M anipulation  |
\*---------------------------------------------------------------------------*/
FoamFile
{
    format      ascii;
    class       volVectorField;
    location    "1.3";
    object      Ub;
}
// * * * * * * * * * * * * * * * * * * * * * * * * * * * * * * * * * * * * * //

dimensions      [0 1 -1 0 0 0 0];

internalField   nonuniform List<vector> 
12225
(
(0.00220592 -0.00044676 0)
(0.00629933 -0.000398454 0)
(0.00968062 -0.000328923 0)
(0.0123039 -0.000259584 0)
(0.0142728 -0.000201547 0)
(0.0157418 -0.000158032 0)
(0.0168603 -0.000128313 0)
(0.0177517 -0.000110429 0)
(0.0185123 -0.000102568 0)
(0.0192181 -0.000103682 0)
(0.0199328 -0.000113827 0)
(0.0207183 -0.000134626 0)
(0.0216468 -0.000170305 0)
(0.0228223 -0.000230384 0)
(0.0244268 -0.00033752 0)
(0.0268544 -0.000555376 0)
(0.0312334 -0.00112073 0)
(0.0423862 -0.00333125 0)
(0.00235837 -0.00140502 0)
(0.00672586 -0.00125108 0)
(0.0103152 -0.00103039 0)
(0.0130819 -0.000811035 0)
(0.0151435 -0.000627973 0)
(0.0166705 -0.000491064 0)
(0.0178251 -0.000397762 0)
(0.01874 -0.000341716 0)
(0.0195179 -0.000317106 0)
(0.0202386 -0.000320533 0)
(0.0209689 -0.000352054 0)
(0.0217722 -0.000416547 0)
(0.0227214 -0.00052678 0)
(0.0239182 -0.000711231 0)
(0.0255318 -0.00103607 0)
(0.0278869 -0.0016774 0)
(0.0316438 -0.00321409 0)
(0.0373642 -0.00812483 0)
(0.0024735 -0.00249127 0)
(0.00704163 -0.00221254 0)
(0.0107701 -0.00181559 0)
(0.0136196 -0.00142329 0)
(0.0157242 -0.00109753 0)
(0.0172697 -0.000854921 0)
(0.0184293 -0.000690158 0)
(0.0193423 -0.000591442 0)
(0.0201152 -0.000548106 0)
(0.0208297 -0.000553839 0)
(0.0215526 -0.000608356 0)
(0.0223461 -0.00071955 0)
(0.0232783 -0.00090828 0)
(0.0244388 -0.00122016 0)
(0.0259597 -0.00175644 0)
(0.0280394 -0.00276261 0)
(0.0308581 -0.00490474 0)
(0.0335519 -0.0100918 0)
(0.00258927 -0.00371061 0)
(0.00735295 -0.00328401 0)
(0.0112041 -0.00268193 0)
(0.0141134 -0.00209171 0)
(0.0162371 -0.00160498 0)
(0.0177799 -0.00124458 0)
(0.0189266 -0.00100093 0)
(0.0198228 -0.000855399 0)
(0.0205776 -0.000791441 0)
(0.021273 -0.0007991 0)
(0.0219742 -0.000877147 0)
(0.0227395 -0.00103571 0)
(0.0236286 -0.00130205 0)
(0.0247114 -0.00173411 0)
(0.0260711 -0.00245244 0)
(0.0277772 -0.00371652 0)
(0.0297026 -0.00609225 0)
(0.0307739 -0.0106449 0)
(0.0027203 -0.00508079 0)
(0.00769876 -0.00447598 0)
(0.011671 -0.00363258 0)
(0.0146248 -0.00281482 0)
(0.0167475 -0.00214679 0)
(0.0182678 -0.00165591 0)
(0.0193844 -0.00132601 0)
(0.0202493 -0.00112972 0)
(0.0209729 -0.00104326 0)
(0.0216365 -0.00105206 0)
(0.0223022 -0.00115304 0)
(0.023022 -0.00135724 0)
(0.0238444 -0.00169556 0)
(0.0248155 -0.00223135 0)
(0.0259692 -0.00308646 0)
(0.027276 -0.00448895 0)
(0.0284737 -0.0068285 0)
(0.0286894 -0.010537 0)
(0.00287829 -0.00662893 0)
(0.00810839 -0.00580427 0)
(0.0122076 -0.00467232 0)
(0.0151914 -0.00359076 0)
(0.0172911 -0.00271816 0)
(0.0187671 -0.00208337 0)
(0.0198345 -0.00166 0)
(0.0206516 -0.0014093 0)
(0.0213299 -0.00129856 0)
(0.0219481 -0.00130733 0)
(0.0225638 -0.00142946 0)
(0.0232214 -0.00167509 0)
(0.0239558 -0.00207522 0)
(0.0247898 -0.00269116 0)
(0.025716 -0.00363044 0)
(0.026646 -0.00506445 0)
(0.0272984 -0.00721069 0)
(0.0270718 -0.0101382 0)
(0.00307655 -0.00839352 0)
(0.00861335 -0.00728998 0)
(0.0128495 -0.00580625 0)
(0.0158457 -0.00441559 0)
(0.0178955 -0.00331165 0)
(0.0193006 -0.00251887 0)
(0.0202961 -0.0019953 0)
(0.0210467 -0.00168722 0)
(0.0216636 -0.00155073 0)
(0.0222219 -0.00155801 0)
(0.022773 -0.00169837 0)
(0.0233523 -0.0019789 0)
(0.0239814 -0.00242704 0)
(0.0246621 -0.0030954 0)
(0.0253591 -0.00406711 0)
(0.0259612 -0.00545118 0)
(0.0262261 -0.00733446 0)
(0.0257792 -0.00962196 0)
(0.00333285 -0.0104289 0)
(0.00925385 -0.00896018 0)
(0.0136388 -0.00703824 0)
(0.0166221 -0.00528138 0)
(0.0185864 -0.0039155 0)
(0.0198875 -0.00295064 0)
(0.0207838 -0.00232133 0)
(0.021446 -0.00195409 0)
(0.0219836 -0.00179113 0)
(0.0224663 -0.00179546 0)
(0.022938 -0.00195022 0)
(0.0234248 -0.00225737 0)
(0.0239354 -0.00273744 0)
(0.0244565 -0.00342972 0)
(0.0249376 -0.00438919 0)
(0.0252697 -0.00567014 0)
(0.0252695 -0.00727702 0)
(0.0247211 -0.00906563 0)
(0.0036732 -0.0128134 0)
(0.0100861 -0.010849 0)
(0.0146294 -0.00836845 0)
(0.0175607 -0.0061733 0)
(0.0193907 -0.00451144 0)
(0.0205452 -0.00336167 0)
(0.021309 -0.00262354 0)
(0.0218576 -0.00219754 0)
(0.022296 -0.00200873 0)
(0.0226866 -0.00200912 0)
(0.0230648 -0.00217412 0)
(0.0234469 -0.00249868 0)
(0.0238313 -0.00299409 0)
(0.0241944 -0.00368421 0)
(0.0244821 -0.00459729 0)
(0.024601 -0.0057469 0)
(0.0244246 -0.00709467 0)
(0.0238375 -0.00850152 0)
(0.00413802 -0.0156628 0)
(0.0111932 -0.0129979 0)
(0.0158944 -0.00978853 0)
(0.0187103 -0.00706498 0)
(0.0203373 -0.00507146 0)
(0.0212902 -0.00372781 0)
(0.0218812 -0.00288231 0)
(0.0222868 -0.00240153 0)
(0.0226045 -0.00218988 0)
(0.0228864 -0.00218659 0)
(0.0231581 -0.00235809 0)
(0.0234265 -0.00269108 0)
(0.0236816 -0.00318654 0)
(0.0238949 -0.00385314 0)
(0.0240157 -0.00469724 0)
(0.0239713 -0.00570631 0)
(0.0236804 -0.00682586 0)
(0.0230872 -0.00794153 0)
(0.00479344 -0.0191551 0)
(0.0127039 -0.0154541 0)
(0.0175357 -0.0112721 0)
(0.020131 -0.00791075 0)
(0.0214571 -0.00555321 0)
(0.0221368 -0.00401533 0)
(0.0225064 -0.00307171 0)
(0.0227364 -0.00254585 0)
(0.0229104 -0.00231809 0)
(0.0230674 -0.00231364 0)
(0.0232215 -0.00248937 0)
(0.0233702 -0.00282334 0)
(0.0234976 -0.00330644 0)
(0.0235735 -0.00393429 0)
(0.0235543 -0.00469754 0)
(0.0233874 -0.00556979 0)
(0.0230239 -0.00649572 0)
(0.0224405 -0.00738847 0)
(0.0056842 -0.0231532 0)
(0.014675 -0.0180169 0)
(0.019549 -0.0126444 0)
(0.0217804 -0.00859001 0)
(0.0226999 -0.00588039 0)
(0.0230424 -0.00417639 0)
(0.0231544 -0.00316041 0)
(0.0231885 -0.00260812 0)
(0.0232081 -0.00237565 0)
(0.0232354 -0.00237514 0)
(0.0232722 -0.00255493 0)
(0.0233075 -0.00288569 0)
(0.0233209 -0.00335018 0)
(0.0232829 -0.00393467 0)
(0.023157 -0.00462048 0)
(0.0229055 -0.005376 0)
(0.0224989 -0.0061516 0)
(0.0219297 -0.00688271 0)
(0.0069322 -0.028285 0)
(0.0173055 -0.0208564 0)
(0.0220379 -0.0138867 0)
(0.0236845 -0.00904608 0)
(0.0240526 -0.00600289 0)
(0.0239769 -0.00417418 0)
(0.0237878 -0.00312264 0)
(0.0236029 -0.00257054 0)
(0.0234558 -0.00235042 0)
(0.0233476 -0.00236311 0)
(0.023266 -0.00255018 0)
(0.0231917 -0.00287663 0)
(0.0231003 -0.00331939 0)
(0.0229636 -0.00385879 0)
(0.0227519 -0.00447167 0)
(0.0224386 -0.00512638 0)
(0.0220071 -0.0057813 0)
(0.0214574 -0.00638905 0)
(0.00918327 -0.0363052 0)
(0.0217481 -0.0243459 0)
(0.025819 -0.0149162 0)
(0.0263392 -0.00912816 0)
(0.0258181 -0.00579413 0)
(0.0251346 -0.00391567 0)
(0.0245377 -0.00289192 0)
(0.0240706 -0.00238554 0)
(0.0237169 -0.00220796 0)
(0.0234468 -0.00225214 0)
(0.0232293 -0.0024557 0)
(0.0230348 -0.0027803 0)
(0.0228347 -0.00319937 0)
(0.0226021 -0.00369014 0)
(0.022313 -0.00422845 0)
(0.0219493 -0.00478593 0)
(0.0215023 -0.00533027 0)
(0.0209756 -0.00582873 0)
(0.0137824 -0.0503161 0)
(0.0299898 -0.027911 0)
(0.0317458 -0.0148504 0)
(0.0300047 -0.00823787 0)
(0.0280417 -0.00489122 0)
(0.0264946 -0.00317798 0)
(0.0253669 -0.00232407 0)
(0.024554 -0.00195352 0)
(0.0239585 -0.0018746 0)
(0.0235063 -0.00198416 0)
(0.0231421 -0.00222338 0)
(0.0228238 -0.00255575 0)
(0.0225179 -0.00295543 0)
(0.0221979 -0.00340053 0)
(0.0218435 -0.0038695 0)
(0.0214419 -0.00433975 0)
(0.0209882 -0.00478836 0)
(0.0204862 -0.00519437 0)
(0.0249515 -0.0793613 0)
(0.0473446 -0.0274441 0)
(0.0410208 -0.0111108 0)
(0.034702 -0.00514094 0)
(0.0305325 -0.00268955 0)
(0.0278739 -0.00163741 0)
(0.0261337 -0.00122722 0)
(0.0249489 -0.0011493 0)
(0.0241055 -0.00126142 0)
(0.0234731 -0.00149138 0)
(0.0229687 -0.00179884 0)
(0.0225363 -0.00215834 0)
(0.0221371 -0.00255119 0)
(0.0217439 -0.0029613 0)
(0.0213387 -0.00337329 0)
(0.020911 -0.00377209 0)
(0.0204573 -0.00414363 0)
(0.0199799 -0.00447609 0)
(0.0593238 0.000593645 0)
(0.0907889 0.00301214 0)
(0.0531456 0.0025157 0)
(0.0390332 0.00193346 0)
(0.0324295 0.00143733 0)
(0.0288042 0.000987704 0)
(0.0265845 0.000557276 0)
(0.0251136 0.000133825 0)
(0.0240739 -0.000287741 0)
(0.0232926 -0.000707439 0)
(0.022667 -0.00112482 0)
(0.0221339 -0.00153926 0)
(0.0216533 -0.00194649 0)
(0.021199 -0.00234094 0)
(0.0207544 -0.00271617 0)
(0.0203102 -0.00306551 0)
(0.0198622 -0.00338285 0)
(0.0194106 -0.00366339 0)
(0.0205052 0.0761263 0)
(0.0405467 0.0319069 0)
(0.0374309 0.0162921 0)
(0.0326626 0.0095408 0)
(0.0290895 0.00607856 0)
(0.0266398 0.00403539 0)
(0.0249513 0.00268203 0)
(0.0237492 0.00169718 0)
(0.0228556 0.000925086 0)
(0.0221589 0.00028623 0)
(0.0215889 -0.000263933 0)
(0.0210974 -0.000748493 0)
(0.0206512 -0.00118338 0)
(0.0202304 -0.00157733 0)
(0.0198235 -0.00193336 0)
(0.019424 -0.00225263 0)
(0.0190289 -0.00253555 0)
(0.0186377 -0.0027825 0)
(0.0078316 0.0403469 0)
(0.0187502 0.0278014 0)
(0.0226406 0.0184346 0)
(0.0234075 0.0124283 0)
(0.0230851 0.00858775 0)
(0.0224742 0.00604131 0)
(0.0218499 0.00427141 0)
(0.0212891 0.0029808 0)
(0.0207999 0.00199691 0)
(0.0203697 0.00121722 0)
(0.0199825 0.000579105 0)
(0.0196255 4.71545e-05 0)
(0.0192898 -0.000405715 0)
(0.0189661 -0.000794333 0)
(0.0186482 -0.00113264 0)
(0.0183339 -0.00142729 0)
(0.0180223 -0.00168308 0)
(0.0177138 -0.0019038 0)
(0.00425988 0.0244449 0)
(0.0111889 0.0201667 0)
(0.0152836 0.0155092 0)
(0.0174042 0.0116348 0)
(0.0184071 0.00867103 0)
(0.0188258 0.00645383 0)
(0.0189479 0.0047889 0)
(0.0189191 0.00351919 0)
(0.0188114 0.00253108 0)
(0.0186597 0.0017456 0)
(0.0184812 0.00110857 0)
(0.0182845 0.000582916 0)
(0.0180742 0.000143148 0)
(0.0178549 -0.000225561 0)
(0.0176287 -0.000537799 0)
(0.017396 -0.000805367 0)
(0.0171588 -0.00103485 0)
(0.0169193 -0.00123138 0)
(0.00292773 0.0171995 0)
(0.0080344 0.0151007 0)
(0.0116565 0.0124031 0)
(0.014003 0.00984051 0)
(0.0154559 0.00767113 0)
(0.0163327 0.00592111 0)
(0.0168481 0.00453344 0)
(0.017136 0.00343455 0)
(0.0172775 0.0025583 0)
(0.0173215 0.00185197 0)
(0.017298 0.00127562 0)
(0.017226 0.000799763 0)
(0.0171183 0.000402736 0)
(0.0169838 6.89283e-05 0)
(0.0168304 -0.000210811 0)
(0.0166628 -0.000447827 0)
(0.0164842 -0.000650208 0)
(0.0162981 -0.000823059 0)
(0.00226555 0.0126555 0)
(0.00636298 0.0114524 0)
(0.00954664 0.0097605 0)
(0.0118481 0.00801786 0)
(0.0134484 0.00644127 0)
(0.0145382 0.005101 0)
(0.0152695 0.00399478 0)
(0.0157511 0.00309242 0)
(0.0160575 0.00235762 0)
(0.016239 0.00175694 0)
(0.0163295 0.00126259 0)
(0.0163527 0.000852604 0)
(0.0163253 0.000510005 0)
(0.0162594 0.000221811 0)
(0.0161648 -2.11976e-05 0)
(0.0160489 -0.000225223 0)
(0.0159169 -0.000398845 0)
(0.015773 -0.000547034 0)
(0.00188985 0.00949518 0)
(0.00537812 0.00873709 0)
(0.00823107 0.00761302 0)
(0.0104271 0.00639485 0)
(0.0120572 0.00524306 0)
(0.0132412 0.00422775 0)
(0.0140884 0.00336526 0)
(0.0146857 0.00264595 0)
(0.0150979 0.00205047 0)
(0.0153724 0.0015579 0)
(0.0155433 0.00114924 0)
(0.0156358 0.000808579 0)
(0.0156683 0.000523058 0)
(0.0156547 0.00028251 0)
(0.0156056 7.89523e-05 0)
(0.01553 -9.24016e-05 0)
(0.0154343 -0.000237303 0)
(0.0153233 -0.000361024 0)
(0.00165624 0.00714906 0)
(0.00475095 0.00664468 0)
(0.00736178 0.00587135 0)
(0.00945078 0.00500511 0)
(0.0110655 0.00416143 0)
(0.0122857 0.00339879 0)
(0.0131931 0.00273754 0)
(0.013858 0.00217705 0)
(0.0143367 0.00170723 0)
(0.0146727 0.00131496 0)
(0.014899 0.000987317 0)
(0.0150406 0.000712904 0)
(0.0151166 0.000482178 0)
(0.0151416 0.000287387 0)
(0.0151271 0.000122313 0)
(0.0150821 -1.76321e-05 0)
(0.0150141 -0.000135268 0)
(0.0149284 -0.000235744 0)
(0.00150054 0.00533133 0)
(0.00432605 0.00498709 0)
(0.00675711 0.00444729 0)
(0.00875129 0.00382919 0)
(0.0103338 0.00321494 0)
(0.011561 0.00264994 0)
(0.0124966 0.00215289 0)
(0.0131992 0.00172662 0)
(0.0137184 0.00136599 0)
(0.014094 0.00106273 0)
(0.0143575 0.000808074 0)
(0.0145332 0.000593938 0)
(0.0146403 0.00041337 0)
(0.0146935 0.000260602 0)
(0.0147046 0.000130937 0)
(0.0146828 2.05855e-05 0)
(0.0146359 -7.2262e-05 0)
(0.0145697 -0.000151377 0)
(0.00139021 0.00388221 0)
(0.00402114 0.00364706 0)
(0.006314 0.00327248 0)
(0.0082259 0.00283713 0)
(0.00976988 0.00239851 0)
(0.0109882 0.00199016 0)
(0.0119327 0.00162724 0)
(0.0126538 0.00131337 0)
(0.013196 0.00104603 0)
(0.0135961 0.000820004 0)
(0.0138837 0.000629404 0)
(0.0140825 0.000468608 0)
(0.0142113 0.000332676 0)
(0.0142848 0.000217442 0)
(0.0143147 0.000119473 0)
(0.0143105 3.59637e-05 0)
(0.0142797 -3.46857e-05 0)
(0.0142286 -9.45725e-05 0)
(0.00130662 0.00270499 0)
(0.0037876 0.00254856 0)
(0.00596824 0.00229654 0)
(0.00780652 0.00200065 0)
(0.00930867 0.00169972 0)
(0.0105081 0.00141723 0)
(0.0114487 0.00116437 0)
(0.0121753 0.000944376 0)
(0.0127283 0.000756054 0)
(0.0131417 0.000596193 0)
(0.013444 0.000460943 0)
(0.0136578 0.000346537 0)
(0.0138014 0.000249609 0)
(0.0138892 0.000167289 0)
(0.013933 9.71917e-05 0)
(0.0139418 3.73522e-05 0)
(0.0139235 -1.35353e-05 0)
(0.013884 -5.64206e-05 0)
(0.00123731 0.0017378 0)
(0.00359195 0.00164063 0)
(0.00567332 0.00148276 0)
(0.00744081 0.00129614 0)
(0.00889672 0.00110513 0)
(0.0100688 0.0009248 0)
(0.0109956 0.000762584 0)
(0.0117174 0.000620845 0)
(0.0122715 0.000499073 0)
(0.01269 0.000395385 0)
(0.0129997 0.000307431 0)
(0.0132222 0.000232866 0)
(0.0133753 0.00016957 0)
(0.013473 0.000115723 0)
(0.0135266 6.97996e-05 0)
(0.0135454 3.05413e-05 0)
(0.0135366 -3.00382e-06 0)
(0.0135063 -3.10685e-05 0)
(0.0011707 0.000940099 0)
(0.00340194 0.000888784 0)
(0.00538177 0.000804907 0)
(0.00707136 0.000705282 0)
(0.00847082 0.000602888 0)
(0.00960396 0.00050585 0)
(0.0105053 0.000418259 0)
(0.0112117 0.000341492 0)
(0.0117576 0.000275362 0)
(0.012173 0.000218919 0)
(0.0124831 0.000170939 0)
(0.0127087 0.000130186 0)
(0.0128664 9.55332e-05 0)
(0.01297 6.60057e-05 0)
(0.0130302 4.07857e-05 0)
(0.013056 1.91962e-05 0)
(0.0130545 6.84871e-07 0)
(0.0130314 -1.45929e-05 0)
(0.0010784 0.0002898 0)
(0.0031357 0.000274207 0)
(0.00496549 0.000248621 0)
(0.00653169 0.00021815 0)
(0.00783318 0.000186758 0)
(0.0088905 0.000156942 0)
(0.00973431 0.000129976 0)
(0.0103977 0.000106298 0)
(0.0109119 8.58667e-05 0)
(0.0113043 6.84015e-05 0)
(0.0115981 5.35341e-05 0)
(0.0118123 4.08893e-05 0)
(0.0119626 3.01237e-05 0)
(0.0120616 2.09397e-05 0)
(0.0121194 1.30866e-05 0)
(0.0121444 6.3565e-06 0)
(0.0121433 5.77702e-07 0)
(0.0121219 -4.10465e-06 0)
(1.12271e-33 -2.56138e-33 -3.30918e-59)
(3.37526e-33 -2.5538e-33 3.29672e-59)
(5.63601e-33 -2.53966e-33 0)
(7.89871e-33 -2.51906e-33 0)
(1.01572e-32 -2.49232e-33 0)
(1.24056e-32 -2.46013e-33 -3.165e-59)
(1.46387e-32 -2.42324e-33 0)
(1.68516e-32 -2.38218e-33 0)
(1.90398e-32 -2.337e-33 0)
(2.11984e-32 -2.28723e-33 0)
(2.33217e-32 -2.23212e-33 2.85741e-59)
(2.54032e-32 -2.17108e-33 0)
(2.7436e-32 -2.10407e-33 0)
(2.94131e-32 -2.03155e-33 0)
(3.13283e-32 -1.9543e-33 0)
(3.31758e-32 -1.87311e-33 2.38177e-59)
(3.49504e-32 -1.78872e-33 0)
(3.66479e-32 -1.70178e-33 0)
(3.82645e-32 -1.61298e-33 0)
(3.97971e-32 -1.52311e-33 0)
(4.12435e-32 -1.43302e-33 0)
(4.26024e-32 -1.34359e-33 0)
(4.38735e-32 -1.25565e-33 0)
(4.50574e-32 -1.16996e-33 1.45895e-59)
(4.61554e-32 -1.08714e-33 -1.35061e-59)
(4.71696e-32 -1.0077e-33 1.24674e-59)
(4.81027e-32 -9.32042e-34 1.14785e-59)
(4.89578e-32 -8.60446e-34 0)
(4.97385e-32 -7.93119e-34 0)
(5.04486e-32 -7.30185e-34 -8.84189e-60)
(5.10922e-32 -6.71703e-34 -8.07842e-60)
(5.16734e-32 -6.17664e-34 0)
(5.21966e-32 -5.68006e-34 0)
(5.2666e-32 -5.22613e-34 -6.13291e-60)
(5.30858e-32 -4.81327e-34 0)
(5.34602e-32 -4.43953e-34 0)
(5.37932e-32 -4.10267e-34 4.66757e-60)
(5.40885e-32 -3.80028e-34 0)
(5.43498e-32 -3.52984e-34 3.92062e-60)
(5.45803e-32 -3.28877e-34 7.21267e-60)
(5.47833e-32 -3.07454e-34 0)
(5.49615e-32 -2.88469e-34 0)
(5.51177e-32 -2.71686e-34 0)
(5.52542e-32 -2.56883e-34 0)
(5.53731e-32 -2.43854e-34 0)
(5.54765e-32 -2.32408e-34 4.69784e-60)
(5.55662e-32 -2.22371e-34 4.43628e-60)
(5.56436e-32 -2.13584e-34 4.2073e-60)
(5.57103e-32 -2.05904e-34 0)
(5.57675e-32 -1.99203e-34 -3.83264e-60)
(5.58163e-32 -1.93365e-34 0)
(5.58578e-32 -1.88289e-34 3.54839e-60)
(5.58928e-32 -1.83882e-34 3.43363e-60)
(5.59222e-32 -1.80064e-34 0)
(5.59467e-32 -1.76763e-34 0)
(5.59668e-32 -1.73915e-34 0)
(5.59832e-32 -1.71465e-34 3.11057e-60)
(5.59963e-32 -1.69363e-34 0)
(5.60066e-32 -1.67566e-34 0)
(5.60144e-32 -1.66034e-34 0)
(5.60202e-32 -1.64733e-34 0)
(5.60241e-32 -1.63635e-34 0)
(5.60265e-32 -1.62713e-34 0)
(5.60275e-32 -1.61944e-34 0)
(5.60275e-32 -1.61306e-34 0)
(5.60266e-32 -1.60783e-34 -2.8334e-60)
(5.60248e-32 -1.60359e-34 0)
(5.60225e-32 -1.6002e-34 0)
(5.60196e-32 -1.59754e-34 2.80697e-60)
(5.60163e-32 -1.5955e-34 2.80175e-60)
(5.60127e-32 -1.59399e-34 0)
(5.60088e-32 -1.59293e-34 -2.79532e-60)
(5.60047e-32 -1.59226e-34 2.79365e-60)
(5.60006e-32 -1.5919e-34 0)
(5.59963e-32 -1.59181e-34 -2.79269e-60)
(5.5992e-32 -1.59194e-34 0)
(5.59878e-32 -1.59225e-34 0)
(5.59835e-32 -1.59271e-34 2.79534e-60)
(5.59793e-32 -1.59328e-34 0)
(5.59752e-32 -1.59395e-34 -2.79873e-60)
(5.59712e-32 -1.59469e-34 0)
(5.59673e-32 -1.59547e-34 2.80284e-60)
(5.59635e-32 -1.5963e-34 2.80507e-60)
(5.59598e-32 -1.59714e-34 2.80735e-60)
(5.59562e-32 -1.598e-34 5.61932e-60)
(5.59528e-32 -1.59886e-34 -5.62391e-60)
(5.59496e-32 -1.59972e-34 0)
(5.59464e-32 -1.60057e-34 0)
(5.59434e-32 -1.6014e-34 0)
(5.59405e-32 -1.60221e-34 -5.6418e-60)
(5.59378e-32 -1.60299e-34 -5.64598e-60)
(5.59352e-32 -1.60376e-34 5.65005e-60)
(5.59327e-32 -1.60449e-34 0)
(5.59303e-32 -1.6052e-34 -5.65774e-60)
(5.59281e-32 -1.60587e-34 -5.66131e-60)
(5.5926e-32 -1.60652e-34 -5.66476e-60)
(5.5924e-32 -1.60714e-34 0)
(5.59221e-32 -1.60773e-34 0)
(5.59203e-32 -1.60828e-34 0)
(5.59186e-32 -1.60881e-34 -5.67697e-60)
(5.5917e-32 -1.60932e-34 0)
(5.59155e-32 -1.60979e-34 0)
(5.59141e-32 -1.61024e-34 5.68457e-60)
(5.59128e-32 -1.61066e-34 0)
(5.59115e-32 -1.61106e-34 0)
(5.59103e-32 -1.61143e-34 5.69091e-60)
(5.59092e-32 -1.61179e-34 0)
(5.59082e-32 -1.61212e-34 0)
(5.59072e-32 -1.61243e-34 -5.69619e-60)
(5.59063e-32 -1.61272e-34 -5.69773e-60)
(5.59055e-32 -1.61299e-34 0)
(5.59047e-32 -1.61324e-34 5.70051e-60)
(5.5904e-32 -1.61348e-34 0)
(5.59033e-32 -1.6137e-34 -5.70297e-60)
(5.59026e-32 -1.61391e-34 0)
(5.5902e-32 -1.6141e-34 -5.70508e-60)
(5.59015e-32 -1.61428e-34 -5.70606e-60)
(5.5901e-32 -1.61445e-34 0)
(5.59005e-32 -1.6146e-34 0)
(5.59e-32 -1.61475e-34 0)
(5.58996e-32 -1.61488e-34 0)
(5.58992e-32 -1.615e-34 0)
(5.58989e-32 -1.61512e-34 0)
(5.58985e-32 -1.61522e-34 0)
(5.58982e-32 -1.61532e-34 -5.71156e-60)
(5.58979e-32 -1.61541e-34 5.71207e-60)
(5.58977e-32 -1.61549e-34 0)
(5.58974e-32 -1.61557e-34 0)
(5.58972e-32 -1.61564e-34 0)
(5.5897e-32 -1.6157e-34 0)
(5.58968e-32 -1.61576e-34 1.14278e-59)
(5.58966e-32 -1.61581e-34 0)
(5.58964e-32 -1.61586e-34 -1.14289e-59)
(5.58963e-32 -1.6159e-34 1.14293e-59)
(5.58961e-32 -1.61593e-34 0)
(5.5896e-32 -1.61596e-34 0)
(5.58958e-32 -1.61599e-34 0)
(5.58957e-32 -1.61601e-34 -1.14305e-59)
(5.58956e-32 -1.61602e-34 -1.14306e-59)
(5.58954e-32 -1.61603e-34 0)
(5.58953e-32 -1.61603e-34 -1.14307e-59)
(5.58952e-32 -1.61602e-34 -1.14307e-59)
(5.58951e-32 -1.616e-34 1.14304e-59)
(5.58949e-32 -1.61597e-34 0)
(5.58948e-32 -1.61592e-34 0)
(5.58946e-32 -1.61586e-34 1.14291e-59)
(5.58944e-32 -1.61578e-34 0)
(5.58941e-32 -1.61568e-34 0)
(5.58939e-32 -1.61555e-34 0)
(5.58936e-32 -1.61539e-34 0)
(5.58932e-32 -1.61518e-34 -1.14221e-59)
(5.58927e-32 -1.61491e-34 -1.14195e-59)
(5.58921e-32 -1.61458e-34 0)
(5.58914e-32 -1.61417e-34 -1.14119e-59)
(5.58905e-32 -1.61365e-34 0)
(5.58894e-32 -1.613e-34 0)
(5.5888e-32 -1.61218e-34 -1.13916e-59)
(5.58863e-32 -1.61115e-34 0)
(5.58841e-32 -1.60986e-34 -1.1368e-59)
(5.58814e-32 -1.60823e-34 0)
(5.5878e-32 -1.60616e-34 0)
(5.58736e-32 -1.60355e-34 -1.13038e-59)
(5.58681e-32 -1.60024e-34 0)
(5.58611e-32 -1.59602e-34 -1.12271e-59)
(5.58521e-32 -1.59063e-34 0)
(5.58407e-32 -1.58372e-34 0)
(5.58261e-32 -1.57482e-34 0)
(5.58072e-32 -1.56329e-34 1.08937e-59)
(5.57829e-32 -1.54826e-34 0)
(5.57512e-32 -1.52851e-34 -1.05395e-59)
(5.57098e-32 -1.5023e-34 0)
(5.56553e-32 -1.46706e-34 0)
(5.55829e-32 -1.41885e-34 0)
(5.54854e-32 -1.35139e-34 0)
(5.53518e-32 -1.25394e-34 0)
(5.51643e-32 -1.10656e-34 0)
(5.48911e-32 -8.67616e-35 0)
(5.44678e-32 -4.33824e-35 -1.3163e-60)
(5.37317e-32 5.25944e-35 0)
(5.21003e-32 3.5354e-34 0)
(1.13654e-33 -7.39043e-33 9.54786e-59)
(3.41666e-33 -7.36721e-33 -9.50977e-59)
(5.70446e-33 -7.32377e-33 0)
(7.99291e-33 -7.25988e-33 1.87286e-58)
(1.02747e-32 -7.1762e-33 0)
(1.2543e-32 -7.07596e-33 -9.13066e-59)
(1.47931e-32 -6.96263e-33 -1.79281e-58)
(1.70216e-32 -6.83886e-33 -1.75976e-58)
(1.9226e-32 -6.7049e-33 0)
(2.14029e-32 -6.55813e-33 -1.68513e-58)
(2.35469e-32 -6.3945e-33 8.23689e-59)
(2.56499e-32 -6.21108e-33 0)
(2.7703e-32 -6.00779e-33 0)
(2.96978e-32 -5.78696e-33 0)
(3.16272e-32 -5.55189e-33 0)
(3.34858e-32 -5.30545e-33 6.8176e-59)
(3.52688e-32 -5.0497e-33 0)
(3.69719e-32 -4.78633e-33 1.21978e-58)
(3.85913e-32 -4.51721e-33 0)
(4.01237e-32 -4.24471e-33 0)
(4.15667e-32 -3.97158e-33 -1.007e-58)
(4.29192e-32 -3.70067e-33 0)
(4.41811e-32 -3.43464e-33 8.6697e-59)
(4.53535e-32 -3.17579e-33 4.05108e-59)
(4.64382e-32 -2.92602e-33 -3.72698e-59)
(4.74377e-32 -2.68681e-33 3.41662e-59)
(4.83552e-32 -2.45926e-33 3.12143e-59)
(4.91941e-32 -2.24419e-33 0)
(4.99582e-32 -2.04216e-33 0)
(5.06518e-32 -1.85352e-33 -2.33583e-59)
(5.12789e-32 -1.6784e-33 -6.20518e-59)
(5.18441e-32 -1.51677e-33 0)
(5.23517e-32 -1.36839e-33 0)
(5.28063e-32 -1.23292e-33 -1.53117e-59)
(5.32121e-32 -1.10983e-33 0)
(5.35733e-32 -9.98522e-34 0)
(5.38941e-32 -8.983e-34 1.09741e-59)
(5.41782e-32 -8.08418e-34 0)
(5.44292e-32 -7.28097e-34 2.50187e-59)
(5.46504e-32 -6.56556e-34 1.56813e-59)
(5.4845e-32 -5.93021e-34 0)
(5.50157e-32 -5.36747e-34 0)
(5.51651e-32 -4.87024e-34 -1.99689e-59)
(5.52956e-32 -4.43186e-34 -1.76902e-59)
(5.54092e-32 -4.04612e-34 -1.56853e-59)
(5.5508e-32 -3.70734e-34 2.21972e-59)
(5.55935e-32 -3.41031e-34 7.50294e-60)
(5.56673e-32 -3.15033e-34 -4.20057e-60)
(5.57308e-32 -2.92313e-34 9.84916e-60)
(5.57852e-32 -2.7249e-34 -5.72666e-60)
(5.58316e-32 -2.55223e-34 0)
(5.5871e-32 -2.40208e-34 4.89017e-60)
(5.59042e-32 -2.27175e-34 1.10177e-59)
(5.5932e-32 -2.15884e-34 0)
(5.5955e-32 -2.06122e-34 0)
(5.59739e-32 -1.97702e-34 0)
(5.59892e-32 -1.90458e-34 3.60136e-60)
(5.60014e-32 -1.84243e-34 0)
(5.60109e-32 -1.78929e-34 3.96092e-60)
(5.60181e-32 -1.74402e-34 0)
(5.60232e-32 -1.70562e-34 3.52715e-60)
(5.60267e-32 -1.67319e-34 0)
(5.60286e-32 -1.64596e-34 -3.21825e-60)
(5.60293e-32 -1.62326e-34 0)
(5.6029e-32 -1.60447e-34 3.00366e-60)
(5.60277e-32 -1.58906e-34 -5.70903e-60)
(5.60258e-32 -1.57658e-34 0)
(5.60232e-32 -1.56662e-34 -2.80858e-60)
(5.60201e-32 -1.55881e-34 2.70685e-60)
(5.60167e-32 -1.55285e-34 2.69149e-60)
(5.6013e-32 -1.54846e-34 0)
(5.6009e-32 -1.5454e-34 -5.37265e-60)
(5.60049e-32 -1.54347e-34 2.66753e-60)
(5.60006e-32 -1.54248e-34 0)
(5.59963e-32 -1.54228e-34 -2.66465e-60)
(5.5992e-32 -1.54273e-34 -2.68798e-60)
(5.59877e-32 -1.54371e-34 0)
(5.59834e-32 -1.54512e-34 2.67233e-60)
(5.59792e-32 -1.54688e-34 0)
(5.59751e-32 -1.54891e-34 3.92098e-62)
(5.5971e-32 -1.55114e-34 0)
(5.59671e-32 -1.55352e-34 -5.1714e-62)
(5.59633e-32 -1.55601e-34 2.70092e-60)
(5.59596e-32 -1.55856e-34 5.4805e-60)
(5.59561e-32 -1.56115e-34 1.1002e-59)
(5.59527e-32 -1.56374e-34 -1.10429e-59)
(5.59494e-32 -1.56632e-34 0)
(5.59462e-32 -1.56886e-34 0)
(5.59432e-32 -1.57135e-34 0)
(5.59404e-32 -1.57379e-34 2.11983e-61)
(5.59376e-32 -1.57615e-34 -5.5072e-60)
(5.5935e-32 -1.57844e-34 5.51915e-60)
(5.59325e-32 -1.58064e-34 0)
(5.59302e-32 -1.58276e-34 -1.13433e-59)
(5.5928e-32 -1.58479e-34 -5.5523e-60)
(5.59259e-32 -1.58673e-34 -5.56244e-60)
(5.59239e-32 -1.58858e-34 0)
(5.5922e-32 -1.59034e-34 0)
(5.59202e-32 -1.59202e-34 0)
(5.59185e-32 -1.5936e-34 -5.59833e-60)
(5.59169e-32 -1.59511e-34 0)
(5.59154e-32 -1.59653e-34 -5.94676e-60)
(5.5914e-32 -1.59787e-34 -3.40255e-61)
(5.59127e-32 -1.59914e-34 5.97421e-60)
(5.59114e-32 -1.60033e-34 0)
(5.59103e-32 -1.60145e-34 1.16379e-59)
(5.59092e-32 -1.60251e-34 0)
(5.59082e-32 -1.6035e-34 6.02015e-60)
(5.59072e-32 -1.60443e-34 -1.16848e-59)
(5.59063e-32 -1.6053e-34 -1.16985e-59)
(5.59055e-32 -1.60611e-34 0)
(5.59047e-32 -1.60687e-34 -3.88122e-61)
(5.59039e-32 -1.60758e-34 6.06324e-60)
(5.59032e-32 -1.60825e-34 -5.67478e-60)
(5.59026e-32 -1.60887e-34 0)
(5.5902e-32 -1.60945e-34 -5.68101e-60)
(5.59015e-32 -1.60998e-34 4.04604e-61)
(5.59009e-32 -1.61048e-34 0)
(5.59005e-32 -1.61095e-34 6.09864e-60)
(5.59e-32 -1.61138e-34 6.10316e-60)
(5.58996e-32 -1.61178e-34 6.10737e-60)
(5.58992e-32 -1.61215e-34 0)
(5.58988e-32 -1.61249e-34 0)
(5.58985e-32 -1.61281e-34 0)
(5.58982e-32 -1.6131e-34 -1.18214e-59)
(5.58979e-32 -1.61337e-34 5.70152e-60)
(5.58977e-32 -1.61362e-34 0)
(5.58974e-32 -1.61385e-34 -6.12919e-60)
(5.58972e-32 -1.61405e-34 -6.13136e-60)
(5.5897e-32 -1.61424e-34 0)
(5.58968e-32 -1.61442e-34 1.14139e-59)
(5.58966e-32 -1.61457e-34 -1.22736e-59)
(5.58964e-32 -1.61471e-34 -1.1417e-59)
(5.58963e-32 -1.61483e-34 2.36975e-59)
(5.58961e-32 -1.61494e-34 0)
(5.5896e-32 -1.61503e-34 0)
(5.58958e-32 -1.6151e-34 0)
(5.58957e-32 -1.61516e-34 -1.14217e-59)
(5.58956e-32 -1.6152e-34 -2.37092e-59)
(5.58954e-32 -1.61522e-34 -1.22875e-59)
(5.58953e-32 -1.61521e-34 -1.14223e-59)
(5.58952e-32 -1.61519e-34 -2.3709e-59)
(5.58951e-32 -1.61513e-34 1.14215e-59)
(5.58949e-32 -1.61504e-34 0)
(5.58948e-32 -1.61491e-34 0)
(5.58946e-32 -1.61473e-34 2.36951e-59)
(5.58944e-32 -1.6145e-34 0)
(5.58942e-32 -1.61419e-34 0)
(5.58939e-32 -1.6138e-34 -1.22588e-59)
(5.58936e-32 -1.61331e-34 0)
(5.58932e-32 -1.61268e-34 -2.36323e-59)
(5.58927e-32 -1.6119e-34 -1.13883e-59)
(5.58922e-32 -1.61091e-34 0)
(5.58914e-32 -1.60967e-34 -2.35398e-59)
(5.58906e-32 -1.60812e-34 0)
(5.58895e-32 -1.60618e-34 0)
(5.58881e-32 -1.60374e-34 -1.13043e-59)
(5.58864e-32 -1.60067e-34 -1.199e-59)
(5.58843e-32 -1.5968e-34 -1.1233e-59)
(5.58816e-32 -1.59193e-34 0)
(5.58782e-32 -1.58578e-34 0)
(5.58739e-32 -1.57799e-34 -2.25651e-59)
(5.58685e-32 -1.56809e-34 0)
(5.58616e-32 -1.5555e-34 -2.18735e-59)
(5.58528e-32 -1.53942e-34 0)
(5.58415e-32 -1.5188e-34 0)
(5.58271e-32 -1.49224e-34 0)
(5.58086e-32 -1.45786e-34 9.80352e-60)
(5.57846e-32 -1.41306e-34 0)
(5.57535e-32 -1.35421e-34 -8.73703e-60)
(5.57128e-32 -1.27615e-34 0)
(5.56594e-32 -1.17128e-34 0)
(5.55885e-32 -1.02802e-34 -2.60428e-61)
(5.54932e-32 -8.27924e-35 -3.84142e-60)
(5.53633e-32 -5.39764e-35 0)
(5.51823e-32 -1.06296e-35 0)
(5.49221e-32 5.89292e-35 0)
(5.45312e-32 1.82345e-34 6.86064e-59)
(5.391e-32 4.3979e-34 0)
(5.29299e-32 1.13332e-33 -5.08719e-58)
(1.16506e-33 -1.23101e-32 6.36276e-58)
(3.50236e-33 -1.22705e-32 -8.33475e-62)
(5.84761e-33 -1.21966e-32 0)
(8.19259e-33 -1.20847e-32 1.94071e-61)
(1.05241e-32 -1.19284e-32 0)
(1.28307e-32 -1.17441e-32 0)
(1.51086e-32 -1.15422e-32 -5.94932e-58)
(1.73598e-32 -1.13337e-32 -2.92148e-58)
(1.95902e-32 -1.11205e-32 2.86069e-58)
(2.18036e-32 -1.08915e-32 -2.80508e-58)
(2.39944e-32 -1.06291e-32 0)
(2.61483e-32 -1.03219e-32 0)
(2.82478e-32 -9.97188e-33 -2.55765e-58)
(3.02797e-32 -9.58918e-33 -4.91458e-58)
(3.22369e-32 -9.18469e-33 4.70269e-58)
(3.41162e-32 -8.76475e-33 0)
(3.59152e-32 -8.33114e-33 4.25621e-58)
(3.76298e-32 -7.88433e-33 2.02028e-58)
(3.92554e-32 -7.42649e-33 0)
(4.07874e-32 -6.96205e-33 3.5415e-58)
(4.22231e-32 -6.49665e-33 -1.6594e-58)
(4.35614e-32 -6.03598e-33 -3.05881e-58)
(4.48034e-32 -5.58503e-33 1.42254e-58)
(4.59512e-32 -5.1478e-33 0)
(4.70077e-32 -4.72732e-33 2.37737e-58)
(4.79766e-32 -4.32582e-33 2.16843e-58)
(4.88617e-32 -3.94488e-33 0)
(4.96672e-32 -3.58566e-33 1.78338e-58)
(5.03976e-32 -3.24892e-33 0)
(5.10573e-32 -2.93513e-33 1.4451e-58)
(5.1651e-32 -2.64445e-33 -6.59184e-59)
(5.21837e-32 -2.37672e-33 0)
(5.26599e-32 -2.13152e-33 0)
(5.30846e-32 -1.90813e-33 0)
(5.34621e-32 -1.70563e-33 0)
(5.3797e-32 -1.5229e-33 0)
(5.40933e-32 -1.35871e-33 0)
(5.4355e-32 -1.21173e-33 5.49448e-59)
(5.45856e-32 -1.0806e-33 -2.27778e-59)
(5.47883e-32 -9.63984e-34 0)
(5.49662e-32 -8.60551e-34 0)
(5.5122e-32 -7.6904e-34 0)
(5.52582e-32 -6.88256e-34 -5.81177e-59)
(5.53768e-32 -6.17086e-34 -2.66729e-59)
(5.54801e-32 -5.54502e-34 -2.61976e-60)
(5.55696e-32 -4.99564e-34 2.62396e-60)
(5.5647e-32 -4.51414e-34 -1.54548e-59)
(5.57137e-32 -4.09281e-34 -1.58978e-59)
(5.5771e-32 -3.72469e-34 2.53452e-59)
(5.58199e-32 -3.40357e-34 9.68879e-60)
(5.58616e-32 -3.12389e-34 0)
(5.58968e-32 -2.8807e-34 6.97473e-60)
(5.59264e-32 -2.66963e-34 1.43995e-59)
(5.5951e-32 -2.48679e-34 0)
(5.59713e-32 -2.32874e-34 0)
(5.59879e-32 -2.19244e-34 -3.40363e-60)
(5.60011e-32 -2.0752e-34 0)
(5.60115e-32 -1.97465e-34 0)
(5.60195e-32 -1.88871e-34 8.13185e-60)
(5.60253e-32 -1.81552e-34 2.89946e-60)
(5.60293e-32 -1.75347e-34 3.77398e-60)
(5.60317e-32 -1.70112e-34 0)
(5.60328e-32 -1.65721e-34 -3.27597e-60)
(5.60327e-32 -1.62062e-34 0)
(5.60318e-32 -1.59039e-34 3.50048e-60)
(5.603e-32 -1.56566e-34 -2.80294e-60)
(5.60276e-32 -1.54566e-34 -1.08464e-61)
(5.60246e-32 -1.52974e-34 -2.56256e-60)
(5.60212e-32 -1.51732e-34 0)
(5.60175e-32 -1.50789e-34 -2.79185e-61)
(5.60135e-32 -1.50101e-34 0)
(5.60094e-32 -1.49629e-34 -2.84307e-60)
(5.60051e-32 -1.49338e-34 -4.25718e-61)
(5.60007e-32 -1.492e-34 -4.38686e-61)
(5.59963e-32 -1.49189e-34 4.38616e-61)
(5.59919e-32 -1.49283e-34 -2.85766e-60)
(5.59875e-32 -1.49463e-34 0)
(5.59832e-32 -1.49712e-34 0)
(5.59789e-32 -1.50016e-34 3.4813e-61)
(5.59747e-32 -1.50363e-34 2.79858e-60)
(5.59707e-32 -1.50743e-34 0)
(5.59667e-32 -1.51146e-34 -2.52873e-60)
(5.59629e-32 -1.51566e-34 0)
(5.59592e-32 -1.51996e-34 2.71126e-60)
(5.59557e-32 -1.5243e-34 5.1004e-60)
(5.59523e-32 -1.52865e-34 -5.19185e-60)
(5.5949e-32 -1.53297e-34 -4.77963e-64)
(5.59459e-32 -1.53722e-34 0)
(5.59429e-32 -1.54139e-34 -8.82912e-62)
(5.594e-32 -1.54545e-34 5.54515e-60)
(5.59373e-32 -1.5494e-34 0)
(5.59347e-32 -1.55321e-34 0)