/*--------------------------------*- C++ -*----------------------------------*\
  =========                 |
  \\      /  F ield         | OpenFOAM: The Open Source CFD Toolbox
   \\    /   O peration     | Website:  https://openfoam.org
    \\  /    A nd           | Version:  10
     \\/     M anipulation  |
\*---------------------------------------------------------------------------*/
FoamFile
{
    format      ascii;
    class       volScalarField;
    location    "1.62";
    object      p;
}
// * * * * * * * * * * * * * * * * * * * * * * * * * * * * * * * * * * * * * //

dimensions      [1 -1 -2 0 0 0 0];

internalField   nonuniform List<scalar> 
12225
(
1.65217e+07
1.64664e+07
1.63675e+07
1.6237e+07
1.60854e+07
1.59205e+07
1.57479e+07
1.55711e+07
1.53924e+07
1.52131e+07
1.50337e+07
1.48542e+07
1.4674e+07
1.4492e+07
1.43063e+07
1.41135e+07
1.39068e+07
1.36688e+07
1.65239e+07
1.64684e+07
1.63691e+07
1.62383e+07
1.60864e+07
1.59213e+07
1.57485e+07
1.55717e+07
1.5393e+07
1.52137e+07
1.50343e+07
1.48549e+07
1.46749e+07
1.44933e+07
1.43082e+07
1.41166e+07
1.39129e+07
1.36868e+07
1.65289e+07
1.64729e+07
1.63728e+07
1.62412e+07
1.60887e+07
1.59231e+07
1.575e+07
1.55729e+07
1.53942e+07
1.52149e+07
1.50357e+07
1.48565e+07
1.46769e+07
1.4496e+07
1.43122e+07
1.4123e+07
1.39249e+07
1.37141e+07
1.65372e+07
1.64803e+07
1.63789e+07
1.62461e+07
1.60924e+07
1.5926e+07
1.57524e+07
1.5575e+07
1.53961e+07
1.52169e+07
1.50378e+07
1.48591e+07
1.46802e+07
1.45005e+07
1.43186e+07
1.4133e+07
1.39419e+07
1.37461e+07
1.65494e+07
1.64912e+07
1.63879e+07
1.62531e+07
1.60979e+07
1.59303e+07
1.57559e+07
1.5578e+07
1.53989e+07
1.52197e+07
1.5041e+07
1.48629e+07
1.4685e+07
1.45068e+07
1.43275e+07
1.41463e+07
1.39629e+07
1.37803e+07
1.65665e+07
1.65064e+07
1.64004e+07
1.62629e+07
1.61054e+07
1.59362e+07
1.57606e+07
1.55821e+07
1.54027e+07
1.52236e+07
1.50453e+07
1.48679e+07
1.46913e+07
1.45151e+07
1.4339e+07
1.41626e+07
1.39871e+07
1.38156e+07
1.65895e+07
1.65267e+07
1.64169e+07
1.62757e+07
1.61152e+07
1.59437e+07
1.57667e+07
1.55873e+07
1.54075e+07
1.52285e+07
1.50507e+07
1.48744e+07
1.46994e+07
1.45255e+07
1.43529e+07
1.41818e+07
1.40136e+07
1.38515e+07
1.66197e+07
1.65531e+07
1.64381e+07
1.6292e+07
1.61276e+07
1.59533e+07
1.57743e+07
1.55938e+07
1.54136e+07
1.52347e+07
1.50575e+07
1.48823e+07
1.47091e+07
1.4538e+07
1.43691e+07
1.42032e+07
1.40418e+07
1.38876e+07
1.66587e+07
1.6587e+07
1.6465e+07
1.63124e+07
1.61428e+07
1.59649e+07
1.57835e+07
1.56017e+07
1.54209e+07
1.52421e+07
1.50657e+07
1.48918e+07
1.47207e+07
1.45525e+07
1.43875e+07
1.42267e+07
1.40715e+07
1.39239e+07
1.67088e+07
1.66298e+07
1.64983e+07
1.63372e+07
1.61612e+07
1.59787e+07
1.57945e+07
1.56109e+07
1.54295e+07
1.52508e+07
1.50752e+07
1.49028e+07
1.47339e+07
1.45687e+07
1.44077e+07
1.42518e+07
1.4102e+07
1.39601e+07
1.67728e+07
1.66834e+07
1.6539e+07
1.63669e+07
1.61827e+07
1.59947e+07
1.5807e+07
1.56215e+07
1.54393e+07
1.52607e+07
1.5086e+07
1.49153e+07
1.47488e+07
1.45867e+07
1.44295e+07
1.42781e+07
1.41333e+07
1.39962e+07
1.68481e+07
1.67446e+07
1.65839e+07
1.63986e+07
1.62052e+07
1.60112e+07
1.58198e+07
1.56323e+07
1.54492e+07
1.52708e+07
1.5097e+07
1.49279e+07
1.47636e+07
1.46044e+07
1.44506e+07
1.4303e+07
1.41622e+07
1.40291e+07
1.69407e+07
1.68171e+07
1.66352e+07
1.64338e+07
1.62295e+07
1.60287e+07
1.58332e+07
1.56436e+07
1.54597e+07
1.52815e+07
1.51087e+07
1.49412e+07
1.47792e+07
1.46227e+07
1.44723e+07
1.43282e+07
1.4191e+07
1.40613e+07
1.70774e+07
1.69178e+07
1.67022e+07
1.64776e+07
1.62588e+07
1.60493e+07
1.58489e+07
1.56567e+07
1.54721e+07
1.52941e+07
1.51226e+07
1.49571e+07
1.47977e+07
1.46444e+07
1.44974e+07
1.43571e+07
1.42237e+07
1.40975e+07
1.729e+07
1.70577e+07
1.67868e+07
1.6529e+07
1.62915e+07
1.60716e+07
1.58656e+07
1.56709e+07
1.54856e+07
1.53084e+07
1.51385e+07
1.49755e+07
1.48191e+07
1.46692e+07
1.4526e+07
1.43896e+07
1.426e+07
1.41374e+07
1.76484e+07
1.72441e+07
1.68811e+07
1.65797e+07
1.63212e+07
1.60909e+07
1.58801e+07
1.56837e+07
1.54986e+07
1.53228e+07
1.51553e+07
1.49953e+07
1.48424e+07
1.46964e+07
1.45573e+07
1.44248e+07
1.42991e+07
1.41801e+07
1.83406e+07
1.74306e+07
1.6942e+07
1.66029e+07
1.63313e+07
1.60966e+07
1.58851e+07
1.56899e+07
1.55072e+07
1.53345e+07
1.51706e+07
1.50146e+07
1.4866e+07
1.47244e+07
1.45895e+07
1.44613e+07
1.43396e+07
1.42242e+07
1.74881e+07
1.71503e+07
1.68214e+07
1.65377e+07
1.62907e+07
1.607e+07
1.58682e+07
1.56807e+07
1.55046e+07
1.53381e+07
1.51801e+07
1.50297e+07
1.48865e+07
1.475e+07
1.46201e+07
1.44965e+07
1.4379e+07
1.42674e+07
1.69147e+07
1.67764e+07
1.65864e+07
1.63855e+07
1.61883e+07
1.59993e+07
1.58193e+07
1.56477e+07
1.54841e+07
1.53279e+07
1.51787e+07
1.5036e+07
1.48997e+07
1.47696e+07
1.46453e+07
1.45269e+07
1.4414e+07
1.43066e+07
1.65868e+07
1.65077e+07
1.63819e+07
1.62331e+07
1.60752e+07
1.59153e+07
1.57571e+07
1.56023e+07
1.5452e+07
1.53066e+07
1.51663e+07
1.50313e+07
1.49016e+07
1.47772e+07
1.4658e+07
1.4544e+07
1.44351e+07
1.4331e+07
1.63994e+07
1.63426e+07
1.62461e+07
1.61252e+07
1.59909e+07
1.58501e+07
1.57071e+07
1.55645e+07
1.54241e+07
1.52867e+07
1.51531e+07
1.50238e+07
1.48989e+07
1.47787e+07
1.46631e+07
1.45523e+07
1.44461e+07
1.43445e+07
1.62753e+07
1.62296e+07
1.61493e+07
1.60454e+07
1.59264e+07
1.57988e+07
1.56668e+07
1.55333e+07
1.54003e+07
1.52692e+07
1.51408e+07
1.50159e+07
1.48948e+07
1.47777e+07
1.4665e+07
1.45566e+07
1.44525e+07
1.43527e+07
1.61913e+07
1.61518e+07
1.60811e+07
1.59877e+07
1.58789e+07
1.57602e+07
1.56359e+07
1.5509e+07
1.53815e+07
1.52549e+07
1.51305e+07
1.50088e+07
1.48905e+07
1.47759e+07
1.46652e+07
1.45586e+07
1.44561e+07
1.43577e+07
1.61341e+07
1.60983e+07
1.60335e+07
1.59468e+07
1.58447e+07
1.57321e+07
1.56132e+07
1.54908e+07
1.53672e+07
1.5244e+07
1.51223e+07
1.50031e+07
1.48868e+07
1.4774e+07
1.46648e+07
1.45595e+07
1.44581e+07
1.43607e+07
1.60954e+07
1.60618e+07
1.60008e+07
1.59185e+07
1.58207e+07
1.57123e+07
1.5597e+07
1.54778e+07
1.53569e+07
1.5236e+07
1.51163e+07
1.49987e+07
1.48839e+07
1.47723e+07
1.46642e+07
1.45598e+07
1.44592e+07
1.43625e+07
1.60697e+07
1.60375e+07
1.59788e+07
1.58994e+07
1.58045e+07
1.56987e+07
1.55858e+07
1.54688e+07
1.53497e+07
1.52304e+07
1.5112e+07
1.49956e+07
1.48817e+07
1.4771e+07
1.46636e+07
1.45598e+07
1.44598e+07
1.43635e+07
1.60531e+07
1.60219e+07
1.59647e+07
1.58869e+07
1.57938e+07
1.56898e+07
1.55785e+07
1.54628e+07
1.53449e+07
1.52266e+07
1.51091e+07
1.49934e+07
1.48802e+07
1.477e+07
1.46631e+07
1.45598e+07
1.44601e+07
1.43641e+07
1.60431e+07
1.60124e+07
1.5956e+07
1.58794e+07
1.57873e+07
1.56844e+07
1.5574e+07
1.54591e+07
1.5342e+07
1.52243e+07
1.51073e+07
1.49921e+07
1.48793e+07
1.47694e+07
1.46628e+07
1.45597e+07
1.44602e+07
1.43645e+07
1.60377e+07
1.60073e+07
1.59514e+07
1.58752e+07
1.57838e+07
1.56814e+07
1.55715e+07
1.54571e+07
1.53403e+07
1.5223e+07
1.51063e+07
1.49913e+07
1.48787e+07
1.4769e+07
1.46626e+07
1.45596e+07
1.44603e+07
1.43646e+07
1.60355e+07
1.60052e+07
1.59494e+07
1.58736e+07
1.57824e+07
1.56802e+07
1.55705e+07
1.54562e+07
1.53396e+07
1.52224e+07
1.51059e+07
1.4991e+07
1.48785e+07
1.47689e+07
1.46625e+07
1.45596e+07
1.44603e+07
1.43647e+07
1.0791e+07
1.07909e+07
1.07905e+07
1.079e+07
1.07894e+07
1.07887e+07
1.07877e+07
1.07867e+07
1.07855e+07
1.07843e+07
1.07829e+07
1.07815e+07
1.078e+07
1.07784e+07
1.07766e+07
1.07748e+07
1.07729e+07
1.07709e+07
1.07689e+07
1.07668e+07
1.07646e+07
1.07623e+07
1.076e+07
1.07576e+07
1.07552e+07
1.07528e+07
1.07503e+07
1.07478e+07
1.07453e+07
1.07428e+07
1.07402e+07
1.07377e+07
1.07351e+07
1.07326e+07
1.073e+07
1.07275e+07
1.0725e+07
1.07224e+07
1.07199e+07
1.07174e+07
1.0715e+07
1.07125e+07
1.071e+07
1.07076e+07
1.07051e+07
1.07027e+07
1.07003e+07
1.06978e+07
1.06954e+07
1.0693e+07
1.06906e+07
1.06882e+07
1.06859e+07
1.06835e+07
1.06811e+07
1.06787e+07
1.06764e+07
1.0674e+07
1.06716e+07
1.06692e+07
1.06669e+07
1.06645e+07
1.06621e+07
1.06597e+07
1.06574e+07
1.0655e+07
1.06526e+07
1.06502e+07
1.06478e+07
1.06454e+07
1.0643e+07
1.06405e+07
1.06381e+07
1.06356e+07
1.06332e+07
1.06307e+07
1.06283e+07
1.06258e+07
1.06233e+07
1.06208e+07
1.06183e+07
1.06157e+07
1.06132e+07
1.06106e+07
1.0608e+07
1.06055e+07
1.06029e+07
1.06002e+07
1.05976e+07
1.0595e+07
1.05923e+07
1.05896e+07
1.05869e+07
1.05842e+07
1.05815e+07
1.05787e+07
1.0576e+07
1.05732e+07
1.05704e+07
1.05675e+07
1.05647e+07
1.05618e+07
1.05589e+07
1.0556e+07
1.05531e+07
1.05502e+07
1.05472e+07
1.05442e+07
1.05412e+07
1.05382e+07
1.05351e+07
1.05321e+07
1.0529e+07
1.05258e+07
1.05227e+07
1.05195e+07
1.05163e+07
1.05131e+07
1.05099e+07
1.05066e+07
1.05033e+07
1.05e+07
1.04967e+07
1.04933e+07
1.04899e+07
1.04865e+07
1.04831e+07
1.04796e+07
1.04761e+07
1.04726e+07
1.04691e+07
1.04655e+07
1.04619e+07
1.04583e+07
1.04546e+07
1.04509e+07
1.04472e+07
1.04435e+07
1.04397e+07
1.04359e+07
1.04321e+07
1.04282e+07
1.04243e+07
1.04204e+07
1.04164e+07
1.04125e+07
1.04084e+07
1.04044e+07
1.04003e+07
1.03962e+07
1.03921e+07
1.03879e+07
1.03837e+07
1.03795e+07
1.03752e+07
1.03709e+07
1.03666e+07
1.03622e+07
1.03578e+07
1.03534e+07
1.03489e+07
1.03444e+07
1.03399e+07
1.03353e+07
1.03307e+07
1.03261e+07
1.03214e+07
1.03167e+07
1.03119e+07
1.03072e+07
1.03023e+07
1.02975e+07
1.02926e+07
1.02877e+07
1.02828e+07
1.02778e+07
1.02728e+07
1.02678e+07
1.02628e+07
1.02579e+07
1.07918e+07
1.07916e+07
1.07913e+07
1.07907e+07
1.079e+07
1.07892e+07
1.07883e+07
1.07872e+07
1.07859e+07
1.07846e+07
1.07832e+07
1.07818e+07
1.07803e+07
1.07787e+07
1.07769e+07
1.07751e+07
1.07732e+07
1.07712e+07
1.07691e+07
1.07669e+07
1.07647e+07
1.07624e+07
1.07601e+07
1.07577e+07
1.07553e+07
1.07528e+07
1.07503e+07
1.07478e+07
1.07453e+07
1.07427e+07
1.07402e+07
1.07376e+07
1.07351e+07
1.07325e+07
1.073e+07
1.07274e+07
1.07249e+07
1.07224e+07
1.07199e+07
1.07174e+07
1.07149e+07
1.07124e+07
1.07099e+07
1.07075e+07
1.0705e+07
1.07026e+07
1.07002e+07
1.06978e+07
1.06954e+07
1.0693e+07
1.06906e+07
1.06882e+07
1.06858e+07
1.06834e+07
1.06811e+07
1.06787e+07
1.06763e+07
1.0674e+07
1.06716e+07
1.06692e+07
1.06668e+07
1.06645e+07
1.06621e+07
1.06597e+07
1.06573e+07
1.0655e+07
1.06526e+07
1.06502e+07
1.06478e+07
1.06454e+07
1.06429e+07
1.06405e+07
1.06381e+07
1.06356e+07
1.06332e+07
1.06307e+07
1.06282e+07
1.06258e+07
1.06233e+07
1.06208e+07
1.06182e+07
1.06157e+07
1.06132e+07
1.06106e+07
1.0608e+07
1.06054e+07
1.06028e+07
1.06002e+07
1.05976e+07
1.05949e+07
1.05923e+07
1.05896e+07
1.05869e+07
1.05842e+07
1.05815e+07
1.05787e+07
1.05759e+07
1.05732e+07
1.05704e+07
1.05675e+07
1.05647e+07
1.05618e+07
1.05589e+07
1.0556e+07
1.05531e+07
1.05502e+07
1.05472e+07
1.05442e+07
1.05412e+07
1.05382e+07
1.05351e+07
1.05321e+07
1.0529e+07
1.05258e+07
1.05227e+07
1.05195e+07
1.05163e+07
1.05131e+07
1.05099e+07
1.05066e+07
1.05033e+07
1.05e+07
1.04967e+07
1.04933e+07
1.04899e+07
1.04865e+07
1.04831e+07
1.04796e+07
1.04761e+07
1.04726e+07
1.04691e+07
1.04655e+07
1.04619e+07
1.04582e+07
1.04546e+07
1.04509e+07
1.04472e+07
1.04435e+07
1.04397e+07
1.04359e+07
1.04321e+07
1.04282e+07
1.04243e+07
1.04204e+07
1.04164e+07
1.04125e+07
1.04084e+07
1.04044e+07
1.04003e+07
1.03962e+07
1.03921e+07
1.03879e+07
1.03837e+07
1.03795e+07
1.03752e+07
1.03709e+07
1.03666e+07
1.03622e+07
1.03578e+07
1.03534e+07
1.03489e+07
1.03444e+07
1.03399e+07
1.03353e+07
1.03307e+07
1.03261e+07
1.03214e+07
1.03167e+07
1.03119e+07
1.03071e+07
1.03023e+07
1.02975e+07
1.02926e+07
1.02877e+07
1.02828e+07
1.02778e+07
1.02728e+07
1.02678e+07
1.02628e+07
1.02579e+07
1.08426e+07
1.08407e+07
1.08368e+07
1.083e+07
1.08206e+07
1.08058e+07
1.07943e+07
1.0789e+07
1.07865e+07
1.0785e+07
1.07836e+07
1.07822e+07
1.07809e+07
1.07794e+07
1.07776e+07
1.07757e+07
1.07736e+07
1.07715e+07
1.07694e+07
1.07673e+07
1.0765e+07
1.07627e+07
1.07603e+07
1.07578e+07
1.07554e+07
1.07529e+07
1.07504e+07
1.07478e+07
1.07453e+07
1.07427e+07
1.07401e+07
1.07375e+07
1.07349e+07
1.07324e+07
1.07298e+07
1.07273e+07
1.07247e+07
1.07222e+07
1.07197e+07
1.07172e+07
1.07147e+07
1.07123e+07
1.07098e+07
1.07074e+07
1.07049e+07
1.07025e+07
1.07001e+07
1.06977e+07
1.06953e+07
1.06929e+07
1.06905e+07
1.06881e+07
1.06857e+07
1.06834e+07
1.0681e+07
1.06786e+07
1.06762e+07
1.06739e+07
1.06715e+07
1.06692e+07
1.06668e+07
1.06644e+07
1.0662e+07
1.06597e+07
1.06573e+07
1.06549e+07
1.06525e+07
1.06501e+07
1.06477e+07
1.06453e+07
1.06429e+07
1.06405e+07
1.0638e+07
1.06356e+07
1.06332e+07
1.06307e+07
1.06282e+07
1.06257e+07
1.06232e+07
1.06207e+07
1.06182e+07
1.06157e+07
1.06131e+07
1.06106e+07
1.0608e+07
1.06054e+07
1.06028e+07
1.06002e+07
1.05976e+07
1.05949e+07
1.05923e+07
1.05896e+07
1.05869e+07
1.05842e+07
1.05815e+07
1.05787e+07
1.05759e+07
1.05732e+07
1.05703e+07
1.05675e+07
1.05647e+07
1.05618e+07
1.05589e+07
1.0556e+07
1.05531e+07
1.05502e+07
1.05472e+07
1.05442e+07
1.05412e+07
1.05382e+07
1.05351e+07
1.0532e+07
1.05289e+07
1.05258e+07
1.05227e+07
1.05195e+07
1.05163e+07
1.05131e+07
1.05099e+07
1.05066e+07
1.05033e+07
1.05e+07
1.04967e+07
1.04933e+07
1.04899e+07
1.04865e+07
1.04831e+07
1.04796e+07
1.04761e+07
1.04726e+07
1.0469e+07
1.04655e+07
1.04619e+07
1.04582e+07
1.04546e+07
1.04509e+07
1.04472e+07
1.04434e+07
1.04397e+07
1.04359e+07
1.0432e+07
1.04282e+07
1.04243e+07
1.04204e+07
1.04164e+07
1.04125e+07
1.04084e+07
1.04044e+07
1.04003e+07
1.03962e+07
1.03921e+07
1.03879e+07
1.03837e+07
1.03795e+07
1.03752e+07
1.03709e+07
1.03666e+07
1.03622e+07
1.03578e+07
1.03534e+07
1.03489e+07
1.03444e+07
1.03399e+07
1.03353e+07
1.03307e+07
1.03261e+07
1.03214e+07
1.03167e+07
1.03119e+07
1.03071e+07
1.03023e+07
1.02975e+07
1.02926e+07
1.02877e+07
1.02827e+07
1.02778e+07
1.02728e+07
1.02678e+07
1.02628e+07
1.02578e+07
1.09165e+07
1.09152e+07
1.09125e+07
1.09086e+07
1.09039e+07
1.08989e+07
1.08962e+07
1.08984e+07
1.09093e+07
1.09075e+07
1.08938e+07
1.08665e+07
1.08209e+07
1.07846e+07
1.07791e+07
1.07764e+07
1.07742e+07
1.0772e+07
1.07699e+07
1.07678e+07
1.07655e+07
1.0763e+07
1.07605e+07
1.0758e+07
1.07556e+07
1.0753e+07
1.07504e+07
1.07478e+07
1.07452e+07
1.07426e+07
1.074e+07
1.07374e+07
1.07348e+07
1.07322e+07
1.07296e+07
1.0727e+07
1.07245e+07
1.0722e+07
1.07195e+07
1.0717e+07
1.07145e+07
1.0712e+07
1.07096e+07
1.07072e+07
1.07047e+07
1.07023e+07
1.06999e+07
1.06975e+07
1.06951e+07
1.06927e+07
1.06903e+07
1.0688e+07
1.06856e+07
1.06832e+07
1.06809e+07
1.06785e+07
1.06761e+07
1.06738e+07
1.06714e+07
1.06691e+07
1.06667e+07
1.06643e+07
1.0662e+07
1.06596e+07
1.06572e+07
1.06548e+07
1.06525e+07
1.06501e+07
1.06477e+07
1.06453e+07
1.06429e+07
1.06404e+07
1.0638e+07
1.06356e+07
1.06331e+07
1.06307e+07
1.06282e+07
1.06257e+07
1.06232e+07
1.06207e+07
1.06182e+07
1.06157e+07
1.06131e+07
1.06106e+07
1.0608e+07
1.06054e+07
1.06028e+07
1.06002e+07
1.05976e+07
1.05949e+07
1.05923e+07
1.05896e+07
1.05869e+07
1.05842e+07
1.05814e+07
1.05787e+07
1.05759e+07
1.05731e+07
1.05703e+07
1.05675e+07
1.05647e+07
1.05618e+07
1.05589e+07
1.0556e+07
1.05531e+07
1.05502e+07
1.05472e+07
1.05442e+07
1.05412e+07
1.05382e+07
1.05351e+07
1.0532e+07
1.05289e+07
1.05258e+07
1.05227e+07
1.05195e+07
1.05163e+07
1.05131e+07
1.05099e+07
1.05066e+07
1.05033e+07
1.05e+07
1.04967e+07
1.04933e+07
1.04899e+07
1.04865e+07
1.04831e+07
1.04796e+07
1.04761e+07
1.04726e+07
1.0469e+07
1.04655e+07
1.04619e+07
1.04582e+07
1.04546e+07
1.04509e+07
1.04472e+07
1.04434e+07
1.04397e+07
1.04359e+07
1.0432e+07
1.04282e+07
1.04243e+07
1.04204e+07
1.04164e+07
1.04125e+07
1.04084e+07
1.04044e+07
1.04003e+07
1.03962e+07
1.03921e+07
1.03879e+07
1.03837e+07
1.03795e+07
1.03752e+07
1.03709e+07
1.03666e+07
1.03622e+07
1.03578e+07
1.03534e+07
1.03489e+07
1.03444e+07
1.03399e+07
1.03353e+07
1.03307e+07
1.03261e+07
1.03214e+07
1.03167e+07
1.03119e+07
1.03071e+07
1.03023e+07
1.02975e+07
1.02926e+07
1.02877e+07
1.02827e+07
1.02778e+07
1.02728e+07
1.02678e+07
1.02627e+07
1.02577e+07
1.0991e+07
1.09899e+07
1.09879e+07
1.09851e+07
1.09817e+07
1.09779e+07
1.09742e+07
1.09708e+07
1.09669e+07
1.09597e+07
1.09482e+07
1.09327e+07
1.09153e+07
1.09021e+07
1.08989e+07
1.09086e+07
1.09036e+07
1.08851e+07
1.08507e+07
1.07934e+07
1.07675e+07
1.07631e+07
1.07607e+07
1.07583e+07
1.07558e+07
1.07532e+07
1.07504e+07
1.07477e+07
1.07451e+07
1.07424e+07
1.07398e+07
1.07371e+07
1.07345e+07
1.07319e+07
1.07293e+07
1.07267e+07
1.07242e+07
1.07217e+07
1.07192e+07
1.07167e+07
1.07142e+07
1.07118e+07
1.07093e+07
1.07069e+07
1.07045e+07
1.07021e+07
1.06997e+07
1.06973e+07
1.06949e+07
1.06925e+07
1.06901e+07
1.06878e+07
1.06854e+07
1.06831e+07
1.06807e+07
1.06784e+07
1.0676e+07
1.06736e+07
1.06713e+07
1.06689e+07
1.06666e+07
1.06642e+07
1.06619e+07
1.06595e+07
1.06571e+07
1.06548e+07
1.06524e+07
1.065e+07
1.06476e+07
1.06452e+07
1.06428e+07
1.06404e+07
1.06379e+07
1.06355e+07
1.06331e+07
1.06306e+07
1.06281e+07
1.06257e+07
1.06232e+07
1.06207e+07
1.06182e+07
1.06156e+07
1.06131e+07
1.06105e+07
1.0608e+07
1.06054e+07
1.06028e+07
1.06002e+07
1.05975e+07
1.05949e+07
1.05922e+07
1.05896e+07
1.05869e+07
1.05842e+07
1.05814e+07
1.05787e+07
1.05759e+07
1.05731e+07
1.05703e+07
1.05675e+07
1.05647e+07
1.05618e+07
1.05589e+07
1.0556e+07
1.05531e+07
1.05501e+07
1.05472e+07
1.05442e+07
1.05412e+07
1.05382e+07
1.05351e+07
1.0532e+07
1.05289e+07
1.05258e+07
1.05227e+07
1.05195e+07
1.05163e+07
1.05131e+07
1.05099e+07
1.05066e+07
1.05033e+07
1.05e+07
1.04967e+07
1.04933e+07
1.04899e+07
1.04865e+07
1.04831e+07
1.04796e+07
1.04761e+07
1.04726e+07
1.0469e+07
1.04655e+07
1.04619e+07
1.04582e+07
1.04546e+07
1.04509e+07
1.04472e+07
1.04434e+07
1.04397e+07
1.04359e+07
1.0432e+07
1.04282e+07
1.04243e+07
1.04204e+07
1.04164e+07
1.04124e+07
1.04084e+07
1.04044e+07
1.04003e+07
1.03962e+07
1.03921e+07
1.03879e+07
1.03837e+07
1.03795e+07
1.03752e+07
1.03709e+07
1.03666e+07
1.03622e+07
1.03578e+07
1.03534e+07
1.03489e+07
1.03444e+07
1.03399e+07
1.03353e+07
1.03307e+07
1.03261e+07
1.03214e+07
1.03167e+07
1.03119e+07
1.03071e+07
1.03023e+07
1.02975e+07
1.02926e+07
1.02877e+07
1.02827e+07
1.02777e+07
1.02727e+07
1.02677e+07
1.02627e+07
1.02576e+07
1.10667e+07
1.10657e+07
1.10639e+07
1.10612e+07
1.10578e+07
1.10537e+07
1.10489e+07
1.10433e+07
1.10365e+07
1.10282e+07
1.10182e+07
1.10067e+07
1.09947e+07
1.09836e+07
1.09743e+07
1.09657e+07
1.09541e+07
1.0938e+07
1.09178e+07
1.08965e+07
1.08837e+07
1.08846e+07
1.08702e+07
1.08404e+07
1.07903e+07
1.07541e+07
1.075e+07
1.07476e+07
1.0745e+07
1.07422e+07
1.07394e+07
1.07367e+07
1.07341e+07
1.07314e+07
1.07288e+07
1.07263e+07
1.07238e+07
1.07212e+07
1.07188e+07
1.07163e+07
1.07138e+07
1.07114e+07
1.0709e+07
1.07065e+07
1.07041e+07
1.07017e+07
1.06994e+07
1.0697e+07
1.06946e+07
1.06923e+07
1.06899e+07
1.06875e+07
1.06852e+07
1.06829e+07
1.06805e+07
1.06782e+07
1.06758e+07
1.06735e+07
1.06711e+07
1.06688e+07
1.06664e+07
1.06641e+07
1.06617e+07
1.06594e+07
1.0657e+07
1.06547e+07
1.06523e+07
1.06499e+07
1.06475e+07
1.06451e+07
1.06427e+07
1.06403e+07
1.06379e+07
1.06354e+07
1.0633e+07
1.06305e+07
1.06281e+07
1.06256e+07
1.06231e+07
1.06206e+07
1.06181e+07
1.06156e+07
1.06131e+07
1.06105e+07
1.06079e+07
1.06054e+07
1.06028e+07
1.06001e+07
1.05975e+07
1.05949e+07
1.05922e+07
1.05895e+07
1.05868e+07
1.05841e+07
1.05814e+07
1.05787e+07
1.05759e+07
1.05731e+07
1.05703e+07
1.05675e+07
1.05646e+07
1.05618e+07
1.05589e+07
1.0556e+07
1.05531e+07
1.05501e+07
1.05472e+07
1.05442e+07
1.05412e+07
1.05382e+07
1.05351e+07
1.0532e+07
1.05289e+07
1.05258e+07
1.05227e+07
1.05195e+07
1.05163e+07
1.05131e+07
1.05099e+07
1.05066e+07
1.05033e+07
1.05e+07
1.04967e+07
1.04933e+07
1.04899e+07
1.04865e+07
1.04831e+07
1.04796e+07
1.04761e+07
1.04726e+07
1.0469e+07
1.04655e+07
1.04619e+07
1.04582e+07
1.04546e+07
1.04509e+07
1.04472e+07
1.04434e+07
1.04397e+07
1.04359e+07
1.0432e+07
1.04282e+07
1.04243e+07
1.04204e+07
1.04164e+07
1.04124e+07
1.04084e+07
1.04044e+07
1.04003e+07
1.03962e+07
1.03921e+07
1.03879e+07
1.03837e+07
1.03795e+07
1.03752e+07
1.03709e+07
1.03666e+07
1.03622e+07
1.03578e+07
1.03534e+07
1.03489e+07
1.03444e+07
1.03399e+07
1.03353e+07
1.03307e+07
1.0326e+07
1.03214e+07
1.03167e+07
1.03119e+07
1.03071e+07
1.03023e+07
1.02975e+07
1.02926e+07
1.02877e+07
1.02827e+07
1.02777e+07
1.02727e+07
1.02677e+07
1.02626e+07
1.02575e+07
1.11443e+07
1.11433e+07
1.11414e+07
1.11386e+07
1.11349e+07
1.11304e+07
1.11249e+07
1.11185e+07
1.1111e+07
1.11024e+07
1.10926e+07
1.10819e+07
1.10705e+07
1.10588e+07
1.10468e+07
1.10342e+07
1.10203e+07
1.10048e+07
1.09879e+07
1.09708e+07
1.09546e+07
1.09392e+07
1.09205e+07
1.08974e+07
1.08714e+07
1.08491e+07
1.08354e+07
1.08041e+07
1.07513e+07
1.07416e+07
1.07389e+07
1.07362e+07
1.07335e+07
1.07309e+07
1.07283e+07
1.07257e+07
1.07232e+07
1.07207e+07
1.07183e+07
1.07158e+07
1.07134e+07
1.07109e+07
1.07085e+07
1.07061e+07
1.07038e+07
1.07014e+07
1.0699e+07
1.06967e+07
1.06943e+07
1.0692e+07
1.06896e+07
1.06873e+07
1.06849e+07
1.06826e+07
1.06803e+07
1.06779e+07
1.06756e+07
1.06733e+07
1.0671e+07
1.06686e+07
1.06663e+07
1.06639e+07
1.06616e+07
1.06592e+07
1.06569e+07
1.06545e+07
1.06522e+07
1.06498e+07
1.06474e+07
1.0645e+07
1.06426e+07
1.06402e+07
1.06378e+07
1.06354e+07
1.06329e+07
1.06305e+07
1.0628e+07
1.06255e+07
1.06231e+07
1.06206e+07
1.06181e+07
1.06155e+07
1.0613e+07
1.06105e+07
1.06079e+07
1.06053e+07
1.06027e+07
1.06001e+07
1.05975e+07
1.05948e+07
1.05922e+07
1.05895e+07
1.05868e+07
1.05841e+07
1.05814e+07
1.05786e+07
1.05759e+07
1.05731e+07
1.05703e+07
1.05675e+07
1.05646e+07
1.05618e+07
1.05589e+07
1.0556e+07
1.05531e+07
1.05501e+07
1.05472e+07
1.05442e+07
1.05412e+07
1.05381e+07
1.05351e+07
1.0532e+07
1.05289e+07
1.05258e+07
1.05227e+07
1.05195e+07
1.05163e+07
1.05131e+07
1.05099e+07
1.05066e+07
1.05033e+07
1.05e+07
1.04967e+07
1.04933e+07
1.04899e+07
1.04865e+07
1.04831e+07
1.04796e+07
1.04761e+07
1.04726e+07
1.0469e+07
1.04655e+07
1.04619e+07
1.04582e+07
1.04546e+07
1.04509e+07
1.04472e+07
1.04434e+07
1.04397e+07
1.04359e+07
1.0432e+07
1.04282e+07
1.04243e+07
1.04204e+07
1.04164e+07
1.04124e+07
1.04084e+07
1.04044e+07
1.04003e+07
1.03962e+07
1.03921e+07
1.03879e+07
1.03837e+07
1.03795e+07
1.03752e+07
1.03709e+07
1.03666e+07
1.03622e+07
1.03578e+07
1.03534e+07
1.03489e+07
1.03444e+07
1.03399e+07
1.03353e+07
1.03307e+07
1.0326e+07
1.03214e+07
1.03167e+07
1.03119e+07
1.03071e+07
1.03023e+07
1.02974e+07
1.02926e+07
1.02876e+07
1.02827e+07
1.02777e+07
1.02727e+07
1.02676e+07
1.02626e+07
1.02575e+07
1.12242e+07
1.12231e+07
1.1221e+07
1.1218e+07
1.12141e+07
1.12092e+07
1.12033e+07
1.11964e+07
1.11884e+07
1.11794e+07
1.11694e+07
1.11585e+07
1.11467e+07
1.11342e+07
1.11208e+07
1.11067e+07
1.10916e+07
1.10755e+07
1.10585e+07
1.10407e+07
1.10225e+07
1.10035e+07
1.09831e+07
1.0961e+07
1.09378e+07
1.09143e+07
1.08904e+07
1.0863e+07
1.08328e+07
1.08061e+07
1.07765e+07
1.07361e+07
1.07325e+07
1.07302e+07
1.07276e+07
1.07251e+07
1.07226e+07
1.07201e+07
1.07177e+07
1.07152e+07
1.07128e+07
1.07104e+07
1.0708e+07
1.07057e+07
1.07033e+07
1.0701e+07
1.06986e+07
1.06963e+07
1.06939e+07
1.06916e+07
1.06893e+07
1.0687e+07
1.06846e+07
1.06823e+07
1.068e+07
1.06777e+07
1.06754e+07
1.06731e+07
1.06707e+07
1.06684e+07
1.06661e+07
1.06638e+07
1.06614e+07
1.06591e+07
1.06567e+07
1.06544e+07
1.0652e+07
1.06497e+07
1.06473e+07
1.06449e+07
1.06425e+07
1.06401e+07
1.06377e+07
1.06353e+07
1.06328e+07
1.06304e+07
1.06279e+07
1.06255e+07
1.0623e+07
1.06205e+07
1.0618e+07
1.06155e+07
1.0613e+07
1.06104e+07
1.06078e+07
1.06053e+07
1.06027e+07
1.06001e+07
1.05975e+07
1.05948e+07
1.05922e+07
1.05895e+07
1.05868e+07
1.05841e+07
1.05814e+07
1.05786e+07
1.05759e+07
1.05731e+07
1.05703e+07
1.05675e+07
1.05646e+07
1.05618e+07
1.05589e+07
1.0556e+07
1.05531e+07
1.05501e+07
1.05472e+07
1.05442e+07
1.05412e+07
1.05381e+07
1.05351e+07
1.0532e+07
1.05289e+07
1.05258e+07
1.05227e+07
1.05195e+07
1.05163e+07
1.05131e+07
1.05098e+07
1.05066e+07
1.05033e+07
1.05e+07
1.04967e+07
1.04933e+07
1.04899e+07
1.04865e+07
1.04831e+07
1.04796e+07
1.04761e+07
1.04726e+07
1.0469e+07
1.04655e+07
1.04619e+07
1.04582e+07
1.04546e+07
1.04509e+07
1.04472e+07
1.04434e+07
1.04397e+07
1.04359e+07
1.0432e+07
1.04282e+07
1.04243e+07
1.04204e+07
1.04164e+07
1.04124e+07
1.04084e+07
1.04044e+07
1.04003e+07
1.03962e+07
1.03921e+07
1.03879e+07
1.03837e+07
1.03795e+07
1.03752e+07
1.03709e+07
1.03666e+07
1.03622e+07
1.03578e+07
1.03534e+07
1.03489e+07
1.03444e+07
1.03399e+07
1.03353e+07
1.03307e+07
1.0326e+07
1.03214e+07
1.03166e+07
1.03119e+07
1.03071e+07
1.03023e+07
1.02974e+07
1.02925e+07
1.02876e+07
1.02827e+07
1.02777e+07
1.02727e+07
1.02676e+07
1.02625e+07
1.02574e+07
1.13068e+07
1.13055e+07
1.13033e+07
1.13001e+07
1.12958e+07
1.12906e+07
1.12843e+07
1.12769e+07
1.12685e+07
1.1259e+07
1.12485e+07
1.1237e+07
1.12245e+07
1.12111e+07
1.11967e+07
1.11815e+07
1.11653e+07
1.11482e+07
1.11302e+07
1.11113e+07
1.10916e+07
1.10709e+07
1.10493e+07
1.10265e+07
1.10027e+07
1.0978e+07
1.09524e+07
1.09254e+07
1.08972e+07
1.08687e+07
1.08391e+07
1.0808e+07
1.07775e+07
1.07306e+07
1.07266e+07
1.07243e+07
1.07218e+07
1.07194e+07
1.0717e+07
1.07146e+07
1.07122e+07
1.07098e+07
1.07075e+07
1.07051e+07
1.07028e+07
1.07005e+07
1.06981e+07
1.06958e+07
1.06935e+07
1.06912e+07
1.06889e+07
1.06866e+07
1.06843e+07
1.0682e+07
1.06797e+07
1.06774e+07
1.06751e+07
1.06728e+07
1.06705e+07
1.06682e+07
1.06659e+07
1.06636e+07
1.06612e+07
1.06589e+07
1.06566e+07
1.06542e+07
1.06519e+07
1.06495e+07
1.06471e+07
1.06448e+07
1.06424e+07
1.064e+07
1.06376e+07
1.06352e+07
1.06327e+07
1.06303e+07
1.06279e+07
1.06254e+07
1.06229e+07
1.06204e+07
1.06179e+07
1.06154e+07
1.06129e+07
1.06104e+07
1.06078e+07
1.06052e+07
1.06026e+07
1.06e+07
1.05974e+07
1.05948e+07
1.05921e+07
1.05895e+07
1.05868e+07
1.05841e+07
1.05813e+07
1.05786e+07
1.05758e+07
1.05731e+07
1.05703e+07
1.05674e+07
1.05646e+07
1.05617e+07
1.05589e+07
1.0556e+07
1.0553e+07
1.05501e+07
1.05471e+07
1.05442e+07
1.05411e+07
1.05381e+07
1.05351e+07
1.0532e+07
1.05289e+07
1.05258e+07
1.05226e+07
1.05195e+07
1.05163e+07
1.05131e+07
1.05098e+07
1.05066e+07
1.05033e+07
1.05e+07
1.04966e+07
1.04933e+07
1.04899e+07
1.04865e+07
1.0483e+07
1.04796e+07
1.04761e+07
1.04726e+07
1.0469e+07
1.04655e+07
1.04619e+07
1.04582e+07
1.04546e+07
1.04509e+07
1.04472e+07
1.04434e+07
1.04397e+07
1.04359e+07
1.0432e+07
1.04282e+07
1.04243e+07
1.04204e+07
1.04164e+07
1.04124e+07
1.04084e+07
1.04044e+07
1.04003e+07
1.03962e+07
1.03921e+07
1.03879e+07
1.03837e+07
1.03795e+07
1.03752e+07
1.03709e+07
1.03666e+07
1.03622e+07
1.03578e+07
1.03534e+07
1.03489e+07
1.03444e+07
1.03399e+07
1.03353e+07
1.03307e+07
1.0326e+07
1.03214e+07
1.03166e+07
1.03119e+07
1.03071e+07
1.03023e+07
1.02974e+07
1.02925e+07
1.02876e+07
1.02826e+07
1.02776e+07
1.02726e+07
1.02676e+07
1.02624e+07
1.02573e+07
1.13925e+07
1.13911e+07
1.13887e+07
1.13852e+07
1.13806e+07
1.13749e+07
1.13682e+07
1.13603e+07
1.13512e+07
1.13411e+07
1.13299e+07
1.13176e+07
1.13043e+07
1.129e+07
1.12746e+07
1.12583e+07
1.12409e+07
1.12227e+07
1.12034e+07
1.11833e+07
1.11622e+07
1.11402e+07
1.11172e+07
1.10933e+07
1.10684e+07
1.10426e+07
1.10158e+07
1.0988e+07
1.09594e+07
1.09298e+07
1.08994e+07
1.0868e+07
1.08354e+07
1.08006e+07
1.07664e+07
1.07241e+07
1.07211e+07
1.07186e+07
1.07163e+07
1.07139e+07
1.07115e+07
1.07092e+07
1.07069e+07
1.07045e+07
1.07022e+07
1.06999e+07
1.06976e+07
1.06953e+07
1.06931e+07
1.06908e+07
1.06885e+07
1.06862e+07
1.06839e+07
1.06817e+07
1.06794e+07
1.06771e+07
1.06748e+07
1.06725e+07
1.06702e+07
1.06679e+07
1.06656e+07
1.06633e+07
1.0661e+07
1.06587e+07
1.06564e+07
1.0654e+07
1.06517e+07
1.06494e+07
1.0647e+07
1.06446e+07
1.06423e+07
1.06399e+07
1.06375e+07
1.06351e+07
1.06326e+07
1.06302e+07
1.06278e+07
1.06253e+07
1.06228e+07
1.06204e+07
1.06179e+07
1.06154e+07
1.06128e+07
1.06103e+07
1.06077e+07
1.06052e+07
1.06026e+07
1.06e+07
1.05974e+07
1.05947e+07
1.05921e+07
1.05894e+07
1.05867e+07
1.0584e+07
1.05813e+07
1.05786e+07
1.05758e+07
1.0573e+07
1.05702e+07
1.05674e+07
1.05646e+07
1.05617e+07
1.05588e+07
1.05559e+07
1.0553e+07
1.05501e+07
1.05471e+07
1.05441e+07
1.05411e+07
1.05381e+07
1.05351e+07
1.0532e+07
1.05289e+07
1.05258e+07
1.05226e+07
1.05195e+07
1.05163e+07
1.05131e+07
1.05098e+07
1.05066e+07
1.05033e+07
1.05e+07
1.04966e+07
1.04933e+07
1.04899e+07
1.04865e+07
1.0483e+07
1.04796e+07
1.04761e+07
1.04726e+07
1.0469e+07
1.04654e+07
1.04618e+07
1.04582e+07
1.04546e+07
1.04509e+07
1.04472e+07
1.04434e+07
1.04397e+07
1.04359e+07
1.0432e+07
1.04282e+07
1.04243e+07
1.04204e+07
1.04164e+07
1.04124e+07
1.04084e+07
1.04044e+07
1.04003e+07
1.03962e+07
1.03921e+07
1.03879e+07
1.03837e+07
1.03795e+07
1.03752e+07
1.03709e+07
1.03666e+07
1.03622e+07
1.03578e+07
1.03534e+07
1.03489e+07
1.03444e+07
1.03399e+07
1.03353e+07
1.03307e+07
1.0326e+07
1.03214e+07
1.03166e+07
1.03119e+07
1.03071e+07
1.03023e+07
1.02974e+07
1.02925e+07
1.02876e+07
1.02826e+07
1.02776e+07
1.02726e+07
1.02675e+07
1.02624e+07
1.02572e+07
1.14818e+07
1.14802e+07
1.14776e+07
1.14738e+07
1.14688e+07
1.14626e+07
1.14553e+07
1.14467e+07
1.1437e+07
1.14261e+07
1.1414e+07
1.14008e+07
1.13865e+07
1.1371e+07
1.13546e+07
1.1337e+07
1.13185e+07
1.12989e+07
1.12783e+07
1.12568e+07
1.12344e+07
1.1211e+07
1.11866e+07
1.11613e+07
1.11351e+07
1.1108e+07
1.108e+07
1.10511e+07
1.10213e+07
1.09907e+07
1.09591e+07
1.09266e+07
1.0893e+07
1.0858e+07
1.08215e+07
1.07815e+07
1.07352e+07
1.07178e+07
1.07155e+07
1.07131e+07
1.07108e+07
1.07085e+07
1.07062e+07
1.07039e+07
1.07016e+07
1.06993e+07
1.06971e+07
1.06948e+07
1.06926e+07
1.06903e+07
1.0688e+07
1.06858e+07
1.06835e+07
1.06813e+07
1.0679e+07
1.06768e+07
1.06745e+07
1.06722e+07
1.06699e+07
1.06677e+07
1.06654e+07
1.06631e+07
1.06608e+07
1.06585e+07
1.06562e+07
1.06539e+07
1.06515e+07
1.06492e+07
1.06468e+07
1.06445e+07
1.06421e+07
1.06397e+07
1.06373e+07
1.06349e+07
1.06325e+07
1.06301e+07
1.06277e+07
1.06252e+07
1.06228e+07
1.06203e+07
1.06178e+07
1.06153e+07
1.06128e+07
1.06102e+07
1.06077e+07
1.06051e+07
1.06025e+07
1.05999e+07
1.05973e+07
1.05947e+07
1.0592e+07
1.05894e+07
1.05867e+07
1.0584e+07
1.05813e+07
1.05785e+07
1.05758e+07
1.0573e+07
1.05702e+07
1.05674e+07
1.05646e+07
1.05617e+07
1.05588e+07
1.05559e+07
1.0553e+07
1.05501e+07
1.05471e+07
1.05441e+07
1.05411e+07
1.05381e+07
1.0535e+07
1.0532e+07
1.05289e+07
1.05258e+07
1.05226e+07
1.05195e+07
1.05163e+07
1.05131e+07
1.05098e+07
1.05066e+07
1.05033e+07
1.05e+07
1.04966e+07
1.04933e+07
1.04899e+07
1.04865e+07