/*--------------------------------*- C++ -*----------------------------------*\
  =========                 |
  \\      /  F ield         | OpenFOAM: The Open Source CFD Toolbox
   \\    /   O peration     | Website:  https://openfoam.org
    \\  /    A nd           | Version:  10
     \\/     M anipulation  |
\*---------------------------------------------------------------------------*/
FoamFile
{
    format      ascii;
    class       volScalarField;
    location    "0.087";
    object      pMean;
}
// * * * * * * * * * * * * * * * * * * * * * * * * * * * * * * * * * * * * * //

dimensions      [0 2 -2 0 0 0 0];

internalField   nonuniform List<scalar> 
12225
(
8.57377
7.82957
7.40957
7.20593
7.06782
6.93723
6.80725
6.68474
6.57492
6.47894
6.3959
6.3243
6.26215
6.20369
6.13979
6.03079
5.83429
5.28566
8.33731
7.79948
7.4075
7.19628
7.05683
6.92792
6.7988
6.6763
6.56568
6.46895
6.38391
6.31092
6.24343
6.18356
6.10524
6.00883
5.79122
5.44082
8.28782
7.79497
7.41516
7.19376
7.04928
6.92073
6.79238
6.66927
6.55757
6.45859
6.37139
6.29286
6.22073
6.14688
6.06201
5.93777
5.73833
5.40651
8.13958
7.74552
7.40484
7.18242
7.03385
6.90653
6.78012
6.65751
6.54447
6.44369
6.3529
6.27033
6.19013
6.10772
6.00821
5.87515
5.6784
5.39668
8.04477
7.71028
7.40184
7.17986
7.02455
6.89533
6.77004
6.64769
6.53348
6.42985
6.3355
6.24732
6.16048
6.06856
5.96027
5.82193
5.63704
5.40151
7.9499
7.65912
7.38296
7.1682
7.00898
6.87791
6.75357
6.63197
6.51688
6.41096
6.31306
6.21996
6.12681
6.02734
5.91307
5.77422
5.60299
5.39832
7.85259
7.60418
7.36235
7.15861
6.99698
6.86273
6.73835
6.61734
6.50128
6.39257
6.29061
6.19239
6.09336
5.98801
5.86993
5.73282
5.57267
5.38987
7.79531
7.55578
7.33435
7.14312
6.98196
6.84464
6.71912
6.5984
6.48181
6.37078
6.26508
6.16222
6.05819
5.94841
5.82819
5.69348
5.54213
5.37536
7.70581
7.49429
7.30041
7.12367
6.96514
6.8258
6.69888
6.57781
6.46056
6.3475
6.23844
6.13139
6.02313
5.90998
5.78846
5.656
5.51155
5.35646
7.65279
7.44629
7.26558
7.10171
6.94743
6.80635
6.67729
6.55541
6.4373
6.32222
6.20983
6.09888
5.98691
5.87106
5.74867
5.6181
5.47891
5.33239
7.58736
7.38874
7.2226
7.07065
6.92252
6.78301
6.65319
6.53002
6.41059
6.29368
6.17884
6.06492
5.95003
5.83206
5.70918
5.58035
5.44528
5.30482
7.51487
7.34393
7.19312
7.04764
6.90236
6.76285
6.63149
6.50676
6.38596
6.26735
6.15006
6.03337
5.916
5.79632
5.67296
5.54503
5.41256
5.27609
7.45774
7.29271
7.14934
7.01253
6.87361
6.73697
6.60586
6.48006
6.35788
6.23782
6.11889
6.00019
5.8808
5.75966
5.63585
5.50881
5.3784
5.24495
7.44192
7.25565
7.10931
6.9803
6.84786
6.71237
6.57925
6.45108
6.32692
6.20493
6.0838
5.96279
5.84128
5.7186
5.59416
5.46747
5.33846
5.20727
7.3771
7.19061
7.05214
6.93305
6.80759
6.67537
6.54277
6.41354
6.28784
6.16421
6.04129
5.91834
5.795
5.67096
5.54588
5.41948
5.29164
5.1624
7.31603
7.14069
7.0089
6.89314
6.76956
6.63794
6.50467
6.37389
6.24622
6.12053
5.99557
5.87066
5.74558
5.62026
5.49445
5.36799
5.24074
5.11278
7.21874
7.06699
6.9514
6.84229
6.72123
6.59149
6.45944
6.32853
6.19951
6.07182
5.94475
5.81794
5.69125
5.56465
5.43805
5.31142
5.18455
5.05751
7.16502
7.01605
6.90308
6.79656
6.67732
6.54756
6.41416
6.2817
6.15125
6.02221
5.89376
5.76558
5.63769
5.51019
5.38312
5.25646
5.13019
5.00436
7.23031
7.03267
6.88554
6.76435
6.64093
6.51031
6.37565
6.24046
6.10655
5.97429
5.8433
5.71315
5.58379
5.45531
5.3278
5.2013
5.07575
4.95114
7.15367
6.98603
6.85878
6.74352
6.61865
6.48435
6.34647
6.20941
6.07466
5.94183
5.81014
5.67931
5.54946
5.42087
5.29368
5.16791
5.04348
4.92045
7.17776
7.01117
6.87719
6.75003
6.61443
6.47432
6.33421
6.19575
6.05919
5.92431
5.79089
5.65891
5.5285
5.39981
5.27292
5.14784
5.02454
4.90299
7.19693
7.03262
6.89427
6.76116
6.62032
6.47556
6.33202
6.19154
6.05361
5.91746
5.78292
5.65016
5.5194
5.39073
5.26412
5.13952
5.01691
4.89637
7.29808
7.07901
6.90885
6.76432
6.62019
6.47396
6.32888
6.18651
6.04679
5.90932
5.77396
5.64081
5.51002
5.38156
5.25543
5.13157
5.00998
4.89058
7.37552
7.14733
6.95548
6.79081
6.63582
6.48582
6.33936
6.1954
6.0535
5.9139
5.77705
5.64313
5.51197
5.3834
5.25728
5.13363
5.01245
4.89387
7.33018
7.14779
6.96617
6.79202
6.62998
6.47958
6.33463
6.19089
6.04814
5.90781
5.77085
5.63717
5.50641
5.37831
5.25276
5.12978
5.00942
4.89163
7.5048
7.23596
7.00296
6.81163
6.64671
6.49589
6.34908
6.2025
6.05723
5.91524
5.7773
5.64308
5.51198
5.38363
5.25795
5.135
5.01482
4.89742
7.55678
7.25139
6.99656
6.80232
6.64273
6.49526
6.34821
6.20023
6.0542
5.91229
5.77476
5.64089
5.51003
5.38195
5.25665
5.13421
5.01464
4.89801
7.64518
7.3142
7.02387
6.81544
6.65571
6.5083
6.35873
6.20817
6.06076
5.91827
5.78037
5.6462
5.51513
5.38699
5.26176
5.1395
5.02011
4.90337
7.66338
7.31184
7.01353
6.81159
6.65676
6.5095
6.35883
6.2078
6.06043
5.91809
5.78027
5.64613
5.51507
5.387
5.26187
5.13995
5.02105
4.90536
7.89855
7.34905
7.01052
6.81736
6.66583
6.51644
6.36388
6.2121
6.06448
5.92199
5.78402
5.64976
5.51863
5.39055
5.26547
5.14376
5.0252
4.91059
1.53781
1.37535
1.20733
1.13884
1.21313
1.3902
1.56415
1.62014
1.49081
1.17475
0.710705
0.154492
-0.433432
-0.985906
-1.46673
-1.8551
-2.14064
-2.31738
-2.38765
-2.3646
-2.27289
-2.12884
-1.95654
-1.77877
-1.63159
-1.53992
-1.54882
-1.6514
-1.80684
-1.98501
-2.19118
-2.45833
-2.80738
-3.21215
-3.62788
-4.03123
-4.41224
-4.84039
-5.387
-6.00721
-6.57077
-7.02144
-7.37781
-7.69851
-8.06012
-8.41096
-8.68951
-8.89508
-8.96677
-8.93292
-8.94253
-8.95996
-8.95453
-8.93419
-8.88729
-8.78284
-8.59618
-8.43169
-8.34845
-8.33376
-8.34354
-8.36223
-8.30785
-8.21446
-8.15412
-8.1473
-8.16093
-8.17446
-8.16296
-8.11463
-8.02478
-7.90434
-7.77325
-7.66208
-7.58043
-7.50294
-7.39199
-7.21331
-6.9505
-6.61869
-6.24499
-5.84153
-5.38383
-4.88588
-4.33929
-3.79725
-3.18929
-2.54171
-1.93753
-1.59193
-1.51588
-1.5364
-1.5286
-1.43195
-1.21829
-0.880291
-0.418311
0.164759
0.868619
1.69643
2.65247
3.73664
4.93911
6.23333
7.584
8.95283
10.3559
11.6294
12.6662
13.5344
14.3217
15.0603
15.773
16.4732
17.1737
17.8844
18.613
19.3644
20.1404
20.9382
21.7493
22.5594
23.3496
24.098
24.7816
25.3802
25.8785
26.2685
26.5476
26.7175
26.7824
26.7487
26.6244
26.42
26.1483
25.8239
25.4615
25.0741
24.6739
24.2713
23.8752
23.4931
23.1308
22.7934
22.4845
22.2067
21.9614
21.7491
21.5691
21.4203
21.3011
21.2089
21.1411
21.094
21.063
21.0417
21.0225
20.9969
20.9583
20.9064
20.8488
20.7991
20.763
20.7273
20.6873
20.6482
20.6032
20.5519
20.5012
20.4576
20.4207
20.3905
20.3694
20.3607
20.3626
20.3747
20.4002
20.4506
20.5406
20.6744
0.802068
0.645538
0.492888
0.393347
0.444943
0.566696
0.657243
0.619652
0.410569
0.0438661
-0.431764
-0.959872
-1.48832
-1.96877
-2.37831
-2.70287
-2.93391
-3.06966
-3.11344
-3.08099
-2.976
-2.82436
-2.6617
-2.50258
-2.36081
-2.28775
-2.27802
-2.36548
-2.5129
-2.72627
-3.06926
-3.51178
-4.01056
-4.52232
-5.00554
-5.45987
-5.88991
-6.32676
-6.81606
-7.36502
-7.88176
-8.29522
-8.60288
-8.84546
-9.12839
-9.39803
-9.68108
-10.0173
-10.1544
-10.1625
-10.1867
-10.1895
-10.148
-10.06
-9.9196
-9.77362
-9.58488
-9.39499
-9.2674
-9.1853
-9.11528
-9.08304
-9.05014
-8.99351
-8.97973
-9.00176
-9.03767
-9.06342
-9.05657
-9.00352
-8.8997
-8.76533
-8.62432
-8.49728
-8.3907
-8.28526
-8.14956
-7.94959
-7.65893
-7.28348
-6.85338
-6.39289
-5.89565
-5.35687
-4.7763
-4.20922
-3.67417
-3.17315
-2.72537
-2.45242
-2.35475
-2.29826
-2.20376
-2.02157
-1.73433
-1.33672
-0.829322
-0.212567
0.514712
1.35803
2.32363
3.414
4.62381
5.92909
7.29925
8.65886
9.99033
11.2121
12.2376
13.1419
13.9734
14.7564
15.507
16.2375
16.9615
17.6905
18.4343
19.1991
19.9862
20.7929
21.6122
22.4308
23.2303
23.9888
24.6824
25.29
25.7961
26.1921
26.4761
26.6503
26.7194
26.6897
26.5693
26.3684
26.0991
25.7772
25.4168
25.0312
24.6325
24.2312
23.8361
23.4547
23.0931
22.7562
22.4476
22.1697
21.9239
21.7105
21.5294
21.379
21.2575
21.1624
21.0907
21.0386
21.0007
20.9708
20.9419
20.9077
20.8646
20.8159
20.7716
20.7421
20.7211
20.6847
20.6377
20.5967
20.5519
20.5015
20.4536
20.4135
20.3797
20.3514
20.3308
20.32
20.32
20.3297
20.3592
20.4016
20.4785
20.5334
1.00633
0.931477
0.739421
0.468946
0.187166
-0.0905603
-0.394009
-0.759781
-1.20423
-1.70883
-2.2277
-2.72099
-3.17596
-3.58048
-3.90266
-4.13635
-4.28128
-4.34021
-4.32618
-4.25759
-4.14259
-3.99089
-3.82326
-3.6642
-3.52317
-3.44438
-3.42392
-3.47459
-3.6258
-3.88259
-4.25067
-4.71338
-5.24654
-5.80998
-6.36742
-6.88698
-7.40072
-7.94302
-8.5029
-9.058
-9.52926
-9.87572
-10.0861
-10.2922
-10.5794
-10.8876
-11.1649
-11.4543
-11.6851
-11.8142
-11.8664
-11.8346
-11.7181
-11.5398
-11.3355
-11.1149
-10.8923
-10.6793
-10.4833
-10.3126
-10.1858
-10.114
-10.1061
-10.1402
-10.2105
-10.2989
-10.3833
-10.4381
-10.4397
-10.3741
-10.2443
-10.0822
-9.91766
-9.76394
-9.61679
-9.45427
-9.24937
-8.97489
-8.61404
-8.1716
-7.66623
-7.12823
-6.56895
-5.98943
-5.42107
-4.91891
-4.52399
-4.19852
-3.9317
-3.72305
-3.55299
-3.37488
-3.15645
-2.86799
-2.49503
-2.02891
-1.46767
-0.809804
-0.0530581
0.80794
1.77951
2.86557
4.06698
5.36523
6.7124
8.05052
9.32751
10.4998
11.5564
12.5271
13.4245
14.2663
15.0644
15.8329
16.5864
17.3389
18.1015
18.881
19.681
20.5011
21.3349
22.1696
22.987
23.7645
24.4774
25.103
25.6245
26.0331
26.3274
26.5105
26.588
26.5663
26.4535
26.259
25.9957
25.6794
25.3242
24.9435
24.5491
24.1516
23.7597
23.3808
23.0211
22.6856
22.378
22.1007
21.855
21.6415
21.4596
21.3081
21.1851
21.0878
21.013
20.9569
20.9147
20.8807
20.849
20.8143
20.7738
20.7297
20.6876
20.6522
20.622
20.5922
20.5614
20.5258
20.4794
20.4268
20.3792
20.3414
20.3114
20.2878
20.2719
20.2636
20.2652
20.2719
20.2947
20.3197
20.3732
20.3874
0.984585
0.900161
0.608877
0.152218
-0.413802
-1.02846
-1.64856
-2.26359
-2.8651
-3.43714
-3.96017
-4.41948
-4.80853
-5.11712
-5.33895
-5.48956
-5.57497
-5.59497
-5.56643
-5.49728
-5.39713
-5.27613
-5.14531
-5.02539
-4.94072
-4.89568
-4.90552
-4.97066
-5.10138
-5.30661
-5.5947
-5.96765
-6.41826
-6.92268
-7.45343
-8.00369
-8.59987
-9.26143
-9.95415
-10.5983
-11.128
-11.5317
-11.8014
-12.0333
-12.3097
-12.6285
-12.9509
-13.2361
-13.4487
-13.5695
-13.5896
-13.5155
-13.3609
-13.154
-12.9276
-12.6843
-12.4267
-12.1598
-11.8984
-11.6683
-11.5088
-11.4501
-11.4813
-11.5728
-11.7039
-11.8509
-11.9861
-12.0787
-12.0991
-12.029
-11.876
-11.6774
-11.4709
-11.268
-11.0632
-10.8471
-10.5798
-10.2226
-9.76951
-9.23779
-8.64366
-8.026
-7.42567
-6.8648
-6.35596
-5.96364
-5.68445
-5.47592
-5.28186
-5.08344
-4.86717
-4.6142
-4.31011
-3.9381
-3.48839
-2.95406
-2.33342
-1.62504
-0.826836
0.0648899
1.05401
2.14541
3.34008
4.61894
5.93624
7.23467
8.47604
9.64137
10.7313
11.7504
12.7028
13.5992
14.4471
15.2589
16.0487
16.8313
17.6187
18.4192
19.238
20.0762
20.929
21.7853
22.6271
23.431
24.1707
24.8218
25.3658
25.7931
26.1026
26.2988
26.3883
26.378
26.2757
26.0907
25.8364
25.5284
25.181
24.8074
24.4196
24.0276
23.6405
23.2657
22.9096
22.577
22.2718
21.9964
21.7524
21.5403
21.3592
21.2076
21.0836
20.9848
20.9078
20.849
20.8039
20.7675
20.7347
20.7014
20.6652
20.6268
20.5895
20.5555
20.525
20.4937
20.4578
20.4169
20.3728
20.3224
20.272
20.2314
20.2015
20.1798
20.167
20.1607
20.1647
20.1734
20.1968
20.2151
20.2478
20.2311
0.784566
0.549952
0.0399818
-0.651831
-1.42115
-2.20073
-2.95569
-3.66796
-4.3264
-4.92446
-5.45693
-5.912
-6.27975
-6.55594
-6.74706
-6.86747
-6.92921
-6.94204
-6.92024
-6.87509
-6.81043
-6.73391
-6.66271
-6.61289
-6.59848
-6.62865
-6.70444
-6.82062
-6.97016
-7.14879
-7.35974
-7.61416
-7.92655
-8.30573
-8.75537
-9.28241
-9.90146
-10.6093
-11.3509
-12.0518
-12.6516
-13.1465
-13.5488
-13.8989
-14.2349
-14.5735
-14.9001
-15.1811
-15.3915
-15.5139
-15.5328
-15.4476
-15.2706
-15.033
-14.7664
-14.4769
-14.1683
-13.8505
-13.5458
-13.2869
-13.1237
-13.0721
-13.1047
-13.1967
-13.3308
-13.484
-13.6267
-13.7246
-13.7469
-13.6724
-13.5043
-13.2741
-13.0114
-12.7305
-12.4386
-12.1349
-11.7926
-11.373
-10.8627
-10.2743
-9.6306
-8.9791
-8.38036
-7.8691
-7.46179
-7.18048
-6.99518
-6.84261
-6.67742
-6.48611
-6.25406
-5.96631
-5.61166
-5.17966
-4.6654
-4.06679
-3.38534
-2.62177
-1.77501
-0.8431
0.176114
1.28424
2.47651
3.73085
5.0066
6.26631
7.48982
8.66299
9.77688
10.829
11.8248
12.7703
13.6693
14.5292
15.362
16.1816
17.0003
17.8274
18.6694
19.5293
20.4044
21.2857
22.156
22.9909
23.7628
24.4454
25.018
25.4699
25.7998
26.0133
26.118
26.1218
26.0323
25.8592
25.6161
25.3186
24.9813
24.6172
24.238
23.8537
23.4732
23.1042
22.7532
22.4252
22.1241
21.8525
21.6119
21.4025
21.2239
21.0746
20.9524
20.8542
20.777
20.7169
20.6701
20.6323
20.5993
20.5675
20.5348
20.5013
20.4685
20.4382
20.4105
20.3823
20.3482
20.3079
20.2634
20.2122
20.1575
20.1081
20.0708
20.0468
20.0348
20.0307
20.0369
20.0471
20.0683
20.0821
20.1004
20.069
0.235197
-0.181493
-0.898767
-1.69699
-2.533
-3.35896
-4.14154
-4.88547
-5.58618
-6.23747
-6.82863
-7.34166
-7.76105
-8.07792
-8.29877
-8.44384
-8.52866
-8.56612
-8.57199
-8.56257
-8.54418
-8.52739
-8.5251
-8.5484
-8.60814
-8.7093
-8.84884
-9.01697
-9.20039
-9.38811
-9.57713
-9.77712
-10.0114
-10.31
-10.6959
-11.1919
-11.7997
-12.5051
-13.2557
-13.9931
-14.6671
-15.2566
-15.7652
-16.2063
-16.597
-16.9534
-17.2729
-17.5372
-17.726
-17.8212
-17.8114
-17.6983
-17.487
-17.1977
-16.8622
-16.5007
-16.1273
-15.7573
-15.4133
-15.1379
-14.9727
-14.9033
-14.8988
-14.9395
-15.0129
-15.1001
-15.1796
-15.2253
-15.2105
-15.113
-14.9244
-14.6565
-14.3208
-13.9327
-13.5229
-13.1097
-12.676
-12.195
-11.6527
-11.0542
-10.4201
-9.80703
-9.27345
-8.85357
-8.56215
-8.38649
-8.27784
-8.17486
-8.0493
-7.88686
-7.66784
-7.37671
-7.00074
-6.53197
-5.96949
-5.31696
-4.58044
-3.76362
-2.86768
-1.8921
-0.838146
0.289024
1.47751
2.70337
3.94144
5.17691
6.39795
7.58398
8.71746
9.79555
10.826
11.8148
12.7643
13.6768
14.5598
15.4238
16.2793
17.1368
18.0053
18.8888
19.7873
20.6942
21.5939
22.4614
23.2674
23.9841
24.5894
25.0705
25.4255
25.66
25.7827
25.8022
25.7269
25.5669
25.3364
25.0511
24.7255
24.3725
24.0033
23.6279
23.2553
22.8935
22.5492
22.2275
21.9324
21.6666
21.4315
21.2275
21.0539
20.9092
20.7909
20.696
20.621
20.5618
20.5146
20.4759
20.4423
20.4112
20.3811
20.3514
20.3231
20.297
20.2733
20.2498
20.2223
20.189
20.1493
20.1016
20.0475
19.9933
19.9462
19.9117
19.8936
19.8863
19.8892
19.897
19.9143
19.9244
19.9324
19.8927
-0.922794
-1.36497
-2.03884
-2.77068
-3.53681
-4.32016
-5.09665
-5.85696
-6.59352
-7.30319
-7.96649
-8.56003
-9.06386
-9.46543
-9.767
-9.9884
-10.1491
-10.2661
-10.3557
-10.4323
-10.5029
-10.5764
-10.6632
-10.7732
-10.9135
-11.0856
-11.2858
-11.5054
-11.733
-11.9576
-12.1723
-12.3818
-12.6069
-12.8867
-13.2572
-13.7535
-14.3702
-15.0834
-15.8547
-16.6372
-17.381
-18.0545
-18.6438
-19.1474
-19.5724
-19.9262
-20.21
-20.4163
-20.5312
-20.546
-20.4592
-20.275
-19.9855
-19.5997
-19.156
-18.692
-18.2329
-17.7974
-17.4132
-17.1236
-16.9446
-16.8359
-16.7662
-16.7239
-16.7008
-16.6824
-16.6527
-16.5939
-16.4872
-16.315
-16.0654
-15.7303
-15.3067
-14.8063
-14.2667
-13.7246
-13.1902
-12.6525
-12.0999
-11.5312
-10.9628
-10.444
-10.0233
-9.72921
-9.56089
-9.48551
-9.44796
-9.40367
-9.33364
-9.21976
-9.0391
-8.77307
-8.40445
-7.92435
-7.33408
-6.64275
-5.86301
-5.00296
-4.06632
-3.05389
-1.9711
-0.829725
0.351077
1.55228
2.76736
3.99815
5.23131
6.43656
7.59044
8.68997
9.74625
10.7715
11.77
12.7379
13.6753
14.5879
15.4847
16.3777
17.2752
18.1831
19.104
20.0347
20.9621
21.8609
22.7001
23.4506
24.0893
24.602
24.9848
25.2427
25.3848
25.4207
25.3597
25.2133
24.9962
24.7242
24.4116
24.0706
23.7121
23.3463
22.9825
22.629
22.2928
21.9793
21.6924
21.4348
21.2079
21.0119
20.8459
20.7083
20.5964
20.5071
20.4365
20.3803
20.3345
20.296
20.2625
20.2324
20.2046
20.1787
20.1549
20.1337
20.115
20.0974
20.0782
20.0548
20.0256
19.9883
19.9419
19.8889
19.8351
19.7886
19.7564
19.7389
19.7335
19.7346
19.7444
19.7478
19.7468
19.7012
-2.03419
-2.39052
-2.89484
-3.51796
-4.22061
-4.95795
-5.71226
-6.47665
-7.24951
-8.01862
-8.75893
-9.4449
-10.0557
-10.5784
-11.0112
-11.3667
-11.6632
-11.9155
-12.1366
-12.3376
-12.5263
-12.712
-12.905
-13.1135
-13.3416
-13.5899
-13.8556
-14.1338
-14.4174
-14.6973
-14.9665
-15.2277
-15.5009
-15.8273
-16.2508
-16.7996
-17.4678
-18.2331
-19.0645
-19.9171
-20.739
-21.4929
-22.153
-22.7023
-23.1341
-23.4493
-23.6547
-23.7531
-23.7387
-23.6173
-23.3973
-23.0796
-22.6511
-22.1215
-21.5378
-20.9539
-20.4012
-19.8985
-19.4723
-19.1611
-18.9516
-18.7856
-18.6378
-18.5051
-18.3775
-18.2441
-18.094
-17.9143
-17.6894
-17.4034
-17.0431
-16.5955
-16.0542
-15.4303
-14.7633
-14.0997
-13.4695
-12.8783
-12.3223
-11.8006
-11.3284
-10.9351
-10.6511
-10.4913
-10.439
-10.4504
-10.4752
-10.488
-10.4762
-10.4192
-10.2934
-10.0754
-9.73894
-9.27081
-8.67277
-7.96007
-7.15297
-6.2651
-5.3026
-4.26746
-3.16654
-2.01887
-0.848334
0.334812
1.5413
2.78135
4.03586
5.26346
6.43567
7.54841
8.62164
9.67888
10.7253
11.7482
12.7403
13.7037
14.6469
15.5782
16.5056
17.4374
18.379
19.3309
20.2831
21.2111
22.0816
22.8639
23.5342
24.0776
24.4879
24.7693
24.9307
24.9826
24.9355
24.8024
24.5989
24.3407
24.0414
23.7126
23.3652
23.0094
22.655
22.3107
21.9839
21.68
21.4031
21.1558
20.9392
20.7535
20.5975
20.4694
20.3662
20.2845
20.2202
20.1689
20.1269
20.0912
20.0599
20.0322
20.0078
19.9863
19.9678
19.9523
19.9394
19.9282
19.9168
19.9031
19.8854
19.8615
19.8289
19.786
19.7348
19.6812
19.6347
19.6004
19.5802
19.5685
19.5657
19.5593
19.5488
19.4975
-2.62458
-2.89297
-3.30615
-3.85309
-4.4989
-5.20474
-5.94983
-6.72736
-7.53836
-8.36809
-9.1886
-9.97632
-10.7107
-11.3762
-11.9666
-12.4874
-12.9535
-13.3754
-13.76
-14.1145
-14.4478
-14.7702
-15.0918
-15.4184
-15.7521
-16.0936
-16.4419
-16.7959
-17.1521
-17.5049
-17.8513
-18.1986
-18.5668
-18.9962
-19.5296
-20.1838
-20.9522
-21.8142
-22.74
-23.6823
-24.5892
-25.4176
-26.1286
-26.6928
-27.094
-27.3323
-27.4235
-27.3781
-27.1983
-26.9011
-26.5011
-25.9986
-25.3871
-24.6873
-23.9537
-23.2443
-22.5921
-22.015
-21.5353
-21.1822
-20.9174
-20.6778
-20.4502
-20.2359
-20.0184
-19.7848
-19.5229
-19.2185
-18.8577
-18.4281
-17.9215
-17.3306
-16.6542
-15.9074
-15.1279
-14.3656
-13.6611
-13.0335
-12.4853
-12.0161
-11.6375
-11.3662
-11.2147
-11.1784
-11.2237
-11.2993
-11.3678
-11.4242
-11.4625
-11.4608
-11.3976
-11.2411
-10.9522
-10.5111
-9.91959
-9.20088
-8.3835
-7.48553
-6.51446
-5.47251
-4.36698
-3.22026
-2.05809
-0.883291
0.326402
1.58368
2.86187
4.10692
5.28731
6.40363
7.48746
8.57449
9.66581
10.7397
11.7839
12.7984
13.7888
14.7585
15.7156
16.6711
17.6325
18.6038
19.5782
20.533
21.4323
22.2427
22.9406
23.5105
23.9449
24.2472
24.426
24.4918
24.4572
24.3366
24.1462
23.9013
23.6148
23.2979
22.9612
22.6154
22.2709
21.9365
21.6199
21.3266
21.0607
20.8247
20.6199
20.4462
20.3023
20.1858
20.0936
20.0218
19.9663
19.9229
19.8882
19.8594
19.8345
19.8128
19.7943
19.7789
19.7668
19.7577
19.7513
19.7469
19.743
19.738
19.7306
19.7192
19.7011
19.6729
19.6329
19.5822
19.528
19.479
19.4402
19.4108
19.3905
19.3685
19.3443
19.2856
-2.75405
-2.9679
-3.32901
-3.83264
-4.44643
-5.13782
-5.88481
-6.68191
-7.53048
-8.41806
-9.32011
-10.2149
-11.0813
-11.9005
-12.662
-13.3652
-14.018
-14.625
-15.1886
-15.7148
-16.2142
-16.6973
-17.1721
-17.642
-18.1076
-18.5693
-19.0281
-19.4852
-19.9401
-20.3921
-20.8442
-21.3097
-21.8149
-22.394
-23.0764
-23.8702
-24.7684
-25.749
-26.7809
-27.8135
-28.7952
-29.6758
-30.4103
-30.9642
-31.3177
-31.4707
-31.4438
-31.2447
-30.8807
-30.3801
-29.7671
-29.0455
-28.2189
-27.3222
-26.4207
-25.5722
-24.8047
-24.1347
-23.5814
-23.1615
-22.8211
-22.5001
-22.1939
-21.9027
-21.6038
-21.2789
-20.9129
-20.4886
-19.991
-19.4106
-18.7468
-18.0047
-17.1941
-16.3362
-15.468
-14.6371
-13.8879
-13.2468
-12.7199
-12.3041
-12.0037
-11.8274
-11.7791
-11.839
-11.9577
-12.0739
-12.1656
-12.249
-12.323
-12.3652
-12.3591
-12.2631
-12.0236
-11.6144
-11.0376
-10.3229
-9.50703
-8.61286
-7.64864
-6.6154
-5.51854
-4.37937
-3.22266
-2.04582
-0.821107
0.458494
1.75491
3.0064
4.18215
5.29361
6.38444
7.49533
8.62414
9.74249
10.8327
11.8938
12.9285
13.9364
14.9238
15.9036
16.8849
17.8753
18.8703
19.8486
20.7714
21.6041
22.323
22.9122
23.3649
23.6833
23.8752
23.9516
23.9267
23.8167
23.6381
23.4053
23.1304
22.8242
22.4976
22.1619
21.8276
21.5039
21.1981
20.9161
20.6617
20.4379
20.2457
20.085
19.9541
19.8505
19.771
19.7117
19.6685
19.6375
19.6155
19.5994
19.587
19.5764
19.5674
19.5605
19.5561
19.5544
19.5552
19.5578
19.5612
19.5637
19.5644
19.5623
19.5555
19.541
19.5155
19.476
19.425
19.3689
19.3157
19.2672
19.2266
19.1851
19.143
19.0722
-2.56881
-2.7568
-3.1011
-3.59358
-4.20684
-4.9134
-5.69287
-6.53638
-7.44182
-8.3989
-9.38933
-10.393
-11.3888
-12.3572
-13.2851
-14.1671
-15.0031
-15.7927
-16.5352
-17.2372
-17.9102
-18.5638
-19.2045
-19.8329
-20.4468
-21.045
-21.6294
-22.2047
-22.7743
-23.3429
-23.9204
-24.5242
-25.1796
-25.9142
-26.7471
-27.68
-28.7028
-29.7932
-30.9187
-32.0302
-33.0755
-34.0005
-34.7563
-35.3042
-35.6205
-35.7022
-35.5692
-35.2233
-34.6794
-33.9757
-33.1413
-32.188
-31.1352
-30.0306
-28.947
-27.9438
-27.0444
-26.2614
-25.6124
-25.1044
-24.6745
-24.2667
-23.8772
-23.5034
-23.1186
-22.6982
-22.2266
-21.6851
-21.0588
-20.3412
-19.5364
-18.658
-17.7291
-16.7806
-15.8521
-14.9864
-14.2234
-13.59
-13.093
-12.7258
-12.4882
-12.3831
-12.409
-12.5346
-12.697
-12.8266
-12.917
-13.0065
-13.0982
-13.1665
-13.2002
-13.1487
-12.9461
-12.5631
-12.0005
-11.2945
-10.4884
-9.60939
-8.66435
-7.65146
-6.57222
-5.44319
-4.28511
-3.09447
-1.84799
-0.549188
0.753733
1.99775
3.1572
4.25612
5.348
6.47437
7.62951
8.78156
9.90827
11.0087
12.0841
13.1294
14.1477
15.1528
16.1553
17.1653
18.1797
19.1756
20.1141
20.9606
21.6913
22.2912
22.7542
23.0818
23.2806
23.3626
23.3437
23.2415
23.0722
22.8493
22.584
22.2869
21.9696
21.6439
21.3205
21.0082
20.7142
20.4442
20.2026
19.9919
19.813
19.6657
19.5484
19.4584
19.3932
19.3492
19.3226
19.3098
19.3071
19.3105
19.3165
19.3223
19.3272
19.3319
19.3376
19.345
19.3541
19.3644
19.3745
19.3832
19.3897
19.3936
19.3941
19.3892
19.3761
19.3506
19.3107
19.2582
19.1992
19.1375
19.0776
19.0153
18.9526
18.866
-2.29102
-2.47285
-2.82349
-3.33541
-3.98709
-4.75275
-5.60858
-6.53801
-7.53283
-8.582
-9.67124
-10.7824
-11.8967
-12.9961
-14.0672
-15.1008
-16.0912
-17.0358
-17.9355
-18.7984
-19.6337
-20.4471
-21.2411
-22.0129
-22.7583
-23.4758
-24.1689
-24.8455
-25.5135
-26.1853
-26.8775
-27.6103
-28.4053
-29.2775
-30.2347
-31.2745
-32.3851
-33.5494
-34.7356
-35.8974
-36.9802
-37.9264
-38.6848
-39.2156
-39.4941
-39.51
-39.2727
-38.7889
-38.0869
-37.2186
-36.2179
-35.0983
-33.8868
-32.6347
-31.4097
-30.272
-29.2499
-28.3545
-27.6006
-26.9931
-26.466
-25.9648
-25.4827
-25.0121
-24.5278
-24.0019
-23.4155
-22.7562
-22.0122
-21.1781
-20.2617
-19.2817
-18.2683
-17.2605
-16.3011
-15.4289
-14.6757
-14.0631
-13.5992
-13.2772
-13.0911
-13.0386
-13.1136
-13.2753
-13.4543
-13.5793
-13.6538
-13.7308
-13.818
-13.8923
-13.9371
-13.9004
-13.7132
-13.3436
-12.7928
-12.1005
-11.3124
-10.4548
-9.53149
-8.53723
-7.47053
-6.34585
-5.18024
-3.97219
-2.70796
-1.40143
-0.107733
1.11395
2.24733
3.32735
4.41311
5.54327
6.70949
7.88123
9.03515
10.1687
11.2802
12.3602
13.4086
14.4383
15.4624
16.4914
17.5206
18.5265
19.4713
20.3212
21.053
21.6533
22.1169
22.4446
22.6426
22.7239
22.7066
22.6087
22.4457
22.2296
21.9711
21.6816
21.3731
21.0578
20.7456
20.4452
20.1639
19.9074
19.6795
19.4826
19.3176
19.1846
19.0821
19.0081
18.9604
18.9361
18.9317
18.9428
18.9646
18.9923
19.0212
19.0479
19.0708
19.0909
19.1099
19.1289
19.148
19.1664
19.1829
19.1965
19.2069
19.2142
19.2184
19.2188
19.2137
19.1997
19.1732
19.1318
19.0772
19.0112
18.9393
18.8591
18.7758
18.6716
-2.06363
-2.25377
-2.63577
-3.20339
-3.9375
-4.80899
-5.78679
-6.84511
-7.96605
-9.13585
-10.3399
-11.5608
-12.7806
-13.983
-15.1564
-16.2926
-17.3859
-18.4338
-19.4389
-20.4086
-21.3501
-22.2661
-23.1561
-24.0162
-24.8428
-25.6364
-26.4041
-27.1575
-27.9086
-28.6726
-29.4662
-30.3042
-31.1978
-32.1537
-33.1749
-34.2593
-35.3999
-36.5831
-37.7782
-38.9378
-40.0064
-40.9294
-41.6593
-42.1593
-42.4066
-42.3798
-42.0715
-41.4984
-40.7023
-39.7381
-38.6505
-37.4591
-36.19
-34.8852
-33.601
-32.3912
-31.2926
-30.3183
-29.4768
-28.77
-28.1398
-27.5389
-26.9562
-26.3759
-25.7766
-25.1358
-24.434
-23.6623
-22.8122
-21.8823
-20.8867
-19.8445
-18.7881
-17.7596
-16.8021
-15.9492
-15.2238
-14.647
-14.2226
-13.942
-13.8003
-13.7882
-13.8916
-14.062
-14.2322
-14.3355
-14.3793
-14.4189
-14.4757
-14.53
-14.5579
-14.5099
-14.3215
-13.9583
-13.4214
-12.7488
-11.9809
-11.1388
-10.2246
-9.2331
-8.16459
-7.03465
-5.86013
-4.64116
-3.37328
-2.07704
-0.808012
0.381056
1.48299
2.54101
3.61328
4.73444
5.89717
7.0765
8.25057
9.41009
10.5484
11.6552
12.7284
13.7796
14.8226
15.8663
16.9037
17.9102
18.8499
19.6911
20.4124
21.0016
21.4547
21.7721
21.9605
22.0349
22.0145
21.9173
21.7568
21.5441
21.2901
21.0069
20.7069
20.4015
20.1008
19.813
19.5452
19.3025
19.0884
18.9051
18.7545
18.6371
18.5523
18.4991
18.4752
18.4777
18.5015
18.5414
18.5913
18.6458
18.7002
18.7506
18.7951
18.8342
18.8695
18.9024
18.9326
18.9595
18.9822
19
19.0133
19.0224
19.0281
19.0306
19.0295
19.0228
19.0075
18.9793
18.9358
18.8752
18.8005
18.7104
18.6111
18.49
-1.92045
-2.13473
-2.57352
-3.22898
-4.08081
-5.09128
-6.2186
-7.4277
-8.6914
-9.98981
-11.3049
-12.6198
-13.9179
-15.185
-16.4132
-17.5982
-18.7363
-19.8241
-20.8618
-21.8573
-22.8209
-23.7597
-24.6769
-25.571
-26.4392
-27.2815
-28.1029
-28.9123
-29.7185
-30.5327
-31.3673
-32.2334
-33.1396
-34.0922
-35.0963
-36.1521
-37.2567
-38.3983
-39.548
-40.6612
-41.6874
-42.5771
-43.2873
-43.7795
-44.0294
-44.0123
-43.7073
-43.126
-42.3224
-41.3496
-40.2618
-39.0864
-37.8484
-36.583
-35.3305
-34.1311
-33.023
-32.0209
-31.1286
-30.3401
-29.61
-28.9057
-28.2163
-27.5219
-26.8055
-26.0524
-25.2447
-24.3727
-23.4307
-22.4237
-21.3747
-20.3084
-19.2522
-18.2419
-17.3165
-16.507
-15.8298
-15.2993
-14.9194
-14.6864
-14.5873
-14.6023
-14.7078
-14.8569
-14.996
-15.0668
-15.067
-15.0488
-15.0499
-15.059
-15.0463
-14.9678
-14.7683
-14.4135
-13.8985
-13.2498
-12.4964
-11.6545
-10.7279
-9.71745
-8.63066
-7.4888
-6.30982
-5.09476
-3.84192
-2.57394
-1.34122
-0.188037
0.885355
1.92392
2.98018
4.08448
5.23388
6.41026
7.59218
8.76427
9.91597
11.0371
12.1256
13.1916
14.2475
15.2991
16.336
17.332
18.2539
19.0736
19.7717
20.3378
20.7683
21.0645
21.2347
21.2961
21.2685
21.1679
21.0059
20.7934
20.5419
20.2639
19.972
19.677
19.3882
19.1133
18.8587
18.6289
18.4273
18.2574
18.1213
18.0208
17.9575
17.9313
17.9393
17.976
18.0347
18.1079
18.1887
18.272
18.3535
18.4297
18.4984
18.5593
18.6133
18.6613
18.7031
18.7384
18.7668
18.7886
18.8041
18.8144
18.8207
18.8237
18.8243
18.8215
18.8137
18.7967
18.7664
18.7174
18.6492
18.5586
18.4516
18.3188
-1.76259
-2.00818
-2.51496
-3.26823
-4.24616
-5.40176
-6.68464
-8.04862
-9.45924
-10.8897
-12.3196
-13.732
-15.1078
-16.4272
-17.6787
-18.862
-19.9835
-21.0442
-22.045
-22.9952
-23.9096
-24.8023
-25.6818
-26.5472
-27.3929
-28.2132
-29.0076
-29.7818
-30.546
-31.3122
-32.0944
-32.9062
-33.7563
-34.651
-35.5947
-36.5889
-37.6283
-38.7019
-39.7849
-40.8385
-41.8178
-42.678
-43.3812
-43.8902
-44.1753
-44.2163
-43.9867
-43.4884
-42.7694
-41.8883
-40.9002
-39.8354
-38.7157
-37.5682
-36.4221
-35.3068
-34.2516
-33.2766
-32.3836
-31.554
-30.7502
-29.9595
-29.1794
-28.388
-27.5705
-26.7209
-25.8267
-24.8779
-23.8713
-22.8164
-21.7465
-20.6861
-19.6577
-18.6927
-17.8256
-17.08
-16.4657
-15.9969
-15.6739
-15.4834
-15.412
-15.4343
-15.511
-15.6039
-15.6864
-15.7101
-15.6582
-15.574
-15.5044
-15.4491
-15.3809
-15.2612
-15.047
-14.7066
-14.2231
-13.6013
-12.8533
-11.9919
-11.0318
-9.98818
-8.87758
-7.72404
-6.54683
-5.34806
-4.12664
-2.90082
-1.71037
-0.589261
0.465559
1.49244
2.53457
3.61823
4.74762
5.90913
7.08334
8.2517
9.40046
10.5206
11.6125
12.6847
13.7462
14.7968
15.8219
16.7944
17.685
18.4697
19.1315
19.6613
20.0569
20.3214
20.4661
20.5096
20.4709
20.3631
20.1966
19.9824
19.7327
19.4603
19.1773
18.8935
18.6168
18.3542
18.1113
17.8927
17.7019
17.543
17.421
17.3398
17.3028
17.3099
17.356
17.4326
17.5312
17.642
17.7574
17.8723
17.9833
18.0873
18.1821
18.2662
18.3396
18.4024
18.4551
18.4978
18.5316
18.5568
18.5745
18.586
18.5928
18.5963
18.5976
18.597
18.5937
18.5847
18.5659
18.5308
18.4752
18.3931
18.2876
18.1508
-1.37895
-1.66405
-2.2398
-3.08998
-4.19668
-5.50605
-6.96489
-8.51838
-10.1218
-11.7358
-13.327
-14.8657
-16.3223
-17.6672
-18.8869
-19.9895
-20.9978
-21.9288
-22.791
-23.5941
-24.353
-25.0855
-25.8044
-26.5137
-27.2096
-27.8898
-28.5585
-29.2219
-29.892
-30.58
-31.296
-32.0477
-32.8395
-33.6743
-34.5563
-35.4843
-36.452
-37.4514
-38.4635
-39.4576
-40.396
-41.2387
-41.951
-42.4999
-42.8553
-42.9993
-42.9076
-42.5765
-42.0341
-41.338
-40.537
-39.6689
-38.7437
-37.777
-36.7902
-35.8087
-34.8578
-33.9564
-33.1069
-32.286
-31.4596
-30.6257
-29.7903
-28.9368
-28.0529
-27.1377
-26.1853
-25.1915
-24.1552
-23.0878
-22.0216
-20.9855
-20.0006
-19.095
-18.3037
-17.6425
-17.1078
-16.707
-16.4394
-16.2938
-16.2421
-16.2518
-16.2794
-16.2883
-16.2765
-16.2233
-16.1045
-15.9517
-15.8056
-15.675
-15.5429
-15.3797
-15.1527
-14.8318
-14.3861
-13.7915
-13.0412
-12.147
-11.1405
-10.0585
-8.92772
-7.77015
-6.60136
-5.42679
-4.2462
-3.06961
-1.92222
-0.82668
0.219493
1.24177
2.27219
3.33493
4.4384
5.57401
6.72409
7.87005
8.9989
10.1051
11.1908
12.2614
13.319
14.3564
15.3547
16.2883
17.1327
17.8677
18.479
18.9592
19.3082
19.5324
19.6465
19.6694
19.617
19.4999
19.3279
19.1121
18.866
18.6017
18.3301
18.0585
17.7936
17.5419
17.3088
17.0973
16.9129
16.7627
16.6548
16.5963
16.5904
16.6355
16.7235
16.844
16.9864
17.1389
17.293
17.4437
17.5877
17.7222
17.8445
17.9519
18.0432
18.119
18.1808
18.2302
18.2691
18.2982
18.3187
18.3323
18.3407
18.3454
18.3477
18.3486
18.3483
18.3451
18.3355
18.3133
18.2728
18.2053
18.1097
17.9775
-0.581493
-0.928465
-1.59032
-2.55147
-3.80193
-5.29233
-6.96587
-8.74783
-10.5694
-12.3652
-14.0802
-15.6694
-17.1002
-18.3439
-19.3923
-20.2675
-21.0133
-21.6719
-22.2629
-22.8002
-23.2998
-23.7854
-24.2796
-24.7914
-25.3186
-25.8583
-26.4132
-26.9889
-27.5947
-28.2393
-28.9275
-29.6592
-30.4317
-31.2467
-32.1073
-33.009
-33.9417
-34.8995
-35.8687
-36.8258
-37.7424
-38.586
-39.3263
-39.9333
-40.381
-40.6507
-40.7251
-40.596
-40.2763
-39.8073
-39.2332
-38.5902
-37.8949
-37.1507
-36.3645
-35.5544
-34.7443
-33.955
-33.1913
-32.4288
-31.6367
-30.8179
-29.9843
-29.1218
-28.2224
-27.2878
-26.3156
-25.3074
-24.2696
-23.2164
-22.1765
-21.1796
-20.2476
-19.4067