/*--------------------------------*- C++ -*----------------------------------*\
  =========                 |
  \\      /  F ield         | OpenFOAM: The Open Source CFD Toolbox
   \\    /   O peration     | Website:  https://openfoam.org
    \\  /    A nd           | Version:  10
     \\/     M anipulation  |
\*---------------------------------------------------------------------------*/
FoamFile
{
    format      ascii;
    class       volSymmTensorField;
    location    "0.011";
    object      UPrime2Mean;
}
// * * * * * * * * * * * * * * * * * * * * * * * * * * * * * * * * * * * * * //

dimensions      [0 2 -2 0 0 0 0];

internalField   nonuniform List<symmTensor> 
12225
(
(0.111508 0.00252518 0 0.00213319 0 0)
(0.0156304 -0.000484643 0 0.00108594 0 0)
(0.0320012 -0.00197444 0 0.000775626 0 0)
(0.03988 -0.00252972 0 0.000645506 0 0)
(0.065575 -0.00347603 0 0.000577048 0 0)
(0.117402 -0.00505428 0 0.000586367 0 0)
(0.194255 -0.00727794 0 0.000617693 0 0)
(0.295242 -0.00941631 0 0.000531995 0 0)
(0.425306 -0.0140737 0 0.000782853 0 0)
(0.587375 -0.0137466 0 0.000541068 0 0)
(0.803299 -0.0276056 0 0.00127939 0 0)
(1.05591 -0.0144475 0 0.000650919 0 0)
(1.43713 -0.0640343 0 0.00364658 0 0)
(1.83743 0.00427354 0 0.00223331 0 0)
(2.60743 -0.18798 0 0.0189957 0 0)
(3.40622 0.11278 0 0.0192077 0 0)
(5.44205 -0.807177 0 0.18015 0 0)
(8.60171 0.339348 0 0.0810326 0 0)
(0.103858 0.000776849 0 0.0023777 0 0)
(0.0175659 -0.000540813 0 0.00119268 0 0)
(0.0223658 -0.00150852 0 0.000880054 0 0)
(0.0177956 -0.00127165 0 0.000902255 0 0)
(0.0155298 -0.0015195 0 0.00106417 0 0)
(0.0173909 -0.0027349 0 0.00134264 0 0)
(0.0228858 -0.00427369 0 0.00156272 0 0)
(0.0341149 -0.00695479 0 0.00207413 0 0)
(0.0498091 -0.00929208 0 0.00217308 0 0)
(0.0792097 -0.0151402 0 0.00341538 0 0)
(0.113578 -0.0178242 0 0.00319672 0 0)
(0.187498 -0.0331713 0 0.00648806 0 0)
(0.260837 -0.0344882 0 0.00553529 0 0)
(0.453004 -0.0805173 0 0.01579 0 0)
(0.611003 -0.0758592 0 0.0128152 0 0)
(1.1748 -0.244192 0 0.0565449 0 0)
(1.58744 -0.311226 0 0.0654849 0 0)
(3.21446 -1.20873 0 0.512768 0 0)
(0.125699 0.000590974 0 0.00266508 0 0)
(0.016788 0.000318122 0 0.00124017 0 0)
(0.0146642 -0.000762289 0 0.000880495 0 0)
(0.0112607 -0.000869611 0 0.000862326 0 0)
(0.0120689 -0.0011398 0 0.00102835 0 0)
(0.01467 -0.00189335 0 0.00128928 0 0)
(0.0188027 -0.00337297 0 0.00175447 0 0)
(0.0251296 -0.00541343 0 0.00213498 0 0)
(0.0354874 -0.00889532 0 0.00326046 0 0)
(0.0508314 -0.0122973 0 0.00376488 0 0)
(0.0767982 -0.0208991 0 0.00661371 0 0)
(0.113747 -0.0267819 0 0.00724303 0 0)
(0.178414 -0.0506763 0 0.0153498 0 0)
(0.268961 -0.0622903 0 0.0160248 0 0)
(0.4371 -0.138267 0 0.0457279 0 0)
(0.677663 -0.193252 0 0.0572742 0 0)
(1.09179 -0.477032 0 0.223869 0 0)
(1.6077 -0.940777 0 0.604617 0 0)
(0.111649 0.00172846 0 0.00320875 0 0)
(0.0145972 -0.000256409 0 0.00220874 0 0)
(0.0166657 -0.00202436 0 0.0016686 0 0)
(0.0125593 -0.001951 0 0.00164678 0 0)
(0.0121948 -0.00208856 0 0.00201134 0 0)
(0.0147883 -0.0033673 0 0.00257263 0 0)
(0.0198665 -0.00556524 0 0.00320433 0 0)
(0.027793 -0.00871593 0 0.00424949 0 0)
(0.0393487 -0.0126416 0 0.00539877 0 0)
(0.0569265 -0.018947 0 0.00766632 0 0)
(0.0823696 -0.0270122 0 0.0101499 0 0)
(0.121695 -0.04146 0 0.0154463 0 0)
(0.179384 -0.0607893 0 0.0219605 0 0)
(0.269394 -0.0978569 0 0.0368416 0 0)
(0.405621 -0.156489 0 0.0619042 0 0)
(0.607379 -0.270211 0 0.123498 0 0)
(0.890643 -0.495606 0 0.287865 0 0)
(1.18243 -0.8344 0 0.636238 0 0)
(0.117034 0.00421903 0 0.00398309 0 0)
(0.0200578 0.000871932 0 0.00211009 0 0)
(0.0217925 -0.000700302 0 0.00184091 0 0)
(0.0160011 -0.00099823 0 0.00189549 0 0)
(0.014838 -0.00156814 0 0.00225193 0 0)
(0.0178376 -0.00313662 0 0.00291607 0 0)
(0.0237356 -0.0057716 0 0.00392906 0 0)
(0.0322416 -0.00936018 0 0.00517821 0 0)
(0.0443754 -0.0145032 0 0.00720148 0 0)
(0.0620198 -0.0214283 0 0.00982312 0 0)
(0.0881226 -0.0324485 0 0.0144487 0 0)
(0.126444 -0.0481004 0 0.0209277 0 0)
(0.182997 -0.0743526 0 0.0329803 0 0)
(0.264372 -0.11446 0 0.0525737 0 0)
(0.382407 -0.183508 0 0.0921849 0 0)
(0.538706 -0.301243 0 0.175316 0 0)
(0.733928 -0.489572 0 0.344072 0 0)
(0.896845 -0.770898 0 0.742364 0 0)
(0.105948 0.00150662 0 0.003653 0 0)
(0.0120946 -0.000850219 0 0.00244838 0 0)
(0.0170646 -0.0032204 0 0.00200835 0 0)
(0.01292 -0.00338455 0 0.00234569 0 0)
(0.0124899 -0.00395613 0 0.00306096 0 0)
(0.0160802 -0.00589151 0 0.00411836 0 0)
(0.0225606 -0.00909357 0 0.00558593 0 0)
(0.0315202 -0.0135007 0 0.00765337 0 0)
(0.0437883 -0.0195293 0 0.0105927 0 0)
(0.0609933 -0.0280912 0 0.0148862 0 0)
(0.0857891 -0.0407647 0 0.0213788 0 0)
(0.121078 -0.0596274 0 0.0314358 0 0)
(0.171809 -0.0888489 0 0.0480709 0 0)
(0.241344 -0.133536 0 0.0761952 0 0)
(0.336626 -0.205204 0 0.128276 0 0)
(0.451722 -0.314423 0 0.225558 0 0)
(0.579169 -0.476567 0 0.413633 0 0)
(0.671496 -0.679044 0 0.761745 0 0)
(0.112034 0.00390782 0 0.00398461 0 0)
(0.0159865 0.000846344 0 0.00354774 0 0)
(0.0197504 -0.00099906 0 0.00320444 0 0)
(0.0147482 -0.00131268 0 0.00345147 0 0)
(0.0134152 -0.00203176 0 0.00415561 0 0)
(0.0158193 -0.00413176 0 0.00537522 0 0)
(0.0210606 -0.00776407 0 0.00720652 0 0)
(0.0287629 -0.0127996 0 0.00977406 0 0)
(0.0394671 -0.0195213 0 0.0134904 0 0)
(0.0543602 -0.0288132 0 0.0190523 0 0)
(0.0755373 -0.0423353 0 0.0275159 0 0)
(0.105266 -0.0624082 0 0.0408779 0 0)
(0.146914 -0.0924393 0 0.0622228 0 0)
(0.201684 -0.137525 0 0.0983074 0 0)
(0.271978 -0.204261 0 0.159465 0 0)
(0.349538 -0.299874 0 0.268549 0 0)
(0.426272 -0.426074 0 0.452309 0 0)
(0.471577 -0.564441 0 0.755506 0 0)
(0.114993 0.00363125 0 0.00631919 0 0)
(0.0105879 0.000169524 0 0.00389404 0 0)
(0.0140987 -0.00227216 0 0.00327878 0 0)
(0.0109075 -0.00235212 0 0.00414519 0 0)
(0.0106735 -0.0031247 0 0.00547765 0 0)
(0.013535 -0.00546275 0 0.00724868 0 0)
(0.0186593 -0.00920726 0 0.00968479 0 0)
(0.0258036 -0.0142926 0 0.013109 0 0)
(0.035686 -0.0212742 0 0.0180599 0 0)
(0.0494187 -0.0312486 0 0.0253883 0 0)
(0.0684747 -0.0458021 0 0.0364188 0 0)
(0.0942313 -0.0669138 0 0.0534682 0 0)
(0.128426 -0.0973873 0 0.0801133 0 0)
(0.170729 -0.140752 0 0.123183 0 0)
(0.220737 -0.200891 0 0.192402 0 0)
(0.270794 -0.279964 0 0.305934 0 0)
(0.313828 -0.374133 0 0.481114 0 0)
(0.332553 -0.466426 0 0.745849 0 0)
(0.126265 0.00360399 0 0.00577848 0 0)
(0.0223267 -4.39437e-05 0 0.00553856 0 0)
(0.0231872 -0.00255321 0 0.0050272 0 0)
(0.0176209 -0.00223127 0 0.00544536 0 0)
(0.0153652 -0.00220274 0 0.00665654 0 0)
(0.0159198 -0.00385947 0 0.00860698 0 0)
(0.0185977 -0.00720203 0 0.0115369 0 0)
(0.0231957 -0.0120582 0 0.0158783 0 0)
(0.0301432 -0.0187741 0 0.0222023 0 0)
(0.0400753 -0.0281981 0 0.031445 0 0)
(0.0537872 -0.0416819 0 0.0450399 0 0)
(0.0717873 -0.0609012 0 0.0655318 0 0)
(0.0948269 -0.0879345 0 0.0964986 0 0)
(0.121727 -0.124716 0 0.144342 0 0)
(0.151462 -0.172892 0 0.217238 0 0)
(0.177898 -0.231156 0 0.328985 0 0)
(0.197241 -0.294649 0 0.490204 0 0)
(0.200134 -0.3481 0 0.716098 0 0)
(0.120862 0.00954085 0 0.00684019 0 0)
(0.0148045 -0.000560048 0 0.00494297 0 0)
(0.0163884 -0.00316734 0 0.00509496 0 0)
(0.0116022 -0.00223584 0 0.00644316 0 0)
(0.0098523 -0.00207562 0 0.0085152 0 0)
(0.0110942 -0.00402158 0 0.0112372 0 0)
(0.0145543 -0.00798121 0 0.0148982 0 0)
(0.019679 -0.0135941 0 0.0201234 0 0)
(0.0266044 -0.0209837 0 0.0276983 0 0)
(0.0357321 -0.0308297 0 0.0387236 0 0)
(0.0476265 -0.0443701 0 0.0547296 0 0)
(0.062285 -0.0629258 0 0.0783331 0 0)
(0.0798862 -0.0879642 0 0.112971 0 0)
(0.0987942 -0.120271 0 0.164441 0 0)
(0.117986 -0.160191 0 0.239095 0 0)
(0.132592 -0.204604 0 0.347029 0 0)
(0.141138 -0.248934 0 0.493374 0 0)
(0.138075 -0.279831 0 0.686931 0 0)
(0.10271 0.00615071 0 0.00821447 0 0)
(0.0156714 -0.00212141 0 0.00723548 0 0)
(0.0191278 -0.00581857 0 0.00663261 0 0)
(0.0134468 -0.00542549 0 0.00755812 0 0)
(0.0111253 -0.0054083 0 0.00952457 0 0)
(0.0120803 -0.00752922 0 0.0126626 0 0)
(0.0151381 -0.0117262 0 0.0173111 0 0)
(0.0194789 -0.0174955 0 0.0238792 0 0)
(0.0250419 -0.024842 0 0.0330128 0 0)
(0.0320773 -0.0343747 0 0.0458497 0 0)
(0.0409856 -0.0470745 0 0.0639773 0 0)
(0.0517183 -0.0638781 0 0.0899166 0 0)
(0.0640359 -0.0855414 0 0.126747 0 0)
(0.0764197 -0.112018 0 0.179254 0 0)
(0.0875149 -0.142402 0 0.252007 0 0)
(0.0942504 -0.173268 0 0.351894 0 0)
(0.0957001 -0.200032 0 0.480635 0 0)
(0.0903888 -0.213373 0 0.643262 0 0)
(0.122107 0.00739305 0 0.00702448 0 0)
(0.017978 -0.0025865 0 0.00733923 0 0)
(0.0190993 -0.00626091 0 0.00759642 0 0)
(0.0143354 -0.00528807 0 0.00888695 0 0)
(0.0132999 -0.00488622 0 0.0112694 0 0)
(0.0150269 -0.0068401 0 0.0149188 0 0)
(0.0176842 -0.0106448 0 0.0201736 0 0)
(0.0201213 -0.0155598 0 0.0275254 0 0)
(0.0224514 -0.0215454 0 0.0376903 0 0)
(0.0253873 -0.0291397 0 0.0518682 0 0)
(0.0296372 -0.0391689 0 0.0716565 0 0)
(0.0352167 -0.0521851 0 0.0993922 0 0)
(0.0417269 -0.0684629 0 0.137711 0 0)
(0.0476097 -0.0872327 0 0.190459 0 0)
(0.0519182 -0.107198 0 0.260687 0 0)
(0.0526064 -0.124664 0 0.353077 0 0)
(0.0499996 -0.136259 0 0.467235 0 0)
(0.0439648 -0.13435 0 0.606512 0 0)
(0.109096 0.00670433 0 0.00788473 0 0)
(0.0171411 -0.0037431 0 0.00787783 0 0)
(0.0187155 -0.00702512 0 0.0075807 0 0)
(0.0136186 -0.00597215 0 0.00894407 0 0)
(0.0122146 -0.00550413 0 0.0118796 0 0)
(0.0134872 -0.00712274 0 0.0161423 0 0)
(0.0157883 -0.0104306 0 0.0219452 0 0)
(0.0182098 -0.0149181 0 0.0299018 0 0)
(0.0207074 -0.0206276 0 0.040904 0 0)
(0.02355 -0.027923 0 0.0561708 0 0)
(0.0270074 -0.0372633 0 0.0771291 0 0)
(0.0309389 -0.0487198 0 0.105757 0 0)
(0.0350046 -0.0620786 0 0.144072 0 0)
(0.0380826 -0.0761064 0 0.194935 0 0)
(0.0395499 -0.0893333 0 0.260132 0 0)
(0.0383371 -0.0983951 0 0.342821 0 0)
(0.0350758 -0.100918 0 0.441555 0 0)
(0.030461 -0.0909788 0 0.55882 0 0)
(0.116695 0.00655166 0 0.00923782 0 0)
(0.019939 -0.00117979 0 0.00985103 0 0)
(0.0214665 -0.00404405 0 0.0100419 0 0)
(0.0171438 -0.00237746 0 0.0118425 0 0)
(0.0153175 -0.00148468 0 0.0150889 0 0)
(0.015409 -0.00283488 0 0.019949 0 0)
(0.0165379 -0.00593038 0 0.0267195 0 0)
(0.018065 -0.00993509 0 0.0358779 0 0)
(0.0197538 -0.0145561 0 0.0481503 0 0)
(0.0214606 -0.0199452 0 0.0645843 0 0)
(0.0230653 -0.0263849 0 0.0863868 0 0)
(0.0242756 -0.0337222 0 0.115168 0 0)
(0.0249115 -0.0414846 0 0.15241 0 0)
(0.0244783 -0.0483489 0 0.200233 0 0)
(0.023005 -0.0529455 0 0.259506 0 0)
(0.0204799 -0.052615 0 0.332271 0 0)
(0.0177708 -0.0458053 0 0.416262 0 0)
(0.0164215 -0.0284465 0 0.51334 0 0)
(0.114639 0.00794262 0 0.0107737 0 0)
(0.0130917 -0.00129604 0 0.00993426 0 0)
(0.0143937 -0.00516005 0 0.00970917 0 0)
(0.0109782 -0.00352183 0 0.0122131 0 0)
(0.0101303 -0.00241701 0 0.0163838 0 0)
(0.0101051 -0.00350308 0 0.0219709 0 0)
(0.0100852 -0.00606526 0 0.0292108 0 0)
(0.00995873 -0.00899081 0 0.0386773 0 0)
(0.00991288 -0.0118974 0 0.0511538 0 0)
(0.0100544 -0.0148772 0 0.0675779 0 0)
(0.0103718 -0.0180808 0 0.0888871 0 0)
(0.0106885 -0.0211959 0 0.116229 0 0)
(0.0109011 -0.0237288 0 0.150477 0 0)
(0.0107141 -0.0243777 0 0.192936 0 0)
(0.0102789 -0.022212 0 0.243695 0 0)
(0.00989381 -0.0149531 0 0.303948 0 0)
(0.0103986 -0.00217637 0 0.371342 0 0)
(0.0134578 0.0196107 0 0.447412 0 0)
(0.113706 0.009672 0 0.0108452 0 0)
(0.0130712 0.000419182 0 0.0115431 0 0)
(0.0142725 -0.00370661 0 0.0123122 0 0)
(0.00944226 -0.0022601 0 0.0152699 0 0)
(0.0076549 -0.00112834 0 0.0198267 0 0)
(0.00744136 -0.00189561 0 0.0257056 0 0)
(0.00760819 -0.00388608 0 0.0331152 0 0)
(0.00766558 -0.00601999 0 0.0426941 0 0)
(0.00755556 -0.00778711 0 0.0551933 0 0)
(0.0072853 -0.00911897 0 0.0713628 0 0)
(0.00689172 -0.00999773 0 0.0918446 0 0)
(0.0064541 -0.0100007 0 0.11739 0 0)
(0.00614479 -0.00861271 0 0.148386 0 0)
(0.00616125 -0.00479247 0 0.185487 0 0)
(0.00677269 0.00202644 0 0.228171 0 0)
(0.008547 0.0133397 0 0.276942 0 0)
(0.0119342 0.028964 0 0.329433 0 0)
(0.0185562 0.0512641 0 0.386788 0 0)
(0.12057 0.00848707 0 0.012363 0 0)
(0.0270325 -0.00177573 0 0.0121011 0 0)
(0.0284803 -0.00629244 0 0.011596 0 0)
(0.0231061 -0.00545867 0 0.0141818 0 0)
(0.0203914 -0.00447179 0 0.0188511 0 0)
(0.0186245 -0.00481697 0 0.0250182 0 0)
(0.0170044 -0.00596778 0 0.032531 0 0)
(0.0156643 -0.00689877 0 0.0416564 0 0)
(0.0148023 -0.00697252 0 0.0529315 0 0)
(0.0142964 -0.006029 0 0.0670192 0 0)
(0.013935 -0.00409362 0 0.0844375 0 0)
(0.0137578 -0.000922718 0 0.105698 0 0)
(0.0140284 0.00390374 0 0.130898 0 0)
(0.0151793 0.0112051 0 0.1603 0 0)
(0.0175953 0.0214504 0 0.193189 0 0)
(0.0220713 0.0356351 0 0.229784 0 0)
(0.0288526 0.0534134 0 0.267982 0 0)
(0.0394302 0.0762141 0 0.308968 0 0)
(0.119668 0.00798107 0 0.0145276 0 0)
(0.0150725 -0.00179385 0 0.0148192 0 0)
(0.0164373 -0.00643536 0 0.0140324 0 0)
(0.0136646 -0.00488591 0 0.015669 0 0)
(0.01219 -0.00306678 0 0.0192988 0 0)
(0.0104809 -0.0023405 0 0.0243876 0 0)
(0.00879258 -0.0020644 0 0.0307203 0 0)
(0.00779131 -0.00142063 0 0.0382609 0 0)
(0.00780503 -1.20964e-05 0 0.0473057 0 0)
(0.00863569 0.00233938 0 0.0584677 0 0)
(0.00994863 0.00587676 0 0.0721634 0 0)
(0.0117388 0.0110114 0 0.0885252 0 0)
(0.0142201 0.018087 0 0.107299 0 0)
(0.0178861 0.0275437 0 0.128369 0 0)
(0.0230452 0.0394743 0 0.151018 0 0)
(0.0304977 0.0542937 0 0.175336 0 0)
(0.0402519 0.0715546 0 0.199885 0 0)
(0.0536268 0.0918864 0 0.225586 0 0)
(0.118015 0.00872836 0 0.0130797 0 0)
(0.015753 -0.000417426 0 0.0131967 0 0)
(0.0175222 -0.0033222 0 0.0119016 0 0)
(0.0122801 -0.00133377 0 0.0134693 0 0)
(0.0110006 0.00121997 0 0.0165877 0 0)
(0.0110182 0.0032381 0 0.0204825 0 0)
(0.0112067 0.00517978 0 0.025361 0 0)
(0.0118337 0.00783542 0 0.0315407 0 0)
(0.01323 0.0116013 0 0.0391285 0 0)
(0.0154151 0.0165257 0 0.0480849 0 0)
(0.0183984 0.0225791 0 0.0582297 0 0)
(0.0224881 0.0299277 0 0.0693695 0 0)
(0.028039 0.0387218 0 0.0812908 0 0)
(0.0355013 0.0492118 0 0.0940733 0 0)
(0.0449824 0.0612607 0 0.107529 0 0)
(0.0569589 0.0750626 0 0.121908 0 0)
(0.0710746 0.0900451 0 0.136462 0 0)
(0.0881604 0.106763 0 0.151698 0 0)
(0.115579 0.00933648 0 0.011593 0 0)
(0.0156708 -0.00391202 0 0.0141989 0 0)
(0.0135162 -0.00676838 0 0.0138218 0 0)
(0.00928395 -0.0040547 0 0.0136766 0 0)
(0.0083106 -0.00103069 0 0.0147255 0 0)
(0.00761973 0.00106351 0 0.0170543 0 0)
(0.00706781 0.00258936 0 0.0204567 0 0)
(0.00739154 0.00440279 0 0.024661 0 0)
(0.00901762 0.00709048 0 0.0294351 0 0)
(0.0118391 0.0107933 0 0.034746 0 0)
(0.0155578 0.0154371 0 0.0406777 0 0)
(0.020124 0.0210233 0 0.0473273 0 0)
(0.0256962 0.027599 0 0.054663 0 0)
(0.032647 0.0353507 0 0.0626725 0 0)
(0.0411918 0.044246 0 0.0710769 0 0)
(0.0518251 0.0544286 0 0.0799062 0 0)
(0.0643779 0.0654923 0 0.0886373 0 0)
(0.079545 0.077754 0 0.0975463 0 0)
(0.104702 0.00732455 0 0.0105595 0 0)
(0.0152918 0.000795414 0 0.00906183 0 0)
(0.0169135 -0.00121164 0 0.00710328 0 0)
(0.012443 0.000727395 0 0.00757421 0 0)
(0.0111529 0.00284754 0 0.0089306 0 0)
(0.0110439 0.00435829 0 0.0106408 0 0)
(0.0117366 0.00568809 0 0.0128519 0 0)
(0.0133771 0.00747846 0 0.0156996 0 0)
(0.0159712 0.010184 0 0.0191623 0 0)
(0.0193462 0.0139287 0 0.0231615 0 0)
(0.0234137 0.0186129 0 0.0275931 0 0)
(0.0283478 0.0240926 0 0.0323579 0 0)
(0.0344605 0.0302387 0 0.0373095 0 0)
(0.042084 0.0370052 0 0.0423819 0 0)
(0.0513769 0.0443242 0 0.0474346 0 0)
(0.062593 0.0522497 0 0.0525346 0 0)
(0.0756734 0.0606511 0 0.057446 0 0)
(0.0908343 0.069666 0 0.0623906 0 0)
(0.109264 0.00386492 0 0.0113494 0 0)
(0.0146335 -0.000530458 0 0.00884565 0 0)
(0.0136777 -0.00141454 0 0.00689628 0 0)
(0.00936396 0.000302227 0 0.00680415 0 0)
(0.00895522 0.00222426 0 0.00734927 0 0)
(0.00958022 0.00376578 0 0.00831593 0 0)
(0.010702 0.0052868 0 0.00970394 0 0)
(0.0125761 0.00730385 0 0.0114906 0 0)
(0.0154612 0.0100608 0 0.013623 0 0)
(0.0194607 0.0135659 0 0.0160489 0 0)
(0.0246981 0.0177563 0 0.0187393 0 0)
(0.0314649 0.0225802 0 0.0216858 0 0)
(0.0400588 0.0280039 0 0.0248458 0 0)
(0.0506413 0.0340267 0 0.0281902 0 0)
(0.0631665 0.0405863 0 0.0315957 0 0)
(0.0775768 0.047664 0 0.0350728 0 0)
(0.0937187 0.0550993 0 0.0384154 0 0)
(0.111592 0.0629252 0 0.0417035 0 0)
(0.131498 0.00684342 0 0.00900164 0 0)
(0.021793 0.00228029 0 0.00646587 0 0)
(0.015529 0.00111648 0 0.0046575 0 0)
(0.0136635 0.00243854 0 0.00425487 0 0)
(0.0162486 0.00407443 0 0.00469902 0 0)
(0.0184931 0.00547 0 0.00557642 0 0)
(0.0203301 0.00688436 0 0.00663693 0 0)
(0.0228763 0.00873406 0 0.00777092 0 0)
(0.0268294 0.0111458 0 0.0089561 0 0)
(0.0321981 0.0140384 0 0.0102174 0 0)
(0.0387085 0.0173322 0 0.0116202 0 0)
(0.046288 0.0210458 0 0.0132349 0 0)
(0.055113 0.0252147 0 0.0150553 0 0)
(0.0655406 0.0298736 0 0.0170366 0 0)
(0.0777441 0.0349291 0 0.0190648 0 0)
(0.0919837 0.0403435 0 0.021111 0 0)
(0.108091 0.0459303 0 0.0230196 0 0)
(0.126157 0.0516937 0 0.0247809 0 0)
(0.116833 0.00494977 0 0.00715995 0 0)
(0.0161767 -0.000285098 0 0.00626983 0 0)
(0.0132477 -0.00084549 0 0.00503697 0 0)
(0.0105187 0.00112864 0 0.00458921 0 0)
(0.0115217 0.0027478 0 0.00471269 0 0)
(0.0122797 0.00374108 0 0.00512481 0 0)
(0.0129526 0.00461366 0 0.00564323 0 0)
(0.0147304 0.00594711 0 0.00625105 0 0)
(0.0183447 0.00793802 0 0.00696687 0 0)
(0.0238152 0.0104719 0 0.00779721 0 0)
(0.0308004 0.0133494 0 0.00873141 0 0)
(0.0390391 0.0164266 0 0.009752 0 0)
(0.0484679 0.0196485 0 0.0108407 0 0)
(0.0592197 0.0230448 0 0.0119911 0 0)
(0.0714023 0.0266247 0 0.0131493 0 0)
(0.0852387 0.0304532 0 0.0143279 0 0)
(0.100685 0.0344552 0 0.0154482 0 0)
(0.11774 0.0386491 0 0.0164929 0 0)
(0.106565 0.00606176 0 0.00671492 0 0)
(0.0119395 0.000496399 0 0.00546902 0 0)
(0.011919 -0.00142841 0 0.00381659 0 0)
(0.0102967 -0.000237551 0 0.00349426 0 0)
(0.0115434 0.00137206 0 0.003624 0 0)
(0.0123989 0.00245158 0 0.00387826 0 0)
(0.0135954 0.00304709 0 0.00415454 0 0)
(0.0161761 0.00363627 0 0.00441852 0 0)
(0.0204685 0.00459882 0 0.00468686 0 0)
(0.0263661 0.00605912 0 0.00501471 0 0)
(0.0336821 0.00797325 0 0.00543486 0 0)
(0.0423717 0.0102343 0 0.0059316 0 0)
(0.0524822 0.0127286 0 0.00647249 0 0)
(0.0640694 0.0153617 0 0.00703889 0 0)
(0.0771031 0.0180493 0 0.00758829 0 0)
(0.0916308 0.0207777 0 0.00812555 0 0)
(0.107615 0.0235127 0 0.00859578 0 0)
(0.12503 0.0262914 0 0.00900226 0 0)
(0.107344 -0.00119825 0 0.00548989 0 0)
(0.0142026 -0.00163304 0 0.00416146 0 0)
(0.0137451 -0.00152895 0 0.0025949 0 0)
(0.0110118 -0.000779728 0 0.00191968 0 0)
(0.0117986 -5.76486e-05 0 0.0018198 0 0)
(0.0129572 0.000622313 0 0.00192248 0 0)
(0.0148809 0.00137017 0 0.00204901 0 0)
(0.0182442 0.00232264 0 0.00216539 0 0)
(0.0232368 0.00350436 0 0.00229638 0 0)
(0.0297606 0.00487402 0 0.00246876 0 0)
(0.0376915 0.0064065 0 0.00268995 0 0)
(0.047067 0.00809507 0 0.00295362 0 0)
(0.0579908 0.00992084 0 0.00324721 0 0)
(0.0705531 0.011864 0 0.00355843 0 0)
(0.0847245 0.0138876 0 0.00385696 0 0)
(0.100493 0.0159715 0 0.00412869 0 0)
(0.117727 0.0180527 0 0.00432239 0 0)
(0.136339 0.0201404 0 0.00443671 0 0)
(0.11692 0.00115141 0 0.00507333 0 0)
(0.0125821 -0.000441055 0 0.00248398 0 0)
(0.010521 -0.000150176 0 0.00152683 0 0)
(0.00965363 0.00051186 0 0.00133624 0 0)
(0.0125326 0.00107864 0 0.00127489 0 0)
(0.0144423 0.00147452 0 0.00125626 0 0)
(0.0158935 0.00172997 0 0.0012618 0 0)
(0.0183898 0.00196475 0 0.00128294 0 0)
(0.0227114 0.00229325 0 0.00132329 0 0)
(0.0288718 0.00278471 0 0.00138311 0 0)
(0.0365528 0.00347054 0 0.0014529 0 0)
(0.0455495 0.00434302 0 0.00152116 0 0)
(0.0558668 0.00535645 0 0.00158253 0 0)
(0.0676302 0.00645485 0 0.00163536 0 0)
(0.0808826 0.00757454 0 0.00167286 0 0)
(0.0956984 0.00868714 0 0.00170246 0 0)
(0.111972 0.00974372 0 0.00171723 0 0)
(0.129553 0.0107392 0 0.00172021 0 0)
(0.105988 -0.000985945 0 0.00433443 0 0)
(0.0133908 -0.000300766 0 0.00265069 0 0)
(0.0140662 -0.000550758 0 0.00179618 0 0)
(0.0119262 -0.000556041 0 0.00142608 0 0)
(0.0128836 -0.000279092 0 0.00128573 0 0)
(0.0139271 3.52586e-05 0 0.00123982 0 0)
(0.015706 0.000281484 0 0.00121759 0 0)
(0.0188747 0.000481212 0 0.00119613 0 0)
(0.0233748 0.000700203 0 0.00117307 0 0)
(0.0291053 0.000996201 0 0.0011526 0 0)
(0.03617 0.00140502 0 0.00113719 0 0)
(0.0448063 0.00192791 0 0.00112494 0 0)
(0.0552142 0.00253027 0 0.00111441 0 0)
(0.067437 0.0031549 0 0.00110155 0 0)
(0.0813525 0.00375325 0 0.00108005 0 0)
(0.0968302 0.00429198 0 0.00106124 0 0)
(0.113716 0.00475832 0 0.00104092 0 0)
(0.131773 0.00516781 0 0.00101446 0 0)
(0.113483 -0.0017381 0 0.00314888 0 0)
(0.0135764 6.40903e-05 0 0.00140255 0 0)
(0.0125507 8.27059e-05 0 0.000940501 0 0)
(0.010696 -0.000385794 0 0.000783215 0 0)
(0.011672 -0.000750666 0 0.000745268 0 0)
(0.0124795 -0.000894133 0 0.000726859 0 0)
(0.0143171 -0.000872781 0 0.000685673 0 0)
(0.0180263 -0.000861717 0 0.000634632 0 0)
(0.0233675 -0.000972 0 0.000604513 0 0)
(0.0297836 -0.00117698 0 0.000600531 0 0)
(0.0369545 -0.00138943 0 0.000610203 0 0)
(0.044964 -0.00155753 0 0.000624499 0 0)
(0.0539616 -0.00167804 0 0.000641061 0 0)
(0.0641305 -0.00178251 0 0.000656835 0 0)
(0.0753171 -0.00190119 0 0.000663484 0 0)
(0.0875712 -0.00207292 0 0.000664034 0 0)
(0.100376 -0.00231807 0 0.000655557 0 0)
(0.113884 -0.00262818 0 0.000635912 0 0)
(0.109521 0.000269359 0 0.00222301 0 0)
(0.0164132 0.000472634 0 0.00117443 0 0)
(0.0180011 0.000729766 0 0.000808409 0 0)
(0.0133882 0.000679126 0 0.000669893 0 0)
(0.0142559 0.000843235 0 0.00060671 0 0)
(0.0192728 0.00111108 0 0.000566042 0 0)
(0.026197 0.00131285 0 0.000531542 0 0)
(0.0333932 0.00145551 0 0.000491387 0 0)
(0.0407539 0.00159695 0 0.000448061 0 0)
(0.0488928 0.00176525 0 0.000410544 0 0)
(0.0582494 0.00195993 0 0.000380477 0 0)
(0.0688142 0.00216115 0 0.000354706 0 0)
(0.0803819 0.0023442 0 0.000332372 0 0)
(0.0926061 0.00249674 0 0.000314956 0 0)
(0.105427 0.00262997 0 0.000302545 0 0)
(0.11855 0.00275499 0 0.000295588 0 0)
(0.132219 0.00289289 0 0.000291826 0 0)
(0.145887 0.00305132 0 0.000287003 0 0)
(0.00108375 -0.00244882 1.44961e-21 0.00580068 -2.76462e-21 1.00636e-36)
(0.010565 -0.00795442 -4.35761e-21 0.00636552 2.71923e-21 9.92304e-37)
(0.0308241 -0.0134599 0 0.00624355 0 0)
(0.0620456 -0.0190655 0 0.00613355 0 0)
(0.104377 -0.0247814 0 0.00604941 0 0)
(0.158726 -0.0307766 1.60414e-20 0.00604732 -2.90667e-21 9.34714e-37)
(0.225739 -0.0371505 0 0.00616175 0 0)
(0.306533 -0.0440268 0 0.00640514 0 0)
(0.40223 -0.0514845 0 0.00677155 0 0)
(0.514239 -0.0595942 0 0.00724898 0 0)
(0.644003 -0.0684015 -3.11608e-20 0.00782399 3.13062e-21 8.65842e-37)
(0.793238 -0.0779612 0 0.00848886 0 0)
(0.963748 -0.0883305 0 0.00924053 0 0)
(1.15741 -0.0995828 0 0.0100819 0 0)
(1.37621 -0.111745 0 0.0109964 0 0)
(1.62229 -0.124843 -4.59865e-20 0.0119774 3.05802e-21 8.00338e-37)
(1.89766 -0.138837 0 0.0129944 0 0)
(2.20427 -0.153614 0 0.0140145 0 0)
(2.54393 -0.169027 0 0.0150045 0 0)
(2.91797 -0.184838 0 0.0159267 0 0)
(3.32718 -0.200705 0 0.0167356 0 0)
(3.77179 -0.216277 0 0.0174025 0 0)
(4.25115 -0.231088 0 0.0178845 0 0)
(4.76372 -0.244687 -6.58763e-20 0.0181635 2.29472e-21 7.02429e-37)
(5.30684 -0.256508 6.77766e-20 0.0182008 -2.14377e-21 6.90785e-37)
(5.87664 -0.265989 -6.95028e-20 0.0179845 1.98168e-21 6.79273e-37)
(6.46783 -0.272558 -7.10417e-20 0.0175051 1.80916e-21 6.67893e-37)
(7.07375 -0.275619 0 0.0167592 0 0)
(7.6863 -0.274635 0 0.0157585 0 0)
(8.29591 -0.269136 7.43931e-20 0.0145278 -1.23826e-21 6.34543e-37)
(8.8917 -0.258778 7.5044e-20 0.0131061 -1.03415e-21 6.2369e-37)
(9.4618 -0.243339 0 0.0115399 0 0)
(9.99379 -0.222856 0 0.00990212 0 0)
(10.4749 -0.197555 7.54364e-20 0.00826089 -4.06811e-22 5.91918e-37)
(10.8931 -0.167904 0 0.00669078 0 0)
(11.2371 -0.134643 0 0.00526785 0 0)
(11.4975 -0.0987342 -7.3369e-20 0.0040548 -1.91219e-22 5.61324e-37)
(11.6669 -0.0613329 0 0.0030995 0 0)
(11.7406 -0.0236579 -7.06616e-20 0.00242528 -5.35964e-22 5.41579e-37)
(11.7177 0.0131796 -1.379e-19 0.00202868 -1.36985e-21 2.1276e-36)
(11.6009 0.0482259 0 0.00188702 0 0)
(11.3942 0.0806811 0 0.00196515 0 0)
(11.1042 0.109839 0 0.00222096 0 0)
(10.7396 0.135138 0 0.00260838 0 0)
(10.3103 0.156145 0 0.00307972 0 0)
(9.82772 0.172645 -1.10575e-19 0.00358414 -2.40498e-21 1.90606e-36)
(9.30333 0.184656 -1.05436e-19 0.00408108 -2.45523e-21 1.8709e-36)
(8.74886 0.192339 -1.00282e-19 0.00453499 -2.47628e-21 1.83625e-36)
(8.17553 0.195918 0 0.00491229 0 0)
(7.59394 0.19589 9.01126e-20 0.00520189 2.43964e-21 1.76842e-36)
(7.01391 0.192641 0 0.00538855 0 0)
(6.44349 0.186576 -8.03851e-20 0.00546215 -2.32139e-21 1.70256e-36)
(5.88993 0.178417 -7.5756e-20 0.00544013 -2.24043e-21 1.67035e-36)
(5.3594 0.168457 0 0.00531513 0 0)
(4.85635 0.157366 0 0.00511163 0 0)
(4.38391 0.145558 0 0.00484231 0 0)
(3.94422 0.133418 -5.91974e-20 0.00452229 -1.8313e-21 1.54626e-36)
(3.5382 0.121307 0 0.00416963 0 0)
(3.16655 0.109605 0 0.00380644 0 0)
(2.82788 0.0983051 0 0.00343186 0 0)
(2.52086 0.0877611 0 0.0030715 0 0)
(2.24428 0.0779513 0 0.00272488 0 0)
(1.99582 0.0689842 0 0.00240263 0 0)
(1.77355 0.060856 0 0.00210699 0 0)
(1.57497 0.0534909 0 0.00183569 0 0)
(1.39781 0.0468767 3.35987e-20 0.00159089 9.418e-22 1.29369e-36)
(1.2403 0.0409728 0 0.001372 0 0)
(1.10053 0.0357271 0 0.00117774 0 0)
(0.97674 0.0310844 -2.79879e-20 0.00100647 -7.26807e-22 1.21728e-36)
(0.867248 0.0269894 -2.63679e-20 0.000856306 -6.64537e-22 1.19263e-36)
(0.770533 0.0233883 0 0.000725346 0 0)
(0.6852 0.0202301 2.34576e-20 0.000611689 5.52934e-22 1.14454e-36)
(0.609984 0.0174674 -2.21534e-20 0.000513513 -5.03177e-22 1.12109e-36)
(0.543743 0.0150562 0 0.000429102 0 0)
(0.485449 0.0129566 1.98151e-20 0.00035686 4.14678e-22 1.07535e-36)
(0.434181 0.0111321 0 0.00029532 0 0)
(0.389114 0.00954972 0 0.000243144 0 0)
(0.349513 0.00818003 -1.6897e-20 0.000199123 -3.06359e-22 1.00958e-36)
(0.314725 0.00699652 0 0.000162168 0 0)
(0.284169 0.00597563 1.52854e-20 0.000131305 2.48155e-22 9.67564e-37)
(0.257331 0.00509641 0 0.000105669 0 0)
(0.233757 0.00434033 -1.38993e-20 8.44949e-05 -1.99492e-22 9.26976e-37)
(0.213047 0.00369103 -1.32811e-20 6.71085e-05 -1.7833e-22 9.07203e-37)
(0.194846 0.00313414 -1.27081e-20 5.29208e-05 -1.59079e-22 8.87772e-37)
(0.178846 0.00265705 -2.43536e-20 4.14183e-05 -2.83194e-22 3.47472e-36)
(0.164772 0.00224874 2.33686e-20 3.21569e-05 2.515e-22 3.39967e-36)
(0.152387 0.00189962 0 2.47538e-05 0 0)
(0.141482 0.00160135 0 1.8882e-05 0 0)
(0.131872 0.00134667 0 1.42629e-05 0 0)
(0.123398 0.00112936 2.00929e-20 1.06614e-05 1.52536e-22 3.11242e-36)
(0.115921 0.000944017 1.94155e-20 7.88007e-06 1.33647e-22 3.04374e-36)
(0.109318 0.000786047 -1.8786e-20 5.75499e-06 -1.16704e-22 2.97629e-36)
(0.103483 0.000651515 0 4.15051e-06 0 0)
(0.0983235 0.000537174 1.76561e-20 2.95643e-06 8.79515e-23 2.84498e-36)
(0.0937574 0.000440232 1.71487e-20 2.08242e-06 7.58043e-23 2.78108e-36)
(0.0897134 0.000358229 1.66757e-20 1.45435e-06 6.49489e-23 2.71834e-36)
(0.0861292 0.000288966 0 1.01201e-06 0 0)
(0.0829502 0.000230514 0 7.07474e-07 0 0)
(0.0801287 0.00018128 0 5.03265e-07 0 0)
(0.0776232 0.000139816 1.5074e-20 3.70533e-07 3.1991e-23 2.47852e-36)
(0.0753975 0.000104781 0 2.87462e-07 0 0)
(0.0734203 7.50855e-05 0 2.37668e-07 0 0)
(0.0716645 4.99112e-05 -1.41166e-20 2.09086e-07 -1.54688e-23 2.30991e-36)
(0.070106 2.86306e-05 0 1.9297e-07 0 0)
(0.0687236 1.05697e-05 0 1.83672e-07 0 0)
(0.067499 -4.9107e-06 -1.33158e-20 1.77101e-07 -3.84754e-24 2.15047e-36)
(0.0664161 -1.85772e-05 0 1.71512e-07 0 0)
(0.0654624 -3.09019e-05 0 1.6563e-07 0 0)
(0.0646249 -4.24731e-05 1.26362e-20 1.60384e-07 -4.65507e-24 1.99979e-36)
(0.0638972 -5.35776e-05 1.24319e-20 1.56476e-07 -6.9759e-24 1.95144e-36)
(0.0632656 -6.49906e-05 0 1.56974e-07 0 0)
(0.0627357 -7.6849e-05 -1.20515e-20 1.64424e-07 1.11223e-23 1.85745e-36)
(0.0623 -8.90229e-05 0 1.81213e-07 0 0)
(0.0619507 -0.000100951 1.17049e-20 2.0596e-07 -1.45267e-23 1.76701e-36)
(0.0616811 -0.000112236 0 2.365e-07 0 0)
(0.061485 -0.000122767 1.13861e-20 2.71332e-07 -1.7035e-23 1.67999e-36)
(0.0613565 -0.000132253 1.12355e-20 3.07158e-07 -1.79468e-23 1.63773e-36)
(0.0612902 -0.000140891 0 3.43926e-07 0 0)
(0.0612814 -0.000148697 0 3.80962e-07 0 0)
(0.0613253 -0.000155528 0 4.1657e-07 0 0)
(0.0614172 -0.000161376 0 4.49879e-07 0 0)
(0.0615523 -0.000166302 0 4.80456e-07 0 0)
(0.0617263 -0.000170243 0 5.07036e-07 0 0)
(0.0619347 -0.000172971 0 5.27236e-07 0 0)
(0.0621725 -0.000174141 1.01764e-20 5.37856e-07 -1.93212e-23 1.32799e-36)
(0.062434 -0.000173496 -1.00564e-20 5.36262e-07 1.89091e-23 1.29263e-36)
(0.0627133 -0.000171005 0 5.21651e-07 0 0)
(0.0630052 -0.000166954 0 4.95903e-07 0 0)
(0.0633052 -0.000161808 0 4.62759e-07 0 0)
(0.0636104 -0.000156101 0 4.26536e-07 0 0)
(0.0639192 -0.000150258 -1.89532e-20 3.90629e-07 3.16415e-23 4.5047e-36)
(0.0642307 -0.000144577 0 3.57123e-07 0 0)
(0.064545 -0.000139195 1.85025e-20 3.2681e-07 -2.92428e-23 4.25689e-36)
(0.0648622 -0.000134173 -1.82794e-20 2.99806e-07 2.81569e-23 4.13679e-36)
(0.0651825 -0.000129505 0 2.75833e-07 0 0)
(0.0655061 -0.000125186 0 2.54602e-07 0 0)
(0.065833 -0.000121191 0 2.35792e-07 0 0)
(0.0661634 -0.000117515 1.74003e-20 2.19166e-07 -2.45518e-23 3.68074e-36)
(0.0664973 -0.000114143 1.71835e-20 2.04492e-07 -2.38159e-23 3.57263e-36)
(0.0668347 -0.000111065 0 1.91574e-07 0 0)
(0.0671756 -0.000108269 1.67532e-20 1.80222e-07 -2.25055e-23 3.36321e-36)
(0.0675202 -0.000105734 1.65397e-20 1.70246e-07 -2.19212e-23 3.26184e-36)
(0.0678687 -0.000103446 -1.63271e-20 1.61486e-07 2.13744e-23 3.16263e-36)
(0.0682211 -0.000101384 0 1.53788e-07 0 0)
(0.0685775 -9.95377e-05 0 1.47037e-07 0 0)
(0.0689381 -9.78917e-05 -1.56953e-20 1.41119e-07 1.99191e-23 2.87772e-36)
(0.069303 -9.6437e-05 0 1.35949e-07 0 0)
(0.0696724 -9.51608e-05 0 1.31445e-07 0 0)
(0.0700465 -9.40555e-05 0 1.27542e-07 0 0)
(0.0704255 -9.31127e-05 0 1.24183e-07 0 0)
(0.0708096 -9.23269e-05 1.46603e-20 1.21324e-07 -1.79892e-23 2.44314e-36)
(0.0711991 -9.16965e-05 1.44558e-20 1.18935e-07 -1.76702e-23 2.36198e-36)
(0.0715944 -9.12143e-05 0 1.16977e-07 0 0)
(0.0719958 -9.08934e-05 1.40491e-20 1.15465e-07 -1.70979e-23 2.20517e-36)
(0.0724037 -9.07146e-05 0 1.14334e-07 0 0)
(0.0728186 -9.07291e-05 0 1.13702e-07 0 0)
(0.0732414 -9.0873e-05 1.34449e-20 1.13396e-07 -1.6418e-23 1.98328e-36)
(0.0736719 -9.12956e-05 0 1.13782e-07 0 0)