/*--------------------------------*- C++ -*----------------------------------*\
  =========                 |
  \\      /  F ield         | OpenFOAM: The Open Source CFD Toolbox
   \\    /   O peration     | Website:  https://openfoam.org
    \\  /    A nd           | Version:  10
     \\/     M anipulation  |
\*---------------------------------------------------------------------------*/
FoamFile
{
    format      ascii;
    class       volScalarField;
    location    "0.013";
    object      p;
}
// * * * * * * * * * * * * * * * * * * * * * * * * * * * * * * * * * * * * * //

dimensions      [0 2 -2 0 0 0 0];

internalField   nonuniform List<scalar> 
4000
(
6.29258
6.29225
6.29142
6.28984
6.28762
6.28474
6.28133
6.27725
6.27267
6.2674
6.26161
6.25509
6.24805
6.24023
6.23189
6.22273
6.21304
6.20248
6.19138
6.17936
6.1668
6.15325
6.13914
6.12396
6.1082
6.0913
6.07376
6.05498
6.03551
6.01468
5.9931
5.97002
5.9461
5.92051
5.89399
5.86563
5.8362
5.80473
5.77205
5.73709
5.70076
5.66189
5.62146
5.5782
5.53316
5.48497
5.43477
5.38107
5.32508
5.2652
5.20276
5.13601
5.06636
4.99198
4.91435
4.83152
4.74509
4.65297
4.55687
4.45459
4.34797
4.23466
4.11665
3.99149
3.86129
3.72351
3.58042
3.42938
3.27284
3.1081
2.93779
2.75915
2.57502
2.38264
2.18502
1.97945
1.76913
1.55141
1.32966
1.10137
0.870005
0.633226
0.394584
0.151928
-0.0911961
-0.336705
-0.581151
-0.826191
-1.06858
-1.30969
-1.54659
-1.78034
-2.00843
-2.23162
-2.44786
-2.6576
-2.85937
-3.05326
-3.23841
-3.41459
-3.58155
-3.7387
-3.88646
-4.02386
-4.15194
-4.26938
-4.37782
-4.47558
-4.56486
-4.64365
-4.71461
-4.7754
-4.82907
-4.87298
-4.91051
-4.93875
-4.96137
-4.97522
-4.98423
-4.98499
-4.98165
-4.9706
-4.95611
-4.93439
-4.90985
-4.87847
-4.84482
-4.80466
-4.76268
-4.71445
-4.6648
-4.60909
-4.55231
-4.48963
-4.4262
-4.357
-4.28737
-4.21208
-4.13671
-4.05583
-3.97523
-3.88931
-3.80406
-3.71373
-3.62451
-3.53049
-3.43805
-3.34116
-3.24632
-3.14744
-3.0511
-2.95114
-2.85421
-2.75411
-2.65749
-2.55816
-2.46273
-2.36503
-2.27159
-2.17631
-2.08558
-1.9934
-1.90601
-1.8175
-1.73394
-1.64957
-1.57022
-1.4903
-1.41544
-1.34019
-1.26996
-1.19947
-1.13392
-1.0682
-1.00729
-0.946242
-0.889829
-0.833292
-0.781191
-0.728931
-0.680889
-0.632625
-0.588347
-0.543762
-0.502924
-0.46167
-0.423917
-0.385618
-0.350573
-0.314827
-0.282093
-0.24849
-0.217667
-0.18581
-0.156516
-0.126072
-0.0979188
-0.0694159
-0.0401955
-0.0150005
6.29501
6.29469
6.29386
6.29229
6.29008
6.2872
6.28379
6.27973
6.27514
6.26989
6.2641
6.25761
6.25058
6.24281
6.23448
6.22538
6.21572
6.20523
6.19418
6.18226
6.16975
6.15632
6.14228
6.12725
6.11159
6.09485
6.07744
6.05885
6.03953
6.01894
5.99753
5.97471
5.95099
5.92572
5.89944
5.87143
5.84227
5.8112
5.77883
5.74432
5.70834
5.66996
5.62992
5.58721
5.54261
5.49501
5.44528
5.39222
5.33674
5.27756
5.21564
5.14962
5.08053
5.0069
4.92983
4.84777
4.76189
4.67052
4.57494
4.47338
4.3672
4.25454
4.13687
4.01224
3.88223
3.74482
3.60171
3.45082
3.29399
3.12911
2.95818
2.77907
2.59393
2.40067
2.20162
1.99474
1.78253
1.56305
1.33897
1.10849
0.874398
0.635064
0.393382
0.147903
-0.0984532
-0.346922
-0.594649
-0.842641
-1.0882
-1.33211
-1.57193
-1.80821
-2.03884
-2.26416
-2.48249
-2.69392
-2.89724
-3.09234
-3.27851
-3.45541
-3.62286
-3.78028
-3.92803
-4.06529
-4.19293
-4.30988
-4.41749
-4.51448
-4.60264
-4.68046
-4.75012
-4.80987
-4.86216
-4.905
-4.94111
-4.96829
-4.98949
-5.00234
-5.00997
-5.00983
-5.0052
-4.99338
-4.97772
-4.95538
-4.92981
-4.89798
-4.86343
-4.82297
-4.78021
-4.73181
-4.68147
-4.62568
-4.56826
-4.50555
-4.44149
-4.37226
-4.30196
-4.22662
-4.15051
-4.06952
-3.98808
-3.90196
-3.81577
-3.72514
-3.63485
-3.54045
-3.44684
-3.34949
-3.2534
-3.15399
-3.05634
-2.95582
-2.85755
-2.75689
-2.65895
-2.55908
-2.46237
-2.36419
-2.26953
-2.17385
-2.082
-1.98951
-1.90111
-1.8124
-1.72796
-1.64348
-1.56339
-1.48347
-1.40799
-1.33285
-1.26212
-1.19184
-1.12591
-1.06048
-0.999291
-0.938612
-0.882015
-0.825907
-0.7737
-0.72192
-0.673839
-0.626095
-0.581832
-0.537798
-0.497019
-0.456339
-0.418681
-0.380972
-0.346048
-0.310903
-0.278307
-0.245313
-0.214641
-0.183395
-0.154255
-0.124417
-0.0964131
-0.0684342
-0.0395904
-0.0148103
6.2999
6.29958
6.29875
6.29719
6.29498
6.29211
6.28871
6.28466
6.28008
6.27485
6.26909
6.26264
6.25565
6.24794
6.23968
6.23066
6.22109
6.21072
6.19979
6.18801
6.17566
6.16241
6.14857
6.13378
6.11835
6.1019
6.08477
6.06652
6.04755
6.02735
6.00636
5.98401
5.96077
5.93604
5.91031
5.88292
5.8544
5.82403
5.79238
5.75866
5.72349
5.68599
5.64686
5.60511
5.5615
5.51498
5.46633
5.41442
5.3601
5.30215
5.24148
5.17675
5.10896
5.03667
4.96093
4.88022
4.79566
4.70563
4.61132
4.51101
4.40599
4.29444
4.17773
4.05398
3.92464
3.78776
3.64493
3.49412
3.33705
3.17167
2.99984
2.81951
2.63271
2.43741
2.23583
2.026
1.81033
1.58697
1.35851
1.12326
0.883963
0.639107
0.391552
0.140005
-0.112639
-0.367448
-0.621576
-0.875868
-1.12763
-1.37749
-1.62301
-1.86461
-2.1002
-2.33002
-2.55238
-2.76732
-2.97366
-3.17124
-3.35938
-3.53772
-3.70612
-3.86401
-4.01178
-4.14863
-4.27546
-4.39126
-4.49737
-4.59261
-4.67875
-4.75442
-4.82175
-4.87912
-4.92892
-4.96927
-5.00281
-5.02749
-5.04615
-5.05658
-5.06179
-5.05942
-5.05259
-5.03878
-5.02121
-4.99719
-4.97001
-4.93682
-4.90096
-4.85944
-4.81564
-4.76642
-4.71524
-4.6588
-4.60068
-4.53739
-4.47265
-4.40285
-4.33182
-4.25581
-4.17884
-4.09703
-4.01454
-3.9274
-3.83994
-3.74808
-3.65631
-3.56045
-3.46515
-3.36615
-3.26821
-3.16702
-3.06742
-2.96504
-2.86477
-2.76224
-2.66231
-2.56063
-2.46201
-2.36213
-2.26572
-2.16849
-2.07508
-1.98125
-1.8915
-1.80168
-1.71613
-1.63078
-1.54982
-1.46928
-1.39317
-1.31763
-1.24651
-1.17606
-1.10994
-1.04453
-0.983338
-0.922856
-0.866423
-0.81066
-0.758756
-0.707444
-0.65978
-0.612605
-0.568852
-0.525464
-0.485266
-0.445294
-0.408272
-0.371317
-0.337069
-0.302709
-0.270819
-0.238632
-0.208683
-0.178257
-0.149851
-0.120838
-0.0935755
-0.0664057
-0.0383708
-0.0143846
6.30725
6.30693
6.3061
6.30454
6.30233
6.29947
6.29607
6.29204
6.28748
6.28228
6.27656
6.27016
6.26323
6.2556
6.24743
6.23853
6.22909
6.21888
6.20813
6.19655
6.18444
6.17146
6.15791
6.14344
6.12838
6.11233
6.09565
6.07789
6.05945
6.03983
6.01946
5.99779
5.97528
5.95134
5.92645
5.89996
5.87242
5.84307
5.81252
5.77996
5.74602
5.70983
5.67206
5.63176
5.58966
5.54472
5.49772
5.44753
5.395
5.33889
5.28011
5.21734
5.15153
5.08127
5.00758
4.92894
4.84644
4.75845
4.66613
4.56776
4.46458
4.35476
4.23963
4.11727
3.9891
3.85312
3.71086
3.56027
3.403
3.23695
3.06393
2.88184
2.69266
2.49432
2.28899
2.07469
1.85382
1.62451
1.38938
1.14675
0.899443
0.645985
0.389351
0.128317
-0.134072
-0.398797
-0.662849
-0.926979
-1.18833
-1.44745
-1.70175
-1.95159
-2.19476
-2.43146
-2.65995
-2.88023
-3.09108
-3.29236
-3.48338
-3.6638
-3.83351
-3.99197
-4.13961
-4.27568
-4.40113
-4.515
-4.61871
-4.71109
-4.79404
-4.86623
-4.9299
-4.98343
-5.02931
-5.06566
-5.09518
-5.11584
-5.13056
-5.13714
-5.13864
-5.13274
-5.12257
-5.10566
-5.08523
-5.05862
-5.02909
-4.99384
-4.95614
-4.91304
-4.86784
-4.81743
-4.76518
-4.70782
-4.64881
-4.58473
-4.51917
-4.44853
-4.37659
-4.2996
-4.22152
-4.13845
-4.05456
-3.96583
-3.87661
-3.7828
-3.68891
-3.59076
-3.49301
-3.39142
-3.29077
-3.18676
-3.08426
-2.97894
-2.8757
-2.7702
-2.66734
-2.56278
-2.46137
-2.35879
-2.2598
-2.16013
-2.06444
-1.96849
-1.87679
-1.7852
-1.69807
-1.61134
-1.52917
-1.44762
-1.37067
-1.29449
-1.22287
-1.1521
-1.08581
-1.02039
-0.959302
-0.899067
-0.842984
-0.787691
-0.73634
-0.685685
-0.638741
-0.592372
-0.549471
-0.507006
-0.467763
-0.428802
-0.392811
-0.356933
-0.323772
-0.290536
-0.25977
-0.228738
-0.199939
-0.170686
-0.143443
-0.115612
-0.0895198
-0.063521
-0.0366853
-0.0137674
6.31705
6.31672
6.31589
6.31433
6.31212
6.30926
6.30586
6.30183
6.2973
6.29212
6.28644
6.2801
6.27325
6.26571
6.25766
6.2489
6.23963
6.22961
6.21908
6.20777
6.19596
6.18331
6.17015
6.15611
6.14152
6.126
6.10989
6.09277
6.07502
6.05616
6.03661
6.01583
5.9943
5.97139
5.94762
5.92233
5.89606
5.86808
5.83898
5.80796
5.77566
5.7412
5.70526
5.66688
5.6268
5.58398
5.53919
5.49131
5.44117
5.38755
5.33134
5.27121
5.20811
5.14062
5.06974
4.99394
4.91428
4.82912
4.7396
4.64396
4.54341
4.43608
4.32325
4.20296
4.07657
3.94203
3.8008
3.65075
3.49347
3.32678
3.15242
2.96819
2.77601
2.57372
2.36348
2.1432
1.91531
1.67787
1.43357
1.18072
0.922266
0.656774
0.38741
0.113032
-0.163072
-0.44177
-0.719785
-0.997745
-1.27254
-1.5446
-1.81112
-2.07238
-2.32602
-2.57217
-2.80898
-3.03646
-3.25334
-3.45948
-3.65422
-3.83722
-4.00846
-4.1674
-4.31459
-4.44928
-4.57258
-4.6835
-4.78365
-4.87186
-4.95021
-5.0174
-5.07585
-5.12392
-5.16422
-5.19487
-5.2187
-5.2337
-5.24286
-5.24405
-5.24038
-5.22958
-5.21483
-5.1937
-5.1694
-5.13934
-5.10672
-5.06879
-5.02874
-4.98367
-4.93676
-4.88494
-4.83147
-4.77308
-4.71312
-4.64817
-4.58171
-4.51016
-4.43718
-4.35903
-4.27958
-4.19495
-4.10924
-4.01845
-3.9269
-3.83048
-3.73373
-3.63244
-3.53134
-3.42616
-3.32178
-3.21385
-3.10735
-2.99793
-2.8906
-2.78097
-2.67406
-2.5655
-2.46023
-2.35391
-2.25139
-2.14836
-2.04955
-1.95069
-1.85636
-1.76238
-1.67313
-1.58452
-1.50076
-1.41786
-1.33982
-1.26279
-1.19056
-1.1194
-1.05292
-0.987521
-0.926632
-0.866768
-0.811206
-0.756583
-0.706022
-0.656282
-0.610345
-0.565085
-0.523362
-0.482157
-0.444222
-0.406634
-0.372047
-0.337623
-0.305933
-0.274208
-0.244961
-0.215475
-0.188223
-0.160538
-0.134856
-0.1086
-0.084077
-0.0596423
-0.0344117
-0.0129231
6.3293
6.32896
6.32812
6.32655
6.32433
6.32145
6.31805
6.31402
6.3095
6.30434
6.2987
6.29241
6.28563
6.27819
6.27027
6.26166
6.25258
6.24279
6.23253
6.22153
6.21006
6.19782
6.18512
6.17159
6.15757
6.14268
6.12729
6.11094
6.09404
6.0761
6.05757
6.03788
6.01753
5.9959
5.97351
5.94969
5.92501
5.89872
5.87142
5.84232
5.81206
5.77975
5.74609
5.71011
5.67256
5.63239
5.59039
5.54541
5.49831
5.44783
5.39489
5.33813
5.2785
5.21456
5.14731
5.07519
4.99924
4.91781
4.83199
4.74
4.64299
4.53907
4.42944
4.3121
4.18832
4.05598
3.91646
3.76754
3.61069
3.44363
3.26799
3.08145
2.88584
2.67886
2.4626
2.23487
1.99805
1.75015
1.49392
1.22764
0.954428
0.672908
0.386508
0.0942221
-0.200321
-0.497802
-0.794573
-1.09106
-1.38381
-1.67307
-1.95577
-2.23203
-2.49931
-2.75766
-3.00514
-3.24171
-3.46609
-3.67815
-3.87727
-4.06317
-4.23589
-4.39496
-4.54105
-4.67346
-4.79346
-4.9001
-4.99517
-5.07753
-5.14952
-5.20986
-5.26116
-5.30178
-5.33448
-5.35741
-5.37354
-5.38088
-5.38259
-5.37657
-5.36604
-5.34878
-5.32804
-5.30145
-5.27222
-5.23781
-5.20137
-5.16021
-5.11741
-5.07009
-5.02134
-4.96807
-4.91339
-4.85407
-4.79328
-4.7276
-4.66037
-4.588
-4.51402
-4.43468
-4.35377
-4.26737
-4.17955
-4.08626
-3.99184
-3.89215
-3.79176
-3.68644
-3.58102
-3.47117
-3.3619
-3.24884
-3.1371
-3.02228
-2.90956
-2.7945
-2.68228
-2.56847
-2.45816
-2.34697
-2.23985
-2.13246
-2.02962
-1.92703
-1.82933
-1.73229
-1.64035
-1.5494
-1.46365
-1.37909
-1.29974
-1.22169
-1.14877
-1.07719
-1.01057
-0.945269
-0.884714
-0.825402
-0.77058
-0.716879
-0.66739
-0.618872
-0.574272
-0.53047
-0.490288
-0.450719
-0.414477
-0.378655
-0.345871
-0.313304
-0.283492
-0.253686
-0.226365
-0.198836
-0.173537
-0.147828
-0.124112
-0.0998366
-0.0772824
-0.0548091
-0.0315826
-0.0118795
6.344
6.34365
6.3428
6.3412
6.33895
6.33604
6.33261
6.32856
6.32402
6.31887
6.31325
6.307
6.30028
6.29293
6.28514
6.27669
6.26781
6.25825
6.24829
6.23763
6.22656
6.21478
6.20259
6.18964
6.17629
6.16213
6.14755
6.1321
6.11619
6.09934
6.08198
6.06358
6.04462
6.0245
6.00373
5.98165
5.95884
5.93455
5.9094
5.88257
5.85473
5.82499
5.79406
5.76096
5.72645
5.68947
5.65083
5.60936
5.56594
5.5193
5.47034
5.41771
5.36235
5.30281
5.24007
5.17255
5.10128
5.02457
4.94349
4.85621
4.76384
4.66443
4.55912
4.44584
4.32577
4.1967
4.05989
3.913
3.75738
3.59059
3.4141
3.22543
3.02624
2.81408
2.59086
2.35426
2.10658
1.8457
1.57443
1.29101
0.998761
0.696397
0.387709
0.0719091
-0.246889
-0.569073
-0.890462
-1.21119
-1.5273
-1.83882
-2.14227
-2.43764
-2.72211
-2.99566
-3.25622
-3.50376
-3.737
-3.95582
-4.15972
-4.34846
-4.52226
-4.68068
-4.82461
-4.95337
-5.06849
-5.16902
-5.25702
-5.3314
-5.3948
-5.44597
-5.48776
-5.51847
-5.54111
-5.55381
-5.5598
-5.55711
-5.54909
-5.53371
-5.51435
-5.48886
-5.46055
-5.42716
-5.39187
-5.35225
-5.31133
-5.2665
-5.2207
-5.17109
-5.12055
-5.06606
-5.01049
-4.95061
-4.8894
-4.82343
-4.75583
-4.68301
-4.60833
-4.528
-4.4457
-4.35749
-4.26735
-4.17121
-4.07341
-3.96975
-3.8649
-3.75457
-3.6437
-3.52794
-3.41245
-3.29283
-3.17437
-3.05265
-2.93301
-2.81101
-2.692
-2.57149
-2.45478
-2.3374
-2.22449
-2.11161
-2.00374
-1.89649
-1.79462
-1.69383
-1.59863
-1.50484
-1.41673
-1.33022
-1.24935
-1.17018
-1.09651
-1.02455
-0.957872
-0.892829
-0.832805
-0.774289
-0.720485
-0.668022
-0.619944
-0.573014
-0.53013
-0.488184
-0.44995
-0.412436
-0.378308
-0.344681
-0.314127
-0.28385
-0.256343
-0.228885
-0.203912
-0.178765
-0.155837
-0.132522
-0.111182
-0.0892971
-0.0691177
-0.049007
-0.0281901
-0.010635
6.36117
6.36082
6.35993
6.35829
6.35598
6.35301
6.34952
6.34542
6.34083
6.33565
6.33001
6.32376
6.31709
6.30981
6.30212
6.29382
6.28513
6.27583
6.26616
6.25586
6.24521
6.23392
6.2223
6.21
6.19737
6.18403
6.17035
6.15591
6.14111
6.12548
6.10946
6.09252
6.07513
6.05672
6.0378
6.01772
5.99705
5.97506
5.95236
5.92816
5.90312
5.87636
5.84858
5.81883
5.78785
5.75461
5.71989
5.68256
5.64347
5.60136
5.55713
5.50942
5.45919
5.40493
5.34765
5.28574
5.22022
5.14935
5.07418
4.99284
4.9064
4.81283
4.71323
4.60542
4.4905
4.36614
4.23345
4.08997
3.93685
3.77147
3.59509
3.40498
3.20258
2.98515
2.7544
2.50772
2.24726
1.97072
1.68087
1.37592
1.0594
0.730178
0.392544
0.0460775
-0.304415
-0.658832
-1.01225
-1.36433
-1.71048
-2.05036
-2.38001
-2.69922
-3.00485
-3.29683
-3.57296
-3.83326
-4.07647
-4.30259
-4.51125
-4.70232
-4.87623
-5.03267
-5.17276
-5.29592
-5.40393
-5.49591
-5.57422
-5.63787
-5.68987
-5.72894
-5.75819
-5.77589
-5.78535
-5.78471
-5.7775
-5.7618
-5.74125
-5.7139
-5.68333
-5.6475
-5.60983
-5.56815
-5.52563
-5.47993
-5.43399
-5.38524
-5.33641
-5.28474
-5.23283
-5.17769
-5.1219
-5.06226
-5.00142
-4.936
-4.86882
-4.79628
-4.72151
-4.64071
-4.55736
-4.46749
-4.37498
-4.27574
-4.17407
-4.06575
-3.9555
-3.83902
-3.7214
-3.59825
-3.47494
-3.34704
-3.22009
-3.08962
-2.96126
-2.83049
-2.70291
-2.57401
-2.44928
-2.3242
-2.20409
-2.08447
-1.97042
-1.85753
-1.75062
-1.64535
-1.54628
-1.44918
-1.35834
-1.26963
-1.1871
-1.10675
-1.03237
-0.96013
-0.893574
-0.829019
-0.769811
-0.712419
-0.659997
-0.609167
-0.562917
-0.518012
-0.477295
-0.437667
-0.401846
-0.366858
-0.335314
-0.304354
-0.276495
-0.248971
-0.224226
-0.19957
-0.177393
-0.155068
-0.134946
-0.114455
-0.0959142
-0.0768406
-0.059451
-0.0421171
-0.0241371
-0.0091367
6.38088
6.3805
6.37957
6.37785
6.37545
6.37237
6.36877
6.36455
6.35987
6.3546
6.34889
6.34261
6.33593
6.32868
6.32106
6.31288
6.30436
6.29529
6.28591
6.27597
6.26575
6.25497
6.24394
6.23233
6.22047
6.20801
6.19532
6.18197
6.16838
6.15409
6.13953
6.12419
6.10856
6.09205
6.07518
6.05732
6.03904
6.01962
5.99968
5.97843
5.95654
5.93313
5.90893
5.88297
5.85602
5.82703
5.79682
5.76422
5.73012
5.69325
5.65452
5.61255
5.56831
5.52028
5.46948
5.41425
5.35563
5.29183
5.2239
5.1499
5.07088
4.98475
4.89252
4.79194
4.68399
4.56623
4.43961
4.3015
4.1528
3.99069
3.81611
3.62605
3.42154
3.1995
2.96123
2.70372
2.42879
2.13378
1.82135
1.48955
1.14215
0.778277
0.402902
0.0162497
-0.375811
-0.772359
-1.16738
-1.55984
-1.94427
-2.31986
-2.68207
-3.03044
-3.36153
-3.67525
-3.96933
-4.2439
-4.49781
-4.73125
-4.94408
-5.13637
-5.30883
-5.46128
-5.5952
-5.71008
-5.80806
-5.88829
-5.95357
-6.00299
-6.04
-6.06319
-6.076
-6.07667
-6.06889
-6.05085
-6.02647
-5.99395
-5.95728
-5.91465
-5.86991
-5.82118
-5.77199
-5.72034
-5.66935
-5.6168
-5.56544
-5.51279
-5.46128
-5.40821
-5.3558
-5.30111
-5.24631
-5.18825
-5.12916
-5.06567
-5.00025
-4.92928
-4.85556
-4.77524
-4.69159
-4.60056
-4.50591
-4.40347
-4.29753
-4.18382
-4.06717
-3.94322
-3.81729
-3.68495
-3.55186
-3.41357
-3.27595
-3.13449
-2.99516
-2.8534
-2.71513
-2.57579
-2.44113
-2.30658
-2.17767
-2.04985
-1.92837
-1.80871
-1.69585
-1.58533
-1.48181
-1.38094
-1.28706
-1.19597
-1.11171
-1.03022
-0.955269
-0.882961
-0.816808
-0.753089
-0.69509
-0.639259
-0.588685
-0.539981
-0.496067
-0.453711
-0.415688
-0.378911
-0.346031
-0.314098
-0.285657
-0.257877
-0.233214
-0.208939
-0.187436
-0.166055
-0.147132
-0.128081
-0.111204
-0.0939686
-0.0786485
-0.0628005
-0.048606
-0.0344401
-0.0196696
-0.0075165
6.4032
6.40279
6.40178
6.39994
6.39739
6.39414
6.39034
6.38594
6.38108
6.37564
6.3698
6.3634
6.35665
6.34937
6.34176
6.33365
6.32526
6.31638
6.30726
6.29766
6.28787
6.27759
6.26716
6.25625
6.2452
6.23365
6.22199
6.20981
6.19751
6.18465
6.17167
6.15806
6.14431
6.12986
6.11523
6.09979
6.08412
6.06752
6.0506
6.0326
6.01418
5.99449
5.97425
5.95251
5.93005
5.90582
5.88066
5.8534
5.82494
5.794
5.76154
5.72613
5.68879
5.64796
5.60469
5.55728
5.5068
5.4514
5.39216
5.32706
5.25716
5.18027
5.09739
5.00615
4.90745
4.7987
4.68071
4.55063
4.40913
4.2531
4.08308
3.89568
3.69139
3.46661
3.22196
2.95381
2.66332
2.34721
2.00771
1.64258
1.25574
0.846659
0.421355
-0.0187845
-0.466163
-0.918378
-1.36776
-1.81218
-2.24501
-2.66484
-3.06647
-3.44927
-3.8096
-4.1475
-4.46082
-4.75
-5.01418
-5.25388
-5.46931
-5.66083
-5.82953
-5.97542
-6.10031
-6.20382
-6.28843
-6.35337
-6.40195
-6.43331
-6.4512
-6.45405
-6.44572
-6.42439
-6.3943
-6.35371
-6.3071
-6.25283
-6.1954
-6.13322
-6.0705
-6.00562
-5.94228
-5.87865
-5.81783
-5.75771
-5.70076
-5.64457
-5.59116
-5.53785
-5.48637
-5.43382
-5.38185
-5.32734
-5.27203
-5.21255
-5.1509
-5.08342
-5.0125
-4.93423
-4.85152
-4.76024
-4.66395
-4.55838
-4.44781
-4.32789
-4.20359
-4.07053
-3.93429
-3.79047
-3.64508
-3.49369
-3.34259
-3.18728
-3.03416
-2.87864
-2.72706
-2.57478
-2.4279
-2.28177
-2.1422
-2.00452
-1.87419
-1.74659
-1.62681
-1.51028
-1.40172
-1.2967
-1.19958
-1.10604
-1.02012
-0.937676
-0.862433
-0.790436
-0.725131
-0.662752
-0.606511
-0.552828
-0.504713
-0.458765
-0.417824
-0.378659
-0.343967
-0.310674
-0.281356
-0.253086
-0.22834
-0.204317
-0.18341
-0.162925
-0.145189
-0.12759
-0.112413
-0.0971131
-0.0839433
-0.0704155
-0.0587565
-0.046568
-0.0359997
-0.02544
-0.0143578
-0.00554771
6.42828
6.42782
6.4267
6.42468
6.42189
6.41836
6.41427
6.40957
6.40442
6.39871
6.39262
6.38602
6.37909
6.37169
6.36402
6.35591
6.34758
6.33883
6.32993
6.32062
6.31121
6.30142
6.29157
6.28135
6.27111
6.2605
6.2499
6.23892
6.22797
6.2166
6.20528
6.19349
6.18175
6.16948
6.15723
6.14438
6.13151
6.11793
6.10428
6.08978
6.07513
6.05947
6.04355
6.02642
6.00888
5.98987
5.97028
5.94892
5.92673
5.90241
5.87696
5.84893
5.81938
5.78672
5.75205
5.71363
5.67257
5.62697
5.57796
5.52345
5.46452
5.39891
5.32762
5.24816
5.16141
5.06464
4.9585
4.83997
4.70943
4.56349
4.4022
4.22173
4.02181
3.79813
3.55029
3.27362
2.96799
2.62895
2.2576
1.8509
1.41268
0.9429
0.449209
-0.0648041
-0.588436
-1.11661
-1.63899
-2.15169
-2.64641
-3.12089
-3.56922
-3.99084
-4.38222
-4.74403
-5.07468
-5.37539
-5.64597
-5.88761
-6.10112
-6.28732
-6.44777
-6.58271
-6.69434
-6.78231
-6.84949
-6.89517
-6.92313
-6.93224
-6.92646
-6.90397
-6.86913
-6.82009
-6.76174
-6.69249
-6.61754
-6.53554
-6.45164
-6.36466
-6.27931
-6.19435
-6.11374
-6.03597
-5.96403
-5.89592
-5.83369
-5.77496
-5.72109
-5.66946
-5.62111
-5.5732
-5.52673
-5.47865
-5.4301
-5.37772
-5.32292
-5.26196
-5.19672
-5.12307
-5.04352
-4.95371
-4.85695
-4.74878
-4.63346
-4.50652
-4.37317
-4.22897
-4.07992
-3.92164
-3.7607
-3.59269
-3.4245
-3.25167
-3.08115
-2.90838
-2.74017
-2.57185
-2.40995
-2.24971
-2.09726
-1.9478
-1.80702
-1.67015
-1.5424
-1.41908
-1.30496
-1.19547
-1.09496
-0.999029
-0.911643
-0.828579
-0.753481
-0.682323
-0.618462
-0.558079
-0.504288
-0.453476
-0.408553
-0.366105
-0.328874
-0.293633
-0.262985
-0.233874
-0.208791
-0.184834
-0.164406
-0.144738
-0.128156
-0.112007
-0.0985555
-0.0852369
-0.0742788
-0.0631841
-0.0541559
-0.0447543
-0.0371587
-0.0290178
-0.0224489
-0.0158459
-0.00876159
-0.00351575
6.45635
6.45581
6.45453
6.45223
6.44907
6.44512
6.44058
6.43543
6.42982
6.4237
6.41722
6.41028
6.40306
6.39543
6.3876
6.37938
6.37103
6.36233
6.35356
6.34448
6.3354
6.32604
6.31673
6.30717
6.29772
6.28803
6.27849
6.26872
6.25913
6.2493
6.23968
6.22978
6.22011
6.21012
6.20037
6.19022
6.1803
6.16991
6.15971
6.14893
6.13829
6.12693
6.11563
6.10345
6.0912
6.07785
6.0643
6.04936
6.03402
6.01696
5.99922
5.97935
5.95845
5.93492
5.9099
5.88162
5.85126
5.81689
5.77967
5.73748
5.69147
5.6393
5.58202
5.51707
5.44533
5.36396
5.27355
5.1709
5.0562
4.92573
4.77909
4.61193
4.42311
4.20745
3.9631
3.68396
3.36773
3.00767
2.60215
2.14562
1.64041
1.08706
0.496242
-0.12386
-0.756846
-1.39325
-2.01883
-2.62694
-3.20641
-3.75345
-4.26107
-4.72902
-5.15438
-5.53922
-5.88328
-6.18939
-6.45867
-6.69365
-6.89612
-7.06777
-7.21079
-7.32587
-7.41563
-7.4798
-7.52161
-7.54038
-7.54011
-7.51918
-7.48177
-7.42576
-7.35607
-7.27078
-7.1756
-7.06907
-6.95736
-6.83946
-6.7215
-6.6028
-6.48888
-6.37907
-6.27783
-6.18404
-6.10051
-6.02518
-5.95929
-5.90025
-5.84854
-5.80143
-5.75917
-5.719
-5.68122
-5.64295
-5.60466
-5.56308
-5.51892
-5.46832
-5.41239
-5.34676
-5.27325
-5.18716
-5.09138
-4.98121
-4.86081
-4.72561
-4.58108
-4.42284
-4.25743
-4.08061
-3.89965
-3.71032
-3.52026
-3.32514
-3.13262
-2.93822
-2.74933
-2.56129
-2.38107
-2.20386
-2.03607
-1.87281
-1.71994
-1.57254
-1.43592
-1.30522
-1.18524
-1.07123
-0.967529
-0.869569
-0.781254
-0.698237
-0.62406
-0.554603
-0.493107
-0.435685
-0.385332
-0.338391
-0.297655
-0.259689
-0.227128
-0.19674
-0.171032
-0.14696
-0.126929
-0.108062
-0.0926852
-0.0780654
-0.0664627
-0.0552634
-0.0466771
-0.0381831
-0.0319595
-0.025556
-0.0211324
-0.0162954
-0.0131854
-0.00949857
-0.00732927
-0.00508236
-0.00242989
-0.0011833
6.48777
6.48712
6.48558
6.48285
6.47913
6.47455
6.46934
6.4635
6.45724
6.4505
6.44346
6.43601
6.42836
6.42036
6.41222
6.40379
6.39529
6.38654
6.37782
6.36888
6.36004
6.35104
6.34222
6.33327
6.32456
6.31576
6.30726
6.29868
6.29046
6.28216
6.27426
6.26628
6.25873
6.25107
6.24387
6.23652
6.22964
6.22256
6.21594
6.20904
6.20259
6.19575
6.18932
6.18236
6.17573
6.16839
6.16128
6.15323
6.14524
6.13601
6.12664
6.11564
6.1042
6.09068
6.0763
6.05926
6.04084
6.01903
5.99513
5.96696
5.93578
5.89919
5.85839
5.81073
5.75725
5.695
5.62469
5.54299
5.45001
5.34183
5.21765
5.07261
4.90461
4.70744
4.47744
4.2068
3.89051
3.51913
3.087
2.58337
2.00484
1.3485
0.628448
-0.137873
-0.924563
-1.71633
-2.49394
-3.24541
-3.95395
-4.61186
-5.20991
-5.74752
-6.22263
-6.63922
-6.99928
-7.30824
-7.56968
-7.78844
-7.96825
-8.11242
-8.2244
-8.30547
-8.35854
-8.38372
-8.38479
-8.36107
-8.3168
-8.24991
-8.16489
-8.05925
-7.93857
-7.80076
-7.65257
-7.49266
-7.32847
-7.15949
-6.9932
-6.82974
-6.6759
-6.53214
-6.40383
-6.29094
-6.19586
-6.11569
-6.04993
-5.99529
-5.95083
-5.91363
-5.88293
-5.85623
-5.83315
-5.81117
-5.79004
-5.76664
-5.74074
-5.70825
-5.66915
-5.61847
-5.557
-5.47941
-5.38793
-5.27744
-5.15202
-5.007
-4.84832
-4.67176
-4.48473
-4.28327
-4.07574
-3.85821
-3.63939
-3.4152
-3.19425
-2.97217
-2.75713
-2.54445
-2.34164
-2.14377
-1.95761
-1.77807
-1.61119
-1.45184
-1.30537
-1.16673
-1.04066
-0.922236
-0.815685
-0.716278
-0.627789
-0.545723
-0.473479
-0.406819
-0.348835
-0.295553
-0.249822
-0.20793
-0.172536
-0.140175
-0.113361
-0.0888575
-0.0690652
-0.0509537
-0.0368381
-0.0238685
-0.0142945
-0.00542043
0.000556716
0.00620735
0.00937381
0.0125302
0.0135418
0.0148109
0.0142152
0.0140994
0.0123571
0.0112453
0.00868716
0.00627377
0.00422026
0.00125018
6.5231
6.52228
6.52034
6.51695
6.51237
6.50681
6.50058
6.49376
6.48655
6.47893
6.47109
6.46294
6.45465
6.44611
6.43751
6.4287
6.41993
6.411
6.4022
6.3933
6.38462
6.3759
6.36749
6.3591
6.3511
6.34315
6.33568
6.32829
6.32144
6.31469
6.30853
6.30249
6.2971
6.29182
6.28723
6.28273
6.27897
6.27528
6.27236
6.26946
6.26734
6.26517
6.26379
6.26226
6.2615
6.26045
6.2601
6.25929
6.25908
6.25816
6.25768
6.25617
6.25486
6.25212
6.24924
6.2444
6.23897
6.23092
6.22168
6.209
6.19434
6.17523
6.15311
6.12527
6.09305
6.0535
6.00764
5.9522
5.88755
5.80977
5.71802
5.60706
5.47382
5.31046
5.11045
4.86199
4.55484
4.1743
3.7106
3.15058
2.48781
1.70382
0.813183
-0.143187
-1.12642
-2.12026
-3.1005
-4.04399
-4.92299
-5.72265
-6.43069
-7.0467
-7.57107
-8.01158
-8.37468
-8.67029
-8.9062
-9.09093
-9.2314
-9.3333
-9.40197
-9.44009
-9.45107
-9.43462
-9.3935
-9.32617
-9.2362
-9.1209
-8.98432
-8.82358
-8.6445
-8.44497
-8.23273
-8.00682
-7.77627
-7.54128
-7.31118
-7.08758
-6.87982
-6.691
-6.52925
-6.3969
-6.29364
-6.21283
-6.15038
-6.10174
-6.06437
-6.03563
-6.0144
-5.99939
-5.99016
-5.9853
-5.98413
-5.98391
-5.98319
-5.9773
-5.96436
-5.93813
-5.89747
-5.83581
-5.75415
-5.64663
-5.5171
-5.36085
-5.18445
-4.98417
-4.76864
-4.5346
-4.29187
-4.03718
-3.78065
-3.51873
-3.26118
-3.00396
-2.75609
-2.51296
-2.28263
-2.06005
-1.85228
-1.654
-1.47133
-1.29887
-1.14196
-0.995234
-0.86335
-0.74113
-0.632638
-0.532929
-0.445587
-0.36594
-0.297185
-0.234943
-0.18211
-0.134612
-0.0951166
-0.0598474
-0.0313045
-0.00599112
0.0137147
0.031054
0.0437377
0.054782
0.0619613
0.0680957
0.0710072
0.0733517
0.0729884
0.072441
0.0695958
0.0668778
0.0621867
0.0578755
0.0518486
0.0464027
0.0394538
0.0332122
0.025608
0.0182304
0.011183
0.0037591
6.5632
6.56211
6.55955
6.55512
6.54919
6.54217
6.53448
6.52626
6.51776
6.50895
6.50003
6.49088
6.48169
6.47231
6.46296
6.45346
6.44409
6.43465
6.42543
6.41623
6.40737
6.39861
6.3903
6.38217
6.37459
6.36723
6.36053
6.3541
6.3484
6.34301
6.33843
6.33419
6.33083
6.32782
6.32577
6.32409
6.32343
6.32314
6.32394
6.3251
6.3274
6.33005
6.33387
6.33799
6.34332
6.34885
6.3556
6.36243
6.37042
6.37831
6.38728
6.39589
6.40541
6.41422
6.42369
6.43198
6.44058
6.4474
6.45403
6.45815
6.46145
6.46135
6.45966
6.45357
6.44493
6.43077
6.41288
6.38818
6.35803
6.31914
6.27165
6.2113
6.13514
6.03523
5.90131
5.71501
5.4495
5.06625
4.51248
3.74741
2.72481
1.5312
0.26591
-0.967922
-2.14952
-3.29965
-4.40134
-5.42212
-6.33317
-7.12311
-7.7904
-8.34233
-8.7905
-9.14753
-9.42783
-9.64232
-9.80367
-9.91859
-9.99694
-10.0421
-10.0624
-10.0577
-10.0337
-9.98731
-9.92295
-9.83533
-9.72704
-9.59193
-9.43377
-9.24751
-9.0377
-8.80146
-8.54592
-8.27111
-7.98564
-7.69184
-7.39808
-7.10912
-6.83537
-6.58764
-6.39445
-6.27946
-6.21675
-6.1825
-6.1653
-6.15755
-6.15422
-6.15363
-6.15572
-6.16231
-6.17463
-6.19402
-6.22048
-6.2526
-6.28789
-6.32091
-6.34696
-6.35751
-6.34835
-6.31069
-6.24371
-6.14043
-6.00459
-5.83153
-5.62912
-5.39447
-5.13828
-4.85842
-4.56687
-4.2614
-3.95407
-3.64203
-3.33665
-3.0342
-2.74482
-2.46386
-2.2
-1.9479
-1.71488
-1.49517
-1.29494
-1.10833
-0.940576
-0.785908
-0.648825
-0.52378
-0.414649
-0.316166
-0.231704
-0.15632
-0.0929932
-0.0371302
0.00857761
0.0483663
0.0797457
0.106604
0.126589
0.143264
0.154368
0.163172
0.167478
0.170305
0.169492
0.167845
0.163232
0.158282
0.150882
0.143523
0.134108
0.125025
0.114182
0.103896
0.0920721
0.0809705
0.0685069
0.0568541
0.0439209
0.0312953
0.0188931
0.00664253
6.60962
6.60792
6.6041
6.59773
6.58953
6.58027
6.57058
6.56069
6.55085
6.54101
6.53131
6.52157
6.51194
6.50224
6.49265
6.483
6.47352
6.46403
6.45483
6.44571
6.43699
6.42845
6.42044
6.41269
6.40559
6.39883
6.39283
6.38724
6.38251
6.37825
6.37497
6.3722
6.37051
6.3694
6.36947
6.37016
6.37216
6.37482
6.37889
6.38368
6.38998
6.39702
6.40568
6.41509
6.42621
6.43806
6.45168
6.46598
6.48208
6.49875
6.51721
6.53605
6.55661
6.57726
6.59945
6.62134
6.6445
6.6668
6.68997
6.71161
6.73361
6.75328
6.77272
6.78903
6.80459
6.81643
6.82729
6.8344
6.84099
6.84491
6.8497
6.85412
6.86109
6.86921
6.87653
6.87402
6.83443
6.71122
6.34777
5.58334
3.7376
1.31773
-0.812447
-2.45226
-3.79104
-4.95746
-5.96858
-6.83673
-7.56349
-8.16825
-8.65912
-9.05771
-9.37285
-9.62295
-9.81498
-9.96273
-10.0714
-10.1505
-10.2037
-10.2352
-10.2464
-10.2371
-10.2094
-10.1606
-10.094
-10.0041
-9.89459
-9.75783
-9.59951
-9.41063
-9.19939
-8.95767
-8.69789
-8.41277
-8.11787
-7.80563
-7.49059
-7.16502
-6.8349
-6.49124
-6.1664
-6.03371
-5.98617
-5.97712
-5.99421
-6.02394
-6.05714
-6.09032
-6.12473
-6.16401
-6.21155
-6.27114
-6.34463
-6.43231
-6.53107
-6.63387
-6.73144
-6.81086
-6.86214
-6.8728
-6.83855
-6.75118
-6.61391
-6.42302
-6.18815
-5.90871
-5.59827
-5.25721
-4.90035
-4.52748
-4.15307
-3.77579
-3.40882
-3.0493
-2.7084
-2.38167
-2.07813
-1.79213
-1.53088
-1.2881
-1.06964
-0.869083
-0.691327
-0.530142
-0.389693
-0.264047
-0.156746
-0.0621855
0.0166013
0.0848465
0.13989
0.186557
0.222435
0.251925
0.272767
0.288953
0.298309
0.304449
0.305244
0.303977
0.298544
0.291946
0.282087
0.271738
0.258807
0.245877
0.230859
0.216192
0.199792
0.183994
0.166711
0.150205
0.132383
0.115455
0.0973318
0.080147
0.0618027
0.0438855
0.0262841
0.009185
6.66554
6.66347
6.65729
6.64657
6.63312
6.61854
6.60384
6.58938
6.57545
6.56199
6.5491
6.53661
6.52464
6.51297
6.50179
6.4909
6.48054
6.4705
6.46108
6.45202
6.44366
6.43572
6.42856
6.42187
6.41603
6.41069
6.40629
6.40244
6.3996
6.39737
6.39625
6.39579
6.39657
6.39809
6.40097
6.40467
6.40988
6.41601
6.42381
6.43262
6.44328
6.45503
6.4688
6.48374
6.50087
6.51924
6.53995
6.56192
6.58636
6.61205
6.6403
6.6697
6.70168
6.73462
6.77006
6.80613
6.84452
6.88305
6.92354
6.96353
7.00498
7.04515
7.08621
7.12521
7.16468
7.20167
7.2394
7.27544
7.3143
7.35511
7.40478
7.46619
7.55065
7.66917
7.84167
8.09508
8.45875
8.9955
9.66968
10.6963
10.6611
6.18114
2.33925
-0.246088
-2.34762
-4.04096
-5.33409
-6.33451
-7.12183
-7.74914
-8.25407
-8.66433
-8.99747
-9.26789
-9.4845
-9.6565
-9.78889
-9.8885
-9.95788
-10.0023
-10.0224
-10.0218
-9.99966
-9.9576
-9.89246
-9.80409
-9.68892
-9.5472
-9.37691
-9.17813
-8.95142
-8.69874
-8.42382
-8.13098
-7.82561
-7.5134
-7.19869
-6.88902
-6.58304
-6.22809
-6.266
-6.2198
-6.14891
-6.10071
-6.08398
-6.0873
-6.101
-6.12064
-6.14853
-6.1868
-6.24083
-6.31375
-6.41193
-6.53631
-6.68748
-6.85465
-7.02659
-7.18261
-7.30779
-7.38303
-7.40006
-7.34677
-7.2239
-7.02745
-6.76825
-6.44782
-6.08342
-5.67784
-5.2496
-4.80099
-4.34967
-3.89647
-3.45731
-3.03088
-2.62988
-2.25037
-1.9017
-1.57795
-1.28593
-1.01878
-0.781679
-0.5676
-0.380845
-0.214749
-0.0730217
0.0506411
0.153162
0.240519
0.310158
0.367658
0.410806
0.4447
0.467303
0.483203
0.490431
0.49308
0.489188
0.482405
0.47075
0.457493
0.440624
0.423102
0.402893
0.382702
0.360475
0.338721
0.315371
0.292787
0.268895
0.245954