/*--------------------------------*- C++ -*----------------------------------*\
  =========                 |
  \\      /  F ield         | OpenFOAM: The Open Source CFD Toolbox
   \\    /   O peration     | Website:  https://openfoam.org
    \\  /    A nd           | Version:  10
     \\/     M anipulation  |
\*---------------------------------------------------------------------------*/
FoamFile
{
    format      ascii;
    class       surfaceScalarField;
    location    "0.013";
    object      phi;
}
// * * * * * * * * * * * * * * * * * * * * * * * * * * * * * * * * * * * * * //

dimensions      [0 3 -1 0 0 0 0];

internalField   nonuniform List<scalar> 
7780
(
2.50002e-09
-2.90078e-14
2.50009e-09
-1.0059e-13
2.50024e-09
-1.64014e-13
2.50044e-09
-2.2595e-13
2.50071e-09
-2.86862e-13
2.50103e-09
-3.47838e-13
2.50142e-09
-4.08243e-13
2.50186e-09
-4.69108e-13
2.50238e-09
-5.29433e-13
2.50294e-09
-5.90457e-13
2.50358e-09
-6.5095e-13
2.50426e-09
-7.12421e-13
2.50503e-09
-7.73411e-13
2.50582e-09
-8.35695e-13
2.50672e-09
-8.97596e-13
2.50764e-09
-9.61165e-13
2.50866e-09
-1.02451e-12
2.50971e-09
-1.08995e-12
2.51087e-09
-1.15539e-12
2.51205e-09
-1.22343e-12
2.51334e-09
-1.29175e-12
2.51466e-09
-1.36323e-12
2.5161e-09
-1.43536e-12
2.51756e-09
-1.51128e-12
2.51917e-09
-1.58828e-12
2.52078e-09
-1.66976e-12
2.52255e-09
-1.75282e-12
2.52434e-09
-1.84114e-12
2.52629e-09
-1.9316e-12
2.52826e-09
-2.02816e-12
2.53041e-09
-2.12751e-12
2.53258e-09
-2.23386e-12
2.53495e-09
-2.34372e-12
2.53735e-09
-2.46156e-12
2.53997e-09
-2.58369e-12
2.54262e-09
-2.71485e-12
2.5455e-09
-2.85116e-12
2.54843e-09
-2.9976e-12
2.55162e-09
-3.15014e-12
2.55486e-09
-3.31394e-12
2.55839e-09
-3.48484e-12
2.56199e-09
-3.6682e-12
2.56589e-09
-3.8597e-12
2.56988e-09
-4.06486e-12
2.57421e-09
-4.27925e-12
2.57865e-09
-4.5085e-12
2.58345e-09
-4.74809e-12
2.58838e-09
-5.00369e-12
2.5937e-09
-5.27071e-12
2.59919e-09
-5.55481e-12
2.60509e-09
-5.85133e-12
2.61119e-09
-6.16586e-12
2.61774e-09
-6.49367e-12
2.62451e-09
-6.84021e-12
2.63177e-09
-7.20067e-12
2.63928e-09
-7.58024e-12
2.64732e-09
-7.97403e-12
2.65564e-09
-8.3869e-12
2.66452e-09
-8.81379e-12
2.67371e-09
-9.25915e-12
2.6835e-09
-9.71767e-12
2.69362e-09
-1.01933e-11
2.70437e-09
-1.06804e-11
2.71548e-09
-1.11824e-11
2.72725e-09
-1.16929e-11
2.73939e-09
-1.2215e-11
2.75221e-09
-1.27416e-11
2.76541e-09
-1.32749e-11
2.77929e-09
-1.38073e-11
2.79355e-09
-1.43403e-11
2.8085e-09
-1.48651e-11
2.8238e-09
-1.53831e-11
2.83977e-09
-1.58841e-11
2.85605e-09
-1.63695e-11
2.87297e-09
-1.68276e-11
2.89013e-09
-1.72602e-11
2.90788e-09
-1.76544e-11
2.92578e-09
-1.80128e-11
2.94422e-09
-1.83213e-11
2.96267e-09
-1.85838e-11
2.98158e-09
-1.87853e-11
3.00038e-09
-1.89321e-11
3.01952e-09
-1.90082e-11
3.03839e-09
-1.90227e-11
3.0575e-09
-1.89593e-11
3.07617e-09
-1.88305e-11
3.09495e-09
-1.86195e-11
3.11312e-09
-1.83427e-11
3.13128e-09
-1.7983e-11
3.14866e-09
-1.75605e-11
3.1659e-09
-1.70581e-11
3.18222e-09
-1.64992e-11
3.19829e-09
-1.58665e-11
3.21329e-09
-1.51866e-11
3.22794e-09
-1.44415e-11
3.24142e-09
-1.36606e-11
3.25446e-09
-1.28252e-11
3.26626e-09
-1.19667e-11
3.27755e-09
-1.10654e-11
3.28754e-09
-1.01541e-11
3.29698e-09
-9.21249e-12
3.3051e-09
-8.27358e-12
3.31265e-09
-7.31642e-12
3.31889e-09
-6.37383e-12
3.32454e-09
-5.42433e-12
3.32893e-09
-4.49977e-12
3.33273e-09
-3.57836e-12
3.33532e-09
-2.69033e-12
3.33735e-09
-1.81389e-12
3.33826e-09
-9.77667e-13
3.33862e-09
-1.59762e-13
3.33796e-09
6.14748e-13
3.33678e-09
1.36755e-12
3.33468e-09
2.07571e-12
3.3321e-09
2.76004e-12
3.32869e-09
3.4003e-12
3.32484e-09
4.0163e-12
3.32026e-09
4.59052e-12
3.31526e-09
5.14151e-12
3.30964e-09
5.65441e-12
3.30363e-09
6.1462e-12
3.29707e-09
6.6045e-12
3.29014e-09
7.04443e-12
3.28276e-09
7.45593e-12
3.275e-09
7.85194e-12
3.26687e-09
8.22458e-12
3.25836e-09
8.58428e-12
3.24955e-09
8.92524e-12
3.24035e-09
9.25513e-12
3.23092e-09
9.57019e-12
3.22108e-09
9.87508e-12
3.21107e-09
1.01681e-11
3.20064e-09
1.04508e-11
3.1901e-09
1.07237e-11
3.17911e-09
1.09848e-11
3.16809e-09
1.12371e-11
3.15658e-09
1.14752e-11
3.14512e-09
1.17047e-11
3.13315e-09
1.19168e-11
3.12129e-09
1.21197e-11
3.10891e-09
1.23015e-11
3.09673e-09
1.24731e-11
3.084e-09
1.26195e-11
3.07156e-09
1.27548e-11
3.05857e-09
1.2861e-11
3.04595e-09
1.29552e-11
3.03277e-09
1.30168e-11
3.02006e-09
1.30663e-11
3.00679e-09
1.30802e-11
2.99407e-09
1.30823e-11
2.98082e-09
1.30471e-11
2.96819e-09
1.3001e-11
2.95505e-09
1.29169e-11
2.94261e-09
1.28235e-11
2.92966e-09
1.26924e-11
2.91749e-09
1.25544e-11
2.90484e-09
1.23798e-11
2.89303e-09
1.22013e-11
2.88075e-09
1.19883e-11
2.86936e-09
1.17746e-11
2.85754e-09
1.1529e-11
2.84662e-09
1.12861e-11
2.8353e-09
1.10146e-11
2.82492e-09
1.07492e-11
2.81415e-09
1.04585e-11
2.80432e-09
1.01774e-11
2.79414e-09
9.87444e-12
2.78489e-09
9.5841e-12
2.7753e-09
9.27527e-12
2.76664e-09
8.98183e-12
2.75766e-09
8.67312e-12
2.74959e-09
8.38213e-12
2.7412e-09
8.0788e-12
2.7337e-09
7.7951e-12
2.7259e-09
7.50167e-12
2.71895e-09
7.22935e-12
2.71171e-09
6.94956e-12
2.70529e-09
6.69195e-12
2.69858e-09
6.42876e-12
2.69264e-09
6.18846e-12
2.68642e-09
5.94411e-12
2.68095e-09
5.72306e-12
2.67518e-09
5.49915e-12
2.67012e-09
5.29867e-12
2.66476e-09
5.09625e-12
2.66008e-09
4.91718e-12
2.65509e-09
4.73686e-12
2.65073e-09
4.57967e-12
2.64607e-09
4.42164e-12
2.642e-09
4.2864e-12
2.63761e-09
4.15053e-12
2.63379e-09
4.03708e-12
2.62963e-09
3.92301e-12
2.62601e-09
3.83096e-12
2.62204e-09
3.73809e-12
2.61859e-09
3.66653e-12
2.6149e-09
3.59466e-12
2.61131e-09
3.53956e-12
2.60781e-09
3.49717e-12
3.44064e-12
2.50002e-09
-5.85057e-14
2.50009e-09
-2.0296e-13
2.50024e-09
-3.30229e-13
2.50044e-09
-4.53916e-13
2.50071e-09
-5.76094e-13
2.50103e-09
-6.97723e-13
2.50143e-09
-8.19036e-13
2.50187e-09
-9.40349e-13
2.50239e-09
-1.06157e-12
2.50294e-09
-1.18298e-12
2.50359e-09
-1.30452e-12
2.50427e-09
-1.42658e-12
2.50503e-09
-1.54908e-12
2.50583e-09
-1.67251e-12
2.50672e-09
-1.79683e-12
2.50765e-09
-1.92259e-12
2.50867e-09
-2.0498e-12
2.50971e-09
-2.1791e-12
2.51087e-09
-2.31053e-12
2.51205e-09
-2.44481e-12
2.51334e-09
-2.58204e-12
2.51465e-09
-2.72302e-12
2.51609e-09
-2.86789e-12
2.51755e-09
-3.01756e-12
2.51914e-09
-3.17218e-12
2.52075e-09
-3.33277e-12
2.52251e-09
-3.49955e-12
2.52429e-09
-3.67359e-12
2.52622e-09
-3.85519e-12
2.52819e-09
-4.04549e-12
2.53032e-09
-4.24486e-12
2.53249e-09
-4.45453e-12
2.53484e-09
-4.67491e-12
2.53723e-09
-4.90732e-12
2.53981e-09
-5.15225e-12
2.54246e-09
-5.41107e-12
2.54531e-09
-5.68435e-12
2.54823e-09
-5.97352e-12
2.55138e-09
-6.27923e-12
2.55461e-09
-6.60293e-12
2.5581e-09
-6.94536e-12
2.56168e-09
-7.308e-12
2.56554e-09
-7.69165e-12
2.56952e-09
-8.0978e-12
2.5738e-09
-8.52729e-12
2.57821e-09
-8.98158e-12
2.58296e-09
-9.46156e-12
2.58787e-09
-9.96861e-12
2.59314e-09
-1.05036e-11
2.5986e-09
-1.10679e-11
2.60445e-09
-1.16622e-11
2.61051e-09
-1.22877e-11
2.61701e-09
-1.2945e-11
2.62375e-09
-1.36351e-11
2.63095e-09
-1.43583e-11
2.63843e-09
-1.51153e-11
2.64641e-09
-1.59062e-11
2.6547e-09
-1.67309e-11
2.66353e-09
-1.75892e-11
2.6727e-09
-1.84805e-11
2.68244e-09
-1.94036e-11
2.69255e-09
-2.03574e-11
2.70326e-09
-2.13397e-11
2.71437e-09
-2.23484e-11
2.72612e-09
-2.33802e-11
2.73828e-09
-2.44317e-11
2.75109e-09
-2.54985e-11
2.76434e-09
-2.65756e-11
2.77825e-09
-2.76571e-11
2.79258e-09
-2.87366e-11
2.80759e-09
-2.98063e-11
2.823e-09
-3.08585e-11
2.83906e-09
-3.18837e-11
2.85549e-09
-3.28728e-11
2.87255e-09
-3.38147e-11
2.88991e-09
-3.46996e-11
2.90785e-09
-3.55152e-11
2.926e-09
-3.62513e-11
2.94466e-09
-3.68953e-11
2.96342e-09
-3.74377e-11
2.98259e-09
-3.78662e-11
3.00173e-09
-3.81729e-11
3.02117e-09
-3.83474e-11
3.04041e-09
-3.83839e-11
3.05984e-09
-3.82747e-11
3.0789e-09
-3.80176e-11
3.09801e-09
-3.76079e-11
3.11658e-09
-3.70472e-11
3.13507e-09
-3.63344e-11
3.15285e-09
-3.54752e-11
3.1704e-09
-3.44716e-11
3.1871e-09
-3.33332e-11
3.20345e-09
-3.20649e-11
3.21881e-09
-3.06791e-11
3.23371e-09
-2.91832e-11
3.24751e-09
-2.75918e-11
3.26077e-09
-2.59136e-11
3.27284e-09
-2.41648e-11
3.28431e-09
-2.23545e-11
3.29454e-09
-2.04998e-11
3.30412e-09
-1.86094e-11
3.31245e-09
-1.67004e-11
3.32009e-09
-1.47807e-11
3.3265e-09
-1.28666e-11
3.33223e-09
-1.09645e-11
3.33675e-09
-9.08966e-12
3.3406e-09
-7.24666e-12
3.34331e-09
-5.44891e-12
3.34538e-09
-3.69893e-12
3.34637e-09
-2.00841e-12
3.34677e-09
-3.7747e-13
3.34618e-09
1.18573e-12
3.34503e-09
2.68363e-12
3.343e-09
4.10959e-12
3.34045e-09
5.46773e-12
3.33712e-09
6.75348e-12
3.33331e-09
7.9726e-12
3.32881e-09
9.12247e-12
3.32388e-09
1.02101e-11
3.31835e-09
1.12343e-11
3.31242e-09
1.2203e-11
3.30597e-09
1.31161e-11
3.29914e-09
1.39816e-11
3.29188e-09
1.48002e-11
3.28425e-09
1.55794e-11
3.27625e-09
1.63201e-11
3.26789e-09
1.70291e-11
3.25922e-09
1.77071e-11
3.25018e-09
1.83595e-11
3.24089e-09
1.89867e-11
3.23123e-09
1.95927e-11
3.22137e-09
2.0177e-11
3.21112e-09
2.07422e-11
3.20072e-09
2.12873e-11
3.18992e-09
2.1813e-11
3.17903e-09
2.23178e-11
3.16771e-09
2.28011e-11
3.15636e-09
2.32606e-11
3.14457e-09
2.36947e-11
3.13282e-09
2.41009e-11
3.12061e-09
2.44766e-11
3.10851e-09
2.48194e-11
3.09595e-09
2.51262e-11
3.08358e-09
2.53949e-11
3.07074e-09
2.56222e-11
3.05817e-09
2.58067e-11
3.04515e-09
2.59455e-11
3.03247e-09
2.60379e-11
3.01936e-09
2.60814e-11
3.00666e-09
2.60765e-11
2.99355e-09
2.60214e-11
2.98095e-09
2.59177e-11
2.96795e-09
2.57641e-11
2.95552e-09
2.55637e-11
2.94272e-09
2.53156e-11
2.93056e-09
2.50241e-11
2.91807e-09
2.46887e-11
2.90626e-09
2.43148e-11
2.89415e-09
2.39023e-11
2.88277e-09
2.34571e-11
2.8711e-09
2.29795e-11
2.86021e-09
2.24759e-11
2.84905e-09
2.19465e-11
2.83869e-09
2.13981e-11
2.82809e-09
2.08309e-11
2.81828e-09
2.02516e-11
2.80827e-09
1.96603e-11
2.79905e-09
1.90635e-11
2.78963e-09
1.8461e-11
2.781e-09
1.78593e-11
2.77218e-09
1.72577e-11
2.76413e-09
1.66622e-11
2.75591e-09
1.60719e-11
2.74843e-09
1.54925e-11
2.74078e-09
1.49225e-11
2.73386e-09
1.43673e-11
2.72676e-09
1.3825e-11
2.72035e-09
1.33005e-11
2.71377e-09
1.27918e-11
2.70784e-09
1.23032e-11
2.70174e-09
1.18324e-11
2.69626e-09
1.13834e-11
2.6906e-09
1.09537e-11
2.68553e-09
1.05468e-11
2.68027e-09
1.01601e-11
2.67556e-09
9.79689e-12
2.67065e-09
9.45426e-12
2.66626e-09
9.13543e-12
2.66165e-09
8.83726e-12
2.65754e-09
8.56282e-12
2.6532e-09
8.30887e-12
2.64932e-09
8.07834e-12
2.64519e-09
7.86793e-12
2.6415e-09
7.68045e-12
2.63755e-09
7.51259e-12
2.63401e-09
7.36675e-12
2.6303e-09
7.24096e-12
2.62665e-09
7.13266e-12
2.62308e-09
7.05509e-12
6.95498e-12
2.50002e-09
-8.79215e-14
2.50009e-09
-3.04656e-13
2.50024e-09
-4.95666e-13
2.50044e-09
-6.81112e-13
2.50071e-09
-8.64306e-13
2.50103e-09
-1.04651e-12
2.50142e-09
-1.22827e-12
2.50186e-09
-1.40982e-12
2.50238e-09
-1.59125e-12
2.50293e-09
-1.77272e-12
2.50357e-09
-1.95439e-12
2.50425e-09
-2.13653e-12
2.50501e-09
-2.31939e-12
2.5058e-09
-2.5033e-12
2.50669e-09
-2.68859e-12
2.5076e-09
-2.8757e-12
2.50861e-09
-3.06505e-12
2.50965e-09
-3.25715e-12
2.51079e-09
-3.45254e-12
2.51195e-09
-3.65182e-12
2.51323e-09
-3.85563e-12
2.51453e-09
-4.06464e-12
2.51594e-09
-4.27962e-12
2.51738e-09
-4.50133e-12
2.51894e-09
-4.73064e-12
2.52053e-09
-4.96842e-12
2.52225e-09
-5.21565e-12
2.524e-09
-5.47327e-12
2.5259e-09
-5.7424e-12
2.52783e-09
-6.02408e-12
2.52992e-09
-6.31954e-12
2.53204e-09
-6.62991e-12
2.53434e-09
-6.95656e-12
2.53668e-09
-7.3007e-12
2.53921e-09
-7.66384e-12
2.54179e-09
-8.04725e-12
2.54458e-09
-8.4526e-12
2.54743e-09
-8.88122e-12
2.55051e-09
-9.33492e-12
2.55366e-09
-9.81506e-12
2.55707e-09
-1.03236e-11
2.56056e-09
-1.08619e-11
2.56433e-09
-1.14322e-11
2.56821e-09
-1.20356e-11
2.57239e-09
-1.26745e-11
2.5767e-09
-1.33503e-11
2.58134e-09
-1.4065e-11
2.58614e-09
-1.48201e-11
2.59129e-09
-1.56178e-11
2.59662e-09
-1.64592e-11
2.60235e-09
-1.73464e-11
2.60828e-09
-1.82804e-11
2.61465e-09
-1.92633e-11
2.62125e-09
-2.02955e-11
2.62832e-09
-2.13788e-11
2.63566e-09
-2.25134e-11
2.64351e-09
-2.37002e-11
2.65166e-09
-2.4939e-11
2.66035e-09
-2.623e-11
2.66939e-09
-2.75721e-11
2.67901e-09
-2.89643e-11
2.689e-09
-3.04046e-11
2.69961e-09
-3.18904e-11
2.71063e-09
-3.34186e-11
2.72229e-09
-3.49846e-11
2.73439e-09
-3.65836e-11
2.74716e-09
-3.82089e-11
2.76038e-09
-3.98535e-11
2.77429e-09
-4.15084e-11
2.78866e-09
-4.31643e-11
2.80373e-09
-4.48092e-11
2.81924e-09
-4.64314e-11
2.83544e-09
-4.80164e-11
2.85205e-09
-4.95501e-11
2.86932e-09
-5.10153e-11
2.88694e-09
-5.23963e-11
2.90517e-09
-5.36741e-11
2.92367e-09
-5.48321e-11
2.9427e-09
-5.58507e-11
2.96189e-09
-5.67136e-11
2.98151e-09
-5.74026e-11
3.00114e-09
-5.79029e-11
3.02109e-09
-5.81995e-11
3.04087e-09
-5.82812e-11
3.06084e-09
-5.81375e-11
3.08047e-09
-5.77623e-11
3.10012e-09
-5.71508e-11
3.11925e-09
-5.63026e-11
3.13826e-09
-5.52194e-11
3.15656e-09
-5.39064e-11
3.17459e-09
-5.23713e-11
3.19175e-09
-5.06247e-11
3.20851e-09
-4.86796e-11
3.22425e-09
-4.65506e-11
3.23948e-09
-4.42548e-11
3.25357e-09
-4.18097e-11
3.26705e-09
-3.92351e-11
3.27931e-09
-3.65501e-11
3.2909e-09
-3.37759e-11
3.30123e-09
-3.09319e-11
3.31083e-09
-2.80394e-11
3.31915e-09
-2.51172e-11
3.32673e-09
-2.21854e-11
3.33305e-09
-1.92614e-11
3.33863e-09
-1.63634e-11
3.34298e-09
-1.35066e-11
3.34662e-09
-1.07063e-11
3.3491e-09
-7.975e-12
3.3509e-09
-5.32462e-12
3.35163e-09
-2.76518e-12
3.35173e-09
-3.04568e-13
3.35086e-09
2.05277e-12
3.3494e-09
4.30328e-12
3.34707e-09
6.44431e-12
3.34422e-09
8.47524e-12
3.3406e-09
1.03964e-11
3.33651e-09
1.22103e-11
3.33175e-09
1.39198e-11
3.32656e-09
1.55298e-11
3.3208e-09
1.70454e-11
3.31465e-09
1.84729e-11
3.30801e-09
1.98187e-11
3.30101e-09
2.109e-11
3.2936e-09
2.22935e-11
3.28584e-09
2.34362e-11
3.27772e-09
2.45248e-11
3.26927e-09
2.55651e-11
3.26052e-09
2.65629e-11
3.25143e-09
2.75229e-11
3.24209e-09
2.84492e-11
3.2324e-09
2.93447e-11
3.22251e-09
3.02121e-11
3.21224e-09
3.10523e-11
3.20182e-09
3.1866e-11
3.19101e-09
3.26525e-11
3.1801e-09
3.34107e-11
3.16877e-09
3.41381e-11
3.15741e-09
3.48323e-11
3.1456e-09
3.54897e-11
3.13382e-09
3.61064e-11
3.1216e-09
3.66783e-11
3.10946e-09
3.72009e-11
3.09687e-09
3.767e-11
3.08445e-09
3.80809e-11
3.07157e-09
3.84298e-11
3.05894e-09
3.87125e-11
3.04588e-09
3.89264e-11
3.03314e-09
3.90679e-11
3.01998e-09
3.91358e-11
3.00722e-09
3.91278e-11
2.99408e-09
3.90443e-11
2.98141e-09
3.88842e-11
2.96838e-09
3.86497e-11
2.95591e-09
3.8341e-11
2.9431e-09
3.79618e-11
2.93091e-09
3.75135e-11
2.91843e-09
3.70012e-11
2.90661e-09
3.64273e-11
2.89453e-09
3.57977e-11
2.88316e-09
3.51158e-11
2.87155e-09
3.4388e-11
2.86069e-09
3.36183e-11
2.84961e-09
3.28132e-11
2.8393e-09
3.19769e-11
2.8288e-09
3.1116e-11
2.81907e-09
3.02348e-11
2.80917e-09
2.93392e-11
2.80005e-09
2.84337e-11
2.79076e-09
2.75235e-11
2.78224e-09
2.66126e-11
2.77357e-09
2.57058e-11
2.76565e-09
2.48067e-11
2.75758e-09
2.39193e-11
2.75024e-09
2.30465e-11
2.74275e-09
2.21918e-11
2.73596e-09
2.13576e-11
2.72902e-09
2.05464e-11
2.72275e-09
1.97605e-11
2.71633e-09
1.90014e-11
2.71054e-09
1.82711e-11
2.7046e-09
1.75705e-11
2.69925e-09
1.69011e-11
2.69375e-09
1.62634e-11
2.6888e-09
1.56584e-11
2.68368e-09
1.50861e-11
2.67909e-09
1.45475e-11
2.67432e-09
1.40422e-11
2.67004e-09
1.35708e-11
2.66557e-09
1.31326e-11
2.66155e-09
1.27282e-11
2.65733e-09
1.23566e-11
2.65354e-09
1.20182e-11
2.64952e-09
1.17121e-11
2.64592e-09
1.14383e-11
2.64206e-09
1.1196e-11
2.6386e-09
1.09848e-11
2.63498e-09
1.08052e-11
2.6314e-09
1.06514e-11
2.6279e-09
1.0543e-11
1.04007e-11
2.50002e-09
-1.17259e-13
2.50009e-09
-4.05816e-13
2.50024e-09
-6.60378e-13
2.50044e-09
-9.07453e-13
2.50071e-09
-1.15143e-12
2.50102e-09
-1.39394e-12
2.50142e-09
-1.6357e-12
2.50185e-09
-1.87699e-12
2.50237e-09
-2.11791e-12
2.50292e-09
-2.35866e-12
2.50355e-09
-2.59945e-12
2.50422e-09
-2.8406e-12
2.50498e-09
-3.08246e-12
2.50576e-09
-3.32544e-12
2.50664e-09
-3.57001e-12
2.50754e-09
-3.8167e-12
2.50854e-09
-4.06611e-12
2.50956e-09
-4.31889e-12
2.51068e-09
-4.57579e-12
2.51182e-09
-4.83755e-12
2.51307e-09
-5.10508e-12
2.51434e-09
-5.37924e-12
2.51573e-09
-5.66106e-12
2.51713e-09
-5.95155e-12
2.51866e-09
-6.25188e-12
2.52021e-09
-6.56316e-12
2.52188e-09
-6.88675e-12
2.52359e-09
-7.22385e-12
2.52543e-09
-7.57601e-12
2.5273e-09
-7.94453e-12
2.52932e-09
-8.33114e-12
2.53138e-09
-8.73726e-12
2.5336e-09
-9.16481e-12
2.53587e-09
-9.61529e-12
2.53831e-09
-1.00908e-11
2.5408e-09
-1.0593e-11
2.54349e-09
-1.11242e-11
2.54624e-09
-1.16861e-11
2.54921e-09
-1.22812e-11
2.55225e-09
-1.29112e-11
2.55553e-09
-1.3579e-11
2.5589e-09
-1.42862e-11
2.56253e-09
-1.50358e-11
2.56627e-09
-1.58296e-11
2.5703e-09
-1.66706e-11
2.57445e-09
-1.75608e-11
2.57893e-09
-1.85031e-11
2.58355e-09
-1.94994e-11
2.58852e-09
-2.05528e-11
2.59367e-09
-2.16649e-11
2.59921e-09
-2.28389e-11
2.60495e-09
-2.40761e-11
2.61111e-09
-2.53793e-11
2.61751e-09
-2.67498e-11
2.62437e-09
-2.81898e-11
2.6315e-09
-2.97e-11
2.63913e-09
-3.1282e-11
2.64708e-09
-3.2936e-11
2.65556e-09
-3.46623e-11
2.6644e-09
-3.64602e-11
2.67382e-09
-3.83288e-11
2.68363e-09
-4.02658e-11
2.69407e-09
-4.22685e-11
2.70493e-09
-4.43328e-11
2.71646e-09
-4.64536e-11
2.72845e-09
-4.86247e-11
2.74114e-09
-5.08376e-11
2.75432e-09
-5.30836e-11
2.76822e-09
-5.53504e-11
2.78263e-09
-5.76263e-11
2.79777e-09
-5.98948e-11
2.81342e-09
-6.21405e-11
2.82982e-09
-6.4343e-11
2.84668e-09
-6.64831e-11
2.86427e-09
-6.85364e-11
2.88229e-09
-7.04809e-11
2.90097e-09
-7.22893e-11
2.92e-09
-7.39375e-11
2.93962e-09
-7.5397e-11
2.95946e-09
-7.66439e-11
2.9798e-09
-7.76511e-11
3.00019e-09
-7.8397e-11
3.02094e-09
-7.88589e-11
3.04157e-09
-7.90202e-11
3.0624e-09
-7.88653e-11
3.0829e-09
-7.83848e-11
3.10343e-09
-7.75721e-11
3.12343e-09
-7.64261e-11
3.14328e-09
-7.49499e-11
3.16239e-09
-7.31509e-11
3.18119e-09
-7.10412e-11
3.19907e-09
-6.86355e-11
3.21648e-09
-6.59537e-11
3.23281e-09
-6.30162e-11
3.24856e-09
-5.98487e-11
3.26309e-09
-5.64755e-11
3.27694e-09
-5.2926e-11
3.2895e-09
-4.92263e-11
3.3013e-09
-4.54076e-11
3.31175e-09
-4.14963e-11
3.32141e-09
-3.75233e-11
3.3297e-09
-3.35142e-11
3.3372e-09
-2.94981e-11
3.34335e-09
-2.54983e-11
3.34871e-09
-2.1541e-11
3.35279e-09
-1.76464e-11
3.3561e-09
-1.38368e-11
3.35821e-09
-1.01285e-11
3.3596e-09
-6.53887e-12
3.35989e-09
-3.08058e-12
3.35952e-09
2.35195e-13
3.35817e-09
3.4036e-12
3.35622e-09
6.41883e-12
3.35339e-09
9.27863e-12
3.35004e-09
1.19816e-11
3.34593e-09
1.45299e-11
3.34136e-09
1.69265e-11
3.33614e-09
1.91776e-11
3.33051e-09
2.12896e-11
3.32433e-09
2.32716e-11
3.3178e-09
2.51323e-11
3.31079e-09
2.68826e-11
3.30346e-09
2.85321e-11
3.29574e-09
3.00922e-11
3.2877e-09
3.15721e-11
3.27933e-09
3.29826e-11
3.27064e-09
3.43316e-11
3.26168e-09
3.56284e-11
3.2524e-09
3.68786e-11
3.24288e-09
3.80894e-11
3.23302e-09
3.92639e-11
3.22296e-09
4.04066e-11
3.21254e-09
4.15179e-11
3.20197e-09
4.25995e-11
3.191e-09
4.36493e-11
3.17993e-09
4.46662e-11
3.16843e-09
4.56458e-11
3.15689e-09
4.65848e-11
3.14489e-09
4.74771e-11
3.13291e-09
4.83173e-11
3.12047e-09
4.90988e-11
3.1081e-09
4.98149e-11
3.09527e-09
5.04591e-11
3.08259e-09
5.10244e-11
3.06945e-09
5.15052e-11
3.05655e-09
5.18949e-11
3.04321e-09
5.21898e-11
3.03019e-09
5.23844e-11
3.01674e-09
5.24773e-11
3.00371e-09
5.24646e-11
2.99028e-09
5.23474e-11
2.97735e-09
5.21237e-11
2.96406e-09
5.17971e-11
2.95134e-09
5.13676e-11
2.9383e-09
5.0841e-11
2.9259e-09
5.02192e-11
2.91321e-09
4.95096e-11
2.90122e-09
4.87157e-11
2.88898e-09
4.78462e-11
2.87748e-09
4.69057e-11
2.86577e-09
4.59035e-11
2.85482e-09
4.4845e-11
2.84368e-09
4.37398e-11
2.83333e-09
4.25935e-11
2.82281e-09
4.14154e-11
2.81309e-09
4.02114e-11
2.80322e-09
3.899e-11
2.79414e-09
3.77568e-11
2.78492e-09
3.65194e-11
2.77648e-09
3.52831e-11
2.7679e-09
3.40545e-11
2.76009e-09
3.28381e-11
2.75215e-09
3.16395e-11
2.74493e-09
3.04627e-11
2.7376e-09
2.9312e-11
2.73096e-09
2.81907e-11
2.72419e-09
2.71022e-11
2.71808e-09
2.60491e-11
2.71184e-09
2.50337e-11
2.70623e-09
2.40581e-11
2.70047e-09
2.31238e-11
2.69531e-09
2.22323e-11
2.68999e-09
2.13844e-11
2.68523e-09
2.05812e-11
2.6803e-09
1.98227e-11
2.6759e-09
1.91099e-11
2.67131e-09
1.84423e-11
2.66722e-09
1.78204e-11
2.66293e-09
1.72434e-11
2.65909e-09
1.67118e-11
2.65505e-09
1.62244e-11
2.65144e-09
1.57815e-11
2.6476e-09
1.53817e-11
2.64416e-09
1.50253e-11
2.64048e-09
1.4711e-11
2.63717e-09
1.44381e-11
2.63371e-09
1.42073e-11
2.63029e-09
1.40113e-11
2.62695e-09
1.38753e-11
1.36978e-11
2.50002e-09
-1.46525e-13
2.50009e-09
-5.06551e-13
2.50024e-09
-8.24523e-13
2.50044e-09
-1.13309e-12
2.50071e-09
-1.43764e-12
2.50102e-09
-1.74014e-12
2.50141e-09
-2.04143e-12
2.50185e-09
-2.34181e-12
2.50236e-09
-2.64141e-12
2.50291e-09
-2.94041e-12
2.50354e-09
-3.23908e-12
2.5042e-09
-3.53779e-12
2.50494e-09
-3.83695e-12
2.50572e-09
-4.13708e-12
2.50658e-09
-4.43874e-12
2.50747e-09
-4.74261e-12
2.50845e-09
-5.04942e-12
2.50945e-09
-5.35997e-12
2.51055e-09
-5.6752e-12
2.51167e-09
-5.99604e-12
2.51288e-09
-6.3236e-12
2.51412e-09
-6.65898e-12
2.51547e-09
-7.00344e-12
2.51683e-09
-7.35824e-12
2.51831e-09
-7.72483e-12
2.5198e-09
-8.10463e-12
2.52142e-09
-8.49927e-12
2.52306e-09
-8.91031e-12
2.52483e-09
-9.33963e-12
2.52663e-09
-9.78889e-12
2.52857e-09
-1.02602e-11
2.53054e-09
-1.07554e-11
2.53266e-09
-1.12768e-11
2.53482e-09
-1.18263e-11
2.53715e-09
-1.24067e-11
2.53953e-09
-1.30198e-11
2.54209e-09
-1.36687e-11
2.54471e-09
-1.43554e-11
2.54753e-09
-1.50831e-11
2.55042e-09
-1.58542e-11
2.55354e-09
-1.66718e-11
2.55673e-09
-1.75386e-11
2.56018e-09
-1.8458e-11
2.56373e-09
-1.94324e-11
2.56756e-09
-2.04658e-11
2.5715e-09
-2.15605e-11
2.57575e-09
-2.27206e-11
2.58014e-09
-2.39484e-11
2.58488e-09
-2.52481e-11
2.58978e-09
-2.66218e-11
2.59506e-09
-2.80737e-11
2.60053e-09
-2.96059e-11
2.60642e-09
-3.12221e-11
2.61254e-09
-3.29241e-11
2.61911e-09
-3.47154e-11
2.62596e-09
-3.65973e-11
2.6333e-09
-3.85722e-11
2.64096e-09
-4.06409e-11
2.64915e-09
-4.28047e-11
2.65771e-09
-4.50631e-11
2.66685e-09
-4.7416e-11
2.6764e-09
-4.98613e-11
2.68658e-09
-5.23965e-11
2.69722e-09
-5.50174e-11
2.70854e-09
-5.77185e-11
2.72037e-09
-6.04928e-11
2.73292e-09
-6.33309e-11
2.74601e-09
-6.62223e-11
2.75987e-09
-6.91525e-11
2.77431e-09
-7.21068e-11
2.78954e-09
-7.50651e-11
2.80535e-09
-7.80077e-11
2.82198e-09
-8.09082e-11
2.83918e-09
-8.37417e-11
2.85719e-09
-8.64758e-11
2.87573e-09
-8.90806e-11
2.89502e-09
-9.15187e-11
2.91477e-09
-9.37571e-11
2.9352e-09
-9.57557e-11
2.95596e-09
-9.74806e-11
2.97728e-09
-9.88931e-11
2.99875e-09
-9.99622e-11
3.02063e-09
-1.00655e-10
3.04245e-09
-1.00948e-10
3.0645e-09
-1.00817e-10
3.08624e-09
-1.00251e-10
3.10802e-09
-9.9239e-11
3.12924e-09
-9.77804e-11
3.15029e-09
-9.58793e-11
3.17055e-09
-9.35472e-11
3.19043e-09
-9.08009e-11
3.20932e-09
-8.7662e-11
3.22766e-09
-8.4158e-11
3.24482e-09
-8.0318e-11
3.2613e-09
-7.61773e-11
3.27645e-09
-7.17695e-11
3.29082e-09
-6.71347e-11
3.30377e-09
-6.23087e-11
3.31586e-09
-5.73333e-11
3.32649e-09
-5.22441e-11
3.33623e-09
-4.70824e-11
3.34449e-09
-4.18822e-11
3.35185e-09
-3.66823e-11
3.35778e-09
-3.15133e-11
3.36283e-09
-2.641e-11
3.36652e-09
-2.1399e-11
3.36938e-09
-1.65097e-11
3.37097e-09
-1.17629e-11
3.37179e-09
-7.18215e-12
3.37147e-09
-2.78378e-12
3.37046e-09
1.41941e-12
3.36844e-09
5.42122e-12
3.36581e-09
9.21407e-12
3.3623e-09
1.27957e-11
3.35828e-09
1.6165e-11
3.3535e-09
1.93259e-11
3.34829e-09
2.22839e-11
3.34245e-09
2.50483e-11
3.33625e-09
2.76293e-11
3.32952e-09
3.00402e-11
3.32248e-09
3.22944e-11
3.31501e-09
3.44075e-11
3.30726e-09
3.63939e-11
3.29915e-09
3.82695e-11
3.29076e-09
4.00481e-11
3.28208e-09
4.17445e-11
3.27313e-09
4.337e-11
3.26391e-09
4.49374e-11
3.25441e-09
4.64547e-11
3.24468e-09
4.79314e-11
3.23463e-09
4.93718e-11
3.22439e-09
5.07819e-11
3.21378e-09
5.21619e-11
3.20303e-09
5.3514e-11
3.19187e-09
5.48347e-11
3.18059e-09
5.61222e-11
3.16888e-09
5.737e-11
3.1571e-09
5.85729e-11
3.14485e-09
5.97219e-11
3.13259e-09
6.08092e-11
3.11984e-09
6.18247e-11
3.10715e-09
6.27589e-11
3.09396e-09
6.36019e-11
3.08092e-09
6.43438e-11
3.06738e-09
6.49761e-11
3.05408e-09
6.54897e-11
3.04031e-09
6.58786e-11
3.02686e-09
6.61356e-11
3.01298e-09
6.6258e-11
2.99951e-09
6.6241e-11
2.98565e-09
6.60857e-11
2.9723e-09
6.57898e-11
2.9586e-09
6.5358e-11
2.94549e-09
6.4791e-11
2.93207e-09
6.40964e-11
2.91932e-09
6.32774e-11
2.90631e-09
6.2344e-11
2.89403e-09
6.13015e-11
2.88152e-09
6.01614e-11
2.86979e-09
5.89304e-11
2.85786e-09
5.76211e-11
2.84675e-09
5.62409e-11
2.83547e-09
5.48024e-11
2.82502e-09
5.33135e-11
2.81443e-09
5.17864e-11
2.80467e-09
5.02287e-11
2.79478e-09
4.86517e-11
2.78571e-09
4.70627e-11
2.77653e-09
4.54716e-11
2.76816e-09
4.38851e-11
2.75967e-09
4.23116e-11
2.75197e-09
4.07569e-11
2.74415e-09
3.92281e-11
2.73709e-09
3.77299e-11
2.72991e-09
3.62678e-11
2.72344e-09
3.48459e-11
2.71686e-09
3.34681e-11
2.71095e-09
3.21377e-11
2.70492e-09
3.08573e-11
2.69952e-09
2.96293e-11
2.69398e-09
2.84554e-11
2.68904e-09
2.73374e-11
2.68395e-09
2.62758e-11
2.67942e-09
2.5272e-11
2.67473e-09
2.43258e-11
2.67055e-09
2.34381e-11
2.66621e-09
2.26081e-11
2.66234e-09
2.18363e-11
2.65828e-09
2.11217e-11
2.65468e-09
2.04645e-11
2.65087e-09
1.98633e-11
2.64748e-09
1.93182e-11
2.64386e-09
1.88274e-11
2.64064e-09
1.83912e-11
2.63718e-09
1.80076e-11
2.63409e-09
1.76762e-11
2.63084e-09
1.73974e-11
2.62763e-09
1.71622e-11
2.6245e-09
1.70008e-11
1.67935e-11
2.50002e-09
-1.76041e-13
2.50009e-09
-6.07157e-13
2.50024e-09
-9.8861e-13
2.50044e-09
-1.3587e-12
2.50071e-09
-1.72378e-12
2.50102e-09
-2.08605e-12
2.50141e-09
-2.44645e-12
2.50185e-09
-2.80529e-12
2.50236e-09
-3.16265e-12
2.5029e-09
-3.51873e-12
2.50353e-09
-3.87381e-12
2.50418e-09
-4.22832e-12
2.50492e-09
-4.58273e-12
2.50568e-09
-4.93763e-12
2.50653e-09
-5.29371e-12
2.5074e-09
-5.65176e-12
2.50836e-09
-6.01265e-12
2.50934e-09
-6.37736e-12
2.51041e-09
-6.74697e-12
2.5115e-09
-7.12263e-12
2.51268e-09
-7.50563e-12
2.51388e-09
-7.89731e-12
2.51517e-09
-8.29917e-12
2.51648e-09
-8.71271e-12
2.5179e-09
-9.13967e-12
2.51934e-09
-9.58171e-12
2.52088e-09
-1.00408e-11
2.52245e-09
-1.05188e-11
2.52413e-09
-1.1018e-11
2.52584e-09
-1.15403e-11
2.52768e-09
-1.20883e-11
2.52953e-09
-1.26641e-11
2.53154e-09
-1.32706e-11
2.53357e-09
-1.39101e-11
2.53577e-09
-1.45856e-11
2.538e-09
-1.52998e-11
2.5404e-09
-1.6056e-11
2.54285e-09
-1.68569e-11
2.5455e-09
-1.77062e-11
2.54819e-09
-1.86068e-11
2.55111e-09
-1.95628e-11
2.55409e-09
-2.0577e-11
2.55732e-09
-2.16539e-11
2.56062e-09
-2.27965e-11
2.5642e-09
-2.40095e-11
2.56788e-09
-2.5296e-11
2.57186e-09
-2.66609e-11
2.57596e-09
-2.81074e-11
2.58039e-09
-2.96405e-11
2.58498e-09
-3.12634e-11
2.58993e-09
-3.29811e-11
2.59506e-09
-3.47966e-11
2.60061e-09
-3.6715e-11
2.60637e-09
-3.87388e-11
2.61258e-09
-4.08729e-11
2.61905e-09
-4.31192e-11
2.62601e-09
-4.54819e-11
2.63328e-09
-4.79623e-11
2.6411e-09
-5.05634e-11
2.64927e-09
-5.32854e-11
2.65804e-09
-5.61294e-11
2.66723e-09
-5.90942e-11
2.67707e-09
-6.21781e-11
2.68739e-09
-6.53777e-11
2.69842e-09
-6.86877e-11
2.70999e-09
-7.21015e-11
2.72233e-09
-7.5609e-11
2.73526e-09
-7.91992e-11
2.74903e-09
-8.28557e-11
2.76344e-09
-8.65622e-11
2.77873e-09
-9.02944e-11
2.79471e-09
-9.40292e-11
2.8116e-09
-9.77337e-11
2.82918e-09
-1.01377e-10
2.84769e-09
-1.04917e-10
2.86687e-09
-1.08315e-10
2.88694e-09
-1.11521e-10
2.9076e-09
-1.1449e-10
2.92909e-09
-1.17167e-10
2.95103e-09
-1.19505e-10
2.97366e-09
-1.21448e-10
2.99656e-09
-1.22952e-10
3.01996e-09
-1.23971e-10
3.04337e-09
-1.2447e-10
3.06706e-09
-1.24417e-10
3.09048e-09
-1.23792e-10
3.11393e-09
-1.22584e-10
3.1368e-09
-1.2079e-10
3.15945e-09
-1.18419e-10
3.18125e-09
-1.15487e-10
3.20259e-09
-1.12017e-10
3.22282e-09
-1.08041e-10
3.2424e-09
-1.03597e-10
3.26065e-09
-9.8724e-11
3.27809e-09
-9.34713e-11
3.29406e-09
-8.78839e-11
3.3091e-09
-8.20151e-11
3.32257e-09
-7.59121e-11
3.33503e-09
-6.963e-11
3.34588e-09
-6.32151e-11
3.35569e-09
-5.67212e-11
3.36389e-09
-5.01915e-11
3.37107e-09
-4.36764e-11
3.37668e-09
-3.72149e-11
3.38131e-09
-3.08516e-11
3.38446e-09
-2.46205e-11
3.3867e-09
-1.85588e-11
3.38759e-09
-1.26932e-11
3.38765e-09
-7.05452e-12
3.3865e-09
-1.66245e-12
3.38463e-09
3.46903e-12
3.38172e-09
8.33152e-12
3.37819e-09
1.29155e-11
3.37378e-09
1.72189e-11
3.36886e-09
2.1242e-11
3.36322e-09
2.49914e-11
3.35718e-09
2.84762e-11
3.35055e-09
3.17105e-11
3.3436e-09
3.471e-11
3.33619e-09
3.74944e-11
3.32852e-09
4.00831e-11
3.32048e-09
4.24988e-11
3.31222e-09
4.47619e-11
3.30366e-09
4.68952e-11
3.29488e-09
4.89175e-11
3.28585e-09
5.08496e-11
3.2766e-09
5.27068e-11
3.26712e-09
5.45064e-11
3.25738e-09
5.6259e-11
3.24744e-09
5.79772e-11
3.23721e-09
5.96666e-11
3.22678e-09
6.13348e-11
3.21601e-09
6.29817e-11
3.20506e-09
6.46098e-11
3.19372e-09
6.62139e-11
3.18223e-09
6.77911e-11
3.17028e-09
6.93317e-11
3.15823e-09
7.08279e-11
3.14569e-09
7.22668e-11
3.1331e-09
7.36368e-11
3.11998e-09
7.49234e-11
3.10689e-09
7.61126e-11
3.09327e-09
7.71903e-11
3.07975e-09
7.81419e-11
3.06572e-09
7.89555e-11
3.05189e-09
7.9618e-11
3.03757e-09
8.01211e-11
3.02357e-09
8.04543e-11
3.00911e-09
8.06144e-11
2.99508e-09
8.05943e-11
2.98065e-09
8.0396e-11
2.96675e-09
8.00165e-11
2.9525e-09
7.94625e-11
2.93889e-09
7.87351e-11
2.92497e-09
7.7845e-11
2.91177e-09
7.67967e-11
2.89833e-09
7.56042e-11
2.88567e-09
7.42744e-11
2.8728e-09
7.28232e-11
2.86077e-09
7.12595e-11
2.84858e-09
6.96e-11
2.83725e-09
6.78545e-11
2.82579e-09
6.60397e-11
2.81521e-09
6.41657e-11
2.80451e-09
6.22482e-11
2.7947e-09
6.02971e-11
2.78479e-09
5.83266e-11
2.77575e-09
5.6346e-11
2.76661e-09
5.43677e-11
2.75832e-09
5.23998e-11
2.74995e-09
5.04528e-11
2.74238e-09
4.85338e-11
2.73472e-09
4.66511e-11
2.72784e-09
4.48106e-11
2.72086e-09
4.30185e-11
2.71461e-09
4.12797e-11
2.70826e-09
3.95987e-11
2.7026e-09
3.79791e-11
2.69682e-09
3.64237e-11
2.69168e-09
3.49353e-11
2.68641e-09
3.35154e-11
2.68174e-09
3.2166e-11
2.67693e-09
3.08872e-11
2.67268e-09
2.96806e-11
2.66827e-09
2.85454e-11
2.66438e-09
2.74826e-11
2.66031e-09
2.64908e-11
2.65672e-09
2.55706e-11
2.65295e-09
2.47202e-11
2.64962e-09
2.394e-11
2.64608e-09
2.32277e-11
2.64296e-09
2.25835e-11
2.63961e-09
2.20052e-11
2.63665e-09
2.14927e-11
2.63345e-09
2.10438e-11
2.63062e-09
2.06577e-11
2.62763e-09
2.03348e-11
2.62466e-09
2.00645e-11
2.62178e-09
1.9881e-11
1.96498e-11
2.50002e-09
-2.05756e-13
2.5001e-09
-7.08004e-13
2.50024e-09
-1.15334e-12
2.50044e-09
-1.58534e-12
2.50071e-09
-2.01116e-12
2.50103e-09
-2.43322e-12
2.50142e-09
-2.85245e-12
2.50186e-09
-3.26915e-12