/*--------------------------------*- C++ -*----------------------------------*\
  =========                 |
  \\      /  F ield         | OpenFOAM: The Open Source CFD Toolbox
   \\    /   O peration     | Website:  https://openfoam.org
    \\  /    A nd           | Version:  10
     \\/     M anipulation  |
\*---------------------------------------------------------------------------*/
FoamFile
{
    format      ascii;
    class       volVectorField;
    location    "0.095";
    object      U;
}
// * * * * * * * * * * * * * * * * * * * * * * * * * * * * * * * * * * * * * //

dimensions      [0 1 -1 0 0 0 0];

internalField   nonuniform List<vector> 
4000
(
(5.00002 -7.3648e-05 0)
(5.00015 -0.000220952 0)
(5.00044 -0.000368344 0)
(5.00089 -0.000515927 0)
(5.00148 -0.000663847 0)
(5.00223 -0.000812188 0)
(5.00311 -0.000961144 0)
(5.00415 -0.0011108 0)
(5.00534 -0.00126139 0)
(5.00668 -0.00141299 0)
(5.00817 -0.00156588 0)
(5.00981 -0.00172018 0)
(5.01161 -0.00187622 0)
(5.01357 -0.00203416 0)
(5.01568 -0.00219439 0)
(5.01796 -0.00235712 0)
(5.02039 -0.00252278 0)
(5.023 -0.00269161 0)
(5.02578 -0.00286411 0)
(5.02873 -0.00304052 0)
(5.03185 -0.0032214 0)
(5.03517 -0.00340703 0)
(5.03866 -0.003598 0)
(5.04236 -0.00379463 0)
(5.04625 -0.00399755 0)
(5.05034 -0.00420712 0)
(5.05465 -0.004424 0)
(5.05918 -0.00464858 0)
(5.06394 -0.00488157 0)
(5.06894 -0.00512339 0)
(5.07418 -0.00537476 0)
(5.07967 -0.00563614 0)
(5.08543 -0.00590828 0)
(5.09147 -0.00619165 0)
(5.0978 -0.00648703 0)
(5.10443 -0.0067949 0)
(5.11137 -0.00711605 0)
(5.11864 -0.00745097 0)
(5.12625 -0.00780049 0)
(5.13421 -0.00816508 0)
(5.14255 -0.00854558 0)
(5.15128 -0.00894246 0)
(5.16041 -0.00935657 0)
(5.16996 -0.00978836 0)
(5.17995 -0.0102387 0)
(5.1904 -0.0107079 0)
(5.20133 -0.0111969 0)
(5.21275 -0.0117061 0)
(5.2247 -0.0122362 0)
(5.23718 -0.0127874 0)
(5.25023 -0.0133606 0)
(5.26386 -0.0139559 0)
(5.2781 -0.0145739 0)
(5.29296 -0.0152146 0)
(5.30848 -0.0158783 0)
(5.32467 -0.016565 0)
(5.34156 -0.0172748 0)
(5.35917 -0.0180071 0)
(5.37752 -0.0187618 0)
(5.39664 -0.0195379 0)
(5.41655 -0.0203348 0)
(5.43726 -0.021151 0)
(5.45881 -0.0219854 0)
(5.48119 -0.0228357 0)
(5.50444 -0.0237001 0)
(5.52856 -0.0245756 0)
(5.55356 -0.0254595 0)
(5.57946 -0.026348 0)
(5.60624 -0.0272372 0)
(5.63392 -0.0281226 0)
(5.66249 -0.0289992 0)
(5.69194 -0.0298615 0)
(5.72224 -0.0307038 0)
(5.75338 -0.0315196 0)
(5.78533 -0.0323025 0)
(5.81805 -0.0330456 0)
(5.8515 -0.0337422 0)
(5.88563 -0.0343852 0)
(5.92038 -0.0349679 0)
(5.95568 -0.0354839 0)
(5.99148 -0.0359273 0)
(6.02768 -0.0362927 0)
(6.06422 -0.0365755 0)
(6.101 -0.036772 0)
(6.13794 -0.0368797 0)
(6.17494 -0.0368968 0)
(6.21192 -0.0368229 0)
(6.24878 -0.0366586 0)
(6.28543 -0.0364056 0)
(6.32177 -0.0360666 0)
(6.35774 -0.0356452 0)
(6.39324 -0.0351459 0)
(6.42819 -0.0345738 0)
(6.46254 -0.0339345 0)
(6.49621 -0.0332342 0)
(6.52914 -0.0324793 0)
(6.56128 -0.0316765 0)
(6.5926 -0.0308323 0)
(6.62304 -0.0299536 0)
(6.65259 -0.0290469 0)
(6.68121 -0.0281184 0)
(6.70889 -0.0271744 0)
(6.73561 -0.0262204 0)
(6.76137 -0.0252617 0)
(6.78616 -0.0243032 0)
(6.80999 -0.0233493 0)
(6.83287 -0.0224038 0)
(6.8548 -0.0214703 0)
(6.8758 -0.0205518 0)
(6.89588 -0.019651 0)
(6.91507 -0.0187701 0)
(6.93339 -0.0179113 0)
(6.95086 -0.017076 0)
(6.96751 -0.0162657 0)
(6.98335 -0.0154815 0)
(6.99843 -0.0147243 0)
(7.01277 -0.0139944 0)
(7.02639 -0.0132926 0)
(7.03932 -0.0126186 0)
(7.05159 -0.0119726 0)
(7.06323 -0.0113542 0)
(7.07427 -0.0107631 0)
(7.08473 -0.0101985 0)
(7.09464 -0.00965998 0)
(7.10402 -0.00914658 0)
(7.11291 -0.00865775 0)
(7.12131 -0.00819233 0)
(7.12927 -0.00774979 0)
(7.13679 -0.0073289 0)
(7.14391 -0.00692915 0)
(7.15063 -0.00654931 0)
(7.15699 -0.00618892 0)
(7.163 -0.00584676 0)
(7.16867 -0.00552247 0)
(7.17403 -0.00521482 0)
(7.17909 -0.00492354 0)
(7.18387 -0.00464746 0)
(7.18839 -0.00438638 0)
(7.19265 -0.00413917 0)
(7.19667 -0.00390569 0)
(7.20046 -0.00368483 0)
(7.20404 -0.00347651 0)
(7.20742 -0.00327959 0)
(7.2106 -0.00309403 0)
(7.21361 -0.00291869 0)
(7.21645 -0.00275356 0)
(7.21912 -0.00259749 0)
(7.22164 -0.00245055 0)
(7.22403 -0.00231161 0)
(7.22627 -0.00218084 0)
(7.22839 -0.00205715 0)
(7.23039 -0.00194084 0)
(7.23228 -0.00183085 0)
(7.23407 -0.0017276 0)
(7.23575 -0.00163003 0)
(7.23734 -0.00153866 0)
(7.23885 -0.00145243 0)
(7.24027 -0.00137189 0)
(7.24161 -0.00129597 0)
(7.24289 -0.00122526 0)
(7.24409 -0.00115867 0)
(7.24523 -0.00109682 0)
(7.24631 -0.00103864 0)
(7.24733 -0.000984796 0)
(7.2483 -0.000934243 0)
(7.24922 -0.000887724 0)
(7.2501 -0.000844221 0)
(7.25094 -0.00080456 0)
(7.25174 -0.000767738 0)
(7.25251 -0.000734667 0)
(7.25325 -0.000704312 0)
(7.25396 -0.000677671 0)
(7.25465 -0.000653617 0)
(7.25532 -0.000633242 0)
(7.25598 -0.000615256 0)
(7.25662 -0.000600878 0)
(7.25726 -0.000588586 0)
(7.25788 -0.00057978 0)
(7.25851 -0.000572653 0)
(7.25913 -0.000568862 0)
(7.25975 -0.00056627 0)
(7.26036 -0.00056688 0)
(7.26099 -0.000568191 0)
(7.26161 -0.000572639 0)
(7.26225 -0.000577332 0)
(7.26289 -0.000585189 0)
(7.26353 -0.000592916 0)
(7.26419 -0.000603951 0)
(7.26485 -0.000614594 0)
(7.26553 -0.000628813 0)
(7.26623 -0.000642429 0)
(7.26693 -0.000659891 0)
(7.26766 -0.000676401 0)
(7.2684 -0.000697032 0)
(7.26915 -0.000715882 0)
(7.26992 -0.000739832 0)
(7.2707 -0.000760477 0)
(7.27154 -0.000788869 0)
(7.27225 -0.00080371 0)
(7.27345 -0.000854953 0)
(5.00002 -0.000220548 0)
(5.00015 -0.000661759 0)
(5.00044 -0.00110328 0)
(5.00089 -0.00154544 0)
(5.00148 -0.00198861 0)
(5.00222 -0.00243307 0)
(5.00311 -0.00287928 0)
(5.00414 -0.00332757 0)
(5.00532 -0.00377849 0)
(5.00666 -0.00423244 0)
(5.00814 -0.00469012 0)
(5.00978 -0.00515204 0)
(5.01157 -0.00561903 0)
(5.01352 -0.00609177 0)
(5.01562 -0.00657121 0)
(5.01789 -0.00705816 0)
(5.02032 -0.00755372 0)
(5.02291 -0.00805882 0)
(5.02567 -0.0085747 0)
(5.0286 -0.00910237 0)
(5.03171 -0.00964323 0)
(5.035 -0.0101984 0)
(5.03848 -0.0107694 0)
(5.04215 -0.0113574 0)
(5.04602 -0.0119641 0)
(5.05009 -0.0125908 0)
(5.05437 -0.0132392 0)
(5.05886 -0.0139108 0)
(5.06359 -0.0146074 0)
(5.06855 -0.0153305 0)
(5.07375 -0.016082 0)
(5.0792 -0.0168635 0)
(5.08492 -0.017677 0)
(5.09091 -0.0185242 0)
(5.09719 -0.0194072 0)
(5.10377 -0.0203276 0)
(5.11066 -0.0212875 0)
(5.11787 -0.0222888 0)
(5.12542 -0.0233336 0)
(5.13333 -0.0244237 0)
(5.1416 -0.0255613 0)
(5.15026 -0.0267481 0)
(5.15932 -0.0279864 0)
(5.1688 -0.0292779 0)
(5.17872 -0.0306248 0)
(5.18909 -0.0320288 0)
(5.19994 -0.033492 0)
(5.21129 -0.035016 0)
(5.22315 -0.0366026 0)
(5.23555 -0.0382533 0)
(5.24851 -0.0399699 0)
(5.26205 -0.0417532 0)
(5.2762 -0.0436048 0)
(5.29097 -0.0455252 0)
(5.3064 -0.0475152 0)
(5.3225 -0.0495748 0)
(5.3393 -0.0517041 0)
(5.35682 -0.0539021 0)
(5.37509 -0.0561679 0)
(5.39413 -0.0584993 0)
(5.41396 -0.0608941 0)
(5.4346 -0.0633485 0)
(5.45608 -0.0658585 0)
(5.47841 -0.0684183 0)
(5.50161 -0.0710217 0)
(5.52569 -0.0736607 0)
(5.55067 -0.0763263 0)
(5.57656 -0.0790079 0)
(5.60335 -0.0816937 0)
(5.63106 -0.0843699 0)
(5.65968 -0.0870217 0)
(5.6892 -0.0896324 0)
(5.7196 -0.0921845 0)
(5.75086 -0.0946585 0)
(5.78296 -0.0970348 0)
(5.81585 -0.0992922 0)
(5.84951 -0.10141 0)
(5.88387 -0.103366 0)
(5.91887 -0.10514 0)
(5.95446 -0.106712 0)
(5.99056 -0.108064 0)
(6.0271 -0.109179 0)
(6.06397 -0.110043 0)
(6.10111 -0.110644 0)
(6.13841 -0.110974 0)
(6.17578 -0.111029 0)
(6.21313 -0.110806 0)
(6.25035 -0.110307 0)
(6.28735 -0.109538 0)
(6.32404 -0.108507 0)
(6.36033 -0.107227 0)
(6.39613 -0.105709 0)
(6.43137 -0.103971 0)
(6.46598 -0.10203 0)
(6.49988 -0.0999056 0)
(6.53302 -0.0976167 0)
(6.56535 -0.0951838 0)
(6.59682 -0.0926274 0)
(6.62739 -0.0899676 0)
(6.65704 -0.0872243 0)
(6.68574 -0.0844164 0)
(6.71347 -0.0815623 0)
(6.74023 -0.0786789 0)
(6.766 -0.0757825 0)
(6.79078 -0.0728875 0)
(6.81459 -0.0700075 0)
(6.83743 -0.0671545 0)
(6.85931 -0.0643392 0)
(6.88024 -0.0615709 0)
(6.90025 -0.058858 0)
(6.91936 -0.0562071 0)
(6.93759 -0.0536245 0)
(6.95497 -0.0511145 0)
(6.97151 -0.0486814 0)
(6.98725 -0.0463279 0)
(7.00222 -0.0440565 0)
(7.01645 -0.0418682 0)
(7.02996 -0.0397643 0)
(7.04278 -0.0377445 0)
(7.05494 -0.0358087 0)
(7.06648 -0.0339557 0)
(7.07741 -0.0321846 0)
(7.08776 -0.0304933 0)
(7.09757 -0.0288801 0)
(7.10686 -0.0273426 0)
(7.11564 -0.0258787 0)
(7.12396 -0.0244854 0)
(7.13182 -0.0231607 0)
(7.13926 -0.0219014 0)
(7.14629 -0.0207054 0)
(7.15294 -0.0195696 0)
(7.15922 -0.018492 0)
(7.16516 -0.0174695 0)
(7.17076 -0.0165001 0)
(7.17606 -0.015581 0)
(7.18105 -0.0147104 0)
(7.18577 -0.0138854 0)
(7.19023 -0.0131047 0)
(7.19443 -0.0123654 0)
(7.1984 -0.0116663 0)
(7.20214 -0.0110049 0)
(7.20567 -0.0103802 0)
(7.209 -0.00978986 0)
(7.21214 -0.00923289 0)
(7.2151 -0.00870703 0)
(7.2179 -0.00821153 0)
(7.22053 -0.0077441 0)
(7.22302 -0.00730405 0)
(7.22537 -0.00688912 0)
(7.22758 -0.00649874 0)
(7.22967 -0.00613066 0)
(7.23164 -0.00578451 0)
(7.2335 -0.0054581 0)
(7.23525 -0.00515129 0)
(7.23691 -0.00486199 0)
(7.23847 -0.0045903 0)
(7.23995 -0.00433426 0)
(7.24135 -0.00409419 0)
(7.24267 -0.00386824 0)
(7.24391 -0.00365696 0)
(7.24509 -0.00345859 0)
(7.24621 -0.00327386 0)
(7.24726 -0.00310113 0)
(7.24826 -0.00294128 0)
(7.24921 -0.00279275 0)
(7.25011 -0.0026566 0)
(7.25097 -0.00253127 0)
(7.25178 -0.00241798 0)
(7.25256 -0.00231513 0)
(7.25331 -0.00222404 0)
(7.25402 -0.00214294 0)
(7.25471 -0.00207323 0)
(7.25538 -0.0020129 0)
(7.25602 -0.00196337 0)
(7.25666 -0.00192229 0)
(7.25727 -0.00189118 0)
(7.25788 -0.00186728 0)
(7.25848 -0.0018523 0)
(7.25908 -0.00184309 0)
(7.25967 -0.00184169 0)
(7.26027 -0.0018446 0)
(7.26086 -0.00185434 0)
(7.26146 -0.00186713 0)
(7.26206 -0.00188611 0)
(7.26267 -0.00190721 0)
(7.26328 -0.00193428 0)
(7.2639 -0.00196292 0)
(7.26452 -0.00199771 0)
(7.26516 -0.00203386 0)
(7.26581 -0.00207662 0)
(7.26647 -0.00212061 0)
(7.26714 -0.00217163 0)
(7.26784 -0.00222348 0)
(7.26854 -0.00228274 0)
(7.26926 -0.00234178 0)
(7.26999 -0.00240963 0)
(7.27074 -0.00247476 0)
(7.27153 -0.00255498 0)
(7.27223 -0.00260959 0)
(7.27337 -0.00275671 0)
(5.00002 -0.000366827 0)
(5.00015 -0.00110074 0)
(5.00044 -0.00183521 0)
(5.00088 -0.00257074 0)
(5.00147 -0.00330782 0)
(5.00221 -0.00404695 0)
(5.00309 -0.00478873 0)
(5.00412 -0.00553381 0)
(5.0053 -0.00628295 0)
(5.00662 -0.00703697 0)
(5.0081 -0.00779685 0)
(5.00972 -0.00856364 0)
(5.0115 -0.00933852 0)
(5.01343 -0.0101228 0)
(5.01552 -0.0109179 0)
(5.01776 -0.0117252 0)
(5.02016 -0.0125466 0)
(5.02273 -0.0133836 0)
(5.02546 -0.0142382 0)
(5.02836 -0.0151123 0)
(5.03144 -0.0160079 0)
(5.03469 -0.0169273 0)
(5.03812 -0.0178727 0)
(5.04175 -0.0188464 0)
(5.04556 -0.0198509 0)
(5.04958 -0.0208888 0)
(5.0538 -0.0219625 0)
(5.05823 -0.0230749 0)
(5.06289 -0.0242287 0)
(5.06777 -0.0254267 0)
(5.0729 -0.0266718 0)
(5.07827 -0.027967 0)
(5.0839 -0.0293154 0)
(5.08981 -0.0307199 0)
(5.09599 -0.0321838 0)
(5.10247 -0.0337102 0)
(5.10925 -0.0353023 0)
(5.11635 -0.0369635 0)
(5.12379 -0.038697 0)
(5.13157 -0.0405061 0)
(5.13972 -0.0423942 0)
(5.14824 -0.0443647 0)
(5.15717 -0.0464209 0)
(5.1665 -0.0485661 0)
(5.17627 -0.0508037 0)
(5.1865 -0.0531368 0)
(5.19719 -0.0555687 0)
(5.20837 -0.0581025 0)
(5.22007 -0.0607411 0)
(5.2323 -0.0634873 0)
(5.24508 -0.0663437 0)
(5.25845 -0.0693126 0)
(5.27241 -0.0723961 0)
(5.28701 -0.0755957 0)
(5.30225 -0.0789128 0)
(5.31817 -0.0823478 0)
(5.33478 -0.0859009 0)
(5.35213 -0.0895711 0)
(5.37022 -0.093357 0)
(5.38909 -0.0972557 0)
(5.40876 -0.101263 0)
(5.42925 -0.105375 0)
(5.45059 -0.109583 0)
(5.4728 -0.113879 0)
(5.49589 -0.118254 0)
(5.5199 -0.122693 0)
(5.54483 -0.127183 0)
(5.57069 -0.131707 0)
(5.5975 -0.136243 0)
(5.62525 -0.14077 0)
(5.65396 -0.145262 0)
(5.68362 -0.149692 0)
(5.71421 -0.154029 0)
(5.74571 -0.15824 0)
(5.7781 -0.162291 0)
(5.81135 -0.166145 0)
(5.84541 -0.169766 0)
(5.88024 -0.173115 0)
(5.91577 -0.176157 0)
(5.95193 -0.178857 0)
(5.98866 -0.18118 0)
(6.02585 -0.183098 0)
(6.06343 -0.184586 0)
(6.10129 -0.185622 0)
(6.13934 -0.186193 0)
(6.17746 -0.18629 0)
(6.21556 -0.185909 0)
(6.25352 -0.185054 0)
(6.29124 -0.183736 0)
(6.32863 -0.181969 0)
(6.36558 -0.179774 0)
(6.402 -0.177175 0)
(6.43782 -0.174201 0)
(6.47295 -0.170883 0)
(6.50732 -0.167255 0)
(6.54088 -0.163351 0)
(6.57357 -0.159207 0)
(6.60535 -0.154859 0)
(6.63618 -0.15034 0)
(6.66604 -0.145686 0)
(6.69489 -0.140928 0)
(6.72273 -0.136096 0)
(6.74954 -0.131221 0)
(6.77533 -0.126328 0)
(6.8001 -0.121442 0)
(6.82386 -0.116587 0)
(6.84661 -0.111782 0)
(6.86838 -0.107044 0)
(6.88918 -0.102391 0)
(6.90904 -0.097836 0)
(6.92797 -0.0933897 0)
(6.94602 -0.0890623 0)
(6.96319 -0.0848613 0)
(6.97953 -0.0807928 0)
(6.99506 -0.0768614 0)
(7.00981 -0.0730701 0)
(7.02382 -0.0694207 0)
(7.0371 -0.0659141 0)
(7.0497 -0.0625499 0)
(7.06165 -0.0593272 0)
(7.07296 -0.056244 0)
(7.08368 -0.053298 0)
(7.09383 -0.0504861 0)
(7.10343 -0.0478051 0)
(7.11252 -0.0452509 0)
(7.12112 -0.0428198 0)
(7.12925 -0.0405072 0)
(7.13694 -0.0383089 0)
(7.1442 -0.0362203 0)
(7.15107 -0.0342371 0)
(7.15756 -0.0323547 0)
(7.1637 -0.0305688 0)
(7.16949 -0.0288751 0)
(7.17496 -0.0272695 0)
(7.18012 -0.025748 0)
(7.18499 -0.0243066 0)
(7.18959 -0.0229416 0)
(7.19394 -0.0216494 0)
(7.19803 -0.0204265 0)
(7.2019 -0.0192695 0)
(7.20554 -0.0181752 0)
(7.20898 -0.0171407 0)
(7.21222 -0.0161631 0)
(7.21527 -0.0152399 0)
(7.21816 -0.0143685 0)
(7.22087 -0.0135465 0)
(7.22344 -0.0127717 0)
(7.22585 -0.0120419 0)
(7.22813 -0.0113548 0)
(7.23028 -0.0107081 0)
(7.23231 -0.0100997 0)
(7.23423 -0.00952722 0)
(7.23603 -0.00898851 0)
(7.23774 -0.00848133 0)
(7.23935 -0.00800362 0)
(7.24087 -0.00755342 0)
(7.24231 -0.00712895 0)
(7.24366 -0.00672866 0)
(7.24495 -0.00635121 0)
(7.24616 -0.00599553 0)
(7.2473 -0.00566072 0)
(7.24838 -0.0053462 0)
(7.2494 -0.00505146 0)
(7.25037 -0.00477632 0)
(7.25129 -0.00452054 0)
(7.25216 -0.00428419 0)
(7.25298 -0.00406712 0)
(7.25376 -0.00386955 0)
(7.25451 -0.00369117 0)
(7.25523 -0.00353222 0)
(7.25591 -0.00339208 0)
(7.25657 -0.00327084 0)
(7.25721 -0.00316744 0)
(7.25783 -0.00308175 0)
(7.25844 -0.00301224 0)
(7.25903 -0.00295854 0)
(7.25962 -0.00291875 0)
(7.2602 -0.00289231 0)
(7.26078 -0.00287723 0)
(7.26136 -0.00287293 0)
(7.26194 -0.00287755 0)
(7.26252 -0.00289071 0)
(7.26311 -0.00291097 0)
(7.2637 -0.00293826 0)
(7.2643 -0.0029717 0)
(7.2649 -0.00301159 0)
(7.26551 -0.00305749 0)
(7.26613 -0.00310999 0)
(7.26675 -0.00316891 0)
(7.26739 -0.00323493 0)
(7.26804 -0.00330785 0)
(7.2687 -0.00338823 0)
(7.26939 -0.00347563 0)
(7.27008 -0.00357053 0)
(7.27079 -0.00367207 0)
(7.27151 -0.0037817 0)
(7.27225 -0.00389535 0)
(7.27303 -0.00402622 0)
(7.27372 -0.00412763 0)
(7.27483 -0.00437005 0)
(5.00002 -0.000512413 0)
(5.00015 -0.00153755 0)
(5.00044 -0.00256337 0)
(5.00088 -0.00359047 0)
(5.00146 -0.00461943 0)
(5.00219 -0.0056509 0)
(5.00307 -0.00668564 0)
(5.00409 -0.00772452 0)
(5.00526 -0.00876854 0)
(5.00657 -0.00981888 0)
(5.00803 -0.0108768 0)
(5.00964 -0.0119439 0)
(5.0114 -0.0130216 0)
(5.0133 -0.0141119 0)
(5.01536 -0.0152167 0)
(5.01758 -0.0163381 0)
(5.01995 -0.0174785 0)
(5.02247 -0.0186401 0)
(5.02516 -0.0198258 0)
(5.02802 -0.0210381 0)
(5.03104 -0.0222801 0)
(5.03423 -0.0235547 0)
(5.0376 -0.0248651 0)
(5.04115 -0.0262146 0)
(5.04489 -0.0276067 0)
(5.04883 -0.0290448 0)
(5.05296 -0.0305327 0)
(5.0573 -0.0320742 0)
(5.06185 -0.0336732 0)
(5.06663 -0.0353336 0)
(5.07164 -0.0370595 0)
(5.0769 -0.0388551 0)
(5.0824 -0.0407248 0)
(5.08816 -0.0426727 0)
(5.0942 -0.0447035 0)
(5.10053 -0.0468214 0)
(5.10715 -0.0490312 0)
(5.11409 -0.0513375 0)
(5.12135 -0.0537448 0)
(5.12895 -0.056258 0)
(5.1369 -0.0588817 0)
(5.14523 -0.0616207 0)
(5.15395 -0.0644799 0)
(5.16307 -0.0674639 0)
(5.17262 -0.0705776 0)
(5.18261 -0.0738255 0)
(5.19306 -0.0772124 0)
(5.204 -0.0807428 0)
(5.21545 -0.0844209 0)
(5.22742 -0.088251 0)
(5.23994 -0.092237 0)
(5.25304 -0.0963825 0)
(5.26673 -0.100691 0)
(5.28104 -0.105165 0)
(5.29601 -0.109806 0)
(5.31165 -0.114616 0)
(5.32799 -0.119597 0)
(5.34505 -0.124747 0)
(5.36287 -0.130064 0)
(5.38148 -0.135547 0)
(5.4009 -0.14119 0)
(5.42115 -0.146987 0)
(5.44227 -0.152929 0)
(5.46428 -0.159006 0)
(5.48721 -0.165204 0)
(5.51107 -0.171506 0)
(5.5359 -0.177892 0)
(5.56171 -0.184338 0)
(5.58851 -0.190817 0)
(5.61633 -0.197297 0)
(5.64516 -0.203743 0)
(5.675 -0.210114 0)
(5.70585 -0.216367 0)
(5.73771 -0.222454 0)
(5.77054 -0.228323 0)
(5.80432 -0.233921 0)
(5.839 -0.239192 0)
(5.87453 -0.244079 0)
(5.91086 -0.248528 0)
(5.94791 -0.252482 0)
(5.98559 -0.255892 0)
(6.02382 -0.258712 0)
(6.06248 -0.260903 0)
(6.10148 -0.262433 0)
(6.14068 -0.263278 0)
(6.17997 -0.263427 0)
(6.21924 -0.262875 0)
(6.25836 -0.261628 0)
(6.29721 -0.259702 0)
(6.33567 -0.257121 0)
(6.37364 -0.253917 0)
(6.41103 -0.250127 0)
(6.44773 -0.245797 0)
(6.48366 -0.240972 0)
(6.51875 -0.235705 0)
(6.55294 -0.230047 0)
(6.58618 -0.224052 0)
(6.61842 -0.217772 0)
(6.64962 -0.211259 0)
(6.67977 -0.204563 0)
(6.70883 -0.197732 0)
(6.73682 -0.190808 0)
(6.76371 -0.183835 0)
(6.78951 -0.17685 0)
(6.81424 -0.169887 0)
(6.8379 -0.162979 0)
(6.86051 -0.156153 0)
(6.8821 -0.149433 0)
(6.90268 -0.142842 0)
(6.92229 -0.136399 0)
(6.94095 -0.130118 0)
(6.9587 -0.124013 0)
(6.97557 -0.118094 0)
(6.99158 -0.112369 0)
(7.00678 -0.106844 0)
(7.02119 -0.101523 0)
(7.03486 -0.0964066 0)
(7.0478 -0.0914963 0)
(7.06006 -0.0867908 0)
(7.07167 -0.0822877 0)
(7.08266 -0.0779839 0)
(7.09305 -0.0738753 0)
(7.10288 -0.0699571 0)
(7.11218 -0.066224 0)
(7.12097 -0.0626702 0)
(7.12928 -0.0592898 0)
(7.13714 -0.0560763 0)
(7.14456 -0.0530234 0)
(7.15157 -0.0501244 0)
(7.1582 -0.0473728 0)
(7.16445 -0.0447622 0)
(7.17036 -0.042286 0)
(7.17594 -0.0399382 0)
(7.1812 -0.0377128 0)
(7.18617 -0.035604 0)
(7.19086 -0.0336064 0)
(7.19528 -0.031715 0)
(7.19946 -0.0299247 0)
(7.20339 -0.0282311 0)
(7.2071 -0.0266294 0)
(7.2106 -0.0251154 0)
(7.2139 -0.023685 0)
(7.21701 -0.022334 0)
(7.21995 -0.0210588 0)
(7.22271 -0.0198554 0)
(7.22531 -0.0187206 0)
(7.22777 -0.017651 0)
(7.23008 -0.0166434 0)
(7.23226 -0.015695 0)
(7.23432 -0.0148028 0)
(7.23626 -0.013964 0)
(7.23809 -0.0131757 0)
(7.23982 -0.0124351 0)
(7.24146 -0.0117391 0)
(7.243 -0.0110851 0)
(7.24446 -0.0104699 0)
(7.24584 -0.0098912 0)
(7.24715 -0.00934615 0)
(7.24838 -0.00883277 0)
(7.24954 -0.00834896 0)
(7.25064 -0.00789337 0)
(7.25168 -0.00746473 0)
(7.25266 -0.00706237 0)
(7.25358 -0.00668583 0)
(7.25445 -0.00633497 0)
(7.25528 -0.00600997 0)
(7.25606 -0.00571094 0)
(7.2568 -0.00543836 0)
(7.2575 -0.00519222 0)
(7.25817 -0.00497298 0)
(7.25881 -0.00478016 0)
(7.25943 -0.0046139 0)
(7.26002 -0.00447299 0)
(7.2606 -0.00435706 0)
(7.26117 -0.00426414 0)
(7.26173 -0.0041933 0)
(7.26229 -0.00414196 0)
(7.26284 -0.00410883 0)
(7.2634 -0.00409109 0)
(7.26395 -0.00408747 0)
(7.26451 -0.0040954 0)
(7.26508 -0.00411399 0)
(7.26565 -0.00414142 0)
(7.26622 -0.0041775 0)
(7.26681 -0.00422139 0)
(7.26739 -0.00427358 0)
(7.26799 -0.0043341 0)
(7.26859 -0.00440391 0)
(7.2692 -0.0044835 0)
(7.26982 -0.00457381 0)
(7.27046 -0.00467535 0)
(7.2711 -0.00478855 0)
(7.27177 -0.00491367 0)
(7.27245 -0.00505036 0)
(7.27314 -0.00519841 0)
(7.27384 -0.00535786 0)
(7.27456 -0.0055239 0)
(7.27533 -0.00571248 0)
(7.27601 -0.00585823 0)
(7.27709 -0.00619633 0)
(5.00002 -0.000657031 0)
(5.00015 -0.0019714 0)
(5.00043 -0.00328643 0)
(5.00087 -0.00460273 0)
(5.00145 -0.00592091 0)
(5.00218 -0.00724167 0)
(5.00304 -0.00856587 0)
(5.00406 -0.00989455 0)
(5.00521 -0.0112289 0)
(5.00651 -0.0125704 0)
(5.00795 -0.0139207 0)
(5.00954 -0.0152815 0)
(5.01127 -0.016655 0)
(5.01315 -0.0180435 0)
(5.01518 -0.0194496 0)
(5.01735 -0.0208759 0)
(5.01968 -0.0223255 0)
(5.02215 -0.0238015 0)
(5.02479 -0.0253074 0)
(5.02758 -0.0268468 0)
(5.03053 -0.0284233 0)
(5.03365 -0.030041 0)
(5.03693 -0.0317041 0)
(5.0404 -0.0334167 0)
(5.04404 -0.0351833 0)
(5.04786 -0.0370086 0)
(5.05188 -0.0388973 0)
(5.0561 -0.0408543 0)
(5.06052 -0.0428846 0)
(5.06516 -0.0449933 0)
(5.07001 -0.0471858 0)
(5.0751 -0.0494675 0)
(5.08044 -0.0518438 0)
(5.08602 -0.0543205 0)
(5.09187 -0.0569031 0)
(5.09799 -0.0595976 0)
(5.1044 -0.0624098 0)
(5.11112 -0.0653457 0)
(5.11814 -0.0684114 0)
(5.1255 -0.071613 0)
(5.1332 -0.0749567 0)
(5.14127 -0.0784486 0)
(5.14971 -0.0820951 0)
(5.15854 -0.0859023 0)
(5.16779 -0.0898765 0)
(5.17748 -0.094024 0)
(5.18761 -0.0983508 0)
(5.19822 -0.102863 0)
(5.20933 -0.107567 0)
(5.22095 -0.112468 0)
(5.23312 -0.117571 0)
(5.24585 -0.122882 0)
(5.25917 -0.128406 0)
(5.27311 -0.134147 0)
(5.28769 -0.140109 0)
(5.30294 -0.146293 0)
(5.3189 -0.152704 0)
(5.33558 -0.15934 0)
(5.35302 -0.166203 0)
(5.37126 -0.173288 0)
(5.39031 -0.180593 0)
(5.41022 -0.188111 0)
(5.43102 -0.195832 0)
(5.45273 -0.203744 0)
(5.4754 -0.211833 0)
(5.49905 -0.220077 0)
(5.52371 -0.228454 0)
(5.5494 -0.236933 0)
(5.57617 -0.24548 0)
(5.60401 -0.254056 0)
(5.63296 -0.262613 0)
(5.66303 -0.2711 0)
(5.69421 -0.279457 0)
(5.7265 -0.287619 0)
(5.7599 -0.295518 0)
(5.79437 -0.303076 0)
(5.82989 -0.310216 0)
(5.86639 -0.316858 0)
(5.90381 -0.32292 0)
(5.94208 -0.328324 0)
(5.9811 -0.332996 0)
(6.02077 -0.336867 0)
(6.06095 -0.339881 0)
(6.10154 -0.341989 0)
(6.14237 -0.34316 0)
(6.18332 -0.343373 0)
(6.22424 -0.342625 0)
(6.26498 -0.340924 0)
(6.3054 -0.338296 0)
(6.34537 -0.334777 0)
(6.38477 -0.330414 0)
(6.42347 -0.325265 0)
(6.46139 -0.319392 0)
(6.49842 -0.312865 0)
(6.53448 -0.305755 0)
(6.56952 -0.298137 0)
(6.60348 -0.290084 0)
(6.63632 -0.28167 0)
(6.66801 -0.272965 0)
(6.69852 -0.264038 0)
(6.72785 -0.254952 0)
(6.75599 -0.245768 0)
(6.78295 -0.23654 0)
(6.80874 -0.227319 0)
(6.83338 -0.218151 0)
(6.85688 -0.209075 0)
(6.87928 -0.200127 0)
(6.90059 -0.191338 0)
(6.92086 -0.182735 0)
(6.94012 -0.17434 0)
(6.95839 -0.166173 0)
(6.97573 -0.158248 0)
(6.99216 -0.150579 0)
(7.00773 -0.143173 0)
(7.02247 -0.136037 0)
(7.03642 -0.129175 0)
(7.04962 -0.122589 0)
(7.0621 -0.116277 0)
(7.0739 -0.110237 0)
(7.08505 -0.104465 0)
(7.09559 -0.0989558 0)
(7.10555 -0.0937031 0)
(7.11496 -0.0886994 0)
(7.12385 -0.083937 0)
(7.13225 -0.0794075 0)
(7.14018 -0.0751022 0)
(7.14766 -0.0710125 0)
(7.15473 -0.0671295 0)
(7.16141 -0.0634446 0)
(7.16771 -0.0599488 0)
(7.17366 -0.0566339 0)
(7.17927 -0.053491 0)
(7.18457 -0.0505122 0)
(7.18957 -0.0476893 0)
(7.19429 -0.0450147 0)
(7.19874 -0.042481 0)
(7.20293 -0.0400813 0)
(7.20688 -0.0378092 0)
(7.21061 -0.0356589 0)
(7.21412 -0.0336246 0)
(7.21743 -0.0317014 0)
(7.22054 -0.0298843 0)
(7.22348 -0.0281687 0)
(7.22625 -0.0265498 0)
(7.22885 -0.0250233 0)
(7.23131 -0.0235846 0)
(7.23362 -0.0222291 0)
(7.2358 -0.0209526 0)
(7.23785 -0.0197507 0)
(7.23979 -0.0186196 0)
(7.24161 -0.0175551 0)
(7.24333 -0.0165537 0)
(7.24496 -0.0156117 0)
(7.2465 -0.0147256 0)
(7.24795 -0.0138921 0)
(7.24932 -0.0131075 0)
(7.25062 -0.0123689 0)
(7.25185 -0.011673 0)
(7.25302 -0.0110173 0)
(7.25411 -0.0103988 0)
(7.25515 -0.00981605 0)
(7.25613 -0.00926703 0)
(7.25705 -0.00875103 0)
(7.25792 -0.00826736 0)
(7.25873 -0.00781614 0)
(7.2595 -0.0073978 0)
(7.26022 -0.00701297 0)
(7.2609 -0.00666276 0)
(7.26155 -0.00634775 0)
(7.26216 -0.00606907 0)
(7.26274 -0.0058266 0)
(7.2633 -0.00562084 0)
(7.26384 -0.00545048 0)
(7.26437 -0.00531488 0)
(7.26489 -0.00521138 0)
(7.2654 -0.00513811 0)
(7.26592 -0.00509126 0)
(7.26643 -0.00506809 0)
(7.26696 -0.00506428 0)
(7.26749 -0.00507695 0)
(7.26803 -0.00510222 0)
(7.26857 -0.0051379 0)
(7.26913 -0.00518141 0)
(7.26969 -0.00523195 0)
(7.27026 -0.00528871 0)
(7.27083 -0.00535241 0)
(7.27141 -0.00542383 0)
(7.27199 -0.00550479 0)
(7.27258 -0.00559691 0)
(7.27318 -0.00570225 0)
(7.27378 -0.00582236 0)
(7.2744 -0.00595857 0)
(7.27504 -0.0061117 0)
(7.27569 -0.0062817 0)
(7.27637 -0.00646841 0)
(7.27704 -0.00667169 0)
(7.27775 -0.00688497 0)
(7.2785 -0.00712816 0)
(7.27918 -0.0073144 0)
(7.28024 -0.00774132 0)
(5.00002 -0.000800719 0)
(5.00015 -0.00240242 0)
(5.00043 -0.00400459 0)
(5.00087 -0.0056077 0)
(5.00145 -0.00721225 0)
(5.00216 -0.00881891 0)
(5.00302 -0.0104285 0)
(5.00402 -0.0120422 0)
(5.00517 -0.0136614 0)
(5.00645 -0.0152877 0)
(5.00787 -0.0169229 0)
(5.00944 -0.0185694 0)
(5.01114 -0.0202297 0)
(5.01299 -0.0219066 0)
(5.01497 -0.023603 0)
(5.0171 -0.0253225 0)
(5.01937 -0.0270687 0)
(5.02179 -0.0288454 0)
(5.02435 -0.0306568 0)
(5.02707 -0.0325074 0)
(5.02994 -0.0344018 0)
(5.03296 -0.0363449 0)
(5.03614 -0.0383418 0)
(5.03949 -0.0403978 0)
(5.04301 -0.0425184 0)
(5.04671 -0.0447092 0)
(5.05058 -0.0469762 0)
(5.05464 -0.0493253 0)
(5.0589 -0.0517628 0)
(5.06336 -0.054295 0)
(5.06803 -0.0569285 0)
(5.07292 -0.0596699 0)
(5.07803 -0.062526 0)
(5.08339 -0.0655038 0)
(5.089 -0.0686104 0)
(5.09488 -0.0718529 0)
(5.10102 -0.0752388 0)
(5.10746 -0.0787754 0)
(5.11419 -0.0824703 0)
(5.12125 -0.0863311 0)
(5.12863 -0.0903655 0)
(5.13636 -0.0945812 0)
(5.14446 -0.0989862 0)
(5.15293 -0.103588 0)
(5.16181 -0.108395 0)
(5.17111 -0.113415 0)
(5.18084 -0.118655 0)
(5.19104 -0.124124 0)
(5.20172 -0.12983 0)
(5.2129 -0.135779 0)
(5.22462 -0.141979 0)
(5.23689 -0.148438 0)
(5.24974 -0.155162 0)
(5.26319 -0.162157 0)
(5.27728 -0.169429 0)
(5.29204 -0.176984 0)
(5.30749 -0.184825 0)
(5.32367 -0.192955 0)
(5.34062 -0.201375 0)
(5.35836 -0.210085 0)
(5.37693 -0.219083 0)
(5.39637 -0.228364 0)
(5.41672 -0.237919 0)
(5.43802 -0.247737 0)
(5.46031 -0.257802 0)
(5.48362 -0.268093 0)
(5.50801 -0.278583 0)
(5.5335 -0.289239 0)
(5.56014 -0.300022 0)
(5.58796 -0.310884 0)
(5.617 -0.321768 0)
(5.64727 -0.332609 0)
(5.67881 -0.343332 0)
(5.71161 -0.353853 0)
(5.74569 -0.364079 0)
(5.78101 -0.37391 0)
(5.81756 -0.383238 0)
(5.85529 -0.391951 0)
(5.89414 -0.399934 0)
(5.934 -0.407076 0)
(5.97479 -0.41327 0)
(6.01637 -0.418416 0)
(6.0586 -0.422431 0)
(6.10131 -0.425246 0)
(6.14435 -0.426813 0)
(6.18752 -0.427107 0)
(6.23065 -0.426123 0)
(6.27356 -0.423877 0)
(6.31608 -0.420407 0)
(6.35805 -0.415767 0)
(6.39932 -0.410028 0)
(6.43976 -0.40327 0)
(6.47925 -0.395587 0)
(6.5177 -0.387076 0)
(6.55501 -0.377836 0)
(6.59113 -0.367969 0)
(6.62599 -0.357576 0)
(6.65958 -0.346754 0)
(6.69185 -0.335596 0)
(6.7228 -0.32419 0)
(6.75243 -0.312619 0)
(6.78074 -0.300958 0)
(6.80776 -0.289278 0)
(6.83349 -0.277642 0)
(6.85798 -0.266104 0)
(6.88124 -0.254716 0)
(6.90333 -0.243519 0)
(6.92427 -0.232551 0)
(6.94411 -0.221843 0)
(6.9629 -0.211421 0)
(6.98066 -0.201306 0)
(6.99746 -0.191514 0)
(7.01332 -0.182057 0)
(7.02831 -0.172946 0)
(7.04245 -0.164185 0)
(7.0558 -0.155776 0)
(7.0684 -0.14772 0)
(7.08028 -0.140014 0)
(7.09149 -0.132653 0)
(7.10206 -0.12563 0)
(7.11203 -0.118939 0)
(7.12144 -0.112568 0)
(7.13031 -0.106508 0)
(7.13868 -0.100748 0)
(7.14657 -0.0952767 0)
(7.15402 -0.0900815 0)
(7.16105 -0.0851508 0)
(7.16767 -0.0804729 0)
(7.17392 -0.0760363 0)
(7.17982 -0.0718299 0)
(7.18538 -0.0678429 0)
(7.19062 -0.0640649 0)
(7.19556 -0.060486 0)
(7.20023 -0.0570966 0)
(7.20462 -0.0538874 0)
(7.20877 -0.0508492 0)
(7.21267 -0.0479735 0)
(7.21635 -0.0452519 0)
(7.21981 -0.0426767 0)
(7.22307 -0.0402407 0)
(7.22614 -0.0379374 0)
(7.22903 -0.0357608 0)
(7.23174 -0.0337057 0)
(7.2343 -0.0317671 0)
(7.2367 -0.0299405 0)
(7.23896 -0.0282212 0)
(7.24109 -0.0266046 0)
(7.24309 -0.0250858 0)
(7.24498 -0.0236596 0)
(7.24677 -0.0223204 0)
(7.24845 -0.0210629 0)
(7.25003 -0.0198816 0)
(7.25153 -0.0187709 0)
(7.25295 -0.0177258 0)
(7.25428 -0.0167413 0)
(7.25555 -0.0158127 0)
(7.25675 -0.014936 0)
(7.25789 -0.0141068 0)
(7.25896 -0.0133224 0)
(7.25998 -0.012579 0)
(7.26093 -0.0118751 0)
(7.26183 -0.0112081 0)
(7.26268 -0.0105778 0)
(7.26347 -0.00998318 0)
(7.26421 -0.00942527 0)
(7.26489 -0.00890477 0)
(7.26553 -0.00842347 0)
(7.26613 -0.00798353 0)
(7.26669 -0.0075867 0)
(7.26721 -0.00723576 0)
(7.2677 -0.00693139 0)
(7.26817 -0.0066758 0)
(7.26862 -0.00646763 0)
(7.26906 -0.00630737 0)
(7.2695 -0.00619113 0)
(7.26995 -0.00611713 0)
(7.2704 -0.00607926 0)
(7.27086 -0.00607375 0)
(7.27134 -0.00609345 0)
(7.27184 -0.00613376 0)
(7.27235 -0.00618824 0)
(7.27287 -0.00625304 0)
(7.27341 -0.00632403 0)
(7.27395 -0.00639947 0)
(7.27451 -0.00647832 0)
(7.27506 -0.00656138 0)
(7.27562 -0.0066504 0)
(7.27618 -0.00674807 0)
(7.27674 -0.00685763 0)
(7.2773 -0.00698221 0)
(7.27787 -0.00712493 0)
(7.27844 -0.00728769 0)
(7.27904 -0.00747232 0)
(7.27964 -0.00767848 0)
(7.28027 -0.00790617 0)
(7.2809 -0.00815469 0)
(7.28158 -0.00841606 0)
(7.28229 -0.00871531 0)
(7.28295 -0.00894555 0)
(7.284 -0.00949584 0)
(5.00002 -0.000943774 0)
(5.00015 -0.00283145 0)
(5.00043 -0.00471916 0)
(5.00086 -0.006607 0)
(5.00144 -0.00849521 0)
(5.00215 -0.0103842 0)
(5.00301 -0.0122749 0)
(5.004 -0.0141681 0)
(5.00513 -0.0160655 0)
(5.0064 -0.0179688 0)
(5.0078 -0.0198803 0)
(5.00934 -0.0218025 0)
(5.01102 -0.0237384 0)
(5.01283 -0.0256915 0)
(5.01477 -0.0276654 0)
(5.01685 -0.0296642 0)
(5.01906 -0.0316925 0)
(5.02141 -0.0337549 0)
(5.0239 -0.0358564 0)
(5.02653 -0.0380024 0)
(5.0293 -0.0401985 0)
(5.03222 -0.0424505 0)
(5.03528 -0.0447646 0)
(5.0385 -0.047147 0)
(5.04188 -0.0496044 0)
(5.04541 -0.0521435 0)
(5.04912 -0.0547712 0)
(5.053 -0.0574949 0)
(5.05706 -0.0603218 0)
(5.06131 -0.0632595 0)
(5.06576 -0.0663157 0)
(5.07041 -0.0694984 0)
(5.07528 -0.0728155 0)
(5.08037 -0.0762753 0)
(5.0857 -0.0798862 0)
(5.09127 -0.0836566 0)
(5.0971 -0.0875954 0)
(5.1032 -0.0917112 0)
(5.10959 -0.096013 0)
(5.11628 -0.10051 0)
(5.12328 -0.105211 0)
(5.13062 -0.110126 0)
(5.1383 -0.115264 0)
(5.14634 -0.120634 0)
(5.15477 -0.126247 0)
(5.16359 -0.132111 0)
(5.17285 -0.138237 0)
(5.18254 -0.144634 0)
(5.1927 -0.151312 0)
(5.20335 -0.158281 0)
(5.21451 -0.165549 0)
(5.22621 -0.173128 0)
(5.23848 -0.181025 0)
(5.25134 -0.18925 0)
(5.26482 -0.197811 0)
(5.27896 -0.206717 0)
(5.29378 -0.215974 0)
(5.30933 -0.225589 0)
(5.32563 -0.235566 0)
(5.34273 -0.245908 0)
(5.36067 -0.256616 0)
(5.37949 -0.26769 0)
(5.39924 -0.279124 0)
(5.41997 -0.290908 0)
(5.44172 -0.303031 0)
(5.46454 -0.315473 0)
(5.4885 -0.328207 0)
(5.51364 -0.3412 0)
(5.54003 -0.354408 0)
(5.56771 -0.36778 0)
(5.59674 -0.38125 0)
(5.62716 -0.39474 0)
(5.65902 -0.40816 0)
(5.69235 -0.421404 0)
(5.72717 -0.434352 0)
(5.76348 -0.446873 0)
(5.80127 -0.458822 0)
(5.8405 -0.470044 0)
(5.88111 -0.480379 0)
(5.92301 -0.489668 0)
(5.96607 -0.497756 0)
(6.01014 -0.504499 0)