/*--------------------------------*- C++ -*----------------------------------*\
  =========                 |
  \\      /  F ield         | OpenFOAM: The Open Source CFD Toolbox
   \\    /   O peration     | Website:  https://openfoam.org
    \\  /    A nd           | Version:  10
     \\/     M anipulation  |
\*---------------------------------------------------------------------------*/
FoamFile
{
    format      ascii;
    class       surfaceScalarField;
    location    "16750";
    object      phi;
}
// * * * * * * * * * * * * * * * * * * * * * * * * * * * * * * * * * * * * * //

dimensions      [0 3 -1 0 0 0 0];

internalField   nonuniform List<scalar> 
6280
(
-2.03714e-07
2.03714e-07
-4.08129e-07
2.04415e-07
-6.17549e-07
2.0942e-07
-8.36628e-07
2.1908e-07
-1.07084e-06
2.34211e-07
-1.32709e-06
2.56249e-07
-1.61464e-06
2.87548e-07
-1.94657e-06
3.31937e-07
-2.34231e-06
3.9574e-07
-2.83198e-06
4.89661e-07
-3.46437e-06
6.32397e-07
-4.32204e-06
8.57667e-07
-5.55025e-06
1.22821e-06
-7.41435e-06
1.8641e-06
-1.04152e-05
3.00083e-06
-1.55248e-05
5.10962e-06
-2.23661e-05
6.84129e-06
-2.33892e-05
1.02309e-06
-2.37838e-05
3.9464e-07
-2.40643e-05
2.80477e-07
-2.42823e-05
2.18041e-07
-2.44584e-05
1.76056e-07
-2.4604e-05
1.45625e-07
-2.47267e-05
1.22647e-07
-2.48315e-05
1.04814e-07
-2.49222e-05
9.06728e-08
-2.50014e-05
7.9262e-08
-2.50713e-05
6.99162e-08
-2.51335e-05
6.21616e-08
-2.51891e-05
5.56514e-08
-2.52393e-05
5.01251e-08
-2.47822e-05
-4.5706e-07
-2.34931e-05
-1.28914e-06
-2.22508e-05
-1.24229e-06
-2.09365e-05
-1.31432e-06
-1.93288e-05
-1.60766e-06
-1.71143e-05
-2.21449e-06
-1.38314e-05
-3.28292e-06
-8.76526e-06
-5.06614e-06
-7.44957e-06
-1.31569e-06
-1.94525e-07
3.98238e-07
-3.89031e-07
3.98922e-07
-5.8685e-07
4.07238e-07
-7.91374e-07
4.23604e-07
-1.00624e-06
4.49076e-07
-1.23546e-06
4.85474e-07
-1.48353e-06
5.35613e-07
-1.75525e-06
6.03655e-07
-2.05514e-06
6.95629e-07
-2.38555e-06
8.20078e-07
-2.74188e-06
9.88722e-07
-3.1008e-06
1.21659e-06
-3.39272e-06
1.52013e-06
-3.43778e-06
1.90916e-06
-2.79957e-06
2.36261e-06
-4.53484e-07
2.76354e-06
3.65191e-06
2.7359e-06
2.81351e-06
1.86148e-06
1.89968e-06
1.30848e-06
1.19132e-06
9.88835e-07
6.07333e-07
8.02027e-07
8.73944e-08
6.95996e-07
-4.12235e-07
6.45254e-07
-9.28994e-07
6.39407e-07
-1.50258e-06
6.78401e-07
-2.18372e-06
7.71809e-07
-3.0458e-06
9.41347e-07
-4.20308e-06
1.22719e-06
-5.84096e-06
1.70004e-06
-8.26814e-06
2.48283e-06
-1.19575e-05
3.73945e-06
-1.42029e-05
1.78836e-06
-1.56823e-05
1.90234e-07
-1.7074e-05
1.4941e-07
-1.85137e-05
1.25418e-07
-2.02258e-05
1.04458e-07
-2.2525e-05
8.4712e-08
-2.58731e-05
6.51979e-08
-2.65004e-05
-4.43888e-06
-3.2786e-05
-1.164e-06
-1.78034e-07
5.76273e-07
-3.54978e-07
5.75866e-07
-5.32716e-07
5.84976e-07
-7.12895e-07
6.03782e-07
-8.96832e-07
6.33012e-07
-1.0853e-06
6.73947e-07
-1.27813e-06
7.28439e-07
-1.47338e-06
7.9891e-07
-1.66602e-06
8.88269e-07
-1.84555e-06
9.99602e-07
-1.99225e-06
1.13542e-06
-2.07173e-06
1.29608e-06
-2.02835e-06
1.47675e-06
-1.78167e-06
1.66247e-06
-1.24046e-06
1.82141e-06
-3.76682e-07
1.89977e-06
5.26633e-07
1.83258e-06
7.74547e-07
1.61357e-06
6.95111e-07
1.38792e-06
4.78482e-07
1.20546e-06
2.06586e-07
1.07392e-06
-8.64759e-08
9.89058e-07
-3.86392e-07
9.4517e-07
-6.85181e-07
9.38196e-07
-9.72964e-07
9.66183e-07
-1.22982e-06
1.02867e-06
-1.41354e-06
1.12507e-06
-1.43775e-06
1.2514e-06
-1.1313e-06
1.39359e-06
-1.62352e-07
1.51388e-06
2.05299e-06
1.52411e-06
2.59962e-06
1.24173e-06
1.86898e-06
9.20876e-07
1.294e-06
7.24389e-07
8.14454e-07
6.04966e-07
3.8181e-07
5.37102e-07
-4.24406e-08
5.08962e-07
-4.9173e-07
5.14487e-07
-4.82285e-06
-1.07755e-07
-3.94972e-05
1.88838e-06
-1.57161e-07
7.33434e-07
-3.12244e-07
7.30949e-07
-4.65771e-07
7.38503e-07
-6.17898e-07
7.5591e-07
-7.68225e-07
7.83339e-07
-9.15514e-07
8.21236e-07
-1.05729e-06
8.70211e-07
-1.18926e-06
9.30881e-07
-1.30459e-06
1.0036e-06
-1.39303e-06
1.08804e-06
-1.44015e-06
1.18254e-06
-1.42731e-06
1.28324e-06
-1.33357e-06
1.383e-06
-1.14172e-06
1.47063e-06
-8.5135e-07
1.53104e-06
-4.99771e-07
1.54819e-06
-1.79699e-07
1.51251e-06
1.51154e-09
1.43236e-06
5.34131e-08
1.33601e-06
1.42803e-08
1.2446e-06
-8.09757e-08
1.16918e-06
-2.0605e-07
1.11413e-06
-3.41093e-07
1.08021e-06
-4.69227e-07
1.06633e-06
-5.73315e-07
1.07027e-06
-6.33316e-07
1.08867e-06
-6.24703e-07
1.11645e-06
-5.19297e-07
1.146e-06
-2.91962e-07
1.16625e-06
5.91951e-08
1.16272e-06
4.63097e-07
1.12021e-06
6.72142e-07
1.03268e-06
6.64763e-07
9.28255e-07
5.55689e-07
8.33462e-07
4.04141e-07
7.56514e-07
2.42997e-07
6.98246e-07
9.54205e-08
6.56539e-07
-1.77092e-08
6.27617e-07
-2.02796e-07
7.73322e-08
-3.99506e-05
2.50584e-07
-1.3481e-07
8.68244e-07
-2.66901e-07
8.6304e-07
-3.95823e-07
8.67425e-07
-5.20805e-07
8.80891e-07
-6.4058e-07
9.03115e-07
-7.53199e-07
9.33854e-07
-8.55809e-07
9.72821e-07
-9.44452e-07
1.01952e-06
-1.01392e-06
1.07307e-06
-1.05777e-06
1.13189e-06
-1.06874e-06
1.19351e-06
-1.03979e-06
1.25429e-06
-9.66109e-07
1.30932e-06
-8.48248e-07
1.35277e-06
-6.95907e-07
1.37869e-06
-5.30449e-07
1.38273e-06
-3.82101e-07
1.36416e-06
-2.77208e-07
1.32746e-06
-2.22277e-07
1.28108e-06
-2.10837e-07
1.23316e-06
-2.31194e-07
1.18953e-06
-2.70633e-07
1.15357e-06
-3.16997e-07
1.12658e-06
-3.58979e-07
1.10831e-06
-3.86066e-07
1.09736e-06
-3.88697e-07
1.0913e-06
-3.59091e-07
1.08685e-06
-2.93112e-07
1.08002e-06
-1.93364e-07
1.06651e-06
-7.31088e-08
1.04247e-06
4.12916e-08
1.00581e-06
1.16199e-07
9.57773e-07
1.40759e-07
9.03695e-07
1.24686e-07
8.49535e-07
8.17997e-08
7.99401e-07
2.44502e-08
7.55595e-07
-3.82283e-08
7.19218e-07
-1.01351e-07
6.90739e-07
-1.35601e-07
1.11582e-07
-4.02718e-05
1.8563e-07
-1.13194e-07
9.81438e-07
-2.23429e-07
9.73275e-07
-3.29715e-07
9.73711e-07
-4.30869e-07
9.82045e-07
-5.25399e-07
9.97646e-07
-6.11414e-07
1.01987e-06
-6.86564e-07
1.04797e-06
-7.48038e-07
1.081e-06
-7.92675e-07
1.1177e-06
-8.1721e-07
1.15643e-06
-8.1876e-07
1.19507e-06
-7.95551e-07
1.23108e-06
-7.47872e-07
1.26164e-06
-6.79065e-07
1.28396e-06
-5.96133e-07
1.29576e-06
-5.0931e-07
1.29591e-06
-4.3001e-07
1.28486e-06
-3.67344e-07
1.2648e-06
-3.25269e-07
1.23901e-06
-3.02993e-07
1.21088e-06
-2.96638e-07
1.18318e-06
-3.0079e-07
1.15772e-06
-3.09587e-07
1.13537e-06
-3.17405e-07
1.11613e-06
-3.19356e-07
1.09931e-06
-3.11748e-07
1.08369e-06
-2.92612e-07
1.06771e-06
-2.62271e-07
1.04968e-06
-2.23792e-07
1.02803e-06
-1.82975e-07
1.00165e-06
-1.47334e-07
9.70168e-07
-1.23663e-07
9.34101e-07
-1.14699e-07
8.94732e-07
-1.18753e-07
8.53589e-07
-1.31387e-07
8.12035e-07
-1.46984e-07
7.71192e-07
-1.59919e-07
7.32153e-07
-1.65572e-07
6.96392e-07
-1.32285e-07
7.82958e-08
-4.05915e-05
1.87458e-07
-9.36479e-08
1.07509e-06
-1.84411e-07
1.06404e-06
-2.71102e-07
1.0604e-06
-3.5247e-07
1.06341e-06
-4.27132e-07
1.07231e-06
-4.93554e-07
1.08629e-06
-5.5006e-07
1.10448e-06
-5.94905e-07
1.12584e-06
-6.26407e-07
1.1492e-06
-6.43166e-07
1.17319e-06
-6.44361e-07
1.19626e-06
-6.30092e-07
1.21681e-06
-6.01715e-07
1.23326e-06
-5.62031e-07
1.24428e-06
-5.15211e-07
1.24894e-06
-4.66292e-07
1.24699e-06
-4.20283e-07
1.23885e-06
-3.81102e-07
1.22562e-06
-3.50857e-07
1.20876e-06
-3.29802e-07
1.18983e-06
-3.16749e-07
1.17013e-06
-3.09632e-07
1.15061e-06
-3.06034e-07
1.13177e-06
-3.03626e-07
1.11372e-06
-3.00522e-07
1.0962e-06
-2.95544e-07
1.07871e-06
-2.88432e-07
1.0606e-06
-2.79927e-07
1.04117e-06
-2.71702e-07
1.01981e-06
-2.66069e-07
9.96018e-07
-2.65403e-07
9.69503e-07
-2.71388e-07
9.40086e-07
-2.84249e-07
9.07593e-07
-3.02308e-07
8.71649e-07
-3.21732e-07
8.31459e-07
-3.36153e-07
7.85613e-07
-3.35909e-07
7.31908e-07
-3.06695e-07
6.67178e-07
-1.29282e-07
-9.91169e-08
-4.09161e-05
1.9531e-07
-7.67479e-08
1.15183e-06
-1.50879e-07
1.13817e-06
-2.21222e-07
1.13075e-06
-2.86633e-07
1.12882e-06
-3.45963e-07
1.13164e-06
-3.98067e-07
1.1384e-06
-4.41834e-07
1.14824e-06
-4.76255e-07
1.16026e-06
-5.00522e-07
1.17347e-06
-5.14157e-07
1.18682e-06
-5.17155e-07
1.19926e-06
-5.1011e-07
1.20977e-06
-4.94294e-07
1.21745e-06
-4.7164e-07
1.22162e-06
-4.44588e-07
1.22189e-06
-4.15802e-07
1.2182e-06
-3.8779e-07
1.21084e-06
-3.62539e-07
1.20037e-06
-3.41288e-07
1.18751e-06
-3.24496e-07
1.17303e-06
-3.11981e-07
1.15761e-06
-3.03141e-07
1.14177e-06
-2.97201e-07
1.12583e-06
-2.93438e-07
1.10996e-06
-2.91374e-07
1.09414e-06
-2.90917e-07
1.07826e-06
-2.92448e-07
1.06213e-06
-2.96846e-07
1.04557e-06
-3.05443e-07
1.0284e-06
-3.19924e-07
1.0105e-06
-3.4217e-07
9.91749e-07
-3.74104e-07
9.7202e-07
-4.1756e-07
9.51049e-07
-4.74215e-07
9.28303e-07
-5.45507e-07
9.02751e-07
-6.32431e-07
8.72537e-07
-7.34988e-07
8.34465e-07
-8.50922e-07
7.83112e-07
-1.16535e-07
-8.33504e-07
-4.12429e-05
2.10207e-07
-6.2558e-08
1.21439e-06
-1.22852e-07
1.19846e-06
-1.79837e-07
1.18773e-06
-2.3254e-07
1.18153e-06
-2.80057e-07
1.17915e-06
-3.21563e-07
1.1799e-06
-3.56341e-07
1.18302e-06
-3.83831e-07
1.18775e-06
-4.03681e-07
1.19332e-06
-4.15814e-07
1.19895e-06
-4.20481e-07
1.20392e-06
-4.18295e-07
1.20758e-06
-4.10228e-07
1.20938e-06
-3.97556e-07
1.20895e-06
-3.81752e-07
1.20609e-06
-3.64338e-07
1.20079e-06
-3.46719e-07
1.19322e-06
-3.30044e-07
1.18369e-06
-3.15128e-07
1.1726e-06
-3.02437e-07
1.16034e-06
-2.9215e-07
1.14732e-06
-2.84254e-07
1.13387e-06
-2.78664e-07
1.12024e-06
-2.75327e-07
1.10662e-06
-2.7433e-07
1.09314e-06
-2.75978e-07
1.0799e-06
-2.8085e-07
1.067e-06
-2.89843e-07
1.05456e-06
-3.04212e-07
1.04277e-06
-3.25617e-07
1.0319e-06
-3.56225e-07
1.02236e-06
-3.98907e-07
1.0147e-06
-4.57592e-07
1.00973e-06
-5.37893e-07
1.0086e-06
-6.48151e-07
1.01301e-06
-8.01146e-07
1.02553e-06
-1.0169e-06
1.05022e-06
-1.32711e-06
1.09332e-06
-9.34159e-08
-2.0672e-06
-4.15633e-05
2.2697e-07
-5.08558e-08
1.26525e-06
-9.98145e-08
1.24742e-06
-1.45991e-07
1.23391e-06
-1.88593e-07
1.22413e-06
-2.26925e-07
1.21749e-06
-2.60398e-07
1.21337e-06
-2.88548e-07
1.21117e-06
-3.11064e-07
1.21027e-06
-3.27812e-07
1.21007e-06
-3.38861e-07
1.21e-06
-3.44498e-07
1.20956e-06
-3.45225e-07
1.20831e-06
-3.41738e-07
1.20589e-06
-3.34879e-07
1.20209e-06
-3.25571e-07
1.19678e-06
-3.14742e-07
1.18996e-06
-3.03247e-07
1.18173e-06
-2.91812e-07
1.17226e-06
-2.80998e-07
1.16178e-06
-2.71201e-07
1.15055e-06
-2.62677e-07
1.1388e-06
-2.55585e-07
1.12678e-06
-2.50035e-07
1.11469e-06
-2.46145e-07
1.10273e-06
-2.44083e-07
1.09108e-06
-2.44097e-07
1.07992e-06
-2.46543e-07
1.06945e-06
-2.51894e-07
1.05991e-06
-2.6074e-07
1.05162e-06
-2.73779e-07
1.04494e-06
-2.91809e-07
1.04039e-06
-3.15697e-07
1.03859e-06
-3.46315e-07
1.04035e-06
-3.84415e-07
1.0467e-06
-4.30336e-07
1.05893e-06
-4.83412e-07
1.07861e-06
-5.40803e-07
1.10761e-06
-5.94617e-07
1.14714e-06
-1.05253e-07
-2.55656e-06
-4.18735e-05
2.05022e-07
-4.12983e-08
1.30655e-06
-8.10376e-08
1.28716e-06
-1.18493e-07
1.27136e-06
-1.53032e-07
1.25867e-06
-1.84124e-07
1.24858e-06
-2.11342e-07
1.24059e-06
-2.34378e-07
1.23421e-06
-2.53052e-07
1.22894e-06
-2.67323e-07
1.22434e-06
-2.77296e-07
1.21998e-06
-2.83216e-07
1.21548e-06
-2.85461e-07
1.21055e-06
-2.84515e-07
1.20495e-06
-2.80939e-07
1.19851e-06
-2.75328e-07
1.19117e-06
-2.68271e-07
1.1829e-06
-2.60316e-07
1.17377e-06
-2.51933e-07
1.16388e-06
-2.43509e-07
1.15336e-06
-2.35334e-07
1.14237e-06
-2.2762e-07
1.13109e-06
-2.20507e-07
1.11967e-06
-2.14092e-07
1.10828e-06
-2.08435e-07
1.09708e-06
-2.03577e-07
1.08622e-06
-1.99543e-07
1.07588e-06
-1.96327e-07
1.06623e-06
-1.93879e-07
1.05746e-06
-1.9206e-07
1.0498e-06
-1.90593e-07
1.04348e-06
-1.88977e-07
1.03877e-06
-1.86377e-07
1.03599e-06
-1.81456e-07
1.03543e-06
-1.72157e-07
1.03741e-06
-1.55397e-07
1.04217e-06
-1.26663e-07
1.04987e-06
-7.95251e-08
1.06047e-06
-4.65165e-09
1.07227e-06
-1.22045e-07
-2.43917e-06
-4.21488e-05
1.53192e-07
-3.35215e-08
1.34007e-06
-6.57768e-08
1.31942e-06
-9.6182e-08
1.30177e-06
-1.24238e-07
1.28672e-06
-1.49536e-07
1.27388e-06
-1.7176e-07
1.26282e-06
-1.90695e-07
1.25314e-06
-2.06229e-07
1.24448e-06
-2.18355e-07
1.23647e-06
-2.27165e-07
1.22879e-06
-2.32848e-07
1.22117e-06
-2.35675e-07
1.21338e-06
-2.35978e-07
1.20525e-06
-2.34131e-07
1.19667e-06
-2.30524e-07
1.18756e-06
-2.25538e-07
1.17792e-06
-2.19528e-07
1.16776e-06
-2.128e-07
1.15715e-06
-2.05607e-07
1.14616e-06
-1.98138e-07
1.1349e-06
-1.90527e-07
1.12348e-06
-1.82849e-07
1.11199e-06
-1.75126e-07
1.10055e-06
-1.67327e-07
1.08928e-06
-1.59367e-07
1.07826e-06
-1.51094e-07
1.06761e-06
-1.42278e-07
1.05742e-06
-1.32581e-07
1.04777e-06
-1.21528e-07
1.03874e-06
-1.08454e-07
1.0304e-06
-9.24536e-08
1.02277e-06
-7.23105e-08
1.01584e-06
-4.64158e-08
1.00954e-06
-1.26826e-08
1.00367e-06
3.15412e-08
9.97946e-07
8.95425e-08
9.91873e-07
1.65271e-07
9.84743e-07
2.63293e-07
9.74243e-07
-7.44148e-08
-2.10146e-06
-4.23069e-05
8.36718e-08
-2.71917e-08
1.36726e-06
-5.33613e-08
1.34559e-06
-7.80419e-08
1.32645e-06
-1.00839e-07
1.30952e-06
-1.21435e-07
1.29447e-06
-1.3959e-07
1.28097e-06
-1.55145e-07
1.2687e-06
-1.6802e-07
1.25735e-06
-1.78214e-07
1.24666e-06
-1.85798e-07
1.23637e-06
-1.90906e-07
1.22627e-06
-1.93724e-07
1.2162e-06
-1.94478e-07
1.206e-06
-1.93417e-07
1.19561e-06
-1.90798e-07
1.18494e-06
-1.86868e-07
1.17399e-06
-1.81856e-07
1.16275e-06
-1.75959e-07
1.15125e-06
-1.69334e-07
1.13954e-06
-1.62095e-07
1.12766e-06
-1.54312e-07
1.11569e-06
-1.46007e-07
1.10368e-06
-1.37153e-07
1.0917e-06
-1.27671e-07
1.0798e-06
-1.1743e-07
1.06802e-06
-1.06234e-07
1.05642e-06
-9.38166e-08
1.045e-06
-7.98305e-08
1.03378e-06
-6.38315e-08
1.02274e-06
-4.52664e-08
1.01184e-06
-2.34611e-08
1.00097e-06
2.38793e-09
9.89996e-07
3.32131e-08
9.78711e-07
7.00634e-08
9.66822e-07
1.14074e-07
9.53936e-07
1.66409e-07
9.39537e-07
2.28184e-07
9.22967e-07
3.00359e-07
9.02068e-07
1.0338e-08
-1.81144e-06
-4.22889e-05
-7.66387e-09
-2.20252e-08
1.38928e-06
-4.32272e-08
1.36679e-06
-6.3233e-08
1.34645e-06
-8.17295e-08
1.32802e-06
-9.84656e-08
1.31121e-06
-1.13254e-07
1.29576e-06
-1.25971e-07
1.28142e-06
-1.36552e-07
1.26794e-06
-1.44994e-07
1.2551e-06
-1.51341e-07
1.24272e-06
-1.55685e-07
1.23062e-06
-1.58151e-07
1.21866e-06
-1.5889e-07
1.20674e-06
-1.58067e-07
1.19478e-06
-1.5585e-07
1.18272e-06
-1.52402e-07
1.17054e-06
-1.47869e-07
1.15821e-06
-1.42377e-07
1.14576e-06
-1.36025e-07
1.13318e-06
-1.28879e-07
1.12052e-06
-1.20973e-07
1.10779e-06
-1.12307e-07
1.09502e-06
-1.02845e-07
1.08224e-06
-9.25123e-08
1.06946e-06
-8.11998e-08
1.05671e-06
-6.87592e-08
1.04397e-06
-5.50048e-08
1.03125e-06
-3.97152e-08
1.01849e-06
-2.26382e-08
1.00567e-06
-3.49919e-09
9.92697e-07
1.79828e-08
9.79486e-07
4.20695e-08
9.65909e-07
6.89648e-08
9.51816e-07
9.87562e-08
9.37031e-07
1.31333e-07
9.21359e-07
1.66266e-07
9.04604e-07
2.02648e-07
8.86585e-07
2.38892e-07
8.65825e-07
6.85779e-09
-1.57941e-06
-4.22649e-05
-1.70841e-08
-1.77908e-08
1.40708e-06
-3.49188e-08
1.38392e-06
-5.10848e-08
1.36262e-06
-6.6038e-08
1.34297e-06
-7.95774e-08
1.32475e-06
-9.15527e-08
1.30773e-06
-1.01862e-07
1.29173e-06
-1.10452e-07
1.27653e-06
-1.1731e-07
1.26196e-06
-1.22463e-07
1.24787e-06
-1.25969e-07
1.23412e-06
-1.27909e-07
1.2206e-06
-1.28384e-07
1.20722e-06
-1.27504e-07
1.1939e-06
-1.25378e-07
1.1806e-06
-1.22115e-07
1.16728e-06
-1.17811e-07
1.15391e-06
-1.12549e-07
1.1405e-06
-1.06394e-07
1.12703e-06
-9.93889e-08
1.11351e-06
-9.15564e-08
1.09995e-06
-8.28969e-08
1.08636e-06
-7.3389e-08
1.07273e-06
-6.2991e-08
1.05907e-06
-5.16428e-08
1.04536e-06
-3.92695e-08
1.0316e-06
-2.57858e-08
1.01776e-06
-1.11028e-08
1.00381e-06
4.86261e-09
9.89702e-07
2.21753e-08
9.75385e-07
4.08657e-08
9.60795e-07
6.09097e-08
9.45865e-07
8.2204e-08
9.30522e-07
1.04539e-07
9.14696e-07
1.27568e-07
8.9833e-07
1.50786e-07
8.81386e-07
1.73512e-07
8.63859e-07
1.94954e-07
8.44383e-07
5.26719e-09
-1.38972e-06
-4.22373e-05
-2.23931e-08
-1.43048e-08
1.42138e-06
-2.80756e-08
1.39769e-06
-4.10708e-08
1.37562e-06
-5.30875e-08
1.35499e-06
-6.39626e-08
1.33562e-06
-7.35726e-08
1.31734e-06
-8.18324e-08
1.29999e-06
-8.86928e-08
1.28339e-06
-9.41371e-08
1.2674e-06
-9.81767e-08
1.25191e-06
-1.00847e-07
1.23679e-06
-1.022e-07
1.22196e-06
-1.02302e-07
1.20732e-06
-1.01225e-07
1.19283e-06
-9.90458e-08
1.17842e-06
-9.58364e-08
1.16407e-06
-9.16642e-08
1.14974e-06
-8.65876e-08
1.13542e-06
-8.06543e-08
1.1211e-06
-7.38999e-08
1.10676e-06
-6.63477e-08
1.0924e-06
-5.8009e-08
1.07802e-06
-4.88849e-08
1.06361e-06
-3.89676e-08
1.04915e-06
-2.8244e-08
1.03464e-06
-1.66992e-08
1.02006e-06
-4.32152e-09
1.00538e-06
8.89154e-09
9.90597e-07
2.29264e-08
9.75667e-07
3.77455e-08
9.60566e-07
5.32783e-08
9.45263e-07
6.9413e-08
9.2973e-07
8.59885e-08
9.13946e-07
1.02788e-07
8.97896e-07
1.1954e-07
8.81578e-07
1.35919e-07
8.65007e-07
1.51563e-07
8.48215e-07
1.66149e-07
8.29797e-07
4.64861e-09
-1.22822e-06
-4.2207e-05
-2.56289e-08
-1.1423e-08
1.4328e-06
-2.24154e-08
1.40868e-06
-3.27807e-08
1.38598e-06
-4.23531e-08
1.36456e-06
-5.09984e-08
1.34427e-06
-5.86138e-08
1.32496e-06
-6.51266e-08
1.3065e-06
-7.04916e-08
1.28875e-06
-7.4689e-08
1.2716e-06
-7.77202e-08
1.25494e-06
-7.9605e-08
1.23868e-06
-8.03767e-08
1.22273e-06
-8.0079e-08
1.20702e-06
-7.87617e-08
1.19151e-06
-7.64775e-08
1.17614e-06
-7.3279e-08
1.16087e-06
-6.9216e-08
1.14568e-06
-6.43343e-08
1.13054e-06
-5.8674e-08
1.11544e-06
-5.22692e-08
1.10035e-06
-4.51482e-08
1.08528e-06
-3.73342e-08
1.07021e-06
-2.88467e-08
1.05512e-06
-1.97034e-08
1.04001e-06
-9.92264e-09
1.02486e-06
4.73745e-10
1.00966e-06
1.1457e-08
9.94401e-07
2.2988e-08
9.79066e-07
3.50135e-08
9.63642e-07
4.74625e-08
9.48117e-07
6.02436e-08
9.32481e-07
7.32426e-08
9.16731e-07
8.63221e-08
9.00867e-07
9.93234e-08
8.84895e-07
1.1207e-07
8.68832e-07
1.24375e-07
8.52702e-07
1.36051e-07
8.36539e-07
1.46981e-07
8.18868e-07
4.63183e-09
-1.08587e-06
-4.21747e-05
-2.76206e-08
-9.03217e-09
1.44184e-06
-1.77174e-08
1.41736e-06
-2.58942e-08
1.39416e-06
-3.34258e-08
1.37209e-06
-4.0201e-08
1.35104e-06
-4.61331e-08
1.33089e-06
-5.11593e-08
1.31152e-06
-5.52385e-08
1.29283e-06
-5.83494e-08
1.27471e-06
-6.04877e-08
1.25708e-06
-6.16633e-08
1.23985e-06
-6.18972e-08
1.22296e-06
-6.12192e-08
1.20635e-06
-5.96647e-08
1.18995e-06
-5.72724e-08
1.17374e-06
-5.40827e-08
1.15768e-06
-5.01357e-08
1.14173e-06
-4.54699e-08
1.12587e-06
-4.01223e-08
1.11009e-06
-3.41273e-08
1.09436e-06
-2.75176e-08
1.07867e-06
-2.03244e-08
1.06301e-06
-1.25789e-08
1.04737e-06
-4.31324e-09
1.03174e-06
4.43801e-09
1.01611e-06
1.36358e-08
1.00046e-06
2.32351e-08
9.84802e-07
3.31833e-08
9.69118e-07
4.34184e-08
9.53406e-07
5.38689e-08
9.37666e-07
6.44522e-08
9.21898e-07
7.50763e-08
9.06107e-07
8.56401e-08
8.90303e-07
9.60366e-08
8.74498e-07
1.06156e-07
8.58713e-07
1.15889e-07
8.42968e-07
1.25135e-07
8.27293e-07
1.33864e-07
8.10139e-07
5.04109e-09
-9.57049e-07
-4.21409e-05
-2.87901e-08
-7.0437e-09
1.44888e-06
-1.38082e-08
1.42413e-06
-2.01599e-08
1.40051e-06
-2.59851e-08
1.37792e-06
-3.11905e-08
1.35625e-06
-3.57028e-08
1.3354e-06
-3.94676e-08
1.31529e-06
-4.24479e-08
1.29581e-06
-4.46224e-08
1.27689e-06
-4.59837e-08
1.25844e-06
-4.65359e-08
1.2404e-06
-4.62926e-08
1.22272e-06
-4.52748e-08
1.20533e-06
-4.35089e-08
1.18819e-06
-4.10252e-08
1.17126e-06
-3.78565e-08
1.15451e-06
-3.40367e-08
1.13791e-06
-2.96004e-08
1.12144e-06
-2.45823e-08
1.10507e-06
-1.90168e-08
1.08879e-06
-1.29386e-08
1.07259e-06
-6.38285e-09
1.05646e-06
6.14337e-10
1.04038e-06
8.01509e-09
1.02434e-06
1.5779e-08
1.00834e-06
2.38625e-08
9.92379e-07
3.22179e-08
9.76446e-07
4.07931e-08
9.60542e-07
4.95314e-08
9.44668e-07
5.83714e-08
9.28826e-07
6.72477e-08
9.13022e-07
7.60917e-08
8.97263e-07
8.48331e-08
8.81561e-07
9.34016e-08
8.6593e-07
1.01729e-07
8.50385e-07
1.09753e-07
8.34945e-07
1.17416e-07
8.1963e-07
1.24748e-07
8.02807e-07
5.74251e-09
-8.38043e-07
-4.21058e-05
-2.93801e-08
-5.38741e-09
1.45427e-06
-1.05509e-08
1.42929e-06
-1.5379e-08
1.40534e-06
-1.97766e-08
1.38231e-06
-2.3665e-08
1.36014e-06
-2.69818e-08
1.33872e-06
-2.96799e-08
1.31799e-06
-3.17264e-08
1.29786e-06
-3.31011e-08
1.27826e-06
-3.37954e-08
1.25914e-06
-3.38101e-08
1.24042e-06
-3.31543e-08
1.22206e-06
-3.18437e-08
1.20402e-06
-2.98992e-08
1.18624e-06
-2.73456e-08
1.16871e-06
-2.42107e-08
1.15137e-06
-2.05243e-08
1.13422e-06
-1.63179e-08
1.11723e-06
-1.16241e-08
1.10038e-06
-6.47635e-09
1.08365e-06
-9.09051e-10
1.06703e-06
5.04232e-09
1.05051e-06
1.13411e-08
1.03408e-06
1.79491e-08
1.01773e-06
2.48264e-08
1.00146e-06
3.19312e-08
9.85274e-07
3.92197e-08
9.69158e-07
4.66461e-08
9.53116e-07
5.41629e-08
9.37151e-07
6.17212e-08
9.21268e-07
6.92715e-08
9.05471e-07
7.67644e-08
8.8977e-07
8.41519e-08
8.74174e-07
9.13884e-08
8.58693e-07
9.84317e-08
8.43341e-07
1.05245e-07
8.28131e-07
1.11798e-07
8.13077e-07
1.18125e-07
7.96479e-07
6.61069e-09
-7.26529e-07
-4.20696e-05
-2.95266e-08
-4.00739e-09
1.45827e-06
-7.83617e-09
1.43312e-06
-1.13926e-08
1.40889e-06
-1.45967e-08
1.38552e-06
-1.73817e-08
1.36292e-06
-1.96943e-08
1.34103e-06
-2.14938e-08
1.31979e-06
-2.27511e-08
1.29911e-06
-2.34479e-08
1.27896e-06
-2.35752e-08
1.25926e-06
-2.31325e-08
1.23998e-06
-2.21261e-08
1.22106e-06
-2.05686e-08
1.20246e-06
-1.8477e-08
1.18415e-06
-1.58725e-08
1.1661e-06
-1.27795e-08
1.14828e-06
-9.22456e-09
1.13067e-06
-5.23648e-09
1.11324e-06
-8.45464e-10
1.09598e-06
3.91695e-09
1.07888e-06
9.01807e-09
1.06192e-06
1.44242e-08
1.0451e-06
2.01006e-08
1.0284e-06
2.60117e-08
1.01182e-06
3.2121e-08
9.95356e-07
3.83911e-08
9.79004e-07
4.47842e-08
9.62765e-07
5.12621e-08
9.46638e-07
5.77864e-08
9.30627e-07
6.43195e-08
9.14735e-07
7.08243e-08
8.98967e-07
7.72658e-08
8.83329e-07
8.36108e-08
8.67829e-07
8.98292e-08
8.52475e-07
9.58941e-08
8.37277e-07
1.01783e-07
8.22243e-07
1.07476e-07
8.07383e-07
1.13036e-07
7.9092e-07
7.52499e-09
-6.21018e-07
-4.20328e-05
-2.931e-08
-2.85874e-09
1.46113e-06
-5.57606e-09
1.43584e-06
-8.07274e-09
1.41139e-06
-1.02808e-08
1.38773e-06
-1.21436e-08
1.36478e-06
-1.36153e-08
1.34251e-06
-1.46609e-08
1.32083e-06
-1.52548e-08
1.29971e-06
-1.53805e-08
1.27908e-06
-1.50298e-08
1.25891e-06
-1.42012e-08
1.23915e-06
-1.28997e-08
1.21975e-06
-1.11357e-08
1.2007e-06
-8.92372e-09
1.18194e-06
-6.28237e-09
1.16346e-06
-3.23319e-09
1.14523e-06
1.99754e-10
1.12724e-06
3.99031e-09
1.10945e-06
8.1107e-09
1.09186e-06
1.25318e-08
1.07446e-06
1.72234e-08
1.05723e-06
2.21544e-08
1.04017e-06
2.72933e-08
1.02326e-06
3.26079e-08
1.00651e-06
3.80659e-08
9.89897e-07
4.36352e-08
9.73435e-07
4.92836e-08
9.57116e-07
5.49799e-08
9.40942e-07
6.06936e-08
9.24913e-07
6.63957e-08
9.09033e-07
7.20588e-08
8.93304e-07
7.76576e-08
8.7773e-07
8.31692e-08
8.62317e-07
8.85738e-08
8.47071e-07
9.38545e-08
8.31996e-07
9.89982e-08
8.17099e-07
1.03996e-07
8.02386e-07
1.08903e-07
7.86013e-07
8.39152e-09
-5.20507e-07
-4.19956e-05
-2.87837e-08
-1.90513e-09
1.46304e-06
-3.69942e-09
1.43763e-06
-5.31539e-09
1.41301e-06
-6.69507e-09
1.38911e-06
-7.78989e-09
1.36588e-06
-8.56055e-09
1.34328e-06
-8.97654e-09
1.32125e-06
-9.01565e-09
1.29975e-06
-8.66327e-09
1.27873e-06
-7.91175e-09
1.25816e-06
-6.75962e-09
1.238e-06
-5.2109e-09
1.21821e-06
-3.27437e-09
1.19876e-06
-9.62938e-10
1.17963e-06
1.707e-09
1.16079e-06
4.7161e-09
1.14222e-06
8.04258e-09
1.12391e-06
1.16626e-08
1.10583e-06
1.55508e-08
1.08798e-06
1.96805e-08
1.07033e-06
2.40241e-08
1.05289e-06
2.85532e-08
1.03564e-06
3.32395e-08
1.01857e-06
3.80541e-08
1.00169e-06
4.29687e-08
9.84983e-07
4.79556e-08
9.68448e-07
5.29875e-08
9.52084e-07
5.80388e-08
9.35891e-07
6.30849e-08
9.19867e-07
6.81032e-08
9.04014e-07
7.30728e-08
8.88334e-07
7.79753e-08
8.72828e-07
8.27944e-08
8.57498e-07
8.75165e-08
8.42348e-07
9.21305e-08
8.27382e-07
9.66278e-08
8.12602e-07
1.01002e-07
7.98012e-07
1.05322e-07
7.81693e-07
9.17102e-09
-4.24356e-07
-4.19585e-05
-2.79815e-08
-1.11706e-09
1.46415e-06
-2.14836e-09
1.43866e-06
-3.03601e-09
1.41389e-06
-3.73018e-09
1.3898e-06
-4.18899e-09
1.36634e-06
-4.37842e-09
1.34347e-06
-4.27193e-09
1.32114e-06
-3.85003e-09
1.29933e-06
-3.0998e-09
1.27798e-06
-2.01433e-09
1.25707e-06
-5.92109e-10
1.23657e-06
1.16349e-09
1.21645e-06
3.24482e-09
1.19668e-06
5.64047e-09
1.17723e-06
8.33578e-09
1.15809e-06
1.13133e-08
1.13925e-06
1.45533e-08
1.12067e-06
1.8034e-08
1.10235e-06
2.1732e-08
1.08428e-06
2.56231e-08
1.06644e-06
2.96817e-08
1.04883e-06
3.3882e-08
1.03144e-06
3.81979e-08
1.01426e-06
4.26036e-08
9.97285e-07
4.70735e-08
9.80513e-07
5.15832e-08
9.63938e-07
5.6109e-08
9.47558e-07
6.06289e-08
9.31371e-07
6.51227e-08
9.15373e-07
6.95718e-08
8.99565e-07
7.396e-08
8.83946e-07
7.82735e-08
8.68514e-07
8.25006e-08
8.53271e-07
8.6632e-08
8.38217e-07
9.06609e-08
8.23353e-07
9.45828e-08
8.0868e-07
9.83951e-08
7.942e-07
1.02138e-07
7.7795e-07
9.87749e-09
-3.32096e-07
-4.19217e-05
-2.69379e-08
-4.70512e-10
1.46463e-06
-8.75764e-10
1.43907e-06
-1.16566e-09
1.41418e-06
-1.29696e-09
1.38993e-06
-1.23327e-09
1.36627e-06
-9.44867e-10
1.34318e-06
-4.08437e-10
1.32061e-06
3.93258e-10
1.29852e-06
1.47179e-09
1.2769e-06
2.83351e-09
1.25571e-06
4.47998e-09
1.23493e-06
6.40846e-09
1.21452e-06
8.61233e-09
1.19447e-06
1.10815e-08
1.17476e-06
1.3803e-08
1.15537e-06
1.6761e-08
1.13629e-06
1.99376e-08
1.11749e-06
2.33128e-08
1.09898e-06
2.68652e-08
1.08073e-06
3.0572e-08
1.06273e-06
3.44096e-08
1.04499e-06
3.83539e-08
1.02749e-06
4.23803e-08
1.01023e-06
4.64646e-08
9.93201e-07
5.0583e-08
9.76394e-07
5.47127e-08
9.59809e-07
5.88318e-08
9.43439e-07
6.29203e-08
9.27282e-07
6.69601e-08
9.11334e-07
7.09351e-08
8.9559e-07
7.48318e-08
8.80049e-07
7.86389e-08
8.64707e-07
8.2348e-08
8.49562e-07
8.59531e-08
8.34612e-07
8.94504e-08
8.19856e-07
9.28383e-08
8.05292e-07
9.6117e-08
7.90921e-07
9.93084e-08
7.74759e-07
1.05653e-08
-2.43353e-07
-4.18854e-05
-2.56871e-08
5.40052e-11
1.46457e-06
1.56651e-10
1.43897e-06
3.51727e-10
1.41399e-06
6.77115e-10
1.38961e-06
1.16482e-09
1.36579e-06
1.84112e-09
1.3425e-06
2.72677e-09
1.31972e-06
3.83728e-09
1.29741e-06
5.18326e-09
1.27556e-06
6.77075e-09
1.25413e-06
8.60159e-09
1.2331e-06
1.06738e-08
1.21245e-06
1.29818e-08
1.19217e-06
1.5517e-08
1.17223e-06
1.8268e-08
1.15262e-06
2.12207e-08
1.13333e-06
2.43588e-08
1.11435e-06
2.76641e-08
1.09567e-06
3.11168e-08
1.07727e-06
3.46956e-08
1.05916e-06
3.83779e-08
1.04131e-06
4.21405e-08
1.02373e-06
4.59595e-08
1.00641e-06
4.98112e-08
9.89349e-07
5.36716e-08
9.72534e-07
5.75179e-08
9.55962e-07
6.1328e-08
9.39629e-07
6.50817e-08
9.23528e-07
6.87605e-08
9.07655e-07
7.23487e-08
8.92002e-07
7.58331e-08
8.76565e-07
7.92039e-08
8.61336e-07
8.24542e-08
8.46312e-07
8.55805e-08
8.31486e-07
8.85825e-08
8.16854e-07
9.14626e-08
8.02412e-07
9.42253e-08
7.88158e-07
9.68498e-08
7.72135e-07
1.13057e-08
-1.57809e-07
-4.18498e-05
-2.42679e-08
4.72303e-10
1.4641e-06
9.79914e-10
1.43846e-06
1.56153e-09
1.41341e-06
2.25074e-09
1.38892e-06
3.07605e-09
1.36496e-06
4.06103e-09
1.34152e-06
5.22448e-09
1.31856e-06
6.58072e-09
1.29606e-06
8.1398e-09
1.274e-06
9.90777e-09
1.25236e-06
1.18871e-08
1.23112e-06
1.40766e-08
1.21026e-06
1.64724e-08
1.18977e-06
1.90672e-08
1.16963e-06
2.18516e-08
1.14984e-06
2.48134e-08
1.13037e-06
2.79382e-08
1.11123e-06
3.12098e-08
1.0924e-06
3.46097e-08
1.07387e-06
3.8118e-08
1.05565e-06
4.17132e-08
1.03772e-06
4.53724e-08
1.02007e-06
4.90714e-08
1.00271e-06
5.27856e-08
9.85635e-07
5.64897e-08
9.6883e-07
6.01584e-08
9.52294e-07
6.37668e-08
9.36021e-07
6.72916e-08
9.20004e-07
7.07109e-08
9.04235e-07
7.40057e-08
8.88707e-07
7.71601e-08
8.7341e-07
8.01625e-08
8.58334e-07
8.30057e-08
8.43468e-07
8.56874e-08
8.28804e-07
8.82103e-08
8.14331e-07
9.05814e-08
8.00041e-07
9.28115e-08
7.85928e-07
9.48486e-08
7.70097e-07
1.21723e-08
-7.51325e-08
-4.18149e-05
-2.27193e-08
7.97158e-10
1.4633e-06
1.61908e-09
1.43764e-06
2.50035e-09
1.41253e-06
3.47112e-09
1.38795e-06
4.55714e-09
1.36388e-06
5.77989e-09
1.34029e-06
7.15679e-09
1.31718e-06
8.70137e-09
1.29451e-06
1.04235e-08
1.27228e-06
1.23297e-08
1.25045e-06
1.44233e-08
1.22902e-06
1.67045e-08
1.20798e-06
1.9171e-08
1.1873e-06
2.18178e-08
1.16699e-06
2.46375e-08
1.14702e-06
2.76204e-08
1.12739e-06
3.07546e-08
1.10809e-06
3.40262e-08
1.08913e-06
3.74191e-08
1.07048e-06
4.09149e-08
1.05215e-06
4.44935e-08
1.03414e-06
4.81325e-08
1.01643e-06
5.18074e-08
9.9904e-07
5.54919e-08
9.81951e-07
5.91578e-08
9.65164e-07
6.27755e-08
9.48676e-07
6.63145e-08
9.32482e-07
6.9744e-08
9.16574e-07
7.3034e-08
9.00945e-07
7.61566e-08
8.85585e-07
7.90872e-08
8.7048e-07
8.18063e-08
8.55615e-07
8.43012e-08
8.40974e-07
8.6567e-08
8.26538e-07
8.8608e-08
8.1229e-07
9.04373e-08
7.98212e-07
9.20763e-08
7.84289e-07
9.34501e-08
7.68724e-07
1.32265e-08
5.09101e-09
-4.17806e-05
-2.10752e-08
1.0389e-09
1.46226e-06
2.09437e-09
1.43658e-06
3.19766e-09
1.41142e-06
4.37614e-09
1.38677e-06
5.65337e-09
1.3626e-06
7.04926e-09
1.3389e-06
8.58025e-09
1.31565e-06
1.02595e-08
1.29283e-06
1.2097e-08
1.27044e-06
1.41001e-08
1.24845e-06
1.62732e-08
1.22685e-06
1.86184e-08
1.20563e-06
2.11355e-08
1.18479e-06
2.38219e-08
1.1643e-06
2.66732e-08
1.14417e-06
2.9683e-08
1.12438e-06
3.28426e-08
1.10494e-06
3.61416e-08
1.08583e-06
3.95672e-08
1.06705e-06
4.31045e-08
1.04861e-06
4.67357e-08
1.03051e-06
5.04406e-08
1.01273e-06
5.41956e-08
9.95285e-07
5.79735e-08
9.78173e-07
6.17435e-08
9.61394e-07
6.54708e-08
9.44949e-07
6.91165e-08
9.28836e-07
7.26385e-08
9.13052e-07
7.59917e-08
8.97592e-07
7.91301e-08
8.82446e-07
8.20088e-08
8.67601e-07
8.45872e-08
8.53036e-07
8.68331e-08
8.38728e-07
8.87269e-08
8.24644e-07
9.02661e-08
8.10751e-07
9.14682e-08
7.9701e-07
9.23718e-08
7.83385e-07
9.28892e-08
7.68206e-07
1.45049e-08
8.34754e-08
-4.17468e-05
-1.9353e-08
1.20596e-09
1.46106e-06
2.42226e-09
1.43537e-06
3.67738e-09
1.41017e-06
4.99637e-09
1.38545e-06
6.40104e-09
1.36119e-06
7.91007e-09
1.33739e-06
9.5392e-09
1.31402e-06
1.13015e-08
1.29107e-06
1.32073e-08
1.26853e-06
1.52649e-08
1.24639e-06
1.74802e-08
1.22464e-06
1.98574e-08
1.20326e-06
2.23986e-08
1.18224e-06
2.51044e-08
1.16159e-06
2.7974e-08
1.1413e-06
3.10049e-08
1.12135e-06
3.4193e-08
1.10175e-06
3.75328e-08
1.08249e-06
4.1017e-08
1.06357e-06
4.4636e-08
1.045e-06
4.83779e-08
1.02676e-06
5.22278e-08
1.00888e-06
5.61666e-08
9.91346e-07
6.01706e-08
9.74169e-07
6.42102e-08
9.57354e-07
6.82485e-08
9.4091e-07
7.22401e-08
9.24844e-07
7.61298e-08
9.09163e-07
7.98521e-08
8.9387e-07
8.33313e-08
8.78967e-07
8.64831e-08
8.64449e-07
8.92189e-08
8.50301e-07
9.14524e-08
8.36494e-07
9.31106e-08
8.22986e-07
9.41473e-08
8.09714e-07
9.45598e-08
7.96597e-07
9.44022e-08
7.83543e-07
9.36017e-08
7.69007e-07
1.6002e-08
1.61075e-07