/*--------------------------------*- C++ -*----------------------------------*\
  =========                 |
  \\      /  F ield         | OpenFOAM: The Open Source CFD Toolbox
   \\    /   O peration     | Website:  https://openfoam.org
    \\  /    A nd           | Version:  10
     \\/     M anipulation  |
\*---------------------------------------------------------------------------*/
FoamFile
{
    format      ascii;
    class       volVectorField;
    location    "16750";
    object      Ua;
}
// * * * * * * * * * * * * * * * * * * * * * * * * * * * * * * * * * * * * * //

dimensions      [0 1 -1 0 0 0 0];

internalField   nonuniform List<vector> 
3200
(
(-4.07428e-07 5.88392e-07 0)
(-1.22369e-06 6.01006e-07 0)
(-2.05136e-06 6.2676e-07 0)
(-2.90835e-06 6.67428e-07 0)
(-3.81494e-06 7.26323e-07 0)
(-4.79586e-06 8.08915e-07 0)
(-5.88345e-06 9.23994e-07 0)
(-7.12242e-06 1.08576e-06 0)
(-8.57778e-06 1.31767e-06 0)
(-1.03486e-05 1.65963e-06 0)
(-1.25927e-05 2.18184e-06 0)
(-1.55728e-05 3.01211e-06 0)
(-1.97446e-05 4.3908e-06 0)
(-2.59292e-05 6.78358e-06 0)
(-3.5659e-05 1.1116e-05 0)
(-5.18795e-05 1.92671e-05 0)
(-3.86336e-05 2.64952e-05 0)
(-9.01999e-06 3.85961e-05 0)
(-2.11888e-06 1.00593e-05 0)
(-1.08837e-06 5.50595e-06 0)
(-6.72212e-07 3.60958e-06 0)
(-4.55701e-07 2.58434e-06 0)
(-3.27999e-07 1.95554e-06 0)
(-2.46478e-07 1.5387e-06 0)
(-1.91437e-07 1.24709e-06 0)
(-1.52654e-07 1.03463e-06 0)
(-1.24386e-07 8.74834e-07 0)
(-1.03203e-07 7.515e-07 0)
(-8.69541e-08 6.54229e-07 0)
(-7.42363e-08 5.76076e-07 0)
(-6.41171e-08 5.12241e-07 0)
(-5.55509e-08 4.56127e-07 0)
(-4.75234e-08 4.05395e-07 0)
(-4.04061e-08 3.64603e-07 0)
(-3.45775e-08 3.30912e-07 0)
(-2.94084e-08 3.01927e-07 0)
(-2.43598e-08 2.75807e-07 0)
(-1.89497e-08 2.51302e-07 0)
(-1.26022e-08 2.27337e-07 0)
(-4.76282e-09 2.00505e-07 0)
(-3.89049e-07 1.73864e-06 0)
(-1.16711e-06 1.77389e-06 0)
(-1.95176e-06 1.84556e-06 0)
(-2.75645e-06 1.95794e-06 0)
(-3.59522e-06 2.11897e-06 0)
(-4.4834e-06 2.34144e-06 0)
(-5.43798e-06 2.64511e-06 0)
(-6.47755e-06 3.0603e-06 0)
(-7.62076e-06 3.63386e-06 0)
(-8.88138e-06 4.43915e-06 0)
(-1.02549e-05 5.59305e-06 0)
(-1.16854e-05 7.28477e-06 0)
(-1.29871e-05 9.8252e-06 0)
(-1.3661e-05 1.37311e-05 0)
(-1.24747e-05 1.98679e-05 0)
(-6.5061e-06 2.96877e-05 0)
(6.39685e-06 3.67607e-05 0)
(1.29309e-05 1.12706e-05 0)
(9.42638e-06 6.77374e-06 0)
(6.18199e-06 5.13891e-06 0)
(3.5973e-06 4.20388e-06 0)
(1.38946e-06 3.65832e-06 0)
(-6.49681e-07 3.37729e-06 0)
(-2.68246e-06 3.31256e-06 0)
(-4.86315e-06 3.46559e-06 0)
(-7.3726e-06 3.88476e-06 0)
(-1.0459e-05 4.67943e-06 0)
(-1.44978e-05 6.0538e-06 0)
(-2.00881e-05 8.37197e-06 0)
(-2.82182e-05 1.22762e-05 0)
(-3.77425e-05 1.86552e-05 0)
(-2.29954e-05 9.18564e-06 0)
(-2.62667e-06 1.17031e-06 0)
(-1.35362e-06 9.55962e-07 0)
(-8.64038e-07 8.26415e-07 0)
(-5.91031e-07 7.10887e-07 0)
(-4.12747e-07 5.99283e-07 0)
(-2.80052e-07 4.85715e-07 0)
(-1.64037e-07 3.63098e-07 0)
(-5.43172e-08 2.35072e-07 0)
(-3.56068e-07 2.81471e-06 0)
(-1.06602e-06 2.866e-06 0)
(-1.77539e-06 2.96954e-06 0)
(-2.49122e-06 3.12994e-06 0)
(-3.21945e-06 3.35571e-06 0)
(-3.96427e-06 3.66e-06 0)
(-4.72687e-06 4.06185e-06 0)
(-5.50303e-06 4.58776e-06 0)
(-6.27882e-06 5.2738e-06 0)
(-7.02315e-06 6.16752e-06 0)
(-7.67559e-06 7.32855e-06 0)
(-8.12796e-06 8.82446e-06 0)
(-8.20016e-06 1.07137e-05 0)
(-7.62003e-06 1.29974e-05 0)
(-6.04425e-06 1.5499e-05 0)
(-3.23428e-06 1.75842e-05 0)
(2.99902e-07 1.75355e-05 0)
(2.60236e-06 1.35777e-05 0)
(2.93932e-06 1.07243e-05 0)
(2.34718e-06 8.88379e-06 0)
(1.37014e-06 7.73111e-06 0)
(2.40221e-07 7.06893e-06 0)
(-9.45736e-07 6.79159e-06 0)
(-2.14315e-06 6.85764e-06 0)
(-3.31629e-06 7.27699e-06 0)
(-4.40557e-06 8.10964e-06 0)
(-5.28673e-06 9.47437e-06 0)
(-5.70259e-06 1.1568e-05 0)
(-5.1381e-06 1.46974e-05 0)
(-2.5873e-06 1.93282e-05 0)
(3.78128e-06 2.59112e-05 0)
(9.30523e-06 1.51838e-05 0)
(8.93721e-06 5.66765e-06 0)
(6.32596e-06 4.53707e-06 0)
(4.21691e-06 3.86042e-06 0)
(2.39253e-06 3.45175e-06 0)
(6.78738e-07 3.25139e-06 0)
(-1.04229e-06 3.2317e-06 0)
(-1.12008e-06 7.37761e-07 0)
(-9.8979e-08 1.96581e-07 0)
(-3.14322e-07 3.78286e-06 0)
(-9.38811e-07 3.8422e-06 0)
(-1.55603e-06 3.96097e-06 0)
(-2.16734e-06 4.14232e-06 0)
(-2.77225e-06 4.39231e-06 0)
(-3.36748e-06 4.71992e-06 0)
(-3.9456e-06 5.13703e-06 0)
(-4.49309e-06 5.65811e-06 0)
(-4.98769e-06 6.29923e-06 0)
(-5.39523e-06 7.07573e-06 0)
(-5.66634e-06 7.99725e-06 0)
(-5.73491e-06 9.05851e-06 0)
(-5.52175e-06 1.02235e-05 0)
(-4.95057e-06 1.14016e-05 0)
(-3.98614e-06 1.24185e-05 0)
(-2.70224e-06 1.30014e-05 0)
(-1.35894e-06 1.28397e-05 0)
(-3.56375e-07 1.1901e-05 0)
(1.09849e-07 1.08338e-05 0)
(1.35387e-07 9.91926e-06 0)
(-1.33391e-07 9.24421e-06 0)
(-5.74052e-07 8.82304e-06 0)
(-1.09429e-06 8.649e-06 0)
(-1.62064e-06 8.71343e-06 0)
(-2.08508e-06 9.01095e-06 0)
(-2.41326e-06 9.53683e-06 0)
(-2.51604e-06 1.02772e-05 0)
(-2.288e-06 1.1189e-05 0)
(-1.62252e-06 1.21614e-05 0)
(-4.65534e-07 1.29442e-05 0)
(1.04458e-06 1.30173e-05 0)
(2.27048e-06 1.13971e-05 0)
(2.67381e-06 9.43221e-06 0)
(2.4409e-06 8.08892e-06 0)
(1.91966e-06 7.19605e-06 0)
(1.29428e-06 6.64647e-06 0)
(6.76835e-07 6.38313e-06 0)
(1.55426e-07 6.36715e-06 0)
(-7.38564e-08 1.74684e-06 0)
(9.05868e-09 6.31338e-08 0)
(-2.6962e-07 4.62617e-06 0)
(-8.03423e-07 4.68652e-06 0)
(-1.32545e-06 4.80629e-06 0)
(-1.83326e-06 4.98653e-06 0)
(-2.32277e-06 5.22993e-06 0)
(-2.78756e-06 5.54038e-06 0)
(-3.21802e-06 5.92232e-06 0)
(-3.60052e-06 6.37973e-06 0)
(-3.91674e-06 6.91454e-06 0)
(-4.14338e-06 7.5241e-06 0)
(-4.25303e-06 8.19768e-06 0)
(-4.21707e-06 8.91175e-06 0)
(-4.0118e-06 9.62496e-06 0)
(-3.62871e-06 1.02745e-05 0)
(-3.08831e-06 1.07786e-05 0)
(-2.45271e-06 1.10517e-05 0)
(-1.8251e-06 1.10417e-05 0)
(-1.31862e-06 1.07832e-05 0)
(-9.98971e-07 1.04089e-05 0)
(-8.66229e-07 1.00314e-05 0)
(-8.84062e-07 9.72067e-06 0)
(-1.00365e-06 9.51319e-06 0)
(-1.17526e-06 9.42365e-06 0)
(-1.35195e-06 9.4529e-06 0)
(-1.49009e-06 9.59138e-06 0)
(-1.54953e-06 9.81893e-06 0)
(-1.49558e-06 1.0102e-05 0)
(-1.30441e-06 1.03892e-05 0)
(-9.72952e-07 1.06075e-05 0)
(-5.32946e-07 1.06644e-05 0)
(-6.36344e-08 1.04659e-05 0)
(3.14981e-07 9.97422e-06 0)
(5.13916e-07 9.34457e-06 0)
(5.3089e-07 8.73872e-06 0)
(4.12972e-07 8.22373e-06 0)
(2.125e-07 7.82202e-06 0)
(-2.75564e-08 7.53463e-06 0)
(-2.79143e-07 7.34974e-06 0)
(-2.28315e-07 2.77916e-06 0)
(9.45536e-09 1.08682e-08 0)
(-2.26389e-07 5.34249e-06 0)
(-6.73247e-07 5.39899e-06 0)
(-1.10629e-06 5.51023e-06 0)
(-1.52117e-06 5.67546e-06 0)
(-1.91254e-06 5.89453e-06 0)
(-2.27363e-06 6.16742e-06 0)
(-2.59596e-06 6.49353e-06 0)
(-2.8692e-06 6.87077e-06 0)
(-3.08143e-06 7.29446e-06 0)
(-3.21977e-06 7.75589e-06 0)
(-3.27194e-06 8.24088e-06 0)
(-3.22862e-06 8.72857e-06 0)
(-3.08685e-06 9.19109e-06 0)
(-2.85387e-06 9.59522e-06 0)
(-2.5504e-06 9.90705e-06 0)
(-2.21089e-06 1.01005e-05 0)
(-1.87864e-06 1.01679e-05 0)
(-1.59471e-06 1.01285e-05 0)
(-1.38523e-06 1.0023e-05 0)
(-1.25652e-06 9.89487e-06 0)
(-1.19926e-06 9.77837e-06 0)
(-1.19486e-06 9.69606e-06 0)
(-1.22075e-06 9.6592e-06 0)
(-1.25398e-06 9.66938e-06 0)
(-1.27352e-06 9.71987e-06 0)
(-1.26221e-06 9.79652e-06 0)
(-1.20872e-06 9.87852e-06 0)
(-1.10977e-06 9.93962e-06 0)
(-9.72127e-07 9.95082e-06 0)
(-8.13534e-07 9.88544e-06 0)
(-6.60618e-07 9.72725e-06 0)
(-5.41994e-07 9.48024e-06 0)
(-4.76723e-07 9.17357e-06 0)
(-4.66904e-07 8.84323e-06 0)
(-5.00281e-07 8.51718e-06 0)
(-5.56742e-07 8.21448e-06 0)
(-6.13805e-07 7.94875e-06 0)
(-6.50955e-07 7.73315e-06 0)
(-3.55099e-07 2.9575e-06 0)
(1.00025e-08 6.73645e-09 0)
(-1.87296e-07 5.93992e-06 0)
(-5.56117e-07 5.98995e-06 0)
(-9.11026e-07 6.08778e-06 0)
(-1.24714e-06 6.23151e-06 0)
(-1.5592e-06 6.41922e-06 0)
(-1.84137e-06 6.64863e-06 0)
(-2.08723e-06 6.91658e-06 0)
(-2.28993e-06 7.21854e-06 0)
(-2.44262e-06 7.54797e-06 0)
(-2.53915e-06 7.89585e-06 0)
(-2.57505e-06 8.25035e-06 0)
(-2.54891e-06 8.59695e-06 0)
(-2.46361e-06 8.91919e-06 0)
(-2.32749e-06 9.20042e-06 0)
(-2.15448e-06 9.42641e-06 0)
(-1.96301e-06 9.58861e-06 0)
(-1.77315e-06 9.68693e-06 0)
(-1.60277e-06 9.73054e-06 0)
(-1.46392e-06 9.73541e-06 0)
(-1.36132e-06 9.71944e-06 0)
(-1.2931e-06 9.69839e-06 0)
(-1.25276e-06 9.68362e-06 0)
(-1.23133e-06 9.6814e-06 0)
(-1.21932e-06 9.6929e-06 0)
(-1.2083e-06 9.71476e-06 0)
(-1.19213e-06 9.73983e-06 0)
(-1.16795e-06 9.75817e-06 0)
(-1.13672e-06 9.75831e-06 0)
(-1.10326e-06 9.72894e-06 0)
(-1.07554e-06 9.6608e-06 0)
(-1.06294e-06 9.54852e-06 0)
(-1.07358e-06 9.3916e-06 0)
(-1.11127e-06 9.19345e-06 0)
(-1.17312e-06 8.95805e-06 0)
(-1.24808e-06 8.68663e-06 0)
(-1.31577e-06 8.37598e-06 0)
(-1.34412e-06 8.01825e-06 0)
(-1.28515e-06 7.6018e-06 0)
(-6.35793e-07 2.41152e-06 0)
(1.14712e-08 6.06392e-09 0)
(-1.53496e-07 6.43208e-06 0)
(-4.55253e-07 6.47476e-06 0)
(-7.44202e-07 6.55777e-06 0)
(-1.01571e-06 6.67867e-06 0)
(-1.26519e-06 6.83475e-06 0)
(-1.48806e-06 7.02278e-06 0)
(-1.6798e-06 7.2388e-06 0)
(-1.83618e-06 7.47781e-06 0)
(-1.95355e-06 7.73366e-06 0)
(-2.02936e-06 7.99887e-06 0)
(-2.06263e-06 8.26482e-06 0)
(-2.05453e-06 8.5221e-06 0)
(-2.00881e-06 8.7612e-06 0)
(-1.93187e-06 8.97356e-06 0)
(-1.83245e-06 9.15276e-06 0)
(-1.72078e-06 9.2956e-06 0)
(-1.60718e-06 9.4028e-06 0)
(-1.50066e-06 9.47879e-06 0)
(-1.40765e-06 9.5306e-06 0)
(-1.33157e-06 9.56622e-06 0)
(-1.27296e-06 9.59302e-06 0)
(-1.23025e-06 9.61668e-06 0)
(-1.20068e-06 9.64067e-06 0)
(-1.18128e-06 9.66608e-06 0)
(-1.16962e-06 9.69189e-06 0)
(-1.16458e-06 9.71536e-06 0)
(-1.16673e-06 9.73258e-06 0)
(-1.17859e-06 9.73914e-06 0)
(-1.20458e-06 9.73071e-06 0)
(-1.25073e-06 9.70358e-06 0)
(-1.32419e-06 9.65476e-06 0)
(-1.43255e-06 9.58162e-06 0)
(-1.58333e-06 9.48072e-06 0)
(-1.78355e-06 9.34599e-06 0)
(-2.03944e-06 9.1661e-06 0)
(-2.35587e-06 8.92125e-06 0)
(-2.73484e-06 8.57859e-06 0)
(-3.17154e-06 8.08526e-06 0)
(-1.72095e-06 1.54329e-06 0)
(1.55819e-08 5.48601e-09 0)
(-1.25116e-07 6.83444e-06 0)
(-3.70821e-07 6.86998e-06 0)
(-6.05379e-07 6.93884e-06 0)
(-8.24755e-07 7.0385e-06 0)
(-1.02519e-06 7.1661e-06 0)
(-1.20324e-06 7.31828e-06 0)
(-1.35581e-06 7.49119e-06 0)
(-1.48035e-06 7.68032e-06 0)
(-1.57503e-06 7.88055e-06 0)
(-1.63899e-06 8.08621e-06 0)
(-1.67259e-06 8.29126e-06 0)
(-1.67755e-06 8.48968e-06 0)
(-1.65705e-06 8.67582e-06 0)
(-1.61557e-06 8.84501e-06 0)
(-1.55862e-06 8.99401e-06 0)
(-1.49218e-06 9.12139e-06 0)
(-1.42211e-06 9.22765e-06 0)
(-1.35353e-06 9.31498e-06 0)
(-1.29034e-06 9.38675e-06 0)
(-1.23513e-06 9.44685e-06 0)
(-1.18917e-06 9.49905e-06 0)
(-1.15281e-06 9.54648e-06 0)
(-1.12584e-06 9.59142e-06 0)
(-1.10798e-06 9.63522e-06 0)
(-1.09931e-06 9.67835e-06 0)
(-1.10062e-06 9.72072e-06 0)
(-1.11366e-06 9.76194e-06 0)
(-1.14139e-06 9.80163e-06 0)
(-1.18811e-06 9.83982e-06 0)
(-1.25966e-06 9.87713e-06 0)
(-1.36368e-06 9.91496e-06 0)
(-1.51027e-06 9.95552e-06 0)
(-1.713e-06 1.00017e-05 0)
(-1.99097e-06 1.00571e-05 0)
(-2.37209e-06 1.01257e-05 0)
(-2.89859e-06 1.02121e-05 0)
(-3.63609e-06 1.03219e-05 0)
(-4.68562e-06 1.0461e-05 0)
(-2.66669e-06 2.09484e-06 0)
(2.12585e-08 7.37661e-09 0)
(-1.01712e-07 7.16202e-06 0)
(-3.01341e-07 7.1912e-06 0)
(-4.9161e-07 7.24759e-06 0)
(-6.69167e-07 7.32885e-06 0)
(-8.31036e-07 7.43233e-06 0)
(-9.74646e-07 7.55497e-06 0)
(-1.09789e-06 7.69341e-06 0)
(-1.19922e-06 7.84389e-06 0)
(-1.27775e-06 8.00241e-06 0)
(-1.33335e-06 8.16478e-06 0)
(-1.36672e-06 8.32681e-06 0)
(-1.37945e-06 8.48455e-06 0)
(-1.37393e-06 8.63451e-06 0)
(-1.35323e-06 8.77393e-06 0)
(-1.3209e-06 8.90099e-06 0)
(-1.28063e-06 9.01489e-06 0)
(-1.23598e-06 9.1159e-06 0)
(-1.19012e-06 9.20515e-06 0)
(-1.14562e-06 9.28441e-06 0)
(-1.1044e-06 9.35581e-06 0)
(-1.06776e-06 9.42152e-06 0)
(-1.03652e-06 9.4836e-06 0)
(-1.01124e-06 9.54385e-06 0)
(-9.92361e-07 9.6038e-06 0)
(-9.80456e-07 9.66481e-06 0)
(-9.76358e-07 9.72821e-06 0)
(-9.8128e-07 9.79549e-06 0)
(-9.96875e-07 9.86858e-06 0)
(-1.02527e-06 9.95011e-06 0)
(-1.06904e-06 1.00437e-05 0)
(-1.13118e-06 1.01544e-05 0)
(-1.21501e-06 1.02891e-05 0)
(-1.32402e-06 1.04573e-05 0)
(-1.46146e-06 1.06719e-05 0)
(-1.6295e-06 1.09512e-05 0)
(-1.8275e-06 1.13208e-05 0)
(-2.04843e-06 1.18178e-05 0)
(-2.26632e-06 1.24904e-05 0)
(-1.20075e-06 2.74146e-06 0)
(1.51955e-08 1.07916e-08 0)
(-8.25965e-08 7.42819e-06 0)
(-2.44672e-07 7.45198e-06 0)
(-3.99061e-07 7.49788e-06 0)
(-5.4305e-07 7.56387e-06 0)
(-6.74313e-07 7.64762e-06 0)
(-7.90932e-07 7.74656e-06 0)
(-8.9144e-07 7.85789e-06 0)
(-9.74859e-07 7.97862e-06 0)
(-1.04075e-06 8.10569e-06 0)
(-1.08924e-06 8.23603e-06 0)
(-1.12102e-06 8.36669e-06 0)
(-1.13735e-06 8.49499e-06 0)
(-1.13995e-06 8.61867e-06 0)
(-1.13091e-06 8.73596e-06 0)
(-1.11253e-06 8.84572e-06 0)
(-1.0872e-06 8.94745e-06 0)
(-1.05717e-06 9.04125e-06 0)
(-1.0245e-06 9.12772e-06 0)
(-9.90884e-07 9.2079e-06 0)
(-9.57686e-07 9.28305e-06 0)
(-9.25908e-07 9.3546e-06 0)
(-8.96254e-07 9.42401e-06 0)
(-8.69198e-07 9.49276e-06 0)
(-8.45053e-07 9.5623e-06 0)
(-8.24024e-07 9.63419e-06 0)
(-8.06241e-07 9.7101e-06 0)
(-7.9174e-07 9.79197e-06 0)
(-7.80412e-07 9.88213e-06 0)
(-7.71877e-07 9.98349e-06 0)
(-7.65306e-07 1.00997e-05 0)
(-7.59141e-07 1.02352e-05 0)
(-7.50708e-07 1.03958e-05 0)
(-7.35664e-07 1.05883e-05 0)
(-7.07226e-07 1.08214e-05 0)
(-6.55109e-07 1.11053e-05 0)
(-5.64121e-07 1.14517e-05 0)
(-4.12377e-07 1.1874e-05 0)
(-1.68306e-07 1.2373e-05 0)
(-2.70648e-08 1.90869e-06 0)
(4.545e-09 1.2781e-08 0)
(-6.70429e-08 7.64429e-06 0)
(-1.98597e-07 7.66366e-06 0)
(-3.23918e-07 7.70098e-06 0)
(-4.4084e-07 7.75456e-06 0)
(-5.47547e-07 7.82249e-06 0)
(-6.4259e-07 7.90264e-06 0)
(-7.2491e-07 7.99275e-06 0)
(-7.93849e-07 8.09052e-06 0)
(-8.49169e-07 8.19358e-06 0)
(-8.9104e-07 8.29969e-06 0)
(-9.20027e-07 8.40672e-06 0)
(-9.37047e-07 8.5128e-06 0)
(-9.43306e-07 8.61637e-06 0)
(-9.40217e-07 8.71622e-06 0)
(-9.29308e-07 8.81158e-06 0)
(-9.12124e-07 8.90205e-06 0)
(-8.90134e-07 8.98764e-06 0)
(-8.64658e-07 9.06868e-06 0)
(-8.36814e-07 9.14578e-06 0)
(-8.07489e-07 9.21972e-06 0)
(-7.77331e-07 9.29144e-06 0)
(-7.46754e-07 9.36197e-06 0)
(-7.15951e-07 9.43238e-06 0)
(-6.84907e-07 9.50381e-06 0)
(-6.53388e-07 9.57748e-06 0)
(-6.20921e-07 9.65467e-06 0)
(-5.86743e-07 9.7368e-06 0)
(-5.49718e-07 9.82545e-06 0)
(-5.08218e-07 9.92233e-06 0)
(-4.59963e-07 1.00293e-05 0)
(-4.01815e-07 1.01485e-05 0)
(-3.29528e-07 1.02818e-05 0)
(-2.37453e-07 1.04311e-05 0)
(-1.18197e-07 1.0598e-05 0)
(3.77171e-08 1.0783e-05 0)
(2.42167e-07 1.09851e-05 0)
(5.09626e-07 1.12011e-05 0)
(8.57128e-07 1.14091e-05 0)
(5.16133e-07 1.33141e-06 0)
(1.30036e-09 1.40159e-08 0)
(-5.43834e-08 7.81965e-06 0)
(-1.61106e-07 7.83543e-06 0)
(-2.62806e-07 7.86584e-06 0)
(-3.57762e-07 7.90949e-06 0)
(-4.44548e-07 7.96481e-06 0)
(-5.2205e-07 8.0301e-06 0)
(-5.89469e-07 8.10358e-06 0)
(-6.46329e-07 8.18344e-06 0)
(-6.92469e-07 8.2679e-06 0)
(-7.28025e-07 8.35525e-06 0)
(-7.53408e-07 8.44395e-06 0)
(-7.69259e-07 8.53263e-06 0)
(-7.76403e-07 8.62014e-06 0)
(-7.7579e-07 8.70564e-06 0)
(-7.6843e-07 8.78851e-06 0)
(-7.55332e-07 8.86843e-06 0)
(-7.37449e-07 8.94533e-06 0)
(-7.15631e-07 9.01935e-06 0)
(-6.90585e-07 9.09081e-06 0)
(-6.62857e-07 9.16018e-06 0)
(-6.32815e-07 9.228e-06 0)
(-6.00639e-07 9.29492e-06 0)
(-5.66319e-07 9.36159e-06 0)
(-5.29648e-07 9.4287e-06 0)
(-4.90202e-07 9.49694e-06 0)
(-4.47327e-07 9.56698e-06 0)
(-4.001e-07 9.63945e-06 0)
(-3.47294e-07 9.71492e-06 0)
(-2.87324e-07 9.79381e-06 0)
(-2.18196e-07 9.87634e-06 0)
(-1.37455e-07 9.96238e-06 0)
(-4.21463e-08 1.00513e-05 0)
(7.1202e-08 1.01418e-05 0)
(2.06553e-07 1.02315e-05 0)
(3.68274e-07 1.03166e-05 0)
(5.60965e-07 1.03915e-05 0)
(7.89187e-07 1.0448e-05 0)
(1.05709e-06 1.04603e-05 0)
(6.21322e-07 1.29137e-06 0)
(1.28645e-08 1.05479e-08 0)
(-4.40504e-08 7.96181e-06 0)
(-1.30505e-07 7.97471e-06 0)
(-2.1292e-07 7.99958e-06 0)
(-2.89925e-07 8.03529e-06 0)
(-3.6039e-07 8.08058e-06 0)
(-4.23439e-07 8.1341e-06 0)
(-4.78449e-07 8.19443e-06 0)
(-5.25046e-07 8.26017e-06 0)
(-5.63092e-07 8.32995e-06 0)
(-5.9267e-07 8.40247e-06 0)
(-6.14052e-07 8.47656e-06 0)
(-6.27671e-07 8.55118e-06 0)
(-6.34081e-07 8.62548e-06 0)
(-6.33912e-07 8.69878e-06 0)
(-6.27833e-07 8.7706e-06 0)
(-6.16503e-07 8.84061e-06 0)
(-6.00541e-07 8.9087e-06 0)
(-5.80493e-07 8.97485e-06 0)
(-5.56805e-07 9.0392e-06 0)
(-5.29808e-07 9.10194e-06 0)
(-4.99704e-07 9.16335e-06 0)
(-4.66561e-07 9.22372e-06 0)
(-4.30304e-07 9.28337e-06 0)
(-3.90714e-07 9.34257e-06 0)
(-3.47424e-07 9.40156e-06 0)
(-2.99918e-07 9.46051e-06 0)
(-2.47528e-07 9.51946e-06 0)
(-1.8944e-07 9.57828e-06 0)
(-1.24707e-07 9.63667e-06 0)
(-5.22748e-08 9.694e-06 0)
(2.89672e-08 9.74929e-06 0)
(1.20105e-07 9.8011e-06 0)
(2.22069e-07 9.8474e-06 0)
(3.35442e-07 9.88548e-06 0)
(4.60177e-07 9.9118e-06 0)
(5.95198e-07 9.92193e-06 0)
(7.37829e-07 9.91041e-06 0)
(8.8308e-07 9.85588e-06 0)
(4.91461e-07 1.33206e-06 0)
(-3.61953e-09 6.3621e-09 0)
(-3.55816e-08 8.07681e-06 0)
(-1.05419e-07 8.08741e-06 0)
(-1.72007e-07 8.10784e-06 0)
(-2.34246e-07 8.1372e-06 0)
(-2.91231e-07 8.17447e-06 0)
(-3.4226e-07 8.21858e-06 0)
(-3.8683e-07 8.26842e-06 0)
(-4.24629e-07 8.32288e-06 0)
(-4.55525e-07 8.38089e-06 0)
(-4.79547e-07 8.44145e-06 0)
(-4.96864e-07 8.50364e-06 0)
(-5.07756e-07 8.56666e-06 0)
(-5.12587e-07 8.62982e-06 0)
(-5.11776e-07 8.69258e-06 0)
(-5.05763e-07 8.75451e-06 0)
(-4.94986e-07 8.81531e-06 0)
(-4.79852e-07 8.87478e-06 0)
(-4.60721e-07 8.93284e-06 0)
(-4.37887e-07 8.98945e-06 0)
(-4.11566e-07 9.04465e-06 0)
(-3.8189e-07 9.09849e-06 0)
(-3.48906e-07 9.15104e-06 0)
(-3.12572e-07 9.20236e-06 0)
(-2.7276e-07 9.25246e-06 0)
(-2.29268e-07 9.30129e-06 0)
(-1.81825e-07 9.34874e-06 0)
(-1.30111e-07 9.39457e-06 0)
(-7.37771e-08 9.4384e-06 0)
(-1.24803e-08 9.47969e-06 0)
(5.40758e-08 9.51772e-06 0)
(1.26082e-07 9.55153e-06 0)
(2.03551e-07 9.57996e-06 0)
(2.86227e-07 9.60159e-06 0)
(3.73485e-07 9.61482e-06 0)
(4.64213e-07 9.6179e-06 0)
(5.56707e-07 9.60906e-06 0)
(6.48595e-07 9.58669e-06 0)
(7.36931e-07 9.53429e-06 0)
(4.00418e-07 1.40445e-06 0)
(-1.22098e-08 6.1997e-09 0)
(-2.86097e-08 8.16951e-06 0)
(-8.47609e-08 8.17825e-06 0)
(-1.38293e-07 8.19511e-06 0)
(-1.88317e-07 8.21936e-06 0)
(-2.341e-07 8.25018e-06 0)
(-2.7507e-07 8.28672e-06 0)
(-3.1081e-07 8.32809e-06 0)
(-3.4105e-07 8.37342e-06 0)
(-3.6566e-07 8.42185e-06 0)
(-3.84628e-07 8.47261e-06 0)
(-3.98047e-07 8.52495e-06 0)
(-4.06092e-07 8.57823e-06 0)
(-4.09002e-07 8.63189e-06 0)
(-4.07054e-07 8.68546e-06 0)
(-4.00542e-07 8.73856e-06 0)
(-3.89764e-07 8.7909e-06 0)
(-3.75001e-07 8.84225e-06 0)
(-3.56504e-07 8.89245e-06 0)
(-3.34484e-07 8.94137e-06 0)
(-3.09109e-07 8.98894e-06 0)
(-2.80495e-07 9.03509e-06 0)
(-2.48713e-07 9.07973e-06 0)
(-2.13788e-07 9.12279e-06 0)
(-1.75705e-07 9.16415e-06 0)
(-1.34423e-07 9.20363e-06 0)
(-8.98863e-08 9.24101e-06 0)
(-4.20414e-08 9.276e-06 0)
(9.14004e-09 9.3082e-06 0)
(6.3636e-08 9.33716e-06 0)
(1.21344e-07 9.36233e-06 0)
(1.82048e-07 9.38306e-06 0)
(2.45383e-07 9.39866e-06 0)
(3.10803e-07 9.40842e-06 0)
(3.77554e-07 9.41162e-06 0)
(4.44658e-07 9.40764e-06 0)
(5.10919e-07 9.39601e-06 0)
(5.74965e-07 9.37655e-06 0)
(6.35423e-07 9.33344e-06 0)
(3.41577e-07 1.47981e-06 0)
(-1.67728e-08 6.1056e-09 0)
(-2.28459e-08 8.24382e-06 0)
(-6.76768e-08 8.25106e-06 0)
(-1.10392e-07 8.26503e-06 0)
(-1.50268e-07 8.28513e-06 0)
(-1.86703e-07 8.31072e-06 0)
(-2.19224e-07 8.3411e-06 0)
(-2.47481e-07 8.37556e-06 0)
(-2.71236e-07 8.41341e-06 0)
(-2.90361e-07 8.45396e-06 0)
(-3.04818e-07 8.49657e-06 0)
(-3.1465e-07 8.54066e-06 0)
(-3.19963e-07 8.58569e-06 0)
(-3.20911e-07 8.63119e-06 0)
(-3.17681e-07 8.67675e-06 0)
(-3.10479e-07 8.72203e-06 0)
(-2.99513e-07 8.76674e-06 0)
(-2.8499e-07 8.81064e-06 0)
(-2.67101e-07 8.85354e-06 0)
(-2.46017e-07 8.89526e-06 0)
(-2.21886e-07 8.93567e-06 0)
(-1.94835e-07 8.97461e-06 0)
(-1.64965e-07 9.01197e-06 0)
(-1.32362e-07 9.04759e-06 0)
(-9.71003e-08 9.08129e-06 0)
(-5.92521e-08 9.1129e-06 0)
(-1.88978e-08 9.14219e-06 0)
(2.38615e-08 9.16889e-06 0)
(6.88901e-08 9.19272e-06 0)
(1.16003e-07 9.21335e-06 0)
(1.64952e-07 9.23046e-06 0)
(2.15412e-07 9.24367e-06 0)
(2.66972e-07 9.25267e-06 0)
(3.19129e-07 9.25715e-06 0)
(3.71291e-07 9.25688e-06 0)
(4.22786e-07 9.25173e-06 0)
(4.72889e-07 9.24169e-06 0)
(5.20852e-07 9.22693e-06 0)
(5.66064e-07 9.19119e-06 0)
(3.03211e-07 1.55479e-06 0)
(-1.88771e-08 6.04498e-09 0)
(-1.80643e-08 8.3029e-06 0)
(-5.34991e-08 8.30891e-06 0)
(-8.72231e-08 8.32052e-06 0)
(-1.1864e-07 8.33724e-06 0)
(-1.47254e-07 8.35854e-06 0)
(-1.72668e-07 8.38386e-06 0)
(-1.94585e-07 8.41264e-06 0)
(-2.12796e-07 8.4443e-06 0)
(-2.27176e-07 8.47829e-06 0)
(-2.37674e-07 8.51409e-06 0)
(-2.44302e-07 8.55122e-06 0)
(-2.47121e-07 8.58922e-06 0)
(-2.46233e-07 8.6277e-06 0)
(-2.41768e-07 8.6663e-06 0)
(-2.33874e-07 8.70471e-06 0)
(-2.2271e-07 8.74265e-06 0)
(-2.08437e-07 8.7799e-06 0)
(-1.91211e-07 8.81623e-06 0)
(-1.71184e-07 8.85148e-06 0)
(-1.48499e-07 8.88546e-06 0)
(-1.2329e-07 8.91803e-06 0)
(-9.5684e-08 8.94901e-06 0)
(-6.58067e-08 8.97827e-06 0)
(-3.37844e-08 9.00562e-06 0)
(2.49557e-10 9.0309e-06 0)
(3.61476e-08 9.05393e-06 0)
(7.37419e-08 9.07452e-06 0)
(1.12837e-07 9.09247e-06 0)
(1.53203e-07 9.1076e-06 0)
(1.94575e-07 9.11971e-06 0)
(2.36642e-07 9.12866e-06 0)
(2.79057e-07 9.1343e-06 0)
(3.21433e-07 9.13655e-06 0)
(3.63353e-07 9.13539e-06 0)
(4.04384e-07 9.13087e-06 0)
(4.4409e-07 9.12312e-06 0)
(4.82048e-07 9.11234e-06 0)
(5.17997e-07 9.08159e-06 0)
(2.77796e-07 1.63007e-06 0)
(-1.92964e-08 6.00315e-09 0)
(-1.40874e-08 8.34933e-06 0)
(-4.17038e-08 8.35434e-06 0)
(-6.79362e-08 8.364e-06 0)
(-9.22899e-08 8.37793e-06 0)
(-1.14351e-07 8.39569e-06 0)
(-1.33787e-07 8.41684e-06 0)
(-1.50341e-07 8.44089e-06 0)
(-1.63831e-07 8.46739e-06 0)
(-1.74141e-07 8.49589e-06 0)
(-1.81212e-07 8.52595e-06 0)
(-1.85039e-07 8.55718e-06 0)
(-1.85657e-07 8.58919e-06 0)
(-1.83135e-07 8.62164e-06 0)
(-1.77567e-07 8.65421e-06 0)
(-1.69068e-07 8.68664e-06 0)
(-1.57763e-07 8.71867e-06 0)
(-1.43786e-07 8.75008e-06 0)
(-1.27274e-07 8.78067e-06 0)
(-1.08365e-07 8.81025e-06 0)
(-8.71981e-08 8.83866e-06 0)
(-6.39107e-08 8.86574e-06 0)
(-3.86429e-08 8.89134e-06 0)
(-1.1537e-08 8.91531e-06 0)
(1.72589e-08 8.93752e-06 0)
(4.75883e-08 8.95783e-06 0)
(7.92831e-08 8.97609e-06 0)
(1.12161e-07 8.9922e-06 0)
(1.46022e-07 9.00602e-06 0)
(1.80649e-07 9.01746e-06 0)
(2.15806e-07 9.02642e-06 0)
(2.51238e-07 9.03286e-06 0)
(2.86679e-07 9.03674e-06 0)
(3.2185e-07 9.03808e-06 0)
(3.56469e-07 9.03692e-06 0)
(3.90262e-07 9.03337e-06 0)
(4.22965e-07 9.02758e-06 0)
(4.54339e-07 9.01974e-06 0)
(4.84329e-07 8.99206e-06 0)
(2.60969e-07 1.70689e-06 0)
(-1.85418e-08 5.97297e-09 0)
(-1.07748e-08 8.38524e-06 0)
(-3.18767e-08 8.38941e-06 0)
(-5.18599e-08 8.39746e-06 0)
(-7.03111e-08 8.40907e-06 0)
(-8.68831e-08 8.4239e-06 0)
(-1.01294e-07 8.44155e-06 0)
(-1.13324e-07 8.46166e-06 0)
(-1.22813e-07 8.48383e-06 0)
(-1.29655e-07 8.50771e-06 0)
(-1.33793e-07 8.53292e-06 0)
(-1.35211e-07 8.55913e-06 0)
(-1.33929e-07 8.58603e-06 0)
(-1.29996e-07 8.61331e-06 0)
(-1.23486e-07 8.64071e-06 0)
(-1.1449e-07 8.66798e-06 0)
(-1.03113e-07 8.6949e-06 0)
(-8.947e-08 8.72127e-06 0)
(-7.36845e-08 8.7469e-06 0)
(-5.58842e-08 8.77162e-06 0)
(-3.6201e-08 8.79529e-06 0)
(-1.47708e-08 8.81775e-06 0)
(8.26655e-09 8.83887e-06 0)
(3.27668e-08 8.85853e-06 0)
(5.85803e-08 8.87663e-06 0)
(8.55508e-08 8.89304e-06 0)
(1.13515e-07 8.90768e-06 0)
(1.42302e-07 8.92047e-06 0)
(1.71732e-07 8.93134e-06 0)
(2.01618e-07 8.94023e-06 0)
(2.31768e-07 8.94712e-06 0)
(2.61985e-07 8.952e-06 0)
(2.92072e-07 8.95488e-06 0)
(3.21833e-07 8.95581e-06 0)
(3.51081e-07 8.95486e-06 0)
(3.7964e-07 8.95213e-06 0)
(4.07354e-07 8.94775e-06 0)
(4.34086e-07 8.94188e-06 0)
(4.59845e-07 8.91591e-06 0)
(2.49458e-07 1.78657e-06 0)
(-1.70002e-08 5.95051e-09 0)
(-8.01478e-09 8.41237e-06 0)
(-2.36871e-08 8.41585e-06 0)
(-3.84576e-08 8.42255e-06 0)
(-5.19786e-08 8.43223e-06 0)
(-6.39567e-08 8.44459e-06 0)
(-7.41519e-08 8.45932e-06 0)
(-8.23761e-08 8.47611e-06 0)
(-8.84898e-08 8.49464e-06 0)
(-9.2398e-08 8.51461e-06 0)
(-9.40462e-08 8.53571e-06 0)
(-9.34154e-08 8.55766e-06 0)
(-9.05173e-08 8.58019e-06 0)
(-8.53894e-08 8.60306e-06 0)
(-7.8091e-08 8.62602e-06 0)
(-6.86989e-08 8.64888e-06 0)
(-5.73039e-08 8.67142e-06 0)
(-4.40081e-08 8.69348e-06 0)
(-2.89221e-08 8.71488e-06 0)
(-1.21639e-08 8.73549e-06 0)
(6.14297e-09 8.75516e-06 0)
(2.587e-08 8.77378e-06 0)
(4.68845e-08 8.79122e-06 0)
(6.90496e-08 8.8074e-06 0)
(9.22247e-08 8.82221e-06 0)
(1.16265e-07 8.83558e-06 0)
(1.41024e-07 8.84744e-06 0)
(1.66351e-07 8.85774e-06 0)
(1.92093e-07 8.86645e-06 0)
(2.18097e-07 8.87352e-06 0)
(2.44212e-07 8.87897e-06 0)
(2.70288e-07 8.88281e-06 0)
(2.9618e-07 8.88505e-06 0)
(3.21753e-07 8.88576e-06 0)
(3.4688e-07 8.885e-06 0)
(3.71446e-07 8.88285e-06 0)
(3.95353e-07 8.87941e-06 0)
(4.18518e-07 8.87481e-06 0)
(4.41024e-07 8.84964e-06 0)
(2.41109e-07 1.87056e-06 0)
(-1.49931e-08 5.93394e-09 0)
(-5.71748e-09 8.43221e-06 0)
(-1.68696e-08 8.43509e-06 0)
(-2.72976e-08 8.44067e-06 0)
(-3.67071e-08 8.44872e-06 0)
(-4.48488e-08 8.459e-06 0)
(-5.15178e-08 8.47127e-06 0)
(-5.65525e-08 8.48525e-06 0)
(-5.98313e-08 8.5007e-06 0)
(-6.12706e-08 8.51734e-06 0)
(-6.08206e-08 8.53495e-06 0)
(-5.84619e-08 8.55327e-06 0)
(-5.42018e-08 8.57209e-06 0)
(-4.80708e-08 8.59118e-06 0)
(-4.01188e-08 8.61036e-06 0)
(-3.04122e-08 8.62944e-06 0)
(-1.90311e-08 8.64826e-06 0)
(-6.06686e-09 8.66666e-06 0)
(8.38013e-09 8.68449e-06 0)
(2.4202e-08 8.70164e-06 0)
(4.1285e-08 8.71798e-06 0)
(5.95103e-08 8.73342e-06 0)
(7.87556e-08 8.74786e-06 0)
(9.88955e-08 8.76121e-06 0)
(1.19802e-07 8.77341e-06 0)
(1.41348e-07 8.78439e-06 0)
(1.63402e-07 8.79411e-06 0)
(1.85837e-07 8.80253e-06 0)
(2.08527e-07 8.80963e-06 0)
(2.31347e-07 8.81538e-06 0)
(2.54179e-07 8.81981e-06 0)
(2.76909e-07 8.82291e-06 0)
(2.99433e-07 8.82472e-06 0)
(3.21654e-07 8.82528e-06 0)
(3.43486e-07 8.82464e-06 0)
(3.64857e-07 8.82288e-06 0)
(3.85705e-07 8.82006e-06 0)
(4.05987e-07 8.81626e-06 0)
(4.25796e-07 8.79129e-06 0)
(2.34576e-07 1.96027e-06 0)
(-1.27614e-08 5.92231e-09 0)
(-3.81026e-09 8.44597e-06 0)
(-1.12091e-08 8.44836e-06 0)
(-1.80296e-08 8.45298e-06 0)
(-2.40209e-08 8.45965e-06 0)
(-2.89699e-08 8.46818e-06 0)
(-3.27009e-08 8.47835e-06 0)
(-3.50742e-08 8.48995e-06 0)
(-3.59844e-08 8.50277e-06 0)
(-3.53578e-08 8.51659e-06 0)
(-3.315e-08 8.53121e-06 0)
(-2.93427e-08 8.54644e-06 0)
(-2.3941e-08 8.56208e-06 0)
(-1.69705e-08 8.57795e-06 0)
(-8.47462e-09 8.5939e-06 0)
(1.48813e-09 8.60977e-06 0)
(1.28462e-08 8.62542e-06 0)
(2.55174e-08 8.64071e-06 0)
(3.94104e-08 8.65554e-06 0)
(5.44269e-08 8.66979e-06 0)
(7.04627e-08 8.68337e-06 0)
(8.74091e-08 8.69619e-06 0)
(1.05155e-07 8.70817e-06 0)
(1.23585e-07 8.71926e-06 0)
(1.42587e-07 8.72938e-06 0)
(1.62046e-07 8.7385e-06 0)
(1.81849e-07 8.74657e-06 0)
(2.01886e-07 8.75356e-06 0)
(2.22053e-07 8.75947e-06 0)
(2.42248e-07 8.76426e-06 0)
(2.62376e-07 8.76796e-06 0)
(2.82352e-07 8.77056e-06 0)
(3.02096e-07 8.7721e-06 0)
(3.21539e-07 8.77258e-06 0)
(3.40622e-07 8.77206e-06 0)
(3.59294e-07 8.77058e-06 0)
(3.77517e-07 8.76819e-06 0)
(3.9526e-07 8.76493e-06 0)
(4.12648e-07 8.73985e-06 0)
(2.28975e-07 2.05721e-06 0)
(-1.04174e-08 5.91519e-09 0)
(-2.23411e-09 8.45469e-06 0)
(-6.53082e-09 8.45666e-06 0)
(-1.03687e-08 8.46047e-06 0)
(-1.35324e-08 8.46597e-06 0)
(-1.58383e-08 8.47299e-06 0)
(-1.71348e-08 8.48138e-06 0)
(-1.73007e-08 8.49094e-06 0)
(-1.62439e-08 8.50151e-06 0)
(-1.38997e-08 8.51292e-06 0)
(-1.02283e-08 8.52499e-06 0)
(-5.21287e-09 8.53756e-06 0)
(1.14277e-09 8.55047e-06 0)
(8.81663e-09 8.56359e-06 0)
(1.77706e-08 8.57677e-06 0)
(2.79525e-08 8.58989e-06 0)
(3.92982e-08 8.60284e-06 0)
(5.17332e-08 8.61551e-06 0)
(6.51745e-08 8.62779e-06 0)
(7.9532e-08 8.63961e-06 0)
(9.47102e-08 8.65089e-06 0)
(1.10609e-07 8.66156e-06 0)
(1.27127e-07 8.67155e-06 0)
(1.4416e-07 8.68081e-06 0)
(1.61603e-07 8.6893e-06 0)
(1.79354e-07 8.69697e-06 0)
(1.97313e-07 8.70379e-06 0)
(2.15384e-07 8.70974e-06 0)
(2.33476e-07 8.7148e-06 0)
(2.51503e-07 8.71894e-06 0)
(2.69389e-07 8.72218e-06 0)
(2.87064e-07 8.7245e-06 0)
(3.04467e-07 8.72591e-06 0)
(3.21548e-07 8.72644e-06 0)
(3.38265e-07 8.72609e-06 0)
(3.54586e-07 8.7249e-06 0)
(3.70487e-07 8.72289e-06 0)
(3.85956e-07 8.7201e-06 0)
(4.01066e-07 8.6949e-06 0)
(2.24021e-07 2.16308e-06 0)
(-7.96801e-09 5.91239e-09 0)
(-9.41024e-10 8.45928e-06 0)
(-2.69255e-09 8.46089e-06 0)
(-4.08285e-09 8.464e-06 0)
(-4.92524e-09 8.46848e-06 0)
(-5.06047e-09 8.47422e-06 0)
(-4.35628e-09 8.48106e-06 0)
(-2.70661e-09 8.48888e-06 0)
(-3.03594e-11 8.49751e-06 0)
(3.7301e-09 8.50683e-06 0)
(8.6106e-09 8.51669e-06 0)
(1.4627e-08 8.52697e-06 0)
(2.17769e-08 8.53753e-06 0)
(3.00416e-08 8.54827e-06 0)
(3.93877e-08 8.55907e-06 0)
(4.97691e-08 8.56983e-06 0)
(6.1128e-08 8.58046e-06 0)
(7.33972e-08 8.59088e-06 0)
(8.65007e-08 8.60101e-06 0)
(1.00356e-07 8.61078e-06 0)
(1.14874e-07 8.62013e-06 0)
(1.29963e-07 8.62902e-06 0)
(1.45527e-07 8.63738e-06 0)
(1.61468e-07 8.64519e-06 0)
(1.7769e-07 8.6524e-06 0)
(1.94095e-07 8.65897e-06 0)
(2.10591e-07 8.66488e-06 0)
(2.27089e-07 8.67011e-06 0)
(2.43504e-07 8.67462e-06 0)
(2.59761e-07 8.6784e-06 0)
(2.75791e-07 8.68144e-06 0)
(2.91534e-07 8.68371e-06 0)
(3.06941e-07 8.68522e-06 0)
(3.21974e-07 8.68596e-06 0)
(3.36602e-07 8.68592e-06 0)
(3.50807e-07 8.68512e-06 0)
(3.64577e-07 8.68356e-06 0)
(3.77911e-07 8.68126e-06 0)
(3.90851e-07 8.65624e-06 0)
(2.19739e-07 2.2798e-06 0)
(-5.33933e-09 5.91361e-09 0)
(1.0801e-10 8.46048e-06 0)
(4.21312e-10 8.46178e-06 0)
(1.01676e-09 8.46428e-06 0)
(2.05768e-09 8.46789e-06 0)
(3.68388e-09 8.47251e-06 0)
(6.01189e-09 8.47802e-06 0)
(9.13578e-09 8.48431e-06 0)
(1.31281e-08 8.49126e-06 0)
(1.80411e-08 8.49876e-06 0)
(2.3908e-08 8.5067e-06 0)
(3.07447e-08 8.51497e-06 0)
(3.85507e-08 8.52348e-06 0)
(4.73112e-08 8.53214e-06 0)
(5.69977e-08 8.54086e-06 0)
(6.75701e-08 8.54956e-06 0)
(7.89773e-08 8.55817e-06 0)
(9.11589e-08 8.56664e-06 0)
(1.04046e-07 8.5749e-06 0)
(1.17562e-07 8.58292e-06 0)
(1.31625e-07 8.59064e-06 0)
(1.46147e-07 8.59803e-06 0)
(1.61037e-07 8.60505e-06 0)
(1.762e-07 8.61169e-06 0)
(1.91541e-07 8.6179e-06 0)
(2.06966e-07 8.62366e-06 0)
(2.22379e-07 8.62896e-06 0)
(2.37692e-07 8.63375e-06 0)
(2.52819e-07 8.63802e-06 0)
(2.67684e-07 8.64173e-06 0)