/*--------------------------------*- C++ -*----------------------------------*\
  =========                 |
  \\      /  F ield         | OpenFOAM: The Open Source CFD Toolbox
   \\    /   O peration     | Website:  https://openfoam.org
    \\  /    A nd           | Version:  10
     \\/     M anipulation  |
\*---------------------------------------------------------------------------*/
FoamFile
{
    format      ascii;
    class       volVectorField;
    location    "16750";
    object      Ub;
}
// * * * * * * * * * * * * * * * * * * * * * * * * * * * * * * * * * * * * * //

dimensions      [0 1 -1 0 0 0 0];

internalField   nonuniform List<vector> 
3200
(
(-7.25743e-21 -9.87888e-16 0)
(-2.17973e-20 -9.87888e-16 0)
(-3.65404e-20 -9.87888e-16 0)
(-5.18059e-20 -9.87887e-16 0)
(-6.79547e-20 -9.87886e-16 0)
(-8.54277e-20 -9.87884e-16 0)
(-1.04801e-19 -9.87882e-16 0)
(-1.2687e-19 -9.87879e-16 0)
(-1.52794e-19 -9.87875e-16 0)
(-1.84337e-19 -9.87869e-16 0)
(-2.24311e-19 -9.8786e-16 0)
(-2.77396e-19 -9.87845e-16 0)
(-3.51706e-19 -9.87821e-16 0)
(-4.61872e-19 -9.87778e-16 0)
(-6.35429e-19 -9.87701e-16 0)
(-4.99277e-10 -9.87876e-16 0)
(-3.71482e-05 -2.35784e-07 0)
(-8.24905e-05 -3.45987e-05 0)
(-9.22271e-05 -8.48967e-06 0)
(-9.46078e-05 -4.37042e-06 0)
(-9.6021e-05 -2.71099e-06 0)
(-9.70258e-05 -1.84577e-06 0)
(-9.77968e-05 -1.33368e-06 0)
(-9.84149e-05 -1.00557e-06 0)
(-9.89248e-05 -7.83306e-07 0)
(-9.93546e-05 -6.26221e-07 0)
(-9.97227e-05 -5.11422e-07 0)
(-0.000100042 -4.2519e-07 0)
(-0.000100323 -3.58909e-07 0)
(-0.000100571 -3.06944e-07 0)
(-0.000100793 -2.65487e-07 0)
(-9.99874e-05 -2.74647e-06 0)
(-9.6503e-05 -6.98113e-06 0)
(-9.14473e-05 -6.81502e-06 0)
(-8.63399e-05 -7.27771e-06 0)
(-8.05011e-05 -8.9515e-06 0)
(-7.28619e-05 -1.2404e-05 0)
(-6.18725e-05 -1.85533e-05 0)
(-4.51807e-05 -2.89771e-05 0)
(-2.01571e-05 -4.32341e-05 0)
(-6.93005e-21 -9.87868e-16 0)
(-2.07895e-20 -9.87867e-16 0)
(-3.47663e-20 -9.87866e-16 0)
(-4.91e-20 -9.87864e-16 0)
(-6.4041e-20 -9.87861e-16 0)
(-7.98619e-20 -9.87857e-16 0)
(-9.68657e-20 -9.87851e-16 0)
(-1.15383e-19 -9.87844e-16 0)
(-1.35747e-19 -9.87834e-16 0)
(-1.58202e-19 -9.87819e-16 0)
(-1.82668e-19 -9.87799e-16 0)
(-2.08149e-19 -9.87769e-16 0)
(-2.31336e-19 -9.87723e-16 0)
(-2.43341e-19 -9.87654e-16 0)
(-2.22209e-19 -9.87545e-16 0)
(-1.15892e-19 -9.8737e-16 0)
(1.13946e-19 -9.86827e-16 0)
(2.30335e-19 -9.40376e-16 0)
(1.6791e-19 -8.99286e-16 0)
(1.10119e-19 -8.61332e-16 0)
(6.4078e-20 -8.25493e-16 0)
(2.47501e-20 -7.91285e-16 0)
(-1.15726e-20 -7.5842e-16 0)
(-4.77821e-20 -7.26709e-16 0)
(-8.66263e-20 -6.96018e-16 0)
(-1.31327e-19 -6.66243e-16 0)
(-1.86305e-19 -6.37307e-16 0)
(-2.58246e-19 -6.09144e-16 0)
(-3.57825e-19 -5.81701e-16 0)
(-4.34117e-16 -5.54929e-16 0)
(-2.70871e-06 -5.1233e-14 0)
(-2.93253e-05 -2.51448e-06 0)
(-5.71436e-05 -6.77568e-06 0)
(-6.41588e-05 -6.63059e-06 0)
(-7.03113e-05 -7.11032e-06 0)
(-7.6888e-05 -8.79845e-06 0)
(-8.50889e-05 -1.22635e-05 0)
(-9.65162e-05 -1.84243e-05 0)
(-0.000104583 -5.43031e-05 0)
(-5.52744e-05 -0.000232662 0)
(-6.34257e-21 -9.87848e-16 0)
(-1.89889e-20 -9.87847e-16 0)
(-3.16246e-20 -9.87846e-16 0)
(-4.43756e-20 -9.87843e-16 0)
(-5.73475e-20 -9.87839e-16 0)
(-7.06148e-20 -9.87833e-16 0)
(-8.41987e-20 -9.87826e-16 0)
(-9.80243e-20 -9.87817e-16 0)
(-1.11843e-19 -9.87805e-16 0)
(-1.25102e-19 -9.87789e-16 0)
(-1.36724e-19 -9.87768e-16 0)
(-1.44782e-19 -9.87741e-16 0)
(-1.46068e-19 -9.87708e-16 0)
(-1.35734e-19 -9.87667e-16 0)
(-1.07665e-19 -9.87622e-16 0)
(-5.76115e-20 -9.87585e-16 0)
(5.34209e-21 -9.87586e-16 0)
(4.63553e-20 -9.87657e-16 0)
(5.23574e-20 -9.87707e-16 0)
(4.18099e-20 -9.8774e-16 0)
(2.44059e-20 -9.87761e-16 0)
(4.279e-21 -9.87773e-16 0)
(-1.68462e-20 -9.87778e-16 0)
(-3.81754e-20 -9.87776e-16 0)
(-5.90724e-20 -9.87769e-16 0)
(-7.84755e-20 -9.87754e-16 0)
(-9.41713e-20 -9.8773e-16 0)
(-1.01579e-19 -9.87692e-16 0)
(-9.1524e-20 -9.87637e-16 0)
(-4.6087e-20 -9.87554e-16 0)
(6.73552e-20 -9.8743e-16 0)
(1.65752e-19 -9.80049e-16 0)
(1.59197e-19 -9.59077e-16 0)
(1.12683e-19 -9.38279e-16 0)
(7.5115e-20 -9.17302e-16 0)
(4.26176e-20 -8.95965e-16 0)
(-6.30173e-20 -8.73971e-16 0)
(-2.60491e-08 -1.84624e-14 0)
(-9.50908e-06 -2.65394e-05 0)
(-5.76996e-06 -0.000417752 0)
(-5.59896e-21 -9.87831e-16 0)
(-1.67228e-20 -9.8783e-16 0)
(-2.77172e-20 -9.87828e-16 0)
(-3.86063e-20 -9.87825e-16 0)
(-4.93814e-20 -9.8782e-16 0)
(-5.99842e-20 -9.87814e-16 0)
(-7.02822e-20 -9.87807e-16 0)
(-8.00345e-20 -9.87798e-16 0)
(-8.88447e-20 -9.87786e-16 0)
(-9.61041e-20 -9.87772e-16 0)
(-1.00933e-19 -9.87756e-16 0)
(-1.02155e-19 -9.87737e-16 0)
(-9.83577e-20 -9.87716e-16 0)
(-8.81835e-20 -9.87695e-16 0)
(-7.10043e-20 -9.87677e-16 0)
(-4.81345e-20 -9.87667e-16 0)
(-2.42065e-20 -9.8767e-16 0)
(-6.34804e-21 -9.87687e-16 0)
(1.95672e-21 -9.87706e-16 0)
(2.41161e-21 -9.87722e-16 0)
(-2.37607e-21 -9.87734e-16 0)
(-1.02255e-20 -9.87741e-16 0)
(-1.94923e-20 -9.87744e-16 0)
(-2.88681e-20 -9.87743e-16 0)
(-3.71412e-20 -9.87738e-16 0)
(-4.29869e-20 -9.87729e-16 0)
(-4.48177e-20 -9.87715e-16 0)
(-4.07557e-20 -9.87699e-16 0)
(-2.89016e-20 -9.87682e-16 0)
(-8.29246e-21 -9.87668e-16 0)
(1.86069e-20 -9.87667e-16 0)
(4.04435e-20 -9.87695e-16 0)
(4.7628e-20 -9.8773e-16 0)
(4.34793e-20 -9.87754e-16 0)
(3.41945e-20 -9.8777e-16 0)
(2.30547e-20 -9.8778e-16 0)
(1.20563e-20 -9.87785e-16 0)
(-3.7158e-12 -9.93758e-16 0)
(-3.67154e-07 -1.91948e-06 0)
(8.65178e-08 -0.000459006 0)
(-4.80268e-21 -9.87816e-16 0)
(-1.43112e-20 -9.87815e-16 0)
(-2.361e-20 -9.87813e-16 0)
(-3.26554e-20 -9.8781e-16 0)
(-4.1375e-20 -9.87805e-16 0)
(-4.96542e-20 -9.878e-16 0)
(-5.73218e-20 -9.87793e-16 0)
(-6.41354e-20 -9.87785e-16 0)
(-6.97681e-20 -9.87775e-16 0)
(-7.38052e-20 -9.87764e-16 0)
(-7.57583e-20 -9.87752e-16 0)
(-7.51179e-20 -9.8774e-16 0)
(-7.14615e-20 -9.87727e-16 0)
(-6.46375e-20 -9.87715e-16 0)
(-5.50114e-20 -9.87707e-16 0)
(-4.36897e-20 -9.87702e-16 0)
(-3.25101e-20 -9.87702e-16 0)
(-2.34883e-20 -9.87706e-16 0)
(-1.77945e-20 -9.87713e-16 0)
(-1.543e-20 -9.8772e-16 0)
(-1.57476e-20 -9.87725e-16 0)
(-1.78779e-20 -9.87729e-16 0)
(-2.09346e-20 -9.87731e-16 0)
(-2.4082e-20 -9.8773e-16 0)
(-2.65427e-20 -9.87728e-16 0)
(-2.76014e-20 -9.87724e-16 0)
(-2.66404e-20 -9.87719e-16 0)
(-2.32351e-20 -9.87713e-16 0)
(-1.7331e-20 -9.8771e-16 0)
(-9.49326e-21 -9.87709e-16 0)
(-1.13351e-21 -9.87712e-16 0)
(5.6107e-21 -9.87721e-16 0)
(9.15428e-21 -9.87732e-16 0)
(9.45664e-21 -9.87743e-16 0)
(7.35618e-21 -9.87752e-16 0)
(3.78521e-21 -9.87759e-16 0)
(-5.03565e-22 -9.87764e-16 0)
(-1.48403e-11 -9.99354e-16 0)
(-2.45588e-07 -1.70709e-06 0)
(9.06022e-08 -0.000463428 0)
(-4.03262e-21 -9.87803e-16 0)
(-1.19924e-20 -9.87802e-16 0)
(-1.97061e-20 -9.878e-16 0)
(-2.70962e-20 -9.87797e-16 0)
(-3.40676e-20 -9.87794e-16 0)
(-4.04997e-20 -9.87789e-16 0)
(-4.62412e-20 -9.87783e-16 0)
(-5.11085e-20 -9.87776e-16 0)
(-5.48888e-20 -9.87769e-16 0)
(-5.73531e-20 -9.8776e-16 0)
(-5.82824e-20 -9.87752e-16 0)
(-5.75108e-20 -9.87743e-16 0)
(-5.49853e-20 -9.87735e-16 0)
(-5.08355e-20 -9.87728e-16 0)
(-4.54297e-20 -9.87722e-16 0)
(-3.93821e-20 -9.87719e-16 0)
(-3.34638e-20 -9.87717e-16 0)
(-2.84062e-20 -9.87718e-16 0)
(-2.46747e-20 -9.8772e-16 0)
(-2.23822e-20 -9.87722e-16 0)
(-2.13622e-20 -9.87724e-16 0)
(-2.12837e-20 -9.87726e-16 0)
(-2.1745e-20 -9.87726e-16 0)
(-2.2337e-20 -9.87726e-16 0)
(-2.2685e-20 -9.87725e-16 0)
(-2.24835e-20 -9.87724e-16 0)
(-2.15307e-20 -9.87723e-16 0)
(-1.9768e-20 -9.87721e-16 0)
(-1.73163e-20 -9.87721e-16 0)
(-1.44913e-20 -9.87722e-16 0)
(-1.17675e-20 -9.87725e-16 0)
(-9.65443e-21 -9.8773e-16 0)
(-8.49177e-21 -9.87735e-16 0)
(-8.31687e-21 -9.87741e-16 0)
(-8.91141e-21 -9.87747e-16 0)
(-9.91714e-21 -9.87752e-16 0)
(-1.10142e-20 -9.87757e-16 0)
(-2.64211e-11 -1.00398e-15 0)
(-2.40614e-07 -1.87996e-06 0)
(1.00345e-07 -0.000467127 0)
(-3.33626e-21 -9.87793e-16 0)
(-9.906e-21 -9.87792e-16 0)
(-1.62279e-20 -9.8779e-16 0)
(-2.22151e-20 -9.87788e-16 0)
(-2.77738e-20 -9.87784e-16 0)
(-3.28e-20 -9.8778e-16 0)
(-3.71794e-20 -9.87775e-16 0)
(-4.07901e-20 -9.8777e-16 0)
(-4.351e-20 -9.87764e-16 0)
(-4.52293e-20 -9.87758e-16 0)
(-4.58689e-20 -9.87752e-16 0)
(-4.54032e-20 -9.87745e-16 0)
(-4.38839e-20 -9.8774e-16 0)
(-4.14591e-20 -9.87735e-16 0)
(-3.83774e-20 -9.87731e-16 0)
(-3.49666e-20 -9.87728e-16 0)
(-3.15848e-20 -9.87726e-16 0)
(-2.85498e-20 -9.87725e-16 0)
(-2.60765e-20 -9.87725e-16 0)
(-2.42489e-20 -9.87725e-16 0)
(-2.30338e-20 -9.87726e-16 0)
(-2.23152e-20 -9.87726e-16 0)
(-2.19335e-20 -9.87726e-16 0)
(-2.17195e-20 -9.87726e-16 0)
(-2.15231e-20 -9.87725e-16 0)
(-2.12352e-20 -9.87725e-16 0)
(-2.08045e-20 -9.87725e-16 0)
(-2.02481e-20 -9.87725e-16 0)
(-1.96521e-20 -9.87725e-16 0)
(-1.91584e-20 -9.87726e-16 0)
(-1.8934e-20 -9.87728e-16 0)
(-1.91235e-20 -9.87731e-16 0)
(-1.97949e-20 -9.87735e-16 0)
(-2.08965e-20 -9.87739e-16 0)
(-2.22318e-20 -9.87744e-16 0)
(-2.34376e-20 -9.87749e-16 0)
(-2.41667e-20 -9.87756e-16 0)
(-5.71007e-11 -1.01397e-15 0)
(-2.36161e-07 -2.52968e-06 0)
(1.20585e-07 -0.000470848 0)
(-2.73419e-21 -9.87784e-16 0)
(-8.10932e-21 -9.87783e-16 0)
(-1.32563e-20 -9.87782e-16 0)
(-1.80926e-20 -9.8778e-16 0)
(-2.25366e-20 -9.87777e-16 0)
(-2.65065e-20 -9.87773e-16 0)
(-2.9922e-20 -9.8777e-16 0)
(-3.27075e-20 -9.87765e-16 0)
(-3.47982e-20 -9.87761e-16 0)
(-3.61485e-20 -9.87756e-16 0)
(-3.67411e-20 -9.87751e-16 0)
(-3.65969e-20 -9.87747e-16 0)
(-3.57825e-20 -9.87742e-16 0)
(-3.4412e-20 -9.87739e-16 0)
(-3.26411e-20 -9.87735e-16 0)
(-3.06519e-20 -9.87733e-16 0)
(-2.86284e-20 -9.87731e-16 0)
(-2.67309e-20 -9.8773e-16 0)
(-2.50743e-20 -9.87729e-16 0)
(-2.3719e-20 -9.87728e-16 0)
(-2.26749e-20 -9.87728e-16 0)
(-2.19141e-20 -9.87727e-16 0)
(-2.13876e-20 -9.87727e-16 0)
(-2.10418e-20 -9.87726e-16 0)
(-2.08343e-20 -9.87726e-16 0)
(-2.07445e-20 -9.87725e-16 0)
(-2.07827e-20 -9.87725e-16 0)
(-2.09939e-20 -9.87725e-16 0)
(-2.14569e-20 -9.87725e-16 0)
(-2.2279e-20 -9.87726e-16 0)
(-2.35875e-20 -9.87727e-16 0)
(-2.55177e-20 -9.87728e-16 0)
(-2.82035e-20 -9.8773e-16 0)
(-3.177e-20 -9.87732e-16 0)
(-3.63282e-20 -9.87735e-16 0)
(-4.19647e-20 -9.8774e-16 0)
(-4.96156e-20 -9.87746e-16 0)
(-2.75622e-10 -1.09255e-15 0)
(-2.1396e-07 -6.83581e-06 0)
(1.71762e-07 -0.00047461 0)
(-2.22866e-21 -9.87777e-16 0)
(-6.60535e-21 -9.87776e-16 0)
(-1.07835e-20 -9.87775e-16 0)
(-1.46912e-20 -9.87773e-16 0)
(-1.82616e-20 -9.87771e-16 0)
(-2.1433e-20 -9.87768e-16 0)
(-2.41507e-20 -9.87765e-16 0)
(-2.63691e-20 -9.87762e-16 0)
(-2.80556e-20 -9.87758e-16 0)
(-2.9195e-20 -9.87754e-16 0)
(-2.97935e-20 -9.87751e-16 0)
(-2.98819e-20 -9.87747e-16 0)
(-2.95166e-20 -9.87744e-16 0)
(-2.87778e-20 -9.87741e-16 0)
(-2.77633e-20 -9.87738e-16 0)
(-2.65799e-20 -9.87736e-16 0)
(-2.53318e-20 -9.87734e-16 0)
(-2.41101e-20 -9.87733e-16 0)
(-2.29846e-20 -9.87731e-16 0)
(-2.20011e-20 -9.8773e-16 0)
(-2.11825e-20 -9.87729e-16 0)
(-2.05347e-20 -9.87728e-16 0)
(-2.00543e-20 -9.87728e-16 0)
(-1.97362e-20 -9.87727e-16 0)
(-1.95818e-20 -9.87726e-16 0)
(-1.96051e-20 -9.87725e-16 0)
(-1.98373e-20 -9.87725e-16 0)
(-2.03313e-20 -9.87724e-16 0)
(-2.11636e-20 -9.87723e-16 0)
(-2.2438e-20 -9.87723e-16 0)
(-2.4291e-20 -9.87722e-16 0)
(-2.69021e-20 -9.87721e-16 0)
(-3.05133e-20 -9.8772e-16 0)
(-3.54647e-20 -9.87719e-16 0)
(-4.22535e-20 -9.87718e-16 0)
(-5.1632e-20 -9.87717e-16 0)
(-7.12187e-20 -9.87715e-16 0)
(-2.39836e-09 -1.5904e-15 0)
(-1.74361e-07 -1.8556e-05 0)
(2.45849e-07 -0.00047835 0)
(-1.81177e-21 -9.87771e-16 0)
(-5.36772e-21 -9.8777e-16 0)
(-8.75695e-21 -9.87769e-16 0)
(-1.19197e-20 -9.87768e-16 0)
(-1.48031e-20 -9.87766e-16 0)
(-1.73612e-20 -9.87764e-16 0)
(-1.95565e-20 -9.87761e-16 0)
(-2.13615e-20 -9.87759e-16 0)
(-2.27603e-20 -9.87756e-16 0)
(-2.37506e-20 -9.87753e-16 0)
(-2.43451e-20 -9.8775e-16 0)
(-2.45718e-20 -9.87747e-16 0)
(-2.44735e-20 -9.87745e-16 0)
(-2.41049e-20 -9.87742e-16 0)
(-2.35289e-20 -9.8774e-16 0)
(-2.28115e-20 -9.87738e-16 0)
(-2.20162e-20 -9.87736e-16 0)
(-2.11993e-20 -9.87735e-16 0)
(-2.04067e-20 -9.87733e-16 0)
(-1.96724e-20 -9.87732e-16 0)
(-1.90197e-20 -9.87731e-16 0)
(-1.84634e-20 -9.8773e-16 0)
(-1.8013e-20 -9.87729e-16 0)
(-1.76767e-20 -9.87727e-16 0)
(-1.74647e-20 -9.87726e-16 0)
(-1.73917e-20 -9.87725e-16 0)
(-1.74793e-20 -9.87724e-16 0)
(-1.77571e-20 -9.87723e-16 0)
(-1.82629e-20 -9.87721e-16 0)
(-1.90425e-20 -9.8772e-16 0)
(-2.01494e-20 -9.87718e-16 0)
(-2.16428e-20 -9.87715e-16 0)
(-2.35846e-20 -9.87712e-16 0)
(-2.60327e-20 -9.87708e-16 0)
(-2.9026e-20 -9.87703e-16 0)
(-3.25528e-20 -9.87697e-16 0)
(-5.66056e-20 -9.87688e-16 0)
(-4.51753e-09 -2.45293e-15 0)
(-1.98993e-07 -2.89808e-05 0)
(1.84343e-07 -0.000481997 0)
(-1.47128e-21 -9.87766e-16 0)
(-4.35829e-21 -9.87766e-16 0)
(-7.10839e-21 -9.87765e-16 0)
(-9.67324e-21 -9.87764e-16 0)
(-1.20114e-20 -9.87762e-16 0)
(-1.40887e-20 -9.87761e-16 0)
(-1.5879e-20 -9.87759e-16 0)
(-1.7365e-20 -9.87756e-16 0)
(-1.85387e-20 -9.87754e-16 0)
(-1.94024e-20 -9.87752e-16 0)
(-1.99686e-20 -9.87749e-16 0)
(-2.02595e-20 -9.87747e-16 0)
(-2.03057e-20 -9.87745e-16 0)
(-2.01446e-20 -9.87743e-16 0)
(-1.98173e-20 -9.87741e-16 0)
(-1.9366e-20 -9.87739e-16 0)
(-1.88312e-20 -9.87737e-16 0)
(-1.82492e-20 -9.87736e-16 0)
(-1.76504e-20 -9.87734e-16 0)
(-1.70591e-20 -9.87733e-16 0)
(-1.6493e-20 -9.87732e-16 0)
(-1.59648e-20 -9.87731e-16 0)
(-1.54829e-20 -9.87729e-16 0)
(-1.50528e-20 -9.87728e-16 0)
(-1.46782e-20 -9.87727e-16 0)
(-1.43614e-20 -9.87726e-16 0)
(-1.41031e-20 -9.87724e-16 0)
(-1.39013e-20 -9.87722e-16 0)
(-1.37493e-20 -9.87721e-16 0)
(-1.36322e-20 -9.87719e-16 0)
(-1.35224e-20 -9.87716e-16 0)
(-1.33722e-20 -9.87713e-16 0)
(-1.31042e-20 -9.8771e-16 0)
(-1.25977e-20 -9.87706e-16 0)
(-1.16693e-20 -9.87701e-16 0)
(-1.00486e-20 -9.87695e-16 0)
(-1.28082e-20 -9.87687e-16 0)
(-4.72919e-11 -3.02716e-15 0)
(-2.26328e-07 -3.0259e-05 0)
(5.77493e-08 -0.000485381 0)
(-1.19422e-21 -9.87762e-16 0)
(-3.53756e-21 -9.87762e-16 0)
(-5.76988e-21 -9.87761e-16 0)
(-7.85259e-21 -9.8776e-16 0)
(-9.75334e-21 -9.87759e-16 0)
(-1.14463e-20 -9.87758e-16 0)
(-1.29127e-20 -9.87756e-16 0)
(-1.41407e-20 -9.87754e-16 0)
(-1.51261e-20 -9.87753e-16 0)
(-1.58719e-20 -9.87751e-16 0)
(-1.63883e-20 -9.87749e-16 0)
(-1.66914e-20 -9.87747e-16 0)
(-1.68029e-20 -9.87745e-16 0)
(-1.67479e-20 -9.87743e-16 0)
(-1.65536e-20 -9.87742e-16 0)
(-1.62475e-20 -9.8774e-16 0)
(-1.58558e-20 -9.87738e-16 0)
(-1.5402e-20 -9.87737e-16 0)
(-1.4906e-20 -9.87736e-16 0)
(-1.43836e-20 -9.87734e-16 0)
(-1.38464e-20 -9.87733e-16 0)
(-1.33018e-20 -9.87732e-16 0)
(-1.27531e-20 -9.8773e-16 0)
(-1.22001e-20 -9.87729e-16 0)
(-1.16387e-20 -9.87728e-16 0)
(-1.10603e-20 -9.87727e-16 0)
(-1.04515e-20 -9.87725e-16 0)
(-9.79201e-21 -9.87723e-16 0)
(-9.05278e-21 -9.87722e-16 0)
(-8.19322e-21 -9.8772e-16 0)
(-7.15744e-21 -9.87718e-16 0)
(-5.86982e-21 -9.87715e-16 0)
(-4.2297e-21 -9.87713e-16 0)
(-2.10542e-21 -9.8771e-16 0)
(6.71847e-22 -9.87706e-16 0)
(4.31368e-21 -9.87703e-16 0)
(9.07787e-21 -9.87699e-16 0)
(3.59947e-20 -3.3e-15 0)
(-1.38376e-07 -2.7099e-05 0)
(1.72136e-08 -0.000487885 0)
(-9.6872e-22 -9.87759e-16 0)
(-2.86975e-21 -9.87759e-16 0)
(-4.68132e-21 -9.87758e-16 0)
(-6.37275e-21 -9.87758e-16 0)
(-7.91865e-21 -9.87757e-16 0)
(-9.29916e-21 -9.87755e-16 0)
(-1.05001e-20 -9.87754e-16 0)
(-1.15129e-20 -9.87753e-16 0)
(-1.23348e-20 -9.87751e-16 0)
(-1.29682e-20 -9.8775e-16 0)
(-1.34203e-20 -9.87748e-16 0)
(-1.37027e-20 -9.87747e-16 0)
(-1.38299e-20 -9.87745e-16 0)
(-1.3819e-20 -9.87743e-16 0)
(-1.36879e-20 -9.87742e-16 0)
(-1.34546e-20 -9.87741e-16 0)
(-1.3136e-20 -9.87739e-16 0)
(-1.27474e-20 -9.87738e-16 0)
(-1.23012e-20 -9.87737e-16 0)
(-1.18073e-20 -9.87735e-16 0)
(-1.12722e-20 -9.87734e-16 0)
(-1.06991e-20 -9.87733e-16 0)
(-1.00877e-20 -9.87732e-16 0)
(-9.4345e-21 -9.87731e-16 0)
(-8.73187e-21 -9.87729e-16 0)
(-7.96814e-21 -9.87728e-16 0)
(-7.12691e-21 -9.87727e-16 0)
(-6.18628e-21 -9.87725e-16 0)
(-5.11804e-21 -9.87724e-16 0)
(-3.88668e-21 -9.87723e-16 0)
(-2.44846e-21 -9.87721e-16 0)
(-7.50743e-22 -9.87719e-16 0)
(1.26831e-21 -9.87718e-16 0)
(3.67929e-21 -9.87716e-16 0)
(6.55999e-21 -9.87715e-16 0)
(9.99236e-21 -9.87713e-16 0)
(1.40576e-20 -9.87712e-16 0)
(4.5388e-20 -3.56451e-15 0)
(7.18832e-11 -2.34967e-05 0)
(-7.51625e-09 -0.000488691 0)
(-7.8466e-22 -9.87757e-16 0)
(-2.32465e-21 -9.87756e-16 0)
(-3.79271e-21 -9.87756e-16 0)
(-5.16437e-21 -9.87755e-16 0)
(-6.41956e-21 -9.87755e-16 0)
(-7.54264e-21 -9.87754e-16 0)
(-8.52252e-21 -9.87753e-16 0)
(-9.35254e-21 -9.87751e-16 0)
(-1.00302e-20 -9.8775e-16 0)
(-1.05571e-20 -9.87749e-16 0)
(-1.0938e-20 -9.87748e-16 0)
(-1.11806e-20 -9.87746e-16 0)
(-1.12948e-20 -9.87745e-16 0)
(-1.12918e-20 -9.87744e-16 0)
(-1.11835e-20 -9.87742e-16 0)
(-1.09816e-20 -9.87741e-16 0)
(-1.06973e-20 -9.8774e-16 0)
(-1.03402e-20 -9.87739e-16 0)
(-9.91825e-21 -9.87737e-16 0)
(-9.43735e-21 -9.87736e-16 0)
(-8.90112e-21 -9.87735e-16 0)
(-8.31075e-21 -9.87734e-16 0)
(-7.66491e-21 -9.87733e-16 0)
(-6.9597e-21 -9.87732e-16 0)
(-6.18859e-21 -9.87731e-16 0)
(-5.34238e-21 -9.8773e-16 0)
(-4.40916e-21 -9.87729e-16 0)
(-3.37446e-21 -9.87728e-16 0)
(-2.22138e-21 -9.87727e-16 0)
(-9.31161e-22 -9.87726e-16 0)
(5.15987e-22 -9.87725e-16 0)
(2.1394e-21 -9.87724e-16 0)
(3.95566e-21 -9.87723e-16 0)
(5.97516e-21 -9.87722e-16 0)
(8.19705e-21 -9.87722e-16 0)
(1.06021e-20 -9.87722e-16 0)
(1.31428e-20 -9.87722e-16 0)
(3.91063e-20 -3.82799e-15 0)
(3.78962e-11 -2.05748e-05 0)
(-1.6833e-08 -0.000488445 0)
(-6.33807e-22 -9.87755e-16 0)
(-1.87781e-21 -9.87754e-16 0)
(-3.06393e-21 -9.87754e-16 0)
(-4.17257e-21 -9.87754e-16 0)
(-5.18763e-21 -9.87753e-16 0)
(-6.09661e-21 -9.87752e-16 0)
(-6.89052e-21 -9.87751e-16 0)
(-7.56383e-21 -9.8775e-16 0)
(-8.11417e-21 -9.87749e-16 0)
(-8.54208e-21 -9.87748e-16 0)
(-8.85054e-21 -9.87747e-16 0)
(-9.04455e-21 -9.87746e-16 0)
(-9.13061e-21 -9.87745e-16 0)
(-9.11616e-21 -9.87744e-16 0)
(-9.00905e-21 -9.87743e-16 0)
(-8.81708e-21 -9.87741e-16 0)
(-8.5475e-21 -9.8774e-16 0)
(-8.20673e-21 -9.87739e-16 0)
(-7.79999e-21 -9.87738e-16 0)
(-7.33114e-21 -9.87737e-16 0)
(-6.80254e-21 -9.87736e-16 0)
(-6.215e-21 -9.87736e-16 0)
(-5.56777e-21 -9.87735e-16 0)
(-4.85861e-21 -9.87734e-16 0)
(-4.0839e-21 -9.87733e-16 0)
(-3.23881e-21 -9.87732e-16 0)
(-2.31763e-21 -9.87731e-16 0)
(-1.31418e-21 -9.8773e-16 0)
(-2.22309e-22 -9.8773e-16 0)
(9.6324e-22 -9.87729e-16 0)
(2.24587e-21 -9.87728e-16 0)
(3.62581e-21 -9.87728e-16 0)
(5.09851e-21 -9.87727e-16 0)
(6.65281e-21 -9.87727e-16 0)
(8.26892e-21 -9.87727e-16 0)
(9.91651e-21 -9.87727e-16 0)
(1.15533e-20 -9.87728e-16 0)
(3.4081e-20 -4.09529e-15 0)
(2.38077e-11 -1.8254e-05 0)
(-2.2042e-08 -0.000488146 0)
(-5.09618e-22 -9.87753e-16 0)
(-1.50983e-21 -9.87753e-16 0)
(-2.46338e-21 -9.87753e-16 0)
(-3.35445e-21 -9.87752e-16 0)
(-4.16998e-21 -9.87752e-16 0)
(-4.89977e-21 -9.87751e-16 0)
(-5.5364e-21 -9.8775e-16 0)
(-6.07506e-21 -9.87749e-16 0)
(-6.51342e-21 -9.87748e-16 0)
(-6.85129e-21 -9.87748e-16 0)
(-7.09032e-21 -9.87747e-16 0)
(-7.23364e-21 -9.87746e-16 0)
(-7.28548e-21 -9.87745e-16 0)
(-7.25076e-21 -9.87744e-16 0)
(-7.13477e-21 -9.87743e-16 0)
(-6.94279e-21 -9.87742e-16 0)
(-6.67982e-21 -9.87741e-16 0)
(-6.35032e-21 -9.8774e-16 0)
(-5.95809e-21 -9.87739e-16 0)
(-5.50609e-21 -9.87738e-16 0)
(-4.9964e-21 -9.87738e-16 0)
(-4.43028e-21 -9.87737e-16 0)
(-3.80816e-21 -9.87736e-16 0)
(-3.1298e-21 -9.87735e-16 0)
(-2.39445e-21 -9.87735e-16 0)
(-1.60113e-21 -9.87734e-16 0)
(-7.48875e-22 -9.87733e-16 0)
(1.6281e-22 -9.87733e-16 0)
(1.13353e-21 -9.87732e-16 0)
(2.16147e-21 -9.87732e-16 0)
(3.24278e-21 -9.87731e-16 0)
(4.37095e-21 -9.87731e-16 0)
(5.53627e-21 -9.87731e-16 0)
(6.72529e-21 -9.87731e-16 0)
(7.92059e-21 -9.87731e-16 0)
(9.1009e-21 -9.87731e-16 0)
(1.02417e-20 -9.87731e-16 0)
(3.079e-20 -4.36666e-15 0)
(1.75456e-11 -1.63364e-05 0)
(-2.51877e-08 -0.000487812 0)
(-4.0695e-22 -9.87752e-16 0)
(-1.20551e-21 -9.87752e-16 0)
(-1.96639e-21 -9.87751e-16 0)
(-2.67668e-21 -9.87751e-16 0)
(-3.3257e-21 -9.8775e-16 0)
(-3.905e-21 -9.8775e-16 0)
(-4.40833e-21 -9.87749e-16 0)
(-4.83148e-21 -9.87749e-16 0)
(-5.17214e-21 -9.87748e-16 0)
(-5.42967e-21 -9.87747e-16 0)
(-5.6048e-21 -9.87746e-16 0)
(-5.69944e-21 -9.87746e-16 0)
(-5.71633e-21 -9.87745e-16 0)
(-5.65879e-21 -9.87744e-16 0)
(-5.53049e-21 -9.87743e-16 0)
(-5.33516e-21 -9.87742e-16 0)
(-5.07647e-21 -9.87742e-16 0)
(-4.75781e-21 -9.87741e-16 0)
(-4.38224e-21 -9.8774e-16 0)
(-3.95242e-21 -9.87739e-16 0)
(-3.47055e-21 -9.87739e-16 0)
(-2.93848e-21 -9.87738e-16 0)
(-2.35773e-21 -9.87737e-16 0)
(-1.72963e-21 -9.87737e-16 0)
(-1.05545e-21 -9.87736e-16 0)
(-3.36623e-22 -9.87736e-16 0)
(4.25041e-22 -9.87735e-16 0)
(1.22712e-21 -9.87735e-16 0)
(2.06634e-21 -9.87734e-16 0)
(2.93826e-21 -9.87734e-16 0)
(3.83709e-21 -9.87734e-16 0)
(4.75552e-21 -9.87734e-16 0)
(5.68459e-21 -9.87734e-16 0)
(6.61373e-21 -9.87734e-16 0)
(7.531e-21 -9.87734e-16 0)
(8.42347e-21 -9.87734e-16 0)
(9.27782e-21 -9.87734e-16 0)
(2.87675e-20 -4.65347e-15 0)
(1.47817e-11 -1.4687e-05 0)
(-2.71005e-08 -0.00048745 0)
(-3.21776e-22 -9.87751e-16 0)
(-9.52968e-22 -9.87751e-16 0)
(-1.55369e-21 -9.8775e-16 0)
(-2.11331e-21 -9.8775e-16 0)
(-2.623e-21 -9.8775e-16 0)
(-3.0757e-21 -9.87749e-16 0)
(-3.4661e-21 -9.87749e-16 0)
(-3.79048e-21 -9.87748e-16 0)
(-4.04664e-21 -9.87747e-16 0)
(-4.23364e-21 -9.87747e-16 0)
(-4.3517e-21 -9.87746e-16 0)
(-4.40192e-21 -9.87746e-16 0)
(-4.3861e-21 -9.87745e-16 0)
(-4.30656e-21 -9.87744e-16 0)
(-4.16595e-21 -9.87743e-16 0)
(-3.96709e-21 -9.87743e-16 0)
(-3.71284e-21 -9.87742e-16 0)
(-3.40601e-21 -9.87741e-16 0)
(-3.04927e-21 -9.87741e-16 0)
(-2.64518e-21 -9.8774e-16 0)
(-2.19613e-21 -9.8774e-16 0)
(-1.7044e-21 -9.87739e-16 0)
(-1.1722e-21 -9.87739e-16 0)
(-6.01794e-22 -9.87738e-16 0)
(4.44531e-24 -9.87738e-16 0)
(6.4389e-22 -9.87737e-16 0)
(1.31355e-21 -9.87737e-16 0)
(2.00994e-21 -9.87737e-16 0)
(2.72898e-21 -9.87736e-16 0)
(3.46592e-21 -9.87736e-16 0)
(4.21526e-21 -9.87736e-16 0)
(4.97078e-21 -9.87736e-16 0)
(5.72562e-21 -9.87736e-16 0)
(6.47234e-21 -9.87736e-16 0)
(7.20322e-21 -9.87736e-16 0)
(7.91048e-21 -9.87736e-16 0)
(8.58662e-21 -9.87736e-16 0)
(2.76933e-20 -4.99027e-15 0)
(1.36918e-11 -1.32234e-05 0)
(-2.82017e-08 -0.000487069 0)
(-2.50936e-22 -9.8775e-16 0)
(-7.42862e-22 -9.8775e-16 0)
(-1.21013e-21 -9.8775e-16 0)
(-1.64394e-21 -9.87749e-16 0)
(-2.03691e-21 -9.87749e-16 0)
(-2.38312e-21 -9.87749e-16 0)
(-2.67799e-21 -9.87748e-16 0)
(-2.91829e-21 -9.87748e-16 0)
(-3.10193e-21 -9.87747e-16 0)
(-3.2279e-21 -9.87747e-16 0)
(-3.29607e-21 -9.87746e-16 0)
(-3.30707e-21 -9.87746e-16 0)
(-3.26214e-21 -9.87745e-16 0)
(-3.16297e-21 -9.87744e-16 0)
(-3.01158e-21 -9.87744e-16 0)
(-2.81021e-21 -9.87743e-16 0)
(-2.56124e-21 -9.87743e-16 0)
(-2.26711e-21 -9.87742e-16 0)
(-1.93029e-21 -9.87742e-16 0)
(-1.55324e-21 -9.87741e-16 0)
(-1.13843e-21 -9.87741e-16 0)
(-6.88338e-22 -9.8774e-16 0)
(-2.05507e-22 -9.8774e-16 0)
(3.07429e-22 -9.87739e-16 0)
(8.4768e-22 -9.87739e-16 0)
(1.41225e-21 -9.87739e-16 0)
(1.9979e-21 -9.87738e-16 0)
(2.60106e-21 -9.87738e-16 0)
(3.21786e-21 -9.87738e-16 0)
(3.8441e-21 -9.87738e-16 0)
(4.47526e-21 -9.87738e-16 0)
(5.10655e-21 -9.87738e-16 0)
(5.73304e-21 -9.87738e-16 0)
(6.34972e-21 -9.87738e-16 0)
(6.95165e-21 -9.87738e-16 0)
(7.53418e-21 -9.87738e-16 0)
(8.09304e-21 -9.87738e-16 0)
(2.75266e-20 -5.33366e-15 0)
(1.33044e-11 -1.18939e-05 0)
(-2.87335e-08 -0.00048667 0)
(-1.9193e-22 -9.87749e-16 0)
(-5.67812e-22 -9.87749e-16 0)
(-9.23769e-22 -9.87749e-16 0)
(-1.25244e-21 -9.87749e-16 0)
(-1.54763e-21 -9.87748e-16 0)
(-1.80432e-21 -9.87748e-16 0)
(-2.01861e-21 -9.87748e-16 0)
(-2.18764e-21 -9.87747e-16 0)
(-2.30952e-21 -9.87747e-16 0)
(-2.38323e-21 -9.87747e-16 0)
(-2.40848e-21 -9.87746e-16 0)
(-2.38565e-21 -9.87746e-16 0)
(-2.31559e-21 -9.87745e-16 0)
(-2.19963e-21 -9.87745e-16 0)
(-2.03938e-21 -9.87744e-16 0)
(-1.83672e-21 -9.87744e-16 0)
(-1.59371e-21 -9.87743e-16 0)
(-1.31253e-21 -9.87743e-16 0)
(-9.95453e-22 -9.87742e-16 0)
(-6.4484e-22 -9.87742e-16 0)
(-2.63109e-22 -9.87741e-16 0)
(1.4725e-22 -9.87741e-16 0)
(5.83668e-22 -9.87741e-16 0)
(1.04348e-21 -9.8774e-16 0)
(1.5239e-21 -9.8774e-16 0)
(2.02202e-21 -9.8774e-16 0)
(2.53479e-21 -9.8774e-16 0)
(3.05902e-21 -9.87739e-16 0)
(3.59138e-21 -9.87739e-16 0)
(4.12844e-21 -9.87739e-16 0)
(4.66669e-21 -9.87739e-16 0)
(5.20261e-21 -9.87739e-16 0)
(5.73274e-21 -9.87739e-16 0)
(6.25373e-21 -9.87739e-16 0)
(6.76245e-21 -9.87739e-16 0)
(7.25611e-21 -9.87739e-16 0)
(7.73228e-21 -9.87739e-16 0)
(2.74228e-20 -5.6909e-15 0)
(1.30494e-11 -1.06654e-05 0)
(-2.88318e-08 -0.000486259 0)
(-1.42766e-22 -9.87749e-16 0)
(-4.21934e-22 -9.87749e-16 0)
(-6.85038e-22 -9.87748e-16 0)
(-9.25885e-22 -9.87748e-16 0)
(-1.13925e-21 -9.87748e-16 0)
(-1.32085e-21 -9.87748e-16 0)
(-1.46735e-21 -9.87748e-16 0)
(-1.57625e-21 -9.87747e-16 0)
(-1.64587e-21 -9.87747e-16 0)
(-1.67523e-21 -9.87746e-16 0)
(-1.66399e-21 -9.87746e-16 0)
(-1.61237e-21 -9.87746e-16 0)
(-1.52102e-21 -9.87745e-16 0)
(-1.39102e-21 -9.87745e-16 0)
(-1.22372e-21 -9.87744e-16 0)
(-1.02074e-21 -9.87744e-16 0)
(-7.83906e-22 -9.87744e-16 0)
(-5.15183e-22 -9.87743e-16 0)
(-2.16673e-22 -9.87743e-16 0)
(1.09423e-22 -9.87743e-16 0)
(4.60818e-22 -9.87742e-16 0)
(8.35145e-22 -9.87742e-16 0)
(1.22997e-21 -9.87742e-16 0)
(1.64278e-21 -9.87741e-16 0)
(2.07101e-21 -9.87741e-16 0)
(2.51203e-21 -9.87741e-16 0)
(2.96317e-21 -9.87741e-16 0)
(3.42171e-21 -9.87741e-16 0)
(3.88492e-21 -9.8774e-16 0)
(4.35009e-21 -9.8774e-16 0)
(4.81458e-21 -9.8774e-16 0)
(5.2758e-21 -9.8774e-16 0)
(5.73133e-21 -9.8774e-16 0)
(6.1789e-21 -9.8774e-16 0)
(6.6165e-21 -9.8774e-16 0)
(7.04235e-21 -9.8774e-16 0)
(7.45497e-21 -9.8774e-16 0)
(2.79043e-20 -6.06778e-15 0)
(1.26074e-11 -9.51776e-06 0)
(-2.85771e-08 -0.000485837 0)
(-1.01844e-22 -9.87748e-16 0)
(-3.00495e-22 -9.87748e-16 0)
(-4.86247e-22 -9.87748e-16 0)
(-6.53856e-22 -9.87748e-16 0)
(-7.98882e-22 -9.87748e-16 0)
(-9.17677e-22 -9.87748e-16 0)
(-1.00736e-21 -9.87747e-16 0)
(-1.06576e-21 -9.87747e-16 0)
(-1.0914e-21 -9.87747e-16 0)
(-1.08338e-21 -9.87746e-16 0)
(-1.04137e-21 -9.87746e-16 0)
(-9.65486e-22 -9.87746e-16 0)
(-8.56275e-22 -9.87745e-16 0)
(-7.14628e-22 -9.87745e-16 0)
(-5.41726e-22 -9.87745e-16 0)
(-3.38997e-22 -9.87744e-16 0)
(-1.08068e-22 -9.87744e-16 0)
(1.49274e-22 -9.87744e-16 0)
(4.31106e-22 -9.87744e-16 0)
(7.35401e-22 -9.87743e-16 0)
(1.06005e-21 -9.87743e-16 0)
(1.40286e-21 -9.87743e-16 0)
(1.76161e-21 -9.87742e-16 0)
(2.13402e-21 -9.87742e-16 0)
(2.5178e-21 -9.87742e-16 0)
(2.91065e-21 -9.87742e-16 0)
(3.31028e-21 -9.87742e-16 0)
(3.71445e-21 -9.87742e-16 0)
(4.12094e-21 -9.87741e-16 0)
(4.52763e-21 -9.87741e-16 0)
(4.93253e-21 -9.87741e-16 0)
(5.33374e-21 -9.87741e-16 0)
(5.72955e-21 -9.87741e-16 0)
(6.11845e-21 -9.87741e-16 0)
(6.49911e-21 -9.87741e-16 0)
(6.87049e-21 -9.87741e-16 0)
(7.23177e-21 -9.87741e-16 0)
(2.82868e-20 -6.45675e-15 0)
(1.18591e-11 -8.43831e-06 0)
(-2.8023e-08 -0.000485409 0)
(-6.78714e-23 -9.87748e-16 0)
(-1.99665e-22 -9.87748e-16 0)
(-3.21158e-22 -9.87748e-16 0)
(-4.2788e-22 -9.87748e-16 0)
(-5.16035e-22 -9.87748e-16 0)
(-5.82494e-22 -9.87747e-16 0)
(-6.24769e-22 -9.87747e-16 0)
(-6.40982e-22 -9.87747e-16 0)
(-6.29822e-22 -9.87747e-16 0)
(-5.90495e-22 -9.87747e-16 0)
(-5.22676e-22 -9.87746e-16 0)
(-4.26457e-22 -9.87746e-16 0)
(-3.02293e-22 -9.87746e-16 0)
(-1.50957e-22 -9.87745e-16 0)
(2.65077e-23 -9.87745e-16 0)
(2.28827e-22 -9.87745e-16 0)
(4.54536e-22 -9.87745e-16 0)
(7.0201e-22 -9.87744e-16 0)
(9.69495e-22 -9.87744e-16 0)
(1.25514e-21 -9.87744e-16 0)
(1.557e-21 -9.87744e-16 0)
(1.8731e-21 -9.87743e-16 0)
(2.2014e-21 -9.87743e-16 0)
(2.53987e-21 -9.87743e-16 0)
(2.88649e-21 -9.87743e-16 0)
(3.23923e-21 -9.87743e-16 0)
(3.59616e-21 -9.87743e-16 0)
(3.95538e-21 -9.87742e-16 0)
(4.3151e-21 -9.87742e-16 0)
(4.67365e-21 -9.87742e-16 0)
(5.02948e-21 -9.87742e-16 0)
(5.38118e-21 -9.87742e-16 0)
(5.72752e-21 -9.87742e-16 0)
(6.06743e-21 -9.87742e-16 0)
(6.40003e-21 -9.87742e-16 0)
(6.72462e-21 -9.87742e-16 0)
(7.04068e-21 -9.87742e-16 0)
(2.89975e-20 -6.80275e-15 0)
(1.08401e-11 -7.41922e-06 0)
(-2.72035e-08 -0.00048498 0)
(-3.97958e-23 -9.87748e-16 0)
(-1.16332e-22 -9.87748e-16 0)
(-1.84696e-22 -9.87748e-16 0)
(-2.4105e-22 -9.87748e-16 0)
(-2.82125e-22 -9.87748e-16 0)
(-3.05219e-22 -9.87747e-16 0)
(-3.08174e-22 -9.87747e-16 0)
(-2.89349e-22 -9.87747e-16 0)
(-2.47592e-22 -9.87747e-16 0)
(-1.82194e-22 -9.87747e-16 0)
(-9.28558e-23 -9.87746e-16 0)
(2.03559e-23 -9.87746e-16 0)
(1.57049e-22 -9.87746e-16 0)
(3.16544e-22 -9.87746e-16 0)
(4.97912e-22 -9.87746e-16 0)
(7.0001e-22 -9.87745e-16 0)
(9.21512e-22 -9.87745e-16 0)
(1.16094e-21 -9.87745e-16 0)
(1.41669e-21 -9.87745e-16 0)
(1.68705e-21 -9.87744e-16 0)
(1.97026e-21 -9.87744e-16 0)
(2.26449e-21 -9.87744e-16 0)
(2.56789e-21 -9.87744e-16 0)
(2.8786e-21 -9.87744e-16 0)
(3.1948e-21 -9.87744e-16 0)
(3.5147e-21 -9.87743e-16 0)
(3.8366e-21 -9.87743e-16 0)
(4.15886e-21 -9.87743e-16 0)
(4.47997e-21 -9.87743e-16 0)
(4.79857e-21 -9.87743e-16 0)
(5.11341e-21 -9.87743e-16 0)
(5.42341e-21 -9.87743e-16 0)
(5.72767e-21 -9.87743e-16 0)
(6.02545e-21 -9.87743e-16 0)
(6.31616e-21 -9.87743e-16 0)
(6.59942e-21 -9.87743e-16 0)
(6.87495e-21 -9.87743e-16 0)
(2.91199e-20 -7.01504e-15 0)
(9.65997e-12 -6.45587e-06 0)
(-2.61528e-08 -0.000484553 0)
(-1.67623e-23 -9.87748e-16 0)
(-4.79619e-23 -9.87748e-16 0)
(-7.27269e-23 -9.87748e-16 0)
(-8.77323e-23 -9.87748e-16 0)
(-9.01411e-23 -9.87748e-16 0)
(-7.75975e-23 -9.87747e-16 0)
(-4.82123e-23 -9.87747e-16 0)
(-5.40785e-25 -9.87747e-16 0)
(6.64435e-23 -9.87747e-16 0)
(1.53379e-22 -9.87747e-16 0)
(2.60547e-22 -9.87747e-16 0)
(3.87907e-22 -9.87746e-16 0)
(5.35125e-22 -9.87746e-16 0)
(7.01606e-22 -9.87746e-16 0)
(8.86527e-22 -9.87746e-16 0)
(1.08886e-21 -9.87746e-16 0)
(1.30741e-21 -9.87745e-16 0)
(1.54082e-21 -9.87745e-16 0)
(1.78762e-21 -9.87745e-16 0)
(2.04623e-21 -9.87745e-16 0)
(2.31501e-21 -9.87745e-16 0)
(2.59224e-21 -9.87745e-16 0)
(2.8762e-21 -9.87745e-16 0)
(3.16515e-21 -9.87744e-16 0)
(3.45738e-21 -9.87744e-16 0)
(3.75122e-21 -9.87744e-16 0)
(4.04509e-21 -9.87744e-16 0)
(4.33749e-21 -9.87744e-16 0)
(4.62707e-21 -9.87744e-16 0)
(4.9126e-21 -9.87744e-16 0)
(5.19303e-21 -9.87744e-16 0)
(5.46748e-21 -9.87744e-16 0)
(5.73525e-21 -9.87744e-16 0)
(5.99583e-21 -9.87744e-16 0)