/*--------------------------------*- C++ -*----------------------------------*\
  =========                 |
  \\      /  F ield         | OpenFOAM: The Open Source CFD Toolbox
   \\    /   O peration     | Website:  https://openfoam.org
    \\  /    A nd           | Version:  10
     \\/     M anipulation  |
\*---------------------------------------------------------------------------*/
FoamFile
{
    format      ascii;
    class       volVectorField;
    location    "1.72";
    object      Ub;
}
// * * * * * * * * * * * * * * * * * * * * * * * * * * * * * * * * * * * * * //

dimensions      [0 1 -1 0 0 0 0];

internalField   nonuniform List<vector> 
12225
(
(0.0022499 -0.000454935 0)
(0.00642506 -0.000405694 0)
(0.00987372 -0.000334689 0)
(0.0125484 -0.000263857 0)
(0.0145551 -0.000204599 0)
(0.0160518 -0.000160226 0)
(0.0171915 -0.000129999 0)
(0.0181006 -0.000111913 0)
(0.0188778 -0.000104113 0)
(0.0196008 -0.000105528 0)
(0.0203351 -0.000116225 0)
(0.0211439 -0.000137881 0)
(0.0221014 -0.000174848 0)
(0.0233146 -0.000236921 0)
(0.0249705 -0.000347389 0)
(0.0274741 -0.000571641 0)
(0.0319838 -0.00115267 0)
(0.0434465 -0.00342114 0)
(0.00239396 -0.0014284 0)
(0.00682783 -0.00127182 0)
(0.0104721 -0.0010469 0)
(0.0132806 -0.000823235 0)
(0.0153727 -0.000636639 0)
(0.016922 -0.000497253 0)
(0.0180935 -0.000402501 0)
(0.0190226 -0.000345902 0)
(0.0198139 -0.000321512 0)
(0.0205491 -0.000325875 0)
(0.0212961 -0.000359079 0)
(0.0221199 -0.000426162 0)
(0.0230951 -0.000540268 0)
(0.0243261 -0.000730672 0)
(0.025986 -0.00106533 0)
(0.028408 -0.00172502 0)
(0.0322684 -0.00330351 0)
(0.0381407 -0.008342 0)
(0.00250439 -0.00252814 0)
(0.00713048 -0.00224538 0)
(0.0109075 -0.00184176 0)
(0.0137944 -0.00144261 0)
(0.0159266 -0.00111122 0)
(0.0174926 -0.000864679 0)
(0.0186681 -0.000697646 0)
(0.0195949 -0.000598118 0)
(0.0203812 -0.000555239 0)
(0.0211101 -0.000562606 0)
(0.0218498 -0.000619992 0)
(0.0226636 -0.000735553 0)
(0.0236214 -0.000930751 0)
(0.0248147 -0.00125245 0)
(0.026379 -0.00180456 0)
(0.0285174 -0.00283894 0)
(0.0314144 -0.00503856 0)
(0.034185 -0.0103604 0)
(0.00261638 -0.00375996 0)
(0.00743125 -0.00332818 0)
(0.0113257 -0.00271724 0)
(0.0142688 -0.00211782 0)
(0.0164179 -0.00162354 0)
(0.0179799 -0.00125789 0)
(0.0191421 -0.00101126 0)
(0.020052 -0.000864742 0)
(0.0208203 -0.000801548 0)
(0.0215303 -0.000811599 0)
(0.0222485 -0.000893747 0)
(0.023034 -0.00105848 0)
(0.0239482 -0.00133384 0)
(0.0250622 -0.00177934 0)
(0.0264615 -0.00251871 0)
(0.0282171 -0.00381809 0)
(0.0301992 -0.00625792 0)
(0.0313088 -0.0109312 0)
(0.00274412 -0.00514176 0)
(0.00776789 -0.00453085 0)
(0.011779 -0.00367658 0)
(0.0147634 -0.00284747 0)
(0.0169094 -0.00217012 0)
(0.0184478 -0.00167281 0)
(0.0195795 -0.00133932 0)
(0.0204579 -0.00114196 0)
(0.0211952 -0.00105663 0)
(0.0218736 -0.00106863 0)
(0.0225562 -0.00117498 0)
(0.0232961 -0.00138713 0)
(0.0241426 -0.00173688 0)
(0.0251429 -0.00228934 0)
(0.0263318 -0.00316957 0)
(0.027679 -0.00461163 0)
(0.0289165 -0.00701552 0)
(0.0291505 -0.0108256 0)
(0.00289917 -0.0067007 0)
(0.00816928 -0.00586925 0)
(0.0123032 -0.00472458 0)
(0.0153145 -0.00362967 0)
(0.0174356 -0.00274615 0)
(0.0189286 -0.00210388 0)
(0.0200104 -0.00167644 0)
(0.0208409 -0.00142467 0)
(0.0215329 -0.00131551 0)
(0.0221661 -0.00132832 0)
(0.0227987 -0.00145707 0)
(0.0234759 -0.00171235 0)
(0.0242333 -0.00212611 0)
(0.025094 -0.00276139 0)
(0.0260507 -0.00372866 0)
(0.0270129 -0.00520399 0)
(0.0276926 -0.00741117 0)
(0.0274741 -0.0104228 0)
(0.00309472 -0.00847523 0)
(0.00866668 -0.00736445 0)
(0.0129337 -0.00586628 0)
(0.0159545 -0.00446042 0)
(0.0180236 -0.00334412 0)
(0.0194445 -0.00254298 0)
(0.0204538 -0.00201498 0)
(0.0212176 -0.00170594 0)
(0.0218482 -0.00157154 0)
(0.0224213 -0.00158374 0)
(0.022989 -0.00173192 0)
(0.0235873 -0.00202367 0)
(0.0242378 -0.00248733 0)
(0.0249427 -0.00317707 0)
(0.0256657 -0.00417843 0)
(0.0262929 -0.00560369 0)
(0.0265765 -0.00754281 0)
(0.0261325 -0.00990011 0)
(0.00334851 -0.0105197 0)
(0.00930013 -0.0090435 0)
(0.0137122 -0.00710549 0)
(0.0167172 -0.00533169 0)
(0.0186987 -0.00395219 0)
(0.0200142 -0.00297827 0)
(0.0209235 -0.00234434 0)
(0.0215987 -0.00197637 0)
(0.0221498 -0.00181605 0)
(0.0226471 -0.00182617 0)
(0.023135 -0.00198992 0)
(0.0236398 -0.00230967 0)
(0.0241705 -0.00280678 0)
(0.024713 -0.00352184 0)
(0.0252159 -0.00451158 0)
(0.0255675 -0.00583228 0)
(0.0255801 -0.00748943 0)
(0.025032 -0.0093365 0)
(0.00368652 -0.0129123 0)
(0.0101258 -0.0109405 0)
(0.0146926 -0.00844225 0)
(0.0176425 -0.00622854 0)
(0.0194874 -0.00455198 0)
(0.0206549 -0.00339268 0)
(0.0214309 -0.00264992 0)
(0.0219919 -0.00222353 0)
(0.0224436 -0.00203801 0)
(0.0228485 -0.00204506 0)
(0.0232424 -0.0022201 0)
(0.0236416 -0.00255843 0)
(0.0240443 -0.003072 0)
(0.0244263 -0.00378565 0)
(0.024732 -0.0047288 0)
(0.0248661 -0.00591594 0)
(0.0246985 -0.00730858 0)
(0.0241105 -0.00876505 0)
(0.00414914 -0.0157689 0)
(0.0112266 -0.0130968 0)
(0.0159477 -0.00986803 0)
(0.018779 -0.0071244 0)
(0.0204185 -0.00511536 0)
(0.0213827 -0.00376197 0)
(0.021985 -0.00291204 0)
(0.0224026 -0.00243136 0)
(0.0227331 -0.00222369 0)
(0.0230289 -0.00222791 0)
(0.0233157 -0.00241039 0)
(0.0236001 -0.00275807 0)
(0.0238719 -0.00327241 0)
(0.0241016 -0.00396275 0)
(0.0242374 -0.00483607 0)
(0.0242047 -0.00588009 0)
(0.0239201 -0.00703958 0)
(0.0233255 -0.0081979 0)
(0.0048025 -0.0192674 0)
(0.0127313 -0.0155595 0)
(0.0175793 -0.0113562 0)
(0.0201865 -0.00797338 0)
(0.0215225 -0.00559983 0)
(0.0222118 -0.00405231 0)
(0.0225917 -0.00310473 0)
(0.022833 -0.00257961 0)
(0.0230195 -0.00235659 0)
(0.02319 -0.00236046 0)
(0.0233584 -0.00254796 0)
(0.0235221 -0.00289729 0)
(0.0236644 -0.00339962 0)
(0.0237546 -0.00405095 0)
(0.0237479 -0.00484215 0)
(0.0235902 -0.00574661 0)
(0.0232311 -0.00670812 0)
(0.0226464 -0.00763791 0)
(0.00569075 -0.0232699 0)
(0.0146952 -0.0181272 0)
(0.0195812 -0.0127316 0)
(0.0218209 -0.00865459 0)
(0.0227479 -0.00592887 0)
(0.0230986 -0.00421568 0)
(0.0232202 -0.00319641 0)
(0.0232653 -0.00264561 0)
(0.0232971 -0.00241863 0)
(0.0233376 -0.00242713 0)
(0.0233881 -0.00261929 0)
(0.0234375 -0.0029658 0)
(0.0234647 -0.00344956 0)
(0.0234393 -0.00405697 0)
(0.0233242 -0.0047693 0)
(0.0230802 -0.00555454 0)
(0.0226771 -0.00636212 0)
(0.0221067 -0.00712599 0)
(0.00693753 -0.0284048 0)
(0.0173216 -0.0209703 0)
(0.0220621 -0.0139752 0)
(0.0237134 -0.00911125 0)
(0.0240863 -0.00605239 0)
(0.0240172 -0.00421538 0)
(0.0238368 -0.00316151 0)
(0.0236623 -0.00261178 0)
(0.0235269 -0.00239791 0)
(0.0234313 -0.00242024 0)
(0.0233628 -0.00262012 0)
(0.0233015 -0.00296249 0)
(0.0232225 -0.00342428 0)
(0.023097 -0.00398579 0)
(0.0228944 -0.00462364 0)
(0.0225873 -0.0053057 0)
(0.0221584 -0.00598949 0)
(0.0216075 -0.00662643 0)
(0.00918777 -0.036428 0)
(0.0217599 -0.0244619 0)
(0.0258334 -0.0150037 0)
(0.0263535 -0.00919215 0)
(0.0258342 -0.00584373 0)
(0.0251557 -0.00395857 0)
(0.0245667 -0.00293393 0)
(0.0241094 -0.00243108 0)
(0.0237669 -0.00226064 0)
(0.0235088 -0.00231508 0)
(0.0233035 -0.00253177 0)
(0.0231209 -0.00287224 0)
(0.0229318 -0.0033098 0)
(0.0227088 -0.00382155 0)
(0.0224273 -0.00438299 0)
(0.0220686 -0.00496525 0)
(0.0216237 -0.00553527 0)
(0.0210958 -0.00605943 0)
(0.0137866 -0.0504422 0)
(0.0299962 -0.0280251 0)
(0.031746 -0.0149323 0)
(0.0299988 -0.00829791 0)
(0.028035 -0.0049398 0)
(0.0264919 -0.00322247 0)
(0.0253716 -0.00236965 0)
(0.0245682 -0.00200405 0)
(0.0239835 -0.00193321 0)
(0.0235426 -0.00205357 0)
(0.0231896 -0.00230602 0)
(0.0228819 -0.00265392 0)
(0.0225857 -0.00307123 0)
(0.0222738 -0.00353582 0)
(0.0219257 -0.00402579 0)
(0.021528 -0.00451806 0)
(0.0210757 -0.00498913 0)
(0.0205725 -0.00541738 0)
(0.0249527 -0.079489 0)
(0.0473348 -0.0275444 0)
(0.0409908 -0.0111798 0)
(0.034662 -0.00519484 0)
(0.0304927 -0.00273742 0)
(0.0278399 -0.00168459 0)
(0.0261084 -0.00127753 0)
(0.0249334 -0.00120579 0)
(0.0241003 -0.00132671 0)
(0.0234784 -0.00156779 0)
(0.0229841 -0.00188835 0)
(0.0225611 -0.00226273 0)
(0.0221703 -0.00267199 0)
(0.0217841 -0.00309976 0)
(0.0213839 -0.0035303 0)
(0.0209593 -0.00394815 0)
(0.0205064 -0.00433882 0)
(0.0200276 -0.00469005 0)
(0.059267 0.000495754 0)
(0.0906602 0.00293989 0)
(0.0530046 0.00245349 0)
(0.0389033 0.00187593 0)
(0.0323163 0.00138133 0)
(0.0287084 0.000930444 0)
(0.0265058 0.000496126 0)
(0.0250513 6.63483e-05 0)
(0.0240269 -0.000363732 0)
(0.023259 -0.000793203 0)
(0.0226448 -0.00122258 0)
(0.0221214 -0.00165037 0)
(0.0216486 -0.00207195 0)
(0.0212002 -0.0024815 0)
(0.0207594 -0.00287231 0)
(0.0203169 -0.00323743 0)
(0.0198689 -0.00357046 0)
(0.0194154 -0.00386634 0)
(0.0205019 0.0760638 0)
(0.040529 0.0318669 0)
(0.0373914 0.0162443 0)
(0.0326062 0.00948685 0)
(0.029025 0.00601994 0)
(0.0265738 0.00397186 0)
(0.024888 0.00261261 0)
(0.0236908 0.00162064 0)
(0.022803 0.000840159 0)
(0.0221127 0.000192415 0)
(0.021549 -0.000368293 0)
(0.0210623 -0.000863089 0)
(0.0206193 -0.00130999 0)
(0.0202007 -0.00171636 0)
(0.0197948 -0.00208505 0)
(0.019395 -0.00241701 0)
(0.0189985 -0.00271247 0)
(0.0186049 -0.00297165 0)
(0.00782561 0.0403011 0)
(0.0187363 0.0277825 0)
(0.0226213 0.0184113 0)
(0.0233809 0.0123944 0)
(0.0230516 0.00854302 0)
(0.0224357 0.00598665 0)
(0.0218085 0.00420737 0)
(0.0212463 0.00290753 0)
(0.0207566 0.00191431 0)
(0.0203264 0.00112508 0)
(0.0199392 0.000477171 0)
(0.0195826 -6.36774e-05 0)
(0.0192467 -0.000525788 0)
(0.0189219 -0.000924753 0)
(0.0186022 -0.00127329 0)
(0.0182852 -0.00157801 0)
(0.0179702 -0.00184362 0)
(0.0176575 -0.00207384 0)
(0.00425263 0.0244202 0)
(0.0111721 0.0201582 0)
(0.0152627 0.0154989 0)
(0.0173794 0.0116151 0)
(0.0183782 0.00863986 0)
(0.0187931 0.00641113 0)
(0.0189119 0.00473526 0)
(0.0188802 0.00345525 0)
(0.0187699 0.00245733 0)
(0.0186157 0.0016624 0)
(0.0184345 0.00101618 0)
(0.0182347 0.000481516 0)
(0.0180215 3.39458e-05 0)
(0.0177987 -0.000342492 0)
(0.017568 -0.000663164 0)
(0.0173302 -0.000938824 0)
(0.0170876 -0.00117607 0)
(0.0168421 -0.00138004 0)
(0.00292224 0.0171917 0)
(0.00802134 0.015101 0)
(0.0116401 0.0124008 0)
(0.013984 0.00982943 0)
(0.0154339 0.00764907 0)
(0.0163073 0.00588774 0)
(0.0168191 0.00448922 0)
(0.0171033 0.00338017 0)
(0.0172409 0.00249444 0)
(0.0172807 0.0017792 0)
(0.0172526 0.00119445 0)
(0.0171757 0.000710578 0)
(0.0170625 0.00030591 0)
(0.0169228 -3.42854e-05 0)
(0.0167636 -0.000320258 0)
(0.0165893 -0.00056407 0)
(0.0164036 -0.000772907 0)
(0.01621 -0.000951884 0)
(0.00226193 0.0126596 0)
(0.00635434 0.0114599 0)
(0.00953583 0.00976418 0)
(0.0118356 0.00801328 0)
(0.0134338 0.00642652 0)
(0.0145206 0.00507569 0)
(0.0152482 0.00395931 0)
(0.0157256 0.00304748 0)
(0.0160272 0.00230392 0)
(0.0162033 0.00169515 0)
(0.016288 0.00119328 0)
(0.0163048 0.000776269 0)
(0.0162705 0.000427066 0)
(0.0161974 0.000132639 0)
(0.0160955 -0.0001151 0)
(0.015972 -0.000324379 0)
(0.0158318 -0.000503341 0)
(0.0156793 -0.000656577 0)
(0.00188804 0.00950695 0)
(0.00537408 0.00874966 0)
(0.0082265 0.00762117 0)
(0.010422 0.00639524 0)
(0.0120507 0.00523418 0)
(0.0132322 0.00420932 0)
(0.0140759 0.00333766 0)
(0.0146686 0.00260983 0)
(0.0150755 0.00200654 0)
(0.0153438 0.00150682 0)
(0.0155079 0.00109161 0)
(0.0155929 0.000744902 0)
(0.0156173 0.000453759 0)
(0.0155952 0.000207954 0)
(0.0155374 -2.03949e-07 0)
(0.0154527 -0.000175154 0)
(0.0153476 -0.00032445 0)
(0.0152269 -0.000452311 0)
(0.0016562 0.00716533 0)
(0.00475162 0.00666034 0)
(0.00736392 0.00588244 0)
(0.00945381 0.0050091 0)
(0.0110681 0.00415717 0)
(0.0122865 0.00338613 0)
(0.0131905 0.00271685 0)
(0.0138507 0.00214894 0)
(0.0143236 0.00167236 0)
(0.0146529 0.00127397 0)
(0.0148715 0.000940761 0)
(0.0150048 0.000661258 0)
(0.0150718 0.000425847 0)
(0.0150874 0.000226719 0)
(0.0150629 5.76151e-05 0)
(0.0150079 -8.50311e-05 0)
(0.0149297 -0.000206198 0)
(0.0148335 -0.000310046 0)
(0.00150227 0.0053496 0)
(0.00433156 0.00500406 0)
(0.00676636 0.00445991 0)
(0.0087631 0.00383553 0)
(0.0103464 0.00321417 0)
(0.0115725 0.002642 0)
(0.012505 0.00213815 0)
(0.0132031 0.00170563 0)
(0.0137163 0.00133934 0)
(0.0140847 0.001031 0)
(0.01434 0.000771753 0)
(0.0145067 0.000553454 0)
(0.014604 0.000369084 0)
(0.014647 0.000212816 0)
(0.0146473 7.99039e-05 0)
(0.0146147 -3.29009e-05 0)
(0.0145568 -0.000128206 0)
(0.0144791 -0.000209973 0)
(0.00139376 0.0039005 0)
(0.00403173 0.00366382 0)
(0.00633086 0.00328537 0)
(0.00824722 0.00284472 0)
(0.00979337 0.0024002 0)
(0.0110115 0.00198597 0)
(0.0119535 0.00161751 0)
(0.0126703 0.00129858 0)
(0.0132065 0.00102669 0)
(0.0135991 0.000796603 0)
(0.0138782 0.000602362 0)
(0.0140675 0.000438286 0)
(0.014186 0.000299376 0)
(0.0142487 0.000181419 0)
(0.0142672 8.09395e-05 0)
(0.0142513 -4.75633e-06 0)
(0.0142087 -7.69004e-05 0)
(0.0141455 -0.000138833 0)
(0.0013121 0.00272175 0)
(0.00380364 0.00256385 0)
(0.00599336 0.00230863 0)
(0.00783829 0.0020085 0)
(0.00934424 0.00170295 0)
(0.0105446 0.00141589 0)
(0.0114836 0.00115875 0)
(0.0122063 0.000934875 0)
(0.0127534 0.000743089 0)
(0.0131595 0.000580151 0)
(0.0134531 0.000442162 0)
(0.0136572 0.000325303 0)
(0.0137903 0.000226161 0)
(0.0138669 0.000141828 0)
(0.0138989 6.9887e-05 0)
(0.0138956 8.35724e-06 0)
(0.0138649 -4.34516e-05 0)
(0.013813 -8.78551e-05 0)
(0.00124496 0.00175172 0)
(0.00361414 0.00165335 0)
(0.00570788 0.00149309 0)
(0.00748464 0.00130337 0)
(0.00894641 0.00110903 0)
(0.010121 0.000925437 0)
(0.0110473 0.000760189 0)
(0.011766 0.000615718 0)
(0.0123149 0.00049152 0)
(0.0127264 0.00038569 0)
(0.0130277 0.000295841 0)
(0.0132407 0.000219588 0)
(0.0133833 0.000154779 0)
(0.0134698 9.95614e-05 0)
(0.0135117 5.23881e-05 0)
(0.0135183 1.19804e-05 0)
(0.0134972 -2.21191e-05 0)
(0.0134545 -5.12096e-05 0)
(0.00118113 0.00095002 0)
(0.0034321 0.000897902 0)
(0.00542876 0.000812515 0)
(0.00713136 0.000710987 0)
(0.00853975 0.000606566 0)
(0.00967792 0.000507554 0)
(0.0105809 0.000418141 0)
(0.0112859 0.000339742 0)
(0.011828 0.00027217 0)
(0.0122377 0.000214461 0)
(0.0125405 0.000165366 0)
(0.0127575 0.000123626 0)
(0.0129057 8.80915e-05 0)
(0.0129989 5.777e-05 0)
(0.0130482 3.18282e-05 0)
(0.0130626 9.57385e-06 0)
(0.0130494 -9.2052e-06 0)
(0.0130146 -2.50475e-05 0)
(0.00109657 0.000293616 0)
(0.00318846 0.000277734 0)
(0.00504864 0.000251626 0)
(0.00664008 0.000220505 0)
(0.00796148 0.000188424 0)
(0.00903373 0.000157942 0)
(0.00988807 0.000130362 0)
(0.0105583 0.000106137 0)
(0.0110762 8.52235e-05 0)
(0.0114698 6.73364e-05 0)
(0.0117628 5.20986e-05 0)
(0.0119746 3.91269e-05 0)
(0.0121211 2.80705e-05 0)
(0.0122152 1.86253e-05 0)
(0.0122674 1.05354e-05 0)
(0.012286 3.58726e-06 0)
(0.0122781 -2.26219e-06 0)
(0.0122499 -7.11717e-06 0)
(-3.50775e-07 -0.00173397 -2.24111e-29)
(-3.14075e-07 -0.00171181 2.21246e-29)
(-2.87501e-07 -0.00167027 0)
(-2.75982e-07 -0.00158562 0)
(-2.76374e-07 -0.00147605 0)
(-2.47642e-07 -0.00120541 -1.55796e-29)
(-1.49388e-07 -0.000674461 0)
(-2.39661e-08 -0.00010594 0)
(-1.73534e-09 -7.60234e-06 0)
(-1.5194e-10 -6.60186e-07 0)
(3.20197e-26 -1.45991e-29 -1.89293e-55)
(1.02721e-31 3.32386e-34 0)
(1.02542e-31 -1.11127e-33 0)
(1.0365e-31 -2.16521e-33 0)
(1.05902e-31 -3.22564e-33 0)
(1.09211e-31 -3.92655e-33 4.94603e-59)
(1.12348e-31 -2.55879e-33 0)
(1.14002e-31 -9.15898e-34 0)
(1.1462e-31 -5.51603e-34 0)
(1.15062e-31 -5.83432e-34 0)
(1.15583e-31 -6.88304e-34 0)
(1.16167e-31 -6.88533e-34 0)
(1.16578e-31 -3.72063e-34 0)
(1.16526e-31 1.39588e-34 -3.17967e-60)
(1.16035e-31 4.00795e-34 6.54992e-60)
(1.15333e-31 5.01355e-34 -7.84131e-60)
(1.1452e-31 5.84462e-34 -8.90585e-60)
(1.13563e-31 7.3499e-34 0)
(1.12401e-31 9.20907e-34 0)
(1.11027e-31 1.07588e-33 1.52161e-59)
(1.09479e-31 1.19459e-33 1.6732e-59)
(1.07791e-31 1.28807e-33 0)
(1.0599e-31 1.35668e-33 0)
(1.04105e-31 1.40012e-33 1.93251e-59)
(1.02166e-31 1.41918e-33 0)
(1.00201e-31 1.41609e-33 0)
(9.82358e-32 1.3943e-33 -1.91805e-59)
(9.62906e-32 1.35781e-33 0)
(9.43827e-32 1.31055e-33 -1.80527e-59)
(9.25242e-32 1.25597e-33 -3.46505e-59)
(9.0724e-32 1.19684e-33 0)
(8.89877e-32 1.13528e-33 0)
(8.73185e-32 1.07286e-33 0)
(8.57182e-32 1.01072e-33 0)
(8.41871e-32 9.49651e-34 0)
(8.27246e-32 8.90211e-34 -2.49645e-59)
(8.13295e-32 8.3277e-34 -2.34467e-59)
(8.00001e-32 7.77567e-34 -2.19884e-59)
(7.87345e-32 7.2474e-34 0)
(7.75303e-32 6.74358e-34 1.92622e-59)
(7.63853e-32 6.26435e-34 0)
(7.52971e-32 5.80949e-34 -1.67949e-59)
(7.42632e-32 5.37849e-34 -1.56564e-59)
(7.32812e-32 4.9707e-34 0)
(7.23488e-32 4.58528e-34 0)
(7.14636e-32 4.22136e-34 0)
(7.06233e-32 3.87798e-34 -1.16917e-59)
(6.98259e-32 3.55416e-34 0)
(6.90691e-32 3.24893e-34 0)
(6.8351e-32 2.96129e-34 0)
(6.76696e-32 2.6903e-34 0)
(6.70232e-32 2.43503e-34 0)
(6.64099e-32 2.19458e-34 0)
(6.58282e-32 1.96809e-34 0)
(6.52764e-32 1.75474e-34 0)
(6.47531e-32 1.55376e-34 5.54516e-60)
(6.42567e-32 1.36443e-34 0)
(6.37861e-32 1.18606e-34 0)
(6.33399e-32 1.01799e-34 -4.12685e-60)
(6.2917e-32 8.5963e-35 -3.70753e-60)
(6.2516e-32 7.10402e-35 0)
(6.21361e-32 5.69776e-35 2.93981e-60)
(6.17761e-32 4.37251e-35 -2.58876e-60)
(6.14351e-32 3.1236e-35 0)
(6.11121e-32 1.94664e-35 1.94601e-60)
(6.08062e-32 8.37513e-36 0)
(6.05166e-32 -2.07635e-36 0)
(6.02426e-32 -1.19243e-35 -1.11404e-60)
(5.99833e-32 -2.12028e-35 0)
(5.97379e-32 -2.99438e-35 6.36338e-61)
(5.9506e-32 -3.81774e-35 0)
(5.92866e-32 -4.59319e-35 -2.12415e-61)
(5.90793e-32 -5.3234e-35 -1.87556e-62)
(5.88835e-32 -6.0109e-35 1.63582e-61)
(5.86985e-32 -6.65804e-35 6.70479e-61)
(5.85238e-32 -7.26706e-35 -9.93558e-61)
(5.8359e-32 -7.84008e-35 0)
(5.82034e-32 -8.3791e-35 0)
(5.80567e-32 -8.88599e-35 0)
(5.79184e-32 -9.36255e-35 -2.10551e-60)
(5.7788e-32 -9.81045e-35 -2.34321e-60)
(5.76652e-32 -1.02313e-34 2.56659e-60)
(5.75496e-32 -1.06266e-34 0)
(5.74407e-32 -1.09977e-34 -2.97345e-60)
(5.73383e-32 -1.13461e-34 -3.15837e-60)
(5.72419e-32 -1.1673e-34 -3.33193e-60)
(5.71514e-32 -1.19797e-34 0)
(5.70663e-32 -1.22672e-34 0)
(5.69863e-32 -1.25366e-34 0)
(5.69113e-32 -1.2789e-34 -3.92449e-60)
(5.68409e-32 -1.30254e-34 0)
(5.67749e-32 -1.32467e-34 0)
(5.67129e-32 -1.34538e-34 4.27754e-60)
(5.66549e-32 -1.36474e-34 0)
(5.66006e-32 -1.38284e-34 0)
(5.65498e-32 -1.39975e-34 4.56635e-60)
(5.65022e-32 -1.41555e-34 0)
(5.64577e-32 -1.43029e-34 0)
(5.64162e-32 -1.44405e-34 -4.80165e-60)
(5.63773e-32 -1.45687e-34 -4.8698e-60)
(5.63411e-32 -1.46883e-34 0)
(5.63073e-32 -1.47997e-34 4.99248e-60)
(5.62757e-32 -1.49034e-34 0)
(5.62463e-32 -1.49998e-34 -5.09886e-60)
(5.6219e-32 -1.50896e-34 0)
(5.61935e-32 -1.5173e-34 -5.19085e-60)
(5.61698e-32 -1.52505e-34 -5.23206e-60)
(5.61477e-32 -1.53224e-34 0)
(5.61272e-32 -1.53891e-34 0)
(5.61082e-32 -1.5451e-34 0)
(5.60906e-32 -1.55084e-34 0)
(5.60742e-32 -1.55615e-34 0)
(5.6059e-32 -1.56107e-34 0)
(5.60449e-32 -1.56562e-34 0)
(5.60319e-32 -1.56982e-34 -5.47003e-60)
(5.60199e-32 -1.57371e-34 5.49071e-60)
(5.60087e-32 -1.57729e-34 0)
(5.59984e-32 -1.5806e-34 0)
(5.59889e-32 -1.58365e-34 0)
(5.59802e-32 -1.58646e-34 0)
(5.59721e-32 -1.58905e-34 1.11445e-59)
(5.59646e-32 -1.59143e-34 0)
(5.59578e-32 -1.59361e-34 -1.11931e-59)
(5.59514e-32 -1.59562e-34 1.12144e-59)
(5.59456e-32 -1.59746e-34 0)
(5.59403e-32 -1.59915e-34 0)
(5.59353e-32 -1.60069e-34 0)
(5.59308e-32 -1.60211e-34 -1.12834e-59)
(5.59267e-32 -1.60339e-34 -1.12971e-59)
(5.59229e-32 -1.60457e-34 0)
(5.59194e-32 -1.60563e-34 -1.1321e-59)
(5.59161e-32 -1.6066e-34 -1.13313e-59)
(5.59132e-32 -1.60747e-34 1.13405e-59)
(5.59105e-32 -1.60825e-34 0)
(5.59079e-32 -1.60894e-34 0)
(5.59056e-32 -1.60956e-34 1.13629e-59)
(5.59035e-32 -1.61009e-34 0)
(5.59014e-32 -1.61055e-34 0)
(5.58995e-32 -1.61092e-34 0)
(5.58977e-32 -1.61122e-34 0)
(5.5896e-32 -1.61143e-34 -1.13831e-59)
(5.58943e-32 -1.61154e-34 -1.13844e-59)
(5.58926e-32 -1.61155e-34 0)
(5.58909e-32 -1.61145e-34 -1.13838e-59)
(5.58891e-32 -1.61121e-34 0)
(5.58872e-32 -1.61081e-34 0)
(5.58851e-32 -1.61022e-34 -1.13717e-59)
(5.58827e-32 -1.6094e-34 0)
(5.58799e-32 -1.60829e-34 -1.13522e-59)
(5.58766e-32 -1.60683e-34 0)
(5.58727e-32 -1.60492e-34 0)
(5.58679e-32 -1.60244e-34 -1.12929e-59)
(5.5862e-32 -1.59925e-34 0)
(5.58546e-32 -1.59514e-34 -1.12186e-59)
(5.58454e-32 -1.58985e-34 0)
(5.58337e-32 -1.58303e-34 0)
(5.58188e-32 -1.57421e-34 0)
(5.57997e-32 -1.56275e-34 1.08889e-59)
(5.57751e-32 -1.54779e-34 0)
(5.57433e-32 -1.5281e-34 -1.05359e-59)
(5.57017e-32 -1.50194e-34 0)
(5.56471e-32 -1.46675e-34 0)
(5.55746e-32 -1.41859e-34 0)
(5.5477e-32 -1.35117e-34 0)
(5.53433e-32 -1.25377e-34 0)
(5.51557e-32 -1.10644e-34 0)
(5.48825e-32 -8.67561e-35 0)
(5.44592e-32 -4.33862e-35 -1.31388e-60)
(5.37231e-32 5.25731e-35 0)
(5.20919e-32 3.53468e-34 0)
(6.25506e-05 -0.00430293 5.56117e-29)
(0.000194675 -0.00427904 -5.52982e-29)
(0.000350247 -0.00423739 0)
(0.000551314 -0.00415713 1.07433e-28)
(0.000853389 -0.00408243 0)
(0.00130349 -0.00396928 -5.12863e-29)
(0.00165996 -0.00383682 -9.91009e-29)
(0.00106914 -0.00402882 -1.04092e-28)
(0.00020096 -0.0044927 0)
(8.19313e-06 -0.00498408 -1.28835e-28)
(1.52718e-07 -2.09224e-10 9.01374e-37)
(-1.94112e-30 3.11948e-33 0)
(-2.63321e-30 2.62389e-33 0)
(-2.50387e-30 1.39328e-33 0)
(-2.06964e-30 -2.61027e-34 0)
(-1.22867e-30 -2.11257e-33 4.18084e-59)
(-4.04736e-31 -1.87217e-33 0)
(1.76846e-32 7.5301e-32 -1.94732e-57)
(1.15203e-31 -7.56749e-34 0)
(1.14812e-31 -2.02676e-33 0)
(1.15389e-31 -2.8945e-33 -6.93725e-59)
(1.1673e-31 -3.43399e-33 0)
(1.18052e-31 -1.63631e-33 3.67232e-59)
(1.17896e-31 1.5322e-33 -2.11949e-59)
(1.16673e-31 2.02419e-33 2.75393e-59)
(1.15654e-31 1.88262e-33 -2.56976e-59)
(1.14923e-31 1.87845e-33 -2.5635e-59)
(1.1414e-31 2.42763e-33 0)
(1.12982e-31 3.17814e-33 0)
(1.11491e-31 3.65621e-33 4.85716e-59)
(1.09836e-31 3.97926e-33 1.60775e-58)
(1.08062e-31 4.2571e-33 0)
(1.06177e-31 4.46213e-33 0)
(1.0421e-31 4.5888e-33 6.05389e-59)
(1.02195e-31 4.63872e-33 0)
(1.00165e-31 4.61932e-33 0)
(9.81463e-32 4.54276e-33 -5.98723e-59)
(9.61617e-32 4.42273e-33 0)
(9.42264e-32 4.27201e-33 -1.71205e-58)
(9.23508e-32 4.10122e-33 -1.08194e-58)
(9.05412e-32 3.91858e-33 0)
(8.88013e-32 3.73016e-33 0)
(8.71327e-32 3.54031e-33 1.91258e-58)
(8.55358e-32 3.35213e-33 1.81379e-58)
(8.40101e-32 3.16778e-33 1.71704e-58)
(8.25544e-32 2.98876e-33 -2.41518e-58)
(8.11668e-32 2.81604e-33 -7.47092e-59)
(7.98454e-32 2.65027e-33 7.41629e-59)
(7.85878e-32 2.49178e-33 -1.36243e-58)
(7.73918e-32 2.34073e-33 6.23335e-59)
(7.62548e-32 2.19713e-33 0)
(7.51744e-32 2.06089e-33 -5.50475e-59)
(7.4148e-32 1.93184e-33 -1.58563e-58)
(7.31732e-32 1.80977e-33 0)
(7.22476e-32 1.69441e-33 0)
(7.13689e-32 1.58551e-33 0)
(7.05347e-32 1.48277e-33 -3.99939e-59)
(6.9743e-32 1.38588e-33 0)
(6.89917e-32 1.29457e-33 -7.34427e-59)
(6.82787e-32 1.20852e-33 0)
(6.76021e-32 1.12745e-33 -6.46717e-59)
(6.69601e-32 1.05108e-33 0)
(6.6351e-32 9.79144e-34 5.68864e-59)
(6.57732e-32 9.11383e-34 0)
(6.5225e-32 8.47553e-34 -4.99771e-59)
(6.4705e-32 7.87422e-34 6.87013e-59)
(6.42119e-32 7.30772e-34 0)
(6.37442e-32 6.77398e-34 4.10404e-59)
(6.33008e-32 6.27106e-34 -1.77048e-59)
(6.28804e-32 5.79715e-34 -1.64698e-59)
(6.24819e-32 5.35055e-34 0)
(6.21042e-32 4.92967e-34 4.55598e-59)
(6.17463e-32 4.53302e-34 -1.31754e-59)
(6.14072e-32 4.1592e-34 0)
(6.1086e-32 3.8069e-34 1.12828e-59)
(6.07819e-32 3.47489e-34 2.37048e-59)
(6.04939e-32 3.16202e-34 0)
(6.02213e-32 2.86721e-34 -8.83332e-60)
(5.99634e-32 2.58943e-34 0)
(5.97194e-32 2.32773e-34 -1.02468e-59)
(5.94887e-32 2.08122e-34 0)
(5.92705e-32 1.84904e-34 8.97763e-60)
(5.90643e-32 1.6304e-34 -5.60894e-60)
(5.88694e-32 1.42454e-34 -1.79964e-59)
(5.86854e-32 1.23076e-34 -3.29438e-59)
(5.85116e-32 1.04839e-34 3.00744e-59)
(5.83476e-32 8.76801e-35 0)
(5.81928e-32 7.15388e-35 0)
(5.80468e-32 5.6359e-35 0)
(5.79091e-32 4.20876e-35 -1.0379e-59)
(5.77794e-32 2.86739e-35 4.21067e-60)
(5.76572e-32 1.60704e-35 -3.5533e-60)
(5.75421e-32 4.23194e-36 0)
(5.74337e-32 -6.88427e-36 1.24919e-59)
(5.73318e-32 -1.73187e-35 1.81178e-60)
(5.72359e-32 -2.71095e-35 1.30108e-60)
(5.71458e-32 -3.62931e-35 0)
(5.70611e-32 -4.49039e-35 0)
(5.69815e-32 -5.29743e-35 0)
(5.69068e-32 -6.05352e-35 -4.42525e-61)
(5.68367e-32 -6.76158e-35 0)
(5.6771e-32 -7.42437e-35 3.04593e-60)
(5.67094e-32 -8.04453e-35 3.87429e-60)
(5.66516e-32 -8.62452e-35 -1.78251e-60)
(5.65975e-32 -9.1667e-35 0)
(5.65469e-32 -9.6733e-35 1.65261e-60)
(5.64996e-32 -1.01464e-34 0)
(5.64553e-32 -1.05881e-34 2.84831e-61)
(5.64139e-32 -1.10001e-34 -3.74187e-60)
(5.63752e-32 -1.13844e-34 -4.3469e-60)
(5.63392e-32 -1.17425e-34 0)
(5.63055e-32 -1.20761e-34 1.73279e-60)
(5.62741e-32 -1.23867e-34 2.17886e-60)
(5.62448e-32 -1.26758e-34 -3.89741e-60)
(5.62176e-32 -1.29446e-34 0)
(5.61922e-32 -1.31944e-34 -4.16802e-60)
(5.61686e-32 -1.34265e-34 -1.0153e-60)
(5.61466e-32 -1.3642e-34 0)
(5.61262e-32 -1.3842e-34 3.71145e-60)
(5.61073e-32 -1.40274e-34 3.90673e-60)
(5.60897e-32 -1.41992e-34 4.08773e-60)
(5.60734e-32 -1.43584e-34 0)
(5.60583e-32 -1.45057e-34 0)
(5.60443e-32 -1.4642e-34 0)
(5.60313e-32 -1.47679e-34 -9.6759e-60)
(5.60193e-32 -1.48843e-34 5.04987e-60)
(5.60082e-32 -1.49917e-34 0)
(5.5998e-32 -1.50909e-34 -5.027e-60)
(5.59885e-32 -1.51822e-34 -5.12325e-60)
(5.59798e-32 -1.52664e-34 0)
(5.59717e-32 -1.53439e-34 1.05794e-59)
(5.59643e-32 -1.54152e-34 -1.07373e-59)
(5.59575e-32 -1.54807e-34 -1.07222e-59)
(5.59512e-32 -1.55408e-34 2.17871e-59)
(5.59454e-32 -1.5596e-34 0)
(5.594e-32 -1.56465e-34 0)
(5.59351e-32 -1.56928e-34 0)
(5.59306e-32 -1.57351e-34 -1.09877e-59)
(5.59265e-32 -1.57736e-34 -2.2521e-59)
(5.59227e-32 -1.58088e-34 -1.15671e-59)
(5.59192e-32 -1.58407e-34 -1.1098e-59)
(5.5916e-32 -1.58696e-34 -2.28237e-59)
(5.59131e-32 -1.58957e-34 1.11555e-59)
(5.59104e-32 -1.59191e-34 0)
(5.59079e-32 -1.594e-34 0)
(5.59055e-32 -1.59584e-34 2.31039e-59)
(5.59034e-32 -1.59744e-34 0)
(5.59014e-32 -1.59881e-34 0)
(5.58995e-32 -1.59993e-34 -1.19699e-59)
(5.58977e-32 -1.60082e-34 0)
(5.5896e-32 -1.60145e-34 -2.32824e-59)
(5.58943e-32 -1.60179e-34 -1.12837e-59)
(5.58926e-32 -1.60183e-34 0)
(5.58909e-32 -1.60153e-34 -2.32873e-59)
(5.58892e-32 -1.60082e-34 0)
(5.58873e-32 -1.59963e-34 0)
(5.58852e-32 -1.59787e-34 -1.1244e-59)
(5.58828e-32 -1.59542e-34 -1.18829e-59)
(5.58801e-32 -1.59212e-34 -1.11849e-59)
(5.58768e-32 -1.58775e-34 0)
(5.58729e-32 -1.58205e-34 0)
(5.58682e-32 -1.57466e-34 -2.24647e-59)
(5.58624e-32 -1.56514e-34 0)
(5.58551e-32 -1.55287e-34 -2.17949e-59)
(5.5846e-32 -1.53709e-34 0)
(5.58345e-32 -1.51673e-34 0)
(5.58198e-32 -1.49041e-34 0)
(5.5801e-32 -1.45625e-34 9.78754e-60)
(5.57768e-32 -1.41164e-34 0)
(5.57455e-32 -1.35297e-34 -8.72492e-60)
(5.57047e-32 -1.27507e-34 0)
(5.56512e-32 -1.17035e-34 0)
(5.55801e-32 -1.02723e-34 -2.47249e-61)
(5.54848e-32 -8.27272e-35 -3.85171e-60)
(5.53548e-32 -5.39252e-35 0)
(5.51737e-32 -1.05938e-35 0)
(5.49135e-32 5.89462e-35 0)
(5.45225e-32 1.82335e-34 6.85995e-59)
(5.39014e-32 4.39733e-34 0)
(5.29214e-32 1.13315e-33 -5.0864e-58)
(9.78934e-05 -0.00543789 2.8112e-28)
(0.000298545 -0.00544315 -7.34166e-33)
(0.000512103 -0.00545897 0)
(0.000744434 -0.00549121 1.78714e-32)
(0.000994348 -0.00557521 0)
(0.00123132 -0.00582453 0)
(0.00133757 -0.00635994 -3.28642e-28)
(0.00103983 -0.00726394 -1.87719e-28)
(0.000180143 -0.00784904 2.02879e-28)
(-0.00130568 -0.00812522 -2.10093e-28)
(-0.00113084 -0.00245099 0)
(0.000883616 -0.00217921 0)
(0.00264834 -0.00222102 -5.72242e-29)
(0.00431813 -0.00263249 -1.35484e-28)
(0.00492581 -0.00367572 1.89332e-28)
(0.00239595 -0.00561421 0)
(3.93049e-05 -0.00593011 3.06573e-28)
(4.86608e-07 -1.1111e-09 5.74423e-36)
(-3.32135e-30 7.40331e-33 0)
(-4.48914e-30 8.83087e-33 1.79368e-58)
(-4.17926e-30 7.36098e-33 -7.06232e-60)
(-3.14737e-30 4.46714e-33 -2.14897e-58)
(-1.42816e-30 2.02443e-33 1.51058e-59)
(-1.93366e-31 2.40319e-31 0)
(1.16546e-31 4.59632e-33 -2.54133e-58)
(1.1508e-31 1.63651e-33 -1.00907e-58)
(1.15454e-31 5.60618e-34 0)
(1.15788e-31 3.26745e-33 -1.85324e-58)
(1.14495e-31 6.22973e-33 0)
(1.12385e-31 6.68406e-33 -3.61476e-58)
(1.10491e-31 6.89565e-33 1.83465e-58)
(1.08599e-31 7.4298e-33 0)
(1.06544e-31 7.78167e-33 0)
(1.04402e-31 7.98242e-33 0)
(1.02225e-31 8.0393e-33 0)
(1.00057e-31 7.96834e-33 0)
(9.79329e-32 7.79925e-33 0)
(9.58732e-32 7.56165e-33 -4.04508e-58)
(9.3889e-32 7.27989e-33 1.97046e-58)
(9.19849e-32 6.97216e-33 0)
(9.01618e-32 6.65114e-33 0)
(8.84188e-32 6.32551e-33 0)
(8.67544e-32 6.00117e-33 6.40987e-58)
(8.51667e-32 5.68223e-33 3.01807e-58)
(8.36534e-32 5.37157e-33 -3.94943e-60)
(8.22122e-32 5.07113e-33 3.88138e-60)
(8.08405e-32 4.78217e-33 2.58683e-58)
(7.95355e-32 4.50547e-33 2.40438e-58)
(7.82946e-32 4.24139e-33 -4.57033e-58)
(7.71151e-32 3.99005e-33 -2.17204e-58)
(7.59943e-32 3.75134e-33 0)
(7.49295e-32 3.52504e-33 -1.92854e-58)
(7.39182e-32 3.31081e-33 -3.59781e-58)
(7.29578e-32 3.10826e-33 0)
(7.20458e-32 2.91693e-33 0)
(7.11801e-32 2.73635e-33 1.51548e-58)
(7.03582e-32 2.56601e-33 0)
(6.9578e-32 2.40542e-33 0)
(6.88375e-32 2.25406e-33 -3.75599e-58)
(6.81346e-32 2.11145e-33 -2.37621e-58)
(6.74675e-32 1.97709e-33 -1.08585e-58)
(6.68344e-32 1.85053e-33 0)
(6.62336e-32 1.7313e-33 9.57611e-59)
(6.56635e-32 1.61899e-33 0)
(6.51226e-32 1.51319e-33 -2.59289e-58)
(6.46094e-32 1.41351e-33 7.91779e-59)
(6.41226e-32 1.31959e-33 1.54608e-58)
(6.36608e-32 1.23109e-33 2.14984e-58)
(6.32228e-32 1.14769e-33 0)
(6.28075e-32 1.0691e-33 -1.28336e-58)
(6.24138e-32 9.95025e-34 0)
(6.20406e-32 9.25212e-34 -5.95498e-59)
(6.16868e-32 8.59411e-34 -1.06337e-58)
(6.13517e-32 7.97391e-34 -9.98295e-59)
(6.10341e-32 7.38936e-34 9.36956e-59)
(6.07334e-32 6.83843e-34 -4.68246e-59)
(6.04486e-32 6.31921e-34 0)
(6.0179e-32 5.82992e-34 0)
(5.99239e-32 5.36887e-34 7.24896e-59)
(5.96825e-32 4.93448e-34 3.67829e-59)
(5.94542e-32 4.52526e-34 0)
(5.92383e-32 4.13981e-34 2.69966e-59)
(5.90342e-32 3.77682e-34 0)
(5.88414e-32 3.43503e-34 2.88722e-59)
(5.86592e-32 3.11328e-34 -9.2079e-59)
(5.84872e-32 2.81046e-34 8.57356e-59)
(5.83248e-32 2.52552e-34 -4.26371e-59)
(5.81715e-32 2.25746e-34 0)
(5.8027e-32 2.00537e-34 3.71746e-59)
(5.78907e-32 1.76835e-34 -6.39035e-59)
(5.77622e-32 1.54556e-34 0)
(5.76412e-32 1.33623e-34 0)
(5.75272e-32 1.13959e-34 0)
(5.74199e-32 9.54944e-35 2.0719e-59)
(5.73189e-32 7.81618e-35 0)
(5.72239e-32 6.18976e-35 0)
(5.71346e-32 4.66418e-35 0)