/*--------------------------------*- C++ -*----------------------------------*\
  =========                 |
  \\      /  F ield         | OpenFOAM: The Open Source CFD Toolbox
   \\    /   O peration     | Website:  https://openfoam.org
    \\  /    A nd           | Version:  10
     \\/     M anipulation  |
\*---------------------------------------------------------------------------*/
FoamFile
{
    format      ascii;
    class       volScalarField;
    location    "2.17";
    object      p;
}
// * * * * * * * * * * * * * * * * * * * * * * * * * * * * * * * * * * * * * //

dimensions      [1 -1 -2 0 0 0 0];

internalField   nonuniform List<scalar> 
12225
(
1.72863e+07
1.72329e+07
1.71373e+07
1.70114e+07
1.68653e+07
1.67067e+07
1.65409e+07
1.63715e+07
1.62006e+07
1.60294e+07
1.58586e+07
1.56881e+07
1.55174e+07
1.53456e+07
1.51709e+07
1.49903e+07
1.47975e+07
1.45771e+07
1.72885e+07
1.72348e+07
1.71389e+07
1.70127e+07
1.68663e+07
1.67075e+07
1.65415e+07
1.6372e+07
1.62011e+07
1.60299e+07
1.58592e+07
1.56887e+07
1.55182e+07
1.53467e+07
1.51726e+07
1.4993e+07
1.4803e+07
1.45934e+07
1.72933e+07
1.72391e+07
1.71425e+07
1.70155e+07
1.68685e+07
1.67092e+07
1.65429e+07
1.63732e+07
1.62022e+07
1.6031e+07
1.58604e+07
1.56902e+07
1.552e+07
1.53492e+07
1.51761e+07
1.49988e+07
1.48138e+07
1.46179e+07
1.73013e+07
1.72463e+07
1.71484e+07
1.70201e+07
1.68721e+07
1.6712e+07
1.65452e+07
1.63751e+07
1.62039e+07
1.60328e+07
1.58623e+07
1.56925e+07
1.5523e+07
1.53531e+07
1.51818e+07
1.50076e+07
1.4829e+07
1.46465e+07
1.73132e+07
1.72569e+07
1.71571e+07
1.70269e+07
1.68773e+07
1.6716e+07
1.65484e+07
1.63779e+07
1.62065e+07
1.60354e+07
1.58651e+07
1.56958e+07
1.55272e+07
1.53587e+07
1.51897e+07
1.50195e+07
1.48478e+07
1.46772e+07
1.73298e+07
1.72716e+07
1.71691e+07
1.70363e+07
1.68845e+07
1.67216e+07
1.65528e+07
1.63816e+07
1.62099e+07
1.60388e+07
1.58689e+07
1.57003e+07
1.55328e+07
1.53661e+07
1.51999e+07
1.5034e+07
1.48693e+07
1.47087e+07
1.73522e+07
1.72913e+07
1.71851e+07
1.70487e+07
1.68938e+07
1.67287e+07
1.65585e+07
1.63864e+07
1.62144e+07
1.60433e+07
1.58738e+07
1.5706e+07
1.55399e+07
1.53754e+07
1.52123e+07
1.5051e+07
1.48928e+07
1.47406e+07
1.73815e+07
1.7317e+07
1.72057e+07
1.70644e+07
1.69057e+07
1.67378e+07
1.65657e+07
1.63925e+07
1.62199e+07
1.60488e+07
1.58799e+07
1.57131e+07
1.55486e+07
1.53864e+07
1.52267e+07
1.50701e+07
1.4918e+07
1.47727e+07
1.74195e+07
1.735e+07
1.72318e+07
1.70841e+07
1.69203e+07
1.67488e+07
1.65744e+07
1.63998e+07
1.62265e+07
1.60555e+07
1.58871e+07
1.57215e+07
1.55588e+07
1.53992e+07
1.5243e+07
1.50909e+07
1.49442e+07
1.48049e+07
1.74684e+07
1.73916e+07
1.72641e+07
1.71081e+07
1.69379e+07
1.6762e+07
1.65846e+07
1.64083e+07
1.62343e+07
1.60633e+07
1.58956e+07
1.57313e+07
1.55706e+07
1.54136e+07
1.52609e+07
1.51131e+07
1.49713e+07
1.48369e+07
1.75309e+07
1.74439e+07
1.73037e+07
1.71368e+07
1.69586e+07
1.67772e+07
1.65963e+07
1.64181e+07
1.62432e+07
1.60722e+07
1.59052e+07
1.57423e+07
1.55837e+07
1.54295e+07
1.52801e+07
1.51363e+07
1.49989e+07
1.48688e+07
1.76044e+07
1.75035e+07
1.73473e+07
1.71675e+07
1.69802e+07
1.67928e+07
1.66083e+07
1.6428e+07
1.62523e+07
1.60813e+07
1.5915e+07
1.57535e+07
1.55968e+07
1.54451e+07
1.52988e+07
1.51584e+07
1.50245e+07
1.48978e+07
1.7695e+07
1.75744e+07
1.73972e+07
1.72015e+07
1.70036e+07
1.68094e+07
1.66209e+07
1.64384e+07
1.62618e+07
1.60908e+07
1.59253e+07
1.57652e+07
1.56105e+07
1.54613e+07
1.53178e+07
1.51805e+07
1.50498e+07
1.49262e+07
1.78291e+07
1.76729e+07
1.74625e+07
1.7244e+07
1.70317e+07
1.6829e+07
1.66355e+07
1.64504e+07
1.62729e+07
1.61021e+07
1.59376e+07
1.57792e+07
1.56268e+07
1.54803e+07
1.534e+07
1.5206e+07
1.50786e+07
1.4958e+07
1.80379e+07
1.781e+07
1.75449e+07
1.72938e+07
1.70631e+07
1.685e+07
1.6651e+07
1.64633e+07
1.62849e+07
1.61146e+07
1.59516e+07
1.57953e+07
1.56455e+07
1.55021e+07
1.5365e+07
1.52345e+07
1.51104e+07
1.49929e+07
1.8391e+07
1.79929e+07
1.7637e+07
1.73428e+07
1.70913e+07
1.6868e+07
1.66642e+07
1.64746e+07
1.62962e+07
1.61271e+07
1.59661e+07
1.58125e+07
1.56658e+07
1.55258e+07
1.53923e+07
1.52653e+07
1.51446e+07
1.50303e+07
1.90762e+07
1.81763e+07
1.76963e+07
1.73648e+07
1.71004e+07
1.68726e+07
1.66679e+07
1.64793e+07
1.6303e+07
1.61367e+07
1.5979e+07
1.58289e+07
1.5686e+07
1.55499e+07
1.54203e+07
1.5297e+07
1.51799e+07
1.50687e+07
1.8232e+07
1.78997e+07
1.75774e+07
1.73004e+07
1.706e+07
1.68457e+07
1.66503e+07
1.6469e+07
1.62989e+07
1.61383e+07
1.5986e+07
1.5841e+07
1.5703e+07
1.55716e+07
1.54464e+07
1.53272e+07
1.52139e+07
1.51061e+07
1.76671e+07
1.75319e+07
1.73465e+07
1.71509e+07
1.69592e+07
1.67759e+07
1.66015e+07
1.64355e+07
1.62774e+07
1.61264e+07
1.59823e+07
1.58446e+07
1.5713e+07
1.55873e+07
1.54673e+07
1.53528e+07
1.52436e+07
1.51396e+07
1.73456e+07
1.72686e+07
1.71461e+07
1.70015e+07
1.68483e+07
1.66933e+07
1.654e+07
1.63903e+07
1.62449e+07
1.61043e+07
1.59687e+07
1.58381e+07
1.57127e+07
1.55923e+07
1.5477e+07
1.53666e+07
1.5261e+07
1.51601e+07
1.71622e+07
1.7107e+07
1.70133e+07
1.6896e+07
1.67658e+07
1.66294e+07
1.64909e+07
1.63529e+07
1.6217e+07
1.60841e+07
1.59548e+07
1.58297e+07
1.57088e+07
1.55924e+07
1.54804e+07
1.53729e+07
1.52699e+07
1.51712e+07
1.7041e+07
1.69967e+07
1.69188e+07
1.6818e+07
1.67028e+07
1.65791e+07
1.64513e+07
1.63221e+07
1.61933e+07
1.60664e+07
1.59421e+07
1.58212e+07
1.57038e+07
1.55904e+07
1.54811e+07
1.53758e+07
1.52748e+07
1.51778e+07
1.69591e+07
1.69208e+07
1.68522e+07
1.67617e+07
1.66563e+07
1.65414e+07
1.64211e+07
1.62981e+07
1.61747e+07
1.60522e+07
1.59316e+07
1.58138e+07
1.56991e+07
1.5588e+07
1.54806e+07
1.5377e+07
1.52774e+07
1.51817e+07
1.69033e+07
1.68686e+07
1.68058e+07
1.67219e+07
1.6623e+07
1.6514e+07
1.63988e+07
1.62803e+07
1.61606e+07
1.60413e+07
1.59234e+07
1.58078e+07
1.56951e+07
1.55856e+07
1.54796e+07
1.53773e+07
1.52787e+07
1.5184e+07
1.68656e+07
1.68332e+07
1.6774e+07
1.66943e+07
1.65996e+07
1.64946e+07
1.6383e+07
1.62675e+07
1.61505e+07
1.60333e+07
1.59174e+07
1.58034e+07
1.5692e+07
1.55837e+07
1.54787e+07
1.53772e+07
1.52794e+07
1.51853e+07
1.68406e+07
1.68095e+07
1.67527e+07
1.66757e+07
1.65838e+07
1.64814e+07
1.63721e+07
1.62587e+07
1.61434e+07
1.60278e+07
1.59131e+07
1.58002e+07
1.56897e+07
1.55822e+07
1.54779e+07
1.5377e+07
1.52797e+07
1.5186e+07
1.68246e+07
1.67943e+07
1.67389e+07
1.66636e+07
1.65735e+07
1.64727e+07
1.63649e+07
1.62529e+07
1.61387e+07
1.6024e+07
1.59102e+07
1.5798e+07
1.56881e+07
1.55811e+07
1.54773e+07
1.53768e+07
1.52798e+07
1.51864e+07
1.68148e+07
1.67851e+07
1.67305e+07
1.66562e+07
1.65671e+07
1.64674e+07
1.63605e+07
1.62493e+07
1.61358e+07
1.60217e+07
1.59084e+07
1.57966e+07
1.56871e+07
1.55805e+07
1.54769e+07
1.53766e+07
1.52799e+07
1.51866e+07
1.68096e+07
1.67801e+07
1.67259e+07
1.66522e+07
1.65637e+07
1.64645e+07
1.63581e+07
1.62473e+07
1.61342e+07
1.60204e+07
1.59073e+07
1.57958e+07
1.56866e+07
1.55801e+07
1.54766e+07
1.53765e+07
1.52799e+07
1.51867e+07
1.68074e+07
1.6778e+07
1.67241e+07
1.66506e+07
1.65623e+07
1.64633e+07
1.63571e+07
1.62465e+07
1.61335e+07
1.60199e+07
1.59069e+07
1.57955e+07
1.56863e+07
1.55799e+07
1.54765e+07
1.53765e+07
1.52798e+07
1.51867e+07
1.24885e+07
1.24873e+07
1.24848e+07
1.24811e+07
1.24762e+07
1.24699e+07
1.24622e+07
1.24532e+07
1.24429e+07
1.24311e+07
1.24178e+07
1.24032e+07
1.2387e+07
1.23694e+07
1.23502e+07
1.23295e+07
1.23072e+07
1.22834e+07
1.2258e+07
1.22309e+07
1.22022e+07
1.21718e+07
1.21397e+07
1.21058e+07
1.20701e+07
1.20326e+07
1.19932e+07
1.19518e+07
1.19084e+07
1.18629e+07
1.18153e+07
1.17653e+07
1.17129e+07
1.1658e+07
1.16002e+07
1.15395e+07
1.14754e+07
1.14077e+07
1.13358e+07
1.12591e+07
1.11766e+07
1.10869e+07
1.09875e+07
1.08733e+07
1.07317e+07
1.0722e+07
1.07183e+07
1.07147e+07
1.07113e+07
1.0708e+07
1.07047e+07
1.07016e+07
1.06984e+07
1.06953e+07
1.06923e+07
1.06893e+07
1.06864e+07
1.06834e+07
1.06805e+07
1.06777e+07
1.06748e+07
1.0672e+07
1.06692e+07
1.06665e+07
1.06637e+07
1.0661e+07
1.06582e+07
1.06555e+07
1.06528e+07
1.06501e+07
1.06474e+07
1.06447e+07
1.0642e+07
1.06394e+07
1.06367e+07
1.0634e+07
1.06313e+07
1.06287e+07
1.0626e+07
1.06233e+07
1.06206e+07
1.0618e+07
1.06153e+07
1.06126e+07
1.06099e+07
1.06072e+07
1.06045e+07
1.06017e+07
1.0599e+07
1.05963e+07
1.05935e+07
1.05907e+07
1.0588e+07
1.05852e+07
1.05824e+07
1.05795e+07
1.05767e+07
1.05739e+07
1.0571e+07
1.05681e+07
1.05652e+07
1.05623e+07
1.05594e+07
1.05565e+07
1.05535e+07
1.05505e+07
1.05475e+07
1.05445e+07
1.05415e+07
1.05384e+07
1.05353e+07
1.05322e+07
1.05291e+07
1.0526e+07
1.05228e+07
1.05196e+07
1.05164e+07
1.05132e+07
1.05099e+07
1.05067e+07
1.05034e+07
1.05e+07
1.04967e+07
1.04933e+07
1.04899e+07
1.04865e+07
1.04831e+07
1.04796e+07
1.04761e+07
1.04726e+07
1.0469e+07
1.04654e+07
1.04618e+07
1.04582e+07
1.04545e+07
1.04508e+07
1.04471e+07
1.04434e+07
1.04396e+07
1.04358e+07
1.0432e+07
1.04281e+07
1.04242e+07
1.04203e+07
1.04164e+07
1.04124e+07
1.04084e+07
1.04043e+07
1.04003e+07
1.03962e+07
1.0392e+07
1.03878e+07
1.03836e+07
1.03794e+07
1.03751e+07
1.03708e+07
1.03665e+07
1.03622e+07
1.03578e+07
1.03533e+07
1.03489e+07
1.03443e+07
1.03398e+07
1.03352e+07
1.03306e+07
1.0326e+07
1.03213e+07
1.03166e+07
1.03119e+07
1.03071e+07
1.03023e+07
1.02974e+07
1.02925e+07
1.02876e+07
1.02827e+07
1.02777e+07
1.02728e+07
1.02678e+07
1.02628e+07
1.02579e+07
1.24932e+07
1.2492e+07
1.24896e+07
1.24859e+07
1.24809e+07
1.24745e+07
1.24669e+07
1.24579e+07
1.24475e+07
1.24356e+07
1.24224e+07
1.24076e+07
1.23914e+07
1.23737e+07
1.23545e+07
1.23338e+07
1.23115e+07
1.22876e+07
1.22622e+07
1.22351e+07
1.22064e+07
1.21761e+07
1.2144e+07
1.21102e+07
1.20746e+07
1.20372e+07
1.1998e+07
1.19567e+07
1.19135e+07
1.18682e+07
1.18208e+07
1.1771e+07
1.17189e+07
1.16643e+07
1.16069e+07
1.15466e+07
1.14832e+07
1.14163e+07
1.13456e+07
1.12705e+07
1.11905e+07
1.11049e+07
1.10128e+07
1.09133e+07
1.08058e+07
1.07215e+07
1.07178e+07
1.07144e+07
1.07111e+07
1.07078e+07
1.07046e+07
1.07014e+07
1.06983e+07
1.06952e+07
1.06922e+07
1.06892e+07
1.06863e+07
1.06833e+07
1.06805e+07
1.06776e+07
1.06748e+07
1.0672e+07
1.06692e+07
1.06664e+07
1.06636e+07
1.06609e+07
1.06582e+07
1.06555e+07
1.06528e+07
1.06501e+07
1.06474e+07
1.06447e+07
1.0642e+07
1.06393e+07
1.06367e+07
1.0634e+07
1.06313e+07
1.06286e+07
1.0626e+07
1.06233e+07
1.06206e+07
1.06179e+07
1.06153e+07
1.06126e+07
1.06099e+07
1.06072e+07
1.06044e+07
1.06017e+07
1.0599e+07
1.05962e+07
1.05935e+07
1.05907e+07
1.05879e+07
1.05852e+07
1.05824e+07
1.05795e+07
1.05767e+07
1.05739e+07
1.0571e+07
1.05681e+07
1.05652e+07
1.05623e+07
1.05594e+07
1.05565e+07
1.05535e+07
1.05505e+07
1.05475e+07
1.05445e+07
1.05415e+07
1.05384e+07
1.05353e+07
1.05322e+07
1.05291e+07
1.0526e+07
1.05228e+07
1.05196e+07
1.05164e+07
1.05132e+07
1.05099e+07
1.05067e+07
1.05034e+07
1.05e+07
1.04967e+07
1.04933e+07
1.04899e+07
1.04865e+07
1.04831e+07
1.04796e+07
1.04761e+07
1.04726e+07
1.0469e+07
1.04654e+07
1.04618e+07
1.04582e+07
1.04545e+07
1.04508e+07
1.04471e+07
1.04434e+07
1.04396e+07
1.04358e+07
1.0432e+07
1.04281e+07
1.04242e+07
1.04203e+07
1.04164e+07
1.04124e+07
1.04084e+07
1.04043e+07
1.04003e+07
1.03961e+07
1.0392e+07
1.03878e+07
1.03836e+07
1.03794e+07
1.03751e+07
1.03708e+07
1.03665e+07
1.03621e+07
1.03577e+07
1.03533e+07
1.03488e+07
1.03443e+07
1.03398e+07
1.03352e+07
1.03306e+07
1.0326e+07
1.03213e+07
1.03166e+07
1.03119e+07
1.03071e+07
1.03023e+07
1.02974e+07
1.02925e+07
1.02876e+07
1.02827e+07
1.02777e+07
1.02727e+07
1.02678e+07
1.02628e+07
1.02578e+07
1.2503e+07
1.25018e+07
1.24993e+07
1.24956e+07
1.24905e+07
1.24842e+07
1.24765e+07
1.24674e+07
1.2457e+07
1.24451e+07
1.24318e+07
1.2417e+07
1.24007e+07
1.23829e+07
1.23637e+07
1.23428e+07
1.23205e+07
1.22966e+07
1.22711e+07
1.2244e+07
1.22153e+07
1.21849e+07
1.21529e+07
1.21191e+07
1.20836e+07
1.20463e+07
1.20072e+07
1.19661e+07
1.19231e+07
1.18781e+07
1.18309e+07
1.17815e+07
1.17299e+07
1.16758e+07
1.16191e+07
1.15597e+07
1.14974e+07
1.14319e+07
1.13631e+07
1.12906e+07
1.12141e+07
1.11333e+07
1.10479e+07
1.09574e+07
1.08609e+07
1.07539e+07
1.07174e+07
1.0714e+07
1.07107e+07
1.07074e+07
1.07042e+07
1.07011e+07
1.0698e+07
1.06949e+07
1.06919e+07
1.0689e+07
1.06861e+07
1.06832e+07
1.06803e+07
1.06774e+07
1.06746e+07
1.06718e+07
1.0669e+07
1.06663e+07
1.06635e+07
1.06608e+07
1.06581e+07
1.06554e+07
1.06527e+07
1.065e+07
1.06473e+07
1.06446e+07
1.06419e+07
1.06393e+07
1.06366e+07
1.06339e+07
1.06313e+07
1.06286e+07
1.06259e+07
1.06233e+07
1.06206e+07
1.06179e+07
1.06152e+07
1.06125e+07
1.06098e+07
1.06071e+07
1.06044e+07
1.06017e+07
1.0599e+07
1.05962e+07
1.05935e+07
1.05907e+07
1.05879e+07
1.05851e+07
1.05823e+07
1.05795e+07
1.05767e+07
1.05738e+07
1.0571e+07
1.05681e+07
1.05652e+07
1.05623e+07
1.05594e+07
1.05564e+07
1.05535e+07
1.05505e+07
1.05475e+07
1.05445e+07
1.05415e+07
1.05384e+07
1.05353e+07
1.05322e+07
1.05291e+07
1.0526e+07
1.05228e+07
1.05196e+07
1.05164e+07
1.05132e+07
1.05099e+07
1.05067e+07
1.05034e+07
1.05e+07
1.04967e+07
1.04933e+07
1.04899e+07
1.04865e+07
1.04831e+07
1.04796e+07
1.04761e+07
1.04726e+07
1.0469e+07
1.04654e+07
1.04618e+07
1.04582e+07
1.04545e+07
1.04508e+07
1.04471e+07
1.04434e+07
1.04396e+07
1.04358e+07
1.0432e+07
1.04281e+07
1.04242e+07
1.04203e+07
1.04164e+07
1.04124e+07
1.04084e+07
1.04043e+07
1.04003e+07
1.03961e+07
1.0392e+07
1.03878e+07
1.03836e+07
1.03794e+07
1.03751e+07
1.03708e+07
1.03665e+07
1.03621e+07
1.03577e+07
1.03533e+07
1.03488e+07
1.03443e+07
1.03398e+07
1.03352e+07
1.03306e+07
1.0326e+07
1.03213e+07
1.03166e+07
1.03119e+07
1.03071e+07
1.03023e+07
1.02974e+07
1.02925e+07
1.02876e+07
1.02827e+07
1.02777e+07
1.02727e+07
1.02677e+07
1.02627e+07
1.02577e+07
1.25178e+07
1.25166e+07
1.25141e+07
1.25103e+07
1.25053e+07
1.24989e+07
1.24911e+07
1.2482e+07
1.24715e+07
1.24595e+07
1.24461e+07
1.24313e+07
1.24149e+07
1.23971e+07
1.23777e+07
1.23569e+07
1.23344e+07
1.23104e+07
1.22849e+07
1.22577e+07
1.2229e+07
1.21986e+07
1.21665e+07
1.21328e+07
1.20973e+07
1.206e+07
1.2021e+07
1.19801e+07
1.19372e+07
1.18924e+07
1.18456e+07
1.17967e+07
1.17455e+07
1.16921e+07
1.16363e+07
1.1578e+07
1.15171e+07
1.14534e+07
1.13868e+07
1.13172e+07
1.12444e+07
1.11684e+07
1.10891e+07
1.10066e+07
1.09209e+07
1.08317e+07
1.0738e+07
1.07133e+07
1.07101e+07
1.07069e+07
1.07037e+07
1.07006e+07
1.06976e+07
1.06946e+07
1.06916e+07
1.06887e+07
1.06857e+07
1.06829e+07
1.068e+07
1.06772e+07
1.06744e+07
1.06716e+07
1.06688e+07
1.06661e+07
1.06634e+07
1.06606e+07
1.06579e+07
1.06552e+07
1.06525e+07
1.06498e+07
1.06472e+07
1.06445e+07
1.06418e+07
1.06392e+07
1.06365e+07
1.06338e+07
1.06312e+07
1.06285e+07
1.06259e+07
1.06232e+07
1.06205e+07
1.06178e+07
1.06152e+07
1.06125e+07
1.06098e+07
1.06071e+07
1.06044e+07
1.06016e+07
1.05989e+07
1.05962e+07
1.05934e+07
1.05907e+07
1.05879e+07
1.05851e+07
1.05823e+07
1.05795e+07
1.05767e+07
1.05738e+07
1.0571e+07
1.05681e+07
1.05652e+07
1.05623e+07
1.05594e+07
1.05564e+07
1.05535e+07
1.05505e+07
1.05475e+07
1.05445e+07
1.05414e+07
1.05384e+07
1.05353e+07
1.05322e+07
1.05291e+07
1.0526e+07
1.05228e+07
1.05196e+07
1.05164e+07
1.05132e+07
1.05099e+07
1.05067e+07
1.05034e+07
1.05e+07
1.04967e+07
1.04933e+07
1.04899e+07
1.04865e+07
1.0483e+07
1.04796e+07
1.04761e+07
1.04726e+07
1.0469e+07
1.04654e+07
1.04618e+07
1.04582e+07
1.04545e+07
1.04508e+07
1.04471e+07
1.04434e+07
1.04396e+07
1.04358e+07
1.0432e+07
1.04281e+07
1.04242e+07
1.04203e+07
1.04164e+07
1.04124e+07
1.04084e+07
1.04043e+07
1.04002e+07
1.03961e+07
1.0392e+07
1.03878e+07
1.03836e+07
1.03794e+07
1.03751e+07
1.03708e+07
1.03665e+07
1.03621e+07
1.03577e+07
1.03533e+07
1.03488e+07
1.03443e+07
1.03398e+07
1.03352e+07
1.03306e+07
1.0326e+07
1.03213e+07
1.03166e+07
1.03119e+07
1.03071e+07
1.03023e+07
1.02974e+07
1.02925e+07
1.02876e+07
1.02827e+07
1.02777e+07
1.02727e+07
1.02677e+07
1.02627e+07
1.02577e+07
1.25378e+07
1.25365e+07
1.2534e+07
1.25302e+07
1.25251e+07
1.25186e+07
1.25108e+07
1.25016e+07
1.24909e+07
1.24789e+07
1.24654e+07
1.24504e+07
1.2434e+07
1.2416e+07
1.23966e+07
1.23756e+07
1.2353e+07
1.23289e+07
1.23033e+07
1.2276e+07
1.22472e+07
1.22167e+07
1.21846e+07
1.21508e+07
1.21153e+07
1.2078e+07
1.20391e+07
1.19983e+07
1.19556e+07
1.19111e+07
1.18646e+07
1.18161e+07
1.17656e+07
1.17129e+07
1.16581e+07
1.1601e+07
1.15415e+07
1.14797e+07
1.14154e+07
1.13486e+07
1.12793e+07
1.12076e+07
1.11335e+07
1.10574e+07
1.09794e+07
1.08999e+07
1.08192e+07
1.07353e+07
1.07093e+07
1.07061e+07
1.07031e+07
1.07e+07
1.0697e+07
1.06941e+07
1.06911e+07
1.06882e+07
1.06854e+07
1.06825e+07
1.06797e+07
1.06769e+07
1.06741e+07
1.06713e+07
1.06686e+07
1.06658e+07
1.06631e+07
1.06604e+07
1.06577e+07
1.0655e+07
1.06524e+07
1.06497e+07
1.0647e+07
1.06444e+07
1.06417e+07
1.0639e+07
1.06364e+07
1.06337e+07
1.06311e+07
1.06284e+07
1.06258e+07
1.06231e+07
1.06204e+07
1.06178e+07
1.06151e+07
1.06124e+07
1.06097e+07
1.0607e+07
1.06043e+07
1.06016e+07
1.05989e+07
1.05961e+07
1.05934e+07
1.05906e+07
1.05879e+07
1.05851e+07
1.05823e+07
1.05795e+07
1.05766e+07
1.05738e+07
1.05709e+07
1.05681e+07
1.05652e+07
1.05623e+07
1.05594e+07
1.05564e+07
1.05535e+07
1.05505e+07
1.05475e+07
1.05445e+07
1.05414e+07
1.05384e+07
1.05353e+07
1.05322e+07
1.05291e+07
1.05259e+07
1.05228e+07
1.05196e+07
1.05164e+07
1.05132e+07
1.05099e+07
1.05066e+07
1.05033e+07
1.05e+07
1.04967e+07
1.04933e+07
1.04899e+07
1.04865e+07
1.0483e+07
1.04796e+07
1.04761e+07
1.04725e+07
1.0469e+07
1.04654e+07
1.04618e+07
1.04582e+07
1.04545e+07
1.04508e+07
1.04471e+07
1.04434e+07
1.04396e+07
1.04358e+07
1.0432e+07
1.04281e+07
1.04242e+07
1.04203e+07
1.04164e+07
1.04124e+07
1.04084e+07
1.04043e+07
1.04002e+07
1.03961e+07
1.0392e+07
1.03878e+07
1.03836e+07
1.03794e+07
1.03751e+07
1.03708e+07
1.03665e+07
1.03621e+07
1.03577e+07
1.03533e+07
1.03488e+07
1.03443e+07
1.03398e+07
1.03352e+07
1.03306e+07
1.0326e+07
1.03213e+07
1.03166e+07
1.03118e+07
1.03071e+07
1.03023e+07
1.02974e+07
1.02925e+07
1.02876e+07
1.02827e+07
1.02777e+07
1.02727e+07
1.02677e+07
1.02626e+07
1.02576e+07
1.2563e+07
1.25617e+07
1.25591e+07
1.25552e+07
1.255e+07
1.25434e+07
1.25355e+07
1.25261e+07
1.25154e+07
1.25032e+07
1.24895e+07
1.24744e+07
1.24578e+07
1.24397e+07
1.242e+07
1.23989e+07
1.23762e+07
1.23519e+07
1.23261e+07
1.22987e+07
1.22697e+07
1.2239e+07
1.22068e+07
1.21729e+07
1.21374e+07
1.21001e+07
1.20612e+07
1.20205e+07
1.1978e+07
1.19337e+07
1.18876e+07
1.18396e+07
1.17897e+07
1.17378e+07
1.16839e+07
1.16279e+07
1.15699e+07
1.15099e+07
1.14477e+07
1.13835e+07
1.13173e+07
1.12491e+07
1.11793e+07
1.1108e+07
1.10355e+07
1.09623e+07
1.08885e+07
1.08142e+07
1.07375e+07
1.07053e+07
1.07023e+07
1.06993e+07
1.06964e+07
1.06935e+07
1.06906e+07
1.06877e+07
1.06849e+07
1.06821e+07
1.06793e+07
1.06765e+07
1.06737e+07
1.0671e+07
1.06683e+07
1.06655e+07
1.06628e+07
1.06602e+07
1.06575e+07
1.06548e+07
1.06521e+07
1.06495e+07
1.06468e+07
1.06442e+07
1.06415e+07
1.06389e+07
1.06362e+07
1.06336e+07
1.06309e+07
1.06283e+07
1.06257e+07
1.0623e+07
1.06203e+07
1.06177e+07
1.0615e+07
1.06123e+07
1.06096e+07
1.06069e+07
1.06042e+07
1.06015e+07
1.05988e+07
1.05961e+07
1.05933e+07
1.05906e+07
1.05878e+07
1.0585e+07
1.05822e+07
1.05794e+07
1.05766e+07
1.05738e+07
1.05709e+07
1.0568e+07
1.05652e+07
1.05622e+07
1.05593e+07
1.05564e+07
1.05534e+07
1.05505e+07
1.05475e+07
1.05444e+07
1.05414e+07
1.05384e+07
1.05353e+07
1.05322e+07
1.05291e+07
1.05259e+07
1.05228e+07
1.05196e+07
1.05164e+07
1.05132e+07
1.05099e+07
1.05066e+07
1.05033e+07
1.05e+07
1.04967e+07
1.04933e+07
1.04899e+07
1.04865e+07
1.0483e+07
1.04796e+07
1.04761e+07
1.04725e+07
1.0469e+07
1.04654e+07
1.04618e+07
1.04582e+07
1.04545e+07
1.04508e+07
1.04471e+07
1.04434e+07
1.04396e+07
1.04358e+07
1.0432e+07
1.04281e+07
1.04242e+07
1.04203e+07
1.04163e+07
1.04124e+07
1.04084e+07
1.04043e+07
1.04002e+07
1.03961e+07
1.0392e+07
1.03878e+07
1.03836e+07
1.03794e+07
1.03751e+07
1.03708e+07
1.03665e+07
1.03621e+07
1.03577e+07
1.03533e+07
1.03488e+07
1.03443e+07
1.03398e+07
1.03352e+07
1.03306e+07
1.0326e+07
1.03213e+07
1.03166e+07
1.03118e+07
1.03071e+07
1.03022e+07
1.02974e+07
1.02925e+07
1.02876e+07
1.02826e+07
1.02777e+07
1.02727e+07
1.02676e+07
1.02626e+07
1.02575e+07
1.25934e+07
1.2592e+07
1.25894e+07
1.25854e+07
1.25801e+07
1.25734e+07
1.25653e+07
1.25558e+07
1.25448e+07
1.25324e+07
1.25185e+07
1.25032e+07
1.24863e+07
1.2468e+07
1.24481e+07
1.24267e+07
1.24037e+07
1.23792e+07
1.23531e+07
1.23255e+07
1.22963e+07
1.22655e+07
1.22331e+07
1.2199e+07
1.21634e+07
1.21261e+07
1.20871e+07
1.20465e+07
1.20041e+07
1.19601e+07
1.19142e+07
1.18667e+07
1.18173e+07
1.17661e+07
1.17131e+07
1.16582e+07
1.16016e+07
1.15431e+07
1.14828e+07
1.14208e+07
1.13571e+07
1.1292e+07
1.12255e+07
1.11578e+07
1.10894e+07
1.10204e+07
1.09511e+07
1.08819e+07
1.08123e+07
1.07409e+07
1.07015e+07
1.06985e+07
1.06956e+07
1.06928e+07
1.06899e+07
1.06871e+07
1.06843e+07
1.06815e+07
1.06788e+07
1.0676e+07
1.06733e+07
1.06706e+07
1.06679e+07
1.06652e+07
1.06625e+07
1.06598e+07
1.06572e+07
1.06545e+07
1.06519e+07
1.06492e+07
1.06466e+07
1.0644e+07
1.06413e+07
1.06387e+07
1.06361e+07
1.06334e+07
1.06308e+07
1.06282e+07
1.06255e+07
1.06229e+07
1.06202e+07
1.06176e+07
1.06149e+07
1.06122e+07
1.06095e+07
1.06069e+07
1.06042e+07
1.06015e+07
1.05987e+07
1.0596e+07
1.05933e+07
1.05905e+07
1.05878e+07
1.0585e+07
1.05822e+07
1.05794e+07
1.05766e+07
1.05737e+07
1.05709e+07
1.0568e+07
1.05651e+07
1.05622e+07
1.05593e+07
1.05564e+07
1.05534e+07
1.05504e+07
1.05474e+07
1.05444e+07
1.05414e+07
1.05383e+07
1.05353e+07
1.05322e+07
1.05291e+07
1.05259e+07
1.05228e+07
1.05196e+07
1.05164e+07
1.05132e+07
1.05099e+07
1.05066e+07
1.05033e+07
1.05e+07
1.04967e+07
1.04933e+07
1.04899e+07
1.04865e+07
1.0483e+07
1.04796e+07
1.04761e+07
1.04725e+07
1.0469e+07
1.04654e+07
1.04618e+07
1.04582e+07
1.04545e+07
1.04508e+07
1.04471e+07
1.04434e+07
1.04396e+07
1.04358e+07
1.0432e+07
1.04281e+07
1.04242e+07
1.04203e+07
1.04163e+07
1.04124e+07
1.04084e+07
1.04043e+07
1.04002e+07
1.03961e+07
1.0392e+07
1.03878e+07
1.03836e+07
1.03794e+07
1.03751e+07
1.03708e+07
1.03665e+07
1.03621e+07
1.03577e+07
1.03533e+07
1.03488e+07
1.03443e+07
1.03398e+07
1.03352e+07
1.03306e+07
1.0326e+07
1.03213e+07
1.03166e+07
1.03118e+07
1.03071e+07
1.03022e+07
1.02974e+07
1.02925e+07
1.02876e+07
1.02826e+07
1.02776e+07
1.02726e+07
1.02676e+07
1.02625e+07
1.02574e+07
1.26291e+07
1.26276e+07
1.26249e+07
1.26208e+07
1.26153e+07
1.26084e+07
1.26002e+07
1.25904e+07
1.25792e+07
1.25665e+07
1.25524e+07
1.25367e+07
1.25196e+07
1.25009e+07
1.24807e+07
1.24589e+07
1.24356e+07
1.24108e+07
1.23844e+07
1.23564e+07
1.23269e+07
1.22958e+07
1.22632e+07
1.22289e+07
1.21931e+07
1.21557e+07
1.21166e+07
1.2076e+07
1.20337e+07
1.19897e+07
1.19442e+07
1.18969e+07
1.1848e+07
1.17975e+07
1.17452e+07
1.16913e+07
1.16358e+07
1.15787e+07
1.152e+07
1.14598e+07
1.13982e+07
1.13354e+07
1.12715e+07
1.12066e+07
1.11411e+07
1.10751e+07
1.10089e+07
1.09427e+07
1.08766e+07
1.08101e+07
1.07416e+07
1.06977e+07
1.06948e+07
1.0692e+07
1.06892e+07
1.06864e+07
1.06837e+07
1.0681e+07
1.06782e+07
1.06755e+07
1.06728e+07
1.06701e+07
1.06675e+07
1.06648e+07
1.06621e+07
1.06595e+07
1.06569e+07
1.06542e+07
1.06516e+07
1.0649e+07
1.06463e+07
1.06437e+07
1.06411e+07
1.06385e+07
1.06359e+07
1.06332e+07
1.06306e+07
1.0628e+07
1.06254e+07
1.06227e+07
1.06201e+07
1.06174e+07
1.06148e+07
1.06121e+07
1.06094e+07
1.06068e+07
1.06041e+07
1.06014e+07
1.05987e+07
1.05959e+07
1.05932e+07
1.05905e+07
1.05877e+07
1.05849e+07
1.05821e+07
1.05793e+07
1.05765e+07
1.05737e+07
1.05708e+07
1.0568e+07
1.05651e+07
1.05622e+07
1.05593e+07
1.05563e+07
1.05534e+07
1.05504e+07
1.05474e+07
1.05444e+07
1.05414e+07
1.05383e+07
1.05353e+07
1.05322e+07
1.0529e+07
1.05259e+07
1.05227e+07
1.05196e+07
1.05164e+07
1.05131e+07
1.05099e+07
1.05066e+07
1.05033e+07
1.05e+07
1.04967e+07
1.04933e+07
1.04899e+07
1.04865e+07
1.0483e+07
1.04796e+07
1.04761e+07
1.04725e+07
1.0469e+07
1.04654e+07
1.04618e+07
1.04582e+07
1.04545e+07
1.04508e+07
1.04471e+07
1.04434e+07
1.04396e+07
1.04358e+07
1.0432e+07
1.04281e+07
1.04242e+07
1.04203e+07
1.04163e+07
1.04124e+07
1.04084e+07
1.04043e+07
1.04002e+07
1.03961e+07
1.0392e+07
1.03878e+07
1.03836e+07
1.03794e+07
1.03751e+07
1.03708e+07
1.03665e+07
1.03621e+07
1.03577e+07
1.03533e+07
1.03488e+07
1.03443e+07
1.03398e+07
1.03352e+07
1.03306e+07
1.0326e+07
1.03213e+07
1.03166e+07
1.03118e+07
1.0307e+07
1.03022e+07
1.02974e+07
1.02925e+07
1.02876e+07
1.02826e+07
1.02776e+07
1.02726e+07
1.02675e+07
1.02625e+07
1.02573e+07
1.26701e+07
1.26687e+07
1.26658e+07
1.26615e+07
1.26559e+07
1.26488e+07
1.26402e+07
1.26302e+07
1.26187e+07
1.26056e+07
1.25911e+07
1.25751e+07
1.25575e+07
1.25383e+07
1.25177e+07
1.24955e+07
1.24718e+07
1.24465e+07
1.24197e+07
1.23913e+07
1.23614e+07
1.23299e+07
1.22969e+07
1.22624e+07
1.22263e+07
1.21886e+07
1.21494e+07
1.21087e+07
1.20663e+07
1.20225e+07
1.1977e+07
1.19301e+07
1.18815e+07
1.18314e+07
1.17798e+07
1.17267e+07
1.16721e+07
1.16161e+07
1.15587e+07
1.15e+07
1.14401e+07
1.13791e+07
1.13171e+07
1.12544e+07
1.1191e+07
1.11272e+07
1.10631e+07
1.09989e+07
1.09347e+07
1.08704e+07
1.08054e+07
1.07379e+07
1.0694e+07
1.06912e+07
1.06884e+07
1.06857e+07
1.0683e+07
1.06803e+07
1.06776e+07
1.06749e+07
1.06723e+07
1.06696e+07
1.0667e+07
1.06643e+07
1.06617e+07
1.06591e+07
1.06565e+07
1.06539e+07
1.06513e+07
1.06487e+07
1.06461e+07
1.06435e+07
1.06408e+07
1.06382e+07
1.06356e+07
1.0633e+07
1.06304e+07
1.06278e+07
1.06252e+07
1.06226e+07
1.06199e+07
1.06173e+07
1.06146e+07
1.0612e+07
1.06093e+07
1.06066e+07
1.0604e+07
1.06013e+07
1.05986e+07
1.05958e+07
1.05931e+07
1.05904e+07
1.05876e+07
1.05849e+07
1.05821e+07
1.05793e+07
1.05765e+07
1.05736e+07
1.05708e+07
1.05679e+07
1.0565e+07
1.05621e+07
1.05592e+07
1.05563e+07
1.05533e+07
1.05504e+07
1.05474e+07
1.05444e+07
1.05414e+07
1.05383e+07
1.05352e+07
1.05321e+07
1.0529e+07
1.05259e+07
1.05227e+07
1.05196e+07
1.05164e+07
1.05131e+07
1.05099e+07
1.05066e+07
1.05033e+07
1.05e+07
1.04966e+07
1.04933e+07
1.04899e+07
1.04865e+07
1.0483e+07
1.04795e+07
1.0476e+07
1.04725e+07
1.0469e+07
1.04654e+07
1.04618e+07
1.04582e+07
1.04545e+07
1.04508e+07
1.04471e+07
1.04434e+07
1.04396e+07
1.04358e+07
1.0432e+07
1.04281e+07
1.04242e+07
1.04203e+07
1.04163e+07
1.04124e+07
1.04083e+07
1.04043e+07
1.04002e+07
1.03961e+07
1.0392e+07
1.03878e+07
1.03836e+07
1.03794e+07
1.03751e+07
1.03708e+07
1.03665e+07
1.03621e+07
1.03577e+07
1.03533e+07
1.03488e+07
1.03443e+07
1.03398e+07
1.03352e+07
1.03306e+07
1.0326e+07
1.03213e+07
1.03166e+07
1.03118e+07
1.0307e+07
1.03022e+07
1.02974e+07
1.02925e+07
1.02875e+07
1.02826e+07
1.02776e+07
1.02726e+07
1.02675e+07
1.02624e+07
1.02572e+07
1.27168e+07
1.27152e+07
1.27122e+07
1.27078e+07
1.27018e+07
1.26945e+07
1.26856e+07
1.26752e+07
1.26632e+07
1.26497e+07
1.26347e+07
1.26182e+07
1.26e+07
1.25804e+07
1.25592e+07
1.25364e+07
1.25121e+07
1.24863e+07
1.24589e+07
1.243e+07
1.23996e+07
1.23676e+07
1.23342e+07
1.22992e+07
1.22627e+07
1.22248e+07
1.21853e+07
1.21443e+07
1.21019e+07
1.2058e+07
1.20126e+07
1.19657e+07
1.19174e+07
1.18677e+07
1.18166e+07
1.1764e+07
1.17102e+07
1.1655e+07
1.15986e+07
1.15411e+07
1.14824e+07
1.14228e+07
1.13623e+07
1.13011e+07
1.12393e+07
1.11771e+07
1.11145e+07
1.10517e+07
1.09887e+07
1.09256e+07
1.0862e+07
1.07972e+07
1.0729e+07
1.06904e+07
1.06876e+07
1.06849e+07
1.06823e+07
1.06796e+07
1.06769e+07
1.06743e+07
1.06717e+07
1.06691e+07
1.06664e+07
1.06638e+07
1.06612e+07
1.06587e+07
1.06561e+07
1.06535e+07
1.06509e+07
1.06483e+07
1.06457e+07
1.06431e+07
1.06406e+07
1.0638e+07
1.06354e+07
1.06328e+07
1.06302e+07
1.06276e+07
1.0625e+07
1.06224e+07
1.06198e+07
1.06171e+07
1.06145e+07
1.06118e+07
1.06092e+07
1.06065e+07
1.06038e+07
1.06012e+07
1.05985e+07
1.05958e+07
1.0593e+07
1.05903e+07
1.05875e+07
1.05848e+07
1.0582e+07
1.05792e+07
1.05764e+07
1.05736e+07
1.05707e+07
1.05679e+07
1.0565e+07
1.05621e+07
1.05592e+07
1.05563e+07
1.05533e+07
1.05503e+07
1.05474e+07
1.05444e+07
1.05413e+07
1.05383e+07
1.05352e+07
1.05321e+07
1.0529e+07
1.05259e+07
1.05227e+07
1.05195e+07
1.05163e+07
1.05131e+07
1.05099e+07
1.05066e+07
1.05033e+07
1.05e+07
1.04966e+07
1.04933e+07
1.04899e+07
1.04865e+07
1.0483e+07
1.04795e+07
1.0476e+07
1.04725e+07
1.0469e+07
1.04654e+07
1.04618e+07
1.04582e+07
1.04545e+07
1.04508e+07
1.04471e+07
1.04434e+07
1.04396e+07
1.04358e+07
1.0432e+07
1.04281e+07
1.04242e+07
1.04203e+07
1.04163e+07
1.04124e+07
1.04083e+07
1.04043e+07
1.04002e+07
1.03961e+07
1.0392e+07
1.03878e+07
1.03836e+07
1.03794e+07
1.03751e+07
1.03708e+07
1.03665e+07
1.03621e+07
1.03577e+07
1.03533e+07
1.03488e+07
1.03443e+07
1.03398e+07
1.03352e+07
1.03306e+07
1.0326e+07
1.03213e+07
1.03166e+07
1.03118e+07
1.0307e+07
1.03022e+07
1.02974e+07
1.02925e+07
1.02875e+07
1.02826e+07
1.02776e+07
1.02725e+07
1.02674e+07
1.02623e+07
1.02572e+07
1.27692e+07
1.27675e+07
1.27643e+07
1.27596e+07
1.27534e+07
1.27456e+07
1.27363e+07
1.27254e+07
1.2713e+07
1.26989e+07
1.26833e+07
1.26661e+07
1.26473e+07
1.2627e+07
1.26051e+07
1.25816e+07
1.25566e+07
1.253e+07
1.2502e+07
1.24724e+07
1.24413e+07
1.24088e+07
1.23747e+07
1.23392e+07
1.23023e+07
1.22639e+07
1.2224e+07
1.21827e+07
1.214e+07
1.2096e+07
1.20505e+07
1.20036e+07
1.19554e+07
1.19059e+07
1.18551e+07
1.18029e+07
1.17496e+07
1.16951e+07
1.16394e+07
1.15827e+07
1.15251e+07
1.14665e+07
1.14071e+07
1.1347e+07
1.12864e+07
1.12252e+07
1.11637e+07
1.11019e+07
1.10398e+07
1.09775e+07
1.09146e+07
1.08509e+07
1.07853e+07
1.0715e+07
1.06869e+07
1.06841e+07
1.06815e+07
1.06788e+07
1.06762e+07
1.06736e+07
1.0671e+07
1.06684e+07
1.06659e+07
1.06633e+07
1.06607e+07
1.06582e+07
1.06556e+07
1.06531e+07
1.06505e+07
1.06479e+07
1.06454e+07
1.06428e+07
1.06403e+07
1.06377e+07
1.06351e+07
1.06325e+07
1.063e+07
1.06274e+07
1.06248e+07
1.06222e+07
1.06196e+07
1.0617e+07
1.06143e+07
1.06117e+07
1.0609e+07
1.06064e+07
1.06037e+07
1.0601e+07
1.05984e+07
1.05957e+07
1.05929e+07
1.05902e+07
1.05875e+07
1.05847e+07
1.05819e+07
1.05791e+07
1.05763e+07
1.05735e+07
1.05707e+07
1.05678e+07
1.05649e+07
1.05621e+07
1.05592e+07
1.05562e+07
1.05533e+07
1.05503e+07
1.05473e+07
1.05443e+07
1.05413e+07
1.05382e+07
1.05352e+07
1.05321e+07
1.0529e+07
1.05259e+07
1.05227e+07
1.05195e+07
1.05163e+07
1.05131e+07
1.05099e+07
1.05066e+07
1.05033e+07
1.05e+07
1.04966e+07
1.04933e+07
1.04899e+07
1.04864e+07
1.0483e+07
1.04795e+07
1.0476e+07