/*--------------------------------*- C++ -*----------------------------------*\
  =========                 |
  \\      /  F ield         | OpenFOAM: The Open Source CFD Toolbox
   \\    /   O peration     | Website:  https://openfoam.org
    \\  /    A nd           | Version:  10
     \\/     M anipulation  |
\*---------------------------------------------------------------------------*/
FoamFile
{
    format      ascii;
    class       volVectorField;
    location    "2.17";
    object      Ua;
}
// * * * * * * * * * * * * * * * * * * * * * * * * * * * * * * * * * * * * * //

dimensions      [0 1 -1 0 0 0 0];

internalField   nonuniform List<vector> 
12225
(
(1.7834e-05 -2.2928e-06 0)
(5.21278e-05 -2.14576e-06 0)
(8.31962e-05 -1.8751e-06 0)
(0.000110533 -1.56948e-06 0)
(0.000134341 -1.28892e-06 0)
(0.000155184 -1.06321e-06 0)
(0.000173729 -9.02446e-07 0)
(0.000190618 -8.07386e-07 0)
(0.00020642 -7.76796e-07 0)
(0.000221646 -8.12139e-07 0)
(0.000236777 -9.21405e-07 0)
(0.000252327 -1.12419e-06 0)
(0.000268933 -1.46163e-06 0)
(0.000287529 -2.02005e-06 0)
(0.000309734 -2.99711e-06 0)
(0.000338953 -4.92918e-06 0)
(0.000384538 -9.72751e-06 0)
(0.000484053 -2.72462e-05 0)
(1.20661e-05 -5.92169e-06 0)
(3.55393e-05 -5.57682e-06 0)
(5.74072e-05 -4.9077e-06 0)
(7.73109e-05 -4.13673e-06 0)
(9.52578e-05 -3.41981e-06 0)
(0.00011148 -2.83819e-06 0)
(0.000126306 -2.42247e-06 0)
(0.000140083 -2.1784e-06 0)
(0.000153144 -2.1057e-06 0)
(0.000165802 -2.21067e-06 0)
(0.000178371 -2.51672e-06 0)
(0.000191191 -3.07815e-06 0)
(0.000204692 -4.00675e-06 0)
(0.00021949 -5.5333e-06 0)
(0.000236592 -8.17366e-06 0)
(0.000257841 -1.32594e-05 0)
(0.0002865 -2.50318e-05 0)
(0.000321333 -6.1002e-05 0)
(9.30499e-06 -8.11106e-06 0)
(2.75794e-05 -7.70909e-06 0)
(4.49845e-05 -6.85063e-06 0)
(6.12386e-05 -5.82855e-06 0)
(7.62721e-05 -4.85901e-06 0)
(9.0173e-05 -4.06231e-06 0)
(0.000103116 -3.48983e-06 0)
(0.000115311 -3.15717e-06 0)
(0.000126974 -3.06989e-06 0)
(0.000138323 -3.24176e-06 0)
(0.00014958 -3.71024e-06 0)
(0.000160994 -4.55654e-06 0)
(0.00017287 -5.94266e-06 0)
(0.000185618 -8.19316e-06 0)
(0.000199819 -1.19998e-05 0)
(0.000216206 -1.89928e-05 0)
(0.000234694 -3.3471e-05 0)
(0.000247005 -6.73348e-05 0)
(7.52889e-06 -9.51932e-06 0)
(2.24445e-05 -9.13348e-06 0)
(3.6933e-05 -8.19493e-06 0)
(5.07666e-05 -7.03528e-06 0)
(6.38388e-05 -5.91208e-06 0)
(7.61562e-05 -4.97726e-06 0)
(8.78012e-05 -4.30233e-06 0)
(9.88973e-05 -3.91473e-06 0)
(0.000109586 -3.82808e-06 0)
(0.000120019 -4.06436e-06 0)
(0.000130355 -4.67318e-06 0)
(0.000140771 -5.75578e-06 0)
(0.000151474 -7.50679e-06 0)
(0.000162703 -1.03003e-05 0)
(0.000174699 -1.48824e-05 0)
(0.000187436 -2.28174e-05 0)
(0.00019938 -3.74365e-05 0)
(0.000203048 -6.48158e-05 0)
(6.24501e-06 -1.03758e-05 0)
(1.87209e-05 -1.0054e-05 0)
(3.10642e-05 -9.10752e-06 0)
(4.30879e-05 -7.88698e-06 0)
(5.46692e-05 -6.67858e-06 0)
(6.57653e-05 -5.66008e-06 0)
(7.63979e-05 -4.92178e-06 0)
(8.66303e-05 -4.50371e-06 0)
(9.65495e-05 -4.42837e-06 0)
(0.000106256 -4.72584e-06 0)
(0.000115857 -5.45526e-06 0)
(0.000125472 -6.73057e-06 0)
(0.000135221 -8.76167e-06 0)
(0.000145206 -1.19311e-05 0)
(0.000155411 -1.69419e-05 0)
(0.000165381 -2.50806e-05 0)
(0.000173265 -3.85103e-05 0)
(0.00017386 -5.95797e-05 0)
(5.25826e-06 -1.07979e-05 0)
(1.58495e-05 -1.05739e-05 0)
(2.65131e-05 -9.67083e-06 0)
(3.70949e-05 -8.44573e-06 0)
(4.74672e-05 -7.20413e-06 0)
(5.75576e-05 -6.14453e-06 0)
(6.73466e-05 -5.37416e-06 0)
(7.68537e-05 -4.94536e-06 0)
(8.61232e-05 -4.88958e-06 0)
(9.52141e-05 -5.24403e-06 0)
(0.000104193 -6.07434e-06 0)
(0.000113125 -7.49959e-06 0)
(0.00012206 -9.72852e-06 0)
(0.000130992 -1.31182e-05 0)
(0.000139742 -1.82646e-05 0)
(0.000147688 -2.61029e-05 0)
(0.000153189 -3.78249e-05 0)
(0.00015303 -5.38719e-05 0)
(4.47141e-06 -1.08587e-05 0)
(1.35518e-05 -1.07563e-05 0)
(2.28494e-05 -9.93353e-06 0)
(3.22371e-05 -8.74638e-06 0)
(4.159e-05 -7.51263e-06 0)
(5.08193e-05 -6.44684e-06 0)
(5.98773e-05 -5.67078e-06 0)
(6.87507e-05 -5.24809e-06 0)
(7.74501e-05 -5.21848e-06 0)
(8.60005e-05 -5.62489e-06 0)
(9.44313e-05 -6.53598e-06 0)
(0.000102765 -8.06878e-06 0)
(0.000110995 -1.0417e-05 0)
(0.000119039 -1.38884e-05 0)
(0.000126638 -1.89433e-05 0)
(0.000133165 -2.61862e-05 0)
(0.000137369 -3.61433e-05 0)
(0.000137398 -4.8469e-05 0)
(3.82878e-06 -1.06102e-05 0)
(1.16681e-05 -1.0645e-05 0)
(1.9827e-05 -9.92805e-06 0)
(2.82005e-05 -8.81058e-06 0)
(3.66719e-05 -7.61743e-06 0)
(4.5145e-05 -6.57468e-06 0)
(5.35538e-05 -5.81576e-06 0)
(6.18604e-05 -5.41399e-06 0)
(7.00481e-05 -5.41604e-06 0)
(7.81133e-05 -5.8688e-06 0)
(8.60548e-05 -6.84057e-06 0)
(9.38598e-05 -8.44015e-06 0)
(0.00010148 -1.08361e-05 0)
(0.000108789 -1.42746e-05 0)
(0.000115506 -1.90801e-05 0)
(0.000121089 -2.55934e-05 0)
(0.000124665 -3.39486e-05 0)
(0.000125224 -4.3583e-05 0)
(3.29526e-06 -1.00942e-05 0)
(1.00979e-05 -1.0274e-05 0)
(1.72906e-05 -9.67833e-06 0)
(2.47872e-05 -8.65312e-06 0)
(3.24833e-05 -7.52635e-06 0)
(4.0282e-05 -6.53124e-06 0)
(4.81056e-05 -5.80949e-06 0)
(5.58979e-05 -5.44186e-06 0)
(6.36205e-05 -5.48032e-06 0)
(7.1246e-05 -5.9737e-06 0)
(7.87479e-05 -6.98692e-06 0)
(8.6086e-05 -8.61586e-06 0)
(9.31849e-05 -1.09984e-05 0)
(9.98991e-05 -1.43168e-05 0)
(0.000105966 -1.87777e-05 0)
(0.000110958 -2.4537e-05 0)
(0.000114302 -3.15305e-05 0)
(0.000115474 -3.92199e-05 0)
(2.84698e-06 -9.34758e-06 0)
(8.7724e-06 -9.67242e-06 0)
(1.51339e-05 -9.20373e-06 0)
(2.18626e-05 -8.28507e-06 0)
(2.88692e-05 -7.24442e-06 0)
(3.60607e-05 -6.31755e-06 0)
(4.33527e-05 -5.6506e-06 0)
(5.06754e-05 -5.3291e-06 0)
(5.79731e-05 -5.40829e-06 0)
(6.51991e-05 -5.93697e-06 0)
(7.23067e-05 -6.97424e-06 0)
(7.92364e-05 -8.60029e-06 0)
(8.58975e-05 -1.09207e-05 0)
(9.21444e-05 -1.40599e-05 0)
(9.7751e-05 -1.81324e-05 0)
(0.000102402 -2.31782e-05 0)
(0.000105738 -2.90537e-05 0)
(0.000107498 -3.53211e-05 0)
(2.46651e-06 -8.40621e-06 0)
(7.64119e-06 -8.86673e-06 0)
(1.3279e-05 -8.52122e-06 0)
(1.93287e-05 -7.7158e-06 0)
(2.57178e-05 -6.77559e-06 0)
(3.23603e-05 -5.93399e-06 0)
(3.91684e-05 -5.33735e-06 0)
(4.60623e-05 -5.07289e-06 0)
(5.29723e-05 -5.19697e-06 0)
(5.98365e-05 -5.75656e-06 0)
(6.65932e-05 -6.80331e-06 0)
(7.31703e-05 -8.40083e-06 0)
(7.94716e-05 -1.06245e-05 0)
(8.53624e-05 -1.35504e-05 0)
(9.06593e-05 -1.72283e-05 0)
(9.5139e-05 -2.16337e-05 0)
(9.85837e-05 -2.66068e-05 0)
(0.000100872 -3.18164e-05 0)
(2.1137e-06 -7.39112e-06 0)
(6.59618e-06 -7.96219e-06 0)
(1.15763e-05 -7.72219e-06 0)
(1.70185e-05 -7.02371e-06 0)
(2.28622e-05 -6.18613e-06 0)
(2.90236e-05 -5.43618e-06 0)
(3.54103e-05 -4.91669e-06 0)
(4.19331e-05 -4.7139e-06 0)
(4.85117e-05 -4.88352e-06 0)
(5.5073e-05 -5.46971e-06 0)
(6.15461e-05 -6.51669e-06 0)
(6.78529e-05 -8.07336e-06 0)
(7.38991e-05 -1.01907e-05 0)
(7.95655e-05 -1.29103e-05 0)
(8.47057e-05 -1.62414e-05 0)
(8.916e-05 -2.01294e-05 0)
(9.27905e-05 -2.44251e-05 0)
(9.55372e-05 -2.88796e-05 0)
(1.88407e-06 -6.28137e-06 0)
(5.90055e-06 -6.93315e-06 0)
(1.04104e-05 -6.77916e-06 0)
(1.53979e-05 -6.18188e-06 0)
(2.08196e-05 -5.45099e-06 0)
(2.66e-05 -4.80145e-06 0)
(3.26472e-05 -4.36849e-06 0)
(3.88675e-05 -4.23464e-06 0)
(4.51735e-05 -4.45327e-06 0)
(5.14844e-05 -5.06487e-06 0)
(5.77227e-05 -6.10627e-06 0)
(6.38069e-05 -7.61351e-06 0)
(6.96459e-05 -9.61824e-06 0)
(7.51346e-05 -1.21374e-05 0)
(8.01563e-05 -1.51567e-05 0)
(8.45971e-05 -1.86108e-05 0)
(8.8371e-05 -2.23701e-05 0)
(9.14528e-05 -2.62474e-05 0)
(1.65411e-06 -4.95719e-06 0)
(5.19329e-06 -5.64503e-06 0)
(9.21098e-06 -5.55423e-06 0)
(1.37251e-05 -5.05855e-06 0)
(1.87118e-05 -4.44957e-06 0)
(2.41023e-05 -3.92164e-06 0)
(2.98031e-05 -3.59615e-06 0)
(3.57153e-05 -3.54813e-06 0)
(4.17444e-05 -3.82634e-06 0)
(4.78031e-05 -4.46617e-06 0)
(5.38087e-05 -5.49632e-06 0)
(5.96789e-05 -6.94026e-06 0)
(6.53283e-05 -8.81283e-06 0)
(7.06675e-05 -1.11126e-05 0)
(7.56082e-05 -1.38111e-05 0)
(8.00739e-05 -1.68437e-05 0)
(8.40156e-05 -2.01057e-05 0)
(8.74282e-05 -2.34621e-05 0)
(1.41281e-06 -3.44512e-06 0)
(4.44309e-06 -4.0666e-06 0)
(7.93783e-06 -3.99299e-06 0)
(1.19674e-05 -3.59268e-06 0)
(1.65234e-05 -3.12087e-06 0)
(2.15356e-05 -2.7376e-06 0)
(2.69034e-05 -2.54233e-06 0)
(3.25192e-05 -2.5983e-06 0)
(3.82816e-05 -2.9473e-06 0)
(4.40974e-05 -3.6184e-06 0)
(4.98812e-05 -4.63221e-06 0)
(5.55527e-05 -6.00168e-06 0)
(6.10361e-05 -7.7297e-06 0)
(6.62606e-05 -9.80422e-06 0)
(7.11642e-05 -1.21929e-05 0)
(7.57e-05 -1.48391e-05 0)
(7.98436e-05 -1.76636e-05 0)
(8.35983e-05 -2.05715e-05 0)
(1.11016e-06 -1.80098e-06 0)
(3.52293e-06 -2.16465e-06 0)
(6.43771e-06 -2.04728e-06 0)
(9.98806e-06 -1.7392e-06 0)
(1.41541e-05 -1.42349e-06 0)
(1.88397e-05 -1.2075e-06 0)
(2.39209e-05 -1.16119e-06 0)
(2.92746e-05 -1.33332e-06 0)
(3.47906e-05 -1.75811e-06 0)
(4.03746e-05 -2.45998e-06 0)
(4.59484e-05 -3.45548e-06 0)
(5.14461e-05 -4.75195e-06 0)
(5.68115e-05 -6.34643e-06 0)
(6.19964e-05 -8.223e-06 0)
(6.69605e-05 -1.03506e-05 0)
(7.16739e-05 -1.26822e-05 0)
(7.61194e-05 -1.51575e-05 0)
(8.02942e-05 -1.77087e-05 0)
(5.68181e-07 5.1488e-09 0)
(1.96203e-06 1.33474e-07 0)
(4.07073e-06 3.13792e-07 0)
(7.06031e-06 4.98759e-07 0)
(1.08099e-05 6.35336e-07 0)
(1.51521e-05 6.6839e-07 0)
(1.99411e-05 5.50283e-07 0)
(2.5056e-05 2.44772e-07 0)
(3.03933e-05 -2.73454e-07 0)
(3.58812e-05 -1.03859e-06 0)
(4.14798e-05 -2.08735e-06 0)
(4.71313e-05 -3.38063e-06 0)
(5.27598e-05 -4.91284e-06 0)
(5.83009e-05 -6.66649e-06 0)
(6.37008e-05 -8.61259e-06 0)
(6.89169e-05 -1.07119e-05 0)
(7.39188e-05 -1.29177e-05 0)
(7.86892e-05 -1.51798e-05 0)
(1.3337e-06 2.16522e-06 0)
(4.08534e-06 2.93498e-06 0)
(7.1101e-06 3.28503e-06 0)
(1.05653e-05 3.39028e-06 0)
(1.45105e-05 3.33728e-06 0)
(1.89273e-05 3.14244e-06 0)
(2.37503e-05 2.79625e-06 0)
(2.8895e-05 2.28504e-06 0)
(3.42756e-05 1.59819e-06 0)
(3.97944e-05 7.12175e-07 0)
(4.53406e-05 -3.98776e-07 0)
(5.08764e-05 -1.75014e-06 0)
(5.64156e-05 -3.32561e-06 0)
(6.19203e-05 -5.0461e-06 0)
(6.73301e-05 -6.88731e-06 0)
(7.25987e-05 -8.81893e-06 0)
(7.76932e-05 -1.08072e-05 0)
(8.25923e-05 -1.28176e-05 0)
(1.87568e-06 5.1618e-06 0)
(5.75749e-06 6.36674e-06 0)
(9.90616e-06 6.92088e-06 0)
(1.43418e-05 7.00905e-06 0)
(1.90843e-05 6.77994e-06 0)
(2.41305e-05 6.32396e-06 0)
(2.94509e-05 5.68925e-06 0)
(3.49964e-05 4.90018e-06 0)
(4.07082e-05 3.96961e-06 0)
(4.65244e-05 2.9054e-06 0)
(5.23856e-05 1.71706e-06 0)
(5.82014e-05 3.52087e-07 0)
(6.3874e-05 -1.16737e-06 0)
(6.94011e-05 -2.86412e-06 0)
(7.48009e-05 -4.61705e-06 0)
(8.0046e-05 -6.40122e-06 0)
(8.51166e-05 -8.19552e-06 0)
(9.00011e-05 -9.97902e-06 0)
(2.15262e-06 8.53654e-06 0)
(6.64808e-06 9.74538e-06 0)
(1.14986e-05 1.02854e-05 0)
(1.66635e-05 1.02783e-05 0)
(2.21131e-05 9.87096e-06 0)
(2.78143e-05 9.18188e-06 0)
(3.37242e-05 8.29327e-06 0)
(3.97922e-05 7.25836e-06 0)
(4.59632e-05 6.11078e-06 0)
(5.21822e-05 4.87235e-06 0)
(5.83974e-05 3.55878e-06 0)
(6.45616e-05 2.18214e-06 0)
(7.06277e-05 7.57556e-07 0)
(7.65071e-05 -8.01493e-07 0)
(8.21845e-05 -2.47285e-06 0)
(8.76984e-05 -4.13355e-06 0)
(9.30322e-05 -5.7718e-06 0)
(9.81743e-05 -7.37595e-06 0)
(2.5832e-06 1.14902e-05 0)
(7.93342e-06 1.24712e-05 0)
(1.36284e-05 1.28188e-05 0)
(1.96205e-05 1.262e-05 0)
(2.58605e-05 1.20109e-05 0)
(3.22982e-05 1.11155e-05 0)
(3.88812e-05 1.0028e-05 0)
(4.5555e-05 8.81381e-06 0)
(5.22658e-05 7.51601e-06 0)
(5.89626e-05 6.16251e-06 0)
(6.55988e-05 4.77196e-06 0)
(7.21341e-05 3.35782e-06 0)
(7.8534e-05 1.93096e-06 0)
(8.47611e-05 5.01692e-07 0)
(9.07515e-05 -1.03808e-06 0)
(9.65018e-05 -2.60713e-06 0)
(0.000102046 -4.13139e-06 0)
(0.000107379 -5.6048e-06 0)
(3.11514e-06 1.39285e-05 0)
(9.50145e-06 1.46347e-05 0)
(1.61847e-05 1.47346e-05 0)
(2.31218e-05 1.43101e-05 0)
(3.02541e-05 1.34932e-05 0)
(3.75204e-05 1.2409e-05 0)
(4.486e-05 1.11562e-05 0)
(5.22152e-05 9.80499e-06 0)
(5.95328e-05 8.40176e-06 0)
(6.67652e-05 6.97623e-06 0)
(7.38715e-05 5.54712e-06 0)
(8.08173e-05 4.1266e-06 0)
(8.75753e-05 2.72326e-06 0)
(9.41242e-05 1.34373e-06 0)
(0.000100424 -2.95245e-08 0)
(0.000106446 -1.47664e-06 0)
(0.000112213 -2.88694e-06 0)
(0.000117739 -4.23523e-06 0)
(3.76458e-06 1.56876e-05 0)
(1.14089e-05 1.61286e-05 0)
(1.92726e-05 1.59795e-05 0)
(2.73154e-05 1.53348e-05 0)
(3.54738e-05 1.43291e-05 0)
(4.36794e-05 1.30883e-05 0)
(5.18676e-05 1.17117e-05 0)
(5.99801e-05 1.02696e-05 0)
(6.79664e-05 8.80792e-06 0)
(7.57844e-05 7.35494e-06 0)
(8.34001e-05 5.92736e-06 0)
(9.0787e-05 4.53475e-06 0)
(9.79254e-05 3.18271e-06 0)
(0.000104802 1.87477e-06 0)
(0.000111407 6.13423e-07 0)
(0.000117708 -6.69521e-07 0)
(0.000123701 -1.95937e-06 0)
(0.000129417 -3.1808e-06 0)
(4.5541e-06 1.66841e-05 0)
(1.37247e-05 1.68916e-05 0)
(2.30079e-05 1.65232e-05 0)
(3.23595e-05 1.56921e-05 0)
(4.17114e-05 1.45381e-05 0)
(5.09923e-05 1.31877e-05 0)
(6.01377e-05 1.17382e-05 0)
(6.90932e-05 1.02568e-05 0)
(7.78152e-05 8.78634e-06 0)
(8.62705e-05 7.35175e-06 0)
(9.44348e-05 5.96631e-06 0)
(0.000102292 4.63628e-06 0)
(0.000109831 3.36403e-06 0)
(0.000117049 2.14999e-06 0)
(0.000123945 9.938e-07 0)
(0.000130502 -1.22881e-07 0)
(0.000136721 -1.27807e-06 0)
(0.000142627 -2.36802e-06 0)
(5.51808e-06 1.68777e-05 0)
(1.65498e-05 1.68933e-05 0)
(2.75521e-05 1.63536e-05 0)
(3.84686e-05 1.5389e-05 0)
(4.92258e-05 1.4144e-05 0)
(5.97527e-05 1.27433e-05 0)
(6.99907e-05 1.12798e-05 0)
(7.9895e-05 9.8156e-06 0)
(8.94345e-05 8.38847e-06 0)
(9.85894e-05 7.01881e-06 0)
(0.000107349 5.71588e-06 0)
(0.000115711 4.48247e-06 0)
(0.000123677 3.31785e-06 0)
(0.000131253 2.21974e-06 0)
(0.000138451 1.18534e-06 0)
(0.000145278 2.11765e-07 0)
(0.000151727 -7.85263e-07 0)
(0.000157811 -1.73871e-06 0)
(6.71169e-06 1.62452e-05 0)
(2.00444e-05 1.61154e-05 0)
(3.31597e-05 1.54643e-05 0)
(4.59787e-05 1.44334e-05 0)
(5.8421e-05 1.31673e-05 0)
(7.04207e-05 1.17856e-05 0)
(8.19316e-05 1.03739e-05 0)
(9.29266e-05 8.98748e-06 0)
(0.000103394 7.65772e-06 0)
(0.000113334 6.39998e-06 0)
(0.000122755 5.21952e-06 0)
(0.000131672 4.11589e-06 0)
(0.000140102 3.0858e-06 0)
(0.000148066 2.12488e-06 0)
(0.000155585 1.22853e-06 0)
(0.000162682 3.92379e-07 0)
(0.000169362 -4.34557e-07 0)
(0.000175641 -1.24666e-06 0)
(8.23201e-06 1.47551e-05 0)
(2.4491e-05 1.45305e-05 0)
(4.02785e-05 1.38378e-05 0)
(5.54806e-05 1.28196e-05 0)
(7.00091e-05 1.16139e-05 0)
(8.38087e-05 1.03296e-05 0)
(9.68559e-05 9.04243e-06 0)
(0.000109151 7.79857e-06 0)
(0.000120713 6.62268e-06 0)
(0.000131569 5.52502e-06 0)
(0.000141755 4.50728e-06 0)
(0.000151308 3.56647e-06 0)
(0.000160265 2.69755e-06 0)
(0.000168665 1.89483e-06 0)
(0.000176544 1.15275e-06 0)
(0.000183937 4.6628e-07 0)
(0.000190862 -1.91347e-07 0)
(0.000197346 -8.56807e-07 0)
(1.02754e-05 1.23313e-05 0)
(3.04614e-05 1.20686e-05 0)
(4.98173e-05 1.14156e-05 0)
(6.81761e-05 1.05034e-05 0)
(8.54403e-05 9.45296e-06 0)
(0.000101575 8.35674e-06 0)
(0.000116595 7.27615e-06 0)
(0.000130543 6.24702e-06 0)
(0.000143482 5.28679e-06 0)
(0.000155483 4.40121e-06 0)
(0.000166616 3.58926e-06 0)
(0.000176951 2.8465e-06 0)
(0.000186554 2.16715e-06 0)
(0.000195484 1.54521e-06 0)
(0.000203798 9.75087e-07 0)
(0.000211545 4.51788e-07 0)
(0.000218761 -3.48982e-08 0)
(0.000225482 -5.45028e-07 0)
(1.33434e-05 8.76788e-06 0)
(3.94182e-05 8.53487e-06 0)
(6.41035e-05 8.02364e-06 0)
(8.71472e-05 7.33567e-06 0)
(0.000108441 6.56115e-06 0)
(0.000127989 5.76675e-06 0)
(0.000145868 4.99514e-06 0)
(0.000162195 4.26987e-06 0)
(0.000177105 3.60127e-06 0)
(0.000190734 2.9915e-06 0)
(0.00020321 2.43824e-06 0)
(0.00021465 1.93706e-06 0)
(0.000225161 1.48284e-06 0)
(0.000234837 1.07056e-06 0)
(0.00024376 6.95643e-07 0)
(0.000252006 3.54067e-07 0)
(0.000259638 4.23639e-08 0)
(0.000266697 -2.96249e-07 0)
(1.96479e-05 3.33894e-06 0)
(5.78233e-05 3.23945e-06 0)
(9.3456e-05 3.03396e-06 0)
(0.000126116 2.76309e-06 0)
(0.00015568 2.46221e-06 0)
(0.000182239 2.1569e-06 0)
(0.000206012 1.86314e-06 0)
(0.000227272 1.58937e-06 0)
(0.000246305 1.33899e-06 0)
(0.00026338 1.11235e-06 0)
(0.000278743 9.08165e-07 0)
(0.000292608 7.2443e-07 0)
(0.000305163 5.58965e-07 0)
(0.000316568 4.09672e-07 0)
(0.000326961 2.74669e-07 0)
(0.00033646 1.52317e-07 0)
(0.000345167 4.11772e-08 0)
(0.000353123 -8.24686e-08 0)
(2.02686e-05 -1.32574e-05 -1.71108e-31)
(6.09173e-05 -1.32401e-05 1.70406e-31)
(0.000101725 -1.32085e-05 0)
(0.000142624 -1.31636e-05 0)
(0.000183544 -1.31052e-05 0)
(0.00022441 -1.30293e-05 -1.65751e-31)
(0.000265135 -1.29302e-05 0)
(0.000305613 -1.2802e-05 0)
(0.000345724 -1.26403e-05 0)
(0.00038533 -1.24433e-05 0)
(0.000424279 -1.22113e-05 1.52819e-31)
(0.000462403 -1.19475e-05 0)
(0.000499521 -1.16576e-05 0)
(0.000535438 -1.13497e-05 0)
(0.000569942 -1.10345e-05 0)
(0.000602808 -1.07243e-05 1.31492e-31)
(0.000633795 -1.04322e-05 0)
(0.000662644 -1.01713e-05 0)
(0.00068908 -9.95308e-06 0)
(0.000712808 -9.78685e-06 0)
(0.000733525 -9.67971e-06 0)
(0.000750929 -9.63718e-06 0)
(0.000764743 -9.66354e-06 0)
(0.000774756 -9.76196e-06 1.17025e-31)
(0.000780886 -9.93422e-06 -1.19179e-31)
(0.000783244 -1.01804e-05 1.22333e-31)
(0.000782218 -1.0499e-05 1.26463e-31)
(0.000778513 -1.08878e-05 0)
(0.000773153 -1.13452e-05 0)
(0.000767404 -1.18735e-05 -1.44402e-31)
(0.000762635 -1.24816e-05 -1.52318e-31)
(0.000760171 -1.31885e-05 0)
(0.000761173 -1.40264e-05 0)
(0.00076661 -1.50441e-05 -1.8539e-31)
(0.000777323 -1.6312e-05 0)
(0.000794165 -1.79324e-05 0)
(0.000818232 -2.0058e-05 2.49585e-31)
(0.000851195 -2.29297e-05 0)
(0.000895897 -2.6955e-05 3.3781e-31)
(0.00095763 -3.28862e-05 8.27479e-31)
(0.00104751 -4.22676e-05 0)
(0.00119375 -5.8751e-05 0)
(0.00149821 -9.30815e-05 0)
(0.00295403 -0.000195515 0)
(0.0126323 -0.00215475 0)
(0.0204603 0.000911701 -2.405e-29)
(0.0192777 0.000832133 -2.19653e-29)
(0.0183165 0.000566731 -1.50821e-29)
(0.0176178 0.000441371 0)
(0.0170494 0.000371748 1.0012e-29)
(0.0165575 0.000326085 0)
(0.0161182 0.000291955 -7.92738e-30)
(0.0157194 0.000264259 -7.20207e-30)
(0.0153543 0.00024076 0)
(0.0150181 0.000220363 0)
(0.0147073 0.000202449 0)
(0.0144188 0.000186603 -5.16398e-30)
(0.0141503 0.000172506 0)
(0.0138996 0.000159896 0)
(0.0136651 0.000148549 0)
(0.0134451 0.000138278 0)
(0.0132385 0.000128924 0)
(0.013044 0.000120359 0)
(0.0128609 0.000112479 0)
(0.0126882 0.0001052 0)
(0.0125253 9.84536e-05 2.84068e-30)
(0.0123714 9.21844e-05 0)
(0.0122262 8.63467e-05 0)
(0.0120889 8.09021e-05 -2.37668e-30)
(0.0119592 7.58176e-05 -2.24219e-30)
(0.0118366 7.10644e-05 0)
(0.0117207 6.66171e-05 1.99873e-30)
(0.0116111 6.2453e-05 -1.8885e-30)
(0.0115075 5.85514e-05 0)
(0.0114095 5.48939e-05 1.68834e-30)
(0.0113168 5.14632e-05 0)
(0.0112292 4.82441e-05 0)
(0.0111464 4.52221e-05 -1.43212e-30)
(0.0110681 4.23843e-05 0)
(0.0109941 3.97185e-05 1.28626e-30)
(0.0109242 3.72139e-05 0)
(0.0108581 3.48601e-05 -1.15747e-30)
(0.0107956 3.26478e-05 -1.0988e-30)
(0.0107367 3.05683e-05 -1.04366e-30)
(0.010681 2.86135e-05 -1.98362e-30)
(0.0106284 2.67759e-05 1.88614e-30)
(0.0105788 2.50485e-05 0)
(0.010532 2.34248e-05 0)
(0.0104879 2.18989e-05 0)
(0.0104462 2.04649e-05 1.55127e-30)
(0.010407 1.91177e-05 1.47977e-30)
(0.0103701 1.78522e-05 -1.4126e-30)
(0.0103353 1.66638e-05 0)
(0.0103025 1.5548e-05 1.29028e-30)
(0.0102717 1.45007e-05 1.23469e-30)
(0.0102427 1.35181e-05 1.18252e-30)
(0.0102154 1.25964e-05 0)
(0.0101898 1.17321e-05 0)
(0.0101657 1.09221e-05 0)
(0.0101432 1.01631e-05 1.00437e-30)
(0.010122 9.45223e-06 0)
(0.0101021 8.78674e-06 0)
(0.0100834 8.164e-06 -8.98191e-31)
(0.0100659 7.58151e-06 0)
(0.0100496 7.03692e-06 0)
(0.0100343 6.52801e-06 -8.11294e-31)
(0.0100199 6.05266e-06 0)
(0.0100065 5.60888e-06 0)
(0.00999401 5.19479e-06 7.40466e-31)
(0.00998231 4.80859e-06 7.19948e-31)
(0.00997138 4.4486e-06 0)
(0.00996119 4.11321e-06 -6.83003e-31)
(0.00995169 3.80092e-06 0)
(0.00994283 3.51028e-06 6.50963e-31)
(0.00993457 3.23996e-06 0)
(0.00992689 2.98868e-06 6.23247e-31)
(0.00991974 2.75522e-06 6.10835e-31)
(0.0099131 2.53845e-06 0)
(0.00990692 2.3373e-06 0)
(0.00990119 2.15076e-06 0)
(0.00989586 1.97786e-06 0)
(0.00989092 1.81772e-06 0)
(0.00988635 1.66947e-06 0)
(0.00988211 1.53233e-06 0)
(0.00987818 1.40555e-06 5.39101e-31)
(0.00987455 1.28841e-06 -5.32869e-31)
(0.00987119 1.18026e-06 0)
(0.00986808 1.08048e-06 0)
(0.00986522 9.8848e-07 0)
(0.00986257 9.03715e-07 0)
(0.00986013 8.25672e-07 -1.01653e-30)
(0.00985788 7.53874e-07 0)
(0.00985581 6.87871e-07 1.00188e-30)
(0.00985391 6.27246e-07 -9.9543e-31)
(0.00985215 5.71608e-07 0)
(0.00985054 5.20593e-07 0)
(0.00984906 4.73866e-07 0)
(0.0098477 4.31112e-07 9.74568e-31)
(0.00984645 3.92044e-07 9.7041e-31)
(0.00984531 3.56394e-07 0)
(0.00984426 3.2392e-07 9.63155e-31)
(0.00984329 2.94399e-07 9.60008e-31)
(0.00984241 2.67631e-07 -9.57162e-31)
(0.0098416 2.4344e-07 0)
(0.00984085 2.21668e-07 0)
(0.00984016 2.02186e-07 -9.50183e-31)
(0.00983953 1.84886e-07 0)
(0.00983895 1.69688e-07 0)
(0.00983841 1.56544e-07 0)
(0.0098379 1.4544e-07 0)
(0.00983742 1.36401e-07 9.4312e-31)
(0.00983697 1.29501e-07 9.42365e-31)
(0.00983653 1.2487e-07 0)
(0.0098361 1.22709e-07 9.41581e-31)
(0.00983566 1.23304e-07 0)
(0.00983522 1.27049e-07 0)
(0.00983475 1.34474e-07 9.4267e-31)
(0.00983424 1.4628e-07 0)
(0.00983368 1.63387e-07 9.4556e-31)
(0.00983303 1.86998e-07 0)
(0.00983228 2.18684e-07 0)
(0.00983138 2.6049e-07 9.55381e-31)
(0.00983028 3.15094e-07 0)
(0.00982894 3.86006e-07 9.68127e-31)
(0.00982727 4.77852e-07 0)
(0.00982517 5.96778e-07 0)
(0.00982252 7.51014e-07 0)
(0.00981913 9.51712e-07 -1.02569e-30)
(0.00981478 1.2142e-06 0)
(0.00980915 1.55991e-06 1.08764e-30)
(0.00980182 2.01954e-06 0)
(0.00979219 2.63828e-06 0)
(0.00977941 3.48523e-06 0)
(0.00976222 4.67107e-06 0)
(0.00973869 6.38471e-06 0)
(0.00970567 8.97682e-06 0)
(0.00965758 1.318e-05 0)
(0.00958307 2.08114e-05 -6.11369e-30)
(0.00945354 3.76969e-05 0)
(0.0091665 9.06444e-05 0)
(7.19579e-06 -3.40434e-05 4.39744e-31)
(2.16285e-05 -3.39716e-05 -4.38305e-31)
(3.61161e-05 -3.3873e-05 0)
(5.06323e-05 -3.37492e-05 8.70003e-31)
(6.51538e-05 -3.36014e-05 0)
(7.96461e-05 -3.34213e-05 -4.3102e-31)
(9.40484e-05 -3.31941e-05 -8.53606e-31)
(0.000108271 -3.29048e-05 -8.45454e-31)
(0.000122202 -3.25412e-05 0)
(0.00013572 -3.20965e-05 -8.23265e-31)
(0.000148701 -3.15689e-05 4.06263e-31)
(0.000161034 -3.09619e-05 0)
(0.000172627 -3.02843e-05 0)
(0.000183423 -2.95509e-05 0)
(0.000193406 -2.87825e-05 0)
(0.000202615 -2.80053e-05 3.59568e-31)
(0.000211146 -2.72502e-05 0)
(0.00021915 -2.65497e-05 6.75944e-31)
(0.000226816 -2.59353e-05 0)
(0.000234352 -2.54348e-05 0)
(0.000241968 -2.50711e-05 -6.36647e-31)
(0.000249865 -2.48622e-05 0)
(0.000258234 -2.48216e-05 6.29429e-31)
(0.000267258 -2.49595e-05 3.1944e-31)
(0.000277109 -2.52836e-05 -3.23511e-31)
(0.000287941 -2.57991e-05 3.30047e-31)
(0.000299895 -2.65102e-05 3.39096e-31)
(0.000313101 -2.74211e-05 0)
(0.000327686 -2.85396e-05 0)
(0.000343797 -2.98817e-05 -3.82153e-31)
(0.000361613 -3.14776e-05 -1.19917e-30)
(0.000381364 -3.33786e-05 0)
(0.000403344 -3.56645e-05 0)
(0.000427931 -3.84524e-05 -4.91934e-31)
(0.000455612 -4.19105e-05 0)
(0.000487021 -4.62809e-05 0)
(0.000523017 -5.19208e-05 6.64886e-31)
(0.000564811 -5.93773e-05 0)
(0.000614197 -6.95322e-05 2.65979e-30)
(0.000674032 -8.38993e-05 2.15283e-30)
(0.000749349 -0.000105305 0)
(0.000850409 -0.000139701 0)
(0.00100415 -0.000202424 -1.03702e-29)
(0.00133113 -0.000355366 -1.82462e-29)
(0.00439772 -0.00245047 -1.26271e-28)
(0.0125746 -0.00256294 1.97267e-28)
(0.017929 0.0016558 -4.32246e-29)
(0.0177499 0.00140342 3.75347e-29)
(0.0173378 0.00120763 -6.40704e-29)
(0.0168856 0.00106581 2.79492e-29)
(0.0164453 0.000954707 0)
(0.016032 0.000862837 -2.26823e-29)
(0.0156487 0.000784362 -6.2673e-29)
(0.0152943 0.000716124 0)
(0.0149662 0.000656225 0)
(0.0146619 0.000603354 0)
(0.0143789 0.000556479 -1.47241e-29)
(0.014115 0.000514731 0)
(0.0138683 0.000477352 -2.59882e-29)
(0.013637 0.000443687 0)
(0.0134199 0.00041318 -2.26282e-29)
(0.0132156 0.000385369 0)
(0.0130233 0.000359876 1.9835e-29)
(0.0128419 0.000336399 0)
(0.0126708 0.000314692 -1.74657e-29)
(0.0125092 0.000294558 2.43191e-29)
(0.0123567 0.000275838 0)
(0.0122125 0.000258399 1.45122e-29)
(0.0120763 0.000242128 -6.54397e-30)
(0.0119475 0.000226929 -6.14805e-30)
(0.0118257 0.000212717 0)
(0.0117106 0.000199418 1.68469e-29)
(0.0116017 0.000186963 -5.1068e-30)
(0.0114988 0.000175293 0)
(0.0114014 0.000164351 4.51755e-30)
(0.0113093 0.000154087 9.03411e-30)
(0.0112223 0.000144454 0)
(0.0111399 0.000135411 -3.7633e-30)
(0.0110621 0.000126918 0)
(0.0109885 0.00011894 -3.85281e-30)
(0.0109189 0.000111443 0)
(0.0108532 0.000104397 3.46731e-30)
(0.0107911 9.77746e-05 -2.78218e-30)
(0.0107324 9.1549e-05 -8.36637e-30)
(0.010677 8.56964e-05 -1.58119e-29)
(0.0106247 8.01944e-05 1.49463e-29)
(0.0105754 7.50223e-05 0)
(0.0105288 7.01606e-05 0)
(0.0104849 6.55912e-05 0)
(0.0104435 6.12972e-05 -4.64836e-30)
(0.0104044 5.72628e-05 3.4517e-30)
(0.0103677 5.34729e-05 -3.25403e-30)
(0.010333 4.99138e-05 0)
(0.0103004 4.65722e-05 9.65502e-30)
(0.0102697 4.34357e-05 2.7305e-30)
(0.0102409 4.04927e-05 2.57698e-30)
(0.0102137 3.77321e-05 0)
(0.0101882 3.51436e-05 0)
(0.0101643 3.27173e-05 0)
(0.0101418 3.0444e-05 2.0528e-30)
(0.0101207 2.83148e-05 0)
(0.0101009 2.63215e-05 4.62937e-30)
(0.0100823 2.44562e-05 2.69257e-30)
(0.010065 2.27114e-05 -4.24931e-30)
(0.0100487 2.10802e-05 0)
(0.0100334 1.95557e-05 -5.40184e-30)
(0.0100191 1.81319e-05 0)
(0.0100058 1.68026e-05 -3.62718e-30)
(0.00999333 1.55621e-05 4.77298e-30)
(0.00998168 1.44053e-05 4.59081e-30)
(0.0099708 1.33269e-05 0)
(0.00996066 1.23222e-05 2.04802e-30)
(0.00995119 1.13867e-05 -3.05687e-30)
(0.00994237 1.05161e-05 1.01313e-30)
(0.00993416 9.70631e-06 0)
(0.00992651 8.95355e-06 9.31605e-31)
(0.00991939 8.25419e-06 -1.83187e-30)
(0.00991277 7.60483e-06 0)
(0.00990662 7.00224e-06 -2.59511e-30)
(0.00990091 6.4434e-06 -2.53626e-30)
(0.00989561 5.92545e-06 -2.4817e-30)
(0.00989069 5.44569e-06 0)
(0.00988613 5.00158e-06 0)
(0.00988191 4.59074e-06 0)
(0.009878 4.21092e-06 2.98522e-30)
(0.00987438 3.86001e-06 -6.65809e-31)
(0.00987104 3.53602e-06 0)
(0.00986795 3.23708e-06 2.1985e-30)
(0.00986509 2.96146e-06 2.16947e-30)
(0.00986246 2.70752e-06 0)
(0.00986003 2.47371e-06 -1.18693e-30)
(0.00985779 2.25861e-06 4.19084e-30)
(0.00985573 2.06088e-06 1.14383e-30)
(0.00985383 1.87925e-06 -5.23576e-30)
(0.00985208 1.71256e-06 0)
(0.00985048 1.55972e-06 0)
(0.009849 1.41972e-06 0)
(0.00984765 1.29163e-06 1.06354e-30)
(0.0098464 1.17458e-06 5.01367e-30)
(0.00984526 1.06777e-06 3.93984e-30)
(0.00984422 9.70469e-07 1.03e-30)
(0.00984326 8.82017e-07 4.92143e-30)
(0.00984238 8.01813e-07 -1.01239e-30)
(0.00984157 7.29324e-07 0)
(0.00984082 6.64084e-07 0)
(0.00984014 6.05698e-07 -4.83426e-30)
(0.00983951 5.53847e-07 0)
(0.00983893 5.0829e-07 0)
(0.00983839 4.68882e-07 3.8134e-30)
(0.00983789 4.35577e-07 0)
(0.00983741 4.08452e-07 4.77177e-30)
(0.00983696 3.87725e-07 9.69064e-31)
(0.00983652 3.73784e-07 0)
(0.0098361 3.67226e-07 4.75837e-30)
(0.00983567 3.68906e-07 0)
(0.00983523 3.79999e-07 0)
(0.00983476 4.02084e-07 9.70342e-31)
(0.00983426 4.37253e-07 3.8053e-30)
(0.0098337 4.88254e-07 9.79153e-31)
(0.00983306 5.58675e-07 0)
(0.00983232 6.53201e-07 0)
(0.00983143 7.77937e-07 4.88356e-30)
(0.00983035 9.40865e-07 0)
(0.00982903 1.15245e-06 4.99861e-30)
(0.00982738 1.42649e-06 0)
(0.00982531 1.7813e-06 0)
(0.0098227 2.24137e-06 0)
(0.00981936 2.8399e-06 -1.22095e-30)
(0.00981508 3.62245e-06 0)
(0.00980955 4.65267e-06 1.40746e-30)
(0.00980235 6.02151e-06 0)
(0.0097929 7.86261e-06 0)
(0.00978039 1.03795e-05 5.84095e-30)
(0.00976359 1.38967e-05 -6.56195e-30)
(0.00974071 1.89637e-05 0)
(0.00970883 2.65876e-05 0)
(0.00966302 3.88234e-05 0)
(0.00959422 6.0535e-05 1.79546e-29)
(0.00948491 0.000105828 0)
(0.00931247 0.000227846 -1.0127e-28)
(5.47718e-06 -4.76445e-05 2.46251e-30)
(1.64618e-05 -4.7527e-05 -3.91203e-34)
(2.74916e-05 -4.73884e-05 0)
(3.85562e-05 -4.72263e-05 9.12821e-34)
(4.96491e-05 -4.70468e-05 0)
(6.07573e-05 -4.68453e-05 0)
(7.18444e-05 -4.66096e-05 -2.40117e-30)
(8.28474e-05 -4.63258e-05 -1.19358e-30)
(9.36826e-05 -4.59821e-05 1.18197e-30)
(0.000104255 -4.55711e-05 -1.17306e-30)
(0.000114468 -4.50894e-05 0)
(0.000124225 -4.45376e-05 0)
(0.000133443 -4.39206e-05 -1.12586e-30)
(0.000142058 -4.32476e-05 -2.21572e-30)
(0.000150035 -4.25334e-05 2.17766e-30)
(0.000157387 -4.17978e-05 0)
(0.000164179 -4.10664e-05 2.09982e-30)
(0.000170534 -4.03688e-05 1.03545e-30)
(0.000176625 -3.97364e-05 0)
(0.000182659 -3.92e-05 2.00071e-30)
(0.000188857 -3.87879e-05 -9.93723e-31)
(0.00019544 -3.85248e-05 -1.96399e-30)
(0.000202611 -3.84328e-05 9.83897e-31)
(0.000210553 -3.8532e-05 0)
(0.000219429 -3.88414e-05 1.97696e-30)
(0.00022938 -3.93801e-05 2.0034e-30)
(0.000240537 -4.01685e-05 0)
(0.000253016 -4.12302e-05 2.0957e-30)
(0.000266929 -4.2594e-05 0)
(0.000282395 -4.42985e-05 2.25017e-30)
(0.000299541 -4.63967e-05 -1.18518e-30)
(0.000318526 -4.89628e-05 0)
(0.000339537 -5.21006e-05 0)
(0.000362809 -5.59547e-05 0)
(0.000388628 -6.07266e-05 0)
(0.000417358 -6.66992e-05 0)
(0.000449475 -7.42758e-05 0)
(0.000485624 -8.40433e-05 4.27613e-30)
(0.000526724 -9.68788e-05 -2.4545e-30)
(0.000574173 -0.000114136 0)
(0.000630305 -0.000137994 0)
(0.000699638 -0.000172186 0)
(0.00079306 -0.000223872 -2.29605e-29)
(0.000946705 -0.000310653 -1.5971e-29)
(0.00137569 -0.000514585 -6.50138e-32)
(0.00660934 -0.00392374 3.12505e-31)
(0.0146629 -0.00232033 -1.17881e-28)
(0.0175895 0.00200185 1.05154e-28)
(0.0171346 0.00186004 -1.96369e-28)
(0.0166908 0.00169575 -9.00325e-29)
(0.0162723 0.00154359 0)
(0.015881 0.00140634 -7.49553e-29)
(0.0155169 0.00128378 -1.36403e-28)
(0.015179 0.00117487 0)
(0.0148652 0.0010783 0)
(0.0145732 0.000992664 5.33837e-29)
(0.0143007 0.000916593 0)
(0.0140458 0.000848755 0)
(0.0138067 0.000787933 -1.27421e-28)
(0.0135818 0.000733057 -7.96439e-29)
(0.0133701 0.000683223 -3.65844e-29)
(0.0131705 0.000637689 0)
(0.0129822 0.000595857 3.2031e-29)
(0.0128043 0.000557252 0)
(0.0126362 0.000521496 -8.56551e-29)
(0.0124774 0.000488284 2.6422e-29)
(0.0123273 0.000457369 5.07831e-29)
(0.0121854 0.000428543 7.10683e-29)
(0.0120512 0.000401631 0)
(0.0119242 0.000376479 -4.23051e-29)
(0.0118042 0.00035295 0)
(0.0116906 0.000330925 -1.93164e-29)
(0.0115831 0.000310293 -3.53651e-29)