/*--------------------------------*- C++ -*----------------------------------*\
  =========                 |
  \\      /  F ield         | OpenFOAM: The Open Source CFD Toolbox
   \\    /   O peration     | Website:  https://openfoam.org
    \\  /    A nd           | Version:  10
     \\/     M anipulation  |
\*---------------------------------------------------------------------------*/
FoamFile
{
    format      ascii;
    class       volVectorField;
    location    "900";
    object      Ua;
}
// * * * * * * * * * * * * * * * * * * * * * * * * * * * * * * * * * * * * * //

dimensions      [0 1 -1 0 0 0 0];

internalField   nonuniform List<vector> 
6400
(
(-1.04184e-08 2.11774e-09 0)
(-3.118e-08 2.10245e-09 0)
(-5.17163e-08 2.07196e-09 0)
(-7.18787e-08 2.02642e-09 0)
(-9.15202e-08 1.9661e-09 0)
(-1.10497e-07 1.89133e-09 0)
(-1.28669e-07 1.80252e-09 0)
(-1.45901e-07 1.7002e-09 0)
(-1.62063e-07 1.58495e-09 0)
(-1.7703e-07 1.45746e-09 0)
(-1.90687e-07 1.3185e-09 0)
(-2.02924e-07 1.16896e-09 0)
(-2.13642e-07 1.00977e-09 0)
(-2.22752e-07 8.41994e-10 0)
(-2.30175e-07 6.66755e-10 0)
(-2.35842e-07 4.85271e-10 0)
(-2.397e-07 2.98836e-10 0)
(-2.41705e-07 1.0882e-10 0)
(-2.41831e-07 -8.33435e-11 0)
(-2.40062e-07 -2.76164e-10 0)
(-2.364e-07 -4.68105e-10 0)
(-2.30862e-07 -6.57594e-10 0)
(-2.2348e-07 -8.43042e-10 0)
(-2.14301e-07 -1.02285e-09 0)
(-2.03387e-07 -1.19544e-09 0)
(-1.90819e-07 -1.35926e-09 0)
(-1.7669e-07 -1.51279e-09 0)
(-1.61108e-07 -1.65461e-09 0)
(-1.44194e-07 -1.78337e-09 0)
(-1.26084e-07 -1.89781e-09 0)
(-1.06924e-07 -1.99681e-09 0)
(-8.68711e-08 -2.0794e-09 0)
(-7.19916e-08 -2.12659e-09 0)
(-6.26362e-08 -2.15212e-09 0)
(-5.3177e-08 -2.17411e-09 0)
(-4.36295e-08 -2.1925e-09 0)
(-3.40095e-08 -2.20726e-09 0)
(-2.4333e-08 -2.21835e-09 0)
(-1.4616e-08 -2.22576e-09 0)
(-4.87469e-09 -2.22947e-09 0)
(4.8747e-09 -2.22947e-09 0)
(1.4616e-08 -2.22576e-09 0)
(2.4333e-08 -2.21835e-09 0)
(3.40095e-08 -2.20726e-09 0)
(4.36295e-08 -2.1925e-09 0)
(5.3177e-08 -2.17411e-09 0)
(6.26363e-08 -2.15212e-09 0)
(7.19916e-08 -2.12659e-09 0)
(8.68711e-08 -2.0794e-09 0)
(1.06924e-07 -1.99681e-09 0)
(1.26084e-07 -1.89781e-09 0)
(1.44194e-07 -1.78337e-09 0)
(1.61108e-07 -1.65461e-09 0)
(1.7669e-07 -1.51279e-09 0)
(1.90819e-07 -1.35926e-09 0)
(2.03387e-07 -1.19544e-09 0)
(2.14301e-07 -1.02285e-09 0)
(2.2348e-07 -8.43042e-10 0)
(2.30862e-07 -6.57594e-10 0)
(2.364e-07 -4.68105e-10 0)
(2.40062e-07 -2.76164e-10 0)
(2.41831e-07 -8.33435e-11 0)
(2.41705e-07 1.0882e-10 0)
(2.397e-07 2.98836e-10 0)
(2.35842e-07 4.85271e-10 0)
(2.30175e-07 6.66755e-10 0)
(2.22752e-07 8.41994e-10 0)
(2.13642e-07 1.00977e-09 0)
(2.02924e-07 1.16896e-09 0)
(1.90687e-07 1.3185e-09 0)
(1.7703e-07 1.45746e-09 0)
(1.62063e-07 1.58495e-09 0)
(1.45901e-07 1.7002e-09 0)
(1.28669e-07 1.80252e-09 0)
(1.10497e-07 1.89133e-09 0)
(9.15202e-08 1.9661e-09 0)
(7.18787e-08 2.02642e-09 0)
(5.17163e-08 2.07196e-09 0)
(3.118e-08 2.10245e-09 0)
(1.04184e-08 2.11774e-09 0)
(-1.04217e-08 6.55899e-09 0)
(-3.11897e-08 6.51164e-09 0)
(-5.17325e-08 6.4172e-09 0)
(-7.19012e-08 6.27618e-09 0)
(-9.1549e-08 6.08936e-09 0)
(-1.10532e-07 5.85778e-09 0)
(-1.2871e-07 5.58274e-09 0)
(-1.45948e-07 5.26582e-09 0)
(-1.62115e-07 4.90888e-09 0)
(-1.77087e-07 4.51403e-09 0)
(-1.90748e-07 4.08368e-09 0)
(-2.0299e-07 3.62051e-09 0)
(-2.13712e-07 3.12749e-09 0)
(-2.22826e-07 2.60786e-09 0)
(-2.30251e-07 2.06512e-09 0)
(-2.35921e-07 1.50303e-09 0)
(-2.3978e-07 9.25612e-10 0)
(-2.41787e-07 3.37097e-10 0)
(-2.41913e-07 -2.58071e-10 0)
(-2.40144e-07 -8.55276e-10 0)
(-2.36482e-07 -1.44976e-09 0)
(-2.30942e-07 -2.03665e-09 0)
(-2.23558e-07 -2.61102e-09 0)
(-2.14376e-07 -3.16794e-09 0)
(-2.03459e-07 -3.70249e-09 0)
(-1.90887e-07 -4.20987e-09 0)
(-1.76753e-07 -4.68542e-09 0)
(-1.61165e-07 -5.12467e-09 0)
(-1.44246e-07 -5.52346e-09 0)
(-1.2613e-07 -5.87791e-09 0)
(-1.06963e-07 -6.18456e-09 0)
(-8.69026e-08 -6.44035e-09 0)
(-7.20178e-08 -6.58651e-09 0)
(-6.2659e-08 -6.66561e-09 0)
(-5.31964e-08 -6.73371e-09 0)
(-4.36454e-08 -6.79067e-09 0)
(-3.40219e-08 -6.83637e-09 0)
(-2.43418e-08 -6.87073e-09 0)
(-1.46213e-08 -6.89368e-09 0)
(-4.87647e-09 -6.90516e-09 0)
(4.87647e-09 -6.90516e-09 0)
(1.46213e-08 -6.89368e-09 0)
(2.43418e-08 -6.87073e-09 0)
(3.40219e-08 -6.83637e-09 0)
(4.36454e-08 -6.79067e-09 0)
(5.31964e-08 -6.73371e-09 0)
(6.2659e-08 -6.66561e-09 0)
(7.20178e-08 -6.58651e-09 0)
(8.69026e-08 -6.44035e-09 0)
(1.06963e-07 -6.18456e-09 0)
(1.2613e-07 -5.87791e-09 0)
(1.44246e-07 -5.52346e-09 0)
(1.61165e-07 -5.12467e-09 0)
(1.76753e-07 -4.68542e-09 0)
(1.90887e-07 -4.20987e-09 0)
(2.03459e-07 -3.70249e-09 0)
(2.14376e-07 -3.16794e-09 0)
(2.23558e-07 -2.61102e-09 0)
(2.30942e-07 -2.03665e-09 0)
(2.36482e-07 -1.44976e-09 0)
(2.40144e-07 -8.55276e-10 0)
(2.41913e-07 -2.58071e-10 0)
(2.41787e-07 3.37097e-10 0)
(2.3978e-07 9.25612e-10 0)
(2.35921e-07 1.50303e-09 0)
(2.30251e-07 2.06512e-09 0)
(2.22826e-07 2.60786e-09 0)
(2.13712e-07 3.12749e-09 0)
(2.0299e-07 3.62051e-09 0)
(1.90748e-07 4.08368e-09 0)
(1.77087e-07 4.51403e-09 0)
(1.62115e-07 4.90888e-09 0)
(1.45948e-07 5.26582e-09 0)
(1.2871e-07 5.58274e-09 0)
(1.10532e-07 5.85778e-09 0)
(9.1549e-08 6.08936e-09 0)
(7.19012e-08 6.27618e-09 0)
(5.17325e-08 6.4172e-09 0)
(3.11897e-08 6.51164e-09 0)
(1.04217e-08 6.55899e-09 0)
(-1.04292e-08 1.14328e-08 0)
(-3.12122e-08 1.13503e-08 0)
(-5.17698e-08 1.11857e-08 0)
(-7.19531e-08 1.09399e-08 0)
(-9.16152e-08 1.06143e-08 0)
(-1.10612e-07 1.02106e-08 0)
(-1.28804e-07 9.73124e-09 0)
(-1.46054e-07 9.17885e-09 0)
(-1.62234e-07 8.5567e-09 0)
(-1.77218e-07 7.86847e-09 0)
(-1.9089e-07 7.11836e-09 0)
(-2.03141e-07 6.31105e-09 0)
(-2.13872e-07 5.4517e-09 0)
(-2.22994e-07 4.54595e-09 0)
(-2.30426e-07 3.59992e-09 0)
(-2.36101e-07 2.62016e-09 0)
(-2.39965e-07 1.61367e-09 0)
(-2.41974e-07 5.87837e-10 0)
(-2.42101e-07 -4.49607e-10 0)
(-2.40333e-07 -1.49061e-09 0)
(-2.36669e-07 -2.52687e-09 0)
(-2.31126e-07 -3.54991e-09 0)
(-2.23737e-07 -4.55113e-09 0)
(-2.14548e-07 -5.52193e-09 0)
(-2.03624e-07 -6.45376e-09 0)
(-1.91043e-07 -7.33822e-09 0)
(-1.76898e-07 -8.16719e-09 0)
(-1.61298e-07 -8.93291e-09 0)
(-1.44365e-07 -9.62808e-09 0)
(-1.26234e-07 -1.0246e-08 0)
(-1.07052e-07 -1.07805e-08 0)
(-8.69752e-08 -1.12264e-08 0)
(-7.2078e-08 -1.14812e-08 0)
(-6.27115e-08 -1.16191e-08 0)
(-5.32409e-08 -1.17378e-08 0)
(-4.36819e-08 -1.18371e-08 0)
(-3.40504e-08 -1.19168e-08 0)
(-2.43622e-08 -1.19767e-08 0)
(-1.46336e-08 -1.20167e-08 0)
(-4.88056e-09 -1.20367e-08 0)
(4.88056e-09 -1.20367e-08 0)
(1.46336e-08 -1.20167e-08 0)
(2.43622e-08 -1.19767e-08 0)
(3.40504e-08 -1.19168e-08 0)
(4.36819e-08 -1.18371e-08 0)
(5.32409e-08 -1.17378e-08 0)
(6.27115e-08 -1.16191e-08 0)
(7.2078e-08 -1.14812e-08 0)
(8.69752e-08 -1.12264e-08 0)
(1.07052e-07 -1.07805e-08 0)
(1.26234e-07 -1.0246e-08 0)
(1.44365e-07 -9.62808e-09 0)
(1.61298e-07 -8.93291e-09 0)
(1.76898e-07 -8.16719e-09 0)
(1.91043e-07 -7.33822e-09 0)
(2.03624e-07 -6.45376e-09 0)
(2.14548e-07 -5.52193e-09 0)
(2.23737e-07 -4.55113e-09 0)
(2.31126e-07 -3.54991e-09 0)
(2.36669e-07 -2.52687e-09 0)
(2.40333e-07 -1.49061e-09 0)
(2.42101e-07 -4.49607e-10 0)
(2.41974e-07 5.87837e-10 0)
(2.39965e-07 1.61367e-09 0)
(2.36101e-07 2.62016e-09 0)
(2.30426e-07 3.59992e-09 0)
(2.22994e-07 4.54596e-09 0)
(2.13872e-07 5.4517e-09 0)
(2.03141e-07 6.31105e-09 0)
(1.9089e-07 7.11836e-09 0)
(1.77218e-07 7.86847e-09 0)
(1.62234e-07 8.5567e-09 0)
(1.46054e-07 9.17886e-09 0)
(1.28804e-07 9.73124e-09 0)
(1.10612e-07 1.02106e-08 0)
(9.16152e-08 1.06143e-08 0)
(7.19531e-08 1.09399e-08 0)
(5.17698e-08 1.11857e-08 0)
(3.12122e-08 1.13503e-08 0)
(1.04292e-08 1.14328e-08 0)
(-1.04421e-08 1.67839e-08 0)
(-3.12509e-08 1.66627e-08 0)
(-5.18341e-08 1.64211e-08 0)
(-7.20427e-08 1.60603e-08 0)
(-9.17296e-08 1.55823e-08 0)
(-1.10751e-07 1.49898e-08 0)
(-1.28966e-07 1.42861e-08 0)
(-1.46238e-07 1.34752e-08 0)
(-1.62439e-07 1.2562e-08 0)
(-1.77443e-07 1.15517e-08 0)
(-1.91134e-07 1.04506e-08 0)
(-2.03402e-07 9.26545e-09 0)
(-2.14149e-07 8.00393e-09 0)
(-2.23284e-07 6.67429e-09 0)
(-2.30728e-07 5.2855e-09 0)
(-2.36412e-07 3.84718e-09 0)
(-2.40283e-07 2.3696e-09 0)
(-2.42298e-07 8.636e-10 0)
(-2.42427e-07 -6.59459e-10 0)
(-2.40658e-07 -2.18776e-09 0)
(-2.36992e-07 -3.70912e-09 0)
(-2.31444e-07 -5.21109e-09 0)
(-2.24046e-07 -6.68105e-09 0)
(-2.14847e-07 -8.10636e-09 0)
(-2.03909e-07 -9.47446e-09 0)
(-1.91311e-07 -1.0773e-08 0)
(-1.77148e-07 -1.19902e-08 0)
(-1.61527e-07 -1.31144e-08 0)
(-1.44571e-07 -1.41351e-08 0)
(-1.26415e-07 -1.50423e-08 0)
(-1.07206e-07 -1.58272e-08 0)
(-8.71004e-08 -1.64819e-08 0)
(-7.21819e-08 -1.6856e-08 0)
(-6.2802e-08 -1.70585e-08 0)
(-5.33178e-08 -1.72328e-08 0)
(-4.37451e-08 -1.73786e-08 0)
(-3.40996e-08 -1.74956e-08 0)
(-2.43975e-08 -1.75835e-08 0)
(-1.46547e-08 -1.76423e-08 0)
(-4.88763e-09 -1.76717e-08 0)
(4.88763e-09 -1.76717e-08 0)
(1.46547e-08 -1.76423e-08 0)
(2.43975e-08 -1.75835e-08 0)
(3.40996e-08 -1.74956e-08 0)
(4.37451e-08 -1.73786e-08 0)
(5.33178e-08 -1.72328e-08 0)
(6.2802e-08 -1.70585e-08 0)
(7.21819e-08 -1.6856e-08 0)
(8.71004e-08 -1.64819e-08 0)
(1.07206e-07 -1.58272e-08 0)
(1.26415e-07 -1.50423e-08 0)
(1.44571e-07 -1.41351e-08 0)
(1.61527e-07 -1.31144e-08 0)
(1.77148e-07 -1.19902e-08 0)
(1.91311e-07 -1.0773e-08 0)
(2.03909e-07 -9.47446e-09 0)
(2.14847e-07 -8.10636e-09 0)
(2.24046e-07 -6.68105e-09 0)
(2.31444e-07 -5.21109e-09 0)
(2.36992e-07 -3.70912e-09 0)
(2.40658e-07 -2.18776e-09 0)
(2.42427e-07 -6.59459e-10 0)
(2.42298e-07 8.636e-10 0)
(2.40283e-07 2.3696e-09 0)
(2.36412e-07 3.84718e-09 0)
(2.30728e-07 5.2855e-09 0)
(2.23284e-07 6.67429e-09 0)
(2.14149e-07 8.00393e-09 0)
(2.03402e-07 9.26545e-09 0)
(1.91134e-07 1.04506e-08 0)
(1.77443e-07 1.15517e-08 0)
(1.62439e-07 1.2562e-08 0)
(1.46238e-07 1.34752e-08 0)
(1.28966e-07 1.42861e-08 0)
(1.10751e-07 1.49898e-08 0)
(9.17296e-08 1.55823e-08 0)
(7.20427e-08 1.60603e-08 0)
(5.18341e-08 1.64211e-08 0)
(3.12509e-08 1.66627e-08 0)
(1.04421e-08 1.67839e-08 0)
(-1.0462e-08 2.26624e-08 0)
(-3.13104e-08 2.24988e-08 0)
(-5.1933e-08 2.21726e-08 0)
(-7.21803e-08 2.16855e-08 0)
(-9.19052e-08 2.10402e-08 0)
(-1.10963e-07 2.02403e-08 0)
(-1.29214e-07 1.92902e-08 0)
(-1.46521e-07 1.81955e-08 0)
(-1.62755e-07 1.69625e-08 0)
(-1.77789e-07 1.55985e-08 0)
(-1.91509e-07 1.41118e-08 0)
(-2.03804e-07 1.25118e-08 0)
(-2.14574e-07 1.08085e-08 0)
(-2.2373e-07 9.01326e-09 0)
(-2.31191e-07 7.13809e-09 0)
(-2.36891e-07 5.19603e-09 0)
(-2.40773e-07 3.20091e-09 0)
(-2.42795e-07 1.16738e-09 0)
(-2.42928e-07 -8.89228e-10 0)
(-2.41159e-07 -2.95295e-09 0)
(-2.37488e-07 -5.00734e-09 0)
(-2.31931e-07 -7.03557e-09 0)
(-2.24521e-07 -9.02063e-09 0)
(-2.15305e-07 -1.09454e-08 0)
(-2.04346e-07 -1.2793e-08 0)
(-1.91724e-07 -1.45467e-08 0)
(-1.77532e-07 -1.61904e-08 0)
(-1.61879e-07 -1.77087e-08 0)
(-1.44887e-07 -1.90872e-08 0)
(-1.26693e-07 -2.03125e-08 0)
(-1.07442e-07 -2.13725e-08 0)
(-8.72928e-08 -2.22568e-08 0)
(-7.23416e-08 -2.2762e-08 0)
(-6.29411e-08 -2.30355e-08 0)
(-5.3436e-08 -2.32709e-08 0)
(-4.38421e-08 -2.34678e-08 0)
(-3.41753e-08 -2.36258e-08 0)
(-2.44516e-08 -2.37446e-08 0)
(-1.46873e-08 -2.38239e-08 0)
(-4.89848e-09 -2.38636e-08 0)
(4.89848e-09 -2.38636e-08 0)
(1.46873e-08 -2.38239e-08 0)
(2.44516e-08 -2.37446e-08 0)
(3.41753e-08 -2.36258e-08 0)
(4.38421e-08 -2.34678e-08 0)
(5.3436e-08 -2.32709e-08 0)
(6.29411e-08 -2.30355e-08 0)
(7.23416e-08 -2.2762e-08 0)
(8.72928e-08 -2.22568e-08 0)
(1.07442e-07 -2.13725e-08 0)
(1.26693e-07 -2.03125e-08 0)
(1.44887e-07 -1.90872e-08 0)
(1.61879e-07 -1.77087e-08 0)
(1.77532e-07 -1.61904e-08 0)
(1.91724e-07 -1.45467e-08 0)
(2.04346e-07 -1.2793e-08 0)
(2.15305e-07 -1.09454e-08 0)
(2.24521e-07 -9.02063e-09 0)
(2.31931e-07 -7.03557e-09 0)
(2.37488e-07 -5.00734e-09 0)
(2.41159e-07 -2.95295e-09 0)
(2.42928e-07 -8.89228e-10 0)
(2.42795e-07 1.16738e-09 0)
(2.40773e-07 3.20091e-09 0)
(2.36891e-07 5.19603e-09 0)
(2.31191e-07 7.13809e-09 0)
(2.2373e-07 9.01326e-09 0)
(2.14574e-07 1.08085e-08 0)
(2.03804e-07 1.25118e-08 0)
(1.91509e-07 1.41118e-08 0)
(1.77789e-07 1.55985e-08 0)
(1.62755e-07 1.69625e-08 0)
(1.46521e-07 1.81955e-08 0)
(1.29214e-07 1.92902e-08 0)
(1.10963e-07 2.02403e-08 0)
(9.19052e-08 2.10402e-08 0)
(7.21803e-08 2.16855e-08 0)
(5.1933e-08 2.21726e-08 0)
(3.13104e-08 2.24988e-08 0)
(1.0462e-08 2.26624e-08 0)
(-1.04906e-08 2.91251e-08 0)
(-3.13962e-08 2.8915e-08 0)
(-5.20754e-08 2.84958e-08 0)
(-7.23786e-08 2.787e-08 0)
(-9.21583e-08 2.70408e-08 0)
(-1.1127e-07 2.6013e-08 0)
(-1.29572e-07 2.47922e-08 0)
(-1.46929e-07 2.33856e-08 0)
(-1.63209e-07 2.18012e-08 0)
(-1.78289e-07 2.00485e-08 0)
(-1.9205e-07 1.81381e-08 0)
(-2.04382e-07 1.6082e-08 0)
(-2.15187e-07 1.38932e-08 0)
(-2.24373e-07 1.15861e-08 0)
(-2.3186e-07 9.17624e-09 0)
(-2.3758e-07 6.68037e-09 0)
(-2.41478e-07 4.11625e-09 0)
(-2.43511e-07 1.50269e-09 0)
(-2.4365e-07 -1.14059e-09 0)
(-2.4188e-07 -3.79309e-09 0)
(-2.38203e-07 -6.43366e-09 0)
(-2.32634e-07 -9.0407e-09 0)
(-2.25206e-07 -1.15923e-08 0)
(-2.15966e-07 -1.40665e-08 0)
(-2.04977e-07 -1.64415e-08 0)
(-1.92319e-07 -1.86959e-08 0)
(-1.78086e-07 -2.08089e-08 0)
(-1.62386e-07 -2.27608e-08 0)
(-1.45344e-07 -2.4533e-08 0)
(-1.27093e-07 -2.61082e-08 0)
(-1.07783e-07 -2.7471e-08 0)
(-8.75703e-08 -2.86078e-08 0)
(-7.2572e-08 -2.92574e-08 0)
(-6.31416e-08 -2.9609e-08 0)
(-5.36064e-08 -2.99117e-08 0)
(-4.3982e-08 -3.01648e-08 0)
(-3.42844e-08 -3.0368e-08 0)
(-2.45297e-08 -3.05207e-08 0)
(-1.47342e-08 -3.06227e-08 0)
(-4.91413e-09 -3.06737e-08 0)
(4.91413e-09 -3.06737e-08 0)
(1.47342e-08 -3.06227e-08 0)
(2.45297e-08 -3.05207e-08 0)
(3.42844e-08 -3.0368e-08 0)
(4.3982e-08 -3.01648e-08 0)
(5.36064e-08 -2.99117e-08 0)
(6.31417e-08 -2.9609e-08 0)
(7.2572e-08 -2.92574e-08 0)
(8.75703e-08 -2.86078e-08 0)
(1.07783e-07 -2.7471e-08 0)
(1.27093e-07 -2.61082e-08 0)
(1.45344e-07 -2.4533e-08 0)
(1.62386e-07 -2.27608e-08 0)
(1.78086e-07 -2.08089e-08 0)
(1.92319e-07 -1.86959e-08 0)
(2.04977e-07 -1.64415e-08 0)
(2.15966e-07 -1.40665e-08 0)
(2.25206e-07 -1.15923e-08 0)
(2.32634e-07 -9.0407e-09 0)
(2.38203e-07 -6.43366e-09 0)
(2.4188e-07 -3.79309e-09 0)
(2.4365e-07 -1.14059e-09 0)
(2.43511e-07 1.50269e-09 0)
(2.41478e-07 4.11625e-09 0)
(2.3758e-07 6.68037e-09 0)
(2.3186e-07 9.17624e-09 0)
(2.24373e-07 1.15861e-08 0)
(2.15187e-07 1.38932e-08 0)
(2.04382e-07 1.6082e-08 0)
(1.9205e-07 1.81381e-08 0)
(1.78289e-07 2.00485e-08 0)
(1.63209e-07 2.18012e-08 0)
(1.46929e-07 2.33856e-08 0)
(1.29572e-07 2.47922e-08 0)
(1.1127e-07 2.6013e-08 0)
(9.21583e-08 2.70408e-08 0)
(7.23786e-08 2.787e-08 0)
(5.20754e-08 2.84958e-08 0)
(3.13962e-08 2.8915e-08 0)
(1.04906e-08 2.91251e-08 0)
(-1.05303e-08 3.62369e-08 0)
(-3.1515e-08 3.59755e-08 0)
(-5.22727e-08 3.54542e-08 0)
(-7.26533e-08 3.46757e-08 0)
(-9.25089e-08 3.36444e-08 0)
(-1.11694e-07 3.2366e-08 0)
(-1.30068e-07 3.08476e-08 0)
(-1.47494e-07 2.90979e-08 0)
(-1.63839e-07 2.71271e-08 0)
(-1.7898e-07 2.49468e-08 0)
(-1.92798e-07 2.25704e-08 0)
(-2.05184e-07 2.00125e-08 0)
(-2.16036e-07 1.72896e-08 0)
(-2.25263e-07 1.44194e-08 0)
(-2.32786e-07 1.14213e-08 0)
(-2.38536e-07 8.31599e-09 0)
(-2.42456e-07 5.1257e-09 0)
(-2.44503e-07 1.87377e-09 0)
(-2.44649e-07 -1.41526e-09 0)
(-2.42879e-07 -4.71589e-09 0)
(-2.39194e-07 -8.00181e-09 0)
(-2.33608e-07 -1.12461e-08 0)
(-2.26155e-07 -1.44215e-08 0)
(-2.16881e-07 -1.75008e-08 0)
(-2.05851e-07 -2.04566e-08 0)
(-1.93144e-07 -2.32625e-08 0)
(-1.78853e-07 -2.58925e-08 0)
(-1.6309e-07 -2.8322e-08 0)
(-1.45976e-07 -3.05279e-08 0)
(-1.27648e-07 -3.24886e-08 0)
(-1.08255e-07 -3.4185e-08 0)
(-8.79548e-08 -3.56001e-08 0)
(-7.28912e-08 -3.64088e-08 0)
(-6.34196e-08 -3.68464e-08 0)
(-5.38426e-08 -3.72232e-08 0)
(-4.41759e-08 -3.75383e-08 0)
(-3.44356e-08 -3.77912e-08 0)
(-2.46379e-08 -3.79813e-08 0)
(-1.47992e-08 -3.81083e-08 0)
(-4.93581e-09 -3.81718e-08 0)
(4.93582e-09 -3.81718e-08 0)
(1.47992e-08 -3.81083e-08 0)
(2.46379e-08 -3.79813e-08 0)
(3.44356e-08 -3.77912e-08 0)
(4.41759e-08 -3.75383e-08 0)
(5.38426e-08 -3.72232e-08 0)
(6.34196e-08 -3.68464e-08 0)
(7.28912e-08 -3.64088e-08 0)
(8.79548e-08 -3.56001e-08 0)
(1.08255e-07 -3.4185e-08 0)
(1.27648e-07 -3.24886e-08 0)
(1.45976e-07 -3.05279e-08 0)
(1.6309e-07 -2.8322e-08 0)
(1.78853e-07 -2.58925e-08 0)
(1.93144e-07 -2.32625e-08 0)
(2.05851e-07 -2.04566e-08 0)
(2.16881e-07 -1.75008e-08 0)
(2.26155e-07 -1.44215e-08 0)
(2.33608e-07 -1.12461e-08 0)
(2.39194e-07 -8.00181e-09 0)
(2.42879e-07 -4.71589e-09 0)
(2.44649e-07 -1.41526e-09 0)
(2.44503e-07 1.87377e-09 0)
(2.42456e-07 5.1257e-09 0)
(2.38536e-07 8.31599e-09 0)
(2.32786e-07 1.14213e-08 0)
(2.25263e-07 1.44194e-08 0)
(2.16036e-07 1.72896e-08 0)
(2.05184e-07 2.00125e-08 0)
(1.92798e-07 2.25704e-08 0)
(1.7898e-07 2.49468e-08 0)
(1.63839e-07 2.71271e-08 0)
(1.47494e-07 2.90979e-08 0)
(1.30068e-07 3.08476e-08 0)
(1.11694e-07 3.2366e-08 0)
(9.25089e-08 3.36444e-08 0)
(7.26533e-08 3.46757e-08 0)
(5.22727e-08 3.54542e-08 0)
(3.1515e-08 3.59755e-08 0)
(1.05303e-08 3.62369e-08 0)
(-1.05837e-08 4.40721e-08 0)
(-3.16751e-08 4.37543e-08 0)
(-5.25386e-08 4.31205e-08 0)
(-7.30235e-08 4.21742e-08 0)
(-9.29814e-08 4.09204e-08 0)
(-1.12266e-07 3.93661e-08 0)
(-1.30737e-07 3.752e-08 0)
(-1.48255e-07 3.53927e-08 0)
(-1.64689e-07 3.29965e-08 0)
(-1.79913e-07 3.03455e-08 0)
(-1.93808e-07 2.74559e-08 0)
(-2.06264e-07 2.43456e-08 0)
(-2.1718e-07 2.10344e-08 0)
(-2.26464e-07 1.7544e-08 0)
(-2.34035e-07 1.38979e-08 0)
(-2.39824e-07 1.01213e-08 0)
(-2.43774e-07 6.24109e-09 0)
(-2.45842e-07 2.28572e-09 0)
(-2.45998e-07 -1.71499e-09 0)
(-2.44227e-07 -5.73001e-09 0)
(-2.4053e-07 -9.72733e-09 0)
(-2.34922e-07 -1.36742e-08 0)
(-2.27435e-07 -1.75375e-08 0)
(-2.18116e-07 -2.1284e-08 0)
(-2.0703e-07 -2.48805e-08 0)
(-1.94256e-07 -2.82946e-08 0)
(-1.79889e-07 -3.1495e-08 0)
(-1.64038e-07 -3.44514e-08 0)
(-1.46828e-07 -3.71358e-08 0)
(-1.28396e-07 -3.9522e-08 0)
(-1.08891e-07 -4.15865e-08 0)
(-8.84735e-08 -4.33088e-08 0)
(-7.33219e-08 -4.42929e-08 0)
(-6.37946e-08 -4.48256e-08 0)
(-5.41612e-08 -4.52841e-08 0)
(-4.44374e-08 -4.56677e-08 0)
(-3.46396e-08 -4.59755e-08 0)
(-2.47839e-08 -4.62069e-08 0)
(-1.48869e-08 -4.63614e-08 0)
(-4.96507e-09 -4.64387e-08 0)
(4.96508e-09 -4.64387e-08 0)
(1.48869e-08 -4.63614e-08 0)
(2.47839e-08 -4.62069e-08 0)
(3.46396e-08 -4.59755e-08 0)
(4.44374e-08 -4.56677e-08 0)
(5.41612e-08 -4.52841e-08 0)
(6.37946e-08 -4.48256e-08 0)
(7.33219e-08 -4.42929e-08 0)
(8.84735e-08 -4.33088e-08 0)
(1.08891e-07 -4.15865e-08 0)
(1.28396e-07 -3.9522e-08 0)
(1.46828e-07 -3.71358e-08 0)
(1.64038e-07 -3.44514e-08 0)
(1.79889e-07 -3.1495e-08 0)
(1.94256e-07 -2.82946e-08 0)
(2.0703e-07 -2.48805e-08 0)
(2.18116e-07 -2.1284e-08 0)
(2.27435e-07 -1.75375e-08 0)
(2.34922e-07 -1.36742e-08 0)
(2.4053e-07 -9.72733e-09 0)
(2.44227e-07 -5.73001e-09 0)
(2.45998e-07 -1.71499e-09 0)
(2.45842e-07 2.28572e-09 0)
(2.43774e-07 6.24109e-09 0)
(2.39824e-07 1.01213e-08 0)
(2.34035e-07 1.38979e-08 0)
(2.26464e-07 1.7544e-08 0)
(2.1718e-07 2.10344e-08 0)
(2.06264e-07 2.43456e-08 0)
(1.93808e-07 2.74559e-08 0)
(1.79913e-07 3.03455e-08 0)
(1.64689e-07 3.29965e-08 0)
(1.48255e-07 3.53927e-08 0)
(1.30737e-07 3.752e-08 0)
(1.12266e-07 3.93661e-08 0)
(9.29814e-08 4.09204e-08 0)
(7.30235e-08 4.21742e-08 0)
(5.25386e-08 4.31205e-08 0)
(3.16751e-08 4.37543e-08 0)
(1.05837e-08 4.40721e-08 0)
(-1.06544e-08 5.27168e-08 0)
(-3.18868e-08 5.23369e-08 0)
(-5.289e-08 5.15792e-08 0)
(-7.35129e-08 5.04478e-08 0)
(-9.36059e-08 4.89489e-08 0)
(-1.13023e-07 4.70906e-08 0)
(-1.31621e-07 4.48835e-08 0)
(-1.49261e-07 4.23401e-08 0)
(-1.65811e-07 3.9475e-08 0)
(-1.81145e-07 3.63052e-08 0)
(-1.95142e-07 3.28498e-08 0)
(-2.07693e-07 2.91304e-08 0)
(-2.18693e-07 2.51706e-08 0)
(-2.28052e-07 2.09962e-08 0)
(-2.35686e-07 1.66353e-08 0)
(-2.41527e-07 1.2118e-08 0)
(-2.45517e-07 7.47651e-09 0)
(-2.47612e-07 2.74482e-09 0)
(-2.47781e-07 -2.04144e-09 0)
(-2.4601e-07 -6.84514e-09 0)
(-2.42297e-07 -1.1628e-08 0)
(-2.3666e-07 -1.63508e-08 0)
(-2.29128e-07 -2.09739e-08 0)
(-2.1975e-07 -2.54575e-08 0)
(-2.0859e-07 -2.97619e-08 0)
(-1.95728e-07 -3.38482e-08 0)
(-1.81259e-07 -3.76789e-08 0)
(-1.65293e-07 -4.12179e-08 0)
(-1.47957e-07 -4.44313e-08 0)
(-1.29387e-07 -4.72879e-08 0)
(-1.09734e-07 -4.97594e-08 0)
(-8.916e-08 -5.18214e-08 0)
(-7.38918e-08 -5.29997e-08 0)
(-6.42909e-08 -5.36374e-08 0)
(-5.45828e-08 -5.41864e-08 0)
(-4.47836e-08 -5.46456e-08 0)
(-3.49095e-08 -5.50141e-08 0)
(-2.49772e-08 -5.52911e-08 0)
(-1.5003e-08 -5.54761e-08 0)
(-5.0038e-09 -5.55687e-08 0)
(5.0038e-09 -5.55687e-08 0)
(1.5003e-08 -5.54761e-08 0)
(2.49772e-08 -5.52911e-08 0)
(3.49096e-08 -5.50141e-08 0)
(4.47836e-08 -5.46456e-08 0)
(5.45828e-08 -5.41864e-08 0)
(6.42909e-08 -5.36374e-08 0)
(7.38918e-08 -5.29997e-08 0)
(8.916e-08 -5.18214e-08 0)
(1.09734e-07 -4.97594e-08 0)
(1.29387e-07 -4.72879e-08 0)
(1.47957e-07 -4.44313e-08 0)
(1.65293e-07 -4.12179e-08 0)
(1.81259e-07 -3.76789e-08 0)
(1.95728e-07 -3.38482e-08 0)
(2.0859e-07 -2.97619e-08 0)
(2.1975e-07 -2.54575e-08 0)
(2.29128e-07 -2.09739e-08 0)
(2.3666e-07 -1.63508e-08 0)
(2.42297e-07 -1.1628e-08 0)
(2.4601e-07 -6.84514e-09 0)
(2.47781e-07 -2.04144e-09 0)
(2.47612e-07 2.74482e-09 0)
(2.45517e-07 7.47651e-09 0)
(2.41527e-07 1.2118e-08 0)
(2.35686e-07 1.66353e-08 0)
(2.28052e-07 2.09962e-08 0)
(2.18693e-07 2.51706e-08 0)
(2.07693e-07 2.91304e-08 0)
(1.95142e-07 3.28498e-08 0)
(1.81145e-07 3.63052e-08 0)
(1.65811e-07 3.9475e-08 0)
(1.49261e-07 4.23401e-08 0)
(1.31621e-07 4.48835e-08 0)
(1.13023e-07 4.70906e-08 0)
(9.36059e-08 4.89489e-08 0)
(7.35129e-08 5.04478e-08 0)
(5.289e-08 5.15792e-08 0)
(3.18868e-08 5.23369e-08 0)
(1.06544e-08 5.27168e-08 0)
(-1.07465e-08 6.22715e-08 0)
(-3.21624e-08 6.18231e-08 0)
(-5.33478e-08 6.09288e-08 0)
(-7.41503e-08 5.95933e-08 0)
(-9.44195e-08 5.78238e-08 0)
(-1.14008e-07 5.56303e-08 0)
(-1.32772e-07 5.30247e-08 0)
(-1.50572e-07 5.0022e-08 0)
(-1.67274e-07 4.66393e-08 0)
(-1.82751e-07 4.28968e-08 0)
(-1.96881e-07 3.88168e-08 0)
(-2.09554e-07 3.44248e-08 0)
(-2.20665e-07 2.97485e-08 0)
(-2.3012e-07 2.48184e-08 0)
(-2.37838e-07 1.96677e-08 0)
(-2.43747e-07 1.43319e-08 0)
(-2.47789e-07 8.84891e-09 0)
(-2.49919e-07 3.25886e-09 0)
(-2.50106e-07 -2.39614e-09 0)
(-2.48334e-07 -8.07226e-09 0)
(-2.44602e-07 -1.37242e-08 0)
(-2.38925e-07 -1.93058e-08 0)
(-2.31336e-07 -2.47699e-08 0)
(-2.21881e-07 -3.00696e-08 0)
(-2.10625e-07 -3.51578e-08 0)
(-1.97648e-07 -3.99888e-08 0)
(-1.83046e-07 -4.45177e-08 0)
(-1.66931e-07 -4.87021e-08 0)
(-1.49429e-07 -5.25018e-08 0)
(-1.30679e-07 -5.58797e-08 0)
(-1.10834e-07 -5.88025e-08 0)
(-9.00557e-08 -6.1241e-08 0)
(-7.46354e-08 -6.26345e-08 0)
(-6.49385e-08 -6.33887e-08 0)
(-5.5133e-08 -6.4038e-08 0)
(-4.52352e-08 -6.45811e-08 0)
(-3.52618e-08 -6.5017e-08 0)
(-2.52293e-08 -6.53446e-08 0)
(-1.51545e-08 -6.55634e-08 0)
(-5.05432e-09 -6.56729e-08 0)
(5.05433e-09 -6.56729e-08 0)
(1.51545e-08 -6.55634e-08 0)
(2.52293e-08 -6.53446e-08 0)
(3.52618e-08 -6.5017e-08 0)
(4.52352e-08 -6.45811e-08 0)
(5.5133e-08 -6.4038e-08 0)
(6.49385e-08 -6.33887e-08 0)
(7.46354e-08 -6.26345e-08 0)
(9.00557e-08 -6.1241e-08 0)
(1.10834e-07 -5.88025e-08 0)
(1.30679e-07 -5.58797e-08 0)
(1.49429e-07 -5.25018e-08 0)
(1.66931e-07 -4.87021e-08 0)
(1.83046e-07 -4.45177e-08 0)
(1.97648e-07 -3.99888e-08 0)
(2.10625e-07 -3.51578e-08 0)
(2.21881e-07 -3.00696e-08 0)
(2.31336e-07 -2.47699e-08 0)
(2.38925e-07 -1.93058e-08 0)
(2.44602e-07 -1.37242e-08 0)
(2.48334e-07 -8.07226e-09 0)
(2.50106e-07 -2.39614e-09 0)
(2.49919e-07 3.25886e-09 0)
(2.47789e-07 8.84891e-09 0)
(2.43747e-07 1.43319e-08 0)
(2.37838e-07 1.96677e-08 0)
(2.3012e-07 2.48184e-08 0)
(2.20665e-07 2.97485e-08 0)
(2.09554e-07 3.44248e-08 0)
(1.96881e-07 3.88168e-08 0)
(1.82751e-07 4.28968e-08 0)
(1.67274e-07 4.66393e-08 0)
(1.50572e-07 5.0022e-08 0)
(1.32772e-07 5.30247e-08 0)
(1.14008e-07 5.56303e-08 0)
(9.44195e-08 5.78238e-08 0)
(7.41503e-08 5.95933e-08 0)
(5.33478e-08 6.09288e-08 0)
(3.21624e-08 6.18231e-08 0)
(1.07465e-08 6.22715e-08 0)
(-1.0865e-08 7.28551e-08 0)
(-3.25175e-08 7.2331e-08 0)
(-5.39375e-08 7.12857e-08 0)
(-7.49713e-08 6.97246e-08 0)
(-9.54674e-08 6.76563e-08 0)
(-1.15277e-07 6.5092e-08 0)
(-1.34255e-07 6.2046e-08 0)
(-1.5226e-07 5.85355e-08 0)
(-1.69158e-07 5.45806e-08 0)
(-1.84819e-07 5.02046e-08 0)
(-1.99122e-07 4.54338e-08 0)
(-2.11952e-07 4.02975e-08 0)
(-2.23205e-07 3.48284e-08 0)
(-2.32787e-07 2.90619e-08 0)
(-2.40612e-07 2.30366e-08 0)
(-2.46609e-07 1.67942e-08 0)
(-2.50718e-07 1.0379e-08 0)
(-2.52894e-07 3.8377e-09 0)
(-2.53104e-07 -2.7803e-09 0)
(-2.51331e-07 -9.42376e-09 0)
(-2.47574e-07 -1.60397e-08 0)
(-2.41848e-07 -2.2574e-08 0)
(-2.34184e-07 -2.89715e-08 0)
(-2.2463e-07 -3.51771e-08 0)
(-2.1325e-07 -4.11358e-08 0)
(-2.00125e-07 -4.67937e-08 0)
(-1.85352e-07 -5.20984e-08 0)
(-1.69044e-07 -5.7e-08 0)
(-1.51328e-07 -6.14513e-08 0)
(-1.32346e-07 -6.54088e-08 0)
(-1.12253e-07 -6.88333e-08 0)
(-9.12118e-08 -7.16905e-08 0)
(-7.55953e-08 -7.33233e-08 0)
(-6.57743e-08 -7.4207e-08 0)
(-5.58431e-08 -7.49679e-08 0)
(-4.58183e-08 -7.56043e-08 0)
(-3.57165e-08 -7.61151e-08 0)
(-2.55547e-08 -7.6499e-08 0)
(-1.535e-08 -7.67554e-08 0)
(-5.11955e-09 -7.68837e-08 0)
(5.11955e-09 -7.68837e-08 0)
(1.535e-08 -7.67554e-08 0)
(2.55547e-08 -7.6499e-08 0)
(3.57165e-08 -7.61151e-08 0)
(4.58183e-08 -7.56043e-08 0)
(5.58431e-08 -7.49679e-08 0)
(6.57743e-08 -7.4207e-08 0)
(7.55953e-08 -7.33233e-08 0)
(9.12118e-08 -7.16905e-08 0)
(1.12253e-07 -6.88333e-08 0)
(1.32346e-07 -6.54088e-08 0)
(1.51328e-07 -6.14513e-08 0)
(1.69044e-07 -5.7e-08 0)
(1.85352e-07 -5.20984e-08 0)
(2.00125e-07 -4.67937e-08 0)
(2.1325e-07 -4.11358e-08 0)
(2.2463e-07 -3.51771e-08 0)
(2.34184e-07 -2.89715e-08 0)
(2.41848e-07 -2.2574e-08 0)
(2.47574e-07 -1.60397e-08 0)
(2.51331e-07 -9.42377e-09 0)
(2.53104e-07 -2.7803e-09 0)
(2.52894e-07 3.8377e-09 0)
(2.50718e-07 1.0379e-08 0)
(2.46609e-07 1.67942e-08 0)
(2.40612e-07 2.30366e-08 0)
(2.32787e-07 2.90619e-08 0)
(2.23205e-07 3.48284e-08 0)
(2.11952e-07 4.02975e-08 0)
(1.99122e-07 4.54338e-08 0)
(1.84819e-07 5.02046e-08 0)
(1.69158e-07 5.45806e-08 0)
(1.5226e-07 5.85355e-08 0)
(1.34255e-07 6.2046e-08 0)
(1.15277e-07 6.5092e-08 0)
(9.54674e-08 6.76563e-08 0)
(7.49713e-08 6.97246e-08 0)
(5.39375e-08 7.12857e-08 0)
(3.25175e-08 7.23311e-08 0)
(1.0865e-08 7.28551e-08 0)
(-1.10164e-08 8.46093e-08 0)
(-3.29709e-08 8.40014e-08 0)
(-5.46904e-08 8.27888e-08 0)
(-7.60198e-08 8.0978e-08 0)
(-9.68057e-08 7.85787e-08 0)
(-1.16898e-07 7.56039e-08 0)
(-1.36149e-07 7.20701e-08 0)
(-1.54417e-07 6.7997e-08 0)
(-1.71565e-07 6.3408e-08 0)
(-1.87462e-07 5.83299e-08 0)
(-2.01985e-07 5.27931e-08 0)
(-2.15017e-07 4.68315e-08 0)
(-2.26452e-07 4.04828e-08 0)
(-2.36194e-07 3.37881e-08 0)
(-2.44157e-07 2.67922e-08 0)
(-2.50267e-07 1.95431e-08 0)
(-2.54463e-07 1.20922e-08 0)
(-2.56698e-07 4.49395e-09 0)
(-2.56937e-07 -3.19456e-09 0)
(-2.55164e-07 -1.09138e-08 0)
(-2.51376e-07 -1.86021e-08 0)
(-2.45587e-07 -2.61966e-08 0)
(-2.37828e-07 -3.36333e-08 0)
(-2.28147e-07 -4.08478e-08 0)
(-2.16609e-07 -4.77762e-08 0)
(-2.03295e-07 -5.43557e-08 0)
(-1.88303e-07 -6.05253e-08 0)
(-1.71749e-07 -6.62266e-08 0)
(-1.5376e-07 -7.14046e-08 0)
(-1.34482e-07 -7.60087e-08 0)
(-1.14069e-07 -7.99931e-08 0)
(-9.26922e-08 -8.33176e-08 0)
(-7.68243e-08 -8.52176e-08 0)
(-6.68446e-08 -8.62459e-08 0)
(-5.67525e-08 -8.71313e-08 0)
(-4.65648e-08 -8.78719e-08 0)
(-3.62988e-08 -8.84662e-08 0)
(-2.59715e-08 -8.8913e-08 0)
(-1.56004e-08 -8.92114e-08 0)
(-5.20307e-09 -8.93608e-08 0)
(5.20307e-09 -8.93608e-08 0)
(1.56004e-08 -8.92114e-08 0)
(2.59715e-08 -8.8913e-08 0)
(3.62988e-08 -8.84662e-08 0)
(4.65648e-08 -8.78719e-08 0)
(5.67525e-08 -8.71313e-08 0)
(6.68446e-08 -8.62459e-08 0)
(7.68243e-08 -8.52176e-08 0)
(9.26922e-08 -8.33176e-08 0)
(1.14069e-07 -7.99931e-08 0)
(1.34482e-07 -7.60087e-08 0)
(1.5376e-07 -7.14046e-08 0)
(1.71749e-07 -6.62266e-08 0)
(1.88303e-07 -6.05253e-08 0)
(2.03295e-07 -5.43557e-08 0)
(2.16609e-07 -4.77762e-08 0)
(2.28147e-07 -4.08478e-08 0)
(2.37828e-07 -3.36333e-08 0)
(2.45587e-07 -2.61966e-08 0)
(2.51376e-07 -1.86021e-08 0)
(2.55164e-07 -1.09138e-08 0)
(2.56937e-07 -3.19456e-09 0)
(2.56698e-07 4.49395e-09 0)
(2.54463e-07 1.20922e-08 0)
(2.50267e-07 1.95431e-08 0)
(2.44157e-07 2.67922e-08 0)
(2.36194e-07 3.37881e-08 0)
(2.26452e-07 4.04828e-08 0)
(2.15017e-07 4.68315e-08 0)
(2.01985e-07 5.27931e-08 0)
(1.87462e-07 5.83299e-08 0)
(1.71565e-07 6.3408e-08 0)
(1.54417e-07 6.7997e-08 0)
(1.36149e-07 7.20701e-08 0)
(1.16898e-07 7.56039e-08 0)
(9.68057e-08 7.85787e-08 0)
(7.60198e-08 8.0978e-08 0)
(5.46904e-08 8.27888e-08 0)
(3.29709e-08 8.40014e-08 0)
(1.10164e-08 8.46093e-08 0)
(-1.12084e-08 9.77049e-08 0)
(-3.35459e-08 9.7004e-08 0)
(-5.56453e-08 9.56058e-08 0)
(-7.73496e-08 9.35178e-08 0)
(-9.85032e-08 9.07511e-08 0)
(-1.18954e-07 8.73206e-08 0)
(-1.38552e-07 8.32451e-08 0)
(-1.57153e-07 7.85473e-08 0)
(-1.74619e-07 7.32538e-08 0)
(-1.90816e-07 6.73954e-08 0)
(-2.05617e-07 6.1007e-08 0)
(-2.18906e-07 5.41277e-08 0)
(-2.30574e-07 4.68005e-08 0)
(-2.40521e-07 3.90728e-08 0)
(-2.48659e-07 3.0996e-08 0)
(-2.54913e-07 2.26256e-08 0)
(-2.5922e-07 1.40207e-08 0)
(-2.6153e-07 5.24396e-09 0)
(-2.61808e-07 -3.63864e-09 0)
(-2.60035e-07 -1.25583e-08 0)
(-2.56208e-07 -2.14441e-08 0)
(-2.50339e-07 -3.02229e-08 0)
(-2.42461e-07 -3.88208e-08 0)
(-2.32619e-07 -4.71633e-08 0)
(-2.20881e-07 -5.51764e-08 0)
(-2.07327e-07 -6.27871e-08 0)
(-1.92058e-07 -6.99248e-08 0)
(-1.7519e-07 -7.65216e-08 0)
(-1.56854e-07 -8.25138e-08 0)
(-1.37198e-07 -8.78424e-08 0)
(-1.16382e-07 -9.24542e-08 0)
(-9.45762e-08 -9.63026e-08 0)
(-7.83886e-08 -9.85021e-08 0)
(-6.82069e-08 -9.96926e-08 0)
(-5.79099e-08 -1.00718e-07 0)
(-4.75151e-08 -1.01575e-07 0)
(-3.70399e-08 -1.02263e-07 0)
(-2.65019e-08 -1.0278e-07 0)
(-1.59191e-08 -1.03126e-07 0)
(-5.30938e-09 -1.03299e-07 0)
(5.30938e-09 -1.03299e-07 0)
(1.59191e-08 -1.03126e-07 0)
(2.65019e-08 -1.0278e-07 0)
(3.70399e-08 -1.02263e-07 0)
(4.75151e-08 -1.01575e-07 0)
(5.79099e-08 -1.00718e-07 0)
(6.82069e-08 -9.96926e-08 0)
(7.83886e-08 -9.85021e-08 0)
(9.45762e-08 -9.63026e-08 0)
(1.16382e-07 -9.24542e-08 0)
(1.37198e-07 -8.78424e-08 0)
(1.56854e-07 -8.25138e-08 0)
(1.7519e-07 -7.65216e-08 0)
(1.92058e-07 -6.99248e-08 0)
(2.07327e-07 -6.27871e-08 0)
(2.20881e-07 -5.51764e-08 0)
(2.32619e-07 -4.71633e-08 0)