/*--------------------------------*- C++ -*----------------------------------*\
  =========                 |
  \\      /  F ield         | OpenFOAM: The Open Source CFD Toolbox
   \\    /   O peration     | Website:  https://openfoam.org
    \\  /    A nd           | Version:  10
     \\/     M anipulation  |
\*---------------------------------------------------------------------------*/
FoamFile
{
    format      ascii;
    class       surfaceScalarField;
    location    "3200";
    object      phi;
}
// * * * * * * * * * * * * * * * * * * * * * * * * * * * * * * * * * * * * * //

dimensions      [0 3 -1 0 0 0 0];

internalField   nonuniform List<scalar> 
12640
(
-2.95868e-09
2.95868e-09
-5.90244e-09
2.94376e-09
-8.81632e-09
2.91388e-09
-1.16852e-08
2.8689e-09
-1.44939e-08
2.80865e-09
-1.72268e-08
2.73291e-09
-1.98682e-08
2.64142e-09
-2.24021e-08
2.53389e-09
-2.48121e-08
2.41002e-09
-2.70816e-08
2.26952e-09
-2.91938e-08
2.11212e-09
-3.11314e-08
1.93762e-09
-3.28773e-08
1.74589e-09
-3.44142e-08
1.53691e-09
-3.5725e-08
1.31084e-09
-3.6793e-08
1.068e-09
-3.7602e-08
8.08974e-10
-3.81366e-08
5.34605e-10
-3.83827e-08
2.4607e-10
-3.83276e-08
-5.50905e-11
-3.79607e-08
-3.66935e-10
-3.72736e-08
-6.87091e-10
-3.62608e-08
-1.01274e-09
-3.49202e-08
-1.34059e-09
-3.32533e-08
-1.66695e-09
-3.12656e-08
-1.98771e-09
-2.89672e-08
-2.29841e-09
-2.63728e-08
-2.59436e-09
-2.35021e-08
-2.87074e-09
-2.03793e-08
-3.12272e-09
-1.70337e-08
-3.34564e-09
-1.34986e-08
-3.53515e-09
-1.18785e-08
-1.62005e-09
-1.02318e-08
-1.64666e-09
-8.56217e-09
-1.66967e-09
-6.87316e-09
-1.68901e-09
-5.16858e-09
-1.70458e-09
-3.45227e-09
-1.71631e-09
-1.7281e-09
-1.72417e-09
1.68593e-17
-1.7281e-09
1.7281e-09
-1.7281e-09
3.45227e-09
-1.72417e-09
5.16858e-09
-1.71631e-09
6.87316e-09
-1.70458e-09
8.56217e-09
-1.68901e-09
1.02318e-08
-1.66967e-09
1.18785e-08
-1.64666e-09
1.34986e-08
-1.62005e-09
1.70337e-08
-3.53515e-09
2.03793e-08
-3.34564e-09
2.35021e-08
-3.12272e-09
2.63728e-08
-2.87074e-09
2.89672e-08
-2.59436e-09
3.12656e-08
-2.29841e-09
3.32533e-08
-1.98771e-09
3.49202e-08
-1.66695e-09
3.62608e-08
-1.34059e-09
3.72736e-08
-1.01274e-09
3.79607e-08
-6.87091e-10
3.83276e-08
-3.66935e-10
3.83827e-08
-5.50905e-11
3.81366e-08
2.4607e-10
3.7602e-08
5.34605e-10
3.6793e-08
8.08974e-10
3.5725e-08
1.068e-09
3.44142e-08
1.31084e-09
3.28773e-08
1.53691e-09
3.11314e-08
1.74589e-09
2.91938e-08
1.93762e-09
2.70816e-08
2.11212e-09
2.48121e-08
2.26952e-09
2.24021e-08
2.41002e-09
1.98682e-08
2.53389e-09
1.72268e-08
2.64142e-09
1.44939e-08
2.73291e-09
1.16852e-08
2.80865e-09
8.81632e-09
2.8689e-09
5.90244e-09
2.91388e-09
2.95868e-09
2.94376e-09
2.95868e-09
-3.24586e-09
6.20454e-09
-6.47537e-09
6.17327e-09
-9.6721e-09
6.11061e-09
-1.28195e-08
6.01631e-09
-1.59008e-08
5.88999e-09
-1.88991e-08
5.73119e-09
-2.17971e-08
5.53936e-09
-2.45771e-08
5.3139e-09
-2.72212e-08
5.05418e-09
-2.97113e-08
4.75959e-09
-3.20287e-08
4.42956e-09
-3.41548e-08
4.06367e-09
-3.60705e-08
3.66164e-09
-3.77571e-08
3.22345e-09
-3.91956e-08
2.7494e-09
-4.03678e-08
2.24018e-09
-4.12559e-08
1.69701e-09
-4.18429e-08
1.12165e-09
-4.21134e-08
5.16567e-10
-4.20535e-08
-1.15007e-10
-4.16514e-08
-7.69005e-10
-4.0898e-08
-1.44045e-09
-3.97874e-08
-2.12342e-09
-3.83169e-08
-2.81106e-09
-3.64883e-08
-3.49557e-09
-3.43076e-08
-4.16835e-09
-3.1786e-08
-4.82005e-09
-2.89395e-08
-5.44085e-09
-2.57896e-08
-6.0206e-09
-2.23632e-08
-6.54918e-09
-1.8692e-08
-7.01681e-09
-1.48128e-08
-7.41437e-09
-1.3035e-08
-3.3978e-09
-1.12281e-08
-3.45361e-09
-9.39585e-09
-3.5019e-09
-7.5424e-09
-3.54246e-09
-5.67186e-09
-3.57512e-09
-3.78842e-09
-3.59975e-09
-1.89637e-09
-3.61622e-09
2.02746e-17
-3.62448e-09
1.89637e-09
-3.62448e-09
3.78842e-09
-3.61622e-09
5.67186e-09
-3.59975e-09
7.5424e-09
-3.57512e-09
9.39585e-09
-3.54246e-09
1.12281e-08
-3.5019e-09
1.3035e-08
-3.45361e-09
1.48128e-08
-3.3978e-09
1.8692e-08
-7.41437e-09
2.23632e-08
-7.01681e-09
2.57896e-08
-6.54918e-09
2.89395e-08
-6.0206e-09
3.1786e-08
-5.44085e-09
3.43076e-08
-4.82005e-09
3.64883e-08
-4.16835e-09
3.83169e-08
-3.49557e-09
3.97874e-08
-2.81106e-09
4.0898e-08
-2.12342e-09
4.16514e-08
-1.44045e-09
4.20535e-08
-7.69005e-10
4.21134e-08
-1.15007e-10
4.18429e-08
5.16567e-10
4.12559e-08
1.12165e-09
4.03678e-08
1.69701e-09
3.91956e-08
2.24018e-09
3.77571e-08
2.7494e-09
3.60705e-08
3.22345e-09
3.41548e-08
3.66164e-09
3.20287e-08
4.06367e-09
2.97113e-08
4.42956e-09
2.72212e-08
4.75959e-09
2.45771e-08
5.05418e-09
2.17971e-08
5.3139e-09
1.88991e-08
5.53936e-09
1.59008e-08
5.73119e-09
1.28195e-08
5.88999e-09
9.6721e-09
6.01631e-09
6.47537e-09
6.11061e-09
3.24586e-09
6.17327e-09
6.20454e-09
-3.56193e-09
9.76646e-09
-7.10592e-09
9.71727e-09
-1.0614e-08
9.61868e-09
-1.4068e-08
9.47029e-09
-1.74495e-08
9.27153e-09
-2.074e-08
9.02166e-09
-2.39204e-08
8.71982e-09
-2.69716e-08
8.36505e-09
-2.98738e-08
7.95636e-09
-3.2607e-08
7.49278e-09
-3.51508e-08
6.97344e-09
-3.74848e-08
6.39764e-09
-3.95881e-08
5.76495e-09
-4.144e-08
5.07534e-09
-4.30199e-08
4.32925e-09
-4.43075e-08
3.5278e-09
-4.52833e-08
2.67286e-09
-4.59289e-08
1.76723e-09
-4.62271e-08
8.14768e-10
-4.61627e-08
-1.79444e-10
-4.57227e-08
-1.20901e-09
-4.4897e-08
-2.26609e-09
-4.36791e-08
-3.34139e-09
-4.2066e-08
-4.42408e-09
-4.00597e-08
-5.50192e-09
-3.76667e-08
-6.56134e-09
-3.48991e-08
-7.58763e-09
-3.17747e-08
-8.56529e-09
-2.83169e-08
-9.47837e-09
-2.45552e-08
-1.03109e-08
-2.05246e-08
-1.10474e-08
-1.62653e-08
-1.16737e-08
-1.43133e-08
-5.34979e-09
-1.23292e-08
-5.4377e-09
-1.03173e-08
-5.51377e-09
-8.28215e-09
-5.57766e-09
-6.22816e-09
-5.62911e-09
-4.16001e-09
-5.6679e-09
-2.08238e-09
-5.69385e-09
2.23884e-17
-5.70685e-09
2.08238e-09
-5.70685e-09
4.16001e-09
-5.69385e-09
6.22816e-09
-5.6679e-09
8.28215e-09
-5.62911e-09
1.03173e-08
-5.57766e-09
1.23292e-08
-5.51377e-09
1.43133e-08
-5.4377e-09
1.62653e-08
-5.34979e-09
2.05246e-08
-1.16737e-08
2.45552e-08
-1.10474e-08
2.83169e-08
-1.03109e-08
3.17747e-08
-9.47837e-09
3.48991e-08
-8.56529e-09
3.76667e-08
-7.58763e-09
4.00597e-08
-6.56134e-09
4.2066e-08
-5.50192e-09
4.36791e-08
-4.42408e-09
4.4897e-08
-3.34139e-09
4.57227e-08
-2.26609e-09
4.61627e-08
-1.20901e-09
4.62271e-08
-1.79444e-10
4.59289e-08
8.14768e-10
4.52833e-08
1.76723e-09
4.43075e-08
2.67286e-09
4.30199e-08
3.5278e-09
4.144e-08
4.32925e-09
3.95881e-08
5.07534e-09
3.74848e-08
5.76495e-09
3.51508e-08
6.39764e-09
3.2607e-08
6.97344e-09
2.98738e-08
7.49278e-09
2.69716e-08
7.95636e-09
2.39204e-08
8.36505e-09
2.074e-08
8.71982e-09
1.74495e-08
9.02166e-09
1.4068e-08
9.27153e-09
1.0614e-08
9.47029e-09
7.10592e-09
9.61868e-09
3.56193e-09
9.71727e-09
9.76646e-09
-3.91019e-09
1.36767e-08
-7.80074e-09
1.36078e-08
-1.16519e-08
1.34698e-08
-1.54438e-08
1.32622e-08
-1.91562e-08
1.2984e-08
-2.27689e-08
1.26343e-08
-2.62609e-08
1.22119e-08
-2.96112e-08
1.17153e-08
-3.27982e-08
1.11433e-08
-3.57998e-08
1.04945e-08
-3.85939e-08
9.76751e-09
-4.11578e-08
8.96151e-09
-4.34687e-08
8.07583e-09
-4.55037e-08
7.11041e-09
-4.72404e-08
6.06589e-09
-4.86563e-08
4.94377e-09
-4.97302e-08
3.74669e-09
-5.04415e-08
2.47854e-09
-5.07714e-08
1.14471e-09
-5.07032e-08
-2.47689e-10
-5.02225e-08
-1.68972e-09
-4.93181e-08
-3.17043e-09
-4.79827e-08
-4.67677e-09
-4.62132e-08
-6.19362e-09
-4.40113e-08
-7.7038e-09
-4.13844e-08
-9.1883e-09
-3.83455e-08
-1.06265e-08
-3.49141e-08
-1.19967e-08
-3.1116e-08
-1.32765e-08
-2.69834e-08
-1.44434e-08
-2.25549e-08
-1.54759e-08
-1.78748e-08
-1.63538e-08
-1.57298e-08
-7.49478e-09
-1.35495e-08
-7.61803e-09
-1.13386e-08
-7.72467e-09
-9.10197e-09
-7.81425e-09
-6.8447e-09
-7.88639e-09
-4.57183e-09
-7.94076e-09
-2.28853e-09
-7.97715e-09
2.37436e-17
-7.99538e-09
2.28853e-09
-7.99538e-09
4.57183e-09
-7.97715e-09
6.8447e-09
-7.94076e-09
9.10198e-09
-7.88639e-09
1.13386e-08
-7.81425e-09
1.35495e-08
-7.72467e-09
1.57298e-08
-7.61803e-09
1.78748e-08
-7.49478e-09
2.25549e-08
-1.63538e-08
2.69834e-08
-1.54759e-08
3.1116e-08
-1.44434e-08
3.49141e-08
-1.32765e-08
3.83455e-08
-1.19967e-08
4.13844e-08
-1.06265e-08
4.40113e-08
-9.1883e-09
4.62132e-08
-7.7038e-09
4.79827e-08
-6.19362e-09
4.93181e-08
-4.67677e-09
5.02225e-08
-3.17043e-09
5.07032e-08
-1.68972e-09
5.07714e-08
-2.47689e-10
5.04415e-08
1.14471e-09
4.97302e-08
2.47854e-09
4.86563e-08
3.74669e-09
4.72404e-08
4.94377e-09
4.55037e-08
6.06589e-09
4.34687e-08
7.11041e-09
4.11578e-08
8.07583e-09
3.85939e-08
8.96151e-09
3.57998e-08
9.76751e-09
3.27982e-08
1.04945e-08
2.96112e-08
1.11433e-08
2.62609e-08
1.17153e-08
2.27689e-08
1.22119e-08
1.91562e-08
1.26343e-08
1.54438e-08
1.2984e-08
1.16519e-08
1.32622e-08
7.80074e-09
1.34698e-08
3.91019e-09
1.36078e-08
1.36767e-08
-4.29449e-09
1.79711e-08
-8.56746e-09
1.78808e-08
-1.27973e-08
1.76996e-08
-1.69621e-08
1.7427e-08
-2.104e-08
1.70619e-08
-2.50084e-08
1.66028e-08
-2.88447e-08
1.60481e-08
-3.25256e-08
1.53962e-08
-3.60275e-08
1.46452e-08
-3.93263e-08
1.37932e-08
-4.23974e-08
1.28387e-08
-4.52161e-08
1.17802e-08
-4.77574e-08
1.06171e-08
-4.9996e-08
9.34908e-09
-5.19072e-08
7.97709e-09
-5.34665e-08
6.50305e-09
-5.46502e-08
4.93037e-09
-5.54358e-08
3.26415e-09
-5.58026e-08
1.51145e-09
-5.57318e-08
-3.18437e-10
-5.52077e-08
-2.21378e-09
-5.4218e-08
-4.1602e-09
-5.27542e-08
-6.14058e-09
-5.08127e-08
-8.13504e-09
-4.83955e-08
-1.0121e-08
-4.55104e-08
-1.20735e-08
-4.21716e-08
-1.39653e-08
-3.84005e-08
-1.57678e-08
-3.42253e-08
-1.74517e-08
-2.96815e-08
-1.89872e-08
-2.48114e-08
-2.0346e-08
-1.96639e-08
-2.15014e-08
-1.73044e-08
-9.85419e-09
-1.49061e-08
-1.00164e-08
-1.24739e-08
-1.01568e-08
-1.00135e-08
-1.02747e-08
-7.53021e-09
-1.03697e-08
-5.02974e-09
-1.04412e-08
-2.51775e-09
-1.04891e-08
2.59656e-17
-1.05131e-08
2.51775e-09
-1.05131e-08
5.02974e-09
-1.04891e-08
7.53021e-09
-1.04412e-08
1.00135e-08
-1.03697e-08
1.24739e-08
-1.02747e-08
1.49061e-08
-1.01568e-08
1.73044e-08
-1.00164e-08
1.96639e-08
-9.85419e-09
2.48114e-08
-2.15014e-08
2.96815e-08
-2.0346e-08
3.42253e-08
-1.89872e-08
3.84005e-08
-1.74517e-08
4.21716e-08
-1.57678e-08
4.55104e-08
-1.39653e-08
4.83955e-08
-1.20735e-08
5.08127e-08
-1.0121e-08
5.27542e-08
-8.13504e-09
5.4218e-08
-6.14058e-09
5.52077e-08
-4.1602e-09
5.57318e-08
-2.21378e-09
5.58026e-08
-3.18437e-10
5.54358e-08
1.51145e-09
5.46502e-08
3.26415e-09
5.34665e-08
4.93037e-09
5.19072e-08
6.50305e-09
4.9996e-08
7.97709e-09
4.77574e-08
9.34908e-09
4.52161e-08
1.06171e-08
4.23974e-08
1.17802e-08
3.93263e-08
1.28387e-08
3.60275e-08
1.37932e-08
3.25256e-08
1.46452e-08
2.88447e-08
1.53962e-08
2.50084e-08
1.60481e-08
2.104e-08
1.66028e-08
1.69621e-08
1.70619e-08
1.27973e-08
1.7427e-08
8.56746e-09
1.76996e-08
4.29449e-09
1.78808e-08
1.79711e-08
-4.7193e-09
2.26905e-08
-9.41502e-09
2.25765e-08
-1.40635e-08
2.23481e-08
-1.86408e-08
2.20044e-08
-2.31229e-08
2.15439e-08
-2.74851e-08
2.0965e-08
-3.17025e-08
2.02656e-08
-3.57497e-08
1.94434e-08
-3.96007e-08
1.84962e-08
-4.32291e-08
1.74216e-08
-4.66079e-08
1.62175e-08
-4.971e-08
1.48823e-08
-5.25077e-08
1.34148e-08
-5.49734e-08
1.18149e-08
-5.70799e-08
1.00835e-08
-5.87999e-08
8.22312e-09
-6.01075e-08
6.23797e-09
-6.09778e-08
4.13444e-09
-6.13877e-08
1.92138e-09
-6.13167e-08
-3.8952e-10
-6.07469e-08
-2.78349e-09
-5.96647e-08
-5.24243e-09
-5.80606e-08
-7.74473e-09
-5.59303e-08
-1.02653e-08
-5.32757e-08
-1.27756e-08
-5.01052e-08
-1.5244e-08
-4.64343e-08
-1.76362e-08
-4.22862e-08
-1.99159e-08
-3.7692e-08
-2.20459e-08
-3.26906e-08
-2.39886e-08
-2.73288e-08
-2.57079e-08
-2.16602e-08
-2.717e-08
-1.90617e-08
-1.24527e-08
-1.64201e-08
-1.2658e-08
-1.37411e-08
-1.28357e-08
-1.10309e-08
-1.2985e-08
-8.29539e-09
-1.31051e-08
-5.54087e-09
-1.31958e-08
-2.77363e-09
-1.32564e-08
2.97049e-17
-1.32868e-08
2.77363e-09
-1.32868e-08
5.54087e-09
-1.32564e-08
8.29539e-09
-1.31958e-08
1.10309e-08
-1.31051e-08
1.37411e-08
-1.2985e-08
1.64201e-08
-1.28357e-08
1.90617e-08
-1.2658e-08
2.16602e-08
-1.24527e-08
2.73288e-08
-2.717e-08
3.26906e-08
-2.57079e-08
3.7692e-08
-2.39886e-08
4.22862e-08
-2.20459e-08
4.64343e-08
-1.99159e-08
5.01052e-08
-1.76362e-08
5.32757e-08
-1.5244e-08
5.59303e-08
-1.27756e-08
5.80606e-08
-1.02653e-08
5.96647e-08
-7.74473e-09
6.07469e-08
-5.24243e-09
6.13167e-08
-2.78349e-09
6.13877e-08
-3.8952e-10
6.09778e-08
1.92138e-09
6.01075e-08
4.13444e-09
5.87999e-08
6.23797e-09
5.70799e-08
8.22312e-09
5.49734e-08
1.00835e-08
5.25077e-08
1.18149e-08
4.971e-08
1.34148e-08
4.66079e-08
1.48823e-08
4.32291e-08
1.62175e-08
3.96007e-08
1.74216e-08
3.57497e-08
1.84962e-08
3.17025e-08
1.94434e-08
2.74851e-08
2.02656e-08
2.31229e-08
2.0965e-08
1.86408e-08
2.15439e-08
1.40635e-08
2.20044e-08
9.41502e-09
2.23481e-08
4.7193e-09
2.25765e-08
2.26905e-08
-5.18989e-09
2.78803e-08
-1.0354e-08
2.77406e-08
-1.54663e-08
2.74605e-08
-2.05009e-08
2.70389e-08
-2.5431e-08
2.64741e-08
-3.02301e-08
2.5764e-08
-3.48705e-08
2.4906e-08
-3.93245e-08
2.38974e-08
-4.35637e-08
2.27353e-08
-4.75589e-08
2.14168e-08
-5.12806e-08
1.99392e-08
-5.46988e-08
1.83005e-08
-5.77833e-08
1.64992e-08
-6.05035e-08
1.45351e-08
-6.28293e-08
1.24093e-08
-6.47309e-08
1.01247e-08
-6.61793e-08
7.68635e-09
-6.71469e-08
5.1021e-09
-6.76083e-08
2.38272e-09
-6.75403e-08
-4.57541e-10
-6.69232e-08
-3.4006e-09
-6.57413e-08
-6.42425e-09
-6.39841e-08
-9.50201e-09
-6.16463e-08
-1.2603e-08
-5.87297e-08
-1.56922e-08
-5.5243e-08
-1.87306e-08
-5.12032e-08
-2.1676e-08
-4.66355e-08
-2.44836e-08
-4.15741e-08
-2.71073e-08
-3.60618e-08
-2.95009e-08
-3.01499e-08
-3.16197e-08
-2.38981e-08
-3.34218e-08
-2.10318e-08
-1.53191e-08
-1.81176e-08
-1.55722e-08
-1.51621e-08
-1.57912e-08
-1.21718e-08
-1.59752e-08
-9.15351e-09
-1.61234e-08
-6.11412e-09
-1.62351e-08
-3.0606e-09
-1.63099e-08
3.51245e-17
-1.63474e-08
3.0606e-09
-1.63474e-08
6.11412e-09
-1.63099e-08
9.15351e-09
-1.62351e-08
1.21718e-08
-1.61234e-08
1.51621e-08
-1.59752e-08
1.81176e-08
-1.57912e-08
2.10318e-08
-1.55722e-08
2.38981e-08
-1.53191e-08
3.01499e-08
-3.34218e-08
3.60618e-08
-3.16197e-08
4.15741e-08
-2.95009e-08
4.66355e-08
-2.71073e-08
5.12032e-08
-2.44836e-08
5.5243e-08
-2.1676e-08
5.87297e-08
-1.87306e-08
6.16463e-08
-1.56922e-08
6.39841e-08
-1.2603e-08
6.57413e-08
-9.50201e-09
6.69232e-08
-6.42425e-09
6.75403e-08
-3.4006e-09
6.76083e-08
-4.57541e-10
6.71469e-08
2.38272e-09
6.61793e-08
5.1021e-09
6.47309e-08
7.68635e-09
6.28293e-08
1.01247e-08
6.05035e-08
1.24093e-08
5.77833e-08
1.45351e-08
5.46988e-08
1.64992e-08
5.12806e-08
1.83005e-08
4.75589e-08
1.99392e-08
4.35637e-08
2.14168e-08
3.93245e-08
2.27353e-08
3.48705e-08
2.38974e-08
3.02301e-08
2.4906e-08
2.5431e-08
2.5764e-08
2.05009e-08
2.64741e-08
1.54663e-08
2.70389e-08
1.0354e-08
2.74605e-08
5.18989e-09
2.77406e-08
2.78803e-08
-5.71253e-09
3.35929e-08
-1.13968e-08
3.34249e-08
-1.70246e-08
3.30882e-08
-2.25672e-08
3.25815e-08
-2.79957e-08
3.19026e-08
-3.32807e-08
3.10489e-08
-3.83921e-08
3.00175e-08
-4.32995e-08
2.88049e-08
-4.79716e-08
2.74074e-08
-5.23766e-08
2.58217e-08
-5.64819e-08
2.40445e-08
-6.02545e-08
2.20731e-08
-6.3661e-08
1.99058e-08
-6.6668e-08
1.75421e-08
-6.92419e-08
1.49832e-08
-7.13497e-08
1.22325e-08
-7.29593e-08
9.29599e-09
-7.40401e-08
6.18293e-09
-7.45635e-08
2.90613e-09
-7.45037e-08
-5.17341e-10
-7.38385e-08
-4.06584e-09
-7.255e-08
-7.71272e-09
-7.0626e-08
-1.14261e-08
-6.80602e-08
-1.51688e-08
-6.48538e-08
-1.88986e-08
-6.10162e-08
-2.25683e-08
-5.65654e-08
-2.61268e-08
-5.15289e-08
-2.952e-08
-4.59443e-08
-3.2692e-08
-3.98586e-08
-3.55866e-08
-3.33288e-08
-3.81495e-08
-2.64207e-08
-4.03299e-08
-2.32527e-08
-1.8487e-08
-2.00316e-08
-1.87934e-08
-1.67643e-08
-1.90585e-08
-1.34584e-08
-1.92812e-08
-1.01213e-08
-1.94606e-08
-6.76062e-09
-1.95958e-08
-3.38425e-09
-1.96863e-08
3.65403e-17
-1.97316e-08
3.38425e-09
-1.97316e-08
6.76062e-09
-1.96863e-08
1.01213e-08
-1.95958e-08
1.34584e-08
-1.94606e-08
1.67643e-08
-1.92812e-08
2.00316e-08
-1.90585e-08
2.32527e-08
-1.87934e-08
2.64207e-08
-1.8487e-08
3.33288e-08
-4.03299e-08
3.98586e-08
-3.81495e-08
4.59443e-08
-3.55866e-08
5.15289e-08
-3.2692e-08
5.65654e-08
-2.952e-08
6.10162e-08
-2.61268e-08
6.48538e-08
-2.25683e-08
6.80602e-08
-1.88986e-08
7.0626e-08
-1.51688e-08
7.255e-08
-1.14261e-08
7.38385e-08
-7.71272e-09
7.45037e-08
-4.06584e-09
7.45635e-08
-5.17341e-10
7.40401e-08
2.90613e-09
7.29593e-08
6.18293e-09
7.13497e-08
9.29599e-09
6.92419e-08
1.22325e-08
6.6668e-08
1.49832e-08
6.3661e-08
1.75421e-08
6.02545e-08
1.99058e-08
5.64819e-08
2.20731e-08
5.23766e-08
2.40445e-08
4.79716e-08
2.58217e-08
4.32995e-08
2.74074e-08
3.83921e-08
2.88049e-08
3.32807e-08
3.00175e-08
2.79957e-08
3.10489e-08
2.25672e-08
3.19026e-08
1.70246e-08
3.25815e-08
1.13968e-08
3.30882e-08
5.71253e-09
3.34249e-08
3.35929e-08
-6.29475e-09
3.98876e-08
-1.25587e-08
3.96888e-08
-1.87608e-08
3.92904e-08
-2.48699e-08
3.86906e-08
-3.08543e-08
3.7887e-08
-3.66818e-08
3.68764e-08
-4.23196e-08
3.56553e-08
-4.77341e-08
3.42194e-08
-5.28913e-08
3.25645e-08
-5.77559e-08
3.06864e-08
-6.22923e-08
2.85809e-08
-6.64641e-08
2.6245e-08
-7.02346e-08
2.36762e-08
-7.35665e-08
2.0874e-08
-7.64228e-08
1.78395e-08
-7.87669e-08
1.45766e-08
-8.0563e-08
1.10921e-08
-8.17768e-08
7.39677e-09
-8.23764e-08
3.50565e-09
-8.23324e-08
-5.61269e-10
-8.16198e-08
-4.77845e-09
-8.02181e-08
-9.11441e-09
-7.81128e-08
-1.35314e-08
-7.52964e-08
-1.79853e-08
-7.17692e-08
-2.24258e-08
-6.75407e-08
-2.67968e-08
-6.26303e-08
-3.10372e-08
-5.70678e-08
-3.50824e-08
-5.08944e-08
-3.88654e-08
-4.4162e-08
-4.2319e-08
-3.69337e-08
-4.53778e-08
-2.92826e-08
-4.79809e-08
-2.57729e-08
-2.19968e-08
-2.22037e-08
-2.23626e-08
-1.85829e-08
-2.26792e-08
-1.49188e-08
-2.29453e-08
-1.12199e-08
-2.31595e-08
-7.4946e-09
-2.33211e-08
-3.75171e-09
-2.34292e-08
3.71881e-17
-2.34833e-08
3.75171e-09
-2.34833e-08
7.4946e-09
-2.34292e-08
1.12199e-08
-2.33211e-08
1.49188e-08
-2.31595e-08
1.85829e-08
-2.29453e-08
2.22037e-08
-2.26792e-08
2.57729e-08
-2.23626e-08
2.92826e-08
-2.19968e-08
3.69337e-08
-4.79809e-08
4.4162e-08
-4.53778e-08
5.08944e-08
-4.2319e-08
5.70678e-08
-3.88654e-08
6.26303e-08
-3.50824e-08
6.75407e-08
-3.10372e-08
7.17692e-08
-2.67968e-08
7.52964e-08
-2.24258e-08
7.81128e-08
-1.79853e-08
8.02181e-08
-1.35314e-08
8.16198e-08
-9.11441e-09
8.23324e-08
-4.77845e-09
8.23764e-08
-5.61269e-10
8.17768e-08
3.50565e-09
8.0563e-08
7.39677e-09
7.87669e-08
1.10921e-08
7.64228e-08
1.45766e-08
7.35665e-08
1.78395e-08
7.02346e-08
2.0874e-08
6.64641e-08
2.36762e-08
6.22923e-08
2.6245e-08
5.77559e-08
2.85809e-08
5.28913e-08
3.06864e-08
4.77341e-08
3.25645e-08
4.23196e-08
3.42194e-08
3.66818e-08
3.56553e-08
3.08543e-08
3.68764e-08
2.48699e-08
3.7887e-08
1.87608e-08
3.86906e-08
1.25587e-08
3.92904e-08
6.29475e-09
3.96888e-08
3.98876e-08
-6.94568e-09
4.68333e-08
-1.38577e-08
4.66009e-08
-2.07024e-08
4.6135e-08
-2.74454e-08
4.54336e-08
-3.40524e-08
4.44939e-08
-4.0488e-08
4.33121e-08
-4.67165e-08
4.18837e-08
-5.2701e-08
4.02039e-08
-5.8404e-08
3.82675e-08
-6.3787e-08
3.60694e-08
-6.88107e-08
3.36046e-08
-7.3435e-08
3.08693e-08
-7.76192e-08
2.78604e-08
-8.13221e-08
2.45769e-08
-8.45026e-08
2.102e-08
-8.71199e-08
1.71938e-08
-8.91338e-08
1.3106e-08
-9.0506e-08
8.76896e-09
-9.12002e-08
4.19985e-09
-9.11834e-08
-5.78126e-10
-9.04265e-08
-5.5353e-09
-8.8906e-08
-1.06349e-08
-8.66045e-08
-1.58328e-08
-8.35126e-08
-2.10773e-08
-7.96293e-08
-2.6309e-08
-7.49642e-08
-3.14619e-08
-6.95377e-08
-3.64638e-08
-6.3382e-08
-4.12381e-08
-5.65421e-08
-4.57053e-08
-4.90756e-08
-4.97855e-08
-4.10524e-08
-5.3401e-08
-3.25542e-08
-5.64791e-08
-2.86544e-08
-2.58966e-08
-2.46877e-08
-2.63293e-08
-2.06629e-08
-2.67039e-08
-1.65895e-08
-2.70187e-08
-1.24767e-08
-2.72723e-08
-8.33434e-09
-2.74634e-08
-4.17214e-09
-2.75914e-08
4.17418e-17
-2.76555e-08
4.17214e-09
-2.76555e-08
8.33434e-09
-2.75914e-08
1.24767e-08
-2.74634e-08
1.65895e-08
-2.72723e-08
2.06629e-08
-2.70187e-08
2.46877e-08
-2.67039e-08
2.86544e-08
-2.63293e-08
3.25542e-08
-2.58966e-08
4.10524e-08
-5.64791e-08
4.90756e-08
-5.3401e-08
5.65421e-08
-4.97855e-08
6.3382e-08
-4.57053e-08
6.95377e-08
-4.12381e-08
7.49642e-08
-3.64638e-08
7.96293e-08
-3.14619e-08
8.35126e-08
-2.6309e-08
8.66045e-08
-2.10773e-08
8.8906e-08
-1.58328e-08
9.04265e-08
-1.06349e-08
9.11834e-08
-5.5353e-09
9.12002e-08
-5.78126e-10
9.0506e-08
4.19985e-09
8.91338e-08
8.76896e-09
8.71199e-08
1.3106e-08
8.45026e-08
1.71938e-08
8.13221e-08
2.102e-08
7.76192e-08
2.45769e-08
7.3435e-08
2.78604e-08
6.88107e-08
3.08693e-08
6.3787e-08
3.36046e-08
5.8404e-08
3.60694e-08
5.2701e-08
3.82675e-08
4.67165e-08
4.02039e-08
4.0488e-08
4.18837e-08
3.40524e-08
4.33121e-08
2.74454e-08
4.44939e-08
2.07024e-08
4.54336e-08
1.38577e-08
4.6135e-08
6.94568e-09
4.66009e-08
4.68333e-08
-7.67649e-09
5.45098e-08
-1.53163e-08
5.42407e-08
-2.28827e-08
5.37014e-08
-3.03385e-08
5.28894e-08
-3.76459e-08
5.18013e-08
-4.47665e-08
5.04327e-08
-5.1661e-08
4.87783e-08
-5.82893e-08
4.68322e-08
-6.46102e-08
4.45884e-08
-7.05812e-08
4.20404e-08
-7.61592e-08
3.91826e-08
-8.12999e-08
3.60099e-08
-8.59581e-08
3.25186e-08
-9.00881e-08
2.8707e-08
-9.36441e-08
2.4576e-08
-9.65803e-08
2.013e-08
-9.88518e-08
1.53775e-08
-1.00415e-07
1.03322e-08
-1.01229e-07
5.01365e-09
-1.01255e-07
-5.51677e-10
-1.00461e-07
-6.3297e-09
-9.88178e-08
-1.2278e-08
-9.63052e-08
-1.83455e-08
-9.29106e-08
-2.44718e-08
-8.86317e-08
-3.0588e-08
-8.3477e-08
-3.66165e-08
-7.74679e-08
-4.24729e-08
-7.06392e-08
-4.80668e-08
-6.304e-08
-5.33045e-08
-5.4734e-08
-5.80916e-08
-4.57992e-08
-6.23359e-08
-3.63272e-08
-6.59511e-08
-3.19783e-08
-3.02454e-08
-2.75536e-08
-3.0754e-08
-2.30632e-08
-3.11943e-08
-1.85176e-08
-3.15643e-08
-1.39275e-08
-3.18624e-08
-9.30372e-09
-3.20872e-08
-4.6575e-09
-3.22376e-08
4.69424e-17
-3.2313e-08
4.6575e-09
-3.2313e-08
9.30372e-09
-3.22376e-08
1.39275e-08
-3.20872e-08
1.85176e-08
-3.18624e-08
2.30632e-08
-3.15643e-08
2.75536e-08
-3.11943e-08
3.19783e-08
-3.0754e-08
3.63272e-08
-3.02454e-08
4.57992e-08
-6.59511e-08
5.4734e-08
-6.23359e-08
6.304e-08
-5.80916e-08
7.06392e-08
-5.33045e-08
7.74679e-08
-4.80668e-08
8.3477e-08
-4.24729e-08
8.86317e-08
-3.66165e-08
9.29106e-08
-3.0588e-08
9.63052e-08
-2.44718e-08
9.88178e-08
-1.83455e-08
1.00461e-07
-1.2278e-08
1.01255e-07
-6.3297e-09
1.01229e-07
-5.51677e-10
1.00415e-07
5.01365e-09
9.88518e-08
1.03322e-08
9.65803e-08
1.53775e-08
9.36441e-08
2.013e-08
9.00881e-08
2.4576e-08
8.59581e-08
2.8707e-08
8.12999e-08
3.25186e-08
7.61592e-08
3.60099e-08
7.05812e-08
3.91826e-08
6.46102e-08
4.20404e-08
5.82893e-08
4.45884e-08
5.1661e-08
4.68322e-08
4.47665e-08
4.87783e-08
3.76459e-08
5.04327e-08
3.03385e-08
5.18013e-08
2.28827e-08
5.28894e-08
1.53163e-08
5.37014e-08
7.67649e-09
5.42407e-08
5.45098e-08
-8.50094e-09
6.30107e-08
-1.69621e-08
6.27018e-08
-2.53433e-08
6.20827e-08
-3.36043e-08
6.11504e-08
-4.17039e-08
5.99009e-08
-4.96001e-08
5.8329e-08
-5.72502e-08
5.64284e-08
-6.46102e-08
5.41922e-08
-7.16347e-08
5.16129e-08
-7.82774e-08
4.86832e-08
-8.44905e-08
4.53957e-08
-9.0225e-08
4.17444e-08
-9.54309e-08
3.77245e-08
-1.00057e-07
3.33333e-08
-1.04053e-07
2.85714e-08
-1.07366e-07
2.3443e-08
-1.09945e-07
1.79573e-08
-1.11742e-07
1.21292e-08
-1.12709e-07
5.98069e-09
-1.12803e-07
-4.58499e-10
-1.11983e-07
-7.14964e-09
-1.10216e-07
-1.40443e-08
-1.07478e-07
-2.10836e-08
-1.03752e-07
-2.81981e-08
-9.90322e-08
-3.53077e-08
-9.33265e-08
-4.23223e-08
-8.66564e-08
-4.9143e-08
-7.9059e-08
-5.56641e-08
-7.05881e-08
-6.17754e-08
-6.13141e-08
-6.73656e-08
-5.13244e-08
-7.23256e-08
-4.07222e-08
-7.65532e-08
-3.58514e-08
-3.51163e-08
-3.0894e-08
-3.57115e-08
-2.58615e-08
-3.62268e-08
-2.07658e-08
-3.666e-08
-1.56193e-08
-3.7009e-08
-1.04343e-08
-3.72721e-08
-5.22359e-09
-3.74483e-08
4.00148e-17
-3.75366e-08
5.22359e-09
-3.75366e-08
1.04343e-08
-3.74483e-08
1.56193e-08
-3.72721e-08
2.07658e-08
-3.7009e-08
2.58615e-08
-3.666e-08
3.0894e-08
-3.62268e-08
3.58514e-08
-3.57115e-08
4.07222e-08
-3.51163e-08
5.13244e-08
-7.65532e-08
6.13141e-08
-7.23256e-08
7.05881e-08
-6.73656e-08
7.9059e-08
-6.17754e-08
8.66564e-08
-5.56641e-08
9.33265e-08
-4.9143e-08
9.90322e-08
-4.23223e-08
1.03752e-07
-3.53077e-08
1.07478e-07
-2.81981e-08
1.10216e-07
-2.10836e-08
1.11983e-07
-1.40443e-08
1.12803e-07
-7.14964e-09
1.12709e-07
-4.58499e-10
1.11742e-07
5.98069e-09
1.09945e-07
1.21292e-08
1.07366e-07
1.79573e-08
1.04053e-07
2.3443e-08
1.00057e-07
2.85714e-08
9.54309e-08
3.33333e-08
9.0225e-08
3.77245e-08
8.44905e-08
4.17444e-08
7.82774e-08
4.53957e-08
7.16347e-08
4.86832e-08
6.46102e-08
5.16129e-08
5.72502e-08
5.41922e-08
4.96001e-08
5.64284e-08
4.17039e-08
5.8329e-08
3.36043e-08
5.99009e-08
2.53433e-08
6.11504e-08
1.69621e-08
6.20827e-08
8.50094e-09
6.27018e-08
6.30107e-08
-9.43615e-09
7.24469e-08
-1.88291e-08
7.20948e-08
-2.81356e-08
7.13891e-08
-3.73115e-08
7.03263e-08
-4.63123e-08
6.89017e-08
-5.50924e-08
6.71091e-08
-6.36051e-08
6.4941e-08
-7.18021e-08
6.23892e-08
-7.96341e-08
5.94449e-08
-8.70498e-08
5.60989e-08
-9.39965e-08
5.23425e-08
-1.0042e-07
4.8168e-08
-1.06265e-07
4.35691e-08
-1.11473e-07
3.85421e-08
-1.15989e-07
3.30866e-08
-1.19752e-07
2.72064e-08
-1.22706e-07
2.09111e-08
-1.24793e-07
1.42166e-08
-1.25959e-07
7.14687e-09
-1.26153e-07
-2.64855e-10
-1.25328e-07
-7.97512e-09
-1.23443e-07
-1.59291e-08
-1.20467e-07
-2.40596e-08
-1.16378e-07
-3.2287e-08
-1.11167e-07
-4.05188e-08
-1.04838e-07
-4.86508e-08
-9.74136e-08
-5.65677e-08
-8.8932e-08
-6.41458e-08
-7.94517e-08
-7.12557e-08
-6.9051e-08
-7.77662e-08
-5.78282e-08
-8.35484e-08
-4.59006e-08
-8.84809e-08
-4.04163e-08
-4.06005e-08
-3.48322e-08
-4.12956e-08
-2.91614e-08
-4.18976e-08
-2.34177e-08
-4.24037e-08
-1.76151e-08
-4.28115e-08
-1.17682e-08
-4.31191e-08
-5.89156e-09
-4.33249e-08
2.47283e-17
-4.34281e-08
5.89156e-09
-4.34281e-08
1.17682e-08
-4.33249e-08
1.76151e-08
-4.31191e-08
2.34177e-08
-4.28115e-08
2.91614e-08
-4.24037e-08
3.48322e-08
-4.18976e-08
4.04163e-08
-4.12956e-08
4.59006e-08
-4.06005e-08
5.78282e-08
-8.84809e-08
6.9051e-08
-8.35484e-08
7.94517e-08
-7.77662e-08
8.8932e-08
-7.12557e-08
9.74136e-08
-6.41458e-08
1.04838e-07
-5.65677e-08
1.11167e-07
-4.86508e-08
1.16378e-07
-4.05188e-08
1.20467e-07
-3.2287e-08
1.23443e-07
-2.40596e-08
1.25328e-07
-1.59291e-08
1.26153e-07
-7.97512e-09
1.25959e-07
-2.64855e-10
1.24793e-07
7.14687e-09
1.22706e-07
1.42166e-08
1.19752e-07
2.09111e-08
1.15989e-07
2.72064e-08
1.11473e-07
3.30866e-08
1.06265e-07
3.85421e-08
1.0042e-07
4.35691e-08
9.39965e-08
4.8168e-08
8.70498e-08
5.23425e-08
7.96341e-08
5.60989e-08
7.18021e-08
5.94449e-08
6.36051e-08
6.23892e-08
5.50924e-08
6.4941e-08
4.63123e-08
6.71091e-08
3.73115e-08
6.89017e-08
2.81356e-08
7.03263e-08
1.88291e-08
7.13891e-08
9.43615e-09
7.20948e-08
7.24469e-08
-1.05035e-08
8.29504e-08
-2.09604e-08
8.25518e-08
-3.13238e-08
8.17525e-08
-4.15462e-08
8.05487e-08
-5.15792e-08
7.89347e-08
-6.13734e-08
7.69032e-08
-7.08778e-08
7.44454e-08
-8.004e-08
7.15514e-08
-8.88056e-08
6.82105e-08
-9.71185e-08
6.44118e-08
-1.0492e-07
6.01444e-08
-1.12151e-07
5.53987e-08
-1.18749e-07
5.01665e-08
-1.24649e-07
4.44424e-08
-1.29787e-07
3.82244e-08
-1.34096e-07
3.15156e-08
-1.3751e-07
2.43251e-08
-1.39963e-07
1.66698e-08
-1.41392e-07
8.57529e-09
-1.41734e-07
7.78906e-11
-1.40935e-07
-8.77413e-09
-1.38945e-07
-1.79192e-08
-1.35723e-07
-2.72814e-08
-1.31241e-07
-3.67698e-08
-1.25481e-07
-4.62782e-08
-1.18446e-07
-5.5686e-08
-1.10154e-07
-6.48592e-08
-1.00647e-07
-7.36531e-08
-8.99872e-08
-8.19157e-08
-7.82615e-08
-8.94919e-08
-6.55811e-08
-9.62288e-08
-5.20801e-08
-1.01982e-07
-4.58661e-08
-4.68145e-08
-3.95355e-08
-4.76263e-08
-3.31036e-08
-4.83295e-08
-2.65865e-08
-4.89208e-08
-2.00006e-08
-4.93974e-08
-1.33627e-08
-4.97569e-08
-6.69009e-09
-4.99976e-08
2.58133e-17
-5.01182e-08
6.69009e-09
-5.01182e-08
1.33627e-08
-4.99976e-08
2.00006e-08
-4.97569e-08
2.65865e-08
-4.93974e-08
3.31036e-08
-4.89208e-08
3.95355e-08
-4.83295e-08
4.58661e-08
-4.76263e-08
5.20801e-08
-4.68145e-08
6.55811e-08
-1.01982e-07
7.82615e-08
-9.62288e-08
8.99872e-08
-8.94919e-08
1.00647e-07
-8.19157e-08
1.10154e-07
-7.36531e-08
1.18446e-07
-6.48592e-08
1.25481e-07
-5.5686e-08
1.31241e-07
-4.62782e-08
1.35723e-07
-3.67698e-08
1.38945e-07
-2.72814e-08
1.40935e-07
-1.79192e-08
1.41734e-07
-8.77413e-09
1.41392e-07
7.78906e-11
1.39963e-07
8.57529e-09
1.3751e-07
1.66698e-08
1.34096e-07
2.43251e-08
1.29787e-07
3.15156e-08
1.24649e-07
3.82244e-08
1.18749e-07
4.44424e-08
1.12151e-07
5.01665e-08
1.0492e-07
5.53987e-08
9.71185e-08
6.01444e-08
8.88056e-08
6.44118e-08
8.004e-08
6.82105e-08
7.08778e-08
7.15514e-08
6.13734e-08
7.44454e-08
5.15792e-08
7.69032e-08
4.15462e-08
7.89347e-08
3.13238e-08
8.05487e-08
2.09604e-08
8.17525e-08
1.05035e-08
8.25518e-08
8.29504e-08
-1.17299e-08
9.46803e-08
-2.34098e-08
9.42316e-08
-3.49891e-08
9.33318e-08
-4.64167e-08
9.19763e-08
-5.76405e-08
9.01585e-08
-6.86069e-08
8.78696e-08
-7.92607e-08
8.50992e-08
-8.95447e-08
8.18354e-08
-9.93996e-08
7.80654e-08
-1.08763e-07
7.37757e-08
-1.17572e-07
6.89531e-08
-1.25759e-07
6.35852e-08
-1.33253e-07
5.76612e-08
-1.39984e-07
5.11733e-08
-1.45877e-07
4.41174e-08
-1.50857e-07
3.64949e-08
-1.54845e-07
2.8314e-08
-1.57767e-07
1.95913e-08
-1.59545e-07
1.03537e-08
-1.60107e-07
6.40095e-10
-1.59385e-07
-9.49658e-09
-1.57316e-07
-1.9988e-08
-1.53849e-07
-3.07489e-08
-1.48942e-07
-4.16761e-08
-1.42572e-07
-5.26481e-08
-1.34733e-07
-6.35255e-08
-1.25439e-07
-7.41527e-08
-1.14732e-07
-8.43601e-08
-1.0268e-07
-9.39684e-08
-8.93779e-08
-1.02794e-07
-7.4953e-08
-1.10654e-07
-5.95598e-08
-1.17375e-07
-5.24657e-08
-5.39086e-08
-4.52335e-08
-5.48585e-08
-3.78813e-08
-5.56817e-08
-3.0428e-08
-5.63741e-08
-2.28931e-08
-5.69323e-08
-1.52965e-08
-5.73535e-08
-7.65864e-09
-5.76355e-08
3.53551e-17
-5.77768e-08
7.65864e-09
-5.77768e-08
1.52965e-08
-5.76355e-08
2.28931e-08
-5.73535e-08
3.0428e-08
-5.69323e-08
3.78813e-08
-5.63741e-08
4.52335e-08
-5.56817e-08
5.24657e-08
-5.48585e-08
5.95598e-08
-5.39086e-08
7.4953e-08
-1.17375e-07
8.93779e-08
-1.10654e-07
1.0268e-07
-1.02794e-07
1.14732e-07
-9.39684e-08
1.25439e-07
-8.43601e-08
1.34733e-07
-7.41527e-08
1.42572e-07
-6.35255e-08
1.48942e-07
-5.26481e-08
1.53849e-07
-4.16761e-08
1.57316e-07
-3.07489e-08
1.59385e-07
-1.9988e-08
1.60107e-07
-9.49658e-09
1.59545e-07
6.40095e-10
1.57767e-07
1.03537e-08
1.54845e-07
1.95913e-08
1.50857e-07
2.8314e-08
1.45877e-07
3.64949e-08
1.39984e-07
4.41174e-08
1.33253e-07
5.11733e-08
1.25759e-07
5.76612e-08
1.17572e-07
6.35852e-08
1.08763e-07