/*--------------------------------*- C++ -*----------------------------------*\
  =========                 |
  \\      /  F ield         | OpenFOAM: The Open Source CFD Toolbox
   \\    /   O peration     | Website:  https://openfoam.org
    \\  /    A nd           | Version:  10
     \\/     M anipulation  |
\*---------------------------------------------------------------------------*/
FoamFile
{
    format      ascii;
    class       volVectorField;
    location    "3200";
    object      Ub;
}
// * * * * * * * * * * * * * * * * * * * * * * * * * * * * * * * * * * * * * //

dimensions      [0 1 -1 0 0 0 0];

internalField   nonuniform List<vector> 
6400
(
(-9.21863e-22 -9.87899e-16 0)
(-2.76094e-21 -9.87899e-16 0)
(-4.58606e-21 -9.87899e-16 0)
(-6.38786e-21 -9.87899e-16 0)
(-8.15687e-21 -9.87899e-16 0)
(-9.8835e-21 -9.87899e-16 0)
(-1.1558e-20 -9.87899e-16 0)
(-1.31706e-20 -9.87899e-16 0)
(-1.4711e-20 -9.87899e-16 0)
(-1.6169e-20 -9.87899e-16 0)
(-1.75343e-20 -9.87899e-16 0)
(-1.87961e-20 -9.87899e-16 0)
(-1.99438e-20 -9.87899e-16 0)
(-2.09666e-20 -9.87899e-16 0)
(-2.18539e-20 -9.87899e-16 0)
(-2.25951e-20 -9.87899e-16 0)
(-2.318e-20 -9.87899e-16 0)
(-2.35986e-20 -9.87899e-16 0)
(-2.38418e-20 -9.87899e-16 0)
(-2.39013e-20 -9.87899e-16 0)
(-2.37698e-20 -9.87899e-16 0)
(-2.34414e-20 -9.87899e-16 0)
(-2.29118e-20 -9.87899e-16 0)
(-2.21785e-20 -9.87899e-16 0)
(-2.12415e-20 -9.87899e-16 0)
(-2.01027e-20 -9.87899e-16 0)
(-1.87673e-20 -9.87899e-16 0)
(-1.72428e-20 -9.87899e-16 0)
(-1.554e-20 -9.87899e-16 0)
(-1.36725e-20 -9.87899e-16 0)
(-1.16571e-20 -9.87899e-16 0)
(-9.51322e-21 -9.87899e-16 0)
(-7.90697e-21 -9.87899e-16 0)
(-6.88913e-21 -9.87899e-16 0)
(-5.85583e-21 -9.87899e-16 0)
(-4.80933e-21 -9.87899e-16 0)
(-3.75196e-21 -9.87899e-16 0)
(-2.68608e-21 -9.87899e-16 0)
(-1.6141e-21 -9.87899e-16 0)
(-5.38441e-22 -9.87899e-16 0)
(5.38441e-22 -9.87899e-16 0)
(1.6141e-21 -9.87899e-16 0)
(2.68608e-21 -9.87899e-16 0)
(3.75196e-21 -9.87899e-16 0)
(4.80933e-21 -9.87899e-16 0)
(5.85583e-21 -9.87899e-16 0)
(6.88913e-21 -9.87899e-16 0)
(7.90697e-21 -9.87899e-16 0)
(9.51322e-21 -9.87899e-16 0)
(1.16571e-20 -9.87899e-16 0)
(1.36725e-20 -9.87899e-16 0)
(1.554e-20 -9.87899e-16 0)
(1.72428e-20 -9.87899e-16 0)
(1.87673e-20 -9.87899e-16 0)
(2.01027e-20 -9.87899e-16 0)
(2.12415e-20 -9.87899e-16 0)
(2.21785e-20 -9.87899e-16 0)
(2.29118e-20 -9.87899e-16 0)
(2.34414e-20 -9.87899e-16 0)
(2.37698e-20 -9.87899e-16 0)
(2.39013e-20 -9.87899e-16 0)
(2.38418e-20 -9.87899e-16 0)
(2.35986e-20 -9.87899e-16 0)
(2.318e-20 -9.87899e-16 0)
(2.25951e-20 -9.87899e-16 0)
(2.18539e-20 -9.87899e-16 0)
(2.09666e-20 -9.87899e-16 0)
(1.99438e-20 -9.87899e-16 0)
(1.87961e-20 -9.87899e-16 0)
(1.75343e-20 -9.87899e-16 0)
(1.6169e-20 -9.87899e-16 0)
(1.4711e-20 -9.87899e-16 0)
(1.31706e-20 -9.87899e-16 0)
(1.1558e-20 -9.87899e-16 0)
(9.8835e-21 -9.87899e-16 0)
(8.15687e-21 -9.87899e-16 0)
(6.38786e-21 -9.87899e-16 0)
(4.58606e-21 -9.87899e-16 0)
(2.76094e-21 -9.87899e-16 0)
(9.21863e-22 -9.87899e-16 0)
(-9.22063e-22 -9.87898e-16 0)
(-2.76154e-21 -9.87898e-16 0)
(-4.58707e-21 -9.87898e-16 0)
(-6.38927e-21 -9.87898e-16 0)
(-8.15869e-21 -9.87898e-16 0)
(-9.88575e-21 -9.87898e-16 0)
(-1.15607e-20 -9.87898e-16 0)
(-1.31737e-20 -9.87898e-16 0)
(-1.47145e-20 -9.87898e-16 0)
(-1.6173e-20 -9.87898e-16 0)
(-1.75387e-20 -9.87898e-16 0)
(-1.8801e-20 -9.87898e-16 0)
(-1.99492e-20 -9.87898e-16 0)
(-2.09725e-20 -9.87898e-16 0)
(-2.18602e-20 -9.87898e-16 0)
(-2.26019e-20 -9.87898e-16 0)
(-2.31871e-20 -9.87898e-16 0)
(-2.36062e-20 -9.87898e-16 0)
(-2.38498e-20 -9.87898e-16 0)
(-2.39096e-20 -9.87899e-16 0)
(-2.37783e-20 -9.87899e-16 0)
(-2.34501e-20 -9.87899e-16 0)
(-2.29206e-20 -9.87899e-16 0)
(-2.21874e-20 -9.87899e-16 0)
(-2.12502e-20 -9.87899e-16 0)
(-2.01112e-20 -9.87899e-16 0)
(-1.87755e-20 -9.87899e-16 0)
(-1.72505e-20 -9.87899e-16 0)
(-1.55471e-20 -9.87899e-16 0)
(-1.36789e-20 -9.87899e-16 0)
(-1.16627e-20 -9.87899e-16 0)
(-9.51783e-21 -9.87899e-16 0)
(-7.91083e-21 -9.87899e-16 0)
(-6.89251e-21 -9.87899e-16 0)
(-5.85872e-21 -9.87899e-16 0)
(-4.81171e-21 -9.87899e-16 0)
(-3.75382e-21 -9.87899e-16 0)
(-2.68742e-21 -9.87899e-16 0)
(-1.6149e-21 -9.87899e-16 0)
(-5.38709e-22 -9.87899e-16 0)
(5.38709e-22 -9.87899e-16 0)
(1.6149e-21 -9.87899e-16 0)
(2.68742e-21 -9.87899e-16 0)
(3.75382e-21 -9.87899e-16 0)
(4.81171e-21 -9.87899e-16 0)
(5.85872e-21 -9.87899e-16 0)
(6.89251e-21 -9.87899e-16 0)
(7.91083e-21 -9.87899e-16 0)
(9.51783e-21 -9.87899e-16 0)
(1.16627e-20 -9.87899e-16 0)
(1.36789e-20 -9.87899e-16 0)
(1.55471e-20 -9.87899e-16 0)
(1.72505e-20 -9.87899e-16 0)
(1.87755e-20 -9.87899e-16 0)
(2.01112e-20 -9.87899e-16 0)
(2.12502e-20 -9.87899e-16 0)
(2.21874e-20 -9.87899e-16 0)
(2.29206e-20 -9.87899e-16 0)
(2.34501e-20 -9.87899e-16 0)
(2.37783e-20 -9.87899e-16 0)
(2.39096e-20 -9.87899e-16 0)
(2.38498e-20 -9.87898e-16 0)
(2.36062e-20 -9.87898e-16 0)
(2.31871e-20 -9.87898e-16 0)
(2.26019e-20 -9.87898e-16 0)
(2.18602e-20 -9.87898e-16 0)
(2.09725e-20 -9.87898e-16 0)
(1.99492e-20 -9.87898e-16 0)
(1.8801e-20 -9.87898e-16 0)
(1.75387e-20 -9.87898e-16 0)
(1.6173e-20 -9.87898e-16 0)
(1.47145e-20 -9.87898e-16 0)
(1.31737e-20 -9.87898e-16 0)
(1.15607e-20 -9.87898e-16 0)
(9.88575e-21 -9.87898e-16 0)
(8.15869e-21 -9.87898e-16 0)
(6.38927e-21 -9.87898e-16 0)
(4.58707e-21 -9.87898e-16 0)
(2.76154e-21 -9.87898e-16 0)
(9.22063e-22 -9.87898e-16 0)
(-9.22526e-22 -9.87897e-16 0)
(-2.76293e-21 -9.87898e-16 0)
(-4.58939e-21 -9.87898e-16 0)
(-6.39254e-21 -9.87898e-16 0)
(-8.16291e-21 -9.87898e-16 0)
(-9.89094e-21 -9.87898e-16 0)
(-1.15669e-20 -9.87898e-16 0)
(-1.31808e-20 -9.87898e-16 0)
(-1.47227e-20 -9.87898e-16 0)
(-1.61823e-20 -9.87898e-16 0)
(-1.7549e-20 -9.87898e-16 0)
(-1.88124e-20 -9.87898e-16 0)
(-1.99616e-20 -9.87898e-16 0)
(-2.0986e-20 -9.87898e-16 0)
(-2.18748e-20 -9.87898e-16 0)
(-2.26175e-20 -9.87898e-16 0)
(-2.32037e-20 -9.87898e-16 0)
(-2.36236e-20 -9.87898e-16 0)
(-2.38681e-20 -9.87898e-16 0)
(-2.39286e-20 -9.87899e-16 0)
(-2.3798e-20 -9.87899e-16 0)
(-2.34702e-20 -9.87899e-16 0)
(-2.29409e-20 -9.87899e-16 0)
(-2.22077e-20 -9.87899e-16 0)
(-2.12703e-20 -9.87899e-16 0)
(-2.01309e-20 -9.87899e-16 0)
(-1.87943e-20 -9.87899e-16 0)
(-1.72683e-20 -9.87899e-16 0)
(-1.55635e-20 -9.87899e-16 0)
(-1.36937e-20 -9.879e-16 0)
(-1.16755e-20 -9.879e-16 0)
(-9.52844e-21 -9.879e-16 0)
(-7.91974e-21 -9.879e-16 0)
(-6.90031e-21 -9.879e-16 0)
(-5.86537e-21 -9.879e-16 0)
(-4.8172e-21 -9.879e-16 0)
(-3.75812e-21 -9.879e-16 0)
(-2.6905e-21 -9.879e-16 0)
(-1.61675e-21 -9.879e-16 0)
(-5.39328e-22 -9.879e-16 0)
(5.39328e-22 -9.879e-16 0)
(1.61675e-21 -9.879e-16 0)
(2.6905e-21 -9.879e-16 0)
(3.75812e-21 -9.879e-16 0)
(4.8172e-21 -9.879e-16 0)
(5.86537e-21 -9.879e-16 0)
(6.90031e-21 -9.879e-16 0)
(7.91974e-21 -9.879e-16 0)
(9.52844e-21 -9.879e-16 0)
(1.16755e-20 -9.879e-16 0)
(1.36937e-20 -9.879e-16 0)
(1.55635e-20 -9.87899e-16 0)
(1.72683e-20 -9.87899e-16 0)
(1.87943e-20 -9.87899e-16 0)
(2.01309e-20 -9.87899e-16 0)
(2.12703e-20 -9.87899e-16 0)
(2.22077e-20 -9.87899e-16 0)
(2.29409e-20 -9.87899e-16 0)
(2.34702e-20 -9.87899e-16 0)
(2.3798e-20 -9.87899e-16 0)
(2.39286e-20 -9.87899e-16 0)
(2.38681e-20 -9.87898e-16 0)
(2.36236e-20 -9.87898e-16 0)
(2.32037e-20 -9.87898e-16 0)
(2.26175e-20 -9.87898e-16 0)
(2.18748e-20 -9.87898e-16 0)
(2.0986e-20 -9.87898e-16 0)
(1.99616e-20 -9.87898e-16 0)
(1.88124e-20 -9.87898e-16 0)
(1.7549e-20 -9.87898e-16 0)
(1.61823e-20 -9.87898e-16 0)
(1.47227e-20 -9.87898e-16 0)
(1.31808e-20 -9.87898e-16 0)
(1.15669e-20 -9.87898e-16 0)
(9.89094e-21 -9.87898e-16 0)
(8.16291e-21 -9.87898e-16 0)
(6.39254e-21 -9.87898e-16 0)
(4.58939e-21 -9.87898e-16 0)
(2.76293e-21 -9.87898e-16 0)
(9.22526e-22 -9.87897e-16 0)
(-9.23325e-22 -9.87897e-16 0)
(-2.76533e-21 -9.87897e-16 0)
(-4.5934e-21 -9.87897e-16 0)
(-6.39817e-21 -9.87897e-16 0)
(-8.1702e-21 -9.87897e-16 0)
(-9.8999e-21 -9.87897e-16 0)
(-1.15776e-20 -9.87897e-16 0)
(-1.31932e-20 -9.87897e-16 0)
(-1.47369e-20 -9.87897e-16 0)
(-1.61982e-20 -9.87897e-16 0)
(-1.75668e-20 -9.87897e-16 0)
(-1.8832e-20 -9.87898e-16 0)
(-1.99831e-20 -9.87898e-16 0)
(-2.10093e-20 -9.87898e-16 0)
(-2.18999e-20 -9.87898e-16 0)
(-2.26444e-20 -9.87898e-16 0)
(-2.32323e-20 -9.87898e-16 0)
(-2.36538e-20 -9.87898e-16 0)
(-2.38997e-20 -9.87898e-16 0)
(-2.39615e-20 -9.87899e-16 0)
(-2.38319e-20 -9.87899e-16 0)
(-2.35048e-20 -9.87899e-16 0)
(-2.29759e-20 -9.87899e-16 0)
(-2.22428e-20 -9.87899e-16 0)
(-2.1305e-20 -9.87899e-16 0)
(-2.01647e-20 -9.879e-16 0)
(-1.88268e-20 -9.879e-16 0)
(-1.7299e-20 -9.879e-16 0)
(-1.55919e-20 -9.879e-16 0)
(-1.37192e-20 -9.879e-16 0)
(-1.16976e-20 -9.879e-16 0)
(-9.54678e-21 -9.879e-16 0)
(-7.93514e-21 -9.879e-16 0)
(-6.91379e-21 -9.879e-16 0)
(-5.87688e-21 -9.879e-16 0)
(-4.82668e-21 -9.879e-16 0)
(-3.76553e-21 -9.879e-16 0)
(-2.69582e-21 -9.879e-16 0)
(-1.61996e-21 -9.879e-16 0)
(-5.40397e-22 -9.879e-16 0)
(5.40397e-22 -9.879e-16 0)
(1.61996e-21 -9.879e-16 0)
(2.69582e-21 -9.879e-16 0)
(3.76553e-21 -9.879e-16 0)
(4.82668e-21 -9.879e-16 0)
(5.87688e-21 -9.879e-16 0)
(6.91379e-21 -9.879e-16 0)
(7.93514e-21 -9.879e-16 0)
(9.54678e-21 -9.879e-16 0)
(1.16976e-20 -9.879e-16 0)
(1.37192e-20 -9.879e-16 0)
(1.55919e-20 -9.879e-16 0)
(1.7299e-20 -9.879e-16 0)
(1.88268e-20 -9.879e-16 0)
(2.01647e-20 -9.879e-16 0)
(2.1305e-20 -9.87899e-16 0)
(2.22428e-20 -9.87899e-16 0)
(2.29759e-20 -9.87899e-16 0)
(2.35048e-20 -9.87899e-16 0)
(2.38319e-20 -9.87899e-16 0)
(2.39615e-20 -9.87899e-16 0)
(2.38997e-20 -9.87898e-16 0)
(2.36538e-20 -9.87898e-16 0)
(2.32323e-20 -9.87898e-16 0)
(2.26444e-20 -9.87898e-16 0)
(2.18999e-20 -9.87898e-16 0)
(2.10093e-20 -9.87898e-16 0)
(1.99831e-20 -9.87898e-16 0)
(1.8832e-20 -9.87898e-16 0)
(1.75668e-20 -9.87897e-16 0)
(1.61982e-20 -9.87897e-16 0)
(1.47369e-20 -9.87897e-16 0)
(1.31932e-20 -9.87897e-16 0)
(1.15776e-20 -9.87897e-16 0)
(9.8999e-21 -9.87897e-16 0)
(8.1702e-21 -9.87897e-16 0)
(6.39817e-21 -9.87897e-16 0)
(4.5934e-21 -9.87897e-16 0)
(2.76533e-21 -9.87897e-16 0)
(9.23325e-22 -9.87897e-16 0)
(-9.24551e-22 -9.87897e-16 0)
(-2.76902e-21 -9.87897e-16 0)
(-4.59956e-21 -9.87897e-16 0)
(-6.40683e-21 -9.87897e-16 0)
(-8.18138e-21 -9.87897e-16 0)
(-9.91365e-21 -9.87897e-16 0)
(-1.15939e-20 -9.87897e-16 0)
(-1.32123e-20 -9.87897e-16 0)
(-1.47586e-20 -9.87897e-16 0)
(-1.62227e-20 -9.87897e-16 0)
(-1.75941e-20 -9.87897e-16 0)
(-1.88621e-20 -9.87897e-16 0)
(-2.0016e-20 -9.87897e-16 0)
(-2.10451e-20 -9.87897e-16 0)
(-2.19385e-20 -9.87898e-16 0)
(-2.26857e-20 -9.87898e-16 0)
(-2.32762e-20 -9.87898e-16 0)
(-2.37001e-20 -9.87898e-16 0)
(-2.39482e-20 -9.87898e-16 0)
(-2.4012e-20 -9.87899e-16 0)
(-2.38839e-20 -9.87899e-16 0)
(-2.3558e-20 -9.87899e-16 0)
(-2.30298e-20 -9.87899e-16 0)
(-2.22967e-20 -9.87899e-16 0)
(-2.13583e-20 -9.879e-16 0)
(-2.02168e-20 -9.879e-16 0)
(-1.88768e-20 -9.879e-16 0)
(-1.73462e-20 -9.879e-16 0)
(-1.56354e-20 -9.879e-16 0)
(-1.37583e-20 -9.87901e-16 0)
(-1.17317e-20 -9.87901e-16 0)
(-9.57498e-21 -9.87901e-16 0)
(-7.95881e-21 -9.87901e-16 0)
(-6.93452e-21 -9.87901e-16 0)
(-5.89457e-21 -9.87901e-16 0)
(-4.84126e-21 -9.87901e-16 0)
(-3.77694e-21 -9.87901e-16 0)
(-2.704e-21 -9.87901e-16 0)
(-1.62488e-21 -9.87901e-16 0)
(-5.42041e-22 -9.87901e-16 0)
(5.42041e-22 -9.87901e-16 0)
(1.62488e-21 -9.87901e-16 0)
(2.704e-21 -9.87901e-16 0)
(3.77694e-21 -9.87901e-16 0)
(4.84126e-21 -9.87901e-16 0)
(5.89457e-21 -9.87901e-16 0)
(6.93452e-21 -9.87901e-16 0)
(7.95881e-21 -9.87901e-16 0)
(9.57498e-21 -9.87901e-16 0)
(1.17317e-20 -9.87901e-16 0)
(1.37583e-20 -9.87901e-16 0)
(1.56354e-20 -9.879e-16 0)
(1.73462e-20 -9.879e-16 0)
(1.88768e-20 -9.879e-16 0)
(2.02168e-20 -9.879e-16 0)
(2.13583e-20 -9.879e-16 0)
(2.22967e-20 -9.87899e-16 0)
(2.30298e-20 -9.87899e-16 0)
(2.3558e-20 -9.87899e-16 0)
(2.38839e-20 -9.87899e-16 0)
(2.4012e-20 -9.87899e-16 0)
(2.39482e-20 -9.87898e-16 0)
(2.37001e-20 -9.87898e-16 0)
(2.32762e-20 -9.87898e-16 0)
(2.26857e-20 -9.87898e-16 0)
(2.19385e-20 -9.87898e-16 0)
(2.10451e-20 -9.87897e-16 0)
(2.0016e-20 -9.87897e-16 0)
(1.88621e-20 -9.87897e-16 0)
(1.75941e-20 -9.87897e-16 0)
(1.62227e-20 -9.87897e-16 0)
(1.47586e-20 -9.87897e-16 0)
(1.32123e-20 -9.87897e-16 0)
(1.15939e-20 -9.87897e-16 0)
(9.91365e-21 -9.87897e-16 0)
(8.18138e-21 -9.87897e-16 0)
(6.40683e-21 -9.87897e-16 0)
(4.59956e-21 -9.87897e-16 0)
(2.76902e-21 -9.87897e-16 0)
(9.24551e-22 -9.87897e-16 0)
(-9.26316e-22 -9.87896e-16 0)
(-2.77432e-21 -9.87896e-16 0)
(-4.60842e-21 -9.87896e-16 0)
(-6.41929e-21 -9.87896e-16 0)
(-8.19748e-21 -9.87896e-16 0)
(-9.93345e-21 -9.87896e-16 0)
(-1.16175e-20 -9.87896e-16 0)
(-1.32397e-20 -9.87896e-16 0)
(-1.479e-20 -9.87896e-16 0)
(-1.6258e-20 -9.87897e-16 0)
(-1.76334e-20 -9.87897e-16 0)
(-1.89055e-20 -9.87897e-16 0)
(-2.00635e-20 -9.87897e-16 0)
(-2.10967e-20 -9.87897e-16 0)
(-2.19941e-20 -9.87897e-16 0)
(-2.27452e-20 -9.87898e-16 0)
(-2.33395e-20 -9.87898e-16 0)
(-2.37669e-20 -9.87898e-16 0)
(-2.40182e-20 -9.87898e-16 0)
(-2.40847e-20 -9.87899e-16 0)
(-2.3959e-20 -9.87899e-16 0)
(-2.36347e-20 -9.87899e-16 0)
(-2.31074e-20 -9.87899e-16 0)
(-2.23744e-20 -9.879e-16 0)
(-2.14352e-20 -9.879e-16 0)
(-2.02919e-20 -9.879e-16 0)
(-1.8949e-20 -9.87901e-16 0)
(-1.74143e-20 -9.87901e-16 0)
(-1.56983e-20 -9.87901e-16 0)
(-1.38149e-20 -9.87901e-16 0)
(-1.17808e-20 -9.87901e-16 0)
(-9.61568e-21 -9.87902e-16 0)
(-7.99299e-21 -9.87902e-16 0)
(-6.96444e-21 -9.87902e-16 0)
(-5.92011e-21 -9.87902e-16 0)
(-4.86231e-21 -9.87902e-16 0)
(-3.79341e-21 -9.87902e-16 0)
(-2.71582e-21 -9.87902e-16 0)
(-1.63199e-21 -9.87902e-16 0)
(-5.44415e-22 -9.87902e-16 0)
(5.44415e-22 -9.87902e-16 0)
(1.63199e-21 -9.87902e-16 0)
(2.71582e-21 -9.87902e-16 0)
(3.79341e-21 -9.87902e-16 0)
(4.86231e-21 -9.87902e-16 0)
(5.92011e-21 -9.87902e-16 0)
(6.96444e-21 -9.87902e-16 0)
(7.99299e-21 -9.87902e-16 0)
(9.61568e-21 -9.87902e-16 0)
(1.17808e-20 -9.87901e-16 0)
(1.38149e-20 -9.87901e-16 0)
(1.56983e-20 -9.87901e-16 0)
(1.74143e-20 -9.87901e-16 0)
(1.8949e-20 -9.87901e-16 0)
(2.02919e-20 -9.879e-16 0)
(2.14352e-20 -9.879e-16 0)
(2.23744e-20 -9.879e-16 0)
(2.31074e-20 -9.87899e-16 0)
(2.36347e-20 -9.87899e-16 0)
(2.3959e-20 -9.87899e-16 0)
(2.40847e-20 -9.87899e-16 0)
(2.40182e-20 -9.87898e-16 0)
(2.37669e-20 -9.87898e-16 0)
(2.33395e-20 -9.87898e-16 0)
(2.27452e-20 -9.87898e-16 0)
(2.19941e-20 -9.87897e-16 0)
(2.10967e-20 -9.87897e-16 0)
(2.00635e-20 -9.87897e-16 0)
(1.89055e-20 -9.87897e-16 0)
(1.76334e-20 -9.87897e-16 0)
(1.6258e-20 -9.87897e-16 0)
(1.479e-20 -9.87896e-16 0)
(1.32397e-20 -9.87896e-16 0)
(1.16175e-20 -9.87896e-16 0)
(9.93345e-21 -9.87896e-16 0)
(8.19748e-21 -9.87896e-16 0)
(6.41929e-21 -9.87896e-16 0)
(4.60842e-21 -9.87896e-16 0)
(2.77432e-21 -9.87896e-16 0)
(9.26316e-22 -9.87896e-16 0)
(-9.28758e-22 -9.87895e-16 0)
(-2.78166e-21 -9.87895e-16 0)
(-4.62068e-21 -9.87895e-16 0)
(-6.43652e-21 -9.87895e-16 0)
(-8.21975e-21 -9.87895e-16 0)
(-9.96084e-21 -9.87896e-16 0)
(-1.16501e-20 -9.87896e-16 0)
(-1.32776e-20 -9.87896e-16 0)
(-1.48333e-20 -9.87896e-16 0)
(-1.63069e-20 -9.87896e-16 0)
(-1.76878e-20 -9.87896e-16 0)
(-1.89656e-20 -9.87896e-16 0)
(-2.01293e-20 -9.87897e-16 0)
(-2.1168e-20 -9.87897e-16 0)
(-2.20711e-20 -9.87897e-16 0)
(-2.28276e-20 -9.87897e-16 0)
(-2.34271e-20 -9.87898e-16 0)
(-2.38594e-20 -9.87898e-16 0)
(-2.41151e-20 -9.87898e-16 0)
(-2.41855e-20 -9.87899e-16 0)
(-2.40629e-20 -9.87899e-16 0)
(-2.3741e-20 -9.87899e-16 0)
(-2.3215e-20 -9.879e-16 0)
(-2.24822e-20 -9.879e-16 0)
(-2.15419e-20 -9.879e-16 0)
(-2.0396e-20 -9.87901e-16 0)
(-1.90491e-20 -9.87901e-16 0)
(-1.75088e-20 -9.87901e-16 0)
(-1.57856e-20 -9.87902e-16 0)
(-1.38933e-20 -9.87902e-16 0)
(-1.18489e-20 -9.87902e-16 0)
(-9.67218e-21 -9.87902e-16 0)
(-8.04044e-21 -9.87902e-16 0)
(-7.00598e-21 -9.87903e-16 0)
(-5.95557e-21 -9.87903e-16 0)
(-4.89154e-21 -9.87903e-16 0)
(-3.81627e-21 -9.87903e-16 0)
(-2.73222e-21 -9.87903e-16 0)
(-1.64186e-21 -9.87903e-16 0)
(-5.4771e-22 -9.87903e-16 0)
(5.4771e-22 -9.87903e-16 0)
(1.64186e-21 -9.87903e-16 0)
(2.73222e-21 -9.87903e-16 0)
(3.81627e-21 -9.87903e-16 0)
(4.89154e-21 -9.87903e-16 0)
(5.95557e-21 -9.87903e-16 0)
(7.00598e-21 -9.87903e-16 0)
(8.04044e-21 -9.87902e-16 0)
(9.67218e-21 -9.87902e-16 0)
(1.18489e-20 -9.87902e-16 0)
(1.38933e-20 -9.87902e-16 0)
(1.57856e-20 -9.87902e-16 0)
(1.75088e-20 -9.87901e-16 0)
(1.90491e-20 -9.87901e-16 0)
(2.0396e-20 -9.87901e-16 0)
(2.15419e-20 -9.879e-16 0)
(2.24822e-20 -9.879e-16 0)
(2.3215e-20 -9.879e-16 0)
(2.3741e-20 -9.87899e-16 0)
(2.40629e-20 -9.87899e-16 0)
(2.41855e-20 -9.87899e-16 0)
(2.41151e-20 -9.87898e-16 0)
(2.38594e-20 -9.87898e-16 0)
(2.34271e-20 -9.87898e-16 0)
(2.28276e-20 -9.87897e-16 0)
(2.20711e-20 -9.87897e-16 0)
(2.1168e-20 -9.87897e-16 0)
(2.01293e-20 -9.87897e-16 0)
(1.89656e-20 -9.87896e-16 0)
(1.76878e-20 -9.87896e-16 0)
(1.63069e-20 -9.87896e-16 0)
(1.48333e-20 -9.87896e-16 0)
(1.32776e-20 -9.87896e-16 0)
(1.16501e-20 -9.87896e-16 0)
(9.96084e-21 -9.87896e-16 0)
(8.21975e-21 -9.87895e-16 0)
(6.43652e-21 -9.87895e-16 0)
(4.62068e-21 -9.87895e-16 0)
(2.78166e-21 -9.87895e-16 0)
(9.28758e-22 -9.87895e-16 0)
(-9.32042e-22 -9.87895e-16 0)
(-2.79152e-21 -9.87895e-16 0)
(-4.63717e-21 -9.87895e-16 0)
(-6.4597e-21 -9.87895e-16 0)
(-8.24971e-21 -9.87895e-16 0)
(-9.99769e-21 -9.87895e-16 0)
(-1.16939e-20 -9.87895e-16 0)
(-1.33286e-20 -9.87895e-16 0)
(-1.48916e-20 -9.87895e-16 0)
(-1.63726e-20 -9.87896e-16 0)
(-1.77611e-20 -9.87896e-16 0)
(-1.90464e-20 -9.87896e-16 0)
(-2.02177e-20 -9.87896e-16 0)
(-2.12642e-20 -9.87896e-16 0)
(-2.21747e-20 -9.87897e-16 0)
(-2.29386e-20 -9.87897e-16 0)
(-2.35451e-20 -9.87897e-16 0)
(-2.39841e-20 -9.87898e-16 0)
(-2.42458e-20 -9.87898e-16 0)
(-2.43214e-20 -9.87899e-16 0)
(-2.42031e-20 -9.87899e-16 0)
(-2.38844e-20 -9.87899e-16 0)
(-2.33602e-20 -9.879e-16 0)
(-2.26277e-20 -9.879e-16 0)
(-2.16859e-20 -9.87901e-16 0)
(-2.05366e-20 -9.87901e-16 0)
(-1.91843e-20 -9.87902e-16 0)
(-1.76364e-20 -9.87902e-16 0)
(-1.59035e-20 -9.87902e-16 0)
(-1.39994e-20 -9.87903e-16 0)
(-1.19411e-20 -9.87903e-16 0)
(-9.74857e-21 -9.87903e-16 0)
(-8.10459e-21 -9.87903e-16 0)
(-7.06215e-21 -9.87903e-16 0)
(-6.00352e-21 -9.87903e-16 0)
(-4.93106e-21 -9.87904e-16 0)
(-3.84719e-21 -9.87904e-16 0)
(-2.75441e-21 -9.87904e-16 0)
(-1.65521e-21 -9.87904e-16 0)
(-5.52166e-22 -9.87904e-16 0)
(5.52166e-22 -9.87904e-16 0)
(1.65521e-21 -9.87904e-16 0)
(2.75441e-21 -9.87904e-16 0)
(3.84719e-21 -9.87904e-16 0)
(4.93106e-21 -9.87904e-16 0)
(6.00352e-21 -9.87903e-16 0)
(7.06215e-21 -9.87903e-16 0)
(8.10459e-21 -9.87903e-16 0)
(9.74857e-21 -9.87903e-16 0)
(1.19411e-20 -9.87903e-16 0)
(1.39994e-20 -9.87903e-16 0)
(1.59035e-20 -9.87902e-16 0)
(1.76364e-20 -9.87902e-16 0)
(1.91843e-20 -9.87902e-16 0)
(2.05366e-20 -9.87901e-16 0)
(2.16859e-20 -9.87901e-16 0)
(2.26277e-20 -9.879e-16 0)
(2.33602e-20 -9.879e-16 0)
(2.38844e-20 -9.87899e-16 0)
(2.42031e-20 -9.87899e-16 0)
(2.43214e-20 -9.87899e-16 0)
(2.42458e-20 -9.87898e-16 0)
(2.39841e-20 -9.87898e-16 0)
(2.35451e-20 -9.87897e-16 0)
(2.29386e-20 -9.87897e-16 0)
(2.21747e-20 -9.87897e-16 0)
(2.12642e-20 -9.87896e-16 0)
(2.02177e-20 -9.87896e-16 0)
(1.90464e-20 -9.87896e-16 0)
(1.77611e-20 -9.87896e-16 0)
(1.63726e-20 -9.87896e-16 0)
(1.48916e-20 -9.87895e-16 0)
(1.33286e-20 -9.87895e-16 0)
(1.16939e-20 -9.87895e-16 0)
(9.99769e-21 -9.87895e-16 0)
(8.24971e-21 -9.87895e-16 0)
(6.4597e-21 -9.87895e-16 0)
(4.63717e-21 -9.87895e-16 0)
(2.79152e-21 -9.87895e-16 0)
(9.32042e-22 -9.87895e-16 0)
(-9.36372e-22 -9.87894e-16 0)
(-2.80453e-21 -9.87894e-16 0)
(-4.65891e-21 -9.87894e-16 0)
(-6.49026e-21 -9.87894e-16 0)
(-8.28921e-21 -9.87894e-16 0)
(-1.00463e-20 -9.87894e-16 0)
(-1.17518e-20 -9.87894e-16 0)
(-1.33959e-20 -9.87895e-16 0)
(-1.49685e-20 -9.87895e-16 0)
(-1.64592e-20 -9.87895e-16 0)
(-1.78577e-20 -9.87895e-16 0)
(-1.91531e-20 -9.87895e-16 0)
(-2.03345e-20 -9.87896e-16 0)
(-2.1391e-20 -9.87896e-16 0)
(-2.23116e-20 -9.87896e-16 0)
(-2.30851e-20 -9.87897e-16 0)
(-2.3701e-20 -9.87897e-16 0)
(-2.41488e-20 -9.87898e-16 0)
(-2.44185e-20 -9.87898e-16 0)
(-2.45011e-20 -9.87899e-16 0)
(-2.43886e-20 -9.87899e-16 0)
(-2.40741e-20 -9.879e-16 0)
(-2.35524e-20 -9.879e-16 0)
(-2.28203e-20 -9.87901e-16 0)
(-2.18766e-20 -9.87901e-16 0)
(-2.07229e-20 -9.87902e-16 0)
(-1.93635e-20 -9.87902e-16 0)
(-1.78056e-20 -9.87903e-16 0)
(-1.60598e-20 -9.87903e-16 0)
(-1.414e-20 -9.87903e-16 0)
(-1.20633e-20 -9.87904e-16 0)
(-9.84995e-21 -9.87904e-16 0)
(-8.18974e-21 -9.87904e-16 0)
(-7.13672e-21 -9.87904e-16 0)
(-6.06718e-21 -9.87904e-16 0)
(-4.98353e-21 -9.87905e-16 0)
(-3.88825e-21 -9.87905e-16 0)
(-2.78386e-21 -9.87905e-16 0)
(-1.67294e-21 -9.87905e-16 0)
(-5.58083e-22 -9.87905e-16 0)
(5.58083e-22 -9.87905e-16 0)
(1.67294e-21 -9.87905e-16 0)
(2.78386e-21 -9.87905e-16 0)
(3.88825e-21 -9.87905e-16 0)
(4.98353e-21 -9.87905e-16 0)
(6.06718e-21 -9.87904e-16 0)
(7.13672e-21 -9.87904e-16 0)
(8.18974e-21 -9.87904e-16 0)
(9.84995e-21 -9.87904e-16 0)
(1.20633e-20 -9.87904e-16 0)
(1.414e-20 -9.87903e-16 0)
(1.60598e-20 -9.87903e-16 0)
(1.78056e-20 -9.87903e-16 0)
(1.93635e-20 -9.87902e-16 0)
(2.07229e-20 -9.87902e-16 0)
(2.18766e-20 -9.87901e-16 0)
(2.28203e-20 -9.87901e-16 0)
(2.35524e-20 -9.879e-16 0)
(2.40741e-20 -9.879e-16 0)
(2.43886e-20 -9.87899e-16 0)
(2.45011e-20 -9.87899e-16 0)
(2.44185e-20 -9.87898e-16 0)
(2.41488e-20 -9.87898e-16 0)
(2.3701e-20 -9.87897e-16 0)
(2.30851e-20 -9.87897e-16 0)
(2.23116e-20 -9.87896e-16 0)
(2.1391e-20 -9.87896e-16 0)
(2.03345e-20 -9.87896e-16 0)
(1.91531e-20 -9.87895e-16 0)
(1.78577e-20 -9.87895e-16 0)
(1.64592e-20 -9.87895e-16 0)
(1.49685e-20 -9.87895e-16 0)
(1.33959e-20 -9.87895e-16 0)
(1.17518e-20 -9.87894e-16 0)
(1.00463e-20 -9.87894e-16 0)
(8.28921e-21 -9.87894e-16 0)
(6.49026e-21 -9.87894e-16 0)
(4.65891e-21 -9.87894e-16 0)
(2.80453e-21 -9.87894e-16 0)
(9.36372e-22 -9.87894e-16 0)
(-9.41992e-22 -9.87893e-16 0)
(-2.82142e-21 -9.87893e-16 0)
(-4.68713e-21 -9.87893e-16 0)
(-6.52993e-21 -9.87893e-16 0)
(-8.3405e-21 -9.87893e-16 0)
(-1.01094e-20 -9.87893e-16 0)
(-1.18269e-20 -9.87894e-16 0)
(-1.34833e-20 -9.87894e-16 0)
(-1.50683e-20 -9.87894e-16 0)
(-1.65719e-20 -9.87894e-16 0)
(-1.79832e-20 -9.87895e-16 0)
(-1.92917e-20 -9.87895e-16 0)
(-2.04864e-20 -9.87895e-16 0)
(-2.1556e-20 -9.87896e-16 0)
(-2.24896e-20 -9.87896e-16 0)
(-2.32759e-20 -9.87896e-16 0)
(-2.3904e-20 -9.87897e-16 0)
(-2.43632e-20 -9.87897e-16 0)
(-2.46435e-20 -9.87898e-16 0)
(-2.47353e-20 -9.87899e-16 0)
(-2.46304e-20 -9.87899e-16 0)
(-2.43216e-20 -9.879e-16 0)
(-2.38032e-20 -9.879e-16 0)
(-2.30717e-20 -9.87901e-16 0)
(-2.21257e-20 -9.87902e-16 0)
(-2.09664e-20 -9.87902e-16 0)
(-1.95977e-20 -9.87903e-16 0)
(-1.80269e-20 -9.87903e-16 0)
(-1.62644e-20 -9.87904e-16 0)
(-1.43242e-20 -9.87904e-16 0)
(-1.22234e-20 -9.87905e-16 0)
(-9.98272e-21 -9.87905e-16 0)
(-8.30128e-21 -9.87905e-16 0)
(-7.23439e-21 -9.87905e-16 0)
(-6.15057e-21 -9.87906e-16 0)
(-5.05227e-21 -9.87906e-16 0)
(-3.94203e-21 -9.87906e-16 0)
(-2.82245e-21 -9.87906e-16 0)
(-1.69616e-21 -9.87906e-16 0)
(-5.65837e-22 -9.87906e-16 0)
(5.65837e-22 -9.87906e-16 0)
(1.69616e-21 -9.87906e-16 0)
(2.82245e-21 -9.87906e-16 0)
(3.94203e-21 -9.87906e-16 0)
(5.05227e-21 -9.87906e-16 0)
(6.15057e-21 -9.87906e-16 0)
(7.23439e-21 -9.87905e-16 0)
(8.30128e-21 -9.87905e-16 0)
(9.98272e-21 -9.87905e-16 0)
(1.22234e-20 -9.87905e-16 0)
(1.43242e-20 -9.87904e-16 0)
(1.62644e-20 -9.87904e-16 0)
(1.80269e-20 -9.87903e-16 0)
(1.95977e-20 -9.87903e-16 0)
(2.09664e-20 -9.87902e-16 0)
(2.21257e-20 -9.87902e-16 0)
(2.30717e-20 -9.87901e-16 0)
(2.38032e-20 -9.879e-16 0)
(2.43216e-20 -9.879e-16 0)
(2.46304e-20 -9.87899e-16 0)
(2.47353e-20 -9.87899e-16 0)
(2.46435e-20 -9.87898e-16 0)
(2.43632e-20 -9.87897e-16 0)
(2.3904e-20 -9.87897e-16 0)
(2.32759e-20 -9.87896e-16 0)
(2.24896e-20 -9.87896e-16 0)
(2.1556e-20 -9.87896e-16 0)
(2.04864e-20 -9.87895e-16 0)
(1.92917e-20 -9.87895e-16 0)
(1.79832e-20 -9.87895e-16 0)
(1.65719e-20 -9.87894e-16 0)
(1.50683e-20 -9.87894e-16 0)
(1.34833e-20 -9.87894e-16 0)
(1.18269e-20 -9.87894e-16 0)
(1.01094e-20 -9.87893e-16 0)
(8.3405e-21 -9.87893e-16 0)
(6.52993e-21 -9.87893e-16 0)
(4.68713e-21 -9.87893e-16 0)
(2.82142e-21 -9.87893e-16 0)
(9.41992e-22 -9.87893e-16 0)
(-9.492e-22 -9.87892e-16 0)
(-2.84307e-21 -9.87892e-16 0)
(-4.72333e-21 -9.87892e-16 0)
(-6.58082e-21 -9.87892e-16 0)
(-8.40629e-21 -9.87892e-16 0)
(-1.01903e-20 -9.87893e-16 0)
(-1.19233e-20 -9.87893e-16 0)
(-1.35954e-20 -9.87893e-16 0)
(-1.51966e-20 -9.87893e-16 0)
(-1.67164e-20 -9.87894e-16 0)
(-1.81445e-20 -9.87894e-16 0)
(-1.94699e-20 -9.87894e-16 0)
(-2.06815e-20 -9.87895e-16 0)
(-2.17682e-20 -9.87895e-16 0)
(-2.27185e-20 -9.87896e-16 0)
(-2.35213e-20 -9.87896e-16 0)
(-2.41652e-20 -9.87897e-16 0)
(-2.46394e-20 -9.87897e-16 0)
(-2.49333e-20 -9.87898e-16 0)
(-2.50372e-20 -9.87899e-16 0)
(-2.49423e-20 -9.87899e-16 0)
(-2.46409e-20 -9.879e-16 0)
(-2.4127e-20 -9.87901e-16 0)
(-2.33966e-20 -9.87901e-16 0)
(-2.24477e-20 -9.87902e-16 0)
(-2.12813e-20 -9.87903e-16 0)
(-1.99009e-20 -9.87904e-16 0)
(-1.83135e-20 -9.87904e-16 0)
(-1.65295e-20 -9.87905e-16 0)
(-1.45628e-20 -9.87905e-16 0)
(-1.2431e-20 -9.87906e-16 0)
(-1.01549e-20 -9.87906e-16 0)
(-8.44599e-21 -9.87907e-16 0)
(-7.36114e-21 -9.87907e-16 0)
(-6.25879e-21 -9.87907e-16 0)
(-5.14148e-21 -9.87907e-16 0)
(-4.01184e-21 -9.87907e-16 0)
(-2.87254e-21 -9.87907e-16 0)
(-1.72631e-21 -9.87907e-16 0)
(-5.75901e-22 -9.87907e-16 0)
(5.75901e-22 -9.87907e-16 0)
(1.72631e-21 -9.87907e-16 0)
(2.87254e-21 -9.87907e-16 0)
(4.01184e-21 -9.87907e-16 0)
(5.14148e-21 -9.87907e-16 0)
(6.25879e-21 -9.87907e-16 0)
(7.36114e-21 -9.87907e-16 0)
(8.44599e-21 -9.87907e-16 0)
(1.01549e-20 -9.87906e-16 0)
(1.2431e-20 -9.87906e-16 0)
(1.45628e-20 -9.87905e-16 0)
(1.65295e-20 -9.87905e-16 0)
(1.83135e-20 -9.87904e-16 0)
(1.99009e-20 -9.87904e-16 0)
(2.12813e-20 -9.87903e-16 0)
(2.24477e-20 -9.87902e-16 0)
(2.33966e-20 -9.87901e-16 0)
(2.4127e-20 -9.87901e-16 0)
(2.46409e-20 -9.879e-16 0)
(2.49423e-20 -9.87899e-16 0)
(2.50372e-20 -9.87899e-16 0)
(2.49333e-20 -9.87898e-16 0)
(2.46394e-20 -9.87897e-16 0)
(2.41652e-20 -9.87897e-16 0)
(2.35213e-20 -9.87896e-16 0)
(2.27185e-20 -9.87896e-16 0)
(2.17682e-20 -9.87895e-16 0)
(2.06815e-20 -9.87895e-16 0)
(1.94699e-20 -9.87894e-16 0)
(1.81445e-20 -9.87894e-16 0)
(1.67164e-20 -9.87894e-16 0)
(1.51966e-20 -9.87893e-16 0)
(1.35954e-20 -9.87893e-16 0)
(1.19233e-20 -9.87893e-16 0)
(1.01903e-20 -9.87893e-16 0)
(8.40629e-21 -9.87892e-16 0)
(6.58082e-21 -9.87892e-16 0)
(4.72333e-21 -9.87892e-16 0)
(2.84307e-21 -9.87892e-16 0)
(9.492e-22 -9.87892e-16 0)
(-9.58351e-22 -9.87891e-16 0)
(-2.87056e-21 -9.87891e-16 0)
(-4.76929e-21 -9.87891e-16 0)
(-6.64544e-21 -9.87891e-16 0)
(-8.48984e-21 -9.87891e-16 0)
(-1.02931e-20 -9.87892e-16 0)
(-1.20457e-20 -9.87892e-16 0)
(-1.37379e-20 -9.87892e-16 0)
(-1.53595e-20 -9.87892e-16 0)
(-1.69003e-20 -9.87893e-16 0)
(-1.83496e-20 -9.87893e-16 0)
(-1.96965e-20 -9.87894e-16 0)
(-2.09299e-20 -9.87894e-16 0)
(-2.20383e-20 -9.87895e-16 0)
(-2.30102e-20 -9.87895e-16 0)
(-2.38341e-20 -9.87896e-16 0)
(-2.44985e-20 -9.87896e-16 0)
(-2.49919e-20 -9.87897e-16 0)
(-2.53035e-20 -9.87898e-16 0)
(-2.5423e-20 -9.87899e-16 0)
(-2.53411e-20 -9.87899e-16 0)
(-2.50495e-20 -9.879e-16 0)
(-2.45417e-20 -9.87901e-16 0)
(-2.3813e-20 -9.87902e-16 0)
(-2.28608e-20 -9.87903e-16 0)
(-2.16855e-20 -9.87904e-16 0)
(-2.02903e-20 -9.87904e-16 0)
(-1.86819e-20 -9.87905e-16 0)
(-1.68704e-20 -9.87906e-16 0)
(-1.487e-20 -9.87906e-16 0)
(-1.26983e-20 -9.87907e-16 0)
(-1.03768e-20 -9.87908e-16 0)
(-8.63251e-21 -9.87908e-16 0)
(-7.52452e-21 -9.87908e-16 0)
(-6.39831e-21 -9.87908e-16 0)
(-5.25651e-21 -9.87908e-16 0)
(-4.10186e-21 -9.87908e-16 0)
(-2.93714e-21 -9.87908e-16 0)
(-1.76519e-21 -9.87908e-16 0)
(-5.8888e-22 -9.87908e-16 0)
(5.8888e-22 -9.87908e-16 0)
(1.76519e-21 -9.87908e-16 0)
(2.93714e-21 -9.87908e-16 0)
(4.10186e-21 -9.87908e-16 0)
(5.25651e-21 -9.87908e-16 0)
(6.39831e-21 -9.87908e-16 0)
(7.52452e-21 -9.87908e-16 0)
(8.63251e-21 -9.87908e-16 0)
(1.03768e-20 -9.87908e-16 0)
(1.26983e-20 -9.87907e-16 0)
(1.487e-20 -9.87906e-16 0)
(1.68704e-20 -9.87906e-16 0)
(1.86819e-20 -9.87905e-16 0)
(2.02903e-20 -9.87904e-16 0)
(2.16855e-20 -9.87904e-16 0)
(2.28608e-20 -9.87903e-16 0)
(2.3813e-20 -9.87902e-16 0)
(2.45417e-20 -9.87901e-16 0)
(2.50495e-20 -9.879e-16 0)
(2.53411e-20 -9.87899e-16 0)
(2.5423e-20 -9.87899e-16 0)
(2.53035e-20 -9.87898e-16 0)
(2.49919e-20 -9.87897e-16 0)
(2.44985e-20 -9.87896e-16 0)
(2.38341e-20 -9.87896e-16 0)
(2.30102e-20 -9.87895e-16 0)
(2.20383e-20 -9.87895e-16 0)
(2.09299e-20 -9.87894e-16 0)
(1.96965e-20 -9.87894e-16 0)
(1.83496e-20 -9.87893e-16 0)
(1.69003e-20 -9.87893e-16 0)
(1.53595e-20 -9.87892e-16 0)
(1.37379e-20 -9.87892e-16 0)
(1.20457e-20 -9.87892e-16 0)
(1.02931e-20 -9.87892e-16 0)
(8.48984e-21 -9.87891e-16 0)
(6.64544e-21 -9.87891e-16 0)
(4.76929e-21 -9.87891e-16 0)
(2.87056e-21 -9.87891e-16 0)
(9.58351e-22 -9.87891e-16 0)
(-9.69874e-22 -9.8789e-16 0)
(-2.90518e-21 -9.8789e-16 0)
(-4.82716e-21 -9.8789e-16 0)
(-6.72683e-21 -9.8789e-16 0)
(-8.59509e-21 -9.8789e-16 0)
(-1.04227e-20 -9.87891e-16 0)
(-1.22001e-20 -9.87891e-16 0)
(-1.39175e-20 -9.87891e-16 0)
(-1.5565e-20 -9.87891e-16 0)
(-1.71322e-20 -9.87892e-16 0)
(-1.86084e-20 -9.87892e-16 0)
(-1.99827e-20 -9.87893e-16 0)
(-2.12436e-20 -9.87893e-16 0)
(-2.23797e-20 -9.87894e-16 0)
(-2.33792e-20 -9.87895e-16 0)
(-2.42301e-20 -9.87895e-16 0)
(-2.49205e-20 -9.87896e-16 0)
(-2.54387e-20 -9.87897e-16 0)
(-2.57731e-20 -9.87898e-16 0)
(-2.59128e-20 -9.87899e-16 0)
(-2.58479e-20 -9.87899e-16 0)
(-2.55693e-20 -9.879e-16 0)
(-2.50697e-20 -9.87901e-16 0)
(-2.43436e-20 -9.87902e-16 0)
(-2.33877e-20 -9.87903e-16 0)
(-2.22016e-20 -9.87904e-16 0)
(-2.0788e-20 -9.87905e-16 0)
(-1.91531e-20 -9.87906e-16 0)
(-1.73069e-20 -9.87907e-16 0)
(-1.52635e-20 -9.87908e-16 0)
(-1.3041e-20 -9.87908e-16 0)
(-1.06615e-20 -9.87909e-16 0)
(-8.87189e-21 -9.87909e-16 0)
(-7.73425e-21 -9.87909e-16 0)
(-6.57743e-21 -9.8791e-16 0)
(-5.40422e-21 -9.8791e-16 0)
(-4.21747e-21 -9.8791e-16 0)
(-3.0201e-21 -9.8791e-16 0)
(-1.81512e-21 -9.8791e-16 0)
(-6.05551e-22 -9.8791e-16 0)
(6.05551e-22 -9.8791e-16 0)
(1.81512e-21 -9.8791e-16 0)
(3.0201e-21 -9.8791e-16 0)
(4.21747e-21 -9.8791e-16 0)