/*--------------------------------*- C++ -*----------------------------------*\
  =========                 |
  \\      /  F ield         | OpenFOAM: The Open Source CFD Toolbox
   \\    /   O peration     | Website:  https://openfoam.org
    \\  /    A nd           | Version:  10
     \\/     M anipulation  |
\*---------------------------------------------------------------------------*/
FoamFile
{
    format      ascii;
    class       volScalarField;
    location    "10000";
    object      p;
}
// * * * * * * * * * * * * * * * * * * * * * * * * * * * * * * * * * * * * * //

dimensions      [1 -1 -2 0 0 0 0];

internalField   nonuniform List<scalar> 
6400
(
111.422
111.434
111.459
111.495
111.545
111.607
111.682
111.771
111.874
111.991
112.124
112.274
112.44
112.626
112.831
113.059
113.311
113.59
113.901
114.246
114.633
115.07
115.569
116.147
116.832
117.648
120.417
479.563
905.798
1273.79
1607.22
1927.16
2161.33
2302.8
2438.79
2565.62
2678.51
2771.33
2837.68
2872.3
2872.3
2837.68
2771.33
2678.51
2565.62
2438.79
2302.8
2161.33
1927.16
1607.22
1273.79
905.798
479.563
120.417
117.648
116.832
116.147
115.569
115.07
114.633
114.246
113.901
113.59
113.311
113.059
112.831
112.626
112.44
112.274
112.124
111.991
111.874
111.771
111.682
111.607
111.545
111.495
111.459
111.434
111.422
111.128
111.14
111.164
111.201
111.25
111.312
111.387
111.476
111.579
111.696
111.829
111.979
112.145
112.331
112.536
112.764
113.016
113.295
113.605
113.95
114.337
114.773
115.271
115.849
116.533
117.373
118.816
181.83
614.187
981.205
1313.74
1632.92
1867.89
2010.02
2146.86
2274.79
2389.09
2483.38
2550.93
2586.21
2586.21
2550.93
2483.38
2389.09
2274.79
2146.86
2010.02
1867.89
1632.92
1313.74
981.205
614.187
181.83
118.816
117.373
116.533
115.849
115.271
114.773
114.337
113.95
113.605
113.295
113.016
112.764
112.536
112.331
112.145
111.979
111.829
111.696
111.579
111.476
111.387
111.312
111.25
111.201
111.164
111.14
111.128
110.804
110.816
110.84
110.877
110.926
110.988
111.064
111.152
111.255
111.372
111.505
111.655
111.821
112.006
112.212
112.439
112.691
112.97
113.279
113.624
114.01
114.445
114.941
115.515
116.196
117.039
118.328
119.716
299.864
662.001
992.416
1309.76
1546.64
1690.3
1829.12
1959.58
2077.24
2175.03
2245.45
2282.31
2282.31
2245.45
2175.03
2077.24
1959.58
1829.12
1690.3
1546.64
1309.76
992.416
662.001
299.864
119.716
118.328
117.039
116.196
115.515
114.941
114.445
114.01
113.624
113.279
112.97
112.691
112.439
112.212
112.006
111.821
111.655
111.505
111.372
111.255
111.152
111.064
110.988
110.926
110.877
110.84
110.816
110.804
110.448
110.46
110.485
110.521
110.57
110.632
110.708
110.796
110.899
111.016
111.149
111.298
111.464
111.649
111.854
112.081
112.332
112.611
112.919
113.263
113.647
114.081
114.574
115.143
115.816
116.646
117.797
118.933
119.234
315.663
640.652
954.488
1194.88
1341.21
1483.42
1618.23
1741.99
1846.19
1921.88
1961.58
1961.58
1921.88
1846.19
1741.99
1618.23
1483.42
1341.21
1194.88
954.488
640.652
315.663
119.234
118.933
117.797
116.646
115.816
115.143
114.574
114.081
113.647
113.263
112.919
112.611
112.332
112.081
111.854
111.649
111.464
111.298
111.149
111.016
110.899
110.796
110.708
110.632
110.57
110.521
110.485
110.46
110.448
110.057
110.069
110.093
110.13
110.179
110.241
110.316
110.405
110.507
110.624
110.757
110.905
111.071
111.256
111.46
111.687
111.937
112.215
112.522
112.864
113.246
113.677
114.165
114.728
115.388
116.19
117.216
118.189
118.546
118.816
257.047
563.087
809.577
959.961
1107.33
1248.5
1382.5
1497.43
1582.01
1626.39
1626.39
1582.01
1497.43
1382.5
1248.5
1107.33
959.961
809.577
563.087
257.047
118.816
118.546
118.189
117.216
116.19
115.388
114.728
114.165
113.677
113.246
112.864
112.522
112.215
111.937
111.687
111.46
111.256
111.071
110.905
110.757
110.624
110.507
110.405
110.316
110.241
110.179
110.13
110.093
110.069
110.057
109.627
109.639
109.663
109.7
109.749
109.811
109.885
109.974
110.076
110.193
110.325
110.473
110.639
110.823
111.027
111.252
111.502
111.777
112.083
112.423
112.802
113.228
113.71
114.263
114.905
115.669
116.583
117.429
117.849
118.163
118.599
129.63
387.419
543.492
698.205
847.018
998.147
1130.49
1229.72
1281.39
1281.39
1229.72
1130.49
998.147
847.018
698.205
543.492
387.419
129.63
118.599
118.163
117.849
117.429
116.583
115.669
114.905
114.263
113.71
113.228
112.802
112.423
112.083
111.777
111.502
111.252
111.027
110.823
110.639
110.473
110.325
110.193
110.076
109.974
109.885
109.811
109.749
109.7
109.663
109.639
109.627
109.154
109.166
109.19
109.227
109.275
109.337
109.412
109.5
109.602
109.718
109.85
109.998
110.162
110.346
110.548
110.773
111.021
111.295
111.598
111.935
112.31
112.73
113.204
113.743
114.363
115.082
115.897
116.642
117.095
117.448
117.875
118.501
118.402
132.2
257.811
408.222
590.075
749.451
873.258
935.551
935.551
873.258
749.451
590.075
408.222
257.811
132.2
118.402
118.501
117.875
117.448
117.095
116.642
115.897
115.082
114.363
113.743
113.204
112.73
112.31
111.935
111.598
111.295
111.021
110.773
110.548
110.346
110.162
109.998
109.85
109.718
109.602
109.5
109.412
109.337
109.275
109.227
109.19
109.166
109.154
108.633
108.645
108.669
108.706
108.754
108.816
108.89
108.978
109.079
109.195
109.326
109.473
109.637
109.819
110.021
110.244
110.49
110.762
111.062
111.394
111.764
112.177
112.64
113.162
113.755
114.425
115.153
115.817
116.281
116.655
117.056
117.509
117.507
117.5
117.377
118.4
190.835
368.304
532.202
606.792
606.792
532.202
368.304
190.835
118.4
117.377
117.5
117.507
117.509
117.056
116.655
116.281
115.817
115.153
114.425
113.755
113.162
112.64
112.177
111.764
111.394
111.062
110.762
110.49
110.244
110.021
109.819
109.637
109.473
109.326
109.195
109.079
108.978
108.89
108.816
108.754
108.706
108.669
108.645
108.633
108.061
108.073
108.097
108.133
108.181
108.242
108.316
108.403
108.504
108.62
108.75
108.896
109.059
109.239
109.439
109.66
109.904
110.172
110.468
110.796
111.159
111.562
112.011
112.514
113.076
113.696
114.348
114.945
115.402
115.78
116.149
116.494
116.533
116.527
116.477
116.429
116.36
129.674
265.353
334.94
334.94
265.353
129.674
116.36
116.429
116.477
116.527
116.533
116.494
116.149
115.78
115.402
114.945
114.348
113.696
113.076
112.514
112.011
111.562
111.159
110.796
110.468
110.172
109.904
109.66
109.439
109.239
109.059
108.896
108.75
108.62
108.504
108.403
108.316
108.242
108.181
108.133
108.097
108.073
108.061
107.43
107.442
107.466
107.502
107.55
107.611
107.684
107.771
107.871
107.985
108.114
108.259
108.421
108.6
108.797
109.015
109.256
109.52
109.812
110.133
110.487
110.879
111.312
111.792
112.32
112.89
113.475
114.013
114.454
114.823
115.158
115.435
115.495
115.503
115.487
115.46
115.428
115.965
151.62
185.007
185.007
151.62
115.965
115.428
115.46
115.487
115.503
115.495
115.435
115.158
114.823
114.454
114.013
113.475
112.89
112.32
111.792
111.312
110.879
110.487
110.133
109.812
109.52
109.256
109.015
108.797
108.6
108.421
108.259
108.114
107.985
107.871
107.771
107.684
107.611
107.55
107.502
107.466
107.442
107.43
106.736
106.748
106.771
106.807
106.855
106.915
106.988
107.073
107.173
107.286
107.414
107.557
107.717
107.893
108.088
108.303
108.54
108.799
109.084
109.398
109.742
110.12
110.535
110.989
111.481
112.002
112.527
113.015
113.43
113.781
114.085
114.318
114.388
114.409
114.412
114.405
114.397
114.455
125.67
139.603
139.603
125.67
114.455
114.397
114.405
114.412
114.409
114.388
114.318
114.085
113.781
113.43
113.015
112.527
112.002
111.481
110.989
110.535
110.12
109.742
109.398
109.084
108.799
108.54
108.303
108.088
107.893
107.717
107.557
107.414
107.286
107.173
107.073
106.988
106.915
106.855
106.807
106.771
106.748
106.736
105.971
105.983
106.006
106.041
106.089
106.148
106.22
106.305
106.403
106.515
106.641
106.783
106.94
107.114
107.306
107.516
107.748
108.001
108.279
108.583
108.915
109.277
109.672
110.098
110.553
111.027
111.499
111.939
112.324
112.652
112.926
113.131
113.205
113.234
113.248
113.251
113.247
113.238
117.248
124.682
124.682
117.248
113.238
113.247
113.251
113.248
113.234
113.205
113.131
112.926
112.652
112.324
111.939
111.499
111.027
110.553
110.098
109.672
109.277
108.915
108.583
108.279
108.001
107.748
107.516
107.306
107.114
106.94
106.783
106.641
106.515
106.403
106.305
106.22
106.148
106.089
106.041
106.006
105.983
105.971
105.128
105.14
105.163
105.198
105.245
105.303
105.374
105.458
105.555
105.665
105.789
105.928
106.082
106.253
106.44
106.646
106.872
107.118
107.387
107.68
107.998
108.343
108.714
109.111
109.529
109.958
110.382
110.778
111.13
111.431
111.679
111.862
111.937
111.969
111.988
111.996
111.995
111.984
112.965
117.597
117.597
112.965
111.984
111.995
111.996
111.988
111.969
111.937
111.862
111.679
111.431
111.13
110.778
110.382
109.958
109.529
109.111
108.714
108.343
107.998
107.68
107.387
107.118
106.872
106.646
106.44
106.253
106.082
105.928
105.789
105.665
105.555
105.458
105.374
105.303
105.245
105.198
105.163
105.14
105.128
104.2
104.211
104.234
104.268
104.314
104.372
104.441
104.524
104.619
104.727
104.848
104.984
105.135
105.302
105.484
105.685
105.903
106.141
106.399
106.679
106.982
107.307
107.654
108.02
108.401
108.788
109.167
109.522
109.84
110.113
110.337
110.502
110.575
110.607
110.629
110.64
110.641
110.634
110.631
113.97
113.97
110.631
110.634
110.641
110.64
110.629
110.607
110.575
110.502
110.337
110.113
109.84
109.522
109.167
108.788
108.401
108.02
107.654
107.307
106.982
106.679
106.399
106.141
105.903
105.685
105.484
105.302
105.135
104.984
104.848
104.727
104.619
104.524
104.441
104.372
104.314
104.268
104.234
104.211
104.2
103.175
103.187
103.209
103.242
103.287
103.344
103.412
103.493
103.586
103.691
103.81
103.942
104.089
104.25
104.427
104.621
104.831
105.059
105.306
105.571
105.856
106.16
106.481
106.817
107.162
107.509
107.846
108.162
108.447
108.692
108.892
109.041
109.11
109.141
109.163
109.175
109.178
109.173
109.163
111.904
111.904
109.163
109.173
109.178
109.175
109.163
109.141
109.11
109.041
108.892
108.692
108.447
108.162
107.846
107.509
107.162
106.817
106.481
106.16
105.856
105.571
105.306
105.059
104.831
104.621
104.427
104.25
104.089
103.942
103.81
103.691
103.586
103.493
103.412
103.344
103.287
103.242
103.209
103.187
103.175
102.046
102.057
102.078
102.111
102.155
102.21
102.277
102.355
102.445
102.548
102.663
102.791
102.933
103.088
103.259
103.444
103.645
103.862
104.095
104.345
104.611
104.892
105.187
105.492
105.802
106.111
106.409
106.689
106.941
107.159
107.337
107.47
107.533
107.563
107.583
107.595
107.598
107.593
107.583
110.201
110.201
107.583
107.593
107.598
107.595
107.583
107.563
107.533
107.47
107.337
107.159
106.941
106.689
106.409
106.111
105.802
105.492
105.187
104.892
104.611
104.345
104.095
103.862
103.645
103.444
103.259
103.088
102.933
102.791
102.663
102.548
102.445
102.355
102.277
102.21
102.155
102.111
102.078
102.057
102.046
100.72
100.73
100.752
100.783
100.826
100.879
100.943
101.019
101.106
101.205
101.315
101.438
101.574
101.722
101.884
102.06
102.25
102.453
102.671
102.902
103.147
103.403
103.669
103.942
104.216
104.487
104.748
104.991
105.211
105.4
105.555
105.673
105.728
105.755
105.773
105.784
105.787
105.782
105.771
108.393
108.393
105.771
105.782
105.787
105.784
105.773
105.755
105.728
105.673
105.555
105.4
105.211
104.991
104.748
104.487
104.216
103.942
103.669
103.403
103.147
102.902
102.671
102.453
102.25
102.06
101.884
101.722
101.574
101.438
101.315
101.205
101.106
101.019
100.943
100.879
100.826
100.783
100.752
100.73
100.72
99.2468
99.257
99.2772
99.3077
99.3485
99.3996
99.4613
99.5336
99.6168
99.711
99.8164
99.9333
100.062
100.202
100.355
100.519
100.696
100.885
101.086
101.298
101.52
101.751
101.989
102.23
102.471
102.707
102.932
103.142
103.331
103.494
103.628
103.73
103.778
103.801
103.816
103.825
103.827
103.822
103.811
106.481
106.481
103.811
103.822
103.827
103.825
103.816
103.801
103.778
103.73
103.628
103.494
103.331
103.142
102.932
102.707
102.471
102.23
101.989
101.751
101.52
101.298
101.086
100.885
100.696
100.519
100.355
100.202
100.062
99.9333
99.8164
99.711
99.6168
99.5336
99.4613
99.3996
99.3485
99.3077
99.2772
99.257
99.2468
97.7637
97.7734
97.7928
97.8219
97.8609
97.9098
97.9686
98.0376
98.1167
98.2062
98.3062
98.4167
98.538
98.67
98.8129
98.9666
99.1309
99.3055
99.49
99.6835
99.885
100.093
100.305
100.518
100.73
100.936
101.132
101.314
101.477
101.618
101.734
101.821
101.862
101.882
101.895
101.902
101.903
101.898
101.887
104.615
104.615
101.887
101.898
101.903
101.902
101.895
101.882
101.862
101.821
101.734
101.618
101.477
101.314
101.132
100.936
100.73
100.518
100.305
100.093
99.885
99.6835
99.49
99.3055
99.1309
98.9666
98.8129
98.67
98.538
98.4167
98.3062
98.2062
98.1167
98.0376
97.9686
97.9098
97.8609
97.8219
97.7928
97.7734
97.7637
96.2708
96.2801
96.2986
96.3264
96.3635
96.41
96.4659
96.5313
96.6063
96.691
96.7853
96.8895
97.0034
97.127
97.2603
97.4031
97.5551
97.7159
97.8849
98.0611
98.2434
98.4301
98.6194
98.8087
98.9953
99.1758
99.3467
99.5047
99.646
99.7678
99.8672
99.942
99.9772
99.9936
100.005
100.01
100.01
100.005
99.9944
102.791
102.791
99.9944
100.005
100.01
100.01
100.005
99.9936
99.9772
99.942
99.8672
99.7678
99.646
99.5047
99.3467
99.1758
98.9953
98.8087
98.6194
98.4301
98.2434
98.0611
97.8849
97.7159
97.5551
97.4031
97.2603
97.127
97.0034
96.8895
96.7853
96.691
96.6063
96.5313
96.4659
96.41
96.3635
96.3264
96.2986
96.2801
96.2708
94.7687
94.7775
94.7951
94.8214
94.8566
94.9007
94.9536
95.0155
95.0863
95.166
95.2548
95.3524
95.459
95.5743
95.6982
95.8304
95.9706
96.1182
96.2725
96.4326
96.5972
96.7649
96.9338
97.1018
97.2664
97.4248
97.5742
97.7117
97.8343
97.9396
98.0252
98.0893
98.1191
98.1327
98.1417
98.1459
98.1453
98.1398
98.1293
101.002
101.002
98.1293
98.1398
98.1453
98.1459
98.1417
98.1327
98.1191
98.0893
98.0252
97.9396
97.8343
97.7117
97.5742
97.4248
97.2664
97.1018
96.9338
96.7649
96.5972
96.4326
96.2725
96.1182
95.9706
95.8304
95.6982
95.5743
95.459
95.3524
95.2548
95.166
95.0863
95.0155
94.9536
94.9007
94.8566
94.8214
94.7951
94.7775
94.7687
93.2578
93.2661
93.2828
93.3077
93.3409
93.3825
93.4324
93.4907
93.5573
93.6321
93.7152
93.8065
93.9058
94.013
94.1277
94.2498
94.3787
94.5138
94.6544
94.7995
94.948
95.0985
95.2492
95.3984
95.5437
95.683
95.8137
95.9335
96.04
96.131
96.2047
96.2595
96.2845
96.2957
96.3029
96.3058
96.3045
96.299
96.2885
99.2476
99.2476
96.2885
96.299
96.3045
96.3058
96.3029
96.2957
96.2845
96.2595
96.2047
96.131
96.04
95.9335
95.8137
95.683
95.5437
95.3984
95.2492
95.0985
94.948
94.7995
94.6544
94.5138
94.3787
94.2498
94.1277
94.013
93.9058
93.8065
93.7152
93.6321
93.5573
93.4907
93.4324
93.3825
93.3409
93.3077
93.2828
93.2661
93.2578
91.7386
91.7465
91.7621
91.7856
91.8169
91.856
91.9029
91.9576
92.0199
92.09
92.1675
92.2525
92.3448
92.444
92.55
92.6624
92.7805
92.9039
93.0317
93.1631
93.2969
93.4318
93.5663
93.6986
93.8271
93.9496
94.0641
94.1686
94.2611
94.3398
94.4032
94.4497
94.4706
94.4798
94.4853
94.4872
94.4853
94.4797
94.4692
97.525
97.525
94.4692
94.4797
94.4853
94.4872
94.4853
94.4798
94.4706
94.4497
94.4032
94.3398
94.2611
94.1686
94.0641
93.9496
93.8271
93.6986
93.5663
93.4318
93.2969
93.1631
93.0317
92.9039
92.7805
92.6624
92.55
92.444
92.3448
92.2525
92.1675
92.09
92.0199
91.9576
91.9029
91.856
91.8169
91.7856
91.7621
91.7465
91.7386
90.2116
90.219
90.2337
90.2557
90.2851
90.3217
90.3657
90.4168
90.475
90.5403
90.6124
90.6913
90.7767
90.8684
90.966
91.0691
91.1771
91.2895
91.4055
91.5243
91.6446
91.7654
91.8854
92.0029
92.1164
92.2242
92.3245
92.4157
92.4961
92.564
92.6183
92.6578
92.675
92.6823
92.6865
92.6874
92.685
92.6792
92.6688
95.8329
95.8329
92.6688
92.6792
92.685
92.6874
92.6865
92.6823
92.675
92.6578
92.6183
92.564
92.4961
92.4157
92.3245
92.2242
92.1164
92.0029
91.8854
91.7654
91.6446
91.5243
91.4055
91.2895
91.1771
91.0691
90.966
90.8684
90.7767
90.6913
90.6124
90.5403
90.475
90.4168
90.3657
90.3217
90.2851
90.2557
90.2337
90.219
90.2116
88.6772
88.6841
88.6979
88.7185
88.746
88.7802
88.8212
88.8688
88.923
88.9836
89.0506
89.1236
89.2024
89.2868
89.3764
89.4708
89.5694
89.6716
89.7766
89.8838
89.9919
90.1
90.2069
90.3112
90.4114
90.5063
90.5942
90.6736
90.7433
90.8019
90.8483
90.8816
90.8955
90.9013
90.9042
90.9042
90.9013
90.8955
90.8851
94.1706
94.1706
90.8851
90.8955
90.9013
90.9042
90.9042
90.9013
90.8955
90.8816
90.8483
90.8019
90.7433
90.6736
90.5942
90.5063
90.4114
90.3112
90.2069
90.1
89.9919
89.8838
89.7766
89.6716
89.5694
89.4708
89.3764
89.2868
89.2024
89.1236
89.0506
88.9836
88.923
88.8688
88.8212
88.7802
88.746
88.7185
88.6979
88.6841
88.6772
87.136
87.1424
87.1553
87.1745
87.2001
87.2319
87.2701
87.3143
87.3646
87.4207
87.4826
87.55
87.6226
87.7001
87.7821
87.8683
87.958
88.0507
88.1457
88.2422
88.3392
88.4359
88.531
88.6234
88.7119
88.7953
88.8722
88.9414
89.0017
89.0521
89.0915
89.1192
89.1303
89.1347
89.1365
89.1357
89.1324
89.1265
89.1162
92.5381
92.5381
89.1162
89.1265
89.1324
89.1357
89.1365
89.1347
89.1303
89.1192
89.0915
89.0521
89.0017
88.9414
88.8722
88.7953
88.7119
88.6234
88.531
88.4359
88.3392
88.2422
88.1457
88.0507
87.958
87.8683
87.7821
87.7001
87.6226
87.55
87.4826
87.4207
87.3646
87.3143
87.2701
87.2319
87.2001
87.1745
87.1553
87.1424
87.136
85.5883
85.5943
85.6062
85.6241
85.6479
85.6775
85.7128
85.7538
85.8003
85.8521
85.9092
85.9711
86.0378
86.1088
86.1837
86.2622
86.3437
86.4276
86.5133
86.6001
86.687
86.7732
86.8577
86.9396
87.0176
87.0907
87.1579
87.218
87.27
87.3131
87.3464
87.3692
87.3778
87.3809
87.3817
87.3802
87.3765
87.3705
87.3602
90.9361
90.9361
87.3602
87.3705
87.3765
87.3802
87.3817
87.3809
87.3778
87.3692
87.3464
87.3131
87.27
87.218
87.1579
87.0907
87.0176
86.9396
86.8577
86.7732
86.687
86.6001
86.5133
86.4276
86.3437
86.2622
86.1837
86.1088
86.0378
85.9711
85.9092
85.8521
85.8003
85.7538
85.7128
85.6775
85.6479
85.6241
85.6062
85.5943
85.5883
84.0346
84.0402
84.0512
84.0678
84.0898
84.1172
84.1499
84.1877
84.2306
84.2784
84.3308
84.3877
84.4487
84.5135
84.5818
84.6531
84.7269
84.8028
84.8799
84.9577
85.0354
85.1122
85.1872
85.2595
85.3281
85.3922
85.4506
85.5026
85.5473
85.5839
85.6117
85.6302
85.6365
85.6384
85.6384
85.6363
85.6322
85.6261
85.6158
89.3664
89.3664
85.6158
85.6261
85.6322
85.6363
85.6384
85.6384
85.6365
85.6302
85.6117
85.5839
85.5473
85.5026
85.4506
85.3922
85.3281
85.2595
85.1872
85.1122
85.0354
84.9577
84.8799
84.8028
84.7269
84.6531
84.5818
84.5135
84.4487
84.3877
84.3308
84.2784
84.2306
84.1877
84.1499
84.1172
84.0898
84.0678
84.0512
84.0402
84.0346
82.4754
82.4805
82.4908
82.5061
82.5264
82.5517
82.5818
82.6167
82.6561
82.6999
82.748
82.8
82.8557
82.9148
82.9768
83.0415
83.1082
83.1765
83.2458
83.3155
83.3848
83.453
83.5194
83.5831
83.6433
83.6992
83.7499
83.7946
83.8327
83.8635
83.8864
83.901
83.9052
83.9061
83.9052
83.9025
83.898
83.8918
83.8816
87.8316
87.8316
83.8816
83.8918
83.898
83.9025
83.9052
83.9061
83.9052
83.901
83.8864
83.8635
83.8327
83.7946
83.7499
83.6992
83.6433
83.5831
83.5194
83.453
83.3848
83.3155
83.2458
83.1765
83.1082
83.0415
82.9768
82.9148
82.8557
82.8
82.748
82.6999
82.6561
82.6167
82.5818
82.5517
82.5264
82.5061
82.4908
82.4805
82.4754
80.9111
80.9158
80.9252
80.9393
80.9581
80.9813
81.009
81.041
81.0771
81.1173
81.1612
81.2087
81.2594
81.3131
81.3693
81.4277
81.4879
81.5493
81.6114
81.6736
81.7353
81.7957
81.8543
81.9102
81.9628
82.0113
82.055
82.0933
82.1254
82.151
82.1694
82.1804
82.1828
82.1826
82.181
82.1777
82.1729
82.1665
82.1564
86.3361
86.3361
82.1564
82.1665
82.1729
82.1777
82.181
82.1826
82.1828
82.1804
82.1694
82.151
82.1254
82.0933
82.055
82.0113
81.9628
81.9102
81.8543
81.7957
81.7353
81.6736
81.6114
81.5493
81.4879
81.4277
81.3693
81.3131
81.2594
81.2087
81.1612
81.1173
81.0771
81.041
81.009
80.9813
80.9581
80.9393
80.9252
80.9158
80.9111
79.342
79.3464
79.355
79.368
79.3852
79.4065
79.4319
79.4612
79.4942
79.5309
79.5709
79.6141
79.6601
79.7088
79.7596
79.8123
79.8664
79.9214
79.9769
80.0322
80.0869
80.1403
80.1918
80.2407
80.2864
80.3282
80.3656
80.398
80.4248
80.4456
80.4599
80.4676
80.4682
80.4671
80.4647
80.4609
80.4557
80.4491
80.4391
84.886
84.886
80.4391
80.4491
80.4557
80.4609
80.4647
80.4671
80.4682
80.4676
80.4599
80.4456
80.4248
80.398
80.3656
80.3282
80.2864
80.2407
80.1918
80.1403
80.0869
80.0322
79.9769
79.9214
79.8664
79.8123
79.7596
79.7088
79.6601
79.6141
79.5709
79.5309
79.4942
79.4612
79.4319
79.4065
79.3852
79.368
79.355
79.3464
79.342
77.7686
77.7726
77.7805
77.7924
77.8081
77.8276
77.8508
77.8776
77.9077
77.9411
77.9774
78.0166
78.0583
78.1022
78.1481
78.1954
78.2439
78.2931
78.3425
78.3916
78.4399
78.4868
78.5318
78.5744
78.6138
78.6496
78.6813
78.7083
78.7302
78.7465
78.7571
78.7617
78.7606
78.7586
78.7555
78.7511
78.7455
78.7387
78.7288
83.4898
83.4898
78.7288
78.7387
78.7455
78.7511
78.7555
78.7586
78.7606
78.7617
78.7571
78.7465
78.7302
78.7083
78.6813
78.6496
78.6138
78.5744
78.5318
78.4868
78.4399
78.3916
78.3425
78.2931
78.2439
78.1954
78.1481
78.1022
78.0583
78.0166
77.9774
77.9411
77.9077
77.8776
77.8508
77.8276
77.8081
77.7924
77.7805
77.7726
77.7686
76.1912
76.1949
76.2021
76.213
76.2273
76.2451
76.2662
76.2905
76.3179
76.3482
76.3812
76.4166
76.4543
76.4938
76.535
76.5774
76.6207
76.6645
76.7083
76.7517
76.7942
76.8352
76.8744
76.9111
76.9449
76.9752
77.0016
77.0237
77.041
77.0533
77.0604
77.062
77.0591
77.0563
77.0524
77.0475
77.0414
77.0344
77.0245
82.1617
82.1617
77.0245
77.0344
77.0414
77.0475
77.0524
77.0563
77.0591
77.062
77.0604
77.0533
77.041
77.0237
77.0016
76.9752
76.9449
76.9111
76.8744
76.8352
76.7942
76.7517
76.7083
76.6645
76.6207
76.5774
76.535
76.4938
76.4543
76.4166
76.3812
76.3482
76.3179
76.2905
76.2662
76.2451
76.2273
76.213
76.2021
76.1949
76.1912
74.6102
74.6135
74.6201
74.63
74.6431
74.6592
74.6784
74.7005
74.7253
74.7527
74.7825
74.8144
74.8483
74.8838
74.9207
74.9585
74.9971
75.0359
75.0746
75.1127
75.1499
75.1856
75.2194
75.2508
75.2794
75.3047
75.3263
75.3438
75.3569
75.3654
75.369
75.3677
75.3632
75.3595
75.3548
75.3492
75.3426
75.3352
75.3254
80.9222
80.9222
75.3254
75.3352
75.3426
75.3492
75.3548
75.3595
75.3632
75.3677
75.369
75.3654
75.3569
75.3438
75.3263
75.3047
75.2794
75.2508
75.2194
75.1856
75.1499
75.1127
75.0746
75.0359
74.9971
74.9585
74.9207
74.8838
74.8483
74.8144
74.7825
74.7527
74.7253
74.7005
74.6784
74.6592
74.6431
74.63
74.6201
74.6135
74.6102
73.0259
73.0289
73.0349
73.0438
73.0557
73.0703
73.0877
73.1077
73.1301
73.1548
73.1816
73.2103
73.2407
73.2724
73.3053
73.339
73.3731
73.4074
73.4414
73.4748
73.507
73.5379
73.5668
73.5933
73.6171
73.6378
73.655
73.6683
73.6775
73.6823
73.6826
73.6784
73.6721
73.6674
73.6618
73.6555
73.6483
73.6404
73.6307
79.8031
79.8031
73.6307
73.6404
73.6483
73.6555
73.6618
73.6674
73.6721
73.6784
73.6826
73.6823
73.6775
73.6683
73.655
73.6378
73.6171
73.5933
73.5668
73.5379
73.507
73.4748
73.4414
73.4074
73.3731
73.339
73.3053
73.2724
73.2407
73.2103
73.1816
73.1548
73.1301
73.1077
73.0877
73.0703
73.0557
73.0438
73.0349
73.0289
73.0259
71.4385
71.4413
71.4467
71.4548
71.4655
71.4787
71.4944
71.5124
71.5326
71.5548
71.5788
71.6045
71.6317
71.66
71.6892
71.719
71.7491
71.7792
71.8089
71.8379
71.8657
71.892
71.9165
71.9386
71.9581
71.9745
71.9876
71.9969
72.0024
72.0037
72.0007
71.9935
71.9854
71.9795
71.973
71.9657
71.9578
71.9493
71.9395
78.858
78.858
71.9395
71.9493
71.9578
71.9657
71.973
71.9795
71.9854
71.9935
72.0007
72.0037
72.0024
71.9969
71.9876
71.9745
71.9581
71.9386
71.9165
71.892
71.8657
71.8379
71.8089
71.7792
71.7491
71.719
71.6892
71.66
71.6317
71.6045
71.5788
71.5548
71.5326
71.5124
71.4944
71.4787
71.4655
71.4548
71.4467
71.4413
71.4385
69.8485
69.8509
69.8558
69.8631
69.8728
69.8847
69.8988
69.9149
69.9331
69.9529
69.9744
69.9974
70.0215
70.0466
70.0724
70.0987
70.1251
70.1513
70.1771
70.2021
70.2258
70.2481
70.2684
70.2865
70.302
70.3146
70.3238
70.3295
70.3314
70.3293
70.3231
70.3128
70.3025
70.2955
70.2877
70.2793
70.2704
70.2609
70.2511
78.1808
78.1808
70.2511
70.2609
70.2704
70.2793
70.2877
70.2955
70.3025
70.3128
70.3231
70.3293
70.3314
70.3295
70.3238
70.3146
70.302
70.2865
70.2684
70.2481
70.2258
70.2021
70.1771
70.1513
70.1251
70.0987
70.0724
70.0466
70.0215
69.9974
69.9744
69.9529
69.9331
69.9149
69.8988
69.8847
69.8728
69.8631
69.8558
69.8509
69.8485
68.256
68.2582
68.2626
68.2691
68.2778
68.2885
68.3011
68.3156
68.3317
68.3495
68.3686
68.389
68.4103
68.4325
68.4552
68.4782
68.5012
68.524
68.5462
68.5675
68.5875
68.6061
68.6227
68.6371
68.6489
68.6579
68.6636
68.6659
68.6645
68.6591
68.6496
68.6361
68.6234
68.6148
68.6056
68.5958
68.5855
68.5748
68.5648
77.9401
77.9401
68.5648
68.5748
68.5855
68.5958
68.6056
68.6148
68.6234
68.6361
68.6496
68.6591
68.6645
68.6659
68.6636
68.6579
68.6489
68.6371
68.6227
68.6061
68.5875
68.5675
68.5462
68.524
68.5012
68.4782
68.4552
68.4325
68.4103
68.389
68.3686
68.3495
68.3317
68.3156
68.3011
68.2885
68.2778
68.2691
68.2626
68.2582
68.256
66.6612
66.6632
66.6671
66.673
66.6808
66.6903
66.7016
66.7145
66.7289
66.7446
66.7616
66.7795
66.7984
66.8178
66.8377
66.8577
66.8776
66.8972
66.9161
66.9341
66.9508
66.9659
66.9792
66.9902
66.9987
67.0044
67.0069
67.006
67.0015
66.9929
66.9802
66.9633
66.9479
66.9376
66.9266
66.9149
66.9026
66.8899
66.8794
78.3596
78.3596
66.8794
66.8899
66.9026
66.9149
66.9266
66.9376
66.9479
66.9633
66.9802
66.9929
67.0015
67.006
67.0069
67.0044
66.9987
66.9902
66.9792
66.9659
66.9508
66.9341
66.9161
66.8972
66.8776
66.8577
66.8377
66.8178
66.7984
66.7795
66.7616
66.7446
66.7289
66.7145
66.7016
66.6903
66.6808
66.673
66.6671
66.6632
66.6612
65.0645
65.0663
65.0698
65.075
65.0819
65.0904
65.1004
65.1119
65.1246
65.1385
65.1535
65.1693
65.1858
65.2028
65.22
65.2373
65.2544
65.2711
65.287
65.3019
65.3156
65.3277
65.3378
65.3458
65.3514
65.3541
65.3537
65.3499
65.3424
65.3309
65.3152
65.2948
65.2766
65.2644
65.251
65.2367
65.2213
65.2054
65.1933
78.4639
78.4639
65.1933
65.2054
65.2213
65.2367
65.251
65.2644
65.2766
65.2948
65.3152
65.3309
65.3424
65.3499
65.3537
65.3541
65.3514
65.3458
65.3378
65.3277
65.3156
65.3019
65.287
65.2711
65.2544
65.2373
65.22
65.2028
65.1858
65.1693
65.1535
65.1385
65.1246
65.1119
65.1004
65.0904
65.0819
65.075
65.0698
65.0663
65.0645
63.4661
63.4676
63.4707
63.4754
63.4815
63.489
63.4979
63.508
63.5192
63.5314
63.5445
63.5584
63.5727
63.5874
63.6023
63.6171
63.6317
63.6457
63.6589
63.6711
63.682
63.6913
63.6987
63.704
63.7068
63.7068
63.7038
63.6974
63.6873
63.6731
63.6546
63.6313
63.6105
63.5964
63.5808
63.5634
63.5434
63.5194
63.4967
64.7671
64.7671
63.4967
63.5194
63.5434
63.5634
63.5808
63.5964
63.6105
63.6313
63.6546
63.6731
63.6873
63.6974
63.7038
63.7068
63.7068
63.704
63.6987
63.6913
63.682
63.6711
63.6589
63.6457
63.6317
63.6171
63.6023
63.5874
63.5727
63.5584
63.5445
63.5314
63.5192
63.508
63.4979
63.489
63.4815
63.4754
63.4707
63.4676
63.4661
61.8662
61.8676
61.8704
61.8745
61.8799
61.8865
61.8943
61.9032
61.913
61.9237
61.9351
61.9471
61.9595
61.9722
61.9849
61.9974
62.0096
62.0213
62.0321
62.0418
62.0502
62.057
62.062
62.0648
62.0652
62.0629
62.0576
62.0489
62.0365
62.0201
61.9992
61.9735
61.9512
61.9363
61.9204
61.9034
61.8857
61.8677
61.8503
62.9991
62.9991
61.8503
61.8677
61.8857
61.9034
61.9204
61.9363
61.9512
61.9735
61.9992
62.0201
62.0365
62.0489
62.0576
62.0629
62.0652
62.0648
62.062
62.057
62.0502
62.0418
62.0321
62.0213
62.0096
61.9974
61.9849
61.9722
61.9595
61.9471
61.9351
61.9237
61.913
61.9032
61.8943
61.8865
61.8799
61.8745
61.8704
61.8676
61.8662
60.265
60.2663
60.2687
60.2723
60.277
60.2828
60.2896
60.2974
60.3059
60.3152
60.3251
60.3354
60.3461
60.3569
60.3676
60.3781
60.3882
60.3977
60.4063
60.4138
60.42
60.4247
60.4274
60.4281
60.4264
60.4221
60.4147
60.404
60.3897
60.3714
60.3486
60.321
60.2973
60.2817
60.2651
60.2476
60.2293
60.2106
60.1913
61.3205
61.3205
60.1913
60.2106
60.2293
60.2476
60.2651
60.2817
60.2973
60.321
60.3486
60.3714
60.3897
60.404
60.4147
60.4221
60.4264
60.4281
60.4274
60.4247
60.42
60.4138
60.4063
60.3977
60.3882
60.3781
60.3676
60.3569
60.3461
60.3354
60.3251
60.3152
60.3059
60.2974
60.2896
60.2828
60.277
60.2723
60.2687
60.2663
60.265
58.6626
58.6637
58.6658
58.6689
58.6731
58.6781
58.684
58.6908
58.6982
58.7062
58.7147
58.7235
58.7325
58.7416
58.7506
58.7592
58.7674
58.775
58.7816
58.7872
58.7914
58.7941
58.795
58.7938
58.7903
58.7842
58.7751
58.7629
58.747
58.7272
58.7029
58.6737
58.6487
58.6321
58.6145
58.5956
58.5756
58.5545
58.5321
59.6051
59.6051
58.5321
58.5545
58.5756
58.5956
58.6145
58.6321
58.6487
58.6737
58.7029
58.7272
58.747
58.7629
58.7751
58.7842
58.7903
58.7938
58.795
58.7941
58.7914
58.7872
58.7816
58.775
58.7674
58.7592
58.7506
58.7416
58.7325
58.7235
58.7147
58.7062
58.6982
58.6908
58.684
58.6781
58.6731
58.6689
58.6658
58.6637
58.6626
57.0591
57.0601
57.0619
57.0646
57.0682
57.0726
57.0777
57.0835
57.0898
57.0966
57.1039
57.1113
57.1189
57.1264
57.1338
57.1408
57.1473
57.1531
57.1581
57.1619
57.1644
57.1653
57.1646
57.1618
57.1567
57.1492
57.1388
57.1253
57.1083
57.0874
57.0621
57.0318
57.0057
56.9884
56.9697
56.9494
56.9274
56.9036
56.8772
57.7537
57.7537
56.8772
56.9036
56.9274
56.9494
56.9697
56.9884
57.0057
57.0318
57.0621
57.0874
57.1083
57.1253
57.1388
57.1492
57.1567
57.1618
57.1646
57.1653
57.1644
57.1619
57.1581
57.1531
57.1473
57.1408
57.1338
57.1264
57.1189
57.1113
57.1039
57.0966
57.0898
57.0835
57.0777
57.0726
57.0682
57.0646
57.0619
57.0601
57.0591
55.4547
55.4555
55.4571
55.4595
55.4625
55.4663
55.4706
55.4756
55.481
55.4867
55.4928
55.499
55.5053
55.5115
55.5174
55.5229
55.5279
55.5322
55.5356
55.5379
55.5389
55.5384
55.5362
55.532
55.5257
55.517
55.5056
55.4912
55.4734
55.452
55.4262
55.3957
55.3694
55.3518
55.3327
55.3119
55.2889
55.2633
55.2339
55.5869
55.5869
55.2339
55.2633
55.2889
55.3119
55.3327
55.3518
55.3694
55.3957
55.4262
55.452
55.4734
55.4912
55.5056
55.517
55.5257
55.532
55.5362
55.5384
55.5389
55.5379
55.5356
55.5322
55.5279
55.5229
55.5174
55.5115
55.5053
55.499
55.4928
55.4867
55.481
55.4756
55.4706
55.4663
55.4625
55.4595
55.4571
55.4555
55.4547
53.8495
53.8502
53.8516
53.8536
53.8562
53.8594
53.8631
53.8672
53.8717
53.8766
53.8816
53.8867
53.8918
53.8967
53.9014
53.9056
53.9092
53.9122
53.9142
53.9151
53.9148
53.9131
53.9097
53.9044
53.8971
53.8875
53.8754
53.8604
53.8424
53.8208
53.7953
53.7653
53.7399
53.723
53.7048
53.6851
53.6636