/*--------------------------------*- C++ -*----------------------------------*\
  =========                 |
  \\      /  F ield         | OpenFOAM: The Open Source CFD Toolbox
   \\    /   O peration     | Website:  https://openfoam.org
    \\  /    A nd           | Version:  10
     \\/     M anipulation  |
\*---------------------------------------------------------------------------*/
FoamFile
{
    format      ascii;
    class       volVectorField;
    location    "4750";
    object      Ub;
}
// * * * * * * * * * * * * * * * * * * * * * * * * * * * * * * * * * * * * * //

dimensions      [0 1 -1 0 0 0 0];

internalField   nonuniform List<vector> 
3200
(
(-1.8005e-21 -9.87896e-16 0)
(-5.36105e-21 -9.87896e-16 0)
(-8.8333e-21 -9.87896e-16 0)
(-1.22029e-20 -9.87896e-16 0)
(-1.54565e-20 -9.87896e-16 0)
(-1.85811e-20 -9.87896e-16 0)
(-2.15645e-20 -9.87896e-16 0)
(-2.43942e-20 -9.87896e-16 0)
(-2.70583e-20 -9.87896e-16 0)
(-2.95444e-20 -9.87897e-16 0)
(-3.18403e-20 -9.87897e-16 0)
(-3.39336e-20 -9.87897e-16 0)
(-3.58118e-20 -9.87897e-16 0)
(-3.74623e-20 -9.87897e-16 0)
(-3.88724e-20 -9.87897e-16 0)
(-4.00296e-20 -9.87898e-16 0)
(-4.09215e-20 -9.87898e-16 0)
(-4.15362e-20 -9.87898e-16 0)
(-4.18623e-20 -9.87898e-16 0)
(-4.18892e-20 -9.87899e-16 0)
(-4.16074e-20 -9.87899e-16 0)
(-4.1009e-20 -9.87899e-16 0)
(-4.00877e-20 -9.879e-16 0)
(-3.88397e-20 -9.879e-16 0)
(-3.72634e-20 -9.87901e-16 0)
(-3.53607e-20 -9.87901e-16 0)
(-3.31368e-20 -9.87901e-16 0)
(-3.06005e-20 -9.87902e-16 0)
(-2.77649e-20 -9.87902e-16 0)
(-2.46476e-20 -9.87903e-16 0)
(-2.12703e-20 -9.87903e-16 0)
(-1.76591e-20 -9.87903e-16 0)
(-1.38443e-20 -9.87904e-16 0)
(-9.85939e-21 -9.87904e-16 0)
(-5.74129e-21 -9.87904e-16 0)
(-1.5288e-21 -9.87904e-16 0)
(2.73802e-21 -9.87904e-16 0)
(7.01893e-21 -9.87905e-16 0)
(1.12746e-20 -9.87905e-16 0)
(1.54675e-20 -9.87905e-16 0)
(-1.81918e-21 -9.87891e-16 0)
(-5.41715e-21 -9.87891e-16 0)
(-8.9273e-21 -9.87891e-16 0)
(-1.2336e-20 -9.87891e-16 0)
(-1.56304e-20 -9.87891e-16 0)
(-1.87984e-20 -9.87891e-16 0)
(-2.18279e-20 -9.87891e-16 0)
(-2.47074e-20 -9.87892e-16 0)
(-2.7425e-20 -9.87892e-16 0)
(-2.99691e-20 -9.87892e-16 0)
(-3.23277e-20 -9.87893e-16 0)
(-3.44887e-20 -9.87893e-16 0)
(-3.64398e-20 -9.87894e-16 0)
(-3.81686e-20 -9.87894e-16 0)
(-3.96623e-20 -9.87895e-16 0)
(-4.09084e-20 -9.87896e-16 0)
(-4.1894e-20 -9.87896e-16 0)
(-4.26066e-20 -9.87897e-16 0)
(-4.30339e-20 -9.87898e-16 0)
(-4.3164e-20 -9.87899e-16 0)
(-4.29859e-20 -9.879e-16 0)
(-4.24895e-20 -9.87901e-16 0)
(-4.16661e-20 -9.87902e-16 0)
(-4.05089e-20 -9.87903e-16 0)
(-3.9013e-20 -9.87904e-16 0)
(-3.71765e-20 -9.87905e-16 0)
(-3.50004e-20 -9.87907e-16 0)
(-3.24896e-20 -9.87908e-16 0)
(-2.96531e-20 -9.87909e-16 0)
(-2.65045e-20 -9.8791e-16 0)
(-2.30625e-20 -9.87912e-16 0)
(-1.93509e-20 -9.87913e-16 0)
(-1.5399e-20 -9.87914e-16 0)
(-1.12409e-20 -9.87915e-16 0)
(-6.91533e-21 -9.87915e-16 0)
(-2.46481e-21 -9.87916e-16 0)
(2.06534e-21 -9.87916e-16 0)
(6.62838e-21 -9.87917e-16 0)
(1.11775e-20 -9.87917e-16 0)
(1.56674e-20 -9.87917e-16 0)
(-1.8557e-21 -9.87885e-16 0)
(-5.52685e-21 -9.87885e-16 0)
(-9.11113e-21 -9.87886e-16 0)
(-1.25963e-20 -9.87886e-16 0)
(-1.59708e-20 -9.87886e-16 0)
(-1.92235e-20 -9.87886e-16 0)
(-2.23437e-20 -9.87887e-16 0)
(-2.53207e-20 -9.87887e-16 0)
(-2.81436e-20 -9.87888e-16 0)
(-3.08018e-20 -9.87888e-16 0)
(-3.32839e-20 -9.87889e-16 0)
(-3.55787e-20 -9.87889e-16 0)
(-3.76743e-20 -9.8789e-16 0)
(-3.95586e-20 -9.87891e-16 0)
(-4.12192e-20 -9.87892e-16 0)
(-4.26432e-20 -9.87893e-16 0)
(-4.38173e-20 -9.87894e-16 0)
(-4.47281e-20 -9.87896e-16 0)
(-4.53617e-20 -9.87897e-16 0)
(-4.57043e-20 -9.87899e-16 0)
(-4.57419e-20 -9.879e-16 0)
(-4.54608e-20 -9.87902e-16 0)
(-4.48476e-20 -9.87904e-16 0)
(-4.38897e-20 -9.87906e-16 0)
(-4.25757e-20 -9.87908e-16 0)
(-4.08958e-20 -9.8791e-16 0)
(-3.88425e-20 -9.87912e-16 0)
(-3.64114e-20 -9.87914e-16 0)
(-3.3602e-20 -9.87916e-16 0)
(-3.04187e-20 -9.87918e-16 0)
(-2.68717e-20 -9.87921e-16 0)
(-2.2978e-20 -9.87923e-16 0)
(-1.87623e-20 -9.87924e-16 0)
(-1.42573e-20 -9.87926e-16 0)
(-9.50416e-21 -9.87928e-16 0)
(-4.552e-21 -9.87929e-16 0)
(5.43149e-22 -9.8793e-16 0)
(5.71992e-21 -9.8793e-16 0)
(1.09139e-20 -9.87931e-16 0)
(1.60604e-20 -9.87931e-16 0)
(-1.90842e-21 -9.8788e-16 0)
(-5.68522e-21 -9.8788e-16 0)
(-9.37658e-21 -9.8788e-16 0)
(-1.29722e-20 -9.8788e-16 0)
(-1.64625e-20 -9.87881e-16 0)
(-1.9838e-20 -9.87881e-16 0)
(-2.30897e-20 -9.87882e-16 0)
(-2.62083e-20 -9.87882e-16 0)
(-2.91846e-20 -9.87883e-16 0)
(-3.20091e-20 -9.87884e-16 0)
(-3.4672e-20 -9.87884e-16 0)
(-3.7163e-20 -9.87885e-16 0)
(-3.94713e-20 -9.87887e-16 0)
(-4.15858e-20 -9.87888e-16 0)
(-4.34945e-20 -9.87889e-16 0)
(-4.51847e-20 -9.87891e-16 0)
(-4.66432e-20 -9.87892e-16 0)
(-4.78557e-20 -9.87894e-16 0)
(-4.88072e-20 -9.87896e-16 0)
(-4.94815e-20 -9.87898e-16 0)
(-4.98615e-20 -9.879e-16 0)
(-4.99291e-20 -9.87903e-16 0)
(-4.9665e-20 -9.87905e-16 0)
(-4.90491e-20 -9.87908e-16 0)
(-4.80605e-20 -9.87911e-16 0)
(-4.66779e-20 -9.87914e-16 0)
(-4.48802e-20 -9.87917e-16 0)
(-4.26474e-20 -9.8792e-16 0)
(-3.99617e-20 -9.87923e-16 0)
(-3.68092e-20 -9.87927e-16 0)
(-3.31815e-20 -9.8793e-16 0)
(-2.90783e-20 -9.87933e-16 0)
(-2.45097e-20 -9.87936e-16 0)
(-1.94985e-20 -9.87939e-16 0)
(-1.40827e-20 -9.87941e-16 0)
(-8.31669e-21 -9.87944e-16 0)
(-2.27167e-21 -9.87945e-16 0)
(3.96589e-21 -9.87946e-16 0)
(1.02974e-20 -9.87947e-16 0)
(1.66175e-20 -9.87947e-16 0)
(-1.97494e-21 -9.87874e-16 0)
(-5.88503e-21 -9.87874e-16 0)
(-9.71157e-21 -9.87875e-16 0)
(-1.34469e-20 -9.87875e-16 0)
(-1.70836e-20 -9.87875e-16 0)
(-2.06147e-20 -9.87876e-16 0)
(-2.40332e-20 -9.87876e-16 0)
(-2.7332e-20 -9.87877e-16 0)
(-3.05038e-20 -9.87878e-16 0)
(-3.35411e-20 -9.87879e-16 0)
(-3.64357e-20 -9.8788e-16 0)
(-3.91793e-20 -9.87881e-16 0)
(-4.17628e-20 -9.87882e-16 0)
(-4.41765e-20 -9.87884e-16 0)
(-4.64098e-20 -9.87885e-16 0)
(-4.84513e-20 -9.87887e-16 0)
(-5.02883e-20 -9.87889e-16 0)
(-5.19072e-20 -9.87891e-16 0)
(-5.32924e-20 -9.87894e-16 0)
(-5.44271e-20 -9.87896e-16 0)
(-5.52919e-20 -9.87899e-16 0)
(-5.58655e-20 -9.87902e-16 0)
(-5.61233e-20 -9.87905e-16 0)
(-5.60381e-20 -9.87909e-16 0)
(-5.55786e-20 -9.87913e-16 0)
(-5.47102e-20 -9.87917e-16 0)
(-5.33944e-20 -9.87921e-16 0)
(-5.15891e-20 -9.87925e-16 0)
(-4.925e-20 -9.8793e-16 0)
(-4.63313e-20 -9.87935e-16 0)
(-4.27891e-20 -9.87939e-16 0)
(-3.85845e-20 -9.87944e-16 0)
(-3.36887e-20 -9.87949e-16 0)
(-2.80894e-20 -9.87953e-16 0)
(-2.17978e-20 -9.87958e-16 0)
(-1.48559e-20 -9.87961e-16 0)
(-7.34312e-21 -9.87964e-16 0)
(6.20566e-22 -9.87967e-16 0)
(8.87559e-21 -9.87968e-16 0)
(1.7231e-20 -9.87968e-16 0)
(-2.05215e-21 -9.87869e-16 0)
(-6.11702e-21 -9.87869e-16 0)
(-1.01006e-20 -9.87869e-16 0)
(-1.39983e-20 -9.87869e-16 0)
(-1.78057e-20 -9.8787e-16 0)
(-2.15184e-20 -9.8787e-16 0)
(-2.5132e-20 -9.87871e-16 0)
(-2.86419e-20 -9.87872e-16 0)
(-3.20434e-20 -9.87872e-16 0)
(-3.53313e-20 -9.87874e-16 0)
(-3.85001e-20 -9.87875e-16 0)
(-4.15437e-20 -9.87876e-16 0)
(-4.44555e-20 -9.87878e-16 0)
(-4.72282e-20 -9.87879e-16 0)
(-4.98536e-20 -9.87881e-16 0)
(-5.23226e-20 -9.87883e-16 0)
(-5.46249e-20 -9.87885e-16 0)
(-5.67489e-20 -9.87888e-16 0)
(-5.86812e-20 -9.87891e-16 0)
(-6.04064e-20 -9.87894e-16 0)
(-6.19063e-20 -9.87897e-16 0)
(-6.31596e-20 -9.87901e-16 0)
(-6.41408e-20 -9.87904e-16 0)
(-6.48194e-20 -9.87909e-16 0)
(-6.51583e-20 -9.87913e-16 0)
(-6.51128e-20 -9.87918e-16 0)
(-6.46291e-20 -9.87923e-16 0)
(-6.36421e-20 -9.87929e-16 0)
(-6.20751e-20 -9.87935e-16 0)
(-5.98384e-20 -9.87942e-16 0)
(-5.68304e-20 -9.87948e-16 0)
(-5.29398e-20 -9.87955e-16 0)
(-4.80521e-20 -9.87963e-16 0)
(-4.20589e-20 -9.8797e-16 0)
(-3.48733e-20 -9.87977e-16 0)
(-2.64516e-20 -9.87983e-16 0)
(-1.68187e-20 -9.87989e-16 0)
(-6.0969e-21 -9.87994e-16 0)
(5.47164e-21 -9.87997e-16 0)
(1.75179e-20 -9.87998e-16 0)
(-2.1364e-21 -9.87862e-16 0)
(-6.37019e-21 -9.87863e-16 0)
(-1.05254e-20 -9.87863e-16 0)
(-1.46007e-20 -9.87863e-16 0)
(-1.8595e-20 -9.87864e-16 0)
(-2.25069e-20 -9.87864e-16 0)
(-2.63351e-20 -9.87865e-16 0)
(-3.00778e-20 -9.87866e-16 0)
(-3.37333e-20 -9.87867e-16 0)
(-3.72992e-20 -9.87868e-16 0)
(-4.0773e-20 -9.87869e-16 0)
(-4.41517e-20 -9.8787e-16 0)
(-4.74317e-20 -9.87872e-16 0)
(-5.06091e-20 -9.87874e-16 0)
(-5.3679e-20 -9.87876e-16 0)
(-5.66361e-20 -9.87878e-16 0)
(-5.9474e-20 -9.87881e-16 0)
(-6.21853e-20 -9.87883e-16 0)
(-6.47615e-20 -9.87886e-16 0)
(-6.71922e-20 -9.8789e-16 0)
(-6.94651e-20 -9.87893e-16 0)
(-7.15649e-20 -9.87897e-16 0)
(-7.34727e-20 -9.87902e-16 0)
(-7.51645e-20 -9.87906e-16 0)
(-7.66092e-20 -9.87912e-16 0)
(-7.7766e-20 -9.87917e-16 0)
(-7.8581e-20 -9.87924e-16 0)
(-7.89826e-20 -9.8793e-16 0)
(-7.88757e-20 -9.87938e-16 0)
(-7.8135e-20 -9.87946e-16 0)
(-7.65971e-20 -9.87955e-16 0)
(-7.40533e-20 -9.87965e-16 0)
(-7.02443e-20 -9.87975e-16 0)
(-6.48608e-20 -9.87986e-16 0)
(-5.7555e-20 -9.87998e-16 0)
(-4.79714e-20 -9.8801e-16 0)
(-3.58073e-20 -9.88021e-16 0)
(-2.09135e-20 -9.88032e-16 0)
(-3.43895e-21 -9.8804e-16 0)
(1.59957e-20 -9.88045e-16 0)
(-2.22358e-21 -9.87856e-16 0)
(-6.63222e-21 -9.87856e-16 0)
(-1.09651e-20 -9.87857e-16 0)
(-1.52247e-20 -9.87857e-16 0)
(-1.94133e-20 -9.87857e-16 0)
(-2.35328e-20 -9.87858e-16 0)
(-2.7585e-20 -9.87859e-16 0)
(-3.15715e-20 -9.87859e-16 0)
(-3.54935e-20 -9.8786e-16 0)
(-3.93521e-20 -9.87862e-16 0)
(-4.3148e-20 -9.87863e-16 0)
(-4.68815e-20 -9.87864e-16 0)
(-5.05529e-20 -9.87866e-16 0)
(-5.4162e-20 -9.87868e-16 0)
(-5.77081e-20 -9.8787e-16 0)
(-6.11905e-20 -9.87872e-16 0)
(-6.46079e-20 -9.87875e-16 0)
(-6.79589e-20 -9.87878e-16 0)
(-7.12417e-20 -9.87881e-16 0)
(-7.44543e-20 -9.87884e-16 0)
(-7.75944e-20 -9.87888e-16 0)
(-8.06591e-20 -9.87892e-16 0)
(-8.3645e-20 -9.87897e-16 0)
(-8.65473e-20 -9.87902e-16 0)
(-8.93585e-20 -9.87907e-16 0)
(-9.2067e-20 -9.87913e-16 0)
(-9.46531e-20 -9.8792e-16 0)
(-9.70837e-20 -9.87927e-16 0)
(-9.93038e-20 -9.87936e-16 0)
(-1.01222e-19 -9.87945e-16 0)
(-1.02692e-19 -9.87956e-16 0)
(-1.03482e-19 -9.87968e-16 0)
(-1.03232e-19 -9.87982e-16 0)
(-1.01406e-19 -9.87998e-16 0)
(-9.72199e-20 -9.88016e-16 0)
(-8.95865e-20 -9.88037e-16 0)
(-7.70781e-20 -9.88061e-16 0)
(-5.8e-20 -9.88086e-16 0)
(-3.07125e-20 -9.88112e-16 0)
(5.49984e-21 -9.88133e-16 0)
(-2.30933e-21 -9.8785e-16 0)
(-6.89004e-21 -9.8785e-16 0)
(-1.1398e-20 -9.8785e-16 0)
(-1.58395e-20 -9.8785e-16 0)
(-2.02201e-20 -9.87851e-16 0)
(-2.45454e-20 -9.87851e-16 0)
(-2.88202e-20 -9.87852e-16 0)
(-3.30496e-20 -9.87853e-16 0)
(-3.72379e-20 -9.87854e-16 0)
(-4.13897e-20 -9.87855e-16 0)
(-4.55092e-20 -9.87856e-16 0)
(-4.96002e-20 -9.87857e-16 0)
(-5.36668e-20 -9.87859e-16 0)
(-5.77127e-20 -9.87861e-16 0)
(-6.17418e-20 -9.87863e-16 0)
(-6.57578e-20 -9.87865e-16 0)
(-6.9765e-20 -9.87868e-16 0)
(-7.37677e-20 -9.8787e-16 0)
(-7.77714e-20 -9.87873e-16 0)
(-8.17825e-20 -9.87877e-16 0)
(-8.58096e-20 -9.8788e-16 0)
(-8.98639e-20 -9.87885e-16 0)
(-9.39606e-20 -9.87889e-16 0)
(-9.81205e-20 -9.87894e-16 0)
(-1.02372e-19 -9.87899e-16 0)
(-1.06752e-19 -9.87905e-16 0)
(-1.1131e-19 -9.87912e-16 0)
(-1.16111e-19 -9.87919e-16 0)
(-1.21232e-19 -9.87927e-16 0)
(-1.26765e-19 -9.87936e-16 0)
(-1.32806e-19 -9.87947e-16 0)
(-1.39429e-19 -9.87959e-16 0)
(-1.46639e-19 -9.87974e-16 0)
(-1.5427e-19 -9.87992e-16 0)
(-1.61783e-19 -9.88014e-16 0)
(-1.6789e-19 -9.88044e-16 0)
(-1.69853e-19 -9.88083e-16 0)
(-1.62198e-19 -9.88138e-16 0)
(-1.34403e-19 -9.88215e-16 0)
(-6.67521e-20 -1.00452e-15 0)
(-2.38923e-21 -9.87843e-16 0)
(-7.13034e-21 -9.87843e-16 0)
(-1.18018e-20 -9.87843e-16 0)
(-1.64134e-20 -9.87843e-16 0)
(-2.09742e-20 -9.87844e-16 0)
(-2.54929e-20 -9.87844e-16 0)
(-2.99778e-20 -9.87845e-16 0)
(-3.4437e-20 -9.87846e-16 0)
(-3.88783e-20 -9.87847e-16 0)
(-4.33092e-20 -9.87848e-16 0)
(-4.77375e-20 -9.87849e-16 0)
(-5.21706e-20 -9.8785e-16 0)
(-5.66161e-20 -9.87851e-16 0)
(-6.10816e-20 -9.87853e-16 0)
(-6.55747e-20 -9.87855e-16 0)
(-7.01033e-20 -9.87857e-16 0)
(-7.46758e-20 -9.87859e-16 0)
(-7.93012e-20 -9.87862e-16 0)
(-8.39895e-20 -9.87865e-16 0)
(-8.87523e-20 -9.87868e-16 0)
(-9.36038e-20 -9.87871e-16 0)
(-9.85626e-20 -9.87875e-16 0)
(-1.03653e-19 -9.87879e-16 0)
(-1.08908e-19 -9.87884e-16 0)
(-1.14376e-19 -9.87888e-16 0)
(-1.20125e-19 -9.87894e-16 0)
(-1.26253e-19 -9.87899e-16 0)
(-1.32906e-19 -9.87905e-16 0)
(-1.40295e-19 -9.87911e-16 0)
(-1.48737e-19 -9.87918e-16 0)
(-1.58705e-19 -9.87926e-16 0)
(-1.70916e-19 -9.87933e-16 0)
(-1.86467e-19 -9.87942e-16 0)
(-2.07071e-19 -9.87951e-16 0)
(-2.35436e-19 -9.87961e-16 0)
(-2.75916e-19 -9.87973e-16 0)
(-3.35626e-19 -9.87987e-16 0)
(-4.26339e-19 -9.88005e-16 0)
(-5.78485e-19 -9.88029e-16 0)
(-2.18232e-08 -2.60439e-12 0)
(-2.459e-21 -9.87836e-16 0)
(-7.34024e-21 -9.87836e-16 0)
(-1.21548e-20 -9.87836e-16 0)
(-1.69157e-20 -9.87836e-16 0)
(-2.16352e-20 -9.87837e-16 0)
(-2.63251e-20 -9.87837e-16 0)
(-3.09966e-20 -9.87838e-16 0)
(-3.56607e-20 -9.87838e-16 0)
(-4.03283e-20 -9.87839e-16 0)
(-4.50101e-20 -9.8784e-16 0)
(-4.97169e-20 -9.87841e-16 0)
(-5.44594e-20 -9.87842e-16 0)
(-5.92485e-20 -9.87843e-16 0)
(-6.40951e-20 -9.87845e-16 0)
(-6.90102e-20 -9.87846e-16 0)
(-7.4005e-20 -9.87848e-16 0)
(-7.90906e-20 -9.8785e-16 0)
(-8.42785e-20 -9.87852e-16 0)
(-8.95801e-20 -9.87855e-16 0)
(-9.50072e-20 -9.87857e-16 0)
(-1.00572e-19 -9.8786e-16 0)
(-1.06288e-19 -9.87864e-16 0)
(-1.12171e-19 -9.87867e-16 0)
(-1.18239e-19 -9.87871e-16 0)
(-1.24515e-19 -9.87875e-16 0)
(-1.31032e-19 -9.87879e-16 0)
(-1.37837e-19 -9.87884e-16 0)
(-1.44995e-19 -9.87888e-16 0)
(-1.52602e-19 -9.87893e-16 0)
(-1.60798e-19 -9.87897e-16 0)
(-1.69774e-19 -9.87901e-16 0)
(-1.79798e-19 -9.87903e-16 0)
(-1.91209e-19 -9.87904e-16 0)
(-2.04417e-19 -9.87902e-16 0)
(-2.19837e-19 -9.87895e-16 0)
(-2.37729e-19 -9.87883e-16 0)
(-2.57837e-19 -9.8786e-16 0)
(-2.78638e-19 -9.87823e-16 0)
(-8.23044e-16 -9.87764e-16 0)
(-2.01567e-06 -1.73392e-10 0)
(-2.51468e-21 -9.87829e-16 0)
(-7.5079e-21 -9.87829e-16 0)
(-1.24371e-20 -9.87829e-16 0)
(-1.73182e-20 -9.87829e-16 0)
(-2.21662e-20 -9.87829e-16 0)
(-2.69955e-20 -9.8783e-16 0)
(-3.18199e-20 -9.8783e-16 0)
(-3.6653e-20 -9.8783e-16 0)
(-4.15084e-20 -9.87831e-16 0)
(-4.63994e-20 -9.87832e-16 0)
(-5.13398e-20 -9.87832e-16 0)
(-5.6343e-20 -9.87833e-16 0)
(-6.14231e-20 -9.87834e-16 0)
(-6.6594e-20 -9.87835e-16 0)
(-7.18699e-20 -9.87837e-16 0)
(-7.72646e-20 -9.87838e-16 0)
(-8.27921e-20 -9.8784e-16 0)
(-8.84654e-20 -9.87842e-16 0)
(-9.42967e-20 -9.87843e-16 0)
(-1.00296e-19 -9.87846e-16 0)
(-1.06472e-19 -9.87848e-16 0)
(-1.12827e-19 -9.87851e-16 0)
(-1.19361e-19 -9.87854e-16 0)
(-1.26063e-19 -9.87857e-16 0)
(-1.32914e-19 -9.8786e-16 0)
(-1.3988e-19 -9.87864e-16 0)
(-1.46906e-19 -9.87868e-16 0)
(-1.53915e-19 -9.87872e-16 0)
(-1.60793e-19 -9.87875e-16 0)
(-1.67382e-19 -9.87879e-16 0)
(-1.73464e-19 -9.87882e-16 0)
(-1.78743e-19 -9.87884e-16 0)
(-1.82812e-19 -9.87884e-16 0)
(-1.85115e-19 -9.87882e-16 0)
(-1.84892e-19 -9.87876e-16 0)
(-1.81095e-19 -9.87865e-16 0)
(-1.72287e-19 -9.87847e-16 0)
(-1.5652e-19 -9.87822e-16 0)
(-2.20127e-14 -9.87788e-16 0)
(-9.53231e-07 -5.67871e-10 0)
(-2.55287e-21 -9.87821e-16 0)
(-7.62307e-21 -9.87821e-16 0)
(-1.26316e-20 -9.87821e-16 0)
(-1.75966e-20 -9.87822e-16 0)
(-2.25352e-20 -9.87822e-16 0)
(-2.7464e-20 -9.87822e-16 0)
(-3.23988e-20 -9.87822e-16 0)
(-3.73552e-20 -9.87822e-16 0)
(-4.2349e-20 -9.87823e-16 0)
(-4.73959e-20 -9.87823e-16 0)
(-5.25118e-20 -9.87824e-16 0)
(-5.7713e-20 -9.87824e-16 0)
(-6.3016e-20 -9.87825e-16 0)
(-6.84377e-20 -9.87826e-16 0)
(-7.39956e-20 -9.87827e-16 0)
(-7.97069e-20 -9.87828e-16 0)
(-8.55891e-20 -9.87829e-16 0)
(-9.16587e-20 -9.8783e-16 0)
(-9.79314e-20 -9.87831e-16 0)
(-1.0442e-19 -9.87833e-16 0)
(-1.11135e-19 -9.87835e-16 0)
(-1.18078e-19 -9.87837e-16 0)
(-1.25246e-19 -9.87839e-16 0)
(-1.32617e-19 -9.87841e-16 0)
(-1.40154e-19 -9.87844e-16 0)
(-1.4779e-19 -9.87847e-16 0)
(-1.5542e-19 -9.87851e-16 0)
(-1.62883e-19 -9.87855e-16 0)
(-1.69946e-19 -9.87859e-16 0)
(-1.76281e-19 -9.87864e-16 0)
(-1.81433e-19 -9.87869e-16 0)
(-1.84792e-19 -9.87875e-16 0)
(-1.8557e-19 -9.87881e-16 0)
(-1.82776e-19 -9.87886e-16 0)
(-1.75237e-19 -9.87891e-16 0)
(-1.6165e-19 -9.87895e-16 0)
(-1.40733e-19 -9.87898e-16 0)
(-1.11483e-19 -9.87896e-16 0)
(-2.37327e-14 -9.87893e-16 0)
(-1.14312e-07 -8.08571e-10 0)
(-2.57089e-21 -9.87814e-16 0)
(-7.67767e-21 -9.87814e-16 0)
(-1.27246e-20 -9.87814e-16 0)
(-1.77315e-20 -9.87814e-16 0)
(-2.2717e-20 -9.87814e-16 0)
(-2.76988e-20 -9.87814e-16 0)
(-3.26943e-20 -9.87814e-16 0)
(-3.77206e-20 -9.87814e-16 0)
(-4.27949e-20 -9.87814e-16 0)
(-4.79344e-20 -9.87815e-16 0)
(-5.31569e-20 -9.87815e-16 0)
(-5.84805e-20 -9.87815e-16 0)
(-6.39241e-20 -9.87815e-16 0)
(-6.95073e-20 -9.87816e-16 0)
(-7.52505e-20 -9.87816e-16 0)
(-8.11752e-20 -9.87816e-16 0)
(-8.73033e-20 -9.87817e-16 0)
(-9.36578e-20 -9.87818e-16 0)
(-1.00262e-19 -9.87818e-16 0)
(-1.07138e-19 -9.87819e-16 0)
(-1.14309e-19 -9.8782e-16 0)
(-1.21795e-19 -9.87821e-16 0)
(-1.29611e-19 -9.87823e-16 0)
(-1.37764e-19 -9.87824e-16 0)
(-1.46252e-19 -9.87826e-16 0)
(-1.55052e-19 -9.87829e-16 0)
(-1.64112e-19 -9.87832e-16 0)
(-1.73335e-19 -9.87836e-16 0)
(-1.82562e-19 -9.8784e-16 0)
(-1.91531e-19 -9.87846e-16 0)
(-1.99839e-19 -9.87854e-16 0)
(-2.06877e-19 -9.87864e-16 0)
(-2.11741e-19 -9.87877e-16 0)
(-2.13131e-19 -9.87893e-16 0)
(-2.09222e-19 -9.87914e-16 0)
(-1.97566e-19 -9.8794e-16 0)
(-1.75086e-19 -9.87971e-16 0)
(-1.38356e-19 -9.88006e-16 0)
(-2.49051e-14 -9.88044e-16 0)
(-1.65089e-14 -9.87692e-10 0)
(-2.56689e-21 -9.87807e-16 0)
(-7.66616e-21 -9.87806e-16 0)
(-1.2707e-20 -9.87806e-16 0)
(-1.77099e-20 -9.87806e-16 0)
(-2.26941e-20 -9.87806e-16 0)
(-2.76781e-20 -9.87806e-16 0)
(-3.26798e-20 -9.87806e-16 0)
(-3.77171e-20 -9.87806e-16 0)
(-4.28077e-20 -9.87806e-16 0)
(-4.79697e-20 -9.87806e-16 0)
(-5.32214e-20 -9.87806e-16 0)
(-5.85822e-20 -9.87805e-16 0)
(-6.40722e-20 -9.87805e-16 0)
(-6.97128e-20 -9.87805e-16 0)
(-7.55266e-20 -9.87805e-16 0)
(-8.15383e-20 -9.87805e-16 0)
(-8.77744e-20 -9.87805e-16 0)
(-9.4264e-20 -9.87805e-16 0)
(-1.01039e-19 -9.87805e-16 0)
(-1.08136e-19 -9.87805e-16 0)
(-1.15594e-19 -9.87805e-16 0)
(-1.2346e-19 -9.87805e-16 0)
(-1.31786e-19 -9.87805e-16 0)
(-1.40634e-19 -9.87805e-16 0)
(-1.50074e-19 -9.87806e-16 0)
(-1.60193e-19 -9.87807e-16 0)
(-1.71092e-19 -9.87808e-16 0)
(-1.82892e-19 -9.8781e-16 0)
(-1.95733e-19 -9.87814e-16 0)
(-2.09771e-19 -9.87818e-16 0)
(-2.25159e-19 -9.87825e-16 0)
(-2.42002e-19 -9.87834e-16 0)
(-2.60253e-19 -9.87848e-16 0)
(-2.79488e-19 -9.87869e-16 0)
(-2.98468e-19 -9.87899e-16 0)
(-3.14249e-19 -9.87944e-16 0)
(-3.20515e-19 -9.88011e-16 0)
(-3.04415e-19 -9.88112e-16 0)
(-1.28065e-13 -1.05396e-15 0)
(-1.24849e-13 -7.30051e-06 0)
(-2.53996e-21 -9.87799e-16 0)
(-7.58582e-21 -9.87799e-16 0)
(-1.25741e-20 -9.87799e-16 0)
(-1.75252e-20 -9.87799e-16 0)
(-2.24582e-20 -9.87799e-16 0)
(-2.73916e-20 -9.87798e-16 0)
(-3.2343e-20 -9.87798e-16 0)
(-3.73299e-20 -9.87798e-16 0)
(-4.23699e-20 -9.87797e-16 0)
(-4.74805e-20 -9.87797e-16 0)
(-5.26801e-20 -9.87797e-16 0)
(-5.79875e-20 -9.87796e-16 0)
(-6.34226e-20 -9.87795e-16 0)
(-6.90067e-20 -9.87795e-16 0)
(-7.47626e-20 -9.87794e-16 0)
(-8.07157e-20 -9.87793e-16 0)
(-8.68937e-20 -9.87793e-16 0)
(-9.33285e-20 -9.87792e-16 0)
(-1.00056e-19 -9.87791e-16 0)
(-1.07119e-19 -9.8779e-16 0)
(-1.14569e-19 -9.87789e-16 0)
(-1.22466e-19 -9.87788e-16 0)
(-1.30887e-19 -9.87787e-16 0)
(-1.39929e-19 -9.87785e-16 0)
(-1.49719e-19 -9.87784e-16 0)
(-1.60423e-19 -9.87782e-16 0)
(-1.7227e-19 -9.87781e-16 0)
(-1.85576e-19 -9.8778e-16 0)
(-2.00793e-19 -9.87778e-16 0)
(-2.18579e-19 -9.87777e-16 0)
(-2.39924e-19 -9.87776e-16 0)
(-2.66343e-19 -9.87775e-16 0)
(-3.00222e-19 -9.87775e-16 0)
(-3.45395e-19 -9.87776e-16 0)
(-4.08147e-19 -9.87778e-16 0)
(-4.98954e-19 -9.87781e-16 0)
(-6.35506e-19 -9.87786e-16 0)
(-9.13046e-19 -9.87794e-16 0)
(-5.68647e-08 -2.96749e-10 0)
(-5.41908e-08 -0.000147849 0)
(-2.49016e-21 -9.87792e-16 0)
(-7.43683e-21 -9.87792e-16 0)
(-1.23263e-20 -9.87792e-16 0)
(-1.71781e-20 -9.87791e-16 0)
(-2.20105e-20 -9.87791e-16 0)
(-2.68408e-20 -9.87791e-16 0)
(-3.16859e-20 -9.8779e-16 0)
(-3.6562e-20 -9.8779e-16 0)
(-4.14854e-20 -9.87789e-16 0)
(-4.64724e-20 -9.87788e-16 0)
(-5.15396e-20 -9.87788e-16 0)
(-5.67039e-20 -9.87787e-16 0)
(-6.19834e-20 -9.87786e-16 0)
(-6.73969e-20 -9.87785e-16 0)
(-7.29646e-20 -9.87784e-16 0)
(-7.87086e-20 -9.87782e-16 0)
(-8.46535e-20 -9.87781e-16 0)
(-9.08267e-20 -9.87779e-16 0)
(-9.72599e-20 -9.87778e-16 0)
(-1.0399e-19 -9.87776e-16 0)
(-1.1106e-19 -9.87774e-16 0)
(-1.18522e-19 -9.87771e-16 0)
(-1.26442e-19 -9.87769e-16 0)
(-1.34896e-19 -9.87766e-16 0)
(-1.43984e-19 -9.87762e-16 0)
(-1.53829e-19 -9.87758e-16 0)
(-1.64586e-19 -9.87754e-16 0)
(-1.76448e-19 -9.87749e-16 0)
(-1.89652e-19 -9.87742e-16 0)
(-2.04483e-19 -9.87735e-16 0)
(-2.21261e-19 -9.87725e-16 0)
(-2.40309e-19 -9.87713e-16 0)
(-2.61858e-19 -9.87697e-16 0)
(-2.85845e-19 -9.87676e-16 0)
(-3.1149e-19 -9.87646e-16 0)
(-3.3645e-19 -9.87604e-16 0)
(-3.55195e-19 -9.87541e-16 0)
(-1.17276e-13 -9.87477e-16 0)
(-3.62817e-06 -1.30104e-08 0)
(-2.32345e-06 -0.000311711 0)
(-2.41845e-21 -9.87785e-16 0)
(-7.22215e-21 -9.87785e-16 0)
(-1.19687e-20 -9.87784e-16 0)
(-1.6676e-20 -9.87784e-16 0)
(-2.13609e-20 -9.87784e-16 0)
(-2.60389e-20 -9.87783e-16 0)
(-3.07252e-20 -9.87783e-16 0)
(-3.54342e-20 -9.87782e-16 0)
(-4.01801e-20 -9.87781e-16 0)
(-4.49769e-20 -9.8778e-16 0)
(-4.98384e-20 -9.87779e-16 0)
(-5.47787e-20 -9.87778e-16 0)
(-5.98118e-20 -9.87776e-16 0)
(-6.49525e-20 -9.87775e-16 0)
(-7.02157e-20 -9.87773e-16 0)
(-7.56173e-20 -9.87772e-16 0)
(-8.11741e-20 -9.8777e-16 0)
(-8.69038e-20 -9.87767e-16 0)
(-9.28259e-20 -9.87765e-16 0)
(-9.89613e-20 -9.87762e-16 0)
(-1.05333e-19 -9.87759e-16 0)
(-1.11966e-19 -9.87756e-16 0)
(-1.18888e-19 -9.87752e-16 0)
(-1.26127e-19 -9.87748e-16 0)
(-1.33713e-19 -9.87743e-16 0)
(-1.41673e-19 -9.87738e-16 0)
(-1.50028e-19 -9.87731e-16 0)
(-1.58781e-19 -9.87724e-16 0)
(-1.67909e-19 -9.87715e-16 0)
(-1.77337e-19 -9.87704e-16 0)
(-1.869e-19 -9.87692e-16 0)
(-1.96297e-19 -9.87676e-16 0)
(-2.05013e-19 -9.87658e-16 0)
(-2.12224e-19 -9.87635e-16 0)
(-2.16682e-19 -9.87608e-16 0)
(-2.1662e-19 -9.87575e-16 0)
(-2.09759e-19 -9.87538e-16 0)
(-3.15249e-12 -9.87709e-16 0)
(-2.58474e-06 -6.63513e-08 0)
(-1.69149e-06 -0.000356503 0)
(-2.32664e-21 -9.87778e-16 0)
(-6.94718e-21 -9.87778e-16 0)
(-1.15105e-20 -9.87778e-16 0)
(-1.60322e-20 -9.87777e-16 0)
(-2.05271e-20 -9.87777e-16 0)
(-2.50087e-20 -9.87776e-16 0)
(-2.94898e-20 -9.87775e-16 0)
(-3.39826e-20 -9.87774e-16 0)
(-3.84985e-20 -9.87773e-16 0)
(-4.30486e-20 -9.87772e-16 0)
(-4.76434e-20 -9.87771e-16 0)
(-5.22931e-20 -9.87769e-16 0)
(-5.70074e-20 -9.87768e-16 0)
(-6.17956e-20 -9.87766e-16 0)
(-6.66663e-20 -9.87764e-16 0)
(-7.16277e-20 -9.87762e-16 0)
(-7.66871e-20 -9.87759e-16 0)
(-8.18507e-20 -9.87757e-16 0)
(-8.71233e-20 -9.87754e-16 0)
(-9.25078e-20 -9.87751e-16 0)
(-9.80042e-20 -9.87747e-16 0)
(-1.03609e-19 -9.87743e-16 0)
(-1.09312e-19 -9.87739e-16 0)
(-1.15097e-19 -9.87734e-16 0)
(-1.20934e-19 -9.87728e-16 0)
(-1.26781e-19 -9.87722e-16 0)
(-1.32571e-19 -9.87715e-16 0)
(-1.38207e-19 -9.87707e-16 0)
(-1.43554e-19 -9.87698e-16 0)
(-1.4842e-19 -9.87687e-16 0)
(-1.52546e-19 -9.87675e-16 0)
(-1.55587e-19 -9.87662e-16 0)
(-1.57103e-19 -9.87647e-16 0)
(-1.56551e-19 -9.87629e-16 0)
(-1.53299e-19 -9.87611e-16 0)
(-1.4667e-19 -9.87591e-16 0)
(-1.36061e-19 -9.8757e-16 0)
(-9.35232e-12 -9.88273e-16 0)
(-1.78413e-06 -1.76187e-07 0)
(-1.10827e-06 -0.000379971 0)
(-2.21715e-21 -9.87771e-16 0)
(-6.61929e-21 -9.87771e-16 0)
(-1.0964e-20 -9.87771e-16 0)
(-1.52646e-20 -9.8777e-16 0)
(-1.95333e-20 -9.8777e-16 0)
(-2.3781e-20 -9.87769e-16 0)
(-2.80183e-20 -9.87768e-16 0)
(-3.22545e-20 -9.87767e-16 0)
(-3.64984e-20 -9.87766e-16 0)
(-4.07579e-20 -9.87765e-16 0)
(-4.50402e-20 -9.87763e-16 0)
(-4.93514e-20 -9.87761e-16 0)
(-5.36969e-20 -9.8776e-16 0)
(-5.80808e-20 -9.87757e-16 0)
(-6.25058e-20 -9.87755e-16 0)
(-6.6973e-20 -9.87753e-16 0)
(-7.14814e-20 -9.8775e-16 0)
(-7.60272e-20 -9.87747e-16 0)
(-8.06036e-20 -9.87744e-16 0)
(-8.51992e-20 -9.8774e-16 0)
(-8.97974e-20 -9.87736e-16 0)
(-9.4375e-20 -9.87732e-16 0)
(-9.88997e-20 -9.87728e-16 0)
(-1.03329e-19 -9.87723e-16 0)
(-1.07606e-19 -9.87717e-16 0)
(-1.11658e-19 -9.87711e-16 0)
(-1.15391e-19 -9.87704e-16 0)
(-1.1869e-19 -9.87697e-16 0)
(-1.21411e-19 -9.87689e-16 0)
(-1.2338e-19 -9.8768e-16 0)
(-1.24396e-19 -9.8767e-16 0)
(-1.24229e-19 -9.8766e-16 0)
(-1.22631e-19 -9.87649e-16 0)
(-1.19351e-19 -9.87637e-16 0)
(-1.14155e-19 -9.87625e-16 0)
(-1.06865e-19 -9.87613e-16 0)
(-9.74462e-20 -9.87602e-16 0)
(-1.68179e-11 -9.893e-16 0)
(-1.38051e-06 -3.46265e-07 0)
(-7.2587e-07 -0.000396612 0)
(-2.09288e-21 -9.87765e-16 0)
(-6.24721e-21 -9.87765e-16 0)
(-1.03442e-20 -9.87765e-16 0)
(-1.43943e-20 -9.87764e-16 0)
(-1.84072e-20 -9.87763e-16 0)
(-2.23915e-20 -9.87763e-16 0)
(-2.63549e-20 -9.87762e-16 0)
(-3.03042e-20 -9.8776e-16 0)
(-3.42455e-20 -9.87759e-16 0)
(-3.81838e-20 -9.87758e-16 0)
(-4.21232e-20 -9.87756e-16 0)
(-4.60666e-20 -9.87754e-16 0)
(-5.00157e-20 -9.87752e-16 0)
(-5.39705e-20 -9.8775e-16 0)
(-5.79293e-20 -9.87747e-16 0)
(-6.18884e-20 -9.87745e-16 0)
(-6.58413e-20 -9.87742e-16 0)
(-6.97782e-20 -9.87739e-16 0)
(-7.36857e-20 -9.87735e-16 0)
(-7.75455e-20 -9.87732e-16 0)
(-8.13336e-20 -9.87728e-16 0)
(-8.50191e-20 -9.87724e-16 0)
(-8.85631e-20 -9.87719e-16 0)
(-9.19167e-20 -9.87714e-16 0)
(-9.50204e-20 -9.87709e-16 0)
(-9.78017e-20 -9.87703e-16 0)
(-1.00175e-19 -9.87698e-16 0)
(-1.02039e-19 -9.87691e-16 0)
(-1.03281e-19 -9.87685e-16 0)
(-1.03773e-19 -9.87678e-16 0)
(-1.03382e-19 -9.87671e-16 0)
(-1.01969e-19 -9.87663e-16 0)
(-9.9406e-20 -9.87656e-16 0)
(-9.55825e-20 -9.87648e-16 0)
(-9.04257e-20 -9.87641e-16 0)
(-8.39174e-20 -9.87634e-16 0)
(-7.61978e-20 -9.87628e-16 0)
(-2.64953e-11 -9.91051e-16 0)
(-1.14247e-06 -5.92479e-07 0)
(-4.15842e-07 -0.000410506 0)
(-1.95699e-21 -9.87759e-16 0)
(-5.84043e-21 -9.87759e-16 0)
(-9.66686e-21 -9.87759e-16 0)
(-1.34441e-20 -9.87758e-16 0)
(-1.71791e-20 -9.87757e-16 0)
(-2.08779e-20 -9.87757e-16 0)
(-2.45459e-20 -9.87755e-16 0)
(-2.81876e-20 -9.87754e-16 0)
(-3.18066e-20 -9.87753e-16 0)
(-3.54054e-20 -9.87751e-16 0)
(-3.89858e-20 -9.87749e-16 0)
(-4.25482e-20 -9.87748e-16 0)
(-4.60917e-20 -9.87745e-16 0)
(-4.96139e-20 -9.87743e-16 0)
(-5.31109e-20 -9.87741e-16 0)
(-5.65764e-20 -9.87738e-16 0)
(-6.00019e-20 -9.87735e-16 0)
(-6.3376e-20 -9.87732e-16 0)
(-6.66843e-20 -9.87728e-16 0)
(-6.99081e-20 -9.87725e-16 0)
(-7.30245e-20 -9.87721e-16 0)
(-7.60054e-20 -9.87717e-16 0)
(-7.88168e-20 -9.87713e-16 0)
(-8.14179e-20 -9.87708e-16 0)
(-8.37608e-20 -9.87703e-16 0)
(-8.57893e-20 -9.87698e-16 0)
(-8.74388e-20 -9.87693e-16 0)
(-8.8636e-20 -9.87688e-16 0)
(-8.92992e-20 -9.87683e-16 0)
(-8.9339e-20 -9.87678e-16 0)
(-8.86602e-20 -9.87673e-16 0)
(-8.71645e-20 -9.87668e-16 0)
(-8.47553e-20 -9.87664e-16 0)
(-8.13444e-20 -9.87659e-16 0)
(-7.68617e-20 -9.87656e-16 0)
(-7.12702e-20 -9.87652e-16 0)
(-6.47253e-20 -9.87649e-16 0)
(-4.05411e-11 -9.942e-16 0)
(-9.74712e-07 -9.56232e-07 0)
(-1.27214e-07 -0.000423262 0)
(-1.8127e-21 -9.87754e-16 0)
(-5.40862e-21 -9.87754e-16 0)
(-8.94829e-21 -9.87753e-16 0)
(-1.24368e-20 -9.87753e-16 0)
(-1.58788e-20 -9.87752e-16 0)
(-1.92778e-20 -9.87751e-16 0)
(-2.26372e-20 -9.8775e-16 0)
(-2.59592e-20 -9.87749e-16 0)
(-2.92455e-20 -9.87747e-16 0)
(-3.24969e-20 -9.87745e-16 0)
(-3.57131e-20 -9.87744e-16 0)
(-3.88932e-20 -9.87742e-16 0)
(-4.20349e-20 -9.87739e-16 0)
(-4.51348e-20 -9.87737e-16 0)
(-4.81883e-20 -9.87734e-16 0)
(-5.11891e-20 -9.87732e-16 0)
(-5.41294e-20 -9.87729e-16 0)
(-5.69996e-20 -9.87726e-16 0)
(-5.9788e-20 -9.87722e-16 0)
(-6.24809e-20 -9.87719e-16 0)
(-6.50621e-20 -9.87715e-16 0)
(-6.75128e-20 -9.87711e-16 0)
(-6.98116e-20 -9.87707e-16 0)
(-7.19342e-20 -9.87703e-16 0)
(-7.3853e-20 -9.87699e-16 0)
(-7.5537e-20 -9.87695e-16 0)
(-7.69512e-20 -9.8769e-16 0)
(-7.80561e-20 -9.87686e-16 0)
(-7.88057e-20 -9.87682e-16 0)
(-7.9146e-20 -9.87678e-16 0)
(-7.90113e-20 -9.87675e-16 0)
(-7.83194e-20 -9.87672e-16 0)
(-7.69644e-20 -9.87669e-16 0)
(-7.48082e-20 -9.87668e-16 0)
(-7.16705e-20 -9.87667e-16 0)
(-6.73209e-20 -9.87667e-16 0)
(-6.17327e-20 -9.87668e-16 0)
(-6.68614e-11 -1.00079e-15 0)
(-8.38019e-07 -1.54733e-06 0)
(1.64791e-07 -0.000435617 0)
(-1.66315e-21 -9.87749e-16 0)
(-4.96123e-21 -9.87749e-16 0)
(-8.20425e-21 -9.87748e-16 0)
(-1.13949e-20 -9.87748e-16 0)
(-1.45352e-20 -9.87747e-16 0)
(-1.76271e-20 -9.87746e-16 0)
(-2.06716e-20 -9.87745e-16 0)
(-2.36693e-20 -9.87743e-16 0)
(-2.66204e-20 -9.87742e-16 0)
(-2.9524e-20 -9.8774e-16 0)
(-3.23791e-20 -9.87738e-16 0)
(-3.51834e-20 -9.87736e-16 0)
(-3.79345e-20 -9.87734e-16 0)
(-4.06288e-20 -9.87732e-16 0)
(-4.32621e-20 -9.87729e-16 0)
(-4.58295e-20 -9.87727e-16 0)
(-4.83254e-20 -9.87724e-16 0)
(-5.07437e-20 -9.87721e-16 0)
(-5.30776e-20 -9.87717e-16 0)
(-5.53202e-20 -9.87714e-16 0)
(-5.74645e-20 -9.8771e-16 0)
(-5.95038e-20 -9.87707e-16 0)
(-6.14322e-20 -9.87703e-16 0)
(-6.3245e-20 -9.87699e-16 0)
(-6.49394e-20 -9.87695e-16 0)
(-6.65151e-20 -9.87691e-16 0)
(-6.79746e-20 -9.87687e-16 0)
(-6.93237e-20 -9.87684e-16 0)
(-7.05706e-20 -9.8768e-16 0)
(-7.1724e-20 -9.87677e-16 0)
(-7.27891e-20 -9.87674e-16 0)
(-7.37591e-20 -9.87672e-16 0)
(-7.4599e-20 -9.87671e-16 0)
(-7.52189e-20 -9.87671e-16 0)
(-7.54261e-20 -9.87672e-16 0)
(-7.48458e-20 -9.87675e-16 0)
(-7.34248e-20 -9.87682e-16 0)
(-1.61248e-10 -1.02824e-15 0)
(-7.10864e-07 -3.4255e-06 0)
(4.88739e-07 -0.000448006 0)
(-1.51133e-21 -9.87744e-16 0)
(-4.50716e-21 -9.87744e-16 0)
(-7.44955e-21 -9.87744e-16 0)
(-1.03389e-20 -9.87743e-16 0)
(-1.31752e-20 -9.87742e-16 0)
(-1.59584e-20 -9.87741e-16 0)
(-1.8688e-20 -9.8774e-16 0)
(-2.1363e-20 -9.87739e-16 0)
(-2.39823e-20 -9.87737e-16 0)
(-2.6544e-20 -9.87736e-16 0)
(-2.90461e-20 -9.87734e-16 0)
(-3.14861e-20 -9.87732e-16 0)
(-3.38611e-20 -9.8773e-16 0)
(-3.6168e-20 -9.87727e-16 0)
(-3.84035e-20 -9.87725e-16 0)
(-4.05642e-20 -9.87722e-16 0)
(-4.26469e-20 -9.87719e-16 0)
(-4.46488e-20 -9.87716e-16 0)
(-4.65678e-20 -9.87713e-16 0)
(-4.8403e-20 -9.8771e-16 0)
(-5.01553e-20 -9.87706e-16 0)
(-5.18281e-20 -9.87703e-16 0)
(-5.34285e-20 -9.87699e-16 0)
(-5.49681e-20 -9.87695e-16 0)
(-5.64649e-20 -9.87692e-16 0)