/*--------------------------------*- C++ -*----------------------------------*\
  =========                 |
  \\      /  F ield         | OpenFOAM: The Open Source CFD Toolbox
   \\    /   O peration     | Website:  https://openfoam.org
    \\  /    A nd           | Version:  10
     \\/     M anipulation  |
\*---------------------------------------------------------------------------*/
FoamFile
{
    format      ascii;
    class       surfaceScalarField;
    location    "0.025";
    object      phi;
}
// * * * * * * * * * * * * * * * * * * * * * * * * * * * * * * * * * * * * * //

dimensions      [0 3 -1 0 0 0 0];

internalField   nonuniform List<scalar> 
7780
(
2.50003e-09
-3.56178e-14
2.50013e-09
-1.10496e-13
2.5003e-09
-1.83607e-13
2.50054e-09
-2.5601e-13
2.50086e-09
-3.28513e-13
2.50125e-09
-4.00815e-13
2.5017e-09
-4.73579e-13
2.50224e-09
-5.46299e-13
2.50284e-09
-6.19738e-13
2.50353e-09
-6.93253e-13
2.50428e-09
-7.67726e-13
2.50511e-09
-8.42412e-13
2.50601e-09
-9.18329e-13
2.50699e-09
-9.9465e-13
2.50804e-09
-1.07252e-12
2.50918e-09
-1.15105e-12
2.51039e-09
-1.23149e-12
2.5117e-09
-1.31288e-12
2.51307e-09
-1.3966e-12
2.51454e-09
-1.48159e-12
2.51608e-09
-1.56937e-12
2.51773e-09
-1.65881e-12
2.51945e-09
-1.75152e-12
2.52129e-09
-1.84632e-12
2.5232e-09
-1.94492e-12
2.52524e-09
-2.04607e-12
2.52736e-09
-2.15161e-12
2.5296e-09
-2.26019e-12
2.53195e-09
-2.37377e-12
2.53442e-09
-2.49094e-12
2.537e-09
-2.61376e-12
2.53973e-09
-2.74074e-12
2.54256e-09
-2.87405e-12
2.54556e-09
-3.01212e-12
2.54868e-09
-3.15725e-12
2.55197e-09
-3.30775e-12
2.55539e-09
-3.46604e-12
2.559e-09
-3.63036e-12
2.56277e-09
-3.80324e-12
2.56673e-09
-3.98279e-12
2.57086e-09
-4.17168e-12
2.5752e-09
-4.36791e-12
2.57973e-09
-4.57426e-12
2.58449e-09
-4.78861e-12
2.58946e-09
-5.01386e-12
2.59468e-09
-5.24775e-12
2.60012e-09
-5.49331e-12
2.60585e-09
-5.74812e-12
2.61181e-09
-6.01531e-12
2.61807e-09
-6.2923e-12
2.62459e-09
-6.58234e-12
2.63145e-09
-6.88262e-12
2.63858e-09
-7.19651e-12
2.64607e-09
-7.52095e-12
2.65387e-09
-7.8594e-12
2.66205e-09
-8.20852e-12
2.67055e-09
-8.57183e-12
2.67946e-09
-8.94566e-12
2.68872e-09
-9.33355e-12
2.69842e-09
-9.73145e-12
2.70848e-09
-1.01429e-11
2.71901e-09
-1.05633e-11
2.72992e-09
-1.09961e-11
2.74132e-09
-1.14364e-11
2.75311e-09
-1.18873e-11
2.76542e-09
-1.23433e-11
2.77813e-09
-1.28074e-11
2.79136e-09
-1.32733e-11
2.805e-09
-1.37437e-11
2.81917e-09
-1.42118e-11
2.83374e-09
-1.46799e-11
2.84883e-09
-1.51404e-11
2.86431e-09
-1.55953e-11
2.8803e-09
-1.60365e-11
2.89664e-09
-1.64656e-11
2.91346e-09
-1.68741e-11
2.93059e-09
-1.72636e-11
2.94816e-09
-1.76252e-11
2.96598e-09
-1.79605e-11
2.98417e-09
-1.8261e-11
3.00256e-09
-1.85285e-11
3.02124e-09
-1.8755e-11
3.04004e-09
-1.89428e-11
3.05904e-09
-1.9085e-11
3.07808e-09
-1.91846e-11
3.09722e-09
-1.9236e-11
3.11631e-09
-1.92429e-11
3.13541e-09
-1.92012e-11
3.15437e-09
-1.91155e-11
3.17324e-09
-1.89832e-11
3.1919e-09
-1.88093e-11
3.21036e-09
-1.85928e-11
3.22855e-09
-1.83389e-11
3.24646e-09
-1.80481e-11
3.26404e-09
-1.7725e-11
3.28125e-09
-1.73717e-11
3.29811e-09
-1.69921e-11
3.31452e-09
-1.65895e-11
3.33056e-09
-1.61666e-11
3.3461e-09
-1.57279e-11
3.36125e-09
-1.52748e-11
3.37586e-09
-1.48127e-11
3.39009e-09
-1.43413e-11
3.40374e-09
-1.38673e-11
3.41703e-09
-1.33884e-11
3.42971e-09
-1.29124e-11
3.44206e-09
-1.24351e-11
3.45378e-09
-1.19653e-11
3.4652e-09
-1.14968e-11
3.47598e-09
-1.10397e-11
3.4865e-09
-1.05856e-11
3.49637e-09
-1.0146e-11
3.50604e-09
-9.71021e-12
3.51504e-09
-9.29122e-12
3.52389e-09
-8.87591e-12
3.53206e-09
-8.47909e-12
3.54014e-09
-8.08498e-12
3.54752e-09
-7.71028e-12
3.55488e-09
-7.33641e-12
3.56151e-09
-6.98215e-12
3.56818e-09
-6.62585e-12
3.5741e-09
-6.28855e-12
3.58012e-09
-5.94516e-12
3.58535e-09
-5.61916e-12
3.59073e-09
-5.28162e-12
3.59528e-09
-4.95861e-12
3.60003e-09
-4.61699e-12
3.60388e-09
-4.28564e-12
3.60799e-09
-3.92685e-12
3.6111e-09
-3.57256e-12
3.6145e-09
-3.1804e-12
3.61681e-09
-2.78567e-12
3.61942e-09
-2.34139e-12
3.62081e-09
-1.88659e-12
3.62249e-09
-1.37007e-12
3.62283e-09
-8.34827e-13
3.62342e-09
-2.26204e-13
3.62252e-09
4.07741e-13
3.6218e-09
1.12357e-12
3.61946e-09
1.86812e-12
3.6172e-09
2.69847e-12
3.61321e-09
3.55648e-12
3.60919e-09
4.49824e-12
3.60334e-09
5.46132e-12
3.59736e-09
6.49952e-12
3.58948e-09
7.54747e-12
3.58136e-09
8.6557e-12
3.57135e-09
9.75788e-12
3.561e-09
1.09006e-11
3.54882e-09
1.20189e-11
3.53621e-09
1.3155e-11
3.52188e-09
1.42475e-11
3.50708e-09
1.53344e-11
3.49074e-09
1.636e-11
3.47388e-09
1.73574e-11
3.45571e-09
1.82789e-11
3.43703e-09
1.91527e-11
3.41728e-09
1.994e-11
3.39703e-09
2.0664e-11
3.37601e-09
2.12956e-11
3.35452e-09
2.18531e-11
3.33253e-09
2.23172e-11
3.31014e-09
2.27011e-11
3.28753e-09
2.29948e-11
3.26456e-09
2.32068e-11
3.24165e-09
2.33358e-11
3.21845e-09
2.33852e-11
3.19554e-09
2.33615e-11
3.1724e-09
2.32636e-11
3.14976e-09
2.31044e-11
3.12694e-09
2.28785e-11
3.10482e-09
2.26041e-11
3.08255e-09
2.22721e-11
3.06112e-09
2.19047e-11
3.03959e-09
2.14891e-11
3.019e-09
2.10509e-11
2.99834e-09
2.05744e-11
2.9787e-09
2.00869e-11
2.95901e-09
1.95706e-11
2.94039e-09
1.9054e-11
2.92171e-09
1.85171e-11
2.90414e-09
1.79894e-11
2.8865e-09
1.74491e-11
2.86997e-09
1.69259e-11
2.85337e-09
1.6397e-11
2.83785e-09
1.58916e-11
2.82224e-09
1.53862e-11
2.80768e-09
1.49096e-11
2.793e-09
1.44376e-11
2.77933e-09
1.39983e-11
2.76551e-09
1.35673e-11
2.75265e-09
1.3172e-11
2.7396e-09
1.27875e-11
2.72747e-09
1.24408e-11
2.7151e-09
1.21063e-11
2.7036e-09
1.18109e-11
2.69196e-09
1.153e-11
2.68063e-09
1.12801e-11
2.66955e-09
1.10801e-11
1.07833e-11
2.50003e-09
-7.11982e-14
2.50013e-09
-2.21068e-13
2.50029e-09
-3.66705e-13
2.50054e-09
-5.11267e-13
2.50085e-09
-6.55781e-13
2.50124e-09
-8.00432e-13
2.50169e-09
-9.4554e-13
2.50223e-09
-1.09109e-12
2.50283e-09
-1.23743e-12
2.50351e-09
-1.38452e-12
2.50425e-09
-1.53276e-12
2.50508e-09
-1.68215e-12
2.50598e-09
-1.83316e-12
2.50695e-09
-1.98578e-12
2.508e-09
-2.14056e-12
2.50914e-09
-2.29753e-12
2.51034e-09
-2.45732e-12
2.51163e-09
-2.61995e-12
2.513e-09
-2.78613e-12
2.51446e-09
-2.95593e-12
2.51599e-09
-3.1301e-12
2.51763e-09
-3.30872e-12
2.51934e-09
-3.49264e-12
2.52116e-09
-3.68195e-12
2.52307e-09
-3.87755e-12
2.52508e-09
-4.07954e-12
2.52719e-09
-4.2889e-12
2.52942e-09
-4.50574e-12
2.53174e-09
-4.73112e-12
2.5342e-09
-4.96512e-12
2.53676e-09
-5.20888e-12
2.53946e-09
-5.46249e-12
2.54228e-09
-5.72715e-12
2.54525e-09
-6.00295e-12
2.54834e-09
-6.29113e-12
2.5516e-09
-6.5918e-12
2.55501e-09
-6.90624e-12
2.55858e-09
-7.23455e-12
2.56232e-09
-7.57807e-12
2.56625e-09
-7.93688e-12
2.57034e-09
-8.31236e-12
2.57465e-09
-8.70456e-12
2.57915e-09
-9.11491e-12
2.58387e-09
-9.54342e-12
2.5888e-09
-9.99154e-12
2.59398e-09
-1.04592e-11
2.59938e-09
-1.0948e-11
2.60506e-09
-1.14576e-11
2.61098e-09
-1.19897e-11
2.6172e-09
-1.2544e-11
2.62368e-09
-1.31218e-11
2.63048e-09
-1.3723e-11
2.63757e-09
-1.43487e-11
2.64501e-09
-1.49986e-11
2.65276e-09
-1.56738e-11
2.66089e-09
-1.63736e-11
2.66935e-09
-1.7099e-11
2.67821e-09
-1.7849e-11
2.68742e-09
-1.86242e-11
2.69707e-09
-1.94232e-11
2.7071e-09
-2.02464e-11
2.71758e-09
-2.10917e-11
2.72846e-09
-2.1959e-11
2.73982e-09
-2.28455e-11
2.75159e-09
-2.37503e-11
2.76387e-09
-2.467e-11
2.77657e-09
-2.56028e-11
2.78979e-09
-2.65443e-11
2.80344e-09
-2.74918e-11
2.81761e-09
-2.84397e-11
2.83221e-09
-2.93843e-11
2.84733e-09
-3.0319e-11
2.86285e-09
-3.12389e-11
2.87889e-09
-3.21366e-11
2.89531e-09
-3.30061e-11
2.91221e-09
-3.38394e-11
2.92944e-09
-3.46299e-11
2.94711e-09
-3.53693e-11
2.96507e-09
-3.60509e-11
2.9834e-09
-3.66667e-11
3.00194e-09
-3.72107e-11
3.02077e-09
-3.76759e-11
3.03974e-09
-3.80577e-11
3.05891e-09
-3.83506e-11
3.07813e-09
-3.8552e-11
3.09744e-09
-3.86589e-11
3.11672e-09
-3.86707e-11
3.13598e-09
-3.8587e-11
3.15513e-09
-3.84096e-11
3.17415e-09
-3.81403e-11
3.19297e-09
-3.77833e-11
3.21158e-09
-3.73422e-11
3.22991e-09
-3.68228e-11
3.24794e-09
-3.62304e-11
3.26563e-09
-3.55716e-11
3.28295e-09
-3.48526e-11
3.29989e-09
-3.40806e-11
3.31638e-09
-3.32623e-11
3.33247e-09
-3.24045e-11
3.34807e-09
-3.1514e-11
3.36325e-09
-3.05972e-11
3.3779e-09
-2.96604e-11
3.39214e-09
-2.87093e-11
3.40581e-09
-2.77496e-11
3.41908e-09
-2.67858e-11
3.43177e-09
-2.58232e-11
3.44408e-09
-2.48652e-11
3.4558e-09
-2.39163e-11
3.46717e-09
-2.29786e-11
3.47794e-09
-2.20564e-11
3.48841e-09
-2.11503e-11
3.49827e-09
-2.0264e-11
3.50788e-09
-1.93973e-11
3.51687e-09
-1.85532e-11
3.52566e-09
-1.77304e-11
3.53383e-09
-1.69317e-11
3.54185e-09
-1.61543e-11
3.54924e-09
-1.54011e-11
3.55654e-09
-1.46676e-11
3.5632e-09
-1.39566e-11
3.56983e-09
-1.32623e-11
3.5758e-09
-1.2587e-11
3.58179e-09
-1.19232e-11
3.5871e-09
-1.12725e-11
3.59248e-09
-1.06258e-11
3.59715e-09
-9.98363e-12
3.60193e-09
-9.33467e-12
3.60595e-09
-8.67839e-12
3.61012e-09
-8.00124e-12
3.61347e-09
-7.30129e-12
3.61698e-09
-6.56305e-12
3.61958e-09
-5.78314e-12
3.62235e-09
-4.94453e-12
3.6241e-09
-4.04291e-12
3.626e-09
-3.06063e-12
3.62675e-09
-1.99306e-12
3.6276e-09
-8.23746e-13
3.62717e-09
4.49444e-13
3.62674e-09
1.83994e-12
3.6249e-09
3.34591e-12
3.62295e-09
4.97586e-12
3.61946e-09
6.72232e-12
3.61574e-09
8.58763e-12
3.61036e-09
1.05578e-11
3.60464e-09
1.26288e-11
3.59719e-09
1.47802e-11
3.58929e-09
1.70024e-11
3.57963e-09
1.92699e-11
3.56942e-09
2.15692e-11
3.55751e-09
2.38718e-11
3.54497e-09
2.61623e-11
3.53083e-09
2.84114e-11
3.51604e-09
3.06044e-11
3.49979e-09
3.27131e-11
3.48288e-09
3.47252e-11
3.46473e-09
3.66159e-11
3.44595e-09
3.83764e-11
3.42615e-09
3.99866e-11
3.40578e-09
4.14421e-11
3.38467e-09
4.27283e-11
3.36305e-09
4.38451e-11
3.34094e-09
4.47835e-11
3.31842e-09
4.55479e-11
3.29568e-09
4.61345e-11
3.27261e-09
4.6551e-11
3.24958e-09
4.67984e-11
3.2263e-09
4.6887e-11
3.20328e-09
4.68217e-11
3.1801e-09
4.66144e-11
3.15738e-09
4.62729e-11
3.13457e-09
4.58098e-11
3.11238e-09
4.52348e-11
3.09016e-09
4.45606e-11
3.0687e-09
4.37981e-11
3.04725e-09
4.29591e-11
3.02666e-09
4.20551e-11
3.00613e-09
4.10968e-11
2.98651e-09
4.00955e-11
2.96697e-09
3.90607e-11
2.94839e-09
3.8003e-11
2.9299e-09
3.69305e-11
2.91238e-09
3.58529e-11
2.89494e-09
3.47768e-11
2.87848e-09
3.3711e-11
2.86209e-09
3.26603e-11
2.84665e-09
3.1633e-11
2.83125e-09
3.06321e-11
2.81678e-09
2.96648e-11
2.80231e-09
2.87329e-11
2.78873e-09
2.78427e-11
2.77512e-09
2.69948e-11
2.76234e-09
2.61945e-11
2.74949e-09
2.54413e-11
2.73744e-09
2.47398e-11
2.72526e-09
2.40884e-11
2.71382e-09
2.34904e-11
2.70235e-09
2.29463e-11
2.69111e-09
2.24459e-11
2.68014e-09
2.20442e-11
2.1473e-11
2.50003e-09
-1.06631e-13
2.50013e-09
-3.31065e-13
2.50029e-09
-5.4901e-13
2.50054e-09
-7.65367e-13
2.50085e-09
-9.8155e-13
2.50123e-09
-1.198e-12
2.50168e-09
-1.41498e-12
2.50222e-09
-1.63266e-12
2.50281e-09
-1.85131e-12
2.50349e-09
-2.07112e-12
2.50423e-09
-2.29242e-12
2.50505e-09
-2.51547e-12
2.50594e-09
-2.74067e-12
2.50691e-09
-2.96835e-12
2.50794e-09
-3.19898e-12
2.50907e-09
-3.43296e-12
2.51026e-09
-3.67083e-12
2.51154e-09
-3.91308e-12
2.51289e-09
-4.16032e-12
2.51433e-09
-4.41309e-12
2.51585e-09
-4.67208e-12
2.51746e-09
-4.93789e-12
2.51915e-09
-5.21129e-12
2.52095e-09
-5.49293e-12
2.52283e-09
-5.78364e-12
2.52481e-09
-6.08414e-12
2.52689e-09
-6.39531e-12
2.52908e-09
-6.71792e-12
2.53137e-09
-7.05293e-12
2.53379e-09
-7.40114e-12
2.53631e-09
-7.76356e-12
2.53897e-09
-8.14105e-12
2.54174e-09
-8.53467e-12
2.54466e-09
-8.9453e-12
2.54771e-09
-9.37409e-12
2.55091e-09
-9.82192e-12
2.55426e-09
-1.029e-11
2.55778e-09
-1.07792e-11
2.56145e-09
-1.12908e-11
2.56531e-09
-1.18257e-11
2.56934e-09
-1.23852e-11
2.57358e-09
-1.29702e-11
2.578e-09
-1.35819e-11
2.58265e-09
-1.42215e-11
2.5875e-09
-1.489e-11
2.59259e-09
-1.55884e-11
2.59791e-09
-1.6318e-11
2.6035e-09
-1.70796e-11
2.60933e-09
-1.78745e-11
2.61546e-09
-1.87034e-11
2.62185e-09
-1.95674e-11
2.62856e-09
-2.04673e-11
2.63555e-09
-2.14039e-11
2.64289e-09
-2.23777e-11
2.65054e-09
-2.33894e-11
2.65857e-09
-2.44393e-11
2.66693e-09
-2.55278e-11
2.67569e-09
-2.66546e-11
2.68481e-09
-2.78198e-11
2.69437e-09
-2.90224e-11
2.70431e-09
-3.0262e-11
2.71471e-09
-3.1537e-11
2.72551e-09
-3.28458e-11
2.73681e-09
-3.41861e-11
2.74852e-09
-3.55553e-11
2.76075e-09
-3.69498e-11
2.77342e-09
-3.83655e-11
2.78662e-09
-3.97975e-11
2.80027e-09
-4.12403e-11
2.81446e-09
-4.26871e-11
2.8291e-09
-4.41308e-11
2.84429e-09
-4.55628e-11
2.85991e-09
-4.69741e-11
2.87607e-09
-4.83547e-11
2.89263e-09
-4.96939e-11
2.90971e-09
-5.09803e-11
2.92715e-09
-5.22022e-11
2.94506e-09
-5.33477e-11
2.96328e-09
-5.44046e-11
2.98189e-09
-5.53615e-11
3.00075e-09
-5.62071e-11
3.01992e-09
-5.69314e-11
3.03924e-09
-5.75254e-11
3.05878e-09
-5.79818e-11
3.07837e-09
-5.82948e-11
3.09807e-09
-5.84609e-11
3.11772e-09
-5.8478e-11
3.13737e-09
-5.83466e-11
3.15687e-09
-5.80688e-11
3.17625e-09
-5.76489e-11
3.19541e-09
-5.70922e-11
3.21433e-09
-5.64062e-11
3.23295e-09
-5.55991e-11
3.25125e-09
-5.46804e-11
3.26918e-09
-5.366e-11
3.28671e-09
-5.25487e-11
3.30384e-09
-5.1357e-11
3.3205e-09
-5.0096e-11
3.33672e-09
-4.87763e-11
3.35243e-09
-4.74086e-11
3.36769e-09
-4.60027e-11
3.3824e-09
-4.45685e-11
3.39667e-09
-4.31146e-11
3.41036e-09
-4.16498e-11
3.42363e-09
-4.01812e-11
3.43631e-09
-3.87163e-11
3.44858e-09
-3.72608e-11
3.46026e-09
-3.58208e-11
3.47157e-09
-3.44005e-11
3.48228e-09
-3.30046e-11
3.49266e-09
-3.1636e-11
3.50245e-09
-3.02982e-11
3.51196e-09
-2.89927e-11
3.52086e-09
-2.77223e-11
3.52954e-09
-2.64868e-11
3.53763e-09
-2.52882e-11
3.54554e-09
-2.41252e-11
3.55285e-09
-2.29989e-11
3.56005e-09
-2.19065e-11
3.56664e-09
-2.08484e-11
3.57317e-09
-1.98202e-11
3.57909e-09
-1.88214e-11
3.58502e-09
-1.78457e-11
3.59031e-09
-1.6891e-11
3.59565e-09
-1.5949e-11
3.60034e-09
-1.50155e-11
3.60513e-09
-1.40795e-11
3.60923e-09
-1.31341e-11
3.61347e-09
-1.21656e-11
3.61696e-09
-1.11635e-11
3.62062e-09
-1.01118e-11
3.62344e-09
-8.99619e-12
3.62644e-09
-7.79878e-12
3.62849e-09
-6.50188e-12
3.6307e-09
-5.08707e-12
3.63184e-09
-3.53478e-12
3.63307e-09
-1.8289e-12
3.63308e-09
4.79623e-14
3.63308e-09
2.10554e-12
3.6317e-09
4.35644e-12
3.63018e-09
6.80101e-12
3.62713e-09
9.44348e-12
3.6238e-09
1.22728e-11
3.6188e-09
1.52827e-11
3.61337e-09
1.84506e-11
3.60618e-09
2.176e-11
3.59843e-09
2.51785e-11
3.58889e-09
2.8681e-11
3.57868e-09
3.22292e-11
3.56671e-09
3.57925e-11
3.55402e-09
3.93305e-11
3.53966e-09
4.28108e-11
3.52454e-09
4.6195e-11
3.50793e-09
4.94522e-11
3.49057e-09
5.25495e-11
3.47193e-09
5.54599e-11
3.4526e-09
5.81584e-11
3.43224e-09
6.06242e-11
3.41126e-09
6.2841e-11
3.38952e-09
6.47954e-11
3.36727e-09
6.64801e-11
3.34455e-09
6.78888e-11
3.32141e-09
6.90231e-11
3.29807e-09
6.98829e-11
3.27443e-09
7.04772e-11
3.25086e-09
7.08116e-11
3.22708e-09
7.09005e-11
3.20359e-09
7.0754e-11
3.18e-09
7.03903e-11
3.15689e-09
6.98223e-11
3.13376e-09
6.90704e-11
3.11128e-09
6.81494e-11
3.08884e-09
6.70804e-11
3.06719e-09
6.58786e-11
3.04561e-09
6.45649e-11
3.02492e-09
6.31542e-11
3.00434e-09
6.16662e-11
2.98471e-09
6.01149e-11
2.9652e-09
5.85181e-11
2.94668e-09
5.68886e-11
2.92829e-09
5.5242e-11
2.91088e-09
5.35897e-11
2.89361e-09
5.19447e-11
2.87732e-09
5.0317e-11
2.86113e-09
4.87173e-11
2.8459e-09
4.71538e-11
2.83075e-09
4.56352e-11
2.81652e-09
4.4168e-11
2.80233e-09
4.27589e-11
2.789e-09
4.1413e-11
2.77569e-09
4.01349e-11
2.76318e-09
3.89286e-11
2.75064e-09
3.7797e-11
2.73887e-09
3.67429e-11
2.727e-09
3.57677e-11
2.71584e-09
3.48724e-11
2.70467e-09
3.40607e-11
2.69373e-09
3.33165e-11
2.68305e-09
3.27173e-11
3.18713e-11
2.50003e-09
-1.41824e-13
2.50013e-09
-4.40353e-13
2.50029e-09
-7.3018e-13
2.50053e-09
-1.01783e-12
2.50084e-09
-1.30515e-12
2.50122e-09
-1.59272e-12
2.50167e-09
-1.88086e-12
2.5022e-09
-2.16979e-12
2.50279e-09
-2.45981e-12
2.50346e-09
-2.75121e-12
2.50419e-09
-3.04437e-12
2.505e-09
-3.33968e-12
2.50588e-09
-3.6376e-12
2.50684e-09
-3.93863e-12
2.50786e-09
-4.24334e-12
2.50897e-09
-4.55233e-12
2.51014e-09
-4.86626e-12
2.5114e-09
-5.18584e-12
2.51273e-09
-5.51182e-12
2.51415e-09
-5.845e-12
2.51563e-09
-6.18625e-12
2.51722e-09
-6.53642e-12
2.51888e-09
-6.89649e-12
2.52063e-09
-7.26739e-12
2.52247e-09
-7.65017e-12
2.52442e-09
-8.04585e-12
2.52645e-09
-8.45557e-12
2.52859e-09
-8.88041e-12
2.53083e-09
-9.32158e-12
2.53319e-09
-9.78023e-12
2.53565e-09
-1.02577e-11
2.53824e-09
-1.07551e-11
2.54095e-09
-1.12738e-11
2.54379e-09
-1.18152e-11
2.54676e-09
-1.23806e-11
2.54989e-09
-1.29713e-11
2.55315e-09
-1.35888e-11
2.55658e-09
-1.42345e-11
2.56016e-09
-1.491e-11
2.56392e-09
-1.56165e-11
2.56785e-09
-1.63557e-11
2.57198e-09
-1.7129e-11
2.57629e-09
-1.7938e-11
2.58082e-09
-1.8784e-11
2.58555e-09
-1.96687e-11
2.59053e-09
-2.05935e-11
2.59572e-09
-2.156e-11
2.60117e-09
-2.25694e-11
2.60687e-09
-2.36234e-11
2.61286e-09
-2.47233e-11
2.6191e-09
-2.58703e-11
2.62566e-09
-2.70657e-11
2.63251e-09
-2.83108e-11
2.6397e-09
-2.96064e-11
2.6472e-09
-3.09535e-11
2.65508e-09
-3.23527e-11
2.66329e-09
-3.38047e-11
2.6719e-09
-3.53094e-11
2.68088e-09
-3.68671e-11
2.69029e-09
-3.84771e-11
2.70009e-09
-4.01387e-11
2.71036e-09
-4.18504e-11
2.72104e-09
-4.36103e-11
2.73222e-09
-4.54159e-11
2.74384e-09
-4.72637e-11
2.756e-09
-4.91496e-11
2.76861e-09
-5.10684e-11
2.78177e-09
-5.30138e-11
2.79541e-09
-5.49786e-11
2.80962e-09
-5.6954e-11
2.82432e-09
-5.89302e-11
2.83959e-09
-6.0896e-11
2.85535e-09
-6.28387e-11
2.87168e-09
-6.47446e-11
2.88846e-09
-6.65984e-11
2.9058e-09
-6.83842e-11
2.92356e-09
-7.00848e-11
2.94182e-09
-7.16831e-11
2.96045e-09
-7.3161e-11
2.97951e-09
-7.45018e-11
2.99885e-09
-7.56884e-11
3.01854e-09
-7.67061e-11
3.03841e-09
-7.75411e-11
3.05852e-09
-7.81828e-11
3.0787e-09
-7.86221e-11
3.09899e-09
-7.88542e-11
3.11923e-09
-7.88758e-11
3.13946e-09
-7.86884e-11
3.15953e-09
-7.82948e-11
3.17946e-09
-7.77019e-11
3.19913e-09
-7.69181e-11
3.21853e-09
-7.59546e-11
3.2376e-09
-7.48235e-11
3.25631e-09
-7.35392e-11
3.27461e-09
-7.2116e-11
3.29247e-09
-7.05697e-11
3.30988e-09
-6.89155e-11
3.32677e-09
-6.71695e-11
3.3432e-09
-6.53463e-11
3.35906e-09
-6.34612e-11
3.37444e-09
-6.1528e-11
3.38924e-09
-5.95602e-11
3.40356e-09
-5.75699e-11
3.41727e-09
-5.55689e-11
3.43053e-09
-5.3567e-11
3.44316e-09
-5.15743e-11
3.45538e-09
-4.95983e-11
3.46698e-09
-4.76471e-11
3.47819e-09
-4.57262e-11
3.48879e-09
-4.3842e-11
3.49905e-09
-4.1998e-11
3.5087e-09
-4.01989e-11
3.51807e-09
-3.84465e-11
3.52683e-09
-3.67443e-11
3.53536e-09
-3.50922e-11
3.54329e-09
-3.34929e-11
3.55105e-09
-3.19444e-11
3.55821e-09
-3.04487e-11
3.56526e-09
-2.9002e-11
3.57173e-09
-2.76055e-11
3.57813e-09
-2.62536e-11
3.58395e-09
-2.49464e-11
3.58977e-09
-2.3676e-11
3.595e-09
-2.24407e-11
3.60029e-09
-2.12298e-11
3.60497e-09
-2.00386e-11
3.60979e-09
-1.88532e-11
3.61396e-09
-1.76644e-11
3.61831e-09
-1.64544e-11
3.62198e-09
-1.52086e-11
3.62587e-09
-1.39051e-11
3.62899e-09
-1.25224e-11
3.63236e-09
-1.10354e-11
3.63486e-09
-9.41599e-12
3.63758e-09
-7.63703e-12
3.63929e-09
-5.66675e-12
3.64115e-09
-3.47954e-12
3.64182e-09
-1.04538e-12
3.64253e-09
1.65103e-12
3.64186e-09
4.63372e-12
3.64106e-09
7.90346e-12
3.63867e-09
1.14712e-11
3.63597e-09
1.53193e-11
3.63152e-09
1.94422e-11
3.62656e-09
2.38038e-11
3.61971e-09
2.83819e-11
3.6122e-09
3.31255e-11
3.60275e-09
3.7999e-11
3.5925e-09
4.29426e-11
3.58034e-09
4.79126e-11
3.56731e-09
5.28469e-11
3.55248e-09
5.76991e-11
3.53676e-09
6.24114e-11
3.51942e-09
6.69399e-11
3.50122e-09
7.12355e-11
3.48165e-09
7.52612e-11
3.4613e-09
7.89801e-11
3.43986e-09
8.23643e-11
3.41775e-09
8.53909e-11
3.39487e-09
8.80424e-11
3.37144e-09
9.03097e-11
3.34755e-09
9.21856e-11
3.32325e-09
9.36739e-11
3.2988e-09
9.47765e-11
3.27406e-09
9.55077e-11
3.24945e-09
9.58772e-11
3.22469e-09
9.59068e-11
3.20029e-09
9.5612e-11
3.17585e-09
9.50199e-11
3.15198e-09
9.41496e-11
3.12815e-09
9.30308e-11
3.10506e-09
9.16845e-11
3.08207e-09
9.01412e-11
3.05996e-09
8.84221e-11
3.038e-09
8.65568e-11
3.01699e-09
8.4566e-11
2.99616e-09
8.24768e-11
2.97635e-09
8.03086e-11
2.95673e-09
7.80858e-11
2.93815e-09
7.58257e-11
2.91976e-09
7.35494e-11
2.9024e-09
7.1272e-11
2.88523e-09
6.90113e-11
2.86907e-09
6.67801e-11
2.85306e-09
6.45928e-11
2.83803e-09
6.24602e-11
2.82312e-09
6.03933e-11
2.80915e-09
5.84009e-11
2.79525e-09
5.64914e-11
2.78223e-09
5.46713e-11
2.76924e-09
5.29465e-11
2.75707e-09
5.1322e-11
2.74488e-09
4.98014e-11
2.73346e-09
4.83879e-11
2.72196e-09
4.70834e-11
2.71115e-09
4.58888e-11
2.70035e-09
4.48085e-11
2.68977e-09
4.38221e-11
2.67945e-09
4.30297e-11
4.19188e-11
2.50003e-09
-1.7677e-13
2.50012e-09
-5.48846e-13
2.50029e-09
-9.10068e-13
2.50053e-09
-1.26846e-12
2.50083e-09
-1.62628e-12
2.50121e-09
-1.98421e-12
2.50166e-09
-2.3426e-12
2.50218e-09
-2.70172e-12
2.50276e-09
-3.06188e-12
2.50343e-09
-3.42346e-12
2.50415e-09
-3.78687e-12
2.50495e-09
-4.15262e-12
2.50581e-09
-4.52126e-12
2.50676e-09
-4.89344e-12
2.50776e-09
-5.26984e-12
2.50885e-09
-5.65122e-12
2.51e-09
-6.03843e-12
2.51123e-09
-6.43234e-12
2.51253e-09
-6.83391e-12
2.51391e-09
-7.24415e-12
2.51537e-09
-7.66413e-12
2.51691e-09
-8.09496e-12
2.51852e-09
-8.53783e-12
2.52023e-09
-8.99396e-12
2.52202e-09
-9.46463e-12
2.52391e-09
-9.95116e-12
2.52588e-09
-1.0455e-11
2.52796e-09
-1.09774e-11
2.53012e-09
-1.152e-11
2.53241e-09
-1.20841e-11
2.53479e-09
-1.26716e-11
2.53729e-09
-1.32837e-11
2.53991e-09
-1.39223e-11
2.54266e-09
-1.4589e-11
2.54553e-09
-1.52855e-11
2.54855e-09
-1.60135e-11
2.55169e-09
-1.67749e-11
2.555e-09
-1.75714e-11
2.55846e-09
-1.84048e-11
2.56209e-09
-1.92771e-11
2.56588e-09
-2.01901e-11
2.56987e-09
-2.11457e-11
2.57403e-09
-2.21459e-11
2.57841e-09
-2.31924e-11
2.58298e-09
-2.42875e-11
2.58779e-09
-2.54328e-11
2.59281e-09
-2.66304e-11
2.59809e-09
-2.78821e-11
2.6036e-09
-2.91899e-11
2.6094e-09
-3.05554e-11
2.61546e-09
-3.19807e-11
2.62182e-09
-3.34673e-11
2.62847e-09
-3.50169e-11
2.63546e-09
-3.6631e-11
2.64275e-09
-3.83109e-11
2.65042e-09
-4.00577e-11
2.65842e-09
-4.18725e-11
2.66682e-09
-4.37559e-11
2.67559e-09
-4.57083e-11
2.6848e-09
-4.77294e-11
2.69441e-09
-4.9819e-11
2.70449e-09
-5.19756e-11
2.715e-09
-5.41977e-11
2.72602e-09
-5.64825e-11
2.73749e-09
-5.88265e-11
2.74952e-09
-6.12251e-11
2.76203e-09
-6.36725e-11
2.77513e-09
-6.61614e-11
2.78874e-09
-6.86832e-11
2.80296e-09
-7.12272e-11
2.81771e-09
-7.37813e-11
2.83309e-09
-7.63313e-11
2.849e-09
-7.88608e-11
2.86555e-09
-8.13519e-11
2.88262e-09
-8.37842e-11
2.90031e-09
-8.61361e-11
2.91848e-09
-8.8384e-11
2.93723e-09
-9.05037e-11
2.95641e-09
-9.247e-11
2.97609e-09
-9.42586e-11
2.99612e-09
-9.5845e-11
3.01653e-09
-9.72078e-11
3.03718e-09
-9.83266e-11
3.05809e-09
-9.9186e-11
3.07909e-09
-9.97731e-11
3.10021e-09
-1.00081e-10
3.12129e-09
-1.00105e-10
3.14234e-09
-9.98476e-11
3.1632e-09
-9.93141e-11
3.18389e-09
-9.85147e-11
3.20428e-09
-9.74617e-11
3.22435e-09
-9.61719e-11
3.24404e-09
-9.46628e-11
3.2633e-09
-9.29549e-11
3.2821e-09
-9.10685e-11
3.30039e-09
-8.90258e-11
3.31817e-09
-8.68477e-11
3.33538e-09
-8.45561e-11
3.35206e-09
-8.2171e-11
3.36813e-09
-7.97128e-11
3.38365e-09
-7.71994e-11
3.39855e-09
-7.46489e-11
3.41292e-09
-7.20767e-11
3.42664e-09
-6.9498e-11
3.43987e-09
-6.69253e-11
3.45245e-09
-6.43709e-11
3.46457e-09
-6.18446e-11
3.47605e-09
-5.93561e-11
3.48713e-09
-5.69122e-11
3.49757e-09
-5.45203e-11
3.50766e-09
-5.21848e-11
3.51712e-09
-4.99113e-11
3.52629e-09
-4.77017e-11
3.53485e-09
-4.556e-11
3.54317e-09
-4.34863e-11
3.55089e-09
-4.14834e-11
3.55843e-09
-3.95495e-11
3.56539e-09
-3.76865e-11
3.57224e-09
-3.58908e-11
3.57851e-09
-3.4164e-11
3.58472e-09
-3.25003e-11
3.59038e-09
-3.09005e-11
3.59605e-09
-2.93564e-11
3.60116e-09
-2.7867e-11
3.60636e-09
-2.64206e-11
3.61101e-09
-2.50131e-11
3.61582e-09
-2.36282e-11
3.62005e-09
-2.22562e-11
3.62453e-09
-2.08748e-11
3.6284e-09
-1.94664e-11
3.63259e-09
-1.80016e-11
3.6361e-09
-1.64524e-11
3.63997e-09
-1.47823e-11
3.64306e-09
-1.29523e-11
3.6465e-09
-1.09203e-11
3.64901e-09
-8.63923e-12
3.65179e-09
-6.0672e-12
3.65344e-09
-3.15596e-12
3.65521e-09
1.23032e-13
3.65559e-09
3.80817e-12
3.65587e-09
7.90731e-12
3.6545e-09
1.24383e-11
3.65279e-09
1.73801e-11
3.64916e-09
2.27241e-11
3.64495e-09
2.84202e-11
3.63864e-09
3.44342e-11
3.63152e-09
4.06931e-11
3.62222e-09
4.71432e-11
3.61195e-09
5.36984e-11
3.59952e-09
6.02946e-11
3.58604e-09
6.6843e-11
3.57052e-09
7.32774e-11
3.55394e-09
7.95159e-11
3.53555e-09
8.54974e-11
3.51615e-09
9.11539e-11
3.49523e-09
9.64348e-11
3.47342e-09
1.0129e-10
3.45044e-09
1.05684e-10
3.42671e-09
1.09587e-10
3.40217e-09
1.12976e-10
3.37706e-09
1.15844e-10
3.35151e-09
1.18182e-10
3.32555e-09
1.19998e-10
3.2995e-09
1.213e-10
3.27321e-09
1.22107e-10
3.24714e-09
1.22437e-10
3.22097e-09
1.22322e-10
3.19529e-09
1.21784e-10
3.16963e-09
1.20862e-10
3.14468e-09
1.19583e-10
3.11984e-09
1.17988e-10
3.09588e-09
1.16106e-10
3.07211e-09
1.13979e-10
3.04934e-09
1.11635e-10
3.0268e-09
1.09113e-10
3.00534e-09
1.06441e-10
2.98413e-09
1.03654e-10
2.96405e-09
1.00778e-10
2.94422e-09
9.7843e-11
2.92553e-09
9.4872e-11
2.90709e-09
9.18917e-11
2.88977e-09
8.89211e-11
2.87267e-09
8.59823e-11
2.85666e-09
8.30913e-11
2.84084e-09
8.02658e-11
2.82606e-09
7.75188e-11
2.81143e-09
7.48639e-11
2.79777e-09
7.23116e-11
2.78421e-09
6.98716e-11
2.77156e-09
6.7552e-11
2.75896e-09
6.53594e-11
2.7472e-09
6.32997e-11
2.73543e-09
6.13766e-11
2.72444e-09
5.95941e-11
2.71339e-09
5.79538e-11
2.70303e-09
5.64567e-11
2.69267e-09
5.51075e-11
2.68254e-09
5.38809e-11
2.67266e-09
5.28994e-11
5.15341e-11
2.50003e-09
-2.11553e-13
2.50012e-09
-6.56657e-13
2.50029e-09
-1.08886e-12
2.50052e-09
-1.51749e-12
2.50083e-09
-1.94518e-12
2.50121e-09
-2.37267e-12
2.50165e-09
-2.80032e-12
2.50216e-09
-3.22841e-12
2.50274e-09
-3.65726e-12
2.50339e-09
-4.0873e-12
2.50411e-09
-4.51901e-12
2.50489e-09
-4.95297e-12
2.50574e-09
-5.38985e-12
2.50667e-09
-5.83041e-12
2.50765e-09
-6.27549e-12
2.50871e-09
-6.726e-12
2.50984e-09
-7.18296e-12
2.51104e-09
-7.64744e-12
2.5123e-09
-8.1206e-12
2.51364e-09
-8.60366e-12
2.51505e-09
-9.09794e-12
2.51655e-09
-9.60475e-12
2.51811e-09
-1.01256e-11
2.51976e-09
-1.06618e-11
2.52148e-09
-1.12152e-11
2.5233e-09
-1.17871e-11
2.5252e-09
-1.23793e-11
2.52719e-09
-1.29935e-11
2.52927e-09
-1.36314e-11
2.53146e-09
-1.4295e-11
2.53375e-09
-1.4986e-11
2.53615e-09
-1.57064e-11
2.53865e-09
-1.64583e-11
2.54128e-09
-1.72435e-11
2.54402e-09
-1.80641e-11
2.54691e-09
-1.89224e-11
2.54991e-09
-1.98204e-11
2.55308e-09
-2.07603e-11
2.55638e-09
-2.17444e-11
2.55985e-09
-2.27749e-11
2.56347e-09
-2.38542e-11
2.56728e-09
-2.49844e-11
2.57125e-09
-2.61682e-11
2.57544e-09
-2.74076e-11
2.57981e-09
-2.87053e-11
2.58441e-09
-3.00635e-11
2.58921e-09
-3.14847e-11
2.59427e-09
-3.29712e-11
2.59955e-09
-3.45256e-11
2.60511e-09
-3.61499e-11
2.61092e-09
-3.78468e-11
2.61704e-09
-3.96182e-11
2.62343e-09
-4.14666e-11
2.63016e-09
-4.33939e-11
2.63719e-09
-4.54022e-11
2.64458e-09
-4.74932e-11
2.65231e-09
-4.96686e-11
2.66045e-09
-5.19296e-11
2.66895e-09
-5.42775e-11
2.67789e-09
-5.67126e-11
2.68723e-09
-5.92353e-11
2.69706e-09
-6.18448e-11
2.70732e-09
-6.45403e-11
2.71812e-09
-6.73193e-11
2.72938e-09
-7.0179e-11
2.74123e-09
-7.31146e-11
2.75358e-09
-7.61205e-11
2.76657e-09
-7.9189e-11
2.7801e-09
-8.23105e-11
2.79429e-09
-8.54731e-11
2.80907e-09
-8.86627e-11
2.82455e-09
-9.18622e-11
2.84063e-09
-9.50516e-11
2.85743e-09
-9.82082e-11
2.87484e-09
-1.01306e-10
2.89296e-09
-1.04316e-10
2.91166e-09
-1.07207e-10
2.93104e-09
-1.09945e-10
2.95093e-09
-1.12496e-10
2.97143e-09
-1.14825e-10
2.99234e-09
-1.16896e-10
3.01373e-09
-1.18679e-10
3.03541e-09
-1.20143e-10
3.0574e-09
-1.21267e-10
3.07951e-09
-1.22032e-10
3.10176e-09
-1.22428e-10
3.12395e-09
-1.2245e-10
3.14609e-09
-1.22102e-10
3.16801e-09
-1.21392e-10
3.18971e-09
-1.20337e-10
3.21104e-09
-1.18954e-10
3.232e-09
-1.17268e-10
3.25248e-09
-1.15305e-10
3.27247e-09
-1.13092e-10
3.2919e-09
-1.10659e-10
3.31075e-09
-1.08036e-10
3.329e-09
-1.05251e-10
3.3466e-09
-1.02333e-10
3.36359e-09
-9.9308e-11
3.37989e-09
-9.62029e-11
3.39559e-09
-9.30406e-11
3.41058e-09
-8.98435e-11
3.425e-09
-8.6631e-11
3.43872e-09
-8.34215e-11
3.45189e-09
-8.02303e-11
3.46437e-09
-7.70722e-11
3.47636e-09
-7.39584e-11
3.48768e-09
-7.09003e-11
3.49856e-09
-6.79056e-11
3.50879e-09
-6.49827e-11
3.51864e-09
-6.21363e-11
3.52786e-09
-5.93726e-11
3.53675e-09
-5.66933e-11
3.54504e-09
-5.41029e-11
3.55308e-09
-5.16009e-11
3.56052e-09
-4.91905e-11
3.56777e-09
-4.68694e-11
3.57446e-09
-4.46403e-11
3.58101e-09
-4.24991e-11
3.58702e-09
-4.04488e-11
3.59296e-09
-3.84833e-11
3.59838e-09
-3.66058e-11
3.60381e-09
-3.48077e-11
3.60873e-09
-3.30915e-11
3.61375e-09
-3.1445e-11
3.61828e-09
-2.98676e-11
3.62301e-09
-2.83416e-11
3.62726e-09
-2.68596e-11
3.63183e-09
-2.53958e-11
3.6359e-09
-2.39315e-11
3.6404e-09
-2.24294e-11
3.64437e-09
-2.08548e-11
3.64884e-09
-1.91572e-11
3.6527e-09
-1.7283e-11
3.65708e-09
-1.517e-11
3.66068e-09
-1.27467e-11
3.66473e-09
-9.94851e-12
3.66776e-09
-6.69531e-12
3.67103e-09
-2.93649e-12
3.67295e-09
1.39241e-12
3.67482e-09
6.31146e-12
3.67495e-09
1.18524e-11
3.67468e-09
1.79893e-11
3.67231e-09
2.47105e-11
3.66919e-09
3.19442e-11
3.6637e-09
3.96388e-11
3.65718e-09
4.76884e-11
3.64814e-09
5.60132e-11
3.63787e-09
6.44903e-11
3.62509e-09
7.30261e-11
3.611e-09
8.14967e-11
3.59454e-09
8.98077e-11
3.57679e-09
9.78474e-11
3.55695e-09
1.05531e-10
3.53591e-09
1.12768e-10
3.51315e-09
1.1949e-10
3.48935e-09
1.25634e-10
3.46427e-09
1.31153e-10
3.43835e-09
1.36011e-10
3.4116e-09
1.40183e-10
3.38424e-09
1.43661e-10
3.35647e-09
1.46442e-10
3.32832e-09
1.4854e-10
3.30018e-09
1.49968e-10
3.27185e-09
1.50759e-10
3.24388e-09
1.5094e-10
3.21589e-09
1.50556e-10
3.18856e-09
1.49641e-10
3.16136e-09
1.48247e-10
3.13504e-09
1.46413e-10
3.10895e-09
1.44194e-10
3.08391e-09
1.41629e-10
3.05917e-09
1.38772e-10
3.0356e-09
1.35661e-10
3.01237e-09
1.32346e-10
2.99037e-09
1.28862e-10
2.96872e-09
1.25253e-10
2.94833e-09
1.21552e-10
2.9283e-09
1.17797e-10
2.90951e-09
1.14014e-10
2.89104e-09
1.10238e-10
2.8738e-09
1.06489e-10
2.85684e-09
1.02796e-10
2.84105e-09
9.91764e-11
2.8255e-09
9.56513e-11
2.81105e-09
9.22359e-11
2.79679e-09
8.89456e-11
2.78355e-09
8.57923e-11
2.77045e-09
8.27869e-11
2.75829e-09
7.99385e-11
2.7462e-09
7.7254e-11
2.73497e-09
7.474e-11
2.72375e-09
7.24e-11
2.71331e-09
7.02382e-11
2.70282e-09
6.82559e-11
2.69303e-09
6.64537e-11
2.68324e-09
6.48367e-11
2.67367e-09
6.33745e-11
2.66435e-09
6.22107e-11
6.06076e-11
2.50003e-09
-2.46231e-13
2.50012e-09
-7.6408e-13
2.50029e-09
-1.26705e-12