/*--------------------------------*- C++ -*----------------------------------*\
  =========                 |
  \\      /  F ield         | OpenFOAM: The Open Source CFD Toolbox
   \\    /   O peration     | Website:  https://openfoam.org
    \\  /    A nd           | Version:  10
     \\/     M anipulation  |
\*---------------------------------------------------------------------------*/
FoamFile
{
    format      ascii;
    class       surfaceScalarField;
    location    "2.28";
    object      phi;
}
// * * * * * * * * * * * * * * * * * * * * * * * * * * * * * * * * * * * * * //

dimensions      [0 3 -1 0 0 0 0];

internalField   nonuniform List<scalar> 
24170
(
1.46482e-09
-1.46482e-09
2.71795e-09
-1.25313e-09
3.70827e-09
-9.90323e-10
4.4548e-09
-7.46531e-10
5.007e-09
-5.52192e-10
5.41828e-09
-4.11287e-10
5.73466e-09
-3.16382e-10
5.99227e-09
-2.5761e-10
6.21885e-09
-2.26576e-10
6.43644e-09
-2.1759e-10
6.6644e-09
-2.27959e-10
6.92275e-09
-2.58349e-10
7.23683e-09
-3.14078e-10
7.64582e-09
-4.08997e-10
8.22308e-09
-5.77259e-10
9.13846e-09
-9.15376e-10
1.09186e-08
-1.78014e-09
-5.0954e-09
1.6014e-08
1.6589e-09
-3.12372e-09
3.07224e-09
-2.66647e-09
4.18255e-09
-2.10064e-09
5.0138e-09
-1.57778e-09
5.62418e-09
-1.16257e-09
6.0755e-09
-8.62605e-10
6.42036e-09
-6.61243e-10
6.69971e-09
-5.36962e-10
6.94472e-09
-4.71587e-10
7.17994e-09
-4.5281e-10
7.42669e-09
-4.74705e-10
7.70668e-09
-5.38342e-10
8.04683e-09
-6.5423e-10
8.4874e-09
-8.49566e-10
9.09919e-09
-1.18905e-09
1.00242e-08
-1.84042e-09
1.15524e-08
-3.30829e-09
-7.2937e-09
1.37507e-08
1.8531e-09
-4.97682e-09
3.42298e-09
-4.23635e-09
4.64656e-09
-3.32421e-09
5.55482e-09
-2.48604e-09
6.21621e-09
-1.82397e-09
6.70151e-09
-1.3479e-09
7.0699e-09
-1.02964e-09
7.36686e-09
-8.33916e-10
7.62654e-09
-7.31264e-10
7.87548e-09
-7.0175e-10
8.13627e-09
-7.355e-10
8.43126e-09
-8.33335e-10
8.78686e-09
-1.00983e-09
9.23969e-09
-1.30239e-09
9.8458e-09
-1.79516e-09
1.06875e-08
-2.68208e-09
1.18059e-08
-4.42671e-09
-8.02883e-09
1.2541e-08
2.06945e-09
-7.04628e-09
3.80849e-09
-5.97539e-09
5.14889e-09
-4.66461e-09
6.13236e-09
-3.46951e-09
6.84078e-09
-2.53239e-09
7.35565e-09
-1.86276e-09
7.74346e-09
-1.41745e-09
8.05428e-09
-1.14474e-09
8.32509e-09
-1.00207e-09
8.58399e-09
-9.60656e-10
8.85423e-09
-1.00573e-09
9.15764e-09
-1.13675e-09
9.51809e-09
-1.37027e-09
9.96438e-09
-1.74868e-09
1.053e-08
-2.36083e-09
1.12327e-08
-3.3847e-09
1.19561e-08
-5.1502e-09
-8.07422e-09
1.20015e-08
2.32149e-09
-9.36777e-09
4.25034e-09
-7.90424e-09
5.7142e-09
-6.12846e-09
6.77132e-09
-4.52663e-09
7.52178e-09
-3.28285e-09
8.06046e-09
-2.40144e-09
8.46223e-09
-1.81923e-09
8.782e-09
-1.46451e-09
9.05929e-09
-1.27936e-09
9.32333e-09
-1.2247e-09
9.59723e-09
-1.27964e-09
9.90122e-09
-1.44074e-09
1.02546e-08
-1.72369e-09
1.06756e-08
-2.16968e-09
1.11731e-08
-2.85829e-09
1.17134e-08
-3.92498e-09
1.21169e-08
-5.55376e-09
-7.81379e-09
1.18565e-08
2.62433e-09
-1.19921e-08
4.77098e-09
-1.00509e-08
6.36598e-09
-7.72345e-09
7.49321e-09
-5.65386e-09
8.27794e-09
-4.06758e-09
8.83203e-09
-2.95553e-09
9.24005e-09
-2.22725e-09
9.56192e-09
-1.78637e-09
9.83941e-09
-1.55685e-09
1.01022e-08
-1.48752e-09
1.03726e-08
-1.54998e-09
1.06679e-08
-1.73604e-09
1.10016e-08
-2.05741e-09
1.13801e-08
-2.54817e-09
1.17907e-08
-3.26886e-09
1.21692e-08
-4.30353e-09
1.23359e-08
-5.72044e-09
-7.42866e-09
1.19508e-08
2.99834e-09
-1.49904e-08
5.39907e-09
-1.24516e-08
7.1323e-09
-9.45668e-09
8.322e-09
-6.84357e-09
9.12863e-09
-4.87421e-09
9.68571e-09
-3.51261e-09
1.00891e-08
-2.63061e-09
1.04037e-08
-2.10098e-09
1.0673e-08
-1.82618e-09
1.09265e-08
-1.74102e-09
1.11845e-08
-1.80799e-09
1.14608e-08
-2.01228e-09
1.1762e-08
-2.3587e-09
1.20838e-08
-2.86995e-09
1.2398e-08
-3.58306e-09
1.26297e-08
-4.53522e-09
1.26298e-08
-5.72057e-09
-7.00032e-09
1.22015e-08
3.4733e-09
-1.84637e-08
6.17419e-09
-1.51525e-08
8.04963e-09
-1.13321e-08
9.28693e-09
-8.08087e-09
1.0096e-08
-5.68331e-09
1.06381e-08
-4.05464e-09
1.10216e-08
-3.01415e-09
1.13164e-08
-2.39578e-09
1.15667e-08
-2.07652e-09
1.18008e-08
-1.97511e-09
1.20363e-08
-2.04341e-09
1.22823e-08
-2.25835e-09
1.25393e-08
-2.6157e-09
1.2794e-08
-3.12458e-09
1.301e-08
-3.79913e-09
1.31159e-08
-4.64111e-09
1.30021e-08
-5.60673e-09
-6.56327e-09
1.2565e-08
4.09492e-09
-2.25587e-08
7.15337e-09
-1.82109e-08
9.16711e-09
-1.33459e-08
1.04249e-08
-9.33867e-09
1.12065e-08
-6.4649e-09
1.17076e-08
-4.55578e-09
1.20507e-08
-3.35722e-09
1.23092e-08
-2.65429e-09
1.25269e-08
-2.29422e-09
1.27295e-08
-2.17767e-09
1.29308e-08
-2.24473e-09
1.31354e-08
-2.46292e-09
1.33377e-08
-2.81801e-09
1.35187e-08
-3.30558e-09
1.36403e-08
-3.9208e-09
1.36422e-08
-4.643e-09
1.34509e-08
-5.41539e-09
-6.13065e-09
1.30183e-08
4.93655e-09
-2.74952e-08
8.42125e-09
-2.16957e-08
1.05522e-08
-1.54768e-08
1.1783e-08
-1.05695e-08
1.24915e-08
-7.17334e-09
1.29153e-08
-4.97957e-09
1.31902e-08
-3.63216e-09
1.33913e-08
-2.85543e-09
1.35596e-08
-2.46251e-09
1.37166e-08
-2.33459e-09
1.38712e-08
-2.39942e-09
1.40233e-08
-2.61495e-09
1.41624e-08
-2.95713e-09
1.42667e-08
-3.4099e-09
1.43008e-08
-3.95494e-09
1.42182e-08
-4.56036e-09
1.39734e-08
-5.17061e-09
-5.70615e-09
1.35489e-08
6.1216e-09
-3.36168e-08
1.01068e-08
-2.56808e-08
1.2298e-08
-1.7668e-08
1.34207e-08
-1.16922e-08
1.39874e-08
-7.74009e-09
1.42833e-08
-5.27548e-09
1.4454e-08
-3.80285e-09
1.45715e-08
-2.97294e-09
1.46705e-08
-2.56147e-09
1.47659e-08
-2.42994e-09
1.48608e-08
-2.49441e-09
1.495e-08
-2.70406e-09
1.50194e-08
-3.02653e-09
1.50466e-08
-3.43712e-09
1.50013e-08
-3.90963e-09
1.48499e-08
-4.40901e-09
1.45669e-08
-4.88758e-09
-5.28938e-09
1.41501e-08
6.52827e-09
-4.01451e-08
1.03291e-08
-2.94817e-08
1.21284e-08
-1.94672e-08
1.28879e-08
-1.24517e-08
1.31785e-08
-8.03077e-09
1.32762e-08
-5.37318e-09
1.33038e-08
-3.83043e-09
1.33134e-08
-2.98253e-09
1.33252e-08
-2.57326e-09
1.33443e-08
-2.44908e-09
1.33678e-08
-2.51786e-09
1.33868e-08
-2.72305e-09
1.33875e-08
-3.02723e-09
1.33514e-08
-3.40109e-09
1.32574e-08
-3.81555e-09
1.30851e-08
-4.23677e-09
1.28228e-08
-4.6253e-09
-4.94078e-09
1.24742e-08
9.70194e-09
-4.9847e-08
1.45195e-08
-3.42993e-08
1.63216e-08
-2.12692e-08
1.68122e-08
-1.29424e-08
1.68252e-08
-8.04369e-09
1.6699e-08
-5.24701e-09
1.65578e-08
-3.68924e-09
1.64409e-08
-2.86559e-09
1.63551e-08
-2.48746e-09
1.62946e-08
-2.38866e-09
1.62482e-08
-2.47137e-09
1.62006e-08
-2.67545e-09
1.61339e-08
-2.96057e-09
1.60282e-08
-3.29539e-09
1.58636e-08
-3.65092e-09
1.56242e-08
-3.99744e-09
1.53037e-08
-4.30475e-09
-4.54584e-09
1.49087e-08
1.56656e-08
-6.55126e-08
2.14295e-08
-4.00632e-08
2.25912e-08
-2.24309e-08
2.22901e-08
-1.26413e-08
2.16823e-08
-7.43588e-09
2.11148e-08
-4.67954e-09
2.06637e-08
-3.23807e-09
2.0324e-08
-2.52596e-09
2.00712e-08
-2.23461e-09
1.98779e-08
-2.19538e-09
1.97183e-08
-2.3118e-09
1.95681e-08
-2.52523e-09
1.94041e-08
-2.79652e-09
1.92047e-08
-3.09599e-09
1.89518e-08
-3.39807e-09
1.86337e-08
-3.67932e-09
1.82477e-08
-3.91877e-09
-4.10004e-09
1.78019e-08
2.86625e-08
-9.41752e-08
3.36822e-08
-4.50829e-08
3.22602e-08
-2.10088e-08
3.00103e-08
-1.03914e-08
2.81495e-08
-5.57509e-09
2.67854e-08
-3.31547e-09
2.58115e-08
-2.26415e-09
2.5112e-08
-1.82649e-09
2.45971e-08
-1.71972e-09
2.42008e-08
-1.7991e-09
2.38739e-08
-1.9849e-09
2.35782e-08
-2.2295e-09
2.32832e-08
-2.50149e-09
2.29648e-08
-2.77767e-09
2.2606e-08
-3.03926e-09
2.21973e-08
-3.27062e-09
2.1738e-08
-3.45942e-09
-3.59746e-09
2.12354e-08
6.32448e-08
-1.5742e-07
5.6685e-08
-3.8523e-08
4.70865e-08
-1.14104e-08
4.05934e-08
-3.89833e-09
3.64966e-08
-1.47827e-09
3.38654e-08
-6.84211e-10
3.21139e-08
-5.1268e-10
3.09002e-08
-6.12774e-10
3.00205e-08
-8.39998e-10
2.93477e-08
-1.12638e-09
2.87983e-08
-1.43548e-09
2.83146e-08
-1.74582e-09
2.78562e-08
-2.04301e-09
2.73947e-08
-2.31624e-09
2.69124e-08
-2.55696e-09
2.64004e-08
-2.75861e-09
2.58579e-08
-2.91684e-09
-3.0298e-09
2.52902e-08
1.82986e-07
1.59139e-07
9.67901e-08
4.76724e-08
6.65614e-08
1.88182e-08
5.3229e-08
9.4341e-09
4.62434e-08
5.5073e-09
4.21239e-08
3.4353e-09
3.94845e-08
2.12673e-09
3.76805e-08
1.19119e-09
3.63741e-08
4.66388e-10
3.53699e-08
-1.22165e-10
3.45458e-08
-6.11397e-10
3.38282e-08
-1.02822e-09
3.31684e-08
-1.38323e-09
3.25347e-08
-1.68251e-09
3.19076e-08
-1.92991e-09
3.12773e-08
-2.1283e-09
3.0641e-08
-2.28047e-09
-2.38966e-09
3.00008e-08
7.723e-08
8.19086e-08
7.54065e-08
4.94959e-08
6.53421e-08
2.88826e-08
5.73312e-08
1.7445e-08
5.18377e-08
1.10009e-08
4.8113e-08
7.15993e-09
4.55245e-08
4.71524e-09
4.36564e-08
3.05927e-09
4.22469e-08
1.87589e-09
4.11316e-08
9.93195e-10
4.02067e-08
3.13506e-10
3.93955e-08
-2.17072e-10
3.8648e-08
-6.35703e-10
3.79365e-08
-9.71027e-10
3.72445e-08
-1.23787e-09
3.65631e-08
-1.44696e-09
3.58893e-08
-1.6066e-09
-1.72371e-09
3.52233e-08
3.59379e-08
4.59707e-08
5.01219e-08
3.53119e-08
5.38046e-08
2.51999e-08
5.36296e-08
1.76199e-08
5.23188e-08
1.23117e-08
5.08425e-08
8.63624e-09
4.9496e-08
6.0617e-09
4.83343e-08
4.22102e-09
4.73354e-08
2.87474e-09
4.64599e-08
1.86867e-09
4.56706e-08
1.1029e-09
4.49417e-08
5.11744e-10
4.42549e-08
5.11254e-11
4.35884e-08
-3.0454e-10
4.2933e-08
-5.82484e-10
4.22847e-08
-7.98673e-10
4.16427e-08
-9.64562e-10
-1.08914e-09
4.10081e-08
1.43029e-08
3.16677e-08
2.32893e-08
2.63255e-08
2.80986e-08
2.03907e-08
3.04513e-08
1.52672e-08
3.15048e-08
1.12582e-08
3.18997e-08
8.24138e-09
3.19643e-08
5.99713e-09
3.18609e-08
4.32441e-09
3.16682e-08
3.06738e-09
3.14242e-08
2.11274e-09
3.11469e-08
1.38016e-09
3.08457e-08
8.12962e-10
3.05258e-08
3.7103e-10
3.01956e-08
2.56603e-11
2.98536e-08
-2.40476e-10
2.95025e-08
-4.47572e-10
2.91454e-08
-6.07541e-10
-7.29306e-10
2.87856e-08
8.56878e-09
2.3099e-08
1.49649e-08
1.99294e-08
1.92124e-08
1.61432e-08
2.18803e-08
1.25993e-08
2.3513e-08
9.6255e-09
2.44962e-08
7.25827e-09
2.50741e-08
5.41924e-09
2.5395e-08
4.00349e-09
2.55478e-08
2.91451e-09
2.55865e-08
2.07406e-09
2.55445e-08
1.42217e-09
2.54435e-08
9.13993e-10
2.52982e-08
5.16302e-10
2.51194e-08
2.04453e-10
2.49182e-08
-3.92858e-11
2.46981e-08
-2.27418e-10
2.44642e-08
-3.73626e-10
-4.86018e-10
2.42209e-08
5.7859e-09
1.73131e-08
1.04774e-08
1.5238e-08
1.39489e-08
1.26716e-08
1.63961e-08
1.01521e-08
1.80805e-08
7.94109e-09
1.92259e-08
6.11294e-09
1.99966e-08
4.64852e-09
2.05061e-08
3.49392e-09
2.08311e-08
2.58958e-09
2.10229e-08
1.88221e-09
2.11169e-08
1.32818e-09
2.11377e-08
8.93251e-10
2.11028e-08
5.51116e-10
2.10256e-08
2.81702e-10
2.09166e-08
6.96888e-11
2.07844e-08
-9.5163e-11
2.06339e-08
-2.23106e-10
-3.22194e-10
2.047e-08
4.21447e-09
1.30986e-08
7.78808e-09
1.16644e-08
1.06004e-08
9.85927e-09
1.27177e-08
8.03483e-09
1.42724e-08
6.38638e-09
1.53975e-08
4.98779e-09
1.62029e-08
3.84314e-09
1.67719e-08
2.92491e-09
1.71656e-08
2.19587e-09
1.74282e-08
1.61964e-09
1.75917e-08
1.16471e-09
1.76795e-08
8.054e-10
1.77092e-08
5.21393e-10
1.76941e-08
2.96855e-10
1.76443e-08
1.19508e-10
1.7569e-08
-1.9855e-11
1.74736e-08
-1.27776e-10
-2.11856e-10
1.73633e-08
3.22687e-09
9.87172e-09
6.03577e-09
8.85547e-09
8.33072e-09
7.56432e-09
1.01303e-08
6.23526e-09
1.15056e-08
5.01105e-09
1.25394e-08
3.95399e-09
1.33068e-08
3.07576e-09
1.38692e-08
2.36246e-09
1.42747e-08
1.79045e-09
1.45596e-08
1.33474e-09
1.47516e-08
9.72698e-10
1.48717e-08
6.85326e-10
1.49358e-08
4.57252e-10
1.49564e-08
2.76294e-10
1.4943e-08
1.3288e-10
1.49036e-08
1.94996e-11
1.48445e-08
-6.86394e-11
-1.37383e-10
1.477e-08
2.55527e-09
7.31645e-09
4.81601e-09
6.59473e-09
6.70751e-09
5.67281e-09
8.23017e-09
4.7126e-09
9.42448e-09
3.81673e-09
1.03446e-08
3.03384e-09
1.10438e-08
2.37655e-09
1.15683e-08
1.83796e-09
1.19559e-08
1.40291e-09
1.22364e-08
1.05424e-09
1.24332e-08
7.75905e-10
1.25644e-08
5.54091e-10
1.26442e-08
3.7745e-10
1.26836e-08
2.36872e-10
1.26914e-08
1.25136e-10
1.26743e-08
3.65328e-11
1.26386e-08
-3.2887e-11
-8.69595e-11
1.25882e-08
2.07013e-09
5.24632e-09
3.92082e-09
4.74405e-09
5.49332e-09
4.10031e-09
6.78124e-09
3.42469e-09
7.80905e-09
2.78892e-09
8.61413e-09
2.22877e-09
9.23562e-09
1.75505e-09
9.70914e-09
1.36445e-09
1.00648e-08
1.04726e-09
1.03271e-08
7.9193e-10
1.05157e-08
5.87341e-10
1.0646e-08
4.23777e-10
1.07303e-08
2.93155e-10
1.07782e-08
1.88931e-10
1.07975e-08
1.05878e-10
1.07941e-08
3.98483e-11
1.07735e-08
-1.22217e-11
-5.27119e-11
1.07392e-08
1.7024e-09
3.54392e-09
3.23471e-09
3.21174e-09
4.54994e-09
2.78508e-09
5.63958e-09
2.33504e-09
6.51936e-09
1.90914e-09
7.21632e-09
1.53182e-09
7.76027e-09
1.2111e-09
8.17923e-09
9.45483e-10
8.49754e-09
7.28956e-10
8.7354e-09
5.5407e-10
8.90921e-09
4.1353e-10
9.03211e-09
3.00877e-10
9.11457e-09
2.10697e-10
9.16492e-09
1.38575e-10
9.18983e-09
8.09721e-11
9.19461e-09
3.50657e-11
9.18374e-09
-1.35404e-12
-2.95797e-11
9.16061e-09
1.41197e-09
2.13194e-09
2.68857e-09
1.93514e-09
3.79165e-09
1.682e-09
4.71258e-09
1.41412e-09
5.46206e-09
1.15965e-09
6.06051e-09
9.3337e-10
6.53125e-09
7.40362e-10
6.89673e-09
5.80001e-10
7.17679e-09
4.48902e-10
7.38812e-09
3.42738e-10
7.54443e-09
2.57219e-10
7.65679e-09
1.88516e-10
7.73409e-09
1.334e-10
7.78344e-09
8.92269e-11
7.81054e-09
5.38682e-11
7.81998e-09
2.56224e-11
7.8155e-09
3.1265e-12
-1.43106e-11
7.80023e-09
1.17274e-09
9.59209e-10
2.2362e-09
8.71681e-10
3.15921e-09
7.58981e-10
3.93386e-09
6.39473e-10
4.56784e-09
5.25667e-10
5.077e-09
4.24206e-10
5.47992e-09
3.37447e-10
5.79473e-09
2.6519e-10
6.03765e-09
2.05982e-10
6.22246e-09
1.5793e-10
6.36054e-09
1.1914e-10
6.46114e-09
8.79124e-11
6.53173e-09
6.28075e-11
6.57832e-09
4.26439e-11
6.60572e-09
2.64675e-11
6.61783e-09
1.35137e-11
6.61778e-09
3.16986e-12
-4.819e-12
6.60829e-09
9.59209e-10
1.83089e-09
2.58987e-09
3.22934e-09
3.75501e-09
4.17922e-09
4.51666e-09
4.78185e-09
4.98784e-09
5.14577e-09
5.26491e-09
5.35282e-09
5.41563e-09
5.45827e-09
5.48474e-09
5.49825e-09
5.50142e-09
5.4966e-09
2.12377e-10
-2.12377e-10
4.26082e-10
-2.13705e-10
6.40969e-10
-2.14887e-10
8.5688e-10
-2.15911e-10
1.07365e-09
-2.16768e-10
1.29109e-09
-2.17445e-10
1.50902e-09
-2.17931e-10
1.72724e-09
-2.18218e-10
1.94554e-09
-2.18299e-10
2.16371e-09
-2.18173e-10
2.38156e-09
-2.17845e-10
2.59888e-09
-2.17326e-10
2.81552e-09
-2.1664e-10
3.03134e-09
-2.15818e-10
3.24625e-09
-2.14905e-10
3.46021e-09
-2.13961e-10
3.67327e-09
-2.13059e-10
3.88555e-09
-2.12287e-10
4.09729e-09
-2.11738e-10
4.3088e-09
-2.11509e-10
4.5205e-09
-2.11695e-10
4.73288e-09
-2.12383e-10
4.94653e-09
-2.1365e-10
5.1621e-09
-2.15566e-10
5.38029e-09
-2.18191e-10
5.60186e-09
-2.21572e-10
5.82761e-09
-2.25747e-10
6.05834e-09
-2.30732e-10
6.29486e-09
-2.36522e-10
6.53794e-09
-2.43081e-10
6.78829e-09
-2.50345e-10
7.04651e-09
-2.58218e-10
7.31311e-09
-2.666e-10
7.58852e-09
-2.75416e-10
7.87319e-09
-2.84666e-10
8.16766e-09
-2.94471e-10
8.47278e-09
-3.05123e-10
8.78988e-09
-3.171e-10
9.12097e-09
-3.31084e-10
9.46894e-09
-3.47979e-10
9.83789e-09
-3.68947e-10
1.02334e-08
-3.95501e-10
1.0663e-08
-4.29651e-10
1.11372e-08
-4.74151e-10
1.167e-08
-5.32848e-10
1.22811e-08
-6.11103e-10
1.29971e-08
-7.15959e-10
1.38518e-08
-8.54659e-10
1.48779e-08
-1.02615e-09
1.60664e-08
-1.18852e-09
2.05301e-08
-4.46371e-09
1.91313e-08
1.39888e-09
1.82345e-08
8.96811e-10
1.75745e-08
6.59912e-10
1.70392e-08
5.35313e-10
1.65805e-08
4.58686e-10
1.6176e-08
4.04519e-10
1.58132e-08
3.628e-10
1.5484e-08
3.29231e-10
1.51824e-08
3.01556e-10
1.49041e-08
2.78304e-10
1.46457e-08
2.58409e-10
1.44047e-08
2.41075e-10
1.41789e-08
2.25721e-10
1.3967e-08
2.11927e-10
1.37676e-08
1.99394e-10
1.35797e-08
1.87907e-10
1.34024e-08
1.77311e-10
1.32349e-08
1.67489e-10
1.30766e-08
1.5835e-10
1.29267e-08
1.49823e-10
1.27849e-08
1.41848e-10
1.26505e-08
1.34376e-10
1.25231e-08
1.27365e-10
1.24024e-08
1.20775e-10
1.22878e-08
1.14576e-10
1.21791e-08
1.08737e-10
1.20758e-08
1.03232e-10
1.19778e-08
9.80381e-11
1.18846e-08
9.31341e-11
1.17961e-08
8.85011e-11
1.1712e-08
8.41216e-11
1.1632e-08
7.998e-11
1.1556e-08
7.6062e-11
1.14836e-08
7.23545e-11
1.14148e-08
6.88458e-11
1.13493e-08
6.55246e-11
1.12869e-08
6.23811e-11
1.12275e-08
5.94055e-11
1.11709e-08
5.65893e-11
1.1117e-08
5.39244e-11
1.10656e-08
5.14032e-11
1.10165e-08
4.90187e-11
1.09698e-08
4.67638e-11
1.09251e-08
4.46328e-11
1.08825e-08
4.26194e-11
1.08418e-08
4.07179e-11
1.08029e-08
3.89233e-11
1.07656e-08
3.72302e-11
1.073e-08
3.56341e-11
1.06959e-08
3.41301e-11
1.06632e-08
3.27141e-11
1.06318e-08
3.13816e-11
1.06017e-08
3.0129e-11
1.05727e-08
2.8952e-11
1.05449e-08
2.78474e-11
1.0518e-08
2.68114e-11
1.04922e-08
2.58408e-11
1.04673e-08
2.49323e-11
1.04432e-08
2.40829e-11
1.04199e-08
2.32896e-11
1.03974e-08
2.25496e-11
1.03755e-08
2.18601e-11
1.03543e-08
2.12186e-11
1.03337e-08
2.06227e-11
1.03136e-08
2.007e-11
1.0294e-08
1.95579e-11
1.02749e-08
1.90849e-11
1.02563e-08
1.86482e-11
1.0238e-08
1.82465e-11
1.02202e-08
1.78773e-11
1.02026e-08
1.75393e-11
1.01854e-08
1.72304e-11
1.01684e-08
1.69493e-11
1.01518e-08
1.66942e-11
1.01353e-08
1.64635e-11
1.0119e-08
1.62563e-11
1.0103e-08
1.60708e-11
1.00871e-08
1.59059e-11
1.00713e-08
1.57605e-11
1.00557e-08
1.56332e-11
1.00401e-08
1.55232e-11
1.00247e-08
1.54292e-11
1.00094e-08
1.53504e-11
9.99407e-09
1.52859e-11
9.97884e-09
1.5235e-11
9.96364e-09
1.51964e-11
9.94847e-09
1.517e-11
9.93332e-09
1.51547e-11
9.91817e-09
1.51499e-11
9.90301e-09
1.5155e-11
9.88784e-09
1.51696e-11
9.87265e-09
1.51932e-11
9.85743e-09
1.52253e-11
9.84216e-09
1.52655e-11
9.82685e-09
1.53135e-11
9.81148e-09
1.53691e-11
9.79605e-09
1.54322e-11
9.78054e-09
1.55029e-11
9.76496e-09
1.5581e-11
9.74929e-09
1.56667e-11
9.73353e-09
1.57606e-11
9.71767e-09
1.58632e-11
9.7017e-09
1.59752e-11
9.6856e-09
1.6098e-11
9.66936e-09
1.62329e-11
9.65298e-09
1.63824e-11
9.63643e-09
1.65489e-11
9.6197e-09
1.67361e-11
9.60275e-09
1.69488e-11
9.58556e-09
1.71934e-11
9.56808e-09
1.74778e-11
9.55026e-09
1.78129e-11
9.53205e-09
1.82127e-11
9.51336e-09
1.8696e-11
9.49407e-09
1.92879e-11
9.47405e-09
2.00217e-11
9.4531e-09
2.09437e-11
9.43099e-09
2.21171e-11
9.40735e-09
2.36307e-11
9.38174e-09
2.56127e-11
9.35349e-09
2.82521e-11
9.32165e-09
3.18389e-11
9.28481e-09
3.68392e-11
9.24076e-09
4.40499e-11
9.18581e-09
5.49527e-11
9.11316e-09
7.26473e-11
9.00833e-09
1.04832e-10
8.83211e-09
1.76221e-10
4.00842e-10
8.43127e-09
2.44298e-10
-4.56674e-10
4.90181e-10
-4.59589e-10
7.375e-10
-4.62206e-10
9.861e-10
-4.64511e-10
1.23582e-09
-4.6649e-10
1.48652e-09
-4.6814e-10
1.73805e-09
-4.69468e-10
1.99032e-09
-4.70487e-10
2.24324e-09
-4.71216e-10
2.49674e-09
-4.71675e-10
2.75078e-09
-4.71887e-10
3.00533e-09
-4.71875e-10
3.26036e-09
-4.71667e-10
3.51584e-09
-4.71293e-10
3.77172e-09
-4.70789e-10
4.02795e-09
-4.70191e-10
4.28443e-09
-4.69542e-10
4.54103e-09
-4.6889e-10
4.79759e-09
-4.68289e-10
5.05388e-09
-4.67799e-10
5.30967e-09
-4.67487e-10
5.56471e-09
-4.67427e-10
5.81876e-09
-4.67697e-10
6.07157e-09
-4.6838e-10
6.32295e-09
-4.69565e-10
6.57272e-09
-4.71346e-10
6.8208e-09
-4.73825e-10
7.06717e-09
-4.77104e-10
7.31194e-09
-4.8129e-10
7.55534e-09
-4.86487e-10
7.7978e-09
-4.92801e-10
8.03993e-09
-5.00345e-10
8.28259e-09
-5.09264e-10
8.52693e-09
-5.19752e-10
8.77436e-09
-5.32099e-10
9.02661e-09
-5.46726e-10
9.28572e-09
-5.64226e-10
9.55403e-09
-5.85417e-10
9.83433e-09
-6.11382e-10
1.01299e-08
-6.43545e-10
1.04447e-08
-6.83769e-10
1.07837e-08
-7.34522e-10
1.11532e-08
-7.99147e-10
1.15614e-08
-8.82317e-10
1.20194e-08
-9.90848e-10
1.25436e-08
-1.13529e-09
1.3161e-08
-1.33341e-09
1.39251e-08
-1.61869e-09
1.49619e-08
-2.06301e-09
1.66075e-08
-2.83405e-09
1.71642e-08
-5.02046e-09
1.8141e-08
4.22096e-10
1.77711e-08
1.26671e-09
1.73327e-08
1.09831e-09
1.68915e-08
9.76522e-10
1.64769e-08
8.73234e-10
1.6097e-08
7.84475e-10
1.57503e-08
7.09507e-10
1.54326e-08
6.46871e-10
1.51397e-08
5.94445e-10
1.4868e-08
5.50046e-10
1.46146e-08
5.11799e-10
1.43774e-08
4.78255e-10
1.41548e-08
4.48354e-10
1.39454e-08
4.21344e-10
1.37481e-08
3.96697e-10
1.3562e-08
3.74033e-10
1.33862e-08
3.53077e-10
1.32201e-08
3.33617e-10
1.30629e-08
3.1549e-10
1.29142e-08
2.98561e-10
1.27733e-08
2.82718e-10
1.26398e-08
2.67867e-10
1.25133e-08
2.53924e-10
1.23932e-08
2.40816e-10
1.22793e-08
2.2848e-10
1.21712e-08
2.16858e-10
1.20685e-08
2.05899e-10
1.1971e-08
1.95556e-10
1.18784e-08
1.85789e-10
1.17903e-08
1.7656e-10
1.17066e-08
1.67834e-10
1.1627e-08
1.59581e-10
1.15513e-08
1.51773e-10
1.14792e-08
1.44383e-10
1.14107e-08
1.37389e-10
1.13455e-08
1.30768e-10
1.12833e-08
1.245e-10
1.12242e-08
1.18567e-10
1.11678e-08
1.12951e-10
1.11141e-08
1.07636e-10
1.10629e-08
1.02608e-10
1.10141e-08
9.78522e-11
1.09675e-08
9.33551e-11
1.0923e-08
8.91043e-11
1.08805e-08
8.50881e-11
1.084e-08
8.12953e-11
1.08012e-08
7.77152e-11
1.07641e-08
7.4338e-11
1.07285e-08
7.11537e-11
1.06945e-08
6.81535e-11
1.06619e-08
6.53284e-11
1.06306e-08
6.26703e-11
1.06006e-08
6.01712e-11
1.05717e-08
5.78233e-11
1.05439e-08
5.56195e-11
1.05172e-08
5.35527e-11
1.04914e-08
5.16164e-11
1.04665e-08
4.98039e-11
1.04425e-08
4.81093e-11
1.04193e-08
4.65266e-11
1.03968e-08
4.50502e-11
1.0375e-08
4.36747e-11
1.03538e-08
4.23952e-11
1.03332e-08
4.12062e-11
1.03132e-08
4.01035e-11
1.02936e-08
3.90824e-11
1.02746e-08
3.81385e-11
1.0256e-08
3.72677e-11
1.02377e-08
3.64662e-11
1.02199e-08
3.573e-11
1.02024e-08
3.50557e-11
1.01852e-08
3.44398e-11
1.01682e-08
3.3879e-11
1.01516e-08
3.33704e-11
1.01351e-08
3.29108e-11
1.01189e-08
3.24974e-11
1.01028e-08
3.21277e-11
1.00869e-08
3.17991e-11
1.00712e-08
3.15091e-11
1.00556e-08
3.12556e-11
1.004e-08
3.10363e-11
1.00246e-08
3.08492e-11
1.00093e-08
3.06924e-11
9.994e-09
3.05643e-11
9.97877e-09
3.04627e-11
9.96358e-09
3.03866e-11
9.94842e-09
3.0334e-11
9.93327e-09
3.03038e-11
9.91812e-09
3.02947e-11
9.90297e-09
3.03056e-11
9.88781e-09
3.03351e-11
9.87262e-09
3.03825e-11
9.8574e-09
3.04469e-11
9.84213e-09
3.05276e-11
9.82682e-09
3.06239e-11
9.81146e-09
3.07354e-11
9.79603e-09
3.08617e-11
9.78053e-09
3.1003e-11
9.76495e-09
3.11592e-11
9.74929e-09
3.13307e-11
9.73353e-09
3.15185e-11
9.71767e-09
3.17233e-11
9.7017e-09
3.19473e-11
9.6856e-09
3.21924e-11
9.66937e-09
3.2462e-11
9.65299e-09
3.276e-11
9.63645e-09
3.30921e-11
9.61972e-09
3.34654e-11
9.60278e-09
3.38894e-11
9.5856e-09
3.43766e-11
9.56813e-09
3.49428e-11
9.55034e-09
3.56097e-11
9.53214e-09
3.64051e-11
9.51347e-09
3.73659e-11
9.49422e-09
3.8542e-11
9.47424e-09
3.99998e-11
9.45336e-09
4.183e-11
9.43132e-09
4.41574e-11
9.40779e-09
4.71576e-11
9.38232e-09
5.1082e-11
9.35427e-09
5.63004e-11
9.32273e-09
6.33782e-11
9.28635e-09
7.32161e-11
9.24307e-09
8.73369e-11
9.1895e-09
1.08518e-10
9.11978e-09
1.42366e-10
9.02279e-09
2.01823e-10
8.87685e-09
3.22161e-10
6.16174e-10
8.66152e-09
2.56954e-10
-7.13629e-10
5.15605e-10
-7.18239e-10
7.75747e-10
-7.22348e-10
1.03718e-09
-7.25944e-10
1.2997e-09
-7.29014e-10
1.56312e-09
-7.3156e-10
1.82726e-09
-7.33607e-10
2.09197e-09
-7.35189e-10
2.3571e-09
-7.36348e-10
2.62255e-09
-7.37124e-10
2.88822e-09
-7.3756e-10
3.15404e-09
-7.37695e-10
3.41994e-09
-7.37564e-10
3.68584e-09
-7.37198e-10
3.95167e-09
-7.36619e-10
4.21732e-09
-7.35842e-10
4.48265e-09
-7.34866e-10
4.74745e-09
-7.33688e-10
5.01146e-09
-7.32299e-10
5.27436e-09
-7.30701e-10
5.53578e-09
-7.28913e-10
5.79534e-09
-7.26984e-10
6.05265e-09
-7.25002e-10
6.30736e-09
-7.2309e-10
6.5592e-09
-7.2141e-10
6.80801e-09
-7.20152e-10
7.05371e-09
-7.19532e-10
7.29639e-09
-7.19783e-10
7.53625e-09
-7.2115e-10
7.77366e-09
-7.23891e-10
8.00913e-09
-7.28277e-10
8.24339e-09
-7.34606e-10
8.47734e-09
-7.43214e-10
8.7121e-09
-7.54505e-10
8.94898e-09
-7.68981e-10
9.18953e-09
-7.87281e-10
9.43553e-09
-8.10222e-10
9.68896e-09
-8.38853e-10
9.95209e-09
-8.74511e-10
1.02275e-08
-9.1891e-10
1.05179e-08
-9.74246e-10
1.08268e-08
-1.04337e-09
1.11576e-08
-1.13e-09
1.15144e-08
-1.23909e-09
1.19008e-08
-1.37726e-09
1.23188e-08
-1.55329e-09
1.27637e-08
-1.77834e-09
1.32092e-08
-2.06418e-09
1.35596e-08
-2.4134e-09
1.35046e-08
-2.77908e-09
1.14066e-08
-2.9224e-09
1.74493e-08
-5.62059e-09
1.74341e-08
1.28188e-09
1.70906e-08
1.44187e-09
1.66892e-08
1.37788e-09
1.63056e-08
1.25678e-09
1.59542e-08
1.13592e-09
1.56324e-08
1.03133e-09
1.5335e-08
9.44216e-10
1.5058e-08
8.715e-10
1.47984e-08
8.09668e-10
1.45543e-08
7.559e-10
1.43243e-08
7.08196e-10
1.41075e-08
6.65202e-10
1.39028e-08
6.26011e-10
1.37095e-08
5.89998e-10
1.35268e-08
5.56717e-10
1.33541e-08
5.25832e-10
1.31906e-08
4.97082e-10
1.30358e-08
4.70251e-10
1.28892e-08
4.4516e-10
1.27503e-08
4.21655e-10
1.26186e-08
3.99603e-10
1.24936e-08
3.78886e-10
1.2375e-08
3.594e-10
1.22624e-08
3.41051e-10
1.21555e-08
3.23757e-10
1.2054e-08
3.07442e-10
1.19575e-08
2.92041e-10
1.18658e-08
2.77491e-10
1.17786e-08
2.63738e-10
1.16957e-08
2.50733e-10
1.16169e-08
2.38428e-10
1.15419e-08
2.26784e-10
1.14705e-08
2.15763e-10
1.14026e-08
2.05328e-10
1.13379e-08
1.95449e-10
1.12763e-08
1.86096e-10
1.12176e-08
1.77241e-10
1.11617e-08
1.68858e-10
1.11084e-08
1.60925e-10
1.10576e-08
1.53418e-10
1.10091e-08
1.46317e-10
1.09629e-08
1.39602e-10
1.09187e-08
1.33254e-10
1.08766e-08
1.27257e-10
1.08363e-08
1.21592e-10
1.07977e-08
1.16245e-10
1.07609e-08
1.11201e-10
1.07256e-08
1.06445e-10
1.06918e-08
1.01964e-10
1.06594e-08
9.7744e-11
1.06283e-08
9.37735e-11
1.05984e-08
9.00404e-11
1.05697e-08
8.65333e-11
1.05421e-08
8.32413e-11
1.05155e-08
8.0154e-11
1.04898e-08
7.72615e-11
1.04651e-08
7.45541e-11
1.04411e-08
7.20227e-11
1.0418e-08
6.96586e-11
1.03956e-08
6.74534e-11
1.03739e-08
6.53988e-11
1.03528e-08
6.34875e-11
1.03323e-08
6.17118e-11
1.03123e-08
6.00649e-11
1.02929e-08
5.85397e-11
1.02739e-08
5.71301e-11
1.02553e-08
5.58297e-11
1.02372e-08
5.46327e-11
1.02193e-08
5.35335e-11
1.02019e-08
5.25268e-11
1.01847e-08
5.16072e-11
1.01678e-08
5.07702e-11
1.01512e-08
5.00108e-11
1.01348e-08
4.93249e-11
1.01186e-08
4.87082e-11
1.01025e-08
4.81566e-11
1.00867e-08
4.76665e-11
1.00709e-08
4.72342e-11
1.00553e-08
4.68562e-11
1.00398e-08
4.65295e-11
1.00244e-08
4.6251e-11
1.00091e-08
4.60178e-11
9.99385e-09
4.58271e-11
9.97863e-09
4.56765e-11
9.96346e-09
4.55636e-11
9.94831e-09
4.54863e-11
9.93317e-09
4.54423e-11
9.91803e-09
4.54297e-11
9.90289e-09
4.54468e-11
9.88773e-09
4.54922e-11
9.87255e-09
4.55641e-11
9.85734e-09
4.56614e-11
9.84208e-09
4.57831e-11
9.82678e-09
4.5928e-11
9.81142e-09
4.60956e-11
9.79599e-09
4.62856e-11
9.7805e-09
4.64977e-11
9.76493e-09
4.67321e-11
9.74927e-09
4.69894e-11
9.73352e-09
4.72706e-11
9.71766e-09
4.75777e-11
9.7017e-09
4.79129e-11
9.68561e-09
4.82796e-11
9.66939e-09
4.86827e-11
9.65302e-09
4.91281e-11
9.63649e-09
4.96241e-11
9.61977e-09
5.01812e-11
9.60285e-09
5.08136e-11
9.58568e-09
5.15393e-11
9.56825e-09
5.23825e-11
9.55048e-09
5.33746e-11
9.53233e-09
5.45569e-11
9.51371e-09
5.59843e-11
9.49452e-09
5.77297e-11
9.47463e-09
5.98914e-11
9.45386e-09
6.26026e-11
9.43197e-09
6.60466e-11
9.40865e-09
7.048e-11
9.38346e-09
7.62688e-11
9.35581e-09
8.39494e-11
9.32486e-09
9.43328e-11
9.28937e-09
1.08698e-10
9.24754e-09
1.29167e-10
9.19656e-09
1.59501e-10
9.132e-09
2.06926e-10
9.04713e-09
2.86695e-10
8.93526e-09
4.34026e-10
7.31481e-10
8.81996e-09
2.66121e-10
-9.7975e-10
5.34036e-10
-9.86155e-10
8.03485e-10
-9.91796e-10
1.0742e-09
-9.96658e-10
1.34591e-09
-1.00072e-09
1.61833e-09
-1.00398e-09
1.89119e-09
-1.00647e-09
2.1642e-09
-1.0082e-09
2.43709e-09
-1.00924e-09
2.70958e-09
-1.00962e-09
2.98142e-09
-1.00939e-09
3.25234e-09
-1.00861e-09
3.52209e-09
-1.00732e-09
3.79045e-09
-1.00556e-09
4.05719e-09
-1.00336e-09
4.32211e-09
-1.00076e-09
4.58501e-09
-9.97774e-10
4.84575e-09
-9.94426e-10
5.10419e-09
-9.90736e-10
5.36023e-09
-9.86738e-10
5.6138e-09
-9.82483e-10
5.86487e-09
-9.78052e-10
6.11342e-09
-9.73559e-10
6.35949e-09
-9.69153e-10
6.60309e-09
-9.6502e-10
6.84432e-09
-9.61379e-10
7.08327e-09
-9.58484e-10
7.32011e-09
-9.56616e-10
7.55504e-09
-9.56087e-10
7.78839e-09
-9.57238e-10
8.02055e-09
-9.6044e-10
8.25206e-09
-9.66109e-10
8.48355e-09
-9.7471e-10
8.71584e-09
-9.86787e-10
8.94983e-09
-1.00298e-09
9.18661e-09
-1.02406e-09
9.42734e-09
-1.05096e-09
9.67332e-09
-1.08483e-09
9.92593e-09
-1.12711e-09
1.01866e-08
-1.17956e-09
1.04567e-08
-1.24438e-09
1.07377e-08
-1.32434e-09
1.10306e-08
-1.42293e-09
1.13361e-08
-1.54456e-09
1.16536e-08
-1.69481e-09
1.1981e-08
-1.88062e-09
1.23132e-08
-2.11054e-09
1.26437e-08
-2.39473e-09
1.29761e-08
-2.74583e-09
1.33823e-08
-3.18523e-09
1.42367e-08
-3.77682e-09
1.3392e-08
-4.77591e-09
1.77274e-08
-3.05347e-09
1.69535e-08
2.21573e-09
1.64493e-08
1.88211e-09
1.60715e-08
1.63459e-09
1.57544e-08
1.45305e-09
1.54678e-08
1.31793e-09
1.5199e-08
1.21295e-09
1.49436e-08
1.12698e-09
1.47e-08
1.05323e-09
1.44681e-08
9.87816e-10
1.42477e-08
9.28581e-10
1.40386e-08
8.74285e-10
1.38405e-08
8.24166e-10
1.36528e-08
7.77705e-10
1.3475e-08
7.34509e-10
1.33065e-08
6.94257e-10
1.31469e-08
6.56678e-10
1.29957e-08
6.21535e-10
1.28522e-08
5.88619e-10
1.27161e-08
5.57747e-10
1.2587e-08
5.28752e-10
1.24644e-08
5.0149e-10
1.23479e-08
4.75828e-10
1.22373e-08
4.51648e-10
1.21322e-08
4.28844e-10
1.20324e-08
4.07321e-10
1.19374e-08
3.86992e-10
1.18471e-08
3.67778e-10
1.17612e-08
3.4961e-10
1.16796e-08
3.32421e-10
1.16018e-08
3.16155e-10
1.15279e-08
3.00756e-10
1.14574e-08
2.86176e-10
1.13904e-08
2.72369e-10
1.13266e-08
2.59295e-10
1.12657e-08
2.46913e-10
1.12078e-08
2.35189e-10
1.11526e-08
2.24089e-10
1.10999e-08
2.13582e-10
1.10497e-08
2.03639e-10
1.10018e-08
1.94232e-10
1.0956e-08
1.85335e-10
1.09124e-08
1.76924e-10
1.08706e-08
1.68977e-10
1.08308e-08
1.61471e-10
1.07926e-08
1.54385e-10
1.07561e-08
1.47699e-10
1.07212e-08
1.41396e-10
1.06877e-08
1.35456e-10
1.06556e-08
1.29863e-10
1.06247e-08
1.246e-10
1.05951e-08
1.19651e-10
1.05667e-08
1.15002e-10
1.05393e-08
1.10639e-10
1.05129e-08
1.06546e-10
1.04874e-08
1.02712e-10
1.04629e-08
9.9123e-11
1.04391e-08
9.57676e-11
1.04161e-08
9.26338e-11
1.03939e-08
8.97107e-11
1.03723e-08
8.69876e-11
1.03513e-08
8.44541e-11
1.03309e-08
8.21007e-11
1.03111e-08
7.9918e-11
1.02917e-08
7.78968e-11
1.02728e-08
7.60287e-11
1.02544e-08
7.43058e-11
1.02363e-08
7.27198e-11
1.02185e-08
7.12635e-11
1.02011e-08
6.99299e-11
1.0184e-08
6.87119e-11
1.01672e-08
6.76034e-11
1.01506e-08
6.65981e-11
1.01342e-08
6.56899e-11
1.01181e-08
6.48738e-11
1.01021e-08
6.41439e-11
1.00863e-08
6.34956e-11
1.00706e-08
6.29239e-11
1.0055e-08
6.24245e-11
1.00395e-08
6.1993e-11
1.00242e-08
6.16255e-11
1.00089e-08
6.13181e-11
9.99362e-09
6.1067e-11
9.97843e-09
6.08694e-11
9.96327e-09
6.07215e-11
9.94814e-09
6.06208e-11
9.93302e-09
6.05644e-11
9.9179e-09
6.05499e-11
9.90277e-09