/*--------------------------------*- C++ -*----------------------------------*\
  =========                 |
  \\      /  F ield         | OpenFOAM: The Open Source CFD Toolbox
   \\    /   O peration     | Website:  https://openfoam.org
    \\  /    A nd           | Version:  10
     \\/     M anipulation  |
\*---------------------------------------------------------------------------*/
FoamFile
{
    format      ascii;
    class       volScalarField;
    location    "19200";
    object      p;
}
// * * * * * * * * * * * * * * * * * * * * * * * * * * * * * * * * * * * * * //

dimensions      [1 -1 -2 0 0 0 0];

internalField   nonuniform List<scalar> 
6400
(
111.962
111.998
112.071
112.188
112.361
112.607
117.064
343.839
556.738
733.706
920.03
1102.62
1290.26
1475.5
1661.61
1845.1
2025.38
2198.63
2369.07
2539.62
2709.06
2877.41
3045.11
3211.51
3376.34
3539.1
3698.69
3855.75
4010.83
4163.69
4313.13
4457.35
4554.61
4611.27
4663.71
4710.73
4750.93
4782.84
4805.07
4816.5
4816.5
4805.07
4782.84
4750.93
4710.73
4663.71
4611.27
4554.61
4457.35
4313.13
4163.69
4010.83
3855.75
3698.69
3539.1
3376.34
3211.51
3045.11
2877.41
2709.06
2539.62
2369.07
2198.63
2025.38
1845.1
1661.61
1475.5
1290.26
1102.62
920.03
733.706
556.738
343.839
117.064
112.607
112.361
112.188
112.071
111.998
111.962
111.667
111.702
111.775
111.892
112.064
112.317
112.868
113.111
264.479
439.219
626.146
808.369
996.337
1181.44
1367.71
1551.23
1731.69
1904.75
2075.06
2245.67
2415.11
2583.44
2751.17
2917.58
3082.44
3245.24
3404.81
3561.84
3716.94
3869.85
4019.37
4163.78
4261.33
4318.22
4370.94
4418.27
4458.79
4491.02
4513.5
4525.06
4525.06
4513.5
4491.02
4458.79
4418.27
4370.94
4318.22
4261.33
4163.78
4019.37
3869.85
3716.94
3561.84
3404.81
3245.24
3082.44
2917.58
2751.17
2583.44
2415.11
2245.67
2075.06
1904.75
1731.69
1551.23
1367.71
1181.44
996.337
808.369
626.146
439.219
264.479
113.111
112.868
112.317
112.064
111.892
111.775
111.702
111.667
111.341
111.376
111.449
111.564
111.734
111.984
112.43
112.56
112.535
115.294
303.96
485.226
674.052
858.801
1045.47
1229.05
1409.93
1582.55
1752.55
1923.3
2092.74
2261.03
2428.83
2595.27
2760.18
2923.1
3082.6
3239.57
3394.7
3547.74
3697.44
3842.28
3940.51
3997.92
4051.28
4099.33
4140.63
4173.59
4196.66
4208.56
4208.56
4196.66
4173.59
4140.63
4099.33
4051.28
3997.92
3940.51
3842.28
3697.44
3547.74
3394.7
3239.57
3082.6
2923.1
2760.18
2595.27
2428.83
2261.03
2092.74
1923.3
1752.55
1582.55
1409.93
1229.05
1045.47
858.801
674.052
485.226
303.96
115.294
112.535
112.56
112.43
111.984
111.734
111.564
111.449
111.376
111.341
110.981
111.016
111.087
111.201
111.367
111.606
111.97
112.115
112.155
112.5
112.357
130.032
320.733
504.708
692.171
875.795
1057.54
1229.29
1398.74
1569.79
1739.22
1907.41
2075.36
2241.84
2406.84
2569.99
2729.36
2886.22
3041.39
3194.65
3344.65
3490.23
3589.63
3647.96
3702.42
3751.74
3794.4
3828.68
3852.82
3865.32
3865.32
3852.82
3828.68
3794.4
3751.74
3702.42
3647.96
3589.63
3490.23
3344.65
3194.65
3041.39
2886.22
2729.36
2569.99
2406.84
2241.84
2075.36
1907.41
1739.22
1569.79
1398.74
1229.29
1057.54
875.795
692.171
504.708
320.733
130.032
112.357
112.5
112.155
112.115
111.97
111.606
111.367
111.201
111.087
111.016
110.981
110.584
110.618
110.688
110.799
110.958
111.182
111.482
111.635
111.716
111.967
111.93
112.206
111.99
115.754
304.903
488.424
671.782
841.964
1010.52
1182.14
1351.54
1519.56
1687.76
1854.29
2019.42
2182.97
2342.09
2498.78
2654.02
2807.63
2958.05
3104.72
3205.9
3265.65
3321.83
3373.15
3418
3454.42
3480.32
3493.82
3493.82
3480.32
3454.42
3418
3373.15
3321.83
3265.65
3205.9
3104.72
2958.05
2807.63
2654.02
2498.78
2342.09
2182.97
2019.42
1854.29
1687.76
1519.56
1351.54
1182.14
1010.52
841.964
671.782
488.424
304.903
115.754
111.99
112.206
111.93
111.967
111.716
111.635
111.482
111.182
110.958
110.799
110.688
110.618
110.584
110.145
110.178
110.246
110.353
110.505
110.709
110.96
111.114
111.219
111.41
111.434
111.615
111.516
111.712
111.423
111.837
250.696
417.251
584.346
757.119
926.42
1094.1
1262.76
1429.32
1594.62
1758.88
1917.56
2073.96
2229.29
2383.43
2534.37
2682.52
2786.25
2848.05
2906.76
2961.04
3009.2
3049
3077.72
3092.85
3092.85
3077.72
3049
3009.2
2961.04
2906.76
2848.05
2786.25
2682.52
2534.37
2383.43
2229.29
2073.96
1917.56
1758.88
1594.62
1429.32
1262.76
1094.1
926.42
757.119
584.346
417.251
250.696
111.837
111.423
111.712
111.516
111.615
111.434
111.41
111.219
111.114
110.96
110.709
110.505
110.353
110.246
110.178
110.145
109.66
109.692
109.758
109.86
110.002
110.186
110.399
110.549
110.664
110.816
110.873
110.997
110.964
111.065
110.897
110.933
110.709
110.708
115.935
291.322
460.256
627.27
796.814
963.322
1128.8
1294.34
1452.16
1608.12
1763.57
1918.52
2070
2219.98
2327.17
2391.85
2454.09
2512.62
2565.72
2610.76
2644.03
2661.82
2661.82
2644.03
2610.76
2565.72
2512.62
2454.09
2391.85
2327.17
2219.98
2070
1918.52
1763.57
1608.12
1452.16
1294.34
1128.8
963.322
796.814
627.27
460.256
291.322
115.935
110.708
110.709
110.933
110.897
111.065
110.964
110.997
110.873
110.816
110.664
110.549
110.399
110.186
110.002
109.86
109.758
109.692
109.66
109.124
109.155
109.217
109.313
109.444
109.609
109.791
109.934
110.051
110.178
110.249
110.339
110.341
110.391
110.294
110.283
110.146
110.151
110.372
110.043
110.01
114.559
286.229
452.318
617.834
785.896
941.954
1097.24
1252.82
1409.07
1560.88
1712.91
1824.61
1893.25
1960.27
2024.65
2085.03
2138.36
2179.19
2201.46
2201.46
2179.19
2138.36
2085.03
2024.65
1960.27
1893.25
1824.61
1712.91
1560.88
1409.07
1252.82
1097.24
941.954
785.896
617.834
452.318
286.229
114.559
110.01
110.043
110.372
110.151
110.146
110.283
110.294
110.391
110.341
110.339
110.249
110.178
110.051
109.934
109.791
109.609
109.444
109.313
109.217
109.155
109.124
108.531
108.56
108.619
108.708
108.827
108.973
109.13
109.263
109.376
109.486
109.561
109.632
109.651
109.675
109.618
109.59
109.506
109.506
109.602
109.419
109.388
109.544
109.18
109.083
109.489
232.341
382.636
536.85
692.518
851.05
1002.47
1156.39
1273.58
1347.87
1421.03
1492.99
1563.91
1630.86
1684.96
1715.24
1715.24
1684.96
1630.86
1563.91
1492.99
1421.03
1347.87
1273.58
1156.39
1002.47
851.05
692.518
536.85
382.636
232.341
109.489
109.083
109.18
109.544
109.388
109.419
109.602
109.506
109.506
109.59
109.618
109.675
109.651
109.632
109.561
109.486
109.376
109.263
109.13
108.973
108.827
108.708
108.619
108.56
108.531
107.876
107.903
107.957
108.038
108.145
108.274
108.409
108.531
108.638
108.735
108.807
108.867
108.892
108.905
108.871
108.841
108.787
108.779
108.81
108.706
108.672
108.709
108.495
108.403
108.433
108.18
108.053
108.071
109.057
242.085
389.857
544.672
667.545
751.448
831.417
911.51
996.934
1087.57
1167.1
1212.57
1212.57
1167.1
1087.57
996.934
911.51
831.417
751.448
667.545
544.672
389.857
242.085
109.057
108.071
108.053
108.18
108.433
108.403
108.495
108.709
108.672
108.706
108.81
108.779
108.787
108.841
108.871
108.905
108.892
108.867
108.807
108.735
108.638
108.531
108.409
108.274
108.145
108.038
107.957
107.903
107.876
107.15
107.175
107.224
107.298
107.393
107.505
107.622
107.732
107.829
107.916
107.984
108.036
108.062
108.072
108.051
108.025
107.988
107.974
107.972
107.907
107.869
107.852
107.716
107.631
107.594
107.432
107.332
107.33
107.426
107.163
107.044
107.058
107.287
136.619
195.094
273.828
374.655
510.046
642.303
717.361
717.361
642.303
510.046
374.655
273.828
195.094
136.619
107.287
107.058
107.044
107.163
107.426
107.33
107.332
107.432
107.594
107.631
107.716
107.852
107.869
107.907
107.972
107.974
107.988
108.025
108.051
108.072
108.062
108.036
107.984
107.916
107.829
107.732
107.622
107.505
107.393
107.298
107.224
107.175
107.15
106.348
106.37
106.415
106.48
106.563
106.66
106.761
106.858
106.946
107.023
107.085
107.131
107.157
107.165
107.154
107.133
107.106
107.088
107.071
107.024
106.984
106.943
106.848
106.77
106.707
106.595
106.514
106.49
106.496
106.347
106.255
106.243
106.269
106.219
106.167
106.147
106.161
110.637
192.419
297.596
297.596
192.419
110.637
106.161
106.147
106.167
106.219
106.269
106.243
106.255
106.347
106.496
106.49
106.514
106.595
106.707
106.77
106.848
106.943
106.984
107.024
107.071
107.088
107.106
107.133
107.154
107.165
107.157
107.131
107.085
107.023
106.946
106.858
106.761
106.66
106.563
106.48
106.415
106.37
106.348
105.461
105.48
105.519
105.576
105.648
105.731
105.818
105.903
105.98
106.048
106.104
106.145
106.169
106.178
106.172
106.156
106.135
106.115
106.092
106.053
106.012
105.965
105.891
105.82
105.752
105.667
105.597
105.559
105.528
105.433
105.362
105.333
105.321
105.3
105.277
105.264
105.263
105.289
106.124
130.61
130.61
106.124
105.289
105.263
105.264
105.277
105.3
105.321
105.333
105.362
105.433
105.528
105.559
105.597
105.667
105.752
105.82
105.891
105.965
106.012
106.053
106.092
106.115
106.135
106.156
106.172
106.178
106.169
106.145
106.104
106.048
105.98
105.903
105.818
105.731
105.648
105.576
105.519
105.48
105.461
104.48
104.497
104.53
104.579
104.641
104.711
104.785
104.858
104.925
104.985
105.033
105.07
105.092
105.102
105.099
105.087
105.069
105.049
105.024
104.99
104.949
104.902
104.84
104.776
104.712
104.642
104.581
104.534
104.49
104.423
104.365
104.329
104.31
104.296
104.282
104.273
104.268
104.268
104.302
109.631
109.631
104.302
104.268
104.268
104.273
104.282
104.296
104.31
104.329
104.365
104.423
104.49
104.534
104.581
104.642
104.712
104.776
104.84
104.902
104.949
104.99
105.024
105.049
105.069
105.087
105.099
105.102
105.092
105.07
105.033
104.985
104.925
104.858
104.785
104.711
104.641
104.579
104.53
104.497
104.48
103.395
103.41
103.439
103.48
103.532
103.591
103.653
103.714
103.772
103.823
103.865
103.897
103.918
103.927
103.926
103.917
103.902
103.883
103.858
103.826
103.787
103.742
103.689
103.632
103.573
103.513
103.458
103.41
103.363
103.309
103.261
103.225
103.204
103.192
103.182
103.173
103.167
103.162
103.151
105.75
105.75
103.151
103.162
103.167
103.173
103.182
103.192
103.204
103.225
103.261
103.309
103.363
103.41
103.458
103.513
103.573
103.632
103.689
103.742
103.787
103.826
103.858
103.883
103.902
103.917
103.926
103.927
103.918
103.897
103.865
103.823
103.772
103.714
103.653
103.591
103.532
103.48
103.439
103.41
103.395
102.197
102.21
102.234
102.268
102.311
102.359
102.411
102.463
102.511
102.554
102.59
102.617
102.636
102.645
102.645
102.638
102.625
102.606
102.582
102.552
102.517
102.475
102.428
102.378
102.325
102.273
102.222
102.176
102.131
102.085
102.044
102.009
101.989
101.978
101.969
101.96
101.953
101.948
101.936
103.929
103.929
101.936
101.948
101.953
101.96
101.969
101.978
101.989
102.009
102.044
102.085
102.131
102.176
102.222
102.273
102.325
102.378
102.428
102.475
102.517
102.552
102.582
102.606
102.625
102.638
102.645
102.645
102.636
102.617
102.59
102.554
102.511
102.463
102.411
102.359
102.311
102.268
102.234
102.21
102.197
100.791
100.801
100.82
100.848
100.882
100.921
100.963
101.005
101.044
101.079
101.109
101.132
101.147
101.155
101.156
101.15
101.138
101.121
101.099
101.072
101.039
101.002
100.961
100.916
100.87
100.824
100.779
100.736
100.694
100.654
100.618
100.587
100.568
100.558
100.549
100.54
100.534
100.528
100.516
102.411
102.411
100.516
100.528
100.534
100.54
100.549
100.558
100.568
100.587
100.618
100.654
100.694
100.736
100.779
100.824
100.87
100.916
100.961
101.002
101.039
101.072
101.099
101.121
101.138
101.15
101.156
101.155
101.147
101.132
101.109
101.079
101.044
101.005
100.963
100.921
100.882
100.848
100.82
100.801
100.791
99.2301
99.2379
99.2531
99.2748
99.3019
99.3326
99.3654
99.3983
99.4297
99.4579
99.4817
99.5002
99.5128
99.5193
99.5197
99.5143
99.5037
99.4882
99.4679
99.4431
99.414
99.3809
99.3444
99.3055
99.2651
99.2242
99.184
99.1451
99.1077
99.0724
99.04
99.0117
98.9945
98.9848
98.9761
98.9683
98.9615
98.9557
98.9436
100.872
100.872
98.9436
98.9557
98.9615
98.9683
98.9761
98.9848
98.9945
99.0117
99.04
99.0724
99.1077
99.1451
99.184
99.2242
99.2651
99.3055
99.3444
99.3809
99.414
99.4431
99.4679
99.4882
99.5037
99.5143
99.5197
99.5193
99.5128
99.5002
99.4817
99.4579
99.4297
99.3983
99.3654
99.3326
99.3019
99.2748
99.2531
99.2379
99.2301
97.6613
97.6674
97.6794
97.6964
97.7177
97.7419
97.7677
97.7937
97.8185
97.8409
97.8599
97.8746
97.8845
97.8894
97.8892
97.8841
97.8743
97.86
97.8415
97.8189
97.7927
97.7631
97.7307
97.6962
97.6604
97.6241
97.5881
97.553
97.5193
97.4874
97.4582
97.4322
97.4162
97.407
97.3987
97.3912
97.3845
97.3786
97.3665
99.3514
99.3514
97.3665
97.3786
97.3845
97.3912
97.3987
97.407
97.4162
97.4322
97.4582
97.4874
97.5193
97.553
97.5881
97.6241
97.6604
97.6962
97.7307
97.7631
97.7927
97.8189
97.8415
97.86
97.8743
97.8841
97.8892
97.8894
97.8845
97.8746
97.8599
97.8409
97.8185
97.7937
97.7677
97.7419
97.7177
97.6964
97.6794
97.6674
97.6613
96.0863
96.0911
96.1005
96.1139
96.1306
96.1496
96.1698
96.1903
96.2098
96.2274
96.2423
96.2538
96.2613
96.2647
96.2637
96.2586
96.2493
96.236
96.219
96.1985
96.1747
96.1481
96.1191
96.0883
96.0563
96.0238
95.9913
95.9595
95.9289
95.8999
95.8732
95.8491
95.8339
95.8252
95.8172
95.8099
95.8033
95.7973
95.7851
97.8349
97.8349
95.7851
95.7973
95.8033
95.8099
95.8172
95.8252
95.8339
95.8491
95.8732
95.8999
95.9289
95.9595
95.9913
96.0238
96.0563
96.0883
96.1191
96.1481
96.1747
96.1985
96.219
96.236
96.2493
96.2586
96.2637
96.2647
96.2613
96.2538
96.2423
96.2274
96.2098
96.1903
96.1698
96.1496
96.1306
96.1139
96.1005
96.0911
96.0863
94.5064
94.5102
94.5175
94.528
94.5411
94.556
94.5718
94.5878
94.603
94.6167
94.6282
94.6368
94.6423
94.6442
94.6425
94.6372
94.6282
94.6158
94.6001
94.5813
94.5597
94.5355
94.5094
94.4816
94.4527
94.4233
94.3938
94.3649
94.3368
94.3102
94.2854
94.2629
94.2484
94.2401
94.2323
94.2251
94.2185
94.2124
94.2001
96.3209
96.3209
94.2001
94.2124
94.2185
94.2251
94.2323
94.2401
94.2484
94.2629
94.2854
94.3102
94.3368
94.3649
94.3938
94.4233
94.4527
94.4816
94.5094
94.5355
94.5597
94.5813
94.6001
94.6158
94.6282
94.6372
94.6425
94.6442
94.6423
94.6368
94.6282
94.6167
94.603
94.5878
94.5718
94.556
94.5411
94.528
94.5175
94.5102
94.5064
92.9228
92.9257
92.9315
92.9396
92.9498
92.9613
92.9737
92.986
92.9977
93.0082
93.0168
93.0231
93.0267
93.0274
93.0249
93.0194
93.0106
92.9989
92.9842
92.9669
92.9471
92.925
92.9012
92.8759
92.8497
92.8228
92.7959
92.7693
92.7434
92.7187
92.6954
92.6741
92.6602
92.6521
92.6444
92.6373
92.6306
92.6245
92.6121
94.8102
94.8102
92.6121
92.6245
92.6306
92.6373
92.6444
92.6521
92.6602
92.6741
92.6954
92.7187
92.7434
92.7693
92.7959
92.8228
92.8497
92.8759
92.9012
92.925
92.9471
92.9669
92.9842
92.9989
93.0106
93.0194
93.0249
93.0274
93.0267
93.0231
93.0168
93.0082
92.9977
92.986
92.9737
92.9613
92.9498
92.9396
92.9315
92.9257
92.9228
91.3362
91.3385
91.3429
91.3493
91.3571
91.366
91.3754
91.3849
91.3938
91.4016
91.4078
91.4121
91.4141
91.4136
91.4105
91.4047
91.3961
91.3849
91.3711
91.355
91.3366
91.3164
91.2945
91.2713
91.2472
91.2225
91.1976
91.1729
91.1488
91.1256
91.1036
91.0831
91.0696
91.0617
91.0541
91.047
91.0403
91.034
91.0214
93.3041
93.3041
91.0214
91.034
91.0403
91.047
91.0541
91.0617
91.0696
91.0831
91.1036
91.1256
91.1488
91.1729
91.1976
91.2225
91.2472
91.2713
91.2945
91.3164
91.3366
91.355
91.3711
91.3849
91.3961
91.4047
91.4105
91.4136
91.4141
91.4121
91.4078
91.4016
91.3938
91.3849
91.3754
91.366
91.3571
91.3493
91.3429
91.3385
91.3362
89.7474
89.7491
89.7525
89.7574
89.7633
89.7701
89.7772
89.7843
89.7908
89.7964
89.8007
89.8033
89.804
89.8025
89.7988
89.7927
89.7842
89.7734
89.7604
89.7452
89.7281
89.7093
89.689
89.6676
89.6452
89.6223
89.5991
89.576
89.5533
89.5313
89.5103
89.4904
89.4772
89.4693
89.4618
89.4546
89.4478
89.4413
89.4285
91.8043
91.8043
89.4285
89.4413
89.4478
89.4546
89.4618
89.4693
89.4772
89.4904
89.5103
89.5313
89.5533
89.576
89.5991
89.6223
89.6452
89.6676
89.689
89.7093
89.7281
89.7452
89.7604
89.7734
89.7842
89.7927
89.7988
89.8025
89.804
89.8033
89.8007
89.7964
89.7908
89.7843
89.7772
89.7701
89.7633
89.7574
89.7525
89.7491
89.7474
88.1568
88.1581
88.1607
88.1643
88.1688
88.1738
88.1791
88.1842
88.1889
88.1927
88.1953
88.1965
88.1961
88.1937
88.1894
88.1831
88.1747
88.1642
88.1517
88.1374
88.1214
88.1037
88.0848
88.0648
88.0439
88.0224
88.0006
87.9788
87.9572
87.9361
87.9157
87.8963
87.8831
87.8753
87.8677
87.8604
87.8535
87.8468
87.8337
90.3124
90.3124
87.8337
87.8468
87.8535
87.8604
87.8677
87.8753
87.8831
87.8963
87.9157
87.9361
87.9572
87.9788
88.0006
88.0224
88.0439
88.0648
88.0848
88.1037
88.1214
88.1374
88.1517
88.1642
88.1747
88.1831
88.1894
88.1937
88.1961
88.1965
88.1953
88.1927
88.1889
88.1842
88.1791
88.1738
88.1688
88.1643
88.1607
88.1581
88.1568
86.5649
86.5659
86.5678
86.5704
86.5737
86.5774
86.5811
86.5847
86.5877
86.5901
86.5914
86.5914
86.59
86.5869
86.5821
86.5756
86.5672
86.5569
86.545
86.5313
86.5161
86.4995
86.4817
86.4628
86.4431
86.4228
86.4021
86.3813
86.3605
86.3401
86.3202
86.301
86.2878
86.2799
86.2722
86.2648
86.2576
86.2507
86.2373
88.8303
88.8303
86.2373
86.2507
86.2576
86.2648
86.2722
86.2799
86.2878
86.301
86.3202
86.3401
86.3605
86.3813
86.4021
86.4228
86.4431
86.4628
86.4817
86.4995
86.5161
86.5313
86.545
86.5569
86.5672
86.5756
86.5821
86.5869
86.59
86.5914
86.5914
86.5901
86.5877
86.5847
86.5811
86.5774
86.5737
86.5704
86.5678
86.5659
86.5649
84.972
84.9727
84.974
84.9759
84.9783
84.9808
84.9833
84.9856
84.9874
84.9885
84.9886
84.9877
84.9855
84.9818
84.9766
84.9699
84.9615
84.9515
84.9399
84.9268
84.9123
84.8965
84.8796
84.8617
84.8429
84.8235
84.8037
84.7837
84.7635
84.7435
84.7239
84.7048
84.6914
84.6834
84.6756
84.6679
84.6604
84.6532
84.6395
87.3604
87.3604
84.6395
84.6532
84.6604
84.6679
84.6756
84.6834
84.6914
84.7048
84.7239
84.7435
84.7635
84.7837
84.8037
84.8235
84.8429
84.8617
84.8796
84.8965
84.9123
84.9268
84.9399
84.9515
84.9615
84.9699
84.9766
84.9818
84.9855
84.9877
84.9886
84.9885
84.9874
84.9856
84.9833
84.9808
84.9783
84.9759
84.974
84.9727
84.972
83.3784
83.3789
83.3798
83.3811
83.3826
83.3842
83.3857
83.3869
83.3877
83.3878
83.3871
83.3853
83.3824
83.3782
83.3727
83.3658
83.3574
83.3476
83.3363
83.3237
83.3098
83.2947
83.2785
83.2613
83.2434
83.2247
83.2056
83.1861
83.1664
83.1467
83.1271
83.1078
83.0942
83.086
83.0779
83.0699
83.0622
83.0546
83.0405
85.9054
85.9054
83.0405
83.0546
83.0622
83.0699
83.0779
83.086
83.0942
83.1078
83.1271
83.1467
83.1664
83.1861
83.2056
83.2247
83.2434
83.2613
83.2785
83.2947
83.3098
83.3237
83.3363
83.3476
83.3574
83.3658
83.3727
83.3782
83.3824
83.3853
83.3871
83.3878
83.3877
83.3869
83.3857
83.3842
83.3826
83.3811
83.3798
83.3789
83.3784
81.7843
81.7846
81.7852
81.7859
81.7868
81.7877
81.7884
81.7888
81.7887
81.788
81.7865
81.7841
81.7806
81.776
81.7702
81.7631
81.7548
81.7451
81.7341
81.7219
81.7084
81.6939
81.6783
81.6618
81.6445
81.6265
81.6079
81.5888
81.5694
81.5497
81.53
81.5104
81.4964
81.4879
81.4794
81.4711
81.463
81.455
81.4404
84.4687
84.4687
81.4404
81.455
81.463
81.4711
81.4794
81.4879
81.4964
81.5104
81.53
81.5497
81.5694
81.5888
81.6079
81.6265
81.6445
81.6618
81.6783
81.6939
81.7084
81.7219
81.7341
81.7451
81.7548
81.7631
81.7702
81.776
81.7806
81.7841
81.7865
81.788
81.7887
81.7888
81.7884
81.7877
81.7868
81.7859
81.7852
81.7846
81.7843
80.1899
80.1901
80.1904
80.1907
80.1911
80.1913
80.1914
80.1911
80.1903
80.1889
80.1868
80.1839
80.18
80.175
80.169
80.1618
80.1534
80.1439
80.1331
80.1212
80.1082
80.0941
80.0791
80.0631
80.0463
80.0288
80.0106
79.9918
79.9725
79.9528
79.9328
79.9127
79.8981
79.8892
79.8804
79.8716
79.8629
79.8544
79.8392
83.0539
83.0539
79.8392
79.8544
79.8629
79.8716
79.8804
79.8892
79.8981
79.9127
79.9328
79.9528
79.9725
79.9918
80.0106
80.0288
80.0463
80.0631
80.0791
80.0941
80.1082
80.1212
80.1331
80.1439
80.1534
80.1618
80.169
80.175
80.18
80.1839
80.1868
80.1889
80.1903
80.1911
80.1914
80.1913
80.1911
80.1907
80.1904
80.1901
80.1899
78.5954
78.5954
78.5955
78.5955
78.5954
78.5952
78.5947
78.5939
78.5925
78.5906
78.588
78.5846
78.5804
78.5751
78.5689
78.5616
78.5533
78.5438
78.5333
78.5217
78.5091
78.4954
78.4808
78.4653
78.4489
78.4317
78.4138
78.3953
78.376
78.3562
78.3358
78.315
78.2997
78.2903
78.2809
78.2715
78.2622
78.253
78.237
81.6646
81.6646
78.237
78.253
78.2622
78.2715
78.2809
78.2903
78.2997
78.315
78.3358
78.3562
78.376
78.3953
78.4138
78.4317
78.4489
78.4653
78.4808
78.4954
78.5091
78.5217
78.5333
78.5438
78.5533
78.5616
78.5689
78.5751
78.5804
78.5846
78.588
78.5906
78.5925
78.5939
78.5947
78.5952
78.5954
78.5955
78.5955
78.5954
78.5954
77.0008
77.0007
77.0006
77.0004
77
76.9994
76.9984
76.9971
76.9953
76.993
76.99
76.9862
76.9817
76.9763
76.9699
76.9626
76.9543
76.9449
76.9346
76.9232
76.9109
76.8976
76.8834
76.8683
76.8523
76.8355
76.8178
76.7994
76.7802
76.7601
76.7393
76.7176
76.7015
76.6914
76.6812
76.671
76.6608
76.6507
76.6335
80.3024
80.3024
76.6335
76.6507
76.6608
76.671
76.6812
76.6914
76.7015
76.7176
76.7393
76.7601
76.7802
76.7994
76.8178
76.8355
76.8523
76.8683
76.8834
76.8976
76.9109
76.9232
76.9346
76.9449
76.9543
76.9626
76.9699
76.9763
76.9817
76.9862
76.99
76.993
76.9953
76.9971
76.9984
76.9994
77
77.0004
77.0006
77.0007
77.0008
75.4062
75.4061
75.4058
75.4054
75.4047
75.4038
75.4025
75.4009
75.3987
75.396
75.3927
75.3887
75.3839
75.3783
75.3718
75.3645
75.3562
75.347
75.3368
75.3257
75.3137
75.3007
75.2869
75.2721
75.2565
75.24
75.2226
75.2043
75.1851
75.1649
75.1435
75.121
75.1038
75.0929
75.0818
75.0705
75.0591
75.0476
75.0285
78.9567
78.9567
75.0285
75.0476
75.0591
75.0705
75.0818
75.0929
75.1038
75.121
75.1435
75.1649
75.1851
75.2043
75.2226
75.24
75.2565
75.2721
75.2869
75.3007
75.3137
75.3257
75.3368
75.347
75.3562
75.3645
75.3718
75.3783
75.3839
75.3887
75.3927
75.396
75.3987
75.4009
75.4025
75.4038
75.4047
75.4054
75.4058
75.4061
75.4062
73.8118
73.8116
73.8113
73.8106
73.8098
73.8086
73.807
73.8051
73.8027
73.7997
73.7961
73.7919
73.7869
73.7812
73.7747
73.7673
73.7591
73.75
73.7401
73.7292
73.7174
73.7048
73.6912
73.6768
73.6616
73.6454
73.6283
73.6102
73.5911
73.5707
73.549
73.5257
73.5074
73.4957
73.4834
73.4707
73.4575
73.4439
73.4217
77.5563
77.5563
73.4217
73.4439
73.4575
73.4707
73.4834
73.4957
73.5074
73.5257
73.549
73.5707
73.5911
73.6102
73.6283
73.6454
73.6616
73.6768
73.6912
73.7048
73.7174
73.7292
73.7401
73.75
73.7591
73.7673
73.7747
73.7812
73.7869
73.7919
73.7961
73.7997
73.8027
73.8051
73.807
73.8086
73.8098
73.8106
73.8113
73.8116
73.8118
72.2176
72.2174
72.2169
72.2161
72.2151
72.2137
72.212
72.2098
72.2071
72.2039
72.2002
72.1958
72.1907
72.1849
72.1784
72.171
72.1629
72.1539
72.1442
72.1335
72.122
72.1097
72.0965
72.0825
72.0675
72.0517
72.0349
72.0171
71.9982
71.978
71.9562
71.9324
71.9133
71.9009
71.8876
71.8734
71.8581
71.8414
71.8139
75.7801
75.7801
71.8139
71.8414
71.8581
71.8734
71.8876
71.9009
71.9133
71.9324
71.9562
71.978
71.9982
72.0171
72.0349
72.0517
72.0675
72.0825
72.0965
72.1097
72.122
72.1335
72.1442
72.1539
72.1629
72.171
72.1784
72.1849
72.1907
72.1958
72.2002
72.2039
72.2071
72.2098
72.212
72.2137
72.2151
72.2161
72.2169
72.2174
72.2176
70.6236
70.6234
70.6228
70.6219
70.6208
70.6192
70.6173
70.6149
70.6121
70.6088
70.6049
70.6004
70.5952
70.5894
70.5828
70.5756
70.5675
70.5587
70.5491
70.5387
70.5275
70.5155
70.5026
70.4889
70.4744
70.459
70.4426
70.4252
70.4066
70.3867
70.3653
70.3417
70.3227
70.3102
70.2967
70.2819
70.2652
70.2459
70.213
72.5094
72.5094
70.213
70.2459
70.2652
70.2819
70.2967
70.3102
70.3227
70.3417
70.3653
70.3867
70.4066
70.4252
70.4426
70.459
70.4744
70.4889
70.5026
70.5155
70.5275
70.5387
70.5491
70.5587
70.5675
70.5756
70.5828
70.5894
70.5952
70.6004
70.6049
70.6088
70.6121
70.6149
70.6173
70.6192
70.6208
70.6219
70.6228
70.6234
70.6236
69.0299
69.0296
69.029
69.0281
69.0268
69.0251
69.0231
69.0206
69.0176
69.0142
69.0102
69.0056
69.0004
68.9945
68.988
68.9808
68.9729
68.9642
68.9548
68.9447
68.9338
68.9221
68.9096
68.8963
68.8822
68.8672
68.8513
68.8344
68.8164
68.7971
68.7764
68.7539
68.7361
68.7245
68.7124
68.6995
68.6858
68.671
68.6499
68.6443
68.6443
68.6499
68.671
68.6858
68.6995
68.7124
68.7245
68.7361
68.7539
68.7764
68.7971
68.8164
68.8344
68.8513
68.8672
68.8822
68.8963
68.9096
68.9221
68.9338
68.9447
68.9548
68.9642
68.9729
68.9808
68.988
68.9945
69.0004
69.0056
69.0102
69.0142
69.0176
69.0206
69.0231
69.0251
69.0268
69.0281
69.029
69.0296
69.0299
67.4365
67.4362
67.4355
67.4345
67.4332
67.4314
67.4293
67.4267
67.4237
67.4201
67.416
67.4114
67.4062
67.4004
67.3939
67.3868
67.379
67.3705
67.3613
67.3514
67.3408
67.3295
67.3174
67.3045
67.2908
67.2763
67.261
67.2447
67.2274
67.209
67.1893
67.1683
67.1522
67.1421
67.1318
67.1216
67.1116
67.1024
67.0939
67.0896
67.0896
67.0939
67.1024
67.1116
67.1216
67.1318
67.1421
67.1522
67.1683
67.1893
67.209
67.2274
67.2447
67.261
67.2763
67.2908
67.3045
67.3174
67.3295
67.3408
67.3514
67.3613
67.3705
67.379
67.3868
67.3939
67.4004
67.4062
67.4114
67.416
67.4201
67.4237
67.4267
67.4293
67.4314
67.4332
67.4345
67.4355
67.4362
67.4365
65.8435
65.8431
65.8424
65.8414
65.84
65.8381
65.8359
65.8333
65.8302
65.8266
65.8225
65.8178
65.8126
65.8069
65.8005
65.7935
65.7858
65.7775
65.7686
65.7589
65.7486
65.7376
65.7259
65.7134
65.7003
65.6863
65.6716
65.656
65.6395
65.6221
65.6036
65.5841
65.5694
65.5602
65.5511
65.5421
65.5336
65.5257
65.5201
65.5159
65.5159
65.5201
65.5257
65.5336
65.5421
65.5511
65.5602
65.5694
65.5841
65.6036
65.6221
65.6395
65.656
65.6716
65.6863
65.7003
65.7134
65.7259
65.7376
65.7486
65.7589
65.7686
65.7775
65.7858
65.7935
65.8005
65.8069
65.8126
65.8178
65.8225
65.8266
65.8302
65.8333
65.8359
65.8381
65.84
65.8414
65.8424
65.8431
65.8435
64.2507
64.2504
64.2497
64.2486
64.2471
64.2453
64.243
64.2403
64.2372
64.2336
64.2294
64.2248
64.2197
64.2139
64.2076
64.2008
64.1933
64.1852
64.1765
64.1671
64.1571
64.1464
64.1351
64.1232
64.1105
64.0971
64.083
64.0682
64.0526
64.0362
64.0189
64.0007
63.987
63.9784
63.9696
63.9607
63.9518
63.9432
63.9381
63.934
63.934
63.9381
63.9432
63.9518
63.9607
63.9696
63.9784
63.987
64.0007
64.0189
64.0362
64.0526
64.0682
64.083
64.0971
64.1105
64.1232
64.1351
64.1464
64.1571
64.1671
64.1765
64.1852
64.1933
64.2008
64.2076
64.2139
64.2197
64.2248
64.2294
64.2336
64.2372
64.2403
64.243
64.2453
64.2471
64.2486
64.2497
64.2504
64.2507
62.6584
62.658
62.6573
62.6562
62.6547
62.6528
62.6505
62.6478
62.6446
62.641
62.6369
62.6323
62.6272
62.6216
62.6154
62.6087
62.6014
62.5935
62.585
62.5759
62.5662
62.5559
62.545
62.5335
62.5214
62.5086
62.4952
62.4812
62.4665
62.4511
62.4351
62.4183
62.4054
62.3972
62.3886
62.3792
62.3686
62.3558
62.3439
62.3414
62.3414
62.3439
62.3558
62.3686
62.3792
62.3886
62.3972
62.4054
62.4183
62.4351
62.4511
62.4665
62.4812
62.4952
62.5086
62.5214
62.5335
62.545
62.5559
62.5662
62.5759
62.585
62.5935
62.6014
62.6087
62.6154
62.6216
62.6272
62.6323
62.6369
62.641
62.6446
62.6478
62.6505
62.6528
62.6547
62.6562
62.6573
62.658
62.6584
61.0666
61.0662
61.0655
61.0643
61.0628
61.0609
61.0586
61.0559
61.0528
61.0492
61.0451
61.0406
61.0355
61.03
61.0239
61.0173
61.0102
61.0025
60.9943
60.9855
60.9762
60.9663
60.9558
60.9448
60.9332
60.921
60.9083
60.8951
60.8813
60.867
60.8522
60.8369
60.8256
60.8185
60.8114
60.8043
60.7973
60.7908
60.7857
60.7833
60.7833
60.7857
60.7908
60.7973
60.8043
60.8114
60.8185
60.8256
60.8369
60.8522
60.867
60.8813
60.8951
60.9083
60.921
60.9332
60.9448
60.9558
60.9663
60.9762
60.9855
60.9943
61.0025
61.0102
61.0173
61.0239
61.03
61.0355
61.0406
61.0451
61.0492
61.0528
61.0559
61.0586
61.0609
61.0628
61.0643
61.0655
61.0662
61.0666
59.4751
59.4748
59.474
59.4729
59.4714
59.4695
59.4672
59.4645
59.4614
59.4578
59.4538
59.4493
59.4444
59.4389
59.433
59.4266
59.4196
59.4122
59.4042
59.3957
59.3867
59.3772
59.3671
59.3565
59.3455
59.3339
59.3219
59.3095
59.2966
59.2833
59.2698
59.2561
59.2462
59.2402
59.2343
59.2286
59.2232
59.2184
59.2142
59.2119
59.2119
59.2142
59.2184
59.2232
59.2286
59.2343
59.2402
59.2462
59.2561
59.2698
59.2833
59.2966
59.3095
59.3219
59.3339
59.3455
59.3565
59.3671
59.3772
59.3867
59.3957
59.4042
59.4122
59.4196
59.4266
59.433
59.4389
59.4444
59.4493
59.4538
59.4578
59.4614
59.4645
59.4672
59.4695
59.4714
59.4729
59.474
59.4748
59.4751
57.8841
57.8837
57.883
57.8818
57.8803
57.8785
57.8762
57.8735
57.8704
57.8669
57.8629
57.8585
57.8537
57.8484
57.8426
57.8363
57.8296
57.8223
57.8146
57.8064
57.7977
57.7886
57.7789
57.7688
57.7583
57.7473
57.736
57.7243
57.7122
57.7
57.6876
57.6752
57.6665
57.6612
57.6561
57.6512
57.6466
57.6424
57.6385
57.6362
57.6362
57.6385
57.6424
57.6466
57.6512
57.6561
57.6612
57.6665
57.6752
57.6876
57.7
57.7122
57.7243
57.736
57.7473
57.7583
57.7688
57.7789
57.7886
57.7977
57.8064
57.8146
57.8223
57.8296
57.8363
57.8426
57.8484
57.8537
57.8585
57.8629
57.8669
57.8704
57.8735
57.8762
57.8785
57.8803
57.8818
57.883
57.8837
57.8841
56.2934
56.293
56.2923
56.2912
56.2897
56.2878
56.2856
56.2829
56.2799
56.2764
56.2725
56.2682
56.2634
56.2583
56.2526
56.2465
56.24
56.233
56.2255
56.2176
56.2092
56.2004
56.1912
56.1816
56.1715
56.1611
56.1504
56.1394
56.1281
56.1167
56.1053
56.094
56.0861
56.0814
56.0768
56.0724
56.0682
56.0642
56.0605
56.0582
56.0582
56.0605
56.0642
56.0682
56.0724
56.0768
56.0814
56.0861
56.094
56.1053
56.1167
56.1281
56.1394
56.1504
56.1611
56.1715
56.1816
56.1912
56.2004
56.2092
56.2176
56.2255
56.233
56.24
56.2465
56.2526
56.2583
56.2634
56.2682
56.2725
56.2764
56.2799
56.2829
56.2856
56.2878
56.2897
56.2912
56.2923
56.293
56.2934
54.703
54.7027
54.702
54.7009
54.6994
54.6976
54.6953
54.6927
54.6897
54.6863
54.6825
54.6783
54.6737
54.6686
54.6631
54.6572
54.6508
54.6441
54.6369
54.6292
54.6212
54.6127
54.6039
54.5947
54.5851
54.5752
54.5651
54.5547
54.5442
54.5335
54.5229
54.5125
54.5053
54.5009
54.4966
54.4925
54.4885
54.4848
54.4811
54.4789
54.4789
54.4811
54.4848
54.4885
54.4925
54.4966
54.5009
54.5053
54.5125
54.5229
54.5335
54.5442
54.5547
54.5651
54.5752
54.5851
54.5947
54.6039
54.6127
54.6212
54.6292
54.6369
54.6441
54.6508
54.6572
54.6631
54.6686
54.6737
54.6783
54.6825
54.6863
54.6897
54.6927
54.6953
54.6976
54.6994
54.7009
54.702
54.7027
54.703
53.1131
53.1127
53.112
53.1109
53.1095
53.1077
53.1055
53.1029
53.1
53.0967
53.0929
53.0888
53.0843
53.0794
53.074
53.0683
53.0621
53.0556
53.0486
53.0413
53.0335
53.0254
53.017
53.0081
52.999
52.9896
52.98
52.9702
52.9603
52.9503
52.9404
52.9307
52.9238