/*--------------------------------*- C++ -*----------------------------------*\
  =========                 |
  \\      /  F ield         | OpenFOAM: The Open Source CFD Toolbox
   \\    /   O peration     | Website:  https://openfoam.org
    \\  /    A nd           | Version:  10
     \\/     M anipulation  |
\*---------------------------------------------------------------------------*/
FoamFile
{
    format      ascii;
    class       volVectorField;
    location    "19200";
    object      Ua;
}
// * * * * * * * * * * * * * * * * * * * * * * * * * * * * * * * * * * * * * //

dimensions      [0 1 -1 0 0 0 0];

internalField   nonuniform List<vector> 
6400
(
(-7.13824e-07 1.45098e-07 0)
(-2.19146e-06 1.5526e-07 0)
(-3.83729e-06 1.79284e-07 0)
(-5.83518e-06 2.26826e-07 0)
(-8.42505e-06 2.99615e-07 0)
(-7.8529e-06 -3.80406e-07 0)
(-2.98401e-06 6.28875e-05 0)
(-9.95832e-08 8.73833e-07 0)
(-2.7017e-08 2.44598e-07 0)
(-1.3563e-08 1.25714e-07 0)
(-9.40786e-09 8.13105e-08 0)
(-7.03105e-09 5.90477e-08 0)
(-5.62614e-09 4.58402e-08 0)
(-4.61813e-09 3.72789e-08 0)
(-3.90445e-09 3.12873e-08 0)
(-3.33355e-09 2.69047e-08 0)
(-2.86027e-09 2.35642e-08 0)
(-2.48594e-09 2.09675e-08 0)
(-2.23136e-09 1.88854e-08 0)
(-2.03441e-09 1.71876e-08 0)
(-1.86394e-09 1.57908e-08 0)
(-1.72259e-09 1.46223e-08 0)
(-1.60185e-09 1.36314e-08 0)
(-1.49409e-09 1.27929e-08 0)
(-1.39704e-09 1.20661e-08 0)
(-1.30601e-09 1.14343e-08 0)
(-1.22421e-09 1.08901e-08 0)
(-1.15638e-09 1.04149e-08 0)
(-1.09722e-09 1.00016e-08 0)
(-1.03904e-09 9.63296e-09 0)
(-9.76629e-10 9.30447e-09 0)
(-9.0113e-10 9.01402e-09 0)
(-8.31021e-10 8.7731e-09 0)
(-7.70186e-10 8.67455e-09 0)
(-6.9567e-10 8.58514e-09 0)
(-6.05181e-10 8.50662e-09 0)
(-4.97202e-10 8.4401e-09 0)
(-3.71623e-10 8.38955e-09 0)
(-2.30292e-10 8.35671e-09 0)
(-7.8032e-11 8.32936e-09 0)
(7.8032e-11 8.32936e-09 0)
(2.30292e-10 8.35671e-09 0)
(3.71623e-10 8.38955e-09 0)
(4.97202e-10 8.4401e-09 0)
(6.05181e-10 8.50662e-09 0)
(6.9567e-10 8.58514e-09 0)
(7.70186e-10 8.67455e-09 0)
(8.31021e-10 8.7731e-09 0)
(9.0113e-10 9.01402e-09 0)
(9.76629e-10 9.30447e-09 0)
(1.03904e-09 9.63296e-09 0)
(1.09722e-09 1.00016e-08 0)
(1.15638e-09 1.04149e-08 0)
(1.22421e-09 1.08901e-08 0)
(1.30601e-09 1.14343e-08 0)
(1.39704e-09 1.20661e-08 0)
(1.49409e-09 1.27929e-08 0)
(1.60185e-09 1.36314e-08 0)
(1.72259e-09 1.46223e-08 0)
(1.86394e-09 1.57908e-08 0)
(2.03441e-09 1.71876e-08 0)
(2.23136e-09 1.88854e-08 0)
(2.48594e-09 2.09675e-08 0)
(2.86027e-09 2.35642e-08 0)
(3.33355e-09 2.69047e-08 0)
(3.90445e-09 3.12873e-08 0)
(4.61813e-09 3.72789e-08 0)
(5.62614e-09 4.58402e-08 0)
(7.03105e-09 5.90477e-08 0)
(9.40786e-09 8.13105e-08 0)
(1.3563e-08 1.25714e-07 0)
(2.7017e-08 2.44598e-07 0)
(9.95832e-08 8.73833e-07 0)
(2.98401e-06 6.28875e-05 0)
(7.8529e-06 -3.80406e-07 0)
(8.42505e-06 2.99615e-07 0)
(5.83518e-06 2.26826e-07 0)
(3.83729e-06 1.79284e-07 0)
(2.19146e-06 1.5526e-07 0)
(7.13824e-07 1.45098e-07 0)
(-7.11658e-07 4.48861e-07 0)
(-2.18418e-06 4.80156e-07 0)
(-3.82203e-06 5.54093e-07 0)
(-5.80953e-06 7.01241e-07 0)
(-8.55784e-06 9.64378e-07 0)
(-1.61705e-05 5.71287e-07 0)
(-1.30525e-05 2.18312e-05 0)
(-2.20509e-06 8.33032e-06 0)
(-2.61191e-07 1.08749e-06 0)
(-5.29975e-08 3.47198e-07 0)
(-2.78015e-08 1.66733e-07 0)
(-1.87719e-08 1.10525e-07 0)
(-1.43601e-08 8.21736e-08 0)
(-1.1475e-08 6.53788e-08 0)
(-9.55424e-09 5.40972e-08 0)
(-8.07194e-09 4.61119e-08 0)
(-6.87307e-09 4.01155e-08 0)
(-5.93795e-09 3.55797e-08 0)
(-5.31454e-09 3.19735e-08 0)
(-4.83473e-09 2.90305e-08 0)
(-4.41967e-09 2.66289e-08 0)
(-4.07851e-09 2.46302e-08 0)
(-3.78842e-09 2.29364e-08 0)
(-3.53032e-09 2.15082e-08 0)
(-3.29942e-09 2.02742e-08 0)
(-3.08266e-09 1.92018e-08 0)
(-2.88795e-09 1.82854e-08 0)
(-2.72763e-09 1.74861e-08 0)
(-2.58841e-09 1.67889e-08 0)
(-2.45188e-09 1.61659e-08 0)
(-2.30648e-09 1.56111e-08 0)
(-2.13222e-09 1.51169e-08 0)
(-1.97066e-09 1.47031e-08 0)
(-1.83002e-09 1.45313e-08 0)
(-1.65699e-09 1.43748e-08 0)
(-1.44556e-09 1.42368e-08 0)
(-1.19127e-09 1.41197e-08 0)
(-8.92907e-10 1.40303e-08 0)
(-5.54506e-10 1.39712e-08 0)
(-1.881e-10 1.39237e-08 0)
(1.881e-10 1.39237e-08 0)
(5.54506e-10 1.39712e-08 0)
(8.92907e-10 1.40303e-08 0)
(1.19127e-09 1.41197e-08 0)
(1.44556e-09 1.42368e-08 0)
(1.65699e-09 1.43748e-08 0)
(1.83002e-09 1.45313e-08 0)
(1.97066e-09 1.47031e-08 0)
(2.13222e-09 1.51169e-08 0)
(2.30648e-09 1.56111e-08 0)
(2.45188e-09 1.61659e-08 0)
(2.58841e-09 1.67889e-08 0)
(2.72763e-09 1.74861e-08 0)
(2.88795e-09 1.82854e-08 0)
(3.08266e-09 1.92018e-08 0)
(3.29942e-09 2.02742e-08 0)
(3.53032e-09 2.15082e-08 0)
(3.78842e-09 2.29364e-08 0)
(4.07851e-09 2.46302e-08 0)
(4.41967e-09 2.66289e-08 0)
(4.83473e-09 2.90305e-08 0)
(5.31454e-09 3.19735e-08 0)
(5.93795e-09 3.55797e-08 0)
(6.87307e-09 4.01155e-08 0)
(8.07194e-09 4.61119e-08 0)
(9.55424e-09 5.40972e-08 0)
(1.1475e-08 6.53788e-08 0)
(1.43601e-08 8.21736e-08 0)
(1.87719e-08 1.10525e-07 0)
(2.78015e-08 1.66733e-07 0)
(5.29975e-08 3.47198e-07 0)
(2.61191e-07 1.08749e-06 0)
(2.20509e-06 8.33032e-06 0)
(1.30525e-05 2.18312e-05 0)
(1.61705e-05 5.71287e-07 0)
(8.55784e-06 9.64378e-07 0)
(5.80953e-06 7.01241e-07 0)
(3.82203e-06 5.54093e-07 0)
(2.18418e-06 4.80156e-07 0)
(7.11658e-07 4.48861e-07 0)
(-7.06718e-07 7.80345e-07 0)
(-2.16757e-06 8.34206e-07 0)
(-3.78708e-06 9.61235e-07 0)
(-5.74176e-06 1.2152e-06 0)
(-8.44628e-06 1.72451e-06 0)
(-1.40114e-05 2.86928e-06 0)
(-1.1598e-05 1.82479e-05 0)
(-2.10001e-06 1.51251e-05 0)
(-3.2377e-06 2.98975e-06 0)
(-3.90419e-06 1.324e-05 0)
(-1.81759e-07 7.15568e-07 0)
(-5.09204e-08 3.30449e-07 0)
(-3.07438e-08 1.92311e-07 0)
(-2.23205e-08 1.40051e-07 0)
(-1.77822e-08 1.1092e-07 0)
(-1.46422e-08 9.23214e-08 0)
(-1.22618e-08 7.90914e-08 0)
(-1.04628e-08 6.95644e-08 0)
(-9.31656e-09 6.21596e-08 0)
(-8.44309e-09 5.61741e-08 0)
(-7.68647e-09 5.13613e-08 0)
(-7.07579e-09 4.73954e-08 0)
(-6.56099e-09 4.40497e-08 0)
(-6.10459e-09 4.12468e-08 0)
(-5.70108e-09 3.88394e-08 0)
(-5.32076e-09 3.67521e-08 0)
(-4.97912e-09 3.49847e-08 0)
(-4.70226e-09 3.34469e-08 0)
(-4.46395e-09 3.21035e-08 0)
(-4.23076e-09 3.09035e-08 0)
(-3.98556e-09 2.98389e-08 0)
(-3.69755e-09 2.88897e-08 0)
(-3.43137e-09 2.80927e-08 0)
(-3.19778e-09 2.77621e-08 0)
(-2.90782e-09 2.74632e-08 0)
(-2.54942e-09 2.72025e-08 0)
(-2.11222e-09 2.69845e-08 0)
(-1.59117e-09 2.68199e-08 0)
(-9.91951e-10 2.67109e-08 0)
(-3.37187e-10 2.66236e-08 0)
(3.37187e-10 2.66236e-08 0)
(9.91951e-10 2.67109e-08 0)
(1.59117e-09 2.68199e-08 0)
(2.11222e-09 2.69845e-08 0)
(2.54942e-09 2.72025e-08 0)
(2.90782e-09 2.74632e-08 0)
(3.19778e-09 2.77621e-08 0)
(3.43137e-09 2.80927e-08 0)
(3.69755e-09 2.88897e-08 0)
(3.98556e-09 2.98389e-08 0)
(4.23076e-09 3.09035e-08 0)
(4.46395e-09 3.21035e-08 0)
(4.70226e-09 3.34469e-08 0)
(4.97912e-09 3.49847e-08 0)
(5.32076e-09 3.67521e-08 0)
(5.70108e-09 3.88394e-08 0)
(6.10459e-09 4.12468e-08 0)
(6.56099e-09 4.40497e-08 0)
(7.07579e-09 4.73954e-08 0)
(7.68647e-09 5.13613e-08 0)
(8.44309e-09 5.61741e-08 0)
(9.31656e-09 6.21596e-08 0)
(1.04628e-08 6.95644e-08 0)
(1.22618e-08 7.90914e-08 0)
(1.46422e-08 9.23214e-08 0)
(1.77822e-08 1.1092e-07 0)
(2.23205e-08 1.40051e-07 0)
(3.07438e-08 1.92311e-07 0)
(5.09204e-08 3.30449e-07 0)
(1.81759e-07 7.15568e-07 0)
(3.90419e-06 1.324e-05 0)
(3.2377e-06 2.98975e-06 0)
(2.10001e-06 1.51251e-05 0)
(1.1598e-05 1.82479e-05 0)
(1.40114e-05 2.86928e-06 0)
(8.44628e-06 1.72451e-06 0)
(5.74176e-06 1.2152e-06 0)
(3.78708e-06 9.61235e-07 0)
(2.16757e-06 8.34206e-07 0)
(7.06718e-07 7.80345e-07 0)
(-6.98328e-07 1.14047e-06 0)
(-2.13941e-06 1.21784e-06 0)
(-3.72774e-06 1.39965e-06 0)
(-5.62041e-06 1.76243e-06 0)
(-8.14458e-06 2.51566e-06 0)
(-1.21434e-05 4.51153e-06 0)
(-1.0249e-05 1.55074e-05 0)
(-3.72063e-06 1.3792e-05 0)
(-7.73452e-06 5.6916e-06 0)
(-4.06275e-06 2.32835e-05 0)
(-1.03979e-06 3.34932e-06 0)
(-4.04963e-06 1.39591e-05 0)
(-1.7778e-07 6.85503e-07 0)
(-5.56241e-08 3.60657e-07 0)
(-3.41772e-08 2.19468e-07 0)
(-2.53411e-08 1.65686e-07 0)
(-2.01182e-08 1.35162e-07 0)
(-1.65941e-08 1.15963e-07 0)
(-1.4565e-08 1.02056e-07 0)
(-1.30762e-08 9.12525e-08 0)
(-1.18019e-08 8.28724e-08 0)
(-1.08129e-08 7.61235e-08 0)
(-9.99438e-09 7.04994e-08 0)
(-9.27354e-09 6.58501e-08 0)
(-8.6496e-09 6.18951e-08 0)
(-8.0569e-09 5.84782e-08 0)
(-7.52432e-09 5.56272e-08 0)
(-7.10512e-09 5.3156e-08 0)
(-6.74951e-09 5.09963e-08 0)
(-6.40187e-09 4.90691e-08 0)
(-6.04361e-09 4.73714e-08 0)
(-5.6385e-09 4.58572e-08 0)
(-5.26667e-09 4.45816e-08 0)
(-4.93522e-09 4.40532e-08 0)
(-4.5175e-09 4.35797e-08 0)
(-3.99152e-09 4.31712e-08 0)
(-3.33501e-09 4.28335e-08 0)
(-2.53253e-09 4.25789e-08 0)
(-1.58864e-09 4.2408e-08 0)
(-5.41831e-10 4.22728e-08 0)
(5.41831e-10 4.22728e-08 0)
(1.58864e-09 4.2408e-08 0)
(2.53253e-09 4.25789e-08 0)
(3.33501e-09 4.28335e-08 0)
(3.99152e-09 4.31712e-08 0)
(4.5175e-09 4.35797e-08 0)
(4.93522e-09 4.40532e-08 0)
(5.26667e-09 4.45816e-08 0)
(5.6385e-09 4.58572e-08 0)
(6.04361e-09 4.73714e-08 0)
(6.40187e-09 4.90691e-08 0)
(6.74951e-09 5.09963e-08 0)
(7.10512e-09 5.3156e-08 0)
(7.52432e-09 5.56272e-08 0)
(8.0569e-09 5.84782e-08 0)
(8.6496e-09 6.18951e-08 0)
(9.27354e-09 6.58501e-08 0)
(9.99438e-09 7.04994e-08 0)
(1.08129e-08 7.61235e-08 0)
(1.18019e-08 8.28724e-08 0)
(1.30762e-08 9.12525e-08 0)
(1.4565e-08 1.02056e-07 0)
(1.65941e-08 1.15963e-07 0)
(2.01182e-08 1.35162e-07 0)
(2.53411e-08 1.65686e-07 0)
(3.41772e-08 2.19468e-07 0)
(5.56241e-08 3.60657e-07 0)
(1.7778e-07 6.85503e-07 0)
(4.04963e-06 1.39591e-05 0)
(1.03979e-06 3.34932e-06 0)
(4.06275e-06 2.32835e-05 0)
(7.73452e-06 5.6916e-06 0)
(3.72063e-06 1.3792e-05 0)
(1.0249e-05 1.55074e-05 0)
(1.21434e-05 4.51153e-06 0)
(8.14458e-06 2.51566e-06 0)
(5.62041e-06 1.76243e-06 0)
(3.72774e-06 1.39965e-06 0)
(2.13941e-06 1.21784e-06 0)
(6.98328e-07 1.14047e-06 0)
(-6.85773e-07 1.52951e-06 0)
(-2.09742e-06 1.6306e-06 0)
(-3.63969e-06 1.86662e-06 0)
(-5.43968e-06 2.33263e-06 0)
(-7.70245e-06 3.28815e-06 0)
(-1.05389e-05 5.64603e-06 0)
(-9.11897e-06 1.34471e-05 0)
(-4.70318e-06 1.28022e-05 0)
(-6.68985e-06 8.34239e-06 0)
(-4.31402e-06 1.89489e-05 0)
(-4.79596e-06 7.36802e-06 0)
(-1.20519e-06 2.45146e-05 0)
(-1.15059e-07 3.71514e-06 0)
(-4.65434e-06 1.41283e-05 0)
(-2.52912e-07 8.25461e-07 0)
(-7.1425e-08 4.24288e-07 0)
(-3.88095e-08 2.59469e-07 0)
(-2.73422e-08 1.9497e-07 0)
(-2.25129e-08 1.61252e-07 0)
(-1.95304e-08 1.39304e-07 0)
(-1.7206e-08 1.2409e-07 0)
(-1.55657e-08 1.12658e-07 0)
(-1.42748e-08 1.03498e-07 0)
(-1.31643e-08 9.61727e-08 0)
(-1.22444e-08 9.0074e-08 0)
(-1.13636e-08 8.48527e-08 0)
(-1.05734e-08 8.06075e-08 0)
(-9.98156e-09 7.69515e-08 0)
(-9.49089e-09 7.37636e-08 0)
(-9.01007e-09 7.09253e-08 0)
(-8.52934e-09 6.84579e-08 0)
(-8.02308e-09 6.62603e-08 0)
(-7.56554e-09 6.44009e-08 0)
(-7.14607e-09 6.3632e-08 0)
(-6.60408e-09 6.29501e-08 0)
(-5.90198e-09 6.23679e-08 0)
(-4.99401e-09 6.18864e-08 0)
(-3.83884e-09 6.15156e-08 0)
(-2.43108e-09 6.12568e-08 0)
(-8.33433e-10 6.10577e-08 0)
(8.33433e-10 6.10577e-08 0)
(2.43108e-09 6.12568e-08 0)
(3.83884e-09 6.15156e-08 0)
(4.99401e-09 6.18864e-08 0)
(5.90198e-09 6.23679e-08 0)
(6.60408e-09 6.29501e-08 0)
(7.14607e-09 6.3632e-08 0)
(7.56554e-09 6.44009e-08 0)
(8.02308e-09 6.62603e-08 0)
(8.52934e-09 6.84579e-08 0)
(9.01007e-09 7.09253e-08 0)
(9.49089e-09 7.37636e-08 0)
(9.98156e-09 7.69515e-08 0)
(1.05734e-08 8.06075e-08 0)
(1.13636e-08 8.48527e-08 0)
(1.22444e-08 9.0074e-08 0)
(1.31643e-08 9.61727e-08 0)
(1.42748e-08 1.03498e-07 0)
(1.55657e-08 1.12658e-07 0)
(1.7206e-08 1.2409e-07 0)
(1.95304e-08 1.39304e-07 0)
(2.25129e-08 1.61252e-07 0)
(2.73422e-08 1.9497e-07 0)
(3.88095e-08 2.59469e-07 0)
(7.1425e-08 4.24288e-07 0)
(2.52912e-07 8.25461e-07 0)
(4.65434e-06 1.41283e-05 0)
(1.15059e-07 3.71514e-06 0)
(1.20519e-06 2.45146e-05 0)
(4.79596e-06 7.36802e-06 0)
(4.31402e-06 1.89489e-05 0)
(6.68985e-06 8.34239e-06 0)
(4.70318e-06 1.28022e-05 0)
(9.11897e-06 1.34471e-05 0)
(1.05389e-05 5.64603e-06 0)
(7.70245e-06 3.28815e-06 0)
(5.43968e-06 2.33263e-06 0)
(3.63969e-06 1.86662e-06 0)
(2.09742e-06 1.6306e-06 0)
(6.85773e-07 1.52951e-06 0)
(-6.68366e-07 1.94692e-06 0)
(-2.03951e-06 2.0709e-06 0)
(-3.51974e-06 2.35765e-06 0)
(-5.19947e-06 2.91313e-06 0)
(-7.16545e-06 4.00768e-06 0)
(-9.16539e-06 6.40627e-06 0)
(-8.1513e-06 1.19419e-05 0)
(-5.19994e-06 1.2056e-05 0)
(-5.93986e-06 9.91178e-06 0)
(-4.33463e-06 1.61626e-05 0)
(-4.12242e-06 1.02276e-05 0)
(-1.65063e-06 1.98011e-05 0)
(-1.96328e-06 8.23508e-06 0)
(1.87334e-06 2.45743e-05 0)
(2.82275e-06 4.19834e-06 0)
(-3.39941e-06 9.65765e-06 0)
(-4.86013e-07 1.38679e-06 0)
(-1.08009e-07 5.47389e-07 0)
(-4.91108e-08 3.46949e-07 0)
(-3.35274e-08 2.36156e-07 0)
(-2.63606e-08 1.90848e-07 0)
(-2.25756e-08 1.65033e-07 0)
(-2.00884e-08 1.47439e-07 0)
(-1.81642e-08 1.34815e-07 0)
(-1.6737e-08 1.25011e-07 0)
(-1.53981e-08 1.16929e-07 0)
(-1.42173e-08 1.10707e-07 0)
(-1.34062e-08 1.05441e-07 0)
(-1.27586e-08 1.00901e-07 0)
(-1.21191e-08 9.6886e-08 0)
(-1.15079e-08 9.3483e-08 0)
(-1.09476e-08 9.04682e-08 0)
(-1.04608e-08 8.7904e-08 0)
(-9.98965e-09 8.68443e-08 0)
(-9.35421e-09 8.59196e-08 0)
(-8.49606e-09 8.51372e-08 0)
(-7.3238e-09 8.4475e-08 0)
(-5.73327e-09 8.39285e-08 0)
(-3.68282e-09 8.35146e-08 0)
(-1.27222e-09 8.32106e-08 0)
(1.27222e-09 8.32106e-08 0)
(3.68282e-09 8.35146e-08 0)
(5.73327e-09 8.39285e-08 0)
(7.3238e-09 8.4475e-08 0)
(8.49606e-09 8.51372e-08 0)
(9.35421e-09 8.59196e-08 0)
(9.98965e-09 8.68443e-08 0)
(1.04608e-08 8.7904e-08 0)
(1.09476e-08 9.04682e-08 0)
(1.15079e-08 9.3483e-08 0)
(1.21191e-08 9.6886e-08 0)
(1.27586e-08 1.00901e-07 0)
(1.34062e-08 1.05441e-07 0)
(1.42173e-08 1.10707e-07 0)
(1.53981e-08 1.16929e-07 0)
(1.6737e-08 1.25011e-07 0)
(1.81642e-08 1.34815e-07 0)
(2.00884e-08 1.47439e-07 0)
(2.25756e-08 1.65033e-07 0)
(2.63606e-08 1.90848e-07 0)
(3.35274e-08 2.36156e-07 0)
(4.91108e-08 3.46949e-07 0)
(1.08009e-07 5.47389e-07 0)
(4.86013e-07 1.38679e-06 0)
(3.39941e-06 9.65765e-06 0)
(-2.82275e-06 4.19834e-06 0)
(-1.87334e-06 2.45743e-05 0)
(1.96328e-06 8.23508e-06 0)
(1.65063e-06 1.98011e-05 0)
(4.12242e-06 1.02276e-05 0)
(4.33463e-06 1.61626e-05 0)
(5.93986e-06 9.91178e-06 0)
(5.19994e-06 1.2056e-05 0)
(8.1513e-06 1.19419e-05 0)
(9.16539e-06 6.40627e-06 0)
(7.16545e-06 4.00768e-06 0)
(5.19947e-06 2.91313e-06 0)
(3.51974e-06 2.35765e-06 0)
(2.03951e-06 2.0709e-06 0)
(6.68366e-07 1.94692e-06 0)
(-6.45516e-07 2.39103e-06 0)
(-1.96408e-06 2.53587e-06 0)
(-3.36639e-06 2.86661e-06 0)
(-4.90475e-06 3.49061e-06 0)
(-6.57274e-06 4.65488e-06 0)
(-7.98785e-06 6.90522e-06 0)
(-7.30141e-06 1.08728e-05 0)
(-5.34187e-06 1.14793e-05 0)
(-5.37323e-06 1.07383e-05 0)
(-4.20518e-06 1.44047e-05 0)
(-3.63032e-06 1.17136e-05 0)
(-1.83569e-06 1.68824e-05 0)
(-1.38237e-06 1.10942e-05 0)
(1.34814e-06 1.95108e-05 0)
(2.65779e-06 8.49209e-06 0)
(3.77926e-06 1.68296e-05 0)
(4.52443e-06 4.00896e-06 0)
(-5.59118e-06 2.89039e-06 0)
(-5.89239e-06 1.4869e-05 0)
(-3.43459e-07 9.27226e-07 0)
(-9.2582e-08 4.76927e-07 0)
(-4.66083e-08 3.30457e-07 0)
(-3.29195e-08 2.36796e-07 0)
(-2.66772e-08 1.97215e-07 0)
(-2.33525e-08 1.74432e-07 0)
(-2.07962e-08 1.58745e-07 0)
(-1.87662e-08 1.48328e-07 0)
(-1.7574e-08 1.40119e-07 0)
(-1.66962e-08 1.33401e-07 0)
(-1.58331e-08 1.27641e-07 0)
(-1.50652e-08 1.23024e-07 0)
(-1.45434e-08 1.19004e-07 0)
(-1.41462e-08 1.1558e-07 0)
(-1.37054e-08 1.14157e-07 0)
(-1.30559e-08 1.12959e-07 0)
(-1.21276e-08 1.11962e-07 0)
(-1.0743e-08 1.11057e-07 0)
(-8.64264e-09 1.10188e-07 0)
(-5.66989e-09 1.09438e-07 0)
(-1.98031e-09 1.08919e-07 0)
(1.98031e-09 1.08919e-07 0)
(5.66989e-09 1.09438e-07 0)
(8.64264e-09 1.10188e-07 0)
(1.0743e-08 1.11057e-07 0)
(1.21276e-08 1.11962e-07 0)
(1.30559e-08 1.12959e-07 0)
(1.37054e-08 1.14157e-07 0)
(1.41462e-08 1.1558e-07 0)
(1.45434e-08 1.19004e-07 0)
(1.50652e-08 1.23024e-07 0)
(1.58331e-08 1.27641e-07 0)
(1.66962e-08 1.33401e-07 0)
(1.7574e-08 1.40119e-07 0)
(1.87662e-08 1.48328e-07 0)
(2.07962e-08 1.58745e-07 0)
(2.33525e-08 1.74432e-07 0)
(2.66772e-08 1.97215e-07 0)
(3.29195e-08 2.36796e-07 0)
(4.66083e-08 3.30457e-07 0)
(9.2582e-08 4.76927e-07 0)
(3.43459e-07 9.27226e-07 0)
(5.89239e-06 1.4869e-05 0)
(5.59118e-06 2.89039e-06 0)
(-4.52443e-06 4.00896e-06 0)
(-3.77926e-06 1.68296e-05 0)
(-2.65779e-06 8.49209e-06 0)
(-1.34814e-06 1.95108e-05 0)
(1.38237e-06 1.10942e-05 0)
(1.83569e-06 1.68824e-05 0)
(3.63032e-06 1.17136e-05 0)
(4.20518e-06 1.44047e-05 0)
(5.37323e-06 1.07383e-05 0)
(5.34187e-06 1.14793e-05 0)
(7.30141e-06 1.08728e-05 0)
(7.98785e-06 6.90522e-06 0)
(6.57274e-06 4.65488e-06 0)
(4.90475e-06 3.49061e-06 0)
(3.36639e-06 2.86661e-06 0)
(1.96408e-06 2.53587e-06 0)
(6.45516e-07 2.39103e-06 0)
(-6.16839e-07 2.85894e-06 0)
(-1.87035e-06 3.02121e-06 0)
(-3.18033e-06 3.38607e-06 0)
(-4.56448e-06 4.05289e-06 0)
(-5.95586e-06 5.22302e-06 0)
(-6.97226e-06 7.23244e-06 0)
(-6.5364e-06 1.01335e-05 0)
(-5.2361e-06 1.10204e-05 0)
(-4.90926e-06 1.10815e-05 0)
(-3.9853e-06 1.32896e-05 0)
(-3.25076e-06 1.23402e-05 0)
(-1.86253e-06 1.50817e-05 0)
(-1.04424e-06 1.24168e-05 0)
(9.58678e-07 1.64444e-05 0)
(2.17271e-06 1.06237e-05 0)
(2.97224e-06 1.39907e-05 0)
(2.66103e-06 6.70494e-06 0)
(-4.54546e-06 6.61989e-06 0)
(2.17697e-06 2.49454e-05 0)
(7.2851e-06 3.86329e-06 0)
(-5.27901e-06 3.32132e-06 0)
(-6.27151e-06 1.4526e-05 0)
(-4.05844e-07 9.83852e-07 0)
(-1.09072e-07 5.0346e-07 0)
(-5.35936e-08 3.52526e-07 0)
(-3.4986e-08 2.5628e-07 0)
(-2.70857e-08 2.13191e-07 0)
(-2.38356e-08 1.90246e-07 0)
(-2.20082e-08 1.75917e-07 0)
(-2.05179e-08 1.65602e-07 0)
(-1.93916e-08 1.58529e-07 0)
(-1.90188e-08 1.52868e-07 0)
(-1.89243e-08 1.48236e-07 0)
(-1.86629e-08 1.46252e-07 0)
(-1.81437e-08 1.44756e-07 0)
(-1.73765e-08 1.43583e-07 0)
(-1.60304e-08 1.42339e-07 0)
(-1.34423e-08 1.40772e-07 0)
(-9.09562e-09 1.39185e-07 0)
(-3.22555e-09 1.38142e-07 0)
(3.22555e-09 1.38142e-07 0)
(9.09562e-09 1.39185e-07 0)
(1.34423e-08 1.40772e-07 0)
(1.60304e-08 1.42339e-07 0)
(1.73765e-08 1.43583e-07 0)
(1.81437e-08 1.44756e-07 0)
(1.86629e-08 1.46252e-07 0)
(1.89243e-08 1.48236e-07 0)
(1.90188e-08 1.52868e-07 0)
(1.93916e-08 1.58529e-07 0)
(2.05179e-08 1.65602e-07 0)
(2.20082e-08 1.75917e-07 0)
(2.38356e-08 1.90246e-07 0)
(2.70857e-08 2.13191e-07 0)
(3.4986e-08 2.5628e-07 0)
(5.35936e-08 3.52526e-07 0)
(1.09072e-07 5.0346e-07 0)
(4.05844e-07 9.83852e-07 0)
(6.27151e-06 1.4526e-05 0)
(5.27901e-06 3.32132e-06 0)
(-7.2851e-06 3.86329e-06 0)
(-2.17697e-06 2.49454e-05 0)
(4.54546e-06 6.61989e-06 0)
(-2.66103e-06 6.70494e-06 0)
(-2.97224e-06 1.39907e-05 0)
(-2.17271e-06 1.06237e-05 0)
(-9.58678e-07 1.64444e-05 0)
(1.04424e-06 1.24168e-05 0)
(1.86253e-06 1.50817e-05 0)
(3.25076e-06 1.23402e-05 0)
(3.9853e-06 1.32896e-05 0)
(4.90926e-06 1.10815e-05 0)
(5.2361e-06 1.10204e-05 0)
(6.5364e-06 1.01335e-05 0)
(6.97226e-06 7.23244e-06 0)
(5.95586e-06 5.22302e-06 0)
(4.56448e-06 4.05289e-06 0)
(3.18033e-06 3.38607e-06 0)
(1.87035e-06 3.02121e-06 0)
(6.16839e-07 2.85894e-06 0)
(-5.82253e-07 3.34628e-06 0)
(-1.75862e-06 3.5213e-06 0)
(-2.96454e-06 3.90792e-06 0)
(-4.19011e-06 4.59015e-06 0)
(-5.33849e-06 5.71481e-06 0)
(-6.08776e-06 7.45421e-06 0)
(-5.83388e-06 9.63444e-06 0)
(-4.96631e-06 1.06453e-05 0)
(-4.49468e-06 1.11289e-05 0)
(-3.71421e-06 1.25512e-05 0)
(-2.9377e-06 1.24628e-05 0)
(-1.80192e-06 1.39367e-05 0)
(-8.60527e-07 1.28434e-05 0)
(6.56131e-07 1.45946e-05 0)
(1.70614e-06 1.15553e-05 0)
(2.26256e-06 1.25119e-05 0)
(1.70583e-06 8.54158e-06 0)
(-1.93402e-06 9.13038e-06 0)
(1.74355e-06 1.82596e-05 0)
(4.28916e-06 7.48237e-06 0)
(-2.50909e-06 7.51174e-06 0)
(4.19123e-06 2.41461e-05 0)
(9.27341e-06 3.94503e-06 0)
(-1.89783e-06 3.24769e-06 0)
(-4.65425e-06 9.6261e-06 0)
(-9.23134e-07 1.95537e-06 0)
(-1.77128e-07 6.5263e-07 0)
(-7.46649e-08 4.13938e-07 0)
(-4.36816e-08 3.17553e-07 0)
(-3.17061e-08 2.46328e-07 0)
(-2.66488e-08 2.15071e-07 0)
(-2.54813e-08 1.98859e-07 0)
(-2.57258e-08 1.89575e-07 0)
(-2.5713e-08 1.85381e-07 0)
(-2.53557e-08 1.83103e-07 0)
(-2.52301e-08 1.81749e-07 0)
(-2.47509e-08 1.79936e-07 0)
(-2.21265e-08 1.76555e-07 0)
(-1.56464e-08 1.72606e-07 0)
(-5.65548e-09 1.7017e-07 0)
(5.65548e-09 1.7017e-07 0)
(1.56464e-08 1.72606e-07 0)
(2.21265e-08 1.76555e-07 0)
(2.47509e-08 1.79936e-07 0)
(2.52301e-08 1.81749e-07 0)
(2.53557e-08 1.83103e-07 0)
(2.5713e-08 1.85381e-07 0)
(2.57258e-08 1.89575e-07 0)
(2.54813e-08 1.98859e-07 0)
(2.66488e-08 2.15071e-07 0)
(3.17061e-08 2.46328e-07 0)
(4.36816e-08 3.17553e-07 0)
(7.46649e-08 4.13938e-07 0)
(1.77128e-07 6.5263e-07 0)
(9.23134e-07 1.95537e-06 0)
(4.65425e-06 9.6261e-06 0)
(1.89783e-06 3.24769e-06 0)
(-9.27341e-06 3.94503e-06 0)
(-4.19123e-06 2.41461e-05 0)
(2.50909e-06 7.51174e-06 0)
(-4.28916e-06 7.48237e-06 0)
(-1.74355e-06 1.82596e-05 0)
(1.93402e-06 9.13038e-06 0)
(-1.70583e-06 8.54158e-06 0)
(-2.26256e-06 1.25119e-05 0)
(-1.70614e-06 1.15553e-05 0)
(-6.56131e-07 1.45946e-05 0)
(8.60527e-07 1.28434e-05 0)
(1.80192e-06 1.39367e-05 0)
(2.9377e-06 1.24628e-05 0)
(3.71421e-06 1.25512e-05 0)
(4.49468e-06 1.11289e-05 0)
(4.96631e-06 1.06453e-05 0)
(5.83388e-06 9.63444e-06 0)
(6.08776e-06 7.45421e-06 0)
(5.33849e-06 5.71481e-06 0)
(4.19011e-06 4.59015e-06 0)
(2.96454e-06 3.90792e-06 0)
(1.75862e-06 3.5213e-06 0)
(5.82253e-07 3.34628e-06 0)
(-5.42062e-07 3.84732e-06 0)
(-1.63047e-06 4.0294e-06 0)
(-2.72411e-06 4.42398e-06 0)
(-3.79417e-06 5.0956e-06 0)
(-4.73719e-06 6.13869e-06 0)
(-5.30826e-06 7.61603e-06 0)
(-5.17997e-06 9.30462e-06 0)
(-4.59514e-06 1.03327e-05 0)
(-4.09866e-06 1.10089e-05 0)
(-3.41611e-06 1.20201e-05 0)
(-2.66262e-06 1.23114e-05 0)
(-1.69851e-06 1.31543e-05 0)
(-7.68352e-07 1.27906e-05 0)
(4.12977e-07 1.345e-05 0)
(1.2882e-06 1.18441e-05 0)
(1.69572e-06 1.17958e-05 0)
(1.2441e-06 9.70555e-06 0)
(-4.60412e-07 1.03121e-05 0)
(1.4833e-06 1.46044e-05 0)
(2.77827e-06 9.44901e-06 0)
(-7.26353e-08 9.7709e-06 0)
(3.54895e-06 1.7343e-05 0)
(6.15362e-06 7.36802e-06 0)
(1.26301e-06 6.86495e-06 0)
(4.49907e-06 1.61016e-05 0)
(7.63927e-06 4.76464e-06 0)
(2.19853e-06 2.4056e-06 0)
(-5.81774e-06 2.9939e-06 0)
(-6.10416e-06 1.10232e-05 0)
(-7.60791e-07 1.47273e-06 0)
(-1.70635e-07 5.95817e-07 0)
(-8.30005e-08 4.02426e-07 0)
(-6.16221e-08 3.27147e-07 0)
(-5.14477e-08 2.94905e-07 0)
(-4.27922e-08 2.65595e-07 0)
(-4.04577e-08 2.46786e-07 0)
(-4.17523e-08 2.34528e-07 0)
(-4.0513e-08 2.21778e-07 0)
(-3.01493e-08 2.09237e-07 0)
(-1.10687e-08 2.0266e-07 0)
(1.10687e-08 2.0266e-07 0)
(3.01493e-08 2.09237e-07 0)
(4.0513e-08 2.21778e-07 0)
(4.17523e-08 2.34528e-07 0)
(4.04577e-08 2.46786e-07 0)
(4.27922e-08 2.65595e-07 0)
(5.14477e-08 2.94905e-07 0)
(6.16221e-08 3.27147e-07 0)
(8.30005e-08 4.02426e-07 0)
(1.70635e-07 5.95817e-07 0)
(7.60791e-07 1.47273e-06 0)
(6.10416e-06 1.10232e-05 0)
(5.81774e-06 2.9939e-06 0)
(-2.19853e-06 2.4056e-06 0)
(-7.63927e-06 4.76464e-06 0)
(-4.49907e-06 1.61016e-05 0)
(-1.26301e-06 6.86495e-06 0)
(-6.15362e-06 7.36802e-06 0)
(-3.54895e-06 1.7343e-05 0)
(7.26353e-08 9.7709e-06 0)
(-2.77827e-06 9.44901e-06 0)
(-1.4833e-06 1.46044e-05 0)
(4.60412e-07 1.03121e-05 0)
(-1.2441e-06 9.70555e-06 0)
(-1.69572e-06 1.17958e-05 0)
(-1.2882e-06 1.18441e-05 0)
(-4.12977e-07 1.345e-05 0)
(7.68352e-07 1.27906e-05 0)
(1.69851e-06 1.31543e-05 0)
(2.66262e-06 1.23114e-05 0)
(3.41611e-06 1.20201e-05 0)
(4.09866e-06 1.10089e-05 0)
(4.59514e-06 1.03327e-05 0)
(5.17997e-06 9.30462e-06 0)
(5.30826e-06 7.61603e-06 0)
(4.73719e-06 6.13869e-06 0)
(3.79417e-06 5.0956e-06 0)
(2.72411e-06 4.42398e-06 0)
(1.63047e-06 4.0294e-06 0)
(5.42062e-07 3.84732e-06 0)
(-4.97002e-07 4.35503e-06 0)
(-1.4887e-06 4.53792e-06 0)
(-2.46581e-06 4.92666e-06 0)
(-3.38893e-06 5.56546e-06 0)
(-4.16271e-06 6.50554e-06 0)
(-4.6132e-06 7.7466e-06 0)
(-4.56714e-06 9.09054e-06 0)
(-4.16783e-06 1.00691e-05 0)
(-3.70685e-06 1.08045e-05 0)
(-3.10537e-06 1.15977e-05 0)
(-2.40905e-06 1.20253e-05 0)
(-1.57733e-06 1.25642e-05 0)
(-7.24678e-07 1.25096e-05 0)
(2.16266e-07 1.26973e-05 0)
(9.36734e-07 1.1819e-05 0)
(1.27042e-06 1.14597e-05 0)
(1.02411e-06 1.03787e-05 0)
(3.21761e-07 1.07947e-05 0)
(1.34617e-06 1.26894e-05 0)
(2.06898e-06 1.0389e-05 0)
(1.11988e-06 1.06484e-05 0)
(3.07697e-06 1.37718e-05 0)
(4.44546e-06 9.02188e-06 0)
(2.47194e-06 8.5058e-06 0)
(3.99587e-06 1.21689e-05 0)
(5.26748e-06 6.57948e-06 0)
(2.05974e-06 4.77455e-06 0)
(-1.90432e-06 6.39984e-06 0)
(3.35396e-06 1.79e-05 0)
(7.68774e-06 4.13193e-06 0)
(2.10943e-06 2.30454e-06 0)
(-5.44098e-06 3.0808e-06 0)
(-9.62784e-06 8.63108e-06 0)
(-5.11842e-06 3.92766e-06 0)
(-9.12353e-07 9.79516e-07 0)
(-3.95758e-07 5.99113e-07 0)
(-2.23543e-07 4.35783e-07 0)
(-1.36747e-07 3.34235e-07 0)
(-7.67798e-08 2.55827e-07 0)
(-2.63699e-08 2.31134e-07 0)
(2.63699e-08 2.31134e-07 0)
(7.67798e-08 2.55827e-07 0)
(1.36747e-07 3.34235e-07 0)
(2.23543e-07 4.35783e-07 0)
(3.95758e-07 5.99113e-07 0)
(9.12353e-07 9.79516e-07 0)
(5.11842e-06 3.92766e-06 0)
(9.62784e-06 8.63108e-06 0)
(5.44098e-06 3.0808e-06 0)
(-2.10943e-06 2.30454e-06 0)
(-7.68774e-06 4.13193e-06 0)
(-3.35396e-06 1.79e-05 0)
(1.90432e-06 6.39984e-06 0)
(-2.05974e-06 4.77455e-06 0)
(-5.26748e-06 6.57948e-06 0)
(-3.99587e-06 1.21689e-05 0)
(-2.47194e-06 8.5058e-06 0)
(-4.44546e-06 9.02188e-06 0)
(-3.07697e-06 1.37718e-05 0)
(-1.11988e-06 1.06484e-05 0)
(-2.06898e-06 1.0389e-05 0)
(-1.34617e-06 1.26894e-05 0)
(-3.21761e-07 1.07947e-05 0)
(-1.02411e-06 1.03787e-05 0)
(-1.27042e-06 1.14597e-05 0)
(-9.36734e-07 1.1819e-05 0)
(-2.16266e-07 1.26973e-05 0)
(7.24678e-07 1.25096e-05 0)
(1.57733e-06 1.25642e-05 0)
(2.40905e-06 1.20253e-05 0)
(3.10537e-06 1.15977e-05 0)
(3.70685e-06 1.08045e-05 0)
(4.16783e-06 1.00691e-05 0)
(4.56714e-06 9.09054e-06 0)
(4.6132e-06 7.7466e-06 0)
(4.16271e-06 6.50554e-06 0)
(3.38893e-06 5.56546e-06 0)
(2.46581e-06 4.92666e-06 0)
(1.4887e-06 4.53792e-06 0)
(4.97002e-07 4.35503e-06 0)
(-4.48212e-07 4.8614e-06 0)
(-1.33722e-06 5.03895e-06 0)
(-2.19733e-06 5.40932e-06 0)
(-2.98554e-06 5.99844e-06 0)
(-3.62153e-06 6.82619e-06 0)
(-3.98741e-06 7.86225e-06 0)
(-3.99213e-06 8.95395e-06 0)
(-3.71612e-06 9.84611e-06 0)
(-3.31573e-06 1.05664e-05 0)
(-2.79063e-06 1.12327e-05 0)
(-2.16818e-06 1.1684e-05 0)
(-1.45016e-06 1.20761e-05 0)
(-7.01063e-07 1.21401e-05 0)
(6.11523e-08 1.21567e-05 0)
(6.57621e-07 1.16555e-05 0)
(9.6348e-07 1.12804e-05 0)
(9.08267e-07 1.07152e-05 0)
(7.04711e-07 1.09323e-05 0)
(1.27873e-06 1.17046e-05 0)
(1.75089e-06 1.07383e-05 0)
(1.62849e-06 1.0854e-05 0)
(2.7212e-06 1.19499e-05 0)
(3.49114e-06 9.71027e-06 0)
(2.83594e-06 9.19635e-06 0)
(3.51335e-06 1.03172e-05 0)
(3.89811e-06 7.56369e-06 0)
(2.11552e-06 6.43483e-06 0)
(3.51556e-07 7.76096e-06 0)
(2.87217e-06 1.24295e-05 0)
(4.86352e-06 6.26393e-06 0)
(2.09843e-06 4.5832e-06 0)
(-4.92285e-07 6.12497e-06 0)
(1.53998e-06 1.30331e-05 0)
(4.62048e-06 7.36671e-06 0)
(3.26855e-06 3.44698e-06 0)
(3.0407e-07 2.83981e-06 0)
(-2.23882e-06 2.97774e-06 0)
(-1.91772e-06 1.45411e-06 0)
(-3.87016e-07 3.7138e-07 0)
(-9.57923e-08 2.36043e-07 0)
(9.57923e-08 2.36043e-07 0)
(3.87016e-07 3.7138e-07 0)
(1.91772e-06 1.45411e-06 0)
(2.23882e-06 2.97774e-06 0)
(-3.0407e-07 2.83981e-06 0)
(-3.26855e-06 3.44698e-06 0)
(-4.62048e-06 7.36671e-06 0)
(-1.53998e-06 1.30331e-05 0)
(4.92285e-07 6.12497e-06 0)
(-2.09843e-06 4.5832e-06 0)
(-4.86352e-06 6.26393e-06 0)
(-2.87217e-06 1.24295e-05 0)
(-3.51556e-07 7.76096e-06 0)
(-2.11552e-06 6.43483e-06 0)
(-3.89811e-06 7.56369e-06 0)
(-3.51335e-06 1.03172e-05 0)
(-2.83594e-06 9.19635e-06 0)
(-3.49114e-06 9.71027e-06 0)
(-2.7212e-06 1.19499e-05 0)
(-1.62849e-06 1.0854e-05 0)
(-1.75089e-06 1.07383e-05 0)
(-1.27873e-06 1.17046e-05 0)
(-7.04711e-07 1.09323e-05 0)
(-9.08267e-07 1.07152e-05 0)
(-9.6348e-07 1.12804e-05 0)
(-6.57621e-07 1.16555e-05 0)
(-6.11523e-08 1.21567e-05 0)
(7.01063e-07 1.21401e-05 0)
(1.45016e-06 1.20761e-05 0)
(2.16818e-06 1.1684e-05 0)
(2.79063e-06 1.12327e-05 0)
(3.31573e-06 1.05664e-05 0)
(3.71612e-06 9.84611e-06 0)
(3.99213e-06 8.95395e-06 0)
(3.98741e-06 7.86225e-06 0)
(3.62153e-06 6.82619e-06 0)
(2.98554e-06 5.99844e-06 0)
(2.19733e-06 5.40932e-06 0)
(1.33722e-06 5.03895e-06 0)
(4.48212e-07 4.8614e-06 0)
(-3.9715e-07 5.35793e-06 0)
(-1.18065e-06 5.52465e-06 0)
(-1.92666e-06 5.86651e-06 0)
(-2.59346e-06 6.39494e-06 0)
(-3.11733e-06 7.1098e-06 0)
(-3.42054e-06 7.97103e-06 0)
(-3.45433e-06 8.86863e-06 0)
(-3.26183e-06 9.65774e-06 0)
(-2.92802e-06 1.03241e-05 0)
(-2.47762e-06 1.09024e-05 0)
(-1.93562e-06 1.13306e-05 0)
(-1.32096e-06 1.16473e-05 0)
(-6.79502e-07 1.17527e-05 0)
(-5.4135e-08 1.17305e-05 0)
(4.47646e-07 1.14374e-05 0)
(7.46296e-07 1.11427e-05 0)
(8.3029e-07 1.08322e-05 0)
(8.67441e-07 1.09067e-05 0)
(1.23846e-06 1.11791e-05 0)
(1.59875e-06 1.07766e-05 0)
(1.78426e-06 1.07701e-05 0)
(2.43779e-06 1.10172e-05 0)
(2.916e-06 9.9158e-06 0)
(2.79421e-06 9.43396e-06 0)
(3.08096e-06 9.52236e-06 0)
(3.11333e-06 8.12247e-06 0)
(2.17053e-06 7.45847e-06 0)
(1.4081e-06 8.19812e-06 0)
(2.51886e-06 9.8918e-06 0)
(3.33974e-06 7.17706e-06 0)
(2.02865e-06 6.0314e-06 0)
(9.03652e-07 6.82545e-06 0)
(1.27644e-06 8.37131e-06 0)
(1.98103e-06 7.15775e-06 0)
(1.61956e-06 5.86602e-06 0)
(6.51063e-07 5.51078e-06 0)
(-2.75168e-07 5.89808e-06 0)
(-6.4229e-07 2.38289e-06 0)
(-4.85596e-07 4.65878e-07 0)
(-1.77635e-07 2.14458e-07 0)
(1.77635e-07 2.14458e-07 0)
(4.85596e-07 4.65878e-07 0)
(6.4229e-07 2.38289e-06 0)
(2.75168e-07 5.89808e-06 0)
(-6.51063e-07 5.51078e-06 0)
(-1.61956e-06 5.86602e-06 0)
(-1.98103e-06 7.15775e-06 0)
(-1.27644e-06 8.37131e-06 0)
(-9.03652e-07 6.82545e-06 0)
(-2.02865e-06 6.0314e-06 0)
(-3.33974e-06 7.17706e-06 0)
(-2.51886e-06 9.8918e-06 0)
(-1.4081e-06 8.19812e-06 0)
(-2.17053e-06 7.45847e-06 0)
(-3.11333e-06 8.12247e-06 0)
(-3.08096e-06 9.52236e-06 0)
(-2.79421e-06 9.43396e-06 0)
(-2.916e-06 9.9158e-06 0)
(-2.43779e-06 1.10172e-05 0)
(-1.78426e-06 1.07701e-05 0)
(-1.59875e-06 1.07766e-05 0)
(-1.23846e-06 1.11791e-05 0)
(-8.67441e-07 1.09067e-05 0)
(-8.3029e-07 1.08322e-05 0)
(-7.46296e-07 1.11427e-05 0)
(-4.47646e-07 1.14374e-05 0)
(5.4135e-08 1.17305e-05 0)
(6.79502e-07 1.17527e-05 0)
(1.32096e-06 1.16473e-05 0)
(1.93562e-06 1.13306e-05 0)
(2.47762e-06 1.09024e-05 0)
(2.92802e-06 1.03241e-05 0)
(3.26183e-06 9.65774e-06 0)
(3.45433e-06 8.86863e-06 0)
(3.42054e-06 7.97103e-06 0)
(3.11733e-06 7.1098e-06 0)