/*--------------------------------*- C++ -*----------------------------------*\
  =========                 |
  \\      /  F ield         | OpenFOAM: The Open Source CFD Toolbox
   \\    /   O peration     | Website:  https://openfoam.org
    \\  /    A nd           | Version:  10
     \\/     M anipulation  |
\*---------------------------------------------------------------------------*/
FoamFile
{
    format      ascii;
    class       volScalarField;
    location    "2.47";
    object      p;
}
// * * * * * * * * * * * * * * * * * * * * * * * * * * * * * * * * * * * * * //

dimensions      [1 -1 -2 0 0 0 0];

internalField   nonuniform List<scalar> 
12225
(
1.78174e+07
1.77647e+07
1.76705e+07
1.75465e+07
1.74027e+07
1.72467e+07
1.70837e+07
1.69173e+07
1.67496e+07
1.65818e+07
1.64144e+07
1.62475e+07
1.60807e+07
1.59129e+07
1.57426e+07
1.55667e+07
1.53794e+07
1.51656e+07
1.78195e+07
1.77666e+07
1.76721e+07
1.75478e+07
1.74037e+07
1.72474e+07
1.70843e+07
1.69178e+07
1.675e+07
1.65822e+07
1.64149e+07
1.62481e+07
1.60815e+07
1.5914e+07
1.57442e+07
1.55693e+07
1.53847e+07
1.51813e+07
1.78243e+07
1.77709e+07
1.76756e+07
1.75505e+07
1.74058e+07
1.72491e+07
1.70857e+07
1.69189e+07
1.67511e+07
1.65833e+07
1.64161e+07
1.62495e+07
1.60832e+07
1.59163e+07
1.57476e+07
1.55748e+07
1.5395e+07
1.52048e+07
1.78322e+07
1.77779e+07
1.76814e+07
1.75551e+07
1.74093e+07
1.72518e+07
1.70878e+07
1.69208e+07
1.67528e+07
1.6585e+07
1.64179e+07
1.62517e+07
1.6086e+07
1.59201e+07
1.5753e+07
1.55833e+07
1.54096e+07
1.52323e+07
1.78439e+07
1.77884e+07
1.769e+07
1.75618e+07
1.74145e+07
1.72558e+07
1.7091e+07
1.69235e+07
1.67552e+07
1.65874e+07
1.64206e+07
1.62549e+07
1.609e+07
1.59255e+07
1.57606e+07
1.55946e+07
1.54275e+07
1.52616e+07
1.78604e+07
1.7803e+07
1.77019e+07
1.7571e+07
1.74215e+07
1.72612e+07
1.70953e+07
1.69271e+07
1.67585e+07
1.65908e+07
1.64242e+07
1.62592e+07
1.60953e+07
1.59325e+07
1.57703e+07
1.56085e+07
1.54481e+07
1.52918e+07
1.78824e+07
1.78224e+07
1.77177e+07
1.75832e+07
1.74307e+07
1.72682e+07
1.71009e+07
1.69318e+07
1.67628e+07
1.6595e+07
1.64289e+07
1.62646e+07
1.61021e+07
1.59413e+07
1.57821e+07
1.56248e+07
1.54706e+07
1.53223e+07
1.79115e+07
1.78478e+07
1.7738e+07
1.75987e+07
1.74424e+07
1.72771e+07
1.71078e+07
1.69376e+07
1.67681e+07
1.66003e+07
1.64347e+07
1.62713e+07
1.61104e+07
1.59518e+07
1.57958e+07
1.56429e+07
1.54945e+07
1.53529e+07
1.79491e+07
1.78804e+07
1.77637e+07
1.76181e+07
1.74568e+07
1.72879e+07
1.71163e+07
1.69446e+07
1.67745e+07
1.66067e+07
1.64416e+07
1.62793e+07
1.61201e+07
1.5964e+07
1.58113e+07
1.56627e+07
1.55195e+07
1.53835e+07
1.79974e+07
1.79216e+07
1.77957e+07
1.76418e+07
1.74741e+07
1.73007e+07
1.71262e+07
1.69529e+07
1.6782e+07
1.66142e+07
1.64496e+07
1.62886e+07
1.61312e+07
1.59776e+07
1.58283e+07
1.56838e+07
1.55453e+07
1.5414e+07
1.80593e+07
1.79733e+07
1.78348e+07
1.767e+07
1.74944e+07
1.73156e+07
1.71376e+07
1.69623e+07
1.67905e+07
1.66227e+07
1.64588e+07
1.62991e+07
1.61437e+07
1.59927e+07
1.58466e+07
1.57059e+07
1.55715e+07
1.54443e+07
1.81321e+07
1.80323e+07
1.78779e+07
1.77003e+07
1.75156e+07
1.73309e+07
1.71493e+07
1.69719e+07
1.67992e+07
1.66313e+07
1.64681e+07
1.63097e+07
1.61561e+07
1.60075e+07
1.58642e+07
1.57268e+07
1.55958e+07
1.54718e+07
1.82219e+07
1.81024e+07
1.79272e+07
1.77339e+07
1.75386e+07
1.73472e+07
1.71615e+07
1.69819e+07
1.68083e+07
1.66403e+07
1.64779e+07
1.63208e+07
1.61691e+07
1.60228e+07
1.58823e+07
1.57478e+07
1.56198e+07
1.54987e+07
1.83548e+07
1.82e+07
1.79918e+07
1.77758e+07
1.75662e+07
1.73663e+07
1.71757e+07
1.69935e+07
1.68189e+07
1.6651e+07
1.64895e+07
1.63341e+07
1.61845e+07
1.60408e+07
1.59032e+07
1.57719e+07
1.5647e+07
1.55288e+07
1.8562e+07
1.83359e+07
1.80733e+07
1.78249e+07
1.7597e+07
1.73868e+07
1.71907e+07
1.70058e+07
1.68303e+07
1.66629e+07
1.65027e+07
1.63492e+07
1.62021e+07
1.60613e+07
1.59269e+07
1.57988e+07
1.56771e+07
1.55618e+07
1.8913e+07
1.85174e+07
1.81644e+07
1.78732e+07
1.76246e+07
1.74042e+07
1.72032e+07
1.70165e+07
1.68409e+07
1.66746e+07
1.65163e+07
1.63653e+07
1.62212e+07
1.60836e+07
1.59525e+07
1.58278e+07
1.57093e+07
1.5597e+07
1.95952e+07
1.86996e+07
1.8223e+07
1.78947e+07
1.76332e+07
1.74083e+07
1.72064e+07
1.70206e+07
1.6847e+07
1.66833e+07
1.65281e+07
1.63805e+07
1.624e+07
1.61061e+07
1.59787e+07
1.58575e+07
1.57424e+07
1.56331e+07
1.87543e+07
1.84244e+07
1.81048e+07
1.78305e+07
1.75929e+07
1.73813e+07
1.71885e+07
1.70097e+07
1.68422e+07
1.6684e+07
1.6534e+07
1.63913e+07
1.62555e+07
1.61261e+07
1.60029e+07
1.58856e+07
1.57741e+07
1.5668e+07
1.8193e+07
1.8059e+07
1.78756e+07
1.7682e+07
1.74927e+07
1.73117e+07
1.71396e+07
1.69759e+07
1.68201e+07
1.66713e+07
1.65293e+07
1.63937e+07
1.6264e+07
1.61402e+07
1.60219e+07
1.59091e+07
1.58015e+07
1.56989e+07
1.7874e+07
1.77978e+07
1.76768e+07
1.75339e+07
1.73826e+07
1.72296e+07
1.70784e+07
1.69308e+07
1.67874e+07
1.66488e+07
1.65151e+07
1.63864e+07
1.62627e+07
1.61441e+07
1.60303e+07
1.59214e+07
1.58172e+07
1.57177e+07
1.76922e+07
1.76377e+07
1.75452e+07
1.74294e+07
1.73008e+07
1.71662e+07
1.70295e+07
1.68934e+07
1.67594e+07
1.66283e+07
1.65009e+07
1.63774e+07
1.62582e+07
1.61434e+07
1.60329e+07
1.59268e+07
1.58251e+07
1.57276e+07
1.75722e+07
1.75284e+07
1.74515e+07
1.73521e+07
1.72383e+07
1.71163e+07
1.69902e+07
1.68627e+07
1.67358e+07
1.66106e+07
1.6488e+07
1.63686e+07
1.62529e+07
1.61409e+07
1.6033e+07
1.59291e+07
1.58292e+07
1.57334e+07
1.74911e+07
1.74533e+07
1.73856e+07
1.72963e+07
1.71923e+07
1.7079e+07
1.69602e+07
1.68389e+07
1.67172e+07
1.65963e+07
1.64773e+07
1.6361e+07
1.62479e+07
1.61382e+07
1.60321e+07
1.59298e+07
1.58314e+07
1.57368e+07
1.74359e+07
1.74017e+07
1.73397e+07
1.72569e+07
1.71593e+07
1.70518e+07
1.69381e+07
1.68212e+07
1.67032e+07
1.65854e+07
1.64691e+07
1.6355e+07
1.62437e+07
1.61356e+07
1.60309e+07
1.59298e+07
1.58324e+07
1.57387e+07
1.73987e+07
1.73666e+07
1.73082e+07
1.72296e+07
1.71362e+07
1.70326e+07
1.69224e+07
1.68085e+07
1.6693e+07
1.65774e+07
1.6463e+07
1.63505e+07
1.62405e+07
1.61335e+07
1.60298e+07
1.59296e+07
1.58329e+07
1.57397e+07
1.73739e+07
1.73432e+07
1.72871e+07
1.72112e+07
1.71205e+07
1.70195e+07
1.69117e+07
1.67998e+07
1.6686e+07
1.65719e+07
1.64587e+07
1.63472e+07
1.62382e+07
1.6132e+07
1.60289e+07
1.59292e+07
1.5833e+07
1.57403e+07
1.7358e+07
1.73282e+07
1.72735e+07
1.71992e+07
1.71103e+07
1.70109e+07
1.69046e+07
1.6794e+07
1.66813e+07
1.65682e+07
1.64558e+07
1.6345e+07
1.62365e+07
1.61308e+07
1.60282e+07
1.59289e+07
1.5833e+07
1.57406e+07
1.73484e+07
1.73191e+07
1.72652e+07
1.7192e+07
1.71041e+07
1.70057e+07
1.69002e+07
1.67904e+07
1.66784e+07
1.65658e+07
1.64539e+07
1.63436e+07
1.62355e+07
1.61301e+07
1.60278e+07
1.59287e+07
1.5833e+07
1.57408e+07
1.73432e+07
1.73141e+07
1.72607e+07
1.7188e+07
1.71007e+07
1.70028e+07
1.68978e+07
1.67884e+07
1.66768e+07
1.65646e+07
1.64529e+07
1.63428e+07
1.62349e+07
1.61297e+07
1.60275e+07
1.59286e+07
1.5833e+07
1.57408e+07
1.73411e+07
1.73121e+07
1.72589e+07
1.71864e+07
1.70993e+07
1.70016e+07
1.68968e+07
1.67876e+07
1.66761e+07
1.6564e+07
1.64525e+07
1.63425e+07
1.62347e+07
1.61295e+07
1.60274e+07
1.59285e+07
1.58329e+07
1.57408e+07
1.3199e+07
1.31979e+07
1.31958e+07
1.31925e+07
1.31881e+07
1.31825e+07
1.31757e+07
1.31678e+07
1.31586e+07
1.31482e+07
1.31365e+07
1.31235e+07
1.31093e+07
1.30938e+07
1.30769e+07
1.30587e+07
1.30392e+07
1.30183e+07
1.2996e+07
1.29724e+07
1.29475e+07
1.29211e+07
1.28934e+07
1.28642e+07
1.28337e+07
1.28017e+07
1.27683e+07
1.27335e+07
1.26972e+07
1.26595e+07
1.26203e+07
1.25796e+07
1.25374e+07
1.24937e+07
1.24484e+07
1.24015e+07
1.2353e+07
1.23029e+07
1.22511e+07
1.21977e+07
1.21425e+07
1.20856e+07
1.20269e+07
1.19663e+07
1.19037e+07
1.18391e+07
1.17724e+07
1.17034e+07
1.1632e+07
1.15579e+07
1.14811e+07
1.14012e+07
1.13179e+07
1.12306e+07
1.11388e+07
1.10415e+07
1.09371e+07
1.08228e+07
1.06915e+07
1.06823e+07
1.06789e+07
1.06757e+07
1.06726e+07
1.06696e+07
1.06666e+07
1.06636e+07
1.06607e+07
1.06578e+07
1.0655e+07
1.06521e+07
1.06493e+07
1.06465e+07
1.06437e+07
1.0641e+07
1.06382e+07
1.06354e+07
1.06327e+07
1.06299e+07
1.06272e+07
1.06244e+07
1.06217e+07
1.06189e+07
1.06162e+07
1.06134e+07
1.06107e+07
1.06079e+07
1.06051e+07
1.06024e+07
1.05996e+07
1.05968e+07
1.0594e+07
1.05912e+07
1.05884e+07
1.05856e+07
1.05827e+07
1.05799e+07
1.0577e+07
1.05742e+07
1.05713e+07
1.05684e+07
1.05655e+07
1.05625e+07
1.05596e+07
1.05566e+07
1.05537e+07
1.05507e+07
1.05477e+07
1.05446e+07
1.05416e+07
1.05385e+07
1.05354e+07
1.05323e+07
1.05292e+07
1.0526e+07
1.05229e+07
1.05197e+07
1.05165e+07
1.05132e+07
1.051e+07
1.05067e+07
1.05034e+07
1.05e+07
1.04967e+07
1.04933e+07
1.04899e+07
1.04865e+07
1.0483e+07
1.04796e+07
1.04761e+07
1.04725e+07
1.0469e+07
1.04654e+07
1.04618e+07
1.04582e+07
1.04545e+07
1.04508e+07
1.04471e+07
1.04434e+07
1.04396e+07
1.04358e+07
1.04319e+07
1.04281e+07
1.04242e+07
1.04203e+07
1.04163e+07
1.04123e+07
1.04083e+07
1.04043e+07
1.04002e+07
1.03961e+07
1.0392e+07
1.03878e+07
1.03836e+07
1.03794e+07
1.03751e+07
1.03708e+07
1.03665e+07
1.03621e+07
1.03577e+07
1.03533e+07
1.03488e+07
1.03443e+07
1.03398e+07
1.03352e+07
1.03306e+07
1.0326e+07
1.03213e+07
1.03166e+07
1.03118e+07
1.0307e+07
1.03022e+07
1.02974e+07
1.02925e+07
1.02876e+07
1.02827e+07
1.02777e+07
1.02727e+07
1.02677e+07
1.02628e+07
1.02578e+07
1.32033e+07
1.32022e+07
1.32e+07
1.31967e+07
1.31923e+07
1.31867e+07
1.31799e+07
1.31719e+07
1.31627e+07
1.31522e+07
1.31405e+07
1.31275e+07
1.31132e+07
1.30976e+07
1.30807e+07
1.30624e+07
1.30428e+07
1.30219e+07
1.29996e+07
1.29759e+07
1.29508e+07
1.29244e+07
1.28966e+07
1.28674e+07
1.28368e+07
1.28048e+07
1.27714e+07
1.27365e+07
1.27003e+07
1.26625e+07
1.26233e+07
1.25826e+07
1.25404e+07
1.24967e+07
1.24514e+07
1.24046e+07
1.23561e+07
1.23061e+07
1.22544e+07
1.2201e+07
1.21459e+07
1.2089e+07
1.20304e+07
1.19698e+07
1.19073e+07
1.18429e+07
1.17762e+07
1.17074e+07
1.16362e+07
1.15624e+07
1.1486e+07
1.14065e+07
1.13238e+07
1.12373e+07
1.11466e+07
1.10507e+07
1.09481e+07
1.08353e+07
1.07018e+07
1.06817e+07
1.06786e+07
1.06755e+07
1.06724e+07
1.06694e+07
1.06665e+07
1.06635e+07
1.06606e+07
1.06578e+07
1.06549e+07
1.06521e+07
1.06493e+07
1.06465e+07
1.06437e+07
1.06409e+07
1.06381e+07
1.06354e+07
1.06326e+07
1.06299e+07
1.06271e+07
1.06244e+07
1.06216e+07
1.06189e+07
1.06161e+07
1.06134e+07
1.06106e+07
1.06079e+07
1.06051e+07
1.06024e+07
1.05996e+07
1.05968e+07
1.0594e+07
1.05912e+07
1.05884e+07
1.05856e+07
1.05827e+07
1.05799e+07
1.0577e+07
1.05742e+07
1.05713e+07
1.05684e+07
1.05655e+07
1.05625e+07
1.05596e+07
1.05566e+07
1.05537e+07
1.05507e+07
1.05476e+07
1.05446e+07
1.05416e+07
1.05385e+07
1.05354e+07
1.05323e+07
1.05292e+07
1.0526e+07
1.05229e+07
1.05197e+07
1.05164e+07
1.05132e+07
1.051e+07
1.05067e+07
1.05034e+07
1.05e+07
1.04967e+07
1.04933e+07
1.04899e+07
1.04865e+07
1.0483e+07
1.04796e+07
1.04761e+07
1.04725e+07
1.0469e+07
1.04654e+07
1.04618e+07
1.04582e+07
1.04545e+07
1.04508e+07
1.04471e+07
1.04433e+07
1.04396e+07
1.04358e+07
1.04319e+07
1.04281e+07
1.04242e+07
1.04203e+07
1.04163e+07
1.04123e+07
1.04083e+07
1.04043e+07
1.04002e+07
1.03961e+07
1.0392e+07
1.03878e+07
1.03836e+07
1.03794e+07
1.03751e+07
1.03708e+07
1.03665e+07
1.03621e+07
1.03577e+07
1.03533e+07
1.03488e+07
1.03443e+07
1.03398e+07
1.03352e+07
1.03306e+07
1.0326e+07
1.03213e+07
1.03166e+07
1.03118e+07
1.0307e+07
1.03022e+07
1.02974e+07
1.02925e+07
1.02876e+07
1.02827e+07
1.02777e+07
1.02727e+07
1.02677e+07
1.02627e+07
1.02578e+07
1.3212e+07
1.32109e+07
1.32087e+07
1.32054e+07
1.32009e+07
1.31953e+07
1.31885e+07
1.31804e+07
1.31711e+07
1.31606e+07
1.31488e+07
1.31357e+07
1.31213e+07
1.31056e+07
1.30885e+07
1.30702e+07
1.30505e+07
1.30294e+07
1.3007e+07
1.29832e+07
1.2958e+07
1.29315e+07
1.29035e+07
1.28742e+07
1.28435e+07
1.28114e+07
1.27779e+07
1.27429e+07
1.27065e+07
1.26687e+07
1.26294e+07
1.25887e+07
1.25464e+07
1.25026e+07
1.24573e+07
1.24105e+07
1.2362e+07
1.2312e+07
1.22603e+07
1.2207e+07
1.21519e+07
1.20952e+07
1.20366e+07
1.19762e+07
1.19139e+07
1.18496e+07
1.17832e+07
1.17147e+07
1.16439e+07
1.15706e+07
1.14948e+07
1.14162e+07
1.13346e+07
1.12496e+07
1.1161e+07
1.10682e+07
1.09707e+07
1.08678e+07
1.07588e+07
1.06814e+07
1.06782e+07
1.06751e+07
1.06722e+07
1.06692e+07
1.06663e+07
1.06634e+07
1.06605e+07
1.06576e+07
1.06548e+07
1.0652e+07
1.06492e+07
1.06464e+07
1.06436e+07
1.06408e+07
1.06381e+07
1.06353e+07
1.06326e+07
1.06298e+07
1.06271e+07
1.06243e+07
1.06216e+07
1.06188e+07
1.06161e+07
1.06134e+07
1.06106e+07
1.06078e+07
1.06051e+07
1.06023e+07
1.05995e+07
1.05968e+07
1.0594e+07
1.05912e+07
1.05884e+07
1.05855e+07
1.05827e+07
1.05799e+07
1.0577e+07
1.05741e+07
1.05713e+07
1.05684e+07
1.05654e+07
1.05625e+07
1.05596e+07
1.05566e+07
1.05536e+07
1.05506e+07
1.05476e+07
1.05446e+07
1.05416e+07
1.05385e+07
1.05354e+07
1.05323e+07
1.05292e+07
1.0526e+07
1.05228e+07
1.05197e+07
1.05164e+07
1.05132e+07
1.05099e+07
1.05067e+07
1.05034e+07
1.05e+07
1.04967e+07
1.04933e+07
1.04899e+07
1.04865e+07
1.0483e+07
1.04796e+07
1.04761e+07
1.04725e+07
1.0469e+07
1.04654e+07
1.04618e+07
1.04582e+07
1.04545e+07
1.04508e+07
1.04471e+07
1.04433e+07
1.04396e+07
1.04358e+07
1.04319e+07
1.04281e+07
1.04242e+07
1.04203e+07
1.04163e+07
1.04123e+07
1.04083e+07
1.04043e+07
1.04002e+07
1.03961e+07
1.0392e+07
1.03878e+07
1.03836e+07
1.03794e+07
1.03751e+07
1.03708e+07
1.03665e+07
1.03621e+07
1.03577e+07
1.03533e+07
1.03488e+07
1.03443e+07
1.03398e+07
1.03352e+07
1.03306e+07
1.0326e+07
1.03213e+07
1.03166e+07
1.03118e+07
1.0307e+07
1.03022e+07
1.02974e+07
1.02925e+07
1.02876e+07
1.02826e+07
1.02777e+07
1.02727e+07
1.02677e+07
1.02627e+07
1.02577e+07
1.32253e+07
1.32242e+07
1.3222e+07
1.32186e+07
1.32141e+07
1.32084e+07
1.32015e+07
1.31933e+07
1.31839e+07
1.31733e+07
1.31613e+07
1.31481e+07
1.31336e+07
1.31177e+07
1.31005e+07
1.3082e+07
1.30621e+07
1.30409e+07
1.30183e+07
1.29943e+07
1.2969e+07
1.29423e+07
1.29142e+07
1.28847e+07
1.28538e+07
1.28215e+07
1.27878e+07
1.27527e+07
1.27161e+07
1.26781e+07
1.26387e+07
1.25978e+07
1.25554e+07
1.25115e+07
1.24661e+07
1.24192e+07
1.23707e+07
1.23206e+07
1.22689e+07
1.22156e+07
1.21606e+07
1.21039e+07
1.20455e+07
1.19852e+07
1.19231e+07
1.18591e+07
1.17931e+07
1.1725e+07
1.16548e+07
1.15822e+07
1.15073e+07
1.14298e+07
1.13496e+07
1.12664e+07
1.11801e+07
1.10904e+07
1.09971e+07
1.08997e+07
1.07972e+07
1.0684e+07
1.06777e+07
1.06747e+07
1.06718e+07
1.06689e+07
1.0666e+07
1.06631e+07
1.06603e+07
1.06574e+07
1.06546e+07
1.06518e+07
1.0649e+07
1.06462e+07
1.06435e+07
1.06407e+07
1.06379e+07
1.06352e+07
1.06325e+07
1.06297e+07
1.0627e+07
1.06242e+07
1.06215e+07
1.06188e+07
1.0616e+07
1.06133e+07
1.06105e+07
1.06078e+07
1.0605e+07
1.06023e+07
1.05995e+07
1.05967e+07
1.05939e+07
1.05911e+07
1.05883e+07
1.05855e+07
1.05827e+07
1.05798e+07
1.0577e+07
1.05741e+07
1.05712e+07
1.05683e+07
1.05654e+07
1.05625e+07
1.05596e+07
1.05566e+07
1.05536e+07
1.05506e+07
1.05476e+07
1.05446e+07
1.05415e+07
1.05385e+07
1.05354e+07
1.05323e+07
1.05292e+07
1.0526e+07
1.05228e+07
1.05196e+07
1.05164e+07
1.05132e+07
1.05099e+07
1.05067e+07
1.05034e+07
1.05e+07
1.04967e+07
1.04933e+07
1.04899e+07
1.04865e+07
1.0483e+07
1.04796e+07
1.04761e+07
1.04725e+07
1.0469e+07
1.04654e+07
1.04618e+07
1.04582e+07
1.04545e+07
1.04508e+07
1.04471e+07
1.04433e+07
1.04396e+07
1.04358e+07
1.04319e+07
1.04281e+07
1.04242e+07
1.04203e+07
1.04163e+07
1.04123e+07
1.04083e+07
1.04043e+07
1.04002e+07
1.03961e+07
1.0392e+07
1.03878e+07
1.03836e+07
1.03794e+07
1.03751e+07
1.03708e+07
1.03665e+07
1.03621e+07
1.03577e+07
1.03533e+07
1.03488e+07
1.03443e+07
1.03398e+07
1.03352e+07
1.03306e+07
1.03259e+07
1.03213e+07
1.03166e+07
1.03118e+07
1.0307e+07
1.03022e+07
1.02974e+07
1.02925e+07
1.02876e+07
1.02826e+07
1.02777e+07
1.02727e+07
1.02677e+07
1.02627e+07
1.02576e+07
1.32433e+07
1.32421e+07
1.32398e+07
1.32364e+07
1.32318e+07
1.3226e+07
1.32189e+07
1.32107e+07
1.32011e+07
1.31903e+07
1.31782e+07
1.31648e+07
1.31501e+07
1.3134e+07
1.31166e+07
1.30979e+07
1.30778e+07
1.30563e+07
1.30335e+07
1.30092e+07
1.29837e+07
1.29567e+07
1.29283e+07
1.28986e+07
1.28674e+07
1.28349e+07
1.28009e+07
1.27656e+07
1.27288e+07
1.26906e+07
1.26509e+07
1.26098e+07
1.25672e+07
1.25232e+07
1.24776e+07
1.24306e+07
1.2382e+07
1.23319e+07
1.22801e+07
1.22268e+07
1.21719e+07
1.21152e+07
1.20569e+07
1.19969e+07
1.1935e+07
1.18713e+07
1.18057e+07
1.17382e+07
1.16686e+07
1.15969e+07
1.15229e+07
1.14467e+07
1.1368e+07
1.12867e+07
1.12027e+07
1.11159e+07
1.1026e+07
1.09323e+07
1.08334e+07
1.07231e+07
1.06773e+07
1.06743e+07
1.06714e+07
1.06685e+07
1.06656e+07
1.06628e+07
1.066e+07
1.06572e+07
1.06544e+07
1.06516e+07
1.06488e+07
1.0646e+07
1.06433e+07
1.06405e+07
1.06378e+07
1.06351e+07
1.06323e+07
1.06296e+07
1.06269e+07
1.06241e+07
1.06214e+07
1.06187e+07
1.06159e+07
1.06132e+07
1.06105e+07
1.06077e+07
1.0605e+07
1.06022e+07
1.05994e+07
1.05967e+07
1.05939e+07
1.05911e+07
1.05883e+07
1.05855e+07
1.05826e+07
1.05798e+07
1.05769e+07
1.05741e+07
1.05712e+07
1.05683e+07
1.05654e+07
1.05625e+07
1.05595e+07
1.05566e+07
1.05536e+07
1.05506e+07
1.05476e+07
1.05446e+07
1.05415e+07
1.05385e+07
1.05354e+07
1.05323e+07
1.05291e+07
1.0526e+07
1.05228e+07
1.05196e+07
1.05164e+07
1.05132e+07
1.05099e+07
1.05067e+07
1.05033e+07
1.05e+07
1.04967e+07
1.04933e+07
1.04899e+07
1.04865e+07
1.0483e+07
1.04795e+07
1.0476e+07
1.04725e+07
1.0469e+07
1.04654e+07
1.04618e+07
1.04581e+07
1.04545e+07
1.04508e+07
1.04471e+07
1.04433e+07
1.04396e+07
1.04358e+07
1.04319e+07
1.04281e+07
1.04242e+07
1.04203e+07
1.04163e+07
1.04123e+07
1.04083e+07
1.04043e+07
1.04002e+07
1.03961e+07
1.0392e+07
1.03878e+07
1.03836e+07
1.03794e+07
1.03751e+07
1.03708e+07
1.03665e+07
1.03621e+07
1.03577e+07
1.03533e+07
1.03488e+07
1.03443e+07
1.03398e+07
1.03352e+07
1.03306e+07
1.03259e+07
1.03213e+07
1.03166e+07
1.03118e+07
1.0307e+07
1.03022e+07
1.02974e+07
1.02925e+07
1.02876e+07
1.02826e+07
1.02777e+07
1.02727e+07
1.02676e+07
1.02626e+07
1.02575e+07
1.32658e+07
1.32647e+07
1.32623e+07
1.32588e+07
1.32541e+07
1.32481e+07
1.32409e+07
1.32325e+07
1.32228e+07
1.32117e+07
1.31994e+07
1.31857e+07
1.31708e+07
1.31544e+07
1.31367e+07
1.31177e+07
1.30973e+07
1.30755e+07
1.30524e+07
1.30278e+07
1.30019e+07
1.29746e+07
1.29459e+07
1.29158e+07
1.28843e+07
1.28515e+07
1.28172e+07
1.27815e+07
1.27444e+07
1.27059e+07
1.2666e+07
1.26246e+07
1.25818e+07
1.25376e+07
1.24918e+07
1.24446e+07
1.23959e+07
1.23456e+07
1.22938e+07
1.22405e+07
1.21856e+07
1.2129e+07
1.20708e+07
1.2011e+07
1.19494e+07
1.18861e+07
1.18209e+07
1.17539e+07
1.1685e+07
1.16142e+07
1.15413e+07
1.14663e+07
1.13891e+07
1.13097e+07
1.1228e+07
1.11439e+07
1.10573e+07
1.09681e+07
1.08758e+07
1.07801e+07
1.06792e+07
1.06737e+07
1.06709e+07
1.06681e+07
1.06652e+07
1.06624e+07
1.06596e+07
1.06568e+07
1.06541e+07
1.06513e+07
1.06486e+07
1.06458e+07
1.06431e+07
1.06403e+07
1.06376e+07
1.06349e+07
1.06322e+07
1.06294e+07
1.06267e+07
1.0624e+07
1.06213e+07
1.06186e+07
1.06158e+07
1.06131e+07
1.06104e+07
1.06076e+07
1.06049e+07
1.06021e+07
1.05994e+07
1.05966e+07
1.05938e+07
1.0591e+07
1.05882e+07
1.05854e+07
1.05826e+07
1.05798e+07
1.05769e+07
1.0574e+07
1.05712e+07
1.05683e+07
1.05654e+07
1.05624e+07
1.05595e+07
1.05565e+07
1.05536e+07
1.05506e+07
1.05476e+07
1.05446e+07
1.05415e+07
1.05384e+07
1.05354e+07
1.05323e+07
1.05291e+07
1.0526e+07
1.05228e+07
1.05196e+07
1.05164e+07
1.05132e+07
1.05099e+07
1.05066e+07
1.05033e+07
1.05e+07
1.04967e+07
1.04933e+07
1.04899e+07
1.04865e+07
1.0483e+07
1.04795e+07
1.0476e+07
1.04725e+07
1.0469e+07
1.04654e+07
1.04618e+07
1.04581e+07
1.04545e+07
1.04508e+07
1.04471e+07
1.04433e+07
1.04396e+07
1.04358e+07
1.04319e+07
1.04281e+07
1.04242e+07
1.04203e+07
1.04163e+07
1.04123e+07
1.04083e+07
1.04043e+07
1.04002e+07
1.03961e+07
1.0392e+07
1.03878e+07
1.03836e+07
1.03794e+07
1.03751e+07
1.03708e+07
1.03665e+07
1.03621e+07
1.03577e+07
1.03533e+07
1.03488e+07
1.03443e+07
1.03398e+07
1.03352e+07
1.03306e+07
1.03259e+07
1.03213e+07
1.03166e+07
1.03118e+07
1.0307e+07
1.03022e+07
1.02974e+07
1.02925e+07
1.02876e+07
1.02826e+07
1.02776e+07
1.02726e+07
1.02676e+07
1.02625e+07
1.02575e+07
1.32932e+07
1.32919e+07
1.32895e+07
1.32859e+07
1.3281e+07
1.32749e+07
1.32675e+07
1.32588e+07
1.32489e+07
1.32376e+07
1.32249e+07
1.3211e+07
1.31957e+07
1.3179e+07
1.31609e+07
1.31415e+07
1.31207e+07
1.30985e+07
1.30749e+07
1.305e+07
1.30237e+07
1.29959e+07
1.29668e+07
1.29363e+07
1.29044e+07
1.28712e+07
1.28365e+07
1.28004e+07
1.2763e+07
1.27241e+07
1.26838e+07
1.26421e+07
1.2599e+07
1.25545e+07
1.25085e+07
1.24611e+07
1.24122e+07
1.23618e+07
1.23099e+07
1.22565e+07
1.22016e+07
1.21451e+07
1.2087e+07
1.20274e+07
1.1966e+07
1.19031e+07
1.18384e+07
1.1772e+07
1.17038e+07
1.16338e+07
1.15619e+07
1.14882e+07
1.14125e+07
1.13348e+07
1.12552e+07
1.11736e+07
1.10899e+07
1.10041e+07
1.09159e+07
1.08247e+07
1.07268e+07
1.06733e+07
1.06704e+07
1.06676e+07
1.06648e+07
1.0662e+07
1.06592e+07
1.06565e+07
1.06537e+07
1.0651e+07
1.06483e+07
1.06455e+07
1.06428e+07
1.06401e+07
1.06374e+07
1.06347e+07
1.0632e+07
1.06293e+07
1.06266e+07
1.06238e+07
1.06211e+07
1.06184e+07
1.06157e+07
1.0613e+07
1.06103e+07
1.06075e+07
1.06048e+07
1.0602e+07
1.05993e+07
1.05965e+07
1.05937e+07
1.0591e+07
1.05882e+07
1.05853e+07
1.05825e+07
1.05797e+07
1.05769e+07
1.0574e+07
1.05711e+07
1.05682e+07
1.05653e+07
1.05624e+07
1.05595e+07
1.05565e+07
1.05535e+07
1.05506e+07
1.05476e+07
1.05445e+07
1.05415e+07
1.05384e+07
1.05353e+07
1.05322e+07
1.05291e+07
1.0526e+07
1.05228e+07
1.05196e+07
1.05164e+07
1.05132e+07
1.05099e+07
1.05066e+07
1.05033e+07
1.05e+07
1.04967e+07
1.04933e+07
1.04899e+07
1.04865e+07
1.0483e+07
1.04795e+07
1.0476e+07
1.04725e+07
1.0469e+07
1.04654e+07
1.04618e+07
1.04581e+07
1.04545e+07
1.04508e+07
1.04471e+07
1.04433e+07
1.04396e+07
1.04358e+07
1.04319e+07
1.04281e+07
1.04242e+07
1.04203e+07
1.04163e+07
1.04123e+07
1.04083e+07
1.04043e+07
1.04002e+07
1.03961e+07
1.0392e+07
1.03878e+07
1.03836e+07
1.03794e+07
1.03751e+07
1.03708e+07
1.03665e+07
1.03621e+07
1.03577e+07
1.03533e+07
1.03488e+07
1.03443e+07
1.03398e+07
1.03352e+07
1.03306e+07
1.03259e+07
1.03213e+07
1.03165e+07
1.03118e+07
1.0307e+07
1.03022e+07
1.02973e+07
1.02925e+07
1.02875e+07
1.02826e+07
1.02776e+07
1.02726e+07
1.02676e+07
1.02625e+07
1.02574e+07
1.33254e+07
1.3324e+07
1.33215e+07
1.33177e+07
1.33127e+07
1.33064e+07
1.32988e+07
1.32898e+07
1.32795e+07
1.32679e+07
1.32549e+07
1.32405e+07
1.32248e+07
1.32076e+07
1.31891e+07
1.31692e+07
1.31479e+07
1.31253e+07
1.31012e+07
1.30757e+07
1.30489e+07
1.30207e+07
1.2991e+07
1.296e+07
1.29276e+07
1.28939e+07
1.28587e+07
1.28222e+07
1.27843e+07
1.2745e+07
1.27043e+07
1.26622e+07
1.26188e+07
1.25739e+07
1.25276e+07
1.24799e+07
1.24308e+07
1.23802e+07
1.23282e+07
1.22747e+07
1.22198e+07
1.21633e+07
1.21053e+07
1.20458e+07
1.19848e+07
1.19221e+07
1.18579e+07
1.1792e+07
1.17245e+07
1.16553e+07
1.15844e+07
1.15119e+07
1.14376e+07
1.13615e+07
1.12838e+07
1.12043e+07
1.11231e+07
1.10402e+07
1.09554e+07
1.08684e+07
1.07776e+07
1.06768e+07
1.06697e+07
1.0667e+07
1.06643e+07
1.06615e+07
1.06588e+07
1.06561e+07
1.06534e+07
1.06506e+07
1.06479e+07
1.06452e+07
1.06425e+07
1.06398e+07
1.06371e+07
1.06344e+07
1.06317e+07
1.06291e+07
1.06264e+07
1.06237e+07
1.0621e+07
1.06183e+07
1.06156e+07
1.06128e+07
1.06101e+07
1.06074e+07
1.06047e+07
1.06019e+07
1.05992e+07
1.05964e+07
1.05936e+07
1.05909e+07
1.05881e+07
1.05853e+07
1.05825e+07
1.05796e+07
1.05768e+07
1.05739e+07
1.05711e+07
1.05682e+07
1.05653e+07
1.05624e+07
1.05594e+07
1.05565e+07
1.05535e+07
1.05505e+07
1.05475e+07
1.05445e+07
1.05415e+07
1.05384e+07
1.05353e+07
1.05322e+07
1.05291e+07
1.05259e+07
1.05228e+07
1.05196e+07
1.05164e+07
1.05132e+07
1.05099e+07
1.05066e+07
1.05033e+07
1.05e+07
1.04966e+07
1.04933e+07
1.04899e+07
1.04864e+07
1.0483e+07
1.04795e+07
1.0476e+07
1.04725e+07
1.0469e+07
1.04654e+07
1.04618e+07
1.04581e+07
1.04545e+07
1.04508e+07
1.04471e+07
1.04433e+07
1.04396e+07
1.04357e+07
1.04319e+07
1.04281e+07
1.04242e+07
1.04202e+07
1.04163e+07
1.04123e+07
1.04083e+07
1.04043e+07
1.04002e+07
1.03961e+07
1.0392e+07
1.03878e+07
1.03836e+07
1.03793e+07
1.03751e+07
1.03708e+07
1.03665e+07
1.03621e+07
1.03577e+07
1.03533e+07
1.03488e+07
1.03443e+07
1.03398e+07
1.03352e+07
1.03306e+07
1.03259e+07
1.03213e+07
1.03165e+07
1.03118e+07
1.0307e+07
1.03022e+07
1.02973e+07
1.02924e+07
1.02875e+07
1.02826e+07
1.02776e+07
1.02726e+07
1.02675e+07
1.02624e+07
1.02573e+07
1.33625e+07
1.33611e+07
1.33585e+07
1.33545e+07
1.33493e+07
1.33427e+07
1.33347e+07
1.33254e+07
1.33148e+07
1.33027e+07
1.32893e+07
1.32744e+07
1.32581e+07
1.32405e+07
1.32214e+07
1.32009e+07
1.3179e+07
1.31558e+07
1.31311e+07
1.3105e+07
1.30775e+07
1.30487e+07
1.30185e+07
1.29868e+07
1.29539e+07
1.29195e+07
1.28838e+07
1.28467e+07
1.28083e+07
1.27685e+07
1.27273e+07
1.26848e+07
1.26409e+07
1.25956e+07
1.2549e+07
1.2501e+07
1.24516e+07
1.24008e+07
1.23486e+07
1.2295e+07
1.22399e+07
1.21835e+07
1.21256e+07
1.20662e+07
1.20053e+07
1.1943e+07
1.18792e+07
1.18138e+07
1.17469e+07
1.16785e+07
1.16085e+07
1.1537e+07
1.14639e+07
1.13893e+07
1.13132e+07
1.12356e+07
1.11566e+07
1.10761e+07
1.09942e+07
1.09109e+07
1.08261e+07
1.07397e+07
1.06696e+07
1.06665e+07
1.06637e+07
1.0661e+07
1.06583e+07
1.06556e+07
1.06529e+07
1.06502e+07
1.06476e+07
1.06449e+07
1.06422e+07
1.06395e+07
1.06369e+07
1.06342e+07
1.06315e+07
1.06288e+07
1.06261e+07
1.06235e+07
1.06208e+07
1.06181e+07
1.06154e+07
1.06127e+07
1.061e+07
1.06073e+07
1.06045e+07
1.06018e+07
1.05991e+07
1.05963e+07
1.05936e+07
1.05908e+07
1.0588e+07
1.05852e+07
1.05824e+07
1.05796e+07
1.05767e+07
1.05739e+07
1.0571e+07
1.05681e+07
1.05652e+07
1.05623e+07
1.05594e+07
1.05564e+07
1.05535e+07
1.05505e+07
1.05475e+07
1.05445e+07
1.05414e+07
1.05384e+07
1.05353e+07
1.05322e+07
1.05291e+07
1.05259e+07
1.05228e+07
1.05196e+07
1.05164e+07
1.05131e+07
1.05099e+07
1.05066e+07
1.05033e+07
1.05e+07
1.04966e+07
1.04933e+07
1.04899e+07
1.04864e+07
1.0483e+07
1.04795e+07
1.0476e+07
1.04725e+07
1.04689e+07
1.04654e+07
1.04618e+07
1.04581e+07
1.04545e+07
1.04508e+07
1.04471e+07
1.04433e+07
1.04395e+07
1.04357e+07
1.04319e+07
1.04281e+07
1.04242e+07
1.04202e+07
1.04163e+07
1.04123e+07
1.04083e+07
1.04043e+07
1.04002e+07
1.03961e+07
1.03919e+07
1.03878e+07
1.03836e+07
1.03793e+07
1.03751e+07
1.03708e+07
1.03665e+07
1.03621e+07
1.03577e+07
1.03533e+07
1.03488e+07
1.03443e+07
1.03397e+07
1.03352e+07
1.03306e+07
1.03259e+07
1.03213e+07
1.03165e+07
1.03118e+07
1.0307e+07
1.03022e+07
1.02973e+07
1.02924e+07
1.02875e+07
1.02825e+07
1.02776e+07
1.02725e+07
1.02675e+07
1.02624e+07
1.02572e+07
1.34048e+07
1.34033e+07
1.34005e+07
1.33964e+07
1.33908e+07
1.33839e+07
1.33756e+07
1.33659e+07
1.33547e+07
1.33422e+07
1.33281e+07
1.33127e+07
1.32958e+07
1.32775e+07
1.32577e+07
1.32366e+07
1.3214e+07
1.319e+07
1.31645e+07
1.31377e+07
1.31095e+07
1.308e+07
1.3049e+07
1.30167e+07
1.2983e+07
1.2948e+07
1.29116e+07
1.28739e+07
1.28348e+07
1.27944e+07
1.27527e+07
1.27096e+07
1.26652e+07
1.26195e+07
1.25725e+07
1.25241e+07
1.24744e+07
1.24233e+07
1.23709e+07
1.23171e+07
1.22619e+07
1.22054e+07
1.21475e+07
1.20882e+07
1.20276e+07
1.19655e+07
1.1902e+07
1.18371e+07
1.17708e+07
1.1703e+07
1.16339e+07
1.15633e+07
1.14913e+07
1.1418e+07
1.13433e+07
1.12673e+07
1.119e+07
1.11115e+07
1.10317e+07
1.09505e+07
1.08673e+07
1.07799e+07
1.06789e+07
1.06659e+07
1.06632e+07
1.06605e+07
1.06578e+07
1.06551e+07
1.06525e+07
1.06498e+07
1.06472e+07
1.06445e+07
1.06418e+07
1.06392e+07
1.06365e+07
1.06339e+07
1.06312e+07
1.06286e+07
1.06259e+07
1.06232e+07
1.06206e+07
1.06179e+07
1.06152e+07
1.06125e+07
1.06098e+07
1.06071e+07
1.06044e+07
1.06017e+07
1.05989e+07
1.05962e+07
1.05934e+07
1.05907e+07
1.05879e+07
1.05851e+07
1.05823e+07
1.05795e+07
1.05767e+07
1.05738e+07
1.05709e+07
1.05681e+07
1.05652e+07
1.05623e+07
1.05593e+07
1.05564e+07
1.05534e+07
1.05505e+07
1.05475e+07
1.05444e+07
1.05414e+07
1.05383e+07
1.05353e+07
1.05322e+07
1.0529e+07
1.05259e+07
1.05227e+07
1.05196e+07
1.05163e+07
1.05131e+07
1.05099e+07
1.05066e+07
1.05033e+07
1.05e+07
1.04966e+07
1.04932e+07
1.04899e+07
1.04864e+07
1.0483e+07
1.04795e+07
1.0476e+07
1.04725e+07
1.04689e+07
1.04654e+07
1.04618e+07
1.04581e+07
1.04545e+07
1.04508e+07
1.04471e+07
1.04433e+07
1.04395e+07
1.04357e+07
1.04319e+07
1.0428e+07
1.04242e+07
1.04202e+07
1.04163e+07
1.04123e+07
1.04083e+07
1.04043e+07
1.04002e+07
1.03961e+07
1.03919e+07
1.03878e+07
1.03836e+07
1.03793e+07
1.03751e+07
1.03708e+07
1.03664e+07
1.03621e+07
1.03577e+07
1.03533e+07
1.03488e+07
1.03443e+07
1.03397e+07
1.03352e+07
1.03306e+07
1.03259e+07
1.03212e+07
1.03165e+07
1.03118e+07
1.0307e+07
1.03022e+07
1.02973e+07
1.02924e+07
1.02875e+07
1.02825e+07
1.02775e+07
1.02725e+07
1.02674e+07
1.02623e+07
1.02571e+07
1.34525e+07
1.34509e+07
1.34479e+07
1.34435e+07
1.34376e+07
1.34303e+07
1.34215e+07
1.34113e+07
1.33996e+07
1.33864e+07
1.33717e+07
1.33555e+07
1.33378e+07
1.33187e+07
1.32982e+07
1.32761e+07
1.32527e+07
1.32278e+07
1.32016e+07
1.31739e+07
1.31448e+07
1.31144e+07
1.30826e+07
1.30494e+07
1.3015e+07
1.29791e+07
1.2942e+07
1.29035e+07
1.28638e+07
1.28227e+07
1.27803e+07
1.27367e+07
1.26917e+07
1.26455e+07
1.2598e+07
1.25491e+07
1.2499e+07
1.24476e+07
1.23949e+07
1.23409e+07
1.22856e+07
1.2229e+07
1.2171e+07
1.21118e+07
1.20512e+07
1.19893e+07
1.19261e+07
1.18616e+07
1.17958e+07
1.17286e+07
1.16602e+07
1.15904e+07
1.15194e+07
1.14472e+07
1.13737e+07
1.12991e+07
1.12233e+07
1.11464e+07
1.10684e+07
1.09893e+07
1.09089e+07
1.08271e+07
1.0744e+07
1.06663e+07
1.06625e+07
1.06599e+07
1.06572e+07
1.06546e+07
1.0652e+07
1.06493e+07
1.06467e+07
1.06441e+07
1.06415e+07
1.06388e+07
1.06362e+07
1.06336e+07
1.06309e+07
1.06283e+07
1.06256e+07
1.0623e+07
1.06203e+07
1.06177e+07
1.0615e+07
1.06123e+07
1.06096e+07
1.06069e+07
1.06042e+07
1.06015e+07
1.05988e+07
1.05961e+07
1.05933e+07
1.05906e+07
1.05878e+07
1.0585e+07
1.05822e+07
1.05794e+07
1.05766e+07
1.05737e+07
1.05709e+07
1.0568e+07
1.05651e+07
1.05622e+07
1.05593e+07
1.05563e+07
1.05534e+07
1.05504e+07
1.05474e+07
1.05444e+07
1.05414e+07
1.05383e+07
1.05352e+07
1.05321e+07
1.0529e+07
1.05259e+07
1.05227e+07
1.05195e+07
1.05163e+07
1.05131e+07
1.05098e+07
1.05066e+07
1.05033e+07
1.05e+07
1.04966e+07
1.04932e+07
1.04898e+07
1.04864e+07