/*--------------------------------*- C++ -*----------------------------------*\
  =========                 |
  \\      /  F ield         | OpenFOAM: The Open Source CFD Toolbox
   \\    /   O peration     | Website:  https://openfoam.org
    \\  /    A nd           | Version:  10
     \\/     M anipulation  |
\*---------------------------------------------------------------------------*/
FoamFile
{
    format      ascii;
    class       volVectorField;
    location    "2.47";
    object      Ub;
}
// * * * * * * * * * * * * * * * * * * * * * * * * * * * * * * * * * * * * * //

dimensions      [0 1 -1 0 0 0 0];

internalField   nonuniform List<vector> 
12225
(
(0.00228917 -0.000462232 0)
(0.00653519 -0.000411701 0)
(0.0100362 -0.000338606 0)
(0.0127418 -0.000265521 0)
(0.0147595 -0.000204191 0)
(0.0162509 -0.000158021 0)
(0.0173722 -0.000126219 0)
(0.018252 -0.000106667 0)
(0.0189903 -9.73744e-05 0)
(0.019665 -9.71177e-05 0)
(0.0203403 -0.000105774 0)
(0.0210774 -0.00012475 0)
(0.0219463 -0.000157959 0)
(0.0230463 -0.00021436 0)
(0.0245507 -0.00031541 0)
(0.0268336 -0.000521564 0)
(0.0309674 -0.00105798 0)
(0.0415388 -0.00315923 0)
(0.00242244 -0.00144854 0)
(0.00690739 -0.00128831 0)
(0.0105881 -0.00105735 0)
(0.0134152 -0.000827124 0)
(0.0155093 -0.000634444 0)
(0.0170462 -0.000489729 0)
(0.0181937 -0.000390251 0)
(0.0190887 -0.000329197 0)
(0.0198368 -0.000300218 0)
(0.0205192 -0.00029939 0)
(0.0212026 -0.000326223 0)
(0.0219494 -0.000384923 0)
(0.0228297 -0.000487275 0)
(0.0239403 -0.000660015 0)
(0.025441 -0.000965648 0)
(0.0276377 -0.00157101 0)
(0.0311521 -0.0030253 0)
(0.036499 -0.00768236 0)
(0.00252616 -0.00255824 0)
(0.00719115 -0.00226983 0)
(0.010995 -0.00185663 0)
(0.0138936 -0.00144692 0)
(0.0160228 -0.00110565 0)
(0.0175732 -0.00085034 0)
(0.0187225 -0.000675422 0)
(0.0196137 -0.000568346 0)
(0.0203555 -0.00051758 0)
(0.0210306 -0.000515941 0)
(0.0217057 -0.000562215 0)
(0.0224416 -0.000663149 0)
(0.023304 -0.000837919 0)
(0.0243778 -0.00112921 0)
(0.0257873 -0.00163239 0)
(0.0277184 -0.00257935 0)
(0.030337 -0.00460013 0)
(0.0328131 -0.00950144 0)
(0.00263283 -0.00379792 0)
(0.00747699 -0.00335881 0)
(0.0113908 -0.00273501 0)
(0.0143402 -0.00212126 0)
(0.0164827 -0.00161344 0)
(0.0180268 -0.00123565 0)
(0.0191613 -0.000977957 0)
(0.0200349 -0.000820717 0)
(0.0207585 -0.000746194 0)
(0.0214148 -0.00074322 0)
(0.0220689 -0.000809268 0)
(0.0227778 -0.000952867 0)
(0.023599 -0.00119896 0)
(0.0245987 -0.0016016 0)
(0.025855 -0.00227405 0)
(0.0274322 -0.00346078 0)
(0.0292069 -0.00569563 0)
(0.0301583 -0.00998316 0)
(0.00275607 -0.00518569 0)
(0.00780102 -0.00456604 0)
(0.0118251 -0.00369586 0)
(0.0148112 -0.00284883 0)
(0.0169476 -0.00215441 0)
(0.0184663 -0.00164166 0)
(0.0195695 -0.00129396 0)
(0.0204115 -0.00108264 0)
(0.0211045 -0.000982466 0)
(0.0217302 -0.000977317 0)
(0.0223506 -0.00106248 0)
(0.0230167 -0.001247 0)
(0.0237751 -0.00155896 0)
(0.0246699 -0.00205728 0)
(0.0257327 -0.00285612 0)
(0.0269347 -0.0041698 0)
(0.0280268 -0.00636487 0)
(0.0281828 -0.0098462 0)
(0.00290719 -0.00674875 0)
(0.00819141 -0.00590744 0)
(0.0123328 -0.00474401 0)
(0.0153419 -0.00362775 0)
(0.0174507 -0.00272377 0)
(0.0189225 -0.00206286 0)
(0.0199755 -0.0016181 0)
(0.02077 -0.00134919 0)
(0.0214188 -0.00122163 0)
(0.0220011 -0.00121317 0)
(0.0225744 -0.00131574 0)
(0.0231822 -0.00153718 0)
(0.0238585 -0.00190542 0)
(0.0246252 -0.00247721 0)
(0.0254755 -0.00335297 0)
(0.0263257 -0.00469331 0)
(0.0269097 -0.00670202 0)
(0.0266608 -0.00944176 0)
(0.00309924 -0.00852557 0)
(0.00867906 -0.00740409 0)
(0.0129487 -0.00588448 0)
(0.0159636 -0.00445399 0)
(0.0180181 -0.003314 0)
(0.0194168 -0.00249118 0)
(0.0203972 -0.00194287 0)
(0.0211259 -0.00161356 0)
(0.021715 -0.00145731 0)
(0.02224 -0.00144424 0)
(0.0227523 -0.00156152 0)
(0.023287 -0.00181382 0)
(0.0238653 -0.00222545 0)
(0.0244896 -0.00284477 0)
(0.0251269 -0.00374909 0)
(0.0256724 -0.00504013 0)
(0.0258982 -0.00679858 0)
(0.0254524 -0.00893317 0)
(0.00334991 -0.0105705 0)
(0.00930383 -0.00908306 0)
(0.0137142 -0.00712102 0)
(0.01671 -0.00531948 0)
(0.0186749 -0.00391327 0)
(0.0199674 -0.00291482 0)
(0.0208482 -0.00225776 0)
(0.0214896 -0.00186657 0)
(0.0220016 -0.00168115 0)
(0.0224543 -0.00166229 0)
(0.0228918 -0.0017909 0)
(0.0233401 -0.00206645 0)
(0.0238085 -0.00250657 0)
(0.0242849 -0.00314694 0)
(0.0247222 -0.00403828 0)
(0.0250183 -0.00523085 0)
(0.0250013 -0.00672792 0)
(0.0244689 -0.00839258 0)
(0.00368514 -0.0129616 0)
(0.0101217 -0.0109783 0)
(0.0146829 -0.00845361 0)
(0.0176206 -0.0062092 0)
(0.0194472 -0.00450319 0)
(0.0205912 -0.00331678 0)
(0.0213395 -0.00254836 0)
(0.0218686 -0.00209607 0)
(0.0222842 -0.0018825 0)
(0.0226489 -0.00185731 0)
(0.0229982 -0.00199364 0)
(0.0233489 -0.00228411 0)
(0.0237003 -0.00273746 0)
(0.0240306 -0.00337478 0)
(0.0242896 -0.00422164 0)
(0.0243899 -0.00529005 0)
(0.0242131 -0.00654322 0)
(0.0236517 -0.00784963 0)
(0.0041453 -0.0158148 0)
(0.0112158 -0.0131314 0)
(0.0159276 -0.00987363 0)
(0.0187439 -0.00709653 0)
(0.0203636 -0.00505562 0)
(0.0213043 -0.00367295 0)
(0.02188 -0.00279521 0)
(0.0222682 -0.00228633 0)
(0.0225663 -0.00204813 0)
(0.0228269 -0.00201742 0)
(0.0230757 -0.00215847 0)
(0.0233202 -0.00245587 0)
(0.0235519 -0.00290853 0)
(0.0237441 -0.00352325 0)
(0.0238497 -0.00430502 0)
(0.0238009 -0.00524139 0)
(0.0235218 -0.00628063 0)
(0.0229606 -0.00731478 0)
(0.00479654 -0.0193079 0)
(0.0127145 -0.0155893 0)
(0.0175499 -0.0113543 0)
(0.0201395 -0.00793548 0)
(0.0214544 -0.00552811 0)
(0.0221204 -0.00394967 0)
(0.0224755 -0.00297263 0)
(0.0226904 -0.00241754 0)
(0.0228488 -0.00216206 0)
(0.0229897 -0.00212904 0)
(0.0231273 -0.00227335 0)
(0.0232602 -0.00257127 0)
(0.0233735 -0.00301216 0)
(0.0234392 -0.00359052 0)
(0.0234167 -0.00429665 0)
(0.0232567 -0.00510512 0)
(0.0229138 -0.00596358 0)
(0.0223667 -0.00679011 0)
(0.00568222 -0.0233036 0)
(0.0146714 -0.0181509 0)
(0.0195411 -0.0127211 0)
(0.0217608 -0.00860612 0)
(0.0226659 -0.00584536 0)
(0.0229943 -0.00410031 0)
(0.0230934 -0.00305059 0)
(0.0231156 -0.0024687 0)
(0.023124 -0.00220805 0)
(0.0231406 -0.00217855 0)
(0.0231675 -0.00232676 0)
(0.0231946 -0.00262191 0)
(0.0232025 -0.0030457 0)
(0.0231636 -0.00358387 0)
(0.0230439 -0.00421801 0)
(0.0228078 -0.00491786 0)
(0.0224281 -0.00563648 0)
(0.0218979 -0.00631301 0)
(0.00692816 -0.0284299 0)
(0.0172948 -0.0209862 0)
(0.0220165 -0.0139543 0)
(0.0236456 -0.00905099 0)
(0.0239961 -0.00595668 0)
(0.0239058 -0.00408762 0)
(0.0237055 -0.003003 0)
(0.0235118 -0.00242171 0)
(0.0233577 -0.00217365 0)
(0.0232441 -0.00215764 0)
(0.0231589 -0.00231373 0)
(0.0230832 -0.00260583 0)
(0.022994 -0.00301021 0)
(0.0228643 -0.00350708 0)
(0.0226663 -0.00407388 0)
(0.0223748 -0.0046804 0)
(0.0219743 -0.00528726 0)
(0.021465 -0.00584977 0)
(0.00917823 -0.0364423 0)
(0.021731 -0.024467 0)
(0.0257818 -0.0149683 0)
(0.026277 -0.00911683 0)
(0.0257352 -0.00573369 0)
(0.0250377 -0.00381728 0)
(0.0244323 -0.00276237 0)
(0.0239606 -0.00222818 0)
(0.0236053 -0.00202373 0)
(0.0233361 -0.00204031 0)
(0.0231219 -0.00221436 0)
(0.0229335 -0.0025068 0)
(0.0227433 -0.00289078 0)
(0.0225254 -0.00334375 0)
(0.0222569 -0.00384229 0)
(0.0219206 -0.00435935 0)
(0.021508 -0.00486431 0)
(0.0210225 -0.0053263 0)
(0.0137778 -0.0504438 0)
(0.0299648 -0.0280132 0)
(0.0316852 -0.0148764 0)
(0.0299102 -0.0082038 0)
(0.0279252 -0.00481392 0)
(0.026367 -0.00306771 0)
(0.0252357 -0.00218621 0)
(0.0244243 -0.00179043 0)
(0.0238339 -0.0016867 0)
(0.0233896 -0.00177071 0)
(0.0230361 -0.00198285 0)
(0.0227315 -0.00228626 0)
(0.0224431 -0.00265511 0)
(0.0221449 -0.0030679 0)
(0.0218172 -0.00350383 0)
(0.0214475 -0.00394137 0)
(0.0210308 -0.00435877 0)
(0.0205703 -0.00473625 0)
(0.0249414 -0.0794741 0)
(0.0472894 -0.0275018 0)
(0.040905 -0.0110953 0)
(0.0345491 -0.00508018 0)
(0.0303652 -0.00259736 0)
(0.0277057 -0.00151969 0)
(0.0259717 -0.00108652 0)
(0.0247971 -0.000986537 0)
(0.0239666 -0.00107658 0)
(0.0233498 -0.00128398 0)
(0.0228636 -0.00156785 0)
(0.0224527 -0.00190262 0)
(0.0220784 -0.00226976 0)
(0.0217137 -0.00265358 0)
(0.0213406 -0.00303931 0)
(0.0209486 -0.00341261 0)
(0.0205338 -0.0037602 0)
(0.020098 -0.00407096 0)
(0.0591885 0.000550581 0)
(0.0904829 0.00302424 0)
(0.052807 0.00255596 0)
(0.0387108 0.00199643 0)
(0.0321356 0.00152175 0)
(0.0285409 0.00109281 0)
(0.0263521 0.000682522 0)
(0.0249123 0.000278968 0)
(0.0239037 -0.000122571 0)
(0.0231542 -0.000522984 0)
(0.0225611 -0.000919665 0)
(0.0220609 -0.00131317 0)
(0.0216142 -0.00169929 0)
(0.0211951 -0.00207271 0)
(0.0207872 -0.00242739 0)
(0.0203809 -0.00275715 0)
(0.0199723 -0.00305634 0)
(0.019561 -0.00332056 0)
(0.020496 0.076157 0)
(0.0405036 0.0319911 0)
(0.0373396 0.016367 0)
(0.0325341 0.0096148 0)
(0.0289437 0.00615965 0)
(0.0264923 0.0041277 0)
(0.024813 0.00278771 0)
(0.0236271 0.00181755 0)
(0.0227545 0.00106113 0)
(0.022082 0.000437663 0)
(0.0215385 -9.55339e-05 0)
(0.0210764 -0.000564741 0)
(0.0206622 -0.000982911 0)
(0.0202749 -0.00136051 0)
(0.0199027 -0.0017009 0)
(0.0195388 -0.00200552 0)
(0.0191802 -0.00227503 0)
(0.0188261 -0.00251002 0)
(0.00782224 0.0404099 0)
(0.018731 0.0279252 0)
(0.0226171 0.0185558 0)
(0.0233761 0.0125373 0)
(0.0230478 0.00868843 0)
(0.0224365 0.0061392 0)
(0.0218181 0.00437103 0)
(0.0212687 0.00308548 0)
(0.0207955 0.00210899 0)
(0.0203851 0.00133832 0)
(0.0200207 0.000710456 0)
(0.0196886 0.00018769 0)
(0.0193791 -0.000254441 0)
(0.0190838 -0.000633121 0)
(0.018796 -0.000961013 0)
(0.0185126 -0.00124586 0)
(0.0182324 -0.00149266 0)
(0.0179555 -0.00170534 0)
(0.00425147 0.0245392 0)
(0.0111742 0.0202983 0)
(0.0152742 0.0156428 0)
(0.017401 0.0117573 0)
(0.0184106 0.00878112 0)
(0.0188379 0.00655431 0)
(0.0189713 0.00488358 0)
(0.0189569 0.00361163 0)
(0.0188662 0.00262414 0)
(0.0187342 0.00184147 0)
(0.0185773 0.0012088 0)
(0.0184038 0.000688496 0)
(0.0182179 0.000254509 0)
(0.0180237 -0.000109118 0)
(0.0178232 -0.000415749 0)
(0.0176171 -0.000677282 0)
(0.0174068 -0.000901069 0)
(0.0171942 -0.00109242 0)
(0.00292545 0.0173126 0)
(0.00803466 0.0152333 0)
(0.0116682 0.0125349 0)
(0.0140279 0.00996126 0)
(0.0154941 0.00777845 0)
(0.0163847 0.00601654 0)
(0.0169149 0.00461997 0)
(0.0172191 0.00351533 0)
(0.0173783 0.00263614 0)
(0.0174413 0.00192913 0)
(0.0174381 0.00135384 0)
(0.0173876 0.000880264 0)
(0.017302 0.000486344 0)
(0.0171902 0.000155861 0)
(0.0170596 -0.000121283 0)
(0.0169152 -0.000354568 0)
(0.0167599 -0.000553285 0)
(0.016597 -0.000722703 0)
(0.00226891 0.0127753 0)
(0.00637756 0.0115814 0)
(0.0095783 0.00988539 0)
(0.0118982 0.0081313 0)
(0.0135165 0.0065411 0)
(0.0146238 0.00518821 0)
(0.0153725 0.00407177 0)
(0.0158719 0.00316194 0)
(0.0161964 0.00242226 0)
(0.0163966 0.00181887 0)
(0.0165064 0.00132356 0)
(0.0165493 0.000913896 0)
(0.0165421 0.00057254 0)
(0.0164967 0.000286185 0)
(0.0164224 4.47525e-05 0)
(0.0163268 -0.000157504 0)
(0.0162153 -0.00032884 0)
(0.0160917 -0.000474796 0)
(0.00189821 0.00961304 0)
(0.00540591 0.00885819 0)
(0.00828164 0.00772799 0)
(0.0105007 0.0064982 0)
(0.0121526 0.0053331 0)
(0.0133572 0.00430528 0)
(0.0142239 0.00343231 0)
(0.01484 0.00270493 0)
(0.0152706 0.0021037 0)
(0.0155634 0.00160738 0)
(0.0157527 0.00119663 0)
(0.0158635 0.000855136 0)
(0.0159144 0.000569702 0)
(0.0159191 0.000329874 0)
(0.0158884 0.000127423 0)
(0.0158308 -4.3388e-05 0)
(0.0157529 -0.000186915 0)
(0.0156596 -0.000309226 0)
(0.00166917 0.00725928 0)
(0.00479115 0.00675482 0)
(0.00743055 0.00597431 0)
(0.00954709 0.00509678 0)
(0.0111872 0.00424056 0)
(0.0124306 0.00346612 0)
(0.0133592 0.00279482 0)
(0.0140438 0.00222637 0)
(0.0145411 0.00175065 0)
(0.014895 0.00135428 0)
(0.0151387 0.00102403 0)
(0.0152974 0.000748173 0)
(0.0153902 0.000516878 0)
(0.0154318 0.00032214 0)
(0.0154336 0.000157538 0)
(0.0154047 1.797e-05 0)
(0.0153523 -9.91637e-05 0)
(0.0152822 -0.000198792 0)
(0.00151781 0.00543002 0)
(0.00437825 0.00508395 0)
(0.00684379 0.00453681 0)
(0.0088701 0.00390824 0)
(0.0104815 0.00328265 0)
(0.0117344 0.00270699 0)
(0.0126928 0.00220081 0)
(0.0134159 0.0017672 0)
(0.013954 0.00140099 0)
(0.0143471 0.00109373 0)
(0.0146272 0.000836374 0)
(0.0148188 0.000620567 0)
(0.0149413 0.00043911 0)
(0.0150095 0.000286021 0)
(0.0150353 0.000156423 0)
(0.0150278 4.6369e-05 0)
(0.0149948 -4.65179e-05 0)
(0.0149422 -0.000125136 0)
(0.00141177 0.00396672 0)
(0.00408536 0.003729 0)
(0.00641884 0.00334757 0)
(0.00836763 0.00290302 0)
(0.0099441 0.0024546 0)
(0.0111906 0.00203709 0)
(0.0121596 0.00166629 0)
(0.0129022 0.00134604 0)
(0.0134635 0.00107378 0)
(0.0138808 0.000844155 0)
(0.0141844 0.000651041 0)
(0.0143982 0.000488601 0)
(0.0145412 0.00035169 0)
(0.0146284 0.000235968 0)
(0.0146716 0.000137858 0)
(0.0146802 5.4444e-05 0)
(0.0146619 -1.63423e-05 0)
(0.0146227 -7.59829e-05 0)
(0.0013326 0.00277353 0)
(0.0038643 0.00261445 0)
(0.00609211 0.00235656 0)
(0.00797241 0.00205308 0)
(0.00951091 0.00174419 0)
(0.0107413 0.00145428 0)
(0.0117083 0.00119503 0)
(0.0124574 0.000969831 0)
(0.0130299 0.000777474 0)
(0.0134606 0.000614611 0)
(0.0137785 0.000477222 0)
(0.0140067 0.000361368 0)
(0.0141636 0.000263525 0)
(0.0142642 0.000180688 0)
(0.0143201 0.000110359 0)
(0.0143407 5.04895e-05 0)
(0.0143335 -5.37354e-07 0)
(0.0143049 -4.3387e-05 0)
(0.00126812 0.00178907 0)
(0.00368237 0.00168963 0)
(0.00581825 0.00152724 0)
(0.0076336 0.00133491 0)
(0.00913035 0.00113798 0)
(0.0103367 0.000952155 0)
(0.0112921 0.000785205 0)
(0.012038 0.000639603 0)
(0.0126126 0.000514812 0)
(0.0130488 0.000408855 0)
(0.0133741 0.000319258 0)
(0.0136108 0.000243552 0)
(0.0137769 0.000179506 0)
(0.0138868 0.000125202 0)
(0.013952 7.90348e-05 0)
(0.0139818 3.96836e-05 0)
(0.0139835 6.06136e-06 0)
(0.0139633 -2.21679e-05 0)
(0.00120746 0.000972966 0)
(0.00350943 0.000920093 0)
(0.00555322 0.000833297 0)
(0.00729842 0.000730069 0)
(0.0087449 0.000623966 0)
(0.00991714 0.000523494 0)
(0.0108509 0.000432942 0)
(0.0115842 0.00035375 0)
(0.0121526 0.000285712 0)
(0.0125873 0.000227819 0)
(0.0129143 0.000178772 0)
(0.0131549 0.00013726 0)
(0.0133264 0.000102089 0)
(0.0134427 7.22253e-05 0)
(0.0135149 4.68035e-05 0)
(0.0135521 2.51073e-05 0)
(0.0135613 6.54649e-06 0)
(0.0135488 -9.04575e-06 0)
(0.0011294 0.00030149 0)
(0.00328463 0.00028533 0)
(0.00520289 0.000258718 0)
(0.00684636 0.000226995 0)
(0.00821384 0.00019432 0)
(0.00932685 0.000163318 0)
(0.0102175 0.000135327 0)
(0.0109206 0.000110807 0)
(0.0114688 8.97094e-05 0)
(0.0118908 7.1733e-05 0)
(0.0122107 5.64845e-05 0)
(0.0124485 4.35635e-05 0)
(0.0126204 3.26039e-05 0)
(0.0127394 2.32886e-05 0)
(0.0128161 1.53508e-05 0)
(0.0128589 8.5695e-06 0)
(0.0128747 2.76252e-06 0)
(0.0128692 -2.10991e-06 0)
(7.81364e-05 -0.000183096 -2.36554e-30)
(0.00023507 -0.000182867 2.36073e-30)
(0.000393031 -0.000182475 0)
(0.000551879 -0.000181914 0)
(0.000711462 -0.000181182 0)
(0.000871624 -0.000180277 -2.31973e-30)
(0.0010322 -0.000179197 0)
(0.00119303 -0.000177942 0)
(0.00135394 -0.000176514 0)
(0.00151477 -0.000174916 0)
(0.00167535 -0.000173153 2.21818e-30)
(0.00183551 -0.000171233 0)
(0.00199511 -0.000169165 0)
(0.00215399 -0.000166962 0)
(0.00231202 -0.000164637 0)
(0.00246909 -0.000162211 2.06738e-30)
(0.00262511 -0.000159706 0)
(0.00277999 -0.000157149 0)
(0.00293373 -0.000154574 0)
(0.00308632 -0.000152017 0)
(0.00323784 -0.000149518 0)
(0.00338838 -0.00014712 0)
(0.00353813 -0.000144863 0)
(0.0036873 -0.000142785 1.80192e-30)
(0.00383618 -0.000140919 -1.77605e-30)
(0.00398511 -0.000139294 1.75329e-30)
(0.00413445 -0.00013793 1.73389e-30)
(0.00428463 -0.000136843 0)
(0.00443612 -0.000136046 0)
(0.0045894 -0.000135549 -1.69775e-30)
(0.00474502 -0.000135361 -1.69348e-30)
(0.00490353 -0.00013549 0)
(0.00506552 -0.000135945 0)
(0.00523161 -0.000136734 -1.70548e-30)
(0.0054024 -0.000137856 0)
(0.00557845 -0.000139304 0)
(0.00576028 -0.000141058 1.75513e-30)
(0.00594823 -0.000143082 0)
(0.00614251 -0.000145325 1.80577e-30)
(0.00634309 -0.000147732 3.66902e-30)
(0.00654977 -0.000150253 0)
(0.00676215 -0.000152868 0)
(0.00697981 -0.000155601 0)
(0.00720241 -0.000158545 0)
(0.00742986 -0.000161867 0)
(0.00766246 -0.000165813 4.10526e-30)
(0.00790104 -0.000170706 4.22612e-30)
(0.00814707 -0.000176952 4.38174e-30)
(0.00840272 -0.000185048 0)
(0.00867096 -0.000195625 -4.85208e-30)
(0.00895574 -0.000209501 0)
(0.00926214 -0.000227777 5.66921e-30)
(0.00959657 -0.000251962 6.28649e-30)
(0.0099666 -0.000284056 0)
(0.0103793 -0.000326282 0)
(0.0108322 -0.000379213 0)
(0.0112606 -0.000433308 1.09349e-29)
(0.0108333 -0.000428212 0)
(0.00511295 -2.42925e-05 0)
(5.14444e-06 -2.34931e-09 0)
(1.32787e-20 -6.064e-24 0)
(8.49969e-32 2.12479e-33 0)
(8.19213e-32 1.49676e-33 0)
(7.95935e-32 1.14016e-33 0)
(7.77057e-32 9.16786e-34 0)
(7.61024e-32 7.64267e-34 2.15526e-59)
(7.46985e-32 6.52537e-34 0)
(7.3444e-32 5.66063e-34 0)
(7.23069e-32 4.96251e-34 -1.45349e-59)
(7.12661e-32 4.38041e-34 -1.30056e-59)
(7.03065e-32 3.88286e-34 0)
(6.94171e-32 3.44934e-34 1.05552e-59)
(6.85894e-32 3.06598e-34 -9.54471e-60)
(6.78168e-32 2.72302e-34 0)
(6.7094e-32 2.41343e-34 7.82261e-60)
(6.64165e-32 2.13196e-34 0)
(6.57805e-32 1.87462e-34 0)
(6.51827e-32 1.63825e-34 -5.77369e-60)
(6.46204e-32 1.42035e-34 0)
(6.40911e-32 1.21883e-34 4.66375e-60)
(6.35926e-32 1.032e-34 0)
(6.31228e-32 8.58408e-35 -3.70923e-60)
(6.26799e-32 6.96809e-35 -3.28104e-60)
(6.22624e-32 5.46141e-35 -2.88171e-60)
(6.18687e-32 4.05478e-35 -5.0176e-60)
(6.14973e-32 2.74006e-35 4.3204e-60)
(6.11472e-32 1.51007e-35 0)
(6.0817e-32 3.5847e-36 0)
(6.05056e-32 -7.20437e-36 0)
(6.02121e-32 -1.73175e-35 1.94783e-60)
(5.99355e-32 -2.68006e-35 1.44451e-60)
(5.96748e-32 -3.56954e-35 -9.72343e-61)
(5.94293e-32 -4.404e-35 0)
(5.9198e-32 -5.1869e-35 1.13667e-61)
(5.89803e-32 -5.92145e-35 -2.76338e-61)
(5.87755e-32 -6.61059e-35 -6.42291e-61)
(5.85828e-32 -7.25706e-35 0)
(5.84016e-32 -7.86339e-35 0)
(5.82313e-32 -8.43194e-35 0)
(5.80713e-32 -8.96493e-35 -1.89271e-60)
(5.7921e-32 -9.46442e-35 0)
(5.778e-32 -9.93237e-35 0)
(5.76478e-32 -1.03706e-34 2.63944e-60)
(5.75237e-32 -1.07808e-34 0)
(5.74075e-32 -1.11646e-34 0)
(5.72986e-32 -1.15236e-34 3.25201e-60)
(5.71967e-32 -1.18592e-34 0)
(5.71014e-32 -1.21728e-34 0)
(5.70122e-32 -1.24656e-34 -3.75254e-60)
(5.69289e-32 -1.27389e-34 -3.89778e-60)
(5.68511e-32 -1.29939e-34 0)
(5.67784e-32 -1.32317e-34 4.1596e-60)
(5.67106e-32 -1.34532e-34 0)
(5.66474e-32 -1.36595e-34 -4.38699e-60)
(5.65885e-32 -1.38515e-34 0)
(5.65337e-32 -1.40301e-34 -4.58396e-60)
(5.64826e-32 -1.41962e-34 -4.67225e-60)
(5.64351e-32 -1.43505e-34 0)
(5.6391e-32 -1.44937e-34 0)
(5.635e-32 -1.46266e-34 0)
(5.63119e-32 -1.47499e-34 0)
(5.62766e-32 -1.48641e-34 0)
(5.62439e-32 -1.49698e-34 0)
(5.62135e-32 -1.50677e-34 0)
(5.61854e-32 -1.51583e-34 -5.18363e-60)
(5.61594e-32 -1.5242e-34 5.22815e-60)
(5.61354e-32 -1.53192e-34 0)
(5.61131e-32 -1.53906e-34 0)
(5.60926e-32 -1.54564e-34 0)
(5.60737e-32 -1.5517e-34 0)
(5.60562e-32 -1.55728e-34 1.08082e-59)
(5.60401e-32 -1.56242e-34 0)
(5.60252e-32 -1.56715e-34 -1.09131e-59)
(5.60116e-32 -1.57149e-34 1.09592e-59)
(5.5999e-32 -1.57548e-34 0)
(5.59875e-32 -1.57913e-34 0)
(5.59768e-32 -1.58248e-34 0)
(5.59671e-32 -1.58555e-34 -1.11088e-59)
(5.59582e-32 -1.58835e-34 -1.11386e-59)
(5.595e-32 -1.59091e-34 0)
(5.59424e-32 -1.59325e-34 -1.11907e-59)
(5.59355e-32 -1.59537e-34 -1.12134e-59)
(5.59292e-32 -1.5973e-34 1.12339e-59)
(5.59234e-32 -1.59905e-34 0)
(5.59181e-32 -1.60062e-34 0)
(5.59132e-32 -1.60204e-34 1.12844e-59)
(5.59087e-32 -1.60331e-34 0)
(5.59046e-32 -1.60443e-34 0)
(5.59007e-32 -1.60541e-34 0)
(5.58972e-32 -1.60625e-34 0)
(5.58938e-32 -1.60695e-34 -1.13371e-59)
(5.58907e-32 -1.60752e-34 -1.13432e-59)
(5.58877e-32 -1.60794e-34 0)
(5.58848e-32 -1.60821e-34 -1.13509e-59)
(5.58819e-32 -1.6083e-34 0)
(5.5879e-32 -1.60821e-34 0)
(5.5876e-32 -1.60789e-34 -1.13484e-59)
(5.58728e-32 -1.60732e-34 0)
(5.58693e-32 -1.60643e-34 -1.13339e-59)
(5.58654e-32 -1.60516e-34 0)
(5.58609e-32 -1.60343e-34 0)
(5.58556e-32 -1.60112e-34 -1.12804e-59)
(5.58492e-32 -1.59808e-34 0)
(5.58414e-32 -1.5941e-34 -1.12091e-59)
(5.58317e-32 -1.58892e-34 0)
(5.58197e-32 -1.58221e-34 0)
(5.58045e-32 -1.57348e-34 0)
(5.57851e-32 -1.56211e-34 1.08837e-59)
(5.57603e-32 -1.54723e-34 0)
(5.57283e-32 -1.52761e-34 -1.05323e-59)
(5.56865e-32 -1.50152e-34 0)
(5.56318e-32 -1.46639e-34 0)
(5.55591e-32 -1.41829e-34 0)
(5.54614e-32 -1.35094e-34 0)
(5.53276e-32 -1.2536e-34 0)
(5.514e-32 -1.10635e-34 0)
(5.48668e-32 -8.67571e-35 0)
(5.44434e-32 -4.34025e-35 -1.30754e-60)
(5.37075e-32 5.25262e-35 0)
(5.20767e-32 3.53331e-34 0)
(9.75801e-05 -0.000580248 7.49605e-30)
(0.00029358 -0.00057961 -7.48086e-30)
(0.000490914 -0.000578454 0)
(0.000689418 -0.000576772 1.48766e-29)
(0.000888922 -0.000574555 0)
(0.00108926 -0.000571804 -7.37754e-30)
(0.00129026 -0.000568526 -1.46351e-29)
(0.00149177 -0.000564735 -1.45276e-29)
(0.00169367 -0.00056045 0)
(0.00189583 -0.000555695 -1.42748e-29)
(0.00209818 -0.000550499 7.09026e-30)
(0.00230062 -0.000544892 0)
(0.00250312 -0.000538912 0)
(0.00270564 -0.000532595 0)
(0.00290813 -0.000525985 0)
(0.00311058 -0.000519127 6.67283e-30)
(0.00331297 -0.00051207 0)
(0.00351526 -0.000504869 1.28845e-29)
(0.00371738 -0.000497579 0)
(0.00391925 -0.000490261 0)
(0.00412073 -0.000482976 -1.229e-29)
(0.00432163 -0.000475786 0)
(0.00452171 -0.000468752 1.19034e-29)
(0.0047207 -0.000461933 5.91461e-30)
(0.00491828 -0.000455384 -5.82764e-30)
(0.00511412 -0.000449161 5.74489e-30)
(0.0053079 -0.000443313 5.66703e-30)
(0.0054993 -0.000437894 0)
(0.00568806 -0.000432955 0)
(0.00587394 -0.000428553 -5.46957e-30)
(0.00605678 -0.000424744 -1.61116e-29)
(0.00623649 -0.000421591 0)
(0.00641302 -0.000419153 0)
(0.00658641 -0.000417488 -5.31815e-30)
(0.00675675 -0.000416641 0)
(0.00692421 -0.000416647 0)
(0.00708904 -0.000417521 5.31264e-30)
(0.00725156 -0.000419256 0)
(0.0074122 -0.000421835 1.59188e-29)
(0.00757152 -0.000425241 1.08135e-29)
(0.00773022 -0.000429484 0)
(0.00788917 -0.000434633 0)
(0.00804938 -0.00044085 -2.20312e-29)
(0.00821205 -0.000448427 -2.24075e-29)
(0.00837854 -0.000457802 -2.28765e-29)
(0.00855035 -0.000469583 3.54059e-29)
(0.00872918 -0.000484555 1.23194e-29)
(0.00891697 -0.000503712 -1.23891e-29)
(0.00911591 -0.000528312 2.64522e-29)
(0.00932858 -0.000559971 -1.42547e-29)
(0.00955807 -0.000600845 0)
(0.00980812 -0.000653907 1.66715e-29)
(0.0100834 -0.000723422 5.49097e-29)
(0.0103901 -0.000815692 0)
(0.0107368 -0.000940262 0)
(0.0111375 -0.00111156 0)
(0.0116097 -0.0013487 3.45891e-29)
(0.0119778 -0.0016393 0)
(0.00610803 -0.00098063 5.01205e-29)
(6.12748e-05 -8.39474e-08 0)
(8.14125e-16 -1.11536e-18 -1.92207e-44)
(8.26082e-32 5.69639e-33 0)
(8.06644e-32 4.36554e-33 2.33311e-58)
(7.88603e-32 3.52711e-33 0)
(7.72351e-32 2.96002e-33 -1.60323e-58)
(7.57748e-32 2.55156e-33 2.06813e-58)
(7.44552e-32 2.24146e-33 0)
(7.32539e-32 1.99578e-33 1.10097e-58)
(7.21527e-32 1.79436e-33 -4.80866e-59)
(7.11372e-32 1.62468e-33 -4.36765e-59)
(7.01964e-32 1.47862e-33 0)
(6.93214e-32 1.35072e-33 1.12929e-58)
(6.85051e-32 1.23721e-33 -3.35985e-59)
(6.77417e-32 1.13541e-33 0)
(6.70266e-32 1.04333e-33 2.8552e-59)
(6.63556e-32 9.59506e-34 5.58717e-59)
(6.57251e-32 8.82782e-34 0)
(6.51323e-32 8.12256e-34 -2.2534e-59)
(6.45743e-32 7.47196e-34 0)
(6.40487e-32 6.87001e-34 -2.22949e-59)
(6.35536e-32 6.31169e-34 0)
(6.30868e-32 5.79274e-34 1.94421e-59)
(6.26467e-32 5.30953e-34 -1.52038e-59)
(6.22317e-32 4.85889e-34 -4.5026e-59)
(6.18402e-32 4.43809e-34 -8.34331e-59)
(6.1471e-32 4.04471e-34 7.72449e-59)
(6.11227e-32 3.67664e-34 0)
(6.07943e-32 3.33197e-34 0)
(6.04845e-32 3.00902e-34 0)
(6.01925e-32 2.70627e-34 -2.25177e-59)
(5.99173e-32 2.42236e-34 1.53525e-59)
(5.96579e-32 2.15604e-34 -1.39634e-59)
(5.94135e-32 1.90617e-34 0)
(5.91834e-32 1.67173e-34 3.99007e-59)
(5.89667e-32 1.45176e-34 1.02898e-59)
(5.87628e-32 1.24538e-34 9.21314e-60)
(5.8571e-32 1.05176e-34 0)
(5.83906e-32 8.70167e-35 0)
(5.82211e-32 6.99878e-35 0)
(5.80618e-32 5.40237e-35 5.53457e-60)
(5.79122e-32 3.90625e-35 0)
(5.77719e-32 2.50461e-35 1.35013e-59)
(5.76402e-32 1.19197e-35 8.78128e-60)
(5.75167e-32 -3.68036e-37 -1.08254e-59)
(5.7401e-32 -1.18658e-35 0)
(5.72926e-32 -2.26194e-35 -1.00182e-59)
(5.71911e-32 -3.26723e-35 0)
(5.70962e-32 -4.20653e-35 -6.43456e-60)
(5.70074e-32 -5.08374e-35 5.57432e-60)
(5.69245e-32 -5.90252e-35 4.28488e-60)
(5.6847e-32 -6.66636e-35 0)
(5.67746e-32 -7.37854e-35 4.22782e-60)
(5.67071e-32 -8.04218e-35 -2.39507e-60)
(5.66442e-32 -8.66022e-35 -1.80257e-60)
(5.65855e-32 -9.23548e-35 0)
(5.65309e-32 -9.77057e-35 -2.38195e-60)
(5.64801e-32 -1.0268e-34 -2.69232e-60)
(5.64328e-32 -1.07302e-34 0)
(5.63889e-32 -1.11593e-34 8.88039e-61)
(5.6348e-32 -1.15575e-34 1.30742e-60)
(5.63101e-32 -1.19267e-34 1.69635e-60)
(5.62749e-32 -1.22688e-34 0)
(5.62423e-32 -1.25857e-34 0)
(5.62121e-32 -1.2879e-34 0)
(5.61841e-32 -1.31502e-34 -7.13081e-60)
(5.61582e-32 -1.34009e-34 4.27641e-60)
(5.61343e-32 -1.36324e-34 0)
(5.61121e-32 -1.38461e-34 -3.71842e-60)
(5.60917e-32 -1.40432e-34 -3.92606e-60)
(5.60728e-32 -1.42249e-34 0)
(5.60554e-32 -1.43922e-34 9.58746e-60)
(5.60394e-32 -1.45461e-34 -8.91186e-60)
(5.60246e-32 -1.46877e-34 -9.89593e-60)
(5.6011e-32 -1.48178e-34 1.95161e-59)
(5.59985e-32 -1.49372e-34 0)
(5.5987e-32 -1.50467e-34 0)
(5.59764e-32 -1.51471e-34 0)
(5.59667e-32 -1.5239e-34 -1.04714e-59)
(5.59578e-32 -1.5323e-34 -2.11083e-59)
(5.59496e-32 -1.53997e-34 -1.07109e-59)
(5.59421e-32 -1.54696e-34 -1.07122e-59)
(5.59353e-32 -1.55333e-34 -2.17713e-59)
(5.5929e-32 -1.55911e-34 1.0839e-59)
(5.59232e-32 -1.56435e-34 0)
(5.59179e-32 -1.56907e-34 0)
(5.5913e-32 -1.57332e-34 2.24017e-59)
(5.59086e-32 -1.57711e-34 0)
(5.59044e-32 -1.58046e-34 0)
(5.59006e-32 -1.5834e-34 -1.16276e-59)
(5.58971e-32 -1.58593e-34 0)
(5.58938e-32 -1.58805e-34 -2.28678e-59)
(5.58906e-32 -1.58975e-34 -1.11594e-59)
(5.58877e-32 -1.59101e-34 0)
(5.58848e-32 -1.59181e-34 -2.29888e-59)
(5.58819e-32 -1.5921e-34 0)
(5.5879e-32 -1.59182e-34 0)
(5.5876e-32 -1.59089e-34 -1.11726e-59)
(5.58729e-32 -1.58917e-34 -1.17574e-59)
(5.58694e-32 -1.58653e-34 -1.11282e-59)
(5.58656e-32 -1.58276e-34 0)
(5.58611e-32 -1.5776e-34 0)
(5.58558e-32 -1.5707e-34 -2.23476e-59)
(5.58495e-32 -1.56161e-34 0)
(5.58419e-32 -1.54974e-34 -2.17041e-59)
(5.58324e-32 -1.53431e-34 0)
(5.58205e-32 -1.51427e-34 0)
(5.58055e-32 -1.48824e-34 0)
(5.57864e-32 -1.45434e-34 9.76917e-60)
(5.5762e-32 -1.40996e-34 0)
(5.57305e-32 -1.35151e-34 -8.71128e-60)
(5.56895e-32 -1.27382e-34 0)
(5.56358e-32 -1.16928e-34 0)
(5.55646e-32 -1.02634e-34 -2.34834e-61)
(5.54692e-32 -8.26573e-35 -3.86027e-60)
(5.53391e-32 -5.38749e-35 0)
(5.5158e-32 -1.05662e-35 0)
(5.48977e-32 5.89445e-35 0)
(5.45068e-32 1.82289e-34 6.85811e-59)
(5.38857e-32 4.39604e-34 0)
(5.2906e-32 1.13281e-33 -5.08488e-58)
(0.000103935 -0.00102072 5.27574e-29)
(0.000312715 -0.0010197 -7.43774e-33)
(0.000522929 -0.00101774 0)
(0.000734372 -0.00101483 1.73925e-32)
(0.000946832 -0.00101097 0)
(0.0011601 -0.00100616 0)
(0.00137396 -0.00100042 -5.15583e-29)
(0.00158821 -0.000993806 -2.56143e-29)
(0.00180268 -0.000986357 2.5369e-29)
(0.0020172 -0.000978132 -2.51888e-29)
(0.00223163 -0.000969194 0)
(0.00244582 -0.000959608 0)
(0.00265966 -0.00094944 -2.4354e-29)
(0.00287307 -0.000938757 -4.81255e-29)
(0.00308593 -0.000927625 4.75198e-29)
(0.00329817 -0.000916105 0)
(0.00350971 -0.000904254 4.62515e-29)
(0.00372044 -0.000892122 2.28851e-29)
(0.00393024 -0.00087975 0)
(0.00413897 -0.000867171 4.42452e-29)
(0.00434644 -0.000854413 -2.18808e-29)
(0.0045524 -0.000841501 -4.28596e-29)
(0.00475658 -0.000828464 2.11907e-29)
(0.00495867 -0.000815338 0)
(0.00515833 -0.000802174 4.07406e-29)
(0.00535522 -0.000789042 4.00338e-29)
(0.00554903 -0.000776031 0)
(0.00573949 -0.00076325 3.86459e-29)
(0.00592636 -0.000750825 0)
(0.00610951 -0.000738897 3.73345e-29)
(0.00628885 -0.000727614 -1.85114e-29)
(0.00646437 -0.00071713 0)
(0.00663615 -0.000707597 0)
(0.00680433 -0.000699159 0)
(0.00696912 -0.000691955 0)
(0.0071308 -0.000686112 0)
(0.00728974 -0.00068175 0)
(0.00744637 -0.000678984 3.40477e-29)
(0.00760122 -0.000677937 -1.68063e-29)
(0.00775489 -0.000678753 0)
(0.00790812 -0.000681615 0)
(0.00806172 -0.000686774 0)
(0.00821664 -0.000694573 -6.9877e-29)
(0.00837392 -0.000705473 -3.56812e-29)
(0.00853469 -0.000720084 -4.03075e-31)
(0.00870021 -0.000739197 4.10889e-31)
(0.00887183 -0.000763813 -3.82313e-29)
(0.00905101 -0.000795209 -4.02565e-29)
(0.00923931 -0.000835014 8.41569e-29)
(0.00943844 -0.000885346 4.44341e-29)
(0.00965016 -0.00094902 0)
(0.00987619 -0.00102988 5.18445e-29)
(0.0101178 -0.00113336 1.14798e-28)
(0.0103748 -0.00126738 0)
(0.0106425 -0.00144404 0)
(0.0109024 -0.0016827 -8.54491e-29)
(0.0110906 -0.00201434 0)
(0.0109563 -0.00246385 0)
(0.0070826 -0.00214244 3.29608e-28)
(0.00170294 -4.14651e-06 -5.3724e-32)
(3.90882e-08 -8.92521e-11 9.22848e-37)
(2.00818e-31 7.50032e-33 0)
(7.91544e-32 6.41881e-33 3.39319e-58)
(7.78178e-32 5.47123e-33 0)
(7.6485e-32 4.74805e-33 -7.65296e-58)
(7.52118e-32 4.18274e-33 2.23345e-58)
(7.40163e-32 3.72949e-33 4.06588e-58)
(7.29003e-32 3.35703e-33 5.48199e-58)
(7.18599e-32 3.044e-33 0)
(7.08893e-32 2.77569e-33 -3.07082e-58)
(6.99825e-32 2.54187e-33 0)
(6.91342e-32 2.33531e-33 -1.33789e-58)
(6.83394e-32 2.15081e-33 -2.41749e-58)
(6.75937e-32 1.98454e-33 -2.24346e-58)
(6.68933e-32 1.83363e-33 2.08544e-58)
(6.62349e-32 1.69589e-33 -1.00185e-58)
(6.56154e-32 1.56956e-33 0)
(6.50321e-32 1.45326e-33 0)
(6.44825e-32 1.34584e-33 1.57425e-58)
(6.39645e-32 1.24636e-33 7.65162e-59)
(6.3476e-32 1.15402e-33 0)
(6.30153e-32 1.06814e-33 6.11722e-59)
(6.25806e-32 9.8812e-34 0)
(6.21705e-32 9.13464e-34 5.89671e-59)
(6.17836e-32 8.43723e-34 -2.03651e-58)
(6.14185e-32 7.78505e-34 1.89992e-58)
(6.1074e-32 7.17462e-34 -9.14865e-59)
(6.0749e-32 6.60286e-34 0)
(6.04425e-32 6.06701e-34 7.98552e-59)
(6.01535e-32 5.56457e-34 -1.43476e-58)
(5.98809e-32 5.09331e-34 0)
(5.96241e-32 4.65118e-34 0)
(5.93821e-32 4.23631e-34 0)
(5.91541e-32 3.847e-34 5.09497e-59)
(5.89395e-32 3.48168e-34 0)
(5.87375e-32 3.1389e-34 0)
(5.85475e-32 2.8173e-34 0)
(5.83687e-32 2.51564e-34 0)
(5.82008e-32 2.23275e-34 0)
(5.80429e-32 1.96753e-34 -3.67879e-59)
(5.78947e-32 1.71897e-34 0)