/*--------------------------------*- C++ -*----------------------------------*\
  =========                 |
  \\      /  F ield         | OpenFOAM: The Open Source CFD Toolbox
   \\    /   O peration     | Website:  https://openfoam.org
    \\  /    A nd           | Version:  10
     \\/     M anipulation  |
\*---------------------------------------------------------------------------*/
FoamFile
{
    format      ascii;
    class       volScalarField;
    location    "18900";
    object      p;
}
// * * * * * * * * * * * * * * * * * * * * * * * * * * * * * * * * * * * * * //

dimensions      [1 -1 -2 0 0 0 0];

internalField   nonuniform List<scalar> 
6400
(
111.91
111.944
112.013
112.122
112.282
112.511
113.009
270.953
426.768
654.289
875.438
1072.04
1263.7
1449.63
1632.48
1810.46
1986.29
2162.8
2337.95
2511.22
2681.24
2848.96
3014.77
3178.04
3339.37
3499.27
3657.77
3814.78
3970.13
4123.12
4272.27
4416
4513.16
4569.87
4622.49
4669.77
4710.27
4742.48
4764.94
4776.5
4776.5
4764.94
4742.48
4710.27
4669.77
4622.49
4569.87
4513.16
4416
4272.27
4123.12
3970.13
3814.78
3657.77
3499.27
3339.37
3178.04
3014.77
2848.96
2681.24
2511.22
2337.95
2162.8
1986.29
1810.46
1632.48
1449.63
1263.7
1072.04
875.438
654.289
426.768
270.953
113.009
112.511
112.282
112.122
112.013
111.944
111.91
111.615
111.648
111.717
111.826
111.985
112.214
112.606
112.795
129.373
360.442
582.487
778.214
969.926
1155.75
1338.68
1516.54
1692.25
1868.85
2044.03
2217.36
2387.34
2555.05
2720.89
2884.13
3045.44
3205.34
3363.84
3520.85
3676.24
3829.3
3978.51
4122.42
4219.86
4276.8
4329.7
4377.3
4418.14
4450.67
4473.39
4485.09
4485.09
4473.39
4450.67
4418.14
4377.3
4329.7
4276.8
4219.86
4122.42
3978.51
3829.3
3676.24
3520.85
3363.84
3205.34
3045.44
2884.13
2720.89
2555.05
2387.34
2217.36
2044.03
1868.85
1692.25
1516.54
1338.68
1155.75
969.926
778.214
582.487
360.442
129.373
112.795
112.606
112.214
111.985
111.826
111.717
111.648
111.615
111.289
111.322
111.39
111.498
111.655
111.879
112.221
112.451
113.029
112.996
263.12
456.065
647.963
833.509
1016.67
1194.25
1369.67
1546.5
1721.74
1895.21
2065.1
2232.76
2398.68
2561.85
2723.11
2883.01
3041.53
3198.56
3354.01
3507.23
3656.6
3800.89
3898.98
3956.44
4009.99
4058.34
4099.98
4133.28
4156.61
4168.65
4168.65
4156.61
4133.28
4099.98
4058.34
4009.99
3956.44
3898.98
3800.89
3656.6
3507.23
3354.01
3198.56
3041.53
2883.01
2723.11
2561.85
2398.68
2232.76
2065.1
1895.21
1721.74
1546.5
1369.67
1194.25
1016.67
833.509
647.963
456.065
263.12
112.996
113.029
112.451
112.221
111.879
111.655
111.498
111.39
111.322
111.289
110.93
110.962
111.03
111.136
111.29
111.505
111.806
112.051
112.492
112.467
112.352
112.811
295.261
480.146
663.796
840.849
1015.72
1193
1368.32
1542.09
1711.78
1879.37
2045.44
2208.49
2369.66
2529.56
2688.1
2845.15
3000.73
3154.23
3303.84
3448.78
3547.99
3606.36
3661.04
3710.71
3753.77
3788.43
3812.87
3825.54
3825.54
3812.87
3788.43
3753.77
3710.71
3661.04
3606.36
3547.99
3448.78
3303.84
3154.23
3000.73
2845.15
2688.1
2529.56
2369.66
2208.49
2045.44
1879.37
1711.78
1542.09
1368.32
1193
1015.72
840.849
663.796
480.146
295.261
112.811
112.352
112.467
112.492
112.051
111.806
111.505
111.29
111.136
111.03
110.962
110.93
110.533
110.565
110.631
110.735
110.884
111.088
111.355
111.598
111.939
111.963
111.911
112.07
111.913
112.246
277.493
453.324
627.238
805.382
980.772
1155.06
1324.39
1491.86
1658.21
1821.04
1982.07
2141.98
2300.56
2457.64
2613.4
2767.34
2917.3
3063.18
3164.08
3223.86
3280.31
3332.06
3377.38
3414.27
3440.54
3454.25
3454.25
3440.54
3414.27
3377.38
3332.06
3280.31
3223.86
3164.08
3063.18
2917.3
2767.34
2613.4
2457.64
2300.56
2141.98
1982.07
1821.04
1658.21
1491.86
1324.39
1155.06
980.772
805.382
627.238
453.324
277.493
112.246
111.913
112.07
111.911
111.963
111.939
111.598
111.355
111.088
110.884
110.735
110.631
110.565
110.533
110.095
110.126
110.191
110.292
110.434
110.624
110.862
111.093
111.361
111.417
111.409
111.51
111.432
111.55
111.39
111.466
200.474
380.412
555.735
730.995
899.63
1066.91
1233.8
1396.24
1557.04
1716.99
1875.62
2032.72
2188.74
2343.37
2493.72
2640.83
2744.12
2805.94
2865
2919.85
2968.63
3009.01
3038.21
3053.6
3053.6
3038.21
3009.01
2968.63
2919.85
2865
2805.94
2744.12
2640.83
2493.72
2343.37
2188.74
2032.72
1875.62
1716.99
1557.04
1396.24
1233.8
1066.91
899.63
730.995
555.735
380.412
200.474
111.466
111.39
111.55
111.432
111.51
111.409
111.417
111.361
111.093
110.862
110.624
110.434
110.292
110.191
110.126
110.095
109.611
109.642
109.704
109.801
109.935
110.111
110.323
110.534
110.751
110.826
110.846
110.914
110.884
110.947
110.861
110.908
111.022
110.813
111.218
267.191
433.878
600.809
768.775
930.454
1090.93
1250.98
1409.69
1566.77
1723.11
1878.83
2029.5
2178.09
2284.55
2349.19
2411.97
2471.29
2525.21
2571.01
2604.93
2623.09
2623.09
2604.93
2571.01
2525.21
2471.29
2411.97
2349.19
2284.55
2178.09
2029.5
1878.83
1723.11
1566.77
1409.69
1250.98
1090.93
930.454
768.775
600.809
433.878
267.191
111.218
110.813
111.022
110.908
110.861
110.947
110.884
110.914
110.846
110.826
110.751
110.534
110.323
110.111
109.935
109.801
109.704
109.642
109.611
109.076
109.106
109.165
109.257
109.383
109.544
109.731
109.921
110.099
110.184
110.223
110.274
110.271
110.305
110.263
110.292
110.348
110.235
110.302
110.051
109.983
110.484
260.348
419.759
579.706
740.009
898.859
1055.8
1212.47
1370
1520.64
1670.74
1781.17
1849.59
1917.59
1983.16
2044.63
2098.96
2140.73
2163.58
2163.58
2140.73
2098.96
2044.63
1983.16
1917.59
1849.59
1781.17
1670.74
1520.64
1370
1212.47
1055.8
898.859
740.009
579.706
419.759
260.348
110.484
109.983
110.051
110.302
110.235
110.348
110.292
110.263
110.305
110.271
110.274
110.223
110.184
110.099
109.921
109.731
109.544
109.383
109.257
109.165
109.106
109.076
108.485
108.513
108.569
108.655
108.771
108.917
109.082
109.249
109.4
109.487
109.537
109.581
109.592
109.613
109.596
109.613
109.637
109.572
109.575
109.419
109.363
109.456
109.206
109.107
109.218
180.812
338.996
495.4
652.279
813.085
962.643
1113.88
1228.79
1302.14
1377.54
1451.42
1523.71
1591.9
1647.54
1678.78
1678.78
1647.54
1591.9
1523.71
1451.42
1377.54
1302.14
1228.79
1113.88
962.643
813.085
652.279
495.4
338.996
180.812
109.218
109.107
109.206
109.456
109.363
109.419
109.575
109.572
109.637
109.613
109.596
109.613
109.592
109.581
109.537
109.487
109.4
109.249
109.082
108.917
108.771
108.655
108.569
108.513
108.485
107.831
107.858
107.91
107.99
108.095
108.225
108.37
108.516
108.645
108.731
108.785
108.826
108.845
108.862
108.857
108.867
108.873
108.832
108.807
108.706
108.656
108.668
108.516
108.44
108.484
108.532
108.265
108.204
108.435
208.977
350.829
501.907
620.79
700.296
787.414
870.464
957.121
1048.86
1131.4
1178.64
1178.64
1131.4
1048.86
957.121
870.464
787.414
700.296
620.79
501.907
350.829
208.977
108.435
108.204
108.265
108.532
108.484
108.44
108.516
108.668
108.656
108.706
108.807
108.832
108.873
108.867
108.857
108.862
108.845
108.826
108.785
108.731
108.645
108.516
108.37
108.225
108.095
107.99
107.91
107.858
107.831
107.109
107.133
107.181
107.253
107.348
107.463
107.589
107.715
107.827
107.908
107.964
108.004
108.027
108.042
108.044
108.049
108.046
108.016
107.983
107.913
107.865
107.84
107.743
107.682
107.685
107.678
107.525
107.467
107.508
107.368
107.253
107.28
107.467
110.693
161.845
237.177
336.252
469.993
610.304
688.559
688.559
610.304
469.993
336.252
237.177
161.845
110.693
107.467
107.28
107.253
107.368
107.508
107.467
107.525
107.678
107.685
107.682
107.743
107.84
107.865
107.913
107.983
108.016
108.046
108.049
108.044
108.042
108.027
108.004
107.964
107.908
107.827
107.715
107.589
107.463
107.348
107.253
107.181
107.133
107.109
106.309
106.331
106.375
106.439
106.524
106.624
106.733
106.841
106.938
107.013
107.067
107.106
107.131
107.147
107.152
107.154
107.147
107.123
107.089
107.036
106.991
106.953
106.884
106.832
106.812
106.781
106.686
106.632
106.619
106.531
106.457
106.467
106.527
106.526
106.446
106.41
106.413
109.155
179.17
281.015
281.015
179.17
109.155
106.413
106.41
106.446
106.526
106.527
106.467
106.457
106.531
106.619
106.632
106.686
106.781
106.812
106.832
106.884
106.953
106.991
107.036
107.089
107.123
107.147
107.154
107.152
107.147
107.131
107.106
107.067
107.013
106.938
106.841
106.733
106.624
106.524
106.439
106.375
106.331
106.309
105.425
105.444
105.483
105.54
105.614
105.7
105.793
105.886
105.969
106.037
106.089
106.127
106.152
106.168
106.175
106.175
106.167
106.146
106.115
106.073
106.031
105.99
105.936
105.89
105.859
105.819
105.753
105.703
105.669
105.608
105.557
105.55
105.562
105.555
105.531
105.515
105.512
105.546
106.516
128.053
128.053
106.516
105.546
105.512
105.515
105.531
105.555
105.562
105.55
105.557
105.608
105.669
105.703
105.753
105.819
105.859
105.89
105.936
105.99
106.031
106.073
106.115
106.146
106.167
106.175
106.175
106.168
106.152
106.127
106.089
106.037
105.969
105.886
105.793
105.7
105.614
105.54
105.483
105.444
105.425
104.447
104.464
104.498
104.548
104.611
104.685
104.764
104.842
104.914
104.974
105.022
105.058
105.082
105.098
105.105
105.105
105.096
105.078
105.051
105.016
104.978
104.938
104.893
104.852
104.815
104.774
104.723
104.677
104.638
104.591
104.552
104.536
104.531
104.524
104.514
104.506
104.502
104.506
104.611
109.61
109.61
104.611
104.506
104.502
104.506
104.514
104.524
104.531
104.536
104.552
104.591
104.638
104.677
104.723
104.774
104.815
104.852
104.893
104.938
104.978
105.016
105.051
105.078
105.096
105.105
105.105
105.098
105.082
105.058
105.022
104.974
104.914
104.842
104.764
104.685
104.611
104.548
104.498
104.464
104.447
103.366
103.381
103.41
103.453
103.506
103.568
103.634
103.7
103.761
103.814
103.857
103.89
103.914
103.928
103.935
103.935
103.927
103.911
103.887
103.857
103.824
103.787
103.748
103.71
103.673
103.634
103.59
103.549
103.51
103.472
103.439
103.419
103.408
103.401
103.394
103.387
103.382
103.379
103.371
105.925
105.925
103.371
103.379
103.382
103.387
103.394
103.401
103.408
103.419
103.439
103.472
103.51
103.549
103.59
103.634
103.673
103.71
103.748
103.787
103.824
103.857
103.887
103.911
103.927
103.935
103.935
103.928
103.914
103.89
103.857
103.814
103.761
103.7
103.634
103.568
103.506
103.453
103.41
103.381
103.366
102.172
102.185
102.209
102.245
102.29
102.341
102.396
102.451
102.502
102.547
102.585
102.615
102.636
102.65
102.657
102.657
102.649
102.635
102.615
102.589
102.559
102.527
102.492
102.457
102.422
102.385
102.347
102.31
102.274
102.241
102.212
102.19
102.177
102.17
102.163
102.157
102.151
102.146
102.134
104.128
104.128
102.134
102.146
102.151
102.157
102.163
102.17
102.177
102.19
102.212
102.241
102.274
102.31
102.347
102.385
102.422
102.457
102.492
102.527
102.559
102.589
102.615
102.635
102.649
102.657
102.657
102.65
102.636
102.615
102.585
102.547
102.502
102.451
102.396
102.341
102.29
102.245
102.209
102.185
102.172
100.771
100.781
100.801
100.83
100.866
100.907
100.951
100.995
101.038
101.075
101.107
101.133
101.152
101.165
101.171
101.17
101.164
101.152
101.134
101.112
101.086
101.058
101.027
100.995
100.963
100.93
100.896
100.863
100.831
100.801
100.775
100.753
100.74
100.732
100.725
100.719
100.713
100.707
100.695
102.601
102.601
100.695
100.707
100.713
100.719
100.725
100.732
100.74
100.753
100.775
100.801
100.831
100.863
100.896
100.93
100.963
100.995
101.027
101.058
101.086
101.112
101.134
101.152
101.164
101.17
101.171
101.165
101.152
101.133
101.107
101.075
101.038
100.995
100.951
100.907
100.866
100.83
100.801
100.781
100.771
99.214
99.2222
99.2381
99.2609
99.2895
99.3222
99.3572
99.3926
99.4265
99.4573
99.4838
99.5053
99.5215
99.5321
99.5373
99.537
99.5315
99.5209
99.5058
99.4867
99.4643
99.4392
99.4122
99.3839
99.3546
99.3246
99.2945
99.2649
99.2364
99.2098
99.1858
99.1647
99.1516
99.144
99.137
99.1304
99.1243
99.1186
99.1065
101.046
101.046
99.1065
99.1186
99.1243
99.1304
99.137
99.144
99.1516
99.1647
99.1858
99.2098
99.2364
99.2649
99.2945
99.3246
99.3546
99.3839
99.4122
99.4392
99.4643
99.4867
99.5058
99.5209
99.5315
99.537
99.5373
99.5321
99.5215
99.5053
99.4838
99.4573
99.4265
99.3926
99.3572
99.3222
99.2895
99.2609
99.2381
99.2222
99.214
97.6493
97.6558
97.6684
97.6865
97.7092
97.7351
97.763
97.7912
97.8185
97.8435
97.8652
97.883
97.8964
97.9053
97.9094
97.9089
97.9039
97.8946
97.8814
97.8646
97.8449
97.8228
97.7987
97.7733
97.7469
97.7199
97.6928
97.6661
97.6403
97.6159
97.5936
97.5734
97.5606
97.5531
97.5461
97.5395
97.5333
97.5276
97.5155
99.5124
99.5124
97.5155
97.5276
97.5333
97.5395
97.5461
97.5531
97.5606
97.5734
97.5936
97.6159
97.6403
97.6661
97.6928
97.7199
97.7469
97.7733
97.7987
97.8228
97.8449
97.8646
97.8814
97.8946
97.9039
97.9089
97.9094
97.9053
97.8964
97.883
97.8652
97.8435
97.8185
97.7912
97.763
97.7351
97.7092
97.6865
97.6684
97.6558
97.6493
96.0781
96.0832
96.0933
96.1076
96.1256
96.1462
96.1684
96.1909
96.2128
96.2329
96.2505
96.265
96.2759
96.283
96.2862
96.2854
96.2807
96.2723
96.2605
96.2456
96.228
96.2082
96.1866
96.1637
96.1398
96.1153
96.0906
96.0663
96.0426
96.0201
95.9991
95.9798
95.9673
95.9599
95.953
95.9464
95.9402
95.9344
95.9222
97.9843
97.9843
95.9222
95.9344
95.9402
95.9464
95.953
95.9599
95.9673
95.9798
95.9991
96.0201
96.0426
96.0663
96.0906
96.1153
96.1398
96.1637
96.1866
96.2082
96.228
96.2456
96.2605
96.2723
96.2807
96.2854
96.2862
96.283
96.2759
96.265
96.2505
96.2329
96.2128
96.1909
96.1684
96.1462
96.1256
96.1076
96.0933
96.0832
96.0781
94.5017
94.5058
94.5138
94.5252
94.5394
94.5558
94.5734
94.5913
94.6087
94.6249
94.639
94.6506
94.6593
94.6648
94.6669
94.6657
94.6611
94.6534
94.6426
94.6292
94.6133
94.5954
94.5759
94.555
94.5332
94.5108
94.4882
94.4658
94.4439
94.4228
94.4029
94.3844
94.3721
94.3649
94.3579
94.3514
94.3451
94.3392
94.327
96.4603
96.4603
94.327
94.3392
94.3451
94.3514
94.3579
94.3649
94.3721
94.3844
94.4029
94.4228
94.4439
94.4658
94.4882
94.5108
94.5332
94.555
94.5759
94.5954
94.6133
94.6292
94.6426
94.6534
94.6611
94.6657
94.6669
94.6648
94.6593
94.6506
94.639
94.6249
94.6087
94.5913
94.5734
94.5558
94.5394
94.5252
94.5138
94.5058
94.5017
92.9213
92.9245
92.9308
92.9398
92.9511
92.964
92.978
92.9922
93.006
93.0188
93.03
93.0391
93.0458
93.0498
93.051
93.0493
93.0448
93.0374
93.0275
93.0151
93.0007
92.9843
92.9664
92.9473
92.9273
92.9066
92.8857
92.8648
92.8442
92.8243
92.8053
92.7874
92.7753
92.7681
92.7613
92.7547
92.7483
92.7423
92.7301
94.941
94.941
92.7301
92.7423
92.7483
92.7547
92.7613
92.7681
92.7753
92.7874
92.8053
92.8243
92.8442
92.8648
92.8857
92.9066
92.9273
92.9473
92.9664
92.9843
93.0007
93.0151
93.0275
93.0374
93.0448
93.0493
93.051
93.0498
93.0458
93.0391
93.03
93.0188
93.006
92.9922
92.978
92.964
92.9511
92.9398
92.9308
92.9245
92.9213
91.3377
91.3402
91.3452
91.3523
91.3611
91.3713
91.3823
91.3935
91.4044
91.4144
91.4231
91.4301
91.435
91.4377
91.438
91.4359
91.4312
91.4241
91.4148
91.4033
91.3899
91.3747
91.3582
91.3405
91.3219
91.3027
91.2831
91.2634
91.244
91.225
91.2066
91.1891
91.1772
91.1701
91.1632
91.1565
91.1501
91.144
91.1316
93.4275
93.4275
91.1316
91.144
91.1501
91.1565
91.1632
91.1701
91.1772
91.1891
91.2066
91.225
91.244
91.2634
91.2831
91.3027
91.3219
91.3405
91.3582
91.3747
91.3899
91.4033
91.4148
91.4241
91.4312
91.4359
91.438
91.4377
91.435
91.4301
91.4231
91.4144
91.4044
91.3935
91.3823
91.3713
91.3611
91.3523
91.3452
91.3402
91.3377
89.7515
89.7535
89.7573
89.7629
89.7699
89.7778
89.7864
89.7951
89.8036
89.8113
89.8179
89.823
89.8265
89.828
89.8275
89.8248
89.82
89.8131
89.8042
89.7933
89.7807
89.7666
89.7512
89.7346
89.7172
89.6991
89.6806
89.6619
89.6433
89.6249
89.607
89.5898
89.578
89.5708
89.5639
89.5571
89.5506
89.5443
89.5318
91.9211
91.9211
89.5318
89.5443
89.5506
89.5571
89.5639
89.5708
89.578
89.5898
89.607
89.6249
89.6433
89.6619
89.6806
89.6991
89.7172
89.7346
89.7512
89.7666
89.7807
89.7933
89.8042
89.8131
89.82
89.8248
89.8275
89.828
89.8265
89.823
89.8179
89.8113
89.8036
89.7951
89.7864
89.7778
89.7699
89.7629
89.7573
89.7535
89.7515
88.1633
88.1648
88.1678
88.1722
88.1776
88.1837
88.1904
88.1971
88.2035
88.2093
88.2141
88.2177
88.2199
88.2204
88.2191
88.216
88.211
88.2041
88.1955
88.1851
88.1732
88.1598
88.1452
88.1296
88.1131
88.0959
88.0782
88.0603
88.0423
88.0244
88.0069
87.9897
87.9778
87.9706
87.9636
87.9567
87.95
87.9435
87.9308
90.4234
90.4234
87.9308
87.9435
87.95
87.9567
87.9636
87.9706
87.9778
87.9897
88.0069
88.0244
88.0423
88.0603
88.0782
88.0959
88.1131
88.1296
88.1452
88.1598
88.1732
88.1851
88.1955
88.2041
88.211
88.216
88.2191
88.2204
88.2199
88.2177
88.2141
88.2093
88.2035
88.1971
88.1904
88.1837
88.1776
88.1722
88.1678
88.1648
88.1633
86.5735
86.5747
86.577
86.5804
86.5845
86.5892
86.5942
86.5993
86.604
86.6082
86.6116
86.6139
86.6149
86.6145
86.6126
86.609
86.6038
86.5969
86.5884
86.5784
86.567
86.5543
86.5404
86.5254
86.5096
86.4931
86.4761
86.4588
86.4412
86.4236
86.4062
86.3891
86.377
86.3697
86.3625
86.3554
86.3485
86.3418
86.3288
88.9363
88.9363
86.3288
86.3418
86.3485
86.3554
86.3625
86.3697
86.377
86.3891
86.4062
86.4236
86.4412
86.4588
86.4761
86.4931
86.5096
86.5254
86.5404
86.5543
86.567
86.5784
86.5884
86.5969
86.6038
86.609
86.6126
86.6145
86.6149
86.6139
86.6116
86.6082
86.604
86.5993
86.5942
86.5892
86.5845
86.5804
86.577
86.5747
86.5735
84.9826
84.9835
84.9852
84.9877
84.9909
84.9944
84.9981
85.0017
85.0051
85.008
85.0101
85.0113
85.0114
85.0102
85.0076
85.0037
84.9982
84.9913
84.983
84.9732
84.9622
84.9499
84.9365
84.9221
84.9069
84.8909
84.8744
84.8574
84.8401
84.8227
84.8052
84.7879
84.7756
84.7681
84.7607
84.7534
84.7462
84.7392
84.7259
87.4618
87.4618
84.7259
84.7392
84.7462
84.7534
84.7607
84.7681
84.7756
84.7879
84.8052
84.8227
84.8401
84.8574
84.8744
84.8909
84.9069
84.9221
84.9365
84.9499
84.9622
84.9732
84.983
84.9913
84.9982
85.0037
85.0076
85.0102
85.0114
85.0113
85.0101
85.008
85.0051
85.0017
84.9981
84.9944
84.9909
84.9877
84.9852
84.9835
84.9826
83.3907
83.3914
83.3927
83.3945
83.3968
83.3993
83.402
83.4045
83.4068
83.4085
83.4096
83.4098
83.4091
83.4072
83.4041
83.3998
83.3941
83.3872
83.3789
83.3693
83.3586
83.3466
83.3337
83.3197
83.3049
83.2893
83.2731
83.2564
83.2392
83.2218
83.2042
83.1865
83.1738
83.1661
83.1584
83.1508
83.1433
83.1359
83.1221
86.0029
86.0029
83.1221
83.1359
83.1433
83.1508
83.1584
83.1661
83.1738
83.1865
83.2042
83.2218
83.2392
83.2564
83.2731
83.2893
83.3049
83.3197
83.3337
83.3466
83.3586
83.3693
83.3789
83.3872
83.3941
83.3998
83.4041
83.4072
83.4091
83.4098
83.4096
83.4085
83.4068
83.4045
83.402
83.3993
83.3968
83.3945
83.3927
83.3914
83.3907
81.7982
81.7987
81.7996
81.8009
81.8025
81.8042
81.806
81.8076
81.8089
81.8097
81.8099
81.8094
81.8079
81.8055
81.8019
81.7972
81.7914
81.7843
81.7761
81.7666
81.7561
81.7444
81.7318
81.7181
81.7036
81.6884
81.6724
81.6557
81.6386
81.621
81.6031
81.585
81.5718
81.5638
81.5557
81.5477
81.5398
81.5319
81.5177
84.5628
84.5628
81.5177
81.5319
81.5398
81.5477
81.5557
81.5638
81.5718
81.585
81.6031
81.621
81.6386
81.6557
81.6724
81.6884
81.7036
81.7181
81.7318
81.7444
81.7561
81.7666
81.7761
81.7843
81.7914
81.7972
81.8019
81.8055
81.8079
81.8094
81.8099
81.8097
81.8089
81.8076
81.806
81.8042
81.8025
81.8009
81.7996
81.7987
81.7982
80.2052
80.2055
80.2061
80.207
80.208
80.2091
80.2101
80.2109
80.2115
80.2115
80.211
80.2098
80.2077
80.2048
80.2008
80.1959
80.1898
80.1827
80.1744
80.1651
80.1547
80.1432
80.1308
80.1174
80.1032
80.0881
80.0722
80.0557
80.0384
80.0206
80.0022
79.9835
79.9698
79.9613
79.9528
79.9443
79.9359
79.9275
79.9125
83.1454
83.1454
79.9125
79.9275
79.9359
79.9443
79.9528
79.9613
79.9698
79.9835
80.0022
80.0206
80.0384
80.0557
80.0722
80.0881
80.1032
80.1174
80.1308
80.1432
80.1547
80.1651
80.1744
80.1827
80.1898
80.1959
80.2008
80.2048
80.2077
80.2098
80.211
80.2115
80.2115
80.2109
80.2101
80.2091
80.208
80.207
80.2061
80.2055
80.2052
78.6118
78.612
78.6124
78.6129
78.6134
78.614
78.6144
78.6146
78.6145
78.6139
78.6128
78.611
78.6085
78.6051
78.6008
78.5956
78.5894
78.5821
78.5739
78.5646
78.5543
78.5431
78.5308
78.5176
78.5036
78.4886
78.4728
78.4562
78.4388
78.4207
78.4018
78.3823
78.3678
78.3588
78.3498
78.3407
78.3316
78.3226
78.3068
81.7549
81.7549
78.3068
78.3226
78.3316
78.3407
78.3498
78.3588
78.3678
78.3823
78.4018
78.4207
78.4388
78.4562
78.4728
78.4886
78.5036
78.5176
78.5308
78.5431
78.5543
78.5646
78.5739
78.5821
78.5894
78.5956
78.6008
78.6051
78.6085
78.611
78.6128
78.6139
78.6145
78.6146
78.6144
78.614
78.6134
78.6129
78.6124
78.612
78.6118
77.0183
77.0184
77.0185
77.0187
77.0189
77.019
77.019
77.0186
77.018
77.0169
77.0152
77.013
77.01
77.0063
77.0017
76.9963
76.9899
76.9826
76.9744
76.9651
76.955
76.9438
76.9317
76.9187
76.9048
76.89
76.8742
76.8576
76.84
76.8215
76.802
76.7816
76.7663
76.7567
76.7469
76.7371
76.7272
76.7173
76.7004
80.3947
80.3947
76.7004
76.7173
76.7272
76.7371
76.7469
76.7567
76.7663
76.7816
76.802
76.8215
76.84
76.8576
76.8742
76.89
76.9048
76.9187
76.9317
76.9438
76.955
76.9651
76.9744
76.9826
76.9899
76.9963
77.0017
77.0063
77.01
77.013
77.0152
77.0169
77.018
77.0186
77.019
77.019
77.0189
77.0187
77.0185
77.0184
77.0183
75.4247
75.4247
75.4247
75.4246
75.4245
75.4242
75.4238
75.423
75.4219
75.4203
75.4183
75.4156
75.4123
75.4083
75.4035
75.3979
75.3914
75.3841
75.3758
75.3666
75.3565
75.3455
75.3336
75.3207
75.3069
75.2922
75.2765
75.2598
75.2421
75.2232
75.2032
75.1819
75.1655
75.1552
75.1446
75.1338
75.1229
75.1118
75.0935
79.0604
79.0604
75.0935
75.1118
75.1229
75.1338
75.1446
75.1552
75.1655
75.1819
75.2032
75.2232
75.2421
75.2598
75.2765
75.2922
75.3069
75.3207
75.3336
75.3455
75.3565
75.3666
75.3758
75.3841
75.3914
75.3979
75.4035
75.4083
75.4123
75.4156
75.4183
75.4203
75.4219
75.423
75.4238
75.4242
75.4245
75.4246
75.4247
75.4247
75.4247
73.831
73.831
73.8308
73.8306
73.8302
73.8296
73.8288
73.8277
73.8263
73.8243
73.8219
73.819
73.8154
73.8111
73.8061
73.8004
73.7938
73.7864
73.7782
73.7691
73.7591
73.7482
73.7364
73.7237
73.71
73.6954
73.6798
73.6631
73.6453
73.6262
73.6056
73.5834
73.566
73.5549
73.5433
73.5314
73.519
73.5064
73.4859
77.7098
77.7098
73.4859
73.5064
73.519
73.5314
73.5433
73.5549
73.566
73.5834
73.6056
73.6262
73.6453
73.6631
73.6798
73.6954
73.71
73.7237
73.7364
73.7482
73.7591
73.7691
73.7782
73.7864
73.7938
73.8004
73.8061
73.8111
73.8154
73.819
73.8219
73.8243
73.8263
73.8277
73.8288
73.8296
73.8302
73.8306
73.8308
73.831
73.831
72.2375
72.2373
72.2371
72.2367
72.2361
72.2353
72.2342
72.2328
72.231
72.2288
72.2262
72.2229
72.2191
72.2147
72.2095
72.2036
72.197
72.1896
72.1814
72.1723
72.1625
72.1517
72.1401
72.1276
72.1141
72.0997
72.0842
72.0676
72.0498
72.0306
72.0097
71.9869
71.9686
71.9567
71.9442
71.9309
71.9168
71.9019
71.8782
76.1425
76.1425
71.8782
71.9019
71.9168
71.9309
71.9442
71.9567
71.9686
71.9869
72.0097
72.0306
72.0498
72.0676
72.0842
72.0997
72.1141
72.1276
72.1401
72.1517
72.1625
72.1723
72.1814
72.1896
72.197
72.2036
72.2095
72.2147
72.2191
72.2229
72.2262
72.2288
72.231
72.2328
72.2342
72.2353
72.2361
72.2367
72.2371
72.2373
72.2375
70.644
70.6438
70.6435
70.643
70.6422
70.6412
70.6399
70.6383
70.6363
70.6338
70.6309
70.6275
70.6235
70.6189
70.6136
70.6077
70.601
70.5936
70.5854
70.5765
70.5667
70.5561
70.5447
70.5324
70.5191
70.5049
70.4897
70.4733
70.4557
70.4366
70.4158
70.3929
70.3742
70.3619
70.3487
70.3344
70.3186
70.3011
70.273
73.6321
73.6321
70.273
70.3011
70.3186
70.3344
70.3487
70.3619
70.3742
70.3929
70.4158
70.4366
70.4557
70.4733
70.4897
70.5049
70.5191
70.5324
70.5447
70.5561
70.5667
70.5765
70.5854
70.5936
70.601
70.6077
70.6136
70.6189
70.6235
70.6275
70.6309
70.6338
70.6363
70.6383
70.6399
70.6412
70.6422
70.643
70.6435
70.6438
70.644
69.0507
69.0505
69.0501
69.0495
69.0486
69.0474
69.0459
69.0441
69.0419
69.0393
69.0362
69.0326
69.0285
69.0237
69.0184
69.0124
69.0057
68.9984
68.9903
68.9814
68.9718
68.9614
68.9502
68.9381
68.9251
68.9112
68.8963
68.8803
68.863
68.8444
68.8241
68.8017
68.7836
68.7718
68.7591
68.7451
68.7296
68.7114
68.6824
68.6865
68.6865
68.6824
68.7114
68.7296
68.7451
68.7591
68.7718
68.7836
68.8017
68.8241
68.8444
68.863
68.8803
68.8963
68.9112
68.9251
68.9381
68.9502
68.9614
68.9718
68.9814
68.9903
68.9984
69.0057
69.0124
69.0184
69.0237
69.0285
69.0326
69.0362
69.0393
69.0419
69.0441
69.0459
69.0474
69.0486
69.0495
69.0501
69.0505
69.0507
67.4576
67.4574
67.4569
67.4562
67.4552
67.4539
67.4523
67.4503
67.448
67.4452
67.442
67.4383
67.434
67.4292
67.4238
67.4178
67.4112
67.4039
67.3959
67.3871
67.3777
67.3675
67.3565
67.3447
67.332
67.3185
67.304
67.2885
67.2718
67.2538
67.2344
67.2133
67.1967
67.1862
67.1754
67.1643
67.1533
67.1428
67.1325
67.1274
67.1274
67.1325
67.1428
67.1533
67.1643
67.1754
67.1862
67.1967
67.2133
67.2344
67.2538
67.2718
67.2885
67.304
67.3185
67.332
67.3447
67.3565
67.3675
67.3777
67.3871
67.3959
67.4039
67.4112
67.4178
67.4238
67.4292
67.434
67.4383
67.442
67.4452
67.448
67.4503
67.4523
67.4539
67.4552
67.4562
67.4569
67.4574
67.4576
65.8648
65.8645
65.864
65.8632
65.8621
65.8607
65.859
65.8569
65.8545
65.8516
65.8483
65.8445
65.8401
65.8353
65.8299
65.8239
65.8173
65.8101
65.8022
65.7936
65.7843
65.7744
65.7636
65.7522
65.7399
65.7268
65.7128
65.6978
65.6818
65.6647
65.6463
65.6267
65.6116
65.6022
65.5927
65.5833
65.5743
65.566
65.5601
65.5559
65.5559
65.5601
65.566
65.5743
65.5833
65.5927
65.6022
65.6116
65.6267
65.6463
65.6647
65.6818
65.6978
65.7128
65.7268
65.7399
65.7522
65.7636
65.7744
65.7843
65.7936
65.8022
65.8101
65.8173
65.8239
65.8299
65.8353
65.8401
65.8445
65.8483
65.8516
65.8545
65.8569
65.859
65.8607
65.8621
65.8632
65.864
65.8645
65.8648
64.2722
64.2719
64.2714
64.2705
64.2694
64.2679
64.2661
64.2639
64.2614
64.2584
64.255
64.2512
64.2468
64.2419
64.2365
64.2306
64.224
64.2169
64.2091
64.2007
64.1917
64.182
64.1715
64.1604
64.1485
64.1359
64.1225
64.1082
64.093
64.0768
64.0596
64.0413
64.0273
64.0185
64.0095
64.0004
63.9913
63.9825
63.9772
63.9731
63.9731
63.9772
63.9825
63.9913
64.0004
64.0095
64.0185
64.0273
64.0413
64.0596
64.0768
64.093
64.1082
64.1225
64.1359
64.1485
64.1604
64.1715
64.182
64.1917
64.2007
64.2091
64.2169
64.224
64.2306
64.2365
64.2419
64.2468
64.2512
64.255
64.2584
64.2614
64.2639
64.2661
64.2679
64.2694
64.2705
64.2714
64.2719
64.2722
62.6799
62.6796
62.679
62.6781
62.6769
62.6754
62.6735
62.6713
62.6687
62.6657
62.6622
62.6583
62.654
62.6491
62.6437
62.6378
62.6314
62.6244
62.6168
62.6085
62.5997
62.5903
62.5802
62.5694
62.558
62.5459
62.533
62.5194
62.5051
62.4899
62.4739
62.4571
62.4441
62.4358
62.427
62.4175
62.4067
62.3937
62.3817
62.3791
62.3791
62.3817
62.3937
62.4067
62.4175
62.427
62.4358
62.4441
62.4571
62.4739
62.4899
62.5051
62.5194
62.533
62.5459
62.558
62.5694
62.5802
62.5903
62.5997
62.6085
62.6168
62.6244
62.6314
62.6378
62.6437
62.6491
62.654
62.6583
62.6622
62.6657
62.6687
62.6713
62.6735
62.6754
62.6769
62.6781
62.679
62.6796
62.6799
61.0881
61.0878
61.0872
61.0863
61.085
61.0835
61.0816
61.0793
61.0766
61.0736
61.0701
61.0662
61.0618
61.057
61.0517
61.0459
61.0395
61.0326
61.0252
61.0172
61.0086
60.9994
60.9897
60.9793
60.9683
60.9567
60.9445
60.9317
60.9182
60.9041
60.8894
60.8741
60.8627
60.8555
60.8483
60.8411
60.834
60.8274
60.8222
60.8198
60.8198
60.8222
60.8274
60.834
60.8411
60.8483
60.8555
60.8627
60.8741
60.8894
60.9041
60.9182
60.9317
60.9445
60.9567
60.9683
60.9793
60.9897
60.9994
61.0086
61.0172
61.0252
61.0326
61.0395
61.0459
61.0517
61.057
61.0618
61.0662
61.0701
61.0736
61.0766
61.0793
61.0816
61.0835
61.085
61.0863
61.0872
61.0878
61.0881
59.4966
59.4963
59.4957
59.4947
59.4935
59.4919
59.4899
59.4876
59.485
59.4819
59.4784
59.4745
59.4702
59.4654
59.4601
59.4544
59.4482
59.4414
59.4342
59.4264
59.418
59.4092
59.3998
59.3898
59.3793
59.3682
59.3566
59.3445
59.3319
59.3189
59.3054
59.2917
59.2817
59.2757
59.2697
59.264
59.2585
59.2536
59.2494
59.2471
59.2471
59.2494
59.2536
59.2585
59.264
59.2697
59.2757
59.2817
59.2917
59.3054
59.3189
59.3319
59.3445
59.3566
59.3682
59.3793
59.3898
59.3998
59.4092
59.418
59.4264
59.4342
59.4414
59.4482
59.4544
59.4601
59.4654
59.4702
59.4745
59.4784
59.4819
59.485
59.4876
59.4899
59.4919
59.4935
59.4947
59.4957
59.4963
59.4966
57.9054
57.9051
57.9045
57.9035
57.9022
57.9006
57.8987
57.8964
57.8937
57.8906
57.8872
57.8833
57.879
57.8743
57.8691
57.8634
57.8573
57.8508
57.8437
57.8361
57.828
57.8195
57.8104
57.8009
57.7908
57.7803
57.7693
57.7579
57.7461
57.734
57.7217
57.7093
57.7006
57.6953
57.6901
57.6852
57.6805
57.6762
57.6722
57.6699
57.6699
57.6722
57.6762
57.6805
57.6852
57.6901
57.6953
57.7006
57.7093
57.7217
57.734
57.7461
57.7579
57.7693
57.7803
57.7908
57.8009
57.8104
57.8195
57.828
57.8361
57.8437
57.8508
57.8573
57.8634
57.8691
57.8743
57.879
57.8833
57.8872
57.8906
57.8937
57.8964
57.8987
57.9006
57.9022
57.9035
57.9045
57.9051
57.9054
56.3145
56.3142
56.3136
56.3126
56.3113
56.3097
56.3078
56.3055
56.3028
56.2997
56.2963
56.2925
56.2882
56.2836
56.2785
56.273
56.267
56.2606
56.2537
56.2463
56.2385
56.2303
56.2216
56.2124
56.2028
56.1928
56.1824
56.1716
56.1606
56.1494
56.1381
56.1268
56.1189
56.1141
56.1095
56.105
56.1007
56.0967
56.0929
56.0906
56.0906
56.0929
56.0967
56.1007
56.105
56.1095
56.1141
56.1189
56.1268
56.1381
56.1494
56.1606
56.1716
56.1824
56.1928
56.2028
56.2124
56.2216
56.2303
56.2385
56.2463
56.2537
56.2606
56.267
56.273
56.2785
56.2836
56.2882
56.2925
56.2963
56.2997
56.3028
56.3055
56.3078
56.3097
56.3113
56.3126
56.3136
56.3142
56.3145
54.724
54.7237
54.723
54.7221
54.7208
54.7192
54.7172
54.7149
54.7123
54.7092
54.7058
54.7021
54.6979
54.6933
54.6883
54.6829
54.6771
54.6708
54.6642
54.657
54.6495
54.6415
54.6331
54.6244
54.6152
54.6057
54.5958
54.5857
54.5753
54.5648
54.5543
54.5439
54.5366
54.5322
54.528
54.5238
54.5198
54.5159
54.5122
54.51
54.51
54.5122
54.5159
54.5198
54.5238
54.528
54.5322
54.5366
54.5439
54.5543
54.5648
54.5753
54.5857
54.5958
54.6057
54.6152
54.6244
54.6331
54.6415
54.6495
54.657
54.6642
54.6708
54.6771
54.6829
54.6883
54.6933
54.6979
54.7021
54.7058
54.7092
54.7123
54.7149
54.7172
54.7192
54.7208
54.7221
54.723
54.7237
54.724
53.1337
53.1334
53.1328
53.1318
53.1305
53.1289
53.127
53.1247
53.1221
53.1191
53.1158
53.112
53.1079
53.1035
53.0986
53.0933
53.0876
53.0815
53.0751
53.0682
53.0609
53.0532
53.0451
53.0367
53.028
53.0189
53.0095
52.9999
52.9902
52.9803
52.9705
52.9608
52.954
52.9498