/*--------------------------------*- C++ -*----------------------------------*\
  =========                 |
  \\      /  F ield         | OpenFOAM: The Open Source CFD Toolbox
   \\    /   O peration     | Website:  https://openfoam.org
    \\  /    A nd           | Version:  10
     \\/     M anipulation  |
\*---------------------------------------------------------------------------*/
FoamFile
{
    format      ascii;
    class       volScalarField;
    location    "6500";
    object      p;
}
// * * * * * * * * * * * * * * * * * * * * * * * * * * * * * * * * * * * * * //

dimensions      [1 -1 -2 0 0 0 0];

internalField   nonuniform List<scalar> 
3200
(
110.266
110.278
110.302
110.337
110.382
110.437
110.501
110.575
110.657
110.747
110.846
110.951
111.064
111.184
111.31
111.443
111.581
111.726
111.876
112.032
112.193
112.359
112.531
112.707
112.889
113.077
113.27
113.469
113.674
113.886
114.106
114.334
114.57
114.815
115.068
115.328
115.591
115.849
116.088
116.282
107.788
107.8
107.824
107.858
107.903
107.958
108.022
108.096
108.177
108.267
108.365
108.471
108.583
108.702
108.828
108.96
109.098
109.242
109.391
109.546
109.706
109.87
110.04
110.215
110.394
110.578
110.767
110.962
111.162
111.368
111.581
111.802
112.033
112.277
112.538
112.822
113.14
113.511
113.964
114.55
105.284
105.296
105.32
105.354
105.399
105.453
105.517
105.59
105.671
105.76
105.858
105.962
106.074
106.192
106.317
106.448
106.584
106.727
106.875
107.027
107.185
107.347
107.514
107.685
107.859
108.038
108.22
108.406
108.595
108.787
108.983
109.183
109.387
109.595
109.809
110.027
110.25
110.476
110.698
110.912
102.756
102.767
102.791
102.825
102.869
102.923
102.986
103.058
103.138
103.226
103.322
103.426
103.536
103.653
103.776
103.906
104.041
104.182
104.327
104.478
104.633
104.792
104.955
105.121
105.291
105.463
105.637
105.812
105.989
106.165
106.341
106.516
106.688
106.855
107.017
107.17
107.312
107.438
107.542
107.624
100.202
100.213
100.236
100.27
100.313
100.366
100.428
100.499
100.578
100.665
100.76
100.862
100.971
101.086
101.208
101.335
101.468
101.607
101.75
101.899
102.051
102.207
102.367
102.53
102.695
102.862
103.029
103.197
103.364
103.529
103.69
103.846
103.995
104.136
104.264
104.378
104.475
104.552
104.606
104.636
97.623
97.6345
97.6569
97.6897
97.7324
97.7844
97.8455
97.915
97.9928
98.0783
98.1712
98.2713
98.3782
98.4915
98.611
98.7364
98.8674
99.0037
99.145
99.2909
99.4411
99.5952
99.7527
99.9132
100.076
100.24
100.406
100.571
100.735
100.896
101.053
101.204
101.346
101.477
101.596
101.697
101.78
101.84
101.877
101.889
95.0202
95.0314
95.0533
95.0854
95.127
95.1779
95.2376
95.3056
95.3816
95.4652
95.5561
95.654
95.7586
95.8696
95.9867
96.1096
96.2382
96.3721
96.5111
96.6549
96.8032
96.9557
97.1121
97.2719
97.4348
97.6002
97.7675
97.9359
98.1043
98.2717
98.4366
98.597
98.7509
98.8954
99.0274
99.1431
99.2385
99.3093
99.3517
99.3644
92.3937
92.4046
92.4259
92.4571
92.4976
92.5471
92.6052
92.6713
92.7453
92.8267
92.9152
93.0105
93.1124
93.2206
93.3349
93.455
93.5807
93.7119
93.8482
93.9897
94.136
94.2871
94.4428
94.6028
94.7672
94.9356
95.1079
95.2838
95.463
95.6451
95.8292
96.0145
96.1993
96.3814
96.5575
96.7227
96.8702
96.9909
97.0738
97.1108
89.7442
89.7548
89.7754
89.8056
89.8448
89.8927
89.9489
90.0129
90.0845
90.1633
90.249
90.3414
90.4402
90.5451
90.656
90.7726
90.8948
91.0226
91.1556
91.294
91.4376
91.5864
91.7405
91.9
92.065
92.2359
92.4129
92.5967
92.7878
92.987
93.1953
93.414
93.6441
93.8868
94.1425
94.41
94.6844
94.9531
95.189
95.357
87.0725
87.0827
87.1025
87.1316
87.1693
87.2155
87.2695
87.3312
87.4001
87.4759
87.5584
87.6474
87.7424
87.8435
87.9503
88.0627
88.1807
88.304
88.4326
88.5665
88.7058
88.8506
89.0009
89.1572
89.3197
89.4891
89.666
89.8515
90.047
90.2543
90.4761
90.7161
90.9797
91.2746
91.6129
92.0131
92.5046
93.1349
93.9823
99.8616
84.3793
84.3891
84.4081
84.4359
84.472
84.5162
84.5679
84.6269
84.6928
84.7653
84.8442
84.9292
85.0201
85.1167
85.2187
85.3261
85.4387
85.5565
85.6793
85.8072
85.9403
86.0785
86.2221
86.3714
86.5266
86.6883
86.8571
87.0337
87.2191
87.4147
87.6219
87.8425
88.0786
88.3323
88.6054
88.8984
89.209
89.5282
89.8658
111.822
81.6656
81.6749
81.693
81.7195
81.7539
81.7959
81.8451
81.9011
81.9637
82.0326
82.1075
82.1882
82.2743
82.3658
82.4624
82.5639
82.6703
82.7814
82.8972
83.0175
83.1423
83.2718
83.4058
83.5446
83.6882
83.8368
83.9907
84.1501
84.3152
84.4862
84.6632
84.8462
85.0347
85.2277
85.4231
85.618
85.8073
85.9841
86.1886
98.4255
78.9324
78.9412
78.9583
78.9833
79.0159
79.0556
79.102
79.155
79.2141
79.279
79.3496
79.4255
79.5065
79.5924
79.683
79.7781
79.8775
79.981
80.0886
80.2001
80.3154
80.4344
80.5569
80.683
80.8124
80.9451
81.0809
81.2196
81.3609
81.5043
81.6492
81.7948
81.9398
82.0827
82.2213
82.353
82.4747
82.5829
82.7182
90.0933
76.1807
76.189
76.2051
76.2286
76.2592
76.2964
76.34
76.3897
76.4451
76.5059
76.5719
76.6428
76.7184
76.7983
76.8825
76.9707
77.0626
77.1581
77.257
77.359
77.464
77.5718
77.6821
77.7946
77.9092
78.0255
78.1431
78.2615
78.3802
78.4985
78.6157
78.7307
78.8424
78.9496
79.0507
79.144
79.228
79.301
79.3992
84.4925
73.4116
73.4193
73.4344
73.4564
73.4849
73.5197
73.5603
73.6066
73.6582
73.7147
73.776
73.8417
73.9116
73.9855
74.0631
74.1442
74.2285
74.3157
74.4057
74.4982
74.5929
74.6895
74.7878
74.8873
74.9878
75.0887
75.1897
75.2903
75.3897
75.4874
75.5826
75.6745
75.7623
75.845
75.9217
75.9915
76.0534
76.1069
76.184
80.0042
70.6263
70.6335
70.6474
70.6678
70.6943
70.7265
70.7642
70.807
70.8547
70.9069
70.9634
71.024
71.0882
71.156
71.227
71.301
71.3777
71.4569
71.5382
71.6215
71.7063
71.7925
71.8796
71.9672
72.0551
72.1427
72.2296
72.3153
72.3992
72.4807
72.5594
72.6344
72.7053
72.7714
72.832
72.8868
72.9351
72.9768
73.0413
76.0683
67.8259
67.8325
67.8454
67.8642
67.8886
67.9183
67.953
67.9924
68.0362
68.0841
68.1358
68.1912
68.2499
68.3117
68.3763
68.4434
68.5128
68.5843
68.6574
68.7321
68.8079
68.8845
68.9617
69.0389
69.116
69.1924
69.2678
69.3417
69.4135
69.483
69.5495
69.6125
69.6717
69.7265
69.7765
69.8214
69.861
69.895
69.9509
72.4214
65.0116
65.0177
65.0295
65.0467
65.0691
65.0962
65.128
65.1639
65.2039
65.2476
65.2947
65.3451
65.3983
65.4543
65.5127
65.5733
65.6359
65.7001
65.7657
65.8325
65.9001
65.9683
66.0368
66.1052
66.1733
66.2406
66.3069
66.3717
66.4347
66.4954
66.5534
66.6084
66.6599
66.7074
66.7508
66.7895
66.8234
66.8523
66.9018
68.9034
62.1845
62.1901
62.2008
62.2165
62.2368
62.2616
62.2904
62.323
62.3593
62.3989
62.4415
62.487
62.5351
62.5855
62.6381
62.6925
62.7486
62.8061
62.8648
62.9244
62.9848
63.0456
63.1066
63.1676
63.2282
63.2883
63.3476
63.4057
63.4623
63.5172
63.57
63.6202
63.6676
63.7116
63.7519
63.7879
63.8192
63.8453
63.8906
65.476
59.3458
59.3508
59.3606
59.3747
59.3931
59.4155
59.4415
59.4709
59.5036
59.5392
59.5775
59.6184
59.6615
59.7067
59.7537
59.8023
59.8524
59.9037
59.956
60.0091
60.0629
60.1171
60.1716
60.2262
60.2807
60.335
60.3888
60.442
60.4944
60.5458
60.596
60.6447
60.6916
60.7362
60.778
60.8162
60.8498
60.8778
60.9264
62.2147
56.4966
56.5011
56.5098
56.5226
56.5391
56.5591
56.5824
56.6088
56.638
56.6698
56.704
56.7404
56.7788
56.819
56.8608
56.9039
56.9483
56.9938
57.0402
57.0873
57.1351
57.1833
57.2319
57.2807
57.3298
57.3789
57.4282
57.4775
57.5269
57.5763
57.6259
57.6755
57.7252
57.7748
57.8241
57.8725
57.9191
57.9619
58.0522
59.3449
53.6379
53.6419
53.6497
53.6611
53.6758
53.6936
53.7143
53.7377
53.7637
53.7918
53.8221
53.8543
53.8882
53.9236
53.9604
53.9984
54.0375
54.0774
54.1182
54.1596
54.2015
54.244
54.2869
54.3302
54.3739
54.418
54.4626
54.5079
54.554
54.6012
54.6498
54.7003
54.7533
54.8096
54.8702
54.9366
55.0103
55.0937
55.3959
56.618
50.7708
50.7744
50.7813
50.7913
50.8043
50.82
50.8382
50.8589
50.8816
50.9064
50.9329
50.9611
50.9907
51.0216
51.0537
51.0867
51.1206
51.1553
51.1906
51.2264
51.2627
51.2995
51.3366
51.3741
51.4121
51.4505
51.4896
51.5295
51.5704
51.6127
51.6569
51.7035
51.7535
51.8081
51.8688
51.938
52.019
52.1166
52.8685
53.9523
47.8963
47.8994
47.9054
47.9142
47.9256
47.9393
47.9552
47.9732
47.993
48.0145
48.0375
48.0619
48.0874
48.114
48.1416
48.1699
48.1988
48.2284
48.2584
48.2887
48.3194
48.3503
48.3815
48.4129
48.4445
48.4764
48.5087
48.5414
48.5747
48.6088
48.6439
48.6803
48.7183
48.7581
48.8002
48.8445
48.8912
48.9395
49.4664
50.9073
45.0152
45.0179
45.0232
45.0307
45.0406
45.0524
45.0662
45.0816
45.0987
45.1171
45.1368
45.1575
45.1793
45.2018
45.225
45.2488
45.2731
45.2977
45.3225
45.3475
45.3726
45.3977
45.4228
45.4478
45.4728
45.4976
45.5223
45.5468
45.5712
45.5955
45.6195
45.6431
45.6663
45.6886
45.7097
45.7287
45.7446
45.7558
45.8054
47.7399
42.1285
42.1308
42.1353
42.1418
42.1502
42.1603
42.172
42.1851
42.1996
42.2151
42.2317
42.2491
42.2673
42.286
42.3052
42.3247
42.3445
42.3644
42.3843
42.4041
42.4238
42.4433
42.4624
42.4811
42.4994
42.5172
42.5343
42.5507
42.5663
42.581
42.5944
42.6065
42.6169
42.6252
42.6309
42.6334
42.6318
42.6253
42.6128
44.7541
39.2369
39.2389
39.2427
39.2482
39.2552
39.2637
39.2736
39.2845
39.2966
39.3095
39.3232
39.3375
39.3523
39.3675
39.3829
39.3985
39.4141
39.4296
39.4449
39.4599
39.4745
39.4887
39.5022
39.5151
39.5272
39.5383
39.5485
39.5576
39.5654
39.5717
39.5764
39.5793
39.5801
39.5785
39.5743
39.5672
39.5568
39.5429
39.5255
41.7622
36.3413
36.3429
36.346
36.3506
36.3565
36.3635
36.3716
36.3806
36.3905
36.401
36.412
36.4235
36.4353
36.4473
36.4593
36.4712
36.483
36.4945
36.5057
36.5163
36.5263
36.5356
36.5441
36.5517
36.5582
36.5636
36.5678
36.5705
36.5718
36.5714
36.5692
36.565
36.5586
36.55
36.539
36.5254
36.5092
36.4905
36.4693
38.6281
33.4422
33.4435
33.4461
33.4498
33.4546
33.4603
33.4669
33.4742
33.482
33.4904
33.4991
33.508
33.5171
33.5261
33.5351
33.5438
33.5522
33.5602
33.5676
33.5743
33.5803
33.5854
33.5895
33.5925
33.5943
33.5949
33.594
33.5916
33.5876
33.5818
33.5742
33.5646
33.5529
33.539
33.5229
33.5043
33.4832
33.4596
33.4335
35.1022
30.5403
30.5414
30.5434
30.5464
30.5503
30.5548
30.56
30.5657
30.5718
30.5783
30.5849
30.5916
30.5983
30.6048
30.6111
30.6171
30.6226
30.6275
30.6317
30.6351
30.6376
30.6391
30.6396
30.6388
30.6367
30.6333
30.6283
30.6218
30.6136
30.6037
30.592
30.5784
30.5629
30.5454
30.5257
30.5037
30.4792
30.4518
30.4207
30.7264
27.6362
27.637
27.6386
27.641
27.644
27.6475
27.6515
27.6558
27.6605
27.6653
27.6701
27.6749
27.6796
27.684
27.6881
27.6916
27.6947
27.697
27.6986
27.6993
27.699
27.6977
27.6951
27.6913
27.6862
27.6796
27.6714
27.6617
27.6504
27.6373
27.6226
27.6062
27.588
27.5683
27.5471
27.5245
27.5006
27.4755
27.4493
27.4397
24.7302
24.7309
24.7321
24.7339
24.7362
24.7389
24.7418
24.7451
24.7484
24.7518
24.7552
24.7584
24.7614
24.7641
24.7663
24.768
24.7691
24.7694
24.7689
24.7675
24.7651
24.7615
24.7567
24.7507
24.7432
24.7342
24.7238
24.7116
24.6978
24.6823
24.6651
24.6463
24.6258
24.604
24.5811
24.5575
24.5339
24.5111
24.4898
24.4831
21.8229
21.8234
21.8244
21.8257
21.8274
21.8293
21.8315
21.8338
21.8361
21.8384
21.8405
21.8425
21.8442
21.8455
21.8463
21.8465
21.8461
21.845
21.843
21.84
21.8361
21.831
21.8247
21.8171
21.8082
21.7977
21.7856
21.7719
21.7564
21.739
21.7197
21.6984
21.675
21.6496
21.6224
21.5938
21.5647
21.5372
21.5149
21.5128
18.9146
18.915
18.9157
18.9166
18.9178
18.9192
18.9207
18.9222
18.9237
18.9251
18.9264
18.9274
18.9281
18.9284
18.9282
18.9274
18.926
18.9238
18.9209
18.917
18.9122
18.9063
18.8992
18.8909
18.8813
18.8702
18.8575
18.8432
18.8271
18.809
18.7887
18.7659
18.7401
18.7108
18.6769
18.6368
18.5879
18.526
18.4438
18.3757
16.0056
16.0058
16.0063
16.0069
16.0078
16.0087
16.0097
16.0106
16.0115
16.0123
16.0129
16.0132
16.0132
16.0129
16.012
16.0106
16.0086
16.006
16.0026
15.9983
15.9932
15.9871
15.98
15.9717
15.9623
15.9516
15.9395
15.9259
15.9108
15.8939
15.8753
15.8546
15.8318
15.8067
15.7791
15.7489
15.7164
15.6824
15.6488
15.6198
13.096
13.0961
13.0965
13.0969
13.0974
13.098
13.0986
13.0992
13.0996
13.1
13.1001
13.1
13.0997
13.0989
13.0977
13.0961
13.0939
13.0912
13.0878
13.0837
13.0788
13.0731
13.0665
13.059
13.0505
13.0409
13.0303
13.0185
13.0056
12.9914
12.9759
12.9593
12.9414
12.9224
12.9025
12.8819
12.861
12.8405
12.8212
12.8039
10.186
10.1861
10.1863
10.1866
10.187
10.1873
10.1876
10.1879
10.1881
10.1882
10.1881
10.1878
10.1873
10.1864
10.1852
10.1836
10.1816
10.1791
10.176
10.1724
10.1682
10.1634
10.1578
10.1516
10.1446
10.1368
10.1282
10.1188
10.1086
10.0976
10.0859
10.0734
10.0604
10.0469
10.0331
10.0192
10.0055
9.99233
9.97991
9.96854
7.27587
7.27594
7.27606
7.27622
7.2764
7.2766
7.27677
7.27689
7.27694
7.2769
7.27672
7.27638
7.27584
7.27508
7.27407
7.27276
7.27113
7.26915
7.26679
7.26401
7.2608
7.25712
7.25296
7.24829
7.2431
7.23739
7.23115
7.22439
7.21713
7.20941
7.20126
7.19275
7.18396
7.17499
7.16596
7.157
7.14825
7.13984
7.1319
7.12454
4.36557
4.3656
4.36567
4.36575
4.36584
4.36593
4.36601
4.36605
4.36604
4.36597
4.36582
4.36557
4.36519
4.36468
4.364
4.36315
4.3621
4.36084
4.35934
4.3576
4.35559
4.3533
4.35073
4.34786
4.34469
4.34122
4.33745
4.3334
4.32907
4.32451
4.31973
4.31479
4.30973
4.3046
4.29948
4.29443
4.28951
4.28479
4.28032
4.27615
1.4552
1.45521
1.45523
1.45525
1.45528
1.45531
1.45533
1.45533
1.45533
1.4553
1.45524
1.45514
1.45501
1.45483
1.45459
1.4543
1.45394
1.4535
1.45299
1.4524
1.45171
1.45094
1.45007
1.4491
1.44804
1.44688
1.44562
1.44427
1.44283
1.44133
1.43975
1.43813
1.43648
1.43481
1.43315
1.43152
1.42993
1.4284
1.42696
1.4256
116.392
116.023
115.617
115.198
114.785
114.388
114.012
113.657
113.322
113.007
112.71
112.429
112.163
111.91
111.669
111.44
111.221
111.012
110.812
110.621
110.438
110.264
110.098
109.94
109.79
109.647
109.513
109.386
109.268
109.157
109.056
108.962
108.878
108.803
108.737
108.681
108.635
108.6
108.576
108.564
118.367
113.923
113.21
112.641
112.163
111.746
111.372
111.03
110.712
110.414
110.133
109.866
109.612
109.37
109.138
108.916
108.704
108.5
108.305
108.118
107.939
107.768
107.604
107.448
107.3
107.159
107.026
106.901
106.783
106.674
106.573
106.481
106.397
106.323
106.258
106.202
106.157
106.122
106.098
106.086
117.704
109.864
109.604
109.327
109.041
108.756
108.477
108.206
107.943
107.688
107.442
107.204
106.974
106.752
106.536
106.329
106.128
105.934
105.748
105.568
105.395
105.229
105.07
104.918
104.774
104.636
104.506
104.383
104.268
104.161
104.062
103.971
103.889
103.815
103.751
103.696
103.652
103.617
103.594
103.582
109.675
106.294
106.178
106.038
105.872
105.69
105.497
105.296
105.091
104.885
104.679
104.475
104.273
104.074
103.879
103.688
103.502
103.321
103.145
102.975
102.81
102.652
102.499
102.353
102.213
102.08
101.954
101.835
101.723
101.618
101.522
101.433
101.353
101.281
101.218
101.165
101.121
101.087
101.064
101.053
104.639
103.059
102.996
102.912
102.806
102.681
102.54
102.388
102.227
102.059
101.886
101.711
101.535
101.358
101.182
101.009
100.837
100.67
100.505
100.345
100.19
100.039
99.8938
99.7541
99.6202
99.4923
99.3708
99.256
99.1479
99.047
98.9535
98.8676
98.7898
98.7202
98.6593
98.6074
98.5649
98.5322
98.51
98.4985
101.874
100.067
100.012
99.9453
99.8608
99.7606
99.6465
99.5206
99.3848
99.241
99.0912
98.9369
98.7795
98.6205
98.4608
98.3015
98.1435
97.9875
97.8341
97.684
97.5376
97.3953
97.2576
97.1248
96.9973
96.8753
96.7592
96.6492
96.5456
96.4487
96.3588
96.2763
96.2013
96.1343
96.0756
96.0255
95.9845
95.953
95.9315
95.9205
99.3444
97.2217
97.1639
97.0981
97.0177
96.924
96.8183
96.7021
96.5771
96.4448
96.3067
96.1642
96.0187
95.8712
95.7228
95.5744
95.4269
95.2808
95.137
94.9958
94.8579
94.7237
94.5935
94.4678
94.3468
94.231
94.1205
94.0158
93.9171
93.8247
93.7388
93.6599
93.5882
93.5241
93.4678
93.4199
93.3806
93.3504
93.3298
93.3192
97.0884
94.4955
94.4256
94.3501
94.2605
94.1589
94.0472
93.9273
93.8007
93.6689
93.5331
93.3946
93.2542
93.1129
92.9714
92.8304
92.6906
92.5525
92.4167
92.2835
92.1533
92.0266
91.9038
91.785
91.6707
91.5612
91.4567
91.3575
91.2639
91.1762
91.0948
91.0198
90.9517
90.8907
90.8372
90.7915
90.7541
90.7254
90.7057
90.6956
95.3463
91.9042
91.8011
91.696
91.5778
91.4509
91.3181
91.1816
91.0427
90.9025
90.7618
90.6212
90.4812
90.3421
90.2045
90.0685
89.9346
89.8031
89.6741
89.5481
89.4252
89.3058
89.19
89.0782
88.9707
88.8675
88.7691
88.6757
88.5876
88.5049
88.4281
88.3573
88.293
88.2354
88.1848
88.1416
88.1062
88.079
88.0604
88.0509
99.6049
89.565
89.3142
89.1252
88.9429
88.7675
88.5984
88.4352
88.2773
88.1242
87.9754
87.8305
87.6892
87.5513
87.4166
87.285
87.1565
87.0311
86.9089
86.7899
86.6742
86.562
86.4535
86.3488
86.2481
86.1516
86.0595
85.9721
85.8895
85.8121
85.7401
85.6738
85.6134
85.5593
85.5119
85.4713
85.438
85.4125
85.395
85.386
103.947
87.3156
86.7542
86.4789
86.236
86.0179
85.8191
85.6357
85.4646
85.3035
85.1508
85.005
84.8653
84.7307
84.6008
84.475
84.3531
84.2348
84.12
84.0086
83.9007
83.7962
83.6952
83.5979
83.5043
83.4147
83.3292
83.2479
83.1712
83.0993
83.0323
82.9706
82.9143
82.864
82.8197
82.7819
82.7508
82.727
82.7107
82.7023
94.3246
84.5939
83.8166
83.5547
83.3199
83.1075
82.9138
82.7356
82.5702
82.4155
82.2697
82.1316
81.9998
81.8736
81.7523
81.6354
81.5224
81.413
81.3071
81.2045
81.1052
81.0091
80.9163
80.8268
80.7408
80.6584
80.5797
80.5049
80.4343
80.3679
80.3061
80.2491
80.1972
80.1506
80.1096
80.0746
80.0459
80.0238
80.0087
80.0009
87.4667
81.4547
80.594
80.3958
80.2122
80.0414
79.8818
79.7321
79.5909
79.4571
79.3298
79.2082
79.0915
78.9793
78.8711
78.7664
78.6651
78.5668
78.4715
78.379
78.2893
78.2024
78.1184
78.0374
77.9593
77.8844
77.8128
77.7446
77.6802
77.6196
77.5631
77.5109
77.4634
77.4207
77.3831
77.351
77.3246
77.3042
77.2903
77.2832
82.1484
77.7711
77.214
77.1021
76.9891
76.8765
76.7653
76.6562
76.5494
76.4453
76.3437
76.2447
76.1482
76.054
75.9621
75.8724
75.7848
75.6993
75.6159
75.5346
75.4555
75.3785
75.3038
75.2315
75.1617
75.0946
75.0302
74.9689
74.9107
74.856
74.8049
74.7576
74.7144
74.6756
74.6415
74.6122
74.5882
74.5696
74.557
74.5504
77.5534
74.0318
73.8487
73.8033
73.7489
73.6877
73.6217
73.5521
73.4802
73.4067
73.3323
73.2575
73.1826
73.1079
73.0337
72.9602
72.8874
72.8155
72.7448
72.6752
72.607
72.5402
72.4751
72.4118
72.3504
72.2911
72.2341
72.1796
72.1277
72.0788
72.0331
71.9907
71.9519
71.917
71.8862
71.8598
71.8381
71.8214
71.8099
71.804
73.4149
70.5661
70.572
70.5661
70.55
70.5253
70.4934
70.4554
70.4126
70.3657
70.3157
70.2631
70.2086
70.1526
70.0955
70.0377
69.9794
69.9211
69.8628
69.8049
69.7475
69.6909
69.6353
69.5808
69.5277
69.4761
69.4264
69.3786
69.333
69.2898
69.2493
69.2117
69.1772
69.1461
69.1187
69.0951
69.0757
69.0607
69.0504
69.0451
69.5193
67.3591
67.3865
67.4035
67.411
67.4099
67.4013
67.3861
67.365
67.3389
67.3085
67.2745
67.2373
67.1976
67.1557
67.1121
67.0673
67.0214
66.9748
66.9279
66.8808
66.8339
66.7873
66.7413
66.6961
66.652
66.6092
66.5679
66.5283
66.4907
66.4553
66.4223
66.392
66.3646
66.3403
66.3195
66.3023
66.289
66.2799
66.2752
65.6701
64.2486
64.2852
64.3135
64.3339
64.3467
64.3527
64.3524
64.3464
64.3352
64.3195
64.2997
64.2763
64.2498
64.2207
64.1893
64.1559
64.1211
64.0849
64.0479
64.0102
63.9721
63.9338
63.8957
63.858
63.8209
63.7846
63.7494
63.7155
63.6832
63.6526
63.624
63.5976
63.5737
63.5525
63.5342
63.5192
63.5075
63.4995
63.4954
61.8524
61.2136
61.2535
61.2865
61.3128
61.3328
61.3469
61.3556
61.3591
61.3579
61.3524
61.3429
61.3298
61.3136
61.2945
61.2729
61.2491
61.2235
61.1963
61.1678
61.1383
61.1081
61.0773
61.0464
61.0154
60.9846
60.9544
60.9248
60.8962
60.8687
60.8426
60.8181
60.7954
60.7748
60.7565
60.7407
60.7276
60.7175
60.7105
60.7069
58.2343
58.2443
58.2813
58.3131
58.34
58.3621
58.3796
58.3927
58.4016
58.4064
58.4075
58.405
58.3993
58.3906
58.3792
58.3652
58.3491
58.331
58.3111
58.2898
58.2673
58.2439
58.2197
58.1949
58.1699
58.1449
58.12
58.0956
58.0717
58.0487
58.0267
58.0059
57.9867
57.9691
57.9535
57.9399
57.9287
57.92
57.914
57.9109
55.3201
55.3237
55.3537
55.3809
55.4051
55.4262
55.444
55.4586
55.4699
55.478
55.4831
55.4852
55.4845
55.4811
55.4753
55.4671
55.4568
55.4447
55.4308
55.4154
55.3987
55.3809
55.3622
55.3429
55.3231
55.3031
55.2829
55.263
55.2434
55.2243
55.206
55.1887
55.1726
55.1578
55.1445
55.133
55.1235
55.1161
55.111
55.1084
52.4219
52.4258
52.4509
52.4743
52.4958
52.5152
52.5323
52.547
52.5593
52.5691
52.5765
52.5814
52.584
52.5843
52.5824
52.5785
52.5727
52.5651
52.5559
52.5452
52.5332
52.5202
52.5061
52.4913
52.476
52.4602
52.4442
52.4282
52.4123
52.3967
52.3817
52.3674
52.3541
52.3417
52.3307
52.3211
52.3131
52.3068
52.3025
52.3003
49.5377
49.5424
49.5644
49.5851
49.6045
49.6224
49.6385
49.6529
49.6654
49.676
49.6846
49.6912
49.6959
49.6987
49.6997
49.6989
49.6963
49.6922
49.6866
49.6797
49.6715
49.6622
49.6519
49.6409
49.6292
49.6171
49.6046
49.5919
49.5793
49.5668
49.5546
49.543
49.532
49.5219
49.5128
49.5048
49.4982
49.493
49.4894
49.4876
46.6645
46.6702
46.6901
46.709
46.7268
46.7434
46.7586
46.7725
46.7849
46.7957
46.8049
46.8126
46.8187
46.8231
46.826
46.8274
46.8272
46.8257
46.8229
46.8188
46.8135
46.8073
46.8001
46.7921
46.7835
46.7743
46.7648
46.755
46.745
46.7352
46.7255
46.7162
46.7073
46.6991
46.6916
46.6851
46.6797
46.6754
46.6725
46.6709
43.8026
43.8084
43.8265
43.8438
43.8602
43.8756
43.89
43.9032
43.9152
43.926
43.9355
43.9437
43.9506
43.9561
43.9603
43.9631
43.9647
43.9651
43.9643
43.9624
43.9594
43.9555
43.9508
43.9452
43.9391
43.9323
43.9252
43.9178
43.9101
43.9025
43.8949
43.8875
43.8805
43.8739
43.8679
43.8626
43.8582
43.8547
43.8523
43.8511
40.9496
40.9551
40.9717
40.9876
41.0028
41.0171
41.0306
41.0432
41.0547
41.0653
41.0747
41.0831
41.0904
41.0965
41.1015
41.1053
41.1081
41.1098
41.1105
41.1102
41.1089
41.1069
41.104
41.1004
41.0962
41.0914
41.0862
41.0807
41.075
41.0691
41.0633
41.0575
41.052
41.0468
41.0421
41.0379
41.0344
41.0316
41.0297
41.0287
38.1035
38.1089
38.1242
38.139
38.153
38.1664
38.1791
38.1909
38.2019
38.2121
38.2213
38.2296
38.2369
38.2433
38.2488
38.2532
38.2567
38.2593
38.261
38.2619
38.2619
38.2611
38.2597
38.2575
38.2549
38.2517
38.248
38.2441
38.2399
38.2355
38.2311
38.2267
38.2224
38.2184
38.2147
38.2114
38.2086
38.2064
38.2049
38.2041
35.264
35.2692
35.2834
35.2971
35.3102
35.3226
35.3344
35.3455
35.3558
35.3654
35.3742
35.3822
35.3894
35.3958
35.4014
35.4061
35.41
35.4131
35.4155
35.4171
35.4179
35.4181
35.4177
35.4167
35.4151
35.4131
35.4107
35.408
35.405
35.4018
35.3986
35.3953
35.3921
35.389
35.3861
35.3836
35.3814
35.3797
35.3785
35.3779
32.4307
32.4357
32.4488
32.4614
32.4735
32.4849
32.4958
32.506
32.5156
32.5244
32.5327
32.5402
32.547
32.5532
32.5586
32.5633
32.5673
32.5707
32.5734
32.5754
32.5768
32.5776
32.5779
32.5777
32.577
32.5759
32.5744
32.5726
32.5705
32.5683
32.5659
32.5635
32.5611
32.5588
32.5567
32.5547
32.5531
32.5518
32.5509
32.5504
29.6038
29.6083
29.6203
29.6317
29.6426
29.6529
29.6627
29.6719
29.6805
29.6885
29.696
29.7028
29.7091
29.7148
29.7198
29.7243
29.7282
29.7315
29.7343
29.7365
29.7382
29.7394
29.7401
29.7404
29.7402
29.7398
29.7389
29.7378
29.7365
29.735
29.7333
29.7316
29.7299
29.7282
29.7266
29.7251
29.7239
29.7229
29.7222
29.7218
26.7856
26.7877
26.7978
26.8076
26.8171
26.826
26.8345
26.8425
26.85
26.857
26.8635
26.8695
26.875
26.88
26.8845
26.8885
26.892
26.8951
26.8978
26.8999
26.9017
26.903
26.904
26.9046
26.9048
26.9047
26.9044
26.9038
26.9029
26.902
26.9009
26.8997
26.8984
26.8972
26.8961
26.895
26.8941
26.8933
26.8928
26.8925
23.9678
23.9699
23.9791
23.9878
23.9959
24.0036
24.0107
24.0174
24.0236
24.0293
24.0346
24.0395
24.0441
24.0482
24.052
24.0554
24.0584
24.0611
24.0634
24.0654
24.067
24.0683
24.0693
24.0701
24.0705
24.0707
24.0706
24.0703
24.0699
24.0693
24.0686
24.0678
24.0669
24.0661
24.0652
24.0645
24.0638
24.0633
24.0629
24.0627
21.1567
21.1576
21.1656
21.1729
21.1796
21.1856
21.191
21.196
21.2005
21.2048
21.2087
21.2123
21.2156
21.2188
21.2216
21.2243
21.2267
21.2288
21.2307
21.2324
21.2338
21.2349
21.2359
21.2366
21.2371
21.2374
21.2375
21.2374
21.2372
21.2369
21.2364
21.2359
21.2354
21.2348
21.2342
21.2337
21.2332
21.2328
21.2325
21.2324
18.3445
18.3484
18.3578
18.3641
18.3687
18.3722
18.3752
18.3778
18.3802
18.3825
18.3847
18.3868
18.3889
18.3909
18.3928
18.3946
18.3963
18.3978
18.3992
18.4005
18.4016
18.4026
18.4034
18.404
18.4045
18.4048
18.405
18.405
18.405
18.4048
18.4045
18.4042
18.4038
18.4035
18.4031
18.4027
18.4024
18.4021
18.4019
18.4018
15.5983
15.5841
15.5752
15.5694
15.5657
15.5633
15.5619
15.5611
15.5609
15.561
15.5614
15.562
15.5628
15.5637
15.5646
15.5656
15.5666
15.5676
15.5685
15.5694
15.5702
15.5709
15.5715
15.572
15.5724
15.5727
15.5729
15.573
15.573
15.5729
15.5728
15.5726
15.5724
15.5721
15.5719
15.5716
15.5714
15.5712
15.5711
15.571
12.7891
12.7767
12.7667
12.7587
12.7525
12.7477
12.744
12.7412
12.7392
12.7378
12.7369
12.7364
12.7362
12.7362
12.7364
12.7367
12.7371
12.7376
12.7381
12.7386
12.7391
12.7396
12.74
12.7404
12.7407
12.7409
12.7411
12.7412
12.7413
12.7413
12.7412
12.7411
12.741
12.7408
12.7406
12.7405
12.7403
12.7402
12.7401
12.7401
9.9583
9.94917
9.94112
9.93418
9.92831
9.92341
9.9194
9.91616
9.91359
9.91159
9.91008
9.90898
9.90822
9.90773
9.90746
9.90737
9.90741
9.90755
9.90776
9.90801
9.90828
9.90856
9.90882
9.90906
9.90927
9.90945
9.90958
9.90967
9.90972
9.90973
9.90971
9.90966
9.90958
9.90949
9.90938
9.90928
9.90919
9.90911
9.90905
9.90902
7.11778
7.11156
7.10589
7.10082
7.09635
7.09247
7.08916
7.08638
7.08409
7.08222
7.08074
7.07958
7.07871
7.07808
7.07765
7.07738
7.07723
7.07719
7.07722
7.07731
7.07743
7.07757
7.07772
7.07786
7.07799
7.0781
7.07819
7.07826
7.0783
7.07831
7.07831
7.07828
7.07824
7.07819
7.07813
7.07807
7.07801
7.07796
7.07793
7.07791
4.27228
4.26867
4.26533
4.26228
4.25954
4.25711
4.25499
4.25318
4.25164
4.25036
4.24932
4.24849
4.24784
4.24734
4.24698
4.24673
4.24658
4.24649
4.24646
4.24647
4.24651
4.24657
4.24663
4.24671
4.24677
4.24684
4.24689
4.24693
4.24695
4.24696
4.24696
4.24695
4.24693
4.24691
4.24688
4.24685
4.24681
4.24679
4.24677
4.24676
1.42434
1.42316
1.42205
1.42104
1.42012
1.4193
1.41857
1.41795
1.41741
1.41696
1.41659
1.41629
1.41605
1.41587
1.41573
1.41563
1.41557
1.41553
1.41551
1.41551
1.41551
1.41553
1.41555
1.41557
1.41559
1.41561
1.41562
1.41564
1.41565
1.41565
1.41565
1.41565
1.41564
1.41563
1.41563
1.41562
1.41561
1.4156
1.41559
1.41559
)
;

boundaryField
{
    top
    {
        type            fixedValue;
        value           uniform 0;
    }
    inlet
    {
        type            darcyGradPressure;
        gradient        nonuniform List<scalar> 
80
(
9.81
9.81
9.81
9.81
9.81
9.81
9.81
9.81
9.81
9.81
9.81
9.81
9.81
9.81
9.81
9.81
9.81
9.81
9.81
9.81
9.81
9.81
9.81
9.81
9.81
9.81
9.81
9.81
9.81
9.81
9.81
9.81
9.81
9.81
9.81
9.81
9.81
9.81
9.81
9.81
9.81039
9.81
9.81
9.81
9.81
9.81
9.81
9.81
9.81
9.81
9.81
9.81
9.81
9.81
9.81
9.81
9.81
9.81
9.81
9.81
9.81
9.81
9.81
9.81
9.81
9.81
9.81
9.81
9.81
9.81
9.81
9.81
9.81
9.81
9.81
9.81
9.81
9.81
9.81
9.81
)
;
        value           nonuniform List<scalar> 
80
(
111.492
111.505
111.528
111.563
111.608
111.663
111.728
111.801
111.883
111.974
112.072
112.177
112.29
112.41
112.536
112.669
112.808
112.952
113.102
113.258
113.419
113.585
113.757
113.934
114.115
114.303
114.496
114.695
114.9
115.113
115.332
115.56
115.796
116.041
116.295
116.555
116.817
117.075
117.314
117.508
117.618
117.249
116.843
116.424
116.011
115.614
115.238
114.883
114.549
114.233
113.936
113.655
113.389
113.136
112.895
112.666
112.447
112.238
112.038
111.847
111.665
111.49
111.324
111.166
111.016
110.873
110.739
110.612
110.494
110.384
110.282
110.189
110.104
110.029
109.963
109.907
109.862
109.827
109.803
109.79
)
;
    }
    axis
    {
        type            darcyGradPressure;
        gradient        uniform -0;
        value           nonuniform List<scalar> 
80
(
110.266
107.788
105.284
102.756
100.202
97.623
95.0202
92.3937
89.7442
87.0725
84.3793
81.6656
78.9324
76.1807
73.4116
70.6263
67.8259
65.0116
62.1845
59.3458
56.4966
53.6379
50.7708
47.8963
45.0152
42.1285
39.2369
36.3413
33.4422
30.5403
27.6362
24.7302
21.8229
18.9146
16.0056
13.096
10.186
7.27587
4.36557
1.4552
108.564
106.086
103.582
101.053
98.4985
95.9205
93.3192
90.6956
88.0509
85.386
82.7023
80.0009
77.2832
74.5504
71.804
69.0451
66.2752
63.4954
60.7069
57.9109
55.1084
52.3003
49.4876
46.6709
43.8511
41.0287
38.2041
35.3779
32.5504
29.7218
26.8925
24.0627
21.2324
18.4018
15.571
12.7401
9.90902
7.07791
4.24676
1.41559
)
;
    }
    frontAndBack
    {
        type            empty;
    }
}


// ************************************************************************* //
