/*--------------------------------*- C++ -*----------------------------------*\
  =========                 |
  \\      /  F ield         | OpenFOAM: The Open Source CFD Toolbox
   \\    /   O peration     | Website:  https://openfoam.org
    \\  /    A nd           | Version:  10
     \\/     M anipulation  |
\*---------------------------------------------------------------------------*/
FoamFile
{
    format      ascii;
    class       volVectorField;
    location    "1.14";
    object      Ua;
}
// * * * * * * * * * * * * * * * * * * * * * * * * * * * * * * * * * * * * * //

dimensions      [0 1 -1 0 0 0 0];

internalField   nonuniform List<vector> 
12225
(
(3.86338e-05 -4.96851e-06 0)
(0.000112966 -4.65401e-06 0)
(0.000180426 -4.0769e-06 0)
(0.000239964 -3.42723e-06 0)
(0.000292043 -2.83295e-06 0)
(0.000337891 -2.35737e-06 0)
(0.000378951 -2.02194e-06 0)
(0.000416609 -1.82868e-06 0)
(0.000452099 -1.77579e-06 0)
(0.000486531 -1.86784e-06 0)
(0.000520963 -2.12423e-06 0)
(0.000556538 -2.59068e-06 0)
(0.00059469 -3.36194e-06 0)
(0.000637533 -4.63595e-06 0)
(0.000688758 -6.86548e-06 0)
(0.000756154 -1.12799e-05 0)
(0.000861178 -2.22716e-05 0)
(0.00109044 -6.26091e-05 0)
(2.63339e-05 -1.29051e-05 0)
(7.75636e-05 -1.2164e-05 0)
(0.000125289 -1.07293e-05 0)
(0.000168738 -9.08143e-06 0)
(0.00020795 -7.55513e-06 0)
(0.000243454 -6.32407e-06 0)
(0.000275993 -5.45373e-06 0)
(0.000306346 -4.95739e-06 0)
(0.000335261 -4.83668e-06 0)
(0.000363448 -5.10913e-06 0)
(0.00039162 -5.83148e-06 0)
(0.000420569 -7.13136e-06 0)
(0.000451297 -9.26823e-06 0)
(0.000485252 -1.27758e-05 0)
(0.000524827 -1.88462e-05 0)
(0.000574419 -3.05593e-05 0)
(0.000641961 -5.77498e-05 0)
(0.00072589 -0.000141193 0)
(2.05081e-05 -1.78096e-05 0)
(6.07832e-05 -1.69404e-05 0)
(9.91339e-05 -1.50863e-05 0)
(0.000134941 -1.28862e-05 0)
(0.000168072 -1.08086e-05 0)
(0.000198746 -9.11282e-06 0)
(0.000227375 -7.90948e-06 0)
(0.000254445 -7.23355e-06 0)
(0.000280461 -7.10042e-06 0)
(0.000305928 -7.54586e-06 0)
(0.000331372 -8.66097e-06 0)
(0.000357385 -1.06384e-05 0)
(0.000384702 -1.38585e-05 0)
(0.000414326 -1.90808e-05 0)
(0.000447696 -2.7924e-05 0)
(0.000486691 -4.42084e-05 0)
(0.000531482 -7.8045e-05 0)
(0.00056349 -0.0001576 0)
(1.672e-05 -2.10296e-05 0)
(4.98434e-05 -2.01918e-05 0)
(8.20103e-05 -1.81528e-05 0)
(0.000112714 -1.56426e-05 0)
(0.000141737 -1.32235e-05 0)
(0.000169119 -1.12251e-05 0)
(0.000195071 -9.80257e-06 0)
(0.000219892 -9.01721e-06 0)
(0.000243923 -8.90291e-06 0)
(0.000267528 -9.51547e-06 0)
(0.000291096 -1.09761e-05 0)
(0.000315061 -1.35274e-05 0)
(0.000339937 -1.76314e-05 0)
(0.000366342 -2.41738e-05 0)
(0.000394923 -3.49216e-05 0)
(0.000425767 -5.35883e-05 0)
(0.00045553 -8.81216e-05 0)
(0.000466924 -0.000153177 0)
(1.39553e-05 -2.30398e-05 0)
(4.18344e-05 -2.23393e-05 0)
(6.94104e-05 -2.02731e-05 0)
(9.62654e-05 -1.76189e-05 0)
(0.000122142 -1.50056e-05 0)
(0.000146971 -1.28212e-05 0)
(0.000170826 -1.12627e-05 0)
(0.000193875 -1.04195e-05 0)
(0.000216339 -1.0346e-05 0)
(0.000238469 -1.11178e-05 0)
(0.00026054 -1.28802e-05 0)
(0.000282852 -1.59089e-05 0)
(0.000305723 -2.07078e-05 0)
(0.00032944 -2.81929e-05 0)
(0.000354045 -4.00488e-05 0)
(0.000378571 -5.93689e-05 0)
(0.000398781 -9.13953e-05 0)
(0.000402432 -0.000141965 0)
(1.18127e-05 -2.40852e-05 0)
(3.56063e-05 -2.35974e-05 0)
(5.95571e-05 -2.16173e-05 0)
(8.33198e-05 -1.89428e-05 0)
(0.000106625 -1.62488e-05 0)
(0.000129334 -1.39706e-05 0)
(0.00015143 -1.23434e-05 0)
(0.000172982 -1.14842e-05 0)
(0.000194114 -1.14683e-05 0)
(0.000214986 -1.23884e-05 0)
(0.000235773 -1.44072e-05 0)
(0.000256658 -1.78157e-05 0)
(0.000277789 -2.31203e-05 0)
(0.00029919 -3.11856e-05 0)
(0.000320498 -4.34571e-05 0)
(0.000340297 -6.22147e-05 0)
(0.000354751 -9.0404e-05 0)
(0.000356167 -0.000129262 0)
(1.00914e-05 -2.43185e-05 0)
(3.05846e-05 -2.40969e-05 0)
(5.15642e-05 -2.22858e-05 0)
(7.27452e-05 -1.96853e-05 0)
(9.38638e-05 -1.70009e-05 0)
(0.000114743 -1.47053e-05 0)
(0.000135301 -1.30664e-05 0)
(0.000155532 -1.2227e-05 0)
(0.000175484 -1.22814e-05 0)
(0.000195237 -1.33367e-05 0)
(0.000214882 -1.5564e-05 0)
(0.000234496 -1.92524e-05 0)
(0.000254091 -2.48772e-05 0)
(0.000273501 -3.31922e-05 0)
(0.000292147 -4.53285e-05 0)
(0.000308565 -6.27837e-05 0)
(0.000319772 -8.69034e-05 0)
(0.000321268 -0.000116976 0)
(8.67572e-06 -2.38488e-05 0)
(2.64388e-05 -2.39294e-05 0)
(4.49229e-05 -2.23449e-05 0)
(6.38941e-05 -1.98896e-05 0)
(8.3106e-05 -1.72877e-05 0)
(0.000102364 -1.50389e-05 0)
(0.000121543 -1.3438e-05 0)
(0.00014058 -1.26497e-05 0)
(0.00015946 -1.27846e-05 0)
(0.000178195 -1.39594e-05 0)
(0.000196803 -1.6346e-05 0)
(0.000215275 -2.02157e-05 0)
(0.000233516 -2.59872e-05 0)
(0.000251247 -3.42713e-05 0)
(0.000267814 -4.58769e-05 0)
(0.000281928 -6.16685e-05 0)
(0.000291471 -8.20307e-05 0)
(0.00029394 -0.000105678 0)
(7.49269e-06 -2.27644e-05 0)
(2.29598e-05 -2.31662e-05 0)
(3.93113e-05 -2.18441e-05 0)
(5.63575e-05 -1.95851e-05 0)
(7.38788e-05 -1.71233e-05 0)
(9.16778e-05 -1.49758e-05 0)
(0.000109601 -1.34563e-05 0)
(0.000127542 -1.27468e-05 0)
(0.000145434 -1.29702e-05 0)
(0.000163233 -1.42482e-05 0)
(0.000180895 -1.67452e-05 0)
(0.00019834 -2.07034e-05 0)
(0.000215405 -2.64695e-05 0)
(0.000231751 -3.4503e-05 0)
(0.000246755 -4.53289e-05 0)
(0.00025938 -5.93597e-05 0)
(0.000268212 -7.6483e-05 0)
(0.000271916 -9.54366e-05 0)
(6.49241e-06 -2.11447e-05 0)
(2.00042e-05 -2.18689e-05 0)
(3.45088e-05 -2.08235e-05 0)
(4.98569e-05 -1.87939e-05 0)
(6.58623e-05 -1.65166e-05 0)
(8.23352e-05 -1.45158e-05 0)
(9.91054e-05 -1.3116e-05 0)
(0.000116034 -1.25102e-05 0)
(0.000133011 -1.28288e-05 0)
(0.000149946 -1.41936e-05 0)
(0.000166744 -1.67555e-05 0)
(0.000183276 -2.07196e-05 0)
(0.000199334 -2.63559e-05 0)
(0.000214572 -3.39833e-05 0)
(0.000228441 -4.39025e-05 0)
(0.000240162 -5.62372e-05 0)
(0.00024883 -7.06675e-05 0)
(0.00025376 -8.61526e-05 0)
(5.6383e-06 -1.90676e-05 0)
(1.74664e-05 -2.00951e-05 0)
(3.03526e-05 -1.93195e-05 0)
(4.41881e-05 -1.75353e-05 0)
(5.88252e-05 -1.54748e-05 0)
(7.40882e-05 -1.36584e-05 0)
(8.97975e-05 -1.24115e-05 0)
(0.000105789 -1.19314e-05 0)
(0.00012192 -1.23511e-05 0)
(0.000138059 -1.37879e-05 0)
(0.000154075 -1.63747e-05 0)
(0.000169803 -2.02767e-05 0)
(0.000185016 -2.569e-05 0)
(0.000199388 -3.28157e-05 0)
(0.000212464 -4.17929e-05 0)
(0.000223684 -5.25817e-05 0)
(0.000232485 -6.48118e-05 0)
(0.000238528 -7.76874e-05 0)
(4.84203e-06 -1.68037e-05 0)
(1.51094e-05 -1.80797e-05 0)
(2.65163e-05 -1.75363e-05 0)
(3.89904e-05 -1.59851e-05 0)
(5.24098e-05 -1.41472e-05 0)
(6.6603e-05 -1.25293e-05 0)
(8.13781e-05 -1.14497e-05 0)
(9.65487e-05 -1.11037e-05 0)
(0.000111944 -1.16228e-05 0)
(0.000127407 -1.31172e-05 0)
(0.000142778 -1.57014e-05 0)
(0.000157876 -1.95045e-05 0)
(0.000172473 -2.46627e-05 0)
(0.000186276 -3.12904e-05 0)
(0.000198917 -3.94251e-05 0)
(0.000209986 -4.8948e-05 0)
(0.000219118 -5.95065e-05 0)
(0.000226132 -7.04987e-05 0)
(4.32012e-06 -1.43086e-05 0)
(1.35297e-05 -1.57676e-05 0)
(2.38722e-05 -1.54145e-05 0)
(3.53209e-05 -1.40849e-05 0)
(4.77915e-05 -1.24792e-05 0)
(6.11293e-05 -1.10789e-05 0)
(7.51419e-05 -1.01861e-05 0)
(8.9631e-05 -9.98816e-06 0)
(0.000104408 -1.06109e-05 0)
(0.000119296 -1.21553e-05 0)
(0.000134116 -1.47174e-05 0)
(0.000148678 -1.83939e-05 0)
(0.000162758 -2.32723e-05 0)
(0.000176094 -2.94054e-05 0)
(0.000188389 -3.67694e-05 0)
(0.000199346 -4.52148e-05 0)
(0.000208728 -5.44324e-05 0)
(0.000216445 -6.39663e-05 0)
(3.79552e-06 -1.13136e-05 0)
(1.19177e-05 -1.28569e-05 0)
(2.11424e-05 -1.26441e-05 0)
(3.15198e-05 -1.15379e-05 0)
(4.30081e-05 -1.01984e-05 0)
(5.54647e-05 -9.06149e-06 0)
(6.86915e-05 -8.39966e-06 0)
(8.24762e-05 -8.38376e-06 0)
(9.66131e-05 -9.12885e-06 0)
(0.000110907 -1.07229e-05 0)
(0.000125166 -1.32412e-05 0)
(0.000139194 -1.67486e-05 0)
(0.00015278 -2.12898e-05 0)
(0.0001657 -2.687e-05 0)
(0.000177724 -3.34278e-05 0)
(0.000188647 -4.08109e-05 0)
(0.000198326 -4.87664e-05 0)
(0.000206723 -5.69632e-05 0)
(3.24291e-06 -7.87227e-06 0)
(1.02014e-05 -9.27089e-06 0)
(1.82341e-05 -9.09659e-06 0)
(2.75109e-05 -8.20156e-06 0)
(3.80238e-05 -7.16299e-06 0)
(4.96205e-05 -6.33996e-06 0)
(6.20806e-05 -5.95688e-06 0)
(7.51706e-05 -6.15881e-06 0)
(8.86674e-05 -7.04452e-06 0)
(0.000102362 -8.68602e-06 0)
(0.000116056 -1.1138e-05 0)
(0.00012956 -1.44381e-05 0)
(0.000142684 -1.85994e-05 0)
(0.000155248 -2.3598e-05 0)
(0.000167086 -2.93586e-05 0)
(0.000178062 -3.57448e-05 0)
(0.000188094 -4.25618e-05 0)
(0.000197165 -4.95755e-05 0)
(2.54637e-06 -4.10179e-06 0)
(8.08759e-06 -4.92875e-06 0)
(1.47931e-05 -4.6556e-06 0)
(2.29773e-05 -3.96438e-06 0)
(3.26067e-05 -3.26963e-06 0)
(4.34587e-05 -2.81196e-06 0)
(5.52435e-05 -2.74975e-06 0)
(6.76835e-05 -3.19564e-06 0)
(8.05414e-05 -4.23112e-06 0)
(9.36172e-05 -5.91472e-06 0)
(0.000106738 -8.28898e-06 0)
(0.000119748 -1.13739e-05 0)
(0.000132501 -1.51645e-05 0)
(0.000144859 -1.96234e-05 0)
(0.000156701 -2.4675e-05 0)
(0.000167928 -3.02046e-05 0)
(0.000178475 -3.60642e-05 0)
(0.00018832 -4.20873e-05 0)
(1.28652e-06 1.43259e-08 0)
(4.47667e-06 3.1053e-07 0)
(9.3139e-06 7.2339e-07 0)
(1.6148e-05 1.14258e-06 0)
(2.47377e-05 1.44738e-06 0)
(3.4739e-05 1.5123e-06 0)
(4.58441e-05 1.22709e-06 0)
(5.77835e-05 5.05592e-07 0)
(7.03138e-05 -7.1453e-07 0)
(8.3224e-05 -2.51083e-06 0)
(9.6371e-05 -4.94969e-06 0)
(0.000109607 -7.95501e-06 0)
(0.000122747 -1.15127e-05 0)
(0.000135632 -1.55798e-05 0)
(0.000148132 -2.00863e-05 0)
(0.000160144 -2.49376e-05 0)
(0.000171596 -3.00218e-05 0)
(0.00018245 -3.52193e-05 0)
(3.02346e-06 4.90631e-06 0)
(9.25476e-06 6.64128e-06 0)
(1.60901e-05 7.41626e-06 0)
(2.38906e-05 7.64845e-06 0)
(3.28052e-05 7.53442e-06 0)
(4.28066e-05 7.10649e-06 0)
(5.37549e-05 6.33694e-06 0)
(6.54605e-05 5.18869e-06 0)
(7.77221e-05 3.63263e-06 0)
(9.03376e-05 1.61604e-06 0)
(0.00010308 -9.04538e-07 0)
(0.000115793 -3.95466e-06 0)
(0.000128441 -7.50514e-06 0)
(0.000140952 -1.13812e-05 0)
(0.000153197 -1.55254e-05 0)
(0.000165076 -1.98663e-05 0)
(0.000176517 -2.43248e-05 0)
(0.000187476 -2.88201e-05 0)
(4.2132e-06 1.16169e-05 0)
(1.29238e-05 1.42837e-05 0)
(2.22132e-05 1.54867e-05 0)
(3.21258e-05 1.56616e-05 0)
(4.27121e-05 1.5147e-05 0)
(5.39707e-05 1.41417e-05 0)
(6.5838e-05 1.2747e-05 0)
(7.82038e-05 1.10114e-05 0)
(9.09332e-05 8.95948e-06 0)
(0.000103884 6.60769e-06 0)
(0.000116917 3.97324e-06 0)
(0.000129875 9.60458e-07 0)
(0.000142571 -2.39391e-06 0)
(0.000154928 -6.09077e-06 0)
(0.000166947 -9.92449e-06 0)
(0.000178586 -1.38182e-05 0)
(0.000189804 -1.77228e-05 0)
(0.000200578 -2.15902e-05 0)
(4.79709e-06 1.9016e-05 0)
(1.48089e-05 2.16659e-05 0)
(2.55907e-05 2.28217e-05 0)
(3.70405e-05 2.27755e-05 0)
(4.90898e-05 2.18624e-05 0)
(6.16649e-05 2.03453e-05 0)
(7.46714e-05 1.84027e-05 0)
(8.79953e-05 1.61479e-05 0)
(0.000101513 1.36519e-05 0)
(0.0001151 1.09608e-05 0)
(0.00012864 8.10833e-06 0)
(0.000142027 5.12282e-06 0)
(0.00015517 2.03384e-06 0)
(0.000167928 -1.2991e-06 0)
(0.000180229 -4.82908e-06 0)
(0.000192103 -8.35416e-06 0)
(0.000203537 -1.18162e-05 0)
(0.000214515 -1.5189e-05 0)
(5.70346e-06 2.53226e-05 0)
(1.75124e-05 2.74583e-05 0)
(3.00608e-05 2.8187e-05 0)
(4.32229e-05 2.77211e-05 0)
(5.68803e-05 2.63708e-05 0)
(7.09182e-05 2.44113e-05 0)
(8.52188e-05 2.20485e-05 0)
(9.96616e-05 1.9423e-05 0)
(0.000114128 1.66267e-05 0)
(0.000128505 1.37189e-05 0)
(0.000142692 1.07397e-05 0)
(0.000156602 7.71861e-06 0)
(0.000170161 4.67993e-06 0)
(0.000183313 1.64617e-06 0)
(0.00019595 -1.51512e-06 0)
(0.000208047 -4.7772e-06 0)
(0.000219653 -7.92886e-06 0)
(0.000230758 -1.09563e-05 0)
(6.81242e-06 3.03757e-05 0)
(2.07758e-05 3.19044e-05 0)
(3.53646e-05 3.20949e-05 0)
(5.04553e-05 3.11458e-05 0)
(6.59042e-05 2.93558e-05 0)
(8.15691e-05 2.70024e-05 0)
(9.73144e-05 2.43006e-05 0)
(0.000113014 2.14016e-05 0)
(0.000128552 1.84044e-05 0)
(0.000143828 1.53723e-05 0)
(0.000158757 1.2345e-05 0)
(0.000173268 9.34853e-06 0)
(0.000187307 6.40162e-06 0)
(0.000200834 3.51924e-06 0)
(0.000213823 7.078e-07 0)
(0.000226199 -2.21165e-06 0)
(0.000237962 -5.0744e-06 0)
(0.000249182 -7.79119e-06 0)
(8.15377e-06 3.387e-05 0)
(2.47077e-05 3.48196e-05 0)
(4.1708e-05 3.44777e-05 0)
(5.90311e-05 3.30665e-05 0)
(7.6518e-05 3.08874e-05 0)
(9.40106e-05 2.82179e-05 0)
(0.000111365 2.52735e-05 0)
(0.000128455 2.22048e-05 0)
(0.000145175 1.91095e-05 0)
(0.000161439 1.60474e-05 0)
(0.00017718 1.30536e-05 0)
(0.000192346 1.01481e-05 0)
(0.000206905 7.34276e-06 0)
(0.000220834 4.64502e-06 0)
(0.000234125 2.06034e-06 0)
(0.000246758 -4.61994e-07 0)
(0.000258724 -3.02774e-06 0)
(0.000270055 -5.44846e-06 0)
(9.76937e-06 3.56755e-05 0)
(2.94371e-05 3.61202e-05 0)
(4.93099e-05 3.53172e-05 0)
(6.92505e-05 3.3524e-05 0)
(8.90878e-05 3.10504e-05 0)
(0.000108657 2.81718e-05 0)
(0.000127816 2.50978e-05 0)
(0.00014645 2.1972e-05 0)
(0.000164469 1.88846e-05 0)
(0.000181811 1.58878e-05 0)
(0.000198432 1.30091e-05 0)
(0.000214304 1.02612e-05 0)
(0.000229418 7.6488e-06 0)
(0.000243772 5.1726e-06 0)
(0.000257378 2.83154e-06 0)
(0.000270255 6.24008e-07 0)
(0.000282387 -1.59978e-06 0)
(0.000293803 -3.73029e-06 0)
(1.17237e-05 3.57525e-05 0)
(3.51529e-05 3.5786e-05 0)
(5.84734e-05 3.463e-05 0)
(8.15178e-05 3.25738e-05 0)
(0.000104102 2.99325e-05 0)
(0.000126064 2.69746e-05 0)
(0.000147275 2.38984e-05 0)
(0.000167644 2.08353e-05 0)
(0.000187111 1.78642e-05 0)
(0.000205643 1.50272e-05 0)
(0.000223228 1.23431e-05 0)
(0.00023987 9.81734e-06 0)
(0.000255585 7.44793e-06 0)
(0.000270399 5.22979e-06 0)
(0.000284342 3.15669e-06 0)
(0.000297453 1.22224e-06 0)
(0.000309748 -6.40025e-07 0)
(0.000321268 -2.4818e-06 0)
(1.4121e-05 3.40935e-05 0)
(4.21584e-05 3.38191e-05 0)
(6.96794e-05 3.24415e-05 0)
(9.64678e-05 3.02681e-05 0)
(0.000122326 2.76094e-05 0)
(0.000147104 2.47195e-05 0)
(0.000170703 2.17793e-05 0)
(0.000193071 1.89041e-05 0)
(0.000214191 1.6159e-05 0)
(0.000234075 1.35752e-05 0)
(0.000252752 1.11631e-05 0)
(0.000270264 8.92136e-06 0)
(0.000286659 6.84276e-06 0)
(0.000301992 4.91793e-06 0)
(0.00031632 3.13708e-06 0)
(0.000329701 1.49098e-06 0)
(0.000342192 -4.14037e-08 0)
(0.000353827 -1.58583e-06 0)
(1.71465e-05 3.0673e-05 0)
(5.09916e-05 3.02016e-05 0)
(8.37813e-05 2.8752e-05 0)
(0.000115228 2.66286e-05 0)
(0.000145121 2.41227e-05 0)
(0.000173336 2.14633e-05 0)
(0.000199823 1.88076e-05 0)
(0.000224592 1.62511e-05 0)
(0.000247689 1.38441e-05 0)
(0.000269186 1.16074e-05 0)
(0.000289166 9.54379e-06 0)
(0.00030772 7.64694e-06 0)
(0.000324938 5.90615e-06 0)
(0.000340909 4.30957e-06 0)
(0.000355721 2.8456e-06 0)
(0.000369456 1.50366e-06 0)
(0.000382194 2.74398e-07 0)
(0.000393988 -9.56756e-07 0)
(2.11799e-05 2.53786e-05 0)
(6.27587e-05 2.48315e-05 0)
(0.000102539 2.348e-05 0)
(0.00014013 2.15989e-05 0)
(0.000175309 1.94396e-05 0)
(0.000207999 1.71931e-05 0)
(0.00023823 1.49854e-05 0)
(0.000266102 1.28897e-05 0)
(0.000291756 1.0941e-05 0)
(0.000315346 9.15068e-06 0)
(0.000337033 7.51635e-06 0)
(0.000356968 6.02876e-06 0)
(0.000375298 4.67604e-06 0)
(0.000392157 3.44591e-06 0)
(0.00040767 2.32689e-06 0)
(0.000421949 1.30863e-06 0)
(0.0004351 3.81884e-07 0)
(0.000447202 -5.32047e-07 0)
(2.72303e-05 1.78536e-05 0)
(8.04066e-05 1.73732e-05 0)
(0.000130656 1.63274e-05 0)
(0.000177432 1.49251e-05 0)
(0.000220503 1.33509e-05 0)
(0.000259876 1.17402e-05 0)
(0.000295714 1.01794e-05 0)
(0.000328266 8.71578e-06 0)
(0.000357815 7.36995e-06 0)
(0.000384647 6.14602e-06 0)
(0.000409031 5.03918e-06 0)
(0.000431216 4.04045e-06 0)
(0.000451424 3.13956e-06 0)
(0.000469855 2.32641e-06 0)
(0.000486684 1.59178e-06 0)
(0.000502068 9.27508e-07 0)
(0.000516147 3.26245e-07 0)
(0.000529041 -2.74428e-07 0)
(4.09204e-05 6.7468e-06 0)
(0.000120443 6.54305e-06 0)
(0.000194731 6.12599e-06 0)
(0.000262936 5.57826e-06 0)
(0.000324827 4.97136e-06 0)
(0.000380601 4.35678e-06 0)
(0.000430705 3.76647e-06 0)
(0.000475694 3.21726e-06 0)
(0.000516142 2.71584e-06 0)
(0.000552593 2.26285e-06 0)
(0.000585536 1.85569e-06 0)
(0.000615404 1.49037e-06 0)
(0.000642568 1.16257e-06 0)
(0.000667347 8.68123e-07 0)
(0.000690019 6.03293e-07 0)
(0.000710818 3.6479e-07 0)
(0.000729948 1.49652e-07 0)
(0.000747557 -7.23637e-08 0)
(0.000147289 -0.000314823 -4.06726e-30)
(0.00044298 -0.000314203 4.05575e-30)
(0.000740273 -0.000313082 0)
(0.00103868 -0.000311438 0)
(0.0013377 -0.000309244 0)
(0.00163676 -0.000306473 -3.94175e-30)
(0.00193527 -0.000303097 0)
(0.00223259 -0.000299096 0)
(0.00252805 -0.000294458 0)
(0.00282097 -0.000289183 0)
(0.00311066 -0.000283288 3.6247e-30)
(0.00339641 -0.0002768 0)
(0.00367755 -0.000269754 0)
(0.00395344 -0.000262199 0)
(0.00422347 -0.000254185 0)
(0.00448706 -0.000245771 3.12354e-30)
(0.0047437 -0.000237017 0)
(0.00499293 -0.000227987 0)
(0.00523435 -0.000218745 0)
(0.00546761 -0.000209358 0)
(0.00569245 -0.00019989 0)
(0.00590864 -0.000190404 0)
(0.00611606 -0.00018096 0)
(0.00631461 -0.000171616 2.14355e-30)
(0.00650429 -0.000162427 -2.02254e-30)
(0.00668513 -0.000153441 1.90426e-30)
(0.00685724 -0.000144701 1.78927e-30)
(0.00702078 -0.000136246 0)
(0.00717593 -0.000128105 0)
(0.00732293 -0.000120302 -1.46842e-30)
(0.00746206 -0.000112854 -1.37052e-30)
(0.00759361 -0.000105773 0)
(0.00771788 -9.9063e-05 0)
(0.00783521 -9.27245e-05 -1.10594e-30)
(0.00794592 -8.67529e-05 0)
(0.00805035 -8.11401e-05 0)
(0.00814883 -7.5875e-05 8.84467e-31)
(0.00824168 -7.09445e-05 0)
(0.00832923 -6.63337e-05 7.59018e-31)
(0.00841177 -6.20269e-05 1.40476e-30)
(0.00848961 -5.80075e-05 0)
(0.00856301 -5.4259e-05 0)
(0.00863226 -5.07647e-05 0)
(0.0086976 -4.75086e-05 0)
(0.00875927 -4.44748e-05 0)
(0.0088175 -4.16482e-05 8.68404e-31)
(0.00887249 -3.90144e-05 7.99027e-31)
(0.00892445 -3.65599e-05 7.34351e-31)
(0.00897355 -3.42717e-05 0)
(0.00901998 -3.21379e-05 -6.1779e-31)
(0.00906389 -3.01471e-05 0)
(0.00910544 -2.82891e-05 5.16283e-31)
(0.00914476 -2.65539e-05 4.70498e-31)
(0.00918198 -2.49326e-05 0)
(0.00921723 -2.34168e-05 0)
(0.00925062 -2.1999e-05 0)
(0.00928226 -2.06719e-05 3.1521e-31)
(0.00931225 -1.9429e-05 0)
(0.00934067 -1.82642e-05 0)
(0.00936762 -1.71722e-05 0)
(0.00939317 -1.61476e-05 0)
(0.00941741 -1.51858e-05 0)
(0.00944039 -1.42825e-05 0)
(0.00946219 -1.34338e-05 0)
(0.00948287 -1.26358e-05 0)
(0.00950249 -1.18854e-05 -8.28824e-32)
(0.0095211 -1.11792e-05 0)
(0.00953876 -1.05146e-05 0)
(0.0095555 -9.88883e-06 3.00237e-32)
(0.00957138 -9.29942e-06 1.44083e-32)
(0.00958644 -8.74414e-06 0)
(0.00960073 -8.22089e-06 1.41599e-32)
(0.00961427 -7.72772e-06 -2.72296e-32)
(0.00962711 -7.26284e-06 0)
(0.00963927 -6.82457e-06 5.11666e-32)
(0.0096508 -6.41136e-06 0)
(0.00966173 -6.02174e-06 0)
(0.00967207 -5.65437e-06 -8.21872e-32)
(0.00968187 -5.30797e-06 0)
(0.00969114 -4.98138e-06 1.00035e-31)
(0.00969992 -4.67347e-06 0)
(0.00970823 -4.38321e-06 -1.15903e-31)
(0.00971608 -4.10962e-06 -1.23159e-31)
(0.00972351 -3.85179e-06 -1.29999e-31)
(0.00973053 -3.60885e-06 -2.72886e-31)
(0.00973716 -3.37999e-06 2.85035e-31)
(0.00974343 -3.16444e-06 0)
(0.00974934 -2.96148e-06 0)
(0.00975492 -2.77042e-06 0)
(0.00976019 -2.59062e-06 3.26928e-31)
(0.00976516 -2.42146e-06 3.3591e-31)
(0.00976984 -2.26238e-06 -3.44354e-31)
(0.00977425 -2.11281e-06 0)
(0.0097784 -1.97224e-06 3.59757e-31)
(0.00978232 -1.84018e-06 3.66774e-31)
(0.009786 -1.71615e-06 3.73359e-31)
(0.00978946 -1.59973e-06 0)
(0.00979271 -1.49048e-06 0)
(0.00979577 -1.38801e-06 0)
(0.00979864 -1.29194e-06 3.95888e-31)
(0.00980134 -1.20191e-06 0)
(0.00980386 -1.11758e-06 0)
(0.00980624 -1.03862e-06 -4.09338e-31)
(0.00980846 -9.64736e-07 0)
(0.00981054 -8.95625e-07 0)
(0.00981249 -8.31015e-07 -4.20369e-31)
(0.00981432 -7.70643e-07 0)
(0.00981602 -7.14261e-07 0)
(0.00981762 -6.61631e-07 4.29368e-31)
(0.00981911 -6.12531e-07 4.31976e-31)
(0.0098205 -5.66749e-07 0)
(0.0098218 -5.24084e-07 -4.36679e-31)
(0.00982301 -4.84346e-07 0)
(0.00982414 -4.47355e-07 4.40754e-31)
(0.00982519 -4.12941e-07 0)
(0.00982617 -3.80943e-07 4.44285e-31)
(0.00982708 -3.51207e-07 4.45861e-31)
(0.00982793 -3.23592e-07 0)
(0.00982872 -2.9796e-07 0)
(0.00982945 -2.74182e-07 0)
(0.00983013 -2.52139e-07 0)
(0.00983075 -2.31716e-07 0)
(0.00983134 -2.12804e-07 0)
(0.00983188 -1.95302e-07 0)
(0.00983238 -1.79115e-07 4.55013e-31)
(0.00983284 -1.64151e-07 -4.55804e-31)
(0.00983327 -1.50326e-07 0)
(0.00983367 -1.37559e-07 0)
(0.00983403 -1.25775e-07 0)
(0.00983437 -1.14902e-07 0)
(0.00983468 -1.04872e-07 -9.17912e-31)
(0.00983496 -9.56225e-08 0)
(0.00983522 -8.70922e-08 9.19804e-31)
(0.00983547 -7.92236e-08 -9.20641e-31)
(0.00983569 -7.19619e-08 0)
(0.00983589 -6.52544e-08 0)
(0.00983607 -5.905e-08 0)
(0.00983624 -5.32992e-08 9.23399e-31)
(0.0098364 -4.79531e-08 9.23966e-31)
(0.00983654 -4.29629e-08 0)
(0.00983666 -3.82791e-08 9.24988e-31)
(0.00983677 -3.38505e-08 9.25452e-31)
(0.00983687 -2.96235e-08 -9.25904e-31)
(0.00983696 -2.55401e-08 0)
(0.00983704 -2.15369e-08 0)
(0.0098371 -1.75427e-08 -9.27174e-31)
(0.00983715 -1.34759e-08 0)
(0.00983719 -9.24172e-09 0)
(0.00983721 -4.72768e-09 0)
(0.00983722 2.01071e-10 0)
(0.00983721 5.70814e-09 9.29587e-31)
(0.00983718 1.19944e-08 9.30235e-31)
(0.00983712 1.93077e-08 0)
(0.00983704 2.79567e-08 9.31873e-31)
(0.00983693 3.83278e-08 0)
(0.00983677 5.09067e-08 0)
(0.00983656 6.63075e-08 9.35793e-31)
(0.00983628 8.53088e-08 0)
(0.00983593 1.08903e-07 9.40139e-31)
(0.00983547 1.38358e-07 0)
(0.00983489 1.75305e-07 0)
(0.00983414 2.21847e-07 9.51646e-31)
(0.00983319 2.80709e-07 0)
(0.00983197 3.55449e-07 9.65254e-31)
(0.00983041 4.5074e-07 0)
(0.00982841 5.72764e-07 0)
(0.00982585 7.29793e-07 0)
(0.00982254 9.33012e-07 -1.02408e-30)
(0.00981826 1.19778e-06 0)
(0.00981269 1.54558e-06 1.08649e-30)
(0.00980542 2.00713e-06 0)
(0.00979584 2.62767e-06 0)
(0.00978309 3.47633e-06 0)
(0.00976594 4.66387e-06 0)
(0.00974243 6.37928e-06 0)
(0.00970943 8.97341e-06 0)
(0.00966135 1.31791e-05 0)
(0.00958684 2.08144e-05 -6.11502e-30)
(0.00945728 3.77073e-05 0)
(0.00917014 9.06767e-05 0)
(0.000148317 -0.000946669 1.22301e-29)
(0.000446085 -0.00094483 -1.21958e-29)
(0.000745501 -0.000941512 0)
(0.0010461 -0.000936641 2.41622e-29)
(0.00134739 -0.000930127 0)
(0.00164879 -0.000921871 -1.18954e-29)
(0.0019497 -0.000911774 -2.34767e-29)
(0.00224945 -0.000899759 -2.3152e-29)
(0.00254733 -0.000885781 0)
(0.0028426 -0.000869845 -2.23507e-29)
(0.0031345 -0.000852002 1.09749e-29)
(0.00342231 -0.000832343 0)
(0.00370532 -0.000810991 0)
(0.00398285 -0.000788091 0)
(0.00425428 -0.000763807 0)
(0.00451903 -0.000738317 9.48917e-30)
(0.00477658 -0.000711808 0)
(0.00502646 -0.000684476 1.74559e-29)
(0.00526828 -0.000656518 0)
(0.00550169 -0.000628135 0)
(0.00572644 -0.000599521 -1.52268e-29)
(0.00594233 -0.000570867 0)
(0.00614923 -0.000542359 1.37293e-29)
(0.00634707 -0.000514172 6.57059e-30)
(0.00653587 -0.000486469 -6.2103e-30)
(0.00671569 -0.000459397 5.85829e-30)
(0.00688665 -0.000433089 5.51625e-30)
(0.00704893 -0.000407655 0)
(0.00720275 -0.000383187 0)
(0.00734838 -0.000359754 -4.56297e-30)
(0.00748611 -0.000337407 -1.26408e-29)
(0.00761624 -0.000316176 0)
(0.00773912 -0.000296072 0)
(0.00785508 -0.000277093 -3.48862e-30)
(0.00796447 -0.000259224 0)
(0.00806762 -0.000242437 0)
(0.00816488 -0.000226697 2.8336e-30)
(0.00825658 -0.000211963 0)
(0.00834304 -0.000198188 7.19214e-30)
(0.00842455 -0.000185326 4.59165e-30)
(0.00850143 -0.000173324 0)
(0.00857395 -0.000162132 0)
(0.00864237 -0.000151701 -7.02657e-30)
(0.00870694 -0.000141981 -6.51797e-30)
(0.0087679 -0.000132925 -6.04403e-30)
(0.00882547 -0.000124488 8.61195e-30)
(0.00887985 -0.000116626 2.80505e-30)
(0.00893125 -0.000109298 -2.1927e-30)
(0.00897985 -0.000102467 4.44939e-30)
(0.0090258 -9.60962e-05 -2.27094e-30)
(0.00906928 -9.0152e-05 0)
(0.00911042 -8.46033e-05 1.97185e-30)
(0.00914937 -7.9421e-05 5.07889e-30)
(0.00918626 -7.45783e-05 0)
(0.0092212 -7.00504e-05 0)
(0.0092543 -6.58143e-05 0)
(0.00928568 -6.18489e-05 1.37953e-30)
(0.00931542 -5.81346e-05 0)
(0.00934362 -5.46536e-05 1.94314e-30)
(0.00937036 -5.13891e-05 0)
(0.00939572 -4.83262e-05 1.6111e-30)
(0.00941978 -4.54507e-05 0)
(0.0094426 -4.27497e-05 -1.31837e-30)
(0.00946425 -4.02115e-05 0)
(0.0094848 -3.7825e-05 1.05978e-30)
(0.00950428 -3.55803e-05 -1.63724e-30)
(0.00952277 -3.3468e-05 0)
(0.00954032 -3.14797e-05 -7.26502e-31)
(0.00955696 -2.96073e-05 5.397e-31)
(0.00957274 -2.78437e-05 4.93735e-31)
(0.00958771 -2.61821e-05 0)
(0.00960191 -2.46162e-05 -7.75468e-31)
(0.00961538 -2.31402e-05 3.71147e-31)
(0.00962814 -2.17488e-05 0)
(0.00964024 -2.04369e-05 -3.00682e-31)
(0.00965171 -1.92e-05 -8.1137e-32)
(0.00966257 -1.80337e-05 0)
(0.00967286 -1.69338e-05 2.09362e-31)
(0.00968261 -1.58968e-05 0)
(0.00969184 -1.4919e-05 -3.00809e-31)
(0.00970057 -1.39971e-05 0)
(0.00970883 -1.3128e-05 3.48306e-31)
(0.00971665 -1.23087e-05 8.877e-32)
(0.00972404 -1.15367e-05 -2.53239e-31)
(0.00973102 -1.08092e-05 -6.20954e-31)
(0.00973762 -1.01238e-05 7.2882e-31)
(0.00974386 -9.47834e-06 0)
(0.00974974 -8.87052e-06 0)
(0.0097553 -8.29834e-06 0)
(0.00976054 -7.75985e-06 -9.81463e-31)
(0.00976548 -7.25324e-06 8.61285e-32)
(0.00977014 -6.77678e-06 -1.1098e-31)
(0.00977453 -6.32881e-06 0)
(0.00977867 -5.90779e-06 1.39239e-30)
(0.00978256 -5.51225e-06 1.76944e-31)
(0.00978622 -5.14078e-06 1.96321e-31)
(0.00978967 -4.79206e-06 0)
(0.00979291 -4.46483e-06 0)
(0.00979595 -4.15791e-06 0)
(0.00979881 -3.87014e-06 2.62606e-31)
(0.00980149 -3.60047e-06 0)
(0.00980401 -3.34786e-06 1.50556e-30)
(0.00980637 -3.11136e-06 1.22827e-30)
(0.00980859 -2.89003e-06 -1.55377e-30)
(0.00981066 -2.68302e-06 0)
(0.0098126 -2.48948e-06 -1.93057e-30)
(0.00981442 -2.30863e-06 0)
(0.00981612 -2.13974e-06 -1.63277e-30)
(0.0098177 -1.98208e-06 2.01047e-30)
(0.00981919 -1.835e-06 2.03364e-30)
(0.00982057 -1.69785e-06 0)
(0.00982187 -1.57005e-06 1.31015e-30)
(0.00982307 -1.45101e-06 -1.70529e-30)
(0.0098242 -1.34019e-06 3.94598e-31)
(0.00982524 -1.2371e-06 0)
(0.00982622 -1.14124e-06 4.04981e-31)
(0.00982713 -1.05217e-06 -1.33768e-30)
(0.00982797 -9.69437e-07 0)
(0.00982875 -8.9265e-07 -1.7641e-30)
(0.00982948 -8.21421e-07 -1.7716e-30)
(0.00983016 -7.55385e-07 -1.77856e-30)
(0.00983078 -6.94201e-07 0)
(0.00983137 -6.37546e-07 0)
(0.0098319 -5.85114e-07 0)
(0.0098324 -5.3662e-07 2.23813e-30)
(0.00983286 -4.91791e-07 -4.38866e-31)
(0.00983329 -4.50374e-07 0)
(0.00983368 -4.12127e-07 1.81471e-30)
(0.00983405 -3.76823e-07 1.81843e-30)
(0.00983438 -3.4425e-07 0)
(0.00983469 -3.14203e-07 -8.96269e-31)
(0.00983497 -2.86494e-07 3.6559e-30)
(0.00983524 -2.60939e-07 9.0183e-31)
(0.00983548 -2.37367e-07 -4.57053e-30)
(0.0098357 -2.15613e-07 0)
(0.0098359 -1.95519e-07 0)
(0.00983608 -1.76934e-07 0)
(0.00983625 -1.59708e-07 9.12397e-31)
(0.0098364 -1.43695e-07 4.60003e-30)
(0.00983654 -1.28749e-07 3.68911e-30)
(0.00983667 -1.14722e-07 9.17084e-31)
(0.00983678 -1.01461e-07 4.6133e-30)
(0.00983688 -8.88048e-08 -9.19785e-31)
(0.00983697 -7.65811e-08 0)
(0.00983704 -6.45998e-08 0)
(0.0098371 -5.26482e-08 -4.62861e-30)
(0.00983716 -4.04828e-08 0)
(0.00983719 -2.78197e-08 0)
(0.00983722 -1.43236e-08 3.71303e-30)
(0.00983722 4.08373e-10 0)
(0.00983722 1.68651e-08 4.65021e-30)
(0.00983719 3.56458e-08 9.32681e-31)
(0.00983713 5.74911e-08 0)
(0.00983705 8.33224e-08 4.67076e-30)
(0.00983694 1.14293e-07 0)
(0.00983678 1.51853e-07 0)
(0.00983658 1.97835e-07 9.49394e-31)
(0.00983631 2.54565e-07 3.76829e-30)
(0.00983596 3.25002e-07 9.62486e-31)
(0.00983551 4.12934e-07 0)
(0.00983493 5.23223e-07 0)
(0.0098342 6.62145e-07 4.84895e-30)
(0.00983326 8.37832e-07 0)
(0.00983206 1.06089e-06 4.97164e-30)
(0.00983052 1.34525e-06 0)
(0.00982856 1.70934e-06 0)
(0.00982603 2.17778e-06 0)
(0.00982277 2.78386e-06 -1.21548e-30)
(0.00981856 3.57325e-06 0)
(0.00981309 4.60971e-06 1.40335e-30)
(0.00980595 5.9843e-06 0)
(0.00979655 7.83078e-06 0)
(0.00978407 1.03528e-05 5.83682e-30)
(0.00976731 1.38751e-05 -6.55888e-30)
(0.00974446 1.89474e-05 0)
(0.0097126 2.65772e-05 0)
(0.0096668 3.88206e-05 0)
(0.009598 6.05431e-05 1.79584e-29)
(0.00948866 0.000105856 0)
(0.00931617 0.000227925 -1.01306e-28)
(0.000150321 -0.001585 8.19246e-29)
(0.00045214 -0.00158202 -1.07597e-32)
(0.000755722 -0.00157667 0)
(0.00106066 -0.00156881 2.51258e-32)
(0.00136649 -0.00155824 0)
(0.00167266 -0.00154474 0)
(0.00197852 -0.00152807 -7.87657e-29)
(0.00228333 -0.00150804 -3.8874e-29)
(0.00258623 -0.00148453 3.8191e-29)
(0.00288637 -0.00145756 -3.75408e-29)
(0.00318287 -0.00142725 0)
(0.0034749 -0.00139381 0)
(0.00376171 -0.00135746 -3.48231e-29)
(0.00404257 -0.0013185 -6.75918e-29)
(0.00431684 -0.0012772 6.54177e-29)
(0.00458391 -0.00123387 0)
(0.00484325 -0.00118885 6.07759e-29)
(0.0050944 -0.00114248 2.92918e-29)
(0.00533696 -0.0010951 0)
(0.00557063 -0.00104704 5.33414e-29)
(0.00579516 -0.000998648 -2.55408e-29)
(0.00601037 -0.000950241 -4.82747e-29)
(0.00621616 -0.000902136 2.30261e-29)
(0.00641251 -0.000854631 0)
(0.00659947 -0.000808003 4.08378e-29)
(0.00677715 -0.000762506 3.84605e-29)
(0.00694573 -0.00071836 0)
(0.00710542 -0.000675751 3.39288e-29)
(0.00725652 -0.000634828 0)
(0.00739933 -0.000595703 2.97488e-29)
(0.00753419 -0.00055845 -1.40798e-29)
(0.00766146 -0.000523112 0)
(0.00778151 -0.0004897 0)
(0.0078947 -0.000458199 0)
(0.00800141 -0.000428575 0)
(0.008102 -0.000400773 0)
(0.00819681 -0.000374729 0)
(0.0082862 -0.000350368 1.69397e-29)
(0.00837047 -0.000327607 -7.67792e-30)
(0.00844995 -0.000306363 0)
(0.00852492 -0.000286548 0)
(0.00859566 -0.000268077 0)
(0.00866243 -0.000250863 -2.38935e-29)
(0.00872547 -0.000234826 -1.13162e-29)
(0.00878502 -0.000219884 -4.14841e-31)
(0.00884129 -0.000205963 4.17493e-31)
(0.00889447 -0.00019299 -8.71739e-30)
(0.00894476 -0.000180899 -8.50751e-30)
(0.00899234 -0.000169624 1.54157e-29)
(0.00903735 -0.000159108 6.94545e-30)
(0.00907997 -0.000149294 0)
(0.00912032 -0.00014013 5.9526e-30)
(0.00915854 -0.00013157 1.14418e-29)
(0.00919475 -0.00012357 0)
(0.00922908 -0.000116087 0)
(0.00926161 -0.000109085 -4.32758e-30)
(0.00929247 -0.000102529 0)
(0.00932173 -9.63859e-05 0)
(0.00934948 -9.06275e-05 1.05242e-29)
(0.00937581 -8.52261e-05 6.15588e-30)
(0.0094008 -8.01569e-05 3.25623e-30)
(0.0094245 -7.53968e-05 0)
(0.009447 -7.09246e-05 -2.77456e-30)
(0.00946836 -6.6721e-05 0)
(0.00948862 -6.27678e-05 6.15073e-30)
(0.00950785 -5.90487e-05 -2.15485e-30)