/*--------------------------------*- C++ -*----------------------------------*\
  =========                 |
  \\      /  F ield         | OpenFOAM: The Open Source CFD Toolbox
   \\    /   O peration     | Website:  https://openfoam.org
    \\  /    A nd           | Version:  10
     \\/     M anipulation  |
\*---------------------------------------------------------------------------*/
FoamFile
{
    format      ascii;
    class       volScalarField;
    location    "0.029";
    object      pMean;
}
// * * * * * * * * * * * * * * * * * * * * * * * * * * * * * * * * * * * * * //

dimensions      [0 2 -2 0 0 0 0];

internalField   nonuniform List<scalar> 
12225
(
28.3394
27.2661
26.6312
26.2666
25.965
25.6589
25.3471
25.0421
24.7503
24.4697
24.1963
23.9232
23.6465
23.3486
23.0217
22.5815
21.9974
20.712
28.1057
27.2367
26.6298
26.2582
25.9554
25.6511
25.3404
25.0358
24.7434
24.463
24.1881
23.9165
23.6341
23.3442
22.9986
22.6141
22.0106
21.3163
28.0723
27.232
26.637
26.256
25.9488
25.6454
25.3361
25.0314
24.739
24.4572
24.1824
23.9072
23.6272
23.3281
22.9989
22.6026
22.1089
21.4875
27.9011
27.1855
26.6307
26.2473
25.9359
25.6343
25.3274
25.0243
24.7315
24.45
24.1736
23.899
23.6158
23.3206
22.9913
22.6194
22.1741
21.6593
27.7927
27.1484
26.6273
26.2445
25.9275
25.6249
25.3203
25.0184
24.7261
24.4438
24.1673
23.8915
23.6099
23.3155
22.9967
22.6452
22.2504
21.8291
27.7345
27.1088
26.6154
26.2395
25.918
25.6137
25.3107
25.011
24.7194
24.437
24.1604
23.8849
23.6048
23.3145
23.0073
22.6783
22.3287
21.9705
27.6308
27.0451
26.5888
26.2281
25.9066
25.6006
25.2993
25.0022
24.7124
24.4307
24.1547
23.8803
23.6032
23.319
23.0243
22.7176
22.4032
22.0916
27.608
27.0196
26.5767
26.2238
25.9008
25.5917
25.2904
24.995
24.7064
24.4251
24.1498
23.8772
23.6038
23.3267
23.0445
22.7577
22.471
22.1931
27.4706
26.941
26.5367
26.2018
25.8844
25.5767
25.2769
24.9841
24.6984
24.4195
24.1461
23.8761
23.6072
23.3378
23.0673
22.7973
22.532
22.2779
27.4552
26.9197
26.5218
26.195
25.879
25.5689
25.2681
24.9764
24.6925
24.4152
24.1435
23.8763
23.612
23.3498
23.0898
22.8336
22.5846
22.3474
27.3932
26.8594
26.4748
26.1631
25.8576
25.5532
25.2551
24.9654
24.684
24.4095
24.141
23.8776
23.6184
23.3631
23.1122
22.8669
22.6299
22.404
27.3242
26.8275
26.46
26.1527
25.8494
25.5454
25.247
24.9581
24.6785
24.4064
24.1403
23.8798
23.6247
23.3748
23.1305
22.893
22.6637
22.4446
27.3112
26.7898
26.4172
26.1208
25.8288
25.5311
25.2355
24.9484
24.6712
24.402
24.1392
23.8822
23.6311
23.386
23.1473
22.9157
22.6921
22.4775
27.3092
26.7653
26.3895
26.1003
25.8162
25.5221
25.2271
24.9407
24.665
24.3983
24.1386
23.8852
23.6381
23.3976
23.1639
22.9373
22.7183
22.507
27.2077
26.7032
26.3499
26.0702
25.7904
25.5007
25.2105
24.9282
24.6564
24.3935
24.1377
23.8885
23.6459
23.41
23.1808
22.9584
22.7428
22.5334
27.2089
26.6763
26.3156
26.0421
25.7727
25.4906
25.2044
24.9243
24.6544
24.3941
24.142
23.8968
23.6582
23.4263
23.2009
22.9819
22.7689
22.5616
27.1387
26.6284
26.2806
26.0128
25.7467
25.4695
25.1889
24.9139
24.6485
24.3928
24.1452
23.9046
23.6703
23.4422
23.2204
23.0044
22.7938
22.5879
27.0089
26.5466
26.2362
25.9902
25.7348
25.4617
25.1843
24.9139
24.6541
24.4036
24.1605
23.9238
23.6934
23.4693
23.2513
23.0392
22.8325
22.6308
27.1205
26.6008
26.2552
25.9952
25.7369
25.4666
25.1932
24.9256
24.6679
24.42
24.1804
23.948
23.7222
23.5029
23.29
23.0831
22.8819
22.6859
27.0455
26.5712
26.2517
26.0001
25.7433
25.4729
25.2004
24.9357
24.682
24.4383
24.2025
23.974
23.7524
23.5378
23.3299
23.1284
22.9331
22.7435
27.0753
26.6013
26.2773
26.0178
25.7552
25.4831
25.2119
24.9496
24.698
24.4558
24.2219
23.9958
23.7771
23.5659
23.3618
23.1645
22.974
22.7897
27.1386
26.6557
26.3171
26.0478
25.7805
25.5054
25.232
24.9684
24.7162
24.4742
24.2411
24.0164
23.7997
23.591
23.3898
23.1959
23.009
22.8288
27.2307
26.6977
26.3308
26.0547
25.7878
25.5141
25.2413
24.9777
24.7259
24.4848
24.2531
24.0301
23.8154
23.6088
23.4102
23.2194
23.036
22.8597
27.3317
26.7818
26.3912
26.0932
25.8135
25.5349
25.2608
24.9961
24.7427
24.5004
24.2684
24.046
23.8325
23.6274
23.4306
23.2417
23.0604
22.8864
27.3151
26.7919
26.4044
26.0983
25.8145
25.5374
25.2657
25.0019
24.7485
24.5065
24.2752
24.0538
23.8415
23.6378
23.4426
23.2555
23.0764
22.905
27.4666
26.8737
26.4442
26.1212
25.8327
25.5548
25.2818
25.0158
24.7606
24.5176
24.2861
24.065
23.8532
23.6503
23.456
23.2701
23.0922
22.9221
27.5012
26.8969
26.449
26.1193
25.8335
25.5585
25.2858
25.019
24.7633
24.5205
24.2896
24.0692
23.858
23.6558
23.4623
23.2774
23.1007
22.932
27.5821
26.9448
26.4698
26.1316
25.8461
25.5706
25.2958
25.0272
24.7706
24.5275
24.2966
24.0762
23.8653
23.6635
23.4706
23.2863
23.1104
22.9423
27.6615
26.9585
26.4635
26.1312
25.8505
25.5746
25.2983
25.0291
24.7725
24.5295
24.2986
24.0783
23.8675
23.666
23.4735
23.29
23.1148
22.9481
27.8207
26.9876
26.4621
26.1359
25.8582
25.5807
25.3029
25.0333
24.7766
24.5336
24.3026
24.0823
23.8717
23.6704
23.4781
23.295
23.1204
22.9548
17.5617
17.531
17.4982
17.4777
17.4471
17.3699
17.2171
16.9748
16.6551
16.2834
15.895
15.5275
15.2141
14.9802
14.84
14.7962
14.8394
14.9514
15.1061
15.2736
15.4216
15.5273
15.5707
15.5702
15.5182
15.4696
15.3686
15.2463
15.1083
14.9375
14.709
14.357
13.8094
13.0047
11.9251
10.5901
9.05255
7.41678
5.77816
4.21487
2.78758
1.54254
0.513768
-0.275268
-0.810257
-1.08431
-1.09669
-0.853291
-0.367144
0.343003
1.25398
2.34018
3.57455
4.9298
6.37951
7.8985
9.46367
11.0541
12.6514
14.2397
15.8058
17.3394
18.8332
20.2825
21.685
23.0398
24.347
25.6069
26.8193
27.9832
29.0972
30.1587
31.1651
32.1137
33.0018
33.8277
34.5905
35.2908
35.9308
36.5141
37.0456
37.5308
37.9752
38.384
38.7615
39.1105
39.4325
39.7276
39.9941
40.2295
40.4306
40.5938
40.7157
40.7938
40.8268
40.8148
40.7596
40.6646
40.5343
40.3749
40.192
39.9915
39.7785
39.5576
39.3322
39.1053
38.8789
38.6546
38.4335
38.2163
38.0035
37.7952
37.5916
37.3926
37.1983
37.0084
36.8228
36.6411
36.4632
36.2888
36.1174
35.949
35.7832
35.6198
35.4585
35.2992
35.1416
34.9856
34.831
34.6777
34.5254
34.374
34.2233
34.0732
33.9236
33.7743
33.6253
33.4763
33.3274
33.1784
33.0293
32.88
32.7305
32.5807
32.4305
32.2799
32.1288
31.9772
31.8249
31.672
31.5184
31.364
31.2089
31.0529
30.8962
30.7385
30.58
30.4207
30.2606
30.0996
29.938
29.7756
29.6127
29.4494
29.2859
29.1223
28.9591
28.7968
28.6357
28.4771
28.3214
28.171
28.0268
27.8938
27.7733
27.6773
27.6087
27.5999
27.6586
27.866
17.3065
17.2589
17.2037
17.1677
17.1264
17.0317
16.854
16.5868
16.2445
15.855
15.4534
15.0747
14.7494
14.5018
14.3474
14.2941
14.3404
14.4731
14.667
14.89
15.1076
15.2841
15.3952
15.4313
15.4011
15.2833
15.1408
14.8668
14.5194
14.0989
13.6088
13.0075
12.2327
11.2679
10.1334
8.81247
7.33737
5.79062
4.25475
2.79931
1.4786
0.335088
-0.598913
-1.2995
-1.75053
-1.94371
-1.8788
-1.56373
-1.01201
-0.241318
0.726798
1.86701
3.15214
4.5543
6.04655
7.60374
9.2028
10.823
12.446
14.0561
15.6402
17.1881
18.6926
20.1494
21.5567
22.9144
24.2235
25.4849
26.6992
27.8659
28.9835
30.0496
31.0614
32.0158
32.9102
33.7421
34.5103
35.2152
35.8587
36.4446
36.9778
37.4642
37.9095
38.3192
38.6977
39.0482
39.3723
39.6697
39.9392
40.1779
40.3825
40.5493
40.675
40.7569
40.7934
40.7845
40.7319
40.6388
40.5102
40.3522
40.1705
39.9711
39.7593
39.5396
39.3154
39.0898
38.8647
38.6418
38.4219
38.2058
37.9939
37.7866
37.5838
37.3856
37.1919
37.0026
36.8174
36.6362
36.4586
36.2845
36.1134
35.9453
35.7798
35.6166
35.4556
35.2966
35.1393
34.9836
34.8292
34.6761
34.524
34.3727
34.2222
34.0722
33.9227
33.7735
33.6246
33.4757
33.3269
33.178
33.029
32.8797
32.7303
32.5805
32.4304
32.2798
32.1287
31.9771
31.8248
31.6719
31.5183
31.3639
31.2088
31.0528
30.896
30.7384
30.5799
30.4205
30.2604
30.0994
29.9377
29.7753
29.6123
29.4489
29.2852
29.1216
28.9582
28.7956
28.6343
28.4752
28.3191
28.1677
28.0228
27.8874
27.7656
27.6632
27.5906
27.5553
27.5775
27.6129
17.1887
17.1436
17.0471
16.9259
16.7684
16.5519
16.2618
15.8999
15.4839
15.042
14.6064
14.2091
13.8791
13.6402
13.5099
13.4939
13.5857
13.7676
14.014
14.2966
14.5865
14.8527
15.0579
15.1572
15.1548
14.9664
14.6496
14.2122
13.6235
12.9031
12.0522
11.1115
10.0593
8.88434
7.61301
6.26514
4.86432
3.44837
2.06271
0.754104
-0.433366
-1.45985
-2.29097
-2.89874
-3.2631
-3.37337
-3.22799
-2.83055
-2.19084
-1.32749
-0.265227
0.967985
2.34264
3.82925
5.39972
7.02794
8.69047
10.3666
12.0385
13.6904
15.3095
16.8853
18.4107
19.8819
21.2981
22.6607
23.9723
25.2358
26.453
27.6244
28.7489
29.824
30.8466
31.8132
32.7202
33.5646
34.3443
35.0589
35.7101
36.3016
36.8387
37.3277
37.775
38.1867
38.5676
38.9213
39.2494
39.5519
39.8271
40.0722
40.2838
40.4578
40.5909
40.68
40.7233
40.7205
40.673
40.5842
40.4592
40.304
40.125
39.9281
39.7188
39.5016
39.2801
39.0572
38.8349
38.6146
38.3973
38.1836
37.9739
37.7685
37.5676
37.371
37.1788
36.9908
36.8068
36.6266
36.45
36.2768
36.1065
35.9391
35.7742
35.6116
35.4512
35.2926
35.1357
34.9804
34.8264
34.6735
34.5217
34.3707
34.2204
34.0707
33.9214
33.7724
33.6236
33.4749
33.3263
33.1775
33.0286
32.8796
32.7302
32.5805
32.4304
32.2799
32.1288
31.9772
31.825
31.6721
31.5184
31.364
31.2089
31.0529
30.8961
30.7384
30.5798
30.4205
30.2602
30.0992
29.9374
29.7749
29.6118
29.4483
29.2844
29.1205
28.9568
28.7938
28.632
28.4721
28.3152
28.1623
28.0157
27.8772
27.7516
27.641
27.5559
27.492
27.466
27.4172
17.1204
17.0517
16.875
16.6128
16.2865
15.9046
15.4707
14.9952
14.4956
13.9948
13.5206
13.1036
12.7733
12.5552
12.4667
12.5095
12.6698
12.9223
13.235
13.5737
13.9044
14.1868
14.3852
14.445
14.3119
13.9979
13.4911
12.8194
11.9843
11.0241
9.94895
8.77959
7.53766
6.23542
4.88791
3.51192
2.12906
0.764764
-0.549616
-1.77822
-2.88271
-3.82553
-4.57298
-5.09685
-5.37533
-5.39409
-5.14591
-4.632
-3.86618
-2.87088
-1.67381
-0.306752
1.19718
2.80553
4.48783
6.21676
7.96871
9.72349
11.4638
13.1748
14.8434
16.459
18.0139
19.5048
20.9322
22.2995
23.6123
24.8759
26.0947
27.271
28.4041
29.4914
30.5293
31.5133
32.439
33.3022
34.0994
34.8291
35.4925
36.0932
36.6368
37.1303
37.5811
37.996
38.3806
38.7389
39.0728
39.3822
39.6653
39.9191
40.1399
40.3237
40.4667
40.5656
40.6184
40.6243
40.5844
40.5019
40.3822
40.2316
40.0568
39.864
39.6588
39.4458
39.2285
39.0098
38.7917
38.5754
38.3619
38.1518
37.9454
37.743
37.5447
37.3505
37.1605
36.9744
36.7921
36.6134
36.4382
36.2661
36.0969
35.9304
35.7664
35.6046
35.4448
35.2868
35.1305
34.9757
34.8221
34.6697
34.5183
34.3677
34.2177
34.0683
33.9192
33.7705
33.6219
33.4735
33.325
33.1764
33.0277
32.8788
32.7296
32.58
32.43
32.2795
32.1285
31.9769
31.8247
31.6718
31.5182
31.3638
31.2087
31.0527
30.8958
30.7381
30.5796
30.4201
30.2598
30.0987
29.9369
29.7742
29.611
29.4473
29.2832
29.1189
28.9549
28.7913
28.6289
28.468
28.3098
28.1552
28.0063
27.8642
27.7331
27.6136
27.5132
27.4244
27.3542
27.2455
16.9428
16.7903
16.4818
16.0823
15.6212
15.1125
14.5679
14.0007
13.4262
12.8661
12.3508
11.916
11.5948
11.4155
11.3904
11.5115
11.7505
12.0675
12.4189
12.7639
13.0654
13.2894
13.3843
13.3063
13.0231
12.5189
11.8039
10.9094
9.86857
8.71444
7.47655
6.1756
4.8273
3.44407
2.03774
0.622109
-0.783661
-2.15579
-3.46525
-4.67881
-5.75974
-6.6706
-7.37628
-7.84444
-8.04816
-7.96653
-7.59057
-6.92985
-6.00288
-4.83536
-3.46075
-1.91725
-0.243882
1.52219
3.34772
5.20436
7.06873
8.92181
10.7481
12.534
14.2672
15.9361
17.532
19.0503
20.4922
21.8636
23.1735
24.4318
25.6473
26.8247
27.9647
29.0645
30.1195
31.1241
32.0729
32.96
33.7802
34.5302
35.2102
35.8235
36.3764
36.8767
37.3329
37.7526
38.1425
38.507
38.8483
39.1663
39.459
39.7229
39.9543
40.149
40.3033
40.4138
40.4779
40.4945
40.4641
40.39
40.2773
40.133
39.9641
39.7772
39.578
39.371
39.1596
38.9468
38.7342
38.5233
38.3149
38.1095
37.9074
37.7088
37.514
37.323
37.1358
36.9522
36.7722
36.5955
36.422
36.2515
36.0838
35.9186
35.7557
35.5949
35.4361
35.279
35.1235
34.9694
34.8165
34.6646
34.5137
34.3636
34.2141
34.065
33.9163
33.7679
33.6197
33.4715
33.3233
33.1749
33.0264
32.8777
32.7286
32.5792
32.4293
32.2789
32.128
31.9765
31.8244
31.6715
31.5179
31.3636
31.2084
31.0524
30.8956
30.7378
30.5792
30.4198
30.2594
30.0982
29.9362
29.7735
29.61
29.4461
29.2817
29.1171
28.9525
28.7883
28.625
28.4631
28.3034
28.1467
27.9949
27.8486
27.7112
27.5821
27.466
27.354
27.2458
27.0951
16.4177
16.2077
15.8386
15.3828
14.8589
14.2817
13.6678
13.0314
12.3887
11.7674
11.2092
10.7586
10.4547
10.3245
10.3708
10.5677
10.8695
11.2218
11.5697
11.8674
12.0793
12.1681
12.0952
11.8312
11.3538
10.655
9.75528
8.68643
7.48916
6.20044
4.84764
3.4484
2.01395
0.553601
-0.923061
-2.40369
-3.87122
-5.30305
-6.67041
-7.93847
-9.06674
-10.0111
-10.7246
-11.1645
-11.2978
-11.1079
-10.594
-9.76377
-8.63927
-7.25492
-5.65342
-3.88195
-1.98858
-0.0182953
1.99065
4.00774
6.00983
7.97998
9.90641
11.7799
13.5912
15.329
16.9821
18.5425
20.0101
21.3918
22.7
23.9497
25.1549
26.3255
27.4652
28.5721
29.6408
30.665
31.6378
32.5515
33.3987
34.1736
34.8744
35.5038
36.0687
36.578
37.0413
37.4678
37.8648
38.2373
38.5877
38.9157
39.219
39.4938
39.736
39.9417
40.1073
40.2293
40.3053
40.3333
40.3138
40.2493
40.1453
40.0092
39.8482
39.6691
39.4777
39.2786
39.0751
38.8697
38.6643
38.4601
38.2579
38.0581
37.8613
37.6675
37.477
37.2898
37.106
36.9255
36.7482
36.574
36.4027
36.2342
36.0682
35.9045
35.7431
35.5836
35.4259
35.2698
35.1152
34.9619
34.8097
34.6586
34.5083
34.3587
34.2097
34.0611
33.9128
33.7648
33.6169
33.469
33.3211
33.173
33.0247
32.8762
32.7273
32.5781
32.4284
32.2781
32.1273
31.9759
31.8238
31.671
31.5175
31.3631
31.208
31.052
30.8951
30.7374
30.5788
30.4192
30.2588
30.0975
29.9354
29.7725
29.6089
29.4446
29.2799
29.1148
28.9497
28.7848
28.6205
28.4572
28.2959
28.1369
27.9817
27.8309
27.6865
27.5477
27.4161
27.2834
27.1441
26.9643
15.719
15.5136
15.1868
14.7525
14.2268
13.6336
12.9927
12.3193
11.6328
10.9713
10.3894
9.9386
9.65759
9.56599
9.65129
9.87221
10.1707
10.4834
10.7537
10.9373
10.9994
10.9096
10.6388
10.1661
9.48292
8.59834
7.53544
6.32706
5.00999
3.61428
2.16216
0.668359
-0.858252
-2.41198
-3.98728
-5.57563
-7.16303
-8.72706
-10.2352
-11.6443
-12.9015
-13.947
-14.7197
-15.1684
-15.2568
-14.9677
-14.2986
-13.2635
-11.893
-10.232
-8.33557
-6.26507
-4.08225
-1.84394
0.403025
2.62447
4.79794
6.90959
8.95198
10.9224
12.8184
14.6334
16.3557
17.9736
19.483
20.8893
22.2062
23.4522
24.6469
25.8063
26.9395
28.0475
29.125
30.1646
31.1581
32.0965
32.9707
33.7723
34.4968
35.1455
35.7249
36.2454
36.718
37.1532
37.5591
37.9413
38.3024
38.6419
38.9568
39.2427
39.4953
39.7106
39.8858
40.0178
40.1045
40.1438
40.1355
40.0816
39.9874
39.8608
39.7097
39.5408
39.3594
39.17
38.9759
38.7796
38.5827
38.3864
38.1914
37.9983
37.8075
37.6191
37.4335
37.2508
37.0709
36.894
36.7198
36.5485
36.3797
36.2135
36.0495
35.8877
35.7279
35.5698
35.4134
35.2586
35.1051
34.9528
34.8015
34.6512
34.5017
34.3527
34.2043
34.0563
33.9085
33.7609
33.6134
33.4659
33.3183
33.1706
33.0226
32.8744
32.7257
32.5767
32.4271
32.277
32.1264
31.9751
31.8231
31.6703
31.5169
31.3626
31.2075
31.0515
30.8946
30.7369
30.5782
30.4186
30.2581
30.0967
29.9345
29.7714
29.6075
29.443
29.2778
29.1123
28.9465
28.7808
28.6154
28.4507
28.2874
28.1259
27.9672
27.8115
27.66
27.5115
27.3654
27.2145
27.0504
26.8486
15.2606
15.0964
14.8198
14.4273
13.9372
13.3759
12.761
12.1047
11.4271
10.7731
10.2034
9.76944
9.50076
9.4019
9.45086
9.60249
9.79762
9.97536
10.0839
10.0843
9.94723
9.64757
9.16167
8.47599
7.59178
6.52506
5.30281
3.95872
2.52354
1.02136
-0.531132
-2.1255
-3.76035
-5.4389
-7.16368
-8.9314
-10.7281
-12.5256
-14.2799
-15.9327
-17.4131
-18.6437
-19.5506
-20.0668
-20.1408
-19.7457
-18.8834
-17.582
-15.8864
-13.8587
-11.5738
-9.11232
-6.55357
-3.96934
-1.41724
1.06375
3.45231
5.7384
7.91909
9.99784
11.9813
13.872
15.663
17.3417
18.9
20.3409
21.6779
22.9317
24.1254
25.2793
26.4078
27.5162
28.5998
29.6509
30.6606
31.6194
32.5167
33.3419
34.0883
34.7561
35.3517
35.8857
36.3703
36.8168
37.2342
37.6285
38.0026
38.3551
38.6822
38.9787
39.2402
39.4632
39.6457
39.7856
39.881
39.9299
39.9321
39.8892
39.8063
39.6911
39.5518
39.395
39.2258
39.0481
38.865
38.679
38.4916
38.3041
38.1172
37.9314
37.7472
37.5649
37.3848
37.2069
37.0314
36.8584
36.6878
36.5196
36.3537
36.19
36.0283
35.8686
35.7106
35.5543
35.3995
35.246
35.0937
34.9426
34.7923
34.6429
34.4942
34.346
34.1983
34.0508
33.9036
33.7566
33.6095
33.4624
33.3152
33.1678
33.0202
32.8722
32.7238
32.575
32.4257
32.2757
32.1252
31.9741
31.8222
31.6695
31.5161
31.3619
31.2068
31.0509
30.894
30.7362
30.5775
30.4179
30.2573
30.0958
29.9334
29.7701
29.606
29.4411
29.2756
29.1095
28.943
28.7763
28.6098
28.4436
28.2782
28.114
27.9515
27.7908
27.6322
27.4744
27.3153
27.1482
26.9644
26.7453
15.1473
15.0207
14.7928
14.4582
14.0345
13.545
13.004
12.4189
11.8044
11.2041
10.6761
10.26
9.9718
9.80837
9.74675
9.74626
9.75559
9.72393
9.60922
9.37982
9.01003
8.47532
7.75676
6.8476
5.75481
4.49901
3.11141
1.62485
0.066341
-1.54586
-3.20604
-4.92045
-6.70223
-8.56568
-10.5197
-12.5619
-14.6731
-16.8137
-18.9242
-20.9264
-22.7275
-24.2276
-25.3254
-25.9308
-25.9817
-25.4552
-24.3606
-22.7333
-20.6362
-18.155
-15.3895
-12.4443
-9.42068
-6.4082
-3.47773
-0.675387
1.97728
4.4761
6.82506
9.0333
11.1149
13.0817
14.9359
16.6686
18.2717
19.7477
21.1109
22.3828
23.5872
24.747
25.8793
26.992
28.0819
29.1415
30.163
31.1369
32.0511
32.8932
33.656
34.34
34.9518
35.5016
36.0013
36.4625
36.8945
37.3041
37.6935
38.0603
38.3996
38.7059
38.9747
39.2033
39.3907
39.536
39.6376
39.6942
39.7055
39.6737
39.6037
39.5027
39.378
39.2355
39.08
38.9154
38.7447
38.57
38.3931
38.215
38.0366
37.8587
37.6816
37.5057
37.3313
37.1586
36.9879
36.8191
36.6523
36.4876
36.3248
36.1639
36.0047
35.8472
35.6913
35.5368
35.3837
35.2317
35.0809
34.9309
34.7819
34.6335
34.4857
34.3384
34.1914
34.0447
33.8981
33.7516
33.605
33.4584
33.3116
33.1646
33.0173
32.8697
32.7216
32.573
32.4239
32.2742
32.1239
31.9728
31.8211
31.6686
31.5152
31.3611
31.206
31.0501
30.8933
30.7355
30.5768
30.4171
30.2564
30.0948
29.9322
29.7687
29.6043
29.4391
29.2731
29.1064
28.9392
28.7716
28.6038
28.4359
28.2684
28.1014
27.9351
27.7694
27.6039
27.4372
27.2663
27.0854
26.8856
26.6527
15.335
15.2412
15.06
14.788
14.4436
14.0451
13.6045
13.1251
12.6147
12.1034
11.632
11.224
10.8872
10.6158
10.3903
10.1804
9.9501
9.66391
9.29091
8.80385
8.17647
7.38566
6.41777
5.27185
3.96104
2.51231
0.959413
-0.667455
-2.34854
-4.0797
-5.87283
-7.75101
-9.74217
-11.87
-14.1441
-16.5547
-19.07
-21.6341
-24.1663
-26.5638
-28.7094
-30.4787
-31.7519
-32.4289
-32.444
-31.7722
-30.4253
-28.4474
-25.917
-22.9418
-19.6483
-16.1682
-12.6258
-9.13028
-5.76862
-2.59758
0.360362
3.1073
5.65509
8.0189
10.2181
12.2726
14.1927
15.9769
17.6216
19.1322
20.5249
21.8215
23.0459
24.2206
25.363
26.4817
27.5767
28.643
29.6731
30.6566
31.5802
32.4317
33.2052
33.9025
34.5303
35.0981
35.6164
36.0959
36.5458
36.9727
37.3782
37.7593
38.1102
38.4251
38.6996
38.9322
39.1228
39.2716
39.378
39.4412
39.4617
39.442
39.3865
39.3013
39.1929
39.0665
38.9261
38.7754
38.6175
38.4548
38.2888
38.1206
37.9512
37.7813
37.6116
37.4423
37.2739
37.1067
36.9409
36.7765
36.6138
36.4527
36.2932
36.1353
35.9789
35.8238
35.6702
35.5177
35.3664
35.2161
35.0668
34.9182
34.7704
34.6232
34.4764
34.33
34.1838
34.0379
33.892
33.7461
33.6001
33.454
33.3077
33.1611
33.0142
32.8669
32.7191
32.5708
32.422
32.2725
32.1223
31.9715
31.8199
31.6675
31.5142
31.3601
31.2052
31.0493
30.8925
30.7347
30.5759
30.4162
30.2554
30.0937
29.931
29.7672
29.6026
29.437
29.2705
29.1032
28.9352
28.7665
28.5974
28.4279
28.2582
28.0882
27.9181
27.7475
27.5756
27.4005
27.2193
27.0263
26.8135
26.5695
15.7164
15.6423
15.4945
15.2742
14.9961
14.6761
14.3239
13.9421
13.5315
13.1036
12.6768
12.2615
11.8607
11.4685
11.0712
10.6488
10.1782
9.63549
8.9979
8.24207
7.34521
6.29
5.06891
3.68799
2.16827
0.541233
-1.16251
-2.92292
-4.73488
-6.61119
-8.58054
-10.679
-12.9417
-15.3921
-18.0306
-20.8324
-23.7463
-26.6975
-29.5894
-32.3078
-34.7246
-36.704
-38.1132
-38.8387
-38.8051
-37.9851
-36.3959
-34.09
-31.158
-27.7252
-23.9403
-19.9567
-15.919
-11.9548
-8.16692
-4.6248
-1.35212
1.65546
4.41528
6.94936
9.28145
11.4377
13.4336
15.275
16.9647
18.5141
19.9412
21.2682
22.5171
23.708
24.8599
25.9847
27.0849
28.1563
29.191
30.1779
31.1045
31.9608
32.7434
33.4546
34.1005
34.6887
35.2279
35.7276
36.1963
36.6399
37.0596
37.4523
37.8122
38.134
38.414
38.6511
38.8457
38.9988
39.1109
39.1821
39.2133
39.2067
39.166
39.0963
39.0034
38.8926
38.7674
38.6309
38.486
38.3353
38.1802
38.022
37.8617
37.7001
37.5378
37.3753
37.2131
37.0515
36.8907
36.731
36.5725
36.4152
36.2592
36.1045
35.9509
35.7985
35.6472
35.497
35.3476
35.1992
35.0514
34.9044
34.7579
34.6119
34.4662
34.3208
34.1756
34.0304
33.8853
33.7401
33.5947
33.4491
33.3033
33.1572
33.0107
32.8637
32.7163
32.5683
32.4198
32.2705
32.1206
31.9699
31.8185
31.6662
31.5131
31.3591
31.2042
31.0484
30.8916
30.7338
30.575
30.4152
30.2544
30.0925
29.9296
29.7657
29.6007
29.4347
29.2677
29.0998
28.931
28.7613
28.5908
28.4196
28.2476
28.0749
27.901
27.7256
27.5475
27.3648
27.1744
26.971
26.7476
26.4946
16.1819
16.1172
15.9874
15.7944
15.5502
15.2697
14.9626
14.6323
14.2744
13.8878
13.4728
13.0306
12.5589
12.0511
11.4971
10.8835
10.1954
9.41713
8.53203
7.52274
6.37387
5.07593
3.62879
2.0462
0.352047
-1.42727
-3.27085
-5.1709
-7.13445
-9.18643
-11.3622
-13.6984
-16.2239
-18.9502
-21.8627
-24.9251
-28.081
-31.2533
-34.3457
-37.2424
-39.8089
-41.8981
-43.3652
-44.0889
-43.9912
-43.0465
-41.2754
-38.732
-35.5123
-31.7524
-27.6159
-23.2657
-18.8607
-14.5417
-10.4215
-6.57718
-3.03547
0.205212
3.16254
5.86053
8.32722
10.59
12.6681
14.573
16.3147
17.9088
19.3743
20.7312
22.0004
23.2051
24.3674
25.5005
26.6064
27.6806
28.7154
29.7011
30.6286
31.4911
32.2862
33.0149
33.6812
34.2906
34.8502
35.368
35.8522
36.308
36.7371
37.137
37.5036
37.8322
38.1196
38.3642
38.5661
38.7267
38.8473
38.9285
38.9709
38.9767
38.9495
38.8939
38.815
38.7181
38.6069
38.484
38.3519
38.2129
38.0686
37.9202
37.7688
37.6154
37.4606
37.3051
37.1491
36.9932
36.8377
36.6828
36.5286
36.3754
36.2231
36.0717
35.9212
35.7715
35.6228
35.4748
35.3276
35.181
35.035
34.8895
34.7445
34.5998
34.4553
34.311
34.1667
34.0224
33.8781
33.7336
33.5889
33.4439
33.2986
33.153
33.0069
32.8604
32.7133
32.5657
32.4174
32.2684
32.1187
31.9682
31.817
31.6648
31.5118
31.358
31.2031
31.0474
30.8906
30.7328
30.574
30.4142
30.2533
30.0913
29.9282
29.764
29.5987
29.4324
29.2649
29.0963
28.9267
28.7559
28.5841
28.4112
28.237
28.0614
27.884
27.704
27.5202
27.3306
27.1319
26.9196
26.6873
26.4271
16.6543
16.5913
16.4639
16.2758
16.0362
15.7577
15.4494
15.1147
14.7499
14.3472
13.8989
13.3981
12.8373
12.2086
11.5031
10.712
9.82634
8.83691
7.73417
6.50862
5.15223
3.6617
2.04143
0.306164
-1.52529
-3.43526
-5.4111
-7.44999
-9.55961
-11.76
-14.0782
-16.5415
-19.1702
-21.9731
-24.9382
-28.0362
-31.2189
-34.4133
-37.5213
-40.4218
-42.9766
-45.0391
-46.4685
-47.1495
-47.0055
-46.0065
-44.1654
-41.5372
-38.2168
-34.3391
-30.0683
-25.5709
-21.0076
-16.5229
-12.2334
-8.21874
-4.51064
-1.11169
1.99159
4.82197
7.40565
9.76763
11.9266
13.8965
15.6919
17.3297
18.8275
20.2061
21.4914
22.7109
23.887
25.0301
26.1409
27.2159
28.2499
29.2364
30.1692
31.0426
31.8532
32.6001
33.2846
33.9108
34.4851
35.0152
35.5091
35.9725
36.408
36.8147
37.1892
37.5274
37.8254
38.0807
38.2928
38.4629
38.5929
38.6836
38.7358
38.7521
38.7366
38.6939
38.6286
38.5449
38.4466
38.3362
38.2161
38.0882
37.9543
37.8155
37.6729
37.5276
37.3803
37.2317
37.0822
36.9321
36.782
36.6321
36.4825
36.3335
36.1849
36.037
35.8897
35.743
35.5969
35.4513
35.3063
35.1617
35.0176
34.8737
34.7302
34.5869
34.4437
34.3005
34.1572
34.0139
33.8704
33.7266
33.5826
33.4383
33.2936
33.1485
33.0029
32.8568
32.7101
32.5628
32.4148
32.2661
32.1166
31.9664
31.8153
31.6633
31.5105
31.3567
31.202
31.0463
30.8895
30.7318
30.573
30.4131
30.2521
30.09
29.9267
29.7623
29.5967
29.43
29.262
29.0928
28.9223
28.7505
28.5774
28.4027
28.2264
28.0481
27.8672
27.6829
27.4938
27.2979
27.0921
26.8721
26.6323
26.366
17.0939
17.0267
16.8894
16.6883
16.4285
16.1205
15.7723
15.3882
14.9645
14.4911
13.9566
13.3495
12.661
11.8841
11.0134
10.045
8.97527
7.80088
6.51922
5.12763
3.62276
2.00327
0.273123
-1.55706
-3.47376
-5.46267
-7.50928
-9.60349
-11.7426
-13.936
-16.2051
-18.5781
-21.0809
-23.7302
-26.5254
-29.4451
-32.4451
-35.4562
-38.3836
-41.1125
-43.5177
-45.4641
-46.8194
-47.4725
-47.3433
-46.3969
-44.6373
-42.1061
-38.8935
-35.1305
-30.9699
-26.5698
-22.0831
-17.6493
-13.3819
-9.35752
-5.61205
-2.15508
1.01968
3.92891
6.59259
9.02878
11.2517
13.2744
15.1117
16.7801
18.2989
19.6937
20.9955
22.2326
23.4239
24.5771
25.6937
26.7726
27.8107
28.8032
29.7445
30.6289
31.4522
32.2119
32.9081
33.5441
34.1266
34.6641
35.1653
35.6368
36.0818
36.4992
36.8855
37.2357
37.5457
37.812
38.0335
38.2113
38.3479
38.4454
38.5054
38.531
38.5266
38.4962
38.4438
38.3729
38.2867
38.1879
38.0789
37.9616
37.8376
37.7081
37.5743
37.4371
37.2973
37.1557
37.0127
36.8687
36.7242
36.5794
36.4345
36.2898
36.1452
36.0009
35.8569
35.7132
35.5698
35.4267
35.284
35.1415
34.9992
34.8571
34.7152
34.5733
34.4314
34.2893
34.1472
34.0048
33.8622
33.7193
33.576
33.4324
33.2883
33.1437
32.9986
32.853
32.7067
32.5597
32.4121
32.2636
32.1144
31.9644
31.8135
31.6617
31.509
31.3554
31.2007
31.0451
30.8884
30.7307
30.5719
30.4119
30.2509
30.0887
29.9252
29.7606
29.5947
29.4276
29.2591
29.0892
28.9179
28.7451
28.5707
28.3944
28.216
28.035
27.8509
27.6626
27.4687
27.2671
27.0549
26.8283
26.5822
26.3109
17.4608
17.3877
17.2345
17.0089
16.7124
16.3526
15.9328
15.4548
14.9135
14.3019
13.6136
12.8428
11.9839
11.0325
9.98626
8.8461
7.61619
6.30144
4.90455
3.42414
1.85627
0.199765
-1.54042
-3.35269
-5.2226
-7.13456
-9.07174
-11.0214
-12.9816
-14.9647
-16.9934
-19.1012
-21.3165
-23.658
-26.1279
-28.7131
-31.3744
-34.0525
-36.6661
-39.1171
-41.2958
-43.0831
-44.359
-45.0167
-44.9746
-44.1879
-42.6502
-40.3944
-37.4957
-34.0681
-30.2472
-26.1732
-21.984
-17.8067
-13.7448
-9.86868
-6.21753
-2.80922
0.353295
3.27602
5.96741
8.43412
10.6844
12.7299
14.5848
16.2663
17.7979
19.2086
20.529
21.7835
22.9884
24.1517
25.2768
26.3631
27.4076
28.406
29.3535
30.2449
31.0756
31.8423
32.5446
33.1864
33.7753
34.3211
34.8333
35.318
35.7771
36.2085
36.6078
36.9698
37.2899
37.5643
37.7914
37.9726
38.1118
38.2131
38.2794
38.3139
38.32
38.3014
38.261
38.202
38.1272
38.0393
37.9407
37.8334
37.719
37.5986
37.4734
37.3444
37.2123
37.0777
36.9413
36.8035
36.6646
36.525
36.385
36.2446
36.1041
35.9635
35.8228
35.6822
35.5417
35.4012
35.2608
35.1204
34.9801
34.8398
34.6995
34.559
34.4185
34.2777
34.1367
33.9953
33.8537
33.7116
33.5691
33.4261
33.2827
33.1387
32.9941
32.8489
32.703
32.5565
32.4091
32.261
32.1121
31.9623
31.8116
31.66
31.5075
31.354
31.1994
31.0439
30.8873
30.7296
30.5707
30.4108
30.2496
30.0873
29.9237
29.7589
29.5927
29.4252
29.2562
29.0857
28.9136
28.7398
28.5641
28.3862
28.2058
28.0223
27.8352
27.6432
27.4449
27.2383
27.0205
26.7881
26.5367
26.2612
17.7131
17.6331
17.464
17.1998
16.8433
16.3962
15.8526
15.2115
14.4751
13.6516
12.7486
11.7702
10.7178
9.59522
8.40904
7.16568
5.87055
4.52817
3.14149
1.71167
0.240394
-1.26826
-2.8076
-4.37557
-5.9683
-7.58641
-9.22717
-10.8844
-12.5598
-14.2571
-15.9902
-17.7802
-19.6497
-21.6165
-23.6885
-25.8603
-28.1073
-30.3856
-32.6321
-34.7668
-36.6959
-38.3157
-39.5195
-40.2087
-40.3047
-39.7583
-38.5565
-36.7186
-34.3002
-31.3884
-28.0906
-24.5243
-20.8081
-17.0507
-13.3405
-9.74137
-6.29627
-3.03135
0.038631
2.90476
5.56033
8.00189
10.2337
12.2657
14.1117
15.7909
17.3292
18.7553
20.0943
21.3655
22.5829
23.7551
24.8862
25.9759
27.0221
28.0223
28.9728
29.8687
30.7046
31.4765
32.1844
32.8334
33.4331
33.9939
34.5238
35.0269
35.5026
35.9479
36.358
36.728
37.053
37.3297
37.5574
37.7386
37.8786
37.9826
38.0544
38.097
38.113
38.1051
38.076
38.0283
37.9645
37.8873
37.7991
37.7018
37.5969
37.4858
37.3694
37.2486
37.1243
36.997
36.8673
36.7358
36.6027
36.4685
36.3333
36.1975
36.0612
35.9244
35.7872
35.6498
35.5122
35.3743
35.2364
35.0982
34.9599
34.8215
34.6828
34.544
34.4049
34.2654
34.1256
33.9853
33.8446
33.7034
33.5617
33.4195
33.2767
33.1333
32.9893
32.8446
32.6992
32.553
32.4061
32.2583
32.1096
31.9601
31.8096
31.6582
31.5059
31.3525
31.1981
31.0426
30.886
30.7284
30.5696
30.4096
30.2484
30.0859
29.9222
29.7571
29.5907
29.4228
29.2533
29.0823
28.9094
28.7346
28.5577
28.3783
28.196
28.0102
27.8202
27.6248
27.4226
27.2115
26.9888
26.7515
26.4955
26.2165
17.8304
17.7371
17.5177
17.1697
16.6859
16.0636
15.2992
14.4089
13.4192
12.3597
11.2563
10.1325
9.00257
7.87404
6.74609
5.61664
4.48474
3.35496
2.22634
1.09838
-0.0399869
-1.19407
-2.3758
-3.59371
-4.85522
-6.16337
-7.51623
-8.90785
-10.3331
-11.7886
-13.2765
-14.8079
-16.3984
-18.063
-19.8102
-21.6382
-23.5324
-25.4622
-27.3803
-29.2243
-30.9184
-32.3768
-33.5101
-34.2343
-34.4805
-34.1983
-33.3665
-31.988
-30.0955
-27.7488
-25.0291
-22.031
-18.8513
-15.5778
-12.2834
-9.02666
-5.85332
-2.79835
0.110429
2.84993
5.40337
7.76336
9.93132
11.9148
13.7277
15.3911
16.9305
18.3688
19.7231
21.0064
22.2299
23.4029
24.5316
25.6185
26.6635
27.6645
28.6177
29.517
30.3567
31.134
31.8508
32.5137
33.132
33.7142
34.2654
34.7868
35.2765
35.7307
36.1447
36.514
36.8355
37.1079
37.3323
37.5124
37.6536
37.7609
37.8381
37.8879
37.9124
37.9141
37.8951
37.8578
37.8046
37.7379
37.6597
37.5721
37.4765
37.3743
37.2664
37.1536
37.0368
36.9166
36.7935
36.668
36.5406
36.4117
36.2814
36.15
36.0178
35.8848
35.7511
35.6168
35.4821
35.347
35.2114
35.0755
34.9393
34.8027
34.6658
34.5285
34.3908
34.2527
34.1141
33.975
33.8353
33.695
33.5541
33.4127
33.2706
33.1278
32.9843
32.8401
32.6952
32.5494
32.4029
32.2554
32.1071
31.9578
31.8076
31.6564
31.5042
31.3509
31.1966
31.0413
30.8848
30.7272
30.5684
30.4084
30.2471
30.0846
29.9207
29.7555
29.5887
29.4205
29.2506
29.0789
28.9054
28.7297
28.5516
28.3708
28.1867
27.9988
27.8062
27.6077
27.4019
27.1868
26.9599
26.7183
26.4584
26.1765
17.8281
17.689
17.3613
16.8387
16.1149
15.2184
14.1787
13.0447
11.8685
10.706
9.60271
8.58663
7.66157
6.81538
6.02301
5.25857
4.50189
3.74248
2.96909
2.17146
1.34132
0.470323
-0.452113
-1.43481
-2.48275
-3.59593
-4.77108
-6.00271
-7.28376
-8.60777
-9.97165
-11.3771
-12.8296
-14.3356
-15.899
-17.5179
-19.1821
-20.87
-22.5471
-24.1658
-25.6668
-26.9809
-28.0354
-28.7613
-29.099
-29.0065
-28.457
-27.4403
-25.9712
-24.0911
-21.862
-19.3574
-16.6514
-13.8126