/*--------------------------------*- C++ -*----------------------------------*\
  =========                 |
  \\      /  F ield         | OpenFOAM: The Open Source CFD Toolbox
   \\    /   O peration     | Website:  https://openfoam.org
    \\  /    A nd           | Version:  10
     \\/     M anipulation  |
\*---------------------------------------------------------------------------*/
FoamFile
{
    format      ascii;
    class       volScalarField;
    location    "2.04";
    object      Sb;
}
// * * * * * * * * * * * * * * * * * * * * * * * * * * * * * * * * * * * * * //

dimensions      [0 0 0 0 0 0 0];

internalField   nonuniform List<scalar> 
12225
(
0.870958
0.869946
0.868687
0.86731
0.865906
0.864532
0.863225
0.862006
0.860891
0.859888
0.859007
0.858261
0.857668
0.857257
0.857091
0.857301
0.858245
0.861004
0.883061
0.881781
0.880205
0.8785
0.876777
0.875107
0.87353
0.87207
0.870742
0.869553
0.868513
0.867632
0.866928
0.866432
0.866201
0.866354
0.867132
0.868942
0.890652
0.889147
0.88731
0.885339
0.883364
0.881461
0.879675
0.87803
0.876538
0.875207
0.874043
0.873055
0.872258
0.871679
0.871367
0.871405
0.871924
0.87304
0.896682
0.894959
0.892873
0.890653
0.888443
0.886327
0.884352
0.88254
0.880901
0.879441
0.878164
0.877075
0.876186
0.875517
0.875102
0.874991
0.875236
0.875829
0.901961
0.900013
0.897675
0.895205
0.892763
0.890439
0.888279
0.886305
0.884524
0.882939
0.88155
0.880359
0.879373
0.878603
0.878067
0.877787
0.877767
0.877953
0.906842
0.904651
0.902047
0.899318
0.896638
0.894102
0.891756
0.889618
0.887695
0.885983
0.884479
0.883181
0.88209
0.881207
0.880538
0.88008
0.879812
0.87967
0.911516
0.909058
0.906166
0.903161
0.900231
0.897474
0.894936
0.89263
0.890559
0.888716
0.887092
0.88568
0.884475
0.883469
0.882656
0.882019
0.881524
0.881109
0.916107
0.913349
0.91014
0.906837
0.903639
0.900649
0.897908
0.895427
0.893202
0.89122
0.889469
0.887936
0.886607
0.88547
0.884507
0.883694
0.882992
0.882346
0.920708
0.917604
0.914041
0.91041
0.906924
0.903684
0.900728
0.898061
0.895673
0.893545
0.891659
0.889996
0.888536
0.887261
0.886146
0.885162
0.88427
0.883426
0.925395
0.921887
0.917922
0.913928
0.910126
0.906616
0.903431
0.900566
0.898004
0.895721
0.893692
0.891891
0.890295
0.888876
0.887609
0.886461
0.885397
0.884378
0.93024
0.92625
0.921823
0.91742
0.913271
0.909469
0.906036
0.902961
0.900215
0.897769
0.895588
0.893643
0.891903
0.890339
0.888921
0.887616
0.886393
0.88522
0.935314
0.93074
0.925773
0.920909
0.916374
0.912252
0.908554
0.905254
0.902315
0.899695
0.897356
0.89526
0.893373
0.891662
0.890096
0.888642
0.887272
0.885959
0.939893
0.934697
0.929184
0.923866
0.918963
0.914543
0.9106
0.907096
0.903981
0.901206
0.898724
0.896495
0.89448
0.892643
0.890954
0.88938
0.887896
0.886477
0.945445
0.939382
0.933141
0.927237
0.92187
0.917083
0.912844
0.909095
0.905773
0.902816
0.90017
0.897789
0.89563
0.893657
0.891835
0.890134
0.88853
0.887
0.952274
0.944956
0.937716
0.931041
0.925086
0.919846
0.915251
0.911215
0.907652
0.904489
0.901661
0.899113
0.896799
0.894677
0.892713
0.890875
0.889139
0.887485
0.96091
0.951691
0.94302
0.935298
0.928583
0.922784
0.91777
0.913408
0.909584
0.906201
0.903179
0.90045
0.897959
0.895663
0.893524
0.891515
0.889613
0.887803
0.973039
0.960918
0.950055
0.940838
0.933123
0.926617
0.92106
0.916251
0.912039
0.908283
0.904885
0.901792
0.898955
0.896338
0.893907
0.891638
0.88951
0.887506
0.957192
0.94884
0.941009
0.933921
0.927615
0.922037
0.9171
0.91271
0.908781
0.905261
0.902098
0.899186
0.896476
0.893952
0.891593
0.889384
0.88731
0.885358
0.941664
0.936
0.930253
0.924779
0.919709
0.91507
0.910848
0.907005
0.9035
0.900291
0.89734
0.894649
0.892186
0.889887
0.887735
0.885716
0.883817
0.882027
0.930521
0.926385
0.921905
0.917447
0.913183
0.909183
0.905468
0.902031
0.898853
0.895913
0.893186
0.89065
0.888294
0.886124
0.884083
0.882163
0.880353
0.878645
0.920978
0.917813
0.914219
0.910519
0.906886
0.903409
0.900125
0.897046
0.894168
0.891481
0.88897
0.886621
0.88442
0.882366
0.880453
0.87865
0.876947
0.875337
0.912562
0.910048
0.907095
0.903973
0.900844
0.897797
0.894881
0.892116
0.889507
0.887053
0.884745
0.882574
0.880531
0.878606
0.87681
0.875118
0.873518
0.872004
0.904936
0.902882
0.900409
0.89774
0.895019
0.892333
0.889732
0.887242
0.884875
0.882632
0.880511
0.878507
0.876614
0.874824
0.873133
0.871548
0.870048
0.868626
0.897842
0.896129
0.894029
0.891724
0.88934
0.88696
0.884633
0.882387
0.880236
0.878187
0.876239
0.874391
0.872638
0.870976
0.869399
0.867914
0.866507
0.865172
0.891058
0.88961
0.887808
0.885803
0.883706
0.88159
0.879505
0.877477
0.875523
0.873651
0.871864
0.870162
0.868541
0.867
0.865533
0.864144
0.862829
0.861579
0.884362
0.883129
0.881573
0.879823
0.877974
0.876093
0.874224
0.872395
0.870623
0.868917
0.867281
0.865716
0.864221
0.862795
0.861435
0.860139
0.858911
0.857743
0.877481
0.876428
0.875084
0.873557
0.87193
0.870261
0.868592
0.866949
0.865349
0.8638
0.862309
0.860878
0.859506
0.858192
0.856937
0.855736
0.854594
0.853506
0.869981
0.869087
0.867934
0.86661
0.865189
0.863721
0.862243
0.86078
0.859347
0.857955
0.856608
0.85531
0.854061
0.852862
0.851711
0.850609
0.849557
0.848551
0.860924
0.860179
0.859208
0.858084
0.856866
0.8556
0.854317
0.853039
0.85178
0.850551
0.849356
0.848199
0.847082
0.846005
0.844968
0.84397
0.843015
0.842098
0.846654
0.846064
0.845283
0.84437
0.84337
0.84232
0.841247
0.840168
0.839097
0.838042
0.83701
0.836002
0.835023
0.834073
0.833152
0.83226
0.831399
0.830583
0.724434
0.724596
0.724833
0.725142
0.725521
0.72598
0.726528
0.727178
0.727943
0.728839
0.729882
0.731089
0.732481
0.734079
0.735907
0.737988
0.740343
0.742986
0.74592
0.749131
0.752578
0.756188
0.75985
0.763433
0.766799
0.769827
0.772435
0.774571
0.776204
0.777293
0.777753
0.777379
0.775665
0.771107
0.757032
0.628288
0.0413512
1.70161e-05
1.1e-06
1.1e-06
1.1e-06
1.1e-06
1.1e-06
1.1e-06
1.1e-06
1.1e-06
1.1e-06
1.1e-06
1.1e-06
1.1e-06
1.1e-06
1.1e-06
1.1e-06
1.1e-06
1.1e-06
1.1e-06
1.1e-06
1.1e-06
1.1e-06
1.1e-06
1.1e-06
1.1e-06
1.1e-06
1.1e-06
1.1e-06
1.1e-06
1.1e-06
1.1e-06
1.1e-06
1.1e-06
1.1e-06
1.1e-06
1.1e-06
1.1e-06
1.1e-06
1.1e-06
1.1e-06
1.1e-06
1.1e-06
1.1e-06
1.1e-06
1.1e-06
1.1e-06
1.1e-06
1.1e-06
1.1e-06
1.1e-06
1.1e-06
1.1e-06
1.1e-06
1.1e-06
1.1e-06
1.1e-06
1.1e-06
1.1e-06
1.1e-06
1.1e-06
1.1e-06
1.1e-06
1.1e-06
1.1e-06
1.1e-06
1.1e-06
1.1e-06
1.1e-06
1.1e-06
1.1e-06
1.1e-06
1.1e-06
1.1e-06
1.1e-06
1.1e-06
1.1e-06
1.1e-06
1.1e-06
1.1e-06
1.1e-06
1.1e-06
1.1e-06
1.1e-06
1.1e-06
1.1e-06
1.1e-06
1.1e-06
1.1e-06
1.1e-06
1.1e-06
1.1e-06
1.1e-06
1.1e-06
1.1e-06
1.1e-06
1.1e-06
1.1e-06
1.1e-06
1.1e-06
1.1e-06
1.1e-06
1.1e-06
1.1e-06
1.1e-06
1.1e-06
1.1e-06
1.1e-06
1.1e-06
1.1e-06
1.1e-06
1.1e-06
1.1e-06
1.1e-06
1.1e-06
1.1e-06
1.1e-06
1.1e-06
1.1e-06
1.1e-06
1.1e-06
1.1e-06
1.1e-06
1.1e-06
1.1e-06
1.1e-06
1.1e-06
1.1e-06
1.1e-06
1.1e-06
1.1e-06
1.1e-06
1.1e-06
1.1e-06
1.1e-06
1.1e-06
1.1e-06
1.1e-06
1.1e-06
1.1e-06
1.1e-06
1.1e-06
1.1e-06
1.1e-06
0.79645
0.796529
0.796654
0.796813
0.797008
0.797267
0.797626
0.798115
0.798755
0.799549
0.800492
0.801567
0.802743
0.803982
0.805237
0.806456
0.807592
0.808605
0.809472
0.810177
0.810703
0.811031
0.811147
0.81105
0.810745
0.810241
0.809541
0.808639
0.807512
0.806112
0.804364
0.802135
0.799177
0.794947
0.788001
0.772586
0.686978
0.1552
0.000920167
1.73709e-06
1.1e-06
1.1e-06
1.1e-06
1.1e-06
1.1e-06
1.1e-06
1.1e-06
1.1e-06
1.1e-06
1.1e-06
1.1e-06
1.1e-06
1.1e-06
1.1e-06
1.1e-06
1.1e-06
1.1e-06
1.1e-06
1.1e-06
1.1e-06
1.1e-06
1.1e-06
1.1e-06
1.1e-06
1.1e-06
1.1e-06
1.1e-06
1.1e-06
1.1e-06
1.1e-06
1.1e-06
1.1e-06
1.1e-06
1.1e-06
1.1e-06
1.1e-06
1.1e-06
1.1e-06
1.1e-06
1.1e-06
1.1e-06
1.1e-06
1.1e-06
1.1e-06
1.1e-06
1.1e-06
1.1e-06
1.1e-06
1.1e-06
1.1e-06
1.1e-06
1.1e-06
1.1e-06
1.1e-06
1.1e-06
1.1e-06
1.1e-06
1.1e-06
1.1e-06
1.1e-06
1.1e-06
1.1e-06
1.1e-06
1.1e-06
1.1e-06
1.1e-06
1.1e-06
1.1e-06
1.1e-06
1.1e-06
1.1e-06
1.1e-06
1.1e-06
1.1e-06
1.1e-06
1.1e-06
1.1e-06
1.1e-06
1.1e-06
1.1e-06
1.1e-06
1.1e-06
1.1e-06
1.1e-06
1.1e-06
1.1e-06
1.1e-06
1.1e-06
1.1e-06
1.1e-06
1.1e-06
1.1e-06
1.1e-06
1.1e-06
1.1e-06
1.1e-06
1.1e-06
1.1e-06
1.1e-06
1.1e-06
1.1e-06
1.1e-06
1.1e-06
1.1e-06
1.1e-06
1.1e-06
1.1e-06
1.1e-06
1.1e-06
1.1e-06
1.1e-06
1.1e-06
1.1e-06
1.1e-06
1.1e-06
1.1e-06
1.1e-06
1.1e-06
1.1e-06
1.1e-06
1.1e-06
1.1e-06
1.1e-06
1.1e-06
1.1e-06
1.1e-06
1.1e-06
1.1e-06
1.1e-06
1.1e-06
1.1e-06
1.1e-06
1.1e-06
1.1e-06
1.1e-06
1.1e-06
1.1e-06
1.1e-06
1.1e-06
1.1e-06
0.811094
0.811162
0.811245
0.811338
0.811434
0.811566
0.811776
0.812104
0.812576
0.813207
0.814001
0.814953
0.816046
0.81725
0.818517
0.819788
0.820998
0.822084
0.822993
0.823685
0.824133
0.824323
0.824251
0.823918
0.823329
0.822494
0.821429
0.820144
0.818639
0.816903
0.814908
0.812597
0.809875
0.806559
0.802241
0.795975
0.784909
0.754925
0.498654
0.0401777
5.65885e-05
1.1e-06
1.1e-06
1.1e-06
1.1e-06
1.1e-06
1.1e-06
1.1e-06
1.1e-06
1.1e-06
1.1e-06
1.1e-06
1.1e-06
1.1e-06
1.1e-06
1.1e-06
1.1e-06
1.1e-06
1.1e-06
1.1e-06
1.1e-06
1.1e-06
1.1e-06
1.1e-06
1.1e-06
1.1e-06
1.1e-06
1.1e-06
1.1e-06
1.1e-06
1.1e-06
1.1e-06
1.1e-06
1.1e-06
1.1e-06
1.1e-06
1.1e-06
1.1e-06
1.1e-06
1.1e-06
1.1e-06
1.1e-06
1.1e-06
1.1e-06
1.1e-06
1.1e-06
1.1e-06
1.1e-06
1.1e-06
1.1e-06
1.1e-06
1.1e-06
1.1e-06
1.1e-06
1.1e-06
1.1e-06
1.1e-06
1.1e-06
1.1e-06
1.1e-06
1.1e-06
1.1e-06
1.1e-06
1.1e-06
1.1e-06
1.1e-06
1.1e-06
1.1e-06
1.1e-06
1.1e-06
1.1e-06
1.1e-06
1.1e-06
1.1e-06
1.1e-06
1.1e-06
1.1e-06
1.1e-06
1.1e-06
1.1e-06
1.1e-06
1.1e-06
1.1e-06
1.1e-06
1.1e-06
1.1e-06
1.1e-06
1.1e-06
1.1e-06
1.1e-06
1.1e-06
1.1e-06
1.1e-06
1.1e-06
1.1e-06
1.1e-06
1.1e-06
1.1e-06
1.1e-06
1.1e-06
1.1e-06
1.1e-06
1.1e-06
1.1e-06
1.1e-06
1.1e-06
1.1e-06
1.1e-06
1.1e-06
1.1e-06
1.1e-06
1.1e-06
1.1e-06
1.1e-06
1.1e-06
1.1e-06
1.1e-06
1.1e-06
1.1e-06
1.1e-06
1.1e-06
1.1e-06
1.1e-06
1.1e-06
1.1e-06
1.1e-06
1.1e-06
1.1e-06
1.1e-06
1.1e-06
1.1e-06
1.1e-06
1.1e-06
1.1e-06
1.1e-06
1.1e-06
1.1e-06
1.1e-06
1.1e-06
1.1e-06
0.818815
0.818899
0.81898
0.819064
0.819139
0.819213
0.819306
0.819438
0.819622
0.819868
0.820176
0.820547
0.820973
0.821442
0.821936
0.82243
0.822895
0.823297
0.82361
0.823813
0.823889
0.823825
0.823607
0.823229
0.822684
0.821973
0.821095
0.820051
0.818843
0.817466
0.815912
0.81416
0.812168
0.80986
0.807094
0.803601
0.798792
0.791175
0.775744
0.713553
0.23696
0.00332302
2.85307e-06
1.1e-06
1.1e-06
1.1e-06
1.1e-06
1.1e-06
1.1e-06
1.1e-06
1.1e-06
1.1e-06
1.1e-06
1.1e-06
1.1e-06
1.1e-06
1.1e-06
1.1e-06
1.1e-06
1.1e-06
1.1e-06
1.1e-06
1.1e-06
1.1e-06
1.1e-06
1.1e-06
1.1e-06
1.1e-06
1.1e-06
1.1e-06
1.1e-06
1.1e-06
1.1e-06
1.1e-06
1.1e-06
1.1e-06
1.1e-06
1.1e-06
1.1e-06
1.1e-06
1.1e-06
1.1e-06
1.1e-06
1.1e-06
1.1e-06
1.1e-06
1.1e-06
1.1e-06
1.1e-06
1.1e-06
1.1e-06
1.1e-06
1.1e-06
1.1e-06
1.1e-06
1.1e-06
1.1e-06
1.1e-06
1.1e-06
1.1e-06
1.1e-06
1.1e-06
1.1e-06
1.1e-06
1.1e-06
1.1e-06
1.1e-06
1.1e-06
1.1e-06
1.1e-06
1.1e-06
1.1e-06
1.1e-06
1.1e-06
1.1e-06
1.1e-06
1.1e-06
1.1e-06
1.1e-06
1.1e-06
1.1e-06
1.1e-06
1.1e-06
1.1e-06
1.1e-06
1.1e-06
1.1e-06
1.1e-06
1.1e-06
1.1e-06
1.1e-06
1.1e-06
1.1e-06
1.1e-06
1.1e-06
1.1e-06
1.1e-06
1.1e-06
1.1e-06
1.1e-06
1.1e-06
1.1e-06
1.1e-06
1.1e-06
1.1e-06
1.1e-06
1.1e-06
1.1e-06
1.1e-06
1.1e-06
1.1e-06
1.1e-06
1.1e-06
1.1e-06
1.1e-06
1.1e-06
1.1e-06
1.1e-06
1.1e-06
1.1e-06
1.1e-06
1.1e-06
1.1e-06
1.1e-06
1.1e-06
1.1e-06
1.1e-06
1.1e-06
1.1e-06
1.1e-06
1.1e-06
1.1e-06
1.1e-06
1.1e-06
1.1e-06
1.1e-06
1.1e-06
1.1e-06
1.1e-06
1.1e-06
0.824191
0.824304
0.824404
0.824496
0.82457
0.824627
0.824673
0.824721
0.824776
0.824845
0.824929
0.825028
0.825139
0.825257
0.825373
0.825477
0.825555
0.825593
0.825577
0.825496
0.82534
0.825096
0.824757
0.824314
0.823761
0.823096
0.822315
0.821417
0.8204
0.819261
0.817993
0.816586
0.815017
0.813252
0.811229
0.808845
0.805914
0.802054
0.796408
0.786569
0.761987
0.578299
0.057879
7.35389e-05
1.1e-06
1.1e-06
1.1e-06
1.1e-06
1.1e-06
1.1e-06
1.1e-06
1.1e-06
1.1e-06
1.1e-06
1.1e-06
1.1e-06
1.1e-06
1.1e-06
1.1e-06
1.1e-06
1.1e-06
1.1e-06
1.1e-06
1.1e-06
1.1e-06
1.1e-06
1.1e-06
1.1e-06
1.1e-06
1.1e-06
1.1e-06
1.1e-06
1.1e-06
1.1e-06
1.1e-06
1.1e-06
1.1e-06
1.1e-06
1.1e-06
1.1e-06
1.1e-06
1.1e-06
1.1e-06
1.1e-06
1.1e-06
1.1e-06
1.1e-06
1.1e-06
1.1e-06
1.1e-06
1.1e-06
1.1e-06
1.1e-06
1.1e-06
1.1e-06
1.1e-06
1.1e-06
1.1e-06
1.1e-06
1.1e-06
1.1e-06
1.1e-06
1.1e-06
1.1e-06
1.1e-06
1.1e-06
1.1e-06
1.1e-06
1.1e-06
1.1e-06
1.1e-06
1.1e-06
1.1e-06
1.1e-06
1.1e-06
1.1e-06
1.1e-06
1.1e-06
1.1e-06
1.1e-06
1.1e-06
1.1e-06
1.1e-06
1.1e-06
1.1e-06
1.1e-06
1.1e-06
1.1e-06
1.1e-06
1.1e-06
1.1e-06
1.1e-06
1.1e-06
1.1e-06
1.1e-06
1.1e-06
1.1e-06
1.1e-06
1.1e-06
1.1e-06
1.1e-06
1.1e-06
1.1e-06
1.1e-06
1.1e-06
1.1e-06
1.1e-06
1.1e-06
1.1e-06
1.1e-06
1.1e-06
1.1e-06
1.1e-06
1.1e-06
1.1e-06
1.1e-06
1.1e-06
1.1e-06
1.1e-06
1.1e-06
1.1e-06
1.1e-06
1.1e-06
1.1e-06
1.1e-06
1.1e-06
1.1e-06
1.1e-06
1.1e-06
1.1e-06
1.1e-06
1.1e-06
1.1e-06
1.1e-06
1.1e-06
1.1e-06
1.1e-06
1.1e-06
1.1e-06
1.1e-06
0.828432
0.828583
0.828711
0.82882
0.828904
0.828961
0.828994
0.829008
0.829005
0.82899
0.828963
0.828923
0.828871
0.828804
0.828718
0.828609
0.828471
0.828299
0.828085
0.827824
0.827508
0.827133
0.826693
0.826181
0.825594
0.824928
0.82418
0.823349
0.82243
0.821423
0.82032
0.819116
0.817798
0.816347
0.814731
0.8129
0.810774
0.808209
0.804938
0.800408
0.793249
0.778823
0.723295
0.25505
0.00166368
1.2532e-06
1.1e-06
1.1e-06
1.1e-06
1.1e-06
1.1e-06
1.1e-06
1.1e-06
1.1e-06
1.1e-06
1.1e-06
1.1e-06
1.1e-06
1.1e-06
1.1e-06
1.1e-06
1.1e-06
1.1e-06
1.1e-06
1.1e-06
1.1e-06
1.1e-06
1.1e-06
1.1e-06
1.1e-06
1.1e-06
1.1e-06
1.1e-06
1.1e-06
1.1e-06
1.1e-06
1.1e-06
1.1e-06
1.1e-06
1.1e-06
1.1e-06
1.1e-06
1.1e-06
1.1e-06
1.1e-06
1.1e-06
1.1e-06
1.1e-06
1.1e-06
1.1e-06
1.1e-06
1.1e-06
1.1e-06
1.1e-06
1.1e-06
1.1e-06
1.1e-06
1.1e-06
1.1e-06
1.1e-06
1.1e-06
1.1e-06
1.1e-06
1.1e-06
1.1e-06
1.1e-06
1.1e-06
1.1e-06
1.1e-06
1.1e-06
1.1e-06
1.1e-06
1.1e-06
1.1e-06
1.1e-06
1.1e-06
1.1e-06
1.1e-06
1.1e-06
1.1e-06
1.1e-06
1.1e-06
1.1e-06
1.1e-06
1.1e-06
1.1e-06
1.1e-06
1.1e-06
1.1e-06
1.1e-06
1.1e-06
1.1e-06
1.1e-06
1.1e-06
1.1e-06
1.1e-06
1.1e-06
1.1e-06
1.1e-06
1.1e-06
1.1e-06
1.1e-06
1.1e-06
1.1e-06
1.1e-06
1.1e-06
1.1e-06
1.1e-06
1.1e-06
1.1e-06
1.1e-06
1.1e-06
1.1e-06
1.1e-06
1.1e-06
1.1e-06
1.1e-06
1.1e-06
1.1e-06
1.1e-06
1.1e-06
1.1e-06
1.1e-06
1.1e-06
1.1e-06
1.1e-06
1.1e-06
1.1e-06
1.1e-06
1.1e-06
1.1e-06
1.1e-06
1.1e-06
1.1e-06
1.1e-06
1.1e-06
1.1e-06
1.1e-06
1.1e-06
1.1e-06
0.832017
0.83221
0.832372
0.832506
0.832608
0.832676
0.832711
0.832715
0.832687
0.832631
0.832546
0.832433
0.832292
0.832122
0.831922
0.83169
0.831426
0.831125
0.830787
0.830407
0.829983
0.829512
0.828991
0.828417
0.827787
0.827098
0.826349
0.825537
0.824661
0.823716
0.822701
0.821608
0.820431
0.819157
0.817769
0.816239
0.814526
0.81256
0.81023
0.807333
0.803473
0.797754
0.787577
0.760915
0.528612
0.025928
1.0651e-05
1.1e-06
1.1e-06
1.1e-06
1.1e-06
1.1e-06
1.1e-06
1.1e-06
1.1e-06
1.1e-06
1.1e-06
1.1e-06
1.1e-06
1.1e-06
1.1e-06
1.1e-06
1.1e-06
1.1e-06
1.1e-06
1.1e-06
1.1e-06
1.1e-06
1.1e-06
1.1e-06
1.1e-06
1.1e-06
1.1e-06
1.1e-06
1.1e-06
1.1e-06
1.1e-06
1.1e-06
1.1e-06
1.1e-06
1.1e-06
1.1e-06
1.1e-06
1.1e-06
1.1e-06
1.1e-06
1.1e-06
1.1e-06
1.1e-06
1.1e-06
1.1e-06
1.1e-06
1.1e-06
1.1e-06
1.1e-06
1.1e-06
1.1e-06
1.1e-06
1.1e-06
1.1e-06
1.1e-06
1.1e-06
1.1e-06
1.1e-06
1.1e-06
1.1e-06
1.1e-06
1.1e-06
1.1e-06
1.1e-06
1.1e-06
1.1e-06
1.1e-06
1.1e-06
1.1e-06
1.1e-06
1.1e-06
1.1e-06
1.1e-06
1.1e-06
1.1e-06
1.1e-06
1.1e-06
1.1e-06
1.1e-06
1.1e-06
1.1e-06
1.1e-06
1.1e-06
1.1e-06
1.1e-06
1.1e-06
1.1e-06
1.1e-06
1.1e-06
1.1e-06
1.1e-06
1.1e-06
1.1e-06
1.1e-06
1.1e-06
1.1e-06
1.1e-06
1.1e-06
1.1e-06
1.1e-06
1.1e-06
1.1e-06
1.1e-06
1.1e-06
1.1e-06
1.1e-06
1.1e-06
1.1e-06
1.1e-06
1.1e-06
1.1e-06
1.1e-06
1.1e-06
1.1e-06
1.1e-06
1.1e-06
1.1e-06
1.1e-06
1.1e-06
1.1e-06
1.1e-06
1.1e-06
1.1e-06
1.1e-06
1.1e-06
1.1e-06
1.1e-06
1.1e-06
1.1e-06
1.1e-06
1.1e-06
1.1e-06
1.1e-06
1.1e-06
0.835186
0.835422
0.835623
0.835787
0.835913
0.835999
0.836044
0.836047
0.836011
0.835934
0.835819
0.835664
0.83547
0.835239
0.834969
0.834662
0.834316
0.833932
0.833509
0.833047
0.832544
0.832
0.831413
0.830782
0.830106
0.829384
0.828614
0.827795
0.826926
0.826003
0.825025
0.823988
0.822886
0.82171
0.820451
0.819091
0.817605
0.815957
0.814088
0.811904
0.809243
0.805802
0.800932
0.792941
0.775452
0.68292
0.115362
1.49415e-05
1.1e-06
1.1e-06
1.1e-06
1.1e-06
1.1e-06
1.1e-06
1.1e-06
1.1e-06
1.1e-06
1.1e-06
1.1e-06
1.1e-06
1.1e-06
1.1e-06
1.1e-06
1.1e-06
1.1e-06
1.1e-06
1.1e-06
1.1e-06
1.1e-06
1.1e-06
1.1e-06
1.1e-06
1.1e-06
1.1e-06
1.1e-06
1.1e-06
1.1e-06
1.1e-06
1.1e-06
1.1e-06
1.1e-06
1.1e-06
1.1e-06
1.1e-06
1.1e-06
1.1e-06
1.1e-06
1.1e-06
1.1e-06
1.1e-06
1.1e-06
1.1e-06
1.1e-06
1.1e-06
1.1e-06
1.1e-06
1.1e-06
1.1e-06
1.1e-06
1.1e-06
1.1e-06
1.1e-06
1.1e-06
1.1e-06
1.1e-06
1.1e-06
1.1e-06
1.1e-06
1.1e-06
1.1e-06
1.1e-06
1.1e-06
1.1e-06
1.1e-06
1.1e-06
1.1e-06
1.1e-06
1.1e-06
1.1e-06
1.1e-06
1.1e-06
1.1e-06
1.1e-06
1.1e-06
1.1e-06
1.1e-06
1.1e-06
1.1e-06
1.1e-06
1.1e-06
1.1e-06
1.1e-06
1.1e-06
1.1e-06
1.1e-06
1.1e-06
1.1e-06
1.1e-06
1.1e-06
1.1e-06
1.1e-06
1.1e-06
1.1e-06
1.1e-06
1.1e-06
1.1e-06
1.1e-06
1.1e-06
1.1e-06
1.1e-06
1.1e-06
1.1e-06
1.1e-06
1.1e-06
1.1e-06
1.1e-06
1.1e-06
1.1e-06
1.1e-06
1.1e-06
1.1e-06
1.1e-06
1.1e-06
1.1e-06
1.1e-06
1.1e-06
1.1e-06
1.1e-06
1.1e-06
1.1e-06
1.1e-06
1.1e-06
1.1e-06
1.1e-06
1.1e-06
1.1e-06
1.1e-06
1.1e-06
1.1e-06
1.1e-06
0.838075
0.838358
0.838599
0.838797
0.838951
0.839057
0.839116
0.839126
0.839088
0.839001
0.838867
0.838685
0.838458
0.838185
0.837867
0.837506
0.837103
0.836658
0.836173
0.835647
0.835082
0.834477
0.833834
0.833152
0.83243
0.83167
0.830869
0.830029
0.829147
0.828222
0.827253
0.826237
0.82517
0.824046
0.822857
0.821594
0.820239
0.818771
0.817155
0.815341
0.813246
0.810735
0.807557
0.803197
0.796386
0.782824
0.732244
0.249115
0.000282607
1.1e-06
1.1e-06
1.1e-06
1.1e-06
1.1e-06
1.1e-06
1.1e-06
1.1e-06
1.1e-06
1.1e-06
1.1e-06
1.1e-06
1.1e-06
1.1e-06
1.1e-06
1.1e-06
1.1e-06
1.1e-06
1.1e-06
1.1e-06
1.1e-06
1.1e-06
1.1e-06
1.1e-06
1.1e-06
1.1e-06
1.1e-06
1.1e-06
1.1e-06
1.1e-06
1.1e-06
1.1e-06
1.1e-06
1.1e-06
1.1e-06
1.1e-06
1.1e-06
1.1e-06
1.1e-06
1.1e-06
1.1e-06
1.1e-06
1.1e-06
1.1e-06
1.1e-06
1.1e-06
1.1e-06
1.1e-06
1.1e-06
1.1e-06
1.1e-06
1.1e-06
1.1e-06
1.1e-06
1.1e-06
1.1e-06
1.1e-06
1.1e-06
1.1e-06
1.1e-06
1.1e-06
1.1e-06
1.1e-06
1.1e-06
1.1e-06
1.1e-06
1.1e-06
1.1e-06
1.1e-06
1.1e-06
1.1e-06
1.1e-06
1.1e-06
1.1e-06
1.1e-06
1.1e-06
1.1e-06
1.1e-06
1.1e-06
1.1e-06
1.1e-06
1.1e-06
1.1e-06
1.1e-06
1.1e-06
1.1e-06
1.1e-06
1.1e-06
1.1e-06
1.1e-06
1.1e-06
1.1e-06
1.1e-06
1.1e-06
1.1e-06
1.1e-06
1.1e-06
1.1e-06
1.1e-06
1.1e-06
1.1e-06
1.1e-06
1.1e-06
1.1e-06
1.1e-06
1.1e-06
1.1e-06
1.1e-06
1.1e-06
1.1e-06
1.1e-06
1.1e-06
1.1e-06
1.1e-06
1.1e-06
1.1e-06
1.1e-06
1.1e-06
1.1e-06
1.1e-06
1.1e-06
1.1e-06
1.1e-06
1.1e-06
1.1e-06
1.1e-06
1.1e-06
1.1e-06
1.1e-06
1.1e-06
1.1e-06
0.84077
0.8411
0.841384
0.841619
0.841802
0.841932
0.842007
0.842027
0.84199
0.841898
0.84175
0.841548
0.841294
0.840988
0.840632
0.840228
0.839778
0.839283
0.838745
0.838166
0.837547
0.83689
0.836195
0.835464
0.834698
0.833896
0.83306
0.832189
0.831284
0.830343
0.829366
0.82835
0.827293
0.826192
0.82504
0.82383
0.822552
0.82119
0.819723
0.81812
0.816334
0.814291
0.811871
0.808856
0.804805
0.79868
0.787222
0.752019
0.368278
0.000903626
1.1e-06
1.1e-06
1.1e-06
1.1e-06
1.1e-06
1.1e-06
1.1e-06
1.1e-06
1.1e-06
1.1e-06
1.1e-06
1.1e-06
1.1e-06
1.1e-06
1.1e-06
1.1e-06
1.1e-06
1.1e-06
1.1e-06
1.1e-06
1.1e-06
1.1e-06
1.1e-06
1.1e-06
1.1e-06
1.1e-06
1.1e-06
1.1e-06
1.1e-06
1.1e-06
1.1e-06
1.1e-06
1.1e-06
1.1e-06
1.1e-06
1.1e-06
1.1e-06
1.1e-06
1.1e-06
1.1e-06
1.1e-06
1.1e-06
1.1e-06
1.1e-06
1.1e-06
1.1e-06
1.1e-06
1.1e-06
1.1e-06
1.1e-06
1.1e-06
1.1e-06
1.1e-06
1.1e-06
1.1e-06
1.1e-06
1.1e-06
1.1e-06
1.1e-06
1.1e-06
1.1e-06
1.1e-06
1.1e-06
1.1e-06
1.1e-06
1.1e-06
1.1e-06
1.1e-06
1.1e-06
1.1e-06
1.1e-06
1.1e-06
1.1e-06
1.1e-06
1.1e-06
1.1e-06
1.1e-06
1.1e-06
1.1e-06
1.1e-06
1.1e-06
1.1e-06
1.1e-06
1.1e-06
1.1e-06
1.1e-06
1.1e-06
1.1e-06
1.1e-06
1.1e-06
1.1e-06
1.1e-06
1.1e-06
1.1e-06
1.1e-06
1.1e-06
1.1e-06
1.1e-06
1.1e-06
1.1e-06
1.1e-06
1.1e-06
1.1e-06
1.1e-06
1.1e-06
1.1e-06
1.1e-06
1.1e-06
1.1e-06
1.1e-06
1.1e-06
1.1e-06
1.1e-06
1.1e-06
1.1e-06
1.1e-06
1.1e-06
1.1e-06
1.1e-06
1.1e-06
1.1e-06
1.1e-06
1.1e-06
1.1e-06
1.1e-06
1.1e-06
1.1e-06
1.1e-06
1.1e-06
1.1e-06
0.843321
0.843701
0.84403
0.844304
0.84452
0.844675
0.844768
0.844798
0.844764
0.844668
0.844508
0.844289
0.844009
0.843673
0.843282
0.842839
0.842345
0.841805
0.841219
0.84059
0.839921
0.839214
0.83847
0.837692
0.83688
0.836036
0.835161
0.834255
0.83332
0.832354
0.831358
0.83033
0.829268
0.828171
0.827034
0.825851
0.824616
0.823317
0.821941
0.820466
0.818863
0.817088
0.815073
0.812705
0.809783
0.805914
0.800183
0.789854
0.761027
0.446206
0.0019636
1.1e-06
1.1e-06
1.1e-06
1.1e-06
1.1e-06
1.1e-06
1.1e-06
1.1e-06
1.1e-06
1.1e-06
1.1e-06
1.1e-06
1.1e-06
1.1e-06
1.1e-06
1.1e-06
1.1e-06
1.1e-06
1.1e-06
1.1e-06
1.1e-06
1.1e-06
1.1e-06
1.1e-06
1.1e-06
1.1e-06
1.1e-06
1.1e-06
1.1e-06
1.1e-06
1.1e-06
1.1e-06
1.1e-06
1.1e-06
1.1e-06
1.1e-06
1.1e-06
1.1e-06
1.1e-06
1.1e-06
1.1e-06
1.1e-06
1.1e-06
1.1e-06
1.1e-06
1.1e-06
1.1e-06
1.1e-06
1.1e-06
1.1e-06
1.1e-06
1.1e-06
1.1e-06
1.1e-06
1.1e-06
1.1e-06
1.1e-06
1.1e-06
1.1e-06
1.1e-06
1.1e-06
1.1e-06
1.1e-06
1.1e-06
1.1e-06
1.1e-06
1.1e-06
1.1e-06
1.1e-06
1.1e-06
1.1e-06
1.1e-06
1.1e-06
1.1e-06
1.1e-06
1.1e-06
1.1e-06
1.1e-06
1.1e-06
1.1e-06
1.1e-06
1.1e-06
1.1e-06
1.1e-06
1.1e-06
1.1e-06
1.1e-06
1.1e-06
1.1e-06
1.1e-06
1.1e-06
1.1e-06
1.1e-06
1.1e-06
1.1e-06
1.1e-06
1.1e-06
1.1e-06
1.1e-06
1.1e-06
1.1e-06
1.1e-06
1.1e-06
1.1e-06
1.1e-06
1.1e-06
1.1e-06
1.1e-06
1.1e-06
1.1e-06
1.1e-06
1.1e-06
1.1e-06
1.1e-06
1.1e-06
1.1e-06
1.1e-06
1.1e-06
1.1e-06
1.1e-06
1.1e-06
1.1e-06
1.1e-06
1.1e-06
1.1e-06
1.1e-06
1.1e-06
1.1e-06
1.1e-06
0.845757
0.846192
0.846569
0.846885
0.847136
0.847318
0.847431
0.847472
0.847441
0.84734
0.847169
0.84693
0.846626
0.846259
0.845833
0.84535
0.844814
0.844227
0.843594
0.842917
0.842198
0.841442
0.840649
0.839823
0.838965
0.838077
0.837161
0.836218
0.835248
0.834252
0.83323
0.832181
0.831106
0.830001
0.828864
0.827692
0.826479
0.825217
0.823896
0.822501
0.821013
0.819403
0.817628
0.815621
0.813274
0.810395
0.806611
0.80106
0.791206
0.764638
0.476746
0.00248079
1.1e-06
1.1e-06
1.1e-06
1.1e-06
1.1e-06
1.1e-06
1.1e-06
1.1e-06
1.1e-06
1.1e-06
1.1e-06
1.1e-06
1.1e-06
1.1e-06
1.1e-06
1.1e-06
1.1e-06
1.1e-06
1.1e-06
1.1e-06
1.1e-06
1.1e-06
1.1e-06
1.1e-06
1.1e-06
1.1e-06
1.1e-06
1.1e-06
1.1e-06
1.1e-06
1.1e-06
1.1e-06
1.1e-06
1.1e-06
1.1e-06
1.1e-06
1.1e-06
1.1e-06
1.1e-06
1.1e-06
1.1e-06
1.1e-06
1.1e-06
1.1e-06
1.1e-06
1.1e-06
1.1e-06
1.1e-06
1.1e-06
1.1e-06
1.1e-06
1.1e-06
1.1e-06
1.1e-06
1.1e-06
1.1e-06
1.1e-06
1.1e-06
1.1e-06
1.1e-06
1.1e-06
1.1e-06
1.1e-06
1.1e-06
1.1e-06
1.1e-06
1.1e-06
1.1e-06
1.1e-06
1.1e-06
1.1e-06
1.1e-06
1.1e-06
1.1e-06
1.1e-06
1.1e-06
1.1e-06
1.1e-06
1.1e-06
1.1e-06
1.1e-06
1.1e-06
1.1e-06
1.1e-06
1.1e-06
1.1e-06
1.1e-06
1.1e-06
1.1e-06
1.1e-06
1.1e-06
1.1e-06
1.1e-06
1.1e-06
1.1e-06
1.1e-06
1.1e-06
1.1e-06
1.1e-06
1.1e-06
1.1e-06
1.1e-06
1.1e-06
1.1e-06
1.1e-06
1.1e-06
1.1e-06
1.1e-06
1.1e-06
1.1e-06
1.1e-06
1.1e-06
1.1e-06
1.1e-06
1.1e-06
1.1e-06
1.1e-06
1.1e-06
1.1e-06
1.1e-06
1.1e-06
1.1e-06
1.1e-06
1.1e-06
1.1e-06
1.1e-06
1.1e-06
1.1e-06
0.848094
0.848587
0.849018
0.84938
0.849668
0.849881
0.850014
0.850067
0.85004
0.849933
0.849749
0.849489
0.849158
0.848758
0.848294
0.84777
0.847189
0.846555
0.845873
0.845146
0.844377
0.843571
0.842729
0.841854
0.84095
0.840017
0.839058
0.838075
0.837068
0.836038
0.834986
0.833913
0.832816
0.831696
0.830551
0.829377
0.828172
0.826929
0.825641
0.824297
0.822884
0.82138
0.819757
0.817971
0.815958
0.813607
0.810729
0.806946
0.801396
0.791515
0.764552
0.461276
0.00177337
1.1e-06
1.1e-06
1.1e-06
1.1e-06
1.1e-06
1.1e-06
1.1e-06
1.1e-06
1.1e-06
1.1e-06
1.1e-06
1.1e-06
1.1e-06
1.1e-06
1.1e-06
1.1e-06
1.1e-06
1.1e-06
1.1e-06
1.1e-06
1.1e-06
1.1e-06
1.1e-06
1.1e-06
1.1e-06
1.1e-06
1.1e-06
1.1e-06
1.1e-06
1.1e-06
1.1e-06
1.1e-06
1.1e-06
1.1e-06
1.1e-06
1.1e-06
1.1e-06
1.1e-06
1.1e-06
1.1e-06
1.1e-06
1.1e-06
1.1e-06
1.1e-06
1.1e-06
1.1e-06
1.1e-06
1.1e-06
1.1e-06
1.1e-06
1.1e-06
1.1e-06
1.1e-06
1.1e-06
1.1e-06
1.1e-06
1.1e-06
1.1e-06
1.1e-06
1.1e-06
1.1e-06
1.1e-06
1.1e-06
1.1e-06
1.1e-06
1.1e-06
1.1e-06
1.1e-06
1.1e-06
1.1e-06
1.1e-06
1.1e-06
1.1e-06
1.1e-06
1.1e-06
1.1e-06
1.1e-06
1.1e-06
1.1e-06
1.1e-06
1.1e-06
1.1e-06
1.1e-06
1.1e-06
1.1e-06
1.1e-06
1.1e-06
1.1e-06
1.1e-06
1.1e-06
1.1e-06
1.1e-06
1.1e-06
1.1e-06
1.1e-06
1.1e-06
1.1e-06
1.1e-06
1.1e-06
1.1e-06
1.1e-06
1.1e-06
1.1e-06
1.1e-06
1.1e-06
1.1e-06
1.1e-06
1.1e-06
1.1e-06
1.1e-06
1.1e-06
1.1e-06
1.1e-06
1.1e-06
1.1e-06
1.1e-06
1.1e-06
1.1e-06
1.1e-06
1.1e-06
1.1e-06
1.1e-06
1.1e-06
1.1e-06
1.1e-06
1.1e-06
1.1e-06
0.850339
0.850897
0.851386
0.851798
0.852129
0.852373
0.852529
0.852594
0.852569
0.852456
0.852256
0.851973
0.851612
0.851176
0.850671
0.850101
0.849473
0.848789
0.848056
0.847277
0.846457
0.845599
0.844707
0.843783
0.842831
0.841853
0.840851
0.839827
0.838781
0.837717
0.836633
0.835531
0.83441
0.83327
0.83211
0.830928
0.829721
0.828484
0.827214
0.825901
0.824535
0.823102
0.82158
0.81994
0.818138
0.816104
0.813727
0.810807
0.806949
0.801231
0.790842
0.760768
0.399632
0.000744203
1.1e-06
1.1e-06
1.1e-06
1.1e-06
1.1e-06
1.1e-06
1.1e-06
1.1e-06
1.1e-06
1.1e-06
1.1e-06
1.1e-06
1.1e-06
1.1e-06
1.1e-06
1.1e-06
1.1e-06
1.1e-06
1.1e-06
1.1e-06
1.1e-06
1.1e-06
1.1e-06
1.1e-06
1.1e-06
1.1e-06
1.1e-06
1.1e-06
1.1e-06
1.1e-06
1.1e-06
1.1e-06
1.1e-06
1.1e-06
1.1e-06
1.1e-06
1.1e-06
1.1e-06
1.1e-06
1.1e-06
1.1e-06
1.1e-06
1.1e-06
1.1e-06
1.1e-06
1.1e-06
1.1e-06
1.1e-06
1.1e-06
1.1e-06
1.1e-06
1.1e-06
1.1e-06
1.1e-06
1.1e-06
1.1e-06
1.1e-06
1.1e-06
1.1e-06
1.1e-06
1.1e-06
1.1e-06
1.1e-06
1.1e-06
1.1e-06
1.1e-06
1.1e-06
1.1e-06
1.1e-06
1.1e-06
1.1e-06
1.1e-06
1.1e-06
1.1e-06
1.1e-06
1.1e-06
1.1e-06
1.1e-06
1.1e-06
1.1e-06
1.1e-06
1.1e-06
1.1e-06
1.1e-06
1.1e-06
1.1e-06
1.1e-06
1.1e-06
1.1e-06
1.1e-06
1.1e-06
1.1e-06
1.1e-06
1.1e-06
1.1e-06
1.1e-06
1.1e-06
1.1e-06
1.1e-06
1.1e-06
1.1e-06
1.1e-06
1.1e-06
1.1e-06
1.1e-06
1.1e-06
1.1e-06
1.1e-06
1.1e-06
1.1e-06
1.1e-06
1.1e-06
1.1e-06
1.1e-06
1.1e-06
1.1e-06
1.1e-06
1.1e-06
1.1e-06
1.1e-06
1.1e-06
1.1e-06
1.1e-06
1.1e-06
1.1e-06
1.1e-06
0.852493
0.853123
0.853677
0.854145
0.854523
0.854803
0.854983
0.855061
0.855037
0.854914
0.854695
0.854385
0.853989
0.853513
0.852963
0.852344
0.851664
0.850928
0.850141
0.849308
0.848434
0.847524
0.846581
0.845608
0.844608
0.843584
0.842539
0.841474
0.840391
0.83929
0.838174
0.837042
0.835895
0.834732
0.833554
0.832358
0.831143
0.829906
0.828642
0.827347
0.826011
0.824624
0.82317
0.821629
0.819968
0.818141
0.816075
0.81365
0.810647
0.806631
0.800558
0.789079
0.751627
0.295683
0.000209795
1.1e-06
1.1e-06
1.1e-06
1.1e-06
1.1e-06
1.1e-06
1.1e-06
1.1e-06
1.1e-06
1.1e-06
1.1e-06
1.1e-06
1.1e-06
1.1e-06
1.1e-06
1.1e-06
1.1e-06
1.1e-06
1.1e-06
1.1e-06
1.1e-06
1.1e-06
1.1e-06
1.1e-06
1.1e-06
1.1e-06
1.1e-06
1.1e-06
1.1e-06
1.1e-06
1.1e-06
1.1e-06
1.1e-06
1.1e-06
1.1e-06
1.1e-06
1.1e-06
1.1e-06
1.1e-06
1.1e-06
1.1e-06
1.1e-06
1.1e-06
1.1e-06
1.1e-06
1.1e-06
1.1e-06
1.1e-06
1.1e-06
1.1e-06
1.1e-06
1.1e-06
1.1e-06
1.1e-06
1.1e-06
1.1e-06
1.1e-06
1.1e-06
1.1e-06
1.1e-06
1.1e-06
1.1e-06
1.1e-06
1.1e-06
1.1e-06
1.1e-06
1.1e-06
1.1e-06
1.1e-06
1.1e-06
1.1e-06
1.1e-06
1.1e-06
1.1e-06
1.1e-06
1.1e-06
1.1e-06
1.1e-06
1.1e-06
1.1e-06
1.1e-06
1.1e-06
1.1e-06
1.1e-06
1.1e-06
1.1e-06
1.1e-06
1.1e-06
1.1e-06
1.1e-06
1.1e-06
1.1e-06
1.1e-06
1.1e-06
1.1e-06
1.1e-06
1.1e-06
1.1e-06
1.1e-06
1.1e-06
1.1e-06
1.1e-06
1.1e-06
1.1e-06
1.1e-06
1.1e-06
1.1e-06
1.1e-06
1.1e-06
1.1e-06
1.1e-06
1.1e-06
1.1e-06
1.1e-06
1.1e-06
1.1e-06
1.1e-06
1.1e-06
1.1e-06
1.1e-06
1.1e-06
1.1e-06
1.1e-06
1.1e-06
1.1e-06
0.854554
0.855265
0.855892
0.856424
0.856854
0.857173
0.857379
0.857469
0.857445
0.85731
0.857068
0.856725
0.856289
0.855767
0.855166
0.854494
0.853758
0.852965
0.852121
0.851233
0.850304
0.849341
0.848346
0.847324
0.846277
0.845209
0.844121
0.843016
0.841895
0.84076
0.839612
0.838451
0.837277
0.836091
0.834893
0.833681
0.832454
0.831211
0.829947
0.828659
0.82734
0.825983
0.824575
0.823101
0.821539
0.819853
0.817995
0.815884
0.813386
0.810256
0.805987
0.799321
0.785924
0.732509
0.172839
4.23327e-05
1.1e-06
1.1e-06
1.1e-06
1.1e-06
1.1e-06
1.1e-06
1.1e-06
1.1e-06
1.1e-06
1.1e-06
1.1e-06
1.1e-06
1.1e-06
1.1e-06
1.1e-06
1.1e-06
1.1e-06
1.1e-06
1.1e-06
1.1e-06
1.1e-06
1.1e-06
1.1e-06
1.1e-06
1.1e-06
1.1e-06
1.1e-06
1.1e-06
1.1e-06
1.1e-06
1.1e-06
1.1e-06
1.1e-06
1.1e-06
1.1e-06
1.1e-06
1.1e-06
1.1e-06
1.1e-06
1.1e-06
1.1e-06
1.1e-06
1.1e-06
1.1e-06
1.1e-06
1.1e-06
1.1e-06
1.1e-06
1.1e-06
1.1e-06
1.1e-06
1.1e-06
1.1e-06
1.1e-06
1.1e-06
1.1e-06
1.1e-06
1.1e-06
1.1e-06
1.1e-06
1.1e-06
1.1e-06
1.1e-06
1.1e-06
1.1e-06
1.1e-06
1.1e-06
1.1e-06
1.1e-06
1.1e-06
1.1e-06
1.1e-06
1.1e-06
1.1e-06
1.1e-06
1.1e-06
1.1e-06
1.1e-06
1.1e-06
1.1e-06
1.1e-06
1.1e-06
1.1e-06
1.1e-06
1.1e-06
1.1e-06
1.1e-06
1.1e-06
1.1e-06
1.1e-06
1.1e-06
1.1e-06
1.1e-06
1.1e-06
1.1e-06
1.1e-06
1.1e-06
1.1e-06
1.1e-06
1.1e-06
1.1e-06
1.1e-06
1.1e-06
1.1e-06
1.1e-06
1.1e-06
1.1e-06
1.1e-06
1.1e-06
1.1e-06
1.1e-06
1.1e-06
1.1e-06
1.1e-06
1.1e-06
1.1e-06
1.1e-06
1.1e-06
1.1e-06
1.1e-06
1.1e-06
1.1e-06
1.1e-06
1.1e-06
0.856626
0.857436
0.858153
0.858764
0.859257
0.859623
0.859859
0.859962
0.859934
0.85978
0.859507
0.859122
0.858636
0.858058
0.857397
0.856662
0.855862
0.855006
0.8541
0.85315
0.852163
0.851142
0.850094
0.84902
0.847925
0.846812
0.845681
0.844536
0.843378
0.842208
0.841027
0.839837
0.838636
0.837426
0.836207
0.834977
0.833736
0.832483
0.831214
0.829927
0.828617
0.827278
0.825902
0.824477
0.822985
0.821404
0.819699
0.817814
0.815665
0.813103
0.809854
0.80533
0.79799
0.781971
0.69243
0.0619282
4.00378e-06
1.1e-06
1.1e-06
1.1e-06
1.1e-06
1.1e-06
1.1e-06
1.1e-06
1.1e-06
1.1e-06
1.1e-06
1.1e-06
1.1e-06
1.1e-06
1.1e-06
1.1e-06
1.1e-06
1.1e-06
1.1e-06
1.1e-06
1.1e-06
1.1e-06
1.1e-06
1.1e-06
1.1e-06
1.1e-06
1.1e-06
1.1e-06
1.1e-06
1.1e-06
1.1e-06
1.1e-06
1.1e-06
1.1e-06