/*--------------------------------*- C++ -*----------------------------------*\
  =========                 |
  \\      /  F ield         | OpenFOAM: The Open Source CFD Toolbox
   \\    /   O peration     | Website:  https://openfoam.org
    \\  /    A nd           | Version:  10
     \\/     M anipulation  |
\*---------------------------------------------------------------------------*/
FoamFile
{
    format      ascii;
    class       surfaceScalarField;
    location    "0.007";
    object      phi;
}
// * * * * * * * * * * * * * * * * * * * * * * * * * * * * * * * * * * * * * //

dimensions      [0 3 -1 0 0 0 0];

internalField   nonuniform List<scalar> 
7780
(
2.50002e-09
-2.19652e-14
2.5001e-09
-8.53004e-14
2.50024e-09
-1.39487e-13
2.50043e-09
-1.8927e-13
2.50067e-09
-2.36289e-13
2.50095e-09
-2.83443e-13
2.50128e-09
-3.30647e-13
2.50165e-09
-3.77655e-13
2.50208e-09
-4.2433e-13
2.50255e-09
-4.71035e-13
2.50307e-09
-5.17591e-13
2.50362e-09
-5.6438e-13
2.50424e-09
-6.11172e-13
2.50489e-09
-6.58433e-13
2.5056e-09
-7.05868e-13
2.50635e-09
-7.54044e-13
2.50716e-09
-8.02581e-13
2.508e-09
-8.52173e-13
2.50891e-09
-9.02337e-13
2.50985e-09
-9.53918e-13
2.51087e-09
-1.00631e-12
2.51192e-09
-1.06054e-12
2.51304e-09
-1.11586e-12
2.5142e-09
-1.1735e-12
2.51545e-09
-1.23254e-12
2.51673e-09
-1.29447e-12
2.5181e-09
-1.35817e-12
2.51951e-09
-1.42539e-12
2.52102e-09
-1.4948e-12
2.52256e-09
-1.56848e-12
2.52423e-09
-1.64482e-12
2.52593e-09
-1.72625e-12
2.52777e-09
-1.8109e-12
2.52964e-09
-1.90156e-12
2.53166e-09
-1.99605e-12
2.53373e-09
-2.09758e-12
2.53596e-09
-2.20362e-12
2.53825e-09
-2.31783e-12
2.54072e-09
-2.43728e-12
2.54325e-09
-2.56611e-12
2.54599e-09
-2.70097e-12
2.54879e-09
-2.84653e-12
2.55183e-09
-2.99892e-12
2.55495e-09
-3.16336e-12
2.55833e-09
-3.33547e-12
2.5618e-09
-3.52102e-12
2.56557e-09
-3.71501e-12
2.56943e-09
-3.92383e-12
2.57364e-09
-4.14179e-12
2.57795e-09
-4.37586e-12
2.58264e-09
-4.61963e-12
2.58744e-09
-4.88065e-12
2.59267e-09
-5.15166e-12
2.59803e-09
-5.4408e-12
2.60386e-09
-5.73989e-12
2.60983e-09
-6.05756e-12
2.61631e-09
-6.38465e-12
2.62294e-09
-6.73026e-12
2.63013e-09
-7.08409e-12
2.63749e-09
-7.45564e-12
2.64544e-09
-7.83339e-12
2.65356e-09
-8.22715e-12
2.6623e-09
-8.62411e-12
2.67123e-09
-9.03424e-12
2.68081e-09
-9.4434e-12
2.69055e-09
-9.86164e-12
2.70097e-09
-1.02735e-11
2.71155e-09
-1.06889e-11
2.72279e-09
-1.10912e-11
2.73417e-09
-1.14902e-11
2.7462e-09
-1.18681e-11
2.75832e-09
-1.22347e-11
2.77106e-09
-1.25713e-11
2.78385e-09
-1.28875e-11
2.79719e-09
-1.31645e-11
2.81051e-09
-1.34116e-11
2.8243e-09
-1.36106e-11
2.838e-09
-1.37706e-11
2.85205e-09
-1.38746e-11
2.86593e-09
-1.39316e-11
2.88003e-09
-1.39267e-11
2.89388e-09
-1.38689e-11
2.90779e-09
-1.37462e-11
2.92137e-09
-1.35673e-11
2.93485e-09
-1.33239e-11
2.94792e-09
-1.3024e-11
2.96072e-09
-1.26638e-11
2.97307e-09
-1.22496e-11
2.98496e-09
-1.17827e-11
2.99637e-09
-1.12672e-11
3.00716e-09
-1.07092e-11
3.01746e-09
-1.011e-11
3.027e-09
-9.48045e-12
3.03605e-09
-8.81828e-12
3.04421e-09
-8.1387e-12
3.05192e-09
-7.43538e-12
3.05863e-09
-6.72763e-12
3.06495e-09
-6.00449e-12
3.07019e-09
-5.28902e-12
3.07511e-09
-4.56542e-12
3.07888e-09
-3.8601e-12
3.08242e-09
-3.15245e-12
3.08477e-09
-2.47185e-12
3.08696e-09
-1.79316e-12
3.08796e-09
-1.14844e-12
3.08889e-09
-5.08352e-13
3.08861e-09
9.27203e-14
3.08836e-09
6.87527e-13
3.08691e-09
1.23963e-12
3.08557e-09
1.78549e-12
3.08305e-09
2.28856e-12
3.08071e-09
2.78833e-12
3.0772e-09
3.24646e-12
3.07396e-09
3.70393e-12
3.06956e-09
4.121e-12
3.06548e-09
4.53983e-12
3.06027e-09
4.91949e-12
3.05542e-09
5.30299e-12
3.04947e-09
5.64837e-12
3.04393e-09
5.99924e-12
3.0373e-09
6.31273e-12
3.03112e-09
6.63286e-12
3.02389e-09
6.91589e-12
3.01714e-09
7.20629e-12
3.00935e-09
7.45941e-12
3.00209e-09
7.72022e-12
2.99381e-09
7.94315e-12
2.9861e-09
8.17383e-12
2.97739e-09
8.36571e-12
2.9693e-09
8.56523e-12
2.96021e-09
8.72482e-12
2.9518e-09
8.89199e-12
2.94242e-09
9.01799e-12
2.93376e-09
9.15161e-12
2.92414e-09
9.2429e-12
2.9153e-09
9.34208e-12
2.90551e-09
9.39794e-12
2.89656e-09
9.46225e-12
2.88668e-09
9.48254e-12
2.87768e-09
9.51217e-12
2.86777e-09
9.49744e-12
2.8588e-09
9.49325e-12
2.84894e-09
9.44478e-12
2.84006e-09
9.40834e-12
2.8303e-09
9.32813e-12
2.82156e-09
9.26168e-12
2.81197e-09
9.1524e-12
2.80343e-09
9.05874e-12
2.79406e-09
8.92358e-12
2.78577e-09
8.80598e-12
2.77667e-09
8.64853e-12
2.76867e-09
8.51057e-12
2.75988e-09
8.33466e-12
2.7522e-09
8.18006e-12
2.74375e-09
7.98961e-12
2.73641e-09
7.82213e-12
2.72833e-09
7.62098e-12
2.72136e-09
7.44424e-12
2.71367e-09
7.23606e-12
2.70707e-09
7.05347e-12
2.69978e-09
6.84165e-12
2.69356e-09
6.65631e-12
2.68667e-09
6.44389e-12
2.68083e-09
6.25855e-12
2.67435e-09
6.04816e-12
2.66888e-09
5.86521e-12
2.6628e-09
5.65909e-12
2.6577e-09
5.48051e-12
2.65201e-09
5.2805e-12
2.64727e-09
5.10791e-12
2.64196e-09
4.91546e-12
2.63755e-09
4.75014e-12
2.6326e-09
4.56638e-12
2.62852e-09
4.40929e-12
2.62392e-09
4.23501e-12
2.62015e-09
4.08687e-12
2.61587e-09
3.92263e-12
2.61239e-09
3.7839e-12
2.60842e-09
3.63002e-12
2.60521e-09
3.50101e-12
2.60152e-09
3.35766e-12
2.59856e-09
3.2385e-12
2.59514e-09
3.10569e-12
2.59241e-09
2.99641e-12
2.58923e-09
2.87407e-12
2.58672e-09
2.77463e-12
2.58376e-09
2.66263e-12
2.58145e-09
2.57297e-12
2.57869e-09
2.47112e-12
2.57656e-09
2.39112e-12
2.57398e-09
2.29918e-12
2.572e-09
2.22872e-12
2.56957e-09
2.14646e-12
2.56774e-09
2.08538e-12
2.56546e-09
2.01245e-12
2.56376e-09
1.96032e-12
2.56174e-09
1.89692e-12
2.55983e-09
1.84869e-12
2.55803e-09
1.80608e-12
1.74496e-12
2.50002e-09
-4.44243e-14
2.50011e-09
-1.71774e-13
2.50025e-09
-2.80344e-13
2.50043e-09
-3.79883e-13
2.50067e-09
-4.73868e-13
2.50095e-09
-5.67947e-13
2.50129e-09
-6.62335e-13
2.50166e-09
-7.56145e-13
2.50209e-09
-8.49516e-13
2.50256e-09
-9.42696e-13
2.50308e-09
-1.03583e-12
2.50364e-09
-1.12911e-12
2.50425e-09
-1.2227e-12
2.5049e-09
-1.31682e-12
2.50561e-09
-1.41167e-12
2.50636e-09
-1.50751e-12
2.50717e-09
-1.60455e-12
2.50801e-09
-1.70312e-12
2.50892e-09
-1.80344e-12
2.50986e-09
-1.90588e-12
2.51087e-09
-2.01072e-12
2.51192e-09
-2.11838e-12
2.51304e-09
-2.22916e-12
2.5142e-09
-2.34357e-12
2.51544e-09
-2.46192e-12
2.51672e-09
-2.58485e-12
2.51808e-09
-2.71267e-12
2.51949e-09
-2.84612e-12
2.52099e-09
-2.98556e-12
2.52254e-09
-3.13183e-12
2.5242e-09
-3.28533e-12
2.5259e-09
-3.44704e-12
2.52772e-09
-3.61737e-12
2.5296e-09
-3.79744e-12
2.53161e-09
-3.98769e-12
2.53368e-09
-4.18939e-12
2.5359e-09
-4.40298e-12
2.53819e-09
-4.62989e-12
2.54065e-09
-4.87059e-12
2.54318e-09
-5.12661e-12
2.54591e-09
-5.39845e-12
2.54871e-09
-5.68777e-12
2.55174e-09
-5.99502e-12
2.55486e-09
-6.322e-12
2.55824e-09
-6.66911e-12
2.56171e-09
-7.03822e-12
2.56547e-09
-7.42962e-12
2.56934e-09
-7.84524e-12
2.57354e-09
-8.28521e-12
2.57786e-09
-8.75145e-12
2.58254e-09
-9.24385e-12
2.58736e-09
-9.76421e-12
2.59259e-09
-1.03121e-11
2.59797e-09
-1.08892e-11
2.60379e-09
-1.14944e-11
2.6098e-09
-1.21293e-11
2.61628e-09
-1.27921e-11
2.62296e-09
-1.34837e-11
2.63016e-09
-1.42019e-11
2.63757e-09
-1.49467e-11
2.64555e-09
-1.57149e-11
2.65374e-09
-1.65057e-11
2.66253e-09
-1.73149e-11
2.67156e-09
-1.81403e-11
2.6812e-09
-1.89765e-11
2.69107e-09
-1.98202e-11
2.70158e-09
-2.06644e-11
2.71231e-09
-2.15045e-11
2.72368e-09
-2.23322e-11
2.73524e-09
-2.31412e-11
2.74743e-09
-2.3922e-11
2.75979e-09
-2.46672e-11
2.77272e-09
-2.53664e-11
2.78577e-09
-2.60111e-11
2.79935e-09
-2.65906e-11
2.81297e-09
-2.7096e-11
2.82703e-09
-2.75173e-11
2.84106e-09
-2.78459e-11
2.85541e-09
-2.80732e-11
2.86965e-09
-2.8192e-11
2.88407e-09
-2.81959e-11
2.89829e-09
-2.80803e-11
2.91253e-09
-2.78419e-11
2.92648e-09
-2.7479e-11
2.94029e-09
-2.69921e-11
2.95371e-09
-2.63827e-11
2.96684e-09
-2.56553e-11
2.97951e-09
-2.48145e-11
2.99171e-09
-2.38681e-11
3.00341e-09
-2.28235e-11
3.01449e-09
-2.16912e-11
3.02504e-09
-2.04802e-11
3.03484e-09
-1.9203e-11
3.04411e-09
-1.78692e-11
3.05252e-09
-1.6492e-11
3.06042e-09
-1.50808e-11
3.06737e-09
-1.36487e-11
3.07385e-09
-1.2204e-11
3.07933e-09
-1.07589e-11
3.08439e-09
-9.31977e-12
3.0884e-09
-7.89782e-12
3.09208e-09
-6.49698e-12
3.09468e-09
-5.12701e-12
3.09703e-09
-3.78957e-12
3.09829e-09
-2.49305e-12
3.09938e-09
-1.23644e-12
3.09939e-09
-2.6686e-14
3.09931e-09
1.13824e-12
3.09817e-09
2.2523e-12
3.097e-09
3.32072e-12
3.0948e-09
4.34004e-12
3.09265e-09
5.31742e-12
3.08948e-09
6.24927e-12
3.08641e-09
7.14321e-12
3.08235e-09
7.99532e-12
3.07845e-09
8.81347e-12
3.07358e-09
9.59325e-12
3.06891e-09
1.03426e-11
3.06329e-09
1.10564e-11
3.05792e-09
1.17426e-11
3.05162e-09
1.23952e-11
3.04559e-09
1.30219e-11
3.03867e-09
1.36161e-11
3.03206e-09
1.41852e-11
3.02456e-09
1.47219e-11
3.01742e-09
1.52334e-11
3.00941e-09
1.57118e-11
3.00179e-09
1.6164e-11
2.99333e-09
1.65819e-11
2.9853e-09
1.69725e-11
2.97644e-09
1.7327e-11
2.96806e-09
1.76529e-11
2.95888e-09
1.79412e-11
2.95022e-09
1.81994e-11
2.94078e-09
1.84188e-11
2.93191e-09
1.86072e-11
2.92228e-09
1.8756e-11
2.91327e-09
1.88733e-11
2.90352e-09
1.89509e-11
2.89444e-09
1.89973e-11
2.88464e-09
1.90046e-11
2.87556e-09
1.89818e-11
2.86578e-09
1.89211e-11
2.85677e-09
1.88322e-11
2.84708e-09
1.87075e-11
2.8382e-09
1.85571e-11
2.82866e-09
1.83736e-11
2.81996e-09
1.81676e-11
2.81062e-09
1.79318e-11
2.80215e-09
1.76769e-11
2.79307e-09
1.73959e-11
2.78488e-09
1.70997e-11
2.77609e-09
1.6781e-11
2.76821e-09
1.64512e-11
2.75975e-09
1.61029e-11
2.7522e-09
1.57472e-11
2.7441e-09
1.53768e-11
2.7369e-09
1.50027e-11
2.72917e-09
1.46176e-11
2.72234e-09
1.42322e-11
2.715e-09
1.3839e-11
2.70854e-09
1.34486e-11
2.70159e-09
1.30534e-11
2.6955e-09
1.26636e-11
2.68895e-09
1.22715e-11
2.68323e-09
1.18871e-11
2.67706e-09
1.15026e-11
2.6717e-09
1.11275e-11
2.66591e-09
1.07542e-11
2.66089e-09
1.03917e-11
2.65547e-09
1.00323e-11
2.65079e-09
9.68484e-12
2.64572e-09
9.3417e-12
2.64136e-09
9.0111e-12
2.63662e-09
8.6857e-12
2.63257e-09
8.37332e-12
2.62815e-09
8.06673e-12
2.62438e-09
7.77343e-12
2.62026e-09
7.48633e-12
2.61676e-09
7.21261e-12
2.61292e-09
6.94533e-12
2.60967e-09
6.69139e-12
2.60608e-09
6.44402e-12
2.60307e-09
6.20986e-12
2.59973e-09
5.98228e-12
2.59693e-09
5.76776e-12
2.5938e-09
5.55979e-12
2.59121e-09
5.36466e-12
2.58828e-09
5.176e-12
2.58586e-09
4.99997e-12
2.58311e-09
4.8303e-12
2.58085e-09
4.67306e-12
2.57826e-09
4.52204e-12
2.57616e-09
4.38325e-12
2.57371e-09
4.2505e-12
2.57173e-09
4.12962e-12
2.56955e-09
4.01543e-12
2.56741e-09
3.90945e-12
2.56539e-09
3.82389e-12
3.69092e-12
2.50002e-09
-6.70863e-14
2.50011e-09
-2.57695e-13
2.50025e-09
-4.20676e-13
2.50043e-09
-5.70101e-13
2.50067e-09
-7.11109e-13
2.50095e-09
-8.52171e-13
2.50128e-09
-9.93623e-13
2.50166e-09
-1.13411e-12
2.50209e-09
-1.27384e-12
2.50255e-09
-1.41317e-12
2.50307e-09
-1.55233e-12
2.50363e-09
-1.69157e-12
2.50424e-09
-1.83115e-12
2.50489e-09
-1.97139e-12
2.5056e-09
-2.1126e-12
2.50634e-09
-2.25514e-12
2.50714e-09
-2.39937e-12
2.50797e-09
-2.54572e-12
2.50887e-09
-2.6946e-12
2.5098e-09
-2.84649e-12
2.5108e-09
-3.00189e-12
2.51183e-09
-3.16133e-12
2.51294e-09
-3.32539e-12
2.51408e-09
-3.49469e-12
2.5153e-09
-3.66988e-12
2.51655e-09
-3.85168e-12
2.51789e-09
-4.04082e-12
2.51927e-09
-4.23814e-12
2.52074e-09
-4.44447e-12
2.52225e-09
-4.66075e-12
2.52387e-09
-4.88794e-12
2.52553e-09
-5.12709e-12
2.52731e-09
-5.37927e-12
2.52914e-09
-5.64569e-12
2.5311e-09
-5.92751e-12
2.53311e-09
-6.22609e-12
2.53528e-09
-6.54272e-12
2.5375e-09
-6.87886e-12
2.53989e-09
-7.23595e-12
2.54235e-09
-7.61556e-12
2.545e-09
-8.01922e-12
2.54773e-09
-8.44864e-12
2.55068e-09
-8.9054e-12
2.55371e-09
-9.39128e-12
2.55698e-09
-9.90795e-12
2.56036e-09
-1.04572e-11
2.56402e-09
-1.10406e-11
2.56778e-09
-1.166e-11
2.57186e-09
-1.23169e-11
2.57607e-09
-1.30129e-11
2.58063e-09
-1.37494e-11
2.58534e-09
-1.45278e-11
2.59044e-09
-1.53491e-11
2.5957e-09
-1.62142e-11
2.60139e-09
-1.71237e-11
2.60728e-09
-1.80779e-11
2.61363e-09
-1.90765e-11
2.6202e-09
-2.01191e-11
2.62728e-09
-2.12045e-11
2.63459e-09
-2.23308e-11
2.64246e-09
-2.34959e-11
2.65057e-09
-2.46962e-11
2.65928e-09
-2.5928e-11
2.66825e-09
-2.7186e-11
2.67784e-09
-2.84644e-11
2.68769e-09
-2.97561e-11
2.69819e-09
-3.1053e-11
2.70895e-09
-3.23455e-11
2.72036e-09
-3.36237e-11
2.73202e-09
-3.48752e-11
2.74431e-09
-3.60882e-11
2.75681e-09
-3.7248e-11
2.76992e-09
-3.83413e-11
2.78319e-09
-3.93517e-11
2.79701e-09
-4.02651e-11
2.81092e-09
-4.10644e-11
2.82528e-09
-4.1736e-11
2.83966e-09
-4.22635e-11
2.85437e-09
-4.26352e-11
2.86899e-09
-4.28371e-11
2.8838e-09
-4.2861e-11
2.89842e-09
-4.26968e-11
2.91307e-09
-4.23415e-11
2.92741e-09
-4.17903e-11
2.9416e-09
-4.10457e-11
2.9554e-09
-4.0109e-11
2.96886e-09
-3.89884e-11
2.98184e-09
-3.76913e-11
2.99433e-09
-3.62307e-11
3.00627e-09
-3.46189e-11
3.01755e-09
-3.28725e-11
3.02826e-09
-3.10073e-11
3.03818e-09
-2.90418e-11
3.04753e-09
-2.69937e-11
3.05598e-09
-2.48816e-11
3.06387e-09
-2.27233e-11
3.0708e-09
-2.0536e-11
3.07721e-09
-1.83366e-11
3.0826e-09
-1.61396e-11
3.08755e-09
-1.39598e-11
3.09144e-09
-1.18085e-11
3.09497e-09
-9.6976e-12
3.09743e-09
-7.63517e-12
3.09962e-09
-5.63014e-12
3.10074e-09
-3.68755e-12
3.10167e-09
-1.81266e-12
3.10155e-09
-8.08058e-15
3.10133e-09
1.72195e-12
3.10008e-09
3.37853e-12
3.0988e-09
4.96237e-12
3.09652e-09
6.47699e-12
3.09428e-09
7.92462e-12
3.09106e-09
9.30892e-12
3.08793e-09
1.06327e-11
3.08385e-09
1.18993e-11
3.07991e-09
1.31118e-11
3.07504e-09
1.42728e-11
3.07035e-09
1.53855e-11
3.06476e-09
1.64513e-11
3.05938e-09
1.7473e-11
3.05311e-09
1.8451e-11
3.0471e-09
1.93878e-11
3.04022e-09
2.02824e-11
3.03361e-09
2.11366e-11
3.02617e-09
2.19487e-11
3.01903e-09
2.272e-11
3.01107e-09
2.34477e-11
3.00345e-09
2.41329e-11
2.99503e-09
2.47724e-11
2.98699e-09
2.53669e-11
2.97817e-09
2.5913e-11
2.96978e-09
2.64114e-11
2.96062e-09
2.68588e-11
2.95193e-09
2.72559e-11
2.9425e-09
2.75999e-11
2.9336e-09
2.78916e-11
2.92397e-09
2.81289e-11
2.91492e-09
2.83128e-11
2.90516e-09
2.84422e-11
2.89603e-09
2.8518e-11
2.88622e-09
2.85403e-11
2.87709e-09
2.85105e-11
2.8673e-09
2.84293e-11
2.85823e-09
2.82984e-11
2.84852e-09
2.81195e-11
2.83958e-09
2.78947e-11
2.83003e-09
2.76263e-11
2.82127e-09
2.73165e-11
2.81192e-09
2.69683e-11
2.80341e-09
2.65842e-11
2.79432e-09
2.61672e-11
2.78608e-09
2.57202e-11
2.77729e-09
2.52464e-11
2.76936e-09
2.47485e-11
2.76091e-09
2.42298e-11
2.75332e-09
2.3693e-11
2.74522e-09
2.31412e-11
2.73799e-09
2.2577e-11
2.73028e-09
2.20032e-11
2.72342e-09
2.14223e-11
2.7161e-09
2.08366e-11
2.70961e-09
2.02487e-11
2.70268e-09
1.96602e-11
2.69657e-09
1.90736e-11
2.69003e-09
1.84902e-11
2.68429e-09
1.79122e-11
2.67814e-09
1.73403e-11
2.67276e-09
1.67766e-11
2.66699e-09
1.62217e-11
2.66196e-09
1.56772e-11
2.65656e-09
1.51432e-11
2.65186e-09
1.46215e-11
2.64681e-09
1.41118e-11
2.64244e-09
1.36155e-11
2.63772e-09
1.31322e-11
2.63365e-09
1.26633e-11
2.62924e-09
1.2208e-11
2.62546e-09
1.17675e-11
2.62135e-09
1.13411e-11
2.61783e-09
1.09299e-11
2.614e-09
1.05328e-11
2.61073e-09
1.0151e-11
2.60716e-09
9.78331e-12
2.60413e-09
9.43087e-12
2.60079e-09
9.09247e-12
2.59797e-09
8.76914e-12
2.59486e-09
8.45966e-12
2.59224e-09
8.16506e-12
2.58932e-09
7.88409e-12
2.58688e-09
7.61777e-12
2.58414e-09
7.36483e-12
2.58186e-09
7.1263e-12
2.57928e-09
6.90091e-12
2.57715e-09
6.68966e-12
2.57471e-09
6.49127e-12
2.57272e-09
6.30664e-12
2.57053e-09
6.13517e-12
2.56839e-09
5.97394e-12
2.56637e-09
5.84312e-12
5.63501e-12
2.50002e-09
-8.98076e-14
2.50011e-09
-3.43559e-13
2.50025e-09
-5.60998e-13
2.50043e-09
-7.60434e-13
2.50067e-09
-9.48539e-13
2.50095e-09
-1.13657e-12
2.50129e-09
-1.32497e-12
2.50166e-09
-1.51187e-12
2.50209e-09
-1.69756e-12
2.50255e-09
-1.88248e-12
2.50307e-09
-2.06693e-12
2.50362e-09
-2.25123e-12
2.50423e-09
-2.43573e-12
2.50488e-09
-2.62082e-12
2.50557e-09
-2.80695e-12
2.50631e-09
-2.99455e-12
2.5071e-09
-3.18415e-12
2.50792e-09
-3.37627e-12
2.5088e-09
-3.5715e-12
2.50972e-09
-3.77045e-12
2.5107e-09
-3.97379e-12
2.51171e-09
-4.18224e-12
2.51279e-09
-4.39656e-12
2.5139e-09
-4.61757e-12
2.51509e-09
-4.84615e-12
2.51631e-09
-5.08324e-12
2.51761e-09
-5.32984e-12
2.51895e-09
-5.58703e-12
2.52037e-09
-5.85593e-12
2.52183e-09
-6.13779e-12
2.52339e-09
-6.43389e-12
2.52499e-09
-6.74562e-12
2.52671e-09
-7.07442e-12
2.52846e-09
-7.42187e-12
2.53035e-09
-7.78958e-12
2.53228e-09
-8.1793e-12
2.53435e-09
-8.59282e-12
2.53648e-09
-9.03206e-12
2.53877e-09
-9.499e-12
2.54112e-09
-9.99571e-12
2.54365e-09
-1.05243e-11
2.54626e-09
-1.10871e-11
2.54908e-09
-1.16863e-11
2.55197e-09
-1.23242e-11
2.5551e-09
-1.30033e-11
2.55833e-09
-1.37259e-11
2.56183e-09
-1.44944e-11
2.56543e-09
-1.53112e-11
2.56934e-09
-1.61787e-11
2.57338e-09
-1.7099e-11
2.57776e-09
-1.80743e-11
2.58228e-09
-1.91065e-11
2.58719e-09
-2.01975e-11
2.59226e-09
-2.13485e-11
2.59776e-09
-2.25609e-11
2.60345e-09
-2.38351e-11
2.60962e-09
-2.51717e-11
2.616e-09
-2.65698e-11
2.6229e-09
-2.80288e-11
2.63004e-09
-2.95465e-11
2.63776e-09
-3.11204e-11
2.64573e-09
-3.27463e-11
2.65431e-09
-3.44196e-11
2.66318e-09
-3.61336e-11
2.6727e-09
-3.78813e-11
2.68251e-09
-3.96526e-11
2.69301e-09
-4.14377e-11
2.7038e-09
-4.32231e-11
2.7153e-09
-4.49957e-11
2.72708e-09
-4.67382e-11
2.73955e-09
-4.84346e-11
2.75229e-09
-5.00639e-11
2.76569e-09
-5.16074e-11
2.7793e-09
-5.30413e-11
2.79352e-09
-5.43455e-11
2.80789e-09
-5.54944e-11
2.82277e-09
-5.64684e-11
2.8377e-09
-5.72425e-11
2.85301e-09
-5.77995e-11
2.86826e-09
-5.81178e-11
2.88373e-09
-5.81854e-11
2.89902e-09
-5.79866e-11
2.91434e-09
-5.75167e-11
2.92935e-09
-5.67684e-11
2.9442e-09
-5.57456e-11
2.9586e-09
-5.44503e-11
2.97264e-09
-5.28951e-11
2.98615e-09
-5.10913e-11
2.9991e-09
-4.90585e-11
3.01144e-09
-4.68158e-11
3.02307e-09
-4.43875e-11
3.03404e-09
-4.17979e-11
3.04416e-09
-3.90738e-11
3.05364e-09
-3.62417e-11
3.06215e-09
-3.33281e-11
3.07004e-09
-3.03596e-11
3.07691e-09
-2.73598e-11
3.08321e-09
-2.43533e-11
3.08845e-09
-2.13597e-11
3.0932e-09
-1.84001e-11
3.09686e-09
-1.54889e-11
3.10014e-09
-1.26429e-11
3.10233e-09
-9.8714e-12
3.10424e-09
-7.18694e-12
3.10507e-09
-4.59421e-12
3.10572e-09
-2.10008e-12
3.10531e-09
2.93584e-13
3.10482e-09
2.58125e-12
3.1033e-09
4.76791e-12
3.10177e-09
6.8552e-12
3.09925e-09
8.84959e-12
3.09678e-09
1.07536e-11
3.09335e-09
1.25737e-11
3.09003e-09
1.43134e-11
3.08577e-09
1.59786e-11
3.08166e-09
1.75731e-11
3.07664e-09
1.91017e-11
3.0718e-09
2.05681e-11
3.06607e-09
2.19754e-11
3.06056e-09
2.33268e-11
3.05418e-09
2.46236e-11
3.04804e-09
2.58683e-11
3.04105e-09
2.70603e-11
3.03432e-09
2.82014e-11
3.02676e-09
2.92893e-11
3.0195e-09
3.0325e-11
3.01142e-09
3.13052e-11
3.00367e-09
3.22301e-11
2.99512e-09
3.30957e-11
2.98693e-09
3.3902e-11
2.97797e-09
3.46447e-11
2.96942e-09
3.53235e-11
2.9601e-09
3.59345e-11
2.95125e-09
3.64773e-11
2.94166e-09
3.6949e-11
2.93258e-09
3.73491e-11
2.92278e-09
3.76759e-11
2.91355e-09
3.79292e-11
2.90362e-09
3.81086e-11
2.89432e-09
3.82141e-11
2.88434e-09
3.82469e-11
2.87505e-09
3.82076e-11
2.86509e-09
3.80985e-11
2.85587e-09
3.79207e-11
2.84602e-09
3.7678e-11
2.83695e-09
3.73716e-11
2.82726e-09
3.70065e-11
2.81839e-09
3.65842e-11
2.80894e-09
3.61104e-11
2.80033e-09
3.55871e-11
2.79115e-09
3.50203e-11
2.78284e-09
3.44122e-11
2.774e-09
3.37688e-11
2.76602e-09
3.30926e-11
2.75753e-09
3.23895e-11
2.74992e-09
3.16619e-11
2.74182e-09
3.09153e-11
2.73458e-09
3.01521e-11
2.72688e-09
2.93773e-11
2.72004e-09
2.85932e-11
2.71274e-09
2.78041e-11
2.70629e-09
2.7012e-11
2.69941e-09
2.62208e-11
2.69334e-09
2.54323e-11
2.68687e-09
2.46494e-11
2.68118e-09
2.38739e-11
2.67511e-09
2.3108e-11
2.6698e-09
2.23532e-11
2.6641e-09
2.16112e-11
2.65915e-09
2.08833e-11
2.65383e-09
2.01706e-11
2.64921e-09
1.94742e-11
2.64425e-09
1.87947e-11
2.63996e-09
1.81332e-11
2.63533e-09
1.74898e-11
2.63134e-09
1.68654e-11
2.62703e-09
1.62598e-11
2.62333e-09
1.56739e-11
2.61931e-09
1.51072e-11
2.61588e-09
1.45605e-11
2.61213e-09
1.40331e-11
2.60895e-09
1.35257e-11
2.60546e-09
1.30376e-11
2.60251e-09
1.25694e-11
2.59926e-09
1.21202e-11
2.59652e-09
1.16907e-11
2.59348e-09
1.12799e-11
2.59094e-09
1.08885e-11
2.5881e-09
1.05155e-11
2.58573e-09
1.01616e-11
2.58307e-09
9.82564e-12
2.58086e-09
9.50843e-12
2.57835e-09
9.20891e-12
2.57629e-09
8.92773e-12
2.57392e-09
8.66387e-12
2.57199e-09
8.41782e-12
2.56987e-09
8.18942e-12
2.5678e-09
7.9745e-12
2.56583e-09
7.79998e-12
7.52133e-12
2.50002e-09
-1.12693e-13
2.50011e-09
-4.29677e-13
2.50025e-09
-7.01794e-13
2.50044e-09
-9.5147e-13
2.50068e-09
-1.18685e-12
2.50096e-09
-1.42192e-12
2.50129e-09
-1.65716e-12
2.50167e-09
-1.89022e-12
2.50209e-09
-2.12138e-12
2.50256e-09
-2.35121e-12
2.50307e-09
-2.58002e-12
2.50363e-09
-2.80822e-12
2.50423e-09
-3.03623e-12
2.50487e-09
-3.26453e-12
2.50556e-09
-3.49365e-12
2.50629e-09
-3.72417e-12
2.50706e-09
-3.9567e-12
2.50787e-09
-4.19191e-12
2.50874e-09
-4.43054e-12
2.50963e-09
-4.67335e-12
2.51059e-09
-4.92117e-12
2.51157e-09
-5.1749e-12
2.51262e-09
-5.43548e-12
2.5137e-09
-5.70394e-12
2.51484e-09
-5.98137e-12
2.51602e-09
-6.26894e-12
2.51727e-09
-6.56788e-12
2.51855e-09
-6.87955e-12
2.51991e-09
-7.20535e-12
2.5213e-09
-7.54681e-12
2.52279e-09
-7.90554e-12
2.52431e-09
-8.28327e-12
2.52594e-09
-8.6818e-12
2.5276e-09
-9.10311e-12
2.52938e-09
-9.54919e-12
2.5312e-09
-1.00223e-11
2.53316e-09
-1.05246e-11
2.53516e-09
-1.10586e-11
2.53731e-09
-1.16267e-11
2.53952e-09
-1.22316e-11
2.5419e-09
-1.28761e-11
2.54435e-09
-1.35629e-11
2.54699e-09
-1.4295e-11
2.5497e-09
-1.50754e-11
2.55265e-09
-1.59073e-11
2.55567e-09
-1.67937e-11
2.55896e-09
-1.77379e-11
2.56234e-09
-1.8743e-11
2.56602e-09
-1.98122e-11
2.56982e-09
-2.09484e-11
2.57396e-09
-2.21549e-11
2.57823e-09
-2.34343e-11
2.58288e-09
-2.47893e-11
2.58769e-09
-2.62221e-11
2.59293e-09
-2.77349e-11
2.59836e-09
-2.93287e-11
2.60426e-09
-3.10049e-11
2.61039e-09
-3.27633e-11
2.61704e-09
-3.46037e-11
2.62394e-09
-3.65241e-11
2.63143e-09
-3.85223e-11
2.6392e-09
-4.05938e-11
2.64761e-09
-4.27337e-11
2.65633e-09
-4.49344e-11
2.66574e-09
-4.71876e-11
2.67548e-09
-4.94815e-11
2.68596e-09
-5.18038e-11
2.69679e-09
-5.4138e-11
2.70838e-09
-5.64674e-11
2.72032e-09
-5.87699e-11
2.73304e-09
-6.1024e-11
2.74609e-09
-6.32024e-11
2.75989e-09
-6.52793e-11
2.77399e-09
-6.72225e-11
2.78879e-09
-6.90034e-11
2.8038e-09
-7.05867e-11
2.81942e-09
-7.19434e-11
2.83516e-09
-7.30382e-11
2.85135e-09
-7.38452e-11
2.86752e-09
-7.43331e-11
2.88397e-09
-7.44832e-11
2.90024e-09
-7.42729e-11
2.91657e-09
-7.36942e-11
2.93256e-09
-7.27368e-11
2.94836e-09
-7.14058e-11
2.96367e-09
-6.9705e-11
2.97857e-09
-6.76524e-11
2.99284e-09
-6.52655e-11
3.00649e-09
-6.25729e-11
3.01942e-09
-5.96027e-11
3.03153e-09
-5.63906e-11
3.0429e-09
-5.29715e-11
3.0533e-09
-4.93835e-11
3.06295e-09
-4.56643e-11
3.07154e-09
-4.18509e-11
3.07943e-09
-3.79798e-11
3.0862e-09
-3.40835e-11
3.09234e-09
-3.01948e-11
3.09733e-09
-2.63396e-11
3.1018e-09
-2.25453e-11
3.10512e-09
-1.88302e-11
3.10804e-09
-1.52151e-11
3.10983e-09
-1.17109e-11
3.11133e-09
-8.33227e-12
3.11174e-09
-5.08352e-12
3.11198e-09
-1.97135e-12
3.11116e-09
1.00234e-12
3.11028e-09
3.83374e-12
3.10838e-09
6.5328e-12
3.10649e-09
9.10354e-12
3.10363e-09
1.15556e-11
3.10085e-09
1.3893e-11
3.09713e-09
1.61255e-11
3.09354e-09
1.82583e-11
3.08903e-09
2.03001e-11
3.08469e-09
2.22564e-11
3.07946e-09
2.41342e-11
3.07443e-09
2.59387e-11
3.06852e-09
2.76742e-11
3.06283e-09
2.93453e-11
3.05629e-09
3.09536e-11
3.04998e-09
3.25024e-11
3.04284e-09
3.39905e-11
3.03594e-09
3.542e-11
3.02823e-09
3.67876e-11
3.02079e-09
3.80941e-11
3.01253e-09
3.93345e-11
3.00459e-09
4.05086e-11
2.99585e-09
4.16106e-11
2.98746e-09
4.26397e-11
2.97828e-09
4.35899e-11
2.9695e-09
4.446e-11
2.95995e-09
4.52446e-11
2.95086e-09
4.59426e-11
2.94101e-09
4.65496e-11
2.93168e-09
4.70648e-11
2.92162e-09
4.74854e-11
2.91213e-09
4.78109e-11
2.90194e-09
4.80407e-11
2.89238e-09
4.81746e-11
2.88214e-09
4.82142e-11
2.87259e-09
4.81598e-11
2.8624e-09
4.80149e-11
2.85295e-09
4.77808e-11
2.84287e-09
4.74625e-11
2.83359e-09
4.70618e-11
2.8237e-09
4.65853e-11
2.81466e-09
4.60353e-11
2.80503e-09
4.54192e-11
2.79628e-09
4.47399e-11
2.78697e-09
4.40052e-11
2.77855e-09
4.32183e-11
2.76961e-09
4.23872e-11
2.76156e-09
4.1515e-11
2.753e-09
4.06098e-11
2.74535e-09
3.96744e-11
2.73722e-09
3.87164e-11
2.72997e-09
3.77386e-11
2.72227e-09
3.67477e-11
2.71544e-09
3.57464e-11
2.70818e-09
3.47406e-11
2.70177e-09
3.37326e-11
2.69494e-09
3.27273e-11
2.68894e-09
3.17269e-11
2.68253e-09
3.07353e-11
2.67693e-09
2.97544e-11
2.67094e-09
2.87871e-11
2.66572e-09
2.78352e-11
2.66013e-09
2.69006e-11
2.65527e-09
2.5985e-11
2.65006e-09
2.50896e-11
2.64556e-09
2.42157e-11
2.6407e-09
2.3364e-11
2.63653e-09
2.25356e-11
2.63201e-09
2.17307e-11
2.62814e-09
2.09502e-11
2.62395e-09
2.0194e-11
2.62036e-09
1.94628e-11
2.61646e-09
1.87561e-11
2.61314e-09
1.80748e-11
2.60952e-09
1.74179e-11
2.60645e-09
1.67863e-11
2.60307e-09
1.6179e-11
2.60023e-09
1.55966e-11
2.59709e-09
1.50382e-11
2.59446e-09
1.45043e-11
2.59153e-09
1.39939e-11
2.58909e-09
1.35076e-11
2.58635e-09
1.30443e-11
2.58409e-09
1.26047e-11
2.58152e-09
1.21876e-11
2.57941e-09
1.17936e-11
2.57699e-09
1.14217e-11
2.57503e-09
1.10726e-11
2.57275e-09
1.07449e-11
2.57091e-09
1.04394e-11
2.56888e-09
1.01556e-11
2.56689e-09
9.88868e-12
2.56501e-09
9.67164e-12
9.32514e-12
2.50002e-09
-1.36043e-13
2.50011e-09
-5.16658e-13
2.50025e-09
-8.43961e-13
2.50044e-09
-1.14439e-12
2.50068e-09
-1.42747e-12
2.50097e-09
-1.70984e-12
2.5013e-09
-1.99197e-12
2.50168e-09
-2.27098e-12
2.50211e-09
-2.54714e-12
2.50258e-09
-2.8211e-12
2.50309e-09
-3.09321e-12
2.50364e-09
-3.36393e-12
2.50425e-09
-3.63373e-12
2.50488e-09
-3.90321e-12
2.50556e-09
-4.17296e-12
2.50628e-09
-4.4437e-12
2.50704e-09
-4.71614e-12
2.50784e-09
-4.99111e-12
2.50868e-09
-5.26947e-12
2.50955e-09
-5.55213e-12
2.51048e-09
-5.84011e-12
2.51143e-09
-6.13446e-12
2.51244e-09
-6.43631e-12
2.51347e-09
-6.7469e-12
2.51457e-09
-7.06751e-12
2.51569e-09
-7.39955e-12
2.51688e-09
-7.74449e-12
2.51809e-09
-8.10392e-12
2.51938e-09
-8.47954e-12
2.52069e-09
-8.87316e-12
2.52209e-09
-9.28669e-12
2.52351e-09
-9.72221e-12
2.52503e-09
-1.01819e-11
2.52658e-09
-1.0668e-11
2.52823e-09
-1.11831e-11
2.52992e-09
-1.17298e-11
2.53173e-09
-1.23107e-11
2.53357e-09
-1.29288e-11
2.53556e-09
-1.35872e-11
2.53759e-09
-1.4289e-11
2.53978e-09
-1.50376e-11
2.54202e-09
-1.58366e-11
2.54445e-09
-1.66894e-11
2.54694e-09
-1.76e-11
2.54964e-09
-1.85721e-11
2.55242e-09
-1.96097e-11
2.55544e-09
-2.0717e-11
2.55855e-09
-2.1898e-11
2.56194e-09
-2.31568e-11
2.56544e-09
-2.44975e-11
2.56926e-09
-2.59244e-11
2.57321e-09
-2.7441e-11
2.57753e-09
-2.90514e-11
2.58201e-09
-3.07588e-11
2.5869e-09
-3.25666e-11
2.59198e-09
-3.44771e-11
2.59754e-09
-3.64928e-11
2.60332e-09
-3.86146e-11
2.60964e-09
-4.08434e-11
2.61622e-09
-4.3178e-11
2.6234e-09
-4.5617e-11
2.63089e-09
-4.81566e-11
2.63904e-09
-5.07921e-11
2.64754e-09
-5.35157e-11
2.65677e-09
-5.63187e-11
2.66639e-09
-5.9188e-11
2.67681e-09
-6.21097e-11
2.68765e-09
-6.50645e-11
2.69933e-09
-6.80321e-11
2.71145e-09
-7.09857e-11
2.72446e-09
-7.38982e-11
2.73789e-09
-7.67344e-11
2.75221e-09
-7.94607e-11
2.76693e-09
-8.2034e-11
2.78248e-09
-8.44153e-11
2.79836e-09
-8.65556e-11
2.81498e-09
-8.84138e-11
2.83181e-09
-8.99395e-11
2.84921e-09
-9.10944e-11
2.86665e-09
-9.1833e-11
2.88445e-09
-9.21265e-11
2.90209e-09
-9.19416e-11
2.91982e-09
-9.12652e-11
2.93717e-09
-9.00824e-11
2.95432e-09
-8.84001e-11
2.9709e-09
-8.62248e-11
2.98698e-09
-8.35828e-11
3.00231e-09
-8.05005e-11
3.0169e-09
-7.70198e-11
3.03062e-09
-7.31821e-11
3.0434e-09
-6.90386e-11
3.05526e-09
-6.46394e-11
3.06602e-09
-6.00379e-11
3.07588e-09
-5.52868e-11
3.08454e-09
-5.04363e-11
3.09238e-09
-4.55362e-11
3.09897e-09
-4.0629e-11
3.10485e-09
-3.5758e-11
3.10948e-09
-3.09556e-11
3.11353e-09
-2.62565e-11
3.11636e-09
-2.1682e-11
3.11877e-09
-1.72573e-11
3.11999e-09
-1.29931e-11
3.12094e-09
-8.9064e-12
3.12076e-09
-4.99867e-12
3.12045e-09
-1.27644e-12
3.11907e-09
2.25997e-12
3.11767e-09
5.6123e-12
3.11526e-09
8.79715e-12
3.11291e-09
1.1821e-11
3.1096e-09
1.46981e-11
3.10642e-09
1.74351e-11
3.10231e-09
2.00459e-11
3.09838e-09
2.25387e-11
3.09356e-09
2.49256e-11
3.08894e-09
2.72149e-11
3.08345e-09
2.9416e-11
3.07818e-09
3.15366e-11
3.07205e-09
3.35823e-11
3.06616e-09
3.55595e-11
3.05942e-09
3.74699e-11
3.05292e-09
3.93179e-11
3.04559e-09
4.11014e-11
3.0385e-09
4.2823e-11
3.03059e-09
4.4477e-11
3.02293e-09
4.60644e-11
3.01447e-09
4.75772e-11
3.00629e-09
4.90151e-11
2.9973e-09
5.03689e-11
2.98864e-09
5.16374e-11
2.97919e-09
5.28114e-11
2.97012e-09
5.38889e-11
2.96027e-09
5.48621e-11
2.95085e-09
5.57288e-11
2.94068e-09
5.64828e-11
2.93101e-09
5.71223e-11
2.92061e-09
5.76436e-11
2.91077e-09
5.80454e-11
2.90023e-09
5.83267e-11
2.89032e-09
5.8487e-11
2.87974e-09
5.85283e-11
2.86987e-09
5.84509e-11
2.85934e-09
5.82597e-11
2.84959e-09
5.79558e-11
2.83921e-09
5.75464e-11
2.82965e-09
5.70336e-11
2.81951e-09
5.64262e-11
2.81023e-09
5.57272e-11
2.80038e-09
5.49467e-11
2.79144e-09
5.4088e-11
2.78195e-09
5.31619e-11
2.77339e-09
5.21722e-11
2.76431e-09
5.11295e-11
2.75617e-09
5.00378e-11
2.74753e-09
4.89073e-11
2.73983e-09
4.77419e-11
2.73165e-09
4.6551e-11
2.72439e-09
4.53383e-11
2.71669e-09
4.41121e-11
2.70989e-09
4.28759e-11
2.70265e-09
4.16367e-11
2.6963e-09
4.03975e-11
2.68953e-09
3.91643e-11
2.68361e-09
3.79397e-11
2.67729e-09
3.67282e-11
2.67179e-09
3.55321e-11
2.6659e-09
3.43548e-11
2.6608e-09
3.31984e-11
2.65533e-09
3.2065e-11
2.65061e-09
3.09565e-11
2.64552e-09
2.98741e-11
2.64115e-09
2.88194e-11
2.63644e-09
2.77928e-11
2.6324e-09
2.67958e-11
2.62803e-09
2.58282e-11
2.6243e-09
2.48912e-11
2.62025e-09
2.39842e-11
2.6168e-09
2.31083e-11
2.61305e-09
2.22624e-11
2.60987e-09
2.14476e-11
2.60638e-09
2.06627e-11
2.60345e-09
1.99086e-11
2.60021e-09
1.91839e-11
2.5975e-09
1.84894e-11
2.59449e-09
1.78238e-11
2.59199e-09
1.71878e-11
2.58919e-09
1.658e-11
2.58688e-09
1.60012e-11
2.58426e-09
1.54499e-11
2.58212e-09
1.49269e-11
2.57967e-09
1.44308e-11
2.57767e-09
1.39625e-11
2.57538e-09
1.35204e-11
2.57352e-09
1.31054e-11
2.57135e-09
1.27161e-11
2.56962e-09
1.23531e-11
2.56769e-09
1.20161e-11
2.56581e-09
1.16991e-11
2.56404e-09
1.14414e-11
1.10306e-11
2.50002e-09
-1.59991e-13
2.50011e-09
-6.04946e-13
2.50026e-09
-9.88468e-13
2.50045e-09
-1.34063e-12
2.5007e-09
-1.67226e-12
2.50099e-09
-2.00252e-12
2.50133e-09
-2.33186e-12
2.50171e-09
-2.65679e-12
2.50214e-09
-2.97757e-12