/*--------------------------------*- C++ -*----------------------------------*\
  =========                 |
  \\      /  F ield         | OpenFOAM: The Open Source CFD Toolbox
   \\    /   O peration     | Website:  https://openfoam.org
    \\  /    A nd           | Version:  10
     \\/     M anipulation  |
\*---------------------------------------------------------------------------*/
FoamFile
{
    format      ascii;
    class       volSymmTensorField;
    location    "0.071";
    object      UPrime2Mean;
}
// * * * * * * * * * * * * * * * * * * * * * * * * * * * * * * * * * * * * * //

dimensions      [0 2 -2 0 0 0 0];

internalField   nonuniform List<symmTensor> 
12225
(
(0.0356491 0.000436645 0 0.00218332 0 0)
(0.0169823 -0.000257475 0 0.00101902 0 0)
(0.0194083 -0.000518285 0 0.00071209 0 0)
(0.0210605 -0.000636245 0 0.000572944 0 0)
(0.0265671 -0.000890981 0 0.000495254 0 0)
(0.037836 -0.00131236 0 0.00045312 0 0)
(0.0563014 -0.00199286 0 0.000436867 0 0)
(0.0823025 -0.00267787 0 0.000406219 0 0)
(0.120495 -0.00423199 0 0.000464982 0 0)
(0.170521 -0.00483153 0 0.000423229 0 0)
(0.24738 -0.0093284 0 0.000643247 0 0)
(0.341983 -0.00822194 0 0.00052726 0 0)
(0.502851 -0.0233166 0 0.00142657 0 0)
(0.691164 -0.0129796 0 0.00107562 0 0)
(1.05418 -0.0693218 0 0.00567218 0 0)
(1.50305 -0.0159959 0 0.00477039 0 0)
(2.44372 -0.269748 0 0.0417338 0 0)
(3.99753 -0.0734204 0 0.0205041 0 0)
(0.0344392 0.00100185 0 0.00284629 0 0)
(0.0160652 0.000629755 0 0.00136562 0 0)
(0.0151721 0.000309882 0 0.000939106 0 0)
(0.0137935 0.000263216 0 0.000801533 0 0)
(0.0136103 0.000235822 0 0.000756737 0 0)
(0.0145435 -3.09168e-05 0 0.000776008 0 0)
(0.0167227 -0.000516168 0 0.000806443 0 0)
(0.021111 -0.00151238 0 0.000946628 0 0)
(0.028573 -0.0026731 0 0.00103293 0 0)
(0.0418079 -0.00522969 0 0.00147476 0 0)
(0.0612531 -0.00756029 0 0.00165827 0 0)
(0.0953972 -0.0143251 0 0.00292071 0 0)
(0.141552 -0.019226 0 0.00340507 0 0)
(0.22886 -0.0385574 0 0.00738274 0 0)
(0.338388 -0.0513032 0 0.00922748 0 0)
(0.580527 -0.114996 0 0.0244985 0 0)
(0.859075 -0.17689 0 0.0383566 0 0)
(1.5445 -0.456456 0 0.151031 0 0)
(0.0384221 0.00109152 0 0.0033839 0 0)
(0.0175194 0.000775464 0 0.0016862 0 0)
(0.0158135 0.000314093 0 0.00114874 0 0)
(0.0140948 -4.15661e-05 0 0.00100366 0 0)
(0.0139455 -0.000358821 0 0.000989017 0 0)
(0.0151015 -0.000759622 0 0.00104135 0 0)
(0.0174593 -0.00146891 0 0.001194 0 0)
(0.021315 -0.00251224 0 0.0013893 0 0)
(0.0272871 -0.00425088 0 0.00185478 0 0)
(0.0361468 -0.00638699 0 0.00230636 0 0)
(0.0493408 -0.0104837 0 0.00355746 0 0)
(0.0686486 -0.0150525 0 0.00462405 0 0)
(0.0976917 -0.0255713 0 0.0082624 0 0)
(0.140705 -0.0364871 0 0.011316 0 0)
(0.206785 -0.0662322 0 0.0237199 0 0)
(0.305848 -0.101099 0 0.0369952 0 0)
(0.449623 -0.196256 0 0.0926992 0 0)
(0.63997 -0.353752 0 0.21041 0 0)
(0.0348893 -1.42015e-06 0 0.00346838 0 0)
(0.0152414 -4.85192e-05 0 0.00194658 0 0)
(0.0143041 -0.000333507 0 0.0013525 0 0)
(0.012849 -0.000590155 0 0.00118874 0 0)
(0.0125344 -0.000931058 0 0.00120542 0 0)
(0.0134247 -0.00149648 0 0.00134255 0 0)
(0.015625 -0.00235132 0 0.00157614 0 0)
(0.0194414 -0.0037035 0 0.00200409 0 0)
(0.0252686 -0.00559595 0 0.00258675 0 0)
(0.0340114 -0.00861267 0 0.00362961 0 0)
(0.0465684 -0.0128003 0 0.00504718 0 0)
(0.0651362 -0.0197501 0 0.00765367 0 0)
(0.0914833 -0.0297566 0 0.0115443 0 0)
(0.130084 -0.046797 0 0.0190328 0 0)
(0.184558 -0.0733898 0 0.0321207 0 0)
(0.260122 -0.119065 0 0.0589682 0 0)
(0.358298 -0.198153 0 0.117668 0 0)
(0.46107 -0.314947 0 0.232384 0 0)
(0.0385383 0.000337443 0 0.00424518 0 0)
(0.0170843 0.000150386 0 0.00249134 0 0)
(0.015847 -0.000254237 0 0.00174634 0 0)
(0.0142476 -0.0005731 0 0.00159897 0 0)
(0.0136164 -0.000936977 0 0.00169138 0 0)
(0.0140945 -0.00159455 0 0.00193983 0 0)
(0.0158831 -0.00270404 0 0.00236057 0 0)
(0.0193136 -0.00435507 0 0.00297239 0 0)
(0.0248701 -0.00680837 0 0.00396482 0 0)
(0.0332365 -0.0103191 0 0.00539924 0 0)
(0.0454416 -0.0156806 0 0.00775414 0 0)
(0.0628886 -0.0235188 0 0.0112987 0 0)
(0.0876083 -0.0357946 0 0.017379 0 0)
(0.121799 -0.0543565 0 0.0274196 0 0)
(0.168609 -0.08374 0 0.0455583 0 0)
(0.228148 -0.13008 0 0.0797223 0 0)
(0.299541 -0.19937 0 0.141896 0 0)
(0.364532 -0.29779 0 0.266192 0 0)
(0.0360643 4.70467e-05 0 0.00463994 0 0)
(0.0167869 0.000268104 0 0.00273605 0 0)
(0.0160863 -0.000394013 0 0.00188255 0 0)
(0.0140993 -0.000716188 0 0.00169854 0 0)
(0.0132463 -0.00106023 0 0.00182647 0 0)
(0.0137144 -0.0017758 0 0.00219887 0 0)
(0.0153845 -0.00301462 0 0.00281075 0 0)
(0.0184195 -0.00488091 0 0.00373838 0 0)
(0.0232894 -0.00758192 0 0.00512198 0 0)
(0.0306378 -0.011511 0 0.00720973 0 0)
(0.0413789 -0.0173314 0 0.0104105 0 0)
(0.0565244 -0.0259698 0 0.0153946 0 0)
(0.0776729 -0.0389974 0 0.0234225 0 0)
(0.105984 -0.0584444 0 0.0366343 0 0)
(0.143304 -0.0878357 0 0.0591771 0 0)
(0.1879 -0.130768 0 0.0982407 0 0)
(0.237392 -0.191094 0 0.165741 0 0)
(0.27869 -0.26695 0 0.28067 0 0)
(0.0332277 0.000474345 0 0.00498857 0 0)
(0.0151546 0.000129511 0 0.00358434 0 0)
(0.0153132 -0.000156884 0 0.00275382 0 0)
(0.01401 -0.000527112 0 0.00259082 0 0)
(0.0137381 -0.00115835 0 0.0028057 0 0)
(0.0147461 -0.00221694 0 0.00331506 0 0)
(0.0169689 -0.00384566 0 0.00414635 0 0)
(0.0204866 -0.00619218 0 0.00540369 0 0)
(0.0256264 -0.00949756 0 0.00728356 0 0)
(0.0328852 -0.0141478 0 0.0101013 0 0)
(0.0430465 -0.0207843 0 0.0143392 0 0)
(0.0569178 -0.0303682 0 0.0208836 0 0)
(0.0756475 -0.0442616 0 0.031071 0 0)
(0.0996995 -0.0643661 0 0.0474975 0 0)
(0.12971 -0.092947 0 0.0738164 0 0)
(0.163215 -0.132399 0 0.117227 0 0)
(0.197633 -0.183359 0 0.185599 0 0)
(0.223728 -0.241985 0 0.291844 0 0)
(0.0363137 0.000706467 0 0.00487412 0 0)
(0.0148431 0.000374848 0 0.00309204 0 0)
(0.0146107 -0.000131249 0 0.00239333 0 0)
(0.013916 -0.000577353 0 0.0024245 0 0)
(0.0139446 -0.00117086 0 0.0028168 0 0)
(0.0147069 -0.00218017 0 0.00354511 0 0)
(0.0162876 -0.00377954 0 0.00466957 0 0)
(0.0189215 -0.00610114 0 0.00632531 0 0)
(0.0230083 -0.00940085 0 0.00875209 0 0)
(0.0290197 -0.0141094 0 0.0123427 0 0)
(0.0375336 -0.0208724 0 0.017687 0 0)
(0.0490461 -0.0305479 0 0.0257911 0 0)
(0.0641621 -0.0442694 0 0.0381199 0 0)
(0.0828862 -0.0634065 0 0.0572668 0 0)
(0.105084 -0.0893576 0 0.0866528 0 0)
(0.12853 -0.123067 0 0.132215 0 0)
(0.150933 -0.163699 0 0.19948 0 0)
(0.166516 -0.207215 0 0.29707 0 0)
(0.0400777 0.000244967 0 0.00538105 0 0)
(0.0193199 -0.000835809 0 0.00379223 0 0)
(0.0183863 -0.00143767 0 0.00314497 0 0)
(0.0166179 -0.00181321 0 0.00317633 0 0)
(0.0159633 -0.00236075 0 0.00364211 0 0)
(0.0165166 -0.00342039 0 0.00453565 0 0)
(0.0181821 -0.00520551 0 0.00595117 0 0)
(0.0209732 -0.00784935 0 0.00806714 0 0)
(0.0250863 -0.0115499 0 0.0111523 0 0)
(0.0308088 -0.0166572 0 0.0156481 0 0)
(0.0384864 -0.0237061 0 0.022195 0 0)
(0.0483141 -0.0334301 0 0.0318839 0 0)
(0.0604876 -0.0467112 0 0.0462052 0 0)
(0.0746533 -0.0644775 0 0.0676458 0 0)
(0.0902889 -0.0874095 0 0.099178 0 0)
(0.105554 -0.115441 0 0.14553 0 0)
(0.118825 -0.147096 0 0.210385 0 0)
(0.126748 -0.178493 0 0.299168 0 0)
(0.0365135 0.00119169 0 0.00604113 0 0)
(0.0159912 -0.000157594 0 0.00433561 0 0)
(0.0150835 -0.000778804 0 0.00355529 0 0)
(0.0136696 -0.00110545 0 0.00369827 0 0)
(0.0134334 -0.00166396 0 0.00431406 0 0)
(0.0142799 -0.00280306 0 0.005412 0 0)
(0.0159736 -0.00464888 0 0.00713804 0 0)
(0.0183659 -0.00726891 0 0.00970845 0 0)
(0.0215364 -0.0108488 0 0.0134282 0 0)
(0.0257552 -0.0157297 0 0.0187874 0 0)
(0.0313906 -0.0224045 0 0.0264742 0 0)
(0.0386321 -0.0314469 0 0.0376006 0 0)
(0.0475496 -0.0434594 0 0.0535906 0 0)
(0.0575973 -0.0588904 0 0.0766849 0 0)
(0.0681357 -0.0778899 0 0.109285 0 0)
(0.0775831 -0.0997592 0 0.155057 0 0)
(0.0849344 -0.12288 0 0.216152 0 0)
(0.0883593 -0.143807 0 0.296193 0 0)
(0.0335168 0.000916428 0 0.00642607 0 0)
(0.0147096 -0.000620215 0 0.00522665 0 0)
(0.014222 -0.00143103 0 0.00445688 0 0)
(0.0128451 -0.00178219 0 0.00453561 0 0)
(0.0123328 -0.00232083 0 0.00524748 0 0)
(0.0127148 -0.0034376 0 0.00663707 0 0)
(0.0138995 -0.00526254 0 0.0087915 0 0)
(0.0157467 -0.00787705 0 0.0118995 0 0)
(0.0182314 -0.0114505 0 0.0162983 0 0)
(0.0214723 -0.0162509 0 0.0225368 0 0)
(0.0256953 -0.0226354 0 0.0313302 0 0)
(0.0309826 -0.0309769 0 0.0437464 0 0)
(0.0372802 -0.0416246 0 0.061067 0 0)
(0.0440642 -0.0546954 0 0.0852122 0 0)
(0.0507379 -0.0699937 0 0.118001 0 0)
(0.0561504 -0.0865827 0 0.162175 0 0)
(0.0597683 -0.102932 0 0.218791 0 0)
(0.0606607 -0.116278 0 0.290345 0 0)
(0.0374777 0.0011725 0 0.00636166 0 0)
(0.0169264 -0.000302858 0 0.00516587 0 0)
(0.0161237 -0.000932558 0 0.00433145 0 0)
(0.014572 -0.00100153 0 0.00447868 0 0)
(0.0136041 -0.00134654 0 0.00542055 0 0)
(0.0134075 -0.00232524 0 0.00710407 0 0)
(0.0139314 -0.00392023 0 0.00961171 0 0)
(0.0149848 -0.0061126 0 0.0131745 0 0)
(0.0164643 -0.00904997 0 0.0181527 0 0)
(0.0184042 -0.0129954 0 0.0251002 0 0)
(0.0209227 -0.0182622 0 0.0347199 0 0)
(0.0240464 -0.0250932 0 0.0480223 0 0)
(0.0277082 -0.0336305 0 0.066135 0 0)
(0.0315075 -0.0437464 0 0.0906786 0 0)
(0.035067 -0.0550521 0 0.122981 0 0)
(0.0377128 -0.0665578 0 0.165078 0 0)
(0.0392341 -0.0769497 0 0.217321 0 0)
(0.0392242 -0.0840714 0 0.281523 0 0)
(0.033114 0.000539212 0 0.00756008 0 0)
(0.0147014 -0.00116743 0 0.00661971 0 0)
(0.0142587 -0.00205924 0 0.00541636 0 0)
(0.0131391 -0.00217969 0 0.00563416 0 0)
(0.0127361 -0.00249004 0 0.00682249 0 0)
(0.012729 -0.00341711 0 0.00879326 0 0)
(0.0129881 -0.00497419 0 0.0116137 0 0)
(0.0135981 -0.00713082 0 0.0155679 0 0)
(0.0146964 -0.00996879 0 0.0210731 0 0)
(0.0163177 -0.0136462 0 0.0286906 0 0)
(0.0183939 -0.0183356 0 0.0390662 0 0)
(0.0207404 -0.0241236 0 0.0530947 0 0)
(0.0231995 -0.0309873 0 0.0716993 0 0)
(0.0254516 -0.03865 0 0.0961973 0 0)
(0.0273033 -0.0466176 0 0.127502 0 0)
(0.0283769 -0.0539451 0 0.167174 0 0)
(0.028798 -0.0595251 0 0.215046 0 0)
(0.0285109 -0.0616259 0 0.272583 0 0)
(0.0342279 0.00069922 0 0.00854395 0 0)
(0.0154871 -0.000700603 0 0.00754511 0 0)
(0.014791 -0.00133468 0 0.00666076 0 0)
(0.013558 -0.00136539 0 0.00690961 0 0)
(0.0130476 -0.00152497 0 0.00808383 0 0)
(0.0129351 -0.00220123 0 0.0102084 0 0)
(0.0130477 -0.00349048 0 0.0133529 0 0)
(0.0133485 -0.00532959 0 0.017716 0 0)
(0.0138571 -0.00767691 0 0.0236245 0 0)
(0.0145724 -0.0105425 0 0.0315838 0 0)
(0.0154686 -0.0139855 0 0.0422085 0 0)
(0.016444 -0.0179925 0 0.0563189 0 0)
(0.0174233 -0.0224758 0 0.0746695 0 0)
(0.0182114 -0.0270496 0 0.0982921 0 0)
(0.0187329 -0.0312211 0 0.127706 0 0)
(0.0188934 -0.0340734 0 0.164014 0 0)
(0.0189432 -0.0348048 0 0.20667 0 0)
(0.0190985 -0.0319991 0 0.256824 0 0)
(0.0348451 0.00192904 0 0.00935804 0 0)
(0.0146686 -0.000379944 0 0.00869827 0 0)
(0.0137379 -0.00143311 0 0.00777523 0 0)
(0.0126513 -0.0014942 0 0.00819462 0 0)
(0.0122319 -0.00157318 0 0.00974025 0 0)
(0.0121071 -0.00212451 0 0.0122816 0 0)
(0.0121698 -0.00317905 0 0.0158292 0 0)
(0.0123138 -0.00459227 0 0.0206196 0 0)
(0.0124692 -0.0063066 0 0.0270225 0 0)
(0.0126462 -0.00834197 0 0.0355107 0 0)
(0.0129114 -0.0107211 0 0.0465646 0 0)
(0.0132626 -0.0133241 0 0.0608029 0 0)
(0.0136751 -0.0159467 0 0.0787132 0 0)
(0.0140306 -0.0181176 0 0.101033 0 0)
(0.0142966 -0.0193942 0 0.127914 0 0)
(0.014549 -0.0189821 0 0.160162 0 0)
(0.0150199 -0.0164244 0 0.196962 0 0)
(0.0162155 -0.0105999 0 0.239357 0 0)
(0.036855 0.00180289 0 0.01078 0 0)
(0.0160127 -0.00118845 0 0.00999073 0 0)
(0.0144279 -0.0022011 0 0.00844867 0 0)
(0.0125479 -0.00199441 0 0.00865953 0 0)
(0.0115033 -0.00186715 0 0.0102418 0 0)
(0.0108753 -0.00221592 0 0.012815 0 0)
(0.0104681 -0.00295288 0 0.0163572 0 0)
(0.0102046 -0.00386449 0 0.0211362 0 0)
(0.0100393 -0.00482063 0 0.0274859 0 0)
(0.00991713 -0.00576344 0 0.0357722 0 0)
(0.00980035 -0.0066346 0 0.046336 0 0)
(0.0096545 -0.00724582 0 0.0596283 0 0)
(0.00949008 -0.00735977 0 0.0759534 0 0)
(0.00936918 -0.00654865 0 0.0957953 0 0)
(0.00940715 -0.00449336 0 0.119093 0 0)
(0.00988671 -0.000623322 0 0.146373 0 0)
(0.0110957 0.00526245 0 0.176774 0 0)
(0.0135488 0.0139396 0 0.211142 0 0)
(0.0340802 0.00212657 0 0.0112928 0 0)
(0.0155657 -0.000223037 0 0.0102789 0 0)
(0.0146024 -0.00114384 0 0.00795975 0 0)
(0.0127207 -0.00119474 0 0.00820292 0 0)
(0.0116304 -0.00119314 0 0.0101133 0 0)
(0.0109148 -0.00140175 0 0.0130765 0 0)
(0.0103625 -0.0017585 0 0.0169562 0 0)
(0.00993593 -0.00208887 0 0.0219225 0 0)
(0.00964729 -0.00226517 0 0.0282619 0 0)
(0.00947232 -0.00218761 0 0.036301 0 0)
(0.0093775 -0.00176508 0 0.0462754 0 0)
(0.00936347 -0.000814509 0 0.0584497 0 0)
(0.00948374 0.000851494 0 0.0729056 0 0)
(0.00986881 0.00358561 0 0.089923 0 0)
(0.0106661 0.00756596 0 0.109298 0 0)
(0.012178 0.0132479 0 0.13143 0 0)
(0.0146017 0.0205912 0 0.155496 0 0)
(0.0183966 0.0302576 0 0.182294 0 0)
(0.0340535 0.00201721 0 0.0116751 0 0)
(0.014929 -0.000745016 0 0.0114683 0 0)
(0.0141706 -0.00238551 0 0.00975328 0 0)
(0.0127674 -0.00249559 0 0.00977325 0 0)
(0.0118916 -0.00225395 0 0.0110928 0 0)
(0.0110606 -0.00207743 0 0.0133936 0 0)
(0.0103516 -0.00195496 0 0.0165869 0 0)
(0.00995027 -0.0017315 0 0.0207697 0 0)
(0.00987655 -0.00123793 0 0.0261227 0 0)
(0.0100407 -0.000315598 0 0.0328469 0 0)
(0.0103724 0.00117834 0 0.0410578 0 0)
(0.0109196 0.00341977 0 0.0508804 0 0)
(0.0117892 0.00655418 0 0.0622941 0 0)
(0.013199 0.0107884 0 0.0754356 0 0)
(0.0152792 0.0162012 0 0.0900589 0 0)
(0.0183424 0.0230281 0 0.10644 0 0)
(0.0224585 0.0311824 0 0.123914 0 0)
(0.0280667 0.041032 0 0.143045 0 0)
(0.0339223 0.00186112 0 0.0114392 0 0)
(0.0165161 0.000671484 0 0.0111204 0 0)
(0.0160973 -0.000190651 0 0.00918962 0 0)
(0.0135681 -9.80384e-05 0 0.00907856 0 0)
(0.0119098 0.000448816 0 0.010265 0 0)
(0.0109262 0.00110696 0 0.0123562 0 0)
(0.0104638 0.00185453 0 0.0152243 0 0)
(0.0104804 0.00288747 0 0.0188665 0 0)
(0.0108954 0.00440816 0 0.0233346 0 0)
(0.0115895 0.00653771 0 0.0287175 0 0)
(0.0125183 0.00932812 0 0.035065 0 0)
(0.0137968 0.0128588 0 0.0424447 0 0)
(0.0155967 0.0171978 0 0.0508163 0 0)
(0.0181399 0.0224757 0 0.0602445 0 0)
(0.0215379 0.0287106 0 0.0705223 0 0)
(0.0260155 0.0360261 0 0.0818222 0 0)
(0.0316049 0.0443132 0 0.0936679 0 0)
(0.0385733 0.0537633 0 0.106469 0 0)
(0.035895 0.00122662 0 0.0127297 0 0)
(0.0155486 -0.000354591 0 0.012002 0 0)
(0.0130368 -0.00081729 0 0.00929418 0 0)
(0.0108583 -7.95853e-05 0 0.00840741 0 0)
(0.00997215 0.000843905 0 0.00888667 0 0)
(0.00943439 0.00161565 0 0.010255 0 0)
(0.00910387 0.00240509 0 0.0122783 0 0)
(0.00916091 0.00354705 0 0.0148376 0 0)
(0.0097226 0.00525863 0 0.0179066 0 0)
(0.0108282 0.00758973 0 0.0215376 0 0)
(0.0125084 0.0105262 0 0.0257764 0 0)
(0.0148405 0.014095 0 0.0306692 0 0)
(0.0179324 0.0183385 0 0.0361832 0 0)
(0.0219263 0.0233444 0 0.0423402 0 0)
(0.0269158 0.0291173 0 0.0489833 0 0)
(0.0330445 0.0357257 0 0.0562227 0 0)
(0.0403425 0.0430701 0 0.0637526 0 0)
(0.0489263 0.051247 0 0.0717884 0 0)
(0.0344656 0.00166296 0 0.0111032 0 0)
(0.015503 0.0011903 0 0.0103778 0 0)
(0.0136099 0.00107602 0 0.00802338 0 0)
(0.0116987 0.0018456 0 0.00734118 0 0)
(0.0113282 0.00274837 0 0.00767696 0 0)
(0.0116267 0.00369378 0 0.00867012 0 0)
(0.0122413 0.00483589 0 0.0101414 0 0)
(0.013224 0.00633612 0 0.0120065 0 0)
(0.0146823 0.00829897 0 0.0142447 0 0)
(0.0166738 0.0107759 0 0.0168797 0 0)
(0.0192713 0.0137822 0 0.0199204 0 0)
(0.0225903 0.0173489 0 0.0233767 0 0)
(0.0267461 0.0214953 0 0.027215 0 0)
(0.0318655 0.0262762 0 0.0314523 0 0)
(0.0379957 0.0316637 0 0.0359934 0 0)
(0.045276 0.0377116 0 0.0409231 0 0)
(0.0536946 0.0443115 0 0.0460328 0 0)
(0.0633714 0.0515502 0 0.0514589 0 0)
(0.0340143 0.000931128 0 0.0115837 0 0)
(0.0154687 -3.88669e-05 0 0.0100854 0 0)
(0.0147721 -8.53313e-05 0 0.00743526 0 0)
(0.013407 0.000467077 0 0.00637821 0 0)
(0.0128686 0.00105405 0 0.00629791 0 0)
(0.01279 0.00170466 0 0.00681223 0 0)
(0.0131258 0.00261171 0 0.00771359 0 0)
(0.0139437 0.00390911 0 0.00890803 0 0)
(0.0153004 0.00563316 0 0.0103682 0 0)
(0.0172449 0.00778003 0 0.0120991 0 0)
(0.0198386 0.0103456 0 0.0141097 0 0)
(0.0232003 0.0133534 0 0.016411 0 0)
(0.0274362 0.0168226 0 0.0189813 0 0)
(0.0326667 0.0208002 0 0.0218202 0 0)
(0.0389459 0.0252664 0 0.024846 0 0)
(0.0464045 0.0302567 0 0.0281221 0 0)
(0.0550349 0.0356782 0 0.0315079 0 0)
(0.0649175 0.0415954 0 0.0350694 0 0)
(0.0375715 0.000876109 0 0.00916338 0 0)
(0.0160477 -0.000122448 0 0.0073442 0 0)
(0.0142391 -0.000186948 0 0.00538106 0 0)
(0.0131457 0.000280227 0 0.0047785 0 0)
(0.0130894 0.000851432 0 0.00491592 0 0)
(0.0132978 0.00153176 0 0.00539937 0 0)
(0.0137346 0.00239516 0 0.00604074 0 0)
(0.0146221 0.00352308 0 0.00681465 0 0)
(0.0161222 0.0049743 0 0.00775796 0 0)
(0.0182987 0.00678083 0 0.00889806 0 0)
(0.0211879 0.00894984 0 0.0102381 0 0)
(0.0248715 0.0114878 0 0.0117785 0 0)
(0.0294529 0.0143895 0 0.0134974 0 0)
(0.0350627 0.0176709 0 0.0153938 0 0)
(0.0417546 0.021312 0 0.01741 0 0)
(0.0496423 0.0253306 0 0.019588 0 0)
(0.0586988 0.0296788 0 0.0218345 0 0)
(0.0689475 0.0344042 0 0.0241946 0 0)
(0.039233 -0.00024679 0 0.0082836 0 0)
(0.0174458 -0.000503706 0 0.0061299 0 0)
(0.0152195 -0.00023797 0 0.00420105 0 0)
(0.0139781 0.000437117 0 0.00357351 0 0)
(0.0138518 0.00108176 0 0.00358931 0 0)
(0.0141971 0.00175813 0 0.00386694 0 0)
(0.0150594 0.00258764 0 0.00425225 0 0)
(0.0165872 0.00367228 0 0.0047223 0 0)
(0.0188538 0.0050527 0 0.00529854 0 0)
(0.0218757 0.00671982 0 0.00600435 0 0)
(0.0256644 0.00864336 0 0.00684281 0 0)
(0.0302831 0.0108154 0 0.00780952 0 0)
(0.0358096 0.0132428 0 0.00889075 0 0)
(0.0423423 0.0159565 0 0.0100824 0 0)
(0.0498948 0.0189624 0 0.011351 0 0)
(0.0585425 0.022288 0 0.0127257 0 0)
(0.0682616 0.025889 0 0.0141482 0 0)
(0.0790222 0.0297979 0 0.0156349 0 0)
(0.0369565 0.000871592 0 0.00768897 0 0)
(0.0177392 0.000160828 0 0.00570969 0 0)
(0.0164196 -0.000157197 0 0.0039732 0 0)
(0.0150681 4.24885e-05 0 0.00332354 0 0)
(0.0145281 0.000384387 0 0.00316321 0 0)
(0.0143939 0.000777894 0 0.00325951 0 0)
(0.0148145 0.00126491 0 0.00349027 0 0)
(0.0159949 0.00194583 0 0.00378859 0 0)
(0.0180126 0.0028724 0 0.00414236 0 0)
(0.0208427 0.00404676 0 0.00456635 0 0)
(0.0244333 0.00545467 0 0.00507266 0 0)
(0.0287726 0.00708962 0 0.00566322 0 0)
(0.0338807 0.00894522 0 0.00633037 0 0)
(0.0398373 0.0110323 0 0.00707221 0 0)
(0.046686 0.013341 0 0.00786009 0 0)
(0.0545907 0.0158934 0 0.00872231 0 0)
(0.063555 0.0186521 0 0.00961735 0 0)
(0.0736765 0.0216405 0 0.0105414 0 0)
(0.0355045 9.29506e-05 0 0.00718009 0 0)
(0.0167935 -0.000268157 0 0.00554 0 0)
(0.015601 -0.00022211 0 0.00382349 0 0)
(0.0142562 -1.53813e-05 0 0.00309793 0 0)
(0.0139063 0.000138782 0 0.00288088 0 0)
(0.014059 0.00030615 0 0.00285546 0 0)
(0.0147273 0.000580505 0 0.00288935 0 0)
(0.0159532 0.00103102 0 0.00296139 0 0)
(0.0177346 0.00169375 0 0.00308716 0 0)
(0.0201364 0.00258163 0 0.00327634 0 0)
(0.0232704 0.00369154 0 0.00352414 0 0)
(0.0272609 0.00500474 0 0.00381978 0 0)
(0.0322074 0.00648783 0 0.00415947 0 0)
(0.0382012 0.00812477 0 0.0045494 0 0)
(0.0452559 0.00990256 0 0.00497397 0 0)
(0.0534423 0.011837 0 0.00545249 0 0)
(0.0627365 0.0139153 0 0.00595709 0 0)
(0.0731023 0.0161627 0 0.00647105 0 0)
(0.0345148 -0.00104426 0 0.00576573 0 0)
(0.0141801 -0.00122334 0 0.00377146 0 0)
(0.0130851 -0.00101363 0 0.00255915 0 0)
(0.0125301 -0.000688214 0 0.00209186 0 0)
(0.0128558 -0.000492643 0 0.00191473 0 0)
(0.013093 -0.00037727 0 0.00187334 0 0)
(0.013242 -0.000173627 0 0.00187629 0 0)
(0.0136979 0.00021038 0 0.0018962 0 0)
(0.0148555 0.000768766 0 0.0019436 0 0)
(0.0169623 0.00145879 0 0.00202725 0 0)
(0.0201047 0.00225467 0 0.00214635 0 0)
(0.0242838 0.00315487 0 0.00229849 0 0)
(0.0294764 0.00416245 0 0.00248186 0 0)
(0.035689 0.00528725 0 0.00269599 0 0)
(0.0428927 0.00652988 0 0.00293132 0 0)
(0.0511407 0.00789885 0 0.00320162 0 0)
(0.0604231 0.00938328 0 0.00349005 0 0)
(0.070704 0.0110057 0 0.0037877 0 0)
(0.0365358 -0.000669164 0 0.00469306 0 0)
(0.0168487 -0.000430645 0 0.00263765 0 0)
(0.0153495 -0.000375559 0 0.00174244 0 0)
(0.0145719 -0.000299242 0 0.00140252 0 0)
(0.0149552 -0.000202463 0 0.00126745 0 0)
(0.0155044 -3.98146e-05 0 0.00121214 0 0)
(0.0162656 0.000187428 0 0.00118301 0 0)
(0.0175541 0.000459749 0 0.00116565 0 0)
(0.0195858 0.000775668 0 0.00116169 0 0)
(0.0224568 0.00115992 0 0.00117535 0 0)
(0.0262036 0.00165001 0 0.0012068 0 0)
(0.0308484 0.0022703 0 0.00125457 0 0)
(0.0364229 0.00301752 0 0.00131888 0 0)
(0.042979 0.00387393 0 0.00140055 0 0)
(0.0505168 0.00481381 0 0.00149634 0 0)
(0.0591022 0.00583062 0 0.00161599 0 0)
(0.0687382 0.00691637 0 0.00175178 0 0)
(0.0793578 0.00807511 0 0.00189402 0 0)
(0.0343441 -0.00103557 0 0.00362094 0 0)
(0.0140484 -0.00038356 0 0.0017524 0 0)
(0.0130021 -0.000315613 0 0.00115391 0 0)
(0.0123857 -0.000334223 0 0.000960471 0 0)
(0.0122169 -0.000387726 0 0.000878135 0 0)
(0.0120124 -0.000389881 0 0.000830447 0 0)
(0.0123094 -0.000297902 0 0.000795028 0 0)
(0.013537 -0.000132443 0 0.000773444 0 0)
(0.0157488 7.81162e-05 0 0.000765322 0 0)
(0.0188427 0.000326746 0 0.000767716 0 0)
(0.0227446 0.000625188 0 0.00077884 0 0)
(0.0274927 0.000985921 0 0.0007981 0 0)
(0.0331908 0.00141261 0 0.000825954 0 0)
(0.039986 0.00190185 0 0.000862484 0 0)
(0.0479337 0.00244995 0 0.00090432 0 0)
(0.0571615 0.00306093 0 0.000957304 0 0)
(0.0676374 0.00373513 0 0.0010175 0 0)
(0.0794059 0.00448165 0 0.00107499 0 0)
(0.033082 -0.000341579 0 0.00262957 0 0)
(0.0152805 0.000177327 0 0.00126597 0 0)
(0.0152525 0.000265555 0 0.000946301 0 0)
(0.0139391 0.000255439 0 0.000808528 0 0)
(0.0134447 0.000320234 0 0.000715673 0 0)
(0.0139453 0.000425471 0 0.000651738 0 0)
(0.0153405 0.000496968 0 0.000604478 0 0)
(0.017388 0.000512314 0 0.000564546 0 0)
(0.0200106 0.000509468 0 0.000529673 0 0)
(0.0233817 0.000542252 0 0.000499116 0 0)
(0.0277841 0.000639352 0 0.000472243 0 0)
(0.0334634 0.000797723 0 0.000449283 0 0)
(0.0405769 0.000996348 0 0.000430521 0 0)
(0.0492097 0.001213 0 0.000414558 0 0)
(0.0594001 0.00144012 0 0.000400932 0 0)
(0.0712416 0.00167987 0 0.000394059 0 0)
(0.0847717 0.00193815 0 0.000388126 0 0)
(0.100016 0.00223142 0 0.000377082 0 0)
(0.022326 -0.0465973 6.27653e-22 0.104654 -1.36051e-21 1.59442e-37)
(0.156758 -0.0894971 -1.54229e-21 0.0596986 7.44664e-22 1.57208e-37)
(0.374241 -0.102145 0 0.0416457 0 0)
(0.604295 -0.0791538 0 0.0406136 0 0)
(0.756003 -0.0317332 0 0.0486839 0 0)
(0.83724 -0.00346502 1.05225e-21 0.071822 8.48559e-22 1.48078e-37)
(0.896874 -0.0130888 0 0.0974552 0 0)
(1.00265 -0.0634928 0 0.115082 0 0)
(1.22207 -0.138449 0 0.124008 0 0)
(1.58234 -0.217061 0 0.124033 0 0)
(2.09039 -0.284432 2.34346e-21 0.11502 -3.80917e-22 1.37145e-37)
(2.71798 -0.323676 0 0.0983369 0 0)
(3.41674 -0.330455 0 0.0809061 0 0)
(4.13736 -0.321341 0 0.068468 0 0)
(4.83433 -0.307563 0 0.0595421 0 0)
(5.48846 -0.295018 2.78667e-21 0.0542532 4.26631e-22 1.26761e-37)
(6.10201 -0.223278 0 0.0423843 0 0)
(6.56064 -0.0848167 0 0.0385529 0 0)
(6.85631 0.0146153 0 0.0496982 0 0)
(6.99649 0.0794221 0 0.0631702 0 0)
(7.04143 0.129318 0 0.0779355 0 0)
(7.02533 0.174192 0 0.0957693 0 0)
(6.98097 0.200997 0 0.107988 0 0)
(6.86491 0.200393 -3.09647e-21 0.115714 9.06944e-22 1.11266e-37)
(6.77801 0.154738 4.28561e-21 0.145709 -9.94798e-22 1.09424e-37)
(6.67611 0.12127 -5.45508e-21 0.189944 8.93715e-22 1.07603e-37)
(6.65407 0.0636606 -6.57442e-21 0.263714 6.99965e-22 1.05802e-37)
(6.74597 -0.0464108 0 0.318702 0 0)
(6.98719 -0.143682 0 0.284202 0 0)
(7.31841 -0.241476 9.61569e-21 0.321945 -4.50814e-22 1.0052e-37)
(7.74562 -0.331649 1.06587e-20 0.332373 -5.84798e-22 9.87995e-38)
(8.28596 -0.399932 0 0.315457 0 0)
(8.96631 -0.459094 0 0.291661 0 0)
(9.7624 -0.50842 1.39811e-20 0.280069 -6.37032e-22 9.37623e-38)
(10.6506 -0.557502 0 0.284288 0 0)
(11.6564 -0.604725 0 0.311347 0 0)
(12.8516 -0.699411 -1.64738e-20 0.36949 3.11246e-22 8.89133e-38)
(14.3186 -0.831164 0 0.394236 0 0)
(16.0215 -0.926649 -1.78257e-20 0.361533 3.2917e-22 8.57853e-38)
(17.7022 -0.868623 -3.71171e-20 0.282401 8.41223e-22 3.37008e-37)
(19.0089 -0.657265 0 0.229906 0 0)
(19.8088 -0.457448 0 0.22139 0 0)
(20.1505 -0.325925 0 0.24731 0 0)
(20.3198 -0.437354 0 0.254572 0 0)
(20.9273 -0.531792 0 0.300488 0 0)
(21.5992 -0.539488 -4.73483e-20 0.340364 1.03171e-21 3.01923e-37)
(22.2873 -0.828058 -4.83251e-20 0.345827 5.36431e-22 2.96355e-37)
(22.786 -0.854175 -4.89741e-20 0.423925 3.75989e-22 2.90866e-37)
(23.2006 -0.313657 0 0.230759 0 0)
(23.0216 -0.17929 5.03806e-20 0.30766 -8.32547e-22 2.80118e-37)
(23.2417 -0.284427 0 0.246526 0 0)
(23.6057 -0.330516 -5.13536e-20 0.23497 7.16812e-22 2.69683e-37)
(24.0661 -0.332828 -5.18025e-20 0.213896 6.48137e-22 2.64581e-37)
(24.5562 -0.355805 0 0.18422 0 0)
(25.214 -0.375023 0 0.154908 0 0)
(25.779 -0.547348 0 0.161439 0 0)
(26.3956 -0.420299 -5.37871e-20 0.151326 5.39982e-22 2.44932e-37)
(26.7521 -0.357908 0 0.226286 0 0)
(27.4083 -0.425836 0 0.180812 0 0)
(28.2401 -0.447999 0 0.157344 0 0)
(29.2105 -0.46754 0 0.127796 0 0)
(30.2803 -0.48026 0 0.104238 0 0)
(31.4174 -0.482918 0 0.0853256 0 0)
(32.5131 -0.469319 0 0.0754225 0 0)
(33.5098 -0.428597 0 0.0689596 0 0)
(34.3442 -0.387795 5.85957e-20 0.0988795 -2.18197e-22 2.04952e-37)
(35.1203 -0.389168 0 0.125028 0 0)
(35.8286 -0.377069 0 0.131481 0 0)
(36.4861 -0.369055 -5.88908e-20 0.137163 2.65396e-22 1.92851e-37)
(37.0961 -0.346401 -5.88148e-20 0.136325 1.98143e-22 1.88947e-37)
(37.669 -0.327905 0 0.133102 0 0)
(38.2383 -0.3073 5.8456e-20 0.12847 -2.07798e-22 1.8133e-37)
(38.8304 -0.297511 -5.81562e-20 0.125862 2.3508e-22 1.77615e-37)
(39.4593 -0.293719 0 0.123885 0 0)
(40.0516 -0.270965 5.71076e-20 0.117844 -2.77226e-22 1.70367e-37)
(40.5459 -0.223106 0 0.106933 0 0)
(40.8844 -0.156197 0 0.0945092 0 0)
(40.9871 -0.0715144 -5.41435e-20 0.0850717 9.57475e-23 1.59944e-37)
(40.7843 0.0256857 0 0.0825679 0 0)
(40.2346 0.118644 5.20054e-20 0.0874437 -1.35535e-22 1.53287e-37)
(39.3988 0.179452 0 0.0945689 0 0)
(38.3791 0.185426 -4.99718e-20 0.0948058 5.1576e-23 1.46856e-37)
(37.3964 0.168516 -4.88936e-20 0.0970645 2.8577e-23 1.43724e-37)
(36.3875 0.111838 -4.78427e-20 0.103755 1.6589e-23 1.40646e-37)
(35.6338 -0.00919918 -9.35988e-20 0.105089 3.47227e-23 5.50482e-37)
(34.9151 -0.107433 9.1719e-20 0.141078 -7.94515e-23 5.38592e-37)
(34.3034 -0.167539 0 0.150903 0 0)
(33.5495 -0.096849 0 0.206204 0 0)
(32.8695 0.0379599 0 0.206668 0 0)
(32.7547 -0.190508 8.76409e-20 0.239382 -9.42516e-22 4.93064e-37)
(33.6448 -0.385521 8.78402e-20 0.166495 -1.01073e-21 4.82183e-37)
(35.0246 -0.466303 -8.87481e-20 0.121054 1.0508e-21 4.71499e-37)
(36.5661 -0.465857 0 0.0859285 0 0)
(38.0815 -0.427482 9.16104e-20 0.0633427 -9.32751e-22 4.50708e-37)
(39.4645 -0.365032 9.29508e-20 0.0475696 -8.05762e-22 4.40593e-37)
(40.633 -0.29252 9.38869e-20 0.0367257 -6.56984e-22 4.30661e-37)
(41.5447 -0.212436 0 0.028799 0 0)
(42.156 -0.128865 0 0.0229476 0 0)
(42.4472 -0.0425846 0 0.0185177 0 0)
(42.3925 0.0444097 9.06457e-20 0.0152052 4.28815e-23 3.92686e-37)
(41.9836 0.130142 0 0.0128481 0 0)
(41.212 0.212955 0 0.0112473 0 0)
(40.0885 0.289844 -7.94133e-20 0.0103395 -5.06931e-22 3.65967e-37)
(38.6341 0.358337 0 0.0099981 0 0)
(36.8884 0.416404 0 0.0100994 0 0)
(34.8936 0.462782 -6.24866e-20 0.0105044 -7.57822e-22 3.40689e-37)
(32.6976 0.496606 0 0.0110855 0 0)
(30.3554 0.517559 0 0.0117139 0 0)
(27.9234 0.525859 4.41573e-20 0.0122671 7.60667e-22 3.16798e-37)
(25.4583 0.522213 3.84892e-20 0.0126387 7.19292e-22 3.09134e-37)
(23.0136 0.507883 0 0.0127668 0 0)
(20.6374 0.484717 -2.85067e-20 0.0126372 -6.00475e-22 2.94239e-37)
(18.3685 0.455191 0 0.0122886 0 0)
(16.2323 0.422046 2.06619e-20 0.0118064 4.65276e-22 2.79909e-37)
(14.2418 0.387735 0 0.0113012 0 0)
(12.4015 0.353786 1.48954e-20 0.0108259 3.41937e-22 2.66124e-37)
(10.7109 0.320813 1.26917e-20 0.0104067 2.87756e-22 2.5943e-37)
(9.16759 0.289041 0 0.0100446 0 0)
(7.76962 0.258283 0 0.0097128 0 0)
(6.51505 0.228251 0 0.00937005 0 0)
(5.40215 0.198926 0 0.00898073 0 0)
(4.42882 0.170452 0 0.00851625 0 0)
(3.59259 0.143665 0 0.00806766 0 0)
(2.88952 0.118807 0 0.00757923 0 0)
(2.31005 0.0959568 5.37524e-21 0.00706941 5.27084e-23 2.10369e-37)
(1.84601 0.0748597 -5.11458e-21 0.00650471 -4.59943e-23 2.04766e-37)
(1.48644 0.0561658 0 0.00593573 0 0)
(1.22038 0.0399505 0 0.00538022 0 0)
(1.03639 0.0261226 0 0.00484942 0 0)
(0.923 0.014568 0 0.00435679 0 0)
(0.869106 0.00513042 -7.82239e-21 0.00391217 -7.82852e-23 7.13576e-37)
(0.864278 -0.00238645 0 0.00352119 0 0)
(0.899054 -0.00819426 6.66394e-21 0.00318569 7.3531e-23 6.74319e-37)
(0.964777 -0.012499 -6.04959e-21 0.00290474 -6.816e-23 6.55294e-37)
(1.05399 -0.0154805 0 0.00267705 0 0)
(1.15967 -0.0172706 0 0.00250225 0 0)
(1.2758 -0.0180049 0 0.00238015 0 0)
(1.39723 -0.017837 3.64353e-21 0.00230909 2.51958e-23 5.83056e-37)
(1.51967 -0.0169197 3.12312e-21 0.00228765 8.86109e-24 5.65931e-37)
(1.63954 -0.0153905 0 0.00231361 0 0)
(1.75407 -0.01338 2.24825e-21 0.00238444 -2.15225e-23 5.32761e-37)
(1.86109 -0.0110244 1.90502e-21 0.00249823 -3.84071e-23 5.16704e-37)
(1.95915 -0.00847472 -1.63159e-21 0.00265379 5.62029e-23 5.00991e-37)
(2.04751 -0.0058631 0 0.00285025 0 0)
(2.12567 -0.00328239 0 0.00308771 0 0)
(2.19386 -0.00080361 -1.23199e-21 0.00336801 1.05156e-22 4.55862e-37)
(2.25141 0.0015947 0 0.00369835 0 0)
(2.29849 0.0039219 0 0.00409171 0 0)
(2.3352 0.00613616 0 0.00456169 0 0)
(2.36208 0.00822629 0 0.00512002 0 0)
(2.37973 0.0102972 1.8267e-21 0.00578005 -1.83221e-22 3.87027e-37)
(2.38901 0.0124279 2.14256e-21 0.00656196 -1.94902e-22 3.74172e-37)
(2.39143 0.0146918 0 0.00750932 0 0)
(2.38934 0.0171587 2.98786e-21 0.00874124 -2.27544e-22 3.49332e-37)
(2.38767 0.0200032 0 0.0104771 0 0)
(2.39262 0.0241416 0 0.0128955 0 0)
(2.4099 0.0305535 4.95768e-21 0.0160171 -2.36115e-22 3.14186e-37)
(2.44499 0.0395256 0 0.0194238 0 0)
(2.50086 0.0514703 6.56924e-21 0.0222678 -1.47762e-22 2.92113e-37)
(2.56238 0.0644578 0 0.023401 0 0)
(2.60468 0.0703254 0 0.0217858 0 0)
(2.60435 0.0609052 8.31044e-21 0.0183859 5.93291e-24 2.60951e-37)
(2.55589 0.0355617 0 0.0159507 0 0)
(2.51491 0.00150871 8.81258e-21 0.0155573 -1.51643e-22 2.41429e-37)