/*--------------------------------*- C++ -*----------------------------------*\
  =========                 |
  \\      /  F ield         | OpenFOAM: The Open Source CFD Toolbox
   \\    /   O peration     | Website:  https://openfoam.org
    \\  /    A nd           | Version:  10
     \\/     M anipulation  |
\*---------------------------------------------------------------------------*/
FoamFile
{
    format      ascii;
    class       volScalarField;
    location    "1.47";
    object      p;
}
// * * * * * * * * * * * * * * * * * * * * * * * * * * * * * * * * * * * * * //

dimensions      [1 -1 -2 0 0 0 0];

internalField   nonuniform List<scalar> 
12225
(
1.64012e+07
1.63454e+07
1.62454e+07
1.61135e+07
1.59602e+07
1.57935e+07
1.56188e+07
1.544e+07
1.52592e+07
1.50778e+07
1.48962e+07
1.47144e+07
1.4532e+07
1.43478e+07
1.41599e+07
1.39648e+07
1.37556e+07
1.35149e+07
1.64035e+07
1.63474e+07
1.62471e+07
1.61148e+07
1.59612e+07
1.57943e+07
1.56195e+07
1.54406e+07
1.52598e+07
1.50783e+07
1.48968e+07
1.47152e+07
1.4533e+07
1.43491e+07
1.41618e+07
1.39679e+07
1.37618e+07
1.35331e+07
1.64085e+07
1.63519e+07
1.62508e+07
1.61178e+07
1.59635e+07
1.57961e+07
1.5621e+07
1.54419e+07
1.5261e+07
1.50795e+07
1.48981e+07
1.47168e+07
1.4535e+07
1.43519e+07
1.41658e+07
1.39744e+07
1.37739e+07
1.35607e+07
1.64168e+07
1.63594e+07
1.62569e+07
1.61226e+07
1.59673e+07
1.57991e+07
1.56234e+07
1.5444e+07
1.52629e+07
1.50815e+07
1.49003e+07
1.47194e+07
1.45384e+07
1.43564e+07
1.41723e+07
1.39844e+07
1.37911e+07
1.35929e+07
1.64292e+07
1.63704e+07
1.6266e+07
1.61298e+07
1.59729e+07
1.58034e+07
1.5627e+07
1.5447e+07
1.52658e+07
1.50844e+07
1.49035e+07
1.47232e+07
1.45431e+07
1.43628e+07
1.41813e+07
1.39978e+07
1.38123e+07
1.36274e+07
1.64464e+07
1.63857e+07
1.62786e+07
1.61396e+07
1.59804e+07
1.58093e+07
1.56317e+07
1.54511e+07
1.52696e+07
1.50883e+07
1.49078e+07
1.47283e+07
1.45495e+07
1.43712e+07
1.41928e+07
1.40143e+07
1.38366e+07
1.36631e+07
1.64696e+07
1.64062e+07
1.62952e+07
1.61526e+07
1.59903e+07
1.5817e+07
1.56379e+07
1.54564e+07
1.52745e+07
1.50933e+07
1.49134e+07
1.47348e+07
1.45576e+07
1.43817e+07
1.42069e+07
1.40336e+07
1.38633e+07
1.36992e+07
1.65e+07
1.64328e+07
1.63167e+07
1.6169e+07
1.60028e+07
1.58266e+07
1.56456e+07
1.5463e+07
1.52806e+07
1.50995e+07
1.49202e+07
1.47429e+07
1.45675e+07
1.43942e+07
1.42232e+07
1.40553e+07
1.38918e+07
1.37357e+07
1.65394e+07
1.6467e+07
1.63438e+07
1.61896e+07
1.60182e+07
1.58383e+07
1.56549e+07
1.54709e+07
1.5288e+07
1.5107e+07
1.49284e+07
1.47524e+07
1.45791e+07
1.44088e+07
1.42417e+07
1.40789e+07
1.39216e+07
1.37722e+07
1.65899e+07
1.65101e+07
1.63774e+07
1.62147e+07
1.60368e+07
1.58523e+07
1.5666e+07
1.54803e+07
1.52967e+07
1.51158e+07
1.4938e+07
1.47635e+07
1.45925e+07
1.44252e+07
1.42621e+07
1.41041e+07
1.39524e+07
1.38086e+07
1.66544e+07
1.65641e+07
1.64184e+07
1.62446e+07
1.60585e+07
1.58684e+07
1.56786e+07
1.5491e+07
1.53066e+07
1.51258e+07
1.49489e+07
1.47761e+07
1.46074e+07
1.44432e+07
1.4284e+07
1.41306e+07
1.39839e+07
1.3845e+07
1.67302e+07
1.66257e+07
1.64637e+07
1.62766e+07
1.60812e+07
1.58851e+07
1.56915e+07
1.55018e+07
1.53166e+07
1.5136e+07
1.496e+07
1.47888e+07
1.46223e+07
1.4461e+07
1.43053e+07
1.41557e+07
1.4013e+07
1.3878e+07
1.68234e+07
1.66988e+07
1.65153e+07
1.6312e+07
1.61057e+07
1.59027e+07
1.57051e+07
1.55132e+07
1.53272e+07
1.51467e+07
1.49717e+07
1.48021e+07
1.4638e+07
1.44795e+07
1.4327e+07
1.4181e+07
1.4042e+07
1.39105e+07
1.6961e+07
1.68002e+07
1.65829e+07
1.63562e+07
1.61353e+07
1.59235e+07
1.57209e+07
1.55265e+07
1.53396e+07
1.51595e+07
1.49857e+07
1.48181e+07
1.46566e+07
1.45013e+07
1.43523e+07
1.42101e+07
1.40748e+07
1.39468e+07
1.71747e+07
1.6941e+07
1.66679e+07
1.6408e+07
1.61682e+07
1.5946e+07
1.57377e+07
1.55408e+07
1.53532e+07
1.51738e+07
1.50017e+07
1.48365e+07
1.46781e+07
1.45262e+07
1.4381e+07
1.42427e+07
1.41112e+07
1.39868e+07
1.75348e+07
1.71283e+07
1.67628e+07
1.6459e+07
1.6198e+07
1.59654e+07
1.57523e+07
1.55536e+07
1.53662e+07
1.51883e+07
1.50186e+07
1.48564e+07
1.47015e+07
1.45535e+07
1.44123e+07
1.4278e+07
1.41505e+07
1.40296e+07
1.82292e+07
1.73155e+07
1.6824e+07
1.64822e+07
1.62081e+07
1.5971e+07
1.57572e+07
1.55597e+07
1.53747e+07
1.51999e+07
1.50338e+07
1.48757e+07
1.4725e+07
1.45814e+07
1.44446e+07
1.43145e+07
1.4191e+07
1.40738e+07
1.73734e+07
1.70337e+07
1.67024e+07
1.64163e+07
1.6167e+07
1.59439e+07
1.57399e+07
1.55501e+07
1.53718e+07
1.52032e+07
1.5043e+07
1.48905e+07
1.47453e+07
1.46068e+07
1.4475e+07
1.43495e+07
1.42302e+07
1.41169e+07
1.67965e+07
1.66571e+07
1.64655e+07
1.62626e+07
1.60634e+07
1.58723e+07
1.56901e+07
1.55164e+07
1.53507e+07
1.51924e+07
1.50411e+07
1.48964e+07
1.47581e+07
1.4626e+07
1.44999e+07
1.43796e+07
1.42649e+07
1.41557e+07
1.6466e+07
1.63861e+07
1.6259e+07
1.61086e+07
1.59489e+07
1.57871e+07
1.5627e+07
1.54702e+07
1.53179e+07
1.51705e+07
1.50282e+07
1.48912e+07
1.47595e+07
1.46332e+07
1.45121e+07
1.43963e+07
1.42856e+07
1.41798e+07
1.62768e+07
1.62194e+07
1.61218e+07
1.59996e+07
1.58636e+07
1.57211e+07
1.55762e+07
1.54317e+07
1.52893e+07
1.515e+07
1.50145e+07
1.48832e+07
1.47564e+07
1.46343e+07
1.45169e+07
1.44043e+07
1.42963e+07
1.4193e+07
1.61514e+07
1.61052e+07
1.6024e+07
1.59188e+07
1.57983e+07
1.5669e+07
1.55353e+07
1.53999e+07
1.5265e+07
1.5132e+07
1.50018e+07
1.48749e+07
1.47519e+07
1.4633e+07
1.45184e+07
1.44082e+07
1.43024e+07
1.42009e+07
1.60665e+07
1.60265e+07
1.59549e+07
1.58604e+07
1.57501e+07
1.56299e+07
1.55039e+07
1.53752e+07
1.52458e+07
1.51174e+07
1.49911e+07
1.48676e+07
1.47474e+07
1.46309e+07
1.45184e+07
1.441e+07
1.43058e+07
1.42056e+07
1.60087e+07
1.59724e+07
1.59068e+07
1.5819e+07
1.57155e+07
1.56014e+07
1.54808e+07
1.53567e+07
1.52313e+07
1.51062e+07
1.49827e+07
1.48616e+07
1.47435e+07
1.46288e+07
1.45178e+07
1.44107e+07
1.43076e+07
1.42085e+07
1.59695e+07
1.59355e+07
1.58737e+07
1.57903e+07
1.56912e+07
1.55813e+07
1.54644e+07
1.53434e+07
1.52208e+07
1.5098e+07
1.49765e+07
1.48571e+07
1.47404e+07
1.4627e+07
1.45171e+07
1.44109e+07
1.43086e+07
1.42101e+07
1.59435e+07
1.5911e+07
1.58515e+07
1.57709e+07
1.56747e+07
1.55675e+07
1.5453e+07
1.53342e+07
1.52134e+07
1.50923e+07
1.49721e+07
1.48538e+07
1.47381e+07
1.46256e+07
1.45164e+07
1.44108e+07
1.43091e+07
1.42111e+07
1.59268e+07
1.58951e+07
1.58371e+07
1.57583e+07
1.56639e+07
1.55585e+07
1.54456e+07
1.53282e+07
1.52085e+07
1.50884e+07
1.49691e+07
1.48516e+07
1.47366e+07
1.46245e+07
1.45158e+07
1.44107e+07
1.43093e+07
1.42117e+07
1.59166e+07
1.58855e+07
1.58284e+07
1.57506e+07
1.56574e+07
1.55529e+07
1.5441e+07
1.53244e+07
1.52055e+07
1.5086e+07
1.49672e+07
1.48502e+07
1.47356e+07
1.46239e+07
1.45155e+07
1.44106e+07
1.43094e+07
1.42119e+07
1.59111e+07
1.58803e+07
1.58236e+07
1.57465e+07
1.56538e+07
1.55499e+07
1.54384e+07
1.53223e+07
1.52038e+07
1.50847e+07
1.49662e+07
1.48494e+07
1.4735e+07
1.46235e+07
1.45152e+07
1.44105e+07
1.43094e+07
1.42121e+07
1.59089e+07
1.58782e+07
1.58217e+07
1.57448e+07
1.56523e+07
1.55487e+07
1.54374e+07
1.53215e+07
1.52031e+07
1.50841e+07
1.49658e+07
1.48491e+07
1.47347e+07
1.46233e+07
1.45151e+07
1.44105e+07
1.43094e+07
1.42121e+07
1.07606e+07
1.07606e+07
1.07604e+07
1.07602e+07
1.07598e+07
1.07594e+07
1.07589e+07
1.07584e+07
1.07577e+07
1.0757e+07
1.07561e+07
1.07553e+07
1.07543e+07
1.07533e+07
1.07521e+07
1.0751e+07
1.07497e+07
1.07484e+07
1.0747e+07
1.07456e+07
1.07441e+07
1.07425e+07
1.07409e+07
1.07393e+07
1.07376e+07
1.07359e+07
1.07341e+07
1.07323e+07
1.07304e+07
1.07285e+07
1.07266e+07
1.07247e+07
1.07228e+07
1.07208e+07
1.07188e+07
1.07168e+07
1.07148e+07
1.07128e+07
1.07108e+07
1.07087e+07
1.07067e+07
1.07046e+07
1.07025e+07
1.07004e+07
1.06984e+07
1.06963e+07
1.06942e+07
1.06921e+07
1.069e+07
1.06878e+07
1.06857e+07
1.06836e+07
1.06814e+07
1.06793e+07
1.06771e+07
1.0675e+07
1.06728e+07
1.06706e+07
1.06684e+07
1.06662e+07
1.0664e+07
1.06618e+07
1.06596e+07
1.06573e+07
1.06551e+07
1.06528e+07
1.06505e+07
1.06483e+07
1.0646e+07
1.06437e+07
1.06413e+07
1.0639e+07
1.06367e+07
1.06343e+07
1.06319e+07
1.06295e+07
1.06271e+07
1.06247e+07
1.06223e+07
1.06198e+07
1.06174e+07
1.06149e+07
1.06124e+07
1.06099e+07
1.06074e+07
1.06048e+07
1.06023e+07
1.05997e+07
1.05971e+07
1.05945e+07
1.05918e+07
1.05892e+07
1.05865e+07
1.05838e+07
1.05811e+07
1.05784e+07
1.05757e+07
1.05729e+07
1.05701e+07
1.05673e+07
1.05645e+07
1.05616e+07
1.05588e+07
1.05559e+07
1.0553e+07
1.055e+07
1.05471e+07
1.05441e+07
1.05411e+07
1.05381e+07
1.0535e+07
1.0532e+07
1.05289e+07
1.05258e+07
1.05226e+07
1.05195e+07
1.05163e+07
1.05131e+07
1.05099e+07
1.05066e+07
1.05033e+07
1.05e+07
1.04967e+07
1.04933e+07
1.04899e+07
1.04865e+07
1.04831e+07
1.04796e+07
1.04761e+07
1.04726e+07
1.04691e+07
1.04655e+07
1.04619e+07
1.04583e+07
1.04546e+07
1.04509e+07
1.04472e+07
1.04435e+07
1.04397e+07
1.04359e+07
1.04321e+07
1.04282e+07
1.04243e+07
1.04204e+07
1.04165e+07
1.04125e+07
1.04085e+07
1.04044e+07
1.04004e+07
1.03962e+07
1.03921e+07
1.03879e+07
1.03837e+07
1.03795e+07
1.03752e+07
1.03709e+07
1.03666e+07
1.03622e+07
1.03578e+07
1.03534e+07
1.03489e+07
1.03444e+07
1.03399e+07
1.03353e+07
1.03307e+07
1.03261e+07
1.03214e+07
1.03167e+07
1.0312e+07
1.03072e+07
1.03024e+07
1.02975e+07
1.02926e+07
1.02877e+07
1.02828e+07
1.02778e+07
1.02728e+07
1.02678e+07
1.02629e+07
1.02579e+07
1.0761e+07
1.07609e+07
1.07607e+07
1.07605e+07
1.07602e+07
1.07597e+07
1.07592e+07
1.07587e+07
1.0758e+07
1.07572e+07
1.07564e+07
1.07555e+07
1.07545e+07
1.07535e+07
1.07524e+07
1.07512e+07
1.07499e+07
1.07486e+07
1.07472e+07
1.07457e+07
1.07442e+07
1.07427e+07
1.07411e+07
1.07394e+07
1.07377e+07
1.07359e+07
1.07341e+07
1.07323e+07
1.07305e+07
1.07286e+07
1.07267e+07
1.07247e+07
1.07228e+07
1.07208e+07
1.07188e+07
1.07168e+07
1.07148e+07
1.07128e+07
1.07107e+07
1.07087e+07
1.07066e+07
1.07046e+07
1.07025e+07
1.07004e+07
1.06983e+07
1.06962e+07
1.06942e+07
1.0692e+07
1.06899e+07
1.06878e+07
1.06857e+07
1.06836e+07
1.06814e+07
1.06793e+07
1.06771e+07
1.06749e+07
1.06728e+07
1.06706e+07
1.06684e+07
1.06662e+07
1.0664e+07
1.06618e+07
1.06596e+07
1.06573e+07
1.06551e+07
1.06528e+07
1.06505e+07
1.06483e+07
1.0646e+07
1.06436e+07
1.06413e+07
1.0639e+07
1.06366e+07
1.06343e+07
1.06319e+07
1.06295e+07
1.06271e+07
1.06247e+07
1.06223e+07
1.06198e+07
1.06174e+07
1.06149e+07
1.06124e+07
1.06099e+07
1.06074e+07
1.06048e+07
1.06023e+07
1.05997e+07
1.05971e+07
1.05945e+07
1.05918e+07
1.05892e+07
1.05865e+07
1.05838e+07
1.05811e+07
1.05784e+07
1.05757e+07
1.05729e+07
1.05701e+07
1.05673e+07
1.05645e+07
1.05616e+07
1.05588e+07
1.05559e+07
1.0553e+07
1.055e+07
1.05471e+07
1.05441e+07
1.05411e+07
1.05381e+07
1.0535e+07
1.0532e+07
1.05289e+07
1.05258e+07
1.05226e+07
1.05195e+07
1.05163e+07
1.05131e+07
1.05098e+07
1.05066e+07
1.05033e+07
1.05e+07
1.04967e+07
1.04933e+07
1.04899e+07
1.04865e+07
1.04831e+07
1.04796e+07
1.04761e+07
1.04726e+07
1.04691e+07
1.04655e+07
1.04619e+07
1.04583e+07
1.04546e+07
1.04509e+07
1.04472e+07
1.04435e+07
1.04397e+07
1.04359e+07
1.04321e+07
1.04282e+07
1.04243e+07
1.04204e+07
1.04165e+07
1.04125e+07
1.04085e+07
1.04044e+07
1.04004e+07
1.03962e+07
1.03921e+07
1.03879e+07
1.03837e+07
1.03795e+07
1.03752e+07
1.03709e+07
1.03666e+07
1.03622e+07
1.03578e+07
1.03534e+07
1.03489e+07
1.03444e+07
1.03399e+07
1.03353e+07
1.03307e+07
1.03261e+07
1.03214e+07
1.03167e+07
1.03119e+07
1.03072e+07
1.03024e+07
1.02975e+07
1.02926e+07
1.02877e+07
1.02828e+07
1.02778e+07
1.02728e+07
1.02678e+07
1.02628e+07
1.02579e+07
1.07617e+07
1.07616e+07
1.07615e+07
1.07612e+07
1.07609e+07
1.07604e+07
1.07599e+07
1.07593e+07
1.07586e+07
1.07578e+07
1.07569e+07
1.0756e+07
1.0755e+07
1.0754e+07
1.07528e+07
1.07516e+07
1.07503e+07
1.07489e+07
1.07475e+07
1.07461e+07
1.07445e+07
1.07429e+07
1.07413e+07
1.07396e+07
1.07379e+07
1.07361e+07
1.07343e+07
1.07324e+07
1.07305e+07
1.07286e+07
1.07267e+07
1.07248e+07
1.07228e+07
1.07208e+07
1.07188e+07
1.07168e+07
1.07148e+07
1.07127e+07
1.07107e+07
1.07087e+07
1.07066e+07
1.07045e+07
1.07025e+07
1.07004e+07
1.06983e+07
1.06962e+07
1.06941e+07
1.0692e+07
1.06899e+07
1.06878e+07
1.06856e+07
1.06835e+07
1.06814e+07
1.06792e+07
1.06771e+07
1.06749e+07
1.06727e+07
1.06706e+07
1.06684e+07
1.06662e+07
1.0664e+07
1.06618e+07
1.06595e+07
1.06573e+07
1.0655e+07
1.06528e+07
1.06505e+07
1.06482e+07
1.06459e+07
1.06436e+07
1.06413e+07
1.0639e+07
1.06366e+07
1.06343e+07
1.06319e+07
1.06295e+07
1.06271e+07
1.06247e+07
1.06223e+07
1.06198e+07
1.06174e+07
1.06149e+07
1.06124e+07
1.06099e+07
1.06074e+07
1.06048e+07
1.06023e+07
1.05997e+07
1.05971e+07
1.05945e+07
1.05918e+07
1.05892e+07
1.05865e+07
1.05838e+07
1.05811e+07
1.05784e+07
1.05757e+07
1.05729e+07
1.05701e+07
1.05673e+07
1.05645e+07
1.05616e+07
1.05588e+07
1.05559e+07
1.0553e+07
1.055e+07
1.05471e+07
1.05441e+07
1.05411e+07
1.05381e+07
1.0535e+07
1.0532e+07
1.05289e+07
1.05258e+07
1.05226e+07
1.05195e+07
1.05163e+07
1.05131e+07
1.05098e+07
1.05066e+07
1.05033e+07
1.05e+07
1.04967e+07
1.04933e+07
1.04899e+07
1.04865e+07
1.04831e+07
1.04796e+07
1.04761e+07
1.04726e+07
1.04691e+07
1.04655e+07
1.04619e+07
1.04583e+07
1.04546e+07
1.04509e+07
1.04472e+07
1.04435e+07
1.04397e+07
1.04359e+07
1.04321e+07
1.04282e+07
1.04243e+07
1.04204e+07
1.04165e+07
1.04125e+07
1.04085e+07
1.04044e+07
1.04003e+07
1.03962e+07
1.03921e+07
1.03879e+07
1.03837e+07
1.03795e+07
1.03752e+07
1.03709e+07
1.03666e+07
1.03622e+07
1.03578e+07
1.03534e+07
1.03489e+07
1.03444e+07
1.03399e+07
1.03353e+07
1.03307e+07
1.03261e+07
1.03214e+07
1.03167e+07
1.03119e+07
1.03072e+07
1.03023e+07
1.02975e+07
1.02926e+07
1.02877e+07
1.02828e+07
1.02778e+07
1.02728e+07
1.02678e+07
1.02628e+07
1.02578e+07
1.07629e+07
1.07628e+07
1.07626e+07
1.07624e+07
1.07619e+07
1.07614e+07
1.07609e+07
1.07603e+07
1.07595e+07
1.07586e+07
1.07577e+07
1.07568e+07
1.07558e+07
1.07547e+07
1.07535e+07
1.07522e+07
1.07509e+07
1.07495e+07
1.0748e+07
1.07465e+07
1.07449e+07
1.07433e+07
1.07416e+07
1.07399e+07
1.07381e+07
1.07363e+07
1.07345e+07
1.07326e+07
1.07307e+07
1.07287e+07
1.07268e+07
1.07248e+07
1.07228e+07
1.07208e+07
1.07188e+07
1.07168e+07
1.07147e+07
1.07127e+07
1.07107e+07
1.07086e+07
1.07065e+07
1.07045e+07
1.07024e+07
1.07003e+07
1.06982e+07
1.06961e+07
1.0694e+07
1.06919e+07
1.06898e+07
1.06877e+07
1.06856e+07
1.06835e+07
1.06813e+07
1.06792e+07
1.0677e+07
1.06749e+07
1.06727e+07
1.06705e+07
1.06683e+07
1.06661e+07
1.06639e+07
1.06617e+07
1.06595e+07
1.06573e+07
1.0655e+07
1.06528e+07
1.06505e+07
1.06482e+07
1.06459e+07
1.06436e+07
1.06413e+07
1.0639e+07
1.06366e+07
1.06343e+07
1.06319e+07
1.06295e+07
1.06271e+07
1.06247e+07
1.06223e+07
1.06198e+07
1.06173e+07
1.06149e+07
1.06124e+07
1.06099e+07
1.06073e+07
1.06048e+07
1.06022e+07
1.05997e+07
1.05971e+07
1.05945e+07
1.05918e+07
1.05892e+07
1.05865e+07
1.05838e+07
1.05811e+07
1.05784e+07
1.05756e+07
1.05729e+07
1.05701e+07
1.05673e+07
1.05645e+07
1.05616e+07
1.05588e+07
1.05559e+07
1.0553e+07
1.055e+07
1.05471e+07
1.05441e+07
1.05411e+07
1.05381e+07
1.0535e+07
1.0532e+07
1.05289e+07
1.05258e+07
1.05226e+07
1.05195e+07
1.05163e+07
1.05131e+07
1.05098e+07
1.05066e+07
1.05033e+07
1.05e+07
1.04967e+07
1.04933e+07
1.04899e+07
1.04865e+07
1.04831e+07
1.04796e+07
1.04761e+07
1.04726e+07
1.04691e+07
1.04655e+07
1.04619e+07
1.04583e+07
1.04546e+07
1.04509e+07
1.04472e+07
1.04435e+07
1.04397e+07
1.04359e+07
1.04321e+07
1.04282e+07
1.04243e+07
1.04204e+07
1.04164e+07
1.04125e+07
1.04085e+07
1.04044e+07
1.04003e+07
1.03962e+07
1.03921e+07
1.03879e+07
1.03837e+07
1.03795e+07
1.03752e+07
1.03709e+07
1.03666e+07
1.03622e+07
1.03578e+07
1.03534e+07
1.03489e+07
1.03444e+07
1.03399e+07
1.03353e+07
1.03307e+07
1.03261e+07
1.03214e+07
1.03167e+07
1.03119e+07
1.03072e+07
1.03023e+07
1.02975e+07
1.02926e+07
1.02877e+07
1.02827e+07
1.02778e+07
1.02728e+07
1.02678e+07
1.02628e+07
1.02577e+07
1.08117e+07
1.0809e+07
1.08031e+07
1.07923e+07
1.07878e+07
1.07748e+07
1.07663e+07
1.07625e+07
1.07607e+07
1.07595e+07
1.07585e+07
1.07576e+07
1.07568e+07
1.07558e+07
1.07545e+07
1.07531e+07
1.07516e+07
1.07502e+07
1.07487e+07
1.07471e+07
1.07455e+07
1.07438e+07
1.07421e+07
1.07403e+07
1.07385e+07
1.07366e+07
1.07347e+07
1.07328e+07
1.07308e+07
1.07288e+07
1.07268e+07
1.07248e+07
1.07228e+07
1.07208e+07
1.07188e+07
1.07167e+07
1.07147e+07
1.07126e+07
1.07106e+07
1.07085e+07
1.07065e+07
1.07044e+07
1.07023e+07
1.07002e+07
1.06981e+07
1.06961e+07
1.0694e+07
1.06919e+07
1.06897e+07
1.06876e+07
1.06855e+07
1.06834e+07
1.06813e+07
1.06791e+07
1.0677e+07
1.06748e+07
1.06726e+07
1.06705e+07
1.06683e+07
1.06661e+07
1.06639e+07
1.06617e+07
1.06594e+07
1.06572e+07
1.0655e+07
1.06527e+07
1.06504e+07
1.06482e+07
1.06459e+07
1.06436e+07
1.06413e+07
1.06389e+07
1.06366e+07
1.06342e+07
1.06319e+07
1.06295e+07
1.06271e+07
1.06247e+07
1.06222e+07
1.06198e+07
1.06173e+07
1.06149e+07
1.06124e+07
1.06099e+07
1.06073e+07
1.06048e+07
1.06022e+07
1.05997e+07
1.05971e+07
1.05944e+07
1.05918e+07
1.05892e+07
1.05865e+07
1.05838e+07
1.05811e+07
1.05784e+07
1.05756e+07
1.05729e+07
1.05701e+07
1.05673e+07
1.05645e+07
1.05616e+07
1.05587e+07
1.05559e+07
1.0553e+07
1.055e+07
1.05471e+07
1.05441e+07
1.05411e+07
1.05381e+07
1.0535e+07
1.0532e+07
1.05289e+07
1.05258e+07
1.05226e+07
1.05195e+07
1.05163e+07
1.05131e+07
1.05098e+07
1.05066e+07
1.05033e+07
1.05e+07
1.04967e+07
1.04933e+07
1.04899e+07
1.04865e+07
1.04831e+07
1.04796e+07
1.04761e+07
1.04726e+07
1.0469e+07
1.04655e+07
1.04619e+07
1.04583e+07
1.04546e+07
1.04509e+07
1.04472e+07
1.04435e+07
1.04397e+07
1.04359e+07
1.04321e+07
1.04282e+07
1.04243e+07
1.04204e+07
1.04164e+07
1.04125e+07
1.04085e+07
1.04044e+07
1.04003e+07
1.03962e+07
1.03921e+07
1.03879e+07
1.03837e+07
1.03795e+07
1.03752e+07
1.03709e+07
1.03666e+07
1.03622e+07
1.03578e+07
1.03534e+07
1.03489e+07
1.03444e+07
1.03399e+07
1.03353e+07
1.03307e+07
1.03261e+07
1.03214e+07
1.03167e+07
1.03119e+07
1.03072e+07
1.03023e+07
1.02975e+07
1.02926e+07
1.02877e+07
1.02827e+07
1.02778e+07
1.02728e+07
1.02677e+07
1.02627e+07
1.02576e+07
1.08908e+07
1.08891e+07
1.08858e+07
1.08814e+07
1.08771e+07
1.08724e+07
1.08697e+07
1.08711e+07
1.08799e+07
1.08744e+07
1.08549e+07
1.08181e+07
1.07672e+07
1.07589e+07
1.07558e+07
1.0754e+07
1.07523e+07
1.07509e+07
1.07495e+07
1.0748e+07
1.07463e+07
1.07445e+07
1.07426e+07
1.07408e+07
1.07389e+07
1.0737e+07
1.0735e+07
1.0733e+07
1.0731e+07
1.07289e+07
1.07269e+07
1.07249e+07
1.07228e+07
1.07208e+07
1.07187e+07
1.07167e+07
1.07146e+07
1.07125e+07
1.07105e+07
1.07084e+07
1.07063e+07
1.07043e+07
1.07022e+07
1.07001e+07
1.0698e+07
1.06959e+07
1.06939e+07
1.06918e+07
1.06896e+07
1.06875e+07
1.06854e+07
1.06833e+07
1.06812e+07
1.0679e+07
1.06769e+07
1.06747e+07
1.06726e+07
1.06704e+07
1.06682e+07
1.0666e+07
1.06638e+07
1.06616e+07
1.06594e+07
1.06572e+07
1.06549e+07
1.06527e+07
1.06504e+07
1.06481e+07
1.06458e+07
1.06435e+07
1.06412e+07
1.06389e+07
1.06365e+07
1.06342e+07
1.06318e+07
1.06294e+07
1.0627e+07
1.06246e+07
1.06222e+07
1.06198e+07
1.06173e+07
1.06148e+07
1.06123e+07
1.06098e+07
1.06073e+07
1.06048e+07
1.06022e+07
1.05996e+07
1.0597e+07
1.05944e+07
1.05918e+07
1.05892e+07
1.05865e+07
1.05838e+07
1.05811e+07
1.05784e+07
1.05756e+07
1.05729e+07
1.05701e+07
1.05673e+07
1.05645e+07
1.05616e+07
1.05587e+07
1.05559e+07
1.05529e+07
1.055e+07
1.05471e+07
1.05441e+07
1.05411e+07
1.05381e+07
1.0535e+07
1.0532e+07
1.05289e+07
1.05258e+07
1.05226e+07
1.05195e+07
1.05163e+07
1.05131e+07
1.05098e+07
1.05066e+07
1.05033e+07
1.05e+07
1.04967e+07
1.04933e+07
1.04899e+07
1.04865e+07
1.04831e+07
1.04796e+07
1.04761e+07
1.04726e+07
1.0469e+07
1.04655e+07
1.04619e+07
1.04582e+07
1.04546e+07
1.04509e+07
1.04472e+07
1.04435e+07
1.04397e+07
1.04359e+07
1.04321e+07
1.04282e+07
1.04243e+07
1.04204e+07
1.04164e+07
1.04125e+07
1.04085e+07
1.04044e+07
1.04003e+07
1.03962e+07
1.03921e+07
1.03879e+07
1.03837e+07
1.03795e+07
1.03752e+07
1.03709e+07
1.03666e+07
1.03622e+07
1.03578e+07
1.03534e+07
1.03489e+07
1.03444e+07
1.03399e+07
1.03353e+07
1.03307e+07
1.03261e+07
1.03214e+07
1.03167e+07
1.03119e+07
1.03071e+07
1.03023e+07
1.02975e+07
1.02926e+07
1.02877e+07
1.02827e+07
1.02777e+07
1.02727e+07
1.02677e+07
1.02626e+07
1.02576e+07
1.09711e+07
1.09698e+07
1.09675e+07
1.09644e+07
1.09607e+07
1.09566e+07
1.09523e+07
1.09479e+07
1.09427e+07
1.09339e+07
1.0921e+07
1.09051e+07
1.08905e+07
1.08864e+07
1.08958e+07
1.08901e+07
1.08706e+07
1.08348e+07
1.0776e+07
1.07508e+07
1.07471e+07
1.07451e+07
1.07432e+07
1.07414e+07
1.07394e+07
1.07374e+07
1.07353e+07
1.07332e+07
1.07311e+07
1.0729e+07
1.07269e+07
1.07248e+07
1.07228e+07
1.07207e+07
1.07186e+07
1.07165e+07
1.07145e+07
1.07124e+07
1.07103e+07
1.07083e+07
1.07062e+07
1.07041e+07
1.07021e+07
1.07e+07
1.06979e+07
1.06958e+07
1.06937e+07
1.06916e+07
1.06895e+07
1.06874e+07
1.06853e+07
1.06832e+07
1.06811e+07
1.06789e+07
1.06768e+07
1.06746e+07
1.06725e+07
1.06703e+07
1.06681e+07
1.06659e+07
1.06637e+07
1.06615e+07
1.06593e+07
1.06571e+07
1.06548e+07
1.06526e+07
1.06503e+07
1.06481e+07
1.06458e+07
1.06435e+07
1.06412e+07
1.06388e+07
1.06365e+07
1.06342e+07
1.06318e+07
1.06294e+07
1.0627e+07
1.06246e+07
1.06222e+07
1.06197e+07
1.06173e+07
1.06148e+07
1.06123e+07
1.06098e+07
1.06073e+07
1.06047e+07
1.06022e+07
1.05996e+07
1.0597e+07
1.05944e+07
1.05918e+07
1.05891e+07
1.05865e+07
1.05838e+07
1.05811e+07
1.05784e+07
1.05756e+07
1.05729e+07
1.05701e+07
1.05673e+07
1.05644e+07
1.05616e+07
1.05587e+07
1.05558e+07
1.05529e+07
1.055e+07
1.05471e+07
1.05441e+07
1.05411e+07
1.05381e+07
1.0535e+07
1.0532e+07
1.05289e+07
1.05258e+07
1.05226e+07
1.05195e+07
1.05163e+07
1.05131e+07
1.05098e+07
1.05066e+07
1.05033e+07
1.05e+07
1.04966e+07
1.04933e+07
1.04899e+07
1.04865e+07
1.04831e+07
1.04796e+07
1.04761e+07
1.04726e+07
1.0469e+07
1.04655e+07
1.04619e+07
1.04582e+07
1.04546e+07
1.04509e+07
1.04472e+07
1.04435e+07
1.04397e+07
1.04359e+07
1.04321e+07
1.04282e+07
1.04243e+07
1.04204e+07
1.04164e+07
1.04125e+07
1.04085e+07
1.04044e+07
1.04003e+07
1.03962e+07
1.03921e+07
1.03879e+07
1.03837e+07
1.03795e+07
1.03752e+07
1.03709e+07
1.03666e+07
1.03622e+07
1.03578e+07
1.03534e+07
1.03489e+07
1.03444e+07
1.03399e+07
1.03353e+07
1.03307e+07
1.03261e+07
1.03214e+07
1.03167e+07
1.03119e+07
1.03071e+07
1.03023e+07
1.02975e+07
1.02926e+07
1.02877e+07
1.02827e+07
1.02777e+07
1.02727e+07
1.02677e+07
1.02626e+07
1.02575e+07
1.10529e+07
1.10517e+07
1.10496e+07
1.10466e+07
1.10427e+07
1.10381e+07
1.10326e+07
1.10261e+07
1.10185e+07
1.10093e+07
1.09985e+07
1.09868e+07
1.09754e+07
1.09654e+07
1.09561e+07
1.09435e+07
1.09262e+07
1.09046e+07
1.08816e+07
1.08666e+07
1.08639e+07
1.08451e+07
1.0809e+07
1.07506e+07
1.07403e+07
1.07377e+07
1.07356e+07
1.07334e+07
1.07312e+07
1.0729e+07
1.07269e+07
1.07248e+07
1.07227e+07
1.07206e+07
1.07185e+07
1.07164e+07
1.07143e+07
1.07122e+07
1.07102e+07
1.07081e+07
1.0706e+07
1.0704e+07
1.07019e+07
1.06998e+07
1.06977e+07
1.06957e+07
1.06936e+07
1.06915e+07
1.06894e+07
1.06873e+07
1.06852e+07
1.0683e+07
1.06809e+07
1.06788e+07
1.06767e+07
1.06745e+07
1.06724e+07
1.06702e+07
1.0668e+07
1.06658e+07
1.06636e+07
1.06614e+07
1.06592e+07
1.0657e+07
1.06548e+07
1.06525e+07
1.06503e+07
1.0648e+07
1.06457e+07
1.06434e+07
1.06411e+07
1.06388e+07
1.06365e+07
1.06341e+07
1.06317e+07
1.06294e+07
1.0627e+07
1.06246e+07
1.06221e+07
1.06197e+07
1.06172e+07
1.06148e+07
1.06123e+07
1.06098e+07
1.06073e+07
1.06047e+07
1.06022e+07
1.05996e+07
1.0597e+07
1.05944e+07
1.05918e+07
1.05891e+07
1.05865e+07
1.05838e+07
1.05811e+07
1.05783e+07
1.05756e+07
1.05728e+07
1.05701e+07
1.05673e+07
1.05644e+07
1.05616e+07
1.05587e+07
1.05558e+07
1.05529e+07
1.055e+07
1.0547e+07
1.05441e+07
1.05411e+07
1.05381e+07
1.0535e+07
1.05319e+07
1.05289e+07
1.05257e+07
1.05226e+07
1.05195e+07
1.05163e+07
1.05131e+07
1.05098e+07
1.05066e+07
1.05033e+07
1.05e+07
1.04966e+07
1.04933e+07
1.04899e+07
1.04865e+07
1.04831e+07
1.04796e+07
1.04761e+07
1.04726e+07
1.0469e+07
1.04655e+07
1.04619e+07
1.04582e+07
1.04546e+07
1.04509e+07
1.04472e+07
1.04434e+07
1.04397e+07
1.04359e+07
1.04321e+07
1.04282e+07
1.04243e+07
1.04204e+07
1.04164e+07
1.04125e+07
1.04084e+07
1.04044e+07
1.04003e+07
1.03962e+07
1.03921e+07
1.03879e+07
1.03837e+07
1.03795e+07
1.03752e+07
1.03709e+07
1.03666e+07
1.03622e+07
1.03578e+07
1.03534e+07
1.03489e+07
1.03444e+07
1.03399e+07
1.03353e+07
1.03307e+07
1.03261e+07
1.03214e+07
1.03167e+07
1.03119e+07
1.03071e+07
1.03023e+07
1.02975e+07
1.02926e+07
1.02876e+07
1.02827e+07
1.02777e+07
1.02727e+07
1.02676e+07
1.02625e+07
1.02574e+07
1.11369e+07
1.11356e+07
1.11334e+07
1.11302e+07
1.1126e+07
1.11208e+07
1.11145e+07
1.11072e+07
1.10988e+07
1.10892e+07
1.10785e+07
1.10669e+07
1.10547e+07
1.10419e+07
1.10283e+07
1.10132e+07
1.09962e+07
1.09777e+07
1.09586e+07
1.09401e+07
1.09219e+07
1.09002e+07
1.08739e+07
1.08454e+07
1.08229e+07
1.08032e+07
1.07622e+07
1.07338e+07
1.0731e+07
1.0729e+07
1.07268e+07
1.07246e+07
1.07225e+07
1.07204e+07
1.07183e+07
1.07162e+07
1.07141e+07
1.0712e+07
1.071e+07
1.07079e+07
1.07058e+07
1.07038e+07
1.07017e+07
1.06996e+07
1.06975e+07
1.06955e+07
1.06934e+07
1.06913e+07
1.06892e+07
1.06871e+07
1.0685e+07
1.06829e+07
1.06808e+07
1.06787e+07
1.06765e+07
1.06744e+07
1.06722e+07
1.06701e+07
1.06679e+07
1.06657e+07
1.06635e+07
1.06614e+07
1.06591e+07
1.06569e+07
1.06547e+07
1.06525e+07
1.06502e+07
1.06479e+07
1.06457e+07
1.06434e+07
1.06411e+07
1.06387e+07
1.06364e+07
1.06341e+07
1.06317e+07
1.06293e+07
1.06269e+07
1.06245e+07
1.06221e+07
1.06197e+07
1.06172e+07
1.06147e+07
1.06123e+07
1.06098e+07
1.06072e+07
1.06047e+07
1.06021e+07
1.05996e+07
1.0597e+07
1.05944e+07
1.05918e+07
1.05891e+07
1.05864e+07
1.05838e+07
1.05811e+07
1.05783e+07
1.05756e+07
1.05728e+07
1.057e+07
1.05672e+07
1.05644e+07
1.05616e+07
1.05587e+07
1.05558e+07
1.05529e+07
1.055e+07
1.0547e+07
1.05441e+07
1.05411e+07
1.0538e+07
1.0535e+07
1.05319e+07
1.05289e+07
1.05257e+07
1.05226e+07
1.05194e+07
1.05163e+07
1.05131e+07
1.05098e+07
1.05066e+07
1.05033e+07
1.05e+07
1.04966e+07
1.04933e+07
1.04899e+07
1.04865e+07
1.04831e+07
1.04796e+07
1.04761e+07
1.04726e+07
1.0469e+07
1.04655e+07
1.04619e+07
1.04582e+07
1.04546e+07
1.04509e+07
1.04472e+07
1.04434e+07
1.04397e+07
1.04359e+07
1.0432e+07
1.04282e+07
1.04243e+07
1.04204e+07
1.04164e+07
1.04125e+07
1.04084e+07
1.04044e+07
1.04003e+07
1.03962e+07
1.03921e+07
1.03879e+07
1.03837e+07
1.03795e+07
1.03752e+07
1.03709e+07
1.03666e+07
1.03622e+07
1.03578e+07
1.03534e+07
1.03489e+07
1.03444e+07
1.03399e+07
1.03353e+07
1.03307e+07
1.03261e+07
1.03214e+07
1.03167e+07
1.03119e+07
1.03071e+07
1.03023e+07
1.02974e+07
1.02926e+07
1.02876e+07
1.02827e+07
1.02777e+07
1.02726e+07
1.02676e+07
1.02625e+07
1.02573e+07
1.12234e+07
1.12221e+07
1.12196e+07
1.12161e+07
1.12115e+07
1.12059e+07
1.1199e+07
1.11911e+07
1.1182e+07
1.11718e+07
1.11604e+07
1.11481e+07
1.11347e+07
1.11204e+07
1.1105e+07
1.10885e+07
1.10708e+07
1.10519e+07
1.10322e+07
1.10117e+07
1.09902e+07
1.09673e+07
1.09427e+07
1.09172e+07
1.08916e+07
1.08652e+07
1.08362e+07
1.08077e+07
1.07793e+07
1.07314e+07
1.07265e+07
1.07244e+07
1.07222e+07
1.07201e+07
1.0718e+07
1.07159e+07
1.07138e+07
1.07118e+07
1.07097e+07
1.07076e+07
1.07056e+07
1.07035e+07
1.07015e+07
1.06994e+07
1.06973e+07
1.06953e+07
1.06932e+07
1.06911e+07
1.0689e+07
1.06869e+07
1.06848e+07
1.06827e+07
1.06806e+07
1.06785e+07
1.06764e+07
1.06742e+07
1.06721e+07
1.067e+07
1.06678e+07
1.06656e+07
1.06634e+07
1.06612e+07
1.0659e+07
1.06568e+07
1.06546e+07
1.06524e+07
1.06501e+07
1.06479e+07
1.06456e+07
1.06433e+07
1.0641e+07
1.06387e+07
1.06363e+07
1.0634e+07
1.06316e+07
1.06293e+07
1.06269e+07
1.06245e+07
1.06221e+07
1.06196e+07
1.06172e+07
1.06147e+07
1.06122e+07
1.06097e+07
1.06072e+07
1.06047e+07
1.06021e+07
1.05995e+07
1.0597e+07
1.05944e+07
1.05917e+07
1.05891e+07
1.05864e+07
1.05837e+07
1.0581e+07
1.05783e+07
1.05756e+07
1.05728e+07
1.057e+07
1.05672e+07
1.05644e+07
1.05616e+07
1.05587e+07
1.05558e+07
1.05529e+07
1.055e+07
1.0547e+07
1.05441e+07
1.05411e+07
1.0538e+07
1.0535e+07
1.05319e+07
1.05288e+07
1.05257e+07
1.05226e+07
1.05194e+07
1.05163e+07
1.0513e+07
1.05098e+07
1.05066e+07
1.05033e+07
1.05e+07
1.04966e+07
1.04933e+07
1.04899e+07
1.04865e+07
1.0483e+07
1.04796e+07
1.04761e+07
1.04726e+07
1.0469e+07
1.04655e+07
1.04619e+07
1.04582e+07
1.04546e+07
1.04509e+07
1.04472e+07
1.04434e+07
1.04397e+07
1.04359e+07
1.0432e+07
1.04282e+07
1.04243e+07
1.04204e+07
1.04164e+07
1.04125e+07
1.04084e+07
1.04044e+07
1.04003e+07
1.03962e+07
1.03921e+07
1.03879e+07
1.03837e+07
1.03795e+07
1.03752e+07
1.03709e+07
1.03666e+07
1.03622e+07
1.03578e+07
1.03534e+07
1.03489e+07
1.03444e+07
1.03399e+07
1.03353e+07
1.03307e+07
1.03261e+07
1.03214e+07
1.03167e+07
1.03119e+07
1.03071e+07
1.03023e+07
1.02974e+07
1.02925e+07
1.02876e+07
1.02826e+07
1.02776e+07
1.02726e+07
1.02675e+07
1.02624e+07
1.02572e+07
1.13133e+07
1.13117e+07
1.13091e+07
1.13052e+07
1.13002e+07
1.1294e+07
1.12865e+07
1.12779e+07
1.1268e+07
1.1257e+07
1.12448e+07
1.12314e+07
1.12169e+07
1.12013e+07
1.11846e+07
1.11667e+07
1.11478e+07
1.11278e+07
1.11067e+07
1.10847e+07
1.10617e+07
1.10375e+07
1.10123e+07
1.09861e+07
1.0959e+07
1.09311e+07
1.09019e+07
1.08718e+07
1.08403e+07
1.08059e+07
1.07718e+07
1.07264e+07
1.07218e+07
1.07197e+07
1.07177e+07
1.07156e+07
1.07135e+07
1.07115e+07
1.07094e+07
1.07074e+07
1.07053e+07
1.07032e+07
1.07012e+07
1.06991e+07
1.06971e+07
1.0695e+07
1.0693e+07
1.06909e+07
1.06888e+07
1.06867e+07
1.06846e+07
1.06825e+07
1.06804e+07
1.06783e+07
1.06762e+07
1.06741e+07
1.0672e+07
1.06698e+07
1.06677e+07
1.06655e+07
1.06633e+07
1.06611e+07
1.06589e+07
1.06567e+07
1.06545e+07
1.06523e+07
1.065e+07
1.06478e+07
1.06455e+07
1.06432e+07
1.06409e+07
1.06386e+07
1.06363e+07
1.06339e+07
1.06316e+07
1.06292e+07
1.06268e+07
1.06244e+07
1.0622e+07
1.06196e+07
1.06171e+07
1.06147e+07
1.06122e+07
1.06097e+07
1.06072e+07
1.06046e+07
1.06021e+07
1.05995e+07
1.05969e+07
1.05943e+07
1.05917e+07
1.05891e+07
1.05864e+07
1.05837e+07
1.0581e+07
1.05783e+07
1.05756e+07
1.05728e+07
1.057e+07
1.05672e+07
1.05644e+07
1.05616e+07
1.05587e+07
1.05558e+07
1.05529e+07
1.055e+07
1.0547e+07
1.0544e+07
1.05411e+07
1.0538e+07
1.0535e+07
1.05319e+07
1.05288e+07
1.05257e+07
1.05226e+07
1.05194e+07
1.05163e+07
1.0513e+07
1.05098e+07
1.05066e+07
1.05033e+07
1.05e+07
1.04966e+07
1.04933e+07
1.04899e+07
1.04865e+07