/*--------------------------------*- C++ -*----------------------------------*\
  =========                 |
  \\      /  F ield         | OpenFOAM: The Open Source CFD Toolbox
   \\    /   O peration     | Website:  https://openfoam.org
    \\  /    A nd           | Version:  10
     \\/     M anipulation  |
\*---------------------------------------------------------------------------*/
FoamFile
{
    format      ascii;
    class       volVectorField;
    location    "8750";
    object      Ua;
}
// * * * * * * * * * * * * * * * * * * * * * * * * * * * * * * * * * * * * * //

dimensions      [0 1 -1 0 0 0 0];

internalField   nonuniform List<vector> 
3200
(
(-2.84454e-07 4.10798e-07 0)
(-8.49893e-07 4.13066e-07 0)
(-1.4099e-06 4.17531e-07 0)
(-1.96738e-06 4.24172e-07 0)
(-2.5251e-06 4.33011e-07 0)
(-3.08574e-06 4.44114e-07 0)
(-3.65191e-06 4.57586e-07 0)
(-4.22628e-06 4.73579e-07 0)
(-4.81155e-06 4.92288e-07 0)
(-5.41053e-06 5.13962e-07 0)
(-6.02621e-06 5.38909e-07 0)
(-6.66179e-06 5.67502e-07 0)
(-7.32075e-06 6.00197e-07 0)
(-8.00692e-06 6.37542e-07 0)
(-8.72455e-06 6.802e-07 0)
(-9.47844e-06 7.28977e-07 0)
(-1.0274e-05 7.84848e-07 0)
(-1.11176e-05 8.49007e-07 0)
(-1.20163e-05 9.22921e-07 0)
(-1.29785e-05 1.00841e-06 0)
(-1.40142e-05 1.10773e-06 0)
(-1.51353e-05 1.22376e-06 0)
(-1.63557e-05 1.36014e-06 0)
(-1.76928e-05 1.52161e-06 0)
(-1.91678e-05 1.71438e-06 0)
(-2.08071e-05 1.94675e-06 0)
(-2.26443e-05 2.23002e-06 0)
(-2.47226e-05 2.57994e-06 0)
(-2.70991e-05 3.01887e-06 0)
(-2.98502e-05 3.57936e-06 0)
(-3.30815e-05 4.3099e-06 0)
(-3.69416e-05 5.28432e-06 0)
(-4.16453e-05 6.61741e-06 0)
(-4.75105e-05 8.49088e-06 0)
(-5.50179e-05 1.1197e-05 0)
(-6.00212e-05 1.51238e-05 0)
(-3.25547e-05 7.98186e-05 0)
(-3.02144e-06 1.5036e-05 0)
(-1.2326e-06 7.05236e-06 0)
(-4.28959e-07 3.45687e-06 0)
(-2.81151e-07 1.22762e-06 0)
(-8.39968e-07 1.23432e-06 0)
(-1.39325e-06 1.2475e-06 0)
(-1.94377e-06 1.26709e-06 0)
(-2.49415e-06 1.29317e-06 0)
(-3.04692e-06 1.32589e-06 0)
(-3.60454e-06 1.36558e-06 0)
(-4.16949e-06 1.41264e-06 0)
(-4.74427e-06 1.46765e-06 0)
(-5.33147e-06 1.5313e-06 0)
(-5.93379e-06 1.60446e-06 0)
(-6.55411e-06 1.68818e-06 0)
(-7.19548e-06 1.78374e-06 0)
(-7.86126e-06 1.89268e-06 0)
(-8.5551e-06 2.01683e-06 0)
(-9.28103e-06 2.15841e-06 0)
(-1.00435e-05 2.32009e-06 0)
(-1.08477e-05 2.50511e-06 0)
(-1.16991e-05 2.7174e-06 0)
(-1.26042e-05 2.96178e-06 0)
(-1.35702e-05 3.24415e-06 0)
(-1.46054e-05 3.57184e-06 0)
(-1.57193e-05 3.95399e-06 0)
(-1.69223e-05 4.40211e-06 0)
(-1.82264e-05 4.9308e-06 0)
(-1.96448e-05 5.55879e-06 0)
(-2.11914e-05 6.31029e-06 0)
(-2.288e-05 7.21695e-06 0)
(-2.47225e-05 8.32056e-06 0)
(-2.67249e-05 9.67676e-06 0)
(-2.88797e-05 1.13604e-05 0)
(-3.11521e-05 1.34727e-05 0)
(-3.34549e-05 1.61518e-05 0)
(-3.56019e-05 1.95865e-05 0)
(-3.72264e-05 2.40356e-05 0)
(-3.76683e-05 2.97651e-05 0)
(-3.92643e-05 2.75658e-05 0)
(-4.71745e-05 1.93295e-05 0)
(-6.07799e-05 2.27763e-05 0)
(-3.4264e-05 -3.29439e-06 0)
(-2.74701e-07 2.03037e-06 0)
(-8.20593e-07 2.04117e-06 0)
(-1.36077e-06 2.06244e-06 0)
(-1.89773e-06 2.09405e-06 0)
(-2.43384e-06 2.13606e-06 0)
(-2.97135e-06 2.18874e-06 0)
(-3.51243e-06 2.25253e-06 0)
(-4.05923e-06 2.32805e-06 0)
(-4.61388e-06 2.41614e-06 0)
(-5.17854e-06 2.51783e-06 0)
(-5.75542e-06 2.63442e-06 0)
(-6.34678e-06 2.76744e-06 0)
(-6.955e-06 2.91876e-06 0)
(-7.58257e-06 3.09059e-06 0)
(-8.23209e-06 3.28556e-06 0)
(-8.90635e-06 3.50679e-06 0)
(-9.60826e-06 3.75802e-06 0)
(-1.03409e-05 4.04365e-06 0)
(-1.11076e-05 4.36897e-06 0)
(-1.19116e-05 4.74027e-06 0)
(-1.27563e-05 5.16511e-06 0)
(-1.36453e-05 5.65255e-06 0)
(-1.45817e-05 6.21346e-06 0)
(-1.55682e-05 6.86098e-06 0)
(-1.66068e-05 7.6109e-06 0)
(-1.76979e-05 8.48221e-06 0)
(-1.88398e-05 9.49765e-06 0)
(-2.00274e-05 1.06842e-05 0)
(-2.12507e-05 1.20736e-05 0)
(-2.24929e-05 1.3702e-05 0)
(-2.37289e-05 1.56091e-05 0)
(-2.4924e-05 1.78358e-05 0)
(-2.60352e-05 2.04176e-05 0)
(-2.70193e-05 2.33731e-05 0)
(-2.78549e-05 2.66825e-05 0)
(-2.85941e-05 3.0248e-05 0)
(-2.94682e-05 3.38386e-05 0)
(-3.06392e-05 3.82575e-05 0)
(-2.82827e-05 4.40252e-05 0)
(-8.35415e-06 -1.49382e-06 0)
(-2.65404e-07 2.81037e-06 0)
(-7.92675e-07 2.8248e-06 0)
(-1.31399e-06 2.85319e-06 0)
(-1.83149e-06 2.89534e-06 0)
(-2.34718e-06 2.9513e-06 0)
(-2.86294e-06 3.02134e-06 0)
(-3.38055e-06 3.10598e-06 0)
(-3.90172e-06 3.20595e-06 0)
(-4.42811e-06 3.32223e-06 0)
(-4.96133e-06 3.45604e-06 0)
(-5.50295e-06 3.60886e-06 0)
(-6.05452e-06 3.7825e-06 0)
(-6.61754e-06 3.97908e-06 0)
(-7.19349e-06 4.2011e-06 0)
(-7.78379e-06 4.45149e-06 0)
(-8.38976e-06 4.73367e-06 0)
(-9.01263e-06 5.05163e-06 0)
(-9.65343e-06 5.41001e-06 0)
(-1.03129e-05 5.81419e-06 0)
(-1.09916e-05 6.27041e-06 0)
(-1.16892e-05 6.78589e-06 0)
(-1.24051e-05 7.36895e-06 0)
(-1.31374e-05 8.02917e-06 0)
(-1.38831e-05 8.77749e-06 0)
(-1.46372e-05 9.62632e-06 0)
(-1.53928e-05 1.05896e-05 0)
(-1.61398e-05 1.16828e-05 0)
(-1.68646e-05 1.29226e-05 0)
(-1.75491e-05 1.43267e-05 0)
(-1.81699e-05 1.59133e-05 0)
(-1.86977e-05 1.76997e-05 0)
(-1.90966e-05 1.97016e-05 0)
(-1.93238e-05 2.19318e-05 0)
(-1.93289e-05 2.43998e-05 0)
(-1.90521e-05 2.71139e-05 0)
(-1.84169e-05 3.00889e-05 0)
(-1.73112e-05 3.33664e-05 0)
(-1.55376e-05 3.70582e-05 0)
(-9.01594e-06 3.69348e-05 0)
(-1.17401e-06 2.66767e-06 0)
(-2.53671e-07 3.56e-06 0)
(-7.57454e-07 3.57744e-06 0)
(-1.25502e-06 3.61173e-06 0)
(-1.7481e-06 3.66258e-06 0)
(-2.23828e-06 3.72997e-06 0)
(-2.727e-06 3.81415e-06 0)
(-3.2156e-06 3.91561e-06 0)
(-3.70531e-06 4.0351e-06 0)
(-4.19727e-06 4.17358e-06 0)
(-4.6925e-06 4.3323e-06 0)
(-5.19192e-06 4.51274e-06 0)
(-5.69632e-06 4.71669e-06 0)
(-6.20637e-06 4.94623e-06 0)
(-6.72255e-06 5.20378e-06 0)
(-7.24516e-06 5.49211e-06 0)
(-7.77425e-06 5.8144e-06 0)
(-8.30954e-06 6.17425e-06 0)
(-8.85038e-06 6.57572e-06 0)
(-9.39562e-06 7.02339e-06 0)
(-9.94349e-06 7.52235e-06 0)
(-1.04915e-05 8.07825e-06 0)
(-1.10361e-05 8.69729e-06 0)
(-1.15726e-05 9.38619e-06 0)
(-1.2095e-05 1.01521e-05 0)
(-1.25954e-05 1.10027e-05 0)
(-1.3064e-05 1.19455e-05 0)
(-1.34886e-05 1.29883e-05 0)
(-1.38541e-05 1.4138e-05 0)
(-1.41426e-05 1.54008e-05 0)
(-1.43328e-05 1.6781e-05 0)
(-1.43998e-05 1.82806e-05 0)
(-1.43153e-05 1.9898e-05 0)
(-1.40472e-05 2.16275e-05 0)
(-1.35599e-05 2.34577e-05 0)
(-1.28141e-05 2.53703e-05 0)
(-1.17671e-05 2.73385e-05 0)
(-1.03736e-05 2.93224e-05 0)
(-8.59026e-06 3.12597e-05 0)
(-4.4662e-06 2.55767e-05 0)
(-4.22887e-07 5.07656e-07 0)
(-2.39987e-07 4.27292e-06 0)
(-7.164e-07 4.29268e-06 0)
(-1.18637e-06 4.3315e-06 0)
(-1.65116e-06 4.38899e-06 0)
(-2.11193e-06 4.46503e-06 0)
(-2.56968e-06 4.55979e-06 0)
(-3.0253e-06 4.67366e-06 0)
(-3.47954e-06 4.80729e-06 0)
(-3.93303e-06 4.96154e-06 0)
(-4.38624e-06 5.1375e-06 0)
(-4.83949e-06 5.3365e-06 0)
(-5.29291e-06 5.56009e-06 0)
(-5.74643e-06 5.81007e-06 0)
(-6.19974e-06 6.08848e-06 0)
(-6.65226e-06 6.39763e-06 0)
(-7.10305e-06 6.74008e-06 0)
(-7.55081e-06 7.11862e-06 0)
(-7.99375e-06 7.53632e-06 0)
(-8.42954e-06 7.99646e-06 0)
(-8.8552e-06 8.50254e-06 0)
(-9.26701e-06 9.05819e-06 0)
(-9.66036e-06 9.66711e-06 0)
(-1.00296e-05 1.0333e-05 0)
(-1.03681e-05 1.10593e-05 0)
(-1.06677e-05 1.18493e-05 0)
(-1.09191e-05 1.27053e-05 0)
(-1.11115e-05 1.36291e-05 0)
(-1.12325e-05 1.4621e-05 0)
(-1.12684e-05 1.56796e-05 0)
(-1.12039e-05 1.68012e-05 0)
(-1.10229e-05 1.79794e-05 0)
(-1.07083e-05 1.92046e-05 0)
(-1.02429e-05 2.04627e-05 0)
(-9.61002e-06 2.17352e-05 0)
(-8.7947e-06 2.29981e-05 0)
(-7.78512e-06 2.42208e-05 0)
(-6.57474e-06 2.53657e-05 0)
(-5.16533e-06 2.63876e-05 0)
(-2.53587e-06 1.8902e-05 0)
(-1.45387e-07 2.03323e-07 0)
(-2.24872e-07 4.94425e-06 0)
(-6.71081e-07 4.96563e-06 0)
(-1.11067e-06 5.00757e-06 0)
(-1.54446e-06 5.06958e-06 0)
(-1.97318e-06 5.15144e-06 0)
(-2.39743e-06 5.25318e-06 0)
(-2.81765e-06 5.37504e-06 0)
(-3.23419e-06 5.51749e-06 0)
(-3.64721e-06 5.68119e-06 0)
(-4.05673e-06 5.86698e-06 0)
(-4.46256e-06 6.0759e-06 0)
(-4.86433e-06 6.30913e-06 0)
(-5.26142e-06 6.56804e-06 0)
(-5.65295e-06 6.85415e-06 0)
(-6.03776e-06 7.16909e-06 0)
(-6.41432e-06 7.51466e-06 0)
(-6.78074e-06 7.8927e-06 0)
(-7.13469e-06 8.30515e-06 0)
(-7.47335e-06 8.75394e-06 0)
(-7.79336e-06 9.24096e-06 0)
(-8.09079e-06 9.76797e-06 0)
(-8.36104e-06 1.03365e-05 0)
(-8.59884e-06 1.09478e-05 0)
(-8.79821e-06 1.16025e-05 0)
(-8.95248e-06 1.23006e-05 0)
(-9.05425e-06 1.30413e-05 0)
(-9.09556e-06 1.38228e-05 0)
(-9.0679e-06 1.46417e-05 0)
(-8.96248e-06 1.54932e-05 0)
(-8.77042e-06 1.63706e-05 0)
(-8.48313e-06 1.7265e-05 0)
(-8.09273e-06 1.81654e-05 0)
(-7.59255e-06 1.90579e-05 0)
(-6.97784e-06 1.99263e-05 0)
(-6.24644e-06 2.07519e-05 0)
(-5.39962e-06 2.15133e-05 0)
(-4.44294e-06 2.21876e-05 0)
(-3.38695e-06 2.27506e-05 0)
(-1.61106e-06 1.49216e-05 0)
(-2.9209e-08 1.0689e-07 0)
(-2.08842e-07 5.5706e-06 0)
(-6.23049e-07 5.59291e-06 0)
(-1.03054e-06 5.63662e-06 0)
(-1.43174e-06 5.70116e-06 0)
(-1.82698e-06 5.78615e-06 0)
(-2.21647e-06 5.89148e-06 0)
(-2.60034e-06 6.01721e-06 0)
(-2.97853e-06 6.16358e-06 0)
(-3.35086e-06 6.33099e-06 0)
(-3.71699e-06 6.51999e-06 0)
(-4.07639e-06 6.73124e-06 0)
(-4.42831e-06 6.96551e-06 0)
(-4.77179e-06 7.22366e-06 0)
(-5.10564e-06 7.50663e-06 0)
(-5.42838e-06 7.81539e-06 0)
(-5.73824e-06 8.15092e-06 0)
(-6.03312e-06 8.51419e-06 0)
(-6.3106e-06 8.90607e-06 0)
(-6.56788e-06 9.32735e-06 0)
(-6.80179e-06 9.77858e-06 0)
(-7.00877e-06 1.02601e-05 0)
(-7.18488e-06 1.07718e-05 0)
(-7.32583e-06 1.13133e-05 0)
(-7.42698e-06 1.18835e-05 0)
(-7.48343e-06 1.24807e-05 0)
(-7.49012e-06 1.31023e-05 0)
(-7.44192e-06 1.37449e-05 0)
(-7.33379e-06 1.44041e-05 0)
(-7.16097e-06 1.50742e-05 0)
(-6.91925e-06 1.57483e-05 0)
(-6.6052e-06 1.64184e-05 0)
(-6.21648e-06 1.70751e-05 0)
(-5.75216e-06 1.77079e-05 0)
(-5.21311e-06 1.83052e-05 0)
(-4.60227e-06 1.88549e-05 0)
(-3.92497e-06 1.93443e-05 0)
(-3.18917e-06 1.97609e-05 0)
(-2.40558e-06 2.00931e-05 0)
(-1.13018e-06 1.23818e-05 0)
(2.0909e-08 6.72601e-08 0)
(-1.92376e-07 6.15003e-06 0)
(-5.73747e-07 6.17264e-06 0)
(-9.48404e-07 6.21692e-06 0)
(-1.31642e-06 6.28217e-06 0)
(-1.6778e-06 6.3679e-06 0)
(-2.03245e-06 6.47384e-06 0)
(-2.38018e-06 6.59984e-06 0)
(-2.72069e-06 6.74592e-06 0)
(-3.05353e-06 6.9122e-06 0)
(-3.37811e-06 7.09889e-06 0)
(-3.69367e-06 7.30628e-06 0)
(-3.99926e-06 7.53474e-06 0)
(-4.29377e-06 7.78463e-06 0)
(-4.57586e-06 8.05633e-06 0)
(-4.84399e-06 8.3502e-06 0)
(-5.09636e-06 8.66654e-06 0)
(-5.33098e-06 9.00554e-06 0)
(-5.54559e-06 9.36727e-06 0)
(-5.73773e-06 9.7516e-06 0)
(-5.90468e-06 1.01582e-05 0)
(-6.04356e-06 1.05863e-05 0)
(-6.15129e-06 1.10351e-05 0)
(-6.22469e-06 1.1503e-05 0)
(-6.26051e-06 1.19881e-05 0)
(-6.25552e-06 1.24881e-05 0)
(-6.20661e-06 1.29997e-05 0)
(-6.11088e-06 1.35194e-05 0)
(-5.96581e-06 1.40428e-05 0)
(-5.76937e-06 1.45648e-05 0)
(-5.52019e-06 1.50798e-05 0)
(-5.21774e-06 1.55814e-05 0)
(-4.86248e-06 1.60629e-05 0)
(-4.45598e-06 1.65172e-05 0)
(-4.00107e-06 1.69368e-05 0)
(-3.50192e-06 1.73145e-05 0)
(-2.96406e-06 1.76434e-05 0)
(-2.39431e-06 1.79172e-05 0)
(-1.80064e-06 1.81308e-05 0)
(-8.40951e-07 1.06547e-05 0)
(4.93699e-08 4.91769e-08 0)
(-1.75896e-07 6.68187e-06 0)
(-5.24434e-07 6.70427e-06 0)
(-8.66365e-07 6.74808e-06 0)
(-1.20147e-06 6.81252e-06 0)
(-1.52949e-06 6.897e-06 0)
(-1.8501e-06 7.00108e-06 0)
(-2.1629e-06 7.12442e-06 0)
(-2.46739e-06 7.26682e-06 0)
(-2.76294e-06 7.42812e-06 0)
(-3.04883e-06 7.60825e-06 0)
(-3.32419e-06 7.80715e-06 0)
(-3.588e-06 8.02478e-06 0)
(-3.83911e-06 8.26109e-06 0)
(-4.07621e-06 8.516e-06 0)
(-4.29781e-06 8.78935e-06 0)
(-4.5023e-06 9.08088e-06 0)
(-4.68791e-06 9.39024e-06 0)
(-4.8527e-06 9.71688e-06 0)
(-4.99466e-06 1.00601e-05 0)
(-5.11163e-06 1.04189e-05 0)
(-5.20143e-06 1.07921e-05 0)
(-5.26183e-06 1.11783e-05 0)
(-5.29063e-06 1.15755e-05 0)
(-5.28572e-06 1.19816e-05 0)
(-5.24517e-06 1.2394e-05 0)
(-5.16726e-06 1.28098e-05 0)
(-5.05061e-06 1.32258e-05 0)
(-4.89427e-06 1.36383e-05 0)
(-4.6978e-06 1.40432e-05 0)
(-4.46134e-06 1.44365e-05 0)
(-4.18575e-06 1.48135e-05 0)
(-3.87262e-06 1.51699e-05 0)
(-3.52435e-06 1.55012e-05 0)
(-3.14415e-06 1.58029e-05 0)
(-2.73604e-06 1.6071e-05 0)
(-2.30478e-06 1.63021e-05 0)
(-1.85581e-06 1.64929e-05 0)
(-1.395e-06 1.66414e-05 0)
(-6.47742e-07 9.4148e-06 0)
(7.01996e-08 3.95867e-08 0)
(-1.59747e-07 7.1666e-06 0)
(-4.76148e-07 7.18835e-06 0)
(-7.86143e-07 7.23087e-06 0)
(-1.0893e-06 7.2933e-06 0)
(-1.38515e-06 7.37496e-06 0)
(-1.67322e-06 7.47527e-06 0)
(-1.95295e-06 7.59373e-06 0)
(-2.22372e-06 7.72992e-06 0)
(-2.48484e-06 7.88347e-06 0)
(-2.73551e-06 8.05402e-06 0)
(-2.97484e-06 8.24124e-06 0)
(-3.20185e-06 8.44477e-06 0)
(-3.41543e-06 8.6642e-06 0)
(-3.61439e-06 8.89908e-06 0)
(-3.79743e-06 9.14886e-06 0)
(-3.96315e-06 9.41291e-06 0)
(-4.11008e-06 9.69045e-06 0)
(-4.23668e-06 9.98056e-06 0)
(-4.34137e-06 1.02822e-05 0)
(-4.42254e-06 1.0594e-05 0)
(-4.4786e-06 1.09145e-05 0)
(-4.50803e-06 1.12421e-05 0)
(-4.50938e-06 1.15749e-05 0)
(-4.48138e-06 1.19107e-05 0)
(-4.42294e-06 1.22472e-05 0)
(-4.33324e-06 1.25819e-05 0)
(-4.21179e-06 1.29121e-05 0)
(-4.05847e-06 1.3235e-05 0)
(-3.87358e-06 1.35478e-05 0)
(-3.65794e-06 1.38476e-05 0)
(-3.41286e-06 1.41314e-05 0)
(-3.14019e-06 1.43966e-05 0)
(-2.84237e-06 1.46405e-05 0)
(-2.52235e-06 1.4861e-05 0)
(-2.1836e-06 1.5056e-05 0)
(-1.83008e-06 1.52241e-05 0)
(-1.46614e-06 1.53642e-05 0)
(-1.09652e-06 1.54756e-05 0)
(-5.02832e-07 8.45954e-06 0)
(8.83053e-08 3.37321e-08 0)
(-1.44198e-07 7.60554e-06 0)
(-4.29684e-07 7.62635e-06 0)
(-7.09053e-07 7.66696e-06 0)
(-9.81714e-07 7.7265e-06 0)
(-1.24708e-06 7.80421e-06 0)
(-1.50456e-06 7.89939e-06 0)
(-1.75351e-06 8.01142e-06 0)
(-1.99327e-06 8.13971e-06 0)
(-2.22312e-06 8.28369e-06 0)
(-2.44227e-06 8.44281e-06 0)
(-2.64988e-06 8.61649e-06 0)
(-2.84505e-06 8.80413e-06 0)
(-3.0268e-06 9.00505e-06 0)
(-3.1941e-06 9.21854e-06 0)
(-3.34587e-06 9.44379e-06 0)
(-3.48098e-06 9.67988e-06 0)
(-3.59827e-06 9.92578e-06 0)
(-3.69655e-06 1.01803e-05 0)
(-3.77464e-06 1.04423e-05 0)
(-3.83141e-06 1.07102e-05 0)
(-3.86574e-06 1.09825e-05 0)
(-3.87662e-06 1.12575e-05 0)
(-3.86313e-06 1.15333e-05 0)
(-3.82453e-06 1.18082e-05 0)
(-3.76022e-06 1.20799e-05 0)
(-3.66987e-06 1.23466e-05 0)
(-3.55336e-06 1.26061e-05 0)
(-3.4109e-06 1.28563e-05 0)
(-3.24302e-06 1.30954e-05 0)
(-3.05059e-06 1.33214e-05 0)
(-2.83486e-06 1.35328e-05 0)
(-2.59745e-06 1.3728e-05 0)
(-2.34038e-06 1.39059e-05 0)
(-2.06603e-06 1.40657e-05 0)
(-1.7771e-06 1.42068e-05 0)
(-1.47658e-06 1.43291e-05 0)
(-1.16769e-06 1.44328e-05 0)
(-8.53787e-07 1.45184e-05 0)
(-3.79627e-07 7.68116e-06 0)
(1.05026e-07 2.92451e-08 0)
(-1.29437e-07 8.00072e-06 0)
(-3.85607e-07 8.02036e-06 0)
(-6.36016e-07 8.05866e-06 0)
(-8.79978e-07 8.11473e-06 0)
(-1.11683e-06 8.18775e-06 0)
(-1.34593e-06 8.27696e-06 0)
(-1.56661e-06 8.38163e-06 0)
(-1.7782e-06 8.50105e-06 0)
(-1.98e-06 8.6345e-06 0)
(-2.1713e-06 8.78129e-06 0)
(-2.35134e-06 8.94067e-06 0)
(-2.51933e-06 9.11184e-06 0)
(-2.67446e-06 9.29399e-06 0)
(-2.8159e-06 9.48619e-06 0)
(-2.94279e-06 9.68746e-06 0)
(-3.05426e-06 9.89673e-06 0)
(-3.14945e-06 1.01128e-05 0)
(-3.22751e-06 1.03344e-05 0)
(-3.28761e-06 1.05602e-05 0)
(-3.32896e-06 1.07887e-05 0)
(-3.35083e-06 1.10183e-05 0)
(-3.35257e-06 1.12474e-05 0)
(-3.33359e-06 1.14743e-05 0)
(-3.29345e-06 1.16971e-05 0)
(-3.23181e-06 1.19143e-05 0)
(-3.14848e-06 1.2124e-05 0)
(-3.04343e-06 1.23247e-05 0)
(-2.91683e-06 1.25149e-05 0)
(-2.76905e-06 1.26931e-05 0)
(-2.60065e-06 1.28584e-05 0)
(-2.41249e-06 1.30099e-05 0)
(-2.20564e-06 1.31471e-05 0)
(-1.98146e-06 1.32698e-05 0)
(-1.74159e-06 1.33782e-05 0)
(-1.48793e-06 1.34727e-05 0)
(-1.22264e-06 1.35543e-05 0)
(-9.48086e-07 1.36239e-05 0)
(-6.66766e-07 1.36827e-05 0)
(-2.8149e-07 7.01254e-06 0)
(1.18684e-07 2.44402e-08 0)
(-1.15585e-07 8.35457e-06 0)
(-3.44268e-07 8.37292e-06 0)
(-5.67596e-07 8.40868e-06 0)
(-7.84836e-07 8.46096e-06 0)
(-9.95301e-07 8.52891e-06 0)
(-1.19833e-06 8.61174e-06 0)
(-1.39327e-06 8.70863e-06 0)
(-1.57949e-06 8.8188e-06 0)
(-1.75636e-06 8.94147e-06 0)
(-1.92323e-06 9.07581e-06 0)
(-2.07948e-06 9.22097e-06 0)
(-2.22445e-06 9.37607e-06 0)
(-2.3575e-06 9.54016e-06 0)
(-2.47802e-06 9.71223e-06 0)
(-2.58536e-06 9.8912e-06 0)
(-2.67892e-06 1.00759e-05 0)
(-2.75811e-06 1.02651e-05 0)
(-2.82238e-06 1.04575e-05 0)
(-2.8712e-06 1.06516e-05 0)
(-2.90408e-06 1.0846e-05 0)
(-2.92059e-06 1.10391e-05 0)
(-2.92034e-06 1.12294e-05 0)
(-2.90299e-06 1.14151e-05 0)
(-2.86826e-06 1.15946e-05 0)
(-2.81591e-06 1.17664e-05 0)
(-2.74574e-06 1.19289e-05 0)
(-2.65762e-06 1.20805e-05 0)
(-2.55144e-06 1.22202e-05 0)
(-2.42718e-06 1.23468e-05 0)
(-2.28485e-06 1.24596e-05 0)
(-2.12458e-06 1.25582e-05 0)
(-1.9466e-06 1.26427e-05 0)
(-1.75136e-06 1.27136e-05 0)
(-1.53953e-06 1.27717e-05 0)
(-1.31208e-06 1.28187e-05 0)
(-1.07036e-06 1.28562e-05 0)
(-8.16052e-07 1.28863e-05 0)
(-5.51121e-07 1.29109e-05 0)
(-2.19653e-07 6.4064e-06 0)
(1.24533e-07 1.88863e-08 0)
(-1.02701e-07 8.66981e-06 0)
(-3.05837e-07 8.68683e-06 0)
(-5.04055e-07 8.71996e-06 0)
(-6.96616e-07 8.76833e-06 0)
(-8.82836e-07 8.83112e-06 0)
(-1.06207e-06 8.90747e-06 0)
(-1.23373e-06 8.99659e-06 0)
(-1.39721e-06 9.09762e-06 0)
(-1.55197e-06 9.20975e-06 0)
(-1.69748e-06 9.3321e-06 0)
(-1.83322e-06 9.46377e-06 0)
(-1.9587e-06 9.60383e-06 0)
(-2.07346e-06 9.75129e-06 0)
(-2.17706e-06 9.9051e-06 0)
(-2.26911e-06 1.00642e-05 0)
(-2.34923e-06 1.02273e-05 0)
(-2.41709e-06 1.03932e-05 0)
(-2.47242e-06 1.05607e-05 0)
(-2.51496e-06 1.07282e-05 0)
(-2.54452e-06 1.08944e-05 0)
(-2.56093e-06 1.10577e-05 0)
(-2.56406e-06 1.12165e-05 0)
(-2.5538e-06 1.13692e-05 0)
(-2.53001e-06 1.15141e-05 0)
(-2.49256e-06 1.16497e-05 0)
(-2.44124e-06 1.17741e-05 0)
(-2.37577e-06 1.1886e-05 0)
(-2.29576e-06 1.19838e-05 0)
(-2.20065e-06 1.20664e-05 0)
(-2.08973e-06 1.21327e-05 0)
(-1.96211e-06 1.21824e-05 0)
(-1.81679e-06 1.22153e-05 0)
(-1.65273e-06 1.22322e-05 0)
(-1.46898e-06 1.22347e-05 0)
(-1.265e-06 1.22252e-05 0)
(-1.04095e-06 1.22073e-05 0)
(-7.98126e-07 1.21855e-05 0)
(-5.39401e-07 1.21646e-05 0)
(-2.12679e-07 5.83494e-06 0)
(1.20441e-07 1.38633e-08 0)
(-9.0797e-08 8.94926e-06 0)
(-2.70345e-07 8.96494e-06 0)
(-4.45424e-07 8.99546e-06 0)
(-6.15316e-07 9.03999e-06 0)
(-7.79366e-07 9.0977e-06 0)
(-9.36975e-07 9.16778e-06 0)
(-1.08759e-06 9.24939e-06 0)
(-1.23071e-06 9.34172e-06 0)
(-1.36586e-06 9.44392e-06 0)
(-1.49261e-06 9.55512e-06 0)
(-1.61059e-06 9.67442e-06 0)
(-1.71945e-06 9.80089e-06 0)
(-1.81888e-06 9.93356e-06 0)
(-1.90865e-06 1.00714e-05 0)
(-1.98855e-06 1.02133e-05 0)
(-2.05844e-06 1.03583e-05 0)
(-2.11825e-06 1.05049e-05 0)
(-2.16794e-06 1.06521e-05 0)
(-2.20755e-06 1.07985e-05 0)
(-2.23718e-06 1.09427e-05 0)
(-2.25695e-06 1.10831e-05 0)
(-2.26705e-06 1.12184e-05 0)
(-2.26764e-06 1.13467e-05 0)
(-2.25891e-06 1.14664e-05 0)
(-2.24096e-06 1.15757e-05 0)
(-2.21379e-06 1.16727e-05 0)
(-2.17723e-06 1.17554e-05 0)
(-2.13082e-06 1.18217e-05 0)
(-2.07374e-06 1.18698e-05 0)
(-2.00468e-06 1.18976e-05 0)
(-1.92167e-06 1.19033e-05 0)
(-1.82204e-06 1.18856e-05 0)
(-1.70228e-06 1.18439e-05 0)
(-1.5581e-06 1.17786e-05 0)
(-1.38469e-06 1.16921e-05 0)
(-1.17733e-06 1.15894e-05 0)
(-9.32592e-07 1.14793e-05 0)
(-6.50355e-07 1.13756e-05 0)
(-2.60713e-07 5.21294e-06 0)
(1.10428e-07 1.08212e-08 0)
(-7.98494e-08 9.1957e-06 0)
(-2.37716e-07 9.2101e-06 0)
(-3.9156e-07 9.23812e-06 0)
(-5.407e-07 9.27896e-06 0)
(-6.84525e-07 9.33184e-06 0)
(-8.22488e-07 9.39597e-06 0)
(-9.54097e-07 9.47056e-06 0)
(-1.07892e-06 9.55481e-06 0)
(-1.19657e-06 9.64789e-06 0)
(-1.30674e-06 9.74899e-06 0)
(-1.40913e-06 9.85723e-06 0)
(-1.50355e-06 9.97175e-06 0)
(-1.58984e-06 1.00916e-05 0)
(-1.66792e-06 1.02159e-05 0)
(-1.73777e-06 1.03436e-05 0)
(-1.79944e-06 1.04737e-05 0)
(-1.85308e-06 1.06051e-05 0)
(-1.89891e-06 1.07367e-05 0)
(-1.93722e-06 1.08674e-05 0)
(-1.96842e-06 1.09957e-05 0)
(-1.99296e-06 1.11205e-05 0)
(-2.0114e-06 1.12402e-05 0)
(-2.02436e-06 1.13534e-05 0)
(-2.03248e-06 1.14583e-05 0)
(-2.03646e-06 1.1553e-05 0)
(-2.03691e-06 1.16355e-05 0)
(-2.03434e-06 1.17034e-05 0)
(-2.02905e-06 1.17539e-05 0)
(-2.02091e-06 1.17839e-05 0)
(-2.00916e-06 1.17896e-05 0)
(-1.99201e-06 1.17667e-05 0)
(-1.96619e-06 1.17104e-05 0)
(-1.92624e-06 1.1615e-05 0)
(-1.86359e-06 1.14747e-05 0)
(-1.76545e-06 1.12839e-05 0)
(-1.61359e-06 1.10386e-05 0)
(-1.38319e-06 1.07389e-05 0)
(-1.04264e-06 1.03934e-05 0)
(-4.31851e-07 4.24043e-06 0)
(1.02063e-07 8.84282e-09 0)
(-6.9813e-08 9.41184e-06 0)
(-2.0781e-07 9.42503e-06 0)
(-3.42214e-07 9.45068e-06 0)
(-4.7239e-07 9.48805e-06 0)
(-5.97775e-07 9.53642e-06 0)
(-7.17873e-07 9.59504e-06 0)
(-8.32255e-07 9.66315e-06 0)
(-9.40554e-07 9.74002e-06 0)
(-1.04246e-06 9.82489e-06 0)
(-1.13774e-06 9.91697e-06 0)
(-1.22622e-06 1.00155e-05 0)
(-1.30778e-06 1.01197e-05 0)
(-1.38239e-06 1.02287e-05 0)
(-1.45009e-06 1.03417e-05 0)
(-1.51101e-06 1.04578e-05 0)
(-1.56536e-06 1.05762e-05 0)
(-1.61345e-06 1.0696e-05 0)
(-1.65569e-06 1.08163e-05 0)
(-1.69261e-06 1.0936e-05 0)
(-1.72486e-06 1.10542e-05 0)
(-1.75323e-06 1.11699e-05 0)
(-1.77864e-06 1.12819e-05 0)
(-1.8022e-06 1.13889e-05 0)
(-1.82516e-06 1.14897e-05 0)
(-1.849e-06 1.15826e-05 0)
(-1.87537e-06 1.16659e-05 0)
(-1.90616e-06 1.17373e-05 0)
(-1.94346e-06 1.17942e-05 0)
(-1.98955e-06 1.18331e-05 0)
(-2.04679e-06 1.18495e-05 0)
(-2.11742e-06 1.18374e-05 0)
(-2.20317e-06 1.17886e-05 0)
(-2.30445e-06 1.16917e-05 0)
(-2.41884e-06 1.15309e-05 0)
(-2.53841e-06 1.12833e-05 0)
(-2.64476e-06 1.09167e-05 0)
(-2.70025e-06 1.0384e-05 0)
(-2.6324e-06 9.61656e-06 0)
(-1.28913e-06 2.31736e-06 0)
(9.69561e-08 6.2924e-09 0)
(-6.0631e-08 9.60022e-06 0)
(-1.80454e-07 9.61228e-06 0)
(-2.97087e-07 9.63572e-06 0)
(-4.09941e-07 9.66988e-06 0)
(-5.18501e-07 9.71408e-06 0)
(-6.22321e-07 9.76762e-06 0)
(-7.21022e-07 9.82983e-06 0)
(-8.1429e-07 9.90002e-06 0)
(-9.01882e-07 9.97751e-06 0)
(-9.83617e-07 1.00616e-05 0)
(-1.05939e-06 1.01516e-05 0)
(-1.12916e-06 1.02468e-05 0)
(-1.19297e-06 1.03466e-05 0)
(-1.25094e-06 1.04502e-05 0)
(-1.30328e-06 1.0557e-05 0)
(-1.35029e-06 1.06663e-05 0)
(-1.39238e-06 1.07774e-05 0)
(-1.43007e-06 1.08896e-05 0)
(-1.46401e-06 1.10023e-05 0)
(-1.49499e-06 1.11148e-05 0)
(-1.52397e-06 1.12265e-05 0)
(-1.55211e-06 1.13366e-05 0)
(-1.5808e-06 1.14447e-05 0)
(-1.6117e-06 1.155e-05 0)
(-1.64686e-06 1.16517e-05 0)
(-1.68875e-06 1.17492e-05 0)
(-1.74045e-06 1.18416e-05 0)
(-1.80586e-06 1.19277e-05 0)
(-1.88997e-06 1.20064e-05 0)
(-1.99932e-06 1.20759e-05 0)
(-2.14272e-06 1.21338e-05 0)
(-2.33227e-06 1.21767e-05 0)
(-2.58507e-06 1.21997e-05 0)
(-2.92585e-06 1.21955e-05 0)
(-3.39128e-06 1.21528e-05 0)
(-4.03691e-06 1.20546e-05 0)
(-4.94861e-06 1.18742e-05 0)
(-6.25976e-06 1.15692e-05 0)
(-3.52489e-06 1.59047e-06 0)
(9.85329e-08 5.69854e-09 0)
(-5.22431e-08 9.76323e-06 0)
(-1.55465e-07 9.77423e-06 0)
(-2.55866e-07 9.79564e-06 0)
(-3.52903e-07 9.82682e-06 0)
(-4.461e-07 9.86716e-06 0)
(-5.3505e-07 9.91605e-06 0)
(-6.19416e-07 9.97287e-06 0)
(-6.98924e-07 1.0037e-05 0)
(-7.73367e-07 1.01078e-05 0)
(-8.42608e-07 1.01848e-05 0)
(-9.06573e-07 1.02673e-05 0)
(-9.65262e-07 1.03547e-05 0)
(-1.01875e-06 1.04465e-05 0)
(-1.06718e-06 1.05422e-05 0)
(-1.11079e-06 1.06412e-05 0)
(-1.14989e-06 1.0743e-05 0)
(-1.18489e-06 1.08473e-05 0)
(-1.21632e-06 1.09535e-05 0)
(-1.2448e-06 1.10614e-05 0)
(-1.27109e-06 1.11706e-05 0)
(-1.29609e-06 1.12809e-05 0)
(-1.3209e-06 1.13923e-05 0)
(-1.34679e-06 1.15046e-05 0)
(-1.3753e-06 1.16181e-05 0)
(-1.40827e-06 1.17331e-05 0)
(-1.44794e-06 1.18501e-05 0)
(-1.49703e-06 1.197e-05 0)
(-1.55891e-06 1.20941e-05 0)
(-1.6378e-06 1.22243e-05 0)
(-1.73908e-06 1.23634e-05 0)
(-1.86963e-06 1.25154e-05 0)
(-2.03842e-06 1.26861e-05 0)
(-2.2572e-06 1.2884e-05 0)
(-2.54155e-06 1.31219e-05 0)
(-2.91207e-06 1.3419e-05 0)
(-3.39603e-06 1.38044e-05 0)
(-4.02914e-06 1.43233e-05 0)
(-4.84549e-06 1.50383e-05 0)
(-2.65821e-06 2.74195e-06 0)
(9.29767e-08 9.56077e-09 0)
(-4.45926e-08 9.90307e-06 0)
(-1.32671e-07 9.9131e-06 0)
(-2.18265e-07 9.93261e-06 0)
(-3.00864e-07 9.96103e-06 0)
(-3.80026e-07 9.99781e-06 0)
(-4.55375e-07 1.00424e-05 0)
(-5.266e-07 1.00942e-05 0)
(-5.93451e-07 1.01528e-05 0)
(-6.55743e-07 1.02176e-05 0)
(-7.13353e-07 1.0288e-05 0)
(-7.66217e-07 1.03637e-05 0)
(-8.1434e-07 1.04441e-05 0)
(-8.57784e-07 1.05288e-05 0)
(-8.96682e-07 1.06173e-05 0)
(-9.31228e-07 1.07094e-05 0)
(-9.6169e-07 1.08047e-05 0)
(-9.88401e-07 1.09029e-05 0)
(-1.01177e-06 1.10039e-05 0)
(-1.0323e-06 1.11075e-05 0)
(-1.05053e-06 1.12137e-05 0)
(-1.06714e-06 1.13227e-05 0)
(-1.08287e-06 1.14347e-05 0)
(-1.09856e-06 1.15502e-05 0)
(-1.11514e-06 1.16697e-05 0)
(-1.13364e-06 1.17944e-05 0)
(-1.1552e-06 1.19255e-05 0)
(-1.18099e-06 1.20648e-05 0)
(-1.21221e-06 1.22148e-05 0)
(-1.24998e-06 1.23786e-05 0)
(-1.29519e-06 1.25606e-05 0)
(-1.34817e-06 1.27664e-05 0)
(-1.40819e-06 1.30038e-05 0)
(-1.47265e-06 1.32829e-05 0)
(-1.53558e-06 1.36174e-05 0)
(-1.58538e-06 1.40254e-05 0)
(-1.601e-06 1.45311e-05 0)
(-1.5459e-06 1.51664e-05 0)
(-1.34989e-06 1.59518e-05 0)
(-6.1973e-07 2.57372e-06 0)
(6.77284e-08 1.12465e-08 0)
(-3.76298e-08 1.00218e-05 0)
(-1.11925e-07 1.00309e-05 0)
(-1.84033e-07 1.00487e-05 0)
(-2.53473e-07 1.00745e-05 0)
(-3.19828e-07 1.01079e-05 0)
(-3.8274e-07 1.01485e-05 0)
(-4.41914e-07 1.01957e-05 0)
(-4.97111e-07 1.02491e-05 0)
(-5.48151e-07 1.03082e-05 0)
(-5.94908e-07 1.03726e-05 0)
(-6.37308e-07 1.04419e-05 0)
(-6.75333e-07 1.05157e-05 0)
(-7.09012e-07 1.05937e-05 0)
(-7.38425e-07 1.06755e-05 0)
(-7.63699e-07 1.0761e-05 0)
(-7.85005e-07 1.08498e-05 0)
(-8.02558e-07 1.09419e-05 0)
(-8.16608e-07 1.10373e-05 0)
(-8.27438e-07 1.11359e-05 0)
(-8.35359e-07 1.12378e-05 0)
(-8.40694e-07 1.13434e-05 0)
(-8.43772e-07 1.14531e-05 0)
(-8.44902e-07 1.15674e-05 0)
(-8.44352e-07 1.16871e-05 0)
(-8.42303e-07 1.18132e-05 0)
(-8.38801e-07 1.1947e-05 0)
(-8.3367e-07 1.20902e-05 0)
(-8.26405e-07 1.22448e-05 0)
(-8.16007e-07 1.24131e-05 0)
(-8.00767e-07 1.25979e-05 0)
(-7.77958e-07 1.28026e-05 0)
(-7.43433e-07 1.30308e-05 0)
(-6.91103e-07 1.32863e-05 0)
(-6.12304e-07 1.35727e-05 0)
(-4.9508e-07 1.38927e-05 0)
(-3.23511e-07 1.42467e-05 0)
(-7.73556e-08 1.46309e-05 0)
(2.68168e-07 1.50018e-05 0)
(2.11929e-07 1.54653e-06 0)
(5.10904e-08 8.79174e-09 0)
(-3.13137e-08 1.01214e-05 0)
(-9.31027e-08 1.01296e-05 0)
(-1.52969e-07 1.01457e-05 0)
(-2.10453e-07 1.01691e-05 0)
(-2.65152e-07 1.01994e-05 0)
(-3.16723e-07 1.02361e-05 0)
(-3.64876e-07 1.0279e-05 0)
(-4.09374e-07 1.03274e-05 0)
(-4.50029e-07 1.03812e-05 0)
(-4.86703e-07 1.04398e-05 0)
(-5.19299e-07 1.0503e-05 0)
(-5.47763e-07 1.05704e-05 0)
(-5.72078e-07 1.06417e-05 0)
(-5.92261e-07 1.07169e-05 0)
(-6.08357e-07 1.07955e-05 0)
(-6.20435e-07 1.08776e-05 0)
(-6.28578e-07 1.0963e-05 0)
(-6.32878e-07 1.10517e-05 0)
(-6.33423e-07 1.11438e-05 0)
(-6.30285e-07 1.12394e-05 0)
(-6.23503e-07 1.13388e-05 0)
(-6.13065e-07 1.14423e-05 0)
(-5.9888e-07 1.15504e-05 0)
(-5.80748e-07 1.16637e-05 0)
(-5.58323e-07 1.17828e-05 0)
(-5.31066e-07 1.19087e-05 0)
(-4.98186e-07 1.20422e-05 0)
(-4.58581e-07 1.21844e-05 0)
(-4.10759e-07 1.23363e-05 0)
(-3.52765e-07 1.2499e-05 0)
(-2.8211e-07 1.26733e-05 0)
(-1.95723e-07 1.28596e-05 0)
(-8.99545e-08 1.30575e-05 0)
(3.93322e-08 1.32655e-05 0)
(1.96515e-07 1.34802e-05 0)
(3.85732e-07 1.36959e-05 0)
(6.10076e-07 1.39031e-05 0)
(8.70288e-07 1.40542e-05 0)
(4.80854e-07 1.28378e-06 0)
(4.1684e-08 7.64186e-09 0)
(-2.56117e-08 1.02036e-05 0)
(-7.61089e-08 1.0211e-05 0)
(-1.24917e-07 1.02255e-05 0)
(-1.7159e-07 1.02465e-05 0)
(-2.15738e-07 1.02738e-05 0)
(-2.57022e-07 1.03069e-05 0)
(-2.95155e-07 1.03455e-05 0)
(-3.29895e-07 1.03893e-05 0)
(-3.61045e-07 1.04378e-05 0)
(-3.88446e-07 1.04907e-05 0)
(-4.11975e-07 1.05479e-05 0)
(-4.31543e-07 1.0609e-05 0)
(-4.47087e-07 1.06737e-05 0)
(-4.58562e-07 1.07419e-05 0)
(-4.65944e-07 1.08135e-05 0)
(-4.69213e-07 1.08882e-05 0)
(-4.68347e-07 1.09661e-05 0)
(-4.63316e-07 1.10471e-05 0)
(-4.54067e-07 1.11312e-05 0)
(-4.40507e-07 1.12185e-05 0)
(-4.22495e-07 1.13091e-05 0)
(-3.99819e-07 1.14032e-05 0)
(-3.72174e-07 1.1501e-05 0)
(-3.39149e-07 1.16028e-05 0)
(-3.00194e-07 1.1709e-05 0)
(-2.54605e-07 1.18198e-05 0)
(-2.01506e-07 1.19355e-05 0)
(-1.39834e-07 1.20565e-05 0)
(-6.83449e-08 1.2183e-05 0)
(1.43583e-08 1.23149e-05 0)
(1.09765e-07 1.2452e-05 0)
(2.19338e-07 1.25938e-05 0)
(3.44325e-07 1.27394e-05 0)
(4.85463e-07 1.28871e-05 0)
(6.42563e-07 1.30348e-05 0)
(8.13945e-07 1.31793e-05 0)
(9.95712e-07 1.33169e-05 0)
(1.18084e-06 1.34096e-05 0)
(6.13614e-07 1.33848e-06 0)
(3.39772e-08 8.88578e-09 0)
(-2.04984e-08 1.02702e-05 0)
(-6.08686e-08 1.02768e-05 0)
(-9.97551e-08 1.02897e-05 0)
(-1.36723e-07 1.03085e-05 0)
(-1.7139e-07 1.03329e-05 0)
(-2.03421e-07 1.03625e-05 0)
(-2.32528e-07 1.0397e-05 0)
(-2.58463e-07 1.04361e-05 0)
(-2.81016e-07 1.04795e-05 0)
(-3.00012e-07 1.05269e-05 0)
(-3.15307e-07 1.05781e-05 0)
(-3.26779e-07 1.06328e-05 0)
(-3.34328e-07 1.06908e-05 0)
(-3.37868e-07 1.07519e-05 0)
(-3.37323e-07 1.0816e-05 0)
(-3.32614e-07 1.0883e-05 0)
(-3.23656e-07 1.09526e-05 0)
(-3.10349e-07 1.1025e-05 0)
(-2.92565e-07 1.10999e-05 0)
(-2.70136e-07 1.11774e-05 0)
(-2.42846e-07 1.12575e-05 0)
(-2.10415e-07 1.13401e-05 0)
(-1.72488e-07 1.14252e-05 0)
(-1.28617e-07 1.15129e-05 0)
(-7.82547e-08 1.1603e-05 0)
(-2.07437e-08 1.16955e-05 0)
(4.46894e-08 1.17903e-05 0)
(1.1893e-07 1.18872e-05 0)
(2.02965e-07 1.19859e-05 0)
(2.97851e-07 1.2086e-05 0)
(4.04671e-07 1.21872e-05 0)
(5.24463e-07 1.22888e-05 0)
(6.58102e-07 1.23904e-05 0)
(8.0615e-07 1.24917e-05 0)
(9.68613e-07 1.25928e-05 0)
(1.14459e-06 1.26948e-05 0)
(1.33173e-06 1.28e-05 0)
(1.52514e-06 1.28806e-05 0)
(7.93618e-07 1.45255e-06 0)
(2.74883e-08 1.4222e-08 0)
(-1.59535e-08 1.03228e-05 0)
(-4.73222e-08 1.03287e-05 0)
(-7.73888e-08 1.03401e-05 0)
(-1.05728e-07 1.03567e-05 0)
(-1.31963e-07 1.03783e-05 0)
(-1.55762e-07 1.04044e-05 0)
(-1.76835e-07 1.04349e-05 0)
(-1.9493e-07 1.04695e-05 0)
(-2.09828e-07 1.05078e-05 0)
(-2.21343e-07 1.05497e-05 0)
(-2.29311e-07 1.05949e-05 0)
(-2.33594e-07 1.06432e-05 0)
(-2.34068e-07 1.06944e-05 0)
(-2.30622e-07 1.07483e-05 0)
(-2.23152e-07 1.08048e-05 0)
(-2.11556e-07 1.08636e-05 0)
(-1.95724e-07 1.09247e-05 0)
(-1.75537e-07 1.0988e-05 0)
(-1.50854e-07 1.10532e-05 0)
(-1.21508e-07 1.11202e-05 0)