/*--------------------------------*- C++ -*----------------------------------*\
  =========                 |
  \\      /  F ield         | OpenFOAM: The Open Source CFD Toolbox
   \\    /   O peration     | Website:  https://openfoam.org
    \\  /    A nd           | Version:  10
     \\/     M anipulation  |
\*---------------------------------------------------------------------------*/
FoamFile
{
    format      ascii;
    class       volScalarField;
    location    "0.2";
    object      p;
}
// * * * * * * * * * * * * * * * * * * * * * * * * * * * * * * * * * * * * * //

dimensions      [1 -1 -2 0 0 0 0];

internalField   nonuniform List<scalar> 
12225
(
2.5634e+07
2.56053e+07
2.55534e+07
2.54831e+07
2.53979e+07
2.5301e+07
2.5195e+07
2.50823e+07
2.49641e+07
2.48399e+07
2.47113e+07
2.45818e+07
2.44501e+07
2.43204e+07
2.41923e+07
2.40652e+07
2.39364e+07
2.37965e+07
2.56365e+07
2.56081e+07
2.55563e+07
2.54857e+07
2.53999e+07
2.53024e+07
2.5196e+07
2.50831e+07
2.4965e+07
2.48407e+07
2.47119e+07
2.45825e+07
2.44505e+07
2.43209e+07
2.41929e+07
2.40662e+07
2.3939e+07
2.38054e+07
2.56392e+07
2.56109e+07
2.55592e+07
2.54888e+07
2.54036e+07
2.53072e+07
2.52024e+07
2.50909e+07
2.49719e+07
2.4844e+07
2.47134e+07
2.45843e+07
2.44512e+07
2.43219e+07
2.4194e+07
2.40683e+07
2.39438e+07
2.38183e+07
2.56428e+07
2.56144e+07
2.55627e+07
2.54923e+07
2.54073e+07
2.53114e+07
2.52071e+07
2.50963e+07
2.49789e+07
2.48555e+07
2.47298e+07
2.4594e+07
2.44524e+07
2.43235e+07
2.41958e+07
2.40711e+07
2.39502e+07
2.38327e+07
2.56478e+07
2.56192e+07
2.55672e+07
2.54966e+07
2.54117e+07
2.5316e+07
2.52121e+07
2.51018e+07
2.49855e+07
2.48643e+07
2.47404e+07
2.46109e+07
2.44788e+07
2.43286e+07
2.41982e+07
2.40745e+07
2.39573e+07
2.38472e+07
2.56544e+07
2.56255e+07
2.5573e+07
2.55021e+07
2.5417e+07
2.53214e+07
2.52178e+07
2.51079e+07
2.49926e+07
2.4873e+07
2.47506e+07
2.46244e+07
2.44959e+07
2.43602e+07
2.42128e+07
2.40777e+07
2.39644e+07
2.38608e+07
2.56631e+07
2.56336e+07
2.55804e+07
2.55088e+07
2.54235e+07
2.53277e+07
2.52243e+07
2.51148e+07
2.50004e+07
2.48822e+07
2.47612e+07
2.46374e+07
2.45116e+07
2.43819e+07
2.4248e+07
2.4098e+07
2.39703e+07
2.3873e+07
2.56741e+07
2.56439e+07
2.55896e+07
2.55171e+07
2.54311e+07
2.53351e+07
2.52317e+07
2.51225e+07
2.5009e+07
2.4892e+07
2.47725e+07
2.46508e+07
2.45275e+07
2.44021e+07
2.42746e+07
2.41423e+07
2.39872e+07
2.38834e+07
2.56878e+07
2.56565e+07
2.56007e+07
2.55269e+07
2.544e+07
2.53435e+07
2.524e+07
2.51312e+07
2.50184e+07
2.49025e+07
2.47845e+07
2.46648e+07
2.45439e+07
2.4422e+07
2.42992e+07
2.4175e+07
2.40453e+07
2.38957e+07
2.57046e+07
2.56718e+07
2.5614e+07
2.55385e+07
2.54503e+07
2.53531e+07
2.52493e+07
2.51407e+07
2.50285e+07
2.49137e+07
2.47972e+07
2.46794e+07
2.45609e+07
2.4442e+07
2.43231e+07
2.42039e+07
2.40819e+07
2.39376e+07
2.57251e+07
2.56901e+07
2.56296e+07
2.55517e+07
2.54619e+07
2.53636e+07
2.52595e+07
2.5151e+07
2.50393e+07
2.49256e+07
2.48104e+07
2.46944e+07
2.45782e+07
2.44621e+07
2.43465e+07
2.42314e+07
2.41155e+07
2.39932e+07
2.57478e+07
2.57099e+07
2.5646e+07
2.55653e+07
2.54735e+07
2.53741e+07
2.52694e+07
2.51609e+07
2.50497e+07
2.49368e+07
2.48228e+07
2.47085e+07
2.45942e+07
2.44804e+07
2.43675e+07
2.42555e+07
2.41436e+07
2.40287e+07
2.57741e+07
2.57322e+07
2.5664e+07
2.55798e+07
2.54857e+07
2.53849e+07
2.52795e+07
2.51709e+07
2.50601e+07
2.4948e+07
2.48353e+07
2.47224e+07
2.46099e+07
2.44983e+07
2.43879e+07
2.42786e+07
2.417e+07
2.40599e+07
2.58099e+07
2.57612e+07
2.56863e+07
2.55972e+07
2.54999e+07
2.53972e+07
2.52909e+07
2.51822e+07
2.50718e+07
2.49606e+07
2.48491e+07
2.47379e+07
2.46274e+07
2.4518e+07
2.441e+07
2.43034e+07
2.41977e+07
2.40912e+07
2.58593e+07
2.57981e+07
2.57127e+07
2.56168e+07
2.55153e+07
2.54103e+07
2.53029e+07
2.5194e+07
2.50841e+07
2.49738e+07
2.48637e+07
2.47541e+07
2.46456e+07
2.45385e+07
2.44329e+07
2.43288e+07
2.4226e+07
2.41232e+07
2.59292e+07
2.58416e+07
2.574e+07
2.56352e+07
2.55291e+07
2.54217e+07
2.53134e+07
2.52044e+07
2.50951e+07
2.49859e+07
2.48773e+07
2.47695e+07
2.4663e+07
2.45579e+07
2.44545e+07
2.43528e+07
2.42524e+07
2.41525e+07
2.6029e+07
2.58777e+07
2.5756e+07
2.56438e+07
2.55346e+07
2.54262e+07
2.53179e+07
2.52096e+07
2.51014e+07
2.49937e+07
2.48867e+07
2.47808e+07
2.46762e+07
2.4573e+07
2.44714e+07
2.43714e+07
2.42726e+07
2.41747e+07
2.58982e+07
2.5819e+07
2.57224e+07
2.5621e+07
2.55177e+07
2.54132e+07
2.53079e+07
2.52023e+07
2.50966e+07
2.49913e+07
2.48866e+07
2.4783e+07
2.46804e+07
2.45792e+07
2.44791e+07
2.43799e+07
2.42809e+07
2.41796e+07
2.57644e+07
2.57185e+07
2.56479e+07
2.5564e+07
2.54725e+07
2.53763e+07
2.52772e+07
2.51764e+07
2.50747e+07
2.49727e+07
2.48709e+07
2.47695e+07
2.46687e+07
2.45684e+07
2.44679e+07
2.43659e+07
2.42578e+07
2.41166e+07
2.56584e+07
2.56251e+07
2.55687e+07
2.54971e+07
2.54153e+07
2.53266e+07
2.52334e+07
2.51372e+07
2.5039e+07
2.49398e+07
2.48398e+07
2.47394e+07
2.46384e+07
2.4536e+07
2.44285e+07
2.43055e+07
2.41947e+07
2.4131e+07
2.55848e+07
2.55569e+07
2.55077e+07
2.54429e+07
2.53669e+07
2.5283e+07
2.51936e+07
2.51002e+07
2.50042e+07
2.49062e+07
2.48067e+07
2.47053e+07
2.46015e+07
2.44929e+07
2.43526e+07
2.42771e+07
2.42089e+07
2.41448e+07
2.55282e+07
2.55031e+07
2.54578e+07
2.5397e+07
2.53246e+07
2.52437e+07
2.51564e+07
2.50645e+07
2.49692e+07
2.48708e+07
2.47698e+07
2.46625e+07
2.45388e+07
2.44277e+07
2.43546e+07
2.42843e+07
2.42174e+07
2.41539e+07
2.54845e+07
2.54609e+07
2.54177e+07
2.53591e+07
2.52886e+07
2.52089e+07
2.51224e+07
2.50305e+07
2.49343e+07
2.48321e+07
2.47258e+07
2.4593e+07
2.45106e+07
2.44325e+07
2.4359e+07
2.42892e+07
2.4223e+07
2.416e+07
2.54507e+07
2.54278e+07
2.53856e+07
2.53278e+07
2.52579e+07
2.51781e+07
2.5091e+07
2.49966e+07
2.48971e+07
2.47755e+07
2.46736e+07
2.45907e+07
2.4511e+07
2.44345e+07
2.43617e+07
2.42925e+07
2.42267e+07
2.4164e+07
2.54246e+07
2.54019e+07
2.53597e+07
2.53014e+07
2.52312e+07
2.51493e+07
2.50597e+07
2.49553e+07
2.48453e+07
2.4759e+07
2.46725e+07
2.45902e+07
2.45112e+07
2.44356e+07
2.43634e+07
2.42946e+07
2.42291e+07
2.41667e+07
2.54039e+07
2.5381e+07
2.5338e+07
2.52778e+07
2.5206e+07
2.51171e+07
2.50179e+07
2.49305e+07
2.48417e+07
2.47557e+07
2.46712e+07
2.45896e+07
2.45113e+07
2.44362e+07
2.43644e+07
2.42959e+07
2.42307e+07
2.41685e+07
2.53865e+07
2.53628e+07
2.53175e+07
2.52514e+07
2.51751e+07
2.50965e+07
2.50119e+07
2.49261e+07
2.48392e+07
2.47538e+07
2.46702e+07
2.45892e+07
2.45113e+07
2.44366e+07
2.4365e+07
2.42968e+07
2.42317e+07
2.41696e+07
2.53684e+07
2.53425e+07
2.52986e+07
2.52402e+07
2.51695e+07
2.5092e+07
2.50088e+07
2.49235e+07
2.48375e+07
2.47526e+07
2.46695e+07
2.45889e+07
2.45113e+07
2.44368e+07
2.43654e+07
2.42973e+07
2.42322e+07
2.41703e+07
2.53618e+07
2.53378e+07
2.52948e+07
2.52368e+07
2.51668e+07
2.50896e+07
2.5007e+07
2.49221e+07
2.48366e+07
2.4752e+07
2.46691e+07
2.45888e+07
2.45113e+07
2.44368e+07
2.43656e+07
2.42975e+07
2.42326e+07
2.41707e+07
2.53599e+07
2.53361e+07
2.52933e+07
2.52354e+07
2.51657e+07
2.50886e+07
2.50063e+07
2.49216e+07
2.48362e+07
2.47517e+07
2.4669e+07
2.45887e+07
2.45113e+07
2.44369e+07
2.43657e+07
2.42976e+07
2.42327e+07
2.41708e+07
2.26694e+07
2.26689e+07
2.26679e+07
2.26664e+07
2.26643e+07
2.26617e+07
2.26585e+07
2.26547e+07
2.26504e+07
2.26455e+07
2.26401e+07
2.2634e+07
2.26273e+07
2.26201e+07
2.26122e+07
2.26037e+07
2.25946e+07
2.25849e+07
2.25746e+07
2.25637e+07
2.25522e+07
2.254e+07
2.25272e+07
2.25138e+07
2.24998e+07
2.24852e+07
2.247e+07
2.24542e+07
2.24378e+07
2.24208e+07
2.24032e+07
2.23851e+07
2.23663e+07
2.2347e+07
2.23271e+07
2.23066e+07
2.22856e+07
2.2264e+07
2.22419e+07
2.22192e+07
2.2196e+07
2.21723e+07
2.2148e+07
2.21232e+07
2.20979e+07
2.20721e+07
2.20458e+07
2.2019e+07
2.19917e+07
2.19639e+07
2.19356e+07
2.19068e+07
2.18776e+07
2.18479e+07
2.18177e+07
2.1787e+07
2.1756e+07
2.17244e+07
2.16924e+07
2.166e+07
2.16271e+07
2.15938e+07
2.156e+07
2.15258e+07
2.14912e+07
2.14561e+07
2.14207e+07
2.13848e+07
2.13485e+07
2.13118e+07
2.12746e+07
2.12371e+07
2.11991e+07
2.11607e+07
2.11219e+07
2.10828e+07
2.10432e+07
2.10032e+07
2.09628e+07
2.0922e+07
2.08808e+07
2.08392e+07
2.07972e+07
2.07548e+07
2.0712e+07
2.06688e+07
2.06252e+07
2.05812e+07
2.05368e+07
2.0492e+07
2.04469e+07
2.04013e+07
2.03553e+07
2.03089e+07
2.02621e+07
2.02149e+07
2.01673e+07
2.01192e+07
2.00708e+07
2.0022e+07
1.99727e+07
1.99231e+07
1.9873e+07
1.98225e+07
1.97716e+07
1.97203e+07
1.96686e+07
1.96164e+07
1.95638e+07
1.95108e+07
1.94574e+07
1.94035e+07
1.93492e+07
1.92944e+07
1.92392e+07
1.91836e+07
1.91275e+07
1.9071e+07
1.9014e+07
1.89566e+07
1.88987e+07
1.88404e+07
1.87816e+07
1.87223e+07
1.86626e+07
1.86024e+07
1.85417e+07
1.84806e+07
1.84189e+07
1.83568e+07
1.82942e+07
1.82311e+07
1.81675e+07
1.81034e+07
1.80388e+07
1.79737e+07
1.79081e+07
1.7842e+07
1.77754e+07
1.77082e+07
1.76405e+07
1.75723e+07
1.75036e+07
1.74343e+07
1.73645e+07
1.72942e+07
1.72232e+07
1.71518e+07
1.70798e+07
1.70072e+07
1.6934e+07
1.68603e+07
1.67861e+07
1.67112e+07
1.66358e+07
1.65597e+07
1.64831e+07
1.64059e+07
1.63281e+07
1.62497e+07
1.61707e+07
1.6091e+07
1.60108e+07
1.59299e+07
1.58485e+07
1.57664e+07
1.56837e+07
1.56003e+07
1.55164e+07
1.54318e+07
1.53467e+07
1.52609e+07
1.51746e+07
1.50877e+07
1.50004e+07
1.49126e+07
1.48245e+07
1.47362e+07
1.4648e+07
1.45608e+07
2.26717e+07
2.26712e+07
2.26702e+07
2.26686e+07
2.26665e+07
2.26639e+07
2.26607e+07
2.26569e+07
2.26526e+07
2.26477e+07
2.26422e+07
2.26361e+07
2.26294e+07
2.26221e+07
2.26142e+07
2.26057e+07
2.25965e+07
2.25868e+07
2.25764e+07
2.25655e+07
2.25539e+07
2.25417e+07
2.25288e+07
2.25154e+07
2.25014e+07
2.24867e+07
2.24715e+07
2.24556e+07
2.24392e+07
2.24221e+07
2.24045e+07
2.23863e+07
2.23675e+07
2.23481e+07
2.23281e+07
2.23076e+07
2.22866e+07
2.2265e+07
2.22428e+07
2.22201e+07
2.21968e+07
2.21731e+07
2.21488e+07
2.21239e+07
2.20986e+07
2.20728e+07
2.20464e+07
2.20196e+07
2.19922e+07
2.19644e+07
2.19361e+07
2.19073e+07
2.1878e+07
2.18483e+07
2.18181e+07
2.17874e+07
2.17563e+07
2.17248e+07
2.16927e+07
2.16603e+07
2.16274e+07
2.1594e+07
2.15603e+07
2.15261e+07
2.14914e+07
2.14564e+07
2.14209e+07
2.1385e+07
2.13487e+07
2.13119e+07
2.12748e+07
2.12372e+07
2.11992e+07
2.11609e+07
2.11221e+07
2.10829e+07
2.10433e+07
2.10033e+07
2.09629e+07
2.09221e+07
2.08809e+07
2.08393e+07
2.07973e+07
2.07549e+07
2.07121e+07
2.06689e+07
2.06253e+07
2.05813e+07
2.05369e+07
2.04921e+07
2.04469e+07
2.04013e+07
2.03553e+07
2.03089e+07
2.02621e+07
2.02149e+07
2.01673e+07
2.01193e+07
2.00708e+07
2.0022e+07
1.99728e+07
1.99231e+07
1.9873e+07
1.98225e+07
1.97716e+07
1.97203e+07
1.96686e+07
1.96164e+07
1.95638e+07
1.95108e+07
1.94574e+07
1.94035e+07
1.93492e+07
1.92944e+07
1.92392e+07
1.91836e+07
1.91275e+07
1.9071e+07
1.9014e+07
1.89566e+07
1.88987e+07
1.88404e+07
1.87816e+07
1.87223e+07
1.86626e+07
1.86024e+07
1.85417e+07
1.84806e+07
1.84189e+07
1.83568e+07
1.82942e+07
1.82311e+07
1.81675e+07
1.81034e+07
1.80388e+07
1.79737e+07
1.79081e+07
1.7842e+07
1.77754e+07
1.77082e+07
1.76405e+07
1.75723e+07
1.75036e+07
1.74343e+07
1.73645e+07
1.72941e+07
1.72232e+07
1.71518e+07
1.70798e+07
1.70072e+07
1.6934e+07
1.68603e+07
1.6786e+07
1.67112e+07
1.66357e+07
1.65597e+07
1.64831e+07
1.64059e+07
1.63281e+07
1.62497e+07
1.61706e+07
1.6091e+07
1.60108e+07
1.59299e+07
1.58484e+07
1.57663e+07
1.56836e+07
1.56003e+07
1.55164e+07
1.54318e+07
1.53466e+07
1.52609e+07
1.51746e+07
1.50877e+07
1.50003e+07
1.49125e+07
1.48243e+07
1.4736e+07
1.46477e+07
1.456e+07
2.26763e+07
2.26758e+07
2.26747e+07
2.26732e+07
2.2671e+07
2.26684e+07
2.26651e+07
2.26613e+07
2.26569e+07
2.2652e+07
2.26464e+07
2.26402e+07
2.26335e+07
2.26261e+07
2.26181e+07
2.26095e+07
2.26003e+07
2.25905e+07
2.258e+07
2.2569e+07
2.25573e+07
2.2545e+07
2.25321e+07
2.25185e+07
2.25044e+07
2.24897e+07
2.24743e+07
2.24584e+07
2.24418e+07
2.24247e+07
2.24069e+07
2.23886e+07
2.23697e+07
2.23503e+07
2.23303e+07
2.23097e+07
2.22885e+07
2.22668e+07
2.22446e+07
2.22218e+07
2.21985e+07
2.21746e+07
2.21503e+07
2.21254e+07
2.21e+07
2.20741e+07
2.20476e+07
2.20207e+07
2.19933e+07
2.19655e+07
2.19371e+07
2.19083e+07
2.18789e+07
2.18492e+07
2.18189e+07
2.17882e+07
2.17571e+07
2.17255e+07
2.16934e+07
2.16609e+07
2.1628e+07
2.15946e+07
2.15608e+07
2.15266e+07
2.14919e+07
2.14568e+07
2.14213e+07
2.13854e+07
2.1349e+07
2.13123e+07
2.12751e+07
2.12375e+07
2.11995e+07
2.11611e+07
2.11223e+07
2.10831e+07
2.10435e+07
2.10035e+07
2.09631e+07
2.09223e+07
2.08811e+07
2.08394e+07
2.07974e+07
2.0755e+07
2.07122e+07
2.0669e+07
2.06254e+07
2.05814e+07
2.0537e+07
2.04922e+07
2.0447e+07
2.04014e+07
2.03554e+07
2.0309e+07
2.02622e+07
2.02149e+07
2.01673e+07
2.01193e+07
2.00709e+07
2.0022e+07
1.99728e+07
1.99231e+07
1.98731e+07
1.98226e+07
1.97717e+07
1.97203e+07
1.96686e+07
1.96164e+07
1.95638e+07
1.95108e+07
1.94574e+07
1.94035e+07
1.93492e+07
1.92944e+07
1.92392e+07
1.91836e+07
1.91275e+07
1.9071e+07
1.9014e+07
1.89566e+07
1.88987e+07
1.88404e+07
1.87816e+07
1.87223e+07
1.86626e+07
1.86024e+07
1.85417e+07
1.84806e+07
1.84189e+07
1.83568e+07
1.82942e+07
1.82311e+07
1.81675e+07
1.81034e+07
1.80388e+07
1.79737e+07
1.79081e+07
1.7842e+07
1.77754e+07
1.77082e+07
1.76405e+07
1.75723e+07
1.75036e+07
1.74343e+07
1.73645e+07
1.72941e+07
1.72232e+07
1.71518e+07
1.70797e+07
1.70072e+07
1.6934e+07
1.68603e+07
1.6786e+07
1.67112e+07
1.66357e+07
1.65597e+07
1.64831e+07
1.64059e+07
1.63281e+07
1.62496e+07
1.61706e+07
1.6091e+07
1.60108e+07
1.59299e+07
1.58484e+07
1.57663e+07
1.56836e+07
1.56003e+07
1.55163e+07
1.54318e+07
1.53466e+07
1.52608e+07
1.51745e+07
1.50876e+07
1.50002e+07
1.49123e+07
1.48241e+07
1.47356e+07
1.46471e+07
1.45589e+07
2.26832e+07
2.26827e+07
2.26816e+07
2.268e+07
2.26778e+07
2.26751e+07
2.26718e+07
2.26679e+07
2.26635e+07
2.26584e+07
2.26528e+07
2.26465e+07
2.26396e+07
2.26322e+07
2.26241e+07
2.26153e+07
2.2606e+07
2.2596e+07
2.25855e+07
2.25743e+07
2.25624e+07
2.255e+07
2.25369e+07
2.25233e+07
2.2509e+07
2.24941e+07
2.24786e+07
2.24625e+07
2.24458e+07
2.24285e+07
2.24107e+07
2.23922e+07
2.23732e+07
2.23536e+07
2.23334e+07
2.23127e+07
2.22914e+07
2.22696e+07
2.22473e+07
2.22244e+07
2.22009e+07
2.2177e+07
2.21525e+07
2.21275e+07
2.2102e+07
2.2076e+07
2.20495e+07
2.20225e+07
2.1995e+07
2.19671e+07
2.19386e+07
2.19097e+07
2.18803e+07
2.18505e+07
2.18202e+07
2.17894e+07
2.17582e+07
2.17265e+07
2.16944e+07
2.16619e+07
2.16289e+07
2.15955e+07
2.15616e+07
2.15273e+07
2.14926e+07
2.14575e+07
2.1422e+07
2.1386e+07
2.13496e+07
2.13128e+07
2.12756e+07
2.1238e+07
2.12e+07
2.11616e+07
2.11227e+07
2.10835e+07
2.10439e+07
2.10038e+07
2.09634e+07
2.09226e+07
2.08813e+07
2.08397e+07
2.07977e+07
2.07552e+07
2.07124e+07
2.06692e+07
2.06256e+07
2.05816e+07
2.05371e+07
2.04923e+07
2.04471e+07
2.04015e+07
2.03555e+07
2.03091e+07
2.02623e+07
2.0215e+07
2.01674e+07
2.01194e+07
2.0071e+07
2.00221e+07
1.99729e+07
1.99232e+07
1.98731e+07
1.98226e+07
1.97717e+07
1.97204e+07
1.96686e+07
1.96165e+07
1.95639e+07
1.95108e+07
1.94574e+07
1.94035e+07
1.93492e+07
1.92944e+07
1.92392e+07
1.91836e+07
1.91275e+07
1.9071e+07
1.9014e+07
1.89566e+07
1.88987e+07
1.88404e+07
1.87816e+07
1.87223e+07
1.86626e+07
1.86024e+07
1.85417e+07
1.84806e+07
1.84189e+07
1.83568e+07
1.82942e+07
1.82311e+07
1.81675e+07
1.81034e+07
1.80388e+07
1.79737e+07
1.79081e+07
1.7842e+07
1.77754e+07
1.77082e+07
1.76405e+07
1.75723e+07
1.75036e+07
1.74343e+07
1.73645e+07
1.72941e+07
1.72232e+07
1.71518e+07
1.70797e+07
1.70072e+07
1.6934e+07
1.68603e+07
1.6786e+07
1.67112e+07
1.66357e+07
1.65597e+07
1.64831e+07
1.64059e+07
1.6328e+07
1.62496e+07
1.61706e+07
1.6091e+07
1.60107e+07
1.59299e+07
1.58484e+07
1.57663e+07
1.56836e+07
1.56002e+07
1.55163e+07
1.54317e+07
1.53465e+07
1.52608e+07
1.51744e+07
1.50875e+07
1.5e+07
1.49121e+07
1.48238e+07
1.47352e+07
1.46464e+07
1.45575e+07
2.26925e+07
2.26919e+07
2.26908e+07
2.26892e+07
2.26869e+07
2.26842e+07
2.26808e+07
2.26768e+07
2.26723e+07
2.26671e+07
2.26613e+07
2.26549e+07
2.26479e+07
2.26403e+07
2.2632e+07
2.26231e+07
2.26136e+07
2.26035e+07
2.25927e+07
2.25813e+07
2.25693e+07
2.25567e+07
2.25434e+07
2.25295e+07
2.25151e+07
2.25e+07
2.24843e+07
2.2468e+07
2.24511e+07
2.24336e+07
2.24156e+07
2.2397e+07
2.23778e+07
2.2358e+07
2.23376e+07
2.23168e+07
2.22953e+07
2.22733e+07
2.22508e+07
2.22278e+07
2.22042e+07
2.21801e+07
2.21555e+07
2.21304e+07
2.21047e+07
2.20786e+07
2.2052e+07
2.20249e+07
2.19973e+07
2.19692e+07
2.19407e+07
2.19116e+07
2.18822e+07
2.18522e+07
2.18218e+07
2.1791e+07
2.17597e+07
2.17279e+07
2.16958e+07
2.16631e+07
2.16301e+07
2.15966e+07
2.15627e+07
2.15284e+07
2.14936e+07
2.14584e+07
2.14228e+07
2.13868e+07
2.13504e+07
2.13136e+07
2.12763e+07
2.12387e+07
2.12006e+07
2.11621e+07
2.11233e+07
2.1084e+07
2.10443e+07
2.10043e+07
2.09638e+07
2.0923e+07
2.08817e+07
2.084e+07
2.0798e+07
2.07555e+07
2.07127e+07
2.06695e+07
2.06258e+07
2.05818e+07
2.05374e+07
2.04925e+07
2.04473e+07
2.04017e+07
2.03557e+07
2.03092e+07
2.02624e+07
2.02152e+07
2.01675e+07
2.01195e+07
2.00711e+07
2.00222e+07
1.99729e+07
1.99233e+07
1.98732e+07
1.98227e+07
1.97718e+07
1.97204e+07
1.96687e+07
1.96165e+07
1.95639e+07
1.95109e+07
1.94574e+07
1.94035e+07
1.93492e+07
1.92945e+07
1.92393e+07
1.91836e+07
1.91276e+07
1.9071e+07
1.90141e+07
1.89566e+07
1.88987e+07
1.88404e+07
1.87816e+07
1.87223e+07
1.86626e+07
1.86024e+07
1.85417e+07
1.84806e+07
1.84189e+07
1.83568e+07
1.82942e+07
1.82311e+07
1.81675e+07
1.81034e+07
1.80388e+07
1.79737e+07
1.79081e+07
1.7842e+07
1.77754e+07
1.77082e+07
1.76405e+07
1.75723e+07
1.75036e+07
1.74343e+07
1.73645e+07
1.72941e+07
1.72232e+07
1.71517e+07
1.70797e+07
1.70072e+07
1.6934e+07
1.68603e+07
1.6786e+07
1.67112e+07
1.66357e+07
1.65597e+07
1.64831e+07
1.64058e+07
1.6328e+07
1.62496e+07
1.61706e+07
1.6091e+07
1.60107e+07
1.59299e+07
1.58484e+07
1.57663e+07
1.56836e+07
1.56002e+07
1.55162e+07
1.54317e+07
1.53465e+07
1.52607e+07
1.51743e+07
1.50873e+07
1.49998e+07
1.49118e+07
1.48234e+07
1.47346e+07
1.46455e+07
1.45561e+07
2.27041e+07
2.27036e+07
2.27024e+07
2.27007e+07
2.26984e+07
2.26956e+07
2.26921e+07
2.2688e+07
2.26833e+07
2.2678e+07
2.2672e+07
2.26655e+07
2.26583e+07
2.26505e+07
2.2642e+07
2.26329e+07
2.26232e+07
2.26128e+07
2.26018e+07
2.25902e+07
2.25779e+07
2.2565e+07
2.25515e+07
2.25374e+07
2.25227e+07
2.25073e+07
2.24914e+07
2.24749e+07
2.24577e+07
2.244e+07
2.24217e+07
2.24029e+07
2.23834e+07
2.23635e+07
2.23429e+07
2.23218e+07
2.23002e+07
2.2278e+07
2.22553e+07
2.2232e+07
2.22082e+07
2.2184e+07
2.21592e+07
2.21339e+07
2.21081e+07
2.20818e+07
2.2055e+07
2.20278e+07
2.20001e+07
2.19719e+07
2.19432e+07
2.1914e+07
2.18844e+07
2.18544e+07
2.18239e+07
2.17929e+07
2.17615e+07
2.17297e+07
2.16974e+07
2.16647e+07
2.16316e+07
2.1598e+07
2.1564e+07
2.15296e+07
2.14948e+07
2.14595e+07
2.14239e+07
2.13878e+07
2.13513e+07
2.13145e+07
2.12772e+07
2.12395e+07
2.12014e+07
2.11628e+07
2.11239e+07
2.10846e+07
2.10449e+07
2.10048e+07
2.09643e+07
2.09235e+07
2.08822e+07
2.08405e+07
2.07984e+07
2.07559e+07
2.07131e+07
2.06698e+07
2.06261e+07
2.05821e+07
2.05376e+07
2.04928e+07
2.04475e+07
2.04019e+07
2.03559e+07
2.03094e+07
2.02626e+07
2.02153e+07
2.01677e+07
2.01196e+07
2.00712e+07
2.00223e+07
1.99731e+07
1.99234e+07
1.98733e+07
1.98228e+07
1.97718e+07
1.97205e+07
1.96688e+07
1.96166e+07
1.9564e+07
1.95109e+07
1.94575e+07
1.94036e+07
1.93493e+07
1.92945e+07
1.92393e+07
1.91837e+07
1.91276e+07
1.90711e+07
1.90141e+07
1.89566e+07
1.88988e+07
1.88404e+07
1.87816e+07
1.87223e+07
1.86626e+07
1.86024e+07
1.85417e+07
1.84806e+07
1.84189e+07
1.83568e+07
1.82942e+07
1.82311e+07
1.81675e+07
1.81034e+07
1.80388e+07
1.79737e+07
1.79081e+07
1.7842e+07
1.77753e+07
1.77082e+07
1.76405e+07
1.75723e+07
1.75036e+07
1.74343e+07
1.73645e+07
1.72941e+07
1.72232e+07
1.71517e+07
1.70797e+07
1.70071e+07
1.6934e+07
1.68603e+07
1.6786e+07
1.67111e+07
1.66357e+07
1.65597e+07
1.6483e+07
1.64058e+07
1.6328e+07
1.62496e+07
1.61706e+07
1.60909e+07
1.60107e+07
1.59298e+07
1.58484e+07
1.57662e+07
1.56835e+07
1.56002e+07
1.55162e+07
1.54316e+07
1.53464e+07
1.52605e+07
1.51741e+07
1.50871e+07
1.49996e+07
1.49115e+07
1.48229e+07
1.47339e+07
1.46445e+07
1.45547e+07
2.27183e+07
2.27177e+07
2.27165e+07
2.27147e+07
2.27124e+07
2.27094e+07
2.27058e+07
2.27015e+07
2.26967e+07
2.26912e+07
2.2685e+07
2.26782e+07
2.26708e+07
2.26628e+07
2.2654e+07
2.26447e+07
2.26347e+07
2.2624e+07
2.26127e+07
2.26008e+07
2.25882e+07
2.25751e+07
2.25613e+07
2.25468e+07
2.25318e+07
2.25162e+07
2.24999e+07
2.24831e+07
2.24657e+07
2.24477e+07
2.24291e+07
2.241e+07
2.23902e+07
2.237e+07
2.23492e+07
2.23278e+07
2.23059e+07
2.22835e+07
2.22605e+07
2.22371e+07
2.22131e+07
2.21886e+07
2.21636e+07
2.21381e+07
2.21121e+07
2.20856e+07
2.20587e+07
2.20313e+07
2.20034e+07
2.1975e+07
2.19462e+07
2.19169e+07
2.18872e+07
2.1857e+07
2.18263e+07
2.17953e+07
2.17637e+07
2.17318e+07
2.16994e+07
2.16666e+07
2.16334e+07
2.15997e+07
2.15656e+07
2.15311e+07
2.14962e+07
2.14609e+07
2.14252e+07
2.1389e+07
2.13525e+07
2.13155e+07
2.12782e+07
2.12404e+07
2.12023e+07
2.11637e+07
2.11247e+07
2.10854e+07
2.10456e+07
2.10055e+07
2.0965e+07
2.0924e+07
2.08827e+07
2.0841e+07
2.07989e+07
2.07564e+07
2.07135e+07
2.06702e+07
2.06265e+07
2.05824e+07
2.0538e+07
2.04931e+07
2.04478e+07
2.04022e+07
2.03561e+07
2.03096e+07
2.02628e+07
2.02155e+07
2.01679e+07
2.01198e+07
2.00713e+07
2.00225e+07
1.99732e+07
1.99235e+07
1.98734e+07
1.98229e+07
1.97719e+07
1.97206e+07
1.96688e+07
1.96166e+07
1.9564e+07
1.9511e+07
1.94575e+07
1.94036e+07
1.93493e+07
1.92945e+07
1.92393e+07
1.91837e+07
1.91276e+07
1.90711e+07
1.90141e+07
1.89567e+07
1.88988e+07
1.88404e+07
1.87816e+07
1.87224e+07
1.86626e+07
1.86024e+07
1.85417e+07
1.84806e+07
1.84189e+07
1.83568e+07
1.82942e+07
1.82311e+07
1.81675e+07
1.81034e+07
1.80388e+07
1.79737e+07
1.79081e+07
1.7842e+07
1.77753e+07
1.77082e+07
1.76405e+07
1.75723e+07
1.75036e+07
1.74343e+07
1.73645e+07
1.72941e+07
1.72232e+07
1.71517e+07
1.70797e+07
1.70071e+07
1.6934e+07
1.68603e+07
1.6786e+07
1.67111e+07
1.66357e+07
1.65597e+07
1.6483e+07
1.64058e+07
1.6328e+07
1.62496e+07
1.61706e+07
1.60909e+07
1.60107e+07
1.59298e+07
1.58483e+07
1.57662e+07
1.56835e+07
1.56001e+07
1.55161e+07
1.54315e+07
1.53463e+07
1.52604e+07
1.5174e+07
1.50869e+07
1.49993e+07
1.49111e+07
1.48224e+07
1.47332e+07
1.46435e+07
1.45532e+07
2.27351e+07
2.27344e+07
2.27332e+07
2.27313e+07
2.27288e+07
2.27257e+07
2.27219e+07
2.27175e+07
2.27124e+07
2.27067e+07
2.27003e+07
2.26933e+07
2.26856e+07
2.26772e+07
2.26682e+07
2.26585e+07
2.26481e+07
2.26372e+07
2.26255e+07
2.26132e+07
2.26003e+07
2.25868e+07
2.25726e+07
2.25578e+07
2.25424e+07
2.25264e+07
2.25098e+07
2.24927e+07
2.24749e+07
2.24566e+07
2.24376e+07
2.24182e+07
2.23981e+07
2.23776e+07
2.23564e+07
2.23348e+07
2.23126e+07
2.22899e+07
2.22667e+07
2.22429e+07
2.22187e+07
2.21939e+07
2.21687e+07
2.2143e+07
2.21168e+07
2.20901e+07
2.20629e+07
2.20353e+07
2.20072e+07
2.19787e+07
2.19497e+07
2.19202e+07
2.18903e+07
2.186e+07
2.18292e+07
2.17979e+07
2.17663e+07
2.17342e+07
2.17017e+07
2.16688e+07
2.16354e+07
2.16017e+07
2.15675e+07
2.15329e+07
2.14979e+07
2.14625e+07
2.14266e+07
2.13904e+07
2.13538e+07
2.13168e+07
2.12793e+07
2.12415e+07
2.12033e+07
2.11647e+07
2.11257e+07
2.10863e+07
2.10465e+07
2.10063e+07
2.09657e+07
2.09247e+07
2.08833e+07
2.08416e+07
2.07994e+07
2.07569e+07
2.0714e+07
2.06706e+07
2.06269e+07
2.05828e+07
2.05383e+07
2.04934e+07
2.04481e+07
2.04025e+07
2.03564e+07
2.03099e+07
2.0263e+07
2.02158e+07
2.01681e+07
2.012e+07
2.00715e+07
2.00226e+07
1.99733e+07
1.99236e+07
1.98735e+07
1.9823e+07
1.97721e+07
1.97207e+07
1.96689e+07
1.96167e+07
1.95641e+07
1.95111e+07
1.94576e+07
1.94037e+07
1.93494e+07
1.92946e+07
1.92394e+07
1.91837e+07
1.91276e+07
1.90711e+07
1.90141e+07
1.89567e+07
1.88988e+07
1.88405e+07
1.87816e+07
1.87224e+07
1.86626e+07
1.86024e+07
1.85417e+07
1.84806e+07
1.84189e+07
1.83568e+07
1.82942e+07
1.82311e+07
1.81675e+07
1.81034e+07
1.80388e+07
1.79737e+07
1.79081e+07
1.7842e+07
1.77753e+07
1.77082e+07
1.76405e+07
1.75723e+07
1.75035e+07
1.74343e+07
1.73645e+07
1.72941e+07
1.72232e+07
1.71517e+07
1.70797e+07
1.70071e+07
1.6934e+07
1.68603e+07
1.6786e+07
1.67111e+07
1.66357e+07
1.65596e+07
1.6483e+07
1.64058e+07
1.6328e+07
1.62496e+07
1.61705e+07
1.60909e+07
1.60107e+07
1.59298e+07
1.58483e+07
1.57662e+07
1.56834e+07
1.56001e+07
1.5516e+07
1.54314e+07
1.53462e+07
1.52603e+07
1.51738e+07
1.50867e+07
1.4999e+07
1.49107e+07
1.48219e+07
1.47325e+07
1.46425e+07
1.45518e+07
2.27545e+07
2.27538e+07
2.27525e+07
2.27505e+07
2.27479e+07
2.27446e+07
2.27406e+07
2.2736e+07
2.27307e+07
2.27247e+07
2.2718e+07
2.27106e+07
2.27026e+07
2.26938e+07
2.26844e+07
2.26744e+07
2.26636e+07
2.26522e+07
2.26402e+07
2.26275e+07
2.26141e+07
2.26002e+07
2.25856e+07
2.25704e+07
2.25546e+07
2.25381e+07
2.25211e+07
2.25035e+07
2.24854e+07
2.24666e+07
2.24473e+07
2.24275e+07
2.24071e+07
2.23861e+07
2.23647e+07
2.23427e+07
2.23202e+07
2.22971e+07
2.22736e+07
2.22495e+07
2.2225e+07
2.22e+07
2.21745e+07
2.21485e+07
2.2122e+07
2.20951e+07
2.20677e+07
2.20398e+07
2.20115e+07
2.19828e+07
2.19536e+07
2.19239e+07
2.18938e+07
2.18633e+07
2.18324e+07
2.1801e+07
2.17692e+07
2.17369e+07
2.17043e+07
2.16712e+07
2.16378e+07
2.16039e+07
2.15696e+07
2.15349e+07
2.14997e+07
2.14642e+07
2.14283e+07
2.1392e+07
2.13553e+07
2.13182e+07
2.12807e+07
2.12428e+07
2.12045e+07
2.11658e+07
2.11267e+07
2.10872e+07
2.10474e+07
2.10071e+07
2.09665e+07
2.09255e+07
2.08841e+07
2.08423e+07
2.08001e+07
2.07575e+07
2.07145e+07
2.06712e+07
2.06274e+07
2.05833e+07
2.05388e+07
2.04938e+07
2.04485e+07
2.04028e+07
2.03567e+07
2.03102e+07
2.02633e+07
2.0216e+07
2.01683e+07
2.01202e+07
2.00717e+07
2.00228e+07
1.99735e+07
1.99238e+07
1.98737e+07
1.98231e+07
1.97722e+07
1.97208e+07
1.9669e+07
1.96168e+07
1.95642e+07
1.95112e+07
1.94577e+07
1.94038e+07
1.93494e+07
1.92947e+07
1.92394e+07
1.91838e+07
1.91277e+07
1.90712e+07
1.90142e+07
1.89567e+07
1.88988e+07
1.88405e+07
1.87817e+07
1.87224e+07
1.86626e+07
1.86024e+07
1.85417e+07
1.84806e+07
1.84189e+07
1.83568e+07
1.82942e+07
1.82311e+07
1.81675e+07
1.81034e+07
1.80388e+07
1.79737e+07
1.79081e+07
1.7842e+07
1.77753e+07
1.77082e+07
1.76405e+07
1.75723e+07
1.75035e+07
1.74343e+07
1.73644e+07
1.72941e+07
1.72232e+07
1.71517e+07
1.70797e+07
1.70071e+07
1.6934e+07
1.68603e+07
1.6786e+07
1.67111e+07
1.66357e+07
1.65596e+07
1.6483e+07
1.64058e+07
1.6328e+07
1.62496e+07
1.61705e+07
1.60909e+07
1.60106e+07
1.59298e+07
1.58483e+07
1.57661e+07
1.56834e+07
1.56e+07
1.5516e+07
1.54313e+07
1.5346e+07
1.52601e+07
1.51736e+07
1.50864e+07
1.49986e+07
1.49103e+07
1.48213e+07
1.47317e+07
1.46414e+07
1.45504e+07
2.27768e+07
2.2776e+07
2.27746e+07
2.27725e+07
2.27697e+07
2.27662e+07
2.2762e+07
2.27571e+07
2.27514e+07
2.27451e+07
2.27381e+07
2.27303e+07
2.27219e+07
2.27127e+07
2.27029e+07
2.26923e+07
2.26811e+07
2.26693e+07
2.26567e+07
2.26435e+07
2.26297e+07
2.26152e+07
2.26002e+07
2.25845e+07
2.25682e+07
2.25513e+07
2.25338e+07
2.25157e+07
2.24971e+07
2.24779e+07
2.24582e+07
2.24379e+07
2.24171e+07
2.23957e+07
2.23738e+07
2.23515e+07
2.23286e+07
2.23052e+07
2.22813e+07
2.22569e+07
2.2232e+07
2.22067e+07
2.21809e+07
2.21546e+07
2.21279e+07
2.21007e+07
2.2073e+07
2.20449e+07
2.20164e+07
2.19874e+07
2.19579e+07
2.19281e+07
2.18978e+07
2.18671e+07
2.18359e+07
2.18044e+07
2.17724e+07
2.174e+07
2.17072e+07
2.1674e+07
2.16403e+07
2.16063e+07
2.15719e+07
2.1537e+07
2.15018e+07
2.14662e+07
2.14302e+07
2.13937e+07
2.13569e+07
2.13197e+07
2.12821e+07
2.12441e+07
2.12058e+07
2.1167e+07
2.11279e+07
2.10883e+07
2.10484e+07
2.10081e+07
2.09674e+07
2.09263e+07
2.08849e+07
2.0843e+07
2.08008e+07
2.07581e+07
2.07151e+07
2.06717e+07
2.0628e+07
2.05838e+07
2.05392e+07
2.04943e+07
2.04489e+07
2.04032e+07
2.03571e+07
2.03105e+07
2.02636e+07
2.02163e+07
2.01686e+07
2.01205e+07
2.0072e+07
2.0023e+07
1.99737e+07
1.9924e+07
1.98738e+07
1.98233e+07
1.97723e+07
1.9721e+07
1.96692e+07
1.96169e+07
1.95643e+07
1.95113e+07
1.94578e+07
1.94038e+07
1.93495e+07
1.92947e+07
1.92395e+07
1.91838e+07
1.91277e+07
1.90712e+07
1.90142e+07
1.89568e+07
1.88989e+07
1.88405e+07
1.87817e+07
1.87224e+07
1.86627e+07
1.86024e+07
1.85418e+07
1.84806e+07
1.8419e+07
1.83568e+07
1.82942e+07
1.82311e+07
1.81675e+07
1.81034e+07
1.80388e+07
1.79737e+07
1.79081e+07
1.7842e+07
1.77753e+07
1.77082e+07
1.76405e+07
1.75723e+07
1.75035e+07
1.74343e+07
1.73644e+07
1.72941e+07
1.72232e+07
1.71517e+07
1.70797e+07
1.70071e+07
1.6934e+07
1.68603e+07
1.6786e+07
1.67111e+07
1.66357e+07
1.65596e+07
1.6483e+07
1.64058e+07
1.6328e+07
1.62495e+07
1.61705e+07
1.60909e+07
1.60106e+07
1.59297e+07
1.58482e+07
1.57661e+07
1.56833e+07
1.55999e+07
1.55159e+07
1.54312e+07
1.53459e+07
1.526e+07
1.51734e+07
1.50862e+07
1.49983e+07
1.49098e+07
1.48207e+07
1.47309e+07
1.46404e+07
1.45491e+07
2.2802e+07
2.28012e+07
2.27996e+07
2.27974e+07
2.27944e+07
2.27906e+07
2.27861e+07
2.27809e+07
2.27749e+07
2.27682e+07
2.27607e+07
2.27525e+07
2.27435e+07
2.27339e+07
2.27235e+07
2.27124e+07
2.27007e+07
2.26883e+07
2.26752e+07
2.26614e+07
2.2647e+07
2.2632e+07
2.26163e+07
2.26001e+07
2.25832e+07
2.25658e+07
2.25478e+07
2.25292e+07
2.251e+07
2.24903e+07
2.24701e+07
2.24493e+07
2.2428e+07
2.24062e+07
2.23839e+07
2.23611e+07
2.23378e+07
2.2314e+07
2.22897e+07
2.2265e+07
2.22398e+07
2.22141e+07
2.21879e+07
2.21613e+07
2.21343e+07
2.21068e+07
2.20788e+07
2.20504e+07
2.20216e+07
2.19924e+07
2.19627e+07
2.19326e+07
2.19021e+07
2.18712e+07
2.18398e+07
2.1808e+07
2.17759e+07
2.17433e+07
2.17103e+07
2.16769e+07
2.16432e+07
2.1609e+07
2.15744e+07
2.15394e+07
2.15041e+07
2.14683e+07
2.14322e+07
2.13957e+07
2.13587e+07
2.13214e+07
2.12837e+07
2.12457e+07
2.12072e+07
2.11684e+07
2.11291e+07
2.10895e+07
2.10495e+07
2.10092e+07
2.09684e+07
2.09273e+07
2.08857e+07
2.08438e+07
2.08015e+07
2.07589e+07
2.07158e+07
2.06724e+07
2.06286e+07
2.05843e+07
2.05397e+07
2.04948e+07
2.04494e+07
2.04036e+07
2.03575e+07
2.03109e+07
2.0264e+07
2.02166e+07
2.01689e+07
2.01208e+07
2.00722e+07
2.00233e+07
1.99739e+07
1.99242e+07
1.9874e+07
1.98235e+07
1.97725e+07
1.97211e+07
1.96693e+07
1.96171e+07
1.95644e+07
1.95114e+07
1.94579e+07
1.94039e+07
1.93496e+07
1.92948e+07
1.92396e+07
1.91839e+07
1.91278e+07
1.90712e+07
1.90143e+07
1.89568e+07
1.88989e+07
1.88405e+07
1.87817e+07
1.87224e+07
1.86627e+07
1.86025e+07
1.85418e+07
1.84806e+07
1.8419e+07