/*--------------------------------*- C++ -*----------------------------------*\
  =========                 |
  \\      /  F ield         | OpenFOAM: The Open Source CFD Toolbox
   \\    /   O peration     | Website:  https://openfoam.org
    \\  /    A nd           | Version:  10
     \\/     M anipulation  |
\*---------------------------------------------------------------------------*/
FoamFile
{
    format      ascii;
    class       surfaceScalarField;
    location    "0.2";
    object      phi;
}
// * * * * * * * * * * * * * * * * * * * * * * * * * * * * * * * * * * * * * //

dimensions      [0 3 -1 0 0 0 0];

internalField   nonuniform List<scalar> 
24170
(
1.11493e-09
-1.11493e-09
2.26238e-09
-1.14745e-09
3.38719e-09
-1.1248e-09
4.41204e-09
-1.02485e-09
5.29236e-09
-8.80325e-10
6.04251e-09
-7.50145e-10
6.6979e-09
-6.5539e-10
7.31289e-09
-6.14992e-10
8.00374e-09
-6.90848e-10
8.62846e-09
-6.24722e-10
9.05885e-09
-4.30393e-10
9.59101e-09
-5.32156e-10
9.83705e-09
-2.46039e-10
1.01228e-08
-2.85782e-10
1.04594e-08
-3.36552e-10
1.1045e-08
-5.8558e-10
1.24905e-08
-1.44554e-09
-4.80827e-09
1.72988e-08
5.67e-10
-1.68193e-09
1.03211e-09
-1.61256e-09
1.45098e-09
-1.54367e-09
1.96816e-09
-1.54204e-09
2.75983e-09
-1.67199e-09
3.92394e-09
-1.91426e-09
5.45025e-09
-2.1817e-09
7.12742e-09
-2.29217e-09
8.48818e-09
-2.05161e-09
9.26291e-09
-1.39945e-09
9.69616e-09
-8.63651e-10
1.03105e-08
-1.14648e-09
1.05368e-08
-4.72324e-10
1.08408e-08
-5.89795e-10
1.11707e-08
-6.66494e-10
1.1694e-08
-1.10883e-09
1.27832e-08
-2.53475e-09
-6.54007e-09
1.4515e-08
9.47107e-10
-2.62904e-09
1.7376e-09
-2.40305e-09
2.3646e-09
-2.17068e-09
2.83954e-09
-2.01697e-09
3.16263e-09
-1.99508e-09
3.32208e-09
-2.07372e-09
3.31353e-09
-2.17314e-09
3.26815e-09
-2.2468e-09
3.85046e-09
-2.63391e-09
6.11025e-09
-3.65923e-09
9.3061e-09
-4.0595e-09
1.11256e-08
-2.96597e-09
1.12731e-08
-6.19818e-10
1.16029e-08
-9.19662e-10
1.18917e-08
-9.55254e-10
1.22585e-08
-1.47564e-09
1.2868e-08
-3.1442e-09
-6.79368e-09
1.31216e-08
1.25475e-09
-3.88378e-09
2.3111e-09
-3.45941e-09
3.16165e-09
-3.02123e-09
3.83161e-09
-2.68693e-09
4.34517e-09
-2.50864e-09
4.72548e-09
-2.45403e-09
5.00604e-09
-2.4537e-09
5.24371e-09
-2.48447e-09
5.36779e-09
-2.75799e-09
5.06837e-09
-3.35982e-09
4.60886e-09
-3.59999e-09
6.48084e-09
-4.83795e-09
1.13266e-08
-5.46561e-09
1.24225e-08
-2.01554e-09
1.26347e-08
-1.16744e-09
1.27675e-08
-1.60842e-09
1.29122e-08
-3.28895e-09
-6.35768e-09
1.24762e-08
1.55403e-09
-5.43781e-09
2.84885e-09
-4.75423e-09
3.8769e-09
-4.04927e-09
4.6774e-09
-3.48743e-09
5.29352e-09
-3.12476e-09
5.76736e-09
-2.92787e-09
6.14794e-09
-2.83428e-09
6.49151e-09
-2.82805e-09
6.76249e-09
-3.02896e-09
6.83555e-09
-3.43287e-09
6.90801e-09
-3.67245e-09
6.4352e-09
-4.36514e-09
5.74585e-09
-4.77626e-09
1.03503e-08
-6.62e-09
1.34296e-08
-4.24671e-09
1.32536e-08
-1.4324e-09
1.29828e-08
-3.01814e-09
-5.60295e-09
1.2228e-08
1.889e-09
-7.32681e-09
3.43417e-09
-6.29939e-09
4.63228e-09
-5.24739e-09
5.5435e-09
-4.39865e-09
6.23372e-09
-3.81498e-09
6.76284e-09
-3.45699e-09
7.18869e-09
-3.26012e-09
7.56107e-09
-3.20043e-09
7.86206e-09
-3.32995e-09
8.04021e-09
-3.61103e-09
8.22226e-09
-3.8545e-09
8.18539e-09
-4.32827e-09
8.10605e-09
-4.69692e-09
7.14492e-09
-5.65887e-09
9.81463e-09
-6.91642e-09
1.37357e-08
-5.35345e-09
1.30831e-08
-2.36554e-09
-4.69721e-09
1.21773e-08
2.29023e-09
-9.61704e-09
4.11703e-09
-8.1262e-09
5.49007e-09
-6.62043e-09
6.50222e-09
-5.4108e-09
7.24949e-09
-4.56225e-09
7.81203e-09
-4.01953e-09
8.25623e-09
-3.70432e-09
8.62911e-09
-3.5733e-09
8.92755e-09
-3.6284e-09
9.13589e-09
-3.81937e-09
9.32463e-09
-4.04323e-09
9.40134e-09
-4.40498e-09
9.47537e-09
-4.77096e-09
9.23628e-09
-5.41978e-09
8.4938e-09
-6.17394e-09
1.05343e-08
-7.39396e-09
1.31636e-08
-4.99481e-09
-3.72576e-09
1.21921e-08
2.7915e-09
-1.24085e-08
4.94607e-09
-1.02808e-08
6.5023e-09
-8.17665e-09
7.60487e-09
-6.51337e-09
8.391e-09
-5.34839e-09
8.9657e-09
-4.59422e-09
9.40567e-09
-4.14429e-09
9.75918e-09
-3.92682e-09
1.00355e-08
-3.90475e-09
1.02368e-08
-4.02062e-09
1.04019e-08
-4.20833e-09
1.04948e-08
-4.49793e-09
1.05601e-08
-4.83622e-09
1.04641e-08
-5.32373e-09
1.01571e-08
-5.86701e-09
9.28937e-09
-6.5262e-09
1.19579e-08
-7.66336e-09
-3.92285e-09
1.2155e-08
3.44009e-09
-1.58486e-08
5.98332e-09
-1.2824e-08
7.72848e-09
-9.92181e-09
8.90331e-09
-7.6882e-09
9.70269e-09
-6.14777e-09
1.02628e-08
-5.15437e-09
1.06734e-08
-4.55483e-09
1.09867e-08
-4.24012e-09
1.12216e-08
-4.13969e-09
1.13888e-08
-4.18777e-09
1.15106e-08
-4.33015e-09
1.15738e-08
-4.56119e-09
1.15897e-08
-4.85211e-09
1.14909e-08
-5.22489e-09
1.12378e-08
-5.61389e-09
1.06539e-08
-5.94237e-09
8.81553e-09
-5.82495e-09
-7.24581e-09
1.21385e-08
4.30954e-09
-2.01582e-08
7.31765e-09
-1.58321e-08
9.24674e-09
-1.18509e-08
1.04598e-08
-8.90126e-09
1.12331e-08
-6.9211e-09
1.1742e-08
-5.66329e-09
1.20914e-08
-4.90414e-09
1.23388e-08
-4.48752e-09
1.25096e-08
-4.31055e-09
1.26179e-08
-4.29608e-09
1.26773e-08
-4.38955e-09
1.26826e-08
-4.56648e-09
1.26314e-08
-4.80089e-09
1.24883e-08
-5.08181e-09
1.22364e-08
-5.36201e-09
1.18879e-08
-5.59384e-09
1.18122e-08
-5.74929e-09
-6.27364e-09
1.08401e-08
5.52217e-09
-2.56803e-08
9.08388e-09
-1.93938e-08
1.11656e-08
-1.39327e-08
1.23542e-08
-1.00898e-08
1.30402e-08
-7.60709e-09
1.3446e-08
-6.06916e-09
1.36923e-08
-5.1504e-09
1.38408e-08
-4.63607e-09
1.39199e-08
-4.38965e-09
1.39436e-08
-4.31973e-09
1.39199e-08
-4.36589e-09
1.38456e-08
-4.49218e-09
1.37141e-08
-4.66932e-09
1.35056e-08
-4.87339e-09
1.32101e-08
-5.06651e-09
1.28253e-08
-5.20904e-09
1.23321e-08
-5.25602e-09
-5.04784e-09
1.11063e-08
6.08526e-09
-3.17656e-08
9.60922e-09
-2.29178e-08
1.14213e-08
-1.57447e-08
1.23161e-08
-1.09845e-08
1.27489e-08
-8.03991e-09
1.29494e-08
-6.26965e-09
1.30291e-08
-5.23013e-09
1.30403e-08
-4.64731e-09
1.30055e-08
-4.35485e-09
1.2934e-08
-4.24822e-09
1.28289e-08
-4.26076e-09
1.26868e-08
-4.35005e-09
1.25014e-08
-4.48399e-09
1.22631e-08
-4.63509e-09
1.19682e-08
-4.77158e-09
1.16202e-08
-4.86102e-09
1.12266e-08
-4.86244e-09
-4.64919e-09
1.0828e-08
9.19832e-09
-4.09639e-08
1.37965e-08
-2.75159e-08
1.57629e-08
-1.77111e-08
1.65165e-08
-1.17382e-08
1.67437e-08
-8.26714e-09
1.67442e-08
-6.27017e-09
1.66451e-08
-5.131e-09
1.6498e-08
-4.50022e-09
1.63214e-08
-4.17822e-09
1.61197e-08
-4.04655e-09
1.58912e-08
-4.03223e-09
1.56295e-08
-4.08834e-09
1.53265e-08
-4.18098e-09
1.49737e-08
-4.28231e-09
1.45674e-08
-4.36531e-09
1.41086e-08
-4.40222e-09
1.36001e-08
-4.35391e-09
-4.12377e-09
1.30747e-08
1.50491e-08
-5.6013e-08
2.08036e-08
-3.32705e-08
2.24423e-08
-1.93498e-08
2.26116e-08
-1.19075e-08
2.23081e-08
-7.96367e-09
2.18769e-08
-5.8389e-09
2.14297e-08
-4.68384e-09
2.09962e-08
-4.06669e-09
2.05768e-08
-3.75885e-09
2.01627e-08
-3.63247e-09
1.97424e-08
-3.61188e-09
1.93034e-08
-3.64933e-09
1.88343e-08
-3.71189e-09
1.83265e-08
-3.77455e-09
1.77779e-08
-3.81673e-09
1.71972e-08
-3.82147e-09
1.66178e-08
-3.77454e-09
-3.65993e-09
1.6154e-08
2.78167e-08
-8.38297e-08
3.35172e-08
-3.89709e-08
3.31891e-08
-1.90218e-08
3.16921e-08
-1.04105e-08
3.01916e-08
-6.46317e-09
2.89039e-08
-4.5512e-09
2.78224e-08
-3.6023e-09
2.68983e-08
-3.14262e-09
2.60836e-08
-2.94418e-09
2.5339e-08
-2.88782e-09
2.46332e-08
-2.90612e-09
2.39415e-08
-2.9576e-09
2.32449e-08
-3.01525e-09
2.25302e-08
-3.0599e-09
2.17914e-08
-3.07786e-09
2.10299e-08
-3.06006e-09
2.02552e-08
-2.9998e-09
-2.88164e-09
1.94769e-08
6.25336e-08
-1.46363e-07
5.87915e-08
-3.52288e-08
5.11654e-08
-1.13956e-08
4.54799e-08
-4.72506e-09
4.15011e-08
-2.48439e-09
3.8634e-08
-1.6841e-09
3.64703e-08
-1.43855e-09
3.47573e-08
-1.42961e-09
3.33371e-08
-1.52397e-09
3.21074e-08
-1.65816e-09
3.09993e-08
-1.79801e-09
2.99629e-08
-1.92116e-09
2.89635e-08
-2.01592e-09
2.7977e-08
-2.07333e-09
2.69867e-08
-2.08762e-09
2.59838e-08
-2.05711e-09
2.49716e-08
-1.98766e-09
-1.9007e-09
2.39907e-08
1.96323e-07
1.57273e-07
1.141e-07
4.69941e-08
8.31155e-08
1.95893e-08
6.80823e-08
1.03081e-08
5.93948e-08
6.20314e-09
5.37303e-08
3.98035e-09
4.96985e-08
2.59332e-09
4.66278e-08
1.64107e-09
4.41583e-08
9.45535e-10
4.20818e-08
4.1834e-10
4.02722e-08
1.15961e-11
3.86203e-08
-2.69238e-10
3.70808e-08
-4.76448e-10
3.5623e-08
-6.15508e-10
3.42204e-08
-6.85103e-10
3.28384e-08
-6.75053e-10
3.14057e-08
-5.54968e-10
-2.57129e-10
2.97621e-08
7.65916e-08
8.06818e-08
7.73494e-08
4.62364e-08
6.97882e-08
2.71504e-08
6.31037e-08
1.69926e-08
5.801e-08
1.12968e-08
5.41173e-08
7.87311e-09
5.1036e-08
5.67462e-09
4.84949e-08
4.18212e-09
4.6316e-08
3.1244e-09
4.43818e-08
2.35261e-09
4.26116e-08
1.78181e-09
4.09786e-08
1.36375e-09
3.94335e-08
1.06859e-09
3.79334e-08
8.84607e-10
3.64298e-08
8.18525e-10
3.48522e-08
9.02591e-10
3.30269e-08
1.27029e-09
2.68128e-09
3.00885e-08
3.59829e-08
4.4699e-08
4.96459e-08
3.25733e-08
5.36598e-08
2.31365e-08
5.40216e-08
1.66308e-08
5.30698e-08
1.22486e-08
5.16783e-08
9.26458e-09
5.01673e-08
7.18569e-09
4.86481e-08
5.70128e-09
4.71538e-08
4.6187e-09
4.56876e-08
3.8188e-09
4.42418e-08
3.22761e-09
4.28031e-08
2.8025e-09
4.13514e-08
2.52027e-09
3.98446e-08
2.39144e-09
3.81326e-08
2.53053e-09
3.58615e-08
3.17366e-09
3.48601e-08
2.27164e-09
-1.29873e-09
3.88401e-08
1.46434e-08
3.00556e-08
2.31926e-08
2.40241e-08
2.77015e-08
1.86277e-08
2.99168e-08
1.44154e-08
3.08782e-08
1.12873e-08
3.11473e-08
8.9954e-09
3.10231e-08
7.30996e-09
3.06647e-08
6.05969e-09
3.01589e-08
5.12445e-09
2.955e-08
4.42775e-09
2.88608e-08
3.91673e-09
2.80751e-08
3.58821e-09
2.71728e-08
3.4226e-09
2.61852e-08
3.379e-09
2.42752e-08
4.44054e-09
2.56531e-08
1.79576e-09
2.96137e-08
-1.68893e-09
-1.57477e-09
2.98897e-08
8.61513e-09
2.14404e-08
1.4602e-08
1.80372e-08
1.84475e-08
1.47822e-08
2.08093e-08
1.20536e-08
2.21998e-08
9.8968e-09
2.29563e-08
8.23889e-09
2.32946e-08
6.97169e-09
2.33434e-08
6.01082e-09
2.31848e-08
5.28305e-09
2.28409e-08
4.77167e-09
2.235e-08
4.40767e-09
2.15038e-08
4.43436e-09
1.96886e-08
5.23786e-09
1.9267e-08
3.80056e-09
2.40022e-08
-2.94673e-10
2.68186e-08
-1.02058e-09
2.62806e-08
-1.15091e-09
-1.18999e-09
2.58958e-08
5.61803e-09
1.58224e-08
9.8985e-09
1.37568e-08
1.29461e-08
1.17346e-08
1.50248e-08
9.97497e-09
1.63971e-08
8.52446e-09
1.72479e-08
7.38811e-09
1.77249e-08
6.49473e-09
1.7899e-08
5.83672e-09
1.78508e-08
5.3312e-09
1.7438e-08
5.18452e-09
1.68878e-08
4.95787e-09
1.55579e-08
5.76427e-09
1.80232e-08
2.77257e-09
2.26692e-08
-8.45446e-10
2.31272e-08
-7.52729e-10
2.29205e-08
-8.13917e-10
2.26466e-08
-8.76923e-10
-9.15373e-10
2.23719e-08
3.90767e-09
1.19147e-08
7.05285e-09
1.06116e-08
9.42798e-09
9.35943e-09
1.11369e-08
8.26606e-09
1.23388e-08
7.32254e-09
1.30983e-08
6.62864e-09
1.35403e-08
6.05275e-09
1.36027e-08
5.77432e-09
1.34771e-08
5.45677e-09
1.20786e-08
6.58304e-09
1.243e-08
4.60647e-09
1.77746e-08
4.19625e-10
2.06228e-08
-7.56451e-11
2.01923e-08
-4.14888e-10
1.99732e-08
-5.33623e-10
1.97715e-08
-6.12271e-10
1.95631e-08
-6.68493e-10
-7.04734e-10
1.93524e-08
2.82465e-09
9.09009e-09
5.17976e-09
8.25648e-09
7.01558e-09
7.52362e-09
8.34748e-09
6.93416e-09
9.32938e-09
6.34064e-09
9.85753e-09
6.10048e-09
1.01169e-08
5.79336e-09
9.56723e-09
6.32402e-09
9.24788e-09
5.77612e-09
1.29828e-08
2.84806e-09
1.7303e-08
2.86351e-10
1.75873e-08
1.35314e-10
1.75712e-08
-5.95237e-11
1.74124e-08
-2.56156e-10
1.72546e-08
-3.75812e-10
1.70956e-08
-4.53266e-10
1.6932e-08
-5.04929e-10
-5.3805e-10
1.67654e-08
2.07151e-09
7.01858e-09
3.83537e-09
6.49262e-09
5.22029e-09
6.13869e-09
6.14193e-09
6.01252e-09
6.84331e-09
5.63926e-09
6.85264e-09
6.09116e-09
6.61138e-09
6.03462e-09
8.7871e-09
4.14829e-09
1.34768e-08
1.08639e-09
1.53006e-08
1.02428e-09
1.51792e-08
4.078e-10
1.5161e-08
1.53452e-10
1.51261e-08
-2.45729e-11
1.50377e-08
-1.67733e-10
1.49278e-08
-2.65911e-10
1.48063e-08
-3.31756e-10
1.46769e-08
-3.75612e-10
-4.03823e-10
1.45427e-08
1.48286e-09
5.53572e-09
2.73416e-09
5.24132e-09
3.66696e-09
5.20589e-09
4.01311e-09
5.66638e-09
4.32654e-09
5.32583e-09
6.21523e-09
4.20247e-09
1.01762e-08
2.0736e-09
1.25903e-08
1.73419e-09
1.27152e-08
9.61569e-10
1.30286e-08
7.10846e-10
1.30829e-08
3.5346e-10
1.30956e-08
1.40804e-10
1.30744e-08
-3.42507e-12
1.30172e-08
-1.10462e-10
1.29369e-08
-1.85673e-10
1.28422e-08
-2.37062e-10
1.27381e-08
-2.7151e-10
-2.93792e-10
1.26281e-08
9.32387e-10
4.60334e-09
1.68534e-09
4.48836e-09
2.68709e-09
4.20414e-09
4.79962e-09
3.55384e-09
7.61855e-09
2.5069e-09
9.60573e-09
2.21529e-09
1.01838e-08
1.49555e-09
1.07492e-08
1.16876e-09
1.09938e-08
7.16981e-10
1.12153e-08
4.89346e-10
1.13064e-08
2.62393e-10
1.13375e-08
1.09666e-10
1.13292e-08
4.8606e-12
1.12896e-08
-7.0832e-11
1.12282e-08
-1.24268e-10
1.11522e-08
-1.61089e-10
1.10666e-08
-1.85895e-10
-2.02011e-10
1.09748e-08
1.45002e-09
3.15332e-09
3.20536e-09
2.73303e-09
5.01377e-09
2.39573e-09
6.45905e-09
2.10856e-09
7.38591e-09
1.58004e-09
8.2539e-09
1.34729e-09
8.80446e-09
9.44998e-10
9.25726e-09
7.15953e-10
9.51711e-09
4.5713e-10
9.70293e-09
3.03525e-10
9.79771e-09
1.67618e-10
9.83536e-09
7.20132e-11
9.83451e-09
5.7114e-12
9.8054e-09
-4.17212e-11
9.75636e-09
-7.52336e-11
9.69369e-09
-9.84141e-11
9.62187e-09
-1.14076e-10
-1.2428e-10
9.54414e-09
1.69131e-09
1.46201e-09
3.15182e-09
1.27251e-09
4.43243e-09
1.11512e-09
5.56561e-09
9.7539e-10
6.40484e-09
7.408e-10
7.12979e-09
6.22346e-10
7.63158e-09
4.43211e-10
8.01563e-09
3.31899e-10
8.25752e-09
2.15243e-10
8.4195e-09
1.41545e-10
8.50805e-09
7.90669e-11
8.54566e-09
3.44102e-11
8.5481e-09
3.27172e-12
8.52531e-09
-1.89326e-11
8.4847e-09
-3.4622e-11
8.43177e-09
-4.54915e-11
8.37054e-09
-5.28458e-11
-5.7644e-11
8.30391e-09
1.46201e-09
2.73452e-09
3.84964e-09
4.82503e-09
5.56583e-09
6.18818e-09
6.63139e-09
6.96329e-09
7.17853e-09
7.32007e-09
7.39914e-09
7.43355e-09
7.43682e-09
7.41789e-09
7.38327e-09
7.33778e-09
7.28493e-09
7.22729e-09
2.42319e-10
-2.42319e-10
4.86017e-10
-2.43698e-10
7.308e-10
-2.44783e-10
9.76363e-10
-2.45563e-10
1.22239e-09
-2.4603e-10
1.46857e-09
-2.46177e-10
1.71457e-09
-2.46001e-10
1.96007e-09
-2.45499e-10
2.20474e-09
-2.44671e-10
2.44826e-09
-2.4352e-10
2.69031e-09
-2.42048e-10
2.93057e-09
-2.40263e-10
3.16874e-09
-2.38172e-10
3.40453e-09
-2.35785e-10
3.63764e-09
-2.33113e-10
3.86781e-09
-2.30171e-10
4.09478e-09
-2.26971e-10
4.31831e-09
-2.23531e-10
4.53818e-09
-2.19866e-10
4.75417e-09
-2.15994e-10
4.96611e-09
-2.11933e-10
5.17381e-09
-2.07701e-10
5.37712e-09
-2.03316e-10
5.57592e-09
-1.98798e-10
5.77009e-09
-1.94164e-10
5.95952e-09
-1.89432e-10
6.14414e-09
-1.84621e-10
6.32388e-09
-1.79746e-10
6.49871e-09
-1.74825e-10
6.66858e-09
-1.69872e-10
6.83348e-09
-1.64902e-10
6.99341e-09
-1.5993e-10
7.14838e-09
-1.54968e-10
7.29841e-09
-1.50028e-10
7.44353e-09
-1.45121e-10
7.58379e-09
-1.40256e-10
7.71923e-09
-1.35445e-10
7.84992e-09
-1.30693e-10
7.97593e-09
-1.2601e-10
8.09733e-09
-1.214e-10
8.2142e-09
-1.16871e-10
8.32663e-09
-1.12427e-10
8.4347e-09
-1.08072e-10
8.53851e-09
-1.0381e-10
8.63816e-09
-9.96437e-11
8.73373e-09
-9.55756e-11
8.82534e-09
-9.16077e-11
8.91308e-09
-8.7741e-11
8.99706e-09
-8.39766e-11
9.07737e-09
-8.03152e-11
9.15413e-09
-7.67566e-11
9.22743e-09
-7.33009e-11
9.29738e-09
-6.99474e-11
9.36407e-09
-6.66957e-11
9.42762e-09
-6.35445e-11
9.48811e-09
-6.04926e-11
9.54565e-09
-5.75391e-11
9.60033e-09
-5.4682e-11
9.65225e-09
-5.19201e-11
9.7015e-09
-4.92514e-11
9.74818e-09
-4.6674e-11
9.79236e-09
-4.41863e-11
9.83415e-09
-4.17861e-11
9.87362e-09
-3.94714e-11
9.91086e-09
-3.72401e-11
9.94595e-09
-3.50903e-11
9.97897e-09
-3.30196e-11
1.001e-08
-3.10261e-11
1.00391e-08
-2.91078e-11
1.00664e-08
-2.7262e-11
1.00919e-08
-2.54874e-11
1.01156e-08
-2.37813e-11
1.01378e-08
-2.21417e-11
1.01583e-08
-2.05667e-11
1.01774e-08
-1.90542e-11
1.0195e-08
-1.76023e-11
1.02112e-08
-1.62088e-11
1.02261e-08
-1.48721e-11
1.02397e-08
-1.35898e-11
1.0252e-08
-1.23605e-11
1.02632e-08
-1.1182e-11
1.02733e-08
-1.00527e-11
1.02822e-08
-8.97088e-12
1.02902e-08
-7.9347e-12
1.02971e-08
-6.94257e-12
1.03031e-08
-5.99266e-12
1.03082e-08
-5.08364e-12
1.03124e-08
-4.21368e-12
1.03158e-08
-3.38145e-12
1.03184e-08
-2.58546e-12
1.03202e-08
-1.82409e-12
1.03213e-08
-1.09613e-12
1.03217e-08
-4.00013e-13
1.03214e-08
2.65278e-13
1.03205e-08
9.01421e-13
1.0319e-08
1.50937e-12
1.03169e-08
2.09033e-12
1.03143e-08
2.64577e-12
1.03111e-08
3.17654e-12
1.03074e-08
3.68391e-12
1.03033e-08
4.16877e-12
1.02986e-08
4.63242e-12
1.02935e-08
5.07549e-12
1.0288e-08
5.49941e-12
1.02821e-08
5.90462e-12
1.02758e-08
6.2924e-12
1.02692e-08
6.66343e-12
1.02622e-08
7.01863e-12
1.02548e-08
7.35871e-12
1.02471e-08
7.68453e-12
1.02391e-08
7.99683e-12
1.02308e-08
8.29633e-12
1.02222e-08
8.58361e-12
1.02134e-08
8.85943e-12
1.02043e-08
9.12442e-12
1.01949e-08
9.37928e-12
1.01853e-08
9.6243e-12
1.01754e-08
9.86052e-12
1.01653e-08
1.00879e-11
1.0155e-08
1.03075e-11
1.01445e-08
1.05193e-11
1.01338e-08
1.07243e-11
1.01228e-08
1.09225e-11
1.01117e-08
1.11146e-11
1.01004e-08
1.13009e-11
1.00889e-08
1.14817e-11
1.00773e-08
1.16577e-11
1.00655e-08
1.18289e-11
1.00535e-08
1.19957e-11
1.00413e-08
1.21587e-11
1.0029e-08
1.23179e-11
1.00165e-08
1.24738e-11
1.00039e-08
1.26264e-11
9.9911e-09
1.27763e-11
9.97818e-09
1.29236e-11
9.96511e-09
1.30687e-11
9.9519e-09
1.32114e-11
9.93855e-09
1.33526e-11
9.92505e-09
1.3492e-11
9.91142e-09
1.363e-11
9.89766e-09
1.37669e-11
9.88375e-09
1.39028e-11
9.86972e-09
1.40382e-11
9.85554e-09
1.41731e-11
9.84123e-09
1.43079e-11
9.82679e-09
1.44428e-11
9.81221e-09
1.45781e-11
9.7975e-09
1.47143e-11
9.78265e-09
1.4852e-11
9.76766e-09
1.49915e-11
9.75252e-09
1.51334e-11
9.73724e-09
1.52787e-11
9.72182e-09
1.54282e-11
9.70623e-09
1.55831e-11
9.69049e-09
1.57449e-11
9.67457e-09
1.59155e-11
9.65847e-09
1.60974e-11
9.64218e-09
1.62934e-11
9.62567e-09
1.65076e-11
9.60893e-09
1.67447e-11
9.59192e-09
1.70115e-11
9.5746e-09
1.73161e-11
9.55693e-09
1.76696e-11
9.53885e-09
1.8086e-11
9.52026e-09
1.85845e-11
9.50107e-09
1.91902e-11
9.48113e-09
1.99368e-11
9.46026e-09
2.08704e-11
9.43821e-09
2.20545e-11
9.41463e-09
2.35782e-11
9.38906e-09
2.55698e-11
9.36084e-09
2.82186e-11
9.32903e-09
3.18148e-11
9.2922e-09
3.6825e-11
9.24816e-09
4.40468e-11
9.19319e-09
5.49634e-11
9.12052e-09
7.26768e-11
9.01562e-09
1.04892e-10
8.83928e-09
1.76344e-10
4.01156e-10
8.43812e-09
2.43643e-10
-4.85961e-10
4.88664e-10
-4.88719e-10
7.3476e-10
-4.90879e-10
9.81618e-10
-4.92421e-10
1.22892e-09
-4.93328e-10
1.47633e-09
-4.93589e-10
1.72352e-09
-4.93195e-10
1.97016e-09
-4.92142e-10
2.21592e-09
-4.9043e-10
2.46047e-09
-4.88064e-10
2.70347e-09
-4.85053e-10
2.94462e-09
-4.81409e-10
3.1836e-09
-4.7715e-10
3.42011e-09
-4.72297e-10
3.65387e-09
-4.66872e-10
3.8846e-09
-4.60905e-10
4.11205e-09
-4.54423e-10
4.33598e-09
-4.4746e-10
4.55617e-09
-4.40049e-10
4.7724e-09
-4.32226e-10
4.98449e-09
-4.24027e-10
5.19228e-09
-4.1549e-10
5.39562e-09
-4.06652e-10
5.59437e-09
-3.9755e-10
5.78843e-09
-3.88222e-10
5.9777e-09
-3.78703e-10
6.16211e-09
-3.69029e-10
6.34159e-09
-3.59233e-10
6.51612e-09
-3.49349e-10
6.68565e-09
-3.39407e-10
6.85018e-09
-3.29436e-10
7.00972e-09
-3.19464e-10
7.16427e-09
-3.09517e-10
7.31386e-09
-2.99617e-10
7.45852e-09
-2.89788e-10
7.59832e-09
-2.80048e-10
7.73329e-09
-2.70416e-10
7.8635e-09
-2.60908e-10
7.98903e-09
-2.51538e-10
8.10995e-09
-2.42319e-10
8.22634e-09
-2.33263e-10
8.33829e-09
-2.24378e-10
8.44589e-09
-2.15674e-10
8.54924e-09
-2.07157e-10
8.64843e-09
-1.98834e-10
8.74356e-09
-1.90707e-10
8.83474e-09
-1.82781e-10
8.92205e-09
-1.75059e-10
9.00562e-09
-1.67542e-10
9.08554e-09
-1.60232e-10
9.16191e-09
-1.53127e-10
9.23484e-09
-1.46229e-10
9.30442e-09
-1.39535e-10
9.37077e-09
-1.33044e-10
9.43398e-09
-1.26755e-10
9.49415e-09
-1.20664e-10
9.55138e-09
-1.1477e-10
9.60577e-09
-1.09068e-10
9.65741e-09
-1.03557e-10
9.70639e-09
-9.82313e-11
9.7528e-09
-9.30886e-11
9.79674e-09
-8.81246e-11
9.83829e-09
-8.33353e-11
9.87753e-09
-7.87168e-11
9.91456e-09
-7.42648e-11
9.94944e-09
-6.99753e-11
9.98227e-09
-6.58438e-11
1.00131e-08
-6.18664e-11
1.0042e-08
-5.80385e-11
1.00691e-08
-5.43562e-11
1.00945e-08
-5.0815e-11
1.01181e-08
-4.74109e-11
1.01401e-08
-4.41397e-11
1.01605e-08
-4.0997e-11
1.01794e-08
-3.79793e-11
1.01969e-08
-3.50822e-11
1.0213e-08
-3.23018e-11
1.02278e-08
-2.96342e-11
1.02413e-08
-2.70759e-11
1.02535e-08
-2.46227e-11
1.02646e-08
-2.22713e-11
1.02746e-08
-2.00179e-11
1.02835e-08
-1.78592e-11
1.02913e-08
-1.57914e-11
1.02982e-08
-1.38114e-11
1.03041e-08
-1.19159e-11
1.03091e-08
-1.01019e-11
1.03133e-08
-8.36576e-12
1.03166e-08
-6.70499e-12
1.03191e-08
-5.11625e-12
1.03209e-08
-3.59685e-12
1.0322e-08
-2.1439e-12
1.03223e-08
-7.54779e-13
1.0322e-08
5.73239e-13
1.03211e-08
1.84272e-12
1.03195e-08
3.05615e-12
1.03174e-08
4.21603e-12
1.03147e-08
5.32441e-12
1.03115e-08
6.38404e-12
1.03078e-08
7.39663e-12
1.03036e-08
8.36468e-12
1.02989e-08
9.28995e-12
1.02938e-08
1.01747e-11
1.02883e-08
1.10208e-11
1.02824e-08
1.183e-11
1.02761e-08
1.26041e-11
1.02694e-08
1.33448e-11
1.02624e-08
1.4054e-11
1.0255e-08
1.4733e-11
1.02473e-08
1.53837e-11
1.02393e-08
1.60072e-11
1.0231e-08
1.66051e-11
1.02224e-08
1.71788e-11
1.02135e-08
1.77298e-11
1.02044e-08
1.82589e-11
1.0195e-08
1.87678e-11
1.01854e-08
1.92574e-11
1.01755e-08
1.97289e-11
1.01654e-08
2.01833e-11
1.01551e-08
2.06217e-11
1.01446e-08
2.10451e-11
1.01338e-08
2.14544e-11
1.01229e-08
2.18504e-11
1.01118e-08
2.22341e-11
1.01005e-08
2.26064e-11
1.0089e-08
2.29679e-11
1.00773e-08
2.33192e-11
1.00655e-08
2.36613e-11
1.00535e-08
2.39949e-11
1.00413e-08
2.43204e-11
1.0029e-08
2.46386e-11
1.00165e-08
2.495e-11
1.00039e-08
2.52552e-11
9.99112e-09
2.55548e-11
9.9782e-09
2.58493e-11
9.96513e-09
2.61389e-11
9.95191e-09
2.64247e-11
9.93856e-09
2.67066e-11
9.92507e-09
2.69853e-11
9.91144e-09
2.72612e-11
9.89767e-09
2.7535e-11
9.88376e-09
2.78067e-11
9.86973e-09
2.80772e-11
9.85555e-09
2.83468e-11
9.84124e-09
2.86162e-11
9.8268e-09
2.88858e-11
9.81222e-09
2.91565e-11
9.79751e-09
2.94288e-11
9.78266e-09
2.97039e-11
9.76766e-09
2.99826e-11
9.75253e-09
3.02662e-11
9.73725e-09
3.05565e-11
9.72183e-09
3.0855e-11
9.70625e-09
3.11645e-11
9.6905e-09
3.14876e-11
9.67459e-09
3.18283e-11
9.6585e-09
3.21911e-11
9.64221e-09
3.25822e-11
9.62571e-09
3.30092e-11
9.60897e-09
3.3482e-11
9.59197e-09
3.40135e-11
9.57466e-09
3.46201e-11
9.55701e-09
3.53236e-11
9.53894e-09
3.61523e-11
9.52038e-09
3.71434e-11
9.50123e-09
3.83472e-11
9.48133e-09
3.98302e-11
9.46052e-09
4.16837e-11
9.43854e-09
4.40326e-11
9.41507e-09
4.70529e-11
9.38964e-09
5.09963e-11
9.36163e-09
5.62333e-11
9.33011e-09
6.33299e-11
9.29375e-09
7.31874e-11
9.25047e-09
8.73303e-11
9.19689e-09
1.08538e-10
9.12714e-09
1.42423e-10
9.0301e-09
2.01936e-10
8.88406e-09
3.22381e-10
6.16646e-10
8.66857e-09
2.46327e-10
-7.32289e-10
4.94028e-10
-7.3642e-10
7.42785e-10
-7.39636e-10
9.92267e-10
-7.41903e-10
1.24214e-09
-7.43197e-10
1.49205e-09
-7.435e-10
1.74165e-09
-7.42801e-10
1.9906e-09
-7.41094e-10
2.23856e-09
-7.38382e-10
2.48517e-09
-7.34673e-10
2.7301e-09
-7.29982e-10
2.97302e-09
-7.24331e-10
3.21361e-09
-7.17748e-10
3.45158e-09
-7.10265e-10
3.68663e-09
-7.01921e-10
3.91849e-09
-6.92759e-10
4.14689e-09
-6.82827e-10
4.3716e-09
-6.72173e-10
4.59241e-09
-6.60852e-10
4.8091e-09
-6.48918e-10
5.0215e-09
-6.36428e-10
5.22945e-09
-6.23439e-10
5.43281e-09
-6.10009e-10
5.63145e-09
-5.96193e-10
5.82528e-09
-5.82049e-10
6.01421e-09
-5.67631e-10
6.19817e-09
-5.52993e-10
6.37712e-09
-5.38185e-10
6.55103e-09
-5.23256e-10
6.71988e-09
-5.08252e-10
6.88366e-09
-4.93218e-10
7.04239e-09
-4.78193e-10
7.19609e-09
-4.63215e-10
7.34479e-09
-4.48319e-10
7.48854e-09
-4.33538e-10
7.62739e-09
-4.18901e-10
7.76141e-09
-4.04433e-10
7.89066e-09
-3.90158e-10
8.01522e-09
-3.76098e-10
8.13517e-09
-3.6227e-10
8.2506e-09
-3.48691e-10
8.36159e-09
-3.35376e-10
8.46825e-09
-3.22334e-10
8.57067e-09
-3.09578e-10
8.66895e-09
-2.97113e-10
8.7632e-09
-2.84948e-10
8.8535e-09
-2.73086e-10
8.93997e-09
-2.61532e-10
9.02272e-09
-2.50286e-10
9.10184e-09
-2.39351e-10
9.17743e-09
-2.28726e-10
9.24962e-09
-2.1841e-10
9.31848e-09
-2.08402e-10
9.38414e-09
-1.98699e-10
9.44668e-09
-1.89297e-10
9.50621e-09
-1.80194e-10
9.56283e-09
-1.71384e-10
9.61662e-09
-1.62864e-10
9.66769e-09
-1.54627e-10
9.71613e-09
-1.4667e-10
9.76203e-09
-1.38985e-10
9.80547e-09
-1.31568e-10
9.84655e-09
-1.24412e-10
9.88534e-09
-1.17511e-10
9.92194e-09
-1.1086e-10
9.95641e-09
-1.04451e-10
9.98884e-09
-9.82781e-11
1.00193e-08
-9.23356e-11
1.00479e-08
-8.66166e-11
1.00747e-08
-8.11149e-11
1.00997e-08
-7.58243e-11
1.0123e-08
-7.07383e-11
1.01447e-08
-6.58507e-11
1.01649e-08
-6.11555e-11
1.01835e-08
-5.66465e-11
1.02008e-08
-5.23178e-11
1.02166e-08
-4.81635e-11
1.02312e-08
-4.41777e-11
1.02444e-08
-4.03549e-11
1.02565e-08
-3.66893e-11
1.02674e-08
-3.31756e-11
1.02772e-08
-2.98083e-11
1.02859e-08
-2.65822e-11
1.02936e-08
-2.34923e-11
1.03004e-08
-2.05335e-11
1.03061e-08
-1.77008e-11
1.0311e-08
-1.49895e-11
1.03151e-08
-1.2395e-11
1.03183e-08
-9.91261e-12
1.03207e-08
-7.53823e-12
1.03224e-08
-5.26717e-12
1.03233e-08
-3.09547e-12
1.03236e-08
-1.01906e-12
1.03232e-08
9.66175e-13
1.03222e-08
2.86388e-12
1.03205e-08
4.67786e-12
1.03183e-08
6.41171e-12
1.03156e-08
8.06902e-12
1.03123e-08
9.65297e-12
1.03086e-08
1.11671e-11
1.03043e-08
1.26145e-11
1.02996e-08
1.39982e-11
1.02944e-08
1.53211e-11
1.02889e-08
1.65863e-11
1.02829e-08
1.77964e-11
1.02766e-08
1.89541e-11
1.02698e-08
2.0062e-11
1.02628e-08
2.11228e-11
1.02554e-08
2.21385e-11
1.02476e-08
2.31116e-11
1.02396e-08
2.40445e-11
1.02313e-08
2.49391e-11
1.02227e-08
2.57974e-11
1.02138e-08
2.66216e-11
1.02046e-08
2.74136e-11
1.01952e-08
2.8175e-11
1.01856e-08
2.89077e-11
1.01757e-08
2.96134e-11
1.01656e-08
3.02935e-11
1.01552e-08
3.09497e-11
1.01447e-08
3.15835e-11
1.0134e-08
3.21963e-11
1.0123e-08
3.27891e-11
1.01119e-08
3.33638e-11
1.01006e-08
3.3921e-11
1.00891e-08
3.44623e-11
1.00774e-08
3.49886e-11
1.00656e-08
3.5501e-11
1.00536e-08
3.60005e-11
1.00414e-08
3.64882e-11
1.00291e-08
3.69648e-11
1.00166e-08
3.74314e-11
1.00039e-08
3.78887e-11
9.99117e-09
3.83375e-11
9.97824e-09
3.87786e-11
9.96516e-09
3.92129e-11
9.95195e-09
3.96409e-11
9.93859e-09
4.00635e-11
9.92509e-09
4.04811e-11
9.91146e-09
4.08947e-11
9.89769e-09
4.13048e-11
9.88379e-09
4.17123e-11
9.86975e-09
4.21177e-11
9.85557e-09
4.25218e-11
9.84126e-09
4.29256e-11
9.82682e-09
4.33296e-11
9.81224e-09
4.37351e-11
9.79752e-09
4.41434e-11
9.78267e-09
4.45554e-11
9.76768e-09
4.4973e-11
9.75255e-09
4.53979e-11
9.73727e-09
4.58324e-11
9.72185e-09
4.62795e-11
9.70627e-09
4.67426e-11
9.69053e-09
4.7226e-11
9.67463e-09
4.77354e-11
9.65854e-09
4.82777e-11
9.64226e-09
4.88618e-11
9.62577e-09
4.94992e-11
9.60905e-09
5.02045e-11
9.59206e-09
5.09966e-11
9.57478e-09
5.19e-11
9.55716e-09
5.29469e-11
9.53913e-09
5.4179e-11
9.52063e-09
5.56517e-11
9.50154e-09
5.74384e-11
9.48173e-09
5.96379e-11
9.46103e-09
6.23838e-11
9.4392e-09
6.58599e-11
9.41593e-09
7.03233e-11
9.39079e-09
7.61407e-11
9.36317e-09
8.3849e-11
9.33224e-09
9.42602e-11
9.29677e-09
1.08654e-10
9.25495e-09
1.29156e-10
9.20396e-09
1.59529e-10
9.13937e-09
2.07006e-10
9.05446e-09
2.86853e-10
8.94252e-09
4.34316e-10
7.32027e-10
8.82714e-09
2.50447e-10
-9.82736e-10
5.02261e-10
-9.88234e-10
7.55098e-10
-9.92473e-10
1.0086e-09
-9.95406e-10
1.2624e-09
-9.97e-10
1.51614e-09
-9.97233e-10
1.76943e-09
-9.96091e-10
2.0219e-09
-9.93569e-10
2.27319e-09
-9.89674e-10
2.52294e-09
-9.84419e-10
2.77079e-09
-9.77829e-10
3.01639e-09
-9.69937e-10
3.25943e-09
-9.60784e-10
3.49958e-09
-9.50419e-10
3.73656e-09
-9.38897e-10
3.97008e-09
-9.2628e-10
4.19989e-09
-9.12636e-10
4.42575e-09
-8.98035e-10
4.64745e-09
-8.82552e-10
4.8648e-09
-8.66264e-10
5.07762e-09
-8.49249e-10
5.28576e-09
-8.31585e-10
5.4891e-09
-8.13352e-10
5.68754e-09
-7.94627e-10
5.88097e-09
-7.75485e-10
6.06935e-09
-7.56002e-10
6.2526e-09
-7.36249e-10
6.43071e-09
-7.16292e-10
6.60365e-09
-6.96198e-10
6.77142e-09
-6.76027e-10
6.93404e-09
-6.55837e-10
7.09153e-09
-6.3568e-10
7.24392e-09
-6.15607e-10
7.39127e-09
-5.95663e-10
7.53362e-09
-5.75889e-10
7.67104e-09
-5.56323e-10
7.80361e-09
-5.36998e-10
7.93139e-09
-5.17945e-10
8.05449e-09
-4.9919e-10
8.17297e-09
-4.80756e-10
8.28695e-09
-4.62665e-10
8.3965e-09
-4.44932e-10
8.50174e-09
-4.27574e-10
8.60276e-09
-4.10601e-10
8.69968e-09
-3.94024e-10
8.79258e-09
-3.77851e-10
8.88158e-09
-3.62086e-10
8.96678e-09
-3.46733e-10
9.04829e-09
-3.31796e-10
9.12621e-09
-3.17274e-10
9.20065e-09
-3.03168e-10
9.27172e-09
-2.89474e-10
9.33951e-09
-2.76191e-10
9.40412e-09
-2.63315e-10
9.46567e-09
-2.50841e-10
9.52423e-09
-2.38763e-10
9.57993e-09
-2.27077e-10
9.63284e-09
-2.15775e-10
9.68306e-09
-2.04851e-10
9.73069e-09
-1.94297e-10
9.77581e-09
-1.84107e-10
9.81851e-09
-1.74271e-10
9.85888e-09
-1.64782e-10
9.89701e-09
-1.55632e-10
9.93296e-09
-1.46812e-10
9.96682e-09
-1.38314e-10
9.99867e-09
-1.3013e-10
1.00286e-08
-1.2225e-10
1.00566e-08
-1.14667e-10
1.00829e-08
-1.07373e-10
1.01074e-08
-1.00358e-10
1.01303e-08
-9.36138e-11
1.01516e-08
-8.71332e-11
1.01713e-08
-8.09075e-11
1.01896e-08
-7.49285e-11
1.02065e-08
-6.91884e-11
1.0222e-08
-6.36797e-11
1.02362e-08
-5.83941e-11
1.02492e-08
-5.33245e-11
1.0261e-08
-4.84633e-11
1.02716e-08
-4.38035e-11
1.02811e-08
-3.93376e-11
1.02896e-08
-3.50589e-11
1.02971e-08
-3.09607e-11
1.03036e-08
-2.70359e-11
1.03092e-08
-2.32787e-11
1.03138e-08
-1.96822e-11
1.03177e-08
-1.62406e-11
1.03207e-08
-1.29475e-11
1.0323e-08
-9.79739e-12
1.03245e-08
-6.78445e-12
1.03253e-08
-3.90316e-12
1.03254e-08
-1.14805e-12
1.03249e-08
1.48609e-12
1.03238e-08
4.00413e-12
1.0322e-08
6.4113e-12
1.03197e-08
8.71235e-12
1.03169e-08
1.09118e-11
1.03135e-08
1.30141e-11
1.03097e-08
1.50238e-11
1.03054e-08
1.69449e-11
1.03006e-08
1.87817e-11
1.02954e-08
2.05381e-11
1.02897e-08
2.22177e-11
1.02837e-08
2.38244e-11
1.02773e-08
2.53616e-11
1.02705e-08
2.68329e-11
1.02634e-08
2.82413e-11
1.02559e-08
2.95904e-11
1.02482e-08
3.0883e-11
1.02401e-08
3.21219e-11
1.02317e-08
3.33104e-11
1.02231e-08
3.44508e-11
1.02141e-08
3.55458e-11
1.0205e-08
3.65981e-11
1.01955e-08
3.76101e-11
1.01858e-08
3.85838e-11
1.01759e-08
3.95216e-11
1.01658e-08
4.04258e-11
1.01555e-08
4.12982e-11
1.01449e-08
4.21407e-11
1.01341e-08
4.29556e-11
1.01232e-08
4.37441e-11
1.0112e-08
4.45082e-11
1.01007e-08
4.52495e-11
1.00892e-08
4.59693e-11
1.00775e-08
4.66697e-11
1.00657e-08
4.73513e-11
1.00537e-08
4.80161e-11
1.00415e-08
4.8665e-11
1.00292e-08
4.92993e-11
1.00167e-08