/*--------------------------------*- C++ -*----------------------------------*\
  =========                 |
  \\      /  F ield         | OpenFOAM: The Open Source CFD Toolbox
   \\    /   O peration     | Website:  https://openfoam.org
    \\  /    A nd           | Version:  10
     \\/     M anipulation  |
\*---------------------------------------------------------------------------*/
FoamFile
{
    format      ascii;
    class       volVectorField;
    location    "0.2";
    object      Ub;
}
// * * * * * * * * * * * * * * * * * * * * * * * * * * * * * * * * * * * * * //

dimensions      [0 1 -1 0 0 0 0];

internalField   nonuniform List<vector> 
12225
(
(1.53189e-07 -0.000163692 0)
(1.90538e-07 -0.000138763 0)
(3.98822e-08 -9.20813e-05 0)
(2.58814e-09 -4.08391e-05 0)
(5.6075e-11 -1.11651e-05 0)
(1.7313e-12 -1.81809e-06 0)
(5.88678e-13 -1.32166e-07 0)
(5.69631e-13 -1.77907e-09 0)
(6.19428e-13 -1.18672e-12 0)
(6.72615e-13 -8.65004e-15 0)
(7.15282e-13 -5.22987e-15 0)
(7.54206e-13 -6.74704e-15 0)
(7.85677e-13 -3.22775e-15 0)
(8.07181e-13 -3.91386e-15 0)
(8.32355e-13 -4.81039e-15 0)
(8.69638e-13 -8.75179e-15 0)
(9.5178e-13 -2.25688e-14 0)
(1.20469e-12 -7.82959e-14 0)
(0.000385805 -0.000592533 0)
(0.000941163 -0.000559209 0)
(0.00106281 -0.000501465 0)
(0.000829187 -0.000453803 0)
(0.000459634 -0.000457574 0)
(0.000173891 -0.000497034 0)
(3.9985e-05 -0.000507134 0)
(4.0676e-06 -0.000373694 0)
(7.20448e-08 -0.000101484 0)
(4.92826e-11 -3.8243e-06 0)
(7.79633e-13 -4.70192e-09 0)
(7.54917e-13 -3.70831e-14 0)
(7.8661e-13 -9.50374e-15 0)
(8.06619e-13 -1.20769e-14 0)
(8.30537e-13 -1.44189e-14 0)
(8.62733e-13 -2.54022e-14 0)
(9.23574e-13 -6.22159e-14 0)
(1.03002e-12 -1.84848e-13 0)
(0.00104382 -0.00115462 0)
(0.00292393 -0.00110485 0)
(0.00437854 -0.00104609 0)
(0.00540711 -0.00102136 0)
(0.00600943 -0.00106421 0)
(0.00613051 -0.0011528 0)
(0.00563592 -0.00120984 0)
(0.00433745 -0.00110968 0)
(0.00232554 -0.000961692 0)
(0.000644281 -0.00112879 0)
(5.01827e-05 -0.000839896 0)
(1.45902e-07 -3.37816e-05 0)
(1.20991e-12 -4.03135e-10 0)
(8.05356e-13 -2.0877e-14 0)
(8.27137e-13 -2.33383e-14 0)
(8.50216e-13 -3.87676e-14 0)
(8.84584e-13 -8.87853e-14 0)
(9.14976e-13 -2.17194e-13 0)
(0.00139688 -0.0018357 0)
(0.00394523 -0.00170624 0)
(0.00599538 -0.00155795 0)
(0.00757133 -0.00145341 0)
(0.008734 -0.00143088 0)
(0.00953824 -0.00147659 0)
(0.0100409 -0.00154511 0)
(0.0103194 -0.00161176 0)
(0.010309 -0.00185562 0)
(0.00945547 -0.00235812 0)
(0.00691132 -0.0021616 0)
(0.00274793 -0.00171034 0)
(0.000190144 -0.000989574 0)
(1.82553e-08 -5.11025e-07 0)
(8.23938e-13 -3.18925e-14 0)
(8.34402e-13 -4.62703e-14 0)
(8.4352e-13 -1.00582e-13 0)
(8.33951e-13 -2.14224e-13 0)
(0.00167098 -0.00269808 0)
(0.00471062 -0.00245802 0)
(0.00713924 -0.00218506 0)
(0.00899715 -0.00196875 0)
(0.0103815 -0.001852 0)
(0.0113906 -0.00182291 0)
(0.0121239 -0.00184391 0)
(0.0126894 -0.00190506 0)
(0.0130994 -0.00212929 0)
(0.0131675 -0.00255171 0)
(0.0128874 -0.00276253 0)
(0.0117054 -0.00340885 0)
(0.00775778 -0.00284619 0)
(0.00240551 -0.00203232 0)
(5.81443e-06 -1.10375e-05 0)
(8.50396e-13 -5.1608e-14 0)
(8.04089e-13 -9.86099e-14 0)
(7.7266e-13 -1.94825e-13 0)
(0.00193671 -0.0037623 0)
(0.00543299 -0.00337042 0)
(0.00817422 -0.00292927 0)
(0.0102266 -0.00256577 0)
(0.0117297 -0.00233012 0)
(0.0128201 -0.00221134 0)
(0.0136222 -0.00217619 0)
(0.014245 -0.00221804 0)
(0.0147183 -0.00240803 0)
(0.0149675 -0.00274003 0)
(0.0150438 -0.00299842 0)
(0.0148145 -0.0035208 0)
(0.0140634 -0.00382407 0)
(0.0113124 -0.00437317 0)
(0.00458157 -0.00239322 0)
(5.06089e-05 -1.23337e-05 0)
(8.76327e-13 -8.97576e-14 0)
(7.22339e-13 -1.67772e-13 0)
(0.00222591 -0.00506384 0)
(0.00620098 -0.00446165 0)
(0.00923537 -0.00379454 0)
(0.0114384 -0.00323999 0)
(0.0130054 -0.00285684 0)
(0.0141161 -0.00263143 0)
(0.0149175 -0.00252882 0)
(0.0155203 -0.00253628 0)
(0.0159663 -0.00268472 0)
(0.0162359 -0.00295076 0)
(0.0163706 -0.00322277 0)
(0.0163347 -0.00365031 0)
(0.0160953 -0.00402842 0)
(0.0153371 -0.00471275 0)
(0.0127815 -0.00503856 0)
(0.00545752 -0.00243208 0)
(4.31289e-05 -7.06921e-07 0)
(7.29611e-13 -1.37494e-13 0)
(0.00256329 -0.00665658 0)
(0.00707655 -0.0057588 0)
(0.0104032 -0.00478727 0)
(0.0127234 -0.00398645 0)
(0.0143092 -0.00342203 0)
(0.0153923 -0.00307061 0)
(0.0161447 -0.00288748 0)
(0.0166826 -0.00284651 0)
(0.0170588 -0.0029478 0)
(0.0172831 -0.00316056 0)
(0.0173868 -0.00342306 0)
(0.0173646 -0.00379325 0)
(0.0172033 -0.00419031 0)
(0.016782 -0.00476314 0)
(0.0157818 -0.00531449 0)
(0.0125864 -0.00526409 0)
(0.0050426 -0.00141325 0)
(2.69414e-06 -9.54746e-10 0)
(0.00297765 -0.00861942 0)
(0.00812571 -0.00729801 0)
(0.011751 -0.00591334 0)
(0.0141506 -0.00479615 0)
(0.0157053 -0.00401091 0)
(0.0167114 -0.00351227 0)
(0.0173697 -0.00323534 0)
(0.0178052 -0.00313427 0)
(0.01808 -0.00318418 0)
(0.0182191 -0.00334892 0)
(0.0182477 -0.00358742 0)
(0.0181685 -0.00391425 0)
(0.0179695 -0.00429551 0)
(0.0175839 -0.00477951 0)
(0.0168669 -0.00526667 0)
(0.0153855 -0.00559826 0)
(0.00959543 -0.00381376 0)
(0.00241306 -5.68817e-05 0)
(0.00351032 -0.0110692 0)
(0.00943703 -0.00912508 0)
(0.0133654 -0.00717381 0)
(0.0157903 -0.00565134 0)
(0.0172487 -0.00460039 0)
(0.0181188 -0.0039331 0)
(0.018634 -0.0035508 0)
(0.0189289 -0.00338138 0)
(0.0190719 -0.00337743 0)
(0.0190947 -0.0034961 0)
(0.0190179 -0.003702 0)
(0.018845 -0.00398806 0)
(0.0185641 -0.0043331 0)
(0.018134 -0.00473961 0)
(0.0174839 -0.00514124 0)
(0.0164985 -0.00542109 0)
(0.014698 -0.00505584 0)
(0.00686004 -0.00166343 0)
(0.0042272 -0.0141846 0)
(0.0111436 -0.0112949 0)
(0.0153632 -0.00855695 0)
(0.0177253 -0.00651825 0)
(0.0189959 -0.00515389 0)
(0.0196546 -0.00429976 0)
(0.0199689 -0.00380515 0)
(0.0200806 -0.00356414 0)
(0.0200595 -0.00350676 0)
(0.0199377 -0.0035812 0)
(0.0197311 -0.0037503 0)
(0.0194414 -0.00399479 0)
(0.0190572 -0.00429362 0)
(0.0185515 -0.00462989 0)
(0.0178836 -0.0049547 0)
(0.0169864 -0.00519494 0)
(0.0155957 -0.00518835 0)
(0.0108911 -0.00372424 0)
(0.0052058 -0.0178678 0)
(0.0133851 -0.0136411 0)
(0.0178418 -0.00990635 0)
(0.02001 -0.0072773 0)
(0.0209777 -0.00558587 0)
(0.0213407 -0.00455142 0)
(0.0213954 -0.00395467 0)
(0.0212838 -0.00365114 0)
(0.0210707 -0.00354889 0)
(0.0207831 -0.00358624 0)
(0.0204311 -0.00372156 0)
(0.0200131 -0.0039281 0)
(0.0195182 -0.00418212 0)
(0.0189276 -0.00445955 0)
(0.0182165 -0.00472078 0)
(0.0173482 -0.00491047 0)
(0.0162059 -0.00492157 0)
(0.0140341 -0.00425513 0)
(0.00648384 -0.0227199 0)
(0.0161632 -0.016336 0)
(0.0206742 -0.0112237 0)
(0.0224385 -0.00788807 0)
(0.0229596 -0.00585362 0)
(0.0229411 -0.0046519 0)
(0.0226877 -0.00397029 0)
(0.0223269 -0.00361907 0)
(0.0219088 -0.00348395 0)
(0.0214497 -0.00349313 0)
(0.0209509 -0.00359987 0)
(0.0204059 -0.00377258 0)
(0.0198024 -0.00398516 0)
(0.0191241 -0.00421178 0)
(0.0183516 -0.00441903 0)
(0.0174551 -0.00456249 0)
(0.016353 -0.00456102 0)
(0.0146656 -0.00413403 0)
(0.00873864 -0.0304151 0)
(0.0207671 -0.0197769 0)
(0.0249341 -0.0124936 0)
(0.0258263 -0.00825127 0)
(0.0255775 -0.00585834 0)
(0.0249736 -0.00451793 0)
(0.0242827 -0.00378335 0)
(0.023588 -0.00341012 0)
(0.0229074 -0.00326097 0)
(0.0222365 -0.00325463 0)
(0.021563 -0.00334012 0)
(0.0208724 -0.00348288 0)
(0.0201491 -0.00365588 0)
(0.0193775 -0.00383418 0)
(0.0185422 -0.00399055 0)
(0.0176246 -0.00409199 0)
(0.0165867 -0.00408537 0)
(0.0152716 -0.00382849 0)
(0.0132998 -0.0440067 0)
(0.0292655 -0.023597 0)
(0.0316975 -0.0129935 0)
(0.0306653 -0.00782641 0)
(0.0290641 -0.00523489 0)
(0.0275586 -0.00389847 0)
(0.0262504 -0.00321309 0)
(0.025114 -0.00288765 0)
(0.0241037 -0.00277197 0)
(0.023178 -0.00278242 0)
(0.0223032 -0.00286845 0)
(0.0214519 -0.00299627 0)
(0.0206016 -0.00314071 0)
(0.0197335 -0.00328016 0)
(0.0188306 -0.00339418 0)
(0.0178733 -0.00346165 0)
(0.0168237 -0.00345497 0)
(0.015554 -0.00331144 0)
(0.0246001 -0.0726172 0)
(0.0476599 -0.0243157 0)
(0.0430435 -0.0103401 0)
(0.037652 -0.00533101 0)
(0.0336901 -0.00326245 0)
(0.0308328 -0.00235209 0)
(0.0286864 -0.00196637 0)
(0.0269918 -0.00184362 0)
(0.0255883 -0.00186145 0)
(0.0243741 -0.00195565 0)
(0.0232819 -0.00208835 0)
(0.0222642 -0.00223329 0)
(0.0212862 -0.0023723 0)
(0.0203215 -0.00248974 0)
(0.0193473 -0.00257189 0)
(0.0183397 -0.00260675 0)
(0.017264 -0.00258303 0)
(0.0160423 -0.00247984 0)
(0.0634823 0.00344424 0)
(0.100313 0.00386207 0)
(0.0635782 0.00279301 0)
(0.0485635 0.00197393 0)
(0.0407499 0.00136241 0)
(0.0359586 0.000871044 0)
(0.0326679 0.000453271 0)
(0.0302124 8.58954e-05 0)
(0.0282596 -0.000242513 0)
(0.0266263 -0.000536975 0)
(0.0252045 -0.000798652 0)
(0.0239169 -0.00100747 0)
(0.0227118 -0.0011788 0)
(0.0215614 -0.00130615 0)
(0.0204416 -0.00138043 0)
(0.0193221 -0.00138888 0)
(0.0181475 -0.00131021 0)
(0.016791 -0.00111177 0)
(0.0202584 0.0750473 0)
(0.0406501 0.0305368 0)
(0.0387081 0.0158786 0)
(0.034787 0.00960974 0)
(0.0315146 0.00637684 0)
(0.028977 0.00446776 0)
(0.0269684 0.00322087 0)
(0.0253143 0.00234258 0)
(0.0238959 0.001689 0)
(0.0226349 0.00118456 0)
(0.0214781 0.000787882 0)
(0.0203953 0.000494672 0)
(0.019363 0.000274946 0)
(0.0183497 0.00012811 0)
(0.017317 6.48963e-05 0)
(0.0162001 0.000111938 0)
(0.0148377 0.00034822 0)
(0.0125173 0.00105196 0)
(0.0077501 0.0393646 0)
(0.0183905 0.0256603 0)
(0.0220711 0.0169589 0)
(0.0228568 0.0117325 0)
(0.022561 0.00849323 0)
(0.0218818 0.00638518 0)
(0.0210785 0.00494506 0)
(0.0202445 0.00391873 0)
(0.0194104 0.00316258 0)
(0.0185825 0.00259345 0)
(0.017757 0.00216258 0)
(0.0169237 0.00184377 0)
(0.0160646 0.0016229 0)
(0.0151427 0.00150524 0)
(0.0140567 0.00154355 0)
(0.0124687 0.00180253 0)
(0.00853227 0.00112478 0)
(0.00279123 0.00116344 0)
(0.00426516 0.0232647 0)
(0.0109804 0.0182449 0)
(0.0146787 0.0139284 0)
(0.0164936 0.0107006 0)
(0.0172538 0.00837579 0)
(0.0174352 0.00670351 0)
(0.0172925 0.00548468 0)
(0.0169603 0.00458171 0)
(0.0165093 0.00390326 0)
(0.0159743 0.00339196 0)
(0.0153671 0.00301016 0)
(0.0146741 0.00274766 0)
(0.0138461 0.00258784 0)
(0.0127554 0.00249574 0)
(0.0105213 0.00268002 0)
(0.00463189 0.00138246 0)
(0.000171012 0.000506597 0)
(5.3788e-11 -4.67744e-14 0)
(0.00284394 0.0158415 0)
(0.00763126 0.0133903 0)
(0.0107862 0.0109928 0)
(0.0127032 0.00899108 0)
(0.0137826 0.0074213 0)
(0.0143139 0.00622023 0)
(0.014484 0.00530438 0)
(0.0144074 0.00460692 0)
(0.0141499 0.00407406 0)
(0.0137367 0.00368248 0)
(0.0131635 0.0033896 0)
(0.0123161 0.00328128 0)
(0.0107227 0.00339661 0)
(0.00676933 0.00201403 0)
(0.0019456 0.00153382 0)
(6.084e-07 2.34457e-05 0)
(5.04097e-13 -4.43773e-14 0)
(4.59712e-13 -4.50026e-14 0)
(0.00209398 0.0112908 0)
(0.00575473 0.00996063 0)
(0.00840451 0.00857712 0)
(0.0101911 0.00734747 0)
(0.0113214 0.00632787 0)
(0.0119692 0.00552066 0)
(0.0122607 0.00488414 0)
(0.0122742 0.00440038 0)
(0.012052 0.00402074 0)
(0.0115392 0.00381354 0)
(0.0106349 0.00354959 0)
(0.00850237 0.00337858 0)
(0.00357856 0.00195895 0)
(0.000115237 0.000602753 0)
(1.61249e-10 -1.50585e-14 0)
(4.66037e-13 -2.7506e-14 0)
(4.61176e-13 -3.16767e-14 0)
(4.55622e-13 -3.42597e-14 0)
(0.00163672 0.00824368 0)
(0.00456433 0.00748045 0)
(0.00679941 0.00667711 0)
(0.00838848 0.00594444 0)
(0.00944799 0.00530735 0)
(0.0100747 0.00481309 0)
(0.0103425 0.00440236 0)
(0.0102596 0.0041355 0)
(0.00980594 0.0038454 0)
(0.00840476 0.00394998 0)
(0.0047254 0.00220646 0)
(0.00106652 0.00161746 0)
(4.37652e-07 2.32809e-05 0)
(5.39319e-13 -1.74021e-14 0)
(4.66953e-13 -1.85033e-14 0)
(4.62061e-13 -2.13747e-14 0)
(4.57294e-13 -2.4131e-14 0)
(4.52426e-13 -2.63537e-14 0)
(0.00132004 0.00608821 0)
(0.00371429 0.0056399 0)
(0.00559407 0.00519326 0)
(0.00694524 0.00479959 0)
(0.00784497 0.00441467 0)
(0.0083082 0.0041845 0)
(0.00832985 0.00391856 0)
(0.00762916 0.00388423 0)
(0.00547846 0.00290602 0)
(0.00200058 0.00202292 0)
(3.00754e-05 0.000416243 0)
(8.02076e-11 1.13744e-08 0)
(4.69527e-13 -1.75455e-15 0)
(4.67185e-13 -9.24608e-15 0)
(4.62956e-13 -1.30694e-14 0)
(4.5873e-13 -1.5959e-14 0)
(4.54425e-13 -1.83124e-14 0)
(4.50012e-13 -2.02064e-14 0)
(0.00106522 0.00450796 0)
(0.00300691 0.00424311 0)
(0.00453125 0.00402566 0)
(0.00554996 0.00388413 0)
(0.00611025 0.00362335 0)
(0.00601456 0.0036062 0)
(0.00475415 0.00300837 0)
(0.00204981 0.00193523 0)
(0.000160408 0.00104038 0)
(3.60289e-08 5.81098e-06 0)
(4.88675e-13 1.22582e-12 0)
(4.65426e-13 3.72521e-15 0)
(4.64611e-13 -1.07594e-15 0)
(4.6272e-13 -5.82534e-15 0)
(4.59681e-13 -9.20986e-15 0)
(4.56128e-13 -1.17468e-14 0)
(4.52281e-13 -1.37313e-14 0)
(4.48235e-13 -1.53039e-14 0)
(0.000805361 0.00330658 0)
(0.00223874 0.00314138 0)
(0.0032463 0.00304552 0)
(0.00355325 0.00302312 0)
(0.00290519 0.00240299 0)
(0.00131796 0.00171676 0)
(0.000153452 0.00116977 0)
(3.49809e-07 5.34957e-05 0)
(1.10611e-12 2.14042e-09 0)
(4.53644e-13 2.15275e-14 0)
(4.60122e-13 9.36463e-15 0)
(4.61298e-13 3.79525e-15 0)
(4.61148e-13 -3.30522e-16 0)
(4.59764e-13 -3.80886e-15 0)
(4.57342e-13 -6.46878e-15 0)
(4.54262e-13 -8.50015e-15 0)
(4.50761e-13 -1.00804e-14 0)
(4.4699e-13 -1.13243e-14 0)
(0.000397316 0.00217948 0)
(0.000890533 0.00187389 0)
(0.0007476 0.00146481 0)
(0.000279597 0.00129236 0)
(2.53216e-05 0.000780392 0)
(1.06541e-07 5.86918e-05 0)
(1.8591e-12 4.21194e-08 0)
(4.23887e-13 8.74856e-14 0)
(4.40113e-13 1.8989e-14 0)
(4.49547e-13 1.4153e-14 0)
(4.55871e-13 7.58378e-15 0)
(4.58349e-13 3.23667e-15 0)
(4.5881e-13 6.05761e-17 0)
(4.57839e-13 -2.4677e-15 0)
(4.55795e-13 -4.42677e-15 0)
(4.53013e-13 -5.93734e-15 0)
(4.49741e-13 -7.11291e-15 0)
(4.46154e-13 -8.03627e-15 0)
(2.07624e-06 0.000791103 0)
(2.17636e-06 0.000550722 0)
(1.00276e-07 0.000173815 0)
(1.57674e-10 8.49456e-06 0)
(4.12627e-13 1.66204e-08 0)
(3.63723e-13 2.01744e-13 0)
(3.96632e-13 2.54458e-14 0)
(4.19959e-13 2.04659e-14 0)
(4.36533e-13 1.32947e-14 0)
(4.46893e-13 9.36377e-15 0)
(4.53415e-13 5.30785e-15 0)
(4.56499e-13 2.35912e-15 0)
(4.57353e-13 1.81977e-16 0)
(4.56656e-13 -1.51628e-15 0)
(4.54841e-13 -2.83461e-15 0)
(4.52242e-13 -3.85529e-15 0)
(4.49113e-13 -4.65047e-15 0)
(4.45637e-13 -5.27454e-15 0)
(5.12869e-14 1.58275e-06 0)
(1.35596e-13 3.11763e-08 0)
(2.02694e-13 2.8632e-11 0)
(2.67036e-13 4.01601e-14 0)
(3.19718e-13 2.23031e-14 0)
(3.61497e-13 1.97147e-14 0)
(3.94261e-13 1.44843e-14 0)
(4.17923e-13 1.1397e-14 0)
(4.34635e-13 7.63121e-15 0)
(4.45428e-13 5.27445e-15 0)
(4.52114e-13 3.06264e-15 0)
(4.55486e-13 1.3991e-15 0)
(4.56555e-13 1.60864e-16 0)
(4.56014e-13 -7.9798e-16 0)
(4.54321e-13 -1.54225e-15 0)
(4.51819e-13 -2.11944e-15 0)
(4.48769e-13 -2.56938e-15 0)
(4.45359e-13 -2.92247e-15 0)
(4.4855e-14 1.3566e-14 0)
(1.28751e-13 1.08552e-14 0)
(2.02005e-13 9.89725e-15 0)
(2.66143e-13 9.021e-15 0)
(3.18797e-13 7.14516e-15 0)
(3.60618e-13 6.25766e-15 0)
(3.9331e-13 4.65266e-15 0)
(4.1709e-13 3.63823e-15 0)
(4.33879e-13 2.47114e-15 0)
(4.44825e-13 1.70575e-15 0)
(4.5159e-13 1.00983e-15 0)
(4.55073e-13 4.80457e-16 0)
(4.56229e-13 8.49743e-17 0)
(4.5575e-13 -2.20537e-16 0)
(4.54106e-13 -4.57628e-16 0)
(4.51646e-13 -6.41617e-16 0)
(4.48631e-13 -7.85078e-16 0)
(4.45241e-13 -8.97652e-16 0)
(2.76707e-15 -5.87301e-15 -7.58737e-41)
(8.32304e-15 -5.86331e-15 7.56827e-41)
(1.39119e-14 -5.84642e-15 0)
(1.95273e-14 -5.82217e-15 0)
(2.51617e-14 -5.79056e-15 0)
(3.08083e-14 -5.75172e-15 -7.39756e-41)
(3.64598e-14 -5.70564e-15 0)
(4.21087e-14 -5.65243e-15 0)
(4.77478e-14 -5.59223e-15 0)
(5.33688e-14 -5.52523e-15 0)
(5.89659e-14 -5.45188e-15 6.97678e-41)
(6.45295e-14 -5.37219e-15 0)
(7.00559e-14 -5.2866e-15 0)
(7.55355e-14 -5.19566e-15 0)
(8.09626e-14 -5.09949e-15 0)
(8.63302e-14 -4.99863e-15 6.35871e-41)
(9.16329e-14 -4.89352e-15 0)
(9.68652e-14 -4.78458e-15 0)
(1.02021e-13 -4.67223e-15 0)
(1.07095e-13 -4.55701e-15 0)
(1.12083e-13 -4.43929e-15 0)
(1.16981e-13 -4.3196e-15 0)
(1.21785e-13 -4.19833e-15 0)
(1.26491e-13 -4.07592e-15 5.11866e-41)
(1.31097e-13 -3.95278e-15 -4.95408e-41)
(1.35602e-13 -3.82935e-15 4.78922e-41)
(1.39999e-13 -3.70597e-15 4.62457e-41)
(1.4429e-13 -3.58299e-15 0)
(1.48474e-13 -3.46077e-15 0)
(1.52546e-13 -3.33961e-15 -4.13625e-41)
(1.56512e-13 -3.21973e-15 -3.97666e-41)
(1.60365e-13 -3.10146e-15 0)
(1.64109e-13 -2.98498e-15 0)
(1.67742e-13 -2.87049e-15 -3.51202e-41)
(1.71264e-13 -2.7582e-15 0)
(1.74679e-13 -2.64826e-15 0)
(1.77985e-13 -2.54079e-15 3.07377e-41)
(1.81186e-13 -2.43588e-15 0)
(1.84279e-13 -2.33364e-15 2.79864e-41)
(1.8727e-13 -2.23422e-15 5.3331e-41)
(1.9016e-13 -2.13753e-15 0)
(1.92949e-13 -2.04371e-15 0)
(1.95636e-13 -1.9528e-15 0)
(1.98232e-13 -1.86472e-15 0)
(2.00732e-13 -1.77957e-15 0)
(2.03138e-13 -1.69726e-15 3.90773e-41)
(2.05457e-13 -1.61781e-15 3.69687e-41)
(2.07683e-13 -1.54117e-15 3.49352e-41)
(2.09825e-13 -1.46734e-15 0)
(2.11886e-13 -1.39624e-15 -3.10896e-41)
(2.13867e-13 -1.32785e-15 0)
(2.15765e-13 -1.26209e-15 2.75303e-41)
(2.1759e-13 -1.19892e-15 2.58543e-41)
(2.19342e-13 -1.13828e-15 0)
(2.21018e-13 -1.0801e-15 0)
(2.22626e-13 -1.02433e-15 0)
(2.24166e-13 -9.70876e-16 1.98042e-41)
(2.25642e-13 -9.19702e-16 0)
(2.27054e-13 -8.70709e-16 0)
(2.28408e-13 -8.23845e-16 0)
(2.29698e-13 -7.79047e-16 0)
(2.30939e-13 -7.36241e-16 0)
(2.32118e-13 -6.95356e-16 0)
(2.33247e-13 -6.56332e-16 0)
(2.34323e-13 -6.19096e-16 0)
(2.35355e-13 -5.83579e-16 -9.52865e-42)
(2.36334e-13 -5.49731e-16 0)
(2.37269e-13 -5.17473e-16 0)
(2.38162e-13 -4.86759e-16 6.95959e-42)
(2.39014e-13 -4.57516e-16 6.18354e-42)
(2.39824e-13 -4.29693e-16 0)
(2.40592e-13 -4.03232e-16 -4.74313e-42)
(2.41328e-13 -3.78075e-16 4.07541e-42)
(2.42025e-13 -3.54168e-16 0)
(2.42691e-13 -3.31469e-16 -2.83848e-42)
(2.43321e-13 -3.09912e-16 0)
(2.43921e-13 -2.89453e-16 0)
(2.44488e-13 -2.70054e-16 1.2086e-42)
(2.45031e-13 -2.51657e-16 0)
(2.45543e-13 -2.3422e-16 -2.57379e-43)
(2.46025e-13 -2.17704e-16 0)
(2.4649e-13 -2.02066e-16 -5.96252e-43)
(2.46927e-13 -1.87264e-16 -9.89098e-43)
(2.4734e-13 -1.73264e-16 -1.36077e-42)
(2.47731e-13 -1.60025e-16 -3.42447e-42)
(2.48104e-13 -1.47512e-16 4.08888e-42)
(2.48452e-13 -1.3569e-16 0)
(2.48785e-13 -1.24531e-16 0)
(2.49099e-13 -1.13995e-16 0)
(2.49394e-13 -1.04057e-16 6.39636e-42)
(2.49674e-13 -9.46864e-17 6.89404e-42)
(2.49935e-13 -8.5857e-17 -7.36295e-42)
(2.50185e-13 -7.75391e-17 0)
(2.50418e-13 -6.97066e-17 8.22054e-42)
(2.5064e-13 -6.23357e-17 8.61216e-42)
(2.50846e-13 -5.54048e-17 8.98026e-42)
(2.51042e-13 -4.88895e-17 0)
(2.51224e-13 -4.27658e-17 0)
(2.51401e-13 -3.7017e-17 0)
(2.51561e-13 -3.16206e-17 1.02438e-41)
(2.51715e-13 -2.65574e-17 0)
(2.51858e-13 -2.18098e-17 0)
(2.51993e-13 -1.73621e-17 -1.10011e-41)
(2.52118e-13 -1.31951e-17 0)
(2.52237e-13 -9.29576e-18 0)
(2.52347e-13 -5.64717e-18 -1.16236e-41)
(2.52451e-13 -2.23617e-18 0)
(2.52548e-13 9.52065e-19 0)
(2.52638e-13 3.93108e-18 1.21324e-41)
(2.52721e-13 6.70808e-18 1.22801e-41)
(2.52801e-13 9.30212e-18 0)
(2.52876e-13 1.17195e-17 -1.25464e-41)
(2.52943e-13 1.39714e-17 0)
(2.53008e-13 1.60691e-17 1.27774e-41)
(2.53068e-13 1.80215e-17 0)
(2.53124e-13 1.98375e-17 1.29778e-41)
(2.53176e-13 2.15256e-17 1.30675e-41)
(2.53225e-13 2.30927e-17 0)
(2.5327e-13 2.45487e-17 0)
(2.5331e-13 2.58997e-17 0)
(2.53348e-13 2.71516e-17 0)
(2.53386e-13 2.83121e-17 0)
(2.53417e-13 2.93853e-17 0)
(2.5345e-13 3.03805e-17 0)
(2.53478e-13 3.13013e-17 1.35871e-41)
(2.53502e-13 3.21517e-17 -1.36321e-41)
(2.5353e-13 3.2936e-17 0)
(2.53552e-13 3.36611e-17 0)
(2.5357e-13 3.43319e-17 0)
(2.53591e-13 3.49477e-17 0)
(2.53608e-13 3.55152e-17 -2.76224e-41)
(2.53625e-13 3.60413e-17 0)
(2.53641e-13 3.65224e-17 2.77294e-41)
(2.53653e-13 3.69671e-17 -2.77765e-41)
(2.53665e-13 3.7377e-17 0)
(2.53677e-13 3.77523e-17 0)
(2.53688e-13 3.80995e-17 0)
(2.53696e-13 3.84197e-17 2.79309e-41)
(2.53705e-13 3.87136e-17 2.79624e-41)
(2.53714e-13 3.89847e-17 0)
(2.53722e-13 3.92371e-17 2.80177e-41)
(2.53728e-13 3.94709e-17 2.80424e-41)
(2.53735e-13 3.96903e-17 -2.80659e-41)
(2.5374e-13 3.98953e-17 0)
(2.53747e-13 4.00884e-17 0)
(2.5375e-13 4.02739e-17 -2.81277e-41)
(2.53754e-13 4.04543e-17 0)
(2.53757e-13 4.06322e-17 0)
(2.53761e-13 4.08092e-17 0)
(2.53761e-13 4.09955e-17 0)
(2.53762e-13 4.11878e-17 2.82234e-41)
(2.53762e-13 4.1397e-17 2.82449e-41)
(2.53761e-13 4.16274e-17 0)
(2.53762e-13 4.189e-17 2.82957e-41)
(2.53762e-13 4.2189e-17 0)
(2.53757e-13 4.25473e-17 0)
(2.53752e-13 4.29742e-17 2.84068e-41)
(2.53747e-13 4.34867e-17 0)
(2.53736e-13 4.41203e-17 2.85241e-41)
(2.53726e-13 4.49012e-17 0)
(2.53712e-13 4.58702e-17 0)
(2.53693e-13 4.70891e-17 2.88268e-41)
(2.53672e-13 4.86231e-17 0)
(2.53641e-13 5.05628e-17 2.91812e-41)
(2.53601e-13 5.30336e-17 0)
(2.53549e-13 5.61939e-17 0)
(2.53483e-13 6.02537e-17 0)
(2.53396e-13 6.55053e-17 -3.07033e-41)
(2.53287e-13 7.23459e-17 0)
(2.53143e-13 8.13228e-17 3.23146e-41)
(2.52954e-13 9.32397e-17 0)
(2.52709e-13 1.09251e-16 0)
(2.52381e-13 1.31151e-16 0)
(2.51936e-13 1.61792e-16 0)
(2.5133e-13 2.06049e-16 0)
(2.5048e-13 2.72978e-16 0)
(2.49243e-13 3.81483e-16 0)
(2.47318e-13 5.78456e-16 -1.66335e-40)
(2.43973e-13 1.01426e-15 0)
(2.36566e-13 2.38079e-15 0)
(2.78218e-15 -1.77343e-14 2.29111e-40)
(8.36836e-15 -1.77049e-14 -2.28534e-40)
(1.39876e-14 -1.76536e-14 0)
(1.96327e-14 -1.75806e-14 4.53519e-40)
(2.52966e-14 -1.74849e-14 0)
(3.09718e-14 -1.73675e-14 -2.24103e-40)
(3.6651e-14 -1.7228e-14 -4.43603e-40)
(4.23266e-14 -1.7067e-14 -4.39175e-40)
(4.79909e-14 -1.6885e-14 0)
(5.36368e-14 -1.66826e-14 -4.28702e-40)
(5.92569e-14 -1.64605e-14 2.12047e-40)
(6.48427e-14 -1.62199e-14 0)
(7.03881e-14 -1.59614e-14 0)
(7.58859e-14 -1.56866e-14 0)
(8.1329e-14 -1.5396e-14 0)
(8.67106e-14 -1.50918e-14 1.94031e-40)
(9.20249e-14 -1.47745e-14 0)
(9.72672e-14 -1.44457e-14 3.68822e-40)
(1.02431e-13 -1.4107e-14 0)
(1.07513e-13 -1.37595e-14 0)
(1.12505e-13 -1.34048e-14 -3.41194e-40)
(1.17406e-13 -1.30443e-14 0)
(1.22212e-13 -1.26789e-14 3.21971e-40)
(1.26918e-13 -1.23104e-14 1.5761e-40)
(1.31523e-13 -1.19397e-14 -1.52765e-40)
(1.36022e-13 -1.15684e-14 1.47913e-40)
(1.40417e-13 -1.11973e-14 1.43064e-40)
(1.44703e-13 -1.08275e-14 0)
(1.4888e-13 -1.04601e-14 0)
(1.52946e-13 -1.00958e-14 -1.28679e-40)
(1.56902e-13 -9.73565e-15 -3.6823e-40)
(1.60746e-13 -9.38019e-15 0)
(1.6448e-13 -9.03043e-15 0)
(1.68105e-13 -8.68663e-15 -1.10288e-40)
(1.71618e-13 -8.3496e-15 0)
(1.75023e-13 -8.01952e-15 0)
(1.78316e-13 -7.69702e-15 9.73769e-41)
(1.81509e-13 -7.38239e-15 0)
(1.8459e-13 -7.07567e-15 2.63457e-40)
(1.87569e-13 -6.77735e-15 1.70761e-40)
(1.9045e-13 -6.48749e-15 0)
(1.93226e-13 -6.20616e-15 0)
(1.95907e-13 -5.93346e-15 -2.88253e-40)
(1.9849e-13 -5.66943e-15 -2.74356e-40)
(2.00979e-13 -5.41421e-15 -2.60925e-40)
(2.03374e-13 -5.16742e-15 3.76719e-40)
(2.05681e-13 -4.92935e-15 1.22565e-40)
(2.07898e-13 -4.69966e-15 -1.06758e-40)
(2.10032e-13 -4.47841e-15 2.11693e-40)
(2.12086e-13 -4.26533e-15 -1.05249e-40)
(2.14053e-13 -4.06042e-15 0)
(2.15944e-13 -3.86339e-15 9.47684e-41)
(2.1776e-13 -3.67414e-15 2.59218e-40)
(2.19502e-13 -3.49243e-15 0)
(2.2117e-13 -3.31815e-15 0)
(2.22771e-13 -3.15104e-15 0)
(2.24305e-13 -2.99095e-15 7.20187e-41)
(2.25774e-13 -2.83761e-15 0)
(2.27183e-13 -2.69089e-15 1.17661e-40)
(2.28526e-13 -2.5505e-15 0)
(2.29811e-13 -2.41632e-15 1.03218e-40)
(2.31043e-13 -2.28811e-15 0)
(2.32219e-13 -2.16564e-15 -9.00306e-41)
(2.33338e-13 -2.04874e-15 0)
(2.34415e-13 -1.93721e-15 7.80131e-41)
(2.35438e-13 -1.83085e-15 -1.14186e-40)
(2.36415e-13 -1.72942e-15 0)
(2.37347e-13 -1.63284e-15 -6.20012e-41)
(2.38233e-13 -1.54081e-15 3.42048e-41)
(2.3908e-13 -1.45324e-15 3.19209e-41)
(2.39888e-13 -1.36991e-15 0)
(2.40655e-13 -1.29065e-15 -7.16792e-41)
(2.41387e-13 -1.2153e-15 2.57159e-41)
(2.42081e-13 -1.1437e-15 0)
(2.42742e-13 -1.0757e-15 -2.20752e-41)
(2.43366e-13 -1.01113e-15 -2.92913e-41)
(2.43965e-13 -9.49863e-16 0)
(2.4453e-13 -8.91743e-16 1.72778e-41)
(2.4507e-13 -8.36638e-16 0)
(2.45581e-13 -7.8442e-16 2.88278e-42)
(2.46062e-13 -7.34947e-16 0)
(2.46522e-13 -6.88102e-16 -3.26415e-43)
(2.46957e-13 -6.43769e-16 1.08105e-41)
(2.4737e-13 -6.01834e-16 1.74698e-41)
(2.47758e-13 -5.62176e-16 2.86975e-41)
(2.48131e-13 -5.247e-16 -2.27968e-41)
(2.48477e-13 -4.89287e-16 0)
(2.4881e-13 -4.55856e-16 0)
(2.4912e-13 -4.24299e-16 0)
(2.49412e-13 -3.94534e-16 -1.4934e-41)
(2.49693e-13 -3.66464e-16 -7.15573e-42)
(2.49956e-13 -3.40016e-16 5.77593e-42)
(2.50199e-13 -3.15095e-16 0)
(2.50433e-13 -2.91637e-16 1.38937e-41)
(2.50654e-13 -2.69563e-16 -2.10048e-42)
(2.50862e-13 -2.48799e-16 -1.0173e-42)
(2.51054e-13 -2.29277e-16 0)
(2.51238e-13 -2.10938e-16 0)
(2.5141e-13 -1.93715e-16 0)
(2.51573e-13 -1.7755e-16 2.69991e-42)
(2.51726e-13 -1.62381e-16 0)
(2.51865e-13 -1.4816e-16 3.22512e-41)
(2.52e-13 -1.34834e-16 2.87263e-41)
(2.52123e-13 -1.22356e-16 -3.49689e-41)
(2.52243e-13 -1.10674e-16 0)
(2.52352e-13 -9.97432e-17 -4.41088e-41)
(2.52456e-13 -8.95263e-17 0)
(2.52553e-13 -7.99752e-17 -3.94317e-41)
(2.52643e-13 -7.10559e-17 4.86268e-41)
(2.52728e-13 -6.27279e-17 4.99384e-41)
(2.52806e-13 -5.4964e-17 0)
(2.52879e-13 -4.77184e-17 3.33546e-41)
(2.52947e-13 -4.09727e-17 -4.35387e-41)
(2.53011e-13 -3.46877e-17 1.01535e-41)
(2.53072e-13 -2.88415e-17 0)
(2.53127e-13 -2.34001e-17 1.07425e-41)
(2.53176e-13 -1.83433e-17 -3.49158e-41)
(2.53228e-13 -1.36508e-17 0)
(2.5327e-13 -9.28687e-18 -4.68759e-41)
(2.53315e-13 -5.24313e-18 -4.73022e-41)
(2.53349e-13 -1.48908e-18 -4.76974e-41)
(2.53386e-13 1.98545e-18 0)
(2.53421e-13 5.20417e-18 0)
(2.53448e-13 8.18742e-18 0)
(2.5348e-13 1.09386e-17 6.15415e-41)
(2.53504e-13 1.34898e-17 -1.26674e-41)
(2.53528e-13 1.58412e-17 0)
(2.53554e-13 1.80113e-17 4.97517e-41)
(2.53573e-13 2.00171e-17 4.99629e-41)
(2.53589e-13 2.18687e-17 0)
(2.5361e-13 2.35712e-17 -2.63872e-41)
(2.53625e-13 2.51382e-17 1.01006e-40)
(2.53641e-13 2.6585e-17 2.67021e-41)
(2.53656e-13 2.79114e-17 -1.28431e-40)
(2.53669e-13 2.91396e-17 0)
(2.53679e-13 3.02696e-17 0)
(2.53686e-13 3.13114e-17 0)
(2.53702e-13 3.22618e-17 2.72947e-41)
(2.53709e-13 3.31444e-17 1.30078e-40)
(2.53715e-13 3.39592e-17 1.02864e-40)
(2.53726e-13 3.47097e-17 2.75501e-41)
(2.53729e-13 3.54161e-17 1.30794e-40)
(2.53735e-13 3.60684e-17 -2.76914e-41)
(2.53738e-13 3.6685e-17 0)
(2.53745e-13 3.72661e-17 0)
(2.53752e-13 3.78217e-17 -1.31549e-40)
(2.5375e-13 3.83638e-17 0)
(2.53757e-13 3.88907e-17 0)
(2.53761e-13 3.94226e-17 1.04011e-40)
(2.53762e-13 3.99783e-17 0)
(2.53764e-13 4.05559e-17 1.32404e-40)
(2.53764e-13 4.1181e-17 2.82225e-41)
(2.53762e-13 4.18705e-17 0)
(2.53759e-13 4.26515e-17 1.33053e-40)
(2.53761e-13 4.35544e-17 0)
(2.53759e-13 4.46183e-17 0)
(2.53752e-13 4.58872e-17 2.87082e-41)
(2.53748e-13 4.74288e-17 1.05661e-40)
(2.53743e-13 4.93092e-17 2.90608e-41)
(2.53728e-13 5.16419e-17 0)
(2.53717e-13 5.45371e-17 0)
(2.53695e-13 5.81793e-17 1.37837e-40)
(2.5367e-13 6.27567e-17 0)
(2.53639e-13 6.85521e-17 1.41029e-40)
(2.53603e-13 7.59213e-17 0)
(2.53552e-13 8.5347e-17 0)
(2.53486e-13 9.74613e-17 0)
(2.53403e-13 1.13121e-16 -3.56271e-41)
(2.53294e-13 1.33518e-16 0)
(2.53155e-13 1.60267e-16 4.04784e-41)
(2.52971e-13 1.95753e-16 0)
(2.52728e-13 2.434e-16 0)
(2.52404e-13 3.08483e-16 1.59138e-40)
(2.51976e-13 3.99364e-16 -1.77769e-40)
(2.51384e-13 5.30229e-16 0)
(2.50562e-13 7.27076e-16 0)
(2.49379e-13 1.04295e-15 0)
(2.47606e-13 1.60335e-15 4.71865e-40)
(2.44787e-13 2.77235e-15 0)
(2.40337e-13 5.92145e-15 -2.63063e-39)
(2.81284e-15 -2.96933e-14 1.53477e-39)
(8.46035e-15 -2.96436e-14 -2.01335e-43)
(1.41407e-14 -2.95567e-14 0)
(1.98463e-14 -2.94326e-14 4.70141e-43)
(2.55698e-14 -2.92709e-14 0)
(3.13031e-14 -2.90716e-14 0)
(3.70387e-14 -2.88352e-14 -1.48636e-39)
(4.27687e-14 -2.85622e-14 -7.36293e-40)
(4.84851e-14 -2.82539e-14 7.2691e-40)
(5.41793e-14 -2.79113e-14 -7.18939e-40)
(5.98454e-14 -2.75355e-14 0)
(6.54741e-14 -2.71283e-14 0)
(7.10595e-14 -2.66915e-14 -6.84921e-40)
(7.65915e-14 -2.62273e-14 -1.34504e-39)
(8.20676e-14 -2.5737e-14 1.31894e-39)
(8.74769e-14 -2.52229e-14 0)
(9.28159e-14 -2.4688e-14 1.26319e-39)
(9.80782e-14 -2.41337e-14 6.19214e-40)
(1.0326e-13 -2.35636e-14 0)
(1.08353e-13 -2.29787e-14 1.17262e-39)
(1.13356e-13 -2.23821e-14 -5.73207e-40)
(1.18262e-13 -2.17756e-14 -1.10901e-39)
(1.2307e-13 -2.1162e-14 5.41209e-40)
(1.27775e-13 -2.05434e-14 0)
(1.32378e-13 -1.99217e-14 1.01117e-39)
(1.36871e-13 -1.9299e-14 9.78342e-40)
(1.41257e-13 -1.86772e-14 0)
(1.45531e-13 -1.80579e-14 9.12957e-40)
(1.49695e-13 -1.74429e-14 0)
(1.53749e-13 -1.68336e-14 8.48497e-40)
(1.57688e-13 -1.62316e-14 -4.12127e-40)
(1.61514e-13 -1.56377e-14 0)
(1.6523e-13 -1.50533e-14 0)
(1.68832e-13 -1.44794e-14 0)
(1.72327e-13 -1.39167e-14 0)
(1.7571e-13 -1.33663e-14 0)
(1.78984e-13 -1.28284e-14 0)
(1.8215e-13 -1.23037e-14 6.10282e-40)
(1.85213e-13 -1.17927e-14 -2.87342e-40)
(1.8817e-13 -1.12955e-14 0)
(1.91027e-13 -1.08126e-14 0)
(1.93782e-13 -1.03443e-14 0)
(1.96437e-13 -9.89031e-15 -9.76257e-40)
(1.98998e-13 -9.45083e-15 -4.69805e-40)
(2.01467e-13 -9.02604e-15 -9.51394e-42)
(2.03844e-13 -8.61556e-15 9.62609e-42)
(2.0613e-13 -8.21955e-15 -3.95735e-40)
(2.08326e-13 -7.83748e-15 -3.85517e-40)
(2.10443e-13 -7.46956e-15 7.22644e-40)
(2.12474e-13 -7.11529e-15 3.37749e-40)
(2.14426e-13 -6.77453e-15 0)
(2.16299e-13 -6.44705e-15 3.02664e-40)
(2.18096e-13 -6.13241e-15 5.82584e-40)
(2.19822e-13 -5.83038e-15 0)
(2.21477e-13 -5.54076e-15 0)
(2.23063e-13 -5.26304e-15 -2.40494e-40)
(2.24583e-13 -4.99695e-15 0)
(2.26036e-13 -4.74216e-15 0)
(2.27429e-13 -4.4983e-15 6.11756e-40)
(2.28761e-13 -4.26509e-15 3.7619e-40)
(2.30035e-13 -4.04215e-15 1.87251e-40)
(2.31258e-13 -3.82908e-15 0)
(2.3242e-13 -3.6256e-15 -1.65491e-40)
(2.3353e-13 -3.43145e-15 0)
(2.34592e-13 -3.24607e-15 4.14835e-40)
(2.35607e-13 -3.0694e-15 -1.36434e-40)
(2.36578e-13 -2.90089e-15 -2.3292e-40)
(2.37499e-13 -2.7404e-15 -3.35311e-40)
(2.38377e-13 -2.58756e-15 0)
(2.39215e-13 -2.44203e-15 1.84728e-40)
(2.40016e-13 -2.30359e-15 0)
(2.40773e-13 -2.17193e-15 6.6809e-41)
(2.41498e-13 -2.04674e-15 1.43208e-40)
(2.42188e-13 -1.92778e-15 1.30714e-40)
(2.4284e-13 -1.81481e-15 -1.18846e-40)
(2.43462e-13 -1.70754e-15 4.22936e-41)
(2.44055e-13 -1.60574e-15 0)
(2.44615e-13 -1.5092e-15 0)
(2.45148e-13 -1.41763e-15 -7.71268e-41)
(2.45654e-13 -1.33087e-15 -2.24062e-41)
(2.46135e-13 -1.2487e-15 0)
(2.46587e-13 -1.17086e-15 -3.72448e-41)
(2.47018e-13 -1.0972e-15 0)