/*--------------------------------*- C++ -*----------------------------------*\
  =========                 |
  \\      /  F ield         | OpenFOAM: The Open Source CFD Toolbox
   \\    /   O peration     | Website:  https://openfoam.org
    \\  /    A nd           | Version:  10
     \\/     M anipulation  |
\*---------------------------------------------------------------------------*/
FoamFile
{
    format      ascii;
    class       volScalarField;
    location    "0.015";
    object      T;
}
// * * * * * * * * * * * * * * * * * * * * * * * * * * * * * * * * * * * * * //

dimensions      [0 0 0 1 0 0 0];

internalField   nonuniform List<scalar> 
12225
(
3.14747e-09
3.13262e-09
3.1293e-09
3.12709e-09
3.12596e-09
3.12657e-09
3.12659e-09
3.12574e-09
3.12568e-09
3.12692e-09
3.12829e-09
3.12901e-09
3.12956e-09
3.13966e-09
3.45665e-09
1.1013e-08
1.55524e-07
2.4419e-06
3.13228e-09
3.12896e-09
3.12726e-09
3.12554e-09
3.12447e-09
3.12557e-09
3.12665e-09
3.12618e-09
3.12557e-09
3.12626e-09
3.12763e-09
3.12861e-09
3.12906e-09
3.13251e-09
3.25487e-09
6.41083e-09
7.04133e-08
1.12264e-06
3.12362e-09
3.12846e-09
3.12754e-09
3.1246e-09
3.12334e-09
3.12436e-09
3.12533e-09
3.12516e-09
3.12504e-09
3.12578e-09
3.12689e-09
3.12775e-09
3.1287e-09
3.13055e-09
3.17074e-09
4.29174e-09
2.86484e-08
4.52606e-07
3.12472e-09
3.12272e-09
3.12189e-09
3.12184e-09
3.12193e-09
3.12286e-09
3.12392e-09
3.12455e-09
3.12532e-09
3.12665e-09
3.12823e-09
3.1295e-09
3.13042e-09
3.13123e-09
3.14302e-09
3.51808e-09
1.23341e-08
1.74847e-07
3.12017e-09
3.12065e-09
3.12224e-09
3.12065e-09
3.11988e-09
3.12207e-09
3.12462e-09
3.12569e-09
3.12606e-09
3.12686e-09
3.1281e-09
3.12926e-09
3.1303e-09
3.13142e-09
3.1356e-09
3.25544e-09
6.31179e-09
6.57561e-08
3.10969e-09
3.11123e-09
3.11487e-09
3.11729e-09
3.11877e-09
3.12084e-09
3.12276e-09
3.12412e-09
3.12581e-09
3.12815e-09
3.13052e-09
3.13239e-09
3.13379e-09
3.13498e-09
3.1367e-09
3.17108e-09
4.1339e-09
2.42143e-08
3.10414e-09
3.10854e-09
3.11607e-09
3.11797e-09
3.11802e-09
3.12114e-09
3.12528e-09
3.1281e-09
3.12992e-09
3.13152e-09
3.13311e-09
3.1346e-09
3.13602e-09
3.13748e-09
3.13901e-09
3.14861e-09
3.42487e-09
9.70532e-09
3.10536e-09
3.10539e-09
3.112e-09
3.11607e-09
3.11931e-09
3.12378e-09
3.12724e-09
3.12951e-09
3.13197e-09
3.13508e-09
3.13827e-09
3.14093e-09
3.14303e-09
3.14477e-09
3.14628e-09
3.14941e-09
3.22336e-09
5.04796e-09
3.08126e-09
3.10432e-09
3.11743e-09
3.12099e-09
3.12331e-09
3.12865e-09
3.1346e-09
3.13903e-09
3.14223e-09
3.1448e-09
3.14684e-09
3.14852e-09
3.1501e-09
3.15175e-09
3.15338e-09
3.15519e-09
3.17361e-09
3.65657e-09
3.10179e-09
3.11356e-09
3.12348e-09
3.13002e-09
3.13543e-09
3.14118e-09
3.14581e-09
3.14873e-09
3.15148e-09
3.15473e-09
3.15803e-09
3.16088e-09
3.16326e-09
3.16529e-09
3.16699e-09
3.1684e-09
3.17294e-09
3.2891e-09
3.10218e-09
3.12557e-09
3.14245e-09
3.14869e-09
3.15276e-09
3.15901e-09
3.1653e-09
3.16959e-09
3.17257e-09
3.17498e-09
3.17673e-09
3.17778e-09
3.17851e-09
3.17927e-09
3.18001e-09
3.18073e-09
3.18188e-09
3.20763e-09
3.16255e-09
3.16524e-09
3.17272e-09
3.17803e-09
3.18132e-09
3.18527e-09
3.1884e-09
3.19001e-09
3.1913e-09
3.19302e-09
3.19496e-09
3.1966e-09
3.19777e-09
3.19855e-09
3.19907e-09
3.19933e-09
3.19959e-09
3.20535e-09
3.17842e-09
3.20254e-09
3.2123e-09
3.21487e-09
3.21468e-09
3.21651e-09
3.21899e-09
3.22002e-09
3.22013e-09
3.21993e-09
3.21922e-09
3.21803e-09
3.2168e-09
3.21573e-09
3.21492e-09
3.21411e-09
3.21335e-09
3.21364e-09
3.27721e-09
3.27024e-09
3.26163e-09
3.25919e-09
3.25755e-09
3.25617e-09
3.25427e-09
3.25123e-09
3.24795e-09
3.24528e-09
3.24318e-09
3.24131e-09
3.23943e-09
3.23757e-09
3.23565e-09
3.2339e-09
3.23195e-09
3.2305e-09
3.33153e-09
3.32466e-09
3.32343e-09
3.32171e-09
3.31418e-09
3.30433e-09
3.29496e-09
3.28678e-09
3.27953e-09
3.27292e-09
3.2669e-09
3.26138e-09
3.25622e-09
3.25147e-09
3.24709e-09
3.24324e-09
3.23958e-09
3.23641e-09
3.46723e-09
3.41141e-09
3.37183e-09
3.34019e-09
3.31728e-09
3.30111e-09
3.28868e-09
3.27879e-09
3.2705e-09
3.26296e-09
3.25611e-09
3.2501e-09
3.24483e-09
3.24004e-09
3.2356e-09
3.23144e-09
3.22754e-09
3.22394e-09
3.20906e-09
3.20983e-09
3.20905e-09
3.21116e-09
3.21265e-09
3.21161e-09
3.2076e-09
3.20203e-09
3.19593e-09
3.1896e-09
3.18345e-09
3.17778e-09
3.17254e-09
3.16772e-09
3.16331e-09
3.15933e-09
3.15562e-09
3.15235e-09
3.06899e-09
3.05617e-09
3.04523e-09
3.03542e-09
3.02707e-09
3.02149e-09
3.01768e-09
3.01459e-09
3.01174e-09
3.00919e-09
3.00685e-09
3.00457e-09
3.00243e-09
3.00062e-09
2.99921e-09
2.99802e-09
2.99689e-09
2.99597e-09
2.64665e-09
2.6646e-09
2.67757e-09
2.6857e-09
2.69428e-09
2.70271e-09
2.70959e-09
2.71499e-09
2.71928e-09
2.72288e-09
2.72624e-09
2.72949e-09
2.73253e-09
2.73528e-09
2.73762e-09
2.73946e-09
2.74082e-09
2.74205e-09
2.45744e-09
2.4635e-09
2.46532e-09
2.46326e-09
2.46362e-09
2.46545e-09
2.46771e-09
2.47027e-09
2.47294e-09
2.47579e-09
2.47905e-09
2.48268e-09
2.48645e-09
2.49021e-09
2.49378e-09
2.49703e-09
2.49998e-09
2.50286e-09
2.22787e-09
2.24657e-09
2.26275e-09
2.27376e-09
2.2836e-09
2.2919e-09
2.2989e-09
2.30482e-09
2.30966e-09
2.31393e-09
2.3183e-09
2.32285e-09
2.32735e-09
2.33157e-09
2.33542e-09
2.33888e-09
2.34195e-09
2.34493e-09
2.14e-09
2.15041e-09
2.1627e-09
2.17132e-09
2.17632e-09
2.18168e-09
2.18769e-09
2.19249e-09
2.19622e-09
2.20006e-09
2.20409e-09
2.20799e-09
2.21173e-09
2.21538e-09
2.21897e-09
2.22249e-09
2.22589e-09
2.22925e-09
2.11278e-09
2.10572e-09
2.10413e-09
2.10688e-09
2.10946e-09
2.11271e-09
2.11683e-09
2.12061e-09
2.12399e-09
2.12752e-09
2.131e-09
2.13405e-09
2.13686e-09
2.13974e-09
2.14277e-09
2.14571e-09
2.14849e-09
2.15116e-09
2.05746e-09
2.05654e-09
2.05879e-09
2.06148e-09
2.06248e-09
2.06369e-09
2.06589e-09
2.06834e-09
2.07068e-09
2.07301e-09
2.07546e-09
2.07802e-09
2.08077e-09
2.08369e-09
2.08663e-09
2.08951e-09
2.09236e-09
2.09514e-09
2.00834e-09
2.01225e-09
2.01456e-09
2.0169e-09
2.01892e-09
2.02115e-09
2.02441e-09
2.02825e-09
2.03203e-09
2.03557e-09
2.03876e-09
2.04162e-09
2.04438e-09
2.04711e-09
2.04968e-09
2.05208e-09
2.05435e-09
2.05662e-09
1.95736e-09
1.97303e-09
1.98116e-09
1.98656e-09
1.99054e-09
1.99387e-09
1.99737e-09
2.00078e-09
2.00388e-09
2.00702e-09
2.01026e-09
2.01344e-09
2.01636e-09
2.01917e-09
2.02204e-09
2.02497e-09
2.02786e-09
2.03065e-09
1.94137e-09
1.95256e-09
1.95845e-09
1.9619e-09
1.96595e-09
1.97065e-09
1.97577e-09
1.98061e-09
1.98481e-09
1.98867e-09
1.99254e-09
1.99631e-09
1.99967e-09
2.00263e-09
2.00532e-09
2.00786e-09
2.01035e-09
2.01284e-09
1.92667e-09
1.93745e-09
1.94432e-09
1.94946e-09
1.95481e-09
1.95972e-09
1.96444e-09
1.96887e-09
1.9728e-09
1.97642e-09
1.98e-09
1.98358e-09
1.9871e-09
1.99055e-09
1.99396e-09
1.99727e-09
2.00038e-09
2.00325e-09
1.91331e-09
1.92635e-09
1.93371e-09
1.9398e-09
1.94602e-09
1.95175e-09
1.95708e-09
1.96198e-09
1.96644e-09
1.97067e-09
1.97486e-09
1.97889e-09
1.98262e-09
1.98599e-09
1.98904e-09
1.9919e-09
1.9946e-09
1.99735e-09
1.9234e-09
1.92525e-09
1.93166e-09
1.93839e-09
1.94421e-09
1.94947e-09
1.95471e-09
1.95964e-09
1.96405e-09
1.96825e-09
1.97252e-09
1.97675e-09
1.98067e-09
1.98415e-09
1.9873e-09
1.9903e-09
1.99316e-09
1.99618e-09
0.000551153
0.000551161
0.000550009
0.000547977
0.00054767
0.000549144
0.000550695
0.000552998
0.000555391
0.000556812
0.000557515
0.00055809
0.000558822
0.000559769
0.000560907
0.000562196
0.000563593
0.000565065
0.000566592
0.000568147
0.000569733
0.000571312
0.00057288
0.000574394
0.000575842
0.000577407
0.000579177
0.000581092
0.00058318
0.00058558
0.000588677
0.000593311
0.000600116
0.0006069
0.000611063
0.000613922
0.000618058
0.000628177
0.000641402
0.00065913
0.00067949
0.000697102
0.000722997
0.000749132
0.000772982
0.000798056
0.000824592
0.000852942
0.000875022
0.000891327
0.000909478
0.000932128
0.000969386
0.00099538
0.000992153
0.000976796
0.000963155
0.000953914
0.000947044
0.000941312
0.000936106
0.00093119
0.000926441
0.000921803
0.000917218
0.000912656
0.000908082
0.000903474
0.000898809
0.000894076
0.000889261
0.000884358
0.000879363
0.000874285
0.000869151
0.00086399
0.000858727
0.000853347
0.000847892
0.000842356
0.000836749
0.000831078
0.000825352
0.000819578
0.000813761
0.000807906
0.000802012
0.000796076
0.000790093
0.000784056
0.000777948
0.000771749
0.000765444
0.000759033
0.000752513
0.000745856
0.000739019
0.00073201
0.000724913
0.000717789
0.000710536
0.000702995
0.000695296
0.000687819
0.000680288
0.000671796
0.00066306
0.000654793
0.00064636
0.000637503
0.000628915
0.000623644
0.000624825
0.00062399
0.000610235
0.000596955
0.000595448
0.000592732
0.000588899
0.000590604
0.000595017
0.000609668
0.000658021
0.000790215
0.00108293
0.00157639
0.00217178
0.00265481
0.00289141
0.00294175
0.00291412
0.00287072
0.00283023
0.00279434
0.00276172
0.00273125
0.00270207
0.00267339
0.00264416
0.0026135
0.00258148
0.00254687
0.00250783
0.00246336
0.00241327
0.00235945
0.00230416
0.00224975
0.00219983
0.00215914
0.00212731
0.00209216
0.00205463
0.00201897
0.00198629
0.00195702
0.00193122
0.00190858
0.00188862
0.0018712
0.00185568
0.00184134
0.00182891
0.00181765
0.00180581
0.00179593
0.00178708
0.00177513
0.00176592
0.00175907
0.00174619
0.00173311
0.00172689
0.00171185
0.00168059
0.00166181
0.00167217
0.00166553
0.00162102
0.00158714
0.000543894
0.000543733
0.00054318
0.000541016
0.000540064
0.000541015
0.000543265
0.000545372
0.000546865
0.000547914
0.000548961
0.000550352
0.000552174
0.000554353
0.000556769
0.000559311
0.000561892
0.000564452
0.000566944
0.000569361
0.000571684
0.000573931
0.000576076
0.00057811
0.000579977
0.000581453
0.000582535
0.000583388
0.000584175
0.000585073
0.00058643
0.000588818
0.000593161
0.000598324
0.000602559
0.000607855
0.000613162
0.000617933
0.00062653
0.000642821
0.000659419
0.000677736
0.000702246
0.000731162
0.000758516
0.000784425
0.000818842
0.000835944
0.000866971
0.00090803
0.000924222
0.000936601
0.000970112
0.000986601
0.000977405
0.000963673
0.000953815
0.000947442
0.000943012
0.000939625
0.000936831
0.000934312
0.000931892
0.000929438
0.000926886
0.000924207
0.000921379
0.000918395
0.000915242
0.000911912
0.000908392
0.000904672
0.000900735
0.000896548
0.000892055
0.000887213
0.000882103
0.000876776
0.000871225
0.000865489
0.000859588
0.00085355
0.000847396
0.000841147
0.000834818
0.000828419
0.000821953
0.00081542
0.000808817
0.000802141
0.000795391
0.000788563
0.000781641
0.00077461
0.00076744
0.000760074
0.000752435
0.000744488
0.000736288
0.000727909
0.0007193
0.000710299
0.000700962
0.000691777
0.000682986
0.000673804
0.000663914
0.000653778
0.00064288
0.000630787
0.000619714
0.000611421
0.000607442
0.000602526
0.000588202
0.000575181
0.00057529
0.000579598
0.000582066
0.000585264
0.000592
0.000615156
0.000684127
0.000857679
0.00121245
0.00175787
0.00233942
0.00275028
0.00292543
0.00294663
0.00291112
0.00286777
0.00282957
0.0027974
0.00277047
0.00274813
0.00272964
0.00271384
0.00269871
0.00268109
0.00265747
0.00262659
0.00258694
0.00253631
0.00247457
0.00240555
0.00233427
0.00226484
0.00220151
0.00214907
0.00210681
0.00206251
0.00201875
0.00197936
0.00194492
0.00191534
0.00189016
0.00186866
0.00185023
0.00183437
0.0018202
0.00180743
0.00179673
0.00178636
0.00177508
0.00176644
0.00175793
0.00174496
0.00173597
0.00172917
0.00171303
0.00169717
0.00168925
0.00167127
0.00163694
0.00161277
0.00161456
0.0016041
0.00158389
0.00157035
0.000542423
0.00054236
0.000541265
0.000540675
0.000539675
0.000539076
0.00053909
0.000539607
0.00054085
0.000543051
0.000546202
0.000550067
0.000554328
0.000558733
0.000563118
0.00056738
0.000571434
0.000575206
0.000578625
0.00058163
0.000584185
0.000586295
0.000588014
0.000589467
0.000590755
0.000591882
0.000592691
0.000592952
0.000592558
0.000591694
0.000590677
0.000589902
0.000590226
0.000592002
0.000595183
0.000600244
0.000605847
0.000611704
0.000619239
0.000629715
0.000643563
0.00066032
0.000685341
0.000723429
0.000759176
0.000804057
0.000846313
0.000880249
0.000896187
0.000932586
0.000952592
0.000961547
0.000968967
0.000965996
0.0009574
0.000952085
0.000951086
0.000952405
0.000954487
0.000956363
0.00095775
0.00095858
0.000958933
0.000958893
0.000958503
0.000957795
0.000956772
0.000955439
0.000953773
0.000951759
0.000949372
0.000946589
0.000943397
0.000939789
0.000935731
0.00093121
0.000926226
0.000920765
0.000914843
0.0009085
0.000901792
0.000894788
0.000887568
0.000880213
0.000872797
0.000865383
0.000858007
0.000850684
0.0008434
0.000836114
0.000828769
0.000821297
0.000813626
0.000805681
0.000797376
0.000788604
0.000779255
0.000769253
0.000758611
0.000747407
0.000735728
0.00072368
0.000711391
0.000698976
0.000686549
0.000674329
0.000662492
0.000650567
0.000637269
0.000622169
0.000607637
0.000595577
0.000586311
0.000575236
0.000558872
0.00054761
0.000551709
0.000564484
0.000573621
0.000579748
0.000591921
0.000627259
0.000722824
0.000944402
0.00135581
0.00192041
0.00245778
0.00280137
0.00293276
0.00293974
0.00290635
0.00287166
0.00284543
0.00282801
0.00281805
0.00281394
0.0028138
0.00281504
0.00281434
0.00280815
0.00279362
0.00276801
0.00272658
0.00266524
0.00258318
0.00248738
0.00238761
0.00229146
0.00220444
0.00213098
0.00206833
0.00200825
0.00195349
0.00190699
0.00186862
0.00183751
0.00181261
0.0017927
0.00177644
0.00176308
0.00175186
0.00174157
0.00173251
0.00172454
0.00171532
0.00170645
0.00169902
0.00168825
0.00167628
0.00166707
0.00165245
0.00163012
0.00161067
0.00158739
0.00155393
0.00152568
0.00152172
0.00152591
0.00152929
0.00152692
0.000531079
0.000531177
0.00053197
0.000530955
0.0005299
0.000530645
0.000533617
0.000538294
0.000543895
0.000549945
0.000556265
0.000562735
0.000569191
0.000575467
0.00058144
0.00058703
0.00059218
0.000596842
0.000600974
0.00060454
0.000607496
0.000609809
0.000611442
0.000612343
0.000612552
0.000612354
0.000611935
0.000611245
0.000610155
0.000608477
0.000606207
0.000603463
0.000600578
0.000598314
0.000597504
0.000598709
0.000601796
0.000607212
0.000614347
0.000622954
0.000636053
0.000651924
0.000680074
0.000718576
0.000765266
0.00082802
0.000874647
0.000914648
0.000940586
0.00095727
0.000964572
0.000967656
0.000968409
0.000966769
0.000965725
0.000967554
0.000971554
0.000976339
0.000980989
0.000985127
0.000988734
0.000991882
0.000994638
0.000997079
0.000999219
0.00100106
0.00100256
0.00100368
0.00100434
0.00100447
0.00100402
0.00100292
0.00100115
0.000998691
0.000995479
0.000991418
0.000986513
0.000980794
0.0009743
0.000967094
0.00095926
0.000950907
0.000942158
0.000933146
0.000924001
0.00091484
0.000905757
0.000896807
0.000888002
0.000879306
0.00087064
0.000861896
0.000852954
0.000843682
0.000833924
0.000823483
0.000812139
0.000799697
0.000786063
0.000771287
0.000755556
0.000739226
0.000722694
0.000706195
0.000689557
0.000672949
0.000657462
0.000643791
0.000629287
0.000612117
0.000593691
0.000576906
0.00056282
0.000547141
0.000528105
0.000517588
0.000524967
0.000542304
0.000557411
0.000570816
0.00059154
0.000641272
0.000764101
0.00102539
0.00147004
0.00202906
0.00252578
0.00282806
0.00293982
0.00294574
0.00292044
0.00289816
0.0028874
0.00288791
0.00289743
0.00291307
0.00293132
0.00294808
0.00295971
0.00296353
0.00295541
0.00293104
0.00288683
0.00281625
0.00271458
0.00258962
0.0024563
0.00232761
0.00221117
0.00211036
0.00202006
0.00193877
0.00186878
0.00181217
0.0017681
0.00173455
0.00170929
0.00169033
0.0016759
0.00166474
0.00165588
0.00164818
0.00164149
0.00163558
0.0016287
0.00162184
0.00161606
0.00160752
0.00159646
0.00158537
0.00156737
0.0015379
0.0015073
0.00147247
0.00142905
0.00139538
0.00138689
0.00139352
0.00141223
0.00143806
0.000524429
0.000525371
0.000523669
0.000523149
0.000526078
0.000531114
0.000536965
0.000543702
0.000551282
0.000559294
0.000567359
0.000575262
0.000582879
0.000590116
0.000596882
0.00060308
0.000608604
0.000613342
0.000617212
0.000620176
0.000622272
0.000623589
0.000624253
0.000624507
0.000624636
0.000624689
0.000624751
0.00062498
0.000625217
0.000624895
0.000623462
0.000620772
0.000616824
0.000612072
0.000607657
0.000604879
0.000604487
0.000607151
0.000612206
0.000620253
0.000633297
0.000651224
0.000683508
0.000726171
0.000786713
0.000854157
0.000914836
0.000941019
0.000958947
0.000967581
0.00097219
0.000976022
0.000979664
0.000983403
0.000987664
0.000992788
0.000998318
0.00100405
0.00100987
0.00101585
0.00102192
0.00102806
0.00103417
0.00104018
0.00104594
0.00105135
0.00105627
0.00106056
0.00106411
0.00106681
0.00106859
0.0010694
0.00106919
0.00106789
0.00106542
0.0010617
0.00105678
0.00105072
0.00104357
0.00103542
0.00102639
0.00101661
0.00100624
0.000995453
0.000984419
0.000973301
0.000962237
0.000951325
0.000940609
0.000930075
0.000919651
0.000909221
0.000898641
0.000887751
0.000876355
0.000864197
0.000850952
0.00083624
0.000819752
0.000801412
0.000781371
0.000760085
0.000738116
0.000716135
0.000694271
0.000672611
0.000651021
0.000631771
0.00061434
0.00059532
0.000574782
0.000555697
0.000539003
0.000521287
0.000502025
0.000492704
0.000501338
0.000521021
0.000541534
0.000561421
0.000589876
0.000652994
0.000797177
0.00108189
0.0015353
0.00207798
0.00254883
0.00283724
0.00295016
0.00296485
0.00295156
0.00294365
0.00294942
0.00296801
0.00299577
0.00302741
0.00305697
0.00307987
0.00309416
0.00309872
0.00308931
0.0030622
0.00301827
0.00294832
0.00283772
0.00269052
0.00252578
0.00236432
0.00221688
0.00208634
0.00196752
0.0018623
0.00177329
0.00170262
0.00164943
0.00161102
0.00158413
0.00156563
0.0015528
0.0015438
0.00153752
0.00153277
0.00152893
0.00152604
0.00152316
0.00152007
0.0015176
0.00151285
0.00150356
0.00148988
0.00146629
0.00142772
0.00138265
0.00133359
0.00128037
0.00124046
0.00122595
0.00122862
0.00125537
0.00130335
0.000518449
0.000517271
0.000515443
0.000518724
0.000524444
0.000531427
0.000539244
0.000547566
0.000556329
0.00056559
0.000575223
0.000584908
0.000594273
0.000603021
0.000610958
0.000617949
0.000623878
0.000628658
0.000632247
0.000634668
0.000636005
0.000636398
0.0006361
0.00063538
0.000634695
0.000634325
0.000634082
0.000633726
0.000633374
0.000633214
0.000632804
0.00063145
0.000628821
0.000624825
0.000619616
0.000614415
0.000610948
0.000610435
0.000613335
0.000620658
0.000632386
0.000652079
0.000685213
0.000731879
0.000795699
0.000867523
0.000922328
0.000949443
0.000967009
0.000975911
0.000982869
0.00098946
0.000995707
0.00100187
0.0010081
0.00101474
0.00102197
0.00103009
0.00103915
0.00104906
0.00105949
0.00107012
0.00108059
0.00109068
0.00110014
0.00110885
0.00111668
0.00112355
0.0011294
0.00113418
0.00113781
0.00114018
0.00114112
0.00114047
0.00113829
0.00113473
0.00112975
0.00112334
0.00111555
0.00110646
0.00109622
0.00108502
0.00107305
0.0010605
0.00104758
0.0010345
0.00102141
0.00100842
0.000995583
0.000982915
0.000970402
0.00095798
0.000945489
0.000932687
0.000919276
0.000904913
0.000889245
0.000871843
0.000852291
0.000830457
0.000806398
0.000780545
0.000753382
0.000725959
0.000699125
0.000673223
0.000647208
0.000621687
0.00059969
0.00057843
0.000555863
0.00053477
0.000516183
0.000497067
0.000477979
0.000469644
0.000479617
0.00050127
0.000525946
0.000551124
0.00058647
0.000659777
0.000815947
0.0011072
0.00155181
0.00207704
0.00253956
0.00283683
0.0029651
0.00299335
0.00299215
0.00299751
0.00301863
0.00305339
0.00309533
0.00313672
0.00317235
0.00320083
0.00322006
0.00322352
0.00320541
0.0031697
0.00312352
0.00305646
0.00294159
0.00277865
0.00258762
0.00239621
0.00221801
0.00205755
0.00191349
0.00178667
0.00167972
0.00159472
0.00153076
0.00148487
0.00145336
0.00143258
0.00141933
0.0014112
0.0014067
0.00140462
0.00140408
0.00140489
0.00140644
0.00140775
0.00140906
0.00140784
0.00139972
0.00138326
0.00135304
0.0013026
0.00124209
0.00117996
0.0011182
0.00106965
0.00105043
0.00105292
0.00108207
0.00114066
0.000504079
0.000503843
0.000506973
0.00051399
0.000522115
0.0005302
0.000539202
0.0005496
0.00056104
0.000573072
0.000585047
0.000596265
0.000606256
0.000614854
0.000622089
0.000628014
0.000632622
0.000635862
0.000637791
0.000638621
0.000638617
0.000638219
0.000637872
0.000637502
0.000637375
0.000637908
0.000638707
0.000639127
0.000639111
0.000639214
0.00063942
0.000638618
0.000635965
0.000631928
0.000626966
0.000621634
0.00061735
0.000615335
0.000616561
0.000622012
0.000632818
0.000654133
0.000687309
0.000737626
0.000803095
0.000875247
0.000923931
0.000953999
0.000973952
0.000985255
0.000994457
0.00100251
0.00100983
0.00101747
0.00102592
0.00103584
0.00104742
0.00106053
0.00107469
0.00108935
0.00110393
0.00111801
0.00113133
0.00114378
0.00115534
0.00116602
0.00117584
0.00118476
0.0011927
0.00119953
0.00120503
0.00120893
0.00121092
0.00121102
0.00120949
0.00120622
0.00120106
0.00119401
0.00118515
0.00117463
0.0011627
0.0011496
0.00113562
0.00112107
0.0011062
0.0010913
0.00107658
0.00106221
0.00104823
0.00103457
0.00102104
0.00100739
0.000993271
0.000978259
0.000962001
0.000944226
0.000924818
0.000903539
0.000879988
0.000854046
0.000825716
0.000795366
0.000763214
0.000730564
0.000699311
0.000669386
0.000640964
0.000611767
0.000585077
0.000561551
0.000537306
0.000514241
0.000494201
0.000474254
0.000455514
0.000447956
0.000459047
0.000482934
0.000511225
0.000540602
0.000581044
0.000660134
0.000818923
0.00110338
0.00152986
0.00203879
0.00250636
0.00282679
0.00297899
0.00302314
0.0030342
0.00305304
0.00308891
0.00313643
0.00318656
0.00323351
0.00327743
0.00331946
0.00335288
0.00336066
0.00333074
0.00327694
0.00321558
0.0031378
0.00301039
0.00283074
0.0026168
0.00240075
0.00219791
0.00201295
0.00184818
0.00170439
0.00158361
0.00148773
0.00141562
0.00136374
0.0013278
0.00130381
0.00128852
0.00127955
0.00127535
0.00127473
0.00127659
0.00128022
0.00128481
0.00128943
0.00129417
0.00129682
0.0012912
0.00127106
0.00123118
0.00116799
0.00109322
0.00101826
0.00095034
0.000896831
0.000872735
0.000874743
0.000904071
0.000966125
0.000497747
0.000499586
0.000504386
0.000511501
0.000519755
0.000529569
0.000541435
0.000554664
0.000568371
0.000581815
0.000594147
0.000604939
0.000614271
0.000622364
0.000629268
0.000634774
0.000638524
0.000640289
0.000640216
0.000638753
0.000636551
0.000634569
0.000633727
0.000633875
0.000634345
0.000635122
0.000636147
0.000636947
0.000637514
0.000638532
0.000639861
0.000640321
0.000639157
0.000636436
0.000632329
0.000627605
0.000623558
0.000621004
0.000621167
0.000625707
0.000636985
0.000658704
0.000692333
0.0007437
0.000810345
0.00088043
0.000926583
0.000959497
0.000981262
0.000994325
0.00100496
0.00101421
0.00102354
0.00103441
0.00104716
0.0010621
0.00107865
0.00109607
0.00111356
0.0011306
0.00114693
0.00116255
0.00117754
0.00119203
0.00120605
0.00121958
0.00123246
0.00124444
0.00125518
0.00126432
0.00127146
0.00127639
0.00127919
0.00127978
0.00127794
0.00127377
0.0012674
0.00125899
0.00124871
0.00123671
0.00122322
0.00120852
0.00119297
0.00117693
0.00116071
0.00114456
0.00112874
0.00111348
0.00109885
0.00108459
0.00107013
0.00105489
0.00103835
0.00102011
0.001
0.000977887
0.000953913
0.000928193
0.000900483
0.000870646
0.000838562
0.000804283
0.000767958
0.000730769
0.000695705
0.000661791
0.000629883
0.00059899
0.000568852
0.000542868
0.000517975
0.000493914
0.0004734
0.000453922
0.0004355
0.000427427
0.000438063
0.000463958
0.000495958
0.000529208
0.000573159
0.000653973
0.000807936
0.00107642
0.00147881
0.00197212
0.00245116
0.00280295
0.00298572
0.0030501
0.00307593
0.00310857
0.00315579
0.00320962
0.00326333
0.00331797
0.00337748
0.0034392
0.00349039
0.00350768
0.00346651
0.00337801
0.00328268
0.00317933
0.00303513
0.00283472
0.0025955
0.0023553
0.00213262
0.00193287
0.00175774
0.00160659
0.0014796
0.00137783
0.00130058
0.00124474
0.00120603
0.00118014
0.00116351
0.00115376
0.00114942
0.00114941
0.00115241
0.00115725
0.00116337
0.00117079
0.00117988
0.00118721
0.00118284
0.00115613
0.00110396
0.0010281
0.000941687
0.000857482
0.000785525
0.000730714
0.000703178
0.000704012
0.000732872
0.000794114
0.000491197
0.000493119
0.000498753
0.000507324
0.000517915
0.000530563
0.000544715
0.000559474
0.000574297
0.000588399
0.000601209
0.000612932
0.000623729
0.000633511
0.000641914
0.000648284
0.000652037
0.000653037
0.00065169
0.000648622
0.000644483
0.000640545
0.000638064
0.000636515
0.000634645
0.000633218
0.000633176
0.000633986
0.000635392
0.000637629
0.000639686
0.000640263
0.000639251
0.000637074
0.000633872
0.000630196
0.000626876
0.000624597
0.000624975
0.000630105
0.000642249
0.000663911
0.000699664
0.000751659
0.000818949
0.000884309
0.000930867
0.000965685
0.000988507
0.00100297
0.00101531
0.00102671
0.00103943
0.00105438
0.00107133
0.00108993
0.00110918
0.00112848
0.00114746
0.00116614
0.00118467
0.00120322
0.00122179
0.00124022
0.00125815
0.00127513
0.00129064
0.00130424
0.00131553
0.00132427
0.00133037
0.00133397
0.00133521
0.00133404
0.00133052
0.00132492
0.00131756
0.00130868
0.0012984
0.00128683
0.00127403
0.00126013
0.00124532
0.00122984
0.00121382
0.00119737
0.00118059
0.00116363
0.00114657
0.00112932
0.0011116
0.00109314
0.00107352
0.00105215
0.00102861
0.0010026
0.000973953
0.000943021
0.000910333
0.000876169
0.000840861
0.000804046
0.000765278
0.000725036
0.000686447
0.000649554
0.000613991
0.000581723
0.000550646
0.000522709
0.000497535
0.000473172
0.000452923
0.000435681
0.000419467
0.000411557
0.00042035
0.00044656
0.000481169
0.000517093
0.000562942
0.00064212
0.000785975
0.00103249
0.00140592
0.00188181
0.00237398
0.0027632
0.00298322
0.00307363
0.00311641
0.00316038
0.00321302
0.00326783
0.00332536
0.00339331
0.003473
0.00355252
0.00361362
0.00363505
0.00357951
0.00344974
0.00331585
0.00318658
0.00302698
0.00280209
0.00253653
0.00227332
0.0020289
0.00180886
0.001625
0.00147759
0.00135904
0.00126258
0.0011865
0.00112936
0.00108859
0.00106089
0.00104307
0.00103288
0.00102882
0.00102949
0.00103322
0.00103857
0.0010457
0.00105633
0.00107056
0.00108145
0.00107492
0.00103927
0.000974569
0.0008878
0.000793611
0.000705174
0.00063194
0.000578207
0.000549049
0.000547525
0.000574629
0.000633549
0.00048331
0.000486594
0.000493812
0.000503785
0.000515923
0.000530355
0.000546163
0.000562658
0.000578981
0.000593992
0.000607739
0.000620769
0.00063283
0.000643655
0.000652813
0.000659499
0.000663167
0.000663896
0.000662235
0.000658878
0.000654554
0.000650305
0.000646941
0.000644509
0.000642247
0.000639873
0.000638134
0.000636942
0.000636587
0.000637473
0.000638219
0.000637579
0.000635595
0.000632754
0.000629593
0.000626728
0.000624683
0.000624104
0.000626476
0.00063368
0.00064778
0.000671433
0.000709536
0.000762646
0.000828233
0.000889023
0.000936661
0.000971959
0.000995513
0.00101162
0.00102608
0.0010401
0.00105612
0.00107418
0.00109379
0.00111445
0.00113552
0.00115695
0.00117877
0.0012011
0.00122387
0.00124677
0.00126922
0.00129048
0.0013098
0.00132661
0.00134066
0.00135198
0.00136071
0.00136701
0.001371
0.00137267
0.00137219
0.00137003
0.00136619
0.00136064
0.00135353
0.00134504
0.00133543
0.00132487
0.00131343
0.00130114
0.00128797
0.00127389
0.00125888
0.00124287
0.00122575
0.00120739
0.00118786
0.00116754
0.00114682
0.00112571
0.00110371
0.00107994
0.00105334
0.00102359
0.000990103
0.000953091
0.000914124
0.000874698
0.0008362
0.000797759
0.000756902
0.000714097
0.000671485
0.000631014
0.000592581
0.000558282
0.000527734
0.00050003
0.000475194
0.000451437
0.000431791
0.000417197
0.000405111
0.000400428
0.000410301
0.000436006
0.000470047
0.000505686
0.000551188
0.00062577
0.000755787
0.000976482
0.0013172
0.00177205
0.00227509
0.00270549
0.0029699
0.00309205
0.00315272
0.00320435
0.00325759
0.00331162
0.00337634
0.00346192
0.00355882
0.00363627
0.00367947
0.00370034
0.00365289
0.00350443
0.00333928
0.00318612
0.0030033
0.00274787
0.00245747
0.00217744
0.00191607
0.00167258
0.00146807
0.00131576
0.0012106
0.00113271
0.00106894
0.00101701
0.000977223
0.000948731
0.000929863
0.000919219
0.000915497
0.00091684
0.000920836
0.000926043
0.000934216
0.000948666
0.000967457
0.000979432
0.000968049
0.00092268
0.000846938
0.000752621
0.000655277
0.000567467
0.000496459
0.000445699
0.000417297
0.000413272
0.00043567
0.000489428
0.000474529
0.000478131
0.00048622
0.000497432
0.000511335
0.000528018
0.000545909
0.000563864
0.000580844
0.000596036
0.000609915
0.00062289
0.000634921
0.000645919
0.000655375
0.000662499
0.000666813
0.000668393
0.000667782
0.000665577
0.000662295
0.000658736
0.000655735
0.000653648
0.00065187
0.000649755
0.000647534
0.000645293
0.000643181
0.000641355
0.000639539
0.000637464
0.000635164
0.000632845
0.000630819
0.000629505
0.000629312
0.000630738
0.00063505
0.000643805
0.000658707
0.000683498
0.000721619
0.000774923
0.000838391
0.000896553
0.000943361
0.000978194
0.00100226
0.0010202
0.0010367
0.00105315
0.00107179
0.00109212
0.00111395
0.00113698
0.00116101
0.0011861
0.00121206
0.00123853
0.00126476
0.00128983
0.00131278
0.00133289
0.00134991
0.00136414
0.00137617
0.00138642
0.00139503
0.00140188
0.00140676
0.00140922
0.0014092
0.00140721
0.00140309
0.0013967
0.00138826
0.0013782
0.00136697
0.00135493
0.00134228
0.00132907
0.0013153
0.00130089
0.00128576
0.00126975
0.00125262
0.00123419
0.00121444
0.00119365
0.00117224
0.00114989
0.00112568
0.00109885
0.00106815
0.00103324
0.00099433
0.000952195
0.000908772
0.000866805
0.000827316
0.000787534
0.000743857
0.000698273
0.000653488
0.000610483
0.000569997
0.000532915
0.000501091
0.000473989
0.000450371
0.000428338
0.000409706
0.000397181
0.000389322
0.000389314
0.00040296
0.00042908
0.000460821
0.000494363
0.000537703
0.000605612
0.00071965
0.000912517
0.00121796
0.00164701
0.00215479
0.00262539
0.00294256
0.00310217
0.00318175
0.00323861
0.00329007
0.00334337
0.00341701
0.00352002
0.00362505
0.00368036
0.0036901
0.00370873
0.00369414
0.00354881
0.00335574
0.0031774
0.00296623
0.00268091
0.00236667
0.0020736
0.00180272
0.00154562
0.00131919
0.00114946
0.00104479
0.000985797
0.000942597
0.000903316
0.000869184
0.00084276
0.000824713
0.000814798
0.000811863
0.000813454
0.000816787
0.000821395
0.000830974
0.000849104
0.000870991
0.000881708
0.000863551
0.000808631
0.000724656
0.000626985
0.000530867
0.000447066
0.000380781
0.000334262
0.000308446
0.000303736
0.000321179
0.000366847
0.00046346
0.000467728
0.000476959
0.000489537
0.000504852
0.000522597
0.000541274
0.000559679
0.000576703
0.000591913
0.000605661
0.000618198
0.000629774
0.000640553
0.000650324
0.000658546
0.000664703