/*--------------------------------*- C++ -*----------------------------------*\
  =========                 |
  \\      /  F ield         | OpenFOAM: The Open Source CFD Toolbox
   \\    /   O peration     | Website:  https://openfoam.org
    \\  /    A nd           | Version:  10
     \\/     M anipulation  |
\*---------------------------------------------------------------------------*/
FoamFile
{
    format      ascii;
    class       volScalarField;
    location    "0.032";
    object      T;
}
// * * * * * * * * * * * * * * * * * * * * * * * * * * * * * * * * * * * * * //

dimensions      [0 0 0 1 0 0 0];

internalField   nonuniform List<scalar> 
12225
(
1.00078
0.99983
1.00012
1.00011
1.00018
1.00045
1.00048
1.00029
1.00023
1.00035
1.00042
1.0003
1.00004
0.999551
0.998707
0.996838
0.992142
0.982019
1.00003
0.999827
1.00006
1.00005
1.00011
1.00041
1.0005
1.00033
1.00022
1.0003
1.00037
1.00028
1.00002
0.999551
0.998698
0.996913
0.992748
0.984016
0.999764
1.00012
1.00024
1.00008
1.0001
1.00037
1.00045
1.00029
1.0002
1.00026
1.0003
1.00021
1.00001
0.999618
0.998861
0.997262
0.993644
0.986605
1.00007
1.00003
1.00016
1.0001
1.00011
1.00032
1.0004
1.00028
1.00022
1.00029
1.00035
1.00028
1.00008
0.999694
0.998946
0.997487
0.994494
0.989091
1.00009
1.00028
1.00054
1.00023
1.00008
1.00033
1.00048
1.00036
1.00024
1.00024
1.00026
1.00018
0.999996
0.999677
0.999067
0.997898
0.995565
0.991487
0.999792
1.00009
1.00049
1.00028
1.00011
1.00027
1.00034
1.00022
1.00017
1.00023
1.00029
1.00024
1.00008
0.999797
0.999268
0.998282
0.996451
0.993391
0.999775
1.00037
1.00097
1.00049
1.00007
1.00026
1.00043
1.00036
1.00027
1.00024
1.00022
1.00014
0.999994
0.999761
0.99934
0.998567
0.997184
0.994918
1.00009
1.00051
1.00094
1.00043
1.00008
1.00025
1.00031
1.00018
1.00011
1.00016
1.00022
1.00019
1.00009
0.999897
0.999557
0.998945
0.997901
0.996236
0.998855
1.00088
1.00126
1.00046
0.999973
1.00016
1.00035
1.00032
1.00025
1.00023
1.00019
1.00011
0.99999
0.999838
0.999584
0.999129
0.998367
0.997159
0.999599
1.00093
1.00109
1.00044
1.00005
1.00017
1.00024
1.0001
1.00002
1.00007
1.00013
1.00012
1.00008
0.999985
0.999805
0.999471
0.998913
0.998058
0.998572
1.0006
1.00111
1.00033
0.999871
1.00008
1.00029
1.00025
1.00019
1.00019
1.00017
1.00009
0.999985
0.999879
0.999728
0.999482
0.99908
0.998487
1.00011
1.00078
1.00092
1.00036
0.999945
1.00006
1.00014
1.00001
0.999937
0.999981
1.00005
1.00008
1.00006
1.00002
0.999936
0.999768
0.999493
0.999066
0.998767
1.00066
1.00065
1.00025
0.999877
1.00001
1.00019
1.00015
1.0001
1.0001
1.00009
1.00003
0.999968
0.999908
0.999838
0.999715
0.99952
0.999221
1.00051
1.00017
0.999747
0.999892
0.999828
0.999884
0.999944
0.999883
0.999843
0.999891
0.999963
1.00001
1.00002
1.00001
0.999976
0.999918
0.999785
0.999626
0.999766
0.999123
0.99988
1.00044
1.00028
1.00009
1.00006
1.00008
1.00009
1.00008
1.00006
1.00003
0.99999
0.999944
0.999892
0.999841
0.999748
0.99964
1.00358
1.00016
0.999478
0.999135
0.999199
0.999423
0.999583
0.999723
0.999825
0.999862
0.999894
0.999955
1.00002
1.00006
1.00008
1.00008
1.00006
1.00001
0.998925
0.998094
0.998226
0.999189
0.999912
1.00019
1.00014
1.00005
1.00001
0.999986
0.999977
0.999982
0.999971
0.999953
0.999938
0.999932
0.99992
0.999908
1.00101
1.00005
0.999707
0.999502
0.99937
0.999427
0.999517
0.999607
0.999723
0.999867
0.999985
1.00004
1.00005
1.00008
1.00012
1.00016
1.00018
1.0002
0.998494
0.999983
1.00047
1.00037
1.00058
1.00076
1.00072
1.00065
1.0006
1.00057
1.00057
1.00057
1.00056
1.00054
1.00052
1.00048
1.00044
1.0004
1.00062
1.00247
1.00239
1.0013
1.00084
1.00062
1.00051
1.00048
1.00044
1.00037
1.00033
1.00029
1.00027
1.00028
1.0003
1.00033
1.00036
1.00039
0.998269
1.00068
1.00172
1.00135
1.00105
1.0009
1.00092
1.00096
1.0009
1.00081
1.00078
1.00078
1.00077
1.00074
1.0007
1.00066
1.00062
1.00058
0.998786
1.00001
1.00127
1.00127
1.00067
1.00056
1.00073
1.00068
1.00053
1.00052
1.00055
1.00053
1.0005
1.00048
1.00048
1.0005
1.00051
1.00052
1.00022
0.999391
1.00003
1.00066
1.00056
1.00055
1.0007
1.00072
1.0007
1.00075
1.0008
1.00075
1.00068
1.00066
1.00066
1.00065
1.00061
1.00058
0.999903
0.9998
1.00049
1.0009
1.00068
1.00055
1.00061
1.00063
1.00057
1.00052
1.0005
1.00048
1.00049
1.00052
1.00054
1.00056
1.00057
1.00058
0.999794
1.00045
1.0005
1.00049
1.00033
1.00028
1.00045
1.00062
1.00068
1.00069
1.00069
1.00067
1.00066
1.00067
1.00065
1.00062
1.00059
1.00057
0.998757
1.00083
1.00083
1.0007
1.00059
1.00055
1.00064
1.00065
1.00058
1.00054
1.00056
1.00058
1.00056
1.00056
1.00057
1.0006
1.00063
1.00065
0.99936
1.00107
1.00082
1.00038
1.0003
1.00037
1.00054
1.00062
1.00059
1.00058
1.00065
1.00072
1.00072
1.00068
1.00063
1.00059
1.00056
1.00055
0.999242
1.00085
1.00085
1.00061
1.0006
1.0006
1.00064
1.00063
1.00055
1.00049
1.00051
1.00055
1.00057
1.00057
1.00058
1.00059
1.0006
1.00061
0.998611
1.00033
1.00053
1.00047
1.00051
1.00054
1.00059
1.0006
1.00056
1.00055
1.00062
1.00068
1.0007
1.00066
1.00061
1.00055
1.00052
1.00052
0.999703
1.00021
1.00065
1.00068
1.00061
1.00057
1.0006
1.0006
1.00054
1.00053
1.0006
1.00068
1.00071
1.00067
1.00061
1.00057
1.00054
1.00058
0.618759
0.618793
0.618589
0.618168
0.618112
0.618411
0.618615
0.618829
0.618848
0.618409
0.61762
0.616671
0.615642
0.614549
0.613386
0.612144
0.610817
0.609404
0.607908
0.60633
0.604676
0.602939
0.601121
0.599213
0.597226
0.595212
0.593164
0.591035
0.588812
0.586485
0.584031
0.581369
0.578161
0.573584
0.567348
0.560123
0.55246
0.54525
0.538138
0.531529
0.525253
0.51852
0.513246
0.508272
0.503383
0.499309
0.496228
0.494202
0.491958
0.489886
0.489249
0.490315
0.494312
0.498676
0.501826
0.504317
0.506754
0.509384
0.512111
0.514857
0.517561
0.520199
0.522767
0.525277
0.527741
0.530177
0.532596
0.53501
0.537424
0.539847
0.54228
0.544728
0.547191
0.54967
0.552171
0.554709
0.557268
0.559838
0.562426
0.565031
0.567651
0.570287
0.572935
0.575593
0.57826
0.580933
0.583611
0.586292
0.588977
0.591668
0.594368
0.597073
0.599783
0.6025
0.605224
0.607938
0.610607
0.613198
0.615712
0.618166
0.620523
0.622681
0.624605
0.626408
0.628068
0.62928
0.630145
0.630902
0.631528
0.632112
0.632962
0.634687
0.637162
0.636589
0.630062
0.623744
0.620266
0.61309
0.602572
0.589805
0.572624
0.551178
0.525576
0.495924
0.463905
0.432289
0.403921
0.381023
0.364949
0.355977
0.353272
0.355252
0.360116
0.366321
0.372854
0.379244
0.385404
0.391423
0.3974
0.403366
0.409392
0.415469
0.421428
0.427008
0.43194
0.436195
0.439921
0.443326
0.446703
0.450403
0.454302
0.457473
0.459803
0.461551
0.46281
0.463651
0.464113
0.464192
0.463867
0.463131
0.461926
0.460236
0.458138
0.455503
0.452287
0.448828
0.44492
0.440497
0.436589
0.433009
0.429222
0.426654
0.425435
0.422787
0.419054
0.418386
0.419375
0.413966
0.403905
0.396034
0.619465
0.619472
0.61943
0.619012
0.618845
0.619061
0.619416
0.619462
0.619065
0.618297
0.617326
0.616279
0.615198
0.614072
0.612882
0.611611
0.61025
0.608801
0.607265
0.605657
0.603981
0.602248
0.600447
0.598571
0.596586
0.594433
0.592131
0.589728
0.587247
0.584695
0.58208
0.57935
0.576353
0.572434
0.567282
0.561539
0.554837
0.54727
0.539927
0.533385
0.526386
0.519553
0.5137
0.508479
0.50321
0.498229
0.495058
0.490618
0.48916
0.489699
0.488761
0.488471
0.492653
0.497489
0.500512
0.502831
0.505207
0.507768
0.51045
0.513172
0.515883
0.518546
0.52115
0.523692
0.526183
0.528637
0.531068
0.533489
0.535909
0.538338
0.540782
0.543248
0.545742
0.548268
0.550816
0.553369
0.555936
0.558529
0.561145
0.563787
0.566455
0.569146
0.571855
0.574579
0.577311
0.580046
0.582779
0.585507
0.588231
0.590954
0.593682
0.596423
0.599183
0.60197
0.604786
0.607619
0.610435
0.613195
0.61589
0.618526
0.621072
0.623433
0.62555
0.627517
0.629395
0.630921
0.631945
0.63261
0.632927
0.633027
0.633663
0.635231
0.637256
0.636554
0.630161
0.623155
0.619175
0.613367
0.603541
0.589956
0.572006
0.55018
0.524245
0.494266
0.462137
0.430658
0.402565
0.380049
0.364369
0.355691
0.353133
0.355115
0.359865
0.365888
0.372217
0.378417
0.38443
0.390375
0.396383
0.4025
0.408668
0.414902
0.421132
0.427065
0.432344
0.4369
0.440914
0.444636
0.44836
0.452397
0.456544
0.459811
0.462175
0.463909
0.465117
0.465884
0.466261
0.466249
0.46584
0.465019
0.463727
0.461979
0.459847
0.457146
0.453865
0.450404
0.44645
0.441924
0.43807
0.434619
0.430845
0.428464
0.427623
0.425236
0.421646
0.420652
0.420791
0.415129
0.406522
0.399061
0.623968
0.624081
0.624011
0.623999
0.623705
0.623239
0.622567
0.621652
0.620615
0.619576
0.61857
0.617559
0.616484
0.615309
0.614018
0.612612
0.61109
0.609454
0.607705
0.605848
0.603895
0.601868
0.599792
0.597699
0.595585
0.593404
0.591081
0.588554
0.585815
0.582917
0.579899
0.576761
0.573511
0.569959
0.565943
0.561429
0.556008
0.549794
0.543095
0.536083
0.52895
0.521722
0.515309
0.510181
0.50432
0.499955
0.496098
0.492789
0.488922
0.489386
0.49005
0.490781
0.492836
0.495229
0.497488
0.499951
0.502738
0.505732
0.508792
0.511776
0.514622
0.51731
0.519861
0.522306
0.524678
0.527003
0.529302
0.531593
0.533887
0.536195
0.538523
0.540878
0.543269
0.545705
0.548186
0.55071
0.55328
0.555896
0.558555
0.561256
0.563996
0.566772
0.569579
0.572411
0.575262
0.578126
0.581
0.583882
0.58677
0.589666
0.592576
0.595502
0.598451
0.601434
0.604454
0.607504
0.610557
0.613577
0.616539
0.619428
0.622219
0.624874
0.627362
0.629668
0.631755
0.633551
0.634979
0.635882
0.636079
0.635804
0.636093
0.637511
0.639195
0.637884
0.631413
0.624155
0.619845
0.614943
0.605055
0.59013
0.571002
0.547967
0.520934
0.490534
0.458657
0.427817
0.400513
0.378695
0.363495
0.355059
0.352568
0.35452
0.359209
0.365171
0.371436
0.37755
0.383442
0.38923
0.395064
0.401044
0.407235
0.413722
0.420422
0.426987
0.432894
0.438002
0.442556
0.446893
0.451319
0.456053
0.460669
0.464236
0.466761
0.468523
0.46966
0.470293
0.470507
0.470329
0.469744
0.468753
0.467325
0.465418
0.463117
0.460342
0.456956
0.453283
0.449285
0.444777
0.4407
0.437418
0.434256
0.432024
0.431403
0.42989
0.427108
0.42583
0.425413
0.420635
0.412485
0.404001
0.628163
0.628404
0.628762
0.628343
0.627502
0.626733
0.626155
0.625629
0.624992
0.624191
0.62324
0.622147
0.620895
0.61947
0.617874
0.616123
0.614235
0.612231
0.610128
0.60794
0.605676
0.603342
0.600943
0.598481
0.595984
0.593508
0.591028
0.588453
0.585703
0.582714
0.579482
0.576022
0.572351
0.568524
0.564537
0.560294
0.555612
0.550513
0.544725
0.53821
0.53153
0.524208
0.51781
0.511528
0.505527
0.501546
0.496849
0.493833
0.491739
0.49054
0.490117
0.490795
0.492546
0.494834
0.497262
0.499806
0.50246
0.505169
0.507854
0.510452
0.512936
0.515306
0.517575
0.519774
0.521928
0.524063
0.526197
0.528343
0.530511
0.532705
0.53493
0.537193
0.539504
0.541878
0.544325
0.546833
0.549405
0.552046
0.55476
0.557544
0.560396
0.563308
0.56627
0.56927
0.572296
0.575338
0.578387
0.581439
0.584497
0.587565
0.59065
0.593761
0.596912
0.600119
0.603393
0.606731
0.61011
0.613483
0.616802
0.620028
0.623137
0.626132
0.629033
0.631822
0.634349
0.636511
0.638448
0.640151
0.64091
0.640598
0.640286
0.641084
0.642301
0.640397
0.633282
0.625524
0.620649
0.615263
0.605108
0.589657
0.569543
0.545557
0.518078
0.487818
0.456477
0.426369
0.39976
0.378408
0.363399
0.354938
0.352312
0.354109
0.358658
0.364483
0.370578
0.376461
0.382046
0.387456
0.392899
0.398634
0.404796
0.411445
0.418655
0.426094
0.432981
0.438989
0.444391
0.44967
0.455184
0.460964
0.466254
0.470329
0.473163
0.475049
0.476181
0.476706
0.476737
0.476332
0.4755
0.47425
0.472572
0.470433
0.467904
0.464926
0.461362
0.457476
0.453321
0.448763
0.444665
0.441613
0.439063
0.437416
0.43741
0.43672
0.4345
0.43318
0.432227
0.42733
0.418924
0.410133
0.635022
0.635389
0.634747
0.633883
0.633394
0.632956
0.63233
0.631611
0.630795
0.629769
0.628458
0.626854
0.624988
0.6229
0.62063
0.618207
0.615651
0.612981
0.61022
0.607399
0.604565
0.601763
0.59904
0.596451
0.594026
0.591706
0.589448
0.5872
0.584822
0.58212
0.57898
0.575423
0.571495
0.567309
0.563029
0.558738
0.554332
0.549692
0.544478
0.538766
0.532677
0.525918
0.519745
0.513047
0.507536
0.502803
0.499425
0.494684
0.491722
0.490051
0.489713
0.490651
0.492525
0.494843
0.497197
0.499477
0.501663
0.503801
0.505909
0.508004
0.510074
0.512118
0.514133
0.51613
0.518116
0.520105
0.522103
0.524119
0.526157
0.528224
0.53033
0.532488
0.534709
0.537009
0.539393
0.541863
0.544429
0.547105
0.549895
0.552798
0.555809
0.558915
0.5621
0.565345
0.568626
0.571926
0.575228
0.578523
0.581812
0.585101
0.588403
0.591738
0.595132
0.598614
0.602211
0.605936
0.60977
0.613653
0.617492
0.621206
0.624748
0.62813
0.631381
0.634524
0.637412
0.639891
0.641864
0.643771
0.645162
0.645213
0.644744
0.645278
0.646261
0.644189
0.636852
0.628457
0.622472
0.61612
0.605452
0.589166
0.56815
0.543808
0.516442
0.486571
0.455829
0.426402
0.400314
0.379185
0.364089
0.355343
0.352383
0.353879
0.358156
0.363683
0.3694
0.374774
0.379692
0.384342
0.389091
0.39433
0.400214
0.406827
0.4146
0.423306
0.431722
0.439105
0.44569
0.452227
0.459189
0.466389
0.472749
0.477587
0.48084
0.482874
0.484
0.484431
0.484311
0.483711
0.48264
0.481118
0.479168
0.47677
0.473965
0.470748
0.467001
0.462866
0.4585
0.453907
0.449851
0.447125
0.445391
0.444672
0.44547
0.445677
0.444182
0.442947
0.44121
0.435697
0.427016
0.417256
0.642989
0.642504
0.641115
0.640452
0.63991
0.639268
0.638395
0.637188
0.635662
0.633892
0.631911
0.629716
0.627297
0.624658
0.621818
0.618802
0.615641
0.612368
0.60903
0.605676
0.602361
0.599145
0.596104
0.593297
0.590789
0.58852
0.5863
0.583996
0.581586
0.57904
0.576183
0.572881
0.569161
0.565113
0.560797
0.556386
0.551991
0.54751
0.542729
0.537562
0.531653
0.525408
0.519107
0.512539
0.506763
0.502049
0.497541
0.493168
0.490589
0.489227
0.489201
0.490218
0.491852
0.493754
0.49567
0.497529
0.499334
0.501141
0.502979
0.504859
0.506755
0.508646
0.510506
0.51233
0.514118
0.515882
0.517637
0.519403
0.521201
0.523054
0.524983
0.527003
0.529113
0.5313
0.533585
0.536016
0.538608
0.541365
0.544284
0.547356
0.550573
0.553918
0.557369
0.560896
0.564467
0.568056
0.571638
0.575199
0.578734
0.582251
0.585777
0.589351
0.593018
0.596817
0.60078
0.604924
0.609242
0.613676
0.618106
0.622423
0.626545
0.630477
0.634227
0.637849
0.641268
0.644329
0.646568
0.648237
0.64991
0.650487
0.649985
0.65021
0.650886
0.648557
0.641004
0.631869
0.624791
0.617335
0.605807
0.58871
0.567319
0.543131
0.516128
0.486754
0.456716
0.427977
0.402236
0.381042
0.365524
0.35618
0.352615
0.353577
0.357366
0.362366
0.367412
0.371909
0.375825
0.379595
0.383779
0.388632
0.394147
0.400752
0.409296
0.419665
0.43001
0.439112
0.447075
0.454935
0.463333
0.472034
0.479867
0.485844
0.489785
0.49211
0.49326
0.493553
0.493212
0.492352
0.490999
0.489172
0.486913
0.484228
0.481137
0.477646
0.47366
0.469226
0.464577
0.459898
0.455942
0.453777
0.453194
0.453601
0.455372
0.456699
0.455868
0.454349
0.452119
0.446121
0.437004
0.425897
0.647761
0.647102
0.646552
0.646389
0.64587
0.644678
0.643102
0.641336
0.639376
0.637193
0.634704
0.631803
0.628451
0.624697
0.620659
0.616471
0.612248
0.608079
0.604045
0.600219
0.596653
0.593412
0.590531
0.58793
0.585637
0.583629
0.58166
0.579524
0.577215
0.574797
0.572134
0.568945
0.565188
0.561146
0.556989
0.552787
0.548614
0.544339
0.539755
0.534688
0.529051
0.5233
0.516955
0.510862
0.505253
0.500644
0.495529
0.491612
0.489402
0.488249
0.488223
0.488974
0.490164
0.491628
0.493213
0.494887
0.496629
0.498422
0.500226
0.502002
0.503711
0.505332
0.506856
0.5083
0.509691
0.511067
0.512468
0.513932
0.51549
0.517168
0.518979
0.520921
0.522965
0.525114
0.527432
0.529943
0.532641
0.535516
0.538562
0.541771
0.545134
0.548639
0.552266
0.555992
0.559788
0.563623
0.567475
0.571332
0.575195
0.579072
0.582977
0.586937
0.590975
0.595121
0.599411
0.603886
0.608589
0.61349
0.618443
0.623302
0.627949
0.632395
0.636633
0.64079
0.644937
0.64878
0.651954
0.653817
0.655457
0.656592
0.656129
0.655813
0.655968
0.653151
0.645271
0.63541
0.627214
0.618717
0.606312
0.588644
0.567291
0.543575
0.517095
0.488372
0.459201
0.43111
0.405432
0.383776
0.367478
0.357234
0.35283
0.353075
0.356188
0.360398
0.364431
0.367761
0.370607
0.373667
0.377603
0.382477
0.388023
0.39499
0.404582
0.416705
0.429017
0.439987
0.449422
0.458593
0.468348
0.478404
0.48761
0.494731
0.499467
0.502273
0.503649
0.503951
0.503447
0.502313
0.50062
0.498418
0.495778
0.492739
0.489306
0.485465
0.481135
0.476337
0.471351
0.46661
0.463012
0.461633
0.462379
0.464187
0.466953
0.469135
0.469012
0.467087
0.464261
0.457748
0.448115
0.435969
0.654939
0.654584
0.654032
0.65321
0.651827
0.650056
0.64814
0.645998
0.643468
0.640424
0.636723
0.632348
0.627451
0.622259
0.616969
0.611719
0.60659
0.601647
0.596983
0.592701
0.5889
0.585688
0.583095
0.580901
0.578854
0.576914
0.574997
0.572961
0.570812
0.568634
0.566263
0.563423
0.56009
0.556426
0.552549
0.548602
0.544655
0.540524
0.536078
0.531248
0.526018
0.520389
0.514205
0.508438
0.503328
0.498839
0.493805
0.490312
0.488197
0.486986
0.486766
0.487208
0.488118
0.489403
0.490908
0.492564
0.494264
0.495928
0.497488
0.498914
0.500204
0.501382
0.502484
0.503552
0.504629
0.505759
0.50698
0.508324
0.509812
0.51145
0.513227
0.515133
0.517203
0.519455
0.52187
0.524449
0.527198
0.53012
0.533218
0.536487
0.539919
0.543504
0.547236
0.55111
0.5551
0.559174
0.563301
0.567474
0.571699
0.575969
0.580255
0.584542
0.588841
0.593205
0.597733
0.602523
0.607677
0.6132
0.618896
0.624505
0.6298
0.63475
0.639455
0.64416
0.649164
0.653707
0.657521
0.659994
0.661511
0.663013
0.662955
0.662203
0.661843
0.658556
0.649913
0.638824
0.629077
0.619549
0.606626
0.588976
0.568168
0.545218
0.519428
0.491496
0.463198
0.435567
0.409684
0.387201
0.369835
0.358493
0.353091
0.352431
0.354594
0.357672
0.360444
0.362646
0.364721
0.367386
0.371304
0.376605
0.382743
0.390134
0.400581
0.414249
0.428738
0.441827
0.45277
0.463236
0.474512
0.486276
0.496867
0.504752
0.50987
0.512957
0.514555
0.51496
0.514434
0.513156
0.511199
0.50864
0.505596
0.502156
0.498329
0.494091
0.48939
0.484232
0.478919
0.474157
0.471074
0.47068
0.472847
0.476127
0.479797
0.482474
0.482835
0.480493
0.476807
0.469876
0.459817
0.446969
0.662933
0.662259
0.661374
0.660208
0.658561
0.656532
0.654106
0.651161
0.647657
0.643502
0.638648
0.633266
0.627578
0.621776
0.615986
0.610258
0.604616
0.599121
0.593891
0.589044
0.584668
0.580934
0.57794
0.5754
0.572937
0.57062
0.568549
0.566552
0.564559
0.562555
0.560257
0.557432
0.554181
0.550702
0.547085
0.543411
0.539676
0.535741
0.531563
0.527073
0.522112
0.516605
0.511142
0.505939
0.501347
0.496698
0.492129
0.488952
0.486825
0.485501
0.485115
0.485355
0.486128
0.487295
0.488664
0.490123
0.49154
0.492861
0.494061
0.495155
0.496167
0.497132
0.498077
0.499026
0.5
0.501023
0.502121
0.50332
0.504645
0.506109
0.507718
0.509498
0.511482
0.513672
0.516045
0.518604
0.52137
0.524361
0.527584
0.531033
0.534692
0.53854
0.542562
0.546736
0.551029
0.555388
0.559765
0.564128
0.568471
0.572794
0.577106
0.581463
0.585942
0.590622
0.595619
0.601031
0.606905
0.613228
0.619794
0.626239
0.632261
0.637793
0.643059
0.648358
0.654191
0.659699
0.663894
0.666837
0.668378
0.669826
0.670271
0.669255
0.668488
0.665275
0.656234
0.643722
0.631817
0.620877
0.607573
0.590276
0.570362
0.548316
0.523276
0.496149
0.468553
0.441137
0.414842
0.391379
0.372733
0.360122
0.353515
0.351661
0.352549
0.354265
0.355818
0.357228
0.358964
0.361534
0.365516
0.371289
0.377898
0.385357
0.396403
0.411677
0.428795
0.444222
0.456842
0.4687
0.481563
0.495228
0.507676
0.516377
0.521487
0.524419
0.526004
0.52641
0.525809
0.52438
0.522186
0.519312
0.51591
0.512113
0.507952
0.503389
0.498359
0.49283
0.487143
0.482371
0.479971
0.480811
0.484424
0.489011
0.493384
0.496217
0.496528
0.49367
0.488778
0.481372
0.471159
0.458056
0.671681
0.671126
0.670183
0.668673
0.666515
0.663906
0.660813
0.657227
0.653067
0.648168
0.64265
0.636783
0.630687
0.624489
0.618284
0.612072
0.605868
0.599762
0.593902
0.588429
0.583451
0.579106
0.575458
0.572405
0.569675
0.567057
0.564548
0.56204
0.559542
0.557099
0.554453
0.551416
0.548072
0.544573
0.541049
0.537573
0.534101
0.530512
0.526723
0.522608
0.518058
0.513187
0.508473
0.503783
0.49923
0.494485
0.4904
0.487374
0.485223
0.483839
0.48333
0.483399
0.484008
0.484957
0.486078
0.487267
0.488436
0.489567
0.490649
0.491681
0.492656
0.493566
0.494405
0.495172
0.495878
0.496555
0.49726
0.498063
0.499025
0.500193
0.50159
0.503204
0.505033
0.507128
0.509504
0.512149
0.51506
0.518242
0.521708
0.525459
0.529481
0.533744
0.538202
0.542801
0.547481
0.552178
0.556825
0.561368
0.565795
0.570176
0.574638
0.57932
0.58434
0.589761
0.595611
0.601947
0.608675
0.61565
0.622736
0.629633
0.636175
0.642248
0.647817
0.653319
0.659207
0.665277
0.670204
0.673624
0.675534
0.67694
0.677709
0.676657
0.675465
0.672603
0.664079
0.651142
0.637809
0.625233
0.610957
0.593686
0.574546
0.553215
0.528767
0.502306
0.475202
0.447806
0.420979
0.396485
0.376407
0.362305
0.35421
0.350857
0.35024
0.350568
0.351157
0.352191
0.353923
0.356344
0.360027
0.366106
0.373341
0.381159
0.393
0.410141
0.42979
0.447249
0.461644
0.475002
0.489302
0.50481
0.519554
0.529329
0.534182
0.536662
0.537982
0.538289
0.537582
0.535963
0.533482
0.53026
0.526517
0.522431
0.518027
0.513208
0.507852
0.501883
0.495763
0.491123
0.489705
0.491952
0.496892
0.50251
0.507286
0.509968
0.509709
0.506109
0.499876
0.491587
0.481114
0.468087
0.681502
0.680749
0.679536
0.677669
0.675181
0.672342
0.668965
0.664947
0.660186
0.654614
0.648485
0.642046
0.63542
0.628722
0.621995
0.615225
0.60844
0.601751
0.595333
0.589335
0.583836
0.578928
0.574703
0.571161
0.568082
0.565184
0.562361
0.559514
0.556588
0.55358
0.550469
0.547265
0.544018
0.540786
0.537597
0.534441
0.531234
0.527831
0.524136
0.520057
0.515534
0.510851
0.506074
0.501343
0.496769
0.492288
0.48846
0.485531
0.483374
0.481978
0.481355
0.481269
0.481708
0.482459
0.483413
0.484484
0.485601
0.486724
0.487799
0.488779
0.489618
0.490289
0.490781
0.491114
0.491343
0.491566
0.491897
0.492435
0.493237
0.49433
0.495725
0.497382
0.499278
0.501479
0.503985
0.506757
0.509785
0.513081
0.516671
0.520576
0.524794
0.5293
0.534045
0.538967
0.543997
0.549063
0.554095
0.559047
0.563932
0.568853
0.573977
0.579415
0.585216
0.591399
0.597879
0.604626
0.611586
0.618681
0.62593
0.63338
0.640818
0.647558
0.653092
0.658318
0.663983
0.67008
0.675878
0.680144
0.682552
0.684038
0.68504
0.684208
0.682544
0.679848
0.672322
0.659964
0.64624
0.632347
0.6169
0.59954
0.580947
0.560057
0.535969
0.509975
0.483199
0.455715
0.428283
0.402701
0.381123
0.365272
0.355385
0.35028
0.348047
0.347091
0.346985
0.347923
0.349699
0.351784
0.355104
0.361583
0.370042
0.378752
0.391466
0.410517
0.432363
0.451517
0.467524
0.482476
0.497821
0.514608
0.531689
0.543436
0.547877
0.549545
0.55031
0.550299
0.549446
0.547706
0.545012
0.541493
0.537451
0.533125
0.528522
0.523462
0.517725
0.511215
0.50475
0.500521
0.500281
0.503921
0.509971
0.516285
0.521055
0.523082
0.521669
0.516865
0.509239
0.499838
0.488996
0.476203
0.692092
0.691284
0.689974
0.687899
0.68508
0.681758
0.677822
0.673201
0.667801
0.661665
0.655019
0.648035
0.640861
0.633647
0.626477
0.619367
0.612323
0.60541
0.598741
0.592413
0.586488
0.581073
0.576263
0.572051
0.568336
0.565003
0.561888
0.558864
0.555844
0.552766
0.549616
0.546416
0.543187
0.539973
0.536755
0.533413
0.529856
0.525989
0.521764
0.517175
0.512328
0.507399
0.502435
0.497836
0.493692
0.489715
0.486139
0.483394
0.481305
0.479946
0.479242
0.479063
0.479391
0.480033
0.480923
0.481961
0.483055
0.484109
0.485031
0.485763
0.486282
0.486594
0.486727
0.486746
0.486754
0.486865
0.487151
0.487651
0.488393
0.489412
0.49074
0.492433
0.494523
0.49689
0.499477
0.502285
0.505333
0.508658
0.512311
0.516324
0.520702
0.525415
0.530407
0.535614
0.540968
0.546397
0.551842
0.557294
0.562795
0.568366
0.574112
0.580104
0.586295
0.592669
0.599185
0.605816
0.612667
0.619948
0.627888
0.636605
0.645411
0.652814
0.658275
0.66328
0.669182
0.675584
0.682023
0.687146
0.690034
0.691303
0.69213
0.691559
0.689499
0.686612
0.680139
0.669058
0.655541
0.640621
0.624411
0.607301
0.589242
0.568695
0.544862
0.519193
0.492643
0.465028
0.436964
0.410263
0.38713
0.369322
0.357366
0.350331
0.34644
0.344329
0.343717
0.344627
0.346332
0.348163
0.351371
0.358558
0.368487
0.378102
0.391743
0.412669
0.436508
0.457315
0.474771
0.491255
0.507529
0.524928
0.543607
0.557815
0.562427
0.563026
0.56306
0.562495
0.561292
0.559387
0.556533
0.55279
0.548522
0.544033
0.539289
0.53398
0.527832
0.520803
0.514182
0.510561
0.511539
0.516476
0.523384
0.529916
0.534096
0.534815
0.531609
0.524965
0.515686
0.505062
0.493905
0.481639
0.703619
0.702732
0.70118
0.698791
0.695625
0.691915
0.687558
0.682439
0.676478
0.669713
0.662335
0.654565
0.646625
0.638716
0.630969
0.623428
0.616092
0.608981
0.602148
0.595675
0.589637
0.584062
0.57895
0.574291
0.57006
0.566199
0.562588
0.559055
0.555444
0.551716
0.5479
0.544046
0.540165
0.536269
0.532343
0.52835
0.52423
0.519908
0.515403
0.510782
0.506062
0.501392
0.497204
0.493637
0.490254
0.486765
0.483602
0.481121
0.479177
0.477885
0.477141
0.476914
0.477155
0.477713
0.478533
0.479491
0.480465
0.48132
0.48198
0.482439
0.482739
0.48293
0.48305
0.483131
0.483207
0.483303
0.483444
0.483676
0.484079
0.484769
0.485898
0.48754
0.489626
0.49202
0.49467
0.497576
0.500744
0.504215
0.508059
0.512334
0.517052
0.52218
0.527632
0.53332
0.539151
0.545047
0.55096
0.556879
0.562832
0.568804
0.574836
0.581017
0.587394
0.593982
0.60078
0.607803
0.615208
0.623234
0.632048
0.641622
0.651154
0.658999
0.664623
0.669689
0.675842
0.682484
0.68891
0.694423
0.697803
0.699011
0.699355
0.698796
0.696491
0.69318
0.687593
0.677822
0.664702
0.649444
0.633183
0.616577
0.599088
0.578936
0.555384
0.529978
0.50361
0.475884
0.447233
0.419443
0.394731
0.374865
0.360626
0.351505
0.34591
0.342723
0.341665
0.342405
0.344005
0.345791
0.349033
0.357299
0.368673
0.379251
0.394056
0.416751
0.442195
0.464449
0.483112
0.500817
0.518346
0.53644
0.555883
0.571678
0.5773
0.576876
0.576194
0.575022
0.573255
0.571025
0.567934
0.56396
0.559542
0.554988
0.550135
0.544586
0.538042
0.530615
0.524031
0.521169
0.523371
0.529408
0.536796
0.542973
0.545879
0.544551
0.538864
0.529731
0.518428
0.506501
0.495052
0.483621
0.716229
0.715274
0.713556
0.71099
0.707574
0.703472
0.698661
0.693054
0.686582
0.6793
0.671368
0.662962
0.654267
0.64548
0.636794
0.628367
0.620295
0.612632
0.605411
0.598658
0.592408
0.586692
0.581486
0.576722
0.572314
0.568123
0.563979
0.559737
0.555312
0.550674
0.545829
0.540851
0.535823
0.530831
0.525939
0.521194
0.516572
0.512066
0.507724
0.503584
0.499701
0.496254
0.493268
0.490418
0.48735
0.484179
0.481398
0.479112
0.477291
0.476019
0.475216
0.474906
0.475017
0.475448
0.476145
0.476965
0.477763
0.478405
0.47887
0.479227
0.479558
0.479878
0.480116
0.480177
0.480008
0.479633
0.479171
0.478806
0.478728
0.479099
0.480056
0.48162
0.483667
0.486182
0.489152
0.492498
0.496143
0.500063
0.504317
0.509002
0.514156
0.519755
0.525725
0.531975
0.538404
0.544951
0.55157
0.558189
0.564731
0.57122
0.577723
0.584349
0.591224
0.598406
0.60589
0.613683
0.621887
0.630604
0.63983
0.649379
0.658543
0.666247
0.672238
0.67778
0.684014
0.690449
0.696242
0.701332
0.704959
0.706651
0.706842
0.706175
0.703979
0.700374
0.695275
0.686623
0.674086
0.659111
0.643259
0.627211
0.610277
0.590617
0.567448
0.542304
0.516122
0.488369
0.459266
0.430504
0.404282
0.382385
0.36578
0.354367
0.346978
0.342655
0.341064
0.341503
0.343128
0.34501
0.34852
0.357951
0.370697
0.382523
0.398714
0.422861
0.449411
0.472702
0.492289
0.510804
0.529696
0.549069
0.568938
0.58504
0.591631
0.590804
0.589557
0.58785
0.585356
0.582618
0.57922
0.575034
0.570532
0.565956
0.561005
0.555235
0.548321
0.540631
0.534287
0.532317
0.535664
0.542486
0.549862
0.555031
0.555906
0.551704
0.54275
0.530484
0.516754
0.503462
0.491838
0.48155
0.730066
0.729083
0.72723
0.724455
0.720767
0.716356
0.711226
0.705311
0.69857
0.691044
0.682833
0.674085
0.664964
0.655659
0.646378
0.637329
0.628684
0.620549
0.612967
0.60596
0.59957
0.593832
0.588701
0.584034
0.579612
0.575221
0.570709
0.565984
0.560989
0.555705
0.55014
0.544314
0.538306
0.532263
0.52634
0.520659
0.515296
0.510342
0.505867
0.501879
0.498353
0.495194
0.492173
0.489063
0.485844
0.482784
0.480124
0.477855
0.476023
0.474657
0.47372
0.473243
0.473151
0.473385
0.473893
0.474529
0.475134
0.475592
0.475932
0.47626
0.476632
0.476944
0.476987
0.476612
0.475815
0.474746
0.473677
0.47291
0.472681
0.473101
0.474136
0.475709
0.477827
0.480598
0.484053
0.488068
0.492465
0.49711
0.502013
0.507265
0.512946
0.519043
0.525482
0.532155
0.538974
0.545941
0.553075
0.560325
0.567578
0.574782
0.581971
0.589262
0.596781
0.604575
0.612616
0.620877
0.629412
0.638274
0.647418
0.65672
0.665713
0.673524
0.679859
0.685859
0.692318
0.698602
0.70399
0.708595
0.712135
0.714148
0.71458
0.71387
0.711935
0.708433
0.703553
0.695851
0.684247
0.669956
0.654629
0.63904
0.622618
0.603572
0.580933
0.556104
0.530152
0.502525
0.473194
0.443684
0.416132
0.392316
0.37337
0.35956
0.350215
0.344547
0.342245
0.342351
0.344171
0.346315
0.350367
0.360857
0.3748
0.387977
0.405697
0.431002
0.458136
0.481999
0.502387
0.521563
0.541458
0.562079
0.582406
0.598346
0.605125
0.604449
0.60286
0.60085
0.597609
0.594139
0.590363
0.58602
0.581494
0.576912
0.571885
0.565927
0.558696
0.550851
0.544918
0.543911
0.54823
0.555447
0.562253
0.565683
0.563676
0.555724
0.542696
0.526675
0.510137
0.495407
0.48377
0.474971
0.745977
0.744934
0.742912
0.739977
0.736119
0.731452
0.726049
0.719898
0.712972
0.705305
0.697002
0.688188
0.678975
0.669525
0.660065
0.650844
0.642088
0.633942
0.626446
0.619587
0.613366
0.607774
0.602745
0.598131
0.593776
0.589518
0.585185
0.580653
0.575788
0.570426
0.564463
0.557924
0.550967
0.543807
0.536669
0.529748
0.5232
0.517148
0.511652
0.506683
0.502161
0.497959
0.493954
0.490113
0.486509
0.483263
0.48041
0.477949
0.475915
0.474299
0.473098
0.472323
0.471907
0.471812
0.471998
0.472356
0.472702
0.472927
0.473082
0.473265
0.473499
0.473572
0.473228
0.472368
0.471076
0.469601
0.468318
0.467574
0.467538
0.468223
0.469511
0.471274
0.473624
0.476683
0.480537
0.48518
0.490327
0.495695
0.501254
0.50712
0.513411
0.520144
0.527216
0.534462
0.541758
0.549048
0.556335
0.563643
0.570987
0.578355
0.58577
0.593329
0.601158
0.609309
0.617736
0.626386
0.635298
0.64452
0.653946
0.66343
0.672808
0.681358
0.688338
0.69444
0.70071