/*--------------------------------*- C++ -*----------------------------------*\
  =========                 |
  \\      /  F ield         | OpenFOAM: The Open Source CFD Toolbox
   \\    /   O peration     | Website:  https://openfoam.org
    \\  /    A nd           | Version:  10
     \\/     M anipulation  |
\*---------------------------------------------------------------------------*/
FoamFile
{
    format      ascii;
    class       volScalarField;
    location    "6250";
    object      p;
}
// * * * * * * * * * * * * * * * * * * * * * * * * * * * * * * * * * * * * * //

dimensions      [1 -1 -2 0 0 0 0];

internalField   nonuniform List<scalar> 
3200
(
109.993
110.005
110.027
110.059
110.101
110.152
110.212
110.28
110.356
110.439
110.53
110.627
110.73
110.84
110.955
111.076
111.201
111.331
111.466
111.605
111.748
111.895
112.045
112.199
112.355
112.514
112.676
112.839
113.004
113.17
113.336
113.501
113.663
113.821
113.97
114.107
114.226
114.321
114.381
114.398
107.517
107.528
107.55
107.583
107.624
107.675
107.735
107.803
107.879
107.962
108.052
108.149
108.253
108.362
108.477
108.597
108.723
108.853
108.988
109.126
109.269
109.416
109.566
109.719
109.876
110.035
110.197
110.362
110.53
110.7
110.872
111.047
111.224
111.404
111.585
111.767
111.947
112.119
112.271
112.382
105.017
105.028
105.05
105.082
105.124
105.175
105.234
105.302
105.377
105.46
105.55
105.647
105.75
105.859
105.973
106.093
106.218
106.348
106.482
106.621
106.763
106.91
107.059
107.212
107.368
107.527
107.69
107.855
108.024
108.197
108.374
108.558
108.75
108.954
109.175
109.42
109.704
110.045
110.477
111.053
102.493
102.504
102.526
102.558
102.599
102.65
102.709
102.776
102.851
102.933
103.023
103.119
103.221
103.33
103.444
103.563
103.688
103.817
103.951
104.089
104.231
104.376
104.525
104.677
104.832
104.99
105.15
105.313
105.479
105.648
105.82
105.996
106.177
106.365
106.561
106.767
106.984
107.214
107.454
107.703
99.946
99.9571
99.9786
100.01
100.051
100.101
100.16
100.226
100.301
100.382
100.471
100.566
100.668
100.776
100.889
101.008
101.132
101.261
101.394
101.531
101.672
101.817
101.965
102.116
102.269
102.424
102.582
102.741
102.9
103.061
103.221
103.381
103.54
103.698
103.852
104.001
104.143
104.273
104.386
104.483
97.3756
97.3865
97.4077
97.4389
97.4793
97.5287
97.5865
97.6523
97.7259
97.8067
97.8945
97.989
98.0898
98.1965
98.309
98.4269
98.55
98.6779
98.8103
98.9469
99.0875
99.2316
99.379
99.5291
99.6815
99.8357
99.991
100.147
100.302
100.456
100.608
100.756
100.898
101.033
101.158
101.271
101.369
101.448
101.506
101.541
94.7821
94.7928
94.8138
94.8444
94.8842
94.9328
94.9897
95.0546
95.1271
95.2068
95.2934
95.3867
95.4862
95.5918
95.7031
95.82
95.942
96.069
96.2007
96.3368
96.477
96.621
96.7685
96.919
97.072
97.227
97.3833
97.5401
97.6964
97.8509
98.0021
98.1484
98.2877
98.4175
98.535
98.6375
98.7216
98.7844
98.8231
98.8369
92.166
92.1766
92.1971
92.2271
92.2661
92.3138
92.3697
92.4333
92.5045
92.5828
92.6679
92.7597
92.8577
92.9617
93.0715
93.1869
93.3076
93.4334
93.5642
93.6997
93.8397
93.9839
94.1321
94.2841
94.4395
94.5978
94.7585
94.9211
95.0847
95.2482
95.4104
95.5695
95.7234
95.8694
96.0042
96.1241
96.2247
96.3011
96.3489
96.3663
89.5278
89.5381
89.5581
89.5874
89.6256
89.6721
89.7266
89.7888
89.8584
89.935
90.0183
90.108
90.2041
90.3061
90.4139
90.5273
90.6462
90.7704
90.8998
91.0342
91.1735
91.3177
91.4667
91.6204
91.7787
91.9417
92.1091
92.2809
92.4569
92.6367
92.82
93.0058
93.193
93.3795
93.5622
93.7368
93.8964
94.0318
94.1308
94.1844
86.868
86.878
86.8975
86.9259
86.9629
87.0081
87.0611
87.1216
87.1892
87.2637
87.3447
87.4321
87.5256
87.6251
87.7303
87.8411
87.9574
88.0791
88.2061
88.3384
88.476
88.619
88.7675
88.9216
89.0816
89.2479
89.4208
89.601
89.7893
89.9865
90.194
90.413
90.6453
90.8924
91.1558
91.4357
91.7297
92.0296
92.3151
92.579
84.1872
84.1969
84.2157
84.2431
84.2789
84.3226
84.3738
84.4322
84.4975
84.5695
84.6479
84.7324
84.8228
84.919
85.0208
85.1282
85.2409
85.3589
85.4823
85.611
85.7452
85.8848
86.0303
86.1818
86.3398
86.5049
86.6778
86.8596
87.0516
87.2558
87.4748
87.7121
87.9731
88.2653
88.6003
88.9958
89.4799
90.0977
90.9236
101.236
81.4861
81.4954
81.5134
81.5398
81.5742
81.6161
81.6653
81.7214
81.7841
81.8532
81.9284
82.0095
82.0962
82.1885
82.2862
82.3891
82.4972
82.6103
82.7286
82.8519
82.9804
83.1142
83.2534
83.3983
83.5493
83.7069
83.8715
84.0441
84.2255
84.4168
84.6195
84.8352
85.0655
85.3123
85.5766
85.8584
86.1539
86.4529
86.7695
106.146
78.7656
78.7744
78.7916
78.8168
78.8496
78.8896
78.9365
78.99
79.0498
79.1156
79.1872
79.2644
79.347
79.4347
79.5274
79.625
79.7275
79.8345
79.9462
80.0625
80.1834
80.3088
80.4389
80.5738
80.7135
80.8582
81.0081
81.1635
81.3244
81.491
81.6633
81.8411
82.0237
82.2099
82.3977
82.5837
82.763
82.9287
83.1225
94.3846
76.0264
76.0348
76.0511
76.075
76.1061
76.1441
76.1885
76.2391
76.2957
76.358
76.4256
76.4985
76.5763
76.6589
76.7461
76.8377
76.9336
77.0337
77.1378
77.2457
77.3575
77.473
77.5921
77.7147
77.8406
77.9698
78.1021
78.2372
78.3748
78.5143
78.6552
78.7964
78.9368
79.0748
79.2082
79.3344
79.4507
79.5535
79.6839
86.7308
73.2696
73.2775
73.2929
73.3154
73.3447
73.3804
73.4222
73.4698
73.523
73.5814
73.6448
73.713
73.7858
73.8629
73.9441
74.0292
74.1181
74.2106
74.3064
74.4054
74.5074
74.6122
74.7195
74.8291
74.9408
75.0541
75.1688
75.2843
75.4
75.5154
75.6295
75.7414
75.85
75.9541
76.052
76.1425
76.2238
76.2946
76.3915
81.3952
70.4962
70.5036
70.518
70.5391
70.5665
70.5998
70.6389
70.6833
70.7329
70.7873
70.8463
70.9097
70.9771
71.0485
71.1235
71.2019
71.2836
71.3682
71.4556
71.5455
71.6377
71.7318
71.8276
71.9247
72.0229
72.1216
72.2204
72.3187
72.416
72.5117
72.6049
72.6949
72.7808
72.8618
72.937
73.0054
73.0663
73.1191
73.1973
77.0277
67.7072
67.7141
67.7275
67.7471
67.7725
67.8035
67.8397
67.8809
67.9268
67.9772
68.0317
68.0901
68.1522
68.2177
68.2865
68.3582
68.4326
68.5095
68.5887
68.6697
68.7525
68.8366
68.9217
69.0076
69.0937
69.1796
69.265
69.3493
69.4319
69.5123
69.5899
69.6641
69.7342
69.7996
69.8598
69.9142
69.9625
70.0043
70.0706
73.1475
64.9037
64.9101
64.9225
64.9405
64.964
64.9926
65.026
65.0639
65.1061
65.1523
65.2023
65.2558
65.3126
65.3724
65.435
65.5001
65.5676
65.6371
65.7084
65.7812
65.8553
65.9303
66.0059
66.0818
66.1576
66.233
66.3075
66.3807
66.452
66.5212
66.5875
66.6507
66.71
66.7652
66.8157
66.8612
66.9014
66.9361
66.9946
69.5189
62.0869
62.0927
62.1041
62.1206
62.1422
62.1683
62.1989
62.2336
62.2721
62.3143
62.3598
62.4085
62.46
62.5142
62.5709
62.6297
62.6905
62.753
62.817
62.8822
62.9484
63.0153
63.0826
63.15
63.2173
63.2841
63.35
63.4147
63.4779
63.5391
63.5979
63.654
63.7067
63.7558
63.8007
63.8411
63.8765
63.9067
63.9597
66.0032
59.2578
59.2631
59.2734
59.2885
59.3081
59.3319
59.3597
59.3911
59.4261
59.4643
59.5055
59.5494
59.5959
59.6448
59.6957
59.7485
59.803
59.859
59.9162
59.9745
60.0335
60.0932
60.1532
60.2135
60.2736
60.3334
60.3927
60.4512
60.5086
60.5647
60.6191
60.6716
60.7216
60.7687
60.8123
60.8519
60.8866
60.9156
60.9667
62.5906
56.4174
56.4223
56.4316
56.4453
56.4629
56.4844
56.5095
56.5378
56.5693
56.6036
56.6406
56.68
56.7217
56.7654
56.8109
56.858
56.9066
56.9564
57.0073
57.0591
57.1117
57.1648
57.2183
57.2721
57.3261
57.3801
57.4341
57.4878
57.5412
57.5943
57.6468
57.6986
57.7496
57.7994
57.8474
57.893
57.9349
57.9715
58.0411
59.4913
53.567
53.5713
53.5797
53.592
53.6078
53.6271
53.6495
53.6748
53.7029
53.7336
53.7665
53.8016
53.8386
53.8773
53.9176
53.9593
54.0023
54.0463
54.0912
54.1369
54.1833
54.2303
54.2777
54.3256
54.3738
54.4224
54.4714
54.5208
54.5707
54.6214
54.6729
54.7255
54.7797
54.8357
54.894
54.9548
55.0183
55.0841
55.2703
56.689
50.7075
50.7114
50.7188
50.7297
50.7438
50.7609
50.7808
50.8033
50.8281
50.8552
50.8843
50.9152
50.9477
50.9818
51.0171
51.0536
51.0912
51.1296
51.1688
51.2086
51.2491
51.29
51.3314
51.3733
51.4156
51.4584
51.5019
51.5461
51.5913
51.6379
51.6863
51.7372
51.7914
51.8502
51.9152
51.989
52.0753
52.1792
52.7681
54.0334
47.84
47.8433
47.8499
47.8595
47.8719
47.887
47.9044
47.9242
47.946
47.9696
47.995
48.0219
48.0503
48.0798
48.1104
48.1419
48.1743
48.2073
48.2409
48.2751
48.3096
48.3445
48.3797
48.4153
48.4511
48.4874
48.5242
48.5615
48.5997
48.6389
48.6795
48.722
48.7669
48.8148
48.8666
48.9235
48.9865
49.057
49.7955
51.1744
44.9652
44.9682
44.974
44.9823
44.9931
45.0062
45.0214
45.0386
45.0574
45.0779
45.0998
45.123
45.1472
45.1725
45.1986
45.2254
45.2527
45.2806
45.3088
45.3373
45.366
45.3948
45.4237
45.4526
45.4816
45.5107
45.5397
45.5689
45.5982
45.6276
45.6572
45.687
45.7169
45.7469
45.7767
45.8055
45.8326
45.8561
46.0622
47.9827
42.0843
42.0869
42.0918
42.0991
42.1084
42.1197
42.1327
42.1474
42.1635
42.181
42.1996
42.2192
42.2397
42.2609
42.2827
42.305
42.3277
42.3505
42.3735
42.3966
42.4196
42.4424
42.4651
42.4874
42.5095
42.5311
42.5522
42.5728
42.5928
42.612
42.6304
42.6476
42.6634
42.6774
42.689
42.6974
42.7018
42.7008
42.693
44.9269
39.198
39.2002
39.2044
39.2106
39.2185
39.2281
39.2391
39.2516
39.2652
39.2798
39.2954
39.3117
39.3287
39.3461
39.364
39.382
39.4002
39.4184
39.4365
39.4544
39.472
39.4892
39.5059
39.522
39.5374
39.5519
39.5656
39.5783
39.5897
39.5998
39.6084
39.6152
39.6199
39.6223
39.6218
39.6182
39.6108
39.5994
39.5833
41.9435
36.3071
36.3089
36.3125
36.3177
36.3243
36.3323
36.3416
36.3519
36.3632
36.3753
36.388
36.4013
36.4151
36.4291
36.4432
36.4574
36.4716
36.4855
36.4991
36.5122
36.5249
36.5369
36.5481
36.5585
36.5679
36.5761
36.5832
36.5889
36.5931
36.5957
36.5964
36.5952
36.5917
36.5858
36.5774
36.5662
36.5522
36.5353
36.5155
38.8587
33.4123
33.4138
33.4168
33.4211
33.4266
33.4332
33.4408
33.4492
33.4584
33.4681
33.4784
33.4889
33.4997
33.5106
33.5215
33.5322
33.5427
33.5528
33.5624
33.5713
33.5796
33.587
33.5934
33.5988
33.603
33.6059
33.6073
33.6073
33.6056
33.6021
33.5966
33.5892
33.5795
33.5676
33.5533
33.5365
33.5172
33.4954
33.4712
35.4726
30.5143
30.5156
30.518
30.5215
30.5259
30.5313
30.5374
30.5441
30.5514
30.5591
30.5671
30.5753
30.5835
30.5917
30.5997
30.6073
30.6146
30.6213
30.6274
30.6328
30.6372
30.6407
30.6431
30.6443
30.6441
30.6426
30.6395
30.6348
30.6283
30.6201
30.6099
30.5977
30.5835
30.5671
30.5484
30.5273
30.5036
30.477
30.4469
31.3051
27.6137
27.6147
27.6166
27.6194
27.623
27.6272
27.632
27.6373
27.643
27.6489
27.6549
27.661
27.667
27.6728
27.6783
27.6834
27.688
27.6919
27.6951
27.6974
27.6988
27.699
27.6981
27.6959
27.6923
27.6872
27.6805
27.6721
27.6621
27.6502
27.6364
27.6208
27.6034
27.5841
27.563
27.5401
27.5154
27.4889
27.4602
27.4509
24.711
24.7118
24.7133
24.7155
24.7182
24.7215
24.7252
24.7292
24.7335
24.7379
24.7423
24.7466
24.7508
24.7546
24.7581
24.7611
24.7635
24.7652
24.766
24.766
24.7649
24.7626
24.7592
24.7544
24.7482
24.7404
24.731
24.7199
24.707
24.6924
24.6758
24.6575
24.6374
24.6157
24.5927
24.5688
24.5445
24.5207
24.4982
24.4919
21.8066
21.8072
21.8084
21.81
21.8122
21.8146
21.8174
21.8204
21.8235
21.8266
21.8296
21.8326
21.8352
21.8375
21.8394
21.8407
21.8414
21.8414
21.8405
21.8387
21.8359
21.8319
21.8267
21.8201
21.8121
21.8026
21.7914
21.7785
21.7637
21.747
21.7282
21.7072
21.6841
21.6589
21.6317
21.6029
21.5735
21.5455
21.5226
21.5207
18.901
18.9014
18.9023
18.9035
18.9051
18.9069
18.9089
18.911
18.9132
18.9153
18.9173
18.9191
18.9206
18.9218
18.9225
18.9226
18.9221
18.9209
18.9188
18.9159
18.912
18.9069
18.9007
18.8933
18.8844
18.8741
18.8621
18.8485
18.833
18.8154
18.7955
18.7731
18.7477
18.7186
18.6849
18.6449
18.5962
18.5345
18.4526
18.3855
15.9943
15.9947
15.9953
15.9962
15.9973
15.9986
16
16.0015
16.0029
16.0043
16.0055
16.0065
16.0071
16.0075
16.0073
16.0067
16.0055
16.0036
16.0009
15.9974
15.993
15.9876
15.9812
15.9736
15.9648
15.9547
15.9431
15.9301
15.9154
15.8991
15.8808
15.8605
15.8381
15.8133
15.786
15.7561
15.724
15.6904
15.6572
15.6288
13.087
13.0873
13.0877
13.0883
13.0891
13.09
13.0909
13.0919
13.0928
13.0936
13.0942
13.0947
13.0948
13.0946
13.094
13.093
13.0914
13.0892
13.0864
13.0829
13.0786
13.0735
13.0674
13.0604
13.0524
13.0434
13.0332
13.0218
13.0093
12.9955
12.9804
12.9641
12.9465
12.9278
12.9082
12.8879
12.8674
12.8473
12.8283
12.8114
10.1792
10.1794
10.1797
10.1801
10.1806
10.1812
10.1818
10.1824
10.1829
10.1833
10.1836
10.1837
10.1836
10.1831
10.1824
10.1812
10.1797
10.1776
10.175
10.1719
10.1681
10.1637
10.1585
10.1527
10.146
10.1386
10.1304
10.1213
10.1114
10.1007
10.0893
10.0771
10.0644
10.0511
10.0376
10.024
10.0106
9.99768
9.98555
9.97447
7.27108
7.27118
7.27137
7.27164
7.27196
7.27231
7.27267
7.273
7.27328
7.27349
7.27357
7.27351
7.27326
7.2728
7.27209
7.27109
7.26978
7.26811
7.26606
7.26359
7.26068
7.2573
7.25343
7.24904
7.24412
7.23867
7.23268
7.22616
7.21913
7.21163
7.20369
7.19539
7.18681
7.17804
7.16921
7.16045
7.15189
7.14368
7.13595
7.12879
4.36273
4.36278
4.36289
4.36303
4.3632
4.36339
4.36357
4.36374
4.36387
4.36395
4.36395
4.36386
4.36366
4.36332
4.36283
4.36216
4.3613
4.36022
4.35891
4.35734
4.35552
4.35341
4.351
4.3483
4.34529
4.34197
4.33836
4.33445
4.33027
4.32583
4.32119
4.31637
4.31144
4.30644
4.30144
4.2965
4.2917
4.2871
4.28275
4.2787
1.45425
1.45427
1.4543
1.45435
1.4544
1.45446
1.45452
1.45457
1.45461
1.45463
1.45462
1.45458
1.4545
1.45438
1.4542
1.45397
1.45367
1.4533
1.45285
1.45231
1.45169
1.45097
1.45016
1.44925
1.44824
1.44713
1.44592
1.44462
1.44323
1.44177
1.44024
1.43866
1.43705
1.43543
1.4338
1.43221
1.43066
1.42917
1.42777
1.42645
114.363
114.268
114.122
113.937
113.725
113.496
113.257
113.014
112.771
112.53
112.293
112.063
111.838
111.621
111.41
111.206
111.009
110.819
110.636
110.46
110.291
110.128
109.973
109.824
109.682
109.548
109.42
109.3
109.187
109.082
108.985
108.896
108.815
108.743
108.68
108.626
108.582
108.548
108.525
108.513
112.41
112.209
111.947
111.661
111.37
111.083
110.804
110.534
110.275
110.025
109.784
109.552
109.328
109.112
108.903
108.702
108.507
108.32
108.139
107.965
107.798
107.637
107.484
107.336
107.196
107.063
106.936
106.817
106.705
106.601
106.504
106.416
106.335
106.264
106.201
106.148
106.104
106.071
106.048
106.036
113.419
110.625
109.923
109.383
108.947
108.577
108.253
107.961
107.691
107.439
107.2
106.972
106.754
106.544
106.341
106.146
105.957
105.775
105.599
105.429
105.266
105.109
104.958
104.814
104.676
104.545
104.421
104.304
104.194
104.091
103.996
103.909
103.829
103.759
103.697
103.644
103.601
103.568
103.546
103.534
116.062
106.849
106.558
106.268
105.984
105.712
105.452
105.206
104.97
104.744
104.526
104.316
104.113
103.916
103.725
103.54
103.361
103.186
103.018
102.854
102.697
102.545
102.399
102.259
102.125
101.997
101.876
101.761
101.654
101.553
101.46
101.375
101.297
101.228
101.167
101.116
101.073
101.041
101.019
101.007
107.319
103.336
103.21
103.065
102.9
102.722
102.538
102.351
102.162
101.973
101.786
101.601
101.419
101.24
101.064
100.892
100.723
100.559
100.399
100.244
100.093
99.9474
99.8069
99.6719
99.5426
99.4191
99.3018
99.1907
99.0863
98.9887
98.8981
98.815
98.7396
98.6721
98.6131
98.5627
98.5215
98.4898
98.4682
98.4571
101.851
100.134
100.07
99.9856
99.881
99.7598
99.6256
99.4817
99.3305
99.1743
99.0148
98.8534
98.6912
98.5294
98.3686
98.2095
98.0527
97.8988
97.748
97.6009
97.4578
97.319
97.1849
97.0556
96.9315
96.8128
96.6998
96.5928
96.4921
96.3978
96.3104
96.23
96.157
96.0917
96.0345
95.9857
95.9458
95.9151
95.8941
95.8833
98.8224
97.1664
97.1143
97.0496
96.9681
96.8717
96.7624
96.6424
96.5137
96.3782
96.2374
96.093
95.9462
95.7982
95.6499
95.5022
95.3558
95.2114
95.0694
94.9304
94.7947
94.6629
94.5351
94.4119
94.2933
94.1798
94.0717
93.9692
93.8725
93.782
93.698
93.6207
93.5505
93.4877
93.4326
93.3856
93.3471
93.3176
93.2973
93.287
96.3489
94.3491
94.2936
94.2298
94.1516
94.0604
93.9578
93.8456
93.7252
93.5985
93.4668
93.3315
93.1937
93.0546
92.915
92.7758
92.6376
92.5011
92.3667
92.235
92.1064
91.9813
91.8599
91.7427
91.6299
91.5219
91.4188
91.321
91.2288
91.1424
91.0621
90.9882
90.9211
90.861
90.8082
90.7633
90.7264
90.6981
90.6787
90.6688
94.1712
91.6531
91.5838
91.508
91.4182
91.3168
91.2059
91.0875
90.9634
90.8349
90.7034
90.5699
90.4353
90.3003
90.1658
90.0322
89.9
89.7698
89.642
89.5168
89.3947
89.276
89.1609
89.0497
88.9428
88.8403
88.7425
88.6497
88.5621
88.4801
88.4038
88.3336
88.2698
88.2126
88.1625
88.1196
88.0846
88.0576
88.0391
88.0297
92.5778
89.1016
88.9921
88.8806
88.7569
88.6258
88.4904
88.3529
88.2145
88.0759
87.938
87.8011
87.6655
87.5316
87.3996
87.2698
87.1423
87.0175
86.8954
86.7763
86.6605
86.548
86.4392
86.3341
86.2331
86.1364
86.0441
85.9565
85.8739
85.7964
85.7244
85.6581
85.5977
85.5437
85.4963
85.4558
85.4226
85.3971
85.3796
85.3707
100.396
86.8557
86.5448
86.33
86.1322
85.9476
85.7736
85.6084
85.4504
85.2987
85.1524
85.0109
84.8736
84.7403
84.6107
84.4845
84.3618
84.2423
84.1262
84.0134
83.9039
83.798
83.6956
83.5969
83.5022
83.4114
83.3249
83.2428
83.1653
83.0926
83.025
82.9628
82.9062
82.8554
82.8109
82.7728
82.7416
82.7177
82.7012
82.6928
99.4598
84.4488
83.891
83.6246
83.3872
83.1731
82.9777
82.7976
82.63
82.4726
82.3239
82.1824
82.0472
81.9175
81.7926
81.672
81.5554
81.4426
81.3334
81.2276
81.1253
81.0264
80.931
80.8392
80.751
80.6666
80.5861
80.5097
80.4376
80.37
80.307
80.2491
80.1963
80.149
80.1074
80.072
80.0428
80.0204
80.0051
79.9972
90.6311
81.6719
80.9146
80.6675
80.4446
80.2421
80.0567
79.8857
79.7267
79.5779
79.4377
79.3049
79.1784
79.0574
78.9413
78.8295
78.7217
78.6175
78.5168
78.4194
78.3253
78.2343
78.1466
78.0621
77.9809
77.9032
77.8291
77.7587
77.6922
77.6298
77.5718
77.5182
77.4694
77.4257
77.3872
77.3544
77.3274
77.3066
77.2924
77.2851
84.1771
78.4759
77.681
77.498
77.3273
77.1676
77.0176
76.8762
76.7424
76.6154
76.4944
76.3786
76.2676
76.1607
76.0577
75.9581
75.8617
75.7684
75.6779
75.5903
75.5054
75.4232
75.3438
75.2673
75.1936
75.123
75.0555
74.9914
74.9307
74.8737
74.8206
74.7716
74.7269
74.6868
74.6515
74.6213
74.5965
74.5774
74.5644
74.5577
79.0357
74.8043
74.3145
74.2131
74.1097
74.0059
73.9028
73.8011
73.7012
73.6035
73.5079
73.4145
73.3233
73.2343
73.1473
73.0624
72.9796
72.8987
72.8198
72.743
72.6682
72.5955
72.525
72.4568
72.391
72.3277
72.2671
72.2094
72.1547
72.1032
72.0551
72.0107
71.9701
71.9337
71.9016
71.8741
71.8515
71.8341
71.8222
71.8161
74.529
71.1199
70.9699
70.9302
70.8816
70.8264
70.7663
70.7024
70.636
70.5679
70.4986
70.4287
70.3586
70.2885
70.2188
70.1496
70.0811
70.0134
69.9467
69.8812
69.8169
69.754
69.6927
69.633
69.5752
69.5194
69.4658
69.4145
69.3658
69.3198
69.2768
69.237
69.2005
69.1677
69.1388
69.114
69.0937
69.078
69.0672
69.0617
70.4195
67.7013
67.7101
67.7077
67.6953
67.6746
67.6468
67.613
67.5743
67.5317
67.4857
67.4372
67.3867
67.3346
67.2814
67.2273
67.1729
67.1182
67.0635
67.0092
66.9553
66.9021
66.8499
66.7987
66.7488
66.7003
66.6536
66.6087
66.5658
66.5253
66.4873
66.4519
66.4196
66.3904
66.3646
66.3425
66.3242
66.3102
66.3005
66.2956
66.5016
64.5097
64.5389
64.5579
64.5678
64.5694
64.5636
64.5513
64.5333
64.5103
64.4831
64.4522
64.4183
64.3817
64.3431
64.3027
64.261
64.2183
64.1748
64.131
64.0869
64.043
63.9994
63.9563
63.9139
63.8726
63.8324
63.7937
63.7566
63.7213
63.688
63.6571
63.6287
63.6029
63.5802
63.5606
63.5445
63.532
63.5235
63.5191
62.6073
61.4113
61.4493
61.479
61.5009
61.5155
61.5233
61.525
61.5211
61.5122
61.4987
61.4813
61.4604
61.4365
61.4099
61.3811
61.3504
61.3181
61.2846
61.2502
61.215
61.1795
61.1439
61.1083
61.073
61.0383
61.0043
60.9714
60.9396
60.9093
60.8806
60.8538
60.8291
60.8067
60.7869
60.7698
60.7556
60.7447
60.7372
60.7333
58.7568
58.3887
58.429
58.4624
58.4893
58.5101
58.5251
58.5349
58.5397
58.54
58.536
58.5283
58.5171
58.5027
58.4856
58.4661
58.4444
58.4209
58.3959
58.3696
58.3422
58.3142
58.2856
58.2568
58.2279
58.1992
58.171
58.1434
58.1166
58.0909
58.0665
58.0435
58.0223
58.003
57.9859
57.9711
57.9588
57.9493
57.9428
57.9395
55.4283
55.4324
55.4676
55.4984
55.5247
55.5467
55.5643
55.5778
55.5873
55.593
55.5951
55.5938
55.5894
55.5821
55.5721
55.5597
55.5452
55.5288
55.5107
55.4912
55.4705
55.4488
55.4264
55.4035
55.3803
55.357
55.3339
55.3111
55.2888
55.2673
55.2468
55.2274
55.2094
55.193
55.1784
55.1657
55.1552
55.147
55.1414
55.1385
52.5124
52.5167
52.5453
52.5715
52.595
52.6157
52.6333
52.648
52.6596
52.6682
52.6738
52.6767
52.6769
52.6745
52.6697
52.6628
52.6537
52.6429
52.6304
52.6164
52.6012
52.5849
52.5677
52.5498
52.5315
52.5129
52.4943
52.4757
52.4575
52.4397
52.4227
52.4065
52.3915
52.3777
52.3653
52.3546
52.3457
52.3387
52.334
52.3315
49.6161
49.6208
49.6451
49.6679
49.6889
49.7079
49.7248
49.7394
49.7518
49.7618
49.7696
49.775
49.7781
49.7791
49.7781
49.775
49.7701
49.7636
49.7554
49.7458
49.735
49.7231
49.7103
49.6967
49.6826
49.668
49.6532
49.6383
49.6236
49.6092
49.5952
49.5819
49.5695
49.558
49.5477
49.5387
49.5312
49.5254
49.5214
49.5193
46.7328
46.7385
46.7601
46.7805
46.7996
46.8172
46.8331
46.8474
46.8599
46.8706
46.8794
46.8863
46.8914
46.8947
46.8962
46.896
46.8941
46.8908
46.886
46.8798
46.8725
46.8642
46.8549
46.8448
46.8341
46.8229
46.8114
46.7997
46.788
46.7765
46.7652
46.7544
46.7442
46.7348
46.7263
46.7189
46.7127
46.7078
46.7045
46.7028
43.8617
43.8678
43.8873
43.9059
43.9234
43.9397
43.9548
43.9685
43.9808
43.9916
44.0009
44.0088
44.015
44.0198
44.023
44.0248
44.0251
44.0241
44.0219
44.0184
44.0138
44.0083
44.0018
43.9946
43.9867
43.9783
43.9696
43.9605
43.9514
43.9422
43.9333
43.9246
43.9164
43.9088
43.9019
43.8958
43.8907
43.8868
43.884
43.8826
41.001
41.0069
41.0247
41.0417
41.0578
41.073
41.0872
41.1002
41.1121
41.1229
41.1323
41.1405
41.1475
41.1531
41.1575
41.1606
41.1625
41.1632
41.1628
41.1613
41.1588
41.1554
41.1512
41.1462
41.1407
41.1345
41.128
41.1212
41.1141
41.1071
41.1
41.0932
41.0867
41.0806
41.075
41.0701
41.066
41.0628
41.0606
41.0594
38.1484
38.1542
38.1706
38.1862
38.2012
38.2153
38.2286
38.2409
38.2523
38.2627
38.272
38.2803
38.2875
38.2937
38.2987
38.3027
38.3056
38.3074
38.3083
38.3083
38.3074
38.3056
38.3031
38.2999
38.2961
38.2918
38.2871
38.282
38.2767
38.2713
38.2659
38.2606
38.2555
38.2507
38.2463
38.2424
38.2391
38.2365
38.2347
38.2338
35.3031
35.3088
35.3239
35.3384
35.3522
35.3653
35.3777
35.3892
35.4
35.4099
35.4189
35.427
35.4342
35.4404
35.4457
35.4502
35.4537
35.4563
35.4581
35.459
35.4592
35.4586
35.4574
35.4555
35.4531
35.4502
35.4469
35.4433
35.4394
35.4354
35.4313
35.4272
35.4233
35.4195
35.4161
35.413
35.4105
35.4084
35.407
35.4063
32.4647
32.4701
32.484
32.4974
32.5101
32.5222
32.5335
32.5442
32.5542
32.5634
32.5719
32.5796
32.5865
32.5926
32.5979
32.6024
32.6062
32.6092
32.6115
32.6131
32.614
32.6142
32.6139
32.613
32.6116
32.6098
32.6076
32.6051
32.6023
32.5994
32.5964
32.5933
32.5903
32.5875
32.5848
32.5824
32.5804
32.5788
32.5777
32.5771
29.6333
29.6381
29.6508
29.6628
29.6743
29.6852
29.6955
29.7051
29.7141
29.7225
29.7302
29.7373
29.7437
29.7494
29.7545
29.7589
29.7626
29.7657
29.7682
29.7701
29.7715
29.7722
29.7725
29.7723
29.7716
29.7706
29.7692
29.7675
29.7656
29.7635
29.7613
29.7591
29.7569
29.7547
29.7527
29.7509
29.7494
29.7481
29.7473
29.7468
26.8109
26.8133
26.824
26.8343
26.8443
26.8538
26.8628
26.8712
26.8791
26.8864
26.8932
26.8994
26.9051
26.9102
26.9148
26.9188
26.9223
26.9253
26.9278
26.9297
26.9312
26.9323
26.9329
26.9331
26.9329
26.9324
26.9316
26.9306
26.9293
26.9279
26.9263
26.9247
26.9231
26.9215
26.92
26.9186
26.9175
26.9166
26.9159
26.9156
23.989
23.9914
24.0011
24.0103
24.0189
24.0271
24.0347
24.0418
24.0484
24.0545
24.0601
24.0653
24.0701
24.0744
24.0783
24.0817
24.0848
24.0874
24.0897
24.0915
24.093
24.0941
24.0949
24.0953
24.0954
24.0953
24.0949
24.0943
24.0935
24.0925
24.0914
24.0903
24.0891
24.088
24.0869
24.0859
24.085
24.0843
24.0838
24.0836
21.1738
21.1749
21.1834
21.1913
21.1985
21.2051
21.211
21.2165
21.2215
21.2261
21.2303
21.2342
21.2378
21.2411
21.2442
21.2469
21.2494
21.2515
21.2534
21.255
21.2563
21.2574
21.2581
21.2587
21.2589
21.259
21.2589
21.2585
21.258
21.2574
21.2567
21.2559
21.2551
21.2543
21.2535
21.2528
21.2521
21.2516
21.2513
21.2511
18.3554
18.3605
18.3711
18.3784
18.3838
18.388
18.3915
18.3946
18.3975
18.4002
18.4028
18.4052
18.4075
18.4097
18.4118
18.4137
18.4155
18.4171
18.4185
18.4198
18.4209
18.4217
18.4224
18.4229
18.4232
18.4234
18.4234
18.4232
18.423
18.4226
18.4221
18.4216
18.421
18.4205
18.4199
18.4194
18.4189
18.4186
18.4183
18.4182
15.6079
15.5944
15.5861
15.581
15.5779
15.5761
15.5751
15.5749
15.575
15.5755
15.5762
15.5771
15.5781
15.5792
15.5803
15.5815
15.5826
15.5836
15.5846
15.5855
15.5862
15.5869
15.5875
15.5879
15.5882
15.5883
15.5884
15.5884
15.5882
15.588
15.5877
15.5874
15.587
15.5866
15.5862
15.5858
15.5855
15.5852
15.5851
15.585
12.797
12.7851
12.7756
12.768
12.7622
12.7578
12.7545
12.7521
12.7504
12.7494
12.7487
12.7484
12.7484
12.7486
12.749
12.7494
12.75
12.7505
12.7511
12.7516
12.7521
12.7526
12.753
12.7533
12.7535
12.7537
12.7538
12.7538
12.7537
12.7536
12.7534
12.7532
12.7529
12.7527
12.7524
12.7521
12.7519
12.7517
12.7516
12.7515
9.96453
9.95569
9.94795
9.94133
9.93575
9.93115
9.92742
9.92445
9.92214
9.92038
9.91908
9.91818
9.91759
9.91725
9.91711
9.91713
9.91727
9.91748
9.91774
9.91802
9.91831
9.91858
9.91883
9.91904
9.91921
9.91933
9.9194
9.91942
9.91939
9.91932
9.91921
9.91907
9.91891
9.91874
9.91856
9.9184
9.91825
9.91813
9.91804
9.91799
7.12223
7.11621
7.11075
7.10588
7.10161
7.09793
7.09482
7.09223
7.09011
7.08841
7.08708
7.08606
7.08532
7.0848
7.08446
7.08428
7.0842
7.08422
7.08429
7.08441
7.08454
7.08469
7.08483
7.08495
7.08506
7.08514
7.08519
7.08521
7.0852
7.08516
7.0851
7.08501
7.08492
7.08481
7.0847
7.0846
7.0845
7.08443
7.08437
7.08434
4.27495
4.27146
4.26823
4.2653
4.26268
4.26037
4.25836
4.25665
4.25522
4.25404
4.25309
4.25234
4.25177
4.25134
4.25104
4.25085
4.25073
4.25068
4.25067
4.2507
4.25076
4.25082
4.25089
4.25095
4.251
4.25105
4.25108
4.25109
4.25109
4.25107
4.25104
4.25099
4.25094
4.25088
4.25083
4.25077
4.25072
4.25067
4.25064
4.25063
1.42523
1.42409
1.42302
1.42204
1.42116
1.42038
1.41969
1.4191
1.4186
1.41818
1.41784
1.41757
1.41736
1.4172
1.41708
1.417
1.41695
1.41692
1.41691
1.41691
1.41693
1.41694
1.41696
1.41698
1.417
1.41701
1.41702
1.41702
1.41702
1.41702
1.41701
1.417
1.41698
1.41696
1.41694
1.41692
1.41691
1.41689
1.41688
1.41688
)
;

boundaryField
{
    top
    {
        type            fixedValue;
        value           uniform 0;
    }
    inlet
    {
        type            darcyGradPressure;
        gradient        nonuniform List<scalar> 
80
(
9.81
9.81
9.81
9.81
9.81
9.81
9.81
9.81
9.81
9.81
9.81
9.81
9.81
9.81
9.81
9.81
9.81
9.81
9.81
9.81
9.81
9.81
9.81
9.81
9.81
9.81
9.81
9.81
9.81
9.81
9.81
9.81
9.81
9.81
9.81
9.81
9.81
9.81
9.81
9.81
9.81
9.81
9.81
9.81
9.81
9.81
9.81
9.81
9.81
9.81
9.81
9.81
9.81
9.81
9.81
9.81
9.81
9.81
9.81
9.81
9.81
9.81
9.81
9.81
9.81
9.81
9.81
9.81
9.81
9.81
9.81
9.81
9.81
9.81
9.81
9.81
9.81
9.81
9.81
9.81
)
;
        value           nonuniform List<scalar> 
80
(
111.22
111.231
111.253
111.285
111.327
111.378
111.438
111.506
111.582
111.665
111.756
111.853
111.957
112.066
112.181
112.302
112.427
112.558
112.693
112.832
112.975
113.121
113.272
113.425
113.581
113.74
113.902
114.065
114.23
114.396
114.562
114.727
114.89
115.047
115.196
115.333
115.453
115.547
115.607
115.625
115.589
115.494
115.348
115.163
114.951
114.722
114.483
114.24
113.997
113.756
113.52
113.289
113.065
112.847
112.636
112.432
112.235
112.045
111.862
111.686
111.517
111.354
111.199
111.05
110.908
110.774
110.646
110.526
110.413
110.308
110.211
110.122
110.041
109.969
109.906
109.852
109.808
109.774
109.751
109.74
)
;
    }
    axis
    {
        type            darcyGradPressure;
        gradient        uniform -0;
        value           nonuniform List<scalar> 
80
(
109.993
107.517
105.017
102.493
99.946
97.3756
94.7821
92.166
89.5278
86.868
84.1872
81.4861
78.7656
76.0264
73.2696
70.4962
67.7072
64.9037
62.0869
59.2578
56.4174
53.567
50.7075
47.84
44.9652
42.0843
39.198
36.3071
33.4123
30.5143
27.6137
24.711
21.8066
18.901
15.9943
13.087
10.1792
7.27108
4.36273
1.45425
108.513
106.036
103.534
101.007
98.4571
95.8833
93.287
90.6688
88.0297
85.3707
82.6928
79.9972
77.2851
74.5577
71.8161
69.0617
66.2956
63.5191
60.7333
57.9395
55.1385
52.3315
49.5193
46.7028
43.8826
41.0594
38.2338
35.4063
32.5771
29.7468
26.9156
24.0836
21.2511
18.4182
15.585
12.7515
9.91799
7.08434
4.25063
1.41688
)
;
    }
    frontAndBack
    {
        type            empty;
    }
}


// ************************************************************************* //
