/*--------------------------------*- C++ -*----------------------------------*\
  =========                 |
  \\      /  F ield         | OpenFOAM: The Open Source CFD Toolbox
   \\    /   O peration     | Website:  https://openfoam.org
    \\  /    A nd           | Version:  10
     \\/     M anipulation  |
\*---------------------------------------------------------------------------*/
FoamFile
{
    format      ascii;
    class       surfaceScalarField;
    location    "0.01";
    object      phi;
}
// * * * * * * * * * * * * * * * * * * * * * * * * * * * * * * * * * * * * * //

dimensions      [0 3 -1 0 0 0 0];

internalField   nonuniform List<scalar> 
7780
(
2.50002e-09
-2.60005e-14
2.50009e-09
-9.81304e-14
2.50023e-09
-1.56078e-13
2.50041e-09
-2.11483e-13
2.50066e-09
-2.65991e-13
2.50096e-09
-3.20678e-13
2.50132e-09
-3.74601e-13
2.50171e-09
-4.28797e-13
2.50219e-09
-4.82298e-13
2.50269e-09
-5.36375e-13
2.50327e-09
-5.89721e-13
2.50388e-09
-6.43918e-13
2.50457e-09
-6.974e-13
2.50528e-09
-7.52084e-13
2.50609e-09
-8.06112e-13
2.5069e-09
-8.61758e-13
2.50782e-09
-9.16863e-13
2.50875e-09
-9.74076e-13
2.50978e-09
-1.03092e-12
2.51082e-09
-1.09044e-12
2.51198e-09
-1.14982e-12
2.51314e-09
-1.21252e-12
2.51442e-09
-1.27537e-12
2.51571e-09
-1.34226e-12
2.51713e-09
-1.40966e-12
2.51855e-09
-1.48189e-12
2.52012e-09
-1.55505e-12
2.52169e-09
-1.63391e-12
2.52343e-09
-1.71417e-12
2.52516e-09
-1.80108e-12
2.52707e-09
-1.88993e-12
2.52899e-09
-1.98646e-12
2.5311e-09
-2.08551e-12
2.53322e-09
-2.19336e-12
2.53556e-09
-2.30437e-12
2.5379e-09
-2.42537e-12
2.54049e-09
-2.55024e-12
2.54309e-09
-2.68636e-12
2.54596e-09
-2.8271e-12
2.54885e-09
-2.98042e-12
2.55204e-09
-3.13917e-12
2.55526e-09
-3.31189e-12
2.55881e-09
-3.49086e-12
2.56239e-09
-3.68523e-12
2.56634e-09
-3.8867e-12
2.57034e-09
-4.10502e-12
2.57475e-09
-4.33125e-12
2.57921e-09
-4.57576e-12
2.58412e-09
-4.82895e-12
2.5891e-09
-5.10177e-12
2.59457e-09
-5.38389e-12
2.60014e-09
-5.68687e-12
2.60623e-09
-5.99958e-12
2.61244e-09
-6.33413e-12
2.61922e-09
-6.67851e-12
2.62613e-09
-7.04538e-12
2.63367e-09
-7.42175e-12
2.64134e-09
-7.82076e-12
2.6497e-09
-8.22832e-12
2.65821e-09
-8.65801e-12
2.66744e-09
-9.0945e-12
2.67683e-09
-9.55175e-12
2.68699e-09
-1.0013e-11
2.69732e-09
-1.04926e-11
2.70845e-09
-1.09722e-11
2.71974e-09
-1.14665e-11
2.73187e-09
-1.19553e-11
2.74414e-09
-1.24536e-11
2.75726e-09
-1.29393e-11
2.7705e-09
-1.34279e-11
2.78459e-09
-1.38954e-11
2.79876e-09
-1.43575e-11
2.81375e-09
-1.47884e-11
2.82876e-09
-1.52045e-11
2.84456e-09
-1.5578e-11
2.86028e-09
-1.59267e-11
2.87674e-09
-1.62211e-11
2.89302e-09
-1.64803e-11
2.90994e-09
-1.6674e-11
2.92656e-09
-1.6823e-11
2.94372e-09
-1.68968e-11
2.96044e-09
-1.69181e-11
2.97757e-09
-1.68572e-11
2.99413e-09
-1.6739e-11
3.01094e-09
-1.65349e-11
3.02704e-09
-1.62721e-11
3.04325e-09
-1.59238e-11
3.05863e-09
-1.55192e-11
3.07395e-09
-1.50337e-11
3.08832e-09
-1.44979e-11
3.10249e-09
-1.38893e-11
3.11564e-09
-1.32394e-11
3.12844e-09
-1.25281e-11
3.14017e-09
-1.17862e-11
3.15143e-09
-1.09962e-11
3.16159e-09
-1.01876e-11
3.17118e-09
-9.34498e-12
3.17969e-09
-8.49577e-12
3.18754e-09
-7.62665e-12
3.19435e-09
-6.7621e-12
3.20044e-09
-5.89082e-12
3.20555e-09
-5.03382e-12
3.20992e-09
-4.18169e-12
3.21337e-09
-3.35172e-12
3.21606e-09
-2.53626e-12
3.21794e-09
-1.74873e-12
3.21906e-09
-9.83232e-13
3.21946e-09
-2.49511e-13
3.21911e-09
4.56779e-13
3.21815e-09
1.1299e-12
3.21645e-09
1.77282e-12
3.21426e-09
2.38328e-12
3.21135e-09
2.96306e-12
3.20804e-09
3.51277e-12
3.20404e-09
4.03262e-12
3.19972e-09
4.52563e-12
3.19475e-09
4.99052e-12
3.18953e-09
5.43229e-12
3.18368e-09
5.84822e-12
3.17765e-09
6.24488e-12
3.17102e-09
6.61812e-12
3.16427e-09
6.97576e-12
3.15692e-09
7.3122e-12
3.14951e-09
7.63629e-12
3.14153e-09
7.94092e-12
3.13353e-09
8.23587e-12
3.12496e-09
8.51244e-12
3.11642e-09
8.78133e-12
3.10731e-09
9.03216e-12
3.09829e-09
9.27661e-12
3.0887e-09
9.50254e-12
3.07924e-09
9.72279e-12
3.06922e-09
9.92331e-12
3.05938e-09
1.01183e-11
3.04898e-09
1.02918e-11
3.03881e-09
1.04597e-11
3.02808e-09
1.06038e-11
3.01764e-09
1.07419e-11
3.00664e-09
1.08537e-11
2.996e-09
1.09593e-11
2.9848e-09
1.10362e-11
2.97403e-09
1.11066e-11
2.9627e-09
1.11463e-11
2.95187e-09
1.11796e-11
2.94048e-09
1.11805e-11
2.92966e-09
1.11756e-11
2.9183e-09
1.11373e-11
2.90757e-09
1.10941e-11
2.89632e-09
1.10172e-11
2.88575e-09
1.09369e-11
2.87467e-09
1.08231e-11
2.86433e-09
1.0708e-11
2.8535e-09
1.05604e-11
2.84345e-09
1.04137e-11
2.83293e-09
1.02361e-11
2.82323e-09
1.00619e-11
2.81308e-09
9.85883e-12
2.80377e-09
9.66175e-12
2.79403e-09
9.43825e-12
2.78515e-09
9.22329e-12
2.77587e-09
8.98454e-12
2.76744e-09
8.75677e-12
2.75863e-09
8.5079e-12
2.75067e-09
8.27225e-12
2.74235e-09
8.01817e-12
2.73487e-09
7.77927e-12
2.72705e-09
7.52448e-12
2.72005e-09
7.28652e-12
2.71272e-09
7.03503e-12
2.70619e-09
6.80166e-12
2.69934e-09
6.55689e-12
2.69327e-09
6.33121e-12
2.68689e-09
6.09599e-12
2.68126e-09
5.88052e-12
2.67533e-09
5.65709e-12
2.67011e-09
5.45379e-12
2.6646e-09
5.24386e-12
2.65977e-09
5.05417e-12
2.65466e-09
4.85893e-12
2.65018e-09
4.68386e-12
2.64543e-09
4.50407e-12
2.64129e-09
4.34423e-12
2.63688e-09
4.1803e-12
2.63304e-09
4.03596e-12
2.62892e-09
3.888e-12
2.62536e-09
3.75921e-12
2.62151e-09
3.62712e-12
2.61818e-09
3.51376e-12
2.61458e-09
3.39727e-12
2.61146e-09
3.29902e-12
2.60806e-09
3.1977e-12
2.60512e-09
3.11418e-12
2.60189e-09
3.02752e-12
2.59911e-09
2.95818e-12
2.59603e-09
2.88567e-12
2.59337e-09
2.82957e-12
2.59051e-09
2.77111e-12
2.58774e-09
2.72471e-12
2.58506e-09
2.68756e-12
2.63609e-12
2.50002e-09
-5.23534e-14
2.50009e-09
-1.97848e-13
2.50023e-09
-3.14086e-13
2.50041e-09
-4.24612e-13
2.50066e-09
-5.33869e-13
2.50096e-09
-6.42832e-13
2.50132e-09
-7.51121e-13
2.50172e-09
-8.5907e-13
2.50219e-09
-9.66678e-13
2.50269e-09
-1.07425e-12
2.50327e-09
-1.18163e-12
2.50388e-09
-1.28923e-12
2.50457e-09
-1.39692e-12
2.50529e-09
-1.50524e-12
2.50609e-09
-1.61405e-12
2.50691e-09
-1.72401e-12
2.50782e-09
-1.835e-12
2.50875e-09
-1.9478e-12
2.50978e-09
-2.06231e-12
2.51082e-09
-2.17942e-12
2.51197e-09
-2.29905e-12
2.51313e-09
-2.42223e-12
2.5144e-09
-2.54886e-12
2.51569e-09
-2.68013e-12
2.5171e-09
-2.81593e-12
2.51852e-09
-2.95758e-12
2.52008e-09
-3.10498e-12
2.52165e-09
-3.25958e-12
2.52337e-09
-3.4213e-12
2.52509e-09
-3.59171e-12
2.52699e-09
-3.77073e-12
2.5289e-09
-3.96007e-12
2.53099e-09
-4.15966e-12
2.5331e-09
-4.37134e-12
2.53541e-09
-4.59503e-12
2.53775e-09
-4.83274e-12
2.54031e-09
-5.08435e-12
2.5429e-09
-5.35202e-12
2.54574e-09
-5.63564e-12
2.54862e-09
-5.93747e-12
2.55177e-09
-6.25739e-12
2.55498e-09
-6.59779e-12
2.55849e-09
-6.95853e-12
2.56206e-09
-7.34208e-12
2.56597e-09
-7.74823e-12
2.56995e-09
-8.17957e-12
2.57431e-09
-8.63578e-12
2.57876e-09
-9.11949e-12
2.58362e-09
-9.63025e-12
2.58859e-09
-1.01707e-11
2.59401e-09
-1.07401e-11
2.59957e-09
-1.13411e-11
2.60561e-09
-1.19727e-11
2.61181e-09
-1.26373e-11
2.61854e-09
-1.33335e-11
2.62545e-09
-1.40635e-11
2.63294e-09
-1.48252e-11
2.64063e-09
-1.56204e-11
2.64894e-09
-1.64465e-11
2.65747e-09
-1.73044e-11
2.66667e-09
-1.81906e-11
2.6761e-09
-1.91054e-11
2.68624e-09
-2.00439e-11
2.69662e-09
-2.10054e-11
2.70776e-09
-2.19837e-11
2.71913e-09
-2.29769e-11
2.73128e-09
-2.3977e-11
2.74367e-09
-2.49807e-11
2.75685e-09
-2.59783e-11
2.77025e-09
-2.6965e-11
2.78443e-09
-2.79292e-11
2.79879e-09
-2.88648e-11
2.81392e-09
-2.97586e-11
2.82917e-09
-3.06031e-11
2.84515e-09
-3.13839e-11
2.86117e-09
-3.2093e-11
2.87785e-09
-3.27155e-11
2.89446e-09
-3.32434e-11
2.91165e-09
-3.36624e-11
2.92864e-09
-3.39657e-11
2.9461e-09
-3.41407e-11
2.96322e-09
-3.41828e-11
2.98067e-09
-3.40823e-11
2.99764e-09
-3.38379e-11
3.01477e-09
-3.34437e-11
3.03129e-09
-3.29024e-11
3.04782e-09
-3.22122e-11
3.06358e-09
-3.13802e-11
3.0792e-09
-3.04085e-11
3.09394e-09
-2.93082e-11
3.10837e-09
-2.80849e-11
3.12185e-09
-2.67527e-11
3.13487e-09
-2.532e-11
3.14688e-09
-2.38028e-11
3.15832e-09
-2.2211e-11
3.16871e-09
-2.05616e-11
3.17845e-09
-1.88648e-11
3.18714e-09
-1.71377e-11
3.19511e-09
-1.53897e-11
3.20206e-09
-1.3637e-11
3.20825e-09
-1.18877e-11
3.21347e-09
-1.01563e-11
3.21792e-09
-8.44903e-12
3.22146e-09
-6.77827e-12
3.22423e-09
-5.14822e-12
3.2262e-09
-3.56878e-12
3.22739e-09
-2.04196e-12
3.22788e-09
-5.75157e-13
3.22762e-09
8.31193e-13
3.22675e-09
2.17238e-12
3.22517e-09
3.45044e-12
3.22307e-09
4.66315e-12
3.2203e-09
5.81412e-12
3.21709e-09
6.90283e-12
3.21326e-09
7.93364e-12
3.20907e-09
8.90734e-12
3.20427e-09
9.82861e-12
3.1992e-09
1.06992e-11
3.19356e-09
1.15237e-11
3.18769e-09
1.23044e-11
3.18128e-09
1.30453e-11
3.1747e-09
1.3749e-11
3.1676e-09
1.44187e-11
3.16038e-09
1.5057e-11
3.15265e-09
1.5666e-11
3.14484e-09
1.62479e-11
3.13653e-09
1.68039e-11
3.12818e-09
1.73357e-11
3.11934e-09
1.78434e-11
3.11051e-09
1.83283e-11
3.10118e-09
1.87894e-11
3.0919e-09
1.92275e-11
3.08214e-09
1.96407e-11
3.07246e-09
2.00296e-11
3.0623e-09
2.03914e-11
3.05228e-09
2.07265e-11
3.04178e-09
2.10316e-11
3.03147e-09
2.13071e-11
3.02069e-09
2.15495e-11
3.01015e-09
2.17594e-11
2.99915e-09
2.19331e-11
2.98847e-09
2.20718e-11
2.97733e-09
2.21717e-11
2.96656e-09
2.22347e-11
2.95535e-09
2.22574e-11
2.94457e-09
2.22423e-11
2.93338e-09
2.21865e-11
2.92267e-09
2.20933e-11
2.91157e-09
2.19601e-11
2.90101e-09
2.1791e-11
2.89007e-09
2.1584e-11
2.87973e-09
2.13438e-11
2.86903e-09
2.10688e-11
2.85897e-09
2.07644e-11
2.84857e-09
2.04291e-11
2.83885e-09
2.00689e-11
2.82882e-09
1.96826e-11
2.81947e-09
1.92764e-11
2.80985e-09
1.88491e-11
2.80092e-09
1.84071e-11
2.79174e-09
1.79492e-11
2.78326e-09
1.7482e-11
2.77454e-09
1.70039e-11
2.76653e-09
1.65215e-11
2.75829e-09
1.60331e-11
2.75075e-09
1.55449e-11
2.74299e-09
1.50551e-11
2.73592e-09
1.45697e-11
2.72865e-09
1.40865e-11
2.72204e-09
1.36111e-11
2.71523e-09
1.31413e-11
2.70907e-09
1.26823e-11
2.70272e-09
1.22315e-11
2.69699e-09
1.17937e-11
2.69107e-09
1.13663e-11
2.68574e-09
1.09536e-11
2.68023e-09
1.05529e-11
2.67527e-09
1.01681e-11
2.67014e-09
9.79634e-12
2.66553e-09
9.44138e-12
2.66075e-09
9.10003e-12
2.65646e-09
8.77594e-12
2.652e-09
8.4658e-12
2.648e-09
8.173e-12
2.64382e-09
7.89422e-12
2.64009e-09
7.63268e-12
2.63616e-09
7.38503e-12
2.63266e-09
7.15433e-12
2.62895e-09
6.93722e-12
2.62565e-09
6.73666e-12
2.62214e-09
6.5493e-12
2.61901e-09
6.37801e-12
2.61566e-09
6.21946e-12
2.61267e-09
6.07644e-12
2.60946e-09
5.94574e-12
2.60659e-09
5.82973e-12
2.60358e-09
5.72683e-12
2.60062e-09
5.63366e-12
2.59773e-09
5.56688e-12
5.46506e-12
2.50002e-09
-7.87645e-14
2.50009e-09
-2.96911e-13
2.50023e-09
-4.71422e-13
2.50041e-09
-6.37207e-13
2.50066e-09
-8.01101e-13
2.50096e-09
-9.64391e-13
2.50131e-09
-1.12671e-12
2.50171e-09
-1.2883e-12
2.50218e-09
-1.44944e-12
2.50269e-09
-1.61025e-12
2.50326e-09
-1.77081e-12
2.50387e-09
-1.93139e-12
2.50455e-09
-2.09217e-12
2.50527e-09
-2.2535e-12
2.50606e-09
-2.41567e-12
2.50687e-09
-2.57914e-12
2.50778e-09
-2.74428e-12
2.5087e-09
-2.91168e-12
2.50971e-09
-3.08179e-12
2.51074e-09
-3.2553e-12
2.51188e-09
-3.43279e-12
2.51302e-09
-3.61504e-12
2.51428e-09
-3.80272e-12
2.51554e-09
-3.99675e-12
2.51693e-09
-4.19787e-12
2.51832e-09
-4.40711e-12
2.51985e-09
-4.62531e-12
2.52139e-09
-4.85362e-12
2.52307e-09
-5.09298e-12
2.52476e-09
-5.34463e-12
2.52661e-09
-5.60963e-12
2.52848e-09
-5.8893e-12
2.53052e-09
-6.18484e-12
2.53258e-09
-6.49767e-12
2.53484e-09
-6.82907e-12
2.53712e-09
-7.18058e-12
2.53961e-09
-7.5536e-12
2.54214e-09
-7.94975e-12
2.5449e-09
-8.37053e-12
2.54771e-09
-8.81765e-12
2.55078e-09
-9.29273e-12
2.5539e-09
-9.79753e-12
2.55731e-09
-1.03337e-11
2.56079e-09
-1.09032e-11
2.56459e-09
-1.15076e-11
2.56848e-09
-1.21488e-11
2.57272e-09
-1.28286e-11
2.57706e-09
-1.35487e-11
2.58179e-09
-1.43108e-11
2.58665e-09
-1.51166e-11
2.59194e-09
-1.59677e-11
2.59736e-09
-1.68654e-11
2.60327e-09
-1.78111e-11
2.60934e-09
-1.88058e-11
2.61593e-09
-1.98504e-11
2.62271e-09
-2.09454e-11
2.63006e-09
-2.20909e-11
2.63762e-09
-2.3287e-11
2.64579e-09
-2.45325e-11
2.6542e-09
-2.58267e-11
2.66328e-09
-2.71671e-11
2.67261e-09
-2.85515e-11
2.68264e-09
-2.99761e-11
2.69295e-09
-3.14367e-11
2.70401e-09
-3.29276e-11
2.71535e-09
-3.44427e-11
2.72747e-09
-3.59737e-11
2.73987e-09
-3.75122e-11
2.75308e-09
-3.90473e-11
2.76654e-09
-4.05678e-11
2.78082e-09
-4.20602e-11
2.79532e-09
-4.35106e-11
2.81062e-09
-4.49031e-11
2.8261e-09
-4.62213e-11
2.84233e-09
-4.74474e-11
2.85865e-09
-4.85636e-11
2.87566e-09
-4.95511e-11
2.89267e-09
-5.03919e-11
2.91026e-09
-5.10682e-11
2.92772e-09
-5.15631e-11
2.94564e-09
-5.18619e-11
2.96327e-09
-5.19508e-11
2.98122e-09
-5.182e-11
2.99872e-09
-5.14609e-11
3.01636e-09
-5.08703e-11
3.0334e-09
-5.00457e-11
3.0504e-09
-4.89911e-11
3.06664e-09
-4.7711e-11
3.08268e-09
-4.62161e-11
3.09783e-09
-4.45171e-11
3.1126e-09
-4.26306e-11
3.12639e-09
-4.05723e-11
3.13966e-09
-3.83627e-11
3.15187e-09
-3.6021e-11
3.16346e-09
-3.35695e-11
3.17395e-09
-3.10292e-11
3.18372e-09
-2.84224e-11
3.1924e-09
-2.577e-11
3.20031e-09
-2.3093e-11
3.20717e-09
-2.04108e-11
3.21321e-09
-1.77417e-11
3.21827e-09
-1.51029e-11
3.2225e-09
-1.25089e-11
3.22582e-09
-9.97389e-12
3.22834e-09
-7.50851e-12
3.23004e-09
-5.12376e-12
3.23097e-09
-2.82589e-12
3.23118e-09
-6.22816e-13
3.23064e-09
1.48203e-12
3.2295e-09
3.48538e-12
3.22767e-09
5.38889e-12
3.22532e-09
7.19203e-12
3.22231e-09
8.89867e-12
3.21889e-09
1.05103e-11
3.21486e-09
1.20325e-11
3.21048e-09
1.34683e-11
3.20553e-09
1.48241e-11
3.20032e-09
1.61041e-11
3.19456e-09
1.73147e-11
3.18859e-09
1.84607e-11
3.1821e-09
1.95478e-11
3.17546e-09
2.05808e-11
3.16832e-09
2.15644e-11
3.16106e-09
2.2503e-11
3.15333e-09
2.33998e-11
3.14551e-09
2.42584e-11
3.13722e-09
2.50806e-11
3.12888e-09
2.5869e-11
3.12008e-09
2.66238e-11
3.11127e-09
2.73467e-11
3.10199e-09
2.80363e-11
3.09273e-09
2.86934e-11
3.08302e-09
2.93154e-11
3.07337e-09
2.99022e-11
3.06326e-09
3.04505e-11
3.05326e-09
3.09592e-11
3.0428e-09
3.14249e-11
3.03252e-09
3.18459e-11
3.02177e-09
3.22188e-11
3.01125e-09
3.25417e-11
3.00028e-09
3.28117e-11
2.98959e-09
3.30272e-11
2.97847e-09
3.31858e-11
2.9677e-09
3.32864e-11
2.95651e-09
3.33279e-11
2.94573e-09
3.33095e-11
2.93454e-09
3.32313e-11
2.92383e-09
3.30934e-11
2.91274e-09
3.28972e-11
2.90218e-09
3.26434e-11
2.89126e-09
3.23346e-11
2.88092e-09
3.19723e-11
2.87025e-09
3.156e-11
2.86019e-09
3.10999e-11
2.84984e-09
3.05961e-11
2.84013e-09
3.00515e-11
2.83014e-09
2.94706e-11
2.82082e-09
2.88566e-11
2.81125e-09
2.82142e-11
2.80236e-09
2.75467e-11
2.79324e-09
2.6859e-11
2.7848e-09
2.61542e-11
2.77616e-09
2.5437e-11
2.76819e-09
2.47105e-11
2.76003e-09
2.39788e-11
2.75254e-09
2.32448e-11
2.74487e-09
2.25123e-11
2.73786e-09
2.17838e-11
2.73067e-09
2.10624e-11
2.72412e-09
2.03504e-11
2.7174e-09
1.96503e-11
2.71129e-09
1.8964e-11
2.70503e-09
1.82934e-11
2.69935e-09
1.76401e-11
2.69351e-09
1.70055e-11
2.68823e-09
1.63908e-11
2.68279e-09
1.57969e-11
2.67789e-09
1.52248e-11
2.67282e-09
1.46748e-11
2.66826e-09
1.41478e-11
2.66353e-09
1.36438e-11
2.65928e-09
1.31634e-11
2.65487e-09
1.27063e-11
2.6509e-09
1.22729e-11
2.64676e-09
1.18628e-11
2.64305e-09
1.14762e-11
2.63916e-09
1.11125e-11
2.63567e-09
1.07719e-11
2.632e-09
1.04537e-11
2.62871e-09
1.0158e-11
2.62522e-09
9.88397e-12
2.62209e-09
9.63173e-12
2.61876e-09
9.40043e-12
2.61577e-09
9.19016e-12
2.61257e-09
9.00009e-12
2.60969e-09
8.83002e-12
2.60669e-09
8.68065e-12
2.60372e-09
8.54507e-12
2.60083e-09
8.44942e-12
8.29407e-12
2.50002e-09
-1.05173e-13
2.50009e-09
-3.95575e-13
2.50023e-09
-6.28326e-13
2.50041e-09
-8.49424e-13
2.50066e-09
-1.0679e-12
2.50095e-09
-1.28543e-12
2.50131e-09
-1.50149e-12
2.50171e-09
-1.71639e-12
2.50218e-09
-1.93047e-12
2.50268e-09
-2.14388e-12
2.50325e-09
-2.35673e-12
2.50386e-09
-2.56932e-12
2.50454e-09
-2.78191e-12
2.50524e-09
-2.99495e-12
2.50602e-09
-3.20882e-12
2.50683e-09
-3.42412e-12
2.50772e-09
-3.64136e-12
2.50863e-09
-3.86127e-12
2.50963e-09
-4.08453e-12
2.51064e-09
-4.31198e-12
2.51175e-09
-4.54445e-12
2.51287e-09
-4.78292e-12
2.5141e-09
-5.02835e-12
2.51533e-09
-5.28187e-12
2.51668e-09
-5.54457e-12
2.51804e-09
-5.81771e-12
2.51952e-09
-6.10253e-12
2.52101e-09
-6.40043e-12
2.52264e-09
-6.71279e-12
2.52428e-09
-7.04113e-12
2.52607e-09
-7.38698e-12
2.52787e-09
-7.752e-12
2.52984e-09
-8.13789e-12
2.53183e-09
-8.54642e-12
2.534e-09
-8.97945e-12
2.53619e-09
-9.43889e-12
2.53858e-09
-9.92676e-12
2.54101e-09
-1.04451e-11
2.54366e-09
-1.0996e-11
2.54635e-09
-1.15818e-11
2.5493e-09
-1.22047e-11
2.55229e-09
-1.28669e-11
2.55556e-09
-1.3571e-11
2.5589e-09
-1.43192e-11
2.56255e-09
-1.51141e-11
2.56627e-09
-1.59581e-11
2.57035e-09
-1.68537e-11
2.57451e-09
-1.78034e-11
2.57907e-09
-1.88096e-11
2.58373e-09
-1.98746e-11
2.58883e-09
-2.10009e-11
2.59406e-09
-2.21903e-11
2.59976e-09
-2.34449e-11
2.60562e-09
-2.47665e-11
2.612e-09
-2.61565e-11
2.61857e-09
-2.76159e-11
2.62571e-09
-2.91454e-11
2.63306e-09
-3.07451e-11
2.64103e-09
-3.24145e-11
2.64925e-09
-3.41525e-11
2.65813e-09
-3.59569e-11
2.66729e-09
-3.78248e-11
2.67717e-09
-3.97519e-11
2.68735e-09
-4.17332e-11
2.6983e-09
-4.37615e-11
2.70956e-09
-4.5829e-11
2.72163e-09
-4.79251e-11
2.73403e-09
-5.00388e-11
2.74727e-09
-5.21557e-11
2.76083e-09
-5.42607e-11
2.77525e-09
-5.63355e-11
2.78996e-09
-5.8361e-11
2.80552e-09
-6.03148e-11
2.82133e-09
-6.2174e-11
2.83796e-09
-6.39133e-11
2.85476e-09
-6.55065e-11
2.87231e-09
-6.6927e-11
2.88991e-09
-6.81473e-11
2.90817e-09
-6.91417e-11
2.92635e-09
-6.98842e-11
2.94504e-09
-7.03529e-11
2.96347e-09
-7.05264e-11
2.98225e-09
-7.03902e-11
3.00059e-09
-6.99302e-11
3.01908e-09
-6.9142e-11
3.03694e-09
-6.8021e-11
3.05475e-09
-6.65738e-11
3.07175e-09
-6.48062e-11
3.08851e-09
-6.27354e-11
3.1043e-09
-6.03765e-11
3.11966e-09
-5.7755e-11
3.13394e-09
-5.48937e-11
3.14763e-09
-5.18236e-11
3.16018e-09
-4.85722e-11
3.17201e-09
-4.5173e-11
3.18266e-09
-4.16557e-11
3.19251e-09
-3.80533e-11
3.20119e-09
-3.43952e-11
3.20902e-09
-3.07118e-11
3.21573e-09
-2.70302e-11
3.22156e-09
-2.33763e-11
3.22634e-09
-1.97737e-11
3.23025e-09
-1.62429e-11
3.23321e-09
-1.28029e-11
3.23533e-09
-9.46809e-12
3.23662e-09
-6.25297e-12
3.2371e-09
-3.16543e-12
3.23686e-09
-2.16099e-13
3.23587e-09
2.59145e-12
3.23427e-09
5.25459e-12
3.23199e-09
7.77666e-12
3.2292e-09
1.01581e-11
3.22578e-09
1.24048e-11
3.22195e-09
1.452e-11
3.21753e-09
1.65119e-11
3.2128e-09
1.8386e-11
3.20752e-09
2.01515e-11
3.20199e-09
2.18154e-11
3.19595e-09
2.33868e-11
3.18972e-09
2.48733e-11
3.183e-09
2.62829e-11
3.17614e-09
2.76232e-11
3.16881e-09
2.89004e-11
3.16137e-09
3.01214e-11
3.15347e-09
3.12903e-11
3.1455e-09
3.24128e-11
3.13708e-09
3.34907e-11
3.12861e-09
3.45281e-11
3.11969e-09
3.55247e-11
3.11075e-09
3.6483e-11
3.10135e-09
3.74007e-11
3.09198e-09
3.82786e-11
3.08214e-09
3.91128e-11
3.07236e-09
3.99029e-11
3.06212e-09
4.06438e-11
3.05198e-09
4.13337e-11
3.04138e-09
4.19674e-11
3.03093e-09
4.25421e-11
3.02002e-09
4.30528e-11
3.00933e-09
4.34964e-11
2.99818e-09
4.38687e-11
2.98732e-09
4.41667e-11
2.97602e-09
4.43874e-11
2.96506e-09
4.45285e-11
2.95368e-09
4.45885e-11
2.94271e-09
4.45661e-11
2.93135e-09
4.44617e-11
2.92046e-09
4.42748e-11
2.9092e-09
4.40079e-11
2.89847e-09
4.36615e-11
2.8874e-09
4.32398e-11
2.87691e-09
4.27444e-11
2.86612e-09
4.21809e-11
2.85595e-09
4.15519e-11
2.84549e-09
4.08639e-11
2.83569e-09
4.01201e-11
2.82563e-09
3.93278e-11
2.81626e-09
3.84906e-11
2.80665e-09
3.76161e-11
2.79774e-09
3.6708e-11
2.78861e-09
3.57738e-11
2.78019e-09
3.48173e-11
2.77156e-09
3.38454e-11
2.76364e-09
3.28618e-11
2.75552e-09
3.18729e-11
2.7481e-09
3.08821e-11
2.7405e-09
2.98947e-11
2.73356e-09
2.89139e-11
2.72647e-09
2.79443e-11
2.72001e-09
2.69884e-11
2.7134e-09
2.60499e-11
2.70741e-09
2.5131e-11
2.70126e-09
2.42345e-11
2.69571e-09
2.33622e-11
2.68999e-09
2.2516e-11
2.68484e-09
2.16974e-11
2.67954e-09
2.09075e-11
2.67476e-09
2.01474e-11
2.66983e-09
1.94178e-11
2.6654e-09
1.87193e-11
2.66081e-09
1.80522e-11
2.65669e-09
1.74169e-11
2.65241e-09
1.68133e-11
2.64857e-09
1.62414e-11
2.64457e-09
1.57009e-11
2.64098e-09
1.51919e-11
2.63722e-09
1.47136e-11
2.63385e-09
1.42661e-11
2.6303e-09
1.38484e-11
2.62713e-09
1.34607e-11
2.62376e-09
1.31018e-11
2.62074e-09
1.27718e-11
2.61752e-09
1.24696e-11
2.61464e-09
1.21952e-11
2.61155e-09
1.19476e-11
2.60877e-09
1.17263e-11
2.60587e-09
1.15325e-11
2.60301e-09
1.13569e-11
2.60022e-09
1.12347e-11
1.10323e-11
2.50002e-09
-1.31593e-13
2.50009e-09
-4.93811e-13
2.50023e-09
-7.84927e-13
2.50041e-09
-1.06147e-12
2.50066e-09
-1.33458e-12
2.50095e-09
-1.60624e-12
2.50131e-09
-1.8758e-12
2.50171e-09
-2.14358e-12
2.50218e-09
-2.40997e-12
2.50268e-09
-2.67514e-12
2.50325e-09
-2.93919e-12
2.50385e-09
-3.20247e-12
2.50452e-09
-3.46531e-12
2.50522e-09
-3.72824e-12
2.50599e-09
-3.99174e-12
2.50678e-09
-4.25653e-12
2.50766e-09
-4.52327e-12
2.50855e-09
-4.79285e-12
2.50953e-09
-5.06611e-12
2.51052e-09
-5.34411e-12
2.5116e-09
-5.62786e-12
2.51269e-09
-5.91862e-12
2.51388e-09
-6.21755e-12
2.51507e-09
-6.52607e-12
2.51638e-09
-6.84554e-12
2.51769e-09
-7.17753e-12
2.51911e-09
-7.52358e-12
2.52054e-09
-7.88542e-12
2.52211e-09
-8.26477e-12
2.52367e-09
-8.66355e-12
2.52538e-09
-9.08365e-12
2.52709e-09
-9.52714e-12
2.52897e-09
-9.99614e-12
2.53085e-09
-1.04929e-11
2.53291e-09
-1.10197e-11
2.53499e-09
-1.15789e-11
2.53726e-09
-1.21731e-11
2.53955e-09
-1.28049e-11
2.54206e-09
-1.34769e-11
2.54459e-09
-1.4192e-11
2.54737e-09
-1.4953e-11
2.55019e-09
-1.57628e-11
2.55328e-09
-1.66247e-11
2.55643e-09
-1.75415e-11
2.55987e-09
-1.85167e-11
2.56338e-09
-1.95532e-11
2.56723e-09
-2.06545e-11
2.57117e-09
-2.18236e-11
2.57548e-09
-2.30641e-11
2.57989e-09
-2.43789e-11
2.58472e-09
-2.57714e-11
2.58968e-09
-2.72443e-11
2.59511e-09
-2.88007e-11
2.60069e-09
-3.0443e-11
2.60678e-09
-3.21738e-11
2.61306e-09
-3.39946e-11
2.6199e-09
-3.59072e-11
2.62696e-09
-3.79123e-11
2.63465e-09
-4.001e-11
2.64259e-09
-4.21997e-11
2.65121e-09
-4.44797e-11
2.66012e-09
-4.68472e-11
2.66977e-09
-4.92978e-11
2.67975e-09
-5.18261e-11
2.69052e-09
-5.44241e-11
2.70166e-09
-5.7083e-11
2.71364e-09
-5.97902e-11
2.72601e-09
-6.25326e-11
2.73928e-09
-6.52923e-11
2.75294e-09
-6.80509e-11
2.76753e-09
-7.07847e-11
2.7825e-09
-7.34693e-11
2.79841e-09
-7.60751e-11
2.81467e-09
-7.85717e-11
2.83184e-09
-8.09243e-11
2.84928e-09
-8.30975e-11
2.86758e-09
-8.50532e-11
2.88603e-09
-8.67533e-11
2.90524e-09
-8.81599e-11
2.92443e-09
-8.92358e-11
2.94423e-09
-8.99482e-11
2.96381e-09
-9.02657e-11
2.9838e-09
-9.01658e-11
3.00335e-09
-8.9628e-11
3.02307e-09
-8.86444e-11
3.04213e-09
-8.72088e-11
3.06112e-09
-8.53299e-11
3.07922e-09
-8.3017e-11
3.09701e-09
-8.02941e-11
3.11374e-09
-7.71841e-11
3.12995e-09
-7.37234e-11
3.14495e-09
-6.99451e-11
3.15926e-09
-6.58932e-11
3.17228e-09
-6.16068e-11
3.18448e-09
-5.7133e-11
3.19536e-09
-5.25131e-11
3.20532e-09
-4.7793e-11
3.214e-09
-4.30125e-11
3.22171e-09
-3.82134e-11
3.22821e-09
-3.34317e-11
3.23373e-09
-2.87023e-11
3.23813e-09
-2.40558e-11
3.24159e-09
-1.95192e-11
3.24405e-09
-1.51167e-11
3.24561e-09
-1.08667e-11
3.24631e-09
-6.78663e-12
3.24617e-09
-2.88589e-12
3.24531e-09
8.2159e-13
3.24368e-09
4.33462e-12
3.24147e-09
7.65222e-12
3.23856e-09
1.07803e-11
3.23519e-09
1.37207e-11
3.23118e-09
1.64828e-11
3.22682e-09
1.90723e-11
3.22189e-09
2.15013e-11
3.21668e-09
2.37785e-11
3.21095e-09
2.59173e-11
3.20502e-09
2.79281e-11
3.1986e-09
2.98238e-11
3.19204e-09
3.16155e-11
3.18501e-09
3.33145e-11
3.17788e-09
3.49314e-11
3.1703e-09
3.64748e-11
3.16264e-09
3.79543e-11
3.15454e-09
3.93752e-11
3.14638e-09
4.07453e-11
3.13779e-09
4.20667e-11
3.12915e-09
4.3345e-11
3.12007e-09
4.45791e-11
3.11097e-09
4.57723e-11
3.10142e-09
4.69208e-11
3.09187e-09
4.80256e-11
3.08187e-09
4.90808e-11
3.0719e-09
5.00852e-11
3.06147e-09
5.10314e-11
3.05111e-09
5.19168e-11
3.04029e-09
5.27331e-11
3.02961e-09
5.34767e-11
3.01845e-09
5.41397e-11
3.00749e-09
5.47179e-11
2.99607e-09
5.52045e-11
2.98492e-09
5.55956e-11
2.97332e-09
5.58864e-11
2.96207e-09
5.60736e-11
2.95039e-09
5.6155e-11
2.93912e-09
5.61285e-11
2.92745e-09
5.59946e-11
2.91628e-09
5.57526e-11
2.90473e-09
5.54058e-11
2.89373e-09
5.49551e-11
2.8824e-09
5.4406e-11
2.87168e-09
5.3761e-11
2.86066e-09
5.30275e-11
2.85029e-09
5.22093e-11
2.83964e-09
5.13151e-11
2.82969e-09
5.03495e-11
2.81949e-09
4.93221e-11
2.81001e-09
4.82381e-11
2.80031e-09
4.71073e-11
2.79133e-09
4.5935e-11
2.78216e-09
4.47309e-11
2.77371e-09
4.35002e-11
2.76508e-09
4.22518e-11
2.75718e-09
4.09907e-11
2.74911e-09
3.9725e-11
2.74174e-09
3.84591e-11
2.73421e-09
3.72e-11
2.72737e-09
3.59515e-11
2.72038e-09
3.47195e-11
2.71404e-09
3.35071e-11
2.70756e-09
3.2319e-11
2.7017e-09
3.11578e-11
2.6957e-09
3.00269e-11
2.6903e-09
2.89283e-11
2.68475e-09
2.78645e-11
2.67976e-09
2.6837e-11
2.67462e-09
2.58473e-11
2.67002e-09
2.48964e-11
2.66526e-09
2.3985e-11
2.66101e-09
2.31139e-11
2.6566e-09
2.22831e-11
2.65265e-09
2.14931e-11
2.64855e-09
2.07434e-11
2.64488e-09
2.00343e-11
2.64105e-09
1.93649e-11
2.63764e-09
1.87353e-11
2.63405e-09
1.81445e-11
2.63084e-09
1.75925e-11
2.62746e-09
1.7078e-11
2.62444e-09
1.66009e-11
2.62123e-09
1.616e-11
2.61837e-09
1.57551e-11
2.61531e-09
1.53849e-11
2.61258e-09
1.50493e-11
2.60963e-09
1.47471e-11
2.607e-09
1.44776e-11
2.60424e-09
1.4242e-11
2.60152e-09
1.40292e-11
2.59887e-09
1.38822e-11
1.36367e-11
2.50002e-09
-1.5841e-13
2.50009e-09
-5.92197e-13
2.50023e-09
-9.42025e-13
2.50041e-09
-1.27438e-12
2.50067e-09
-1.60237e-12
2.50096e-09
-1.92827e-12
2.50132e-09
-2.25118e-12
2.50172e-09
-2.57146e-12
2.50218e-09
-2.88951e-12
2.50268e-09
-3.20548e-12
2.50325e-09
-3.51948e-12
2.50385e-09
-3.8319e-12
2.50451e-09
-4.1431e-12
2.5052e-09
-4.4537e-12
2.50597e-09
-4.76428e-12
2.50675e-09
-5.07569e-12
2.50761e-09
-5.38871e-12
2.50848e-09
-5.70441e-12
2.50943e-09
-6.02378e-12
2.51039e-09
-6.34811e-12
2.51144e-09
-6.67859e-12
2.51249e-09
-7.01672e-12
2.51364e-09
-7.36391e-12
2.51479e-09
-7.72183e-12
2.51604e-09
-8.09211e-12
2.51729e-09
-8.47662e-12
2.51865e-09
-8.87721e-12
2.52e-09
-9.29594e-12
2.52148e-09
-9.73486e-12
2.52296e-09
-1.01963e-11
2.52457e-09
-1.06824e-11
2.52618e-09
-1.11957e-11
2.52794e-09
-1.17388e-11
2.5297e-09
-1.23143e-11
2.53162e-09
-1.2925e-11
2.53355e-09
-1.35738e-11
2.53567e-09
-1.42637e-11
2.53779e-09
-1.49978e-11
2.54012e-09
-1.57794e-11
2.54247e-09
-1.66119e-11
2.54505e-09
-1.74989e-11
2.54765e-09
-1.84438e-11
2.55051e-09
-1.94506e-11
2.55342e-09
-2.05229e-11
2.55661e-09
-2.16649e-11
2.55985e-09
-2.28804e-11
2.56342e-09
-2.41738e-11
2.56706e-09
-2.5549e-11
2.57106e-09
-2.70105e-11
2.57515e-09
-2.85621e-11
2.57965e-09
-3.02084e-11
2.58427e-09
-3.19531e-11
2.58934e-09
-3.38006e-11
2.59455e-09
-3.57541e-11
2.60027e-09
-3.78177e-11
2.60617e-09
-3.9994e-11
2.61263e-09
-4.22861e-11
2.61931e-09
-4.46957e-11
2.62662e-09
-4.72243e-11
2.63418e-09
-4.98724e-11
2.64244e-09
-5.26392e-11
2.651e-09
-5.55228e-11
2.66033e-09
-5.85197e-11
2.67002e-09
-6.16247e-11
2.68053e-09
-6.483e-11
2.69146e-09
-6.81265e-11
2.70329e-09
-7.15005e-11
2.71557e-09
-7.49376e-11
2.72883e-09
-7.84171e-11
2.74257e-09
-8.19174e-11
2.75733e-09
-8.541e-11
2.77259e-09
-8.88649e-11
2.78891e-09
-9.22446e-11
2.80571e-09
-9.551e-11
2.82356e-09
-9.86153e-11
2.84182e-09
-1.01513e-10
2.86109e-09
-1.04151e-10
2.88066e-09
-1.06475e-10
2.90111e-09
-1.08433e-10
2.92169e-09
-1.09969e-10
2.94297e-09
-1.11037e-10
2.96413e-09
-1.11588e-10
2.98576e-09
-1.1159e-10
3.00699e-09
-1.11012e-10
3.02841e-09
-1.0984e-10
3.04912e-09
-1.08066e-10
3.06972e-09
-1.05701e-10
3.08935e-09
-1.0276e-10
3.10857e-09
-9.92765e-11
3.12659e-09
-9.5285e-11
3.14394e-09
-9.0837e-11
3.15993e-09
-8.59798e-11
3.17505e-09
-8.07752e-11
3.18871e-09
-7.5278e-11
3.20137e-09
-6.95531e-11
3.21254e-09
-6.36568e-11
3.22264e-09
-5.76513e-11
3.23128e-09
-5.15898e-11
3.23881e-09
-4.55271e-11
3.24499e-09
-3.95106e-11
3.25008e-09
-3.3585e-11
3.25395e-09
-2.77896e-11
3.25678e-09
-2.21578e-11
3.25854e-09
-1.67197e-11
3.25933e-09
-1.14972e-11
3.25924e-09
-6.51056e-12
3.25826e-09
-1.77081e-12
3.25657e-09
2.70563e-12
3.2541e-09
6.92364e-12
3.25106e-09
1.08838e-11
3.24734e-09
1.45963e-11
3.24319e-09
1.80652e-11
3.23844e-09
2.1305e-11
3.23338e-09
2.43251e-11
3.22779e-09
2.71434e-11
3.22198e-09
2.9773e-11
3.21569e-09
3.2233e-11
3.20926e-09
3.45384e-11
3.20238e-09
3.67073e-11
3.19541e-09
3.87555e-11
3.18803e-09
4.06981e-11
3.18057e-09
4.25501e-11
3.17271e-09
4.43228e-11
3.16479e-09
4.60291e-11
3.15648e-09
4.76757e-11
3.14811e-09
4.9273e-11
3.13933e-09
5.0823e-11
3.13051e-09
5.23329e-11
3.12127e-09
5.38007e-11
3.11198e-09
5.52302e-11
3.10226e-09
5.66157e-11
3.09252e-09
5.7958e-11
3.08232e-09
5.92483e-11
3.07213e-09
6.04846e-11
3.06147e-09
6.16561e-11
3.05085e-09
6.27586e-11
3.03976e-09
6.37804e-11
3.02877e-09
6.47156e-11
3.01729e-09
6.55532e-11
3.00599e-09
6.62866e-11
2.99422e-09
6.69064e-11
2.98269e-09
6.74064e-11
2.97071e-09
6.77801e-11
2.95906e-09
6.80223e-11
2.94697e-09
6.81299e-11
2.93531e-09
6.80999e-11
2.92324e-09
6.79328e-11
2.91167e-09
6.76278e-11
2.89974e-09
6.71891e-11
2.88839e-09
6.6618e-11
2.87671e-09
6.59222e-11
2.86567e-09
6.51049e-11
2.85434e-09
6.41763e-11
2.8437e-09
6.31412e-11
2.83281e-09
6.20117e-11
2.82265e-09
6.07937e-11
2.81226e-09
5.95e-11
2.80263e-09
5.81373e-11
2.7928e-09
5.67187e-11
2.78374e-09
5.52508e-11
2.7745e-09
5.37464e-11
2.76603e-09
5.22119e-11
2.75739e-09
5.06589e-11
2.74951e-09
4.90936e-11
2.74148e-09
4.75261e-11
2.73419e-09
4.5962e-11
2.72675e-09
4.44098e-11
2.72002e-09
4.28743e-11
2.71315e-09
4.13623e-11
2.70697e-09
3.9878e-11
2.70064e-09
3.84265e-11
2.69495e-09
3.7011e-11
2.68913e-09
3.56355e-11
2.68392e-09
3.43022e-11
2.67856e-09
3.30138e-11
2.67377e-09
3.17718e-11
2.66885e-09
3.05779e-11
2.66445e-09
2.94331e-11
2.65991e-09
2.8338e-11
2.65586e-09
2.72932e-11
2.65166e-09
2.62985e-11
2.64793e-09
2.53544e-11
2.64404e-09
2.44599e-11
2.64059e-09
2.36152e-11
2.63697e-09
2.28192e-11
2.63375e-09
2.20717e-11
2.63037e-09
2.13714e-11
2.62736e-09
2.0718e-11
2.62418e-09
2.01099e-11
2.62135e-09
1.95471e-11
2.61834e-09
1.90277e-11
2.61566e-09
1.85516e-11
2.61278e-09
1.81171e-11
2.61023e-09
1.7724e-11
2.60746e-09
1.73707e-11
2.605e-09
1.70566e-11
2.60241e-09
1.67828e-11
2.59985e-09
1.65362e-11
2.59736e-09
1.63679e-11
1.60845e-11
2.50002e-09
-1.85567e-13
2.50009e-09
-6.90772e-13
2.50023e-09
-1.10015e-12
2.50042e-09
-1.48913e-12
2.50067e-09
-1.87264e-12
2.50097e-09
-2.25314e-12
2.50133e-09
-2.62949e-12
2.50174e-09
-3.00201e-12