/*--------------------------------*- C++ -*----------------------------------*\
  =========                 |
  \\      /  F ield         | OpenFOAM: The Open Source CFD Toolbox
   \\    /   O peration     | Website:  https://openfoam.org
    \\  /    A nd           | Version:  10
     \\/     M anipulation  |
\*---------------------------------------------------------------------------*/
FoamFile
{
    format      ascii;
    class       volVectorField;
    location    "4.4";
    object      Ua;
}
// * * * * * * * * * * * * * * * * * * * * * * * * * * * * * * * * * * * * * //

dimensions      [0 1 -1 0 0 0 0];

internalField   nonuniform List<vector> 
12225
(
(-2.6788e-06 5.39607e-07 0)
(-8.6498e-06 6.90767e-07 0)
(-1.65706e-05 1.01159e-06 0)
(-2.80176e-05 1.55218e-06 0)
(-4.49312e-05 2.39378e-06 0)
(-6.98076e-05 3.65077e-06 0)
(-0.000105861 5.47274e-06 0)
(-0.000157152 8.044e-06 0)
(-0.000228652 1.15786e-05 0)
(-0.000326231 1.631e-05 0)
(-0.000456562 2.24807e-05 0)
(-0.000627004 3.03486e-05 0)
(-0.000845738 4.02579e-05 0)
(-0.00112284 5.29035e-05 0)
(-0.00147427 7.01743e-05 0)
(-0.00193536 9.81194e-05 0)
(-0.00261474 0.000160566 0)
(-0.00399434 0.000388552 0)
(-2.64662e-06 1.6506e-06 0)
(-8.54647e-06 2.11312e-06 0)
(-1.63746e-05 3.09478e-06 0)
(-2.76902e-05 4.74901e-06 0)
(-4.44137e-05 7.32454e-06 0)
(-6.90169e-05 1.11718e-05 0)
(-0.000104687 1.67494e-05 0)
(-0.000155452 2.46226e-05 0)
(-0.000226255 3.54486e-05 0)
(-0.000322939 4.99446e-05 0)
(-0.000452147 6.88538e-05 0)
(-0.000621182 9.29584e-05 0)
(-0.000838042 0.00012328 0)
(-0.0011122 0.000161827 0)
(-0.00145749 0.000213924 0)
(-0.00190032 0.000295837 0)
(-0.00249703 0.000464746 0)
(-0.00328728 0.000968738 0)
(-2.57557e-06 2.81795e-06 0)
(-8.31834e-06 3.60806e-06 0)
(-1.59418e-05 5.28511e-06 0)
(-2.69673e-05 8.11151e-06 0)
(-4.32707e-05 1.25129e-05 0)
(-6.72703e-05 1.90894e-05 0)
(-0.00010209 2.86276e-05 0)
(-0.000151693 4.20987e-05 0)
(-0.000220953 6.06335e-05 0)
(-0.000315656 8.54674e-05 0)
(-0.000442381 0.000117875 0)
(-0.000608317 0.000159172 0)
(-0.000821106 0.000210992 0)
(-0.00108906 0.000276369 0)
(-0.00142219 0.000362958 0)
(-0.00183374 0.000492376 0)
(-0.0023313 0.000728448 0)
(-0.00281533 0.00125928 0)
(-2.45847e-06 4.0236e-06 0)
(-7.94236e-06 5.15293e-06 0)
(-1.52284e-05 7.55024e-06 0)
(-2.57755e-05 1.15913e-05 0)
(-4.13857e-05 1.78861e-05 0)
(-6.43885e-05 2.72963e-05 0)
(-9.78046e-05 4.09533e-05 0)
(-0.000145483 6.02584e-05 0)
(-0.000212188 8.68478e-05 0)
(-0.000303605 0.000122512 0)
(-0.000426223 0.00016909 0)
(-0.000587073 0.000228419 0)
(-0.000793328 0.000302609 0)
(-0.0010518 0.000395186 0)
(-0.00136802 0.000514402 0)
(-0.00174265 0.000681431 0)
(-0.0021532 0.000948083 0)
(-0.00248147 0.00141733 0)
(-2.28794e-06 5.24142e-06 0)
(-7.39472e-06 6.71487e-06 0)
(-1.41891e-05 9.8431e-06 0)
(-2.40388e-05 1.51176e-05 0)
(-3.86375e-05 2.33377e-05 0)
(-6.01839e-05 3.56345e-05 0)
(-9.15455e-05 5.34983e-05 0)
(-0.000136403 7.87825e-05 0)
(-0.000199356 0.000113662 0)
(-0.000285944 0.000160523 0)
(-0.000402537 0.000221805 0)
(-0.000556006 0.000299856 0)
(-0.000753062 0.000397068 0)
(-0.000999051 0.000516791 0)
(-0.0012955 0.000665969 0)
(-0.00163394 0.000860641 0)
(-0.00197906 0.00113304 0)
(-0.00223268 0.00152232 0)
(-2.05675e-06 6.43546e-06 0)
(-6.65226e-06 8.24861e-06 0)
(-1.27798e-05 1.20988e-05 0)
(-2.16825e-05 1.85929e-05 0)
(-3.49063e-05 2.87199e-05 0)
(-5.44698e-05 4.38837e-05 0)
(-8.30277e-05 6.59422e-05 0)
(-0.000124026 9.72194e-05 0)
(-0.00018183 0.000140461 0)
(-0.000261779 0.0001987 0)
(-0.000370106 0.000275025 0)
(-0.000513567 0.000372298 0)
(-0.000698585 0.000493017 0)
(-0.00092951 0.000639705 0)
(-0.00120523 0.000816389 0)
(-0.00151258 0.00103119 0)
(-0.00181463 0.00129674 0)
(-0.00203892 0.00161441 0)
(-1.75857e-06 7.5583e-06 0)
(-5.69448e-06 9.69438e-06 0)
(-1.09611e-05 1.42313e-05 0)
(-1.86402e-05 2.18874e-05 0)
(-3.00843e-05 3.38358e-05 0)
(-4.7075e-05 5.1749e-05 0)
(-7.19845e-05 7.78531e-05 0)
(-0.000107942 0.000114955 0)
(-0.000158992 0.000166403 0)
(-0.000230207 0.000235934 0)
(-0.000327658 0.000327367 0)
(-0.000458093 0.00044414 0)
(-0.000628002 0.000588776 0)
(-0.000841605 0.000762537 0)
(-0.00109712 0.000965514 0)
(-0.00138079 0.00119691 0)
(-0.0016598 0.0014529 0)
(-0.00188209 0.00171528 0)
(-1.38879e-06 8.54969e-06 0)
(-4.50653e-06 1.09761e-05 0)
(-8.70443e-06 1.61312e-05 0)
(-1.48624e-05 2.48354e-05 0)
(-2.40896e-05 3.84326e-05 0)
(-3.78659e-05 5.88491e-05 0)
(-5.81986e-05 8.86684e-05 0)
(-8.78007e-05 0.000131181 0)
(-0.000130287 0.000190365 0)
(-0.000190362 0.000270731 0)
(-0.000273907 0.000376955 0)
(-0.000387796 0.000513213 0)
(-0.000539086 0.000682199 0)
(-0.000733055 0.000883875 0)
(-0.000969535 0.00111414 0)
(-0.00123759 0.00136345 0)
(-0.00151087 0.0016147 0)
(-0.00175037 0.00183924 0)
(-9.4583e-07 9.33587e-06 0)
(-3.08318e-06 1.20007e-05 0)
(-5.99931e-06 1.76641e-05 0)
(-1.03298e-05 2.72325e-05 0)
(-1.68867e-05 4.2197e-05 0)
(-2.67767e-05 6.47086e-05 0)
(-4.15474e-05 9.7679e-05 0)
(-6.33749e-05 0.000144866 0)
(-9.53014e-05 0.000210891 0)
(-0.000141518 0.000301119 0)
(-0.00020763 0.000421263 0)
(-0.000300752 0.000576567 0)
(-0.000429069 0.000770369 0)
(-0.000600292 0.00100191 0)
(-0.000818351 0.00126349 0)
(-0.00107826 0.00153761 0)
(-0.00136116 0.00179551 0)
(-0.001635 0.00199974 0)
(-4.32685e-07 9.83024e-06 0)
(-1.43395e-06 1.26586e-05 0)
(-2.86323e-06 1.86713e-05 0)
(-5.06984e-06 2.88371e-05 0)
(-8.51353e-06 4.47564e-05 0)
(-1.38516e-05 6.8756e-05 0)
(-2.20661e-05 0.000104023 0)
(-3.46513e-05 0.000154735 0)
(-5.38883e-05 0.000226147 0)
(-8.32344e-05 0.000324545 0)
(-0.000127823 0.00045692 0)
(-0.00019498 0.000630103 0)
(-0.000294467 0.000849011 0)
(-0.000437818 0.00111357 0)
(-0.000635786 0.00141422 0)
(-0.000892953 0.00172684 0)
(-0.0012 0.00201053 0)
(-0.00152797 0.00221442 0)
(1.41121e-07 9.93603e-06 0)
(4.10611e-07 1.28274e-05 0)
(6.46237e-07 1.89755e-05 0)
(8.22895e-07 2.93773e-05 0)
(8.8506e-07 4.5688e-05 0)
(7.01239e-07 7.03367e-05 0)
(-3.13111e-08 0.000106697 0)
(-1.9575e-06 0.000159275 0)
(-6.35468e-06 0.000233893 0)
(-1.56147e-05 0.000337783 0)
(-3.39973e-05 0.000479462 0)
(-6.86931e-05 0.000668043 0)
(-0.000131069 0.000911481 0)
(-0.000237544 0.00121293 0)
(-0.00040868 0.00156443 0)
(-0.00066396 0.00193815 0)
(-0.00100941 0.00227925 0)
(-0.00141959 0.00251158 0)
(7.06366e-07 9.62298e-06 0)
(2.22792e-06 1.24656e-05 0)
(4.10553e-06 1.85105e-05 0)
(6.63769e-06 2.87433e-05 0)
(1.01783e-05 4.48073e-05 0)
(1.51412e-05 6.91379e-05 0)
(2.19489e-05 0.000105169 0)
(3.09022e-05 0.000157579 0)
(4.19167e-05 0.000232578 0)
(5.40111e-05 0.000338206 0)
(6.43746e-05 0.000484506 0)
(6.67943e-05 0.000683305 0)
(4.92551e-05 0.000946951 0)
(-9.10955e-06 0.00128483 0)
(-0.000140349 0.00169579 0)
(-0.000385151 0.00215458 0)
(-0.000776944 0.00259389 0)
(-0.0013039 0.0028966 0)
(1.27934e-06 8.80116e-06 0)
(4.07005e-06 1.14616e-05 0)
(7.61298e-06 1.71179e-05 0)
(1.25378e-05 2.66952e-05 0)
(1.96231e-05 4.17414e-05 0)
(2.98616e-05 6.4574e-05 0)
(4.4467e-05 9.85224e-05 0)
(6.48102e-05 0.000148217 0)
(9.22372e-05 0.000219991 0)
(0.00012762 0.000322406 0)
(0.000170386 0.000466885 0)
(0.000216609 0.000668282 0)
(0.000255514 0.000944918 0)
(0.000263748 0.00131673 0)
(0.000197648 0.00179853 0)
(-1.23468e-05 0.00238239 0)
(-0.000450143 0.0030011 0)
(-0.00115098 0.0034744 0)
(1.91253e-06 7.20475e-06 0)
(6.10517e-06 9.4855e-06 0)
(1.14876e-05 1.43293e-05 0)
(1.90578e-05 2.25282e-05 0)
(3.00742e-05 3.54051e-05 0)
(4.62057e-05 5.49632e-05 0)
(6.96211e-05 8.41682e-05 0)
(0.000103037 0.000127245 0)
(0.000149722 0.000190168 0)
(0.000213303 0.000281433 0)
(0.000297091 0.000413245 0)
(0.000402375 0.000603291 0)
(0.000524488 0.000877204 0)
(0.000644435 0.00127124 0)
(0.000712556 0.00183265 0)
(0.000621282 0.00260867 0)
(0.000177248 0.00359657 0)
(-0.000848456 0.00457949 0)
(2.5323e-06 4.51026e-06 0)
(8.09451e-06 6.13198e-06 0)
(1.52707e-05 9.5597e-06 0)
(2.54169e-05 1.5352e-05 0)
(4.02613e-05 2.44104e-05 0)
(6.21794e-05 3.80986e-05 0)
(9.43765e-05 5.86006e-05 0)
(0.000141082 8.90962e-05 0)
(0.000207887 0.000134221 0)
(0.000302102 0.000200907 0)
(0.000433056 0.000299883 0)
(0.000611984 0.000448422 0)
(0.000850504 0.000675555 0)
(0.00115456 0.00103204 0)
(0.00150485 0.00160954 0)
(0.00179801 0.00257671 0)
(0.00167519 0.00424431 0)
(3.17994e-05 0.00716983 0)
(2.98302e-06 4.57467e-07 0)
(9.53137e-06 1.08422e-06 0)
(1.7989e-05 2.35301e-06 0)
(2.99538e-05 4.49584e-06 0)
(4.74423e-05 7.75037e-06 0)
(7.33901e-05 1.23147e-05 0)
(0.000111867 1.90847e-05 0)
(0.000168324 2.92833e-05 0)
(0.000250366 4.46576e-05 0)
(0.000368842 6.79011e-05 0)
(0.000539672 0.000103387 0)
(0.00078713 0.000158652 0)
(0.00115015 0.000247531 0)
(0.00169502 0.000397063 0)
(0.00254195 0.000663249 0)
(0.00392315 0.0011682 0)
(0.00631379 0.0021901 0)
(0.0107358 0.00438585 0)
(7.29906e-09 -9.60752e-07 0)
(1.27956e-08 -9.43289e-07 0)
(1.04075e-08 -9.48385e-07 0)
(9.6237e-09 -9.52443e-07 0)
(9.80959e-09 -1.0347e-06 0)
(1.24977e-08 -1.73797e-06 0)
(1.88355e-08 -3.13719e-06 0)
(2.89101e-08 -5.12214e-06 0)
(4.37788e-08 -7.84086e-06 0)
(6.55069e-08 -1.15373e-05 0)
(9.75125e-08 -1.65991e-05 0)
(1.45549e-07 -2.36372e-05 0)
(2.19578e-07 -3.36302e-05 0)
(3.37511e-07 -4.81847e-05 0)
(5.33011e-07 -7.00161e-05 0)
(8.72547e-07 -0.000103852 0)
(1.49472e-06 -0.000158201 0)
(2.70792e-06 -0.000249149 0)
(1.85284e-06 2.23139e-06 0)
(5.59987e-06 2.62185e-06 0)
(9.68154e-06 2.6248e-06 0)
(1.44895e-05 2.36549e-06 0)
(2.02466e-05 1.88892e-06 0)
(2.67898e-05 8.94006e-07 0)
(3.37274e-05 -7.50663e-07 0)
(4.11619e-05 -3.34895e-06 0)
(4.93774e-05 -6.80854e-06 0)
(5.84184e-05 -1.13362e-05 0)
(6.83065e-05 -1.73342e-05 0)
(7.90451e-05 -2.53785e-05 0)
(9.0536e-05 -3.63001e-05 0)
(0.00010241 -5.13089e-05 0)
(0.000113684 -7.2183e-05 0)
(0.00012207 -0.000101571 0)
(0.00012259 -0.000143516 0)
(0.000104758 -0.00020455 0)
(2.88659e-06 6.94952e-06 0)
(8.76315e-06 7.79297e-06 0)
(1.48939e-05 7.72904e-06 0)
(2.13704e-05 6.9985e-06 0)
(2.82505e-05 5.72425e-06 0)
(3.55196e-05 3.90572e-06 0)
(4.31375e-05 1.54984e-06 0)
(5.09225e-05 -1.88614e-06 0)
(5.88338e-05 -6.60088e-06 0)
(6.69576e-05 -1.24291e-05 0)
(7.51758e-05 -1.97048e-05 0)
(8.32839e-05 -2.88228e-05 0)
(9.09393e-05 -4.02293e-05 0)
(9.7601e-05 -5.43806e-05 0)
(0.000102474 -7.16389e-05 0)
(0.000104504 -9.20499e-05 0)
(0.00010252 -0.000114895 0)
(9.57547e-05 -0.000137823 0)
(3.38657e-06 1.12925e-05 0)
(1.03166e-05 1.20539e-05 0)
(1.75345e-05 1.17816e-05 0)
(2.50049e-05 1.06778e-05 0)
(3.2707e-05 8.89709e-06 0)
(4.06098e-05 6.51296e-06 0)
(4.86755e-05 3.53464e-06 0)
(5.67776e-05 -1.86144e-07 0)
(6.48107e-05 -5.46088e-06 0)
(7.27474e-05 -1.1768e-05 0)
(8.04562e-05 -1.92398e-05 0)
(8.76979e-05 -2.80469e-05 0)
(9.41578e-05 -3.83044e-05 0)
(9.94487e-05 -5.00195e-05 0)
(0.000103139 -6.30218e-05 0)
(0.000104821 -7.6885e-05 0)
(0.000104231 -9.08665e-05 0)
(0.000101414 -0.000103928 0)
(3.99446e-06 1.45372e-05 0)
(1.2106e-05 1.50011e-05 0)
(2.04261e-05 1.44529e-05 0)
(2.88903e-05 1.30575e-05 0)
(3.74472e-05 1.09654e-05 0)
(4.6048e-05 8.26466e-06 0)
(5.4641e-05 4.97849e-06 0)
(6.31638e-05 1.07201e-06 0)
(7.14233e-05 -4.1945e-06 0)
(7.9272e-05 -1.0467e-05 0)
(8.66305e-05 -1.76178e-05 0)
(9.33017e-05 -2.56923e-05 0)
(9.90584e-05 -3.46679e-05 0)
(0.000103662 -4.44257e-05 0)
(0.000106894 -5.47282e-05 0)
(0.000108603 -6.5213e-05 0)
(0.000108755 -7.54166e-05 0)
(0.000107474 -8.48439e-05 0)
(4.65932e-06 1.68588e-05 0)
(1.40438e-05 1.70228e-05 0)
(2.35233e-05 1.62175e-05 0)
(3.30256e-05 1.45949e-05 0)
(4.24818e-05 1.23003e-05 0)
(5.18277e-05 9.42766e-06 0)
(6.09973e-05 6.01395e-06 0)
(6.99169e-05 2.04973e-06 0)
(7.83979e-05 -2.92894e-06 0)
(8.62836e-05 -8.89561e-06 0)
(9.34941e-05 -1.55009e-05 0)
(9.98782e-05 -2.27265e-05 0)
(0.000105281 -3.04973e-05 0)
(0.000109561 -3.8671e-05 0)
(0.000112614 -4.70369e-05 0)
(0.000114399 -5.53293e-05 0)
(0.000114953 -6.32568e-05 0)
(0.000114398 -7.05465e-05 0)
(5.40548e-06 1.82333e-05 0)
(1.62146e-05 1.81468e-05 0)
(2.69818e-05 1.71391e-05 0)
(3.7627e-05 1.53638e-05 0)
(4.80694e-05 1.29654e-05 0)
(5.82328e-05 1.00423e-05 0)
(6.80416e-05 6.64278e-06 0)
(7.74158e-05 2.77645e-06 0)
(8.61831e-05 -1.81132e-06 0)
(9.41918e-05 -7.32219e-06 0)
(0.000101367 -1.32844e-05 0)
(0.0001076 -1.96516e-05 0)
(0.000112793 -2.63357e-05 0)
(0.000116871 -3.32047e-05 0)
(0.000119797 -4.00889e-05 0)
(0.000121585 -4.6796e-05 0)
(0.000122301 -5.31336e-05 0)
(0.000122064 -5.89347e-05 0)
(6.25816e-06 1.86842e-05 0)
(1.86964e-05 1.84089e-05 0)
(3.09327e-05 1.72679e-05 0)
(4.28732e-05 1.54214e-05 0)
(5.44256e-05 1.30147e-05 0)
(6.5505e-05 1.01494e-05 0)
(7.60313e-05 6.88185e-06 0)
(8.59249e-05 3.23506e-06 0)
(9.50361e-05 -8.97706e-07 0)
(0.000103228 -5.86467e-06 0)
(0.000110433 -1.11399e-05 0)
(0.000116584 -1.66686e-05 0)
(0.000121626 -2.23663e-05 0)
(0.000125534 -2.81209e-05 0)
(0.000128315 -3.37997e-05 0)
(0.000130016 -3.92624e-05 0)
(0.000130724 -4.4377e-05 0)
(0.000130558 -4.90349e-05 0)
(7.24891e-06 1.82538e-05 0)
(2.15817e-05 1.78516e-05 0)
(3.55246e-05 1.66517e-05 0)
(4.89612e-05 1.48187e-05 0)
(6.17862e-05 1.24972e-05 0)
(7.39094e-05 9.78959e-06 0)
(8.52514e-05 6.75638e-06 0)
(9.57399e-05 3.42833e-06 0)
(0.000105257 -2.08682e-07 0)
(0.00011368 -4.56907e-06 0)
(0.000120955 -9.1355e-06 0)
(0.000127053 -1.3849e-05 0)
(0.00013196 -1.86358e-05 0)
(0.000135687 -2.34044e-05 0)
(0.000138276 -2.80529e-05 0)
(0.000139801 -3.24786e-05 0)
(0.000140364 -3.65893e-05 0)
(0.000140092 -4.03121e-05 0)
(8.42301e-06 1.6986e-05 0)
(2.5002e-05 1.65161e-05 0)
(4.09653e-05 1.5333e-05 0)
(5.61637e-05 1.35995e-05 0)
(7.04773e-05 1.14554e-05 0)
(8.38133e-05 8.99992e-06 0)
(9.60998e-05 6.29339e-06 0)
(0.000107278 3.36933e-06 0)
(0.000117296 2.47136e-07 0)
(0.000126025 -3.44212e-06 0)
(0.000133394 -7.28615e-06 0)
(0.000139443 -1.12035e-05 0)
(0.000144195 -1.51332e-05 0)
(0.000147698 -1.90036e-05 0)
(0.000150025 -2.27376e-05 0)
(0.000151274 -2.62608e-05 0)
(0.000151567 -2.95083e-05 0)
(0.000151035 -3.24312e-05 0)
(9.85568e-06 1.4909e-05 0)
(2.91754e-05 1.44286e-05 0)
(4.75997e-05 1.33391e-05 0)
(6.49343e-05 1.17931e-05 0)
(8.10421e-05 9.91903e-06 0)
(9.58325e-05 7.80737e-06 0)
(0.000109248 5.5142e-06 0)
(0.000121252 3.07171e-06 0)
(0.000131823 4.99853e-07 0)
(0.000140877 -2.47387e-06 0)
(0.000148377 -5.58235e-06 0)
(0.00015439 -8.71487e-06 0)
(0.000158975 -1.18238e-05 0)
(0.000162213 -1.4855e-05 0)
(0.000164207 -1.77521e-05 0)
(0.000165081 -2.04618e-05 0)
(0.000164973 -2.29392e-05 0)
(0.000164031 -2.5152e-05 0)
(1.16948e-05 1.20119e-05 0)
(3.45323e-05 1.15783e-05 0)
(5.611e-05 1.06633e-05 0)
(7.61723e-05 9.39788e-06 0)
(9.45619e-05 7.89042e-06 0)
(0.000111196 6.21679e-06 0)
(0.000126042 4.42406e-06 0)
(0.000139098 2.53958e-06 0)
(0.000150379 5.8076e-07 0)
(0.000159853 -1.65442e-06 0)
(0.000167528 -4.00806e-06 0)
(0.000173503 -6.35534e-06 0)
(0.000177876 -8.66108e-06 0)
(0.000180763 -1.08863e-05 0)
(0.000182301 -1.29914e-05 0)
(0.000182638 -1.494e-05 0)
(0.000181933 -1.67027e-05 0)
(0.000180352 -1.82592e-05 0)
(1.431e-05 8.18699e-06 0)
(4.21494e-05 7.86337e-06 0)
(6.82085e-05 7.21556e-06 0)
(9.21419e-05 6.33861e-06 0)
(0.000113767 5.30982e-06 0)
(0.000133018 4.18285e-06 0)
(0.000149903 2.99079e-06 0)
(0.000164472 1.75283e-06 0)
(0.000176799 4.81425e-07 0)
(0.000186913 -9.72325e-07 0)
(0.000194871 -2.53009e-06 0)
(0.000200807 -4.06339e-06 0)
(0.000204857 -5.54826e-06 0)
(0.000207176 -6.9597e-06 0)
(0.000207936 -8.27366e-06 0)
(0.000207326 -9.46933e-06 0)
(0.000205544 -1.05312e-05 0)
(0.000202793 -1.14503e-05 0)
(1.91784e-05 2.97634e-06 0)
(5.63386e-05 2.85007e-06 0)
(9.07682e-05 2.60514e-06 0)
(0.000121957 2.27799e-06 0)
(0.000149681 1.89799e-06 0)
(0.000173909 1.48537e-06 0)
(0.000194729 1.05253e-06 0)
(0.000212288 6.06634e-07 0)
(0.000226765 1.524e-07 0)
(0.000238168 -3.72895e-07 0)
(0.000246403 -9.46436e-07 0)
(0.00025162 -1.50423e-06 0)
(0.00025414 -2.03694e-06 0)
(0.000254304 -2.53562e-06 0)
(0.00025246 -2.9922e-06 0)
(0.000248958 -3.4003e-06 0)
(0.000244134 -3.75574e-06 0)
(0.000238308 -4.05687e-06 0)
(-1.16873e-05 2.49811e-05 3.22735e-31)
(-3.51509e-05 2.49332e-05 -3.21838e-31)
(-5.87437e-05 2.48475e-05 0)
(-8.24301e-05 2.47236e-05 0)
(-0.000106173 2.45614e-05 0)
(-0.000129935 2.4361e-05 3.13324e-31)
(-0.000153678 2.41226e-05 0)
(-0.000177362 2.38467e-05 0)
(-0.000200948 2.35342e-05 0)
(-0.000224396 2.31861e-05 0)
(-0.000247668 2.28035e-05 -2.91804e-31)
(-0.000270724 2.23879e-05 0)
(-0.000293527 2.19411e-05 0)
(-0.000316039 2.14646e-05 0)
(-0.000338224 2.09607e-05 0)
(-0.000360048 2.04313e-05 -2.59818e-31)
(-0.000381476 1.98787e-05 0)
(-0.000402478 1.93053e-05 0)
(-0.000423024 1.87134e-05 0)
(-0.000443086 1.81055e-05 0)
(-0.000462639 1.7484e-05 0)
(-0.000481659 1.68515e-05 0)
(-0.000500125 1.62104e-05 0)
(-0.000518019 1.5563e-05 -1.95032e-31)
(-0.000535323 1.49118e-05 1.86411e-31)
(-0.000552025 1.4259e-05 -1.77777e-31)
(-0.000568111 1.36068e-05 -1.69158e-31)
(-0.000583574 1.29573e-05 0)
(-0.000598405 1.23124e-05 0)
(-0.000612601 1.16741e-05 1.43652e-31)
(-0.000626157 1.10439e-05 1.35347e-31)
(-0.000639074 1.04235e-05 0)
(-0.000651352 9.81436e-06 0)
(-0.000662995 9.21775e-06 1.1131e-31)
(-0.000674008 8.63483e-06 0)
(-0.000684396 8.06665e-06 0)
(-0.000694169 7.51409e-06 -8.89228e-32)
(-0.000703334 6.97792e-06 0)
(-0.000711902 6.45877e-06 -7.50738e-32)
(-0.000719886 5.95718e-06 -1.36993e-31)
(-0.000727298 5.47354e-06 0)
(-0.000734152 5.00814e-06 0)
(-0.000740461 4.56118e-06 0)
(-0.000746241 4.13277e-06 0)
(-0.000751508 3.72291e-06 0)
(-0.000756277 3.33154e-06 -6.8263e-32)
(-0.000760565 2.95851e-06 -5.85195e-32)
(-0.000764388 2.60363e-06 -4.92558e-32)
(-0.000767764 2.26664e-06 0)
(-0.00077071 1.9472e-06 3.21381e-32)
(-0.000773242 1.64497e-06 0)
(-0.000775377 1.35954e-06 -1.68372e-32)
(-0.000777133 1.09047e-06 -9.84018e-33)
(-0.000778527 8.373e-07 0)
(-0.000779574 5.99544e-07 0)
(-0.000780291 3.76694e-07 0)
(-0.000780695 1.68229e-07 1.40828e-32)
(-0.0007808 -2.63819e-08 0)
(-0.000780623 -2.07677e-07 0)
(-0.000780179 -3.76198e-07 0)
(-0.000779481 -5.32486e-07 0)
(-0.000778545 -6.77079e-07 0)
(-0.000777385 -8.10512e-07 0)
(-0.000776012 -9.33311e-07 0)
(-0.000774442 -1.04599e-06 0)
(-0.000772685 -1.14907e-06 -4.79452e-32)
(-0.000770755 -1.24303e-06 0)
(-0.000768662 -1.32836e-06 0)
(-0.000766418 -1.40553e-06 5.44264e-32)
(-0.000764033 -1.47498e-06 5.61659e-32)
(-0.000761518 -1.53717e-06 0)
(-0.000758883 -1.5925e-06 -5.90817e-32)
(-0.000756137 -1.64138e-06 6.02807e-32)
(-0.000753288 -1.68421e-06 0)
(-0.000750347 -1.72135e-06 -6.22111e-32)
(-0.00074732 -1.75316e-06 0)
(-0.000744215 -1.77997e-06 0)
(-0.000741041 -1.80211e-06 6.40788e-32)
(-0.000737803 -1.81988e-06 0)
(-0.00073451 -1.83357e-06 -6.47379e-32)
(-0.000731166 -1.84345e-06 0)
(-0.000727779 -1.84979e-06 6.49983e-32)
(-0.000724354 -1.85281e-06 6.49956e-32)
(-0.000720897 -1.85276e-06 6.49125e-32)
(-0.000717413 -1.84983e-06 1.29509e-31)
(-0.000713906 -1.84424e-06 -1.29055e-31)
(-0.000710383 -1.83617e-06 0)
(-0.000706846 -1.82578e-06 0)
(-0.000703302 -1.81324e-06 0)
(-0.000699753 -1.7987e-06 -1.26032e-31)
(-0.000696204 -1.7823e-06 -1.25016e-31)
(-0.000692659 -1.76415e-06 1.23911e-31)
(-0.000689121 -1.74437e-06 0)
(-0.000685595 -1.72307e-06 -1.21453e-31)
(-0.000682082 -1.70034e-06 -1.20113e-31)
(-0.000678588 -1.67627e-06 -1.18703e-31)
(-0.000675114 -1.65094e-06 0)
(-0.000671665 -1.6244e-06 0)
(-0.000668243 -1.59674e-06 0)
(-0.000664852 -1.56799e-06 -1.12457e-31)
(-0.000661494 -1.53822e-06 0)
(-0.000658173 -1.50746e-06 0)
(-0.000654891 -1.47575e-06 1.07218e-31)
(-0.000651652 -1.44315e-06 0)
(-0.000648459 -1.40967e-06 0)
(-0.000645313 -1.37535e-06 1.01575e-31)
(-0.00064222 -1.34024e-06 0)
(-0.00063918 -1.30436e-06 0)
(-0.000636198 -1.26775e-06 -9.55813e-32)
(-0.000633275 -1.23045e-06 -9.35151e-32)
(-0.000630416 -1.19251e-06 0)
(-0.000627622 -1.15398e-06 8.92951e-32)
(-0.000624897 -1.11492e-06 0)
(-0.000622243 -1.0754e-06 -8.49781e-32)
(-0.000619662 -1.03548e-06 0)
(-0.000617157 -9.95257e-07 -8.05949e-32)
(-0.00061473 -9.54819e-07 -7.83895e-32)
(-0.000612383 -9.14272e-07 0)
(-0.000610118 -8.73731e-07 0)
(-0.000607937 -8.33322e-07 0)
(-0.000605839 -7.93181e-07 0)
(-0.000603827 -7.53457e-07 0)
(-0.0006019 -7.1431e-07 0)
(-0.000600058 -6.7591e-07 0)
(-0.000598302 -6.38441e-07 -6.12577e-32)
(-0.000596629 -6.02098e-07 5.92995e-32)
(-0.000595038 -5.67089e-07 0)
(-0.000593527 -5.33638e-07 0)
(-0.000592092 -5.01984e-07 0)
(-0.00059073 -4.72384e-07 0)
(-0.000589435 -4.45116e-07 1.01688e-31)
(-0.000588203 -4.20482e-07 0)
(-0.000587026 -3.9881e-07 -9.6673e-32)
(-0.000585897 -3.8046e-07 9.46691e-32)
(-0.000584805 -3.65831e-07 0)
(-0.000583741 -3.55362e-07 0)
(-0.000582691 -3.49542e-07 0)
(-0.000581641 -3.48916e-07 -9.10058e-32)
(-0.000580574 -3.54097e-07 -9.14407e-32)
(-0.000579472 -3.65771e-07 0)
(-0.000578312 -3.84708e-07 -9.4392e-32)
(-0.00057707 -4.11779e-07 -9.70735e-32)
(-0.000575717 -4.47963e-07 1.00687e-31)
(-0.00057422 -4.94367e-07 0)
(-0.000572542 -5.52237e-07 0)
(-0.000570641 -6.2298e-07 1.18304e-31)
(-0.000568467 -7.08183e-07 0)
(-0.000565965 -8.09627e-07 0)
(-0.000563072 -9.29318e-07 0)
(-0.000559716 -1.0695e-06 0)
(-0.000555814 -1.23269e-06 -1.79946e-31)
(-0.000551273 -1.42168e-06 -1.99059e-31)
(-0.000545988 -1.63957e-06 0)
(-0.000539837 -1.88979e-06 -2.4638e-31)
(-0.000532684 -2.17609e-06 0)
(-0.000524376 -2.50254e-06 0)
(-0.00051474 -2.87353e-06 -3.45726e-31)
(-0.000503581 -3.29372e-06 0)
(-0.000490684 -3.76797e-06 -4.35938e-31)
(-0.000475806 -4.30127e-06 0)
(-0.000458684 -4.89854e-06 0)
(-0.000439026 -5.56447e-06 -6.16813e-31)
(-0.000416516 -6.30319e-06 0)
(-0.000390818 -7.11794e-06 -7.72885e-31)
(-0.000361574 -8.01055e-06 0)
(-0.000328415 -8.98089e-06 0)
(-0.000290967 -1.00261e-05 0)
(-0.000248866 -1.11398e-05 1.17533e-30)
(-0.000201772 -1.23112e-05 0)
(-0.000149391 -1.35237e-05 -1.41242e-30)
(-9.15046e-05 -1.47543e-05 0)
(-2.79981e-05 -1.59722e-05 0)
(4.10959e-05 -1.71375e-05 0)
(0.000115553 -1.81998e-05 0)
(0.000194898 -1.90954e-05 0)
(0.000278326 -1.97411e-05 0)
(0.000364561 -2.00158e-05 0)
(0.000451548 -1.9701e-05 3.98878e-30)
(0.000535429 -1.82297e-05 0)
(0.000605704 -1.32527e-05 0)
(-1.17662e-05 7.5112e-05 -9.7038e-31)
(-3.53876e-05 7.49669e-05 9.67669e-31)
(-5.91379e-05 7.47077e-05 0)
(-8.29804e-05 7.43331e-05 -1.91754e-30)
(-0.000106877 7.38425e-05 0)
(-0.00013079 7.32362e-05 9.45012e-31)
(-0.000154679 7.25152e-05 1.86717e-30)
(-0.000178504 7.16811e-05 1.84448e-30)
(-0.000202226 7.07363e-05 0)
(-0.000225803 6.96839e-05 1.79062e-30)
(-0.000249197 6.85276e-05 -8.82757e-31)
(-0.000272366 6.7272e-05 0)
(-0.000295274 6.5922e-05 0)
(-0.000317882 6.44832e-05 0)
(-0.000340154 6.29615e-05 0)
(-0.000362054 6.13635e-05 -7.88831e-31)
(-0.000383549 5.9696e-05 0)
(-0.000404608 5.7966e-05 -1.47928e-30)
(-0.000425201 5.61808e-05 0)
(-0.0004453 5.43478e-05 0)
(-0.00046488 5.24746e-05 1.33448e-30)
(-0.000483918 5.05685e-05 0)
(-0.000502393 4.86371e-05 -1.23351e-30)
(-0.000520286 4.66875e-05 -5.9728e-31)
(-0.000537583 4.47268e-05 5.71735e-31)
(-0.000554268 4.2762e-05 -5.46143e-31)
(-0.000570332 4.07995e-05 -5.20589e-31)
(-0.000585765 3.88457e-05 0)
(-0.00060056 3.69063e-05 0)
(-0.000614714 3.4987e-05 4.44939e-31)
(-0.000628224 3.30928e-05 1.24606e-30)
(-0.00064109 3.12286e-05 0)
(-0.000653314 2.93985e-05 0)
(-0.000664899 2.76066e-05 3.48958e-31)
(-0.000675851 2.58562e-05 0)
(-0.000686176 2.41504e-05 0)
(-0.000695883 2.24919e-05 -2.82486e-31)
(-0.000704983 2.08829e-05 0)
(-0.000713485 1.93254e-05 -7.0721e-31)
(-0.000721401 1.78207e-05 -4.43623e-31)
(-0.000728746 1.63702e-05 0)
(-0.000735532 1.49747e-05 0)
(-0.000741775 1.36347e-05 6.34847e-31)
(-0.000747489 1.23505e-05 5.67916e-31)
(-0.000752691 1.11222e-05 5.03921e-31)
(-0.000757397 9.94941e-06 -6.82149e-31)
(-0.000761623 8.83179e-06 -2.10315e-31)
(-0.000765386 7.76869e-06 1.46604e-31)
(-0.000768703 6.75929e-06 -2.76853e-31)
(-0.000771592 5.80263e-06 1.31778e-31)
(-0.000774069 4.89761e-06 0)
(-0.000776152 4.043e-06 -8.61848e-32)
(-0.000777857 3.23749e-06 -1.59238e-31)
(-0.000779201 2.47967e-06 0)
(-0.000780202 1.76808e-06 0)
(-0.000780875 1.10117e-06 0)
(-0.000781236 4.77383e-07 6.10418e-33)
(-0.000781301 -1.04883e-07 0)
(-0.000781086 -6.47246e-07 1.07225e-31)
(-0.000780605 -1.15134e-06 0)
(-0.000779873 -1.61878e-06 1.57338e-31)
(-0.000778905 -2.05119e-06 0)
(-0.000777713 -2.45018e-06 -2.00116e-31)
(-0.000776312 -2.81733e-06 0)
(-0.000774715 -3.15419e-06 2.36229e-31)
(-0.000772933 -3.46228e-06 -3.59735e-31)
(-0.000770978 -3.74309e-06 0)
(-0.000768863 -3.99806e-06 -2.79303e-31)
(-0.000766598 -4.2286e-06 1.27405e-31)
(-0.000764194 -4.43607e-06 1.32712e-31)
(-0.000761661 -4.62177e-06 0)
(-0.000759009 -4.78697e-06 -4.60818e-31)
(-0.000756247 -4.93287e-06 1.45366e-31)
(-0.000753385 -5.06066e-06 0)
(-0.000750429 -5.17142e-06 -1.51395e-31)
(-0.00074739 -5.26624e-06 -3.42839e-31)
(-0.000744274 -5.34611e-06 0)
(-0.000741089 -5.412e-06 1.57393e-31)
(-0.000737842 -5.46482e-06 0)
(-0.000734539 -5.50544e-06 1.94338e-31)
(-0.000731187 -5.53468e-06 0)
(-0.000727793 -5.55329e-06 -1.95097e-31)
(-0.000724361 -5.56201e-06 1.60876e-31)
(-0.000720897 -5.56152e-06 5.16385e-31)
(-0.000717407 -5.55246e-06 1.03054e-30)
(-0.000713895 -5.53541e-06 -1.02707e-30)
(-0.000710367 -5.51093e-06 0)
(-0.000706826 -5.47955e-06 0)
(-0.000703277 -5.44174e-06 0)
(-0.000699725 -5.39793e-06 3.78186e-31)
(-0.000696173 -5.34854e-06 -3.09385e-31)
(-0.000692625 -5.29394e-06 3.06395e-31)
(-0.000689084 -5.23448e-06 0)
(-0.000685555 -5.17046e-06 -9.63773e-31)
(-0.00068204 -5.10217e-06 -2.95981e-31)
(-0.000678543 -5.02986e-06 -2.92077e-31)
(-0.000675068 -4.95376e-06 0)
(-0.000671617 -4.87408e-06 0)
(-0.000668193 -4.79101e-06 0)
(-0.0006648 -4.70471e-06 -2.74619e-31)
(-0.000661441 -4.61533e-06 0)
(-0.000658119 -4.523e-06 -5.91968e-31)
(-0.000654836 -4.42785e-06 -3.21675e-31)
(-0.000651596 -4.32998e-06 5.70779e-31)
(-0.000648401 -4.22951e-06 0)
(-0.000645255 -4.12653e-06 7.92349e-31)
(-0.00064216 -4.02115e-06 0)
(-0.00063912 -3.91346e-06 5.25355e-31)
(-0.000636136 -3.80359e-06 -7.4011e-31)
(-0.000633214 -3.69166e-06 -7.2206e-31)
(-0.000630354 -3.5778e-06 0)
(-0.000627559 -3.46217e-06 -2.67887e-31)
(-0.000624834 -3.34494e-06 4.63873e-31)
(-0.000622179 -3.22631e-06 -1.96175e-31)
(-0.000619599 -3.1065e-06 0)
(-0.000617094 -2.98576e-06 -1.83499e-31)
(-0.000614667 -2.86438e-06 2.35156e-31)
(-0.000612321 -2.74267e-06 0)
(-0.000610056 -2.62098e-06 3.86226e-31)
(-0.000607875 -2.49967e-06 3.73271e-31)
(-0.000605779 -2.37917e-06 3.60416e-31)
(-0.000603768 -2.25991e-06 0)
(-0.000601842 -2.14238e-06 0)
(-0.000600003 -2.02709e-06 0)
(-0.000598248 -1.91459e-06 -4.38188e-31)
(-0.000596577 -1.80546e-06 1.2151e-31)
(-0.000594989 -1.70034e-06 0)
(-0.00059348 -1.59988e-06 -2.77516e-31)
(-0.000592049 -1.50481e-06 -2.67416e-31)
(-0.00059069 -1.41589e-06 0)
(-0.0005894 -1.33397e-06 1.9359e-31)
(-0.000588172 -1.25994e-06 -4.8273e-31)
(-0.000586999 -1.19478e-06 -1.78972e-31)
(-0.000585875 -1.13959e-06 6.30132e-31)
(-0.000584789 -1.09554e-06 0)
(-0.00058373 -1.06395e-06 0)
(-0.000582687 -1.0463e-06 0)
(-0.000581644 -1.04421e-06 -1.62898e-31)
(-0.000580586 -1.05951e-06 -6.02797e-31)
(-0.000579492 -1.09427e-06 -4.45192e-31)
(-0.000578343 -1.15079e-06 -1.73606e-31)
(-0.000577111 -1.23168e-06 -6.54562e-31)
(-0.00057577 -1.33988e-06 1.92914e-31)
(-0.000574286 -1.47869e-06 0)
(-0.000572623 -1.65186e-06 0)
(-0.000570738 -1.86361e-06 8.47571e-31)
(-0.000568582 -2.11867e-06 0)
(-0.0005661 -2.42241e-06 0)
(-0.000563229 -2.78083e-06 -7.8782e-31)
(-0.000559897 -3.20066e-06 0)
(-0.000556023 -3.68945e-06 -1.40698e-30)
(-0.000551513 -4.25556e-06 -4.92098e-31)
(-0.00054626 -4.90832e-06 0)
(-0.000540146 -5.658e-06 -2.01012e-30)
(-0.000533035 -6.51584e-06 0)
(-0.000524772 -7.4941e-06 0)
(-0.000515184 -8.60594e-06 -9.38486e-31)
(-0.000504079 -9.86537e-06 -2.23052e-30)
(-0.00049124 -1.1287e-05 -1.21344e-30)
(-0.000476425 -1.28859e-05 0)
(-0.000459368 -1.46768e-05 0)
(-0.00043978 -1.66738e-05 -5.37975e-30)
(-0.000417343 -1.88895e-05 0)
(-0.000391718 -2.13337e-05 -6.80252e-30)
(-0.000362548 -2.40121e-05 0)
(-0.000329459 -2.69243e-05 0)
(-0.000292076 -3.0062e-05 0)
(-0.00025003 -3.34062e-05 3.47773e-30)
(-0.000202976 -3.69245e-05 0)
(-0.000150615 -4.05678e-05 -4.20883e-30)
(-9.27221e-05 -4.4267e-05 0)
(-2.91751e-05 -4.79297e-05 0)
(4.00018e-05 -5.14368e-05 -1.06217e-29)
(0.000114594 -5.46373e-05 1.12554e-29)
(0.000194142 -5.73416e-05 0)
(0.000277862 -5.93032e-05 0)
(0.000364541 -6.01714e-05 0)
(0.00045232 -5.93409e-05 -1.20151e-29)
(0.000538285 -5.53953e-05 0)
(0.000618615 -4.35572e-05 1.75474e-29)
(-1.1926e-05 0.000125753 -6.49986e-30)
(-3.58672e-05 0.000125507 8.53543e-34)
(-5.99363e-05 0.000125068 0)
(-8.40948e-05 0.000124433 -1.99211e-33)
(-0.000108303 0.000123602 0)
(-0.00013252 0.000122575 0)
(-0.000156706 0.000121353 6.25531e-30)
(-0.000180817 0.000119941 3.09186e-30)
(-0.000204812 0.000118342 -3.04454e-30)
(-0.000228649 0.000116561 3.00222e-30)
(-0.000252287 0.000114605 0)
(-0.000275686 0.000112482 0)
(-0.000298804 0.0001102 2.82744e-30)
(-0.000321604 0.00010777 5.526e-30)
(-0.000344049 0.000105201 -5.39e-30)
(-0.000366102 0.000102504 0)
(-0.000387731 9.96921e-05 -5.09902e-30)
(-0.000408903 9.67761e-05 -2.48229e-30)
(-0.000429588 9.37689e-05 0)
(-0.00044976 9.0683e-05 -4.62447e-30)
(-0.000469393 8.75311e-05 2.24046e-30)
(-0.000488465 8.43259e-05 4.29034e-30)
(-0.000506956 8.108e-05 -2.07193e-30)
(-0.000524848 7.78055e-05 0)
(-0.000542126 7.45143e-05 -3.77549e-30)
(-0.000558777 7.12181e-05 -3.60272e-30)
(-0.000574793 6.79276e-05 0)
(-0.000590164 6.46535e-05 -3.25889e-30)
(-0.000604885 6.14054e-05 0)
(-0.000618954 5.81927e-05 -2.9208e-30)
(-0.000632369 5.50237e-05 1.39247e-30)
(-0.000645132 5.19064e-05 0)
(-0.000657244 4.88477e-05 0)
(-0.000668712 4.58542e-05 0)
(-0.000679541 4.29315e-05 0)
(-0.000689739 4.00845e-05 0)
(-0.000699316 3.73177e-05 0)
(-0.000708282 3.46346e-05 -1.69023e-30)
(-0.000716649 3.20383e-05 7.60488e-31)
(-0.000724431 2.95312e-05 0)
(-0.00073164 2.71153e-05 0)
(-0.000738291 2.47917e-05 0)
(-0.0007444 2.25614e-05 2.15704e-30)
(-0.000749982 2.04247e-05 9.85105e-31)
(-0.000755054 1.83816e-05 3.56547e-32)
(-0.000759633 1.64315e-05 -3.58703e-32)
(-0.000763734 1.45736e-05 6.4525e-31)