/*--------------------------------*- C++ -*----------------------------------*\
  =========                 |
  \\      /  F ield         | OpenFOAM: The Open Source CFD Toolbox
   \\    /   O peration     | Website:  https://openfoam.org
    \\  /    A nd           | Version:  10
     \\/     M anipulation  |
\*---------------------------------------------------------------------------*/
FoamFile
{
    format      ascii;
    class       surfaceScalarField;
    location    "300";
    object      phi;
}
// * * * * * * * * * * * * * * * * * * * * * * * * * * * * * * * * * * * * * //

dimensions      [0 3 -1 0 0 0 0];

internalField   nonuniform List<scalar> 
12640
(
-3.68438e-10
3.68438e-10
-7.34142e-10
3.65705e-10
-1.0944e-09
3.60256e-10
-1.44652e-09
3.52126e-10
-1.78789e-09
3.41365e-10
-2.11593e-09
3.28041e-10
-2.42817e-09
3.12241e-10
-2.72223e-09
2.94065e-10
-2.99587e-09
2.73631e-10
-3.24694e-09
2.51076e-10
-3.47349e-09
2.26549e-10
-3.67371e-09
2.00217e-10
-3.84597e-09
1.72262e-10
-3.98885e-09
1.42879e-10
-4.10113e-09
1.12279e-10
-4.18181e-09
8.0682e-11
-4.23013e-09
4.83229e-11
-4.24558e-09
1.54446e-11
-4.22788e-09
-1.77011e-11
-4.17702e-09
-5.08558e-11
-4.09326e-09
-8.37563e-11
-3.97713e-09
-1.16137e-10
-3.82939e-09
-1.47732e-10
-3.65112e-09
-1.78278e-10
-3.4436e-09
-2.07516e-10
-3.20841e-09
-2.35194e-10
-2.94734e-09
-2.61071e-10
-2.66242e-09
-2.84918e-10
-2.3559e-09
-3.06523e-10
-2.03021e-09
-3.2569e-10
-1.68796e-09
-3.42245e-10
-1.33192e-09
-3.56036e-10
-1.17019e-09
-1.61736e-10
-1.00656e-09
-1.63629e-10
-8.41301e-10
-1.65258e-10
-6.74682e-10
-1.66619e-10
-5.0697e-10
-1.67712e-10
-3.38437e-10
-1.68533e-10
-1.69356e-10
-1.69081e-10
-6.88473e-18
-1.69356e-10
1.69356e-10
-1.69356e-10
3.38437e-10
-1.69081e-10
5.0697e-10
-1.68533e-10
6.74682e-10
-1.67712e-10
8.41301e-10
-1.66619e-10
1.00656e-09
-1.65258e-10
1.17019e-09
-1.63629e-10
1.33192e-09
-1.61736e-10
1.68796e-09
-3.56036e-10
2.03021e-09
-3.42245e-10
2.3559e-09
-3.2569e-10
2.66242e-09
-3.06523e-10
2.94734e-09
-2.84918e-10
3.20841e-09
-2.61071e-10
3.4436e-09
-2.35194e-10
3.65112e-09
-2.07516e-10
3.82939e-09
-1.78278e-10
3.97713e-09
-1.47732e-10
4.09326e-09
-1.16137e-10
4.17702e-09
-8.37563e-11
4.22788e-09
-5.08558e-11
4.24558e-09
-1.77011e-11
4.23013e-09
1.54446e-11
4.18181e-09
4.83228e-11
4.10113e-09
8.0682e-11
3.98885e-09
1.12279e-10
3.84597e-09
1.42879e-10
3.67371e-09
1.72262e-10
3.47349e-09
2.00217e-10
3.24694e-09
2.26549e-10
2.99587e-09
2.51076e-10
2.72223e-09
2.73631e-10
2.42817e-09
2.94065e-10
2.11593e-09
3.12241e-10
1.78789e-09
3.28041e-10
1.44652e-09
3.41365e-10
1.0944e-09
3.52126e-10
7.34142e-10
3.60256e-10
3.68438e-10
3.65705e-10
3.68438e-10
-4.04241e-10
7.72679e-10
-8.05484e-10
7.66948e-10
-1.20075e-09
7.55521e-10
-1.58709e-09
7.38471e-10
-1.96163e-09
7.15904e-10
-2.32156e-09
6.87963e-10
-2.66414e-09
6.54827e-10
-2.98679e-09
6.16709e-10
-3.28701e-09
5.73858e-10
-3.56249e-09
5.26556e-10
-3.81106e-09
4.75119e-10
-4.03074e-09
4.19897e-10
-4.21975e-09
3.61271e-10
-4.37652e-09
2.9965e-10
-4.49972e-09
2.35476e-10
-4.58825e-09
1.69212e-10
-4.64128e-09
1.01349e-10
-4.65823e-09
3.23973e-11
-4.63881e-09
-3.71157e-11
-4.58302e-09
-1.06648e-10
-4.49113e-09
-1.75647e-10
-4.36371e-09
-2.43556e-10
-4.20163e-09
-3.09818e-10
-4.00602e-09
-3.7388e-10
-3.77834e-09
-4.35198e-10
-3.52029e-09
-4.93245e-10
-3.23385e-09
-5.47516e-10
-2.92123e-09
-5.9753e-10
-2.58492e-09
-6.42841e-10
-2.22757e-09
-6.8304e-10
-1.85205e-09
-7.1776e-10
-1.46141e-09
-7.46682e-10
-1.28395e-09
-3.39196e-10
-1.10441e-09
-3.43165e-10
-9.23088e-10
-3.4658e-10
-7.40271e-10
-3.49436e-10
-5.56255e-10
-3.51728e-10
-3.71338e-10
-3.5345e-10
-1.8582e-10
-3.546e-10
-6.34258e-18
-3.55175e-10
1.8582e-10
-3.55175e-10
3.71338e-10
-3.546e-10
5.56255e-10
-3.5345e-10
7.40271e-10
-3.51728e-10
9.23088e-10
-3.49436e-10
1.10441e-09
-3.4658e-10
1.28395e-09
-3.43165e-10
1.46141e-09
-3.39196e-10
1.85205e-09
-7.46682e-10
2.22757e-09
-7.1776e-10
2.58492e-09
-6.8304e-10
2.92123e-09
-6.42841e-10
3.23385e-09
-5.9753e-10
3.52029e-09
-5.47516e-10
3.77834e-09
-4.93245e-10
4.00602e-09
-4.35198e-10
4.20163e-09
-3.7388e-10
4.36371e-09
-3.09818e-10
4.49113e-09
-2.43556e-10
4.58302e-09
-1.75647e-10
4.63881e-09
-1.06648e-10
4.65823e-09
-3.71157e-11
4.64128e-09
3.23973e-11
4.58825e-09
1.01349e-10
4.49972e-09
1.69212e-10
4.37652e-09
2.35476e-10
4.21975e-09
2.9965e-10
4.03074e-09
3.61271e-10
3.81106e-09
4.19897e-10
3.56249e-09
4.75119e-10
3.28701e-09
5.26556e-10
2.98679e-09
5.73858e-10
2.66414e-09
6.16709e-10
2.32156e-09
6.54827e-10
1.96163e-09
6.87963e-10
1.58709e-09
7.15904e-10
1.20075e-09
7.38471e-10
8.05484e-10
7.55521e-10
4.04241e-10
7.66948e-10
7.72679e-10
-4.4371e-10
1.21639e-09
-8.84129e-10
1.20737e-09
-1.31799e-09
1.18938e-09
-1.74205e-09
1.16254e-09
-2.15317e-09
1.12701e-09
-2.54823e-09
1.08303e-09
-2.92428e-09
1.03087e-09
-3.27843e-09
9.70864e-10
-3.60798e-09
9.03408e-10
-3.91037e-09
8.28945e-10
-4.18323e-09
7.47974e-10
-4.42437e-09
6.61043e-10
-4.63185e-09
5.68752e-10
-4.80395e-09
4.71747e-10
-4.93919e-09
3.70721e-10
-5.03639e-09
2.66406e-10
-5.09461e-09
1.59572e-10
-5.11324e-09
5.10235e-11
-5.09194e-09
-5.8409e-11
-5.03072e-09
-1.67872e-10
-4.92987e-09
-2.76497e-10
-4.79002e-09
-3.83407e-10
-4.61211e-09
-4.87724e-10
-4.39741e-09
-5.88578e-10
-4.1475e-09
-6.85113e-10
-3.86425e-09
-7.76499e-10
-3.54982e-09
-8.61939e-10
-3.20667e-09
-9.40679e-10
-2.8375e-09
-1.01202e-09
-2.44524e-09
-1.0753e-09
-2.03303e-09
-1.12997e-09
-1.60421e-09
-1.1755e-09
-1.40941e-09
-5.33995e-10
-1.21233e-09
-5.40244e-10
-1.01329e-09
-5.45622e-10
-8.1261e-10
-5.50118e-10
-6.10613e-10
-5.53726e-10
-4.07626e-10
-5.56437e-10
-2.03978e-10
-5.58247e-10
-5.15038e-18
-5.59153e-10
2.03978e-10
-5.59153e-10
4.07626e-10
-5.58247e-10
6.10613e-10
-5.56437e-10
8.1261e-10
-5.53726e-10
1.01329e-09
-5.50118e-10
1.21233e-09
-5.45622e-10
1.40941e-09
-5.40244e-10
1.60421e-09
-5.33995e-10
2.03303e-09
-1.1755e-09
2.44524e-09
-1.12997e-09
2.8375e-09
-1.0753e-09
3.20667e-09
-1.01202e-09
3.54982e-09
-9.40679e-10
3.86425e-09
-8.61939e-10
4.1475e-09
-7.76499e-10
4.39741e-09
-6.85113e-10
4.61211e-09
-5.88578e-10
4.79002e-09
-4.87724e-10
4.92987e-09
-3.83407e-10
5.03072e-09
-2.76497e-10
5.09194e-09
-1.67872e-10
5.11324e-09
-5.8409e-11
5.09461e-09
5.10235e-11
5.03639e-09
1.59572e-10
4.93919e-09
2.66406e-10
4.80395e-09
3.70721e-10
4.63185e-09
4.71747e-10
4.42437e-09
5.68751e-10
4.18323e-09
6.61043e-10
3.91037e-09
7.47973e-10
3.60798e-09
8.28945e-10
3.27843e-09
9.03408e-10
2.92428e-09
9.70864e-10
2.54823e-09
1.03087e-09
2.15317e-09
1.08303e-09
1.74205e-09
1.12701e-09
1.31799e-09
1.16254e-09
8.84129e-10
1.18938e-09
4.4371e-10
1.20737e-09
1.21639e-09
-4.87292e-10
1.70368e-09
-9.70971e-10
1.69105e-09
-1.44745e-09
1.66585e-09
-1.91317e-09
1.62826e-09
-2.36467e-09
1.57851e-09
-2.79855e-09
1.51691e-09
-3.21154e-09
1.44386e-09
-3.6005e-09
1.35982e-09
-3.96244e-09
1.26535e-09
-4.29456e-09
1.16106e-09
-4.59424e-09
1.04766e-09
-4.85911e-09
9.25905e-10
-5.087e-09
7.96646e-10
-5.27604e-09
6.60784e-10
-5.4246e-09
5.19287e-10
-5.53138e-09
3.73183e-10
-5.59536e-09
2.2355e-10
-5.61585e-09
7.15139e-11
-5.5925e-09
-8.17619e-11
-5.52529e-09
-2.35082e-10
-5.41455e-09
-3.8723e-10
-5.26098e-09
-5.36977e-10
-5.06561e-09
-6.83094e-10
-4.82983e-09
-8.2436e-10
-4.55536e-09
-9.59579e-10
-4.24428e-09
-1.08759e-09
-3.89895e-09
-1.20727e-09
-3.52206e-09
-1.31756e-09
-3.11659e-09
-1.41749e-09
-2.68575e-09
-1.50614e-09
-2.23301e-09
-1.58271e-09
-1.76201e-09
-1.64649e-09
-1.54805e-09
-7.47956e-10
-1.33159e-09
-7.56709e-10
-1.11297e-09
-7.64242e-10
-8.92547e-10
-7.70541e-10
-6.70679e-10
-7.75594e-10
-4.47724e-10
-7.79392e-10
-2.24044e-10
-7.81928e-10
-3.90359e-18
-7.83197e-10
2.24044e-10
-7.83197e-10
4.47724e-10
-7.81928e-10
6.70679e-10
-7.79392e-10
8.92547e-10
-7.75594e-10
1.11297e-09
-7.70541e-10
1.33159e-09
-7.64242e-10
1.54805e-09
-7.56709e-10
1.76201e-09
-7.47956e-10
2.23301e-09
-1.64649e-09
2.68575e-09
-1.58271e-09
3.11659e-09
-1.50614e-09
3.52206e-09
-1.41749e-09
3.89895e-09
-1.31756e-09
4.24428e-09
-1.20727e-09
4.55536e-09
-1.08759e-09
4.82983e-09
-9.59579e-10
5.06561e-09
-8.2436e-10
5.26098e-09
-6.83094e-10
5.41455e-09
-5.36977e-10
5.52529e-09
-3.8723e-10
5.5925e-09
-2.35082e-10
5.61585e-09
-8.17619e-11
5.59536e-09
7.1514e-11
5.53138e-09
2.2355e-10
5.4246e-09
3.73183e-10
5.27604e-09
5.19287e-10
5.087e-09
6.60784e-10
4.85911e-09
7.96646e-10
4.59424e-09
9.25905e-10
4.29456e-09
1.04766e-09
3.96244e-09
1.16106e-09
3.6005e-09
1.26535e-09
3.21154e-09
1.35982e-09
2.79855e-09
1.44386e-09
2.36467e-09
1.51691e-09
1.91317e-09
1.57851e-09
1.44745e-09
1.62826e-09
9.70971e-10
1.66585e-09
4.87292e-10
1.69105e-09
1.70368e-09
-5.35519e-10
2.2392e-09
-1.06707e-09
2.2226e-09
-1.5907e-09
2.18949e-09
-2.10253e-09
2.14009e-09
-2.59873e-09
2.07471e-09
-3.07557e-09
1.99375e-09
-3.52945e-09
1.89775e-09
-3.95694e-09
1.78731e-09
-4.35474e-09
1.66315e-09
-4.71976e-09
1.52609e-09
-5.04915e-09
1.37705e-09
-5.34028e-09
1.21703e-09
-5.59079e-09
1.04715e-09
-5.79859e-09
8.6859e-10
-5.96193e-09
6.8262e-10
-6.07934e-09
4.90591e-10
-6.14971e-09
2.93922e-10
-6.17228e-09
9.40909e-11
-6.14667e-09
-1.07372e-10
-6.07286e-09
-3.08897e-10
-5.95121e-09
-5.08884e-10
-5.78247e-09
-7.05717e-10
-5.56778e-09
-8.97782e-10
-5.30866e-09
-1.08347e-09
-5.00703e-09
-1.26122e-09
-4.66513e-09
-1.42949e-09
-4.28559e-09
-1.58681e-09
-3.87135e-09
-1.7318e-09
-3.42569e-09
-1.86315e-09
-2.95214e-09
-1.97969e-09
-2.4545e-09
-2.08035e-09
-1.93679e-09
-2.1642e-09
-1.70161e-09
-9.83137e-10
-1.46368e-09
-9.94644e-10
-1.22337e-09
-1.00455e-09
-9.81084e-10
-1.01283e-09
-7.37208e-10
-1.01947e-09
-4.92137e-10
-1.02446e-09
-2.46268e-10
-1.0278e-09
-3.41626e-18
-1.02947e-09
2.46268e-10
-1.02947e-09
4.92137e-10
-1.0278e-09
7.37208e-10
-1.02446e-09
9.81084e-10
-1.01947e-09
1.22337e-09
-1.01283e-09
1.46368e-09
-1.00455e-09
1.70161e-09
-9.94644e-10
1.93679e-09
-9.83137e-10
2.4545e-09
-2.1642e-09
2.95214e-09
-2.08035e-09
3.42569e-09
-1.97969e-09
3.87135e-09
-1.86315e-09
4.28559e-09
-1.7318e-09
4.66513e-09
-1.58681e-09
5.00703e-09
-1.42949e-09
5.30866e-09
-1.26122e-09
5.56778e-09
-1.08347e-09
5.78247e-09
-8.97782e-10
5.95121e-09
-7.05717e-10
6.07286e-09
-5.08884e-10
6.14667e-09
-3.08897e-10
6.17228e-09
-1.07372e-10
6.14971e-09
9.40909e-11
6.07934e-09
2.93922e-10
5.96193e-09
4.90591e-10
5.79859e-09
6.8262e-10
5.59079e-09
8.6859e-10
5.34028e-09
1.04715e-09
5.04915e-09
1.21703e-09
4.71976e-09
1.37705e-09
4.35474e-09
1.52609e-09
3.95694e-09
1.66315e-09
3.52945e-09
1.78731e-09
3.07557e-09
1.89775e-09
2.59873e-09
1.99375e-09
2.10253e-09
2.07471e-09
1.5907e-09
2.14009e-09
1.06707e-09
2.18949e-09
5.35519e-10
2.2226e-09
2.2392e-09
-5.89024e-10
2.82822e-09
-1.17368e-09
2.80725e-09
-1.74964e-09
2.76545e-09
-2.31262e-09
2.70306e-09
-2.8584e-09
2.6205e-09
-3.38291e-09
2.51826e-09
-3.88219e-09
2.39702e-09
-4.35242e-09
2.25754e-09
-4.79002e-09
2.10074e-09
-5.19159e-09
1.92765e-09
-5.55396e-09
1.73942e-09
-5.87426e-09
1.53733e-09
-6.14989e-09
1.32278e-09
-6.37855e-09
1.09725e-09
-6.5583e-09
8.6237e-10
-6.68754e-09
6.19829e-10
-6.76504e-09
3.71422e-10
-6.78996e-09
1.19016e-10
-6.76188e-09
-1.35456e-10
-6.68077e-09
-3.90012e-10
-6.54702e-09
-6.4263e-10
-6.36147e-09
-8.9127e-10
-6.12536e-09
-1.13389e-09
-5.84037e-09
-1.36847e-09
-5.50858e-09
-1.59301e-09
-5.13249e-09
-1.80558e-09
-4.71497e-09
-2.00433e-09
-4.25927e-09
-2.18749e-09
-3.76898e-09
-2.35345e-09
-3.24799e-09
-2.50068e-09
-2.7005e-09
-2.62784e-09
-2.13092e-09
-2.73378e-09
-1.87217e-09
-1.24189e-09
-1.61039e-09
-1.25642e-09
-1.346e-09
-1.26894e-09
-1.07942e-09
-1.2794e-09
-8.11104e-10
-1.28779e-09
-5.41468e-10
-1.2941e-09
-2.70954e-10
-1.29831e-09
-3.52589e-18
-1.30042e-09
2.70954e-10
-1.30042e-09
5.41468e-10
-1.29831e-09
8.11104e-10
-1.2941e-09
1.07942e-09
-1.28779e-09
1.346e-09
-1.2794e-09
1.61039e-09
-1.26894e-09
1.87217e-09
-1.25642e-09
2.13092e-09
-1.24189e-09
2.7005e-09
-2.73378e-09
3.24799e-09
-2.62784e-09
3.76898e-09
-2.50068e-09
4.25927e-09
-2.35345e-09
4.71497e-09
-2.18749e-09
5.13249e-09
-2.00433e-09
5.50858e-09
-1.80558e-09
5.84037e-09
-1.59301e-09
6.12536e-09
-1.36847e-09
6.36147e-09
-1.13389e-09
6.54702e-09
-8.9127e-10
6.68077e-09
-6.4263e-10
6.76188e-09
-3.90012e-10
6.78996e-09
-1.35456e-10
6.76504e-09
1.19016e-10
6.68754e-09
3.71422e-10
6.5583e-09
6.19829e-10
6.37855e-09
8.6237e-10
6.14989e-09
1.09725e-09
5.87426e-09
1.32278e-09
5.55396e-09
1.53733e-09
5.19159e-09
1.73942e-09
4.79002e-09
1.92765e-09
4.35242e-09
2.10074e-09
3.88219e-09
2.25754e-09
3.38291e-09
2.39702e-09
2.8584e-09
2.51826e-09
2.31262e-09
2.6205e-09
1.74964e-09
2.70306e-09
1.17368e-09
2.76545e-09
5.89024e-10
2.80725e-09
2.82822e-09
-6.48566e-10
3.47679e-09
-1.29233e-09
3.45102e-09
-1.92652e-09
3.39964e-09
-2.54642e-09
3.32297e-09
-3.14741e-09
3.22148e-09
-3.72498e-09
3.09584e-09
-4.27478e-09
2.94682e-09
-4.79262e-09
2.77539e-09
-5.27454e-09
2.58266e-09
-5.7168e-09
2.36991e-09
-6.11592e-09
2.13855e-09
-6.46872e-09
1.89014e-09
-6.77235e-09
1.6264e-09
-7.02428e-09
1.34918e-09
-7.22235e-09
1.06044e-09
-7.3648e-09
7.62283e-10
-7.45028e-09
4.56905e-10
-7.47787e-09
1.46603e-10
-7.44708e-09
-1.6625e-10
-7.35788e-09
-4.79213e-10
-7.2107e-09
-7.89802e-10
-7.00646e-09
-1.09551e-09
-6.74653e-09
-1.39382e-09
-6.43274e-09
-1.68225e-09
-6.0674e-09
-1.95835e-09
-5.65323e-09
-2.21974e-09
-5.19342e-09
-2.46414e-09
-4.69154e-09
-2.68938e-09
-4.15154e-09
-2.89345e-09
-3.57771e-09
-3.07451e-09
-2.97466e-09
-3.23089e-09
-2.34727e-09
-3.36117e-09
-2.06225e-09
-1.5269e-09
-1.77389e-09
-1.54478e-09
-1.48266e-09
-1.56017e-09
-1.18903e-09
-1.57303e-09
-8.93462e-10
-1.58336e-09
-5.96448e-10
-1.59111e-09
-2.98466e-10
-1.59629e-09
-1.90103e-18
-1.59889e-09
2.98466e-10
-1.59889e-09
5.96448e-10
-1.59629e-09
8.93462e-10
-1.59111e-09
1.18903e-09
-1.58336e-09
1.48266e-09
-1.57303e-09
1.77389e-09
-1.56017e-09
2.06225e-09
-1.54478e-09
2.34727e-09
-1.5269e-09
2.97466e-09
-3.36117e-09
3.57771e-09
-3.23089e-09
4.15154e-09
-3.07451e-09
4.69154e-09
-2.89345e-09
5.19342e-09
-2.68938e-09
5.65323e-09
-2.46414e-09
6.0674e-09
-2.21974e-09
6.43274e-09
-1.95835e-09
6.74653e-09
-1.68225e-09
7.00646e-09
-1.39382e-09
7.2107e-09
-1.09551e-09
7.35788e-09
-7.89802e-10
7.44708e-09
-4.79213e-10
7.47787e-09
-1.6625e-10
7.45028e-09
1.46603e-10
7.3648e-09
4.56905e-10
7.22235e-09
7.62283e-10
7.02428e-09
1.06044e-09
6.77235e-09
1.34918e-09
6.46872e-09
1.6264e-09
6.11592e-09
1.89014e-09
5.7168e-09
2.13855e-09
5.27454e-09
2.36991e-09
4.79262e-09
2.58266e-09
4.27478e-09
2.77539e-09
3.72498e-09
2.94682e-09
3.14741e-09
3.09584e-09
2.54642e-09
3.22148e-09
1.92652e-09
3.32297e-09
1.29233e-09
3.39964e-09
6.48566e-10
3.45102e-09
3.47679e-09
-7.15076e-10
4.19187e-09
-1.42486e-09
4.1608e-09
-2.1241e-09
4.09887e-09
-2.80759e-09
4.00646e-09
-3.47025e-09
3.88414e-09
-4.10711e-09
3.7327e-09
-4.71337e-09
3.55308e-09
-5.28442e-09
3.34644e-09
-5.81589e-09
3.11413e-09
-6.30365e-09
2.85767e-09
-6.74387e-09
2.57877e-09
-7.13305e-09
2.27932e-09
-7.46801e-09
1.96137e-09
-7.74599e-09
1.62715e-09
-7.96459e-09
1.27905e-09
-8.12188e-09
9.1957e-10
-8.21635e-09
5.51375e-10
-8.24698e-09
1.77227e-10
-8.21322e-09
-2.00009e-10
-8.11504e-09
-5.77392e-10
-7.95291e-09
-9.51928e-10
-7.72783e-09
-1.32059e-09
-7.44131e-09
-1.68035e-09
-7.09536e-09
-2.0282e-09
-6.69252e-09
-2.36119e-09
-6.23581e-09
-2.67645e-09
-5.72872e-09
-2.97122e-09
-5.17519e-09
-3.2429e-09
-4.57959e-09
-3.48906e-09
-3.94664e-09
-3.70745e-09
-3.28144e-09
-3.89609e-09
-2.58937e-09
-4.05324e-09
-2.27496e-09
-1.84131e-09
-1.95687e-09
-1.86288e-09
-1.6356e-09
-1.88144e-09
-1.31168e-09
-1.89696e-09
-9.85629e-10
-1.90941e-09
-6.57977e-10
-1.91877e-09
-3.29256e-10
-1.92501e-09
1.19531e-18
-1.92814e-09
3.29256e-10
-1.92814e-09
6.57977e-10
-1.92501e-09
9.85629e-10
-1.91877e-09
1.31168e-09
-1.90941e-09
1.6356e-09
-1.89696e-09
1.95687e-09
-1.88144e-09
2.27496e-09
-1.86288e-09
2.58937e-09
-1.84131e-09
3.28144e-09
-4.05324e-09
3.94664e-09
-3.89609e-09
4.57959e-09
-3.70745e-09
5.17519e-09
-3.48906e-09
5.72872e-09
-3.2429e-09
6.23581e-09
-2.97122e-09
6.69252e-09
-2.67645e-09
7.09536e-09
-2.36119e-09
7.44131e-09
-2.0282e-09
7.72783e-09
-1.68035e-09
7.95291e-09
-1.32059e-09
8.11504e-09
-9.51928e-10
8.21322e-09
-5.77392e-10
8.24698e-09
-2.00009e-10
8.21635e-09
1.77227e-10
8.12188e-09
5.51375e-10
7.96459e-09
9.1957e-10
7.74599e-09
1.27905e-09
7.46801e-09
1.62715e-09
7.13305e-09
1.96137e-09
6.74387e-09
2.27932e-09
6.30365e-09
2.57877e-09
5.81589e-09
2.85767e-09
5.28442e-09
3.11413e-09
4.71337e-09
3.34644e-09
4.10711e-09
3.55308e-09
3.47025e-09
3.7327e-09
2.80759e-09
3.88414e-09
2.1241e-09
4.00646e-09
1.42486e-09
4.09887e-09
7.15076e-10
4.1608e-09
4.19187e-09
-7.89695e-10
4.98156e-09
-1.57355e-09
4.94466e-09
-2.34578e-09
4.8711e-09
-3.10063e-09
4.76132e-09
-3.8325e-09
4.61601e-09
-4.53591e-09
4.4361e-09
-5.20555e-09
4.22272e-09
-5.83634e-09
3.97723e-09
-6.42345e-09
3.70124e-09
-6.96233e-09
3.39654e-09
-7.44873e-09
3.06517e-09
-7.87879e-09
2.70938e-09
-8.24901e-09
2.33159e-09
-8.55631e-09
1.93445e-09
-8.79805e-09
1.52079e-09
-8.97208e-09
1.0936e-09
-9.07673e-09
6.56022e-10
-9.11085e-09
2.11352e-10
-9.07385e-09
-2.37011e-10
-8.96567e-09
-6.85571e-10
-8.78683e-09
-1.13077e-09
-8.53842e-09
-1.56901e-09
-8.22208e-09
-1.99668e-09
-7.84007e-09
-2.41022e-09
-7.39515e-09
-2.80611e-09
-6.89067e-09
-3.18093e-09
-6.33048e-09
-3.53141e-09
-5.71893e-09
-3.85445e-09
-5.06085e-09
-4.14714e-09
-4.36146e-09
-4.40684e-09
-3.6264e-09
-4.63116e-09
-2.86161e-09
-4.81804e-09
-2.51416e-09
-2.18876e-09
-2.16263e-09
-2.21441e-09
-1.80758e-09
-2.23648e-09
-1.44961e-09
-2.25493e-09
-1.08927e-09
-2.26974e-09
-7.27166e-10
-2.28087e-09
-3.63879e-10
-2.2883e-09
7.04731e-18
-2.29202e-09
3.63879e-10
-2.29202e-09
7.27166e-10
-2.2883e-09
1.08927e-09
-2.28087e-09
1.44961e-09
-2.26974e-09
1.80758e-09
-2.25493e-09
2.16263e-09
-2.23648e-09
2.51416e-09
-2.21441e-09
2.86161e-09
-2.18876e-09
3.6264e-09
-4.81804e-09
4.36146e-09
-4.63116e-09
5.06085e-09
-4.40684e-09
5.71893e-09
-4.14714e-09
6.33048e-09
-3.85445e-09
6.89067e-09
-3.53141e-09
7.39515e-09
-3.18093e-09
7.84007e-09
-2.80611e-09
8.22208e-09
-2.41022e-09
8.53842e-09
-1.99668e-09
8.78683e-09
-1.56901e-09
8.96567e-09
-1.13077e-09
9.07385e-09
-6.85571e-10
9.11085e-09
-2.37011e-10
9.07673e-09
2.11352e-10
8.97208e-09
6.56022e-10
8.79805e-09
1.0936e-09
8.55631e-09
1.52079e-09
8.24901e-09
1.93445e-09
7.87879e-09
2.33159e-09
7.44873e-09
2.70938e-09
6.96233e-09
3.06517e-09
6.42345e-09
3.39654e-09
5.83634e-09
3.70124e-09
5.20555e-09
3.97723e-09
4.53591e-09
4.22272e-09
3.8325e-09
4.4361e-09
3.10063e-09
4.61602e-09
2.34578e-09
4.76132e-09
1.57355e-09
4.8711e-09
7.89695e-10
4.94466e-09
4.98156e-09
-8.73849e-10
5.85541e-09
-1.74125e-09
5.81206e-09
-2.59579e-09
5.72564e-09
-3.43114e-09
5.59667e-09
-4.24109e-09
5.42596e-09
-5.01958e-09
5.21459e-09
-5.76075e-09
4.96389e-09
-6.45898e-09
4.67546e-09
-7.10892e-09
4.35118e-09
-7.70553e-09
3.99315e-09
-8.24412e-09
3.60377e-09
-8.72041e-09
3.18566e-09
-9.13051e-09
2.74169e-09
-9.47101e-09
2.27495e-09
-9.73898e-09
1.78876e-09
-9.93202e-09
1.28664e-09
-1.00483e-08
7.72281e-10
-1.00865e-08
2.49551e-10
-1.00459e-08
-2.77554e-10
-9.92658e-09
-8.04926e-10
-9.72897e-09
-1.32838e-09
-9.4543e-09
-1.84368e-09
-9.10439e-09
-2.34659e-09
-8.6817e-09
-2.83291e-09
-8.18932e-09
-3.29849e-09
-7.63092e-09
-3.73933e-09
-7.01077e-09
-4.15156e-09
-6.33368e-09
-4.53153e-09
-5.605e-09
-4.87582e-09
-4.83052e-09
-5.18131e-09
-4.01648e-09
-5.4452e-09
-3.16947e-09
-5.66505e-09
-2.78465e-09
-2.57357e-09
-2.39531e-09
-2.60374e-09
-2.00208e-09
-2.62971e-09
-1.60559e-09
-2.65143e-09
-1.20648e-09
-2.66885e-09
-8.05416e-10
-2.68194e-09
-4.03036e-10
-2.69068e-09
1.2902e-17
-2.69506e-09
4.03036e-10
-2.69506e-09
8.05416e-10
-2.69068e-09
1.20648e-09
-2.68194e-09
1.60559e-09
-2.66885e-09
2.00208e-09
-2.65143e-09
2.39531e-09
-2.62971e-09
2.78465e-09
-2.60374e-09
3.16947e-09
-2.57357e-09
4.01648e-09
-5.66505e-09
4.83052e-09
-5.4452e-09
5.605e-09
-5.18131e-09
6.33368e-09
-4.87582e-09
7.01077e-09
-4.53153e-09
7.63092e-09
-4.15156e-09
8.18932e-09
-3.73933e-09
8.6817e-09
-3.29849e-09
9.10439e-09
-2.83291e-09
9.4543e-09
-2.34659e-09
9.72897e-09
-1.84368e-09
9.92658e-09
-1.32838e-09
1.00459e-08
-8.04926e-10
1.00865e-08
-2.77554e-10
1.00483e-08
2.49551e-10
9.93202e-09
7.72281e-10
9.73898e-09
1.28664e-09
9.47101e-09
1.78876e-09
9.13051e-09
2.27495e-09
8.72041e-09
2.74169e-09
8.24412e-09
3.18566e-09
7.70553e-09
3.60377e-09
7.10892e-09
3.99315e-09
6.45898e-09
4.35118e-09
5.76075e-09
4.67546e-09
5.01958e-09
4.96389e-09
4.24109e-09
5.21459e-09
3.43114e-09
5.42596e-09
2.59579e-09
5.59667e-09
1.74125e-09
5.72564e-09
8.73849e-10
5.81206e-09
5.85541e-09
-9.69329e-10
6.82474e-09
-1.93152e-09
6.77425e-09
-2.87947e-09
6.67359e-09
-3.80617e-09
6.52337e-09
-4.70474e-09
6.32453e-09
-5.56847e-09
6.07832e-09
-6.39086e-09
5.78629e-09
-7.16569e-09
5.45029e-09
-7.88702e-09
5.0725e-09
-8.54926e-09
4.65539e-09
-9.14721e-09
4.20172e-09
-9.6761e-09
3.71455e-09
-1.01316e-08
3.1972e-09
-1.051e-08
2.65329e-09
-1.08079e-08
2.08667e-09
-1.10227e-08
1.50144e-09
-1.11523e-08
9.01897e-10
-1.11953e-08
2.92545e-10
-1.11509e-08
-3.21957e-10
-1.1019e-08
-9.3682e-10
-1.08002e-08
-1.54716e-09
-1.04958e-08
-2.14805e-09
-1.01079e-08
-2.73454e-09
-9.63907e-09
-3.30172e-09
-9.0928e-09
-3.84476e-09
-8.47316e-09
-4.35897e-09
-7.78487e-09
-4.83985e-09
-7.03328e-09
-5.28312e-09
-6.22431e-09
-5.68479e-09
-5.36441e-09
-6.04121e-09
-4.46051e-09
-6.34911e-09
-3.51993e-09
-6.60563e-09
-3.09258e-09
-3.00091e-09
-2.66021e-09
-3.03612e-09
-2.2235e-09
-3.06642e-09
-1.78317e-09
-3.09176e-09
-1.33993e-09
-3.11209e-09
-8.945e-10
-3.12736e-09
-4.47615e-10
-3.13757e-09
1.84279e-17
-3.14267e-09
4.47615e-10
-3.14267e-09
8.945e-10
-3.13757e-09
1.33993e-09
-3.12736e-09
1.78317e-09
-3.11209e-09
2.2235e-09
-3.09176e-09
2.66021e-09
-3.06642e-09
3.09258e-09
-3.03612e-09
3.51993e-09
-3.00091e-09
4.46051e-09
-6.60563e-09
5.36441e-09
-6.34911e-09
6.22431e-09
-6.04121e-09
7.03328e-09
-5.68479e-09
7.78487e-09
-5.28312e-09
8.47316e-09
-4.83985e-09
9.0928e-09
-4.35897e-09
9.63907e-09
-3.84476e-09
1.01079e-08
-3.30172e-09
1.04958e-08
-2.73454e-09
1.08002e-08
-2.14805e-09
1.1019e-08
-1.54716e-09
1.11509e-08
-9.3682e-10
1.11953e-08
-3.21957e-10
1.11523e-08
2.92545e-10
1.10227e-08
9.01897e-10
1.08079e-08
1.50144e-09
1.051e-08
2.08667e-09
1.01316e-08
2.65329e-09
9.6761e-09
3.1972e-09
9.14721e-09
3.71455e-09
8.54926e-09
4.20172e-09
7.88702e-09
4.65539e-09
7.16569e-09
5.0725e-09
6.39086e-09
5.45029e-09
5.56847e-09
5.78629e-09
4.70474e-09
6.07832e-09
3.80617e-09
6.32453e-09
2.87947e-09
6.52337e-09
1.93152e-09
6.67359e-09
9.69329e-10
6.77425e-09
6.82474e-09
-1.07842e-09
7.90315e-09
-2.14891e-09
7.84474e-09
-3.20359e-09
7.72827e-09
-4.23469e-09
7.55447e-09
-5.23455e-09
7.3244e-09
-6.19574e-09
7.0395e-09
-7.11102e-09
6.70157e-09
-7.97348e-09
6.31275e-09
-8.77652e-09
5.87554e-09
-9.51391e-09
5.39279e-09
-1.01799e-08
4.86768e-09
-1.07691e-08
4.30375e-09
-1.12767e-08
3.70484e-09
-1.16985e-08
3.07512e-09
-1.20309e-08
2.41905e-09
-1.22708e-08
1.74135e-09
-1.24159e-08
1.04702e-09
-1.24647e-08
3.41256e-10
-1.24161e-08
-3.7055e-10
-1.227e-08
-1.08285e-09
-1.20272e-08
-1.78998e-09
-1.1689e-08
-2.48624e-09
-1.12577e-08
-3.16588e-09
-1.07362e-08
-3.8232e-09
-1.01283e-08
-4.45262e-09
-9.43865e-09
-5.04867e-09
-8.67237e-09
-5.60613e-09
-7.83546e-09
-6.12003e-09
-6.93451e-09
-6.58574e-09
-5.97671e-09
-6.99901e-09
-4.96978e-09
-7.35604e-09
-3.92191e-09
-7.6535e-09
-3.4458e-09
-3.47703e-09
-2.96406e-09
-3.51786e-09
-2.47749e-09
-3.553e-09
-1.98687e-09
-3.58238e-09
-1.493e-09
-3.60595e-09
-9.9669e-10
-3.62367e-09
-4.98753e-10
-3.6355e-09
2.4836e-17
-3.64142e-09
4.98753e-10
-3.64142e-09
9.9669e-10
-3.6355e-09
1.493e-09
-3.62367e-09
1.98687e-09
-3.60595e-09
2.47749e-09
-3.58238e-09
2.96406e-09
-3.553e-09
3.4458e-09
-3.51786e-09
3.92191e-09
-3.47703e-09
4.96978e-09
-7.6535e-09
5.97671e-09
-7.35604e-09
6.93451e-09
-6.99901e-09
7.83546e-09
-6.58574e-09
8.67237e-09
-6.12003e-09
9.43865e-09
-5.60613e-09
1.01283e-08
-5.04867e-09
1.07362e-08
-4.45262e-09
1.12577e-08
-3.8232e-09
1.1689e-08
-3.16588e-09
1.20272e-08
-2.48624e-09
1.227e-08
-1.78998e-09
1.24161e-08
-1.08285e-09
1.24647e-08
-3.7055e-10
1.24159e-08
3.41256e-10
1.22708e-08
1.04702e-09
1.20309e-08
1.74135e-09
1.16985e-08
2.41905e-09
1.12767e-08
3.07512e-09
1.07691e-08
3.70484e-09
1.01799e-08
4.30375e-09
9.51391e-09
4.86768e-09
8.77652e-09
5.39279e-09
7.97348e-09
5.87554e-09
7.11102e-09
6.31275e-09
6.19574e-09
6.70157e-09
5.23455e-09
7.0395e-09
4.23469e-09
7.3244e-09
3.20359e-09
7.55447e-09
2.14891e-09
7.72827e-09
1.07842e-09
7.84474e-09
7.90315e-09
-1.20403e-09
9.10719e-09
-2.39924e-09
9.03995e-09
-3.57686e-09
8.90589e-09
-4.72821e-09
8.70582e-09
-5.84479e-09
8.44098e-09
-6.91829e-09
8.113e-09
-7.94067e-09
7.72395e-09
-8.9042e-09
7.27628e-09
-9.80152e-09
6.77286e-09
-1.06257e-08
6.21695e-09
-1.13702e-08
5.61221e-09
-1.20291e-08
4.96269e-09
-1.25971e-08
4.27281e-09
-1.30694e-08
3.54736e-09
-1.34418e-08
2.79145e-09
-1.37109e-08
2.01054e-09
-1.38743e-08
1.21035e-09
-1.39299e-08
3.96875e-10
-1.38768e-08
-4.23668e-10
-1.37147e-08
-1.24489e-09
-1.34444e-08
-2.06027e-09
-1.30675e-08
-2.8632e-09
-1.25863e-08
-3.64708e-09
-1.20042e-08
-4.40531e-09
-1.13254e-08
-5.13144e-09
-1.05549e-08
-5.81915e-09
-9.69858e-09
-6.46241e-09
-8.76315e-09
-7.05547e-09
-7.75594e-09
-7.59296e-09
-6.68499e-09
-8.06996e-09
-5.55894e-09
-8.48208e-09
-4.38698e-09
-8.82547e-09
-3.85445e-09
-4.00955e-09
-3.31562e-09
-4.05669e-09
-2.77136e-09
-4.09726e-09
-2.22256e-09
-4.13118e-09
-1.67011e-09
-4.1584e-09
-1.11493e-09
-4.17885e-09
-5.57924e-10
-4.19251e-09
2.60294e-17
-4.19935e-09
5.57924e-10
-4.19935e-09
1.11493e-09
-4.19251e-09
1.67011e-09
-4.17885e-09
2.22256e-09
-4.1584e-09
2.77136e-09
-4.13118e-09
3.31562e-09
-4.09726e-09
3.85445e-09
-4.05669e-09
4.38698e-09
-4.00955e-09
5.55894e-09
-8.82547e-09
6.68499e-09
-8.48208e-09
7.75594e-09
-8.06996e-09
8.76315e-09
-7.59296e-09
9.69858e-09
-7.05547e-09
1.05549e-08
-6.46241e-09
1.13254e-08
-5.81915e-09
1.20042e-08
-5.13144e-09
1.25863e-08
-4.40531e-09
1.30675e-08
-3.64708e-09
1.34444e-08
-2.8632e-09
1.37147e-08
-2.06027e-09
1.38768e-08
-1.24489e-09
1.39299e-08
-4.23668e-10
1.38743e-08
3.96875e-10
1.37109e-08
1.21035e-09
1.34418e-08
2.01054e-09
1.30694e-08
2.79145e-09
1.25971e-08
3.54736e-09
1.20291e-08
4.27281e-09
1.13702e-08
4.96269e-09
1.06257e-08
5.61221e-09
9.80152e-09
6.21695e-09
8.9042e-09
6.77286e-09
7.94067e-09
7.27628e-09
6.91829e-09
7.72395e-09
5.84479e-09
8.113e-09
4.72821e-09
8.44098e-09
3.57686e-09
8.70582e-09
2.39924e-09
8.90589e-09
1.20403e-09
9.03995e-09
9.10719e-09
-1.34997e-09
1.04572e-08
-2.69009e-09
1.03801e-08
-4.01054e-09
1.02263e-08
-5.30166e-09
9.99693e-09
-6.55391e-09
9.69323e-09
-7.75802e-09
9.31711e-09
-8.90499e-09
8.87092e-09
-9.98615e-09
8.35745e-09
-1.09933e-08
7.77998e-09
-1.19186e-08
7.14223e-09
-1.27547e-08
6.44838e-09
-1.34951e-08
5.70305e-09
-1.41336e-08
4.91131e-09
-1.46648e-08
4.07861e-09
-1.50842e-08
3.21083e-09
-1.53879e-08
2.3142e-09
-1.55728e-08
1.39529e-09
-1.56369e-08
4.60966e-10
-1.55789e-08
-4.81634e-10
-1.53987e-08
-1.42517e-09
-1.50968e-08
-2.36215e-09
-1.4675e-08
-3.28499e-09
-1.4136e-08
-4.18606e-09
-1.34835e-08
-5.0578e-09
-1.27222e-08
-5.89275e-09
-1.18577e-08
-6.68365e-09
-1.08966e-08
-7.42352e-09
-9.84632e-09
-8.10574e-09
-8.71518e-09
-8.7241e-09
-7.5122e-09
-9.27294e-09
-6.24712e-09
-9.74716e-09
-4.93026e-09
-1.01423e-08
-4.33185e-09
-4.60797e-09
-3.72633e-09
-4.66221e-09
-3.11468e-09
-4.7089e-09
-2.49791e-09
-4.74795e-09
-1.87704e-09
-4.77927e-09
-1.25308e-09
-4.80281e-09
-6.27055e-10
-4.81854e-09
1.94166e-17
-4.8264e-09
6.27055e-10
-4.8264e-09
1.25308e-09
-4.81854e-09
1.87704e-09
-4.80281e-09
2.49791e-09
-4.77927e-09
3.11468e-09
-4.74795e-09
3.72633e-09
-4.7089e-09
4.33185e-09
-4.66221e-09
4.93026e-09
-4.60797e-09
6.24712e-09
-1.01423e-08
7.5122e-09
-9.74716e-09
8.71518e-09
-9.27294e-09
9.84632e-09
-8.7241e-09
1.08966e-08
-8.10574e-09
1.18577e-08
-7.42352e-09
1.27222e-08
-6.68365e-09
1.34835e-08
-5.89275e-09
1.4136e-08
-5.0578e-09
1.4675e-08
-4.18606e-09
1.50968e-08
-3.28499e-09
1.53987e-08
-2.36215e-09
1.55789e-08
-1.42517e-09
1.56369e-08
-4.81634e-10
1.55728e-08
4.60966e-10
1.53879e-08
1.39529e-09
1.50842e-08
2.3142e-09
1.46648e-08
3.21083e-09
1.41336e-08
4.07861e-09
1.34951e-08
4.91131e-09
1.27547e-08
5.70305e-09
1.19186e-08
6.44838e-09
1.09933e-08
7.14223e-09
9.98615e-09
7.77998e-09
8.90499e-09
8.35745e-09
7.75802e-09
8.87092e-09
6.55391e-09
9.31711e-09
5.30166e-09
9.69323e-09
4.01054e-09
9.99693e-09
2.69009e-09
1.02263e-08
1.34997e-09
1.03801e-08
1.04572e-08
-1.52118e-09
1.19783e-08
-3.0313e-09
1.18902e-08
-4.51937e-09
1.17144e-08
-5.97451e-09
1.14521e-08
-7.38606e-09
1.11048e-08
-8.74356e-09
1.06746e-08
-1.00369e-08
1.01643e-08
-1.12564e-08
9.57692e-09
-1.23927e-08
8.91627e-09
-1.3437e-08
8.18656e-09
-1.43812e-08
7.39255e-09
-1.52176e-08
6.53948e-09
-1.59395e-08
5.63314e-09
-1.65406e-08
4.67974e-09
-1.70157e-08
3.68598e-09
-1.73605e-08
2.65897e-09
-1.75714e-08
1.60623e-09
-1.76461e-08
5.35611e-10
-1.7583e-08
-5.44719e-10
-1.73818e-08
-1.62635e-09
-1.70433e-08
-2.7007e-09
-1.65692e-08
-3.75904e-09
-1.59626e-08
-4.79265e-09
-1.52276e-08
-5.7928e-09
-1.43695e-08
-6.75092e-09
-1.33945e-08
-7.65866e-09
-1.231e-08
-8.50798e-09
-1.11245e-08
-9.29123e-09
-9.84731e-09
-1.00013e-08
-8.48866e-09
-1.06316e-08
-7.05956e-09
-1.11763e-08
-5.57171e-09
-1.16302e-08
-4.89553e-09
-5.28415e-09
-4.21128e-09
-5.34647e-09
-3.52008e-09
-5.4001e-09
-2.82307e-09
-5.44496e-09
-2.12139e-09
-5.48094e-09
-1.41621e-09
-5.50799e-09
-7.08692e-10
-5.52606e-09
4.05594e-17
-5.5351e-09
7.08693e-10
-5.5351e-09
1.41621e-09
-5.52606e-09
2.12139e-09
-5.50799e-09
2.82307e-09
-5.48094e-09
3.52008e-09
-5.44496e-09
4.21128e-09
-5.4001e-09
4.89553e-09
-5.34647e-09
5.57171e-09
-5.28415e-09
7.05956e-09
-1.16302e-08
8.48866e-09
-1.11763e-08
9.84731e-09
-1.06316e-08
1.11245e-08
-1.00013e-08
1.231e-08
-9.29123e-09
1.33945e-08
-8.50798e-09
1.43695e-08
-7.65866e-09
1.52276e-08
-6.75092e-09
1.59626e-08
-5.7928e-09
1.65692e-08
-4.79265e-09
1.70433e-08
-3.75904e-09
1.73818e-08
-2.7007e-09
1.7583e-08
-1.62635e-09
1.76461e-08
-5.44719e-10
1.75714e-08
5.35611e-10
1.73605e-08
1.60623e-09
1.70157e-08
2.65897e-09
1.65406e-08
3.68598e-09
1.59395e-08
4.67974e-09