/*--------------------------------*- C++ -*----------------------------------*\
  =========                 |
  \\      /  F ield         | OpenFOAM: The Open Source CFD Toolbox
   \\    /   O peration     | Website:  https://openfoam.org
    \\  /    A nd           | Version:  10
     \\/     M anipulation  |
\*---------------------------------------------------------------------------*/
FoamFile
{
    format      ascii;
    class       volVectorField;
    location    "300";
    object      Ua;
}
// * * * * * * * * * * * * * * * * * * * * * * * * * * * * * * * * * * * * * //

dimensions      [0 1 -1 0 0 0 0];

internalField   nonuniform List<vector> 
6400
(
(-6.44466e-09 1.31e-09 0)
(-1.92862e-08 1.30028e-09 0)
(-3.19846e-08 1.28091e-09 0)
(-4.44455e-08 1.252e-09 0)
(-5.65759e-08 1.21374e-09 0)
(-6.82851e-08 1.16637e-09 0)
(-7.94848e-08 1.11019e-09 0)
(-9.00902e-08 1.04556e-09 0)
(-1.0002e-07 9.72912e-10 0)
(-1.09198e-07 8.92715e-10 0)
(-1.17553e-07 8.05508e-10 0)
(-1.25018e-07 7.11884e-10 0)
(-1.31533e-07 6.12487e-10 0)
(-1.37046e-07 5.08016e-10 0)
(-1.41509e-07 3.99213e-10 0)
(-1.44884e-07 2.8687e-10 0)
(-1.47141e-07 1.71816e-10 0)
(-1.48256e-07 5.4915e-11 0)
(-1.48217e-07 -6.29362e-11 0)
(-1.47017e-07 -1.8082e-10 0)
(-1.44663e-07 -2.97799e-10 0)
(-1.41166e-07 -4.12931e-10 0)
(-1.36551e-07 -5.25269e-10 0)
(-1.30848e-07 -6.33876e-10 0)
(-1.241e-07 -7.37832e-10 0)
(-1.16356e-07 -8.36243e-10 0)
(-1.07675e-07 -9.2825e-10 0)
(-9.81251e-08 -1.01304e-09 0)
(-8.77797e-08 -1.08986e-09 0)
(-7.67211e-08 -1.15801e-09 0)
(-6.50377e-08 -1.21687e-09 0)
(-5.28234e-08 -1.2659e-09 0)
(-4.37666e-08 -1.29389e-09 0)
(-3.80754e-08 -1.30903e-09 0)
(-3.23225e-08 -1.32206e-09 0)
(-2.65174e-08 -1.33295e-09 0)
(-2.06693e-08 -1.34169e-09 0)
(-1.47878e-08 -1.34826e-09 0)
(-8.88224e-09 -1.35265e-09 0)
(-2.96235e-09 -1.35484e-09 0)
(2.96235e-09 -1.35484e-09 0)
(8.88224e-09 -1.35265e-09 0)
(1.47878e-08 -1.34826e-09 0)
(2.06693e-08 -1.34169e-09 0)
(2.65174e-08 -1.33295e-09 0)
(3.23225e-08 -1.32206e-09 0)
(3.80754e-08 -1.30903e-09 0)
(4.37666e-08 -1.29389e-09 0)
(5.28234e-08 -1.2659e-09 0)
(6.50377e-08 -1.21687e-09 0)
(7.67211e-08 -1.15801e-09 0)
(8.77797e-08 -1.08986e-09 0)
(9.81251e-08 -1.01304e-09 0)
(1.07675e-07 -9.2825e-10 0)
(1.16356e-07 -8.36243e-10 0)
(1.241e-07 -7.37832e-10 0)
(1.30848e-07 -6.33876e-10 0)
(1.36551e-07 -5.25269e-10 0)
(1.41166e-07 -4.12931e-10 0)
(1.44663e-07 -2.97799e-10 0)
(1.47017e-07 -1.80819e-10 0)
(1.48217e-07 -6.29363e-11 0)
(1.48256e-07 5.4915e-11 0)
(1.47141e-07 1.71816e-10 0)
(1.44884e-07 2.8687e-10 0)
(1.41509e-07 3.99214e-10 0)
(1.37046e-07 5.08016e-10 0)
(1.31533e-07 6.12487e-10 0)
(1.25018e-07 7.11884e-10 0)
(1.17553e-07 8.05508e-10 0)
(1.09198e-07 8.92715e-10 0)
(1.0002e-07 9.72912e-10 0)
(9.00902e-08 1.04556e-09 0)
(7.94848e-08 1.11019e-09 0)
(6.82851e-08 1.16637e-09 0)
(5.65759e-08 1.21374e-09 0)
(4.44455e-08 1.252e-09 0)
(3.19846e-08 1.28091e-09 0)
(1.92862e-08 1.30028e-09 0)
(6.44466e-09 1.31e-09 0)
(-6.44673e-09 4.0573e-09 0)
(-1.92924e-08 4.02721e-09 0)
(-3.19949e-08 3.96721e-09 0)
(-4.44598e-08 3.87768e-09 0)
(-5.65942e-08 3.75918e-09 0)
(-6.83071e-08 3.61246e-09 0)
(-7.95106e-08 3.43846e-09 0)
(-9.01195e-08 3.23831e-09 0)
(-1.00053e-07 3.0133e-09 0)
(-1.09234e-07 2.76491e-09 0)
(-1.17591e-07 2.49482e-09 0)
(-1.25059e-07 2.20485e-09 0)
(-1.31577e-07 1.89701e-09 0)
(-1.37091e-07 1.57344e-09 0)
(-1.41556e-07 1.23646e-09 0)
(-1.44933e-07 8.88513e-10 0)
(-1.4719e-07 5.32168e-10 0)
(-1.48306e-07 1.70105e-10 0)
(-1.48267e-07 -1.94903e-10 0)
(-1.47067e-07 -5.60011e-10 0)
(-1.44712e-07 -9.22322e-10 0)
(-1.41215e-07 -1.27891e-09 0)
(-1.36598e-07 -1.62684e-09 0)
(-1.30893e-07 -1.96323e-09 0)
(-1.24143e-07 -2.2852e-09 0)
(-1.16397e-07 -2.59e-09 0)
(-1.07713e-07 -2.87497e-09 0)
(-9.81596e-08 -3.13759e-09 0)
(-8.78106e-08 -3.37552e-09 0)
(-7.67482e-08 -3.5866e-09 0)
(-6.50607e-08 -3.76891e-09 0)
(-5.28421e-08 -3.92077e-09 0)
(-4.37821e-08 -4.00746e-09 0)
(-3.80889e-08 -4.05435e-09 0)
(-3.2334e-08 -4.0947e-09 0)
(-2.65268e-08 -4.12845e-09 0)
(-2.06766e-08 -4.15552e-09 0)
(-1.4793e-08 -4.17586e-09 0)
(-8.8854e-09 -4.18945e-09 0)
(-2.9634e-09 -4.19625e-09 0)
(2.9634e-09 -4.19625e-09 0)
(8.8854e-09 -4.18945e-09 0)
(1.4793e-08 -4.17586e-09 0)
(2.06766e-08 -4.15552e-09 0)
(2.65268e-08 -4.12845e-09 0)
(3.2334e-08 -4.0947e-09 0)
(3.80889e-08 -4.05435e-09 0)
(4.37821e-08 -4.00746e-09 0)
(5.28421e-08 -3.92077e-09 0)
(6.50607e-08 -3.76891e-09 0)
(7.67482e-08 -3.5866e-09 0)
(8.78106e-08 -3.37552e-09 0)
(9.81596e-08 -3.13759e-09 0)
(1.07713e-07 -2.87497e-09 0)
(1.16397e-07 -2.59e-09 0)
(1.24143e-07 -2.2852e-09 0)
(1.30893e-07 -1.96323e-09 0)
(1.36598e-07 -1.62685e-09 0)
(1.41215e-07 -1.27891e-09 0)
(1.44712e-07 -9.22322e-10 0)
(1.47067e-07 -5.60011e-10 0)
(1.48267e-07 -1.94903e-10 0)
(1.48306e-07 1.70105e-10 0)
(1.4719e-07 5.32168e-10 0)
(1.44933e-07 8.88513e-10 0)
(1.41556e-07 1.23646e-09 0)
(1.37091e-07 1.57344e-09 0)
(1.31577e-07 1.89701e-09 0)
(1.25059e-07 2.20485e-09 0)
(1.17591e-07 2.49482e-09 0)
(1.09234e-07 2.76491e-09 0)
(1.00053e-07 3.0133e-09 0)
(9.01195e-08 3.23831e-09 0)
(7.95106e-08 3.43846e-09 0)
(6.83071e-08 3.61246e-09 0)
(5.65942e-08 3.75918e-09 0)
(4.44598e-08 3.87768e-09 0)
(3.19949e-08 3.96721e-09 0)
(1.92924e-08 4.02721e-09 0)
(6.44673e-09 4.0573e-09 0)
(-6.4515e-09 7.07224e-09 0)
(-1.93066e-08 7.01979e-09 0)
(-3.20185e-08 6.9152e-09 0)
(-4.44927e-08 6.75915e-09 0)
(-5.66361e-08 6.5526e-09 0)
(-6.83579e-08 6.29687e-09 0)
(-7.95698e-08 5.99359e-09 0)
(-9.01868e-08 5.64471e-09 0)
(-1.00128e-07 5.2525e-09 0)
(-1.09316e-07 4.81956e-09 0)
(-1.1768e-07 4.34877e-09 0)
(-1.25154e-07 3.84334e-09 0)
(-1.31677e-07 3.30675e-09 0)
(-1.37196e-07 2.74275e-09 0)
(-1.41664e-07 2.15537e-09 0)
(-1.45044e-07 1.54886e-09 0)
(-1.47304e-07 9.27721e-10 0)
(-1.48421e-07 2.96608e-10 0)
(-1.48382e-07 -3.39642e-10 0)
(-1.47183e-07 -9.7607e-10 0)
(-1.44826e-07 -1.60762e-09 0)
(-1.41326e-07 -2.2292e-09 0)
(-1.36706e-07 -2.83571e-09 0)
(-1.30998e-07 -3.42207e-09 0)
(-1.24242e-07 -3.98332e-09 0)
(-1.1649e-07 -4.51464e-09 0)
(-1.078e-07 -5.01139e-09 0)
(-9.82388e-08 -5.46919e-09 0)
(-8.78817e-08 -5.88393e-09 0)
(-7.68104e-08 -6.25188e-09 0)
(-6.51136e-08 -6.56969e-09 0)
(-5.28852e-08 -6.83442e-09 0)
(-4.38178e-08 -6.98553e-09 0)
(-3.81199e-08 -7.06727e-09 0)
(-3.23604e-08 -7.13761e-09 0)
(-2.65485e-08 -7.19644e-09 0)
(-2.06935e-08 -7.24363e-09 0)
(-1.48051e-08 -7.27909e-09 0)
(-8.89266e-09 -7.30278e-09 0)
(-2.96582e-09 -7.31463e-09 0)
(2.96582e-09 -7.31463e-09 0)
(8.89266e-09 -7.30278e-09 0)
(1.48051e-08 -7.27909e-09 0)
(2.06935e-08 -7.24362e-09 0)
(2.65485e-08 -7.19644e-09 0)
(3.23604e-08 -7.13761e-09 0)
(3.81199e-08 -7.06727e-09 0)
(4.38178e-08 -6.98553e-09 0)
(5.28852e-08 -6.83442e-09 0)
(6.51136e-08 -6.56969e-09 0)
(7.68104e-08 -6.25188e-09 0)
(8.78817e-08 -5.88393e-09 0)
(9.82388e-08 -5.46919e-09 0)
(1.078e-07 -5.01139e-09 0)
(1.1649e-07 -4.51464e-09 0)
(1.24242e-07 -3.98333e-09 0)
(1.30998e-07 -3.42207e-09 0)
(1.36706e-07 -2.83571e-09 0)
(1.41326e-07 -2.2292e-09 0)
(1.44826e-07 -1.60762e-09 0)
(1.47183e-07 -9.76069e-10 0)
(1.48382e-07 -3.39642e-10 0)
(1.48421e-07 2.96608e-10 0)
(1.47304e-07 9.27721e-10 0)
(1.45044e-07 1.54886e-09 0)
(1.41664e-07 2.15537e-09 0)
(1.37196e-07 2.74275e-09 0)
(1.31677e-07 3.30675e-09 0)
(1.25154e-07 3.84334e-09 0)
(1.1768e-07 4.34877e-09 0)
(1.09316e-07 4.81956e-09 0)
(1.00128e-07 5.2525e-09 0)
(9.01868e-08 5.64471e-09 0)
(7.95698e-08 5.99359e-09 0)
(6.83579e-08 6.29687e-09 0)
(5.66361e-08 6.5526e-09 0)
(4.44927e-08 6.75915e-09 0)
(3.20185e-08 6.9152e-09 0)
(1.93066e-08 7.01979e-09 0)
(6.4515e-09 7.07224e-09 0)
(-6.45972e-09 1.03825e-08 0)
(-1.93313e-08 1.03055e-08 0)
(-3.20594e-08 1.01519e-08 0)
(-4.45496e-08 9.92286e-09 0)
(-5.67086e-08 9.61965e-09 0)
(-6.84455e-08 9.24425e-09 0)
(-7.9672e-08 8.79904e-09 0)
(-9.0303e-08 8.28689e-09 0)
(-1.00257e-07 7.71114e-09 0)
(-1.09458e-07 7.07558e-09 0)
(-1.17833e-07 6.38446e-09 0)
(-1.25317e-07 5.64248e-09 0)
(-1.31849e-07 4.85475e-09 0)
(-1.37376e-07 4.02678e-09 0)
(-1.41852e-07 3.16447e-09 0)
(-1.45236e-07 2.2741e-09 0)
(-1.475e-07 1.36221e-09 0)
(-1.4862e-07 4.3569e-10 0)
(-1.48582e-07 -4.98385e-10 0)
(-1.47381e-07 -1.43273e-09 0)
(-1.45022e-07 -2.35992e-09 0)
(-1.41519e-07 -3.27248e-09 0)
(-1.36893e-07 -4.16291e-09 0)
(-1.31178e-07 -5.02378e-09 0)
(-1.24414e-07 -5.84779e-09 0)
(-1.16651e-07 -6.62786e-09 0)
(-1.07949e-07 -7.35718e-09 0)
(-9.83756e-08 -8.0293e-09 0)
(-8.80044e-08 -8.63823e-09 0)
(-7.6918e-08 -9.17846e-09 0)
(-6.52049e-08 -9.64507e-09 0)
(-5.29595e-08 -1.00338e-08 0)
(-4.38795e-08 -1.02556e-08 0)
(-3.81736e-08 -1.03756e-08 0)
(-3.2406e-08 -1.04789e-08 0)
(-2.65859e-08 -1.05653e-08 0)
(-2.07227e-08 -1.06346e-08 0)
(-1.4826e-08 -1.06866e-08 0)
(-8.90519e-09 -1.07214e-08 0)
(-2.97e-09 -1.07388e-08 0)
(2.97e-09 -1.07388e-08 0)
(8.90519e-09 -1.07214e-08 0)
(1.4826e-08 -1.06866e-08 0)
(2.07227e-08 -1.06346e-08 0)
(2.65859e-08 -1.05653e-08 0)
(3.2406e-08 -1.04789e-08 0)
(3.81736e-08 -1.03756e-08 0)
(4.38795e-08 -1.02556e-08 0)
(5.29595e-08 -1.00338e-08 0)
(6.52049e-08 -9.64507e-09 0)
(7.6918e-08 -9.17846e-09 0)
(8.80044e-08 -8.63823e-09 0)
(9.83756e-08 -8.0293e-09 0)
(1.07949e-07 -7.35718e-09 0)
(1.16651e-07 -6.62786e-09 0)
(1.24414e-07 -5.84779e-09 0)
(1.31178e-07 -5.02378e-09 0)
(1.36893e-07 -4.16291e-09 0)
(1.41519e-07 -3.27248e-09 0)
(1.45022e-07 -2.35992e-09 0)
(1.47381e-07 -1.43273e-09 0)
(1.48582e-07 -4.98384e-10 0)
(1.4862e-07 4.3569e-10 0)
(1.475e-07 1.36221e-09 0)
(1.45236e-07 2.2741e-09 0)
(1.41852e-07 3.16447e-09 0)
(1.37376e-07 4.02678e-09 0)
(1.31849e-07 4.85475e-09 0)
(1.25317e-07 5.64248e-09 0)
(1.17833e-07 6.38446e-09 0)
(1.09458e-07 7.07558e-09 0)
(1.00257e-07 7.71114e-09 0)
(9.0303e-08 8.28689e-09 0)
(7.9672e-08 8.79904e-09 0)
(6.84455e-08 9.24425e-09 0)
(5.67086e-08 9.61965e-09 0)
(4.45496e-08 9.92286e-09 0)
(3.20594e-08 1.01519e-08 0)
(1.93313e-08 1.03055e-08 0)
(6.45972e-09 1.03825e-08 0)
(-6.47235e-09 1.40191e-08 0)
(-1.93691e-08 1.39152e-08 0)
(-3.21222e-08 1.37079e-08 0)
(-4.46369e-08 1.33986e-08 0)
(-5.68199e-08 1.29892e-08 0)
(-6.85802e-08 1.24824e-08 0)
(-7.98291e-08 1.18813e-08 0)
(-9.04814e-08 1.11898e-08 0)
(-1.00456e-07 1.04124e-08 0)
(-1.09675e-07 9.55431e-09 0)
(-1.18068e-07 8.62117e-09 0)
(-1.25568e-07 7.61934e-09 0)
(-1.32114e-07 6.55573e-09 0)
(-1.37653e-07 5.43777e-09 0)
(-1.42139e-07 4.27345e-09 0)
(-1.45532e-07 3.0712e-09 0)
(-1.47802e-07 1.8399e-09 0)
(-1.48925e-07 5.88818e-10 0)
(-1.48888e-07 -6.72476e-10 0)
(-1.47687e-07 -1.93415e-09 0)
(-1.45324e-07 -3.18618e-09 0)
(-1.41815e-07 -4.41847e-09 0)
(-1.3718e-07 -5.62089e-09 0)
(-1.31454e-07 -6.78341e-09 0)
(-1.24677e-07 -7.89617e-09 0)
(-1.16899e-07 -8.94959e-09 0)
(-1.08179e-07 -9.93449e-09 0)
(-9.85858e-08 -1.08422e-08 0)
(-8.81929e-08 -1.16645e-08 0)
(-7.70832e-08 -1.23941e-08 0)
(-6.53452e-08 -1.30242e-08 0)
(-5.30736e-08 -1.35491e-08 0)
(-4.39742e-08 -1.38487e-08 0)
(-3.8256e-08 -1.40108e-08 0)
(-3.2476e-08 -1.41503e-08 0)
(-2.66433e-08 -1.42669e-08 0)
(-2.07675e-08 -1.43605e-08 0)
(-1.4858e-08 -1.44308e-08 0)
(-8.92445e-09 -1.44778e-08 0)
(-2.97643e-09 -1.45013e-08 0)
(2.97643e-09 -1.45013e-08 0)
(8.92445e-09 -1.44778e-08 0)
(1.4858e-08 -1.44308e-08 0)
(2.07675e-08 -1.43605e-08 0)
(2.66433e-08 -1.42669e-08 0)
(3.2476e-08 -1.41503e-08 0)
(3.8256e-08 -1.40108e-08 0)
(4.39742e-08 -1.38487e-08 0)
(5.30736e-08 -1.35491e-08 0)
(6.53452e-08 -1.30242e-08 0)
(7.70832e-08 -1.23941e-08 0)
(8.81929e-08 -1.16645e-08 0)
(9.85858e-08 -1.08422e-08 0)
(1.08179e-07 -9.93449e-09 0)
(1.16899e-07 -8.94959e-09 0)
(1.24677e-07 -7.89617e-09 0)
(1.31454e-07 -6.78341e-09 0)
(1.3718e-07 -5.62089e-09 0)
(1.41815e-07 -4.41847e-09 0)
(1.45324e-07 -3.18618e-09 0)
(1.47687e-07 -1.93415e-09 0)
(1.48888e-07 -6.72476e-10 0)
(1.48925e-07 5.88818e-10 0)
(1.47802e-07 1.8399e-09 0)
(1.45532e-07 3.0712e-09 0)
(1.42139e-07 4.27345e-09 0)
(1.37653e-07 5.43777e-09 0)
(1.32114e-07 6.55573e-09 0)
(1.25568e-07 7.61934e-09 0)
(1.18068e-07 8.62117e-09 0)
(1.09675e-07 9.55431e-09 0)
(1.00456e-07 1.04124e-08 0)
(9.04814e-08 1.11898e-08 0)
(7.98291e-08 1.18813e-08 0)
(6.85802e-08 1.24824e-08 0)
(5.68199e-08 1.29892e-08 0)
(4.46369e-08 1.33986e-08 0)
(3.21222e-08 1.37079e-08 0)
(1.93691e-08 1.39152e-08 0)
(6.47235e-09 1.40191e-08 0)
(-6.49056e-09 1.80175e-08 0)
(-1.94236e-08 1.78839e-08 0)
(-3.22127e-08 1.76176e-08 0)
(-4.47628e-08 1.72201e-08 0)
(-5.69804e-08 1.66941e-08 0)
(-6.87742e-08 1.60427e-08 0)
(-8.00555e-08 1.52703e-08 0)
(-9.07387e-08 1.43817e-08 0)
(-1.00742e-07 1.33827e-08 0)
(-1.09989e-07 1.228e-08 0)
(-1.18407e-07 1.10808e-08 0)
(-1.2593e-07 9.79331e-09 0)
(-1.32496e-07 8.42642e-09 0)
(-1.38053e-07 6.98967e-09 0)
(-1.42554e-07 5.4933e-09 0)
(-1.45958e-07 3.94816e-09 0)
(-1.48236e-07 2.36567e-09 0)
(-1.49365e-07 7.57716e-10 0)
(-1.4933e-07 -8.6339e-10 0)
(-1.48127e-07 -2.48501e-09 0)
(-1.45759e-07 -4.09427e-09 0)
(-1.42241e-07 -5.67818e-09 0)
(-1.37595e-07 -7.22372e-09 0)
(-1.31853e-07 -8.718e-09 0)
(-1.25056e-07 -1.01483e-08 0)
(-1.17256e-07 -1.15024e-08 0)
(-1.08511e-07 -1.27685e-08 0)
(-9.88888e-08 -1.39353e-08 0)
(-8.84648e-08 -1.49923e-08 0)
(-7.73213e-08 -1.59302e-08 0)
(-6.55476e-08 -1.67402e-08 0)
(-5.32383e-08 -1.7415e-08 0)
(-4.41107e-08 -1.78002e-08 0)
(-3.83749e-08 -1.80085e-08 0)
(-3.25769e-08 -1.81879e-08 0)
(-2.67262e-08 -1.83378e-08 0)
(-2.08321e-08 -1.84581e-08 0)
(-1.49042e-08 -1.85485e-08 0)
(-8.95223e-09 -1.86089e-08 0)
(-2.98569e-09 -1.86391e-08 0)
(2.98569e-09 -1.86391e-08 0)
(8.95223e-09 -1.86089e-08 0)
(1.49042e-08 -1.85485e-08 0)
(2.08321e-08 -1.84581e-08 0)
(2.67262e-08 -1.83378e-08 0)
(3.25769e-08 -1.81879e-08 0)
(3.83749e-08 -1.80085e-08 0)
(4.41107e-08 -1.78002e-08 0)
(5.32383e-08 -1.7415e-08 0)
(6.55476e-08 -1.67402e-08 0)
(7.73213e-08 -1.59302e-08 0)
(8.84648e-08 -1.49923e-08 0)
(9.88888e-08 -1.39353e-08 0)
(1.08511e-07 -1.27685e-08 0)
(1.17256e-07 -1.15024e-08 0)
(1.25056e-07 -1.01483e-08 0)
(1.31853e-07 -8.718e-09 0)
(1.37595e-07 -7.22372e-09 0)
(1.42241e-07 -5.67818e-09 0)
(1.45759e-07 -4.09427e-09 0)
(1.48127e-07 -2.48501e-09 0)
(1.4933e-07 -8.6339e-10 0)
(1.49365e-07 7.57716e-10 0)
(1.48236e-07 2.36567e-09 0)
(1.45958e-07 3.94816e-09 0)
(1.42554e-07 5.4933e-09 0)
(1.38053e-07 6.98967e-09 0)
(1.32496e-07 8.42642e-09 0)
(1.2593e-07 9.79331e-09 0)
(1.18407e-07 1.10808e-08 0)
(1.09989e-07 1.228e-08 0)
(1.00742e-07 1.33827e-08 0)
(9.07387e-08 1.43817e-08 0)
(8.00555e-08 1.52703e-08 0)
(6.87742e-08 1.60427e-08 0)
(5.69804e-08 1.66941e-08 0)
(4.47628e-08 1.72201e-08 0)
(3.22127e-08 1.76176e-08 0)
(1.94236e-08 1.78839e-08 0)
(6.49056e-09 1.80175e-08 0)
(-6.51578e-09 2.24178e-08 0)
(-1.94991e-08 2.22516e-08 0)
(-3.2338e-08 2.19203e-08 0)
(-4.49371e-08 2.14259e-08 0)
(-5.72027e-08 2.07715e-08 0)
(-6.9043e-08 1.99612e-08 0)
(-8.03691e-08 1.90003e-08 0)
(-9.10951e-08 1.78949e-08 0)
(-1.01139e-07 1.66521e-08 0)
(-1.10424e-07 1.52802e-08 0)
(-1.18877e-07 1.37883e-08 0)
(-1.26431e-07 1.21866e-08 0)
(-1.33026e-07 1.0486e-08 0)
(-1.38607e-07 8.69843e-09 0)
(-1.43128e-07 6.83666e-09 0)
(-1.46549e-07 4.91418e-09 0)
(-1.48839e-07 2.94517e-09 0)
(-1.49975e-07 9.44424e-10 0)
(-1.49943e-07 -1.07273e-09 0)
(-1.48737e-07 -3.09057e-09 0)
(-1.46362e-07 -5.09309e-09 0)
(-1.42832e-07 -7.06411e-09 0)
(-1.38169e-07 -8.98743e-09 0)
(-1.32405e-07 -1.0847e-08 0)
(-1.25582e-07 -1.2627e-08 0)
(-1.17751e-07 -1.43122e-08 0)
(-1.0897e-07 -1.58879e-08 0)
(-9.93087e-08 -1.734e-08 0)
(-8.88415e-08 -1.86556e-08 0)
(-7.76514e-08 -1.98229e-08 0)
(-6.58279e-08 -2.08311e-08 0)
(-5.34664e-08 -2.16709e-08 0)
(-4.42999e-08 -2.21503e-08 0)
(-3.85396e-08 -2.24096e-08 0)
(-3.27168e-08 -2.26328e-08 0)
(-2.6841e-08 -2.28195e-08 0)
(-2.09216e-08 -2.29692e-08 0)
(-1.49683e-08 -2.30817e-08 0)
(-8.99071e-09 -2.31568e-08 0)
(-2.99853e-09 -2.31944e-08 0)
(2.99853e-09 -2.31944e-08 0)
(8.99071e-09 -2.31568e-08 0)
(1.49683e-08 -2.30817e-08 0)
(2.09216e-08 -2.29692e-08 0)
(2.6841e-08 -2.28195e-08 0)
(3.27168e-08 -2.26328e-08 0)
(3.85396e-08 -2.24096e-08 0)
(4.42999e-08 -2.21503e-08 0)
(5.34664e-08 -2.16709e-08 0)
(6.58279e-08 -2.08311e-08 0)
(7.76514e-08 -1.98229e-08 0)
(8.88415e-08 -1.86556e-08 0)
(9.93087e-08 -1.734e-08 0)
(1.0897e-07 -1.58879e-08 0)
(1.17751e-07 -1.43122e-08 0)
(1.25582e-07 -1.2627e-08 0)
(1.32405e-07 -1.0847e-08 0)
(1.38169e-07 -8.98743e-09 0)
(1.42832e-07 -7.06411e-09 0)
(1.46362e-07 -5.09309e-09 0)
(1.48737e-07 -3.09057e-09 0)
(1.49943e-07 -1.07273e-09 0)
(1.49975e-07 9.44424e-10 0)
(1.48839e-07 2.94517e-09 0)
(1.46549e-07 4.91418e-09 0)
(1.43128e-07 6.83666e-09 0)
(1.38607e-07 8.69843e-09 0)
(1.33026e-07 1.0486e-08 0)
(1.26431e-07 1.21866e-08 0)
(1.18877e-07 1.37883e-08 0)
(1.10424e-07 1.52802e-08 0)
(1.01139e-07 1.66521e-08 0)
(9.10951e-08 1.78949e-08 0)
(8.03691e-08 1.90003e-08 0)
(6.9043e-08 1.99612e-08 0)
(5.72027e-08 2.07715e-08 0)
(4.49371e-08 2.14259e-08 0)
(3.2338e-08 2.19203e-08 0)
(1.94991e-08 2.22516e-08 0)
(6.51578e-09 2.24178e-08 0)
(-6.54978e-09 2.72663e-08 0)
(-1.96009e-08 2.70643e-08 0)
(-3.25069e-08 2.66614e-08 0)
(-4.51721e-08 2.60602e-08 0)
(-5.75023e-08 2.52645e-08 0)
(-6.94054e-08 2.42792e-08 0)
(-8.07918e-08 2.31107e-08 0)
(-9.15755e-08 2.17665e-08 0)
(-1.01674e-07 2.02553e-08 0)
(-1.1101e-07 1.85869e-08 0)
(-1.1951e-07 1.67727e-08 0)
(-1.27107e-07 1.48247e-08 0)
(-1.33739e-07 1.27565e-08 0)
(-1.39354e-07 1.05825e-08 0)
(-1.43902e-07 8.31818e-09 0)
(-1.47345e-07 5.97993e-09 0)
(-1.49651e-07 3.585e-09 0)
(-1.50797e-07 1.1514e-09 0)
(-1.50768e-07 -1.30225e-09 0)
(-1.4956e-07 -3.75682e-09 0)
(-1.47175e-07 -6.19282e-09 0)
(-1.43629e-07 -8.59058e-09 0)
(-1.38943e-07 -1.09304e-08 0)
(-1.3315e-07 -1.31927e-08 0)
(-1.26291e-07 -1.53584e-08 0)
(-1.18418e-07 -1.74087e-08 0)
(-1.0959e-07 -1.93257e-08 0)
(-9.98751e-08 -2.10926e-08 0)
(-8.93496e-08 -2.26934e-08 0)
(-7.80966e-08 -2.41136e-08 0)
(-6.62061e-08 -2.53404e-08 0)
(-5.37741e-08 -2.63624e-08 0)
(-4.45552e-08 -2.69457e-08 0)
(-3.87618e-08 -2.72613e-08 0)
(-3.29055e-08 -2.75328e-08 0)
(-2.69958e-08 -2.77599e-08 0)
(-2.10424e-08 -2.79421e-08 0)
(-1.50547e-08 -2.8079e-08 0)
(-9.04262e-09 -2.81705e-08 0)
(-3.01584e-09 -2.82162e-08 0)
(3.01584e-09 -2.82162e-08 0)
(9.04262e-09 -2.81705e-08 0)
(1.50547e-08 -2.8079e-08 0)
(2.10424e-08 -2.79421e-08 0)
(2.69958e-08 -2.77599e-08 0)
(3.29055e-08 -2.75328e-08 0)
(3.87618e-08 -2.72613e-08 0)
(4.45552e-08 -2.69457e-08 0)
(5.37741e-08 -2.63624e-08 0)
(6.62061e-08 -2.53404e-08 0)
(7.80966e-08 -2.41136e-08 0)
(8.93496e-08 -2.26934e-08 0)
(9.98751e-08 -2.10926e-08 0)
(1.0959e-07 -1.93257e-08 0)
(1.18418e-07 -1.74087e-08 0)
(1.26291e-07 -1.53584e-08 0)
(1.3315e-07 -1.31927e-08 0)
(1.38943e-07 -1.09304e-08 0)
(1.43629e-07 -8.59058e-09 0)
(1.47175e-07 -6.19282e-09 0)
(1.4956e-07 -3.75682e-09 0)
(1.50768e-07 -1.30225e-09 0)
(1.50797e-07 1.1514e-09 0)
(1.49651e-07 3.585e-09 0)
(1.47345e-07 5.97993e-09 0)
(1.43902e-07 8.31818e-09 0)
(1.39354e-07 1.05825e-08 0)
(1.33739e-07 1.27565e-08 0)
(1.27107e-07 1.48247e-08 0)
(1.1951e-07 1.67727e-08 0)
(1.1101e-07 1.85869e-08 0)
(1.01674e-07 2.02553e-08 0)
(9.15755e-08 2.17665e-08 0)
(8.07918e-08 2.31107e-08 0)
(6.94054e-08 2.42792e-08 0)
(5.75024e-08 2.52645e-08 0)
(4.51721e-08 2.60602e-08 0)
(3.25069e-08 2.66614e-08 0)
(1.96009e-08 2.70643e-08 0)
(6.54978e-09 2.72663e-08 0)
(-6.59473e-09 3.26166e-08 0)
(-1.97354e-08 3.2375e-08 0)
(-3.27303e-08 3.18932e-08 0)
(-4.54829e-08 3.11743e-08 0)
(-5.78985e-08 3.02228e-08 0)
(-6.98845e-08 2.90446e-08 0)
(-8.13507e-08 2.76473e-08 0)
(-9.22107e-08 2.60397e-08 0)
(-1.02381e-07 2.42324e-08 0)
(-1.11784e-07 2.22372e-08 0)
(-1.20347e-07 2.00674e-08 0)
(-1.28e-07 1.77376e-08 0)
(-1.34683e-07 1.52639e-08 0)
(-1.40341e-07 1.26635e-08 0)
(-1.44926e-07 9.95498e-09 0)
(-1.48398e-07 7.15793e-09 0)
(-1.50725e-07 4.29297e-09 0)
(-1.51884e-07 1.38162e-09 0)
(-1.5186e-07 -1.55385e-09 0)
(-1.50648e-07 -4.49054e-09 0)
(-1.48251e-07 -7.40514e-09 0)
(-1.44683e-07 -1.02741e-08 0)
(-1.39967e-07 -1.30739e-08 0)
(-1.34135e-07 -1.5781e-08 0)
(-1.27229e-07 -1.83726e-08 0)
(-1.19301e-07 -2.08262e-08 0)
(-1.1041e-07 -2.31205e-08 0)
(-1.00624e-07 -2.5235e-08 0)
(-9.00218e-08 -2.71509e-08 0)
(-7.86856e-08 -2.88508e-08 0)
(-6.67065e-08 -3.03191e-08 0)
(-5.41812e-08 -3.15423e-08 0)
(-4.48929e-08 -3.22405e-08 0)
(-3.90557e-08 -3.26182e-08 0)
(-3.31552e-08 -3.29433e-08 0)
(-2.72007e-08 -3.32151e-08 0)
(-2.12021e-08 -3.34332e-08 0)
(-1.5169e-08 -3.35971e-08 0)
(-9.1113e-09 -3.37065e-08 0)
(-3.03875e-09 -3.37613e-08 0)
(3.03875e-09 -3.37613e-08 0)
(9.1113e-09 -3.37065e-08 0)
(1.5169e-08 -3.35971e-08 0)
(2.12021e-08 -3.34332e-08 0)
(2.72007e-08 -3.32151e-08 0)
(3.31552e-08 -3.29433e-08 0)
(3.90557e-08 -3.26182e-08 0)
(4.48929e-08 -3.22405e-08 0)
(5.41812e-08 -3.15423e-08 0)
(6.67065e-08 -3.03191e-08 0)
(7.86856e-08 -2.88508e-08 0)
(9.00218e-08 -2.71509e-08 0)
(1.00624e-07 -2.5235e-08 0)
(1.1041e-07 -2.31205e-08 0)
(1.19301e-07 -2.08262e-08 0)
(1.27229e-07 -1.83726e-08 0)
(1.34135e-07 -1.5781e-08 0)
(1.39967e-07 -1.30739e-08 0)
(1.44683e-07 -1.02741e-08 0)
(1.48251e-07 -7.40514e-09 0)
(1.50648e-07 -4.49054e-09 0)
(1.5186e-07 -1.55385e-09 0)
(1.51884e-07 1.38161e-09 0)
(1.50725e-07 4.29297e-09 0)
(1.48398e-07 7.15793e-09 0)
(1.44926e-07 9.95498e-09 0)
(1.40341e-07 1.26635e-08 0)
(1.34683e-07 1.52639e-08 0)
(1.28e-07 1.77376e-08 0)
(1.20347e-07 2.00674e-08 0)
(1.11784e-07 2.22372e-08 0)
(1.02381e-07 2.42324e-08 0)
(9.22107e-08 2.60397e-08 0)
(8.13507e-08 2.76473e-08 0)
(6.98845e-08 2.90446e-08 0)
(5.78985e-08 3.02228e-08 0)
(4.54829e-08 3.11743e-08 0)
(3.27303e-08 3.18932e-08 0)
(1.97354e-08 3.2375e-08 0)
(6.59473e-09 3.26166e-08 0)
(-6.65329e-09 3.85314e-08 0)
(-1.99108e-08 3.82461e-08 0)
(-3.30212e-08 3.76773e-08 0)
(-4.58877e-08 3.68284e-08 0)
(-5.84146e-08 3.57048e-08 0)
(-7.05087e-08 3.43136e-08 0)
(-8.2079e-08 3.26635e-08 0)
(-9.30383e-08 3.07651e-08 0)
(-1.03303e-07 2.86308e-08 0)
(-1.12794e-07 2.62745e-08 0)
(-1.21437e-07 2.37118e-08 0)
(-1.29164e-07 2.09601e-08 0)
(-1.35913e-07 1.80383e-08 0)
(-1.41628e-07 1.49668e-08 0)
(-1.46261e-07 1.17673e-08 0)
(-1.49771e-07 8.46306e-09 0)
(-1.52126e-07 5.07841e-09 0)
(-1.53302e-07 1.63877e-09 0)
(-1.53284e-07 -1.82956e-09 0)
(-1.52066e-07 -5.29954e-09 0)
(-1.49653e-07 -8.74363e-09 0)
(-1.46057e-07 -1.2134e-08 0)
(-1.41302e-07 -1.54427e-08 0)
(-1.35419e-07 -1.86422e-08 0)
(-1.28452e-07 -2.17052e-08 0)
(-1.20452e-07 -2.46054e-08 0)
(-1.11479e-07 -2.73173e-08 0)
(-1.01602e-07 -2.98168e-08 0)
(-9.08985e-08 -3.20817e-08 0)
(-7.94538e-08 -3.40912e-08 0)
(-6.73591e-08 -3.58271e-08 0)
(-5.47122e-08 -3.72732e-08 0)
(-4.53334e-08 -3.80986e-08 0)
(-3.94391e-08 -3.85452e-08 0)
(-3.34808e-08 -3.89295e-08 0)
(-2.7468e-08 -3.92509e-08 0)
(-2.14105e-08 -3.95087e-08 0)
(-1.53182e-08 -3.97025e-08 0)
(-9.20089e-09 -3.98319e-08 0)
(-3.06863e-09 -3.98966e-08 0)
(3.06863e-09 -3.98966e-08 0)
(9.20089e-09 -3.98319e-08 0)
(1.53182e-08 -3.97025e-08 0)
(2.14105e-08 -3.95087e-08 0)
(2.7468e-08 -3.92509e-08 0)
(3.34808e-08 -3.89295e-08 0)
(3.94391e-08 -3.85452e-08 0)
(4.53334e-08 -3.80986e-08 0)
(5.47122e-08 -3.72732e-08 0)
(6.73591e-08 -3.58271e-08 0)
(7.94538e-08 -3.40912e-08 0)
(9.08985e-08 -3.20817e-08 0)
(1.01602e-07 -2.98168e-08 0)
(1.11479e-07 -2.73173e-08 0)
(1.20452e-07 -2.46054e-08 0)
(1.28452e-07 -2.17052e-08 0)
(1.35419e-07 -1.86422e-08 0)
(1.41302e-07 -1.54427e-08 0)
(1.46057e-07 -1.2134e-08 0)
(1.49653e-07 -8.74363e-09 0)
(1.52066e-07 -5.29954e-09 0)
(1.53284e-07 -1.82956e-09 0)
(1.53302e-07 1.63877e-09 0)
(1.52126e-07 5.07841e-09 0)
(1.49771e-07 8.46306e-09 0)
(1.46261e-07 1.17673e-08 0)
(1.41628e-07 1.49668e-08 0)
(1.35913e-07 1.80383e-08 0)
(1.29164e-07 2.09601e-08 0)
(1.21437e-07 2.37118e-08 0)
(1.12794e-07 2.62745e-08 0)
(1.03303e-07 2.86308e-08 0)
(9.30383e-08 3.07651e-08 0)
(8.2079e-08 3.26635e-08 0)
(7.05087e-08 3.43136e-08 0)
(5.84146e-08 3.57048e-08 0)
(4.58877e-08 3.68284e-08 0)
(3.30212e-08 3.76773e-08 0)
(1.99108e-08 3.82461e-08 0)
(6.65329e-09 3.85314e-08 0)
(-6.72875e-09 4.5085e-08 0)
(-2.01367e-08 4.47513e-08 0)
(-3.33962e-08 4.40861e-08 0)
(-4.64094e-08 4.30935e-08 0)
(-5.90798e-08 4.17795e-08 0)
(-7.1313e-08 4.01526e-08 0)
(-8.30175e-08 3.82229e-08 0)
(-9.41049e-08 3.60027e-08 0)
(-1.04491e-07 3.35064e-08 0)
(-1.14095e-07 3.07504e-08 0)
(-1.22843e-07 2.77529e-08 0)
(-1.30665e-07 2.45341e-08 0)
(-1.37498e-07 2.11161e-08 0)
(-1.43287e-07 1.75226e-08 0)
(-1.47981e-07 1.37793e-08 0)
(-1.5154e-07 9.91316e-09 0)
(-1.53931e-07 5.95263e-09 0)
(-1.55129e-07 1.92745e-09 0)
(-1.55119e-07 -2.13159e-09 0)
(-1.53896e-07 -6.19287e-09 0)
(-1.51461e-07 -1.02241e-08 0)
(-1.4783e-07 -1.41928e-08 0)
(-1.43024e-07 -1.80662e-08 0)
(-1.37076e-07 -2.1812e-08 0)
(-1.3003e-07 -2.53982e-08 0)
(-1.21937e-07 -2.8794e-08 0)
(-1.12858e-07 -3.19695e-08 0)
(-1.02862e-07 -3.48965e-08 0)
(-9.20296e-08 -3.75489e-08 0)
(-8.04449e-08 -3.99023e-08 0)
(-6.82012e-08 -4.19353e-08 0)
(-5.53974e-08 -4.36291e-08 0)
(-4.59017e-08 -4.45959e-08 0)
(-3.99339e-08 -4.51189e-08 0)
(-3.3901e-08 -4.55691e-08 0)
(-2.78129e-08 -4.59455e-08 0)
(-2.16794e-08 -4.62474e-08 0)
(-1.55106e-08 -4.64744e-08 0)
(-9.31649e-09 -4.6626e-08 0)
(-3.10719e-09 -4.67018e-08 0)
(3.10719e-09 -4.67018e-08 0)
(9.31649e-09 -4.6626e-08 0)
(1.55106e-08 -4.64744e-08 0)
(2.16794e-08 -4.62474e-08 0)
(2.78129e-08 -4.59455e-08 0)
(3.3901e-08 -4.55691e-08 0)
(3.99339e-08 -4.51189e-08 0)
(4.59017e-08 -4.45959e-08 0)
(5.53974e-08 -4.36291e-08 0)
(6.82012e-08 -4.19353e-08 0)
(8.04449e-08 -3.99023e-08 0)
(9.20296e-08 -3.75489e-08 0)
(1.02862e-07 -3.48965e-08 0)
(1.12858e-07 -3.19695e-08 0)
(1.21937e-07 -2.8794e-08 0)
(1.3003e-07 -2.53982e-08 0)
(1.37076e-07 -2.1812e-08 0)
(1.43024e-07 -1.80662e-08 0)
(1.4783e-07 -1.41928e-08 0)
(1.51461e-07 -1.02241e-08 0)
(1.53896e-07 -6.19287e-09 0)
(1.55119e-07 -2.13159e-09 0)
(1.55129e-07 1.92745e-09 0)
(1.53931e-07 5.95263e-09 0)
(1.5154e-07 9.91316e-09 0)
(1.47981e-07 1.37793e-08 0)
(1.43287e-07 1.75226e-08 0)
(1.37498e-07 2.11161e-08 0)
(1.30665e-07 2.45341e-08 0)
(1.22843e-07 2.77529e-08 0)
(1.14095e-07 3.07504e-08 0)
(1.04491e-07 3.35064e-08 0)
(9.41049e-08 3.60027e-08 0)
(8.30175e-08 3.82229e-08 0)
(7.1313e-08 4.01526e-08 0)
(5.90798e-08 4.17795e-08 0)
(4.64094e-08 4.30935e-08 0)
(3.33962e-08 4.40861e-08 0)
(2.01367e-08 4.47513e-08 0)
(6.72875e-09 4.5085e-08 0)
(-6.82515e-09 5.23658e-08 0)
(-2.04253e-08 5.19786e-08 0)
(-3.38752e-08 5.12066e-08 0)
(-4.70758e-08 5.00545e-08 0)
(-5.99295e-08 4.85295e-08 0)
(-7.23407e-08 4.66412e-08 0)
(-8.42167e-08 4.44013e-08 0)
(-9.54678e-08 4.18242e-08 0)
(-1.06008e-07 3.89264e-08 0)
(-1.15758e-07 3.57269e-08 0)
(-1.24639e-07 3.22468e-08 0)
(-1.32583e-07 2.85095e-08 0)
(-1.39525e-07 2.45406e-08 0)
(-1.45407e-07 2.03677e-08 0)
(-1.5018e-07 1.60203e-08 0)
(-1.53802e-07 1.15299e-08 0)
(-1.56239e-07 6.92949e-09 0)
(-1.57466e-07 2.25351e-09 0)
(-1.57467e-07 -2.46224e-09 0)
(-1.56235e-07 -7.18104e-09 0)
(-1.53774e-07 -1.18654e-08 0)
(-1.50097e-07 -1.64775e-08 0)
(-1.45227e-07 -2.09793e-08 0)
(-1.39196e-07 -2.5333e-08 0)
(-1.32049e-07 -2.95018e-08 0)
(-1.23837e-07 -3.34494e-08 0)
(-1.14622e-07 -3.71413e-08 0)
(-1.04476e-07 -4.05445e-08 0)
(-9.34771e-08 -4.36286e-08 0)
(-8.17133e-08 -4.63652e-08 0)
(-6.92788e-08 -4.87294e-08 0)
(-5.62743e-08 -5.06991e-08 0)
(-4.66292e-08 -5.18235e-08 0)
(-4.05671e-08 -5.24318e-08 0)
(-3.44388e-08 -5.29553e-08 0)
(-2.82543e-08 -5.33931e-08 0)
(-2.20236e-08 -5.37443e-08 0)
(-1.57569e-08 -5.40083e-08 0)
(-9.46445e-09 -5.41845e-08 0)
(-3.15654e-09 -5.42728e-08 0)
(3.15654e-09 -5.42728e-08 0)
(9.46445e-09 -5.41845e-08 0)
(1.57569e-08 -5.40083e-08 0)
(2.20236e-08 -5.37443e-08 0)
(2.82543e-08 -5.33931e-08 0)
(3.44388e-08 -5.29553e-08 0)
(4.05671e-08 -5.24318e-08 0)
(4.66292e-08 -5.18235e-08 0)
(5.62743e-08 -5.06991e-08 0)
(6.92788e-08 -4.87294e-08 0)
(8.17133e-08 -4.63652e-08 0)
(9.34771e-08 -4.36286e-08 0)
(1.04476e-07 -4.05445e-08 0)
(1.14622e-07 -3.71413e-08 0)
(1.23837e-07 -3.34494e-08 0)
(1.32049e-07 -2.95018e-08 0)
(1.39196e-07 -2.5333e-08 0)
(1.45227e-07 -2.09793e-08 0)
(1.50097e-07 -1.64775e-08 0)
(1.53774e-07 -1.18654e-08 0)
(1.56235e-07 -7.18104e-09 0)
(1.57467e-07 -2.46224e-09 0)
(1.57466e-07 2.25351e-09 0)
(1.56239e-07 6.92949e-09 0)
(1.53802e-07 1.15299e-08 0)
(1.5018e-07 1.60203e-08 0)
(1.45407e-07 2.03677e-08 0)
(1.39525e-07 2.45406e-08 0)
(1.32583e-07 2.85095e-08 0)
(1.24639e-07 3.22468e-08 0)
(1.15758e-07 3.57269e-08 0)
(1.06008e-07 3.89264e-08 0)
(9.54678e-08 4.18242e-08 0)
(8.42167e-08 4.44013e-08 0)
(7.23407e-08 4.66412e-08 0)
(5.99295e-08 4.85295e-08 0)
(4.70758e-08 5.00545e-08 0)
(3.38752e-08 5.12066e-08 0)
(2.04253e-08 5.19786e-08 0)
(6.82515e-09 5.23658e-08 0)
(-6.94748e-09 6.04812e-08 0)
(-2.07915e-08 6.00345e-08 0)
(-3.44831e-08 5.91437e-08 0)
(-4.79216e-08 5.78143e-08 0)
(-6.1008e-08 5.60547e-08 0)
(-7.36451e-08 5.38756e-08 0)
(-8.57386e-08 5.12908e-08 0)
(-9.71977e-08 4.83166e-08 0)
(-1.07935e-07 4.49721e-08 0)
(-1.17868e-07 4.1279e-08 0)
(-1.2692e-07 3.72618e-08 0)
(-1.35018e-07 3.29473e-08 0)
(-1.42098e-07 2.8365e-08 0)
(-1.481e-07 2.35466e-08 0)
(-1.52973e-07 1.85262e-08 0)
(-1.56676e-07 1.33401e-08 0)
(-1.59171e-07 8.0262e-09 0)
(-1.60435e-07 2.62446e-09 0)
(-1.60449e-07 -2.82388e-09 0)
(-1.59207e-07 -8.2764e-09 0)
(-1.56713e-07 -1.36898e-08 0)
(-1.52978e-07 -1.90202e-08 0)
(-1.48026e-07 -2.42238e-08 0)
(-1.41891e-07 -2.92569e-08 0)
(-1.34615e-07 -3.40766e-08 0)
(-1.26252e-07 -3.86412e-08 0)
(-1.16866e-07 -4.29104e-08 0)
(-1.06527e-07 -4.68462e-08 0)
(-9.53179e-08 -5.04131e-08 0)
(-8.33265e-08 -5.35786e-08 0)
(-7.06495e-08 -5.63133e-08 0)
(-5.73896e-08 -5.85919e-08 0)
(-4.75544e-08 -5.98926e-08 0)
(-4.13725e-08 -6.05964e-08 0)
(-3.51229e-08 -6.1202e-08 0)
(-2.88157e-08 -6.17085e-08 0)
(-2.24614e-08 -6.21148e-08 0)
(-1.60702e-08 -6.24202e-08 0)
(-9.65266e-09 -6.26241e-08 0)
(-3.21931e-09 -6.27262e-08 0)
(3.21931e-09 -6.27262e-08 0)
(9.65266e-09 -6.26241e-08 0)
(1.60702e-08 -6.24202e-08 0)
(2.24614e-08 -6.21148e-08 0)
(2.88157e-08 -6.17085e-08 0)
(3.51229e-08 -6.1202e-08 0)
(4.13725e-08 -6.05964e-08 0)
(4.75544e-08 -5.98926e-08 0)
(5.73896e-08 -5.85919e-08 0)
(7.06495e-08 -5.63133e-08 0)
(8.33265e-08 -5.35786e-08 0)
(9.53179e-08 -5.04131e-08 0)
(1.06527e-07 -4.68462e-08 0)
(1.16866e-07 -4.29104e-08 0)
(1.26252e-07 -3.86412e-08 0)
(1.34615e-07 -3.40766e-08 0)