/*--------------------------------*- C++ -*----------------------------------*\
  =========                 |
  \\      /  F ield         | OpenFOAM: The Open Source CFD Toolbox
   \\    /   O peration     | Website:  https://openfoam.org
    \\  /    A nd           | Version:  10
     \\/     M anipulation  |
\*---------------------------------------------------------------------------*/
FoamFile
{
    format      ascii;
    class       volScalarField;
    location    "0.061";
    object      p;
}
// * * * * * * * * * * * * * * * * * * * * * * * * * * * * * * * * * * * * * //

dimensions      [0 2 -2 0 0 0 0];

internalField   nonuniform List<scalar> 
4000
(
20.3608
20.3603
20.3591
20.357
20.3542
20.3506
20.3464
20.3413
20.3354
20.3288
20.3214
20.3132
20.3042
20.2944
20.2839
20.2725
20.2604
20.2473
20.2335
20.2186
20.203
20.1863
20.1688
20.1502
20.1306
20.1099
20.0882
20.0653
20.0413
20.016
19.9895
19.9616
19.9325
19.9017
19.8697
19.8359
19.8006
19.7634
19.7246
19.6837
19.6411
19.5961
19.5493
19.4999
19.4484
19.3942
19.3376
19.2781
19.2159
19.1506
19.0824
19.0106
18.9358
18.8572
18.7752
18.689
18.5991
18.5048
18.4065
18.3034
18.196
18.0834
17.9663
17.8436
17.7162
17.5829
17.4445
17.3002
17.1505
16.9947
16.8335
16.666
16.4932
16.3141
16.1298
15.9396
15.7444
15.5436
15.3384
15.1281
14.9142
14.6959
14.4748
14.2502
14.0239
13.7951
13.5657
13.335
13.1048
12.8745
12.6458
12.4181
12.1932
11.9703
11.7511
11.5349
11.3233
11.1153
10.9126
10.7143
10.5217
10.3338
10.152
9.97528
9.80483
9.6395
9.48053
9.32666
9.17909
9.03649
8.90003
8.76832
8.64251
8.52116
8.40541
8.29379
8.18742
8.08481
7.9871
7.89275
7.80293
7.71607
7.63337
7.55323
7.4769
7.40272
7.33199
7.26302
7.19716
7.13266
7.07097
7.01023
6.952
6.89435
6.83893
6.7837
6.73047
6.67706
6.62543
6.57327
6.52273
6.47133
6.42143
6.37037
6.32073
6.26965
6.21997
6.16857
6.11859
6.06661
6.01609
5.96326
5.91193
5.85792
5.80545
5.74982
5.69574
5.63791
5.5816
5.52078
5.46141
5.3966
5.33314
5.26314
5.19438
5.11783
5.04244
4.95791
4.87453
4.78061
4.68797
4.58343
4.48048
4.36436
4.2504
4.12223
3.99705
3.85685
3.72077
3.5692
3.4231
3.26135
3.10664
2.93642
2.77487
2.59815
2.43164
2.25037
2.08066
1.89656
1.72513
1.53962
1.36764
1.18184
1.01035
0.825145
0.654854
0.473089
0.295194
0.0852111
20.3637
20.3632
20.362
20.3599
20.3572
20.3536
20.3493
20.3443
20.3384
20.3318
20.3244
20.3163
20.3073
20.2976
20.2871
20.2758
20.2637
20.2507
20.2369
20.2222
20.2066
20.1901
20.1727
20.1541
20.1347
20.1142
20.0926
20.0698
20.046
20.0209
19.9946
19.9669
19.938
19.9075
19.8756
19.8421
19.8071
19.7702
19.7316
19.6911
19.6487
19.6042
19.5576
19.5086
19.4575
19.4037
19.3474
19.2883
19.2266
19.1617
19.0939
19.0226
18.9482
18.8701
18.7885
18.7028
18.6133
18.5195
18.4215
18.3189
18.2118
18.0996
17.9827
17.8604
17.7331
17.6
17.4617
17.3173
17.1675
17.0115
16.8498
16.6819
16.5084
16.3286
16.1434
15.9521
15.7556
15.5534
15.3466
15.1347
14.9188
14.6986
14.4753
14.2487
14.0201
13.7892
13.5574
13.3246
13.0922
12.8599
12.6292
12.3997
12.173
11.9486
11.728
11.5107
11.2979
11.0892
10.8858
10.687
10.494
10.306
10.1241
9.94749
9.77715
9.6122
9.45354
9.30022
9.15312
9.01121
8.87534
8.74443
8.6193
8.49885
8.38386
8.27319
8.16765
8.06604
7.96917
7.87585
7.78688
7.70104
7.61917
7.54003
7.46448
7.39124
7.32125
7.25317
7.18798
7.12433
7.06323
7.00329
6.9456
6.88869
6.83375
6.77922
6.7264
6.67364
6.62237
6.57081
6.52056
6.46971
6.42003
6.36947
6.31998
6.26937
6.21979
6.16886
6.11894
6.06746
6.01702
5.96477
5.91358
5.86027
5.80804
5.7533
5.69961
5.64289
5.58712
5.52764
5.46896
5.40572
5.34305
5.27482
5.20688
5.13221
5.05756
4.97493
4.89208
4.79994
4.70746
4.60446
4.50117
4.38624
4.27134
4.14392
4.01712
3.87721
3.73884
3.58715
3.43818
3.276
3.118
2.94721
2.78216
2.60496
2.43498
2.25353
2.08062
1.89679
1.72258
1.53793
1.3637
1.17936
1.00613
0.822943
0.651372
0.471468
0.294723
0.084563
20.3696
20.3691
20.3679
20.3658
20.3631
20.3595
20.3553
20.3503
20.3445
20.3379
20.3306
20.3224
20.3136
20.3039
20.2935
20.2823
20.2703
20.2575
20.2438
20.2293
20.2139
20.1975
20.1803
20.162
20.1429
20.1226
20.1013
20.0789
20.0554
20.0306
20.0047
19.9774
19.9489
19.9189
19.8875
19.8545
19.82
19.7837
19.7457
19.7058
19.6641
19.6202
19.5743
19.526
19.4756
19.4226
19.3671
19.3088
19.2479
19.1839
19.1169
19.0466
18.9731
18.8958
18.8151
18.7303
18.6417
18.5488
18.4517
18.3498
18.2435
18.1321
18.0158
17.894
17.7671
17.6344
17.4962
17.3518
17.2018
17.0453
16.883
16.7142
16.5394
16.3581
16.171
15.9775
15.7785
15.5735
15.3634
15.148
14.9284
14.7041
14.4766
14.2456
14.0124
13.777
13.5407
13.3034
13.0665
12.83
12.5953
12.3622
12.132
11.9045
11.6811
11.4613
11.2464
11.036
10.8312
10.6314
10.4377
10.2494
10.0674
9.89107
9.72121
9.55699
9.39924
9.24703
9.10115
8.96063
8.82621
8.69686
8.57333
8.45454
8.34123
8.2323
8.12847
8.02863
7.93351
7.84195
7.75471
7.67063
7.59047
7.51305
7.43917
7.36762
7.29924
7.23279
7.16916
7.10706
7.04745
6.98899
6.9327
6.87719
6.82356
6.77032
6.7187
6.66712
6.61691
6.56641
6.51707
6.46712
6.4182
6.36839
6.31951
6.26952
6.22042
6.17003
6.12054
6.06958
6.0196
5.96796
5.91735
5.86486
5.81346
5.75985
5.70732
5.65213
5.59794
5.54045
5.48377
5.42295
5.36267
5.2972
5.23189
5.16017
5.0882
5.00845
4.92805
4.83844
4.7479
4.64676
4.54456
4.43055
4.31565
4.18799
4.05994
3.91855
3.77769
3.62334
3.47081
3.30507
3.14277
2.96793
2.79829
2.61703
2.44271
2.25769
2.08113
1.89464
1.71784
1.53173
1.35615
1.17163
0.998302
0.816123
0.645547
0.467359
0.292864
0.0832481
20.3784
20.3779
20.3767
20.3747
20.3719
20.3684
20.3642
20.3592
20.3535
20.3469
20.3397
20.3316
20.3229
20.3133
20.3031
20.292
20.2802
20.2675
20.2541
20.2398
20.2247
20.2086
20.1917
20.1738
20.155
20.1351
20.1143
20.0923
20.0693
20.0451
20.0198
19.9931
19.9652
19.9359
19.9052
19.873
19.8393
19.8038
19.7667
19.7277
19.6869
19.644
19.5992
19.552
19.5027
19.4508
19.3966
19.3395
19.2799
19.2171
19.1515
19.0825
19.0103
18.9344
18.8551
18.7717
18.6845
18.5929
18.4972
18.3966
18.2915
18.1812
18.0659
17.945
17.8189
17.6867
17.5488
17.4045
17.2542
17.0972
16.934
16.7638
16.5873
16.4037
16.2138
16.017
15.8141
15.6047
15.3898
15.169
14.9434
14.7129
14.4787
14.2408
14.0006
13.758
13.5146
13.2703
13.0266
12.7836
12.5428
12.3039
12.0685
11.8363
11.6087
11.3853
11.1674
10.9544
10.7476
10.5463
10.3516
10.1627
9.98073
9.80474
9.63565
9.47256
9.31628
9.16583
9.02197
8.88367
8.75165
8.62484
8.50394
8.38786
8.27729
8.17112
8.07005
7.97295
7.88053
7.79165
7.70704
7.62556
7.54794
7.47304
7.40161
7.3325
7.2665
7.20239
7.14106
7.08122
7.02382
6.96753
6.91334
6.85989
6.80822
6.75691
6.70709
6.65725
6.60865
6.55966
6.5117
6.46303
6.41523
6.36646
6.31849
6.26933
6.22096
6.17127
6.12243
6.07215
6.02286
5.97203
5.92233
5.87097
5.82084
5.76884
5.71813
5.66516
5.61343
5.55885
5.50533
5.44811
5.39161
5.33031
5.26924
5.20202
5.13445
5.05916
4.98293
4.89729
4.81018
4.71201
4.61202
4.49947
4.38508
4.25699
4.12747
3.98357
3.83918
3.68034
3.52248
3.35067
3.18178
2.99994
2.82323
2.63489
2.45387
2.26256
2.08047
1.8892
1.70865
1.51974
1.3425
1.15733
0.984466
0.803614
0.635345
0.459888
0.289201
0.080935
20.3901
20.3896
20.3884
20.3864
20.3836
20.3802
20.376
20.371
20.3654
20.3589
20.3518
20.3438
20.3352
20.3258
20.3157
20.3048
20.2932
20.2808
20.2677
20.2537
20.2389
20.2232
20.2067
20.1893
20.171
20.1516
20.1314
20.1101
20.0877
20.0642
20.0397
20.0138
19.9868
19.9583
19.9286
19.8974
19.8647
19.8303
19.7944
19.7567
19.7172
19.6756
19.6321
19.5864
19.5386
19.4882
19.4356
19.3801
19.3222
19.2612
19.1973
19.1301
19.0598
18.9858
18.9084
18.8269
18.7416
18.6519
18.558
18.4592
18.3558
18.2472
18.1334
18.0139
17.8889
17.7576
17.6204
17.4764
17.326
17.1684
17.0041
16.8323
16.6535
16.467
16.2734
16.0722
15.8642
15.6488
15.4271
15.1987
14.9649
14.7256
14.4821
14.2345
13.9843
13.7316
13.4781
13.2239
12.9707
12.7185
12.4691
12.2223
11.9797
11.7411
11.5079
11.2798
11.0579
10.8418
10.6326
10.4297
10.234
10.0447
9.86291
9.68762
9.51969
9.35821
9.20393
9.05586
8.91471
8.77941
8.65065
8.52731
8.41004
8.29772
8.19099
8.08871
7.99153
7.89831
7.80971
7.7246
7.64368
7.5658
7.49171
7.42025
7.35218
7.28636
7.22356
7.16261
7.10435
7.04756
6.99312
6.93977
6.88845
6.83781
6.78886
6.74019
6.69289
6.64544
6.59906
6.55213
6.50602
6.45901
6.41264
6.3651
6.31814
6.26984
6.22215
6.17307
6.12474
6.07503
6.02632
5.97627
5.92747
5.87737
5.82876
5.77878
5.73044
5.68046
5.63213
5.58163
5.53257
5.48049
5.42943
5.37414
5.31923
5.25853
5.19741
5.12865
5.05856
4.97879
4.89681
4.80307
4.70644
4.59614
4.48265
4.35401
4.22244
4.07487
3.92536
3.75984
3.59413
3.41322
3.23455
3.04222
2.855
2.65609
2.46515
2.26451
2.07436
1.87611
1.69025
1.49744
1.31816
1.13242
0.960783
0.782432
0.618218
0.447468
0.282974
0.0774127
20.4047
20.4042
20.403
20.401
20.3983
20.3948
20.3907
20.3858
20.3802
20.3738
20.3667
20.3589
20.3504
20.3412
20.3313
20.3206
20.3093
20.2972
20.2844
20.2708
20.2564
20.2412
20.2252
20.2083
20.1907
20.172
20.1525
20.1319
20.1104
20.0878
20.0642
20.0393
20.0134
19.9861
19.9576
19.9276
19.8963
19.8633
19.8289
19.7926
19.7547
19.7148
19.6731
19.6291
19.5832
19.5348
19.4842
19.4308
19.375
19.3161
19.2546
19.1897
19.1217
19.0501
18.9751
18.8961
18.8133
18.726
18.6346
18.5382
18.4372
18.3307
18.2191
18.1015
17.9782
17.8483
17.7122
17.5689
17.4187
17.2607
17.0954
16.9219
16.7405
16.5505
16.3524
16.1457
15.931
15.7079
15.4773
15.239
14.9943
14.7432
14.4872
14.2265
13.9629
13.6966
13.4297
13.1623
12.8963
12.6321
12.3712
12.114
11.8619
11.615
11.3745
11.1403
10.9135
10.6937
10.4819
10.2773
10.0809
9.89188
9.71098
9.53727
9.3715
9.21265
9.06142
8.91677
8.77933
8.64805
8.52352
8.40464
8.292
8.18446
8.08258
7.98524
7.893
7.80471
7.72098
7.64068
7.56444
7.49116
7.42151
7.35438
7.29051
7.22877
7.16994
7.11288
7.05839
7.00533
6.95453
6.90479
6.857
6.80988
6.76437
6.71911
6.67509
6.63084
6.58748
6.54341
6.49988
6.45521
6.41084
6.36499
6.31934
6.27205
6.22504
6.1764
6.1283
6.07876
6.03016
5.98038
5.93204
5.88281
5.83547
5.78744
5.74164
5.6951
5.65089
5.60554
5.56234
5.51714
5.47356
5.42666
5.3805
5.32919
5.27746
5.2183
5.15737
5.0864
5.01224
4.92533
4.83399
4.72738
4.61556
4.48646
4.35214
4.19943
4.04252
3.86728
3.69001
3.49571
3.30259
3.09481
2.89208
2.67767
2.47224
2.25808
2.05631
1.84818
1.65496
1.45696
1.27525
1.08933
0.920188
0.746276
0.588815
0.425898
0.271461
0.0715084
20.4221
20.4217
20.4204
20.4184
20.4157
20.4123
20.4082
20.4033
20.3978
20.3915
20.3845
20.3768
20.3685
20.3594
20.3497
20.3393
20.3283
20.3165
20.3041
20.2909
20.2771
20.2624
20.247
20.2308
20.2138
20.1959
20.1772
20.1576
20.137
20.1155
20.093
20.0693
20.0446
20.0186
19.9915
19.963
19.9333
19.902
19.8693
19.8349
19.7989
19.761
19.7214
19.6796
19.6359
19.5898
19.5416
19.4908
19.4376
19.3814
19.3226
19.2606
19.1955
19.1269
19.0549
18.979
18.8993
18.8152
18.7268
18.6336
18.5356
18.4322
18.3234
18.2085
18.0877
17.96
17.8256
17.6836
17.5342
17.3764
17.2104
17.0352
16.8512
16.6573
16.4542
16.2409
16.0182
15.7854
15.5436
15.2926
15.0337
14.7671
14.4945
14.2164
13.935
13.6508
13.3662
13.0816
12.7993
12.5197
12.2448
11.9746
11.711
11.4538
11.2046
10.963
10.7303
10.506
10.291
10.0847
9.88781
9.69944
9.52026
9.3492
9.18685
9.03209
8.88545
8.74581
8.6137
8.48798
8.3692
8.25622
8.14957
8.04809
7.95234
7.86114
7.77504
7.69286
7.61516
7.54079
7.47035
7.40273
7.33856
7.27676
7.21802
7.16128
7.10728
7.05495
7.00506
6.95652
6.91014
6.86476
6.82123
6.77831
6.73688
6.69562
6.65545
6.61495
6.57512
6.53441
6.49395
6.45208
6.41011
6.36631
6.32224
6.27611
6.22978
6.18146
6.13329
6.08346
6.03439
5.98423
5.93559
5.88654
5.83981
5.79327
5.7497
5.70662
5.66687
5.62744
5.59123
5.5546
5.52059
5.48471
5.45033
5.41192
5.3734
5.32799
5.28045
5.2226
5.16039
5.08418
5.00148
4.90122
4.79287
4.66409
4.5267
4.36726
4.20018
4.01122
3.81737
3.60371
3.38958
3.15933
2.93406
2.69724
2.47094
2.23752
2.01937
1.79757
1.5944
1.38977
1.20545
1.02032
0.855833
0.689492
0.542879
0.392466
0.253427
0.0629967
20.4424
20.442
20.4407
20.4387
20.436
20.4326
20.4285
20.4236
20.4181
20.4119
20.405
20.3974
20.3892
20.3803
20.3709
20.3607
20.35
20.3386
20.3266
20.3139
20.3006
20.2866
20.2719
20.2564
20.2403
20.2233
20.2056
20.187
20.1677
20.1473
20.1261
20.1039
20.0807
20.0563
20.0309
20.0041
19.9762
19.9469
19.9162
19.8839
19.8502
19.8146
19.7774
19.7381
19.6971
19.6538
19.6084
19.5605
19.5103
19.4573
19.4018
19.3431
19.2815
19.2164
19.1481
19.0758
18.9999
18.9196
18.8352
18.7459
18.6518
18.5522
18.4472
18.336
18.2186
18.094
17.9625
17.8228
17.6751
17.5183
17.3523
17.1761
16.9897
16.7921
16.5834
16.3627
16.1305
15.8861
15.6306
15.3635
15.0866
14.8
14.5058
14.2049
13.8999
13.5919
13.2837
12.9765
12.6728
12.3735
12.0808
11.7949
11.5178
11.2492
10.9905
10.7413
10.5027
10.2741
10.0563
9.84864
9.65178
9.46471
9.28805
9.12062
8.9629
8.81361
8.67317
8.54027
8.41532
8.29705
8.18588
8.08059
7.98164
7.88784
7.79968
7.716
7.63728
7.56239
7.49181
7.42443
7.36078
7.29977
7.24198
7.18635
7.13353
7.08252
7.03403
6.98711
6.94253
6.8993
6.85821
6.81822
6.78006
6.74258
6.70651
6.67057
6.63549
6.59986
6.56452
6.52792
6.49107
6.45231
6.41288
6.37105
6.32832
6.28296
6.2368
6.18814
6.13912
6.08813
6.03762
5.98604
5.93606
5.88615
5.83911
5.79327
5.75138
5.7115
5.67626
5.64324
5.61496
5.58834
5.56589
5.54365
5.52425
5.50259
5.48166
5.45496
5.42612
5.38702
5.34238
5.28235
5.21326
5.1236
5.02192
4.8953
4.75509
4.58738
4.40677
4.19881
3.98147
3.74
3.4954
3.23253
2.97452
2.70532
2.44907
2.18832
1.94721
1.70666
1.49027
1.27738
1.0907
0.908226
0.751974
0.598226
0.469034
0.338578
0.223814
0.0494875
20.4656
20.4651
20.4639
20.4618
20.4591
20.4556
20.4515
20.4466
20.4411
20.4349
20.428
20.4205
20.4125
20.4038
20.3945
20.3847
20.3743
20.3632
20.3517
20.3395
20.3268
20.3133
20.2994
20.2847
20.2694
20.2534
20.2368
20.2193
20.2012
20.1822
20.1625
20.1418
20.1202
20.0976
20.0741
20.0493
20.0235
19.9963
19.968
19.9381
19.9069
19.874
19.8396
19.8033
19.7653
19.7251
19.683
19.6385
19.5919
19.5425
19.4908
19.436
19.3785
19.3176
19.2535
19.1857
19.1144
19.0388
18.9591
18.8746
18.7854
18.6908
18.5907
18.4843
18.3717
18.2517
18.1244
17.9885
17.844
17.6895
17.525
17.3489
17.1612
16.9603
16.7462
16.5176
16.2748
16.0166
15.7441
15.4568
15.1565
14.844
14.5218
14.1913
13.8559
13.5173
13.1789
12.8424
12.5111
12.1863
11.8706
11.5649
11.271
10.9888
10.7197
10.4629
10.2193
9.9878
9.76914
9.56215
9.36739
9.18366
9.01146
8.8495
8.69818
8.55616
8.42372
8.29949
8.1837
8.07497
7.97357
7.87816
7.78906
7.70502
7.62642
7.55208
7.48242
7.4163
7.3542
7.29502
7.23926
7.18587
7.13538
7.08678
7.04065
6.99604
6.95361
6.91249
6.87344
6.83567
6.79997
6.76553
6.7331
6.7017
6.67196
6.64269
6.61436
6.58553
6.55665
6.52606
6.4944
6.45995
6.42367
6.38389
6.34202
6.29646
6.24905
6.1983
6.14645
6.09215
6.03801
5.98287
5.92959
5.87715
5.82843
5.78237
5.74169
5.70505
5.67487
5.6494
5.63073
5.61651
5.60859
5.60375
5.60373
5.6041
5.60668
5.60538
5.60245
5.58982
5.57063
5.53461
5.48647
5.41386
5.32395
5.20276
5.06081
4.88324
4.68476
4.45041
4.19956
3.91771
3.62849
3.31763
3.0115
2.69497
2.39525
2.09528
1.82169
1.55509
1.32085
1.09746
0.90886
0.731781
0.589083
0.455444
0.35364
0.254552
0.178236
0.0285603
20.4917
20.4912
20.4899
20.4878
20.485
20.4814
20.4772
20.4722
20.4666
20.4604
20.4535
20.4461
20.4381
20.4295
20.4205
20.4109
20.4009
20.3903
20.3793
20.3677
20.3557
20.343
20.3299
20.3162
20.302
20.2871
20.2717
20.2556
20.2389
20.2214
20.2033
20.1843
20.1647
20.144
20.1226
20.1
20.0766
20.0518
20.0261
19.9989
19.9706
19.9406
19.9093
19.8763
19.8416
19.805
19.7665
19.7258
19.6831
19.6379
19.5904
19.54
19.4871
19.4309
19.3718
19.3091
19.243
19.1729
19.0988
19.0202
18.937
18.8484
18.7546
18.6545
18.5481
18.4344
18.3131
18.183
18.0438
17.8939
17.733
17.5592
17.3721
17.1696
16.9513
16.7153
16.4612
16.1876
15.8948
15.5823
15.2517
14.9041
14.5431
14.1717
13.7948
13.4156
13.0384
12.6657
12.3009
11.9459
11.6034
11.2745
10.9612
10.6636
10.3829
10.1183
9.87046
9.63784
9.4207
9.21741
9.02809
8.85116
8.6868
8.53351
8.39153
8.25942
8.13738
8.02398
7.91939
7.82215
7.73243
7.6488
7.57146
7.49908
7.43191
7.3687
7.30978
7.254
7.20174
7.15193
7.10502
7.06
7.01741
6.97636
6.93747
6.89991
6.86435
6.82995
6.7974
6.76597
6.73641
6.70807
6.68172
6.65667
6.63356
6.61147
6.59083
6.57029
6.55
6.52811
6.50462
6.47742
6.44686
6.41094
6.37077
6.32469
6.27456
6.21908
6.16077
6.09869
6.03591
5.9719
5.91007
5.85012
5.7954
5.74554
5.70339
5.66828
5.64244
5.62482
5.61709
5.61768
5.62785
5.64523
5.67068
5.70053
5.73535
5.76955
5.80368
5.82967
5.8485
5.84928
5.83421
5.7897
5.72046
5.61095
5.46984
5.2808
5.05783
4.78535
4.48404
4.14061
3.78229
3.39745
3.01714
2.62881
2.26374
1.90626
1.58572
1.28279
1.02445
0.788297
0.599275
0.432767
0.312372
0.21117
0.153099
0.105187
0.0931968
-0.00964526
20.5208
20.5202
20.5189
20.5166
20.5136
20.5099
20.5055
20.5004
20.4947
20.4883
20.4814
20.4738
20.4658
20.4572
20.4483
20.4388
20.429
20.4187
20.408
20.3969
20.3854
20.3735
20.3612
20.3484
20.3352
20.3214
20.3073
20.2926
20.2774
20.2616
20.2452
20.2282
20.2105
20.1921
20.1729
20.1528
20.132
20.11
20.0871
20.063
20.0379
20.0113
19.9835
19.9541
19.9232
19.8906
19.8563
19.8199
19.7817
19.7411
19.6984
19.653
19.6053
19.5546
19.5011
19.4442
19.3842
19.3204
19.253
19.1812
19.1051
19.024
18.9379
18.8458
18.7477
18.6423
18.5295
18.4078
18.2769
18.1348
17.9808
17.8128
17.6296
17.4287
17.2088
16.9671
16.7023
16.4122
16.0965
15.754
15.3864
14.9946
14.5828
14.1556
13.7204
13.2837
12.8525
12.4309
12.0236
11.6325
11.2601
10.9068
10.5743
10.262
9.97087
9.69979
9.44911
9.21706
9.00351
8.80638
8.62536
8.45836
8.30518
8.16395
8.03467
7.91568
7.80708
7.70734
7.61656
7.53325
7.4575
7.38785
7.32441
7.26581
7.21219
7.16226
7.11623
7.0729
7.03254
6.99401
6.95761
6.92228
6.88841
6.85514
6.82317
6.79197
6.76245
6.73417
6.70798
6.6834
6.66111
6.6406
6.62243
6.60602
6.59176
6.57889
6.56758
6.55675
6.54639
6.53488
6.52181
6.50479
6.48328
6.45467
6.41918
6.37465
6.32251
6.26134
6.19382
6.11949
6.04221
5.96247
5.88479
5.81013
5.74277
5.68348
5.6355
5.59902
5.57613
5.56655
5.57146
5.59029
5.62364
5.67043
5.73051
5.80145
5.88228
5.96839
6.05802
6.14326
6.22177
6.28169
6.32107
6.3243
6.29166
6.20507
6.06922
5.86534
5.60492
5.27181
4.88791
4.44345
3.97156
3.4674
2.96926
2.47052
2.00733
1.56693
1.18064
0.829466
0.540633
0.290794
0.104635
-0.0436184
-0.13036
-0.183338
-0.17786
-0.148641
-0.0649645
-0.0734617
20.553
20.5524
20.5509
20.5484
20.5452
20.5412
20.5365
20.5311
20.5251
20.5186
20.5115
20.504
20.496
20.4876
20.4789
20.4698
20.4603
20.4505
20.4404
20.43
20.4193
20.4082
20.3968
20.3851
20.3731
20.3606
20.3479
20.3347
20.3212
20.3071
20.2927
20.2776
20.2622
20.246
20.2293
20.2118
20.1937
20.1746
20.1548
20.1339
20.1121
20.0891
20.065
20.0394
20.0126
19.9842
19.9543
19.9225
19.8891
19.8535
19.816
19.7761
19.7339
19.6891
19.6418
19.5913
19.5381
19.4813
19.4213
19.3573
19.2896
19.2172
19.1403
19.0579
18.9701
18.8755
18.7741
18.6642
18.5453
18.4154
18.2734
18.1167
17.9435
17.7501
17.5342
17.2912
17.018
16.7099
16.3647
15.9801
15.5586
15.1041
14.6241
14.1256
13.6181
13.1093
12.6083
12.1221
11.6579
11.2191
10.8087
10.4261
10.072
9.74471
9.44408
9.1681
8.91654
8.68718
8.47954
8.29113
8.12122
7.9673
7.82872
7.70327
7.59059
7.48881
7.3978
7.31589
7.24305
7.17771
7.11985
7.06798
7.02212
6.98087
6.94426
6.91103
6.88123
6.85369
6.82849
6.80449
6.7818
6.75936
6.73732
6.71476
6.6921
6.66869
6.64539
6.62221
6.60056
6.58081
6.56428
6.55115
6.5422
6.53726
6.5365
6.53917
6.5445
6.55079
6.55669
6.56024
6.56039
6.55501
6.54317
6.5221
6.49114
6.44743
6.39142
6.32113
6.23887
6.14456
6.04308
5.93662
5.83155
5.73089
5.64045
5.56242
5.5008
5.45673
5.43238
5.42816
5.44493
5.48308
5.54304
5.62502
5.72839
5.85197
5.99392
6.15074
6.31868
6.48951
6.65666
6.80601
6.92947
7.00786
7.03496
6.98873
6.86799
6.65021
6.34232
5.92644
5.42498
4.8349
4.19958
3.52802
2.86979
2.22798
1.6433
1.10625
0.647345
0.247286
-0.0694106
-0.327391
-0.504382
-0.626991
-0.672651
-0.668922
-0.591077
-0.471215
-0.283143
-0.148149
20.5886
20.588
20.5863
20.5835
20.5798
20.5753
20.57
20.564
20.5574
20.5501
20.5424
20.5343
20.5259
20.5171
20.5081
20.4988
20.4894
20.4798
20.47
20.4599
20.4498
20.4394
20.4289
20.4181
20.4073
20.3962
20.3849
20.3734
20.3617
20.3496
20.3373
20.3246
20.3116
20.2981
20.2843
20.2697
20.2548
20.239
20.2227
20.2055
20.1876
20.1686
20.1487
20.1276
20.1054
20.0817
20.0567
20.0301
20.002
19.9719
19.9402
19.9062
19.8704
19.832
19.7914
19.7481
19.7022
19.6533
19.6015
19.5463
19.4878
19.4254
19.3592
19.2884
19.2129
19.1318
19.0448
18.9505
18.8484
18.7363
18.613
18.4756
18.3216
18.1468
17.9472
17.7165
17.4489
17.1356
16.7683
16.3369
15.8368
15.2722
14.664
14.038
13.4149
12.803
12.2094
11.6405
11.1053
10.608
10.1516
9.73518
9.35832
9.01769
8.71164
8.43673
8.19169
7.97355
7.78116
7.61153
7.46332
7.33347
7.22073
7.12238
7.03752
6.96394
6.9011
6.84716
6.80176
6.76328
6.7315
6.70499
6.68357
6.66597
6.65207
6.64074
6.63187
6.62434
6.61794
6.61135
6.60421
6.59534
6.58494
6.57289
6.56005
6.54576
6.53026
6.51322
6.49592
6.4793
6.46545
6.45574
6.45187
6.45484
6.46544
6.48392
6.50984
6.54147
6.57524
6.60672
6.63161
6.6464
6.64929
6.63816
6.61219
6.56847
6.50655
6.42401
6.32261
6.20255
6.06951
5.92784
5.78626
5.65094
5.5297
5.42621
5.34478
5.28709
5.25488
5.24888
5.2699
5.31927
5.39805
5.5075
5.64754
5.81815
6.01857
6.24658
6.49836
6.76503
7.03748
7.2982
7.53272
7.7164
7.83513
7.86081
7.78744
7.58739
7.25373
6.75481
6.11262
5.3393
4.5014
3.63101
2.79377
2.00267
1.30044
0.677265
0.159603
-0.275093
-0.606998
-0.863725
-1.02608
-1.1223
-1.1302
-1.07717
-0.938481
-0.741307
-0.473817
-0.201493
20.6282
20.6273
20.6252
20.6219
20.6176
20.6125
20.6069
20.6006
20.5937
20.5863
20.5786
20.5704
20.562
20.5534
20.5445
20.5355
20.5264
20.5172
20.5079
20.4985
20.4891
20.4795
20.4699
20.4601
20.4504
20.4404
20.4306
20.4205
20.4104
20.4002
20.3899
20.3793
20.3686
20.3575
20.3463
20.3347
20.3228
20.3103
20.2974
20.2838
20.2697
20.2547
20.2391
20.2223
20.2048
20.186
20.1661
20.1447
20.1221
20.0978
20.072
20.0443
20.0149
19.9833
19.9497
19.9138
19.8757
19.835
19.7919
19.746
19.6975
19.6458
19.5913
19.5332
19.4718
19.4062
19.3364
19.2613
19.1805
19.092
18.9948
18.8856
18.7617
18.6177
18.4483
18.2447
17.9985
17.6981
17.3334
16.8875
16.343
15.6692
14.8746
14.023
13.1767
12.3622
11.5947
10.885
10.2421
9.66684
9.16004
8.71777
8.33648
8.00857
7.72841
7.48859
7.28502
7.11218
6.96739
6.84616
6.74645
6.66434
6.59828
6.54498
6.50345
6.47102
6.44722
6.42986
6.41883
6.41228
6.41034
6.41141
6.41578
6.42208
6.43072
6.44051
6.45187
6.46366
6.47604
6.48736
6.49626
6.49969
6.49758
6.49076
6.48084
6.46827
6.45382
6.43762
6.42065
6.40398
6.3896
6.37942
6.37589
6.38098
6.39614
6.42192
6.45858
6.50549
6.56007
6.61714
6.66956
6.70976
6.73257
6.73584
6.71916
6.68022
6.61735
6.52666
6.40879
6.2651
6.10259
5.92814
5.75333
5.58717
5.43878
5.31336
5.21539
5.14545
5.10446
5.09054
5.10417
5.14819
5.22634
5.33988
5.48946
5.67723
5.90674
6.17698
6.48651
6.82595
7.18615
7.53888
7.86703
8.14044
8.34759
8.4424
8.40529
8.20869
7.82457
7.21631
6.42037
5.47221
4.46166
3.4389
2.47922
1.59922
0.83902
0.185094
-0.342235
-0.769855
-1.08333
-1.31361
-1.44542
-1.50824
-1.47975
-1.38516
-1.19759
-0.939553
-0.609904
-0.236668
20.6725
20.6714
20.6687
20.6641
20.658
20.6508
20.6429
20.6344
20.6256
20.6164
20.6071
20.5976
20.5881
20.5786
20.5692
20.5598
20.5507
20.5416
20.5327
20.5239
20.5153
20.5067
20.4984
20.49
20.4819
20.4738
20.4659
20.458
20.4502
20.4424
20.4348
20.4271
20.4194
20.4116
20.4038
20.3957
20.3876
20.3791
20.3704
20.3612
20.3516
20.3414
20.3307
20.3191
20.3069
20.2936
20.2794
20.2639
20.2474
20.2293
20.2099
20.1888
20.1662
20.1416
20.1154
20.0871
20.0569
20.0245
19.9902
19.9537
19.9152
19.8744
19.8318
19.787
19.7404
19.6916
19.6411
19.5883
19.5335
19.4757
19.4146
19.3477
19.2727
19.1837
19.0724
18.9234
18.7136
18.41
17.9702
17.3611
16.5739
15.6779
14.6784
13.6319
12.5763
11.5443
10.5904
9.75647
9.05382
8.47538
8.00773
7.63618
7.34379
7.11494
6.93453
6.79192
6.67768
6.58661
6.51322
6.45531
6.40923
6.37421
6.34742
6.32883
6.31598
6.30928
6.30648
6.3083
6.31262
6.32038
6.32962
6.34144
6.35395
6.36842
6.38306
6.39934
6.41556
6.43328
6.4511
6.47037
6.4886
6.499
6.50255
6.50123
6.49443
6.48195
6.46471
6.44392
6.42135
6.3989
6.3789
6.36363
6.35551
6.35728
6.3707
6.39837
6.44094
6.49699
6.56328
6.63547
6.7076
6.77021
6.81528
6.83652
6.83004
6.79287
6.72485
6.62195
6.48473
6.31541
6.12247
5.91659
5.71517
5.53044
5.37024
5.23875
5.13814
5.0678
5.02918
5.01999
5.03501
5.07604
5.1465
5.25244
5.38969
5.56246
5.77315
6.02635
6.31809
6.64575
6.99632
7.34511
7.65945
7.89807
8.02194
7.99236
7.85894
7.62164
7.2153
6.57247
5.73305
4.74981
3.71964
2.69678
1.75039
0.896815
0.169881
-0.442639
-0.924819
-1.30174
-1.56316
-1.7401
-1.82496
-1.84757
-1.78932
-1.66078
-1.44088
-1.12493
-0.73724
-0.269117
20.7226
20.7211
20.7179
20.7131
20.7072
20.7004
20.6928
20.6843
20.6751
20.6656
20.6558
20.646
20.6361
20.6261
20.6162
20.6063
20.5967
20.5872
20.578
20.569
20.5603
20.5518
20.5436
20.5357
20.5281
20.5208
20.5138
20.507
20.5006
20.4944
20.4885
20.4827
20.4773
20.4719
20.4668
20.4617
20.4567
20.4517
20.4467
20.4414
20.4361
20.4303
20.4243
20.4177
20.4107
20.4028
20.3943
20.3847
20.3743
20.3625
20.3497
20.3353
20.3196
20.3022
20.2834
20.2626
20.2404
20.2163
20.1907
20.1634
20.1348
20.1049
20.0743
20.0429
20.0117
19.9808
19.9515
19.9242
19.9008
19.8823
19.8712
19.8695
19.8801
19.9045
19.9433
19.991
20.0234
19.9965
19.7486
19.1325
17.5307
15.4504
13.7302
12.457
11.3712
10.3914
9.55459
8.8703
8.32565
7.89317
7.55334
7.2841
7.07232
6.90227
6.76666
6.65567
6.56659
6.49335
6.43554
6.38879
6.35351
6.32614
6.30739
6.29419
6.28743
6.28446
6.28626
6.2905
6.29825
6.30745
6.31925
6.33182
6.34633
6.36112
6.37736
6.39358
6.41085
6.42806
6.44579
6.46354
6.47884
6.48506
6.48601
6.48361
6.47691
6.46499
6.44812
6.42726
6.40399
6.38068
6.35968
6.34389
6.33587
6.3385
6.35204
6.37749
6.41477
6.46356
6.52052
6.5833
6.64407
6.69477
6.72552
6.73221
6.71174
6.66815
6.60237
6.50897
6.38054
6.21753
6.02147
5.80661
5.59321
5.39909
5.22912
5.09297
4.99054
4.92483
4.89027
4.88116
4.88674
4.91214
4.96145
5.03982
5.13556
5.25585
5.39804
5.57005
5.76683
5.99435
6.24118
6.49366
6.72215
6.90516
6.99632
6.96035
6.82065
6.57584
6.16133
5.54368
4.75455
3.85554
2.9143
1.98807
1.12426
0.354679
-0.307153
-0.854024
-1.29049
-1.61725
-1.84234
-1.97381
-2.02424
-2.01824
-1.94538
-1.82362
-1.60833
-1.29917
-0.898017
-0.343514
20.7814
20.7777
20.7681
20.7544
20.7403
20.7271
20.7146
20.7021
20.6899
20.678
20.6668
20.6561
20.6459
20.6361
20.6269
20.618
20.6097
20.6016
20.5941
20.5869
20.5801
20.5737
20.5677
20.5621
20.557
20.5522
20.5479
20.544
20.5406
20.5374
20.5348
20.5325
20.5307
20.529
20.5279
20.5269
20.5263
20.5257
20.5255
20.5252
20.525
20.5246
20.5241
20.5232
20.5221
20.5203
20.5181
20.515
20.5111
20.5061
20.5002
20.493
20.4846
20.4748
20.4637
20.4512
20.4375
20.4224
20.4064
20.3894
20.3721
20.3543
20.337
20.3203
20.3054
20.2928
20.2839
20.2798
20.2827
20.2949
20.3208
20.3664
20.4424
20.5641
20.7539
21.0449
21.4711
22.1102
22.9117
24.1404
24.0265
19.7541
16.2745
13.9184
12.0406
10.6036
9.56106
8.80369
8.25212
7.84621
7.54109
7.30508
7.11702
6.96274
6.83361
6.72404
6.63096
6.55213
6.48638
6.43234
6.3892
6.35559
6.33073
6.31318
6.30223
6.29653
6.29559
6.29821
6.30416
6.31245
6.32305
6.33511
6.34878
6.36334
6.37905
6.39533
6.41249
6.4306
6.44811
6.47429
6.47993
6.48252
6.48254
6.47826
6.46912
6.45458
6.43537
6.41219
6.38707
6.36183
6.33899
6.32049
6.30862
6.30604
6.31394
6.3321
6.35957
6.39636
6.43997
6.48611
6.52933
6.56295
6.5814
6.57721
6.55281
6.50741
6.44502
6.35912
6.24712
6.09647
5.90652
5.68813
5.47263
5.27725
5.1129
4.98005
4.88026
4.80997
4.77266
4.76306
4.77083
4.78514
4.81494
4.86884
4.94123
5.02837
5.13706
5.25963
5.39873
5.54633
5.71088
5.86842
6.02414
6.14741
6.20785
6.16619
6.07476
5.89381
5.63438
5.17859
4.53288
3.70618
2.82035
1.90665
1.06986
0.30038
-0.337279
-0.889232
-1.31471
-1.66314
-1.89017
-2.04357
-2.07653
-2.04312
-1.92978
-1.78068
-1.59496
-1.32251
-0.867842
-0.307855
20.853
20.8621
20.8611
20.8501
20.8356
20.8203
20.8044
20.7879
20.7714
20.7552
20.7396
20.7245
20.71
20.6962
20.6833
20.6711
20.6599
20.6493
20.6395
20.6303
20.6219
20.6142
20.6072
20.6009
20.5955
20.5906
20.5867
20.5833
20.5808
20.5789
20.5778
20.5772
20.5775
20.5783
20.58
20.5821
20.5851
20.5884
20.5925
20.5969
20.6019
20.6072
20.6128
20.6185
20.6245
20.6303
20.6362
20.6416
20.6469
20.6515
20.6557
20.6589
20.6614
20.6626
20.663
20.662
20.66
20.6565
20.6521
20.6464
20.6401
20.633
20.6259
20.6188
20.6128
20.6081
20.6059
20.6067
20.6118
20.6211
20.6347
20.6515
20.6756
20.7207
20.8127
20.989
21.2867
21.7707
22.4441
23.4486
23.8688
20.9921
18.5432
16.6876
15.0206
13.5793
12.3716
11.3585
10.5117
9.80585
9.2178
8.72747
8.31811
7.97564
7.68871
7.44797
7.24604
7.07677
6.93533
6.81757
6.72018
6.64018
6.57522
6.52306
6.48196
6.45022
6.42653
6.40961
6.39849
6.39219
6.39003
6.39127
6.39542
6.40194
6.41049
6.42076
6.43238
6.44579
6.45831
6.4806
6.4802
6.48021
6.47917
6.47521
6.46746
6.45499
6.43811
6.41754
6.39512
6.37302
6.35342
6.33777
6.32695
6.32209
6.32391
6.33261
6.34806
6.37056
6.3984
6.4276
6.45335
6.47068
6.47745
6.47032
6.45055
6.41693
6.37775
6.32768
6.25729
6.13901
5.96502
5.74562
5.51642
5.29878
5.1133
4.965
4.85934
4.79402
4.7676
4.77116
4.79768
4.84608
4.91618
5.00651
5.11114
5.22758
5.3553
5.48966
5.62867
5.76615
5.89828
6.0103
6.1083
6.18158
6.21577
6.18605
6.11028
5.96726
5.77062
5.47189
5.04182
4.41802
3.63691
2.74892
1.84909
0.988129
0.233177
-0.410853
-0.926464
-1.33763
-1.63649
-1.83931
-1.93117
-1.92747
-1.84851
-1.75347
-1.63417
-1.43713
-1.01943
-0.380753
20.9179
20.8785
20.8394
20.8164
20.8019
20.7878
20.773
20.7591
20.7469
20.7359
20.7255
20.7154
20.7056
20.6963
20.6877
20.6796
20.6723
20.6655
20.6593
20.6537
20.6486
20.6442
20.6405
20.6376
20.6356
20.6343
20.6341
20.6346
20.6362
20.6387
20.6421
20.6466
20.652
20.6585
20.6661
20.6747
20.6843
20.6949
20.7065
20.7189
20.7322
20.7462
20.7607
20.7757
20.791
20.8063
20.8215
20.8363
20.8503
20.8635
20.8754
20.8858
20.8942
20.9006
20.9045
20.9058
20.9042
20.8999
20.8924
20.8824
20.8695
20.8546
20.8377
20.8198
20.8011
20.7829
20.7656
20.7508
20.7394
20.734
20.735
20.7321
20.7101
20.6667
20.6224
20.6178
20.6876
20.8587
21.1272
21.5971
21.8926
20.1074
18.4399