/*--------------------------------*- C++ -*----------------------------------*\
  =========                 |
  \\      /  F ield         | OpenFOAM: The Open Source CFD Toolbox
   \\    /   O peration     | Website:  https://openfoam.org
    \\  /    A nd           | Version:  10
     \\/     M anipulation  |
\*---------------------------------------------------------------------------*/
FoamFile
{
    format      ascii;
    class       volVectorField;
    location    "0.061";
    object      U;
}
// * * * * * * * * * * * * * * * * * * * * * * * * * * * * * * * * * * * * * //

dimensions      [0 1 -1 0 0 0 0];

internalField   nonuniform List<vector> 
4000
(
(5.00001 -7.32796e-05 0)
(5.00014 -0.00021976 0)
(5.00041 -0.000366527 0)
(5.00083 -0.000513565 0)
(5.00141 -0.000661131 0)
(5.00213 -0.000809066 0)
(5.003 -0.000957853 0)
(5.00402 -0.00110723 0)
(5.00518 -0.00125778 0)
(5.0065 -0.00140914 0)
(5.00798 -0.00156208 0)
(5.0096 -0.00171614 0)
(5.01138 -0.00187227 0)
(5.01332 -0.00202994 0)
(5.01541 -0.00219029 0)
(5.01767 -0.0023527 0)
(5.02009 -0.00251849 0)
(5.02267 -0.00268694 0)
(5.02543 -0.00285958 0)
(5.02836 -0.00303558 0)
(5.03146 -0.00321664 0)
(5.03475 -0.00340184 0)
(5.03823 -0.00359305 0)
(5.0419 -0.00378925 0)
(5.04577 -0.00399248 0)
(5.04985 -0.0042016 0)
(5.05413 -0.00441884 0)
(5.05864 -0.00464294 0)
(5.06337 -0.00487632 0)
(5.06834 -0.00511759 0)
(5.07356 -0.00536934 0)
(5.07903 -0.00563008 0)
(5.08477 -0.00590256 0)
(5.09078 -0.00618517 0)
(5.09708 -0.00648083 0)
(5.10368 -0.00678781 0)
(5.11059 -0.00710919 0)
(5.11784 -0.00744311 0)
(5.12542 -0.00779279 0)
(5.13335 -0.00815627 0)
(5.14166 -0.00853689 0)
(5.15035 -0.00893257 0)
(5.15945 -0.00934678 0)
(5.16897 -0.0097773 0)
(5.17893 -0.0102277 0)
(5.18935 -0.0106956 0)
(5.20024 -0.0111848 0)
(5.21163 -0.0116926 0)
(5.22354 -0.0122228 0)
(5.23599 -0.0127728 0)
(5.249 -0.0133462 0)
(5.26259 -0.0139401 0)
(5.27679 -0.0145584 0)
(5.29162 -0.0151978 0)
(5.30709 -0.015862 0)
(5.32324 -0.0165474 0)
(5.34009 -0.0172576 0)
(5.35766 -0.0179886 0)
(5.37597 -0.0187439 0)
(5.39505 -0.0195188 0)
(5.41491 -0.0203163 0)
(5.43558 -0.0211314 0)
(5.45707 -0.0219665 0)
(5.47941 -0.0228158 0)
(5.50261 -0.0236811 0)
(5.52669 -0.0245556 0)
(5.55164 -0.0254405 0)
(5.57748 -0.026328 0)
(5.60422 -0.0272185 0)
(5.63185 -0.028103 0)
(5.66037 -0.0289812 0)
(5.68976 -0.0298429 0)
(5.72002 -0.0306869 0)
(5.75111 -0.0315024 0)
(5.78301 -0.0322875 0)
(5.81568 -0.0330307 0)
(5.84908 -0.0337299 0)
(5.88316 -0.0343733 0)
(5.91786 -0.0349594 0)
(5.95312 -0.0354765 0)
(5.98887 -0.035924 0)
(6.02504 -0.0362913 0)
(6.06154 -0.0365792 0)
(6.09829 -0.0367787 0)
(6.1352 -0.0368926 0)
(6.17218 -0.0369138 0)
(6.20913 -0.0368474 0)
(6.24598 -0.0366884 0)
(6.28262 -0.0364442 0)
(6.31897 -0.0361119 0)
(6.35494 -0.0357009 0)
(6.39046 -0.03521 0)
(6.42545 -0.0346502 0)
(6.45983 -0.0340215 0)
(6.49356 -0.0333362 0)
(6.52656 -0.0325948 0)
(6.55879 -0.0318102 0)
(6.59021 -0.0309829 0)
(6.62077 -0.0301261 0)
(6.65045 -0.0292398 0)
(6.67923 -0.0283368 0)
(6.70709 -0.0274165 0)
(6.73402 -0.0264909 0)
(6.76001 -0.0255588 0)
(6.78506 -0.0246314 0)
(6.80918 -0.0237063 0)
(6.83237 -0.0227943 0)
(6.85465 -0.0218919 0)
(6.87604 -0.0210094 0)
(6.89654 -0.0201424 0)
(6.9162 -0.0193007 0)
(6.93502 -0.0184789 0)
(6.95303 -0.0176867 0)
(6.97027 -0.0169178 0)
(6.98675 -0.0161815 0)
(7.00252 -0.0154708 0)
(7.0176 -0.0147947 0)
(7.03201 -0.0141454 0)
(7.0458 -0.0135319 0)
(7.05899 -0.0129456 0)
(7.07161 -0.0123952 0)
(7.08369 -0.0118715 0)
(7.09527 -0.0113835 0)
(7.10637 -0.0109209 0)
(7.11702 -0.0104934 0)
(7.12725 -0.0100897 0)
(7.13709 -0.00972014 0)
(7.14656 -0.00937274 0)
(7.1557 -0.00905836 0)
(7.16454 -0.00876445 0)
(7.17308 -0.00850257 0)
(7.18138 -0.0082594 0)
(7.18943 -0.0080473 0)
(7.19729 -0.00785207 0)
(7.20496 -0.00768683 0)
(7.21248 -0.00753637 0)
(7.21985 -0.00741448 0)
(7.22712 -0.00730482 0)
(7.23429 -0.00722178 0)
(7.24138 -0.00714781 0)
(7.24842 -0.0070979 0)
(7.25541 -0.0070533 0)
(7.26238 -0.00702974 0)
(7.26933 -0.00700734 0)
(7.27627 -0.00700287 0)
(7.28321 -0.00699553 0)
(7.29016 -0.00700359 0)
(7.29713 -0.00700551 0)
(7.3041 -0.00702171 0)
(7.3111 -0.00702997 0)
(7.31811 -0.00705361 0)
(7.32515 -0.00706963 0)
(7.33221 -0.00710498 0)
(7.33932 -0.0071355 0)
(7.34645 -0.00719243 0)
(7.35366 -0.00724979 0)
(7.36092 -0.0073436 0)
(7.36829 -0.00744506 0)
(7.37576 -0.00759534 0)
(7.38339 -0.00776161 0)
(7.39119 -0.0079902 0)
(7.39924 -0.00824297 0)
(7.40754 -0.0085712 0)
(7.4162 -0.00893013 0)
(7.42521 -0.00937539 0)
(7.43469 -0.00985449 0)
(7.44466 -0.0104265 0)
(7.45522 -0.0110304 0)
(7.4664 -0.0117273 0)
(7.47828 -0.0124479 0)
(7.4909 -0.0132535 0)
(7.50432 -0.014067 0)
(7.51858 -0.0149488 0)
(7.5337 -0.0158154 0)
(7.54971 -0.0167249 0)
(7.5666 -0.0175903 0)
(7.58437 -0.0184664 0)
(7.60296 -0.0192666 0)
(7.62237 -0.0200419 0)
(7.64249 -0.0207103 0)
(7.66328 -0.0213194 0)
(7.68459 -0.0217962 0)
(7.70639 -0.0221851 0)
(7.72848 -0.0224261 0)
(7.75082 -0.0225606 0)
(7.77319 -0.0225437 0)
(7.79556 -0.0224139 0)
(7.8177 -0.0221422 0)
(7.83959 -0.021763 0)
(7.86103 -0.0212624 0)
(7.882 -0.0206697 0)
(7.90232 -0.0199836 0)
(7.92199 -0.019228 0)
(7.94087 -0.0184116 0)
(7.95893 -0.0175501 0)
(7.9762 -0.0166573 0)
(7.99233 -0.0157561 0)
(8.00819 -0.0148038 0)
(8.02132 -0.0140486 0)
(8.04135 -0.0125605 0)
(5.00001 -0.000220046 0)
(5.00014 -0.000660022 0)
(5.00041 -0.00110065 0)
(5.00083 -0.0015421 0)
(5.00141 -0.00198478 0)
(5.00213 -0.00242872 0)
(5.00299 -0.00287474 0)
(5.00401 -0.0033227 0)
(5.00517 -0.00377363 0)
(5.00649 -0.0042273 0)
(5.00796 -0.00468505 0)
(5.00958 -0.00514664 0)
(5.01135 -0.00561373 0)
(5.01328 -0.00608607 0)
(5.01536 -0.00656561 0)
(5.01761 -0.00705207 0)
(5.02002 -0.00754773 0)
(5.02259 -0.00805227 0)
(5.02533 -0.00856827 0)
(5.02824 -0.00909534 0)
(5.03133 -0.00963639 0)
(5.0346 -0.0101909 0)
(5.03806 -0.0107622 0)
(5.04171 -0.0113496 0)
(5.04555 -0.0119567 0)
(5.0496 -0.0125828 0)
(5.05386 -0.0132317 0)
(5.05834 -0.0139026 0)
(5.06304 -0.0145997 0)
(5.06797 -0.0153222 0)
(5.07315 -0.0160743 0)
(5.07858 -0.0168552 0)
(5.08427 -0.0176694 0)
(5.09024 -0.0185159 0)
(5.0965 -0.0193995 0)
(5.10305 -0.0203192 0)
(5.10991 -0.0212799 0)
(5.1171 -0.0222804 0)
(5.12462 -0.023326 0)
(5.1325 -0.0244152 0)
(5.14074 -0.0255536 0)
(5.14937 -0.0267394 0)
(5.1584 -0.0279785 0)
(5.16785 -0.0292689 0)
(5.17774 -0.0306166 0)
(5.18808 -0.0320194 0)
(5.1989 -0.0334832 0)
(5.21021 -0.0350058 0)
(5.22204 -0.036593 0)
(5.2344 -0.0382422 0)
(5.24733 -0.0399592 0)
(5.26083 -0.0417409 0)
(5.27494 -0.0435928 0)
(5.28968 -0.0455114 0)
(5.30507 -0.0475017 0)
(5.32113 -0.0495593 0)
(5.33789 -0.0516889 0)
(5.35537 -0.0538848 0)
(5.3736 -0.0561509 0)
(5.39259 -0.0584802 0)
(5.41238 -0.0608752 0)
(5.43298 -0.0633275 0)
(5.45441 -0.0658378 0)
(5.47669 -0.0683954 0)
(5.49985 -0.0709994 0)
(5.52388 -0.0736363 0)
(5.54882 -0.0763028 0)
(5.57466 -0.0789826 0)
(5.6014 -0.0816696 0)
(5.62906 -0.0843444 0)
(5.65763 -0.086998 0)
(5.6871 -0.0896079 0)
(5.71745 -0.0921625 0)
(5.74866 -0.0946367 0)
(5.78071 -0.0970165 0)
(5.81356 -0.0992751 0)
(5.84716 -0.101398 0)
(5.88148 -0.103356 0)
(5.91644 -0.105137 0)
(5.95198 -0.106714 0)
(5.98804 -0.108075 0)
(6.02453 -0.109197 0)
(6.06137 -0.110073 0)
(6.09847 -0.110684 0)
(6.13574 -0.11103 0)
(6.17309 -0.111099 0)
(6.21041 -0.110895 0)
(6.24762 -0.110415 0)
(6.28461 -0.109671 0)
(6.3213 -0.108664 0)
(6.35759 -0.107413 0)
(6.39341 -0.105924 0)
(6.42868 -0.104221 0)
(6.46332 -0.102315 0)
(6.49728 -0.100231 0)
(6.53048 -0.0979831 0)
(6.56289 -0.0955987 0)
(6.59445 -0.093091 0)
(6.62514 -0.0904885 0)
(6.65492 -0.0878034 0)
(6.68377 -0.085063 0)
(6.71168 -0.0822777 0)
(6.73863 -0.0794729 0)
(6.76463 -0.0766564 0)
(6.78967 -0.0738513 0)
(6.81376 -0.0710624 0)
(6.83691 -0.0683104 0)
(6.85914 -0.0655972 0)
(6.88045 -0.0629409 0)
(6.90088 -0.0603407 0)
(6.92044 -0.0578129 0)
(6.93917 -0.055354 0)
(6.95708 -0.0529786 0)
(6.9742 -0.0506811 0)
(6.99058 -0.0484746 0)
(7.00622 -0.0463517 0)
(7.02118 -0.0443244 0)
(7.03547 -0.0423835 0)
(7.04913 -0.0405405 0)
(7.0622 -0.0387843 0)
(7.07469 -0.0371263 0)
(7.08666 -0.035554 0)
(7.09811 -0.0340785 0)
(7.10909 -0.0326863 0)
(7.11962 -0.0313888 0)
(7.12974 -0.0301715 0)
(7.13946 -0.0290463 0)
(7.14883 -0.0279977 0)
(7.15786 -0.0270386 0)
(7.16659 -0.0261527 0)
(7.17503 -0.0253536 0)
(7.18323 -0.0246241 0)
(7.19119 -0.0239785 0)
(7.19895 -0.0233985 0)
(7.20653 -0.0228991 0)
(7.21396 -0.0224602 0)
(7.22126 -0.0220971 0)
(7.22844 -0.0217878 0)
(7.23554 -0.0215477 0)
(7.24257 -0.0213523 0)
(7.24955 -0.0212174 0)
(7.2565 -0.0211159 0)
(7.26342 -0.0210641 0)
(7.27034 -0.0210329 0)
(7.27725 -0.0210399 0)
(7.28418 -0.0210547 0)
(7.29112 -0.0210976 0)
(7.29808 -0.0211376 0)
(7.30505 -0.0211995 0)
(7.31204 -0.0212527 0)
(7.31905 -0.0213281 0)
(7.32609 -0.0213961 0)
(7.33313 -0.0214951 0)
(7.34021 -0.0215967 0)
(7.34731 -0.0217477 0)
(7.35445 -0.0219202 0)
(7.36164 -0.0221693 0)
(7.36891 -0.0224665 0)
(7.37626 -0.0228749 0)
(7.38375 -0.0233629 0)
(7.39139 -0.0240001 0)
(7.39925 -0.0247495 0)
(7.40735 -0.0256853 0)
(7.41578 -0.0267619 0)
(7.42456 -0.0280552 0)
(7.4338 -0.0295084 0)
(7.44353 -0.0311958 0)
(7.45385 -0.0330461 0)
(7.46481 -0.0351291 0)
(7.47649 -0.0373569 0)
(7.48894 -0.0397912 0)
(7.50224 -0.0423274 0)
(7.51642 -0.0450168 0)
(7.53152 -0.0477394 0)
(7.54758 -0.0505358 0)
(7.56459 -0.0532746 0)
(7.58256 -0.0559877 0)
(7.60143 -0.0585392 0)
(7.6212 -0.060956 0)
(7.64175 -0.0631071 0)
(7.66304 -0.0650198 0)
(7.68493 -0.0665779 0)
(7.70735 -0.0678148 0)
(7.73011 -0.0686377 0)
(7.75314 -0.0690896 0)
(7.77623 -0.069107 0)
(7.79932 -0.0687436 0)
(7.82219 -0.0679657 0)
(7.84479 -0.0668356 0)
(7.86692 -0.0653466 0)
(7.88853 -0.0635653 0)
(7.90948 -0.0615061 0)
(7.92972 -0.0592352 0)
(7.94915 -0.0567811 0)
(7.96772 -0.0542015 0)
(7.98546 -0.0515279 0)
(8.00205 -0.0488381 0)
(8.01833 -0.0460212 0)
(8.03173 -0.0437359 0)
(8.05239 -0.0393816 0)
(5.00001 -0.000366671 0)
(5.00014 -0.0010997 0)
(5.0004 -0.00183359 0)
(5.00083 -0.00256871 0)
(5.0014 -0.00330536 0)
(5.00211 -0.0040441 0)
(5.00297 -0.00478561 0)
(5.00398 -0.00553043 0)
(5.00514 -0.00627936 0)
(5.00645 -0.00703313 0)
(5.00791 -0.0077928 0)
(5.00951 -0.0085593 0)
(5.01127 -0.00933394 0)
(5.01319 -0.0101179 0)
(5.01525 -0.0109127 0)
(5.01748 -0.0117197 0)
(5.01986 -0.0125408 0)
(5.02241 -0.0133775 0)
(5.02512 -0.0142318 0)
(5.028 -0.0151056 0)
(5.03106 -0.0160011 0)
(5.03429 -0.0169202 0)
(5.0377 -0.0178655 0)
(5.0413 -0.0188389 0)
(5.0451 -0.0198433 0)
(5.04909 -0.0208808 0)
(5.05329 -0.0219543 0)
(5.0577 -0.0230662 0)
(5.06234 -0.0242197 0)
(5.0672 -0.0254171 0)
(5.0723 -0.0266618 0)
(5.07765 -0.0279563 0)
(5.08326 -0.0293041 0)
(5.08914 -0.0307079 0)
(5.0953 -0.0321711 0)
(5.10175 -0.0336967 0)
(5.1085 -0.0352883 0)
(5.11558 -0.0369486 0)
(5.12298 -0.0386815 0)
(5.13074 -0.0404899 0)
(5.13886 -0.0423775 0)
(5.14735 -0.0443472 0)
(5.15625 -0.0464028 0)
(5.16556 -0.0485473 0)
(5.17529 -0.0507844 0)
(5.18548 -0.0531167 0)
(5.19614 -0.0555482 0)
(5.20729 -0.0580811 0)
(5.21896 -0.0607192 0)
(5.23115 -0.0634645 0)
(5.2439 -0.0663204 0)
(5.25723 -0.0692883 0)
(5.27116 -0.0723712 0)
(5.28571 -0.0755698 0)
(5.30092 -0.0788861 0)
(5.3168 -0.08232 0)
(5.33338 -0.0858723 0)
(5.35068 -0.0895413 0)
(5.36873 -0.0933263 0)
(5.38756 -0.0972237 0)
(5.40718 -0.10123 0)
(5.42763 -0.10534 0)
(5.44892 -0.109548 0)
(5.47109 -0.113843 0)
(5.49414 -0.118216 0)
(5.51809 -0.122655 0)
(5.54297 -0.127145 0)
(5.56879 -0.131667 0)
(5.59554 -0.136203 0)
(5.62325 -0.14073 0)
(5.65191 -0.145223 0)
(5.68151 -0.149654 0)
(5.71205 -0.153992 0)
(5.7435 -0.158205 0)
(5.77584 -0.16226 0)
(5.80904 -0.166118 0)
(5.84305 -0.169744 0)
(5.87783 -0.1731 0)
(5.91331 -0.176151 0)
(5.94942 -0.178859 0)
(5.9861 -0.181195 0)
(6.02325 -0.183126 0)
(6.06078 -0.18463 0)
(6.09861 -0.185685 0)
(6.13661 -0.186278 0)
(6.1747 -0.186399 0)
(6.21277 -0.186047 0)
(6.25071 -0.185224 0)
(6.28842 -0.183944 0)
(6.32579 -0.182218 0)
(6.36274 -0.180071 0)
(6.39918 -0.177524 0)
(6.43501 -0.174609 0)
(6.47017 -0.171355 0)
(6.50459 -0.167796 0)
(6.5382 -0.163967 0)
(6.57096 -0.159903 0)
(6.60282 -0.155639 0)
(6.63376 -0.151212 0)
(6.66373 -0.146653 0)
(6.69272 -0.141999 0)
(6.72071 -0.137278 0)
(6.74771 -0.132521 0)
(6.77371 -0.127756 0)
(6.79872 -0.123009 0)
(6.82274 -0.118301 0)
(6.84579 -0.113655 0)
(6.86789 -0.109087 0)
(6.88905 -0.104615 0)
(6.90931 -0.100251 0)
(6.92869 -0.0960092 0)
(6.94721 -0.0918962 0)
(6.96491 -0.0879219 0)
(6.98182 -0.0840905 0)
(6.99796 -0.0804084 0)
(7.01338 -0.076877 0)
(7.02809 -0.0735002 0)
(7.04215 -0.0702771 0)
(7.05557 -0.0672098 0)
(7.06839 -0.0642959 0)
(7.08065 -0.0615364 0)
(7.09238 -0.0589273 0)
(7.1036 -0.0564692 0)
(7.11434 -0.0541576 0)
(7.12465 -0.0519925 0)
(7.13454 -0.0499691 0)
(7.14404 -0.0480877 0)
(7.15319 -0.0463434 0)
(7.16201 -0.0447367 0)
(7.17052 -0.0432628 0)
(7.17876 -0.0419221 0)
(7.18675 -0.0407101 0)
(7.19451 -0.0396269 0)
(7.20208 -0.0386674 0)
(7.20947 -0.037831 0)
(7.21672 -0.0371117 0)
(7.22384 -0.0365074 0)
(7.23086 -0.0360102 0)
(7.23781 -0.0356164 0)
(7.2447 -0.0353156 0)
(7.25155 -0.0351021 0)
(7.25839 -0.0349629 0)
(7.26522 -0.0348912 0)
(7.27206 -0.0348718 0)
(7.27891 -0.034898 0)
(7.2858 -0.0349536 0)
(7.29271 -0.0350345 0)
(7.29964 -0.0351254 0)
(7.3066 -0.0352274 0)
(7.31359 -0.0353283 0)
(7.32058 -0.0354368 0)
(7.32759 -0.0355463 0)
(7.3346 -0.0356744 0)
(7.34162 -0.0358217 0)
(7.34863 -0.0360152 0)
(7.35565 -0.0362629 0)
(7.36268 -0.0366006 0)
(7.36974 -0.0370429 0)
(7.37685 -0.0376313 0)
(7.38404 -0.0383855 0)
(7.39133 -0.0393491 0)
(7.3988 -0.040544 0)
(7.40646 -0.0420108 0)
(7.41442 -0.0437696 0)
(7.42269 -0.0458524 0)
(7.4314 -0.048273 0)
(7.4406 -0.0510483 0)
(7.45038 -0.0541805 0)
(7.46083 -0.0576655 0)
(7.47203 -0.0614883 0)
(7.48406 -0.0656197 0)
(7.49701 -0.0700228 0)
(7.51094 -0.0746419 0)
(7.52589 -0.0794167 0)
(7.54192 -0.0842674 0)
(7.55903 -0.0891126 0)
(7.57724 -0.0938562 0)
(7.5965 -0.0984032 0)
(7.61679 -0.102654 0)
(7.638 -0.106511 0)
(7.66008 -0.109888 0)
(7.68286 -0.112699 0)
(7.70625 -0.114886 0)
(7.73004 -0.116388 0)
(7.75414 -0.117185 0)
(7.7783 -0.117251 0)
(7.80243 -0.116606 0)
(7.82629 -0.115258 0)
(7.84981 -0.113265 0)
(7.87278 -0.110663 0)
(7.89512 -0.107537 0)
(7.91668 -0.103944 0)
(7.93742 -0.0999822 0)
(7.95723 -0.0957166 0)
(7.97605 -0.0912493 0)
(7.99392 -0.086634 0)
(8.01056 -0.0820082 0)
(8.02675 -0.0772082 0)
(8.04012 -0.0732691 0)
(8.06044 -0.065962 0)
(5.00001 -0.000512455 0)
(5.00014 -0.00153651 0)
(5.0004 -0.00256173 0)
(5.00082 -0.00358842 0)
(5.00139 -0.00461684 0)
(5.0021 -0.0056478 0)
(5.00295 -0.00668211 0)
(5.00395 -0.00772056 0)
(5.0051 -0.00876416 0)
(5.0064 -0.00981406 0)
(5.00784 -0.0108716 0)
(5.00943 -0.0119382 0)
(5.01117 -0.0130155 0)
(5.01306 -0.0141053 0)
(5.0151 -0.0152097 0)
(5.0173 -0.0163307 0)
(5.01965 -0.0174706 0)
(5.02215 -0.0186319 0)
(5.02482 -0.0198172 0)
(5.02766 -0.0210293 0)
(5.03066 -0.0222711 0)
(5.03383 -0.0235455 0)
(5.03718 -0.0248559 0)
(5.04071 -0.0262054 0)
(5.04443 -0.0275976 0)
(5.04835 -0.0290359 0)
(5.05246 -0.030524 0)
(5.05678 -0.0320657 0)
(5.06131 -0.0336649 0)
(5.06607 -0.0353255 0)
(5.07105 -0.0370516 0)
(5.07628 -0.0388474 0)
(5.08176 -0.0407171 0)
(5.0875 -0.042665 0)
(5.09352 -0.0446956 0)
(5.09981 -0.0468133 0)
(5.10641 -0.0490227 0)
(5.11332 -0.0513284 0)
(5.12055 -0.0537352 0)
(5.12812 -0.0562475 0)
(5.13605 -0.0588703 0)
(5.14435 -0.0616083 0)
(5.15304 -0.0644664 0)
(5.16213 -0.0674491 0)
(5.17164 -0.0705614 0)
(5.1816 -0.0738079 0)
(5.19203 -0.0771932 0)
(5.20293 -0.0807219 0)
(5.21434 -0.0843983 0)
(5.22628 -0.0882266 0)
(5.23876 -0.0922108 0)
(5.25182 -0.0963544 0)
(5.26548 -0.100661 0)
(5.27976 -0.105133 0)
(5.29468 -0.109772 0)
(5.31028 -0.114581 0)
(5.32658 -0.119559 0)
(5.34361 -0.124707 0)
(5.36139 -0.130023 0)
(5.37995 -0.135503 0)
(5.39932 -0.141144 0)
(5.41953 -0.146939 0)
(5.4406 -0.15288 0)
(5.46257 -0.158955 0)
(5.48545 -0.165151 0)
(5.50927 -0.171451 0)
(5.53405 -0.177836 0)
(5.5598 -0.184281 0)
(5.58656 -0.190759 0)
(5.61432 -0.197239 0)
(5.6431 -0.203685 0)
(5.67289 -0.210057 0)
(5.70369 -0.216312 0)
(5.73549 -0.222401 0)
(5.76826 -0.228274 0)
(5.80199 -0.233877 0)
(5.83661 -0.239154 0)
(5.8721 -0.24405 0)
(5.90837 -0.248508 0)
(5.94536 -0.252476 0)
(5.98299 -0.255901 0)
(6.02117 -0.25874 0)
(6.05978 -0.260953 0)
(6.09873 -0.262507 0)
(6.13789 -0.263382 0)
(6.17714 -0.263564 0)
(6.21637 -0.263049 0)
(6.25545 -0.261843 0)
(6.29427 -0.259964 0)
(6.33271 -0.257436 0)
(6.37067 -0.254291 0)
(6.40804 -0.250569 0)
(6.44474 -0.246315 0)
(6.48069 -0.241577 0)
(6.51581 -0.236406 0)
(6.55004 -0.230855 0)
(6.58333 -0.224977 0)
(6.61564 -0.218824 0)
(6.64694 -0.212448 0)
(6.67719 -0.205897 0)
(6.70638 -0.199219 0)
(6.73451 -0.192459 0)
(6.76156 -0.185657 0)
(6.78756 -0.178852 0)
(6.8125 -0.17208 0)
(6.8364 -0.165373 0)
(6.85928 -0.15876 0)
(6.88117 -0.152267 0)
(6.90209 -0.145916 0)
(6.92207 -0.139727 0)
(6.94115 -0.133716 0)
(6.95935 -0.127897 0)
(6.9767 -0.122282 0)
(6.99326 -0.116877 0)
(7.00904 -0.111691 0)
(7.02409 -0.106725 0)
(7.03844 -0.101984 0)
(7.05212 -0.0974668 0)
(7.06518 -0.0931739 0)
(7.07764 -0.0891026 0)
(7.08953 -0.0852513 0)
(7.1009 -0.0816158 0)
(7.11177 -0.0781935 0)
(7.12217 -0.0749793 0)
(7.13214 -0.0719704 0)
(7.14169 -0.0691617 0)
(7.15087 -0.0665505 0)
(7.1597 -0.0641323 0)
(7.1682 -0.061905 0)
(7.1764 -0.0598649 0)
(7.18433 -0.0580104 0)
(7.19202 -0.0563384 0)
(7.19948 -0.054847 0)
(7.20676 -0.053533 0)
(7.21387 -0.0523932 0)
(7.22084 -0.0514232 0)
(7.2277 -0.0506172 0)
(7.23447 -0.0499681 0)
(7.24118 -0.0494666 0)
(7.24786 -0.0491015 0)
(7.25452 -0.0488599 0)
(7.26119 -0.0487262 0)
(7.26789 -0.0486846 0)
(7.27461 -0.0487158 0)
(7.28139 -0.0488035 0)
(7.28821 -0.0489265 0)
(7.29508 -0.0490719 0)
(7.30201 -0.0492197 0)
(7.30896 -0.0493646 0)
(7.31595 -0.0494919 0)
(7.32294 -0.0496077 0)
(7.32994 -0.0497061 0)
(7.33692 -0.0498074 0)
(7.34387 -0.0499172 0)
(7.35077 -0.0500703 0)
(7.35763 -0.0502847 0)
(7.36444 -0.050608 0)
(7.37121 -0.0510699 0)
(7.37795 -0.0517264 0)
(7.3847 -0.0526168 0)
(7.39146 -0.0537996 0)
(7.39833 -0.05532 0)
(7.40531 -0.0572315 0)
(7.41252 -0.05958 0)
(7.41999 -0.0624052 0)
(7.42786 -0.0657474 0)
(7.43618 -0.0696225 0)
(7.44509 -0.0740566 0)
(7.45468 -0.0790325 0)
(7.46509 -0.0845527 0)
(7.4764 -0.0905593 0)
(7.48873 -0.0970221 0)
(7.50218 -0.10384 0)
(7.51683 -0.110944 0)
(7.53276 -0.118193 0)
(7.54998 -0.125482 0)
(7.56854 -0.132642 0)
(7.58838 -0.13954 0)
(7.60951 -0.146 0)
(7.63177 -0.151884 0)
(7.65512 -0.157034 0)
(7.67934 -0.161329 0)
(7.70432 -0.164658 0)
(7.7298 -0.166941 0)
(7.75563 -0.168134 0)
(7.78153 -0.168207 0)
(7.80736 -0.167188 0)
(7.83284 -0.165101 0)
(7.85786 -0.162035 0)
(7.88216 -0.158056 0)
(7.90566 -0.153299 0)
(7.92819 -0.147857 0)
(7.94969 -0.141889 0)
(7.97005 -0.135493 0)
(7.98923 -0.128836 0)
(8.00726 -0.121997 0)
(8.0239 -0.115186 0)
(8.0399 -0.108176 0)
(8.05313 -0.102445 0)
(8.07273 -0.091945 0)
(5.00001 -0.000657206 0)
(5.00014 -0.00197025 0)
(5.0004 -0.00328469 0)
(5.00081 -0.00460065 0)
(5.00138 -0.0059183 0)
(5.00208 -0.00723854 0)
(5.00293 -0.0085623 0)
(5.00392 -0.00989053 0)
(5.00506 -0.0112245 0)
(5.00634 -0.0125655 0)
(5.00776 -0.0139153 0)
(5.00933 -0.0152757 0)
(5.01105 -0.0166488 0)
(5.01291 -0.0180369 0)
(5.01491 -0.0194426 0)
(5.01707 -0.0208685 0)
(5.01938 -0.0223177 0)
(5.02184 -0.0237933 0)
(5.02445 -0.0252988 0)
(5.02722 -0.0268376 0)
(5.03015 -0.0284135 0)
(5.03325 -0.0300305 0)
(5.03652 -0.0316928 0)
(5.03996 -0.0334046 0)
(5.04358 -0.0351704 0)
(5.04738 -0.0369948 0)
(5.05138 -0.0388826 0)
(5.05557 -0.0408387 0)
(5.05997 -0.0428682 0)
(5.06459 -0.0449763 0)
(5.06942 -0.0471682 0)
(5.07449 -0.0494493 0)
(5.0798 -0.0518252 0)
(5.08536 -0.0543015 0)
(5.09118 -0.0568839 0)
(5.09728 -0.0595782 0)
(5.10367 -0.0623903 0)
(5.11035 -0.0653262 0)
(5.11735 -0.0683918 0)
(5.12468 -0.0715933 0)
(5.13236 -0.0749369 0)
(5.14039 -0.0784286 0)
(5.1488 -0.0820747 0)
(5.15761 -0.0858815 0)
(5.16683 -0.0898551 0)
(5.17648 -0.0940019 0)
(5.18659 -0.0983278 0)
(5.19716 -0.102839 0)
(5.20823 -0.107541 0)
(5.21982 -0.112441 0)
(5.23195 -0.117543 0)
(5.24465 -0.122852 0)
(5.25793 -0.128374 0)
(5.27183 -0.134113 0)
(5.28638 -0.140072 0)
(5.30159 -0.146254 0)
(5.3175 -0.152662 0)
(5.33414 -0.159296 0)
(5.35155 -0.166155 0)
(5.36974 -0.173238 0)
(5.38875 -0.180539 0)
(5.40861 -0.188054 0)
(5.42936 -0.195772 0)
(5.45103 -0.203682 0)
(5.47365 -0.211767 0)
(5.49725 -0.220009 0)
(5.52186 -0.228383 0)
(5.5475 -0.23686 0)
(5.57421 -0.245405 0)
(5.60201 -0.253979 0)
(5.6309 -0.262535 0)
(5.66091 -0.271021 0)
(5.69204 -0.279379 0)
(5.72428 -0.287543 0)
(5.75762 -0.295444 0)
(5.79203 -0.303007 0)
(5.82748 -0.310154 0)
(5.86392 -0.316803 0)
(5.90129 -0.322876 0)
(5.93949 -0.328293 0)
(5.97845 -0.332982 0)
(6.01806 -0.336874 0)
(6.05819 -0.339913 0)
(6.09871 -0.342053 0)
(6.1395 -0.343261 0)
(6.18039 -0.343517 0)
(6.22126 -0.342818 0)
(6.26196 -0.341174 0)
(6.30234 -0.338608 0)
(6.34227 -0.335157 0)
(6.38163 -0.330869 0)
(6.42031 -0.3258 0)
(6.4582 -0.320015 0)
(6.49522 -0.313585 0)
(6.53129 -0.306583 0)
(6.56634 -0.299085 0)
(6.60033 -0.291167 0)
(6.63321 -0.282904 0)
(6.66496 -0.274366 0)
(6.69555 -0.265623 0)
(6.72499 -0.256738 0)
(6.75325 -0.24777 0)
(6.78036 -0.238774 0)
(6.80632 -0.229799 0)
(6.83115 -0.22089 0)
(6.85488 -0.212088 0)
(6.87752 -0.203427 0)
(6.89911 -0.194939 0)
(6.91969 -0.186652 0)
(6.93929 -0.178589 0)
(6.95795 -0.17077 0)
(6.9757 -0.163211 0)
(6.99259 -0.155926 0)
(7.00866 -0.148925 0)
(7.02394 -0.142214 0)
(7.03849 -0.135799 0)
(7.05233 -0.129681 0)
(7.0655 -0.12386 0)
(7.07805 -0.118336 0)
(7.09001 -0.113103 0)
(7.10142 -0.108159 0)
(7.1123 -0.103496 0)
(7.1227 -0.0991103 0)
(7.13264 -0.094994 0)
(7.14215 -0.0911421 0)
(7.15126 -0.0875471 0)
(7.16 -0.0842049 0)
(7.1684 -0.0811089 0)
(7.17647 -0.0782565 0)
(7.18426 -0.0756432 0)
(7.19178 -0.0732675 0)
(7.19906 -0.071127 0)
(7.20612 -0.0692208 0)
(7.213 -0.0675476 0)
(7.21972 -0.0661053 0)
(7.22631 -0.0648917 0)
(7.2328 -0.0639009 0)
(7.23923 -0.063127 0)
(7.24563 -0.0625582 0)
(7.25201 -0.0621817 0)
(7.25841 -0.0619786 0)
(7.26486 -0.0619276 0)
(7.27138 -0.0620035 0)
(7.27797 -0.0621773 0)
(7.28466 -0.0624207 0)
(7.29144 -0.0627005 0)
(7.29831 -0.0629917 0)
(7.30526 -0.0632618 0)
(7.31227 -0.0634966 0)
(7.31932 -0.0636715 0)
(7.32639 -0.0637893 0)
(7.33344 -0.0638395 0)
(7.34043 -0.063847 0)
(7.34735 -0.0638191 0)
(7.35416 -0.0638038 0)
(7.36086 -0.0638274 0)
(7.3674 -0.0639581 0)
(7.37381 -0.0642402 0)
(7.38007 -0.0647556 0)
(7.38622 -0.0655634 0)
(7.39227 -0.0667507 0)
(7.39829 -0.0683869 0)
(7.40432 -0.0705537 0)
(7.41046 -0.0733241 0)
(7.41677 -0.0767626 0)
(7.42341 -0.0809363 0)
(7.43044 -0.0858783 0)
(7.43805 -0.0916381 0)
(7.44635 -0.0982022 0)
(7.45552 -0.105587 0)
(7.46569 -0.11372 0)
(7.47704 -0.122569 0)
(7.48971 -0.131994 0)
(7.50382 -0.141905 0)
(7.51949 -0.152095 0)
(7.53678 -0.162415 0)
(7.55578 -0.172608 0)
(7.57642 -0.18248 0)
(7.59872 -0.191756 0)
(7.62251 -0.200224 0)
(7.64772 -0.20764 0)
(7.67407 -0.213816 0)
(7.7014 -0.218582 0)
(7.72937 -0.221816 0)
(7.75778 -0.223452 0)
(7.78625 -0.223456 0)
(7.81457 -0.221874 0)
(7.84239 -0.218755 0)
(7.86956 -0.214237 0)
(7.89576 -0.208435 0)
(7.92089 -0.201552 0)
(7.94474 -0.193737 0)
(7.96725 -0.185227 0)
(7.9883 -0.176173 0)
(8.00788 -0.16682 0)
(8.02602 -0.157292 0)
(8.04254 -0.14788 0)
(8.05812 -0.138297 0)
(8.07108 -0.130509 0)
(8.08955 -0.116506 0)
(5.00001 -0.000801007 0)
(5.00014 -0.00240115 0)
(5.0004 -0.00400271 0)
(5.00081 -0.00560553 0)
(5.00137 -0.00720956 0)
(5.00207 -0.0088157 0)
(5.00291 -0.0104249 0)
(5.00389 -0.0120381 0)
(5.00501 -0.0136568 0)
(5.00628 -0.0152825 0)
(5.00768 -0.0169173 0)
(5.00923 -0.0185633 0)
(5.01092 -0.0202231 0)
(5.01274 -0.0218995 0)
(5.01471 -0.0235956 0)
(5.01682 -0.0253149 0)
(5.01908 -0.0270609 0)
(5.02147 -0.0288377 0)
(5.02402 -0.0306493 0)
(5.02672 -0.0325002 0)
(5.02956 -0.034395 0)
(5.03257 -0.0363386 0)
(5.03573 -0.0383359 0)
(5.03906 -0.0403923 0)
(5.04256 -0.0425132 0)
(5.04624 -0.0447042 0)
(5.05009 -0.0469711 0)
(5.05413 -0.0493201 0)
(5.05836 -0.0517572 0)
(5.0628 -0.0542888 0)
(5.06745 -0.0569214 0)
(5.07231 -0.0596619 0)
(5.07741 -0.0625168 0)
(5.08274 -0.0654933 0)
(5.08833 -0.0685985 0)
(5.09417 -0.0718396 0)
(5.1003 -0.0752239 0)
(5.1067 -0.0787589 0)
(5.11341 -0.0824522 0)
(5.12044 -0.0863113 0)
(5.12779 -0.090344 0)
(5.1355 -0.0945582 0)
(5.14356 -0.0989615 0)
(5.15201 -0.103562 0)
(5.16085 -0.108367 0)
(5.17012 -0.113385 0)
(5.17982 -0.118624 0)
(5.18999 -0.124091 0)
(5.20063 -0.129795 0)
(5.21178 -0.135742 0)
(5.22346 -0.14194 0)
(5.2357 -0.148396 0)
(5.24851 -0.155118 0)
(5.26193 -0.162111 0)
(5.27598 -0.16938 0)
(5.2907 -0.176932 0)
(5.30611 -0.18477 0)
(5.32225 -0.192897 0)
(5.33915 -0.201314 0)
(5.35685 -0.210021 0)
(5.37538 -0.219015 0)
(5.39477 -0.228292 0)
(5.41508 -0.237843 0)
(5.43633 -0.247657 0)
(5.45857 -0.257718 0)
(5.48183 -0.268005 0)
(5.50617 -0.278491 0)
(5.53161 -0.289144 0)
(5.55819 -0.299924 0)
(5.58596 -0.310782 0)
(5.61494 -0.321664 0)
(5.64516 -0.332502 0)
(5.67664 -0.343224 0)
(5.70938 -0.353745 0)
(5.74339 -0.363973 0)
(5.77866 -0.373807 0)
(5.81514 -0.383139 0)
(5.85281 -0.391859 0)
(5.89158 -0.399852 0)
(5.93138 -0.407007 0)
(5.9721 -0.413216 0)
(6.0136 -0.418382 0)
(6.05576 -0.422421 0)
(6.0984 -0.425265 0)
(6.14136 -0.426869 0)
(6.18446 -0.427206 0)
(6.22753 -0.426276 0)
(6.27038 -0.424095 0)
(6.31284 -0.420702 0)
(6.35476 -0.416152 0)
(6.39599 -0.410514 0)
(6.43639 -0.403869 0)
(6.47585 -0.396307 0)
(6.51426 -0.387924 0)
(6.55156 -0.37882 0)
(6.58766 -0.369098 0)
(6.62252 -0.358859 0)
(6.65611 -0.348203 0)
(6.6884 -0.337226 0)
(6.71939 -0.326018 0)
(6.74908 -0.314665 0)
(6.77748 -0.303243 0)
(6.8046 -0.291824 0)
(6.83047 -0.280471 0)
(6.85511 -0.269241 0)
(6.87857 -0.258181 0)
(6.90087 -0.247335 0)
(6.92206 -0.236739 0)
(6.94218 -0.226424 0)
(6.96127 -0.216415 0)
(6.97939 -0.206734 0)
(6.99656 -0.197398 0)
(7.01285 -0.18842 0)
(7.0283 -0.179809 0)
(7.04295 -0.171572 0)
(7.05685 -0.163713 0)
(7.07004 -0.156232 0)
(7.08258 -0.149128 0)
(7.09449 -0.142397 0)
(7.10582 -0.136031 0)
(7.1166 -0.130026 0)
(7.12688 -0.124371 0)
(7.13668 -0.119057 0)
(7.14604 -0.114075 0)
(7.15499 -0.109416 0)
(7.16355 -0.105069 0)
(7.17175 -0.101028 0)
(7.17961 -0.0972844 0)
(7.18716 -0.0938351 0)
(7.19443 -0.0906741 0)
(7.20143 -0.0878006 0)
(7.20819 -0.0852126 0)
(7.21474 -0.0829109 0)
(7.2211 -0.0808962 0)
(7.2273 -0.079169 0)
(7.23338 -0.0777303 0)
(7.23937 -0.0765769 0)
(7.24531 -0.0757057 0)
(7.25124 -0.0751054 0)
(7.25719 -0.0747639 0)
(7.26321 -0.0746578 0)
(7.26933 -0.0747615 0)
(7.27558 -0.0750391 0)
(7.28197 -0.0754504 0)
(7.28854 -0.0759511 0)
(7.29527 -0.0764904 0)
(7.30216 -0.0770249 0)
(7.30919 -0.0775023 0)
(7.31634 -0.077892 0)
(7.32356 -0.0781519 0)
(7.3308 -0.0782762 0)
(7.33801 -0.0782434 0)
(7.34513 -0.0780812 0)
(7.35212 -0.0777954 0)
(7.35891 -0.0774492 0)
(7.36547 -0.0770776 0)
(7.37175 -0.0767751 0)
(7.37775 -0.0766035 0)
(7.38342 -0.0766795 0)
(7.38882 -0.0770874 0)
(7.39393 -0.0779545 0)
(7.39883 -0.0793818 0)
(7.40354 -0.0814937 0)
(7.4082 -0.0844003 0)
(7.41287 -0.088207 0)
(7.41773 -0.0930216 0)
(7.42288 -0.0989106 0)
(7.42855 -0.105962 0)
(7.43488 -0.11418 0)
(7.44214 -0.123611 0)
(7.45051 -0.134173 0)
(7.46024 -0.145842 0)
(7.47154 -0.158437 0)
(7.48462 -0.17184 0)
(7.49967 -0.185766 0)
(7.51681 -0.2 0)
(7.53616 -0.214169 0)
(7.55772 -0.227978 0)
(7.58149 -0.241017 0)
(7.60729 -0.252956 0)
(7.635 -0.263418 0)
(7.66427 -0.272113 0)
(7.69486 -0.278779 0)
(7.72629 -0.283237 0)
(7.75826 -0.285396 0)
(7.79026 -0.285219 0)
(7.82199 -0.282791 0)
(7.853 -0.278205 0)
(7.88304 -0.271683 0)
(7.91175 -0.26341 0)
(7.93898 -0.253694 0)
(7.96449 -0.242765 0)
(7.98823 -0.230967 0)
(8.01006 -0.21853 0)
(8.03 -0.205798 0)
(8.0481 -0.192957 0)
(8.06426 -0.180398 0)
(8.07906 -0.16778 0)
(8.09148 -0.157606 0)
(8.10804 -0.139709 0)
(5.00001 -0.000944164 0)
(5.00014 -0.00283009 0)
(5.0004 -0.00471716 0)
(5.00081 -0.00660477 0)
(5.00136 -0.00849249 0)
(5.00206 -0.0103811 0)
(5.00289 -0.0122713 0)
(5.00387 -0.0141642 0)
(5.00498 -0.0160611 0)
(5.00623 -0.017964 0)
(5.00762 -0.019875 0)
(5.00914 -0.0217966 0)
(5.0108 -0.0237318 0)
(5.01259 -0.0256841 0)
(5.01451 -0.027657 0)
(5.01657 -0.0296547 0)
(5.01877 -0.0316818 0)
(5.0211 -0.0337428 0)
(5.02357 -0.035843 0)
(5.02617 -0.0379878 0)
(5.02893 -0.0401827 0)
(5.03182 -0.0424338 0)
(5.03487 -0.0447472 0)
(5.03807 -0.0471292 0)
(5.04142 -0.0495865 0)
(5.04494 -0.0521257 0)
(5.04863 -0.0547539 0)
(5.05249 -0.0574781 0)
(5.05653 -0.0603057 0)
(5.06076 -0.0632443 0)
(5.06519 -0.0663013 0)
(5.06982 -0.0694847 0)
(5.07466 -0.0728024 0)
(5.07973 -0.0762627 0)
(5.08503 -0.0798738 0)
(5.09058 -0.0836443 0)
(5.09639 -0.0875827 0)
(5.10246 -0.091698 0)
(5.10882 -0.0959991 0)
(5.11549 -0.100495 0)
(5.12246 -0.105195 0)
(5.12976 -0.110108 0)
(5.13741 -0.115244 0)
(5.14543 -0.120613 0)
(5.15382 -0.126223 0)
(5.16262 -0.132085 0)
(5.17184 -0.138209 0)
(5.1815 -0.144603 0)
(5.19163 -0.151278 0)
(5.20224 -0.158244 0)
(5.21337 -0.16551 0)
(5.22504 -0.173085 0)
(5.23727 -0.180979 0)
(5.25009 -0.189201 0)
(5.26353 -0.197759 0)
(5.27763 -0.206661 0)
(5.29241 -0.215914 0)
(5.30792 -0.225524 0)
(5.32418 -0.235497 0)
(5.34124 -0.245835 0)
(5.35913 -0.256539 0)
(5.37791 -0.267607 0)
(5.39761 -0.279036 0)
(5.41829 -0.290816 0)
(5.43999 -0.302933 0)
(5.46277 -0.315369 0)
(5.48668 -0.328097 0)
(5.51177 -0.341084 0)
(5.5381 -0.354288 0)
(5.56572 -0.367654 0)
(5.59469 -0.381118 0)
(5.62506 -0.394603 0)
(5.65686 -0.408019 0)
(5.69012 -0.421259 0)
(5.72487 -0.434206 0)
(5.76112 -0.446727 0)
(5.79884 -0.458677 0)
(5.838 -0.469903 0)
(5.87853 -0.480246 0)
(5.92035 -0.489546 0)
(5.96333 -0.497649 0)
(6.00732 -0.504413 0)
(6.05214 -0.509711 0)
(6.09758 -0.513446 0)
(6.14342 -0.515546 0)
(6.18943 -0.515976 0)
(6.23539 -0.514734 0)
(6.28106 -0.511853 0)
(6.32624 -0.507396 0)
(6.37072 -0.501448 0)
(6.41434 -0.494117 0)
(6.45695 -0.485523 0)
(6.49839 -0.475798 0)
(6.53858 -0.465076 0)
(6.57742 -0.453493 0)
(6.61483 -0.441183 0)
(6.65078 -0.428278 0)
(6.68524 -0.414904 0)
(6.71818 -0.401179 0)
(6.74962 -0.387217 0)