/*--------------------------------*- C++ -*----------------------------------*\
  =========                 |
  \\      /  F ield         | OpenFOAM: The Open Source CFD Toolbox
   \\    /   O peration     | Website:  https://openfoam.org
    \\  /    A nd           | Version:  10
     \\/     M anipulation  |
\*---------------------------------------------------------------------------*/
FoamFile
{
    format      ascii;
    class       volVectorField;
    location    "0.27";
    object      Ua;
}
// * * * * * * * * * * * * * * * * * * * * * * * * * * * * * * * * * * * * * //

dimensions      [0 1 -1 0 0 0 0];

internalField   nonuniform List<vector> 
12225
(
(0.000214737 -1.87132e-05 0)
(0.000627935 -1.74419e-05 0)
(0.00100407 -1.52483e-05 0)
(0.00133776 -1.29995e-05 0)
(0.00162973 -1.1337e-05 0)
(0.00188604 -1.07268e-05 0)
(0.00212225 -1.16946e-05 0)
(0.00238404 -1.53127e-05 0)
(0.00286773 -2.54271e-05 0)
(0.00682229 -9.82588e-05 0)
(0.0283745 -0.00368778 0)
(0.0382546 0.00254124 0)
(0.0285576 0.000539413 0)
(0.0266312 9.74326e-05 0)
(0.0267279 -0.000135947 0)
(0.0281871 -0.000400246 0)
(0.0317263 -0.000951973 0)
(0.0415598 -0.00297007 0)
(0.000105152 -4.95578e-05 0)
(0.000308617 -4.64914e-05 0)
(0.000496024 -4.09159e-05 0)
(0.000665794 -3.50756e-05 0)
(0.000822338 -3.06666e-05 0)
(0.00097589 -2.89477e-05 0)
(0.00114507 -3.13438e-05 0)
(0.00136885 -4.07371e-05 0)
(0.00176756 -6.64977e-05 0)
(0.00328712 -0.000205695 0)
(0.0184321 -0.00922089 0)
(0.0305927 0.00566947 0)
(0.0277351 0.00147544 0)
(0.0263933 0.000273954 0)
(0.0265439 -0.000411805 0)
(0.027871 -0.00118292 0)
(0.0306847 -0.002672 0)
(0.0352696 -0.0071198 0)
(8.2372e-05 -7.08296e-05 0)
(0.00024331 -6.70806e-05 0)
(0.000394832 -5.95842e-05 0)
(0.000535774 -5.14584e-05 0)
(0.000669828 -4.51517e-05 0)
(0.000805855 -4.25399e-05 0)
(0.000960183 -4.57647e-05 0)
(0.00116674 -5.90876e-05 0)
(0.00152557 -9.48481e-05 0)
(0.00271665 -0.000229976 0)
(0.0159398 -0.0122242 0)
(0.027749 0.00642731 0)
(0.0266665 0.0021072 0)
(0.0259352 0.00039562 0)
(0.0261638 -0.000689678 0)
(0.027272 -0.00189434 0)
(0.0292258 -0.00396543 0)
(0.0311167 -0.00862728 0)
(6.9275e-05 -8.69816e-05 0)
(0.00020588 -8.3195e-05 0)
(0.000337121 -7.45931e-05 0)
(0.000461942 -6.49129e-05 0)
(0.000583265 -5.72146e-05 0)
(0.000708627 -5.39223e-05 0)
(0.000852356 -5.78293e-05 0)
(0.00104438 -7.44131e-05 0)
(0.00137067 -0.000118843 0)
(0.00236246 -0.000266272 0)
(0.0139324 -0.0138381 0)
(0.0251853 0.00643162 0)
(0.0254654 0.0024158 0)
(0.0252924 0.000434608 0)
(0.0255987 -0.000958364 0)
(0.0264588 -0.00248035 0)
(0.0276664 -0.00479812 0)
(0.0281999 -0.00889961 0)
(5.98346e-05 -9.89033e-05 0)
(0.000178884 -9.5568e-05 0)
(0.000295492 -8.64944e-05 0)
(0.000408717 -7.58494e-05 0)
(0.000520867 -6.71833e-05 0)
(0.000638299 -6.33971e-05 0)
(0.000773478 -6.78488e-05 0)
(0.000952497 -8.70723e-05 0)
(0.00124941 -0.000139506 0)
(0.00208954 -0.000312881 0)
(0.0117756 -0.0137139 0)
(0.0224356 0.00563412 0)
(0.0242308 0.00241424 0)
(0.0245138 0.000381326 0)
(0.0248779 -0.00120859 0)
(0.0255043 -0.00291983 0)
(0.0261534 -0.00524663 0)
(0.0260293 -0.00863107 0)
(5.2408e-05 -0.000107056 0)
(0.000157586 -0.000104546 0)
(0.000262518 -9.54973e-05 0)
(0.000366411 -8.43629e-05 0)
(0.000471114 -7.50767e-05 0)
(0.000581967 -7.09313e-05 0)
(0.000709653 -7.57254e-05 0)
(0.000876349 -9.67606e-05 0)
(0.00114329 -0.000155359 0)
(0.00183715 -0.000359386 0)
(0.00882032 -0.0103985 0)
(0.0190074 0.00353219 0)
(0.0231095 0.00216531 0)
(0.0236577 0.000247456 0)
(0.0240407 -0.0014335 0)
(0.0244714 -0.00321867 0)
(0.0247442 -0.00541581 0)
(0.02433 -0.00815286 0)
(4.63012e-05 -0.000111715 0)
(0.000139999 -0.000110314 0)
(0.000235117 -0.000101672 0)
(0.000331026 -9.04252e-05 0)
(0.000429251 -8.07951e-05 0)
(0.000534267 -7.63694e-05 0)
(0.00065507 -8.12205e-05 0)
(0.000809809 -0.000102894 0)
(0.00104408 -0.000163086 0)
(0.0015458 -0.000369287 0)
(0.0049805 -0.00520178 0)
(0.0149859 -0.000337734 0)
(0.0222495 0.00182384 0)
(0.0227733 6.60399e-05 0)
(0.0231267 -0.00162858 0)
(0.0234076 -0.00339976 0)
(0.0234525 -0.00540272 0)
(0.0229419 -0.00761867 0)
(4.11488e-05 -0.00011307 0)
(0.000125085 -0.000112978 0)
(0.000211694 -0.00010502 0)
(0.000300517 -9.39479e-05 0)
(0.00039287 -8.41833e-05 0)
(0.000492504 -7.95052e-05 0)
(0.000606895 -8.40699e-05 0)
(0.00075051 -0.000105029 0)
(0.00095577 -0.000160997 0)
(0.00132743 -0.000329124 0)
(0.00313548 -0.00193695 0)
(0.0129681 -0.00487525 0)
(0.021469 0.00153445 0)
(0.0218666 -0.00012522 0)
(0.0221655 -0.00179342 0)
(0.0223447 -0.0034942 0)
(0.0222723 -0.00528518 0)
(0.0217675 -0.00709892 0)
(3.67295e-05 -0.000111274 0)
(0.000112218 -0.000112611 0)
(0.000191299 -0.000105513 0)
(0.000273689 -9.48155e-05 0)
(0.000360587 -8.50628e-05 0)
(0.00045517 -8.0122e-05 0)
(0.000563629 -8.40582e-05 0)
(0.000697605 -0.000103163 0)
(0.000881702 -0.000151226 0)
(0.00119242 -0.000271424 0)
(0.00249213 -0.000857403 0)
(0.0120501 -0.00849004 0)
(0.0206433 0.00133721 0)
(0.0209214 -0.000305701 0)
(0.0211743 -0.00193549 0)
(0.0213009 -0.00353611 0)
(0.0211907 -0.00512185 0)
(0.0207459 -0.00662664 0)
(3.28943e-05 -0.00010648 0)
(0.000100975 -0.00010928 0)
(0.000173294 -0.000103115 0)
(0.000249756 -9.29069e-05 0)
(0.000331526 -8.32542e-05 0)
(0.000421341 -7.80161e-05 0)
(0.00052438 -8.10443e-05 0)
(0.000650362 -9.764e-05 0)
(0.000820247 -0.000137297 0)
(0.00110258 -0.000221676 0)
(0.00214261 -0.000480615 0)
(0.01133 -0.0107488 0)
(0.0197168 0.00123002 0)
(0.0199129 -0.000481148 0)
(0.0201601 -0.00207411 0)
(0.0202858 -0.00356073 0)
(0.0201951 -0.00495657 0)
(0.0198389 -0.00621895 0)
(2.95301e-05 -9.88643e-05 0)
(9.10342e-05 -0.00010306 0)
(0.0001572 -9.77969e-05 0)
(0.000228144 -8.81131e-05 0)
(0.00030507 -7.85958e-05 0)
(0.000390394 -7.30098e-05 0)
(0.000488524 -7.49364e-05 0)
(0.000607899 -8.8849e-05 0)
(0.000767795 -0.000121649 0)
(0.00103325 -0.000186573 0)
(0.0018967 -0.000350683 0)
(0.010484 -0.0114855 0)
(0.0184985 0.00113536 0)
(0.0188028 -0.000697296 0)
(0.0191264 -0.00224407 0)
(0.0193061 -0.00360427 0)
(0.0192768 -0.00482309 0)
(0.0190242 -0.00588662 0)
(2.6215e-05 -8.94396e-05 0)
(8.12843e-05 -9.48032e-05 0)
(0.000141543 -9.03015e-05 0)
(0.000207319 -8.11062e-05 0)
(0.000279825 -7.17317e-05 0)
(0.000361195 -6.57893e-05 0)
(0.000455215 -6.66006e-05 0)
(0.000569329 -7.81153e-05 0)
(0.000721151 -0.000106299 0)
(0.00096947 -0.000164108 0)
(0.0016843 -0.000321525 0)
(0.00900214 -0.0102611 0)
(0.0165623 0.000677341 0)
(0.0176705 -0.00101601 0)
(0.0181759 -0.00246721 0)
(0.0184515 -0.00368955 0)
(0.0185044 -0.00474847 0)
(0.018352 -0.00565023 0)
(2.40264e-05 -7.79887e-05 0)
(7.46672e-05 -8.42332e-05 0)
(0.000130548 -8.03018e-05 0)
(0.00019227 -7.15142e-05 0)
(0.000261157 -6.22435e-05 0)
(0.000339208 -5.58764e-05 0)
(0.000429795 -5.54639e-05 0)
(0.000539602 -6.46033e-05 0)
(0.000684505 -8.90918e-05 0)
(0.000914941 -0.000143947 0)
(0.00150433 -0.000312451 0)
(0.00721736 -0.00683732 0)
(0.014318 -0.000596721 0)
(0.016582 -0.00153315 0)
(0.0172745 -0.00279481 0)
(0.0176602 -0.0038469 0)
(0.0178039 -0.00474349 0)
(0.0177494 -0.00549666 0)
(2.17338e-05 -6.32362e-05 0)
(6.76136e-05 -6.98889e-05 0)
(0.000118675 -6.62228e-05 0)
(0.000175957 -5.76931e-05 0)
(0.000240921 -4.84054e-05 0)
(0.000315398 -4.1395e-05 0)
(0.000402279 -3.93438e-05 0)
(0.000507246 -4.54089e-05 0)
(0.000643319 -6.48874e-05 0)
(0.000847635 -0.000111925 0)
(0.00128611 -0.000256529 0)
(0.00506152 -0.00308081 0)
(0.0117537 -0.00252012 0)
(0.0155148 -0.002346 0)
(0.0163684 -0.00330408 0)
(0.0168655 -0.00412468 0)
(0.0171067 -0.00482575 0)
(0.017153 -0.00541271 0)
(1.91327e-05 -4.51169e-05 0)
(5.95542e-05 -5.10363e-05 0)
(0.000105173 -4.70833e-05 0)
(0.000157683 -3.85595e-05 0)
(0.000218598 -2.90255e-05 0)
(0.000289476 -2.10502e-05 0)
(0.000372664 -1.67763e-05 0)
(0.000472761 -1.8656e-05 0)
(0.000600072 -3.05849e-05 0)
(0.000782513 -6.16478e-05 0)
(0.00113866 -0.000147371 0)
(0.00375833 -0.00100199 0)
(0.0101487 -0.00394233 0)
(0.0147032 -0.00343325 0)
(0.0155936 -0.00402061 0)
(0.0161596 -0.00455772 0)
(0.0164804 -0.00502903 0)
(0.0166153 -0.0054281 0)
(1.54368e-05 -2.39353e-05 0)
(4.85267e-05 -2.69534e-05 0)
(8.77232e-05 -2.21296e-05 0)
(0.00013543 -1.3401e-05 0)
(0.000192409 -2.17682e-06 0)
(0.000259603 7.70968e-06 0)
(0.000339216 1.51183e-05 0)
(0.000435166 1.8722e-05 0)
(0.000556242 1.67522e-05 0)
(0.000726977 6.19726e-06 0)
(0.00105248 -2.12458e-05 0)
(0.00310292 -0.000187726 0)
(0.00933871 -0.00403276 0)
(0.0142429 -0.00470649 0)
(0.0150887 -0.00492663 0)
(0.0156669 -0.00515317 0)
(0.0160277 -0.00536837 0)
(0.0162195 -0.00555905 0)
(7.87102e-06 6.78748e-07 0)
(2.72807e-05 4.3962e-06 0)
(5.63941e-05 1.09883e-05 0)
(9.77027e-05 2.02187e-05 0)
(0.000151302 3.24421e-05 0)
(0.000217004 4.456e-05 0)
(0.000295399 5.60523e-05 0)
(0.000389545 6.66804e-05 0)
(0.000507601 7.69537e-05 0)
(0.000672907 8.95624e-05 0)
(0.000982977 0.000117597 0)
(0.00279458 0.000371151 0)
(0.00903759 -0.00373639 0)
(0.0141765 -0.00620096 0)
(0.0150015 -0.00599075 0)
(0.0155443 -0.00587525 0)
(0.0158879 -0.00581527 0)
(0.0160842 -0.00578414 0)
(1.84027e-05 3.33349e-05 0)
(5.59048e-05 4.77763e-05 0)
(9.64479e-05 5.94935e-05 0)
(0.000142915 7.13786e-05 0)
(0.000197442 8.45548e-05 0)
(0.000261815 9.90857e-05 0)
(0.000338369 0.000115176 0)
(0.000431667 0.000133944 0)
(0.000552464 0.000158673 0)
(0.000732525 0.000199423 0)
(0.00112484 0.000304746 0)
(0.00508377 0.00215921 0)
(0.0119128 -0.00590253 0)
(0.0153038 -0.00750649 0)
(0.0157288 -0.00694931 0)
(0.0160419 -0.00654047 0)
(0.0162466 -0.00623427 0)
(0.016359 -0.00599874 0)
(2.48209e-05 8.5731e-05 0)
(7.55838e-05 0.000110013 0)
(0.000128967 0.00012945 0)
(0.000186182 0.000146881 0)
(0.000249169 0.000164331 0)
(0.000320589 0.000183322 0)
(0.000404672 0.000205799 0)
(0.000509669 0.000235672 0)
(0.000655741 0.000282668 0)
(0.000915872 0.000381189 0)
(0.00200525 0.000860523 0)
(0.00946242 0.00181648 0)
(0.0163953 -0.00899365 0)
(0.0169104 -0.00829462 0)
(0.0170929 -0.00749179 0)
(0.0171706 -0.00687021 0)
(0.0171792 -0.00638242 0)
(0.0171384 -0.00599358 0)
(2.65096e-05 0.000151597 0)
(8.14316e-05 0.000180216 0)
(0.000140158 0.000204957 0)
(0.000203297 0.000227519 0)
(0.000272727 0.000249986 0)
(0.000352098 0.000274773 0)
(0.000448681 0.000305807 0)
(0.000579173 0.000351939 0)
(0.000795753 0.0004414 0)
(0.0014431 0.000758256 0)
(0.00805155 0.00328962 0)
(0.0171641 -0.00492809 0)
(0.019854 -0.00935245 0)
(0.0193228 -0.0082201 0)
(0.0189539 -0.00734457 0)
(0.0186597 -0.0066553 0)
(0.0184017 -0.00610422 0)
(0.0181629 -0.00565747 0)
(2.94041e-05 0.000219306 0)
(9.00294e-05 0.000248565 0)
(0.00015449 0.000275817 0)
(0.000223792 0.000302105 0)
(0.000300596 0.000329625 0)
(0.00039079 0.000361884 0)
(0.000508159 0.000406165 0)
(0.000693604 0.000484284 0)
(0.00116651 0.000716048 0)
(0.00667036 0.00425442 0)
(0.0173433 -0.00189612 0)
(0.0223793 -0.00914673 0)
(0.0214999 -0.00820591 0)
(0.0207968 -0.00735127 0)
(0.0202267 -0.00662338 0)
(0.0197484 -0.00601523 0)
(0.0193343 -0.00550973 0)
(0.0189664 -0.00508896 0)
(3.27883e-05 0.000290492 0)
(9.98423e-05 0.000319949 0)
(0.000170497 0.000349509 0)
(0.000246715 0.000380429 0)
(0.000332808 0.000415942 0)
(0.000439213 0.000462715 0)
(0.000596549 0.000539914 0)
(0.000953069 0.000743868 0)
(0.00489356 0.00397996 0)
(0.0166491 -0.00044331 0)
(0.0243376 -0.00860019 0)
(0.0234898 -0.0078573 0)
(0.0226123 -0.00707074 0)
(0.0218349 -0.00636604 0)
(0.0211596 -0.00575481 0)
(0.0205725 -0.00523369 0)
(0.0200575 -0.00479278 0)
(0.019601 -0.00442041 0)
(3.6941e-05 0.000364589 0)
(0.000111695 0.000395241 0)
(0.000189783 0.00042841 0)
(0.000275077 0.000467217 0)
(0.00037536 0.000518599 0)
(0.000513529 0.00060132 0)
(0.000794933 0.000804166 0)
(0.00342413 0.00339067 0)
(0.0160616 -0.000258433 0)
(0.0261393 -0.00824685 0)
(0.0254765 -0.00757104 0)
(0.0244365 -0.00671964 0)
(0.023473 -0.00600243 0)
(0.0226119 -0.00539043 0)
(0.0218536 -0.00486878 0)
(0.0211878 -0.00442558 0)
(0.0206014 -0.00404977 0)
(0.0200817 -0.00373101 0)
(4.24079e-05 0.000442639 0)
(0.000126805 0.000477186 0)
(0.000214485 0.000516907 0)
(0.000313828 0.000571212 0)
(0.000442117 0.000660037 0)
(0.000677887 0.000867619 0)
(0.00244776 0.00290524 0)
(0.0158626 -0.00011149 0)
(0.028096 -0.00793058 0)
(0.0278012 -0.00748053 0)
(0.0264355 -0.00641854 0)
(0.0252194 -0.00561727 0)
(0.0241423 -0.00497781 0)
(0.0231957 -0.0044514 0)
(0.0223666 -0.00401155 0)
(0.0216399 -0.00364143 0)
(0.0210005 -0.00332872 0)
(0.0204348 -0.00306362 0)
(5.02836e-05 0.00052763 0)
(0.000147256 0.000572063 0)
(0.000248462 0.00062416 0)
(0.000374876 0.000714206 0)
(0.000585605 0.0009256 0)
(0.0018468 0.00259583 0)
(0.0157832 0.000454915 0)
(0.030233 -0.00723254 0)
(0.0307795 -0.00749005 0)
(0.0288118 -0.00617141 0)
(0.0271942 -0.0052383 0)
(0.0258221 -0.00454389 0)
(0.0246425 -0.00400245 0)
(0.0236223 -0.00356586 0)
(0.0227363 -0.00320627 0)
(0.0219632 -0.00290629 0)
(0.021285 -0.00265399 0)
(0.0206863 -0.00244053 0)
(6.29396e-05 0.000626642 0)
(0.000177466 0.000695084 0)
(0.000301828 0.000775081 0)
(0.000504909 0.000983389 0)
(0.00151052 0.00248072 0)
(0.0158276 0.00122383 0)
(0.0327875 -0.00598829 0)
(0.0346602 -0.00737551 0)
(0.0317705 -0.00589168 0)
(0.0295406 -0.00484025 0)
(0.0277453 -0.00408573 0)
(0.0262562 -0.0035253 0)
(0.0249977 -0.00309269 0)
(0.0239214 -0.00274777 0)
(0.0229931 -0.00246628 0)
(0.0221865 -0.00223291 0)
(0.0214807 -0.00203737 0)
(0.0208591 -0.00187225 0)
(8.64954e-05 0.000760381 0)
(0.000230599 0.000893593 0)
(0.000420692 0.00108063 0)
(0.00141058 0.00266924 0)
(0.0167773 0.00168569 0)
(0.0366348 -0.00433069 0)
(0.0396241 -0.00685216 0)
(0.0355122 -0.00542488 0)
(0.0324216 -0.00434891 0)
(0.0300294 -0.00356979 0)
(0.0281177 -0.00300472 0)
(0.0265489 -0.00258451 0)
(0.0252355 -0.00226154 0)
(0.0241203 -0.00200561 0)
(0.0231628 -0.0017979 0)
(0.0223334 -0.0016264 0)
(0.0216092 -0.00148308 0)
(0.0209723 -0.00136225 0)
(0.000146092 0.00102382 0)
(0.000384643 0.00145225 0)
(0.00186139 0.00385585 0)
(0.0207336 0.00134387 0)
(0.0435363 -0.00267355 0)
(0.0457307 -0.00562787 0)
(0.0402207 -0.00457048 0)
(0.0360207 -0.00364258 0)
(0.0328191 -0.00292764 0)
(0.0303318 -0.00240283 0)
(0.0283494 -0.00201951 0)
(0.0267309 -0.00173402 0)
(0.025383 -0.00151502 0)
(0.024243 -0.00134204 0)
(0.0232672 -0.0012021 0)
(0.0224235 -0.00108684 0)
(0.0216879 -0.000990676 0)
(0.0210417 -0.000909689 0)
(0.00092307 0.00330437 0)
(0.00676066 0.00585119 0)
(0.0330797 0.00166999 0)
(0.0554317 -0.00180888 0)
(0.0527299 -0.00355353 0)
(0.0460067 -0.00313792 0)
(0.0405319 -0.00256598 0)
(0.0362922 -0.00205278 0)
(0.0330342 -0.00165241 0)
(0.0304966 -0.00135625 0)
(0.0284762 -0.00113908 0)
(0.0268306 -0.00097715 0)
(0.0254636 -0.00085304 0)
(0.02431 -0.000755172 0)
(0.023324 -0.000676125 0)
(0.0224725 -0.000611109 0)
(0.0217307 -0.000556918 0)
(0.0210793 -0.000511305 0)
(0.019026 0.00270047 0)
(0.0560947 0.00490935 0)
(0.0687979 -0.00153829 0)
(0.059902 -0.00106717 0)
(0.0527567 -0.00112167 0)
(0.0461142 -0.000994186 0)
(0.0406559 -0.000815377 0)
(0.0364017 -0.000653366 0)
(0.0331215 -0.00052629 0)
(0.0305638 -0.000431983 0)
(0.0285279 -0.000362706 0)
(0.0268713 -0.000311027 0)
(0.0254965 -0.000271429 0)
(0.0243373 -0.000240225 0)
(0.0233471 -0.000215039 0)
(0.0224924 -0.000194335 0)
(0.021748 -0.000177085 0)
(0.0210945 -0.00016257 0)
(0.000105371 -0.000225227 -2.90974e-30)
(0.000316951 -0.000224867 2.9026e-30)
(0.0005298 -0.000224242 0)
(0.00074367 -0.000223347 0)
(0.000958304 -0.000222182 0)
(0.00117344 -0.000220747 -2.83923e-30)
(0.00138881 -0.000219045 0)
(0.00160414 -0.00021708 0)
(0.00181915 -0.000214858 0)
(0.00203358 -0.000212386 0)
(0.00224716 -0.000209673 2.68344e-30)
(0.00245961 -0.00020673 0)
(0.00267067 -0.000203569 0)
(0.00288008 -0.000200201 0)
(0.0030876 -0.000196643 0)
(0.00329299 -0.000192907 2.45439e-30)
(0.00349601 -0.00018901 0)
(0.00369646 -0.000184969 0)
(0.00389413 -0.000180798 0)
(0.00408883 -0.000176516 0)
(0.00428038 -0.000172138 0)
(0.00446863 -0.000167681 0)
(0.00465342 -0.000163162 0)
(0.00483462 -0.000158595 1.99272e-30)
(0.00501213 -0.000153997 -1.9312e-30)
(0.00518583 -0.000149381 1.86949e-30)
(0.00535564 -0.000144762 1.80778e-30)
(0.00552149 -0.000140153 0)
(0.00568332 -0.000135565 0)
(0.00584108 -0.00013101 -1.62431e-30)
(0.00599475 -0.000126499 -1.5642e-30)
(0.0061443 -0.000122041 0)
(0.00628973 -0.000117645 0)
(0.00643103 -0.000113318 -1.38868e-30)
(0.00656821 -0.000109067 0)
(0.00670131 -0.000104899 0)
(0.00683034 -0.000100819 1.22242e-30)
(0.00695535 -9.68299e-05 0)
(0.00707637 -9.2937e-05 1.11765e-30)
(0.00719346 -8.91428e-05 2.13446e-30)
(0.00730668 -8.54499e-05 0)
(0.00741609 -8.186e-05 0)
(0.00752174 -7.83744e-05 0)
(0.00762371 -7.49938e-05 0)
(0.00772208 -7.17188e-05 0)
(0.00781692 -6.85491e-05 1.5874e-30)
(0.0079083 -6.54844e-05 1.50602e-30)
(0.00799631 -6.25239e-05 1.42742e-30)
(0.00808102 -5.96666e-05 0)
(0.00816253 -5.69111e-05 -1.27841e-30)
(0.0082409 -5.42561e-05 0)
(0.00831623 -5.16997e-05 1.14007e-30)
(0.0083886 -4.92402e-05 1.07478e-30)
(0.0084581 -4.68755e-05 0)
(0.00852479 -4.46035e-05 0)
(0.00858878 -4.2422e-05 0)
(0.00865014 -4.03287e-05 8.38252e-31)
(0.00870895 -3.83214e-05 0)
(0.00876529 -3.63975e-05 0)
(0.00881925 -3.45547e-05 0)
(0.0088709 -3.27906e-05 0)
(0.00892032 -3.11027e-05 0)
(0.00896758 -2.94886e-05 0)
(0.00901276 -2.79459e-05 0)
(0.00905593 -2.64722e-05 0)
(0.00909716 -2.50652e-05 -4.33142e-31)
(0.00913653 -2.37224e-05 0)
(0.00917409 -2.24416e-05 0)
(0.00920992 -2.12206e-05 3.31102e-31)
(0.00924409 -2.00571e-05 3.00214e-31)
(0.00927665 -1.89489e-05 0)
(0.00930767 -1.78939e-05 -2.428e-31)
(0.0093372 -1.689e-05 2.16151e-31)
(0.00936531 -1.59353e-05 0)
(0.00939205 -1.50277e-05 -1.66715e-31)
(0.00941748 -1.41653e-05 0)
(0.00944165 -1.33463e-05 0)
(0.00946462 -1.25688e-05 1.01444e-31)
(0.00948642 -1.18311e-05 0)
(0.00950712 -1.11315e-05 -6.32856e-32)
(0.00952676 -1.04683e-05 0)
(0.00954538 -9.83994e-06 2.8995e-32)
(0.00956303 -9.2449e-06 1.31983e-32)
(0.00957976 -8.68166e-06 -1.75576e-33)
(0.00959559 -8.14879e-06 -3.18055e-32)
(0.00961058 -7.64489e-06 5.85687e-32)
(0.00962476 -7.16861e-06 0)
(0.00963817 -6.71868e-06 0)
(0.00965085 -6.29384e-06 0)
(0.00966282 -5.8929e-06 1.51607e-31)
(0.00967412 -5.5147e-06 1.71696e-31)
(0.00968479 -5.15813e-06 -1.90632e-31)
(0.00969485 -4.82212e-06 0)
(0.00970434 -4.50567e-06 2.25285e-31)
(0.00971328 -4.20777e-06 2.41112e-31)
(0.0097217 -3.9275e-06 2.55999e-31)
(0.00972962 -3.66395e-06 0)
(0.00973708 -3.41624e-06 0)
(0.00974409 -3.18356e-06 0)
(0.00975068 -2.96511e-06 3.07122e-31)
(0.00975686 -2.76014e-06 0)
(0.00976267 -2.5679e-06 0)
(0.00976813 -2.38773e-06 -3.37792e-31)
(0.00977324 -2.21894e-06 0)
(0.00977803 -2.06092e-06 0)
(0.00978252 -1.91305e-06 -3.63014e-31)
(0.00978672 -1.77477e-06 0)
(0.00979065 -1.64553e-06 0)
(0.00979432 -1.5248e-06 3.83643e-31)
(0.00979776 -1.4121e-06 3.89632e-31)
(0.00980097 -1.30694e-06 0)
(0.00980396 -1.20889e-06 -4.00433e-31)
(0.00980676 -1.11752e-06 0)
(0.00980936 -1.03243e-06 4.09808e-31)
(0.00981179 -9.53224e-07 0)
(0.00981405 -8.7955e-07 4.17936e-31)
(0.00981615 -8.11061e-07 4.21571e-31)
(0.00981811 -7.47432e-07 0)
(0.00981993 -6.88356e-07 0)
(0.00982162 -6.33541e-07 0)
(0.00982319 -5.82711e-07 0)
(0.00982464 -5.35607e-07 0)
(0.00982599 -4.91983e-07 0)
(0.00982724 -4.51607e-07 0)
(0.0098284 -4.14262e-07 4.42668e-31)
(0.00982947 -3.79741e-07 -4.44499e-31)
(0.00983046 -3.47851e-07 0)
(0.00983137 -3.18408e-07 0)
(0.00983222 -2.91242e-07 0)
(0.009833 -2.66189e-07 0)
(0.00983371 -2.43099e-07 -9.03529e-31)
(0.00983438 -2.21826e-07 0)
(0.00983499 -2.02236e-07 9.07876e-31)
(0.00983555 -1.84202e-07 -9.09794e-31)
(0.00983606 -1.67604e-07 0)
(0.00983653 -1.52326e-07 0)
(0.00983696 -1.38261e-07 0)
(0.00983736 -1.25306e-07 9.16059e-31)
(0.00983772 -1.13363e-07 9.17328e-31)
(0.00983805 -1.02334e-07 0)
(0.00983835 -9.21294e-08 9.19579e-31)
(0.00983863 -8.26558e-08 9.20581e-31)
(0.00983887 -7.38222e-08 -9.21523e-31)
(0.00983909 -6.55362e-08 0)
(0.00983929 -5.77015e-08 0)
(0.00983947 -5.0217e-08 -9.24019e-31)
(0.00983962 -4.29733e-08 0)
(0.00983975 -3.58494e-08 0)
(0.00983986 -2.87092e-08 0)
(0.00983994 -2.13956e-08 0)
(0.00984 -1.37244e-08 9.27841e-31)
(0.00984003 -5.47596e-09 9.28698e-31)
(0.00984003 3.61531e-09 0)
(0.00984 1.38742e-08 9.30697e-31)
(0.00983993 2.57018e-08 0)
(0.00983982 3.95979e-08 0)
(0.00983965 5.6189e-08 9.35038e-31)
(0.00983941 7.62658e-08 0)
(0.00983908 1.00831e-07 9.39603e-31)
(0.00983866 1.31164e-07 0)
(0.0098381 1.68905e-07 0)
(0.00983737 2.16163e-07 9.51364e-31)
(0.00983644 2.75675e-07 0)
(0.00983524 3.51007e-07 9.65104e-31)
(0.0098337 4.46837e-07 0)
(0.00983171 5.69357e-07 0)
(0.00982916 7.26846e-07 0)
(0.00982586 9.30498e-07 -1.02414e-30)
(0.00982159 1.19568e-06 0)
(0.00981604 1.54389e-06 1.08663e-30)
(0.00980877 2.00586e-06 0)
(0.00979919 2.62684e-06 0)
(0.00978645 3.476e-06 0)
(0.00976929 4.66414e-06 0)
(0.00974578 6.38031e-06 0)
(0.00971278 8.97547e-06 0)
(0.00966469 1.31828e-05 0)
(0.00959015 2.08208e-05 -6.11697e-30)
(0.00946055 3.77197e-05 0)
(0.00917331 9.07075e-05 0)
(0.000105928 -0.00067687 8.74456e-30)
(0.000318621 -0.000675783 -8.72298e-30)
(0.00053258 -0.00067389 0)
(0.00074755 -0.000671183 1.73143e-29)
(0.000963268 -0.000667658 0)
(0.00117946 -0.000663318 -8.55926e-30)
(0.00139586 -0.000658171 -1.69474e-29)
(0.00161218 -0.000652228 -1.67836e-29)
(0.00182815 -0.000645509 0)
(0.00204348 -0.000638036 -1.63963e-29)
(0.0022579 -0.000629837 8.1138e-30)
(0.00247114 -0.000620944 0)
(0.00268293 -0.000611393 0)
(0.00289301 -0.000601224 0)
(0.00310113 -0.000590479 0)
(0.00330705 -0.000579203 7.44699e-30)
(0.00351054 -0.000567445 0)
(0.00371138 -0.000555253 1.41777e-29)
(0.00390938 -0.000542678 0)
(0.00410433 -0.000529768 0)
(0.00429608 -0.000516575 -1.31503e-29)
(0.00448446 -0.000503149 0)
(0.00466932 -0.000489538 1.24338e-29)
(0.00485054 -0.000475789 6.09217e-30)
(0.005028 -0.000461949 -5.91119e-30)
(0.00520162 -0.000448061 5.72964e-30)
(0.00537129 -0.000434166 5.54806e-30)
(0.00553697 -0.000420304 0)
(0.00569858 -0.000406511 0)
(0.0058561 -0.000392822 -5.00797e-30)
(0.00600949 -0.000379266 -1.4351e-29)
(0.00615874 -0.000365874 0)
(0.00630383 -0.000352669 0)
(0.00644478 -0.000339676 -4.31413e-30)
(0.00658161 -0.000326915 0)
(0.00671432 -0.000314403 0)
(0.00684297 -0.000302157 3.8245e-30)
(0.00696758 -0.000290188 0)
(0.0070882 -0.000278508 1.03805e-29)
(0.0072049 -0.000267127 6.73496e-30)
(0.00731771 -0.00025605 0)
(0.00742671 -0.000245284 0)
(0.00753197 -0.000234832 -1.14292e-29)
(0.00763355 -0.000224696 -1.08956e-29)
(0.00773152 -0.000214877 -1.03787e-29)
(0.00782598 -0.000205375 1.50026e-29)
(0.00791698 -0.000196189 4.88445e-30)
(0.00800462 -0.000187316 -4.27503e-30)
(0.00808898 -0.000178752 8.47735e-30)
(0.00817013 -0.000170494 -4.21428e-30)
(0.00824817 -0.000162538 0)
(0.00832317 -0.000154878 3.80699e-30)
(0.00839521 -0.000147508 1.04479e-29)
(0.0084644 -0.000140422 0)
(0.0085308 -0.000133615 0)
(0.00859449 -0.000127079 0)
(0.00865557 -0.000120808 2.91845e-30)
(0.00871412 -0.000114794 0)
(0.0087702 -0.00010903 4.80848e-30)
(0.00882391 -0.000103509 0)
(0.00887532 -9.82246e-05 4.23993e-30)
(0.00892451 -9.31683e-05 0)
(0.00897155 -8.83331e-05 -3.71946e-30)
(0.00901652 -8.37119e-05 0)
(0.0090595 -7.92974e-05 3.24402e-30)
(0.00910054 -7.50825e-05 -4.74822e-30)
(0.00913972 -7.10603e-05 0)
(0.00917711 -6.72237e-05 -2.60873e-30)
(0.00921278 -6.35662e-05 1.42564e-30)
(0.00924678 -6.00808e-05 1.33474e-30)
(0.00927919 -5.67613e-05 0)
(0.00931007 -5.36011e-05 -3.05765e-30)
(0.00933947 -5.05942e-05 1.08733e-30)
(0.00936745 -4.77343e-05 0)
(0.00939407 -4.50156e-05 -9.41838e-31)
(0.00941938 -4.24324e-05 -1.30416e-30)
(0.00944344 -3.99791e-05 0)
(0.0094663 -3.76502e-05 7.49743e-31)
(0.009488 -3.54405e-05 0)
(0.00950861 -3.33448e-05 1.88465e-31)
(0.00952816 -3.13583e-05 0)
(0.00954669 -2.94762e-05 -8.57682e-32)
(0.00956426 -2.76938e-05 4.90061e-31)
(0.00958091 -2.60066e-05 8.85772e-31)
(0.00959668 -2.44104e-05 1.52026e-30)
(0.0096116 -2.2901e-05 -1.28262e-30)
(0.00962572 -2.14743e-05 0)
(0.00963906 -2.01266e-05 0)
(0.00965168 -1.8854e-05 0)
(0.0096636 -1.76529e-05 -4.56271e-31)
(0.00967485 -1.652e-05 -3.97233e-31)
(0.00968547 -1.54519e-05 3.41513e-31)
(0.00969549 -1.44454e-05 0)
(0.00970493 -1.34975e-05 1.97853e-31)
(0.00971383 -1.26051e-05 -1.92994e-31)
(0.00972221 -1.17656e-05 -1.49194e-31)
(0.0097301 -1.09761e-05 0)
(0.00973753 -1.0234e-05 0)
(0.00974451 -9.53703e-06 0)
(0.00975106 -8.88265e-06 1.21105e-33)
(0.00975723 -8.26862e-06 0)
(0.00976301 -7.69277e-06 1.04856e-30)
(0.00976844 -7.15303e-06 1.01395e-30)
(0.00977353 -6.64741e-06 -1.15864e-30)
(0.0097783 -6.17403e-06 0)
(0.00978276 -5.73107e-06 -1.42077e-30)
(0.00978695 -5.31683e-06 0)
(0.00979086 -4.92966e-06 -1.33953e-30)
(0.00979452 -4.568e-06 1.60393e-30)
(0.00979794 -4.23038e-06 1.65711e-30)
(0.00980114 -3.91537e-06 0)
(0.00980412 -3.62164e-06 1.20157e-30)
(0.0098069 -3.34792e-06 -1.5061e-30)
(0.00980949 -3.093e-06 3.03286e-31)
(0.00981191 -2.85572e-06 0)
(0.00981416 -2.63502e-06 3.27186e-31)
(0.00981626 -2.42984e-06 -1.26491e-30)
(0.00981821 -2.23922e-06 0)
(0.00982002 -2.06225e-06 -1.64151e-30)
(0.0098217 -1.89803e-06 -1.65881e-30)
(0.00982326 -1.74575e-06 -1.67485e-30)
(0.00982471 -1.60464e-06 0)
(0.00982605 -1.47395e-06 0)
(0.0098273 -1.35299e-06 0)
(0.00982845 -1.24111e-06 2.12794e-30)
(0.00982952 -1.13769e-06 -4.05316e-31)
(0.0098305 -1.04216e-06 0)
(0.00983141 -9.5395e-07 1.75826e-30)
(0.00983225 -8.72563e-07 1.76684e-30)
(0.00983303 -7.9751e-07 0)
(0.00983375 -7.28333e-07 -8.5336e-31)
(0.0098344 -6.64603e-07 3.5775e-30)
(0.00983501 -6.05916e-07 8.66139e-31)
(0.00983557 -5.51889e-07 -4.47301e-30)
(0.00983608 -5.02161e-07 0)
(0.00983655 -4.56392e-07 0)
(0.00983698 -4.14257e-07 0)
(0.00983738 -3.75448e-07 8.90197e-31)
(0.00983774 -3.39669e-07 4.53987e-30)
(0.00983807 -3.06633e-07 3.6529e-30)
(0.00983837 -2.76064e-07 9.00562e-31)
(0.00983864 -2.47688e-07 4.56882e-30)
(0.00983888 -2.21231e-07 -9.06282e-31)
(0.0098391 -1.96416e-07 0)
(0.0098393 -1.72955e-07 0)
(0.00983947 -1.50546e-07 -4.59936e-30)
(0.00983963 -1.28862e-07 0)
(0.00983976 -1.07542e-07 0)
(0.00983986 -8.61775e-08 3.69917e-30)
(0.00983995 -6.43002e-08 0)
(0.00984001 -4.13597e-08 4.63347e-30)
(0.00984004 -1.66998e-08 9.27538e-31)
(0.00984005 1.04725e-08 0)
(0.00984002 4.1127e-08 4.65907e-30)
(0.00983995 7.64616e-08 0)
(0.00983984 1.17968e-07 0)
(0.00983967 1.67517e-07 9.46551e-31)
(0.00983943 2.27469e-07 3.76387e-30)
(0.00983911 3.00816e-07 9.60284e-31)
(0.00983869 3.91377e-07 0)
(0.00983814 5.04043e-07 0)
(0.00983743 6.45114e-07 4.8452e-30)
(0.00983651 8.22748e-07 0)
(0.00983533 1.04758e-06 4.96905e-30)
(0.00983381 1.33355e-06 0)
(0.00983186 1.69913e-06 0)
(0.00982934 2.16894e-06 0)
(0.0098261 2.77633e-06 -1.21501e-30)
(0.0098219 3.56696e-06 0)
(0.00981644 4.60465e-06 1.40315e-30)
(0.0098093 5.98049e-06 0)
(0.0097999 7.82829e-06 0)
(0.00978743 1.03518e-05 5.83788e-30)
(0.00977067 1.38759e-05 -6.56031e-30)
(0.00974781 1.89504e-05 0)
(0.00971594 2.65833e-05 0)
(0.00967013 3.88313e-05 0)
(0.00960131 6.05617e-05 1.79641e-29)
(0.00949194 0.000105891 0)
(0.00931939 0.000228002 -1.0134e-28)
(0.000107056 -0.00113212 5.85162e-29)
(0.000322006 -0.00113027 -7.66305e-33)
(0.000538214 -0.00112707 0)
(0.000755413 -0.00112248 1.78951e-32)
(0.000973323 -0.0011165 0)
(0.00119166 -0.00110915 0)
(0.00141014 -0.00110043 -5.67241e-29)
(0.00162847 -0.00109036 -2.81082e-29)
(0.00184635 -0.00107898 2.77602e-29)
(0.0020635 -0.00106634 -2.74666e-29)
(0.00227963 -0.00105246 0)
(0.00249446 -0.00103743 0)
(0.00270771 -0.00102128 -2.62077e-29)
(0.00291913 -0.00100411 -5.14974e-29)
(0.00312845 -0.000985966 5.05299e-29)
(0.00333543 -0.000966944 0)
(0.00353984 -0.000947118 4.84633e-29)
(0.00374146 -0.000926575 2.37747e-29)
(0.0039401 -0.000905398 0)
(0.00413556 -0.000883673 4.50988e-29)
(0.00432769 -0.000861486 -2.20645e-29)
(0.00451631 -0.00083892 -4.27312e-29)
(0.0047013 -0.000816058 2.08726e-29)
(0.00488254 -0.00079298 0)
(0.00505991 -0.000769762 3.90789e-29)
(0.00523333 -0.000746478 3.78505e-29)
(0.00540273 -0.000723196 0)
(0.00556803 -0.000699982 3.53994e-29)
(0.00572921 -0.000676897 0)
(0.00588621 -0.000653996 3.29769e-29)
(0.00603903 -0.000631331 -1.60343e-29)
(0.00618766 -0.000608948 0)
(0.00633209 -0.00058689 0)
(0.00647233 -0.000565195 0)
(0.00660842 -0.000543894 0)
(0.00674037 -0.000523019 0)
(0.00686824 -0.000502592 0)
(0.00699205 -0.000482636 2.39611e-29)
(0.00711187 -0.000463168 -1.13009e-29)
(0.00722776 -0.000444202 0)
(0.00733976 -0.00042575 0)
(0.00744795 -0.000407819 0)
(0.00755241 -0.000390415 -3.85848e-29)
(0.00765319 -0.000373541 -1.85888e-29)
(0.00775039 -0.000357198 -3.66002e-31)
(0.00784407 -0.000341386 3.70421e-31)
(0.00793433 -0.0003261 -1.5735e-29)
(0.00802123 -0.000311338 -1.53383e-29)
(0.00810486 -0.000297094 2.88052e-29)
(0.00818531 -0.00028336 1.34898e-29)
(0.00826267 -0.000270128 0)
(0.00833701 -0.00025739 1.21257e-29)
(0.00840841 -0.000245137 2.33613e-29)
(0.00847698 -0.000233357 0)
(0.00854278 -0.00022204 0)
(0.0086059 -0.000211176 -9.69841e-30)
(0.00866642 -0.000200751 0)
(0.00872443 -0.000190755 0)
(0.00878 -0.000181176 2.4783e-29)
(0.00883321 -0.000172001 1.52819e-29)
(0.00888415 -0.000163218 7.59918e-30)
(0.00893288 -0.000154815 0)
(0.00897949 -0.00014678 -6.74035e-30)
(0.00902404 -0.000139101 0)
(0.00906662 -0.000131765 1.70113e-29)
(0.00910728 -0.000124761 -5.58993e-30)
(0.0091461 -0.000118078 -9.61771e-30)
(0.00918314 -0.000111703 -1.38557e-29)
(0.00921848 -0.000105625 0)
(0.00925217 -9.98339e-05 7.7013e-30)
(0.00928428 -9.43182e-05 0)
(0.00931486 -8.90673e-05 2.84532e-30)
(0.00934399 -8.4071e-05 6.04544e-30)
(0.00937171 -7.93191e-05 5.54627e-30)
(0.00939808 -7.48018e-05 -5.07171e-30)
(0.00942316 -7.05096e-05 1.86545e-30)
(0.009447 -6.64332e-05 0)
(0.00946965 -6.25635e-05 0)
(0.00949116 -5.88919e-05 -3.40032e-30)
(0.00951157 -5.54098e-05 -1.06812e-30)
(0.00953094 -5.21091e-05 0)
(0.00954931 -4.89817e-05 -1.63048e-30)
(0.00956672 -4.602e-05 0)
(0.00958322 -4.32167e-05 -4.24219e-31)
(0.00959884 -4.05644e-05 3.85608e-30)
(0.00961362 -3.80563e-05 -3.33042e-30)
(0.00962761 -3.56857e-05 9.62197e-31)
(0.00964084 -3.34462e-05 0)