/*--------------------------------*- C++ -*----------------------------------*\
  =========                 |
  \\      /  F ield         | OpenFOAM: The Open Source CFD Toolbox
   \\    /   O peration     | Website:  https://openfoam.org
    \\  /    A nd           | Version:  10
     \\/     M anipulation  |
\*---------------------------------------------------------------------------*/
FoamFile
{
    format      ascii;
    class       volScalarField;
    location    "3.1";
    object      Sb;
}
// * * * * * * * * * * * * * * * * * * * * * * * * * * * * * * * * * * * * * //

dimensions      [0 0 0 0 0 0 0];

internalField   nonuniform List<scalar> 
12225
(
0.562052
0.560061
0.557626
0.555008
0.552381
0.549858
0.547507
0.54537
0.543474
0.541841
0.540493
0.539465
0.538808
0.538618
0.539077
0.540594
0.544275
0.553479
0.593092
0.590611
0.587626
0.584457
0.581314
0.578325
0.575562
0.573069
0.570869
0.568981
0.567425
0.566232
0.565453
0.565183
0.565598
0.567056
0.57031
0.576669
0.612723
0.609751
0.606226
0.602526
0.598888
0.595454
0.592299
0.589466
0.586974
0.584838
0.583076
0.581712
0.580796
0.580412
0.580711
0.581959
0.584588
0.589027
0.628604
0.625113
0.621032
0.616793
0.612662
0.60879
0.605254
0.602089
0.599312
0.596932
0.594959
0.593414
0.592336
0.591791
0.591893
0.592811
0.594746
0.597756
0.642733
0.638666
0.633982
0.629171
0.624526
0.620201
0.616271
0.612767
0.609698
0.607064
0.604868
0.603122
0.601851
0.601101
0.600942
0.60146
0.602713
0.604614
0.655992
0.651271
0.645916
0.640481
0.63528
0.630473
0.626128
0.622267
0.618888
0.615983
0.613544
0.611572
0.610077
0.60908
0.608612
0.608696
0.609311
0.610322
0.668885
0.663405
0.657288
0.651158
0.645348
0.640018
0.635226
0.630981
0.62727
0.624072
0.621367
0.619142
0.61739
0.61611
0.6153
0.614939
0.614965
0.615245
0.681754
0.67538
0.668387
0.661472
0.654986
0.649081
0.643802
0.639142
0.63507
0.631552
0.628554
0.626048
0.62401
0.622418
0.621242
0.620439
0.619928
0.619591
0.694875
0.687432
0.679417
0.671605
0.66436
0.657819
0.652006
0.646892
0.642427
0.63856
0.635241
0.632426
0.630074
0.628145
0.626594
0.625358
0.624358
0.623491
0.708499
0.699756
0.690536
0.681692
0.673588
0.666338
0.659936
0.654324
0.649431
0.645183
0.641513
0.638362
0.635673
0.633391
0.631458
0.629806
0.628358
0.627029
0.722888
0.712539
0.70188
0.691835
0.682754
0.67471
0.667656
0.661499
0.656137
0.651475
0.647427
0.643914
0.640868
0.638221
0.635907
0.633856
0.631997
0.630258
0.738341
0.725966
0.713567
0.702115
0.691915
0.68298
0.675203
0.668448
0.662577
0.657467
0.653011
0.649115
0.645695
0.642677
0.639987
0.637556
0.635317
0.633209
0.752729
0.738103
0.723859
0.71097
0.699663
0.689866
0.681406
0.674093
0.667753
0.662234
0.65741
0.653172
0.649427
0.646091
0.643088
0.640348
0.637809
0.635413
0.770673
0.752791
0.736012
0.721222
0.708494
0.697617
0.688316
0.680327
0.673424
0.667424
0.662172
0.657543
0.653431
0.649741
0.646395
0.643319
0.640452
0.637741
0.793626
0.770802
0.750428
0.733074
0.718504
0.706273
0.695944
0.687147
0.679588
0.673032
0.667294
0.662223
0.657694
0.653602
0.649859
0.646389
0.643133
0.640042
0.824372
0.793539
0.767805
0.746881
0.729892
0.715968
0.704407
0.694674
0.686367
0.679175
0.67286
0.667236
0.662158
0.657511
0.653208
0.64918
0.645377
0.641763
0.8717
0.826764
0.792315
0.766025
0.745574
0.729233
0.715844
0.704635
0.694987
0.686459
0.678839
0.671965
0.66571
0.659974
0.65468
0.64977
0.645195
0.640918
0.812131
0.7844
0.761059
0.741648
0.725459
0.71182
0.700177
0.690099
0.68133
0.673687
0.666898
0.660691
0.654987
0.649723
0.644845
0.64031
0.636081
0.632129
0.7616
0.744344
0.728354
0.714143
0.70167
0.690731
0.681093
0.672544
0.664904
0.658023
0.651817
0.646273
0.641246
0.636613
0.632324
0.628339
0.624624
0.621152
0.727951
0.716109
0.704328
0.693301
0.683235
0.674132
0.665919
0.658494
0.651759
0.645621
0.640004
0.63484
0.630112
0.625813
0.621815
0.618087
0.614602
0.611339
0.700539
0.69197
0.682991
0.67424
0.665994
0.658347
0.651305
0.644836
0.63889
0.633413
0.628356
0.623674
0.619326
0.615289
0.611598
0.608149
0.60492
0.601891
0.677228
0.670773
0.663737
0.656656
0.649808
0.643322
0.637248
0.631588
0.626326
0.621434
0.616882
0.61264
0.608681
0.604979
0.601515
0.598326
0.595333
0.592522
0.656694
0.65168
0.646043
0.640218
0.634462
0.628914
0.623641
0.618669
0.613999
0.609621
0.60552
0.601675
0.598069
0.594683
0.591501
0.588516
0.585743
0.583133
0.638021
0.634037
0.62944
0.624584
0.619697
0.614915
0.610312
0.605926
0.601771
0.597846
0.594146
0.590658
0.587373
0.584275
0.581354
0.578598
0.576013
0.57359
0.620498
0.61728
0.613479
0.609387
0.605205
0.601058
0.597023
0.593142
0.589436
0.585913
0.582571
0.579406
0.576411
0.573577
0.570896
0.568358
0.565956
0.563706
0.603475
0.600845
0.597671
0.594197
0.590597
0.586987
0.58344
0.579999
0.57669
0.573525
0.570507
0.567635
0.564906
0.562315
0.559854
0.557519
0.555302
0.5532
0.586212
0.584046
0.58138
0.578418
0.575311
0.572163
0.569042
0.565993
0.56304
0.560199
0.557476
0.554874
0.552391
0.550024
0.547769
0.545623
0.54358
0.541635
0.567591
0.565804
0.563563
0.561037
0.558358
0.555617
0.552878
0.550181
0.547554
0.545011
0.542562
0.54021
0.537956
0.535799
0.533737
0.531768
0.529887
0.528092
0.545201
0.543733
0.541856
0.539712
0.537412
0.535036
0.532642
0.530267
0.527938
0.525668
0.523469
0.521346
0.519301
0.517334
0.515446
0.513634
0.511897
0.510233
0.509466
0.508248
0.506657
0.504813
0.502807
0.500709
0.49857
0.496425
0.494299
0.492207
0.49016
0.488165
0.486227
0.484347
0.482527
0.480767
0.479067
0.477426
0.199636
0.228786
0.242063
0.249612
0.254457
0.2578
0.260209
0.26199
0.263316
0.264298
0.265005
0.265487
0.265778
0.265903
0.265881
0.265726
0.265451
0.265064
0.264574
0.263987
0.263308
0.262543
0.261695
0.260769
0.259767
0.258693
0.25755
0.256339
0.255064
0.253726
0.252328
0.250871
0.249358
0.247791
0.24617
0.244498
0.242776
0.241006
0.239188
0.237326
0.235419
0.23347
0.231479
0.229448
0.227377
0.225269
0.223124
0.220942
0.218726
0.216475
0.214191
0.211875
0.209526
0.207147
0.204736
0.202295
0.199823
0.197322
0.194791
0.192229
0.189638
0.187015
0.184362
0.181677
0.178959
0.176208
0.173422
0.170599
0.167738
0.164837
0.161893
0.158904
0.155867
0.152779
0.149636
0.146435
0.143171
0.13984
0.136437
0.132958
0.129399
0.125754
0.122021
0.118196
0.114279
0.11027
0.106172
0.101992
0.0977404
0.0934337
0.0890937
0.0847485
0.0804335
0.0761905
0.0720676
0.0681171
0.0643941
0.0609529
0.0578443
0.0551119
0.0527885
0.0508937
0.0494307
0.0483832
0.0477099
0.0473343
0.0471255
0.0468639
0.0461859
0.0445089
0.0409696
0.0345056
0.024436
0.0121423
0.0030994
0.00111503
0.0011
0.0011
0.0011
0.0011
0.0011
0.0011
0.0011
0.0011
0.0011
0.0011
0.0011
0.0011
0.0011
0.0011
0.0011
0.0011
0.0011
0.0011
0.0011
0.0011
0.0011
0.0011
0.0011
0.0011
0.0011
0.0011
0.0011
0.0011
0.0011
0.0011
0.0011
0.0011
0.0011
0.0011
0.0011
0.0011
0.0011
0.0011
0.0011
0.0011
0.0011
0.0011
0.0011
0.0011
0.0011
0.0011
0.0011
0.0011
0.0011
0.0011
0.0011
0.0011
0.0011
0.0011
0.0011
0.0011
0.0011
0.0011
0.0011
0.0011
0.0011
0.0011
0.0011
0.0011
0.406547
0.40834
0.409862
0.411145
0.412222
0.413124
0.413875
0.414497
0.415008
0.415425
0.415759
0.416021
0.41622
0.416363
0.416457
0.416505
0.416512
0.416482
0.416419
0.416324
0.416201
0.416051
0.415876
0.415679
0.415461
0.415223
0.414967
0.414694
0.414405
0.414101
0.413784
0.413455
0.413114
0.412763
0.412401
0.412031
0.411653
0.411267
0.410875
0.410476
0.410072
0.409662
0.409248
0.40883
0.408407
0.407982
0.407552
0.40712
0.406684
0.406246
0.405805
0.405361
0.404913
0.404463
0.404009
0.403552
0.403091
0.402625
0.402155
0.401679
0.401198
0.400709
0.400214
0.39971
0.399197
0.398673
0.398138
0.39759
0.397027
0.396448
0.395851
0.395234
0.394593
0.393928
0.393234
0.392508
0.391747
0.390946
0.3901
0.389205
0.388253
0.38724
0.386156
0.384995
0.383747
0.382404
0.380954
0.379388
0.377694
0.375864
0.373888
0.371758
0.369472
0.367029
0.364438
0.361715
0.358886
0.355991
0.353085
0.350237
0.347527
0.34505
0.342901
0.341172
0.33994
0.339246
0.339074
0.339318
0.339726
0.339811
0.338689
0.334738
0.324768
0.301659
0.248713
0.15164
0.0521264
0.0032378
0.0011
0.0011
0.0011
0.0011
0.0011
0.0011
0.0011
0.0011
0.0011
0.0011
0.0011
0.0011
0.0011
0.0011
0.0011
0.0011
0.0011
0.0011
0.0011
0.0011
0.0011
0.0011
0.0011
0.0011
0.0011
0.0011
0.0011
0.0011
0.0011
0.0011
0.0011
0.0011
0.0011
0.0011
0.0011
0.0011
0.0011
0.0011
0.0011
0.0011
0.0011
0.0011
0.0011
0.0011
0.0011
0.0011
0.0011
0.0011
0.0011
0.0011
0.0011
0.0011
0.0011
0.0011
0.0011
0.0011
0.0011
0.0011
0.0011
0.0011
0.0011
0.0011
0.445835
0.44624
0.446622
0.446975
0.447298
0.447591
0.447852
0.448081
0.44828
0.448447
0.448585
0.448695
0.448776
0.448831
0.44886
0.448864
0.448844
0.448801
0.448737
0.448651
0.448545
0.44842
0.448277
0.448116
0.447939
0.447745
0.447537
0.447314
0.447078
0.446829
0.446568
0.446295
0.446012
0.445718
0.445415
0.445103
0.444783
0.444455
0.444119
0.443777
0.443428
0.443073
0.442713
0.442348
0.441978
0.441604
0.441225
0.440843
0.440457
0.440068
0.439676
0.439281
0.438884
0.438484
0.438082
0.437678
0.437272
0.436864
0.436455
0.436044
0.435631
0.435217
0.434802
0.434385
0.433967
0.433547
0.433126
0.432704
0.432281
0.431856
0.43143
0.431002
0.430572
0.430141
0.429708
0.429273
0.428835
0.428395
0.427952
0.427506
0.427057
0.426603
0.426146
0.425685
0.425219
0.424749
0.424275
0.423796
0.423313
0.422828
0.42234
0.421852
0.421366
0.420884
0.42041
0.419946
0.419498
0.419068
0.418662
0.418284
0.417937
0.417623
0.417344
0.417096
0.416873
0.416664
0.416446
0.416188
0.415838
0.415323
0.414529
0.413287
0.411316
0.408085
0.402335
0.390277
0.358441
0.243909
0.0378168
0.0011079
0.0011
0.0011
0.0011
0.0011
0.0011
0.0011
0.0011
0.0011
0.0011
0.0011
0.0011
0.0011
0.0011
0.0011
0.0011
0.0011
0.0011
0.0011
0.0011
0.0011
0.0011
0.0011
0.0011
0.0011
0.0011
0.0011
0.0011
0.0011
0.0011
0.0011
0.0011
0.0011
0.0011
0.0011
0.0011
0.0011
0.0011
0.0011
0.0011
0.0011
0.0011
0.0011
0.0011
0.0011
0.0011
0.0011
0.0011
0.0011
0.0011
0.0011
0.0011
0.0011
0.0011
0.0011
0.0011
0.0011
0.0011
0.0011
0.0011
0.0011
0.462971
0.46328
0.463572
0.463846
0.464099
0.464331
0.464542
0.464729
0.464894
0.465035
0.465153
0.465248
0.465319
0.465366
0.465391
0.465394
0.465374
0.465333
0.465271
0.465189
0.465087
0.464965
0.464826
0.464668
0.464494
0.464304
0.464098
0.463877
0.463642
0.463393
0.463132
0.462859
0.462574
0.462278
0.461972
0.461656
0.461331
0.460997
0.460655
0.460306
0.459949
0.459585
0.459215
0.458839
0.458457
0.45807
0.457677
0.45728
0.456878
0.456472
0.456062
0.455648
0.45523
0.454809
0.454385
0.453957
0.453526
0.453093
0.452657
0.452218
0.451777
0.451333
0.450888
0.45044
0.44999
0.449538
0.449085
0.44863
0.448173
0.447715
0.447255
0.446793
0.446331
0.445867
0.445402
0.444935
0.444468
0.443999
0.443529
0.443059
0.442587
0.442114
0.44164
0.441166
0.44069
0.440214
0.439737
0.439261
0.438784
0.438307
0.437832
0.437357
0.436884
0.436414
0.435946
0.435482
0.435022
0.434565
0.434112
0.433662
0.433213
0.432762
0.432306
0.43184
0.431355
0.430841
0.430283
0.429662
0.42895
0.42811
0.427089
0.425807
0.424145
0.421898
0.418674
0.413658
0.405064
0.387822
0.332249
0.10859
0.00127482
0.0011
0.0011
0.0011
0.0011
0.0011
0.0011
0.0011
0.0011
0.0011
0.0011
0.0011
0.0011
0.0011
0.0011
0.0011
0.0011
0.0011
0.0011
0.0011
0.0011
0.0011
0.0011
0.0011
0.0011
0.0011
0.0011
0.0011
0.0011
0.0011
0.0011
0.0011
0.0011
0.0011
0.0011
0.0011
0.0011
0.0011
0.0011
0.0011
0.0011
0.0011
0.0011
0.0011
0.0011
0.0011
0.0011
0.0011
0.0011
0.0011
0.0011
0.0011
0.0011
0.0011
0.0011
0.0011
0.0011
0.0011
0.0011
0.0011
0.474721
0.475085
0.475428
0.475748
0.476044
0.476316
0.476563
0.476784
0.476979
0.477148
0.47729
0.477405
0.477493
0.477556
0.477592
0.477602
0.477587
0.477548
0.477485
0.477398
0.477289
0.477157
0.477005
0.476833
0.476641
0.47643
0.476202
0.475957
0.475696
0.475419
0.475128
0.474823
0.474505
0.474174
0.473832
0.473479
0.473115
0.472742
0.472359
0.471968
0.471568
0.471161
0.470747
0.470325
0.469897
0.469463
0.469023
0.468577
0.468126
0.46767
0.46721
0.466745
0.466275
0.465802
0.465324
0.464843
0.464358
0.46387
0.463378
0.462883
0.462385
0.461884
0.46138
0.460873
0.460363
0.459851
0.459336
0.458819
0.458299
0.457777
0.457253
0.456726
0.456198
0.455667
0.455134
0.454599
0.454063
0.453524
0.452983
0.452441
0.451897
0.451351
0.450803
0.450254
0.449703
0.44915
0.448596
0.44804
0.447483
0.446924
0.446364
0.445803
0.445241
0.444677
0.444112
0.443545
0.442976
0.442404
0.441829
0.441247
0.440659
0.44006
0.439448
0.438817
0.438161
0.437472
0.436739
0.435948
0.435081
0.434112
0.433006
0.431716
0.430168
0.428249
0.425769
0.422391
0.417489
0.409654
0.394443
0.350985
0.138303
0.0014868
0.0011
0.0011
0.0011
0.0011
0.0011
0.0011
0.0011
0.0011
0.0011
0.0011
0.0011
0.0011
0.0011
0.0011
0.0011
0.0011
0.0011
0.0011
0.0011
0.0011
0.0011
0.0011
0.0011
0.0011
0.0011
0.0011
0.0011
0.0011
0.0011
0.0011
0.0011
0.0011
0.0011
0.0011
0.0011
0.0011
0.0011
0.0011
0.0011
0.0011
0.0011
0.0011
0.0011
0.0011
0.0011
0.0011
0.0011
0.0011
0.0011
0.0011
0.0011
0.0011
0.0011
0.0011
0.0011
0.0011
0.0011
0.0011
0.48439
0.484837
0.485257
0.48565
0.486013
0.486347
0.48665
0.486921
0.487161
0.487369
0.487545
0.487689
0.4878
0.487881
0.48793
0.487949
0.487938
0.487897
0.487828
0.487732
0.487609
0.48746
0.487287
0.48709
0.48687
0.486628
0.486366
0.486084
0.485784
0.485466
0.48513
0.484779
0.484413
0.484033
0.483639
0.483233
0.482814
0.482385
0.481945
0.481495
0.481035
0.480567
0.480091
0.479606
0.479115
0.478616
0.478111
0.4776
0.477083
0.47656
0.476032
0.475499
0.474962
0.47442
0.473873
0.473323
0.472768
0.47221
0.471648
0.471082
0.470513
0.469941
0.469365
0.468787
0.468205
0.467621
0.467034
0.466444
0.465851
0.465255
0.464658
0.464057
0.463454
0.462848
0.46224
0.46163
0.461017
0.460402
0.459785
0.459165
0.458543
0.457918
0.457292
0.456663
0.456031
0.455397
0.454761
0.454122
0.453481
0.452837
0.452191
0.451542
0.45089
0.450235
0.449576
0.448913
0.448246
0.447573
0.446893
0.446205
0.445506
0.444795
0.444068
0.443321
0.442548
0.441744
0.440898
0.440002
0.43904
0.437993
0.436837
0.435536
0.434042
0.432281
0.430139
0.427432
0.423843
0.418746
0.410637
0.394988
0.348628
0.118158
0.0012604
0.0011
0.0011
0.0011
0.0011
0.0011
0.0011
0.0011
0.0011
0.0011
0.0011
0.0011
0.0011
0.0011
0.0011
0.0011
0.0011
0.0011
0.0011
0.0011
0.0011
0.0011
0.0011
0.0011
0.0011
0.0011
0.0011
0.0011
0.0011
0.0011
0.0011
0.0011
0.0011
0.0011
0.0011
0.0011
0.0011
0.0011
0.0011
0.0011
0.0011
0.0011
0.0011
0.0011
0.0011
0.0011
0.0011
0.0011
0.0011
0.0011
0.0011
0.0011
0.0011
0.0011
0.0011
0.0011
0.0011
0.0011
0.492874
0.493417
0.493927
0.494403
0.494843
0.495247
0.495613
0.495942
0.496232
0.496483
0.496696
0.49687
0.497006
0.497104
0.497165
0.497189
0.497179
0.497133
0.497055
0.496944
0.496802
0.49663
0.496429
0.4962
0.495946
0.495666
0.495363
0.495037
0.494689
0.494321
0.493934
0.493529
0.493107
0.492668
0.492215
0.491747
0.491266
0.490772
0.490266
0.489749
0.489221
0.488684
0.488137
0.487582
0.487019
0.486448
0.48587
0.485285
0.484694
0.484097
0.483494
0.482886
0.482273
0.481655
0.481032
0.480406
0.479775
0.47914
0.478502
0.47786
0.477214
0.476566
0.475914
0.475259
0.474602
0.473941
0.473278
0.472612
0.471943
0.471272
0.470598
0.469922
0.469244
0.468563
0.46788
0.467194
0.466506
0.465816
0.465123
0.464428
0.463731
0.463031
0.462328
0.461624
0.460916
0.460206
0.459494
0.458778
0.45806
0.457339
0.456615
0.455887
0.455155
0.45442
0.45368
0.452934
0.452184
0.451426
0.450661
0.449886
0.4491
0.4483
0.447485
0.446649
0.445789
0.444899
0.443972
0.442999
0.441969
0.440867
0.439673
0.438361
0.436895
0.435222
0.433267
0.430911
0.427961
0.424069
0.418512
0.409543
0.39144
0.330114
0.0668637
0.00111049
0.0011
0.0011
0.0011
0.0011
0.0011
0.0011
0.0011
0.0011
0.0011
0.0011
0.0011
0.0011
0.0011
0.0011
0.0011
0.0011
0.0011
0.0011
0.0011
0.0011
0.0011
0.0011
0.0011
0.0011
0.0011
0.0011
0.0011
0.0011
0.0011
0.0011
0.0011
0.0011
0.0011
0.0011
0.0011
0.0011
0.0011
0.0011
0.0011
0.0011
0.0011
0.0011
0.0011
0.0011
0.0011
0.0011
0.0011
0.0011
0.0011
0.0011
0.0011
0.0011
0.0011
0.0011
0.0011
0.0011
0.500528
0.501177
0.501787
0.502356
0.502882
0.503364
0.5038
0.50419
0.504534
0.504831
0.505081
0.505286
0.505444
0.505558
0.505629
0.505656
0.505642
0.505587
0.505494
0.505363
0.505196
0.504994
0.50476
0.504494
0.504198
0.503874
0.503523
0.503146
0.502745
0.502322
0.501876
0.501411
0.500927
0.500424
0.499905
0.49937
0.49882
0.498257
0.49768
0.497091
0.496491
0.49588
0.495259
0.494629
0.49399
0.493343
0.492688
0.492026
0.491358
0.490683
0.490003
0.489316
0.488625
0.487929
0.487229
0.486524
0.485815
0.485103
0.484387
0.483667
0.482945
0.482219
0.48149
0.480759
0.480025
0.479289
0.47855
0.477809
0.477066
0.47632
0.475573
0.474823
0.474071
0.473317
0.472562
0.471804
0.471044
0.470282
0.469518
0.468752
0.467984
0.467214
0.466442
0.465667
0.46489
0.464111
0.463329
0.462544
0.461757
0.460966
0.460173
0.459375
0.458574
0.457769
0.456958
0.456143
0.455321
0.454492
0.453656
0.452809
0.451952
0.451081
0.450194
0.449288
0.448359
0.447402
0.446412
0.44538
0.444298
0.443153
0.441929
0.440605
0.439154
0.437536
0.435695
0.433549
0.430967
0.427725
0.423407
0.417124
0.406568
0.383289
0.282924
0.0202298
0.00110005
0.0011
0.0011
0.0011
0.0011
0.0011
0.0011
0.0011
0.0011
0.0011
0.0011
0.0011
0.0011
0.0011
0.0011
0.0011
0.0011
0.0011
0.0011
0.0011
0.0011
0.0011
0.0011
0.0011
0.0011
0.0011
0.0011
0.0011
0.0011
0.0011
0.0011
0.0011
0.0011
0.0011
0.0011
0.0011
0.0011
0.0011
0.0011
0.0011
0.0011
0.0011
0.0011
0.0011
0.0011
0.0011
0.0011
0.0011
0.0011
0.0011
0.0011
0.0011
0.0011
0.0011
0.0011
0.0011
0.507542
0.508311
0.509033
0.509705
0.510325
0.510891
0.511403
0.511859
0.51226
0.512605
0.512894
0.513128
0.513308
0.513436
0.513512
0.513538
0.513515
0.513446
0.513332
0.513175
0.512977
0.51274
0.512465
0.512155
0.511812
0.511436
0.511031
0.510597
0.510137
0.509651
0.509142
0.508611
0.508059
0.507487
0.506898
0.506291
0.505668
0.505031
0.50438
0.503715
0.503039
0.502352
0.501654
0.500946
0.500229
0.499504
0.498771
0.498031
0.497285
0.496531
0.495773
0.495008
0.494239
0.493465
0.492687
0.491905
0.491119
0.49033
0.489537
0.488742
0.487943
0.487143
0.486339
0.485534
0.484726
0.483917
0.483105
0.482292
0.481477
0.48066
0.479842
0.479022
0.478201
0.477378
0.476554
0.475728
0.474901
0.474073
0.473243
0.472411
0.471578
0.470743
0.469906
0.469068
0.468228
0.467385
0.466541
0.465694
0.464845
0.463992
0.463137
0.462279
0.461416
0.46055
0.459679
0.458802
0.45792
0.457031
0.456134
0.455227
0.454309
0.453379
0.452434
0.45147
0.450485
0.449475
0.448433
0.447354
0.44623
0.44505
0.443801
0.442467
0.441024
0.439442
0.437677
0.435668
0.433319
0.430475
0.426864
0.421956
0.41456
0.401283
0.367127
0.183027
0.00258777
0.0011
0.0011
0.0011
0.0011
0.0011
0.0011
0.0011
0.0011
0.0011
0.0011
0.0011
0.0011
0.0011
0.0011
0.0011
0.0011
0.0011
0.0011
0.0011
0.0011
0.0011
0.0011
0.0011
0.0011
0.0011
0.0011
0.0011
0.0011
0.0011
0.0011
0.0011
0.0011
0.0011
0.0011
0.0011
0.0011
0.0011
0.0011
0.0011
0.0011
0.0011
0.0011
0.0011
0.0011
0.0011
0.0011
0.0011
0.0011
0.0011
0.0011
0.0011
0.0011
0.0011
0.0011
0.0011
0.514038
0.514941
0.515788
0.516574
0.517298
0.517958
0.518551
0.519079
0.519539
0.519933
0.520261
0.520524
0.520723
0.520861
0.520939
0.520959
0.520923
0.520833
0.520692
0.520503
0.520267
0.519987
0.519665
0.519304
0.518905
0.518472
0.518006
0.517508
0.516982
0.516428
0.51585
0.515247
0.514622
0.513977
0.513312
0.512629
0.51193
0.511215
0.510486
0.509744
0.508989
0.508223
0.507446
0.506659
0.505864
0.50506
0.504249
0.50343
0.502605
0.501774
0.500938
0.500096
0.49925
0.4984
0.497546
0.496688
0.495828
0.494964
0.494098
0.493229
0.492358
0.491485
0.49061
0.489734
0.488856
0.487977
0.487096
0.486215
0.485332
0.484449
0.483564
0.482679
0.481793
0.480906
0.480018
0.47913
0.47824
0.47735
0.476459
0.475567
0.474674
0.47378
0.472885
0.471989
0.471091
0.470192
0.469291
0.468388
0.467483
0.466576
0.465666
0.464753
0.463837
0.462917
0.461993
0.461064
0.460129
0.459188
0.458239
0.457281
0.456312
0.455332
0.454337
0.453326
0.452294
0.451239
0.450155
0.449038
0.447879
0.446671
0.445401
0.444057
0.442618
0.44106
0.439349
0.437434
0.435244
0.432663
0.4295
0.425403
0.419658
0.410518
0.39228
0.330285
0.0632879
0.00110866
0.0011
0.0011
0.0011
0.0011
0.0011
0.0011
0.0011
0.0011
0.0011
0.0011
0.0011
0.0011
0.0011
0.0011
0.0011
0.0011
0.0011
0.0011
0.0011
0.0011
0.0011
0.0011
0.0011
0.0011
0.0011
0.0011
0.0011
0.0011
0.0011
0.0011
0.0011
0.0011
0.0011
0.0011
0.0011
0.0011
0.0011
0.0011
0.0011
0.0011
0.0011
0.0011
0.0011
0.0011
0.0011
0.0011
0.0011
0.0011
0.0011
0.0011
0.0011
0.0011
0.0011
0.0011
0.520099
0.521152
0.522137
0.523051
0.52389
0.524652
0.525334
0.525938
0.526461
0.526906
0.527273
0.527563
0.527779
0.527924
0.527998
0.528006
0.527951
0.527834
0.527659
0.52743
0.527148
0.526818
0.526441
0.526021
0.525561
0.525062
0.524528
0.52396
0.523362
0.522734
0.52208
0.5214
0.520698
0.519973
0.519229
0.518467
0.517688
0.516893
0.516083
0.51526
0.514425
0.513579
0.512722
0.511856
0.510981
0.510099
0.509209
0.508313
0.50741
0.506503
0.50559
0.504674
0.503753
0.502828
0.501901
0.500971
0.500038
0.499103
0.498166
0.497228
0.496288
0.495347
0.494405
0.493462
0.492518
0.491573
0.490629
0.489683
0.488738
0.487792
0.486846
0.4859
0.484954
0.484007
0.483061
0.482115
0.481168
0.480221
0.479275
0.478328
0.47738
0.476432
0.475484
0.474535
0.473586
0.472635
0.471683
0.47073
0.469776
0.46882
0.467861
0.4669
0.465936
0.464969
0.463998
0.463023
0.462042
0.461055
0.460062
0.459059
0.458047
0.457024
0.455987
0.454935
0.453864
0.452771
0.451652
0.450502
0.449315
0.448083
0.446796
0.445442
0.444005
0.442465
0.440792
0.438946
0.436869
0.434473
0.431613
0.428041
0.42328
0.416289
0.404231
0.375645
0.231735
0.00673217
0.0011
0.0011
0.0011
0.0011
0.0011
0.0011
0.0011
0.0011
0.0011
0.0011
0.0011
0.0011
0.0011
0.0011
0.0011
0.0011
0.0011
0.0011
0.0011
0.0011
0.0011
0.0011
0.0011
0.0011
0.0011
0.0011
0.0011
0.0011
0.0011
0.0011
0.0011
0.0011
0.0011
0.0011
0.0011
0.0011
0.0011
0.0011
0.0011
0.0011
0.0011
0.0011
0.0011
0.0011
0.0011
0.0011
0.0011
0.0011
0.0011
0.0011
0.0011
0.0011
0.0011
0.0011
0.52578
0.527002
0.528143
0.529199
0.530165
0.531039
0.531819
0.532504
0.533094
0.533591
0.533997
0.534313
0.534542
0.534688
0.534754
0.534744
0.534662
0.53451
0.534294
0.534016
0.533681
0.533292
0.532853
0.532366
0.531835
0.531264
0.530654
0.53001
0.529332
0.528625
0.527889
0.527128
0.526342
0.525535
0.524708
0.523863
0.523001
0.522123
0.521231
0.520326
0.519409
0.518482
0.517545
0.516599
0.515646
0.514685
0.513718
0.512745
0.511767
0.510785
0.509799
0.508809
0.507816
0.506821
0.505823
0.504823
0.503822
0.50282
0.501816
0.500812
0.499807
0.498802
0.497797
0.496792
0.495786
0.494781
0.493777
0.492772
0.491768
0.490765
0.489763
0.488761
0.487759
0.486759
0.485759
0.484759
0.483761
0.482762
0.481765
0.480768
0.479771
0.478774
0.477778
0.476781
0.475785
0.474788
0.47379
0.472792
0.471793
0.470793
0.469791
0.468787
0.467781
0.466772
0.46576
0.464744
0.463723
0.462696
0.461663
0.460622
0.459572
0.458512
0.457439
0.456352
0.455247
0.454122
0.452973
0.451796
0.450584
0.449332
0.44803
0.446668
0.445231
0.443703
0.442059
0.440265
0.438272
0.43601
0.433367
0.430155
0.426035
0.420319
0.411351
0.393839
0.337217
0.0775157
0.0011229
0.0011
0.0011
0.0011
0.0011
0.0011
0.0011
0.0011
0.0011
0.0011
0.0011
0.0011
0.0011
0.0011
0.0011
0.0011
0.0011
0.0011
0.0011
0.0011
0.0011
0.0011
0.0011
0.0011
0.0011
0.0011
0.0011
0.0011
0.0011
0.0011
0.0011
0.0011
0.0011
0.0011
0.0011
0.0011
0.0011
0.0011
0.0011
0.0011
0.0011
0.0011
0.0011
0.0011
0.0011
0.0011
0.0011
0.0011
0.0011
0.0011
0.0011
0.0011
0.0011
0.0011
0.531122
0.532533
0.53385
0.535065
0.536173
0.537171
0.538057
0.53883
0.539491
0.540041
0.540484
0.540823
0.541062
0.541204
0.541255
0.54122
0.541102
0.540907
0.54064
0.540305
0.539907
0.539451
0.538939
0.538377
0.537769
0.537117
0.536424
0.535696
0.534933
0.534139
0.533317
0.532469
0.531597
0.530704
0.52979
0.528859
0.527911
0.526949
0.525973
0.524985
0.523986
0.522978
0.521961
0.520937
0.519905
0.518868
0.517825
0.516778
0.515727
0.514672
0.513615
0.512555
0.511493
0.51043
0.509366
0.508301
0.507235
0.506169
0.505103
0.504037
0.502972
0.501907
0.500843
0.49978
0.498718
0.497657
0.496597
0.495539
0.494481
0.493426
0.492371
0.491318
0.490266
0.489216
0.488167
0.48712
0.486074
0.485029
0.483985
0.482942
0.481901
0.48086
0.47982
0.478781
0.477742
0.476703
0.475665
0.474626
0.473587
0.472547
0.471506
0.470464
0.46942
0.468374
0.467325
0.466272
0.465215
0.464153
0.463086
0.462011
0.460928
0.459835
0.458731
0.457613
0.45648
0.455327
0.454152
0.452951
0.451719
0.450449
0.449134
0.447764
0.446328
0.444809
0.443186
0.441431
0.439503
0.437343
0.43486
0.431908
0.428231
0.423341
0.416164
0.403758
0.37406
0.223173
0.00579744
0.0011
0.0011
0.0011
0.0011
0.0011
0.0011
0.0011
0.0011
0.0011
0.0011
0.0011
0.0011
0.0011
0.0011
0.0011
0.0011
0.0011
0.0011
0.0011
0.0011
0.0011
0.0011
0.0011
0.0011
0.0011
0.0011
0.0011
0.0011
0.0011
0.0011
0.0011
0.0011
0.0011
0.0011
0.0011
0.0011
0.0011
0.0011
0.0011
0.0011
0.0011
0.0011
0.0011
0.0011
0.0011
0.0011
0.0011
0.0011
0.0011
0.0011
0.0011
0.0011
0.0011
0.536149
0.537776
0.539291
0.540685
0.541951
0.543087
0.544089
0.544957
0.545692
0.546298
0.546778
0.547136
0.547379
0.547511
0.547538
0.547468
0.547306
0.547057
0.546729
0.546327
0.545856
0.545322
0.544729
0.544082
0.543387
0.542646
0.541864
0.541044
0.54019
0.539305
0.538391
0.537452
0.536489
0.535506
0.534504
0.533484
0.53245
0.531402
0.530342
0.529271
0.528191
0.527102
0.526007
0.524904
0.523797
0.522685
0.521569
0.52045
0.519329
0.518205
0.51708
0.515953
0.514827
0.513699
0.512572
0.511446
0.510319
0.509194
0.50807
0.506947
0.505826
0.504706
0.503588
0.502472
0.501357
0.500245
0.499135
0.498027
0.496921
0.495817
0.494715
0.493616
0.492518
0.491423
0.49033
0.489239
0.48815
0.487063
0.485977
0.484894
0.483812
0.482731
0.481652
0.480574
0.479497
0.478421
0.477345
0.47627
0.475195
0.474119
0.473044
0.471967
0.470889
0.469809
0.468727
0.467642
0.466553
0.46546
0.464362
0.463257
0.462144
0.461023
0.459891
0.458747
0.457587
0.456411
0.455213
0.453992
0.452741
0.451456
0.45013
0.448753
0.447316
0.445804
0.444199
0.442475
0.440597
0.438516
0.436155
0.433397
0.43004
0.42572
0.419684
0.410086
0.390785
0.323163
0.0559191
0.00110498
0.0011
0.0011
0.0011
0.0011
0.0011
0.0011
0.0011
0.0011
0.0011
0.0011
0.0011
0.0011
0.0011
0.0011
0.0011
0.0011
0.0011
0.0011
0.0011
0.0011
0.0011
0.0011
0.0011
0.0011
0.0011
0.0011
0.0011
0.0011
0.0011
0.0011
0.0011
0.0011
0.0011
0.0011
0.0011
0.0011
0.0011
0.0011
0.0011
0.0011
0.0011
0.0011
0.0011
0.0011
0.0011
0.0011
0.0011
0.0011
0.0011
0.0011
0.0011
0.0011
0.540878
0.542749
0.544489
0.546086
0.547532
0.548821
0.549951
0.550922
0.551737
0.552398
0.552912
0.553285
0.553524
0.553637
0.553631
0.553515
0.553296
0.552983
0.552581
0.5521
0.551544
0.550921
0.550237
0.549496
0.548705
0.547867
0.546987
0.54607
0.545119
0.544137
0.543127
0.542093
0.541037
0.539962
0.538869
0.537761
0.536639
0.535505
0.534361
0.533208
0.532048
0.530881
0.529708
0.528531
0.52735
0.526167
0.524981
0.523793
0.522605
0.521415
0.520226
0.519037
0.517849
0.516662
0.515477
0.514293
0.513111
0.511931
0.510753
0.509577
0.508404
0.507234
0.506067
0.504902
0.50374
0.502581
0.501425
0.500272
0.499121
0.497974
0.49683
0.495688
0.49455
0.493414
0.492281
0.49115
0.490023
0.488897
0.487774
0.486654
0.485535
0.484419
0.483304
0.482191
0.48108
0.47997
0.478861
0.477753
0.476645
0.475538
0.474431
0.473323
0.472215
0.471105
0.469993
0.468879
0.467761
0.46664
0.465514
0.464382
0.463244
0.462097
0.46094
0.459772
0.45859
0.457392
0.456175
0.454935
0.453668
0.45237
0.451033
0.449651
0.448212
0.446706
0.445114
0.443415
0.441578
0.439559
0.437295
0.434686
0.431569
0.42766
0.422401
0.414529
0.400411
0.363481
0.167806
0.00214888
0.0011
0.0011
0.0011
0.0011
0.0011
0.0011
0.0011
0.0011
0.0011
0.0011
0.0011
0.0011
0.0011
0.0011
0.0011
0.0011
0.0011
0.0011
0.0011
0.0011
0.0011
0.0011
0.0011
0.0011
0.0011
0.0011
0.0011
0.0011
0.0011
0.0011
0.0011
0.0011
0.0011
0.0011
0.0011
0.0011
0.0011
0.0011
0.0011
0.0011
0.0011
0.0011
0.0011
0.0011
0.0011
0.0011
0.0011
0.0011
0.0011
0.0011
0.0011
0.0011
0.545315
0.547467
0.549465
0.551294
0.552943
0.554405
0.555678
0.556761
0.557658
0.558375
0.558919
0.559299
0.559524
0.559606
0.559554
0.559378
0.559089
0.558695
0.558207
0.557632
0.556979
0.556256
0.555468
0.554623
0.553727
0.552784
0.5518
0.550779
0.549725
0.548642
0.547534
0.546402
0.545251
0.544082
0.542898
0.541701
0.540493
0.539275
0.538049
0.536816
0.535577
0.534334
0.533088
0.531839
0.530588
0.529336
0.528084
0.526832
0.52558
0.52433
0.523081
0.521834
0.520589
0.519347
0.518107
0.516871
0.515637
0.514407
0.51318
0.511956
0.510736
0.50952
0.508308
0.507099
0.505894
0.504692
0.503495
0.502301
0.501111
0.499924
0.498741
0.497562
0.496386
0.495214
0.494045
0.49288
0.491717
0.490557
0.489401
0.488247
0.487096
0.485947
0.484801
0.483657
0.482515
0.481374
0.480235
0.479098
0.477961
0.476825
0.475689
0.474554
0.473417
0.47228
0.471142
0.470001
0.468858
0.467711
0.466561
0.465405
0.464242
0.463072
0.461893
0.460704
0.459501
0.458284
0.457049
0.455793
0.454512
0.453201
0.451855
0.450467
0.449027
0.447524
0.445944
0.444265
0.442461
0.440493
0.438307
0.435816
0.432887
0.429287
0.424584
0.417857
0.406721
0.382419
0.278746
0.0205635
0.00110005
0.0011
0.0011
0.0011
0.0011
0.0011
0.0011
0.0011
0.0011
0.0011
0.0011
0.0011
0.0011
0.0011
0.0011
0.0011
0.0011
0.0011
0.0011
0.0011
0.0011
0.0011
0.0011
0.0011
0.0011
0.0011
0.0011
0.0011
0.0011
0.0011
0.0011
0.0011
0.0011
0.0011
0.0011
0.0011
0.0011
0.0011
0.0011
0.0011
0.0011
0.0011
0.0011
0.0011
0.0011
0.0011
0.0011
0.0011
0.0011
0.0011
0.0011
0.0011
0.549693
0.552189
0.554505
0.556619
0.558516
0.560188
0.561629
0.562842
0.56383
0.564604
0.565172
0.565548
0.565745
0.565777
0.565657
0.5654
0.565016
0.56452
0.563921
0.563231
0.56246
0.561615
0.560706
0.55974
0.558723
0.55766
0.556559
0.555422
0.554256
0.553063
0.551847
0.550611
0.549358
0.548091
0.546812
0.545522
0.544224
0.542919
0.541608
0.540294
0.538976
0.537657
0.536336
0.535015
0.533695
0.532375
0.531057
0.529742
0.528428
0.527118
0.525811
0.524507
0.523207
0.521911
0.520619
0.519332
0.518049
0.51677
0.515496
0.514226