/*--------------------------------*- C++ -*----------------------------------*\
  =========                 |
  \\      /  F ield         | OpenFOAM: The Open Source CFD Toolbox
   \\    /   O peration     | Website:  https://openfoam.org
    \\  /    A nd           | Version:  10
     \\/     M anipulation  |
\*---------------------------------------------------------------------------*/
FoamFile
{
    format      ascii;
    class       volScalarField;
    location    "2700";
    object      p;
}
// * * * * * * * * * * * * * * * * * * * * * * * * * * * * * * * * * * * * * //

dimensions      [1 -1 -2 0 0 0 0];

internalField   nonuniform List<scalar> 
6400
(
106.778
106.78
106.783
106.789
106.797
106.806
106.817
106.829
106.843
106.859
106.876
106.894
106.914
106.935
106.956
106.978
107.001
107.024
107.048
107.071
107.095
107.118
107.14
107.162
107.183
107.203
107.222
107.239
107.255
107.269
107.281
107.291
107.297
107.3
107.302
107.305
107.306
107.308
107.309
107.309
107.309
107.309
107.308
107.306
107.305
107.302
107.3
107.297
107.291
107.281
107.269
107.255
107.239
107.222
107.203
107.183
107.162
107.14
107.118
107.095
107.071
107.048
107.024
107.001
106.978
106.956
106.935
106.914
106.894
106.876
106.859
106.843
106.829
106.817
106.806
106.797
106.789
106.783
106.78
106.778
106.484
106.486
106.489
106.495
106.502
106.512
106.523
106.535
106.549
106.565
106.582
106.6
106.62
106.641
106.662
106.684
106.707
106.73
106.754
106.777
106.801
106.824
106.846
106.868
106.889
106.909
106.928
106.945
106.961
106.975
106.987
106.997
107.003
107.006
107.009
107.011
107.013
107.014
107.015
107.015
107.015
107.015
107.014
107.013
107.011
107.009
107.006
107.003
106.997
106.987
106.975
106.961
106.945
106.928
106.909
106.889
106.868
106.846
106.824
106.801
106.777
106.754
106.73
106.707
106.684
106.662
106.641
106.62
106.6
106.582
106.565
106.549
106.535
106.523
106.512
106.502
106.495
106.489
106.486
106.484
106.161
106.163
106.167
106.172
106.18
106.189
106.2
106.213
106.227
106.242
106.26
106.278
106.297
106.318
106.339
106.362
106.384
106.408
106.431
106.455
106.478
106.501
106.524
106.546
106.567
106.587
106.606
106.623
106.639
106.653
106.665
106.675
106.68
106.684
106.686
106.689
106.69
106.692
106.693
106.693
106.693
106.693
106.692
106.69
106.689
106.686
106.684
106.68
106.675
106.665
106.653
106.639
106.623
106.606
106.587
106.567
106.546
106.524
106.501
106.478
106.455
106.431
106.408
106.384
106.362
106.339
106.318
106.297
106.278
106.26
106.242
106.227
106.213
106.2
106.189
106.18
106.172
106.167
106.163
106.161
105.807
105.809
105.813
105.818
105.826
105.835
105.846
105.859
105.873
105.889
105.906
105.924
105.944
105.964
105.986
106.008
106.031
106.054
106.077
106.101
106.125
106.148
106.17
106.192
106.213
106.233
106.252
106.269
106.285
106.299
106.311
106.321
106.327
106.33
106.333
106.335
106.337
106.338
106.339
106.34
106.34
106.339
106.338
106.337
106.335
106.333
106.33
106.327
106.321
106.311
106.299
106.285
106.269
106.252
106.233
106.213
106.192
106.17
106.148
106.125
106.101
106.077
106.054
106.031
106.008
105.986
105.964
105.944
105.924
105.906
105.889
105.873
105.859
105.846
105.835
105.826
105.818
105.813
105.809
105.807
105.419
105.421
105.424
105.43
105.437
105.447
105.458
105.47
105.484
105.5
105.517
105.536
105.555
105.576
105.598
105.62
105.643
105.666
105.69
105.713
105.737
105.76
105.783
105.805
105.826
105.846
105.865
105.882
105.898
105.912
105.924
105.934
105.94
105.943
105.946
105.948
105.95
105.951
105.952
105.952
105.952
105.952
105.951
105.95
105.948
105.946
105.943
105.94
105.934
105.924
105.912
105.898
105.882
105.865
105.846
105.826
105.805
105.783
105.76
105.737
105.713
105.69
105.666
105.643
105.62
105.598
105.576
105.555
105.536
105.517
105.5
105.484
105.47
105.458
105.447
105.437
105.43
105.424
105.421
105.419
104.992
104.994
104.998
105.004
105.011
105.021
105.032
105.044
105.058
105.074
105.091
105.11
105.129
105.15
105.172
105.194
105.217
105.24
105.264
105.288
105.311
105.335
105.357
105.379
105.401
105.421
105.44
105.457
105.473
105.487
105.499
105.509
105.515
105.518
105.521
105.523
105.525
105.526
105.527
105.528
105.528
105.527
105.526
105.525
105.523
105.521
105.518
105.515
105.509
105.499
105.487
105.473
105.457
105.44
105.421
105.401
105.379
105.357
105.335
105.311
105.288
105.264
105.24
105.217
105.194
105.172
105.15
105.129
105.11
105.091
105.074
105.058
105.044
105.032
105.021
105.011
105.004
104.998
104.994
104.992
104.525
104.527
104.53
104.536
104.544
104.553
104.564
104.577
104.591
104.607
104.624
104.643
104.662
104.683
104.705
104.727
104.75
104.774
104.797
104.821
104.845
104.868
104.891
104.913
104.935
104.955
104.974
104.991
105.007
105.021
105.034
105.044
105.05
105.053
105.055
105.058
105.06
105.061
105.062
105.062
105.062
105.062
105.061
105.06
105.058
105.055
105.053
105.05
105.044
105.034
105.021
105.007
104.991
104.974
104.955
104.935
104.913
104.891
104.868
104.845
104.821
104.797
104.774
104.75
104.727
104.705
104.683
104.662
104.643
104.624
104.607
104.591
104.577
104.564
104.553
104.544
104.536
104.53
104.527
104.525
104.012
104.013
104.017
104.023
104.031
104.04
104.051
104.064
104.078
104.094
104.111
104.13
104.15
104.17
104.192
104.215
104.238
104.262
104.285
104.309
104.333
104.357
104.38
104.402
104.423
104.444
104.463
104.481
104.497
104.511
104.523
104.533
104.539
104.542
104.545
104.547
104.549
104.551
104.552
104.552
104.552
104.552
104.551
104.549
104.547
104.545
104.542
104.539
104.533
104.523
104.511
104.497
104.481
104.463
104.444
104.423
104.402
104.38
104.357
104.333
104.309
104.285
104.262
104.238
104.215
104.192
104.17
104.15
104.13
104.111
104.094
104.078
104.064
104.051
104.04
104.031
104.023
104.017
104.013
104.012
103.448
103.45
103.454
103.46
103.467
103.477
103.488
103.501
103.515
103.531
103.549
103.567
103.587
103.608
103.63
103.653
103.676
103.7
103.724
103.748
103.772
103.796
103.819
103.841
103.863
103.884
103.903
103.921
103.937
103.951
103.964
103.974
103.98
103.983
103.986
103.988
103.99
103.991
103.992
103.993
103.993
103.992
103.991
103.99
103.988
103.986
103.983
103.98
103.974
103.964
103.951
103.937
103.921
103.903
103.884
103.863
103.841
103.819
103.796
103.772
103.748
103.724
103.7
103.676
103.653
103.63
103.608
103.587
103.567
103.549
103.531
103.515
103.501
103.488
103.477
103.467
103.46
103.454
103.45
103.448
102.83
102.832
102.836
102.842
102.849
102.859
102.87
102.883
102.898
102.914
102.931
102.95
102.97
102.991
103.013
103.036
103.06
103.084
103.108
103.132
103.157
103.181
103.204
103.227
103.249
103.269
103.289
103.307
103.323
103.338
103.35
103.361
103.367
103.37
103.373
103.375
103.377
103.378
103.379
103.38
103.38
103.379
103.378
103.377
103.375
103.373
103.37
103.367
103.361
103.35
103.338
103.323
103.307
103.289
103.269
103.249
103.227
103.204
103.181
103.157
103.132
103.108
103.084
103.06
103.036
103.013
102.991
102.97
102.95
102.931
102.914
102.898
102.883
102.87
102.859
102.849
102.842
102.836
102.832
102.83
102.152
102.154
102.158
102.164
102.171
102.181
102.192
102.205
102.22
102.236
102.254
102.273
102.293
102.314
102.337
102.36
102.384
102.408
102.432
102.457
102.482
102.506
102.53
102.553
102.575
102.596
102.616
102.634
102.65
102.665
102.678
102.689
102.695
102.698
102.701
102.703
102.705
102.707
102.708
102.708
102.708
102.708
102.707
102.705
102.703
102.701
102.698
102.695
102.689
102.678
102.665
102.65
102.634
102.616
102.596
102.575
102.553
102.53
102.506
102.482
102.457
102.432
102.408
102.384
102.36
102.337
102.314
102.293
102.273
102.254
102.236
102.22
102.205
102.192
102.181
102.171
102.164
102.158
102.154
102.152
101.407
101.409
101.413
101.419
101.427
101.436
101.448
101.461
101.476
101.492
101.51
101.53
101.55
101.572
101.594
101.618
101.642
101.667
101.691
101.716
101.741
101.766
101.79
101.814
101.836
101.858
101.878
101.896
101.913
101.928
101.941
101.952
101.958
101.962
101.965
101.967
101.969
101.97
101.971
101.972
101.972
101.971
101.97
101.969
101.967
101.965
101.962
101.958
101.952
101.941
101.928
101.913
101.896
101.878
101.858
101.836
101.814
101.79
101.766
101.741
101.716
101.691
101.667
101.642
101.618
101.594
101.572
101.55
101.53
101.51
101.492
101.476
101.461
101.448
101.436
101.427
101.419
101.413
101.409
101.407
100.59
100.592
100.596
100.602
100.61
100.62
100.631
100.645
100.66
100.676
100.694
100.714
100.735
100.757
100.78
100.804
100.828
100.853
100.879
100.904
100.93
100.955
100.979
101.003
101.026
101.048
101.069
101.088
101.105
101.121
101.134
101.145
101.151
101.155
101.158
101.16
101.162
101.164
101.165
101.165
101.165
101.165
101.164
101.162
101.16
101.158
101.155
101.151
101.145
101.134
101.121
101.105
101.088
101.069
101.048
101.026
101.003
100.979
100.955
100.93
100.904
100.879
100.853
100.828
100.804
100.78
100.757
100.735
100.714
100.694
100.676
100.66
100.645
100.631
100.62
100.61
100.602
100.596
100.592
100.59
99.6926
99.6947
99.6987
99.7048
99.7128
99.7227
99.7346
99.7482
99.7635
99.7805
99.7991
99.8191
99.8403
99.8628
99.8863
99.9106
99.9357
99.9613
99.9872
100.013
100.039
100.065
100.09
100.115
100.139
100.161
100.182
100.202
100.22
100.235
100.249
100.261
100.267
100.271
100.274
100.276
100.278
100.28
100.281
100.282
100.282
100.281
100.28
100.278
100.276
100.274
100.271
100.267
100.261
100.249
100.235
100.22
100.202
100.182
100.161
100.139
100.115
100.09
100.065
100.039
100.013
99.9872
99.9613
99.9357
99.9106
99.8863
99.8628
99.8403
99.8191
99.7991
99.7805
99.7635
99.7482
99.7346
99.7227
99.7128
99.7048
99.6987
99.6947
99.6926
98.7075
98.7095
98.7137
98.7199
98.7281
98.7382
98.7503
98.7642
98.7799
98.7973
98.8163
98.8367
98.8585
98.8816
98.9056
98.9306
98.9564
98.9827
99.0094
99.0362
99.063
99.0895
99.1156
99.141
99.1654
99.1886
99.2105
99.2308
99.2492
99.2657
99.2799
99.2919
99.2987
99.3024
99.3056
99.3082
99.3104
99.312
99.313
99.3136
99.3136
99.313
99.312
99.3104
99.3082
99.3056
99.3024
99.2987
99.2919
99.2799
99.2657
99.2492
99.2308
99.2105
99.1886
99.1654
99.141
99.1156
99.0895
99.063
99.0362
99.0094
98.9827
98.9564
98.9306
98.9056
98.8816
98.8585
98.8367
98.8163
98.7973
98.7799
98.7642
98.7503
98.7382
98.7281
98.7199
98.7137
98.7095
98.7075
97.6257
97.6279
97.6321
97.6385
97.6469
97.6573
97.6697
97.684
97.7001
97.718
97.7375
97.7585
97.781
97.8047
97.8295
97.8553
97.8819
97.9091
97.9367
97.9645
97.9923
98.0198
98.0469
98.0732
98.0986
98.1229
98.1457
98.1668
98.1861
98.2033
98.2182
98.2307
98.2378
98.2417
98.245
98.2478
98.25
98.2517
98.2528
98.2534
98.2534
98.2528
98.2517
98.25
98.2478
98.245
98.2417
98.2378
98.2307
98.2182
98.2033
98.1861
98.1668
98.1457
98.1229
98.0986
98.0732
98.0469
98.0198
97.9923
97.9645
97.9367
97.9091
97.8819
97.8553
97.8295
97.8047
97.781
97.7585
97.7375
97.718
97.7001
97.684
97.6697
97.6573
97.6469
97.6385
97.6321
97.6279
97.6257
96.3624
96.3646
96.369
96.3755
96.3842
96.395
96.4078
96.4226
96.4393
96.4578
96.478
96.4998
96.5231
96.5478
96.5736
96.6005
96.6282
96.6565
96.6853
96.7144
96.7435
96.7724
96.8008
96.8285
96.8552
96.8808
96.9048
96.9271
96.9475
96.9657
96.9815
96.9947
97.0023
97.0064
97.01
97.0129
97.0153
97.0171
97.0183
97.0189
97.0189
97.0183
97.0171
97.0153
97.0129
97.01
97.0064
97.0023
96.9947
96.9815
96.9657
96.9475
96.9271
96.9048
96.8808
96.8552
96.8285
96.8008
96.7724
96.7435
96.7144
96.6853
96.6565
96.6282
96.6005
96.5736
96.5478
96.5231
96.4998
96.478
96.4578
96.4393
96.4226
96.4078
96.395
96.3842
96.3755
96.369
96.3646
96.3624
94.9666
94.9689
94.9735
94.9803
94.9893
95.0005
95.0139
95.0293
95.0467
95.066
95.0871
95.1099
95.1343
95.1601
95.1872
95.2154
95.2445
95.2743
95.3047
95.3354
95.3662
95.3968
95.4269
95.4564
95.4848
95.5121
95.5378
95.5616
95.5835
95.603
95.6199
95.6341
95.6423
95.6467
95.6505
95.6537
95.6563
95.6582
95.6595
95.6601
95.6601
95.6595
95.6582
95.6563
95.6537
95.6505
95.6467
95.6423
95.6341
95.6199
95.603
95.5835
95.5616
95.5378
95.5121
95.4848
95.4564
95.4269
95.3968
95.3662
95.3354
95.3047
95.2743
95.2445
95.2154
95.1872
95.1601
95.1343
95.1099
95.0871
95.066
95.0467
95.0293
95.0139
95.0005
94.9893
94.9803
94.9735
94.9689
94.9666
93.5685
93.5709
93.5757
93.5828
93.5922
93.6039
93.6179
93.634
93.6522
93.6724
93.6945
93.7184
93.744
93.7711
93.7996
93.8293
93.8601
93.8917
93.9238
93.9564
93.9891
94.0216
94.0538
94.0852
94.1157
94.1449
94.1725
94.1982
94.2217
94.2428
94.2611
94.2765
94.2853
94.2901
94.2942
94.2977
94.3004
94.3025
94.3039
94.3046
94.3046
94.3039
94.3025
94.3004
94.2977
94.2942
94.2901
94.2853
94.2765
94.2611
94.2428
94.2217
94.1982
94.1725
94.1449
94.1157
94.0852
94.0538
94.0216
93.9891
93.9564
93.9238
93.8917
93.8601
93.8293
93.7996
93.7711
93.744
93.7184
93.6945
93.6724
93.6522
93.634
93.6179
93.6039
93.5922
93.5828
93.5757
93.5709
93.5685
92.1681
92.1706
92.1756
92.183
92.1928
92.2051
92.2197
92.2366
92.2556
92.2769
92.3001
92.3252
92.3522
92.3808
92.4109
92.4423
92.4749
92.5083
92.5425
92.5772
92.6121
92.6469
92.6813
92.7151
92.7479
92.7793
92.8091
92.8369
92.8624
92.8853
92.9052
92.9219
92.9316
92.9368
92.9413
92.9451
92.9481
92.9504
92.9519
92.9527
92.9527
92.9519
92.9504
92.9481
92.9451
92.9413
92.9368
92.9316
92.9219
92.9052
92.8853
92.8624
92.8369
92.8091
92.7793
92.7479
92.7151
92.6813
92.6469
92.6121
92.5772
92.5425
92.5083
92.4749
92.4423
92.4109
92.3808
92.3522
92.3252
92.3001
92.2769
92.2556
92.2366
92.2197
92.2051
92.1928
92.183
92.1756
92.1706
92.1681
90.7652
90.7678
90.773
90.7807
90.7911
90.8039
90.8192
90.8369
90.857
90.8793
90.9038
90.9303
90.9587
90.9889
91.0208
91.0541
91.0887
91.1243
91.1608
91.1978
91.2352
91.2725
91.3096
91.346
91.3814
91.4154
91.4478
91.478
91.5058
91.5307
91.5525
91.5709
91.5814
91.5871
91.5921
91.5962
91.5995
91.602
91.6037
91.6046
91.6046
91.6037
91.602
91.5995
91.5962
91.5921
91.5871
91.5814
91.5709
91.5525
91.5307
91.5058
91.478
91.4478
91.4154
91.3814
91.346
91.3096
91.2725
91.2352
91.1978
91.1608
91.1243
91.0887
91.0541
91.0208
90.9889
90.9587
90.9303
90.9038
90.8793
90.857
90.8369
90.8192
90.8039
90.7911
90.7807
90.773
90.7678
90.7652
89.3596
89.3623
89.3678
89.376
89.3868
89.4003
89.4164
89.435
89.4561
89.4796
89.5054
89.5334
89.5634
89.5955
89.6292
89.6646
89.7015
89.7395
89.7785
89.8182
89.8583
89.8985
89.9384
89.9778
90.0162
90.0532
90.0885
90.1215
90.1519
90.1793
90.2033
90.2235
90.2351
90.2414
90.2469
90.2515
90.2551
90.2579
90.2598
90.2607
90.2607
90.2598
90.2579
90.2551
90.2515
90.2469
90.2414
90.2351
90.2235
90.2033
90.1793
90.1519
90.1215
90.0885
90.0532
90.0162
89.9778
89.9384
89.8985
89.8583
89.8182
89.7785
89.7395
89.7015
89.6646
89.6292
89.5955
89.5634
89.5334
89.5054
89.4796
89.4561
89.435
89.4164
89.4003
89.3868
89.376
89.3678
89.3623
89.3596
87.9513
87.9542
87.9599
87.9685
87.9799
87.9941
88.011
88.0306
88.0528
88.0776
88.1048
88.1344
88.1662
88.2002
88.2361
88.2738
88.313
88.3537
88.3954
88.4381
88.4812
88.5246
88.5679
88.6106
88.6524
88.6928
88.7314
88.7677
88.8011
88.8313
88.8578
88.8802
88.8931
88.9001
88.9062
88.9113
88.9154
88.9184
88.9205
88.9215
88.9215
88.9205
88.9184
88.9154
88.9113
88.9062
88.9001
88.8931
88.8802
88.8578
88.8313
88.8011
88.7677
88.7314
88.6928
88.6524
88.6106
88.5679
88.5246
88.4812
88.4381
88.3954
88.3537
88.313
88.2738
88.2361
88.2002
88.1662
88.1344
88.1048
88.0776
88.0528
88.0306
88.011
87.9941
87.9799
87.9685
87.9599
87.9542
87.9513
86.5402
86.5432
86.5492
86.5582
86.5702
86.5851
86.6029
86.6235
86.647
86.6731
86.7019
86.7332
86.7669
86.803
86.8412
86.8813
86.9232
86.9667
87.0116
87.0574
87.104
87.1509
87.1979
87.2444
87.29
87.3343
87.3766
87.4166
87.4536
87.4871
87.5165
87.5414
87.5558
87.5637
87.5704
87.5761
87.5807
87.5841
87.5864
87.5876
87.5876
87.5864
87.5841
87.5807
87.5761
87.5704
87.5637
87.5558
87.5414
87.5165
87.4871
87.4536
87.4166
87.3766
87.3343
87.29
87.2444
87.1979
87.1509
87.104
87.0574
87.0116
86.9667
86.9232
86.8813
86.8412
86.803
86.7669
86.7332
86.7019
86.6731
86.647
86.6235
86.6029
86.5851
86.5702
86.5582
86.5492
86.5432
86.5402
85.126
85.1292
85.1355
85.145
85.1575
85.1732
85.1919
85.2137
85.2384
85.266
85.2964
85.3296
85.3653
85.4036
85.4442
85.4871
85.5319
85.5785
85.6266
85.676
85.7264
85.7772
85.8283
85.879
85.929
85.9776
86.0243
86.0685
86.1095
86.1468
86.1797
86.2076
86.2238
86.2326
86.2402
86.2466
86.2517
86.2556
86.2582
86.2595
86.2595
86.2582
86.2556
86.2517
86.2466
86.2402
86.2326
86.2238
86.2076
86.1797
86.1468
86.1095
86.0685
86.0243
85.9776
85.929
85.879
85.8283
85.7772
85.7264
85.676
85.6266
85.5785
85.5319
85.4871
85.4442
85.4036
85.3653
85.3296
85.2964
85.266
85.2384
85.2137
85.1919
85.1732
85.1575
85.145
85.1355
85.1292
85.126
83.7087
83.712
83.7187
83.7286
83.7418
83.7583
83.778
83.8009
83.8269
83.8561
83.8882
83.9233
83.9612
84.0019
84.0451
84.0908
84.1388
84.1887
84.2405
84.2937
84.3482
84.4034
84.459
84.5144
84.5692
84.6228
84.6745
84.7235
84.7693
84.811
84.8479
84.8793
84.8975
84.9075
84.9161
84.9233
84.9291
84.9335
84.9365
84.9379
84.9379
84.9365
84.9335
84.9291
84.9233
84.9161
84.9075
84.8975
84.8793
84.8479
84.811
84.7693
84.7235
84.6745
84.6228
84.5692
84.5144
84.459
84.4034
84.3482
84.2937
84.2405
84.1887
84.1388
84.0908
84.0451
84.0019
83.9612
83.9233
83.8882
83.8561
83.8269
83.8009
83.778
83.7583
83.7418
83.7286
83.7187
83.712
83.7087
82.2881
82.2916
82.2985
82.3089
82.3228
82.3401
82.3608
82.3849
82.4124
82.4431
82.4771
82.5142
82.5544
82.5976
82.6436
82.6923
82.7436
82.7972
82.8528
82.9103
82.9692
83.0292
83.0898
83.1505
83.2108
83.2699
83.3272
83.3819
83.4331
83.4799
83.5216
83.5571
83.5779
83.5891
83.5989
83.6072
83.6138
83.6188
83.6222
83.6239
83.6239
83.6222
83.6188
83.6138
83.6072
83.5989
83.5891
83.5779
83.5571
83.5216
83.4799
83.4331
83.3819
83.3272
83.2699
83.2108
83.1505
83.0898
83.0292
82.9692
82.9103
82.8528
82.7972
82.7436
82.6923
82.6436
82.5976
82.5544
82.5142
82.4771
82.4431
82.4124
82.3849
82.3608
82.3401
82.3228
82.3089
82.2985
82.2916
82.2881
80.864
80.8676
80.8749
80.8858
80.9004
80.9186
80.9403
80.9657
80.9945
81.0269
81.0628
81.102
81.1446
81.1904
81.2394
81.2913
81.3461
81.4035
81.4634
81.5254
81.5891
81.6543
81.7205
81.7871
81.8534
81.9189
81.9826
82.0437
82.1012
82.1541
82.2013
82.2418
82.2655
82.2785
82.2897
82.2991
82.3068
82.3125
82.3164
82.3183
82.3183
82.3164
82.3125
82.3068
82.2991
82.2897
82.2785
82.2655
82.2418
82.2013
82.1541
82.1012
82.0437
81.9826
81.9189
81.8534
81.7871
81.7205
81.6543
81.5891
81.5254
81.4634
81.4035
81.3461
81.2913
81.2394
81.1904
81.1446
81.102
81.0628
81.0269
80.9945
80.9657
80.9403
80.9186
80.9004
80.8858
80.8749
80.8676
80.864
79.4362
79.44
79.4476
79.4591
79.4743
79.4934
79.5162
79.5428
79.5732
79.6073
79.6451
79.6865
79.7316
79.7801
79.8321
79.8874
79.9459
80.0075
80.0718
80.1386
80.2077
80.2786
80.3508
80.4238
80.497
80.5696
80.6406
80.7091
80.774
80.834
80.8878
80.9342
80.9615
80.9764
80.9894
81.0003
81.0091
81.0158
81.0203
81.0225
81.0225
81.0203
81.0158
81.0091
81.0003
80.9894
80.9764
80.9615
80.9342
80.8878
80.834
80.774
80.7091
80.6406
80.5696
80.497
80.4238
80.3508
80.2786
80.2077
80.1386
80.0718
80.0075
79.9459
79.8874
79.8321
79.7801
79.7316
79.6865
79.6451
79.6073
79.5732
79.5428
79.5162
79.4934
79.4743
79.4591
79.4476
79.44
79.4362
78.0046
78.0086
78.0166
78.0285
78.0445
78.0644
78.0884
78.1163
78.1481
78.184
78.2237
78.2674
78.315
78.3664
78.4216
78.4804
78.5428
78.6086
78.6776
78.7497
78.8244
78.9014
78.9803
79.0605
79.1412
79.2218
79.3011
79.3782
79.4516
79.52
79.5817
79.6353
79.6669
79.6843
79.6994
79.7121
79.7225
79.7303
79.7355
79.7381
79.7381
79.7355
79.7303
79.7225
79.7121
79.6994
79.6843
79.6669
79.6353
79.5817
79.52
79.4516
79.3782
79.3011
79.2218
79.1412
79.0605
78.9803
78.9014
78.8244
78.7497
78.6776
78.6086
78.5428
78.4804
78.4216
78.3664
78.315
78.2674
78.2237
78.184
78.1481
78.1163
78.0884
78.0644
78.0445
78.0285
78.0166
78.0086
78.0046
76.569
76.5732
76.5815
76.594
76.6107
76.6315
76.6565
76.6857
76.7191
76.7567
76.7985
76.8445
76.8946
76.9489
77.0073
77.0698
77.1362
77.2065
77.2805
77.358
77.4388
77.5224
77.6085
77.6965
77.7857
77.8752
77.964
78.0508
78.1343
78.2125
78.2838
78.3461
78.3832
78.4035
78.4213
78.4363
78.4485
78.4577
78.4639
78.467
78.467
78.4639
78.4577
78.4485
78.4363
78.4213
78.4035
78.3832
78.3461
78.2838
78.2125
78.1343
78.0508
77.964
77.8752
77.7857
77.6965
77.6085
77.5224
77.4388
77.358
77.2805
77.2065
77.1362
77.0698
77.0073
76.9489
76.8946
76.8445
76.7985
76.7567
76.7191
76.6857
76.6565
76.6315
76.6107
76.594
76.5815
76.5732
76.569
75.1293
75.1336
75.1423
75.1553
75.1727
75.1944
75.2205
75.251
75.2859
75.3252
75.369
75.4173
75.4701
75.5273
75.589
75.6552
75.7258
75.8007
75.8799
75.9632
76.0503
76.141
76.2348
76.3313
76.4297
76.5293
76.6288
76.7269
76.822
76.9121
76.9949
77.0679
77.1117
77.1359
77.157
77.1749
77.1895
77.2005
77.208
77.2117
77.2117
77.208
77.2005
77.1895
77.1749
77.157
77.1359
77.1117
77.0679
76.9949
76.9121
76.822
76.7269
76.6288
76.5293
76.4297
76.3313
76.2348
76.141
76.0503
75.9632
75.8799
75.8007
75.7258
75.6552
75.589
75.5273
75.4701
75.4173
75.369
75.3252
75.2859
75.251
75.2205
75.1944
75.1727
75.1553
75.1423
75.1336
75.1293
73.6852
73.6897
73.6987
73.7122
73.7303
73.7529
73.78
73.8118
73.8482
73.8893
73.9351
73.9857
74.041
74.1012
74.1663
74.2362
74.311
74.3907
74.4752
74.5644
74.6582
74.7563
74.8585
74.9641
75.0727
75.1834
75.295
75.4061
75.5149
75.619
75.7158
75.8022
75.8545
75.8834
75.9089
75.9306
75.9482
75.9616
75.9707
75.9752
75.9752
75.9707
75.9616
75.9482
75.9306
75.9089
75.8834
75.8545
75.8022
75.7158
75.619
75.5149
75.4061
75.295
75.1834
75.0727
74.9641
74.8585
74.7563
74.6582
74.5644
74.4752
74.3907
74.311
74.2362
74.1663
74.1012
74.041
73.9857
73.9351
73.8893
73.8482
73.8118
73.78
73.7529
73.7303
73.7122
73.6987
73.6897
73.6852
72.2367
72.2414
72.2507
72.2647
72.2834
72.3068
72.335
72.368
72.4059
72.4487
72.4964
72.5492
72.6072
72.6703
72.7386
72.8123
72.8914
72.9759
73.0658
73.1611
73.2618
73.3677
73.4786
73.5941
73.7137
73.8366
73.9617
74.0876
74.2123
74.3332
74.4472
74.5503
74.6136
74.6488
74.6799
74.7066
74.7283
74.745
74.7562
74.7618
74.7618
74.7562
74.745
74.7283
74.7066
74.6799
74.6488
74.6136
74.5503
74.4472
74.3332
74.2123
74.0876
73.9617
73.8366
73.7137
73.5941
73.4786
73.3677
73.2618
73.1611
73.0658
72.9759
72.8914
72.8123
72.7386
72.6703
72.6072
72.5492
72.4964
72.4487
72.4059
72.368
72.335
72.3068
72.2834
72.2647
72.2507
72.2414
72.2367
70.7835
70.7883
70.7979
70.8124
70.8317
70.856
70.8851
70.9193
70.9586
71.003
71.0527
71.1077
71.1681
71.2341
71.3057
71.3831
71.4664
71.5556
71.651
71.7525
71.8602
71.9741
72.0941
72.22
72.3513
72.4875
72.6276
72.7703
72.9135
73.0545
73.1895
73.3137
73.3915
73.435
73.4738
73.5071
73.5346
73.5556
73.5699
73.5771
73.5771
73.5699
73.5556
73.5346
73.5071
73.4738
73.435
73.3915
73.3137
73.1895
73.0545
72.9135
72.7703
72.6276
72.4875
72.3513
72.22
72.0941
71.9741
71.8602
71.7525
71.651
71.5556
71.4664
71.3831
71.3057
71.2341
71.1681
71.1077
71.0527
71.003
70.9586
70.9193
70.8851
70.856
70.8317
70.8124
70.7979
70.7883
70.7835
69.3255
69.3304
69.3403
69.3552
69.3752
69.4002
69.4303
69.4656
69.5062
69.5522
69.6036
69.6607
69.7235
69.7922
69.867
69.9479
70.0353
70.1293
70.23
70.3376
70.4524
70.5744
70.7037
70.8403
70.984
71.1345
71.291
71.4524
71.6169
71.7816
71.9425
72.0939
72.1908
72.2457
72.2949
72.3377
72.3732
72.4006
72.4192
72.4287
72.4287
72.4192
72.4006
72.3732
72.3377
72.2949
72.2457
72.1908
72.0939
71.9425
71.7816
71.6169
71.4524
71.291
71.1345
70.984
70.8403
70.7037
70.5744
70.4524
70.3376
70.23
70.1293
70.0353
69.9479
69.867
69.7922
69.7235
69.6607
69.6036
69.5522
69.5062
69.4656
69.4303
69.4002
69.3752
69.3552
69.3403
69.3304
69.3255
67.8625
67.8676
67.8778
67.8931
67.9135
67.9392
67.9702
68.0066
68.0484
68.0958
68.149
68.208
68.273
68.3443
68.422
68.5064
68.5977
68.6961
68.802
68.9157
69.0374
69.1674
69.3061
69.4536
69.61
69.7755
69.9495
70.1315
70.32
70.5126
70.7052
70.8913
71.0141
71.0847
71.1489
71.2054
71.2528
71.2898
71.3152
71.3281
71.3281
71.3152
71.2898
71.2528
71.2054
71.1489
71.0847
71.0141
70.8913
70.7052
70.5126
70.32
70.1315
69.9495
69.7755
69.61
69.4536
69.3061
69.1674
69.0374
68.9157
68.802
68.6961
68.5977
68.5064
68.422
68.3443
68.273
68.208
68.149
68.0958
68.0484
68.0066
67.9702
67.9392
67.9135
67.8931
67.8778
67.8676
67.8625
66.3944
66.3996
66.4101
66.4257
66.4467
66.473
66.5048
66.5421
66.585
66.6338
66.6884
66.7492
66.8163
66.89
66.9704
67.058
67.1529
67.2556
67.3664
67.4857
67.614
67.7518
67.8996
68.0579
68.2271
68.4078
68.6001
68.804
69.0191
69.2436
69.4742
69.7047
69.8631
69.9558
70.0418
70.1191
70.1852
70.2377
70.2743
70.2931
70.2931
70.2743
70.2377
70.1852
70.1191
70.0418
69.9558
69.8631
69.7047
69.4742
69.2436
69.0191
68.804
68.6001
68.4078
68.2271
68.0579
67.8996
67.7518
67.614
67.4857
67.3664
67.2556
67.1529
67.058
66.9704
66.89
66.8163
66.7492
66.6884
66.6338
66.585
66.5421
66.5048
66.473
66.4467
66.4257
66.4101
66.3996
66.3944
64.9212
64.9265
64.9371
64.9531
64.9745
65.0014
65.0338
65.0719
65.1159
65.1658
65.2218
65.2841
65.3531
65.4288
65.5117
65.6021
65.7003
65.8069
65.9221
66.0467
66.1812
66.3262
66.4826
66.6512
66.8328
67.0284
67.239
67.4655
67.7086
67.9684
68.2434
68.5293
68.7362
68.8605
68.9793
69.0893
69.1865
69.2662
69.3232
69.3532
69.3532
69.3232
69.2662
69.1865
69.0893
68.9793
68.8605
68.7362
68.5293
68.2434
67.9684
67.7086
67.4655
67.239
67.0284
66.8328
66.6512
66.4826
66.3262
66.1812
66.0467
65.9221
65.8069
65.7003
65.6021
65.5117
65.4288
65.3531
65.2841
65.2218
65.1658
65.1159
65.0719
65.0338
65.0014
64.9745
64.9531
64.9371
64.9265
64.9212
63.4426
63.448
63.4588
63.4751
63.4968
63.5242
63.5572
63.596
63.6408
63.6916
63.7488
63.8125
63.883
63.9606
64.0456
64.1384
64.2395
64.3494
64.4686
64.5978
64.7378
64.8893
65.0535
65.2314
65.4244
65.634
65.862
66.1104
66.3816
66.678
67.0017
67.3534
67.6243
67.7931
67.9612
68.1246
68.2768
68.4089
68.5094
68.5649
68.5649
68.5094
68.4089
68.2768
68.1246
67.9612
67.7931
67.6243
67.3534
67.0017
66.678
66.3816
66.1104
65.862
65.634
65.4244
65.2314
65.0535
64.8893
64.7378
64.5978
64.4686
64.3494
64.2395
64.1384
64.0456
63.9606
63.883
63.8125
63.7488
63.6916
63.6408
63.596
63.5572
63.5242
63.4968
63.4751
63.4588
63.448
63.4426
61.9586
61.9641
61.975
61.9915
62.0136
62.0413
62.0747
62.1141
62.1595
62.2112
62.2693
62.334
62.4058
62.4849
62.5716
62.6665
62.7699
62.8826
63.0051
63.1382
63.2827
63.4398
63.6106
63.7966
63.9995
64.2213
64.4646
64.7326
65.0293
65.3601
65.732
66.1539
66.5018
66.7285
66.9672
67.2156
67.4678
67.7114
67.9225
68.0567
68.0567
67.9225
67.7114
67.4678
67.2156
66.9672
66.7285
66.5018
66.1539
65.732
65.3601
65.0293
64.7326
64.4646
64.2213
63.9995
63.7966
63.6106
63.4398
63.2827
63.1382
63.0051
62.8826
62.7699
62.6665
62.5716
62.4849
62.4058
62.334
62.2693
62.2112
62.1595
62.1141
62.0747
62.0413
62.0136
61.9915
61.975
61.9641
61.9586
60.4693
60.4748
60.4859
60.5025
60.5247
60.5527
60.5865
60.6263
60.6722
60.7244
60.7832
60.8487
60.9214
61.0016
61.0896
61.186
61.2913
61.406
61.531
61.6671
61.8153
61.9767
62.1527
62.345
62.5556
62.7871
63.0425
63.3259
63.6429
64.0012
64.4123
64.8944
65.3159
65.603
65.9242
66.2873
66.7021
67.1789
67.7249
68.4023
68.4023
67.7249
67.1789
66.7021
66.2873
65.9242
65.603
65.3159
64.8944
64.4123
64.0012
63.6429
63.3259
63.0425
62.7871
62.5556
62.345
62.1527
61.9767
61.8153
61.6671
61.531
61.406
61.2913
61.186
61.0896
61.0016
60.9214
60.8487
60.7832
60.7244
60.6722
60.6263
60.5865
60.5527
60.5247
60.5025
60.4859
60.4748
60.4693
58.9745
58.98
58.9911
59.0078
59.0302
59.0583
59.0923
59.1323
59.1785
59.2311
59.2902
59.3563
59.4296
59.5104
59.5993
59.6966
59.8031
59.9192
60.0459
60.184
60.3345
60.4989
60.6784
60.875
61.0909
61.3289
61.5923
61.8857
62.2153
62.5896
63.0217
63.5333
63.9892
64.3054
64.6688
65.0977
65.6225
66.2955
67.2138
78.4353
78.4353
67.2138
66.2955
65.6225
65.0977
64.6688
64.3054
63.9892
63.5333
63.0217
62.5896
62.2153
61.8857
61.5923
61.3289
61.0909
60.875
60.6784
60.4989
60.3345
60.184
60.0459
59.9192
59.8031
59.6966
59.5993
59.5104
59.4296
59.3563
59.2902
59.2311
59.1785
59.1323
59.0923
59.0583
59.0302
59.0078
58.9911
58.98
58.9745
57.4741
57.4797
57.4908
57.5075
57.5299
57.5581
57.5921
57.6322
57.6784
57.7311
57.7904
57.8566
57.9301
58.0113
58.1004
58.1982
58.3051
58.4219
58.5494
58.6884
58.8401
59.0058
59.1871
59.3858
59.6042
59.8452
60.1121
60.4094
60.7429
61.12
61.5516
62.0528
62.4817
62.7687
63.0817
63.423
63.7924
64.1821
64.6059
79.4713
79.4713
64.6059
64.1821
63.7924
63.423
63.0817
62.7687
62.4817
62.0528
61.5516
61.12
60.7429
60.4094
60.1121
59.8452
59.6042
59.3858
59.1871
59.0058
58.8401
58.6884
58.5494
58.4219
58.3051
58.1982
58.1004
58.0113
57.9301
57.8566
57.7904
57.7311
57.6784
57.6322
57.5921
57.5581
57.5299
57.5075
57.4908
57.4797
57.4741
55.9682
55.9738
55.9848
56.0015
56.0238
56.0519
56.0859
56.1258
56.172
56.2245
56.2837
56.3498
56.4231
56.504
56.593
56.6906
56.7974
56.914
57.0412
57.1801
57.3316
57.4972
57.6783
57.8769
58.095
58.3355
58.6015
58.897
59.2267
59.5962
60.0117
60.4796
60.8578
61.1004
61.3511
61.6063
61.8597
62.1011
62.37
72.1708
72.1708
62.37
62.1011
61.8597
61.6063
61.3511
61.1004
60.8578
60.4796
60.0117
59.5962
59.2267
58.897
58.6015
58.3355
58.095
57.8769
57.6783
57.4972
57.3316
57.1801
57.0412
56.914
56.7974
56.6906
56.593
56.504
56.4231
56.3498
56.2837
56.2245
56.172
56.1258
56.0859
56.0519
56.0238
56.0015
55.9848
55.9738
55.9682
54.4568
54.4623
54.4733
54.4898
54.512
54.5399
54.5736
54.6133
54.6591
54.7113
54.77
54.8356
54.9084
54.9887
55.077
55.1739
55.2797
55.3953
55.5215
55.6591
55.8092
55.973
56.1522
56.3483
56.5635
56.8003
57.0615
57.3504
57.6708
58.0262
58.4196
58.8507
59.1838
59.3911
59.5976
59.7985
59.9876
60.157
60.3507
66.877
66.877
60.3507
60.157
59.9876
59.7985
59.5976
59.3911
59.1838
58.8507
58.4196
58.0262
57.6708
57.3504
57.0615
56.8003
56.5635
56.3483
56.1522
55.973
55.8092
55.6591
55.5215
55.3953
55.2797
55.1739
55.077
54.9887
54.9084
54.8356
54.77
54.7113
54.6591
54.6133
54.5736
54.5399
54.512
54.4898
54.4733
54.4623
54.4568
52.9399
52.9453
52.9562
52.9726
52.9945
53.0221
53.0554
53.0946
53.1399
53.1915
53.2495
53.3143
53.3862
53.4654
53.5526
53.648
53.7524
53.8662
53.9903
54.1256
54.2729
54.4336
54.609
54.8006
55.0105
55.2407
55.4937
55.7724
56.0797
56.4183
56.7896
57.1918
57.4976
57.6863
57.8722
58.0507
58.2155
58.3588
58.5262
63.4599