/*--------------------------------*- C++ -*----------------------------------*\
  =========                 |
  \\      /  F ield         | OpenFOAM: The Open Source CFD Toolbox
   \\    /   O peration     | Website:  https://openfoam.org
    \\  /    A nd           | Version:  10
     \\/     M anipulation  |
\*---------------------------------------------------------------------------*/
FoamFile
{
    format      ascii;
    class       volVectorField;
    location    "12900";
    object      Ua;
}
// * * * * * * * * * * * * * * * * * * * * * * * * * * * * * * * * * * * * * //

dimensions      [0 1 -1 0 0 0 0];

internalField   nonuniform List<vector> 
6400
(
(-2.82399e-07 5.7403e-08 0)
(-8.49615e-07 5.78945e-08 0)
(-1.42418e-06 5.8897e-08 0)
(-2.01133e-06 6.04514e-08 0)
(-2.61681e-06 6.26241e-08 0)
(-3.24719e-06 6.55139e-08 0)
(-3.91024e-06 6.92633e-08 0)
(-4.61542e-06 7.40775e-08 0)
(-5.37467e-06 8.0254e-08 0)
(-6.20356e-06 8.82341e-08 0)
(-7.12317e-06 9.86936e-08 0)
(-8.16319e-06 1.12711e-07 0)
(-9.3676e-06 1.32107e-07 0)
(-1.08055e-05 1.60165e-07 0)
(-1.25935e-05 2.03294e-07 0)
(-1.49434e-05 2.74358e-07 0)
(-1.81555e-05 3.78562e-07 0)
(-1.84962e-05 -3.0903e-07 0)
(-8.74989e-06 1.39332e-05 0)
(-3.02479e-07 2.53672e-06 0)
(-5.8188e-08 4.1668e-07 0)
(-2.9044e-08 2.03867e-07 0)
(-1.97921e-08 1.31122e-07 0)
(-1.60542e-08 9.51787e-08 0)
(-1.2404e-08 7.42394e-08 0)
(-9.86686e-09 6.08082e-08 0)
(-8.29665e-09 5.15761e-08 0)
(-7.19964e-09 4.48771e-08 0)
(-6.37824e-09 3.98704e-08 0)
(-5.69912e-09 3.59426e-08 0)
(-5.10359e-09 3.27971e-08 0)
(-4.54487e-09 3.02672e-08 0)
(-4.12383e-09 2.83331e-08 0)
(-3.80629e-09 2.75784e-08 0)
(-3.44e-09 2.69104e-08 0)
(-3.00631e-09 2.63352e-08 0)
(-2.48702e-09 2.58541e-08 0)
(-1.87268e-09 2.54926e-08 0)
(-1.167e-09 2.52612e-08 0)
(-3.96364e-10 2.50697e-08 0)
(3.96364e-10 2.50697e-08 0)
(1.167e-09 2.52612e-08 0)
(1.87268e-09 2.54926e-08 0)
(2.48702e-09 2.58541e-08 0)
(3.00631e-09 2.63352e-08 0)
(3.44e-09 2.69104e-08 0)
(3.80629e-09 2.75784e-08 0)
(4.12383e-09 2.83331e-08 0)
(4.54487e-09 3.02672e-08 0)
(5.10359e-09 3.27971e-08 0)
(5.69912e-09 3.59426e-08 0)
(6.37824e-09 3.98704e-08 0)
(7.19964e-09 4.48771e-08 0)
(8.29665e-09 5.15761e-08 0)
(9.86686e-09 6.08082e-08 0)
(1.2404e-08 7.42394e-08 0)
(1.60542e-08 9.51787e-08 0)
(1.97921e-08 1.31122e-07 0)
(2.9044e-08 2.03867e-07 0)
(5.8188e-08 4.1668e-07 0)
(3.02479e-07 2.53672e-06 0)
(8.74989e-06 1.39332e-05 0)
(1.84962e-05 -3.0903e-07 0)
(1.81555e-05 3.78562e-07 0)
(1.49434e-05 2.74358e-07 0)
(1.25935e-05 2.03294e-07 0)
(1.08055e-05 1.60165e-07 0)
(9.3676e-06 1.32107e-07 0)
(8.16319e-06 1.12711e-07 0)
(7.12317e-06 9.86936e-08 0)
(6.20356e-06 8.82341e-08 0)
(5.37467e-06 8.0254e-08 0)
(4.61542e-06 7.40775e-08 0)
(3.91024e-06 6.92633e-08 0)
(3.24719e-06 6.55139e-08 0)
(2.61681e-06 6.26241e-08 0)
(2.01133e-06 6.04514e-08 0)
(1.42418e-06 5.8897e-08 0)
(8.49615e-07 5.78945e-08 0)
(2.82399e-07 5.7403e-08 0)
(-2.82294e-07 1.77744e-07 0)
(-8.49297e-07 1.79265e-07 0)
(-1.42364e-06 1.82367e-07 0)
(-2.01053e-06 1.87178e-07 0)
(-2.61573e-06 1.93902e-07 0)
(-3.24578e-06 2.02844e-07 0)
(-3.90842e-06 2.14446e-07 0)
(-4.61308e-06 2.2934e-07 0)
(-5.37165e-06 2.48447e-07 0)
(-6.19963e-06 2.73128e-07 0)
(-7.11795e-06 3.05468e-07 0)
(-8.15607e-06 3.48792e-07 0)
(-9.35749e-06 4.08701e-07 0)
(-1.07903e-05 4.95288e-07 0)
(-1.25692e-05 6.28237e-07 0)
(-1.4906e-05 8.48066e-07 0)
(-1.82798e-05 1.20997e-06 0)
(-2.70417e-05 8.82569e-07 0)
(-2.36927e-05 2.2641e-05 0)
(-7.22935e-06 1.40354e-05 0)
(-4.84345e-07 2.01751e-06 0)
(-9.00959e-08 4.41394e-07 0)
(-5.15601e-08 2.44491e-07 0)
(-3.99939e-08 1.67126e-07 0)
(-3.00676e-08 1.27246e-07 0)
(-2.35908e-08 1.03368e-07 0)
(-1.97153e-08 8.71755e-08 0)
(-1.70421e-08 7.56216e-08 0)
(-1.50664e-08 6.70192e-08 0)
(-1.3449e-08 6.03368e-08 0)
(-1.20438e-08 5.49926e-08 0)
(-1.07417e-08 5.07099e-08 0)
(-9.77072e-09 4.742e-08 0)
(-9.04109e-09 4.61247e-08 0)
(-8.20173e-09 4.49768e-08 0)
(-7.20345e-09 4.39822e-08 0)
(-5.9927e-09 4.31478e-08 0)
(-4.53568e-09 4.25176e-08 0)
(-2.83714e-09 4.21054e-08 0)
(-9.65501e-10 4.17762e-08 0)
(9.65501e-10 4.17762e-08 0)
(2.83714e-09 4.21054e-08 0)
(4.53568e-09 4.25176e-08 0)
(5.9927e-09 4.31478e-08 0)
(7.20345e-09 4.39822e-08 0)
(8.20173e-09 4.49768e-08 0)
(9.04109e-09 4.61247e-08 0)
(9.77072e-09 4.742e-08 0)
(1.07417e-08 5.07099e-08 0)
(1.20438e-08 5.49926e-08 0)
(1.3449e-08 6.03368e-08 0)
(1.50664e-08 6.70192e-08 0)
(1.70421e-08 7.56216e-08 0)
(1.97153e-08 8.71755e-08 0)
(2.35908e-08 1.03368e-07 0)
(3.00676e-08 1.27246e-07 0)
(3.99939e-08 1.67126e-07 0)
(5.15601e-08 2.44491e-07 0)
(9.00959e-08 4.41394e-07 0)
(4.84345e-07 2.01751e-06 0)
(7.22935e-06 1.40354e-05 0)
(2.36927e-05 2.2641e-05 0)
(2.70417e-05 8.82569e-07 0)
(1.82798e-05 1.20997e-06 0)
(1.4906e-05 8.48066e-07 0)
(1.25692e-05 6.28237e-07 0)
(1.07903e-05 4.95288e-07 0)
(9.35749e-06 4.08701e-07 0)
(8.15607e-06 3.48792e-07 0)
(7.11795e-06 3.05468e-07 0)
(6.19963e-06 2.73128e-07 0)
(5.37165e-06 2.48447e-07 0)
(4.61308e-06 2.2934e-07 0)
(3.90842e-06 2.14446e-07 0)
(3.24578e-06 2.02844e-07 0)
(2.61573e-06 1.93902e-07 0)
(2.01053e-06 1.87178e-07 0)
(1.42364e-06 1.82367e-07 0)
(8.49297e-07 1.79265e-07 0)
(2.82294e-07 1.77744e-07 0)
(-2.82054e-07 3.09654e-07 0)
(-8.48565e-07 3.12301e-07 0)
(-1.42238e-06 3.17701e-07 0)
(-2.00871e-06 3.26072e-07 0)
(-2.61325e-06 3.37771e-07 0)
(-3.24253e-06 3.53328e-07 0)
(-3.90423e-06 3.73508e-07 0)
(-4.6077e-06 3.99409e-07 0)
(-5.36472e-06 4.32624e-07 0)
(-6.19061e-06 4.7551e-07 0)
(-7.10599e-06 5.31669e-07 0)
(-8.13975e-06 6.06835e-07 0)
(-9.33434e-06 7.10635e-07 0)
(-1.07556e-05 8.60353e-07 0)
(-1.25134e-05 1.08963e-06 0)
(-1.4811e-05 1.46952e-06 0)
(-1.81354e-05 2.15364e-06 0)
(-2.48526e-05 3.53498e-06 0)
(-2.54272e-05 1.93824e-05 0)
(-1.5686e-05 2.42388e-05 0)
(-5.93713e-06 1.1398e-05 0)
(-9.81508e-07 3.83656e-06 0)
(-1.33382e-07 7.27397e-07 0)
(-8.13095e-08 3.7077e-07 0)
(-5.56923e-08 2.5955e-07 0)
(-4.20044e-08 2.0446e-07 0)
(-3.45706e-08 1.69627e-07 0)
(-2.96274e-08 1.45927e-07 0)
(-2.60856e-08 1.28659e-07 0)
(-2.32375e-08 1.15518e-07 0)
(-2.08061e-08 1.05096e-07 0)
(-1.86043e-08 9.68345e-08 0)
(-1.69949e-08 9.04913e-08 0)
(-1.57915e-08 8.80043e-08 0)
(-1.4417e-08 8.58245e-08 0)
(-1.27702e-08 8.39509e-08 0)
(-1.07242e-08 8.23981e-08 0)
(-8.1863e-09 8.12398e-08 0)
(-5.1528e-09 8.04762e-08 0)
(-1.75926e-09 7.98736e-08 0)
(1.75926e-09 7.98736e-08 0)
(5.1528e-09 8.04762e-08 0)
(8.1863e-09 8.12398e-08 0)
(1.07242e-08 8.23981e-08 0)
(1.27702e-08 8.39509e-08 0)
(1.4417e-08 8.58245e-08 0)
(1.57915e-08 8.80043e-08 0)
(1.69949e-08 9.04913e-08 0)
(1.86043e-08 9.68345e-08 0)
(2.08061e-08 1.05096e-07 0)
(2.32375e-08 1.15518e-07 0)
(2.60856e-08 1.28659e-07 0)
(2.96274e-08 1.45927e-07 0)
(3.45706e-08 1.69627e-07 0)
(4.20044e-08 2.0446e-07 0)
(5.56923e-08 2.5955e-07 0)
(8.13095e-08 3.7077e-07 0)
(1.33382e-07 7.27397e-07 0)
(9.81508e-07 3.83656e-06 0)
(5.93713e-06 1.1398e-05 0)
(1.5686e-05 2.42388e-05 0)
(2.54272e-05 1.93824e-05 0)
(2.48526e-05 3.53498e-06 0)
(1.81354e-05 2.15364e-06 0)
(1.4811e-05 1.46952e-06 0)
(1.25134e-05 1.08963e-06 0)
(1.07556e-05 8.60353e-07 0)
(9.33434e-06 7.10635e-07 0)
(8.13975e-06 6.06835e-07 0)
(7.10599e-06 5.31669e-07 0)
(6.19061e-06 4.7551e-07 0)
(5.36472e-06 4.32624e-07 0)
(4.6077e-06 3.99409e-07 0)
(3.90423e-06 3.73508e-07 0)
(3.24253e-06 3.53328e-07 0)
(2.61325e-06 3.37771e-07 0)
(2.00871e-06 3.26072e-07 0)
(1.42238e-06 3.17701e-07 0)
(8.48565e-07 3.12301e-07 0)
(2.82054e-07 3.09654e-07 0)
(-2.81639e-07 4.54167e-07 0)
(-8.47305e-07 4.58042e-07 0)
(-1.42023e-06 4.65947e-07 0)
(-2.00556e-06 4.782e-07 0)
(-2.60898e-06 4.95322e-07 0)
(-3.23693e-06 5.18085e-07 0)
(-3.89701e-06 5.47603e-07 0)
(-4.59844e-06 5.85474e-07 0)
(-5.35281e-06 6.34012e-07 0)
(-6.17511e-06 6.96635e-07 0)
(-7.08544e-06 7.78552e-07 0)
(-8.11177e-06 8.88024e-07 0)
(-9.29473e-06 1.03886e-06 0)
(-1.06965e-05 1.25566e-06 0)
(-1.24184e-05 1.58602e-06 0)
(-1.46424e-05 2.13149e-06 0)
(-1.77643e-05 3.14193e-06 0)
(-2.28366e-05 5.54979e-06 0)
(-2.30966e-05 1.75778e-05 0)
(-1.64585e-05 2.18809e-05 0)
(-1.1347e-05 1.87934e-05 0)
(-1.24274e-05 8.21272e-06 0)
(-7.69217e-06 2.64638e-05 0)
(-2.91065e-07 1.12454e-06 0)
(-1.08255e-07 5.20494e-07 0)
(-7.00112e-08 3.58798e-07 0)
(-5.47715e-08 2.82328e-07 0)
(-4.5801e-08 2.37273e-07 0)
(-3.9877e-08 2.06569e-07 0)
(-3.53258e-08 1.84308e-07 0)
(-3.15846e-08 1.67058e-07 0)
(-2.83389e-08 1.53706e-07 0)
(-2.60525e-08 1.43465e-07 0)
(-2.43534e-08 1.39498e-07 0)
(-2.24511e-08 1.36077e-07 0)
(-2.01521e-08 1.33154e-07 0)
(-1.71705e-08 1.30737e-07 0)
(-1.32784e-08 1.28939e-07 0)
(-8.43786e-09 1.27727e-07 0)
(-2.89502e-09 1.26794e-07 0)
(2.89502e-09 1.26794e-07 0)
(8.43786e-09 1.27727e-07 0)
(1.32784e-08 1.28939e-07 0)
(1.71705e-08 1.30737e-07 0)
(2.01521e-08 1.33154e-07 0)
(2.24511e-08 1.36077e-07 0)
(2.43534e-08 1.39498e-07 0)
(2.60525e-08 1.43465e-07 0)
(2.83389e-08 1.53706e-07 0)
(3.15846e-08 1.67058e-07 0)
(3.53258e-08 1.84308e-07 0)
(3.9877e-08 2.06569e-07 0)
(4.5801e-08 2.37273e-07 0)
(5.47715e-08 2.82328e-07 0)
(7.00112e-08 3.58798e-07 0)
(1.08255e-07 5.20494e-07 0)
(2.91065e-07 1.12454e-06 0)
(7.69217e-06 2.64638e-05 0)
(1.24274e-05 8.21272e-06 0)
(1.1347e-05 1.87934e-05 0)
(1.64585e-05 2.18809e-05 0)
(2.30966e-05 1.75778e-05 0)
(2.28366e-05 5.54979e-06 0)
(1.77643e-05 3.14193e-06 0)
(1.46424e-05 2.13149e-06 0)
(1.24184e-05 1.58602e-06 0)
(1.06965e-05 1.25566e-06 0)
(9.29473e-06 1.03886e-06 0)
(8.11177e-06 8.88024e-07 0)
(7.08544e-06 7.78552e-07 0)
(6.17511e-06 6.96635e-07 0)
(5.35281e-06 6.34012e-07 0)
(4.59844e-06 5.85474e-07 0)
(3.89701e-06 5.47603e-07 0)
(3.23693e-06 5.18085e-07 0)
(2.60898e-06 4.95322e-07 0)
(2.00556e-06 4.782e-07 0)
(1.42023e-06 4.65947e-07 0)
(8.47305e-07 4.58042e-07 0)
(2.81639e-07 4.54167e-07 0)
(-2.81004e-07 6.12374e-07 0)
(-8.45375e-07 6.17585e-07 0)
(-1.41692e-06 6.28212e-07 0)
(-2.00075e-06 6.44684e-07 0)
(-2.60245e-06 6.67694e-07 0)
(-3.22837e-06 6.98275e-07 0)
(-3.88597e-06 7.37913e-07 0)
(-4.5843e-06 7.88736e-07 0)
(-5.33462e-06 8.53818e-07 0)
(-6.15147e-06 9.37688e-07 0)
(-7.05416e-06 1.04722e-06 0)
(-8.06926e-06 1.19326e-06 0)
(-9.23479e-06 1.39379e-06 0)
(-1.06075e-05 1.68052e-06 0)
(-1.22763e-05 2.11397e-06 0)
(-1.43898e-05 2.82182e-06 0)
(-1.72101e-05 4.11861e-06 0)
(-2.09884e-05 7.04512e-06 0)
(-2.10605e-05 1.61734e-05 0)
(-1.62301e-05 2.00839e-05 0)
(-1.2972e-05 1.8261e-05 0)
(-2.1932e-05 1.22159e-05 0)
(-1.61828e-05 4.73545e-05 0)
(-1.08739e-06 1.38778e-05 0)
(-7.10874e-07 2.31248e-06 0)
(-1.61496e-07 8.53447e-07 0)
(-9.15821e-08 4.82629e-07 0)
(-6.92746e-08 3.68865e-07 0)
(-5.80308e-08 3.08628e-07 0)
(-5.04809e-08 2.70435e-07 0)
(-4.48257e-08 2.42787e-07 0)
(-4.03322e-08 2.22579e-07 0)
(-3.73846e-08 2.07217e-07 0)
(-3.5211e-08 2.01443e-07 0)
(-3.29191e-08 1.96593e-07 0)
(-3.01426e-08 1.92447e-07 0)
(-2.62411e-08 1.88941e-07 0)
(-2.06788e-08 1.86281e-07 0)
(-1.33223e-08 1.84398e-07 0)
(-4.60265e-09 1.83012e-07 0)
(4.60265e-09 1.83012e-07 0)
(1.33223e-08 1.84398e-07 0)
(2.06788e-08 1.86281e-07 0)
(2.62411e-08 1.88941e-07 0)
(3.01426e-08 1.92447e-07 0)
(3.29191e-08 1.96593e-07 0)
(3.5211e-08 2.01443e-07 0)
(3.73846e-08 2.07217e-07 0)
(4.03322e-08 2.22579e-07 0)
(4.48257e-08 2.42787e-07 0)
(5.04809e-08 2.70435e-07 0)
(5.80308e-08 3.08628e-07 0)
(6.92746e-08 3.68865e-07 0)
(9.15821e-08 4.82629e-07 0)
(1.61496e-07 8.53447e-07 0)
(7.10874e-07 2.31248e-06 0)
(1.08739e-06 1.38778e-05 0)
(1.61828e-05 4.73545e-05 0)
(2.1932e-05 1.22159e-05 0)
(1.2972e-05 1.8261e-05 0)
(1.62301e-05 2.00839e-05 0)
(2.10605e-05 1.61734e-05 0)
(2.09884e-05 7.04512e-06 0)
(1.72101e-05 4.11861e-06 0)
(1.43898e-05 2.82182e-06 0)
(1.22763e-05 2.11397e-06 0)
(1.06075e-05 1.68052e-06 0)
(9.23479e-06 1.39379e-06 0)
(8.06926e-06 1.19326e-06 0)
(7.05416e-06 1.04722e-06 0)
(6.15147e-06 9.37688e-07 0)
(5.33462e-06 8.53818e-07 0)
(4.5843e-06 7.88736e-07 0)
(3.88597e-06 7.37913e-07 0)
(3.22837e-06 6.98275e-07 0)
(2.60245e-06 6.67694e-07 0)
(2.00075e-06 6.44684e-07 0)
(1.41692e-06 6.28212e-07 0)
(8.45375e-07 6.17585e-07 0)
(2.81004e-07 6.12374e-07 0)
(-2.80093e-07 7.85418e-07 0)
(-8.42606e-07 7.92075e-07 0)
(-1.41219e-06 8.0565e-07 0)
(-1.99385e-06 8.26684e-07 0)
(-2.59308e-06 8.56058e-07 0)
(-3.2161e-06 8.95077e-07 0)
(-3.87018e-06 9.45618e-07 0)
(-4.56406e-06 1.01036e-06 0)
(-5.30863e-06 1.09317e-06 0)
(-6.11775e-06 1.19971e-06 0)
(-7.00964e-06 1.33854e-06 0)
(-8.00899e-06 1.52303e-06 0)
(-9.15025e-06 1.77515e-06 0)
(-1.0483e-05 2.13301e-06 0)
(-1.20802e-05 2.66779e-06 0)
(-1.40486e-05 3.52491e-06 0)
(-1.65154e-05 5.04116e-06 0)
(-1.92976e-05 8.13183e-06 0)
(-1.92722e-05 1.50997e-05 0)
(-1.58368e-05 1.8628e-05 0)
(-1.36311e-05 1.80467e-05 0)
(-1.81127e-05 1.65122e-05 0)
(-1.02601e-05 3.88331e-05 0)
(4.7397e-06 2.52148e-05 0)
(-2.60222e-06 7.09229e-06 0)
(-6.61961e-06 1.74053e-05 0)
(-5.08605e-07 1.5524e-06 0)
(-1.4368e-07 7.71033e-07 0)
(-9.08446e-08 4.86362e-07 0)
(-7.21502e-08 3.91288e-07 0)
(-6.19564e-08 3.39189e-07 0)
(-5.54263e-08 3.06882e-07 0)
(-5.17626e-08 2.83618e-07 0)
(-4.90964e-08 2.7552e-07 0)
(-4.67891e-08 2.69052e-07 0)
(-4.4129e-08 2.63454e-07 0)
(-3.96344e-08 2.58336e-07 0)
(-3.20695e-08 2.54292e-07 0)
(-2.10609e-08 2.51146e-07 0)
(-7.34347e-09 2.48989e-07 0)
(7.34347e-09 2.48989e-07 0)
(2.10609e-08 2.51146e-07 0)
(3.20695e-08 2.54292e-07 0)
(3.96344e-08 2.58336e-07 0)
(4.4129e-08 2.63454e-07 0)
(4.67891e-08 2.69052e-07 0)
(4.90964e-08 2.7552e-07 0)
(5.17626e-08 2.83618e-07 0)
(5.54263e-08 3.06882e-07 0)
(6.19564e-08 3.39189e-07 0)
(7.21502e-08 3.91288e-07 0)
(9.08446e-08 4.86362e-07 0)
(1.4368e-07 7.71033e-07 0)
(5.08605e-07 1.5524e-06 0)
(6.61961e-06 1.74053e-05 0)
(2.60222e-06 7.09229e-06 0)
(-4.7397e-06 2.52148e-05 0)
(1.02601e-05 3.88331e-05 0)
(1.81127e-05 1.65122e-05 0)
(1.36311e-05 1.80467e-05 0)
(1.58368e-05 1.8628e-05 0)
(1.92722e-05 1.50997e-05 0)
(1.92976e-05 8.13183e-06 0)
(1.65154e-05 5.04116e-06 0)
(1.40486e-05 3.52491e-06 0)
(1.20802e-05 2.66779e-06 0)
(1.0483e-05 2.13301e-06 0)
(9.15025e-06 1.77515e-06 0)
(8.00899e-06 1.52303e-06 0)
(7.00964e-06 1.33854e-06 0)
(6.11775e-06 1.19971e-06 0)
(5.30863e-06 1.09317e-06 0)
(4.56406e-06 1.01036e-06 0)
(3.87018e-06 9.45618e-07 0)
(3.2161e-06 8.95077e-07 0)
(2.59308e-06 8.56058e-07 0)
(1.99385e-06 8.26684e-07 0)
(1.41219e-06 8.0565e-07 0)
(8.42606e-07 7.92075e-07 0)
(2.80093e-07 7.85418e-07 0)
(-2.7884e-07 9.7448e-07 0)
(-8.38798e-07 9.82695e-07 0)
(-1.40568e-06 9.99441e-07 0)
(-1.98437e-06 1.02538e-06 0)
(-2.58022e-06 1.06159e-06 0)
(-3.19926e-06 1.10966e-06 0)
(-3.8485e-06 1.17186e-06 0)
(-4.53634e-06 1.25145e-06 0)
(-5.27308e-06 1.35308e-06 0)
(-6.07173e-06 1.48354e-06 0)
(-6.94909e-06 1.65301e-06 0)
(-7.9274e-06 1.87725e-06 0)
(-9.03663e-06 2.18174e-06 0)
(-1.03176e-05 2.60978e-06 0)
(-1.18245e-05 3.2397e-06 0)
(-1.362e-05 4.22361e-06 0)
(-1.57189e-05 5.88124e-06 0)
(-1.77494e-05 8.90811e-06 0)
(-1.76829e-05 1.42917e-05 0)
(-1.52712e-05 1.7474e-05 0)
(-1.36239e-05 1.7906e-05 0)
(-1.52699e-05 1.86815e-05 0)
(-9.17816e-06 3.19741e-05 0)
(5.91432e-07 2.37763e-05 0)
(-4.41006e-06 1.26762e-05 0)
(-1.33117e-06 3.00543e-05 0)
(-2.96024e-06 6.59025e-06 0)
(-7.67945e-06 1.93021e-05 0)
(-5.364e-07 1.49445e-06 0)
(-1.56794e-07 7.93246e-07 0)
(-9.55898e-08 5.18006e-07 0)
(-7.79055e-08 4.26287e-07 0)
(-7.16105e-08 3.80358e-07 0)
(-6.75349e-08 3.67217e-07 0)
(-6.57736e-08 3.5788e-07 0)
(-6.4748e-08 3.49893e-07 0)
(-6.07564e-08 3.41362e-07 0)
(-5.09319e-08 3.34603e-07 0)
(-3.43355e-08 3.28496e-07 0)
(-1.2105e-08 3.24711e-07 0)
(1.2105e-08 3.24711e-07 0)
(3.43355e-08 3.28496e-07 0)
(5.09319e-08 3.34603e-07 0)
(6.07564e-08 3.41362e-07 0)
(6.4748e-08 3.49893e-07 0)
(6.57736e-08 3.5788e-07 0)
(6.75349e-08 3.67217e-07 0)
(7.16105e-08 3.80358e-07 0)
(7.79055e-08 4.26287e-07 0)
(9.55898e-08 5.18006e-07 0)
(1.56794e-07 7.93246e-07 0)
(5.364e-07 1.49445e-06 0)
(7.67945e-06 1.93021e-05 0)
(2.96024e-06 6.59025e-06 0)
(1.33117e-06 3.00543e-05 0)
(4.41006e-06 1.26762e-05 0)
(-5.91432e-07 2.37763e-05 0)
(9.17816e-06 3.19741e-05 0)
(1.52699e-05 1.86815e-05 0)
(1.36239e-05 1.7906e-05 0)
(1.52712e-05 1.7474e-05 0)
(1.76829e-05 1.42917e-05 0)
(1.77494e-05 8.90811e-06 0)
(1.57189e-05 5.88124e-06 0)
(1.362e-05 4.22361e-06 0)
(1.18245e-05 3.2397e-06 0)
(1.03176e-05 2.60978e-06 0)
(9.03663e-06 2.18174e-06 0)
(7.9274e-06 1.87725e-06 0)
(6.94909e-06 1.65301e-06 0)
(6.07173e-06 1.48354e-06 0)
(5.27308e-06 1.35308e-06 0)
(4.53634e-06 1.25145e-06 0)
(3.8485e-06 1.17186e-06 0)
(3.19926e-06 1.10966e-06 0)
(2.58022e-06 1.06159e-06 0)
(1.98437e-06 1.02538e-06 0)
(1.40568e-06 9.99441e-07 0)
(8.38798e-07 9.82695e-07 0)
(2.7884e-07 9.7448e-07 0)
(-2.77166e-07 1.18076e-06 0)
(-8.33713e-07 1.19064e-06 0)
(-1.39698e-06 1.21077e-06 0)
(-1.97171e-06 1.24195e-06 0)
(-2.56306e-06 1.28545e-06 0)
(-3.17682e-06 1.34314e-06 0)
(-3.81966e-06 1.4177e-06 0)
(-4.49951e-06 1.51295e-06 0)
(-5.22596e-06 1.63431e-06 0)
(-6.01092e-06 1.78966e-06 0)
(-6.86942e-06 1.99065e-06 0)
(-7.82071e-06 2.25512e-06 0)
(-8.88945e-06 2.61131e-06 0)
(-1.01064e-05 3.10596e-06 0)
(-1.15061e-05 3.82016e-06 0)
(-1.311e-05 4.90119e-06 0)
(-1.48543e-05 6.62361e-06 0)
(-1.63268e-05 9.45595e-06 0)
(-1.62477e-05 1.36897e-05 0)
(-1.45505e-05 1.65637e-05 0)
(-1.31837e-05 1.77027e-05 0)
(-1.3168e-05 1.94612e-05 0)
(-8.47445e-06 2.72165e-05 0)
(-2.01892e-06 2.25704e-05 0)
(-3.7759e-06 1.63341e-05 0)
(-2.14661e-06 2.46742e-05 0)
(-3.87333e-06 1.32392e-05 0)
(1.25839e-06 3.29725e-05 0)
(4.95733e-07 7.21922e-06 0)
(-6.63882e-06 1.57652e-05 0)
(-7.9959e-07 1.95467e-06 0)
(-2.16202e-07 9.05987e-07 0)
(-1.32556e-07 6.18993e-07 0)
(-1.05903e-07 5.42785e-07 0)
(-9.84722e-08 4.9798e-07 0)
(-1.00021e-07 4.70632e-07 0)
(-9.81853e-08 4.46038e-07 0)
(-8.55141e-08 4.31864e-07 0)
(-5.96388e-08 4.16745e-07 0)
(-2.12308e-08 4.09031e-07 0)
(2.12308e-08 4.09031e-07 0)
(5.96388e-08 4.16745e-07 0)
(8.55141e-08 4.31864e-07 0)
(9.81853e-08 4.46038e-07 0)
(1.00021e-07 4.70632e-07 0)
(9.84722e-08 4.9798e-07 0)
(1.05903e-07 5.42785e-07 0)
(1.32556e-07 6.18993e-07 0)
(2.16202e-07 9.05987e-07 0)
(7.9959e-07 1.95467e-06 0)
(6.63882e-06 1.57652e-05 0)
(-4.95733e-07 7.21922e-06 0)
(-1.25839e-06 3.29725e-05 0)
(3.87333e-06 1.32392e-05 0)
(2.14661e-06 2.46742e-05 0)
(3.7759e-06 1.63341e-05 0)
(2.01892e-06 2.25704e-05 0)
(8.47445e-06 2.72165e-05 0)
(1.3168e-05 1.94612e-05 0)
(1.31837e-05 1.77027e-05 0)
(1.45505e-05 1.65637e-05 0)
(1.62477e-05 1.36897e-05 0)
(1.63268e-05 9.45595e-06 0)
(1.48543e-05 6.62361e-06 0)
(1.311e-05 4.90119e-06 0)
(1.15061e-05 3.82016e-06 0)
(1.01064e-05 3.10596e-06 0)
(8.88945e-06 2.61131e-06 0)
(7.82071e-06 2.25512e-06 0)
(6.86942e-06 1.99065e-06 0)
(6.01092e-06 1.78966e-06 0)
(5.22596e-06 1.63431e-06 0)
(4.49951e-06 1.51295e-06 0)
(3.81966e-06 1.4177e-06 0)
(3.17682e-06 1.34314e-06 0)
(2.56306e-06 1.28545e-06 0)
(1.97171e-06 1.24195e-06 0)
(1.39698e-06 1.21077e-06 0)
(8.33713e-07 1.19064e-06 0)
(2.77166e-07 1.18076e-06 0)
(-2.74981e-07 1.40542e-06 0)
(-8.27074e-07 1.41707e-06 0)
(-1.38563e-06 1.4408e-06 0)
(-1.9552e-06 1.47753e-06 0)
(-2.5407e-06 1.52871e-06 0)
(-3.14761e-06 1.59652e-06 0)
(-3.78219e-06 1.68403e-06 0)
(-4.45175e-06 1.79559e-06 0)
(-5.16503e-06 1.93735e-06 0)
(-5.93259e-06 2.11813e-06 0)
(-6.76738e-06 2.35086e-06 0)
(-7.68514e-06 2.65494e-06 0)
(-8.70461e-06 3.0604e-06 0)
(-9.84603e-06 3.61526e-06 0)
(-1.11247e-05 4.3986e-06 0)
(-1.25284e-05 5.543e-06 0)
(-1.3949e-05 7.26373e-06 0)
(-1.50115e-05 9.83981e-06 0)
(-1.49292e-05 1.32401e-05 0)
(-1.37078e-05 1.58344e-05 0)
(-1.24874e-05 1.73818e-05 0)
(-1.16016e-05 1.93989e-05 0)
(-7.98095e-06 2.39153e-05 0)
(-3.58463e-06 2.14939e-05 0)
(-3.61529e-06 1.81057e-05 0)
(-2.5113e-06 2.18001e-05 0)
(-2.72649e-06 1.68752e-05 0)
(4.99299e-07 2.5971e-05 0)
(1.53826e-06 1.40757e-05 0)
(5.20335e-06 2.68267e-05 0)
(5.61363e-06 6.67371e-06 0)
(-4.80536e-06 8.88096e-06 0)
(-4.30864e-06 6.26683e-06 0)
(-1.01367e-06 1.69319e-06 0)
(-5.03416e-07 1.12187e-06 0)
(-3.19491e-07 8.72459e-07 0)
(-2.23526e-07 6.91903e-07 0)
(-1.66868e-07 5.8267e-07 0)
(-1.17782e-07 5.18348e-07 0)
(-4.15533e-08 5.0002e-07 0)
(4.15533e-08 5.0002e-07 0)
(1.17782e-07 5.18348e-07 0)
(1.66868e-07 5.8267e-07 0)
(2.23526e-07 6.91903e-07 0)
(3.19491e-07 8.72459e-07 0)
(5.03416e-07 1.12187e-06 0)
(1.01367e-06 1.69319e-06 0)
(4.30864e-06 6.26683e-06 0)
(4.80536e-06 8.88096e-06 0)
(-5.61363e-06 6.67371e-06 0)
(-5.20335e-06 2.68267e-05 0)
(-1.53826e-06 1.40757e-05 0)
(-4.99299e-07 2.5971e-05 0)
(2.72649e-06 1.68752e-05 0)
(2.5113e-06 2.18001e-05 0)
(3.61529e-06 1.81057e-05 0)
(3.58463e-06 2.14939e-05 0)
(7.98095e-06 2.39153e-05 0)
(1.16016e-05 1.93989e-05 0)
(1.24874e-05 1.73818e-05 0)
(1.37078e-05 1.58344e-05 0)
(1.49292e-05 1.32401e-05 0)
(1.50115e-05 9.83981e-06 0)
(1.3949e-05 7.26373e-06 0)
(1.25284e-05 5.543e-06 0)
(1.11247e-05 4.3986e-06 0)
(9.84603e-06 3.61526e-06 0)
(8.70461e-06 3.0604e-06 0)
(7.68514e-06 2.65494e-06 0)
(6.76738e-06 2.35086e-06 0)
(5.93259e-06 2.11813e-06 0)
(5.16503e-06 1.93735e-06 0)
(4.45175e-06 1.79559e-06 0)
(3.78219e-06 1.68403e-06 0)
(3.14761e-06 1.59652e-06 0)
(2.5407e-06 1.52871e-06 0)
(1.9552e-06 1.47753e-06 0)
(1.38563e-06 1.4408e-06 0)
(8.27074e-07 1.41707e-06 0)
(2.74981e-07 1.40542e-06 0)
(-2.72179e-07 1.6496e-06 0)
(-8.18564e-07 1.66311e-06 0)
(-1.37109e-06 1.69061e-06 0)
(-1.93407e-06 1.73313e-06 0)
(-2.51211e-06 1.79234e-06 0)
(-3.11032e-06 1.87066e-06 0)
(-3.73443e-06 1.97154e-06 0)
(-4.39106e-06 2.0998e-06 0)
(-5.08788e-06 2.26224e-06 0)
(-5.83392e-06 2.46844e-06 0)
(-6.63968e-06 2.73226e-06 0)
(-7.51711e-06 3.07404e-06 0)
(-8.47868e-06 3.52439e-06 0)
(-9.53432e-06 4.13021e-06 0)
(-1.06825e-05 4.96426e-06 0)
(-1.18874e-05 6.13763e-06 0)
(-1.3024e-05 7.8047e-06 0)
(-1.37864e-05 1.01073e-05 0)
(-1.36996e-05 1.2897e-05 0)
(-1.27833e-05 1.52295e-05 0)
(-1.166e-05 1.69425e-05 0)
(-1.04033e-05 1.88743e-05 0)
(-7.58709e-06 2.15833e-05 0)
(-4.46059e-06 2.04941e-05 0)
(-3.65477e-06 1.87423e-05 0)
(-2.66059e-06 2.02292e-05 0)
(-2.12257e-06 1.82864e-05 0)
(8.22865e-08 2.21567e-05 0)
(1.4797e-06 1.6795e-05 0)
(3.86061e-06 2.14351e-05 0)
(4.42459e-06 1.16273e-05 0)
(2.81267e-06 1.56546e-05 0)
(4.26303e-06 1.19946e-05 0)
(3.86728e-07 6.52879e-06 0)
(-8.66896e-06 7.36085e-06 0)
(-9.27373e-06 1.00018e-05 0)
(-2.77871e-06 2.48506e-06 0)
(-7.91784e-07 1.00263e-06 0)
(-3.41033e-07 6.33466e-07 0)
(-1.03803e-07 5.98046e-07 0)
(1.03803e-07 5.98046e-07 0)
(3.41033e-07 6.33466e-07 0)
(7.91784e-07 1.00263e-06 0)
(2.77871e-06 2.48506e-06 0)
(9.27373e-06 1.00018e-05 0)
(8.66896e-06 7.36085e-06 0)
(-3.86728e-07 6.52879e-06 0)
(-4.26303e-06 1.19946e-05 0)
(-2.81267e-06 1.56546e-05 0)
(-4.42459e-06 1.16273e-05 0)
(-3.86061e-06 2.14351e-05 0)
(-1.4797e-06 1.6795e-05 0)
(-8.22865e-08 2.21567e-05 0)
(2.12257e-06 1.82864e-05 0)
(2.66059e-06 2.02292e-05 0)
(3.65477e-06 1.87423e-05 0)
(4.46059e-06 2.04941e-05 0)
(7.58709e-06 2.15833e-05 0)
(1.04033e-05 1.88743e-05 0)
(1.166e-05 1.69425e-05 0)
(1.27833e-05 1.52295e-05 0)
(1.36996e-05 1.2897e-05 0)
(1.37864e-05 1.01073e-05 0)
(1.3024e-05 7.8047e-06 0)
(1.18874e-05 6.13763e-06 0)
(1.06825e-05 4.96426e-06 0)
(9.53432e-06 4.13021e-06 0)
(8.47868e-06 3.52439e-06 0)
(7.51711e-06 3.07404e-06 0)
(6.63968e-06 2.73226e-06 0)
(5.83392e-06 2.46844e-06 0)
(5.08788e-06 2.26224e-06 0)
(4.39106e-06 2.0998e-06 0)
(3.73443e-06 1.97154e-06 0)
(3.11032e-06 1.87066e-06 0)
(2.51211e-06 1.79234e-06 0)
(1.93407e-06 1.73313e-06 0)
(1.37109e-06 1.69061e-06 0)
(8.18564e-07 1.66311e-06 0)
(2.72179e-07 1.6496e-06 0)
(-2.68642e-07 1.91431e-06 0)
(-8.07825e-07 1.92973e-06 0)
(-1.35276e-06 1.96112e-06 0)
(-1.90744e-06 2.00963e-06 0)
(-2.47614e-06 2.07707e-06 0)
(-3.06349e-06 2.16612e-06 0)
(-3.67462e-06 2.28055e-06 0)
(-4.3153e-06 2.42559e-06 0)
(-4.99202e-06 2.60848e-06 0)
(-5.71203e-06 2.83938e-06 0)
(-6.48324e-06 3.13262e-06 0)
(-7.31358e-06 3.50874e-06 0)
(-8.20938e-06 3.99757e-06 0)
(-9.17125e-06 4.64268e-06 0)
(-1.01847e-05 5.50708e-06 0)
(-1.11998e-05 6.67741e-06 0)
(-1.2095e-05 8.25421e-06 0)
(-1.26369e-05 1.02914e-05 0)
(-1.25405e-05 1.2623e-05 0)
(-1.18167e-05 1.4705e-05 0)
(-1.0783e-05 1.64129e-05 0)
(-9.44549e-06 1.81319e-05 0)
(-7.22604e-06 1.98737e-05 0)
(-4.89076e-06 1.95474e-05 0)
(-3.74113e-06 1.87238e-05 0)
(-2.72005e-06 1.92605e-05 0)
(-1.84127e-06 1.85538e-05 0)
(-1.90492e-07 2.00141e-05 0)
(1.19061e-06 1.75776e-05 0)
(2.80328e-06 1.87146e-05 0)
(3.25828e-06 1.38514e-05 0)
(2.34335e-06 1.46519e-05 0)
(2.32357e-06 1.27494e-05 0)
(8.32105e-07 1.15657e-05 0)
(-4.29546e-07 1.32932e-05 0)
(1.29759e-06 1.65853e-05 0)
(-2.03367e-07 8.10912e-06 0)
(-2.51808e-06 2.37716e-06 0)
(-9.96714e-07 9.02743e-07 0)
(-2.9262e-07 6.86985e-07 0)
(2.9262e-07 6.86985e-07 0)
(9.96714e-07 9.02743e-07 0)
(2.51808e-06 2.37716e-06 0)
(2.03367e-07 8.10912e-06 0)
(-1.29759e-06 1.65853e-05 0)
(4.29546e-07 1.32932e-05 0)
(-8.32105e-07 1.15657e-05 0)
(-2.32357e-06 1.27494e-05 0)
(-2.34335e-06 1.46519e-05 0)
(-3.25828e-06 1.38514e-05 0)
(-2.80328e-06 1.87146e-05 0)
(-1.19061e-06 1.75776e-05 0)
(1.90492e-07 2.00141e-05 0)
(1.84127e-06 1.85538e-05 0)
(2.72005e-06 1.92605e-05 0)
(3.74113e-06 1.87238e-05 0)
(4.89076e-06 1.95474e-05 0)
(7.22604e-06 1.98737e-05 0)
(9.44549e-06 1.81319e-05 0)
(1.0783e-05 1.64129e-05 0)
(1.18167e-05 1.4705e-05 0)
(1.25405e-05 1.2623e-05 0)
(1.26369e-05 1.02914e-05 0)
(1.2095e-05 8.25421e-06 0)
(1.11998e-05 6.67741e-06 0)
(1.01847e-05 5.50708e-06 0)
(9.17125e-06 4.64268e-06 0)
(8.20938e-06 3.99757e-06 0)
(7.31358e-06 3.50874e-06 0)
(6.48324e-06 3.13262e-06 0)
(5.71203e-06 2.83938e-06 0)
(4.99201e-06 2.60848e-06 0)
(4.3153e-06 2.42559e-06 0)
(3.67462e-06 2.28055e-06 0)
(3.06349e-06 2.16612e-06 0)
(2.47614e-06 2.07707e-06 0)
(1.90744e-06 2.00963e-06 0)
(1.35276e-06 1.96112e-06 0)
(8.07825e-07 1.92973e-06 0)
(2.68642e-07 1.91431e-06 0)
(-2.6424e-07 2.20036e-06 0)
(-7.94465e-07 2.21773e-06 0)
(-1.32996e-06 2.25308e-06 0)
(-1.87438e-06 2.30763e-06 0)
(-2.43155e-06 2.38337e-06 0)
(-3.00558e-06 2.48315e-06 0)
(-3.60089e-06 2.61099e-06 0)
(-4.22229e-06 2.77241e-06 0)
(-4.87496e-06 2.97494e-06 0)
(-5.56426e-06 3.22896e-06 0)
(-6.29538e-06 3.5488e-06 0)
(-7.07234e-06 3.95436e-06 0)
(-7.89583e-06 4.47343e-06 0)
(-8.75886e-06 5.14435e-06 0)
(-9.6381e-06 6.01844e-06 0)
(-1.04787e-05 7.15827e-06 0)
(-1.11732e-05 8.62201e-06 0)
(-1.15517e-05 1.04138e-05 0)
(-1.14417e-05 1.23893e-05 0)
(-1.08417e-05 1.42309e-05 0)
(-9.90467e-06 1.58311e-05 0)
(-8.63755e-06 1.73167e-05 0)
(-6.86189e-06 1.85545e-05 0)
(-5.03646e-06 1.8645e-05 0)
(-3.80051e-06 1.8343e-05 0)
(-2.74612e-06 1.85259e-05 0)
(-1.74508e-06 1.82759e-05 0)
(-4.15506e-07 1.86995e-05 0)
(8.09827e-07 1.74964e-05 0)
(1.962e-06 1.73225e-05 0)
(2.35585e-06 1.47892e-05 0)
(1.87344e-06 1.44538e-05 0)
(1.60603e-06 1.35561e-05 0)
(1.00058e-06 1.32433e-05 0)
(5.22033e-07 1.36746e-05 0)
(5.44376e-07 1.41852e-05 0)
(9.38701e-09 1.29864e-05 0)
(-8.39494e-07 3.38964e-06 0)
(-8.93061e-07 9.17414e-07 0)
(-3.88818e-07 6.09196e-07 0)
(3.88818e-07 6.09196e-07 0)
(8.93061e-07 9.17414e-07 0)
(8.39494e-07 3.38964e-06 0)
(-9.38701e-09 1.29864e-05 0)
(-5.44376e-07 1.41852e-05 0)
(-5.22033e-07 1.36746e-05 0)
(-1.00058e-06 1.32433e-05 0)
(-1.60603e-06 1.35561e-05 0)
(-1.87344e-06 1.44538e-05 0)
(-2.35585e-06 1.47892e-05 0)
(-1.962e-06 1.73225e-05 0)
(-8.09827e-07 1.74964e-05 0)
(4.15506e-07 1.86995e-05 0)
(1.74508e-06 1.82759e-05 0)
(2.74612e-06 1.85259e-05 0)
(3.80051e-06 1.8343e-05 0)
(5.03646e-06 1.8645e-05 0)
(6.86189e-06 1.85545e-05 0)
(8.63755e-06 1.73167e-05 0)
(9.90467e-06 1.58311e-05 0)
(1.08417e-05 1.42309e-05 0)
(1.14417e-05 1.23893e-05 0)
(1.15517e-05 1.04138e-05 0)
(1.11732e-05 8.62201e-06 0)
(1.04787e-05 7.15827e-06 0)
(9.6381e-06 6.01844e-06 0)
(8.75886e-06 5.14435e-06 0)
(7.89583e-06 4.47343e-06 0)
(7.07234e-06 3.95436e-06 0)
(6.29538e-06 3.5488e-06 0)
(5.56426e-06 3.22896e-06 0)
(4.87496e-06 2.97494e-06 0)
(4.22229e-06 2.77241e-06 0)
(3.60089e-06 2.61099e-06 0)
(3.00558e-06 2.48315e-06 0)
(2.43155e-06 2.38337e-06 0)
(1.87438e-06 2.30763e-06 0)
(1.32996e-06 2.25308e-06 0)
(7.94465e-07 2.21773e-06 0)
(2.6424e-07 2.20036e-06 0)
(-2.58834e-07 2.5083e-06 0)
(-7.78065e-07 2.52762e-06 0)
(-1.30201e-06 2.56689e-06 0)
(-1.8339e-06 2.62743e-06 0)
(-2.37708e-06 2.7113e-06 0)
(-2.93502e-06 2.82151e-06 0)
(-3.51139e-06 2.96223e-06 0)
(-4.10994e-06 3.1391e-06 0)
(-4.73444e-06 3.35973e-06 0)
(-5.38834e-06 3.63435e-06 0)
(-6.07417e-06 3.97676e-06 0)
(-6.79234e-06 4.40543e-06 0)
(-7.53884e-06 4.94499e-06 0)
(-8.30117e-06 5.62738e-06 0)
(-9.0514e-06 6.49166e-06 0)
(-9.73614e-06 7.57924e-06 0)
(-1.02667e-05 8.91812e-06 0)
(-1.0523e-05 1.04883e-05 0)
(-1.03986e-05 1.21764e-05 0)
(-9.88389e-06 1.37897e-05 0)
(-9.05051e-06 1.52324e-05 0)
(-7.91966e-06 1.65067e-05 0)
(-6.47895e-06 1.74791e-05 0)
(-5.00122e-06 1.77842e-05 0)
(-3.80555e-06 1.77726e-05 0)
(-2.75705e-06 1.78578e-05 0)
(-1.74829e-06 1.776e-05 0)
(-6.27815e-07 1.77781e-05 0)
(4.16387e-07 1.70861e-05 0)
(1.29019e-06 1.65471e-05 0)
(1.656e-06 1.51179e-05 0)
(1.45921e-06 1.45174e-05 0)
(1.2464e-06 1.4046e-05 0)
(9.72779e-07 1.3898e-05 0)
(7.26669e-07 1.3966e-05 0)
(5.67834e-07 1.40858e-05 0)
(3.54133e-07 1.40588e-05 0)
(1.32604e-08 3.37341e-06 0)
(-2.95343e-07 4.57708e-07 0)
(-2.08188e-07 3.30274e-07 0)
(2.08188e-07 3.30274e-07 0)
(2.95343e-07 4.57708e-07 0)
(-1.32604e-08 3.37341e-06 0)
(-3.54133e-07 1.40588e-05 0)
(-5.67834e-07 1.40858e-05 0)
(-7.26669e-07 1.3966e-05 0)
(-9.72779e-07 1.3898e-05 0)
(-1.2464e-06 1.4046e-05 0)
(-1.45921e-06 1.45174e-05 0)
(-1.656e-06 1.51179e-05 0)
(-1.29019e-06 1.65471e-05 0)
(-4.16387e-07 1.70861e-05 0)
(6.27815e-07 1.77781e-05 0)
(1.74829e-06 1.776e-05 0)
(2.75705e-06 1.78578e-05 0)
(3.80555e-06 1.77726e-05 0)
(5.00122e-06 1.77842e-05 0)
(6.47895e-06 1.74791e-05 0)
(7.91966e-06 1.65067e-05 0)
(9.05051e-06 1.52324e-05 0)
(9.88389e-06 1.37897e-05 0)
(1.03986e-05 1.21764e-05 0)
(1.0523e-05 1.04883e-05 0)
(1.02667e-05 8.91812e-06 0)
(9.73614e-06 7.57924e-06 0)
(9.0514e-06 6.49166e-06 0)
(8.30117e-06 5.62738e-06 0)
(7.53884e-06 4.94499e-06 0)
(6.79234e-06 4.40543e-06 0)
(6.07417e-06 3.97676e-06 0)
(5.38834e-06 3.63435e-06 0)
(4.73444e-06 3.35973e-06 0)
(4.10994e-06 3.1391e-06 0)
(3.51139e-06 2.96223e-06 0)
(2.93502e-06 2.82151e-06 0)
(2.37708e-06 2.7113e-06 0)
(1.8339e-06 2.62743e-06 0)