/*--------------------------------*- C++ -*----------------------------------*\
  =========                 |
  \\      /  F ield         | OpenFOAM: The Open Source CFD Toolbox
   \\    /   O peration     | Website:  https://openfoam.org
    \\  /    A nd           | Version:  10
     \\/     M anipulation  |
\*---------------------------------------------------------------------------*/
FoamFile
{
    format      ascii;
    class       volVectorField;
    location    "7750";
    object      Ub;
}
// * * * * * * * * * * * * * * * * * * * * * * * * * * * * * * * * * * * * * //

dimensions      [0 1 -1 0 0 0 0];

internalField   nonuniform List<vector> 
3200
(
(-4.50132e-21 -9.87892e-16 0)
(-1.34423e-20 -9.87892e-16 0)
(-2.22773e-20 -9.87892e-16 0)
(-3.10399e-20 -9.87892e-16 0)
(-3.97612e-20 -9.87892e-16 0)
(-4.84704e-20 -9.87892e-16 0)
(-5.71953e-20 -9.87892e-16 0)
(-6.59625e-20 -9.87891e-16 0)
(-7.47977e-20 -9.87891e-16 0)
(-8.37261e-20 -9.87891e-16 0)
(-9.27727e-20 -9.87891e-16 0)
(-1.01962e-19 -9.8789e-16 0)
(-1.1132e-19 -9.8789e-16 0)
(-1.20871e-19 -9.8789e-16 0)
(-1.30641e-19 -9.87889e-16 0)
(-1.40658e-19 -9.87889e-16 0)
(-1.5095e-19 -9.87889e-16 0)
(-1.61549e-19 -9.87888e-16 0)
(-1.72489e-19 -9.87888e-16 0)
(-1.8381e-19 -9.87887e-16 0)
(-1.95558e-19 -9.87886e-16 0)
(-2.07792e-19 -9.87886e-16 0)
(-2.20584e-19 -9.87885e-16 0)
(-2.34032e-19 -9.87884e-16 0)
(-2.48272e-19 -9.87882e-16 0)
(-2.63492e-19 -9.87881e-16 0)
(-2.79963e-19 -9.87879e-16 0)
(-2.98083e-19 -9.87876e-16 0)
(-3.18439e-19 -9.87873e-16 0)
(-3.41907e-19 -9.87868e-16 0)
(-3.69809e-19 -9.87861e-16 0)
(-4.04153e-19 -9.87851e-16 0)
(-4.48009e-19 -9.87835e-16 0)
(-5.06107e-19 -9.87812e-16 0)
(-5.85785e-19 -9.87776e-16 0)
(-6.98506e-19 -9.8772e-16 0)
(-2.45403e-14 -9.87632e-16 0)
(-1.00802e-05 -2.38883e-11 0)
(-4.6591e-05 -7.74878e-05 0)
(-7.47276e-05 -1.08533e-05 0)
(-4.46357e-21 -9.87879e-16 0)
(-1.33292e-20 -9.87879e-16 0)
(-2.20887e-20 -9.87879e-16 0)
(-3.07746e-20 -9.87879e-16 0)
(-3.94172e-20 -9.87878e-16 0)
(-4.80448e-20 -9.87878e-16 0)
(-5.66842e-20 -9.87878e-16 0)
(-6.53614e-20 -9.87877e-16 0)
(-7.41009e-20 -9.87876e-16 0)
(-8.29273e-20 -9.87876e-16 0)
(-9.18641e-20 -9.87875e-16 0)
(-1.00935e-19 -9.87874e-16 0)
(-1.10164e-19 -9.87873e-16 0)
(-1.19575e-19 -9.87872e-16 0)
(-1.2919e-19 -9.87871e-16 0)
(-1.39036e-19 -9.8787e-16 0)
(-1.49136e-19 -9.87869e-16 0)
(-1.59515e-19 -9.87867e-16 0)
(-1.702e-19 -9.87866e-16 0)
(-1.81216e-19 -9.87864e-16 0)
(-1.92591e-19 -9.87862e-16 0)
(-2.0435e-19 -9.8786e-16 0)
(-2.16521e-19 -9.87857e-16 0)
(-2.29125e-19 -9.87855e-16 0)
(-2.42182e-19 -9.87851e-16 0)
(-2.55698e-19 -9.87848e-16 0)
(-2.69659e-19 -9.87843e-16 0)
(-2.84009e-19 -9.87837e-16 0)
(-2.98619e-19 -9.8783e-16 0)
(-3.13219e-19 -9.8782e-16 0)
(-3.27288e-19 -9.87807e-16 0)
(-3.39851e-19 -9.87788e-16 0)
(-3.49115e-19 -9.87763e-16 0)
(-3.51824e-19 -9.87728e-16 0)
(-3.42128e-19 -9.87677e-16 0)
(-3.0959e-19 -9.87605e-16 0)
(-2.35717e-19 -9.87502e-16 0)
(-9.25097e-20 -9.87347e-16 0)
(1.52567e-20 -9.7112e-16 0)
(-4.11456e-07 -1.29567e-09 0)
(-4.38918e-21 -9.87866e-16 0)
(-1.31063e-20 -9.87866e-16 0)
(-2.1717e-20 -9.87866e-16 0)
(-3.02519e-20 -9.87866e-16 0)
(-3.87395e-20 -9.87865e-16 0)
(-4.72066e-20 -9.87864e-16 0)
(-5.56782e-20 -9.87864e-16 0)
(-6.41784e-20 -9.87863e-16 0)
(-7.27305e-20 -9.87862e-16 0)
(-8.13567e-20 -9.87861e-16 0)
(-9.00792e-20 -9.8786e-16 0)
(-9.89194e-20 -9.87858e-16 0)
(-1.07899e-19 -9.87857e-16 0)
(-1.17038e-19 -9.87855e-16 0)
(-1.26358e-19 -9.87853e-16 0)
(-1.35878e-19 -9.87852e-16 0)
(-1.4562e-19 -9.87849e-16 0)
(-1.556e-19 -9.87847e-16 0)
(-1.65835e-19 -9.87845e-16 0)
(-1.76337e-19 -9.87842e-16 0)
(-1.87114e-19 -9.87839e-16 0)
(-1.98165e-19 -9.87835e-16 0)
(-2.09473e-19 -9.87832e-16 0)
(-2.21004e-19 -9.87828e-16 0)
(-2.32688e-19 -9.87824e-16 0)
(-2.44411e-19 -9.87819e-16 0)
(-2.55988e-19 -9.87814e-16 0)
(-2.67131e-19 -9.87807e-16 0)
(-2.77408e-19 -9.87801e-16 0)
(-2.86179e-19 -9.87793e-16 0)
(-2.9253e-19 -9.87784e-16 0)
(-2.95182e-19 -9.87774e-16 0)
(-2.92417e-19 -9.87762e-16 0)
(-2.82047e-19 -9.87749e-16 0)
(-2.61505e-19 -9.87735e-16 0)
(-2.28259e-19 -9.87723e-16 0)
(-1.80845e-19 -9.87715e-16 0)
(-1.2116e-19 -9.87719e-16 0)
(-7.41133e-15 -9.87749e-16 0)
(-1.83864e-15 -5.24128e-10 0)
(-4.28032e-21 -9.87854e-16 0)
(-1.27802e-20 -9.87854e-16 0)
(-2.11732e-20 -9.87853e-16 0)
(-2.94874e-20 -9.87853e-16 0)
(-3.77487e-20 -9.87852e-16 0)
(-4.59813e-20 -9.87851e-16 0)
(-5.42082e-20 -9.8785e-16 0)
(-6.2451e-20 -9.87849e-16 0)
(-7.07305e-20 -9.87848e-16 0)
(-7.90666e-20 -9.87846e-16 0)
(-8.74787e-20 -9.87845e-16 0)
(-9.59858e-20 -9.87843e-16 0)
(-1.04606e-19 -9.87841e-16 0)
(-1.13359e-19 -9.87839e-16 0)
(-1.2226e-19 -9.87836e-16 0)
(-1.31328e-19 -9.87834e-16 0)
(-1.40578e-19 -9.87831e-16 0)
(-1.50025e-19 -9.87828e-16 0)
(-1.59681e-19 -9.87825e-16 0)
(-1.69557e-19 -9.87821e-16 0)
(-1.79654e-19 -9.87817e-16 0)
(-1.89971e-19 -9.87813e-16 0)
(-2.00491e-19 -9.87808e-16 0)
(-2.11183e-19 -9.87804e-16 0)
(-2.21991e-19 -9.87799e-16 0)
(-2.32826e-19 -9.87793e-16 0)
(-2.43551e-19 -9.87788e-16 0)
(-2.53964e-19 -9.87783e-16 0)
(-2.63774e-19 -9.87778e-16 0)
(-2.72569e-19 -9.87773e-16 0)
(-2.79781e-19 -9.8777e-16 0)
(-2.84639e-19 -9.87769e-16 0)
(-2.86114e-19 -9.8777e-16 0)
(-2.82856e-19 -9.87776e-16 0)
(-2.73126e-19 -9.87788e-16 0)
(-2.54717e-19 -9.87808e-16 0)
(-2.24859e-19 -9.87839e-16 0)
(-1.80084e-19 -9.87883e-16 0)
(-2.57275e-14 -9.87943e-16 0)
(-2.06376e-14 -1.67159e-09 0)
(-4.1401e-21 -9.87842e-16 0)
(-1.23602e-20 -9.87841e-16 0)
(-2.0473e-20 -9.87841e-16 0)
(-2.85032e-20 -9.8784e-16 0)
(-3.64736e-20 -9.8784e-16 0)
(-4.44056e-20 -9.87839e-16 0)
(-5.23189e-20 -9.87837e-16 0)
(-6.02323e-20 -9.87836e-16 0)
(-6.81637e-20 -9.87834e-16 0)
(-7.61299e-20 -9.87833e-16 0)
(-8.41475e-20 -9.87831e-16 0)
(-9.22324e-20 -9.87828e-16 0)
(-1.004e-19 -9.87826e-16 0)
(-1.08665e-19 -9.87823e-16 0)
(-1.17044e-19 -9.8782e-16 0)
(-1.2555e-19 -9.87817e-16 0)
(-1.34198e-19 -9.87814e-16 0)
(-1.43002e-19 -9.8781e-16 0)
(-1.51977e-19 -9.87806e-16 0)
(-1.61137e-19 -9.87801e-16 0)
(-1.70495e-19 -9.87797e-16 0)
(-1.80067e-19 -9.87792e-16 0)
(-1.89867e-19 -9.87786e-16 0)
(-1.99913e-19 -9.87781e-16 0)
(-2.10226e-19 -9.87775e-16 0)
(-2.20835e-19 -9.87769e-16 0)
(-2.3178e-19 -9.87763e-16 0)
(-2.43123e-19 -9.87758e-16 0)
(-2.54956e-19 -9.87752e-16 0)
(-2.67416e-19 -9.87748e-16 0)
(-2.80696e-19 -9.87746e-16 0)
(-2.95056e-19 -9.87746e-16 0)
(-3.10798e-19 -9.8775e-16 0)
(-3.28195e-19 -9.8776e-16 0)
(-3.47278e-19 -9.87779e-16 0)
(-3.67353e-19 -9.87812e-16 0)
(-3.86005e-19 -9.87866e-16 0)
(-3.97112e-19 -9.8795e-16 0)
(-6.16081e-13 -2.01409e-15 0)
(-6.05262e-13 -2.52659e-05 0)
(-3.9724e-21 -9.8783e-16 0)
(-1.1858e-20 -9.8783e-16 0)
(-1.96359e-20 -9.87829e-16 0)
(-2.73272e-20 -9.87828e-16 0)
(-3.4951e-20 -9.87828e-16 0)
(-4.2525e-20 -9.87826e-16 0)
(-5.00658e-20 -9.87825e-16 0)
(-5.75886e-20 -9.87823e-16 0)
(-6.51079e-20 -9.87822e-16 0)
(-7.26374e-20 -9.87819e-16 0)
(-8.01899e-20 -9.87817e-16 0)
(-8.77779e-20 -9.87815e-16 0)
(-9.54135e-20 -9.87812e-16 0)
(-1.03108e-19 -9.87809e-16 0)
(-1.10875e-19 -9.87805e-16 0)
(-1.18724e-19 -9.87802e-16 0)
(-1.26669e-19 -9.87798e-16 0)
(-1.34724e-19 -9.87793e-16 0)
(-1.42904e-19 -9.87789e-16 0)
(-1.51227e-19 -9.87784e-16 0)
(-1.59715e-19 -9.87778e-16 0)
(-1.68399e-19 -9.87772e-16 0)
(-1.77317e-19 -9.87766e-16 0)
(-1.86526e-19 -9.8776e-16 0)
(-1.96102e-19 -9.87753e-16 0)
(-2.06162e-19 -9.87745e-16 0)
(-2.16873e-19 -9.87738e-16 0)
(-2.28486e-19 -9.8773e-16 0)
(-2.41376e-19 -9.87722e-16 0)
(-2.56114e-19 -9.87713e-16 0)
(-2.7357e-19 -9.87705e-16 0)
(-2.9509e-19 -9.87697e-16 0)
(-3.22783e-19 -9.87689e-16 0)
(-3.59999e-19 -9.8768e-16 0)
(-4.12136e-19 -9.87672e-16 0)
(-4.88034e-19 -9.87663e-16 0)
(-6.02353e-19 -9.87653e-16 0)
(-1.70355e-18 -9.87642e-16 0)
(-4.07698e-07 -8.1203e-10 0)
(-3.58427e-07 -0.000174229 0)
(-3.78175e-21 -9.87819e-16 0)
(-1.12871e-20 -9.87818e-16 0)
(-1.86848e-20 -9.87818e-16 0)
(-2.59916e-20 -9.87817e-16 0)
(-3.32228e-20 -9.87816e-16 0)
(-4.03924e-20 -9.87815e-16 0)
(-4.7513e-20 -9.87813e-16 0)
(-5.45964e-20 -9.87811e-16 0)
(-6.16532e-20 -9.87809e-16 0)
(-6.86933e-20 -9.87807e-16 0)
(-7.57258e-20 -9.87805e-16 0)
(-8.27592e-20 -9.87802e-16 0)
(-8.98015e-20 -9.87799e-16 0)
(-9.68603e-20 -9.87795e-16 0)
(-1.03943e-19 -9.87791e-16 0)
(-1.11058e-19 -9.87787e-16 0)
(-1.18213e-19 -9.87783e-16 0)
(-1.25418e-19 -9.87778e-16 0)
(-1.32683e-19 -9.87773e-16 0)
(-1.40024e-19 -9.87768e-16 0)
(-1.47457e-19 -9.87762e-16 0)
(-1.55008e-19 -9.87755e-16 0)
(-1.62709e-19 -9.87748e-16 0)
(-1.70604e-19 -9.87741e-16 0)
(-1.78754e-19 -9.87733e-16 0)
(-1.8724e-19 -9.87724e-16 0)
(-1.96169e-19 -9.87715e-16 0)
(-2.0568e-19 -9.87704e-16 0)
(-2.1595e-19 -9.87693e-16 0)
(-2.27188e-19 -9.8768e-16 0)
(-2.39625e-19 -9.87666e-16 0)
(-2.53471e-19 -9.87648e-16 0)
(-2.68819e-19 -9.87628e-16 0)
(-2.85438e-19 -9.87602e-16 0)
(-3.02375e-19 -9.87569e-16 0)
(-3.17165e-19 -9.87524e-16 0)
(-3.24361e-19 -9.87462e-16 0)
(-2.84937e-13 -9.8741e-16 0)
(-3.08326e-06 -1.5189e-08 0)
(-2.03864e-06 -0.000320214 0)
(-3.57303e-21 -9.87808e-16 0)
(-1.06622e-20 -9.87808e-16 0)
(-1.76442e-20 -9.87807e-16 0)
(-2.45314e-20 -9.87806e-16 0)
(-3.1335e-20 -9.87805e-16 0)
(-3.8065e-20 -9.87804e-16 0)
(-4.47303e-20 -9.87802e-16 0)
(-5.13388e-20 -9.878e-16 0)
(-5.78973e-20 -9.87798e-16 0)
(-6.44116e-20 -9.87796e-16 0)
(-7.08868e-20 -9.87793e-16 0)
(-7.73271e-20 -9.8779e-16 0)
(-8.37359e-20 -9.87787e-16 0)
(-9.01159e-20 -9.87783e-16 0)
(-9.64694e-20 -9.87779e-16 0)
(-1.02798e-19 -9.87775e-16 0)
(-1.09104e-19 -9.8777e-16 0)
(-1.15388e-19 -9.87765e-16 0)
(-1.21653e-19 -9.8776e-16 0)
(-1.27901e-19 -9.87754e-16 0)
(-1.34134e-19 -9.87747e-16 0)
(-1.40359e-19 -9.87741e-16 0)
(-1.46579e-19 -9.87733e-16 0)
(-1.52802e-19 -9.87725e-16 0)
(-1.59034e-19 -9.87717e-16 0)
(-1.65279e-19 -9.87707e-16 0)
(-1.71532e-19 -9.87697e-16 0)
(-1.77777e-19 -9.87685e-16 0)
(-1.83966e-19 -9.87673e-16 0)
(-1.90005e-19 -9.87659e-16 0)
(-1.95717e-19 -9.87643e-16 0)
(-2.00799e-19 -9.87624e-16 0)
(-2.04755e-19 -9.87603e-16 0)
(-2.06817e-19 -9.87579e-16 0)
(-2.05858e-19 -9.87551e-16 0)
(-2.00328e-19 -9.87518e-16 0)
(-1.88306e-19 -9.87482e-16 0)
(-3.05588e-12 -9.8763e-16 0)
(-2.0504e-06 -5.75949e-08 0)
(-1.37416e-06 -0.000353694 0)
(-3.35131e-21 -9.87798e-16 0)
(-9.99864e-21 -9.87798e-16 0)
(-1.65397e-20 -9.87797e-16 0)
(-2.29827e-20 -9.87796e-16 0)
(-2.93347e-20 -9.87795e-16 0)
(-3.5602e-20 -9.87794e-16 0)
(-4.17897e-20 -9.87792e-16 0)
(-4.79018e-20 -9.8779e-16 0)
(-5.39415e-20 -9.87788e-16 0)
(-5.99106e-20 -9.87785e-16 0)
(-6.58102e-20 -9.87782e-16 0)
(-7.164e-20 -9.87779e-16 0)
(-7.7399e-20 -9.87776e-16 0)
(-8.30846e-20 -9.87772e-16 0)
(-8.86936e-20 -9.87768e-16 0)
(-9.42212e-20 -9.87764e-16 0)
(-9.96617e-20 -9.87759e-16 0)
(-1.05008e-19 -9.87754e-16 0)
(-1.1025e-19 -9.87748e-16 0)
(-1.15379e-19 -9.87742e-16 0)
(-1.20381e-19 -9.87736e-16 0)
(-1.25239e-19 -9.87729e-16 0)
(-1.29934e-19 -9.87722e-16 0)
(-1.34436e-19 -9.87714e-16 0)
(-1.38711e-19 -9.87705e-16 0)
(-1.42709e-19 -9.87696e-16 0)
(-1.46362e-19 -9.87686e-16 0)
(-1.49576e-19 -9.87675e-16 0)
(-1.52225e-19 -9.87663e-16 0)
(-1.54133e-19 -9.8765e-16 0)
(-1.55067e-19 -9.87635e-16 0)
(-1.54724e-19 -9.8762e-16 0)
(-1.52717e-19 -9.87603e-16 0)
(-1.48583e-19 -9.87585e-16 0)
(-1.4179e-19 -9.87565e-16 0)
(-1.31793e-19 -9.87545e-16 0)
(-1.18126e-19 -9.87525e-16 0)
(-5.93904e-12 -9.87982e-16 0)
(-1.31754e-06 -1.21763e-07 0)
(-8.02322e-07 -0.00037193 0)
(-3.12157e-21 -9.87789e-16 0)
(-9.31128e-21 -9.87788e-16 0)
(-1.53964e-20 -9.87788e-16 0)
(-2.1381e-20 -9.87787e-16 0)
(-2.72686e-20 -9.87786e-16 0)
(-3.30616e-20 -9.87784e-16 0)
(-3.87619e-20 -9.87782e-16 0)
(-4.43699e-20 -9.8778e-16 0)
(-4.98853e-20 -9.87778e-16 0)
(-5.53065e-20 -9.87776e-16 0)
(-6.06308e-20 -9.87773e-16 0)
(-6.58542e-20 -9.8777e-16 0)
(-7.09713e-20 -9.87766e-16 0)
(-7.59752e-20 -9.87762e-16 0)
(-8.08575e-20 -9.87758e-16 0)
(-8.5608e-20 -9.87754e-16 0)
(-9.02145e-20 -9.87749e-16 0)
(-9.46624e-20 -9.87744e-16 0)
(-9.89345e-20 -9.87739e-16 0)
(-1.0301e-19 -9.87733e-16 0)
(-1.06865e-19 -9.87727e-16 0)
(-1.1047e-19 -9.8772e-16 0)
(-1.1379e-19 -9.87713e-16 0)
(-1.1678e-19 -9.87706e-16 0)
(-1.19387e-19 -9.87698e-16 0)
(-1.21547e-19 -9.87689e-16 0)
(-1.23178e-19 -9.8768e-16 0)
(-1.24184e-19 -9.87671e-16 0)
(-1.24445e-19 -9.8766e-16 0)
(-1.23822e-19 -9.87649e-16 0)
(-1.2215e-19 -9.87638e-16 0)
(-1.19246e-19 -9.87626e-16 0)
(-1.14913e-19 -9.87613e-16 0)
(-1.08954e-19 -9.876e-16 0)
(-1.01191e-19 -9.87588e-16 0)
(-9.14894e-20 -9.87575e-16 0)
(-7.98216e-20 -9.87564e-16 0)
(-7.52098e-12 -9.88443e-16 0)
(-9.12834e-07 -1.99151e-07 0)
(-3.92928e-07 -0.000384284 0)
(-2.88852e-21 -9.8778e-16 0)
(-8.61425e-21 -9.8778e-16 0)
(-1.42378e-20 -9.87779e-16 0)
(-1.97597e-20 -9.87778e-16 0)
(-2.518e-20 -9.87777e-16 0)
(-3.04981e-20 -9.87775e-16 0)
(-3.57127e-20 -9.87774e-16 0)
(-4.08214e-20 -9.87772e-16 0)
(-4.58209e-20 -9.87769e-16 0)
(-5.07067e-20 -9.87767e-16 0)
(-5.54731e-20 -9.87764e-16 0)
(-6.01131e-20 -9.87761e-16 0)
(-6.4618e-20 -9.87758e-16 0)
(-6.89778e-20 -9.87754e-16 0)
(-7.31803e-20 -9.8775e-16 0)
(-7.72117e-20 -9.87746e-16 0)
(-8.10555e-20 -9.87741e-16 0)
(-8.4693e-20 -9.87737e-16 0)
(-8.81024e-20 -9.87732e-16 0)
(-9.12584e-20 -9.87726e-16 0)
(-9.41321e-20 -9.8772e-16 0)
(-9.669e-20 -9.87714e-16 0)
(-9.88933e-20 -9.87708e-16 0)
(-1.00697e-19 -9.87701e-16 0)
(-1.02051e-19 -9.87694e-16 0)
(-1.02897e-19 -9.87687e-16 0)
(-1.03168e-19 -9.87679e-16 0)
(-1.02791e-19 -9.87671e-16 0)
(-1.01687e-19 -9.87662e-16 0)
(-9.97698e-20 -9.87653e-16 0)
(-9.69535e-20 -9.87645e-16 0)
(-9.31539e-20 -9.87636e-16 0)
(-8.82971e-20 -9.87627e-16 0)
(-8.23271e-20 -9.87618e-16 0)
(-7.5216e-20 -9.87609e-16 0)
(-6.69748e-20 -9.87601e-16 0)
(-5.76926e-20 -9.87594e-16 0)
(-8.73334e-12 -9.88993e-16 0)
(-6.81952e-07 -2.86295e-07 0)
(-1.25472e-07 -0.000394075 0)
(-2.65635e-21 -9.87772e-16 0)
(-7.92018e-21 -9.87772e-16 0)
(-1.3085e-20 -9.87771e-16 0)
(-1.81485e-20 -9.8777e-16 0)
(-2.31077e-20 -9.87769e-16 0)
(-2.79595e-20 -9.87768e-16 0)
(-3.27002e-20 -9.87766e-16 0)
(-3.73249e-20 -9.87764e-16 0)
(-4.18283e-20 -9.87762e-16 0)
(-4.62036e-20 -9.87759e-16 0)
(-5.04432e-20 -9.87756e-16 0)
(-5.4538e-20 -9.87753e-16 0)
(-5.84774e-20 -9.8775e-16 0)
(-6.22494e-20 -9.87747e-16 0)
(-6.58401e-20 -9.87743e-16 0)
(-6.92338e-20 -9.87739e-16 0)
(-7.24126e-20 -9.87735e-16 0)
(-7.53564e-20 -9.8773e-16 0)
(-7.80424e-20 -9.87726e-16 0)
(-8.04453e-20 -9.87721e-16 0)
(-8.25367e-20 -9.87716e-16 0)
(-8.42854e-20 -9.8771e-16 0)
(-8.56566e-20 -9.87704e-16 0)
(-8.66126e-20 -9.87699e-16 0)
(-8.71128e-20 -9.87692e-16 0)
(-8.71139e-20 -9.87686e-16 0)
(-8.65709e-20 -9.8768e-16 0)
(-8.54381e-20 -9.87673e-16 0)
(-8.36711e-20 -9.87666e-16 0)
(-8.12287e-20 -9.8766e-16 0)
(-7.80761e-20 -9.87653e-16 0)
(-7.41882e-20 -9.87646e-16 0)
(-6.95533e-20 -9.8764e-16 0)
(-6.41775e-20 -9.87634e-16 0)
(-5.80882e-20 -9.87628e-16 0)
(-5.13371e-20 -9.87623e-16 0)
(-4.40359e-20 -9.87618e-16 0)
(-9.62906e-12 -9.8966e-16 0)
(-5.44325e-07 -3.8537e-07 0)
(4.84482e-08 -0.000402583 0)
(-2.42866e-21 -9.87765e-16 0)
(-7.23978e-21 -9.87764e-16 0)
(-1.1956e-20 -9.87764e-16 0)
(-1.65724e-20 -9.87763e-16 0)
(-2.10841e-20 -9.87762e-16 0)
(-2.54859e-20 -9.8776e-16 0)
(-2.9772e-20 -9.87759e-16 0)
(-3.39364e-20 -9.87757e-16 0)
(-3.7972e-20 -9.87755e-16 0)
(-4.18709e-20 -9.87752e-16 0)
(-4.56243e-20 -9.8775e-16 0)
(-4.92222e-20 -9.87747e-16 0)
(-5.26534e-20 -9.87744e-16 0)
(-5.59052e-20 -9.87741e-16 0)
(-5.89636e-20 -9.87737e-16 0)
(-6.1813e-20 -9.87733e-16 0)
(-6.44361e-20 -9.8773e-16 0)
(-6.68135e-20 -9.87725e-16 0)
(-6.89245e-20 -9.87721e-16 0)
(-7.07462e-20 -9.87717e-16 0)
(-7.22539e-20 -9.87712e-16 0)
(-7.34212e-20 -9.87707e-16 0)
(-7.42204e-20 -9.87703e-16 0)
(-7.46225e-20 -9.87698e-16 0)
(-7.45981e-20 -9.87692e-16 0)
(-7.4118e-20 -9.87687e-16 0)
(-7.31545e-20 -9.87682e-16 0)
(-7.16823e-20 -9.87677e-16 0)
(-6.96805e-20 -9.87672e-16 0)
(-6.71338e-20 -9.87666e-16 0)
(-6.40355e-20 -9.87661e-16 0)
(-6.03885e-20 -9.87657e-16 0)
(-5.6208e-20 -9.87652e-16 0)
(-5.15228e-20 -9.87648e-16 0)
(-4.6377e-20 -9.87644e-16 0)
(-4.08301e-20 -9.8764e-16 0)
(-3.49963e-20 -9.87637e-16 0)
(-1.06998e-11 -9.90458e-16 0)
(-4.46005e-07 -4.97137e-07 0)
(1.95543e-07 -0.000410402 0)
(-2.20832e-21 -9.87758e-16 0)
(-6.58163e-21 -9.87758e-16 0)
(-1.08649e-20 -9.87757e-16 0)
(-1.50514e-20 -9.87756e-16 0)
(-1.91346e-20 -9.87755e-16 0)
(-2.31079e-20 -9.87754e-16 0)
(-2.69647e-20 -9.87752e-16 0)
(-3.06977e-20 -9.8775e-16 0)
(-3.42993e-20 -9.87748e-16 0)
(-3.77611e-20 -9.87746e-16 0)
(-4.10741e-20 -9.87744e-16 0)
(-4.42284e-20 -9.87741e-16 0)
(-4.7213e-20 -9.87738e-16 0)
(-5.00162e-20 -9.87735e-16 0)
(-5.26249e-20 -9.87732e-16 0)
(-5.5025e-20 -9.87729e-16 0)
(-5.7201e-20 -9.87725e-16 0)
(-5.91366e-20 -9.87721e-16 0)
(-6.08138e-20 -9.87718e-16 0)
(-6.22138e-20 -9.87714e-16 0)
(-6.33166e-20 -9.8771e-16 0)
(-6.41016e-20 -9.87706e-16 0)
(-6.45475e-20 -9.87702e-16 0)
(-6.4633e-20 -9.87697e-16 0)
(-6.43375e-20 -9.87693e-16 0)
(-6.36413e-20 -9.87689e-16 0)
(-6.25273e-20 -9.87685e-16 0)
(-6.09811e-20 -9.87681e-16 0)
(-5.89931e-20 -9.87677e-16 0)
(-5.65593e-20 -9.87673e-16 0)
(-5.36827e-20 -9.87669e-16 0)
(-5.03748e-20 -9.87666e-16 0)
(-4.66567e-20 -9.87663e-16 0)
(-4.256e-20 -9.87659e-16 0)
(-3.81272e-20 -9.87657e-16 0)
(-3.34114e-20 -9.87654e-16 0)
(-2.85184e-20 -9.87652e-16 0)
(-1.13873e-11 -9.91384e-16 0)
(-3.6312e-07 -6.1901e-07 0)
(3.42282e-07 -0.000417858 0)
(-1.99744e-21 -9.87752e-16 0)
(-5.95205e-21 -9.87752e-16 0)
(-9.82205e-21 -9.87751e-16 0)
(-1.35996e-20 -9.8775e-16 0)
(-1.72771e-20 -9.87749e-16 0)
(-2.08474e-20 -9.87748e-16 0)
(-2.4303e-20 -9.87746e-16 0)
(-2.76366e-20 -9.87745e-16 0)
(-3.08403e-20 -9.87743e-16 0)
(-3.39062e-20 -9.87741e-16 0)
(-3.68257e-20 -9.87738e-16 0)
(-3.95898e-20 -9.87736e-16 0)
(-4.21888e-20 -9.87733e-16 0)
(-4.46124e-20 -9.87731e-16 0)
(-4.68498e-20 -9.87728e-16 0)
(-4.88892e-20 -9.87725e-16 0)
(-5.07183e-20 -9.87722e-16 0)
(-5.23239e-20 -9.87718e-16 0)
(-5.36923e-20 -9.87715e-16 0)
(-5.4809e-20 -9.87712e-16 0)
(-5.56591e-20 -9.87708e-16 0)
(-5.6227e-20 -9.87705e-16 0)
(-5.64972e-20 -9.87701e-16 0)
(-5.6454e-20 -9.87698e-16 0)
(-5.60822e-20 -9.87694e-16 0)
(-5.53674e-20 -9.87691e-16 0)
(-5.42964e-20 -9.87688e-16 0)
(-5.2858e-20 -9.87685e-16 0)
(-5.10441e-20 -9.87682e-16 0)
(-4.88499e-20 -9.87679e-16 0)
(-4.62756e-20 -9.87677e-16 0)
(-4.33274e-20 -9.87674e-16 0)
(-4.00187e-20 -9.87672e-16 0)
(-3.63717e-20 -9.8767e-16 0)
(-3.24181e-20 -9.87668e-16 0)
(-2.82007e-20 -9.87667e-16 0)
(-2.38197e-20 -9.87665e-16 0)
(-1.18239e-11 -9.92556e-16 0)
(-2.85507e-07 -7.58835e-07 0)
(4.98774e-07 -0.000425145 0)
(-1.79744e-21 -9.87746e-16 0)
(-5.35522e-21 -9.87746e-16 0)
(-8.83434e-21 -9.87746e-16 0)
(-1.22263e-20 -9.87745e-16 0)
(-1.55231e-20 -9.87744e-16 0)
(-1.87171e-20 -9.87743e-16 0)
(-2.1801e-20 -9.87741e-16 0)
(-2.47675e-20 -9.8774e-16 0)
(-2.76094e-20 -9.87738e-16 0)
(-3.03193e-20 -9.87736e-16 0)
(-3.28899e-20 -9.87734e-16 0)
(-3.53136e-20 -9.87732e-16 0)
(-3.75826e-20 -9.87729e-16 0)
(-3.96887e-20 -9.87727e-16 0)
(-4.16239e-20 -9.87724e-16 0)
(-4.33795e-20 -9.87721e-16 0)
(-4.49468e-20 -9.87718e-16 0)
(-4.63166e-20 -9.87716e-16 0)
(-4.74797e-20 -9.87713e-16 0)
(-4.84264e-20 -9.8771e-16 0)
(-4.91468e-20 -9.87707e-16 0)
(-4.96306e-20 -9.87704e-16 0)
(-4.98673e-20 -9.87701e-16 0)
(-4.98457e-20 -9.87698e-16 0)
(-4.95545e-20 -9.87696e-16 0)
(-4.89815e-20 -9.87693e-16 0)
(-4.8114e-20 -9.87691e-16 0)
(-4.6939e-20 -9.87688e-16 0)
(-4.54426e-20 -9.87686e-16 0)
(-4.36112e-20 -9.87684e-16 0)
(-4.14314e-20 -9.87683e-16 0)
(-3.88916e-20 -9.87681e-16 0)
(-3.59831e-20 -9.8768e-16 0)
(-3.2703e-20 -9.87679e-16 0)
(-2.90564e-20 -9.87679e-16 0)
(-2.50608e-20 -9.87678e-16 0)
(-2.08007e-20 -9.87677e-16 0)
(-1.23042e-11 -9.94007e-16 0)
(-2.13841e-07 -9.15829e-07 0)
(6.60107e-07 -0.000432399 0)
(-1.60912e-21 -9.87742e-16 0)
(-4.79344e-21 -9.87741e-16 0)
(-7.90533e-21 -9.87741e-16 0)
(-1.09361e-20 -9.8774e-16 0)
(-1.38776e-20 -9.87739e-16 0)
(-1.67224e-20 -9.87738e-16 0)
(-1.94634e-20 -9.87737e-16 0)
(-2.20939e-20 -9.87735e-16 0)
(-2.46076e-20 -9.87734e-16 0)
(-2.69982e-20 -9.87732e-16 0)
(-2.92597e-20 -9.8773e-16 0)
(-3.13863e-20 -9.87728e-16 0)
(-3.33725e-20 -9.87725e-16 0)
(-3.52128e-20 -9.87723e-16 0)
(-3.69019e-20 -9.87721e-16 0)
(-3.84349e-20 -9.87718e-16 0)
(-3.98068e-20 -9.87716e-16 0)
(-4.1013e-20 -9.87713e-16 0)
(-4.20492e-20 -9.87711e-16 0)
(-4.2911e-20 -9.87708e-16 0)
(-4.35942e-20 -9.87706e-16 0)
(-4.40943e-20 -9.87703e-16 0)
(-4.44067e-20 -9.87701e-16 0)
(-4.45256e-20 -9.87698e-16 0)
(-4.44445e-20 -9.87696e-16 0)
(-4.41548e-20 -9.87694e-16 0)
(-4.36449e-20 -9.87692e-16 0)
(-4.28999e-20 -9.87691e-16 0)
(-4.18999e-20 -9.8769e-16 0)
(-4.0619e-20 -9.87689e-16 0)
(-3.90241e-20 -9.87688e-16 0)
(-3.70749e-20 -9.87688e-16 0)
(-3.47238e-20 -9.87688e-16 0)
(-3.19186e-20 -9.87688e-16 0)
(-2.86067e-20 -9.87688e-16 0)
(-2.47446e-20 -9.87689e-16 0)
(-2.03747e-20 -9.8769e-16 0)
(-1.40182e-11 -9.95971e-16 0)
(-1.74029e-07 -1.10622e-06 0)
(7.67328e-07 -0.000439714 0)
(-1.43274e-21 -9.87737e-16 0)
(-4.26745e-21 -9.87737e-16 0)
(-7.03607e-21 -9.87736e-16 0)
(-9.72993e-21 -9.87736e-16 0)
(-1.23412e-20 -9.87735e-16 0)
(-1.48627e-20 -9.87734e-16 0)
(-1.7288e-20 -9.87733e-16 0)
(-1.9611e-20 -9.87731e-16 0)
(-2.18264e-20 -9.8773e-16 0)
(-2.39292e-20 -9.87728e-16 0)
(-2.59149e-20 -9.87726e-16 0)
(-2.77798e-20 -9.87724e-16 0)
(-2.95203e-20 -9.87722e-16 0)
(-3.11337e-20 -9.8772e-16 0)
(-3.26178e-20 -9.87718e-16 0)
(-3.39711e-20 -9.87716e-16 0)
(-3.51928e-20 -9.87713e-16 0)
(-3.62829e-20 -9.87711e-16 0)
(-3.7242e-20 -9.87709e-16 0)
(-3.80719e-20 -9.87707e-16 0)
(-3.87746e-20 -9.87704e-16 0)
(-3.93531e-20 -9.87702e-16 0)
(-3.98104e-20 -9.877e-16 0)
(-4.01497e-20 -9.87698e-16 0)
(-4.0373e-20 -9.87696e-16 0)
(-4.04811e-20 -9.87695e-16 0)
(-4.04713e-20 -9.87693e-16 0)
(-4.03358e-20 -9.87692e-16 0)
(-4.0059e-20 -9.87691e-16 0)
(-3.9614e-20 -9.87691e-16 0)
(-3.89575e-20 -9.87691e-16 0)
(-3.80244e-20 -9.87692e-16 0)
(-3.67212e-20 -9.87693e-16 0)
(-3.49191e-20 -9.87695e-16 0)
(-3.24495e-20 -9.87697e-16 0)
(-2.91054e-20 -9.877e-16 0)
(-2.47626e-20 -9.87703e-16 0)
(-2.2036e-11 -9.99653e-16 0)
(-1.85871e-07 -1.39894e-06 0)
(7.70983e-07 -0.000447127 0)
(-1.26819e-21 -9.87733e-16 0)
(-3.77687e-21 -9.87733e-16 0)
(-6.22571e-21 -9.87733e-16 0)
(-8.60629e-21 -9.87732e-16 0)
(-1.09111e-20 -9.87731e-16 0)
(-1.31336e-20 -9.8773e-16 0)
(-1.52677e-20 -9.87729e-16 0)
(-1.73083e-20 -9.87728e-16 0)
(-1.9251e-20 -9.87726e-16 0)
(-2.10921e-20 -9.87725e-16 0)
(-2.28284e-20 -9.87723e-16 0)
(-2.4458e-20 -9.87721e-16 0)
(-2.59792e-20 -9.87719e-16 0)
(-2.73918e-20 -9.87718e-16 0)
(-2.86962e-20 -9.87716e-16 0)
(-2.9894e-20 -9.87713e-16 0)
(-3.09882e-20 -9.87711e-16 0)
(-3.19828e-20 -9.87709e-16 0)
(-3.28835e-20 -9.87707e-16 0)
(-3.36977e-20 -9.87705e-16 0)
(-3.44343e-20 -9.87703e-16 0)
(-3.51043e-20 -9.87701e-16 0)
(-3.57204e-20 -9.87699e-16 0)
(-3.62974e-20 -9.87697e-16 0)
(-3.68518e-20 -9.87695e-16 0)
(-3.74016e-20 -9.87694e-16 0)
(-3.79656e-20 -9.87693e-16 0)
(-3.85619e-20 -9.87692e-16 0)
(-3.92058e-20 -9.87691e-16 0)
(-3.99057e-20 -9.87691e-16 0)
(-4.06565e-20 -9.87691e-16 0)
(-4.14292e-20 -9.87692e-16 0)
(-4.2153e-20 -9.87694e-16 0)
(-4.26872e-20 -9.87697e-16 0)
(-4.27765e-20 -9.87701e-16 0)
(-4.19792e-20 -9.87707e-16 0)
(-3.98326e-20 -9.87715e-16 0)
(-6.00688e-11 -1.01311e-15 0)
(-1.97416e-07 -2.37231e-06 0)
(7.89145e-07 -0.000454686 0)
(-1.11514e-21 -9.8773e-16 0)
(-3.32063e-21 -9.8773e-16 0)
(-5.47226e-21 -9.87729e-16 0)
(-7.56197e-21 -9.87729e-16 0)
(-9.58267e-21 -9.87728e-16 0)
(-1.15282e-20 -9.87727e-16 0)
(-1.33931e-20 -9.87726e-16 0)
(-1.51731e-20 -9.87725e-16 0)
(-1.68644e-20 -9.87723e-16 0)
(-1.84644e-20 -9.87722e-16 0)
(-1.99711e-20 -9.8772e-16 0)
(-2.13837e-20 -9.87719e-16 0)
(-2.27023e-20 -9.87717e-16 0)
(-2.39281e-20 -9.87715e-16 0)
(-2.50638e-20 -9.87713e-16 0)
(-2.61131e-20 -9.87711e-16 0)
(-2.70816e-20 -9.87709e-16 0)
(-2.79765e-20 -9.87707e-16 0)
(-2.8807e-20 -9.87705e-16 0)
(-2.95846e-20 -9.87703e-16 0)
(-3.03238e-20 -9.87701e-16 0)
(-3.10417e-20 -9.87699e-16 0)
(-3.17598e-20 -9.87698e-16 0)
(-3.25035e-20 -9.87696e-16 0)
(-3.3304e-20 -9.87694e-16 0)
(-3.41991e-20 -9.87692e-16 0)
(-3.5235e-20 -9.87691e-16 0)
(-3.64683e-20 -9.87689e-16 0)
(-3.79691e-20 -9.87688e-16 0)
(-3.98245e-20 -9.87687e-16 0)
(-4.21436e-20 -9.87687e-16 0)
(-4.50632e-20 -9.87687e-16 0)
(-4.8756e-20 -9.87688e-16 0)
(-5.34376e-20 -9.87689e-16 0)
(-5.93752e-20 -9.87692e-16 0)
(-6.68909e-20 -9.87697e-16 0)
(-7.78576e-20 -9.87705e-16 0)
(-4.48394e-10 -1.17152e-15 0)
(-1.86147e-07 -9.31884e-06 0)
(8.57131e-07 -0.000462446 0)
(-9.73131e-22 -9.87727e-16 0)
(-2.89732e-21 -9.87727e-16 0)
(-4.77324e-21 -9.87726e-16 0)
(-6.59319e-21 -9.87726e-16 0)
(-8.35044e-21 -9.87725e-16 0)
(-1.00392e-20 -9.87724e-16 0)
(-1.16545e-20 -9.87723e-16 0)
(-1.31926e-20 -9.87722e-16 0)
(-1.46502e-20 -9.87721e-16 0)
(-1.60253e-20 -9.87719e-16 0)
(-1.73168e-20 -9.87718e-16 0)
(-1.85245e-20 -9.87717e-16 0)
(-1.96494e-20 -9.87715e-16 0)
(-2.06937e-20 -9.87713e-16 0)
(-2.16608e-20 -9.87711e-16 0)
(-2.25558e-20 -9.8771e-16 0)
(-2.33851e-20 -9.87708e-16 0)
(-2.41571e-20 -9.87706e-16 0)
(-2.48824e-20 -9.87704e-16 0)
(-2.55738e-20 -9.87702e-16 0)
(-2.62472e-20 -9.877e-16 0)
(-2.6922e-20 -9.87698e-16 0)
(-2.76216e-20 -9.87696e-16 0)
(-2.83749e-20 -9.87694e-16 0)
(-2.92174e-20 -9.87692e-16 0)
(-3.01931e-20 -9.8769e-16 0)
(-3.13575e-20 -9.87688e-16 0)
(-3.27817e-20 -9.87686e-16 0)
(-3.45578e-20 -9.87684e-16 0)
(-3.68085e-20 -9.87682e-16 0)
(-3.97001e-20 -9.8768e-16 0)
(-4.34633e-20 -9.87678e-16 0)
(-4.84262e-20 -9.87675e-16 0)
(-5.50661e-20 -9.87673e-16 0)
(-6.40924e-20 -9.8767e-16 0)
(-7.65825e-20 -9.87667e-16 0)
(-1.11755e-19 -9.87663e-16 0)
(-6.0363e-09 -2.53581e-15 0)
(-1.54279e-07 -2.72177e-05 0)
(9.68926e-07 -0.000470396 0)
(-8.41689e-22 -9.87724e-16 0)
(-2.5055e-21 -9.87724e-16 0)
(-4.12619e-21 -9.87724e-16 0)
(-5.69633e-21 -9.87723e-16 0)
(-7.20944e-21 -9.87722e-16 0)
(-8.66001e-21 -9.87722e-16 0)
(-1.00434e-20 -9.87721e-16 0)
(-1.1356e-20 -9.8772e-16 0)
(-1.2595e-20 -9.87719e-16 0)
(-1.37585e-20 -9.87717e-16 0)
(-1.48457e-20 -9.87716e-16 0)
(-1.58566e-20 -9.87715e-16 0)
(-1.67924e-20 -9.87713e-16 0)
(-1.76553e-20 -9.87712e-16 0)
(-1.84487e-20 -9.8771e-16 0)
(-1.91772e-20 -9.87708e-16 0)
(-1.98469e-20 -9.87706e-16 0)
(-2.04652e-20 -9.87705e-16 0)
(-2.10413e-20 -9.87703e-16 0)
(-2.15863e-20 -9.87701e-16 0)
(-2.21133e-20 -9.87699e-16 0)
(-2.26379e-20 -9.87697e-16 0)
(-2.31785e-20 -9.87695e-16 0)
(-2.37565e-20 -9.87692e-16 0)
(-2.43972e-20 -9.8769e-16 0)
(-2.51302e-20 -9.87688e-16 0)
(-2.59902e-20 -9.87685e-16 0)
(-2.70176e-20 -9.87683e-16 0)
(-2.82589e-20 -9.8768e-16 0)
(-2.97673e-20 -9.87677e-16 0)
(-3.16012e-20 -9.87673e-16 0)
(-3.38211e-20 -9.87669e-16 0)
(-3.64817e-20 -9.87664e-16 0)
(-3.96145e-20 -9.87658e-16 0)
(-4.31947e-20 -9.87651e-16 0)
(-4.70764e-20 -9.87642e-16 0)
(-1.24776e-19 -9.87629e-16 0)
(-1.13639e-08 -5.16914e-15 0)
(-2.47354e-07 -4.2115e-05 0)
(8.56464e-07 -0.000478592 0)
(-7.20411e-22 -9.87722e-16 0)
(-2.14394e-21 -9.87722e-16 0)
(-3.52901e-21 -9.87721e-16 0)
(-4.86836e-21 -9.87721e-16 0)
(-6.15566e-21 -9.8772e-16 0)
(-7.38551e-21 -9.8772e-16 0)
(-8.55342e-21 -9.87719e-16 0)
(-9.65576e-21 -9.87718e-16 0)
(-1.06898e-20 -9.87717e-16 0)
(-1.16536e-20 -9.87716e-16 0)
(-1.25461e-20 -9.87714e-16 0)
(-1.33671e-20 -9.87713e-16 0)
(-1.41174e-20 -9.87712e-16 0)
(-1.47984e-20 -9.8771e-16 0)
(-1.54127e-20 -9.87709e-16 0)
(-1.59636e-20 -9.87707e-16 0)
(-1.64554e-20 -9.87705e-16 0)
(-1.68934e-20 -9.87704e-16 0)
(-1.72835e-20 -9.87702e-16 0)
(-1.76329e-20 -9.877e-16 0)
(-1.79493e-20 -9.87698e-16 0)
(-1.82414e-20 -9.87696e-16 0)
(-1.85183e-20 -9.87694e-16 0)
(-1.87894e-20 -9.87692e-16 0)
(-1.90638e-20 -9.87689e-16 0)
(-1.93497e-20 -9.87687e-16 0)
(-1.9653e-20 -9.87684e-16 0)
(-1.99755e-20 -9.87681e-16 0)
(-2.0312e-20 -9.87678e-16 0)
(-2.06456e-20 -9.87674e-16 0)
(-2.09415e-20 -9.8767e-16 0)
(-2.11372e-20 -9.87666e-16 0)
(-2.1128e-20 -9.87661e-16 0)
(-2.0748e-20 -9.87655e-16 0)
(-1.97424e-20 -9.87648e-16 0)
(-1.77334e-20 -9.8764e-16 0)
(-4.80984e-20 -9.8763e-16 0)
(-1.26911e-09 -6.76023e-15 0)
(-3.74135e-07 -4.39285e-05 0)
(6.51785e-07 -0.000487126 0)
(-6.08987e-22 -9.8772e-16 0)
(-1.81173e-21 -9.8772e-16 0)
(-2.98017e-21 -9.8772e-16 0)
(-4.10714e-21 -9.87719e-16 0)
(-5.18634e-21 -9.87719e-16 0)
(-6.21239e-21 -9.87718e-16 0)
(-7.18074e-21 -9.87717e-16 0)
(-8.08763e-21 -9.87716e-16 0)
(-8.93013e-21 -9.87715e-16 0)
(-9.70601e-21 -9.87714e-16 0)
(-1.04138e-20 -9.87713e-16 0)
(-1.10528e-20 -9.87712e-16 0)
(-1.16228e-20 -9.87711e-16 0)
(-1.21243e-20 -9.87709e-16 0)
(-1.25585e-20 -9.87708e-16 0)
(-1.29271e-20 -9.87706e-16 0)
(-1.3232e-20 -9.87705e-16 0)
(-1.34757e-20 -9.87703e-16 0)
(-1.36608e-20 -9.87701e-16 0)
(-1.37899e-20 -9.87699e-16 0)
(-1.38654e-20 -9.87698e-16 0)
(-1.38892e-20 -9.87696e-16 0)
(-1.38621e-20 -9.87694e-16 0)
(-1.37832e-20 -9.87691e-16 0)
(-1.36494e-20 -9.87689e-16 0)
(-1.34541e-20 -9.87687e-16 0)
(-1.31857e-20 -9.87684e-16 0)
(-1.28262e-20 -9.87681e-16 0)
(-1.23485e-20 -9.87678e-16 0)
(-1.17137e-20 -9.87675e-16 0)
(-1.08674e-20 -9.87671e-16 0)
(-9.73606e-21 -9.87667e-16 0)
(-8.22213e-21 -9.87663e-16 0)
(-6.20043e-21 -9.87659e-16 0)
(-3.5155e-21 -9.87654e-16 0)
(1.7515e-23 -9.87649e-16 0)
(4.60554e-21 -9.87644e-16 0)
(5.19002e-20 -7.0143e-15 0)
(-4.38536e-07 -4.00968e-05 0)
(5.66793e-07 -0.00049595 0)
(-5.07214e-22 -9.87718e-16 0)
(-1.50826e-21 -9.87718e-16 0)
(-2.47871e-21 -9.87718e-16 0)
(-3.41139e-21 -9.87718e-16 0)
(-4.29998e-21 -9.87717e-16 0)
(-5.13901e-21 -9.87716e-16 0)
(-5.92377e-21 -9.87716e-16 0)
(-6.6503e-21 -9.87715e-16 0)
(-7.31532e-21 -9.87714e-16 0)
(-7.91621e-21 -9.87713e-16 0)
(-8.45094e-21 -9.87712e-16 0)
(-8.91802e-21 -9.87711e-16 0)
(-9.31645e-21 -9.8771e-16 0)
(-9.64563e-21 -9.87709e-16 0)
(-9.9053e-21 -9.87707e-16 0)
(-1.00954e-20 -9.87706e-16 0)
(-1.0216e-20 -9.87704e-16 0)
(-1.0267e-20 -9.87703e-16 0)
(-1.02483e-20 -9.87701e-16 0)
(-1.0159e-20 -9.87699e-16 0)
(-9.99751e-21 -9.87698e-16 0)
(-9.76128e-21 -9.87696e-16 0)
(-9.44605e-21 -9.87694e-16 0)
(-9.0456e-21 -9.87692e-16 0)
(-8.55109e-21 -9.8769e-16 0)