/*--------------------------------*- C++ -*----------------------------------*\
  =========                 |
  \\      /  F ield         | OpenFOAM: The Open Source CFD Toolbox
   \\    /   O peration     | Website:  https://openfoam.org
    \\  /    A nd           | Version:  10
     \\/     M anipulation  |
\*---------------------------------------------------------------------------*/
FoamFile
{
    format      ascii;
    class       volScalarField;
    location    "0.003";
    object      pPrime2Mean;
}
// * * * * * * * * * * * * * * * * * * * * * * * * * * * * * * * * * * * * * //

dimensions      [0 4 -4 0 0 0 0];

internalField   nonuniform List<scalar> 
12225
(
1.35626e+08
1.33451e+08
1.31216e+08
1.29062e+08
1.26992e+08
1.25003e+08
1.23086e+08
1.21238e+08
1.19451e+08
1.17719e+08
1.16035e+08
1.14391e+08
1.12778e+08
1.11182e+08
1.09588e+08
1.0797e+08
1.0628e+08
1.04402e+08
1.35629e+08
1.33452e+08
1.31217e+08
1.29063e+08
1.26994e+08
1.25004e+08
1.23088e+08
1.2124e+08
1.19453e+08
1.17722e+08
1.16039e+08
1.14396e+08
1.12784e+08
1.11192e+08
1.09602e+08
1.07992e+08
1.06322e+08
1.04502e+08
1.35632e+08
1.33454e+08
1.31219e+08
1.29065e+08
1.26996e+08
1.25007e+08
1.23091e+08
1.21244e+08
1.19458e+08
1.17729e+08
1.16047e+08
1.14407e+08
1.12799e+08
1.11212e+08
1.09631e+08
1.08039e+08
1.06405e+08
1.04697e+08
1.35636e+08
1.33457e+08
1.31223e+08
1.29069e+08
1.27e+08
1.25012e+08
1.23097e+08
1.21251e+08
1.19467e+08
1.17739e+08
1.16061e+08
1.14425e+08
1.12823e+08
1.11244e+08
1.09679e+08
1.08111e+08
1.06528e+08
1.0493e+08
1.35639e+08
1.33462e+08
1.31227e+08
1.29074e+08
1.27007e+08
1.25019e+08
1.23106e+08
1.21262e+08
1.1948e+08
1.17755e+08
1.16081e+08
1.14451e+08
1.12857e+08
1.11291e+08
1.09745e+08
1.0821e+08
1.06683e+08
1.05183e+08
1.35644e+08
1.33468e+08
1.31234e+08
1.29082e+08
1.27015e+08
1.25029e+08
1.23118e+08
1.21276e+08
1.19498e+08
1.17777e+08
1.16109e+08
1.14486e+08
1.12903e+08
1.11353e+08
1.0983e+08
1.08331e+08
1.06861e+08
1.05445e+08
1.3565e+08
1.33476e+08
1.31243e+08
1.29092e+08
1.27027e+08
1.25043e+08
1.23134e+08
1.21295e+08
1.19521e+08
1.17806e+08
1.16145e+08
1.14532e+08
1.12962e+08
1.1143e+08
1.09934e+08
1.08474e+08
1.07059e+08
1.05711e+08
1.35658e+08
1.33486e+08
1.31255e+08
1.29105e+08
1.27041e+08
1.2506e+08
1.23154e+08
1.21319e+08
1.1955e+08
1.17842e+08
1.16189e+08
1.14588e+08
1.13034e+08
1.11523e+08
1.10056e+08
1.08635e+08
1.0727e+08
1.05979e+08
1.3567e+08
1.33499e+08
1.31269e+08
1.29121e+08
1.2706e+08
1.25081e+08
1.23179e+08
1.21349e+08
1.19587e+08
1.17886e+08
1.16244e+08
1.14656e+08
1.13119e+08
1.11632e+08
1.10195e+08
1.08812e+08
1.07492e+08
1.06249e+08
1.35684e+08
1.33516e+08
1.31287e+08
1.29141e+08
1.27083e+08
1.25107e+08
1.2321e+08
1.21386e+08
1.19631e+08
1.1794e+08
1.1631e+08
1.14737e+08
1.13219e+08
1.11756e+08
1.10349e+08
1.09001e+08
1.07722e+08
1.06519e+08
1.3571e+08
1.33538e+08
1.3131e+08
1.29165e+08
1.2711e+08
1.25139e+08
1.23247e+08
1.2143e+08
1.19683e+08
1.18003e+08
1.16386e+08
1.1483e+08
1.13332e+08
1.11894e+08
1.10516e+08
1.09202e+08
1.07958e+08
1.0679e+08
1.35729e+08
1.33561e+08
1.31334e+08
1.29192e+08
1.2714e+08
1.25173e+08
1.23287e+08
1.21477e+08
1.19739e+08
1.1807e+08
1.16466e+08
1.14926e+08
1.13448e+08
1.12032e+08
1.1068e+08
1.09394e+08
1.08179e+08
1.07038e+08
1.3576e+08
1.33589e+08
1.31363e+08
1.29222e+08
1.27174e+08
1.25212e+08
1.23332e+08
1.2153e+08
1.19802e+08
1.18144e+08
1.16555e+08
1.15031e+08
1.13572e+08
1.12178e+08
1.1085e+08
1.09591e+08
1.08401e+08
1.07284e+08
1.35801e+08
1.33626e+08
1.314e+08
1.29263e+08
1.27219e+08
1.25264e+08
1.23392e+08
1.21599e+08
1.19883e+08
1.18239e+08
1.16666e+08
1.15161e+08
1.13725e+08
1.12355e+08
1.11053e+08
1.0982e+08
1.08657e+08
1.07564e+08
1.35853e+08
1.33674e+08
1.31449e+08
1.29316e+08
1.27278e+08
1.2533e+08
1.23468e+08
1.21688e+08
1.19986e+08
1.18359e+08
1.16805e+08
1.15322e+08
1.13909e+08
1.12566e+08
1.11291e+08
1.10085e+08
1.08947e+08
1.07877e+08
1.35912e+08
1.33735e+08
1.31513e+08
1.29385e+08
1.27354e+08
1.25417e+08
1.23567e+08
1.21801e+08
1.20115e+08
1.18508e+08
1.16975e+08
1.15516e+08
1.14129e+08
1.12812e+08
1.11564e+08
1.10384e+08
1.09271e+08
1.08223e+08
1.35987e+08
1.33812e+08
1.31594e+08
1.29473e+08
1.27452e+08
1.25526e+08
1.2369e+08
1.21941e+08
1.20274e+08
1.18688e+08
1.17179e+08
1.15745e+08
1.14383e+08
1.13093e+08
1.11871e+08
1.10716e+08
1.09626e+08
1.08599e+08
1.36069e+08
1.33903e+08
1.31694e+08
1.29582e+08
1.27572e+08
1.25659e+08
1.2384e+08
1.22109e+08
1.20463e+08
1.18899e+08
1.17414e+08
1.16004e+08
1.14668e+08
1.13403e+08
1.12205e+08
1.11074e+08
1.10005e+08
1.08996e+08
1.36176e+08
1.34017e+08
1.31815e+08
1.29712e+08
1.27714e+08
1.25816e+08
1.24013e+08
1.22301e+08
1.20676e+08
1.19134e+08
1.17672e+08
1.16286e+08
1.14973e+08
1.1373e+08
1.12555e+08
1.11443e+08
1.10393e+08
1.094e+08
1.36296e+08
1.34126e+08
1.31924e+08
1.29826e+08
1.27836e+08
1.25949e+08
1.24158e+08
1.2246e+08
1.2085e+08
1.19324e+08
1.17877e+08
1.16508e+08
1.15211e+08
1.13983e+08
1.12822e+08
1.11723e+08
1.10685e+08
1.09702e+08
1.36367e+08
1.342e+08
1.31999e+08
1.29905e+08
1.27921e+08
1.2604e+08
1.24258e+08
1.22569e+08
1.20968e+08
1.19451e+08
1.18015e+08
1.16655e+08
1.15368e+08
1.14149e+08
1.12996e+08
1.11906e+08
1.10874e+08
1.09898e+08
1.36429e+08
1.34254e+08
1.32054e+08
1.29963e+08
1.27983e+08
1.26108e+08
1.24331e+08
1.22648e+08
1.21054e+08
1.19544e+08
1.18115e+08
1.16761e+08
1.15481e+08
1.14268e+08
1.13121e+08
1.12036e+08
1.11009e+08
1.10037e+08
1.36453e+08
1.34289e+08
1.32092e+08
1.30004e+08
1.28028e+08
1.26157e+08
1.24384e+08
1.22706e+08
1.21116e+08
1.19611e+08
1.18186e+08
1.16837e+08
1.15561e+08
1.14353e+08
1.1321e+08
1.12128e+08
1.11104e+08
1.10135e+08
1.36477e+08
1.34312e+08
1.32118e+08
1.30033e+08
1.2806e+08
1.26191e+08
1.24422e+08
1.22746e+08
1.2116e+08
1.19658e+08
1.18237e+08
1.16891e+08
1.15617e+08
1.14412e+08
1.13272e+08
1.12192e+08
1.1117e+08
1.10203e+08
1.3649e+08
1.34327e+08
1.32136e+08
1.30053e+08
1.28082e+08
1.26215e+08
1.24448e+08
1.22775e+08
1.2119e+08
1.19691e+08
1.18271e+08
1.16928e+08
1.15656e+08
1.14453e+08
1.13314e+08
1.12236e+08
1.11216e+08
1.1025e+08
1.36488e+08
1.34335e+08
1.32147e+08
1.30066e+08
1.28096e+08
1.26231e+08
1.24465e+08
1.22794e+08
1.21211e+08
1.19713e+08
1.18295e+08
1.16953e+08
1.15682e+08
1.1448e+08
1.13343e+08
1.12266e+08
1.11246e+08
1.10281e+08
1.36487e+08
1.34339e+08
1.32154e+08
1.30075e+08
1.28106e+08
1.26242e+08
1.24477e+08
1.22806e+08
1.21224e+08
1.19727e+08
1.1831e+08
1.16969e+08
1.15699e+08
1.14498e+08
1.13361e+08
1.12285e+08
1.11266e+08
1.10301e+08
1.36489e+08
1.34342e+08
1.32158e+08
1.3008e+08
1.28111e+08
1.26248e+08
1.24484e+08
1.22813e+08
1.21232e+08
1.19735e+08
1.18319e+08
1.16978e+08
1.15709e+08
1.14509e+08
1.13372e+08
1.12296e+08
1.11278e+08
1.10314e+08
1.3649e+08
1.34343e+08
1.3216e+08
1.30082e+08
1.28115e+08
1.26251e+08
1.24487e+08
1.22817e+08
1.21236e+08
1.1974e+08
1.18324e+08
1.16983e+08
1.15715e+08
1.14514e+08
1.13378e+08
1.12302e+08
1.11284e+08
1.1032e+08
1.36491e+08
1.34344e+08
1.32161e+08
1.30083e+08
1.28116e+08
1.26253e+08
1.24489e+08
1.22819e+08
1.21238e+08
1.19742e+08
1.18326e+08
1.16986e+08
1.15717e+08
1.14517e+08
1.1338e+08
1.12305e+08
1.11287e+08
1.10323e+08
8.82163e+07
8.82093e+07
8.81951e+07
8.81736e+07
8.81446e+07
8.81081e+07
8.80638e+07
8.80117e+07
8.79517e+07
8.78837e+07
8.78076e+07
8.77233e+07
8.76307e+07
8.75299e+07
8.74207e+07
8.73032e+07
8.71773e+07
8.7043e+07
8.69003e+07
8.67492e+07
8.65897e+07
8.6422e+07
8.62459e+07
8.60616e+07
8.58691e+07
8.56685e+07
8.54598e+07
8.52431e+07
8.50185e+07
8.47861e+07
8.4546e+07
8.42982e+07
8.40429e+07
8.37802e+07
8.35101e+07
8.32328e+07
8.29484e+07
8.2657e+07
8.23587e+07
8.20537e+07
8.1742e+07
8.14237e+07
8.1099e+07
8.07681e+07
8.04309e+07
8.00876e+07
7.97384e+07
7.93833e+07
7.90225e+07
7.8656e+07
7.82841e+07
7.79067e+07
7.7524e+07
7.71361e+07
7.67431e+07
7.63452e+07
7.59423e+07
7.55347e+07
7.51224e+07
7.47054e+07
7.4284e+07
7.38581e+07
7.3428e+07
7.29936e+07
7.25551e+07
7.21125e+07
7.16659e+07
7.12154e+07
7.07611e+07
7.03031e+07
6.98414e+07
6.93762e+07
6.89074e+07
6.84352e+07
6.79597e+07
6.74808e+07
6.69987e+07
6.65135e+07
6.60251e+07
6.55337e+07
6.50394e+07
6.45421e+07
6.4042e+07
6.35392e+07
6.30336e+07
6.25253e+07
6.20144e+07
6.1501e+07
6.0985e+07
6.04666e+07
5.99458e+07
5.94227e+07
5.88973e+07
5.83697e+07
5.78399e+07
5.73079e+07
5.67739e+07
5.62379e+07
5.56999e+07
5.51599e+07
5.46181e+07
5.40744e+07
5.3529e+07
5.29818e+07
5.2433e+07
5.18825e+07
5.13305e+07
5.07769e+07
5.02219e+07
4.96654e+07
4.91076e+07
4.85484e+07
4.7988e+07
4.74264e+07
4.68636e+07
4.62997e+07
4.57347e+07
4.51688e+07
4.46019e+07
4.40341e+07
4.34655e+07
4.28961e+07
4.23261e+07
4.17553e+07
4.1184e+07
4.06122e+07
4.00399e+07
3.94672e+07
3.88942e+07
3.83209e+07
3.77474e+07
3.71738e+07
3.66002e+07
3.60265e+07
3.5453e+07
3.48796e+07
3.43065e+07
3.37337e+07
3.31613e+07
3.25894e+07
3.20181e+07
3.14474e+07
3.08775e+07
3.03084e+07
2.97402e+07
2.9173e+07
2.86069e+07
2.80421e+07
2.74785e+07
2.69164e+07
2.63557e+07
2.57966e+07
2.52393e+07
2.46838e+07
2.41302e+07
2.35787e+07
2.30293e+07
2.24823e+07
2.19376e+07
2.13955e+07
2.0856e+07
2.03194e+07
1.97857e+07
1.9255e+07
1.87276e+07
1.82036e+07
1.76832e+07
1.71664e+07
1.66536e+07
1.61449e+07
1.56404e+07
1.51406e+07
1.46455e+07
1.41556e+07
1.36712e+07
1.31928e+07
1.27211e+07
1.22569e+07
1.1802e+07
1.13598e+07
8.82482e+07
8.82411e+07
8.82268e+07
8.82052e+07
8.81761e+07
8.81393e+07
8.80948e+07
8.80424e+07
8.7982e+07
8.79136e+07
8.78371e+07
8.77523e+07
8.76593e+07
8.75579e+07
8.74482e+07
8.73301e+07
8.72036e+07
8.70687e+07
8.69253e+07
8.67736e+07
8.66135e+07
8.64451e+07
8.62683e+07
8.60833e+07
8.58902e+07
8.56888e+07
8.54795e+07
8.52621e+07
8.50368e+07
8.48038e+07
8.4563e+07
8.43146e+07
8.40586e+07
8.37953e+07
8.35246e+07
8.32467e+07
8.29617e+07
8.26698e+07
8.23709e+07
8.20653e+07
8.17531e+07
8.14343e+07
8.11092e+07
8.07777e+07
8.04401e+07
8.00964e+07
7.97467e+07
7.93912e+07
7.903e+07
7.86632e+07
7.82909e+07
7.79131e+07
7.75301e+07
7.71419e+07
7.67487e+07
7.63504e+07
7.59473e+07
7.55394e+07
7.51268e+07
7.47096e+07
7.42879e+07
7.38619e+07
7.34315e+07
7.29969e+07
7.25582e+07
7.21154e+07
7.16687e+07
7.1218e+07
7.07636e+07
7.03054e+07
6.98436e+07
6.93782e+07
6.89094e+07
6.8437e+07
6.79614e+07
6.74824e+07
6.70002e+07
6.65149e+07
6.60264e+07
6.5535e+07
6.50405e+07
6.45432e+07
6.40431e+07
6.35401e+07
6.30344e+07
6.25261e+07
6.20152e+07
6.15017e+07
6.09857e+07
6.04672e+07
5.99464e+07
5.94233e+07
5.88978e+07
5.83702e+07
5.78403e+07
5.73083e+07
5.67743e+07
5.62382e+07
5.57002e+07
5.51602e+07
5.46183e+07
5.40747e+07
5.35292e+07
5.29821e+07
5.24332e+07
5.18827e+07
5.13307e+07
5.07771e+07
5.0222e+07
4.96656e+07
4.91077e+07
4.85486e+07
4.79881e+07
4.74265e+07
4.68637e+07
4.62998e+07
4.57348e+07
4.51688e+07
4.46019e+07
4.40341e+07
4.34655e+07
4.28962e+07
4.23261e+07
4.17554e+07
4.11841e+07
4.06122e+07
4.00399e+07
3.94672e+07
3.88942e+07
3.83209e+07
3.77474e+07
3.71738e+07
3.66002e+07
3.60266e+07
3.5453e+07
3.48796e+07
3.43065e+07
3.37337e+07
3.31613e+07
3.25894e+07
3.20181e+07
3.14474e+07
3.08775e+07
3.03084e+07
2.97402e+07
2.9173e+07
2.86069e+07
2.80421e+07
2.74785e+07
2.69164e+07
2.63557e+07
2.57966e+07
2.52393e+07
2.46838e+07
2.41302e+07
2.35787e+07
2.30293e+07
2.24823e+07
2.19376e+07
2.13955e+07
2.0856e+07
2.03194e+07
1.97856e+07
1.9255e+07
1.87276e+07
1.82036e+07
1.76831e+07
1.71664e+07
1.66535e+07
1.61448e+07
1.56404e+07
1.51405e+07
1.46454e+07
1.41554e+07
1.3671e+07
1.31925e+07
1.27205e+07
1.2256e+07
1.18004e+07
1.13562e+07
8.83123e+07
8.83051e+07
8.82906e+07
8.82686e+07
8.82391e+07
8.82019e+07
8.81568e+07
8.81038e+07
8.80428e+07
8.79736e+07
8.78962e+07
8.78105e+07
8.77165e+07
8.76141e+07
8.75033e+07
8.7384e+07
8.72563e+07
8.71201e+07
8.69755e+07
8.68225e+07
8.66611e+07
8.64913e+07
8.63132e+07
8.61268e+07
8.59323e+07
8.57296e+07
8.55188e+07
8.53001e+07
8.50735e+07
8.48391e+07
8.4597e+07
8.43473e+07
8.40901e+07
8.38254e+07
8.35535e+07
8.32745e+07
8.29883e+07
8.26952e+07
8.23953e+07
8.20886e+07
8.17753e+07
8.14556e+07
8.11294e+07
8.0797e+07
8.04585e+07
8.01139e+07
7.97634e+07
7.94071e+07
7.90451e+07
7.86775e+07
7.83045e+07
7.7926e+07
7.75424e+07
7.71535e+07
7.67596e+07
7.63608e+07
7.59571e+07
7.55487e+07
7.51356e+07
7.47179e+07
7.42958e+07
7.38693e+07
7.34385e+07
7.30035e+07
7.25644e+07
7.21213e+07
7.16742e+07
7.12233e+07
7.07685e+07
7.03101e+07
6.9848e+07
6.93823e+07
6.89132e+07
6.84406e+07
6.79647e+07
6.74856e+07
6.70032e+07
6.65177e+07
6.6029e+07
6.55374e+07
6.50428e+07
6.45454e+07
6.40451e+07
6.3542e+07
6.30362e+07
6.25277e+07
6.20167e+07
6.15031e+07
6.0987e+07
6.04685e+07
5.99476e+07
5.94243e+07
5.88988e+07
5.83711e+07
5.78412e+07
5.73091e+07
5.6775e+07
5.62389e+07
5.57008e+07
5.51608e+07
5.46189e+07
5.40752e+07
5.35297e+07
5.29825e+07
5.24336e+07
5.18831e+07
5.1331e+07
5.07774e+07
5.02223e+07
4.96658e+07
4.9108e+07
4.85488e+07
4.79883e+07
4.74267e+07
4.68638e+07
4.62999e+07
4.57349e+07
4.5169e+07
4.4602e+07
4.40343e+07
4.34656e+07
4.28963e+07
4.23262e+07
4.17554e+07
4.11841e+07
4.06123e+07
4.004e+07
3.94673e+07
3.88942e+07
3.8321e+07
3.77475e+07
3.71739e+07
3.66002e+07
3.60266e+07
3.5453e+07
3.48797e+07
3.43065e+07
3.37337e+07
3.31613e+07
3.25894e+07
3.20181e+07
3.14474e+07
3.08775e+07
3.03084e+07
2.97402e+07
2.9173e+07
2.86069e+07
2.80421e+07
2.74785e+07
2.69164e+07
2.63557e+07
2.57966e+07
2.52393e+07
2.46838e+07
2.41302e+07
2.35787e+07
2.30293e+07
2.24822e+07
2.19376e+07
2.13955e+07
2.0856e+07
2.03193e+07
1.97856e+07
1.9255e+07
1.87276e+07
1.82035e+07
1.76831e+07
1.71663e+07
1.66534e+07
1.61447e+07
1.56402e+07
1.51402e+07
1.46451e+07
1.4155e+07
1.36704e+07
1.31917e+07
1.27195e+07
1.22544e+07
1.17977e+07
1.13506e+07
8.84089e+07
8.84015e+07
8.83867e+07
8.83643e+07
8.83342e+07
8.82962e+07
8.82503e+07
8.81964e+07
8.81342e+07
8.80638e+07
8.79851e+07
8.78981e+07
8.78026e+07
8.76986e+07
8.75861e+07
8.74651e+07
8.73355e+07
8.71975e+07
8.7051e+07
8.6896e+07
8.67325e+07
8.65607e+07
8.63806e+07
8.61921e+07
8.59955e+07
8.57907e+07
8.55779e+07
8.53571e+07
8.51285e+07
8.4892e+07
8.46479e+07
8.43963e+07
8.41371e+07
8.38706e+07
8.35969e+07
8.3316e+07
8.30281e+07
8.27333e+07
8.24317e+07
8.21234e+07
8.18085e+07
8.14873e+07
8.11597e+07
8.08258e+07
8.04859e+07
8.014e+07
7.97883e+07
7.94308e+07
7.90676e+07
7.86989e+07
7.83248e+07
7.79453e+07
7.75606e+07
7.71708e+07
7.67761e+07
7.63764e+07
7.59718e+07
7.55626e+07
7.51488e+07
7.47304e+07
7.43076e+07
7.38804e+07
7.3449e+07
7.30134e+07
7.25738e+07
7.21301e+07
7.16825e+07
7.12311e+07
7.07759e+07
7.0317e+07
6.98545e+07
6.93885e+07
6.89189e+07
6.8446e+07
6.79698e+07
6.74903e+07
6.70076e+07
6.65218e+07
6.6033e+07
6.55411e+07
6.50463e+07
6.45486e+07
6.40481e+07
6.35448e+07
6.30388e+07
6.25302e+07
6.2019e+07
6.15052e+07
6.0989e+07
6.04703e+07
5.99493e+07
5.94259e+07
5.89003e+07
5.83725e+07
5.78424e+07
5.73103e+07
5.67761e+07
5.62399e+07
5.57017e+07
5.51616e+07
5.46197e+07
5.40759e+07
5.35304e+07
5.29831e+07
5.24342e+07
5.18836e+07
5.13315e+07
5.07779e+07
5.02227e+07
4.96662e+07
4.91083e+07
4.85491e+07
4.79886e+07
4.74269e+07
4.68641e+07
4.63001e+07
4.57351e+07
4.51691e+07
4.46022e+07
4.40344e+07
4.34658e+07
4.28964e+07
4.23263e+07
4.17555e+07
4.11842e+07
4.06124e+07
4.00401e+07
3.94673e+07
3.88943e+07
3.8321e+07
3.77475e+07
3.71739e+07
3.66003e+07
3.60266e+07
3.54531e+07
3.48797e+07
3.43066e+07
3.37338e+07
3.31614e+07
3.25894e+07
3.20181e+07
3.14474e+07
3.08775e+07
3.03084e+07
2.97402e+07
2.9173e+07
2.8607e+07
2.80421e+07
2.74785e+07
2.69164e+07
2.63557e+07
2.57967e+07
2.52393e+07
2.46838e+07
2.41302e+07
2.35787e+07
2.30293e+07
2.24822e+07
2.19376e+07
2.13954e+07
2.0856e+07
2.03193e+07
1.97856e+07
1.92549e+07
1.87275e+07
1.82035e+07
1.7683e+07
1.71662e+07
1.66533e+07
1.61445e+07
1.56399e+07
1.51399e+07
1.46447e+07
1.41545e+07
1.36697e+07
1.31907e+07
1.27179e+07
1.22521e+07
1.1794e+07
1.13441e+07
8.85387e+07
8.8531e+07
8.85157e+07
8.84927e+07
8.84618e+07
8.84228e+07
8.83758e+07
8.83205e+07
8.82569e+07
8.81849e+07
8.81044e+07
8.80154e+07
8.79179e+07
8.78117e+07
8.76969e+07
8.75735e+07
8.74415e+07
8.73009e+07
8.71518e+07
8.69941e+07
8.68279e+07
8.66534e+07
8.64704e+07
8.62792e+07
8.60797e+07
8.58722e+07
8.56566e+07
8.5433e+07
8.52016e+07
8.49625e+07
8.47157e+07
8.44614e+07
8.41997e+07
8.39307e+07
8.36545e+07
8.33712e+07
8.30809e+07
8.27838e+07
8.248e+07
8.21696e+07
8.18527e+07
8.15294e+07
8.11998e+07
8.08641e+07
8.05224e+07
8.01747e+07
7.98213e+07
7.94622e+07
7.90974e+07
7.87272e+07
7.83517e+07
7.79709e+07
7.75849e+07
7.71938e+07
7.67978e+07
7.6397e+07
7.59914e+07
7.55811e+07
7.51662e+07
7.47469e+07
7.43232e+07
7.38952e+07
7.34629e+07
7.30266e+07
7.25862e+07
7.21418e+07
7.16935e+07
7.12414e+07
7.07856e+07
7.03262e+07
6.98631e+07
6.93966e+07
6.89266e+07
6.84532e+07
6.79765e+07
6.74966e+07
6.70136e+07
6.65274e+07
6.60381e+07
6.55459e+07
6.50508e+07
6.45528e+07
6.4052e+07
6.35485e+07
6.30423e+07
6.25334e+07
6.2022e+07
6.1508e+07
6.09916e+07
6.04728e+07
5.99516e+07
5.9428e+07
5.89023e+07
5.83743e+07
5.78441e+07
5.73119e+07
5.67776e+07
5.62413e+07
5.5703e+07
5.51628e+07
5.46208e+07
5.40769e+07
5.35313e+07
5.29839e+07
5.24349e+07
5.18843e+07
5.13321e+07
5.07785e+07
5.02233e+07
4.96667e+07
4.91088e+07
4.85495e+07
4.7989e+07
4.74273e+07
4.68644e+07
4.63004e+07
4.57354e+07
4.51694e+07
4.46024e+07
4.40346e+07
4.3466e+07
4.28966e+07
4.23264e+07
4.17557e+07
4.11843e+07
4.06125e+07
4.00402e+07
3.94674e+07
3.88944e+07
3.83211e+07
3.77476e+07
3.7174e+07
3.66003e+07
3.60267e+07
3.54531e+07
3.48797e+07
3.43066e+07
3.37338e+07
3.31614e+07
3.25895e+07
3.20181e+07
3.14475e+07
3.08775e+07
3.03084e+07
2.97402e+07
2.9173e+07
2.8607e+07
2.80421e+07
2.74785e+07
2.69164e+07
2.63557e+07
2.57967e+07
2.52393e+07
2.46838e+07
2.41302e+07
2.35787e+07
2.30293e+07
2.24822e+07
2.19376e+07
2.13954e+07
2.08559e+07
2.03193e+07
1.97855e+07
1.92549e+07
1.87274e+07
1.82034e+07
1.76828e+07
1.7166e+07
1.66531e+07
1.61442e+07
1.56396e+07
1.51395e+07
1.46441e+07
1.41537e+07
1.36687e+07
1.31893e+07
1.2716e+07
1.22493e+07
1.17897e+07
1.13372e+07
8.87024e+07
8.86943e+07
8.86785e+07
8.86546e+07
8.86227e+07
8.85825e+07
8.85339e+07
8.8477e+07
8.84114e+07
8.83373e+07
8.82545e+07
8.81631e+07
8.80628e+07
8.79539e+07
8.78362e+07
8.77097e+07
8.75745e+07
8.74307e+07
8.72781e+07
8.7117e+07
8.69474e+07
8.67693e+07
8.65828e+07
8.6388e+07
8.6185e+07
8.59739e+07
8.57548e+07
8.55278e+07
8.52929e+07
8.50504e+07
8.48002e+07
8.45426e+07
8.42777e+07
8.40055e+07
8.37262e+07
8.34399e+07
8.31467e+07
8.28468e+07
8.25402e+07
8.2227e+07
8.19075e+07
8.15817e+07
8.12497e+07
8.09117e+07
8.05677e+07
8.02179e+07
7.98623e+07
7.95012e+07
7.91345e+07
7.87625e+07
7.83851e+07
7.80026e+07
7.7615e+07
7.72224e+07
7.68249e+07
7.64226e+07
7.60156e+07
7.5604e+07
7.51879e+07
7.47674e+07
7.43426e+07
7.39135e+07
7.34802e+07
7.30429e+07
7.26015e+07
7.21563e+07
7.17072e+07
7.12543e+07
7.07977e+07
7.03376e+07
6.98738e+07
6.94066e+07
6.8936e+07
6.84621e+07
6.79849e+07
6.75045e+07
6.70209e+07
6.65342e+07
6.60446e+07
6.5552e+07
6.50565e+07
6.45581e+07
6.4057e+07
6.35531e+07
6.30466e+07
6.25374e+07
6.20257e+07
6.15115e+07
6.09949e+07
6.04758e+07
5.99544e+07
5.94307e+07
5.89047e+07
5.83765e+07
5.78462e+07
5.73138e+07
5.67794e+07
5.62429e+07
5.57045e+07
5.51642e+07
5.46221e+07
5.40781e+07
5.35324e+07
5.2985e+07
5.24359e+07
5.18852e+07
5.1333e+07
5.07792e+07
5.0224e+07
4.96673e+07
4.91093e+07
4.855e+07
4.79895e+07
4.74277e+07
4.68648e+07
4.63008e+07
4.57357e+07
4.51697e+07
4.46027e+07
4.40349e+07
4.34662e+07
4.28968e+07
4.23266e+07
4.17559e+07
4.11845e+07
4.06126e+07
4.00403e+07
3.94676e+07
3.88945e+07
3.83212e+07
3.77477e+07
3.7174e+07
3.66004e+07
3.60267e+07
3.54532e+07
3.48798e+07
3.43066e+07
3.37338e+07
3.31614e+07
3.25895e+07
3.20182e+07
3.14475e+07
3.08775e+07
3.03084e+07
2.97402e+07
2.91731e+07
2.8607e+07
2.80421e+07
2.74786e+07
2.69164e+07
2.63557e+07
2.57967e+07
2.52393e+07
2.46838e+07
2.41302e+07
2.35787e+07
2.30293e+07
2.24822e+07
2.19375e+07
2.13954e+07
2.08559e+07
2.03192e+07
1.97855e+07
1.92548e+07
1.87273e+07
1.82033e+07
1.76827e+07
1.71658e+07
1.66528e+07
1.61439e+07
1.56392e+07
1.51389e+07
1.46434e+07
1.41528e+07
1.36675e+07
1.31877e+07
1.27138e+07
1.22462e+07
1.17851e+07
1.13303e+07
8.89012e+07
8.88926e+07
8.8876e+07
8.88511e+07
8.88179e+07
8.87761e+07
8.87257e+07
8.86666e+07
8.85986e+07
8.85219e+07
8.84362e+07
8.83416e+07
8.82381e+07
8.81256e+07
8.80043e+07
8.7874e+07
8.77349e+07
8.7587e+07
8.74303e+07
8.7265e+07
8.70911e+07
8.69086e+07
8.67178e+07
8.65187e+07
8.63114e+07
8.60959e+07
8.58725e+07
8.56412e+07
8.54022e+07
8.51555e+07
8.49013e+07
8.46397e+07
8.43709e+07
8.40949e+07
8.38118e+07
8.35219e+07
8.32252e+07
8.29218e+07
8.26119e+07
8.22955e+07
8.19729e+07
8.16441e+07
8.13092e+07
8.09683e+07
8.06217e+07
8.02692e+07
7.99112e+07
7.95476e+07
7.91787e+07
7.88044e+07
7.84249e+07
7.80404e+07
7.76508e+07
7.72563e+07
7.6857e+07
7.64531e+07
7.60445e+07
7.56313e+07
7.52137e+07
7.47918e+07
7.43656e+07
7.39352e+07
7.35008e+07
7.30623e+07
7.26198e+07
7.21735e+07
7.17234e+07
7.12696e+07
7.08121e+07
7.03511e+07
6.98866e+07
6.94186e+07
6.89473e+07
6.84727e+07
6.79948e+07
6.75138e+07
6.70296e+07
6.65424e+07
6.60523e+07
6.55591e+07
6.50632e+07
6.45644e+07
6.40628e+07
6.35586e+07
6.30517e+07
6.25422e+07
6.20302e+07
6.15157e+07
6.09987e+07
6.04794e+07
5.99577e+07
5.94338e+07
5.89076e+07
5.83792e+07
5.78487e+07
5.73162e+07
5.67815e+07
5.62449e+07
5.57064e+07
5.5166e+07
5.46237e+07
5.40796e+07
5.35338e+07
5.29862e+07
5.24371e+07
5.18863e+07
5.13339e+07
5.07801e+07
5.02248e+07
4.96681e+07
4.911e+07
4.85507e+07
4.79901e+07
4.74282e+07
4.68653e+07
4.63012e+07
4.57361e+07
4.51701e+07
4.46031e+07
4.40352e+07
4.34665e+07
4.2897e+07
4.23269e+07
4.17561e+07
4.11847e+07
4.06128e+07
4.00404e+07
3.94677e+07
3.88946e+07
3.83213e+07
3.77478e+07
3.71741e+07
3.66005e+07
3.60268e+07
3.54532e+07
3.48798e+07
3.43067e+07
3.37339e+07
3.31615e+07
3.25895e+07
3.20182e+07
3.14475e+07
3.08776e+07
3.03085e+07
2.97403e+07
2.91731e+07
2.8607e+07
2.80421e+07
2.74786e+07
2.69164e+07
2.63557e+07
2.57967e+07
2.52393e+07
2.46838e+07
2.41302e+07
2.35787e+07
2.30293e+07
2.24822e+07
2.19375e+07
2.13954e+07
2.08559e+07
2.03192e+07
1.97854e+07
1.92547e+07
1.87272e+07
1.82031e+07
1.76825e+07
1.71656e+07
1.66525e+07
1.61435e+07
1.56387e+07
1.51383e+07
1.46426e+07
1.41518e+07
1.36661e+07
1.31859e+07
1.27113e+07
1.22427e+07
1.17802e+07
1.13234e+07
8.91363e+07
8.91272e+07
8.91097e+07
8.90835e+07
8.90486e+07
8.90049e+07
8.89522e+07
8.88904e+07
8.88195e+07
8.87395e+07
8.86503e+07
8.85519e+07
8.84443e+07
8.83276e+07
8.82018e+07
8.80669e+07
8.7923e+07
8.77701e+07
8.76085e+07
8.74381e+07
8.7259e+07
8.70714e+07
8.68754e+07
8.66711e+07
8.64586e+07
8.6238e+07
8.60095e+07
8.57732e+07
8.55292e+07
8.52776e+07
8.50187e+07
8.47524e+07
8.4479e+07
8.41985e+07
8.39111e+07
8.36169e+07
8.33161e+07
8.30087e+07
8.26949e+07
8.23748e+07
8.20486e+07
8.17162e+07
8.1378e+07
8.10339e+07
8.0684e+07
8.03286e+07
7.99677e+07
7.96013e+07
7.92297e+07
7.88528e+07
7.84709e+07
7.8084e+07
7.76922e+07
7.72955e+07
7.68942e+07
7.64883e+07
7.60778e+07
7.56628e+07
7.52436e+07
7.482e+07
7.43923e+07
7.39604e+07
7.35245e+07
7.30847e+07
7.26409e+07
7.21934e+07
7.17422e+07
7.12873e+07
7.08288e+07
7.03668e+07
6.99013e+07
6.94325e+07
6.89603e+07
6.84849e+07
6.80063e+07
6.75245e+07
6.70397e+07
6.65519e+07
6.60611e+07
6.55674e+07
6.50709e+07
6.45716e+07
6.40696e+07
6.35649e+07
6.30576e+07
6.25477e+07
6.20353e+07
6.15205e+07
6.10032e+07
6.04836e+07
5.99616e+07
5.94374e+07
5.8911e+07
5.83824e+07
5.78516e+07
5.73188e+07
5.6784e+07
5.62472e+07
5.57085e+07
5.51679e+07
5.46255e+07
5.40813e+07
5.35353e+07
5.29877e+07
5.24384e+07
5.18875e+07
5.1335e+07
5.07811e+07
5.02257e+07
4.9669e+07
4.91108e+07
4.85514e+07
4.79907e+07
4.74289e+07
4.68658e+07
4.63017e+07
4.57366e+07
4.51705e+07
4.46034e+07
4.40355e+07
4.34668e+07
4.28973e+07
4.23271e+07
4.17563e+07
4.11849e+07
4.0613e+07
4.00406e+07
3.94678e+07
3.88948e+07
3.83214e+07
3.77479e+07
3.71742e+07
3.66005e+07
3.60269e+07
3.54533e+07
3.48799e+07
3.43067e+07
3.37339e+07
3.31615e+07
3.25896e+07
3.20182e+07
3.14476e+07
3.08776e+07
3.03085e+07
2.97403e+07
2.91731e+07
2.8607e+07
2.80422e+07
2.74786e+07
2.69164e+07
2.63557e+07
2.57967e+07
2.52393e+07
2.46838e+07
2.41302e+07
2.35787e+07
2.30293e+07
2.24822e+07
2.19375e+07
2.13953e+07
2.08558e+07
2.03191e+07
1.97853e+07
1.92546e+07
1.87271e+07
1.8203e+07
1.76823e+07
1.71653e+07
1.66522e+07
1.61431e+07
1.56382e+07
1.51377e+07
1.46417e+07
1.41506e+07
1.36646e+07
1.31839e+07
1.27087e+07
1.22391e+07
1.17753e+07
1.13168e+07
8.94095e+07
8.93998e+07
8.93811e+07
8.93534e+07
8.93165e+07
8.92704e+07
8.92148e+07
8.91498e+07
8.90753e+07
8.89914e+07
8.88978e+07
8.87948e+07
8.86824e+07
8.85605e+07
8.84293e+07
8.82889e+07
8.81393e+07
8.79806e+07
8.7813e+07
8.76365e+07
8.74514e+07
8.72577e+07
8.70556e+07
8.68452e+07
8.66267e+07
8.64001e+07
8.61657e+07
8.59235e+07
8.56738e+07
8.54166e+07
8.51521e+07
8.48804e+07
8.46017e+07
8.43161e+07
8.40237e+07
8.37247e+07
8.34191e+07
8.31072e+07
8.2789e+07
8.24646e+07
8.21342e+07
8.17979e+07
8.14558e+07
8.1108e+07
8.07546e+07
8.03957e+07
8.00315e+07
7.9662e+07
7.92873e+07
7.89076e+07
7.85229e+07
7.81333e+07
7.77389e+07
7.73399e+07
7.69362e+07
7.6528e+07
7.61154e+07
7.56985e+07
7.52772e+07
7.48518e+07
7.44223e+07
7.39888e+07
7.35513e+07
7.311e+07
7.26648e+07
7.22159e+07
7.17634e+07
7.13072e+07
7.08476e+07
7.03844e+07
6.99179e+07
6.94481e+07
6.8975e+07
6.84987e+07
6.80192e+07
6.75367e+07
6.70511e+07
6.65626e+07
6.60711e+07
6.55768e+07
6.50797e+07
6.45798e+07
6.40773e+07
6.35721e+07
6.30643e+07
6.2554e+07
6.20412e+07
6.15259e+07
6.10083e+07
6.04883e+07
5.9966e+07
5.94415e+07
5.89148e+07
5.83859e+07
5.78549e+07
5.73219e+07
5.67868e+07
5.62499e+07
5.57109e+07
5.51702e+07
5.46276e+07
5.40832e+07
5.35371e+07
5.29893e+07
5.24399e+07
5.18889e+07
5.13363e+07
5.07823e+07
5.02268e+07
4.96699e+07
4.91117e+07
4.85522e+07
4.79915e+07
4.74295e+07
4.68665e+07
4.63023e+07
4.57371e+07
4.5171e+07
4.46039e+07
4.40359e+07
4.34672e+07
4.28976e+07
4.23274e+07
4.17566e+07
4.11851e+07
4.06132e+07
4.00408e+07
3.9468e+07
3.88949e+07
3.83216e+07
3.7748e+07
3.71744e+07
3.66006e+07
3.6027e+07
3.54534e+07
3.488e+07
3.43068e+07
3.3734e+07
3.31616e+07
3.25896e+07
3.20183e+07
3.14476e+07
3.08776e+07
3.03085e+07
2.97403e+07
2.91731e+07
2.86071e+07
2.80422e+07
2.74786e+07
2.69164e+07
2.63558e+07
2.57967e+07
2.52393e+07
2.46838e+07
2.41302e+07
2.35787e+07
2.30293e+07
2.24822e+07
2.19375e+07
2.13953e+07
2.08558e+07
2.03191e+07
1.97853e+07
1.92545e+07
1.8727e+07
1.82028e+07
1.76821e+07
1.71651e+07
1.66519e+07
1.61426e+07
1.56376e+07
1.51369e+07
1.46408e+07
1.41494e+07
1.3663e+07
1.31818e+07
1.27059e+07
1.22354e+07
1.17704e+07
1.13104e+07
8.97229e+07
8.97123e+07
8.96923e+07
8.96627e+07
8.96234e+07
8.95743e+07
8.95153e+07
8.94464e+07
8.93676e+07
8.92788e+07
8.91801e+07
8.90715e+07
8.89532e+07
8.88252e+07
8.86876e+07
8.85406e+07
8.83842e+07
8.82186e+07
8.8044e+07
8.78605e+07
8.76683e+07
8.74675e+07
8.72584e+07
8.70409e+07
8.68154e+07
8.65819e+07
8.63407e+07
8.60919e+07
8.58356e+07
8.5572e+07
8.53012e+07
8.50234e+07
8.47387e+07
8.44473e+07
8.41493e+07
8.38448e+07
8.35339e+07
8.32168e+07
8.28937e+07
8.25645e+07
8.22295e+07
8.18887e+07
8.15423e+07
8.11904e+07
8.0833e+07
8.04703e+07
8.01024e+07
7.97294e+07
7.93514e+07
7.89684e+07
7.85806e+07
7.8188e+07
7.77908e+07
7.73891e+07
7.69828e+07
7.65722e+07
7.61572e+07
7.5738e+07
7.53146e+07
7.48872e+07
7.44557e+07
7.40203e+07
7.35811e+07
7.31381e+07
7.26913e+07
7.22409e+07
7.17869e+07
7.13294e+07
7.08684e+07
7.04041e+07
6.99364e+07
6.94654e+07
6.89913e+07
6.8514e+07
6.80336e+07
6.75502e+07
6.70638e+07
6.65744e+07
6.60822e+07
6.55872e+07
6.50894e+07
6.45889e+07
6.40858e+07
6.35801e+07
6.30717e+07
6.25609e+07
6.20476e+07
6.15319e+07
6.10139e+07
6.04935e+07
5.99709e+07
5.9446e+07
5.8919e+07
5.83898e+07
5.78585e+07
5.73253e+07
5.679e+07
5.62527e+07
5.57136e+07
5.51726e+07
5.46298e+07
5.40853e+07
5.3539e+07
5.29911e+07
5.24415e+07
5.18904e+07
5.13377e+07
5.07836e+07
5.0228e+07
4.9671e+07
4.91127e+07
4.85531e+07
4.79923e+07
4.74303e+07
4.68672e+07
4.6303e+07
4.57377e+07
4.51715e+07
4.46044e+07
4.40364e+07
4.34676e+07
4.2898e+07
4.23278e+07
4.17569e+07
4.11854e+07
4.06134e+07
4.0041e+07
3.94682e+07
3.88951e+07
3.83217e+07
3.77482e+07
3.71745e+07
3.66008e+07
3.60271e+07
3.54535e+07
3.48801e+07
3.43069e+07
3.37341e+07
3.31616e+07
3.25897e+07
3.20183e+07
3.14476e+07
3.08777e+07
3.03086e+07
2.97404e+07
2.91732e+07
2.86071e+07
2.80422e+07
2.74786e+07
2.69165e+07
2.63558e+07
2.57967e+07
2.52394e+07
2.46838e+07
2.41302e+07
2.35787e+07
2.30293e+07
2.24822e+07
2.19374e+07
2.13953e+07
2.08557e+07
2.0319e+07
1.97852e+07
1.92544e+07
1.87268e+07
1.82026e+07
1.76819e+07
1.71648e+07
1.66515e+07
1.61422e+07
1.5637e+07
1.51361e+07
1.46398e+07
1.41481e+07
1.36613e+07
1.31796e+07
1.2703e+07
1.22317e+07
1.17656e+07
1.13043e+07
9.0079e+07
9.00675e+07
9.00458e+07
9.00139e+07
8.99717e+07
8.9919e+07
8.98558e+07
8.97821e+07
8.9698e+07
8.96034e+07
8.94985e+07
8.93833e+07
8.92579e+07
8.91226e+07
8.89774e+07
8.88226e+07
8.86583e+07
8.84846e+07
8.83019e+07
8.81102e+07
8.79098e+07
8.77008e+07
8.74835e+07
8.7258e+07
8.70245e+07
8.67832e+07
8.65343e+07
8.62779e+07
8.60142e+07
8.57434e+07
8.54656e+07
8.51809e+07
8.48896e+07
8.45917e+07
8.42874e+07
8.39768e+07
8.366e+07
8.33373e+07
8.30086e+07
8.26741e+07
8.2334e+07
8.19883e+07
8.16372e+07
8.12807e+07
8.0919e+07
8.05521e+07
8.01801e+07
7.98033e+07
7.94215e+07
7.9035e+07
7.86438e+07
7.8248e+07
7.78477e+07
7.74429e+07
7.70338e+07
7.66205e+07
7.62029e+07
7.57813e+07
7.53555e+07
7.49258e+07
7.44923e+07
7.40548e+07
7.36137e+07
7.31688e+07
7.27203e+07
7.22682e+07
7.18127e+07
7.13537e+07
7.08913e+07
7.04256e+07
6.99566e+07
6.94844e+07
6.90091e+07
6.85308e+07
6.80493e+07
6.75649e+07
6.70776e+07
6.65874e+07
6.60944e+07
6.55986e+07
6.51001e+07
6.45989e+07
6.40951e+07
6.35888e+07
6.30799e+07
6.25685e+07
6.20547e+07
6.15386e+07
6.102e+07
6.04993e+07
5.99762e+07
5.9451e+07
5.89236e+07
5.83941e+07
5.78625e+07
5.73289e+07
5.67934e+07
5.62559e+07
5.57166e+07
5.51754e+07
5.46324e+07
5.40876e+07
5.35412e+07
5.29931e+07
5.24433e+07
5.18921e+07
5.13393e+07
5.0785e+07
5.02293e+07
4.96722e+07
4.91138e+07
4.85541e+07
4.79932e+07
4.74312e+07
4.68679e+07
4.63037e+07
4.57384e+07
4.51721e+07
4.46049e+07
4.40369e+07
4.3468e+07
4.28984e+07
4.23281e+07
4.17572e+07