/*--------------------------------*- C++ -*----------------------------------*\
  =========                 |
  \\      /  F ield         | OpenFOAM: The Open Source CFD Toolbox
   \\    /   O peration     | Website:  https://openfoam.org
    \\  /    A nd           | Version:  10
     \\/     M anipulation  |
\*---------------------------------------------------------------------------*/
FoamFile
{
    format      ascii;
    class       volVectorField;
    location    "16250";
    object      Ua;
}
// * * * * * * * * * * * * * * * * * * * * * * * * * * * * * * * * * * * * * //

dimensions      [0 1 -1 0 0 0 0];

internalField   nonuniform List<vector> 
3200
(
(-3.92808e-07 5.67279e-07 0)
(-1.17902e-06 5.78328e-07 0)
(-1.97391e-06 6.00794e-07 0)
(-2.79294e-06 6.36031e-07 0)
(-3.65327e-06 6.86567e-07 0)
(-4.57537e-06 7.56533e-07 0)
(-5.58524e-06 8.52441e-07 0)
(-6.7178e-06 9.84563e-07 0)
(-8.02221e-06 1.16939e-06 0)
(-9.57088e-06 1.43413e-06 0)
(-1.14751e-05 1.82508e-06 0)
(-1.39134e-05 2.42377e-06 0)
(-1.71838e-05 3.37852e-06 0)
(-2.18042e-05 4.96787e-06 0)
(-2.87077e-05 7.72958e-06 0)
(-3.96315e-05 1.27272e-05 0)
(-5.78923e-05 2.21049e-05 0)
(-3.99015e-05 2.69285e-05 0)
(-6.52329e-06 2.7277e-05 0)
(-1.98633e-06 9.04884e-06 0)
(-1.06567e-06 5.18782e-06 0)
(-6.71754e-07 3.47693e-06 0)
(-4.61253e-07 2.52459e-06 0)
(-3.35015e-07 1.92958e-06 0)
(-2.53487e-07 1.53005e-06 0)
(-1.97955e-07 1.24773e-06 0)
(-1.58555e-07 1.04043e-06 0)
(-1.29675e-07 8.83514e-07 0)
(-1.07929e-07 7.61737e-07 0)
(-9.11744e-08 6.65221e-07 0)
(-7.80086e-08 5.87298e-07 0)
(-6.75393e-08 5.23317e-07 0)
(-5.76057e-08 4.61576e-07 0)
(-4.80334e-08 4.1148e-07 0)
(-4.02715e-08 3.70494e-07 0)
(-3.36979e-08 3.35613e-07 0)
(-2.75675e-08 3.04516e-07 0)
(-2.12584e-08 2.7567e-07 0)
(-1.40908e-08 2.47835e-07 0)
(-5.35727e-09 2.17047e-07 0)
(-3.7671e-07 1.67859e-06 0)
(-1.1296e-06 1.70966e-06 0)
(-1.88739e-06 1.77264e-06 0)
(-2.66208e-06 1.87082e-06 0)
(-3.46616e-06 2.01041e-06 0)
(-4.31319e-06 2.2013e-06 0)
(-5.21835e-06 2.45861e-06 0)
(-6.19867e-06 2.80518e-06 0)
(-7.27259e-06 3.27562e-06 0)
(-8.4578e-06 3.92316e-06 0)
(-9.76475e-06 4.83089e-06 0)
(-1.118e-05 6.13078e-06 0)
(-1.26262e-05 8.03577e-06 0)
(-1.38683e-05 1.08942e-05 0)
(-1.42995e-05 1.5282e-05 0)
(-1.2455e-05 2.21571e-05 0)
(-4.92422e-06 3.31132e-05 0)
(8.26989e-06 3.55494e-05 0)
(1.34417e-05 9.89657e-06 0)
(9.34752e-06 6.61801e-06 0)
(6.06312e-06 5.11953e-06 0)
(3.44518e-06 4.24664e-06 0)
(1.18957e-06 3.74363e-06 0)
(-9.18474e-07 3.50353e-06 0)
(-3.05056e-06 3.4903e-06 0)
(-5.37687e-06 3.71872e-06 0)
(-8.10515e-06 4.25666e-06 0)
(-1.15289e-05 5.24534e-06 0)
(-1.60999e-05 6.94337e-06 0)
(-2.25468e-05 9.80897e-06 0)
(-3.2078e-05 1.46484e-05 0)
(-2.40035e-05 1.56577e-05 0)
(-6.3218e-06 2.30157e-06 0)
(-1.89583e-06 1.16244e-06 0)
(-1.11073e-06 9.50477e-07 0)
(-7.29546e-07 8.00259e-07 0)
(-4.94588e-07 6.64791e-07 0)
(-3.27372e-07 5.32145e-07 0)
(-1.8832e-07 3.93725e-07 0)
(-6.19558e-08 2.5112e-07 0)
(-3.4753e-07 2.72451e-06 0)
(-1.04034e-06 2.77026e-06 0)
(-1.73228e-06 2.86242e-06 0)
(-2.4302e-06 3.00465e-06 0)
(-3.14014e-06 3.20384e-06 0)
(-3.867e-06 3.47066e-06 0)
(-4.61373e-06 3.82055e-06 0)
(-5.3798e-06 4.27501e-06 0)
(-6.15836e-06 4.86346e-06 0)
(-6.93129e-06 5.62524e-06 0)
(-7.66082e-06 6.61133e-06 0)
(-8.2762e-06 7.88417e-06 0)
(-8.65407e-06 9.51138e-06 0)
(-8.59461e-06 1.15441e-05 0)
(-7.80616e-06 1.39587e-05 0)
(-5.94438e-06 1.65164e-05 0)
(-2.83937e-06 1.84431e-05 0)
(7.32768e-07 1.77281e-05 0)
(2.82855e-06 1.35848e-05 0)
(3.00174e-06 1.08009e-05 0)
(2.32848e-06 9.01671e-06 0)
(1.30842e-06 7.91041e-06 0)
(1.54354e-07 7.29433e-06 0)
(-1.04237e-06 7.07186e-06 0)
(-2.23381e-06 7.21102e-06 0)
(-3.37185e-06 7.73328e-06 0)
(-4.37067e-06 8.71436e-06 0)
(-5.05542e-06 1.02953e-05 0)
(-5.074e-06 1.27049e-05 0)
(-3.73527e-06 1.62958e-05 0)
(2.90212e-07 2.15977e-05 0)
(6.63978e-06 2.21698e-05 0)
(8.86833e-06 7.25825e-06 0)
(6.42552e-06 5.09889e-06 0)
(4.1598e-06 4.28765e-06 0)
(2.16549e-06 3.83401e-06 0)
(2.60591e-07 3.63764e-06 0)
(-1.69796e-06 3.67458e-06 0)
(-1.53327e-06 9.50237e-07 0)
(-1.11437e-07 2.11353e-07 0)
(-3.10046e-07 3.67416e-06 0)
(-9.2625e-07 3.72792e-06 0)
(-1.53598e-06 3.83543e-06 0)
(-2.14125e-06 3.99929e-06 0)
(-2.74264e-06 4.2247e-06 0)
(-3.33863e-06 4.51945e-06 0)
(-3.92453e-06 4.89406e-06 0)
(-4.49104e-06 5.36166e-06 0)
(-5.02214e-06 5.93767e-06 0)
(-5.49236e-06 6.63851e-06 0)
(-5.86357e-06 7.47874e-06 0)
(-6.082e-06 8.46538e-06 0)
(-6.07766e-06 9.58743e-06 0)
(-5.77002e-06 1.07987e-05 0)
(-5.0876e-06 1.19932e-05 0)
(-4.01094e-06 1.29771e-05 0)
(-2.64374e-06 1.34628e-05 0)
(-1.28072e-06 1.31564e-05 0)
(-3.0988e-07 1.21402e-05 0)
(1.18376e-07 1.10539e-05 0)
(1.19361e-07 1.01445e-05 0)
(-1.58454e-07 9.48476e-06 0)
(-5.93397e-07 9.08452e-06 0)
(-1.09256e-06 8.93546e-06 0)
(-1.5797e-06 9.02772e-06 0)
(-1.98203e-06 9.35305e-06 0)
(-2.21956e-06 9.89984e-06 0)
(-2.19946e-06 1.06396e-05 0)
(-1.82128e-06 1.15003e-05 0)
(-1.00715e-06 1.23164e-05 0)
(2.12456e-07 1.27383e-05 0)
(1.49404e-06 1.20681e-05 0)
(2.17836e-06 1.01119e-05 0)
(2.11767e-06 8.69357e-06 0)
(1.68267e-06 7.76581e-06 0)
(1.10159e-06 7.22159e-06 0)
(5.18186e-07 7.00319e-06 0)
(5.1938e-08 7.0798e-06 0)
(-1.10241e-07 2.10934e-06 0)
(1.02973e-08 7.0653e-08 0)
(-2.69193e-07 4.51067e-06 0)
(-8.02564e-07 4.56635e-06 0)
(-1.32545e-06 4.67683e-06 0)
(-1.8364e-06 4.8431e-06 0)
(-2.33263e-06 5.06771e-06 0)
(-2.80938e-06 5.35451e-06 0)
(-3.25925e-06 5.70817e-06 0)
(-3.6714e-06 6.13353e-06 0)
(-4.03079e-06 6.63446e-06 0)
(-4.31758e-06 7.2121e-06 0)
(-4.50712e-06 7.86218e-06 0)
(-4.57125e-06 8.57125e-06 0)
(-4.48181e-06 9.31201e-06 0)
(-4.21751e-06 1.00384e-05 0)
(-3.77487e-06 1.06833e-05 0)
(-3.18192e-06 1.11627e-05 0)
(-2.50894e-06 1.13944e-05 0)
(-1.86343e-06 1.13381e-05 0)
(-1.35363e-06 1.10466e-05 0)
(-1.03499e-06 1.06552e-05 0)
(-9.00374e-07 1.0271e-05 0)
(-9.10023e-07 9.95897e-06 0)
(-1.01373e-06 9.7519e-06 0)
(-1.16117e-06 9.66146e-06 0)
(-1.30534e-06 9.68541e-06 0)
(-1.40333e-06 9.81035e-06 0)
(-1.4174e-06 1.00111e-05 0)
(-1.31821e-06 1.02479e-05 0)
(-1.09174e-06 1.04627e-05 0)
(-7.50256e-07 1.05783e-05 0)
(-3.44809e-07 1.05076e-05 0)
(3.0873e-08 1.01864e-05 0)
(2.73891e-07 9.66223e-06 0)
(3.45885e-07 9.12199e-06 0)
(2.78756e-07 8.65671e-06 0)
(1.21725e-07 8.30031e-06 0)
(-8.06711e-08 8.05694e-06 0)
(-2.97482e-07 7.91121e-06 0)
(-2.3002e-07 3.11473e-06 0)
(1.07415e-08 1.23759e-08 0)
(-2.28925e-07 5.23004e-06 0)
(-6.81274e-07 5.28315e-06 0)
(-1.12111e-06 5.38781e-06 0)
(-1.54505e-06 5.54345e-06 0)
(-1.9488e-06 5.75029e-06 0)
(-2.32681e-06 6.00882e-06 0)
(-2.67188e-06 6.31934e-06 0)
(-2.97501e-06 6.68125e-06 0)
(-3.22538e-06 7.09207e-06 0)
(-3.41069e-06 7.54632e-06 0)
(-3.51804e-06 8.03411e-06 0)
(-3.53562e-06 8.53973e-06 0)
(-3.45532e-06 9.04069e-06 0)
(-3.27617e-06 9.50775e-06 0)
(-3.00808e-06 9.90716e-06 0)
(-2.67454e-06 1.0206e-05 0)
(-2.31205e-06 1.03809e-05 0)
(-1.96408e-06 1.04288e-05 0)
(-1.66965e-06 1.03728e-05 0)
(-1.45171e-06 1.02549e-05 0)
(-1.31391e-06 1.01171e-05 0)
(-1.24524e-06 9.99183e-06 0)
(-1.22641e-06 9.89967e-06 0)
(-1.23488e-06 9.84989e-06 0)
(-1.2483e-06 9.84226e-06 0)
(-1.24696e-06 9.86837e-06 0)
(-1.21576e-06 9.9128e-06 0)
(-1.14622e-06 9.95425e-06 0)
(-1.03845e-06 9.96761e-06 0)
(-9.02446e-07 9.9277e-06 0)
(-7.57612e-07 9.81548e-06 0)
(-6.28616e-07 9.62653e-06 0)
(-5.36848e-07 9.37834e-06 0)
(-4.91109e-07 9.10531e-06 0)
(-4.86258e-07 8.83827e-06 0)
(-5.09153e-07 8.59951e-06 0)
(-5.44806e-07 8.40423e-06 0)
(-5.81196e-07 8.26357e-06 0)
(-3.2415e-07 3.34439e-06 0)
(1.11908e-08 7.46519e-09 0)
(-1.91802e-07 5.83764e-06 0)
(-5.69963e-07 5.88556e-06 0)
(-9.35254e-07 5.9794e-06 0)
(-1.28356e-06 6.11757e-06 0)
(-1.61034e-06 6.29863e-06 0)
(-1.91047e-06 6.52099e-06 0)
(-2.17814e-06 6.78245e-06 0)
(-2.4069e-06 7.07974e-06 0)
(-2.58996e-06 7.408e-06 0)
(-2.72063e-06 7.7602e-06 0)
(-2.79315e-06 8.12669e-06 0)
(-2.80378e-06 8.49502e-06 0)
(-2.75204e-06 8.85017e-06 0)
(-2.64202e-06 9.17553e-06 0)
(-2.48329e-06 9.45479e-06 0)
(-2.29079e-06 9.67468e-06 0)
(-2.08341e-06 9.82806e-06 0)
(-1.88103e-06 9.91644e-06 0)
(-1.70062e-06 9.95013e-06 0)
(-1.5531e-06 9.94539e-06 0)
(-1.4422e-06 9.91963e-06 0)
(-1.3654e-06 9.88771e-06 0)
(-1.31599e-06 9.85997e-06 0)
(-1.28514e-06 9.84165e-06 0)
(-1.26379e-06 9.83309e-06 0)
(-1.24409e-06 9.83034e-06 0)
(-1.22059e-06 9.82612e-06 0)
(-1.19089e-06 9.8109e-06 0)
(-1.15594e-06 9.77449e-06 0)
(-1.11967e-06 9.70773e-06 0)
(-1.08778e-06 9.60442e-06 0)
(-1.0657e-06 9.46286e-06 0)
(-1.056e-06 9.28614e-06 0)
(-1.0561e-06 9.08068e-06 0)
(-1.05728e-06 8.85364e-06 0)
(-1.04484e-06 8.612e-06 0)
(-9.99038e-07 8.36374e-06 0)
(-8.96664e-07 8.12101e-06 0)
(-4.37869e-07 3.06602e-06 0)
(1.20859e-08 6.86994e-09 0)
(-1.59098e-07 6.34439e-06 0)
(-4.7227e-07 6.38602e-06 0)
(-7.73336e-07 6.46712e-06 0)
(-1.05819e-06 6.58557e-06 0)
(-1.3227e-06 6.73908e-06 0)
(-1.56262e-06 6.92505e-06 0)
(-1.77363e-06 7.14023e-06 0)
(-1.95147e-06 7.38055e-06 0)
(-2.0922e-06 7.64084e-06 0)
(-2.19254e-06 7.91468e-06 0)
(-2.2504e-06 8.19438e-06 0)
(-2.26541e-06 8.47113e-06 0)
(-2.23939e-06 8.7355e-06 0)
(-2.17678e-06 8.97815e-06 0)
(-2.08456e-06 9.19091e-06 0)
(-1.9719e-06 9.36794e-06 0)
(-1.84916e-06 9.50674e-06 0)
(-1.72656e-06 9.60863e-06 0)
(-1.61276e-06 9.67841e-06 0)
(-1.51384e-06 9.72313e-06 0)
(-1.43288e-06 9.75053e-06 0)
(-1.3703e-06 9.7675e-06 0)
(-1.32457e-06 9.77918e-06 0)
(-1.29311e-06 9.78846e-06 0)
(-1.2732e-06 9.79593e-06 0)
(-1.26269e-06 9.80016e-06 0)
(-1.26055e-06 9.79806e-06 0)
(-1.26714e-06 9.7855e-06 0)
(-1.28418e-06 9.7578e-06 0)
(-1.31446e-06 9.71024e-06 0)
(-1.36116e-06 9.63832e-06 0)
(-1.42685e-06 9.53761e-06 0)
(-1.51221e-06 9.40301e-06 0)
(-1.61447e-06 9.22746e-06 0)
(-1.72522e-06 9.00003e-06 0)
(-1.8272e-06 8.70386e-06 0)
(-1.88884e-06 8.31359e-06 0)
(-1.8548e-06 7.79214e-06 0)
(-9.24304e-07 2.11514e-06 0)
(1.4389e-08 5.93639e-09 0)
(-1.3115e-07 6.76356e-06 0)
(-3.89028e-07 6.79882e-06 0)
(-6.36152e-07 6.86725e-06 0)
(-8.68814e-07 6.96658e-06 0)
(-1.08351e-06 7.09427e-06 0)
(-1.27691e-06 7.24743e-06 0)
(-1.44594e-06 7.42267e-06 0)
(-1.58787e-06 7.61604e-06 0)
(-1.70053e-06 7.82296e-06 0)
(-1.78247e-06 8.03821e-06 0)
(-1.83329e-06 8.2561e-06 0)
(-1.85377e-06 8.47062e-06 0)
(-1.8461e-06 8.67583e-06 0)
(-1.81387e-06 8.86632e-06 0)
(-1.76192e-06 9.03771e-06 0)
(-1.69596e-06 9.18713e-06 0)
(-1.62211e-06 9.3135e-06 0)
(-1.54623e-06 9.41757e-06 0)
(-1.47337e-06 9.5017e-06 0)
(-1.40742e-06 9.56926e-06 0)
(-1.35096e-06 9.62401e-06 0)
(-1.3054e-06 9.66946e-06 0)
(-1.27129e-06 9.7085e-06 0)
(-1.24877e-06 9.74307e-06 0)
(-1.23797e-06 9.77417e-06 0)
(-1.23942e-06 9.80191e-06 0)
(-1.2544e-06 9.82572e-06 0)
(-1.28516e-06 9.84451e-06 0)
(-1.33514e-06 9.85693e-06 0)
(-1.40909e-06 9.86138e-06 0)
(-1.51332e-06 9.85597e-06 0)
(-1.65603e-06 9.8382e-06 0)
(-1.84796e-06 9.80426e-06 0)
(-2.10351e-06 9.74795e-06 0)
(-2.44261e-06 9.65905e-06 0)
(-2.89371e-06 9.52087e-06 0)
(-3.49837e-06 9.3065e-06 0)
(-4.31778e-06 8.97259e-06 0)
(-2.4128e-06 1.58348e-06 0)
(2.01513e-08 5.77794e-09 0)
(-1.07725e-07 7.10853e-06 0)
(-3.19406e-07 7.13793e-06 0)
(-5.21884e-07 7.19484e-06 0)
(-7.11991e-07 7.27709e-06 0)
(-8.86868e-07 7.38224e-06 0)
(-1.04397e-06 7.50753e-06 0)
(-1.18113e-06 7.64985e-06 0)
(-1.29661e-06 7.80578e-06 0)
(-1.38923e-06 7.97155e-06 0)
(-1.45846e-06 8.14315e-06 0)
(-1.50453e-06 8.31643e-06 0)
(-1.52852e-06 8.48729e-06 0)
(-1.53232e-06 8.65194e-06 0)
(-1.51862e-06 8.80706e-06 0)
(-1.49072e-06 8.95013e-06 0)
(-1.45233e-06 9.07957e-06 0)
(-1.40728e-06 9.1948e-06 0)
(-1.35922e-06 9.29626e-06 0)
(-1.3114e-06 9.3852e-06 0)
(-1.2665e-06 9.46345e-06 0)
(-1.22658e-06 9.53312e-06 0)
(-1.19319e-06 9.59637e-06 0)
(-1.16749e-06 9.6552e-06 0)
(-1.15045e-06 9.71134e-06 0)
(-1.14309e-06 9.76629e-06 0)
(-1.14669e-06 9.82132e-06 0)
(-1.163e-06 9.87769e-06 0)
(-1.19443e-06 9.93675e-06 0)
(-1.24428e-06 1.00002e-05 0)
(-1.31698e-06 1.00702e-05 0)
(-1.41847e-06 1.01498e-05 0)
(-1.55678e-06 1.02432e-05 0)
(-1.74291e-06 1.03562e-05 0)
(-1.99219e-06 1.04968e-05 0)
(-2.32648e-06 1.06764e-05 0)
(-2.77742e-06 1.09119e-05 0)
(-3.39154e-06 1.12281e-05 0)
(-4.23301e-06 1.16602e-05 0)
(-2.37425e-06 2.43734e-06 0)
(2.33004e-08 8.56241e-09 0)
(-8.8311e-08 7.39164e-06 0)
(-2.61786e-07 7.41595e-06 0)
(-4.27573e-07 7.46292e-06 0)
(-5.83049e-07 7.53062e-06 0)
(-7.25929e-07 7.61687e-06 0)
(-8.54277e-07 7.71924e-06 0)
(-9.6654e-07 7.83508e-06 0)
(-1.06159e-06 7.96156e-06 0)
(-1.13879e-06 8.09569e-06 0)
(-1.198e-06 8.23445e-06 0)
(-1.23965e-06 8.37482e-06 0)
(-1.26471e-06 8.51398e-06 0)
(-1.27468e-06 8.64938e-06 0)
(-1.27149e-06 8.77892e-06 0)
(-1.25741e-06 8.90103e-06 0)
(-1.23491e-06 9.01475e-06 0)
(-1.20647e-06 9.11975e-06 0)
(-1.17448e-06 9.21628e-06 0)
(-1.14108e-06 9.30511e-06 0)
(-1.10814e-06 9.38739e-06 0)
(-1.07718e-06 9.46449e-06 0)
(-1.04942e-06 9.53798e-06 0)
(-1.02587e-06 9.60947e-06 0)
(-1.00736e-06 9.68062e-06 0)
(-9.94642e-07 9.75316e-06 0)
(-9.88497e-07 9.82896e-06 0)
(-9.89741e-07 9.91016e-06 0)
(-9.99274e-07 9.99929e-06 0)
(-1.01806e-06 1.00995e-05 0)
(-1.04706e-06 1.02149e-05 0)
(-1.08708e-06 1.03508e-05 0)
(-1.13848e-06 1.0514e-05 0)
(-1.20068e-06 1.07139e-05 0)
(-1.27126e-06 1.0963e-05 0)
(-1.34432e-06 1.12783e-05 0)
(-1.40779e-06 1.1683e-05 0)
(-1.43853e-06 1.2209e-05 0)
(-1.38932e-06 1.28916e-05 0)
(-6.86368e-07 2.53266e-06 0)
(1.27043e-08 1.11127e-08 0)
(-7.23052e-08 7.6236e-06 0)
(-2.14323e-07 7.64363e-06 0)
(-3.50011e-07 7.6823e-06 0)
(-4.77237e-07 7.73794e-06 0)
(-5.94183e-07 7.80871e-06 0)
(-6.99366e-07 7.89256e-06 0)
(-7.91651e-07 7.9873e-06 0)
(-8.70271e-07 8.09065e-06 0)
(-9.3485e-07 8.20031e-06 0)
(-9.85405e-07 8.31397e-06 0)
(-1.02235e-06 8.42944e-06 0)
(-1.04645e-06 8.54471e-06 0)
(-1.05883e-06 8.65803e-06 0)
(-1.06085e-06 8.76798e-06 0)
(-1.05406e-06 8.87352e-06 0)
(-1.04012e-06 8.97402e-06 0)
(-1.02065e-06 9.06926e-06 0)
(-9.97225e-07 9.15941e-06 0)
(-9.71256e-07 9.24496e-06 0)
(-9.43957e-07 9.32668e-06 0)
(-9.16325e-07 9.40555e-06 0)
(-8.89136e-07 9.48273e-06 0)
(-8.6295e-07 9.55951e-06 0)
(-8.38126e-07 9.63728e-06 0)
(-8.14825e-07 9.71759e-06 0)
(-7.92999e-07 9.80217e-06 0)
(-7.72356e-07 9.89296e-06 0)
(-7.52286e-07 9.99222e-06 0)
(-7.31748e-07 1.01026e-05 0)
(-7.09086e-07 1.02272e-05 0)
(-6.81776e-07 1.03696e-05 0)
(-6.46072e-07 1.05341e-05 0)
(-5.96528e-07 1.07257e-05 0)
(-5.25381e-07 1.09496e-05 0)
(-4.21785e-07 1.12113e-05 0)
(-2.70947e-07 1.15161e-05 0)
(-5.33172e-08 1.18671e-05 0)
(2.56286e-07 1.22486e-05 0)
(2.00477e-07 1.62213e-06 0)
(4.64869e-09 1.1754e-08 0)
(-5.91243e-08 7.8134e-06 0)
(-1.75253e-07 7.82991e-06 0)
(-2.86213e-07 7.86176e-06 0)
(-3.9028e-07 7.90758e-06 0)
(-4.8601e-07 7.96581e-06 0)
(-5.72249e-07 8.03478e-06 0)
(-6.48137e-07 8.11273e-06 0)
(-7.13121e-07 8.19784e-06 0)
(-7.6695e-07 8.28833e-06 0)
(-8.09671e-07 8.38244e-06 0)
(-8.41607e-07 8.47856e-06 0)
(-8.63335e-07 8.5752e-06 0)
(-8.75641e-07 8.67112e-06 0)
(-8.79471e-07 8.76531e-06 0)
(-8.75877e-07 8.85702e-06 0)
(-8.65948e-07 8.9458e-06 0)
(-8.50762e-07 9.03148e-06 0)
(-8.31323e-07 9.11413e-06 0)
(-8.08523e-07 9.19406e-06 0)
(-7.83104e-07 9.27177e-06 0)
(-7.55637e-07 9.34791e-06 0)
(-7.26502e-07 9.42327e-06 0)
(-6.95876e-07 9.49874e-06 0)
(-6.6372e-07 9.5753e-06 0)
(-6.29756e-07 9.65399e-06 0)
(-5.93434e-07 9.73596e-06 0)
(-5.53891e-07 9.82238e-06 0)
(-5.09881e-07 9.91452e-06 0)
(-4.59693e-07 1.00137e-05 0)
(-4.01048e-07 1.01211e-05 0)
(-3.30975e-07 1.02379e-05 0)
(-2.45683e-07 1.03651e-05 0)
(-1.40444e-07 1.0503e-05 0)
(-9.51217e-09 1.06516e-05 0)
(1.53866e-07 1.08091e-05 0)
(3.57264e-07 1.09726e-05 0)
(6.0861e-07 1.11361e-05 0)
(9.15274e-07 1.12749e-05 0)
(5.29557e-07 1.29926e-06 0)
(1.94771e-09 1.35628e-08 0)
(-4.82531e-08 7.96847e-06 0)
(-1.43032e-07 7.98211e-06 0)
(-2.33605e-07 8.00841e-06 0)
(-3.1858e-07 8.04625e-06 0)
(-3.968e-07 8.09437e-06 0)
(-4.6735e-07 8.15139e-06 0)
(-5.29558e-07 8.2159e-06 0)
(-5.82996e-07 8.28649e-06 0)
(-6.27467e-07 8.36174e-06 0)
(-6.62999e-07 8.44032e-06 0)
(-6.89817e-07 8.52099e-06 0)
(-7.08322e-07 8.60265e-06 0)
(-7.19051e-07 8.68436e-06 0)
(-7.22645e-07 8.76535e-06 0)
(-7.19802e-07 8.84506e-06 0)
(-7.11237e-07 8.92312e-06 0)
(-6.97645e-07 8.99935e-06 0)
(-6.79658e-07 9.07373e-06 0)
(-6.5782e-07 9.14642e-06 0)
(-6.32556e-07 9.21767e-06 0)
(-6.04158e-07 9.28786e-06 0)
(-5.7276e-07 9.35743e-06 0)
(-5.38331e-07 9.42686e-06 0)
(-5.00654e-07 9.49668e-06 0)
(-4.59314e-07 9.56741e-06 0)
(-4.1368e-07 9.63952e-06 0)
(-3.62879e-07 9.71344e-06 0)
(-3.0578e-07 9.78948e-06 0)
(-2.40965e-07 9.86777e-06 0)
(-1.66713e-07 9.94822e-06 0)
(-8.09943e-08 1.00304e-05 0)
(1.85247e-08 1.01132e-05 0)
(1.3444e-07 1.01953e-05 0)
(2.69536e-07 1.02741e-05 0)
(4.26671e-07 1.03463e-05 0)
(6.08612e-07 1.04071e-05 0)
(8.17857e-07 1.04504e-05 0)
(1.05648e-06 1.04529e-05 0)
(5.90878e-07 1.30397e-06 0)
(3.60757e-10 1.10115e-08 0)
(-3.92597e-08 8.09486e-06 0)
(-1.16374e-07 8.10615e-06 0)
(-1.90068e-07 8.12796e-06 0)
(-2.59213e-07 8.15933e-06 0)
(-3.22874e-07 8.19926e-06 0)
(-3.80311e-07 8.24663e-06 0)
(-4.30982e-07 8.30032e-06 0)
(-4.74534e-07 8.35919e-06 0)
(-5.10796e-07 8.42215e-06 0)
(-5.3976e-07 8.48814e-06 0)
(-5.61566e-07 8.5562e-06 0)
(-5.76474e-07 8.62549e-06 0)
(-5.84842e-07 8.69525e-06 0)
(-5.87093e-07 8.76489e-06 0)
(-5.83685e-07 8.83394e-06 0)
(-5.75084e-07 8.90207e-06 0)
(-5.61734e-07 8.96906e-06 0)
(-5.44032e-07 9.03484e-06 0)
(-5.22308e-07 9.09938e-06 0)
(-4.96806e-07 9.16279e-06 0)
(-4.67673e-07 9.22518e-06 0)
(-4.34942e-07 9.28672e-06 0)
(-3.9853e-07 9.34758e-06 0)
(-3.58233e-07 9.40791e-06 0)
(-3.13717e-07 9.46782e-06 0)
(-2.64526e-07 9.52733e-06 0)
(-2.1008e-07 9.58636e-06 0)
(-1.49688e-07 9.64466e-06 0)
(-8.25675e-08 9.70178e-06 0)
(-7.87499e-09 9.75703e-06 0)
(7.52475e-08 9.80939e-06 0)
(1.67602e-07 9.85744e-06 0)
(2.69837e-07 9.89933e-06 0)
(3.82318e-07 9.93268e-06 0)
(5.04958e-07 9.95452e-06 0)
(6.36997e-07 9.96126e-06 0)
(7.76731e-07 9.94864e-06 0)
(9.21215e-07 9.89575e-06 0)
(5.28688e-07 1.35836e-06 0)
(2.38857e-08 6.59168e-09 0)
(-3.17936e-08 8.19747e-06 0)
(-9.42384e-08 8.20686e-06 0)
(-1.53899e-07 8.225e-06 0)
(-2.09855e-07 8.25111e-06 0)
(-2.61341e-07 8.28437e-06 0)
(-3.0775e-07 8.32389e-06 0)
(-3.48632e-07 8.36876e-06 0)
(-3.83685e-07 8.41808e-06 0)
(-4.12749e-07 8.47096e-06 0)
(-4.35785e-07 8.52657e-06 0)
(-4.52865e-07 8.58416e-06 0)
(-4.64151e-07 8.64303e-06 0)
(-4.6987e-07 8.70258e-06 0)
(-4.703e-07 8.76231e-06 0)
(-4.65741e-07 8.82181e-06 0)
(-4.56498e-07 8.88077e-06 0)
(-4.4286e-07 8.93895e-06 0)
(-4.25087e-07 8.99619e-06 0)
(-4.03392e-07 9.05238e-06 0)
(-3.77932e-07 9.10747e-06 0)
(-3.48802e-07 9.16143e-06 0)
(-3.16029e-07 9.21422e-06 0)
(-2.79571e-07 9.2658e-06 0)
(-2.39321e-07 9.3161e-06 0)
(-1.95114e-07 9.36499e-06 0)
(-1.46734e-07 9.41227e-06 0)
(-9.39343e-08 9.45763e-06 0)
(-3.64575e-08 9.50064e-06 0)
(2.59331e-08 9.54074e-06 0)
(9.34143e-08 9.57719e-06 0)
(1.66053e-07 9.60907e-06 0)
(2.43745e-07 9.6353e-06 0)
(3.26138e-07 9.65458e-06 0)
(4.12545e-07 9.66547e-06 0)
(5.0184e-07 9.66643e-06 0)
(5.92347e-07 9.65584e-06 0)
(6.81711e-07 9.63219e-06 0)
(7.66854e-07 9.57781e-06 0)
(4.2877e-07 1.4357e-06 0)
(1.20362e-08 6.07247e-09 0)
(-2.55744e-08 8.28032e-06 0)
(-7.57944e-08 8.28815e-06 0)
(-1.23746e-07 8.30328e-06 0)
(-1.68671e-07 8.32509e-06 0)
(-2.09936e-07 8.35289e-06 0)
(-2.47038e-07 8.38596e-06 0)
(-2.79594e-07 8.42357e-06 0)
(-3.07343e-07 8.465e-06 0)
(-3.30128e-07 8.50952e-06 0)
(-3.47892e-07 8.55647e-06 0)
(-3.60659e-07 8.60522e-06 0)
(-3.68521e-07 8.65521e-06 0)
(-3.71623e-07 8.70594e-06 0)
(-3.70143e-07 8.75698e-06 0)
(-3.64284e-07 8.80794e-06 0)
(-3.54251e-07 8.85854e-06 0)
(-3.40245e-07 8.90852e-06 0)
(-3.22449e-07 8.95767e-06 0)
(-3.01021e-07 9.00583e-06 0)
(-2.76088e-07 9.05285e-06 0)
(-2.47741e-07 9.0986e-06 0)
(-2.16041e-07 9.14294e-06 0)
(-1.81016e-07 9.18572e-06 0)
(-1.42666e-07 9.22678e-06 0)
(-1.0098e-07 9.26588e-06 0)
(-5.59392e-08 9.30277e-06 0)
(-7.53901e-09 9.3371e-06 0)
(4.41943e-08 9.36848e-06 0)
(9.91799e-08 9.39645e-06 0)
(1.57256e-07 9.42046e-06 0)
(2.18154e-07 9.43992e-06 0)
(2.81464e-07 9.45419e-06 0)
(3.46617e-07 9.46262e-06 0)
(4.12852e-07 9.46459e-06 0)
(4.79219e-07 9.45955e-06 0)
(5.44578e-07 9.44713e-06 0)
(6.07649e-07 9.42722e-06 0)
(6.67204e-07 9.38311e-06 0)
(3.72713e-07 1.51598e-06 0)
(8.39489e-09 5.98981e-09 0)
(-2.03797e-08 8.34668e-06 0)
(-6.03843e-08 8.35323e-06 0)
(-9.85389e-08 8.36589e-06 0)
(-1.34214e-07 8.38413e-06 0)
(-1.66881e-07 8.40742e-06 0)
(-1.96116e-07 8.43515e-06 0)
(-2.21593e-07 8.46674e-06 0)
(-2.43081e-07 8.50158e-06 0)
(-2.60431e-07 8.5391e-06 0)
(-2.73575e-07 8.57873e-06 0)
(-2.82505e-07 8.61998e-06 0)
(-2.87272e-07 8.66236e-06 0)
(-2.87964e-07 8.70544e-06 0)
(-2.84702e-07 8.74885e-06 0)
(-2.77625e-07 8.79225e-06 0)
(-2.66884e-07 8.83535e-06 0)
(-2.52629e-07 8.87789e-06 0)
(-2.35003e-07 8.91965e-06 0)
(-2.14143e-07 8.96044e-06 0)
(-1.90169e-07 9.00005e-06 0)
(-1.6319e-07 9.03833e-06 0)
(-1.33301e-07 9.0751e-06 0)
(-1.0059e-07 9.11015e-06 0)
(-6.51406e-08 9.14331e-06 0)
(-2.70431e-08 9.17434e-06 0)
(1.35994e-08 9.20299e-06 0)
(5.6659e-08 9.229e-06 0)
(1.01971e-07 9.25206e-06 0)
(1.49321e-07 9.27187e-06 0)
(1.98435e-07 9.28809e-06 0)
(2.48966e-07 9.3004e-06 0)
(3.0049e-07 9.3085e-06 0)
(3.52497e-07 9.31212e-06 0)
(4.04399e-07 9.31108e-06 0)
(4.55536e-07 9.30528e-06 0)
(5.05197e-07 9.29475e-06 0)
(5.52648e-07 9.27968e-06 0)
(5.97283e-07 9.24287e-06 0)
(3.33176e-07 1.59502e-06 0)
(5.10287e-09 5.92822e-09 0)
(-1.60324e-08 8.39927e-06 0)
(-4.74851e-08 8.40475e-06 0)
(-7.7429e-08 8.41535e-06 0)
(-1.05337e-07 8.43064e-06 0)
(-1.30765e-07 8.45016e-06 0)
(-1.53354e-07 8.47344e-06 0)
(-1.72823e-07 8.49998e-06 0)
(-1.88966e-07 8.52929e-06 0)
(-2.01649e-07 8.56089e-06 0)
(-2.10795e-07 8.59432e-06 0)
(-2.16384e-07 8.62916e-06 0)
(-2.18436e-07 8.66499e-06 0)
(-2.17011e-07 8.70145e-06 0)
(-2.12191e-07 8.73821e-06 0)
(-2.04082e-07 8.77496e-06 0)
(-1.928e-07 8.81143e-06 0)
(-1.78467e-07 8.84737e-06 0)
(-1.6121e-07 8.88257e-06 0)
(-1.41154e-07 8.91681e-06 0)
(-1.18423e-07 8.94991e-06 0)
(-9.31395e-08 8.98168e-06 0)
(-6.54259e-08 9.01194e-06 0)
(-3.54067e-08 9.0405e-06 0)
(-3.21344e-09 9.06719e-06 0)
(3.10115e-08 9.09181e-06 0)
(6.71091e-08 9.11417e-06 0)
(1.04898e-07 9.13407e-06 0)
(1.4417e-07 9.15131e-06 0)
(1.84684e-07 9.16571e-06 0)
(2.26164e-07 9.17709e-06 0)
(2.68296e-07 9.18531e-06 0)
(3.10733e-07 9.19024e-06 0)
(3.53092e-07 9.19182e-06 0)
(3.94971e-07 9.19006e-06 0)
(4.35951e-07 9.18502e-06 0)
(4.75617e-07 9.17686e-06 0)
(5.1357e-07 9.16582e-06 0)
(5.49595e-07 9.13394e-06 0)
(3.07481e-07 1.67473e-06 0)
(3.71429e-09 5.88774e-09 0)
(-1.23914e-08 8.44032e-06 0)
(-3.66793e-08 8.44491e-06 0)
(-5.97381e-08 8.45379e-06 0)
(-8.11237e-08 8.4666e-06 0)
(-1.00461e-07 8.48297e-06 0)
(-1.17441e-07 8.5025e-06 0)
(-1.31825e-07 8.52479e-06 0)
(-1.4343e-07 8.54942e-06 0)
(-1.52133e-07 8.576e-06 0)
(-1.57861e-07 8.60415e-06 0)
(-1.60584e-07 8.6335e-06 0)
(-1.60311e-07 8.6637e-06 0)
(-1.57079e-07 8.69444e-06 0)
(-1.50953e-07 8.72543e-06 0)
(-1.42017e-07 8.7564e-06 0)
(-1.30366e-07 8.78709e-06 0)
(-1.16109e-07 8.81728e-06 0)
(-9.93622e-08 8.84677e-06 0)
(-8.02451e-08 8.87536e-06 0)
(-5.88834e-08 8.90286e-06 0)
(-3.54068e-08 8.92911e-06 0)
(-9.94988e-09 8.95393e-06 0)
(1.7346e-08 8.97718e-06 0)
(4.63312e-08 8.99869e-06 0)
(7.68453e-08 9.01831e-06 0)
(1.08715e-07 9.03591e-06 0)
(1.41753e-07 9.05136e-06 0)
(1.75754e-07 9.06452e-06 0)
(2.10498e-07 9.07529e-06 0)
(2.45748e-07 9.0836e-06 0)
(2.81251e-07 9.08938e-06 0)
(3.16748e-07 9.09262e-06 0)
(3.51972e-07 9.09332e-06 0)
(3.86662e-07 9.09155e-06 0)
(4.20569e-07 9.0874e-06 0)
(4.5347e-07 9.08102e-06 0)
(4.85187e-07 9.0726e-06 0)
(5.15714e-07 9.04332e-06 0)
(2.90111e-07 1.75622e-06 0)
(3.56299e-09 5.85477e-09 0)
(-9.34276e-09 8.4717e-06 0)
(-2.76303e-08 8.47555e-06 0)
(-4.49191e-08 8.48297e-06 0)
(-6.08326e-08 8.4937e-06 0)
(-7.50515e-08 8.50741e-06 0)
(-8.73126e-08 8.52378e-06 0)
(-9.74073e-08 8.54246e-06 0)
(-1.05178e-07 8.56312e-06 0)
(-1.10513e-07 8.58543e-06 0)
(-1.13344e-07 8.60906e-06 0)
(-1.1364e-07 8.63371e-06 0)
(-1.11403e-07 8.65908e-06 0)
(-1.06661e-07 8.6849e-06 0)
(-9.94658e-08 8.71091e-06 0)
(-8.9888e-08 8.73689e-06 0)
(-7.80133e-08 8.7626e-06 0)
(-6.39396e-08 8.78784e-06 0)
(-4.77746e-08 8.81244e-06 0)
(-2.96343e-08 8.83621e-06 0)
(-9.64165e-09 8.85899e-06 0)
(1.20737e-08 8.88064e-06 0)
(3.53755e-08 8.901e-06 0)
(6.01209e-08 8.91994e-06 0)
(8.61599e-08 8.93735e-06 0)
(1.13335e-07 8.95311e-06 0)
(1.4148e-07 8.96712e-06 0)
(1.70421e-07 8.97929e-06 0)
(1.99977e-07 8.98955e-06 0)
(2.29962e-07 8.99784e-06 0)
(2.60181e-07 9.00413e-06 0)
(2.90439e-07 9.00841e-06 0)
(3.20544e-07 9.01068e-06 0)
(3.50304e-07 9.01099e-06 0)
(3.79537e-07 9.0094e-06 0)
(4.08073e-07 9.006e-06 0)
(4.35756e-07 9.0009e-06 0)
(4.62446e-07 8.99422e-06 0)
(4.88164e-07 8.96632e-06 0)
(2.74849e-07 1.84161e-06 0)
(2.83369e-09 5.83021e-09 0)
(-6.79416e-09 8.49501e-06 0)
(-2.00646e-08 8.49822e-06 0)
(-3.25267e-08 8.50442e-06 0)
(-4.38595e-08 8.51338e-06 0)
(-5.37899e-08 8.52483e-06 0)
(-6.20919e-08 8.5385e-06 0)
(-6.85851e-08 8.55412e-06 0)
(-7.31318e-08 8.57139e-06 0)
(-7.5634e-08 8.59005e-06 0)
(-7.60298e-08 8.60982e-06 0)
(-7.42895e-08 8.63044e-06 0)
(-7.04119e-08 8.65166e-06 0)
(-6.44205e-08 8.67326e-06 0)
(-5.63599e-08 8.695e-06 0)
(-4.62927e-08 8.71669e-06 0)
(-3.42963e-08 8.73814e-06 0)
(-2.04611e-08 8.75917e-06 0)
(-4.88797e-09 8.77962e-06 0)
(1.23132e-08 8.79934e-06 0)
(3.10247e-08 8.81818e-06 0)
(5.1122e-08 8.83602e-06 0)
(7.24743e-08 8.85275e-06 0)
(9.49455e-08 8.86824e-06 0)
(1.18394e-07 8.88242e-06 0)
(1.42675e-07 8.89519e-06 0)
(1.67638e-07 8.90648e-06 0)
(1.93131e-07 8.91624e-06 0)
(2.18999e-07 8.9244e-06 0)
(2.45089e-07 8.93096e-06 0)
(2.71247e-07 8.93589e-06 0)
(2.97324e-07 8.93921e-06 0)
(3.23174e-07 8.94093e-06 0)
(3.48662e-07 8.94109e-06 0)
(3.73661e-07 8.93976e-06 0)
(3.98056e-07 8.93701e-06 0)
(4.21745e-07 8.93293e-06 0)
(4.44643e-07 8.92762e-06 0)
(4.66801e-07 8.90067e-06 0)
(2.63584e-07 1.93283e-06 0)
(3.05116e-09 5.81494e-09 0)
(-4.67005e-09 8.51157e-06 0)
(-1.37587e-08 8.51423e-06 0)
(-2.21965e-08 8.51939e-06 0)
(-2.97082e-08 8.52684e-06 0)
(-3.60593e-08 8.53637e-06 0)
(-4.10548e-08 8.54775e-06 0)
(-4.45386e-08 8.56074e-06 0)
(-4.63906e-08 8.57512e-06 0)
(-4.65249e-08 8.59065e-06 0)
(-4.48866e-08 8.60711e-06 0)
(-4.14489e-08 8.62427e-06 0)
(-3.62102e-08 8.64194e-06 0)
(-2.91909e-08 8.6599e-06 0)
(-2.0431e-08 8.67799e-06 0)
(-9.98727e-09 8.69602e-06 0)
(2.06919e-09 8.71384e-06 0)
(1.56548e-08 8.73129e-06 0)
(3.06754e-08 8.74824e-06 0)
(4.7028e-08 8.76456e-06 0)
(6.4602e-08 8.78013e-06 0)
(8.32803e-08 8.79485e-06 0)
(1.02941e-07 8.80863e-06 0)
(1.23457e-07 8.82137e-06 0)
(1.447e-07 8.833e-06 0)
(1.66539e-07 8.84346e-06 0)
(1.8884e-07 8.8527e-06 0)
(2.11474e-07 8.86066e-06 0)
(2.34309e-07 8.86732e-06 0)
(2.5722e-07 8.87267e-06 0)
(2.80085e-07 8.87669e-06 0)
(3.02789e-07 8.8794e-06 0)
(3.25224e-07 8.88082e-06 0)
(3.47292e-07 8.88098e-06 0)
(3.68905e-07 8.87993e-06 0)
(3.89986e-07 8.87773e-06 0)
(4.10472e-07 8.87443e-06 0)
(4.30311e-07 8.87013e-06 0)
(4.49612e-07 8.84362e-06 0)
(2.5518e-07 2.0312e-06 0)
(4.13495e-09 5.80416e-09 0)
(-2.90843e-09 8.52251e-06 0)
(-8.52864e-09 8.52471e-06 0)
(-1.36282e-08 8.52898e-06 0)
(-1.79696e-08 8.53514e-06 0)
(-2.135e-08 8.54301e-06 0)
(-2.36006e-08 8.55242e-06 0)
(-2.45855e-08 8.56316e-06 0)
(-2.41999e-08 8.57505e-06 0)
(-2.23685e-08 8.58789e-06 0)
(-1.90427e-08 8.6015e-06 0)
(-1.41989e-08 8.61569e-06 0)
(-7.83551e-09 8.63029e-06 0)
(2.89075e-11 8.64515e-06 0)
(9.35814e-09 8.6601e-06 0)
(2.01004e-08 8.675e-06 0)
(3.21901e-08 8.68972e-06 0)
(4.55502e-08 8.70413e-06 0)
(6.00931e-08 8.71813e-06 0)
(7.5723e-08 8.73161e-06 0)
(9.23364e-08 8.74447e-06 0)
(1.09825e-07 8.75663e-06 0)
(1.28074e-07 8.76802e-06 0)
(1.46969e-07 8.77856e-06 0)
(1.6639e-07 8.7882e-06 0)
(1.8622e-07 8.79688e-06 0)
(2.0634e-07 8.80457e-06 0)
(2.26637e-07 8.81123e-06 0)
(2.46999e-07 8.81683e-06 0)
(2.6732e-07 8.82137e-06 0)
(2.87504e-07 8.82482e-06 0)
(3.07458e-07 8.82721e-06 0)
(3.27101e-07 8.82853e-06 0)
(3.46361e-07 8.82881e-06 0)
(3.65178e-07 8.82808e-06 0)
(3.835e-07 8.82637e-06 0)
(4.01289e-07 8.82374e-06 0)
(4.18515e-07 8.82023e-06 0)
(4.35242e-07 8.79399e-06 0)
(2.48446e-07 2.13844e-06 0)
(5.67298e-09 5.79742e-09 0)
(-1.45824e-09 8.52882e-06 0)
(-4.22323e-09 8.53062e-06 0)
(-6.57457e-09 8.53411e-06 0)
(-8.30595e-09 8.53916e-06 0)
(-9.24073e-09 8.54561e-06 0)
(-9.23158e-09 8.55331e-06 0)
(-8.15942e-09 8.56211e-06 0)
(-5.93214e-09 8.57185e-06 0)
(-2.48301e-09 8.58236e-06 0)
(2.23112e-09 8.5935e-06 0)
(8.23163e-09 8.60512e-06 0)
(1.55201e-08 8.61708e-06 0)
(2.40801e-08 8.62924e-06 0)
(3.3879e-08 8.64148e-06 0)
(4.48698e-08 8.65369e-06 0)
(5.69929e-08 8.66575e-06 0)
(7.0177e-08 8.67758e-06 0)
(8.43414e-08 8.68907e-06 0)
(9.9397e-08 8.70016e-06 0)
(1.15247e-07 8.71076e-06 0)
(1.31791e-07 8.72082e-06 0)
(1.48922e-07 8.73026e-06 0)
(1.66531e-07 8.73905e-06 0)
(1.84508e-07 8.74713e-06 0)
(2.02743e-07 8.75447e-06 0)
(2.2113e-07 8.76103e-06 0)
(2.39562e-07 8.76677e-06 0)
(2.57942e-07 8.77168e-06 0)
(2.76177e-07 8.77574e-06 0)
(2.94182e-07 8.77893e-06 0)
(3.11882e-07 8.78124e-06 0)
(3.29213e-07 8.78268e-06 0)
(3.46121e-07 8.78324e-06 0)
(3.62563e-07 8.78293e-06 0)
(3.78505e-07 8.78178e-06 0)
(3.93926e-07 8.7798e-06 0)
(4.08811e-07 8.77703e-06 0)
(4.23195e-07 8.75125e-06 0)
(2.43219e-07 2.25655e-06 0)
(7.68548e-09 5.79492e-09 0)
(-2.77536e-10 8.53132e-06 0)
(-7.17976e-10 8.53278e-06 0)
(-8.32274e-10 8.5356e-06 0)
(-4.39586e-10 8.53968e-06 0)
(6.15231e-10 8.54489e-06 0)
(2.46206e-09 8.55111e-06 0)
(5.20633e-09 8.55822e-06 0)
(8.93013e-09 8.56608e-06 0)
(1.36934e-08 8.57456e-06 0)
(1.95357e-08 8.58355e-06 0)
(2.6477e-08 8.59293e-06 0)
(3.452e-08 8.60257e-06 0)
(4.36512e-08 8.61239e-06 0)
(5.38422e-08 8.62227e-06 0)
(6.50515e-08 8.63213e-06 0)
(7.72254e-08 8.64189e-06 0)
(9.02995e-08 8.65148e-06 0)
(1.042e-07 8.66082e-06 0)
(1.18844e-07 8.66986e-06 0)
(1.34141e-07 8.67855e-06 0)
(1.49997e-07 8.68684e-06 0)
(1.6631e-07 8.6947e-06 0)
(1.82976e-07 8.70207e-06 0)
(1.99888e-07 8.70894e-06 0)
(2.16941e-07 8.71527e-06 0)
(2.34029e-07 8.72103e-06 0)
(2.51051e-07 8.7262e-06 0)
(2.67909e-07 8.73075e-06 0)
(2.84515e-07 8.73465e-06 0)
(3.00789e-07 8.73787e-06 0)