/*--------------------------------*- C++ -*----------------------------------*\
  =========                 |
  \\      /  F ield         | OpenFOAM: The Open Source CFD Toolbox
   \\    /   O peration     | Website:  https://openfoam.org
    \\  /    A nd           | Version:  10
     \\/     M anipulation  |
\*---------------------------------------------------------------------------*/
FoamFile
{
    format      ascii;
    class       surfaceScalarField;
    location    "15300";
    object      phi;
}
// * * * * * * * * * * * * * * * * * * * * * * * * * * * * * * * * * * * * * //

dimensions      [0 3 -1 0 0 0 0];

internalField   nonuniform List<scalar> 
12640
(
-2.01044e-08
2.01044e-08
-4.05213e-08
2.04169e-08
-6.15875e-08
2.10662e-08
-8.36929e-08
2.21054e-08
-1.0732e-07
2.36275e-08
-1.33107e-07
2.57869e-08
-1.61949e-07
2.88422e-08
-1.95191e-07
3.32417e-08
-2.35003e-07
3.98118e-08
-2.85187e-07
5.0184e-08
-3.52759e-07
6.75719e-08
-4.43941e-07
9.11819e-08
-2.90623e-07
-1.53318e-07
-3.91364e-06
3.62302e-06
-4.10104e-06
1.87396e-07
-3.84777e-06
-2.53267e-07
-3.79011e-06
-5.76611e-08
-3.75097e-06
-3.91415e-08
-3.64918e-06
-1.01787e-07
-3.77394e-06
1.24751e-07
-3.75799e-06
-1.59445e-08
-3.73454e-06
-2.34482e-08
-3.69093e-06
-4.36099e-08
-3.64024e-06
-5.06975e-08
-3.54091e-06
-9.93247e-08
-3.49285e-06
-4.806e-08
-3.48263e-06
-1.02188e-08
-3.45977e-06
-2.28643e-08
-3.42336e-06
-3.64101e-08
-3.36203e-06
-6.13249e-08
-3.26896e-06
-9.30693e-08
-3.09558e-06
-1.73382e-07
-2.95416e-06
-1.41423e-07
-2.76012e-06
-1.94041e-07
-2.49991e-06
-2.60203e-07
-2.16039e-06
-3.39525e-07
-1.73226e-06
-4.28131e-07
-1.21626e-06
-5.16001e-07
-6.28427e-07
-5.87831e-07
-2.52355e-17
-6.28427e-07
6.28427e-07
-6.28427e-07
1.21626e-06
-5.87831e-07
1.73226e-06
-5.16001e-07
2.16039e-06
-4.28131e-07
2.49991e-06
-3.39525e-07
2.76012e-06
-2.60203e-07
2.95416e-06
-1.94041e-07
3.09558e-06
-1.41423e-07
3.26896e-06
-1.73382e-07
3.36203e-06
-9.30693e-08
3.42336e-06
-6.13249e-08
3.45977e-06
-3.64101e-08
3.48263e-06
-2.28643e-08
3.49285e-06
-1.02188e-08
3.54091e-06
-4.806e-08
3.64024e-06
-9.93247e-08
3.69093e-06
-5.06975e-08
3.73454e-06
-4.36099e-08
3.75799e-06
-2.34482e-08
3.77394e-06
-1.59445e-08
3.64918e-06
1.24751e-07
3.75097e-06
-1.01787e-07
3.79011e-06
-3.91415e-08
3.84777e-06
-5.76611e-08
4.10104e-06
-2.53267e-07
3.91364e-06
1.87396e-07
2.90623e-07
3.62302e-06
4.43941e-07
-1.53318e-07
3.52759e-07
9.11819e-08
2.85187e-07
6.75719e-08
2.35003e-07
5.0184e-08
1.95191e-07
3.98118e-08
1.61949e-07
3.32417e-08
1.33107e-07
2.88422e-08
1.0732e-07
2.57869e-08
8.36929e-08
2.36275e-08
6.15875e-08
2.21054e-08
4.05213e-08
2.10662e-08
2.01044e-08
2.04169e-08
2.01044e-08
-2.20362e-08
4.21405e-08
-4.44139e-08
4.27947e-08
-6.75013e-08
4.41536e-08
-9.17241e-08
4.63282e-08
-1.17609e-07
4.95124e-08
-1.4585e-07
5.40281e-08
-1.77421e-07
6.04131e-08
-2.13778e-07
6.95988e-08
-2.57264e-07
8.32978e-08
-3.11974e-07
1.04894e-07
-3.85793e-07
1.41391e-07
-4.98559e-07
2.03948e-07
-9.24751e-07
2.72874e-07
-2.86952e-07
2.98522e-06
-3.2226e-06
3.12305e-06
-3.92398e-06
4.48109e-07
-3.96609e-06
-1.5552e-08
-3.96138e-06
-4.38526e-08
-3.857e-06
-2.06165e-07
-4.01723e-06
2.84981e-07
-4.00162e-06
-3.15504e-08
-3.98288e-06
-4.21916e-08
-3.9401e-06
-8.63936e-08
-3.89138e-06
-9.9416e-08
-3.78326e-06
-2.07444e-07
-3.73481e-06
-9.65054e-08
-3.72823e-06
-1.68014e-08
-3.70546e-06
-4.56336e-08
-3.66844e-06
-7.3433e-08
-3.60428e-06
-1.25478e-07
-3.50785e-06
-1.89502e-07
-3.32842e-06
-3.52813e-07
-3.18015e-06
-2.89691e-07
-2.9755e-06
-3.98692e-07
-2.69973e-06
-5.35981e-07
-2.33789e-06
-7.01362e-07
-1.8786e-06
-8.87423e-07
-1.32142e-06
-1.07318e-06
-6.83586e-07
-1.22566e-06
-4.00071e-17
-1.31201e-06
6.83586e-07
-1.31201e-06
1.32142e-06
-1.22566e-06
1.8786e-06
-1.07318e-06
2.33789e-06
-8.87423e-07
2.69973e-06
-7.01362e-07
2.9755e-06
-5.35981e-07
3.18015e-06
-3.98692e-07
3.32842e-06
-2.89691e-07
3.50785e-06
-3.52813e-07
3.60428e-06
-1.89502e-07
3.66844e-06
-1.25478e-07
3.70546e-06
-7.3433e-08
3.72823e-06
-4.56336e-08
3.73481e-06
-1.68014e-08
3.78326e-06
-9.65054e-08
3.89138e-06
-2.07444e-07
3.9401e-06
-9.9416e-08
3.98288e-06
-8.63936e-08
4.00162e-06
-4.21916e-08
4.01723e-06
-3.15504e-08
3.857e-06
2.84981e-07
3.96138e-06
-2.06165e-07
3.96609e-06
-4.38526e-08
3.92398e-06
-1.5552e-08
3.2226e-06
4.48109e-07
2.86952e-07
3.12305e-06
9.24751e-07
2.98522e-06
4.98559e-07
2.72874e-07
3.85793e-07
2.03948e-07
3.11974e-07
1.41391e-07
2.57264e-07
1.04894e-07
2.13778e-07
8.32978e-08
1.77421e-07
6.95988e-08
1.4585e-07
6.04131e-08
1.17609e-07
5.40281e-08
9.17241e-08
4.95124e-08
6.75013e-08
4.63282e-08
4.44139e-08
4.41536e-08
2.20362e-08
4.27947e-08
4.21405e-08
-2.41324e-08
6.6273e-08
-4.86366e-08
6.72989e-08
-7.39128e-08
6.94298e-08
-1.00423e-07
7.28386e-08
-1.28738e-07
7.78275e-08
-1.59607e-07
8.4897e-08
-1.94075e-07
9.48808e-08
-2.33694e-07
1.09218e-07
-2.80939e-07
1.30543e-07
-3.40095e-07
1.64049e-07
-4.19572e-07
2.20867e-07
-5.42892e-07
3.27269e-07
-8.59254e-07
5.89236e-07
-4.68377e-07
2.59435e-06
-1.50569e-07
2.80524e-06
-1.47082e-06
1.76836e-06
-3.96538e-06
2.47901e-06
-4.16551e-06
1.56278e-07
-4.0681e-06
-3.03576e-07
-4.3062e-06
5.23076e-07
-4.28449e-06
-5.32587e-08
-4.274e-06
-5.2679e-08
-4.23159e-06
-1.28809e-07
-4.1885e-06
-1.42504e-07
-4.06258e-06
-3.33359e-07
-4.01453e-06
-1.44554e-07
-4.01549e-06
-1.58459e-08
-3.99241e-06
-6.87089e-08
-3.95517e-06
-1.10679e-07
-3.88776e-06
-1.92886e-07
-3.79031e-06
-2.86954e-07
-3.61174e-06
-5.31383e-07
-3.4599e-06
-4.41524e-07
-3.24749e-06
-6.11106e-07
-2.95826e-06
-8.25213e-07
-2.57405e-06
-1.08556e-06
-2.07874e-06
-1.38274e-06
-1.46844e-06
-1.68348e-06
-7.61767e-07
-1.93234e-06
-4.05284e-17
-2.07378e-06
7.61767e-07
-2.07378e-06
1.46844e-06
-1.93234e-06
2.07874e-06
-1.68348e-06
2.57405e-06
-1.38274e-06
2.95826e-06
-1.08556e-06
3.24749e-06
-8.25213e-07
3.4599e-06
-6.11106e-07
3.61174e-06
-4.41524e-07
3.79031e-06
-5.31383e-07
3.88776e-06
-2.86954e-07
3.95517e-06
-1.92886e-07
3.99241e-06
-1.10679e-07
4.01549e-06
-6.87089e-08
4.01453e-06
-1.58459e-08
4.06258e-06
-1.44554e-07
4.1885e-06
-3.33359e-07
4.23159e-06
-1.42504e-07
4.274e-06
-1.28809e-07
4.28449e-06
-5.2679e-08
4.3062e-06
-5.32587e-08
4.0681e-06
5.23076e-07
4.16551e-06
-3.03576e-07
3.96538e-06
1.56278e-07
1.47082e-06
2.47901e-06
1.50569e-07
1.76836e-06
4.68377e-07
2.80524e-06
8.59254e-07
2.59435e-06
5.42892e-07
5.89236e-07
4.19572e-07
3.27269e-07
3.40095e-07
2.20867e-07
2.80939e-07
1.64049e-07
2.33694e-07
1.30543e-07
1.94075e-07
1.09218e-07
1.59607e-07
9.48808e-08
1.28738e-07
8.4897e-08
1.00423e-07
7.78275e-08
7.39128e-08
7.28386e-08
4.86366e-08
6.94298e-08
2.41324e-08
6.72989e-08
6.6273e-08
-2.63985e-08
9.26714e-08
-5.31993e-08
9.40997e-08
-8.0835e-08
9.70655e-08
-1.09804e-07
1.01807e-07
-1.40717e-07
1.08741e-07
-1.74375e-07
1.18554e-07
-2.1188e-07
1.32386e-07
-2.54855e-07
1.52193e-07
-3.05837e-07
1.81525e-07
-3.69117e-07
2.27329e-07
-4.5288e-07
3.0463e-07
-5.77444e-07
4.51833e-07
-8.04572e-07
8.16364e-07
-4.99226e-07
2.289e-06
-2.39616e-07
2.54563e-06
-3.96972e-07
1.92572e-06
-2.97918e-07
2.37995e-06
-3.42914e-06
3.2875e-06
-4.12554e-06
3.92823e-07
-4.6006e-06
9.9814e-07
-4.57942e-06
-7.44468e-08
-4.59193e-06
-4.01627e-08
-4.55216e-06
-1.68584e-07
-4.52421e-06
-1.70447e-07
-4.36654e-06
-4.91037e-07
-4.3219e-06
-1.89194e-07
-4.33766e-06
-8.72699e-11
-4.3137e-06
-9.26668e-08
-4.27758e-06
-1.46801e-07
-4.20661e-06
-2.63852e-07
-4.1124e-06
-3.81159e-07
-3.94703e-06
-6.96758e-07
-3.79805e-06
-5.90508e-07
-3.58392e-06
-8.25229e-07
-3.2873e-06
-1.12184e-06
-2.88473e-06
-1.48813e-06
-2.3506e-06
-1.91687e-06
-1.67305e-06
-2.36103e-06
-8.72137e-07
-2.73325e-06
-2.72744e-17
-2.94592e-06
8.72137e-07
-2.94592e-06
1.67305e-06
-2.73325e-06
2.3506e-06
-2.36103e-06
2.88473e-06
-1.91687e-06
3.2873e-06
-1.48813e-06
3.58392e-06
-1.12184e-06
3.79805e-06
-8.25229e-07
3.94703e-06
-5.90508e-07
4.1124e-06
-6.96758e-07
4.20661e-06
-3.81159e-07
4.27758e-06
-2.63852e-07
4.3137e-06
-1.46801e-07
4.33766e-06
-9.26668e-08
4.3219e-06
-8.72698e-11
4.36654e-06
-1.89194e-07
4.52421e-06
-4.91037e-07
4.55216e-06
-1.70447e-07
4.59193e-06
-1.68584e-07
4.57942e-06
-4.01627e-08
4.6006e-06
-7.44468e-08
4.12554e-06
9.9814e-07
3.42914e-06
3.92823e-07
2.97918e-07
3.2875e-06
3.96972e-07
2.37995e-06
2.39616e-07
1.92572e-06
4.99226e-07
2.54563e-06
8.04572e-07
2.289e-06
5.77444e-07
8.16364e-07
4.5288e-07
4.51833e-07
3.69117e-07
3.0463e-07
3.05837e-07
2.27329e-07
2.54855e-07
1.81525e-07
2.1188e-07
1.52193e-07
1.74375e-07
1.32386e-07
1.40717e-07
1.18554e-07
1.09804e-07
1.08741e-07
8.0835e-08
1.01807e-07
5.31993e-08
9.70655e-08
2.63985e-08
9.40997e-08
9.26714e-08
-2.88364e-08
1.21508e-07
-5.8105e-08
1.23368e-07
-8.82696e-08
1.2723e-07
-1.19862e-07
1.33399e-07
-1.53531e-07
1.4241e-07
-1.90114e-07
1.55138e-07
-2.30757e-07
1.73029e-07
-2.77105e-07
1.98542e-07
-3.31661e-07
2.36081e-07
-3.98462e-07
2.9413e-07
-4.84553e-07
3.9072e-07
-6.03199e-07
5.70479e-07
-7.60651e-07
9.73816e-07
-5.26334e-07
2.05468e-06
-3.14099e-07
2.33339e-06
-3.97832e-07
2.00945e-06
-3.54272e-07
2.33639e-06
1.16046e-07
2.81718e-06
-5.04935e-07
1.0138e-06
-4.38157e-06
4.87477e-06
-4.73148e-06
2.75465e-07
-4.88996e-06
1.18313e-07
-4.87972e-06
-1.78816e-07
-4.89518e-06
-1.54989e-07
-4.6835e-06
-7.0272e-07
-4.6506e-06
-2.22089e-07
-4.69469e-06
4.40045e-08
-4.66813e-06
-1.19231e-07
-4.63606e-06
-1.78866e-07
-4.56058e-06
-3.39336e-07
-4.47589e-06
-4.65847e-07
-4.34356e-06
-8.29087e-07
-4.20827e-06
-7.258e-07
-4.00231e-06
-1.03119e-06
-3.71023e-06
-1.41392e-06
-3.30048e-06
-1.89788e-06
-2.72882e-06
-2.48854e-06
-1.9656e-06
-3.12424e-06
-1.03234e-06
-3.6665e-06
-4.08616e-17
-3.97826e-06
1.03234e-06
-3.97826e-06
1.9656e-06
-3.6665e-06
2.72882e-06
-3.12424e-06
3.30048e-06
-2.48854e-06
3.71023e-06
-1.89788e-06
4.00231e-06
-1.41392e-06
4.20827e-06
-1.03119e-06
4.34356e-06
-7.258e-07
4.47589e-06
-8.29087e-07
4.56058e-06
-4.65847e-07
4.63606e-06
-3.39336e-07
4.66813e-06
-1.78866e-07
4.69469e-06
-1.19231e-07
4.6506e-06
4.40045e-08
4.6835e-06
-2.22089e-07
4.89518e-06
-7.0272e-07
4.87972e-06
-1.54989e-07
4.88996e-06
-1.78816e-07
4.73148e-06
1.18313e-07
4.38157e-06
2.75465e-07
5.04935e-07
4.87477e-06
-1.16046e-07
1.0138e-06
3.54272e-07
2.81718e-06
3.97832e-07
2.33639e-06
3.14099e-07
2.00945e-06
5.26334e-07
2.33339e-06
7.60651e-07
2.05468e-06
6.03199e-07
9.73816e-07
4.84553e-07
5.70479e-07
3.98462e-07
3.9072e-07
3.31661e-07
2.9413e-07
2.77105e-07
2.36081e-07
2.30757e-07
1.98542e-07
1.90114e-07
1.73029e-07
1.53531e-07
1.55138e-07
1.19862e-07
1.4241e-07
8.82696e-08
1.33399e-07
5.8105e-08
1.2723e-07
2.88364e-08
1.23368e-07
1.21508e-07
-3.14433e-08
1.52951e-07
-6.33467e-08
1.55272e-07
-9.62023e-08
1.60086e-07
-1.30571e-07
1.67768e-07
-1.67129e-07
1.78968e-07
-2.06741e-07
1.9475e-07
-2.50561e-07
2.16849e-07
-3.002e-07
2.48181e-07
-3.57997e-07
2.93877e-07
-4.27431e-07
3.63564e-07
-5.1358e-07
4.76869e-07
-6.21464e-07
6.78363e-07
-7.26733e-07
1.07909e-06
-5.49558e-07
1.87751e-06
-3.7675e-07
2.16059e-06
-4.03815e-07
2.03652e-06
-3.40726e-07
2.27331e-06
-5.21805e-08
2.52864e-06
-6.74115e-07
1.63574e-06
4.54657e-07
3.746e-06
-4.83929e-07
1.21405e-06
-4.52298e-06
4.15737e-06
-4.993e-06
2.91202e-07
-5.24762e-06
9.96249e-08
-4.9751e-06
-9.75234e-07
-4.98508e-06
-2.12114e-07
-5.08678e-06
1.45708e-07
-5.05388e-06
-1.52129e-07
-5.03287e-06
-1.99881e-07
-4.94996e-06
-4.22247e-07
-4.8831e-06
-5.32706e-07
-4.81488e-06
-8.97306e-07
-4.71143e-06
-8.2925e-07
-4.52708e-06
-1.21554e-06
-4.26138e-06
-1.67962e-06
-3.87101e-06
-2.28825e-06
-3.27444e-06
-3.0851e-06
-2.40099e-06
-3.9977e-06
-1.27448e-06
-4.79302e-06
-7.30512e-17
-5.25273e-06
1.27448e-06
-5.25273e-06
2.40099e-06
-4.79302e-06
3.27444e-06
-3.9977e-06
3.87101e-06
-3.0851e-06
4.26138e-06
-2.28825e-06
4.52708e-06
-1.67962e-06
4.71143e-06
-1.21554e-06
4.81488e-06
-8.2925e-07
4.8831e-06
-8.97306e-07
4.94996e-06
-5.32706e-07
5.03287e-06
-4.22247e-07
5.05388e-06
-1.99881e-07
5.08678e-06
-1.52129e-07
4.98508e-06
1.45708e-07
4.9751e-06
-2.12114e-07
5.24762e-06
-9.75234e-07
4.993e-06
9.96249e-08
4.52298e-06
2.91202e-07
4.83929e-07
4.15737e-06
-4.54657e-07
1.21405e-06
6.74115e-07
3.746e-06
5.21805e-08
1.63574e-06
3.40726e-07
2.52864e-06
4.03815e-07
2.27331e-06
3.7675e-07
2.03652e-06
5.49558e-07
2.16059e-06
7.26733e-07
1.87751e-06
6.21464e-07
1.07909e-06
5.1358e-07
6.78363e-07
4.27431e-07
4.76869e-07
3.57997e-07
3.63564e-07
3.002e-07
2.93877e-07
2.50561e-07
2.48181e-07
2.06741e-07
2.16849e-07
1.67129e-07
1.9475e-07
1.30571e-07
1.78968e-07
9.62023e-08
1.67768e-07
6.33467e-08
1.60086e-07
3.14433e-08
1.55272e-07
1.52951e-07
-3.42099e-08
1.87161e-07
-6.89039e-08
1.89966e-07
-1.04597e-07
1.95779e-07
-1.41872e-07
2.05043e-07
-1.81422e-07
2.18518e-07
-2.24113e-07
2.37441e-07
-2.7107e-07
2.63806e-07
-3.23796e-07
3.00907e-07
-3.84317e-07
3.54398e-07
-4.55251e-07
4.34499e-07
-5.39183e-07
5.60801e-07
-6.33661e-07
7.7284e-07
-7.01508e-07
1.14693e-06
-5.68878e-07
1.74488e-06
-4.28084e-07
2.01979e-06
-4.14564e-07
2.023e-06
-3.43148e-07
2.20189e-06
-1.64135e-07
2.34962e-06
-4.86735e-07
1.95834e-06
1.95554e-07
3.06371e-06
-3.96944e-07
1.80655e-06
5.37651e-07
3.22277e-06
-3.96863e-07
1.22572e-06
-3.37569e-06
3.07845e-06
-4.82633e-06
4.75402e-07
-5.19267e-06
1.5423e-07
-5.47878e-06
4.31816e-07
-5.45117e-06
-1.79743e-07
-5.46611e-06
-1.84937e-07
-5.37074e-06
-5.17613e-07
-5.33265e-06
-5.70804e-07
-5.37704e-06
-8.52909e-07
-5.33879e-06
-8.675e-07
-5.186e-06
-1.36833e-06
-4.98531e-06
-1.88031e-06
-4.67598e-06
-2.59758e-06
-4.09962e-06
-3.66146e-06
-3.08245e-06
-5.01487e-06
-1.6589e-06
-6.21656e-06
-4.13284e-17
-6.91164e-06
1.6589e-06
-6.91164e-06
3.08245e-06
-6.21656e-06
4.09962e-06
-5.01487e-06
4.67598e-06
-3.66146e-06
4.98531e-06
-2.59758e-06
5.186e-06
-1.88031e-06
5.33879e-06
-1.36833e-06
5.37704e-06
-8.675e-07
5.33265e-06
-8.52909e-07
5.37074e-06
-5.70804e-07
5.46611e-06
-5.17613e-07
5.45117e-06
-1.84937e-07
5.47878e-06
-1.79743e-07
5.19267e-06
4.31816e-07
4.82633e-06
1.5423e-07
3.37569e-06
4.75402e-07
3.96863e-07
3.07845e-06
-5.37651e-07
1.22572e-06
3.96944e-07
3.22277e-06
-1.95554e-07
1.80655e-06
4.86735e-07
3.06371e-06
1.64135e-07
1.95834e-06
3.43148e-07
2.34962e-06
4.14564e-07
2.20189e-06
4.28084e-07
2.023e-06
5.68878e-07
2.01979e-06
7.01508e-07
1.74488e-06
6.33661e-07
1.14693e-06
5.39183e-07
7.7284e-07
4.55251e-07
5.60801e-07
3.84317e-07
4.34499e-07
3.23796e-07
3.54398e-07
2.7107e-07
3.00907e-07
2.24113e-07
2.63806e-07
1.81422e-07
2.37441e-07
1.41872e-07
2.18518e-07
1.04597e-07
2.05043e-07
6.89039e-08
1.95779e-07
3.42099e-08
1.89966e-07
1.87161e-07
-3.71183e-08
2.24279e-07
-7.47382e-08
2.27586e-07
-1.13391e-07
2.34432e-07
-1.53668e-07
2.4532e-07
-1.96263e-07
2.61113e-07
-2.42016e-07
2.83194e-07
-2.91973e-07
3.13763e-07
-3.47443e-07
3.56377e-07
-4.09991e-07
4.16946e-07
-4.8114e-07
5.05648e-07
-5.60849e-07
6.40511e-07
-6.41133e-07
8.53124e-07
-6.83308e-07
1.18911e-06
-5.84363e-07
1.64593e-06
-4.69072e-07
1.9045e-06
-4.28938e-07
1.98286e-06
-3.55094e-07
2.12805e-06
-2.36385e-07
2.23092e-06
-3.74654e-07
2.09661e-06
3.34163e-08
2.65564e-06
-2.31396e-07
2.07136e-06
3.02069e-07
2.68931e-06
-1.56489e-07
1.68427e-06
4.82968e-07
2.439e-06
-5.55495e-08
1.01392e-06
-8.2851e-07
9.27191e-07
-5.10789e-06
4.71119e-06
-5.52469e-06
2.37056e-07
-5.82979e-06
1.20169e-07
-5.77505e-06
-5.7236e-07
-5.80022e-06
-5.45633e-07
-6.03839e-06
-6.14737e-07
-6.1463e-06
-7.5959e-07
-5.99059e-06
-1.52404e-06
-5.92351e-06
-1.94739e-06
-5.84111e-06
-2.67999e-06
-5.42783e-06
-4.07473e-06
-4.2157e-06
-6.22701e-06
-2.30429e-06
-8.12797e-06
-3.31494e-18
-9.21593e-06
2.30429e-06
-9.21593e-06
4.2157e-06
-8.12797e-06
5.42783e-06
-6.22701e-06
5.84111e-06
-4.07473e-06
5.92351e-06
-2.67999e-06
5.99059e-06
-1.94739e-06
6.1463e-06
-1.52404e-06
6.03839e-06
-7.5959e-07
5.80022e-06
-6.14737e-07
5.77505e-06
-5.45633e-07
5.82979e-06
-5.7236e-07
5.52469e-06
1.20169e-07
5.10789e-06
2.37056e-07
8.2851e-07
4.71119e-06
5.55495e-08
9.27191e-07
-4.82968e-07
1.01392e-06
1.56489e-07
2.439e-06
-3.02069e-07
1.68427e-06
2.31396e-07
2.68931e-06
-3.34163e-08
2.07136e-06
3.74654e-07
2.65564e-06
2.36385e-07
2.09661e-06
3.55094e-07
2.23092e-06
4.28938e-07
2.12805e-06
4.69072e-07
1.98286e-06
5.84363e-07
1.9045e-06
6.83308e-07
1.64593e-06
6.41133e-07
1.18911e-06
5.60849e-07
8.53124e-07
4.8114e-07
6.40511e-07
4.09991e-07
5.05648e-07
3.47443e-07
4.16946e-07
2.91973e-07
3.56377e-07
2.42016e-07
3.13763e-07
1.96263e-07
2.83194e-07
1.53668e-07
2.61113e-07
1.13391e-07
2.4532e-07
7.47382e-08
2.34432e-07
3.71183e-08
2.27586e-07
2.24279e-07
-4.01393e-08
2.64419e-07
-8.07886e-08
2.68235e-07
-1.22483e-07
2.76126e-07
-1.65811e-07
2.88648e-07
-2.1144e-07
3.06743e-07
-2.60152e-07
3.31906e-07
-3.1286e-07
3.66471e-07
-3.70589e-07
4.14106e-07
-4.34319e-07
4.80675e-07
-5.04358e-07
5.75687e-07
-5.78313e-07
7.14467e-07
-6.44994e-07
9.19805e-07
-6.70313e-07
1.21443e-06
-5.9614e-07
1.57176e-06
-5.00912e-07
1.80927e-06
-4.45313e-07
1.92726e-06
-3.71652e-07
2.05438e-06
-2.82546e-07
2.14181e-06
-3.14063e-07
2.12812e-06
-6.45891e-08
2.40617e-06
-1.46726e-07
2.1535e-06
1.5717e-07
2.38541e-06
-4.08664e-08
1.88231e-06
2.82802e-07
2.11533e-06
-7.56492e-08
1.37237e-06
-6.12334e-07
1.46388e-06
8.43138e-07
3.25572e-06
2.02252e-08
1.05997e-06
-1.05165e-06
1.19205e-06
-5.10544e-06
3.48142e-06
-5.86651e-06
2.15441e-07
-6.59668e-06
1.15436e-07
-7.20466e-06
-1.51618e-07
-6.79167e-06
-1.93702e-06
-7.02477e-06
-1.7143e-06
-7.53386e-06
-2.17089e-06
-7.75919e-06
-3.8494e-06
-6.2313e-06
-7.7549e-06
-3.45113e-06
-1.09081e-05
-2.16027e-17
-1.26671e-05
3.45113e-06
-1.26671e-05
6.2313e-06
-1.09081e-05
7.75919e-06
-7.7549e-06
7.53386e-06
-3.8494e-06
7.02477e-06
-2.17089e-06
6.79167e-06
-1.7143e-06
7.20466e-06
-1.93702e-06
6.59668e-06
-1.51618e-07
5.86651e-06
1.15436e-07
5.10544e-06
2.15441e-07
1.05165e-06
3.48142e-06
-2.02252e-08
1.19205e-06
-8.43138e-07
1.05997e-06
6.12334e-07
3.25572e-06
7.56492e-08
1.46388e-06
-2.82802e-07
1.37237e-06
4.08664e-08
2.11533e-06
-1.5717e-07
1.88231e-06
1.46726e-07
2.38541e-06
6.45891e-08
2.1535e-06
3.14063e-07
2.40617e-06
2.82546e-07
2.12812e-06
3.71652e-07
2.14181e-06
4.45313e-07
2.05438e-06
5.00912e-07
1.92726e-06
5.9614e-07
1.80927e-06
6.70313e-07
1.57176e-06
6.44994e-07
1.21443e-06
5.78313e-07
9.19805e-07
5.04358e-07
7.14467e-07
4.34319e-07
5.75687e-07
3.70589e-07
4.80675e-07
3.1286e-07
4.14106e-07
2.60152e-07
3.66471e-07
2.1144e-07
3.31906e-07
1.65811e-07
3.06743e-07
1.22483e-07
2.88648e-07
8.07886e-08
2.76126e-07
4.01393e-08
2.68235e-07
2.64419e-07
-4.32302e-08
3.07649e-07
-8.6966e-08
3.11971e-07
-1.31732e-07
3.20893e-07
-1.78093e-07
3.35008e-07
-2.26667e-07
3.55317e-07
-2.78136e-07
3.83375e-07
-3.33223e-07
4.21558e-07
-3.92595e-07
4.73479e-07
-4.56566e-07
5.44646e-07
-5.24263e-07
6.43384e-07
-5.91505e-07
7.81709e-07
-6.46031e-07
9.74331e-07
-6.60729e-07
1.22912e-06
-6.04351e-07
1.51538e-06
-5.24817e-07
1.72974e-06
-4.61931e-07
1.86438e-06
-3.89413e-07
1.98187e-06
-3.12756e-07
2.06515e-06
-2.86513e-07
2.10188e-06
-1.23513e-07
2.24317e-06
-1.12589e-07
2.14257e-06
6.75148e-08
2.20531e-06
3.7501e-09
1.94608e-06
1.55312e-07
1.96377e-06
-6.38994e-08
1.59158e-06
-2.98106e-07
1.69808e-06
4.67063e-07
2.49055e-06
5.46651e-08
1.47237e-06
-2.76742e-07
1.52345e-06
7.19276e-07
2.48541e-06
-4.23378e-08
9.77055e-07
-1.23605e-06
1.30914e-06
-3.16737e-06
1.77971e-06
-5.26599e-06
1.6159e-07
-7.06458e-06
8.4292e-08
-9.29356e-06
5.80905e-08
-1.21718e-05
-9.7117e-07
-9.92095e-06
-1.00057e-05
-5.56312e-06
-1.5266e-05
5.28549e-19
-1.82302e-05
5.56312e-06
-1.82302e-05
9.92095e-06
-1.5266e-05
1.21718e-05
-1.00057e-05
9.29356e-06
-9.7117e-07
7.06458e-06
5.80905e-08
5.26599e-06
8.4292e-08
3.16737e-06
1.6159e-07
1.23605e-06
1.77971e-06
4.23378e-08
1.30914e-06
-7.19276e-07
9.77055e-07
2.76742e-07
2.48541e-06
-5.46651e-08
1.52345e-06
-4.67063e-07
1.47237e-06
2.98106e-07
2.49055e-06
6.38994e-08
1.69808e-06
-1.55312e-07
1.59158e-06
-3.7501e-09
1.96377e-06
-6.75148e-08
1.94608e-06
1.12589e-07
2.20531e-06
1.23513e-07
2.14257e-06
2.86513e-07
2.24317e-06
3.12756e-07
2.10188e-06
3.89413e-07
2.06515e-06
4.61931e-07
1.98187e-06
5.24817e-07
1.86438e-06
6.04351e-07
1.72974e-06
6.60729e-07
1.51538e-06
6.46031e-07
1.22912e-06
5.91505e-07
9.74331e-07
5.24263e-07
7.81709e-07
4.56566e-07
6.43384e-07
3.92595e-07
5.44646e-07
3.33223e-07
4.73479e-07
2.78136e-07
4.21558e-07
2.26667e-07
3.83375e-07
1.78093e-07
3.55317e-07
1.31732e-07
3.35008e-07
8.6966e-08
3.20893e-07
4.32302e-08
3.11971e-07
3.07649e-07
-4.63321e-08
3.53981e-07
-9.31491e-08
3.58788e-07
-1.40947e-07
3.68691e-07
-1.90244e-07
3.84305e-07
-2.41578e-07
4.06651e-07
-2.95491e-07
4.37288e-07
-3.52466e-07
4.78533e-07
-4.12761e-07
5.33774e-07
-4.76012e-07
6.07897e-07
-5.40336e-07
7.07707e-07
-6.00473e-07
8.41847e-07
-6.44687e-07
1.01854e-06
-6.52918e-07
1.23735e-06
-6.09111e-07
1.47157e-06
-5.41869e-07
1.6625e-06
-4.77194e-07
1.7997e-06
-4.06232e-07
1.9109e-06
-3.33827e-07
1.99275e-06
-2.78824e-07
2.04688e-06
-1.60698e-07
2.12504e-06
-1.07758e-07
2.08963e-06
9.04293e-09
2.08851e-06
8.54961e-09
1.94657e-06
7.70159e-08
1.8953e-06
-4.33788e-08
1.71198e-06
-1.28239e-07
1.78294e-06
2.56951e-07
2.10536e-06
7.27696e-08
1.65655e-06
-6.23042e-08
1.65853e-06
4.10663e-07
2.01244e-06
3.68778e-08
1.35084e-06
-1.63599e-07
1.50962e-06
6.98322e-07
9.17789e-07
2.81951e-07
5.77961e-07
-1.2379e-07
4.90033e-07
-6.80074e-07
6.14374e-07
-2.20547e-06
5.54228e-07
-1.16404e-05
-5.70839e-07
-8.75004e-06
-1.81563e-05
3.74715e-17
-2.69802e-05
8.75004e-06
-2.69802e-05
1.16404e-05
-1.81563e-05
2.20547e-06
-5.70839e-07
6.80074e-07
5.54228e-07
1.2379e-07
6.14374e-07
-2.81951e-07
4.90033e-07
-6.98322e-07
5.77961e-07
1.63599e-07
9.17789e-07
-3.68778e-08
1.50962e-06
-4.10663e-07
1.35084e-06
6.23042e-08
2.01244e-06
-7.27696e-08
1.65853e-06
-2.56951e-07
1.65655e-06
1.28239e-07
2.10536e-06
4.33788e-08
1.78294e-06
-7.70159e-08
1.71198e-06
-8.54961e-09
1.8953e-06
-9.04293e-09
1.94657e-06
1.07758e-07
2.08851e-06
1.60698e-07
2.08963e-06
2.78824e-07
2.12504e-06
3.33827e-07
2.04688e-06
4.06232e-07
1.99275e-06
4.77194e-07
1.9109e-06
5.41869e-07
1.7997e-06
6.09111e-07
1.6625e-06
6.52918e-07
1.47157e-06
6.44687e-07
1.23735e-06
6.00473e-07
1.01854e-06
5.40336e-07
8.41847e-07
4.76012e-07
7.07707e-07
4.12761e-07
6.07897e-07
3.52466e-07
5.33774e-07
2.95491e-07
4.78533e-07
2.41578e-07
4.37288e-07
1.90244e-07
4.06651e-07
1.40947e-07
3.84305e-07
9.31491e-08
3.68691e-07
4.63321e-08
3.58788e-07
3.53981e-07
-4.9368e-08
4.03349e-07
-9.91806e-08
4.086e-07
-1.49884e-07
4.19394e-07
-2.01923e-07
4.36345e-07
-2.55726e-07
4.60453e-07
-3.11659e-07
4.93221e-07
-3.69928e-07
5.36802e-07
-4.30365e-07
5.9421e-07
-4.9199e-07
6.69522e-07
-5.52185e-07
7.67903e-07
-6.05306e-07
8.94967e-07
-6.41096e-07
1.05434e-06
-6.45475e-07
1.24173e-06
-6.1049e-07
1.43659e-06
-5.52943e-07
1.60495e-06
-4.8985e-07
1.73661e-06
-4.20874e-07
1.84193e-06
-3.49819e-07
1.92169e-06
-2.82241e-07
1.9793e-06
-1.8694e-07
2.02974e-06
-1.18532e-07
2.02123e-06
-3.29026e-08
2.00288e-06
-6.08978e-09
1.91976e-06
2.91666e-08
1.86004e-06
-2.61693e-08
1.76731e-06
-4.33865e-08
1.80016e-06
1.46429e-07
1.91555e-06
8.04128e-08
1.72256e-06
3.84338e-08
1.70051e-06
2.50828e-07
1.80004e-06
8.83512e-08
1.51332e-06
5.25646e-08
1.54541e-06
2.4692e-07
7.23433e-07
1.74959e-07
6.49922e-07
5.47578e-08
6.10235e-07
4.88475e-08
6.20285e-07
-1.56138e-08
6.1869e-07
-3.0005e-07
-2.86403e-07
-3.47368e-06
-1.49827e-05
9.73315e-18
-3.04539e-05
3.47368e-06
-3.04539e-05
3.0005e-07
-1.49827e-05
1.56138e-08
-2.86403e-07
-4.88475e-08
6.1869e-07
-5.47578e-08
6.20285e-07
-1.74959e-07
6.10235e-07
-2.4692e-07
6.49922e-07
-5.25646e-08
7.23433e-07
-8.83512e-08
1.54541e-06
-2.50828e-07
1.51332e-06
-3.84338e-08
1.80004e-06
-8.04128e-08
1.70051e-06
-1.46429e-07
1.72256e-06
4.33865e-08
1.91555e-06
2.61693e-08
1.80016e-06
-2.91666e-08
1.76731e-06
6.08978e-09
1.86004e-06
3.29026e-08
1.91976e-06
1.18532e-07
2.00288e-06
1.8694e-07
2.02123e-06
2.82241e-07
2.02974e-06
3.49819e-07
1.9793e-06
4.20874e-07
1.92169e-06
4.8985e-07
1.84193e-06
5.52943e-07
1.73661e-06
6.1049e-07
1.60495e-06
6.45475e-07
1.43659e-06
6.41096e-07
1.24173e-06
6.05306e-07
1.05434e-06
5.52185e-07
8.94967e-07
4.9199e-07
7.67903e-07
4.30365e-07
6.69522e-07
3.69928e-07
5.9421e-07
3.11659e-07
5.36802e-07
2.55726e-07
4.93221e-07
2.01923e-07
4.60453e-07
1.49884e-07
4.36345e-07
9.91806e-08
4.19394e-07
4.9368e-08
4.086e-07
4.03349e-07
-5.22421e-08
4.55591e-07
-1.04866e-07
4.61224e-07
-1.58245e-07
4.72773e-07
-2.12725e-07
4.90825e-07
-2.68594e-07
5.16323e-07
-3.26018e-07
5.50645e-07
-3.84911e-07
5.95694e-07
-4.44701e-07
6.54001e-07
-5.03921e-07
7.28741e-07
-5.59534e-07
8.23516e-07
-6.06074e-07
9.41507e-07
-6.35156e-07
1.08342e-06
-6.37253e-07
1.24383e-06
-6.08495e-07
1.40783e-06
-5.58697e-07
1.55515e-06
-4.99055e-07
1.67697e-06
-4.32675e-07
1.77555e-06
-3.62783e-07
1.8518e-06
-2.91264e-07
1.90778e-06
-2.0813e-07
1.9466e-06
-1.36668e-07
1.94976e-06
-6.62565e-08
1.93247e-06
-2.83514e-08
1.88185e-06
-1.66489e-09
1.83336e-06
-1.67814e-08
1.78243e-06
-5.70974e-09
1.78909e-06
9.05667e-08
1.81927e-06
8.01934e-08
1.73294e-06
7.82808e-08
1.70242e-06
1.7105e-07
1.70727e-06
1.08553e-07
1.57581e-06
9.90207e-08
1.55494e-06
1.35759e-07
6.86695e-07
1.1898e-07
6.66701e-07
7.85255e-08
6.50689e-07
5.24222e-08
6.46388e-07
2.52215e-08
6.4589e-07
-3.25144e-08
-2.28667e-07
-5.72961e-07
-1.44422e-05
-9.05754e-18
-3.10269e-05
5.72961e-07
-3.10269e-05
3.25144e-08
-1.44422e-05
-2.52215e-08
-2.28667e-07
-5.24222e-08
6.4589e-07
-7.85255e-08
6.46388e-07
-1.1898e-07
6.50689e-07
-1.35759e-07
6.66701e-07
-9.90207e-08
6.86695e-07
-1.08553e-07
1.55494e-06
-1.7105e-07
1.57581e-06
-7.82808e-08
1.70727e-06
-8.01934e-08
1.70242e-06
-9.05667e-08
1.73294e-06
5.70974e-09
1.81927e-06
1.67814e-08
1.78909e-06
1.66489e-09
1.78243e-06
2.83514e-08
1.83336e-06
6.62565e-08
1.88185e-06
1.36668e-07
1.93247e-06
2.0813e-07
1.94976e-06
2.91264e-07
1.9466e-06
3.62783e-07
1.90778e-06
4.32675e-07
1.8518e-06
4.99055e-07
1.77555e-06
5.58697e-07
1.67697e-06
6.08495e-07
1.55515e-06
6.37253e-07
1.40783e-06
6.35156e-07
1.24383e-06
6.06074e-07
1.08342e-06
5.59534e-07
9.41507e-07
5.03921e-07
8.23516e-07
4.44701e-07
7.28741e-07
3.84911e-07
6.54001e-07
3.26018e-07
5.95694e-07
2.68594e-07
5.50645e-07
2.12725e-07
5.16323e-07
1.58245e-07
4.90825e-07
1.04866e-07
4.72773e-07
5.22421e-08
4.61224e-07
4.55591e-07
-5.48408e-08
5.10432e-07
-1.09977e-07
5.16361e-07
-1.65685e-07
5.28481e-07
-2.22188e-07
5.47328e-07
-2.79615e-07
5.7375e-07
-3.37915e-07
6.08944e-07
-3.96721e-07
6.54501e-07
-4.55126e-07
7.12406e-07
-5.11332e-07
7.84947e-07
-5.62193e-07
8.74377e-07
-6.02795e-07
9.82108e-07
-6.26616e-07
1.10724e-06
-6.27347e-07
1.24456e-06
-6.0309e-07
1.38357e-06
-5.59606e-07
1.51167e-06
-5.04333e-07
1.62169e-06
-4.41274e-07
1.71249e-06
-3.73467e-07
1.78399e-06
-3.02514e-07
1.83683e-06
-2.26903e-07
1.87099e-06
-1.57453e-07
1.88031e-06
-9.47716e-08
1.86978e-06
-5.227e-08
1.83935e-06
-2.40624e-08
1.80515e-06
-1.54985e-08
1.77387e-06
6.91477e-09
1.76668e-06
6.16417e-08
1.76454e-06
7.46332e-08
1.71995e-06
8.79799e-08
1.68907e-06
1.30214e-07
1.66504e-06
1.0995e-07
1.59608e-06
1.02637e-07
1.56225e-06
1.04708e-07
6.84625e-07
9.5108e-08
6.763e-07
7.66217e-08
6.69175e-07
5.7257e-08
6.65753e-07
3.7405e-08
6.65742e-07
9.82362e-09
-2.01086e-07
-2.72901e-07
-1.41595e-05
1.16132e-17
-3.12998e-05
2.72901e-07
-3.12998e-05
-9.82362e-09
-1.41595e-05
-3.7405e-08
-2.01086e-07
-5.7257e-08
6.65742e-07
-7.66217e-08
6.65753e-07
-9.5108e-08
6.69175e-07
-1.04708e-07
6.763e-07
-1.02637e-07
6.84625e-07
-1.0995e-07
1.56225e-06
-1.30214e-07
1.59608e-06
-8.79799e-08
1.66504e-06
-7.46332e-08
1.68907e-06
-6.16417e-08
1.71995e-06
-6.91477e-09
1.76454e-06
1.54985e-08
1.76668e-06
2.40624e-08
1.77387e-06
5.227e-08
1.80515e-06
9.47716e-08
1.83935e-06
1.57453e-07
1.86978e-06
2.26903e-07
1.88031e-06
3.02514e-07
1.87099e-06
3.73467e-07
1.83683e-06
4.41274e-07
1.78399e-06
5.04333e-07
1.71249e-06
5.59606e-07
1.62169e-06
6.0309e-07
1.51167e-06
6.27347e-07
1.38357e-06
6.26616e-07
1.24456e-06
6.02795e-07
1.10724e-06
5.62193e-07
9.82108e-07
5.11332e-07
8.74377e-07
4.55126e-07
7.84947e-07
3.96721e-07
7.12406e-07
3.37915e-07
6.54501e-07
2.79615e-07
6.08944e-07
2.22188e-07
5.7375e-07
1.65685e-07
5.47328e-07
1.09977e-07
5.28481e-07
5.48408e-08
5.16361e-07
5.10432e-07
-5.70363e-08
5.67468e-07
-1.1426e-07
5.73585e-07
-1.71828e-07
5.86048e-07
-2.29823e-07
6.05323e-07
-2.88202e-07
6.32129e-07
-3.46704e-07
6.67446e-07
-4.04718e-07
7.12514e-07
-4.6109e-07
7.68777e-07
-5.13867e-07
8.37725e-07
-5.60039e-07
9.20549e-07
-5.95433e-07
1.0175e-06
-6.15156e-07
1.12696e-06
-6.1507e-07
1.24447e-06
-5.942e-07
1.36271e-06
-5.55997e-07
1.47347e-06
-5.05472e-07
1.57117e-06
-4.46441e-07
1.65346e-06
-3.81875e-07
1.71943e-06
-3.1386e-07
1.76882e-06
-2.43976e-07
1.80111e-06
-1.7823e-07
1.81457e-06
-1.19935e-07
1.81149e-06
-7.52952e-08
1.79471e-06
-4.28247e-08
1.77268e-06
-2.07757e-08
1.75182e-06
6.46358e-09
1.73944e-06
4.41855e-08
1.72682e-06
6.56427e-08
1.69849e-06
8.38749e-08
1.67084e-06
1.06598e-07
1.64232e-06
1.02828e-07
1.59985e-06
9.66856e-08
1.5684e-06
9.271e-08
6.886e-07
8.53699e-08
6.8364e-07
7.49396e-08
6.79606e-07
6.35508e-08
6.77142e-07
5.3172e-08
6.76121e-07
2.97811e-08
-1.77695e-07
-2.07172e-07
-1.39226e-05
1.13148e-17
-3.15069e-05
2.07172e-07
-3.15069e-05
-2.97811e-08
-1.39226e-05
-5.3172e-08
-1.77695e-07
-6.35508e-08
6.76121e-07
-7.49396e-08
6.77142e-07
-8.53699e-08
6.79606e-07
-9.271e-08
6.8364e-07
-9.66856e-08
6.886e-07
-1.02828e-07
1.5684e-06
-1.06598e-07
1.59985e-06
-8.38749e-08
1.64232e-06
-6.56427e-08
1.67084e-06
-4.41855e-08
1.69849e-06
-6.46358e-09
1.72682e-06
2.07757e-08
1.73944e-06
4.28247e-08
1.75182e-06
7.52952e-08
1.77268e-06
1.19935e-07
1.79471e-06
1.7823e-07
1.81149e-06
2.43976e-07
1.81457e-06
3.1386e-07
1.80111e-06
3.81875e-07
1.76882e-06
4.46441e-07
1.71943e-06
5.05472e-07
1.65346e-06
5.55997e-07
1.57117e-06
5.942e-07
1.47347e-06
6.1507e-07
1.36271e-06
6.15156e-07
1.24447e-06
5.95433e-07
1.12696e-06
5.60039e-07
1.0175e-06
5.13867e-07
9.20549e-07
4.6109e-07
8.37725e-07
4.04718e-07
7.68777e-07
3.46704e-07
7.12514e-07
2.88202e-07
6.67446e-07
2.29823e-07
6.32129e-07
1.71828e-07
6.05323e-07
1.1426e-07
5.86048e-07
5.70363e-08
5.73585e-07
5.67468e-07
-5.86934e-08
6.26162e-07
-1.17448e-07
6.32339e-07