/*--------------------------------*- C++ -*----------------------------------*\
  =========                 |
  \\      /  F ield         | OpenFOAM: The Open Source CFD Toolbox
   \\    /   O peration     | Website:  https://openfoam.org
    \\  /    A nd           | Version:  10
     \\/     M anipulation  |
\*---------------------------------------------------------------------------*/
FoamFile
{
    format      ascii;
    class       volVectorField;
    location    "15300";
    object      Ua;
}
// * * * * * * * * * * * * * * * * * * * * * * * * * * * * * * * * * * * * * //

dimensions      [0 1 -1 0 0 0 0];

internalField   nonuniform List<vector> 
6400
(
(-3.51663e-07 7.14823e-08 0)
(-1.06046e-06 7.25934e-08 0)
(-1.78607e-06 7.4902e-08 0)
(-2.54122e-06 7.85969e-08 0)
(-3.34118e-06 8.40088e-08 0)
(-4.20553e-06 9.16869e-08 0)
(-5.16109e-06 1.0255e-07 0)
(-6.24706e-06 1.18193e-07 0)
(-7.5249e-06 1.41553e-07 0)
(-9.09909e-06 1.78432e-07 0)
(-1.11589e-05 2.40255e-07 0)
(-1.39358e-05 3.24202e-07 0)
(-1.2838e-05 -5.45131e-07 0)
(-5.22615e-06 2.22035e-05 0)
(-1.82679e-07 1.5313e-06 0)
(-4.23081e-08 3.25023e-07 0)
(-2.13371e-08 1.61825e-07 0)
(-1.39691e-08 1.03964e-07 0)
(-1.01339e-08 7.52561e-08 0)
(-7.98106e-09 5.85695e-08 0)
(-6.67587e-09 4.7728e-08 0)
(-5.6349e-09 4.02297e-08 0)
(-4.85319e-09 3.47577e-08 0)
(-4.24178e-09 3.06572e-08 0)
(-3.73225e-09 2.74388e-08 0)
(-3.32304e-09 2.48802e-08 0)
(-3.02907e-09 2.28238e-08 0)
(-2.798e-09 2.11304e-08 0)
(-2.59494e-09 1.97356e-08 0)
(-2.40792e-09 1.85486e-08 0)
(-2.22829e-09 1.75332e-08 0)
(-2.04026e-09 1.66676e-08 0)
(-1.88041e-09 1.59723e-08 0)
(-1.74679e-09 1.56931e-08 0)
(-1.58431e-09 1.54422e-08 0)
(-1.38599e-09 1.52235e-08 0)
(-1.14601e-09 1.5039e-08 0)
(-8.61875e-10 1.48992e-08 0)
(-5.36578e-10 1.48087e-08 0)
(-1.82216e-10 1.47337e-08 0)
(1.82216e-10 1.47337e-08 0)
(5.36578e-10 1.48087e-08 0)
(8.61875e-10 1.48992e-08 0)
(1.14601e-09 1.5039e-08 0)
(1.38599e-09 1.52235e-08 0)
(1.58431e-09 1.54422e-08 0)
(1.74679e-09 1.56931e-08 0)
(1.88041e-09 1.59723e-08 0)
(2.04026e-09 1.66676e-08 0)
(2.22829e-09 1.75332e-08 0)
(2.40792e-09 1.85486e-08 0)
(2.59494e-09 1.97356e-08 0)
(2.798e-09 2.11304e-08 0)
(3.02907e-09 2.28238e-08 0)
(3.32304e-09 2.48802e-08 0)
(3.73225e-09 2.74388e-08 0)
(4.24178e-09 3.06572e-08 0)
(4.85319e-09 3.47577e-08 0)
(5.6349e-09 4.02297e-08 0)
(6.67587e-09 4.7728e-08 0)
(7.98106e-09 5.85695e-08 0)
(1.01339e-08 7.52561e-08 0)
(1.39691e-08 1.03964e-07 0)
(2.13371e-08 1.61825e-07 0)
(4.23081e-08 3.25023e-07 0)
(1.82679e-07 1.5313e-06 0)
(5.22615e-06 2.22035e-05 0)
(1.2838e-05 -5.45131e-07 0)
(1.39358e-05 3.24202e-07 0)
(1.11589e-05 2.40255e-07 0)
(9.09909e-06 1.78432e-07 0)
(7.5249e-06 1.41553e-07 0)
(6.24706e-06 1.18193e-07 0)
(5.16109e-06 1.0255e-07 0)
(4.20553e-06 9.16869e-08 0)
(3.34118e-06 8.40088e-08 0)
(2.54122e-06 7.85969e-08 0)
(1.78607e-06 7.4902e-08 0)
(1.06046e-06 7.25934e-08 0)
(3.51663e-07 7.14823e-08 0)
(-3.51427e-07 2.21315e-07 0)
(-1.05973e-06 2.24752e-07 0)
(-1.78479e-06 2.31893e-07 0)
(-2.53928e-06 2.43319e-07 0)
(-3.33839e-06 2.60053e-07 0)
(-4.20158e-06 2.83787e-07 0)
(-5.15544e-06 3.17352e-07 0)
(-6.23874e-06 3.65655e-07 0)
(-7.51206e-06 4.37723e-07 0)
(-9.07806e-06 5.51388e-07 0)
(-1.11278e-05 7.42978e-07 0)
(-1.41034e-05 1.04935e-06 0)
(-2.26986e-05 4.25086e-07 0)
(-1.93237e-05 2.3496e-05 0)
(-4.9482e-06 1.18256e-05 0)
(-4.22971e-07 1.75558e-06 0)
(-7.44919e-08 3.94352e-07 0)
(-3.88585e-08 2.02316e-07 0)
(-2.60651e-08 1.36152e-07 0)
(-1.97924e-08 1.02902e-07 0)
(-1.62667e-08 8.23084e-08 0)
(-1.35605e-08 6.86919e-08 0)
(-1.15928e-08 5.89689e-08 0)
(-1.00857e-08 5.17956e-08 0)
(-8.84594e-09 4.62184e-08 0)
(-7.8563e-09 4.18686e-08 0)
(-7.15439e-09 3.83801e-08 0)
(-6.60466e-09 3.55009e-08 0)
(-6.12215e-09 3.31341e-08 0)
(-5.6804e-09 3.11249e-08 0)
(-5.25965e-09 2.94109e-08 0)
(-4.82502e-09 2.79448e-08 0)
(-4.45789e-09 2.67577e-08 0)
(-4.15094e-09 2.62745e-08 0)
(-3.77648e-09 2.58386e-08 0)
(-3.31643e-09 2.54566e-08 0)
(-2.75391e-09 2.5133e-08 0)
(-2.07936e-09 2.48856e-08 0)
(-1.29836e-09 2.4722e-08 0)
(-4.41584e-10 2.45913e-08 0)
(4.41584e-10 2.45913e-08 0)
(1.29836e-09 2.4722e-08 0)
(2.07936e-09 2.48856e-08 0)
(2.75391e-09 2.5133e-08 0)
(3.31643e-09 2.54566e-08 0)
(3.77648e-09 2.58386e-08 0)
(4.15094e-09 2.62745e-08 0)
(4.45789e-09 2.67577e-08 0)
(4.82502e-09 2.79448e-08 0)
(5.25965e-09 2.94109e-08 0)
(5.6804e-09 3.11249e-08 0)
(6.12215e-09 3.31341e-08 0)
(6.60466e-09 3.55009e-08 0)
(7.15439e-09 3.83801e-08 0)
(7.8563e-09 4.18686e-08 0)
(8.84594e-09 4.62184e-08 0)
(1.00857e-08 5.17956e-08 0)
(1.15928e-08 5.89689e-08 0)
(1.35605e-08 6.86919e-08 0)
(1.62667e-08 8.23084e-08 0)
(1.97924e-08 1.02902e-07 0)
(2.60651e-08 1.36152e-07 0)
(3.88585e-08 2.02316e-07 0)
(7.44919e-08 3.94352e-07 0)
(4.22971e-07 1.75558e-06 0)
(4.9482e-06 1.18256e-05 0)
(1.93237e-05 2.3496e-05 0)
(2.26986e-05 4.25086e-07 0)
(1.41034e-05 1.04935e-06 0)
(1.11278e-05 7.42978e-07 0)
(9.07806e-06 5.51388e-07 0)
(7.51206e-06 4.37723e-07 0)
(6.23874e-06 3.65655e-07 0)
(5.15544e-06 3.17352e-07 0)
(4.20158e-06 2.83787e-07 0)
(3.33839e-06 2.60053e-07 0)
(2.53928e-06 2.43319e-07 0)
(1.78479e-06 2.31893e-07 0)
(1.05973e-06 2.24752e-07 0)
(3.51427e-07 2.21315e-07 0)
(-3.50883e-07 3.8547e-07 0)
(-1.05805e-06 3.91444e-07 0)
(-1.78186e-06 4.03852e-07 0)
(-2.53483e-06 4.23704e-07 0)
(-3.33199e-06 4.52764e-07 0)
(-4.19252e-06 4.93956e-07 0)
(-5.1425e-06 5.52156e-07 0)
(-6.21972e-06 6.35794e-07 0)
(-7.48273e-06 7.60323e-07 0)
(-9.02978e-06 9.56241e-07 0)
(-1.10455e-05 1.28803e-06 0)
(-1.39941e-05 1.88877e-06 0)
(-2.03871e-05 3.06528e-06 0)
(-1.93036e-05 1.98385e-05 0)
(-8.99941e-06 2.10783e-05 0)
(-4.45243e-06 7.88081e-06 0)
(-2.37007e-06 9.12771e-06 0)
(-1.43339e-07 7.90413e-07 0)
(-5.82275e-08 3.33878e-07 0)
(-3.86449e-08 2.2249e-07 0)
(-3.01824e-08 1.68347e-07 0)
(-2.43945e-08 1.36724e-07 0)
(-2.05152e-08 1.15552e-07 0)
(-1.76772e-08 1.00534e-07 0)
(-1.53989e-08 8.91411e-08 0)
(-1.3603e-08 8.05117e-08 0)
(-1.23673e-08 7.36495e-08 0)
(-1.14068e-08 6.80046e-08 0)
(-1.05642e-08 6.33947e-08 0)
(-9.80006e-09 5.95032e-08 0)
(-9.08257e-09 5.62046e-08 0)
(-8.36104e-09 5.33895e-08 0)
(-7.75947e-09 5.11054e-08 0)
(-7.25516e-09 5.01762e-08 0)
(-6.63593e-09 4.93448e-08 0)
(-5.86621e-09 4.86231e-08 0)
(-4.90727e-09 4.8019e-08 0)
(-3.73093e-09 4.756e-08 0)
(-2.34165e-09 4.72539e-08 0)
(-7.98584e-10 4.70119e-08 0)
(7.98584e-10 4.70119e-08 0)
(2.34165e-09 4.72539e-08 0)
(3.73093e-09 4.756e-08 0)
(4.90727e-09 4.8019e-08 0)
(5.86621e-09 4.86231e-08 0)
(6.63593e-09 4.93448e-08 0)
(7.25516e-09 5.01762e-08 0)
(7.75947e-09 5.11054e-08 0)
(8.36104e-09 5.33895e-08 0)
(9.08257e-09 5.62046e-08 0)
(9.80006e-09 5.95032e-08 0)
(1.05642e-08 6.33947e-08 0)
(1.14068e-08 6.80046e-08 0)
(1.23673e-08 7.36495e-08 0)
(1.3603e-08 8.05117e-08 0)
(1.53989e-08 8.91411e-08 0)
(1.76772e-08 1.00534e-07 0)
(2.05152e-08 1.15552e-07 0)
(2.43945e-08 1.36724e-07 0)
(3.01824e-08 1.68347e-07 0)
(3.86449e-08 2.2249e-07 0)
(5.82275e-08 3.33878e-07 0)
(1.43339e-07 7.90413e-07 0)
(2.37007e-06 9.12771e-06 0)
(4.45243e-06 7.88081e-06 0)
(8.99941e-06 2.10783e-05 0)
(1.93036e-05 1.98385e-05 0)
(2.03871e-05 3.06528e-06 0)
(1.39941e-05 1.88877e-06 0)
(1.10455e-05 1.28803e-06 0)
(9.02978e-06 9.56241e-07 0)
(7.48273e-06 7.60323e-07 0)
(6.21972e-06 6.35794e-07 0)
(5.1425e-06 5.52156e-07 0)
(4.19252e-06 4.93956e-07 0)
(3.33199e-06 4.52764e-07 0)
(2.53483e-06 4.23704e-07 0)
(1.78186e-06 4.03852e-07 0)
(1.05805e-06 3.91444e-07 0)
(3.50883e-07 3.8547e-07 0)
(-3.49948e-07 5.65136e-07 0)
(-1.05518e-06 5.73862e-07 0)
(-1.77681e-06 5.91983e-07 0)
(-2.52718e-06 6.20963e-07 0)
(-3.321e-06 6.63355e-07 0)
(-4.17697e-06 7.23382e-07 0)
(-5.12033e-06 8.08061e-07 0)
(-6.18722e-06 9.29464e-07 0)
(-7.43275e-06 1.10957e-06 0)
(-8.94744e-06 1.39157e-06 0)
(-1.08967e-05 1.86844e-06 0)
(-1.36583e-05 2.77014e-06 0)
(-1.83205e-05 4.99769e-06 0)
(-1.72836e-05 1.7363e-05 0)
(-9.79435e-06 1.90253e-05 0)
(-8.43883e-06 1.31345e-05 0)
(-9.21111e-06 1.72763e-05 0)
(-4.34037e-06 1.2329e-05 0)
(-4.56286e-07 1.63204e-06 0)
(-9.82933e-08 5.98893e-07 0)
(-5.66784e-08 3.27372e-07 0)
(-4.10515e-08 2.40411e-07 0)
(-3.29414e-08 1.9426e-07 0)
(-2.77082e-08 1.65116e-07 0)
(-2.37672e-08 1.4433e-07 0)
(-2.07555e-08 1.2943e-07 0)
(-1.88022e-08 1.17844e-07 0)
(-1.73077e-08 1.08432e-07 0)
(-1.59994e-08 1.00861e-07 0)
(-1.48328e-08 9.45335e-08 0)
(-1.37626e-08 8.92333e-08 0)
(-1.27376e-08 8.47356e-08 0)
(-1.19042e-08 8.10787e-08 0)
(-1.12013e-08 7.95938e-08 0)
(-1.03291e-08 7.82806e-08 0)
(-9.2253e-09 7.71519e-08 0)
(-7.80712e-09 7.62115e-08 0)
(-6.00052e-09 7.54913e-08 0)
(-3.79677e-09 7.50002e-08 0)
(-1.30034e-09 7.46208e-08 0)
(1.30034e-09 7.46208e-08 0)
(3.79677e-09 7.50002e-08 0)
(6.00052e-09 7.54913e-08 0)
(7.80712e-09 7.62115e-08 0)
(9.2253e-09 7.71519e-08 0)
(1.03291e-08 7.82806e-08 0)
(1.12013e-08 7.95938e-08 0)
(1.19042e-08 8.10787e-08 0)
(1.27376e-08 8.47356e-08 0)
(1.37626e-08 8.92333e-08 0)
(1.48328e-08 9.45335e-08 0)
(1.59994e-08 1.00861e-07 0)
(1.73077e-08 1.08432e-07 0)
(1.88022e-08 1.17844e-07 0)
(2.07555e-08 1.2943e-07 0)
(2.37672e-08 1.4433e-07 0)
(2.77082e-08 1.65116e-07 0)
(3.29414e-08 1.9426e-07 0)
(4.10515e-08 2.40411e-07 0)
(5.66784e-08 3.27372e-07 0)
(9.82933e-08 5.98893e-07 0)
(4.56286e-07 1.63204e-06 0)
(4.34037e-06 1.2329e-05 0)
(9.21111e-06 1.72763e-05 0)
(8.43883e-06 1.31345e-05 0)
(9.79435e-06 1.90253e-05 0)
(1.72836e-05 1.7363e-05 0)
(1.83205e-05 4.99769e-06 0)
(1.36583e-05 2.77014e-06 0)
(1.08967e-05 1.86844e-06 0)
(8.94744e-06 1.39157e-06 0)
(7.43275e-06 1.10957e-06 0)
(6.18722e-06 9.29464e-07 0)
(5.12033e-06 8.08061e-07 0)
(4.17697e-06 7.23382e-07 0)
(3.321e-06 6.63355e-07 0)
(2.52718e-06 6.20963e-07 0)
(1.77681e-06 5.91983e-07 0)
(1.05518e-06 5.73862e-07 0)
(3.49948e-07 5.65136e-07 0)
(-3.4852e-07 7.61526e-07 0)
(-1.05078e-06 7.7322e-07 0)
(-1.7691e-06 7.97495e-07 0)
(-2.5155e-06 8.36291e-07 0)
(-3.30425e-06 8.92981e-07 0)
(-4.15333e-06 9.73128e-07 0)
(-5.0867e-06 1.08592e-06 0)
(-6.13809e-06 1.24706e-06 0)
(-7.35762e-06 1.48482e-06 0)
(-8.82436e-06 1.85408e-06 0)
(-1.06722e-05 2.47236e-06 0)
(-1.31467e-05 3.63489e-06 0)
(-1.64837e-05 6.36508e-06 0)
(-1.55547e-05 1.54442e-05 0)
(-1.01576e-05 1.73476e-05 0)
(-8.60448e-06 1.39917e-05 0)
(-9.09002e-06 1.67692e-05 0)
(-2.87922e-06 2.17055e-05 0)
(-4.6718e-06 5.00134e-06 0)
(-6.37291e-06 1.77825e-05 0)
(-3.62073e-07 1.1969e-06 0)
(-9.68643e-08 5.73322e-07 0)
(-5.72596e-08 3.42141e-07 0)
(-4.33045e-08 2.63132e-07 0)
(-3.53227e-08 2.19558e-07 0)
(-2.99294e-08 1.9272e-07 0)
(-2.68294e-08 1.73329e-07 0)
(-2.45553e-08 1.58216e-07 0)
(-2.2596e-08 1.46491e-07 0)
(-2.09068e-08 1.36899e-07 0)
(-1.94136e-08 1.29046e-07 0)
(-1.81028e-08 1.2247e-07 0)
(-1.70904e-08 1.1712e-07 0)
(-1.62258e-08 1.14955e-07 0)
(-1.51369e-08 1.13077e-07 0)
(-1.37256e-08 1.11477e-07 0)
(-1.18198e-08 1.10128e-07 0)
(-9.23439e-09 1.09051e-07 0)
(-5.91355e-09 1.08282e-07 0)
(-2.03791e-09 1.07711e-07 0)
(2.03791e-09 1.07711e-07 0)
(5.91355e-09 1.08282e-07 0)
(9.23439e-09 1.09051e-07 0)
(1.18198e-08 1.10128e-07 0)
(1.37256e-08 1.11477e-07 0)
(1.51369e-08 1.13077e-07 0)
(1.62258e-08 1.14955e-07 0)
(1.70904e-08 1.1712e-07 0)
(1.81028e-08 1.2247e-07 0)
(1.94136e-08 1.29046e-07 0)
(2.09068e-08 1.36899e-07 0)
(2.2596e-08 1.46491e-07 0)
(2.45553e-08 1.58216e-07 0)
(2.68294e-08 1.73329e-07 0)
(2.99294e-08 1.9272e-07 0)
(3.53227e-08 2.19558e-07 0)
(4.33045e-08 2.63132e-07 0)
(5.72596e-08 3.42141e-07 0)
(9.68643e-08 5.73322e-07 0)
(3.62073e-07 1.1969e-06 0)
(6.37291e-06 1.77825e-05 0)
(4.6718e-06 5.00134e-06 0)
(2.87922e-06 2.17055e-05 0)
(9.09002e-06 1.67692e-05 0)
(8.60448e-06 1.39917e-05 0)
(1.01576e-05 1.73476e-05 0)
(1.55547e-05 1.54442e-05 0)
(1.64837e-05 6.36508e-06 0)
(1.31467e-05 3.63489e-06 0)
(1.06722e-05 2.47236e-06 0)
(8.82436e-06 1.85408e-06 0)
(7.35762e-06 1.48482e-06 0)
(6.13809e-06 1.24706e-06 0)
(5.0867e-06 1.08592e-06 0)
(4.15333e-06 9.73128e-07 0)
(3.30425e-06 8.92981e-07 0)
(2.5155e-06 8.36291e-07 0)
(1.7691e-06 7.97495e-07 0)
(1.05078e-06 7.7322e-07 0)
(3.4852e-07 7.61526e-07 0)
(-3.46479e-07 9.75854e-07 0)
(-1.04451e-06 9.90721e-07 0)
(-1.7581e-06 1.02157e-06 0)
(-2.49886e-06 1.07082e-06 0)
(-3.28041e-06 1.14268e-06 0)
(-4.11975e-06 1.24405e-06 0)
(-5.0391e-06 1.38623e-06 0)
(-6.06894e-06 1.58835e-06 0)
(-7.2528e-06 1.88429e-06 0)
(-8.65478e-06 2.33847e-06 0)
(-1.03692e-05 3.08476e-06 0)
(-1.25073e-05 4.44033e-06 0)
(-1.4856e-05 7.2992e-06 0)
(-1.40637e-05 1.39811e-05 0)
(-1.02072e-05 1.59786e-05 0)
(-8.60119e-06 1.43857e-05 0)
(-8.20424e-06 1.639e-05 0)
(-4.32951e-06 1.90074e-05 0)
(-8.00319e-06 9.4206e-06 0)
(-2.41825e-06 3.06516e-05 0)
(-3.01302e-07 5.29606e-06 0)
(-5.65769e-06 1.52028e-05 0)
(-4.21263e-07 1.25722e-06 0)
(-1.11445e-07 6.12135e-07 0)
(-6.12131e-08 3.76808e-07 0)
(-4.47176e-08 2.9273e-07 0)
(-3.80367e-08 2.49865e-07 0)
(-3.396e-08 2.22096e-07 0)
(-3.07858e-08 2.02891e-07 0)
(-2.82842e-08 1.88137e-07 0)
(-2.622e-08 1.767e-07 0)
(-2.46762e-08 1.67439e-07 0)
(-2.36183e-08 1.59961e-07 0)
(-2.26895e-08 1.56944e-07 0)
(-2.14971e-08 1.54433e-07 0)
(-1.99202e-08 1.52317e-07 0)
(-1.76041e-08 1.50439e-07 0)
(-1.40891e-08 1.48777e-07 0)
(-9.17798e-09 1.47495e-07 0)
(-3.19017e-09 1.46602e-07 0)
(3.19017e-09 1.46602e-07 0)
(9.17798e-09 1.47495e-07 0)
(1.40891e-08 1.48777e-07 0)
(1.76041e-08 1.50439e-07 0)
(1.99202e-08 1.52317e-07 0)
(2.14971e-08 1.54433e-07 0)
(2.26895e-08 1.56944e-07 0)
(2.36183e-08 1.59961e-07 0)
(2.46762e-08 1.67439e-07 0)
(2.622e-08 1.767e-07 0)
(2.82842e-08 1.88137e-07 0)
(3.07858e-08 2.02891e-07 0)
(3.396e-08 2.22096e-07 0)
(3.80367e-08 2.49865e-07 0)
(4.47176e-08 2.9273e-07 0)
(6.12131e-08 3.76808e-07 0)
(1.11445e-07 6.12135e-07 0)
(4.21263e-07 1.25722e-06 0)
(5.65769e-06 1.52028e-05 0)
(3.01302e-07 5.29606e-06 0)
(2.41825e-06 3.06516e-05 0)
(8.00319e-06 9.4206e-06 0)
(4.32951e-06 1.90074e-05 0)
(8.20424e-06 1.639e-05 0)
(8.60119e-06 1.43857e-05 0)
(1.02072e-05 1.59786e-05 0)
(1.40637e-05 1.39811e-05 0)
(1.4856e-05 7.2992e-06 0)
(1.25073e-05 4.44033e-06 0)
(1.03692e-05 3.08476e-06 0)
(8.65478e-06 2.33847e-06 0)
(7.2528e-06 1.88429e-06 0)
(6.06894e-06 1.58835e-06 0)
(5.0391e-06 1.38623e-06 0)
(4.11975e-06 1.24405e-06 0)
(3.28041e-06 1.14268e-06 0)
(2.49886e-06 1.07082e-06 0)
(1.7581e-06 1.02157e-06 0)
(1.04451e-06 9.90721e-07 0)
(3.46479e-07 9.75854e-07 0)
(-3.43688e-07 1.20929e-06 0)
(-1.03593e-06 1.22751e-06 0)
(-1.74307e-06 1.2653e-06 0)
(-2.47614e-06 1.32555e-06 0)
(-3.24796e-06 1.41329e-06 0)
(-4.07419e-06 1.53668e-06 0)
(-4.97484e-06 1.709e-06 0)
(-5.97629e-06 1.95231e-06 0)
(-7.11401e-06 2.30498e-06 0)
(-8.43467e-06 2.83756e-06 0)
(-9.99053e-06 3.6895e-06 0)
(-1.17829e-05 5.15983e-06 0)
(-1.34137e-05 7.91473e-06 0)
(-1.27629e-05 1.28796e-05 0)
(-1.00159e-05 1.48636e-05 0)
(-8.46561e-06 1.44338e-05 0)
(-7.61231e-06 1.59118e-05 0)
(-5.09639e-06 1.73449e-05 0)
(-6.53893e-06 1.27789e-05 0)
(-2.92533e-06 2.42123e-05 0)
(-2.02325e-06 1.07399e-05 0)
(1.41361e-06 2.62405e-05 0)
(1.41471e-06 5.39349e-06 0)
(-4.61107e-06 1.13957e-05 0)
(-7.3466e-07 1.93526e-06 0)
(-1.53688e-07 7.26735e-07 0)
(-7.23756e-08 4.69112e-07 0)
(-5.20276e-08 3.37383e-07 0)
(-4.30512e-08 2.84626e-07 0)
(-3.80478e-08 2.54553e-07 0)
(-3.4692e-08 2.35361e-07 0)
(-3.28572e-08 2.21506e-07 0)
(-3.19818e-08 2.10934e-07 0)
(-3.11498e-08 2.06647e-07 0)
(-3.00674e-08 2.03466e-07 0)
(-2.87289e-08 2.00849e-07 0)
(-2.63916e-08 1.98219e-07 0)
(-2.18812e-08 1.9536e-07 0)
(-1.45901e-08 1.92954e-07 0)
(-5.1283e-09 1.91394e-07 0)
(5.1283e-09 1.91394e-07 0)
(1.45901e-08 1.92954e-07 0)
(2.18812e-08 1.9536e-07 0)
(2.63916e-08 1.98219e-07 0)
(2.87289e-08 2.00849e-07 0)
(3.00674e-08 2.03466e-07 0)
(3.11498e-08 2.06647e-07 0)
(3.19818e-08 2.10934e-07 0)
(3.28572e-08 2.21506e-07 0)
(3.4692e-08 2.35361e-07 0)
(3.80478e-08 2.54553e-07 0)
(4.30512e-08 2.84626e-07 0)
(5.20276e-08 3.37383e-07 0)
(7.23756e-08 4.69112e-07 0)
(1.53688e-07 7.26735e-07 0)
(7.3466e-07 1.93526e-06 0)
(4.61107e-06 1.13957e-05 0)
(-1.41471e-06 5.39349e-06 0)
(-1.41361e-06 2.62405e-05 0)
(2.02325e-06 1.07399e-05 0)
(2.92533e-06 2.42123e-05 0)
(6.53893e-06 1.27789e-05 0)
(5.09639e-06 1.73449e-05 0)
(7.61231e-06 1.59118e-05 0)
(8.46561e-06 1.44338e-05 0)
(1.00159e-05 1.48636e-05 0)
(1.27629e-05 1.28796e-05 0)
(1.34137e-05 7.91473e-06 0)
(1.17829e-05 5.15983e-06 0)
(9.99053e-06 3.6895e-06 0)
(8.43467e-06 2.83756e-06 0)
(7.11401e-06 2.30498e-06 0)
(5.97629e-06 1.95231e-06 0)
(4.97484e-06 1.709e-06 0)
(4.07419e-06 1.53668e-06 0)
(3.24796e-06 1.41329e-06 0)
(2.47614e-06 1.32555e-06 0)
(1.74307e-06 1.2653e-06 0)
(1.03593e-06 1.22751e-06 0)
(3.43688e-07 1.20929e-06 0)
(-3.39987e-07 1.4629e-06 0)
(-1.02456e-06 1.48463e-06 0)
(-1.72318e-06 1.52964e-06 0)
(-2.44614e-06 1.60129e-06 0)
(-3.20522e-06 1.70536e-06 0)
(-4.01444e-06 1.85115e-06 0)
(-4.89111e-06 2.05358e-06 0)
(-5.85678e-06 2.33701e-06 0)
(-6.93777e-06 2.74256e-06 0)
(-8.16237e-06 3.34274e-06 0)
(-9.54417e-06 4.27133e-06 0)
(-1.10096e-05 5.78121e-06 0)
(-1.21313e-05 8.30592e-06 0)
(-1.16113e-05 1.20562e-05 0)
(-9.649e-06 1.3953e-05 0)
(-8.22538e-06 1.4243e-05 0)
(-7.18139e-06 1.53953e-05 0)
(-5.4177e-06 1.62864e-05 0)
(-5.59685e-06 1.44176e-05 0)
(-3.12559e-06 2.03355e-05 0)
(-1.8134e-06 1.37881e-05 0)
(6.47338e-07 2.10207e-05 0)
(1.33345e-06 1.03466e-05 0)
(2.99041e-06 1.96176e-05 0)
(3.91497e-06 5.29537e-06 0)
(-7.41712e-06 3.84505e-06 0)
(-7.22779e-06 1.70723e-05 0)
(-4.01911e-07 1.051e-06 0)
(-1.21492e-07 5.94762e-07 0)
(-6.60152e-08 4.25252e-07 0)
(-4.97677e-08 3.34592e-07 0)
(-4.47184e-08 2.9605e-07 0)
(-4.37135e-08 2.75647e-07 0)
(-4.28606e-08 2.67432e-07 0)
(-4.19321e-08 2.63029e-07 0)
(-4.17566e-08 2.5975e-07 0)
(-4.06867e-08 2.55756e-07 0)
(-3.55081e-08 2.49821e-07 0)
(-2.43826e-08 2.44633e-07 0)
(-8.68345e-09 2.41505e-07 0)
(8.68345e-09 2.41505e-07 0)
(2.43826e-08 2.44633e-07 0)
(3.55081e-08 2.49821e-07 0)
(4.06867e-08 2.55756e-07 0)
(4.17566e-08 2.5975e-07 0)
(4.19321e-08 2.63029e-07 0)
(4.28606e-08 2.67432e-07 0)
(4.37135e-08 2.75647e-07 0)
(4.47184e-08 2.9605e-07 0)
(4.97677e-08 3.34592e-07 0)
(6.60152e-08 4.25252e-07 0)
(1.21492e-07 5.94762e-07 0)
(4.01911e-07 1.051e-06 0)
(7.22779e-06 1.70723e-05 0)
(7.41712e-06 3.84505e-06 0)
(-3.91497e-06 5.29537e-06 0)
(-2.99041e-06 1.96176e-05 0)
(-1.33345e-06 1.03466e-05 0)
(-6.47338e-07 2.10207e-05 0)
(1.8134e-06 1.37881e-05 0)
(3.12559e-06 2.03355e-05 0)
(5.59685e-06 1.44176e-05 0)
(5.4177e-06 1.62864e-05 0)
(7.18139e-06 1.53953e-05 0)
(8.22538e-06 1.4243e-05 0)
(9.649e-06 1.3953e-05 0)
(1.16113e-05 1.20562e-05 0)
(1.21313e-05 8.30592e-06 0)
(1.10096e-05 5.78121e-06 0)
(9.54417e-06 4.27133e-06 0)
(8.16237e-06 3.34274e-06 0)
(6.93777e-06 2.74256e-06 0)
(5.85678e-06 2.33701e-06 0)
(4.89111e-06 2.05358e-06 0)
(4.01444e-06 1.85115e-06 0)
(3.20522e-06 1.70536e-06 0)
(2.44614e-06 1.60129e-06 0)
(1.72318e-06 1.52964e-06 0)
(1.02456e-06 1.48463e-06 0)
(3.39987e-07 1.4629e-06 0)
(-3.35203e-07 1.73759e-06 0)
(-1.00987e-06 1.76292e-06 0)
(-1.69752e-06 1.81532e-06 0)
(-2.40754e-06 1.89855e-06 0)
(-3.15041e-06 2.01904e-06 0)
(-3.93826e-06 2.18702e-06 0)
(-4.78521e-06 2.41861e-06 0)
(-5.70747e-06 2.73949e-06 0)
(-6.72177e-06 3.19154e-06 0)
(-7.83887e-06 3.84475e-06 0)
(-9.04137e-06 4.8177e-06 0)
(-1.02158e-05 6.30375e-06 0)
(-1.09841e-05 8.54589e-06 0)
(-1.05761e-05 1.14407e-05 0)
(-9.16146e-06 1.32045e-05 0)
(-7.9019e-06 1.39027e-05 0)
(-6.82246e-06 1.48709e-05 0)
(-5.46319e-06 1.55475e-05 0)
(-4.98227e-06 1.50213e-05 0)
(-3.16212e-06 1.79975e-05 0)
(-1.76469e-06 1.50217e-05 0)
(8.72195e-08 1.80435e-05 0)
(9.71251e-07 1.26812e-05 0)
(2.0204e-06 1.61932e-05 0)
(1.72993e-06 8.48459e-06 0)
(-5.74533e-06 8.50157e-06 0)
(1.92744e-06 2.83268e-05 0)
(7.20993e-06 4.61165e-06 0)
(-5.35786e-06 4.66566e-06 0)
(-5.80951e-06 1.26572e-05 0)
(-3.67241e-07 9.66575e-07 0)
(-1.33727e-07 5.80915e-07 0)
(-9.06264e-08 4.5629e-07 0)
(-7.45084e-08 4.02102e-07 0)
(-6.46028e-08 3.67526e-07 0)
(-6.44369e-08 3.47372e-07 0)
(-6.73722e-08 3.33356e-07 0)
(-6.26973e-08 3.15316e-07 0)
(-4.42254e-08 3.02002e-07 0)
(-1.59436e-08 2.94767e-07 0)
(1.59436e-08 2.94767e-07 0)
(4.42254e-08 3.02002e-07 0)
(6.26973e-08 3.15316e-07 0)
(6.73722e-08 3.33356e-07 0)
(6.44369e-08 3.47372e-07 0)
(6.46028e-08 3.67526e-07 0)
(7.45084e-08 4.02102e-07 0)
(9.06264e-08 4.5629e-07 0)
(1.33727e-07 5.80915e-07 0)
(3.67241e-07 9.66575e-07 0)
(5.80951e-06 1.26572e-05 0)
(5.35786e-06 4.66566e-06 0)
(-7.20993e-06 4.61165e-06 0)
(-1.92744e-06 2.83268e-05 0)
(5.74533e-06 8.50157e-06 0)
(-1.72993e-06 8.48459e-06 0)
(-2.0204e-06 1.61932e-05 0)
(-9.71251e-07 1.26812e-05 0)
(-8.72195e-08 1.80435e-05 0)
(1.76469e-06 1.50217e-05 0)
(3.16212e-06 1.79975e-05 0)
(4.98227e-06 1.50213e-05 0)
(5.46319e-06 1.55475e-05 0)
(6.82246e-06 1.48709e-05 0)
(7.9019e-06 1.39027e-05 0)
(9.16146e-06 1.32045e-05 0)
(1.05761e-05 1.14407e-05 0)
(1.09841e-05 8.54589e-06 0)
(1.02158e-05 6.30375e-06 0)
(9.04137e-06 4.8177e-06 0)
(7.83887e-06 3.84475e-06 0)
(6.72177e-06 3.19154e-06 0)
(5.70747e-06 2.73949e-06 0)
(4.78521e-06 2.41861e-06 0)
(3.93826e-06 2.18702e-06 0)
(3.15041e-06 2.01904e-06 0)
(2.40754e-06 1.89855e-06 0)
(1.69752e-06 1.81532e-06 0)
(1.00987e-06 1.76292e-06 0)
(3.35203e-07 1.73759e-06 0)
(-3.29145e-07 2.03402e-06 0)
(-9.91285e-07 2.06295e-06 0)
(-1.66512e-06 2.12273e-06 0)
(-2.35894e-06 2.21744e-06 0)
(-3.08176e-06 2.35399e-06 0)
(-3.84346e-06 2.54322e-06 0)
(-4.65475e-06 2.80188e-06 0)
(-5.52621e-06 3.15586e-06 0)
(-6.46532e-06 3.64559e-06 0)
(-7.46781e-06 4.33447e-06 0)
(-8.49521e-06 5.31974e-06 0)
(-9.42232e-06 6.73471e-06 0)
(-9.94938e-06 8.68818e-06 0)
(-9.63204e-06 1.09765e-05 0)
(-8.59724e-06 1.25832e-05 0)
(-7.51288e-06 1.34814e-05 0)
(-6.48194e-06 1.43511e-05 0)
(-5.34616e-06 1.49581e-05 0)
(-4.5627e-06 1.504e-05 0)
(-3.12185e-06 1.6531e-05 0)
(-1.79763e-06 1.52749e-05 0)
(-3.43186e-07 1.63226e-05 0)
(5.42595e-07 1.3612e-05 0)
(1.21106e-06 1.45034e-05 0)
(6.95997e-07 1.05385e-05 0)
(-2.75623e-06 1.12425e-05 0)
(1.2864e-06 2.04312e-05 0)
(3.97232e-06 9.00386e-06 0)
(-1.69084e-06 9.65512e-06 0)
(3.36935e-06 2.12154e-05 0)
(5.15405e-06 4.23999e-06 0)
(-9.70313e-06 5.06518e-06 0)
(-1.07386e-05 1.45377e-05 0)
(-1.78245e-06 1.54419e-06 0)
(-6.35933e-07 8.93871e-07 0)
(-3.43463e-07 6.65957e-07 0)
(-2.23164e-07 5.42057e-07 0)
(-1.51674e-07 4.32077e-07 0)
(-9.44371e-08 3.68776e-07 0)
(-3.37929e-08 3.4702e-07 0)
(3.37929e-08 3.4702e-07 0)
(9.44371e-08 3.68776e-07 0)
(1.51674e-07 4.32077e-07 0)
(2.23164e-07 5.42057e-07 0)
(3.43463e-07 6.65957e-07 0)
(6.35933e-07 8.93871e-07 0)
(1.78245e-06 1.54419e-06 0)
(1.07386e-05 1.45377e-05 0)
(9.70313e-06 5.06518e-06 0)
(-5.15405e-06 4.23999e-06 0)
(-3.36935e-06 2.12154e-05 0)
(1.69084e-06 9.65512e-06 0)
(-3.97232e-06 9.00386e-06 0)
(-1.2864e-06 2.04312e-05 0)
(2.75623e-06 1.12425e-05 0)
(-6.95997e-07 1.05385e-05 0)
(-1.21106e-06 1.45034e-05 0)
(-5.42595e-07 1.3612e-05 0)
(3.43186e-07 1.63226e-05 0)
(1.79763e-06 1.52749e-05 0)
(3.12185e-06 1.6531e-05 0)
(4.5627e-06 1.504e-05 0)
(5.34616e-06 1.49581e-05 0)
(6.48194e-06 1.43511e-05 0)
(7.51288e-06 1.34814e-05 0)
(8.59724e-06 1.25832e-05 0)
(9.63204e-06 1.09765e-05 0)
(9.94938e-06 8.68818e-06 0)
(9.42232e-06 6.73471e-06 0)
(8.49521e-06 5.31974e-06 0)
(7.46781e-06 4.33447e-06 0)
(6.46532e-06 3.64559e-06 0)
(5.52621e-06 3.15586e-06 0)
(4.65475e-06 2.80188e-06 0)
(3.84346e-06 2.54322e-06 0)
(3.08176e-06 2.35399e-06 0)
(2.35894e-06 2.21744e-06 0)
(1.66512e-06 2.12273e-06 0)
(9.91285e-07 2.06295e-06 0)
(3.29145e-07 2.03402e-06 0)
(-3.21622e-07 2.35246e-06 0)
(-9.6823e-07 2.38492e-06 0)
(-1.62502e-06 2.45185e-06 0)
(-2.29902e-06 2.55756e-06 0)
(-2.99756e-06 2.70922e-06 0)
(-3.72815e-06 2.91791e-06 0)
(-4.4979e-06 3.20032e-06 0)
(-5.31194e-06 3.58134e-06 0)
(-6.16956e-06 4.09793e-06 0)
(-7.05513e-06 4.80388e-06 0)
(-7.9191e-06 5.77264e-06 0)
(-8.64347e-06 7.08578e-06 0)
(-9.00752e-06 8.7697e-06 0)
(-8.76057e-06 1.06203e-05 0)
(-7.98971e-06 1.20613e-05 0)
(-7.07398e-06 1.30278e-05 0)
(-6.13243e-06 1.3841e-05 0)
(-5.13723e-06 1.44281e-05 0)
(-4.25282e-06 1.47512e-05 0)
(-3.05101e-06 1.55314e-05 0)
(-1.86353e-06 1.50478e-05 0)
(-6.85248e-07 1.52669e-05 0)
(1.22121e-07 1.38405e-05 0)
(5.93966e-07 1.37211e-05 0)
(2.33497e-07 1.1746e-05 0)
(-1.19131e-06 1.2377e-05 0)
(8.93473e-07 1.6341e-05 0)
(2.28881e-06 1.1125e-05 0)
(7.2647e-08 1.13137e-05 0)
(2.41818e-06 1.59923e-05 0)
(3.10667e-06 8.27696e-06 0)
(-8.79655e-07 1.00223e-05 0)
(3.71186e-06 2.158e-05 0)
(6.80472e-06 5.91641e-06 0)
(1.0979e-06 4.5946e-06 0)
(-5.55342e-06 5.37972e-06 0)
(-5.54029e-06 4.78621e-06 0)
(-1.09028e-06 9.78823e-07 0)
(-3.47861e-07 4.50056e-07 0)
(-1.0375e-07 3.81438e-07 0)
(1.0375e-07 3.81438e-07 0)
(3.47861e-07 4.50056e-07 0)
(1.09028e-06 9.78823e-07 0)
(5.54029e-06 4.78621e-06 0)
(5.55342e-06 5.37972e-06 0)
(-1.0979e-06 4.5946e-06 0)
(-6.80472e-06 5.91641e-06 0)
(-3.71186e-06 2.158e-05 0)
(8.79655e-07 1.00223e-05 0)
(-3.10667e-06 8.27696e-06 0)
(-2.41818e-06 1.59923e-05 0)
(-7.2647e-08 1.13137e-05 0)
(-2.28881e-06 1.1125e-05 0)
(-8.93473e-07 1.6341e-05 0)
(1.19131e-06 1.2377e-05 0)
(-2.33497e-07 1.1746e-05 0)
(-5.93966e-07 1.37211e-05 0)
(-1.22121e-07 1.38405e-05 0)
(6.85248e-07 1.52669e-05 0)
(1.86353e-06 1.50478e-05 0)
(3.05101e-06 1.55314e-05 0)
(4.25282e-06 1.47512e-05 0)
(5.13723e-06 1.44281e-05 0)
(6.13243e-06 1.3841e-05 0)
(7.07398e-06 1.30278e-05 0)
(7.98971e-06 1.20613e-05 0)
(8.76057e-06 1.06203e-05 0)
(9.00752e-06 8.7697e-06 0)
(8.64347e-06 7.08578e-06 0)
(7.9191e-06 5.77264e-06 0)
(7.05513e-06 4.80388e-06 0)
(6.16956e-06 4.09793e-06 0)
(5.31194e-06 3.58134e-06 0)
(4.4979e-06 3.20032e-06 0)
(3.72815e-06 2.91791e-06 0)
(2.99756e-06 2.70922e-06 0)
(2.29902e-06 2.55756e-06 0)
(1.62502e-06 2.45185e-06 0)
(9.6823e-07 2.38492e-06 0)
(3.21622e-07 2.35246e-06 0)
(-3.12443e-07 2.69273e-06 0)
(-9.40144e-07 2.72849e-06 0)
(-1.5763e-06 2.80208e-06 0)
(-2.22654e-06 2.91787e-06 0)
(-2.8964e-06 3.08304e-06 0)
(-3.5909e-06 3.30847e-06 0)
(-4.31367e-06 3.61008e-06 0)
(-5.06494e-06 4.01061e-06 0)
(-5.83746e-06 4.54193e-06 0)
(-6.60844e-06 5.24661e-06 0)
(-7.3256e-06 6.17534e-06 0)
(-7.88831e-06 7.37024e-06 0)
(-8.14253e-06 8.81454e-06 0)
(-7.94883e-06 1.03401e-05 0)
(-7.3632e-06 1.16176e-05 0)
(-6.59969e-06 1.25735e-05 0)
(-5.76384e-06 1.33434e-05 0)
(-4.87761e-06 1.3918e-05 0)
(-4.00022e-06 1.43153e-05 0)
(-2.96938e-06 1.47725e-05 0)
(-1.93329e-06 1.46164e-05 0)
(-9.58408e-07 1.45471e-05 0)
(-2.46777e-07 1.37469e-05 0)
(1.4605e-07 1.33523e-05 0)
(1.89698e-08 1.23708e-05 0)
(-4.40209e-07 1.27399e-05 0)
(6.52142e-07 1.42966e-05 0)
(1.43565e-06 1.20146e-05 0)
(7.52164e-07 1.19432e-05 0)
(1.8307e-06 1.35555e-05 0)
(2.14662e-06 1.01837e-05 0)
(8.91836e-07 1.08623e-05 0)
(1.89539e-06 1.31298e-05 0)
(2.67001e-06 9.82306e-06 0)
(1.45385e-06 8.80214e-06 0)
(6.55704e-07 9.87727e-06 0)
(2.10428e-07 9.38334e-06 0)
(-5.31662e-07 1.84451e-06 0)
(-6.76323e-07 5.61118e-07 0)
(-2.43382e-07 3.66284e-07 0)
(2.43382e-07 3.66284e-07 0)
(6.76323e-07 5.61118e-07 0)
(5.31662e-07 1.84451e-06 0)
(-2.10428e-07 9.38334e-06 0)
(-6.55704e-07 9.87727e-06 0)
(-1.45385e-06 8.80214e-06 0)
(-2.67001e-06 9.82306e-06 0)
(-1.89539e-06 1.31298e-05 0)
(-8.91836e-07 1.08623e-05 0)
(-2.14662e-06 1.01837e-05 0)
(-1.8307e-06 1.35555e-05 0)
(-7.52164e-07 1.19432e-05 0)
(-1.43565e-06 1.20146e-05 0)
(-6.52142e-07 1.42966e-05 0)
(4.40209e-07 1.27399e-05 0)
(-1.89698e-08 1.23708e-05 0)
(-1.4605e-07 1.33523e-05 0)
(2.46777e-07 1.37469e-05 0)
(9.58408e-07 1.45471e-05 0)
(1.93329e-06 1.46164e-05 0)
(2.96938e-06 1.47725e-05 0)
(4.00022e-06 1.43153e-05 0)
(4.87761e-06 1.3918e-05 0)
(5.76384e-06 1.33434e-05 0)
(6.59969e-06 1.25735e-05 0)
(7.3632e-06 1.16176e-05 0)
(7.94883e-06 1.03401e-05 0)
(8.14253e-06 8.81454e-06 0)
(7.88831e-06 7.37024e-06 0)
(7.3256e-06 6.17534e-06 0)
(6.60844e-06 5.24661e-06 0)
(5.83746e-06 4.54193e-06 0)
(5.06494e-06 4.01061e-06 0)
(4.31367e-06 3.61008e-06 0)
(3.5909e-06 3.30847e-06 0)
(2.8964e-06 3.08304e-06 0)
(2.22654e-06 2.91787e-06 0)
(1.5763e-06 2.80208e-06 0)
(9.40144e-07 2.72849e-06 0)
(3.12443e-07 2.69273e-06 0)
(-3.01446e-07 3.05401e-06 0)
(-9.06541e-07 3.09271e-06 0)
(-1.51819e-06 3.17215e-06 0)
(-2.14055e-06 3.2966e-06 0)
(-2.77729e-06 3.47298e-06 0)
(-3.43101e-06 3.71152e-06 0)
(-4.10218e-06 4.02665e-06 0)
(-4.787e-06 4.43808e-06 0)
(-5.47371e-06 4.9716e-06 0)
(-6.13631e-06 5.65838e-06 0)
(-6.72575e-06 6.52968e-06 0)
(-7.1621e-06 7.6009e-06 0)
(-7.34201e-06 8.83756e-06 0)
(-7.18817e-06 1.01135e-05 0)
(-6.7349e-06 1.12359e-05 0)
(-6.1034e-06 1.21372e-05 0)
(-5.37623e-06 1.28621e-05 0)
(-4.58992e-06 1.34169e-05 0)
(-3.77396e-06 1.38207e-05 0)
(-2.88158e-06 1.41381e-05 0)
(-1.98954e-06 1.41191e-05 0)
(-1.17091e-06 1.39923e-05 0)
(-5.45903e-07 1.35168e-05 0)
(-1.73199e-07 1.31321e-05 0)
(-1.06438e-07 1.26213e-05 0)
(-1.29777e-07 1.27618e-05 0)
(4.89639e-07 1.32793e-05 0)
(9.85314e-07 1.22862e-05 0)
(9.14422e-07 1.20993e-05 0)
(1.43868e-06 1.24705e-05 0)
(1.61336e-06 1.09836e-05 0)
(1.19773e-06 1.10235e-05 0)
(1.35472e-06 1.1281e-05 0)
(1.46989e-06 1.0533e-05 0)
(1.13964e-06 1.00874e-05 0)
(7.5559e-07 1.01334e-05 0)
(4.48017e-07 1.01166e-05 0)
(2.61064e-08 2.45833e-06 0)
(-2.89898e-07 4.36751e-07 0)
(-1.70472e-07 2.44558e-07 0)
(1.70472e-07 2.44558e-07 0)
(2.89898e-07 4.36751e-07 0)
(-2.61064e-08 2.45833e-06 0)
(-4.48017e-07 1.01166e-05 0)
(-7.5559e-07 1.01334e-05 0)
(-1.13964e-06 1.00874e-05 0)
(-1.46989e-06 1.0533e-05 0)
(-1.35472e-06 1.1281e-05 0)
(-1.19773e-06 1.10235e-05 0)
(-1.61336e-06 1.09836e-05 0)
(-1.43868e-06 1.24705e-05 0)
(-9.14422e-07 1.20993e-05 0)
(-9.85314e-07 1.22862e-05 0)
(-4.89639e-07 1.32793e-05 0)
(1.29777e-07 1.27618e-05 0)
(1.06438e-07 1.26213e-05 0)
(1.73199e-07 1.31321e-05 0)
(5.45903e-07 1.35168e-05 0)
(1.17091e-06 1.39923e-05 0)
(1.98954e-06 1.41191e-05 0)
(2.88158e-06 1.41381e-05 0)
(3.77396e-06 1.38207e-05 0)
(4.58992e-06 1.34169e-05 0)
(5.37623e-06 1.28621e-05 0)
(6.1034e-06 1.21372e-05 0)
(6.7349e-06 1.12359e-05 0)
(7.18817e-06 1.01135e-05 0)
(7.34201e-06 8.83756e-06 0)
(7.1621e-06 7.6009e-06 0)
(6.72575e-06 6.52968e-06 0)
(6.13631e-06 5.65838e-06 0)
(5.47371e-06 4.9716e-06 0)
(4.787e-06 4.43808e-06 0)
(4.10218e-06 4.02665e-06 0)
(3.43101e-06 3.71152e-06 0)
(2.77729e-06 3.47298e-06 0)
(2.14055e-06 3.2966e-06 0)