/*--------------------------------*- C++ -*----------------------------------*\
  =========                 |
  \\      /  F ield         | OpenFOAM: The Open Source CFD Toolbox
   \\    /   O peration     | Website:  https://openfoam.org
    \\  /    A nd           | Version:  10
     \\/     M anipulation  |
\*---------------------------------------------------------------------------*/
FoamFile
{
    format      ascii;
    class       volVectorField;
    location    "1750";
    object      Ua;
}
// * * * * * * * * * * * * * * * * * * * * * * * * * * * * * * * * * * * * * //

dimensions      [0 1 -1 0 0 0 0];

internalField   nonuniform List<vector> 
3200
(
(-1.69636e-08 2.44982e-08 0)
(-5.03883e-08 2.41989e-08 0)
(-8.26326e-08 2.36182e-08 0)
(-1.13367e-07 2.27749e-08 0)
(-1.42306e-07 2.16886e-08 0)
(-1.69205e-07 2.03796e-08 0)
(-1.93861e-07 1.88688e-08 0)
(-2.16108e-07 1.71773e-08 0)
(-2.35817e-07 1.53263e-08 0)
(-2.52893e-07 1.33374e-08 0)
(-2.67274e-07 1.12317e-08 0)
(-2.78928e-07 9.03057e-09 0)
(-2.8785e-07 6.75479e-09 0)
(-2.9406e-07 4.42482e-09 0)
(-2.97605e-07 2.06058e-09 0)
(-2.98548e-07 -3.18681e-10 0)
(-2.96975e-07 -2.69453e-09 0)
(-2.92986e-07 -5.0494e-09 0)
(-2.86697e-07 -7.36677e-09 0)
(-2.78235e-07 -9.63121e-09 0)
(-2.67737e-07 -1.18285e-08 0)
(-2.55348e-07 -1.39455e-08 0)
(-2.4122e-07 -1.59708e-08 0)
(-2.25507e-07 -1.78939e-08 0)
(-2.08367e-07 -1.9706e-08 0)
(-1.89957e-07 -2.13994e-08 0)
(-1.70437e-07 -2.29681e-08 0)
(-1.49959e-07 -2.4407e-08 0)
(-1.28675e-07 -2.57128e-08 0)
(-1.06733e-07 -2.68831e-08 0)
(-8.42728e-08 -2.79168e-08 0)
(-6.14307e-08 -2.88138e-08 0)
(-3.83344e-08 -2.95752e-08 0)
(-1.51047e-08 -3.02029e-08 0)
(8.14546e-09 -3.06996e-08 0)
(3.13113e-08 -3.10688e-08 0)
(5.42961e-08 -3.13147e-08 0)
(7.70113e-08 -3.14418e-08 0)
(9.93769e-08 -3.14555e-08 0)
(1.21321e-07 -3.1361e-08 0)
(-1.73995e-08 7.41241e-08 0)
(-5.16855e-08 7.3222e-08 0)
(-8.47671e-08 7.14711e-08 0)
(-1.1631e-07 6.89282e-08 0)
(-1.46023e-07 6.56522e-08 0)
(-1.73659e-07 6.17042e-08 0)
(-1.99009e-07 5.71465e-08 0)
(-2.21904e-07 5.20425e-08 0)
(-2.42212e-07 4.64561e-08 0)
(-2.59834e-07 4.04517e-08 0)
(-2.74705e-07 3.40933e-08 0)
(-2.8679e-07 2.74445e-08 0)
(-2.96083e-07 2.05682e-08 0)
(-3.02602e-07 1.3526e-08 0)
(-3.06391e-07 6.37792e-09 0)
(-3.07513e-07 -8.18001e-10 0)
(-3.06054e-07 -8.00597e-09 0)
(-3.02114e-07 -1.51329e-08 0)
(-2.95808e-07 -2.21487e-08 0)
(-2.87266e-07 -2.90064e-08 0)
(-2.76626e-07 -3.5663e-08 0)
(-2.64035e-07 -4.20787e-08 0)
(-2.49648e-07 -4.82181e-08 0)
(-2.33623e-07 -5.40497e-08 0)
(-2.1612e-07 -5.95462e-08 0)
(-1.97301e-07 -6.46843e-08 0)
(-1.77329e-07 -6.94451e-08 0)
(-1.56361e-07 -7.38136e-08 0)
(-1.34554e-07 -7.77788e-08 0)
(-1.12059e-07 -8.13336e-08 0)
(-8.9022e-08 -8.44742e-08 0)
(-6.55829e-08 -8.72005e-08 0)
(-4.18741e-08 -8.95152e-08 0)
(-1.80208e-08 -9.14241e-08 0)
(5.86008e-09 -9.29354e-08 0)
(2.96596e-08 -9.40595e-08 0)
(5.32774e-08 -9.4809e-08 0)
(7.66217e-08 -9.51981e-08 0)
(9.96089e-08 -9.52422e-08 0)
(1.22164e-07 -9.4958e-08 0)
(-1.8278e-08 1.25648e-07 0)
(-5.42994e-08 1.2413e-07 0)
(-8.90684e-08 1.21183e-07 0)
(-1.22241e-07 1.16902e-07 0)
(-1.53517e-07 1.11386e-07 0)
(-1.82639e-07 1.04736e-07 0)
(-2.09392e-07 9.70561e-08 0)
(-2.33599e-07 8.84519e-08 0)
(-2.5512e-07 7.90302e-08 0)
(-2.73849e-07 6.88981e-08 0)
(-2.89717e-07 5.81628e-08 0)
(-3.02681e-07 4.69306e-08 0)
(-3.12731e-07 3.5307e-08 0)
(-3.19882e-07 2.33953e-08 0)
(-3.24173e-07 1.12966e-08 0)
(-3.25667e-07 -8.91216e-10 0)
(-3.24447e-07 -1.30737e-08 0)
(-3.20614e-07 -2.5161e-08 0)
(-3.14284e-07 -3.70678e-08 0)
(-3.05588e-07 -4.87143e-08 0)
(-2.94669e-07 -6.00265e-08 0)
(-2.81678e-07 -7.09367e-08 0)
(-2.66774e-07 -8.13837e-08 0)
(-2.50121e-07 -9.13132e-08 0)
(-2.31888e-07 -1.00678e-07 0)
(-2.12243e-07 -1.09437e-07 0)
(-1.91357e-07 -1.17557e-07 0)
(-1.69398e-07 -1.25013e-07 0)
(-1.46529e-07 -1.31784e-07 0)
(-1.22913e-07 -1.37857e-07 0)
(-9.87044e-08 -1.43226e-07 0)
(-7.40518e-08 -1.47889e-07 0)
(-4.90973e-08 -1.51851e-07 0)
(-2.39749e-08 -1.5512e-07 0)
(1.18978e-09 -1.57711e-07 0)
(2.62798e-08 -1.59641e-07 0)
(5.1187e-08 -1.60931e-07 0)
(7.58125e-08 -1.61605e-07 0)
(1.00066e-07 -1.61689e-07 0)
(1.23868e-07 -1.61212e-07 0)
(-1.96116e-08 1.80367e-07 0)
(-5.82682e-08 1.78211e-07 0)
(-9.56006e-08 1.74026e-07 0)
(-1.3125e-07 1.67945e-07 0)
(-1.64904e-07 1.60106e-07 0)
(-1.96291e-07 1.50651e-07 0)
(-2.25185e-07 1.39725e-07 0)
(-2.51397e-07 1.27477e-07 0)
(-2.74776e-07 1.14055e-07 0)
(-2.95206e-07 9.96097e-08 0)
(-3.12608e-07 8.42915e-08 0)
(-3.26931e-07 6.82502e-08 0)
(-3.38157e-07 5.16343e-08 0)
(-3.46293e-07 3.45901e-08 0)
(-3.51375e-07 1.7261e-08 0)
(-3.5346e-07 -2.1328e-10 0)
(-3.5263e-07 -1.76981e-08 0)
(-3.48985e-07 -3.50641e-08 0)
(-3.42642e-07 -5.21885e-08 0)
(-3.33735e-07 -6.89559e-08 0)
(-3.22409e-07 -8.52586e-08 0)
(-3.08824e-07 -1.00998e-07 0)
(-2.93145e-07 -1.16083e-07 0)
(-2.75546e-07 -1.30435e-07 0)
(-2.56205e-07 -1.43984e-07 0)
(-2.35303e-07 -1.56667e-07 0)
(-2.13023e-07 -1.68437e-07 0)
(-1.89546e-07 -1.79252e-07 0)
(-1.6505e-07 -1.89082e-07 0)
(-1.39711e-07 -1.97906e-07 0)
(-1.13699e-07 -2.05714e-07 0)
(-8.71767e-08 -2.125e-07 0)
(-6.03008e-08 -2.18272e-07 0)
(-3.32192e-08 -2.23039e-07 0)
(-6.07106e-09 -2.26823e-07 0)
(2.10138e-08 -2.29647e-07 0)
(4.79151e-08 -2.3154e-07 0)
(7.45227e-08 -2.32539e-07 0)
(1.00736e-07 -2.32681e-07 0)
(1.26465e-07 -2.32007e-07 0)
(-2.14189e-08 2.39622e-07 0)
(-6.36473e-08 2.368e-07 0)
(-1.04456e-07 2.3132e-07 0)
(-1.43469e-07 2.23354e-07 0)
(-1.80355e-07 2.1308e-07 0)
(-2.14828e-07 2.0068e-07 0)
(-2.46644e-07 1.8634e-07 0)
(-2.75599e-07 1.70251e-07 0)
(-3.01528e-07 1.52602e-07 0)
(-3.24302e-07 1.33588e-07 0)
(-3.43825e-07 1.13402e-07 0)
(-3.60036e-07 9.22366e-08 0)
(-3.72905e-07 7.02856e-08 0)
(-3.8243e-07 4.77392e-08 0)
(-3.88637e-07 2.47849e-08 0)
(-3.91578e-07 1.6061e-09 0)
(-3.9133e-07 -2.16192e-08 0)
(-3.8799e-07 -4.47193e-08 0)
(-3.81676e-07 -6.75304e-08 0)
(-3.72523e-07 -8.98974e-08 0)
(-3.60684e-07 -1.11675e-07 0)
(-3.46322e-07 -1.32728e-07 0)
(-3.29614e-07 -1.52935e-07 0)
(-3.10745e-07 -1.72184e-07 0)
(-2.89906e-07 -1.90379e-07 0)
(-2.67296e-07 -2.07434e-07 0)
(-2.43112e-07 -2.23278e-07 0)
(-2.17554e-07 -2.37854e-07 0)
(-1.90821e-07 -2.51119e-07 0)
(-1.63107e-07 -2.63039e-07 0)
(-1.34603e-07 -2.73598e-07 0)
(-1.05493e-07 -2.82786e-07 0)
(-7.59539e-08 -2.9061e-07 0)
(-4.61527e-08 -2.97082e-07 0)
(-1.62483e-08 -3.02227e-07 0)
(1.3611e-08 -3.06077e-07 0)
(4.32876e-08 -3.08671e-07 0)
(7.2655e-08 -3.10054e-07 0)
(1.01598e-07 -3.10279e-07 0)
(1.30012e-07 -3.094e-07 0)
(-2.37234e-08 3.04815e-07 0)
(-7.05075e-08 3.01292e-07 0)
(-1.15755e-07 2.94448e-07 0)
(-1.59066e-07 2.84495e-07 0)
(-2.00091e-07 2.71649e-07 0)
(-2.38523e-07 2.56132e-07 0)
(-2.741e-07 2.38171e-07 0)
(-3.06598e-07 2.17996e-07 0)
(-3.35832e-07 1.95838e-07 0)
(-3.61656e-07 1.71933e-07 0)
(-3.83956e-07 1.46517e-07 0)
(-4.02655e-07 1.19828e-07 0)
(-4.17704e-07 9.21028e-08 0)
(-4.2909e-07 6.35774e-08 0)
(-4.36824e-07 3.44853e-08 0)
(-4.4095e-07 5.0564e-09 0)
(-4.41535e-07 -2.44849e-08 0)
(-4.38672e-07 -5.39206e-08 0)
(-4.32477e-07 -8.30412e-08 0)
(-4.23085e-07 -1.11647e-07 0)
(-4.10653e-07 -1.39549e-07 0)
(-3.95353e-07 -1.66572e-07 0)
(-3.77371e-07 -1.92553e-07 0)
(-3.56907e-07 -2.17345e-07 0)
(-3.34168e-07 -2.40818e-07 0)
(-3.09371e-07 -2.62856e-07 0)
(-2.82736e-07 -2.83362e-07 0)
(-2.54487e-07 -3.02256e-07 0)
(-2.24846e-07 -3.19474e-07 0)
(-1.94036e-07 -3.3497e-07 0)
(-1.62274e-07 -3.48715e-07 0)
(-1.29771e-07 -3.60694e-07 0)
(-9.67307e-08 -3.7091e-07 0)
(-6.33493e-08 -3.79376e-07 0)
(-2.98111e-08 -3.8612e-07 0)
(3.71018e-09 -3.91181e-07 0)
(3.7053e-08 -3.9461e-07 0)
(7.00683e-08 -3.96463e-07 0)
(1.0262e-07 -3.96807e-07 0)
(1.34585e-07 -3.95714e-07 0)
(-2.65524e-08 3.77422e-07 0)
(-7.89309e-08 3.73158e-07 0)
(-1.29633e-07 3.64873e-07 0)
(-1.78237e-07 3.52817e-07 0)
(-2.2437e-07 3.37245e-07 0)
(-2.67702e-07 3.18416e-07 0)
(-3.07949e-07 2.96595e-07 0)
(-3.44864e-07 2.72049e-07 0)
(-3.7824e-07 2.45051e-07 0)
(-4.07907e-07 2.15875e-07 0)
(-4.33728e-07 1.848e-07 0)
(-4.55603e-07 1.52105e-07 0)
(-4.73464e-07 1.18074e-07 0)
(-4.87276e-07 8.29866e-08 0)
(-4.97033e-07 4.71254e-08 0)
(-5.02761e-07 1.07687e-08 0)
(-5.04516e-07 -2.58088e-08 0)
(-5.0238e-07 -6.23386e-08 0)
(-4.96463e-07 -9.85598e-08 0)
(-4.86899e-07 -1.34222e-07 0)
(-4.73845e-07 -1.69085e-07 0)
(-4.5748e-07 -2.02925e-07 0)
(-4.38e-07 -2.35533e-07 0)
(-4.1562e-07 -2.66715e-07 0)
(-3.90567e-07 -2.96299e-07 0)
(-3.63078e-07 -3.24132e-07 0)
(-3.33401e-07 -3.5008e-07 0)
(-3.01789e-07 -3.74034e-07 0)
(-2.68495e-07 -3.95904e-07 0)
(-2.33775e-07 -4.15622e-07 0)
(-1.97882e-07 -4.33142e-07 0)
(-1.61063e-07 -4.4844e-07 0)
(-1.23559e-07 -4.61509e-07 0)
(-8.56008e-08 -4.72363e-07 0)
(-4.74081e-08 -4.81031e-07 0)
(-9.18911e-09 -4.87559e-07 0)
(2.88622e-08 -4.92007e-07 0)
(6.65663e-08 -4.94447e-07 0)
(1.03759e-07 -4.94962e-07 0)
(1.40291e-07 -4.93641e-07 0)
(-2.99355e-08 4.58999e-07 0)
(-8.90066e-08 4.53955e-07 0)
(-1.46243e-07 4.44149e-07 0)
(-2.01199e-07 4.29869e-07 0)
(-2.53478e-07 4.11406e-07 0)
(-3.02727e-07 3.89054e-07 0)
(-3.48636e-07 3.63114e-07 0)
(-3.90933e-07 3.33888e-07 0)
(-4.29384e-07 3.01682e-07 0)
(-4.6379e-07 2.6681e-07 0)
(-4.93987e-07 2.29587e-07 0)
(-5.19846e-07 1.90335e-07 0)
(-5.4127e-07 1.49379e-07 0)
(-5.58195e-07 1.07046e-07 0)
(-5.70592e-07 6.36665e-08 0)
(-5.78462e-07 1.95698e-08 0)
(-5.81841e-07 -2.4916e-08 0)
(-5.80793e-07 -6.94667e-08 0)
(-5.75415e-07 -1.13764e-07 0)
(-5.65834e-07 -1.57499e-07 0)
(-5.52204e-07 -2.00374e-07 0)
(-5.34706e-07 -2.42105e-07 0)
(-5.13545e-07 -2.82424e-07 0)
(-4.88948e-07 -3.21084e-07 0)
(-4.61163e-07 -3.57856e-07 0)
(-4.30453e-07 -3.92539e-07 0)
(-3.97095e-07 -4.24952e-07 0)
(-3.61376e-07 -4.54944e-07 0)
(-3.23589e-07 -4.82389e-07 0)
(-2.84033e-07 -5.07188e-07 0)
(-2.43003e-07 -5.29271e-07 0)
(-2.00794e-07 -5.48593e-07 0)
(-1.57693e-07 -5.65138e-07 0)
(-1.1398e-07 -5.78911e-07 0)
(-6.99203e-08 -5.89942e-07 0)
(-2.57681e-08 -5.98283e-07 0)
(1.82389e-08 -6.04003e-07 0)
(6.188e-08 -6.0719e-07 0)
(1.04952e-07 -6.07944e-07 0)
(1.47272e-07 -6.06381e-07 0)
(-3.39021e-08 5.51191e-07 0)
(-1.00824e-07 5.45328e-07 0)
(-1.65736e-07 5.33923e-07 0)
(-2.28171e-07 5.17301e-07 0)
(-2.87709e-07 4.95786e-07 0)
(-3.43975e-07 4.69703e-07 0)
(-3.96631e-07 4.39382e-07 0)
(-4.45379e-07 4.05154e-07 0)
(-4.89952e-07 3.67357e-07 0)
(-5.30119e-07 3.26334e-07 0)
(-5.65682e-07 2.82435e-07 0)
(-5.96475e-07 2.36018e-07 0)
(-6.22364e-07 1.87447e-07 0)
(-6.43249e-07 1.37093e-07 0)
(-6.59065e-07 8.53345e-08 0)
(-6.69779e-07 3.2552e-08 0)
(-6.75394e-07 -2.08701e-08 0)
(-6.75949e-07 -7.45477e-08 0)
(-6.71517e-07 -1.28099e-07 0)
(-6.62207e-07 -1.81149e-07 0)
(-6.48161e-07 -2.33329e-07 0)
(-6.29556e-07 -2.84287e-07 0)
(-6.066e-07 -3.33683e-07 0)
(-5.79531e-07 -3.81198e-07 0)
(-5.48614e-07 -4.26537e-07 0)
(-5.14139e-07 -4.6943e-07 0)
(-4.76414e-07 -5.09637e-07 0)
(-4.35768e-07 -5.46946e-07 0)
(-3.9254e-07 -5.81181e-07 0)
(-3.47078e-07 -6.12199e-07 0)
(-2.99736e-07 -6.39892e-07 0)
(-2.50867e-07 -6.64186e-07 0)
(-2.00819e-07 -6.85042e-07 0)
(-1.49934e-07 -7.02453e-07 0)
(-9.85398e-08 -7.16443e-07 0)
(-4.69516e-08 -7.27066e-07 0)
(4.53384e-09 -7.34403e-07 0)
(5.56398e-08 -7.38555e-07 0)
(1.06111e-07 -7.39648e-07 0)
(1.55715e-07 -7.37822e-07 0)
(-3.84789e-08 6.55722e-07 0)
(-1.14465e-07 6.49006e-07 0)
(-1.88252e-07 6.35938e-07 0)
(-2.59358e-07 6.16873e-07 0)
(-3.27344e-07 5.92164e-07 0)
(-3.91812e-07 5.62161e-07 0)
(-4.52401e-07 5.27216e-07 0)
(-5.08781e-07 4.8768e-07 0)
(-5.60653e-07 4.43915e-07 0)
(-6.07748e-07 3.96285e-07 0)
(-6.49827e-07 3.45166e-07 0)
(-6.86679e-07 2.90945e-07 0)
(-7.18124e-07 2.34019e-07 0)
(-7.44014e-07 1.74797e-07 0)
(-7.64236e-07 1.13701e-07 0)
(-7.78708e-07 5.11626e-08 0)
(-7.87389e-07 -1.23779e-08 0)
(-7.90273e-07 -7.64734e-08 0)
(-7.87396e-07 -1.40673e-07 0)
(-7.78835e-07 -2.04527e-07 0)
(-7.64707e-07 -2.67587e-07 0)
(-7.45172e-07 -3.29416e-07 0)
(-7.20429e-07 -3.89587e-07 0)
(-6.9072e-07 -4.47695e-07 0)
(-6.56322e-07 -5.03353e-07 0)
(-6.17546e-07 -5.56205e-07 0)
(-5.74738e-07 -6.05926e-07 0)
(-5.28267e-07 -6.52225e-07 0)
(-4.78526e-07 -6.94854e-07 0)
(-4.25926e-07 -7.33602e-07 0)
(-3.70888e-07 -7.68306e-07 0)
(-3.13841e-07 -7.98845e-07 0)
(-2.55212e-07 -8.25143e-07 0)
(-1.95424e-07 -8.47168e-07 0)
(-1.34889e-07 -8.64932e-07 0)
(-7.40029e-08 -8.78483e-07 0)
(-1.31439e-08 -8.8791e-07 0)
(4.73349e-08 -8.93333e-07 0)
(1.07106e-07 -8.94902e-07 0)
(1.65871e-07 -8.9279e-07 0)
(-4.36861e-08 7.74381e-07 0)
(-1.2999e-07 7.66795e-07 0)
(-2.13901e-07 7.5202e-07 0)
(-2.94926e-07 7.30444e-07 0)
(-3.72617e-07 7.02438e-07 0)
(-4.46557e-07 6.68371e-07 0)
(-5.16363e-07 6.28604e-07 0)
(-5.81678e-07 5.83503e-07 0)
(-6.42166e-07 5.33434e-07 0)
(-6.97518e-07 4.78776e-07 0)
(-7.47448e-07 4.19916e-07 0)
(-7.91692e-07 3.57258e-07 0)
(-8.30012e-07 2.91222e-07 0)
(-8.62201e-07 2.22245e-07 0)
(-8.88079e-07 1.50785e-07 0)
(-9.07501e-07 7.73177e-08 0)
(-9.2036e-07 2.3362e-09 0)
(-9.26588e-07 -7.36497e-08 0)
(-9.26162e-07 -1.50117e-07 0)
(-9.19103e-07 -2.26533e-07 0)
(-9.05483e-07 -3.02362e-07 0)
(-8.85426e-07 -3.77065e-07 0)
(-8.59105e-07 -4.50112e-07 0)
(-8.26747e-07 -5.20984e-07 0)
(-7.88629e-07 -5.89185e-07 0)
(-7.45078e-07 -6.54239e-07 0)
(-6.96468e-07 -7.15709e-07 0)
(-6.43212e-07 -7.73194e-07 0)
(-5.85762e-07 -8.26339e-07 0)
(-5.24601e-07 -8.74838e-07 0)
(-4.60232e-07 -9.18441e-07 0)
(-3.93178e-07 -9.56955e-07 0)
(-3.23969e-07 -9.90242e-07 0)
(-2.53134e-07 -1.01823e-06 0)
(-1.81198e-07 -1.04089e-06 0)
(-1.08669e-07 -1.05827e-06 0)
(-3.60332e-08 -1.07045e-06 0)
(3.62474e-08 -1.07758e-06 0)
(1.07745e-07 -1.07982e-06 0)
(1.78066e-07 -1.0774e-06 0)
(-4.95327e-08 9.09005e-07 0)
(-1.4743e-07 9.00545e-07 0)
(-2.42739e-07 8.84059e-07 0)
(-3.34971e-07 8.59953e-07 0)
(-4.23676e-07 8.28614e-07 0)
(-5.0843e-07 7.90413e-07 0)
(-5.88834e-07 7.45712e-07 0)
(-6.64503e-07 6.94872e-07 0)
(-7.35072e-07 6.38254e-07 0)
(-8.00187e-07 5.76229e-07 0)
(-8.5951e-07 5.09182e-07 0)
(-9.12717e-07 4.37515e-07 0)
(-9.59503e-07 3.61653e-07 0)
(-9.99584e-07 2.82047e-07 0)
(-1.0327e-06 1.99175e-07 0)
(-1.05862e-06 1.13544e-07 0)
(-1.07714e-06 2.56906e-08 0)
(-1.08811e-06 -6.3818e-08 0)
(-1.09142e-06 -1.54389e-07 0)
(-1.08701e-06 -2.45407e-07 0)
(-1.07487e-06 -3.36234e-07 0)
(-1.05505e-06 -4.26223e-07 0)
(-1.02768e-06 -5.14717e-07 0)
(-9.92935e-07 -6.01062e-07 0)
(-9.51074e-07 -6.84616e-07 0)
(-9.02419e-07 -7.64753e-07 0)
(-8.47356e-07 -8.4088e-07 0)
(-7.86339e-07 -9.12444e-07 0)
(-7.19875e-07 -9.78938e-07 0)
(-6.48527e-07 -1.03992e-06 0)
(-5.72897e-07 -1.09499e-06 0)
(-4.93623e-07 -1.14386e-06 0)
(-4.11365e-07 -1.18629e-06 0)
(-3.26796e-07 -1.22212e-06 0)
(-2.40588e-07 -1.25127e-06 0)
(-1.53406e-07 -1.27376e-06 0)
(-6.58901e-08 -1.28965e-06 0)
(2.1347e-08 -1.2991e-06 0)
(1.07732e-07 -1.30231e-06 0)
(1.92738e-07 -1.29955e-06 0)
(-5.60116e-08 1.06143e-06 0)
(-1.66767e-07 1.05212e-06 0)
(-2.74745e-07 1.03397e-06 0)
(-3.79481e-07 1.00739e-06 0)
(-4.80538e-07 9.72773e-07 0)
(-5.77498e-07 9.30483e-07 0)
(-6.69955e-07 8.80862e-07 0)
(-7.57509e-07 8.2425e-07 0)
(-8.39765e-07 7.60981e-07 0)
(-9.16329e-07 6.914e-07 0)
(-9.86809e-07 6.15863e-07 0)
(-1.05082e-06 5.34748e-07 0)
(-1.10797e-06 4.48462e-07 0)
(-1.15789e-06 3.57443e-07 0)
(-1.20022e-06 2.62165e-07 0)
(-1.23462e-06 1.63147e-07 0)
(-1.26078e-06 6.09484e-08 0)
(-1.27841e-06 -4.38231e-08 0)
(-1.28728e-06 -1.50516e-07 0)
(-1.28721e-06 -2.58436e-07 0)
(-1.27806e-06 -3.66847e-07 0)
(-1.25977e-06 -4.74979e-07 0)
(-1.23237e-06 -5.82035e-07 0)
(-1.19596e-06 -6.87199e-07 0)
(-1.15071e-06 -7.89647e-07 0)
(-1.09692e-06 -8.88561e-07 0)
(-1.03495e-06 -9.8314e-07 0)
(-9.65275e-07 -1.07262e-06 0)
(-8.88444e-07 -1.15627e-06 0)
(-8.05099e-07 -1.23345e-06 0)
(-7.15952e-07 -1.30357e-06 0)
(-6.2178e-07 -1.36612e-06 0)
(-5.23406e-07 -1.42073e-06 0)
(-4.21692e-07 -1.4671e-06 0)
(-3.17514e-07 -1.50504e-06 0)
(-2.11751e-07 -1.53449e-06 0)
(-1.05264e-07 -1.55549e-06 0)
(1.11569e-09 -1.56819e-06 0)
(1.06602e-07 -1.57282e-06 0)
(2.10469e-07 -1.56972e-06 0)
(-6.30935e-08 1.23344e-06 0)
(-1.87914e-07 1.22334e-06 0)
(-3.09788e-07 1.20363e-06 0)
(-4.28294e-07 1.17474e-06 0)
(-5.43031e-07 1.13703e-06 0)
(-6.53604e-07 1.09085e-06 0)
(-7.59616e-07 1.0365e-06 0)
(-8.60664e-07 9.7428e-07 0)
(-9.56336e-07 9.04477e-07 0)
(-1.0462e-06 8.27378e-07 0)
(-1.12983e-06 7.43283e-07 0)
(-1.20675e-06 6.52516e-07 0)
(-1.27651e-06 5.5543e-07 0)
(-1.33863e-06 4.52416e-07 0)
(-1.39263e-06 3.43911e-07 0)
(-1.43804e-06 2.30409e-07 0)
(-1.4744e-06 1.12459e-07 0)
(-1.50126e-06 -9.32227e-09 0)
(-1.51823e-06 -1.34251e-07 0)
(-1.52494e-06 -2.61575e-07 0)
(-1.52107e-06 -3.90473e-07 0)
(-1.5064e-06 -5.20057e-07 0)
(-1.48076e-06 -6.49381e-07 0)
(-1.44411e-06 -7.77448e-07 0)
(-1.3965e-06 -9.03219e-07 0)
(-1.3381e-06 -1.02563e-06 0)
(-1.2692e-06 -1.14362e-06 0)
(-1.19024e-06 -1.25612e-06 0)
(-1.10178e-06 -1.36211e-06 0)
(-1.00453e-06 -1.46062e-06 0)
(-8.99293e-07 -1.55077e-06 0)
(-7.87009e-07 -1.63177e-06 0)
(-6.68704e-07 -1.70295e-06 0)
(-5.45481e-07 -1.7638e-06 0)
(-4.18495e-07 -1.81393e-06 0)
(-2.88928e-07 -1.85313e-06 0)
(-1.57963e-07 -1.88137e-06 0)
(-2.67548e-08 -1.89874e-06 0)
(1.03591e-07 -1.90551e-06 0)
(2.32041e-07 -1.90207e-06 0)
(-7.07205e-08 1.42668e-06 0)
(-2.10704e-07 1.4159e-06 0)
(-3.47598e-07 1.39484e-06 0)
(-4.81055e-07 1.36391e-06 0)
(-6.10734e-07 1.32345e-06 0)
(-7.36287e-07 1.27377e-06 0)
(-8.57351e-07 1.21513e-06 0)
(-9.7354e-07 1.14774e-06 0)
(-1.08444e-06 1.07181e-06 0)
(-1.1896e-06 9.87558e-07 0)
(-1.28856e-06 8.95184e-07 0)
(-1.38078e-06 7.94918e-07 0)
(-1.46574e-06 6.8702e-07 0)
(-1.54284e-06 5.71787e-07 0)
(-1.6115e-06 4.49572e-07 0)
(-1.67107e-06 3.20789e-07 0)
(-1.72093e-06 1.85927e-07 0)
(-1.76044e-06 4.55594e-08 0)
(-1.78896e-06 -9.96498e-08 0)
(-1.8059e-06 -2.48936e-07 0)
(-1.81069e-06 -4.0143e-07 0)
(-1.80284e-06 -5.56157e-07 0)
(-1.78192e-06 -7.12035e-07 0)
(-1.74761e-06 -8.67884e-07 0)
(-1.69973e-06 -1.02243e-06 0)
(-1.63823e-06 -1.17432e-06 0)
(-1.56322e-06 -1.32216e-06 0)
(-1.475e-06 -1.46449e-06 0)
(-1.37407e-06 -1.59988e-06 0)
(-1.26111e-06 -1.7269e-06 0)
(-1.13701e-06 -1.8442e-06 0)
(-1.00285e-06 -1.95053e-06 0)
(-8.599e-07 -2.0448e-06 0)
(-7.09557e-07 -2.12605e-06 0)
(-5.53357e-07 -2.19357e-06 0)
(-3.92912e-07 -2.24685e-06 0)
(-2.29878e-07 -2.28566e-06 0)
(-6.59087e-08 -2.30999e-06 0)
(9.73928e-08 -2.32009e-06 0)
(2.5851e-07 -2.31643e-06 0)
(-7.88005e-08 1.64262e-06 0)
(-2.34863e-07 1.63131e-06 0)
(-3.87731e-07 1.60918e-06 0)
(-5.37164e-07 1.57664e-06 0)
(-6.82913e-07 1.53398e-06 0)
(-8.24706e-07 1.48145e-06 0)
(-9.62242e-07 1.41922e-06 0)
(-1.09518e-06 1.34743e-06 0)
(-1.22313e-06 1.26618e-06 0)
(-1.34565e-06 1.17557e-06 0)
(-1.46226e-06 1.07566e-06 0)
(-1.57241e-06 9.66561e-07 0)
(-1.67547e-06 8.48377e-07 0)
(-1.77078e-06 7.21262e-07 0)
(-1.85762e-06 5.85415e-07 0)
(-1.93521e-06 4.41106e-07 0)
(-2.00271e-06 2.88685e-07 0)
(-2.05925e-06 1.28603e-07 0)
(-2.10394e-06 -3.8577e-08 0)
(-2.13588e-06 -2.12162e-07 0)
(-2.15417e-06 -3.91315e-07 0)
(-2.15792e-06 -5.75045e-07 0)
(-2.14635e-06 -7.62196e-07 0)
(-2.11871e-06 -9.51443e-07 0)
(-2.07442e-06 -1.1413e-06 0)
(-2.01303e-06 -1.3301e-06 0)
(-1.93428e-06 -1.51606e-06 0)
(-1.83817e-06 -1.69726e-06 0)
(-1.72493e-06 -1.87169e-06 0)
(-1.5951e-06 -2.03729e-06 0)
(-1.44951e-06 -2.19203e-06 0)
(-1.28934e-06 -2.33392e-06 0)
(-1.11605e-06 -2.46111e-06 0)
(-9.31399e-07 -2.57196e-06 0)
(-7.37419e-07 -2.66509e-06 0)
(-5.36331e-07 -2.73944e-06 0)
(-3.30502e-07 -2.79432e-06 0)
(-1.22361e-07 -2.82945e-06 0)
(8.56767e-08 -2.84496e-06 0)
(2.91291e-07 -2.84138e-06 0)
(-8.72019e-08 1.88235e-06 0)
(-2.60001e-07 1.87072e-06 0)
(-4.29547e-07 1.84794e-06 0)
(-5.95742e-07 1.81438e-06 0)
(-7.58466e-07 1.77028e-06 0)
(-9.17558e-07 1.71582e-06 0)
(-1.07281e-06 1.65107e-06 0)
(-1.22397e-06 1.57605e-06 0)
(-1.3707e-06 1.49075e-06 0)
(-1.51261e-06 1.39511e-06 0)
(-1.64924e-06 1.28903e-06 0)
(-1.78003e-06 1.17244e-06 0)
(-1.90435e-06 1.04524e-06 0)
(-2.02145e-06 9.07377e-07 0)
(-2.13053e-06 7.58828e-07 0)
(-2.23065e-06 5.99628e-07 0)
(-2.32081e-06 4.29892e-07 0)
(-2.3999e-06 2.49836e-07 0)
(-2.46673e-06 5.97996e-08 0)
(-2.52004e-06 -1.39727e-07 0)
(-2.55853e-06 -3.48076e-07 0)
(-2.58084e-06 -5.64382e-07 0)
(-2.58562e-06 -7.87548e-07 0)
(-2.57157e-06 -1.01623e-06 0)
(-2.53746e-06 -1.24882e-06 0)
(-2.48218e-06 -1.48342e-06 0)
(-2.40482e-06 -1.71785e-06 0)
(-2.30474e-06 -1.94969e-06 0)
(-2.1816e-06 -2.17623e-06 0)
(-2.03546e-06 -2.39459e-06 0)
(-1.86683e-06 -2.60172e-06 0)
(-1.67672e-06 -2.79453e-06 0)
(-1.46665e-06 -2.96996e-06 0)
(-1.23872e-06 -3.12511e-06 0)
(-9.95516e-07 -3.25739e-06 0)
(-7.40095e-07 -3.36459e-06 0)
(-4.7589e-07 -3.44509e-06 0)
(-2.06584e-07 -3.49789e-06 0)
(6.40352e-08 -3.52271e-06 0)
(3.32239e-07 -3.52002e-06 0)
(-9.57506e-08 2.14657e-06 0)
(-2.85597e-07 2.13488e-06 0)
(-4.72186e-07 2.11197e-06 0)
(-6.556e-07 2.07816e-06 0)
(-8.35881e-07 2.03362e-06 0)
(-1.01302e-06 1.97845e-06 0)
(-1.18694e-06 1.91261e-06 0)
(-1.35752e-06 1.836e-06 0)
(-1.52452e-06 1.74846e-06 0)
(-1.68766e-06 1.64975e-06 0)
(-1.84654e-06 1.5396e-06 0)
(-2.00067e-06 1.41769e-06 0)
(-2.14943e-06 1.2837e-06 0)
(-2.29209e-06 1.1373e-06 0)
(-2.4278e-06 9.7816e-07 0)
(-2.55555e-06 8.05992e-07 0)
(-2.6742e-06 6.2056e-07 0)
(-2.78244e-06 4.21709e-07 0)
(-2.87881e-06 2.09395e-07 0)
(-2.9617e-06 -1.62813e-08 0)
(-3.02935e-06 -2.55035e-07 0)
(-3.07986e-06 -5.06353e-07 0)
(-3.11122e-06 -7.69449e-07 0)
(-3.12133e-06 -1.04321e-06 0)
(-3.10807e-06 -1.32616e-06 0)
(-3.06934e-06 -1.6164e-06 0)
(-3.00315e-06 -1.91155e-06 0)
(-2.90772e-06 -2.20876e-06 0)
(-2.78158e-06 -2.50467e-06 0)
(-2.62369e-06 -2.79541e-06 0)
(-2.4336e-06 -3.07665e-06 0)
(-2.21158e-06 -3.3437e-06 0)
(-1.95872e-06 -3.59159e-06 0)
(-1.67708e-06 -3.81528e-06 0)
(-1.3697e-06 -4.00989e-06 0)
(-1.04063e-06 -4.17094e-06 0)
(-6.94839e-07 -4.29467e-06 0)
(-3.3804e-07 -4.37831e-06 0)
(2.35548e-08 -4.42037e-06 0)
(3.83574e-07 -4.42078e-06 0)
(-1.0423e-07 2.43537e-06 0)
(-3.11005e-07 2.42395e-06 0)
(-5.14572e-07 2.40155e-06 0)
(-7.1523e-07 2.36842e-06 0)
(-9.13219e-07 2.32469e-06 0)
(-1.10872e-06 2.27032e-06 0)
(-1.30183e-06 2.20521e-06 0)
(-1.49259e-06 2.12911e-06 0)
(-1.68094e-06 2.04171e-06 0)
(-1.86674e-06 1.94259e-06 0)
(-2.04974e-06 1.83127e-06 0)
(-2.22957e-06 1.70721e-06 0)
(-2.40574e-06 1.5698e-06 0)
(-2.57761e-06 1.41838e-06 0)
(-2.74438e-06 1.25228e-06 0)
(-2.90508e-06 1.0708e-06 0)
(-3.05855e-06 8.73231e-07 0)
(-3.20338e-06 6.58911e-07 0)
(-3.33797e-06 4.27226e-07 0)
(-3.46042e-06 1.77662e-07 0)
(-3.56859e-06 -9.01534e-08 0)
(-3.66006e-06 -3.76393e-07 0)
(-3.7321e-06 -6.80965e-07 0)
(-3.78174e-06 -1.00343e-06 0)
(-3.80572e-06 -1.34293e-06 0)
(-3.80062e-06 -1.69805e-06 0)
(-3.76285e-06 -2.06675e-06 0)
(-3.68881e-06 -2.44624e-06 0)
(-3.57503e-06 -2.83287e-06 0)
(-3.41832e-06 -3.22203e-06 0)
(-3.21606e-06 -3.60809e-06 0)
(-2.96646e-06 -3.9844e-06 0)
(-2.66885e-06 -4.34333e-06 0)
(-2.32405e-06 -4.67642e-06 0)
(-1.93465e-06 -4.9747e-06 0)
(-1.50529e-06 -5.22909e-06 0)
(-1.04277e-06 -5.43102e-06 0)
(-5.55941e-07 -5.57317e-06 0)
(-5.54157e-08 -5.65031e-06 0)
(4.47109e-07 -5.6601e-06 0)
(-1.12384e-07 2.7482e-06 0)
(-3.35457e-07 2.73742e-06 0)
(-5.55427e-07 2.71625e-06 0)
(-7.7283e-07 2.68489e-06 0)
(-9.88138e-07 2.64339e-06 0)
(-1.20175e-06 2.59163e-06 0)
(-1.41398e-06 2.5294e-06 0)
(-1.62509e-06 2.45635e-06 0)
(-1.83523e-06 2.37201e-06 0)
(-2.04447e-06 2.27582e-06 0)
(-2.25278e-06 2.16709e-06 0)
(-2.46002e-06 2.04506e-06 0)
(-2.66592e-06 1.90882e-06 0)
(-2.87005e-06 1.75742e-06 0)
(-3.07183e-06 1.58978e-06 0)
(-3.27048e-06 1.40475e-06 0)
(-3.46497e-06 1.20109e-06 0)
(-3.65405e-06 9.7751e-07 0)
(-3.83615e-06 7.32675e-07 0)
(-4.00935e-06 4.65234e-07 0)
(-4.17137e-06 1.73864e-07 0)
(-4.31945e-06 -1.4268e-07 0)
(-4.45038e-06 -4.85494e-07 0)
(-4.56039e-06 -8.55432e-07 0)
(-4.64515e-06 -1.253e-06 0)
(-4.69972e-06 -1.67818e-06 0)
(-4.71859e-06 -2.13031e-06 0)
(-4.69567e-06 -2.60779e-06 0)
(-4.62445e-06 -3.1079e-06 0)
(-4.49812e-06 -3.62646e-06 0)
(-4.30988e-06 -4.15756e-06 0)
(-4.05334e-06 -4.69321e-06 0)
(-3.7231e-06 -5.22311e-06 0)
(-3.31543e-06 -5.73441e-06 0)
(-2.82922e-06 -6.21175e-06 0)
(-2.26692e-06 -6.63753e-06 0)
(-1.6356e-06 -6.99266e-06 0)
(-9.47712e-07 -7.25798e-06 0)
(-2.21401e-07 -7.41638e-06 0)
(5.20219e-07 -7.45586e-06 0)
(-1.19929e-07 3.0837e-06 0)
(-3.58099e-07 3.07396e-06 0)
(-5.93313e-07 3.05482e-06 0)
(-8.26364e-07 3.02641e-06 0)
(-1.05797e-06 2.98871e-06 0)
(-1.28877e-06 2.94156e-06 0)
(-1.51933e-06 2.88464e-06 0)
(-1.75016e-06 2.81752e-06 0)
(-1.98167e-06 2.73963e-06 0)
(-2.2142e-06 2.65028e-06 0)
(-2.44803e-06 2.54864e-06 0)
(-2.68331e-06 2.43374e-06 0)
(-2.92012e-06 2.30448e-06 0)
(-3.15837e-06 2.15961e-06 0)
(-3.39787e-06 1.9977e-06 0)
(-3.63823e-06 1.81718e-06 0)
(-3.87884e-06 1.6163e-06 0)
(-4.11884e-06 1.39312e-06 0)
(-4.35709e-06 1.14552e-06 0)
(-4.59205e-06 8.7121e-07 0)
(-4.82172e-06 5.67707e-07 0)
(-5.04358e-06 2.32389e-07 0)
(-5.25445e-06 -1.37487e-07 0)
(-5.45039e-06 -5.44718e-07 0)
(-5.62653e-06 -9.92072e-07 0)
(-5.77694e-06 -1.48215e-06 0)
(-5.89446e-06 -2.01719e-06 0)
(-5.97056e-06 -2.59883e-06 0)
(-5.99518e-06 -3.22772e-06 0)
(-5.95668e-06 -3.90306e-06 0)
(-5.84184e-06 -4.62198e-06 0)
(-5.63609e-06 -5.37873e-06 0)
(-5.32395e-06 -6.16367e-06 0)
(-4.88995e-06 -6.9621e-06 0)
(-4.32014e-06 -7.75287e-06 0)
(-3.60435e-06 -8.507e-06 0)
(-2.73958e-06 -9.1865e-06 0)
(-1.73438e-06 -9.74421e-06 0)
(-6.13908e-07 -1.01257e-05 0)
(5.75668e-07 -1.02759e-05 0)
(-1.26564e-07 3.43967e-06 0)
(-3.78026e-07 3.43139e-06 0)
(-6.26707e-07 3.41509e-06 0)
(-8.73657e-07 3.39085e-06 0)
(-1.11984e-06 3.35859e-06 0)
(-1.36615e-06 3.31811e-06 0)
(-1.61342e-06 3.26905e-06 0)
(-1.8624e-06 3.21093e-06 0)
(-2.11382e-06 3.14314e-06 0)
(-2.36832e-06 3.06491e-06 0)
(-2.62653e-06 2.97536e-06 0)
(-2.88898e-06 2.8734e-06 0)
(-3.15618e-06 2.75783e-06 0)
(-3.42853e-06 2.62721e-06 0)
(-3.70637e-06 2.47991e-06 0)
(-3.9899e-06 2.31406e-06 0)
(-4.27921e-06 2.12753e-06 0)
(-4.57419e-06 1.91788e-06 0)
(-4.87451e-06 1.68237e-06 0)
(-5.17955e-06 1.41784e-06 0)
(-5.4883e-06 1.12074e-06 0)
(-5.79927e-06 7.87068e-07 0)
(-6.11033e-06 4.12304e-07 0)
(-6.41855e-06 -8.60056e-09 0)
(-6.71997e-06 -4.81257e-07 0)
(-7.00928e-06 -1.01184e-06 0)
(-7.2795e-06 -1.60704e-06 0)
(-7.52152e-06 -2.27399e-06 0)
(-7.72353e-06 -3.02003e-06 0)
(-7.8704e-06 -3.85243e-06 0)
(-7.94287e-06 -4.7778e-06 0)
(-7.91669e-06 -5.80124e-06 0)
(-7.76171e-06 -6.92495e-06 0)
(-7.44111e-06 -8.14621e-06 0)
(-6.91111e-06 -9.45406e-06 0)
(-6.12178e-06 -1.08243e-05 0)
(-5.02058e-06 -1.22112e-05 0)
(-3.56134e-06 -1.35348e-05 0)
(-1.72414e-06 -1.46593e-05 0)
(4.43241e-07 -1.5357e-05 0)
(-1.31991e-07 3.81307e-06 0)
(-3.9434e-07 3.80664e-06 0)
(-6.54092e-07 3.79395e-06 0)
(-9.12535e-07 3.77504e-06 0)
(-1.17087e-06 3.7498e-06 0)
(-1.43022e-06 3.71801e-06 0)
(-1.69166e-06 3.67931e-06 0)
(-1.95623e-06 3.63322e-06 0)
(-2.22491e-06 3.57915e-06 0)
(-2.49871e-06 3.51638e-06 0)
(-2.77858e-06 3.44401e-06 0)
(-3.0655e-06 3.36104e-06 0)
(-3.36043e-06 3.26624e-06 0)
(-3.66433e-06 3.1582e-06 0)
(-3.97818e-06 3.03528e-06 0)
(-4.30294e-06 2.89557e-06 0)
(-4.63956e-06 2.73684e-06 0)
(-4.98896e-06 2.5565e-06 0)
(-5.35201e-06 2.35152e-06 0)
(-5.72952e-06 2.11836e-06 0)
(-6.12214e-06 1.85288e-06 0)
(-6.53032e-06 1.55023e-06 0)
(-6.9542e-06 1.20468e-06 0)
(-7.39349e-06 8.09494e-07 0)
(-7.84724e-06 3.5672e-07 0)
(-8.31359e-06 -1.63041e-07 0)
(-8.78936e-06 -7.60906e-07 0)
(-9.26952e-06 -1.45002e-06 0)
(-9.74649e-06 -2.24591e-06 0)
(-1.0209e-05 -3.16692e-06 0)
(-1.06407e-05 -4.23462e-06 0)
(-1.1018e-05 -5.47442e-06 0)
(-1.13069e-05 -6.91619e-06 0)
(-1.1458e-05 -8.59519e-06 0)
(-1.1399e-05 -1.05536e-05 0)
(-1.10218e-05 -1.28431e-05 0)
(-1.01606e-05 -1.55298e-05 0)
(-8.55349e-06 -1.87041e-05 0)
(-5.77334e-06 -2.24989e-05 0)
(-1.10336e-06 -2.71254e-05 0)
(-1.35937e-07 4.2e-06 0)
(-4.06215e-07 4.19576e-06 0)
(-6.74069e-07 4.18737e-06 0)
(-9.40987e-07 4.17482e-06 0)
(-1.20836e-06 4.158e-06 0)
(-1.47752e-06 4.13668e-06 0)
(-1.74975e-06 4.11056e-06 0)
(-2.02632e-06 4.07923e-06 0)
(-2.30847e-06 4.04219e-06 0)
(-2.59748e-06 3.99881e-06 0)
(-2.89465e-06 3.94837e-06 0)
(-3.20134e-06 3.89001e-06 0)
(-3.51896e-06 3.8227e-06 0)
(-3.849e-06 3.74525e-06 0)
(-4.19307e-06 3.65628e-06 0)
(-4.55289e-06 3.55412e-06 0)
(-4.93032e-06 3.43686e-06 0)
(-5.32738e-06 3.30222e-06 0)
(-5.7463e-06 3.14749e-06 0)
(-6.1895e-06 2.96947e-06 0)
(-6.65966e-06 2.76433e-06 0)
(-7.1597e-06 2.52747e-06 0)
(-7.69286e-06 2.25334e-06 0)
(-8.26265e-06 1.93522e-06 0)
(-8.87293e-06 1.56489e-06 0)
(-9.52783e-06 1.13226e-06 0)
(-1.02317e-05 6.24878e-07 0)
(-1.09891e-05 2.72963e-08 0)
(-1.18045e-05 -6.79748e-07 0)
(-1.26823e-05 -1.52033e-06 0)
(-1.36263e-05 -2.52459e-06 0)
(-1.46399e-05 -3.73017e-06 0)
(-1.57264e-05 -5.18385e-06 0)
(-1.68909e-05 -6.9431e-06 0)
(-1.81449e-05 -9.07724e-06 0)
(-1.95179e-05 -1.16672e-05 0)
(-2.1082e-05 -1.48021e-05 0)
(-2.30027e-05 -1.85706e-05 0)
(-2.56401e-05 -2.30398e-05 0)
(-2.97577e-05 -2.81685e-05 0)
(-1.38175e-07 4.59587e-06 0)
(-4.12964e-07 4.59408e-06 0)
(-6.85473e-07 4.59052e-06 0)
(-9.5733e-07 4.58514e-06 0)
(-1.23007e-06 4.57781e-06 0)
(-1.50516e-06 4.56838e-06 0)
(-1.78404e-06 4.55659e-06 0)
(-2.06814e-06 4.54216e-06 0)
(-2.3589e-06 4.52475e-06 0)
(-2.6578e-06 4.50392e-06 0)
(-2.9664e-06 4.47919e-06 0)
(-3.28632e-06 4.44999e-06 0)
(-3.61933e-06 4.41565e-06 0)
(-3.96733e-06 4.37539e-06 0)
(-4.3324e-06 4.32829e-06 0)
(-4.71687e-06 4.2733e-06 0)
(-5.1233e-06 4.20917e-06 0)
(-5.55463e-06 4.1344e-06 0)
(-6.01414e-06 4.04726e-06 0)
(-6.50564e-06 3.94567e-06 0)
(-7.0335e-06 3.82712e-06 0)
(-7.60282e-06 3.68864e-06 0)
(-8.21957e-06 3.52657e-06 0)
(-8.89081e-06 3.33648e-06 0)
(-9.62495e-06 3.11291e-06 0)
(-1.04321e-05 2.84904e-06 0)
(-1.13243e-05 2.53631e-06 0)
(-1.23162e-05 2.16383e-06 0)
(-1.34256e-05 1.71754e-06 0)
(-1.46734e-05 1.17907e-06 0)
(-1.60844e-05 5.24077e-07 0)
(-1.76864e-05 -2.80133e-07 0)
(-1.95082e-05 -1.27807e-06 0)
(-2.15746e-05 -2.53105e-06 0)
(-2.38941e-05 -4.12452e-06 0)
(-2.64354e-05 -6.17867e-06 0)
(-2.90801e-05 -8.86399e-06 0)
(-3.1533e-05 -1.24239e-05 0)
(-3.31561e-05 -1.72076e-05 0)
(-3.12518e-05 -2.28568e-05 0)
(-1.38542e-07 4.99549e-06 0)
(-4.14097e-07 4.99633e-06 0)
(-6.87472e-07 4.99793e-06 0)