/*--------------------------------*- C++ -*----------------------------------*\
  =========                 |
  \\      /  F ield         | OpenFOAM: The Open Source CFD Toolbox
   \\    /   O peration     | Website:  https://openfoam.org
    \\  /    A nd           | Version:  10
     \\/     M anipulation  |
\*---------------------------------------------------------------------------*/
FoamFile
{
    format      ascii;
    class       surfaceScalarField;
    location    "0.8";
    object      phi;
}
// * * * * * * * * * * * * * * * * * * * * * * * * * * * * * * * * * * * * * //

dimensions      [0 3 -1 0 0 0 0];

internalField   nonuniform List<scalar> 
24170
(
1.3826e-09
-1.3826e-09
2.56637e-09
-1.18378e-09
3.50436e-09
-9.37983e-10
4.21429e-09
-7.09928e-10
4.74186e-09
-5.2757e-10
5.13641e-09
-3.94556e-10
5.44048e-09
-3.04067e-10
5.68753e-09
-2.4705e-10
5.90331e-09
-2.15783e-10
6.10833e-09
-2.05015e-10
6.32057e-09
-2.12246e-10
6.55863e-09
-2.3806e-10
6.84597e-09
-2.87334e-10
7.2188e-09
-3.72828e-10
7.74488e-09
-5.26085e-10
8.58131e-09
-8.36431e-10
1.0216e-08
-1.63472e-09
-4.70767e-09
1.49237e-08
1.586e-09
-2.9686e-09
2.93763e-09
-2.53541e-09
4.00179e-09
-2.00213e-09
4.80148e-09
-1.50963e-09
5.39148e-09
-1.11756e-09
5.82969e-09
-8.32765e-10
6.16537e-09
-6.39752e-10
6.43688e-09
-5.1856e-10
6.67343e-09
-4.52327e-10
6.89801e-09
-4.296e-10
7.13058e-09
-4.44816e-10
7.3914e-09
-4.98876e-10
7.70547e-09
-6.01407e-10
8.11012e-09
-7.77476e-10
8.67092e-09
-1.08689e-09
9.51943e-09
-1.68495e-09
1.09241e-08
-3.03939e-09
-6.72702e-09
1.29435e-08
1.7829e-09
-4.7515e-09
3.29252e-09
-4.04503e-09
4.47044e-09
-3.18005e-09
5.347e-09
-2.38619e-09
5.98742e-09
-1.75798e-09
6.4587e-09
-1.30405e-09
6.81677e-09
-9.97823e-10
7.10452e-09
-8.06306e-10
7.35414e-09
-7.01951e-10
7.59062e-09
-6.66073e-10
7.83513e-09
-6.89326e-10
8.10852e-09
-7.72273e-10
8.43533e-09
-9.28217e-10
8.84944e-09
-1.19158e-09
9.4026e-09
-1.64004e-09
1.01705e-08
-2.45288e-09
1.11899e-08
-4.05872e-09
-7.38015e-09
1.1843e-08
2.00155e-09
-6.75305e-09
3.68141e-09
-5.72489e-09
4.97637e-09
-4.47501e-09
5.92773e-09
-3.33755e-09
6.61425e-09
-2.4445e-09
7.1138e-09
-1.80359e-09
7.48967e-09
-1.3737e-09
7.78943e-09
-1.10607e-09
8.0481e-09
-9.60621e-10
8.29224e-09
-9.10216e-10
8.54369e-09
-9.40776e-10
8.82287e-09
-1.05145e-09
9.15189e-09
-1.25724e-09
9.55735e-09
-1.59704e-09
1.007e-08
-2.15265e-09
1.07052e-08
-3.08812e-09
1.13536e-08
-4.70708e-09
-7.39013e-09
1.13635e-08
2.25597e-09
-9.00902e-09
4.12677e-09
-7.59569e-09
5.54553e-09
-5.89378e-09
6.57024e-09
-4.36227e-09
7.29796e-09
-3.17222e-09
7.82e-09
-2.32563e-09
8.20814e-09
-1.76184e-09
8.51484e-09
-1.41276e-09
8.77776e-09
-1.22354e-09
9.02462e-09
-1.15708e-09
9.27722e-09
-1.19338e-09
9.55447e-09
-1.3287e-09
9.87432e-09
-1.57708e-09
1.02534e-08
-1.97611e-09
1.06995e-08
-2.59876e-09
1.11806e-08
-3.56921e-09
1.15288e-08
-5.05528e-09
-7.11561e-09
1.12543e-08
2.56139e-09
-1.15704e-08
4.65129e-09
-9.68559e-09
6.20182e-09
-7.44431e-09
7.29667e-09
-5.45712e-09
8.05803e-09
-3.93358e-09
8.59427e-09
-2.86187e-09
8.98697e-09
-2.15454e-09
9.29373e-09
-1.71953e-09
9.55457e-09
-1.48437e-09
9.7978e-09
-1.40031e-09
1.00444e-08
-1.44e-09
1.03108e-08
-1.59507e-09
1.06094e-08
-1.87567e-09
1.09459e-08
-2.31263e-09
1.13081e-08
-2.961e-09
1.1636e-08
-3.89708e-09
1.17621e-08
-5.18139e-09
-6.72553e-09
1.1372e-08
2.93829e-09
-1.45087e-08
5.2838e-09
-1.20311e-08
6.97361e-09
-9.13412e-09
8.1314e-09
-6.6149e-09
8.91438e-09
-4.71656e-09
9.4526e-09
-3.40009e-09
9.83904e-09
-2.54099e-09
1.01365e-08
-2.01702e-09
1.03869e-08
-1.73478e-09
1.06185e-08
-1.63186e-09
1.08505e-08
-1.67205e-09
1.1096e-08
-1.84056e-09
1.13613e-08
-2.14094e-09
1.16419e-08
-2.59325e-09
1.19116e-08
-3.23065e-09
1.21004e-08
-4.08594e-09
1.20704e-08
-5.15137e-09
-6.2957e-09
1.16406e-08
3.4165e-09
-1.79252e-08
6.06403e-09
-1.46786e-08
7.89768e-09
-1.09678e-08
9.10412e-09
-7.82134e-09
9.88976e-09
-5.50219e-09
1.04122e-08
-3.92254e-09
1.07774e-08
-2.90617e-09
1.10531e-08
-2.29275e-09
1.12824e-08
-1.96401e-09
1.14923e-08
-1.84177e-09
1.16997e-08
-1.87952e-09
1.19137e-08
-2.05448e-09
1.21343e-08
-2.36159e-09
1.23493e-08
-2.80822e-09
1.25249e-08
-3.40622e-09
1.25947e-08
-4.15574e-09
1.24578e-08
-5.01447e-09
-5.8581e-09
1.20202e-08
4.04178e-09
-2.1967e-08
7.04915e-09
-1.7686e-08
9.02353e-09
-1.29421e-08
1.02524e-08
-9.05017e-09
1.10113e-08
-6.26109e-09
1.14925e-08
-4.40375e-09
1.18159e-08
-3.22962e-09
1.20535e-08
-2.53038e-09
1.2248e-08
-2.1585e-09
1.24244e-08
-2.01811e-09
1.2596e-08
-2.05118e-09
1.27675e-08
-2.22592e-09
1.29336e-08
-2.52776e-09
1.30769e-08
-2.95146e-09
1.3162e-08
-3.49134e-09
1.31333e-08
-4.12704e-09
1.29236e-08
-4.80482e-09
-5.42483e-09
1.24904e-08
4.8875e-09
-2.68545e-08
8.324e-09
-2.11225e-08
1.04191e-08
-1.50372e-08
1.16239e-08
-1.0255e-08
1.23112e-08
-6.94836e-09
1.27151e-08
-4.80767e-09
1.29694e-08
-3.48391e-09
1.3148e-08
-2.70895e-09
1.32911e-08
-2.30163e-09
1.34199e-08
-2.14693e-09
1.35435e-08
-2.17481e-09
1.36618e-08
-2.3442e-09
1.37654e-08
-2.63134e-09
1.38341e-08
-3.02014e-09
1.38353e-08
-3.49257e-09
1.37264e-08
-4.01816e-09
1.34665e-08
-4.5449e-09
-4.99923e-09
1.30409e-08
6.07704e-09
-3.29315e-08
1.00178e-08
-2.50632e-08
1.21783e-08
-1.71978e-08
1.32794e-08
-1.1356e-08
1.38273e-08
-7.49631e-09
1.41038e-08
-5.0842e-09
1.4253e-08
-3.63311e-09
1.43464e-08
-2.80228e-09
1.44183e-08
-2.37357e-09
1.44839e-08
-2.21252e-09
1.45467e-08
-2.23758e-09
1.46018e-08
-2.39931e-09
1.46365e-08
-2.66611e-09
1.46303e-08
-3.01392e-09
1.45553e-08
-3.41759e-09
1.43812e-08
-3.84404e-09
1.40853e-08
-4.24894e-09
-4.58089e-09
1.36669e-08
6.49751e-09
-3.9429e-08
1.02664e-08
-2.88321e-08
1.20458e-08
-1.89772e-08
1.27913e-08
-1.21015e-08
1.30681e-08
-7.7731e-09
1.31495e-08
-5.16562e-09
1.31579e-08
-3.64146e-09
1.31454e-08
-2.78981e-09
1.31326e-08
-2.3608e-09
1.31251e-08
-2.20501e-09
1.31204e-08
-2.23284e-09
1.31104e-08
-2.38933e-09
1.30825e-08
-2.63818e-09
1.30197e-08
-2.95111e-09
1.29026e-08
-3.30047e-09
1.27131e-08
-3.65456e-09
1.2441e-08
-3.97687e-09
-4.2306e-09
1.20907e-08
9.66951e-09
-4.90985e-08
1.44562e-08
-3.36188e-08
1.62442e-08
-2.07653e-08
1.67256e-08
-1.25829e-08
1.67262e-08
-7.77371e-09
1.65826e-08
-5.02195e-09
1.6419e-08
-3.47786e-09
1.62757e-08
-2.64652e-09
1.61605e-08
-2.24567e-09
1.60687e-08
-2.11316e-09
1.59896e-08
-2.15374e-09
1.59093e-08
-2.30901e-09
1.58111e-08
-2.54003e-09
1.56768e-08
-2.81677e-09
1.54881e-08
-3.11186e-09
1.52312e-08
-3.39762e-09
1.49006e-08
-3.64631e-09
-3.83355e-09
1.45036e-08
1.56297e-08
-6.47282e-08
2.13715e-08
-3.93606e-08
2.25339e-08
-2.19277e-08
2.22333e-08
-1.22823e-08
2.16166e-08
-7.15706e-09
2.10306e-08
-4.43589e-09
2.05532e-08
-3.0005e-09
2.01822e-08
-2.27546e-09
1.98946e-08
-1.95807e-09
1.96647e-08
-1.88331e-09
1.94681e-08
-1.95712e-09
1.92817e-08
-2.12262e-09
1.90838e-08
-2.34213e-09
1.88544e-08
-2.58742e-09
1.85771e-08
-2.83454e-09
1.82414e-08
-3.06185e-09
1.78454e-08
-3.25035e-09
-3.38551e-09
1.73974e-08
2.86182e-08
-9.33464e-08
3.36483e-08
-4.43906e-08
3.22581e-08
-2.05376e-08
3.00237e-08
-1.00478e-08
2.81576e-08
-5.29102e-09
2.67725e-08
-3.05077e-09
2.57671e-08
-1.99507e-09
2.503e-08
-1.53836e-09
2.44744e-08
-1.40251e-09
2.40365e-08
-1.44539e-09
2.36685e-08
-1.58914e-09
2.33337e-08
-1.78776e-09
2.30029e-08
-2.01136e-09
2.26537e-08
-2.23822e-09
2.22703e-08
-2.4511e-09
2.18443e-08
-2.6359e-09
2.13757e-08
-2.7817e-09
-2.88145e-09
2.08716e-08
6.32165e-08
-1.56563e-07
5.67665e-08
-3.79406e-08
4.72437e-08
-1.10148e-08
4.07689e-08
-3.57294e-09
3.66571e-08
-1.17928e-09
3.39963e-08
-3.89994e-10
3.2208e-08
-2.06764e-10
3.0952e-08
-2.82308e-10
3.00258e-08
-4.76369e-10
2.93046e-08
-7.2415e-10
2.87072e-08
-9.9169e-10
2.81785e-08
-1.25907e-09
2.76803e-08
-1.51314e-09
2.71862e-08
-1.74416e-09
2.66797e-08
-1.94459e-09
2.61526e-08
-2.10876e-09
2.56039e-08
-2.23307e-09
-2.31624e-09
2.50387e-08
1.83639e-07
1.59638e-07
9.76195e-08
4.80793e-08
6.73498e-08
1.92548e-08
5.39195e-08
9.85731e-09
4.68268e-08
5.91345e-09
4.26015e-08
3.83527e-09
3.98623e-08
2.53242e-09
3.79677e-08
1.61238e-09
3.65808e-08
9.10442e-10
3.55086e-08
3.48094e-10
3.46315e-08
-1.14605e-10
3.38714e-08
-4.9899e-10
3.31795e-08
-8.21181e-10
3.25236e-08
-1.08833e-09
3.18842e-08
-1.3052e-09
3.12508e-08
-1.47535e-09
3.06198e-08
-1.60207e-09
-1.68891e-09
2.99925e-08
7.72754e-08
8.23624e-08
7.5612e-08
4.97428e-08
6.5706e-08
2.91609e-08
5.77874e-08
1.77759e-08
5.23292e-08
1.13716e-08
4.86037e-08
7.56072e-09
4.59942e-08
5.14191e-09
4.40957e-08
3.51094e-09
4.26531e-08
2.35304e-09
4.15046e-08
1.49653e-09
4.05467e-08
8.43335e-10
3.9713e-08
3.34762e-10
3.89565e-08
-6.47205e-11
3.8244e-08
-3.75798e-10
3.75588e-08
-6.20064e-10
3.68919e-08
-8.08399e-10
3.62393e-08
-9.49446e-10
-1.05028e-09
3.56006e-08
3.60581e-08
4.63043e-08
5.02907e-08
3.55101e-08
5.40521e-08
2.53994e-08
5.39622e-08
1.78658e-08
5.27236e-08
1.26102e-08
5.13022e-08
8.9822e-09
4.99956e-08
6.44842e-09
4.88637e-08
4.64291e-09
4.78891e-08
3.3276e-09
4.70363e-08
2.34932e-09
4.62709e-08
1.60881e-09
4.55649e-08
1.04073e-09
4.48989e-08
6.01226e-10
4.42632e-08
2.59997e-10
4.36477e-08
-4.61925e-12
4.3045e-08
-2.05664e-10
4.24539e-08
-3.58378e-10
-4.71603e-10
4.18752e-08
1.44162e-08
3.18881e-08
2.34525e-08
2.64738e-08
2.83058e-08
2.05461e-08
3.0706e-08
1.54657e-08
3.18074e-08
1.15089e-08
3.22479e-08
8.54163e-09
3.23554e-08
6.3409e-09
3.2293e-08
4.70537e-09
3.21405e-08
3.48007e-09
3.19371e-08
2.55271e-09
3.17021e-08
1.84379e-09
3.14456e-08
1.29729e-09
3.11733e-08
8.73542e-10
3.08892e-08
5.44086e-10
3.05964e-08
2.88178e-10
3.03003e-08
9.04564e-11
3.00022e-08
-6.02926e-11
-1.73242e-10
2.97038e-08
8.65476e-09
2.32333e-08
1.50985e-08
2.00301e-08
1.93849e-08
1.62597e-08
2.2093e-08
1.27575e-08
2.37688e-08
9.83311e-09
2.47969e-08
7.51351e-09
2.54211e-08
5.71667e-09
2.57896e-08
4.33695e-09
2.59913e-08
3.27833e-09
2.60806e-08
2.46344e-09
2.60912e-08
1.83317e-09
2.60451e-08
1.3434e-09
2.59572e-08
9.61453e-10
2.58381e-08
6.6312e-10
2.5696e-08
4.30298e-10
2.55372e-08
2.49308e-10
2.53672e-08
1.0966e-10
3.08112e-12
2.51909e-08
5.84822e-09
1.73851e-08
1.05801e-08
1.52983e-08
1.40859e-08
1.27538e-08
1.65689e-08
1.02745e-08
1.82928e-08
8.10923e-09
1.94813e-08
6.32499e-09
2.02985e-08
4.89951e-09
2.08573e-08
3.77808e-09
2.12342e-08
2.90151e-09
2.14804e-08
2.21726e-09
2.1631e-08
1.68249e-09
2.17108e-08
1.26369e-09
2.17371e-08
9.35118e-10
2.1723e-08
6.7717e-10
2.16785e-08
4.74878e-10
2.1611e-08
3.16752e-10
2.15268e-08
1.93886e-10
9.92948e-11
2.14306e-08
4.25827e-09
1.31268e-08
7.86347e-09
1.16931e-08
1.07047e-08
9.91266e-09
1.28533e-08
8.12586e-09
1.44439e-08
6.51866e-09
1.56096e-08
5.1593e-09
1.64598e-08
4.04931e-09
1.70774e-08
3.16052e-09
1.75228e-08
2.45601e-09
1.78401e-08
1.90005e-09
1.80607e-08
1.46186e-09
1.82079e-08
1.11642e-09
1.82991e-08
8.4397e-10
1.83472e-08
6.29102e-10
1.83622e-08
4.59869e-10
1.83519e-08
3.26987e-10
1.83226e-08
2.23197e-10
1.42787e-10
1.82791e-08
3.25638e-09
9.87045e-09
6.08844e-09
8.86102e-09
8.40652e-09
7.59458e-09
1.02329e-08
6.29944e-09
1.16403e-08
5.11132e-09
1.27114e-08
4.0882e-09
1.35209e-08
3.2398e-09
1.41296e-08
2.55175e-09
1.4585e-08
2.00069e-09
1.49228e-08
1.56222e-09
1.51703e-08
1.21434e-09
1.53481e-08
9.38654e-10
1.54718e-08
7.20265e-10
1.55535e-08
5.47383e-10
1.56026e-08
4.1074e-10
1.56266e-08
3.03065e-10
1.56311e-08
2.18635e-10
1.52931e-10
1.5621e-08
2.57376e-09
7.29668e-09
4.85027e-09
6.58452e-09
6.75948e-09
5.68536e-09
8.30452e-09
4.75441e-09
9.52691e-09
3.88892e-09
1.04808e-08
3.13432e-09
1.12188e-08
2.50175e-09
1.17866e-08
1.98402e-09
1.2221e-08
1.56622e-09
1.25515e-08
1.23172e-09
1.28009e-08
9.64999e-10
1.29868e-08
7.52756e-10
1.3123e-08
5.8405e-10
1.32203e-08
4.501e-10
1.32871e-08
3.43939e-10
1.33301e-08
2.60056e-10
1.33546e-08
1.94091e-10
1.4258e-10
1.3365e-08
2.08015e-09
5.21654e-09
3.94045e-09
4.72422e-09
5.52583e-09
4.09998e-09
6.83197e-09
3.44827e-09
7.88402e-09
2.83688e-09
8.71913e-09
2.29921e-09
9.37584e-09
1.84504e-09
9.88899e-09
1.47087e-09
1.02879e-08
1.16726e-09
1.05966e-08
9.23073e-10
1.0834e-08
7.27632e-10
1.10151e-08
5.71622e-10
1.11518e-08
4.4729e-10
1.12536e-08
3.48352e-10
1.13278e-08
2.69781e-10
1.13802e-08
2.07582e-10
1.14157e-08
1.58575e-10
1.20222e-10
1.14381e-08
1.70589e-09
3.51064e-09
3.2428e-09
3.18731e-09
4.56676e-09
2.77602e-09
5.67084e-09
2.34419e-09
6.57117e-09
1.93655e-09
7.29445e-09
1.57593e-09
7.86981e-09
1.26968e-09
8.32449e-09
1.01619e-09
8.68207e-09
8.09688e-10
8.9621e-09
6.43039e-10
9.18044e-09
5.09288e-10
9.34979e-09
4.02275e-10
9.48025e-09
3.16828e-10
9.57988e-09
2.48727e-10
9.65508e-09
1.94577e-10
9.711e-09
1.51665e-10
9.75175e-09
1.17825e-10
9.13209e-11
9.78065e-09
1.41033e-09
2.10032e-09
2.68737e-09
1.91028e-09
3.79551e-09
1.66788e-09
4.72733e-09
1.41236e-09
5.49375e-09
1.17013e-09
6.11472e-09
9.54966e-10
6.61284e-09
7.71551e-10
7.0098e-09
6.19238e-10
7.32468e-09
4.94799e-10
7.57359e-09
3.94133e-10
7.7697e-09
3.13177e-10
7.92368e-09
2.48299e-10
8.04408e-09
1.96431e-10
8.13775e-09
1.55056e-10
8.21018e-09
1.2214e-10
8.26579e-09
9.60544e-11
8.30813e-09
7.54917e-11
5.94033e-11
8.34005e-09
1.16607e-09
9.3424e-10
2.22564e-09
8.50712e-10
3.14963e-09
7.43881e-10
3.93106e-09
6.30939e-10
4.57764e-09
5.23554e-10
5.10471e-09
4.27898e-10
5.53011e-09
3.46152e-10
5.87123e-09
2.78114e-10
6.14361e-09
2.22418e-10
6.36046e-09
1.77289e-10
6.53269e-09
1.40947e-10
6.66919e-09
1.11795e-10
6.77715e-09
8.8474e-11
6.86233e-09
6.9868e-11
6.9294e-09
5.50716e-11
6.9821e-09
4.33577e-11
7.02345e-09
3.41426e-11
2.69602e-11
7.05589e-09
9.3424e-10
1.78495e-09
2.52883e-09
3.15977e-09
3.68333e-09
4.11122e-09
4.45738e-09
4.73549e-09
4.95791e-09
5.1352e-09
5.27614e-09
5.38794e-09
5.47641e-09
5.54628e-09
5.60135e-09
5.64471e-09
5.67885e-09
5.70581e-09
2.25064e-10
-2.25064e-10
4.51486e-10
-2.26423e-10
6.79071e-10
-2.27585e-10
9.07611e-10
-2.2854e-10
1.13689e-09
-2.2928e-10
1.36669e-09
-2.29794e-10
1.59676e-09
-2.30076e-10
1.82688e-09
-2.30114e-10
2.05678e-09
-2.29904e-10
2.28621e-09
-2.29436e-10
2.51492e-09
-2.28706e-10
2.74263e-09
-2.27711e-10
2.96908e-09
-2.26448e-10
3.194e-09
-2.24917e-10
3.41712e-09
-2.23121e-10
3.63818e-09
-2.21063e-10
3.85693e-09
-2.1875e-10
4.07312e-09
-2.1619e-10
4.28651e-09
-2.13393e-10
4.49689e-09
-2.10371e-10
4.70402e-09
-2.07138e-10
4.90773e-09
-2.03708e-10
5.10783e-09
-2.00096e-10
5.30415e-09
-1.96319e-10
5.49654e-09
-1.92393e-10
5.68488e-09
-1.88336e-10
5.86904e-09
-1.84163e-10
6.04893e-09
-1.79893e-10
6.22447e-09
-1.7554e-10
6.39559e-09
-1.71122e-10
6.56225e-09
-1.66653e-10
6.72439e-09
-1.62147e-10
6.88201e-09
-1.57618e-10
7.03509e-09
-1.53079e-10
7.18363e-09
-1.48541e-10
7.32765e-09
-1.44017e-10
7.46716e-09
-1.39514e-10
7.60221e-09
-1.35044e-10
7.73282e-09
-1.30614e-10
7.85905e-09
-1.26231e-10
7.98095e-09
-1.21903e-10
8.09859e-09
-1.17634e-10
8.21202e-09
-1.13431e-10
8.32132e-09
-1.09299e-10
8.42656e-09
-1.05239e-10
8.52782e-09
-1.01258e-10
8.62517e-09
-9.7356e-11
8.71871e-09
-9.35368e-11
8.80851e-09
-8.98018e-11
8.89466e-09
-8.6153e-11
8.97725e-09
-8.25911e-11
9.05637e-09
-7.91171e-11
9.1321e-09
-7.57315e-11
9.20454e-09
-7.24347e-11
9.27376e-09
-6.92265e-11
9.33987e-09
-6.61067e-11
9.40295e-09
-6.30752e-11
9.46308e-09
-6.01309e-11
9.52035e-09
-5.72736e-11
9.57485e-09
-5.45022e-11
9.62667e-09
-5.18156e-11
9.67588e-09
-4.92128e-11
9.72257e-09
-4.66927e-11
9.76683e-09
-4.42538e-11
9.80872e-09
-4.18949e-11
9.84834e-09
-3.96145e-11
9.88575e-09
-3.74111e-11
9.92103e-09
-3.52832e-11
9.95426e-09
-3.32294e-11
9.98551e-09
-3.12476e-11
1.00148e-08
-2.93368e-11
1.00423e-08
-2.74949e-11
1.00681e-08
-2.57203e-11
1.00921e-08
-2.40114e-11
1.01144e-08
-2.23665e-11
1.01352e-08
-2.07839e-11
1.01545e-08
-1.92617e-11
1.01723e-08
-1.77986e-11
1.01887e-08
-1.63924e-11
1.02037e-08
-1.50419e-11
1.02175e-08
-1.3745e-11
1.023e-08
-1.25003e-11
1.02413e-08
-1.13062e-11
1.02514e-08
-1.01609e-11
1.02605e-08
-9.0629e-12
1.02685e-08
-8.01043e-12
1.02755e-08
-7.00221e-12
1.02815e-08
-6.03641e-12
1.02867e-08
-5.11172e-12
1.02909e-08
-4.22665e-12
1.02943e-08
-3.37955e-12
1.02968e-08
-2.56919e-12
1.02986e-08
-1.79397e-12
1.02997e-08
-1.05282e-12
1.03e-08
-3.44015e-13
1.02997e-08
3.33467e-13
1.02987e-08
9.80895e-13
1.02971e-08
1.59981e-12
1.02949e-08
2.19111e-12
1.02922e-08
2.75619e-12
1.02889e-08
3.29599e-12
1.02851e-08
3.81191e-12
1.02807e-08
4.30464e-12
1.0276e-08
4.77572e-12
1.02707e-08
5.22567e-12
1.02651e-08
5.65586e-12
1.0259e-08
6.06706e-12
1.02526e-08
6.46026e-12
1.02457e-08
6.83626e-12
1.02385e-08
7.19602e-12
1.0231e-08
7.54036e-12
1.02231e-08
7.87007e-12
1.02149e-08
8.18582e-12
1.02064e-08
8.48845e-12
1.01977e-08
8.77866e-12
1.01886e-08
9.05723e-12
1.01793e-08
9.32452e-12
1.01697e-08
9.58165e-12
1.01599e-08
9.82863e-12
1.01498e-08
1.00666e-11
1.01395e-08
1.02957e-11
1.0129e-08
1.05167e-11
1.01183e-08
1.073e-11
1.01073e-08
1.09362e-11
1.00962e-08
1.11357e-11
1.00849e-08
1.13287e-11
1.00733e-08
1.15161e-11
1.00616e-08
1.16979e-11
1.00498e-08
1.18747e-11
1.00377e-08
1.20469e-11
1.00255e-08
1.22146e-11
1.00131e-08
1.23785e-11
1.00006e-08
1.25385e-11
9.9879e-09
1.26952e-11
9.97505e-09
1.28489e-11
9.96205e-09
1.29998e-11
9.9489e-09
1.3148e-11
9.93561e-09
1.32941e-11
9.92217e-09
1.34382e-11
9.90859e-09
1.35805e-11
9.89487e-09
1.37213e-11
9.88101e-09
1.38609e-11
9.86701e-09
1.39996e-11
9.85287e-09
1.41375e-11
9.8386e-09
1.42751e-11
9.82418e-09
1.44126e-11
9.80963e-09
1.45503e-11
9.79495e-09
1.46887e-11
9.78012e-09
1.48283e-11
9.76515e-09
1.49697e-11
9.75003e-09
1.51132e-11
9.73477e-09
1.526e-11
9.71936e-09
1.54109e-11
9.7038e-09
1.5567e-11
9.68807e-09
1.573e-11
9.67217e-09
1.59016e-11
9.65608e-09
1.60844e-11
9.6398e-09
1.62813e-11
9.6233e-09
1.64962e-11
9.60657e-09
1.6734e-11
9.58957e-09
1.70014e-11
9.57226e-09
1.73065e-11
9.5546e-09
1.76604e-11
9.53652e-09
1.80772e-11
9.51795e-09
1.8576e-11
9.49877e-09
1.91819e-11
9.47884e-09
1.99287e-11
9.45797e-09
2.08623e-11
9.43593e-09
2.20464e-11
9.41236e-09
2.357e-11
9.3868e-09
2.55612e-11
9.35859e-09
2.82095e-11
9.32678e-09
3.18049e-11
9.28997e-09
3.68141e-11
9.24593e-09
4.40342e-11
9.19099e-09
5.49481e-11
9.11833e-09
7.26571e-11
9.01347e-09
1.04864e-10
8.83717e-09
1.76298e-10
4.01052e-10
8.43611e-09
2.25955e-10
-4.51019e-10
4.53273e-10
-4.53741e-10
6.81758e-10
-4.56069e-10
9.11201e-10
-4.57983e-10
1.14139e-09
-4.59465e-10
1.37209e-09
-4.60494e-10
1.60306e-09
-4.61054e-10
1.83407e-09
-4.61125e-10
2.06486e-09
-4.60692e-10
2.29517e-09
-4.5974e-10
2.52472e-09
-4.58258e-10
2.75324e-09
-4.56238e-10
2.98047e-09
-4.53676e-10
3.20613e-09
-4.50572e-10
3.42994e-09
-4.4693e-10
3.65163e-09
-4.4276e-10
3.87096e-09
-4.38075e-10
4.08766e-09
-4.32892e-10
4.3015e-09
-4.27233e-10
4.51225e-09
-4.21122e-10
4.7197e-09
-4.14587e-10
4.92365e-09
-4.07658e-10
5.12392e-09
-4.00368e-10
5.32035e-09
-3.92749e-10
5.5128e-09
-3.84835e-10
5.70112e-09
-3.76661e-10
5.88522e-09
-3.68261e-10
6.06499e-09
-3.59669e-10
6.24037e-09
-3.50917e-10
6.41129e-09
-3.42038e-10
6.57769e-09
-3.33061e-10
6.73956e-09
-3.24015e-10
6.89687e-09
-3.14928e-10
7.04962e-09
-3.05825e-10
7.19781e-09
-2.96729e-10
7.34145e-09
-2.87662e-10
7.48058e-09
-2.78644e-10
7.61523e-09
-2.69692e-10
7.74544e-09
-2.60824e-10
7.87126e-09
-2.52053e-10
7.99275e-09
-2.43394e-10
8.10998e-09
-2.34856e-10
8.223e-09
-2.26452e-10
8.33189e-09
-2.18189e-10
8.43672e-09
-2.10075e-10
8.53758e-09
-2.02117e-10
8.63454e-09
-1.9432e-10
8.7277e-09
-1.86689e-10
8.81712e-09
-1.79228e-10
8.90291e-09
-1.71938e-10
8.98514e-09
-1.64824e-10
9.06391e-09
-1.57886e-10
9.1393e-09
-1.51125e-10
9.21141e-09
-1.44541e-10
9.28032e-09
-1.38135e-10
9.34612e-09
-1.31906e-10
9.4089e-09
-1.25854e-10
9.46874e-09
-1.19976e-10
9.52574e-09
-1.14272e-10
9.57998e-09
-1.08739e-10
9.63154e-09
-1.03376e-10
9.6805e-09
-9.81804e-11
9.72696e-09
-9.31499e-11
9.77099e-09
-8.82818e-11
9.81267e-09
-8.35733e-11
9.85207e-09
-7.90217e-11
9.88929e-09
-7.46238e-11
9.92438e-09
-7.03769e-11
9.95743e-09
-6.62773e-11
9.9885e-09
-6.23223e-11
1.00177e-08
-5.85083e-11
1.0045e-08
-5.48322e-11
1.00706e-08
-5.12905e-11
1.00945e-08
-4.78798e-11
1.01167e-08
-4.45969e-11
1.01373e-08
-4.14382e-11
1.01565e-08
-3.84005e-11
1.01742e-08
-3.548e-11
1.01904e-08
-3.26739e-11
1.02054e-08
-2.99783e-11
1.0219e-08
-2.73902e-11
1.02314e-08
-2.4906e-11
1.02426e-08
-2.25228e-11
1.02527e-08
-2.02369e-11
1.02617e-08
-1.80454e-11
1.02696e-08
-1.59449e-11
1.02766e-08
-1.39327e-11
1.02825e-08
-1.20051e-11
1.02876e-08
-1.01596e-11
1.02917e-08
-8.3929e-12
1.02951e-08
-6.70226e-12
1.02976e-08
-5.08474e-12
1.02993e-08
-3.53763e-12
1.03003e-08
-2.05811e-12
1.03006e-08
-6.43517e-13
1.03003e-08
7.08761e-13
1.02992e-08
2.00136e-12
1.02976e-08
3.23648e-12
1.02954e-08
4.417e-12
1.02926e-08
5.5448e-12
1.02893e-08
6.62254e-12
1.02854e-08
7.65215e-12
1.02811e-08
8.63608e-12
1.02763e-08
9.57631e-12
1.0271e-08
1.04748e-11
1.02654e-08
1.13335e-11
1.02593e-08
1.21545e-11
1.02528e-08
1.29395e-11
1.02459e-08
1.36902e-11
1.02387e-08
1.44086e-11
1.02312e-08
1.50961e-11
1.02233e-08
1.57543e-11
1.02151e-08
1.63848e-11
1.02066e-08
1.69893e-11
1.01978e-08
1.75688e-11
1.01887e-08
1.8125e-11
1.01794e-08
1.86591e-11
1.01698e-08
1.91723e-11
1.016e-08
1.96658e-11
1.01499e-08
2.0141e-11
1.01396e-08
2.05987e-11
1.01291e-08
2.10402e-11
1.01183e-08
2.14662e-11
1.01074e-08
2.1878e-11
1.00962e-08
2.22765e-11
1.00849e-08
2.26624e-11
1.00734e-08
2.30366e-11
1.00617e-08
2.33999e-11
1.00498e-08
2.37533e-11
1.00378e-08
2.40972e-11
1.00255e-08
2.44325e-11
1.00132e-08
2.47598e-11
1.00006e-08
2.50797e-11
9.98793e-09
2.53929e-11
9.97507e-09
2.57e-11
9.96207e-09
2.60014e-11
9.94892e-09
2.62979e-11
9.93563e-09
2.65899e-11
9.92219e-09
2.68778e-11
9.90861e-09
2.71623e-11
9.89488e-09
2.74439e-11
9.88102e-09
2.77228e-11
9.86702e-09
2.8e-11
9.85288e-09
2.82757e-11
9.83861e-09
2.85508e-11
9.82419e-09
2.88256e-11
9.80964e-09
2.9101e-11
9.79495e-09
2.93776e-11
9.78013e-09
2.96566e-11
9.76516e-09
2.99389e-11
9.75004e-09
3.02259e-11
9.73479e-09
3.05192e-11
9.71938e-09
3.08204e-11
9.70381e-09
3.11324e-11
9.68808e-09
3.14578e-11
9.67218e-09
3.18006e-11
9.6561e-09
3.21652e-11
9.63983e-09
3.25579e-11
9.62334e-09
3.29864e-11
9.60661e-09
3.34605e-11
9.58962e-09
3.39933e-11
9.57232e-09
3.46008e-11
9.55468e-09
3.53052e-11
9.53662e-09
3.61346e-11
9.51807e-09
3.71264e-11
9.49892e-09
3.83306e-11
9.47904e-09
3.9814e-11
9.45823e-09
4.16676e-11
9.43626e-09
4.40164e-11
9.41279e-09
4.70364e-11
9.38738e-09
5.09793e-11
9.35937e-09
5.62153e-11
9.32787e-09
6.33104e-11
9.29151e-09
7.31657e-11
9.24824e-09
8.73052e-11
9.19468e-09
1.08508e-10
9.12496e-09
1.42384e-10
9.02794e-09
2.01883e-10
8.88194e-09
3.22297e-10
6.16488e-10
8.6665e-09
2.27739e-10
-6.78758e-10
4.56849e-10
-6.82852e-10
6.87136e-10
-6.86356e-10
9.18391e-10
-6.89238e-10
1.1504e-09
-6.91469e-10
1.38292e-09
-6.93017e-10
1.61572e-09
-6.93853e-10
1.84854e-09
-6.93946e-10
2.08112e-09
-6.9327e-10
2.31318e-09
-6.91801e-10
2.54444e-09
-6.89522e-10
2.77462e-09
-6.86418e-10
3.00343e-09
-6.82484e-10
3.23058e-09
-6.77719e-10
3.45578e-09
-6.72133e-10
3.67876e-09
-6.65739e-10
3.89924e-09
-6.5856e-10
4.11697e-09
-6.50624e-10
4.33171e-09
-6.41967e-10
4.54322e-09
-6.32629e-10
4.75128e-09
-6.22652e-10
4.95571e-09
-6.12086e-10
5.15632e-09
-6.00981e-10
5.35296e-09
-5.89388e-10
5.54549e-09
-5.7736e-10
5.73378e-09
-5.6495e-10
5.91773e-09
-5.52212e-10
6.09725e-09
-5.39195e-10
6.27229e-09
-5.25951e-10
6.44277e-09
-5.12526e-10
6.60868e-09
-4.98966e-10
6.76998e-09
-4.85315e-10
6.92666e-09
-4.71612e-10
7.07873e-09
-4.57895e-10
7.2262e-09
-4.44199e-10
7.3691e-09
-4.30556e-10
7.50745e-09
-4.16995e-10
7.6413e-09
-4.03541e-10
7.77069e-09
-3.9022e-10
7.89569e-09
-3.77052e-10
8.01635e-09
-3.64056e-10
8.13274e-09
-3.51249e-10
8.24494e-09
-3.38646e-10
8.35301e-09
-3.26259e-10
8.45703e-09
-3.14099e-10
8.55709e-09
-3.02176e-10
8.65327e-09
-2.90498e-10
8.74565e-09
-2.79071e-10
8.83432e-09
-2.679e-10
8.91937e-09
-2.56989e-10
9.00089e-09
-2.46341e-10
9.07896e-09
-2.35958e-10
9.15368e-09
-2.25842e-10
9.22513e-09
-2.15992e-10
9.29341e-09
-2.06409e-10
9.35859e-09
-1.97092e-10
9.42078e-09
-1.88039e-10
9.48005e-09
-1.79249e-10
9.5365e-09
-1.70719e-10
9.5902e-09
-1.62445e-10
9.64125e-09
-1.54426e-10
9.68973e-09
-1.46658e-10
9.73572e-09
-1.39137e-10
9.7793e-09
-1.31859e-10
9.82054e-09
-1.2482e-10
9.85954e-09
-1.18015e-10
9.89635e-09
-1.1144e-10
9.93107e-09
-1.05092e-10
9.96375e-09
-9.89635e-11
9.99448e-09
-9.30512e-11
1.00233e-08
-8.73501e-11
1.00503e-08
-8.18551e-11
1.00756e-08
-7.65609e-11
1.00992e-08
-7.14629e-11
1.01212e-08
-6.65556e-11
1.01416e-08
-6.18342e-11
1.01604e-08
-5.72934e-11
1.01779e-08
-5.29283e-11
1.0194e-08
-4.87337e-11
1.02087e-08
-4.47046e-11
1.02221e-08
-4.0836e-11
1.02343e-08
-3.71228e-11
1.02454e-08
-3.35603e-11
1.02553e-08
-3.01435e-11
1.02641e-08
-2.68678e-11
1.02719e-08
-2.3728e-11
1.02787e-08
-2.07199e-11
1.02845e-08
-1.78387e-11
1.02894e-08
-1.50797e-11
1.02935e-08
-1.24389e-11
1.02967e-08
-9.91154e-12
1.02991e-08
-7.49351e-12
1.03007e-08
-5.18067e-12
1.03017e-08
-2.96873e-12
1.03019e-08
-8.53892e-13
1.03014e-08
1.16782e-12
1.03003e-08
3.10023e-12
1.02986e-08
4.94711e-12
1.02963e-08
6.7119e-12
1.02934e-08
8.39838e-12
1.02901e-08
1.00098e-11
1.02862e-08
1.15495e-11
1.02818e-08
1.30208e-11
1.02769e-08
1.44267e-11
1.02716e-08
1.57703e-11
1.02659e-08
1.70547e-11
1.02598e-08
1.82825e-11
1.02533e-08
1.94566e-11
1.02464e-08
2.05796e-11
1.02391e-08
2.16539e-11
1.02315e-08
2.26824e-11
1.02236e-08
2.36672e-11
1.02154e-08
2.46104e-11
1.02069e-08
2.55147e-11
1.01981e-08
2.63819e-11
1.0189e-08
2.72141e-11
1.01796e-08
2.80132e-11
1.017e-08
2.87813e-11
1.01602e-08
2.95199e-11
1.01501e-08
3.0231e-11
1.01398e-08
3.09161e-11
1.01292e-08
3.1577e-11
1.01185e-08
3.22148e-11
1.01075e-08
3.28314e-11
1.00964e-08
3.34278e-11
1.0085e-08
3.40056e-11
1.00735e-08
3.45661e-11
1.00618e-08
3.51102e-11
1.00499e-08
3.56393e-11
1.00378e-08
3.61545e-11
1.00256e-08
3.66566e-11
1.00132e-08
3.71469e-11
1.00007e-08
3.76262e-11
9.98798e-09
3.80955e-11
9.97512e-09
3.85555e-11
9.96211e-09
3.90072e-11
9.94896e-09
3.94514e-11
9.93566e-09
3.9889e-11
9.92222e-09
4.03205e-11
9.90863e-09
4.07467e-11
9.89491e-09
4.11686e-11
9.88105e-09
4.15869e-11
9.86704e-09
4.20023e-11
9.8529e-09
4.24155e-11
9.83863e-09
4.28277e-11
9.82421e-09
4.32395e-11
9.80966e-09
4.3652e-11
9.79497e-09
4.40668e-11
9.78014e-09
4.44847e-11
9.76518e-09
4.49077e-11
9.75006e-09
4.53376e-11
9.73481e-09
4.57766e-11
9.7194e-09
4.62278e-11
9.70384e-09
4.66946e-11
9.68811e-09
4.71814e-11
9.67222e-09
4.76938e-11
9.65615e-09
4.82389e-11
9.63988e-09
4.88255e-11
9.6234e-09
4.94651e-11
9.60669e-09
5.01724e-11
9.58972e-09
5.09662e-11
9.57245e-09
5.18712e-11
9.55483e-09
5.29194e-11
9.53681e-09
5.41526e-11
9.51831e-09
5.56262e-11
9.49923e-09
5.74136e-11
9.47943e-09
5.96135e-11
9.45874e-09
6.23597e-11
9.43692e-09
6.58357e-11
9.41366e-09
7.02987e-11
9.38852e-09
7.61152e-11
9.36091e-09
8.38221e-11
9.32999e-09
9.42311e-11
9.29454e-09
1.08622e-10
9.25272e-09
1.29119e-10
9.20175e-09
1.59485e-10
9.13718e-09
2.06949e-10
9.05229e-09
2.86777e-10
8.94038e-09
4.34203e-10
7.3184e-10
8.82503e-09
2.30412e-10
-9.09169e-10
4.62211e-10
-9.14651e-10
6.95207e-10
-9.19352e-10
9.29192e-10
-9.23224e-10
1.16395e-09
-9.26223e-10
1.39923e-09
-9.28304e-10
1.6348e-09
-9.29421e-10
1.87038e-09
-9.29529e-10
2.1057e-09
-9.28586e-10
2.34046e-09
-9.26557e-10
2.57435e-09
-9.23414e-10
2.80707e-09
-9.19137e-10
3.0383e-09
-9.13717e-10
3.26774e-09
-9.07155e-10
3.49507e-09
-8.99465e-10
3.72e-09
-8.90671e-10
3.94225e-09
-8.80805e-10
4.16154e-09
-8.69913e-10
4.37761e-09
-8.58046e-10
4.59025e-09
-8.45262e-10
4.79922e-09
-8.31627e-10
5.00434e-09
-8.17208e-10
5.20544e-09
-8.02077e-10
5.40236e-09
-7.86308e-10
5.59497e-09
-7.69974e-10
5.78317e-09
-7.53148e-10
5.96686e-09
-7.35903e-10
6.14597e-09
-7.18308e-10
6.32045e-09
-7.0043e-10
6.49026e-09
-6.82334e-10
6.65538e-09
-6.6408e-10
6.81579e-09
-6.45726e-10
6.9715e-09
-6.27323e-10
7.12253e-09
-6.08921e-10
7.26889e-09
-5.90566e-10
7.41063e-09
-5.72299e-10
7.5478e-09
-5.54156e-10
7.68043e-09
-5.36172e-10
7.80858e-09
-5.18378e-10
7.93233e-09
-5.008e-10
8.05174e-09
-4.83463e-10
8.16688e-09
-4.66387e-10
8.27782e-09
-4.49591e-10
8.38466e-09
-4.33092e-10
8.48746e-09
-4.16901e-10
8.58632e-09
-4.01032e-10
8.68131e-09
-3.85494e-10
8.77253e-09
-3.70294e-10
8.86007e-09
-3.55439e-10
8.94402e-09
-3.40934e-10
9.02446e-09
-3.26782e-10
9.10149e-09
-3.12985e-10
9.17519e-09
-2.99544e-10
9.24566e-09
-2.8646e-10
9.31298e-09
-2.73732e-10
9.37725e-09
-2.61359e-10
9.43855e-09
-2.49338e-10
9.49696e-09
-2.37666e-10
9.55258e-09
-2.26341e-10
9.6055e-09
-2.15358e-10
9.65579e-09
-2.04714e-10
9.70353e-09
-1.94403e-10
9.74881e-09
-1.8442e-10
9.79172e-09
-1.74761e-10
9.83231e-09
-1.65419e-10
9.87069e-09
-1.56389e-10
9.90691e-09
-1.47665e-10
9.94106e-09
-1.3924e-10
9.97321e-09
-1.31108e-10
1.00034e-08
-1.23263e-10
1.00318e-08
-1.15699e-10
1.00583e-08
-1.08407e-10
1.00831e-08
-1.01383e-10
1.01063e-08
-9.4619e-11
1.01279e-08
-8.81081e-11
1.01479e-08
-8.18436e-11
1.01664e-08
-7.58192e-11
1.01835e-08
-7.00275e-11
1.01992e-08
-6.44623e-11
1.02136e-08
-5.91164e-11
1.02268e-08
-5.39837e-11
1.02387e-08
-4.90571e-11
1.02495e-08
-4.43303e-11
1.02591e-08
-3.9797e-11
1.02677e-08
-3.54504e-11
1.02753e-08
-3.12846e-11
1.02818e-08
-2.72931e-11
1.02875e-08
-2.34701e-11
1.02922e-08
-1.98093e-11
1.02961e-08
-1.63049e-11
1.02991e-08
-1.29512e-11
1.03014e-08
-9.74255e-12
1.03029e-08
-6.67322e-12
1.03036e-08
-3.73783e-12
1.03037e-08
-9.31292e-13
1.03031e-08
1.75185e-12
1.03019e-08
4.31665e-12
1.03001e-08
6.76791e-12
1.02977e-08
9.11033e-12
1.02947e-08
1.13489e-11
1.02912e-08
1.34879e-11
1.02873e-08
1.55319e-11
1.02828e-08
1.74851e-11
1.02779e-08
1.93516e-11
1.02725e-08
2.11356e-11
1.02667e-08
2.28408e-11
1.02605e-08
2.44712e-11
1.0254e-08
2.60302e-11
1.0247e-08
2.75216e-11
1.02397e-08
2.89486e-11
1.02321e-08
3.03144e-11
1.02241e-08
3.16225e-11
1.02159e-08
3.28758e-11
1.02073e-08
3.40769e-11
1.01985e-08
3.52291e-11
1.01893e-08
3.63349e-11
1.018e-08
3.73968e-11
1.01703e-08
3.84174e-11
1.01604e-08
3.93993e-11
1.01503e-08
4.03445e-11
1.014e-08
4.12551e-11
1.01294e-08
4.21337e-11
1.01187e-08
4.29818e-11
1.01077e-08
4.38017e-11
1.00965e-08
4.4595e-11
1.00852e-08
4.53634e-11
1.00736e-08
4.61089e-11
1.00619e-08
4.68327e-11
1.005e-08
4.75367e-11
1.00379e-08
4.8222e-11
1.00257e-08
4.88903e-11
1.00133e-08
4.95427e-11
1.00008e-08
5.01807e-11
9.98805e-09