/*--------------------------------*- C++ -*----------------------------------*\
  =========                 |
  \\      /  F ield         | OpenFOAM: The Open Source CFD Toolbox
   \\    /   O peration     | Website:  https://openfoam.org
    \\  /    A nd           | Version:  10
     \\/     M anipulation  |
\*---------------------------------------------------------------------------*/
FoamFile
{
    format      ascii;
    class       volVectorField;
    location    "0.8";
    object      Ua;
}
// * * * * * * * * * * * * * * * * * * * * * * * * * * * * * * * * * * * * * //

dimensions      [0 1 -1 0 0 0 0];

internalField   nonuniform List<vector> 
12225
(
(5.81084e-05 -7.38949e-06 0)
(0.000169983 -6.91827e-06 0)
(0.000271699 -6.05389e-06 0)
(0.000361725 -5.07864e-06 0)
(0.000440759 -4.18166e-06 0)
(0.000510618 -3.45589e-06 0)
(0.000573425 -2.93199e-06 0)
(0.000631205 -2.61174e-06 0)
(0.000685746 -2.49089e-06 0)
(0.00073864 -2.57409e-06 0)
(0.000791386 -2.88693e-06 0)
(0.000845589 -3.49234e-06 0)
(0.000903247 -4.5228e-06 0)
(0.000967315 -6.25759e-06 0)
(0.00104298 -9.34019e-06 0)
(0.00114127 -1.55303e-05 0)
(0.00129288 -3.11637e-05 0)
(0.00162325 -8.94035e-05 0)
(3.93568e-05 -1.92918e-05 0)
(0.000115903 -1.81761e-05 0)
(0.00018716 -1.60164e-05 0)
(0.000251949 -1.35299e-05 0)
(0.000310331 -1.12139e-05 0)
(0.000363111 -9.3246e-06 0)
(0.000411404 -7.95625e-06 0)
(0.000456375 -7.12495e-06 0)
(0.000499137 -6.82864e-06 0)
(0.000540736 -7.0874e-06 0)
(0.000582212 -7.97717e-06 0)
(0.000624716 -9.67497e-06 0)
(0.000669695 -1.25464e-05 0)
(0.000719251 -1.73505e-05 0)
(0.000776877 -2.57957e-05 0)
(0.000849059 -4.2328e-05 0)
(0.00094775 -8.12515e-05 0)
(0.00107227 -0.000202375 0)
(3.08803e-05 -2.6808e-05 0)
(9.15114e-05 -2.54912e-05 0)
(0.000149194 -2.26804e-05 0)
(0.000202966 -1.93367e-05 0)
(0.000252626 -1.61608e-05 0)
(0.000298513 -1.35373e-05 0)
(0.000341261 -1.16272e-05 0)
(0.000381614 -1.0477e-05 0)
(0.000420336 -1.01028e-05 0)
(0.000458192 -1.05492e-05 0)
(0.000495971 -1.19403e-05 0)
(0.00053456 -1.45468e-05 0)
(0.000575061 -1.89108e-05 0)
(0.000618986 -2.61255e-05 0)
(0.000668536 -3.85391e-05 0)
(0.000726674 -6.17364e-05 0)
(0.000794164 -0.000110619 0)
(0.000844766 -0.000227115 0)
(2.53443e-05 -3.18405e-05 0)
(7.55465e-05 -3.05642e-05 0)
(0.000124264 -2.74543e-05 0)
(0.000170701 -2.36149e-05 0)
(0.000214524 -1.98918e-05 0)
(0.000255804 -1.67771e-05 0)
(0.000294875 -1.44978e-05 0)
(0.000332206 -1.3139e-05 0)
(0.000368326 -1.27428e-05 0)
(0.000403797 -1.33825e-05 0)
(0.000439219 -1.52261e-05 0)
(0.000475264 -1.86185e-05 0)
(0.000512733 -2.42264e-05 0)
(0.000552602 -3.33395e-05 0)
(0.000595943 -4.85523e-05 0)
(0.000643104 -7.5361e-05 0)
(0.000689539 -0.000125637 0)
(0.000710159 -0.000221568 0)
(2.1276e-05 -3.50592e-05 0)
(6.37785e-05 -3.39859e-05 0)
(0.000105798 -3.08166e-05 0)
(0.000146674 -2.67336e-05 0)
(0.000186015 -2.2687e-05 0)
(0.000223722 -1.92583e-05 0)
(0.000259928 -1.6738e-05 0)
(0.000294905 -1.52527e-05 0)
(0.000329004 -1.48747e-05 0)
(0.000362626 -1.57063e-05 0)
(0.000396209 -1.79523e-05 0)
(0.000430235 -2.20092e-05 0)
(0.000465226 -2.86119e-05 0)
(0.000501681 -3.91089e-05 0)
(0.000539774 -5.60016e-05 0)
(0.000578252 -8.39234e-05 0)
(0.000611064 -0.000130813 0)
(0.00062015 -0.00020573 0)
(1.81023e-05 -3.68121e-05 0)
(5.45662e-05 -3.60585e-05 0)
(9.12604e-05 -3.30045e-05 0)
(0.000127639 -2.88678e-05 0)
(0.000163292 -2.46719e-05 0)
(0.00019802 -2.10715e-05 0)
(0.000231813 -1.84149e-05 0)
(0.000264796 -1.68706e-05 0)
(0.000297179 -1.6542e-05 0)
(0.000329226 -1.7558e-05 0)
(0.000361233 -2.01501e-05 0)
(0.000393508 -2.47417e-05 0)
(0.000426324 -3.20788e-05 0)
(0.000459786 -4.34472e-05 0)
(0.000493448 -6.10161e-05 0)
(0.000525326 -8.82408e-05 0)
(0.000549816 -0.000129655 0)
(0.000555421 -0.000187348 0)
(1.55369e-05 -3.73173e-05 0)
(4.70919e-05 -3.69671e-05 0)
(7.93924e-05 -3.41569e-05 0)
(0.00011199 -3.0113e-05 0)
(0.000144484 -2.59082e-05 0)
(0.00017662 -2.22549e-05 0)
(0.000208287 -1.9552e-05 0)
(0.000239499 -1.8007e-05 0)
(0.00027035 -1.77526e-05 0)
(0.000300986 -1.89397e-05 0)
(0.000331575 -2.18154e-05 0)
(0.000362269 -2.68038e-05 0)
(0.000393133 -3.46116e-05 0)
(0.00042398 -4.63707e-05 0)
(0.00045401 -6.37959e-05 0)
(0.000481114 -8.91859e-05 0)
(0.000500863 -0.000124664 0)
(0.00050645 -0.000169298 0)
(1.34149e-05 -3.67308e-05 0)
(4.0885e-05 -3.68405e-05 0)
(6.94712e-05 -3.43653e-05 0)
(9.88087e-05 -3.05259e-05 0)
(0.000128528 -2.64262e-05 0)
(0.000158347 -2.28212e-05 0)
(0.00018809 -2.0151e-05 0)
(0.000217684 -1.86567e-05 0)
(0.000247126 -1.84964e-05 0)
(0.00027646 -1.98372e-05 0)
(0.000305743 -2.29291e-05 0)
(0.000334993 -2.81741e-05 0)
(0.00036411 -3.62e-05 0)
(0.000392718 -4.79318e-05 0)
(0.000419886 -6.46093e-05 0)
(0.000443715 -8.75801e-05 0)
(0.000461021 -0.000117497 0)
(0.000467972 -0.000152492 0)
(1.16317e-05 -3.51792e-05 0)
(3.56463e-05 -3.57798e-05 0)
(6.10382e-05 -3.36967e-05 0)
(8.75161e-05 -3.01434e-05 0)
(0.000114755 -2.62403e-05 0)
(0.00014247 -2.277e-05 0)
(0.000170443 -2.02022e-05 0)
(0.000198533 -1.88046e-05 0)
(0.00022666 -1.87549e-05 0)
(0.000254779 -2.02292e-05 0)
(0.000282849 -2.34689e-05 0)
(0.000310781 -2.88354e-05 0)
(0.000338357 -3.68526e-05 0)
(0.000365104 -4.82229e-05 0)
(0.000390105 -6.376e-05 0)
(0.000411816 -8.41236e-05 0)
(0.000428084 -0.000109191 0)
(0.000436837 -0.000137086 0)
(1.01155e-05 -3.27777e-05 0)
(3.11701e-05 -3.3873e-05 0)
(5.37778e-05 -3.22066e-05 0)
(7.77151e-05 -2.89928e-05 0)
(0.000102712 -2.53576e-05 0)
(0.000128497 -2.2095e-05 0)
(0.000154829 -1.96912e-05 0)
(0.000181513 -1.84315e-05 0)
(0.000208404 -1.85064e-05 0)
(0.000235383 -2.00932e-05 0)
(0.000262329 -2.34154e-05 0)
(0.00028907 -2.87809e-05 0)
(0.000315314 -3.66006e-05 0)
(0.000340559 -4.73665e-05 0)
(0.000363988 -6.15516e-05 0)
(0.000384423 -7.93695e-05 0)
(0.000400469 -0.000100363 0)
(0.000411042 -0.000122968 0)
(8.81332e-06 -2.96416e-05 0)
(2.73038e-05 -3.12036e-05 0)
(4.74558e-05 -2.99457e-05 0)
(6.91139e-05 -2.70987e-05 0)
(9.20715e-05 -2.37838e-05 0)
(0.00011608 -2.07892e-05 0)
(0.000140884 -1.86035e-05 0)
(0.000166252 -1.75188e-05 0)
(0.000191982 -1.77303e-05 0)
(0.000217896 -1.94101e-05 0)
(0.000243808 -2.27561e-05 0)
(0.000269486 -2.80174e-05 0)
(0.000294601 -3.54948e-05 0)
(0.000318668 -4.5501e-05 0)
(0.000341002 -5.8261e-05 0)
(0.00036074 -7.37313e-05 0)
(0.000377007 -9.1365e-05 0)
(0.000389254 -0.000109958 0)
(7.59043e-06 -2.61833e-05 0)
(2.36867e-05 -2.81296e-05 0)
(4.15774e-05 -2.72246e-05 0)
(6.11678e-05 -2.47281e-05 0)
(8.22939e-05 -2.17449e-05 0)
(0.000104716 -1.9043e-05 0)
(0.000128161 -1.71004e-05 0)
(0.000152362 -1.62066e-05 0)
(0.000177073 -1.65553e-05 0)
(0.000202069 -1.83086e-05 0)
(0.000227118 -2.16377e-05 0)
(0.000251955 -2.67379e-05 0)
(0.000276243 -3.38188e-05 0)
(0.000299537 -4.30609e-05 0)
(0.000321274 -5.45311e-05 0)
(0.00034082 -6.80603e-05 0)
(0.000357602 -8.3121e-05 0)
(0.00037132 -9.87987e-05 0)
(6.78456e-06 -2.23392e-05 0)
(2.12495e-05 -2.45707e-05 0)
(3.75046e-05 -2.39559e-05 0)
(5.55282e-05 -2.17939e-05 0)
(7.5216e-05 -1.91581e-05 0)
(9.6356e-05 -1.67791e-05 0)
(0.000118676 -1.51106e-05 0)
(0.000141891 -1.44305e-05 0)
(0.000165728 -1.49239e-05 0)
(0.000189924 -1.67398e-05 0)
(0.000214218 -2.00214e-05 0)
(0.000238323 -2.49152e-05 0)
(0.000261902 -3.15569e-05 0)
(0.000284554 -4.00316e-05 0)
(0.000305822 -5.03107e-05 0)
(0.000325241 -6.21745e-05 0)
(0.000342439 -7.5157e-05 0)
(0.000357259 -8.85639e-05 0)
(5.97057e-06 -1.76984e-05 0)
(1.87506e-05 -2.00639e-05 0)
(3.32799e-05 -1.96639e-05 0)
(4.96588e-05 -1.78402e-05 0)
(6.7849e-05 -1.5603e-05 0)
(8.76566e-05 -1.36148e-05 0)
(0.000108804 -1.2286e-05 0)
(0.000130986 -1.18699e-05 0)
(0.000153901 -1.25353e-05 0)
(0.000177255 -1.44111e-05 0)
(0.00020076 -1.76095e-05 0)
(0.000224116 -2.22287e-05 0)
(0.000247003 -2.83389e-05 0)
(0.000269078 -3.59516e-05 0)
(0.000289985 -4.49784e-05 0)
(0.000309403 -5.51908e-05 0)
(0.0003271 -6.6205e-05 0)
(0.000342998 -7.75141e-05 0)
(5.10797e-06 -1.23361e-05 0)
(1.60745e-05 -1.44816e-05 0)
(2.87541e-05 -1.4141e-05 0)
(4.34378e-05 -1.26396e-05 0)
(6.01335e-05 -1.08544e-05 0)
(7.86237e-05 -9.32988e-06 0)
(9.85987e-05 -8.40782e-06 0)
(0.000119729 -8.30621e-06 0)
(0.000141686 -9.16929e-06 0)
(0.000164152 -1.11017e-05 0)
(0.000186825 -1.41835e-05 0)
(0.000209418 -1.8471e-05 0)
(0.00023165 -2.39842e-05 0)
(0.000253243 -3.06869e-05 0)
(0.000273933 -3.84643e-05 0)
(0.000293496 -4.71076e-05 0)
(0.000311782 -5.63175e-05 0)
(0.000328744 -6.57341e-05 0)
(4.01319e-06 -6.4257e-06 0)
(1.27561e-05 -7.68711e-06 0)
(2.33647e-05 -7.19298e-06 0)
(3.63654e-05 -6.00511e-06 0)
(5.17139e-05 -4.75066e-06 0)
(6.90251e-05 -3.78826e-06 0)
(8.78379e-05 -3.35464e-06 0)
(0.000107799 -3.61744e-06 0)
(0.000128647 -4.69651e-06 0)
(0.000150133 -6.67722e-06 0)
(0.000171996 -9.61569e-06 0)
(0.000193967 -1.35398e-05 0)
(0.000215782 -1.8438e-05 0)
(0.000237189 -2.42499e-05 0)
(0.000257965 -3.08578e-05 0)
(0.000277931 -3.80848e-05 0)
(0.000296969 -4.57051e-05 0)
(0.000315033 -5.34658e-05 0)
(2.01815e-06 3.30381e-08 0)
(7.03801e-06 5.30396e-07 0)
(1.46625e-05 1.25018e-06 0)
(2.54554e-05 2.03448e-06 0)
(3.91132e-05 2.70895e-06 0)
(5.51861e-05 3.08933e-06 0)
(7.32298e-05 3.01097e-06 0)
(9.2794e-05 2.34513e-06 0)
(0.000113459 1.00059e-06 0)
(0.000134868 -1.0812e-06 0)
(0.000156719 -3.96168e-06 0)
(0.000178777 -7.69285e-06 0)
(0.000200822 -1.2146e-05 0)
(0.000222615 -1.72528e-05 0)
(0.00024396 -2.2906e-05 0)
(0.000264703 -2.89638e-05 0)
(0.000284741 -3.52603e-05 0)
(0.000304019 -4.16195e-05 0)
(4.72684e-06 7.70879e-06 0)
(1.44615e-05 1.04534e-05 0)
(2.51396e-05 1.17489e-05 0)
(3.73593e-05 1.22739e-05 0)
(5.13981e-05 1.23474e-05 0)
(6.72558e-05 1.20223e-05 0)
(8.47413e-05 1.12531e-05 0)
(0.000103571 9.98241e-06 0)
(0.000123437 8.17017e-06 0)
(0.000144046 5.79744e-06 0)
(0.000165121 2.8333e-06 0)
(0.000186385 -7.50683e-07 0)
(0.000207604 -4.86006e-06 0)
(0.000228673 -9.57956e-06 0)
(0.000249489 -1.45906e-05 0)
(0.000269915 -1.97873e-05 0)
(0.000289853 -2.50557e-05 0)
(0.000309245 -3.02799e-05 0)
(6.54884e-06 1.81971e-05 0)
(2.00869e-05 2.23851e-05 0)
(3.45308e-05 2.43567e-05 0)
(4.99742e-05 2.48169e-05 0)
(6.65266e-05 2.43023e-05 0)
(8.4215e-05 2.31221e-05 0)
(0.000102964 2.14322e-05 0)
(0.000122619 1.93085e-05 0)
(0.000142988 1.67919e-05 0)
(0.000163862 1.39117e-05 0)
(0.000185037 1.06979e-05 0)
(0.000206325 7.18641e-06 0)
(0.000227561 3.37776e-06 0)
(0.000248552 -8.23255e-07 0)
(0.000269156 -5.11983e-06 0)
(0.000289341 -9.61379e-06 0)
(0.00030909 -1.4026e-05 0)
(0.00032838 -1.82921e-05 0)
(7.41404e-06 2.96194e-05 0)
(2.28971e-05 3.37821e-05 0)
(3.95904e-05 3.56933e-05 0)
(5.73466e-05 3.58291e-05 0)
(7.60803e-05 3.47191e-05 0)
(9.56999e-05 3.27725e-05 0)
(0.00011608 3.02648e-05 0)
(0.000137064 2.73716e-05 0)
(0.00015848 2.42029e-05 0)
(0.000180151 2.08313e-05 0)
(0.000201913 1.73096e-05 0)
(0.000223618 1.36828e-05 0)
(0.000245139 9.99438e-06 0)
(0.000266374 6.28763e-06 0)
(0.000287242 2.6093e-06 0)
(0.000307656 -1.16784e-06 0)
(0.00032756 -4.85094e-06 0)
(0.00034698 -8.40246e-06 0)
(8.76081e-06 3.91641e-05 0)
(2.69169e-05 4.25346e-05 0)
(4.62385e-05 4.37961e-05 0)
(6.65308e-05 4.32969e-05 0)
(8.76231e-05 4.15259e-05 0)
(0.000109356 3.89108e-05 0)
(0.000131567 3.57689e-05 0)
(0.000154091 3.23167e-05 0)
(0.000176765 2.86953e-05 0)
(0.000199439 2.49956e-05 0)
(0.000221976 2.12786e-05 0)
(0.000244262 1.75886e-05 0)
(0.000266202 1.39613e-05 0)
(0.000287728 1.04289e-05 0)
(0.000308788 7.02154e-06 0)
(0.000329354 3.76844e-06 0)
(0.000349408 6.37589e-07 0)
(0.000368925 -2.34639e-06 0)
(1.0401e-05 4.66348e-05 0)
(3.17413e-05 4.90713e-05 0)
(5.40688e-05 4.95121e-05 0)
(7.71839e-05 4.82798e-05 0)
(0.00010087 4.5843e-05 0)
(0.000124923 4.2631e-05 0)
(0.000149153 3.89745e-05 0)
(0.000173388 3.51043e-05 0)
(0.000197475 3.11713e-05 0)
(0.000221285 2.72707e-05 0)
(0.000244709 2.34617e-05 0)
(0.000267665 1.97821e-05 0)
(0.000290092 1.62579e-05 0)
(0.000311951 1.29087e-05 0)
(0.000333221 9.75126e-06 0)
(0.000353898 6.80014e-06 0)
(0.000373993 4.06815e-06 0)
(0.000393526 1.56475e-06 0)
(1.23734e-05 5.1619e-05 0)
(3.75167e-05 5.31644e-05 0)
(6.33673e-05 5.2794e-05 0)
(8.9717e-05 5.08615e-05 0)
(0.000116321 4.78359e-05 0)
(0.00014295 4.41443e-05 0)
(0.000169401 4.01159e-05 0)
(0.000195505 3.59794e-05 0)
(0.000221128 3.18821e-05 0)
(0.000246166 2.79129e-05 0)
(0.000270543 2.41225e-05 0)
(0.000294212 2.05389e-05 0)
(0.000317146 1.71768e-05 0)
(0.000339338 1.40443e-05 0)
(0.000360798 1.1146e-05 0)
(0.000381548 8.48495e-06 0)
(0.000401622 6.06287e-06 0)
(0.000421061 3.88034e-06 0)
(1.47329e-05 5.39745e-05 0)
(4.44144e-05 5.47431e-05 0)
(7.44273e-05 5.3671e-05 0)
(0.000104536 5.1161e-05 0)
(0.000134473 4.76901e-05 0)
(0.000163997 4.36793e-05 0)
(0.000192911 3.94465e-05 0)
(0.000221065 3.5208e-05 0)
(0.000248353 3.10984e-05 0)
(0.000274708 2.7194e-05 0)
(0.000300096 2.35337e-05 0)
(0.000324507 2.01338e-05 0)
(0.000347955 1.69981e-05 0)
(0.000370467 1.41242e-05 0)
(0.000392085 1.1507e-05 0)
(0.000412861 9.14046e-06 0)
(0.000432852 7.01845e-06 0)
(0.000452121 5.13486e-06 0)
(1.75662e-05 5.36952e-05 0)
(5.26889e-05 5.38307e-05 0)
(8.76582e-05 5.22223e-05 0)
(0.000122187 4.93153e-05 0)
(0.000155988 4.55899e-05 0)
(0.000188821 4.1453e-05 0)
(0.000220512 3.72029e-05 0)
(0.000250948 3.30358e-05 0)
(0.000280072 2.90681e-05 0)
(0.000307865 2.53606e-05 0)
(0.000334342 2.19388e-05 0)
(0.000359543 1.88077e-05 0)
(0.000383524 1.59615e-05 0)
(0.000406353 1.33893e-05 0)
(0.000428107 1.10787e-05 0)
(0.000448869 9.01718e-06 0)
(0.000468722 7.19302e-06 0)
(0.000487752 5.59545e-06 0)
(2.10168e-05 5.08221e-05 0)
(6.27566e-05 5.04825e-05 0)
(0.000103721 4.8537e-05 0)
(0.000143545 4.54518e-05 0)
(0.000181921 4.16954e-05 0)
(0.000218628 3.76489e-05 0)
(0.000253537 3.35822e-05 0)
(0.000286596 2.96657e-05 0)
(0.000317814 2.59944e-05 0)
(0.000347238 2.26128e-05 0)
(0.000374948 1.95337e-05 0)
(0.00040104 1.67524e-05 0)
(0.000425621 1.42557e-05 0)
(0.000448804 1.20267e-05 0)
(0.000470706 1.00484e-05 0)
(0.000491441 8.30421e-06 0)
(0.000511123 6.77923e-06 0)
(0.000529861 5.4598e-06 0)
(2.53445e-05 4.53699e-05 0)
(7.53727e-05 4.47241e-05 0)
(0.000123813 4.26654e-05 0)
(0.000170196 3.96498e-05 0)
(0.000214195 3.61118e-05 0)
(0.000255628 3.23913e-05 0)
(0.000294441 2.87203e-05 0)
(0.000330674 2.52389e-05 0)
(0.000364425 2.20197e-05 0)
(0.000395834 1.90914e-05 0)
(0.000425057 1.64564e-05 0)
(0.00045226 1.4103e-05 0)
(0.000477613 1.20134e-05 0)
(0.000501278 1.0168e-05 0)
(0.000523417 8.54759e-06 0)
(0.000544179 7.13437e-06 0)
(0.000563712 5.91236e-06 0)
(0.000582151 4.86718e-06 0)
(3.10991e-05 3.72343e-05 0)
(9.21397e-05 3.6465e-05 0)
(0.00015049 3.4544e-05 0)
(0.000205537 3.18777e-05 0)
(0.00025694 2.88368e-05 0)
(0.000304591 2.57014e-05 0)
(0.000348552 2.26559e-05 0)
(0.000388993 1.98061e-05 0)
(0.000426146 1.72022e-05 0)
(0.000460265 1.48594e-05 0)
(0.000491614 1.27729e-05 0)
(0.000520447 1.09278e-05 0)
(0.000547003 9.30528e-06 0)
(0.000571509 7.88599e-06 0)
(0.000594175 6.65167e-06 0)
(0.000615194 5.58581e-06 0)
(0.000634747 4.67376e-06 0)
(0.000653 3.90248e-06 0)
(3.98569e-05 2.59875e-05 0)
(0.000117669 2.53056e-05 0)
(0.000191141 2.38215e-05 0)
(0.000259458 2.18402e-05 0)
(0.000322281 1.96304e-05 0)
(0.000379625 1.73889e-05 0)
(0.000431743 1.52403e-05 0)
(0.00047901 1.32527e-05 0)
(0.00052185 1.14551e-05 0)
(0.000560693 9.85287e-06 0)
(0.000595944 8.43825e-06 0)
(0.000627977 7.19762e-06 0)
(0.000657129 6.11538e-06 0)
(0.000683703 5.17621e-06 0)
(0.000707969 4.36604e-06 0)
(0.000730173 3.67237e-06 0)
(0.000750535 3.08428e-06 0)
(0.000769253 2.59231e-06 0)
(6.31524e-05 9.77103e-06 0)
(0.000185952 9.48097e-06 0)
(0.000300917 8.88998e-06 0)
(0.000406887 8.11778e-06 0)
(0.000503574 7.26768e-06 0)
(0.000591291 6.41382e-06 0)
(0.000670691 5.60205e-06 0)
(0.000742575 4.85641e-06 0)
(0.000807759 4.18631e-06 0)
(0.00086701 3.59246e-06 0)
(0.000921013 3.07096e-06 0)
(0.000970365 2.61589e-06 0)
(0.00101558 2.22085e-06 0)
(0.00105708 1.87967e-06 0)
(0.00109526 1.58679e-06 0)
(0.00113041 1.33733e-06 0)
(0.00116283 1.12707e-06 0)
(0.00119273 9.52468e-07 0)
(9.96595e-05 -0.000213018 -2.75201e-30)
(0.0002998 -0.000212742 2.74609e-30)
(0.000501232 -0.000212277 0)
(0.00070378 -0.000211616 0)
(0.00090726 -0.000210758 0)
(0.00111148 -0.000209697 -2.69715e-30)
(0.00131624 -0.000208431 0)
(0.00152133 -0.000206956 0)
(0.00172654 -0.000205271 0)
(0.00193163 -0.000203374 0)
(0.00213639 -0.000201267 2.57609e-30)
(0.00234058 -0.00019895 0)
(0.00254397 -0.000196427 0)
(0.00274631 -0.000193703 0)
(0.00294737 -0.000190785 0)
(0.00314691 -0.000187681 2.38857e-30)
(0.00334471 -0.000184401 0)
(0.00354054 -0.000180956 0)
(0.00373418 -0.000177358 0)
(0.00392543 -0.000173622 0)
(0.00411409 -0.000169762 0)
(0.00429997 -0.000165793 0)
(0.00448291 -0.000161731 0)
(0.00466274 -0.00015759 1.98176e-30)
(0.00483933 -0.000153386 -1.92534e-30)
(0.00501254 -0.000149136 1.86836e-30)
(0.00518226 -0.000144852 1.81099e-30)
(0.0053484 -0.00014055 0)
(0.00551086 -0.000136243 0)
(0.00566958 -0.000131944 -1.63841e-30)
(0.0058245 -0.000127664 -1.58127e-30)
(0.00597558 -0.000123415 0)
(0.00612279 -0.000119207 0)
(0.0062661 -0.000115047 -1.41298e-30)
(0.00640551 -0.000110946 0)
(0.00654103 -0.000106909 0)
(0.00667265 -0.000102944 1.25175e-30)
(0.00680041 -9.90556e-05 0)
(0.00692433 -9.52485e-05 1.14932e-30)
(0.00704444 -9.15268e-05 2.1996e-30)
(0.00716079 -8.78939e-05 0)
(0.00727342 -8.43523e-05 0)
(0.00738239 -8.09042e-05 0)
(0.00748775 -7.7551e-05 0)
(0.00758956 -7.42938e-05 0)
(0.00768788 -7.11331e-05 1.65724e-30)
(0.00778279 -6.80692e-05 1.5758e-30)
(0.00787435 -6.51019e-05 1.49694e-30)
(0.00796263 -6.22308e-05 0)
(0.0080477 -5.94551e-05 -1.34688e-30)
(0.00812965 -5.67738e-05 0)
(0.00820853 -5.41858e-05 1.20687e-30)
(0.00828444 -5.16897e-05 1.14056e-30)
(0.00835745 -4.9284e-05 0)
(0.00842762 -4.6967e-05 0)
(0.00849505 -4.4737e-05 0)
(0.00855981 -4.25921e-05 8.98892e-31)
(0.00862196 -4.05304e-05 0)
(0.00868159 -3.85499e-05 0)
(0.00873878 -3.66485e-05 0)
(0.0087936 -3.48243e-05 0)
(0.00884611 -3.30749e-05 0)
(0.0088964 -3.13985e-05 0)
(0.00894453 -2.97928e-05 0)
(0.00899058 -2.82557e-05 0)
(0.00903462 -2.67851e-05 -4.79079e-31)
(0.00907671 -2.5379e-05 0)
(0.00911692 -2.40351e-05 0)
(0.00915532 -2.27515e-05 3.71963e-31)
(0.00919196 -2.1526e-05 3.39416e-31)
(0.00922693 -2.03568e-05 0)
(0.00926026 -1.92417e-05 -2.7876e-31)
(0.00929204 -1.8179e-05 2.50536e-31)
(0.00932231 -1.71665e-05 0)
(0.00935113 -1.62026e-05 -1.98051e-31)
(0.00937855 -1.52852e-05 0)
(0.00940465 -1.44127e-05 0)
(0.00942945 -1.35833e-05 1.28499e-31)
(0.00945303 -1.27953e-05 0)
(0.00947542 -1.20469e-05 -8.76982e-32)
(0.00949668 -1.13367e-05 0)
(0.00951686 -1.06629e-05 5.09417e-32)
(0.00953599 -1.00241e-05 3.39791e-32)
(0.00955413 -9.4188e-06 1.79039e-32)
(0.00957131 -8.84551e-06 5.36054e-33)
(0.00958759 -8.30283e-06 2.34677e-32)
(0.00960299 -7.78942e-06 0)
(0.00961757 -7.30396e-06 0)
(0.00963135 -6.84517e-06 0)
(0.00964437 -6.41182e-06 1.23908e-31)
(0.00965667 -6.00273e-06 1.45641e-31)
(0.00966829 -5.61675e-06 -1.66143e-31)
(0.00967925 -5.25277e-06 0)
(0.00968958 -4.90973e-06 2.03699e-31)
(0.00969932 -4.5866e-06 2.20868e-31)
(0.0097085 -4.2824e-06 2.37028e-31)
(0.00971714 -3.99618e-06 0)
(0.00972528 -3.72704e-06 0)
(0.00973292 -3.47408e-06 0)
(0.00974012 -3.23648e-06 2.92594e-31)
(0.00974687 -3.01343e-06 0)
(0.00975321 -2.80416e-06 0)
(0.00975917 -2.60793e-06 -3.25984e-31)
(0.00976475 -2.42404e-06 0)
(0.00976998 -2.25181e-06 0)
(0.00977489 -2.0906e-06 -3.53475e-31)
(0.00977948 -1.93979e-06 0)
(0.00978378 -1.79879e-06 0)
(0.00978779 -1.66705e-06 3.75981e-31)
(0.00979155 -1.54403e-06 3.82518e-31)
(0.00979506 -1.42923e-06 0)
(0.00979833 -1.32215e-06 -3.94312e-31)
(0.00980139 -1.22235e-06 0)
(0.00980424 -1.12938e-06 4.04554e-31)
(0.0098069 -1.04284e-06 0)
(0.00980937 -9.62321e-07 4.13436e-31)
(0.00981167 -8.87459e-07 4.1741e-31)
(0.00981381 -8.17898e-07 0)
(0.0098158 -7.53306e-07 0)
(0.00981765 -6.93364e-07 0)
(0.00981937 -6.37774e-07 0)
(0.00982096 -5.86253e-07 0)
(0.00982244 -5.38534e-07 0)
(0.0098238 -4.94365e-07 0)
(0.00982507 -4.53507e-07 4.40482e-31)
(0.00982624 -4.15736e-07 -4.42486e-31)
(0.00982733 -3.80842e-07 0)
(0.00982833 -3.48625e-07 0)
(0.00982925 -3.18897e-07 0)
(0.00983011 -2.91482e-07 0)
(0.00983089 -2.66214e-07 -9.00872e-31)
(0.00983162 -2.42936e-07 0)
(0.00983229 -2.21501e-07 9.05629e-31)
(0.0098329 -2.0177e-07 -9.07728e-31)
(0.00983346 -1.83612e-07 0)
(0.00983398 -1.66903e-07 0)
(0.00983445 -1.51524e-07 0)
(0.00983489 -1.37365e-07 9.14579e-31)
(0.00983529 -1.24318e-07 9.15965e-31)
(0.00983565 -1.1228e-07 0)
(0.00983598 -1.01151e-07 9.18422e-31)
(0.00983628 -9.08337e-08 9.19514e-31)
(0.00983655 -8.12293e-08 -9.20537e-31)
(0.00983679 -7.22399e-08 0)
(0.00983701 -6.3764e-08 0)
(0.0098372 -5.56953e-08 -9.23239e-31)
(0.00983737 -4.79199e-08 0)
(0.00983752 -4.03126e-08 0)
(0.00983764 -3.2733e-08 0)
(0.00983773 -2.50207e-08 0)
(0.00983781 -1.69879e-08 9.27297e-31)
(0.00983785 -8.41188e-09 9.28188e-31)
(0.00983786 9.75802e-10 0)
(0.00983784 1.15024e-08 9.30247e-31)
(0.00983778 2.35717e-08 0)
(0.00983767 3.76854e-08 0)
(0.0098375 5.44722e-08 9.34658e-31)
(0.00983727 7.47244e-08 0)
(0.00983695 9.94466e-08 9.39258e-31)
(0.00983653 1.29919e-07 0)
(0.00983598 1.67782e-07 0)
(0.00983526 2.15149e-07 9.51059e-31)
(0.00983433 2.74754e-07 0)
(0.00983313 3.50165e-07 9.64817e-31)
(0.00983159 4.46059e-07 0)
(0.00982961 5.6863e-07 0)
(0.00982706 7.26153e-07 0)
(0.00982376 9.29824e-07 -1.02387e-30)
(0.00981949 1.19501e-06 0)
(0.00981394 1.54319e-06 1.08636e-30)
(0.00980668 2.0051e-06 0)
(0.0097971 2.62599e-06 0)
(0.00978436 3.475e-06 0)
(0.00976721 4.66292e-06 0)
(0.00974371 6.37875e-06 0)
(0.00971071 8.97339e-06 0)
(0.00966263 1.31798e-05 0)
(0.00958811 2.08162e-05 -6.11564e-30)
(0.00945854 3.77116e-05 0)
(0.00917136 9.06882e-05 0)
(0.000100054 -0.000639897 8.26691e-30)
(0.000300987 -0.000639069 -8.24909e-30)
(0.000503215 -0.000637671 0)
(0.000706564 -0.000635688 1.63988e-29)
(0.000910848 -0.000633109 0)
(0.00111587 -0.000629921 -8.12837e-30)
(0.00132144 -0.000626114 -1.61223e-29)
(0.00152733 -0.000621679 -1.59979e-29)
(0.00173333 -0.000616608 0)
(0.00193921 -0.000610899 -1.56998e-29)
(0.00214474 -0.000604551 7.78832e-30)
(0.00234967 -0.00059757 0)
(0.00255377 -0.000589966 0)
(0.00275679 -0.000581754 0)
(0.00295849 -0.000572955 0)
(0.00315863 -0.000563593 7.24698e-30)
(0.00335698 -0.0005537 0)
(0.0035533 -0.000543309 1.38764e-29)
(0.00374737 -0.000532461 0)
(0.003939 -0.000521195 0)
(0.00412797 -0.000509558 -1.29768e-29)
(0.00431411 -0.000497595 0)
(0.00449724 -0.000485352 1.23337e-29)
(0.00467721 -0.000472877 6.05658e-30)
(0.00485387 -0.000460217 -5.89087e-30)
(0.00502711 -0.000447418 5.7234e-30)
(0.00519681 -0.000434525 5.55476e-30)
(0.00536287 -0.00042158 0)
(0.00552521 -0.000408625 0)
(0.00568377 -0.000395696 -5.04715e-30)
(0.0058385 -0.000382829 -1.44992e-29)
(0.00598935 -0.000370058 0)
(0.0061363 -0.000357411 0)
(0.00627933 -0.000344917 -4.38382e-30)
(0.00641845 -0.000332599 0)
(0.00655364 -0.000320478 0)
(0.00668493 -0.000308573 3.9093e-30)
(0.00681235 -0.000296902 0)
(0.00693591 -0.000285477 1.06597e-29)
(0.00705566 -0.00027431 6.92416e-30)
(0.00717165 -0.000263411 0)
(0.00728391 -0.000252787 0)
(0.00739251 -0.000242445 -1.1836e-29)
(0.00749751 -0.000232389 -1.13062e-29)
(0.00759895 -0.000222622 -1.07917e-29)
(0.00769692 -0.000213145 1.56204e-29)
(0.00779147 -0.00020396 5.08828e-30)
(0.00788268 -0.000195064 -4.48396e-30)
(0.00797062 -0.000186458 8.88691e-30)
(0.00805536 -0.000178138 -4.41457e-30)
(0.00813698 -0.000170101 0)
(0.00821555 -0.000162345 4.00256e-30)
(0.00829116 -0.000154864 1.10307e-29)
(0.00836386 -0.000147655 0)
(0.00843375 -0.000140712 0)
(0.00850089 -0.000134029 0)
(0.00856538 -0.000127602 3.09622e-30)
(0.00862727 -0.000121424 0)
(0.00868665 -0.00011549 5.15035e-30)
(0.00874359 -0.000109793 0)
(0.00879817 -0.000104327 4.56271e-30)
(0.00885046 -9.90861e-05 0)
(0.00890053 -9.40633e-05 -4.02241e-30)
(0.00894846 -8.92526e-05 0)
(0.00899431 -8.46475e-05 3.52677e-30)
(0.00903815 -8.02417e-05 -5.15567e-30)
(0.00908006 -7.60289e-05 0)
(0.00912009 -7.20028e-05 -2.86118e-30)
(0.00915832 -6.81572e-05 1.5456e-30)
(0.00919481 -6.4486e-05 1.44984e-30)
(0.00922961 -6.09831e-05 0)
(0.0092628 -5.76427e-05 -3.37664e-30)
(0.00929444 -5.44588e-05 1.18829e-30)
(0.00932457 -5.14258e-05 0)
(0.00935326 -4.8538e-05 -1.03385e-30)
(0.00938057 -4.57899e-05 -1.4814e-30)
(0.00940655 -4.31761e-05 0)
(0.00943125 -4.06914e-05 8.29184e-31)
(0.00945472 -3.83307e-05 0)
(0.00947701 -3.60889e-05 2.61635e-31)
(0.00949818 -3.39612e-05 0)
(0.00951826 -3.19428e-05 -1.51543e-31)
(0.00953731 -3.00292e-05 5.51067e-31)
(0.00955537 -2.82159e-05 1.06011e-30)
(0.00957248 -2.64985e-05 1.84982e-30)
(0.00958868 -2.48728e-05 -1.59385e-30)
(0.00960402 -2.33348e-05 0)
(0.00961853 -2.18805e-05 0)
(0.00963225 -2.05061e-05 0)
(0.00964521 -1.9208e-05 -3.73274e-31)
(0.00965746 -1.79825e-05 -4.7366e-31)
(0.00966902 -1.68262e-05 4.13338e-31)
(0.00967993 -1.57358e-05 0)
(0.00969022 -1.47082e-05 6.59891e-33)
(0.00969992 -1.37402e-05 -2.52335e-31)
(0.00970906 -1.2829e-05 -2.04792e-31)
(0.00971767 -1.19716e-05 0)
(0.00972576 -1.11653e-05 0)
(0.00973338 -1.04075e-05 0)
(0.00974054 -9.69572e-06 -4.13209e-32)
(0.00974726 -9.02754e-06 0)
(0.00975358 -8.40063e-06 9.7359e-31)
(0.00975951 -7.81279e-06 9.78578e-31)
(0.00976507 -7.26191e-06 -1.09351e-30)
(0.00977028 -6.74596e-06 0)
(0.00977516 -6.26302e-06 -1.33647e-30)
(0.00977973 -5.81123e-06 0)
(0.00978401 -5.38885e-06 -1.29075e-30)
(0.00978801 -4.99419e-06 1.53629e-30)
(0.00979175 -4.62566e-06 1.59434e-30)
(0.00979524 -4.28174e-06 0)
(0.0097985 -3.96097e-06 1.18323e-30)
(0.00980155 -3.66199e-06 -1.47261e-30)
(0.00980439 -3.38348e-06 2.88027e-31)
(0.00980703 -3.12421e-06 0)
(0.00980949 -2.883e-06 3.14145e-31)
(0.00981178 -2.65873e-06 -1.25245e-30)
(0.00981392 -2.45034e-06 0)
(0.0098159 -2.25684e-06 -1.62062e-30)
(0.00981774 -2.07726e-06 -1.63953e-30)
(0.00981945 -1.91073e-06 -1.65708e-30)
(0.00982103 -1.75638e-06 0)
(0.0098225 -1.61342e-06 0)
(0.00982387 -1.4811e-06 0)
(0.00982513 -1.35869e-06 2.10892e-30)
(0.0098263 -1.24554e-06 -3.99588e-31)
(0.00982738 -1.141e-06 0)
(0.00982837 -1.04448e-06 1.74833e-30)
(0.00982929 -9.5542e-07 1.75771e-30)
(0.00983014 -8.73289e-07 0)
(0.00983093 -7.97589e-07 -8.45933e-31)
(0.00983165 -7.27851e-07 3.56338e-30)
(0.00983231 -6.63635e-07 8.59916e-31)
(0.00983292 -6.04524e-07 -4.45544e-30)
(0.00983349 -5.50124e-07 0)
(0.009834 -5.00065e-07 0)
(0.00983447 -4.53995e-07 0)
(0.00983491 -4.11578e-07 8.86228e-31)
(0.0098353 -3.72493e-07 4.52854e-30)
(0.00983566 -3.36432e-07 3.64583e-30)
(0.00983599 -3.03096e-07 8.97543e-31)
(0.00983629 -2.7219e-07 4.56011e-30)
(0.00983656 -2.43424e-07 -9.03768e-31)
(0.0098368 -2.16501e-07 0)
(0.00983702 -1.91119e-07 0)
(0.00983721 -1.6696e-07 -4.5932e-30)
(0.00983738 -1.43683e-07 0)
(0.00983753 -1.20914e-07 0)
(0.00983765 -9.82338e-08 3.69584e-30)
(0.00983774 -7.51618e-08 0)
(0.00983782 -5.11378e-08 4.6294e-30)
(0.00983786 -2.54965e-08 9.26423e-31)
(0.00983787 2.56376e-09 0)
(0.00983785 3.40206e-08 4.65584e-30)
(0.00983779 7.00793e-08 0)
(0.00983769 1.12238e-07 0)
(0.00983752 1.62373e-07 9.45817e-31)
(0.0098373 2.2285e-07 3.76211e-30)
(0.00983698 2.96667e-07 9.59653e-31)
(0.00983657 3.87646e-07 0)
(0.00983602 5.00681e-07 0)
(0.00983531 6.42075e-07 4.84325e-30)
(0.0098344 8.19989e-07 0)
(0.00983322 1.04506e-06 4.96727e-30)
(0.0098317 1.33123e-06 0)
(0.00982975 1.69695e-06 0)
(0.00982724 2.16687e-06 0)
(0.009824 2.77431e-06 -1.21461e-30)
(0.0098198 3.56494e-06 0)
(0.00981434 4.60255e-06 1.40273e-30)
(0.00980721 5.97823e-06 0)
(0.00979781 7.82575e-06 0)
(0.00978534 1.03488e-05 5.83648e-30)
(0.00976859 1.38722e-05 -6.55877e-30)
(0.00974573 1.89458e-05 0)
(0.00971388 2.65771e-05 0)
(0.00966808 3.88226e-05 0)
(0.00959927 6.05485e-05 1.79602e-29)
(0.00948992 0.000105868 0)
(0.00931742 0.000227953 -1.01318e-28)
(0.000100844 -0.00106931 5.527e-29)
(0.000303362 -0.00106792 -7.21953e-33)
(0.000507185 -0.00106559 0)
(0.000712139 -0.00106228 1.68702e-32)
(0.000918037 -0.00105797 0)
(0.00112468 -0.00105265 0)
(0.00133187 -0.00104628 -5.3934e-29)
(0.00153938 -0.00103885 -2.6781e-29)
(0.00174699 -0.00103035 2.65101e-29)
(0.00195445 -0.00102077 -2.6294e-29)
(0.00216153 -0.00101011 0)
(0.00236797 -0.000998374 0)
(0.00257351 -0.000985581 -2.52943e-29)
(0.00277791 -0.000971757 -4.9845e-29)
(0.00298091 -0.000956938 4.90501e-29)
(0.00318225 -0.000941168 0)
(0.0033817 -0.0009245 4.73163e-29)
(0.00357901 -0.000906995 2.32762e-29)
(0.00377396 -0.000888722 0)
(0.00396633 -0.000869752 4.44031e-29)
(0.00415594 -0.000850163 -2.17799e-29)
(0.00434258 -0.000830034 -4.22964e-29)
(0.00452609 -0.000809445 2.07099e-29)
(0.00470632 -0.000788478 0)
(0.00488313 -0.000767212 3.89721e-29)
(0.0050564 -0.000745726 3.78367e-29)
(0.00522603 -0.000724094 0)
(0.00539193 -0.000702389 3.55487e-29)
(0.00555403 -0.000680679 0)
(0.00571226 -0.000659026 3.32616e-29)
(0.00586658 -0.000637491 -1.62017e-29)
(0.00601697 -0.000616126 0)
(0.00616339 -0.000594982 0)
(0.00630585 -0.000574102 0)
(0.00644435 -0.000553525 0)
(0.0065789 -0.000533288 0)
(0.00670952 -0.00051342 0)
(0.00683623 -0.000493948 2.4568e-29)
(0.00695908 -0.000474894 -1.16184e-29)
(0.00707811 -0.000456276 0)
(0.00719336 -0.000438111 0)
(0.00730489 -0.00042041 0)
(0.00741275 -0.000403182 -3.99378e-29)
(0.00751701 -0.000386434 -1.92683e-29)
(0.00761773 -0.000370171 -3.59739e-31)
(0.00771498 -0.000354395 3.64326e-31)
(0.00780882 -0.000339105 -1.64251e-29)
(0.00789934 -0.000324301 -1.602e-29)
(0.0079866 -0.00030998 3.01656e-29)
(0.00807067 -0.000296138 1.41667e-29)
(0.00815164 -0.000282769 0)
(0.00822958 -0.000269867 1.2786e-29)
(0.00830456 -0.000257425 2.46564e-29)
(0.00837667 -0.000245435 0)
(0.00844597 -0.000233888 0)
(0.00851256 -0.000222776 -1.03114e-29)
(0.0085765 -0.00021209 0)
(0.00863787 -0.000201818 0)
(0.00869674 -0.000191952 2.64858e-29)
(0.0087532 -0.000182481 1.63881e-29)
(0.00880731 -0.000173394 8.13251e-30)
(0.00885914 -0.000164681 0)
(0.00890878 -0.000156332 -7.24084e-30)
(0.00895629 -0.000148335 0)
(0.00900174 -0.000140681 1.84186e-29)
(0.0090452 -0.000133357 -6.0402e-30)