/*--------------------------------*- C++ -*----------------------------------*\
  =========                 |
  \\      /  F ield         | OpenFOAM: The Open Source CFD Toolbox
   \\    /   O peration     | Website:  https://openfoam.org
    \\  /    A nd           | Version:  10
     \\/     M anipulation  |
\*---------------------------------------------------------------------------*/
FoamFile
{
    format      ascii;
    class       volScalarField;
    location    "2.48";
    object      p;
}
// * * * * * * * * * * * * * * * * * * * * * * * * * * * * * * * * * * * * * //

dimensions      [1 -1 -2 0 0 0 0];

internalField   nonuniform List<scalar> 
12225
(
1.78336e+07
1.77809e+07
1.76868e+07
1.75628e+07
1.74191e+07
1.72631e+07
1.71003e+07
1.69339e+07
1.67663e+07
1.65986e+07
1.64313e+07
1.62646e+07
1.60978e+07
1.59302e+07
1.576e+07
1.55843e+07
1.53971e+07
1.51835e+07
1.78357e+07
1.77828e+07
1.76884e+07
1.75641e+07
1.742e+07
1.72639e+07
1.71009e+07
1.69344e+07
1.67668e+07
1.65991e+07
1.64319e+07
1.62652e+07
1.60986e+07
1.59313e+07
1.57616e+07
1.55869e+07
1.54024e+07
1.51991e+07
1.78405e+07
1.77871e+07
1.76919e+07
1.75668e+07
1.74222e+07
1.72655e+07
1.71022e+07
1.69356e+07
1.67678e+07
1.66001e+07
1.6433e+07
1.62665e+07
1.61003e+07
1.59336e+07
1.5765e+07
1.55924e+07
1.54127e+07
1.52227e+07
1.78484e+07
1.77942e+07
1.76977e+07
1.75714e+07
1.74257e+07
1.72683e+07
1.71044e+07
1.69374e+07
1.67695e+07
1.66018e+07
1.64349e+07
1.62687e+07
1.61031e+07
1.59374e+07
1.57704e+07
1.56008e+07
1.54272e+07
1.52501e+07
1.78601e+07
1.78046e+07
1.77063e+07
1.75781e+07
1.74308e+07
1.72722e+07
1.71075e+07
1.69401e+07
1.67719e+07
1.66043e+07
1.64375e+07
1.62719e+07
1.61071e+07
1.59427e+07
1.57779e+07
1.56121e+07
1.54451e+07
1.52794e+07
1.78765e+07
1.78192e+07
1.77181e+07
1.75873e+07
1.74379e+07
1.72776e+07
1.71118e+07
1.69437e+07
1.67753e+07
1.66076e+07
1.64412e+07
1.62762e+07
1.61125e+07
1.59497e+07
1.57876e+07
1.5626e+07
1.54656e+07
1.53095e+07
1.78986e+07
1.78386e+07
1.77339e+07
1.75995e+07
1.74471e+07
1.72847e+07
1.71174e+07
1.69484e+07
1.67795e+07
1.66118e+07
1.64458e+07
1.62816e+07
1.61192e+07
1.59585e+07
1.57994e+07
1.56422e+07
1.54881e+07
1.534e+07
1.79276e+07
1.7864e+07
1.77542e+07
1.7615e+07
1.74587e+07
1.72935e+07
1.71243e+07
1.69542e+07
1.67848e+07
1.66171e+07
1.64516e+07
1.62883e+07
1.61275e+07
1.5969e+07
1.58131e+07
1.56603e+07
1.55121e+07
1.53705e+07
1.79652e+07
1.78966e+07
1.77799e+07
1.76344e+07
1.74731e+07
1.73043e+07
1.71328e+07
1.69612e+07
1.67912e+07
1.66235e+07
1.64585e+07
1.62963e+07
1.61372e+07
1.59811e+07
1.58286e+07
1.56801e+07
1.5537e+07
1.54011e+07
1.80135e+07
1.79377e+07
1.78119e+07
1.7658e+07
1.74904e+07
1.73172e+07
1.71427e+07
1.69695e+07
1.67987e+07
1.66309e+07
1.64665e+07
1.63056e+07
1.61483e+07
1.59948e+07
1.58456e+07
1.57012e+07
1.55628e+07
1.54316e+07
1.80754e+07
1.79894e+07
1.78509e+07
1.76863e+07
1.75107e+07
1.7332e+07
1.71541e+07
1.69789e+07
1.68072e+07
1.66394e+07
1.64757e+07
1.63161e+07
1.61607e+07
1.60098e+07
1.58638e+07
1.57232e+07
1.55889e+07
1.54618e+07
1.81482e+07
1.80484e+07
1.78941e+07
1.77166e+07
1.75319e+07
1.73473e+07
1.71658e+07
1.69885e+07
1.68159e+07
1.6648e+07
1.64849e+07
1.63266e+07
1.61731e+07
1.60246e+07
1.58814e+07
1.57441e+07
1.56132e+07
1.54893e+07
1.8238e+07
1.81185e+07
1.79434e+07
1.77501e+07
1.75549e+07
1.73635e+07
1.7178e+07
1.69985e+07
1.68249e+07
1.66571e+07
1.64947e+07
1.63377e+07
1.61861e+07
1.60399e+07
1.58995e+07
1.57651e+07
1.56372e+07
1.55162e+07
1.83708e+07
1.82161e+07
1.80079e+07
1.7792e+07
1.75825e+07
1.73826e+07
1.71921e+07
1.70101e+07
1.68355e+07
1.66678e+07
1.65063e+07
1.6351e+07
1.62015e+07
1.60579e+07
1.59204e+07
1.57891e+07
1.56643e+07
1.55462e+07
1.8578e+07
1.83519e+07
1.80895e+07
1.78411e+07
1.76133e+07
1.74032e+07
1.72071e+07
1.70224e+07
1.6847e+07
1.66796e+07
1.65195e+07
1.63661e+07
1.62191e+07
1.60784e+07
1.5944e+07
1.5816e+07
1.56943e+07
1.55791e+07
1.89289e+07
1.85334e+07
1.81805e+07
1.78894e+07
1.76409e+07
1.74206e+07
1.72197e+07
1.7033e+07
1.68575e+07
1.66913e+07
1.65331e+07
1.63822e+07
1.62381e+07
1.61006e+07
1.59696e+07
1.58449e+07
1.57265e+07
1.56143e+07
1.9611e+07
1.87155e+07
1.82391e+07
1.79108e+07
1.76495e+07
1.74247e+07
1.72229e+07
1.70371e+07
1.68636e+07
1.66999e+07
1.65448e+07
1.63973e+07
1.62569e+07
1.61231e+07
1.59958e+07
1.58746e+07
1.57595e+07
1.56503e+07
1.87703e+07
1.84404e+07
1.81209e+07
1.78467e+07
1.76092e+07
1.73976e+07
1.72049e+07
1.70262e+07
1.68588e+07
1.67006e+07
1.65507e+07
1.64081e+07
1.62724e+07
1.61431e+07
1.60199e+07
1.59027e+07
1.57911e+07
1.56851e+07
1.8209e+07
1.80751e+07
1.78917e+07
1.76982e+07
1.7509e+07
1.73281e+07
1.7156e+07
1.69924e+07
1.68366e+07
1.6688e+07
1.6546e+07
1.64104e+07
1.62808e+07
1.61571e+07
1.60389e+07
1.59261e+07
1.58185e+07
1.5716e+07
1.78901e+07
1.7814e+07
1.7693e+07
1.75502e+07
1.73989e+07
1.7246e+07
1.70949e+07
1.69472e+07
1.68039e+07
1.66654e+07
1.65318e+07
1.64031e+07
1.62795e+07
1.61609e+07
1.60472e+07
1.59384e+07
1.58342e+07
1.57347e+07
1.77084e+07
1.76539e+07
1.75614e+07
1.74456e+07
1.73171e+07
1.71825e+07
1.7046e+07
1.69099e+07
1.67759e+07
1.66449e+07
1.65176e+07
1.63942e+07
1.6275e+07
1.61602e+07
1.60497e+07
1.59437e+07
1.5842e+07
1.57446e+07
1.75884e+07
1.75446e+07
1.74678e+07
1.73683e+07
1.72547e+07
1.71327e+07
1.70067e+07
1.68792e+07
1.67523e+07
1.66272e+07
1.65047e+07
1.63853e+07
1.62696e+07
1.61577e+07
1.60498e+07
1.5946e+07
1.58462e+07
1.57504e+07
1.75073e+07
1.74695e+07
1.74019e+07
1.73126e+07
1.72087e+07
1.70953e+07
1.69767e+07
1.68554e+07
1.67337e+07
1.66129e+07
1.6494e+07
1.63778e+07
1.62646e+07
1.6155e+07
1.60489e+07
1.59467e+07
1.58483e+07
1.57537e+07
1.74522e+07
1.74179e+07
1.7356e+07
1.72732e+07
1.71757e+07
1.70682e+07
1.69546e+07
1.68378e+07
1.67197e+07
1.6602e+07
1.64857e+07
1.63717e+07
1.62605e+07
1.61524e+07
1.60478e+07
1.59467e+07
1.58493e+07
1.57556e+07
1.74149e+07
1.73829e+07
1.73245e+07
1.72459e+07
1.71526e+07
1.7049e+07
1.69389e+07
1.68251e+07
1.67096e+07
1.65941e+07
1.64796e+07
1.63672e+07
1.62572e+07
1.61503e+07
1.60466e+07
1.59464e+07
1.58498e+07
1.57567e+07
1.73902e+07
1.73595e+07
1.73034e+07
1.72275e+07
1.71369e+07
1.70359e+07
1.69281e+07
1.68163e+07
1.67025e+07
1.65885e+07
1.64753e+07
1.63639e+07
1.62549e+07
1.61487e+07
1.60457e+07
1.59461e+07
1.58499e+07
1.57573e+07
1.73743e+07
1.73445e+07
1.72898e+07
1.72156e+07
1.71267e+07
1.70273e+07
1.6921e+07
1.68105e+07
1.66979e+07
1.65848e+07
1.64724e+07
1.63617e+07
1.62533e+07
1.61476e+07
1.60451e+07
1.59458e+07
1.58499e+07
1.57576e+07
1.73647e+07
1.73354e+07
1.72815e+07
1.72083e+07
1.71204e+07
1.70221e+07
1.69167e+07
1.68069e+07
1.6695e+07
1.65824e+07
1.64706e+07
1.63603e+07
1.62523e+07
1.61469e+07
1.60446e+07
1.59456e+07
1.58499e+07
1.57577e+07
1.73595e+07
1.73304e+07
1.7277e+07
1.72043e+07
1.7117e+07
1.70192e+07
1.69143e+07
1.68049e+07
1.66934e+07
1.65812e+07
1.64696e+07
1.63595e+07
1.62517e+07
1.61465e+07
1.60443e+07
1.59454e+07
1.58499e+07
1.57578e+07
1.73574e+07
1.73284e+07
1.72752e+07
1.72027e+07
1.71156e+07
1.7018e+07
1.69133e+07
1.68041e+07
1.66927e+07
1.65806e+07
1.64692e+07
1.63592e+07
1.62514e+07
1.61463e+07
1.60442e+07
1.59454e+07
1.58498e+07
1.57578e+07
1.32198e+07
1.32188e+07
1.32166e+07
1.32133e+07
1.32089e+07
1.32034e+07
1.31966e+07
1.31887e+07
1.31795e+07
1.31692e+07
1.31575e+07
1.31446e+07
1.31304e+07
1.31149e+07
1.30981e+07
1.30799e+07
1.30604e+07
1.30396e+07
1.30174e+07
1.29939e+07
1.2969e+07
1.29427e+07
1.29151e+07
1.2886e+07
1.28556e+07
1.28237e+07
1.27904e+07
1.27557e+07
1.27196e+07
1.2682e+07
1.2643e+07
1.26024e+07
1.25604e+07
1.25168e+07
1.24717e+07
1.2425e+07
1.23768e+07
1.23269e+07
1.22754e+07
1.22223e+07
1.21674e+07
1.21108e+07
1.20524e+07
1.19922e+07
1.19301e+07
1.1866e+07
1.17998e+07
1.17314e+07
1.16606e+07
1.15874e+07
1.15115e+07
1.14327e+07
1.13505e+07
1.12647e+07
1.11746e+07
1.10792e+07
1.09769e+07
1.08642e+07
1.07319e+07
1.06826e+07
1.06791e+07
1.06759e+07
1.06727e+07
1.06697e+07
1.06667e+07
1.06637e+07
1.06608e+07
1.06579e+07
1.06551e+07
1.06522e+07
1.06494e+07
1.06466e+07
1.06438e+07
1.0641e+07
1.06382e+07
1.06355e+07
1.06327e+07
1.06299e+07
1.06272e+07
1.06244e+07
1.06217e+07
1.06189e+07
1.06162e+07
1.06134e+07
1.06107e+07
1.06079e+07
1.06052e+07
1.06024e+07
1.05996e+07
1.05968e+07
1.0594e+07
1.05912e+07
1.05884e+07
1.05856e+07
1.05828e+07
1.05799e+07
1.0577e+07
1.05742e+07
1.05713e+07
1.05684e+07
1.05655e+07
1.05625e+07
1.05596e+07
1.05566e+07
1.05537e+07
1.05507e+07
1.05477e+07
1.05446e+07
1.05416e+07
1.05385e+07
1.05354e+07
1.05323e+07
1.05292e+07
1.0526e+07
1.05229e+07
1.05197e+07
1.05165e+07
1.05132e+07
1.051e+07
1.05067e+07
1.05034e+07
1.05e+07
1.04967e+07
1.04933e+07
1.04899e+07
1.04865e+07
1.0483e+07
1.04796e+07
1.04761e+07
1.04725e+07
1.0469e+07
1.04654e+07
1.04618e+07
1.04582e+07
1.04545e+07
1.04508e+07
1.04471e+07
1.04433e+07
1.04396e+07
1.04358e+07
1.04319e+07
1.04281e+07
1.04242e+07
1.04203e+07
1.04163e+07
1.04123e+07
1.04083e+07
1.04043e+07
1.04002e+07
1.03961e+07
1.0392e+07
1.03878e+07
1.03836e+07
1.03794e+07
1.03751e+07
1.03708e+07
1.03665e+07
1.03621e+07
1.03577e+07
1.03533e+07
1.03488e+07
1.03443e+07
1.03398e+07
1.03352e+07
1.03306e+07
1.0326e+07
1.03213e+07
1.03166e+07
1.03118e+07
1.0307e+07
1.03022e+07
1.02974e+07
1.02925e+07
1.02876e+07
1.02827e+07
1.02777e+07
1.02727e+07
1.02677e+07
1.02627e+07
1.02578e+07
1.32241e+07
1.3223e+07
1.32208e+07
1.32176e+07
1.32131e+07
1.32076e+07
1.32008e+07
1.31928e+07
1.31836e+07
1.31732e+07
1.31615e+07
1.31485e+07
1.31343e+07
1.31187e+07
1.31018e+07
1.30836e+07
1.30641e+07
1.30432e+07
1.30209e+07
1.29973e+07
1.29724e+07
1.2946e+07
1.29183e+07
1.28892e+07
1.28587e+07
1.28268e+07
1.27935e+07
1.27587e+07
1.27226e+07
1.2685e+07
1.26459e+07
1.26054e+07
1.25633e+07
1.25198e+07
1.24747e+07
1.24281e+07
1.23798e+07
1.233e+07
1.22786e+07
1.22255e+07
1.21707e+07
1.21141e+07
1.20558e+07
1.19957e+07
1.19336e+07
1.18696e+07
1.18035e+07
1.17353e+07
1.16647e+07
1.15917e+07
1.15161e+07
1.14377e+07
1.13561e+07
1.12711e+07
1.11822e+07
1.10888e+07
1.09904e+07
1.08862e+07
1.07758e+07
1.06823e+07
1.06787e+07
1.06756e+07
1.06726e+07
1.06696e+07
1.06666e+07
1.06636e+07
1.06607e+07
1.06578e+07
1.0655e+07
1.06522e+07
1.06493e+07
1.06465e+07
1.06437e+07
1.0641e+07
1.06382e+07
1.06354e+07
1.06327e+07
1.06299e+07
1.06272e+07
1.06244e+07
1.06217e+07
1.06189e+07
1.06162e+07
1.06134e+07
1.06107e+07
1.06079e+07
1.06051e+07
1.06024e+07
1.05996e+07
1.05968e+07
1.0594e+07
1.05912e+07
1.05884e+07
1.05856e+07
1.05827e+07
1.05799e+07
1.0577e+07
1.05742e+07
1.05713e+07
1.05684e+07
1.05655e+07
1.05625e+07
1.05596e+07
1.05566e+07
1.05537e+07
1.05507e+07
1.05476e+07
1.05446e+07
1.05416e+07
1.05385e+07
1.05354e+07
1.05323e+07
1.05292e+07
1.0526e+07
1.05229e+07
1.05197e+07
1.05164e+07
1.05132e+07
1.051e+07
1.05067e+07
1.05034e+07
1.05e+07
1.04967e+07
1.04933e+07
1.04899e+07
1.04865e+07
1.0483e+07
1.04796e+07
1.04761e+07
1.04725e+07
1.0469e+07
1.04654e+07
1.04618e+07
1.04582e+07
1.04545e+07
1.04508e+07
1.04471e+07
1.04433e+07
1.04396e+07
1.04358e+07
1.04319e+07
1.04281e+07
1.04242e+07
1.04203e+07
1.04163e+07
1.04123e+07
1.04083e+07
1.04043e+07
1.04002e+07
1.03961e+07
1.0392e+07
1.03878e+07
1.03836e+07
1.03794e+07
1.03751e+07
1.03708e+07
1.03665e+07
1.03621e+07
1.03577e+07
1.03533e+07
1.03488e+07
1.03443e+07
1.03398e+07
1.03352e+07
1.03306e+07
1.0326e+07
1.03213e+07
1.03166e+07
1.03118e+07
1.0307e+07
1.03022e+07
1.02974e+07
1.02925e+07
1.02876e+07
1.02827e+07
1.02777e+07
1.02727e+07
1.02677e+07
1.02627e+07
1.02578e+07
1.32328e+07
1.32317e+07
1.32295e+07
1.32262e+07
1.32218e+07
1.32161e+07
1.32093e+07
1.32013e+07
1.3192e+07
1.31815e+07
1.31697e+07
1.31567e+07
1.31423e+07
1.31267e+07
1.31097e+07
1.30914e+07
1.30717e+07
1.30507e+07
1.30283e+07
1.30046e+07
1.29795e+07
1.2953e+07
1.29252e+07
1.2896e+07
1.28653e+07
1.28333e+07
1.27999e+07
1.27651e+07
1.27288e+07
1.26911e+07
1.2652e+07
1.26114e+07
1.25693e+07
1.25257e+07
1.24806e+07
1.24339e+07
1.23857e+07
1.23359e+07
1.22844e+07
1.22314e+07
1.21766e+07
1.21202e+07
1.20619e+07
1.20019e+07
1.194e+07
1.18761e+07
1.18103e+07
1.17423e+07
1.16721e+07
1.15996e+07
1.15245e+07
1.14468e+07
1.13662e+07
1.12825e+07
1.11953e+07
1.11042e+07
1.1009e+07
1.09089e+07
1.08027e+07
1.06848e+07
1.06783e+07
1.06753e+07
1.06723e+07
1.06693e+07
1.06664e+07
1.06635e+07
1.06606e+07
1.06577e+07
1.06549e+07
1.0652e+07
1.06492e+07
1.06464e+07
1.06436e+07
1.06409e+07
1.06381e+07
1.06353e+07
1.06326e+07
1.06298e+07
1.06271e+07
1.06244e+07
1.06216e+07
1.06189e+07
1.06161e+07
1.06134e+07
1.06106e+07
1.06079e+07
1.06051e+07
1.06023e+07
1.05996e+07
1.05968e+07
1.0594e+07
1.05912e+07
1.05884e+07
1.05855e+07
1.05827e+07
1.05799e+07
1.0577e+07
1.05741e+07
1.05713e+07
1.05684e+07
1.05655e+07
1.05625e+07
1.05596e+07
1.05566e+07
1.05536e+07
1.05506e+07
1.05476e+07
1.05446e+07
1.05416e+07
1.05385e+07
1.05354e+07
1.05323e+07
1.05292e+07
1.0526e+07
1.05228e+07
1.05197e+07
1.05164e+07
1.05132e+07
1.05099e+07
1.05067e+07
1.05034e+07
1.05e+07
1.04967e+07
1.04933e+07
1.04899e+07
1.04865e+07
1.0483e+07
1.04796e+07
1.04761e+07
1.04725e+07
1.0469e+07
1.04654e+07
1.04618e+07
1.04582e+07
1.04545e+07
1.04508e+07
1.04471e+07
1.04433e+07
1.04396e+07
1.04358e+07
1.04319e+07
1.04281e+07
1.04242e+07
1.04203e+07
1.04163e+07
1.04123e+07
1.04083e+07
1.04043e+07
1.04002e+07
1.03961e+07
1.0392e+07
1.03878e+07
1.03836e+07
1.03794e+07
1.03751e+07
1.03708e+07
1.03665e+07
1.03621e+07
1.03577e+07
1.03533e+07
1.03488e+07
1.03443e+07
1.03398e+07
1.03352e+07
1.03306e+07
1.0326e+07
1.03213e+07
1.03166e+07
1.03118e+07
1.0307e+07
1.03022e+07
1.02974e+07
1.02925e+07
1.02876e+07
1.02826e+07
1.02777e+07
1.02727e+07
1.02677e+07
1.02627e+07
1.02577e+07
1.32461e+07
1.3245e+07
1.32428e+07
1.32394e+07
1.32349e+07
1.32292e+07
1.32223e+07
1.32142e+07
1.32048e+07
1.31942e+07
1.31823e+07
1.31691e+07
1.31546e+07
1.31388e+07
1.31216e+07
1.31032e+07
1.30833e+07
1.30622e+07
1.30396e+07
1.30157e+07
1.29904e+07
1.29638e+07
1.29358e+07
1.29064e+07
1.28756e+07
1.28434e+07
1.28098e+07
1.27747e+07
1.27383e+07
1.27005e+07
1.26612e+07
1.26204e+07
1.25782e+07
1.25345e+07
1.24892e+07
1.24425e+07
1.23942e+07
1.23444e+07
1.22929e+07
1.22398e+07
1.21851e+07
1.21287e+07
1.20706e+07
1.20107e+07
1.1949e+07
1.18854e+07
1.18198e+07
1.17523e+07
1.16826e+07
1.16106e+07
1.15364e+07
1.14596e+07
1.13802e+07
1.1298e+07
1.12127e+07
1.1124e+07
1.10316e+07
1.09343e+07
1.08296e+07
1.07083e+07
1.06779e+07
1.06749e+07
1.06719e+07
1.0669e+07
1.06661e+07
1.06632e+07
1.06603e+07
1.06575e+07
1.06547e+07
1.06519e+07
1.06491e+07
1.06463e+07
1.06435e+07
1.06407e+07
1.0638e+07
1.06352e+07
1.06325e+07
1.06298e+07
1.0627e+07
1.06243e+07
1.06215e+07
1.06188e+07
1.06161e+07
1.06133e+07
1.06106e+07
1.06078e+07
1.0605e+07
1.06023e+07
1.05995e+07
1.05967e+07
1.05939e+07
1.05911e+07
1.05883e+07
1.05855e+07
1.05827e+07
1.05798e+07
1.0577e+07
1.05741e+07
1.05712e+07
1.05683e+07
1.05654e+07
1.05625e+07
1.05596e+07
1.05566e+07
1.05536e+07
1.05506e+07
1.05476e+07
1.05446e+07
1.05415e+07
1.05385e+07
1.05354e+07
1.05323e+07
1.05292e+07
1.0526e+07
1.05228e+07
1.05196e+07
1.05164e+07
1.05132e+07
1.05099e+07
1.05067e+07
1.05034e+07
1.05e+07
1.04967e+07
1.04933e+07
1.04899e+07
1.04865e+07
1.0483e+07
1.04796e+07
1.04761e+07
1.04725e+07
1.0469e+07
1.04654e+07
1.04618e+07
1.04582e+07
1.04545e+07
1.04508e+07
1.04471e+07
1.04433e+07
1.04396e+07
1.04358e+07
1.04319e+07
1.04281e+07
1.04242e+07
1.04203e+07
1.04163e+07
1.04123e+07
1.04083e+07
1.04043e+07
1.04002e+07
1.03961e+07
1.0392e+07
1.03878e+07
1.03836e+07
1.03794e+07
1.03751e+07
1.03708e+07
1.03665e+07
1.03621e+07
1.03577e+07
1.03533e+07
1.03488e+07
1.03443e+07
1.03398e+07
1.03352e+07
1.03306e+07
1.03259e+07
1.03213e+07
1.03166e+07
1.03118e+07
1.0307e+07
1.03022e+07
1.02974e+07
1.02925e+07
1.02876e+07
1.02826e+07
1.02777e+07
1.02727e+07
1.02677e+07
1.02626e+07
1.02576e+07
1.3264e+07
1.32628e+07
1.32606e+07
1.32571e+07
1.32525e+07
1.32467e+07
1.32397e+07
1.32315e+07
1.32219e+07
1.32112e+07
1.31991e+07
1.31857e+07
1.3171e+07
1.3155e+07
1.31377e+07
1.3119e+07
1.30989e+07
1.30775e+07
1.30547e+07
1.30306e+07
1.3005e+07
1.29781e+07
1.29499e+07
1.29202e+07
1.28891e+07
1.28567e+07
1.28228e+07
1.27876e+07
1.27509e+07
1.27128e+07
1.26733e+07
1.26323e+07
1.25899e+07
1.2546e+07
1.25006e+07
1.24538e+07
1.24054e+07
1.23554e+07
1.2304e+07
1.22509e+07
1.21962e+07
1.21398e+07
1.20818e+07
1.20221e+07
1.19606e+07
1.18973e+07
1.18321e+07
1.1765e+07
1.16959e+07
1.16247e+07
1.15513e+07
1.14756e+07
1.13976e+07
1.1317e+07
1.12338e+07
1.11477e+07
1.10586e+07
1.09662e+07
1.08705e+07
1.07721e+07
1.06786e+07
1.06744e+07
1.06715e+07
1.06686e+07
1.06657e+07
1.06629e+07
1.06601e+07
1.06572e+07
1.06544e+07
1.06516e+07
1.06489e+07
1.06461e+07
1.06433e+07
1.06406e+07
1.06378e+07
1.06351e+07
1.06324e+07
1.06296e+07
1.06269e+07
1.06242e+07
1.06214e+07
1.06187e+07
1.0616e+07
1.06132e+07
1.06105e+07
1.06077e+07
1.0605e+07
1.06022e+07
1.05994e+07
1.05967e+07
1.05939e+07
1.05911e+07
1.05883e+07
1.05855e+07
1.05826e+07
1.05798e+07
1.0577e+07
1.05741e+07
1.05712e+07
1.05683e+07
1.05654e+07
1.05625e+07
1.05595e+07
1.05566e+07
1.05536e+07
1.05506e+07
1.05476e+07
1.05446e+07
1.05415e+07
1.05385e+07
1.05354e+07
1.05323e+07
1.05291e+07
1.0526e+07
1.05228e+07
1.05196e+07
1.05164e+07
1.05132e+07
1.05099e+07
1.05067e+07
1.05033e+07
1.05e+07
1.04967e+07
1.04933e+07
1.04899e+07
1.04865e+07
1.0483e+07
1.04795e+07
1.0476e+07
1.04725e+07
1.0469e+07
1.04654e+07
1.04618e+07
1.04581e+07
1.04545e+07
1.04508e+07
1.04471e+07
1.04433e+07
1.04396e+07
1.04358e+07
1.04319e+07
1.04281e+07
1.04242e+07
1.04203e+07
1.04163e+07
1.04123e+07
1.04083e+07
1.04043e+07
1.04002e+07
1.03961e+07
1.0392e+07
1.03878e+07
1.03836e+07
1.03794e+07
1.03751e+07
1.03708e+07
1.03665e+07
1.03621e+07
1.03577e+07
1.03533e+07
1.03488e+07
1.03443e+07
1.03398e+07
1.03352e+07
1.03306e+07
1.03259e+07
1.03213e+07
1.03166e+07
1.03118e+07
1.0307e+07
1.03022e+07
1.02974e+07
1.02925e+07
1.02876e+07
1.02826e+07
1.02776e+07
1.02727e+07
1.02676e+07
1.02626e+07
1.02575e+07
1.32865e+07
1.32853e+07
1.3283e+07
1.32795e+07
1.32748e+07
1.32688e+07
1.32617e+07
1.32532e+07
1.32435e+07
1.32325e+07
1.32202e+07
1.32066e+07
1.31917e+07
1.31754e+07
1.31577e+07
1.31387e+07
1.31184e+07
1.30966e+07
1.30735e+07
1.30491e+07
1.30232e+07
1.2996e+07
1.29674e+07
1.29374e+07
1.2906e+07
1.28732e+07
1.2839e+07
1.28034e+07
1.27665e+07
1.27281e+07
1.26883e+07
1.2647e+07
1.26044e+07
1.25602e+07
1.25147e+07
1.24676e+07
1.24191e+07
1.2369e+07
1.23175e+07
1.22643e+07
1.22097e+07
1.21534e+07
1.20955e+07
1.20359e+07
1.19746e+07
1.19116e+07
1.18468e+07
1.17802e+07
1.17118e+07
1.16413e+07
1.15689e+07
1.14944e+07
1.14177e+07
1.13388e+07
1.12576e+07
1.1174e+07
1.10878e+07
1.09988e+07
1.09065e+07
1.08087e+07
1.0696e+07
1.06739e+07
1.0671e+07
1.06682e+07
1.06653e+07
1.06625e+07
1.06597e+07
1.06569e+07
1.06541e+07
1.06514e+07
1.06486e+07
1.06459e+07
1.06431e+07
1.06404e+07
1.06376e+07
1.06349e+07
1.06322e+07
1.06295e+07
1.06267e+07
1.0624e+07
1.06213e+07
1.06186e+07
1.06159e+07
1.06131e+07
1.06104e+07
1.06076e+07
1.06049e+07
1.06021e+07
1.05994e+07
1.05966e+07
1.05938e+07
1.0591e+07
1.05882e+07
1.05854e+07
1.05826e+07
1.05798e+07
1.05769e+07
1.0574e+07
1.05712e+07
1.05683e+07
1.05654e+07
1.05624e+07
1.05595e+07
1.05566e+07
1.05536e+07
1.05506e+07
1.05476e+07
1.05446e+07
1.05415e+07
1.05384e+07
1.05354e+07
1.05323e+07
1.05291e+07
1.0526e+07
1.05228e+07
1.05196e+07
1.05164e+07
1.05132e+07
1.05099e+07
1.05066e+07
1.05033e+07
1.05e+07
1.04967e+07
1.04933e+07
1.04899e+07
1.04865e+07
1.0483e+07
1.04795e+07
1.0476e+07
1.04725e+07
1.0469e+07
1.04654e+07
1.04618e+07
1.04581e+07
1.04545e+07
1.04508e+07
1.04471e+07
1.04433e+07
1.04396e+07
1.04358e+07
1.04319e+07
1.04281e+07
1.04242e+07
1.04203e+07
1.04163e+07
1.04123e+07
1.04083e+07
1.04043e+07
1.04002e+07
1.03961e+07
1.0392e+07
1.03878e+07
1.03836e+07
1.03794e+07
1.03751e+07
1.03708e+07
1.03665e+07
1.03621e+07
1.03577e+07
1.03533e+07
1.03488e+07
1.03443e+07
1.03398e+07
1.03352e+07
1.03306e+07
1.03259e+07
1.03213e+07
1.03166e+07
1.03118e+07
1.0307e+07
1.03022e+07
1.02974e+07
1.02925e+07
1.02876e+07
1.02826e+07
1.02776e+07
1.02726e+07
1.02676e+07
1.02625e+07
1.02575e+07
1.33138e+07
1.33125e+07
1.33101e+07
1.33065e+07
1.33016e+07
1.32955e+07
1.32882e+07
1.32795e+07
1.32696e+07
1.32583e+07
1.32457e+07
1.32318e+07
1.32165e+07
1.31998e+07
1.31818e+07
1.31624e+07
1.31417e+07
1.31196e+07
1.3096e+07
1.30712e+07
1.30449e+07
1.30172e+07
1.29882e+07
1.29578e+07
1.2926e+07
1.28928e+07
1.28582e+07
1.28222e+07
1.27849e+07
1.27461e+07
1.2706e+07
1.26644e+07
1.26214e+07
1.2577e+07
1.25312e+07
1.24839e+07
1.24352e+07
1.2385e+07
1.23333e+07
1.22801e+07
1.22254e+07
1.21692e+07
1.21113e+07
1.20519e+07
1.19909e+07
1.19282e+07
1.18638e+07
1.17978e+07
1.17299e+07
1.16603e+07
1.15888e+07
1.15154e+07
1.14401e+07
1.13628e+07
1.12835e+07
1.12022e+07
1.11187e+07
1.10331e+07
1.09453e+07
1.08552e+07
1.07632e+07
1.06747e+07
1.06704e+07
1.06676e+07
1.06648e+07
1.06621e+07
1.06593e+07
1.06565e+07
1.06538e+07
1.0651e+07
1.06483e+07
1.06456e+07
1.06429e+07
1.06401e+07
1.06374e+07
1.06347e+07
1.0632e+07
1.06293e+07
1.06266e+07
1.06239e+07
1.06212e+07
1.06184e+07
1.06157e+07
1.0613e+07
1.06103e+07
1.06075e+07
1.06048e+07
1.0602e+07
1.05993e+07
1.05965e+07
1.05937e+07
1.0591e+07
1.05882e+07
1.05854e+07
1.05825e+07
1.05797e+07
1.05769e+07
1.0574e+07
1.05711e+07
1.05682e+07
1.05653e+07
1.05624e+07
1.05595e+07
1.05565e+07
1.05535e+07
1.05506e+07
1.05476e+07
1.05445e+07
1.05415e+07
1.05384e+07
1.05353e+07
1.05322e+07
1.05291e+07
1.0526e+07
1.05228e+07
1.05196e+07
1.05164e+07
1.05132e+07
1.05099e+07
1.05066e+07
1.05033e+07
1.05e+07
1.04967e+07
1.04933e+07
1.04899e+07
1.04865e+07
1.0483e+07
1.04795e+07
1.0476e+07
1.04725e+07
1.0469e+07
1.04654e+07
1.04618e+07
1.04581e+07
1.04545e+07
1.04508e+07
1.04471e+07
1.04433e+07
1.04396e+07
1.04358e+07
1.04319e+07
1.04281e+07
1.04242e+07
1.04202e+07
1.04163e+07
1.04123e+07
1.04083e+07
1.04043e+07
1.04002e+07
1.03961e+07
1.0392e+07
1.03878e+07
1.03836e+07
1.03794e+07
1.03751e+07
1.03708e+07
1.03665e+07
1.03621e+07
1.03577e+07
1.03533e+07
1.03488e+07
1.03443e+07
1.03398e+07
1.03352e+07
1.03306e+07
1.03259e+07
1.03213e+07
1.03165e+07
1.03118e+07
1.0307e+07
1.03022e+07
1.02973e+07
1.02925e+07
1.02875e+07
1.02826e+07
1.02776e+07
1.02726e+07
1.02676e+07
1.02625e+07
1.02574e+07
1.33459e+07
1.33446e+07
1.33421e+07
1.33383e+07
1.33333e+07
1.3327e+07
1.33193e+07
1.33104e+07
1.33001e+07
1.32885e+07
1.32755e+07
1.32612e+07
1.32455e+07
1.32284e+07
1.32099e+07
1.31901e+07
1.31688e+07
1.31462e+07
1.31222e+07
1.30968e+07
1.307e+07
1.30418e+07
1.30123e+07
1.29814e+07
1.29491e+07
1.29154e+07
1.28803e+07
1.28439e+07
1.28061e+07
1.27669e+07
1.27263e+07
1.26843e+07
1.2641e+07
1.25963e+07
1.25501e+07
1.25026e+07
1.24536e+07
1.24032e+07
1.23514e+07
1.22981e+07
1.22433e+07
1.21871e+07
1.21293e+07
1.207e+07
1.20092e+07
1.19468e+07
1.18829e+07
1.18173e+07
1.175e+07
1.16811e+07
1.16106e+07
1.15383e+07
1.14642e+07
1.13884e+07
1.13109e+07
1.12316e+07
1.11506e+07
1.10677e+07
1.09829e+07
1.08959e+07
1.0805e+07
1.07033e+07
1.06699e+07
1.06671e+07
1.06643e+07
1.06616e+07
1.06588e+07
1.06561e+07
1.06534e+07
1.06507e+07
1.0648e+07
1.06453e+07
1.06426e+07
1.06399e+07
1.06372e+07
1.06345e+07
1.06318e+07
1.06291e+07
1.06264e+07
1.06237e+07
1.0621e+07
1.06183e+07
1.06156e+07
1.06129e+07
1.06101e+07
1.06074e+07
1.06047e+07
1.06019e+07
1.05992e+07
1.05964e+07
1.05937e+07
1.05909e+07
1.05881e+07
1.05853e+07
1.05825e+07
1.05796e+07
1.05768e+07
1.05739e+07
1.05711e+07
1.05682e+07
1.05653e+07
1.05624e+07
1.05594e+07
1.05565e+07
1.05535e+07
1.05505e+07
1.05475e+07
1.05445e+07
1.05415e+07
1.05384e+07
1.05353e+07
1.05322e+07
1.05291e+07
1.05259e+07
1.05228e+07
1.05196e+07
1.05164e+07
1.05132e+07
1.05099e+07
1.05066e+07
1.05033e+07
1.05e+07
1.04966e+07
1.04933e+07
1.04899e+07
1.04864e+07
1.0483e+07
1.04795e+07
1.0476e+07
1.04725e+07
1.04689e+07
1.04654e+07
1.04618e+07
1.04581e+07
1.04545e+07
1.04508e+07
1.04471e+07
1.04433e+07
1.04395e+07
1.04357e+07
1.04319e+07
1.04281e+07
1.04242e+07
1.04202e+07
1.04163e+07
1.04123e+07
1.04083e+07
1.04043e+07
1.04002e+07
1.03961e+07
1.03919e+07
1.03878e+07
1.03836e+07
1.03793e+07
1.03751e+07
1.03708e+07
1.03665e+07
1.03621e+07
1.03577e+07
1.03533e+07
1.03488e+07
1.03443e+07
1.03398e+07
1.03352e+07
1.03306e+07
1.03259e+07
1.03213e+07
1.03165e+07
1.03118e+07
1.0307e+07
1.03022e+07
1.02973e+07
1.02924e+07
1.02875e+07
1.02826e+07
1.02776e+07
1.02726e+07
1.02675e+07
1.02624e+07
1.02573e+07
1.33829e+07
1.33816e+07
1.33789e+07
1.3375e+07
1.33697e+07
1.33632e+07
1.33552e+07
1.3346e+07
1.33353e+07
1.33233e+07
1.33098e+07
1.3295e+07
1.32788e+07
1.32611e+07
1.32421e+07
1.32217e+07
1.31998e+07
1.31766e+07
1.3152e+07
1.3126e+07
1.30985e+07
1.30698e+07
1.30396e+07
1.30081e+07
1.29751e+07
1.29409e+07
1.29052e+07
1.28682e+07
1.28299e+07
1.27902e+07
1.27491e+07
1.27067e+07
1.26629e+07
1.26178e+07
1.25713e+07
1.25234e+07
1.24742e+07
1.24235e+07
1.23715e+07
1.2318e+07
1.22632e+07
1.22069e+07
1.21492e+07
1.209e+07
1.20294e+07
1.19673e+07
1.19036e+07
1.18385e+07
1.17719e+07
1.17037e+07
1.16339e+07
1.15626e+07
1.14898e+07
1.14154e+07
1.13394e+07
1.12619e+07
1.11829e+07
1.11024e+07
1.10204e+07
1.09369e+07
1.08514e+07
1.07634e+07
1.06716e+07
1.06664e+07
1.06637e+07
1.0661e+07
1.06584e+07
1.06557e+07
1.0653e+07
1.06503e+07
1.06476e+07
1.06449e+07
1.06422e+07
1.06396e+07
1.06369e+07
1.06342e+07
1.06315e+07
1.06288e+07
1.06262e+07
1.06235e+07
1.06208e+07
1.06181e+07
1.06154e+07
1.06127e+07
1.061e+07
1.06073e+07
1.06045e+07
1.06018e+07
1.05991e+07
1.05963e+07
1.05936e+07
1.05908e+07
1.0588e+07
1.05852e+07
1.05824e+07
1.05796e+07
1.05767e+07
1.05739e+07
1.0571e+07
1.05681e+07
1.05652e+07
1.05623e+07
1.05594e+07
1.05564e+07
1.05535e+07
1.05505e+07
1.05475e+07
1.05445e+07
1.05414e+07
1.05384e+07
1.05353e+07
1.05322e+07
1.05291e+07
1.05259e+07
1.05228e+07
1.05196e+07
1.05164e+07
1.05131e+07
1.05099e+07
1.05066e+07
1.05033e+07
1.05e+07
1.04966e+07
1.04933e+07
1.04899e+07
1.04864e+07
1.0483e+07
1.04795e+07
1.0476e+07
1.04725e+07
1.04689e+07
1.04654e+07
1.04618e+07
1.04581e+07
1.04545e+07
1.04508e+07
1.04471e+07
1.04433e+07
1.04395e+07
1.04357e+07
1.04319e+07
1.04281e+07
1.04242e+07
1.04202e+07
1.04163e+07
1.04123e+07
1.04083e+07
1.04043e+07
1.04002e+07
1.03961e+07
1.03919e+07
1.03878e+07
1.03836e+07
1.03793e+07
1.03751e+07
1.03708e+07
1.03664e+07
1.03621e+07
1.03577e+07
1.03533e+07
1.03488e+07
1.03443e+07
1.03397e+07
1.03352e+07
1.03306e+07
1.03259e+07
1.03212e+07
1.03165e+07
1.03118e+07
1.0307e+07
1.03022e+07
1.02973e+07
1.02924e+07
1.02875e+07
1.02825e+07
1.02776e+07
1.02725e+07
1.02675e+07
1.02624e+07
1.02572e+07
1.34252e+07
1.34237e+07
1.34209e+07
1.34167e+07
1.34112e+07
1.34043e+07
1.3396e+07
1.33863e+07
1.33752e+07
1.33626e+07
1.33486e+07
1.33332e+07
1.33163e+07
1.32981e+07
1.32783e+07
1.32572e+07
1.32347e+07
1.32107e+07
1.31853e+07
1.31586e+07
1.31304e+07
1.31009e+07
1.307e+07
1.30378e+07
1.30041e+07
1.29692e+07
1.29329e+07
1.28953e+07
1.28563e+07
1.2816e+07
1.27744e+07
1.27314e+07
1.26871e+07
1.26415e+07
1.25946e+07
1.25463e+07
1.24967e+07
1.24458e+07
1.23935e+07
1.23399e+07
1.22849e+07
1.22285e+07
1.21708e+07
1.21117e+07
1.20512e+07
1.19893e+07
1.1926e+07
1.18613e+07
1.17951e+07
1.17276e+07
1.16586e+07
1.15882e+07
1.15164e+07
1.14432e+07
1.13686e+07
1.12927e+07
1.12155e+07
1.1137e+07
1.10573e+07
1.09763e+07
1.08941e+07
1.081e+07
1.07221e+07
1.06661e+07
1.06632e+07
1.06605e+07
1.06578e+07
1.06552e+07
1.06525e+07
1.06499e+07
1.06472e+07
1.06445e+07
1.06419e+07
1.06392e+07
1.06366e+07
1.06339e+07
1.06313e+07
1.06286e+07
1.06259e+07
1.06233e+07
1.06206e+07
1.06179e+07
1.06152e+07
1.06125e+07
1.06098e+07
1.06071e+07
1.06044e+07
1.06017e+07
1.05989e+07
1.05962e+07
1.05934e+07
1.05907e+07
1.05879e+07
1.05851e+07
1.05823e+07
1.05795e+07
1.05767e+07
1.05738e+07
1.05709e+07
1.05681e+07
1.05652e+07
1.05623e+07
1.05593e+07
1.05564e+07
1.05534e+07
1.05505e+07
1.05475e+07
1.05444e+07
1.05414e+07
1.05383e+07
1.05353e+07
1.05322e+07
1.0529e+07
1.05259e+07
1.05227e+07
1.05196e+07
1.05163e+07
1.05131e+07
1.05099e+07
1.05066e+07
1.05033e+07
1.05e+07
1.04966e+07
1.04932e+07
1.04899e+07
1.04864e+07
1.0483e+07
1.04795e+07
1.0476e+07
1.04725e+07
1.04689e+07
1.04654e+07
1.04618e+07
1.04581e+07
1.04545e+07
1.04508e+07
1.04471e+07
1.04433e+07
1.04395e+07
1.04357e+07
1.04319e+07
1.0428e+07
1.04242e+07
1.04202e+07
1.04163e+07
1.04123e+07
1.04083e+07
1.04043e+07
1.04002e+07
1.03961e+07
1.03919e+07
1.03878e+07
1.03836e+07
1.03793e+07
1.03751e+07
1.03708e+07
1.03664e+07
1.03621e+07
1.03577e+07
1.03532e+07
1.03488e+07
1.03443e+07
1.03397e+07
1.03352e+07
1.03306e+07
1.03259e+07
1.03212e+07
1.03165e+07
1.03118e+07
1.0307e+07
1.03022e+07
1.02973e+07
1.02924e+07
1.02875e+07
1.02825e+07
1.02775e+07
1.02725e+07
1.02674e+07
1.02623e+07
1.02571e+07
1.34727e+07
1.34711e+07
1.34681e+07
1.34637e+07
1.34579e+07
1.34506e+07
1.34418e+07
1.34316e+07
1.34199e+07
1.34067e+07
1.3392e+07
1.33759e+07
1.33583e+07
1.33392e+07
1.33186e+07
1.32967e+07
1.32733e+07
1.32484e+07
1.32222e+07
1.31946e+07
1.31656e+07
1.31352e+07
1.31035e+07
1.30704e+07
1.3036e+07
1.30002e+07
1.29632e+07
1.29248e+07
1.28851e+07
1.28441e+07
1.28018e+07
1.27583e+07
1.27134e+07
1.26673e+07
1.26199e+07
1.25711e+07
1.25211e+07
1.24699e+07
1.24173e+07
1.23634e+07
1.23082e+07
1.22517e+07
1.2194e+07
1.21349e+07
1.20745e+07
1.20127e+07
1.19497e+07
1.18853e+07
1.18196e+07
1.17526e+07
1.16843e+07
1.16147e+07
1.15438e+07
1.14716e+07
1.13982e+07
1.13236e+07
1.12479e+07
1.11711e+07
1.10932e+07
1.10143e+07
1.09341e+07
1.08523e+07
1.07669e+07
1.06704e+07
1.06625e+07
1.06599e+07
1.06573e+07
1.06546e+07
1.0652e+07
1.06494e+07
1.06468e+07
1.06441e+07
1.06415e+07
1.06389e+07
1.06362e+07
1.06336e+07
1.0631e+07
1.06283e+07
1.06257e+07
1.0623e+07
1.06203e+07
1.06177e+07
1.0615e+07
1.06123e+07
1.06096e+07
1.0607e+07
1.06042e+07
1.06015e+07
1.05988e+07
1.05961e+07
1.05933e+07
1.05906e+07
1.05878e+07
1.0585e+07
1.05822e+07
1.05794e+07
1.05766e+07
1.05737e+07
1.05709e+07
1.0568e+07
1.05651e+07
1.05622e+07
1.05593e+07
1.05563e+07
1.05534e+07
1.05504e+07
1.05474e+07
1.05444e+07
1.05414e+07
1.05383e+07
1.05352e+07
1.05321e+07
1.0529e+07
1.05259e+07
1.05227e+07
1.05195e+07
1.05163e+07
1.05131e+07
1.05098e+07
1.05066e+07
1.05033e+07
1.05e+07
1.04966e+07
1.04932e+07
1.04898e+07