/*--------------------------------*- C++ -*----------------------------------*\
  =========                 |
  \\      /  F ield         | OpenFOAM: The Open Source CFD Toolbox
   \\    /   O peration     | Website:  https://openfoam.org
    \\  /    A nd           | Version:  10
     \\/     M anipulation  |
\*---------------------------------------------------------------------------*/
FoamFile
{
    format      ascii;
    class       surfaceScalarField;
    location    "18000";
    object      phi;
}
// * * * * * * * * * * * * * * * * * * * * * * * * * * * * * * * * * * * * * //

dimensions      [0 3 -1 0 0 0 0];

internalField   nonuniform List<scalar> 
12640
(
-3.05344e-08
3.05344e-08
-6.22573e-08
3.17229e-08
-9.66001e-08
3.43428e-08
-1.35604e-07
3.90034e-08
-1.82634e-07
4.70308e-08
-2.43794e-07
6.11595e-08
-3.24777e-07
8.09831e-08
-1.97527e-07
-1.2725e-07
-3.491e-06
3.29347e-06
-3.6028e-06
1.11802e-07
-3.1008e-06
-5.02e-07
-3.51535e-06
4.14547e-07
-3.4876e-06
-2.77469e-08
-3.48033e-06
-7.26821e-09
-3.44905e-06
-3.12879e-08
-3.49004e-06
4.09983e-08
-3.4746e-06
-1.54492e-08
-3.49641e-06
2.18131e-08
-3.46789e-06
-2.85173e-08
-3.41995e-06
-4.79454e-08
-3.31476e-06
-1.05186e-07
-3.2511e-06
-6.36639e-08
-3.20492e-06
-4.61725e-08
-3.14033e-06
-6.45903e-08
-3.09551e-06
-4.4824e-08
-3.06495e-06
-3.05593e-08
-3.03459e-06
-3.03622e-08
-3.0035e-06
-3.10874e-08
-2.96836e-06
-3.51382e-08
-2.91283e-06
-5.55317e-08
-2.8094e-06
-1.03429e-07
-2.63209e-06
-1.77308e-07
-2.50058e-06
-1.31513e-07
-2.32529e-06
-1.75292e-07
-2.09443e-06
-2.30862e-07
-1.79833e-06
-2.96091e-07
-1.43248e-06
-3.65857e-07
-1.00021e-06
-4.32264e-07
-5.14939e-07
-4.85274e-07
-1.44206e-17
-5.14939e-07
5.14939e-07
-5.14939e-07
1.00021e-06
-4.85274e-07
1.43248e-06
-4.32264e-07
1.79833e-06
-3.65857e-07
2.09443e-06
-2.96091e-07
2.32529e-06
-2.30862e-07
2.50058e-06
-1.75292e-07
2.63209e-06
-1.31513e-07
2.8094e-06
-1.77308e-07
2.91283e-06
-1.03429e-07
2.96836e-06
-5.55317e-08
3.0035e-06
-3.51382e-08
3.03459e-06
-3.10874e-08
3.06495e-06
-3.03622e-08
3.09551e-06
-3.05593e-08
3.14033e-06
-4.4824e-08
3.20492e-06
-6.45903e-08
3.2511e-06
-4.61725e-08
3.31476e-06
-6.36639e-08
3.41995e-06
-1.05186e-07
3.46789e-06
-4.79454e-08
3.49641e-06
-2.85173e-08
3.4746e-06
2.18131e-08
3.49004e-06
-1.54492e-08
3.44905e-06
4.09983e-08
3.48033e-06
-3.12879e-08
3.4876e-06
-7.26821e-09
3.51535e-06
-2.77469e-08
3.1008e-06
4.14547e-07
3.6028e-06
-5.02e-07
3.491e-06
1.11802e-07
1.97527e-07
3.29347e-06
3.24777e-07
-1.2725e-07
2.43794e-07
8.09831e-08
1.82634e-07
6.11595e-08
1.35604e-07
4.70308e-08
9.66001e-08
3.90034e-08
6.22573e-08
3.43428e-08
3.05344e-08
3.17229e-08
3.05344e-08
-3.34344e-08
6.39688e-08
-6.81609e-08
6.64494e-08
-1.05732e-07
7.19139e-08
-1.48352e-07
8.16234e-08
-1.99647e-07
9.83255e-08
-2.66457e-07
1.2797e-07
-3.66173e-07
1.80698e-07
-7.3981e-07
2.46388e-07
-1.59129e-07
2.71279e-06
-2.26688e-06
2.21956e-06
-3.10739e-06
3.38511e-07
-3.6957e-06
1.00285e-06
-3.67956e-06
-4.38894e-08
-3.69154e-06
4.71785e-09
-3.66457e-06
-5.82612e-08
-3.72174e-06
9.81718e-08
-3.70643e-06
-3.07652e-08
-3.73823e-06
5.36143e-08
-3.70977e-06
-5.69796e-08
-3.66314e-06
-9.45751e-08
-3.54819e-06
-2.20131e-07
-3.48313e-06
-1.2873e-07
-3.43703e-06
-9.22653e-08
-3.3674e-06
-1.34227e-07
-3.32082e-06
-9.13989e-08
-3.28979e-06
-6.15944e-08
-3.25819e-06
-6.19562e-08
-3.22581e-06
-6.34721e-08
-3.18958e-06
-7.1362e-08
-3.13188e-06
-1.13238e-07
-3.0225e-06
-2.12803e-07
-2.83663e-06
-3.63182e-07
-2.69813e-06
-2.70014e-07
-2.51263e-06
-3.6079e-07
-2.26684e-06
-4.76646e-07
-1.94968e-06
-6.13252e-07
-1.55562e-06
-7.59919e-07
-1.08778e-06
-9.00105e-07
-5.60586e-07
-1.01247e-06
-1.66154e-17
-1.07552e-06
5.60586e-07
-1.07552e-06
1.08778e-06
-1.01247e-06
1.55562e-06
-9.00105e-07
1.94968e-06
-7.59919e-07
2.26684e-06
-6.13252e-07
2.51263e-06
-4.76646e-07
2.69813e-06
-3.6079e-07
2.83663e-06
-2.70014e-07
3.0225e-06
-3.63182e-07
3.13188e-06
-2.12803e-07
3.18958e-06
-1.13238e-07
3.22581e-06
-7.1362e-08
3.25819e-06
-6.34721e-08
3.28979e-06
-6.19562e-08
3.32082e-06
-6.15944e-08
3.3674e-06
-9.13989e-08
3.43703e-06
-1.34227e-07
3.48313e-06
-9.22653e-08
3.54819e-06
-1.2873e-07
3.66314e-06
-2.20131e-07
3.70977e-06
-9.45751e-08
3.73823e-06
-5.69796e-08
3.70643e-06
5.36143e-08
3.72174e-06
-3.07652e-08
3.66457e-06
9.81718e-08
3.69154e-06
-5.82612e-08
3.67956e-06
4.71785e-09
3.6957e-06
-4.38894e-08
3.10739e-06
1.00285e-06
2.26688e-06
3.38511e-07
1.59129e-07
2.21956e-06
7.3981e-07
2.71279e-06
3.66173e-07
2.46388e-07
2.66457e-07
1.80698e-07
1.99647e-07
1.2797e-07
1.48352e-07
9.83255e-08
1.05732e-07
8.16234e-08
6.81609e-08
7.19139e-08
3.34344e-08
6.64494e-08
6.39688e-08
-3.65299e-08
1.00499e-07
-7.44482e-08
1.04368e-07
-1.15414e-07
1.1288e-07
-1.61761e-07
1.2797e-07
-2.17283e-07
1.53847e-07
-2.89243e-07
1.9993e-07
-3.97872e-07
2.89328e-07
-6.70465e-07
5.1898e-07
-2.54155e-07
2.29648e-06
-5.00095e-08
2.01541e-06
-3.07082e-07
5.95583e-07
-3.60775e-06
4.30352e-06
-3.82527e-06
1.7363e-07
-3.91427e-06
9.37231e-08
-3.89994e-06
-7.25956e-08
-3.99101e-06
1.89245e-07
-3.9709e-06
-5.08714e-08
-4.02193e-06
1.04645e-07
-3.99131e-06
-8.76004e-08
-3.94937e-06
-1.36522e-07
-3.81569e-06
-3.53805e-07
-3.75076e-06
-1.9366e-07
-3.70722e-06
-1.35809e-07
-3.62864e-06
-2.12803e-07
-3.5803e-06
-1.3974e-07
-3.54953e-06
-9.23705e-08
-3.51634e-06
-9.51443e-08
-3.48247e-06
-9.73367e-08
-3.44594e-06
-1.07899e-07
-3.38746e-06
-1.7172e-07
-3.27265e-06
-3.27604e-07
-3.08291e-06
-5.52923e-07
-2.94031e-06
-4.12616e-07
-2.74723e-06
-5.53876e-07
-2.48773e-06
-7.36138e-07
-2.14804e-06
-9.52945e-07
-1.72053e-06
-1.18743e-06
-1.2072e-06
-1.41343e-06
-6.23597e-07
-1.59607e-06
-1.95763e-17
-1.69912e-06
6.23597e-07
-1.69912e-06
1.2072e-06
-1.59607e-06
1.72053e-06
-1.41343e-06
2.14804e-06
-1.18743e-06
2.48773e-06
-9.52945e-07
2.74723e-06
-7.36138e-07
2.94031e-06
-5.53876e-07
3.08291e-06
-4.12616e-07
3.27265e-06
-5.52923e-07
3.38746e-06
-3.27604e-07
3.44594e-06
-1.7172e-07
3.48247e-06
-1.07899e-07
3.51634e-06
-9.73367e-08
3.54953e-06
-9.51443e-08
3.5803e-06
-9.23705e-08
3.62864e-06
-1.3974e-07
3.70722e-06
-2.12803e-07
3.75076e-06
-1.35809e-07
3.81569e-06
-1.9366e-07
3.94937e-06
-3.53805e-07
3.99131e-06
-1.36522e-07
4.02193e-06
-8.76004e-08
3.9709e-06
1.04645e-07
3.99101e-06
-5.08714e-08
3.89994e-06
1.89245e-07
3.91427e-06
-7.25956e-08
3.82527e-06
9.37231e-08
3.60775e-06
1.7363e-07
3.07082e-07
4.30352e-06
5.00095e-08
5.95583e-07
2.54155e-07
2.01541e-06
6.70465e-07
2.29648e-06
3.97872e-07
5.1898e-07
2.89243e-07
2.89328e-07
2.17283e-07
1.9993e-07
1.61761e-07
1.53847e-07
1.15414e-07
1.2797e-07
7.44482e-08
1.1288e-07
3.65299e-08
1.04368e-07
1.00499e-07
-3.98009e-08
1.403e-07
-8.10713e-08
1.45638e-07
-1.25552e-07
1.57361e-07
-1.75645e-07
1.78063e-07
-2.35153e-07
2.13355e-07
-3.11102e-07
2.7588e-07
-4.20605e-07
3.98831e-07
-6.13154e-07
7.11529e-07
-2.98091e-07
1.98142e-06
-1.5249e-07
1.86981e-06
-6.64808e-07
1.1079e-06
2.31794e-07
3.40692e-06
-6.97124e-07
1.10255e-06
-3.83099e-06
3.22759e-06
-4.06008e-06
1.56497e-07
-4.26216e-06
3.91325e-07
-4.24212e-06
-7.09115e-08
-4.33541e-06
1.97935e-07
-4.30098e-06
-1.22026e-07
-4.27281e-06
-1.64695e-07
-4.10633e-06
-5.2028e-07
-4.04602e-06
-2.53971e-07
-4.01034e-06
-1.71493e-07
-3.9167e-06
-3.06441e-07
-3.86752e-06
-1.88925e-07
-3.83876e-06
-1.21125e-07
-3.80371e-06
-1.30198e-07
-3.76839e-06
-1.32654e-07
-3.73314e-06
-1.4315e-07
-3.67668e-06
-2.28178e-07
-3.55756e-06
-4.46726e-07
-3.37262e-06
-7.37859e-07
-3.23171e-06
-5.53529e-07
-3.03693e-06
-7.48657e-07
-2.76798e-06
-1.00508e-06
-2.40636e-06
-1.31457e-06
-1.94061e-06
-1.65318e-06
-1.36995e-06
-1.9841e-06
-7.10656e-07
-2.25537e-06
-1.90076e-17
-2.40978e-06
7.10656e-07
-2.40978e-06
1.36995e-06
-2.25537e-06
1.94061e-06
-1.9841e-06
2.40636e-06
-1.65318e-06
2.76798e-06
-1.31457e-06
3.03693e-06
-1.00508e-06
3.23171e-06
-7.48657e-07
3.37262e-06
-5.53529e-07
3.55756e-06
-7.37859e-07
3.67668e-06
-4.46726e-07
3.73314e-06
-2.28178e-07
3.76839e-06
-1.4315e-07
3.80371e-06
-1.32654e-07
3.83876e-06
-1.30198e-07
3.86752e-06
-1.21125e-07
3.9167e-06
-1.88925e-07
4.01034e-06
-3.06441e-07
4.04602e-06
-1.71493e-07
4.10633e-06
-2.53971e-07
4.27281e-06
-5.2028e-07
4.30098e-06
-1.64695e-07
4.33541e-06
-1.22026e-07
4.24212e-06
1.97935e-07
4.26216e-06
-7.09115e-08
4.06008e-06
3.91325e-07
3.83099e-06
1.56497e-07
6.97124e-07
3.22759e-06
-2.31794e-07
1.10255e-06
6.64808e-07
3.40692e-06
1.5249e-07
1.1079e-06
2.98091e-07
1.86981e-06
6.13154e-07
1.98142e-06
4.20605e-07
7.11529e-07
3.11102e-07
3.98831e-07
2.35153e-07
2.7588e-07
1.75645e-07
2.13355e-07
1.25552e-07
1.78063e-07
8.10713e-08
1.57361e-07
3.98009e-08
1.45638e-07
1.403e-07
-4.32129e-08
1.83512e-07
-8.79513e-08
1.90376e-07
-1.35996e-07
2.05405e-07
-1.89732e-07
2.31799e-07
-2.52749e-07
2.76372e-07
-3.31053e-07
3.54184e-07
-4.35462e-07
5.03239e-07
-5.67471e-07
8.43539e-07
-3.36187e-07
1.75014e-06
-2.30283e-07
1.7639e-06
-5.38992e-07
1.41661e-06
6.57645e-08
2.80216e-06
-3.58718e-07
1.52703e-06
1.91075e-07
2.67779e-06
-7.46766e-07
1.09434e-06
-4.14566e-06
3.79022e-06
-4.38668e-06
1.70106e-07
-4.63823e-06
4.49487e-07
-4.61581e-06
-1.44449e-07
-4.62937e-06
-1.51129e-07
-4.40794e-06
-7.41714e-07
-4.36396e-06
-2.97951e-07
-4.34719e-06
-1.88256e-07
-4.2276e-06
-4.26039e-07
-4.1804e-06
-2.36116e-07
-4.15709e-06
-1.44442e-07
-4.11969e-06
-1.67597e-07
-4.08298e-06
-1.69361e-07
-4.05166e-06
-1.74472e-07
-4.00206e-06
-2.77773e-07
-3.87932e-06
-5.69473e-07
-3.71307e-06
-9.04103e-07
-3.58391e-06
-6.82688e-07
-3.39838e-06
-9.34193e-07
-3.12898e-06
-1.27448e-06
-2.74913e-06
-1.69442e-06
-2.24112e-06
-2.16118e-06
-1.59779e-06
-2.62743e-06
-8.34526e-07
-3.01863e-06
-4.45999e-18
-3.2443e-06
8.34526e-07
-3.2443e-06
1.59779e-06
-3.01863e-06
2.24112e-06
-2.62743e-06
2.74913e-06
-2.16118e-06
3.12898e-06
-1.69442e-06
3.39838e-06
-1.27448e-06
3.58391e-06
-9.34193e-07
3.71307e-06
-6.82688e-07
3.87932e-06
-9.04103e-07
4.00206e-06
-5.69473e-07
4.05166e-06
-2.77773e-07
4.08298e-06
-1.74472e-07
4.11969e-06
-1.69361e-07
4.15709e-06
-1.67597e-07
4.1804e-06
-1.44442e-07
4.2276e-06
-2.36116e-07
4.34719e-06
-4.26039e-07
4.36396e-06
-1.88256e-07
4.40794e-06
-2.97951e-07
4.62937e-06
-7.41714e-07
4.61581e-06
-1.51129e-07
4.63823e-06
-1.44449e-07
4.38668e-06
4.49487e-07
4.14566e-06
1.70106e-07
7.46766e-07
3.79022e-06
-1.91075e-07
1.09434e-06
3.58718e-07
2.67779e-06
-6.57645e-08
1.52703e-06
5.38992e-07
2.80216e-06
2.30283e-07
1.41661e-06
3.36187e-07
1.7639e-06
5.67471e-07
1.75014e-06
4.35462e-07
8.43539e-07
3.31053e-07
5.03239e-07
2.52749e-07
3.54184e-07
1.89732e-07
2.76372e-07
1.35996e-07
2.31799e-07
8.79513e-08
2.05405e-07
4.32129e-08
1.90376e-07
1.83512e-07
-4.67139e-08
2.30226e-07
-9.49715e-08
2.38634e-07
-1.46537e-07
2.5697e-07
-2.03667e-07
2.88929e-07
-2.69477e-07
3.42183e-07
-3.48273e-07
4.3298e-07
-4.43759e-07
5.98724e-07
-5.32192e-07
9.31972e-07
-3.67368e-07
1.58531e-06
-2.87143e-07
1.68368e-06
-4.5329e-07
1.58276e-06
-5.47689e-08
2.40364e-06
-2.78927e-07
1.75119e-06
5.39842e-08
2.34488e-06
-4.0356e-07
1.55188e-06
3.92221e-07
2.99444e-06
-4.88487e-07
1.05081e-06
-4.29539e-06
4.25639e-06
-4.68953e-06
2.49691e-07
-4.95052e-06
1.09852e-07
-4.67326e-06
-1.01897e-06
-4.68688e-06
-2.8433e-07
-4.71712e-06
-1.5802e-07
-4.55278e-06
-5.90371e-07
-4.51611e-06
-2.72786e-07
-4.50522e-06
-1.55335e-07
-4.4645e-06
-2.0832e-07
-4.42642e-06
-2.07444e-07
-4.40322e-06
-1.97668e-07
-4.36887e-06
-3.1212e-07
-4.24041e-06
-6.97932e-07
-4.11398e-06
-1.03054e-06
-4.01348e-06
-7.83186e-07
-3.85681e-06
-1.09086e-06
-3.60453e-06
-1.52676e-06
-3.21598e-06
-2.08298e-06
-2.66472e-06
-2.71244e-06
-1.92934e-06
-3.36282e-06
-1.01838e-06
-3.92958e-06
-2.53475e-17
-4.26269e-06
1.01838e-06
-4.26269e-06
1.92934e-06
-3.92958e-06
2.66472e-06
-3.36282e-06
3.21598e-06
-2.71244e-06
3.60453e-06
-2.08298e-06
3.85681e-06
-1.52676e-06
4.01348e-06
-1.09086e-06
4.11398e-06
-7.83186e-07
4.24041e-06
-1.03054e-06
4.36887e-06
-6.97932e-07
4.40322e-06
-3.1212e-07
4.42642e-06
-1.97668e-07
4.4645e-06
-2.07444e-07
4.50522e-06
-2.0832e-07
4.51611e-06
-1.55335e-07
4.55278e-06
-2.72786e-07
4.71712e-06
-5.90371e-07
4.68688e-06
-1.5802e-07
4.67326e-06
-2.8433e-07
4.95052e-06
-1.01897e-06
4.68953e-06
1.09852e-07
4.29539e-06
2.49691e-07
4.88487e-07
4.25639e-06
-3.92221e-07
1.05081e-06
4.0356e-07
2.99444e-06
-5.39842e-08
1.55188e-06
2.78927e-07
2.34488e-06
5.47689e-08
1.75119e-06
4.5329e-07
2.40364e-06
2.87143e-07
1.58276e-06
3.67368e-07
1.68368e-06
5.32192e-07
1.58531e-06
4.43759e-07
9.31972e-07
3.48273e-07
5.98724e-07
2.69477e-07
4.3298e-07
2.03667e-07
3.42183e-07
1.46537e-07
2.88929e-07
9.49715e-08
2.5697e-07
4.67139e-08
2.38634e-07
2.30226e-07
-5.02304e-08
2.80457e-07
-1.01972e-07
2.90375e-07
-1.56899e-07
3.11898e-07
-2.17011e-07
3.49041e-07
-2.84699e-07
4.0987e-07
-3.62151e-07
5.10432e-07
-4.46827e-07
6.83401e-07
-5.055e-07
9.90645e-07
-3.91161e-07
1.47097e-06
-3.27029e-07
1.61955e-06
-3.989e-07
1.65463e-06
-1.38187e-07
2.14292e-06
-2.34853e-07
1.84785e-06
-3.57309e-08
2.14576e-06
-2.69924e-07
1.78607e-06
1.97517e-07
2.527e-06
-3.58958e-07
1.60729e-06
6.91866e-07
3.20557e-06
-1.48039e-07
1.0896e-06
-2.28586e-06
2.24767e-06
-4.3517e-06
1.04687e-06
-4.8123e-06
1.7627e-07
-5.06169e-06
9.13723e-08
-4.84954e-06
-8.02521e-07
-4.85861e-06
-2.63721e-07
-4.87939e-06
-1.34553e-07
-4.83543e-06
-2.52281e-07
-4.79696e-06
-2.45913e-07
-4.78901e-06
-2.05617e-07
-4.78561e-06
-3.15525e-07
-4.64057e-06
-8.42974e-07
-4.58502e-06
-1.08608e-06
-4.54114e-06
-8.27067e-07
-4.44861e-06
-1.18339e-06
-4.24751e-06
-1.72786e-06
-3.87006e-06
-2.46042e-06
-3.28459e-06
-3.29792e-06
-2.43621e-06
-4.21119e-06
-1.30646e-06
-5.05933e-06
-4.91912e-17
-5.56915e-06
1.30646e-06
-5.56915e-06
2.43621e-06
-5.05933e-06
3.28459e-06
-4.21119e-06
3.87006e-06
-3.29792e-06
4.24751e-06
-2.46042e-06
4.44861e-06
-1.72786e-06
4.54114e-06
-1.18339e-06
4.58502e-06
-8.27067e-07
4.64057e-06
-1.08608e-06
4.78561e-06
-8.42974e-07
4.78901e-06
-3.15525e-07
4.79696e-06
-2.05617e-07
4.83543e-06
-2.45913e-07
4.87939e-06
-2.52281e-07
4.85861e-06
-1.34553e-07
4.84954e-06
-2.63721e-07
5.06169e-06
-8.02521e-07
4.8123e-06
9.13723e-08
4.3517e-06
1.7627e-07
2.28586e-06
1.04687e-06
1.48039e-07
2.24767e-06
-6.91866e-07
1.0896e-06
3.58958e-07
3.20557e-06
-1.97517e-07
1.60729e-06
2.69924e-07
2.527e-06
3.57309e-08
1.78607e-06
2.34853e-07
2.14576e-06
1.38187e-07
1.84785e-06
3.989e-07
2.14292e-06
3.27029e-07
1.65463e-06
3.91161e-07
1.61955e-06
5.055e-07
1.47097e-06
4.46827e-07
9.90645e-07
3.62151e-07
6.83401e-07
2.84699e-07
5.10432e-07
2.17011e-07
4.0987e-07
1.56899e-07
3.49041e-07
1.01972e-07
3.11898e-07
5.02304e-08
2.90375e-07
2.80457e-07
-5.36653e-08
3.34122e-07
-1.08745e-07
3.45455e-07
-1.66741e-07
3.69893e-07
-2.29262e-07
4.11562e-07
-2.97781e-07
4.78389e-07
-3.72303e-07
5.84955e-07
-4.45838e-07
7.56936e-07
-4.85263e-07
1.03007e-06
-4.07636e-07
1.39335e-06
-3.53641e-07
1.56555e-06
-3.67193e-07
1.66818e-06
-1.94066e-07
1.9698e-06
-2.14685e-07
1.86847e-06
-9.09968e-08
2.02207e-06
-1.89342e-07
1.88442e-06
8.4174e-08
2.25348e-06
-1.6351e-07
1.85497e-06
4.54088e-07
2.58797e-06
5.59991e-08
1.48768e-06
3.90029e-07
1.91364e-06
2.28453e-07
1.20845e-06
-4.2109e-07
8.25812e-07
-2.96037e-06
2.63066e-06
-4.53192e-06
7.69025e-07
-4.96307e-06
1.67428e-07
-5.18963e-06
9.20074e-08
-5.19168e-06
-2.50227e-07
-5.17442e-06
-2.63175e-07
-5.20124e-06
-1.788e-07
-5.26454e-06
-2.52227e-07
-5.06947e-06
-1.03804e-06
-5.12994e-06
-1.02562e-06
-5.18792e-06
-7.69089e-07
-5.22459e-06
-1.14672e-06
-5.14318e-06
-1.80927e-06
-4.80982e-06
-2.79379e-06
-4.2297e-06
-3.87803e-06
-3.26183e-06
-5.17906e-06
-1.78939e-06
-6.53178e-06
-1.92099e-17
-7.35854e-06
1.78939e-06
-7.35854e-06
3.26183e-06
-6.53178e-06
4.2297e-06
-5.17906e-06
4.80982e-06
-3.87803e-06
5.14318e-06
-2.79379e-06
5.22459e-06
-1.80927e-06
5.18792e-06
-1.14672e-06
5.12994e-06
-7.69089e-07
5.06947e-06
-1.02562e-06
5.26454e-06
-1.03804e-06
5.20124e-06
-2.52227e-07
5.17442e-06
-1.788e-07
5.19168e-06
-2.63175e-07
5.18963e-06
-2.50227e-07
4.96307e-06
9.20074e-08
4.53192e-06
1.67428e-07
2.96037e-06
7.69025e-07
4.2109e-07
2.63066e-06
-2.28453e-07
8.25812e-07
-3.90029e-07
1.20845e-06
-5.59991e-08
1.91364e-06
-4.54088e-07
1.48768e-06
1.6351e-07
2.58797e-06
-8.4174e-08
1.85497e-06
1.89342e-07
2.25348e-06
9.09968e-08
1.88442e-06
2.14685e-07
2.02207e-06
1.94066e-07
1.86847e-06
3.67193e-07
1.9698e-06
3.53641e-07
1.66818e-06
4.07636e-07
1.56555e-06
4.85263e-07
1.39335e-06
4.45838e-07
1.03007e-06
3.72303e-07
7.56936e-07
2.97781e-07
5.84955e-07
2.29262e-07
4.78389e-07
1.66741e-07
4.11562e-07
1.08745e-07
3.69893e-07
5.36653e-08
3.45455e-07
3.34122e-07
-5.68977e-08
3.9102e-07
-1.1504e-07
4.03598e-07
-1.75665e-07
4.30518e-07
-2.39881e-07
4.75778e-07
-3.08148e-07
5.46656e-07
-3.78552e-07
6.55359e-07
-4.4168e-07
8.20064e-07
-4.69302e-07
1.05769e-06
-4.17266e-07
1.34131e-06
-3.70099e-07
1.51839e-06
-3.50484e-07
1.64856e-06
-2.30413e-07
1.84973e-06
-2.08857e-07
1.84692e-06
-1.23659e-07
1.93687e-06
-1.43727e-07
1.90449e-06
2.32731e-08
2.08648e-06
-5.23323e-08
1.93058e-06
3.07403e-07
2.22824e-06
1.35228e-07
1.65986e-06
3.05603e-07
1.74327e-06
1.84271e-07
1.32978e-06
-1.52904e-07
1.16299e-06
4.88686e-07
1.98907e-06
2.36616e-07
1.02109e-06
-2.58742e-07
6.62786e-07
-1.56424e-06
1.3975e-06
-4.69572e-06
2.88125e-06
-5.16759e-06
2.08693e-07
-5.45107e-06
1.0468e-07
-5.76459e-06
6.129e-08
-5.46536e-06
-1.33726e-06
-5.72114e-06
-7.69837e-07
-5.95247e-06
-5.37763e-07
-6.24587e-06
-8.53311e-07
-6.44186e-06
-1.61328e-06
-6.16868e-06
-3.06698e-06
-5.73019e-06
-4.31652e-06
-4.72622e-06
-6.18303e-06
-2.66769e-06
-8.59031e-06
2.30122e-17
-1.00262e-05
2.66769e-06
-1.00262e-05
4.72622e-06
-8.59031e-06
5.73019e-06
-6.18303e-06
6.16868e-06
-4.31652e-06
6.44186e-06
-3.06698e-06
6.24587e-06
-1.61328e-06
5.95247e-06
-8.53311e-07
5.72114e-06
-5.37763e-07
5.46536e-06
-7.69837e-07
5.76459e-06
-1.33726e-06
5.45107e-06
6.129e-08
5.16759e-06
1.0468e-07
4.69572e-06
2.08693e-07
1.56424e-06
2.88125e-06
2.58742e-07
1.3975e-06
-2.36616e-07
6.62786e-07
-4.88686e-07
1.02109e-06
1.52904e-07
1.98907e-06
-1.84271e-07
1.16299e-06
-3.05603e-07
1.32978e-06
-1.35228e-07
1.74327e-06
-3.07403e-07
1.65986e-06
5.23323e-08
2.22824e-06
-2.32731e-08
1.93058e-06
1.43727e-07
2.08648e-06
1.23659e-07
1.90449e-06
2.08857e-07
1.93687e-06
2.30413e-07
1.84692e-06
3.50484e-07
1.84973e-06
3.70099e-07
1.64856e-06
4.17266e-07
1.51839e-06
4.69302e-07
1.34131e-06
4.4168e-07
1.05769e-06
3.78552e-07
8.20064e-07
3.08148e-07
6.55359e-07
2.39881e-07
5.46656e-07
1.75665e-07
4.75778e-07
1.1504e-07
4.30518e-07
5.68977e-08
4.03598e-07
3.9102e-07
-5.97849e-08
4.50805e-07
-1.20567e-07
4.6438e-07
-1.83239e-07
4.9319e-07
-2.48333e-07
5.40871e-07
-3.15325e-07
6.13648e-07
-3.80872e-07
7.20906e-07
-4.34911e-07
8.74102e-07
-4.55621e-07
1.0784e-06
-4.20756e-07
1.30644e-06
-3.78798e-07
1.47643e-06
-3.42487e-07
1.61225e-06
-2.53309e-07
1.76055e-06
-2.10328e-07
1.80394e-06
-1.42383e-07
1.86893e-06
-1.19706e-07
1.88181e-06
-6.97176e-09
1.97375e-06
4.64848e-09
1.91896e-06
2.18687e-07
2.0142e-06
1.65708e-07
1.71284e-06
2.49001e-07
1.65997e-06
1.67344e-07
1.41144e-06
4.4905e-09
1.32584e-06
3.34225e-07
1.65933e-06
1.84836e-07
1.17048e-06
-1.30209e-07
9.77832e-07
-1.56898e-07
1.42419e-06
6.57598e-07
2.06676e-06
9.23012e-08
7.7399e-07
-5.83375e-07
7.80357e-07
-3.0643e-06
2.54221e-06
-4.95152e-06
5.49969e-07
-5.87218e-06
1.5082e-07
-6.4499e-06
3.99564e-08
-7.33708e-06
3.38632e-08
-8.3754e-06
-5.74952e-07
-7.93093e-06
-3.51145e-06
-8.14983e-06
-4.09762e-06
-7.65357e-06
-6.67929e-06
-4.40725e-06
-1.18366e-05
3.06423e-17
-1.44335e-05
4.40725e-06
-1.44335e-05
7.65357e-06
-1.18366e-05
8.14983e-06
-6.67929e-06
7.93093e-06
-4.09762e-06
8.3754e-06
-3.51145e-06
7.33708e-06
-5.74952e-07
6.4499e-06
3.38632e-08
5.87218e-06
3.99564e-08
4.95152e-06
1.5082e-07
3.0643e-06
5.49969e-07
5.83375e-07
2.54221e-06
-9.23012e-08
7.80357e-07
-6.57598e-07
7.7399e-07
1.56898e-07
2.06676e-06
1.30209e-07
1.42419e-06
-1.84836e-07
9.77832e-07
-3.34225e-07
1.17048e-06
-4.4905e-09
1.65933e-06
-1.67344e-07
1.32584e-06
-2.49001e-07
1.41144e-06
-1.65708e-07
1.65997e-06
-2.18687e-07
1.71284e-06
-4.64848e-09
2.0142e-06
6.97176e-09
1.91896e-06
1.19706e-07
1.97375e-06
1.42383e-07
1.88181e-06
2.10328e-07
1.86893e-06
2.53309e-07
1.80394e-06
3.42487e-07
1.76055e-06
3.78798e-07
1.61225e-06
4.20756e-07
1.47643e-06
4.55621e-07
1.30644e-06
4.34911e-07
1.0784e-06
3.80872e-07
8.74102e-07
3.15325e-07
7.20906e-07
2.48333e-07
6.13648e-07
1.83239e-07
5.40871e-07
1.20567e-07
4.9319e-07
5.97849e-08
4.6438e-07
4.50805e-07
-6.21691e-08
5.12974e-07
-1.25016e-07
5.27228e-07
-1.89024e-07
5.57198e-07
-2.54127e-07
6.05973e-07
-3.18958e-07
6.7848e-07
-3.79332e-07
7.8128e-07
-4.25787e-07
9.20558e-07
-4.4255e-07
1.09517e-06
-4.18868e-07
1.28276e-06
-3.81414e-07
1.43897e-06
-3.38459e-07
1.5693e-06
-2.66955e-07
1.68904e-06
-2.14395e-07
1.75138e-06
-1.52939e-07
1.80747e-06
-1.08242e-07
1.83711e-06
-2.13861e-08
1.88689e-06
2.89823e-08
1.86859e-06
1.64288e-07
1.87889e-06
1.68495e-07
1.70863e-06
2.10784e-07
1.61768e-06
1.62081e-07
1.46014e-06
8.85565e-08
1.39936e-06
2.43996e-07
1.50389e-06
1.5442e-07
1.26006e-06
-3.08811e-08
1.16313e-06
-1.09497e-08
1.40426e-06
3.97076e-07
1.65873e-06
1.02835e-07
1.06823e-06
-2.00426e-07
1.08362e-06
5.50984e-07
1.7908e-06
2.16352e-07
8.84601e-07
-2.64453e-07
6.31625e-07
-6.73521e-07
4.49025e-07
-1.44143e-06
8.01769e-07
-3.09622e-06
1.07984e-06
-6.72647e-06
1.18796e-07
-1.0878e-05
5.39285e-08
-1.41662e-05
-3.39112e-06
-7.87428e-06
-1.81285e-05
1.42685e-18
-2.23078e-05
7.87428e-06
-2.23078e-05
1.41662e-05
-1.81285e-05
1.0878e-05
-3.39112e-06
6.72647e-06
5.39285e-08
3.09622e-06
1.18796e-07
1.44143e-06
1.07984e-06
6.73521e-07
8.01769e-07
2.64453e-07
4.49025e-07
-2.16352e-07
6.31625e-07
-5.50984e-07
8.84601e-07
2.00426e-07
1.7908e-06
-1.02835e-07
1.08362e-06
-3.97076e-07
1.06823e-06
1.09497e-08
1.65873e-06
3.08811e-08
1.40426e-06
-1.5442e-07
1.16313e-06
-2.43996e-07
1.26006e-06
-8.85565e-08
1.50389e-06
-1.62081e-07
1.39936e-06
-2.10784e-07
1.46014e-06
-1.68495e-07
1.61768e-06
-1.64288e-07
1.70863e-06
-2.89823e-08
1.87889e-06
2.13861e-08
1.86859e-06
1.08242e-07
1.88689e-06
1.52939e-07
1.83711e-06
2.14395e-07
1.80747e-06
2.66955e-07
1.75138e-06
3.38459e-07
1.68904e-06
3.81414e-07
1.5693e-06
4.18868e-07
1.43897e-06
4.4255e-07
1.28276e-06
4.25787e-07
1.09517e-06
3.79332e-07
9.20558e-07
3.18958e-07
7.8128e-07
2.54127e-07
6.7848e-07
1.89024e-07
6.05973e-07
1.25016e-07
5.57198e-07
6.21691e-08
5.27228e-07
5.12974e-07
-6.38883e-08
5.76862e-07
-1.28079e-07
5.91419e-07
-1.92612e-07
6.2173e-07
-2.56858e-07
6.7022e-07
-3.18828e-07
7.40449e-07
-3.74042e-07
8.36495e-07
-4.14337e-07
9.60853e-07
-4.28804e-07
1.10963e-06
-4.12297e-07
1.26625e-06
-3.79027e-07
1.4057e-06
-3.35104e-07
1.52538e-06
-2.73998e-07
1.62794e-06
-2.1823e-07
1.69561e-06
-1.58805e-07
1.74805e-06
-1.03705e-07
1.78201e-06
-2.89779e-08
1.81216e-06
3.48968e-08
1.80472e-06
1.28828e-07
1.78496e-06
1.57373e-07
1.68009e-06
1.83665e-07
1.59139e-06
1.59439e-07
1.48437e-06
1.28666e-07
1.43014e-06
1.9406e-07
1.4385e-06
1.4013e-07
1.31399e-06
3.88744e-08
1.26439e-06
6.47614e-08
1.37837e-06
2.57376e-07
1.46612e-06
1.17434e-07
1.20817e-06
-6.48398e-09
1.20754e-06
3.30943e-07
1.45337e-06
1.6098e-07
1.05456e-06
-1.31875e-07
9.2448e-07
-1.99141e-07
5.16291e-07
-1.41516e-08
6.16779e-07
4.24288e-07
6.41401e-07
9.2305e-08
4.50779e-07
-2.69927e-07
4.1616e-07
-3.47379e-06
-1.87255e-07
-8.34762e-06
-1.32547e-05
4.0443e-18
-3.06554e-05
8.34762e-06
-3.06554e-05
3.47379e-06
-1.32547e-05
2.69927e-07
-1.87255e-07
-9.2305e-08
4.1616e-07
-4.24288e-07
4.50779e-07
1.41516e-08
6.41401e-07
1.99141e-07
6.16779e-07
1.31875e-07
5.16291e-07
-1.6098e-07
9.2448e-07
-3.30943e-07
1.05456e-06
6.48398e-09
1.45337e-06
-1.17434e-07
1.20754e-06
-2.57376e-07
1.20817e-06
-6.47614e-08
1.46612e-06
-3.88744e-08
1.37837e-06
-1.4013e-07
1.26439e-06
-1.9406e-07
1.31399e-06
-1.28666e-07
1.4385e-06
-1.59439e-07
1.43014e-06
-1.83665e-07
1.48437e-06
-1.57373e-07
1.59139e-06
-1.28828e-07
1.68009e-06
-3.48968e-08
1.78496e-06
2.89779e-08
1.80472e-06
1.03705e-07
1.81216e-06
1.58805e-07
1.78201e-06
2.1823e-07
1.74805e-06
2.73998e-07
1.69561e-06
3.35104e-07
1.62794e-06
3.79027e-07
1.52538e-06
4.12297e-07
1.4057e-06
4.28804e-07
1.26625e-06
4.14337e-07
1.10963e-06
3.74042e-07
9.60853e-07
3.18828e-07
8.36495e-07
2.56858e-07
7.40449e-07
1.92612e-07
6.7022e-07
1.28079e-07
6.2173e-07
6.38883e-08
5.91419e-07
5.76862e-07
-6.4791e-08
6.41653e-07
-1.2948e-07
6.56108e-07
-1.93663e-07
6.85914e-07
-2.56239e-07
7.32796e-07
-3.1484e-07
7.9905e-07
-3.65125e-07
8.8678e-07
-4.00458e-07
9.96186e-07
-4.13479e-07
1.12265e-06
-4.01605e-07
1.25438e-06
-3.72293e-07
1.37639e-06
-3.30327e-07
1.48341e-06
-2.75968e-07
1.57358e-06
-2.20328e-07
1.63997e-06
-1.61853e-07
1.68957e-06
-1.02804e-07
1.72296e-06
-3.44868e-08
1.74385e-06
3.11063e-08
1.73912e-06
1.03239e-07
1.71283e-06
1.4042e-07
1.6429e-06
1.62605e-07
1.56921e-06
1.55194e-07
1.49178e-06
1.44158e-07
1.44117e-06
1.67661e-07
1.41499e-06
1.35696e-07
1.34596e-06
8.40081e-08
1.31608e-06
1.02878e-07
1.3595e-06
1.88678e-07
1.38032e-06
1.28573e-07
1.26828e-06
8.21122e-08
1.254e-06
2.18242e-07
1.31724e-06
1.29355e-07
1.14345e-06
-2.54563e-08
1.07929e-06
-3.37872e-08
5.24622e-07
2.97169e-08
5.53275e-07
1.15126e-07
5.55992e-07
4.42557e-08
5.21649e-07
-5.25613e-08
5.12977e-07
-8.21753e-08
-1.57641e-07
-1.36728e-06
-1.19696e-05
1.70818e-17
-3.20227e-05
1.36728e-06
-3.20227e-05
8.21753e-08
-1.19696e-05
5.25613e-08
-1.57641e-07
-4.42557e-08
5.12977e-07
-1.15126e-07
5.21649e-07
-2.97169e-08
5.55992e-07
3.37872e-08
5.53275e-07
2.54563e-08
5.24622e-07
-1.29355e-07
1.07929e-06
-2.18242e-07
1.14345e-06
-8.21122e-08
1.31724e-06
-1.28573e-07
1.254e-06
-1.88678e-07
1.26828e-06
-1.02878e-07
1.38032e-06
-8.40081e-08
1.3595e-06
-1.35696e-07
1.31608e-06
-1.67661e-07
1.34596e-06
-1.44158e-07
1.41499e-06
-1.55194e-07
1.44117e-06
-1.62605e-07
1.49178e-06
-1.4042e-07
1.56921e-06
-1.03239e-07
1.6429e-06
-3.11063e-08
1.71283e-06
3.44868e-08
1.73912e-06
1.02804e-07
1.74385e-06
1.61853e-07
1.72296e-06
2.20328e-07
1.68957e-06
2.75968e-07
1.63997e-06
3.30327e-07
1.57358e-06
3.72293e-07
1.48341e-06
4.01605e-07
1.37639e-06
4.13479e-07
1.25438e-06
4.00458e-07
1.12265e-06
3.65125e-07
9.96186e-07
3.1484e-07
8.8678e-07
2.56239e-07
7.9905e-07
1.93663e-07
7.32796e-07
1.2948e-07
6.85914e-07
6.4791e-08
6.56108e-07
6.41653e-07
-6.47531e-08
7.06406e-07
-1.29002e-07
7.20357e-07
-1.91944e-07
7.48855e-07
-2.52122e-07
7.92974e-07
-3.07019e-07
8.53946e-07
-3.52709e-07
9.3247e-07
-3.84013e-07
1.02749e-06
-3.95999e-07
1.13464e-06
-3.87218e-07
1.2456e-06
-3.61613e-07
1.35079e-06
-3.22941e-07
1.44474e-06
-2.73701e-07
1.52434e-06
-2.20003e-07
1.58627e-06
-1.62945e-07
1.63251e-06
-1.0364e-07
1.66366e-06
-3.98886e-08
1.6801e-06
2.26381e-08
1.6766e-06
8.27037e-08
1.65276e-06
1.21838e-07
1.60377e-06
1.44542e-07
1.5465e-06
1.48126e-07
1.48819e-06
1.46685e-07
1.44262e-06
1.53751e-07
1.40793e-06
1.35788e-07
1.36392e-06
1.11104e-07
1.34076e-06
1.21928e-07
1.34868e-06
1.58026e-07
1.34422e-06
1.34787e-07
1.29152e-06
1.17678e-07
1.27111e-06
1.63491e-07
1.27143e-06
1.13868e-07
1.19307e-06
3.32036e-08
1.15996e-06
2.62774e-08
5.31548e-07
3.85988e-08
5.40954e-07
5.03619e-08
5.44229e-07
3.0122e-08
5.41889e-07
-2.24499e-09
5.45344e-07
-1.12637e-08
-1.48622e-07
-3.82732e-07
-1.15981e-05
2.0433e-17
-3.24054e-05
3.82732e-07
-3.24054e-05
1.12637e-08
-1.15981e-05
2.24499e-09
-1.48622e-07
-3.0122e-08
5.45344e-07
-5.03619e-08
5.41889e-07
-3.85988e-08
5.44229e-07
-2.62774e-08
5.40954e-07
-3.32036e-08
5.31548e-07
-1.13868e-07
1.15996e-06
-1.63491e-07
1.19307e-06
-1.17678e-07
1.27143e-06
-1.34787e-07
1.27111e-06
-1.58026e-07
1.29152e-06
-1.21928e-07
1.34422e-06
-1.11104e-07
1.34868e-06
-1.35788e-07
1.34076e-06
-1.53751e-07
1.36392e-06
-1.46685e-07
1.40793e-06
-1.48126e-07
1.44262e-06
-1.44542e-07
1.48819e-06
-1.21838e-07
1.5465e-06
-8.27037e-08
1.60377e-06
-2.26381e-08
1.65276e-06
3.98886e-08
1.6766e-06
1.0364e-07
1.6801e-06
1.62945e-07
1.66366e-06
2.20003e-07
1.63251e-06
2.73701e-07
1.58627e-06
3.22941e-07
1.52434e-06
3.61613e-07
1.44474e-06
3.87218e-07
1.35079e-06
3.95999e-07
1.2456e-06
3.84013e-07
1.13464e-06
3.52709e-07
1.02749e-06
3.07019e-07
9.3247e-07
2.52122e-07
8.53946e-07
1.91944e-07
7.92974e-07
1.29002e-07
7.48855e-07
6.47531e-08
7.20357e-07
7.06406e-07
-6.36947e-08
7.70101e-07
-1.26524e-07
7.83186e-07
-1.87354e-07
8.09686e-07
-2.44507e-07
8.50127e-07
-2.955e-07
9.0494e-07
-3.36949e-07
9.73918e-07
-3.64912e-07
1.05545e-06
-3.76058e-07
1.14579e-06
-3.69459e-07
1.239e-06
-3.47275e-07
1.3286e-06
-3.12398e-07
1.40986e-06
-2.67671e-07
1.47961e-06
-2.17015e-07
1.53561e-06
-1.62362e-07
1.57786e-06
-1.05042e-07
1.60634e-06
-4.55888e-08
1.62064e-06
1.23118e-08
1.6187e-06
6.49768e-08
1.6001e-06
1.03554e-07
1.56519e-06
1.27909e-07
1.52215e-06
1.38527e-07
1.47758e-06
1.42667e-07
1.43848e-06
1.45522e-07
1.40507e-06
1.36771e-07
1.37267e-06
1.26022e-07
1.35151e-06
1.31391e-07
1.34331e-06
1.45643e-07
1.32997e-06
1.37117e-07
1.30004e-06
1.29242e-07
1.27898e-06
1.38162e-07
1.26251e-06
1.07498e-07
1.22374e-06
6.26208e-08
1.20483e-06
5.38336e-08
5.40335e-07
5.10444e-08
5.43743e-07
4.90171e-08
5.46256e-07
4.28714e-08
5.48035e-07
3.77279e-08
5.50488e-07
2.26159e-08
-1.3351e-07
-2.29802e-07
-1.13457e-05
1.07767e-18
-3.26352e-05
2.29802e-07
-3.26352e-05
-2.26159e-08
-1.13457e-05
-3.77279e-08
-1.3351e-07
-4.28714e-08
5.50488e-07
-4.90171e-08
5.48035e-07
-5.10444e-08
5.46256e-07
-5.38336e-08
5.43743e-07
-6.26208e-08
5.40335e-07
-1.07498e-07
1.20483e-06
-1.38162e-07
1.22374e-06
-1.29242e-07
1.26251e-06
-1.37117e-07
1.27898e-06
-1.45643e-07
1.30004e-06
-1.31391e-07
1.32997e-06
-1.26022e-07
1.34331e-06
-1.36771e-07
1.35151e-06
-1.45522e-07
1.37267e-06
-1.42667e-07
1.40507e-06
-1.38527e-07
1.43848e-06
-1.27909e-07
1.47758e-06
-1.03554e-07
1.52215e-06
-6.49768e-08
1.56519e-06
-1.23118e-08
1.6001e-06
4.55888e-08
1.6187e-06
1.05042e-07
1.62064e-06
1.62362e-07
1.60634e-06
2.17015e-07
1.57786e-06
2.67671e-07
1.53561e-06
3.12398e-07
1.47961e-06
3.47275e-07
1.40986e-06
3.69459e-07
1.3286e-06
3.76058e-07
1.239e-06
3.64912e-07
1.14579e-06
3.36949e-07
1.05545e-06
2.955e-07
9.73918e-07
2.44507e-07
9.0494e-07
1.87354e-07
8.50127e-07
1.26524e-07
8.09686e-07