/*--------------------------------*- C++ -*----------------------------------*\
  =========                 |
  \\      /  F ield         | OpenFOAM: The Open Source CFD Toolbox
   \\    /   O peration     | Website:  https://openfoam.org
    \\  /    A nd           | Version:  10
     \\/     M anipulation  |
\*---------------------------------------------------------------------------*/
FoamFile
{
    format      ascii;
    class       surfaceScalarField;
    location    "23750";
    object      phi;
}
// * * * * * * * * * * * * * * * * * * * * * * * * * * * * * * * * * * * * * //

dimensions      [0 3 -1 0 0 0 0];

internalField   nonuniform List<scalar> 
6280
(
-4.89006e-07
4.89006e-07
-1.04039e-06
5.51386e-07
-1.7461e-06
7.05708e-07
-2.75883e-06
1.01273e-06
-4.36981e-06
1.61098e-06
-7.17948e-06
2.80967e-06
-1.24599e-05
5.28043e-06
-1.6956e-05
4.49607e-06
-1.73179e-05
3.61901e-07
-1.75533e-05
2.3546e-07
-1.77295e-05
1.76132e-07
-1.78678e-05
1.38309e-07
-1.79797e-05
1.1189e-07
-1.80722e-05
9.25485e-08
-1.81501e-05
7.79205e-08
-1.82167e-05
6.65738e-08
-1.82743e-05
5.75865e-08
-1.83246e-05
5.03415e-08
-1.83691e-05
4.4412e-08
-1.84086e-05
3.94948e-08
-1.84439e-05
3.53693e-08
-1.84758e-05
3.18725e-08
-1.85047e-05
2.88814e-08
-1.8531e-05
2.62989e-08
-1.66724e-05
-1.85854e-06
-1.39077e-05
-2.76478e-06
-1.21001e-05
-1.80751e-06
-1.09789e-05
-1.12127e-06
-1.02816e-05
-6.97219e-07
-9.83439e-06
-4.47258e-07
-9.52682e-06
-3.07571e-07
-9.28633e-06
-2.40488e-07
-9.05871e-06
-2.27624e-07
-8.79371e-06
-2.64993e-07
-8.43255e-06
-3.61161e-07
-7.89425e-06
-5.383e-07
-7.05795e-06
-8.36306e-07
-5.73683e-06
-1.32111e-06
-3.63616e-06
-2.10067e-06
-3.09464e-06
-5.41519e-07
-3.36945e-07
8.25951e-07
-6.76334e-07
8.90775e-07
-1.01145e-06
1.04083e-06
-1.29076e-06
1.29205e-06
-1.34002e-06
1.66023e-06
-6.5562e-07
2.12527e-06
2.1078e-06
2.51701e-06
4.41621e-06
2.18766e-06
3.47752e-06
1.30059e-06
2.87641e-06
8.36573e-07
2.47532e-06
5.77224e-07
2.19232e-06
4.21302e-07
1.98313e-06
3.21084e-07
1.82286e-06
2.52819e-07
1.69683e-06
2.0395e-07
1.59599e-06
1.67413e-07
1.5146e-06
1.38975e-07
1.44904e-06
1.15903e-07
1.3972e-06
9.62558e-08
1.35826e-06
7.84372e-08
1.33278e-06
6.08409e-08
1.32321e-06
4.14513e-08
1.33483e-06
1.72528e-08
1.37791e-06
-1.67789e-08
-3.87516e-07
-9.31134e-08
-3.15646e-06
4.16781e-09
-4.97843e-06
1.44542e-08
-6.11917e-06
1.94664e-08
-6.83789e-06
2.1502e-08
-7.30702e-06
2.18752e-08
-7.63595e-06
2.13583e-08
-7.89683e-06
2.03899e-08
-8.14366e-06
1.92076e-08
-8.42658e-06
1.79284e-08
-8.80433e-06
1.659e-08
-9.3578e-06
1.51657e-08
-1.02077e-05
1.35524e-08
-1.15381e-05
9.33493e-09
-1.15989e-05
-2.0399e-06
-1.42029e-05
-4.90605e-07
-1.66937e-07
9.92888e-07
-3.08489e-07
1.03233e-06
-3.91559e-07
1.1239e-06
-3.59182e-07
1.25967e-06
-1.1955e-07
1.4206e-06
4.42433e-07
1.56329e-06
1.35221e-06
1.60723e-06
2.08529e-06
1.45458e-06
2.22197e-06
1.16391e-06
2.15496e-06
9.03585e-07
2.02988e-06
7.02303e-07
1.89847e-06
5.52715e-07
1.77769e-06
4.41855e-07
1.67185e-06
3.58665e-07
1.58077e-06
2.95027e-07
1.50294e-06
2.45242e-07
1.43659e-06
2.05326e-07
1.38004e-06
1.72457e-07
1.33172e-06
1.44575e-07
1.29002e-06
1.20134e-07
1.25291e-06
9.79535e-08
1.21717e-06
7.71919e-08
1.17693e-06
5.74948e-08
1.12069e-06
3.9457e-08
1.00185e-06
2.57264e-08
9.77913e-07
2.81047e-08
9.63272e-07
2.90956e-08
9.54196e-07
2.85422e-08
9.49119e-07
2.6579e-08
9.47657e-07
2.33368e-08
9.50192e-07
1.88236e-08
9.57724e-07
1.28584e-08
9.71926e-07
5.00536e-09
9.95382e-07
-5.52739e-09
1.03203e-06
-2.00573e-08
1.08791e-06
-4.07109e-08
1.17235e-06
-7.08895e-08
1.29768e-06
-1.16e-07
9.3689e-07
-1.67911e-06
-1.32829e-05
1.68756e-08
-4.50001e-08
1.03789e-06
-6.49037e-08
1.05223e-06
-3.37908e-08
1.09278e-06
7.71676e-08
1.14871e-06
2.94567e-07
1.2032e-06
6.25326e-07
1.23253e-06
1.02259e-06
1.20997e-06
1.35721e-06
1.11996e-06
1.53934e-06
9.81777e-07
1.60825e-06
8.3468e-07
1.61053e-06
7.00017e-07
1.57824e-06
5.85007e-07
1.53027e-06
4.89827e-07
1.47696e-06
4.11968e-07
1.42368e-06
3.48304e-07
1.373e-06
2.95925e-07
1.32594e-06
2.52387e-07
1.28266e-06
2.15734e-07
1.2428e-06
1.8444e-07
1.20558e-06
1.57351e-07
1.1699e-06
1.33636e-07
1.13431e-06
1.12779e-07
1.09722e-06
9.4591e-08
1.05745e-06
7.92227e-08
1.01608e-06
6.70948e-08
9.85654e-07
5.8534e-08
9.63051e-07
5.16982e-08
9.46028e-07
4.55649e-08
9.33044e-07
3.95632e-08
9.23026e-07
3.33544e-08
9.15141e-07
2.67088e-08
9.08555e-07
1.94442e-08
9.02153e-07
1.14073e-08
8.94132e-07
2.49383e-09
8.81357e-07
-7.28251e-09
8.58289e-07
-1.76421e-08
8.15156e-07
-2.77574e-08
7.34881e-07
-3.57241e-08
6.48241e-07
-1.59247e-06
-1.27041e-05
6.94156e-08
2.48807e-08
1.01301e-06
6.62343e-08
1.01088e-06
1.39097e-07
1.01992e-06
2.55221e-07
1.03259e-06
4.19329e-07
1.03909e-06
6.23165e-07
1.02869e-06
8.40476e-07
9.92662e-07
1.0318e-06
9.28635e-07
1.16987e-06
8.43707e-07
1.25444e-06
7.50114e-07
1.29673e-06
6.57724e-07
1.30947e-06
5.72274e-07
1.3031e-06
4.96195e-07
1.28518e-06
4.2989e-07
1.26077e-06
3.72715e-07
1.2331e-06
3.23596e-07
1.20411e-06
2.81369e-07
1.1749e-06
2.44942e-07
1.14597e-06
2.1337e-07
1.11745e-06
1.85879e-07
1.08922e-06
1.61865e-07
1.06111e-06
1.40886e-07
1.03307e-06
1.22636e-07
1.00539e-06
1.06903e-07
9.78991e-07
9.349e-08
9.55419e-07
8.21059e-08
9.34863e-07
7.22538e-08
9.16953e-07
6.34754e-08
9.01104e-07
5.54125e-08
8.8665e-07
4.78077e-08
8.72869e-07
4.04899e-08
8.5895e-07
3.33632e-08
8.43951e-07
2.64062e-08
8.26765e-07
1.96806e-08
8.06134e-07
1.33482e-08
7.80802e-07
7.69017e-09
7.4993e-07
3.11392e-09
7.14089e-07
1.17503e-10
6.26461e-07
-1.50484e-06
-1.21413e-05
6.37084e-08
5.85399e-08
9.54468e-07
1.25825e-07
9.43592e-07
2.09545e-07
9.362e-07
3.14057e-07
9.28074e-07
4.38862e-07
9.14282e-07
5.77343e-07
8.90213e-07
7.17094e-07
8.52911e-07
8.43445e-07
8.02285e-07
9.45777e-07
7.41374e-07
1.02092e-06
6.74969e-07
1.071e-06
6.0765e-07
1.10047e-06
5.42797e-07
1.11422e-06
4.82452e-07
1.11653e-06
4.27574e-07
1.11085e-06
3.78392e-07
1.09975e-06
3.34695e-07
1.08507e-06
2.96052e-07
1.06807e-06
2.61944e-07
1.04959e-06
2.31853e-07
1.03017e-06
2.05298e-07
1.01017e-06
1.81863e-07
9.89866e-07
1.61191e-07
9.6952e-07
1.42981e-07
9.49454e-07
1.26969e-07
9.30044e-07
1.129e-07
9.11636e-07
1.00513e-07
8.94354e-07
8.95359e-08
8.78115e-07
7.97147e-08
8.62692e-07
7.08355e-08
8.47767e-07
6.27327e-08
8.32966e-07
5.52905e-08
8.17888e-07
4.84416e-08
8.0213e-07
4.21643e-08
7.85332e-07
3.64788e-08
7.67239e-07
3.1441e-08
7.47798e-07
2.71311e-08
7.27278e-07
2.36337e-08
7.064e-07
2.09955e-08
6.17098e-07
-1.41554e-06
-1.15845e-05
6.02867e-08
7.12585e-08
8.83209e-07
1.46311e-07
8.68539e-07
2.28786e-07
8.53725e-07
3.20149e-07
8.36711e-07
4.19201e-07
8.15229e-07
5.22027e-07
7.87387e-07
6.22714e-07
7.52224e-07
7.14948e-07
7.1005e-07
7.93936e-07
6.62387e-07
8.57441e-07
6.11464e-07
9.05513e-07
5.59578e-07
9.39656e-07
5.08655e-07
9.62033e-07
4.60075e-07
9.74918e-07
4.1469e-07
9.80391e-07
3.72919e-07
9.80209e-07
3.34877e-07
9.75784e-07
3.00476e-07
9.68213e-07
2.69515e-07
9.58329e-07
2.41736e-07
9.46764e-07
2.16864e-07
9.33999e-07
1.94627e-07
9.2042e-07
1.7477e-07
9.06345e-07
1.57056e-07
8.92052e-07
1.41262e-07
8.77774e-07
1.27178e-07
8.63682e-07
1.14606e-07
8.4986e-07
1.03357e-07
8.36312e-07
9.32633e-08
8.22968e-07
8.41788e-08
8.09716e-07
7.59854e-08
7.96414e-07
6.85925e-08
7.8292e-07
6.19355e-08
7.69111e-07
5.5973e-08
7.54908e-07
5.06816e-08
7.40299e-07
4.60503e-08
7.25358e-07
4.20725e-08
7.10254e-07
3.87373e-08
6.95252e-07
3.5998e-08
6.08645e-07
-1.32893e-06
-1.10337e-05
5.78548e-08
7.31616e-08
8.10047e-07
1.47391e-07
7.9431e-07
2.24245e-07
7.76872e-07
3.04082e-07
7.56874e-07
3.85916e-07
7.33395e-07
4.6755e-07
7.05753e-07
5.46039e-07
6.73735e-07
6.18378e-07
6.37711e-07
6.82202e-07
5.98563e-07
7.36179e-07
5.57487e-07
7.80012e-07
5.15745e-07
8.14194e-07
4.74472e-07
8.39705e-07
4.34565e-07
8.57736e-07
3.96658e-07
8.6951e-07
3.61145e-07
8.76163e-07
3.28224e-07
8.78692e-07
2.97947e-07
8.77942e-07
2.70266e-07
8.74609e-07
2.45069e-07
8.69262e-07
2.22211e-07
8.62363e-07
2.01526e-07
8.5429e-07
1.82843e-07
8.45353e-07
1.65993e-07
8.35802e-07
1.50812e-07
8.25837e-07
1.37143e-07
8.15607e-07
1.24836e-07
8.05208e-07
1.13756e-07
7.94694e-07
1.03777e-07
7.84082e-07
9.47913e-08
7.73362e-07
8.67052e-08
7.62513e-07
7.94411e-08
7.51514e-07
7.29353e-08
7.4035e-07
6.71363e-08
7.29031e-07
6.20015e-08
7.17587e-07
5.74942e-08
7.06079e-07
5.35805e-08
6.9459e-07
5.02256e-08
6.83233e-07
4.73556e-08
6.003e-07
-1.246e-06
-1.04891e-05
5.57248e-08
7.00169e-08
7.40031e-07
1.39745e-07
7.24582e-07
2.09729e-07
7.06888e-07
2.79906e-07
6.86697e-07
3.49562e-07
6.63739e-07
4.17444e-07
6.37871e-07
4.82001e-07
6.09178e-07
5.41697e-07
5.78015e-07
5.95296e-07
5.44964e-07
6.42032e-07
5.10751e-07
6.81642e-07
4.76136e-07
7.14288e-07
4.41825e-07
7.40442e-07
4.08411e-07
7.60751e-07
3.76349e-07
7.75941e-07
3.45955e-07
7.86742e-07
3.17423e-07
7.93838e-07
2.90851e-07
7.97846e-07
2.66258e-07
7.99307e-07
2.43609e-07
7.98685e-07
2.22833e-07
7.96376e-07
2.03835e-07
7.92711e-07
1.86508e-07
7.87968e-07
1.70737e-07
7.82375e-07
1.56405e-07
7.76119e-07
1.43399e-07
7.69346e-07
1.3161e-07
7.62167e-07
1.20935e-07
7.54665e-07
1.11278e-07
7.46901e-07
1.02556e-07
7.38916e-07
9.46903e-08
7.30743e-07
8.76139e-08
7.22411e-07
8.12674e-08
7.13949e-07
7.5598e-08
7.05392e-07
7.05586e-08
6.9678e-07
6.61062e-08
6.8816e-07
6.22005e-08
6.79583e-07
5.88026e-08
6.71116e-07
5.58224e-08
5.91831e-07
-1.16671e-06
-9.95099e-06
5.36725e-08
6.48497e-08
6.75181e-07
1.28804e-07
6.60628e-07
1.91934e-07
6.43757e-07
2.54025e-07
6.24607e-07
3.14558e-07
6.03206e-07
3.72783e-07
5.79646e-07
4.27834e-07
5.54127e-07
4.78878e-07
5.26971e-07
5.25238e-07
4.98604e-07
5.66477e-07
4.69512e-07
6.02418e-07
4.40195e-07
6.33124e-07
4.11119e-07
6.58843e-07
3.82693e-07
6.79951e-07
3.55241e-07
6.96895e-07
3.2901e-07
7.10152e-07
3.04167e-07
7.20191e-07
2.80812e-07
7.27457e-07
2.58991e-07
7.32358e-07
2.38708e-07
7.35258e-07
2.19933e-07
7.36477e-07
2.02616e-07
7.36295e-07
1.8669e-07
7.3495e-07
1.72081e-07
7.32647e-07
1.58709e-07
7.29555e-07
1.46491e-07
7.25817e-07
1.35348e-07
7.21549e-07
1.25202e-07
7.16847e-07
1.1598e-07
7.1179e-07
1.07613e-07
7.06442e-07
1.00038e-07
7.00859e-07
9.31971e-08
6.9509e-07
8.70362e-08
6.89181e-07
8.15066e-08
6.83177e-07
7.65632e-08
6.77119e-07
7.21639e-08
6.7105e-07
6.82691e-08
6.65011e-07
6.48415e-08
6.59056e-07
6.17779e-08
5.83171e-07
-1.09083e-06
-9.41945e-06
5.16362e-08
5.91539e-08
6.16027e-07
1.1719e-07
6.02591e-07
1.73974e-07
5.86973e-07
2.29247e-07
5.69334e-07
2.82622e-07
5.49831e-07
3.33618e-07
5.28649e-07
3.81722e-07
5.06023e-07
4.26455e-07
4.82238e-07
4.67432e-07
4.57627e-07
5.04402e-07
4.32542e-07
5.3726e-07
4.07337e-07
5.66039e-07
3.8234e-07
5.90888e-07
3.57844e-07
6.12041e-07
3.34088e-07
6.2979e-07
3.11261e-07
6.44455e-07
2.89502e-07
6.56363e-07
2.68903e-07
6.65839e-07
2.49516e-07
6.73186e-07
2.31361e-07
6.78687e-07
2.14432e-07
6.82597e-07
1.98705e-07
6.85146e-07
1.84142e-07
6.86534e-07
1.70693e-07
6.86939e-07
1.58304e-07
6.86513e-07
1.46917e-07
6.85389e-07
1.36472e-07
6.8368e-07
1.26912e-07
6.81482e-07
1.18178e-07
6.78879e-07
1.10216e-07
6.75944e-07
1.02973e-07
6.72741e-07
9.64006e-08
6.69326e-07
9.04516e-08
6.6575e-07
8.50825e-08
6.6206e-07
8.02524e-08
6.58302e-07
7.59226e-08
6.54514e-07
7.20567e-08
6.50736e-07
6.86199e-08
6.47015e-07
6.54989e-08
5.74285e-07
-1.0181e-06
-8.89476e-06
4.9591e-08
5.362e-08
5.62407e-07
1.06087e-07
5.50124e-07
1.5719e-07
5.35871e-07
2.06673e-07
5.19851e-07
2.54236e-07
5.02268e-07
2.99554e-07
4.83332e-07
3.423e-07
4.63276e-07
3.82184e-07
4.42354e-07
4.18978e-07
4.20833e-07
4.52535e-07
3.98985e-07
4.82798e-07
3.77074e-07
5.09794e-07
3.55345e-07
5.33622e-07
3.34015e-07
5.54441e-07
3.13268e-07
5.7245e-07
2.93252e-07
5.87874e-07
2.74079e-07
6.00947e-07
2.5583e-07
6.11908e-07
2.38555e-07
6.20986e-07
2.22282e-07
6.28401e-07
2.07017e-07
6.34355e-07
1.92751e-07
6.39035e-07
1.79462e-07
6.42608e-07
1.6712e-07
6.45226e-07
1.55686e-07
6.47021e-07
1.45121e-07
6.48114e-07
1.35379e-07
6.48608e-07
1.26417e-07
6.48597e-07
1.1819e-07
6.4816e-07
1.10653e-07
6.47371e-07
1.03763e-07
6.46293e-07
9.74784e-08
6.44984e-07
9.17604e-08
6.43496e-07
8.65706e-08
6.41876e-07
8.18727e-08
6.40166e-07
7.76323e-08
6.38406e-07
7.38163e-08
6.36633e-07
7.03936e-08
6.34889e-07
6.7243e-08
5.65155e-07
-9.48366e-07
-8.37714e-06
4.7535e-08
4.85323e-08
5.13875e-07
9.59609e-08
5.02696e-07
1.42059e-07
4.89773e-07
1.86594e-07
4.75316e-07
2.29328e-07
4.59533e-07
2.70026e-07
4.42634e-07
3.08469e-07
4.24833e-07
3.44471e-07
4.06353e-07
3.7789e-07
3.87414e-07
4.08641e-07
3.68234e-07
4.36693e-07
3.49021e-07
4.62072e-07
3.29965e-07
4.84853e-07
3.11234e-07
5.05149e-07
2.92972e-07
5.23103e-07
2.75298e-07
5.38879e-07
2.58304e-07
5.52651e-07
2.42058e-07
5.64597e-07
2.26609e-07
5.74893e-07
2.11985e-07
5.83712e-07
1.98199e-07
5.91214e-07
1.85249e-07
5.97551e-07
1.73125e-07
6.02862e-07
1.61809e-07
6.07275e-07
1.51274e-07
6.10904e-07
1.41491e-07
6.13855e-07
1.32428e-07
6.16222e-07
1.24051e-07
6.18088e-07
1.16324e-07
6.19529e-07
1.09211e-07
6.20613e-07
1.02679e-07
6.21401e-07
9.66908e-08
6.21947e-07
9.12145e-08
6.223e-07
8.62169e-08
6.22506e-07
8.16667e-08
6.22605e-07
7.75336e-08
6.22633e-07
7.37886e-08
6.22623e-07
7.04039e-08
6.22612e-07
6.7254e-08
5.55757e-07
-8.81512e-07
-7.86685e-06
4.54648e-08
4.39771e-08
4.69898e-07
8.69337e-08
4.59739e-07
1.28655e-07
4.48051e-07
1.68937e-07
4.35034e-07
2.07589e-07
4.20881e-07
2.44434e-07
4.05789e-07
2.79316e-07
3.89951e-07
3.1211e-07
3.73559e-07
3.42724e-07
3.56799e-07
3.71107e-07
3.39852e-07
3.97245e-07
3.22883e-07
4.21164e-07
3.06047e-07
4.42921e-07
2.89477e-07
4.62603e-07
2.73291e-07
4.80317e-07
2.57584e-07
4.96186e-07
2.42435e-07
5.10342e-07
2.27902e-07
5.22924e-07
2.14028e-07
5.34068e-07
2.00841e-07
5.43909e-07
1.88357e-07
5.52579e-07
1.7658e-07
5.60198e-07
1.65506e-07
5.66885e-07
1.55123e-07
5.72744e-07
1.45414e-07
5.77876e-07
1.36359e-07
5.82371e-07
1.27933e-07
5.86311e-07
1.20111e-07
5.89772e-07
1.12863e-07
5.92821e-07
1.06162e-07
5.9552e-07
9.99793e-08
5.97925e-07
9.42857e-08
6.00087e-07
8.90531e-08
6.0205e-07
8.42539e-08
6.03856e-07
7.9861e-08
6.05541e-07
7.58485e-08
6.07138e-07
7.21912e-08
6.08677e-07
6.88651e-08
6.10187e-07
6.57441e-08
5.46057e-07
-8.17382e-07
-7.36416e-06
4.3367e-08
3.99486e-08
4.29949e-07
7.89689e-08
4.20719e-07
1.16869e-07
4.10151e-07
1.53476e-07
3.98427e-07
1.88632e-07
3.85725e-07
2.22202e-07
3.7222e-07
2.5407e-07
3.58083e-07
2.84148e-07
3.43481e-07
3.12375e-07
3.28573e-07
3.38718e-07
3.13509e-07
3.63173e-07
2.98427e-07
3.85766e-07
2.83454e-07
4.06542e-07
2.68701e-07
4.25569e-07
2.54263e-07
4.42931e-07
2.40222e-07
4.58723e-07
2.26642e-07
4.73049e-07
2.13576e-07
4.86017e-07
2.0106e-07
4.97735e-07
1.89123e-07
5.08311e-07
1.7778e-07
5.17852e-07
1.67039e-07
5.26458e-07
1.569e-07
5.34225e-07
1.47356e-07
5.41243e-07
1.38396e-07
5.47597e-07
1.30006e-07
5.53363e-07
1.22167e-07
5.58614e-07
1.14859e-07
5.63416e-07
1.08061e-07
5.67829e-07
1.01749e-07
5.71908e-07
9.59003e-08
5.75703e-07
9.04906e-08
5.7926e-07
8.54965e-08
5.82619e-07
8.08944e-08
5.85819e-07
7.66614e-08
5.88892e-07
7.27751e-08
5.9187e-07
6.92137e-08
5.94779e-07
6.59562e-08
5.97645e-07
6.28778e-08
5.36011e-07
-7.55748e-07
-6.86937e-06
4.1225e-08
3.64013e-08
3.93548e-07
7.19642e-08
3.85156e-07
1.06523e-07
3.75592e-07
1.39932e-07
3.65018e-07
1.72063e-07
3.53594e-07
2.02809e-07
3.41474e-07
2.32082e-07
3.2881e-07
2.59817e-07
3.15746e-07
2.85971e-07
3.02418e-07
3.10525e-07
2.88955e-07
3.33481e-07
2.75472e-07
3.54859e-07
2.62076e-07
3.74699e-07
2.48861e-07
3.93057e-07
2.35906e-07
4.09998e-07
2.23281e-07
4.25598e-07
2.11042e-07
4.39941e-07
1.99233e-07
4.53111e-07
1.8789e-07
4.65198e-07
1.77037e-07
4.76288e-07
1.6669e-07
4.86469e-07
1.56859e-07
4.95823e-07
1.47545e-07
5.04431e-07
1.38748e-07
5.12367e-07
1.30459e-07
5.19705e-07
1.22668e-07
5.26509e-07
1.15362e-07
5.32843e-07
1.08526e-07
5.38763e-07
1.02141e-07
5.44323e-07
9.61899e-08
5.4957e-07
9.06532e-08
5.54549e-07
8.55115e-08
5.593e-07
8.07447e-08
5.63862e-07
7.63332e-08
5.68266e-07
7.22572e-08
5.72544e-07
6.84974e-08
5.76722e-07
6.5035e-08
5.80827e-07
6.18516e-08
5.84879e-07
5.88256e-08
5.25589e-07
-6.96458e-07
-6.38282e-06
3.90348e-08
3.32761e-08
3.60272e-07
6.5797e-08
3.52635e-07
9.74228e-08
3.43966e-07
1.28031e-07
3.3441e-07
1.57519e-07
3.24107e-07
1.85798e-07
3.13194e-07
2.12804e-07
3.01805e-07
2.38485e-07
2.90065e-07
2.62812e-07
2.78091e-07
2.85773e-07
2.65994e-07
3.07372e-07
2.53873e-07
3.27629e-07
2.4182e-07
3.46577e-07
2.29913e-07
3.64261e-07
2.18222e-07
3.80736e-07
2.06806e-07
3.96063e-07
1.95714e-07
4.10309e-07
1.84987e-07
4.23545e-07
1.74654e-07
4.35842e-07
1.6474e-07
4.47273e-07
1.55259e-07
4.57908e-07
1.46224e-07
4.67817e-07
1.37636e-07
4.77067e-07
1.29498e-07
4.85722e-07
1.21804e-07
4.93842e-07
1.14548e-07
5.01484e-07
1.0772e-07
5.08702e-07
1.01308e-07
5.15544e-07
9.52982e-08
5.22058e-07
8.96763e-08
5.28285e-07
8.44266e-08
5.34263e-07
7.95328e-08
5.40029e-07
7.49784e-08
5.45616e-07
7.07467e-08
5.51052e-07
6.68211e-08
5.56365e-07
6.31849e-08
5.61578e-07
5.9822e-08
5.66712e-07
5.67167e-08
5.71784e-07
5.37542e-08
5.14756e-07
-6.3943e-07
-5.90485e-06
3.67897e-08
3.05126e-08
3.29759e-07
6.0345e-08
3.22802e-07
8.93804e-08
3.14931e-07
1.17518e-07
3.06272e-07
1.44672e-07
2.96952e-07
1.70775e-07
2.87092e-07
1.95773e-07
2.76807e-07
2.1963e-07
2.66208e-07
2.42323e-07
2.55398e-07
2.63845e-07
2.44471e-07
2.84203e-07
2.33516e-07
3.03413e-07
2.22609e-07
3.21505e-07
2.1182e-07
3.38517e-07
2.0121e-07
3.54494e-07
1.90829e-07
3.69487e-07
1.80721e-07
3.83551e-07
1.70923e-07
3.96745e-07
1.61461e-07
4.09126e-07
1.52358e-07
4.20757e-07
1.43629e-07
4.31695e-07
1.35285e-07
4.42e-07
1.27332e-07
4.51727e-07
1.19771e-07
4.6093e-07
1.12601e-07
4.69661e-07
1.05817e-07
4.77969e-07
9.94126e-08
4.85898e-07
9.33784e-08
4.93492e-07
8.77041e-08
5.00791e-07
8.2378e-08
5.0783e-07
7.73874e-08
5.14644e-07
7.2719e-08
5.21263e-07
6.83589e-08
5.27717e-07
6.42931e-08
5.34031e-07
6.05073e-08
5.40228e-07
5.69873e-08
5.46331e-07
5.3719e-08
5.52359e-07
5.06886e-08
5.58324e-07
4.77894e-08
5.03458e-07
-5.84564e-07
-5.43587e-06
3.44752e-08
2.80546e-08
3.01704e-07
5.54958e-08
2.95361e-07
8.22269e-08
2.882e-07
1.08165e-07
2.80334e-07
1.33241e-07
2.71876e-07
1.57401e-07
2.62932e-07
1.80602e-07
2.53606e-07
2.02817e-07
2.43993e-07
2.24029e-07
2.34185e-07
2.44235e-07
2.24265e-07
2.63442e-07
2.14309e-07
2.81666e-07
2.04385e-07
2.98933e-07
1.94554e-07
3.15274e-07
1.84868e-07
3.30728e-07
1.75375e-07
3.45338e-07
1.66111e-07
3.5915e-07
1.5711e-07
3.72213e-07
1.48398e-07
3.84577e-07
1.39994e-07
3.96291e-07
1.31915e-07
4.07407e-07
1.2417e-07
4.17972e-07
1.16766e-07
4.28035e-07
1.09708e-07
4.37642e-07
1.02994e-07
4.46837e-07
9.66228e-08
4.5566e-07
9.05894e-08
4.64151e-07
8.48873e-08
4.72347e-07
7.95086e-08
4.8028e-07
7.44442e-08
4.87984e-07
6.96838e-08
4.95487e-07
6.52165e-08
5.02815e-07
6.10309e-08
5.09993e-07
5.7115e-08
5.17043e-07
5.34567e-08
5.23987e-07
5.00438e-08
5.30842e-07
4.68638e-08
5.37626e-07
4.39047e-08
5.44346e-07
4.10697e-08
4.91656e-07
-5.31874e-07
-4.9763e-06
3.20882e-08
2.5852e-08
2.75852e-07
5.11498e-08
2.70063e-07
7.58139e-08
2.63536e-07
9.9777e-08
2.56371e-07
1.22984e-07
2.48669e-07
1.4539e-07
2.40526e-07
1.66963e-07
2.32032e-07
1.87682e-07
2.23274e-07
2.07535e-07
2.14332e-07
2.26522e-07
2.05278e-07
2.4465e-07
1.96181e-07
2.61935e-07
1.87101e-07
2.78398e-07
1.78091e-07
2.94068e-07
1.69199e-07
3.08977e-07
1.60465e-07
3.23162e-07
1.51926e-07
3.36663e-07
1.43609e-07
3.49521e-07
1.3554e-07
3.61779e-07
1.27737e-07
3.73478e-07
1.20215e-07
3.84662e-07
1.12986e-07
3.95373e-07
1.06056e-07
4.05651e-07
9.94298e-08
4.15536e-07
9.31095e-08
4.25064e-07
8.70944e-08
4.34272e-07
8.13815e-08
4.43192e-07
7.59668e-08
4.51857e-07
7.08442e-08
4.60294e-07
6.60069e-08
4.68531e-07
6.14468e-08
4.76592e-07
5.71553e-08
4.845e-07
5.31228e-08
4.92276e-07
4.93396e-08
4.99937e-07
4.57952e-08
5.07502e-07
4.24792e-08
5.14985e-07
3.93804e-08
5.22402e-07
3.64877e-08
5.29755e-07
3.37168e-08
4.79291e-07
-4.8141e-07
-4.52662e-06
2.96155e-08
2.38614e-08
2.51991e-07
4.72208e-08
2.46704e-07
7.00139e-08
2.40743e-07
9.21861e-08
2.34199e-07
1.13693e-07
2.27163e-07
1.34499e-07
2.19719e-07
1.54581e-07
2.11951e-07
1.73921e-07
2.03934e-07
1.92513e-07
1.9574e-07
2.10357e-07
1.87434e-07
2.27461e-07
1.79077e-07
2.43841e-07
1.70721e-07
2.59515e-07
1.62417e-07
2.74508e-07
1.54205e-07
2.8885e-07
1.46123e-07
3.02573e-07
1.38204e-07
3.15709e-07
1.30473e-07
3.28296e-07
1.22953e-07
3.40369e-07
1.15664e-07
3.51966e-07
1.08618e-07
3.63123e-07
1.01829e-07
3.73876e-07
9.53023e-08
3.84261e-07
8.90448e-08
3.94311e-07
8.30593e-08
4.04059e-07
7.73466e-08
4.13535e-07
7.19057e-08
4.22768e-07
6.67342e-08
4.31783e-07
6.18283e-08
4.40607e-07
5.7183e-08
4.49262e-07
5.27923e-08
4.57768e-07
4.86495e-08
4.66143e-07
4.47473e-08
4.74405e-07
4.10777e-08
4.82568e-07
3.76326e-08
4.90643e-07
3.44033e-08
4.98642e-07
3.13814e-08
5.06572e-07
2.85581e-08
5.14422e-07
2.58666e-08
4.6629e-07
-4.33278e-07
-4.08737e-06
2.70372e-08
2.20454e-08
2.29945e-07
4.36355e-08
2.25114e-07
6.47184e-08
2.1966e-07
8.52501e-08
2.13667e-07
1.05195e-07
2.07217e-07
1.24527e-07
2.00388e-07
1.43226e-07
1.93252e-07
1.6128e-07
1.8588e-07
1.78686e-07
1.78334e-07
1.95446e-07
1.70674e-07
2.11568e-07
1.62955e-07
2.27066e-07
1.55224e-07
2.41958e-07
1.47525e-07
2.56267e-07
1.39896e-07
2.70017e-07
1.32372e-07
2.83239e-07
1.24982e-07
2.9596e-07
1.17751e-07
3.08214e-07
1.107e-07
3.20031e-07
1.03847e-07
3.31444e-07
9.72049e-08
3.42486e-07
9.07865e-08
3.53189e-07
8.46e-08
3.63582e-07
7.86516e-08
3.73696e-07
7.29455e-08
3.83558e-07
6.7484e-08
3.93196e-07
6.22678e-08
4.02634e-07
5.72961e-08
4.11895e-07
5.2567e-08
4.21001e-07
4.80773e-08
4.29971e-07
4.38229e-08
4.38821e-07
3.97992e-08
4.47568e-07
3.60005e-08
4.56225e-07
3.24208e-08
4.64804e-07
2.90534e-08
4.73315e-07
2.58917e-08
4.81768e-07
2.29285e-08
4.90169e-07
2.0157e-08
4.98506e-07
1.75296e-08
4.52507e-07
-3.87279e-07
-3.65915e-06
2.42843e-08
2.03729e-08
2.09573e-07
4.03321e-08
2.05155e-07
5.98361e-08
2.00156e-07
7.88498e-08
1.94654e-07
9.73455e-08
1.88722e-07
1.15302e-07
1.82431e-07
1.32705e-07
1.75849e-07
1.49547e-07
1.69038e-07
1.65826e-07
1.62055e-07
1.81545e-07
1.54955e-07
1.96714e-07
1.47786e-07
2.11344e-07
1.40593e-07
2.25454e-07
1.33414e-07
2.39064e-07
1.26286e-07
2.52197e-07
1.1924e-07
2.64878e-07
1.12301e-07
2.77135e-07
1.05495e-07
2.88995e-07
9.88402e-08
3.00487e-07
9.23545e-08
3.1164e-07
8.60517e-08
3.22483e-07
7.99431e-08
3.33045e-07
7.4038e-08
3.43354e-07
6.83434e-08
3.53434e-07
6.28646e-08
3.63313e-07
5.76052e-08
3.73014e-07
5.25674e-08
3.82558e-07
4.77521e-08
3.91966e-07
4.3159e-08
4.01256e-07
3.87869e-08
4.10445e-07
3.46337e-08
4.19548e-07
3.06963e-08
4.28578e-07
2.6971e-08
4.37545e-07
2.34532e-08
4.46461e-07
2.01378e-08
4.55334e-07
1.70188e-08
4.64173e-07
1.40894e-08
4.72988e-07
1.13419e-08
4.81771e-07
8.74608e-09
4.37842e-07
-3.4335e-07
-3.2427e-06
2.13959e-08
1.88175e-08
1.90755e-07
3.72589e-08
1.86713e-07
5.52909e-08
1.82124e-07
7.2886e-08
1.77058e-07
9.00224e-08
1.71585e-07
1.06684e-07
1.6577e-07
1.2286e-07
1.59673e-07
1.38546e-07
1.53352e-07
1.53742e-07
1.46859e-07
1.68452e-07
1.40245e-07
1.82686e-07
1.33553e-07
1.96455e-07
1.26823e-07
2.09777e-07
1.20093e-07
2.22669e-07
1.13394e-07
2.35153e-07
1.06755e-07
2.47253e-07
1.00201e-07
2.58993e-07
9.3755e-08
2.70398e-07
8.74347e-08
2.81496e-07
8.12568e-08
2.92313e-07
7.52352e-08
3.02875e-07
6.93811e-08
3.13208e-07
6.37043e-08
3.23339e-07
5.82125e-08
3.33292e-07
5.29119e-08
3.4309e-07
4.78072e-08
3.52755e-07
4.29022e-08
3.62308e-07
3.81994e-08
3.71767e-07
3.37003e-08
3.81148e-07
2.94056e-08
3.90466e-07
2.53152e-08
3.99734e-07
2.14283e-08
4.08962e-07
1.77433e-08
4.18157e-07
1.42578e-08
4.27327e-07
1.09688e-08
4.36473e-07
7.87244e-09
4.45598e-07
4.96412e-09
4.54702e-07
2.23822e-09
4.63759e-07
-3.11228e-10
4.22337e-07
-3.01928e-07
-2.83877e-06
1.84063e-08
1.73576e-08
1.73398e-07
3.43731e-08
1.69698e-07
5.102e-08
1.65477e-07
6.72767e-08
1.60802e-07
8.31261e-08
1.55736e-07
9.85562e-08
1.5034e-07
1.1356e-07
1.44669e-07
1.28133e-07
1.38778e-07
1.42279e-07
1.32714e-07
1.56001e-07
1.26522e-07
1.6931e-07
1.20244e-07
1.82217e-07
1.13917e-07
1.94737e-07
1.07573e-07
2.06888e-07
1.01243e-07
2.1869e-07
9.49533e-08
2.30164e-07
8.87274e-08
2.41333e-07
8.25858e-08
2.52221e-07
7.65464e-08
2.62854e-07
7.06247e-08
2.73255e-07
6.4834e-08
2.8345e-07
5.91857e-08
2.93465e-07
5.36896e-08
3.03323e-07
4.83539e-08
3.1305e-07
4.31855e-08
3.22667e-07
3.81903e-08
3.32196e-07
3.33731e-08
3.41657e-07
2.87382e-08
3.51069e-07
2.42888e-08
3.60447e-07
2.00276e-08
3.69805e-07
1.59568e-08
3.79155e-07
1.2078e-08
3.88506e-07
8.39229e-09
3.97864e-07
4.90008e-09
4.07231e-07
1.60144e-09
4.16608e-07
-1.50409e-09
4.25989e-07
-4.41726e-09
4.35366e-07
-7.13888e-09
4.447e-07
-9.6449e-09
4.05704e-07
-2.62932e-07
-2.44828e-06
1.52108e-08
1.59756e-08
1.57422e-07
3.164e-08
1.54033e-07
4.69723e-08
1.50145e-07
6.19553e-08
1.45819e-07
7.65758e-08
1.41115e-07
9.08248e-08
1.36091e-07
1.04697e-07
1.30797e-07
1.18191e-07
1.25284e-07
1.3131e-07
1.19595e-07
1.44058e-07
1.13774e-07
1.56445e-07
1.07857e-07
1.68483e-07
1.01879e-07
1.80185e-07
9.58712e-08
1.91567e-07
8.98604e-08
2.02649e-07
8.38716e-08
2.1345e-07
7.79264e-08
2.23991e-07
7.20441e-08
2.34296e-07
6.62413e-08
2.44388e-07
6.05327e-08
2.54292e-07
5.49309e-08
2.6403e-07
4.9447e-08
2.7363e-07
4.40904e-08
2.83114e-07
3.88696e-08
2.92507e-07
3.37919e-08
3.01834e-07
2.88637e-08
3.11116e-07
2.4091e-08
3.20375e-07
1.94791e-08
3.29631e-07
1.50329e-08
3.38902e-07
1.0757e-08
3.48203e-07
6.65587e-09
3.57547e-07
2.7336e-09
3.66945e-07
-1.00599e-09
3.76405e-07
-4.55947e-09
3.8593e-07
-7.92392e-09
3.95523e-07
-1.10971e-08
4.05184e-07
-1.40779e-08
4.14911e-07
-1.68661e-08
4.24682e-07
-1.9416e-08
3.87685e-07
-2.25934e-07
-2.07236e-06
1.17646e-08
1.46572e-08
1.42765e-07
2.90318e-08
1.39659e-07
4.31068e-08
1.3607e-07
5.68686e-08
1.32057e-07
7.03069e-08
1.27677e-07
8.34149e-08
1.22983e-07
9.6189e-08
1.18023e-07
1.08629e-07
1.12844e-07
1.20737e-07
1.07487e-07
1.32519e-07
1.01992e-07
1.43983e-07
9.63931e-08
1.5514e-07
9.07222e-08
1.66003e-07
8.50082e-08
1.76587e-07
7.92764e-08
1.86909e-07
7.35496e-08
1.96987e-07
6.7848e-08
2.06842e-07
6.21891e-08
2.16495e-07
5.65885e-08
2.25969e-07
5.10594e-08
2.35286e-07
4.56137e-08
2.44471e-07
4.02616e-08
2.53549e-07
3.5012e-08
2.62546e-07
2.98727e-08
2.71488e-07
2.48508e-08
2.80398e-07
1.99529e-08
2.89304e-07
1.51851e-08
2.9823e-07
1.05533e-08
3.07199e-07
6.0636e-09
3.16234e-07
1.72202e-09
3.25355e-07
-2.46501e-09
3.3458e-07
-6.4908e-09
3.43922e-07
-1.03484e-08
3.53393e-07
-1.40305e-08
3.62999e-07
-1.753e-08
3.72742e-07
-2.08401e-08
3.82618e-07
-2.39543e-08
3.9262e-07
-2.68675e-08
4.02711e-07
-2.95075e-08
3.68252e-07
-1.91475e-07
-1.71233e-06
8.22625e-09
1.33914e-08
1.29373e-07
2.65263e-08
1.26524e-07
3.93912e-08
1.23205e-07
5.19749e-08
1.19473e-07
6.42692e-08
1.15383e-07
7.62687e-08
1.10983e-07
8.79706e-08
1.06321e-07
9.93751e-08
1.01439e-07
1.10485e-07
9.63777e-08
1.21304e-07
9.11722e-08
1.31842e-07
8.58557e-08
1.42106e-07
8.04578e-08
1.52109e-07
7.50051e-08
1.61864e-07
6.95213e-08
1.71387e-07
6.40274e-08
1.80693e-07
5.85419e-08
1.89801e-07
5.30808e-08
1.98731e-07
4.76581e-08
2.07505e-07
4.2286e-08
2.16144e-07
3.69747e-08
2.24672e-07
3.17332e-08
2.33115e-07
2.65691e-08
2.41499e-07
2.14891e-08
2.4985e-07
1.64992e-08
2.58198e-07
1.16049e-08
2.66572e-07
6.81133e-09
2.75001e-07
2.12399e-09
2.83516e-07
-2.45138e-09
2.92147e-07
-6.90836e-09
3.00921e-07
-1.12396e-08
3.09867e-07
-1.54365e-08
3.19008e-07
-1.94893e-08
3.28364e-07
-2.33865e-08
3.3795e-07
-2.71157e-08
3.47772e-07
-3.06628e-08
3.57831e-07
-3.40133e-08
3.68116e-07
-3.71524e-08
3.78589e-07
-3.99802e-08
3.46971e-07
-1.59858e-07
-1.36993e-06
4.56505e-09
1.21694e-08
1.17204e-07
2.41069e-08
1.14586e-07
3.58011e-08
1.11511e-07
4.72427e-08
1.08032e-07
5.84248e-08
1.04201e-07
6.93428e-08
1.00065e-07
7.99944e-08
9.56694e-08
9.03796e-08
9.10542e-08
1.005e-07
8.62569e-08
1.10361e-07
8.13117e-08
1.19967e-07
7.62493e-08
1.29328e-07
7.10977e-08
1.38451e-07
6.58817e-08
1.47349e-07
6.06233e-08
1.56034e-07
5.5342e-08
1.64521e-07
5.00548e-08
1.72826e-07
4.47761e-08
1.80966e-07
3.95185e-08
1.88959e-07
3.42925e-08
1.96827e-07
2.91069e-08
2.04592e-07
2.39687e-08
2.12277e-07
1.88839e-08
2.19909e-07
1.3857e-08
2.27516e-07
8.89183e-09
2.3513e-07
3.99155e-09
2.42782e-07
-8.41059e-10
2.50509e-07
-5.60315e-09
2.58349e-07
-1.02915e-08
2.66343e-07
-1.49018e-08
2.74532e-07
-1.94287e-08
2.8296e-07
-2.38644e-08
2.91669e-07
-2.81987e-08
3.00701e-07
-3.24181e-08
3.1009e-07
-3.65053e-08
3.19867e-07
-4.04392e-08
3.30048e-07
-4.41949e-08
3.40641e-07
-4.77451e-08
3.51627e-07
-5.09662e-08
3.23328e-07
-1.31559e-07
-1.04749e-06
8.941e-10
1.09847e-08
1.06219e-07
2.17607e-08
1.0381e-07
3.2318e-08
1.00953e-07
4.26485e-08
9.77012e-08
5.2746e-08
9.41031e-08
6.26064e-08
9.02048e-08
7.22271e-08
8.60487e-08
8.16077e-08
8.16736e-08
9.07494e-08
7.71153e-08
9.96548e-08
7.24062e-08
1.08328e-07
6.75757e-08
1.16776e-07
6.265e-08
1.25005e-07
5.76528e-08
1.33024e-07
5.26047e-08
1.40842e-07
4.75239e-08
1.4847e-07
4.2426e-08
1.55922e-07
3.73242e-08
1.63211e-07
3.22298e-08
1.70352e-07
2.71516e-08
1.77362e-07
2.20969e-08
1.8426e-07
1.70708e-08
1.91067e-07
1.20771e-08
1.97806e-07
7.11789e-09
2.04504e-07
2.19387e-09
2.11191e-07
-2.69533e-09
2.17901e-07
-7.55107e-09
2.24673e-07
-1.23754e-08
2.31552e-07
-1.71706e-08
2.38589e-07
-2.1939e-08
2.45842e-07
-2.66819e-08
2.53377e-07
-3.13987e-08
2.61264e-07
-3.60861e-08
2.69582e-07
-4.07357e-08
2.78409e-07
-4.53322e-08
2.8782e-07
-4.98506e-08
2.97878e-07
-5.42527e-08
3.08617e-07
-5.84847e-08
3.2003e-07
-6.23784e-08
2.95595e-07
-1.07124e-07
-7.48109e-07
-3.78735e-09
9.83278e-09
9.63865e-08
1.94787e-08
9.41643e-08
2.89289e-08
9.15032e-08
3.81758e-08
8.84542e-08
4.72138e-08
8.50651e-08
5.60385e-08
8.13801e-08
6.46471e-08
7.744e-08
7.30384e-08
7.32824e-08
8.12122e-08
6.89415e-08
8.91697e-08
6.44487e-08
9.69133e-08
5.98321e-08
1.04446e-07
5.5117e-08
1.11773e-07
5.03259e-08
1.18899e-07
4.54786e-08
1.25831e-07
4.05924e-08
1.32575e-07
3.56821e-08
1.39139e-07
3.07599e-08
1.45533e-07
2.58361e-08
1.51766e-07
2.09187e-08
1.57849e-07
1.60134e-08
1.63796e-07
1.11241e-08
1.6962e-07
6.2527e-09
1.75339e-07
1.39894e-09
1.80972e-07