/*--------------------------------*- C++ -*----------------------------------*\
  =========                 |
  \\      /  F ield         | OpenFOAM: The Open Source CFD Toolbox
   \\    /   O peration     | Website:  https://openfoam.org
    \\  /    A nd           | Version:  10
     \\/     M anipulation  |
\*---------------------------------------------------------------------------*/
FoamFile
{
    format      ascii;
    class       volVectorField;
    location    "23750";
    object      Ub;
}
// * * * * * * * * * * * * * * * * * * * * * * * * * * * * * * * * * * * * * //

dimensions      [0 1 -1 0 0 0 0];

internalField   nonuniform List<vector> 
3200
(
(-1.74211e-20 -9.87874e-16 0)
(-5.44857e-20 -9.8787e-16 0)
(-9.92705e-20 -9.87861e-16 0)
(-1.60491e-19 -9.87844e-16 0)
(-2.53962e-19 -9.8781e-16 0)
(-6.40343e-17 -9.87741e-16 0)
(-1.93369e-06 -1.22396e-13 0)
(-3.42772e-05 -5.72407e-05 0)
(-6.64239e-05 -1.2056e-05 0)
(-6.88973e-05 -4.81679e-06 0)
(-7.0099e-05 -2.66385e-06 0)
(-7.08993e-05 -1.68852e-06 0)
(-7.14925e-05 -1.15997e-06 0)
(-7.19571e-05 -8.42021e-07 0)
(-7.2334e-05 -6.36711e-07 0)
(-7.26474e-05 -4.97003e-07 0)
(-7.2913e-05 -3.97979e-07 0)
(-7.31415e-05 -3.25454e-07 0)
(-7.33405e-05 -2.70881e-07 0)
(-7.35156e-05 -2.28871e-07 0)
(-7.36711e-05 -1.95897e-07 0)
(-7.38102e-05 -1.69578e-07 0)
(-7.39354e-05 -1.4826e-07 0)
(-7.40488e-05 -1.30778e-07 0)
(-7.03877e-05 -8.44607e-06 0)
(-6.11452e-05 -1.2657e-05 0)
(-5.20039e-05 -8.47614e-06 0)
(-4.61484e-05 -5.40878e-06 0)
(-4.25128e-05 -3.47653e-06 0)
(-4.02248e-05 -2.31714e-06 0)
(-3.87158e-05 -1.65962e-06 0)
(-3.76202e-05 -1.34304e-06 0)
(-3.66844e-05 -1.29237e-06 0)
(-3.56996e-05 -1.50131e-06 0)
(-3.44477e-05 -2.02892e-06 0)
(-3.26492e-05 -3.01122e-06 0)
(-2.99005e-05 -4.69044e-06 0)
(-2.55864e-05 -7.47054e-06 0)
(-1.87438e-05 -1.20215e-05 0)
(-8.3545e-06 -1.79706e-05 0)
(-1.20039e-20 -9.87831e-16 0)
(-3.60987e-20 -9.87823e-16 0)
(-6.01283e-20 -9.87805e-16 0)
(-8.20178e-20 -9.87773e-16 0)
(-9.3723e-20 -9.87718e-16 0)
(-7.10957e-20 -9.87621e-16 0)
(5.17347e-20 -9.87449e-16 0)
(2.32422e-19 -9.77923e-16 0)
(2.81219e-19 -9.40735e-16 0)
(2.26363e-19 -9.07322e-16 0)
(1.90658e-19 -8.76113e-16 0)
(1.66287e-19 -8.46486e-16 0)
(1.48753e-19 -8.18108e-16 0)
(1.35591e-19 -7.90775e-16 0)
(1.25391e-19 -7.64349e-16 0)
(1.17309e-19 -7.38728e-16 0)
(1.10817e-19 -7.13837e-16 0)
(1.05582e-19 -6.89616e-16 0)
(1.01399e-19 -6.66018e-16 0)
(9.81647e-20 -6.43003e-16 0)
(9.58699e-20 -6.20538e-16 0)
(9.46212e-20 -5.98595e-16 0)
(9.46942e-20 -5.77149e-16 0)
(9.76993e-15 -1.1435e-11 0)
(-7.33693e-07 -8.33001e-06 0)
(-6.91489e-06 -1.25525e-05 0)
(-1.60202e-05 -8.38036e-06 0)
(-2.19826e-05 -5.32022e-06 0)
(-2.57445e-05 -3.39403e-06 0)
(-2.81554e-05 -2.2398e-06 0)
(-2.97784e-05 -1.5867e-06 0)
(-3.09782e-05 -1.27395e-06 0)
(-3.20088e-05 -1.22662e-06 0)
(-3.308e-05 -1.4385e-06 0)
(-3.44104e-05 -1.96875e-06 0)
(-3.62803e-05 -2.95348e-06 0)
(-3.90935e-05 -4.63499e-06 0)
(-4.34612e-05 -7.42955e-06 0)
(-4.62522e-05 -2.35965e-05 0)
(-2.41703e-05 -0.000100004 0)
(-5.94722e-21 -9.87805e-16 0)
(-1.69373e-20 -9.87798e-16 0)
(-2.49396e-20 -9.87783e-16 0)
(-2.67456e-20 -9.8776e-16 0)
(-1.70551e-20 -9.87728e-16 0)
(1.15029e-20 -9.87691e-16 0)
(6.39353e-20 -9.87662e-16 0)
(1.22463e-19 -9.87686e-16 0)
(1.53449e-19 -9.87752e-16 0)
(1.55931e-19 -9.87793e-16 0)
(1.49087e-19 -9.8782e-16 0)
(1.3995e-19 -9.87838e-16 0)
(1.30965e-19 -9.8785e-16 0)
(1.22892e-19 -9.87859e-16 0)
(1.15876e-19 -9.87866e-16 0)
(1.09859e-19 -9.87871e-16 0)
(1.04723e-19 -9.87875e-16 0)
(1.00344e-19 -9.87878e-16 0)
(9.66079e-20 -9.87881e-16 0)
(9.3401e-20 -9.87884e-16 0)
(9.05933e-20 -9.87887e-16 0)
(8.79979e-20 -9.8789e-16 0)
(8.5291e-20 -9.87893e-16 0)
(8.18539e-20 -9.87897e-16 0)
(7.56167e-20 -9.87904e-16 0)
(7.05302e-20 -9.87251e-16 0)
(6.91558e-20 -9.82617e-16 0)
(6.83109e-20 -9.75843e-16 0)
(6.78067e-20 -9.67985e-16 0)
(6.75738e-20 -9.59619e-16 0)
(6.7612e-20 -9.5105e-16 0)
(6.79706e-20 -9.4243e-16 0)
(6.87449e-20 -9.33825e-16 0)
(7.00865e-20 -9.25239e-16 0)
(7.22277e-20 -9.16631e-16 0)
(7.55239e-20 -9.07912e-16 0)
(8.05246e-20 -8.98947e-16 0)
(1.94255e-12 -1.22297e-08 0)
(8.68597e-09 -2.09385e-05 0)
(1.82551e-08 -0.000158733 0)
(-1.60316e-21 -9.87794e-16 0)
(-3.91539e-21 -9.87789e-16 0)
(-3.51605e-21 -9.8778e-16 0)
(1.54532e-21 -9.87768e-16 0)
(1.32433e-20 -9.87754e-16 0)
(3.27717e-20 -9.87741e-16 0)
(5.87079e-20 -9.87737e-16 0)
(8.47815e-20 -9.87749e-16 0)
(1.03191e-19 -9.87771e-16 0)
(1.12135e-19 -9.87794e-16 0)
(1.14671e-19 -9.87812e-16 0)
(1.13602e-19 -9.87827e-16 0)
(1.10742e-19 -9.87839e-16 0)
(1.07134e-19 -9.87849e-16 0)
(1.03337e-19 -9.87856e-16 0)
(9.96336e-20 -9.87862e-16 0)
(9.61514e-20 -9.87867e-16 0)
(9.29331e-20 -9.87871e-16 0)
(8.99711e-20 -9.87875e-16 0)
(8.7225e-20 -9.87878e-16 0)
(8.4628e-20 -9.87882e-16 0)
(8.2089e-20 -9.87884e-16 0)
(7.94996e-20 -9.87887e-16 0)
(7.67613e-20 -9.87889e-16 0)
(7.38709e-20 -9.87891e-16 0)
(7.1313e-20 -9.87892e-16 0)
(6.94237e-20 -9.87892e-16 0)
(6.80121e-20 -9.87892e-16 0)
(6.69431e-20 -9.87893e-16 0)
(6.61236e-20 -9.87894e-16 0)
(6.54858e-20 -9.87895e-16 0)
(6.49703e-20 -9.87896e-16 0)
(6.45076e-20 -9.87897e-16 0)
(6.39937e-20 -9.87899e-16 0)
(6.32529e-20 -9.87901e-16 0)
(6.19759e-20 -9.87904e-16 0)
(5.96175e-20 -9.87908e-16 0)
(6.1108e-20 -1.32551e-15 0)
(2.76941e-09 -1.83154e-05 0)
(2.03617e-08 -0.000150032 0)
(8.8639e-22 -9.87793e-16 0)
(3.24603e-21 -9.8779e-16 0)
(7.31505e-21 -9.87786e-16 0)
(1.40478e-20 -9.8778e-16 0)
(2.40313e-20 -9.87775e-16 0)
(3.71395e-20 -9.87771e-16 0)
(5.21431e-20 -9.87772e-16 0)
(6.67011e-20 -9.87779e-16 0)
(7.84361e-20 -9.8779e-16 0)
(8.63676e-20 -9.87803e-16 0)
(9.08871e-20 -9.87815e-16 0)
(9.28474e-20 -9.87826e-16 0)
(9.30742e-20 -9.87836e-16 0)
(9.22089e-20 -9.87844e-16 0)
(9.07008e-20 -9.87851e-16 0)
(8.88453e-20 -9.87857e-16 0)
(8.6827e-20 -9.87862e-16 0)
(8.47539e-20 -9.87866e-16 0)
(8.26827e-20 -9.8787e-16 0)
(8.06357e-20 -9.87874e-16 0)
(7.86137e-20 -9.87877e-16 0)
(7.66067e-20 -9.8788e-16 0)
(7.46063e-20 -9.87882e-16 0)
(7.26211e-20 -9.87884e-16 0)
(7.06946e-20 -9.87886e-16 0)
(6.89145e-20 -9.87887e-16 0)
(6.73424e-20 -9.87888e-16 0)
(6.59721e-20 -9.87889e-16 0)
(6.47693e-20 -9.8789e-16 0)
(6.36898e-20 -9.87892e-16 0)
(6.26839e-20 -9.87893e-16 0)
(6.16971e-20 -9.87894e-16 0)
(6.06669e-20 -9.87895e-16 0)
(5.95202e-20 -9.87896e-16 0)
(5.8173e-20 -9.87898e-16 0)
(5.65355e-20 -9.87899e-16 0)
(5.45332e-20 -9.87901e-16 0)
(6.38443e-20 -1.53644e-15 0)
(2.53698e-09 -1.75419e-05 0)
(1.71152e-08 -0.000143513 0)
(2.08552e-21 -9.87797e-16 0)
(6.56811e-21 -9.87796e-16 0)
(1.19478e-20 -9.87794e-16 0)
(1.86536e-20 -9.87792e-16 0)
(2.68232e-20 -9.87791e-16 0)
(3.62029e-20 -9.87791e-16 0)
(4.61151e-20 -9.87793e-16 0)
(5.55951e-20 -9.87798e-16 0)
(6.37421e-20 -9.87804e-16 0)
(7.00648e-20 -9.87812e-16 0)
(7.45258e-20 -9.87821e-16 0)
(7.73598e-20 -9.87829e-16 0)
(7.88995e-20 -9.87836e-16 0)
(7.94716e-20 -9.87843e-16 0)
(7.93518e-20 -9.87849e-16 0)
(7.87542e-20 -9.87854e-16 0)
(7.78357e-20 -9.87859e-16 0)
(7.6707e-20 -9.87863e-16 0)
(7.54428e-20 -9.87867e-16 0)
(7.40925e-20 -9.8787e-16 0)
(7.26883e-20 -9.87873e-16 0)
(7.12525e-20 -9.87876e-16 0)
(6.98043e-20 -9.87878e-16 0)
(6.83646e-20 -9.8788e-16 0)
(6.69582e-20 -9.87882e-16 0)
(6.56109e-20 -9.87884e-16 0)
(6.43395e-20 -9.87885e-16 0)
(6.31453e-20 -9.87887e-16 0)
(6.20173e-20 -9.87888e-16 0)
(6.09361e-20 -9.87889e-16 0)
(5.98771e-20 -9.8789e-16 0)
(5.88127e-20 -9.87891e-16 0)
(5.77141e-20 -9.87892e-16 0)
(5.65543e-20 -9.87893e-16 0)
(5.53112e-20 -9.87894e-16 0)
(5.39741e-20 -9.87895e-16 0)
(5.25505e-20 -9.87896e-16 0)
(6.74975e-20 -1.70447e-15 0)
(2.2995e-09 -1.65901e-05 0)
(1.47107e-08 -0.000137053 0)
(2.53862e-21 -9.87804e-16 0)
(7.75105e-21 -9.87804e-16 0)
(1.3363e-20 -9.87803e-16 0)
(1.95561e-20 -9.87803e-16 0)
(2.63398e-20 -9.87803e-16 0)
(3.35318e-20 -9.87804e-16 0)
(4.07821e-20 -9.87807e-16 0)
(4.7655e-20 -9.8781e-16 0)
(5.37549e-20 -9.87815e-16 0)
(5.88313e-20 -9.87821e-16 0)
(6.28063e-20 -9.87827e-16 0)
(6.57353e-20 -9.87833e-16 0)
(6.77488e-20 -9.87838e-16 0)
(6.9005e-20 -9.87844e-16 0)
(6.9659e-20 -9.87849e-16 0)
(6.98475e-20 -9.87854e-16 0)
(6.96834e-20 -9.87858e-16 0)
(6.9256e-20 -9.87862e-16 0)
(6.86342e-20 -9.87865e-16 0)
(6.78701e-20 -9.87868e-16 0)
(6.70033e-20 -9.87871e-16 0)
(6.60648e-20 -9.87873e-16 0)
(6.50796e-20 -9.87876e-16 0)
(6.4069e-20 -9.87878e-16 0)
(6.30511e-20 -9.8788e-16 0)
(6.20404e-20 -9.87881e-16 0)
(6.10459e-20 -9.87883e-16 0)
(6.00709e-20 -9.87884e-16 0)
(5.91128e-20 -9.87885e-16 0)
(5.81653e-20 -9.87887e-16 0)
(5.72193e-20 -9.87888e-16 0)
(5.62647e-20 -9.87889e-16 0)
(5.5292e-20 -9.8789e-16 0)
(5.42941e-20 -9.8789e-16 0)
(5.32676e-20 -9.87891e-16 0)
(5.22149e-20 -9.87892e-16 0)
(5.11445e-20 -9.87892e-16 0)
(6.98918e-20 -1.88359e-15 0)
(2.06892e-09 -1.56254e-05 0)
(1.27499e-08 -0.000130659 0)
(2.60642e-21 -9.87811e-16 0)
(7.85732e-21 -9.87811e-16 0)
(1.32397e-20 -9.87812e-16 0)
(1.88219e-20 -9.87812e-16 0)
(2.45816e-20 -9.87813e-16 0)
(3.04052e-20 -9.87815e-16 0)
(3.61097e-20 -9.87817e-16 0)
(4.1483e-20 -9.8782e-16 0)
(4.63339e-20 -9.87824e-16 0)
(5.05307e-20 -9.87828e-16 0)
(5.40152e-20 -9.87832e-16 0)
(5.67945e-20 -9.87837e-16 0)
(5.89211e-20 -9.87842e-16 0)
(6.04723e-20 -9.87846e-16 0)
(6.15342e-20 -9.8785e-16 0)
(6.21906e-20 -9.87854e-16 0)
(6.25178e-20 -9.87858e-16 0)
(6.25811e-20 -9.87861e-16 0)
(6.24357e-20 -9.87864e-16 0)
(6.21264e-20 -9.87867e-16 0)
(6.16901e-20 -9.87869e-16 0)
(6.11568e-20 -9.87872e-16 0)
(6.05508e-20 -9.87874e-16 0)
(5.98921e-20 -9.87876e-16 0)
(5.91969e-20 -9.87878e-16 0)
(5.84774e-20 -9.87879e-16 0)
(5.77425e-20 -9.87881e-16 0)
(5.69975e-20 -9.87882e-16 0)
(5.62448e-20 -9.87883e-16 0)
(5.54849e-20 -9.87884e-16 0)
(5.47165e-20 -9.87886e-16 0)
(5.39381e-20 -9.87886e-16 0)
(5.31485e-20 -9.87887e-16 0)
(5.23476e-20 -9.87888e-16 0)
(5.15366e-20 -9.87889e-16 0)
(5.07189e-20 -9.87889e-16 0)
(4.98997e-20 -9.8789e-16 0)
(7.3812e-20 -2.13618e-15 0)
(1.85652e-09 -1.46904e-05 0)
(1.10519e-08 -0.000124336 0)
(2.49439e-21 -9.87819e-16 0)
(7.47288e-21 -9.87819e-16 0)
(1.24502e-20 -9.87819e-16 0)
(1.74435e-20 -9.8782e-16 0)
(2.24251e-20 -9.87821e-16 0)
(2.7325e-20 -9.87823e-16 0)
(3.20432e-20 -9.87825e-16 0)
(3.64699e-20 -9.87828e-16 0)
(4.05061e-20 -9.87831e-16 0)
(4.40806e-20 -9.87834e-16 0)
(4.71567e-20 -9.87838e-16 0)
(4.97308e-20 -9.87841e-16 0)
(5.18256e-20 -9.87845e-16 0)
(5.34809e-20 -9.87848e-16 0)
(5.47456e-20 -9.87852e-16 0)
(5.56715e-20 -9.87855e-16 0)
(5.63091e-20 -9.87858e-16 0)
(5.67047e-20 -9.87861e-16 0)
(5.68995e-20 -9.87864e-16 0)
(5.69294e-20 -9.87866e-16 0)
(5.6825e-20 -9.87869e-16 0)
(5.66122e-20 -9.87871e-16 0)
(5.63126e-20 -9.87873e-16 0)
(5.59444e-20 -9.87875e-16 0)
(5.55223e-20 -9.87876e-16 0)
(5.50581e-20 -9.87878e-16 0)
(5.4561e-20 -9.87879e-16 0)
(5.4038e-20 -9.87881e-16 0)
(5.34942e-20 -9.87882e-16 0)
(5.29331e-20 -9.87883e-16 0)
(5.23574e-20 -9.87884e-16 0)
(5.17694e-20 -9.87885e-16 0)
(5.11712e-20 -9.87886e-16 0)
(5.05649e-20 -9.87886e-16 0)
(4.99532e-20 -9.87887e-16 0)
(4.93393e-20 -9.87887e-16 0)
(4.87266e-20 -9.87888e-16 0)
(7.9502e-20 -2.43677e-15 0)
(1.66301e-09 -1.37923e-05 0)
(9.55232e-09 -0.000118085 0)
(2.31031e-21 -9.87826e-16 0)
(6.89902e-21 -9.87826e-16 0)
(1.14265e-20 -9.87827e-16 0)
(1.58875e-20 -9.87827e-16 0)
(2.02561e-20 -9.87829e-16 0)
(2.44869e-20 -9.8783e-16 0)
(2.85225e-20 -9.87832e-16 0)
(3.23022e-20 -9.87834e-16 0)
(3.57722e-20 -9.87837e-16 0)
(3.8893e-20 -9.87839e-16 0)
(4.16426e-20 -9.87842e-16 0)
(4.40169e-20 -9.87845e-16 0)
(4.60271e-20 -9.87848e-16 0)
(4.76953e-20 -9.87851e-16 0)
(4.90509e-20 -9.87854e-16 0)
(5.01269e-20 -9.87857e-16 0)
(5.09568e-20 -9.87859e-16 0)
(5.15733e-20 -9.87862e-16 0)
(5.20068e-20 -9.87864e-16 0)
(5.22847e-20 -9.87867e-16 0)
(5.24314e-20 -9.87869e-16 0)
(5.24684e-20 -9.87871e-16 0)
(5.2414e-20 -9.87872e-16 0)
(5.2284e-20 -9.87874e-16 0)
(5.20918e-20 -9.87876e-16 0)
(5.18485e-20 -9.87877e-16 0)
(5.15633e-20 -9.87878e-16 0)
(5.12437e-20 -9.8788e-16 0)
(5.0896e-20 -9.87881e-16 0)
(5.05253e-20 -9.87882e-16 0)
(5.01359e-20 -9.87883e-16 0)
(4.97315e-20 -9.87883e-16 0)
(4.93155e-20 -9.87884e-16 0)
(4.8891e-20 -9.87885e-16 0)
(4.84613e-20 -9.87885e-16 0)
(4.80293e-20 -9.87886e-16 0)
(4.7598e-20 -9.87886e-16 0)
(8.53415e-20 -2.73959e-15 0)
(1.48694e-09 -1.293e-05 0)
(8.22384e-09 -0.000111909 0)
(2.10739e-21 -9.87832e-16 0)
(6.28237e-21 -9.87832e-16 0)
(1.03729e-20 -9.87833e-16 0)
(1.4365e-20 -9.87834e-16 0)
(1.82356e-20 -9.87835e-16 0)
(2.19539e-20 -9.87836e-16 0)
(2.54844e-20 -9.87838e-16 0)
(2.87918e-20 -9.8784e-16 0)
(3.18452e-20 -9.87842e-16 0)
(3.46222e-20 -9.87844e-16 0)
(3.71098e-20 -9.87846e-16 0)
(3.93057e-20 -9.87849e-16 0)
(4.12162e-20 -9.87851e-16 0)
(4.28551e-20 -9.87854e-16 0)
(4.4241e-20 -9.87856e-16 0)
(4.53957e-20 -9.87859e-16 0)
(4.63424e-20 -9.87861e-16 0)
(4.71042e-20 -9.87863e-16 0)
(4.77035e-20 -9.87865e-16 0)
(4.81613e-20 -9.87867e-16 0)
(4.84965e-20 -9.87869e-16 0)
(4.87266e-20 -9.87871e-16 0)
(4.88669e-20 -9.87872e-16 0)
(4.89308e-20 -9.87874e-16 0)
(4.89301e-20 -9.87875e-16 0)
(4.88748e-20 -9.87877e-16 0)
(4.87739e-20 -9.87878e-16 0)
(4.86347e-20 -9.87879e-16 0)
(4.84637e-20 -9.8788e-16 0)
(4.82664e-20 -9.87881e-16 0)
(4.80477e-20 -9.87882e-16 0)
(4.78119e-20 -9.87883e-16 0)
(4.75628e-20 -9.87883e-16 0)
(4.7304e-20 -9.87884e-16 0)
(4.70387e-20 -9.87885e-16 0)
(4.67698e-20 -9.87885e-16 0)
(4.65003e-20 -9.87885e-16 0)
(9.06537e-20 -3.0273e-15 0)
(1.32659e-09 -1.2101e-05 0)
(7.04798e-09 -0.00010581 0)
(1.91024e-21 -9.87838e-16 0)
(5.68966e-21 -9.87838e-16 0)
(9.37938e-21 -9.87839e-16 0)
(1.29628e-20 -9.87839e-16 0)
(1.64201e-20 -9.8784e-16 0)
(1.97291e-20 -9.87842e-16 0)
(2.28664e-20 -9.87843e-16 0)
(2.58102e-20 -9.87845e-16 0)
(2.85418e-20 -9.87846e-16 0)
(3.10481e-20 -9.87848e-16 0)
(3.33218e-20 -9.8785e-16 0)
(3.53617e-20 -9.87852e-16 0)
(3.71723e-20 -9.87854e-16 0)
(3.87629e-20 -9.87857e-16 0)
(4.01462e-20 -9.87859e-16 0)
(4.13372e-20 -9.87861e-16 0)
(4.23524e-20 -9.87863e-16 0)
(4.32087e-20 -9.87865e-16 0)
(4.39226e-20 -9.87866e-16 0)
(4.45101e-20 -9.87868e-16 0)
(4.49864e-20 -9.8787e-16 0)
(4.53653e-20 -9.87871e-16 0)
(4.56593e-20 -9.87873e-16 0)
(4.58798e-20 -9.87874e-16 0)
(4.60371e-20 -9.87875e-16 0)
(4.614e-20 -9.87877e-16 0)
(4.61965e-20 -9.87878e-16 0)
(4.62137e-20 -9.87879e-16 0)
(4.61977e-20 -9.8788e-16 0)
(4.6154e-20 -9.87881e-16 0)
(4.60875e-20 -9.87882e-16 0)
(4.60025e-20 -9.87882e-16 0)
(4.59029e-20 -9.87883e-16 0)
(4.57921e-20 -9.87884e-16 0)
(4.56735e-20 -9.87884e-16 0)
(4.55499e-20 -9.87885e-16 0)
(4.5424e-20 -9.87885e-16 0)
(9.52781e-20 -3.30063e-15 0)
(1.18043e-09 -1.13031e-05 0)
(6.01086e-09 -9.97915e-05 0)
(1.72899e-21 -9.87843e-16 0)
(5.14765e-21 -9.87843e-16 0)
(8.4796e-21 -9.87844e-16 0)
(1.17085e-20 -9.87845e-16 0)
(1.48175e-20 -9.87845e-16 0)
(1.77898e-20 -9.87846e-16 0)
(2.06092e-20 -9.87848e-16 0)
(2.32614e-20 -9.87849e-16 0)
(2.57345e-20 -9.87851e-16 0)
(2.80206e-20 -9.87852e-16 0)
(3.01155e-20 -9.87854e-16 0)
(3.2019e-20 -9.87856e-16 0)
(3.37348e-20 -9.87857e-16 0)
(3.52694e-20 -9.87859e-16 0)
(3.66321e-20 -9.87861e-16 0)
(3.78337e-20 -9.87863e-16 0)
(3.88864e-20 -9.87864e-16 0)
(3.98026e-20 -9.87866e-16 0)
(4.0595e-20 -9.87868e-16 0)
(4.1276e-20 -9.87869e-16 0)
(4.18574e-20 -9.87871e-16 0)
(4.23505e-20 -9.87872e-16 0)
(4.27654e-20 -9.87873e-16 0)
(4.31118e-20 -9.87875e-16 0)
(4.33983e-20 -9.87876e-16 0)
(4.36328e-20 -9.87877e-16 0)
(4.38222e-20 -9.87878e-16 0)
(4.3973e-20 -9.87879e-16 0)
(4.40908e-20 -9.8788e-16 0)
(4.41808e-20 -9.87881e-16 0)
(4.42475e-20 -9.87881e-16 0)
(4.4295e-20 -9.87882e-16 0)
(4.4327e-20 -9.87883e-16 0)
(4.4347e-20 -9.87883e-16 0)
(4.43578e-20 -9.87884e-16 0)
(4.43623e-20 -9.87884e-16 0)
(4.4363e-20 -9.87885e-16 0)
(9.94148e-20 -3.56513e-15 0)
(1.04724e-09 -1.05348e-05 0)
(5.09945e-09 -9.38556e-05 0)
(1.56671e-21 -9.87848e-16 0)
(4.66378e-21 -9.87848e-16 0)
(7.68047e-21 -9.87849e-16 0)
(1.06019e-20 -9.87849e-16 0)
(1.3414e-20 -9.8785e-16 0)
(1.61036e-20 -9.87851e-16 0)
(1.86589e-20 -9.87852e-16 0)
(2.10699e-20 -9.87853e-16 0)
(2.33288e-20 -9.87854e-16 0)
(2.54306e-20 -9.87856e-16 0)
(2.7373e-20 -9.87857e-16 0)
(2.91563e-20 -9.87859e-16 0)
(3.07835e-20 -9.8786e-16 0)
(3.22598e-20 -9.87862e-16 0)
(3.35921e-20 -9.87863e-16 0)
(3.47885e-20 -9.87865e-16 0)
(3.58582e-20 -9.87866e-16 0)
(3.68107e-20 -9.87868e-16 0)
(3.7656e-20 -9.87869e-16 0)
(3.84036e-20 -9.87871e-16 0)
(3.9063e-20 -9.87872e-16 0)
(3.96433e-20 -9.87873e-16 0)
(4.0153e-20 -9.87874e-16 0)
(4.05999e-20 -9.87876e-16 0)
(4.09915e-20 -9.87877e-16 0)
(4.13345e-20 -9.87878e-16 0)
(4.1635e-20 -9.87879e-16 0)
(4.18987e-20 -9.87879e-16 0)
(4.21306e-20 -9.8788e-16 0)
(4.23354e-20 -9.87881e-16 0)
(4.25172e-20 -9.87882e-16 0)
(4.26799e-20 -9.87882e-16 0)
(4.28268e-20 -9.87883e-16 0)
(4.29611e-20 -9.87884e-16 0)
(4.30855e-20 -9.87884e-16 0)
(4.32024e-20 -9.87885e-16 0)
(4.33141e-20 -9.87885e-16 0)
(1.03131e-19 -3.82862e-15 0)
(9.2597e-10 -9.79486e-06 0)
(4.30086e-09 -8.80054e-05 0)
(1.42319e-21 -9.87852e-16 0)
(4.23651e-21 -9.87852e-16 0)
(6.97685e-21 -9.87853e-16 0)
(9.63119e-21 -9.87853e-16 0)
(1.21878e-20 -9.87854e-16 0)
(1.46362e-20 -9.87855e-16 0)
(1.69675e-20 -9.87856e-16 0)
(1.91743e-20 -9.87857e-16 0)
(2.12515e-20 -9.87858e-16 0)
(2.31955e-20 -9.87859e-16 0)
(2.50053e-20 -9.8786e-16 0)
(2.66814e-20 -9.87862e-16 0)
(2.82264e-20 -9.87863e-16 0)
(2.96444e-20 -9.87864e-16 0)
(3.09408e-20 -9.87866e-16 0)
(3.2122e-20 -9.87867e-16 0)
(3.31949e-20 -9.87868e-16 0)
(3.41673e-20 -9.8787e-16 0)
(3.50467e-20 -9.87871e-16 0)
(3.5841e-20 -9.87872e-16 0)
(3.65577e-20 -9.87873e-16 0)
(3.72042e-20 -9.87874e-16 0)
(3.77875e-20 -9.87876e-16 0)
(3.83142e-20 -9.87877e-16 0)
(3.87906e-20 -9.87878e-16 0)
(3.92223e-20 -9.87878e-16 0)
(3.96148e-20 -9.87879e-16 0)
(3.9973e-20 -9.8788e-16 0)
(4.03013e-20 -9.87881e-16 0)
(4.06038e-20 -9.87882e-16 0)
(4.08843e-20 -9.87882e-16 0)
(4.11462e-20 -9.87883e-16 0)
(4.13926e-20 -9.87884e-16 0)
(4.16263e-20 -9.87884e-16 0)
(4.18498e-20 -9.87885e-16 0)
(4.20654e-20 -9.87885e-16 0)
(4.22751e-20 -9.87885e-16 0)
(1.06717e-19 -4.09594e-15 0)
(8.15572e-10 -9.08107e-06 0)
(3.60317e-09 -8.22442e-05 0)
(1.29682e-21 -9.87856e-16 0)
(3.86059e-21 -9.87856e-16 0)
(6.35873e-21 -9.87857e-16 0)
(8.78013e-21 -9.87857e-16 0)
(1.1115e-20 -9.87858e-16 0)
(1.33551e-20 -9.87858e-16 0)
(1.54932e-20 -9.87859e-16 0)
(1.75242e-20 -9.8786e-16 0)
(1.9444e-20 -9.87861e-16 0)
(2.12506e-20 -9.87862e-16 0)
(2.29431e-20 -9.87863e-16 0)
(2.45225e-20 -9.87864e-16 0)
(2.59909e-20 -9.87866e-16 0)
(2.73518e-20 -9.87867e-16 0)
(2.86093e-20 -9.87868e-16 0)
(2.97686e-20 -9.87869e-16 0)
(3.08353e-20 -9.8787e-16 0)
(3.18155e-20 -9.87871e-16 0)
(3.27153e-20 -9.87873e-16 0)
(3.3541e-20 -9.87874e-16 0)
(3.42988e-20 -9.87875e-16 0)
(3.49947e-20 -9.87876e-16 0)
(3.56346e-20 -9.87877e-16 0)
(3.6224e-20 -9.87878e-16 0)
(3.67682e-20 -9.87879e-16 0)
(3.7272e-20 -9.87879e-16 0)
(3.77401e-20 -9.8788e-16 0)
(3.81766e-20 -9.87881e-16 0)
(3.85856e-20 -9.87882e-16 0)
(3.89705e-20 -9.87882e-16 0)
(3.93349e-20 -9.87883e-16 0)
(3.96815e-20 -9.87884e-16 0)
(4.00133e-20 -9.87884e-16 0)
(4.03327e-20 -9.87885e-16 0)
(4.0642e-20 -9.87885e-16 0)
(4.09433e-20 -9.87886e-16 0)
(4.12384e-20 -9.87886e-16 0)
(1.10072e-19 -4.36735e-15 0)
(7.15023e-10 -8.39135e-06 0)
(2.9964e-09 -7.65755e-05 0)
(1.18548e-21 -9.8786e-16 0)
(3.52954e-21 -9.8786e-16 0)
(5.8148e-21 -9.8786e-16 0)
(8.03194e-21 -9.87861e-16 0)
(1.01729e-20 -9.87861e-16 0)
(1.22309e-20 -9.87862e-16 0)
(1.42004e-20 -9.87862e-16 0)
(1.60774e-20 -9.87863e-16 0)
(1.7859e-20 -9.87864e-16 0)
(1.95437e-20 -9.87865e-16 0)
(2.11311e-20 -9.87866e-16 0)
(2.26223e-20 -9.87867e-16 0)
(2.4019e-20 -9.87868e-16 0)
(2.5324e-20 -9.87869e-16 0)
(2.65409e-20 -9.8787e-16 0)
(2.76739e-20 -9.87871e-16 0)
(2.87275e-20 -9.87872e-16 0)
(2.97066e-20 -9.87873e-16 0)
(3.06162e-20 -9.87874e-16 0)
(3.14615e-20 -9.87875e-16 0)
(3.22476e-20 -9.87876e-16 0)
(3.29795e-20 -9.87877e-16 0)
(3.3662e-20 -9.87878e-16 0)
(3.42999e-20 -9.87879e-16 0)
(3.48975e-20 -9.8788e-16 0)
(3.54591e-20 -9.87881e-16 0)
(3.59885e-20 -9.87881e-16 0)
(3.64894e-20 -9.87882e-16 0)
(3.69652e-20 -9.87883e-16 0)
(3.74191e-20 -9.87883e-16 0)
(3.78539e-20 -9.87884e-16 0)
(3.82723e-20 -9.87885e-16 0)
(3.86768e-20 -9.87885e-16 0)
(3.90694e-20 -9.87886e-16 0)
(3.94524e-20 -9.87886e-16 0)
(3.98273e-20 -9.87887e-16 0)
(4.0196e-20 -9.87887e-16 0)
(1.13245e-19 -4.65419e-15 0)
(6.23514e-10 -7.7245e-06 0)
(2.47124e-09 -7.10034e-05 0)
(1.08703e-21 -9.87863e-16 0)
(3.23686e-21 -9.87863e-16 0)
(5.33406e-21 -9.87863e-16 0)
(7.37087e-21 -9.87864e-16 0)
(9.34067e-21 -9.87864e-16 0)
(1.1238e-20 -9.87865e-16 0)
(1.30585e-20 -9.87865e-16 0)
(1.4799e-20 -9.87866e-16 0)
(1.64573e-20 -9.87867e-16 0)
(1.80325e-20 -9.87868e-16 0)
(1.95245e-20 -9.87869e-16 0)
(2.09341e-20 -9.87869e-16 0)
(2.22631e-20 -9.8787e-16 0)
(2.35137e-20 -9.87871e-16 0)
(2.46889e-20 -9.87872e-16 0)
(2.57923e-20 -9.87873e-16 0)
(2.68274e-20 -9.87874e-16 0)
(2.77985e-20 -9.87875e-16 0)
(2.87096e-20 -9.87876e-16 0)
(2.95651e-20 -9.87877e-16 0)
(3.03691e-20 -9.87878e-16 0)
(3.11259e-20 -9.87879e-16 0)
(3.18395e-20 -9.8788e-16 0)
(3.25139e-20 -9.8788e-16 0)
(3.31529e-20 -9.87881e-16 0)
(3.37599e-20 -9.87882e-16 0)
(3.43383e-20 -9.87883e-16 0)
(3.48914e-20 -9.87883e-16 0)
(3.54219e-20 -9.87884e-16 0)
(3.59327e-20 -9.87885e-16 0)
(3.64262e-20 -9.87885e-16 0)
(3.69048e-20 -9.87886e-16 0)
(3.73705e-20 -9.87886e-16 0)
(3.78254e-20 -9.87887e-16 0)
(3.82711e-20 -9.87887e-16 0)
(3.87093e-20 -9.87888e-16 0)
(3.91415e-20 -9.87888e-16 0)
(1.16589e-19 -4.99104e-15 0)
(5.40386e-10 -7.07952e-06 0)
(2.01888e-09 -6.55319e-05 0)
(9.99463e-22 -9.87866e-16 0)
(2.97653e-21 -9.87866e-16 0)
(4.90645e-21 -9.87866e-16 0)
(6.78282e-21 -9.87867e-16 0)
(8.60024e-21 -9.87867e-16 0)
(1.03543e-20 -9.87868e-16 0)
(1.20416e-20 -9.87868e-16 0)
(1.36595e-20 -9.87869e-16 0)
(1.52066e-20 -9.87869e-16 0)
(1.66822e-20 -9.8787e-16 0)
(1.80863e-20 -9.87871e-16 0)
(1.94198e-20 -9.87872e-16 0)
(2.06842e-20 -9.87873e-16 0)
(2.18815e-20 -9.87873e-16 0)
(2.30142e-20 -9.87874e-16 0)
(2.40853e-20 -9.87875e-16 0)
(2.50978e-20 -9.87876e-16 0)
(2.60553e-20 -9.87877e-16 0)
(2.69611e-20 -9.87878e-16 0)
(2.78189e-20 -9.87879e-16 0)
(2.86322e-20 -9.87879e-16 0)
(2.94046e-20 -9.8788e-16 0)
(3.01395e-20 -9.87881e-16 0)
(3.08403e-20 -9.87882e-16 0)
(3.15101e-20 -9.87883e-16 0)
(3.2152e-20 -9.87883e-16 0)
(3.27688e-20 -9.87884e-16 0)
(3.33633e-20 -9.87885e-16 0)
(3.39379e-20 -9.87885e-16 0)
(3.4495e-20 -9.87886e-16 0)
(3.50367e-20 -9.87886e-16 0)
(3.55651e-20 -9.87887e-16 0)
(3.60819e-20 -9.87887e-16 0)
(3.65888e-20 -9.87888e-16 0)
(3.70873e-20 -9.87888e-16 0)
(3.75789e-20 -9.87889e-16 0)
(3.80648e-20 -9.87889e-16 0)
(1.21014e-19 -5.33448e-15 0)
(4.6502e-10 -6.45597e-06 0)
(1.63179e-09 -6.01657e-05 0)
(9.20994e-22 -9.87869e-16 0)
(2.74323e-21 -9.87869e-16 0)
(4.52315e-21 -9.87869e-16 0)
(6.25553e-21 -9.87869e-16 0)
(7.93598e-21 -9.8787e-16 0)
(9.56095e-21 -9.8787e-16 0)
(1.11277e-20 -9.87871e-16 0)
(1.26344e-20 -9.87871e-16 0)
(1.40798e-20 -9.87872e-16 0)
(1.54636e-20 -9.87873e-16 0)
(1.67858e-20 -9.87873e-16 0)
(1.80474e-20 -9.87874e-16 0)
(1.92497e-20 -9.87875e-16 0)
(2.03944e-20 -9.87876e-16 0)
(2.14838e-20 -9.87876e-16 0)
(2.25203e-20 -9.87877e-16 0)
(2.35067e-20 -9.87878e-16 0)
(2.44457e-20 -9.87879e-16 0)
(2.53405e-20 -9.8788e-16 0)
(2.61939e-20 -9.8788e-16 0)
(2.70092e-20 -9.87881e-16 0)
(2.77892e-20 -9.87882e-16 0)
(2.85369e-20 -9.87883e-16 0)
(2.92553e-20 -9.87883e-16 0)
(2.99468e-20 -9.87884e-16 0)
(3.06143e-20 -9.87885e-16 0)
(3.12602e-20 -9.87885e-16 0)
(3.18866e-20 -9.87886e-16 0)
(3.24959e-20 -9.87887e-16 0)
(3.30899e-20 -9.87887e-16 0)
(3.36706e-20 -9.87888e-16 0)
(3.42395e-20 -9.87888e-16 0)
(3.47982e-20 -9.87889e-16 0)
(3.53482e-20 -9.87889e-16 0)
(3.58906e-20 -9.8789e-16 0)
(3.64267e-20 -9.8789e-16 0)
(3.69575e-20 -9.87891e-16 0)
(1.23732e-19 -5.69178e-15 0)
(3.96965e-10 -5.85425e-06 0)
(1.3028e-09 -5.491e-05 0)
(8.50075e-22 -9.87871e-16 0)
(2.53234e-21 -9.87871e-16 0)
(4.17655e-21 -9.87872e-16 0)
(5.77847e-21 -9.87872e-16 0)
(7.33455e-21 -9.87872e-16 0)
(8.84199e-21 -9.87873e-16 0)
(1.02986e-20 -9.87873e-16 0)
(1.17031e-20 -9.87874e-16 0)
(1.30544e-20 -9.87874e-16 0)
(1.43525e-20 -9.87875e-16 0)
(1.55975e-20 -9.87875e-16 0)
(1.67904e-20 -9.87876e-16 0)
(1.79323e-20 -9.87877e-16 0)
(1.90249e-20 -9.87878e-16 0)
(2.007e-20 -9.87878e-16 0)
(2.10698e-20 -9.87879e-16 0)
(2.20267e-20 -9.8788e-16 0)
(2.29431e-20 -9.87881e-16 0)
(2.38216e-20 -9.87881e-16 0)
(2.46648e-20 -9.87882e-16 0)
(2.54754e-20 -9.87883e-16 0)
(2.6256e-20 -9.87883e-16 0)
(2.70091e-20 -9.87884e-16 0)
(2.77371e-20 -9.87885e-16 0)
(2.84424e-20 -9.87886e-16 0)
(2.91273e-20 -9.87886e-16 0)
(2.97938e-20 -9.87887e-16 0)
(3.04439e-20 -9.87887e-16 0)
(3.10794e-20 -9.87888e-16 0)
(3.17021e-20 -9.87889e-16 0)
(3.23135e-20 -9.87889e-16 0)
(3.29149e-20 -9.8789e-16 0)
(3.35076e-20 -9.8789e-16 0)
(3.40927e-20 -9.87891e-16 0)
(3.46712e-20 -9.87891e-16 0)
(3.52439e-20 -9.87892e-16 0)
(3.58114e-20 -9.87892e-16 0)
(1.27614e-19 -6.06872e-15 0)
(3.35812e-10 -5.27534e-06 0)
(1.02523e-09 -4.97706e-05 0)
(7.85381e-22 -9.87874e-16 0)
(2.33992e-21 -9.87874e-16 0)
(3.86017e-21 -9.87874e-16 0)
(5.34271e-21 -9.87874e-16 0)
(6.78473e-21 -9.87875e-16 0)
(8.18399e-21 -9.87875e-16 0)
(9.53884e-21 -9.87875e-16 0)
(1.08482e-20 -9.87876e-16 0)
(1.21115e-20 -9.87876e-16 0)
(1.33287e-20 -9.87877e-16 0)
(1.45001e-20 -9.87877e-16 0)
(1.56266e-20 -9.87878e-16 0)
(1.67092e-20 -9.87879e-16 0)
(1.77495e-20 -9.87879e-16 0)
(1.87492e-20 -9.8788e-16 0)
(1.97101e-20 -9.87881e-16 0)
(2.06343e-20 -9.87882e-16 0)
(2.1524e-20 -9.87882e-16 0)
(2.23816e-20 -9.87883e-16 0)
(2.32092e-20 -9.87884e-16 0)
(2.40092e-20 -9.87884e-16 0)
(2.47838e-20 -9.87885e-16 0)
(2.55354e-20 -9.87886e-16 0)
(2.62659e-20 -9.87886e-16 0)
(2.69776e-20 -9.87887e-16 0)
(2.76723e-20 -9.87888e-16 0)
(2.83519e-20 -9.87888e-16 0)
(2.90181e-20 -9.87889e-16 0)
(2.96724e-20 -9.8789e-16 0)
(3.03164e-20 -9.8789e-16 0)
(3.09512e-20 -9.87891e-16 0)
(3.15781e-20 -9.87891e-16 0)
(3.21981e-20 -9.87892e-16 0)
(3.28122e-20 -9.87892e-16 0)
(3.3421e-20 -9.87893e-16 0)
(3.40254e-20 -9.87893e-16 0)
(3.46259e-20 -9.87894e-16 0)
(1.29987e-19 -6.45775e-15 0)
(2.81186e-10 -4.71857e-06 0)
(7.92144e-10 -4.47536e-05 0)
(7.25795e-22 -9.87876e-16 0)
(2.16265e-21 -9.87876e-16 0)
(3.56855e-21 -9.87876e-16 0)
(4.94077e-21 -9.87876e-16 0)
(6.27706e-21 -9.87877e-16 0)
(7.5757e-21 -9.87877e-16 0)
(8.83541e-21 -9.87877e-16 0)
(1.00554e-20 -9.87878e-16 0)
(1.12354e-20 -9.87878e-16 0)
(1.23753e-20 -9.87879e-16 0)
(1.34757e-20 -9.87879e-16 0)
(1.45373e-20 -9.8788e-16 0)
(1.55612e-20 -9.87881e-16 0)
(1.65488e-20 -9.87881e-16 0)
(1.75015e-20 -9.87882e-16 0)
(1.84211e-20 -9.87883e-16 0)
(1.93095e-20 -9.87883e-16 0)
(2.01687e-20 -9.87884e-16 0)
(2.10006e-20 -9.87885e-16 0)
(2.18074e-20 -9.87885e-16 0)
(2.2591e-20 -9.87886e-16 0)
(2.33536e-20 -9.87887e-16 0)
(2.40971e-20 -9.87887e-16 0)
(2.48235e-20 -9.87888e-16 0)
(2.55346e-20 -9.87889e-16 0)
(2.62321e-20 -9.87889e-16 0)
(2.69177e-20 -9.8789e-16 0)
(2.75928e-20 -9.87891e-16 0)
(2.8259e-20 -9.87891e-16 0)
(2.89173e-20 -9.87892e-16 0)
(2.9569e-20 -9.87892e-16 0)
(3.0215e-20 -9.87893e-16 0)
(3.08561e-20 -9.87893e-16 0)
(3.14932e-20 -9.87894e-16 0)
(3.2127e-20 -9.87894e-16 0)
(3.2758e-20 -9.87895e-16 0)
(3.33869e-20 -9.87895e-16 0)
(1.33034e-19 -6.80381e-15 0)
(2.32469e-10 -4.18205e-06 0)
(5.99555e-10 -3.98663e-05 0)
(6.70383e-22 -9.87878e-16 0)
(1.99775e-21 -9.87878e-16 0)
(3.29714e-21 -9.87878e-16 0)
(4.56638e-21 -9.87878e-16 0)
(5.80371e-21 -9.87879e-16 0)
(7.00778e-21 -9.87879e-16 0)
(8.17765e-21 -9.87879e-16 0)
(9.31277e-21 -9.8788e-16 0)
(1.0413e-20 -9.8788e-16 0)
(1.14784e-20 -9.87881e-16 0)
(1.25095e-20 -9.87881e-16 0)
(1.35071e-20 -9.87882e-16 0)
(1.44722e-20 -9.87882e-16 0)
(1.54061e-20 -9.87883e-16 0)
(1.63102e-20 -9.87884e-16 0)
(1.7186e-20 -9.87884e-16 0)
(1.80353e-20 -9.87885e-16 0)
(1.88599e-20 -9.87886e-16 0)
(1.96616e-20 -9.87886e-16 0)
(2.04423e-20 -9.87887e-16 0)
(2.12039e-20 -9.87888e-16 0)
(2.19483e-20 -9.87888e-16 0)
(2.26774e-20 -9.87889e-16 0)
(2.33929e-20 -9.8789e-16 0)
(2.40965e-20 -9.8789e-16 0)
(2.47899e-20 -9.87891e-16 0)
(2.54745e-20 -9.87891e-16 0)
(2.61518e-20 -9.87892e-16 0)
(2.6823e-20 -9.87893e-16 0)
(2.74892e-20 -9.87893e-16 0)
(2.81514e-20 -9.87894e-16 0)
(2.88103e-20 -9.87895e-16 0)
(2.94666e-20 -9.87895e-16 0)
(3.01209e-20 -9.87896e-16 0)
(3.07734e-20 -9.87896e-16 0)
(3.14243e-20 -9.87897e-16 0)
(3.20737e-20 -9.87897e-16 0)
(1.32502e-19 -7.01614e-15 0)
(1.89307e-10 -3.66772e-06 0)
(4.43244e-10 -3.51167e-05 0)
(6.18375e-22 -9.8788e-16 0)
(1.84294e-21 -9.8788e-16 0)
(3.04218e-21 -9.8788e-16 0)
(4.21439e-21 -9.8788e-16 0)
(5.35819e-21 -9.8788e-16 0)
(6.47254e-21 -9.87881e-16 0)
(7.55675e-21 -9.87881e-16 0)
(8.61045e-21 -9.87881e-16 0)
(9.63359e-21 -9.87882e-16 0)
(1.06264e-20 -9.87882e-16 0)
(1.15894e-20 -9.87883e-16 0)
(1.25233e-20 -9.87883e-16 0)
(1.34292e-20 -9.87884e-16 0)
(1.43081e-20 -9.87885e-16 0)
(1.51615e-20 -9.87885e-16 0)
(1.59907e-20 -9.87886e-16 0)
(1.67974e-20 -9.87886e-16 0)
(1.75832e-20 -9.87887e-16 0)
(1.83498e-20 -9.87888e-16 0)
(1.90992e-20 -9.87888e-16 0)
(1.98329e-20 -9.87889e-16 0)
(2.05529e-20 -9.8789e-16 0)
(2.12609e-20 -9.8789e-16 0)
(2.19587e-20 -9.87891e-16 0)
(2.26478e-20 -9.87892e-16 0)
(2.33299e-20 -9.87892e-16 0)
(2.40064e-20 -9.87893e-16 0)
(2.46788e-20 -9.87894e-16 0)
(2.53482e-20 -9.87894e-16 0)
(2.60156e-20 -9.87895e-16 0)
(2.66822e-20 -9.87896e-16 0)
(2.73484e-20 -9.87896e-16 0)
(2.80149e-20 -9.87897e-16 0)
(2.8682e-20 -9.87897e-16 0)
(2.93498e-20 -9.87898e-16 0)
(3.0018e-20 -9.87898e-16 0)
(3.06863e-20 -9.87899e-16 0)
(1.29591e-19 -7.03771e-15 0)
(1.51581e-10 -3.1769e-06 0)
(3.1754e-10 -3.05143e-05 0)
(5.6914e-22 -9.87881e-16 0)
(1.69633e-21 -9.87882e-16 0)
(2.80061e-21 -9.87882e-16 0)
(3.88061e-21 -9.87882e-16 0)
(4.93525e-21 -9.87882e-16 0)
(5.96374e-21 -9.87882e-16 0)
(6.96558e-21 -9.87883e-16 0)
(7.94054e-21 -9.87883e-16 0)
(8.88863e-21 -9.87884e-16 0)
(9.81016e-21 -9.87884e-16 0)
(1.07056e-20 -9.87884e-16 0)
(1.15758e-20 -9.87885e-16 0)
(1.24215e-20 -9.87886e-16 0)
(1.32439e-20 -9.87886e-16 0)
(1.40442e-20 -9.87887e-16 0)