/*--------------------------------*- C++ -*----------------------------------*\
  =========                 |
  \\      /  F ield         | OpenFOAM: The Open Source CFD Toolbox
   \\    /   O peration     | Website:  https://openfoam.org
    \\  /    A nd           | Version:  10
     \\/     M anipulation  |
\*---------------------------------------------------------------------------*/
FoamFile
{
    format      ascii;
    class       volVectorField;
    location    "54";
    object      Ua;
}
// * * * * * * * * * * * * * * * * * * * * * * * * * * * * * * * * * * * * * //

dimensions      [0 1 -1 0 0 0 0];

internalField   nonuniform List<vector> 
100
(
(0.000199401 0 0)
(0.00039852 0 0)
(0.000397948 0 0)
(0.000397368 0 0)
(0.000396784 0 0)
(0.000396197 0 0)
(0.000395609 0 0)
(0.000395019 0 0)
(0.000394428 0 0)
(0.000393837 0 0)
(0.000393245 0 0)
(0.000392653 0 0)
(0.00039206 0 0)
(0.000391467 0 0)
(0.000390873 0 0)
(0.000390279 0 0)
(0.000389684 0 0)
(0.000389089 0 0)
(0.000388493 0 0)
(0.000387897 0 0)
(0.0003873 0 0)
(0.000386703 0 0)
(0.000386105 0 0)
(0.000385506 0 0)
(0.000384907 0 0)
(0.000384307 0 0)
(0.000383707 0 0)
(0.000383105 0 0)
(0.000382503 0 0)
(0.000381901 0 0)
(0.000381297 0 0)
(0.000380692 0 0)
(0.000380087 0 0)
(0.00037948 0 0)
(0.000378873 0 0)
(0.000378265 0 0)
(0.000377656 0 0)
(0.000377045 0 0)
(0.000376434 0 0)
(0.000375821 0 0)
(0.000375207 0 0)
(0.000374592 0 0)
(0.000373976 0 0)
(0.000373358 0 0)
(0.00037274 0 0)
(0.000372119 0 0)
(0.000371498 0 0)
(0.000370875 0 0)
(0.00037025 0 0)
(0.000369624 0 0)
(0.000368996 0 0)
(0.000368367 0 0)
(0.000367735 0 0)
(0.000367102 0 0)
(0.000366468 0 0)
(0.000365831 0 0)
(0.000365192 0 0)
(0.000364551 0 0)
(0.000363909 0 0)
(0.000363263 0 0)
(0.000362616 0 0)
(0.000361966 0 0)
(0.000361314 0 0)
(0.000360658 0 0)
(0.00036 0 0)
(0.00035934 0 0)
(0.000358676 0 0)
(0.000358008 0 0)
(0.000357338 0 0)
(0.000356663 0 0)
(0.000355985 0 0)
(0.000355303 0 0)
(0.000354616 0 0)
(0.000353924 0 0)
(0.000353228 0 0)
(0.000352525 0 0)
(0.000351817 0 0)
(0.000351103 0 0)
(0.000350381 0 0)
(0.000349651 0 0)
(0.000348913 0 0)
(0.000348165 0 0)
(0.000347407 0 0)
(0.000346636 0 0)
(0.000345852 0 0)
(0.000345052 0 0)
(0.000344235 0 0)
(0.000343397 0 0)
(0.000342534 0 0)
(0.000341643 0 0)
(0.000340718 0 0)
(0.00033975 0 0)
(0.000338731 0 0)
(0.000337647 0 0)
(0.000336479 0 0)
(0.000335202 0 0)
(0.000333778 0 0)
(0.000332147 0 0)
(0.000330213 0 0)
(0.000327807 0 0)
)
;

boundaryField
{
    inlet
    {
        type            fixedValue;
        value           uniform (0 0 0);
    }
    outlet
    {
        type            zeroGradient;
    }
    yzfaces
    {
        type            empty;
    }
}


// ************************************************************************* //
