/*--------------------------------*- C++ -*----------------------------------*\
  =========                 |
  \\      /  F ield         | OpenFOAM: The Open Source CFD Toolbox
   \\    /   O peration     | Website:  https://openfoam.org
    \\  /    A nd           | Version:  10
     \\/     M anipulation  |
\*---------------------------------------------------------------------------*/
FoamFile
{
    format      ascii;
    class       volSymmTensorField;
    location    "0.062";
    object      UPrime2Mean;
}
// * * * * * * * * * * * * * * * * * * * * * * * * * * * * * * * * * * * * * //

dimensions      [0 2 -2 0 0 0 0];

internalField   nonuniform List<symmTensor> 
12225
(
(0.0378545 0.000351552 0 0.00220553 0 0)
(0.0169759 -0.000324203 0 0.00102489 0 0)
(0.0198412 -0.000641069 0 0.000720144 0 0)
(0.0218822 -0.000800853 0 0.000581893 0 0)
(0.0283571 -0.00109656 0 0.000504496 0 0)
(0.0413073 -0.00156302 0 0.000461906 0 0)
(0.0623066 -0.00232101 0 0.000446023 0 0)
(0.0917295 -0.00308783 0 0.000412906 0 0)
(0.134761 -0.00482472 0 0.000480208 0 0)
(0.190806 -0.00546706 0 0.000432626 0 0)
(0.276754 -0.0105162 0 0.000682267 0 0)
(0.382395 -0.00923956 0 0.000554229 0 0)
(0.562854 -0.0263152 0 0.00157745 0 0)
(0.774072 -0.0145936 0 0.00118531 0 0)
(1.18344 -0.078329 0 0.006407 0 0)
(1.6884 -0.0178136 0 0.00540037 0 0)
(2.75163 -0.305126 0 0.0474427 0 0)
(4.50655 -0.082086 0 0.023276 0 0)
(0.0356309 0.00118068 0 0.00268152 0 0)
(0.015395 0.000809921 0 0.00133722 0 0)
(0.0146286 0.000449911 0 0.000905638 0 0)
(0.0132751 0.000403975 0 0.000770274 0 0)
(0.0132413 0.000350305 0 0.000733278 0 0)
(0.0144849 1.48547e-05 0 0.000766898 0 0)
(0.0171757 -0.000560184 0 0.000812635 0 0)
(0.0223468 -0.00170894 0 0.000979857 0 0)
(0.0309027 -0.00302211 0 0.00108233 0 0)
(0.0458194 -0.00589032 0 0.00158365 0 0)
(0.06752 -0.00847146 0 0.00179531 0 0)
(0.105679 -0.0160699 0 0.00323245 0 0)
(0.157077 -0.0215525 0 0.00379086 0 0)
(0.254992 -0.0433774 0 0.00830933 0 0)
(0.377255 -0.0576502 0 0.0104031 0 0)
(0.649994 -0.129633 0 0.0277205 0 0)
(0.961906 -0.199088 0 0.0433129 0 0)
(1.73681 -0.515496 0 0.171203 0 0)
(0.0392076 0.00115519 0 0.00333225 0 0)
(0.016405 0.00085011 0 0.00162752 0 0)
(0.015007 0.000333012 0 0.00112013 0 0)
(0.0133997 -2.8169e-05 0 0.000982232 0 0)
(0.0133353 -0.000366636 0 0.000972656 0 0)
(0.0146304 -0.000826789 0 0.00103287 0 0)
(0.0172612 -0.00163557 0 0.00120313 0 0)
(0.0215683 -0.00280855 0 0.00141597 0 0)
(0.028232 -0.00474936 0 0.00193021 0 0)
(0.0381423 -0.00712736 0 0.00242965 0 0)
(0.0529387 -0.0117148 0 0.0038462 0 0)
(0.0746502 -0.016841 0 0.00506083 0 0)
(0.107302 -0.0287008 0 0.00918874 0 0)
(0.155679 -0.0409765 0 0.0126413 0 0)
(0.229964 -0.0745315 0 0.02668 0 0)
(0.341441 -0.113738 0 0.0416187 0 0)
(0.503243 -0.221131 0 0.104639 0 0)
(0.717859 -0.398862 0 0.237772 0 0)
(0.0370162 6.37057e-05 0 0.00329125 0 0)
(0.0154438 -4.09576e-05 0 0.00193559 0 0)
(0.0147861 -0.000333547 0 0.0013545 0 0)
(0.0134246 -0.000571127 0 0.00118182 0 0)
(0.0132711 -0.000924343 0 0.0012052 0 0)
(0.0143829 -0.00157192 0 0.00136718 0 0)
(0.0168851 -0.00257064 0 0.00163681 0 0)
(0.021153 -0.00411735 0 0.00212272 0 0)
(0.0276678 -0.00624053 0 0.0027761 0 0)
(0.037468 -0.00961123 0 0.00394285 0 0)
(0.0515413 -0.0142953 0 0.00553312 0 0)
(0.0723337 -0.0220986 0 0.0084712 0 0)
(0.101778 -0.033339 0 0.0128647 0 0)
(0.144923 -0.0524986 0 0.0213273 0 0)
(0.205821 -0.082393 0 0.0361169 0 0)
(0.29044 -0.133784 0 0.066446 0 0)
(0.400486 -0.222864 0 0.132799 0 0)
(0.515726 -0.354365 0 0.262378 0 0)
(0.0394738 0.000648148 0 0.00407136 0 0)
(0.0161692 0.000213265 0 0.00240651 0 0)
(0.0151166 -0.000240245 0 0.00168749 0 0)
(0.0135221 -0.000584601 0 0.00155702 0 0)
(0.0131651 -0.00102171 0 0.00168294 0 0)
(0.0140942 -0.00179001 0 0.00197283 0 0)
(0.0164061 -0.00304597 0 0.00244552 0 0)
(0.0204231 -0.00489318 0 0.00312603 0 0)
(0.0267347 -0.00763203 0 0.0042327 0 0)
(0.036177 -0.0115536 0 0.00583883 0 0)
(0.049935 -0.0175607 0 0.00849064 0 0)
(0.0695789 -0.0263591 0 0.0124901 0 0)
(0.097374 -0.0401624 0 0.0193543 0 0)
(0.135785 -0.0610389 0 0.0306805 0 0)
(0.188352 -0.0940995 0 0.0511442 0 0)
(0.255187 -0.146239 0 0.0896918 0 0)
(0.335275 -0.224192 0 0.159862 0 0)
(0.407991 -0.33488 0 0.300315 0 0)
(0.0378231 -0.000183189 0 0.0047907 0 0)
(0.0165584 -2.0913e-05 0 0.00283474 0 0)
(0.0160111 -0.000692488 0 0.00192936 0 0)
(0.0139361 -0.0010018 0 0.00176201 0 0)
(0.013067 -0.00137758 0 0.0019218 0 0)
(0.0136835 -0.00216873 0 0.00234206 0 0)
(0.0156611 -0.00353381 0 0.00302557 0 0)
(0.0191411 -0.00559825 0 0.00405655 0 0)
(0.0246285 -0.00859947 0 0.00559219 0 0)
(0.0328592 -0.0129777 0 0.00791648 0 0)
(0.0448896 -0.0194808 0 0.0114983 0 0)
(0.0618789 -0.0291572 0 0.0170998 0 0)
(0.0856289 -0.0437855 0 0.0261442 0 0)
(0.117418 -0.0656438 0 0.0410367 0 0)
(0.159303 -0.0987001 0 0.0664515 0 0)
(0.209244 -0.146969 0 0.110489 0 0)
(0.264544 -0.214777 0 0.186616 0 0)
(0.310388 -0.299917 0 0.316317 0 0)
(0.0358252 0.000710443 0 0.00479836 0 0)
(0.0155272 0.000305506 0 0.00350802 0 0)
(0.0157825 -8.24285e-05 0 0.00273325 0 0)
(0.0143503 -0.000532884 0 0.00263634 0 0)
(0.0141131 -0.00128822 0 0.00293565 0 0)
(0.0154045 -0.0025256 0 0.00354164 0 0)
(0.0181149 -0.00438046 0 0.00448224 0 0)
(0.0222785 -0.00701831 0 0.00588319 0 0)
(0.0282301 -0.0107234 0 0.00797633 0 0)
(0.0365179 -0.0159489 0 0.011128 0 0)
(0.0480261 -0.0234285 0 0.0158907 0 0)
(0.0636684 -0.0342378 0 0.0232639 0 0)
(0.0847394 -0.0498885 0 0.0347433 0 0)
(0.111746 -0.0725029 0 0.0532448 0 0)
(0.14542 -0.104616 0 0.0828743 0 0)
(0.182964 -0.148925 0 0.131749 0 0)
(0.221459 -0.206132 0 0.208747 0 0)
(0.250497 -0.271865 0 0.328472 0 0)
(0.0391338 0.00102121 0 0.0050533 0 0)
(0.0152678 0.000512022 0 0.00320087 0 0)
(0.0148986 -4.29749e-05 0 0.00250172 0 0)
(0.0139944 -0.000497925 0 0.00256426 0 0)
(0.014024 -0.00115109 0 0.00299562 0 0)
(0.014943 -0.00228539 0 0.0037978 0 0)
(0.0167843 -0.00407059 0 0.00504409 0 0)
(0.0197824 -0.00664714 0 0.00687826 0 0)
(0.0243788 -0.0103041 0 0.00956998 0 0)
(0.0311036 -0.0155311 0 0.0135701 0 0)
(0.0405954 -0.0230621 0 0.0195509 0 0)
(0.053396 -0.0338662 0 0.0286486 0 0)
(0.070173 -0.0492073 0 0.0425118 0 0)
(0.0909439 -0.0706198 0 0.0640593 0 0)
(0.115552 -0.0996535 0 0.0971408 0 0)
(0.141558 -0.137367 0 0.148444 0 0)
(0.166328 -0.182782 0 0.224188 0 0)
(0.18349 -0.231331 0 0.334108 0 0)
(0.0411387 0.000605986 0 0.00534775 0 0)
(0.0183752 -0.000507333 0 0.00373167 0 0)
(0.0178006 -0.00124165 0 0.00312801 0 0)
(0.0162951 -0.00172042 0 0.00326297 0 0)
(0.0158557 -0.00238327 0 0.00384564 0 0)
(0.0165611 -0.00360636 0 0.00487403 0 0)
(0.0183737 -0.00560582 0 0.00646688 0 0)
(0.0213882 -0.00853566 0 0.00882856 0 0)
(0.0258801 -0.012643 0 0.0122686 0 0)
(0.0321916 -0.0183346 0 0.0172998 0 0)
(0.0407174 -0.0262117 0 0.0246535 0 0)
(0.0516664 -0.0370917 0 0.0355519 0 0)
(0.0652437 -0.0519537 0 0.0516618 0 0)
(0.0810193 -0.0718251 0 0.0757722 0 0)
(0.098407 -0.0974561 0 0.11122 0 0)
(0.115305 -0.128751 0 0.163323 0 0)
(0.129886 -0.164037 0 0.236217 0 0)
(0.138417 -0.198905 0 0.336007 0 0)
(0.0395186 0.00124002 0 0.00605796 0 0)
(0.0165899 -0.000442262 0 0.0043199 0 0)
(0.01561 -0.00116859 0 0.00363956 0 0)
(0.0138994 -0.00150943 0 0.00389645 0 0)
(0.0134896 -0.0020973 0 0.00462694 0 0)
(0.0143262 -0.00334087 0 0.00585955 0 0)
(0.0161408 -0.00538559 0 0.00777778 0 0)
(0.0187705 -0.00830416 0 0.0106333 0 0)
(0.0222875 -0.0122911 0 0.0147717 0 0)
(0.0269618 -0.0177117 0 0.0207485 0 0)
(0.0331808 -0.0251025 0 0.0293445 0 0)
(0.041139 -0.0351002 0 0.0418152 0 0)
(0.0508987 -0.0483831 0 0.0597626 0 0)
(0.0618596 -0.0654526 0 0.0857057 0 0)
(0.0733199 -0.0864829 0 0.12234 0 0)
(0.0835337 -0.110671 0 0.173778 0 0)
(0.0913978 -0.136208 0 0.242426 0 0)
(0.094895 -0.159179 0 0.332345 0 0)
(0.0344306 0.000995865 0 0.00641743 0 0)
(0.0136254 -0.000642582 0 0.00514407 0 0)
(0.0132304 -0.00154192 0 0.00441383 0 0)
(0.0117646 -0.00195858 0 0.00460672 0 0)
(0.0112125 -0.00257196 0 0.00549478 0 0)
(0.0116161 -0.00380355 0 0.00709672 0 0)
(0.0128837 -0.00579966 0 0.00950883 0 0)
(0.0148793 -0.00865012 0 0.0129575 0 0)
(0.0175933 -0.0125475 0 0.0178314 0 0)
(0.0211648 -0.0178056 0 0.024757 0 0)
(0.0258509 -0.0248416 0 0.0345546 0 0)
(0.0317401 -0.0340781 0 0.0484409 0 0)
(0.0387751 -0.045908 0 0.0678625 0 0)
(0.0463545 -0.0604388 0 0.0949761 0 0)
(0.0538333 -0.0774574 0 0.131814 0 0)
(0.0598865 -0.0958689 0 0.181436 0 0)
(0.0639555 -0.113996 0 0.245013 0 0)
(0.0649265 -0.128619 0 0.325318 0 0)
(0.038728 0.0013556 0 0.00637019 0 0)
(0.0166461 -0.000311927 0 0.00531144 0 0)
(0.0161247 -0.00105843 0 0.00452841 0 0)
(0.0143857 -0.00116526 0 0.00473893 0 0)
(0.0132753 -0.00155744 0 0.00578058 0 0)
(0.0131097 -0.0026463 0 0.00762185 0 0)
(0.0138236 -0.00443973 0 0.0103714 0 0)
(0.0151515 -0.006914 0 0.0143023 0 0)
(0.0169422 -0.0102148 0 0.0198258 0 0)
(0.0192168 -0.0146314 0 0.0275697 0 0)
(0.0220968 -0.020518 0 0.0383275 0 0)
(0.0256033 -0.0281533 0 0.0532404 0 0)
(0.0296703 -0.0376943 0 0.0735747 0 0)
(0.0338813 -0.0490018 0 0.101153 0 0)
(0.0378377 -0.0616292 0 0.137451 0 0)
(0.0407811 -0.0744697 0 0.184745 0 0)
(0.0424765 -0.0860353 0 0.24339 0 0)
(0.0424749 -0.0938817 0 0.315402 0 0)
(0.0354773 0.000544794 0 0.007536 0 0)
(0.0145877 -0.00133705 0 0.00657877 0 0)
(0.0140422 -0.0022032 0 0.00553508 0 0)
(0.0127006 -0.00230106 0 0.00591276 0 0)
(0.0123155 -0.00266138 0 0.00730185 0 0)
(0.0125386 -0.00372542 0 0.00950418 0 0)
(0.0131054 -0.00549398 0 0.01262 0 0)
(0.0139898 -0.00789611 0 0.0169799 0 0)
(0.0152882 -0.0109959 0 0.023053 0 0)
(0.0170482 -0.0149839 0 0.0314787 0 0)
(0.0192412 -0.0200892 0 0.0430052 0 0)
(0.0217142 -0.0264448 0 0.0586613 0 0)
(0.0243047 -0.0340293 0 0.0794984 0 0)
(0.0266722 -0.0425163 0 0.106996 0 0)
(0.0285766 -0.0513027 0 0.142158 0 0)
(0.0296387 -0.0593196 0 0.186706 0 0)
(0.0299174 -0.0652747 0 0.240401 0 0)
(0.029484 -0.0672543 0 0.304865 0 0)
(0.0366194 0.000863781 0 0.00854012 0 0)
(0.0158183 -0.000593378 0 0.0075715 0 0)
(0.0150997 -0.0013572 0 0.00680754 0 0)
(0.0136933 -0.00139362 0 0.00719648 0 0)
(0.0130851 -0.00152877 0 0.00852759 0 0)
(0.0129458 -0.00221027 0 0.0108603 0 0)
(0.013075 -0.00355825 0 0.014295 0 0)
(0.0134287 -0.00550846 0 0.0190931 0 0)
(0.0140443 -0.00802301 0 0.0256677 0 0)
(0.0149218 -0.0111361 0 0.0346003 0 0)
(0.0160044 -0.0149311 0 0.0465559 0 0)
(0.0171521 -0.019378 0 0.0624223 0 0)
(0.0182502 -0.024345 0 0.0830262 0 0)
(0.0190702 -0.0293755 0 0.109519 0 0)
(0.0195419 -0.0338964 0 0.142476 0 0)
(0.0195577 -0.0368768 0 0.183126 0 0)
(0.0194173 -0.0374139 0 0.230832 0 0)
(0.0194218 -0.0339249 0 0.286867 0 0)
(0.0364624 0.00221242 0 0.00934218 0 0)
(0.0140622 -0.000491019 0 0.00855447 0 0)
(0.0129959 -0.00155399 0 0.00765993 0 0)
(0.0116893 -0.00148522 0 0.00822828 0 0)
(0.0111848 -0.00154956 0 0.00994565 0 0)
(0.0110597 -0.00220435 0 0.0126957 0 0)
(0.0111711 -0.00341972 0 0.0165772 0 0)
(0.0113906 -0.00500448 0 0.0218773 0 0)
(0.0116299 -0.0068737 0 0.0289963 0 0)
(0.0118761 -0.00903394 0 0.0384559 0 0)
(0.0121782 -0.0115151 0 0.0507885 0 0)
(0.0125162 -0.0141951 0 0.06669 0 0)
(0.0128677 -0.0168538 0 0.0867101 0 0)
(0.0131102 -0.0189731 0 0.111679 0 0)
(0.0132284 -0.0200644 0 0.141775 0 0)
(0.0133205 -0.0192137 0 0.177874 0 0)
(0.0136747 -0.0159407 0 0.219038 0 0)
(0.014844 -0.00891476 0 0.266427 0 0)
(0.0384947 0.00180896 0 0.0106938 0 0)
(0.0156829 -0.00102156 0 0.0100532 0 0)
(0.0143422 -0.00214795 0 0.00866756 0 0)
(0.012553 -0.00201046 0 0.00905598 0 0)
(0.0116152 -0.00193413 0 0.0108416 0 0)
(0.0110357 -0.0023858 0 0.0136749 0 0)
(0.0106377 -0.00325169 0 0.0175687 0 0)
(0.0103779 -0.0042935 0 0.0228191 0 0)
(0.0102162 -0.00539016 0 0.0298174 0 0)
(0.0100971 -0.00649044 0 0.0390124 0 0)
(0.00997947 -0.00753083 0 0.0508047 0 0)
(0.00982432 -0.00829165 0 0.0656836 0 0)
(0.00963595 -0.00849617 0 0.0839515 0 0)
(0.00947912 -0.00765496 0 0.10612 0 0)
(0.00949087 -0.00541556 0 0.132091 0 0)
(0.00998395 -0.00111204 0 0.162452 0 0)
(0.0112876 0.00545345 0 0.196209 0 0)
(0.0140106 0.0152182 0 0.234324 0 0)
(0.0357317 0.0020551 0 0.0114802 0 0)
(0.0149672 -0.000224277 0 0.010765 0 0)
(0.0141454 -0.00106851 0 0.00837698 0 0)
(0.0122662 -0.000979023 0 0.00869263 0 0)
(0.0111621 -0.000884948 0 0.0108435 0 0)
(0.0103919 -0.00108817 0 0.0141461 0 0)
(0.00978971 -0.00148906 0 0.018447 0 0)
(0.00936543 -0.00184786 0 0.0239452 0 0)
(0.00913355 -0.00200001 0 0.0309646 0 0)
(0.00903931 -0.0018398 0 0.0398719 0 0)
(0.0090157 -0.00127396 0 0.0509373 0 0)
(0.00906468 -9.82527e-05 0 0.0644696 0 0)
(0.00925474 0.00190553 0 0.0805622 0 0)
(0.00974958 0.00511959 0 0.0995142 0 0)
(0.0107078 0.00974861 0 0.12107 0 0)
(0.0124822 0.0162771 0 0.145644 0 0)
(0.015273 0.0246863 0 0.172279 0 0)
(0.0196289 0.035674 0 0.201852 0 0)
(0.0359904 0.0022912 0 0.0120109 0 0)
(0.0146571 -0.00090166 0 0.0118548 0 0)
(0.0141057 -0.0027439 0 0.0101321 0 0)
(0.0128409 -0.00271882 0 0.0103476 0 0)
(0.0120504 -0.00226817 0 0.0119578 0 0)
(0.0111862 -0.00193215 0 0.0145901 0 0)
(0.0103804 -0.00170536 0 0.0181712 0 0)
(0.00987431 -0.00138408 0 0.0228243 0 0)
(0.00970554 -0.000752812 0 0.0287501 0 0)
(0.0097886 0.000374433 0 0.0361812 0 0)
(0.0100687 0.00215032 0 0.0452628 0 0)
(0.0106231 0.00476778 0 0.0561421 0 0)
(0.0115867 0.00839262 0 0.0687927 0 0)
(0.0132033 0.0132698 0 0.0833558 0 0)
(0.015616 0.0194921 0 0.0995387 0 0)
(0.0191666 0.027331 0 0.117615 0 0)
(0.0239221 0.036667 0 0.136814 0 0)
(0.0303738 0.0479248 0 0.15775 0 0)
(0.036756 0.00227721 0 0.0111467 0 0)
(0.016995 0.000602921 0 0.0111551 0 0)
(0.0165426 -0.000488609 0 0.0095093 0 0)
(0.0137653 -0.000341699 0 0.00958488 0 0)
(0.0120202 0.000304845 0 0.0109503 0 0)
(0.0110295 0.00102286 0 0.0132813 0 0)
(0.0105859 0.00181404 0 0.0164858 0 0)
(0.0106309 0.00291702 0 0.0205572 0 0)
(0.0110661 0.00454364 0 0.0255159 0 0)
(0.0117618 0.00681102 0 0.0314327 0 0)
(0.012687 0.00977954 0 0.0383709 0 0)
(0.0139958 0.0135578 0 0.0464312 0 0)
(0.0158936 0.0182375 0 0.0555861 0 0)
(0.0186319 0.0239762 0 0.0659075 0 0)
(0.022332 0.0307943 0 0.0771565 0 0)
(0.0272524 0.038842 0 0.0895092 0 0)
(0.0334204 0.0479803 0 0.10242 0 0)
(0.0411611 0.058446 0 0.116333 0 0)
(0.0387671 0.00126939 0 0.0127217 0 0)
(0.0163148 -0.000328346 0 0.012333 0 0)
(0.0137279 -0.000923445 0 0.00973671 0 0)
(0.0113321 -0.000166514 0 0.00896077 0 0)
(0.0103284 0.000839157 0 0.00957014 0 0)
(0.0097708 0.00169332 0 0.0111189 0 0)
(0.00947176 0.00258442 0 0.013395 0 0)
(0.00960803 0.00388771 0 0.0162819 0 0)
(0.0103166 0.00584319 0 0.0197377 0 0)
(0.0116424 0.00848703 0 0.0237913 0 0)
(0.013597 0.011771 0 0.0284673 0 0)
(0.016232 0.0157013 0 0.0338051 0 0)
(0.0196534 0.0203254 0 0.0397741 0 0)
(0.0240278 0.0257576 0 0.0464096 0 0)
(0.0294853 0.0320237 0 0.0535444 0 0)
(0.0362038 0.0392118 0 0.0613005 0 0)
(0.04423 0.047216 0 0.0693369 0 0)
(0.0537052 0.0561527 0 0.0779058 0 0)
(0.036012 0.00132828 0 0.0111515 0 0)
(0.0148766 0.00074667 0 0.0104886 0 0)
(0.0130869 0.000685409 0 0.00817782 0 0)
(0.0112145 0.00168362 0 0.00755624 0 0)
(0.0109731 0.00278761 0 0.00797363 0 0)
(0.0114239 0.00383872 0 0.00908076 0 0)
(0.0121721 0.00504731 0 0.0107095 0 0)
(0.0132966 0.00665462 0 0.0127734 0 0)
(0.0149399 0.00880128 0 0.0152458 0 0)
(0.0171829 0.0115377 0 0.0181483 0 0)
(0.0201104 0.0148699 0 0.0214945 0 0)
(0.0238366 0.0188213 0 0.0253024 0 0)
(0.0284691 0.023396 0 0.0295271 0 0)
(0.034135 0.0286348 0 0.034161 0 0)
(0.0408775 0.0344915 0 0.0390735 0 0)
(0.0488521 0.0410193 0 0.0443396 0 0)
(0.0580344 0.0480946 0 0.0497375 0 0)
(0.06858 0.0558331 0 0.0554394 0 0)
(0.0356892 0.000848189 0 0.0115109 0 0)
(0.0153139 -1.03643e-05 0 0.00970071 0 0)
(0.0147403 -0.000112021 0 0.00701365 0 0)
(0.0133304 0.000419651 0 0.00607605 0 0)
(0.0128224 0.00102089 0 0.00616254 0 0)
(0.0127771 0.00171482 0 0.00688353 0 0)
(0.0131158 0.00268975 0 0.00799786 0 0)
(0.0139389 0.0040863 0 0.00937845 0 0)
(0.0153552 0.00595168 0 0.0110071 0 0)
(0.0174385 0.008287 0 0.0129172 0 0)
(0.0202518 0.0110854 0 0.0151314 0 0)
(0.0239171 0.0143683 0 0.0176613 0 0)
(0.0285515 0.0181532 0 0.0204765 0 0)
(0.0342857 0.0224853 0 0.023571 0 0)
(0.0411719 0.0273353 0 0.0268514 0 0)
(0.0493398 0.0327346 0 0.030376 0 0)
(0.0587714 0.038579 0 0.0339928 0 0)
(0.0695603 0.0449445 0 0.0377828 0 0)
(0.0401682 0.000751219 0 0.00942967 0 0)
(0.016341 -0.000226039 0 0.00746387 0 0)
(0.0145481 -0.000377762 0 0.00551857 0 0)
(0.0133526 8.66622e-05 0 0.00498629 0 0)
(0.0132369 0.000705423 0 0.0051963 0 0)
(0.0134147 0.0014634 0 0.00574227 0 0)
(0.0138804 0.0024398 0 0.00645741 0 0)
(0.0148986 0.00371339 0 0.00732213 0 0)
(0.0166435 0.00533112 0 0.00836569 0 0)
(0.0191552 0.00731995 0 0.00961459 0 0)
(0.0224454 0.00969418 0 0.0110747 0 0)
(0.0265886 0.0124705 0 0.0127486 0 0)
(0.0316987 0.0156484 0 0.0146127 0 0)
(0.0379217 0.019242 0 0.0166648 0 0)
(0.0453252 0.0232244 0 0.0188343 0 0)
(0.0540223 0.0276014 0 0.0211514 0 0)
(0.0639908 0.032313 0 0.0235004 0 0)
(0.0752354 0.037394 0 0.0259245 0 0)
(0.0415832 -4.07141e-05 0 0.00826911 0 0)
(0.0172617 -0.000377923 0 0.00628247 0 0)
(0.0150149 -8.43093e-05 0 0.0043907 0 0)
(0.0137241 0.000664904 0 0.00375646 0 0)
(0.0136265 0.00138063 0 0.00380943 0 0)
(0.0140537 0.00212706 0 0.00415403 0 0)
(0.0150583 0.00304585 0 0.00460859 0 0)
(0.0168149 0.00426005 0 0.00514344 0 0)
(0.0194219 0.0058125 0 0.00578439 0 0)
(0.0228936 0.0076855 0 0.00656147 0 0)
(0.0272197 0.00983658 0 0.00748061 0 0)
(0.0324464 0.0122504 0 0.008537 0 0)
(0.0386472 0.0149336 0 0.00971553 0 0)
(0.0459374 0.0179228 0 0.0110108 0 0)
(0.0543419 0.0212244 0 0.0123841 0 0)
(0.0639648 0.0248663 0 0.0138619 0 0)
(0.0747707 0.0287971 0 0.0153794 0 0)
(0.0867533 0.0330439 0 0.0169464 0 0)
(0.0388188 0.000803049 0 0.0078792 0 0)
(0.0174193 -0.000102989 0 0.00579851 0 0)
(0.0160461 -0.000436227 0 0.00405983 0 0)
(0.0147144 -0.000176944 0 0.00340992 0 0)
(0.0143383 0.000211834 0 0.00325651 0 0)
(0.0143188 0.00063187 0 0.00336653 0 0)
(0.0147908 0.00115306 0 0.00361183 0 0)
(0.0160289 0.00188684 0 0.00393471 0 0)
(0.0181903 0.00288922 0 0.00432315 0 0)
(0.0212886 0.00417126 0 0.00478857 0 0)
(0.0252608 0.00572367 0 0.00534293 0 0)
(0.0300755 0.00753714 0 0.00598715 0 0)
(0.0357524 0.00959461 0 0.00670943 0 0)
(0.0423899 0.0118957 0 0.00750441 0 0)
(0.0500348 0.014419 0 0.00833994 0 0)
(0.0588529 0.0171838 0 0.00924356 0 0)
(0.0688137 0.0201447 0 0.0101718 0 0)
(0.0799994 0.0233309 0 0.0111243 0 0)
(0.0372019 0.000450327 0 0.00711326 0 0)
(0.0165074 0.000117276 0 0.00535923 0 0)
(0.0155921 4.62742e-05 0 0.00362538 0 0)
(0.0143452 0.000161249 0 0.00291983 0 0)
(0.014028 0.000291539 0 0.00274725 0 0)
(0.0142216 0.000487483 0 0.00277308 0 0)
(0.0149995 0.000814205 0 0.0028514 0 0)
(0.0164061 0.0013334 0 0.00296229 0 0)
(0.0184568 0.00207856 0 0.00312221 0 0)
(0.0212232 0.00305385 0 0.00334264 0 0)
(0.0248107 0.00425684 0 0.00362494 0 0)
(0.0293445 0.00567851 0 0.00396062 0 0)
(0.0349285 0.00729047 0 0.00434201 0 0)
(0.0416601 0.00907498 0 0.00477086 0 0)
(0.0495488 0.0110116 0 0.00522958 0 0)
(0.0586615 0.0131112 0 0.00574046 0 0)
(0.0689554 0.0153557 0 0.00627881 0 0)
(0.0803945 0.017774 0 0.00682941 0 0)
(0.0355067 -0.00102466 0 0.00562864 0 0)
(0.0132908 -0.00126487 0 0.00381838 0 0)
(0.0124525 -0.00102875 0 0.00265054 0 0)
(0.0119079 -0.000653984 0 0.00215555 0 0)
(0.0121975 -0.000450703 0 0.00197321 0 0)
(0.0123463 -0.000333016 0 0.00193206 0 0)
(0.0124603 -0.000124102 0 0.0019349 0 0)
(0.0130009 0.000266456 0 0.00195612 0 0)
(0.0143621 0.000843683 0 0.00200627 0 0)
(0.0167567 0.00157329 0 0.00209611 0 0)
(0.020237 0.00242969 0 0.00222733 0 0)
(0.0247837 0.00340481 0 0.00239789 0 0)
(0.0303713 0.00449255 0 0.00260349 0 0)
(0.0370235 0.00569616 0 0.00283943 0 0)
(0.0447327 0.00701401 0 0.00309289 0 0)
(0.0535667 0.00845923 0 0.00337767 0 0)
(0.063519 0.0100207 0 0.00367752 0 0)
(0.0745656 0.0117233 0 0.00398534 0 0)
(0.0381872 -0.000886389 0 0.00477926 0 0)
(0.0170576 -0.000654501 0 0.0026674 0 0)
(0.0155809 -0.00056849 0 0.00175996 0 0)
(0.0147474 -0.000479739 0 0.00142238 0 0)
(0.015203 -0.00037107 0 0.00128772 0 0)
(0.0158083 -0.000192787 0 0.00123023 0 0)
(0.0166193 4.92408e-05 0 0.00119957 0 0)
(0.0179906 0.000335587 0 0.00118412 0 0)
(0.0201619 0.000669847 0 0.00118542 0 0)
(0.0232468 0.00108534 0 0.00120609 0 0)
(0.0272929 0.00162734 0 0.00124581 0 0)
(0.032325 0.00232031 0 0.00130299 0 0)
(0.0383769 0.00315413 0 0.00137695 0 0)
(0.0455017 0.00410074 0 0.00146764 0 0)
(0.053703 0.00512422 0 0.00157143 0 0)
(0.063044 0.00621265 0 0.00169849 0 0)
(0.0735249 0.00735696 0 0.00184205 0 0)
(0.0850686 0.00856545 0 0.00199286 0 0)
(0.0363266 -0.00121932 0 0.00368051 0 0)
(0.014086 -0.000472092 0 0.00173427 0 0)
(0.0132765 -0.00037008 0 0.00114759 0 0)
(0.0127233 -0.000409001 0 0.000957452 0 0)
(0.0126113 -0.000467425 0 0.000875284 0 0)
(0.0124421 -0.000442101 0 0.000829044 0 0)
(0.0128115 -0.000314792 0 0.000797871 0 0)
(0.0141796 -0.000124416 0 0.000780227 0 0)
(0.0165952 9.90922e-05 0 0.000775877 0 0)
(0.0199429 0.000359581 0 0.000783126 0 0)
(0.0241603 0.000680265 0 0.000800007 0 0)
(0.0293134 0.00107709 0 0.000825315 0 0)
(0.0355257 0.00154992 0 0.000859046 0 0)
(0.0429508 0.00208831 0 0.000901117 0 0)
(0.0516332 0.0026816 0 0.000947663 0 0)
(0.0616956 0.00332944 0 0.00100456 0 0)
(0.0730891 0.00402986 0 0.00106759 0 0)
(0.0858559 0.00479153 0 0.00112573 0 0)
(0.0354993 -0.000396606 0 0.00271269 0 0)
(0.0156654 0.000159322 0 0.00132055 0 0)
(0.0156639 0.000240233 0 0.000994443 0 0)
(0.0142132 0.00023558 0 0.000850997 0 0)
(0.0137324 0.000316721 0 0.000755895 0 0)
(0.0143516 0.000443856 0 0.000689279 0 0)
(0.0159268 0.000531239 0 0.000639901 0 0)
(0.0181756 0.000553106 0 0.000599533 0 0)
(0.0210004 0.000551281 0 0.000562994 0 0)
(0.0245904 0.000587118 0 0.00053008 0 0)
(0.0292843 0.000698485 0 0.000501139 0 0)
(0.0353949 0.000884312 0 0.000475929 0 0)
(0.0431207 0.00111763 0 0.000454797 0 0)
(0.05255 0.00136766 0 0.000436759 0 0)
(0.063697 0.00161934 0 0.000421536 0 0)
(0.0766018 0.00187195 0 0.000413532 0 0)
(0.0912623 0.00213156 0 0.00040676 0 0)
(0.107639 0.00241936 0 0.000395311 0 0)
(0.0236156 -0.0494437 6.75005e-22 0.107722 -1.41952e-21 1.81971e-37)
(0.165136 -0.102127 -1.62084e-21 0.0672209 8.50936e-22 1.79422e-37)
(0.397913 -0.115735 0 0.0426323 0 0)
(0.655356 -0.0887554 0 0.0279697 0 0)
(0.806479 -0.0219602 0 0.0310089 0 0)
(0.852406 0.0283009 1.45852e-21 0.0549325 7.76115e-22 1.69003e-37)
(0.851232 0.0310526 0 0.0870966 0 0)
(0.885011 -0.0185364 0 0.111367 0 0)
(1.03901 -0.101394 0 0.125753 0 0)
(1.351 -0.191993 0 0.129246 0 0)
(1.83303 -0.271302 1.70152e-21 0.121546 -3.36592e-22 1.56533e-37)
(2.4546 -0.320285 0 0.104504 0 0)
(3.16221 -0.33421 0 0.0857255 0 0)
(3.89887 -0.328127 0 0.0720223 0 0)
(4.61107 -0.314475 0 0.0619087 0 0)
(5.27636 -0.301467 1.83914e-21 0.0544312 5.07529e-22 1.44683e-37)
(5.89323 -0.22913 0 0.039701 0 0)
(6.34837 -0.0900123 0 0.0353399 0 0)
(6.6323 0.00923569 0 0.0477599 0 0)
(6.75969 0.0710624 0 0.0624901 0 0)
(6.79383 0.115173 0 0.078246 0 0)
(6.77662 0.150486 0 0.096421 0 0)
(6.73964 0.167124 0 0.106641 0 0)
(6.65059 0.157242 -4.71366e-21 0.110221 9.6899e-22 1.26994e-37)
(6.60149 0.105676 6.01905e-21 0.139106 -1.09072e-21 1.24891e-37)
(6.56423 0.0510039 -7.28815e-21 0.180314 9.61971e-22 1.22811e-37)
(6.63813 -0.0292424 -8.49296e-21 0.252687 7.21456e-22 1.20755e-37)
(6.83832 -0.157894 0 0.311709 0 0)
(7.21029 -0.258443 0 0.286416 0 0)
(7.65769 -0.336437 1.17694e-20 0.33728 -5.40699e-22 1.14724e-37)
(8.18518 -0.406688 1.2959e-20 0.35935 -7.11646e-22 1.1276e-37)
(8.8064 -0.458807 0 0.345277 0 0)
(9.54782 -0.499466 0 0.317663 0 0)
(10.3722 -0.520372 1.69291e-20 0.302804 -8.3842e-22 1.07011e-37)
(11.2447 -0.538552 0 0.303983 0 0)
(12.1902 -0.569006 0 0.332623 0 0)
(13.3128 -0.670677 -2.00249e-20 0.401474 4.39052e-22 1.01477e-37)
(14.7349 -0.817213 0 0.431744 0 0)
(16.4453 -0.913708 -2.17112e-20 0.39161 4.59056e-22 9.79076e-38)
(18.1761 -0.826444 -4.51762e-20 0.296703 1.12633e-21 3.84632e-37)
(19.5155 -0.608878 0 0.238857 0 0)
(20.3102 -0.442784 0 0.220989 0 0)
(20.5994 -0.319004 0 0.240549 0 0)
(20.6483 -0.449715 0 0.253463 0 0)
(21.1854 -0.549244 0 0.312923 0 0)
(21.7623 -0.540296 -5.6497e-20 0.366878 9.65282e-22 3.44597e-37)
(22.3267 -0.881482 -5.745e-20 0.373392 3.53186e-22 3.38243e-37)
(22.6541 -0.913484 -5.80513e-20 0.467154 1.9043e-22 3.31978e-37)
(22.8926 -0.272257 0 0.256439 0 0)
(22.438 -0.116071 5.95907e-20 0.346351 -1.0022e-21 3.19712e-37)
(22.4847 -0.251212 0 0.277093 0 0)
(22.7344 -0.320207 -6.0781e-20 0.26435 8.74365e-22 3.078e-37)
(23.1425 -0.348692 -6.1368e-20 0.240021 8.09343e-22 3.01977e-37)
(23.6511 -0.40829 0 0.205182 0 0)
(24.4313 -0.463012 0 0.170262 0 0)
(25.1767 -0.69326 0 0.17657 0 0)
(26.0482 -0.560752 -6.41449e-20 0.163519 7.16763e-22 2.79548e-37)
(26.6571 -0.49397 0 0.246752 0 0)
(27.6591 -0.582253 0 0.192462 0 0)
(28.8961 -0.608542 0 0.163261 0 0)
(30.2939 -0.623628 0 0.127945 0 0)
(31.7886 -0.622724 0 0.100017 0 0)
(33.3224 -0.60487 0 0.0770381 0 0)
(34.7816 -0.561024 0 0.0615704 0 0)
(36.1101 -0.499267 0 0.0509757 0 0)
(37.2091 -0.421329 7.11847e-20 0.0437455 -3.82884e-22 2.3391e-37)
(38.0354 -0.335779 0 0.0390331 0 0)
(38.547 -0.245047 0 0.0369312 0 0)
(38.7503 -0.154648 -7.08495e-20 0.0370983 1.47549e-22 2.201e-37)
(38.6767 -0.0775915 -7.01605e-20 0.0385223 6.07539e-23 2.15645e-37)
(38.4198 -0.0247679 0 0.039631 0 0)
(38.0622 0.00569195 6.79579e-20 0.0400971 7.97029e-23 2.06952e-37)
(37.7123 0.0029239 -6.64747e-20 0.0426711 -1.13832e-22 2.02712e-37)
(37.4408 -0.0206602 0 0.0456861 0 0)
(37.2256 -0.0364332 6.27979e-20 0.0446063 1.99416e-22 1.9444e-37)
(37.0509 -0.0334655 0 0.0393119 0 0)
(36.9022 -0.0154068 0 0.0323709 0 0)
(36.7039 0.0216301 -5.59763e-20 0.026538 -2.41975e-22 1.82544e-37)
(36.3634 0.0840252 0 0.0239057 0 0)
(35.7828 0.163293 5.14675e-20 0.0254377 1.82789e-22 1.74947e-37)
(34.9351 0.242325 0 0.0296129 0 0)
(33.8239 0.310303 -4.77254e-20 0.0367261 -9.74905e-23 1.67608e-37)
(32.5393 0.351254 -4.61441e-20 0.044493 -5.90185e-23 1.64033e-37)
(31.1385 0.335212 -4.4713e-20 0.0460365 -4.10064e-23 1.6052e-37)
(29.8676 0.254216 -8.67012e-20 0.0328533 -1.50597e-22 6.28271e-37)
(28.7578 0.179054 8.40427e-20 0.0476322 2.05095e-22 6.14703e-37)
(27.8377 0.0497376 0 0.0696637 0 0)
(26.8388 0.0529591 0 0.100537 0 0)
(25.8243 0.173435 0 0.150018 0 0)
(25.5011 -0.120817 7.68832e-20 0.224502 -7.52726e-22 5.62755e-37)
(26.1405 -0.33417 7.67262e-20 0.157016 -8.49722e-22 5.50336e-37)
(27.4147 -0.45279 -7.75279e-20 0.118057 9.49977e-22 5.38142e-37)
(28.9134 -0.476953 0 0.0845412 0 0)
(30.5126 -0.469949 8.09167e-20 0.063519 -9.35666e-22 5.14411e-37)
(32.083 -0.432617 8.29596e-20 0.0481021 -8.56465e-22 5.02866e-37)
(33.5554 -0.386618 8.48899e-20 0.037382 -7.5578e-22 4.9153e-37)
(34.8757 -0.327313 0 0.0291296 0 0)
(35.9857 -0.261443 0 0.0227683 0 0)
(36.8426 -0.186723 0 0.017692 0 0)
(37.4009 -0.106936 8.74624e-20 0.0136979 -1.26225e-22 4.48192e-37)
(37.6343 -0.0227991 0 0.0107051 0 0)
(37.5105 0.0626555 0 0.00853355 0 0)
(37.0227 0.146354 -8.04007e-20 0.00717383 -3.96298e-22 4.17699e-37)
(36.1745 0.224749 0 0.0065061 0 0)
(34.9948 0.295275 0 0.00641905 0 0)
(33.5141 0.355978 -6.57826e-20 0.00677163 -7.3521e-22 3.88847e-37)
(31.7711 0.405483 0 0.00744304 0 0)
(29.813 0.442966 0 0.0083142 0 0)
(27.6909 0.468097 4.77286e-20 0.009271 7.99934e-22 3.61576e-37)
(25.4605 0.480826 4.18184e-20 0.0101893 7.67605e-22 3.52826e-37)
(23.1788 0.481532 0 0.0109553 0 0)
(20.9014 0.471301 -3.11127e-20 0.0114821 -6.4984e-22 3.35823e-37)
(18.6762 0.452209 0 0.0117447 0 0)
(16.5394 0.426957 2.24885e-20 0.0117822 5.02796e-22 3.19465e-37)
(14.5148 0.398138 0 0.0116662 0 0)
(12.6166 0.367841 1.60641e-20 0.0114725 3.66807e-22 3.0373e-37)
(10.8526 0.336986 1.35932e-20 0.0112393 3.08095e-22 2.9609e-37)
(9.22704 0.306209 0 0.0109886 0 0)
(7.74347 0.275494 0 0.0107068 0 0)
(6.40455 0.244739 0 0.0103647 0 0)
(5.21172 0.214109 0 0.00993907 0 0)
(4.16575 0.183831 0 0.00940901 0 0)
(3.26671 0.155022 0 0.00888317 0 0)
(2.51224 0.127799 0 0.00830362 0 0)
(1.89327 0.102644 5.26023e-21 0.00770282 6.19946e-23 2.40094e-37)
(1.40161 0.0793732 -4.96138e-21 0.00705088 -5.44786e-23 2.33699e-37)
(1.02579 0.0586703 0 0.00640792 0 0)
(0.753865 0.0406518 0 0.00579505 0 0)
(0.573277 0.0252176 0 0.00521809 0 0)
(0.471579 0.0122125 0 0.00468291 0 0)
(0.436906 0.00145241 -7.33112e-21 0.00419325 -8.35833e-23 8.14409e-37)
(0.458199 -0.00725526 0 0.00374978 0 0)
(0.525362 -0.014087 6.1427e-21 0.00334972 7.32757e-23 7.69607e-37)
(0.628856 -0.0191837 -5.51991e-21 0.00298787 -6.46692e-23 7.47894e-37)
(0.7599 -0.0226349 0 0.00265964 0 0)
(0.909445 -0.0244641 0 0.00236366 0 0)
(1.06871 -0.0246993 0 0.00210217 0 0)
(1.22903 -0.023415 3.15262e-21 0.00187939 4.92964e-24 6.65451e-37)
(1.38214 -0.0207373 2.67251e-21 0.00170256 -1.67577e-23 6.45908e-37)
(1.52029 -0.0168339 0 0.0015783 0 0)
(1.63678 -0.0119161 1.94209e-21 0.00151087 -5.83653e-23 6.08052e-37)
(1.72605 -0.00624361 1.71338e-21 0.0015039 -8.15703e-23 5.89726e-37)
(1.78397 -9.66011e-05 -1.58994e-21 0.0015588 1.0607e-22 5.71794e-37)
(1.80785 0.00625514 0 0.00167587 0 0)
(1.79615 0.0125475 0 0.00185662 0 0)
(1.74912 0.0185883 -1.88614e-21 0.00210265 1.73989e-22 5.20289e-37)
(1.66681 0.0241706 0 0.00242464 0 0)
(1.55192 0.0291714 0 0.00283478 0 0)
(1.40743 0.0336343 0 0.0033449 0 0)
(1.23849 0.0365462 0 0.00397228 0 0)
(1.05559 0.0376915 4.30526e-21 0.0047125 -2.61315e-22 4.41727e-37)
(0.867358 0.0383123 4.99032e-21 0.00559223 -2.66297e-22 4.27054e-37)
(0.682489 0.0350881 0 0.00653662 0 0)
(0.530813 0.0277517 6.39477e-21 0.00748068 -2.65114e-22 3.98704e-37)
(0.429746 0.0207881 0 0.00888638 0 0)
(0.389707 0.00657484 0 0.00873902 0 0)
(0.458133 -0.00499832 8.37456e-21 0.00379327 -1.37459e-22 3.58592e-37)
(0.583118 0.00319128 0 0.00128377 0 0)
(0.67499 0.0112647 8.96576e-21 0.00184315 -1.55746e-23 3.33396e-37)
(0.715525 0.00964685 0 0.00186026 0 0)
(0.73169 0.00348597 0 0.00145011 0 0)
(0.751517 -0.00337471 8.83227e-21 0.00113394 -5.42075e-23 2.97825e-37)
(0.78742 -0.0102645 0 0.00108364 0 0)
(0.848015 -0.017291 8.75585e-21 0.00122515 -7.87405e-23 2.75542e-37)