/*--------------------------------*- C++ -*----------------------------------*\
  =========                 |
  \\      /  F ield         | OpenFOAM: The Open Source CFD Toolbox
   \\    /   O peration     | Website:  https://openfoam.org
    \\  /    A nd           | Version:  10
     \\/     M anipulation  |
\*---------------------------------------------------------------------------*/
FoamFile
{
    format      ascii;
    class       volVectorField;
    location    "1.1";
    object      Ua;
}
// * * * * * * * * * * * * * * * * * * * * * * * * * * * * * * * * * * * * * //

dimensions      [0 1 -1 0 0 0 0];

internalField   nonuniform List<vector> 
12225
(
(7.76563e-05 -8.27848e-06 0)
(0.000227775 -7.75885e-06 0)
(0.000366449 -6.91755e-06 0)
(0.00049283 -6.01994e-06 0)
(0.000607996 -5.23023e-06 0)
(0.000713891 -4.62597e-06 0)
(0.00081264 -4.23432e-06 0)
(0.00090624 -4.06271e-06 0)
(0.000996498 -4.11922e-06 0)
(0.0010851 -4.42693e-06 0)
(0.00117375 -5.03824e-06 0)
(0.00126443 -6.05745e-06 0)
(0.00135977 -7.68722e-06 0)
(0.00146384 -1.034e-05 0)
(0.00158392 -1.49507e-05 0)
(0.00173568 -2.40559e-05 0)
(0.00196291 -4.67713e-05 0)
(0.00244514 -0.000130753 0)
(5.53658e-05 -2.24208e-05 0)
(0.000162604 -2.10815e-05 0)
(0.000262041 -1.88597e-05 0)
(0.000352908 -1.64715e-05 0)
(0.000435783 -1.43661e-05 0)
(0.0005119 -1.27595e-05 0)
(0.000582689 -1.17306e-05 0)
(0.000649548 -1.13037e-05 0)
(0.000713781 -1.15039e-05 0)
(0.00077664 -1.23972e-05 0)
(0.000839417 -1.41296e-05 0)
(0.000903606 -1.69887e-05 0)
(0.000971163 -2.15286e-05 0)
(0.001045 -2.88635e-05 0)
(0.00113 -4.14613e-05 0)
(0.00123521 -6.56929e-05 0)
(0.00137702 -0.000121972 0)
(0.00155124 -0.000295374 0)
(4.59509e-05 -3.3007e-05 0)
(0.000135284 -3.11925e-05 0)
(0.000218799 -2.80554e-05 0)
(0.000295789 -2.46426e-05 0)
(0.000366574 -2.16235e-05 0)
(0.00043202 -1.93282e-05 0)
(0.000493178 -1.78839e-05 0)
(0.000551112 -1.73349e-05 0)
(0.000606839 -1.77253e-05 0)
(0.000661346 -1.91582e-05 0)
(0.000715659 -2.18547e-05 0)
(0.000770945 -2.62422e-05 0)
(0.000828681 -3.31305e-05 0)
(0.000890901 -4.41064e-05 0)
(0.000960551 -6.25252e-05 0)
(0.00104145 -9.62906e-05 0)
(0.00113369 -0.000166321 0)
(0.00119753 -0.000330791 0)
(3.96828e-05 -4.11725e-05 0)
(0.000117129 -3.90943e-05 0)
(0.00019015 -3.53148e-05 0)
(0.000258078 -3.11464e-05 0)
(0.000321071 -2.7443e-05 0)
(0.000379743 -2.46356e-05 0)
(0.000434883 -2.2898e-05 0)
(0.000487313 -2.22966e-05 0)
(0.000537833 -2.28952e-05 0)
(0.000587226 -2.48294e-05 0)
(0.000636297 -2.83791e-05 0)
(0.000685935 -3.40748e-05 0)
(0.00073718 -4.28956e-05 0)
(0.000791275 -5.66867e-05 0)
(0.000849493 -7.90995e-05 0)
(0.000911853 -0.000117771 0)
(0.00097099 -0.000188961 0)
(0.000990092 -0.000322256 0)
(3.49057e-05 -4.73954e-05 0)
(0.000103298 -4.522e-05 0)
(0.000168328 -4.10047e-05 0)
(0.000229361 -3.6284e-05 0)
(0.000286439 -3.2071e-05 0)
(0.000339993 -2.88867e-05 0)
(0.000390613 -2.6949e-05 0)
(0.00043893 -2.63469e-05 0)
(0.000485565 -2.71622e-05 0)
(0.000531128 -2.95564e-05 0)
(0.00057623 -3.38511e-05 0)
(0.000621503 -4.06396e-05 0)
(0.000667592 -5.09806e-05 0)
(0.000715045 -6.67693e-05 0)
(0.000763842 -9.14553e-05 0)
(0.000811761 -0.000131315 0)
(0.000849602 -0.000196827 0)
(0.00085145 -0.000299088 0)
(3.1022e-05 -5.19153e-05 0)
(9.20508e-05 -4.9786e-05 0)
(0.000150567 -4.53056e-05 0)
(0.000205961 -4.02018e-05 0)
(0.000258194 -3.56272e-05 0)
(0.000307557 -3.21822e-05 0)
(0.000354481 -3.01248e-05 0)
(0.00039944 -2.95649e-05 0)
(0.000442903 -3.05995e-05 0)
(0.000485325 -3.34074e-05 0)
(0.00052714 -3.83323e-05 0)
(0.000568746 -4.59882e-05 0)
(0.000610443 -5.74262e-05 0)
(0.000652223 -7.44123e-05 0)
(0.000693209 -9.98587e-05 0)
(0.000730252 -0.000138279 0)
(0.0007551 -0.000195294 0)
(0.000751644 -0.000272531 0)
(2.77434e-05 -5.48594e-05 0)
(8.25493e-05 -5.29045e-05 0)
(0.000135541 -4.83057e-05 0)
(0.000186124 -4.29663e-05 0)
(0.000234208 -3.81622e-05 0)
(0.000279975 -3.45621e-05 0)
(0.00032373 -3.24587e-05 0)
(0.000365809 -3.1979e-05 0)
(0.000406548 -3.32307e-05 0)
(0.000446263 -3.63999e-05 0)
(0.000485227 -4.18318e-05 0)
(0.000523635 -5.01206e-05 0)
(0.000561501 -6.22338e-05 0)
(0.000598426 -7.96807e-05 0)
(0.000633091 -0.000104679 0)
(0.000662299 -0.000140069 0)
(0.000679709 -0.000188143 0)
(0.000676076 -0.000246687 0)
(2.49073e-05 -5.62973e-05 0)
(7.43218e-05 -5.46327e-05 0)
(0.000122501 -5.00424e-05 0)
(0.000168868 -4.45989e-05 0)
(0.000213294 -3.96867e-05 0)
(0.000255886 -3.60313e-05 0)
(0.000296837 -3.39516e-05 0)
(0.00033637 -3.35872e-05 0)
(0.000374701 -3.50501e-05 0)
(0.000412017 -3.85234e-05 0)
(0.000448453 -4.43334e-05 0)
(0.000484032 -5.30196e-05 0)
(0.000518557 -6.54103e-05 0)
(0.000551399 -8.26904e-05 0)
(0.000581119 -0.000106378 0)
(0.00060495 -0.000137982 0)
(0.000618473 -0.000177855 0)
(0.00061671 -0.000222813 0)
(2.24122e-05 -5.62673e-05 0)
(6.70734e-05 -5.49962e-05 0)
(0.000110983 -5.05233e-05 0)
(0.000153579 -4.50937e-05 0)
(0.00019472 -4.01881e-05 0)
(0.00023445 -3.65735e-05 0)
(0.000272876 -3.45858e-05 0)
(0.000310115 -3.43701e-05 0)
(0.000346278 -3.60363e-05 0)
(0.00038144 -3.97537e-05 0)
(0.000415615 -4.5813e-05 0)
(0.000448694 -5.46724e-05 0)
(0.000480343 -6.69898e-05 0)
(0.000509838 -8.36137e-05 0)
(0.000535838 -0.000105457 0)
(0.000556174 -0.000133103 0)
(0.000567982 -0.000165961 0)
(0.000568746 -0.000201081 0)
(2.019e-05 -5.47936e-05 0)
(6.06038e-05 -5.40028e-05 0)
(0.000100668 -4.9737e-05 0)
(0.000139842 -4.44284e-05 0)
(0.000177989 -3.9639e-05 0)
(0.00021511 -3.61605e-05 0)
(0.000251234 -3.43332e-05 0)
(0.000286388 -3.42997e-05 0)
(0.000320584 -3.6161e-05 0)
(0.000353803 -4.00638e-05 0)
(0.000385961 -4.62504e-05 0)
(0.000416854 -5.50826e-05 0)
(0.000446077 -6.70401e-05 0)
(0.000472914 -8.2666e-05 0)
(0.000496227 -0.000102407 0)
(0.00051444 -0.000126282 0)
(0.000525801 -0.00015336 0)
(0.000529139 -0.000181289 0)
(1.81907e-05 -5.18982e-05 0)
(5.47646e-05 -5.165e-05 0)
(9.13182e-05 -4.76598e-05 0)
(0.00012735 -4.25701e-05 0)
(0.000162745 -3.80054e-05 0)
(0.000197472 -3.47593e-05 0)
(0.000231489 -3.31623e-05 0)
(0.00026474 -3.33462e-05 0)
(0.000297153 -3.53967e-05 0)
(0.000328628 -3.94318e-05 0)
(0.000359003 -4.56377e-05 0)
(0.000388017 -5.42764e-05 0)
(0.000415245 -6.56614e-05 0)
(0.000440039 -8.0085e-05 0)
(0.000461501 -9.7672e-05 0)
(0.000478545 -0.000118145 0)
(0.000490157 -0.000140551 0)
(0.000495866 -0.000163143 0)
(1.624e-05 -4.79606e-05 0)
(4.91053e-05 -4.82596e-05 0)
(8.23475e-05 -4.45848e-05 0)
(0.000115489 -3.97903e-05 0)
(0.000148408 -3.5535e-05 0)
(0.000181016 -3.25931e-05 0)
(0.000213196 -3.12738e-05 0)
(0.000244812 -3.16932e-05 0)
(0.000275718 -3.39196e-05 0)
(0.000305749 -3.80417e-05 0)
(0.000334696 -4.41935e-05 0)
(0.00036227 -5.25497e-05 0)
(0.000388061 -6.32914e-05 0)
(0.000411515 -7.65338e-05 0)
(0.00043194 -9.22098e-05 0)
(0.000448593 -0.000109921 0)
(0.000460884 -0.000128817 0)
(0.000468649 -0.000147614 0)
(1.486e-05 -4.28523e-05 0)
(4.50254e-05 -4.36878e-05 0)
(7.57339e-05 -4.03626e-05 0)
(0.000106595 -3.59493e-05 0)
(0.000137529 -3.21042e-05 0)
(0.000168423 -2.9555e-05 0)
(0.000199104 -2.85763e-05 0)
(0.000229375 -2.92637e-05 0)
(0.00025903 -3.16665e-05 0)
(0.000287856 -3.58444e-05 0)
(0.000315607 -4.18836e-05 0)
(0.000341982 -4.98842e-05 0)
(0.000366599 -5.99253e-05 0)
(0.000388994 -7.20027e-05 0)
(0.000408649 -8.59466e-05 0)
(0.000425076 -0.000101337 0)
(0.000437954 -0.000117463 0)
(0.000447289 -0.000133384 0)
(1.34247e-05 -3.58964e-05 0)
(4.07119e-05 -3.72e-05 0)
(6.86539e-05 -3.42562e-05 0)
(9.70495e-05 -3.03594e-05 0)
(0.000125874 -2.70934e-05 0)
(0.000154971 -2.50909e-05 0)
(0.000184094 -2.45704e-05 0)
(0.000212971 -2.55986e-05 0)
(0.000241338 -2.82028e-05 0)
(0.000268933 -3.24126e-05 0)
(0.000295484 -3.82667e-05 0)
(0.000320693 -4.5798e-05 0)
(0.000344225 -5.50027e-05 0)
(0.00036572 -6.5795e-05 0)
(0.000384825 -7.79583e-05 0)
(0.000401256 -9.11075e-05 0)
(0.000414884 -0.000104692 0)
(0.000425802 -0.000118056 0)
(1.18689e-05 -2.6759e-05 0)
(3.59582e-05 -2.81876e-05 0)
(6.08125e-05 -2.56391e-05 0)
(8.65729e-05 -2.24649e-05 0)
(0.000113231 -2.0019e-05 0)
(0.000140526 -1.87674e-05 0)
(0.000168097 -1.88502e-05 0)
(0.000195585 -2.03024e-05 0)
(0.000222661 -2.31321e-05 0)
(0.000249029 -2.73443e-05 0)
(0.000274407 -3.29414e-05 0)
(0.000298525 -3.99092e-05 0)
(0.000321117 -4.81938e-05 0)
(0.000341937 -5.76738e-05 0)
(0.00036078 -6.8136e-05 0)
(0.000377519 -7.92655e-05 0)
(0.000392137 -9.06612e-05 0)
(0.000404751 -0.000101883 0)
(9.82983e-06 -1.51018e-05 0)
(2.98525e-05 -1.5833e-05 0)
(5.11255e-05 -1.38063e-05 0)
(7.41818e-05 -1.17261e-05 0)
(9.87888e-05 -1.04374e-05 0)
(0.000124419 -1.01731e-05 0)
(0.000150531 -1.1e-05 0)
(0.000176668 -1.29404e-05 0)
(0.000202463 -1.60105e-05 0)
(0.000227632 -2.02183e-05 0)
(0.000251945 -2.55547e-05 0)
(0.000275209 -3.19885e-05 0)
(0.000297259 -3.94486e-05 0)
(0.000317956 -4.78101e-05 0)
(0.000337196 -5.68856e-05 0)
(0.000354923 -6.64274e-05 0)
(0.000371143 -7.61454e-05 0)
(0.000385925 -8.57374e-05 0)
(5.61245e-06 1.43882e-07 0)
(1.83703e-05 1.03417e-06 0)
(3.47876e-05 1.74547e-06 0)
(5.48659e-05 2.01734e-06 0)
(7.74267e-05 1.70573e-06 0)
(0.000101476 7.01751e-07 0)
(0.000126321 -1.06877e-06 0)
(0.000151469 -3.65128e-06 0)
(0.000176676 -7.28591e-06 0)
(0.000201844 -1.19199e-05 0)
(0.000226768 -1.74044e-05 0)
(0.00025118 -2.3708e-05 0)
(0.000274849 -3.07527e-05 0)
(0.000297578 -3.8419e-05 0)
(0.000319206 -4.65461e-05 0)
(0.000339621 -5.49404e-05 0)
(0.000358763 -6.33905e-05 0)
(0.000376628 -7.16873e-05 0)
(1.09919e-05 1.7634e-05 0)
(3.27572e-05 2.08511e-05 0)
(5.46281e-05 2.06361e-05 0)
(7.74136e-05 1.9091e-05 0)
(0.000101365 1.69162e-05 0)
(0.000126318 1.42616e-05 0)
(0.000151951 1.11229e-05 0)
(0.000177927 7.46846e-06 0)
(0.000203828 3.06148e-06 0)
(0.00022921 -2.03248e-06 0)
(0.000253856 -7.81413e-06 0)
(0.00027782 -1.44015e-05 0)
(0.000301081 -2.1376e-05 0)
(0.000323464 -2.86423e-05 0)
(0.000344841 -3.60778e-05 0)
(0.000365129 -4.35457e-05 0)
(0.000384287 -5.09062e-05 0)
(0.000402315 -5.80284e-05 0)
(1.38335e-05 3.60717e-05 0)
(4.16448e-05 4.05644e-05 0)
(6.95102e-05 4.03959e-05 0)
(9.72487e-05 3.78499e-05 0)
(0.000124968 3.41649e-05 0)
(0.00015271 2.98982e-05 0)
(0.000180406 2.52705e-05 0)
(0.000207912 2.03582e-05 0)
(0.000235054 1.5181e-05 0)
(0.000261658 9.75759e-06 0)
(0.000287513 3.95275e-06 0)
(0.000312303 -2.35167e-06 0)
(0.000335846 -8.84817e-06 0)
(0.000358229 -1.55967e-05 0)
(0.000379512 -2.22722e-05 0)
(0.000399679 -2.87976e-05 0)
(0.000418738 -3.50968e-05 0)
(0.000436722 -4.11012e-05 0)
(1.5206e-05 5.24816e-05 0)
(4.60527e-05 5.62152e-05 0)
(7.7336e-05 5.56374e-05 0)
(0.000108476 5.24431e-05 0)
(0.000139279 4.78481e-05 0)
(0.000169661 4.25623e-05 0)
(0.00019954 3.69569e-05 0)
(0.000228814 3.12117e-05 0)
(0.000257369 2.541e-05 0)
(0.000285092 1.9593e-05 0)
(0.000311881 1.37864e-05 0)
(0.000337654 8.01687e-06 0)
(0.000362315 2.22655e-06 0)
(0.000385681 -3.66962e-06 0)
(0.000407743 -9.59125e-06 0)
(0.000428649 -1.53031e-05 0)
(0.000448446 -2.07259e-05 0)
(0.000467173 -2.58299e-05 0)
(1.72336e-05 6.37502e-05 0)
(5.20041e-05 6.60892e-05 0)
(8.6984e-05 6.47086e-05 0)
(0.000121582 6.09054e-05 0)
(0.000155516 5.57431e-05 0)
(0.000188647 4.99197e-05 0)
(0.000220886 4.38423e-05 0)
(0.000252155 3.77292e-05 0)
(0.00028238 3.16901e-05 0)
(0.000311495 2.57788e-05 0)
(0.000339447 2.00233e-05 0)
(0.000366197 1.44423e-05 0)
(0.000391721 9.05321e-06 0)
(0.000416015 3.8731e-06 0)
(0.000438985 -1.28801e-06 0)
(0.000460593 -6.32012e-06 0)
(0.000480979 -1.11281e-05 0)
(0.000500256 -1.56038e-05 0)
(1.95516e-05 7.07141e-05 0)
(5.87361e-05 7.17993e-05 0)
(9.77423e-05 6.96589e-05 0)
(0.000136029 6.53642e-05 0)
(0.000173291 5.98458e-05 0)
(0.000209368 5.37537e-05 0)
(0.000244169 4.74892e-05 0)
(0.000277637 4.12785e-05 0)
(0.000309733 3.52391e-05 0)
(0.00034043 2.94268e-05 0)
(0.000369716 2.38664e-05 0)
(0.000397591 1.85686e-05 0)
(0.000424068 1.35392e-05 0)
(0.000449174 8.78283e-06 0)
(0.000472943 4.30458e-06 0)
(0.000495379 2.68529e-09 0)
(0.000516457 -4.13725e-06 0)
(0.000536284 -8.05507e-06 0)
(2.21816e-05 7.35906e-05 0)
(6.63659e-05 7.36978e-05 0)
(0.00010989 7.09748e-05 0)
(0.000152256 6.63644e-05 0)
(0.000193166 6.06951e-05 0)
(0.000232459 5.45619e-05 0)
(0.00027006 4.8342e-05 0)
(0.00030594 4.22522e-05 0)
(0.000340096 3.64055e-05 0)
(0.000372544 3.08532e-05 0)
(0.000403312 2.56142e-05 0)
(0.000432441 2.06912e-05 0)
(0.000459979 1.60808e-05 0)
(0.000485984 1.17778e-05 0)
(0.000510519 7.77697e-06 0)
(0.000533654 4.0735e-06 0)
(0.000555448 6.09093e-07 0)
(0.000575899 -2.68318e-06 0)
(2.5169e-05 7.27671e-05 0)
(7.50428e-05 7.21757e-05 0)
(0.0001237 6.90922e-05 0)
(0.000170666 6.43725e-05 0)
(0.000215654 5.87615e-05 0)
(0.000258525 5.27978e-05 0)
(0.000299231 4.68258e-05 0)
(0.000337782 4.10437e-05 0)
(0.000374222 3.55529e-05 0)
(0.000408613 3.03971e-05 0)
(0.00044103 2.55875e-05 0)
(0.000471554 2.11201e-05 0)
(0.000500272 1.69843e-05 0)
(0.000527275 1.31676e-05 0)
(0.000552656 9.65752e-06 0)
(0.000576508 6.44246e-06 0)
(0.000598925 3.51078e-06 0)
(0.000619998 8.27015e-07 0)
(2.85962e-05 6.86618e-05 0)
(8.50111e-05 6.76211e-05 0)
(0.000139576 6.44044e-05 0)
(0.000191814 5.97901e-05 0)
(0.000241453 5.4445e-05 0)
(0.000288383 4.88494e-05 0)
(0.000332602 4.33093e-05 0)
(0.000374174 3.79992e-05 0)
(0.000413197 3.30058e-05 0)
(0.00044979 2.83629e-05 0)
(0.000484077 2.40754e-05 0)
(0.000516187 2.01334e-05 0)
(0.000546251 1.65213e-05 0)
(0.000574394 1.32221e-05 0)
(0.000600739 1.02191e-05 0)
(0.000625407 7.49643e-06 0)
(0.000648511 5.0387e-06 0)
(0.000670163 2.82972e-06 0)
(3.26099e-05 6.16504e-05 0)
(9.67006e-05 6.03773e-05 0)
(0.000158212 5.72444e-05 0)
(0.000216639 5.29469e-05 0)
(0.000271723 4.80695e-05 0)
(0.000323399 4.30295e-05 0)
(0.000371723 3.80901e-05 0)
(0.000416826 3.33991e-05 0)
(0.000458877 2.90271e-05 0)
(0.000498059 2.49988e-05 0)
(0.000534558 2.1313e-05 0)
(0.000568555 1.79566e-05 0)
(0.000600228 1.49112e-05 0)
(0.000629741 1.21577e-05 0)
(0.000657253 9.67776e-06 0)
(0.000682913 7.45414e-06 0)
(0.000706858 5.4708e-06 0)
(0.000729218 3.71163e-06 0)
(3.74962e-05 5.20207e-05 0)
(0.00011095 5.07044e-05 0)
(0.000180961 4.78605e-05 0)
(0.000246969 4.40852e-05 0)
(0.000308732 3.98711e-05 0)
(0.000366239 3.55656e-05 0)
(0.000419625 3.1385e-05 0)
(0.000469108 2.74484e-05 0)
(0.00051494 2.38106e-05 0)
(0.000557385 2.04876e-05 0)
(0.000596698 1.74749e-05 0)
(0.000633125 1.47578e-05 0)
(0.000666893 1.23179e-05 0)
(0.000698214 1.01363e-05 0)
(0.000727287 8.19519e-06 0)
(0.000754293 6.47828e-06 0)
(0.000779398 4.97147e-06 0)
(0.000802751 3.66264e-06 0)
(4.3928e-05 3.9932e-05 0)
(0.000129741 3.8744e-05 0)
(0.000211033 3.63889e-05 0)
(0.000287167 3.33415e-05 0)
(0.000357916 2.99874e-05 0)
(0.000423342 2.6595e-05 0)
(0.000483685 2.33295e-05 0)
(0.000539272 2.028e-05 0)
(0.000590462 1.74858e-05 0)
(0.000637615 1.49565e-05 0)
(0.000681073 1.26863e-05 0)
(0.000721152 1.06615e-05 0)
(0.000758144 8.86615e-06 0)
(0.000792314 7.28389e-06 0)
(0.000823904 5.89942e-06 0)
(0.000853136 4.6992e-06 0)
(0.00088021 3.67263e-06 0)
(0.000905304 2.81472e-06 0)
(5.42459e-05 2.54102e-05 0)
(0.000159999 2.45206e-05 0)
(0.000259745 2.28684e-05 0)
(0.00035274 2.07762e-05 0)
(0.000438786 1.85018e-05 0)
(0.000518053 1.62232e-05 0)
(0.000590918 1.40485e-05 0)
(0.000657856 1.20353e-05 0)
(0.000719363 1.02083e-05 0)
(0.000775916 8.57312e-06 0)
(0.000827959 7.12497e-06 0)
(0.000875895 5.85448e-06 0)
(0.000920083 4.75055e-06 0)
(0.000960848 3.80197e-06 0)
(0.00099848 2.99813e-06 0)
(0.00103324 2.32972e-06 0)
(0.00106538 1.79026e-06 0)
(0.0010951 1.38311e-06 0)
(8.96227e-05 8.68576e-06 0)
(0.000264901 8.33696e-06 0)
(0.000431718 7.71454e-06 0)
(0.000589449 6.93736e-06 0)
(0.000738192 6.09951e-06 0)
(0.000878498 5.26552e-06 0)
(0.00101115 4.47449e-06 0)
(0.00113701 3.74713e-06 0)
(0.0012569 3.09233e-06 0)
(0.00137158 2.51209e-06 0)
(0.00148173 2.00477e-06 0)
(0.0015879 1.56708e-06 0)
(0.0016906 1.19508e-06 0)
(0.00179022 8.8477e-07 0)
(0.0018871 6.32333e-07 0)
(0.00198151 4.34345e-07 0)
(0.00207368 2.88624e-07 0)
(0.00216378 1.98892e-07 0)
(0.000126418 -0.000270214 -3.49094e-30)
(0.000379416 -0.000267995 3.45928e-30)
(0.000631846 -0.000264639 0)
(0.00088306 -0.000261112 0)
(0.00113314 -0.000257992 0)
(0.00138253 -0.000255474 -3.2856e-30)
(0.00163178 -0.000253494 0)
(0.00188129 -0.000251871 0)
(0.00213132 -0.0002504 0)
(0.00238192 -0.000248904 0)
(0.00263299 -0.00024725 3.16455e-30)
(0.00288432 -0.000245352 0)
(0.00313562 -0.000243164 0)
(0.00338656 -0.000240668 0)
(0.0036368 -0.000237866 0)
(0.00388599 -0.000234765 2.98839e-30)
(0.00413379 -0.000231366 0)
(0.00437983 -0.000227657 0)
(0.0046237 -0.000223604 0)
(0.00486496 -0.000219156 0)
(0.00510308 -0.000214256 0)
(0.00533747 -0.000208862 0)
(0.0055675 -0.000202973 0)
(0.00579255 -0.000196645 2.4732e-30)
(0.0060121 -0.000190002 -2.38475e-30)
(0.00622578 -0.00018321 2.29444e-30)
(0.00643341 -0.000176434 2.20441e-30)
(0.00663494 -0.000169783 0)
(0.00683042 -0.000163265 0)
(0.00701983 -0.000156783 -1.9435e-30)
(0.00720301 -0.000150192 -1.85616e-30)
(0.00737967 -0.000143402 0)
(0.00754945 -0.000136435 0)
(0.00771209 -0.000129412 -1.58157e-30)
(0.00786746 -0.00012246 0)
(0.00801556 -0.000115642 0)
(0.00815642 -0.000108946 1.31181e-30)
(0.00829005 -0.000102339 0)
(0.00841642 -9.58239e-05 1.13914e-30)
(0.00853556 -8.94338e-05 2.11029e-30)
(0.0086475 -8.32028e-05 0)
(0.00875235 -7.71516e-05 0)
(0.00885023 -7.12965e-05 0)
(0.00894128 -6.56546e-05 0)
(0.00902568 -6.02423e-05 0)
(0.00910364 -5.50737e-05 1.20869e-30)
(0.00917539 -5.01604e-05 1.07999e-30)
(0.00924116 -4.55111e-05 9.58258e-31)
(0.00930122 -4.11322e-05 0)
(0.00935586 -3.70277e-05 -7.36259e-31)
(0.00940537 -3.31996e-05 0)
(0.00945004 -2.96476e-05 5.43264e-31)
(0.0094902 -2.63693e-05 4.57572e-31)
(0.00952615 -2.33603e-05 0)
(0.00955821 -2.06136e-05 0)
(0.00958668 -1.81205e-05 0)
(0.00961188 -1.58706e-05 1.83318e-31)
(0.00963411 -1.38517e-05 0)
(0.00965364 -1.20506e-05 0)
(0.00967075 -1.04528e-05 0)
(0.0096857 -9.04362e-06 0)
(0.00969873 -7.80773e-06 0)
(0.00971007 -6.72998e-06 0)
(0.00971992 -5.79546e-06 0)
(0.00972847 -4.9898e-06 0)
(0.0097359 -4.29928e-06 1.18724e-31)
(0.00974236 -3.71099e-06 0)
(0.009748 -3.21288e-06 0)
(0.00975293 -2.79381e-06 -1.58039e-31)
(0.00975726 -2.44354e-06 -1.672e-31)
(0.0097611 -2.15276e-06 0)
(0.00976452 -1.91303e-06 1.81081e-31)
(0.0097676 -1.71674e-06 -1.8623e-31)
(0.0097704 -1.55712e-06 0)
(0.00977298 -1.42814e-06 1.93818e-31)
(0.00977538 -1.32451e-06 0)
(0.00977763 -1.24159e-06 0)
(0.00977978 -1.17537e-06 -2.00509e-31)
(0.00978183 -1.12239e-06 0)
(0.00978382 -1.07972e-06 2.03078e-31)
(0.00978575 -1.04488e-06 0)
(0.00978764 -1.01581e-06 -2.04823e-31)
(0.00978949 -9.90822e-07 -2.05511e-31)
(0.00979132 -9.68549e-07 -2.0613e-31)
(0.00979312 -9.47902e-07 -4.13409e-31)
(0.0097949 -9.28035e-07 4.14525e-31)
(0.00979666 -9.08309e-07 0)
(0.0097984 -8.88262e-07 0)
(0.00980011 -8.67572e-07 0)
(0.00980179 -8.46041e-07 4.19085e-31)
(0.00980345 -8.23565e-07 4.20328e-31)
(0.00980507 -8.00118e-07 -4.21615e-31)
(0.00980666 -7.75731e-07 0)
(0.00980821 -7.50482e-07 4.24328e-31)
(0.00980972 -7.2448e-07 4.25748e-31)
(0.0098112 -6.97856e-07 4.27194e-31)
(0.00981262 -6.70755e-07 0)
(0.00981401 -6.43326e-07 0)
(0.00981535 -6.15722e-07 0)
(0.00981664 -5.88089e-07 4.33126e-31)
(0.00981788 -5.60568e-07 0)
(0.00981907 -5.33291e-07 0)
(0.00982021 -5.06378e-07 -4.37515e-31)
(0.00982131 -4.79937e-07 0)
(0.00982235 -4.54065e-07 0)
(0.00982335 -4.28845e-07 -4.41674e-31)
(0.0098243 -4.04347e-07 0)
(0.0098252 -3.80631e-07 0)
(0.00982606 -3.57743e-07 4.45477e-31)
(0.00982687 -3.3572e-07 4.46654e-31)
(0.00982764 -3.14589e-07 0)
(0.00982836 -2.94367e-07 -4.48865e-31)
(0.00982905 -2.75063e-07 0)
(0.00982969 -2.56679e-07 4.50874e-31)
(0.0098303 -2.39211e-07 0)
(0.00983087 -2.22648e-07 4.52691e-31)
(0.0098314 -2.06975e-07 4.53521e-31)
(0.0098319 -1.92173e-07 0)
(0.00983237 -1.78219e-07 0)
(0.00983281 -1.65086e-07 0)
(0.00983322 -1.52748e-07 0)
(0.0098336 -1.41174e-07 0)
(0.00983396 -1.30334e-07 0)
(0.00983429 -1.20194e-07 0)
(0.0098346 -1.10722e-07 4.58654e-31)
(0.00983488 -1.01886e-07 -4.59119e-31)
(0.00983515 -9.36515e-08 0)
(0.0098354 -8.59861e-08 0)
(0.00983563 -7.88569e-08 0)
(0.00983584 -7.22313e-08 0)
(0.00983603 -6.60775e-08 -9.22051e-31)
(0.00983621 -6.03638e-08 0)
(0.00983638 -5.50592e-08 9.23225e-31)
(0.00983653 -5.01329e-08 -9.23749e-31)
(0.00983667 -4.55544e-08 0)
(0.0098368 -4.12933e-08 0)
(0.00983692 -3.73189e-08 0)
(0.00983702 -3.36003e-08 9.2551e-31)
(0.00983712 -3.01054e-08 9.25879e-31)
(0.00983721 -2.6801e-08 0)
(0.00983728 -2.36518e-08 9.26559e-31)
(0.00983735 -2.06197e-08 9.26875e-31)
(0.00983741 -1.76627e-08 -9.27192e-31)
(0.00983746 -1.47339e-08 0)
(0.00983751 -1.17798e-08 0)
(0.00983754 -8.73833e-09 -9.28126e-31)
(0.00983756 -5.53625e-09 0)
(0.00983758 -2.08633e-09 0)
(0.00983758 1.71677e-09 0)
(0.00983756 6.0015e-09 0)
(0.00983754 1.09257e-08 9.30157e-31)
(0.00983749 1.66846e-08 9.30749e-31)
(0.00983742 2.35213e-08 0)
(0.00983732 3.17401e-08 9.32291e-31)
(0.00983719 4.17229e-08 0)
(0.00983702 5.3952e-08 0)
(0.0098368 6.90378e-08 9.36098e-31)
(0.00983652 8.77559e-08 0)
(0.00983616 1.11096e-07 9.40388e-31)
(0.00983569 1.40323e-07 0)
(0.0098351 1.77066e-07 0)
(0.00983435 2.23425e-07 9.51829e-31)
(0.00983339 2.82126e-07 0)
(0.00983217 3.56722e-07 9.65404e-31)
(0.0098306 4.51885e-07 0)
(0.0098286 5.73798e-07 0)
(0.00982603 7.30729e-07 0)
(0.00982272 9.33864e-07 -1.02419e-30)
(0.00981843 1.19856e-06 0)
(0.00981287 1.5463e-06 1.08658e-30)
(0.00980559 2.0078e-06 0)
(0.009796 2.62831e-06 0)
(0.00978326 3.47695e-06 0)
(0.0097661 4.66449e-06 0)
(0.00974259 6.37991e-06 0)
(0.00970959 8.97409e-06 0)
(0.00966151 1.31799e-05 0)
(0.00958699 2.08154e-05 -6.11525e-30)
(0.00945743 3.77088e-05 0)
(0.00917027 9.068e-05 0)
(0.00013088 -0.000820183 1.05959e-29)
(0.000390714 -0.000809016 -1.04424e-29)
(0.000645822 -0.000794577 0)
(0.000896444 -0.000781469 2.01581e-29)
(0.00114433 -0.000771319 0)
(0.0013913 -0.000764092 -9.85923e-30)
(0.00163865 -0.000758955 -1.95411e-29)
(0.00188708 -0.000754949 -1.94258e-29)
(0.0021368 -0.00075126 0)
(0.00238772 -0.00074729 -1.92042e-29)
(0.00263953 -0.000742647 9.56733e-30)
(0.00289184 -0.00073711 0)
(0.00314424 -0.000730584 0)
(0.00339629 -0.000723068 0)
(0.0036476 -0.000714611 0)
(0.00389784 -0.000705277 9.06947e-30)
(0.00414668 -0.000695104 0)
(0.00439383 -0.000684068 1.74752e-29)
(0.00463895 -0.000672056 0)
(0.00488164 -0.000658874 0)
(0.00512134 -0.000644278 -1.64123e-29)
(0.00535737 -0.000628067 0)
(0.0055889 -0.000610178 1.55088e-29)
(0.00581512 -0.000590787 7.56709e-30)
(0.00603532 -0.000570329 -7.30008e-30)
(0.00624905 -0.000549442 7.02761e-30)
(0.00645625 -0.000528793 6.75827e-30)
(0.00665716 -0.000508831 0)
(0.00685218 -0.00048957 0)
(0.00704154 -0.000470531 -5.99835e-30)
(0.00722507 -0.000451009 -1.7061e-29)
(0.00740217 -0.000430561 0)
(0.00757216 -0.000409335 0)
(0.0077346 -0.000387922 -4.92247e-30)
(0.00788946 -0.000366911 0)
(0.00803699 -0.000346501 0)
(0.00817735 -0.000326502 4.12341e-30)
(0.00831053 -0.000306683 0)
(0.0084364 -0.000287063 1.06327e-29)
(0.00855494 -0.00026782 6.72102e-30)
(0.00866621 -0.000249089 0)
(0.00877034 -0.00023091 0)
(0.00886746 -0.000213318 -1.01908e-29)
(0.00895772 -0.000196368 -9.30602e-30)
(0.00904129 -0.000180113 -8.45779e-30)
(0.0091184 -0.000164596 1.16877e-29)
(0.00918926 -0.000149851 3.65662e-30)
(0.00925415 -0.000135905 -2.85759e-30)
(0.00931333 -0.000122774 5.46773e-30)
(0.00936709 -0.00011047 -2.63444e-30)
(0.00941573 -9.90002e-05 0)
(0.00945956 -8.83625e-05 2.06078e-30)
(0.00949889 -7.85498e-05 4.97007e-30)
(0.00953404 -6.9548e-05 0)
(0.00956533 -6.13363e-05 0)
(0.00959308 -5.38879e-05 0)
(0.00961759 -4.71706e-05 9.92269e-31)
(0.00963917 -4.11476e-05 0)
(0.0096581 -3.57781e-05 9.37602e-31)
(0.00967467 -3.10189e-05 0)
(0.00968912 -2.68245e-05 4.71783e-31)
(0.00970169 -2.31489e-05 0)
(0.00971262 -1.99461e-05 -1.13957e-31)
(0.00972211 -1.71711e-05 0)
(0.00973034 -1.47806e-05 -1.54772e-31)
(0.00973749 -1.27333e-05 1.62033e-31)
(0.0097437 -1.09904e-05 0)
(0.00974911 -9.51599e-06 4.28709e-31)
(0.00975385 -8.27658e-06 -1.63349e-32)
(0.00975803 -7.24163e-06 -4.31909e-32)
(0.00976173 -6.3833e-06 0)
(0.00976503 -5.6764e-06 7.1253e-31)
(0.00976802 -5.09827e-06 -9.88293e-32)
(0.00977074 -4.62871e-06 0)
(0.00977325 -4.24978e-06 1.20887e-31)
(0.00977559 -3.94572e-06 7.19189e-31)
(0.0097778 -3.70275e-06 0)
(0.00977991 -3.50893e-06 -1.40191e-31)
(0.00978193 -3.35402e-06 0)
(0.0097839 -3.22931e-06 -6.09499e-31)
(0.00978581 -3.12747e-06 0)
(0.00978769 -3.04242e-06 6.14596e-31)
(0.00978954 -2.96916e-06 -1.54374e-31)
(0.00979136 -2.90365e-06 -9.30663e-31)
(0.00979317 -2.8427e-06 -1.8712e-30)
(0.00979494 -2.78382e-06 1.88076e-30)
(0.0097967 -2.72515e-06 0)
(0.00979844 -2.66534e-06 0)
(0.00980015 -2.60347e-06 0)
(0.00980183 -2.53896e-06 -1.25723e-30)
(0.00980349 -2.47154e-06 3.35131e-31)
(0.00980512 -2.40115e-06 -3.38846e-31)
(0.00980671 -2.32789e-06 0)
(0.00980826 -2.25202e-06 1.96637e-30)
(0.00980977 -2.17388e-06 3.50818e-31)
(0.00981125 -2.09387e-06 3.55024e-31)
(0.00981267 -2.01242e-06 0)
(0.00981406 -1.92999e-06 0)
(0.0098154 -1.84705e-06 0)
(0.00981669 -1.76403e-06 3.72333e-31)
(0.00981793 -1.68136e-06 0)
(0.00981912 -1.59944e-06 1.68919e-30)
(0.00982026 -1.51862e-06 1.31258e-30)
(0.00982135 -1.43923e-06 -1.70619e-30)
(0.0098224 -1.36157e-06 0)
(0.00982339 -1.28586e-06 -2.1198e-30)
(0.00982434 -1.21234e-06 0)
(0.00982524 -1.14117e-06 -1.73774e-30)
(0.0098261 -1.0725e-06 2.15352e-30)
(0.0098269 -1.00643e-06 2.16397e-30)
(0.00982767 -9.43038e-07 0)
(0.00982839 -8.82382e-07 1.34663e-30)
(0.00982908 -8.24486e-07 -1.7712e-30)
(0.00982972 -7.69354e-07 4.2437e-31)
(0.00983032 -7.16972e-07 0)
(0.00983089 -6.67308e-07 4.29704e-31)
(0.00983142 -6.20316e-07 -1.36061e-30)
(0.00983192 -5.75937e-07 0)
(0.00983239 -5.34103e-07 -1.80186e-30)
(0.00983283 -4.94736e-07 -1.80601e-30)
(0.00983324 -4.57751e-07 -1.80991e-30)
(0.00983362 -4.23059e-07 0)
(0.00983397 -3.90565e-07 0)
(0.0098343 -3.60174e-07 0)
(0.00983461 -3.31787e-07 2.27042e-30)
(0.0098349 -3.05305e-07 -4.48603e-31)
(0.00983516 -2.80628e-07 0)
(0.00983541 -2.57656e-07 1.83101e-30)
(0.00983564 -2.36292e-07 1.83327e-30)
(0.00983585 -2.16438e-07 0)
(0.00983604 -1.97998e-07 -9.08412e-31)
(0.00983622 -1.80878e-07 3.67821e-30)
(0.00983638 -1.64984e-07 9.1186e-31)
(0.00983654 -1.50223e-07 -4.59807e-30)
(0.00983668 -1.36506e-07 0)
(0.0098368 -1.2374e-07 0)
(0.00983692 -1.11834e-07 0)
(0.00983703 -1.00695e-07 9.18573e-31)
(0.00983712 -9.0227e-08 4.61696e-30)
(0.00983721 -8.03308e-08 3.69937e-30)
(0.00983729 -7.09006e-08 9.21674e-31)
(0.00983736 -6.18225e-08 4.62587e-30)
(0.00983742 -5.29711e-08 -9.23541e-31)
(0.00983747 -4.42062e-08 0)
(0.00983751 -3.53677e-08 0)
(0.00983754 -2.62701e-08 -4.637e-30)
(0.00983757 -1.6695e-08 0)
(0.00983758 -6.38161e-09 0)
(0.00983758 4.98464e-09 3.71716e-30)
(0.00983757 1.77872e-08 0)
(0.00983754 3.24975e-08 4.65522e-30)
(0.0098375 4.96984e-08 9.34163e-31)
(0.00983743 7.01159e-08 0)
(0.00983733 9.4658e-08 4.67441e-30)
(0.00983721 1.24465e-07 0)
(0.00983704 1.60977e-07 0)
(0.00983682 2.06016e-07 9.50263e-31)
(0.00983654 2.61897e-07 3.7699e-30)
(0.00983618 3.31572e-07 9.63187e-31)
(0.00983573 4.18821e-07 0)
(0.00983515 5.28499e-07 0)
(0.0098344 6.66875e-07 4.85052e-30)
(0.00983346 8.42076e-07 0)
(0.00983225 1.0647e-06 4.97291e-30)
(0.00983071 1.34868e-06 0)
(0.00982874 1.71244e-06 0)
(0.00982621 2.18058e-06 0)
(0.00982295 2.78642e-06 -1.21576e-30)
(0.00981874 3.57559e-06 0)
(0.00981327 4.61188e-06 1.40359e-30)
(0.00980612 5.98633e-06 0)
(0.00979672 7.8327e-06 0)
(0.00978424 1.03547e-05 5.83727e-30)
(0.00976748 1.3877e-05 -6.55933e-30)
(0.00974462 1.89493e-05 0)
(0.00971275 2.65792e-05 0)
(0.00966695 3.88228e-05 0)
(0.00959815 6.0546e-05 1.79591e-29)
(0.00948881 0.00010586 0)
(0.00931631 0.000227933 -1.01309e-28)
(0.000149353 -0.0014192 7.33532e-29)
(0.000432083 -0.00136445 -1.02745e-32)
(0.00068829 -0.00131827 0)
(0.00093015 -0.00128864 2.20294e-32)
(0.00116768 -0.00127188 0)
(0.00140648 -0.00126371 0)
(0.00164894 -0.00125958 -6.4924e-29)
(0.00189536 -0.00125661 -3.2393e-29)
(0.00214518 -0.00125312 3.22403e-29)
(0.00239754 -0.0012482 -3.21519e-29)
(0.00265156 -0.00124137 0)
(0.00290641 -0.00123248 0)
(0.00316137 -0.00122155 -3.13522e-29)
(0.00341582 -0.00120875 -6.20066e-29)
(0.0036693 -0.00119433 6.12253e-29)
(0.00392148 -0.00117856 0)
(0.0041722 -0.00116163 5.94635e-29)
(0.00442135 -0.00114358 2.93521e-29)
(0.00466886 -0.0011242 0)
(0.00491449 -0.001103 5.63273e-29)
(0.00515771 -0.00107927 -2.76549e-29)
(0.00539759 -0.00105232 -5.3639e-29)
(0.00563282 -0.00102177 2.61461e-29)
(0.00586192 -0.00098785 0)
(0.00608356 -0.000951556 4.83323e-29)
(0.00629703 -0.000914543 4.63886e-29)
(0.00650251 -0.000878702 0)
(0.00670112 -0.000845443 4.27589e-29)
(0.00689451 -0.000814856 0)
(0.00708384 -0.000785279 3.95944e-29)
(0.00726888 -0.000754034 -1.91481e-29)
(0.00744784 -0.000719477 0)
(0.00761869 -0.000682359 0)
(0.00778044 -0.000645002 0)
(0.00793366 -0.000609433 0)
(0.00807963 -0.000575965 0)
(0.00821905 -0.000543272 0)
(0.00835159 -0.000510213 2.51943e-29)
(0.00847659 -0.000477071 -1.15314e-29)
(0.00859388 -0.000444682 0)
(0.00870373 -0.000413388 0)
(0.00880641 -0.000383035 0)
(0.00890201 -0.000353616 -3.44612e-29)
(0.00899066 -0.000325279 -1.59675e-29)
(0.00907255 -0.000298128 -4.28426e-31)
(0.00914793 -0.00027223 4.31979e-31)
(0.00921703 -0.000247641 -1.14971e-29)
(0.00928014 -0.000224402 -1.07249e-29)
(0.00933754 -0.000202538 1.87374e-29)
(0.00938953 -0.000182067 8.08253e-30)
(0.00943642 -0.000162998 0)
(0.00947853 -0.000145329 6.17064e-30)
(0.0095162 -0.000129049 1.10966e-29)
(0.00954974 -0.000114132 0)
(0.00957949 -0.000100541 0)
(0.00960578 -8.8231e-05 -3.20071e-30)
(0.00962892 -7.71449e-05 0)
(0.00964921 -6.72196e-05 0)
(0.00966695 -5.83854e-05 5.40365e-30)
(0.00968242 -5.05675e-05 2.48541e-30)
(0.00969587 -4.36886e-05 1.343e-30)
(0.00970755 -3.76701e-05 0)
(0.00971766 -3.2434e-05 -7.59091e-31)
(0.00972643 -2.79044e-05 0)
(0.00973402 -2.40084e-05 4.66019e-32)
(0.0097406 -2.0677e-05 -1.49101e-31)
(0.00974632 -1.78456e-05 9.16052e-31)
(0.0097513 -1.54543e-05 1.28662e-30)