/*--------------------------------*- C++ -*----------------------------------*\
  =========                 |
  \\      /  F ield         | OpenFOAM: The Open Source CFD Toolbox
   \\    /   O peration     | Website:  https://openfoam.org
    \\  /    A nd           | Version:  10
     \\/     M anipulation  |
\*---------------------------------------------------------------------------*/
FoamFile
{
    format      ascii;
    class       volVectorField;
    location    "1.1";
    object      Ub;
}
// * * * * * * * * * * * * * * * * * * * * * * * * * * * * * * * * * * * * * //

dimensions      [0 1 -1 0 0 0 0];

internalField   nonuniform List<vector> 
12225
(
(0.000883041 -0.000185241 0)
(0.00252383 -0.000166436 0)
(0.00389193 -0.000140946 0)
(0.0049784 -0.000116064 0)
(0.00582397 -9.54138e-05 0)
(0.00648537 -8.00553e-05 0)
(0.00701736 -6.98271e-05 0)
(0.00746647 -6.4227e-05 0)
(0.00787105 -6.28698e-05 0)
(0.00826375 -6.57286e-05 0)
(0.00867519 -7.33366e-05 0)
(0.00913871 -8.7123e-05 0)
(0.00969745 -0.000110166 0)
(0.010418 -0.000149109 0)
(0.0114223 -0.000219798 0)
(0.0129843 -0.000367798 0)
(0.0159228 -0.000769508 0)
(0.0239621 -0.00245209 0)
(0.00125498 -0.000647512 0)
(0.00358789 -0.000581378 0)
(0.00553834 -0.000492381 0)
(0.00709824 -0.000405977 0)
(0.00832723 -0.000334617 0)
(0.0093052 -0.000281796 0)
(0.0101078 -0.000246813 0)
(0.0107985 -0.000227835 0)
(0.011429 -0.000223471 0)
(0.0120428 -0.000233575 0)
(0.0126805 -0.000259917 0)
(0.0133856 -0.000307286 0)
(0.0142137 -0.000385938 0)
(0.0152483 -0.000517715 0)
(0.0166353 -0.000753283 0)
(0.0186676 -0.00122989 0)
(0.0219865 -0.002412 0)
(0.0274566 -0.00636854 0)
(0.0014997 -0.00127747 0)
(0.00427749 -0.00114384 0)
(0.00658078 -0.000966152 0)
(0.00840687 -0.000795153 0)
(0.0098344 -0.000654981 0)
(0.0109635 -0.000551913 0)
(0.0118864 -0.000484086 0)
(0.0126788 -0.000447575 0)
(0.0134012 -0.000439415 0)
(0.0141038 -0.000459102 0)
(0.0148319 -0.00050978 0)
(0.0156332 -0.000600185 0)
(0.016566 -0.000748884 0)
(0.0177133 -0.00099444 0)
(0.0192062 -0.00142206 0)
(0.0212586 -0.00224135 0)
(0.0241353 -0.00403587 0)
(0.0273327 -0.0085419 0)
(0.00172308 -0.00206411 0)
(0.00489852 -0.00183936 0)
(0.00750057 -0.00154518 0)
(0.00953672 -0.00126532 0)
(0.0111088 -0.00103809 0)
(0.012339 -0.000872313 0)
(0.0133361 -0.000763899 0)
(0.0141872 -0.000705773 0)
(0.0149602 -0.000692625 0)
(0.0157097 -0.000723111 0)
(0.016484 -0.000801501 0)
(0.017331 -0.000940306 0)
(0.0183064 -0.00116585 0)
(0.0194818 -0.0015309 0)
(0.0209522 -0.00214438 0)
(0.0228223 -0.00324356 0)
(0.0250581 -0.00535878 0)
(0.0268005 -0.00953188 0)
(0.00195151 -0.00302303 0)
(0.00552463 -0.00267638 0)
(0.00840798 -0.00223128 0)
(0.0106263 -0.00181396 0)
(0.0123115 -0.00147911 0)
(0.0136121 -0.00123709 0)
(0.0146547 -0.00107986 0)
(0.0155376 -0.000995735 0)
(0.016335 -0.000975967 0)
(0.0171049 -0.00101762 0)
(0.017896 -0.00112545 0)
(0.0187541 -0.00131487 0)
(0.0197272 -0.00161795 0)
(0.0208679 -0.00209611 0)
(0.022227 -0.00286594 0)
(0.0238096 -0.00414785 0)
(0.0254187 -0.0063282 0)
(0.0262726 -0.00986576 0)
(0.00220099 -0.00418234 0)
(0.00619769 -0.00367179 0)
(0.00936011 -0.00303117 0)
(0.0117408 -0.00244132 0)
(0.0135128 -0.0019749 0)
(0.0148566 -0.00164157 0)
(0.0159191 -0.00142669 0)
(0.0168098 -0.00131182 0)
(0.0176088 -0.00128333 0)
(0.0183756 -0.0013356 0)
(0.0191577 -0.0014728 0)
(0.0199961 -0.00171165 0)
(0.0209279 -0.00208681 0)
(0.0219834 -0.0026611 0)
(0.023171 -0.00354266 0)
(0.024427 -0.00490517 0)
(0.0255027 -0.00697614 0)
(0.025819 -0.00985218 0)
(0.00248698 -0.00558303 0)
(0.00695563 -0.00484924 0)
(0.0104034 -0.00395364 0)
(0.0129276 -0.00314729 0)
(0.0147582 -0.00252107 0)
(0.016116 -0.00207968 0)
(0.0171713 -0.00179774 0)
(0.0180452 -0.00164715 0)
(0.0188222 -0.00160741 0)
(0.0195625 -0.00166875 0)
(0.0203105 -0.00183329 0)
(0.0211002 -0.00211691 0)
(0.021956 -0.00255296 0)
(0.022887 -0.00319848 0)
(0.0238684 -0.00414099 0)
(0.0248018 -0.00549594 0)
(0.0254544 -0.00736084 0)
(0.0254442 -0.00965452 0)
(0.0028286 -0.00728315 0)
(0.00784277 -0.00623966 0)
(0.0115869 -0.00500789 0)
(0.0142313 -0.00392923 0)
(0.0160856 -0.00310996 0)
(0.0174226 -0.0025422 0)
(0.0184394 -0.00218361 0)
(0.0192689 -0.0019924 0)
(0.0199988 -0.00193865 0)
(0.020688 -0.0020066 0)
(0.0213765 -0.00219451 0)
(0.0220901 -0.00251498 0)
(0.0228406 -0.00299623 0)
(0.0236192 -0.0036837 0)
(0.024381 -0.00463816 0)
(0.0250202 -0.00592012 0)
(0.02535 -0.00753995 0)
(0.0251391 -0.00935491 0)
(0.00325271 -0.00936559 0)
(0.00891835 -0.00788222 0)
(0.0129708 -0.00620127 0)
(0.0157006 -0.00477909 0)
(0.017532 -0.00372821 0)
(0.0188044 -0.00301493 0)
(0.0197452 -0.00257075 0)
(0.0204983 -0.00233474 0)
(0.0211531 -0.00226443 0)
(0.0217654 -0.00233591 0)
(0.022369 -0.00254164 0)
(0.0229813 -0.00288855 0)
(0.023603 -0.00339658 0)
(0.0242127 -0.00409621 0)
(0.0247573 -0.005021 0)
(0.025141 -0.00618834 0)
(0.0252292 -0.00756054 0)
(0.0248929 -0.0089931 0)
(0.00380022 -0.0119518 0)
(0.0102683 -0.00982529 0)
(0.0146348 -0.00753504 0)
(0.0173942 -0.005679 0)
(0.0191373 -0.00435335 0)
(0.0202877 -0.00347635 0)
(0.0211065 -0.00293986 0)
(0.0217461 -0.00265677 0)
(0.0222948 -0.00256835 0)
(0.0228029 -0.00264033 0)
(0.023297 -0.00285748 0)
(0.0237859 -0.00321911 0)
(0.0242614 -0.00373496 0)
(0.0246953 -0.00441981 0)
(0.0250353 -0.00528378 0)
(0.025204 -0.00631541 0)
(0.0251125 -0.00745732 0)
(0.0246958 -0.00858745 0)
(0.00453744 -0.0152261 0)
(0.0120244 -0.0121255 0)
(0.0166898 -0.00899598 0)
(0.0193852 -0.00659373 0)
(0.0209451 -0.00494883 0)
(0.0218982 -0.00389452 0)
(0.022538 -0.00326401 0)
(0.0230209 -0.00293537 0)
(0.0234294 -0.00282965 0)
(0.0238053 -0.00290017 0)
(0.0241664 -0.00312262 0)
(0.0245134 -0.00348755 0)
(0.0248315 -0.00399398 0)
(0.0250904 -0.00464247 0)
(0.0252439 -0.0054257 0)
(0.0252349 -0.00631619 0)
(0.0250091 -0.0072542 0)
(0.024539 -0.0081456 0)
(0.00553327 -0.0190781 0)
(0.0143034 -0.0146035 0)
(0.0192026 -0.0104177 0)
(0.0216955 -0.0073978 0)
(0.0229559 -0.00542538 0)
(0.0236297 -0.00420497 0)
(0.0240347 -0.00349401 0)
(0.0243223 -0.00313007 0)
(0.0245628 -0.00301259 0)
(0.0247864 -0.00308225 0)
(0.0250011 -0.00330583 0)
(0.0251999 -0.00366572 0)
(0.0253639 -0.00415177 0)
(0.025463 -0.00475386 0)
(0.0254588 -0.00545396 0)
(0.0253099 -0.00621827 0)
(0.0249843 -0.00699257 0)
(0.0244731 -0.00770652 0)
(0.00684237 -0.0241278 0)
(0.0171436 -0.0174371 0)
(0.0220833 -0.0118003 0)
(0.024152 -0.00805027 0)
(0.0249614 -0.00574273 0)
(0.0252649 -0.00437644 0)
(0.0253817 -0.0036071 0)
(0.0254419 -0.00322471 0)
(0.0254949 -0.00310586 0)
(0.0255547 -0.003179 0)
(0.0256177 -0.00340277 0)
(0.0256695 -0.00375251 0)
(0.025688 -0.00421088 0)
(0.0256452 -0.00476055 0)
(0.0255101 -0.00537803 0)
(0.0252544 -0.00602911 0)
(0.0248605 -0.00666816 0)
(0.0243291 -0.00724369 0)
(0.00914584 -0.032103 0)
(0.0218253 -0.0210351 0)
(0.0263698 -0.0131235 0)
(0.0275205 -0.00845127 0)
(0.0275483 -0.00580921 0)
(0.0272786 -0.00433913 0)
(0.0269806 -0.00355279 0)
(0.02673 -0.00318338 0)
(0.0265374 -0.00308416 0)
(0.0263908 -0.00317267 0)
(0.0262705 -0.00340088 0)
(0.026153 -0.00373855 0)
(0.0260127 -0.00416308 0)
(0.0258235 -0.00465274 0)
(0.0255609 -0.00518226 0)
(0.0252064 -0.00572072 0)
(0.0247516 -0.00623274 0)
(0.0242015 -0.00668307 0)
(0.0137808 -0.0461104 0)
(0.0303912 -0.0249804 0)
(0.033058 -0.0136243 0)
(0.032205 -0.00805044 0)
(0.0308718 -0.00526752 0)
(0.0297259 -0.00385689 0)
(0.0288452 -0.00316648 0)
(0.0281838 -0.00288401 0)
(0.0276815 -0.00285125 0)
(0.027286 -0.00298309 0)
(0.0269543 -0.00323042 0)
(0.0266503 -0.00356164 0)
(0.0263431 -0.00395263 0)
(0.0260066 -0.00438122 0)
(0.0256206 -0.00482425 0)
(0.0251722 -0.00525701 0)
(0.0246575 -0.00565472 0)
(0.0240823 -0.00599548 0)
(0.0251075 -0.0753 0)
(0.0485957 -0.0255952 0)
(0.0438997 -0.0108654 0)
(0.0386363 -0.00559 0)
(0.0350072 -0.00344252 0)
(0.0325964 -0.00253302 0)
(0.0309532 -0.00219232 0)
(0.0297885 -0.00214716 0)
(0.028925 -0.00227122 0)
(0.0282492 -0.00249967 0)
(0.0276846 -0.00279577 0)
(0.0271778 -0.0031355 0)
(0.02669 -0.00350005 0)
(0.0261939 -0.00387241 0)
(0.0256717 -0.00423602 0)
(0.0251145 -0.00457494 0)
(0.0245213 -0.00487489 0)
(0.0238978 -0.00512478 0)
(0.0623037 0.00161097 0)
(0.0978877 0.00289502 0)
(0.0614577 0.00205861 0)
(0.0472452 0.00132028 0)
(0.0402634 0.000729089 0)
(0.0362468 0.000219865 0)
(0.0336708 -0.000245853 0)
(0.0318798 -0.000687841 0)
(0.0305379 -0.00109877 0)
(0.0294525 -0.00149218 0)
(0.0285201 -0.00187947 0)
(0.0276823 -0.00225665 0)
(0.0269013 -0.0026184 0)
(0.0261529 -0.00295864 0)
(0.0254227 -0.00327084 0)
(0.0247037 -0.00354874 0)
(0.0239943 -0.00378719 0)
(0.0232967 -0.0039829 0)
(0.0206238 0.0740781 0)
(0.0414233 0.0298088 0)
(0.0395489 0.0149483 0)
(0.0357549 0.00858848 0)
(0.0327446 0.00530698 0)
(0.0305601 0.00335266 0)
(0.0289528 0.0020499 0)
(0.0277205 0.00110038 0)
(0.0267378 0.000375681 0)
(0.0259302 -0.000211006 0)
(0.0252363 -0.000704396 0)
(0.0246022 -0.00111921 0)
(0.0239971 -0.00148677 0)
(0.0234104 -0.00181209 0)
(0.0228364 -0.00209756 0)
(0.022273 -0.00234436 0)
(0.0217205 -0.00255338 0)
(0.0211808 -0.00272584 0)
(0.00796284 0.0379295 0)
(0.0190595 0.0248011 0)
(0.0231583 0.0160206 0)
(0.0242697 0.0106366 0)
(0.0242785 0.00725826 0)
(0.0239161 0.00503302 0)
(0.0234487 0.00348819 0)
(0.0229667 0.00236155 0)
(0.022497 0.0015041 0)
(0.0220433 0.00082705 0)
(0.0216061 0.000285005 0)
(0.0211904 -0.000148937 0)
(0.0207947 -0.00051243 0)
(0.0204078 -0.000813422 0)
(0.020024 -0.00107046 0)
(0.0196438 -0.00128881 0)
(0.0192683 -0.00147256 0)
(0.0188994 -0.00162512 0)
(0.00436992 0.0216835 0)
(0.0113796 0.0170911 0)
(0.0154494 0.0127989 0)
(0.0176145 0.0094582 0)
(0.0187075 0.00698947 0)
(0.0192187 0.00517598 0)
(0.0194119 0.00382673 0)
(0.0194254 0.00280247 0)
(0.0193326 0.00200762 0)
(0.0191735 0.00137774 0)
(0.0189707 0.000869576 0)
(0.0187382 0.000453407 0)
(0.0184866 0.00011205 0)
(0.018228 -0.000164514 0)
(0.0179665 -0.000390539 0)
(0.0176998 -0.000579506 0)
(0.0174304 -0.000738057 0)
(0.0171612 -0.000870222 0)
(0.00292037 0.0142989 0)
(0.00792999 0.0121146 0)
(0.0113911 0.00973037 0)
(0.01363 0.00762495 0)
(0.0150343 0.00591211 0)
(0.0158974 0.00456119 0)
(0.0164128 0.00350337 0)
(0.0167017 0.00267134 0)
(0.0168395 0.00201041 0)
(0.0168737 0.00147917 0)
(0.0168349 0.00104722 0)
(0.0167438 0.000692437 0)
(0.0166148 0.00039877 0)
(0.0164583 0.000154186 0)
(0.0162859 -4.38533e-05 0)
(0.0161053 -0.000206146 0)
(0.0159177 -0.000340042 0)
(0.0157248 -0.000452101 0)
(0.00215656 0.00982434 0)
(0.00599676 0.00865196 0)
(0.00890446 0.00724589 0)
(0.0109866 0.00589887 0)
(0.0124349 0.00472844 0)
(0.0134256 0.00375659 0)
(0.0140931 0.00296523 0)
(0.0145324 0.00232445 0)
(0.0148093 0.0018047 0)
(0.0149687 0.00138082 0)
(0.0150421 0.00103279 0)
(0.0150518 0.000745146 0)
(0.0150139 0.000506069 0)
(0.0149405 0.000306521 0)
(0.0148408 0.000139598 0)
(0.0147235 2.33486e-06 0)
(0.0145961 -0.000109577 0)
(0.0144614 -0.000201242 0)
(0.00169521 0.00686655 0)
(0.00478313 0.00618952 0)
(0.00725238 0.00532393 0)
(0.00913237 0.00444738 0)
(0.0105235 0.00364969 0)
(0.0115353 0.00296215 0)
(0.0122615 0.00238558 0)
(0.012775 0.00190802 0)
(0.0131299 0.00151396 0)
(0.0133661 0.00118851 0)
(0.0135126 0.000918833 0)
(0.0135911 0.000694487 0)
(0.0136177 0.000507145 0)
(0.0136047 0.000350247 0)
(0.0135617 0.000218624 0)
(0.0134959 0.000108176 0)
(0.013414 1.64354e-05 0)
(0.0133222 -5.80838e-05 0)
(0.00138704 0.00480256 0)
(0.00395108 0.00439496 0)
(0.00607469 0.00384869 0)
(0.00775746 0.00327328 0)
(0.00905432 0.00273196 0)
(0.0100361 0.00225246 0)
(0.0107697 0.00184141 0)
(0.011311 0.00149498 0)
(0.0117044 0.00120524 0)
(0.0119838 0.000963466 0)
(0.0121753 0.000761579 0)
(0.0122988 0.000592658 0)
(0.0123696 0.000451 0)
(0.0123994 0.000331985 0)
(0.0123976 0.000231893 0)
(0.0123713 0.000147718 0)
(0.0123266 7.70126e-05 0)
(0.012268 1.79176e-05 0)
(0.00116365 0.00331211 0)
(0.00333642 0.00306241 0)
(0.00517931 0.00271526 0)
(0.00668015 0.00233888 0)
(0.00786979 0.00197614 0)
(0.00879582 0.00164831 0)
(0.00950725 0.00136263 0)
(0.0100476 0.00111868 0)
(0.0104531 0.000912536 0)
(0.0107526 0.000739134 0)
(0.0109689 0.000593457 0)
(0.0111198 0.000471019 0)
(0.0112193 0.000368006 0)
(0.0112784 0.000281263 0)
(0.0113058 0.0002082 0)
(0.0113084 0.000146697 0)
(0.0112918 9.49981e-05 0)
(0.0112604 5.16239e-05 0)
(0.000989241 0.00221361 0)
(0.00284949 0.00206152 0)
(0.00445389 0.00184373 0)
(0.005786 0.00160248 0)
(0.00686328 0.00136581 0)
(0.00771884 0.00114875 0)
(0.00838946 0.000957301 0)
(0.00890952 0.000792225 0)
(0.00930863 0.000651661 0)
(0.00961122 0.000532731 0)
(0.00983701 0.000432387 0)
(0.0100017 0.0003478 0)
(0.0101179 0.000276503 0)
(0.0101956 0.000216419 0)
(0.0102428 0.000165817 0)
(0.0102657 0.000123268 0)
(0.0102697 8.75795e-05 0)
(0.0102588 5.77421e-05 0)
(0.000842203 0.00139681 0)
(0.00243406 0.00130729 0)
(0.0038235 0.00117598 0)
(0.00499317 0.00102818 0)
(0.00595287 0.00088131 0)
(0.00672621 0.000745176 0)
(0.00734132 0.000624073 0)
(0.00782556 0.000518941 0)
(0.00820323 0.00042896 0)
(0.00849485 0.000352551 0)
(0.00871729 0.000287939 0)
(0.00888424 0.000233421 0)
(0.00900673 0.000187485 0)
(0.00909364 0.000148833 0)
(0.00915212 0.000116376 0)
(0.00918796 8.92073e-05 0)
(0.00920583 6.65788e-05 0)
(0.00920945 4.7872e-05 0)
(0.000705623 0.000792267 0)
(0.00204419 0.000743661 0)
(0.00322234 0.000671011 0)
(0.00422357 0.000588296 0)
(0.00505313 0.000505371 0)
(0.00572813 0.000427969 0)
(0.00627018 0.000358744 0)
(0.00670102 0.000298417 0)
(0.00704041 0.000246665 0)
(0.00730535 0.000202685 0)
(0.00751002 0.000165525 0)
(0.00766606 0.000134246 0)
(0.00778293 0.000108 0)
(0.00786834 8.60513e-05 0)
(0.00792852 6.77757e-05 0)
(0.00796854 5.26533e-05 0)
(0.00799252 4.02643e-05 0)
(0.00800377 3.02992e-05 0)
(0.000554694 0.000358459 0)
(0.00160897 0.000336544 0)
(0.00254052 0.000303405 0)
(0.00333485 0.000265436 0)
(0.00399454 0.000227204 0)
(0.00453179 0.000191419 0)
(0.00496288 0.000159376 0)
(0.00530462 0.000131468 0)
(0.00557254 0.000107585 0)
(0.00578022 8.73799e-05 0)
(0.00593911 7.04269e-05 0)
(0.00605869 5.6297e-05 0)
(0.00614673 4.45973e-05 0)
(0.00620959 3.49833e-05 0)
(0.00625244 2.71603e-05 0)
(0.00627947 2.08819e-05 0)
(0.00629414 1.59559e-05 0)
(0.00629928 1.22825e-05 0)
(0.000283508 9.03863e-05 0)
(0.00081761 8.46577e-05 0)
(0.00127754 7.59697e-05 0)
(0.00165339 6.6004e-05 0)
(0.00194632 5.59693e-05 0)
(0.00216388 4.65891e-05 0)
(0.00231639 3.82139e-05 0)
(0.00241466 3.09537e-05 0)
(0.00246878 2.4784e-05 0)
(0.0024876 1.96155e-05 0)
(0.00247864 1.53361e-05 0)
(0.00244813 1.1832e-05 0)
(0.0024012 8.99829e-06 0)
(0.00234202 6.7422e-06 0)
(0.002274 4.98374e-06 0)
(0.0021999 3.65572e-06 0)
(0.00212196 2.70686e-06 0)
(0.00204211 2.12629e-06 0)
(3.26006e-15 -6.92675e-15 -8.9489e-41)
(9.78444e-15 -6.86956e-15 8.86721e-41)
(1.62943e-14 -6.78309e-15 0)
(2.27724e-14 -6.69213e-15 0)
(2.92214e-14 -6.61157e-15 0)
(3.56527e-14 -6.54663e-15 -8.41935e-41)
(4.20805e-14 -6.49567e-15 0)
(4.8515e-14 -6.45371e-15 0)
(5.49634e-14 -6.41587e-15 0)
(6.14257e-14 -6.37728e-15 0)
(6.79001e-14 -6.33461e-15 8.10714e-41)
(7.4381e-14 -6.28566e-15 0)
(8.08615e-14 -6.2292e-15 0)
(8.73329e-14 -6.16491e-15 0)
(9.37857e-14 -6.09257e-15 0)
(1.00212e-13 -6.01263e-15 7.65281e-41)
(1.06602e-13 -5.925e-15 0)
(1.12948e-13 -5.82935e-15 0)
(1.19238e-13 -5.7248e-15 0)
(1.25459e-13 -5.6101e-15 0)
(1.316e-13 -5.48379e-15 0)
(1.37643e-13 -5.34466e-15 0)
(1.43575e-13 -5.19281e-15 0)
(1.49378e-13 -5.02959e-15 6.32424e-41)
(1.5504e-13 -4.85831e-15 -6.09617e-41)
(1.60551e-13 -4.68308e-15 5.86321e-41)
(1.65905e-13 -4.50836e-15 5.63105e-41)
(1.71103e-13 -4.33686e-15 0)
(1.76143e-13 -4.16878e-15 0)
(1.81028e-13 -4.00163e-15 -4.95825e-41)
(1.85753e-13 -3.83162e-15 -4.73299e-41)
(1.90307e-13 -3.65653e-15 0)
(1.94684e-13 -3.4769e-15 0)
(1.9888e-13 -3.29573e-15 -4.02488e-41)
(2.02885e-13 -3.11651e-15 0)
(2.06708e-13 -2.94068e-15 0)
(2.1034e-13 -2.76801e-15 3.32924e-41)
(2.13782e-13 -2.59761e-15 0)
(2.17045e-13 -2.42959e-15 2.88394e-41)
(2.20116e-13 -2.26483e-15 5.33478e-41)
(2.23002e-13 -2.10411e-15 0)
(2.25707e-13 -1.94807e-15 0)
(2.28231e-13 -1.79708e-15 0)
(2.30579e-13 -1.65161e-15 0)
(2.32753e-13 -1.51204e-15 0)
(2.34764e-13 -1.37873e-15 3.00971e-41)
(2.36615e-13 -1.25204e-15 2.67781e-41)
(2.38313e-13 -1.13214e-15 2.36389e-41)
(2.39858e-13 -1.01922e-15 0)
(2.41269e-13 -9.13366e-16 -1.79141e-41)
(2.42546e-13 -8.14649e-16 0)
(2.43696e-13 -7.23051e-16 1.29368e-41)
(2.44731e-13 -6.3851e-16 1.0727e-41)
(2.45661e-13 -5.60905e-16 0)
(2.46489e-13 -4.90086e-16 0)
(2.47221e-13 -4.2579e-16 0)
(2.47871e-13 -3.67768e-16 3.65459e-42)
(2.48445e-13 -3.1571e-16 0)
(2.48948e-13 -2.69262e-16 0)
(2.49389e-13 -2.28057e-16 0)
(2.49774e-13 -1.91714e-16 0)
(2.50112e-13 -1.59845e-16 0)
(2.50406e-13 -1.32052e-16 0)
(2.50657e-13 -1.07952e-16 0)
(2.50877e-13 -8.71749e-17 0)
(2.5107e-13 -6.93686e-17 4.13442e-42)
(2.51237e-13 -5.41974e-17 0)
(2.51381e-13 -4.13505e-17 0)
(2.51509e-13 -3.05449e-17 -5.14828e-42)
(2.51622e-13 -2.15121e-17 -5.38458e-42)
(2.51721e-13 -1.40154e-17 0)
(2.51807e-13 -7.83251e-18 5.74252e-42)
(2.51887e-13 -2.7698e-18 -5.87529e-42)
(2.5196e-13 1.34594e-18 0)
(2.52026e-13 4.67308e-18 6.07095e-42)
(2.52088e-13 7.34462e-18 0)
(2.52149e-13 9.48169e-18 0)
(2.52201e-13 1.1191e-17 -6.24353e-42)
(2.52257e-13 1.25568e-17 0)
(2.52305e-13 1.36567e-17 6.30978e-42)
(2.52355e-13 1.45554e-17 0)
(2.52404e-13 1.53067e-17 -6.3548e-42)
(2.52453e-13 1.59501e-17 -6.37258e-42)
(2.52499e-13 1.65248e-17 -6.38848e-42)
(2.52546e-13 1.70571e-17 -1.28066e-41)
(2.5259e-13 1.75709e-17 1.28354e-41)
(2.52636e-13 1.80778e-17 0)
(2.52682e-13 1.85945e-17 0)
(2.52727e-13 1.91281e-17 0)
(2.52768e-13 1.96846e-17 1.2953e-41)
(2.5281e-13 2.02636e-17 1.2985e-41)
(2.52853e-13 2.08671e-17 -1.30182e-41)
(2.52895e-13 2.14964e-17 0)
(2.52935e-13 2.21474e-17 1.30881e-41)
(2.52975e-13 2.28191e-17 1.31248e-41)
(2.53009e-13 2.35064e-17 1.3162e-41)
(2.53048e-13 2.42048e-17 0)
(2.53082e-13 2.49121e-17 0)
(2.53119e-13 2.56244e-17 0)
(2.53152e-13 2.63351e-17 1.33151e-41)
(2.53183e-13 2.70466e-17 0)
(2.53214e-13 2.77496e-17 0)
(2.53245e-13 2.84434e-17 -1.34281e-41)
(2.53271e-13 2.91244e-17 0)
(2.53299e-13 2.97927e-17 0)
(2.53323e-13 3.04432e-17 -1.35355e-41)
(2.53351e-13 3.10734e-17 0)
(2.53372e-13 3.16858e-17 0)
(2.53396e-13 3.22753e-17 1.36336e-41)
(2.53415e-13 3.28437e-17 1.36639e-41)
(2.53436e-13 3.33892e-17 0)
(2.53455e-13 3.39093e-17 -1.3721e-41)
(2.53473e-13 3.44082e-17 0)
(2.53488e-13 3.48825e-17 1.37728e-41)
(2.53504e-13 3.53331e-17 0)
(2.53519e-13 3.576e-17 1.38196e-41)
(2.53532e-13 3.61649e-17 1.3841e-41)
(2.53545e-13 3.65452e-17 0)
(2.53559e-13 3.69044e-17 0)
(2.53568e-13 3.72449e-17 0)
(2.5358e-13 3.75625e-17 0)
(2.53591e-13 3.78607e-17 0)
(2.53599e-13 3.81419e-17 0)
(2.53606e-13 3.84019e-17 0)
(2.53615e-13 3.8645e-17 1.39733e-41)
(2.53622e-13 3.88754e-17 -1.39854e-41)
(2.5363e-13 3.90863e-17 0)
(2.53634e-13 3.92845e-17 0)
(2.53639e-13 3.94683e-17 0)
(2.53646e-13 3.96386e-17 0)
(2.53653e-13 3.97978e-17 -2.80691e-41)
(2.53656e-13 3.99444e-17 0)
(2.53662e-13 4.00816e-17 2.80994e-41)
(2.53665e-13 4.02095e-17 -2.81128e-41)
(2.53669e-13 4.03272e-17 0)
(2.53672e-13 4.04374e-17 0)
(2.53674e-13 4.05398e-17 0)
(2.53679e-13 4.06339e-17 2.81584e-41)
(2.53681e-13 4.07237e-17 2.81679e-41)
(2.53682e-13 4.08117e-17 0)
(2.53688e-13 4.08914e-17 2.81852e-41)
(2.53686e-13 4.09701e-17 2.81934e-41)
(2.53688e-13 4.10447e-17 -2.82017e-41)
(2.53689e-13 4.11218e-17 0)
(2.53689e-13 4.1198e-17 0)
(2.53693e-13 4.12751e-17 -2.82257e-41)
(2.53693e-13 4.13581e-17 0)
(2.53693e-13 4.14479e-17 0)
(2.53691e-13 4.15444e-17 0)
(2.53691e-13 4.16571e-17 0)
(2.53691e-13 4.17841e-17 2.82782e-41)
(2.53691e-13 4.19307e-17 2.82934e-41)
(2.53688e-13 4.21077e-17 0)
(2.53686e-13 4.23203e-17 2.8333e-41)
(2.53682e-13 4.25778e-17 0)
(2.53679e-13 4.28921e-17 0)
(2.53674e-13 4.32817e-17 2.84311e-41)
(2.53665e-13 4.37645e-17 0)
(2.53656e-13 4.43667e-17 2.8542e-41)
(2.53643e-13 4.51206e-17 0)
(2.53627e-13 4.60684e-17 0)
(2.53608e-13 4.72627e-17 2.8837e-41)
(2.53584e-13 4.87747e-17 0)
(2.53551e-13 5.07034e-17 2.91869e-41)
(2.53512e-13 5.31556e-17 0)
(2.53462e-13 5.6298e-17 0)
(2.53395e-13 6.03443e-17 0)
(2.53311e-13 6.55832e-17 -3.0703e-41)
(2.53195e-13 7.24112e-17 0)
(2.53053e-13 8.13787e-17 3.23118e-41)
(2.52867e-13 9.32795e-17 0)
(2.52621e-13 1.0928e-16 0)
(2.52291e-13 1.31165e-16 0)
(2.51849e-13 1.6179e-16 0)
(2.5124e-13 2.06026e-16 0)
(2.50393e-13 2.72926e-16 0)
(2.4915e-13 3.81388e-16 0)
(2.47229e-13 5.78286e-16 -1.66282e-40)
(2.43888e-13 1.01395e-15 0)
(2.36484e-13 2.37996e-15 0)
(3.37515e-15 -2.11094e-14 2.72711e-40)
(1.00758e-14 -2.08215e-14 -2.68754e-40)
(1.66546e-14 -2.04489e-14 0)
(2.31177e-14 -2.01111e-14 5.18766e-40)
(2.951e-14 -1.98494e-14 0)
(3.58784e-14 -1.96631e-14 -2.53715e-40)
(4.22576e-14 -1.95306e-14 -5.02856e-40)
(4.86646e-14 -1.94275e-14 -4.99891e-40)
(5.51039e-14 -1.93325e-14 0)
(6.15744e-14 -1.92303e-14 -4.94182e-40)
(6.80679e-14 -1.91104e-14 2.46191e-40)
(7.45749e-14 -1.89675e-14 0)
(8.10836e-14 -1.87993e-14 0)
(8.75836e-14 -1.86051e-14 0)
(9.40658e-14 -1.8387e-14 0)
(1.00518e-13 -1.81462e-14 2.3335e-40)
(1.06934e-13 -1.78838e-14 0)
(1.1331e-13 -1.75992e-14 4.49581e-40)
(1.19628e-13 -1.72896e-14 0)
(1.25888e-13 -1.69494e-14 0)
(1.3207e-13 -1.65731e-14 -4.22169e-40)
(1.38156e-13 -1.61552e-14 0)
(1.44126e-13 -1.56937e-14 3.98868e-40)
(1.49961e-13 -1.51938e-14 1.94605e-40)
(1.55639e-13 -1.46663e-14 -1.87719e-40)
(1.61151e-13 -1.41275e-14 1.80693e-40)
(1.66493e-13 -1.3595e-14 1.73746e-40)
(1.71674e-13 -1.30801e-14 0)
(1.76703e-13 -1.25836e-14 0)
(1.81587e-13 -1.20926e-14 -1.54149e-40)
(1.86318e-13 -1.15891e-14 -4.38363e-40)
(1.90886e-13 -1.10617e-14 0)
(1.95272e-13 -1.05145e-14 0)
(1.99459e-13 -9.9623e-15 -1.26404e-40)
(2.03454e-13 -9.42036e-15 0)
(2.07258e-13 -8.89409e-15 0)
(2.1088e-13 -8.37828e-15 1.05798e-40)
(2.14311e-13 -7.86724e-15 0)
(2.1756e-13 -7.3613e-15 2.72582e-40)
(2.20613e-13 -6.86501e-15 1.7225e-40)
(2.23484e-13 -6.38194e-15 0)
(2.2617e-13 -5.91324e-15 0)
(2.28675e-13 -5.45958e-15 -2.60656e-40)
(2.31004e-13 -5.02243e-15 -2.37837e-40)
(2.33159e-13 -4.60325e-15 -2.15963e-40)
(2.35145e-13 -4.20313e-15 2.98187e-40)
(2.36972e-13 -3.8229e-15 9.32235e-41)
(2.38648e-13 -3.46324e-15 -7.26195e-41)
(2.40172e-13 -3.12462e-15 1.38857e-40)
(2.41557e-13 -2.8073e-15 -6.6864e-41)
(2.42813e-13 -2.51151e-15 0)
(2.43945e-13 -2.2372e-15 5.20705e-41)
(2.44959e-13 -1.98413e-15 1.2495e-40)
(2.45864e-13 -1.752e-15 0)
(2.46671e-13 -1.54024e-15 0)
(2.47389e-13 -1.34816e-15 0)
(2.48017e-13 -1.17493e-15 2.45157e-41)
(2.48575e-13 -1.01961e-15 0)
(2.49063e-13 -8.81151e-16 2.20333e-41)
(2.49491e-13 -7.5842e-16 0)
(2.49864e-13 -6.5025e-16 1.00207e-41)
(2.50187e-13 -5.55467e-16 0)
(2.5047e-13 -4.72871e-16 -7.93223e-43)
(2.50713e-13 -4.01307e-16 0)
(2.50926e-13 -3.39659e-16 -6.13686e-42)
(2.51112e-13 -2.86866e-16 7.39693e-42)
(2.51273e-13 -2.41924e-16 0)
(2.51413e-13 -2.03899e-16 1.32013e-41)
(2.51533e-13 -1.71934e-16 -1.49405e-42)
(2.51641e-13 -1.45247e-16 -2.18657e-42)
(2.51734e-13 -1.2311e-16 0)
(2.51821e-13 -1.04881e-16 2.15932e-41)
(2.51897e-13 -8.99735e-17 -3.62137e-42)
(2.51967e-13 -7.78644e-17 0)
(2.52035e-13 -6.8093e-17 4.19021e-42)
(2.52095e-13 -6.02528e-17 2.0692e-41)
(2.52152e-13 -5.39899e-17 0)
(2.52205e-13 -4.89822e-17 -4.68811e-42)
(2.52257e-13 -4.4991e-17 0)
(2.52307e-13 -4.1774e-17 -1.67904e-41)
(2.52357e-13 -3.91499e-17 0)
(2.52406e-13 -3.6956e-17 1.69221e-41)
(2.52453e-13 -3.50672e-17 -5.05376e-42)
(2.52498e-13 -3.33765e-17 -2.72183e-41)
(2.52548e-13 -3.18078e-17 -5.46916e-41)
(2.52593e-13 -3.02899e-17 5.49379e-41)
(2.52636e-13 -2.87703e-17 0)
(2.52682e-13 -2.72304e-17 0)
(2.52727e-13 -2.56397e-17 0)
(2.5277e-13 -2.39761e-17 -3.45672e-41)
(2.52812e-13 -2.22295e-17 1.07882e-41)
(2.52857e-13 -2.0422e-17 -1.08836e-41)
(2.52897e-13 -1.85314e-17 0)
(2.52938e-13 -1.65764e-17 5.71457e-41)
(2.52973e-13 -1.45554e-17 1.11925e-41)
(2.53011e-13 -1.24937e-17 1.1301e-41)
(2.53048e-13 -1.03948e-17 0)
(2.53086e-13 -8.27043e-18 0)
(2.53119e-13 -6.12913e-18 0)
(2.53153e-13 -3.98953e-18 1.17474e-41)
(2.53181e-13 -1.85839e-18 0)
(2.53216e-13 2.55804e-19 4.78522e-41)
(2.53247e-13 2.33781e-18 3.59946e-41)
(2.53273e-13 4.38594e-18 -4.82905e-41)
(2.53299e-13 6.38663e-18 0)
(2.53329e-13 8.33989e-18 -6.11019e-41)
(2.53351e-13 1.02389e-17 0)
(2.53372e-13 1.20736e-17 -4.91043e-41)
(2.53396e-13 1.38456e-17 6.19721e-41)
(2.53417e-13 1.55481e-17 6.22415e-41)
(2.53436e-13 1.71829e-17 0)
(2.53457e-13 1.87482e-17 3.68725e-41)
(2.53474e-13 2.02373e-17 -4.99668e-41)
(2.53488e-13 2.16637e-17 1.30893e-41)
(2.53507e-13 2.30088e-17 0)
(2.53519e-13 2.42929e-17 1.32269e-41)
(2.53532e-13 2.55076e-17 -3.7233e-41)
(2.53544e-13 2.66494e-17 0)
(2.53558e-13 2.77251e-17 -5.07575e-41)
(2.53568e-13 2.87449e-17 -5.08647e-41)
(2.5358e-13 2.9697e-17 -5.09652e-41)
(2.53592e-13 3.05897e-17 0)
(2.53601e-13 3.14283e-17 0)
(2.5361e-13 3.22093e-17 0)
(2.53615e-13 3.29428e-17 6.49863e-41)
(2.53624e-13 3.36306e-17 -1.37142e-41)
(2.53629e-13 3.42693e-17 0)
(2.53634e-13 3.48571e-17 5.15096e-41)
(2.53641e-13 3.54077e-17 5.15671e-41)
(2.53646e-13 3.5921e-17 0)
(2.53651e-13 3.63987e-17 -2.77175e-41)
(2.53658e-13 3.68392e-17 1.03437e-40)
(2.53663e-13 3.72474e-17 2.78063e-41)
(2.53667e-13 3.76235e-17 -1.31448e-40)
(2.53672e-13 3.79742e-17 0)
(2.5367e-13 3.8313e-17 0)
(2.53674e-13 3.86196e-17 0)
(2.53677e-13 3.89008e-17 2.7979e-41)
(2.53679e-13 3.91736e-17 1.31935e-40)
(2.53682e-13 3.94311e-17 1.03982e-40)
(2.53684e-13 3.96733e-17 2.80593e-41)
(2.53688e-13 3.99071e-17 1.32166e-40)
(2.53691e-13 4.01307e-17 -2.81074e-41)
(2.53688e-13 4.03628e-17 0)
(2.53689e-13 4.05915e-17 0)
(2.53691e-13 4.08253e-17 -1.32452e-40)
(2.53691e-13 4.10743e-17 0)
(2.53689e-13 4.13403e-17 0)
(2.53691e-13 4.16266e-17 1.0444e-40)
(2.53691e-13 4.1962e-17 0)
(2.53693e-13 4.23432e-17 1.32924e-40)
(2.53691e-13 4.27836e-17 2.83815e-41)
(2.53688e-13 4.33071e-17 0)
(2.53686e-13 4.39407e-17 1.33418e-40)
(2.53679e-13 4.47132e-17 0)
(2.53679e-13 4.56483e-17 0)
(2.53669e-13 4.68206e-17 2.87969e-41)
(2.53663e-13 4.82589e-17 1.058e-40)
(2.53655e-13 5.00512e-17 2.91298e-41)
(2.53646e-13 5.22975e-17 0)
(2.53629e-13 5.513e-17 0)
(2.53611e-13 5.86994e-17 1.37959e-40)
(2.53587e-13 6.32208e-17 0)
(2.53554e-13 6.89586e-17 1.41114e-40)
(2.53512e-13 7.62855e-17 0)
(2.53462e-13 8.56638e-17 0)
(2.53396e-13 9.77357e-17 0)
(2.53313e-13 1.13358e-16 -3.56431e-41)
(2.53204e-13 1.33709e-16 0)
(2.53067e-13 1.60431e-16 4.04872e-41)
(2.52881e-13 1.95875e-16 0)
(2.52635e-13 2.43497e-16 0)
(2.52317e-13 3.08525e-16 1.59114e-40)
(2.51882e-13 3.99359e-16 -1.77734e-40)
(2.51294e-13 5.30171e-16 0)
(2.50473e-13 7.26924e-16 0)
(2.4929e-13 1.04267e-15 0)
(2.47519e-13 1.60286e-15 4.71711e-40)
(2.44698e-13 2.77146e-15 0)
(2.40251e-13 5.91942e-15 -2.62971e-39)
(3.85152e-15 -3.65853e-14 1.89095e-39)
(1.11347e-14 -7.17965e-14 -2.66746e-43)
(1.75694e-14 -8.63804e-13 0)
(2.21363e-14 -8.478e-12 9.79644e-43)
(2.03301e-14 -4.43147e-11 0)
(7.71692e-15 -1.28238e-10 0)
(-1.74758e-14 -2.67221e-10 -1.3815e-35)
(-5.17967e-14 -4.4471e-10 -1.14955e-35)
(-8.57097e-14 -6.17866e-10 1.59714e-35)
(-1.0654e-13 -7.31637e-10 -1.89123e-35)
(-1.04607e-13 -7.45519e-10 0)
(-7.84581e-14 -6.55768e-10 0)
(-3.57379e-14 -4.97163e-10 -1.28513e-35)
(1.12484e-14 -3.23125e-10 -1.67051e-35)
(5.18188e-14 -1.78543e-10 9.23043e-36)
(8.10541e-14 -8.30586e-11 0)
(9.97327e-14 -3.22774e-11 1.66868e-36)
(1.11447e-13 -1.04904e-11 2.71165e-37)
(1.19685e-13 -2.92101e-12 0)
(1.26556e-13 -7.4842e-13 3.86743e-38)
(1.32962e-13 -2.04734e-13 -5.28596e-39)
(1.39181e-13 -7.37617e-14 -3.79366e-39)
(1.45255e-13 -3.95411e-14 1.01526e-39)
(1.51166e-13 -2.91245e-14 0)
(1.56883e-13 -2.53902e-14 1.29042e-39)
(1.62388e-13 -2.37074e-14 1.20263e-39)
(1.67688e-13 -2.26389e-14 0)
(1.72811e-13 -2.17621e-14 1.10059e-39)
(1.77795e-13 -2.0972e-14 0)
(1.82679e-13 -2.02093e-14 1.01892e-39)
(1.8745e-13 -1.94036e-14 -4.92719e-40)
(1.92067e-13 -1.85125e-14 0)
(1.96471e-13 -1.75553e-14 0)
(2.00643e-13 -1.65919e-14 0)
(2.04593e-13 -1.56746e-14 0)
(2.08358e-13 -1.48114e-14 0)
(2.11952e-13 -1.39685e-14 0)
(2.15373e-13 -1.3116e-14 6.47565e-40)
(2.18596e-13 -1.22612e-14 -2.96299e-40)
(2.21621e-13 -1.1426e-14 0)
(2.24454e-13 -1.06189e-14 0)
(2.27101e-13 -9.83621e-15 0)
(2.29565e-13 -9.07754e-15 -8.84399e-40)
(2.31849e-13 -8.34678e-15 -4.09622e-40)
(2.33964e-13 -7.64666e-15 -1.10484e-41)
(2.35909e-13 -6.97879e-15 1.114e-41)
(2.3769e-13 -6.3447e-15 -2.94341e-40)
(2.39319e-13 -5.7454e-15 -2.74432e-40)
(2.40797e-13 -5.18159e-15 4.78911e-40)
(2.42138e-13 -4.65367e-15 2.06285e-40)
(2.43347e-13 -4.16187e-15 0)
(2.44433e-13 -3.70626e-15 1.56981e-40)
(2.45404e-13 -3.28641e-15 2.81867e-40)
(2.46267e-13 -2.90175e-15 0)
(2.47037e-13 -2.55125e-15 0)
(2.47713e-13 -2.23381e-15 -8.03953e-41)
(2.4831e-13 -1.94792e-15 0)
(2.48836e-13 -1.69197e-15 0)
(2.49292e-13 -1.46415e-15 1.32913e-40)
(2.49689e-13 -1.26253e-15 5.98025e-41)
(2.5004e-13 -1.08514e-15 3.24877e-41)
(2.5034e-13 -9.29934e-16 0)
(2.506e-13 -7.94917e-16 -1.74301e-41)
(2.50825e-13 -6.78104e-16 0)
(2.51023e-13 -5.77632e-16 -5.23499e-42)
(2.51191e-13 -4.91716e-16 -1.69947e-42)
(2.51339e-13 -4.18699e-16 2.79142e-41)
(2.51467e-13 -3.57035e-16 3.96163e-41)
(2.51582e-13 -3.05294e-16 0)
(2.51675e-13 -2.62157e-16 -4.41964e-41)
(2.51769e-13 -2.26471e-16 0)
(2.51849e-13 -1.97142e-16 -3.73754e-41)
(2.5192e-13 -1.73206e-16 -5.34623e-41)
(2.51984e-13 -1.53821e-16 -5.54855e-41)
(2.52045e-13 -1.38219e-16 5.71166e-41)
(2.521e-13 -1.2573e-16 -4.11151e-41)
(2.52158e-13 -1.15779e-16 0)
(2.52211e-13 -1.07854e-16 0)
(2.5226e-13 -1.01539e-16 6.09687e-41)
(2.5231e-13 -9.64635e-17 4.26676e-41)
(2.52361e-13 -9.23198e-17 0)
(2.52406e-13 -8.88436e-17 1.92434e-41)
(2.52453e-13 -8.58349e-17 0)
(2.52503e-13 -8.3138e-17 4.33933e-41)
(2.52548e-13 -8.06037e-17 -1.02582e-40)
(2.52591e-13 -7.81168e-17 1.03115e-40)
(2.52638e-13 -7.56434e-17 -6.37542e-41)
(2.52685e-13 -7.31023e-17 0)
(2.52728e-13 -7.0463e-17 6.43157e-41)
(2.52772e-13 -6.77016e-17 -1.05355e-40)
(2.52819e-13 -6.47946e-17 0)
(2.52858e-13 -6.17724e-17 0)
(2.52898e-13 -5.86079e-17 0)
(2.5294e-13 -5.53417e-17 4.20514e-41)