/*--------------------------------*- C++ -*----------------------------------*\
  =========                 |
  \\      /  F ield         | OpenFOAM: The Open Source CFD Toolbox
   \\    /   O peration     | Website:  https://openfoam.org
    \\  /    A nd           | Version:  10
     \\/     M anipulation  |
\*---------------------------------------------------------------------------*/
FoamFile
{
    format      ascii;
    class       volVectorField;
    location    "22000";
    object      Ub;
}
// * * * * * * * * * * * * * * * * * * * * * * * * * * * * * * * * * * * * * //

dimensions      [0 1 -1 0 0 0 0];

internalField   nonuniform List<vector> 
6400
(
(-2.92312e-10 -9.88409e-16 0)
(-3.86139e-05 -1.01296e-06 0)
(-8.13496e-05 -1.51395e-06 0)
(-0.000100589 2.71692e-06 0)
(-0.00011509 -2.72058e-07 0)
(-0.000111244 -7.43967e-07 0)
(-0.000107169 -2.3244e-07 0)
(-0.000107229 1.38295e-07 0)
(-0.000107889 -8.64414e-08 0)
(-0.00010933 3.12915e-07 0)
(-0.000110676 -9.48733e-08 0)
(-0.000109618 -1.67869e-07 0)
(-0.00010687 -4.32349e-07 0)
(-0.000103832 -2.22155e-07 0)
(-0.000102129 -1.5714e-07 0)
(-0.000100183 -2.68533e-07 0)
(-9.82365e-05 -1.5464e-07 0)
(-9.73044e-05 -6.02393e-08 0)
(-9.71701e-05 9.32346e-09 0)
(-9.71025e-05 -4.51368e-08 0)
(-9.65914e-05 -7.9475e-08 0)
(-9.56706e-05 -1.27247e-07 0)
(-9.41019e-05 -2.10172e-07 0)
(-9.23216e-05 -1.69375e-07 0)
(-9.09422e-05 -1.27878e-07 0)
(-8.97316e-05 -1.34385e-07 0)
(-8.82699e-05 -1.78293e-07 0)
(-8.663e-05 -1.70062e-07 0)
(-8.50796e-05 -1.59629e-07 0)
(-8.33483e-05 -2.06377e-07 0)
(-8.06361e-05 -3.58629e-07 0)
(-7.57141e-05 -6.55227e-07 0)
(-7.03977e-05 -9.78508e-07 0)
(-6.56014e-05 -1.22796e-06 0)
(-5.95871e-05 -1.53546e-06 0)
(-5.21129e-05 -1.89557e-06 0)
(-4.30029e-05 -2.2835e-06 0)
(-3.2235e-05 -2.6538e-06 0)
(-2.00137e-05 -2.94814e-06 0)
(-6.79062e-06 -3.11193e-06 0)
(6.79062e-06 -3.11193e-06 0)
(2.00137e-05 -2.94814e-06 0)
(3.2235e-05 -2.6538e-06 0)
(4.30029e-05 -2.2835e-06 0)
(5.21129e-05 -1.89557e-06 0)
(5.95871e-05 -1.53546e-06 0)
(6.56014e-05 -1.22796e-06 0)
(7.03977e-05 -9.78508e-07 0)
(7.57141e-05 -6.55227e-07 0)
(8.06361e-05 -3.58629e-07 0)
(8.33483e-05 -2.06377e-07 0)
(8.50796e-05 -1.59629e-07 0)
(8.663e-05 -1.70062e-07 0)
(8.82699e-05 -1.78293e-07 0)
(8.97316e-05 -1.34385e-07 0)
(9.09422e-05 -1.27878e-07 0)
(9.23216e-05 -1.69375e-07 0)
(9.41019e-05 -2.10172e-07 0)
(9.56706e-05 -1.27247e-07 0)
(9.65914e-05 -7.9475e-08 0)
(9.71025e-05 -4.51368e-08 0)
(9.71701e-05 9.32346e-09 0)
(9.73044e-05 -6.02393e-08 0)
(9.82365e-05 -1.5464e-07 0)
(0.000100183 -2.68533e-07 0)
(0.000102129 -1.5714e-07 0)
(0.000103832 -2.22155e-07 0)
(0.00010687 -4.32349e-07 0)
(0.000109618 -1.67869e-07 0)
(0.000110676 -9.48733e-08 0)
(0.00010933 3.12915e-07 0)
(0.000107889 -8.64414e-08 0)
(0.000107229 1.38295e-07 0)
(0.000107169 -2.3244e-07 0)
(0.000111244 -7.43967e-07 0)
(0.00011509 -2.72058e-07 0)
(0.000100589 2.71692e-06 0)
(8.13496e-05 -1.51395e-06 0)
(3.86139e-05 -1.01296e-06 0)
(2.92312e-10 -9.88409e-16 0)
(-7.32816e-20 -9.8786e-16 0)
(-5.78437e-20 -9.87453e-16 0)
(-3.96401e-07 -1.2533e-15 0)
(-5.18744e-05 2.89333e-06 0)
(-0.00010554 -1.99068e-07 0)
(-0.000105723 -2.06117e-06 0)
(-0.000102904 -5.58482e-07 0)
(-0.00010369 5.51039e-07 0)
(-0.000104655 -2.18502e-07 0)
(-0.000106321 1.05751e-06 0)
(-0.000107894 -2.56589e-07 0)
(-0.000106963 -4.6371e-07 0)
(-0.000104323 -1.31352e-06 0)
(-0.000101369 -6.433e-07 0)
(-9.9842e-05 -4.45761e-07 0)
(-9.79866e-05 -8.10111e-07 0)
(-9.60886e-05 -4.50949e-07 0)
(-9.52292e-05 -1.62542e-07 0)
(-9.51675e-05 5.4318e-08 0)
(-9.51572e-05 -1.2133e-07 0)
(-9.46853e-05 -2.26565e-07 0)
(-9.38203e-05 -3.73542e-07 0)
(-9.22876e-05 -6.37144e-07 0)
(-9.05366e-05 -5.06712e-07 0)
(-8.92129e-05 -3.77536e-07 0)
(-8.80605e-05 -3.98755e-07 0)
(-8.66383e-05 -5.38714e-07 0)
(-8.50308e-05 -5.11588e-07 0)
(-8.35326e-05 -4.77163e-07 0)
(-8.18783e-05 -6.19178e-07 0)
(-7.92774e-05 -1.08631e-06 0)
(-7.45137e-05 -1.99919e-06 0)
(-6.93527e-05 -2.98948e-06 0)
(-6.46955e-05 -3.75555e-06 0)
(-5.88424e-05 -4.70336e-06 0)
(-5.15404e-05 -5.81764e-06 0)
(-4.25979e-05 -7.02241e-06 0)
(-3.19772e-05 -8.17594e-06 0)
(-1.98753e-05 -9.0948e-06 0)
(-6.74764e-06 -9.60678e-06 0)
(6.74764e-06 -9.60678e-06 0)
(1.98753e-05 -9.0948e-06 0)
(3.19772e-05 -8.17594e-06 0)
(4.25979e-05 -7.02241e-06 0)
(5.15404e-05 -5.81764e-06 0)
(5.88424e-05 -4.70336e-06 0)
(6.46955e-05 -3.75555e-06 0)
(6.93527e-05 -2.98948e-06 0)
(7.45137e-05 -1.99919e-06 0)
(7.92774e-05 -1.08631e-06 0)
(8.18783e-05 -6.19178e-07 0)
(8.35326e-05 -4.77163e-07 0)
(8.50308e-05 -5.11588e-07 0)
(8.66383e-05 -5.38714e-07 0)
(8.80605e-05 -3.98755e-07 0)
(8.92129e-05 -3.77536e-07 0)
(9.05366e-05 -5.06712e-07 0)
(9.22876e-05 -6.37144e-07 0)
(9.38203e-05 -3.73542e-07 0)
(9.46853e-05 -2.26565e-07 0)
(9.51572e-05 -1.2133e-07 0)
(9.51675e-05 5.4318e-08 0)
(9.52292e-05 -1.62542e-07 0)
(9.60886e-05 -4.50949e-07 0)
(9.79866e-05 -8.10111e-07 0)
(9.9842e-05 -4.45761e-07 0)
(0.000101369 -6.433e-07 0)
(0.000104323 -1.31352e-06 0)
(0.000106963 -4.6371e-07 0)
(0.000107894 -2.56589e-07 0)
(0.000106321 1.05751e-06 0)
(0.000104655 -2.18502e-07 0)
(0.00010369 5.51039e-07 0)
(0.000102904 -5.58482e-07 0)
(0.000105723 -2.06117e-06 0)
(0.00010554 -1.99068e-07 0)
(5.18744e-05 2.89333e-06 0)
(3.96401e-07 -1.2533e-15 0)
(5.78437e-20 -9.87453e-16 0)
(7.32816e-20 -9.8786e-16 0)
(-5.41093e-20 -9.8783e-16 0)
(-5.66296e-20 -9.87692e-16 0)
(-1.12378e-19 -9.87807e-16 0)
(-2.96262e-20 -9.76354e-16 0)
(-1.03772e-05 -8.67171e-12 0)
(-5.60723e-05 -1.36074e-06 0)
(-9.42796e-05 -3.56265e-07 0)
(-9.94171e-05 1.20846e-06 0)
(-0.000101443 -4.14095e-07 0)
(-0.00010367 2.01921e-06 0)
(-0.000105732 -4.71938e-07 0)
(-0.000104939 -7.36131e-07 0)
(-0.000102343 -2.33635e-06 0)
(-9.93713e-05 -1.06721e-06 0)
(-9.81116e-05 -7.2441e-07 0)
(-9.6319e-05 -1.43186e-06 0)
(-9.4395e-05 -7.66672e-07 0)
(-9.36119e-05 -2.70026e-07 0)
(-9.36581e-05 1.22342e-07 0)
(-9.37278e-05 -2.0905e-07 0)
(-9.32836e-05 -3.84865e-07 0)
(-9.24798e-05 -6.34956e-07 0)
(-9.09454e-05 -1.12134e-06 0)
(-8.91748e-05 -8.73098e-07 0)
(-8.79101e-05 -6.41521e-07 0)
(-8.68307e-05 -6.80518e-07 0)
(-8.54327e-05 -9.39789e-07 0)
(-8.38303e-05 -8.83802e-07 0)
(-8.2389e-05 -8.13715e-07 0)
(-8.08447e-05 -1.05073e-06 0)
(-7.84076e-05 -1.85159e-06 0)
(-7.38556e-05 -3.4296e-06 0)
(-6.88946e-05 -5.12228e-06 0)
(-6.4422e-05 -6.43958e-06 0)
(-5.87731e-05 -8.08313e-06 0)
(-5.16626e-05 -1.00326e-05 0)
(-4.28566e-05 -1.2158e-05 0)
(-3.22794e-05 -1.42071e-05 0)
(-2.01141e-05 -1.58472e-05 0)
(-6.83805e-06 -1.67636e-05 0)
(6.83805e-06 -1.67636e-05 0)
(2.01141e-05 -1.58472e-05 0)
(3.22794e-05 -1.42071e-05 0)
(4.28566e-05 -1.2158e-05 0)
(5.16626e-05 -1.00326e-05 0)
(5.87731e-05 -8.08313e-06 0)
(6.4422e-05 -6.43958e-06 0)
(6.88946e-05 -5.12228e-06 0)
(7.38556e-05 -3.4296e-06 0)
(7.84076e-05 -1.85159e-06 0)
(8.08447e-05 -1.05073e-06 0)
(8.2389e-05 -8.13715e-07 0)
(8.38303e-05 -8.83802e-07 0)
(8.54327e-05 -9.39789e-07 0)
(8.68307e-05 -6.80518e-07 0)
(8.79101e-05 -6.41521e-07 0)
(8.91748e-05 -8.73098e-07 0)
(9.09454e-05 -1.12134e-06 0)
(9.24798e-05 -6.34956e-07 0)
(9.32836e-05 -3.84865e-07 0)
(9.37278e-05 -2.0905e-07 0)
(9.36581e-05 1.22342e-07 0)
(9.36119e-05 -2.70026e-07 0)
(9.4395e-05 -7.66672e-07 0)
(9.6319e-05 -1.43186e-06 0)
(9.81116e-05 -7.2441e-07 0)
(9.93713e-05 -1.06721e-06 0)
(0.000102343 -2.33635e-06 0)
(0.000104939 -7.36131e-07 0)
(0.000105732 -4.71938e-07 0)
(0.00010367 2.01921e-06 0)
(0.000101443 -4.14095e-07 0)
(9.94171e-05 1.20846e-06 0)
(9.42796e-05 -3.56265e-07 0)
(5.60723e-05 -1.36074e-06 0)
(1.03772e-05 -8.67171e-12 0)
(2.96262e-20 -9.76354e-16 0)
(1.12378e-19 -9.87807e-16 0)
(5.66296e-20 -9.87692e-16 0)
(5.41093e-20 -9.8783e-16 0)
(-3.97072e-20 -9.87806e-16 0)
(-5.19726e-20 -9.87712e-16 0)
(-8.63981e-20 -9.87764e-16 0)
(-2.29414e-20 -9.87536e-16 0)
(5.32442e-20 -9.8772e-16 0)
(4.39014e-20 -8.92773e-16 0)
(-6.6729e-06 -6.6211e-13 0)
(-5.17703e-05 8.18527e-07 0)
(-9.26346e-05 -2.63868e-07 0)
(-9.92787e-05 3.54852e-06 0)
(-0.000103159 -7.49527e-07 0)
(-0.000102871 -8.90338e-07 0)
(-0.000100408 -3.59125e-06 0)
(-9.73692e-05 -1.44323e-06 0)
(-9.65793e-05 -9.42769e-07 0)
(-9.48461e-05 -2.18114e-06 0)
(-9.28195e-05 -1.0885e-06 0)
(-9.21414e-05 -3.73041e-07 0)
(-9.23569e-05 2.47432e-07 0)
(-9.25465e-05 -3.09673e-07 0)
(-9.21197e-05 -5.4771e-07 0)
(-9.14004e-05 -8.99448e-07 0)
(-8.98254e-05 -1.69015e-06 0)
(-8.79785e-05 -1.26643e-06 0)
(-8.67908e-05 -9.08197e-07 0)
(-8.5816e-05 -9.70039e-07 0)
(-8.44301e-05 -1.39338e-06 0)
(-8.28027e-05 -1.28701e-06 0)
(-8.14326e-05 -1.15796e-06 0)
(-8.00498e-05 -1.48169e-06 0)
(-7.78567e-05 -2.63073e-06 0)
(-7.36003e-05 -4.93047e-06 0)
(-6.89134e-05 -7.34371e-06 0)
(-6.47072e-05 -9.24183e-06 0)
(-5.93509e-05 -1.16456e-05 0)
(-5.24984e-05 -1.45418e-05 0)
(-4.38353e-05 -1.77461e-05 0)
(-3.3213e-05 -2.08731e-05 0)
(-2.07888e-05 -2.33964e-05 0)
(-7.08448e-06 -2.48134e-05 0)
(7.08448e-06 -2.48134e-05 0)
(2.07888e-05 -2.33964e-05 0)
(3.3213e-05 -2.08731e-05 0)
(4.38353e-05 -1.77461e-05 0)
(5.24984e-05 -1.45418e-05 0)
(5.93509e-05 -1.16456e-05 0)
(6.47072e-05 -9.24183e-06 0)
(6.89134e-05 -7.34371e-06 0)
(7.36003e-05 -4.93047e-06 0)
(7.78567e-05 -2.63073e-06 0)
(8.00498e-05 -1.48169e-06 0)
(8.14326e-05 -1.15796e-06 0)
(8.28027e-05 -1.28701e-06 0)
(8.44301e-05 -1.39338e-06 0)
(8.5816e-05 -9.70039e-07 0)
(8.67908e-05 -9.08197e-07 0)
(8.79785e-05 -1.26643e-06 0)
(8.98254e-05 -1.69015e-06 0)
(9.14004e-05 -8.99448e-07 0)
(9.21197e-05 -5.4771e-07 0)
(9.25465e-05 -3.09673e-07 0)
(9.23569e-05 2.47432e-07 0)
(9.21414e-05 -3.73041e-07 0)
(9.28195e-05 -1.0885e-06 0)
(9.48461e-05 -2.18114e-06 0)
(9.65793e-05 -9.42769e-07 0)
(9.73692e-05 -1.44323e-06 0)
(0.000100408 -3.59125e-06 0)
(0.000102871 -8.90338e-07 0)
(0.000103159 -7.49527e-07 0)
(9.92787e-05 3.54852e-06 0)
(9.26346e-05 -2.63868e-07 0)
(5.17703e-05 8.18527e-07 0)
(6.6729e-06 -6.6211e-13 0)
(-4.39014e-20 -8.92773e-16 0)
(-5.32442e-20 -9.8772e-16 0)
(2.29414e-20 -9.87536e-16 0)
(8.63981e-20 -9.87764e-16 0)
(5.19726e-20 -9.87712e-16 0)
(3.97072e-20 -9.87806e-16 0)
(-2.89751e-20 -9.87787e-16 0)
(-4.51933e-20 -9.87723e-16 0)
(-6.52848e-20 -9.87738e-16 0)
(-1.78576e-20 -9.87593e-16 0)
(3.91213e-20 -9.87705e-16 0)
(3.63606e-20 -9.87676e-16 0)
(-4.66038e-21 -9.87749e-16 0)
(5.00375e-20 -9.20024e-16 0)
(-3.72002e-08 -7.32717e-16 0)
(-4.39427e-05 2.2589e-06 0)
(-9.1516e-05 -4.52048e-07 0)
(-9.75679e-05 -4.6203e-07 0)
(-9.72517e-05 -5.16956e-06 0)
(-9.46392e-05 -1.64841e-06 0)
(-9.4895e-05 -1.00395e-06 0)
(-9.33184e-05 -3.14656e-06 0)
(-9.11309e-05 -1.39017e-06 0)
(-9.06427e-05 -4.65585e-07 0)
(-9.11349e-05 4.81777e-07 0)
(-9.15124e-05 -4.37012e-07 0)
(-9.10869e-05 -7.10366e-07 0)
(-9.05038e-05 -1.14795e-06 0)
(-8.8839e-05 -2.39748e-06 0)
(-8.68355e-05 -1.68505e-06 0)
(-8.57622e-05 -1.16294e-06 0)
(-8.49449e-05 -1.25449e-06 0)
(-8.35552e-05 -1.92517e-06 0)
(-8.18584e-05 -1.72522e-06 0)
(-8.05816e-05 -1.49599e-06 0)
(-7.94298e-05 -1.88554e-06 0)
(-7.75894e-05 -3.38772e-06 0)
(-7.37339e-05 -6.47972e-06 0)
(-6.94147e-05 -9.5938e-06 0)
(-6.55978e-05 -1.2086e-05 0)
(-6.06784e-05 -1.53194e-05 0)
(-5.42102e-05 -1.93138e-05 0)
(-4.57395e-05 -2.38381e-05 0)
(-3.49849e-05 -2.83391e-05 0)
(-2.2054e-05 -3.20164e-05 0)
(-7.54431e-06 -3.4097e-05 0)
(7.54431e-06 -3.4097e-05 0)
(2.2054e-05 -3.20164e-05 0)
(3.49849e-05 -2.83391e-05 0)
(4.57395e-05 -2.38381e-05 0)
(5.42102e-05 -1.93138e-05 0)
(6.06784e-05 -1.53194e-05 0)
(6.55978e-05 -1.2086e-05 0)
(6.94147e-05 -9.5938e-06 0)
(7.37339e-05 -6.47972e-06 0)
(7.75894e-05 -3.38772e-06 0)
(7.94298e-05 -1.88554e-06 0)
(8.05816e-05 -1.49599e-06 0)
(8.18584e-05 -1.72522e-06 0)
(8.35552e-05 -1.92517e-06 0)
(8.49449e-05 -1.25449e-06 0)
(8.57622e-05 -1.16294e-06 0)
(8.68355e-05 -1.68505e-06 0)
(8.8839e-05 -2.39748e-06 0)
(9.05038e-05 -1.14795e-06 0)
(9.10869e-05 -7.10366e-07 0)
(9.15124e-05 -4.37012e-07 0)
(9.11349e-05 4.81777e-07 0)
(9.06427e-05 -4.65585e-07 0)
(9.11309e-05 -1.39017e-06 0)
(9.33184e-05 -3.14656e-06 0)
(9.4895e-05 -1.00395e-06 0)
(9.46392e-05 -1.64841e-06 0)
(9.72517e-05 -5.16956e-06 0)
(9.75679e-05 -4.6203e-07 0)
(9.1516e-05 -4.52048e-07 0)
(4.39427e-05 2.2589e-06 0)
(3.72002e-08 -7.32717e-16 0)
(-5.00375e-20 -9.20024e-16 0)
(4.66038e-21 -9.87749e-16 0)
(-3.63606e-20 -9.87676e-16 0)
(-3.91213e-20 -9.87705e-16 0)
(1.78576e-20 -9.87593e-16 0)
(6.52848e-20 -9.87738e-16 0)
(4.51933e-20 -9.87723e-16 0)
(2.89751e-20 -9.87787e-16 0)
(-2.09905e-20 -9.87772e-16 0)
(-3.7406e-20 -9.87728e-16 0)
(-4.82536e-20 -9.87723e-16 0)
(-1.31482e-20 -9.87633e-16 0)
(2.90514e-20 -9.87695e-16 0)
(3.09873e-20 -9.87685e-16 0)
(9.26556e-21 -9.87722e-16 0)
(4.18839e-20 -9.87612e-16 0)
(1.49606e-20 -9.87756e-16 0)
(1.10958e-19 -9.84897e-16 0)
(1.56377e-19 -7.77074e-16 0)
(-1.91794e-05 -9.35183e-10 0)
(-5.94764e-05 -3.02376e-06 0)
(-8.45645e-05 -8.4254e-07 0)
(-9.06244e-05 -4.92821e-07 0)
(-9.07165e-05 -4.42273e-06 0)
(-8.87358e-05 -1.572e-06 0)
(-8.87815e-05 -5.30976e-07 0)
(-8.98042e-05 9.30556e-07 0)
(-9.05195e-05 -6.1992e-07 0)
(-9.0079e-05 -8.60891e-07 0)
(-8.97516e-05 -1.33388e-06 0)
(-8.79341e-05 -3.34193e-06 0)
(-8.56512e-05 -2.11695e-06 0)
(-8.47666e-05 -1.37951e-06 0)
(-8.41965e-05 -1.50712e-06 0)
(-8.27774e-05 -2.58196e-06 0)
(-8.09367e-05 -2.20244e-06 0)
(-7.97859e-05 -1.80515e-06 0)
(-7.8956e-05 -2.22117e-06 0)
(-7.7615e-05 -4.06323e-06 0)
(-7.42773e-05 -8.05146e-06 0)
(-7.04272e-05 -1.17691e-05 0)
(-6.71811e-05 -1.48287e-05 0)
(-6.2932e-05 -1.89525e-05 0)
(-5.70782e-05 -2.42465e-05 0)
(-4.8931e-05 -3.04619e-05 0)
(-3.79658e-05 -3.68294e-05 0)
(-2.41889e-05 -4.21223e-05 0)
(-8.32176e-06 -4.51498e-05 0)
(8.32176e-06 -4.51498e-05 0)
(2.41889e-05 -4.21223e-05 0)
(3.79658e-05 -3.68294e-05 0)
(4.8931e-05 -3.04619e-05 0)
(5.70782e-05 -2.42465e-05 0)
(6.2932e-05 -1.89525e-05 0)
(6.71811e-05 -1.48287e-05 0)
(7.04272e-05 -1.17691e-05 0)
(7.42773e-05 -8.05146e-06 0)
(7.7615e-05 -4.06323e-06 0)
(7.8956e-05 -2.22117e-06 0)
(7.97859e-05 -1.80515e-06 0)
(8.09367e-05 -2.20244e-06 0)
(8.27774e-05 -2.58196e-06 0)
(8.41965e-05 -1.50712e-06 0)
(8.47666e-05 -1.37951e-06 0)
(8.56512e-05 -2.11695e-06 0)
(8.79341e-05 -3.34193e-06 0)
(8.97516e-05 -1.33388e-06 0)
(9.0079e-05 -8.60891e-07 0)
(9.05195e-05 -6.1992e-07 0)
(8.98042e-05 9.30556e-07 0)
(8.87815e-05 -5.30976e-07 0)
(8.87358e-05 -1.572e-06 0)
(9.07165e-05 -4.42273e-06 0)
(9.06244e-05 -4.92821e-07 0)
(8.45645e-05 -8.4254e-07 0)
(5.94764e-05 -3.02376e-06 0)
(1.91794e-05 -9.35183e-10 0)
(-1.56377e-19 -7.77074e-16 0)
(-1.10958e-19 -9.84897e-16 0)
(-1.49606e-20 -9.87756e-16 0)
(-4.18839e-20 -9.87612e-16 0)
(-9.26556e-21 -9.87722e-16 0)
(-3.09873e-20 -9.87685e-16 0)
(-2.90514e-20 -9.87695e-16 0)
(1.31482e-20 -9.87633e-16 0)
(4.82536e-20 -9.87723e-16 0)
(3.7406e-20 -9.87728e-16 0)
(2.09905e-20 -9.87772e-16 0)
(-1.50234e-20 -9.8776e-16 0)
(-2.94726e-20 -9.8773e-16 0)
(-3.45893e-20 -9.87716e-16 0)
(-8.75718e-21 -9.8766e-16 0)
(2.24015e-20 -9.87692e-16 0)
(2.76761e-20 -9.8769e-16 0)
(1.86083e-20 -9.87707e-16 0)
(3.94373e-20 -9.87646e-16 0)
(3.48515e-20 -9.87712e-16 0)
(1.01655e-19 -9.87553e-16 0)
(1.45125e-19 -9.87759e-16 0)
(1.30435e-19 -9.87633e-16 0)
(1.62222e-19 -8.75611e-16 0)
(-3.14829e-12 -7.10553e-16 0)
(-2.23065e-05 -3.71034e-09 0)
(-6.00283e-05 -2.57419e-06 0)
(-7.89113e-05 -8.06563e-07 0)
(-8.36835e-05 -2.76815e-07 0)
(-8.71436e-05 1.89573e-06 0)
(-8.89997e-05 -8.85936e-07 0)
(-8.87282e-05 -9.54248e-07 0)
(-8.90155e-05 -1.33613e-06 0)
(-8.70074e-05 -4.71239e-06 0)
(-8.42668e-05 -2.51892e-06 0)
(-8.37335e-05 -1.5112e-06 0)
(-8.35746e-05 -1.67058e-06 0)
(-8.20841e-05 -3.45539e-06 0)
(-7.99687e-05 -2.72042e-06 0)
(-7.89961e-05 -2.04946e-06 0)
(-7.86071e-05 -2.42738e-06 0)
(-7.7969e-05 -4.55918e-06 0)
(-7.52571e-05 -9.63462e-06 0)
(-7.19536e-05 -1.37003e-05 0)
(-6.95476e-05 -1.7211e-05 0)
(-6.63525e-05 -2.22404e-05 0)
(-6.1538e-05 -2.90832e-05 0)
(-5.40208e-05 -3.75672e-05 0)
(-4.28088e-05 -4.66544e-05 0)
(-2.76957e-05 -5.43755e-05 0)
(-9.6067e-06 -5.88622e-05 0)
(9.6067e-06 -5.88622e-05 0)
(2.76957e-05 -5.43755e-05 0)
(4.28088e-05 -4.66544e-05 0)
(5.40208e-05 -3.75672e-05 0)
(6.1538e-05 -2.90832e-05 0)
(6.63525e-05 -2.22404e-05 0)
(6.95476e-05 -1.7211e-05 0)
(7.19536e-05 -1.37003e-05 0)
(7.52571e-05 -9.63462e-06 0)
(7.7969e-05 -4.55918e-06 0)
(7.86071e-05 -2.42738e-06 0)
(7.89961e-05 -2.04946e-06 0)
(7.99687e-05 -2.72042e-06 0)
(8.20841e-05 -3.45539e-06 0)
(8.35746e-05 -1.67058e-06 0)
(8.37335e-05 -1.5112e-06 0)
(8.42668e-05 -2.51892e-06 0)
(8.70074e-05 -4.71239e-06 0)
(8.90155e-05 -1.33613e-06 0)
(8.87282e-05 -9.54248e-07 0)
(8.89997e-05 -8.85936e-07 0)
(8.71436e-05 1.89573e-06 0)
(8.36835e-05 -2.76815e-07 0)
(7.89113e-05 -8.06563e-07 0)
(6.00283e-05 -2.57419e-06 0)
(2.23065e-05 -3.71034e-09 0)
(3.14829e-12 -7.10553e-16 0)
(-1.62222e-19 -8.75611e-16 0)
(-1.30435e-19 -9.87633e-16 0)
(-1.45125e-19 -9.87759e-16 0)
(-1.01655e-19 -9.87553e-16 0)
(-3.48515e-20 -9.87712e-16 0)
(-3.94373e-20 -9.87646e-16 0)
(-1.86083e-20 -9.87707e-16 0)
(-2.76761e-20 -9.8769e-16 0)
(-2.24015e-20 -9.87692e-16 0)
(8.75718e-21 -9.8766e-16 0)
(3.45893e-20 -9.87716e-16 0)
(2.94726e-20 -9.8773e-16 0)
(1.50234e-20 -9.8776e-16 0)
(-1.05268e-20 -9.8775e-16 0)
(-2.19966e-20 -9.8773e-16 0)
(-2.36661e-20 -9.87714e-16 0)
(-4.64047e-21 -9.87679e-16 0)
(1.85068e-20 -9.87693e-16 0)
(2.59277e-20 -9.87694e-16 0)
(2.49297e-20 -9.877e-16 0)
(4.00913e-20 -9.87666e-16 0)
(4.72938e-20 -9.87693e-16 0)
(9.45141e-20 -9.87615e-16 0)
(1.28129e-19 -9.87726e-16 0)
(1.26374e-19 -9.87693e-16 0)
(1.39003e-19 -9.87754e-16 0)
(8.17647e-20 -9.87791e-16 0)
(1.18052e-19 -9.8758e-16 0)
(1.72876e-19 -8.74679e-16 0)
(7.92898e-20 -7.33275e-16 0)
(-4.42224e-06 -2.27724e-13 0)
(-4.19395e-05 1.28256e-06 0)
(-7.78579e-05 -5.2088e-07 0)
(-8.25273e-05 -4.88765e-07 0)
(-8.63225e-05 -6.40044e-07 0)
(-8.51327e-05 -6.81996e-06 0)
(-8.20399e-05 -2.7261e-06 0)
(-8.23793e-05 -1.46246e-06 0)
(-8.30195e-05 -1.60761e-06 0)
(-8.14278e-05 -4.73247e-06 0)
(-7.88191e-05 -3.26624e-06 0)
(-7.81342e-05 -2.17074e-06 0)
(-7.83441e-05 -2.41616e-06 0)
(-7.87143e-05 -4.70407e-06 0)
(-7.66775e-05 -1.12898e-05 0)
(-7.38908e-05 -1.51197e-05 0)
(-7.27254e-05 -1.87733e-05 0)
(-7.12232e-05 -2.45824e-05 0)
(-6.82524e-05 -3.32177e-05 0)
(-6.20705e-05 -4.48662e-05 0)
(-5.07147e-05 -5.82503e-05 0)
(-3.3518e-05 -6.9883e-05 0)
(-1.17623e-05 -7.681e-05 0)
(1.17623e-05 -7.681e-05 0)
(3.3518e-05 -6.9883e-05 0)
(5.07147e-05 -5.82503e-05 0)
(6.20705e-05 -4.48662e-05 0)
(6.82524e-05 -3.32177e-05 0)
(7.12232e-05 -2.45824e-05 0)
(7.27254e-05 -1.87733e-05 0)
(7.38908e-05 -1.51197e-05 0)
(7.66775e-05 -1.12898e-05 0)
(7.87143e-05 -4.70407e-06 0)
(7.83441e-05 -2.41616e-06 0)
(7.81342e-05 -2.17074e-06 0)
(7.88191e-05 -3.26624e-06 0)
(8.14278e-05 -4.73247e-06 0)
(8.30195e-05 -1.60761e-06 0)
(8.23793e-05 -1.46246e-06 0)
(8.20399e-05 -2.7261e-06 0)
(8.51327e-05 -6.81996e-06 0)
(8.63225e-05 -6.40044e-07 0)
(8.25273e-05 -4.88765e-07 0)
(7.78579e-05 -5.2088e-07 0)
(4.19395e-05 1.28256e-06 0)
(4.42224e-06 -2.27724e-13 0)
(-7.92898e-20 -7.33275e-16 0)
(-1.72876e-19 -8.74679e-16 0)
(-1.18052e-19 -9.8758e-16 0)
(-8.17647e-20 -9.87791e-16 0)
(-1.39003e-19 -9.87754e-16 0)
(-1.26374e-19 -9.87693e-16 0)
(-1.28129e-19 -9.87726e-16 0)
(-9.45141e-20 -9.87615e-16 0)
(-4.72938e-20 -9.87693e-16 0)
(-4.00913e-20 -9.87666e-16 0)
(-2.49297e-20 -9.877e-16 0)
(-2.59277e-20 -9.87694e-16 0)
(-1.85068e-20 -9.87693e-16 0)
(4.64047e-21 -9.87679e-16 0)
(2.36661e-20 -9.87714e-16 0)
(2.19966e-20 -9.8773e-16 0)
(1.05268e-20 -9.8775e-16 0)
(-7.10882e-21 -9.87743e-16 0)
(-1.53449e-20 -9.87729e-16 0)
(-1.49546e-20 -9.87714e-16 0)
(-7.76308e-22 -9.87692e-16 0)
(1.67194e-20 -9.87697e-16 0)
(2.53401e-20 -9.87697e-16 0)
(2.93104e-20 -9.87698e-16 0)
(4.20659e-20 -9.87679e-16 0)
(5.46188e-20 -9.87688e-16 0)
(8.88314e-20 -9.87653e-16 0)
(1.15076e-19 -9.87712e-16 0)
(1.19648e-19 -9.87708e-16 0)
(1.24573e-19 -9.87746e-16 0)
(9.60766e-20 -9.87764e-16 0)
(1.16401e-19 -9.87696e-16 0)
(1.42379e-19 -9.87775e-16 0)
(8.56753e-20 -9.87811e-16 0)
(2.32338e-20 -9.87743e-16 0)
(1.63158e-19 -9.48356e-16 0)
(2.41216e-19 -8.12797e-16 0)
(-2.13981e-12 -6.81766e-16 0)
(-1.71942e-05 -5.37843e-09 0)
(-5.02199e-05 -4.05231e-06 0)
(-7.02576e-05 -1.37406e-06 0)
(-7.6519e-05 -6.88293e-07 0)
(-8.05868e-05 -7.47518e-07 0)
(-7.98864e-05 -6.72417e-06 0)
(-7.68329e-05 -3.72673e-06 0)
(-7.68826e-05 -2.05237e-06 0)
(-7.79876e-05 -2.06009e-06 0)
(-7.99247e-05 -4.15878e-06 0)
(-7.84592e-05 -1.33108e-05 0)
(-7.58426e-05 -1.56079e-05 0)
(-7.6515e-05 -1.87155e-05 0)
(-7.77594e-05 -2.48164e-05 0)
(-7.81842e-05 -3.52277e-05 0)
(-7.50181e-05 -5.13452e-05 0)
(-6.40309e-05 -7.22722e-05 0)
(-4.35295e-05 -9.05786e-05 0)
(-1.55339e-05 -0.000101994 0)
(1.55339e-05 -0.000101994 0)
(4.35295e-05 -9.05786e-05 0)
(6.40309e-05 -7.22722e-05 0)
(7.50181e-05 -5.13452e-05 0)
(7.81842e-05 -3.52277e-05 0)
(7.77594e-05 -2.48164e-05 0)
(7.6515e-05 -1.87155e-05 0)
(7.58426e-05 -1.56079e-05 0)
(7.84592e-05 -1.33108e-05 0)
(7.99247e-05 -4.15878e-06 0)
(7.79876e-05 -2.06009e-06 0)
(7.68826e-05 -2.05237e-06 0)
(7.68329e-05 -3.72673e-06 0)
(7.98864e-05 -6.72417e-06 0)
(8.05868e-05 -7.47518e-07 0)
(7.6519e-05 -6.88293e-07 0)
(7.02576e-05 -1.37406e-06 0)
(5.02199e-05 -4.05231e-06 0)
(1.71942e-05 -5.37843e-09 0)
(2.13981e-12 -6.81766e-16 0)
(-2.41216e-19 -8.12797e-16 0)
(-1.63158e-19 -9.48356e-16 0)
(-2.32338e-20 -9.87743e-16 0)
(-8.56753e-20 -9.87811e-16 0)
(-1.42379e-19 -9.87775e-16 0)
(-1.16401e-19 -9.87696e-16 0)
(-9.60766e-20 -9.87764e-16 0)
(-1.24573e-19 -9.87746e-16 0)
(-1.19648e-19 -9.87708e-16 0)
(-1.15076e-19 -9.87712e-16 0)
(-8.88314e-20 -9.87653e-16 0)
(-5.46188e-20 -9.87688e-16 0)
(-4.20659e-20 -9.87679e-16 0)
(-2.93104e-20 -9.87698e-16 0)
(-2.53401e-20 -9.87697e-16 0)
(-1.67194e-20 -9.87697e-16 0)
(7.76308e-22 -9.87692e-16 0)
(1.49546e-20 -9.87714e-16 0)
(1.53449e-20 -9.87729e-16 0)
(7.10882e-21 -9.87743e-16 0)
(-4.49669e-21 -9.87738e-16 0)
(-9.68871e-21 -9.87728e-16 0)
(-8.02006e-21 -9.87716e-16 0)
(2.83153e-21 -9.87702e-16 0)
(1.64456e-20 -9.87701e-16 0)
(2.55793e-20 -9.87701e-16 0)
(3.24455e-20 -9.87699e-16 0)
(4.42703e-20 -9.87689e-16 0)
(5.85365e-20 -9.8769e-16 0)
(8.41128e-20 -9.87677e-16 0)
(1.04878e-19 -9.87709e-16 0)
(1.12203e-19 -9.87716e-16 0)
(1.15098e-19 -9.87741e-16 0)
(1.02496e-19 -9.87751e-16 0)
(1.13516e-19 -9.87723e-16 0)
(1.24642e-19 -9.87764e-16 0)
(9.29829e-20 -9.87782e-16 0)
(6.78608e-20 -9.87735e-16 0)
(1.4757e-19 -9.87631e-16 0)
(1.93471e-19 -9.87789e-16 0)
(1.26821e-19 -9.87793e-16 0)
(1.76166e-19 -9.87596e-16 0)
(2.39712e-19 -9.11535e-16 0)
(1.86838e-19 -8.05788e-16 0)
(1.00754e-19 -6.96256e-16 0)
(-4.96394e-06 -7.18421e-12 0)
(-3.34634e-05 -3.97246e-06 0)
(-6.21867e-05 -1.95527e-06 0)
(-6.98329e-05 -9.56579e-07 0)
(-7.44231e-05 -8.88439e-07 0)
(-8.0371e-05 -1.94333e-06 0)
(-7.97027e-05 -1.66127e-05 0)
(-7.63573e-05 -1.43902e-05 0)
(-7.98898e-05 -1.56661e-05 0)
(-8.55584e-05 -2.07972e-05 0)
(-9.24033e-05 -3.17217e-05 0)
(-9.66212e-05 -5.3523e-05 0)
(-8.7683e-05 -9.00813e-05 0)
(-6.16531e-05 -0.00011983 0)
(-2.26048e-05 -0.000140662 0)
(2.26048e-05 -0.000140662 0)
(6.16531e-05 -0.00011983 0)
(8.7683e-05 -9.00813e-05 0)
(9.66212e-05 -5.3523e-05 0)
(9.24033e-05 -3.17217e-05 0)
(8.55584e-05 -2.07972e-05 0)
(7.98898e-05 -1.56661e-05 0)
(7.63573e-05 -1.43902e-05 0)
(7.97027e-05 -1.66127e-05 0)
(8.0371e-05 -1.94333e-06 0)
(7.44231e-05 -8.88439e-07 0)
(6.98329e-05 -9.56579e-07 0)
(6.21867e-05 -1.95527e-06 0)
(3.34634e-05 -3.97246e-06 0)
(4.96394e-06 -7.18421e-12 0)
(-1.00754e-19 -6.96256e-16 0)
(-1.86838e-19 -8.05788e-16 0)
(-2.39712e-19 -9.11535e-16 0)
(-1.76166e-19 -9.87596e-16 0)
(-1.26821e-19 -9.87793e-16 0)
(-1.93471e-19 -9.87789e-16 0)
(-1.4757e-19 -9.87631e-16 0)
(-6.78608e-20 -9.87735e-16 0)
(-9.29829e-20 -9.87782e-16 0)
(-1.24642e-19 -9.87764e-16 0)
(-1.13516e-19 -9.87723e-16 0)
(-1.02496e-19 -9.87751e-16 0)
(-1.15098e-19 -9.87741e-16 0)
(-1.12203e-19 -9.87716e-16 0)
(-1.04878e-19 -9.87709e-16 0)
(-8.41128e-20 -9.87677e-16 0)
(-5.85365e-20 -9.8769e-16 0)
(-4.42703e-20 -9.87689e-16 0)
(-3.24455e-20 -9.87699e-16 0)
(-2.55793e-20 -9.87701e-16 0)
(-1.64456e-20 -9.87701e-16 0)
(-2.83153e-21 -9.87702e-16 0)
(8.02006e-21 -9.87716e-16 0)
(9.68871e-21 -9.87728e-16 0)
(4.49669e-21 -9.87738e-16 0)
(-2.50077e-21 -9.87735e-16 0)
(-5.05341e-21 -9.87728e-16 0)
(-2.51365e-21 -9.87719e-16 0)
(6.15708e-21 -9.87709e-16 0)
(1.71697e-20 -9.87706e-16 0)
(2.63602e-20 -9.87705e-16 0)
(3.47504e-20 -9.87703e-16 0)
(4.61299e-20 -9.87697e-16 0)
(6.02477e-20 -9.87696e-16 0)
(8.00375e-20 -9.87693e-16 0)
(9.67649e-20 -9.87711e-16 0)
(1.0505e-19 -9.87722e-16 0)
(1.08248e-19 -9.87738e-16 0)
(1.04135e-19 -9.87746e-16 0)
(1.10327e-19 -9.87737e-16 0)
(1.14969e-19 -9.87758e-16 0)
(9.95036e-20 -9.87766e-16 0)
(9.28404e-20 -9.87736e-16 0)
(1.38203e-19 -9.8769e-16 0)
(1.66837e-19 -9.87766e-16 0)
(1.4391e-19 -9.87773e-16 0)
(1.71659e-19 -9.87722e-16 0)
(2.04183e-19 -9.87794e-16 0)
(1.75649e-19 -9.87836e-16 0)
(1.30142e-19 -9.87831e-16 0)
(1.34056e-19 -9.87746e-16 0)
(2.20067e-19 -9.56774e-16 0)
(2.44425e-19 -8.69505e-16 0)
(1.81003e-19 -7.76897e-16 0)
(8.49051e-20 -6.82394e-16 0)
(-8.07804e-06 -1.15157e-07 0)
(-3.57854e-05 -9.37699e-06 0)
(-6.13294e-05 -6.61261e-06 0)
(-7.30785e-05 -6.58867e-06 0)
(-8.65343e-05 -8.68946e-06 0)
(-0.000106357 -1.39956e-05 0)
(-0.000132319 -3.7047e-05 0)
(-0.000131528 -0.000116978 0)
(-9.57786e-05 -0.000161586 0)
(-3.72902e-05 -0.000207436 0)
(3.72902e-05 -0.000207436 0)
(9.57786e-05 -0.000161586 0)
(0.000131528 -0.000116978 0)
(0.000132319 -3.7047e-05 0)
(0.000106357 -1.39956e-05 0)
(8.65343e-05 -8.68946e-06 0)
(7.30785e-05 -6.58867e-06 0)
(6.13294e-05 -6.61261e-06 0)
(3.57854e-05 -9.37699e-06 0)
(8.07804e-06 -1.15157e-07 0)
(-8.49051e-20 -6.82394e-16 0)
(-1.81003e-19 -7.76897e-16 0)
(-2.44425e-19 -8.69505e-16 0)
(-2.20067e-19 -9.56774e-16 0)
(-1.34056e-19 -9.87746e-16 0)
(-1.30142e-19 -9.87831e-16 0)
(-1.75649e-19 -9.87836e-16 0)
(-2.04183e-19 -9.87794e-16 0)
(-1.71659e-19 -9.87722e-16 0)
(-1.4391e-19 -9.87773e-16 0)
(-1.66837e-19 -9.87766e-16 0)
(-1.38203e-19 -9.8769e-16 0)
(-9.28404e-20 -9.87736e-16 0)
(-9.95036e-20 -9.87766e-16 0)
(-1.14969e-19 -9.87758e-16 0)
(-1.10327e-19 -9.87737e-16 0)
(-1.04135e-19 -9.87746e-16 0)
(-1.08248e-19 -9.87738e-16 0)
(-1.0505e-19 -9.87722e-16 0)
(-9.67649e-20 -9.87711e-16 0)
(-8.00375e-20 -9.87693e-16 0)
(-6.02477e-20 -9.87696e-16 0)
(-4.61299e-20 -9.87697e-16 0)
(-3.47504e-20 -9.87703e-16 0)
(-2.63602e-20 -9.87705e-16 0)
(-1.71697e-20 -9.87706e-16 0)
(-6.15708e-21 -9.87709e-16 0)
(2.51365e-21 -9.87719e-16 0)
(5.05341e-21 -9.87728e-16 0)
(2.50077e-21 -9.87735e-16 0)
(-9.85171e-22 -9.87733e-16 0)
(-1.37001e-21 -9.87728e-16 0)
(1.83956e-21 -9.87721e-16 0)
(9.16047e-21 -9.87714e-16 0)
(1.84651e-20 -9.87711e-16 0)
(2.74368e-20 -9.87709e-16 0)
(3.64563e-20 -9.87707e-16 0)
(4.74163e-20 -9.87704e-16 0)
(6.05646e-20 -9.87704e-16 0)
(7.64098e-20 -9.87704e-16 0)
(9.01887e-20 -9.87716e-16 0)
(9.86035e-20 -9.87726e-16 0)
(1.02746e-19 -9.87738e-16 0)
(1.031e-19 -9.87744e-16 0)
(1.07256e-19 -9.87744e-16 0)
(1.09892e-19 -9.87755e-16 0)
(1.04235e-19 -9.87758e-16 0)
(1.05929e-19 -9.87741e-16 0)
(1.32531e-19 -9.87723e-16 0)
(1.51806e-19 -9.87758e-16 0)
(1.48714e-19 -9.87767e-16 0)
(1.65401e-19 -9.87752e-16 0)
(1.82009e-19 -9.8779e-16 0)
(1.68045e-19 -9.87817e-16 0)
(1.45946e-19 -9.87814e-16 0)
(1.52896e-19 -9.87774e-16 0)
(1.98806e-19 -9.87765e-16 0)
(2.14687e-19 -9.87837e-16 0)
(1.86848e-19 -9.87851e-16 0)
(1.75743e-19 -9.87824e-16 0)
(2.36155e-19 -9.8766e-16 0)
(2.88919e-19 -9.59266e-16 0)
(2.8751e-19 -9.05179e-16 0)
(2.98692e-19 -8.6683e-16 0)
(3.21795e-19 -8.23426e-16 0)
(9.57752e-16 -1.35224e-12 0)
(4.93872e-08 -1.06162e-05 0)
(-3.78265e-05 -6.92554e-05 0)
(-0.000106526 -0.000147104 0)
(-6.86503e-05 -0.000337236 0)
(6.86503e-05 -0.000337236 0)
(0.000106526 -0.000147104 0)
(3.78265e-05 -6.92554e-05 0)
(-4.93872e-08 -1.06162e-05 0)
(-9.57752e-16 -1.35224e-12 0)
(-3.21795e-19 -8.23426e-16 0)
(-2.98692e-19 -8.6683e-16 0)
(-2.8751e-19 -9.05179e-16 0)
(-2.88919e-19 -9.59266e-16 0)
(-2.36155e-19 -9.8766e-16 0)
(-1.75743e-19 -9.87824e-16 0)
(-1.86848e-19 -9.87851e-16 0)
(-2.14687e-19 -9.87837e-16 0)
(-1.98806e-19 -9.87765e-16 0)
(-1.52896e-19 -9.87774e-16 0)
(-1.45946e-19 -9.87814e-16 0)
(-1.68045e-19 -9.87817e-16 0)
(-1.82009e-19 -9.8779e-16 0)
(-1.65401e-19 -9.87752e-16 0)
(-1.48714e-19 -9.87767e-16 0)
(-1.51806e-19 -9.87758e-16 0)
(-1.32531e-19 -9.87723e-16 0)
(-1.05929e-19 -9.87741e-16 0)
(-1.04235e-19 -9.87758e-16 0)
(-1.09892e-19 -9.87755e-16 0)
(-1.07256e-19 -9.87744e-16 0)
(-1.031e-19 -9.87744e-16 0)
(-1.02746e-19 -9.87738e-16 0)
(-9.86035e-20 -9.87726e-16 0)
(-9.01887e-20 -9.87716e-16 0)
(-7.64098e-20 -9.87704e-16 0)
(-6.05646e-20 -9.87704e-16 0)
(-4.74163e-20 -9.87704e-16 0)
(-3.64563e-20 -9.87707e-16 0)
(-2.74368e-20 -9.87709e-16 0)
(-1.84651e-20 -9.87711e-16 0)
(-9.16047e-21 -9.87714e-16 0)
(-1.83956e-21 -9.87721e-16 0)
(1.37001e-21 -9.87728e-16 0)
(9.85171e-22 -9.87733e-16 0)
(1.52528e-22 -9.87733e-16 0)
(1.48066e-21 -9.87729e-16 0)
(5.25382e-21 -9.87724e-16 0)
(1.17982e-20 -9.87719e-16 0)
(1.99962e-20 -9.87716e-16 0)
(2.86018e-20 -9.87714e-16 0)
(3.76851e-20 -9.87713e-16 0)
(4.81033e-20 -9.87711e-16 0)
(6.00196e-20 -9.87711e-16 0)
(7.31146e-20 -9.87714e-16 0)
(8.47506e-20 -9.87722e-16 0)
(9.29466e-20 -9.8773e-16 0)
(9.79653e-20 -9.87739e-16 0)
(1.00705e-19 -9.87745e-16 0)
(1.04392e-19 -9.87748e-16 0)
(1.07066e-19 -9.87754e-16 0)
(1.06991e-19 -9.87756e-16 0)
(1.12042e-19 -9.87748e-16 0)
(1.28733e-19 -9.87742e-16 0)
(1.4272e-19 -9.87759e-16 0)
(1.47439e-19 -9.87767e-16 0)
(1.58563e-19 -9.87767e-16 0)
(1.67804e-19 -9.87789e-16 0)
(1.62396e-19 -9.87806e-16 0)
(1.53667e-19 -9.87806e-16 0)
(1.60667e-19 -9.8779e-16 0)
(1.85423e-19 -9.87791e-16 0)
(1.96536e-19 -9.87827e-16 0)
(1.87723e-19 -9.8784e-16 0)
(1.88929e-19 -9.8783e-16 0)
(2.23452e-19 -9.87816e-16 0)
(2.56964e-19 -9.87873e-16 0)
(2.6628e-19 -9.87902e-16 0)
(2.76794e-19 -9.87921e-16 0)
(2.94705e-19 -9.87945e-16 0)
(3.26256e-19 -9.87981e-16 0)
(5.80506e-19 -1.70897e-15 0)
(1.76824e-09 -4.38699e-06 0)
(3.12724e-07 -0.000105367 0)
(3.10956e-07 -0.000417526 0)
(-3.10956e-07 -0.000417526 0)
(-3.12724e-07 -0.000105367 0)