/*--------------------------------*- C++ -*----------------------------------*\
  =========                 |
  \\      /  F ield         | OpenFOAM: The Open Source CFD Toolbox
   \\    /   O peration     | Website:  https://openfoam.org
    \\  /    A nd           | Version:  10
     \\/     M anipulation  |
\*---------------------------------------------------------------------------*/
FoamFile
{
    format      ascii;
    class       volVectorField;
    location    "7500";
    object      Ub;
}
// * * * * * * * * * * * * * * * * * * * * * * * * * * * * * * * * * * * * * //

dimensions      [0 1 -1 0 0 0 0];

internalField   nonuniform List<vector> 
6400
(
(-4.10523e-21 -9.87899e-16 0)
(-1.23317e-20 -9.87899e-16 0)
(-2.06066e-20 -9.87899e-16 0)
(-2.89629e-20 -9.87899e-16 0)
(-3.74346e-20 -9.87899e-16 0)
(-4.60576e-20 -9.87899e-16 0)
(-5.487e-20 -9.87899e-16 0)
(-6.39125e-20 -9.87899e-16 0)
(-7.32295e-20 -9.87899e-16 0)
(-8.28698e-20 -9.87899e-16 0)
(-9.28874e-20 -9.87898e-16 0)
(-1.03343e-19 -9.87898e-16 0)
(-1.14304e-19 -9.87898e-16 0)
(-1.25849e-19 -9.87898e-16 0)
(-1.38067e-19 -9.87898e-16 0)
(-1.51061e-19 -9.87898e-16 0)
(-1.64951e-19 -9.87898e-16 0)
(-1.79876e-19 -9.87898e-16 0)
(-1.96003e-19 -9.87898e-16 0)
(-2.13528e-19 -9.87898e-16 0)
(-2.32683e-19 -9.87897e-16 0)
(-2.53748e-19 -9.87897e-16 0)
(-2.77054e-19 -9.87897e-16 0)
(-3.02996e-19 -9.87897e-16 0)
(-3.32036e-19 -9.87896e-16 0)
(-3.64699e-19 -9.87896e-16 0)
(-4.01537e-19 -9.87896e-16 0)
(-4.43026e-19 -9.87895e-16 0)
(-4.89297e-19 -9.87895e-16 0)
(-5.39469e-19 -9.87894e-16 0)
(-5.90099e-19 -9.87894e-16 0)
(-6.31715e-19 -9.87896e-16 0)
(-6.48473e-19 -9.879e-16 0)
(-6.41332e-19 -9.87903e-16 0)
(-6.17401e-19 -9.87907e-16 0)
(-5.70722e-19 -9.87913e-16 0)
(-4.95476e-19 -9.8792e-16 0)
(-3.8785e-19 -9.87928e-16 0)
(-2.4869e-19 -9.87935e-16 0)
(-8.58578e-20 -9.87939e-16 0)
(8.58578e-20 -9.87939e-16 0)
(2.4869e-19 -9.87935e-16 0)
(3.8785e-19 -9.87928e-16 0)
(4.95476e-19 -9.8792e-16 0)
(5.70722e-19 -9.87913e-16 0)
(6.17401e-19 -9.87907e-16 0)
(6.41332e-19 -9.87903e-16 0)
(6.48473e-19 -9.879e-16 0)
(6.31715e-19 -9.87896e-16 0)
(5.90099e-19 -9.87894e-16 0)
(5.39469e-19 -9.87894e-16 0)
(4.89297e-19 -9.87895e-16 0)
(4.43026e-19 -9.87895e-16 0)
(4.01537e-19 -9.87896e-16 0)
(3.64699e-19 -9.87896e-16 0)
(3.32036e-19 -9.87896e-16 0)
(3.02996e-19 -9.87897e-16 0)
(2.77054e-19 -9.87897e-16 0)
(2.53748e-19 -9.87897e-16 0)
(2.32683e-19 -9.87897e-16 0)
(2.13528e-19 -9.87898e-16 0)
(1.96003e-19 -9.87898e-16 0)
(1.79876e-19 -9.87898e-16 0)
(1.64951e-19 -9.87898e-16 0)
(1.51061e-19 -9.87898e-16 0)
(1.38067e-19 -9.87898e-16 0)
(1.25849e-19 -9.87898e-16 0)
(1.14304e-19 -9.87898e-16 0)
(1.03343e-19 -9.87898e-16 0)
(9.28874e-20 -9.87898e-16 0)
(8.28698e-20 -9.87899e-16 0)
(7.32295e-20 -9.87899e-16 0)
(6.39125e-20 -9.87899e-16 0)
(5.487e-20 -9.87899e-16 0)
(4.60576e-20 -9.87899e-16 0)
(3.74346e-20 -9.87899e-16 0)
(2.89629e-20 -9.87899e-16 0)
(2.06066e-20 -9.87899e-16 0)
(1.23317e-20 -9.87899e-16 0)
(4.10523e-21 -9.87899e-16 0)
(-4.10453e-21 -9.87896e-16 0)
(-1.23296e-20 -9.87896e-16 0)
(-2.06031e-20 -9.87896e-16 0)
(-2.89578e-20 -9.87896e-16 0)
(-3.7428e-20 -9.87896e-16 0)
(-4.60493e-20 -9.87896e-16 0)
(-5.48599e-20 -9.87896e-16 0)
(-6.39005e-20 -9.87896e-16 0)
(-7.32154e-20 -9.87896e-16 0)
(-8.28533e-20 -9.87895e-16 0)
(-9.28683e-20 -9.87895e-16 0)
(-1.03321e-19 -9.87895e-16 0)
(-1.14279e-19 -9.87895e-16 0)
(-1.2582e-19 -9.87895e-16 0)
(-1.38033e-19 -9.87895e-16 0)
(-1.51022e-19 -9.87894e-16 0)
(-1.64905e-19 -9.87894e-16 0)
(-1.79824e-19 -9.87894e-16 0)
(-1.95942e-19 -9.87893e-16 0)
(-2.13457e-19 -9.87893e-16 0)
(-2.326e-19 -9.87892e-16 0)
(-2.5365e-19 -9.87892e-16 0)
(-2.76939e-19 -9.87891e-16 0)
(-3.02861e-19 -9.8789e-16 0)
(-3.31879e-19 -9.87889e-16 0)
(-3.64517e-19 -9.87888e-16 0)
(-4.01335e-19 -9.87886e-16 0)
(-4.42818e-19 -9.87885e-16 0)
(-4.89127e-19 -9.87883e-16 0)
(-5.39448e-19 -9.87882e-16 0)
(-5.90489e-19 -9.87883e-16 0)
(-6.33079e-19 -9.87888e-16 0)
(-6.51022e-19 -9.87898e-16 0)
(-6.45012e-19 -9.87908e-16 0)
(-6.22389e-19 -9.87922e-16 0)
(-5.76985e-19 -9.8794e-16 0)
(-5.02576e-19 -9.87963e-16 0)
(-3.94764e-19 -9.87987e-16 0)
(-2.53881e-19 -9.88008e-16 0)
(-8.78058e-20 -9.88021e-16 0)
(8.78058e-20 -9.88021e-16 0)
(2.53881e-19 -9.88008e-16 0)
(3.94764e-19 -9.87987e-16 0)
(5.02576e-19 -9.87963e-16 0)
(5.76985e-19 -9.8794e-16 0)
(6.22389e-19 -9.87922e-16 0)
(6.45012e-19 -9.87908e-16 0)
(6.51022e-19 -9.87898e-16 0)
(6.33079e-19 -9.87888e-16 0)
(5.90489e-19 -9.87883e-16 0)
(5.39448e-19 -9.87882e-16 0)
(4.89127e-19 -9.87883e-16 0)
(4.42818e-19 -9.87885e-16 0)
(4.01335e-19 -9.87886e-16 0)
(3.64517e-19 -9.87888e-16 0)
(3.31879e-19 -9.87889e-16 0)
(3.02861e-19 -9.8789e-16 0)
(2.76939e-19 -9.87891e-16 0)
(2.5365e-19 -9.87892e-16 0)
(2.326e-19 -9.87892e-16 0)
(2.13457e-19 -9.87893e-16 0)
(1.95942e-19 -9.87893e-16 0)
(1.79824e-19 -9.87894e-16 0)
(1.64905e-19 -9.87894e-16 0)
(1.51022e-19 -9.87894e-16 0)
(1.38033e-19 -9.87895e-16 0)
(1.2582e-19 -9.87895e-16 0)
(1.14279e-19 -9.87895e-16 0)
(1.03321e-19 -9.87895e-16 0)
(9.28683e-20 -9.87895e-16 0)
(8.28533e-20 -9.87895e-16 0)
(7.32154e-20 -9.87896e-16 0)
(6.39005e-20 -9.87896e-16 0)
(5.48599e-20 -9.87896e-16 0)
(4.60493e-20 -9.87896e-16 0)
(3.7428e-20 -9.87896e-16 0)
(2.89578e-20 -9.87896e-16 0)
(2.06031e-20 -9.87896e-16 0)
(1.23296e-20 -9.87896e-16 0)
(4.10453e-21 -9.87896e-16 0)
(-4.10293e-21 -9.87894e-16 0)
(-1.23248e-20 -9.87894e-16 0)
(-2.05949e-20 -9.87894e-16 0)
(-2.89463e-20 -9.87894e-16 0)
(-3.74129e-20 -9.87894e-16 0)
(-4.60305e-20 -9.87894e-16 0)
(-5.4837e-20 -9.87894e-16 0)
(-6.38731e-20 -9.87893e-16 0)
(-7.31832e-20 -9.87893e-16 0)
(-8.28158e-20 -9.87893e-16 0)
(-9.28247e-20 -9.87893e-16 0)
(-1.0327e-19 -9.87893e-16 0)
(-1.14221e-19 -9.87892e-16 0)
(-1.25753e-19 -9.87892e-16 0)
(-1.37956e-19 -9.87892e-16 0)
(-1.50933e-19 -9.87891e-16 0)
(-1.64802e-19 -9.87891e-16 0)
(-1.79704e-19 -9.8789e-16 0)
(-1.95803e-19 -9.87889e-16 0)
(-2.13295e-19 -9.87888e-16 0)
(-2.3241e-19 -9.87888e-16 0)
(-2.53427e-19 -9.87886e-16 0)
(-2.76677e-19 -9.87885e-16 0)
(-3.02553e-19 -9.87884e-16 0)
(-3.31518e-19 -9.87882e-16 0)
(-3.64101e-19 -9.8788e-16 0)
(-4.0087e-19 -9.87877e-16 0)
(-4.4234e-19 -9.87874e-16 0)
(-4.88733e-19 -9.87872e-16 0)
(-5.39388e-19 -9.8787e-16 0)
(-5.91358e-19 -9.87871e-16 0)
(-6.36165e-19 -9.87879e-16 0)
(-6.56824e-19 -9.87897e-16 0)
(-6.53433e-19 -9.87914e-16 0)
(-6.33871e-19 -9.87938e-16 0)
(-5.91508e-19 -9.8797e-16 0)
(-5.19177e-19 -9.8801e-16 0)
(-4.11075e-19 -9.88053e-16 0)
(-2.66221e-19 -9.88092e-16 0)
(-9.24585e-20 -9.88116e-16 0)
(9.24585e-20 -9.88116e-16 0)
(2.66221e-19 -9.88092e-16 0)
(4.11075e-19 -9.88053e-16 0)
(5.19177e-19 -9.8801e-16 0)
(5.91508e-19 -9.8797e-16 0)
(6.33871e-19 -9.87938e-16 0)
(6.53433e-19 -9.87914e-16 0)
(6.56824e-19 -9.87897e-16 0)
(6.36165e-19 -9.87879e-16 0)
(5.91358e-19 -9.87871e-16 0)
(5.39388e-19 -9.8787e-16 0)
(4.88733e-19 -9.87872e-16 0)
(4.4234e-19 -9.87874e-16 0)
(4.0087e-19 -9.87877e-16 0)
(3.64101e-19 -9.8788e-16 0)
(3.31518e-19 -9.87882e-16 0)
(3.02553e-19 -9.87884e-16 0)
(2.76677e-19 -9.87885e-16 0)
(2.53427e-19 -9.87886e-16 0)
(2.3241e-19 -9.87888e-16 0)
(2.13295e-19 -9.87888e-16 0)
(1.95803e-19 -9.87889e-16 0)
(1.79704e-19 -9.8789e-16 0)
(1.64802e-19 -9.87891e-16 0)
(1.50933e-19 -9.87891e-16 0)
(1.37956e-19 -9.87892e-16 0)
(1.25753e-19 -9.87892e-16 0)
(1.14221e-19 -9.87892e-16 0)
(1.0327e-19 -9.87893e-16 0)
(9.28247e-20 -9.87893e-16 0)
(8.28158e-20 -9.87893e-16 0)
(7.31832e-20 -9.87893e-16 0)
(6.38731e-20 -9.87893e-16 0)
(5.4837e-20 -9.87894e-16 0)
(4.60305e-20 -9.87894e-16 0)
(3.74129e-20 -9.87894e-16 0)
(2.89463e-20 -9.87894e-16 0)
(2.05949e-20 -9.87894e-16 0)
(1.23248e-20 -9.87894e-16 0)
(4.10293e-21 -9.87894e-16 0)
(-4.10017e-21 -9.87892e-16 0)
(-1.23165e-20 -9.87892e-16 0)
(-2.0581e-20 -9.87892e-16 0)
(-2.89264e-20 -9.87892e-16 0)
(-3.73869e-20 -9.87892e-16 0)
(-4.5998e-20 -9.87892e-16 0)
(-5.47974e-20 -9.87891e-16 0)
(-6.3826e-20 -9.87891e-16 0)
(-7.31277e-20 -9.87891e-16 0)
(-8.27509e-20 -9.87891e-16 0)
(-9.27495e-20 -9.8789e-16 0)
(-1.03183e-19 -9.8789e-16 0)
(-1.1412e-19 -9.87889e-16 0)
(-1.25637e-19 -9.87889e-16 0)
(-1.37823e-19 -9.87888e-16 0)
(-1.50779e-19 -9.87888e-16 0)
(-1.64624e-19 -9.87887e-16 0)
(-1.79498e-19 -9.87886e-16 0)
(-1.95563e-19 -9.87885e-16 0)
(-2.13015e-19 -9.87884e-16 0)
(-2.32082e-19 -9.87882e-16 0)
(-2.53042e-19 -9.87881e-16 0)
(-2.76224e-19 -9.87879e-16 0)
(-3.02021e-19 -9.87877e-16 0)
(-3.30895e-19 -9.87874e-16 0)
(-3.63382e-19 -9.87871e-16 0)
(-4.00067e-19 -9.87867e-16 0)
(-4.41506e-19 -9.87863e-16 0)
(-4.88033e-19 -9.87859e-16 0)
(-5.39241e-19 -9.87856e-16 0)
(-5.92759e-19 -9.87857e-16 0)
(-6.41313e-19 -9.87869e-16 0)
(-6.66617e-19 -9.87894e-16 0)
(-6.67803e-19 -9.87918e-16 0)
(-6.537e-19 -9.87953e-16 0)
(-6.1695e-19 -9.88001e-16 0)
(-5.48738e-19 -9.8806e-16 0)
(-4.40629e-19 -9.88127e-16 0)
(-2.88931e-19 -9.88189e-16 0)
(-1.01102e-19 -9.88228e-16 0)
(1.01102e-19 -9.88228e-16 0)
(2.88931e-19 -9.88189e-16 0)
(4.40629e-19 -9.88127e-16 0)
(5.48738e-19 -9.8806e-16 0)
(6.1695e-19 -9.88001e-16 0)
(6.537e-19 -9.87953e-16 0)
(6.67803e-19 -9.87918e-16 0)
(6.66617e-19 -9.87894e-16 0)
(6.41313e-19 -9.87869e-16 0)
(5.92759e-19 -9.87857e-16 0)
(5.39241e-19 -9.87856e-16 0)
(4.88033e-19 -9.87859e-16 0)
(4.41506e-19 -9.87863e-16 0)
(4.00067e-19 -9.87867e-16 0)
(3.63382e-19 -9.87871e-16 0)
(3.30895e-19 -9.87874e-16 0)
(3.02021e-19 -9.87877e-16 0)
(2.76224e-19 -9.87879e-16 0)
(2.53042e-19 -9.87881e-16 0)
(2.32082e-19 -9.87882e-16 0)
(2.13015e-19 -9.87884e-16 0)
(1.95563e-19 -9.87885e-16 0)
(1.79498e-19 -9.87886e-16 0)
(1.64624e-19 -9.87887e-16 0)
(1.50779e-19 -9.87888e-16 0)
(1.37823e-19 -9.87888e-16 0)
(1.25637e-19 -9.87889e-16 0)
(1.1412e-19 -9.87889e-16 0)
(1.03183e-19 -9.8789e-16 0)
(9.27495e-20 -9.8789e-16 0)
(8.27509e-20 -9.87891e-16 0)
(7.31277e-20 -9.87891e-16 0)
(6.3826e-20 -9.87891e-16 0)
(5.47974e-20 -9.87891e-16 0)
(4.5998e-20 -9.87892e-16 0)
(3.73869e-20 -9.87892e-16 0)
(2.89264e-20 -9.87892e-16 0)
(2.0581e-20 -9.87892e-16 0)
(1.23165e-20 -9.87892e-16 0)
(4.10017e-21 -9.87892e-16 0)
(-4.09594e-21 -9.8789e-16 0)
(-1.23038e-20 -9.8789e-16 0)
(-2.05595e-20 -9.87889e-16 0)
(-2.8896e-20 -9.87889e-16 0)
(-3.7347e-20 -9.87889e-16 0)
(-4.59481e-20 -9.87889e-16 0)
(-5.47368e-20 -9.87889e-16 0)
(-6.37536e-20 -9.87889e-16 0)
(-7.30425e-20 -9.87888e-16 0)
(-8.26516e-20 -9.87888e-16 0)
(-9.26342e-20 -9.87887e-16 0)
(-1.0305e-19 -9.87887e-16 0)
(-1.13967e-19 -9.87886e-16 0)
(-1.2546e-19 -9.87886e-16 0)
(-1.37619e-19 -9.87885e-16 0)
(-1.50543e-19 -9.87884e-16 0)
(-1.64352e-19 -9.87883e-16 0)
(-1.79182e-19 -9.87882e-16 0)
(-1.95196e-19 -9.8788e-16 0)
(-2.12586e-19 -9.87879e-16 0)
(-2.3158e-19 -9.87877e-16 0)
(-2.52453e-19 -9.87875e-16 0)
(-2.75531e-19 -9.87872e-16 0)
(-3.01205e-19 -9.87869e-16 0)
(-3.2994e-19 -9.87865e-16 0)
(-3.62278e-19 -9.87861e-16 0)
(-3.98826e-19 -9.87856e-16 0)
(-4.40208e-19 -9.87851e-16 0)
(-4.86912e-19 -9.87845e-16 0)
(-5.38905e-19 -9.87841e-16 0)
(-5.94671e-19 -9.87842e-16 0)
(-6.48766e-19 -9.87855e-16 0)
(-6.8108e-19 -9.87888e-16 0)
(-6.89402e-19 -9.87919e-16 0)
(-6.84097e-19 -9.87965e-16 0)
(-6.56868e-19 -9.88029e-16 0)
(-5.96394e-19 -9.88113e-16 0)
(-4.89687e-19 -9.88211e-16 0)
(-3.27637e-19 -9.88305e-16 0)
(-1.16071e-19 -9.88366e-16 0)
(1.16071e-19 -9.88366e-16 0)
(3.27637e-19 -9.88305e-16 0)
(4.89687e-19 -9.88211e-16 0)
(5.96394e-19 -9.88113e-16 0)
(6.56868e-19 -9.88029e-16 0)
(6.84097e-19 -9.87965e-16 0)
(6.89402e-19 -9.87919e-16 0)
(6.8108e-19 -9.87888e-16 0)
(6.48766e-19 -9.87855e-16 0)
(5.94671e-19 -9.87842e-16 0)
(5.38905e-19 -9.87841e-16 0)
(4.86912e-19 -9.87845e-16 0)
(4.40208e-19 -9.87851e-16 0)
(3.98826e-19 -9.87856e-16 0)
(3.62278e-19 -9.87861e-16 0)
(3.2994e-19 -9.87865e-16 0)
(3.01205e-19 -9.87869e-16 0)
(2.75531e-19 -9.87872e-16 0)
(2.52453e-19 -9.87875e-16 0)
(2.3158e-19 -9.87877e-16 0)
(2.12586e-19 -9.87879e-16 0)
(1.95196e-19 -9.8788e-16 0)
(1.79182e-19 -9.87882e-16 0)
(1.64352e-19 -9.87883e-16 0)
(1.50543e-19 -9.87884e-16 0)
(1.37619e-19 -9.87885e-16 0)
(1.2546e-19 -9.87886e-16 0)
(1.13967e-19 -9.87886e-16 0)
(1.0305e-19 -9.87887e-16 0)
(9.26342e-20 -9.87887e-16 0)
(8.26516e-20 -9.87888e-16 0)
(7.30425e-20 -9.87888e-16 0)
(6.37536e-20 -9.87889e-16 0)
(5.47368e-20 -9.87889e-16 0)
(4.59481e-20 -9.87889e-16 0)
(3.7347e-20 -9.87889e-16 0)
(2.8896e-20 -9.87889e-16 0)
(2.05595e-20 -9.87889e-16 0)
(1.23038e-20 -9.8789e-16 0)
(4.09594e-21 -9.8789e-16 0)
(-4.08986e-21 -9.87887e-16 0)
(-1.22854e-20 -9.87887e-16 0)
(-2.05287e-20 -9.87887e-16 0)
(-2.88522e-20 -9.87887e-16 0)
(-3.72897e-20 -9.87887e-16 0)
(-4.58763e-20 -9.87886e-16 0)
(-5.46496e-20 -9.87886e-16 0)
(-6.36496e-20 -9.87886e-16 0)
(-7.292e-20 -9.87885e-16 0)
(-8.25087e-20 -9.87885e-16 0)
(-9.24684e-20 -9.87884e-16 0)
(-1.02858e-19 -9.87884e-16 0)
(-1.13746e-19 -9.87883e-16 0)
(-1.25206e-19 -9.87882e-16 0)
(-1.37325e-19 -9.87881e-16 0)
(-1.50204e-19 -9.8788e-16 0)
(-1.6396e-19 -9.87879e-16 0)
(-1.78728e-19 -9.87877e-16 0)
(-1.94668e-19 -9.87875e-16 0)
(-2.1197e-19 -9.87873e-16 0)
(-2.30859e-19 -9.87871e-16 0)
(-2.51606e-19 -9.87868e-16 0)
(-2.74534e-19 -9.87865e-16 0)
(-3.00032e-19 -9.87861e-16 0)
(-3.28565e-19 -9.87856e-16 0)
(-3.60684e-19 -9.87851e-16 0)
(-3.97027e-19 -9.87844e-16 0)
(-4.38302e-19 -9.87837e-16 0)
(-4.85203e-19 -9.8783e-16 0)
(-5.38194e-19 -9.87824e-16 0)
(-5.9692e-19 -9.87824e-16 0)
(-6.58521e-19 -9.87838e-16 0)
(-7.00611e-19 -9.87875e-16 0)
(-7.19352e-19 -9.87912e-16 0)
(-7.27508e-19 -9.87969e-16 0)
(-7.15923e-19 -9.88052e-16 0)
(-6.69903e-19 -9.88164e-16 0)
(-5.68917e-19 -9.88303e-16 0)
(-3.92835e-19 -9.88447e-16 0)
(-1.41941e-19 -9.88546e-16 0)
(1.41941e-19 -9.88546e-16 0)
(3.92835e-19 -9.88447e-16 0)
(5.68917e-19 -9.88303e-16 0)
(6.69903e-19 -9.88164e-16 0)
(7.15923e-19 -9.88052e-16 0)
(7.27508e-19 -9.87969e-16 0)
(7.19352e-19 -9.87912e-16 0)
(7.00611e-19 -9.87875e-16 0)
(6.58521e-19 -9.87838e-16 0)
(5.9692e-19 -9.87824e-16 0)
(5.38194e-19 -9.87824e-16 0)
(4.85203e-19 -9.8783e-16 0)
(4.38302e-19 -9.87837e-16 0)
(3.97027e-19 -9.87844e-16 0)
(3.60684e-19 -9.87851e-16 0)
(3.28565e-19 -9.87856e-16 0)
(3.00032e-19 -9.87861e-16 0)
(2.74534e-19 -9.87865e-16 0)
(2.51606e-19 -9.87868e-16 0)
(2.30859e-19 -9.87871e-16 0)
(2.1197e-19 -9.87873e-16 0)
(1.94668e-19 -9.87875e-16 0)
(1.78728e-19 -9.87877e-16 0)
(1.6396e-19 -9.87879e-16 0)
(1.50204e-19 -9.8788e-16 0)
(1.37325e-19 -9.87881e-16 0)
(1.25206e-19 -9.87882e-16 0)
(1.13746e-19 -9.87883e-16 0)
(1.02858e-19 -9.87884e-16 0)
(9.24684e-20 -9.87884e-16 0)
(8.25087e-20 -9.87885e-16 0)
(7.292e-20 -9.87885e-16 0)
(6.36496e-20 -9.87886e-16 0)
(5.46496e-20 -9.87886e-16 0)
(4.58763e-20 -9.87886e-16 0)
(3.72897e-20 -9.87887e-16 0)
(2.88522e-20 -9.87887e-16 0)
(2.05287e-20 -9.87887e-16 0)
(1.22854e-20 -9.87887e-16 0)
(4.08986e-21 -9.87887e-16 0)
(-4.08146e-21 -9.87884e-16 0)
(-1.22601e-20 -9.87884e-16 0)
(-2.04861e-20 -9.87884e-16 0)
(-2.87918e-20 -9.87884e-16 0)
(-3.72105e-20 -9.87884e-16 0)
(-4.57773e-20 -9.87883e-16 0)
(-5.45292e-20 -9.87883e-16 0)
(-6.3506e-20 -9.87883e-16 0)
(-7.2751e-20 -9.87882e-16 0)
(-8.23114e-20 -9.87882e-16 0)
(-9.22396e-20 -9.87881e-16 0)
(-1.02594e-19 -9.8788e-16 0)
(-1.13441e-19 -9.87879e-16 0)
(-1.24854e-19 -9.87878e-16 0)
(-1.3692e-19 -9.87877e-16 0)
(-1.49737e-19 -9.87875e-16 0)
(-1.6342e-19 -9.87874e-16 0)
(-1.78102e-19 -9.87872e-16 0)
(-1.9394e-19 -9.8787e-16 0)
(-2.11121e-19 -9.87867e-16 0)
(-2.29865e-19 -9.87864e-16 0)
(-2.50439e-19 -9.87861e-16 0)
(-2.73161e-19 -9.87856e-16 0)
(-2.98415e-19 -9.87852e-16 0)
(-3.26666e-19 -9.87846e-16 0)
(-3.58474e-19 -9.87839e-16 0)
(-3.94516e-19 -9.87831e-16 0)
(-4.35597e-19 -9.87822e-16 0)
(-4.82663e-19 -9.87813e-16 0)
(-5.36789e-19 -9.87805e-16 0)
(-5.99073e-19 -9.87802e-16 0)
(-6.7007e-19 -9.87815e-16 0)
(-7.24892e-19 -9.87853e-16 0)
(-7.58051e-19 -9.87894e-16 0)
(-7.86032e-19 -9.87959e-16 0)
(-7.99723e-19 -9.88059e-16 0)
(-7.80902e-19 -9.88205e-16 0)
(-6.97317e-19 -9.88402e-16 0)
(-5.05686e-19 -9.88629e-16 0)
(-1.88545e-19 -9.88799e-16 0)
(1.88545e-19 -9.88799e-16 0)
(5.05686e-19 -9.88629e-16 0)
(6.97317e-19 -9.88402e-16 0)
(7.80902e-19 -9.88205e-16 0)
(7.99723e-19 -9.88059e-16 0)
(7.86032e-19 -9.87959e-16 0)
(7.58051e-19 -9.87894e-16 0)
(7.24892e-19 -9.87853e-16 0)
(6.7007e-19 -9.87815e-16 0)
(5.99073e-19 -9.87802e-16 0)
(5.36789e-19 -9.87805e-16 0)
(4.82663e-19 -9.87813e-16 0)
(4.35597e-19 -9.87822e-16 0)
(3.94516e-19 -9.87831e-16 0)
(3.58474e-19 -9.87839e-16 0)
(3.26666e-19 -9.87846e-16 0)
(2.98415e-19 -9.87852e-16 0)
(2.73161e-19 -9.87856e-16 0)
(2.50439e-19 -9.87861e-16 0)
(2.29865e-19 -9.87864e-16 0)
(2.11121e-19 -9.87867e-16 0)
(1.9394e-19 -9.8787e-16 0)
(1.78102e-19 -9.87872e-16 0)
(1.6342e-19 -9.87874e-16 0)
(1.49737e-19 -9.87875e-16 0)
(1.3692e-19 -9.87877e-16 0)
(1.24854e-19 -9.87878e-16 0)
(1.13441e-19 -9.87879e-16 0)
(1.02594e-19 -9.8788e-16 0)
(9.22396e-20 -9.87881e-16 0)
(8.23114e-20 -9.87882e-16 0)
(7.2751e-20 -9.87882e-16 0)
(6.3506e-20 -9.87883e-16 0)
(5.45292e-20 -9.87883e-16 0)
(4.57773e-20 -9.87883e-16 0)
(3.72105e-20 -9.87884e-16 0)
(2.87918e-20 -9.87884e-16 0)
(2.04861e-20 -9.87884e-16 0)
(1.22601e-20 -9.87884e-16 0)
(4.08146e-21 -9.87884e-16 0)
(-4.07019e-21 -9.87881e-16 0)
(-1.22261e-20 -9.87881e-16 0)
(-2.04289e-20 -9.87881e-16 0)
(-2.87106e-20 -9.87881e-16 0)
(-3.71042e-20 -9.87881e-16 0)
(-4.56443e-20 -9.8788e-16 0)
(-5.43676e-20 -9.8788e-16 0)
(-6.33133e-20 -9.87879e-16 0)
(-7.25242e-20 -9.87879e-16 0)
(-8.20468e-20 -9.87878e-16 0)
(-9.19327e-20 -9.87877e-16 0)
(-1.02239e-19 -9.87876e-16 0)
(-1.13032e-19 -9.87875e-16 0)
(-1.24383e-19 -9.87874e-16 0)
(-1.36378e-19 -9.87872e-16 0)
(-1.49111e-19 -9.8787e-16 0)
(-1.62696e-19 -9.87869e-16 0)
(-1.77263e-19 -9.87866e-16 0)
(-1.92965e-19 -9.87864e-16 0)
(-2.09984e-19 -9.8786e-16 0)
(-2.28535e-19 -9.87857e-16 0)
(-2.48878e-19 -9.87853e-16 0)
(-2.71322e-19 -9.87848e-16 0)
(-2.96248e-19 -9.87842e-16 0)
(-3.24115e-19 -9.87835e-16 0)
(-3.55495e-19 -9.87827e-16 0)
(-3.91099e-19 -9.87817e-16 0)
(-4.31844e-19 -9.87806e-16 0)
(-4.7895e-19 -9.87794e-16 0)
(-5.34175e-19 -9.87783e-16 0)
(-6.0029e-19 -9.87776e-16 0)
(-6.82004e-19 -9.87784e-16 0)
(-7.52108e-19 -9.87818e-16 0)
(-8.0394e-19 -9.87857e-16 0)
(-8.59723e-19 -9.87925e-16 0)
(-9.13251e-19 -9.88036e-16 0)
(-9.45704e-19 -9.88215e-16 0)
(-9.09979e-19 -9.8849e-16 0)
(-7.12903e-19 -9.88865e-16 0)
(-2.79515e-19 -1.5494e-15 0)
(2.79515e-19 -1.5494e-15 0)
(7.12903e-19 -9.88865e-16 0)
(9.09979e-19 -9.8849e-16 0)
(9.45704e-19 -9.88215e-16 0)
(9.13251e-19 -9.88036e-16 0)
(8.59723e-19 -9.87925e-16 0)
(8.0394e-19 -9.87857e-16 0)
(7.52108e-19 -9.87818e-16 0)
(6.82004e-19 -9.87784e-16 0)
(6.0029e-19 -9.87776e-16 0)
(5.34175e-19 -9.87783e-16 0)
(4.7895e-19 -9.87794e-16 0)
(4.31844e-19 -9.87806e-16 0)
(3.91099e-19 -9.87817e-16 0)
(3.55495e-19 -9.87827e-16 0)
(3.24115e-19 -9.87835e-16 0)
(2.96248e-19 -9.87842e-16 0)
(2.71322e-19 -9.87848e-16 0)
(2.48878e-19 -9.87853e-16 0)
(2.28535e-19 -9.87857e-16 0)
(2.09984e-19 -9.8786e-16 0)
(1.92965e-19 -9.87864e-16 0)
(1.77263e-19 -9.87866e-16 0)
(1.62696e-19 -9.87869e-16 0)
(1.49111e-19 -9.8787e-16 0)
(1.36378e-19 -9.87872e-16 0)
(1.24383e-19 -9.87874e-16 0)
(1.13032e-19 -9.87875e-16 0)
(1.02239e-19 -9.87876e-16 0)
(9.19327e-20 -9.87877e-16 0)
(8.20468e-20 -9.87878e-16 0)
(7.25242e-20 -9.87879e-16 0)
(6.33133e-20 -9.87879e-16 0)
(5.43676e-20 -9.8788e-16 0)
(4.56443e-20 -9.8788e-16 0)
(3.71042e-20 -9.87881e-16 0)
(2.87106e-20 -9.87881e-16 0)
(2.04289e-20 -9.87881e-16 0)
(1.22261e-20 -9.87881e-16 0)
(4.07019e-21 -9.87881e-16 0)
(-4.05536e-21 -9.87878e-16 0)
(-1.21814e-20 -9.87878e-16 0)
(-2.03538e-20 -9.87878e-16 0)
(-2.86039e-20 -9.87877e-16 0)
(-3.69645e-20 -9.87877e-16 0)
(-4.54695e-20 -9.87877e-16 0)
(-5.41552e-20 -9.87876e-16 0)
(-6.30601e-20 -9.87876e-16 0)
(-7.22261e-20 -9.87875e-16 0)
(-8.16991e-20 -9.87874e-16 0)
(-9.15295e-20 -9.87873e-16 0)
(-1.01774e-19 -9.87872e-16 0)
(-1.12495e-19 -9.87871e-16 0)
(-1.23765e-19 -9.87869e-16 0)
(-1.35665e-19 -9.87867e-16 0)
(-1.4829e-19 -9.87865e-16 0)
(-1.61747e-19 -9.87863e-16 0)
(-1.76164e-19 -9.8786e-16 0)
(-1.91688e-19 -9.87857e-16 0)
(-2.08495e-19 -9.87853e-16 0)
(-2.26793e-19 -9.87849e-16 0)
(-2.46832e-19 -9.87844e-16 0)
(-2.68914e-19 -9.87838e-16 0)
(-2.93406e-19 -9.87831e-16 0)
(-3.20763e-19 -9.87823e-16 0)
(-3.51559e-19 -9.87813e-16 0)
(-3.8654e-19 -9.87802e-16 0)
(-4.26722e-19 -9.87789e-16 0)
(-4.73596e-19 -9.87774e-16 0)
(-5.29589e-19 -9.87758e-16 0)
(-5.99161e-19 -9.87745e-16 0)
(-6.9147e-19 -9.87743e-16 0)
(-7.77703e-19 -9.87765e-16 0)
(-8.51111e-19 -9.87795e-16 0)
(-9.42352e-19 -9.87851e-16 0)
(-1.05463e-18 -9.87955e-16 0)
(-1.18099e-18 -9.88146e-16 0)
(-1.27227e-18 -9.88503e-16 0)
(-1.67372e-18 -9.98683e-16 0)
(-1.02432e-18 -8.80821e-07 0)
(1.02432e-18 -8.80821e-07 0)
(1.67372e-18 -9.98683e-16 0)
(1.27227e-18 -9.88503e-16 0)
(1.18099e-18 -9.88146e-16 0)
(1.05463e-18 -9.87955e-16 0)
(9.42352e-19 -9.87851e-16 0)
(8.51111e-19 -9.87795e-16 0)
(7.77703e-19 -9.87765e-16 0)
(6.9147e-19 -9.87743e-16 0)
(5.99161e-19 -9.87745e-16 0)
(5.29589e-19 -9.87758e-16 0)
(4.73596e-19 -9.87774e-16 0)
(4.26722e-19 -9.87789e-16 0)
(3.8654e-19 -9.87802e-16 0)
(3.51559e-19 -9.87813e-16 0)
(3.20763e-19 -9.87823e-16 0)
(2.93406e-19 -9.87831e-16 0)
(2.68914e-19 -9.87838e-16 0)
(2.46832e-19 -9.87844e-16 0)
(2.26793e-19 -9.87849e-16 0)
(2.08495e-19 -9.87853e-16 0)
(1.91688e-19 -9.87857e-16 0)
(1.76164e-19 -9.8786e-16 0)
(1.61747e-19 -9.87863e-16 0)
(1.4829e-19 -9.87865e-16 0)
(1.35665e-19 -9.87867e-16 0)
(1.23765e-19 -9.87869e-16 0)
(1.12495e-19 -9.87871e-16 0)
(1.01774e-19 -9.87872e-16 0)
(9.15295e-20 -9.87873e-16 0)
(8.16991e-20 -9.87874e-16 0)
(7.22261e-20 -9.87875e-16 0)
(6.30601e-20 -9.87876e-16 0)
(5.41552e-20 -9.87876e-16 0)
(4.54695e-20 -9.87877e-16 0)
(3.69645e-20 -9.87877e-16 0)
(2.86039e-20 -9.87877e-16 0)
(2.03538e-20 -9.87878e-16 0)
(1.21814e-20 -9.87878e-16 0)
(4.05536e-21 -9.87878e-16 0)
(-4.03618e-21 -9.87874e-16 0)
(-1.21236e-20 -9.87874e-16 0)
(-2.02566e-20 -9.87874e-16 0)
(-2.84659e-20 -9.87874e-16 0)
(-3.67838e-20 -9.87873e-16 0)
(-4.52435e-20 -9.87873e-16 0)
(-5.38805e-20 -9.87872e-16 0)
(-6.27327e-20 -9.87872e-16 0)
(-7.18409e-20 -9.87871e-16 0)
(-8.12498e-20 -9.8787e-16 0)
(-9.10087e-20 -9.87869e-16 0)
(-1.01172e-19 -9.87867e-16 0)
(-1.11802e-19 -9.87866e-16 0)
(-1.22967e-19 -9.87864e-16 0)
(-1.34747e-19 -9.87862e-16 0)
(-1.47231e-19 -9.87859e-16 0)
(-1.60524e-19 -9.87857e-16 0)
(-1.74748e-19 -9.87853e-16 0)
(-1.90044e-19 -9.8785e-16 0)
(-2.06579e-19 -9.87846e-16 0)
(-2.24552e-19 -9.87841e-16 0)
(-2.44201e-19 -9.87835e-16 0)
(-2.65814e-19 -9.87828e-16 0)
(-2.89744e-19 -9.8782e-16 0)
(-3.16432e-19 -9.8781e-16 0)
(-3.46448e-19 -9.87799e-16 0)
(-3.80552e-19 -9.87785e-16 0)
(-4.19833e-19 -9.8777e-16 0)
(-4.65989e-19 -9.87751e-16 0)
(-5.21978e-19 -9.87731e-16 0)
(-5.93602e-19 -9.8771e-16 0)
(-6.93709e-19 -9.87693e-16 0)
(-7.92945e-19 -9.87692e-16 0)
(-8.85692e-19 -9.877e-16 0)
(-1.01274e-18 -9.87725e-16 0)
(-1.19614e-18 -9.87781e-16 0)
(-1.47281e-18 -9.87909e-16 0)
(-1.91567e-18 -9.8824e-16 0)
(-4.98403e-09 -3.07796e-08 0)
(-4.98403e-09 -0.000122911 0)
(4.98403e-09 -0.000122911 0)
(4.98403e-09 -3.07796e-08 0)
(1.91567e-18 -9.8824e-16 0)
(1.47281e-18 -9.87909e-16 0)
(1.19614e-18 -9.87781e-16 0)
(1.01274e-18 -9.87725e-16 0)
(8.85692e-19 -9.877e-16 0)
(7.92945e-19 -9.87692e-16 0)
(6.93709e-19 -9.87693e-16 0)
(5.93602e-19 -9.8771e-16 0)
(5.21978e-19 -9.87731e-16 0)
(4.65989e-19 -9.87751e-16 0)
(4.19833e-19 -9.8777e-16 0)
(3.80552e-19 -9.87785e-16 0)
(3.46448e-19 -9.87799e-16 0)
(3.16432e-19 -9.8781e-16 0)
(2.89744e-19 -9.8782e-16 0)
(2.65814e-19 -9.87828e-16 0)
(2.44201e-19 -9.87835e-16 0)
(2.24552e-19 -9.87841e-16 0)
(2.06579e-19 -9.87846e-16 0)
(1.90044e-19 -9.8785e-16 0)
(1.74748e-19 -9.87853e-16 0)
(1.60524e-19 -9.87857e-16 0)
(1.47231e-19 -9.87859e-16 0)
(1.34747e-19 -9.87862e-16 0)
(1.22967e-19 -9.87864e-16 0)
(1.11802e-19 -9.87866e-16 0)
(1.01172e-19 -9.87867e-16 0)
(9.10087e-20 -9.87869e-16 0)
(8.12498e-20 -9.8787e-16 0)
(7.18409e-20 -9.87871e-16 0)
(6.27327e-20 -9.87872e-16 0)
(5.38805e-20 -9.87872e-16 0)
(4.52435e-20 -9.87873e-16 0)
(3.67838e-20 -9.87873e-16 0)
(2.84659e-20 -9.87874e-16 0)
(2.02566e-20 -9.87874e-16 0)
(1.21236e-20 -9.87874e-16 0)
(4.03618e-21 -9.87874e-16 0)
(-4.01169e-21 -9.8787e-16 0)
(-1.20498e-20 -9.8787e-16 0)
(-2.01324e-20 -9.8787e-16 0)
(-2.82898e-20 -9.8787e-16 0)
(-3.65531e-20 -9.87869e-16 0)
(-4.49551e-20 -9.87869e-16 0)
(-5.35301e-20 -9.87868e-16 0)
(-6.2315e-20 -9.87867e-16 0)
(-7.13496e-20 -9.87866e-16 0)
(-8.0677e-20 -9.87865e-16 0)
(-9.03449e-20 -9.87864e-16 0)
(-1.00406e-19 -9.87862e-16 0)
(-1.1092e-19 -9.8786e-16 0)
(-1.21952e-19 -9.87858e-16 0)
(-1.33578e-19 -9.87856e-16 0)
(-1.45884e-19 -9.87853e-16 0)
(-1.5897e-19 -9.8785e-16 0)
(-1.72949e-19 -9.87846e-16 0)
(-1.87957e-19 -9.87842e-16 0)
(-2.04148e-19 -9.87837e-16 0)
(-2.2171e-19 -9.87831e-16 0)
(-2.40866e-19 -9.87825e-16 0)
(-2.61884e-19 -9.87817e-16 0)
(-2.85097e-19 -9.87808e-16 0)
(-3.10922e-19 -9.87797e-16 0)
(-3.39906e-19 -9.87783e-16 0)
(-3.72799e-19 -9.87768e-16 0)
(-4.10704e-19 -9.87749e-16 0)
(-4.55399e-19 -9.87727e-16 0)
(-5.10055e-19 -9.87701e-16 0)
(-5.80991e-19 -9.8767e-16 0)
(-6.82328e-19 -9.87634e-16 0)
(-7.84941e-19 -9.87602e-16 0)
(-8.83913e-19 -9.87579e-16 0)
(-1.02474e-18 -9.8755e-16 0)
(-1.24338e-18 -9.87511e-16 0)
(-1.62454e-18 -9.87449e-16 0)
(-1.30765e-10 -2.29875e-13 0)
(-7.60612e-06 -7.79978e-05 0)
(-7.60599e-06 -0.000282976 0)
(7.60599e-06 -0.000282976 0)
(7.60612e-06 -7.79978e-05 0)
(1.30765e-10 -2.29875e-13 0)
(1.62454e-18 -9.87449e-16 0)
(1.24338e-18 -9.87511e-16 0)
(1.02474e-18 -9.8755e-16 0)
(8.83913e-19 -9.87579e-16 0)
(7.84941e-19 -9.87602e-16 0)
(6.82328e-19 -9.87634e-16 0)
(5.80991e-19 -9.8767e-16 0)
(5.10055e-19 -9.87701e-16 0)
(4.55399e-19 -9.87727e-16 0)
(4.10704e-19 -9.87749e-16 0)
(3.72799e-19 -9.87768e-16 0)
(3.39906e-19 -9.87783e-16 0)
(3.10922e-19 -9.87797e-16 0)
(2.85097e-19 -9.87808e-16 0)
(2.61884e-19 -9.87817e-16 0)
(2.40866e-19 -9.87825e-16 0)
(2.2171e-19 -9.87831e-16 0)
(2.04148e-19 -9.87837e-16 0)
(1.87957e-19 -9.87842e-16 0)
(1.72949e-19 -9.87846e-16 0)
(1.5897e-19 -9.8785e-16 0)
(1.45884e-19 -9.87853e-16 0)
(1.33578e-19 -9.87856e-16 0)
(1.21952e-19 -9.87858e-16 0)
(1.1092e-19 -9.8786e-16 0)
(1.00406e-19 -9.87862e-16 0)
(9.03449e-20 -9.87864e-16 0)
(8.0677e-20 -9.87865e-16 0)
(7.13496e-20 -9.87866e-16 0)
(6.2315e-20 -9.87867e-16 0)
(5.35301e-20 -9.87868e-16 0)
(4.49551e-20 -9.87869e-16 0)
(3.65531e-20 -9.87869e-16 0)
(2.82898e-20 -9.8787e-16 0)
(2.01324e-20 -9.8787e-16 0)
(1.20498e-20 -9.8787e-16 0)
(4.01169e-21 -9.8787e-16 0)
(-3.98077e-21 -9.87866e-16 0)
(-1.19567e-20 -9.87866e-16 0)
(-1.99757e-20 -9.87866e-16 0)
(-2.80674e-20 -9.87865e-16 0)
(-3.6262e-20 -9.87865e-16 0)
(-4.45911e-20 -9.87864e-16 0)
(-5.3088e-20 -9.87863e-16 0)
(-6.17883e-20 -9.87862e-16 0)
(-7.07301e-20 -9.87861e-16 0)
(-7.99551e-20 -9.8786e-16 0)
(-8.95087e-20 -9.87858e-16 0)
(-9.94413e-20 -9.87857e-16 0)
(-1.09809e-19 -9.87855e-16 0)
(-1.20675e-19 -9.87852e-16 0)
(-1.32109e-19 -9.8785e-16 0)
(-1.44193e-19 -9.87846e-16 0)
(-1.57019e-19 -9.87843e-16 0)
(-1.70694e-19 -9.87839e-16 0)
(-1.85341e-19 -9.87834e-16 0)
(-2.01105e-19 -9.87828e-16 0)
(-2.18156e-19 -9.87822e-16 0)
(-2.36696e-19 -9.87814e-16 0)
(-2.5697e-19 -9.87805e-16 0)
(-2.79281e-19 -9.87795e-16 0)
(-3.04009e-19 -9.87782e-16 0)
(-3.31656e-19 -9.87767e-16 0)
(-3.62917e-19 -9.8775e-16 0)
(-3.98825e-19 -9.87728e-16 0)
(-4.41043e-19 -9.87702e-16 0)
(-4.92499e-19 -9.87669e-16 0)
(-5.58798e-19 -9.87628e-16 0)
(-6.51552e-19 -9.87572e-16 0)
(-7.42221e-19 -9.87508e-16 0)
(-8.23682e-19 -9.87455e-16 0)
(-9.29552e-19 -9.87378e-16 0)
(-1.06894e-18 -9.87255e-16 0)
(-3.17755e-16 -9.87045e-16 0)
(-4.72589e-06 -2.19772e-09 0)
(-7.96308e-06 -0.000229301 0)
(-3.23719e-06 -0.00033039 0)
(3.23719e-06 -0.00033039 0)
(7.96308e-06 -0.000229301 0)
(4.72589e-06 -2.19772e-09 0)
(3.17755e-16 -9.87045e-16 0)
(1.06894e-18 -9.87255e-16 0)
(9.29552e-19 -9.87378e-16 0)
(8.23682e-19 -9.87455e-16 0)
(7.42221e-19 -9.87508e-16 0)
(6.51552e-19 -9.87572e-16 0)
(5.58798e-19 -9.87628e-16 0)
(4.92499e-19 -9.87669e-16 0)
(4.41043e-19 -9.87702e-16 0)
(3.98825e-19 -9.87728e-16 0)
(3.62917e-19 -9.8775e-16 0)
(3.31656e-19 -9.87767e-16 0)
(3.04009e-19 -9.87782e-16 0)
(2.79281e-19 -9.87795e-16 0)
(2.5697e-19 -9.87805e-16 0)
(2.36696e-19 -9.87814e-16 0)
(2.18156e-19 -9.87822e-16 0)
(2.01105e-19 -9.87828e-16 0)
(1.85341e-19 -9.87834e-16 0)
(1.70694e-19 -9.87839e-16 0)
(1.57019e-19 -9.87843e-16 0)
(1.44193e-19 -9.87846e-16 0)
(1.32109e-19 -9.8785e-16 0)
(1.20675e-19 -9.87852e-16 0)
(1.09809e-19 -9.87855e-16 0)
(9.94413e-20 -9.87857e-16 0)
(8.95087e-20 -9.87858e-16 0)
(7.99551e-20 -9.8786e-16 0)
(7.07301e-20 -9.87861e-16 0)
(6.17883e-20 -9.87862e-16 0)
(5.3088e-20 -9.87863e-16 0)
(4.45911e-20 -9.87864e-16 0)
(3.6262e-20 -9.87865e-16 0)
(2.80674e-20 -9.87865e-16 0)
(1.99757e-20 -9.87866e-16 0)
(1.19567e-20 -9.87866e-16 0)
(3.98077e-21 -9.87866e-16 0)
(-3.94211e-21 -9.87861e-16 0)
(-1.18402e-20 -9.87861e-16 0)
(-1.97798e-20 -9.87861e-16 0)
(-2.77895e-20 -9.87861e-16 0)
(-3.58982e-20 -9.8786e-16 0)
(-4.41363e-20 -9.87859e-16 0)
(-5.25358e-20 -9.87858e-16 0)
(-6.11306e-20 -9.87857e-16 0)
(-6.9957e-20 -9.87856e-16 0)
(-7.90545e-20 -9.87855e-16 0)
(-8.84661e-20 -9.87853e-16 0)
(-9.82391e-20 -9.87851e-16 0)
(-1.08426e-19 -9.87848e-16 0)
(-1.19085e-19 -9.87846e-16 0)
(-1.30283e-19 -9.87843e-16 0)
(-1.42093e-19 -9.87839e-16 0)
(-1.54599e-19 -9.87835e-16 0)
(-1.67899e-19 -9.8783e-16 0)
(-1.82104e-19 -9.87825e-16 0)
(-1.97342e-19 -9.87819e-16 0)
(-2.13764e-19 -9.87812e-16 0)
(-2.31548e-19 -9.87803e-16 0)
(-2.50907e-19 -9.87793e-16 0)
(-2.72102e-19 -9.87781e-16 0)
(-2.95461e-19 -9.87767e-16 0)
(-3.21412e-19 -9.87751e-16 0)
(-3.50541e-19 -9.87731e-16 0)
(-3.83707e-19 -9.87706e-16 0)
(-4.2224e-19 -9.87676e-16 0)
(-4.68332e-19 -9.87638e-16 0)
(-5.25702e-19 -9.87587e-16 0)
(-6.0049e-19 -9.87515e-16 0)
(-6.66899e-19 -9.8743e-16 0)
(-7.16731e-19 -9.87361e-16 0)
(-7.6899e-19 -9.87266e-16 0)
(-8.13839e-19 -9.87129e-16 0)
(-2.18247e-12 -9.87083e-16 0)
(-8.86397e-06 -4.19725e-08 0)
(-1.1684e-05 -0.000317013 0)
(-2.82007e-06 -0.000344815 0)