/*--------------------------------*- C++ -*----------------------------------*\
  =========                 |
  \\      /  F ield         | OpenFOAM: The Open Source CFD Toolbox
   \\    /   O peration     | Website:  https://openfoam.org
    \\  /    A nd           | Version:  10
     \\/     M anipulation  |
\*---------------------------------------------------------------------------*/
FoamFile
{
    format      ascii;
    class       volVectorField;
    location    "0.07";
    object      U;
}
// * * * * * * * * * * * * * * * * * * * * * * * * * * * * * * * * * * * * * //

dimensions      [0 1 -1 0 0 0 0];

internalField   nonuniform List<vector> 
4000
(
(5.00001 -7.39239e-05 0)
(5.00018 -0.000222591 0)
(5.00049 -0.000369955 0)
(5.00096 -0.000517345 0)
(5.00158 -0.000665735 0)
(5.00235 -0.000813754 0)
(5.00326 -0.000963272 0)
(5.00432 -0.00111244 0)
(5.00553 -0.00126363 0)
(5.0069 -0.00141454 0)
(5.00841 -0.00156807 0)
(5.01008 -0.00172153 0)
(5.0119 -0.00187831 0)
(5.01388 -0.00203531 0)
(5.01602 -0.00219642 0)
(5.01832 -0.00235814 0)
(5.02078 -0.00252481 0)
(5.02341 -0.00269255 0)
(5.02621 -0.00286619 0)
(5.02919 -0.00304144 0)
(5.03234 -0.0032236 0)
(5.03568 -0.00340799 0)
(5.0392 -0.00360037 0)
(5.04292 -0.0037957 0)
(5.04684 -0.00400016 0)
(5.05096 -0.00420836 0)
(5.0553 -0.00442692 0)
(5.05985 -0.00465009 0)
(5.06464 -0.00488489 0)
(5.06966 -0.00512522 0)
(5.07493 -0.00537854 0)
(5.08046 -0.00563836 0)
(5.08626 -0.00591256 0)
(5.09233 -0.0061943 0)
(5.09869 -0.00649184 0)
(5.10535 -0.006798 0)
(5.11233 -0.00712144 0)
(5.11964 -0.00745458 0)
(5.12729 -0.00780653 0)
(5.1353 -0.00816931 0)
(5.14368 -0.00855241 0)
(5.15245 -0.00894749 0)
(5.16162 -0.00936441 0)
(5.17122 -0.00979444 0)
(5.18126 -0.0102478 0)
(5.19176 -0.0107154 0)
(5.20275 -0.0112078 0)
(5.21423 -0.0117154 0)
(5.22623 -0.0122492 0)
(5.23878 -0.0127991 0)
(5.25189 -0.0133764 0)
(5.26558 -0.0139704 0)
(5.27989 -0.0145929 0)
(5.29483 -0.0152325 0)
(5.31042 -0.0159011 0)
(5.32669 -0.0165868 0)
(5.34366 -0.0173018 0)
(5.36136 -0.0180333 0)
(5.3798 -0.0187936 0)
(5.39901 -0.0195689 0)
(5.41902 -0.0203718 0)
(5.43984 -0.0211874 0)
(5.46148 -0.022028 0)
(5.48398 -0.0228778 0)
(5.50734 -0.0237488 0)
(5.53158 -0.0246238 0)
(5.55671 -0.0255146 0)
(5.58273 -0.0264025 0)
(5.60965 -0.0272989 0)
(5.63747 -0.0281837 0)
(5.66618 -0.0290677 0)
(5.69578 -0.0299294 0)
(5.72623 -0.0307793 0)
(5.75753 -0.0315944 0)
(5.78965 -0.0323851 0)
(5.82254 -0.0331275 0)
(5.85616 -0.033832 0)
(5.89047 -0.034474 0)
(5.9254 -0.0350647 0)
(5.9609 -0.0355797 0)
(5.99689 -0.0360311 0)
(6.0333 -0.0363954 0)
(6.07004 -0.0366862 0)
(6.10703 -0.0368815 0)
(6.14418 -0.0369971 0)
(6.18141 -0.0370128 0)
(6.21861 -0.0369468 0)
(6.2557 -0.0367809 0)
(6.29258 -0.0365358 0)
(6.32917 -0.0361951 0)
(6.36538 -0.0357818 0)
(6.40113 -0.0352812 0)
(6.43634 -0.0347178 0)
(6.47095 -0.034078 0)
(6.50489 -0.0333877 0)
(6.5381 -0.0326337 0)
(6.57052 -0.0318423 0)
(6.60213 -0.0310005 0)
(6.63287 -0.0301345 0)
(6.66272 -0.0292311 0)
(6.69165 -0.0283162 0)
(6.71966 -0.0273758 0)
(6.74671 -0.0264354 0)
(6.77281 -0.0254804 0)
(6.79796 -0.0245357 0)
(6.82216 -0.0235857 0)
(6.84542 -0.0226549 0)
(6.86775 -0.0217267 0)
(6.88916 -0.020825 0)
(6.90968 -0.0199325 0)
(6.92932 -0.0190725 0)
(6.94811 -0.0182263 0)
(6.96608 -0.0174172 0)
(6.98325 -0.0166252 0)
(6.99964 -0.0158732 0)
(7.01529 -0.01514 0)
(7.03023 -0.0144486 0)
(7.04449 -0.0137765 0)
(7.05809 -0.0131469 0)
(7.07107 -0.0125359 0)
(7.08345 -0.0119674 0)
(7.09528 -0.0114162 0)
(7.10657 -0.010907 0)
(7.11737 -0.0104135 0)
(7.12768 -0.00996114 0)
(7.13756 -0.00952258 0)
(7.14701 -0.00912441 0)
(7.15607 -0.00873802 0)
(7.16477 -0.00839134 0)
(7.17313 -0.00805439 0)
(7.18117 -0.00775662 0)
(7.18893 -0.00746654 0)
(7.19641 -0.00721526 0)
(7.20365 -0.00696964 0)
(7.21066 -0.00676258 0)
(7.21748 -0.00655917 0)
(7.2241 -0.00639423 0)
(7.23057 -0.00623093 0)
(7.23689 -0.00610617 0)
(7.2431 -0.00598108 0)
(7.24919 -0.00589479 0)
(7.2552 -0.00580623 0)
(7.26114 -0.00575688 0)
(7.26703 -0.00570336 0)
(7.27288 -0.00568956 0)
(7.27872 -0.00566963 0)
(7.28455 -0.00568997 0)
(7.2904 -0.00570204 0)
(7.29628 -0.00575478 0)
(7.30221 -0.00579685 0)
(7.30819 -0.00587979 0)
(7.31425 -0.00594923 0)
(7.32039 -0.00605951 0)
(7.32664 -0.00615309 0)
(7.33299 -0.00628739 0)
(7.33947 -0.00640149 0)
(7.34607 -0.00655636 0)
(7.35282 -0.00668756 0)
(7.3597 -0.00686025 0)
(7.36676 -0.00700609 0)
(7.37396 -0.0071954 0)
(7.38135 -0.0073554 0)
(7.3889 -0.00756266 0)
(7.39667 -0.00773916 0)
(7.40462 -0.007969 0)
(7.41281 -0.00816772 0)
(7.42119 -0.00842838 0)
(7.42986 -0.00865857 0)
(7.43875 -0.0089617 0)
(7.44799 -0.00923563 0)
(7.45749 -0.00959556 0)
(7.46739 -0.00992754 0)
(7.47762 -0.0103599 0)
(7.48833 -0.0107649 0)
(7.49945 -0.0112851 0)
(7.51113 -0.0117766 0)
(7.5233 -0.0123976 0)
(7.53615 -0.0129861 0)
(7.54958 -0.0137162 0)
(7.56379 -0.0144067 0)
(7.5787 -0.0152476 0)
(7.59448 -0.0160377 0)
(7.61106 -0.0169824 0)
(7.62861 -0.0178609 0)
(7.64707 -0.0188929 0)
(7.66656 -0.0198385 0)
(7.68702 -0.0209308 0)
(7.70856 -0.0219127 0)
(7.7311 -0.0230295 0)
(7.75471 -0.0240093 0)
(7.77931 -0.0251087 0)
(7.80496 -0.0260437 0)
(7.83153 -0.0270817 0)
(7.85911 -0.0279281 0)
(7.88756 -0.0288635 0)
(7.91697 -0.0295829 0)
(7.9471 -0.0303676 0)
(7.97934 -0.0309729 0)
(8.00332 -0.0314993 0)
(8.05341 -0.0321052 0)
(5.00001 -0.00022139 0)
(5.00018 -0.000666385 0)
(5.00049 -0.00110696 0)
(5.00096 -0.0015486 0)
(5.00158 -0.00199205 0)
(5.00234 -0.00243574 0)
(5.00325 -0.00288231 0)
(5.00431 -0.00332964 0)
(5.00552 -0.00378098 0)
(5.00687 -0.00423375 0)
(5.00838 -0.00469194 0)
(5.01004 -0.00515253 0)
(5.01186 -0.00562024 0)
(5.01383 -0.00609159 0)
(5.01596 -0.00657199 0)
(5.01824 -0.00705752 0)
(5.02069 -0.00755427 0)
(5.02331 -0.00805791 0)
(5.0261 -0.00857517 0)
(5.02905 -0.00910134 0)
(5.03219 -0.00964379 0)
(5.03551 -0.0101974 0)
(5.03901 -0.0107702 0)
(5.0427 -0.0113566 0)
(5.04659 -0.0119654 0)
(5.05069 -0.0125905 0)
(5.055 -0.0132413 0)
(5.05952 -0.0139114 0)
(5.06427 -0.0146107 0)
(5.06926 -0.0153324 0)
(5.07449 -0.0160869 0)
(5.07998 -0.0168672 0)
(5.08573 -0.0176841 0)
(5.09176 -0.0185301 0)
(5.09807 -0.0194168 0)
(5.10468 -0.0203361 0)
(5.11161 -0.0213002 0)
(5.11886 -0.0223005 0)
(5.12645 -0.0233497 0)
(5.1344 -0.0244389 0)
(5.14271 -0.0255813 0)
(5.15142 -0.0267674 0)
(5.16052 -0.0280108 0)
(5.17005 -0.0293018 0)
(5.18002 -0.0306543 0)
(5.19044 -0.0320579 0)
(5.20135 -0.0335272 0)
(5.21275 -0.035051 0)
(5.22467 -0.0366442 0)
(5.23713 -0.0382951 0)
(5.25015 -0.0400189 0)
(5.26376 -0.0418027 0)
(5.27798 -0.0436622 0)
(5.29283 -0.0455835 0)
(5.30833 -0.0475821 0)
(5.32451 -0.0496431 0)
(5.34139 -0.0517818 0)
(5.359 -0.0539817 0)
(5.37736 -0.0562577 0)
(5.39649 -0.0585916 0)
(5.41642 -0.0609974 0)
(5.43716 -0.0634547 0)
(5.45875 -0.0659765 0)
(5.48119 -0.0685398 0)
(5.5045 -0.0711559 0)
(5.52871 -0.0737988 0)
(5.55381 -0.0764779 0)
(5.57983 -0.0791639 0)
(5.60676 -0.0818638 0)
(5.63461 -0.0845447 0)
(5.66337 -0.0872112 0)
(5.69303 -0.089827 0)
(5.72359 -0.0923943 0)
(5.75501 -0.0948735 0)
(5.78728 -0.0972653 0)
(5.82034 -0.0995278 0)
(5.85417 -0.101661 0)
(5.88871 -0.103622 0)
(5.92391 -0.105412 0)
(5.95969 -0.106989 0)
(5.99599 -0.108357 0)
(6.03272 -0.109477 0)
(6.06981 -0.110356 0)
(6.10716 -0.110962 0)
(6.14468 -0.111308 0)
(6.18227 -0.111367 0)
(6.21984 -0.11116 0)
(6.2573 -0.110666 0)
(6.29453 -0.109913 0)
(6.33147 -0.108887 0)
(6.368 -0.107622 0)
(6.40406 -0.106109 0)
(6.43956 -0.104388 0)
(6.47443 -0.102452 0)
(6.5086 -0.100346 0)
(6.54201 -0.0980641 0)
(6.57462 -0.0956521 0)
(6.60638 -0.0931065 0)
(6.63726 -0.0904718 0)
(6.66721 -0.0877438 0)
(6.69623 -0.0849658 0)
(6.72428 -0.0821317 0)
(6.75137 -0.0792831 0)
(6.77749 -0.0764111 0)
(6.80264 -0.0735554 0)
(6.82681 -0.0707043 0)
(6.85003 -0.067895 0)
(6.87231 -0.0651135 0)
(6.89366 -0.0623948 0)
(6.9141 -0.059722 0)
(6.93365 -0.0571285 0)
(6.95235 -0.0545946 0)
(6.97021 -0.0521521 0)
(6.98727 -0.0497789 0)
(7.00355 -0.0475054 0)
(7.01909 -0.045307 0)
(7.03391 -0.0432132 0)
(7.04805 -0.041197 0)
(7.06153 -0.0392874 0)
(7.07439 -0.0374553 0)
(7.08667 -0.0357298 0)
(7.09838 -0.0340794 0)
(7.10956 -0.0325338 0)
(7.12024 -0.0310598 0)
(7.13045 -0.0296878 0)
(7.14022 -0.0283829 0)
(7.14957 -0.0271768 0)
(7.15853 -0.0260328 0)
(7.16713 -0.0249842 0)
(7.17539 -0.0239926 0)
(7.18334 -0.023093 0)
(7.191 -0.0222453 0)
(7.1984 -0.0214865 0)
(7.20555 -0.0207746 0)
(7.21247 -0.0201489 0)
(7.2192 -0.0195654 0)
(7.22575 -0.0190658 0)
(7.23214 -0.0186039 0)
(7.23838 -0.018224 0)
(7.2445 -0.0178774 0)
(7.25052 -0.0176115 0)
(7.25645 -0.0173748 0)
(7.26231 -0.0172177 0)
(7.26813 -0.0170858 0)
(7.2739 -0.0170325 0)
(7.27967 -0.0170004 0)
(7.28542 -0.0170458 0)
(7.29121 -0.017108 0)
(7.29701 -0.0172465 0)
(7.30287 -0.0173968 0)
(7.30879 -0.0176213 0)
(7.31479 -0.0178517 0)
(7.32086 -0.018154 0)
(7.32705 -0.0184551 0)
(7.33335 -0.0188255 0)
(7.33977 -0.0191872 0)
(7.34632 -0.0196158 0)
(7.35302 -0.0200287 0)
(7.35986 -0.0205076 0)
(7.36687 -0.0209651 0)
(7.37402 -0.0214906 0)
(7.38137 -0.0219917 0)
(7.38886 -0.0225676 0)
(7.39657 -0.0231198 0)
(7.40444 -0.023759 0)
(7.41254 -0.0243798 0)
(7.42083 -0.0251058 0)
(7.42939 -0.025823 0)
(7.43816 -0.0266693 0)
(7.44724 -0.02752 0)
(7.45659 -0.0285281 0)
(7.4663 -0.0295558 0)
(7.47634 -0.0307718 0)
(7.48682 -0.0320223 0)
(7.4977 -0.0334921 0)
(7.50912 -0.0350085 0)
(7.52104 -0.0367723 0)
(7.53359 -0.0385886 0)
(7.54675 -0.040674 0)
(7.56066 -0.042809 0)
(7.57528 -0.0452245 0)
(7.59076 -0.0476745 0)
(7.60708 -0.0504032 0)
(7.62436 -0.0531374 0)
(7.64258 -0.0561328 0)
(7.66185 -0.0590889 0)
(7.68214 -0.062272 0)
(7.70353 -0.0653573 0)
(7.72597 -0.0686209 0)
(7.74951 -0.0717175 0)
(7.7741 -0.074934 0)
(7.79976 -0.0779091 0)
(7.8264 -0.0809423 0)
(7.85408 -0.0836604 0)
(7.88268 -0.0863791 0)
(7.9123 -0.088715 0)
(7.94256 -0.0909878 0)
(7.97521 -0.0928921 0)
(7.99927 -0.0944794 0)
(8.04982 -0.0963757 0)
(5.00001 -0.000368121 0)
(5.00018 -0.00110732 0)
(5.00049 -0.00183914 0)
(5.00095 -0.00257368 0)
(5.00157 -0.00330987 0)
(5.00233 -0.00404794 0)
(5.00323 -0.00478893 0)
(5.00429 -0.00553304 0)
(5.00549 -0.00628149 0)
(5.00684 -0.00703461 0)
(5.00833 -0.00779395 0)
(5.00998 -0.00855995 0)
(5.01178 -0.00933446 0)
(5.01374 -0.0101181 0)
(5.01585 -0.010913 0)
(5.01811 -0.0117199 0)
(5.02054 -0.0125412 0)
(5.02313 -0.0133779 0)
(5.02589 -0.0142326 0)
(5.02881 -0.0151064 0)
(5.03191 -0.0160024 0)
(5.03519 -0.0169216 0)
(5.03865 -0.0178674 0)
(5.04229 -0.0188411 0)
(5.04614 -0.0198462 0)
(5.05018 -0.020884 0)
(5.05442 -0.0219585 0)
(5.05889 -0.0230711 0)
(5.06357 -0.0242258 0)
(5.06849 -0.0254242 0)
(5.07364 -0.0266706 0)
(5.07905 -0.0279664 0)
(5.08471 -0.0293164 0)
(5.09065 -0.0307219 0)
(5.09686 -0.0321878 0)
(5.10338 -0.0337156 0)
(5.11019 -0.0353103 0)
(5.11733 -0.0369733 0)
(5.12481 -0.0387099 0)
(5.13263 -0.0405214 0)
(5.14082 -0.0424133 0)
(5.14939 -0.0443867 0)
(5.15836 -0.0464472 0)
(5.16775 -0.0485959 0)
(5.17756 -0.0508384 0)
(5.18784 -0.0531757 0)
(5.19858 -0.0556132 0)
(5.20982 -0.0581518 0)
(5.22158 -0.0607967 0)
(5.23387 -0.0635483 0)
(5.24671 -0.0664118 0)
(5.26015 -0.0693869 0)
(5.27418 -0.0724783 0)
(5.28885 -0.075685 0)
(5.30416 -0.0790109 0)
(5.32016 -0.0824539 0)
(5.33686 -0.0860168 0)
(5.35429 -0.0896961 0)
(5.37247 -0.0934928 0)
(5.39144 -0.0974016 0)
(5.4112 -0.101421 0)
(5.4318 -0.105544 0)
(5.45324 -0.109765 0)
(5.47556 -0.114074 0)
(5.49877 -0.118463 0)
(5.52289 -0.122916 0)
(5.54794 -0.127421 0)
(5.57393 -0.131959 0)
(5.60088 -0.136512 0)
(5.62877 -0.141054 0)
(5.65763 -0.145564 0)
(5.68743 -0.150009 0)
(5.71817 -0.154364 0)
(5.74984 -0.158592 0)
(5.78239 -0.162661 0)
(5.81581 -0.166531 0)
(5.85005 -0.17017 0)
(5.88506 -0.173537 0)
(5.92078 -0.176597 0)
(5.95713 -0.179312 0)
(5.99405 -0.181653 0)
(6.03145 -0.183587 0)
(6.06923 -0.185092 0)
(6.10731 -0.186145 0)
(6.14557 -0.186733 0)
(6.18391 -0.186844 0)
(6.22223 -0.186481 0)
(6.26043 -0.185643 0)
(6.29839 -0.184343 0)
(6.33601 -0.182593 0)
(6.37321 -0.180417 0)
(6.40989 -0.177837 0)
(6.44596 -0.174883 0)
(6.48135 -0.171584 0)
(6.51599 -0.167977 0)
(6.54982 -0.164093 0)
(6.58279 -0.159972 0)
(6.61485 -0.155645 0)
(6.64597 -0.151153 0)
(6.67612 -0.146525 0)
(6.70527 -0.1418 0)
(6.73343 -0.137004 0)
(6.76057 -0.132171 0)
(6.78669 -0.127325 0)
(6.81181 -0.122495 0)
(6.83592 -0.117699 0)
(6.85905 -0.112961 0)
(6.88121 -0.108296 0)
(6.90241 -0.103724 0)
(6.92269 -0.0992522 0)
(6.94206 -0.0948987 0)
(6.96056 -0.090668 0)
(6.97821 -0.0865732 0)
(6.99505 -0.0826162 0)
(7.0111 -0.078807 0)
(7.0264 -0.0751448 0)
(7.04098 -0.0716374 0)
(7.05487 -0.0682814 0)
(7.06811 -0.0650828 0)
(7.08073 -0.0620362 0)
(7.09276 -0.0591461 0)
(7.10423 -0.0564054 0)
(7.11518 -0.0538176 0)
(7.12563 -0.0513743 0)
(7.13561 -0.0490784 0)
(7.14515 -0.0469205 0)
(7.15429 -0.0449032 0)
(7.16304 -0.0430165 0)
(7.17144 -0.0412631 0)
(7.1795 -0.0396324 0)
(7.18726 -0.0381275 0)
(7.19473 -0.0367376 0)
(7.20194 -0.0354661 0)
(7.20892 -0.0343023 0)
(7.21568 -0.0332503 0)
(7.22224 -0.0322996 0)
(7.22862 -0.0314549 0)
(7.23486 -0.0307057 0)
(7.24094 -0.030058 0)
(7.24692 -0.0295012 0)
(7.25279 -0.0290419 0)
(7.25858 -0.0286696 0)
(7.26431 -0.0283915 0)
(7.26999 -0.0281967 0)
(7.27563 -0.0280927 0)
(7.28127 -0.0280679 0)
(7.28691 -0.0281301 0)
(7.29257 -0.0282666 0)
(7.29826 -0.028485 0)
(7.30401 -0.0287713 0)
(7.30983 -0.0291333 0)
(7.31573 -0.0295551 0)
(7.32172 -0.0300451 0)
(7.32782 -0.030585 0)
(7.33404 -0.0311848 0)
(7.34039 -0.031824 0)
(7.34687 -0.032515 0)
(7.35351 -0.0332356 0)
(7.36029 -0.0340022 0)
(7.36724 -0.0347915 0)
(7.37434 -0.0356257 0)
(7.38162 -0.0364814 0)
(7.38905 -0.0373877 0)
(7.39668 -0.0383221 0)
(7.40446 -0.0393216 0)
(7.41245 -0.0403649 0)
(7.42062 -0.0414969 0)
(7.42902 -0.0426977 0)
(7.43762 -0.0440189 0)
(7.44649 -0.0454419 0)
(7.4556 -0.0470232 0)
(7.46505 -0.0487449 0)
(7.47479 -0.0506656 0)
(7.48495 -0.0527671 0)
(7.49548 -0.0551075 0)
(7.50653 -0.0576669 0)
(7.51804 -0.0604993 0)
(7.53018 -0.0635806 0)
(7.54292 -0.0669579 0)
(7.5564 -0.0706003 0)
(7.57061 -0.0745442 0)
(7.5857 -0.0787489 0)
(7.60164 -0.0832377 0)
(7.61859 -0.0879577 0)
(7.63652 -0.0929171 0)
(7.65556 -0.0980486 0)
(7.67569 -0.103347 0)
(7.697 -0.10873 0)
(7.71944 -0.114181 0)
(7.74308 -0.119609 0)
(7.76785 -0.12499 0)
(7.79378 -0.130226 0)
(7.82079 -0.135295 0)
(7.84894 -0.140099 0)
(7.87808 -0.14462 0)
(7.90833 -0.148764 0)
(7.93925 -0.152527 0)
(7.97274 -0.155833 0)
(7.99741 -0.158535 0)
(8.04932 -0.161791 0)
(5.00001 -0.000514059 0)
(5.00018 -0.001546 0)
(5.00048 -0.00256782 0)
(5.00095 -0.00359334 0)
(5.00156 -0.00462077 0)
(5.00231 -0.00565076 0)
(5.00321 -0.00668421 0)
(5.00426 -0.00772192 0)
(5.00545 -0.00876492 0)
(5.00678 -0.00981432 0)
(5.00827 -0.0108715 0)
(5.0099 -0.0119378 0)
(5.01168 -0.0130149 0)
(5.01361 -0.0141047 0)
(5.01569 -0.015209 0)
(5.01793 -0.01633 0)
(5.02032 -0.0174701 0)
(5.02287 -0.0186316 0)
(5.02558 -0.0198172 0)
(5.02846 -0.0210296 0)
(5.03151 -0.0222718 0)
(5.03473 -0.0235467 0)
(5.03812 -0.0248576 0)
(5.0417 -0.0262078 0)
(5.04546 -0.0276007 0)
(5.04942 -0.0290398 0)
(5.05358 -0.0305289 0)
(5.05795 -0.0320716 0)
(5.06254 -0.0336721 0)
(5.06734 -0.035334 0)
(5.07238 -0.0370617 0)
(5.07767 -0.0388591 0)
(5.0832 -0.0407307 0)
(5.089 -0.0426807 0)
(5.09507 -0.0447138 0)
(5.10143 -0.0468341 0)
(5.10809 -0.0490466 0)
(5.11506 -0.0513556 0)
(5.12236 -0.0537662 0)
(5.13 -0.0562827 0)
(5.138 -0.0589102 0)
(5.14637 -0.0616533 0)
(5.15513 -0.0645171 0)
(5.1643 -0.067506 0)
(5.17389 -0.0706252 0)
(5.18394 -0.073879 0)
(5.19444 -0.0772725 0)
(5.20544 -0.0808097 0)
(5.21694 -0.0844956 0)
(5.22897 -0.0883338 0)
(5.24155 -0.0923287 0)
(5.25472 -0.0964836 0)
(5.26848 -0.100802 0)
(5.28286 -0.105286 0)
(5.2979 -0.10994 0)
(5.31362 -0.114762 0)
(5.33004 -0.119756 0)
(5.34719 -0.124919 0)
(5.3651 -0.130251 0)
(5.3838 -0.135749 0)
(5.40331 -0.141408 0)
(5.42366 -0.147222 0)
(5.44488 -0.153182 0)
(5.467 -0.159278 0)
(5.49004 -0.165495 0)
(5.51403 -0.171817 0)
(5.53898 -0.178223 0)
(5.56492 -0.184691 0)
(5.59185 -0.191192 0)
(5.6198 -0.197695 0)
(5.64877 -0.204164 0)
(5.67877 -0.210559 0)
(5.70978 -0.216836 0)
(5.74179 -0.222947 0)
(5.77478 -0.228841 0)
(5.80873 -0.234463 0)
(5.84359 -0.239758 0)
(5.87931 -0.24467 0)
(5.91582 -0.249143 0)
(5.95306 -0.253121 0)
(5.99094 -0.256555 0)
(6.02937 -0.259398 0)
(6.06824 -0.261612 0)
(6.10744 -0.263164 0)
(6.14686 -0.264031 0)
(6.18638 -0.264201 0)
(6.22587 -0.263669 0)
(6.26521 -0.262443 0)
(6.30429 -0.260537 0)
(6.34299 -0.257978 0)
(6.38121 -0.254796 0)
(6.41884 -0.251032 0)
(6.45579 -0.246729 0)
(6.49198 -0.241934 0)
(6.52734 -0.236699 0)
(6.5618 -0.231075 0)
(6.59531 -0.225116 0)
(6.62782 -0.218874 0)
(6.65931 -0.2124 0)
(6.68974 -0.205745 0)
(6.7191 -0.198956 0)
(6.74738 -0.192078 0)
(6.77458 -0.185155 0)
(6.80071 -0.178226 0)
(6.82576 -0.171326 0)
(6.84976 -0.164488 0)
(6.87272 -0.157742 0)
(6.89468 -0.151113 0)
(6.91564 -0.144623 0)
(6.93565 -0.138291 0)
(6.95473 -0.132135 0)
(6.97292 -0.126164 0)
(6.99024 -0.120393 0)
(7.00673 -0.114827 0)
(7.02243 -0.109475 0)
(7.03736 -0.104339 0)
(7.05158 -0.0994231 0)
(7.0651 -0.0947281 0)
(7.07797 -0.0902554 0)
(7.09022 -0.0860022 0)
(7.10188 -0.0819683 0)
(7.113 -0.0781492 0)
(7.12358 -0.0745431 0)
(7.13369 -0.071144 0)
(7.14333 -0.0679492 0)
(7.15254 -0.0649519 0)
(7.16135 -0.0621487 0)
(7.1698 -0.0595321 0)
(7.17789 -0.0570988 0)
(7.18566 -0.054841 0)
(7.19313 -0.0527554 0)
(7.20033 -0.0508341 0)
(7.20727 -0.0490742 0)
(7.21399 -0.0474678 0)
(7.22049 -0.0460126 0)
(7.22681 -0.0447012 0)
(7.23296 -0.0435317 0)
(7.23896 -0.0424979 0)
(7.24482 -0.0415986 0)
(7.25057 -0.0408287 0)
(7.25622 -0.0401879 0)
(7.2618 -0.0396721 0)
(7.26731 -0.0392817 0)
(7.27279 -0.0390132 0)
(7.27823 -0.038867 0)
(7.28367 -0.0388397 0)
(7.28911 -0.0389308 0)
(7.29458 -0.0391362 0)
(7.3001 -0.0394543 0)
(7.30568 -0.0398788 0)
(7.31133 -0.0404074 0)
(7.31708 -0.0410306 0)
(7.32293 -0.0417459 0)
(7.32891 -0.0425402 0)
(7.33501 -0.0434118 0)
(7.34126 -0.0443443 0)
(7.34766 -0.0453387 0)
(7.35422 -0.046376 0)
(7.36093 -0.0474624 0)
(7.36781 -0.0485781 0)
(7.37484 -0.0497369 0)
(7.38204 -0.0509204 0)
(7.3894 -0.0521524 0)
(7.39692 -0.0534175 0)
(7.40459 -0.0547503 0)
(7.41244 -0.05614 0)
(7.42042 -0.0576315 0)
(7.42861 -0.0592191 0)
(7.43695 -0.0609556 0)
(7.44553 -0.0628405 0)
(7.45429 -0.064931 0)
(7.46334 -0.0672314 0)
(7.47263 -0.069799 0)
(7.4823 -0.072642 0)
(7.49228 -0.0758131 0)
(7.50274 -0.0793228 0)
(7.51364 -0.0832136 0)
(7.52514 -0.087496 0)
(7.5372 -0.0921968 0)
(7.55001 -0.0973226 0)
(7.56355 -0.102879 0)
(7.57799 -0.108863 0)
(7.59333 -0.115256 0)
(7.60972 -0.122041 0)
(7.62718 -0.129169 0)
(7.64583 -0.136606 0)
(7.66568 -0.144277 0)
(7.68684 -0.152129 0)
(7.70926 -0.160064 0)
(7.73302 -0.168015 0)
(7.75807 -0.175871 0)
(7.78444 -0.183557 0)
(7.81203 -0.190962 0)
(7.8409 -0.198013 0)
(7.8709 -0.204605 0)
(7.90215 -0.210677 0)
(7.93414 -0.216148 0)
(7.9689 -0.220959 0)
(7.99451 -0.224901 0)
(8.04852 -0.229576 0)
(5.00001 -0.000658943 0)
(5.00018 -0.00198166 0)
(5.00048 -0.00329172 0)
(5.00094 -0.00460599 0)
(5.00155 -0.0059222 0)
(5.00229 -0.0072411 0)
(5.00319 -0.00856368 0)
(5.00422 -0.00989093 0)
(5.0054 -0.011224 0)
(5.00672 -0.0125644 0)
(5.00819 -0.0139136 0)
(5.0098 -0.0152736 0)
(5.01155 -0.0166463 0)
(5.01345 -0.0180342 0)
(5.0155 -0.0194396 0)
(5.0177 -0.0208654 0)
(5.02005 -0.0223145 0)
(5.02255 -0.0237902 0)
(5.0252 -0.0252957 0)
(5.02802 -0.0268348 0)
(5.03099 -0.0284111 0)
(5.03414 -0.0300287 0)
(5.03745 -0.0316917 0)
(5.04094 -0.0334045 0)
(5.0446 -0.0351715 0)
(5.04845 -0.0369974 0)
(5.0525 -0.038887 0)
(5.05674 -0.0408451 0)
(5.06119 -0.0428769 0)
(5.06586 -0.0449874 0)
(5.07074 -0.0471821 0)
(5.07587 -0.0494662 0)
(5.08123 -0.0518454 0)
(5.08685 -0.0543251 0)
(5.09273 -0.0569112 0)
(5.09889 -0.0596094 0)
(5.10533 -0.0624257 0)
(5.11208 -0.065366 0)
(5.11915 -0.0684364 0)
(5.12655 -0.071643 0)
(5.13429 -0.074992 0)
(5.14239 -0.0784896 0)
(5.15088 -0.0821422 0)
(5.15976 -0.085956 0)
(5.16906 -0.0899373 0)
(5.17879 -0.0940922 0)
(5.18898 -0.0984272 0)
(5.19964 -0.102948 0)
(5.2108 -0.107661 0)
(5.22249 -0.112572 0)
(5.23471 -0.117686 0)
(5.24751 -0.123009 0)
(5.26089 -0.128546 0)
(5.2749 -0.1343 0)
(5.28955 -0.140275 0)
(5.30488 -0.146475 0)
(5.32092 -0.152902 0)
(5.33768 -0.159556 0)
(5.35521 -0.166436 0)
(5.37353 -0.173541 0)
(5.39268 -0.180866 0)
(5.41269 -0.188405 0)
(5.43359 -0.196149 0)
(5.45541 -0.204086 0)
(5.47819 -0.212199 0)
(5.50195 -0.220469 0)
(5.52673 -0.228873 0)
(5.55256 -0.23738 0)
(5.57945 -0.245956 0)
(5.60743 -0.254561 0)
(5.63653 -0.263148 0)
(5.66674 -0.271666 0)
(5.69807 -0.280054 0)
(5.73053 -0.288248 0)
(5.76409 -0.296178 0)
(5.79873 -0.303768 0)
(5.83442 -0.31094 0)
(5.8711 -0.317613 0)
(5.90871 -0.323706 0)
(5.94717 -0.329141 0)
(5.98639 -0.333843 0)
(6.02626 -0.337744 0)
(6.06665 -0.340787 0)
(6.10745 -0.342925 0)
(6.1485 -0.344124 0)
(6.18967 -0.344366 0)
(6.23081 -0.343644 0)
(6.27178 -0.34197 0)
(6.31243 -0.339366 0)
(6.35263 -0.335871 0)
(6.39227 -0.33153 0)
(6.43121 -0.326404 0)
(6.46937 -0.320555 0)
(6.50664 -0.314054 0)
(6.54296 -0.306975 0)
(6.57826 -0.299393 0)
(6.61248 -0.291383 0)
(6.64559 -0.283017 0)
(6.67755 -0.274366 0)
(6.70835 -0.265498 0)
(6.73797 -0.256476 0)
(6.7664 -0.24736 0)
(6.79366 -0.238205 0)
(6.81975 -0.229061 0)
(6.8447 -0.219974 0)
(6.86852 -0.210987 0)
(6.89125 -0.202136 0)
(6.9129 -0.193453 0)
(6.93353 -0.184968 0)
(6.95315 -0.176704 0)
(6.97181 -0.168683 0)
(6.98955 -0.160919 0)
(7.00641 -0.153427 0)
(7.02242 -0.146216 0)
(7.03762 -0.139293 0)
(7.05206 -0.132662 0)
(7.06577 -0.126326 0)
(7.07879 -0.120284 0)
(7.09116 -0.114536 0)
(7.10291 -0.109078 0)
(7.11408 -0.103908 0)
(7.12471 -0.0990182 0)
(7.13482 -0.0944061 0)
(7.14446 -0.0900631 0)
(7.15365 -0.0859846 0)
(7.16243 -0.0821615 0)
(7.17081 -0.0785886 0)
(7.17883 -0.0752564 0)
(7.18652 -0.0721596 0)
(7.1939 -0.0692886 0)
(7.20099 -0.0666386 0)
(7.20783 -0.0642 0)
(7.21442 -0.0619686 0)
(7.2208 -0.0599349 0)
(7.22697 -0.0580955 0)
(7.23298 -0.0564414 0)
(7.23881 -0.0549696 0)
(7.24451 -0.0536718 0)
(7.25009 -0.052546 0)
(7.25555 -0.0515851 0)
(7.26093 -0.0507878 0)
(7.26623 -0.050149 0)
(7.27147 -0.0496681 0)
(7.27667 -0.049342 0)
(7.28184 -0.0491703 0)
(7.28702 -0.0491512 0)
(7.2922 -0.049284 0)
(7.29742 -0.0495665 0)
(7.30269 -0.0499964 0)
(7.30803 -0.0505694 0)
(7.31346 -0.051281 0)
(7.319 -0.0521225 0)
(7.32466 -0.0530874 0)
(7.33047 -0.054161 0)
(7.33642 -0.0553365 0)
(7.34254 -0.0565928 0)
(7.34883 -0.0579252 0)
(7.3553 -0.0593077 0)
(7.36194 -0.0607418 0)
(7.36876 -0.0621992 0)
(7.37574 -0.0636924 0)
(7.38289 -0.0651948 0)
(7.39017 -0.0667336 0)
(7.39761 -0.0682875 0)
(7.40516 -0.0699001 0)
(7.41286 -0.0715579 0)
(7.42064 -0.07332 0)
(7.42858 -0.0751813 0)
(7.4366 -0.0772134 0)
(7.44479 -0.0794194 0)
(7.45309 -0.0818782 0)
(7.4616 -0.0846004 0)
(7.47028 -0.0876663 0)
(7.47926 -0.0910932 0)
(7.48849 -0.0949555 0)
(7.49813 -0.0992761 0)
(7.50813 -0.104116 0)
(7.5187 -0.1095 0)
(7.52979 -0.115468 0)
(7.54161 -0.12204 0)
(7.55415 -0.129228 0)
(7.56763 -0.137039 0)
(7.58203 -0.145447 0)
(7.59758 -0.15444 0)
(7.61428 -0.163948 0)
(7.63231 -0.173932 0)
(7.65169 -0.184279 0)
(7.67255 -0.19492 0)
(7.69488 -0.205708 0)
(7.71876 -0.216549 0)
(7.74415 -0.227276 0)
(7.77106 -0.237784 0)
(7.79942 -0.247904 0)
(7.82926 -0.257536 0)
(7.8604 -0.266525 0)
(7.89297 -0.27479 0)
(7.92638 -0.282218 0)
(7.96281 -0.288724 0)
(7.98965 -0.29407 0)
(8.04638 -0.300272 0)
(5.00001 -0.000802805 0)
(5.00017 -0.00241428 0)
(5.00048 -0.00401075 0)
(5.00093 -0.00561141 0)
(5.00153 -0.00721359 0)
(5.00228 -0.008818 0)
(5.00316 -0.0104256 0)
(5.00419 -0.0120376 0)
(5.00535 -0.0136552 0)
(5.00666 -0.01528 0)
(5.0081 -0.016914 0)
(5.00969 -0.0185594 0)
(5.01142 -0.0202187 0)
(5.01328 -0.0218948 0)
(5.01529 -0.0235906 0)
(5.01744 -0.0253097 0)
(5.01974 -0.0270557 0)
(5.02218 -0.0288324 0)
(5.02477 -0.0306441 0)
(5.02751 -0.0324951 0)
(5.0304 -0.03439 0)
(5.03345 -0.0363337 0)
(5.03666 -0.0383313 0)
(5.04003 -0.040388 0)
(5.04357 -0.0425094 0)
(5.04729 -0.044701 0)
(5.05119 -0.0469689 0)
(5.05528 -0.049319 0)
(5.05956 -0.0517577 0)
(5.06405 -0.0542913 0)
(5.06875 -0.0569264 0)
(5.07367 -0.0596697 0)
(5.07882 -0.0625281 0)
(5.08421 -0.0655086 0)
(5.08985 -0.0686183 0)
(5.09576 -0.0718645 0)
(5.10194 -0.0752544 0)
(5.10841 -0.0787956 0)
(5.11518 -0.0824957 0)
(5.12227 -0.0863621 0)
(5.1297 -0.0904027 0)
(5.13747 -0.0946252 0)
(5.14561 -0.0990375 0)
(5.15413 -0.103647 0)
(5.16305 -0.108463 0)
(5.1724 -0.113492 0)
(5.18219 -0.118742 0)
(5.19244 -0.124222 0)
(5.20317 -0.129938 0)
(5.21441 -0.1359 0)
(5.22618 -0.142113 0)
(5.23851 -0.148586 0)
(5.25143 -0.155324 0)
(5.26495 -0.162336 0)
(5.27911 -0.169625 0)
(5.29394 -0.177198 0)
(5.30947 -0.185058 0)
(5.32573 -0.193209 0)
(5.34276 -0.201651 0)
(5.36059 -0.210385 0)
(5.37925 -0.219408 0)
(5.39879 -0.228715 0)
(5.41924 -0.238298 0)
(5.44064 -0.248145 0)
(5.46304 -0.25824 0)
(5.48647 -0.268563 0)
(5.51097 -0.279086 0)
(5.53659 -0.289777 0)
(5.56336 -0.300596 0)
(5.59131 -0.311495 0)
(5.62049 -0.322416 0)
(5.65091 -0.333296 0)
(5.6826 -0.344058 0)
(5.71556 -0.354618 0)
(5.7498 -0.364884 0)
(5.78529 -0.374755 0)
(5.82202 -0.384122 0)
(5.85993 -0.392874 0)
(5.89896 -0.400895 0)
(5.93902 -0.408075 0)
(5.98 -0.414304 0)
(6.02178 -0.419486 0)
(6.06422 -0.423534 0)
(6.10714 -0.426382 0)
(6.15039 -0.427982 0)
(6.19379 -0.428309 0)
(6.23714 -0.427358 0)
(6.28029 -0.425146 0)
(6.32304 -0.42171 0)
(6.36525 -0.417105 0)
(6.40676 -0.411398 0)
(6.44744 -0.404672 0)
(6.48717 -0.397017 0)
(6.52585 -0.388532 0)
(6.5634 -0.379317 0)
(6.59976 -0.369478 0)
(6.63487 -0.359116 0)
(6.6687 -0.34833 0)
(6.70123 -0.337218 0)
(6.73244 -0.325867 0)
(6.76234 -0.314361 0)
(6.79093 -0.302776 0)
(6.81822 -0.291183 0)
(6.84425 -0.279642 0)
(6.86903 -0.26821 0)
(6.8926 -0.256936 0)
(6.915 -0.245863 0)
(6.93626 -0.235028 0)
(6.95643 -0.224465 0)
(6.97555 -0.214201 0)
(6.99367 -0.204258 0)
(7.01083 -0.194655 0)
(7.02708 -0.185406 0)
(7.04247 -0.176522 0)
(7.05703 -0.16801 0)
(7.07083 -0.159873 0)
(7.08389 -0.152114 0)
(7.09626 -0.144728 0)
(7.10799 -0.137716 0)
(7.11911 -0.131069 0)
(7.12965 -0.124783 0)
(7.13967 -0.118849 0)
(7.14918 -0.113259 0)
(7.15824 -0.108003 0)
(7.16686 -0.103075 0)
(7.17507 -0.0984607 0)
(7.18292 -0.0941545 0)
(7.19042 -0.0901434 0)
(7.1976 -0.0864202 0)
(7.20449 -0.0829719 0)
(7.2111 -0.0797915 0)
(7.21748 -0.0768663 0)
(7.22362 -0.0741899 0)
(7.22956 -0.0717504 0)
(7.23531 -0.0695431 0)
(7.24091 -0.0675571 0)
(7.24635 -0.0657896 0)
(7.25166 -0.0642312 0)
(7.25685 -0.0628809 0)
(7.26195 -0.0617306 0)
(7.26696 -0.0607803 0)
(7.27191 -0.0600237 0)
(7.2768 -0.0594613 0)
(7.28166 -0.0590888 0)
(7.28649 -0.0589065 0)
(7.29133 -0.0589123 0)
(7.29617 -0.0591059 0)
(7.30105 -0.0594863 0)
(7.30599 -0.0600509 0)
(7.31101 -0.0607974 0)
(7.31612 -0.0617201 0)
(7.32137 -0.0628115 0)
(7.32676 -0.064062 0)
(7.33232 -0.0654554 0)
(7.33806 -0.0669792 0)
(7.344 -0.0686069 0)
(7.35014 -0.0703264 0)
(7.35649 -0.0721016 0)
(7.36305 -0.073927 0)
(7.36981 -0.0757617 0)
(7.37675 -0.0776143 0)
(7.38386 -0.0794456 0)
(7.3911 -0.0812855 0)
(7.39847 -0.0831027 0)
(7.40592 -0.0849514 0)
(7.41346 -0.0868118 0)
(7.42103 -0.0887616 0)
(7.42867 -0.0907934 0)
(7.4363 -0.093003 0)
(7.44401 -0.095395 0)
(7.45172 -0.0980765 0)
(7.45955 -0.101064 0)
(7.46742 -0.104466 0)
(7.47547 -0.108312 0)
(7.48365 -0.112706 0)
(7.49215 -0.117685 0)
(7.5009 -0.123339 0)
(7.51012 -0.129712 0)
(7.5198 -0.136868 0)
(7.53015 -0.144849 0)
(7.54119 -0.153679 0)
(7.55318 -0.163387 0)
(7.56612 -0.173945 0)
(7.58029 -0.18535 0)
(7.59573 -0.197512 0)
(7.61266 -0.210383 0)
(7.63114 -0.22381 0)
(7.65133 -0.237694 0)
(7.67326 -0.25183 0)
(7.69702 -0.266077 0)
(7.72258 -0.280198 0)
(7.74998 -0.294033 0)
(7.77909 -0.307344 0)
(7.80995 -0.319983 0)
(7.84233 -0.331737 0)
(7.87637 -0.342493 0)
(7.91135 -0.352099 0)
(7.94966 -0.360463 0)
(7.97782 -0.367273 0)
(8.03765 -0.375031 0)
(5.00001 -0.000945918 0)
(5.00017 -0.00284461 0)
(5.00047 -0.00472615 0)
(5.00093 -0.00661123 0)
(5.00153 -0.00849677 0)
(5.00227 -0.0103833 0)
(5.00314 -0.0122717 0)
(5.00416 -0.014163 0)
(5.00531 -0.0160586 0)
(5.00661 -0.0179603 0)
(5.00803 -0.0198702 0)
(5.00959 -0.021791 0)
(5.01129 -0.0237256 0)
(5.01312 -0.0256774 0)
(5.01509 -0.02765 0)
(5.01719 -0.0296478 0)
(5.01942 -0.031675 0)
(5.0218 -0.0337366 0)
(5.02431 -0.0358375 0)
(5.02696 -0.0379833 0)
(5.02975 -0.0401795 0)
(5.03269 -0.042432 0)
(5.03578 -0.0447469 0)
(5.03903 -0.0471305 0)
(5.04243 -0.0495894 0)
(5.04599 -0.0521303 0)
(5.04973 -0.0547602 0)
(5.05363 -0.0574862 0)
(5.05772 -0.0603156 0)
(5.062 -0.0632559 0)
(5.06648 -0.0663149 0)
(5.07116 -0.0695005 0)
(5.07605 -0.0728208 0)
(5.08118 -0.076284 0)
(5.08653 -0.0798985 0)
(5.09214 -0.083673 0)
(5.09801 -0.0876161 0)
(5.10414 -0.0917368 0)
(5.11057 -0.096044 0)
(5.11729 -0.100547 0)
(5.12433 -0.105255 0)
(5.13171 -0.110177 0)
(5.13943 -0.115322 0)
(5.14752 -0.120701 0)
(5.15599 -0.126323 0)
(5.16486 -0.132198 0)
(5.17416 -0.138335 0)
(5.18391 -0.144744 0)
(5.19412 -0.151434 0)
(5.20483 -0.158417 0)
(5.21604 -0.1657 0)
(5.22781 -0.173295 0)
(5.24013 -0.181209 0)
(5.25306 -0.189452 0)
(5.26661 -0.198034 0)
(5.28082 -0.20696 0)
(5.29571 -0.21624 0)
(5.31134 -0.225879 0)
(5.32772 -0.235881 0)
(5.34491 -0.246251 0)
(5.36294 -0.256989 0)
(5.38185 -0.268093 0)
(5.40169 -0.279559 0)
(5.42252 -0.291379 0)
(5.44437 -0.303538 0)
(5.46731 -0.316017 0)
(5.49139 -0.328791 0)
(5.51665 -0.341826 0)
(5.54316 -0.355077 0)
(5.57098 -0.368494 0)
(5.60014 -0.382008 0)
(5.63071 -0.395545 0)
(5.66272 -0.409012 0)
(5.69621 -0.422304 0)
(5.73119 -0.4353 0)
(5.76767 -0.44787 0)
(5.80564 -0.459865 0)
(5.84505 -0.471135 0)
(5.88585 -0.481516 0)
(5.92794 -0.490851 0)
(5.9712 -0.498981 0)
(6.01547 -0.505767 0)
(6.06058 -0.511079 0)
(6.10632 -0.514821 0)
(6.15246 -0.51692 0)
(6.19878 -0.517342 0)
(6.24505 -0.516084 0)
(6.29104 -0.513178 0)
(6.33653 -0.508685 0)
(6.38134 -0.502688 0)
(6.42528 -0.495294 0)
(6.46819 -0.486619 0)
(6.50994 -0.476793 0)
(6.55042 -0.465951 0)
(6.58953 -0.454228 0)
(6.62722 -0.441762 0)
(6.66342 -0.428686 0)
(6.69812 -0.415129 0)
(6.7313 -0.401213 0)