/*--------------------------------*- C++ -*----------------------------------*\
  =========                 |
  \\      /  F ield         | OpenFOAM: The Open Source CFD Toolbox
   \\    /   O peration     | Website:  https://openfoam.org
    \\  /    A nd           | Version:  10
     \\/     M anipulation  |
\*---------------------------------------------------------------------------*/
FoamFile
{
    format      ascii;
    class       surfaceScalarField;
    location    "21000";
    object      phi;
}
// * * * * * * * * * * * * * * * * * * * * * * * * * * * * * * * * * * * * * //

dimensions      [0 3 -1 0 0 0 0];

internalField   nonuniform List<scalar> 
6280
(
-3.5095e-07
3.5095e-07
-7.17849e-07
3.66899e-07
-1.12558e-06
4.07733e-07
-1.60766e-06
4.82078e-07
-2.21576e-06
6.08099e-07
-3.03753e-06
8.21768e-07
-4.2325e-06
1.19497e-06
-6.10773e-06
1.87523e-06
-9.28173e-06
3.174e-06
-1.50466e-05
5.76485e-06
-2.09899e-05
5.94336e-06
-2.15127e-05
5.22777e-07
-2.18237e-05
3.11028e-07
-2.20548e-05
2.31017e-07
-2.22361e-05
1.81374e-07
-2.2383e-05
1.4682e-07
-2.25045e-05
1.21496e-07
-2.26068e-05
1.02313e-07
-2.26942e-05
8.7414e-08
-2.27698e-05
7.56031e-08
-2.28359e-05
6.60758e-08
-2.28941e-05
5.8275e-08
-2.29459e-05
5.18042e-08
-2.29923e-05
4.6374e-08
-2.30341e-05
4.17704e-08
-2.30719e-05
3.78143e-08
-2.26256e-05
-4.46286e-07
-2.20259e-05
-5.99717e-07
-2.15276e-05
-4.98312e-07
-2.1116e-05
-4.11554e-07
-2.0751e-05
-3.65046e-07
-2.03846e-05
-3.66409e-07
-1.99583e-05
-4.26279e-07
-1.93928e-05
-5.65472e-07
-1.85718e-05
-8.21055e-07
-1.7317e-05
-1.25474e-06
-1.5351e-05
-1.96604e-06
-1.22367e-05
-3.11427e-06
-7.27637e-06
-4.96035e-06
-6.56782e-06
-7.08556e-07
-3.03546e-07
6.54496e-07
-6.1288e-07
6.76233e-07
-9.38092e-07
7.32945e-07
-1.28713e-06
8.31115e-07
-1.66173e-06
9.82705e-07
-2.04566e-06
1.20569e-06
-2.37329e-06
1.52261e-06
-2.44927e-06
1.9512e-06
-1.74571e-06
2.47045e-06
1.10221e-06
2.91693e-06
4.35148e-06
2.69409e-06
3.17998e-06
1.69427e-06
2.33497e-06
1.15604e-06
1.70805e-06
8.57937e-07
1.20221e-06
6.8722e-07
7.58938e-07
5.90087e-07
3.39488e-07
5.40946e-07
-8.70363e-08
5.28838e-07
-5.51582e-07
5.5196e-07
-1.09238e-06
6.16403e-07
-1.76424e-06
7.37929e-07
-2.65318e-06
9.47217e-07
-3.90189e-06
1.30052e-06
-5.75546e-06
1.89994e-06
-8.64501e-06
2.93132e-06
-1.27977e-05
4.19051e-06
-1.43181e-05
1.07414e-06
-1.51562e-05
2.38318e-07
-1.58304e-05
1.75946e-07
-1.63859e-05
1.43865e-07
-1.68722e-05
1.21263e-07
-1.73424e-05
1.03823e-07
-1.78585e-05
8.97919e-08
-1.85021e-05
7.81328e-08
-1.93912e-05
6.80884e-08
-2.07049e-05
5.89999e-08
-2.27212e-05
5.017e-08
-2.58758e-05
4.04122e-08
-1.9839e-05
-1.09972e-05
-2.61313e-05
-2.75504e-07
-2.32294e-07
8.8679e-07
-4.60575e-07
9.04514e-07
-6.82639e-07
9.55008e-07
-8.91016e-07
1.03949e-06
-1.06841e-06
1.1601e-06
-1.18049e-06
1.31777e-06
-1.16596e-06
1.50808e-06
-9.28468e-07
1.71371e-06
-3.50986e-07
1.89297e-06
5.96509e-07
1.96944e-06
1.44096e-06
1.84964e-06
1.57009e-06
1.56514e-06
1.42364e-06
1.30249e-06
1.179e-06
1.10258e-06
9.0265e-07
9.63567e-07
6.17494e-07
8.75242e-07
3.29735e-07
8.28704e-07
4.01049e-08
8.18469e-07
-2.50369e-07
8.42434e-07
-5.35268e-07
9.01302e-07
-7.94938e-07
9.97599e-07
-9.81423e-07
1.1337e-06
-9.88235e-07
1.30733e-06
-5.89602e-07
1.50131e-06
6.80845e-07
1.66087e-06
3.22613e-06
1.64522e-06
3.06924e-06
1.23104e-06
2.40974e-06
8.97815e-07
1.89378e-06
6.91909e-07
1.47614e-06
5.61509e-07
1.12037e-06
4.77026e-07
8.02194e-07
4.22001e-07
5.04698e-07
3.87287e-07
2.14828e-07
3.68003e-07
-7.91002e-08
3.62017e-07
-3.89438e-07
3.69338e-07
-7.31377e-07
3.92108e-07
-1.06369e-06
3.72727e-07
-1.1214e-05
-8.46864e-07
-4.06424e-05
3.29706e-06
-1.60873e-07
1.04766e-06
-3.13145e-07
1.05679e-06
-4.49665e-07
1.09153e-06
-5.59982e-07
1.14981e-06
-6.28649e-07
1.22877e-06
-6.34195e-07
1.32331e-06
-5.50379e-07
1.42426e-06
-3.53119e-07
1.51645e-06
-3.84097e-08
1.57826e-06
3.45512e-07
1.58552e-06
6.71046e-07
1.52411e-06
8.25689e-07
1.41049e-06
8.42947e-07
1.28523e-06
7.72396e-07
1.17313e-06
6.51278e-07
1.08468e-06
5.03892e-07
1.02263e-06
3.46238e-07
9.86358e-07
1.90549e-07
9.74157e-07
4.89846e-08
9.83999e-07
-6.32048e-08
1.01349e-06
-1.24822e-07
1.05922e-06
-1.06654e-07
1.11553e-06
2.77511e-08
1.17293e-06
3.12786e-07
1.21627e-06
7.4926e-07
1.2244e-06
1.21971e-06
1.17478e-06
1.38782e-06
1.06292e-06
1.34666e-06
9.38978e-07
1.20877e-06
8.29804e-07
1.02825e-06
7.42025e-07
8.30295e-07
6.7498e-07
6.26327e-07
6.25969e-07
4.2145e-07
5.92164e-07
2.18266e-07
5.71187e-07
1.9151e-08
5.61132e-07
-1.71856e-07
5.60345e-07
-3.46745e-07
5.66997e-07
-5.52315e-07
5.78297e-07
-6.59462e-09
-1.39258e-06
-4.06761e-05
2.70923e-08
-1.01804e-07
1.14947e-06
-1.94724e-07
1.14971e-06
-2.71416e-07
1.16822e-06
-3.23566e-07
1.20196e-06
-3.41756e-07
1.24696e-06
-3.16282e-07
1.29784e-06
-2.39463e-07
1.34744e-06
-1.09946e-07
1.38693e-06
6.13804e-08
1.40694e-06
2.46775e-07
1.40012e-06
4.05874e-07
1.36501e-06
5.07716e-07
1.30865e-06
5.4939e-07
1.24356e-06
5.41946e-07
1.18057e-06
4.99972e-07
1.12666e-06
4.37248e-07
1.08535e-06
3.6581e-07
1.0578e-06
2.96385e-07
1.04358e-06
2.39164e-07
1.04122e-06
2.04353e-07
1.0483e-06
2.0212e-07
1.06145e-06
2.41466e-07
1.07619e-06
3.27429e-07
1.08697e-06
4.56138e-07
1.08757e-06
6.08252e-07
1.07228e-06
7.44867e-07
1.03816e-06
8.1994e-07
9.87847e-07
8.28611e-07
9.30307e-07
7.84806e-07
8.73609e-07
7.04168e-07
8.22663e-07
5.99336e-07
7.79813e-07
4.7948e-07
7.45825e-07
3.50999e-07
7.20645e-07
2.18315e-07
7.03871e-07
8.44064e-08
6.95041e-07
-4.90582e-08
6.9381e-07
-1.82168e-07
7.00106e-07
-3.18002e-07
7.14132e-07
9.64121e-09
-1.72023e-06
-4.0672e-05
5.58193e-09
-5.79251e-08
1.20739e-06
-1.08683e-07
1.20046e-06
-1.46502e-07
1.20604e-06
-1.65883e-07
1.22134e-06
-1.61882e-07
1.24296e-06
-1.3088e-07
1.26684e-06
-7.18438e-08
1.28841e-06
1.21133e-08
1.30298e-06
1.12534e-07
1.30651e-06
2.15963e-07
1.29669e-06
3.07122e-07
1.27385e-06
3.74595e-07
1.24118e-06
4.14592e-07
1.20356e-06
4.29344e-07
1.16582e-06
4.24371e-07
1.13163e-06
4.06453e-07
1.10327e-06
3.82526e-07
1.08172e-06
3.59184e-07
1.06692e-06
3.42423e-07
1.05798e-06
3.3739e-07
1.05334e-06
3.47925e-07
1.05091e-06
3.75826e-07
1.04829e-06
4.19883e-07
1.04291e-06
4.74946e-07
1.0325e-06
5.31685e-07
1.01555e-06
5.78047e-07
9.91801e-07
6.03308e-07
9.62587e-07
6.03179e-07
9.30436e-07
5.78756e-07
8.98032e-07
5.33891e-07
8.67528e-07
4.73344e-07
8.4036e-07
4.01844e-07
8.17325e-07
3.23749e-07
7.9874e-07
2.43025e-07
7.84594e-07
1.63394e-07
7.74673e-07
8.85721e-08
7.68631e-07
2.26393e-08
7.66039e-07
-2.91893e-08
7.6596e-07
-1.78576e-09
-1.74763e-06
-4.06323e-05
-4.14804e-08
-2.72116e-08
1.2346e-06
-4.9373e-08
1.22262e-06
-6.24599e-08
1.21913e-06
-6.31029e-08
1.22198e-06
-4.88534e-08
1.22871e-06
-1.85985e-08
1.23658e-06
2.69514e-08
1.24286e-06
8.48832e-08
1.24504e-06
1.50091e-07
1.24131e-06
2.15969e-07
1.23082e-06
2.75845e-07
1.21398e-06
3.2472e-07
1.1923e-06
3.60315e-07
1.16797e-06
3.82928e-07
1.14321e-06
3.94686e-07
1.11987e-06
3.98742e-07
1.09921e-06
3.9863e-07
1.08184e-06
3.97794e-07
1.06776e-06
3.99251e-07
1.05652e-06
4.05289e-07
1.0473e-06
4.17192e-07
1.03901e-06
4.34968e-07
1.03051e-06
4.57173e-07
1.0207e-06
4.80923e-07
1.00875e-06
5.02253e-07
9.94216e-07
5.16886e-07
9.77168e-07
5.21304e-07
9.58169e-07
5.13623e-07
9.38117e-07
4.9366e-07
9.17995e-07
4.62523e-07
8.98665e-07
4.22133e-07
8.8075e-07
3.74849e-07
8.64609e-07
3.23248e-07
8.50341e-07
2.70018e-07
8.37824e-07
2.17943e-07
8.26748e-07
1.69936e-07
8.16638e-07
1.29104e-07
8.06871e-07
9.88951e-08
7.9617e-07
-6.89375e-09
-1.64184e-06
-4.05826e-05
-5.66223e-08
-6.28845e-09
1.24089e-06
-9.3363e-09
1.22567e-06
-6.50411e-09
1.21629e-06
4.21679e-09
1.21126e-06
2.40361e-08
1.20889e-06
5.31874e-08
1.20743e-06
9.07943e-08
1.20525e-06
1.34862e-07
1.20098e-06
1.82475e-07
1.19369e-06
2.3025e-07
1.18304e-06
2.74964e-07
1.16926e-06
3.14172e-07
1.15309e-06
3.46582e-07
1.13556e-06
3.72061e-07
1.11773e-06
3.91403e-07
1.10053e-06
4.05992e-07
1.08462e-06
4.17476e-07
1.07035e-06
4.27477e-07
1.05776e-06
4.37364e-07
1.04664e-06
4.48064e-07
1.0366e-06
4.59933e-07
1.02714e-06
4.72685e-07
1.01776e-06
4.85395e-07
1.00799e-06
4.96615e-07
9.97532e-07
5.04594e-07
9.86237e-07
5.07588e-07
9.74174e-07
5.0418e-07
9.61576e-07
4.93514e-07
9.48783e-07
4.75353e-07
9.36157e-07
4.50013e-07
9.24004e-07
4.18236e-07
9.12527e-07
3.81058e-07
9.01787e-07
3.39703e-07
8.91695e-07
2.95511e-07
8.82016e-07
2.49887e-07
8.72372e-07
2.04264e-07
8.62261e-07
1.60047e-07
8.51089e-07
1.18634e-07
8.37582e-07
-1.0578e-08
-1.51263e-06
-4.05305e-05
-6.26467e-08
7.93107e-09
1.23296e-06
1.77695e-08
1.21583e-06
3.11954e-08
1.20287e-06
4.94058e-08
1.19305e-06
7.30218e-08
1.18527e-06
1.02026e-07
1.17843e-06
1.35754e-07
1.17152e-06
1.72966e-07
1.16377e-06
2.12011e-07
1.15465e-06
2.51081e-07
1.14397e-06
2.88498e-07
1.13185e-06
3.22966e-07
1.11863e-06
3.53719e-07
1.10481e-06
3.80538e-07
1.09091e-06
4.03661e-07
1.07741e-06
4.23638e-07
1.06465e-06
4.41162e-07
1.05283e-06
4.56922e-07
1.042e-06
4.71468e-07
1.03209e-06
4.85123e-07
1.02294e-06
4.97916e-07
1.01435e-06
5.09574e-07
1.0061e-06
5.19545e-07
9.98023e-07
5.2707e-07
9.90006e-07
5.31288e-07
9.82018e-07
5.31357e-07
9.74105e-07
5.26558e-07
9.66375e-07
5.16372e-07
9.58969e-07
5.00498e-07
9.52031e-07
4.78834e-07
9.45668e-07
4.51427e-07
9.39934e-07
4.18416e-07
9.34798e-07
3.79979e-07
9.30132e-07
3.36303e-07
9.25692e-07
2.87589e-07
9.21086e-07
2.34121e-07
9.15729e-07
1.76444e-07
9.08765e-07
1.15943e-07
8.98082e-07
-1.33242e-08
-1.38336e-06
-4.04787e-05
-6.51187e-08
1.7766e-08
1.2152e-06
3.65287e-08
1.19707e-06
5.73479e-08
1.18205e-06
8.09494e-08
1.16945e-06
1.07676e-07
1.15854e-06
1.37471e-07
1.14863e-06
1.69903e-07
1.13909e-06
2.04232e-07
1.12944e-06
2.39518e-07
1.11936e-06
2.74759e-07
1.10873e-06
3.09031e-07
1.09757e-06
3.416e-07
1.08606e-06
3.71986e-07
1.07442e-06
3.99973e-07
1.06292e-06
4.25572e-07
1.05181e-06
4.48952e-07
1.04127e-06
4.70357e-07
1.03142e-06
4.90032e-07
1.02232e-06
5.08156e-07
1.01397e-06
5.24792e-07
1.00631e-06
5.39866e-07
9.99276e-07
5.53158e-07
9.92809e-07
5.64322e-07
9.86859e-07
5.72922e-07
9.81407e-07
5.7847e-07
9.7647e-07
5.80473e-07
9.72101e-07
5.7847e-07
9.68379e-07
5.72042e-07
9.65397e-07
5.60816e-07
9.63257e-07
5.4443e-07
9.62054e-07
5.22491e-07
9.61873e-07
4.94503e-07
9.62786e-07
4.59774e-07
9.64861e-07
4.17295e-07
9.68172e-07
3.6555e-07
9.7283e-07
3.02254e-07
9.79025e-07
2.23923e-07
9.87096e-07
1.25443e-07
9.96563e-07
-9.93787e-09
-1.24798e-06
-4.04125e-05
-7.61348e-08
2.47957e-08
1.1904e-06
4.99904e-08
1.17188e-06
7.62586e-08
1.15578e-06
1.04055e-07
1.14165e-06
1.33591e-07
1.12901e-06
1.64828e-07
1.11739e-06
1.97511e-07
1.10641e-06
2.31207e-07
1.09574e-06
2.65382e-07
1.08519e-06
2.99465e-07
1.07465e-06
3.32926e-07
1.06411e-06
3.6533e-07
1.05365e-06
3.96366e-07
1.04338e-06
4.2585e-07
1.03344e-06
4.53714e-07
1.02394e-06
4.7997e-07
1.01501e-06
5.04669e-07
1.00672e-06
5.27866e-07
9.99126e-07
5.49588e-07
9.92246e-07
5.69806e-07
9.86088e-07
5.88428e-07
9.80654e-07
6.05295e-07
9.75942e-07
6.20189e-07
9.71965e-07
6.32846e-07
9.68749e-07
6.42977e-07
9.6634e-07
6.50278e-07
9.648e-07
6.54448e-07
9.64209e-07
6.55183e-07
9.64662e-07
6.52177e-07
9.66263e-07
6.45104e-07
9.69127e-07
6.33597e-07
9.7338e-07
6.1722e-07
9.79163e-07
5.95439e-07
9.86641e-07
5.67598e-07
9.96013e-07
5.32899e-07
1.00753e-06
4.90412e-07
1.02151e-06
4.39135e-07
1.03837e-06
3.78356e-07
1.05734e-06
2.5571e-07
-1.12534e-06
-4.00192e-05
-1.37588e-07
3.00353e-08
1.16037e-06
6.00844e-08
1.14183e-06
9.05897e-08
1.12528e-06
1.21852e-07
1.11039e-06
1.54018e-07
1.09684e-06
1.87081e-07
1.08433e-06
2.20902e-07
1.07259e-06
2.5524e-07
1.0614e-06
2.89792e-07
1.05064e-06
3.24232e-07
1.04021e-06
3.58252e-07
1.03009e-06
3.91588e-07
1.02032e-06
4.2404e-07
1.01093e-06
4.55469e-07
1.00201e-06
4.85796e-07
9.93618e-07
5.14982e-07
9.85827e-07
5.43014e-07
9.78692e-07
5.69883e-07
9.72257e-07
5.95571e-07
9.66558e-07
6.20037e-07
9.61622e-07
6.43213e-07
9.57477e-07
6.65006e-07
9.54149e-07
6.85296e-07
9.51676e-07
7.03945e-07
9.501e-07
7.20806e-07
9.49478e-07
7.35729e-07
9.49877e-07
7.48566e-07
9.51373e-07
7.59173e-07
9.54055e-07
7.67412e-07
9.58023e-07
7.73152e-07
9.63387e-07
7.76265e-07
9.70267e-07
7.76633e-07
9.78796e-07
7.74153e-07
9.89121e-07
7.68765e-07
1.0014e-06
7.60484e-07
1.01581e-06
7.49469e-07
1.03253e-06
7.36132e-07
1.05171e-06
7.21435e-07
1.07204e-06
6.17198e-07
-1.0211e-06
-3.92102e-05
-1.91876e-07
3.41123e-08
1.12625e-06
6.79913e-08
1.10795e-06
1.01943e-07
1.09132e-06
1.36184e-07
1.07615e-06
1.7083e-07
1.0622e-06
2.05904e-07
1.04926e-06
2.41343e-07
1.03715e-06
2.77025e-07
1.02572e-06
3.12787e-07
1.01487e-06
3.48448e-07
1.00455e-06
3.83833e-07
9.94706e-07
4.1879e-07
9.8536e-07
4.53194e-07
9.76529e-07
4.86955e-07
9.68248e-07
5.20012e-07
9.60561e-07
5.52331e-07
9.53509e-07
5.83889e-07
9.47133e-07
6.14675e-07
9.41471e-07
6.44677e-07
9.36556e-07
6.73878e-07
9.32422e-07
7.02254e-07
9.291e-07
7.29776e-07
9.26627e-07
7.5641e-07
9.25042e-07
7.82123e-07
9.24388e-07
8.06886e-07
9.24716e-07
8.30679e-07
9.26083e-07
8.53498e-07
9.28554e-07
8.75356e-07
9.32197e-07
8.9629e-07
9.37089e-07
9.16365e-07
9.43313e-07
9.35675e-07
9.50956e-07
9.54358e-07
9.60113e-07
9.72593e-07
9.70885e-07
9.90615e-07
9.83379e-07
1.00872e-06
9.97711e-07
1.02724e-06
1.014e-06
1.04655e-06
1.0324e-06
1.06706e-06
1.05153e-06
9.72352e-07
-9.26391e-07
-3.80001e-05
-2.37688e-07
3.74017e-08
1.08885e-06
7.44112e-08
1.07094e-06
1.11258e-07
1.05448e-06
1.48113e-07
1.03929e-06
1.85081e-07
1.02523e-06
2.22208e-07
1.01213e-06
2.59486e-07
9.99869e-07
2.96867e-07
9.8834e-07
3.34275e-07
9.77466e-07
3.71622e-07
9.67198e-07
4.08821e-07
9.57508e-07
4.45792e-07
9.48389e-07
4.8247e-07
9.3985e-07
5.1881e-07
9.31908e-07
5.54782e-07
9.24588e-07
5.90374e-07
9.17917e-07
6.25583e-07
9.11924e-07
6.60417e-07
9.06636e-07
6.94892e-07
9.02082e-07
7.29025e-07
8.98289e-07
7.6284e-07
8.95285e-07
7.96366e-07
8.93101e-07
8.29641e-07
8.91766e-07
8.62713e-07
8.91315e-07
8.95646e-07
8.91783e-07
9.28521e-07
8.93208e-07
9.61445e-07
8.95629e-07
9.94554e-07
8.99088e-07
1.02802e-06
9.03628e-07
1.06204e-06
9.0929e-07
1.09688e-06
9.16117e-07
1.13284e-06
9.24147e-07
1.17031e-06
9.33419e-07
1.20973e-06
9.43962e-07
1.25164e-06
9.55797e-07
1.29671e-06
9.68931e-07
1.34577e-06
9.83348e-07
1.39987e-06
9.97427e-07
1.31495e-06
-8.41477e-07
-3.64136e-05
-2.71597e-07
4.012e-08
1.04873e-06
7.97446e-08
1.03131e-06
1.19063e-07
1.01516e-06
1.58224e-07
1.00013e-06
1.97332e-07
9.86121e-07
2.36453e-07
9.7301e-07
2.75616e-07
9.60706e-07
3.14824e-07
9.49132e-07
3.54059e-07
9.38231e-07
3.93295e-07
9.27961e-07
4.32503e-07
9.183e-07
4.71656e-07
9.09236e-07
5.10737e-07
9.00769e-07
5.49738e-07
8.92908e-07
5.88662e-07
8.85665e-07
6.27523e-07
8.79056e-07
6.66347e-07
8.73101e-07
7.05166e-07
8.67816e-07
7.44026e-07
8.63222e-07
7.82978e-07
8.59336e-07
8.22086e-07
8.56178e-07
8.61423e-07
8.53763e-07
9.01078e-07
8.52112e-07
9.41155e-07
8.51239e-07
9.81777e-07
8.51161e-07
1.02309e-06
8.51894e-07
1.06527e-06
8.53451e-07
1.10852e-06
8.55841e-07
1.15307e-06
8.59073e-07
1.19921e-06
8.63151e-07
1.24725e-06
8.68072e-07
1.29757e-06
8.73829e-07
1.35058e-06
8.80409e-07
1.40676e-06
8.87789e-07
1.46661e-06
8.95941e-07
1.53071e-06
9.0483e-07
1.59964e-06
9.14419e-07
1.67393e-06
9.2314e-07
1.60212e-06
-7.69673e-07
-3.45261e-05
-2.85353e-07
4.23856e-08
1.00635e-06
8.42081e-08
9.89492e-07
1.25638e-07
9.73728e-07
1.66816e-07
9.58956e-07
2.07851e-07
9.45085e-07
2.48827e-07
9.32034e-07
2.898e-07
9.19733e-07
3.30807e-07
9.08125e-07
3.71873e-07
8.97165e-07
4.13013e-07
8.86821e-07
4.5424e-07
8.77073e-07
4.95566e-07
8.6791e-07
5.37009e-07
8.59326e-07
5.78592e-07
8.51324e-07
6.20347e-07
8.4391e-07
6.62312e-07
8.37091e-07
7.04537e-07
8.30876e-07
7.47078e-07
8.25275e-07
7.90004e-07
8.20297e-07
8.3339e-07
8.1595e-07
8.77327e-07
8.12241e-07
9.21915e-07
8.09175e-07
9.67271e-07
8.06756e-07
1.01353e-06
8.04983e-07
1.06083e-06
8.03854e-07
1.10936e-06
8.03364e-07
1.15931e-06
8.035e-07
1.21091e-06
8.04248e-07
1.2644e-06
8.05586e-07
1.32006e-06
8.07486e-07
1.37822e-06
8.09912e-07
1.43923e-06
8.12819e-07
1.50349e-06
8.1615e-07
1.57144e-06
8.1984e-07
1.64357e-06
8.23808e-07
1.72044e-06
8.27956e-07
1.8027e-06
8.32164e-07
1.89103e-06
8.34814e-07
1.82397e-06
-7.02619e-07
-3.24217e-05
-2.80383e-07
4.42578e-08
9.62088e-07
8.7908e-08
9.45842e-07
1.31114e-07
9.30522e-07
1.74017e-07
9.16053e-07
2.16734e-07
9.02368e-07
2.59361e-07
8.89407e-07
3.01977e-07
8.77117e-07
3.44645e-07
8.65457e-07
3.87417e-07
8.54393e-07
4.30339e-07
8.43899e-07
4.73453e-07
8.3396e-07
5.168e-07
8.24563e-07
5.60424e-07
8.15702e-07
6.04372e-07
8.07377e-07
6.48697e-07
7.99586e-07
6.93456e-07
7.92331e-07
7.38716e-07
7.85616e-07
7.84549e-07
7.79441e-07
8.31037e-07
7.73808e-07
8.78272e-07
7.68716e-07
9.26352e-07
7.64161e-07
9.7539e-07
7.60138e-07
1.02551e-06
7.56637e-07
1.07684e-06
7.53647e-07
1.12955e-06
7.5115e-07
1.18379e-06
7.49124e-07
1.23975e-06
7.47542e-07
1.29762e-06
7.4637e-07
1.35764e-06
7.45569e-07
1.42004e-06
7.4509e-07
1.48507e-06
7.44878e-07
1.55302e-06
7.44869e-07
1.62418e-06
7.44988e-07
1.69887e-06
7.45153e-07
1.77741e-06
7.45272e-07
1.86012e-06
7.45245e-07
1.94732e-06
7.44966e-07
2.03918e-06
7.42954e-07
1.97974e-06
-6.43188e-07
-3.01834e-05
-2.58589e-07
4.57617e-08
9.16326e-07
9.08864e-08
9.00717e-07
1.35538e-07
8.8587e-07
1.79861e-07
8.71731e-07
2.2398e-07
8.58249e-07
2.68004e-07
8.45383e-07
3.12027e-07
8.33094e-07
3.56132e-07
8.21353e-07
4.0039e-07
8.10134e-07
4.44869e-07
7.9942e-07
4.89632e-07
7.89197e-07
5.3474e-07
7.79455e-07
5.80255e-07
7.70187e-07
6.26241e-07
7.61391e-07
6.72763e-07
7.53063e-07
7.19894e-07
7.45201e-07
7.67708e-07
7.37802e-07
8.16287e-07
7.30863e-07
8.65717e-07
7.24379e-07
9.16091e-07
7.18342e-07
9.67508e-07
7.12743e-07
1.02008e-06
7.07569e-07
1.07391e-06
7.02802e-07
1.12914e-06
6.98423e-07
1.18588e-06
6.94405e-07
1.24429e-06
6.9072e-07
1.3045e-06
6.8733e-07
1.36667e-06
6.84194e-07
1.43098e-06
6.81265e-07
1.49758e-06
6.78489e-07
1.56665e-06
6.75803e-07
1.63839e-06
6.73138e-07
1.71296e-06
6.70417e-07
1.79055e-06
6.67555e-07
1.87137e-06
6.64453e-07
1.95561e-06
6.61007e-07
2.04348e-06
6.57093e-07
2.13514e-06
6.51301e-07
2.07773e-06
-5.85776e-07
-2.78803e-05
-2.25409e-07
4.69031e-08
8.69423e-07
9.31507e-08
8.54469e-07
1.3891e-07
8.40111e-07
1.84329e-07
8.26312e-07
2.29541e-07
8.13037e-07
2.74665e-07
8.00259e-07
3.19807e-07
7.87953e-07
3.65061e-07
7.76098e-07
4.10516e-07
7.64679e-07
4.56252e-07
7.53684e-07
5.02347e-07
7.43102e-07
5.48875e-07
7.32926e-07
5.95911e-07
7.23152e-07
6.43528e-07
7.13774e-07
6.91801e-07
7.0479e-07
7.40806e-07
6.96195e-07
7.90624e-07
6.87984e-07
8.41336e-07
6.80151e-07
8.93025e-07
6.72689e-07
9.45782e-07
6.65586e-07
9.99695e-07
6.5883e-07
1.05486e-06
6.52404e-07
1.11137e-06
6.46289e-07
1.16933e-06
6.40462e-07
1.22884e-06
6.34895e-07
1.29001e-06
6.29557e-07
1.35292e-06
6.24412e-07
1.4177e-06
6.19419e-07
1.48443e-06
6.14533e-07
1.55322e-06
6.09703e-07
1.62415e-06
6.04876e-07
1.69729e-06
5.99991e-07
1.77273e-06
5.94985e-07
1.85049e-06
5.8979e-07
1.93061e-06
5.84337e-07
2.01306e-06
5.78551e-07
2.09779e-06
5.7236e-07
2.18456e-06
5.64533e-07
2.13207e-06
-5.3328e-07
-2.55637e-05
-1.84548e-07
4.7679e-08
8.21744e-07
9.46916e-08
8.07457e-07
1.41208e-07
7.93595e-07
1.87383e-07
7.80137e-07
2.33354e-07
7.67066e-07
2.79248e-07
7.54365e-07
3.25178e-07
7.42022e-07
3.7125e-07
7.30026e-07
4.1756e-07
7.18369e-07
4.642e-07
7.07044e-07
5.11255e-07
6.96047e-07
5.58808e-07
6.85373e-07
6.06941e-07
6.75019e-07
6.55732e-07
6.64983e-07
7.0526e-07
6.55262e-07
7.55603e-07
6.45852e-07
8.0684e-07
6.36748e-07
8.59048e-07
6.27943e-07
9.12305e-07
6.19431e-07
9.66692e-07
6.112e-07
1.02228e-06
6.03237e-07
1.07916e-06
5.95528e-07
1.13739e-06
5.88054e-07
1.19706e-06
5.80795e-07
1.25823e-06
5.73725e-07
1.32097e-06
5.66817e-07
1.38534e-06
5.60042e-07
1.4514e-06
5.53365e-07
1.51918e-06
5.4675e-07
1.58872e-06
5.40159e-07
1.66005e-06
5.33549e-07
1.73316e-06
5.26879e-07
1.80804e-06
5.20104e-07
1.88466e-06
5.13177e-07
1.96294e-06
5.06054e-07
2.0428e-06
4.98688e-07
2.12413e-06
4.91036e-07
2.20664e-06
4.82019e-07
2.1554e-06
-4.8204e-07
-2.32677e-05
-1.4052e-07
4.8083e-08
7.73661e-07
9.54951e-08
7.60045e-07
1.42409e-07
7.4668e-07
1.88983e-07
7.33563e-07
2.35359e-07
7.20689e-07
2.81668e-07
7.08056e-07
3.2803e-07
6.95661e-07
3.74555e-07
6.83502e-07
4.21345e-07
6.71578e-07
4.68499e-07
6.59891e-07
5.16106e-07
6.48439e-07
5.64255e-07
6.37224e-07
6.13029e-07
6.26245e-07
6.62509e-07
6.15503e-07
7.12774e-07
6.04996e-07
7.63902e-07
5.94724e-07
8.15966e-07
5.84683e-07
8.6904e-07
5.7487e-07
9.23193e-07
5.65277e-07
9.78494e-07
5.55899e-07
1.03501e-06
5.46725e-07
1.09279e-06
5.37743e-07
1.15191e-06
5.28941e-07
1.2124e-06
5.20302e-07
1.27431e-06
5.11809e-07
1.33769e-06
5.03441e-07
1.40255e-06
4.95179e-07
1.46892e-06
4.86997e-07
1.5368e-06
4.78873e-07
1.60617e-06
4.70781e-07
1.67703e-06
4.62695e-07
1.74932e-06
4.54591e-07
1.82298e-06
4.46444e-07
1.89792e-06
4.38231e-07
1.97405e-06
4.29929e-07
2.05122e-06
4.21516e-07
2.12929e-06
4.12967e-07
2.20797e-06
4.03335e-07
2.15909e-06
-4.33155e-07
-2.10135e-05
-9.51225e-08
4.81101e-08
7.25551e-07
9.55496e-08
7.12605e-07
1.42493e-07
6.99737e-07
1.89099e-07
6.86957e-07
2.35513e-07
6.74276e-07
2.81867e-07
6.61702e-07
3.28284e-07
6.49244e-07
3.74877e-07
6.36908e-07
4.21752e-07
6.24703e-07
4.69009e-07
6.12634e-07
5.1674e-07
6.00708e-07
5.65036e-07
5.88929e-07
6.13979e-07
5.77301e-07
6.63652e-07
5.6583e-07
7.14132e-07
5.54517e-07
7.65493e-07
5.43364e-07
8.17805e-07
5.32371e-07
8.71135e-07
5.2154e-07
9.25546e-07
5.10866e-07
9.81096e-07
5.00349e-07
1.03784e-06
4.89982e-07
1.09582e-06
4.79761e-07
1.15508e-06
4.69678e-07
1.21566e-06
4.59725e-07
1.27758e-06
4.49893e-07
1.34085e-06
4.40171e-07
1.40548e-06
4.30548e-07
1.47146e-06
4.21011e-07
1.53879e-06
4.11548e-07
1.60742e-06
4.02148e-07
1.67732e-06
3.92798e-07
1.74842e-06
3.8349e-07
1.82065e-06
3.74218e-07
1.89389e-06
3.64982e-07
1.96803e-06
3.55792e-07
2.04287e-06
3.46675e-07
2.11816e-06
3.37681e-07
2.19336e-06
3.28132e-07
2.15056e-06
-3.90352e-07
-1.88129e-05
-5.01151e-08
4.7758e-08
6.77793e-07
9.48505e-08
6.65513e-07
1.41451e-07
6.53136e-07
1.87718e-07
6.40691e-07
2.33795e-07
6.28199e-07
2.79816e-07
6.15681e-07
3.25903e-07
6.03157e-07
3.7217e-07
5.90641e-07
4.18724e-07
5.7815e-07
4.65663e-07
5.65695e-07
5.13082e-07
5.53289e-07
5.61069e-07
5.40942e-07
6.09708e-07
5.28663e-07
6.59078e-07
5.1646e-07
7.09254e-07
5.0434e-07
7.60308e-07
4.9231e-07
8.12307e-07
4.80373e-07
8.65311e-07
4.68535e-07
9.1938e-07
4.56798e-07
9.74563e-07
4.45165e-07
1.03091e-06
4.33638e-07
1.08845e-06
4.22218e-07
1.14722e-06
4.10905e-07
1.20725e-06
3.99699e-07
1.26854e-06
3.886e-07
1.33111e-06
3.77606e-07
1.39494e-06
3.66717e-07
1.46002e-06
3.5593e-07
1.52632e-06
3.45244e-07
1.59382e-06
3.34655e-07
1.66246e-06
3.24159e-07
1.7322e-06
3.13752e-07
1.80298e-06
3.03429e-07
1.87479e-06
2.93179e-07
1.94759e-06
2.82992e-07
2.02142e-06
2.72847e-07
2.09638e-06
2.62715e-07
2.17259e-06
2.51926e-07
2.13291e-06
-3.50674e-07
-1.66722e-05
-7.76712e-09
4.70291e-08
6.30764e-07
9.34021e-08
6.1914e-07
1.39289e-07
6.07249e-07
1.84845e-07
5.95135e-07
2.30212e-07
5.82832e-07
2.7552e-07
5.70372e-07
3.20892e-07
5.57785e-07
3.66437e-07
5.45095e-07
4.12262e-07
5.32325e-07
4.58464e-07
5.19493e-07
5.05135e-07
5.06618e-07
5.52361e-07
4.93715e-07
6.00225e-07
4.80799e-07
6.48804e-07
4.67881e-07
6.9817e-07
4.54974e-07
7.48393e-07
4.42087e-07
7.99537e-07
4.2923e-07
8.5166e-07
4.16412e-07
9.04816e-07
4.03642e-07
9.59055e-07
3.90927e-07
1.01442e-06
3.78275e-07
1.07094e-06
3.65696e-07
1.12865e-06
3.53196e-07
1.18756e-06
3.40784e-07
1.24769e-06
3.2847e-07
1.30904e-06
3.16261e-07
1.37159e-06
3.04167e-07
1.43532e-06
2.92198e-07
1.5002e-06
2.80361e-07
1.56619e-06
2.68665e-07
1.63324e-06
2.57116e-07
1.70127e-06
2.45719e-07
1.77022e-06
2.34476e-07
1.84002e-06
2.23382e-07
1.91058e-06
2.12429e-07
1.98184e-06
2.01596e-07
2.0537e-06
1.90849e-07
2.12595e-06
1.79681e-07
2.08817e-06
-3.129e-07
-1.45955e-05
1.14406e-08
4.59312e-08
5.84833e-07
9.12196e-08
5.73851e-07
1.36029e-07
5.6244e-07
1.8051e-07
5.50654e-07
2.24799e-07
5.38542e-07
2.69023e-07
5.26148e-07
3.13299e-07
5.1351e-07
3.57734e-07
5.0066e-07
4.0243e-07
4.87629e-07
4.47482e-07
4.74442e-07
4.92977e-07
4.61123e-07
5.39e-07
4.47692e-07
5.8563e-07
4.34169e-07
6.32942e-07
4.20569e-07
6.81006e-07
4.0691e-07
7.29889e-07
3.93204e-07
7.79653e-07
3.79465e-07
8.30357e-07
3.65708e-07
8.82055e-07
3.51944e-07
9.34795e-07
3.38187e-07
9.88621e-07
3.2445e-07
1.04357e-06
3.10747e-07
1.09967e-06
2.97095e-07
1.15695e-06
2.83508e-07
1.21541e-06
2.70006e-07
1.27507e-06
2.56605e-07
1.33591e-06
2.43327e-07
1.39791e-06
2.30193e-07
1.46105e-06
2.17224e-07
1.52527e-06
2.04443e-07
1.59051e-06
1.91874e-07
1.65669e-06
1.79538e-07
1.72371e-06
1.67457e-07
1.79144e-06
1.55653e-07
1.85972e-06
1.44147e-07
1.92836e-06
1.3296e-07
1.99709e-06
1.2212e-07
2.06539e-06
1.11377e-07
2.03353e-06
-2.81039e-07
-1.25868e-05
2.48445e-08
4.44773e-08
5.40355e-07
8.83287e-08
5.3e-07
1.3171e-07
5.19058e-07
1.74765e-07
5.076e-07
2.17622e-07
4.95685e-07
2.60402e-07
4.83369e-07
3.03215e-07
4.70697e-07
3.46164e-07
4.57711e-07
3.89346e-07
4.44447e-07
4.32848e-07
4.30939e-07
4.76757e-07
4.17214e-07
5.2115e-07
4.03299e-07
5.66103e-07
3.89215e-07
6.11688e-07
3.74984e-07
6.57973e-07
3.60625e-07
7.05023e-07
3.46154e-07
7.52899e-07
3.3159e-07
8.0166e-07
3.16947e-07
8.51362e-07
3.02242e-07
9.02057e-07
2.87492e-07
9.53794e-07
2.72713e-07
1.00662e-06
2.57925e-07
1.06056e-06
2.43148e-07
1.11567e-06
2.28403e-07
1.17196e-06
2.13716e-07
1.22945e-06
1.99113e-07
1.28815e-06
1.84625e-07
1.34806e-06
1.70283e-07
1.40916e-06
1.56124e-07
1.47142e-06
1.42185e-07
1.53479e-06
1.28505e-07
1.5992e-06
1.15128e-07
1.66456e-06
1.02093e-07
1.73077e-06
8.94436e-08
1.7977e-06
7.72199e-08
1.8652e-06
6.54601e-08
1.93312e-06
5.41981e-08
2.00115e-06
4.33521e-08
1.97211e-06
-2.52009e-07
-1.06509e-05
3.62372e-08
4.26856e-08
4.9767e-07
8.47661e-08
4.87919e-07
1.26387e-07
4.77437e-07
1.67681e-07
4.66305e-07
2.08771e-07
4.54596e-07
2.49766e-07
4.42373e-07
2.9077e-07
4.29692e-07
3.31879e-07
4.16602e-07
3.73181e-07
4.03145e-07
4.14759e-07
3.89361e-07
4.56691e-07
3.75283e-07
4.99049e-07
3.6094e-07
5.41905e-07
3.46359e-07
5.85326e-07
3.31564e-07
6.29374e-07
3.16576e-07
6.74114e-07
3.01414e-07
7.19606e-07
2.86098e-07
7.65908e-07
2.70644e-07
8.1308e-07
2.5507e-07
8.61178e-07
2.39394e-07
9.10258e-07
2.23633e-07
9.60376e-07
2.07807e-07
1.01158e-06
1.91939e-07
1.06394e-06
1.76052e-07
1.11748e-06
1.60175e-07
1.17225e-06
1.44338e-07
1.2283e-06
1.28577e-07
1.28565e-06
1.12933e-07
1.34432e-06
9.74524e-08
1.40432e-06
8.21857e-08
1.46564e-06
6.71896e-08
1.52824e-06
5.25251e-08
1.59208e-06
3.8257e-08
1.65707e-06
2.44523e-08
1.72311e-06
1.1178e-08
1.79007e-06
-1.50112e-09
1.85779e-06
-1.35257e-08
1.92593e-06
-2.47873e-08
1.90254e-06
-2.28618e-07
-8.79385e-06
4.55029e-08
4.05794e-08
4.5709e-07
8.0578e-08
4.47921e-07
1.20129e-07
4.37886e-07
1.59354e-07
4.2708e-07
1.98364e-07
4.15587e-07
2.37259e-07
4.03477e-07
2.76134e-07
3.90817e-07
3.15075e-07
3.77661e-07
3.54161e-07
3.6406e-07
3.93466e-07
3.50056e-07
4.33061e-07
3.35688e-07
4.73011e-07
3.2099e-07
5.13379e-07
3.05991e-07
5.54225e-07
2.90718e-07
5.95607e-07
2.75193e-07
6.37585e-07
2.59437e-07
6.80214e-07
2.43469e-07
7.23553e-07
2.27305e-07
7.67661e-07
2.10962e-07
8.12599e-07
1.94456e-07
8.58429e-07
1.77803e-07
9.05218e-07
1.61018e-07
9.53036e-07
1.44122e-07
1.00195e-06
1.27134e-07
1.05205e-06
1.10079e-07
1.1034e-06
9.29851e-08
1.15609e-06
7.58873e-08
1.2102e-06
5.8826e-08
1.2658e-06
4.18504e-08
1.32297e-06
2.50182e-08
1.38176e-06
8.39768e-09
1.44222e-06
-7.9324e-09
1.50436e-06
-2.38826e-08
1.56816e-06
-3.93536e-08
1.63358e-06
-5.42386e-08
1.70051e-06
-6.84271e-08
1.76879e-06
-8.18096e-08
1.83809e-06
-9.40838e-08
1.82185e-06
-2.12382e-07
-7.02364e-06
5.164e-08
3.81863e-08
4.18904e-07
7.58194e-08
4.10288e-07
1.13019e-07
4.00687e-07
1.49893e-07
3.90206e-07
1.86541e-07
3.78939e-07
2.23052e-07
3.66966e-07
2.59509e-07
3.5436e-07
2.95987e-07
3.41183e-07
3.32555e-07
3.27491e-07
3.69278e-07
3.13333e-07
4.06214e-07
2.98752e-07
4.43421e-07
2.83784e-07
4.80949e-07
2.68463e-07
5.18852e-07
2.52816e-07
5.57177e-07
2.36867e-07
5.95976e-07
2.20639e-07
6.35297e-07
2.04148e-07
6.75192e-07
1.87409e-07
7.15717e-07
1.70437e-07
7.56931e-07
1.53242e-07
7.98898e-07
1.35836e-07
8.4169e-07
1.18226e-07
8.85387e-07
1.00424e-07
9.3008e-07
8.24404e-08
9.75872e-07
6.4287e-08
1.02288e-06
4.59798e-08
1.07123e-06
2.75392e-08
1.12106e-06
8.99233e-09
1.17253e-06
-9.62493e-09
1.22582e-06
-2.82647e-08
1.28108e-06
-4.68641e-08
1.33849e-06
-6.53414e-08
1.3982e-06
-8.35924e-08
1.46033e-06
-1.01487e-07
1.52496e-06
-1.18869e-07
1.59209e-06
-1.35555e-07
1.66162e-06
-1.5134e-07
1.73324e-06
-1.65702e-07
1.72543e-06
-2.04576e-07
-5.35162e-06
5.34115e-08
3.5537e-08
3.83367e-07
7.0552e-08
3.75273e-07
1.05149e-07
3.66089e-07
1.39424e-07
3.55932e-07
1.73461e-07
3.44902e-07
2.07338e-07
3.33089e-07
2.41126e-07
3.20573e-07
2.74886e-07
3.07423e-07
3.08677e-07
2.937e-07
3.42551e-07
2.79459e-07
3.76555e-07
2.64748e-07
4.10733e-07
2.49606e-07
4.45125e-07
2.34071e-07
4.7977e-07
2.18171e-07
5.14704e-07
2.01933e-07
5.49963e-07
1.85379e-07
5.85585e-07
1.68525e-07
6.2161e-07
1.51385e-07
6.58078e-07
1.33969e-07
6.95039e-07
1.16282e-07
7.32546e-07
9.83283e-08
7.70665e-07
8.01077e-08
8.09471e-07
6.16176e-08
8.49059e-07
4.28532e-08
8.89538e-07
2.38076e-08
9.31045e-07
4.473e-09
9.73743e-07
-1.51585e-08
1.01783e-06
-3.50933e-08
1.06354e-06
-5.53337e-08
1.11115e-06
-7.58745e-08
1.16098e-06
-9.66976e-08
1.2134e-06
-1.17765e-07
1.26882e-06
-1.39007e-07
1.32764e-06
-1.6031e-07
1.39027e-06
-1.81498e-07
1.45703e-06
-2.02312e-07
1.52807e-06
-2.22388e-07
1.60325e-06
-2.40877e-07
1.60694e-06
-2.08264e-07
-3.79433e-06
4.96497e-08
3.26648e-08
3.50702e-07
6.48422e-08
3.43095e-07
9.66212e-08
3.3431e-07
1.28082e-07
3.24471e-07
1.59296e-07
3.13687e-07
1.90328e-07
3.02057e-07
2.21235e-07
2.89666e-07
2.52067e-07
2.7659e-07
2.8287e-07
2.62898e-07
3.1368e-07
2.48648e-07
3.44534e-07
2.33894e-07
3.7546e-07
2.1868e-07
4.06484e-07
2.03046e-07
4.37629e-07
1.87026e-07
4.68914e-07
1.70648e-07
5.00359e-07
1.53935e-07
5.31981e-07
1.36904e-07
5.63798e-07
1.19568e-07
5.95831e-07
1.01935e-07
6.28104e-07
8.40089e-08
6.60647e-07
6.57859e-08
6.93496e-07
4.72585e-08