/*--------------------------------*- C++ -*----------------------------------*\
  =========                 |
  \\      /  F ield         | OpenFOAM: The Open Source CFD Toolbox
   \\    /   O peration     | Website:  https://openfoam.org
    \\  /    A nd           | Version:  10
     \\/     M anipulation  |
\*---------------------------------------------------------------------------*/
FoamFile
{
    format      ascii;
    class       volScalarField;
    location    "1000";
    object      p;
}
// * * * * * * * * * * * * * * * * * * * * * * * * * * * * * * * * * * * * * //

dimensions      [1 -1 -2 0 0 0 0];

internalField   nonuniform List<scalar> 
3200
(
102
102
102.002
102.003
102.006
102.009
102.012
102.015
102.019
102.023
102.027
102.031
102.036
102.04
102.045
102.049
102.053
102.057
102.062
102.065
102.069
102.073
102.076
102.079
102.082
102.084
102.086
102.088
102.09
102.091
102.093
102.093
102.094
102.095
102.095
102.095
102.094
102.094
102.093
102.092
99.546
99.5466
99.5479
99.5497
99.5521
99.5549
99.5581
99.5617
99.5656
99.5697
99.574
99.5784
99.5829
99.5875
99.592
99.5965
99.6009
99.6052
99.6094
99.6134
99.6172
99.6208
99.6241
99.6272
99.6301
99.6327
99.635
99.637
99.6388
99.6403
99.6415
99.6425
99.6432
99.6436
99.6438
99.6438
99.6435
99.6431
99.6424
99.6415
97.0908
97.0914
97.0928
97.0947
97.0972
97.1002
97.1035
97.1073
97.1114
97.1157
97.1202
97.1249
97.1297
97.1345
97.1393
97.144
97.1487
97.1533
97.1577
97.1619
97.1659
97.1697
97.1733
97.1766
97.1797
97.1824
97.1849
97.1871
97.189
97.1906
97.192
97.193
97.1938
97.1943
97.1946
97.1946
97.1943
97.1939
97.1932
97.1923
94.6341
94.6348
94.6363
94.6383
94.641
94.6442
94.6478
94.6519
94.6563
94.6609
94.6658
94.6709
94.676
94.6812
94.6864
94.6916
94.6966
94.7016
94.7064
94.711
94.7154
94.7195
94.7234
94.727
94.7303
94.7334
94.7361
94.7385
94.7407
94.7425
94.744
94.7452
94.7461
94.7467
94.747
94.7471
94.7469
94.7465
94.7458
94.7449
92.1758
92.1766
92.1782
92.1805
92.1834
92.1869
92.1909
92.1954
92.2002
92.2053
92.2107
92.2162
92.2219
92.2276
92.2334
92.2391
92.2447
92.2501
92.2555
92.2606
92.2654
92.2701
92.2744
92.2785
92.2822
92.2856
92.2887
92.2914
92.2939
92.2959
92.2977
92.2991
92.3001
92.3009
92.3014
92.3015
92.3014
92.301
92.3003
92.2994
89.7159
89.7168
89.7185
89.7211
89.7243
89.7282
89.7327
89.7376
89.743
89.7487
89.7547
89.7609
89.7672
89.7737
89.7801
89.7865
89.7928
89.799
89.805
89.8108
89.8163
89.8215
89.8265
89.8311
89.8353
89.8392
89.8428
89.8459
89.8487
89.8512
89.8532
89.8549
89.8562
89.8571
89.8577
89.858
89.8579
89.8576
89.8569
89.856
87.254
87.255
87.257
87.2599
87.2635
87.2679
87.2729
87.2785
87.2845
87.291
87.2978
87.3048
87.312
87.3193
87.3266
87.3339
87.3411
87.3481
87.3549
87.3616
87.3679
87.3739
87.3796
87.3849
87.3899
87.3944
87.3985
87.4022
87.4055
87.4083
87.4108
87.4128
87.4144
87.4156
87.4164
87.4168
87.4168
87.4165
87.4159
87.415
84.79
84.7912
84.7934
84.7967
84.8008
84.8058
84.8115
84.8178
84.8247
84.8321
84.8398
84.8478
84.856
84.8644
84.8727
84.8811
84.8894
84.8975
84.9054
84.913
84.9204
84.9273
84.934
84.9402
84.9459
84.9512
84.9561
84.9604
84.9643
84.9677
84.9706
84.9731
84.975
84.9765
84.9776
84.9782
84.9783
84.9781
84.9775
84.9766
82.3236
82.325
82.3275
82.3312
82.3359
82.3416
82.3481
82.3553
82.3632
82.3717
82.3805
82.3897
82.3992
82.4088
82.4185
82.4281
82.4377
82.4471
82.4563
82.4652
82.4738
82.4819
82.4897
82.4969
82.5037
82.51
82.5157
82.5209
82.5256
82.5296
82.5331
82.5361
82.5385
82.5404
82.5417
82.5426
82.5429
82.5428
82.5422
82.5412
79.8545
79.856
79.8589
79.8631
79.8685
79.875
79.8825
79.8908
79.8999
79.9096
79.9198
79.9304
79.9413
79.9525
79.9637
79.9749
79.986
79.997
80.0077
80.0181
80.0282
80.0378
80.0469
80.0555
80.0635
80.0709
80.0778
80.084
80.0895
80.0944
80.0987
80.1023
80.1052
80.1076
80.1093
80.1104
80.111
80.111
80.1104
80.1094
77.3822
77.3839
77.3872
77.392
77.3982
77.4057
77.4143
77.4239
77.4343
77.4455
77.4573
77.4696
77.4822
77.4951
77.5082
77.5212
77.5342
77.5471
77.5596
77.5719
77.5837
77.595
77.6058
77.6159
77.6255
77.6344
77.6425
77.6499
77.6566
77.6625
77.6677
77.6721
77.6757
77.6786
77.6808
77.6823
77.6831
77.6833
77.6828
77.6817
74.9062
74.9082
74.912
74.9175
74.9247
74.9332
74.9431
74.9541
74.9661
74.9791
74.9927
75.0069
75.0216
75.0366
75.0518
75.067
75.0822
75.0973
75.112
75.1264
75.1403
75.1537
75.1665
75.1786
75.19
75.2006
75.2104
75.2193
75.2273
75.2345
75.2408
75.2462
75.2507
75.2543
75.257
75.259
75.2601
75.2604
75.2601
75.259
72.4262
72.4284
72.4328
72.4391
72.4473
72.4571
72.4684
72.4811
72.495
72.5099
72.5256
72.5421
72.5591
72.5766
72.5943
72.6121
72.6298
72.6475
72.6648
72.6818
72.6983
72.7142
72.7294
72.7438
72.7574
72.7701
72.7818
72.7926
72.8023
72.811
72.8187
72.8253
72.8308
72.8353
72.8388
72.8413
72.8428
72.8434
72.8431
72.842
69.9414
69.944
69.9489
69.9562
69.9655
69.9767
69.9897
70.0043
70.0202
70.0374
70.0556
70.0746
70.0944
70.1146
70.1352
70.156
70.1769
70.1976
70.218
70.238
70.2575
70.2764
70.2945
70.3117
70.328
70.3432
70.3574
70.3704
70.3822
70.3928
70.4022
70.4103
70.4171
70.4227
70.4271
70.4303
70.4323
70.4332
70.4331
70.4319
67.4512
67.4541
67.4598
67.468
67.4787
67.4915
67.5063
67.523
67.5413
67.561
67.582
67.604
67.6268
67.6503
67.6743
67.6986
67.723
67.7473
67.7713
67.795
67.8181
67.8405
67.8621
67.8827
67.9023
67.9206
67.9378
67.9535
67.9679
67.9809
67.9923
68.0023
68.0108
68.0178
68.0233
68.0274
68.03
68.0314
68.0314
68.0301
64.9549
64.9582
64.9646
64.974
64.9861
65.0006
65.0176
65.0366
65.0575
65.0801
65.1041
65.1295
65.1559
65.1831
65.2109
65.2392
65.2677
65.2962
65.3246
65.3525
65.3799
65.4066
65.4324
65.4571
65.4806
65.5028
65.5236
65.5428
65.5604
65.5762
65.5904
65.6027
65.6133
65.622
65.629
65.6342
65.6377
65.6395
65.6398
65.6385
62.4516
62.4553
62.4626
62.4732
62.4868
62.5033
62.5225
62.5441
62.5679
62.5937
62.6212
62.6503
62.6807
62.7121
62.7444
62.7773
62.8105
62.844
62.8773
62.9103
62.9428
62.9746
63.0054
63.0351
63.0635
63.0904
63.1157
63.1391
63.1607
63.1803
63.1978
63.2132
63.2264
63.2374
63.2462
63.2529
63.2574
63.2599
63.2605
63.2591
59.9405
59.9447
59.9528
59.9647
59.98
59.9986
60.0202
60.0446
60.0716
60.1009
60.1323
60.1655
60.2003
60.2365
60.2738
60.3119
60.3507
60.3897
60.4289
60.4679
60.5064
60.5443
60.5812
60.6169
60.6513
60.684
60.7148
60.7436
60.7703
60.7946
60.8164
60.8356
60.8522
60.8662
60.8775
60.8861
60.8921
60.8955
60.8965
60.8951
57.4205
57.4252
57.4343
57.4475
57.4646
57.4855
57.5097
57.5371
57.5675
57.6006
57.6362
57.6739
57.7136
57.7551
57.798
57.842
57.887
57.9325
57.9784
58.0244
58.07
58.1151
58.1594
58.2025
58.2441
58.284
58.3219
58.3574
58.3905
58.4208
58.4483
58.4726
58.4937
58.5116
58.5262
58.5374
58.5453
58.55
58.5515
58.55
54.8908
54.896
54.906
54.9206
54.9397
54.9628
54.9898
55.0204
55.0544
55.0915
55.1315
55.1741
55.2192
55.2664
55.3154
55.3661
55.418
55.471
55.5246
55.5786
55.6326
55.6863
55.7394
55.7914
55.8419
55.8908
55.9374
55.9816
56.023
56.0612
56.096
56.1271
56.1543
56.1775
56.1965
56.2113
56.2219
56.2283
56.2307
56.2292
52.3502
52.3559
52.3669
52.383
52.4039
52.4294
52.4592
52.493
52.5307
52.5721
52.6168
52.6646
52.7153
52.7687
52.8244
52.8823
52.942
53.0032
53.0655
53.1288
53.1925
53.2563
53.3198
53.3826
53.4441
53.504
53.5619
53.6171
53.6692
53.7178
53.7625
53.8027
53.8383
53.8688
53.8941
53.9141
53.9285
53.9375
53.9412
53.9397
49.7977
49.8039
49.8158
49.8334
49.8562
49.884
49.9166
49.9537
49.9952
50.0408
50.0903
50.1434
50.2
50.2599
50.3227
50.3883
50.4564
50.5266
50.5987
50.6724
50.7471
50.8227
50.8985
50.9742
51.0491
51.1228
51.1946
51.264
51.3303
51.3927
51.4508
51.5038
51.5511
51.5922
51.6267
51.6542
51.6744
51.6873
51.693
51.6916
47.2323
47.2389
47.2518
47.2707
47.2953
47.3253
47.3606
47.4009
47.4461
47.4959
47.5501
47.6086
47.6711
47.7376
47.8077
47.8813
47.9582
48.0381
48.1208
48.2058
48.293
48.3818
48.4719
48.5627
48.6538
48.7444
48.8338
48.9214
49.0062
49.0873
49.1638
49.2348
49.2991
49.3559
49.4043
49.4435
49.4729
49.4922
49.5013
49.5003
44.653
44.66
44.6737
44.6939
44.7201
44.7522
44.79
44.8333
44.8818
44.9355
44.9942
45.0578
45.1261
45.199
45.2764
45.358
45.4439
45.5337
45.6273
45.7245
45.8249
45.9284
46.0345
46.1428
46.2527
46.3636
46.4748
46.5854
46.6944
46.8007
46.9029
46.9996
47.0892
47.1701
47.2406
47.2991
47.3442
47.3748
47.3902
47.3903
42.0589
42.0663
42.0807
42.1019
42.1295
42.1634
42.2033
42.2492
42.3008
42.358
42.4207
42.4889
42.5624
42.6413
42.7254
42.8146
42.909
43.0085
43.113
43.2224
43.3365
43.4553
43.5785
43.7059
43.837
43.9714
44.1085
44.2475
44.3874
44.5269
44.6645
44.7983
44.9261
45.0452
45.1526
45.2451
45.3193
45.3723
45.4013
45.4049
39.4492
39.4569
39.4718
39.4938
39.5226
39.5579
39.5995
39.6474
39.7014
39.7615
39.8275
39.8995
39.9775
40.0614
40.1513
40.2472
40.3492
40.4574
40.5718
40.6925
40.8197
40.9533
41.0935
41.2403
41.3936
41.5534
41.7194
41.8913
42.0684
42.25
42.4346
42.6206
42.8053
42.9853
43.1562
43.3122
43.4461
43.5499
43.6144
43.6316
36.8234
36.8312
36.8466
36.8691
36.8986
36.9348
36.9776
37.0269
37.0826
37.1446
37.213
37.2877
37.3689
37.4566
37.5508
37.6518
37.7598
37.8749
37.9973
38.1274
38.2655
38.4118
38.5669
38.7312
38.905
39.089
39.2836
39.4893
39.7066
39.9358
40.177
40.43
40.6937
40.9661
41.2436
41.5197
41.7841
42.0202
42.2028
42.2941
34.1811
34.189
34.2044
34.2272
34.2569
34.2935
34.3368
34.3867
34.4431
34.5061
34.5757
34.6519
34.7348
34.8245
34.9213
35.0253
35.1368
35.2562
35.3837
35.5198
35.6651
35.8202
35.9857
36.1624
36.3514
36.5537
36.7707
37.0039
37.2553
37.527
37.8218
38.1429
38.4942
38.8802
39.3061
39.7777
40.3004
40.8774
41.5069
42.1748
31.5221
31.53
31.5453
31.5679
31.5974
31.6338
31.6768
31.7265
31.7827
31.8455
31.9149
31.991
32.0739
32.1637
32.2608
32.3653
32.4775
32.5978
32.7267
32.8646
33.0121
33.1701
33.3392
33.5206
33.7154
33.9251
34.1514
34.3964
34.6628
34.954
35.2742
35.629
36.0262
36.4762
36.9942
37.6025
38.335
39.2446
40.4151
45.0474
28.8466
28.8543
28.8693
28.8913
28.9201
28.9556
28.9976
29.0461
29.1011
29.1624
29.2303
29.3047
29.3858
29.4737
29.5686
29.6709
29.7807
29.8984
30.0245
30.1593
30.3036
30.4578
30.6229
30.7996
30.9891
31.1926
31.4115
31.6476
31.9028
32.1794
32.4801
32.8077
33.1653
33.5559
33.9814
34.442
34.933
35.4407
35.9937
73.8582
26.155
26.1624
26.1767
26.1978
26.2254
26.2594
26.2997
26.3461
26.3987
26.4575
26.5224
26.5935
26.671
26.755
26.8455
26.9429
27.0473
27.159
27.2783
27.4055
27.5411
27.6856
27.8393
28.003
28.1772
28.3628
28.5603
28.7709
28.9952
29.2343
29.4889
29.7597
30.047
30.3506
30.6693
31.0003
31.3393
31.6794
32.2376
58.6755
23.448
23.4549
23.4684
23.4882
23.5141
23.546
23.5838
23.6274
23.6766
23.7316
23.7924
23.8588
23.9311
24.0092
24.0933
24.1835
24.2799
24.3827
24.492
24.6079
24.7307
24.8606
24.9978
25.1423
25.2945
25.4544
25.6222
25.7978
25.9813
26.1726
26.3712
26.5768
26.7889
27.0068
27.2299
27.4582
27.6923
27.9346
28.7811
49.2661
20.7265
20.7328
20.7452
20.7634
20.7872
20.8165
20.8511
20.891
20.9361
20.9864
21.0418
21.1024
21.1681
21.2389
21.315
21.3962
21.4827
21.5744
21.6713
21.7735
21.8808
21.9933
22.1109
22.2332
22.3602
22.4914
22.6264
22.7646
22.9052
23.0472
23.1894
23.3302
23.468
23.6009
23.7269
23.8442
23.9519
24.0508
24.576
40.2384
17.9916
17.9973
18.0084
18.0247
18.046
18.0722
18.1031
18.1388
18.179
18.2237
18.273
18.3267
18.3847
18.4472
18.514
18.585
18.6603
18.7396
18.8229
18.9101
19.0008
19.095
19.1922
19.292
19.3939
19.4972
19.6013
19.7049
19.8071
19.9061
20.0003
20.0871
20.1637
20.2262
20.2691
20.2851
20.2634
20.1877
20.0324
19.9148
15.2448
15.2497
15.2594
15.2735
15.292
15.3147
15.3416
15.3724
15.4072
15.4458
15.4882
15.5343
15.584
15.6374
15.6941
15.7543
15.8177
15.8841
15.9534
16.0253
16.0996
16.1758
16.2536
16.3323
16.4115
16.4904
16.5681
16.6437
16.7161
16.7838
16.8455
16.8994
16.9437
16.9764
16.9955
16.9993
16.9868
16.9589
16.9202
16.8826
12.4876
12.4917
12.4998
12.5116
12.527
12.546
12.5683
12.594
12.6228
12.6549
12.69
12.728
12.769
12.8128
12.8592
12.9082
12.9596
13.0131
13.0686
13.1258
13.1843
13.2438
13.3039
13.3641
13.4238
13.4823
13.539
13.5932
13.6439
13.6903
13.7315
13.7666
13.7947
13.8152
13.8276
13.8319
13.8285
13.8186
13.8041
13.7871
9.72177
9.72503
9.73138
9.74071
9.75289
9.76782
9.78542
9.80561
9.82831
9.85344
9.88093
9.9107
9.94265
9.97668
10.0127
10.0505
10.09
10.1309
10.1732
10.2164
10.2604
10.3047
10.3491
10.3931
10.4363
10.4783
10.5184
10.5562
10.5911
10.6227
10.6504
10.6738
10.6925
10.7065
10.7156
10.7199
10.72
10.7162
10.7094
10.7002
6.94908
6.95143
6.95602
6.96275
6.97154
6.98231
6.99499
7.00953
7.02585
7.0439
7.06362
7.08493
7.10776
7.13202
7.15762
7.18443
7.21232
7.24115
7.27073
7.30088
7.33137
7.36196
7.39238
7.42233
7.45152
7.47962
7.5063
7.53123
7.55411
7.57464
7.59257
7.60772
7.61994
7.62918
7.63549
7.639
7.63989
7.63844
7.63495
7.62971
4.17144
4.17286
4.17563
4.1797
4.18501
4.19151
4.19916
4.20792
4.21776
4.22862
4.24048
4.25328
4.26697
4.28149
4.29679
4.31278
4.32937
4.34648
4.36398
4.38176
4.39968
4.41758
4.43531
4.4527
4.46956
4.48571
4.50097
4.51518
4.52816
4.53977
4.5499
4.55847
4.56541
4.57073
4.57446
4.57666
4.57743
4.57689
4.57518
4.57243
1.39081
1.39129
1.39222
1.39358
1.39535
1.39752
1.40008
1.40301
1.40629
1.40992
1.41387
1.41814
1.4227
1.42754
1.43263
1.43794
1.44344
1.44911
1.4549
1.46078
1.46669
1.47258
1.4784
1.4841
1.48961
1.49488
1.49985
1.50447
1.50868
1.51244
1.51572
1.5185
1.52076
1.5225
1.52373
1.52447
1.52476
1.52462
1.5241
1.52324
102.091
102.09
102.089
102.087
102.085
102.083
102.08
102.077
102.074
102.071
102.068
102.064
102.06
102.055
102.051
102.046
102.041
102.035
102.03
102.024
102.018
102.012
102.006
101.999
101.993
101.987
101.98
101.974
101.968
101.962
101.956
101.951
101.946
101.941
101.937
101.933
101.93
101.928
101.926
101.925
99.6404
99.6391
99.6376
99.6359
99.6339
99.6316
99.6291
99.6263
99.6232
99.6199
99.6162
99.6123
99.6081
99.6037
99.599
99.594
99.5887
99.5832
99.5775
99.5716
99.5656
99.5593
99.553
99.5465
99.54
99.5335
99.527
99.5206
99.5144
99.5083
99.5024
99.4969
99.4917
99.487
99.4827
99.479
99.4759
99.4735
99.4719
99.471
97.1912
97.1899
97.1884
97.1865
97.1845
97.1821
97.1795
97.1766
97.1734
97.17
97.1662
97.1621
97.1578
97.1531
97.1482
97.143
97.1375
97.1318
97.1259
97.1197
97.1134
97.1069
97.1003
97.0936
97.0868
97.08
97.0733
97.0666
97.0601
97.0537
97.0476
97.0419
97.0365
97.0316
97.0271
97.0233
97.0201
97.0176
97.0158
97.015
94.7438
94.7424
94.7408
94.7389
94.7368
94.7343
94.7316
94.7285
94.7251
94.7215
94.7175
94.7132
94.7086
94.7036
94.6984
94.6929
94.6871
94.681
94.6747
94.6682
94.6614
94.6545
94.6475
94.6404
94.6332
94.626
94.6188
94.6117
94.6048
94.5981
94.5917
94.5855
94.5798
94.5746
94.5699
94.5658
94.5624
94.5598
94.558
94.557
92.2983
92.2968
92.2951
92.2932
92.2909
92.2882
92.2853
92.282
92.2784
92.2745
92.2702
92.2655
92.2605
92.2552
92.2496
92.2436
92.2374
92.2308
92.224
92.2169
92.2097
92.2022
92.1946
92.1869
92.1791
92.1714
92.1636
92.156
92.1486
92.1413
92.1344
92.1278
92.1217
92.116
92.111
92.1066
92.1029
92.1001
92.0981
92.0971
89.8548
89.8533
89.8515
89.8494
89.8469
89.8441
89.8409
89.8373
89.8334
89.8291
89.8244
89.8193
89.8139
89.8081
89.8019
89.7953
89.7885
89.7813
89.7738
89.7661
89.7581
89.7499
89.7416
89.7332
89.7247
89.7162
89.7077
89.6994
89.6912
89.6833
89.6757
89.6685
89.6618
89.6557
89.6502
89.6454
89.6414
89.6383
89.6362
89.6351
87.4137
87.4121
87.4102
87.4079
87.4052
87.4021
87.3986
87.3946
87.3903
87.3855
87.3803
87.3747
87.3687
87.3622
87.3554
87.3481
87.3405
87.3325
87.3242
87.3156
87.3067
87.2977
87.2884
87.2791
87.2697
87.2602
87.2509
87.2417
87.2326
87.2239
87.2155
87.2076
87.2002
87.1934
87.1874
87.1821
87.1777
87.1743
87.1719
87.1707
84.9752
84.9735
84.9714
84.9689
84.9659
84.9625
84.9586
84.9542
84.9494
84.944
84.9382
84.9319
84.9251
84.9179
84.9102
84.902
84.8935
84.8845
84.8752
84.8655
84.8556
84.8454
84.8351
84.8246
84.8141
84.8035
84.7931
84.7828
84.7727
84.763
84.7536
84.7448
84.7366
84.729
84.7223
84.7164
84.7116
84.7078
84.7052
84.7038
82.5398
82.538
82.5356
82.5328
82.5295
82.5257
82.5213
82.5164
82.5109
82.5049
82.4983
82.4912
82.4835
82.4753
82.4665
82.4573
82.4476
82.4374
82.4269
82.4159
82.4047
82.3932
82.3815
82.3697
82.3578
82.3459
82.3342
82.3226
82.3112
82.3003
82.2898
82.2799
82.2707
82.2623
82.2547
82.2482
82.2427
82.2385
82.2356
82.2341
80.1079
80.1059
80.1033
80.1002
80.0964
80.0921
80.0871
80.0815
80.0753
80.0685
80.0609
80.0528
80.044
80.0346
80.0246
80.0141
80.003
79.9914
79.9793
79.9668
79.954
79.941
79.9277
79.9142
79.9007
79.8873
79.8739
79.8608
79.848
79.8357
79.8239
79.8127
79.8023
79.7928
79.7844
79.777
79.7709
79.7662
79.7629
79.7612
77.6801
77.6779
77.675
77.6714
77.6672
77.6623
77.6566
77.6502
77.643
77.6351
77.6265
77.6171
77.607
77.5962
77.5846
77.5725
77.5597
77.5464
77.5326
77.5183
77.5036
77.4886
77.4734
77.4581
77.4427
77.4274
77.4122
77.3973
77.3828
77.3688
77.3554
77.3428
77.3311
77.3204
77.3108
77.3026
77.2957
77.2904
77.2867
77.2848
75.2572
75.2547
75.2514
75.2474
75.2425
75.2368
75.2303
75.2229
75.2146
75.2054
75.1954
75.1845
75.1728
75.1602
75.1469
75.1328
75.1181
75.1027
75.0867
75.0702
75.0533
75.0361
75.0187
75.0011
74.9835
74.966
74.9487
74.9317
74.9152
74.8993
74.8841
74.8699
74.8566
74.8445
74.8337
74.8244
74.8166
74.8106
74.8065
74.8044
72.84
72.8372
72.8335
72.8288
72.8232
72.8166
72.809
72.8004
72.7907
72.78
72.7683
72.7556
72.7419
72.7272
72.7117
72.6953
72.6782
72.6603
72.6418
72.6227
72.6032
72.5833
72.5632
72.543
72.5228
72.5028
72.483
72.4637
72.4449
72.4268
72.4096
72.3934
72.3784
72.3647
72.3526
72.342
72.3333
72.3265
72.3219
72.3195
70.4297
70.4265
70.4222
70.4168
70.4103
70.4026
70.3936
70.3835
70.3721
70.3595
70.3458
70.3308
70.3147
70.2976
70.2794
70.2602
70.2401
70.2193
70.1978
70.1756
70.153
70.1301
70.1069
70.0836
70.0604
70.0374
70.0148
69.9927
69.9713
69.9508
69.9313
69.9129
69.8959
69.8805
69.8668
69.8549
69.8451
69.8375
69.8322
69.8296
68.0277
68.024
68.019
68.0127
68.005
67.9959
67.9853
67.9733
67.9598
67.9449
67.9286
67.9109
67.8919
67.8716
67.8502
67.8277
67.8042
67.7798
67.7546
67.7289
67.7026
67.676
67.6492
67.6224
67.5958
67.5694
67.5436
67.5184
67.494
67.4707
67.4485
67.4278
67.4086
67.3912
67.3757
67.3624
67.3514
67.3428
67.337
67.334
65.6357
65.6314
65.6256
65.6181
65.6089
65.598
65.5854
65.571
65.5549
65.5371
65.5176
65.4966
65.474
65.45
65.4246
65.398
65.3703
65.3417
65.3123
65.2822
65.2517
65.2208
65.1899
65.159
65.1284
65.0982
65.0686
65.0399
65.0122
64.9858
64.9607
64.9373
64.9157
64.8962
64.8788
64.8638
64.8515
64.8419
64.8354
64.832
63.256
63.251
63.244
63.235
63.2239
63.2108
63.1955
63.1782
63.1588
63.1373
63.1139
63.0887
63.0617
63.033
63.0028
62.9713
62.9386
62.905
62.8704
62.8353
62.7997
62.764
62.7282
62.6926
62.6574
62.6229
62.5892
62.5565
62.5252
62.4953
62.467
62.4407
62.4165
62.3945
62.3751
62.3584
62.3446
62.334
62.3267
62.3229
60.8914
60.8854
60.877
60.866
60.8525
60.8365
60.8179
60.7967
60.773
60.747
60.7186
60.6881
60.6556
60.6212
60.5852
60.5477
60.5089
60.4692
60.4286
60.3875
60.3461
60.3046
60.2633
60.2223
60.1821
60.1426
60.1043
60.0673
60.0319
59.9982
59.9665
59.937
59.9099
59.8855
59.8639
59.8453
59.83
59.8182
59.8101
59.806
58.5457
58.5384
58.5281
58.5145
58.4979
58.478
58.4549
58.4288
58.3996
58.3676
58.3329
58.2958
58.2563
58.2148
58.1715
58.1267
58.0807
58.0337
57.986
57.9379
57.8897
57.8417
57.794
57.7471
57.7011
57.6563
57.6129
57.5711
57.5313
57.4935
57.4581
57.4252
57.3952
57.368
57.3441
57.3236
57.3068
57.2938
57.2849
57.2803
56.224
56.2149
56.202
56.185
56.1639
56.1389
56.1099
56.0771
56.0407
56.001
55.9581
55.9124
55.8642
55.8138
55.7616
55.7079
55.6531
55.5975
55.5414
55.4852
55.4292
55.3737
55.319
55.2654
55.213
55.1623
55.1134
55.0665
55.022
54.9799
54.9406
54.9043
54.871
54.8412
54.8149
54.7924
54.7739
54.7597
54.75
54.745
53.9332
53.9217
53.9051
53.8832
53.8561
53.8238
53.7867
53.7449
53.6988
53.6488
53.5952
53.5385
53.4792
53.4177
53.3545
53.29
53.2246
53.1588
53.093
53.0275
52.9627
52.8988
52.8362
52.7752
52.7161
52.659
52.6043
52.5521
52.5026
52.4561
52.4128
52.3728
52.3364
52.3038
52.2751
52.2506
52.2306
52.2151
52.2046
52.1991
51.6834
51.6684
51.6463
51.6173
51.5813
51.5388
51.4901
51.4358
51.3763
51.3124
51.2446
51.1737
51.1002
51.0248
50.9481
50.8705
50.7927
50.7151
50.638
50.562
50.4873
50.4143
50.3433
50.2744
50.2081
50.1444
50.0836
50.0259
49.9715
49.9205
49.8732
49.8296
49.7901
49.7547
49.7237
49.6973
49.6757
49.6591
49.6477
49.6419
49.4895
49.469
49.4386
49.3985
49.3491
49.2912
49.2256
49.1532
49.0751
48.9922
48.9055
48.816
48.7245
48.6318
48.5387
48.4457
48.3534
48.2622
48.1727
48.0851
47.9998
47.917
47.8371
47.7601
47.6864
47.616
47.5492
47.4861
47.4268
47.3715
47.3203
47.2733
47.2308
47.1929
47.1597
47.1315
47.1084
47.0907
47.0786
47.0724
47.3754
47.3458
47.3013
47.2429
47.1719
47.0898
46.9984
46.8994
46.7946
46.6856
46.5738
46.4604
46.3464
46.2327
46.1202
46.0094
45.9008
45.7948
45.6918
45.592
45.4957
45.403
45.3141
45.2291
45.1482
45.0714
44.9988
44.9305
44.8667
44.8073
44.7526
44.7026
44.6574
44.6171
44.582
44.5522
44.5278
44.5091
44.4964
44.4899
45.383
45.3361
45.2654
45.1738
45.0649
44.9426
44.8105
44.6717
44.5289
44.3844
44.2397
44.0964
43.9553
43.8173
43.683
43.5527
43.4268
43.3054
43.1887
43.0768
42.9697
42.8675
42.7702
42.6778
42.5903
42.5076
42.4299
42.3571
42.2893
42.2265
42.1687
42.1161
42.0686
42.0264
41.9897
41.9585
41.9331
41.9137
41.9004
41.8936
43.5964
43.5099
43.3806
43.2204
43.0401
42.8483
42.6512
42.4536
42.2585
42.068
41.8833
41.7051
41.534
41.37
41.2133
41.0636
40.9209
40.785
40.6557
40.5328
40.4163
40.3058
40.2013
40.1025
40.0095
39.9222
39.8403
39.7639
39.693
39.6275
39.5673
39.5127
39.4635
39.4199
39.382
39.3499
39.3237
39.3037
39.29
39.283
42.2389
42.0123
41.7159
41.3956
41.075
40.7657
40.4724
40.1965
39.938
39.696
39.4694
39.2569
39.0575
38.87
38.6937
38.5276
38.3712
38.2236
38.0845
37.9532
37.8295
37.7129
37.6032
37.5
37.4032
37.3125
37.2279
37.1492
37.0762
37.0089
36.9474
36.8915
36.8414
36.7969
36.7583
36.7256
36.6991
36.6787
36.6649
36.6578
43.9854
41.0499
40.1951
39.5292
38.9885
38.534
38.1416
37.7957
37.4862
37.2059
36.9499
36.7144
36.4968
36.2947
36.1066
35.9308
35.7664
35.6124
35.4678
35.3321
35.2047
35.085
34.9728
34.8675
34.769
34.677
34.5912
34.5116
34.4379
34.3701
34.3081
34.252
34.2016
34.157
34.1183
34.0855
34.0589
34.0386
34.0247
34.0176
54.4314
37.5853
37.1018
36.6442
36.2136
35.8163
35.4527
35.1209
34.8176
34.5398
34.2844
34.0488
33.8308
33.6283
33.4398
33.2639
33.0995
32.9456
32.8013
32.6659
32.539
32.4199
32.3082
32.2036
32.1058
32.0145
31.9294
31.8505
31.7776
31.7105
31.6492
31.5937
31.544
31.5
31.4618
31.4295
31.4032
31.3832
31.3695
31.3625
59.4765
34.4122
33.8764
33.4973
33.1443
32.8154
32.5088
32.2232
31.9571
31.7091
31.4777
31.2616
31.0595
30.8702
30.6927
30.5262
30.3697
30.2227
30.0844
29.9543
29.8321
29.7172
29.6093
29.5082
29.4135
29.325
29.2426
29.1661
29.0953
29.0303
28.9708
28.917
28.8687
28.826
28.789
28.7577
28.7322
28.7128
28.6995
28.6928
46.4073
30.8093
30.3601
30.1051
29.8577
29.6185
29.388
29.1667
28.9546
28.7519
28.5586
28.3744
28.1993
28.0329
27.8748
27.7249
27.5828
27.4482
27.3207
27.2002
27.0864
26.9789
26.8777
26.7825
26.6932
26.6096
26.5315
26.459
26.3918
26.33
26.2735
26.2223
26.1763
26.1357
26.1004
26.0706
26.0463
26.0278
26.0152
26.0088
35.0156
26.9879
26.7549
26.6225
26.4804
26.3317
26.179
26.0245
25.8699
25.7167
25.5659
25.4185
25.2751
25.1361
25.002
24.8729
24.749
24.6303
24.517
24.409
24.3062
24.2087
24.1164
24.0292
23.9471
23.87
23.7979
23.7307
23.6684
23.6109
23.5583
23.5106
23.4677
23.4298
23.3968
23.369
23.3463
23.329
23.3172
23.3112
25.2475
23.2645
23.2361
23.1943
23.1321
23.054
22.9639
22.8649
22.7596
22.6502
22.5383
22.4255
22.3129
22.2014
22.0917
21.9844
21.88
21.7788
21.6812
21.5873
21.4973
21.4113
21.3294
21.2517
21.1782
21.1089
21.0438
20.9831
20.9266
20.8744
20.8266
20.7831
20.744
20.7093
20.6792
20.6538
20.633
20.6172
20.6064
20.6009
19.8667
19.8848
19.9128
19.9121
19.8897
19.8502
19.7974
19.7344
19.6633
19.5862
19.5047
19.4202
19.3339
19.2466
19.1593
19.0726
18.9871
18.9033
18.8215
18.7422
18.6656
18.5918
18.5212
18.4538
18.3897
18.3291
18.272
18.2184
18.1686
18.1224
18.08
18.0413
18.0066
17.9757
17.9489
17.9262
17.9077
17.8935
17.8839
17.879
16.853
16.8316
16.8133
16.7924
16.7661
16.7333
16.6938
16.648
16.5966
16.5404
16.4802
16.4169
16.3513
16.2841
16.2159
16.1474
16.0791
16.0115
15.9449
15.8798
15.8164
15.7551
15.6959
15.6392
15.5851
15.5336
15.485
15.4392
15.3965
15.3569
15.3204
15.2871
15.2571
15.2304
15.2072
15.1876
15.1716
15.1593
15.1509
15.1467
13.7693
13.7509
13.7314
13.71
13.6858
13.6584
13.6273
13.5925
13.5541
13.5123
13.4676
13.4203
13.371
13.3201
13.268
13.2153
13.1622
13.1093
13.0568
13.0052
12.9546
12.9053
12.8576
12.8116
12.7675
12.7254
12.6855
12.6479
12.6127
12.58
12.5498
12.5222
12.4973
12.4751
12.4558
12.4395
12.4261
12.4159
12.4089
12.4054
10.6892
10.6763
10.6616
10.645
10.6263
10.6053
10.5819
10.5561
10.528
10.4976
10.465
10.4306
10.3946
10.3573
10.3189
10.2799
10.2404
10.2007
10.1612
10.1221
10.0836
10.046
10.0094
9.97394
9.93986
9.90727
9.87627
9.84698
9.81948
9.79386
9.77018
9.74853
9.72896
9.71154
9.69635
9.68345
9.67292
9.66486
9.65936
9.65655
7.62293
7.61464
7.6048
7.59343
7.5805
7.56598
7.54987
7.53216
7.51289
7.49212
7.46995
7.44649
7.4219
7.39636
7.37003
7.34312
7.31582
7.28832
7.26082
7.23349
7.2065
7.18
7.15415
7.12908
7.10489
7.0817
7.0596
7.03867
7.01899
7.00063
6.98364
6.96808
6.954
6.94146
6.93052
6.92122
6.91363
6.90781
6.90385
6.90182
4.56873
4.56409
4.55848
4.55192
4.54441
4.53595
4.52655
4.51622
4.50498
4.49289
4.47997
4.46631
4.45198
4.43708
4.42169
4.40593
4.38991
4.37373
4.35752
4.34136
4.32538
4.30965
4.29427
4.27932
4.26488
4.25101
4.23778
4.22523
4.21341
4.20237
4.19215
4.18278
4.1743
4.16674
4.16014
4.15453
4.14995
4.14643
4.14404
4.14281
1.52206
1.52057
1.51875
1.51661
1.51415
1.51138
1.50829
1.5049
1.50121
1.49724
1.493
1.48851
1.4838
1.4789
1.47384
1.46865
1.46336
1.45803
1.45267
1.44732
1.44203
1.43682
1.43171
1.42675
1.42195
1.41733
1.41293
1.40874
1.4048
1.40112
1.39771
1.39458
1.39175
1.38922
1.38702
1.38514
1.38361
1.38244
1.38164
1.38123
)
;

boundaryField
{
    top
    {
        type            fixedValue;
        value           uniform 0;
    }
    inlet
    {
        type            darcyGradPressure;
        gradient        nonuniform List<scalar> 
80
(
9.81
9.81
9.81
9.81
9.81
9.81
9.81
9.81
9.81
9.81
9.81
9.81
9.81
9.81
9.81
9.81
9.81
9.81
9.81
9.81
9.81
9.81
9.81
9.81
9.81
9.81
9.81
9.81
9.81
9.81
9.81
9.81
9.81
9.81
9.81
9.81
9.81
9.81
9.81
9.81
9.81
9.81
9.81
9.81
9.81
9.81
9.81
9.81
9.81
9.81
9.81
9.81
9.81
9.81
9.81
9.81
9.81
9.81
9.81
9.81
9.81
9.81
9.81
9.81
9.81
9.81
9.81
9.81
9.81
9.81
9.81
9.81
9.81
9.81
9.81
9.81
9.81
9.81
9.81
9.81
)
;
        value           nonuniform List<scalar> 
80
(
103.226
103.227
103.228
103.23
103.232
103.235
103.238
103.241
103.245
103.249
103.253
103.258
103.262
103.266
103.271
103.275
103.28
103.284
103.288
103.292
103.295
103.299
103.302
103.305
103.308
103.31
103.313
103.314
103.316
103.318
103.319
103.32
103.32
103.321
103.321
103.321
103.321
103.32
103.319
103.319
103.318
103.316
103.315
103.313
103.311
103.309
103.306
103.304
103.301
103.297
103.294
103.29
103.286
103.281
103.277
103.272
103.267
103.261
103.256
103.25
103.244
103.238
103.232
103.225
103.219
103.213
103.206
103.2
103.194
103.188
103.182
103.177
103.172
103.167
103.163
103.159
103.156
103.154
103.152
103.152
)
;
    }
    axis
    {
        type            darcyGradPressure;
        gradient        uniform -0;
        value           nonuniform List<scalar> 
80
(
102
99.546
97.0908
94.6341
92.1758
89.7159
87.254
84.79
82.3236
79.8545
77.3822
74.9062
72.4262
69.9414
67.4512
64.9549
62.4516
59.9405
57.4205
54.8908
52.3502
49.7977
47.2323
44.653
42.0589
39.4492
36.8234
34.1811
31.5221
28.8466
26.155
23.448
20.7265
17.9916
15.2448
12.4876
9.72177
6.94908
4.17144
1.39081
101.925
99.471
97.015
94.557
92.0971
89.6351
87.1707
84.7038
82.2341
79.7612
77.2848
74.8044
72.3195
69.8296
67.334
64.832
62.3229
59.806
57.2803
54.745
52.1991
49.6419
47.0724
44.4899
41.8936
39.283
36.6578
34.0176
31.3625
28.6928
26.0088
23.3112
20.6009
17.879
15.1467
12.4054
9.65655
6.90182
4.14281
1.38123
)
;
    }
    frontAndBack
    {
        type            empty;
    }
}


// ************************************************************************* //
