/*--------------------------------*- C++ -*----------------------------------*\
  =========                 |
  \\      /  F ield         | OpenFOAM: The Open Source CFD Toolbox
   \\    /   O peration     | Website:  https://openfoam.org
    \\  /    A nd           | Version:  10
     \\/     M anipulation  |
\*---------------------------------------------------------------------------*/
FoamFile
{
    format      ascii;
    class       volVectorField;
    location    "21900";
    object      Ub;
}
// * * * * * * * * * * * * * * * * * * * * * * * * * * * * * * * * * * * * * //

dimensions      [0 1 -1 0 0 0 0];

internalField   nonuniform List<vector> 
6400
(
(-1.43262e-11 -9.87903e-16 0)
(-3.42517e-05 -7.08261e-08 0)
(-7.65338e-05 -3.06883e-06 0)
(-9.37358e-05 1.42098e-06 0)
(-0.000102387 -2.69185e-07 0)
(-0.000105542 6.53034e-07 0)
(-0.000108803 -1.48221e-07 0)
(-0.000111079 4.99069e-07 0)
(-0.000113303 -1.32372e-07 0)
(-0.00011212 -1.7711e-07 0)
(-0.00010988 -3.35449e-07 0)
(-0.000107596 -1.77823e-07 0)
(-0.000105778 -2.3416e-07 0)
(-0.000103976 -1.69921e-07 0)
(-0.000102537 -1.56472e-07 0)
(-0.000100496 -2.89067e-07 0)
(-9.84131e-05 -1.62319e-07 0)
(-9.75812e-05 -3.26356e-08 0)
(-9.80227e-05 9.84088e-08 0)
(-9.85827e-05 -6.97718e-09 0)
(-9.82991e-05 -7.16755e-08 0)
(-9.73881e-05 -1.33329e-07 0)
(-9.57138e-05 -2.25809e-07 0)
(-9.38061e-05 -1.79849e-07 0)
(-9.23921e-05 -1.24646e-07 0)
(-9.13122e-05 -1.11246e-07 0)
(-9.01822e-05 -1.34185e-07 0)
(-8.89145e-05 -1.38685e-07 0)
(-8.75952e-05 -1.44172e-07 0)
(-8.59704e-05 -2.00351e-07 0)
(-8.32878e-05 -3.58778e-07 0)
(-7.83116e-05 -6.66209e-07 0)
(-7.28779e-05 -1.0077e-06 0)
(-6.79249e-05 -1.27054e-06 0)
(-6.16927e-05 -1.59269e-06 0)
(-5.39368e-05 -1.96729e-06 0)
(-4.44857e-05 -2.36789e-06 0)
(-3.3328e-05 -2.74777e-06 0)
(-2.06827e-05 -3.04823e-06 0)
(-7.01575e-06 -3.21496e-06 0)
(7.01575e-06 -3.21496e-06 0)
(2.06827e-05 -3.04823e-06 0)
(3.3328e-05 -2.74777e-06 0)
(4.44857e-05 -2.36789e-06 0)
(5.39368e-05 -1.96729e-06 0)
(6.16927e-05 -1.59269e-06 0)
(6.79249e-05 -1.27054e-06 0)
(7.28779e-05 -1.0077e-06 0)
(7.83116e-05 -6.66209e-07 0)
(8.32878e-05 -3.58778e-07 0)
(8.59704e-05 -2.00351e-07 0)
(8.75952e-05 -1.44172e-07 0)
(8.89145e-05 -1.38685e-07 0)
(9.01822e-05 -1.34185e-07 0)
(9.13122e-05 -1.11246e-07 0)
(9.23921e-05 -1.24646e-07 0)
(9.38061e-05 -1.79849e-07 0)
(9.57138e-05 -2.25809e-07 0)
(9.73881e-05 -1.33329e-07 0)
(9.82991e-05 -7.16755e-08 0)
(9.85827e-05 -6.97718e-09 0)
(9.80227e-05 9.84088e-08 0)
(9.75812e-05 -3.26356e-08 0)
(9.84131e-05 -1.62319e-07 0)
(0.000100496 -2.89067e-07 0)
(0.000102537 -1.56472e-07 0)
(0.000103976 -1.69921e-07 0)
(0.000105778 -2.3416e-07 0)
(0.000107596 -1.77823e-07 0)
(0.00010988 -3.35449e-07 0)
(0.00011212 -1.7711e-07 0)
(0.000113303 -1.32372e-07 0)
(0.000111079 4.99069e-07 0)
(0.000108803 -1.48221e-07 0)
(0.000105542 6.53034e-07 0)
(0.000102387 -2.69185e-07 0)
(9.37358e-05 1.42098e-06 0)
(7.65338e-05 -3.06883e-06 0)
(3.42517e-05 -7.08261e-08 0)
(1.43262e-11 -9.87903e-16 0)
(-6.46731e-20 -9.87858e-16 0)
(-6.01245e-20 -9.87623e-16 0)
(-2.53057e-08 -7.63811e-16 0)
(-4.48337e-05 1.64074e-06 0)
(-9.24143e-05 -1.87893e-07 0)
(-0.000100039 2.32775e-06 0)
(-0.000104574 -3.64323e-07 0)
(-0.000107375 1.69337e-06 0)
(-0.00011004 -3.52713e-07 0)
(-0.000109039 -4.74601e-07 0)
(-0.000106992 -9.92706e-07 0)
(-0.000104877 -4.92205e-07 0)
(-0.000103228 -6.87304e-07 0)
(-0.000101538 -4.86647e-07 0)
(-0.000100244 -4.44537e-07 0)
(-9.8284e-05 -8.743e-07 0)
(-9.62418e-05 -4.75184e-07 0)
(-9.54714e-05 -7.84841e-08 0)
(-9.59926e-05 3.33688e-07 0)
(-9.66171e-05 -4.57266e-09 0)
(-9.63617e-05 -2.03065e-07 0)
(-9.55028e-05 -3.92177e-07 0)
(-9.38632e-05 -6.85682e-07 0)
(-9.19831e-05 -5.39109e-07 0)
(-9.0623e-05 -3.67687e-07 0)
(-8.95978e-05 -3.27435e-07 0)
(-8.85086e-05 -4.01235e-07 0)
(-8.72748e-05 -4.14725e-07 0)
(-8.60034e-05 -4.29748e-07 0)
(-8.4452e-05 -6.00633e-07 0)
(-8.1881e-05 -1.0864e-06 0)
(-7.70687e-05 -2.03215e-06 0)
(-7.1797e-05 -3.07863e-06 0)
(-6.69879e-05 -3.88613e-06 0)
(-6.09216e-05 -4.87934e-06 0)
(-5.33423e-05 -6.03859e-06 0)
(-4.40629e-05 -7.28266e-06 0)
(-3.30568e-05 -8.46574e-06 0)
(-2.05358e-05 -9.40332e-06 0)
(-6.96984e-06 -9.92429e-06 0)
(6.96984e-06 -9.92429e-06 0)
(2.05358e-05 -9.40332e-06 0)
(3.30568e-05 -8.46574e-06 0)
(4.40629e-05 -7.28266e-06 0)
(5.33423e-05 -6.03859e-06 0)
(6.09216e-05 -4.87934e-06 0)
(6.69879e-05 -3.88613e-06 0)
(7.1797e-05 -3.07863e-06 0)
(7.70687e-05 -2.03215e-06 0)
(8.1881e-05 -1.0864e-06 0)
(8.4452e-05 -6.00633e-07 0)
(8.60034e-05 -4.29748e-07 0)
(8.72748e-05 -4.14725e-07 0)
(8.85086e-05 -4.01235e-07 0)
(8.95978e-05 -3.27435e-07 0)
(9.0623e-05 -3.67687e-07 0)
(9.19831e-05 -5.39109e-07 0)
(9.38632e-05 -6.85682e-07 0)
(9.55028e-05 -3.92177e-07 0)
(9.63617e-05 -2.03065e-07 0)
(9.66171e-05 -4.57266e-09 0)
(9.59926e-05 3.33688e-07 0)
(9.54714e-05 -7.84841e-08 0)
(9.62418e-05 -4.75184e-07 0)
(9.8284e-05 -8.74301e-07 0)
(0.000100244 -4.44537e-07 0)
(0.000101538 -4.86647e-07 0)
(0.000103228 -6.87304e-07 0)
(0.000104877 -4.92205e-07 0)
(0.000106992 -9.92706e-07 0)
(0.000109039 -4.74601e-07 0)
(0.00011004 -3.52713e-07 0)
(0.000107375 1.69337e-06 0)
(0.000104574 -3.64323e-07 0)
(0.000100039 2.32775e-06 0)
(9.24143e-05 -1.87893e-07 0)
(4.48337e-05 1.64074e-06 0)
(2.53057e-08 -7.63811e-16 0)
(6.01245e-20 -9.87623e-16 0)
(6.46731e-20 -9.87858e-16 0)
(-4.83698e-20 -9.87832e-16 0)
(-5.69013e-20 -9.87714e-16 0)
(-9.62002e-20 -9.87797e-16 0)
(-2.52103e-20 -9.855e-16 0)
(-1.27306e-06 -6.26765e-15 0)
(-4.78833e-05 1.62795e-06 0)
(-9.56895e-05 -2.48003e-07 0)
(-0.000102728 3.31654e-06 0)
(-0.000106968 -6.2359e-07 0)
(-0.000106349 -7.37568e-07 0)
(-0.000104575 -1.73361e-06 0)
(-0.000102655 -7.81324e-07 0)
(-0.000101224 -1.18958e-06 0)
(-9.96247e-05 -8.15324e-07 0)
(-9.85305e-05 -7.2728e-07 0)
(-9.6606e-05 -1.54857e-06 0)
(-9.45143e-05 -8.12348e-07 0)
(-9.37957e-05 -1.29617e-07 0)
(-9.44589e-05 6.25562e-07 0)
(-9.51995e-05 -1.10508e-08 0)
(-9.49505e-05 -3.4712e-07 0)
(-9.41434e-05 -6.67688e-07 0)
(-9.24954e-05 -1.20776e-06 0)
(-9.05868e-05 -9.3049e-07 0)
(-8.92795e-05 -6.2553e-07 0)
(-8.83221e-05 -5.57438e-07 0)
(-8.72691e-05 -6.95737e-07 0)
(-8.6054e-05 -7.15753e-07 0)
(-8.48347e-05 -7.32878e-07 0)
(-8.33873e-05 -1.01918e-06 0)
(-8.09807e-05 -1.85079e-06 0)
(-7.63906e-05 -3.4838e-06 0)
(-7.13302e-05 -5.27422e-06 0)
(-6.67117e-05 -6.66401e-06 0)
(-6.0854e-05 -8.38735e-06 0)
(-5.34681e-05 -1.04161e-05 0)
(-4.43245e-05 -1.26106e-05 0)
(-3.33601e-05 -1.47111e-05 0)
(-2.07746e-05 -1.63832e-05 0)
(-7.06013e-06 -1.73149e-05 0)
(7.06013e-06 -1.73149e-05 0)
(2.07746e-05 -1.63832e-05 0)
(3.33601e-05 -1.47111e-05 0)
(4.43245e-05 -1.26106e-05 0)
(5.34681e-05 -1.04161e-05 0)
(6.0854e-05 -8.38735e-06 0)
(6.67117e-05 -6.66401e-06 0)
(7.13302e-05 -5.27422e-06 0)
(7.63906e-05 -3.4838e-06 0)
(8.09807e-05 -1.85079e-06 0)
(8.33873e-05 -1.01918e-06 0)
(8.48347e-05 -7.32878e-07 0)
(8.6054e-05 -7.15753e-07 0)
(8.72691e-05 -6.95737e-07 0)
(8.83221e-05 -5.57438e-07 0)
(8.92795e-05 -6.2553e-07 0)
(9.05868e-05 -9.3049e-07 0)
(9.24954e-05 -1.20776e-06 0)
(9.41434e-05 -6.67688e-07 0)
(9.49505e-05 -3.4712e-07 0)
(9.51995e-05 -1.10508e-08 0)
(9.44589e-05 6.25562e-07 0)
(9.37957e-05 -1.29617e-07 0)
(9.45143e-05 -8.12348e-07 0)
(9.6606e-05 -1.54857e-06 0)
(9.85305e-05 -7.2728e-07 0)
(9.96247e-05 -8.15324e-07 0)
(0.000101224 -1.18958e-06 0)
(0.000102655 -7.81324e-07 0)
(0.000104575 -1.73361e-06 0)
(0.000106349 -7.37568e-07 0)
(0.000106968 -6.2359e-07 0)
(0.000102728 3.31654e-06 0)
(9.56895e-05 -2.48003e-07 0)
(4.78833e-05 1.62795e-06 0)
(1.27306e-06 -6.26765e-15 0)
(2.52103e-20 -9.855e-16 0)
(9.62002e-20 -9.87797e-16 0)
(5.69013e-20 -9.87714e-16 0)
(4.83698e-20 -9.87832e-16 0)
(-3.60181e-20 -9.87811e-16 0)
(-5.14382e-20 -9.8773e-16 0)
(-7.68273e-20 -9.87765e-16 0)
(-2.9508e-20 -9.87598e-16 0)
(-3.98173e-20 -9.87784e-16 0)
(1.23661e-20 -9.65412e-16 0)
(-4.96078e-07 -1.59737e-15 0)
(-4.76724e-05 2.14607e-06 0)
(-9.73804e-05 -3.84405e-07 0)
(-0.000101588 -7.08282e-07 0)
(-0.000101469 -2.54885e-06 0)
(-0.000100194 -9.48759e-07 0)
(-9.92348e-05 -1.74813e-06 0)
(-9.77829e-05 -1.12952e-06 0)
(-9.70328e-05 -9.58418e-07 0)
(-9.51238e-05 -2.36596e-06 0)
(-9.28878e-05 -1.16441e-06 0)
(-9.22287e-05 -1.82515e-07 0)
(-9.31315e-05 1.03492e-06 0)
(-9.40666e-05 -3.26287e-08 0)
(-9.37955e-05 -5.00169e-07 0)
(-9.30574e-05 -9.48331e-07 0)
(-9.13555e-05 -1.82274e-06 0)
(-8.93529e-05 -1.3536e-06 0)
(-8.81115e-05 -8.8763e-07 0)
(-8.72497e-05 -7.91758e-07 0)
(-8.62342e-05 -1.02118e-06 0)
(-8.5023e-05 -1.04111e-06 0)
(-8.38679e-05 -1.04331e-06 0)
(-8.25721e-05 -1.43719e-06 0)
(-8.04102e-05 -2.62734e-06 0)
(-7.6133e-05 -5.00243e-06 0)
(-7.13652e-05 -7.55957e-06 0)
(-6.7022e-05 -9.56544e-06 0)
(-6.14619e-05 -1.20888e-05 0)
(-5.43337e-05 -1.51045e-05 0)
(-4.53271e-05 -1.84127e-05 0)
(-3.43092e-05 -2.16151e-05 0)
(-2.14573e-05 -2.41839e-05 0)
(-7.30902e-06 -2.56224e-05 0)
(7.30902e-06 -2.56224e-05 0)
(2.14573e-05 -2.41839e-05 0)
(3.43092e-05 -2.16151e-05 0)
(4.53271e-05 -1.84127e-05 0)
(5.43337e-05 -1.51045e-05 0)
(6.14619e-05 -1.20888e-05 0)
(6.7022e-05 -9.56544e-06 0)
(7.13652e-05 -7.55957e-06 0)
(7.6133e-05 -5.00243e-06 0)
(8.04102e-05 -2.62734e-06 0)
(8.25721e-05 -1.43719e-06 0)
(8.38679e-05 -1.04331e-06 0)
(8.5023e-05 -1.04111e-06 0)
(8.62342e-05 -1.02118e-06 0)
(8.72497e-05 -7.91758e-07 0)
(8.81115e-05 -8.8763e-07 0)
(8.93529e-05 -1.3536e-06 0)
(9.13555e-05 -1.82274e-06 0)
(9.30574e-05 -9.48331e-07 0)
(9.37955e-05 -5.00169e-07 0)
(9.40666e-05 -3.26287e-08 0)
(9.31315e-05 1.03492e-06 0)
(9.22287e-05 -1.82515e-07 0)
(9.28878e-05 -1.16441e-06 0)
(9.51238e-05 -2.36596e-06 0)
(9.70328e-05 -9.58418e-07 0)
(9.77829e-05 -1.12952e-06 0)
(9.92348e-05 -1.74813e-06 0)
(0.000100194 -9.48759e-07 0)
(0.000101469 -2.54885e-06 0)
(0.000101588 -7.08282e-07 0)
(9.73804e-05 -3.84405e-07 0)
(4.76724e-05 2.14607e-06 0)
(4.96078e-07 -1.59737e-15 0)
(-1.23661e-20 -9.65412e-16 0)
(3.98173e-20 -9.87784e-16 0)
(2.9508e-20 -9.87598e-16 0)
(7.68273e-20 -9.87765e-16 0)
(5.14382e-20 -9.8773e-16 0)
(3.60181e-20 -9.87811e-16 0)
(-2.67405e-20 -9.87793e-16 0)
(-4.46942e-20 -9.87738e-16 0)
(-6.10625e-20 -9.87746e-16 0)
(-2.99365e-20 -9.8764e-16 0)
(-2.9394e-20 -9.8774e-16 0)
(6.86147e-21 -9.87576e-16 0)
(-6.86488e-21 -9.87764e-16 0)
(6.87748e-20 -9.75858e-16 0)
(-3.34478e-09 -7.45558e-16 0)
(-3.79638e-05 -2.83699e-07 0)
(-8.36324e-05 -1.4856e-06 0)
(-9.38773e-05 -4.9315e-07 0)
(-9.58887e-05 -2.3032e-06 0)
(-9.52902e-05 -1.35739e-06 0)
(-9.5377e-05 -1.04275e-06 0)
(-9.35765e-05 -3.42483e-06 0)
(-9.11209e-05 -1.50994e-06 0)
(-9.05731e-05 -2.45215e-07 0)
(-9.18773e-05 1.66139e-06 0)
(-9.31317e-05 -9.52343e-08 0)
(-9.27892e-05 -6.62214e-07 0)
(-9.21657e-05 -1.21504e-06 0)
(-9.03536e-05 -2.58989e-06 0)
(-8.81651e-05 -1.80912e-06 0)
(-8.70212e-05 -1.14114e-06 0)
(-8.63006e-05 -1.01911e-06 0)
(-8.53256e-05 -1.38915e-06 0)
(-8.40958e-05 -1.39451e-06 0)
(-8.30214e-05 -1.34933e-06 0)
(-8.19405e-05 -1.82916e-06 0)
(-8.01318e-05 -3.37884e-06 0)
(-7.62822e-05 -6.56134e-06 0)
(-7.19113e-05 -9.87146e-06 0)
(-6.79709e-05 -1.25125e-05 0)
(-6.28545e-05 -1.59133e-05 0)
(-5.61079e-05 -2.00769e-05 0)
(-4.72807e-05 -2.47478e-05 0)
(-3.61127e-05 -2.93508e-05 0)
(-2.27389e-05 -3.30858e-05 0)
(-7.77398e-06 -3.51937e-05 0)
(7.77398e-06 -3.51937e-05 0)
(2.27389e-05 -3.30858e-05 0)
(3.61127e-05 -2.93508e-05 0)
(4.72807e-05 -2.47478e-05 0)
(5.61079e-05 -2.00769e-05 0)
(6.28545e-05 -1.59133e-05 0)
(6.79709e-05 -1.25125e-05 0)
(7.19113e-05 -9.87146e-06 0)
(7.62822e-05 -6.56134e-06 0)
(8.01318e-05 -3.37884e-06 0)
(8.19405e-05 -1.82916e-06 0)
(8.30214e-05 -1.34933e-06 0)
(8.40958e-05 -1.39451e-06 0)
(8.53256e-05 -1.38915e-06 0)
(8.63006e-05 -1.01911e-06 0)
(8.70212e-05 -1.14114e-06 0)
(8.81651e-05 -1.80912e-06 0)
(9.03536e-05 -2.58989e-06 0)
(9.21657e-05 -1.21504e-06 0)
(9.27892e-05 -6.62214e-07 0)
(9.31317e-05 -9.52343e-08 0)
(9.18773e-05 1.66139e-06 0)
(9.05731e-05 -2.45215e-07 0)
(9.11209e-05 -1.50994e-06 0)
(9.35765e-05 -3.42483e-06 0)
(9.5377e-05 -1.04275e-06 0)
(9.52902e-05 -1.35739e-06 0)
(9.58887e-05 -2.3032e-06 0)
(9.38773e-05 -4.9315e-07 0)
(8.36324e-05 -1.4856e-06 0)
(3.79638e-05 -2.83699e-07 0)
(3.34478e-09 -7.45558e-16 0)
(-6.87748e-20 -9.75858e-16 0)
(6.86488e-21 -9.87764e-16 0)
(-6.86147e-21 -9.87576e-16 0)
(2.9394e-20 -9.8774e-16 0)
(2.99365e-20 -9.8764e-16 0)
(6.10625e-20 -9.87746e-16 0)
(4.46942e-20 -9.87738e-16 0)
(2.67405e-20 -9.87793e-16 0)
(-1.97882e-20 -9.87779e-16 0)
(-3.74411e-20 -9.87741e-16 0)
(-4.80806e-20 -9.87734e-16 0)
(-2.76315e-20 -9.87667e-16 0)
(-2.12018e-20 -9.87715e-16 0)
(5.32761e-21 -9.8762e-16 0)
(7.19102e-21 -9.87717e-16 0)
(6.21957e-20 -9.87546e-16 0)
(8.9552e-20 -9.8775e-16 0)
(1.275e-19 -9.8681e-16 0)
(1.40851e-19 -8.01551e-16 0)
(-1.00288e-05 -8.77223e-12 0)
(-5.05857e-05 -1.28155e-06 0)
(-8.48555e-05 -7.1758e-07 0)
(-9.08139e-05 -5.15759e-07 0)
(-9.08415e-05 -4.82504e-06 0)
(-8.85765e-05 -1.75042e-06 0)
(-8.84439e-05 -3.32331e-07 0)
(-9.04962e-05 2.69999e-06 0)
(-9.23125e-05 -2.56751e-07 0)
(-9.182e-05 -8.27892e-07 0)
(-9.14293e-05 -1.41916e-06 0)
(-8.94368e-05 -3.61683e-06 0)
(-8.69238e-05 -2.28791e-06 0)
(-8.59455e-05 -1.36244e-06 0)
(-8.54413e-05 -1.21788e-06 0)
(-8.45098e-05 -1.82099e-06 0)
(-8.32211e-05 -1.78171e-06 0)
(-8.2247e-05 -1.63238e-06 0)
(-8.14625e-05 -2.15581e-06 0)
(-8.01525e-05 -4.0444e-06 0)
(-7.6861e-05 -8.12677e-06 0)
(-7.30042e-05 -1.21006e-05 0)
(-6.96553e-05 -1.53582e-05 0)
(-6.52202e-05 -1.97091e-05 0)
(-5.90826e-05 -2.52376e-05 0)
(-5.05546e-05 -3.16563e-05 0)
(-3.91432e-05 -3.81544e-05 0)
(-2.48985e-05 -4.35115e-05 0)
(-8.5593e-06 -4.65712e-05 0)
(8.5593e-06 -4.65712e-05 0)
(2.48985e-05 -4.35115e-05 0)
(3.91432e-05 -3.81544e-05 0)
(5.05546e-05 -3.16563e-05 0)
(5.90826e-05 -2.52376e-05 0)
(6.52202e-05 -1.97091e-05 0)
(6.96553e-05 -1.53582e-05 0)
(7.30042e-05 -1.21006e-05 0)
(7.6861e-05 -8.12677e-06 0)
(8.01525e-05 -4.0444e-06 0)
(8.14625e-05 -2.15581e-06 0)
(8.2247e-05 -1.63238e-06 0)
(8.32211e-05 -1.78171e-06 0)
(8.45098e-05 -1.82099e-06 0)
(8.54413e-05 -1.21788e-06 0)
(8.59455e-05 -1.36244e-06 0)
(8.69238e-05 -2.28791e-06 0)
(8.94368e-05 -3.61683e-06 0)
(9.14293e-05 -1.41916e-06 0)
(9.182e-05 -8.27892e-07 0)
(9.23125e-05 -2.56751e-07 0)
(9.04962e-05 2.69999e-06 0)
(8.84439e-05 -3.32331e-07 0)
(8.85765e-05 -1.75042e-06 0)
(9.08415e-05 -4.82504e-06 0)
(9.08139e-05 -5.15759e-07 0)
(8.48555e-05 -7.1758e-07 0)
(5.05857e-05 -1.28155e-06 0)
(1.00288e-05 -8.77223e-12 0)
(-1.40851e-19 -8.01551e-16 0)
(-1.275e-19 -9.8681e-16 0)
(-8.9552e-20 -9.8775e-16 0)
(-6.21957e-20 -9.87546e-16 0)
(-7.19102e-21 -9.87717e-16 0)
(-5.32761e-21 -9.8762e-16 0)
(2.12018e-20 -9.87715e-16 0)
(2.76315e-20 -9.87667e-16 0)
(4.80806e-20 -9.87734e-16 0)
(3.74411e-20 -9.87741e-16 0)
(1.97882e-20 -9.87779e-16 0)
(-1.45557e-20 -9.87767e-16 0)
(-3.02513e-20 -9.87741e-16 0)
(-3.72352e-20 -9.87728e-16 0)
(-2.3573e-20 -9.87684e-16 0)
(-1.44103e-20 -9.87702e-16 0)
(6.33767e-21 -9.87648e-16 0)
(1.68072e-20 -9.87693e-16 0)
(5.79973e-20 -9.87602e-16 0)
(8.53483e-20 -9.87713e-16 0)
(1.14613e-19 -9.87628e-16 0)
(1.21908e-19 -9.87781e-16 0)
(6.01227e-20 -9.87721e-16 0)
(1.29058e-19 -9.11866e-16 0)
(1.00402e-19 -7.42692e-16 0)
(-1.48183e-05 -2.26262e-10 0)
(-5.17332e-05 -2.81014e-06 0)
(-7.77013e-05 -9.1211e-07 0)
(-8.26574e-05 -1.92068e-07 0)
(-8.76508e-05 4.63493e-06 0)
(-9.10393e-05 -6.09531e-07 0)
(-9.04839e-05 -9.57319e-07 0)
(-9.07087e-05 -1.43077e-06 0)
(-8.84969e-05 -5.10833e-06 0)
(-8.54599e-05 -2.74921e-06 0)
(-8.48077e-05 -1.50808e-06 0)
(-8.46536e-05 -1.3452e-06 0)
(-8.37705e-05 -2.35894e-06 0)
(-8.23481e-05 -2.21247e-06 0)
(-8.14984e-05 -1.86394e-06 0)
(-8.11141e-05 -2.35895e-06 0)
(-8.05032e-05 -4.52425e-06 0)
(-7.78974e-05 -9.67402e-06 0)
(-7.46574e-05 -1.40676e-05 0)
(-7.21811e-05 -1.78358e-05 0)
(-6.88197e-05 -2.31694e-05 0)
(-6.37149e-05 -3.03395e-05 0)
(-5.57724e-05 -3.91118e-05 0)
(-4.40537e-05 -4.83568e-05 0)
(-2.84356e-05 -5.61293e-05 0)
(-9.85476e-06 -6.06537e-05 0)
(9.85476e-06 -6.06537e-05 0)
(2.84356e-05 -5.61293e-05 0)
(4.40537e-05 -4.83568e-05 0)
(5.57724e-05 -3.91118e-05 0)
(6.37149e-05 -3.03395e-05 0)
(6.88197e-05 -2.31694e-05 0)
(7.21811e-05 -1.78358e-05 0)
(7.46574e-05 -1.40676e-05 0)
(7.78974e-05 -9.67402e-06 0)
(8.05032e-05 -4.52425e-06 0)
(8.11141e-05 -2.35895e-06 0)
(8.14984e-05 -1.86394e-06 0)
(8.23481e-05 -2.21247e-06 0)
(8.37705e-05 -2.35894e-06 0)
(8.46536e-05 -1.3452e-06 0)
(8.48077e-05 -1.50808e-06 0)
(8.54599e-05 -2.74921e-06 0)
(8.84969e-05 -5.10833e-06 0)
(9.07087e-05 -1.43077e-06 0)
(9.04839e-05 -9.57319e-07 0)
(9.10393e-05 -6.09531e-07 0)
(8.76508e-05 4.63493e-06 0)
(8.26574e-05 -1.92068e-07 0)
(7.77013e-05 -9.1211e-07 0)
(5.17332e-05 -2.81014e-06 0)
(1.48183e-05 -2.26262e-10 0)
(-1.00402e-19 -7.42692e-16 0)
(-1.29058e-19 -9.11866e-16 0)
(-6.01227e-20 -9.87721e-16 0)
(-1.21908e-19 -9.87781e-16 0)
(-1.14613e-19 -9.87628e-16 0)
(-8.53483e-20 -9.87713e-16 0)
(-5.79973e-20 -9.87602e-16 0)
(-1.68072e-20 -9.87693e-16 0)
(-6.33767e-21 -9.87648e-16 0)
(1.44103e-20 -9.87702e-16 0)
(2.3573e-20 -9.87684e-16 0)
(3.72352e-20 -9.87728e-16 0)
(3.02513e-20 -9.87741e-16 0)
(1.45557e-20 -9.87767e-16 0)
(-1.05784e-20 -9.87758e-16 0)
(-2.35094e-20 -9.8774e-16 0)
(-2.80509e-20 -9.87725e-16 0)
(-1.85308e-20 -9.87696e-16 0)
(-8.48269e-21 -9.87698e-16 0)
(8.79527e-21 -9.87667e-16 0)
(2.33203e-20 -9.87684e-16 0)
(5.52098e-20 -9.87638e-16 0)
(8.04864e-20 -9.87696e-16 0)
(1.03362e-19 -9.87664e-16 0)
(1.0814e-19 -9.8775e-16 0)
(7.72797e-20 -9.87724e-16 0)
(1.14131e-19 -9.87684e-16 0)
(1.05292e-19 -9.87787e-16 0)
(9.57824e-20 -9.87676e-16 0)
(1.4725e-19 -9.00606e-16 0)
(9.17963e-20 -7.60075e-16 0)
(-5.93856e-07 -1.58557e-15 0)
(-3.88608e-05 2.95747e-06 0)
(-7.92242e-05 -4.23432e-07 0)
(-8.38235e-05 -5.02111e-07 0)
(-8.78297e-05 -6.83074e-07 0)
(-8.65226e-05 -7.39616e-06 0)
(-8.30817e-05 -3.0234e-06 0)
(-8.33044e-05 -1.48334e-06 0)
(-8.38307e-05 -1.30273e-06 0)
(-8.30498e-05 -3.08722e-06 0)
(-8.13766e-05 -2.69972e-06 0)
(-8.06981e-05 -1.99858e-06 0)
(-8.08513e-05 -2.35538e-06 0)
(-8.12375e-05 -4.64623e-06 0)
(-7.93962e-05 -1.12392e-05 0)
(-7.6783e-05 -1.54881e-05 0)
(-7.55988e-05 -1.94699e-05 0)
(-7.39704e-05 -2.56825e-05 0)
(-7.0709e-05 -3.47882e-05 0)
(-6.40173e-05 -4.68808e-05 0)
(-5.20336e-05 -6.04351e-05 0)
(-3.42831e-05 -7.20405e-05 0)
(-1.20249e-05 -7.90287e-05 0)
(1.20249e-05 -7.90287e-05 0)
(3.42831e-05 -7.20405e-05 0)
(5.20336e-05 -6.04351e-05 0)
(6.40173e-05 -4.68808e-05 0)
(7.0709e-05 -3.47882e-05 0)
(7.39704e-05 -2.56825e-05 0)
(7.55988e-05 -1.94699e-05 0)
(7.6783e-05 -1.54881e-05 0)
(7.93962e-05 -1.12392e-05 0)
(8.12375e-05 -4.64623e-06 0)
(8.08513e-05 -2.35538e-06 0)
(8.06981e-05 -1.99858e-06 0)
(8.13766e-05 -2.69972e-06 0)
(8.30498e-05 -3.08722e-06 0)
(8.38307e-05 -1.30273e-06 0)
(8.33044e-05 -1.48334e-06 0)
(8.30817e-05 -3.0234e-06 0)
(8.65226e-05 -7.39616e-06 0)
(8.78297e-05 -6.83074e-07 0)
(8.38235e-05 -5.02111e-07 0)
(7.92242e-05 -4.23432e-07 0)
(3.88608e-05 2.95747e-06 0)
(5.93856e-07 -1.58557e-15 0)
(-9.17963e-20 -7.60075e-16 0)
(-1.4725e-19 -9.00606e-16 0)
(-9.57824e-20 -9.87676e-16 0)
(-1.05292e-19 -9.87787e-16 0)
(-1.14131e-19 -9.87684e-16 0)
(-7.72797e-20 -9.87724e-16 0)
(-1.0814e-19 -9.8775e-16 0)
(-1.03362e-19 -9.87664e-16 0)
(-8.04864e-20 -9.87696e-16 0)
(-5.52098e-20 -9.87638e-16 0)
(-2.33203e-20 -9.87684e-16 0)
(-8.79527e-21 -9.87667e-16 0)
(8.48269e-21 -9.87698e-16 0)
(1.85308e-20 -9.87696e-16 0)
(2.80509e-20 -9.87725e-16 0)
(2.35094e-20 -9.8774e-16 0)
(1.05784e-20 -9.87758e-16 0)
(-7.51546e-21 -9.87751e-16 0)
(-1.744e-20 -9.87738e-16 0)
(-2.01987e-20 -9.87724e-16 0)
(-1.30837e-20 -9.87704e-16 0)
(-3.12325e-21 -9.87699e-16 0)
(1.19257e-20 -9.87679e-16 0)
(2.77208e-20 -9.87683e-16 0)
(5.3197e-20 -9.87662e-16 0)
(7.5533e-20 -9.87692e-16 0)
(9.38819e-20 -9.87685e-16 0)
(9.86688e-20 -9.87733e-16 0)
(8.5401e-20 -9.87723e-16 0)
(1.04977e-19 -9.87707e-16 0)
(1.02894e-19 -9.87759e-16 0)
(1.00581e-19 -9.87719e-16 0)
(1.23806e-19 -9.87746e-16 0)
(8.37296e-20 -9.87807e-16 0)
(-1.09507e-20 -9.87763e-16 0)
(1.52904e-19 -9.76646e-16 0)
(2.74571e-19 -8.35674e-16 0)
(9.6076e-20 -7.01645e-16 0)
(-1.30905e-05 -7.27702e-10 0)
(-4.58211e-05 -4.39421e-06 0)
(-7.01541e-05 -1.53971e-06 0)
(-7.69711e-05 -7.05874e-07 0)
(-8.07993e-05 -6.10818e-07 0)
(-8.13374e-05 -4.07998e-06 0)
(-7.96905e-05 -3.20466e-06 0)
(-7.9504e-05 -1.93705e-06 0)
(-8.04751e-05 -2.02328e-06 0)
(-8.24051e-05 -4.07489e-06 0)
(-8.12727e-05 -1.30693e-05 0)
(-7.90054e-05 -1.59205e-05 0)
(-7.9737e-05 -1.94282e-05 0)
(-8.09447e-05 -2.60463e-05 0)
(-8.11222e-05 -3.71597e-05 0)
(-7.72739e-05 -5.40976e-05 0)
(-6.53724e-05 -7.5144e-05 0)
(-4.42822e-05 -9.30973e-05 0)
(-1.58311e-05 -0.000104727 0)
(1.58311e-05 -0.000104727 0)
(4.42822e-05 -9.30973e-05 0)
(6.53724e-05 -7.5144e-05 0)
(7.72739e-05 -5.40976e-05 0)
(8.11222e-05 -3.71597e-05 0)
(8.09447e-05 -2.60463e-05 0)
(7.9737e-05 -1.94282e-05 0)
(7.90054e-05 -1.59205e-05 0)
(8.12727e-05 -1.30693e-05 0)
(8.24051e-05 -4.07489e-06 0)
(8.04751e-05 -2.02328e-06 0)
(7.9504e-05 -1.93705e-06 0)
(7.96905e-05 -3.20466e-06 0)
(8.13374e-05 -4.07998e-06 0)
(8.07993e-05 -6.10818e-07 0)
(7.69711e-05 -7.05874e-07 0)
(7.01541e-05 -1.53971e-06 0)
(4.58211e-05 -4.39421e-06 0)
(1.30905e-05 -7.27702e-10 0)
(-9.6076e-20 -7.01645e-16 0)
(-2.74571e-19 -8.35674e-16 0)
(-1.52904e-19 -9.76646e-16 0)
(1.09507e-20 -9.87763e-16 0)
(-8.37296e-20 -9.87807e-16 0)
(-1.23806e-19 -9.87746e-16 0)
(-1.00581e-19 -9.87719e-16 0)
(-1.02894e-19 -9.87759e-16 0)
(-1.04977e-19 -9.87707e-16 0)
(-8.5401e-20 -9.87723e-16 0)
(-9.86688e-20 -9.87733e-16 0)
(-9.38819e-20 -9.87685e-16 0)
(-7.5533e-20 -9.87692e-16 0)
(-5.3197e-20 -9.87662e-16 0)
(-2.77208e-20 -9.87683e-16 0)
(-1.19257e-20 -9.87679e-16 0)
(3.12325e-21 -9.87699e-16 0)
(1.30837e-20 -9.87704e-16 0)
(2.01987e-20 -9.87724e-16 0)
(1.744e-20 -9.87738e-16 0)
(7.51546e-21 -9.87751e-16 0)
(-5.12642e-21 -9.87745e-16 0)
(-1.21449e-20 -9.87736e-16 0)
(-1.34628e-20 -9.87724e-16 0)
(-7.6499e-21 -9.87709e-16 0)
(1.78801e-21 -9.87702e-16 0)
(1.52175e-20 -9.87689e-16 0)
(3.07075e-20 -9.87688e-16 0)
(5.15861e-20 -9.87678e-16 0)
(7.08576e-20 -9.87694e-16 0)
(8.60611e-20 -9.87697e-16 0)
(9.17122e-20 -9.87725e-16 0)
(8.80665e-20 -9.87724e-16 0)
(9.90534e-20 -9.8772e-16 0)
(1.00306e-19 -9.87746e-16 0)
(1.00991e-19 -9.87731e-16 0)
(1.10123e-19 -9.87748e-16 0)
(8.51856e-20 -9.87776e-16 0)
(4.62507e-20 -9.87735e-16 0)
(1.40838e-19 -9.87582e-16 0)
(2.11584e-19 -9.87778e-16 0)
(1.3866e-19 -9.87798e-16 0)
(1.60921e-19 -9.87661e-16 0)
(2.22147e-19 -9.23253e-16 0)
(1.86125e-19 -8.17103e-16 0)
(9.75504e-20 -7.06406e-16 0)
(-2.42524e-06 -1.90112e-13 0)
(-3.24353e-05 -2.32352e-06 0)
(-6.48438e-05 -1.72507e-06 0)
(-7.20874e-05 -9.1974e-07 0)
(-7.66392e-05 -8.7841e-07 0)
(-8.26143e-05 -1.84024e-06 0)
(-8.25527e-05 -1.59748e-05 0)
(-7.98628e-05 -1.45789e-05 0)
(-8.35597e-05 -1.62755e-05 0)
(-8.94086e-05 -2.19775e-05 0)
(-9.62759e-05 -3.39175e-05 0)
(-9.94331e-05 -5.77804e-05 0)
(-8.87356e-05 -9.41729e-05 0)
(-6.22642e-05 -0.000122157 0)
(-2.30735e-05 -0.000144172 0)
(2.30735e-05 -0.000144172 0)
(6.22642e-05 -0.000122157 0)
(8.87356e-05 -9.41729e-05 0)
(9.94331e-05 -5.77804e-05 0)
(9.62759e-05 -3.39175e-05 0)
(8.94086e-05 -2.19775e-05 0)
(8.35597e-05 -1.62755e-05 0)
(7.98628e-05 -1.45789e-05 0)
(8.25527e-05 -1.59748e-05 0)
(8.26143e-05 -1.84024e-06 0)
(7.66392e-05 -8.7841e-07 0)
(7.20874e-05 -9.1974e-07 0)
(6.48438e-05 -1.72507e-06 0)
(3.24353e-05 -2.32352e-06 0)
(2.42524e-06 -1.90112e-13 0)
(-9.75504e-20 -7.06406e-16 0)
(-1.86125e-19 -8.17103e-16 0)
(-2.22147e-19 -9.23253e-16 0)
(-1.60921e-19 -9.87661e-16 0)
(-1.3866e-19 -9.87798e-16 0)
(-2.11584e-19 -9.87778e-16 0)
(-1.40838e-19 -9.87582e-16 0)
(-4.62507e-20 -9.87735e-16 0)
(-8.51856e-20 -9.87776e-16 0)
(-1.10123e-19 -9.87748e-16 0)
(-1.00991e-19 -9.87731e-16 0)
(-1.00306e-19 -9.87746e-16 0)
(-9.90534e-20 -9.8772e-16 0)
(-8.80665e-20 -9.87724e-16 0)
(-9.17122e-20 -9.87725e-16 0)
(-8.60611e-20 -9.87697e-16 0)
(-7.08576e-20 -9.87694e-16 0)
(-5.15861e-20 -9.87678e-16 0)
(-3.07075e-20 -9.87688e-16 0)
(-1.52175e-20 -9.87689e-16 0)
(-1.78801e-21 -9.87702e-16 0)
(7.6499e-21 -9.87709e-16 0)
(1.34628e-20 -9.87724e-16 0)
(1.21449e-20 -9.87736e-16 0)
(5.12642e-21 -9.87745e-16 0)
(-3.24557e-21 -9.87741e-16 0)
(-7.64032e-21 -9.87735e-16 0)
(-7.70514e-21 -9.87725e-16 0)
(-2.51883e-21 -9.87714e-16 0)
(6.26219e-21 -9.87706e-16 0)
(1.83569e-20 -9.87697e-16 0)
(3.27514e-20 -9.87694e-16 0)
(5.01867e-20 -9.8769e-16 0)
(6.66598e-20 -9.87699e-16 0)
(7.96671e-20 -9.87706e-16 0)
(8.62076e-20 -9.87722e-16 0)
(8.76445e-20 -9.87726e-16 0)
(9.47814e-20 -9.87727e-16 0)
(9.75985e-20 -9.87741e-16 0)
(9.95087e-20 -9.87738e-16 0)
(1.02904e-19 -9.87748e-16 0)
(8.99828e-20 -9.87759e-16 0)
(7.84625e-20 -9.87729e-16 0)
(1.33055e-19 -9.87661e-16 0)
(1.75347e-19 -9.87754e-16 0)
(1.49045e-19 -9.87774e-16 0)
(1.61932e-19 -9.87732e-16 0)
(1.91675e-19 -9.87778e-16 0)
(1.69979e-19 -9.8783e-16 0)
(1.1919e-19 -9.87829e-16 0)
(9.73849e-20 -9.87758e-16 0)
(2.07488e-19 -9.67331e-16 0)
(2.65512e-19 -8.7419e-16 0)
(1.83767e-19 -7.77923e-16 0)
(6.37406e-13 -6.80247e-16 0)
(-9.84411e-06 -6.04684e-08 0)
(-3.91231e-05 -8.92402e-06 0)
(-6.45706e-05 -6.66762e-06 0)
(-7.66723e-05 -6.84732e-06 0)
(-9.08734e-05 -9.23154e-06 0)
(-0.000112186 -1.51302e-05 0)
(-0.000136311 -4.56294e-05 0)
(-0.000130602 -0.000124288 0)
(-9.58398e-05 -0.000160033 0)
(-3.88561e-05 -0.000213244 0)
(3.88561e-05 -0.000213244 0)
(9.58398e-05 -0.000160033 0)
(0.000130602 -0.000124288 0)
(0.000136311 -4.56294e-05 0)
(0.000112186 -1.51302e-05 0)
(9.08734e-05 -9.23154e-06 0)
(7.66723e-05 -6.84732e-06 0)
(6.45706e-05 -6.66762e-06 0)
(3.91231e-05 -8.92402e-06 0)
(9.84411e-06 -6.04684e-08 0)
(-6.37406e-13 -6.80247e-16 0)
(-1.83767e-19 -7.77923e-16 0)
(-2.65512e-19 -8.7419e-16 0)
(-2.07488e-19 -9.67331e-16 0)
(-9.73849e-20 -9.87758e-16 0)
(-1.1919e-19 -9.87829e-16 0)
(-1.69979e-19 -9.8783e-16 0)
(-1.91675e-19 -9.87778e-16 0)
(-1.61932e-19 -9.87732e-16 0)
(-1.49045e-19 -9.87774e-16 0)
(-1.75347e-19 -9.87754e-16 0)
(-1.33055e-19 -9.87661e-16 0)
(-7.84625e-20 -9.87729e-16 0)
(-8.99828e-20 -9.87759e-16 0)
(-1.02904e-19 -9.87748e-16 0)
(-9.95087e-20 -9.87738e-16 0)
(-9.75985e-20 -9.87741e-16 0)
(-9.47814e-20 -9.87727e-16 0)
(-8.76445e-20 -9.87726e-16 0)
(-8.62076e-20 -9.87722e-16 0)
(-7.96671e-20 -9.87706e-16 0)
(-6.66598e-20 -9.87699e-16 0)
(-5.01867e-20 -9.8769e-16 0)
(-3.27514e-20 -9.87694e-16 0)
(-1.83569e-20 -9.87697e-16 0)
(-6.26219e-21 -9.87706e-16 0)
(2.51883e-21 -9.87714e-16 0)
(7.70514e-21 -9.87725e-16 0)
(7.64032e-21 -9.87735e-16 0)
(3.24557e-21 -9.87741e-16 0)
(-1.75924e-21 -9.87739e-16 0)
(-3.89062e-21 -9.87734e-16 0)
(-2.8343e-21 -9.87726e-16 0)
(2.12032e-21 -9.87718e-16 0)
(1.02581e-20 -9.87711e-16 0)
(2.11676e-20 -9.87705e-16 0)
(3.41568e-20 -9.87702e-16 0)
(4.89164e-20 -9.877e-16 0)
(6.30087e-20 -9.87706e-16 0)
(7.44326e-20 -9.87712e-16 0)
(8.15739e-20 -9.87723e-16 0)
(8.56137e-20 -9.87728e-16 0)
(9.12841e-20 -9.87732e-16 0)
(9.4878e-20 -9.8774e-16 0)
(9.74747e-20 -9.87741e-16 0)
(9.94749e-20 -9.87747e-16 0)
(9.48592e-20 -9.8775e-16 0)
(9.56083e-20 -9.87732e-16 0)
(1.27902e-19 -9.87704e-16 0)
(1.54467e-19 -9.87748e-16 0)
(1.49656e-19 -9.87764e-16 0)
(1.58406e-19 -9.87753e-16 0)
(1.72402e-19 -9.8778e-16 0)
(1.60272e-19 -9.8781e-16 0)
(1.3409e-19 -9.87808e-16 0)
(1.30507e-19 -9.87767e-16 0)
(1.89285e-19 -9.8772e-16 0)
(2.22447e-19 -9.87821e-16 0)
(1.87689e-19 -9.87842e-16 0)
(1.68321e-19 -9.87815e-16 0)
(2.31769e-19 -9.87643e-16 0)
(2.89461e-19 -9.52302e-16 0)
(2.83107e-19 -8.94831e-16 0)
(2.89816e-19 -8.54437e-16 0)
(3.109e-19 -8.08813e-16 0)
(9.57532e-16 -1.26855e-12 0)
(1.09605e-06 -1.65491e-05 0)
(-5.24314e-05 -7.41812e-05 0)
(-0.000131666 -0.000149843 0)
(-7.81381e-05 -0.000356865 0)
(7.81381e-05 -0.000356865 0)
(0.000131666 -0.000149843 0)
(5.24314e-05 -7.41812e-05 0)
(-1.09605e-06 -1.65491e-05 0)
(-9.57532e-16 -1.26855e-12 0)
(-3.109e-19 -8.08813e-16 0)
(-2.89816e-19 -8.54437e-16 0)
(-2.83107e-19 -8.94831e-16 0)
(-2.89461e-19 -9.52302e-16 0)
(-2.31769e-19 -9.87643e-16 0)
(-1.68321e-19 -9.87815e-16 0)
(-1.87689e-19 -9.87842e-16 0)
(-2.22447e-19 -9.87821e-16 0)
(-1.89285e-19 -9.8772e-16 0)
(-1.30507e-19 -9.87767e-16 0)
(-1.3409e-19 -9.87808e-16 0)
(-1.60272e-19 -9.8781e-16 0)
(-1.72402e-19 -9.8778e-16 0)
(-1.58406e-19 -9.87753e-16 0)
(-1.49656e-19 -9.87764e-16 0)
(-1.54467e-19 -9.87748e-16 0)
(-1.27902e-19 -9.87704e-16 0)
(-9.56083e-20 -9.87732e-16 0)
(-9.48592e-20 -9.8775e-16 0)
(-9.94749e-20 -9.87747e-16 0)
(-9.74747e-20 -9.87741e-16 0)
(-9.4878e-20 -9.8774e-16 0)
(-9.12841e-20 -9.87732e-16 0)
(-8.56137e-20 -9.87728e-16 0)
(-8.15739e-20 -9.87723e-16 0)
(-7.44326e-20 -9.87712e-16 0)
(-6.30087e-20 -9.87706e-16 0)
(-4.89164e-20 -9.877e-16 0)
(-3.41568e-20 -9.87702e-16 0)
(-2.11676e-20 -9.87705e-16 0)
(-1.02581e-20 -9.87711e-16 0)
(-2.12032e-21 -9.87718e-16 0)
(2.8343e-21 -9.87726e-16 0)
(3.89062e-21 -9.87734e-16 0)
(1.75924e-21 -9.87739e-16 0)
(-5.87991e-22 -9.87737e-16 0)
(-8.32649e-22 -9.87734e-16 0)
(1.21821e-21 -9.87728e-16 0)
(6.15533e-21 -9.87722e-16 0)
(1.37239e-20 -9.87716e-16 0)
(2.35624e-20 -9.87711e-16 0)
(3.51123e-20 -9.87709e-16 0)
(4.7744e-20 -9.87709e-16 0)
(5.98871e-20 -9.87713e-16 0)
(7.01085e-20 -9.87718e-16 0)
(7.75177e-20 -9.87726e-16 0)
(8.28468e-20 -9.87731e-16 0)
(8.81352e-20 -9.87735e-16 0)
(9.2224e-20 -9.87741e-16 0)
(9.5441e-20 -9.87744e-16 0)
(9.79027e-20 -9.87747e-16 0)
(9.84326e-20 -9.87748e-16 0)
(1.03976e-19 -9.87738e-16 0)
(1.24146e-19 -9.87728e-16 0)
(1.41948e-19 -9.87749e-16 0)
(1.4584e-19 -9.87762e-16 0)
(1.52801e-19 -9.87764e-16 0)
(1.59907e-19 -9.87781e-16 0)
(1.54275e-19 -9.87799e-16 0)
(1.42955e-19 -9.87798e-16 0)
(1.46201e-19 -9.87778e-16 0)
(1.77797e-19 -9.87762e-16 0)
(1.97687e-19 -9.8781e-16 0)
(1.86899e-19 -9.87828e-16 0)
(1.84234e-19 -9.87817e-16 0)
(2.19358e-19 -9.87797e-16 0)
(2.53369e-19 -9.87859e-16 0)
(2.58446e-19 -9.87891e-16 0)
(2.63152e-19 -9.8791e-16 0)
(2.71116e-19 -9.87935e-16 0)
(2.81226e-19 -9.87973e-16 0)
(4.1231e-19 -1.70898e-15 0)
(2.65195e-09 -4.46453e-06 0)
(5.34777e-07 -0.000113867 0)
(5.32125e-07 -0.000447366 0)
(-5.32125e-07 -0.000447366 0)
(-5.34777e-07 -0.000113867 0)